Protein in water t=   0.00000 step= 0
325731
    1DC5    H5T    1   8.396   6.327   1.012
    1DC5    O5'    2   8.439   6.387   1.077
    1DC5    C5'    3   8.560   6.429   1.027
    1DC5   H5'1    4   8.543   6.465   0.920
    1DC5   H5'2    5   8.631   6.348   1.019
    1DC5    C4'    6   8.624   6.545   1.112
    1DC5    H4'    7   8.708   6.579   1.066
    1DC5    O4'    8   8.536   6.656   1.114
    1DC5    C1'    9   8.516   6.708   1.244
    1DC5    H1'   10   8.604   6.779   1.264
    1DC5     N1   11   8.379   6.774   1.260
    1DC5     C6   12   8.265   6.696   1.283
    1DC5     H6   13   8.277   6.593   1.290
    1DC5     C5   14   8.145   6.758   1.307
    1DC5     H5   15   8.054   6.706   1.336
    1DC5     C4   16   8.151   6.903   1.297
    1DC5     N4   17   8.042   6.968   1.324
    1DC5    H41   18   8.046   7.066   1.331
    1DC5    H42   19   7.953   6.914   1.338
    1DC5     N3   20   8.251   6.971   1.259
    1DC5     C2   21   8.372   6.912   1.244
    1DC5     O2   22   8.470   6.981   1.211
    1DC5    C3'   23   8.656   6.516   1.260
    1DC5    H3'   24   8.676   6.410   1.269
    1DC5    C2'   25   8.539   6.578   1.339
    1DC5   H2'1   26   8.458   6.507   1.339
    1DC5   H2'2   27   8.571   6.599   1.446
    1DC5    O3'   28   8.778   6.582   1.289
    2DG       P   29   8.866   6.540   1.415
    2DG     O1P   30   8.984   6.463   1.375
    2DG     O2P   31   8.774   6.484   1.515
    2DG     O5'   32   8.927   6.676   1.480
    2DG     C5'   33   8.981   6.772   1.391
    2DG    H5'1   34   8.919   6.784   1.302
    2DG    H5'2   35   9.080   6.741   1.356
    2DG     C4'   36   9.003   6.912   1.447
    2DG     H4'   37   9.085   6.950   1.385
    2DG     O4'   38   8.891   6.997   1.438
    2DG     C1'   39   8.828   7.012   1.561
    2DG     H1'   40   8.834   7.115   1.597
    2DG      N9   41   8.684   6.974   1.550
    2DG      C8   42   8.621   6.854   1.525
    2DG      H8   43   8.672   6.765   1.519
    2DG      N7   44   8.493   6.856   1.551
    2DG      C5   45   8.461   6.995   1.553
    2DG      C6   46   8.339   7.069   1.570
    2DG      O6   47   8.222   7.023   1.574
    2DG      N1   48   8.351   7.205   1.581
    2DG      H1   49   8.274   7.266   1.572
    2DG      C2   50   8.470   7.267   1.578
    2DG      N2   51   8.455   7.397   1.580
    2DG     H21   52   8.365   7.442   1.604
    2DG     H22   53   8.532   7.458   1.567
    2DG      N3   54   8.589   7.203   1.561
    2DG      C4   55   8.576   7.069   1.550
    2DG     C3'   56   9.047   6.918   1.595
    2DG     H3'   57   9.106   6.830   1.619
    2DG     C2'   58   8.906   6.921   1.659
    2DG    H2'1   59   8.862   6.823   1.659
    2DG    H2'2   60   8.892   6.969   1.759
    2DG     O3'   61   9.115   7.034   1.606
    3DC       P   62   9.169   7.094   1.749
    3DC     O1P   63   9.297   7.164   1.724
    3DC     O2P   64   9.168   6.980   1.848
    3DC     O5'   65   9.065   7.200   1.785
    3DC     C5'   66   9.033   7.303   1.692
    3DC    H5'1   67   9.004   7.261   1.591
    3DC    H5'2   68   9.112   7.371   1.669
    3DC     C4'   69   8.923   7.394   1.753
    3DC     H4'   70   8.922   7.483   1.700
    3DC     O4'   71   8.798   7.321   1.743
    3DC     C1'   72   8.733   7.343   1.864
    3DC     H1'   73   8.680   7.438   1.864
    3DC      N1   74   8.646   7.229   1.885
    3DC      C6   75   8.692   7.105   1.917
    3DC      H6   76   8.797   7.078   1.910
    3DC      C5   77   8.605   7.003   1.943
    3DC      H5   78   8.646   6.910   1.972
    3DC      C4   79   8.466   7.033   1.939
    3DC      N4   80   8.382   6.928   1.935
    3DC     H41   81   8.289   6.943   1.907
    3DC     H42   82   8.403   6.832   1.955
    3DC      N3   83   8.421   7.148   1.906
    3DC      C2   84   8.508   7.249   1.879
    3DC      O2   85   8.459   7.360   1.866
    3DC     C3'   86   8.946   7.426   1.897
    3DC     H3'   87   9.046   7.403   1.933
    3DC     C2'   88   8.840   7.347   1.976
    3DC    H2'1   89   8.885   7.247   2.000
    3DC    H2'2   90   8.795   7.398   2.059
    3DC     O3'   91   8.920   7.566   1.916
    4DA       P   92   8.952   7.637   2.055
    4DA     O1P   93   9.014   7.767   2.034
    4DA     O2P   94   9.021   7.539   2.148
    4DA     O5'   95   8.799   7.657   2.095
    4DA     C5'   96   8.721   7.763   2.045
    4DA    H5'1   97   8.703   7.744   1.944
    4DA    H5'2   98   8.774   7.864   2.060
    4DA     C4'   99   8.585   7.768   2.121
    4DA     H4'  100   8.512   7.840   2.080
    4DA     O4'  101   8.511   7.653   2.103
    4DA     C1'  102   8.464   7.604   2.228
    4DA     H1'  103   8.368   7.648   2.255
    4DA      N9  104   8.446   7.460   2.230
    4DA      C8  105   8.539   7.363   2.209
    4DA      H8  106   8.637   7.389   2.173
    4DA      N7  107   8.487   7.242   2.225
    4DA      C5  108   8.349   7.269   2.240
    4DA      C6  109   8.230   7.190   2.258
    4DA      N6  110   8.225   7.059   2.260
    4DA     H61  111   8.137   7.019   2.267
    4DA     H62  112   8.308   7.007   2.248
    4DA      N1  113   8.108   7.250   2.251
    4DA      C2  114   8.107   7.382   2.254
    4DA      H2  115   8.011   7.432   2.247
    4DA      N3  116   8.207   7.463   2.258
    4DA      C4  117   8.325   7.401   2.247
    4DA     C3'  118   8.605   7.782   2.275
    4DA     H3'  119   8.704   7.813   2.296
    4DA     C2'  120   8.574   7.642   2.327
    4DA    H2'1  121   8.661   7.577   2.308
    4DA    H2'2  122   8.533   7.642   2.426
    4DA     O3'  123   8.504   7.878   2.324
    5DT       P  124   8.492   7.925   2.476
    5DT     O1P  125   8.468   8.067   2.476
    5DT     O2P  126   8.608   7.865   2.547
    5DT     O5'  127   8.370   7.844   2.536
    5DT     C5'  128   8.236   7.866   2.490
    5DT    H5'1  129   8.240   7.859   2.382
    5DT    H5'2  130   8.208   7.971   2.508
    5DT     C4'  131   8.121   7.770   2.524
    5DT     H4'  132   8.028   7.799   2.479
    5DT     O4'  133   8.158   7.642   2.479
    5DT     C1'  134   8.086   7.562   2.569
    5DT     H1'  135   7.983   7.567   2.535
    5DT      N1  136   8.131   7.424   2.560
    5DT      C6  137   8.268   7.399   2.584
    5DT      H6  138   8.337   7.489   2.589
    5DT      C5  139   8.330   7.279   2.599
    5DT      C7  140   8.477   7.255   2.601
    5DT     H71  141   8.533   7.347   2.589
    5DT     H72  142   8.503   7.209   2.696
    5DT     H73  143   8.508   7.191   2.522
    5DT      C4  144   8.245   7.158   2.598
    5DT      O4  145   8.284   7.040   2.598
    5DT      N3  146   8.108   7.187   2.583
    5DT      H3  147   8.050   7.111   2.569
    5DT      C2  148   8.049   7.315   2.563
    5DT      O2  149   7.927   7.327   2.553
    5DT     C3'  150   8.096   7.770   2.680
    5DT     H3'  151   8.177   7.814   2.734
    5DT     C2'  152   8.096   7.619   2.712
    5DT    H2'1  153   8.189   7.599   2.760
    5DT    H2'2  154   8.018   7.583   2.777
    5DT     O3'  155   7.977   7.846   2.712
    6DG       P  156   7.894   7.838   2.859
    6DG     O1P  157   7.801   7.954   2.867
    6DG     O2P  158   8.000   7.825   2.958
    6DG     O5'  159   7.821   7.696   2.860
    6DG     C5'  160   7.713   7.671   2.766
    6DG    H5'1  161   7.762   7.622   2.683
    6DG    H5'2  162   7.665   7.771   2.737
    6DG     C4'  163   7.595   7.587   2.821
    6DG     H4'  164   7.509   7.603   2.764
    6DG     O4'  165   7.635   7.452   2.811
    6DG     C1'  166   7.672   7.402   2.938
    6DG     H1'  167   7.611   7.323   2.973
    6DG      N9  168   7.806   7.360   2.939
    6DG      C8  169   7.924   7.432   2.967
    6DG      H8  170   7.928   7.542   2.976
    6DG      N7  171   8.029   7.352   2.964
    6DG      C5  172   7.974   7.229   2.936
    6DG      C6  173   8.042   7.099   2.922
    6DG      O6  174   8.164   7.077   2.927
    6DG      N1  175   7.957   6.989   2.910
    6DG      H1  176   8.005   6.901   2.909
    6DG      C2  177   7.824   7.004   2.888
    6DG      N2  178   7.753   6.898   2.888
    6DG     H21  179   7.789   6.807   2.888
    6DG     H22  180   7.658   6.917   2.894
    6DG      N3  181   7.756   7.120   2.893
    6DG      C4  182   7.841   7.228   2.922
    6DG     C3'  183   7.559   7.615   2.965
    6DG     H3'  184   7.587   7.718   2.983
    6DG     C2'  185   7.649   7.519   3.043
    6DG    H2'1  186   7.736   7.568   3.070
    6DG    H2'2  187   7.589   7.472   3.124
    6DG     O3'  188   7.422   7.569   2.969
    7DT       P  189   7.326   7.613   3.080
    7DT     O1P  190   7.195   7.621   3.016
    7DT     O2P  191   7.384   7.729   3.154
    7DT     O5'  192   7.324   7.481   3.163
    7DT     C5'  193   7.266   7.367   3.103
    7DT    H5'1  194   7.284   7.367   2.992
    7DT    H5'2  195   7.156   7.375   3.132
    7DT     C4'  196   7.329   7.247   3.180
    7DT     H4'  197   7.273   7.159   3.155
    7DT     O4'  198   7.469   7.227   3.147
    7DT     C1'  199   7.531   7.196   3.270
    7DT     H1'  200   7.498   7.091   3.285
    7DT      N1  201   7.680   7.204   3.271
    7DT      C6  202   7.745   7.321   3.310
    7DT      H6  203   7.688   7.404   3.340
    7DT      C5  204   7.880   7.317   3.310
    7DT      C7  205   7.957   7.440   3.352
    7DT     H71  206   7.883   7.515   3.384
    7DT     H72  207   8.022   7.406   3.433
    7DT     H73  208   8.018   7.476   3.269
    7DT      C4  209   7.956   7.200   3.268
    7DT      O4  210   8.081   7.193   3.270
    7DT      N3  211   7.881   7.089   3.250
    7DT      H3  212   7.932   7.009   3.213
    7DT      C2  213   7.748   7.093   3.230
    7DT      O2  214   7.685   6.996   3.185
    7DT     C3'  215   7.316   7.255   3.333
    7DT     H3'  216   7.242   7.333   3.367
    7DT     C2'  217   7.456   7.282   3.380
    7DT    H2'1  218   7.478   7.384   3.375
    7DT    H2'2  219   7.471   7.236   3.478
    7DT     O3'  220   7.274   7.127   3.383
    8DG       P  221   7.133   7.061   3.380
    8DG     O1P  222   7.061   7.111   3.260
    8DG     O2P  223   7.081   7.079   3.513
    8DG     O5'  224   7.173   6.905   3.365
    8DG     C5'  225   7.172   6.817   3.473
    8DG    H5'1  226   7.070   6.790   3.495
    8DG    H5'2  227   7.212   6.865   3.558
    8DG     C4'  228   7.254   6.693   3.434
    8DG     H4'  229   7.197   6.644   3.357
    8DG     O4'  230   7.383   6.727   3.378
    8DG     C1'  231   7.479   6.686   3.471
    8DG     H1'  232   7.535   6.598   3.435
    8DG      N9  233   7.573   6.793   3.504
    8DG      C8  234   7.549   6.924   3.538
    8DG      H8  235   7.443   6.964   3.544
    8DG      N7  236   7.658   6.993   3.563
    8DG      C5  237   7.760   6.900   3.536
    8DG      C6  238   7.903   6.909   3.539
    8DG      O6  239   7.977   7.005   3.561
    8DG      N1  240   7.966   6.795   3.517
    8DG      H1  241   8.068   6.801   3.517
    8DG      C2  242   7.901   6.677   3.485
    8DG      N2  243   7.980   6.567   3.463
    8DG     H21  244   8.082   6.585   3.465
    8DG     H22  245   7.934   6.481   3.449
    8DG      N3  246   7.769   6.656   3.488
    8DG      C4  247   7.709   6.776   3.507
    8DG     C3'  248   7.268   6.595   3.547
    8DG     H3'  249   7.187   6.627   3.616
    8DG     C2'  250   7.410   6.631   3.596
    8DG    H2'1  251   7.402   6.711   3.660
    8DG    H2'2  252   7.460   6.554   3.645
    8DG     O3'  253   7.254   6.463   3.504
    9DC       P  254   7.214   6.349   3.612
    9DC     O1P  255   7.217   6.219   3.537
    9DC     O2P  256   7.085   6.394   3.677
    9DC     O5'  257   7.322   6.341   3.729
    9DC     C5'  258   7.428   6.245   3.721
    9DC    H5'1  259   7.479   6.257   3.627
    9DC    H5'2  260   7.393   6.147   3.738
    9DC     C4'  261   7.545   6.267   3.817
    9DC     H4'  262   7.613   6.186   3.813
    9DC     O4'  263   7.619   6.388   3.787
    9DC     C1'  264   7.663   6.448   3.907
    9DC     H1'  265   7.746   6.389   3.952
    9DC      N1  266   7.720   6.586   3.902
    9DC      C6  267   7.650   6.703   3.927
    9DC      H6  268   7.543   6.701   3.943
    9DC      C5  269   7.705   6.829   3.911
    9DC      H5  270   7.644   6.916   3.914
    9DC      C4  271   7.845   6.832   3.883
    9DC      N4  272   7.906   6.947   3.871
    9DC     H41  273   8.004   6.952   3.854
    9DC     H42  274   7.859   7.030   3.875
    9DC      N3  275   7.918   6.723   3.863
    9DC      C2  276   7.849   6.602   3.861
    9DC      O2  277   7.915   6.507   3.824
    9DC     C3'  278   7.504   6.292   3.960
    9DC     H3'  279   7.396   6.276   3.979
    9DC     C2'  280   7.532   6.439   3.984
    9DC    H2'1  281   7.456   6.505   3.943
    9DC    H2'2  282   7.545   6.469   4.085
    9DC     O3'  283   7.570   6.205   4.051
   10DG       P  284   7.531   6.054   4.070
   10DG     O1P  285   7.489   5.998   3.941
   10DG     O2P  286   7.437   6.059   4.185
   10DG     O5'  287   7.667   5.970   4.117
   10DG     C5'  288   7.781   5.958   4.035
   10DG    H5'1  289   7.809   5.857   4.021
   10DG    H5'2  290   7.757   5.993   3.937
   10DG     C4'  291   7.902   6.025   4.095
   10DG     H4'  292   7.987   5.972   4.051
   10DG     O4'  293   7.914   6.162   4.061
   10DG     C1'  294   7.980   6.222   4.167
   10DG     H1'  295   8.086   6.200   4.149
   10DG      N9  296   7.948   6.367   4.167
   10DG      C8  297   7.827   6.422   4.197
   10DG      H8  298   7.737   6.362   4.210
   10DG      N7  299   7.831   6.555   4.202
   10DG      C5  300   7.972   6.580   4.184
   10DG      C6  301   8.057   6.699   4.177
   10DG      O6  302   8.022   6.815   4.181
   10DG      N1  303   8.191   6.679   4.176
   10DG      H1  304   8.248   6.767   4.152
   10DG      C2  305   8.249   6.557   4.170
   10DG      N2  306   8.377   6.541   4.179
   10DG     H21  307   8.443   6.616   4.164
   10DG     H22  308   8.423   6.445   4.174
   10DG      N3  309   8.178   6.445   4.171
   10DG      C4  310   8.041   6.463   4.175
   10DG     C3'  311   7.922   6.005   4.251
   10DG     H3'  312   7.833   5.964   4.295
   10DG     C2'  313   7.943   6.148   4.301
   10DG    H2'1  314   7.856   6.194   4.351
   10DG    H2'2  315   8.030   6.146   4.368
   10DG     O3'  316   8.028   5.922   4.266
   11DT       P  317   8.088   5.885   4.410
   11DT     O1P  318   8.152   5.754   4.396
   11DT     O2P  319   7.976   5.894   4.499
   11DT     O5'  320   8.208   5.989   4.443
   11DT     C5'  321   8.319   6.009   4.354
   11DT    H5'1  322   8.286   6.034   4.256
   11DT    H5'2  323   8.368   5.911   4.343
   11DT     C4'  324   8.418   6.113   4.408
   11DT     H4'  325   8.507   6.104   4.338
   11DT     O4'  326   8.359   6.244   4.403
   11DT     C1'  327   8.388   6.313   4.524
   11DT     H1'  328   8.489   6.343   4.528
   11DT      N1  329   8.296   6.425   4.546
   11DT      C6  330   8.165   6.402   4.584
   11DT      H6  331   8.134   6.305   4.609
   11DT      C5  332   8.076   6.503   4.588
   11DT      C7  333   7.931   6.472   4.636
   11DT     H71  334   7.877   6.446   4.546
   11DT     H72  335   7.937   6.385   4.695
   11DT     H73  336   7.884   6.553   4.684
   11DT      C4  337   8.124   6.638   4.554
   11DT      O4  338   8.052   6.736   4.561
   11DT      N3  339   8.255   6.653   4.516
   11DT      H3  340   8.289   6.748   4.508
   11DT      C2  341   8.350   6.551   4.518
   11DT      O2  342   8.466   6.571   4.482
   11DT     C3'  343   8.455   6.093   4.552
   11DT     H3'  344   8.424   6.000   4.584
   11DT     C2'  345   8.383   6.197   4.628
   11DT    H2'1  346   8.278   6.168   4.639
   11DT    H2'2  347   8.437   6.224   4.720
   11DT     O3'  348   8.597   6.092   4.559
   12DA       P  349   8.683   6.080   4.686
   12DA     O1P  350   8.818   6.036   4.643
   12DA     O2P  351   8.617   6.008   4.800
   12DA     O5'  352   8.681   6.225   4.741
   12DA     C5'  353   8.739   6.333   4.667
   12DA    H5'1  354   8.677   6.359   4.585
   12DA    H5'2  355   8.826   6.295   4.625
   12DA     C4'  356   8.795   6.460   4.733
   12DA     H4'  357   8.871   6.513   4.670
   12DA     O4'  358   8.690   6.544   4.760
   12DA     C1'  359   8.688   6.562   4.899
   12DA     H1'  360   8.744   6.654   4.924
   12DA      N9  361   8.547   6.581   4.940
   12DA      C8  362   8.452   6.489   4.984
   12DA      H8  363   8.478   6.385   5.002
   12DA      N7  364   8.326   6.540   4.994
   12DA      C5  365   8.349   6.675   4.948
   12DA      C6  366   8.260   6.777   4.913
   12DA      N6  367   8.130   6.780   4.943
   12DA     H61  368   8.092   6.873   4.922
   12DA     H62  369   8.082   6.719   5.011
   12DA      N1  370   8.311   6.892   4.864
   12DA      C2  371   8.441   6.910   4.846
   12DA      H2  372   8.484   7.006   4.822
   12DA      N3  373   8.530   6.817   4.874
   12DA      C4  374   8.479   6.695   4.915
   12DA     C3'  375   8.871   6.420   4.862
   12DA     H3'  376   8.906   6.321   4.872
   12DA     C2'  377   8.755   6.446   4.961
   12DA    H2'1  378   8.691   6.357   4.958
   12DA    H2'2  379   8.780   6.459   5.068
   12DA     O3'  380   8.978   6.509   4.873
   13DD       P  381   9.088   6.506   4.989
   13DD     O1P  382   9.228   6.509   4.935
   13DD     O2P  383   9.055   6.406   5.089
   13DD     O5'  384   9.049   6.649   5.045
   13DD     C5'  385   9.056   6.763   4.968
   13DD    H5'1  386   8.993   6.755   4.881
   13DD    H5'2  387   9.151   6.786   4.932
   13DD     C4'  388   9.021   6.893   5.052
   13DD     H4'  389   9.030   6.977   4.985
   13DD     O4'  390   8.881   6.902   5.080
   13DD     C1'  391   8.867   6.973   5.205
   13DD     H1'  392   8.897   7.075   5.197
   13DD      N1  393   8.733   6.959   5.258
   13DD      C6  394   8.709   6.882   5.383
   13DD      H6  395   8.784   6.803   5.410
   13DD      C5  396   8.575   6.807   5.377
   13DD      C7  397   8.586   6.653   5.372
   13DD     H71  398   8.486   6.611   5.405
   13DD     H72  399   8.596   6.624   5.265
   13DD     H73  400   8.666   6.600   5.435
   13DD      C4  401   8.475   6.864   5.272
   13DD      O4  402   8.358   6.827   5.256
   13DD      N3  403   8.518   6.967   5.199
   13DD      H3  404   8.441   7.033   5.176
   13DD      C2  405   8.641   7.023   5.191
   13DD      O2  406   8.658   7.131   5.140
   13DD     C3'  407   9.093   6.913   5.184
   13DD     H3'  408   9.158   6.831   5.206
   13DD     C2'  409   8.979   6.920   5.284
   13DD    H2'1  410   8.968   6.817   5.308
   13DD    H2'2  411   9.002   6.966   5.383
   13DD     O3'  412   9.168   7.035   5.177
   14DD       P  413   9.239   7.093   5.303
   14DD     O1P  414   9.341   7.192   5.266
   14DD     O2P  415   9.276   6.972   5.387
   14DD     O5'  416   9.133   7.183   5.386
   14DD     C5'  417   9.063   7.292   5.331
   14DD    H5'1  418   9.037   7.262   5.225
   14DD    H5'2  419   9.124   7.379   5.331
   14DD     C4'  420   8.935   7.307   5.415
   14DD     H4'  421   8.896   7.408   5.387
   14DD     O4'  422   8.832   7.215   5.385
   14DD     C1'  423   8.749   7.207   5.498
   14DD     H1'  424   8.700   7.303   5.505
   14DD      N1  425   8.641   7.104   5.502
   14DD      C6  426   8.673   6.956   5.518
   14DD      H6  427   8.740   6.933   5.600
   14DD      C5  428   8.551   6.858   5.527
   14DD      C7  429   8.589   6.757   5.636
   14DD     H71  430   8.687   6.709   5.632
   14DD     H72  431   8.576   6.804   5.739
   14DD     H73  432   8.518   6.683   5.631
   14DD      C4  433   8.422   6.934   5.548
   14DD      O4  434   8.324   6.879   5.599
   14DD      N3  435   8.410   7.057   5.492
   14DD      H3  436   8.322   7.104   5.508
   14DD      C2  437   8.514   7.145   5.496
   14DD      O2  438   8.479   7.262   5.478
   14DD     C3'  439   8.944   7.311   5.573
   14DD     H3'  440   9.045   7.288   5.615
   14DD     C2'  441   8.845   7.200   5.613
   14DD    H2'1  442   8.897   7.106   5.627
   14DD    H2'2  443   8.800   7.236   5.701
   14DD     O3'  444   8.896   7.438   5.619
   15DA       P  445   9.008   7.552   5.628
   15DA     O1P  446   9.082   7.561   5.498
   15DA     O2P  447   9.083   7.534   5.754
   15DA     O5'  448   8.918   7.683   5.648
   15DA     C5'  449   8.830   7.725   5.549
   15DA    H5'1  450   8.839   7.664   5.463
   15DA    H5'2  451   8.849   7.831   5.519
   15DA     C4'  452   8.677   7.734   5.580
   15DA     H4'  453   8.644   7.781   5.488
   15DA     O4'  454   8.619   7.605   5.603
   15DA     C1'  455   8.526   7.617   5.704
   15DA     H1'  456   8.429   7.647   5.659
   15DA      N9  457   8.512   7.487   5.767
   15DA      C8  458   8.616   7.412   5.796
   15DA      H8  459   8.722   7.448   5.788
   15DA      N7  460   8.581   7.289   5.838
   15DA      C5  461   8.443   7.298   5.842
   15DA      C6  462   8.336   7.206   5.868
   15DA      N6  463   8.355   7.078   5.897
   15DA     H61  464   8.275   7.026   5.911
   15DA     H62  465   8.455   7.043   5.889
   15DA      N1  466   8.208   7.247   5.876
   15DA      C2  467   8.185   7.374   5.854
   15DA      H2  468   8.077   7.391   5.849
   15DA      N3  469   8.268   7.472   5.818
   15DA      C4  470   8.400   7.425   5.819
   15DA     C3'  471   8.658   7.818   5.706
   15DA     H3'  472   8.750   7.847   5.749
   15DA     C2'  473   8.581   7.722   5.802
   15DA    H2'1  474   8.642   7.671   5.875
   15DA    H2'2  475   8.487   7.759   5.852
   15DA     O3'  476   8.578   7.930   5.672
   16DT       P  477   8.574   8.052   5.773
   16DT     O1P  478   8.521   8.169   5.696
   16DT     O2P  479   8.704   8.064   5.844
   16DT     O5'  480   8.466   8.006   5.879
   16DT     C5'  481   8.324   8.007   5.847
   16DT    H5'1  482   8.299   7.956   5.753
   16DT    H5'2  483   8.291   8.106   5.837
   16DT     C4'  484   8.238   7.953   5.954
   16DT     H4'  485   8.137   7.973   5.936
   16DT     O4'  486   8.257   7.814   5.957
   16DT     C1'  487   8.203   7.759   6.078
   16DT     H1'  488   8.100   7.734   6.061
   16DT      N1  489   8.278   7.633   6.115
   16DT      C6  490   8.416   7.617   6.110
   16DT      H6  491   8.472   7.706   6.092
   16DT      C5  492   8.470   7.501   6.147
   16DT      C7  493   8.624   7.494   6.143
   16DT     H71  494   8.672   7.443   6.062
   16DT     H72  495   8.673   7.593   6.145
   16DT     H73  496   8.651   7.443   6.232
   16DT      C4  497   8.387   7.384   6.181
   16DT      O4  498   8.431   7.274   6.199
   16DT      N3  499   8.253   7.408   6.178
   16DT      H3  500   8.188   7.331   6.190
   16DT      C2  501   8.195   7.524   6.146
   16DT      O2  502   8.071   7.523   6.148
   16DT     C3'  503   8.247   7.998   6.103
   16DT     H3'  504   8.347   8.032   6.131
   16DT     C2'  505   8.216   7.868   6.184
   16DT    H2'1  506   8.294   7.841   6.259
   16DT    H2'2  507   8.120   7.879   6.228
   16DT     O3'  508   8.148   8.098   6.126
   17DA       P  509   8.137   8.192   6.259
   17DA     O1P  510   8.046   8.303   6.222
   17DA     O2P  511   8.272   8.224   6.300
   17DA     O5'  512   8.072   8.097   6.372
   17DA     C5'  513   7.931   8.067   6.362
   17DA    H5'1  514   7.924   8.041   6.259
   17DA    H5'2  515   7.876   8.161   6.384
   17DA     C4'  516   7.877   7.959   6.447
   17DA     H4'  517   7.772   7.943   6.421
   17DA     O4'  518   7.948   7.839   6.427
   17DA     C1'  519   7.982   7.781   6.552
   17DA     H1'  520   7.891   7.738   6.594
   17DA      N9  521   8.090   7.683   6.528
   17DA      C8  522   8.217   7.709   6.492
   17DA      H8  523   8.250   7.815   6.479
   17DA      N7  524   8.291   7.607   6.466
   17DA      C5  525   8.204   7.499   6.494
   17DA      C6  526   8.208   7.360   6.507
   17DA      N6  527   8.315   7.286   6.477
   17DA     H61  528   8.313   7.192   6.508
   17DA     H62  529   8.402   7.331   6.448
   17DA      N1  530   8.111   7.288   6.550
   17DA      C2  531   8.005   7.349   6.596
   17DA      H2  532   7.927   7.281   6.640
   17DA      N3  533   7.976   7.481   6.589
   17DA      C4  534   8.083   7.548   6.537
   17DA     C3'  535   7.904   7.996   6.591
   17DA     H3'  536   7.927   8.109   6.589
   17DA     C2'  537   8.019   7.907   6.633
   17DA    H2'1  538   8.108   7.964   6.606
   17DA    H2'2  539   8.007   7.898   6.746
   17DA     O3'  540   7.785   7.977   6.662
   18DC       P  541   7.744   8.020   6.807
   18DC     O1P  542   7.600   8.054   6.809
   18DC     O2P  543   7.847   8.123   6.842
   18DC     O5'  544   7.770   7.888   6.900
   18DC     C5'  545   7.682   7.779   6.882
   18DC    H5'1  546   7.689   7.745   6.778
   18DC    H5'2  547   7.579   7.806   6.897
   18DC     C4'  548   7.711   7.659   6.977
   18DC     H4'  549   7.609   7.605   6.976
   18DC     O4'  550   7.817   7.579   6.921
   18DC     C1'  551   7.916   7.575   7.021
   18DC     H1'  552   7.901   7.491   7.090
   18DC      N1  553   8.054   7.557   6.962
   18DC      C6  554   8.130   7.662   6.924
   18DC      H6  555   8.094   7.762   6.932
   18DC      C5  556   8.252   7.629   6.868
   18DC      H5  557   8.317   7.712   6.852
   18DC      C4  558   8.290   7.496   6.851
   18DC      N4  559   8.408   7.468   6.808
   18DC     H41  560   8.440   7.373   6.809
   18DC     H42  561   8.469   7.532   6.778
   18DC      N3  562   8.216   7.398   6.897
   18DC      C2  563   8.096   7.425   6.944
   18DC      O2  564   8.018   7.329   6.961
   18DC     C3'  565   7.752   7.702   7.116
   18DC     H3'  566   7.713   7.804   7.141
   18DC     C2'  567   7.903   7.694   7.113
   18DC    H2'1  568   7.939   7.794   7.083
   18DC    H2'2  569   7.950   7.677   7.206
   18DC     O3'  570   7.724   7.605   7.216
   19DA       P  571   7.592   7.601   7.302
   19DA     O1P  572   7.478   7.594   7.206
   19DA     O2P  573   7.596   7.712   7.403
   19DA     O5'  574   7.603   7.469   7.383
   19DA     C5'  575   7.551   7.342   7.331
   19DA    H5'1  576   7.552   7.338   7.222
   19DA    H5'2  577   7.446   7.342   7.354
   19DA     C4'  578   7.622   7.222   7.378
   19DA     H4'  579   7.566   7.136   7.338
   19DA     O4'  580   7.744   7.216   7.312
   19DA     C1'  581   7.848   7.214   7.415
   19DA     H1'  582   7.883   7.110   7.448
   19DA      N9  583   7.957   7.299   7.372
   19DA      C8  584   7.962   7.434   7.367
   19DA      H8  585   7.876   7.501   7.390
   19DA      N7  586   8.073   7.475   7.330
   19DA      C5  587   8.142   7.364   7.286
   19DA      C6  588   8.269   7.336   7.229
   19DA      N6  589   8.357   7.434   7.214
   19DA     H61  590   8.431   7.414   7.147
   19DA     H62  591   8.328   7.530   7.234
   19DA      N1  592   8.313   7.216   7.200
   19DA      C2  593   8.233   7.111   7.232
   19DA      H2  594   8.263   7.013   7.201
   19DA      N3  595   8.111   7.113   7.299
   19DA      C4  596   8.076   7.245   7.318
   19DA     C3'  597   7.643   7.211   7.525
   19DA     H3'  598   7.584   7.273   7.590
   19DA     C2'  599   7.786   7.264   7.543
   19DA    H2'1  600   7.774   7.371   7.527
   19DA    H2'2  601   7.831   7.232   7.627
   19DA     O3'  602   7.620   7.083   7.573
   20DT       P  603   7.660   7.017   7.711
   20DT     O1P  604   7.579   6.891   7.728
   20DT     O2P  605   7.653   7.126   7.808
   20DT     O5'  606   7.814   6.978   7.689
   20DT     C5'  607   7.845   6.861   7.608
   20DT    H5'1  608   7.815   6.876   7.502
   20DT    H5'2  609   7.784   6.775   7.641
   20DT     C4'  610   7.998   6.827   7.610
   20DT     H4'  611   8.006   6.737   7.558
   20DT     O4'  612   8.081   6.924   7.553
   20DT     C1'  613   8.190   6.951   7.639
   20DT     H1'  614   8.270   6.885   7.618
   20DT      N1  615   8.243   7.092   7.628
   20DT      C6  616   8.169   7.199   7.665
   20DT      H6  617   8.072   7.182   7.712
   20DT      C5  618   8.216   7.326   7.655
   20DT      C7  619   8.126   7.443   7.697
   20DT     H71  620   8.040   7.408   7.752
   20DT     H72  621   8.173   7.514   7.768
   20DT     H73  622   8.096   7.497   7.608
   20DT      C4  623   8.351   7.348   7.596
   20DT      O4  624   8.403   7.457   7.579
   20DT      N3  625   8.413   7.240   7.553
   20DT      H3  626   8.501   7.250   7.497
   20DT      C2  627   8.364   7.113   7.555
   20DT      O2  628   8.430   7.020   7.495
   20DT     C3'  629   8.038   6.804   7.748
   20DT     H3'  630   7.945   6.806   7.814
   20DT     C2'  631   8.129   6.921   7.778
   20DT    H2'1  632   8.068   6.999   7.828
   20DT    H2'2  633   8.215   6.896   7.842
   20DT     O3'  634   8.113   6.682   7.752
   21DT       P  635   8.184   6.643   7.883
   21DT     O1P  636   8.195   6.498   7.881
   21DT     O2P  637   8.118   6.703   7.996
   21DT     O5'  638   8.337   6.688   7.871
   21DT     C5'  639   8.419   6.666   7.753
   21DT    H5'1  640   8.379   6.707   7.660
   21DT    H5'2  641   8.438   6.560   7.754
   21DT     C4'  642   8.556   6.729   7.762
   21DT     H4'  643   8.615   6.694   7.676
   21DT     O4'  644   8.542   6.871   7.748
   21DT     C1'  645   8.643   6.927   7.834
   21DT     H1'  646   8.740   6.924   7.783
   21DT      N1  647   8.597   7.061   7.871
   21DT      C6  648   8.467   7.082   7.924
   21DT      H6  649   8.397   7.005   7.939
   21DT      C5  650   8.431   7.211   7.943
   21DT      C7  651   8.290   7.239   7.994
   21DT     H71  652   8.233   7.146   7.998
   21DT     H72  653   8.302   7.271   8.095
   21DT     H73  654   8.245   7.317   7.924
   21DT      C4  655   8.505   7.328   7.896
   21DT      O4  656   8.479   7.447   7.906
   21DT      N3  657   8.632   7.300   7.847
   21DT      H3  658   8.685   7.375   7.807
   21DT      C2  659   8.682   7.171   7.832
   21DT      O2  660   8.786   7.159   7.774
   21DT     C3'  661   8.634   6.698   7.891
   21DT     H3'  662   8.585   6.621   7.955
   21DT     C2'  663   8.651   6.837   7.958
   21DT    H2'1  664   8.568   6.857   8.019
   21DT    H2'2  665   8.745   6.848   8.013
   21DT     O3'  666   8.756   6.651   7.839
   22DG       P  667   8.859   6.567   7.925
   22DG     O1P  668   8.925   6.487   7.823
   22DG     O2P  669   8.788   6.490   8.030
   22DG     O5'  670   8.953   6.675   7.987
   22DG     C5'  671   9.051   6.744   7.907
   22DG    H5'1  672   9.004   6.771   7.813
   22DG    H5'2  673   9.144   6.686   7.895
   22DG     C4'  674   9.105   6.871   7.977
   22DG     H4'  675   9.199   6.910   7.937
   22DG     O4'  676   9.011   6.974   7.966
   22DG     C1'  677   9.013   7.053   8.081
   22DG     H1'  678   9.107   7.118   8.072
   22DG      N9  679   8.897   7.147   8.107
   22DG      C8  680   8.779   7.124   8.175
   22DG      H8  681   8.752   7.027   8.214
   22DG      N7  682   8.710   7.237   8.185
   22DG      C5  683   8.790   7.332   8.124
   22DG      C6  684   8.769   7.472   8.114
   22DG      O6  685   8.673   7.535   8.161
   22DG      N1  686   8.863   7.538   8.036
   22DG      H1  687   8.854   7.643   8.024
   22DG      C2  688   8.975   7.478   7.997
   22DG      N2  689   9.063   7.555   7.946
   22DG     H21  690   9.043   7.656   7.938
   22DG     H22  691   9.151   7.511   7.907
   22DG      N3  692   9.004   7.350   8.018
   22DG      C4  693   8.904   7.280   8.071
   22DG     C3'  694   9.125   6.852   8.134
   22DG     H3'  695   9.108   6.749   8.177
   22DG     C2'  696   9.030   6.953   8.194
   22DG    H2'1  697   8.938   6.910   8.233
   22DG    H2'2  698   9.080   7.006   8.271
   22DG     O3'  699   9.258   6.902   8.165
   23DT       P  700   9.381   6.807   8.187
   23DT     O1P  701   9.371   6.694   8.087
   23DT     O2P  702   9.395   6.784   8.333
   23DT     O5'  703   9.504   6.899   8.140
   23DT     C5'  704   9.490   6.964   8.011
   23DT    H5'1  705   9.393   6.950   7.959
   23DT    H5'2  706   9.565   6.921   7.944
   23DT     C4'  707   9.504   7.115   8.016
   23DT     H4'  708   9.498   7.152   7.918
   23DT     O4'  709   9.398   7.180   8.074
   23DT     C1'  710   9.438   7.296   8.149
   23DT     H1'  711   9.479   7.364   8.082
   23DT      N1  712   9.325   7.339   8.230
   23DT      C6  713   9.251   7.251   8.306
   23DT      H6  714   9.291   7.153   8.325
   23DT      C5  715   9.132   7.295   8.363
   23DT      C7  716   9.049   7.197   8.446
   23DT     H71  717   9.028   7.257   8.540
   23DT     H72  718   8.961   7.166   8.396
   23DT     H73  719   9.116   7.107   8.471
   23DT      C4  720   9.082   7.430   8.344
   23DT      O4  721   8.963   7.457   8.360
   23DT      N3  722   9.165   7.512   8.282
   23DT      H3  723   9.147   7.609   8.280
   23DT      C2  724   9.282   7.478   8.221
   23DT      O2  725   9.343   7.576   8.172
   23DT     C3'  726   9.632   7.167   8.098
   23DT     H3'  727   9.695   7.085   8.135
   23DT     C2'  728   9.558   7.230   8.215
   23DT    H2'1  729   9.526   7.157   8.283
   23DT    H2'2  730   9.605   7.317   8.267
   23DT     O3'  731   9.709   7.252   8.020
   24DA       P  732   9.848   7.310   8.075
   24DA     O1P  733   9.904   7.396   7.964
   24DA     O2P  734   9.923   7.189   8.126
   24DA     O5'  735   9.832   7.399   8.206
   24DA     C5'  736   9.829   7.544   8.203
   24DA    H5'1  737   9.769   7.583   8.120
   24DA    H5'2  738   9.932   7.574   8.189
   24DA     C4'  739   9.778   7.617   8.327
   24DA     H4'  740   9.791   7.727   8.313
   24DA     O4'  741   9.637   7.589   8.342
   24DA     C1'  742   9.626   7.584   8.484
   24DA     H1'  743   9.631   7.693   8.516
   24DA      N9  744   9.491   7.524   8.514
   24DA      C8  745   9.472   7.386   8.551
   24DA      H8  746   9.553   7.307   8.545
   24DA      N7  747   9.355   7.366   8.600
   24DA      C5  748   9.292   7.492   8.599
   24DA      C6  749   9.165   7.537   8.645
   24DA      N6  750   9.072   7.467   8.705
   24DA     H61  751   8.989   7.513   8.737
   24DA     H62  752   9.085   7.373   8.731
   24DA      N1  753   9.125   7.659   8.618
   24DA      C2  754   9.213   7.741   8.553
   24DA      H2  755   9.182   7.845   8.543
   24DA      N3  756   9.340   7.712   8.521
   24DA      C4  757   9.371   7.591   8.547
   24DA     C3'  758   9.856   7.576   8.454
   24DA     H3'  759   9.937   7.507   8.432
   24DA     C2'  760   9.746   7.506   8.538
   24DA    H2'1  761   9.736   7.397   8.520
   24DA    H2'2  762   9.754   7.531   8.645
   24DA     O3'  763   9.907   7.680   8.531
   25DC       P  764  10.030   7.764   8.488
   25DC     O1P  765  10.055   7.738   8.346
   25DC     O2P  766  10.142   7.746   8.591
   25DC     O5'  767   9.969   7.910   8.513
   25DC     C5'  768   9.894   7.980   8.411
   25DC    H5'1  769   9.850   7.911   8.342
   25DC    H5'2  770   9.957   8.044   8.352
   25DC     C4'  771   9.790   8.065   8.481
   25DC     H4'  772   9.750   8.126   8.401
   25DC     O4'  773   9.680   7.991   8.531
   25DC     C1'  774   9.653   8.047   8.656
   25DC     H1'  775   9.589   8.134   8.645
   25DC      N1  776   9.586   7.932   8.732
   25DC      C6  777   9.660   7.809   8.748
   25DC      H6  778   9.758   7.793   8.716
   25DC      C5  779   9.589   7.705   8.809
   25DC      H5  780   9.641   7.611   8.824
   25DC      C4  781   9.459   7.742   8.860
   25DC      N4  782   9.389   7.643   8.917
   25DC     H41  783   9.289   7.663   8.930
   25DC     H42  784   9.421   7.540   8.903
   25DC      N3  785   9.393   7.854   8.831
   25DC      C2  786   9.456   7.956   8.771
   25DC      O2  787   9.393   8.065   8.770
   25DC     C3'  788   9.851   8.150   8.591
   25DC     H3'  789   9.959   8.145   8.592
   25DC     C2'  790   9.786   8.088   8.714
   25DC    H2'1  791   9.844   8.003   8.753
   25DC    H2'2  792   9.767   8.148   8.801
   25DC     O3'  793   9.808   8.280   8.574
   26DG       P  794   9.856   8.406   8.658
   26DG     O1P  795   9.866   8.522   8.568
   26DG     O2P  796   9.973   8.363   8.741
   26DG     O5'  797   9.734   8.440   8.760
   26DG     C5'  798   9.613   8.492   8.715
   26DG    H5'1  799   9.561   8.412   8.670
   26DG    H5'2  800   9.632   8.566   8.636
   26DG     C4'  801   9.522   8.567   8.813
   26DG     H4'  802   9.453   8.633   8.762
   26DG     O4'  803   9.448   8.481   8.892
   26DG     C1'  804   9.504   8.461   9.022
   26DG     H1'  805   9.436   8.498   9.101
   26DG      N9  806   9.539   8.324   9.052
   26DG      C8  807   9.651   8.252   9.023
   26DG      H8  808   9.732   8.294   8.960
   26DG      N7  809   9.653   8.129   9.050
   26DG      C5  810   9.533   8.115   9.117
   26DG      C6  811   9.463   8.001   9.168
   26DG      O6  812   9.497   7.884   9.185
   26DG      N1  813   9.339   8.031   9.218
   26DG      H1  814   9.283   7.952   9.241
   26DG      C2  815   9.277   8.154   9.205
   26DG      N2  816   9.150   8.162   9.255
   26DG     H21  817   9.102   8.082   9.293
   26DG     H22  818   9.105   8.254   9.269
   26DG      N3  819   9.334   8.265   9.155
   26DG      C4  820   9.462   8.233   9.120
   26DG     C3'  821   9.606   8.654   8.909
   26DG     H3'  822   9.702   8.677   8.871
   26DG     C2'  823   9.624   8.557   9.025
   26DG    H2'1  824   9.711   8.503   9.014
   26DG    H2'2  825   9.633   8.616   9.119
   26DG     O3'  826   9.543   8.782   8.919
   27DC       P  827   9.553   8.874   9.041
   27DC     O1P  828   9.483   8.999   9.011
   27DC     O2P  829   9.691   8.887   9.084
   27DC     O5'  830   9.459   8.795   9.146
   27DC     C5'  831   9.316   8.805   9.139
   27DC    H5'1  832   9.273   8.769   9.047
   27DC    H5'2  833   9.289   8.908   9.161
   27DC     C4'  834   9.258   8.723   9.253
   27DC     H4'  835   9.148   8.721   9.254
   27DC     O4'  836   9.308   8.589   9.249
   27DC     C1'  837   9.320   8.540   9.387
   27DC     H1'  838   9.228   8.487   9.424
   27DC      N1  839   9.435   8.448   9.406
   27DC      C6  840   9.561   8.477   9.364
   27DC      H6  841   9.591   8.572   9.322
   27DC      C5  842   9.655   8.381   9.373
   27DC      H5  843   9.751   8.389   9.325
   27DC      C4  844   9.617   8.255   9.419
   27DC      N4  845   9.707   8.155   9.419
   27DC     H41  846   9.683   8.069   9.462
   27DC     H42  847   9.805   8.174   9.394
   27DC      N3  848   9.506   8.226   9.480
   27DC      C2  849   9.408   8.326   9.476
   27DC      O2  850   9.297   8.294   9.525
   27DC     C3'  851   9.292   8.780   9.390
   27DC     H3'  852   9.380   8.844   9.388
   27DC     C2'  853   9.334   8.663   9.482
   27DC    H2'1  854   9.438   8.676   9.509
   27DC    H2'2  855   9.263   8.641   9.561
   27DC     O3'  856   9.178   8.848   9.446
   28DA       P  857   9.181   8.908   9.596
   28DA     O1P  858   9.066   9.001   9.606
   28DA     O2P  859   9.313   8.970   9.621
   28DA     O5'  860   9.155   8.791   9.702
   28DA     C5'  861   9.034   8.716   9.694
   28DA    H5'1  862   9.032   8.674   9.590
   28DA    H5'2  863   8.950   8.781   9.706
   28DA     C4'  864   9.022   8.619   9.809
   28DA     H4'  865   8.913   8.589   9.817
   28DA     O4'  866   9.103   8.501   9.798
   28DA     C1'  867   9.197   8.495   9.901
   28DA     H1'  868   9.162   8.417   9.973
   28DA      N9  869   9.324   8.446   9.859
   28DA      C8  870   9.429   8.519   9.802
   28DA      H8  871   9.437   8.627   9.792
   28DA      N7  872   9.532   8.445   9.771
   28DA      C5  873   9.491   8.314   9.809
   28DA      C6  874   9.555   8.187   9.808
   28DA      N6  875   9.677   8.176   9.771
   28DA     H61  876   9.713   8.084   9.769
   28DA     H62  877   9.716   8.260   9.725
   28DA      N1  878   9.492   8.080   9.849
   28DA      C2  879   9.375   8.094   9.912
   28DA      H2  880   9.333   8.009   9.966
   28DA      N3  881   9.302   8.203   9.922
   28DA      C4  882   9.364   8.313   9.868
   28DA     C3'  883   9.063   8.686   9.938
   28DA     H3'  884   9.060   8.795   9.930
   28DA     C2'  885   9.199   8.631   9.965
   28DA    H2'1  886   9.272   8.694   9.914
   28DA    H2'2  887   9.209   8.620  10.072
   28DA     O3'  888   8.960   8.652  10.032
   29DT       P  889   8.975   8.689  10.191
   29DT     O1P  890   8.844   8.703  10.251
   29DT     O2P  891   9.064   8.805  10.208
   29DT     O5'  892   9.034   8.561  10.254
   29DT     C5'  893   8.957   8.440  10.256
   29DT    H5'1  894   8.915   8.427  10.154
   29DT    H5'2  895   8.870   8.450  10.314
   29DT     C4'  896   9.029   8.313  10.301
   29DT     H4'  897   8.951   8.239  10.292
   29DT     O4'  898   9.135   8.277  10.214
   29DT     C1'  899   9.247   8.233  10.287
   29DT     H1'  900   9.236   8.128  10.322
   29DT      N1  901   9.379   8.264  10.217
   29DT      C6  902   9.411   8.395  10.189
   29DT      H6  903   9.344   8.477  10.204
   29DT      C5  904   9.536   8.426  10.143
   29DT      C7  905   9.568   8.563  10.111
   29DT     H71  906   9.481   8.621  10.096
   29DT     H72  907   9.631   8.601  10.191
   29DT     H73  908   9.626   8.560  10.018
   29DT      C4  909   9.635   8.316  10.127
   29DT      O4  910   9.745   8.335  10.085
   29DT      N3  911   9.589   8.191  10.142
   29DT      H3  912   9.661   8.122  10.144
   29DT      C2  913   9.473   8.162  10.206
   29DT      O2  914   9.452   8.047  10.239
   29DT     C3'  915   9.084   8.324  10.441
   29DT     H3'  916   9.063   8.425  10.474
   29DT     C2'  917   9.235   8.315  10.422
   29DT    H2'1  918   9.270   8.415  10.415
   29DT    H2'2  919   9.273   8.267  10.510
   29DT     O3'  920   9.027   8.231  10.526
   30DA       P  921   9.068   8.207  10.680
   30DA     O1P  922   8.947   8.147  10.739
   30DA     O2P  923   9.119   8.334  10.726
   30DA     O5'  924   9.184   8.096  10.671
   30DA     C5'  925   9.152   7.975  10.613
   30DA    H5'1  926   9.132   7.984  10.508
   30DA    H5'2  927   9.062   7.929  10.666
   30DA     C4'  928   9.262   7.871  10.628
   30DA     H4'  929   9.223   7.776  10.594
   30DA     O4'  930   9.375   7.901  10.547
   30DA     C1'  931   9.489   7.916  10.626
   30DA     H1'  932   9.547   7.821  10.626
   30DA      N9  933   9.573   8.021  10.573
   30DA      C8  934   9.550   8.154  10.560
   30DA      H8  935   9.453   8.194  10.591
   30DA      N7  936   9.637   8.224  10.493
   30DA      C5  937   9.736   8.126  10.473
   30DA      C6  938   9.869   8.136  10.422
   30DA      N6  939   9.924   8.256  10.385
   30DA     H61  940  10.007   8.253  10.339
   30DA     H62  941   9.880   8.342  10.397
   30DA      N1  942   9.950   8.025  10.415
   30DA      C2  943   9.895   7.911  10.456
   30DA      H2  944   9.958   7.827  10.436
   30DA      N3  945   9.769   7.889  10.503
   30DA      C4  946   9.697   8.003  10.511
   30DA     C3'  947   9.316   7.845  10.769
   30DA     H3'  948   9.242   7.873  10.849
   30DA     C2'  949   9.443   7.935  10.773
   30DA    H2'1  950   9.415   8.043  10.784
   30DA    H2'2  951   9.518   7.900  10.852
   30DA     O3'  952   9.350   7.703  10.785
   31DT       P  953   9.437   7.643  10.905
   31DT     O1P  954   9.410   7.501  10.919
   31DT     O2P  955   9.436   7.737  11.025
   31DT     O5'  956   9.586   7.656  10.852
   31DT     C5'  957   9.661   7.569  10.757
   31DT    H5'1  958   9.648   7.598  10.657
   31DT    H5'2  959   9.608   7.471  10.764
   31DT     C4'  960   9.809   7.555  10.791
   31DT     H4'  961   9.852   7.468  10.738
   31DT     O4'  962   9.868   7.677  10.743
   31DT     C1'  963   9.941   7.732  10.849
   31DT     H1'  964  10.047   7.686  10.850
   31DT      N1  965   9.948   7.882  10.832
   31DT      C6  966   9.844   7.971  10.863
   31DT      H6  967   9.758   7.927  10.915
   31DT      C5  968   9.849   8.103  10.833
   31DT      C7  969   9.728   8.183  10.865
   31DT     H71  970   9.646   8.109  10.881
   31DT     H72  971   9.745   8.227  10.962
   31DT     H73  972   9.701   8.253  10.780
   31DT      C4  973   9.969   8.153  10.774
   31DT      O4  974   9.996   8.269  10.742
   31DT      N3  975  10.073   8.066  10.752
   31DT      H3  976  10.157   8.100  10.712
   31DT      C2  977  10.068   7.933  10.772
   31DT      O2  978  10.165   7.862  10.746
   31DT     C3'  979   9.838   7.533  10.942
   31DT     H3'  980   9.749   7.493  10.999
   31DT     C2'  981   9.879   7.674  10.978
   31DT    H2'1  982   9.780   7.716  10.991
   31DT    H2'2  983   9.918   7.705  11.073
   31DT     O3'  984   9.945   7.436  10.943
   32DG       P  985  10.026   7.415  11.079
   32DG     O1P  986  10.089   7.278  11.065
   32DG     O2P  987   9.942   7.435  11.199
   32DG     O5'  988  10.137   7.524  11.082
   32DG     C5'  989  10.256   7.517  11.003
   32DG    H5'1  990  10.234   7.540  10.900
   32DG    H5'2  991  10.310   7.421  11.015
   32DG     C4'  992  10.363   7.612  11.053
   32DG     H4'  993  10.461   7.587  11.012
   32DG     O4'  994  10.316   7.744  11.021
   32DG     C1'  995  10.364   7.833  11.119
   32DG     H1'  996  10.471   7.848  11.123
   32DG      N9  997  10.289   7.963  11.105
   32DG      C8  998  10.165   7.980  11.140
   32DG      H8  999  10.105   7.904  11.175
   32DG      N7 1000  10.116   8.099  11.112
   32DG      C5 1001  10.226   8.170  11.059
   32DG      C6 1002  10.239   8.299  11.009
   32DG      O6 1003  10.153   8.385  10.995
   32DG      N1 1004  10.362   8.329  10.954
   32DG      H1 1005  10.362   8.416  10.892
   32DG      C2 1006  10.463   8.239  10.952
   32DG      N2 1007  10.575   8.279  10.901
   32DG     H21 1008  10.586   8.380  10.864
   32DG     H22 1009  10.648   8.209  10.887
   32DG      N3 1010  10.458   8.115  11.006
   32DG      C4 1011  10.336   8.084  11.055
   32DG     C3' 1012  10.369   7.617  11.207
   32DG     H3' 1013  10.292   7.556  11.249
   32DG     C2' 1014  10.332   7.762  11.245
   32DG    H2'1 1015  10.225   7.761  11.273
   32DG    H2'2 1016  10.391   7.801  11.325
   32DG     O3' 1017  10.493   7.576  11.245
   33DC3      P 1018  10.546   7.568  11.397
   33DC3    O1P 1019  10.626   7.448  11.406
   33DC3    O2P 1020  10.428   7.561  11.481
   33DC3    O5' 1021  10.627   7.702  11.429
   33DC3    C5' 1022  10.745   7.745  11.359
   33DC3   H5'1 1023  10.726   7.717  11.255
   33DC3   H5'2 1024  10.828   7.706  11.411
   33DC3    C4' 1025  10.770   7.899  11.364
   33DC3    H4' 1026  10.860   7.916  11.307
   33DC3    O4' 1027  10.664   7.975  11.308
   33DC3    C1' 1028  10.664   8.104  11.362
   33DC3    H1' 1029  10.744   8.150  11.305
   33DC3     N1 1030  10.538   8.179  11.350
   33DC3     C6 1031  10.427   8.135  11.419
   33DC3     H6 1032  10.435   8.040  11.472
   33DC3     C5 1033  10.307   8.203  11.414
   33DC3     H5 1034  10.220   8.179  11.472
   33DC3     C4 1035  10.315   8.330  11.338
   33DC3     N4 1036  10.210   8.403  11.316
   33DC3    H41 1037  10.249   8.488  11.283
   33DC3    H42 1038  10.129   8.400  11.372
   33DC3     N3 1039  10.426   8.377  11.282
   33DC3     C2 1040  10.536   8.305  11.288
   33DC3     O2 1041  10.630   8.365  11.229
   33DC3    C3' 1042  10.784   7.955  11.507
   33DC3    H3' 1043  10.742   7.884  11.575
   33DC3    C2' 1044  10.714   8.089  11.507
   33DC3   H2'1 1045  10.635   8.077  11.582
   33DC3   H2'2 1046  10.784   8.172  11.526
   33DC3    O3' 1047  10.908   7.974  11.556
   33DC3    H3T 1048  10.916   7.959  11.650
   34DG5    H5T 1049  10.573   9.372  11.130
   34DG5    O5' 1050  10.631   9.317  11.070
   34DG5    C5' 1051  10.563   9.293  10.947
   34DG5   H5'1 1052  10.541   9.392  10.906
   34DG5   H5'2 1053  10.478   9.236  10.967
   34DG5    C4' 1054  10.667   9.224  10.851
   34DG5    H4' 1055  10.768   9.263  10.864
   34DG5    O4' 1056  10.666   9.091  10.887
   34DG5    C1' 1057  10.575   9.009  10.818
   34DG5    H1' 1058  10.629   8.928  10.779
   34DG5     N9 1059  10.475   8.955  10.916
   34DG5     C8 1060  10.353   8.998  10.958
   34DG5     H8 1061  10.319   9.093  10.917
   34DG5     N7 1062  10.285   8.916  11.033
   34DG5     C5 1063  10.374   8.805  11.043
   34DG5     C6 1064  10.365   8.683  11.121
   34DG5     O6 1065  10.275   8.631  11.189
   34DG5     N1 1066  10.477   8.601  11.107
   34DG5     H1 1067  10.476   8.520  11.162
   34DG5     C2 1068  10.579   8.636  11.027
   34DG5     N2 1069  10.683   8.557  11.029
   34DG5    H21 1070  10.678   8.472  11.075
   34DG5    H22 1071  10.759   8.588  10.967
   34DG5     N3 1072  10.593   8.748  10.954
   34DG5     C4 1073  10.485   8.830  10.969
   34DG5    C3' 1074  10.624   9.224  10.706
   34DG5    H3' 1075  10.574   9.322  10.679
   34DG5    C2' 1076  10.525   9.105  10.711
   34DG5   H2'1 1077  10.424   9.143  10.731
   34DG5   H2'2 1078  10.513   9.050  10.621
   34DG5    O3' 1079  10.741   9.200  10.624
   35DC       P 1080  10.726   9.173  10.471
   35DC     O1P 1081  10.842   9.209  10.390
   35DC     O2P 1082  10.592   9.225  10.428
   35DC     O5' 1083  10.716   9.016  10.467
   35DC     C5' 1084  10.833   8.938  10.502
   35DC    H5'1 1085  10.869   8.961  10.603
   35DC    H5'2 1086  10.911   8.955  10.431
   35DC     C4' 1087  10.808   8.788  10.497
   35DC     H4' 1088  10.902   8.739  10.505
   35DC     O4' 1089  10.718   8.747  10.598
   35DC     C1' 1090  10.612   8.680  10.533
   35DC     H1' 1091  10.644   8.578  10.510
   35DC      N1 1092  10.484   8.675  10.610
   35DC      C6 1093  10.382   8.768  10.589
   35DC      H6 1094  10.387   8.836  10.505
   35DC      C5 1095  10.276   8.768  10.667
   35DC      H5 1096  10.190   8.839  10.655
   35DC      C4 1097  10.264   8.666  10.767
   35DC      N4 1098  10.154   8.645  10.835
   35DC     H41 1099  10.149   8.567  10.900
   35DC     H42 1100  10.071   8.708  10.823
   35DC      N3 1101  10.359   8.573  10.786
   35DC      C2 1102  10.468   8.572  10.705
   35DC      O2 1103  10.551   8.481  10.714
   35DC     C3' 1104  10.747   8.752  10.352
   35DC     H3' 1105  10.761   8.838  10.289
   35DC     C2' 1106  10.598   8.741  10.388
   35DC    H2'1 1107  10.543   8.841  10.384
   35DC    H2'2 1108  10.550   8.674  10.321
   35DC     O3' 1109  10.804   8.626  10.309
   36DA       P 1110  10.945   8.625  10.233
   36DA     O1P 1111  11.043   8.704  10.315
   36DA     O2P 1112  10.916   8.662  10.093
   36DA     O5' 1113  10.990   8.464  10.228
   36DA     C5' 1114  11.054   8.399  10.333
   36DA    H5'1 1115  11.040   8.464  10.418
   36DA    H5'2 1116  11.164   8.400  10.300
   36DA     C4' 1117  11.009   8.262  10.370
   36DA     H4' 1118  11.085   8.206  10.419
   36DA     O4' 1119  10.896   8.275  10.453
   36DA     C1' 1120  10.791   8.190  10.400
   36DA     H1' 1121  10.794   8.094  10.443
   36DA      N9 1122  10.661   8.249  10.429
   36DA      C8 1123  10.608   8.365  10.373
   36DA      H8 1124  10.663   8.423  10.304
   36DA      N7 1125  10.485   8.391  10.410
   36DA      C5 1126  10.452   8.280  10.491
   36DA      C6 1127  10.335   8.241  10.557
   36DA      N6 1128  10.212   8.301  10.542
   36DA     H61 1129  10.134   8.271  10.596
   36DA     H62 1130  10.208   8.379  10.478
   36DA      N1 1131  10.329   8.125  10.628
   36DA      C2 1132  10.438   8.047  10.629
   36DA      H2 1133  10.436   7.959  10.689
   36DA      N3 1134  10.551   8.072  10.568
   36DA      C4 1135  10.557   8.196  10.506
   36DA     C3' 1136  10.978   8.175  10.256
   36DA     H3' 1137  11.021   8.222  10.168
   36DA     C2' 1138  10.821   8.179  10.249
   36DA    H2'1 1139  10.792   8.268  10.207
   36DA    H2'2 1140  10.771   8.089  10.211
   36DA     O3' 1141  11.029   8.044  10.273
   37DT       P 1142  11.043   7.936  10.151
   37DT     O1P 1143  11.153   7.837  10.172
   37DT     O2P 1144  11.033   8.017  10.027
   37DT     O5' 1145  10.904   7.851  10.163
   37DT     C5' 1146  10.878   7.795  10.282
   37DT    H5'1 1147  10.898   7.865  10.358
   37DT    H5'2 1148  10.938   7.700  10.297
   37DT     C4' 1149  10.732   7.753  10.293
   37DT     H4' 1150  10.711   7.680  10.365
   37DT     O4' 1151  10.655   7.867  10.320
   37DT     C1' 1152  10.531   7.844  10.260
   37DT     H1' 1153  10.476   7.777  10.332
   37DT      N1 1154  10.435   7.960  10.249
   37DT      C6 1155  10.469   8.063  10.165
   37DT      H6 1156  10.567   8.068  10.124
   37DT      C5 1157  10.384   8.170  10.144
   37DT      C7 1158  10.446   8.286  10.061
   37DT     H71 1159  10.550   8.271  10.032
   37DT     H72 1160  10.392   8.290   9.968
   37DT     H73 1161  10.434   8.387  10.112
   37DT      C4 1162  10.254   8.173  10.218
   37DT      O4 1163  10.180   8.267  10.235
   37DT      N3 1164  10.214   8.050  10.276
   37DT      H3 1165  10.121   8.044  10.319
   37DT      C2 1166  10.303   7.944  10.292
   37DT      O2 1167  10.272   7.837  10.345
   37DT     C3' 1168  10.685   7.689  10.159
   37DT     H3' 1169  10.750   7.710  10.072
   37DT     C2' 1170  10.550   7.768  10.130
   37DT    H2'1 1171  10.555   7.830  10.043
   37DT    H2'2 1172  10.461   7.708  10.124
   37DT     O3' 1173  10.686   7.542  10.170
   38DA       P 1174  10.585   7.444  10.100
   38DA     O1P 1175  10.634   7.309  10.142
   38DA     O2P 1176  10.582   7.474   9.956
   38DA     O5' 1177  10.443   7.473  10.161
   38DA     C5' 1178  10.400   7.428  10.290
   38DA    H5'1 1179  10.420   7.505  10.372
   38DA    H5'2 1180  10.440   7.333  10.305
   38DA     C4' 1181  10.246   7.403  10.278
   38DA     H4' 1182  10.214   7.355  10.375
   38DA     O4' 1183  10.176   7.535  10.269
   38DA     C1' 1184  10.081   7.548  10.162
   38DA     H1' 1185   9.986   7.534  10.205
   38DA      N9 1186  10.083   7.690  10.110
   38DA      C8 1187  10.181   7.761  10.045
   38DA      H8 1188  10.275   7.715  10.032
   38DA      N7 1189  10.145   7.882  10.001
   38DA      C5 1190  10.017   7.895  10.056
   38DA      C6 1191   9.924   8.000  10.063
   38DA      N6 1192   9.937   8.121  10.015
   38DA     H61 1193   9.888   8.205  10.051
   38DA     H62 1194  10.014   8.138   9.958
   38DA      N1 1195   9.801   7.982  10.114
   38DA      C2 1196   9.782   7.862  10.170
   38DA      H2 1197   9.688   7.850  10.211
   38DA      N3 1198   9.862   7.760  10.186
   38DA      C4 1199   9.979   7.780  10.114
   38DA     C3' 1200  10.187   7.329  10.160
   38DA     H3' 1201  10.263   7.268  10.113
   38DA     C2' 1202  10.136   7.443  10.068
   38DA    H2'1 1203  10.217   7.483  10.013
   38DA    H2'2 1204  10.059   7.401  10.000
   38DA     O3' 1205  10.077   7.248  10.219
   39DT       P 1206   9.988   7.153  10.127
   39DT     O1P 1207   9.943   7.040  10.213
   39DT     O2P 1208  10.054   7.115   9.998
   39DT     O5' 1209   9.872   7.256  10.107
   39DT     C5' 1210   9.768   7.269  10.205
   39DT    H5'1 1211   9.822   7.331  10.284
   39DT    H5'2 1212   9.741   7.178  10.246
   39DT     C4' 1213   9.634   7.335  10.162
   39DT     H4' 1214   9.558   7.352  10.242
   39DT     O4' 1215   9.658   7.461  10.110
   39DT     C1' 1216   9.560   7.489  10.010
   39DT     H1' 1217   9.470   7.521  10.061
   39DT      N1 1218   9.612   7.589   9.929
   39DT      C6 1219   9.736   7.573   9.868
   39DT      H6 1220   9.798   7.484   9.882
   39DT      C5 1221   9.793   7.683   9.808
   39DT      C7 1222   9.931   7.668   9.741
   39DT     H71 1223   9.976   7.568   9.751
   39DT     H72 1224   9.944   7.691   9.637
   39DT     H73 1225   9.996   7.744   9.797
   39DT      C4 1226   9.727   7.810   9.791
   39DT      O4 1227   9.773   7.906   9.734
   39DT      N3 1228   9.604   7.818   9.855
   39DT      H3 1229   9.557   7.910   9.851
   39DT      C2 1230   9.543   7.715   9.926
   39DT      O2 1231   9.437   7.730   9.981
   39DT     C3' 1232   9.556   7.257  10.059
   39DT     H3' 1233   9.608   7.169  10.023
   39DT     C2' 1234   9.549   7.354   9.940
   39DT    H2'1 1235   9.636   7.334   9.872
   39DT    H2'2 1236   9.455   7.347   9.883
   39DT     O3' 1237   9.427   7.216  10.104
   40DG       P 1238   9.340   7.114  10.011
   40DG     O1P 1239   9.243   7.058  10.099
   40DG     O2P 1240   9.432   7.025   9.940
   40DG     O5' 1241   9.256   7.204   9.906
   40DG     C5' 1242   9.156   7.292   9.951
   40DG    H5'1 1243   9.199   7.351  10.034
   40DG    H5'2 1244   9.067   7.238   9.975
   40DG     C4' 1245   9.109   7.387   9.843
   40DG     H4' 1246   9.012   7.433   9.880
   40DG     O4' 1247   9.215   7.489   9.833
   40DG     C1' 1248   9.239   7.502   9.696
   40DG     H1' 1249   9.154   7.562   9.652
   40DG      N9 1250   9.359   7.573   9.654
   40DG      C8 1251   9.477   7.512   9.620
   40DG      H8 1252   9.491   7.402   9.628
   40DG      N7 1253   9.564   7.585   9.556
   40DG      C5 1254   9.497   7.708   9.558
   40DG      C6 1255   9.541   7.834   9.505
   40DG      O6 1256   9.648   7.851   9.454
   40DG      N1 1257   9.446   7.939   9.521
   40DG      H1 1258   9.467   8.032   9.490
   40DG      C2 1259   9.319   7.915   9.573
   40DG      N2 1260   9.233   8.019   9.577
   40DG     H21 1261   9.275   8.109   9.582
   40DG     H22 1262   9.143   8.018   9.615
   40DG      N3 1263   9.274   7.802   9.624
   40DG      C4 1264   9.370   7.700   9.610
   40DG     C3' 1265   9.095   7.318   9.706
   40DG     H3' 1266   9.100   7.206   9.708
   40DG     C2' 1267   9.221   7.369   9.625
   40DG    H2'1 1268   9.307   7.312   9.644
   40DG    H2'2 1269   9.204   7.378   9.519
   40DG     O3' 1270   8.976   7.365   9.647
   41DC       P 1271   8.834   7.299   9.673
   41DC     O1P 1272   8.823   7.268   9.814
   41DC     O2P 1273   8.800   7.196   9.572
   41DC     O5' 1274   8.757   7.430   9.638
   41DC     C5' 1275   8.740   7.540   9.726
   41DC    H5'1 1276   8.833   7.556   9.782
   41DC    H5'2 1277   8.663   7.523   9.798
   41DC     C4' 1278   8.719   7.682   9.661
   41DC     H4' 1279   8.682   7.746   9.735
   41DC     O4' 1280   8.841   7.734   9.616
   41DC     C1' 1281   8.833   7.767   9.476
   41DC     H1' 1282   8.808   7.876   9.463
   41DC      N1 1283   8.960   7.733   9.405
   41DC      C6 1284   9.000   7.604   9.385
   41DC      H6 1285   8.951   7.517   9.419
   41DC      C5 1286   9.122   7.580   9.329
   41DC      H5 1287   9.145   7.476   9.309
   41DC      C4 1288   9.204   7.691   9.287
   41DC      N4 1289   9.311   7.660   9.221
   41DC     H41 1290   9.359   7.745   9.182
   41DC     H42 1291   9.347   7.564   9.206
   41DC      N3 1292   9.167   7.817   9.301
   41DC      C2 1293   9.046   7.838   9.361
   41DC      O2 1294   9.017   7.957   9.374
   41DC     C3' 1295   8.621   7.686   9.540
   41DC     H3' 1296   8.557   7.602   9.534
   41DC     C2' 1297   8.717   7.692   9.422
   41DC    H2'1 1298   8.746   7.589   9.400
   41DC    H2'2 1299   8.668   7.739   9.337
   41DC     O3' 1300   8.553   7.812   9.544
   42DG       P 1301   8.415   7.828   9.468
   42DG     O1P 1302   8.328   7.903   9.553
   42DG     O2P 1303   8.367   7.701   9.409
   42DG     O5' 1304   8.456   7.912   9.339
   42DG     C5' 1305   8.494   8.045   9.367
   42DG    H5'1 1306   8.577   8.057   9.434
   42DG    H5'2 1307   8.411   8.095   9.414
   42DG     C4' 1308   8.544   8.120   9.245
   42DG     H4' 1309   8.538   8.224   9.273
   42DG     O4' 1310   8.672   8.071   9.213
   42DG     C1' 1311   8.674   8.035   9.076
   42DG     H1' 1312   8.707   8.119   9.017
   42DG      N9 1313   8.755   7.910   9.062
   42DG      C8 1314   8.722   7.780   9.068
   42DG      H8 1315   8.624   7.751   9.093
   42DG      N7 1316   8.818   7.691   9.048
   42DG      C5 1317   8.926   7.774   9.007
   42DG      C6 1318   9.062   7.749   8.973
   42DG      O6 1319   9.121   7.640   8.963
   42DG      N1 1320   9.131   7.861   8.939
   42DG      H1 1321   9.218   7.842   8.894
   42DG      C2 1322   9.083   7.990   8.946
   42DG      N2 1323   9.154   8.090   8.898
   42DG     H21 1324   9.249   8.078   8.858
   42DG     H22 1325   9.106   8.174   8.890
   42DG      N3 1326   8.959   8.017   8.983
   42DG      C4 1327   8.881   7.907   9.012
   42DG     C3' 1328   8.453   8.104   9.123
   42DG     H3' 1329   8.353   8.060   9.154
   42DG     C2' 1330   8.529   7.999   9.039
   42DG    H2'1 1331   8.496   7.908   9.073
   42DG    H2'2 1332   8.529   8.020   8.930
   42DG     O3' 1333   8.430   8.225   9.055
   43DT       P 1334   8.323   8.240   8.934
   43DT     O1P 1335   8.259   8.373   8.942
   43DT     O2P 1336   8.238   8.121   8.928
   43DT     O5' 1337   8.424   8.241   8.812
   43DT     C5' 1338   8.527   8.342   8.800
   43DT    H5'1 1339   8.586   8.342   8.887
   43DT    H5'2 1340   8.487   8.445   8.781
   43DT     C4' 1341   8.626   8.295   8.695
   43DT     H4' 1342   8.707   8.365   8.672
   43DT     O4' 1343   8.693   8.177   8.729
   43DT     C1' 1344   8.690   8.088   8.618
   43DT     H1' 1345   8.756   8.118   8.540
   43DT      N1 1346   8.715   7.947   8.657
   43DT      C6 1347   8.608   7.865   8.698
   43DT      H6 1348   8.506   7.907   8.707
   43DT      C5 1349   8.630   7.736   8.733
   43DT      C7 1350   8.512   7.653   8.789
   43DT     H71 1351   8.535   7.625   8.886
   43DT     H72 1352   8.409   7.701   8.797
   43DT     H73 1353   8.508   7.559   8.734
   43DT      C4 1354   8.756   7.674   8.714
   43DT      O4 1355   8.783   7.551   8.729
   43DT      N3 1356   8.860   7.749   8.669
   43DT      H3 1357   8.943   7.704   8.631
   43DT      C2 1358   8.846   7.887   8.647
   43DT      O2 1359   8.935   7.953   8.600
   43DT     C3' 1360   8.551   8.267   8.562
   43DT     H3' 1361   8.449   8.299   8.565
   43DT     C2' 1362   8.558   8.121   8.557
   43DT    H2'1 1363   8.470   8.075   8.601
   43DT    H2'2 1364   8.555   8.090   8.452
   43DT     O3' 1365   8.601   8.322   8.445
   44DA       P 1366   8.601   8.474   8.407
   44DA     O1P 1367   8.645   8.562   8.515
   44DA     O2P 1368   8.476   8.510   8.335
   44DA     O5' 1369   8.724   8.462   8.302
   44DA     C5' 1370   8.858   8.507   8.337
   44DA    H5'1 1371   8.853   8.608   8.363
   44DA    H5'2 1372   8.894   8.460   8.425
   44DA     C4' 1373   8.967   8.477   8.238
   44DA     H4' 1374   9.045   8.551   8.259
   44DA     O4' 1375   9.012   8.346   8.245
   44DA     C1' 1376   8.957   8.273   8.137
   44DA     H1' 1377   9.043   8.231   8.081
   44DA      N9 1378   8.886   8.153   8.178
   44DA      C8 1379   8.757   8.140   8.225
   44DA      H8 1380   8.691   8.218   8.230
   44DA      N7 1381   8.732   8.023   8.281
   44DA      C5 1382   8.854   7.957   8.258
   44DA      C6 1383   8.901   7.826   8.281
   44DA      N6 1384   8.836   7.723   8.336
   44DA     H61 1385   8.886   7.637   8.349
   44DA     H62 1386   8.734   7.741   8.367
   44DA      N1 1387   9.028   7.795   8.260
   44DA      C2 1388   9.104   7.883   8.203
   44DA      H2 1389   9.207   7.849   8.174
   44DA      N3 1390   9.075   8.009   8.179
   44DA      C4 1391   8.948   8.037   8.204
   44DA     C3' 1392   8.927   8.499   8.090
   44DA     H3' 1393   8.846   8.574   8.080
   44DA     C2' 1394   8.886   8.361   8.040
   44DA    H2'1 1395   8.779   8.351   8.051
   44DA    H2'2 1396   8.906   8.346   7.934
   44DA     O3' 1397   9.046   8.549   8.026
   45DC       P 1398   9.049   8.609   7.877
   45DC     O1P 1399   9.163   8.709   7.882
   45DC     O2P 1400   8.912   8.664   7.852
   45DC     O5' 1401   9.080   8.472   7.794
   45DC     C5' 1402   9.195   8.385   7.810
   45DC    H5'1 1403   9.217   8.369   7.913
   45DC    H5'2 1404   9.281   8.430   7.772
   45DC     C4' 1405   9.165   8.253   7.743
   45DC     H4' 1406   9.266   8.213   7.729
   45DC     O4' 1407   9.101   8.163   7.828
   45DC     C1' 1408   9.008   8.089   7.742
   45DC     H1' 1409   9.067   8.012   7.689
   45DC      N1 1410   8.909   8.017   7.823
   45DC      C6 1411   8.788   8.078   7.857
   45DC      H6 1412   8.753   8.177   7.822
   45DC      C5 1413   8.691   8.002   7.923
   45DC      H5 1414   8.596   8.044   7.937
   45DC      C4 1415   8.723   7.868   7.960
   45DC      N4 1416   8.633   7.802   8.031
   45DC     H41 1417   8.639   7.705   8.043
   45DC     H42 1418   8.555   7.858   8.057
   45DC      N3 1419   8.842   7.815   7.935
   45DC      C2 1420   8.935   7.888   7.868
   45DC      O2 1421   9.045   7.830   7.845
   45DC     C3' 1422   9.099   8.252   7.611
   45DC     H3' 1423   9.091   8.355   7.573
   45DC     C2' 1424   8.959   8.188   7.632
   45DC    H2'1 1425   8.899   8.262   7.670
   45DC    H2'2 1426   8.916   8.141   7.544
   45DC     O3' 1427   9.160   8.154   7.526
   46DA       P 1428   9.271   8.191   7.425
   46DA     O1P 1429   9.380   8.260   7.501
   46DA     O2P 1430   9.203   8.266   7.315
   46DA     O5' 1431   9.324   8.054   7.357
   46DA     C5' 1432   9.382   7.943   7.427
   46DA    H5'1 1433   9.492   7.955   7.397
   46DA    H5'2 1434   9.387   7.951   7.538
   46DA     C4' 1435   9.320   7.813   7.384
   46DA     H4' 1436   9.385   7.728   7.406
   46DA     O4' 1437   9.211   7.794   7.471
   46DA     C1' 1438   9.106   7.749   7.388
   46DA     H1' 1439   9.113   7.636   7.378
   46DA      N9 1440   8.978   7.770   7.469
   46DA      C8 1441   8.879   7.863   7.471
   46DA      H8 1442   8.889   7.959   7.420
   46DA      N7 1443   8.776   7.849   7.551
   46DA      C5 1444   8.798   7.714   7.592
   46DA      C6 1445   8.729   7.622   7.676
   46DA      N6 1446   8.615   7.646   7.736
   46DA     H61 1447   8.570   7.569   7.794
   46DA     H62 1448   8.564   7.730   7.721
   46DA      N1 1449   8.778   7.497   7.704
   46DA      C2 1450   8.898   7.469   7.651
   46DA      H2 1451   8.944   7.375   7.682
   46DA      N3 1452   8.978   7.548   7.579
   46DA      C4 1453   8.918   7.667   7.545
   46DA     C3' 1454   9.267   7.790   7.242
   46DA     H3' 1455   9.324   7.842   7.162
   46DA     C2' 1456   9.120   7.818   7.259
   46DA    H2'1 1457   9.107   7.928   7.266
   46DA    H2'2 1458   9.053   7.773   7.180
   46DA     O3' 1459   9.289   7.656   7.209
   47DA       P 1460   9.413   7.613   7.113
   47DA     O1P 1461   9.541   7.670   7.173
   47DA     O2P 1462   9.372   7.655   6.975
   47DA     O5' 1463   9.413   7.455   7.121
   47DA     C5' 1464   9.456   7.390   7.234
   47DA    H5'1 1465   9.460   7.464   7.313
   47DA    H5'2 1466   9.557   7.355   7.205
   47DA     C4' 1467   9.360   7.281   7.270
   47DA     H4' 1468   9.403   7.224   7.358
   47DA     O4' 1469   9.240   7.334   7.329
   47DA     C1' 1470   9.133   7.261   7.273
   47DA     H1' 1471   9.110   7.170   7.329
   47DA      N9 1472   9.015   7.345   7.266
   47DA      C8 1473   9.003   7.467   7.210
   47DA      H8 1474   9.087   7.510   7.153
   47DA      N7 1475   8.884   7.517   7.219
   47DA      C5 1476   8.816   7.429   7.308
   47DA      C6 1477   8.695   7.434   7.382
   47DA      N6 1478   8.598   7.518   7.361
   47DA     H61 1479   8.512   7.505   7.422
   47DA     H62 1480   8.614   7.607   7.313
   47DA      N1 1481   8.665   7.330   7.459
   47DA      C2 1482   8.755   7.233   7.477
   47DA      H2 1483   8.741   7.145   7.537
   47DA      N3 1484   8.877   7.227   7.423
   47DA      C4 1485   8.902   7.329   7.340
   47DA     C3' 1486   9.330   7.183   7.157
   47DA     H3' 1487   9.387   7.201   7.061
   47DA     C2' 1488   9.179   7.212   7.137
   47DA    H2'1 1489   9.164   7.296   7.063
   47DA    H2'2 1490   9.118   7.125   7.103
   47DA     O3' 1491   9.363   7.059   7.207
   48DT       P 1492   9.373   6.930   7.111
   48DT     O1P 1493   9.453   6.821   7.173
   48DT     O2P 1494   9.416   6.969   6.973
   48DT     O5' 1495   9.225   6.875   7.098
   48DT     C5' 1496   9.156   6.826   7.215
   48DT    H5'1 1497   9.158   6.886   7.304
   48DT    H5'2 1498   9.214   6.739   7.246
   48DT     C4' 1499   9.011   6.788   7.182
   48DT     H4' 1500   8.960   6.729   7.263
   48DT     O4' 1501   8.928   6.909   7.175
   48DT     C1' 1502   8.837   6.890   7.062
   48DT     H1' 1503   8.766   6.813   7.091
   48DT      N1 1504   8.769   7.023   7.037
   48DT      C6 1505   8.826   7.127   6.975
   48DT      H6 1506   8.922   7.118   6.923
   48DT      C5 1507   8.773   7.253   6.984
   48DT      C7 1508   8.842   7.353   6.899
   48DT     H71 1509   8.845   7.449   6.951
   48DT     H72 1510   8.943   7.319   6.880
   48DT     H73 1511   8.781   7.373   6.812
   48DT      C4 1512   8.643   7.283   7.043
   48DT      O4 1513   8.578   7.388   7.046
   48DT      N3 1514   8.588   7.167   7.101
   48DT      H3 1515   8.502   7.173   7.152
   48DT      C2 1516   8.646   7.037   7.102
   48DT      O2 1517   8.587   6.937   7.152
   48DT     C3' 1518   8.996   6.718   7.045
   48DT     H3' 1519   9.093   6.686   7.007
   48DT     C2' 1520   8.936   6.831   6.960
   48DT    H2'1 1521   9.007   6.902   6.932
   48DT    H2'2 1522   8.893   6.789   6.871
   48DT     O3' 1523   8.895   6.616   7.046
   49DG       P 1524   8.884   6.499   6.935
   49DG     O1P 1525   8.957   6.378   6.990
   49DG     O2P 1526   8.911   6.549   6.803
   49DG     O5' 1527   8.729   6.457   6.934
   49DG     C5' 1528   8.655   6.408   7.053
   49DG    H5'1 1529   8.699   6.462   7.135
   49DG    H5'2 1530   8.660   6.301   7.062
   49DG     C4' 1531   8.503   6.455   7.054
   49DG     H4' 1532   8.459   6.411   7.147
   49DG     O4' 1533   8.491   6.593   7.054
   49DG     C1' 1534   8.414   6.630   6.941
   49DG     H1' 1535   8.309   6.648   6.970
   49DG      N9 1536   8.462   6.756   6.879
   49DG      C8 1537   8.582   6.782   6.828
   49DG      H8 1538   8.654   6.705   6.822
   49DG      N7 1539   8.600   6.906   6.783
   49DG      C5 1540   8.480   6.968   6.819
   49DG      C6 1541   8.435   7.109   6.810
   49DG      O6 1542   8.491   7.202   6.760
   49DG      N1 1543   8.309   7.131   6.865
   49DG      H1 1544   8.272   7.219   6.868
   49DG      C2 1545   8.234   7.030   6.919
   49DG      N2 1546   8.127   7.062   6.979
   49DG     H21 1547   8.079   7.149   6.969
   49DG     H22 1548   8.083   6.988   7.033
   49DG      N3 1549   8.272   6.904   6.934
   49DG      C4 1550   8.396   6.878   6.877
   49DG     C3' 1551   8.433   6.398   6.936
   49DG     H3' 1552   8.497   6.327   6.890
   49DG     C2' 1553   8.420   6.518   6.838
   49DG    H2'1 1554   8.513   6.532   6.776
   49DG    H2'2 1555   8.333   6.515   6.780
   49DG     O3' 1556   8.310   6.340   6.975
   50DT       P 1557   8.203   6.289   6.870
   50DT     O1P 1558   8.126   6.181   6.938
   50DT     O2P 1559   8.265   6.240   6.743
   50DT     O5' 1560   8.114   6.416   6.843
   50DT     C5' 1561   8.040   6.476   6.948
   50DT    H5'1 1562   8.115   6.522   7.012
   50DT    H5'2 1563   7.996   6.392   7.002
   50DT     C4' 1564   7.934   6.582   6.903
   50DT     H4' 1565   7.868   6.597   6.987
   50DT     O4' 1566   7.999   6.704   6.862
   50DT     C1' 1567   7.952   6.739   6.730
   50DT     H1' 1568   7.870   6.815   6.741
   50DT      N1 1569   8.066   6.802   6.662
   50DT      C6 1570   8.175   6.729   6.620
   50DT      H6 1571   8.167   6.617   6.628
   50DT      C5 1572   8.279   6.791   6.554
   50DT      C7 1573   8.392   6.706   6.488
   50DT     H71 1574   8.400   6.726   6.383
   50DT     H72 1575   8.486   6.733   6.532
   50DT     H73 1576   8.377   6.601   6.527
   50DT      C4 1577   8.282   6.938   6.543
   50DT      O4 1578   8.378   7.010   6.500
   50DT      N3 1579   8.164   7.000   6.588
   50DT      H3 1580   8.151   7.097   6.571
   50DT      C2 1581   8.056   6.937   6.636
   50DT      O2 1582   7.953   7.011   6.662
   50DT     C3' 1583   7.853   6.528   6.786
   50DT     H3' 1584   7.863   6.419   6.768
   50DT     C2' 1585   7.894   6.608   6.672
   50DT    H2'1 1586   7.968   6.544   6.615
   50DT    H2'2 1587   7.821   6.629   6.595
   50DT     O3' 1588   7.718   6.550   6.813
   51DA       P 1589   7.603   6.481   6.719
   51DA     O1P 1590   7.485   6.465   6.808
   51DA     O2P 1591   7.674   6.366   6.656
   51DA     O5' 1592   7.577   6.583   6.602
   51DA     C5' 1593   7.534   6.719   6.620
   51DA    H5'1 1594   7.592   6.768   6.698
   51DA    H5'2 1595   7.430   6.715   6.640
   51DA     C4' 1596   7.551   6.799   6.489
   51DA     H4' 1597   7.490   6.887   6.502
   51DA     O4' 1598   7.689   6.835   6.488
   51DA     C1' 1599   7.724   6.845   6.355
   51DA     H1' 1600   7.673   6.931   6.307
   51DA      N9 1601   7.870   6.852   6.333
   51DA      C8 1602   7.965   6.752   6.330
   51DA      H8 1603   7.951   6.650   6.363
   51DA      N7 1604   8.083   6.798   6.305
   51DA      C5 1605   8.058   6.934   6.273
   51DA      C6 1606   8.138   7.042   6.235
   51DA      N6 1607   8.271   7.033   6.237
   51DA     H61 1608   8.315   7.110   6.195
   51DA     H62 1609   8.314   6.949   6.264
   51DA      N1 1610   8.088   7.164   6.218
   51DA      C2 1611   7.960   7.183   6.240
   51DA      H2 1612   7.933   7.292   6.236
   51DA      N3 1613   7.871   7.094   6.280
   51DA      C4 1614   7.931   6.970   6.295
   51DA     C3' 1615   7.519   6.730   6.359
   51DA     H3' 1616   7.460   6.640   6.361
   51DA     C2' 1617   7.661   6.712   6.304
   51DA    H2'1 1618   7.703   6.618   6.345
   51DA    H2'2 1619   7.664   6.711   6.196
   51DA     O3' 1620   7.461   6.818   6.273
   52DT       P 1621   7.304   6.798   6.231
   52DT     O1P 1622   7.218   6.843   6.339
   52DT     O2P 1623   7.294   6.662   6.174
   52DT     O5' 1624   7.295   6.895   6.111
   52DT     C5' 1625   7.285   7.038   6.123
   52DT    H5'1 1626   7.284   7.075   6.224
   52DT    H5'2 1627   7.183   7.051   6.095
   52DT     C4' 1628   7.380   7.110   6.024
   52DT     H4' 1629   7.361   7.210   6.027
   52DT     O4' 1630   7.524   7.098   6.056
   52DT     C1' 1631   7.600   7.075   5.941
   52DT     H1' 1632   7.609   7.167   5.883
   52DT      N1 1633   7.732   7.017   5.966
   52DT      C6 1634   7.755   6.886   5.967
   52DT      H6 1635   7.674   6.818   5.996
   52DT      C5 1636   7.880   6.834   5.955
   52DT      C7 1637   7.889   6.683   5.961
   52DT     H71 1638   7.799   6.633   5.985
   52DT     H72 1639   7.923   6.641   5.868
   52DT     H73 1640   7.964   6.656   6.036
   52DT      C4 1641   7.997   6.918   5.930
   52DT      O4 1642   8.115   6.887   5.908
   52DT      N3 1643   7.965   7.053   5.934
   52DT      H3 1644   8.039   7.117   5.935
   52DT      C2 1645   7.839   7.103   5.947
   52DT      O2 1646   7.827   7.222   5.962
   52DT     C3' 1647   7.372   7.073   5.875
   52DT     H3' 1648   7.289   7.008   5.848
   52DT     C2' 1649   7.502   6.999   5.858
   52DT    H2'1 1650   7.492   6.906   5.901
   52DT    H2'2 1651   7.536   6.990   5.759
   52DT     O3' 1652   7.386   7.193   5.800
   53DA       P 1653   7.268   7.246   5.715
   53DA     O1P 1654   7.169   7.296   5.807
   53DA     O2P 1655   7.234   7.140   5.614
   53DA     O5' 1656   7.347   7.363   5.638
   53DA     C5' 1657   7.361   7.499   5.693
   53DA    H5'1 1658   7.312   7.511   5.793
   53DA    H5'2 1659   7.308   7.573   5.631
   53DA     C4' 1660   7.510   7.547   5.708
   53DA     H4' 1661   7.527   7.617   5.792
   53DA     O4' 1662   7.587   7.431   5.730
   53DA     C1' 1663   7.696   7.436   5.640
   53DA     H1' 1664   7.770   7.509   5.668
   53DA      N9 1665   7.749   7.304   5.614
   53DA      C8 1666   7.681   7.187   5.591
   53DA      H8 1667   7.582   7.180   5.605
   53DA      N7 1668   7.758   7.084   5.561
   53DA      C5 1669   7.886   7.136   5.570
   53DA      C6 1670   8.015   7.084   5.554
   53DA      N6 1671   8.044   6.961   5.527
   53DA     H61 1672   8.141   6.937   5.534
   53DA     H62 1673   7.968   6.891   5.526
   53DA      N1 1674   8.125   7.162   5.548
   53DA      C2 1675   8.105   7.291   5.569
   53DA      H2 1676   8.188   7.358   5.556
   53DA      N3 1677   7.991   7.351   5.597
   53DA      C4 1678   7.882   7.271   5.605
   53DA     C3' 1679   7.553   7.607   5.574
   53DA     H3' 1680   7.460   7.623   5.515
   53DA     C2' 1681   7.640   7.497   5.515
   53DA    H2'1 1682   7.577   7.429   5.454
   53DA    H2'2 1683   7.712   7.537   5.448
   53DA     O3' 1684   7.622   7.725   5.604
   54DA       P 1685   7.631   7.845   5.502
   54DA     O1P 1686   7.679   7.965   5.578
   54DA     O2P 1687   7.504   7.852   5.424
   54DA     O5' 1688   7.748   7.801   5.395
   54DA     C5' 1689   7.886   7.805   5.431
   54DA    H5'1 1690   7.911   7.730   5.511
   54DA    H5'2 1691   7.897   7.903   5.484
   54DA     C4' 1692   7.986   7.795   5.318
   54DA     H4' 1693   8.060   7.865   5.339
   54DA     O4' 1694   8.053   7.668   5.305
   54DA     C1' 1695   8.036   7.623   5.176
   54DA     H1' 1696   8.129   7.643   5.110
   54DA      N9 1697   8.019   7.472   5.174
   54DA      C8 1698   7.906   7.393   5.183
   54DA      H8 1699   7.804   7.432   5.188
   54DA      N7 1700   7.930   7.266   5.187
   54DA      C5 1701   8.067   7.256   5.173
   54DA      C6 1702   8.163   7.148   5.172
   54DA      N6 1703   8.146   7.018   5.193
   54DA     H61 1704   8.227   6.958   5.193
   54DA     H62 1705   8.056   6.984   5.224
   54DA      N1 1706   8.291   7.178   5.171
   54DA      C2 1707   8.329   7.307   5.163
   54DA      H2 1708   8.435   7.332   5.163
   54DA      N3 1709   8.255   7.412   5.166
   54DA      C4 1710   8.121   7.379   5.177
   54DA     C3' 1711   7.934   7.840   5.179
   54DA     H3' 1712   7.844   7.906   5.181
   54DA     C2' 1713   7.924   7.698   5.119
   54DA    H2'1 1714   7.831   7.652   5.153
   54DA    H2'2 1715   7.940   7.700   5.014
   54DA     O3' 1716   8.022   7.929   5.118
   55DT       P 1717   8.009   7.961   4.964
   55DT     O1P 1718   8.080   8.084   4.936
   55DT     O2P 1719   7.866   7.954   4.927
   55DT     O5' 1720   8.083   7.841   4.883
   55DT     C5' 1721   8.222   7.825   4.889
   55DT    H5'1 1722   8.256   7.812   4.990
   55DT    H5'2 1723   8.272   7.919   4.848
   55DT     C4' 1724   8.273   7.705   4.808
   55DT     H4' 1725   8.382   7.707   4.821
   55DT     O4' 1726   8.216   7.582   4.845
   55DT     C1' 1727   8.212   7.509   4.730
   55DT     H1' 1728   8.311   7.495   4.695
   55DT      N1 1729   8.146   7.386   4.766
   55DT      C6 1730   8.010   7.375   4.775
   55DT      H6 1731   7.942   7.459   4.752
   55DT      C5 1732   7.958   7.250   4.810
   55DT      C7 1733   7.811   7.239   4.830
   55DT     H71 1734   7.768   7.179   4.751
   55DT     H72 1735   7.803   7.182   4.923
   55DT     H73 1736   7.770   7.340   4.835
   55DT      C4 1737   8.044   7.137   4.834
   55DT      O4 1738   8.007   7.027   4.871
   55DT      N3 1739   8.181   7.153   4.822
   55DT      H3 1740   8.243   7.078   4.843
   55DT      C2 1741   8.237   7.274   4.789
   55DT      O2 1742   8.359   7.275   4.788
   55DT     C3' 1743   8.229   7.721   4.663
   55DT     H3' 1744   8.179   7.817   4.646
   55DT     C2' 1745   8.142   7.604   4.635
   55DT    H2'1 1746   8.043   7.632   4.663
   55DT    H2'2 1747   8.155   7.575   4.533
   55DT     O3' 1748   8.343   7.707   4.578
   56DA       P 1749   8.407   7.835   4.498
   56DA     O1P 1750   8.441   7.950   4.584
   56DA     O2P 1751   8.326   7.854   4.378
   56DA     O5' 1752   8.538   7.773   4.449
   56DA     C5' 1753   8.636   7.721   4.537
   56DA    H5'1 1754   8.586   7.717   4.632
   56DA    H5'2 1755   8.724   7.780   4.538
   56DA     C4' 1756   8.676   7.578   4.492
   56DA     H4' 1757   8.775   7.556   4.545
   56DA     O4' 1758   8.569   7.487   4.530
   56DA     C1' 1759   8.565   7.390   4.429
   56DA     H1' 1760   8.642   7.307   4.440
   56DA      N9 1761   8.435   7.325   4.443
   56DA      C8 1762   8.309   7.386   4.408
   56DA      H8 1763   8.297   7.496   4.396
   56DA      N7 1764   8.218   7.297   4.406
   56DA      C5 1765   8.276   7.173   4.445
   56DA      C6 1766   8.236   7.038   4.469
   56DA      N6 1767   8.112   6.993   4.467
   56DA     H61 1768   8.089   6.902   4.504
   56DA     H62 1769   8.036   7.055   4.446
   56DA      N1 1770   8.318   6.946   4.519
   56DA      C2 1771   8.445   6.974   4.533
   56DA      H2 1772   8.509   6.900   4.567
   56DA      N3 1773   8.500   7.091   4.510
   56DA      C4 1774   8.413   7.190   4.469
   56DA     C3' 1775   8.696   7.568   4.337
   56DA     H3' 1776   8.683   7.663   4.283
   56DA     C2' 1777   8.578   7.469   4.297
   56DA    H2'1 1778   8.488   7.521   4.270
   56DA    H2'2 1779   8.602   7.396   4.227
   56DA     O3' 1780   8.830   7.527   4.312
   57DC       P 1781   8.874   7.467   4.171
   57DC     O1P 1782   9.009   7.515   4.139
   57DC     O2P 1783   8.768   7.502   4.067
   57DC     O5' 1784   8.877   7.314   4.195
   57DC     C5' 1785   8.947   7.253   4.296
   57DC    H5'1 1786   8.913   7.296   4.397
   57DC    H5'2 1787   9.047   7.273   4.280
   57DC     C4' 1788   8.919   7.101   4.290
   57DC     H4' 1789   8.978   7.047   4.368
   57DC     O4' 1790   8.779   7.060   4.301
   57DC     C1' 1791   8.749   6.974   4.194
   57DC     H1' 1792   8.777   6.870   4.228
   57DC      N1 1793   8.608   6.987   4.156
   57DC      C6 1794   8.559   7.106   4.104
   57DC      H6 1795   8.626   7.182   4.076
   57DC      C5 1796   8.429   7.129   4.108
   57DC      H5 1797   8.375   7.217   4.084
   57DC      C4 1798   8.344   7.021   4.157
   57DC      N4 1799   8.216   7.033   4.168
   57DC     H41 1800   8.170   6.949   4.182
   57DC     H42 1801   8.159   7.105   4.125
   57DC      N3 1802   8.389   6.899   4.181
   57DC      C2 1803   8.521   6.885   4.193
   57DC      O2 1804   8.570   6.779   4.231
   57DC     C3' 1805   8.970   7.043   4.157
   57DC     H3' 1806   9.022   7.123   4.103
   57DC     C2' 1807   8.844   7.008   4.081
   57DC    H2'1 1808   8.817   7.085   4.011
   57DC    H2'2 1809   8.864   6.911   4.030
   57DC     O3' 1810   9.059   6.931   4.175
   58DG       P 1811   9.127   6.846   4.053
   58DG     O1P 1812   9.254   6.786   4.104
   58DG     O2P 1813   9.138   6.936   3.936
   58DG     O5' 1814   9.032   6.726   3.998
   58DG     C5' 1815   8.975   6.625   4.087
   58DG    H5'1 1816   8.930   6.671   4.183
   58DG    H5'2 1817   9.055   6.562   4.128
   58DG     C4' 1818   8.869   6.548   4.011
   58DG     H4' 1819   8.851   6.456   4.064
   58DG     O4' 1820   8.747   6.629   4.009
   58DG     C1' 1821   8.697   6.624   3.877
   58DG     H1' 1822   8.640   6.527   3.865
   58DG      N9 1823   8.607   6.733   3.855
   58DG      C8 1824   8.621   6.873   3.845
   58DG      H8 1825   8.721   6.919   3.855
   58DG      N7 1826   8.510   6.936   3.837
   58DG      C5 1827   8.410   6.843   3.847
   58DG      C6 1828   8.268   6.851   3.846
   58DG      O6 1829   8.204   6.954   3.843
   58DG      N1 1830   8.205   6.727   3.838
   58DG      H1 1831   8.104   6.730   3.827
   58DG      C2 1832   8.265   6.608   3.847
   58DG      N2 1833   8.193   6.498   3.856
   58DG     H21 1834   8.094   6.494   3.830
   58DG     H22 1835   8.249   6.415   3.878
   58DG      N3 1836   8.402   6.599   3.857
   58DG      C4 1837   8.469   6.717   3.848
   58DG     C3' 1838   8.910   6.520   3.864
   58DG     H3' 1839   9.016   6.548   3.858
   58DG     C2' 1840   8.823   6.621   3.785
   58DG    H2'1 1841   8.879   6.712   3.779
   58DG    H2'2 1842   8.798   6.583   3.690
   58DG     O3' 1843   8.900   6.384   3.826
   59DC       P 1844   8.966   6.333   3.694
   59DC     O1P 1845   8.998   6.194   3.721
   59DC     O2P 1846   9.073   6.426   3.663
   59DC     O5' 1847   8.869   6.347   3.569
   59DC     C5' 1848   8.741   6.282   3.581
   59DC    H5'1 1849   8.711   6.281   3.684
   59DC    H5'2 1850   8.753   6.169   3.569
   59DC     C4' 1851   8.629   6.339   3.491
   59DC     H4' 1852   8.558   6.262   3.471
   59DC     O4' 1853   8.563   6.447   3.553
   59DC     C1' 1854   8.537   6.530   3.438
   59DC     H1' 1855   8.464   6.476   3.374
   59DC      N1 1856   8.475   6.664   3.485
   59DC      C6 1857   8.549   6.780   3.495
   59DC      H6 1858   8.655   6.772   3.462
   59DC      C5 1859   8.485   6.898   3.500
   59DC      H5 1860   8.546   6.984   3.486
   59DC      C4 1861   8.346   6.895   3.509
   59DC      N4 1862   8.281   7.004   3.541
   59DC     H41 1863   8.178   7.002   3.533
   59DC     H42 1864   8.330   7.089   3.574
   59DC      N3 1865   8.271   6.788   3.512
   59DC      C2 1866   8.332   6.667   3.487
   59DC      O2 1867   8.257   6.570   3.469
   59DC     C3' 1868   8.686   6.376   3.351
   59DC     H3' 1869   8.792   6.360   3.333
   59DC     C2' 1870   8.665   6.527   3.355
   59DC    H2'1 1871   8.747   6.583   3.406
   59DC    H2'2 1872   8.644   6.576   3.253
   59DC     O3' 1873   8.610   6.335   3.236
   60DA       P 1874   8.647   6.195   3.153
   60DA     O1P 1875   8.726   6.099   3.238
   60DA     O2P 1876   8.714   6.233   3.027
   60DA     O5' 1877   8.507   6.126   3.120
   60DA     C5' 1878   8.428   6.071   3.223
   60DA    H5'1 1879   8.472   6.084   3.323
   60DA    H5'2 1880   8.411   5.969   3.189
   60DA     C4' 1881   8.284   6.121   3.240
   60DA     H4' 1882   8.233   6.075   3.329
   60DA     O4' 1883   8.293   6.256   3.263
   60DA     C1' 1884   8.197   6.321   3.172
   60DA     H1' 1885   8.094   6.311   3.222
   60DA      N9 1886   8.237   6.461   3.156
   60DA      C8 1887   8.366   6.505   3.143
   60DA      H8 1888   8.457   6.444   3.131
   60DA      N7 1889   8.374   6.640   3.142
   60DA      C5 1890   8.241   6.686   3.165
   60DA      C6 1891   8.178   6.816   3.182
   60DA      N6 1892   8.234   6.936   3.193
   60DA     H61 1893   8.167   7.012   3.219
   60DA     H62 1894   8.326   6.950   3.153
   60DA      N1 1895   8.049   6.825   3.197
   60DA      C2 1896   7.977   6.716   3.177
   60DA      H2 1897   7.876   6.730   3.183
   60DA      N3 1898   8.021   6.591   3.165
   60DA      C4 1899   8.159   6.578   3.161
   60DA     C3' 1900   8.198   6.101   3.112
   60DA     H3' 1901   8.241   6.017   3.048
   60DA     C2' 1902   8.200   6.238   3.050
   60DA    H2'1 1903   8.296   6.246   2.994
   60DA    H2'2 1904   8.114   6.265   2.989
   60DA     O3' 1905   8.061   6.069   3.143
   61DC       P 1906   7.974   5.967   3.058
   61DC     O1P 1907   7.858   5.920   3.144
   61DC     O2P 1908   8.057   5.854   3.012
   61DC     O5' 1909   7.912   6.040   2.929
   61DC     C5' 1910   7.789   6.103   2.915
   61DC    H5'1 1911   7.754   6.139   3.014
   61DC    H5'2 1912   7.716   6.036   2.866
   61DC     C4' 1913   7.802   6.222   2.822
   61DC     H4' 1914   7.706   6.268   2.808
   61DC     O4' 1915   7.895   6.315   2.880
   61DC     C1' 1916   7.942   6.386   2.768
   61DC     H1' 1917   7.861   6.440   2.720
   61DC      N1 1918   8.041   6.494   2.801
   61DC      C6 1919   8.173   6.480   2.779
   61DC      H6 1920   8.211   6.382   2.755
   61DC      C5 1921   8.254   6.586   2.794
   61DC      H5 1922   8.361   6.585   2.772
   61DC      C4 1923   8.193   6.709   2.838
   61DC      N4 1924   8.272   6.816   2.842
   61DC     H41 1925   8.238   6.906   2.874
   61DC     H42 1926   8.365   6.805   2.816
   61DC      N3 1927   8.065   6.730   2.854
   61DC      C2 1928   7.991   6.623   2.839
   61DC      O2 1929   7.870   6.638   2.852
   61DC     C3' 1930   7.855   6.196   2.682
   61DC     H3' 1931   7.870   6.089   2.682
   61DC     C2' 1932   7.984   6.275   2.677
   61DC    H2'1 1933   8.072   6.218   2.721
   61DC    H2'2 1934   7.998   6.304   2.573
   61DC     O3' 1935   7.766   6.242   2.588
   62DA       P 1936   7.710   6.145   2.472
   62DA     O1P 1937   7.670   6.016   2.539
   62DA     O2P 1938   7.813   6.142   2.366
   62DA     O5' 1939   7.578   6.213   2.408
   62DA     C5' 1940   7.464   6.245   2.476
   62DA    H5'1 1941   7.484   6.217   2.582
   62DA    H5'2 1942   7.382   6.200   2.423
   62DA     C4' 1943   7.432   6.397   2.490
   62DA     H4' 1944   7.337   6.411   2.540
   62DA     O4' 1945   7.544   6.463   2.556
   62DA     C1' 1946   7.588   6.566   2.470
   62DA     H1' 1947   7.537   6.659   2.502
   62DA      N9 1948   7.736   6.597   2.487
   62DA      C8 1949   7.839   6.514   2.462
   62DA      H8 1950   7.827   6.404   2.437
   62DA      N7 1951   7.958   6.572   2.478
   62DA      C5 1952   7.927   6.701   2.516
   62DA      C6 1953   8.002   6.818   2.540
   62DA      N6 1954   8.129   6.826   2.543
   62DA     H61 1955   8.158   6.908   2.587
   62DA     H62 1956   8.179   6.743   2.522
   62DA      N1 1957   7.941   6.927   2.574
   62DA      C2 1958   7.811   6.929   2.589
   62DA      H2 1959   7.760   7.029   2.604
   62DA      N3 1960   7.727   6.833   2.560
   62DA      C4 1961   7.793   6.715   2.524
   62DA     C3' 1962   7.413   6.460   2.341
   62DA     H3' 1963   7.409   6.387   2.259
   62DA     C2' 1964   7.547   6.529   2.322
   62DA    H2'1 1965   7.619   6.459   2.275
   62DA    H2'2 1966   7.521   6.616   2.259
   62DA     O3' 1967   7.308   6.553   2.331
   63DT       P 1968   7.242   6.628   2.203
   63DT     O1P 1969   7.096   6.633   2.224
   63DT     O2P 1970   7.292   6.566   2.080
   63DT     O5' 1971   7.281   6.784   2.217
   63DT     C5' 1972   7.234   6.860   2.330
   63DT    H5'1 1973   7.280   6.816   2.421
   63DT    H5'2 1974   7.124   6.850   2.336
   63DT     C4' 1975   7.257   7.004   2.322
   63DT     H4' 1976   7.199   7.054   2.398
   63DT     O4' 1977   7.391   7.031   2.361
   63DT     C1' 1978   7.461   7.092   2.250
   63DT     H1' 1979   7.459   7.199   2.255
   63DT      N1 1980   7.599   7.048   2.246
   63DT      C6 1981   7.619   6.917   2.207
   63DT      H6 1982   7.529   6.860   2.181
   63DT      C5 1983   7.739   6.863   2.200
   63DT      C7 1984   7.752   6.724   2.150
   63DT     H71 1985   7.784   6.655   2.230
   63DT     H72 1986   7.661   6.692   2.098
   63DT     H73 1987   7.824   6.716   2.073
   63DT      C4 1988   7.857   6.951   2.218
   63DT      O4 1989   7.973   6.925   2.191
   63DT      N3 1990   7.827   7.075   2.266
   63DT      H3 1991   7.905   7.138   2.266
   63DT      C2 1992   7.702   7.128   2.292
   63DT      O2 1993   7.685   7.241   2.340
   63DT     C3' 1994   7.231   7.070   2.185
   63DT     H3' 1995   7.176   7.001   2.124
   63DT     C2' 1996   7.371   7.068   2.130
   63DT    H2'1 1997   7.392   6.959   2.101
   63DT    H2'2 1998   7.387   7.136   2.044
   63DT     O3' 1999   7.167   7.198   2.199
   64DG       P 2000   7.138   7.291   2.074
   64DG     O1P 2001   7.049   7.400   2.111
   64DG     O2P 2002   7.100   7.201   1.963
   64DG     O5' 2003   7.274   7.363   2.037
   64DG     C5' 2004   7.341   7.457   2.117
   64DG    H5'1 2005   7.358   7.412   2.215
   64DG    H5'2 2006   7.289   7.553   2.117
   64DG     C4' 2007   7.489   7.493   2.063
   64DG     H4' 2008   7.527   7.571   2.130
   64DG     O4' 2009   7.575   7.376   2.072
   64DG     C1' 2010   7.670   7.401   1.976
   64DG     H1' 2011   7.733   7.489   1.994
   64DG      N9 2012   7.753   7.280   1.968
   64DG      C8 2013   7.709   7.154   1.938
   64DG      H8 2014   7.604   7.131   1.948
   64DG      N7 2015   7.804   7.066   1.911
   64DG      C5 2016   7.917   7.148   1.919
   64DG      C6 2017   8.051   7.112   1.904
   64DG      O6 2018   8.095   7.002   1.882
   64DG      N1 2019   8.141   7.216   1.897
   64DG      H1 2020   8.238   7.197   1.884
   64DG      C2 2021   8.102   7.340   1.921
   64DG      N2 2022   8.194   7.431   1.917
   64DG     H21 2023   8.282   7.405   1.876
   64DG     H22 2024   8.177   7.530   1.934
   64DG      N3 2025   7.978   7.377   1.960
   64DG      C4 2026   7.891   7.274   1.956
   64DG     C3' 2027   7.490   7.536   1.919
   64DG     H3' 2028   7.390   7.522   1.880
   64DG     C2' 2029   7.584   7.438   1.853
   64DG    H2'1 2030   7.527   7.355   1.801
   64DG    H2'2 2031   7.641   7.496   1.775
   64DG     O3' 2032   7.535   7.673   1.908
   65DC       P 2033   7.546   7.759   1.775
   65DC     O1P 2034   7.488   7.892   1.798
   65DC     O2P 2035   7.490   7.682   1.660
   65DC     O5' 2036   7.692   7.781   1.742
   65DC     C5' 2037   7.765   7.892   1.796
   65DC    H5'1 2038   7.766   7.883   1.899
   65DC    H5'2 2039   7.714   7.979   1.769
   65DC     C4' 2040   7.910   7.903   1.736
   65DC     H4' 2041   7.964   7.982   1.794
   65DC     O4' 2042   7.979   7.778   1.743
   65DC     C1' 2043   8.030   7.732   1.624
   65DC     H1' 2044   8.130   7.772   1.615
   65DC      N1 2045   8.016   7.585   1.605
   65DC      C6 2046   7.895   7.529   1.617
   65DC      H6 2047   7.805   7.590   1.632
   65DC      C5 2048   7.880   7.395   1.601
   65DC      H5 2049   7.783   7.358   1.610
   65DC      C4 2050   7.999   7.316   1.577
   65DC      N4 2051   7.984   7.184   1.582
   65DC     H41 2052   8.067   7.120   1.580
   65DC     H42 2053   7.890   7.157   1.593
   65DC      N3 2054   8.121   7.370   1.587
   65DC      C2 2055   8.131   7.505   1.597
   65DC      O2 2056   8.242   7.555   1.625
   65DC     C3' 2057   7.936   7.943   1.590
   65DC     H3' 2058   7.848   7.994   1.552
   65DC     C2' 2059   7.950   7.809   1.523
   65DC    H2'1 2060   7.855   7.762   1.514
   65DC    H2'2 2061   7.988   7.812   1.425
   65DC     O3' 2062   8.055   8.018   1.570
   66DG3      P 2063   8.073   8.086   1.427
   66DG3    O1P 2064   8.143   8.213   1.447
   66DG3    O2P 2065   7.942   8.089   1.359
   66DG3    O5' 2066   8.174   7.985   1.356
   66DG3    C5' 2067   8.303   7.957   1.411
   66DG3   H5'1 2068   8.296   7.867   1.466
   66DG3   H5'2 2069   8.331   8.044   1.479
   66DG3    C4' 2070   8.419   7.944   1.311
   66DG3    H4' 2071   8.501   7.991   1.357
   66DG3    O4' 2072   8.450   7.810   1.286
   66DG3    C1' 2073   8.377   7.768   1.170
   66DG3    H1' 2074   8.439   7.709   1.097
   66DG3     N9 2075   8.267   7.668   1.200
   66DG3     C8 2076   8.131   7.685   1.232
   66DG3     H8 2077   8.080   7.778   1.232
   66DG3     N7 2078   8.064   7.578   1.260
   66DG3     C5 2079   8.163   7.477   1.242
   66DG3     C6 2080   8.165   7.334   1.258
   66DG3     O6 2081   8.070   7.259   1.279
   66DG3     N1 2082   8.286   7.273   1.236
   66DG3     H1 2083   8.286   7.173   1.241
   66DG3     C2 2084   8.397   7.343   1.216
   66DG3     N2 2085   8.505   7.274   1.199
   66DG3    H21 2086   8.497   7.175   1.205
   66DG3    H22 2087   8.589   7.328   1.203
   66DG3     N3 2088   8.404   7.473   1.195
   66DG3     C4 2089   8.283   7.534   1.203
   66DG3    C3' 2090   8.391   8.005   1.174
   66DG3    H3' 2091   8.321   8.091   1.180
   66DG3    C2' 2092   8.325   7.893   1.096
   66DG3   H2'1 2093   8.218   7.895   1.111
   66DG3   H2'2 2094   8.350   7.896   0.993
   66DG3    O3' 2095   8.516   8.036   1.112
   66DG3    H3T 2096   8.589   7.985   1.147
   67SOL     OW 2097   9.745   1.466   6.023
   67SOL    HW1 2098   9.839   1.472   6.007
   67SOL    HW2 2099   9.721   1.552   6.057
   68SOL     OW 2100   6.091   7.805  11.725
   68SOL    HW1 2101   6.139   7.874  11.680
   68SOL    HW2 2102   6.090   7.732  11.663
   69SOL     OW 2103   9.336   1.942   0.770
   69SOL    HW1 2104   9.310   1.872   0.710
   69SOL    HW2 2105   9.275   1.933   0.844
   70SOL     OW 2106   8.335   9.413   1.504
   70SOL    HW1 2107   8.358   9.363   1.425
   70SOL    HW2 2108   8.419   9.440   1.540
   71SOL     OW 2109   7.476   8.266   5.455
   71SOL    HW1 2110   7.507   8.356   5.469
   71SOL    HW2 2111   7.548   8.211   5.485
   72SOL     OW 2112   8.853   1.494   0.089
   72SOL    HW1 2113   8.908   1.422   0.057
   72SOL    HW2 2114   8.768   1.454   0.103
   73SOL     OW 2115   3.484   3.978   9.291
   73SOL    HW1 2116   3.462   4.060   9.246
   73SOL    HW2 2117   3.570   3.954   9.256
   74SOL     OW 2118   7.737   1.509  12.122
   74SOL    HW1 2119   7.794   1.565  12.069
   74SOL    HW2 2120   7.649   1.539  12.102
   75SOL     OW 2121   9.857  12.486   7.861
   75SOL    HW1 2122   9.879  12.450   7.947
   75SOL    HW2 2123   9.790  12.426   7.827
   76SOL     OW 2124   3.279   5.367   3.269
   76SOL    HW1 2125   3.208   5.380   3.331
   76SOL    HW2 2126   3.246   5.301   3.208
   77SOL     OW 2127  10.666   9.806  14.140
   77SOL    HW1 2128  10.650   9.734  14.202
   77SOL    HW2 2129  10.719   9.868  14.189
   78SOL     OW 2130   1.489   5.153   6.254
   78SOL    HW1 2131   1.475   5.073   6.203
   78SOL    HW2 2132   1.446   5.221   6.202
   79SOL     OW 2133   4.669  12.667   7.969
   79SOL    HW1 2134   4.662  12.586   8.019
   79SOL    HW2 2135   4.761  12.671   7.944
   80SOL     OW 2136   5.003   7.092   9.597
   80SOL    HW1 2137   4.912   7.118   9.603
   80SOL    HW2 2138   5.021   7.047   9.680
   81SOL     OW 2139   2.424   5.638  11.803
   81SOL    HW1 2140   2.471   5.559  11.777
   81SOL    HW2 2141   2.444   5.649  11.895
   82SOL     OW 2142  13.627   1.690   4.535
   82SOL    HW1 2143  13.591   1.693   4.623
   82SOL    HW2 2144  13.618   1.599   4.508
   83SOL     OW 2145   4.597   2.980   6.371
   83SOL    HW1 2146   4.645   2.934   6.440
   83SOL    HW2 2147   4.534   3.034   6.418
   84SOL     OW 2148   2.677   7.620  11.144
   84SOL    HW1 2149   2.628   7.557  11.196
   84SOL    HW2 2150   2.750   7.647  11.199
   85SOL     OW 2151  13.715  12.053   6.749
   85SOL    HW1 2152  13.805  12.022   6.744
   85SOL    HW2 2153  13.666  11.978   6.783
   86SOL     OW 2154  13.833  10.778   2.174
   86SOL    HW1 2155  13.777  10.855   2.162
   86SOL    HW2 2156  13.885  10.772   2.094
   87SOL     OW 2157   7.691   8.641  11.362
   87SOL    HW1 2158   7.769   8.680  11.323
   87SOL    HW2 2159   7.690   8.552  11.326
   88SOL     OW 2160  11.344   8.039   8.047
   88SOL    HW1 2161  11.298   7.996   7.975
   88SOL    HW2 2162  11.410   8.094   8.005
   89SOL     OW 2163   0.803  12.624   4.166
   89SOL    HW1 2164   0.859  12.600   4.239
   89SOL    HW2 2165   0.723  12.573   4.179
   90SOL     OW 2166   9.611   1.878   9.543
   90SOL    HW1 2167   9.551   1.803   9.549
   90SOL    HW2 2168   9.558   1.949   9.507
   91SOL     OW 2169   2.660   5.203   1.434
   91SOL    HW1 2170   2.682   5.129   1.491
   91SOL    HW2 2171   2.739   5.257   1.434
   92SOL     OW 2172   8.478   4.326  10.904
   92SOL    HW1 2173   8.422   4.248  10.896
   92SOL    HW2 2174   8.480   4.344  10.998
   93SOL     OW 2175   9.842   6.680  11.634
   93SOL    HW1 2176   9.786   6.632  11.695
   93SOL    HW2 2177   9.825   6.641  11.549
   94SOL     OW 2178  11.621   0.708  13.415
   94SOL    HW1 2179  11.694   0.762  13.446
   94SOL    HW2 2180  11.565   0.697  13.492
   95SOL     OW 2181   5.209  13.242  11.521
   95SOL    HW1 2182   5.168  13.221  11.437
   95SOL    HW2 2183   5.218  13.157  11.565
   96SOL     OW 2184   3.773  13.473  10.934
   96SOL    HW1 2185   3.764  13.379  10.945
   96SOL    HW2 2186   3.867  13.488  10.923
   97SOL     OW 2187   7.859  13.074   3.732
   97SOL    HW1 2188   7.794  13.011   3.765
   97SOL    HW2 2189   7.866  13.139   3.802
   98SOL     OW 2190   9.539   3.980  11.965
   98SOL    HW1 2191   9.564   4.072  11.970
   98SOL    HW2 2192   9.566   3.943  12.049
   99SOL     OW 2193   4.081   7.878   4.314
   99SOL    HW1 2194   4.042   7.961   4.286
   99SOL    HW2 2195   4.020   7.843   4.378
  100SOL     OW 2196   6.859   3.291  10.925
  100SOL    HW1 2197   6.920   3.355  10.888
  100SOL    HW2 2198   6.907   3.208  10.922
  101SOL     OW 2199  11.563  11.146   4.611
  101SOL    HW1 2200  11.552  11.051   4.617
  101SOL    HW2 2201  11.563  11.177   4.701
  102SOL     OW 2202   7.380  12.236   9.223
  102SOL    HW1 2203   7.398  12.206   9.312
  102SOL    HW2 2204   7.462  12.222   9.176
  103SOL     OW 2205  10.648   0.318  11.949
  103SOL    HW1 2206  10.683   0.241  11.905
  103SOL    HW2 2207  10.596   0.362  11.882
  104SOL     OW 2208   8.112   4.290  12.656
  104SOL    HW1 2209   8.113   4.266  12.564
  104SOL    HW2 2210   8.172   4.364  12.662
  105SOL     OW 2211  14.333   7.779  14.491
  105SOL    HW1 2212  14.383   7.819  14.420
  105SOL    HW2 2213  14.397   7.727  14.539
  106SOL     OW 2214   8.990   2.976   5.138
  106SOL    HW1 2215   8.992   3.043   5.206
  106SOL    HW2 2216   8.901   2.979   5.104
  107SOL     OW 2217  12.204   4.910   7.464
  107SOL    HW1 2218  12.160   4.934   7.545
  107SOL    HW2 2219  12.214   4.815   7.468
  108SOL     OW 2220  11.754   0.211   5.426
  108SOL    HW1 2221  11.800   0.179   5.503
  108SOL    HW2 2222  11.698   0.137   5.399
  109SOL     OW 2223   4.909   7.134   2.862
  109SOL    HW1 2224   4.992   7.131   2.814
  109SOL    HW2 2225   4.927   7.090   2.945
  110SOL     OW 2226   9.795  10.510   5.092
  110SOL    HW1 2227   9.742  10.486   5.016
  110SOL    HW2 2228   9.786  10.437   5.152
  111SOL     OW 2229   3.589   1.928   5.710
  111SOL    HW1 2230   3.658   1.916   5.644
  111SOL    HW2 2231   3.610   1.864   5.778
  112SOL     OW 2232   8.158   2.086   2.616
  112SOL    HW1 2233   8.134   2.147   2.686
  112SOL    HW2 2234   8.245   2.055   2.641
  113SOL     OW 2235  12.246   6.562   8.114
  113SOL    HW1 2236  12.258   6.641   8.061
  113SOL    HW2 2237  12.220   6.495   8.051
  114SOL     OW 2238   3.842   6.401  13.001
  114SOL    HW1 2239   3.849   6.478  12.945
  114SOL    HW2 2240   3.770   6.350  12.964
  115SOL     OW 2241  10.656   7.197   3.731
  115SOL    HW1 2242  10.579   7.218   3.677
  115SOL    HW2 2243  10.715   7.272   3.718
  116SOL     OW 2244   4.075   0.992   7.558
  116SOL    HW1 2245   4.144   1.027   7.500
  116SOL    HW2 2246   4.021   0.938   7.500
  117SOL     OW 2247   6.826  12.506   5.358
  117SOL    HW1 2248   6.820  12.521   5.264
  117SOL    HW2 2249   6.774  12.576   5.397
  118SOL     OW 2250   4.559   7.166   3.279
  118SOL    HW1 2251   4.593   7.087   3.239
  118SOL    HW2 2252   4.597   7.167   3.367
  119SOL     OW 2253   0.397   3.887  10.256
  119SOL    HW1 2254   0.440   3.908  10.339
  119SOL    HW2 2255   0.356   3.802  10.272
  120SOL     OW 2256   2.897   1.589   9.251
  120SOL    HW1 2257   2.875   1.496   9.247
  120SOL    HW2 2258   2.833   1.626   9.311
  121SOL     OW 2259   8.153  12.802   1.026
  121SOL    HW1 2260   8.129  12.778   1.115
  121SOL    HW2 2261   8.239  12.843   1.034
  122SOL     OW 2262  10.135  10.776   4.396
  122SOL    HW1 2263  10.227  10.797   4.412
  122SOL    HW2 2264  10.089  10.860   4.402
  123SOL     OW 2265  13.068  12.162  13.597
  123SOL    HW1 2266  13.042  12.249  13.629
  123SOL    HW2 2267  13.162  12.170  13.583
  124SOL     OW 2268   3.849  10.555   0.262
  124SOL    HW1 2269   3.884  10.467   0.276
  124SOL    HW2 2270   3.895  10.587   0.185
  125SOL     OW 2271   0.148   0.895  13.830
  125SOL    HW1 2272   0.204   0.886  13.906
  125SOL    HW2 2273   0.118   0.986  13.833
  126SOL     OW 2274   4.832  14.670   2.513
  126SOL    HW1 2275   4.795  14.693   2.598
  126SOL    HW2 2276   4.916  14.716   2.510
  127SOL     OW 2277   5.594  10.450   8.182
  127SOL    HW1 2278   5.623  10.447   8.273
  127SOL    HW2 2279   5.507  10.412   8.182
  128SOL     OW 2280  10.238   0.779  14.172
  128SOL    HW1 2281  10.159   0.797  14.224
  128SOL    HW2 2282  10.311   0.801  14.231
  129SOL     OW 2283  11.693  13.228  12.693
  129SOL    HW1 2284  11.741  13.265  12.619
  129SOL    HW2 2285  11.603  13.259  12.681
  130SOL     OW 2286   5.797   3.649  12.936
  130SOL    HW1 2287   5.865   3.618  12.876
  130SOL    HW2 2288   5.821   3.740  12.955
  131SOL     OW 2289   3.928   0.213   7.923
  131SOL    HW1 2290   4.000   0.269   7.896
  131SOL    HW2 2291   3.905   0.164   7.845
  132SOL     OW 2292  13.071   4.889   1.670
  132SOL    HW1 2293  13.054   4.817   1.731
  132SOL    HW2 2294  13.131   4.851   1.605
  133SOL     OW 2295   2.798   4.791   1.825
  133SOL    HW1 2296   2.797   4.698   1.847
  133SOL    HW2 2297   2.873   4.826   1.874
  134SOL     OW 2298   3.959   5.019   3.598
  134SOL    HW1 2299   4.016   4.971   3.657
  134SOL    HW2 2300   3.973   4.978   3.512
  135SOL     OW 2301   1.656   2.918   5.732
  135SOL    HW1 2302   1.708   2.924   5.652
  135SOL    HW2 2303   1.637   3.009   5.755
  136SOL     OW 2304  10.999   9.120  10.023
  136SOL    HW1 2305  10.950   9.043   9.995
  136SOL    HW2 2306  11.038   9.154   9.942
  137SOL     OW 2307  13.549  11.874   4.180
  137SOL    HW1 2308  13.554  11.967   4.205
  137SOL    HW2 2309  13.517  11.876   4.090
  138SOL     OW 2310   8.487   5.564   9.717
  138SOL    HW1 2311   8.581   5.576   9.723
  138SOL    HW2 2312   8.474   5.514   9.636
  139SOL     OW 2313  11.032   5.089   2.088
  139SOL    HW1 2314  11.087   5.164   2.110
  139SOL    HW2 2315  10.948   5.109   2.127
  140SOL     OW 2316  13.936   4.436   2.512
  140SOL    HW1 2317  14.027   4.460   2.528
  140SOL    HW2 2318  13.933   4.341   2.522
  141SOL     OW 2319  11.191   2.943  13.354
  141SOL    HW1 2320  11.151   2.945  13.267
  141SOL    HW2 2321  11.155   2.864  13.395
  142SOL     OW 2322  10.062   4.075   7.578
  142SOL    HW1 2323  10.145   4.084   7.533
  142SOL    HW2 2324  10.077   4.005   7.642
  143SOL     OW 2325   5.807  10.939  12.766
  143SOL    HW1 2326   5.793  10.969  12.856
  143SOL    HW2 2327   5.729  10.970  12.719
  144SOL     OW 2328   1.530  11.374   4.968
  144SOL    HW1 2329   1.484  11.451   4.935
  144SOL    HW2 2330   1.531  11.313   4.894
  145SOL     OW 2331  13.363  11.007   5.161
  145SOL    HW1 2332  13.425  10.967   5.222
  145SOL    HW2 2333  13.364  10.948   5.085
  146SOL     OW 2334  13.620   0.522   9.087
  146SOL    HW1 2335  13.605   0.580   9.161
  146SOL    HW2 2336  13.593   0.573   9.010
  147SOL     OW 2337   6.997   4.213   4.605
  147SOL    HW1 2338   7.043   4.186   4.526
  147SOL    HW2 2339   7.043   4.292   4.634
  148SOL     OW 2340   0.522   3.962   9.712
  148SOL    HW1 2341   0.497   3.871   9.731
  148SOL    HW2 2342   0.452   3.996   9.658
  149SOL     OW 2343   5.026   2.644   5.305
  149SOL    HW1 2344   5.111   2.687   5.291
  149SOL    HW2 2345   4.977   2.705   5.360
  150SOL     OW 2346   8.989   9.675   1.306
  150SOL    HW1 2347   8.960   9.604   1.363
  150SOL    HW2 2348   8.908   9.708   1.267
  151SOL     OW 2349  10.148   4.114   2.690
  151SOL    HW1 2350  10.066   4.127   2.738
  151SOL    HW2 2351  10.168   4.021   2.702
  152SOL     OW 2352  14.718   8.427   1.773
  152SOL    HW1 2353  14.745   8.461   1.688
  152SOL    HW2 2354  14.641   8.479   1.796
  153SOL     OW 2355   7.619   3.131   2.879
  153SOL    HW1 2356   7.563   3.197   2.920
  153SOL    HW2 2357   7.674   3.181   2.819
  154SOL     OW 2358  13.182  10.402   6.105
  154SOL    HW1 2359  13.150  10.466   6.042
  154SOL    HW2 2360  13.179  10.447   6.189
  155SOL     OW 2361   9.713   5.018  10.066
  155SOL    HW1 2362   9.618   5.031  10.065
  155SOL    HW2 2363   9.742   5.046   9.980
  156SOL     OW 2364   3.417   2.397  12.614
  156SOL    HW1 2365   3.512   2.390  12.607
  156SOL    HW2 2366   3.399   2.491  12.610
  157SOL     OW 2367   2.356   9.908   1.550
  157SOL    HW1 2368   2.372   9.936   1.460
  157SOL    HW2 2369   2.386   9.982   1.604
  158SOL     OW 2370   8.579  11.618   7.986
  158SOL    HW1 2371   8.486  11.602   7.972
  158SOL    HW2 2372   8.594  11.590   8.077
  159SOL     OW 2373  10.170  12.388  11.456
  159SOL    HW1 2374  10.213  12.312  11.416
  159SOL    HW2 2375  10.114  12.351  11.524
  160SOL     OW 2376   7.328  11.840   4.949
  160SOL    HW1 2377   7.299  11.921   4.992
  160SOL    HW2 2378   7.391  11.802   5.010
  161SOL     OW 2379  12.491   9.838   7.973
  161SOL    HW1 2380  12.488   9.808   7.882
  161SOL    HW2 2381  12.574   9.803   8.007
  162SOL     OW 2382   3.093   2.549  12.054
  162SOL    HW1 2383   3.072   2.606  12.127
  162SOL    HW2 2384   3.140   2.605  11.992
  163SOL     OW 2385  12.070   1.641   2.417
  163SOL    HW1 2386  12.116   1.681   2.490
  163SOL    HW2 2387  12.096   1.549   2.420
  164SOL     OW 2388  13.091  10.990   8.780
  164SOL    HW1 2389  13.170  11.015   8.733
  164SOL    HW2 2390  13.118  10.916   8.835
  165SOL     OW 2391   5.256   5.020  14.275
  165SOL    HW1 2392   5.241   5.102  14.322
  165SOL    HW2 2393   5.273   4.956  14.344
  166SOL     OW 2394  13.662   4.261   9.650
  166SOL    HW1 2395  13.611   4.249   9.730
  166SOL    HW2 2396  13.681   4.172   9.620
  167SOL     OW 2397  14.074  13.385  14.612
  167SOL    HW1 2398  14.031  13.302  14.591
  167SOL    HW2 2399  14.009  13.434  14.662
  168SOL     OW 2400  13.055   4.063  13.331
  168SOL    HW1 2401  13.055   4.027  13.242
  168SOL    HW2 2402  13.073   4.156  13.319
  169SOL     OW 2403  13.244   8.646   6.707
  169SOL    HW1 2404  13.339   8.654   6.697
  169SOL    HW2 2405  13.213   8.737   6.700
  170SOL     OW 2406   8.761   4.156   9.508
  170SOL    HW1 2407   8.785   4.234   9.459
  170SOL    HW2 2408   8.844   4.114   9.530
  171SOL     OW 2409   9.709   2.509   0.600
  171SOL    HW1 2410   9.679   2.546   0.517
  171SOL    HW2 2411   9.693   2.578   0.664
  172SOL     OW 2412   1.604   8.890   1.307
  172SOL    HW1 2413   1.545   8.883   1.232
  172SOL    HW2 2414   1.650   8.806   1.310
  173SOL     OW 2415   9.274   4.016   3.765
  173SOL    HW1 2416   9.367   4.037   3.753
  173SOL    HW2 2417   9.228   4.096   3.740
  174SOL     OW 2418   4.370   8.976   8.515
  174SOL    HW1 2419   4.390   9.060   8.555
  174SOL    HW2 2420   4.420   8.912   8.565
  175SOL     OW 2421   7.586   8.538  10.953
  175SOL    HW1 2422   7.603   8.593  11.029
  175SOL    HW2 2423   7.670   8.531  10.908
  176SOL     OW 2424   5.409   0.970  13.964
  176SOL    HW1 2425   5.318   0.966  13.933
  176SOL    HW2 2426   5.409   0.919  14.045
  177SOL     OW 2427   2.582   1.169  13.932
  177SOL    HW1 2428   2.658   1.112  13.942
  177SOL    HW2 2429   2.550   1.151  13.844
  178SOL     OW 2430   5.172   0.471   4.324
  178SOL    HW1 2431   5.234   0.479   4.396
  178SOL    HW2 2432   5.224   0.440   4.250
  179SOL     OW 2433   7.998   3.448  12.184
  179SOL    HW1 2434   8.040   3.447  12.098
  179SOL    HW2 2435   8.027   3.530  12.224
  180SOL     OW 2436  12.211   9.508   6.772
  180SOL    HW1 2437  12.273   9.454   6.821
  180SOL    HW2 2438  12.193   9.458   6.692
  181SOL     OW 2439   5.369   6.690   7.219
  181SOL    HW1 2440   5.420   6.653   7.147
  181SOL    HW2 2441   5.402   6.779   7.229
  182SOL     OW 2442   8.007   6.100   4.702
  182SOL    HW1 2443   8.014   6.040   4.627
  182SOL    HW2 2444   7.940   6.061   4.758
  183SOL     OW 2445   3.804   0.017   1.408
  183SOL    HW1 2446   3.810  14.817   1.460
  183SOL    HW2 2447   3.895   0.040   1.389
  184SOL     OW 2448  12.462   4.189   1.150
  184SOL    HW1 2449  12.551   4.155   1.149
  184SOL    HW2 2450  12.465   4.267   1.095
  185SOL     OW 2451   5.761   1.558   6.942
  185SOL    HW1 2452   5.786   1.589   7.029
  185SOL    HW2 2453   5.792   1.467   6.939
  186SOL     OW 2454   9.342   9.937   4.305
  186SOL    HW1 2455   9.437   9.923   4.307
  186SOL    HW2 2456   9.306   9.861   4.351
  187SOL     OW 2457   3.650   2.186  12.673
  187SOL    HW1 2458   3.690   2.249  12.612
  187SOL    HW2 2459   3.724   2.134  12.705
  188SOL     OW 2460  12.955   7.018   0.225
  188SOL    HW1 2461  12.918   7.002   0.138
  188SOL    HW2 2462  12.890   6.983   0.286
  189SOL     OW 2463   8.887   9.510  14.205
  189SOL    HW1 2464   8.804   9.501  14.253
  189SOL    HW2 2465   8.898   9.605  14.194
  190SOL     OW 2466  12.640  13.583   9.336
  190SOL    HW1 2467  12.593  13.518   9.389
  190SOL    HW2 2468  12.732  13.557   9.341
  191SOL     OW 2469   0.659   8.902   5.209
  191SOL    HW1 2470   0.742   8.877   5.170
  191SOL    HW2 2471   0.623   8.819   5.243
  192SOL     OW 2472  13.564   9.897   8.144
  192SOL    HW1 2473  13.491   9.835   8.137
  192SOL    HW2 2474  13.581   9.903   8.238
  193SOL     OW 2475   9.225   8.625   2.016
  193SOL    HW1 2476   9.231   8.600   1.924
  193SOL    HW2 2477   9.140   8.592   2.045
  194SOL     OW 2478  11.021   4.927  14.837
  194SOL    HW1 2479  11.093   4.980  14.803
  194SOL    HW2 2480  10.964   4.913  14.762
  195SOL     OW 2481  13.793   6.142  10.841
  195SOL    HW1 2482  13.868   6.165  10.897
  195SOL    HW2 2483  13.830   6.087  10.773
  196SOL     OW 2484   7.260   5.483  13.180
  196SOL    HW1 2485   7.179   5.510  13.137
  196SOL    HW2 2486   7.300   5.565  13.208
  197SOL     OW 2487   5.362   1.405   3.575
  197SOL    HW1 2488   5.341   1.496   3.599
  197SOL    HW2 2489   5.420   1.413   3.499
  198SOL     OW 2490  14.734   5.163  13.745
  198SOL    HW1 2491  14.642   5.156  13.769
  198SOL    HW2 2492  14.779   5.180  13.828
  199SOL     OW 2493  14.551  12.026   3.054
  199SOL    HW1 2494  14.469  11.991   3.086
  199SOL    HW2 2495  14.586  11.957   2.997
  200SOL     OW 2496   4.607  13.097   0.223
  200SOL    HW1 2497   4.581  13.158   0.153
  200SOL    HW2 2498   4.693  13.065   0.196
  201SOL     OW 2499   2.208  13.485   7.400
  201SOL    HW1 2500   2.139  13.453   7.341
  201SOL    HW2 2501   2.210  13.420   7.470
  202SOL     OW 2502   3.757   4.751  12.263
  202SOL    HW1 2503   3.716   4.665  12.264
  202SOL    HW2 2504   3.814   4.750  12.186
  203SOL     OW 2505   7.198  10.854   1.229
  203SOL    HW1 2506   7.182  10.902   1.148
  203SOL    HW2 2507   7.177  10.763   1.207
  204SOL     OW 2508   5.637   0.493   0.942
  204SOL    HW1 2509   5.558   0.547   0.934
  204SOL    HW2 2510   5.613   0.424   1.004
  205SOL     OW 2511   0.116   0.912   1.621
  205SOL    HW1 2512   0.062   0.913   1.700
  205SOL    HW2 2513   0.107   1.000   1.585
  206SOL     OW 2514  13.320  12.594  10.193
  206SOL    HW1 2515  13.358  12.512  10.163
  206SOL    HW2 2516  13.251  12.613  10.130
  207SOL     OW 2517   9.627   7.699   5.800
  207SOL    HW1 2518   9.582   7.658   5.726
  207SOL    HW2 2519   9.608   7.642   5.875
  208SOL     OW 2520   2.561   7.597  13.817
  208SOL    HW1 2521   2.495   7.561  13.757
  208SOL    HW2 2522   2.644   7.587  13.770
  209SOL     OW 2523   0.823   8.218   7.745
  209SOL    HW1 2524   0.867   8.302   7.760
  209SOL    HW2 2525   0.745   8.241   7.695
  210SOL     OW 2526  10.681  10.169   2.319
  210SOL    HW1 2527  10.753  10.107   2.332
  210SOL    HW2 2528  10.723  10.254   2.313
  211SOL     OW 2529  13.846  10.261   3.826
  211SOL    HW1 2530  13.772  10.254   3.765
  211SOL    HW2 2531  13.904  10.189   3.803
  212SOL     OW 2532   8.386  14.735  12.495
  212SOL    HW1 2533   8.418  14.706  12.410
  212SOL    HW2 2534   8.426  14.675  12.557
  213SOL     OW 2535   6.316  14.340  14.694
  213SOL    HW1 2536   6.236  14.351  14.744
  213SOL    HW2 2537   6.306  14.399  14.619
  214SOL     OW 2538   6.596   7.552  10.198
  214SOL    HW1 2539   6.649   7.599  10.133
  214SOL    HW2 2540   6.569   7.620  10.260
  215SOL     OW 2541   9.118   0.975   4.059
  215SOL    HW1 2542   9.212   0.963   4.050
  215SOL    HW2 2543   9.108   1.048   4.120
  216SOL     OW 2544   5.998   5.492   9.172
  216SOL    HW1 2545   5.958   5.433   9.236
  216SOL    HW2 2546   6.092   5.476   9.180
  217SOL     OW 2547  10.609  13.809   4.893
  217SOL    HW1 2548  10.648  13.897   4.894
  217SOL    HW2 2549  10.625  13.776   4.805
  218SOL     OW 2550  13.966  13.562  10.063
  218SOL    HW1 2551  13.964  13.643  10.113
  218SOL    HW2 2552  14.028  13.506  10.109
  219SOL     OW 2553   0.462   1.157  12.419
  219SOL    HW1 2554   0.516   1.094  12.468
  219SOL    HW2 2555   0.433   1.109  12.342
  220SOL     OW 2556   3.198  12.446   3.594
  220SOL    HW1 2557   3.226  12.363   3.633
  220SOL    HW2 2558   3.193  12.428   3.500
  221SOL     OW 2559  12.523   5.090   1.725
  221SOL    HW1 2560  12.438   5.113   1.763
  221SOL    HW2 2561  12.581   5.078   1.801
  222SOL     OW 2562   0.153   5.879   6.917
  222SOL    HW1 2563   0.157   5.961   6.868
  222SOL    HW2 2564   0.067   5.843   6.897
  223SOL     OW 2565   3.262   3.851   0.266
  223SOL    HW1 2566   3.195   3.811   0.210
  223SOL    HW2 2567   3.272   3.939   0.231
  224SOL     OW 2568   9.612   7.311   4.912
  224SOL    HW1 2569   9.584   7.225   4.946
  224SOL    HW2 2570   9.611   7.300   4.817
  225SOL     OW 2571   0.909   0.081  14.012
  225SOL    HW1 2572   0.861   0.088  14.095
  225SOL    HW2 2573   0.965   0.159  14.009
  226SOL     OW 2574   7.714  11.173   6.223
  226SOL    HW1 2575   7.783  11.167   6.289
  226SOL    HW2 2576   7.645  11.224   6.265
  227SOL     OW 2577  14.690   4.828   6.556
  227SOL    HW1 2578  14.646   4.879   6.624
  227SOL    HW2 2579  14.674   4.877   6.475
  228SOL     OW 2580  10.917  11.809   3.983
  228SOL    HW1 2581  10.993  11.752   3.975
  228SOL    HW2 2582  10.845  11.750   4.008
  229SOL     OW 2583   8.398   2.348  14.102
  229SOL    HW1 2584   8.447   2.362  14.021
  229SOL    HW2 2585   8.452   2.387  14.170
  230SOL     OW 2586   7.368   9.896   2.235
  230SOL    HW1 2587   7.276   9.918   2.226
  230SOL    HW2 2588   7.377   9.810   2.194
  231SOL     OW 2589   8.120   6.828   0.239
  231SOL    HW1 2590   8.094   6.835   0.331
  231SOL    HW2 2591   8.202   6.778   0.241
  232SOL     OW 2592  13.490   2.448   2.564
  232SOL    HW1 2593  13.411   2.501   2.572
  232SOL    HW2 2594  13.547   2.480   2.635
  233SOL     OW 2595  10.678   5.487   4.454
  233SOL    HW1 2596  10.597   5.488   4.505
  233SOL    HW2 2597  10.748   5.487   4.519
  234SOL     OW 2598  14.242   3.920   6.633
  234SOL    HW1 2599  14.150   3.947   6.642
  234SOL    HW2 2600  14.236   3.827   6.609
  235SOL     OW 2601   2.185   1.323   9.920
  235SOL    HW1 2602   2.156   1.240   9.958
  235SOL    HW2 2603   2.149   1.323   9.832
  236SOL     OW 2604   4.063   2.941  13.343
  236SOL    HW1 2605   4.105   2.885  13.277
  236SOL    HW2 2606   3.971   2.914  13.341
  237SOL     OW 2607   2.792   5.550  12.354
  237SOL    HW1 2608   2.822   5.499  12.429
  237SOL    HW2 2609   2.723   5.496  12.315
  238SOL     OW 2610  11.078   8.214   2.225
  238SOL    HW1 2611  11.022   8.173   2.160
  238SOL    HW2 2612  11.022   8.226   2.301
  239SOL     OW 2613   6.876  13.945   0.717
  239SOL    HW1 2614   6.947  13.944   0.653
  239SOL    HW2 2615   6.802  13.906   0.671
  240SOL     OW 2616   1.091  14.615   1.617
  240SOL    HW1 2617   1.147  14.541   1.637
  240SOL    HW2 2618   1.003  14.586   1.641
  241SOL     OW 2619  11.547  11.555   4.492
  241SOL    HW1 2620  11.578  11.626   4.436
  241SOL    HW2 2621  11.597  11.564   4.574
  242SOL     OW 2622   7.885   2.479   2.250
  242SOL    HW1 2623   7.936   2.550   2.288
  242SOL    HW2 2624   7.844   2.517   2.173
  243SOL     OW 2625   5.112   3.169   2.489
  243SOL    HW1 2626   5.116   3.204   2.578
  243SOL    HW2 2627   5.019   3.155   2.472
  244SOL     OW 2628   9.461  12.530   7.978
  244SOL    HW1 2629   9.492  12.439   7.974
  244SOL    HW2 2630   9.521  12.578   7.921
  245SOL     OW 2631  11.992   7.755   5.772
  245SOL    HW1 2632  11.957   7.673   5.737
  245SOL    HW2 2633  11.944   7.823   5.725
  246SOL     OW 2634  13.355   4.091  13.946
  246SOL    HW1 2635  13.432   4.097  13.889
  246SOL    HW2 2636  13.295   4.032  13.899
  247SOL     OW 2637  13.033   9.725   6.038
  247SOL    HW1 2638  13.000   9.745   5.951
  247SOL    HW2 2639  13.127   9.745   6.034
  248SOL     OW 2640   8.145   8.067  12.034
  248SOL    HW1 2641   8.159   7.973  12.038
  248SOL    HW2 2642   8.085   8.080  11.961
  249SOL     OW 2643   4.765   6.996   8.871
  249SOL    HW1 2644   4.765   6.927   8.805
  249SOL    HW2 2645   4.852   7.037   8.862
  250SOL     OW 2646   1.236   6.046   3.081
  250SOL    HW1 2647   1.330   6.034   3.097
  250SOL    HW2 2648   1.231   6.105   3.006
  251SOL     OW 2649  14.138   8.905   5.275
  251SOL    HW1 2650  14.057   8.854   5.274
  251SOL    HW2 2651  14.185   8.876   5.197
  252SOL     OW 2652   1.860   7.505  10.480
  252SOL    HW1 2653   1.790   7.566  10.502
  252SOL    HW2 2654   1.820   7.418  10.488
  253SOL     OW 2655   4.459  14.157   6.180
  253SOL    HW1 2656   4.527  14.188   6.240
  253SOL    HW2 2657   4.380  14.152   6.234
  254SOL     OW 2658   9.154   6.887  14.198
  254SOL    HW1 2659   9.126   6.971  14.234
  254SOL    HW2 2660   9.240   6.905  14.161
  255SOL     OW 2661  11.306   7.312   5.682
  255SOL    HW1 2662  11.327   7.231   5.635
  255SOL    HW2 2663  11.245   7.285   5.750
  256SOL     OW 2664  13.631   5.493   5.039
  256SOL    HW1 2665  13.657   5.406   5.067
  256SOL    HW2 2666  13.618   5.485   4.944
  257SOL     OW 2667   4.107   7.695   4.074
  257SOL    HW1 2668   4.150   7.705   4.159
  257SOL    HW2 2669   4.021   7.734   4.085
  258SOL     OW 2670  10.011   7.028   2.903
  258SOL    HW1 2671  10.000   7.103   2.961
  258SOL    HW2 2672  10.079   7.055   2.842
  259SOL     OW 2673  12.878   7.613   6.561
  259SOL    HW1 2674  12.915   7.692   6.521
  259SOL    HW2 2675  12.947   7.580   6.618
  260SOL     OW 2676   8.438   1.356  11.687
  260SOL    HW1 2677   8.477   1.284  11.737
  260SOL    HW2 2678   8.435   1.429  11.749
  261SOL     OW 2679   4.985  14.649   6.174
  261SOL    HW1 2680   5.007  14.665   6.083
  261SOL    HW2 2681   5.052  14.697   6.224
  262SOL     OW 2682   5.168  11.998   5.704
  262SOL    HW1 2683   5.262  12.011   5.721
  262SOL    HW2 2684   5.136  11.956   5.784
  263SOL     OW 2685   4.306   0.949   2.672
  263SOL    HW1 2686   4.374   0.945   2.605
  263SOL    HW2 2687   4.291   0.857   2.696
  264SOL     OW 2688  14.595   2.315   7.186
  264SOL    HW1 2689  14.536   2.253   7.229
  264SOL    HW2 2690  14.635   2.363   7.258
  265SOL     OW 2691   9.354   8.028  13.593
  265SOL    HW1 2692   9.322   7.978  13.517
  265SOL    HW2 2693   9.282   8.026  13.655
  266SOL     OW 2694  11.747   7.886  13.588
  266SOL    HW1 2695  11.712   7.870  13.500
  266SOL    HW2 2696  11.800   7.809  13.608
  267SOL     OW 2697  13.971  11.223   6.562
  267SOL    HW1 2698  13.958  11.318   6.570
  267SOL    HW2 2699  14.065  11.210   6.580
  268SOL     OW 2700   3.442  13.775   0.676
  268SOL    HW1 2701   3.353  13.741   0.684
  268SOL    HW2 2702   3.460  13.774   0.582
  269SOL     OW 2703  10.476   4.173  12.913
  269SOL    HW1 2704  10.417   4.238  12.875
  269SOL    HW2 2705  10.563   4.200  12.884
  270SOL     OW 2706  13.759   8.312   6.956
  270SOL    HW1 2707  13.854   8.319   6.949
  270SOL    HW2 2708  13.740   8.219   6.941
  271SOL     OW 2709  12.008   2.787   9.528
  271SOL    HW1 2710  11.959   2.765   9.607
  271SOL    HW2 2711  11.945   2.780   9.457
  272SOL     OW 2712  10.411   5.554  10.955
  272SOL    HW1 2713  10.391   5.569  10.863
  272SOL    HW2 2714  10.478   5.620  10.976
  273SOL     OW 2715   4.930   6.960   3.092
  273SOL    HW1 2716   4.982   7.031   3.130
  273SOL    HW2 2717   4.926   6.893   3.161
  274SOL     OW 2718   7.197  13.243   0.134
  274SOL    HW1 2719   7.258  13.261   0.062
  274SOL    HW2 2720   7.230  13.296   0.206
  275SOL     OW 2721   3.105   6.963   9.008
  275SOL    HW1 2722   3.182   6.992   8.960
  275SOL    HW2 2723   3.128   6.975   9.101
  276SOL     OW 2724  14.228  10.808  11.773
  276SOL    HW1 2725  14.230  10.713  11.764
  276SOL    HW2 2726  14.146  10.834  11.731
  277SOL     OW 2727   8.285   6.043   0.511
  277SOL    HW1 2728   8.191   6.059   0.517
  277SOL    HW2 2729   8.293   5.964   0.457
  278SOL     OW 2730   5.020  14.397   4.827
  278SOL    HW1 2731   5.025  14.302   4.816
  278SOL    HW2 2732   5.096  14.419   4.883
  279SOL     OW 2733   0.741  12.035   7.958
  279SOL    HW1 2734   0.737  12.002   8.048
  279SOL    HW2 2735   0.650  12.043   7.931
  280SOL     OW 2736   6.439  13.421   0.244
  280SOL    HW1 2737   6.517  13.458   0.286
  280SOL    HW2 2738   6.388  13.497   0.218
  281SOL     OW 2739   4.426  13.393   3.078
  281SOL    HW1 2740   4.397  13.302   3.071
  281SOL    HW2 2741   4.460  13.414   2.991
  282SOL     OW 2742  11.950   9.732   5.617
  282SOL    HW1 2743  11.966   9.770   5.531
  282SOL    HW2 2744  11.865   9.767   5.643
  283SOL     OW 2745  12.418  11.305  11.421
  283SOL    HW1 2746  12.393  11.279  11.509
  283SOL    HW2 2747  12.501  11.259  11.405
  284SOL     OW 2748   1.469   0.183   7.377
  284SOL    HW1 2749   1.401   0.212   7.316
  284SOL    HW2 2750   1.459   0.240   7.453
  285SOL     OW 2751   3.578   9.211  14.081
  285SOL    HW1 2752   3.664   9.179  14.052
  285SOL    HW2 2753   3.579   9.199  14.176
  286SOL     OW 2754   9.457  13.145   5.766
  286SOL    HW1 2755   9.491  13.084   5.832
  286SOL    HW2 2756   9.535  13.182   5.725
  287SOL     OW 2757  11.019   8.320   6.518
  287SOL    HW1 2758  10.963   8.291   6.590
  287SOL    HW2 2759  11.090   8.368   6.561
  288SOL     OW 2760   2.652   5.393   0.084
  288SOL    HW1 2761   2.727   5.369   0.138
  288SOL    HW2 2762   2.616   5.471   0.127
  289SOL     OW 2763   7.303   7.728   8.089
  289SOL    HW1 2764   7.254   7.801   8.051
  289SOL    HW2 2765   7.337   7.762   8.172
  290SOL     OW 2766  13.919   9.255  12.719
  290SOL    HW1 2767  13.886   9.175  12.761
  290SOL    HW2 2768  13.885   9.326  12.773
  291SOL     OW 2769  11.179   6.303  10.202
  291SOL    HW1 2770  11.158   6.396  10.196
  291SOL    HW2 2771  11.270   6.300  10.232
  292SOL     OW 2772   6.372   1.154   5.487
  292SOL    HW1 2773   6.297   1.102   5.518
  292SOL    HW2 2774   6.398   1.111   5.405
  293SOL     OW 2775   1.633  13.882  11.169
  293SOL    HW1 2776   1.680  13.889  11.252
  293SOL    HW2 2777   1.698  13.845  11.108
  294SOL     OW 2778   3.599   9.257   5.232
  294SOL    HW1 2779   3.592   9.162   5.228
  294SOL    HW2 2780   3.693   9.274   5.243
  295SOL     OW 2781   0.355  12.295  13.879
  295SOL    HW1 2782   0.394  12.209  13.894
  295SOL    HW2 2783   0.263  12.284  13.901
  296SOL     OW 2784   4.559   1.536   5.565
  296SOL    HW1 2785   4.517   1.619   5.544
  296SOL    HW2 2786   4.497   1.470   5.533
  297SOL     OW 2787  12.207  14.846   7.924
  297SOL    HW1 2788  12.136  14.826   7.864
  297SOL    HW2 2789  12.187  14.796   8.003
  298SOL     OW 2790  13.536  10.372   2.773
  298SOL    HW1 2791  13.578  10.408   2.851
  298SOL    HW2 2792  13.560  10.279   2.773
  299SOL     OW 2793   9.665   7.861   7.613
  299SOL    HW1 2794   9.740   7.899   7.567
  299SOL    HW2 2795   9.638   7.787   7.560
  300SOL     OW 2796   2.266   3.825  12.957
  300SOL    HW1 2797   2.335   3.768  12.922
  300SOL    HW2 2798   2.301   3.857  13.040
  301SOL     OW 2799   6.678   3.957   2.153
  301SOL    HW1 2800   6.765   3.970   2.191
  301SOL    HW2 2801   6.677   3.866   2.125
  302SOL     OW 2802   6.667   9.064   3.451
  302SOL    HW1 2803   6.646   9.157   3.435
  302SOL    HW2 2804   6.742   9.066   3.511
  303SOL     OW 2805   7.469   4.882   9.664
  303SOL    HW1 2806   7.457   4.788   9.658
  303SOL    HW2 2807   7.554   4.898   9.623
  304SOL     OW 2808  10.913  12.870   7.832
  304SOL    HW1 2809  10.930  12.871   7.738
  304SOL    HW2 2810  10.975  12.806   7.868
  305SOL     OW 2811   9.014  12.067  14.468
  305SOL    HW1 2812   8.971  11.993  14.424
  305SOL    HW2 2813   9.027  12.037  14.558
  306SOL     OW 2814   2.103   5.069   5.526
  306SOL    HW1 2815   2.066   5.134   5.466
  306SOL    HW2 2816   2.038   5.061   5.595
  307SOL     OW 2817  11.816   1.727   3.706
  307SOL    HW1 2818  11.888   1.740   3.768
  307SOL    HW2 2819  11.832   1.640   3.669
  308SOL     OW 2820   4.246   0.966  10.589
  308SOL    HW1 2821   4.248   0.941  10.681
  308SOL    HW2 2822   4.241   0.883  10.542
  309SOL     OW 2823   4.702   8.312   4.476
  309SOL    HW1 2824   4.788   8.330   4.514
  309SOL    HW2 2825   4.689   8.218   4.490
  310SOL     OW 2826   3.052   4.777  14.794
  310SOL    HW1 2827   2.957   4.768  14.806
  310SOL    HW2 2828   3.061   4.853  14.737
  311SOL     OW 2829  14.060  13.627  13.897
  311SOL    HW1 2830  14.148  13.598  13.875
  311SOL    HW2 2831  14.041  13.586  13.981
  312SOL     OW 2832  12.404  14.539  14.067
  312SOL    HW1 2833  12.498  14.536  14.086
  312SOL    HW2 2834  12.379  14.448  14.052
  313SOL     OW 2835  13.260   4.468   3.900
  313SOL    HW1 2836  13.317   4.393   3.918
  313SOL    HW2 2837  13.257   4.474   3.805
  314SOL     OW 2838  12.036  14.876  10.810
  314SOL    HW1 2839  12.032   0.057  10.736
  314SOL    HW2 2840  12.129  14.869  10.831
  315SOL     OW 2841   7.216   7.689   0.914
  315SOL    HW1 2842   7.290   7.746   0.935
  315SOL    HW2 2843   7.206   7.632   0.990
  316SOL     OW 2844  13.677  13.278   1.870
  316SOL    HW1 2845  13.595  13.316   1.903
  316SOL    HW2 2846  13.682  13.192   1.913
  317SOL     OW 2847  11.506   3.236   2.495
  317SOL    HW1 2848  11.527   3.328   2.476
  317SOL    HW2 2849  11.455   3.207   2.418
  318SOL     OW 2850  10.127   3.970   6.398
  318SOL    HW1 2851  10.047   3.987   6.347
  318SOL    HW2 2852  10.120   4.030   6.472
  319SOL     OW 2853  13.485   9.551   0.319
  319SOL    HW1 2854  13.459   9.476   0.265
  319SOL    HW2 2855  13.576   9.567   0.295
  320SOL     OW 2856  11.603   5.814  11.338
  320SOL    HW1 2857  11.609   5.791  11.245
  320SOL    HW2 2858  11.661   5.752  11.381
  321SOL     OW 2859   4.404   3.876   0.490
  321SOL    HW1 2860   4.321   3.888   0.536
  321SOL    HW2 2861   4.424   3.783   0.499
  322SOL     OW 2862  14.691  11.578   2.482
  322SOL    HW1 2863  14.697  11.580   2.386
  322SOL    HW2 2864  14.674  11.486   2.503
  323SOL     OW 2865  10.340   9.914   2.334
  323SOL    HW1 2866  10.406   9.931   2.401
  323SOL    HW2 2867  10.379   9.948   2.253
  324SOL     OW 2868   4.710  12.873   1.396
  324SOL    HW1 2869   4.634  12.928   1.375
  324SOL    HW2 2870   4.700  12.852   1.488
  325SOL     OW 2871   0.276  12.514   2.496
  325SOL    HW1 2872   0.339  12.503   2.567
  325SOL    HW2 2873   0.191  12.517   2.540
  326SOL     OW 2874   4.036   7.828  11.423
  326SOL    HW1 2875   4.045   7.791  11.335
  326SOL    HW2 2876   3.952   7.794  11.455
  327SOL     OW 2877   9.080   6.017  13.017
  327SOL    HW1 2878   9.051   6.105  13.039
  327SOL    HW2 2879   9.124   6.027  12.932
  328SOL     OW 2880   2.233   3.745   6.300
  328SOL    HW1 2881   2.254   3.812   6.365
  328SOL    HW2 2882   2.156   3.779   6.254
  329SOL     OW 2883   6.183   3.648   1.737
  329SOL    HW1 2884   6.275   3.665   1.757
  329SOL    HW2 2885   6.137   3.663   1.819
  330SOL     OW 2886  14.372   1.917   3.508
  330SOL    HW1 2887  14.334   1.869   3.582
  330SOL    HW2 2888  14.384   2.006   3.541
  331SOL     OW 2889  11.722   6.449  14.067
  331SOL    HW1 2890  11.667   6.467  13.991
  331SOL    HW2 2891  11.811   6.454  14.033
  332SOL     OW 2892   8.553   9.781  13.736
  332SOL    HW1 2893   8.533   9.694  13.702
  332SOL    HW2 2894   8.596   9.765  13.820
  333SOL     OW 2895   1.527  12.744   2.364
  333SOL    HW1 2896   1.584  12.670   2.385
  333SOL    HW2 2897   1.448  12.703   2.329
  334SOL     OW 2898   7.261   5.083   7.478
  334SOL    HW1 2899   7.341   5.121   7.514
  334SOL    HW2 2900   7.239   5.012   7.539
  335SOL     OW 2901  14.470   6.607  12.090
  335SOL    HW1 2902  14.508   6.521  12.106
  335SOL    HW2 2903  14.375   6.592  12.093
  336SOL     OW 2904   0.025   3.653   8.003
  336SOL    HW1 2905   0.013   3.679   7.911
  336SOL    HW2 2906   0.009   3.733   8.053
  337SOL     OW 2907  10.951   5.558  12.632
  337SOL    HW1 2908  10.861   5.526  12.637
  337SOL    HW2 2909  10.943   5.653  12.647
  338SOL     OW 2910   3.361   0.439   9.657
  338SOL    HW1 2911   3.293   0.375   9.638
  338SOL    HW2 2912   3.337   0.517   9.606
  339SOL     OW 2913   0.362  11.075   8.717
  339SOL    HW1 2914   0.315  10.998   8.686
  339SOL    HW2 2915   0.374  11.128   8.639
  340SOL     OW 2916  12.893  14.804  10.459
  340SOL    HW1 2917  12.861  14.810  10.549
  340SOL    HW2 2918  12.987  14.819  10.466
  341SOL     OW 2919   6.397  12.045   0.948
  341SOL    HW1 2920   6.420  12.114   0.885
  341SOL    HW2 2921   6.333  11.991   0.902
  342SOL     OW 2922  14.014  10.825  14.591
  342SOL    HW1 2923  14.094  10.879  14.595
  342SOL    HW2 2924  13.995  10.818  14.498
  343SOL     OW 2925   1.382  14.664   4.833
  343SOL    HW1 2926   1.300  14.654   4.786
  343SOL    HW2 2927   1.370  14.615   4.914
  344SOL     OW 2928  14.793  14.343   7.899
  344SOL    HW1 2929  14.734  14.348   7.824
  344SOL    HW2 2930  14.735  14.349   7.975
  345SOL     OW 2931   1.824  12.837  10.258
  345SOL    HW1 2932   1.796  12.789  10.336
  345SOL    HW2 2933   1.756  12.818  10.193
  346SOL     OW 2934   5.565   5.973   9.821
  346SOL    HW1 2935   5.657   5.975   9.792
  346SOL    HW2 2936   5.570   5.942   9.911
  347SOL     OW 2937   8.128  12.955   4.954
  347SOL    HW1 2938   8.166  13.013   4.887
  347SOL    HW2 2939   8.035  12.977   4.955
  348SOL     OW 2940   4.253  10.025   0.428
  348SOL    HW1 2941   4.266  10.007   0.335
  348SOL    HW2 2942   4.309   9.962   0.473
  349SOL     OW 2943   4.055   1.452   7.001
  349SOL    HW1 2944   3.985   1.469   6.937
  349SOL    HW2 2945   4.108   1.532   7.000
  350SOL     OW 2946   4.936   4.438   5.090
  350SOL    HW1 2947   4.968   4.357   5.051
  350SOL    HW2 2948   4.968   4.437   5.180
  351SOL     OW 2949   7.372  14.363   6.154
  351SOL    HW1 2950   7.361  14.449   6.196
  351SOL    HW2 2951   7.313  14.305   6.202
  352SOL     OW 2952   5.435   3.267   9.601
  352SOL    HW1 2953   5.426   3.232   9.513
  352SOL    HW2 2954   5.353   3.313   9.617
  353SOL     OW 2955   7.358  13.919   3.468
  353SOL    HW1 2956   7.429  13.935   3.529
  353SOL    HW2 2957   7.401  13.913   3.382
  354SOL     OW 2958   9.779   2.804   3.071
  354SOL    HW1 2959   9.717   2.866   3.032
  354SOL    HW2 2960   9.730   2.762   3.142
  355SOL     OW 2961   9.529  12.711   0.268
  355SOL    HW1 2962   9.576  12.712   0.352
  355SOL    HW2 2963   9.466  12.640   0.277
  356SOL     OW 2964  14.302  10.253  11.222
  356SOL    HW1 2965  14.266  10.327  11.271
  356SOL    HW2 2966  14.238  10.183  11.233
  357SOL     OW 2967  14.319   6.449   5.014
  357SOL    HW1 2968  14.283   6.522   4.965
  357SOL    HW2 2969  14.318   6.376   4.952
  358SOL     OW 2970  10.426   6.278   9.212
  358SOL    HW1 2971  10.452   6.232   9.132
  358SOL    HW2 2972  10.419   6.369   9.186
  359SOL     OW 2973   5.652   9.754   3.537
  359SOL    HW1 2974   5.564   9.779   3.508
  359SOL    HW2 2975   5.641   9.667   3.577
  360SOL     OW 2976  14.321   1.888   5.476
  360SOL    HW1 2977  14.367   1.804   5.476
  360SOL    HW2 2978  14.319   1.914   5.384
  361SOL     OW 2979  10.793   0.512   9.239
  361SOL    HW1 2980  10.717   0.532   9.185
  361SOL    HW2 2981  10.806   0.589   9.294
  362SOL     OW 2982  14.798   1.631   5.613
  362SOL    HW1 2983  14.875   1.643   5.559
  362SOL    HW2 2984  14.726   1.621   5.551
  363SOL     OW 2985   3.459   9.666   0.972
  363SOL    HW1 2986   3.387   9.718   1.008
  363SOL    HW2 2987   3.417   9.605   0.911
  364SOL     OW 2988   3.917   5.787   5.999
  364SOL    HW1 2989   3.956   5.701   5.985
  364SOL    HW2 2990   3.946   5.839   5.924
  365SOL     OW 2991   4.674   9.770   4.143
  365SOL    HW1 2992   4.592   9.727   4.120
  365SOL    HW2 2993   4.732   9.752   4.069
  366SOL     OW 2994   6.658  13.857   4.919
  366SOL    HW1 2995   6.650  13.886   5.010
  366SOL    HW2 2996   6.574  13.879   4.879
  367SOL     OW 2997   0.663  10.568  12.047
  367SOL    HW1 2998   0.722  10.508  12.001
  367SOL    HW2 2999   0.598  10.510  12.087
  368SOL     OW 3000  10.034   9.338   2.141
  368SOL    HW1 3001   9.976   9.331   2.065
  368SOL    HW2 3002  10.104   9.396   2.112
  369SOL     OW 3003   0.541  11.331  10.231
  369SOL    HW1 3004   0.537  11.328  10.135
  369SOL    HW2 3005   0.584  11.414  10.251
  370SOL     OW 3006   5.689  14.281  12.780
  370SOL    HW1 3007   5.659  14.367  12.810
  370SOL    HW2 3008   5.609  14.233  12.760
  371SOL     OW 3009   2.452   5.941   1.584
  371SOL    HW1 3010   2.387   5.931   1.653
  371SOL    HW2 3011   2.529   5.895   1.617
  372SOL     OW 3012  10.090   2.760   9.534
  372SOL    HW1 3013  10.040   2.738   9.455
  372SOL    HW2 3014  10.033   2.734   9.606
  373SOL     OW 3015   0.372   8.929   1.096
  373SOL    HW1 3016   0.445   8.868   1.088
  373SOL    HW2 3017   0.396   9.003   1.041
  374SOL     OW 3018   1.257   7.074   2.918
  374SOL    HW1 3019   1.174   7.078   2.966
  374SOL    HW2 3020   1.325   7.077   2.986
  375SOL     OW 3021   5.238   2.098   5.979
  375SOL    HW1 3022   5.264   2.135   6.064
  375SOL    HW2 3023   5.319   2.067   5.940
  376SOL     OW 3024   6.760  13.534   1.370
  376SOL    HW1 3025   6.816  13.471   1.416
  376SOL    HW2 3026   6.822  13.591   1.324
  377SOL     OW 3027   3.241  13.310   9.368
  377SOL    HW1 3028   3.313  13.263   9.411
  377SOL    HW2 3029   3.261  13.303   9.275
  378SOL     OW 3030   4.961  10.771  13.957
  378SOL    HW1 3031   4.970  10.862  13.929
  378SOL    HW2 3032   5.012  10.721  13.894
  379SOL     OW 3033  13.854   8.221  14.238
  379SOL    HW1 3034  13.760   8.237  14.232
  379SOL    HW2 3035  13.884   8.221  14.148
  380SOL     OW 3036  11.957   6.087   5.156
  380SOL    HW1 3037  11.886   6.058   5.213
  380SOL    HW2 3038  12.037   6.053   5.196
  381SOL     OW 3039  12.500   3.995  11.784
  381SOL    HW1 3040  12.563   3.931  11.818
  381SOL    HW2 3041  12.546   4.034  11.709
  382SOL     OW 3042   8.209   6.478  10.579
  382SOL    HW1 3043   8.276   6.413  10.559
  382SOL    HW2 3044   8.221   6.499  10.671
  383SOL     OW 3045  10.417   6.794   4.598
  383SOL    HW1 3046  10.430   6.828   4.687
  383SOL    HW2 3047  10.347   6.848   4.562
  384SOL     OW 3048   2.486  14.302   4.104
  384SOL    HW1 3049   2.481  14.381   4.157
  384SOL    HW2 3050   2.401  14.297   4.060
  385SOL     OW 3051   1.583  10.405   8.796
  385SOL    HW1 3052   1.562  10.327   8.847
  385SOL    HW2 3053   1.607  10.470   8.862
  386SOL     OW 3054  14.027  11.106   8.767
  386SOL    HW1 3055  13.997  11.079   8.853
  386SOL    HW2 3056  14.123  11.098   8.771
  387SOL     OW 3057   7.248  10.907   2.367
  387SOL    HW1 3058   7.200  10.879   2.290
  387SOL    HW2 3059   7.286  10.827   2.402
  388SOL     OW 3060  12.135   4.470   7.690
  388SOL    HW1 3061  12.122   4.470   7.785
  388SOL    HW2 3062  12.078   4.399   7.659
  389SOL     OW 3063   4.555   0.494   4.150
  389SOL    HW1 3064   4.464   0.507   4.125
  389SOL    HW2 3065   4.599   0.576   4.126
  390SOL     OW 3066   8.943   1.757  13.434
  390SOL    HW1 3067   8.884   1.826  13.404
  390SOL    HW2 3068   8.947   1.768  13.529
  391SOL     OW 3069   5.849  13.497   0.346
  391SOL    HW1 3070   5.856  13.475   0.253
  391SOL    HW2 3071   5.756  13.518   0.359
  392SOL     OW 3072   3.315   8.857   1.499
  392SOL    HW1 3073   3.270   8.824   1.422
  392SOL    HW2 3074   3.374   8.925   1.466
  393SOL     OW 3075   6.565   6.949  12.171
  393SOL    HW1 3076   6.620   6.943  12.249
  393SOL    HW2 3077   6.476   6.935  12.204
  394SOL     OW 3078   2.223  10.973   8.448
  394SOL    HW1 3079   2.179  11.057   8.433
  394SOL    HW2 3080   2.301  10.995   8.498
  395SOL     OW 3081   6.786   8.169   8.585
  395SOL    HW1 3082   6.695   8.178   8.557
  395SOL    HW2 3083   6.834   8.148   8.505
  396SOL     OW 3084   7.406   9.949  14.338
  396SOL    HW1 3085   7.342  10.019  14.352
  396SOL    HW2 3086   7.362   9.888  14.279
  397SOL     OW 3087   3.794  11.428   9.181
  397SOL    HW1 3088   3.774  11.342   9.217
  397SOL    HW2 3089   3.749  11.489   9.239
  398SOL     OW 3090   2.682   4.351   5.904
  398SOL    HW1 3091   2.750   4.414   5.929
  398SOL    HW2 3092   2.601   4.392   5.933
  399SOL     OW 3093   8.733   4.442  11.027
  399SOL    HW1 3094   8.779   4.360  11.041
  399SOL    HW2 3095   8.661   4.440  11.089
  400SOL     OW 3096   1.679   1.071   0.288
  400SOL    HW1 3097   1.704   1.161   0.270
  400SOL    HW2 3098   1.690   1.061   0.382
  401SOL     OW 3099   9.352   8.104  12.187
  401SOL    HW1 3100   9.294   8.179  12.199
  401SOL    HW2 3101   9.404   8.125  12.110
  402SOL     OW 3102   3.104  13.272   1.181
  402SOL    HW1 3103   3.076  13.283   1.272
  402SOL    HW2 3104   3.068  13.188   1.154
  403SOL     OW 3105  10.606   2.117   2.570
  403SOL    HW1 3106  10.521   2.139   2.531
  403SOL    HW2 3107  10.625   2.190   2.628
  404SOL     OW 3108   7.051   4.016   9.438
  404SOL    HW1 3109   6.999   3.966   9.375
  404SOL    HW2 3110   6.999   4.095   9.455
  405SOL     OW 3111   4.467  10.963  14.419
  405SOL    HW1 3112   4.553  10.997  14.444
  405SOL    HW2 3113   4.421  10.951  14.501
  406SOL     OW 3114   0.083   5.925   1.483
  406SOL    HW1 3115   0.155   5.897   1.541
  406SOL    HW2 3116   0.110   5.897   1.396
  407SOL     OW 3117   5.345  14.738   0.938
  407SOL    HW1 3118   5.372  14.829   0.933
  407SOL    HW2 3119   5.426  14.688   0.942
  408SOL     OW 3120  11.415   7.835   7.510
  408SOL    HW1 3121  11.479   7.877   7.568
  408SOL    HW2 3122  11.445   7.744   7.503
  409SOL     OW 3123   9.597   7.480   4.391
  409SOL    HW1 3124   9.600   7.385   4.407
  409SOL    HW2 3125   9.504   7.500   4.382
  410SOL     OW 3126  12.922   9.838   7.533
  410SOL    HW1 3127  12.889   9.808   7.448
  410SOL    HW2 3128  12.853   9.895   7.567
  411SOL     OW 3129  14.612   9.736   7.214
  411SOL    HW1 3130  14.589   9.785   7.135
  411SOL    HW2 3131  14.537   9.746   7.272
  412SOL     OW 3132  13.661   5.810   8.478
  412SOL    HW1 3133  13.695   5.884   8.428
  412SOL    HW2 3134  13.664   5.736   8.418
  413SOL     OW 3135  14.008   8.057   3.034
  413SOL    HW1 3136  13.991   8.026   3.123
  413SOL    HW2 3137  14.075   7.997   3.001
  414SOL     OW 3138   2.521   7.651  11.909
  414SOL    HW1 3139   2.434   7.657  11.948
  414SOL    HW2 3140   2.521   7.715  11.839
  415SOL     OW 3141  10.088   1.520  11.584
  415SOL    HW1 3142  10.051   1.603  11.613
  415SOL    HW2 3143  10.022   1.482  11.527
  416SOL     OW 3144  12.204  10.635  11.235
  416SOL    HW1 3145  12.299  10.631  11.223
  416SOL    HW2 3146  12.170  10.571  11.172
  417SOL     OW 3147   0.245  10.396   2.769
  417SOL    HW1 3148   0.193  10.316   2.758
  417SOL    HW2 3149   0.291  10.406   2.686
  418SOL     OW 3150   2.324   3.262  12.036
  418SOL    HW1 3151   2.324   3.261  12.132
  418SOL    HW2 3152   2.395   3.322  12.013
  419SOL     OW 3153   6.670   9.684  10.094
  419SOL    HW1 3154   6.587   9.672  10.141
  419SOL    HW2 3155   6.732   9.713  10.160
  420SOL     OW 3156   8.954   6.375  14.723
  420SOL    HW1 3157   8.937   6.365  14.816
  420SOL    HW2 3158   9.021   6.444  14.717
  421SOL     OW 3159   6.294  13.978   8.167
  421SOL    HW1 3160   6.306  14.041   8.239
  421SOL    HW2 3161   6.200  13.978   8.151
  422SOL     OW 3162   0.112  12.291   6.214
  422SOL    HW1 3163   0.054  12.323   6.145
  422SOL    HW2 3164   0.071  12.321   6.295
  423SOL     OW 3165   6.314   0.415   2.219
  423SOL    HW1 3166   6.252   0.392   2.289
  423SOL    HW2 3167   6.263   0.407   2.139
  424SOL     OW 3168   1.143   3.961  13.626
  424SOL    HW1 3169   1.120   3.993  13.539
  424SOL    HW2 3170   1.237   3.975  13.634
  425SOL     OW 3171   5.940   2.240  14.246
  425SOL    HW1 3172   5.963   2.150  14.223
  425SOL    HW2 3173   5.935   2.286  14.162
  426SOL     OW 3174   0.893  14.407  13.639
  426SOL    HW1 3175   0.967  14.467  13.651
  426SOL    HW2 3176   0.927  14.339  13.580
  427SOL     OW 3177   9.159   7.433   3.015
  427SOL    HW1 3178   9.136   7.426   2.923
  427SOL    HW2 3179   9.075   7.436   3.061
  428SOL     OW 3180   5.991   1.759   4.553
  428SOL    HW1 3181   6.069   1.791   4.599
  428SOL    HW2 3182   5.966   1.831   4.494
  429SOL     OW 3183   4.655   7.755  11.189
  429SOL    HW1 3184   4.591   7.812  11.232
  429SOL    HW2 3185   4.665   7.681  11.248
  430SOL     OW 3186  11.821   2.428  12.145
  430SOL    HW1 3187  11.739   2.477  12.143
  430SOL    HW2 3188  11.794   2.337  12.150
  431SOL     OW 3189   8.572   6.887   0.593
  431SOL    HW1 3190   8.629   6.963   0.577
  431SOL    HW2 3191   8.632   6.813   0.597
  432SOL     OW 3192  13.776   2.049   8.027
  432SOL    HW1 3193  13.842   2.063   7.959
  432SOL    HW2 3194  13.804   2.104   8.099
  433SOL     OW 3195  14.620  13.971   3.720
  433SOL    HW1 3196  14.636  14.065   3.721
  433SOL    HW2 3197  14.697  13.934   3.676
  434SOL     OW 3198   2.143  14.040   8.455
  434SOL    HW1 3199   2.227  14.054   8.410
  434SOL    HW2 3200   2.083  14.016   8.385
  435SOL     OW 3201   1.708   2.344   6.355
  435SOL    HW1 3202   1.778   2.399   6.321
  435SOL    HW2 3203   1.628   2.394   6.337
  436SOL     OW 3204  10.862   7.471   1.296
  436SOL    HW1 3205  10.847   7.456   1.202
  436SOL    HW2 3206  10.775   7.490   1.331
  437SOL     OW 3207   9.157  11.312   7.490
  437SOL    HW1 3208   9.109  11.230   7.504
  437SOL    HW2 3209   9.226  11.311   7.556
  438SOL     OW 3210   3.723   8.268  10.590
  438SOL    HW1 3211   3.645   8.230  10.549
  438SOL    HW2 3212   3.689   8.337  10.646
  439SOL     OW 3213   0.704  10.870   0.816
  439SOL    HW1 3214   0.693  10.791   0.870
  439SOL    HW2 3215   0.731  10.938   0.878
  440SOL     OW 3216   4.719   1.216   1.054
  440SOL    HW1 3217   4.637   1.221   1.103
  440SOL    HW2 3218   4.695   1.176   0.970
  441SOL     OW 3219   8.098   0.432  12.716
  441SOL    HW1 3220   8.065   0.462  12.632
  441SOL    HW2 3221   8.176   0.380  12.694
  442SOL     OW 3222  11.371   1.893   9.082
  442SOL    HW1 3223  11.396   1.895   8.990
  442SOL    HW2 3224  11.451   1.866   9.128
  443SOL     OW 3225   4.246  12.857   0.308
  443SOL    HW1 3226   4.341  12.856   0.302
  443SOL    HW2 3227   4.216  12.877   0.219
  444SOL     OW 3228  12.507   7.304   6.245
  444SOL    HW1 3229  12.478   7.390   6.278
  444SOL    HW2 3230  12.428   7.251   6.244
  445SOL     OW 3231   6.702   4.822   4.089
  445SOL    HW1 3232   6.780   4.856   4.045
  445SOL    HW2 3233   6.652   4.900   4.112
  446SOL     OW 3234   0.328  12.777   2.409
  446SOL    HW1 3235   0.302  12.729   2.330
  446SOL    HW2 3236   0.287  12.728   2.480
  447SOL     OW 3237  14.375   4.826  11.731
  447SOL    HW1 3238  14.346   4.915  11.751
  447SOL    HW2 3239  14.347   4.811  11.641
  448SOL     OW 3240  12.097  12.452  10.214
  448SOL    HW1 3241  12.083  12.384  10.147
  448SOL    HW2 3242  12.157  12.412  10.277
  449SOL     OW 3243   2.473   4.908   8.856
  449SOL    HW1 3244   2.461   4.940   8.945
  449SOL    HW2 3245   2.419   4.965   8.802
  450SOL     OW 3246   2.465  13.771   8.449
  450SOL    HW1 3247   2.374  13.794   8.468
  450SOL    HW2 3248   2.512  13.792   8.530
  451SOL     OW 3249   8.189   9.240   9.102
  451SOL    HW1 3250   8.201   9.330   9.070
  451SOL    HW2 3251   8.176   9.250   9.196
  452SOL     OW 3252   9.279   4.147   8.667
  452SOL    HW1 3253   9.356   4.193   8.633
  452SOL    HW2 3254   9.315   4.074   8.717
  453SOL     OW 3255   9.784   8.226   3.724
  453SOL    HW1 3256   9.874   8.208   3.695
  453SOL    HW2 3257   9.794   8.260   3.813
  454SOL     OW 3258   2.350   9.899  11.004
  454SOL    HW1 3259   2.314   9.828  11.057
  454SOL    HW2 3260   2.435   9.865  10.974
  455SOL     OW 3261   0.560   2.400   4.745
  455SOL    HW1 3262   0.589   2.474   4.798
  455SOL    HW2 3263   0.559   2.433   4.656
  456SOL     OW 3264  12.652   4.378  10.985
  456SOL    HW1 3265  12.697   4.443  11.038
  456SOL    HW2 3266  12.642   4.302  11.043
  457SOL     OW 3267  12.931   1.935   0.424
  457SOL    HW1 3268  12.947   2.008   0.365
  457SOL    HW2 3269  12.868   1.880   0.378
  458SOL     OW 3270  11.584   3.287  13.047
  458SOL    HW1 3271  11.642   3.239  12.988
  458SOL    HW2 3272  11.578   3.375  13.010
  459SOL     OW 3273   0.349   3.489  14.360
  459SOL    HW1 3274   0.359   3.447  14.446
  459SOL    HW2 3275   0.262   3.464  14.331
  460SOL     OW 3276   9.214   1.648   6.675
  460SOL    HW1 3277   9.289   1.595   6.647
  460SOL    HW2 3278   9.208   1.632   6.769
  461SOL     OW 3279   2.254   8.548  10.624
  461SOL    HW1 3280   2.222   8.594  10.702
  461SOL    HW2 3281   2.349   8.545  10.634
  462SOL     OW 3282   7.841   4.955  14.018
  462SOL    HW1 3283   7.912   5.015  14.043
  462SOL    HW2 3284   7.763   5.010  14.018
  463SOL     OW 3285  12.425   2.336   8.930
  463SOL    HW1 3286  12.463   2.348   8.842
  463SOL    HW2 3287  12.498   2.351   8.990
  464SOL     OW 3288   5.636   5.690   5.307
  464SOL    HW1 3289   5.547   5.726   5.303
  464SOL    HW2 3290   5.640   5.631   5.231
  465SOL     OW 3291   3.646  13.876   8.930
  465SOL    HW1 3292   3.550  13.877   8.931
  465SOL    HW2 3293   3.671  13.928   9.007
  466SOL     OW 3294   3.135   9.098   8.302
  466SOL    HW1 3295   3.136   9.167   8.369
  466SOL    HW2 3296   3.102   9.021   8.347
  467SOL     OW 3297   7.749  10.875   4.348
  467SOL    HW1 3298   7.712  10.849   4.263
  467SOL    HW2 3299   7.810  10.946   4.327
  468SOL     OW 3300  10.592   5.379  11.455
  468SOL    HW1 3301  10.684   5.396  11.434
  468SOL    HW2 3302  10.555   5.465  11.474
  469SOL     OW 3303   5.409  13.505  12.377
  469SOL    HW1 3304   5.380  13.414  12.379
  469SOL    HW2 3305   5.437  13.523  12.466
  470SOL     OW 3306   8.201  13.429   7.395
  470SOL    HW1 3307   8.200  13.515   7.351
  470SOL    HW2 3308   8.122  13.386   7.363
  471SOL     OW 3309   4.395   3.362  14.288
  471SOL    HW1 3310   4.322   3.380  14.229
  471SOL    HW2 3311   4.410   3.268  14.281
  472SOL     OW 3312   8.365   4.442   8.202
  472SOL    HW1 3313   8.395   4.364   8.154
  472SOL    HW2 3314   8.388   4.515   8.145
  473SOL     OW 3315  11.896   0.944   4.924
  473SOL    HW1 3316  11.837   1.019   4.916
  473SOL    HW2 3317  11.875   0.888   4.850
  474SOL     OW 3318   8.471  10.073   2.808
  474SOL    HW1 3319   8.379  10.097   2.797
  474SOL    HW2 3320   8.501  10.123   2.884
  475SOL     OW 3321   2.885   7.375   3.892
  475SOL    HW1 3322   2.844   7.290   3.908
  475SOL    HW2 3323   2.864   7.395   3.801
  476SOL     OW 3324   9.862   0.177   5.009
  476SOL    HW1 3325   9.956   0.176   4.988
  476SOL    HW2 3326   9.827   0.098   4.969
  477SOL     OW 3327  10.815   1.029   7.248
  477SOL    HW1 3328  10.725   1.019   7.219
  477SOL    HW2 3329  10.867   0.988   7.178
  478SOL     OW 3330   0.372  13.128   2.839
  478SOL    HW1 3331   0.327  13.078   2.907
  478SOL    HW2 3332   0.353  13.082   2.758
  479SOL     OW 3333   1.933   9.336  10.784
  479SOL    HW1 3334   1.888   9.412  10.750
  479SOL    HW2 3335   2.025   9.361  10.786
  480SOL     OW 3336   3.807   3.369  12.984
  480SOL    HW1 3337   3.735   3.396  13.040
  480SOL    HW2 3338   3.827   3.445  12.931
  481SOL     OW 3339   5.943   9.178   9.634
  481SOL    HW1 3340   5.943   9.099   9.580
  481SOL    HW2 3341   5.850   9.198   9.647
  482SOL     OW 3342   6.392   4.310   3.072
  482SOL    HW1 3343   6.323   4.276   3.128
  482SOL    HW2 3344   6.369   4.279   2.984
  483SOL     OW 3345   0.692   7.980   1.804
  483SOL    HW1 3346   0.704   7.897   1.851
  483SOL    HW2 3347   0.597   7.986   1.790
  484SOL     OW 3348   2.965   8.845   0.371
  484SOL    HW1 3349   2.879   8.818   0.404
  484SOL    HW2 3350   2.974   8.801   0.287
  485SOL     OW 3351   5.540   3.632  10.338
  485SOL    HW1 3352   5.561   3.608  10.248
  485SOL    HW2 3353   5.485   3.710  10.331
  486SOL     OW 3354   5.375   4.971   2.825
  486SOL    HW1 3355   5.326   5.053   2.820
  486SOL    HW2 3356   5.369   4.945   2.917
  487SOL     OW 3357  11.889   1.685   9.405
  487SOL    HW1 3358  11.905   1.761   9.462
  487SOL    HW2 3359  11.974   1.665   9.367
  488SOL     OW 3360  10.863   0.923  11.384
  488SOL    HW1 3361  10.849   0.833  11.354
  488SOL    HW2 3362  10.792   0.939  11.446
  489SOL     OW 3363  10.654   3.608  10.425
  489SOL    HW1 3364  10.558   3.615  10.432
  489SOL    HW2 3365  10.685   3.620  10.514
  490SOL     OW 3366   3.153   2.391   8.783
  490SOL    HW1 3367   3.128   2.416   8.694
  490SOL    HW2 3368   3.071   2.359   8.822
  491SOL     OW 3369   6.932   5.441  12.994
  491SOL    HW1 3370   6.977   5.504  13.050
  491SOL    HW2 3371   7.001   5.402  12.941
  492SOL     OW 3372   6.607   5.309   0.778
  492SOL    HW1 3373   6.676   5.242   0.776
  492SOL    HW2 3374   6.601   5.338   0.687
  493SOL     OW 3375  14.387   3.680   7.738
  493SOL    HW1 3376  14.382   3.757   7.683
  493SOL    HW2 3377  14.463   3.695   7.795
  494SOL     OW 3378   5.823   9.894   3.324
  494SOL    HW1 3379   5.734   9.859   3.328
  494SOL    HW2 3380   5.875   9.824   3.285
  495SOL     OW 3381   4.615  10.038  10.298
  495SOL    HW1 3382   4.552  10.103  10.266
  495SOL    HW2 3383   4.659  10.081  10.371
  496SOL     OW 3384   1.822   7.150   8.092
  496SOL    HW1 3385   1.760   7.204   8.142
  496SOL    HW2 3386   1.788   7.061   8.100
  497SOL     OW 3387   1.149   7.718  10.273
  497SOL    HW1 3388   1.119   7.646  10.328
  497SOL    HW2 3389   1.135   7.688  10.184
  498SOL     OW 3390  10.082   1.266   3.995
  498SOL    HW1 3391  10.139   1.191   4.011
  498SOL    HW2 3392  10.099   1.291   3.904
  499SOL     OW 3393  14.848  13.056  12.587
  499SOL    HW1 3394  14.846  13.147  12.558
  499SOL    HW2 3395   0.021  13.011  12.521
  500SOL     OW 3396   7.851  11.498  14.688
  500SOL    HW1 3397   7.878  11.561  14.754
  500SOL    HW2 3398   7.842  11.549  14.608
  501SOL     OW 3399   3.438   8.753   0.642
  501SOL    HW1 3400   3.417   8.754   0.548
  501SOL    HW2 3401   3.529   8.725   0.645
  502SOL     OW 3402   3.039  10.415  10.625
  502SOL    HW1 3403   3.077  10.327  10.621
  502SOL    HW2 3404   3.090  10.460  10.692
  503SOL     OW 3405   1.421   9.112  13.587
  503SOL    HW1 3406   1.448   9.034  13.634
  503SOL    HW2 3407   1.398   9.081  13.499
  504SOL     OW 3408   2.696   1.780   9.087
  504SOL    HW1 3409   2.708   1.698   9.039
  504SOL    HW2 3410   2.730   1.761   9.175
  505SOL     OW 3411   9.139  12.225   2.227
  505SOL    HW1 3412   9.182  12.263   2.150
  505SOL    HW2 3413   9.048  12.210   2.199
  506SOL     OW 3414   1.493  13.047   0.269
  506SOL    HW1 3415   1.576  13.095   0.268
  506SOL    HW2 3416   1.488  13.011   0.358
  507SOL     OW 3417   0.216  13.365   0.486
  507SOL    HW1 3418   0.310  13.346   0.484
  507SOL    HW2 3419   0.192  13.357   0.578
  508SOL     OW 3420   0.627   6.229   2.006
  508SOL    HW1 3421   0.591   6.161   1.948
  508SOL    HW2 3422   0.551   6.264   2.052
  509SOL     OW 3423   0.757  13.264   3.119
  509SOL    HW1 3424   0.753  13.189   3.060
  509SOL    HW2 3425   0.674  13.261   3.167
  510SOL     OW 3426   6.908  10.539   1.150
  510SOL    HW1 3427   6.864  10.461   1.119
  510SOL    HW2 3428   6.839  10.605   1.158
  511SOL     OW 3429  10.050  10.749   9.128
  511SOL    HW1 3430  10.092  10.711   9.205
  511SOL    HW2 3431   9.994  10.680   9.094
  512SOL     OW 3432   4.543   6.171  11.894
  512SOL    HW1 3433   4.473   6.192  11.956
  512SOL    HW2 3434   4.601   6.111  11.942
  513SOL     OW 3435   4.942   1.318  10.387
  513SOL    HW1 3436   4.931   1.394  10.329
  513SOL    HW2 3437   4.992   1.255  10.336
  514SOL     OW 3438   6.702   5.438   0.475
  514SOL    HW1 3439   6.692   5.505   0.542
  514SOL    HW2 3440   6.631   5.456   0.413
  515SOL     OW 3441   3.743  11.924   5.587
  515SOL    HW1 3442   3.733  11.892   5.497
  515SOL    HW2 3443   3.804  11.997   5.579
  516SOL     OW 3444  11.612  12.698   3.984
  516SOL    HW1 3445  11.650  12.614   4.011
  516SOL    HW2 3446  11.662  12.722   3.905
  517SOL     OW 3447  14.679  12.106   4.436
  517SOL    HW1 3448  14.587  12.088   4.416
  517SOL    HW2 3449  14.685  12.201   4.434
  518SOL     OW 3450  10.048   1.843   7.430
  518SOL    HW1 3451  10.001   1.886   7.359
  518SOL    HW2 3452  10.051   1.751   7.404
  519SOL     OW 3453  13.316  10.802   8.862
  519SOL    HW1 3454  13.393  10.836   8.817
  519SOL    HW2 3455  13.326  10.832   8.953
  520SOL     OW 3456   5.218  13.900   9.590
  520SOL    HW1 3457   5.304  13.937   9.609
  520SOL    HW2 3458   5.201  13.841   9.663
  521SOL     OW 3459   8.150   2.328  13.109
  521SOL    HW1 3460   8.207   2.252  13.118
  521SOL    HW2 3461   8.208   2.398  13.079
  522SOL     OW 3462  12.021  13.546  14.034
  522SOL    HW1 3463  12.025  13.637  14.063
  522SOL    HW2 3464  11.984  13.550  13.946
  523SOL     OW 3465   7.101   6.342  12.204
  523SOL    HW1 3466   7.136   6.271  12.152
  523SOL    HW2 3467   7.006   6.325  12.207
  524SOL     OW 3468   1.619   1.346  13.844
  524SOL    HW1 3469   1.558   1.274  13.830
  524SOL    HW2 3470   1.690   1.330  13.782
  525SOL     OW 3471   9.421   1.908  10.452
  525SOL    HW1 3472   9.477   1.911  10.530
  525SOL    HW2 3473   9.345   1.856  10.479
  526SOL     OW 3474   0.164  10.410  13.396
  526SOL    HW1 3475   0.101  10.392  13.327
  526SOL    HW2 3476   0.140  10.497  13.429
  527SOL     OW 3477   8.535   9.447   9.688
  527SOL    HW1 3478   8.623   9.448   9.651
  527SOL    HW2 3479   8.535   9.373   9.749
  528SOL     OW 3480   2.977   0.218  12.285
  528SOL    HW1 3481   3.042   0.150  12.268
  528SOL    HW2 3482   2.979   0.229  12.380
  529SOL     OW 3483   1.555  13.450  11.198
  529SOL    HW1 3484   1.600  13.508  11.137
  529SOL    HW2 3485   1.613  13.446  11.274
  530SOL     OW 3486   3.281   1.743  12.675
  530SOL    HW1 3487   3.285   1.686  12.752
  530SOL    HW2 3488   3.297   1.831  12.710
  531SOL     OW 3489   3.624  12.924  10.757
  531SOL    HW1 3490   3.544  12.917  10.706
  531SOL    HW2 3491   3.631  12.840  10.802
  532SOL     OW 3492   4.850   4.535  10.224
  532SOL    HW1 3493   4.781   4.575  10.278
  532SOL    HW2 3494   4.816   4.541  10.135
  533SOL     OW 3495   7.201   9.735  10.284
  533SOL    HW1 3496   7.186   9.828  10.305
  533SOL    HW2 3497   7.216   9.735  10.190
  534SOL     OW 3498  10.876  11.905   9.156
  534SOL    HW1 3499  10.794  11.929   9.112
  534SOL    HW2 3500  10.887  11.972   9.223
  535SOL     OW 3501  14.517  10.720  10.089
  535SOL    HW1 3502  14.502  10.804  10.044
  535SOL    HW2 3503  14.542  10.660  10.019
  536SOL     OW 3504   0.692   0.234   3.998
  536SOL    HW1 3505   0.787   0.233   3.985
  536SOL    HW2 3506   0.680   0.198   4.086
  537SOL     OW 3507  10.952  11.311  13.452
  537SOL    HW1 3508  10.892  11.243  13.484
  537SOL    HW2 3509  10.920  11.392  13.491
  538SOL     OW 3510   7.801   7.894   7.434
  538SOL    HW1 3511   7.883   7.870   7.390
  538SOL    HW2 3512   7.739   7.826   7.407
  539SOL     OW 3513   6.547   1.518   5.993
  539SOL    HW1 3514   6.561   1.473   5.910
  539SOL    HW2 3515   6.463   1.486   6.025
  540SOL     OW 3516   5.360  14.169   8.895
  540SOL    HW1 3517   5.302  14.191   8.822
  540SOL    HW2 3518   5.325  14.218   8.969
  541SOL     OW 3519   4.808   8.011   7.816
  541SOL    HW1 3520   4.899   7.987   7.838
  541SOL    HW2 3521   4.786   8.080   7.879
  542SOL     OW 3522   3.237   1.667   1.034
  542SOL    HW1 3523   3.306   1.732   1.047
  542SOL    HW2 3524   3.276   1.601   0.976
  543SOL     OW 3525  12.776   1.566  13.619
  543SOL    HW1 3526  12.818   1.638  13.571
  543SOL    HW2 3527  12.688   1.561  13.583
  544SOL     OW 3528   9.425  10.649  11.373
  544SOL    HW1 3529   9.471  10.631  11.291
  544SOL    HW2 3530   9.493  10.680  11.433
  545SOL     OW 3531   4.121  14.247   4.984
  545SOL    HW1 3532   4.145  14.296   4.905
  545SOL    HW2 3533   4.039  14.204   4.962
  546SOL     OW 3534  10.691   5.662   6.333
  546SOL    HW1 3535  10.684   5.729   6.265
  546SOL    HW2 3536  10.735   5.706   6.406
  547SOL     OW 3537   9.589   1.931   5.052
  547SOL    HW1 3538   9.618   1.861   4.993
  547SOL    HW2 3539   9.508   1.898   5.091
  548SOL     OW 3540   9.396   1.747   5.539
  548SOL    HW1 3541   9.322   1.793   5.578
  548SOL    HW2 3542   9.446   1.714   5.614
  549SOL     OW 3543   9.831   5.102   7.681
  549SOL    HW1 3544   9.791   5.051   7.751
  549SOL    HW2 3545   9.909   5.140   7.720
  550SOL     OW 3546  12.815   9.462   8.555
  550SOL    HW1 3547  12.901   9.499   8.534
  550SOL    HW2 3548  12.823   9.369   8.532
  551SOL     OW 3549  12.765   1.381   5.056
  551SOL    HW1 3550  12.701   1.445   5.088
  551SOL    HW2 3551  12.816   1.357   5.134
  552SOL     OW 3552   0.525   6.310   6.500
  552SOL    HW1 3553   0.506   6.380   6.562
  552SOL    HW2 3554   0.593   6.346   6.443
  553SOL     OW 3555   2.189   8.745   2.484
  553SOL    HW1 3556   2.193   8.654   2.512
  553SOL    HW2 3557   2.280   8.776   2.490
  554SOL     OW 3558   3.079  13.859  11.688
  554SOL    HW1 3559   3.094  13.811  11.606
  554SOL    HW2 3560   3.166  13.888  11.715
  555SOL     OW 3561  10.469  14.671   7.344
  555SOL    HW1 3562  10.419  14.745   7.310
  555SOL    HW2 3563  10.408  14.625   7.400
  556SOL     OW 3564   0.213   7.852   9.342
  556SOL    HW1 3565   0.134   7.906   9.352
  556SOL    HW2 3566   0.184   7.764   9.365
  557SOL     OW 3567  11.279   7.304   3.257
  557SOL    HW1 3568  11.342   7.241   3.293
  557SOL    HW2 3569  11.197   7.286   3.303
  558SOL     OW 3570   9.925   3.613   9.766
  558SOL    HW1 3571   9.916   3.536   9.710
  558SOL    HW2 3572  10.014   3.644   9.750
  559SOL     OW 3573  12.536  14.687   7.322
  559SOL    HW1 3574  12.510  14.778   7.311
  559SOL    HW2 3575  12.602  14.672   7.254
  560SOL     OW 3576   4.660   4.905  12.542
  560SOL    HW1 3577   4.649   4.948  12.457
  560SOL    HW2 3578   4.635   4.814  12.526
  561SOL     OW 3579   4.520   6.682   6.955
  561SOL    HW1 3580   4.521   6.762   6.902
  561SOL    HW2 3581   4.431   6.648   6.944
  562SOL     OW 3582  14.026   1.182  14.521
  562SOL    HW1 3583  13.971   1.165  14.444
  562SOL    HW2 3584  14.115   1.168  14.490
  563SOL     OW 3585  10.777   7.346  14.834
  563SOL    HW1 3586  10.743   7.429  14.868
  563SOL    HW2 3587  10.724   7.329  14.756
  564SOL     OW 3588   4.034  13.209  10.993
  564SOL    HW1 3589   3.966  13.155  10.952
  564SOL    HW2 3590   3.992  13.243  11.073
  565SOL     OW 3591   9.990   1.287  10.793
  565SOL    HW1 3592   9.984   1.363  10.851
  565SOL    HW2 3593   9.997   1.212  10.852
  566SOL     OW 3594   6.627   5.025   3.608
  566SOL    HW1 3595   6.554   4.979   3.651
  566SOL    HW2 3596   6.586   5.073   3.536
  567SOL     OW 3597  13.402   7.285  12.092
  567SOL    HW1 3598  13.370   7.373  12.111
  567SOL    HW2 3599  13.342   7.227  12.139
  568SOL     OW 3600   6.137   2.080   8.515
  568SOL    HW1 3601   6.202   2.134   8.559
  568SOL    HW2 3602   6.177   2.057   8.431
  569SOL     OW 3603   2.723  11.616   4.709
  569SOL    HW1 3604   2.630  11.634   4.720
  569SOL    HW2 3605   2.758  11.694   4.667
  570SOL     OW 3606  13.039  12.018  11.518
  570SOL    HW1 3607  13.097  11.983  11.451
  570SOL    HW2 3608  13.096  12.070  11.574
  571SOL     OW 3609  10.670  12.346  10.854
  571SOL    HW1 3610  10.735  12.406  10.892
  571SOL    HW2 3611  10.687  12.262  10.896
  572SOL     OW 3612   6.814   0.093   8.251
  572SOL    HW1 3613   6.908   0.110   8.245
  572SOL    HW2 3614   6.808  14.878   8.266
  573SOL     OW 3615   3.442   1.485   6.938
  573SOL    HW1 3616   3.512   1.434   6.898
  573SOL    HW2 3617   3.361   1.445   6.907
  574SOL     OW 3618   7.315  14.224  10.257
  574SOL    HW1 3619   7.326  14.129  10.269
  574SOL    HW2 3620   7.222  14.235  10.237
  575SOL     OW 3621   3.728   7.842   3.705
  575SOL    HW1 3622   3.649   7.887   3.735
  575SOL    HW2 3623   3.711   7.823   3.613
  576SOL     OW 3624   9.587  12.004   5.638
  576SOL    HW1 3625   9.606  12.045   5.553
  576SOL    HW2 3626   9.615  11.913   5.628
  577SOL     OW 3627   4.602  12.670  10.771
  577SOL    HW1 3628   4.555  12.659  10.688
  577SOL    HW2 3629   4.580  12.758  10.800
  578SOL     OW 3630  13.559  10.789   2.935
  578SOL    HW1 3631  13.520  10.730   2.871
  578SOL    HW2 3632  13.650  10.762   2.941
  579SOL     OW 3633  11.419  11.967  11.245
  579SOL    HW1 3634  11.335  11.966  11.199
  579SOL    HW2 3635  11.483  11.945  11.177
  580SOL     OW 3636   5.433   1.119   0.338
  580SOL    HW1 3637   5.434   1.057   0.411
  580SOL    HW2 3638   5.340   1.135   0.322
  581SOL     OW 3639   4.572  14.592   7.620
  581SOL    HW1 3640   4.597  14.519   7.563
  581SOL    HW2 3641   4.630  14.586   7.695
  582SOL     OW 3642  10.813   4.148   6.170
  582SOL    HW1 3643  10.812   4.231   6.218
  582SOL    HW2 3644  10.734   4.152   6.115
  583SOL     OW 3645  12.203   9.985   3.672
  583SOL    HW1 3646  12.262   9.949   3.607
  583SOL    HW2 3647  12.243  10.068   3.698
  584SOL     OW 3648   3.366  11.440   5.573
  584SOL    HW1 3649   3.384  11.460   5.481
  584SOL    HW2 3650   3.275  11.410   5.573
  585SOL     OW 3651   9.795   1.922   2.895
  585SOL    HW1 3652   9.834   1.925   2.983
  585SOL    HW2 3653   9.817   1.835   2.862
  586SOL     OW 3654  13.783  12.705  13.857
  586SOL    HW1 3655  13.778  12.654  13.776
  586SOL    HW2 3656  13.725  12.780  13.842
  587SOL     OW 3657  11.005   2.376   0.546
  587SOL    HW1 3658  10.936   2.401   0.484
  587SOL    HW2 3659  10.959   2.330   0.616
  588SOL     OW 3660   1.556  13.392  13.254
  588SOL    HW1 3661   1.538  13.476  13.295
  588SOL    HW2 3662   1.587  13.336  13.325
  589SOL     OW 3663  14.537  13.672   9.043
  589SOL    HW1 3664  14.543  13.594   8.988
  589SOL    HW2 3665  14.445  13.677   9.068
  590SOL     OW 3666   0.076   5.491  10.213
  590SOL    HW1 3667  14.879   5.433  10.218
  590SOL    HW2 3668   0.123   5.461  10.136
  591SOL     OW 3669   2.209   9.719   2.956
  591SOL    HW1 3670   2.258   9.680   3.028
  591SOL    HW2 3671   2.181   9.804   2.989
  592SOL     OW 3672  10.006  11.756  14.871
  592SOL    HW1 3673   9.932  11.818  14.872
  592SOL    HW2 3674  10.006  11.722  14.781
  593SOL     OW 3675  14.434  12.991  13.833
  593SOL    HW1 3676  14.484  12.963  13.756
  593SOL    HW2 3677  14.352  13.024  13.797
  594SOL     OW 3678   7.560   4.347  10.931
  594SOL    HW1 3679   7.465   4.361  10.939
  594SOL    HW2 3680   7.569   4.292  10.853
  595SOL     OW 3681   8.344  11.595   2.475
  595SOL    HW1 3682   8.305  11.547   2.402
  595SOL    HW2 3683   8.370  11.679   2.437
  596SOL     OW 3684   2.700   8.724   2.851
  596SOL    HW1 3685   2.716   8.803   2.799
  596SOL    HW2 3686   2.678   8.757   2.938
  597SOL     OW 3687  10.057   9.738   2.113
  597SOL    HW1 3688  10.105   9.683   2.051
  597SOL    HW2 3689  10.120   9.756   2.183
  598SOL     OW 3690   6.533  12.397   8.455
  598SOL    HW1 3691   6.574  12.312   8.443
  598SOL    HW2 3692   6.575  12.434   8.532
  599SOL     OW 3693  13.847  10.703   5.178
  599SOL    HW1 3694  13.788  10.636   5.142
  599SOL    HW2 3695  13.818  10.784   5.136
  600SOL     OW 3696  14.211   0.226   1.069
  600SOL    HW1 3697  14.134   0.251   1.018
  600SOL    HW2 3698  14.269   0.184   1.006
  601SOL     OW 3699   1.738   8.244   5.614
  601SOL    HW1 3700   1.722   8.153   5.588
  601SOL    HW2 3701   1.773   8.285   5.535
  602SOL     OW 3702   0.503   6.279  11.146
  602SOL    HW1 3703   0.558   6.208  11.111
  602SOL    HW2 3704   0.464   6.319  11.069
  603SOL     OW 3705   4.812   3.554   4.529
  603SOL    HW1 3706   4.814   3.487   4.461
  603SOL    HW2 3707   4.855   3.630   4.489
  604SOL     OW 3708  12.493  14.034  12.255
  604SOL    HW1 3709  12.588  14.037  12.245
  604SOL    HW2 3710  12.477  14.058  12.347
  605SOL     OW 3711  12.140  13.366  10.838
  605SOL    HW1 3712  12.048  13.385  10.817
  605SOL    HW2 3713  12.135  13.292  10.898
  606SOL     OW 3714   2.649   9.648  14.701
  606SOL    HW1 3715   2.615   9.736  14.715
  606SOL    HW2 3716   2.724   9.641  14.761
  607SOL     OW 3717   1.325  13.679  12.076
  607SOL    HW1 3718   1.284  13.669  12.162
  607SOL    HW2 3719   1.381  13.603  12.067
  608SOL     OW 3720  11.180  14.007   0.048
  608SOL    HW1 3721  11.187  14.081  14.867
  608SOL    HW2 3722  11.201  14.045   0.134
  609SOL     OW 3723   3.674   7.261   5.482
  609SOL    HW1 3724   3.716   7.188   5.436
  609SOL    HW2 3725   3.583   7.259   5.453
  610SOL     OW 3726   4.712  11.131  12.880
  610SOL    HW1 3727   4.805  11.122  12.861
  610SOL    HW2 3728   4.675  11.045  12.860
  611SOL     OW 3729   5.156   1.365   3.996
  611SOL    HW1 3730   5.173   1.389   4.087
  611SOL    HW2 3731   5.221   1.297   3.977
  612SOL     OW 3732   6.274   5.650  14.825
  612SOL    HW1 3733   6.270   5.554  14.830
  612SOL    HW2 3734   6.189   5.679  14.856
  613SOL     OW 3735   1.886   7.974   2.196
  613SOL    HW1 3736   1.800   7.946   2.227
  613SOL    HW2 3737   1.927   7.894   2.164
  614SOL     OW 3738   0.662   6.610   3.611
  614SOL    HW1 3739   0.716   6.537   3.584
  614SOL    HW2 3740   0.688   6.682   3.553
  615SOL     OW 3741   7.451   4.957  11.131
  615SOL    HW1 3742   7.540   4.992  11.121
  615SOL    HW2 3743   7.404   4.987  11.053
  616SOL     OW 3744   5.530   2.269   2.302
  616SOL    HW1 3745   5.456   2.326   2.323
  616SOL    HW2 3746   5.576   2.313   2.231
  617SOL     OW 3747   5.533   4.914   5.053
  617SOL    HW1 3748   5.551   4.911   5.147
  617SOL    HW2 3749   5.530   4.822   5.026
  618SOL     OW 3750   7.036   0.213   8.799
  618SOL    HW1 3751   6.952   0.259   8.799
  618SOL    HW2 3752   7.012   0.120   8.795
  619SOL     OW 3753   0.852   6.026  14.013
  619SOL    HW1 3754   0.933   6.058  13.976
  619SOL    HW2 3755   0.805   5.986  13.940
  620SOL     OW 3756   6.574  13.158  14.198
  620SOL    HW1 3757   6.606  13.236  14.244
  620SOL    HW2 3758   6.649  13.098  14.201
  621SOL     OW 3759   5.396   8.123   0.170
  621SOL    HW1 3760   5.306   8.141   0.195
  621SOL    HW2 3761   5.449   8.174   0.231
  622SOL     OW 3762  13.401   2.149   4.651
  622SOL    HW1 3763  13.420   2.222   4.710
  622SOL    HW2 3764  13.487   2.120   4.621
  623SOL     OW 3765   0.886  12.097   7.042
  623SOL    HW1 3766   0.903  12.041   7.117
  623SOL    HW2 3767   0.805  12.064   7.004
  624SOL     OW 3768  12.558  12.283  11.370
  624SOL    HW1 3769  12.488  12.330  11.414
  624SOL    HW2 3770  12.523  12.196  11.354
  625SOL     OW 3771   5.280   0.713   9.408
  625SOL    HW1 3772   5.200   0.720   9.356
  625SOL    HW2 3773   5.314   0.802   9.411
  626SOL     OW 3774  11.607   2.057   5.780
  626SOL    HW1 3775  11.520   2.087   5.755
  626SOL    HW2 3776  11.650   2.035   5.697
  627SOL     OW 3777  12.628  13.409   8.334
  627SOL    HW1 3778  12.628  13.347   8.406
  627SOL    HW2 3779  12.585  13.487   8.369
  628SOL     OW 3780   3.221   1.175  13.670
  628SOL    HW1 3781   3.162   1.227  13.615
  628SOL    HW2 3782   3.240   1.097  13.617
  629SOL     OW 3783   1.786   2.161  13.567
  629SOL    HW1 3784   1.828   2.188  13.486
  629SOL    HW2 3785   1.693   2.174  13.551
  630SOL     OW 3786   4.812   5.578  13.832
  630SOL    HW1 3787   4.761   5.648  13.791
  630SOL    HW2 3788   4.841   5.615  13.915
  631SOL     OW 3789   1.098   1.326   1.878
  631SOL    HW1 3790   1.003   1.341   1.875
  631SOL    HW2 3791   1.106   1.236   1.911
  632SOL     OW 3792   3.025   5.356  10.907
  632SOL    HW1 3793   2.972   5.398  10.839
  632SOL    HW2 3794   2.993   5.266  10.910
  633SOL     OW 3795   4.648   4.060   6.294
  633SOL    HW1 3796   4.663   3.978   6.341
  633SOL    HW2 3797   4.571   4.043   6.239
  634SOL     OW 3798   3.194  14.168   1.411
  634SOL    HW1 3799   3.199  14.176   1.506
  634SOL    HW2 3800   3.285  14.156   1.383
  635SOL     OW 3801  12.867   8.944   1.826
  635SOL    HW1 3802  12.860   8.937   1.731
  635SOL    HW2 3803  12.961   8.951   1.842
  636SOL     OW 3804   2.741  13.782  10.043
  636SOL    HW1 3805   2.695  13.794   9.961
  636SOL    HW2 3806   2.806  13.853  10.044
  637SOL     OW 3807   1.495   1.736   6.459
  637SOL    HW1 3808   1.511   1.736   6.365
  637SOL    HW2 3809   1.541   1.814   6.491
  638SOL     OW 3810   7.380   9.506  10.372
  638SOL    HW1 3811   7.345   9.595  10.368
  638SOL    HW2 3812   7.402   9.493  10.465
  639SOL     OW 3813   7.466  12.649   2.100
  639SOL    HW1 3814   7.434  12.579   2.157
  639SOL    HW2 3815   7.386  12.685   2.060
  640SOL     OW 3816   1.198   3.032   8.085
  640SOL    HW1 3817   1.216   3.125   8.101
  640SOL    HW2 3818   1.205   2.991   8.171
  641SOL     OW 3819   5.972  13.354   4.119
  641SOL    HW1 3820   5.982  13.427   4.058
  641SOL    HW2 3821   6.061  13.328   4.141
  642SOL     OW 3822   6.029   6.505   5.709
  642SOL    HW1 3823   6.089   6.555   5.653
  642SOL    HW2 3824   5.979   6.572   5.756
  643SOL     OW 3825  14.126   0.249   2.565
  643SOL    HW1 3826  14.220   0.262   2.551
  643SOL    HW2 3827  14.121   0.197   2.645
  644SOL     OW 3828  11.398   1.243  13.974
  644SOL    HW1 3829  11.429   1.287  13.895
  644SOL    HW2 3830  11.319   1.196  13.945
  645SOL     OW 3831   7.894   7.015   0.450
  645SOL    HW1 3832   7.939   7.078   0.393
  645SOL    HW2 3833   7.881   6.938   0.394
  646SOL     OW 3834   7.920   8.927  14.715
  646SOL    HW1 3835   7.890   8.950  14.803
  646SOL    HW2 3836   8.011   8.956  14.712
  647SOL     OW 3837   4.538   9.800  11.174
  647SOL    HW1 3838   4.618   9.850  11.193
  647SOL    HW2 3839   4.566   9.733  11.112
  648SOL     OW 3840   7.615  12.050   2.871
  648SOL    HW1 3841   7.690  12.086   2.919
  648SOL    HW2 3842   7.553  12.122   2.865
  649SOL     OW 3843  13.157   0.585   0.314
  649SOL    HW1 3844  13.145   0.492   0.333
  649SOL    HW2 3845  13.074   0.612   0.274
  650SOL     OW 3846   5.286   4.499  11.144
  650SOL    HW1 3847   5.190   4.508  11.150
  650SOL    HW2 3848   5.319   4.587  11.162
  651SOL     OW 3849   2.081   2.134   8.360
  651SOL    HW1 3850   2.171   2.116   8.387
  651SOL    HW2 3851   2.078   2.106   8.269
  652SOL     OW 3852  11.963  12.123   3.671
  652SOL    HW1 3853  11.998  12.052   3.617
  652SOL    HW2 3854  12.003  12.203   3.635
  653SOL     OW 3855   3.770   2.685   0.731
  653SOL    HW1 3856   3.814   2.768   0.712
  653SOL    HW2 3857   3.709   2.673   0.658
  654SOL     OW 3858  14.147  10.476   7.297
  654SOL    HW1 3859  14.055  10.496   7.279
  654SOL    HW2 3860  14.164  10.516   7.383
  655SOL     OW 3861  13.786   3.994   1.356
  655SOL    HW1 3862  13.817   3.938   1.285
  655SOL    HW2 3863  13.808   3.946   1.436
  656SOL     OW 3864  13.874  13.869  11.425
  656SOL    HW1 3865  13.806  13.805  11.446
  656SOL    HW2 3866  13.949  13.816  11.398
  657SOL     OW 3867  14.824   5.533   9.629
  657SOL    HW1 3868  14.756   5.480   9.671
  657SOL    HW2 3869   0.004   5.469   9.591
  658SOL     OW 3870  10.243   2.605  10.226
  658SOL    HW1 3871  10.175   2.538  10.217
  658SOL    HW2 3872  10.276   2.594  10.315
  659SOL     OW 3873   7.345   4.925   0.564
  659SOL    HW1 3874   7.293   4.850   0.535
  659SOL    HW2 3875   7.308   5.000   0.517
  660SOL     OW 3876  13.679   6.088   5.473
  660SOL    HW1 3877  13.640   6.153   5.414
  660SOL    HW2 3878  13.648   6.113   5.560
  661SOL     OW 3879   8.356   9.419  13.958
  661SOL    HW1 3880   8.270   9.432  13.919
  661SOL    HW2 3881   8.417   9.435  13.887
  662SOL     OW 3882   1.063   8.064   4.836
  662SOL    HW1 3883   1.129   8.123   4.875
  662SOL    HW2 3884   1.034   8.009   4.909
  663SOL     OW 3885   3.814   6.664   1.343
  663SOL    HW1 3886   3.897   6.671   1.389
  663SOL    HW2 3887   3.759   6.732   1.383
  664SOL     OW 3888   3.078   4.320   0.113
  664SOL    HW1 3889   3.075   4.336   0.018
  664SOL    HW2 3890   3.144   4.381   0.145
  665SOL     OW 3891   2.966   0.816   8.294
  665SOL    HW1 3892   2.967   0.785   8.385
  665SOL    HW2 3893   2.877   0.799   8.264
  666SOL     OW 3894   3.371   9.975  14.720
  666SOL    HW1 3895   3.428   9.914  14.766
  666SOL    HW2 3896   3.332  10.029  14.789
  667SOL     OW 3897  11.914   7.184  11.625
  667SOL    HW1 3898  11.989   7.244  11.635
  667SOL    HW2 3899  11.920   7.154  11.535
  668SOL     OW 3900   0.812   2.456  13.044
  668SOL    HW1 3901   0.881   2.439  12.981
  668SOL    HW2 3902   0.761   2.375  13.047
  669SOL     OW 3903   1.698  11.031   3.448
  669SOL    HW1 3904   1.689  10.954   3.392
  669SOL    HW2 3905   1.779  11.073   3.419
  670SOL     OW 3906   7.118  11.113   9.232
  670SOL    HW1 3907   7.086  11.165   9.157
  670SOL    HW2 3908   7.040  11.072   9.268
  671SOL     OW 3909   3.528   2.281  12.309
  671SOL    HW1 3910   3.434   2.291  12.320
  671SOL    HW2 3911   3.562   2.371  12.313
  672SOL     OW 3912   6.623   8.974   5.853
  672SOL    HW1 3913   6.701   8.936   5.811
  672SOL    HW2 3914   6.607   9.055   5.805
  673SOL     OW 3915   3.992   9.549  10.809
  673SOL    HW1 3916   4.047   9.485  10.855
  673SOL    HW2 3917   4.041   9.630  10.812
  674SOL     OW 3918   9.704   6.780  14.219
  674SOL    HW1 3919   9.678   6.842  14.150
  674SOL    HW2 3920   9.759   6.716  14.173
  675SOL     OW 3921  11.030   3.867   3.440
  675SOL    HW1 3922  11.058   3.790   3.390
  675SOL    HW2 3923  10.937   3.877   3.419
  676SOL     OW 3924  13.919   2.090   0.809
  676SOL    HW1 3925  13.905   2.171   0.760
  676SOL    HW2 3926  13.833   2.050   0.814
  677SOL     OW 3927  11.622   3.159  14.870
  677SOL    HW1 3928  11.690   3.160  14.803
  677SOL    HW2 3929  11.545   3.197  14.827
  678SOL     OW 3930   5.929   8.037   2.593
  678SOL    HW1 3931   5.961   8.058   2.680
  678SOL    HW2 3932   6.004   8.052   2.535
  679SOL     OW 3933   2.619   2.958   4.382
  679SOL    HW1 3934   2.527   2.937   4.399
  679SOL    HW2 3935   2.625   3.053   4.393
  680SOL     OW 3936  14.695  11.240  11.915
  680SOL    HW1 3937  14.720  11.149  11.900
  680SOL    HW2 3938  14.719  11.285  11.834
  681SOL     OW 3939   8.104   8.597  14.379
  681SOL    HW1 3940   8.036   8.537  14.411
  681SOL    HW2 3941   8.061   8.646  14.309
  682SOL     OW 3942  10.983   3.773  13.136
  682SOL    HW1 3943  10.999   3.760  13.229
  682SOL    HW2 3944  11.068   3.798  13.100
  683SOL     OW 3945   0.787   7.045  11.563
  683SOL    HW1 3946   0.732   6.966  11.568
  683SOL    HW2 3947   0.739   7.104  11.505
  684SOL     OW 3948   8.251  11.927   8.869
  684SOL    HW1 3949   8.162  11.914   8.836
  684SOL    HW2 3950   8.258  12.021   8.881
  685SOL     OW 3951   2.727   9.459   3.503
  685SOL    HW1 3952   2.803   9.444   3.559
  685SOL    HW2 3953   2.757   9.433   3.416
  686SOL     OW 3954   5.183  12.494   2.652
  686SOL    HW1 3955   5.094  12.493   2.616
  686SOL    HW2 3956   5.232  12.434   2.595
  687SOL     OW 3957   2.111   7.672  10.613
  687SOL    HW1 3958   2.131   7.712  10.528
  687SOL    HW2 3959   2.094   7.580  10.592
  688SOL     OW 3960  13.630  13.482  13.088
  688SOL    HW1 3961  13.608  13.569  13.056
  688SOL    HW2 3962  13.714  13.461  13.046
  689SOL     OW 3963  10.478   5.860   8.577
  689SOL    HW1 3964  10.455   5.942   8.622
  689SOL    HW2 3965  10.478   5.882   8.484
  690SOL     OW 3966   4.740   9.463   9.244
  690SOL    HW1 3967   4.793   9.391   9.210
  690SOL    HW2 3968   4.787   9.543   9.217
  691SOL     OW 3969   4.785  11.054   2.508
  691SOL    HW1 3970   4.751  11.116   2.572
  691SOL    HW2 3971   4.708  11.013   2.469
  692SOL     OW 3972  12.518   1.295   2.026
  692SOL    HW1 3973  12.442   1.265   2.077
  692SOL    HW2 3974  12.567   1.350   2.087
  693SOL     OW 3975   0.559  14.517   8.203
  693SOL    HW1 3976   0.471  14.479   8.206
  693SOL    HW2 3977   0.551  14.591   8.142
  694SOL     OW 3978   6.610   4.920  14.201
  694SOL    HW1 3979   6.546   4.921  14.273
  694SOL    HW2 3980   6.689   4.957  14.239
  695SOL     OW 3981   9.249   7.835  11.173
  695SOL    HW1 3982   9.321   7.829  11.235
  695SOL    HW2 3983   9.285   7.799  11.092
  696SOL     OW 3984  12.347   2.562  11.420
  696SOL    HW1 3985  12.436   2.569  11.454
  696SOL    HW2 3986  12.306   2.494  11.474
  697SOL     OW 3987  10.986  13.011  10.230
  697SOL    HW1 3988  10.913  12.970  10.183
  697SOL    HW2 3989  11.061  12.955  10.211
  698SOL     OW 3990   5.022   0.712  13.812
  698SOL    HW1 3991   5.060   0.799  13.800
  698SOL    HW2 3992   5.096   0.652  13.799
  699SOL     OW 3993   5.389  14.293   5.689
  699SOL    HW1 3994   5.415  14.262   5.776
  699SOL    HW2 3995   5.461  14.350   5.662
  700SOL     OW 3996   3.863   8.701   6.130
  700SOL    HW1 3997   3.777   8.692   6.171
  700SOL    HW2 3998   3.896   8.785   6.161
  701SOL     OW 3999   4.274   6.398   6.010
  701SOL    HW1 4000   4.192   6.447   6.012
  701SOL    HW2 4001   4.254   6.318   6.060
  702SOL     OW 4002  11.788  10.516   7.613
  702SOL    HW1 4003  11.704  10.492   7.654
  702SOL    HW2 4004  11.778  10.489   7.521
  703SOL     OW 4005  11.713   1.890   8.864
  703SOL    HW1 4006  11.712   1.795   8.879
  703SOL    HW2 4007  11.624   1.911   8.835
  704SOL     OW 4008   1.861   6.782   4.368
  704SOL    HW1 4009   1.925   6.718   4.338
  704SOL    HW2 4010   1.784   6.730   4.391
  705SOL     OW 4011   4.551   5.440  13.899
  705SOL    HW1 4012   4.516   5.431  13.987
  705SOL    HW2 4013   4.618   5.507  13.906
  706SOL     OW 4014   2.076  13.180   6.006
  706SOL    HW1 4015   2.016  13.242   5.965
  706SOL    HW2 4016   2.029  13.097   6.008
  707SOL     OW 4017   6.100   8.024  10.794
  707SOL    HW1 4018   6.039   8.047  10.724
  707SOL    HW2 4019   6.113   8.106  10.842
  708SOL     OW 4020   6.953  13.268   7.459
  708SOL    HW1 4021   6.871  13.311   7.432
  708SOL    HW2 4022   6.974  13.307   7.543
  709SOL     OW 4023   7.329   0.754   5.952
  709SOL    HW1 4024   7.328   0.687   6.020
  709SOL    HW2 4025   7.245   0.745   5.907
  710SOL     OW 4026   3.440   7.170   6.327
  710SOL    HW1 4027   3.395   7.087   6.342
  710SOL    HW2 4028   3.527   7.157   6.366
  711SOL     OW 4029  10.307   8.509  11.649
  711SOL    HW1 4030  10.222   8.544  11.621
  711SOL    HW2 4031  10.370   8.575  11.621
  712SOL     OW 4032   3.784   5.912   2.136
  712SOL    HW1 4033   3.819   5.867   2.059
  712SOL    HW2 4034   3.805   6.004   2.122
  713SOL     OW 4035   2.230   5.557   4.753
  713SOL    HW1 4036   2.198   5.609   4.827
  713SOL    HW2 4037   2.183   5.474   4.760
  714SOL     OW 4038   2.071   5.002   0.903
  714SOL    HW1 4039   2.141   5.036   0.848
  714SOL    HW2 4040   1.991   5.016   0.853
  715SOL     OW 4041  12.790  13.827   1.373
  715SOL    HW1 4042  12.761  13.822   1.464
  715SOL    HW2 4043  12.758  13.746   1.333
  716SOL     OW 4044   4.736  11.481   5.914
  716SOL    HW1 4045   4.827  11.460   5.892
  716SOL    HW2 4046   4.731  11.576   5.901
  717SOL     OW 4047   6.948  11.898   0.163
  717SOL    HW1 4048   6.998  11.892   0.082
  717SOL    HW2 4049   6.960  11.812   0.205
  718SOL     OW 4050  12.143   2.207   0.122
  718SOL    HW1 4051  12.162   2.261   0.045
  718SOL    HW2 4052  12.069   2.152   0.096
  719SOL     OW 4053   2.854  14.441   7.641
  719SOL    HW1 4054   2.868  14.412   7.731
  719SOL    HW2 4055   2.919  14.392   7.590
  720SOL     OW 4056  14.283  13.188  14.631
  720SOL    HW1 4057  14.309  13.182  14.723
  720SOL    HW2 4058  14.222  13.262  14.627
  721SOL     OW 4059  11.796   8.956  12.545
  721SOL    HW1 4060  11.859   8.891  12.576
  721SOL    HW2 4061  11.721   8.946  12.605
  722SOL     OW 4062   9.903  14.679  14.261
  722SOL    HW1 4063   9.980  14.702  14.209
  722SOL    HW2 4064   9.835  14.740  14.232
  723SOL     OW 4065   1.220  14.789   5.852
  723SOL    HW1 4066   1.203  14.874   5.892
  723SOL    HW2 4067   1.229  14.807   5.759
  724SOL     OW 4068  10.357   6.093  11.433
  724SOL    HW1 4069  10.438   6.142  11.416
  724SOL    HW2 4070  10.307   6.151  11.491
  725SOL     OW 4071   3.774   6.498   5.249
  725SOL    HW1 4072   3.774   6.591   5.229
  725SOL    HW2 4073   3.722   6.490   5.329
  726SOL     OW 4074  14.303   3.847  14.816
  726SOL    HW1 4075  14.286   3.781   0.003
  726SOL    HW2 4076  14.398   3.844  14.804
  727SOL     OW 4077   0.924   1.573   1.486
  727SOL    HW1 4078   0.837   1.533   1.493
  727SOL    HW2 4079   0.911   1.663   1.517
  728SOL     OW 4080   9.267   6.517   3.362
  728SOL    HW1 4081   9.246   6.608   3.384
  728SOL    HW2 4082   9.292   6.520   3.270
  729SOL     OW 4083  11.751   1.480  14.312
  729SOL    HW1 4084  11.795   1.560  14.285
  729SOL    HW2 4085  11.778   1.467  14.403
  730SOL     OW 4086   0.245  13.791   7.612
  730SOL    HW1 4087   0.249  13.869   7.668
  730SOL    HW2 4088   0.158  13.754   7.627
  731SOL     OW 4089  14.180  12.063  14.625
  731SOL    HW1 4090  14.261  12.040  14.672
  731SOL    HW2 4091  14.147  11.979  14.593
  732SOL     OW 4092   2.059   5.001  11.233
  732SOL    HW1 4093   2.019   5.047  11.308
  732SOL    HW2 4094   2.002   5.021  11.159
  733SOL     OW 4095   1.465   4.722   0.170
  733SOL    HW1 4096   1.398   4.788   0.190
  733SOL    HW2 4097   1.474   4.672   0.251
  734SOL     OW 4098  12.441   6.438   1.143
  734SOL    HW1 4099  12.499   6.503   1.104
  734SOL    HW2 4100  12.479   6.354   1.117
  735SOL     OW 4101  14.479  14.495  14.675
  735SOL    HW1 4102  14.414  14.432  14.708
  735SOL    HW2 4103  14.476  14.567  14.739
  736SOL     OW 4104   8.091   4.032   3.457
  736SOL    HW1 4105   8.182   4.032   3.488
  736SOL    HW2 4106   8.097   4.027   3.362
  737SOL     OW 4107   2.545  14.280   9.676
  737SOL    HW1 4108   2.618  14.234   9.718
  737SOL    HW2 4109   2.506  14.215   9.618
  738SOL     OW 4110  13.552  12.112  10.990
  738SOL    HW1 4111  13.514  12.066  10.916
  738SOL    HW2 4112  13.646  12.114  10.972
  739SOL     OW 4113  12.832  13.203   6.978
  739SOL    HW1 4114  12.921  13.174   6.999
  739SOL    HW2 4115  12.828  13.293   7.010
  740SOL     OW 4116  11.356  12.629  12.786
  740SOL    HW1 4117  11.391  12.716  12.802
  740SOL    HW2 4118  11.274  12.643  12.740
  741SOL     OW 4119   2.710  11.890  14.274
  741SOL    HW1 4120   2.772  11.828  14.237
  741SOL    HW2 4121   2.702  11.959  14.209
  742SOL     OW 4122   3.735  13.502  13.095
  742SOL    HW1 4123   3.711  13.454  13.175
  742SOL    HW2 4124   3.784  13.439  13.043
  743SOL     OW 4125  12.181   9.442  12.049
  743SOL    HW1 4126  12.123   9.400  12.113
  743SOL    HW2 4127  12.239   9.372  12.019
  744SOL     OW 4128   0.676   4.570  10.500
  744SOL    HW1 4129   0.620   4.626  10.446
  744SOL    HW2 4130   0.702   4.499  10.443
  745SOL     OW 4131  13.829   0.180   4.642
  745SOL    HW1 4132  13.914   0.139   4.657
  745SOL    HW2 4133  13.783   0.120   4.583
  746SOL     OW 4134   1.863   5.491   8.375
  746SOL    HW1 4135   1.824   5.407   8.349
  746SOL    HW2 4136   1.799   5.556   8.346
  747SOL     OW 4137  12.320   4.094   2.272
  747SOL    HW1 4138  12.382   4.067   2.203
  747SOL    HW2 4139  12.287   4.012   2.307
  748SOL     OW 4140  14.215   2.626   9.330
  748SOL    HW1 4141  14.274   2.550   9.327
  748SOL    HW2 4142  14.153   2.605   9.400
  749SOL     OW 4143   2.168   2.555  14.337
  749SOL    HW1 4144   2.086   2.549  14.288
  749SOL    HW2 4145   2.234   2.578  14.272
  750SOL     OW 4146   2.655   0.829   8.792
  750SOL    HW1 4147   2.690   0.835   8.703
  750SOL    HW2 4148   2.580   0.888   8.792
  751SOL     OW 4149  10.662  12.806   4.075
  751SOL    HW1 4150  10.673  12.832   3.984
  751SOL    HW2 4151  10.744  12.760   4.097
  752SOL     OW 4152  12.294   2.773   3.874
  752SOL    HW1 4153  12.321   2.802   3.787
  752SOL    HW2 4154  12.361   2.808   3.933
  753SOL     OW 4155  12.309   4.480   1.005
  753SOL    HW1 4156  12.324   4.509   0.915
  753SOL    HW2 4157  12.358   4.542   1.059
  754SOL     OW 4158   0.132   3.147   1.698
  754SOL    HW1 4159   0.107   3.054   1.699
  754SOL    HW2 4160   0.106   3.180   1.784
  755SOL     OW 4161   1.951   8.555   0.904
  755SOL    HW1 4162   2.028   8.546   0.960
  755SOL    HW2 4163   1.922   8.645   0.917
  756SOL     OW 4164   5.018   5.689   7.287
  756SOL    HW1 4165   5.071   5.645   7.353
  756SOL    HW2 4166   4.945   5.727   7.336
  757SOL     OW 4167  13.966   4.560   5.799
  757SOL    HW1 4168  13.999   4.649   5.811
  757SOL    HW2 4169  14.044   4.505   5.796
  758SOL     OW 4170   0.985   1.012   0.263
  758SOL    HW1 4171   0.912   1.061   0.226
  758SOL    HW2 4172   1.045   1.080   0.296
  759SOL     OW 4173   9.698   9.883   8.196
  759SOL    HW1 4174   9.711   9.793   8.167
  759SOL    HW2 4175   9.604   9.899   8.186
  760SOL     OW 4176   4.097  10.739   1.987
  760SOL    HW1 4177   4.087  10.828   1.954
  760SOL    HW2 4178   4.009  10.714   2.015
  761SOL     OW 4179   7.337   6.408   9.634
  761SOL    HW1 4180   7.291   6.344   9.688
  761SOL    HW2 4181   7.346   6.485   9.690
  762SOL     OW 4182  12.504  14.538   7.523
  762SOL    HW1 4183  12.512  14.452   7.481
  762SOL    HW2 4184  12.502  14.600   7.451
  763SOL     OW 4185   7.423  12.318  12.846
  763SOL    HW1 4186   7.502  12.352  12.803
  763SOL    HW2 4187   7.457  12.271  12.922
  764SOL     OW 4188  12.414   1.775   9.421
  764SOL    HW1 4189  12.399   1.691   9.464
  764SOL    HW2 4190  12.507   1.773   9.398
  765SOL     OW 4191   5.377  10.914   0.379
  765SOL    HW1 4192   5.405  10.920   0.470
  765SOL    HW2 4193   5.287  10.882   0.384
  766SOL     OW 4194   7.004   8.911   3.848
  766SOL    HW1 4195   6.953   8.859   3.910
  766SOL    HW2 4196   7.053   8.972   3.902
  767SOL     OW 4197   3.459   5.338   4.984
  767SOL    HW1 4198   3.388   5.329   4.921
  767SOL    HW2 4199   3.539   5.330   4.932
  768SOL     OW 4200  13.113   5.992   5.047
  768SOL    HW1 4201  13.090   5.902   5.070
  768SOL    HW2 4202  13.205   6.000   5.071
  769SOL     OW 4203  10.586   1.798   0.475
  769SOL    HW1 4204  10.622   1.750   0.549
  769SOL    HW2 4205  10.567   1.885   0.509
  770SOL     OW 4206   2.433  14.433  11.201
  770SOL    HW1 4207   2.504  14.467  11.147
  770SOL    HW2 4208   2.356  14.435  11.143
  771SOL     OW 4209  10.150   9.259   0.792
  771SOL    HW1 4210  10.134   9.303   0.708
  771SOL    HW2 4211  10.235   9.293   0.821
  772SOL     OW 4212   7.390   3.318   2.045
  772SOL    HW1 4213   7.465   3.367   2.012
  772SOL    HW2 4214   7.358   3.269   1.969
  773SOL     OW 4215  12.581   0.034   9.861
  773SOL    HW1 4216  12.599  14.839   9.803
  773SOL    HW2 4217  12.495   0.064   9.834
  774SOL     OW 4218  14.495   3.212   0.056
  774SOL    HW1 4219  14.514   3.154  14.862
  774SOL    HW2 4220  14.565   3.278   0.052
  775SOL     OW 4221   4.619   0.160  12.671
  775SOL    HW1 4222   4.610   0.249  12.636
  775SOL    HW2 4223   4.706   0.131  12.644
  776SOL     OW 4224   2.969   9.430   9.001
  776SOL    HW1 4225   3.014   9.473   9.073
  776SOL    HW2 4226   2.929   9.353   9.040
  777SOL     OW 4227   0.771  12.407  10.109
  777SOL    HW1 4228   0.836  12.374  10.171
  777SOL    HW2 4229   0.784  12.501  10.107
  778SOL     OW 4230  10.361   8.282   8.960
  778SOL    HW1 4231  10.371   8.210   9.022
  778SOL    HW2 4232  10.447   8.292   8.919
  779SOL     OW 4233  14.457  13.869   6.489
  779SOL    HW1 4234  14.377  13.870   6.542
  779SOL    HW2 4235  14.478  13.776   6.478
  780SOL     OW 4236  10.202   6.710   7.709
  780SOL    HW1 4237  10.277   6.724   7.765
  780SOL    HW2 4238  10.206   6.617   7.685
  781SOL     OW 4239   6.319   3.202   0.270
  781SOL    HW1 4240   6.355   3.287   0.243
  781SOL    HW2 4241   6.248   3.186   0.209
  782SOL     OW 4242   6.155  14.671   7.214
  782SOL    HW1 4243   6.122  14.708   7.295
  782SOL    HW2 4244   6.223  14.610   7.241
  783SOL     OW 4245  13.133   1.587   3.959
  783SOL    HW1 4246  13.219   1.544   3.959
  783SOL    HW2 4247  13.153   1.680   3.957
  784SOL     OW 4248   9.202   1.338   9.371
  784SOL    HW1 4249   9.263   1.266   9.354
  784SOL    HW2 4250   9.116   1.301   9.350
  785SOL     OW 4251   3.801  10.803   8.010
  785SOL    HW1 4252   3.850  10.882   8.032
  785SOL    HW2 4253   3.848  10.732   8.054
  786SOL     OW 4254   8.753   4.707   0.494
  786SOL    HW1 4255   8.786   4.721   0.405
  786SOL    HW2 4256   8.774   4.789   0.540
  787SOL     OW 4257  10.426   2.910  13.911
  787SOL    HW1 4258  10.337   2.938  13.890
  787SOL    HW2 4259  10.415   2.830  13.961
  788SOL     OW 4260  14.173   4.751   6.841
  788SOL    HW1 4261  14.193   4.659   6.829
  788SOL    HW2 4262  14.094   4.752   6.894
  789SOL     OW 4263  12.054  12.105   7.734
  789SOL    HW1 4264  12.079  12.190   7.697
  789SOL    HW2 4265  11.993  12.068   7.671
  790SOL     OW 4266  14.519  10.565   0.670
  790SOL    HW1 4267  14.564  10.481   0.675
  790SOL    HW2 4268  14.472  10.562   0.586
  791SOL     OW 4269   1.338  11.754   3.614
  791SOL    HW1 4270   1.421  11.724   3.575
  791SOL    HW2 4271   1.288  11.788   3.539
  792SOL     OW 4272   5.580  13.340  13.705
  792SOL    HW1 4273   5.600  13.270  13.767
  792SOL    HW2 4274   5.655  13.343  13.647
  793SOL     OW 4275  11.288   2.141   7.707
  793SOL    HW1 4276  11.360   2.085   7.735
  793SOL    HW2 4277  11.322   2.230   7.713
  794SOL     OW 4278   7.615  13.112   4.482
  794SOL    HW1 4279   7.596  13.162   4.402
  794SOL    HW2 4280   7.675  13.168   4.531
  795SOL     OW 4281  10.140  12.380  12.228
  795SOL    HW1 4282  10.114  12.393  12.136
  795SOL    HW2 4283  10.115  12.462  12.271
  796SOL     OW 4284   7.615   0.798   4.270
  796SOL    HW1 4285   7.657   0.722   4.311
  796SOL    HW2 4286   7.576   0.764   4.190
  797SOL     OW 4287   1.931   0.005   9.626
  797SOL    HW1 4288   1.895  14.829   9.695
  797SOL    HW2 4289   1.977  14.823   9.568
  798SOL     OW 4290   5.556   2.297   5.818
  798SOL    HW1 4291   5.535   2.205   5.838
  798SOL    HW2 4292   5.639   2.292   5.770
  799SOL     OW 4293   4.152  13.441   1.101
  799SOL    HW1 4294   4.090  13.374   1.129
  799SOL    HW2 4295   4.224  13.435   1.164
  800SOL     OW 4296   1.995   0.233   9.746
  800SOL    HW1 4297   1.914   0.249   9.795
  800SOL    HW2 4298   1.978   0.153   9.696
  801SOL     OW 4299   9.072  12.766   2.704
  801SOL    HW1 4300   9.026  12.809   2.776
  801SOL    HW2 4301   9.158  12.745   2.739
  802SOL     OW 4302   8.325   9.458   1.032
  802SOL    HW1 4303   8.314   9.367   1.059
  802SOL    HW2 4304   8.324   9.508   1.114
  803SOL     OW 4305  11.254   8.745  13.302
  803SOL    HW1 4306  11.198   8.669  13.319
  803SOL    HW2 4307  11.290   8.767  13.388
  804SOL     OW 4308   1.242   2.718   4.449
  804SOL    HW1 4309   1.285   2.632   4.442
  804SOL    HW2 4310   1.306   2.780   4.414
  805SOL     OW 4311   6.367   9.346  14.754
  805SOL    HW1 4312   6.281   9.324  14.717
  805SOL    HW2 4313   6.421   9.368  14.678
  806SOL     OW 4314  14.494   2.740   8.343
  806SOL    HW1 4315  14.426   2.802   8.369
  806SOL    HW2 4316  14.469   2.714   8.253
  807SOL     OW 4317   3.621   1.982   1.491
  807SOL    HW1 4318   3.627   2.076   1.476
  807SOL    HW2 4319   3.536   1.969   1.532
  808SOL     OW 4320   3.785  12.300   9.443
  808SOL    HW1 4321   3.700  12.269   9.412
  808SOL    HW2 4322   3.847  12.274   9.374
  809SOL     OW 4323   8.180   5.059   8.150
  809SOL    HW1 4324   8.144   5.109   8.077
  809SOL    HW2 4325   8.262   5.104   8.172
  810SOL     OW 4326   7.567   1.613  11.398
  810SOL    HW1 4327   7.619   1.532  11.405
  810SOL    HW2 4328   7.534   1.627  11.487
  811SOL     OW 4329   2.152   5.458   1.690
  811SOL    HW1 4330   2.113   5.509   1.619
  811SOL    HW2 4331   2.200   5.388   1.647
  812SOL     OW 4332   5.940  14.182   1.176
  812SOL    HW1 4333   6.002  14.217   1.113
  812SOL    HW2 4334   5.859  14.172   1.126
  813SOL     OW 4335   3.009   8.176  12.585
  813SOL    HW1 4336   2.939   8.214  12.532
  813SOL    HW2 4337   3.021   8.238  12.657
  814SOL     OW 4338   7.411   3.257   7.454
  814SOL    HW1 4339   7.448   3.247   7.542
  814SOL    HW2 4340   7.388   3.350   7.448
  815SOL     OW 4341   1.522   2.392  13.460
  815SOL    HW1 4342   1.537   2.373  13.367
  815SOL    HW2 4343   1.498   2.307  13.497
  816SOL     OW 4344  12.443  14.872   1.262
  816SOL    HW1 4345  12.464  14.832   1.178
  816SOL    HW2 4346  12.348  14.869   1.267
  817SOL     OW 4347   2.167  11.767   1.407
  817SOL    HW1 4348   2.107  11.700   1.439
  817SOL    HW2 4349   2.134  11.789   1.320
  818SOL     OW 4350  12.582   1.173   4.598
  818SOL    HW1 4351  12.555   1.232   4.527
  818SOL    HW2 4352  12.590   1.230   4.674
  819SOL     OW 4353  10.062   4.466  13.710
  819SOL    HW1 4354  10.013   4.383  13.709
  819SOL    HW2 4355  10.147   4.443  13.748
  820SOL     OW 4356   1.032   6.135  11.293
  820SOL    HW1 4357   1.103   6.130  11.357
  820SOL    HW2 4358   1.002   6.225  11.298
  821SOL     OW 4359   4.689   4.781   7.923
  821SOL    HW1 4360   4.738   4.709   7.963
  821SOL    HW2 4361   4.679   4.755   7.831
  822SOL     OW 4362  11.367  11.236   8.292
  822SOL    HW1 4363  11.415  11.283   8.224
  822SOL    HW2 4364  11.288  11.288   8.306
  823SOL     OW 4365   6.134   8.738  14.594
  823SOL    HW1 4366   6.114   8.645  14.589
  823SOL    HW2 4367   6.228   8.742  14.607
  824SOL     OW 4368   9.553  11.230   7.850
  824SOL    HW1 4369   9.648  11.230   7.866
  824SOL    HW2 4370   9.517  11.275   7.926
  825SOL     OW 4371  10.069   5.383   7.742
  825SOL    HW1 4372  10.082   5.455   7.680
  825SOL    HW2 4373   9.997   5.413   7.798
  826SOL     OW 4374  10.545   9.345  10.198
  826SOL    HW1 4375  10.635   9.364  10.173
  826SOL    HW2 4376  10.552   9.294  10.279
  827SOL     OW 4377   7.187  14.337   9.648
  827SOL    HW1 4378   7.146  14.417   9.682
  827SOL    HW2 4379   7.208  14.358   9.558
  828SOL     OW 4380  11.729  13.433   4.213
  828SOL    HW1 4381  11.734  13.359   4.274
  828SOL    HW2 4382  11.653  13.483   4.243
  829SOL     OW 4383   8.657   2.550  14.594
  829SOL    HW1 4384   8.710   2.493  14.650
  829SOL    HW2 4385   8.710   2.561  14.514
  830SOL     OW 4386   1.148   9.846   5.098
  830SOL    HW1 4387   1.158   9.806   5.185
  830SOL    HW2 4388   1.154   9.772   5.037
  831SOL     OW 4389  14.246   9.058   4.270
  831SOL    HW1 4390  14.291   9.033   4.351
  831SOL    HW2 4391  14.179   8.991   4.258
  832SOL     OW 4392   9.716  12.108   1.825
  832SOL    HW1 4393   9.738  12.147   1.741
  832SOL    HW2 4394   9.622  12.122   1.834
  833SOL     OW 4395   5.561   1.941   0.665
  833SOL    HW1 4396   5.489   1.892   0.703
  833SOL    HW2 4397   5.635   1.926   0.725
  834SOL     OW 4398  12.530   0.562   4.232
  834SOL    HW1 4399  12.540   0.498   4.161
  834SOL    HW2 4400  12.513   0.509   4.310
  835SOL     OW 4401   6.353   4.503   9.962
  835SOL    HW1 4402   6.295   4.483  10.035
  835SOL    HW2 4403   6.301   4.483   9.884
  836SOL     OW 4404  13.971   3.454  11.143
  836SOL    HW1 4405  14.035   3.395  11.105
  836SOL    HW2 4406  14.019   3.536  11.155
  837SOL     OW 4407   1.102   0.918  12.060
  837SOL    HW1 4408   1.081   0.861  11.986
  837SOL    HW2 4409   1.118   1.004  12.020
  838SOL     OW 4410   2.431  13.338   4.026
  838SOL    HW1 4411   2.392  13.391   3.957
  838SOL    HW2 4412   2.524  13.360   4.024
  839SOL     OW 4413  11.043   3.212   4.098
  839SOL    HW1 4414  10.966   3.184   4.048
  839SOL    HW2 4415  11.108   3.235   4.031
  840SOL     OW 4416  14.291   2.936   8.413
  840SOL    HW1 4417  14.207   2.891   8.428
  840SOL    HW2 4418  14.283   3.018   8.462
  841SOL     OW 4419   8.212  12.926   0.649
  841SOL    HW1 4420   8.289  12.873   0.673
  841SOL    HW2 4421   8.138  12.877   0.684
  842SOL     OW 4422   2.145  14.056   4.312
  842SOL    HW1 4423   2.112  14.065   4.401
  842SOL    HW2 4424   2.226  14.005   4.322
  843SOL     OW 4425  13.743  10.113  10.957
  843SOL    HW1 4426  13.796  10.055  10.903
  843SOL    HW2 4427  13.713  10.181  10.898
  844SOL     OW 4428   4.102  10.978   3.122
  844SOL    HW1 4429   4.117  10.916   3.050
  844SOL    HW2 4430   4.013  10.960   3.151
  845SOL     OW 4431   5.502   4.539  10.202
  845SOL    HW1 4432   5.571   4.482  10.170
  845SOL    HW2 4433   5.489   4.604  10.133
  846SOL     OW 4434   9.021  10.212   2.283
  846SOL    HW1 4435   9.087  10.168   2.230
  846SOL    HW2 4436   9.000  10.149   2.352
  847SOL     OW 4437   7.399   7.304  13.174
  847SOL    HW1 4438   7.430   7.263  13.094
  847SOL    HW2 4439   7.305   7.317  13.160
  848SOL     OW 4440  12.585   3.929  14.553
  848SOL    HW1 4441  12.584   3.967  14.641
  848SOL    HW2 4442  12.567   4.003  14.495
  849SOL     OW 4443   8.149   5.919   5.718
  849SOL    HW1 4444   8.167   5.870   5.798
  849SOL    HW2 4445   8.228   5.909   5.665
  850SOL     OW 4446   8.187  13.414  11.643
  850SOL    HW1 4447   8.120  13.381  11.703
  850SOL    HW2 4448   8.167  13.507  11.633
  851SOL     OW 4449   4.532  14.833   6.152
  851SOL    HW1 4450   4.597  14.786   6.206
  851SOL    HW2 4451   4.512   0.032   6.203
  852SOL     OW 4452   3.515  11.966   1.655
  852SOL    HW1 4453   3.601  11.925   1.660
  852SOL    HW2 4454   3.455  11.903   1.694
  853SOL     OW 4455   2.895   1.097  13.202
  853SOL    HW1 4456   2.986   1.088  13.229
  853SOL    HW2 4457   2.900   1.129  13.111
  854SOL     OW 4458   2.555   4.748   6.989
  854SOL    HW1 4459   2.637   4.788   6.962
  854SOL    HW2 4460   2.550   4.765   7.083
  855SOL     OW 4461  12.198  13.932   7.164
  855SOL    HW1 4462  12.204  13.837   7.165
  855SOL    HW2 4463  12.282  13.962   7.199
  856SOL     OW 4464  10.809   8.922  14.847
  856SOL    HW1 4465  10.742   8.889  14.787
  856SOL    HW2 4466  10.892   8.902  14.803
  857SOL     OW 4467  12.756   8.128   1.852
  857SOL    HW1 4468  12.777   8.208   1.901
  857SOL    HW2 4469  12.840   8.093   1.825
  858SOL     OW 4470  12.245   9.600  11.863
  858SOL    HW1 4471  12.215   9.538  11.929
  858SOL    HW2 4472  12.176   9.666  11.858
  859SOL     OW 4473   9.729   0.641   5.453
  859SOL    HW1 4474   9.642   0.600   5.457
  859SOL    HW2 4475   9.711   0.735   5.441
  860SOL     OW 4476   4.211   0.281  14.172
  860SOL    HW1 4477   4.170   0.255  14.255
  860SOL    HW2 4478   4.144   0.332  14.127
  861SOL     OW 4479  14.098  13.710   8.827
  861SOL    HW1 4480  14.068  13.699   8.737
  861SOL    HW2 4481  14.072  13.630   8.872
  862SOL     OW 4482   8.271  10.410   0.445
  862SOL    HW1 4483   8.321  10.430   0.365
  862SOL    HW2 4484   8.283  10.315   0.457
  863SOL     OW 4485   6.120  12.541   6.859
  863SOL    HW1 4486   6.065  12.530   6.937
  863SOL    HW2 4487   6.207  12.559   6.894
  864SOL     OW 4488   9.174  14.576  13.562
  864SOL    HW1 4489   9.146  14.494  13.523
  864SOL    HW2 4490   9.235  14.550  13.631
  865SOL     OW 4491   6.055   6.508   4.081
  865SOL    HW1 4492   6.013   6.434   4.125
  865SOL    HW2 4493   5.991   6.538   4.017
  866SOL     OW 4494  11.516   4.884   8.659
  866SOL    HW1 4495  11.487   4.799   8.626
  866SOL    HW2 4496  11.435   4.933   8.673
  867SOL     OW 4497   1.912   1.392  11.813
  867SOL    HW1 4498   1.819   1.408  11.797
  867SOL    HW2 4499   1.929   1.433  11.898
  868SOL     OW 4500   3.390   2.741  13.883
  868SOL    HW1 4501   3.453   2.762  13.953
  868SOL    HW2 4502   3.439   2.753  13.802
  869SOL     OW 4503   0.445   3.640  11.856
  869SOL    HW1 4504   0.478   3.706  11.916
  869SOL    HW2 4505   0.369   3.681  11.814
  870SOL     OW 4506   0.282  14.616   6.559
  870SOL    HW1 4507   0.226  14.669   6.615
  870SOL    HW2 4508   0.324  14.554   6.618
  871SOL     OW 4509  10.407  13.313   1.893
  871SOL    HW1 4510  10.315  13.293   1.873
  871SOL    HW2 4511  10.443  13.230   1.925
  872SOL     OW 4512   4.020  13.900   4.042
  872SOL    HW1 4513   3.944  13.931   3.994
  872SOL    HW2 4514   4.078  13.865   3.975
  873SOL     OW 4515   4.772  11.207  11.037
  873SOL    HW1 4516   4.754  11.123  11.080
  873SOL    HW2 4517   4.685  11.245  11.020
  874SOL     OW 4518   6.520  12.480  13.343
  874SOL    HW1 4519   6.503  12.496  13.250
  874SOL    HW2 4520   6.597  12.534  13.363
  875SOL     OW 4521   2.454  12.018  11.605
  875SOL    HW1 4522   2.440  12.009  11.700
  875SOL    HW2 4523   2.367  12.038  11.570
  876SOL     OW 4524   9.630   3.553   6.255
  876SOL    HW1 4525   9.536   3.551   6.273
  876SOL    HW2 4526   9.670   3.502   6.325
  877SOL     OW 4527   8.787   3.163   3.409
  877SOL    HW1 4528   8.822   3.129   3.491
  877SOL    HW2 4529   8.692   3.158   3.420
  878SOL     OW 4530   7.927   8.591   2.641
  878SOL    HW1 4531   8.021   8.572   2.649
  878SOL    HW2 4532   7.884   8.508   2.661
  879SOL     OW 4533   5.804   1.343  10.414
  879SOL    HW1 4534   5.727   1.308  10.459
  879SOL    HW2 4535   5.823   1.425  10.459
  880SOL     OW 4536  12.516  13.511   8.599
  880SOL    HW1 4537  12.517  13.601   8.564
  880SOL    HW2 4538  12.567  13.517   8.679
  881SOL     OW 4539  14.694  13.592  10.778
  881SOL    HW1 4540  14.732  13.671  10.738
  881SOL    HW2 4541  14.766  13.529  10.781
  882SOL     OW 4542   3.142   7.110  10.401
  882SOL    HW1 4543   3.058   7.079  10.366
  882SOL    HW2 4544   3.198   7.033  10.402
  883SOL     OW 4545   2.690   1.990   7.162
  883SOL    HW1 4546   2.703   2.017   7.072
  883SOL    HW2 4547   2.603   2.023   7.185
  884SOL     OW 4548   1.106   3.620  14.111
  884SOL    HW1 4549   1.151   3.662  14.038
  884SOL    HW2 4550   1.040   3.563  14.070
  885SOL     OW 4551   7.275   0.936   8.204
  885SOL    HW1 4552   7.298   0.852   8.164
  885SOL    HW2 4553   7.219   0.913   8.278
  886SOL     OW 4554   8.967   9.092   2.773
  886SOL    HW1 4555   8.953   9.026   2.705
  886SOL    HW2 4556   8.979   9.174   2.725
  887SOL     OW 4557  10.224   9.015  14.544
  887SOL    HW1 4558  10.313   8.979  14.549
  887SOL    HW2 4559  10.173   8.959  14.603
  888SOL     OW 4560   3.350  14.151  12.037
  888SOL    HW1 4561   3.287  14.176  12.104
  888SOL    HW2 4562   3.434  14.145  12.083
  889SOL     OW 4563   5.536  14.269  10.622
  889SOL    HW1 4564   5.466  14.295  10.562
  889SOL    HW2 4565   5.569  14.351  10.657
  890SOL     OW 4566  12.948  11.513   2.543
  890SOL    HW1 4567  13.019  11.478   2.597
  890SOL    HW2 4568  12.991  11.578   2.487
  891SOL     OW 4569   8.826   6.570  13.878
  891SOL    HW1 4570   8.816   6.563  13.973
  891SOL    HW2 4571   8.841   6.663  13.862
  892SOL     OW 4572  10.255   1.570   8.496
  892SOL    HW1 4573  10.177   1.598   8.543
  892SOL    HW2 4574  10.262   1.631   8.422
  893SOL     OW 4575   2.789  10.913   8.856
  893SOL    HW1 4576   2.724  10.844   8.870
  893SOL    HW2 4577   2.765  10.951   8.771
  894SOL     OW 4578   0.890  13.362  12.921
  894SOL    HW1 4579   0.936  13.422  12.980
  894SOL    HW2 4580   0.960  13.322  12.870
  895SOL     OW 4581   7.233   7.822   2.209
  895SOL    HW1 4582   7.202   7.732   2.208
  895SOL    HW2 4583   7.251   7.843   2.117
  896SOL     OW 4584  14.228   4.283   1.850
  896SOL    HW1 4585  14.255   4.198   1.814
  896SOL    HW2 4586  14.267   4.285   1.937
  897SOL     OW 4587  12.239  14.302  13.908
  897SOL    HW1 4588  12.213  14.249  13.833
  897SOL    HW2 4589  12.335  14.301  13.906
  898SOL     OW 4590   5.613   6.337   2.946
  898SOL    HW1 4591   5.648   6.282   2.876
  898SOL    HW2 4592   5.519   6.318   2.946
  899SOL     OW 4593   5.591   6.197   7.742
  899SOL    HW1 4594   5.545   6.143   7.806
  899SOL    HW2 4595   5.621   6.273   7.792
  900SOL     OW 4596  14.711  10.177   2.318
  900SOL    HW1 4597  14.698  10.175   2.413
  900SOL    HW2 4598  14.636  10.226   2.284
  901SOL     OW 4599   2.604   5.914  10.830
  901SOL    HW1 4600   2.575   5.968  10.757
  901SOL    HW2 4601   2.601   5.824  10.795
  902SOL     OW 4602  11.580   1.188  11.651
  902SOL    HW1 4603  11.561   1.282  11.658
  902SOL    HW2 4604  11.659   1.183  11.598
  903SOL     OW 4605   4.675   4.286  10.053
  903SOL    HW1 4606   4.726   4.282  10.133
  903SOL    HW2 4607   4.614   4.358  10.066
  904SOL     OW 4608   0.195  14.026  13.327
  904SOL    HW1 4609   0.266  13.992  13.381
  904SOL    HW2 4610   0.152  14.092  13.382
  905SOL     OW 4611   8.132   4.013  13.562
  905SOL    HW1 4612   8.096   3.939  13.514
  905SOL    HW2 4613   8.202   4.047  13.506
  906SOL     OW 4614   3.750   9.679   4.629
  906SOL    HW1 4615   3.758   9.774   4.643
  906SOL    HW2 4616   3.728   9.671   4.536
  907SOL     OW 4617   7.093   4.224  11.035
  907SOL    HW1 4618   7.118   4.306  10.992
  907SOL    HW2 4619   7.047   4.175  10.967
  908SOL     OW 4620   9.668   8.320  12.518
  908SOL    HW1 4621   9.597   8.312  12.455
  908SOL    HW2 4622   9.659   8.409  12.553
  909SOL     OW 4623  12.480  13.034   1.875
  909SOL    HW1 4624  12.463  13.087   1.797
  909SOL    HW2 4625  12.401  13.042   1.928
  910SOL     OW 4626   6.938  11.534   5.644
  910SOL    HW1 4627   6.892  11.476   5.704
  910SOL    HW2 4628   7.006  11.479   5.604
  911SOL     OW 4629   9.345  13.765  11.290
  911SOL    HW1 4630   9.326  13.724  11.205
  911SOL    HW2 4631   9.407  13.835  11.269
  912SOL     OW 4632   1.774   0.520   7.855
  912SOL    HW1 4633   1.864   0.548   7.873
  912SOL    HW2 4634   1.782   0.429   7.827
  913SOL     OW 4635   9.268   9.361  14.592
  913SOL    HW1 4636   9.277   9.438  14.648
  913SOL    HW2 4637   9.355   9.321  14.592
  914SOL     OW 4638   8.366   8.327  12.095
  914SOL    HW1 4639   8.444   8.287  12.057
  914SOL    HW2 4640   8.300   8.258  12.094
  915SOL     OW 4641  13.973   2.064   4.584
  915SOL    HW1 4642  13.977   2.047   4.490
  915SOL    HW2 4643  14.016   2.149   4.595
  916SOL     OW 4644  12.692  12.615   3.448
  916SOL    HW1 4645  12.615  12.578   3.404
  916SOL    HW2 4646  12.695  12.706   3.418
  917SOL     OW 4647  14.390  13.827   1.126
  917SOL    HW1 4648  14.409  13.910   1.082
  917SOL    HW2 4649  14.437  13.833   1.209
  918SOL     OW 4650   5.405   9.120   6.337
  918SOL    HW1 4651   5.331   9.178   6.357
  918SOL    HW2 4652   5.369   9.057   6.275
  919SOL     OW 4653   0.784   6.167   8.161
  919SOL    HW1 4654   0.847   6.220   8.113
  919SOL    HW2 4655   0.728   6.130   8.094
  920SOL     OW 4656   9.401  10.784   5.560
  920SOL    HW1 4657   9.445  10.852   5.508
  920SOL    HW2 4658   9.330  10.831   5.604
  921SOL     OW 4659   4.206   8.691  13.550
  921SOL    HW1 4660   4.242   8.602  13.545
  921SOL    HW2 4661   4.262   8.742  13.492
  922SOL     OW 4662  14.233   9.471   9.813
  922SOL    HW1 4663  14.161   9.456   9.752
  922SOL    HW2 4664  14.309   9.429   9.772
  923SOL     OW 4665   3.773  14.126  14.233
  923SOL    HW1 4666   3.790  14.149  14.141
  923SOL    HW2 4667   3.745  14.034  14.230
  924SOL     OW 4668   2.223   3.003   9.195
  924SOL    HW1 4669   2.305   3.009   9.245
  924SOL    HW2 4670   2.247   3.029   9.107
  925SOL     OW 4671  10.924   7.465   8.476
  925SOL    HW1 4672  10.830   7.448   8.477
  925SOL    HW2 4673  10.939   7.513   8.395
  926SOL     OW 4674   1.208   4.246   4.716
  926SOL    HW1 4675   1.238   4.247   4.807
  926SOL    HW2 4676   1.288   4.254   4.664
  927SOL     OW 4677   4.269   7.156   2.636
  927SOL    HW1 4678   4.298   7.228   2.579
  927SOL    HW2 4679   4.184   7.185   2.670
  928SOL     OW 4680  14.452  12.678   4.385
  928SOL    HW1 4681  14.516  12.748   4.370
  928SOL    HW2 4682  14.370  12.714   4.351
  929SOL     OW 4683  11.749  13.161   4.296
  929SOL    HW1 4684  11.745  13.066   4.306
  929SOL    HW2 4685  11.840  13.178   4.272
  930SOL     OW 4686   5.315   5.177   7.909
  930SOL    HW1 4687   5.358   5.244   7.964
  930SOL    HW2 4688   5.276   5.116   7.972
  931SOL     OW 4689  14.097   6.228  14.501
  931SOL    HW1 4690  14.108   6.166  14.574
  931SOL    HW2 4691  14.161   6.297  14.518
  932SOL     OW 4692  11.250   5.505   3.731
  932SOL    HW1 4693  11.266   5.536   3.820
  932SOL    HW2 4694  11.184   5.566   3.696
  933SOL     OW 4695   3.457   8.561   7.984
  933SOL    HW1 4696   3.428   8.635   8.037
  933SOL    HW2 4697   3.377   8.531   7.939
  934SOL     OW 4698   5.953  13.019   8.310
  934SOL    HW1 4699   5.894  13.078   8.264
  934SOL    HW2 4700   5.981  13.068   8.387
  935SOL     OW 4701   2.764  10.908  14.190
  935SOL    HW1 4702   2.730  10.848  14.124
  935SOL    HW2 4703   2.717  10.990  14.174
  936SOL     OW 4704  14.581   6.104   7.256
  936SOL    HW1 4705  14.576   6.181   7.199
  936SOL    HW2 4706  14.598   6.031   7.196
  937SOL     OW 4707   8.668   8.133   6.883
  937SOL    HW1 4708   8.676   8.058   6.825
  937SOL    HW2 4709   8.604   8.106   6.949
  938SOL     OW 4710   3.131   1.662   5.681
  938SOL    HW1 4711   3.203   1.725   5.676
  938SOL    HW2 4712   3.054   1.711   5.653
  939SOL     OW 4713  12.479   2.139   2.918
  939SOL    HW1 4714  12.541   2.131   2.991
  939SOL    HW2 4715  12.519   2.203   2.859
  940SOL     OW 4716   5.093  11.012   3.349
  940SOL    HW1 4717   5.092  11.103   3.377
  940SOL    HW2 4718   5.002  10.993   3.324
  941SOL     OW 4719   9.144   2.574   3.075
  941SOL    HW1 4720   9.071   2.521   3.041
  941SOL    HW2 4721   9.116   2.599   3.163
  942SOL     OW 4722  14.082   5.715  10.712
  942SOL    HW1 4723  14.168   5.758  10.708
  942SOL    HW2 4724  14.091   5.637  10.657
  943SOL     OW 4725   9.088  13.891   2.253
  943SOL    HW1 4726   9.128  13.804   2.249
  943SOL    HW2 4727   9.104  13.921   2.343
  944SOL     OW 4728  14.268  11.244  13.266
  944SOL    HW1 4729  14.299  11.240  13.356
  944SOL    HW2 4730  14.179  11.278  13.273
  945SOL     OW 4731  11.938  13.648  13.396
  945SOL    HW1 4732  11.904  13.683  13.314
  945SOL    HW2 4733  11.962  13.725  13.447
  946SOL     OW 4734   7.734   5.301   6.649
  946SOL    HW1 4735   7.658   5.286   6.593
  946SOL    HW2 4736   7.809   5.276   6.594
  947SOL     OW 4737   5.249   4.212   8.199
  947SOL    HW1 4738   5.176   4.153   8.216
  947SOL    HW2 4739   5.290   4.226   8.284
  948SOL     OW 4740  14.642   7.750  13.847
  948SOL    HW1 4741  14.664   7.831  13.893
  948SOL    HW2 4742  14.685   7.758  13.762
  949SOL     OW 4743   1.329  14.146  10.586
  949SOL    HW1 4744   1.393  14.097  10.638
  949SOL    HW2 4745   1.380  14.187  10.517
  950SOL     OW 4746  13.566   9.714   0.526
  950SOL    HW1 4747  13.546   9.656   0.453
  950SOL    HW2 4748  13.661   9.723   0.524
  951SOL     OW 4749   7.603   5.999   6.526
  951SOL    HW1 4750   7.649   6.081   6.510
  951SOL    HW2 4751   7.533   6.021   6.586
  952SOL     OW 4752   6.977   1.087   5.087
  952SOL    HW1 4753   6.976   1.180   5.109
  952SOL    HW2 4754   7.018   1.045   5.163
  953SOL     OW 4755   7.702   5.142   2.187
  953SOL    HW1 4756   7.612   5.172   2.181
  953SOL    HW2 4757   7.699   5.051   2.159
  954SOL     OW 4758   6.002   5.414   4.186
  954SOL    HW1 4759   6.021   5.506   4.199
  954SOL    HW2 4760   6.047   5.369   4.258
  955SOL     OW 4761  13.193  14.061   8.124
  955SOL    HW1 4762  13.193  14.096   8.213
  955SOL    HW2 4763  13.167  14.135   8.069
  956SOL     OW 4764   0.895  11.404   3.416
  956SOL    HW1 4765   0.857  11.425   3.501
  956SOL    HW2 4766   0.987  11.387   3.434
  957SOL     OW 4767   4.500   4.304  10.804
  957SOL    HW1 4768   4.493   4.210  10.820
  957SOL    HW2 4769   4.594   4.323  10.810
  958SOL     OW 4770   4.457   2.856   9.253
  958SOL    HW1 4771   4.516   2.900   9.192
  958SOL    HW2 4772   4.473   2.763   9.240
  959SOL     OW 4773   3.855   3.290  11.110
  959SOL    HW1 4774   3.896   3.349  11.047
  959SOL    HW2 4775   3.762   3.314  11.108
  960SOL     OW 4776   5.506   9.616   7.865
  960SOL    HW1 4777   5.544   9.578   7.944
  960SOL    HW2 4778   5.572   9.602   7.797
  961SOL     OW 4779   3.534   7.560   3.459
  961SOL    HW1 4780   3.552   7.537   3.550
  961SOL    HW2 4781   3.609   7.612   3.432
  962SOL     OW 4782   0.844  12.333  14.796
  962SOL    HW1 4783   0.802  12.365  14.875
  962SOL    HW2 4784   0.788  12.363  14.725
  963SOL     OW 4785   1.003   3.158   9.789
  963SOL    HW1 4786   1.074   3.134   9.848
  963SOL    HW2 4787   0.944   3.083   9.791
  964SOL     OW 4788   8.668  11.667  12.535
  964SOL    HW1 4789   8.638  11.752  12.504
  964SOL    HW2 4790   8.693  11.620  12.456
  965SOL     OW 4791   9.411  14.505   7.189
  965SOL    HW1 4792   9.402  14.439   7.259
  965SOL    HW2 4793   9.499  14.541   7.202
  966SOL     OW 4794   4.453  11.081   5.182
  966SOL    HW1 4795   4.422  11.131   5.257
  966SOL    HW2 4796   4.541  11.053   5.207
  967SOL     OW 4797   2.556   2.826   2.465
  967SOL    HW1 4798   2.529   2.791   2.380
  967SOL    HW2 4799   2.512   2.770   2.529
  968SOL     OW 4800   5.870   5.005  11.184
  968SOL    HW1 4801   5.826   5.057  11.251
  968SOL    HW2 4802   5.903   4.929  11.232
  969SOL     OW 4803  12.572   8.299  12.936
  969SOL    HW1 4804  12.594   8.210  12.963
  969SOL    HW2 4805  12.533   8.289  12.849
  970SOL     OW 4806  12.770   3.242   7.191
  970SOL    HW1 4807  12.683   3.272   7.164
  970SOL    HW2 4808  12.788   3.289   7.272
  971SOL     OW 4809  12.994  12.735  10.774
  971SOL    HW1 4810  13.001  12.792  10.697
  971SOL    HW2 4811  13.021  12.791  10.847
  972SOL     OW 4812  14.446   9.404   3.929
  972SOL    HW1 4813  14.503   9.446   3.993
  972SOL    HW2 4814  14.451   9.310   3.950
  973SOL     OW 4815  13.004   7.670  13.524
  973SOL    HW1 4816  12.976   7.759  13.545
  973SOL    HW2 4817  12.958   7.649  13.443
  974SOL     OW 4818   4.749  14.388  13.596
  974SOL    HW1 4819   4.665  14.349  13.572
  974SOL    HW2 4820   4.753  14.380  13.691
  975SOL     OW 4821   2.756   6.424   1.015
  975SOL    HW1 4822   2.745   6.454   0.925
  975SOL    HW2 4823   2.742   6.503   1.069
  976SOL     OW 4824  13.162   5.282   8.422
  976SOL    HW1 4825  13.116   5.259   8.503
  976SOL    HW2 4826  13.143   5.375   8.409
  977SOL     OW 4827   3.262   9.997  10.904
  977SOL    HW1 4828   3.243   9.980  10.996
  977SOL    HW2 4829   3.309  10.080  10.904
  978SOL     OW 4830   6.168  11.659   3.212
  978SOL    HW1 4831   6.109  11.599   3.258
  978SOL    HW2 4832   6.201  11.717   3.281
  979SOL     OW 4833  10.935   6.072   8.973
  979SOL    HW1 4834  10.985   6.029   8.904
  979SOL    HW2 4835  10.888   6.143   8.928
  980SOL     OW 4836  10.142   2.475   8.950
  980SOL    HW1 4837  10.106   2.392   8.918
  980SOL    HW2 4838  10.181   2.453   9.035
  981SOL     OW 4839   4.747   9.649   5.782
  981SOL    HW1 4840   4.731   9.693   5.865
  981SOL    HW2 4841   4.806   9.576   5.804
  982SOL     OW 4842  10.946   9.019   5.232
  982SOL    HW1 4843  10.996   8.944   5.265
  982SOL    HW2 4844  10.855   8.991   5.238
  983SOL     OW 4845  14.646  14.422   6.293
  983SOL    HW1 4846  14.593  14.344   6.310
  983SOL    HW2 4847  14.626  14.445   6.203
  984SOL     OW 4848  14.280   5.469   1.188
  984SOL    HW1 4849  14.224   5.427   1.253
  984SOL    HW2 4850  14.362   5.422   1.193
  985SOL     OW 4851   6.075   1.128   5.744
  985SOL    HW1 4852   6.137   1.140   5.816
  985SOL    HW2 4853   6.119   1.069   5.684
  986SOL     OW 4854  13.606  14.106   8.202
  986SOL    HW1 4855  13.694  14.074   8.183
  986SOL    HW2 4856  13.593  14.087   8.295
  987SOL     OW 4857  10.628   9.665   5.983
  987SOL    HW1 4858  10.571   9.742   5.981
  987SOL    HW2 4859  10.574   9.594   5.949
  988SOL     OW 4860   0.620   0.133   1.213
  988SOL    HW1 4861   0.621   0.229   1.221
  988SOL    HW2 4862   0.674   0.115   1.136
  989SOL     OW 4863   3.445  13.658   3.851
  989SOL    HW1 4864   3.433  13.724   3.782
  989SOL    HW2 4865   3.428  13.574   3.807
  990SOL     OW 4866   0.267   7.875   3.982
  990SOL    HW1 4867   0.272   7.785   4.013
  990SOL    HW2 4868   0.278   7.928   4.061
  991SOL     OW 4869  12.898   9.140   3.174
  991SOL    HW1 4870  12.811   9.171   3.201
  991SOL    HW2 4871  12.956   9.215   3.190
  992SOL     OW 4872  11.700   6.946   8.904
  992SOL    HW1 4873  11.686   6.963   8.811
  992SOL    HW2 4874  11.677   7.028   8.948
  993SOL     OW 4875   7.805  13.167   9.698
  993SOL    HW1 4876   7.754  13.223   9.640
  993SOL    HW2 4877   7.795  13.079   9.662
  994SOL     OW 4878   7.681   7.595   1.056
  994SOL    HW1 4879   7.771   7.587   1.025
  994SOL    HW2 4880   7.686   7.572   1.149
  995SOL     OW 4881   3.004   7.435  13.442
  995SOL    HW1 4882   2.937   7.371  13.465
  995SOL    HW2 4883   3.029   7.474  13.526
  996SOL     OW 4884  12.074  11.910   4.701
  996SOL    HW1 4885  12.167  11.915   4.722
  996SOL    HW2 4886  12.071  11.913   4.605
  997SOL     OW 4887   9.744   7.929   5.854
  997SOL    HW1 4888   9.781   7.922   5.943
  997SOL    HW2 4889   9.720   7.839   5.832
  998SOL     OW 4890   7.010   2.264   6.310
  998SOL    HW1 4891   7.017   2.223   6.224
  998SOL    HW2 4892   7.058   2.346   6.303
  999SOL     OW 4893   9.430  10.962  13.763
  999SOL    HW1 4894   9.456  11.021  13.692
  999SOL    HW2 4895   9.423  11.018  13.840
 1000SOL     OW 4896   5.257   4.485   1.246
 1000SOL    HW1 4897   5.169   4.480   1.282
 1000SOL    HW2 4898   5.245   4.492   1.152
 1001SOL     OW 4899   1.238   4.015   5.782
 1001SOL    HW1 4900   1.316   3.977   5.821
 1001SOL    HW2 4901   1.175   3.943   5.779
 1002SOL     OW 4902   2.828   1.561   1.615
 1002SOL    HW1 4903   2.816   1.479   1.663
 1002SOL    HW2 4904   2.740   1.587   1.589
 1003SOL     OW 4905  14.237   0.600  12.976
 1003SOL    HW1 4906  14.315   0.551  12.951
 1003SOL    HW2 4907  14.228   0.667  12.909
 1004SOL     OW 4908   7.447  13.350  12.262
 1004SOL    HW1 4909   7.482  13.303  12.338
 1004SOL    HW2 4910   7.485  13.437  12.268
 1005SOL     OW 4911   5.320  10.536   0.332
 1005SOL    HW1 4912   5.340  10.519   0.424
 1005SOL    HW2 4913   5.386  10.599   0.304
 1006SOL     OW 4914  10.766   1.747   6.813
 1006SOL    HW1 4915  10.723   1.666   6.840
 1006SOL    HW2 4916  10.826   1.721   6.744
 1007SOL     OW 4917   7.444   8.642   8.386
 1007SOL    HW1 4918   7.436   8.614   8.478
 1007SOL    HW2 4919   7.367   8.695   8.371
 1008SOL     OW 4920  11.834   7.250   2.858
 1008SOL    HW1 4921  11.826   7.341   2.888
 1008SOL    HW2 4922  11.744   7.216   2.860
 1009SOL     OW 4923   9.676   4.419  14.553
 1009SOL    HW1 4924   9.611   4.434  14.484
 1009SOL    HW2 4925   9.726   4.343  14.523
 1010SOL     OW 4926   7.969  12.709   1.635
 1010SOL    HW1 4927   8.025  12.740   1.707
 1010SOL    HW2 4928   7.883  12.697   1.675
 1011SOL     OW 4929   8.157  13.931   0.282
 1011SOL    HW1 4930   8.093  14.001   0.297
 1011SOL    HW2 4931   8.171  13.932   0.187
 1012SOL     OW 4932   2.188   4.739   4.900
 1012SOL    HW1 4933   2.271   4.696   4.920
 1012SOL    HW2 4934   2.208   4.832   4.896
 1013SOL     OW 4935   5.465   8.656   6.689
 1013SOL    HW1 4936   5.446   8.592   6.757
 1013SOL    HW2 4937   5.438   8.740   6.726
 1014SOL     OW 4938   9.218   7.310  12.414
 1014SOL    HW1 4939   9.287   7.362  12.455
 1014SOL    HW2 4940   9.242   7.307  12.321
 1015SOL     OW 4941   0.917   1.483  13.915
 1015SOL    HW1 4942   0.990   1.481  13.853
 1015SOL    HW2 4943   0.929   1.564  13.964
 1016SOL     OW 4944   1.099   2.122   1.665
 1016SOL    HW1 4945   1.026   2.158   1.715
 1016SOL    HW2 4946   1.177   2.147   1.714
 1017SOL     OW 4947   9.492   7.940   7.811
 1017SOL    HW1 4948   9.549   7.893   7.751
 1017SOL    HW2 4949   9.407   7.898   7.802
 1018SOL     OW 4950   3.641   7.237   8.886
 1018SOL    HW1 4951   3.573   7.304   8.880
 1018SOL    HW2 4952   3.649   7.218   8.979
 1019SOL     OW 4953  10.951   3.136   2.228
 1019SOL    HW1 4954  10.921   3.084   2.153
 1019SOL    HW2 4955  10.973   3.221   2.190
 1020SOL     OW 4956   2.116   0.478  10.534
 1020SOL    HW1 4957   2.121   0.431  10.617
 1020SOL    HW2 4958   2.024   0.474  10.509
 1021SOL     OW 4959   3.297   5.602   4.772
 1021SOL    HW1 4960   3.227   5.649   4.726
 1021SOL    HW2 4961   3.371   5.662   4.770
 1022SOL     OW 4962   2.426   6.514   2.267
 1022SOL    HW1 4963   2.491   6.446   2.278
 1022SOL    HW2 4964   2.423   6.559   2.352
 1023SOL     OW 4965   7.042   2.167   1.750
 1023SOL    HW1 4966   7.051   2.215   1.668
 1023SOL    HW2 4967   6.948   2.167   1.768
 1024SOL     OW 4968   7.908   1.376  11.565
 1024SOL    HW1 4969   7.975   1.386  11.633
 1024SOL    HW2 4970   7.928   1.445  11.501
 1025SOL     OW 4971   7.394   5.543   8.667
 1025SOL    HW1 4972   7.345   5.544   8.749
 1025SOL    HW2 4973   7.486   5.554   8.693
 1026SOL     OW 4974   1.698   2.539  10.228
 1026SOL    HW1 4975   1.648   2.470  10.184
 1026SOL    HW2 4976   1.698   2.512  10.320
 1027SOL     OW 4977   4.227   3.627   4.598
 1027SOL    HW1 4978   4.288   3.683   4.647
 1027SOL    HW2 4979   4.171   3.589   4.665
 1028SOL     OW 4980   7.255   2.462  12.544
 1028SOL    HW1 4981   7.244   2.552  12.513
 1028SOL    HW2 4982   7.172   2.420  12.525
 1029SOL     OW 4983   3.842   6.703   6.764
 1029SOL    HW1 4984   3.815   6.637   6.700
 1029SOL    HW2 4985   3.801   6.675   6.845
 1030SOL     OW 4986   2.829   4.443   8.482
 1030SOL    HW1 4987   2.909   4.484   8.449
 1030SOL    HW2 4988   2.814   4.369   8.423
 1031SOL     OW 4989   9.298   9.658   1.604
 1031SOL    HW1 4990   9.295   9.722   1.533
 1031SOL    HW2 4991   9.330   9.707   1.680
 1032SOL     OW 4992  11.828   8.197  10.377
 1032SOL    HW1 4993  11.815   8.290  10.396
 1032SOL    HW2 4994  11.776   8.151  10.443
 1033SOL     OW 4995   8.356   1.163  13.913
 1033SOL    HW1 4996   8.416   1.211  13.970
 1033SOL    HW2 4997   8.307   1.232  13.867
 1034SOL     OW 4998   8.041   8.864   1.788
 1034SOL    HW1 4999   7.958   8.903   1.813
 1034SOL    HW2 5000   8.098   8.878   1.864
 1035SOL     OW 5001  10.548   4.762   5.658
 1035SOL    HW1 5002  10.609   4.775   5.585
 1035SOL    HW2 5003  10.533   4.668   5.661
 1036SOL     OW 5004  12.991   5.779   0.726
 1036SOL    HW1 5005  13.027   5.802   0.811
 1036SOL    HW2 5006  13.044   5.703   0.697
 1037SOL     OW 5007  10.138  14.000  10.385
 1037SOL    HW1 5008  10.212  13.954  10.346
 1037SOL    HW2 5009  10.162  14.011  10.477
 1038SOL     OW 5010   4.398   9.266   8.159
 1038SOL    HW1 5011   4.479   9.294   8.117
 1038SOL    HW2 5012   4.368   9.191   8.107
 1039SOL     OW 5013   9.050   2.729  13.603
 1039SOL    HW1 5014   9.073   2.650  13.652
 1039SOL    HW2 5015   9.123   2.741  13.543
 1040SOL     OW 5016  10.810   0.414  10.983
 1040SOL    HW1 5017  10.722   0.390  11.012
 1040SOL    HW2 5018  10.862   0.334  10.995
 1041SOL     OW 5019  11.470  13.228  13.585
 1041SOL    HW1 5020  11.522  13.295  13.541
 1041SOL    HW2 5021  11.513  13.146  13.563
 1042SOL     OW 5022   8.482  12.894   5.563
 1042SOL    HW1 5023   8.542  12.820   5.559
 1042SOL    HW2 5024   8.531  12.962   5.608
 1043SOL     OW 5025  13.316   4.945   6.907
 1043SOL    HW1 5026  13.318   4.949   7.003
 1043SOL    HW2 5027  13.257   4.872   6.888
 1044SOL     OW 5028   7.267   6.525   7.792
 1044SOL    HW1 5029   7.271   6.435   7.824
 1044SOL    HW2 5030   7.359   6.550   7.779
 1045SOL     OW 5031   0.701  11.470  11.701
 1045SOL    HW1 5032   0.607  11.462  11.719
 1045SOL    HW2 5033   0.743  11.425  11.775
 1046SOL     OW 5034   6.292   9.515   4.448
 1046SOL    HW1 5035   6.313   9.533   4.356
 1046SOL    HW2 5036   6.377   9.509   4.491
 1047SOL     OW 5037   0.437  12.405   0.313
 1047SOL    HW1 5038   0.391  12.331   0.353
 1047SOL    HW2 5039   0.418  12.479   0.372
 1048SOL     OW 5040   8.222  11.777   0.978
 1048SOL    HW1 5041   8.313  11.798   0.996
 1048SOL    HW2 5042   8.188  11.742   1.061
 1049SOL     OW 5043   8.239   1.115  14.141
 1049SOL    HW1 5044   8.144   1.121  14.129
 1049SOL    HW2 5045   8.275   1.121  14.053
 1050SOL     OW 5046  11.567   2.180  14.440
 1050SOL    HW1 5047  11.483   2.161  14.398
 1050SOL    HW2 5048  11.607   2.247  14.385
 1051SOL     OW 5049   6.035   2.861   3.767
 1051SOL    HW1 5050   6.049   2.772   3.734
 1051SOL    HW2 5051   6.122   2.891   3.794
 1052SOL     OW 5052   1.506   6.891  13.218
 1052SOL    HW1 5053   1.480   6.973  13.176
 1052SOL    HW2 5054   1.517   6.914  13.310
 1053SOL     OW 5055   7.463  13.576  14.675
 1053SOL    HW1 5056   7.381  13.549  14.635
 1053SOL    HW2 5057   7.530  13.558  14.608
 1054SOL     OW 5058   6.121  11.116   5.610
 1054SOL    HW1 5059   6.147  11.049   5.674
 1054SOL    HW2 5060   6.109  11.195   5.662
 1055SOL     OW 5061   3.268   2.876   2.999
 1055SOL    HW1 5062   3.271   2.782   2.982
 1055SOL    HW2 5063   3.175   2.898   3.001
 1056SOL     OW 5064   1.565  10.715  10.616
 1056SOL    HW1 5065   1.571  10.780  10.685
 1056SOL    HW2 5066   1.530  10.637  10.660
 1057SOL     OW 5067  11.137  12.116  13.246
 1057SOL    HW1 5068  11.170  12.201  13.219
 1057SOL    HW2 5069  11.179  12.054  13.185
 1058SOL     OW 5070  14.416   4.295   1.631
 1058SOL    HW1 5071  14.379   4.210   1.607
 1058SOL    HW2 5072  14.405   4.300   1.726
 1059SOL     OW 5073   5.639   7.488   2.156
 1059SOL    HW1 5074   5.646   7.500   2.061
 1059SOL    HW2 5075   5.636   7.393   2.169
 1060SOL     OW 5076   8.913   6.998   9.871
 1060SOL    HW1 5077   8.889   7.085   9.839
 1060SOL    HW2 5078   8.942   7.012   9.961
 1061SOL     OW 5079   7.776  13.258   6.113
 1061SOL    HW1 5080   7.715  13.200   6.067
 1061SOL    HW2 5081   7.808  13.317   6.045
 1062SOL     OW 5082   7.953   4.469   3.929
 1062SOL    HW1 5083   8.032   4.418   3.950
 1062SOL    HW2 5084   7.904   4.414   3.869
 1063SOL     OW 5085  12.592   9.580   4.172
 1063SOL    HW1 5086  12.588   9.569   4.077
 1063SOL    HW2 5087  12.683   9.605   4.190
 1064SOL     OW 5088   9.018   5.618  10.121
 1064SOL    HW1 5089   8.931   5.610  10.083
 1064SOL    HW2 5090   9.012   5.572  10.205
 1065SOL     OW 5091  11.900  13.891   4.732
 1065SOL    HW1 5092  11.991  13.900   4.701
 1065SOL    HW2 5093  11.897  13.804   4.770
 1066SOL     OW 5094  10.268   0.892   6.127
 1066SOL    HW1 5095  10.323   0.869   6.201
 1066SOL    HW2 5096  10.217   0.968   6.157
 1067SOL     OW 5097  11.542  14.589   6.065
 1067SOL    HW1 5098  11.625  14.565   6.024
 1067SOL    HW2 5099  11.480  14.595   5.992
 1068SOL     OW 5100   8.661  13.567  14.861
 1068SOL    HW1 5101   8.714  13.573   0.061
 1068SOL    HW2 5102   8.700  13.631  14.801
 1069SOL     OW 5103   2.527  12.254   9.940
 1069SOL    HW1 5104   2.446  12.295   9.967
 1069SOL    HW2 5105   2.590  12.277  10.009
 1070SOL     OW 5106   0.062  13.825   6.019
 1070SOL    HW1 5107   0.063  13.921   6.013
 1070SOL    HW2 5108  14.856  13.805   6.057
 1071SOL     OW 5109   1.010  11.261   9.537
 1071SOL    HW1 5110   1.096  11.264   9.580
 1071SOL    HW2 5111   0.985  11.353   9.528
 1072SOL     OW 5112   2.668   9.169   9.629
 1072SOL    HW1 5113   2.709   9.096   9.582
 1072SOL    HW2 5114   2.713   9.172   9.713
 1073SOL     OW 5115  13.314   3.299   4.099
 1073SOL    HW1 5116  13.367   3.236   4.149
 1073SOL    HW2 5117  13.313   3.264   4.010
 1074SOL     OW 5118   9.545   4.092   3.776
 1074SOL    HW1 5119   9.568   4.149   3.703
 1074SOL    HW2 5120   9.610   4.022   3.773
 1075SOL     OW 5121   6.087   0.610   5.274
 1075SOL    HW1 5122   6.015   0.673   5.277
 1075SOL    HW2 5123   6.066   0.545   5.341
 1076SOL     OW 5124   7.231   0.059   9.809
 1076SOL    HW1 5125   7.187   0.054   9.894
 1076SOL    HW2 5126   7.318   0.093   9.828
 1077SOL     OW 5127   8.463   9.753   1.303
 1077SOL    HW1 5128   8.370   9.774   1.312
 1077SOL    HW2 5129   8.495   9.747   1.393
 1078SOL     OW 5130  12.561  12.321   9.121
 1078SOL    HW1 5131  12.490  12.380   9.146
 1078SOL    HW2 5132  12.635  12.349   9.176
 1079SOL     OW 5133   4.399   8.228   6.898
 1079SOL    HW1 5134   4.441   8.314   6.904
 1079SOL    HW2 5135   4.328   8.240   6.835
 1080SOL     OW 5136  12.748   5.228   8.147
 1080SOL    HW1 5137  12.841   5.250   8.149
 1080SOL    HW2 5138  12.736   5.185   8.062
 1081SOL     OW 5139  10.896   2.627  12.399
 1081SOL    HW1 5140  10.818   2.647  12.348
 1081SOL    HW2 5141  10.964   2.609  12.334
 1082SOL     OW 5142   4.687   1.071   9.123
 1082SOL    HW1 5143   4.693   1.133   9.050
 1082SOL    HW2 5144   4.616   1.104   9.177
 1083SOL     OW 5145   1.348  14.631   9.954
 1083SOL    HW1 5146   1.330  14.624   9.860
 1083SOL    HW2 5147   1.289  14.699   9.985
 1084SOL     OW 5148   0.794   1.630  13.634
 1084SOL    HW1 5149   0.840   1.714  13.623
 1084SOL    HW2 5150   0.742   1.641  13.713
 1085SOL     OW 5151   2.400   1.461   4.693
 1085SOL    HW1 5152   2.400   1.504   4.779
 1085SOL    HW2 5153   2.488   1.477   4.658
 1086SOL     OW 5154   8.058   0.205   7.460
 1086SOL    HW1 5155   8.030   0.114   7.447
 1086SOL    HW2 5156   8.101   0.230   7.378
 1087SOL     OW 5157  12.980   3.616   6.391
 1087SOL    HW1 5158  12.922   3.550   6.352
 1087SOL    HW2 5159  12.934   3.699   6.378
 1088SOL     OW 5160  14.481   5.589   9.060
 1088SOL    HW1 5161  14.549   5.521   9.068
 1088SOL    HW2 5162  14.530   5.671   9.064
 1089SOL     OW 5163   1.869   4.811  11.788
 1089SOL    HW1 5164   1.934   4.774  11.729
 1089SOL    HW2 5165   1.865   4.904  11.765
 1090SOL     OW 5166  10.071  10.632   8.704
 1090SOL    HW1 5167   9.996  10.623   8.762
 1090SOL    HW2 5168  10.146  10.639   8.762
 1091SOL     OW 5169   9.929   4.907   4.852
 1091SOL    HW1 5170   9.967   4.857   4.780
 1091SOL    HW2 5171   9.996   4.907   4.920
 1092SOL     OW 5172  14.308   9.513  13.871
 1092SOL    HW1 5173  14.264   9.588  13.831
 1092SOL    HW2 5174  14.326   9.454  13.798
 1093SOL     OW 5175   6.196  13.321  14.637
 1093SOL    HW1 5176   6.174  13.257  14.569
 1093SOL    HW2 5177   6.207  13.269  14.716
 1094SOL     OW 5178  12.118  10.295   9.672
 1094SOL    HW1 5179  12.067  10.217   9.693
 1094SOL    HW2 5180  12.061  10.346   9.615
 1095SOL     OW 5181  13.902   2.647  10.105
 1095SOL    HW1 5182  13.922   2.584  10.174
 1095SOL    HW2 5183  13.826   2.695  10.137
 1096SOL     OW 5184   7.462  11.181   5.407
 1096SOL    HW1 5185   7.433  11.127   5.334
 1096SOL    HW2 5186   7.423  11.140   5.484
 1097SOL     OW 5187  14.394  14.824  14.285
 1097SOL    HW1 5188  14.444  14.745  14.305
 1097SOL    HW2 5189  14.319  14.820  14.344
 1098SOL     OW 5190  13.237   8.326  10.622
 1098SOL    HW1 5191  13.297   8.253  10.611
 1098SOL    HW2 5192  13.169   8.311  10.556
 1099SOL     OW 5193   8.145  14.648   0.685
 1099SOL    HW1 5194   8.059  14.646   0.643
 1099SOL    HW2 5195   8.141  14.580   0.752
 1100SOL     OW 5196   6.093   5.993   6.019
 1100SOL    HW1 5197   6.166   5.986   6.081
 1100SOL    HW2 5198   6.135   6.012   5.935
 1101SOL     OW 5199   2.626   7.485  10.901
 1101SOL    HW1 5200   2.643   7.495  10.995
 1101SOL    HW2 5201   2.605   7.392  10.891
 1102SOL     OW 5202   2.320   5.145   5.301
 1102SOL    HW1 5203   2.332   5.067   5.356
 1102SOL    HW2 5204   2.407   5.160   5.262
 1103SOL     OW 5205   0.432  10.549   7.795
 1103SOL    HW1 5206   0.508  10.491   7.790
 1103SOL    HW2 5207   0.427  10.590   7.708
 1104SOL     OW 5208   9.667  11.031  14.608
 1104SOL    HW1 5209   9.600  10.971  14.576
 1104SOL    HW2 5210   9.638  11.054  14.697
 1105SOL     OW 5211  14.251   7.611   2.332
 1105SOL    HW1 5212  14.318   7.545   2.314
 1105SOL    HW2 5213  14.184   7.596   2.266
 1106SOL     OW 5214   4.312   0.711  11.065
 1106SOL    HW1 5215   4.404   0.731  11.081
 1106SOL    HW2 5216   4.264   0.778  11.114
 1107SOL     OW 5217   0.497   5.825   2.544
 1107SOL    HW1 5218   0.528   5.747   2.498
 1107SOL    HW2 5219   0.570   5.851   2.600
 1108SOL     OW 5220  12.622   4.545   4.454
 1108SOL    HW1 5221  12.641   4.598   4.531
 1108SOL    HW2 5222  12.614   4.608   4.382
 1109SOL     OW 5223  13.795   5.145  14.443
 1109SOL    HW1 5224  13.701   5.133  14.458
 1109SOL    HW2 5225  13.822   5.206  14.511
 1110SOL     OW 5226  10.147   0.987  10.019
 1110SOL    HW1 5227  10.062   1.014   9.984
 1110SOL    HW2 5228  10.191   0.943   9.947
 1111SOL     OW 5229  10.347   6.535   4.513
 1111SOL    HW1 5230  10.368   6.628   4.511
 1111SOL    HW2 5231  10.252   6.531   4.513
 1112SOL     OW 5232   4.341   8.166   4.490
 1112SOL    HW1 5233   4.300   8.113   4.558
 1112SOL    HW2 5234   4.400   8.105   4.445
 1113SOL     OW 5235   8.806  10.106   0.949
 1113SOL    HW1 5236   8.873  10.069   0.891
 1113SOL    HW2 5237   8.762  10.172   0.896
 1114SOL     OW 5238   6.674  14.784  10.536
 1114SOL    HW1 5239   6.766  14.777  10.563
 1114SOL    HW2 5240   6.625  14.768  10.616
 1115SOL     OW 5241   1.925   1.931  14.758
 1115SOL    HW1 5242   1.913   1.859  14.695
 1115SOL    HW2 5243   1.952   2.005  14.704
 1116SOL     OW 5244   0.789  14.018   7.949
 1116SOL    HW1 5245   0.799  14.108   7.980
 1116SOL    HW2 5246   0.851  13.967   8.001
 1117SOL     OW 5247  14.249   5.378  12.694
 1117SOL    HW1 5248  14.262   5.345  12.605
 1117SOL    HW2 5249  14.272   5.304  12.751
 1118SOL     OW 5250   5.084   7.578   2.696
 1118SOL    HW1 5251   5.009   7.567   2.638
 1118SOL    HW2 5252   5.051   7.631   2.768
 1119SOL     OW 5253   5.762   4.264   9.115
 1119SOL    HW1 5254   5.697   4.196   9.096
 1119SOL    HW2 5255   5.775   4.258   9.210
 1120SOL     OW 5256   2.800   3.264   7.482
 1120SOL    HW1 5257   2.862   3.237   7.549
 1120SOL    HW2 5258   2.790   3.186   7.426
 1121SOL     OW 5259   7.894   9.459  14.403
 1121SOL    HW1 5260   7.842   9.539  14.403
 1121SOL    HW2 5261   7.966   9.476  14.343
 1122SOL     OW 5262   9.228   0.949   7.231
 1122SOL    HW1 5263   9.320   0.936   7.208
 1122SOL    HW2 5264   9.230   1.013   7.302
 1123SOL     OW 5265   1.014   0.938  10.785
 1123SOL    HW1 5266   1.029   0.977  10.872
 1123SOL    HW2 5267   0.943   0.991  10.748
 1124SOL     OW 5268   0.899   6.168   4.476
 1124SOL    HW1 5269   0.890   6.249   4.527
 1124SOL    HW2 5270   0.840   6.106   4.520
 1125SOL     OW 5271   4.327   7.946   0.737
 1125SOL    HW1 5272   4.254   7.992   0.696
 1125SOL    HW2 5273   4.387   8.015   0.765
 1126SOL     OW 5274   8.007   6.171   7.161
 1126SOL    HW1 5275   8.051   6.150   7.079
 1126SOL    HW2 5276   7.919   6.199   7.134
 1127SOL     OW 5277  11.903   9.755   0.386
 1127SOL    HW1 5278  11.843   9.700   0.436
 1127SOL    HW2 5279  11.926   9.826   0.446
 1128SOL     OW 5280  10.489  14.826  13.619
 1128SOL    HW1 5281  10.534  14.826  13.704
 1128SOL    HW2 5282  10.526   0.022  13.573
 1129SOL     OW 5283  11.008   2.134  11.944
 1129SOL    HW1 5284  11.053   2.128  11.860
 1129SOL    HW2 5285  11.038   2.057  11.993
 1130SOL     OW 5286   9.284  12.283   3.475
 1130SOL    HW1 5287   9.348  12.244   3.414
 1130SOL    HW2 5288   9.245  12.355   3.425
 1131SOL     OW 5289   7.019   6.852   8.481
 1131SOL    HW1 5290   6.966   6.793   8.536
 1131SOL    HW2 5291   7.056   6.795   8.414
 1132SOL     OW 5292  11.603   0.524  13.212
 1132SOL    HW1 5293  11.694   0.540  13.185
 1132SOL    HW2 5294  11.585   0.592  13.277
 1133SOL     OW 5295   8.948   4.353   6.759
 1133SOL    HW1 5296   9.034   4.317   6.737
 1133SOL    HW2 5297   8.967   4.442   6.791
 1134SOL     OW 5298   6.772   3.792  12.554
 1134SOL    HW1 5299   6.826   3.718  12.580
 1134SOL    HW2 5300   6.726   3.818  12.634
 1135SOL     OW 5301   8.739  13.287  14.485
 1135SOL    HW1 5302   8.711  13.252  14.569
 1135SOL    HW2 5303   8.733  13.382  14.494
 1136SOL     OW 5304   4.464   6.463   0.209
 1136SOL    HW1 5305   4.438   6.472   0.117
 1136SOL    HW2 5306   4.438   6.374   0.233
 1137SOL     OW 5307   3.676   0.465   0.896
 1137SOL    HW1 5308   3.638   0.553   0.895
 1137SOL    HW2 5309   3.607   0.410   0.935
 1138SOL     OW 5310  12.709   4.660   1.095
 1138SOL    HW1 5311  12.632   4.717   1.093
 1138SOL    HW2 5312  12.772   4.703   1.037
 1139SOL     OW 5313   5.822   3.965   8.303
 1139SOL    HW1 5314   5.781   4.052   8.300
 1139SOL    HW2 5315   5.752   3.904   8.283
 1140SOL     OW 5316  14.429  11.837   3.739
 1140SOL    HW1 5317  14.443  11.848   3.645
 1140SOL    HW2 5318  14.505  11.788   3.770
 1141SOL     OW 5319   6.552  13.390   3.977
 1141SOL    HW1 5320   6.576  13.462   3.920
 1141SOL    HW2 5321   6.560  13.426   4.066
 1142SOL     OW 5322   1.649  11.429   8.987
 1142SOL    HW1 5323   1.637  11.510   9.036
 1142SOL    HW2 5324   1.588  11.366   9.027
 1143SOL     OW 5325   9.844  12.784   5.886
 1143SOL    HW1 5326   9.783  12.792   5.813
 1143SOL    HW2 5327   9.834  12.694   5.916
 1144SOL     OW 5328  11.892   5.710  11.921
 1144SOL    HW1 5329  11.979   5.696  11.882
 1144SOL    HW2 5330  11.846   5.627  11.906
 1145SOL     OW 5331  10.868  12.794   5.056
 1145SOL    HW1 5332  10.828  12.853   5.121
 1145SOL    HW2 5333  10.840  12.830   4.972
 1146SOL     OW 5334   1.988   0.701   0.318
 1146SOL    HW1 5335   2.073   0.686   0.276
 1146SOL    HW2 5336   1.928   0.718   0.246
 1147SOL     OW 5337  14.262   6.232   9.115
 1147SOL    HW1 5338  14.273   6.185   9.032
 1147SOL    HW2 5339  14.174   6.208   9.144
 1148SOL     OW 5340   1.213   1.507   3.623
 1148SOL    HW1 5341   1.245   1.441   3.561
 1148SOL    HW2 5342   1.291   1.539   3.668
 1149SOL     OW 5343   7.307   6.731  14.274
 1149SOL    HW1 5344   7.372   6.801  14.264
 1149SOL    HW2 5345   7.231   6.775  14.313
 1150SOL     OW 5346  10.558   8.349   9.205
 1150SOL    HW1 5347  10.474   8.307   9.225
 1150SOL    HW2 5348  10.613   8.331   9.281
 1151SOL     OW 5349   2.817   3.575  13.945
 1151SOL    HW1 5350   2.842   3.539  14.031
 1151SOL    HW2 5351   2.763   3.651  13.966
 1152SOL     OW 5352   4.050  14.298   4.733
 1152SOL    HW1 5353   3.965  14.336   4.711
 1152SOL    HW2 5354   4.095  14.288   4.649
 1153SOL     OW 5355   3.933  10.210   3.347
 1153SOL    HW1 5356   3.933  10.265   3.269
 1153SOL    HW2 5357   3.990  10.136   3.325
 1154SOL     OW 5358  10.542  13.745   2.206
 1154SOL    HW1 5359  10.595  13.773   2.131
 1154SOL    HW2 5360  10.486  13.676   2.171
 1155SOL     OW 5361   2.901   8.878  14.802
 1155SOL    HW1 5362   2.858   8.963  14.810
 1155SOL    HW2 5363   2.881   8.849  14.713
 1156SOL     OW 5364  14.677  10.407   7.805
 1156SOL    HW1 5365  14.732  10.359   7.744
 1156SOL    HW2 5366  14.723  10.490   7.819
 1157SOL     OW 5367   8.949   5.381  13.332
 1157SOL    HW1 5368   8.961   5.375  13.427
 1157SOL    HW2 5369   8.865   5.338  13.316
 1158SOL     OW 5370   4.435  10.046  13.237
 1158SOL    HW1 5371   4.469   9.974  13.290
 1158SOL    HW2 5372   4.513  10.085  13.196
 1159SOL     OW 5373   0.140   1.015   4.951
 1159SOL    HW1 5374   0.160   1.108   4.943
 1159SOL    HW2 5375   0.093   1.007   5.034
 1160SOL     OW 5376   3.964  13.388   5.826
 1160SOL    HW1 5377   3.904  13.462   5.815
 1160SOL    HW2 5378   3.941  13.328   5.756
 1161SOL     OW 5379  10.636   1.935  11.704
 1161SOL    HW1 5380  10.627   1.965  11.613
 1161SOL    HW2 5381  10.557   1.885  11.722
 1162SOL     OW 5382   6.724  13.219   9.106
 1162SOL    HW1 5383   6.665  13.184   9.039
 1162SOL    HW2 5384   6.676  13.292   9.144
 1163SOL     OW 5385   5.170  11.219  10.629
 1163SOL    HW1 5386   5.227  11.196  10.702
 1163SOL    HW2 5387   5.081  11.217  10.666
 1164SOL     OW 5388   1.941  14.504  10.442
 1164SOL    HW1 5389   1.932  14.409  10.453
 1164SOL    HW2 5390   1.853  14.538  10.457
 1165SOL     OW 5391   6.257   5.411   9.248
 1165SOL    HW1 5392   6.282   5.360   9.170
 1165SOL    HW2 5393   6.339   5.433   9.290
 1166SOL     OW 5394  11.334   5.965  12.036
 1166SOL    HW1 5395  11.401   6.022  12.000
 1166SOL    HW2 5396  11.256   6.021  12.043
 1167SOL     OW 5397   9.186  10.454  13.529
 1167SOL    HW1 5398   9.104  10.421  13.566
 1167SOL    HW2 5399   9.254  10.401  13.569
 1168SOL     OW 5400   9.854  11.416   2.643
 1168SOL    HW1 5401   9.932  11.363   2.626
 1168SOL    HW2 5402   9.827  11.448   2.557
 1169SOL     OW 5403   7.358   2.518   6.960
 1169SOL    HW1 5404   7.427   2.565   6.912
 1169SOL    HW2 5405   7.360   2.555   7.048
 1170SOL     OW 5406   2.720   2.994  10.551
 1170SOL    HW1 5407   2.642   2.957  10.511
 1170SOL    HW2 5408   2.789   2.930  10.534
 1171SOL     OW 5409   4.950  12.066   1.429
 1171SOL    HW1 5410   5.000  11.998   1.384
 1171SOL    HW2 5411   5.007  12.144   1.425
 1172SOL     OW 5412   8.555  10.913   6.806
 1172SOL    HW1 5413   8.646  10.926   6.829
 1172SOL    HW2 5414   8.551  10.931   6.712
 1173SOL     OW 5415   4.759  13.684  13.054
 1173SOL    HW1 5416   4.677  13.637  13.068
 1173SOL    HW2 5417   4.816  13.654  13.125
 1174SOL     OW 5418  11.421  10.828   8.652
 1174SOL    HW1 5419  11.459  10.915   8.640
 1174SOL    HW2 5420  11.496  10.768   8.648
 1175SOL     OW 5421   5.179   5.370  13.523
 1175SOL    HW1 5422   5.216   5.305  13.463
 1175SOL    HW2 5423   5.172   5.450  13.470
 1176SOL     OW 5424   4.465  12.132   6.869
 1176SOL    HW1 5425   4.507  12.184   6.800
 1176SOL    HW2 5426   4.391  12.089   6.826
 1177SOL     OW 5427  10.476   3.106   8.652
 1177SOL    HW1 5428  10.498   3.191   8.613
 1177SOL    HW2 5429  10.497   3.042   8.584
 1178SOL     OW 5430   3.146   9.945   4.260
 1178SOL    HW1 5431   3.141   9.988   4.346
 1178SOL    HW2 5432   3.175   9.856   4.279
 1179SOL     OW 5433   4.144   5.201  14.651
 1179SOL    HW1 5434   4.082   5.211  14.723
 1179SOL    HW2 5435   4.230   5.208  14.692
 1180SOL     OW 5436  14.687  12.969   9.955
 1180SOL    HW1 5437  14.731  13.054   9.953
 1180SOL    HW2 5438  14.654  12.956   9.866
 1181SOL     OW 5439  13.362   7.689  13.903
 1181SOL    HW1 5440  13.299   7.676  13.832
 1181SOL    HW2 5441  13.402   7.603  13.915
 1182SOL     OW 5442   3.087  10.735   5.365
 1182SOL    HW1 5443   3.026  10.745   5.438
 1182SOL    HW2 5444   3.123  10.647   5.377
 1183SOL     OW 5445   1.184   4.003   3.089
 1183SOL    HW1 5446   1.245   4.012   3.015
 1183SOL    HW2 5447   1.108   4.055   3.064
 1184SOL     OW 5448   4.880   6.402   8.164
 1184SOL    HW1 5449   4.857   6.427   8.253
 1184SOL    HW2 5450   4.828   6.459   8.108
 1185SOL     OW 5451   6.152   1.472  14.781
 1185SOL    HW1 5452   6.073   1.434  14.818
 1185SOL    HW2 5453   6.173   1.545  14.840
 1186SOL     OW 5454   0.797   3.730   9.191
 1186SOL    HW1 5455   0.840   3.774   9.118
 1186SOL    HW2 5456   0.815   3.637   9.177
 1187SOL     OW 5457   8.788   6.200  13.772
 1187SOL    HW1 5458   8.728   6.125  13.769
 1187SOL    HW2 5459   8.807   6.212  13.865
 1188SOL     OW 5460   2.625   9.139   1.710
 1188SOL    HW1 5461   2.704   9.085   1.708
 1188SOL    HW2 5462   2.636   9.193   1.788
 1189SOL     OW 5463  14.779   2.935  10.564
 1189SOL    HW1 5464  14.785   2.844  10.595
 1189SOL    HW2 5465  14.831   2.936  10.484
 1190SOL     OW 5466   0.652   7.098   3.419
 1190SOL    HW1 5467   0.571   7.094   3.369
 1190SOL    HW2 5468   0.675   7.006   3.435
 1191SOL     OW 5469   6.655   9.630  11.942
 1191SOL    HW1 5470   6.574   9.665  11.904
 1191SOL    HW2 5471   6.626   9.556  11.996
 1192SOL     OW 5472   4.717  13.561   4.046
 1192SOL    HW1 5473   4.728  13.477   4.091
 1192SOL    HW2 5474   4.631  13.593   4.075
 1193SOL     OW 5475   4.797   7.302  10.659
 1193SOL    HW1 5476   4.887   7.312  10.630
 1193SOL    HW2 5477   4.794   7.343  10.745
 1194SOL     OW 5478   0.996  13.532  10.172
 1194SOL    HW1 5479   0.920  13.490  10.133
 1194SOL    HW2 5480   0.959  13.589  10.240
 1195SOL     OW 5481   5.668  12.469  12.429
 1195SOL    HW1 5482   5.600  12.401  12.421
 1195SOL    HW2 5483   5.676  12.504  12.340
 1196SOL     OW 5484   2.249  12.361  10.961
 1196SOL    HW1 5485   2.322  12.418  10.988
 1196SOL    HW2 5486   2.175  12.421  10.952
 1197SOL     OW 5487   9.432  10.323   4.704
 1197SOL    HW1 5488   9.348  10.360   4.676
 1197SOL    HW2 5489   9.485  10.320   4.624
 1198SOL     OW 5490   1.972   4.653  13.405
 1198SOL    HW1 5491   1.918   4.575  13.393
 1198SOL    HW2 5492   1.912   4.726  13.388
 1199SOL     OW 5493   4.361   4.918   4.045
 1199SOL    HW1 5494   4.384   4.975   3.971
 1199SOL    HW2 5495   4.333   4.836   4.003
 1200SOL     OW 5496   4.745  13.941   3.488
 1200SOL    HW1 5497   4.802  13.876   3.447
 1200SOL    HW2 5498   4.663  13.935   3.439
 1201SOL     OW 5499   1.945  14.567   9.919
 1201SOL    HW1 5500   1.985  14.532   9.840
 1201SOL    HW2 5501   1.979  14.512   9.990
 1202SOL     OW 5502   8.190  12.337  10.618
 1202SOL    HW1 5503   8.124  12.406  10.618
 1202SOL    HW2 5504   8.156  12.272  10.557
 1203SOL     OW 5505   1.648   5.096   3.300
 1203SOL    HW1 5506   1.600   5.150   3.236
 1203SOL    HW2 5507   1.588   5.024   3.320
 1204SOL     OW 5508  14.236  13.865   6.641
 1204SOL    HW1 5509  14.198  13.951   6.661
 1204SOL    HW2 5510  14.195  13.806   6.704
 1205SOL     OW 5511  14.842   1.538   5.218
 1205SOL    HW1 5512  14.754   1.570   5.199
 1205SOL    HW2 5513  14.869   1.586   5.297
 1206SOL     OW 5514  10.915   5.130  14.428
 1206SOL    HW1 5515  11.000   5.132  14.386
 1206SOL    HW2 5516  10.857   5.178  14.368
 1207SOL     OW 5517   9.928  12.880  10.443
 1207SOL    HW1 5518   9.947  12.826  10.519
 1207SOL    HW2 5519   9.840  12.915  10.460
 1208SOL     OW 5520   1.792   7.780   0.998
 1208SOL    HW1 5521   1.802   7.861   0.949
 1208SOL    HW2 5522   1.847   7.717   0.953
 1209SOL     OW 5523   9.985   3.851  10.730
 1209SOL    HW1 5524  10.037   3.926  10.760
 1209SOL    HW2 5525   9.942   3.882  10.651
 1210SOL     OW 5526   5.899   8.526   4.266
 1210SOL    HW1 5527   5.899   8.433   4.286
 1210SOL    HW2 5528   5.983   8.558   4.298
 1211SOL     OW 5529   0.103   0.016   4.616
 1211SOL    HW1 5530   0.055  14.821   4.653
 1211SOL    HW2 5531   0.123   0.070   4.692
 1212SOL     OW 5532   7.198   5.040   5.986
 1212SOL    HW1 5533   7.176   5.050   5.893
 1212SOL    HW2 5534   7.196   4.945   6.000
 1213SOL     OW 5535  12.183  11.189  14.742
 1213SOL    HW1 5536  12.174  11.186  14.647
 1213SOL    HW2 5537  12.094  11.178  14.775
 1214SOL     OW 5538   9.537   1.940   6.638
 1214SOL    HW1 5539   9.586   1.864   6.607
 1214SOL    HW2 5540   9.591   1.978   6.707
 1215SOL     OW 5541   9.089   4.378   7.248
 1215SOL    HW1 5542   9.121   4.343   7.164
 1215SOL    HW2 5543   9.019   4.439   7.223
 1216SOL     OW 5544   0.363   9.208  10.130
 1216SOL    HW1 5545   0.445   9.218  10.179
 1216SOL    HW2 5546   0.344   9.114  10.134
 1217SOL     OW 5547  10.359   4.841  11.525
 1217SOL    HW1 5548  10.407   4.921  11.546
 1217SOL    HW2 5549  10.343   4.799  11.610
 1218SOL     OW 5550   3.213   2.004   1.500
 1218SOL    HW1 5551   3.124   2.027   1.527
 1218SOL    HW2 5552   3.203   1.921   1.453
 1219SOL     OW 5553   5.101   2.949  10.998
 1219SOL    HW1 5554   5.149   3.029  11.020
 1219SOL    HW2 5555   5.072   2.962  10.908
 1220SOL     OW 5556  12.548  12.395   6.350
 1220SOL    HW1 5557  12.626  12.417   6.299
 1220SOL    HW2 5558  12.570  12.422   6.439
 1221SOL     OW 5559   6.370  11.733   4.900
 1221SOL    HW1 5560   6.281  11.704   4.881
 1221SOL    HW2 5561   6.383  11.810   4.844
 1222SOL     OW 5562   8.935   4.788  13.905
 1222SOL    HW1 5563   8.866   4.768  13.968
 1222SOL    HW2 5564   8.894   4.849  13.844
 1223SOL     OW 5565   0.553   6.727  12.867
 1223SOL    HW1 5566   0.539   6.690  12.954
 1223SOL    HW2 5567   0.626   6.787  12.877
 1224SOL     OW 5568   4.832   0.053   4.781
 1224SOL    HW1 5569   4.867  14.847   4.805
 1224SOL    HW2 5570   4.800   0.042   4.692
 1225SOL     OW 5571   5.806   7.854   6.633
 1225SOL    HW1 5572   5.745   7.887   6.699
 1225SOL    HW2 5573   5.843   7.932   6.592
 1226SOL     OW 5574   6.179  11.095   7.911
 1226SOL    HW1 5575   6.220  11.140   7.837
 1226SOL    HW2 5576   6.089  11.080   7.884
 1227SOL     OW 5577  11.585   3.973   6.126
 1227SOL    HW1 5578  11.680   3.974   6.112
 1227SOL    HW2 5579  11.570   3.904   6.190
 1228SOL     OW 5580   0.588   0.453  11.671
 1228SOL    HW1 5581   0.633   0.471  11.753
 1228SOL    HW2 5582   0.534   0.376  11.689
 1229SOL     OW 5583   5.258   5.860   9.292
 1229SOL    HW1 5584   5.313   5.898   9.224
 1229SOL    HW2 5585   5.314   5.796   9.336
 1230SOL     OW 5586  13.671  12.371  14.342
 1230SOL    HW1 5587  13.605  12.369  14.272
 1230SOL    HW2 5588  13.660  12.458  14.381
 1231SOL     OW 5589   7.601   2.447   7.242
 1231SOL    HW1 5590   7.612   2.419   7.332
 1231SOL    HW2 5591   7.508   2.437   7.224
 1232SOL     OW 5592   7.891   8.238   0.531
 1232SOL    HW1 5593   7.878   8.212   0.622
 1232SOL    HW2 5594   7.815   8.200   0.485
 1233SOL     OW 5595   5.944   3.472  14.072
 1233SOL    HW1 5596   6.020   3.473  14.015
 1233SOL    HW2 5597   5.956   3.395  14.128
 1234SOL     OW 5598  11.285   3.550   0.896
 1234SOL    HW1 5599  11.259   3.639   0.870
 1234SOL    HW2 5600  11.203   3.506   0.917
 1235SOL     OW 5601   2.487   7.533  13.404
 1235SOL    HW1 5602   2.425   7.530  13.477
 1235SOL    HW2 5603   2.554   7.595  13.432
 1236SOL     OW 5604   5.267  13.388  13.165
 1236SOL    HW1 5605   5.304  13.446  13.231
 1236SOL    HW2 5606   5.288  13.300  13.196
 1237SOL     OW 5607   2.156   0.241  13.754
 1237SOL    HW1 5608   2.164   0.246  13.849
 1237SOL    HW2 5609   2.127   0.151  13.737
 1238SOL     OW 5610  13.677   7.099  14.555
 1238SOL    HW1 5611  13.639   7.117  14.469
 1238SOL    HW2 5612  13.720   7.180  14.580
 1239SOL     OW 5613  10.804  11.530  10.673
 1239SOL    HW1 5614  10.720  11.550  10.716
 1239SOL    HW2 5615  10.787  11.540  10.580
 1240SOL     OW 5616   2.185  10.710  10.233
 1240SOL    HW1 5617   2.115  10.691  10.296
 1240SOL    HW2 5618   2.242  10.772  10.278
 1241SOL     OW 5619   0.734  13.720  10.669
 1241SOL    HW1 5620   0.680  13.782  10.622
 1241SOL    HW2 5621   0.806  13.773  10.704
 1242SOL     OW 5622  13.492  10.445  12.806
 1242SOL    HW1 5623  13.502  10.408  12.893
 1242SOL    HW2 5624  13.438  10.382  12.759
 1243SOL     OW 5625   4.465   5.530   1.926
 1243SOL    HW1 5626   4.503   5.583   1.856
 1243SOL    HW2 5627   4.456   5.591   2.000
 1244SOL     OW 5628  13.213  14.449   8.967
 1244SOL    HW1 5629  13.158  14.419   9.039
 1244SOL    HW2 5630  13.153  14.492   8.907
 1245SOL     OW 5631   6.548  13.430   9.218
 1245SOL    HW1 5632   6.537  13.459   9.309
 1245SOL    HW2 5633   6.530  13.507   9.166
 1246SOL     OW 5634  12.696   3.963  13.953
 1246SOL    HW1 5635  12.632   3.900  13.921
 1246SOL    HW2 5636  12.706   3.943  14.045
 1247SOL     OW 5637  14.065   7.133  11.634
 1247SOL    HW1 5638  14.128   7.205  11.639
 1247SOL    HW2 5639  14.019   7.148  11.551
 1248SOL     OW 5640  11.883   2.051   0.538
 1248SOL    HW1 5641  11.802   2.000   0.540
 1248SOL    HW2 5642  11.951   1.988   0.561
 1249SOL     OW 5643   2.763   1.241  13.654
 1249SOL    HW1 5644   2.783   1.179  13.725
 1249SOL    HW2 5645   2.763   1.186  13.575
 1250SOL     OW 5646   6.774  13.216  13.211
 1250SOL    HW1 5647   6.718  13.147  13.246
 1250SOL    HW2 5648   6.725  13.251  13.136
 1251SOL     OW 5649  12.979   2.423   5.737
 1251SOL    HW1 5650  13.049   2.370   5.698
 1251SOL    HW2 5651  12.916   2.436   5.666
 1252SOL     OW 5652  11.415   9.111   9.093
 1252SOL    HW1 5653  11.417   9.170   9.168
 1252SOL    HW2 5654  11.323   9.085   9.085
 1253SOL     OW 5655   3.825   5.527   1.526
 1253SOL    HW1 5656   3.787   5.574   1.453
 1253SOL    HW2 5657   3.907   5.491   1.492
 1254SOL     OW 5658   6.877  14.645   9.139
 1254SOL    HW1 5659   6.812  14.656   9.208
 1254SOL    HW2 5660   6.879  14.551   9.123
 1255SOL     OW 5661  11.659  11.182   4.355
 1255SOL    HW1 5662  11.752  11.159   4.349
 1255SOL    HW2 5663  11.640  11.179   4.449
 1256SOL     OW 5664   2.555   6.251   6.440
 1256SOL    HW1 5665   2.510   6.333   6.419
 1256SOL    HW2 5666   2.552   6.200   6.359
 1257SOL     OW 5667   4.091   3.338  14.218
 1257SOL    HW1 5668   4.022   3.348  14.153
 1257SOL    HW2 5669   4.046   3.309  14.297
 1258SOL     OW 5670   5.683   2.716  10.754
 1258SOL    HW1 5671   5.738   2.682  10.683
 1258SOL    HW2 5672   5.666   2.639  10.809
 1259SOL     OW 5673  10.681   6.799  11.776
 1259SOL    HW1 5674  10.624   6.729  11.807
 1259SOL    HW2 5675  10.625   6.850  11.717
 1260SOL     OW 5676  10.870  10.964   8.632
 1260SOL    HW1 5677  10.956  10.941   8.668
 1260SOL    HW2 5678  10.846  11.045   8.677
 1261SOL     OW 5679   2.561   1.326  14.140
 1261SOL    HW1 5680   2.545   1.267  14.067
 1261SOL    HW2 5681   2.654   1.348  14.133
 1262SOL     OW 5682   2.977   0.753  13.337
 1262SOL    HW1 5683   2.992   0.683  13.273
 1262SOL    HW2 5684   3.029   0.827  13.305
 1263SOL     OW 5685   5.760   3.326   6.732
 1263SOL    HW1 5686   5.791   3.287   6.814
 1263SOL    HW2 5687   5.707   3.401   6.759
 1264SOL     OW 5688   5.807   5.109  13.622
 1264SOL    HW1 5689   5.803   5.021  13.586
 1264SOL    HW2 5690   5.900   5.124  13.642
 1265SOL     OW 5691   4.128  12.745   8.755
 1265SOL    HW1 5692   4.081  12.743   8.839
 1265SOL    HW2 5693   4.092  12.672   8.706
 1266SOL     OW 5694   3.360   4.900  11.617
 1266SOL    HW1 5695   3.344   4.994  11.622
 1266SOL    HW2 5696   3.435   4.892  11.558
 1267SOL     OW 5697  12.467   3.351   2.319
 1267SOL    HW1 5698  12.521   3.276   2.346
 1267SOL    HW2 5699  12.382   3.335   2.361
 1268SOL     OW 5700  11.767  11.496  13.749
 1268SOL    HW1 5701  11.779  11.531  13.661
 1268SOL    HW2 5702  11.787  11.569  13.807
 1269SOL     OW 5703   6.069   0.138  14.874
 1269SOL    HW1 5704   5.979   0.106  14.871
 1269SOL    HW2 5705   6.062   0.228   0.026
 1270SOL     OW 5706   4.654   8.822   4.683
 1270SOL    HW1 5707   4.661   8.884   4.610
 1270SOL    HW2 5708   4.613   8.744   4.645
 1271SOL     OW 5709   5.185  11.867   1.543
 1271SOL    HW1 5710   5.231  11.926   1.483
 1271SOL    HW2 5711   5.179  11.917   1.625
 1272SOL     OW 5712  10.645   2.884  14.632
 1272SOL    HW1 5713  10.579   2.815  14.634
 1272SOL    HW2 5714  10.645   2.915  14.541
 1273SOL     OW 5715   6.459   4.099   3.540
 1273SOL    HW1 5716   6.392   4.062   3.597
 1273SOL    HW2 5717   6.486   4.180   3.583
 1274SOL     OW 5718   2.765  13.184   1.910
 1274SOL    HW1 5719   2.750  13.277   1.894
 1274SOL    HW2 5720   2.849  13.180   1.956
 1275SOL     OW 5721  13.292   0.901  13.853
 1275SOL    HW1 5722  13.331   0.906  13.940
 1275SOL    HW2 5723  13.232   0.826  13.858
 1276SOL     OW 5724   5.305   5.759   6.473
 1276SOL    HW1 5725   5.292   5.778   6.380
 1276SOL    HW2 5726   5.333   5.842   6.511
 1277SOL     OW 5727  12.870   9.400  12.079
 1277SOL    HW1 5728  12.956   9.410  12.120
 1277SOL    HW2 5729  12.808   9.427  12.146
 1278SOL     OW 5730   9.105  10.054  10.106
 1278SOL    HW1 5731   9.047  10.029  10.034
 1278SOL    HW2 5732   9.110  10.149  10.101
 1279SOL     OW 5733  12.209   5.033   1.953
 1279SOL    HW1 5734  12.148   5.017   2.024
 1279SOL    HW2 5735  12.169   4.991   1.877
 1280SOL     OW 5736   3.683  14.214   6.120
 1280SOL    HW1 5737   3.726  14.255   6.045
 1280SOL    HW2 5738   3.592  14.202   6.092
 1281SOL     OW 5739   6.670   1.021   8.593
 1281SOL    HW1 5740   6.728   0.946   8.582
 1281SOL    HW2 5741   6.728   1.097   8.597
 1282SOL     OW 5742   5.356   9.802  12.626
 1282SOL    HW1 5743   5.309   9.752  12.693
 1282SOL    HW2 5744   5.371   9.740  12.556
 1283SOL     OW 5745   1.452   7.627   9.425
 1283SOL    HW1 5746   1.434   7.605   9.334
 1283SOL    HW2 5747   1.539   7.591   9.442
 1284SOL     OW 5748   1.972  14.846   8.741
 1284SOL    HW1 5749   2.061  14.877   8.755
 1284SOL    HW2 5750   1.981  14.778   8.674
 1285SOL     OW 5751   7.496   6.953  10.532
 1285SOL    HW1 5752   7.478   6.885  10.597
 1285SOL    HW2 5753   7.460   6.919  10.450
 1286SOL     OW 5754   9.096   0.023   4.714
 1286SOL    HW1 5755   9.191   0.026   4.717
 1286SOL    HW2 5756   9.076  14.842   4.643
 1287SOL     OW 5757   8.424  12.687   6.215
 1287SOL    HW1 5758   8.368  12.762   6.193
 1287SOL    HW2 5759   8.512  12.724   6.223
 1288SOL     OW 5760   2.886  12.672  12.338
 1288SOL    HW1 5761   2.953  12.647  12.402
 1288SOL    HW2 5762   2.827  12.731  12.386
 1289SOL     OW 5763  11.165   7.391  14.085
 1289SOL    HW1 5764  11.173   7.409  14.179
 1289SOL    HW2 5765  11.071   7.377  14.072
 1290SOL     OW 5766   9.382   5.120  13.365
 1290SOL    HW1 5767   9.472   5.107  13.395
 1290SOL    HW2 5768   9.356   5.035  13.330
 1291SOL     OW 5769   7.043   0.477  12.317
 1291SOL    HW1 5770   7.125   0.511  12.280
 1291SOL    HW2 5771   7.027   0.531  12.394
 1292SOL     OW 5772   6.697  14.532   9.308
 1292SOL    HW1 5773   6.615  14.548   9.355
 1292SOL    HW2 5774   6.753  14.486   9.371
 1293SOL     OW 5775  10.173   3.821   3.493
 1293SOL    HW1 5776  10.166   3.727   3.508
 1293SOL    HW2 5777  10.083   3.852   3.489
 1294SOL     OW 5778   0.499   2.715   5.384
 1294SOL    HW1 5779   0.505   2.649   5.315
 1294SOL    HW2 5780   0.492   2.664   5.465
 1295SOL     OW 5781   3.204   8.446   4.447
 1295SOL    HW1 5782   3.135   8.474   4.385
 1295SOL    HW2 5783   3.175   8.481   4.531
 1296SOL     OW 5784   0.900   6.239   7.222
 1296SOL    HW1 5785   0.892   6.155   7.177
 1296SOL    HW2 5786   0.934   6.216   7.309
 1297SOL     OW 5787  10.468   6.682   0.293
 1297SOL    HW1 5788  10.499   6.610   0.348
 1297SOL    HW2 5789  10.532   6.686   0.222
 1298SOL     OW 5790  11.309   9.919  14.742
 1298SOL    HW1 5791  11.250   9.883  14.808
 1298SOL    HW2 5792  11.301  10.014  14.752
 1299SOL     OW 5793   2.817   8.149   1.002
 1299SOL    HW1 5794   2.722   8.163   0.993
 1299SOL    HW2 5795   2.825   8.093   1.079
 1300SOL     OW 5796   4.309   7.497   7.615
 1300SOL    HW1 5797   4.359   7.578   7.608
 1300SOL    HW2 5798   4.375   7.429   7.631
 1301SOL     OW 5799  14.230  13.132   4.387
 1301SOL    HW1 5800  14.167  13.108   4.455
 1301SOL    HW2 5801  14.316  13.120   4.428
 1302SOL     OW 5802  10.512   6.327  11.715
 1302SOL    HW1 5803  10.542   6.263  11.650
 1302SOL    HW2 5804  10.511   6.278  11.797
 1303SOL     OW 5805   2.386   2.287   2.048
 1303SOL    HW1 5806   2.417   2.314   2.134
 1303SOL    HW2 5807   2.452   2.320   1.987
 1304SOL     OW 5808  11.735   2.707  11.014
 1304SOL    HW1 5809  11.726   2.650  11.091
 1304SOL    HW2 5810  11.646   2.737  10.997
 1305SOL     OW 5811  13.548  14.342  12.200
 1305SOL    HW1 5812  13.623  14.310  12.251
 1305SOL    HW2 5813  13.475  14.287  12.229
 1306SOL     OW 5814   4.062   4.662   9.228
 1306SOL    HW1 5815   4.129   4.628   9.169
 1306SOL    HW2 5816   3.999   4.706   9.171
 1307SOL     OW 5817   0.877  13.000  13.449
 1307SOL    HW1 5818   0.840  12.939  13.385
 1307SOL    HW2 5819   0.806  13.017  13.510
 1308SOL     OW 5820   4.764   5.467  11.473
 1308SOL    HW1 5821   4.854   5.492  11.453
 1308SOL    HW2 5822   4.759   5.469  11.568
 1309SOL     OW 5823   0.347   0.200  13.657
 1309SOL    HW1 5824   0.436   0.205  13.621
 1309SOL    HW2 5825   0.303   0.133  13.604
 1310SOL     OW 5826   4.251   3.116   9.325
 1310SOL    HW1 5827   4.287   3.122   9.413
 1310SOL    HW2 5828   4.157   3.104   9.338
 1311SOL     OW 5829   2.166   9.363   7.987
 1311SOL    HW1 5830   2.142   9.452   8.009
 1311SOL    HW2 5831   2.233   9.372   7.919
 1312SOL     OW 5832   3.446  10.131   2.235
 1312SOL    HW1 5833   3.495  10.213   2.228
 1312SOL    HW2 5834   3.465  10.100   2.323
 1313SOL     OW 5835   9.315   4.957   9.655
 1313SOL    HW1 5836   9.345   5.007   9.580
 1313SOL    HW2 5837   9.357   4.871   9.645
 1314SOL     OW 5838   4.716   6.141  14.411
 1314SOL    HW1 5839   4.621   6.145  14.401
 1314SOL    HW2 5840   4.739   6.052  14.385
 1315SOL     OW 5841   1.867  13.498   8.710
 1315SOL    HW1 5842   1.838  13.578   8.666
 1315SOL    HW2 5843   1.935  13.528   8.771
 1316SOL     OW 5844   7.016   4.332  11.762
 1316SOL    HW1 5845   7.018   4.290  11.676
 1316SOL    HW2 5846   7.083   4.286  11.812
 1317SOL     OW 5847  14.411  14.452  11.194
 1317SOL    HW1 5848  14.337  14.504  11.228
 1317SOL    HW2 5849  14.392  14.443  11.101
 1318SOL     OW 5850   5.495   7.455  14.356
 1318SOL    HW1 5851   5.555   7.525  14.383
 1318SOL    HW2 5852   5.534   7.375  14.393
 1319SOL     OW 5853   0.710   1.760   3.670
 1319SOL    HW1 5854   0.722   1.845   3.628
 1319SOL    HW2 5855   0.799   1.725   3.679
 1320SOL     OW 5856  13.861   6.416   9.315
 1320SOL    HW1 5857  13.770   6.426   9.345
 1320SOL    HW2 5858  13.859   6.444   9.224
 1321SOL     OW 5859  12.711  11.456  14.855
 1321SOL    HW1 5860  12.770  11.394   0.019
 1321SOL    HW2 5861  12.742  11.542   0.003
 1322SOL     OW 5862   8.583   5.672   1.325
 1322SOL    HW1 5863   8.672   5.698   1.301
 1322SOL    HW2 5864   8.562   5.725   1.402
 1323SOL     OW 5865   8.937   1.219   7.508
 1323SOL    HW1 5866   9.028   1.217   7.477
 1323SOL    HW2 5867   8.890   1.271   7.444
 1324SOL     OW 5868   2.949   3.535   8.768
 1324SOL    HW1 5869   2.982   3.474   8.701
 1324SOL    HW2 5870   2.864   3.499   8.793
 1325SOL     OW 5871   8.380  13.422   7.611
 1325SOL    HW1 5872   8.319  13.404   7.540
 1325SOL    HW2 5873   8.330  13.400   7.690
 1326SOL     OW 5874   7.764  12.243   6.320
 1326SOL    HW1 5875   7.698  12.178   6.298
 1326SOL    HW2 5876   7.846  12.194   6.322
 1327SOL     OW 5877   8.570   4.121   9.708
 1327SOL    HW1 5878   8.649   4.133   9.655
 1327SOL    HW2 5879   8.514   4.195   9.684
 1328SOL     OW 5880  13.970   3.659   0.266
 1328SOL    HW1 5881  13.889   3.612   0.245
 1328SOL    HW2 5882  14.019   3.597   0.320
 1329SOL     OW 5883   3.644   1.548  10.712
 1329SOL    HW1 5884   3.656   1.463  10.755
 1329SOL    HW2 5885   3.660   1.531  10.619
 1330SOL     OW 5886   9.495  13.158   5.469
 1330SOL    HW1 5887   9.550  13.209   5.409
 1330SOL    HW2 5888   9.539  13.167   5.554
 1331SOL     OW 5889   5.876   4.242  13.732
 1331SOL    HW1 5890   5.900   4.330  13.760
 1331SOL    HW2 5891   5.818   4.209  13.801
 1332SOL     OW 5892  13.854   6.951   2.403
 1332SOL    HW1 5893  13.906   6.892   2.457
 1332SOL    HW2 5894  13.916   6.987   2.340
 1333SOL     OW 5895  10.116   0.785   3.593
 1333SOL    HW1 5896  10.172   0.754   3.665
 1333SOL    HW2 5897  10.048   0.836   3.637
 1334SOL     OW 5898   5.981   9.619   5.327
 1334SOL    HW1 5899   5.943   9.658   5.405
 1334SOL    HW2 5900   5.906   9.599   5.271
 1335SOL     OW 5901  11.586   9.895   2.236
 1335SOL    HW1 5902  11.538   9.919   2.315
 1335SOL    HW2 5903  11.539   9.820   2.201
 1336SOL     OW 5904   9.320   1.036   2.805
 1336SOL    HW1 5905   9.386   1.091   2.845
 1336SOL    HW2 5906   9.334   1.046   2.711
 1337SOL     OW 5907  12.746  14.437   1.387
 1337SOL    HW1 5908  12.754  14.345   1.362
 1337SOL    HW2 5909  12.699  14.478   1.314
 1338SOL     OW 5910   9.459   2.825   2.021
 1338SOL    HW1 5911   9.423   2.876   1.949
 1338SOL    HW2 5912   9.397   2.837   2.093
 1339SOL     OW 5913  12.943   7.229   9.390
 1339SOL    HW1 5914  12.875   7.294   9.408
 1339SOL    HW2 5915  12.904   7.146   9.418
 1340SOL     OW 5916  11.920   6.485  14.785
 1340SOL    HW1 5917  11.879   6.549  14.727
 1340SOL    HW2 5918  12.014   6.495  14.770
 1341SOL     OW 5919  12.658   2.893   7.352
 1341SOL    HW1 5920  12.645   2.799   7.364
 1341SOL    HW2 5921  12.616   2.932   7.429
 1342SOL     OW 5922  10.239   9.166   3.164
 1342SOL    HW1 5923  10.226   9.258   3.183
 1342SOL    HW2 5924  10.153   9.133   3.139
 1343SOL     OW 5925   9.903  13.554   3.957
 1343SOL    HW1 5926   9.965  13.545   4.030
 1343SOL    HW2 5927   9.897  13.648   3.943
 1344SOL     OW 5928  10.113   4.835   1.247
 1344SOL    HW1 5929  10.042   4.867   1.190
 1344SOL    HW2 5930  10.104   4.740   1.246
 1345SOL     OW 5931  11.043   8.741  14.740
 1345SOL    HW1 5932  11.052   8.649  14.713
 1345SOL    HW2 5933  11.079   8.791  14.668
 1346SOL     OW 5934   1.820   3.063   3.827
 1346SOL    HW1 5935   1.837   3.082   3.919
 1346SOL    HW2 5936   1.828   2.968   3.821
 1347SOL     OW 5937   0.076  11.132   5.741
 1347SOL    HW1 5938   0.165  11.118   5.707
 1347SOL    HW2 5939   0.089  11.187   5.818
 1348SOL     OW 5940  10.055   0.306   2.352
 1348SOL    HW1 5941  10.077   0.230   2.299
 1348SOL    HW2 5942  10.059   0.380   2.291
 1349SOL     OW 5943   2.951   9.330   9.726
 1349SOL    HW1 5944   2.922   9.366   9.642
 1349SOL    HW2 5945   2.957   9.407   9.784
 1350SOL     OW 5946   8.254   4.801  13.344
 1350SOL    HW1 5947   8.208   4.841  13.271
 1350SOL    HW2 5948   8.191   4.803  13.416
 1351SOL     OW 5949  13.559   7.611   3.276
 1351SOL    HW1 5950  13.489   7.553   3.246
 1351SOL    HW2 5951  13.554   7.686   3.216
 1352SOL     OW 5952   4.159   9.727  14.083
 1352SOL    HW1 5953   4.245   9.768  14.074
 1352SOL    HW2 5954   4.122   9.729  13.995
 1353SOL     OW 5955   4.905   0.011   3.238
 1353SOL    HW1 5956   4.949   0.092   3.210
 1353SOL    HW2 5957   4.889  14.844   3.156
 1354SOL     OW 5958  11.609   1.896   3.615
 1354SOL    HW1 5959  11.688   1.847   3.638
 1354SOL    HW2 5960  11.628   1.931   3.528
 1355SOL     OW 5961   8.111   2.651   0.224
 1355SOL    HW1 5962   8.192   2.635   0.176
 1355SOL    HW2 5963   8.042   2.640   0.159
 1356SOL     OW 5964  13.770   1.237   2.594
 1356SOL    HW1 5965  13.749   1.150   2.629
 1356SOL    HW2 5966  13.826   1.219   2.518
 1357SOL     OW 5967   3.077   3.290   1.854
 1357SOL    HW1 5968   3.111   3.289   1.944
 1357SOL    HW2 5969   3.151   3.264   1.800
 1358SOL     OW 5970  14.777  10.261  10.696
 1358SOL    HW1 5971  14.811  10.234  10.611
 1358SOL    HW2 5972  14.683  10.247  10.691
 1359SOL     OW 5973  11.017  13.958   7.418
 1359SOL    HW1 5974  10.981  13.896   7.481
 1359SOL    HW2 5975  11.084  14.006   7.467
 1360SOL     OW 5976   7.778   8.219   5.191
 1360SOL    HW1 5977   7.734   8.148   5.238
 1360SOL    HW2 5978   7.837   8.258   5.257
 1361SOL     OW 5979  13.006   6.970   0.671
 1361SOL    HW1 5980  13.006   6.993   0.764
 1361SOL    HW2 5981  12.993   6.876   0.669
 1362SOL     OW 5982   8.303   1.873  13.893
 1362SOL    HW1 5983   8.333   1.930  13.964
 1362SOL    HW2 5984   8.352   1.903  13.816
 1363SOL     OW 5985   3.701   4.918   8.832
 1363SOL    HW1 5986   3.607   4.930   8.849
 1363SOL    HW2 5987   3.725   4.841   8.884
 1364SOL     OW 5988  10.116   9.843  13.731
 1364SOL    HW1 5989  10.056   9.914  13.756
 1364SOL    HW2 5990  10.066   9.763  13.748
 1365SOL     OW 5991   3.461  13.055   2.194
 1365SOL    HW1 5992   3.491  12.986   2.135
 1365SOL    HW2 5993   3.436  13.127   2.135
 1366SOL     OW 5994  13.347   9.788   4.155
 1366SOL    HW1 5995  13.407   9.844   4.105
 1366SOL    HW2 5996  13.304   9.734   4.089
 1367SOL     OW 5997   3.699   4.594   6.506
 1367SOL    HW1 5998   3.787   4.587   6.469
 1367SOL    HW2 5999   3.707   4.560   6.595
 1368SOL     OW 6000   6.101   4.144   9.110
 1368SOL    HW1 6001   6.009   4.126   9.132
 1368SOL    HW2 6002   6.098   4.174   9.019
 1369SOL     OW 6003   8.248  14.867  12.882
 1369SOL    HW1 6004   8.191  14.806  12.927
 1369SOL    HW2 6005   8.277   0.048  12.950
 1370SOL     OW 6006  10.807  13.549   2.782
 1370SOL    HW1 6007  10.807  13.620   2.847
 1370SOL    HW2 6008  10.877  13.572   2.721
 1371SOL     OW 6009  14.037   6.349  10.852
 1371SOL    HW1 6010  14.080   6.416  10.905
 1371SOL    HW2 6011  13.999   6.398  10.779
 1372SOL     OW 6012   8.459   8.829   5.438
 1372SOL    HW1 6013   8.411   8.830   5.521
 1372SOL    HW2 6014   8.464   8.737   5.414
 1373SOL     OW 6015   7.562   7.820  12.281
 1373SOL    HW1 6016   7.646   7.866  12.272
 1373SOL    HW2 6017   7.586   7.728  12.285
 1374SOL     OW 6018  14.282   2.318   2.760
 1374SOL    HW1 6019  14.315   2.287   2.844
 1374SOL    HW2 6020  14.211   2.379   2.783
 1375SOL     OW 6021   1.494   5.365  10.388
 1375SOL    HW1 6022   1.572   5.310  10.383
 1375SOL    HW2 6023   1.449   5.337  10.468
 1376SOL     OW 6024  14.324   6.401   3.052
 1376SOL    HW1 6025  14.333   6.346   3.130
 1376SOL    HW2 6026  14.333   6.491   3.085
 1377SOL     OW 6027   2.483   9.567   6.350
 1377SOL    HW1 6028   2.480   9.548   6.256
 1377SOL    HW2 6029   2.483   9.663   6.355
 1378SOL     OW 6030   2.964   1.969   4.237
 1378SOL    HW1 6031   2.996   1.993   4.324
 1378SOL    HW2 6032   2.996   1.880   4.223
 1379SOL     OW 6033   3.749   9.388   8.693
 1379SOL    HW1 6034   3.805   9.461   8.667
 1379SOL    HW2 6035   3.752   9.328   8.618
 1380SOL     OW 6036   2.474   5.159  13.026
 1380SOL    HW1 6037   2.543   5.173  12.960
 1380SOL    HW2 6038   2.519   5.169  13.110
 1381SOL     OW 6039   2.254   9.939   3.503
 1381SOL    HW1 6040   2.216   9.915   3.587
 1381SOL    HW2 6041   2.270  10.033   3.509
 1382SOL     OW 6042  12.759  13.573   8.135
 1382SOL    HW1 6043  12.691  13.621   8.088
 1382SOL    HW2 6044  12.711  13.509   8.189
 1383SOL     OW 6045   2.143   2.395  12.454
 1383SOL    HW1 6046   2.130   2.337  12.529
 1383SOL    HW2 6047   2.204   2.348  12.398
 1384SOL     OW 6048  10.515   3.690  12.992
 1384SOL    HW1 6049  10.545   3.647  13.072
 1384SOL    HW2 6050  10.591   3.689  12.934
 1385SOL     OW 6051   6.658   6.827   6.648
 1385SOL    HW1 6052   6.578   6.852   6.696
 1385SOL    HW2 6053   6.636   6.841   6.556
 1386SOL     OW 6054  10.840  10.726   5.710
 1386SOL    HW1 6055  10.748  10.750   5.725
 1386SOL    HW2 6056  10.836  10.660   5.641
 1387SOL     OW 6057   3.642   7.703  14.042
 1387SOL    HW1 6058   3.678   7.791  14.051
 1387SOL    HW2 6059   3.656   7.661  14.127
 1388SOL     OW 6060   5.895  12.063   5.148
 1388SOL    HW1 6061   5.805  12.048   5.118
 1388SOL    HW2 6062   5.949  12.016   5.084
 1389SOL     OW 6063   5.927   0.641   4.073
 1389SOL    HW1 6064   5.944   0.624   3.981
 1389SOL    HW2 6065   5.953   0.561   4.118
 1390SOL     OW 6066   5.071   0.450  10.405
 1390SOL    HW1 6067   5.061   0.520  10.470
 1390SOL    HW2 6068   5.150   0.403  10.432
 1391SOL     OW 6069   1.329  11.533  12.303
 1391SOL    HW1 6070   1.347  11.589  12.378
 1391SOL    HW2 6071   1.237  11.550  12.281
 1392SOL     OW 6072   7.001  11.151   1.132
 1392SOL    HW1 6073   6.979  11.104   1.213
 1392SOL    HW2 6074   6.918  11.154   1.084
 1393SOL     OW 6075  10.396   3.804   9.091
 1393SOL    HW1 6076  10.351   3.720   9.104
 1393SOL    HW2 6077  10.374   3.829   9.001
 1394SOL     OW 6078  12.881  14.361   8.598
 1394SOL    HW1 6079  12.815  14.292   8.607
 1394SOL    HW2 6080  12.863  14.422   8.669
 1395SOL     OW 6081   2.937  10.250   9.188
 1395SOL    HW1 6082   2.930  10.160   9.156
 1395SOL    HW2 6083   2.903  10.303   9.116
 1396SOL     OW 6084   3.788   3.987   1.047
 1396SOL    HW1 6085   3.819   4.067   1.004
 1396SOL    HW2 6086   3.693   3.990   1.038
 1397SOL     OW 6087   1.820   6.748  12.748
 1397SOL    HW1 6088   1.845   6.719  12.660
 1397SOL    HW2 6089   1.835   6.843  12.747
 1398SOL     OW 6090   7.095   8.552   9.409
 1398SOL    HW1 6091   7.147   8.485   9.454
 1398SOL    HW2 6092   7.097   8.526   9.317
 1399SOL     OW 6093   4.432   2.901   7.070
 1399SOL    HW1 6094   4.377   2.978   7.052
 1399SOL    HW2 6095   4.428   2.891   7.165
 1400SOL     OW 6096   4.572   4.802  13.958
 1400SOL    HW1 6097   4.628   4.855  14.015
 1400SOL    HW2 6098   4.592   4.712  13.982
 1401SOL     OW 6099   0.250  14.823  10.238
 1401SOL    HW1 6100   0.199   0.012  10.196
 1401SOL    HW2 6101   0.275  14.764  10.167
 1402SOL     OW 6102   3.204   0.583   7.516
 1402SOL    HW1 6103   3.246   0.624   7.592
 1402SOL    HW2 6104   3.275   0.572   7.452
 1403SOL     OW 6105  14.522   4.392   9.469
 1403SOL    HW1 6106  14.461   4.409   9.541
 1403SOL    HW2 6107  14.562   4.477   9.450
 1404SOL     OW 6108   4.324   9.386   5.986
 1404SOL    HW1 6109   4.274   9.341   6.055
 1404SOL    HW2 6110   4.343   9.317   5.922
 1405SOL     OW 6111  10.132  14.477  14.650
 1405SOL    HW1 6112  10.065  14.422  14.608
 1405SOL    HW2 6113  10.109  14.474  14.743
 1406SOL     OW 6114  12.483   7.827   5.484
 1406SOL    HW1 6115  12.405   7.771   5.484
 1406SOL    HW2 6116  12.501   7.843   5.576
 1407SOL     OW 6117  12.571   7.504   9.715
 1407SOL    HW1 6118  12.607   7.519   9.628
 1407SOL    HW2 6119  12.648   7.494   9.771
 1408SOL     OW 6120   5.857  13.427   0.626
 1408SOL    HW1 6121   5.839  13.446   0.534
 1408SOL    HW2 6122   5.827  13.505   0.673
 1409SOL     OW 6123  11.103  10.241   7.646
 1409SOL    HW1 6124  11.013  10.227   7.675
 1409SOL    HW2 6125  11.101  10.324   7.599
 1410SOL     OW 6126   0.370   8.567   3.948
 1410SOL    HW1 6127   0.455   8.559   3.990
 1410SOL    HW2 6128   0.326   8.638   3.995
 1411SOL     OW 6129  13.235   7.707   2.145
 1411SOL    HW1 6130  13.214   7.615   2.162
 1411SOL    HW2 6131  13.315   7.703   2.093
 1412SOL     OW 6132   5.255   4.014  12.119
 1412SOL    HW1 6133   5.228   4.049  12.204
 1412SOL    HW2 6134   5.348   3.995  12.130
 1413SOL     OW 6135   3.690  12.828  11.033
 1413SOL    HW1 6136   3.730  12.770  10.969
 1413SOL    HW2 6137   3.600  12.798  11.040
 1414SOL     OW 6138  13.560   9.079   1.567
 1414SOL    HW1 6139  13.635   9.062   1.510
 1414SOL    HW2 6140  13.510   8.997   1.565
 1415SOL     OW 6141  12.470   3.781  13.999
 1415SOL    HW1 6142  12.452   3.805  13.908
 1415SOL    HW2 6143  12.430   3.851  14.050
 1416SOL     OW 6144   9.042  10.895   5.956
 1416SOL    HW1 6145   9.019  10.823   6.015
 1416SOL    HW2 6146   8.979  10.888   5.884
 1417SOL     OW 6147   8.527   0.825   8.323
 1417SOL    HW1 6148   8.512   0.747   8.270
 1417SOL    HW2 6149   8.565   0.792   8.405
 1418SOL     OW 6150  12.242   3.455   7.225
 1418SOL    HW1 6151  12.163   3.469   7.276
 1418SOL    HW2 6152  12.311   3.444   7.290
 1419SOL     OW 6153   5.201  14.551  14.336
 1419SOL    HW1 6154   5.275  14.513  14.384
 1419SOL    HW2 6155   5.125  14.501  14.368
 1420SOL     OW 6156  10.522   5.302  11.875
 1420SOL    HW1 6157  10.443   5.331  11.921
 1420SOL    HW2 6158  10.491   5.275  11.788
 1421SOL     OW 6159  10.513   4.547  14.706
 1421SOL    HW1 6160  10.450   4.475  14.704
 1421SOL    HW2 6161  10.597   4.506  14.684
 1422SOL     OW 6162  13.384   0.731   7.592
 1422SOL    HW1 6163  13.464   0.770   7.558
 1422SOL    HW2 6164  13.409   0.690   7.674
 1423SOL     OW 6165  11.972   3.765   0.160
 1423SOL    HW1 6166  11.991   3.859   0.167
 1423SOL    HW2 6167  11.891   3.753   0.208
 1424SOL     OW 6168   4.027   3.878  14.613
 1424SOL    HW1 6169   4.121   3.887  14.595
 1424SOL    HW2 6170   3.994   3.824  14.541
 1425SOL     OW 6171  10.174   2.915   0.028
 1425SOL    HW1 6172  10.116   2.859   0.080
 1425SOL    HW2 6173  10.123   2.995   0.013
 1426SOL     OW 6174   8.171  14.802   5.989
 1426SOL    HW1 6175   8.103  14.738   6.009
 1426SOL    HW2 6176   8.219  14.764   5.916
 1427SOL     OW 6177   4.694  14.343   8.458
 1427SOL    HW1 6178   4.695  14.379   8.547
 1427SOL    HW2 6179   4.769  14.284   8.455
 1428SOL     OW 6180  11.940   4.042   1.046
 1428SOL    HW1 6181  12.002   4.045   0.973
 1428SOL    HW2 6182  11.994   4.060   1.124
 1429SOL     OW 6183  10.306   8.416   1.555
 1429SOL    HW1 6184  10.273   8.361   1.485
 1429SOL    HW2 6185  10.238   8.411   1.623
 1430SOL     OW 6186   1.192  13.837  10.683
 1430SOL    HW1 6187   1.261  13.894  10.717
 1430SOL    HW2 6188   1.237  13.778  10.623
 1431SOL     OW 6189  10.076   1.645   0.436
 1431SOL    HW1 6190  10.160   1.680   0.406
 1431SOL    HW2 6191  10.100   1.578   0.501
 1432SOL     OW 6192   3.873   8.323   3.063
 1432SOL    HW1 6193   3.795   8.367   3.027
 1432SOL    HW2 6194   3.841   8.238   3.092
 1433SOL     OW 6195  12.781   8.132   1.327
 1433SOL    HW1 6196  12.827   8.215   1.322
 1433SOL    HW2 6197  12.835   8.071   1.277
 1434SOL     OW 6198   5.599   6.220   7.153
 1434SOL    HW1 6199   5.618   6.274   7.076
 1434SOL    HW2 6200   5.577   6.282   7.222
 1435SOL     OW 6201  11.546  11.726  14.758
 1435SOL    HW1 6202  11.617  11.729  14.694
 1435SOL    HW2 6203  11.476  11.778  14.719
 1436SOL     OW 6204   3.973   0.964   9.460
 1436SOL    HW1 6205   3.890   0.916   9.471
 1436SOL    HW2 6206   3.951   1.054   9.485
 1437SOL     OW 6207  10.005   5.161  13.884
 1437SOL    HW1 6208   9.953   5.094  13.839
 1437SOL    HW2 6209   9.997   5.238  13.828
 1438SOL     OW 6210   1.150  11.945   7.738
 1438SOL    HW1 6211   1.144  11.899   7.822
 1438SOL    HW2 6212   1.065  11.929   7.697
 1439SOL     OW 6213   1.220   6.556  12.431
 1439SOL    HW1 6214   1.232   6.507  12.513
 1439SOL    HW2 6215   1.304   6.600  12.418
 1440SOL     OW 6216  14.131   4.564   6.276
 1440SOL    HW1 6217  14.208   4.610   6.243
 1440SOL    HW2 6218  14.074   4.632   6.309
 1441SOL     OW 6219  14.439  13.674   2.266
 1441SOL    HW1 6220  14.404  13.604   2.322
 1441SOL    HW2 6221  14.448  13.634   2.180
 1442SOL     OW 6222   4.869  10.988  11.547
 1442SOL    HW1 6223   4.848  10.999  11.455
 1442SOL    HW2 6224   4.842  11.070  11.588
 1443SOL     OW 6225  14.518   9.081  13.853
 1443SOL    HW1 6226  14.449   9.015  13.855
 1443SOL    HW2 6227  14.597   9.033  13.826
 1444SOL     OW 6228  11.534   8.617  10.238
 1444SOL    HW1 6229  11.592   8.637  10.312
 1444SOL    HW2 6230  11.586   8.560  10.181
 1445SOL     OW 6231   2.670   5.116  10.728
 1445SOL    HW1 6232   2.574   5.116  10.736
 1445SOL    HW2 6233   2.693   5.024  10.714
 1446SOL     OW 6234  13.920   8.126   3.624
 1446SOL    HW1 6235  13.971   8.089   3.696
 1446SOL    HW2 6236  13.936   8.220   3.628
 1447SOL     OW 6237   7.302  12.992   9.218
 1447SOL    HW1 6238   7.288  12.901   9.244
 1447SOL    HW2 6239   7.284  12.994   9.124
 1448SOL     OW 6240   4.891   1.795   1.708
 1448SOL    HW1 6241   4.865   1.875   1.662
 1448SOL    HW2 6242   4.828   1.729   1.679
 1449SOL     OW 6243   9.554  14.777   5.700
 1449SOL    HW1 6244   9.642  14.797   5.667
 1449SOL    HW2 6245   9.501  14.852   5.673
 1450SOL     OW 6246   1.046  12.721  12.428
 1450SOL    HW1 6247   1.067  12.771  12.507
 1450SOL    HW2 6248   1.116  12.656  12.422
 1451SOL     OW 6249   6.661   0.665  12.391
 1451SOL    HW1 6250   6.749   0.703  12.398
 1451SOL    HW2 6251   6.606   0.727  12.440
 1452SOL     OW 6252   4.596   8.005   1.367
 1452SOL    HW1 6253   4.544   8.032   1.443
 1452SOL    HW2 6254   4.635   8.087   1.335
 1453SOL     OW 6255  14.604   1.324   7.707
 1453SOL    HW1 6256  14.603   1.243   7.759
 1453SOL    HW2 6257  14.662   1.383   7.755
 1454SOL     OW 6258  12.463   3.422  10.435
 1454SOL    HW1 6259  12.514   3.368  10.496
 1454SOL    HW2 6260  12.374   3.386  10.440
 1455SOL     OW 6261  11.466   8.626   4.486
 1455SOL    HW1 6262  11.548   8.581   4.464
 1455SOL    HW2 6263  11.460   8.619   4.581
 1456SOL     OW 6264   1.671   1.781   2.481
 1456SOL    HW1 6265   1.638   1.856   2.531
 1456SOL    HW2 6266   1.718   1.820   2.408
 1457SOL     OW 6267   4.921   4.806   9.925
 1457SOL    HW1 6268   4.869   4.770   9.996
 1457SOL    HW2 6269   4.977   4.872   9.966
 1458SOL     OW 6270  11.473  11.797   4.025
 1458SOL    HW1 6271  11.525  11.777   3.947
 1458SOL    HW2 6272  11.538  11.803   4.096
 1459SOL     OW 6273   8.749   7.306   1.357
 1459SOL    HW1 6274   8.739   7.395   1.391
 1459SOL    HW2 6275   8.740   7.250   1.434
 1460SOL     OW 6276   4.621   1.600   4.947
 1460SOL    HW1 6277   4.626   1.601   5.042
 1460SOL    HW2 6278   4.693   1.656   4.918
 1461SOL     OW 6279   6.449  12.341   6.897
 1461SOL    HW1 6280   6.420  12.411   6.838
 1461SOL    HW2 6281   6.390  12.268   6.879
 1462SOL     OW 6282   0.734   0.178   6.798
 1462SOL    HW1 6283   0.660   0.118   6.802
 1462SOL    HW2 6284   0.708   0.251   6.855
 1463SOL     OW 6285  13.735   7.933   8.905
 1463SOL    HW1 6286  13.718   7.840   8.922
 1463SOL    HW2 6287  13.770   7.967   8.987
 1464SOL     OW 6288   8.372   0.936   9.540
 1464SOL    HW1 6289   8.357   0.842   9.541
 1464SOL    HW2 6290   8.438   0.949   9.472
 1465SOL     OW 6291  11.015   3.927   2.683
 1465SOL    HW1 6292  11.097   3.961   2.649
 1465SOL    HW2 6293  10.950   3.994   2.660
 1466SOL     OW 6294   0.739   0.759  10.724
 1466SOL    HW1 6295   0.827   0.794  10.730
 1466SOL    HW2 6296   0.717   0.733  10.813
 1467SOL     OW 6297   6.676   7.110   2.541
 1467SOL    HW1 6298   6.628   7.181   2.498
 1467SOL    HW2 6299   6.700   7.146   2.627
 1468SOL     OW 6300  12.974   8.271  14.530
 1468SOL    HW1 6301  12.905   8.208  14.546
 1468SOL    HW2 6302  13.034   8.262  14.604
 1469SOL     OW 6303   6.405   9.529   1.824
 1469SOL    HW1 6304   6.437   9.553   1.911
 1469SOL    HW2 6305   6.482   9.499   1.777
 1470SOL     OW 6306  12.120  13.577  12.779
 1470SOL    HW1 6307  12.213  13.601  12.784
 1470SOL    HW2 6308  12.074  13.651  12.818
 1471SOL     OW 6309   3.747  12.097   3.740
 1471SOL    HW1 6310   3.794  12.157   3.683
 1471SOL    HW2 6311   3.803  12.019   3.745
 1472SOL     OW 6312  10.560   6.646   3.324
 1472SOL    HW1 6313  10.639   6.636   3.272
 1472SOL    HW2 6314  10.585   6.621   3.412
 1473SOL     OW 6315   0.925   0.254   3.327
 1473SOL    HW1 6316   0.869   0.294   3.260
 1473SOL    HW2 6317   0.988   0.323   3.350
 1474SOL     OW 6318  11.427   3.327  14.750
 1474SOL    HW1 6319  11.408   3.416  14.780
 1474SOL    HW2 6320  11.445   3.337  14.656
 1475SOL     OW 6321   5.329   8.294   3.498
 1475SOL    HW1 6322   5.286   8.360   3.552
 1475SOL    HW2 6323   5.269   8.281   3.424
 1476SOL     OW 6324   6.713   3.674  11.935
 1476SOL    HW1 6325   6.741   3.698  11.846
 1476SOL    HW2 6326   6.643   3.735  11.956
 1477SOL     OW 6327  11.160  13.939   1.929
 1477SOL    HW1 6328  11.213  13.868   1.895
 1477SOL    HW2 6329  11.101  13.897   1.992
 1478SOL     OW 6330   8.754  14.280  13.604
 1478SOL    HW1 6331   8.769  14.188  13.585
 1478SOL    HW2 6332   8.661  14.294  13.584
 1479SOL     OW 6333   3.289   8.278   9.879
 1479SOL    HW1 6334   3.383   8.268   9.864
 1479SOL    HW2 6335   3.275   8.373   9.882
 1480SOL     OW 6336   4.561  11.445   4.557
 1480SOL    HW1 6337   4.572  11.411   4.468
 1480SOL    HW2 6338   4.518  11.374   4.605
 1481SOL     OW 6339   0.554  12.371   8.741
 1481SOL    HW1 6340   0.534  12.420   8.821
 1481SOL    HW2 6341   0.524  12.282   8.760
 1482SOL     OW 6342  11.757   9.537  14.718
 1482SOL    HW1 6343  11.740   9.459  14.664
 1482SOL    HW2 6344  11.826   9.583  14.671
 1483SOL     OW 6345   4.254  10.654   9.392
 1483SOL    HW1 6346   4.228  10.741   9.362
 1483SOL    HW2 6347   4.177  10.599   9.378
 1484SOL     OW 6348  14.363  13.345   4.236
 1484SOL    HW1 6349  14.310  13.268   4.254
 1484SOL    HW2 6350  14.303  13.408   4.195
 1485SOL     OW 6351  11.065   4.375  14.371
 1485SOL    HW1 6352  11.077   4.362  14.465
 1485SOL    HW2 6353  11.141   4.333  14.331
 1486SOL     OW 6354  10.780   7.331   5.096
 1486SOL    HW1 6355  10.803   7.418   5.131
 1486SOL    HW2 6356  10.841   7.271   5.139
 1487SOL     OW 6357   1.145   2.849  11.471
 1487SOL    HW1 6358   1.239   2.865  11.463
 1487SOL    HW2 6359   1.139   2.760  11.506
 1488SOL     OW 6360   1.502   3.819   5.567
 1488SOL    HW1 6361   1.558   3.747   5.595
 1488SOL    HW2 6362   1.497   3.878   5.643
 1489SOL     OW 6363  12.960   5.481   4.828
 1489SOL    HW1 6364  12.985   5.391   4.847
 1489SOL    HW2 6365  12.865   5.483   4.839
 1490SOL     OW 6366  10.609  10.850   6.725
 1490SOL    HW1 6367  10.563  10.791   6.665
 1490SOL    HW2 6368  10.618  10.800   6.805
 1491SOL     OW 6369  13.756   1.429   2.794
 1491SOL    HW1 6370  13.730   1.377   2.718
 1491SOL    HW2 6371  13.802   1.504   2.757
 1492SOL     OW 6372   3.186  11.106   0.182
 1492SOL    HW1 6373   3.229  11.192   0.178
 1492SOL    HW2 6374   3.252  11.044   0.152
 1493SOL     OW 6375  10.203   6.426   0.668
 1493SOL    HW1 6376  10.248   6.363   0.724
 1493SOL    HW2 6377  10.208   6.388   0.581
 1494SOL     OW 6378  12.103   9.204  12.484
 1494SOL    HW1 6379  12.107   9.164  12.397
 1494SOL    HW2 6380  12.014   9.237  12.491
 1495SOL     OW 6381   7.500   1.199  12.418
 1495SOL    HW1 6382   7.463   1.268  12.364
 1495SOL    HW2 6383   7.516   1.127  12.358
 1496SOL     OW 6384   7.974   1.489   4.129
 1496SOL    HW1 6385   7.978   1.486   4.224
 1496SOL    HW2 6386   8.064   1.476   4.100
 1497SOL     OW 6387  12.684  11.608   8.016
 1497SOL    HW1 6388  12.616  11.544   8.035
 1497SOL    HW2 6389  12.763  11.570   8.055
 1498SOL     OW 6390   9.380   2.816   1.730
 1498SOL    HW1 6391   9.293   2.844   1.758
 1498SOL    HW2 6392   9.372   2.803   1.636
 1499SOL     OW 6393   3.136  10.753   6.206
 1499SOL    HW1 6394   3.050  10.794   6.202
 1499SOL    HW2 6395   3.140  10.712   6.292
 1500SOL     OW 6396   6.917   6.348   6.606
 1500SOL    HW1 6397   6.839   6.298   6.631
 1500SOL    HW2 6398   6.940   6.315   6.520
 1501SOL     OW 6399   6.756   6.195   8.116
 1501SOL    HW1 6400   6.765   6.100   8.105
 1501SOL    HW2 6401   6.845   6.229   8.103
 1502SOL     OW 6402   6.825  11.461   9.178
 1502SOL    HW1 6403   6.756  11.500   9.230
 1502SOL    HW2 6404   6.905  11.507   9.204
 1503SOL     OW 6405   1.905  14.014   4.902
 1503SOL    HW1 6406   1.894  14.094   4.851
 1503SOL    HW2 6407   1.893  13.943   4.839
 1504SOL     OW 6408   7.985   6.704  11.849
 1504SOL    HW1 6409   7.901   6.739  11.820
 1504SOL    HW2 6410   8.019   6.659  11.772
 1505SOL     OW 6411  12.266  10.672   9.270
 1505SOL    HW1 6412  12.268  10.684   9.175
 1505SOL    HW2 6413  12.352  10.634   9.291
 1506SOL     OW 6414   9.849  10.343  12.357
 1506SOL    HW1 6415   9.908  10.374  12.288
 1506SOL    HW2 6416   9.905  10.290  12.413
 1507SOL     OW 6417   5.195  13.360   7.739
 1507SOL    HW1 6418   5.270  13.419   7.754
 1507SOL    HW2 6419   5.232  13.272   7.745
 1508SOL     OW 6420   0.150   6.143  11.707
 1508SOL    HW1 6421   0.149   6.091  11.787
 1508SOL    HW2 6422   0.223   6.107  11.657
 1509SOL     OW 6423   1.165   5.197  13.995
 1509SOL    HW1 6424   1.155   5.289  13.971
 1509SOL    HW2 6425   1.222   5.161  13.926
 1510SOL     OW 6426   2.401   5.665   3.775
 1510SOL    HW1 6427   2.485   5.685   3.816
 1510SOL    HW2 6428   2.367   5.592   3.826
 1511SOL     OW 6429   7.901   1.426  13.692
 1511SOL    HW1 6430   7.821   1.461  13.732
 1511SOL    HW2 6431   7.959   1.502  13.688
 1512SOL     OW 6432   5.095   3.491   4.089
 1512SOL    HW1 6433   5.116   3.484   4.183
 1512SOL    HW2 6434   5.157   3.556   4.056
 1513SOL     OW 6435   8.746  11.947   2.778
 1513SOL    HW1 6436   8.788  11.890   2.841
 1513SOL    HW2 6437   8.784  12.034   2.794
 1514SOL     OW 6438   6.255  14.417   4.488
 1514SOL    HW1 6439   6.203  14.473   4.545
 1514SOL    HW2 6440   6.339  14.463   4.479
 1515SOL     OW 6441  14.741   6.720   4.840
 1515SOL    HW1 6442  14.754   6.645   4.897
 1515SOL    HW2 6443  14.647   6.718   4.818
 1516SOL     OW 6444  13.909  10.868   9.772
 1516SOL    HW1 6445  13.890  10.775   9.787
 1516SOL    HW2 6446  13.861  10.913   9.841
 1517SOL     OW 6447  11.500   9.535   1.157
 1517SOL    HW1 6448  11.447   9.567   1.230
 1517SOL    HW2 6449  11.442   9.477   1.108
 1518SOL     OW 6450  13.714  12.456   7.606
 1518SOL    HW1 6451  13.765  12.413   7.537
 1518SOL    HW2 6452  13.636  12.402   7.615
 1519SOL     OW 6453   2.772   6.763  14.875
 1519SOL    HW1 6454   2.765   6.829   0.065
 1519SOL    HW2 6455   2.684   6.727  14.867
 1520SOL     OW 6456  14.596  13.372   9.249
 1520SOL    HW1 6457  14.522  13.322   9.215
 1520SOL    HW2 6458  14.575  13.386   9.341
 1521SOL     OW 6459   1.194   6.169  12.903
 1521SOL    HW1 6460   1.277   6.215  12.916
 1521SOL    HW2 6461   1.214   6.103  12.836
 1522SOL     OW 6462   0.565   4.301  12.490
 1522SOL    HW1 6463   0.635   4.255  12.536
 1522SOL    HW2 6464   0.491   4.240  12.492
 1523SOL     OW 6465  12.241   7.651  11.848
 1523SOL    HW1 6466  12.226   7.621  11.759
 1523SOL    HW2 6467  12.300   7.587  11.886
 1524SOL     OW 6468   7.247   3.859   6.425
 1524SOL    HW1 6469   7.258   3.764   6.419
 1524SOL    HW2 6470   7.264   3.891   6.337
 1525SOL     OW 6471   2.788  10.877  12.297
 1525SOL    HW1 6472   2.865  10.892  12.243
 1525SOL    HW2 6473   2.823  10.864  12.386
 1526SOL     OW 6474   4.140   7.092   7.228
 1526SOL    HW1 6475   4.154   7.099   7.322
 1526SOL    HW2 6476   4.084   7.167   7.207
 1527SOL     OW 6477   6.644   4.870   1.979
 1527SOL    HW1 6478   6.631   4.902   1.890
 1527SOL    HW2 6479   6.714   4.805   1.970
 1528SOL     OW 6480   0.348   5.984  11.581
 1528SOL    HW1 6481   0.356   5.889  11.587
 1528SOL    HW2 6482   0.435   6.017  11.603
 1529SOL     OW 6483  12.235   9.985  10.925
 1529SOL    HW1 6484  12.142  10.006  10.930
 1529SOL    HW2 6485  12.274  10.058  10.877
 1530SOL     OW 6486   7.943   4.113   9.357
 1530SOL    HW1 6487   7.934   4.188   9.297
 1530SOL    HW2 6488   8.037   4.111   9.378
 1531SOL     OW 6489   2.893   2.992   0.156
 1531SOL    HW1 6490   2.985   2.997   0.180
 1531SOL    HW2 6491   2.850   2.954   0.233
 1532SOL     OW 6492   6.204   2.846   0.465
 1532SOL    HW1 6493   6.159   2.770   0.501
 1532SOL    HW2 6494   6.249   2.886   0.539
 1533SOL     OW 6495  10.506   7.252  11.568
 1533SOL    HW1 6496  10.528   7.326  11.510
 1533SOL    HW2 6497  10.410   7.250  11.568
 1534SOL     OW 6498   6.059  10.797   9.673
 1534SOL    HW1 6499   6.107  10.724   9.633
 1534SOL    HW2 6500   6.119  10.871   9.665
 1535SOL     OW 6501  12.136   3.166  11.098
 1535SOL    HW1 6502  12.174   3.078  11.090
 1535SOL    HW2 6503  12.211   3.225  11.103
 1536SOL     OW 6504   0.337  11.286  10.410
 1536SOL    HW1 6505   0.263  11.255  10.357
 1536SOL    HW2 6506   0.412  11.281  10.351
 1537SOL     OW 6507   4.950   1.043   9.013
 1537SOL    HW1 6508   4.992   0.960   9.033
 1537SOL    HW2 6509   4.861   1.034   9.046
 1538SOL     OW 6510   3.622   3.991   7.019
 1538SOL    HW1 6511   3.694   3.983   7.082
 1538SOL    HW2 6512   3.646   4.066   6.964
 1539SOL     OW 6513   0.660   2.304  14.572
 1539SOL    HW1 6514   0.637   2.396  14.590
 1539SOL    HW2 6515   0.610   2.282  14.494
 1540SOL     OW 6516   8.171   0.754  12.201
 1540SOL    HW1 6517   8.219   0.785  12.278
 1540SOL    HW2 6518   8.237   0.753  12.131
 1541SOL     OW 6519   9.153   9.044   6.924
 1541SOL    HW1 6520   9.076   8.987   6.922
 1541SOL    HW2 6521   9.120   9.130   6.949
 1542SOL     OW 6522  14.677   1.916  14.697
 1542SOL    HW1 6523  14.731   1.933  14.620
 1542SOL    HW2 6524  14.628   1.997  14.710
 1543SOL     OW 6525   6.099   7.438  13.974
 1543SOL    HW1 6526   6.053   7.435  13.890
 1543SOL    HW2 6527   6.030   7.451  14.039
 1544SOL     OW 6528   8.875  11.773   5.767
 1544SOL    HW1 6529   8.953  11.768   5.822
 1544SOL    HW2 6530   8.907  11.797   5.681
 1545SOL     OW 6531   9.637   9.174   7.829
 1545SOL    HW1 6532   9.626   9.079   7.831
 1545SOL    HW2 6533   9.549   9.208   7.811
 1546SOL     OW 6534   9.625   3.691  10.958
 1546SOL    HW1 6535   9.697   3.749  10.934
 1546SOL    HW2 6536   9.656   3.604  10.934
 1547SOL     OW 6537  12.325   1.850  14.805
 1547SOL    HW1 6538  12.370   1.771  14.834
 1547SOL    HW2 6539  12.396   1.913  14.788
 1548SOL     OW 6540   8.833  11.119  13.154
 1548SOL    HW1 6541   8.808  11.205  13.121
 1548SOL    HW2 6542   8.928  11.123  13.165
 1549SOL     OW 6543  12.858   0.295  11.082
 1549SOL    HW1 6544  12.944   0.311  11.042
 1549SOL    HW2 6545  12.861   0.342  11.165
 1550SOL     OW 6546   2.717   0.475  11.694
 1550SOL    HW1 6547   2.689   0.403  11.750
 1550SOL    HW2 6548   2.791   0.440  11.645
 1551SOL     OW 6549   6.260   5.782   5.146
 1551SOL    HW1 6550   6.236   5.873   5.162
 1551SOL    HW2 6551   6.222   5.761   5.061
 1552SOL     OW 6552  13.210  10.279  14.342
 1552SOL    HW1 6553  13.293  10.232  14.339
 1552SOL    HW2 6554  13.171  10.254  14.425
 1553SOL     OW 6555   7.630   4.219   4.565
 1553SOL    HW1 6556   7.644   4.205   4.471
 1553SOL    HW2 6557   7.537   4.235   4.574
 1554SOL     OW 6558   1.844  13.733  13.003
 1554SOL    HW1 6559   1.911  13.734  12.935
 1554SOL    HW2 6560   1.795  13.652  12.986
 1555SOL     OW 6561   3.081   8.046  14.063
 1555SOL    HW1 6562   2.993   8.008  14.062
 1555SOL    HW2 6563   3.081   8.106  14.138
 1556SOL     OW 6564  13.837  11.153   1.603
 1556SOL    HW1 6565  13.840  11.058   1.592
 1556SOL    HW2 6566  13.820  11.165   1.697
 1557SOL     OW 6567   1.905   8.056   5.181
 1557SOL    HW1 6568   1.827   8.001   5.188
 1557SOL    HW2 6569   1.872   8.142   5.156
 1558SOL     OW 6570   7.408  10.764  10.245
 1558SOL    HW1 6571   7.498  10.732  10.242
 1558SOL    HW2 6572   7.367  10.729  10.166
 1559SOL     OW 6573  11.041  12.836   0.216
 1559SOL    HW1 6574  10.993  12.917   0.205
 1559SOL    HW2 6575  11.037  12.818   0.310
 1560SOL     OW 6576   1.800   1.979   8.148
 1560SOL    HW1 6577   1.753   1.918   8.091
 1560SOL    HW2 6578   1.736   2.002   8.216
 1561SOL     OW 6579  12.220   6.525   8.980
 1561SOL    HW1 6580  12.210   6.571   9.063
 1561SOL    HW2 6581  12.306   6.483   8.985
 1562SOL     OW 6582   4.425   2.224   5.641
 1562SOL    HW1 6583   4.364   2.206   5.569
 1562SOL    HW2 6584   4.462   2.138   5.661
 1563SOL     OW 6585  13.090  14.544   2.390
 1563SOL    HW1 6586  13.125  14.630   2.415
 1563SOL    HW2 6587  12.996  14.558   2.379
 1564SOL     OW 6588   7.681  14.060  10.402
 1564SOL    HW1 6589   7.613  14.078  10.467
 1564SOL    HW2 6590   7.758  14.037  10.455
 1565SOL     OW 6591   7.284  10.738   1.507
 1565SOL    HW1 6592   7.377  10.761   1.495
 1565SOL    HW2 6593   7.238  10.796   1.446
 1566SOL     OW 6594   7.343   4.862   1.727
 1566SOL    HW1 6595   7.306   4.838   1.642
 1566SOL    HW2 6596   7.269   4.898   1.776
 1567SOL     OW 6597   2.673   7.572   7.690
 1567SOL    HW1 6598   2.736   7.592   7.760
 1567SOL    HW2 6599   2.688   7.479   7.671
 1568SOL     OW 6600  13.921  12.108  11.229
 1568SOL    HW1 6601  13.961  12.195  11.236
 1568SOL    HW2 6602  13.933  12.069  11.316
 1569SOL     OW 6603  11.725   1.008   3.180
 1569SOL    HW1 6604  11.724   1.096   3.142
 1569SOL    HW2 6605  11.797   1.010   3.243
 1570SOL     OW 6606   0.320  11.692   0.921
 1570SOL    HW1 6607   0.227  11.680   0.901
 1570SOL    HW2 6608   0.365  11.642   0.853
 1571SOL     OW 6609   9.620   8.176  13.904
 1571SOL    HW1 6610   9.632   8.081  13.898
 1571SOL    HW2 6611   9.673   8.211  13.832
 1572SOL     OW 6612   4.542   1.416   3.383
 1572SOL    HW1 6613   4.626   1.437   3.425
 1572SOL    HW2 6614   4.486   1.387   3.455
 1573SOL     OW 6615  12.213   4.225   4.243
 1573SOL    HW1 6616  12.227   4.133   4.222
 1573SOL    HW2 6617  12.266   4.273   4.179
 1574SOL     OW 6618   0.795   3.262  13.999
 1574SOL    HW1 6619   0.710   3.300  13.975
 1574SOL    HW2 6620   0.788   3.244  14.093
 1575SOL     OW 6621  10.973  11.142   6.830
 1575SOL    HW1 6622  10.913  11.202   6.874
 1575SOL    HW2 6623  10.916  11.081   6.783
 1576SOL     OW 6624   1.496   2.475   6.262
 1576SOL    HW1 6625   1.516   2.568   6.261
 1576SOL    HW2 6626   1.437   2.462   6.188
 1577SOL     OW 6627  13.927   3.314   5.776
 1577SOL    HW1 6628  13.962   3.352   5.695
 1577SOL    HW2 6629  13.843   3.358   5.788
 1578SOL     OW 6630  12.597   9.047   3.231
 1578SOL    HW1 6631  12.600   8.996   3.150
 1578SOL    HW2 6632  12.520   9.014   3.277
 1579SOL     OW 6633  13.369  10.263   6.955
 1579SOL    HW1 6634  13.305  10.250   6.885
 1579SOL    HW2 6635  13.345  10.198   7.021
 1580SOL     OW 6636   1.173  11.500   4.689
 1580SOL    HW1 6637   1.140  11.548   4.612
 1580SOL    HW2 6638   1.110  11.429   4.701
 1581SOL     OW 6639   4.936   9.553  13.046
 1581SOL    HW1 6640   4.842   9.566  13.038
 1581SOL    HW2 6641   4.962   9.507  12.966
 1582SOL     OW 6642   4.602  14.216  14.016
 1582SOL    HW1 6643   4.529  14.230  13.955
 1582SOL    HW2 6644   4.595  14.124  14.041
 1583SOL     OW 6645   4.312   8.917  10.252
 1583SOL    HW1 6646   4.246   8.881  10.311
 1583SOL    HW2 6647   4.324   9.007  10.282
 1584SOL     OW 6648   4.935   6.046  14.729
 1584SOL    HW1 6649   4.906   6.026  14.818
 1584SOL    HW2 6650   4.880   6.120  14.703
 1585SOL     OW 6651   6.468   0.901  12.457
 1585SOL    HW1 6652   6.440   0.991  12.442
 1585SOL    HW2 6653   6.463   0.860  12.370
 1586SOL     OW 6654  12.331   6.994  10.529
 1586SOL    HW1 6655  12.417   6.963  10.501
 1586SOL    HW2 6656  12.291   7.027  10.448
 1587SOL     OW 6657  11.078  11.489   0.871
 1587SOL    HW1 6658  11.147  11.497   0.806
 1587SOL    HW2 6659  11.041  11.577   0.878
 1588SOL     OW 6660   1.931  14.513   8.585
 1588SOL    HW1 6661   2.026  14.506   8.584
 1588SOL    HW2 6662   1.904  14.479   8.670
 1589SOL     OW 6663   0.568  13.961   8.783
 1589SOL    HW1 6664   0.514  14.020   8.731
 1589SOL    HW2 6665   0.584  14.008   8.865
 1590SOL     OW 6666   8.018   0.800   9.686
 1590SOL    HW1 6667   8.012   0.731   9.619
 1590SOL    HW2 6668   8.017   0.752   9.769
 1591SOL     OW 6669   2.731   1.653   0.269
 1591SOL    HW1 6670   2.664   1.595   0.233
 1591SOL    HW2 6671   2.720   1.736   0.223
 1592SOL     OW 6672   2.230  13.560  10.867
 1592SOL    HW1 6673   2.163  13.498  10.839
 1592SOL    HW2 6674   2.312  13.509  10.864
 1593SOL     OW 6675   3.337   2.064   6.654
 1593SOL    HW1 6676   3.341   1.978   6.697
 1593SOL    HW2 6677   3.368   2.048   6.565
 1594SOL     OW 6678   0.185   0.100   2.926
 1594SOL    HW1 6679   0.171   0.149   3.007
 1594SOL    HW2 6680   0.138   0.018   2.939
 1595SOL     OW 6681  14.255  14.325  12.148
 1595SOL    HW1 6682  14.165  14.323  12.115
 1595SOL    HW2 6683  14.247  14.298  12.240
 1596SOL     OW 6684   4.133   5.264  10.203
 1596SOL    HW1 6685   4.095   5.344  10.239
 1596SOL    HW2 6686   4.176   5.222  10.277
 1597SOL     OW 6687   5.932  14.634   0.595
 1597SOL    HW1 6688   5.955  14.687   0.518
 1597SOL    HW2 6689   5.900  14.551   0.558
 1598SOL     OW 6690   8.508  12.712   6.785
 1598SOL    HW1 6691   8.431  12.758   6.753
 1598SOL    HW2 6692   8.563  12.702   6.708
 1599SOL     OW 6693  14.676   4.291   0.452
 1599SOL    HW1 6694  14.648   4.244   0.531
 1599SOL    HW2 6695  14.749   4.345   0.482
 1600SOL     OW 6696   4.464  12.169   2.892
 1600SOL    HW1 6697   4.444  12.206   2.978
 1600SOL    HW2 6698   4.506  12.085   2.911
 1601SOL     OW 6699  11.850  14.464  14.418
 1601SOL    HW1 6700  11.887  14.548  14.392
 1601SOL    HW2 6701  11.785  14.486  14.485
 1602SOL     OW 6702   6.068  13.653  13.193
 1602SOL    HW1 6703   5.985  13.615  13.165
 1602SOL    HW2 6704   6.075  13.734  13.142
 1603SOL     OW 6705   3.974   3.418   5.139
 1603SOL    HW1 6706   3.958   3.324   5.129
 1603SOL    HW2 6707   3.887   3.458   5.131
 1604SOL     OW 6708   4.498  11.364   5.842
 1604SOL    HW1 6709   4.578  11.392   5.885
 1604SOL    HW2 6710   4.444  11.444   5.837
 1605SOL     OW 6711  12.478   7.688   0.481
 1605SOL    HW1 6712  12.524   7.616   0.439
 1605SOL    HW2 6713  12.390   7.655   0.497
 1606SOL     OW 6714  13.427   4.641  11.622
 1606SOL    HW1 6715  13.370   4.633  11.546
 1606SOL    HW2 6716  13.436   4.736  11.635
 1607SOL     OW 6717  14.596   0.431   8.427
 1607SOL    HW1 6718  14.607   0.498   8.495
 1607SOL    HW2 6719  14.635   0.470   8.349
 1608SOL     OW 6720  13.063   7.159   7.491
 1608SOL    HW1 6721  13.157   7.156   7.507
 1608SOL    HW2 6722  13.046   7.087   7.429
 1609SOL     OW 6723   5.433  10.569   7.661
 1609SOL    HW1 6724   5.413  10.662   7.652
 1609SOL    HW2 6725   5.350  10.524   7.643
 1610SOL     OW 6726   1.957   5.649   0.995
 1610SOL    HW1 6727   1.988   5.648   1.085
 1610SOL    HW2 6728   1.872   5.606   0.999
 1611SOL     OW 6729  10.678   2.841   1.511
 1611SOL    HW1 6730  10.714   2.847   1.422
 1611SOL    HW2 6731  10.686   2.929   1.546
 1612SOL     OW 6732   8.215   0.140   7.250
 1612SOL    HW1 6733   8.179   0.113   7.166
 1612SOL    HW2 6734   8.307   0.158   7.233
 1613SOL     OW 6735   6.508   4.101   0.844
 1613SOL    HW1 6736   6.582   4.062   0.890
 1613SOL    HW2 6737   6.532   4.192   0.832
 1614SOL     OW 6738   9.768  11.559   1.341
 1614SOL    HW1 6739   9.846  11.530   1.388
 1614SOL    HW2 6740   9.801  11.616   1.271
 1615SOL     OW 6741   1.043   8.899  10.433
 1615SOL    HW1 6742   1.079   8.963  10.494
 1615SOL    HW2 6743   0.955   8.930  10.414
 1616SOL     OW 6744  11.558  12.594   7.162
 1616SOL    HW1 6745  11.628  12.660   7.158
 1616SOL    HW2 6746  11.553  12.559   7.073
 1617SOL     OW 6747   4.009   6.254   7.175
 1617SOL    HW1 6748   4.080   6.316   7.187
 1617SOL    HW2 6749   4.033   6.204   7.097
 1618SOL     OW 6750   4.976   7.952   6.169
 1618SOL    HW1 6751   4.991   8.042   6.197
 1618SOL    HW2 6752   4.993   7.899   6.247
 1619SOL     OW 6753   8.175   9.844  14.250
 1619SOL    HW1 6754   8.098   9.799  14.217
 1619SOL    HW2 6755   8.160   9.936  14.229
 1620SOL     OW 6756   2.808   1.225   2.634
 1620SOL    HW1 6757   2.740   1.259   2.692
 1620SOL    HW2 6758   2.763   1.159   2.581
 1621SOL     OW 6759  10.994  13.090  14.797
 1621SOL    HW1 6760  11.056  13.162  14.786
 1621SOL    HW2 6761  11.050  13.013  14.808
 1622SOL     OW 6762   1.509  14.397  11.830
 1622SOL    HW1 6763   1.516  14.492  11.839
 1622SOL    HW2 6764   1.574  14.362  11.891
 1623SOL     OW 6765  14.594   8.016   3.609
 1623SOL    HW1 6766  14.558   7.930   3.588
 1623SOL    HW2 6767  14.671   7.998   3.662
 1624SOL     OW 6768   1.310   9.007   9.498
 1624SOL    HW1 6769   1.304   9.035   9.406
 1624SOL    HW2 6770   1.220   8.988   9.523
 1625SOL     OW 6771  10.866  10.845   1.691
 1625SOL    HW1 6772  10.847  10.807   1.605
 1625SOL    HW2 6773  10.906  10.930   1.671
 1626SOL     OW 6774   5.064   1.259  11.265
 1626SOL    HW1 6775   5.093   1.200  11.334
 1626SOL    HW2 6776   4.987   1.216  11.228
 1627SOL     OW 6777   9.184   7.906   4.201
 1627SOL    HW1 6778   9.132   7.828   4.216
 1627SOL    HW2 6779   9.243   7.912   4.276
 1628SOL     OW 6780   9.707   5.006  12.382
 1628SOL    HW1 6781   9.743   5.062  12.451
 1628SOL    HW2 6782   9.614   5.030  12.378
 1629SOL     OW 6783  13.689   4.477   5.348
 1629SOL    HW1 6784  13.678   4.517   5.262
 1629SOL    HW2 6785  13.631   4.401   5.348
 1630SOL     OW 6786   0.742   6.446   9.653
 1630SOL    HW1 6787   0.674   6.415   9.593
 1630SOL    HW2 6788   0.822   6.448   9.599
 1631SOL     OW 6789   3.711   5.181  12.078
 1631SOL    HW1 6790   3.628   5.134  12.074
 1631SOL    HW2 6791   3.687   5.273  12.063
 1632SOL     OW 6792  12.305  10.971   5.534
 1632SOL    HW1 6793  12.327  11.046   5.480
 1632SOL    HW2 6794  12.209  10.974   5.542
 1633SOL     OW 6795   6.794   3.373  12.450
 1633SOL    HW1 6796   6.760   3.446  12.502
 1633SOL    HW2 6797   6.732   3.302  12.465
 1634SOL     OW 6798  12.403   1.913   3.591
 1634SOL    HW1 6799  12.362   1.831   3.564
 1634SOL    HW2 6800  12.486   1.915   3.541
 1635SOL     OW 6801   4.935   2.052   8.168
 1635SOL    HW1 6802   4.949   1.960   8.191
 1635SOL    HW2 6803   4.846   2.071   8.198
 1636SOL     OW 6804  10.719   5.838  10.602
 1636SOL    HW1 6805  10.771   5.854  10.523
 1636SOL    HW2 6806  10.783   5.806  10.666
 1637SOL     OW 6807   2.557   6.431  12.839
 1637SOL    HW1 6808   2.483   6.382  12.874
 1637SOL    HW2 6809   2.634   6.376  12.858
 1638SOL     OW 6810  10.806   8.930  13.615
 1638SOL    HW1 6811  10.784   8.869  13.685
 1638SOL    HW2 6812  10.899   8.948  13.626
 1639SOL     OW 6813  13.885   8.530   2.215
 1639SOL    HW1 6814  13.798   8.570   2.214
 1639SOL    HW2 6815  13.874   8.446   2.173
 1640SOL     OW 6816   0.978   0.313   4.911
 1640SOL    HW1 6817   0.959   0.222   4.889
 1640SOL    HW2 6818   0.933   0.364   4.844
 1641SOL     OW 6819   2.658   4.407  11.132
 1641SOL    HW1 6820   2.632   4.322  11.098
 1641SOL    HW2 6821   2.714   4.387  11.207
 1642SOL     OW 6822  13.097   9.218   5.316
 1642SOL    HW1 6823  13.067   9.309   5.313
 1642SOL    HW2 6824  13.054   9.182   5.393
 1643SOL     OW 6825   1.472  10.061  10.144
 1643SOL    HW1 6826   1.425  10.033  10.065
 1643SOL    HW2 6827   1.407  10.111  10.194
 1644SOL     OW 6828   7.104   1.356  12.233
 1644SOL    HW1 6829   7.014   1.330  12.254
 1644SOL    HW2 6830   7.127   1.420  12.301
 1645SOL     OW 6831   7.228   7.520   4.929
 1645SOL    HW1 6832   7.311   7.514   4.977
 1645SOL    HW2 6833   7.166   7.471   4.984
 1646SOL     OW 6834   9.133  12.203  11.295
 1646SOL    HW1 6835   9.046  12.180  11.328
 1646SOL    HW2 6836   9.194  12.155  11.351
 1647SOL     OW 6837   9.390  14.373   7.433
 1647SOL    HW1 6838   9.318  14.310   7.433
 1647SOL    HW2 6839   9.462  14.327   7.475
 1648SOL     OW 6840  12.858   6.923   9.794
 1648SOL    HW1 6841  12.772   6.945   9.757
 1648SOL    HW2 6842  12.848   6.835   9.828
 1649SOL     OW 6843   9.344   4.300  10.991
 1649SOL    HW1 6844   9.406   4.293  10.918
 1649SOL    HW2 6845   9.397   4.287  11.069
 1650SOL     OW 6846  14.488  11.864  12.197
 1650SOL    HW1 6847  14.528  11.858  12.110
 1650SOL    HW2 6848  14.450  11.777  12.212
 1651SOL     OW 6849   2.000   8.703   4.927
 1651SOL    HW1 6850   2.052   8.641   4.978
 1651SOL    HW2 6851   1.909   8.676   4.943
 1652SOL     OW 6852  12.366   1.772  10.921
 1652SOL    HW1 6853  12.439   1.805  10.869
 1652SOL    HW2 6854  12.323   1.709  10.863
 1653SOL     OW 6855  11.905   1.456   7.244
 1653SOL    HW1 6856  11.825   1.421   7.285
 1653SOL    HW2 6857  11.944   1.380   7.199
 1654SOL     OW 6858   8.844   6.686   0.869
 1654SOL    HW1 6859   8.858   6.712   0.777
 1654SOL    HW2 6860   8.762   6.728   0.893
 1655SOL     OW 6861  11.593   3.867   8.941
 1655SOL    HW1 6862  11.640   3.783   8.939
 1655SOL    HW2 6863  11.517   3.852   8.885
 1656SOL     OW 6864  14.303   7.424   2.532
 1656SOL    HW1 6865  14.395   7.400   2.518
 1656SOL    HW2 6866  14.290   7.502   2.479
 1657SOL     OW 6867   0.797   9.535   5.787
 1657SOL    HW1 6868   0.801   9.548   5.692
 1657SOL    HW2 6869   0.736   9.602   5.818
 1658SOL     OW 6870   3.674   8.540  13.070
 1658SOL    HW1 6871   3.757   8.577  13.042
 1658SOL    HW2 6872   3.650   8.480  12.999
 1659SOL     OW 6873   6.982   8.107  11.814
 1659SOL    HW1 6874   6.941   8.021  11.805
 1659SOL    HW2 6875   6.969   8.130  11.906
 1660SOL     OW 6876   3.431   4.601   1.402
 1660SOL    HW1 6877   3.375   4.676   1.382
 1660SOL    HW2 6878   3.436   4.599   1.497
 1661SOL     OW 6879   8.286   8.229   0.377
 1661SOL    HW1 6880   8.370   8.182   0.379
 1661SOL    HW2 6881   8.290   8.289   0.452
 1662SOL     OW 6882   5.509   4.062   0.666
 1662SOL    HW1 6883   5.433   4.016   0.630
 1662SOL    HW2 6884   5.566   4.077   0.591
 1663SOL     OW 6885  11.846  11.168   7.313
 1663SOL    HW1 6886  11.921  11.111   7.296
 1663SOL    HW2 6887  11.807  11.133   7.393
 1664SOL     OW 6888  10.293   9.296   8.244
 1664SOL    HW1 6889  10.317   9.308   8.336
 1664SOL    HW2 6890  10.341   9.218   8.217
 1665SOL     OW 6891   4.498  10.386   8.233
 1665SOL    HW1 6892   4.503  10.299   8.274
 1665SOL    HW2 6893   4.412  10.419   8.258
 1666SOL     OW 6894  14.122  11.352  12.688
 1666SOL    HW1 6895  14.157  11.425  12.739
 1666SOL    HW2 6896  14.147  11.274  12.738
 1667SOL     OW 6897   7.660   5.078  14.816
 1667SOL    HW1 6898   7.756   5.071  14.812
 1667SOL    HW2 6899   7.629   4.988  14.813
 1668SOL     OW 6900   9.917   8.799  12.718
 1668SOL    HW1 6901   9.871   8.830  12.795
 1668SOL    HW2 6902   9.913   8.871  12.656
 1669SOL     OW 6903  12.730   2.026   5.142
 1669SOL    HW1 6904  12.636   2.010   5.140
 1669SOL    HW2 6905  12.760   2.002   5.054
 1670SOL     OW 6906  13.651   6.097   3.809
 1670SOL    HW1 6907  13.729   6.065   3.762
 1670SOL    HW2 6908  13.663   6.065   3.898
 1671SOL     OW 6909   3.737   1.332   0.572
 1671SOL    HW1 6910   3.825   1.334   0.536
 1671SOL    HW2 6911   3.681   1.308   0.498
 1672SOL     OW 6912  12.592  13.249  14.285
 1672SOL    HW1 6913  12.613  13.342  14.280
 1672SOL    HW2 6914  12.599  13.218  14.194
 1673SOL     OW 6915   7.855   9.986  14.715
 1673SOL    HW1 6916   7.817  10.024  14.636
 1673SOL    HW2 6917   7.950   9.987  14.699
 1674SOL     OW 6918  13.135  14.772   4.788
 1674SOL    HW1 6919  13.075  14.711   4.832
 1674SOL    HW2 6920  13.091  14.857   4.795
 1675SOL     OW 6921   7.065  11.662  12.115
 1675SOL    HW1 6922   7.026  11.704  12.039
 1675SOL    HW2 6923   7.142  11.617  12.081
 1676SOL     OW 6924   9.941   8.361   4.413
 1676SOL    HW1 6925   9.933   8.327   4.502
 1676SOL    HW2 6926   9.857   8.340   4.372
 1677SOL     OW 6927   2.559   1.849   3.393
 1677SOL    HW1 6928   2.533   1.900   3.317
 1677SOL    HW2 6929   2.634   1.896   3.429
 1678SOL     OW 6930  10.240   4.005  10.811
 1678SOL    HW1 6931  10.298   3.942  10.853
 1678SOL    HW2 6932  10.295   4.050  10.747
 1679SOL     OW 6933  10.848   7.926  11.943
 1679SOL    HW1 6934  10.926   7.944  11.995
 1679SOL    HW2 6935  10.865   7.841  11.902
 1680SOL     OW 6936   5.802   7.745  10.107
 1680SOL    HW1 6937   5.896   7.731  10.096
 1680SOL    HW2 6938   5.776   7.685  10.176
 1681SOL     OW 6939   5.083   6.016  10.989
 1681SOL    HW1 6940   5.102   6.058  11.073
 1681SOL    HW2 6941   4.992   5.985  10.997
 1682SOL     OW 6942   5.736   8.134   0.549
 1682SOL    HW1 6943   5.685   8.053   0.542
 1682SOL    HW2 6944   5.806   8.124   0.485
 1683SOL     OW 6945  14.302   2.335  14.242
 1683SOL    HW1 6946  14.318   2.359  14.333
 1683SOL    HW2 6947  14.347   2.251  14.232
 1684SOL     OW 6948  13.631  10.999   6.189
 1684SOL    HW1 6949  13.562  11.009   6.254
 1684SOL    HW2 6950  13.671  10.914   6.208
 1685SOL     OW 6951   7.583   0.707   0.252
 1685SOL    HW1 6952   7.659   0.759   0.228
 1685SOL    HW2 6953   7.555   0.742   0.336
 1686SOL     OW 6954   1.833   7.221   0.200
 1686SOL    HW1 6955   1.824   7.281   0.274
 1686SOL    HW2 6956   1.744   7.206   0.170
 1687SOL     OW 6957   4.718   0.121   9.060
 1687SOL    HW1 6958   4.710   0.202   9.110
 1687SOL    HW2 6959   4.664   0.135   8.982
 1688SOL     OW 6960   8.854   5.798   8.656
 1688SOL    HW1 6961   8.780   5.784   8.597
 1688SOL    HW2 6962   8.826   5.868   8.714
 1689SOL     OW 6963   3.342  12.305  14.329
 1689SOL    HW1 6964   3.353  12.360  14.252
 1689SOL    HW2 6965   3.268  12.248  14.307
 1690SOL     OW 6966   9.790   2.827   5.486
 1690SOL    HW1 6967   9.773   2.779   5.405
 1690SOL    HW2 6968   9.772   2.918   5.464
 1691SOL     OW 6969   5.208   2.119  13.094
 1691SOL    HW1 6970   5.180   2.208  13.072
 1691SOL    HW2 6971   5.287   2.105  13.041
 1692SOL     OW 6972  12.530   1.300  14.533
 1692SOL    HW1 6973  12.622   1.273  14.541
 1692SOL    HW2 6974  12.484   1.221  14.505
 1693SOL     OW 6975  11.176   5.524   9.914
 1693SOL    HW1 6976  11.180   5.604   9.862
 1693SOL    HW2 6977  11.092   5.484   9.890
 1694SOL     OW 6978   1.280  13.492   6.440
 1694SOL    HW1 6979   1.218  13.520   6.373
 1694SOL    HW2 6980   1.318  13.411   6.405
 1695SOL     OW 6981  14.474   8.583   9.616
 1695SOL    HW1 6982  14.414   8.605   9.545
 1695SOL    HW2 6983  14.561   8.590   9.577
 1696SOL     OW 6984   7.724   1.929   4.419
 1696SOL    HW1 6985   7.704   1.941   4.512
 1696SOL    HW2 6986   7.733   2.018   4.384
 1697SOL     OW 6987   5.442   1.455  14.369
 1697SOL    HW1 6988   5.438   1.548  14.390
 1697SOL    HW2 6989   5.406   1.449  14.281
 1698SOL     OW 6990  10.539  11.513   8.477
 1698SOL    HW1 6991  10.609  11.501   8.541
 1698SOL    HW2 6992  10.575  11.480   8.395
 1699SOL     OW 6993   9.174   5.733  12.081
 1699SOL    HW1 6994   9.242   5.734  12.013
 1699SOL    HW2 6995   9.168   5.823  12.111
 1700SOL     OW 6996   9.742   1.623   0.434
 1700SOL    HW1 6997   9.654   1.655   0.414
 1700SOL    HW2 6998   9.784   1.615   0.348
 1701SOL     OW 6999  13.055  11.774   2.402
 1701SOL    HW1 7000  13.053  11.870   2.397
 1701SOL    HW2 7001  13.010  11.745   2.323
 1702SOL     OW 7002  12.969  13.731  10.270
 1702SOL    HW1 7003  13.020  13.657  10.236
 1702SOL    HW2 7004  12.878  13.704  10.257
 1703SOL     OW 7005   9.292  10.240   7.077
 1703SOL    HW1 7006   9.363  10.230   7.014
 1703SOL    HW2 7007   9.330  10.217   7.161
 1704SOL     OW 7008   0.618  13.787   7.310
 1704SOL    HW1 7009   0.562  13.795   7.388
 1704SOL    HW2 7010   0.699  13.749   7.343
 1705SOL     OW 7011   7.144   9.779   8.032
 1705SOL    HW1 7012   7.142   9.723   7.954
 1705SOL    HW2 7013   7.092   9.856   8.007
 1706SOL     OW 7014   4.633   2.731   4.265
 1706SOL    HW1 7015   4.720   2.717   4.302
 1706SOL    HW2 7016   4.625   2.666   4.195
 1707SOL     OW 7017   6.358   8.335   5.663
 1707SOL    HW1 7018   6.369   8.318   5.757
 1707SOL    HW2 7019   6.415   8.271   5.620
 1708SOL     OW 7020  12.166   0.419   0.402
 1708SOL    HW1 7021  12.095   0.435   0.464
 1708SOL    HW2 7022  12.224   0.357   0.446
 1709SOL     OW 7023   7.295   6.368   8.791
 1709SOL    HW1 7024   7.297   6.408   8.705
 1709SOL    HW2 7025   7.214   6.399   8.831
 1710SOL     OW 7026   8.107  14.539   4.442
 1710SOL    HW1 7027   8.195  14.504   4.457
 1710SOL    HW2 7028   8.073  14.488   4.368
 1711SOL     OW 7029   5.809  14.259  14.088
 1711SOL    HW1 7030   5.738  14.321  14.069
 1711SOL    HW2 7031   5.885  14.294  14.041
 1712SOL     OW 7032   8.599  11.457   1.841
 1712SOL    HW1 7033   8.550  11.533   1.871
 1712SOL    HW2 7034   8.630  11.481   1.754
 1713SOL     OW 7035   4.183  14.399   6.645
 1713SOL    HW1 7036   4.189  14.405   6.740
 1713SOL    HW2 7037   4.089  14.388   6.628
 1714SOL     OW 7038   4.510   3.259   7.961
 1714SOL    HW1 7039   4.454   3.318   7.909
 1714SOL    HW2 7040   4.574   3.226   7.898
 1715SOL     OW 7041  12.904   8.383  12.193
 1715SOL    HW1 7042  12.960   8.307  12.177
 1715SOL    HW2 7043  12.965   8.454  12.209
 1716SOL     OW 7044   1.170  13.538   7.002
 1716SOL    HW1 7045   1.110  13.607   7.029
 1716SOL    HW2 7046   1.113  13.471   6.963
 1717SOL     OW 7047   4.370   3.445  13.371
 1717SOL    HW1 7048   4.373   3.541  13.367
 1717SOL    HW2 7049   4.281   3.423  13.342
 1718SOL     OW 7050   1.007  14.646  10.197
 1718SOL    HW1 7051   1.038  14.691  10.118
 1718SOL    HW2 7052   0.919  14.681  10.210
 1719SOL     OW 7053   8.688  13.263   9.257
 1719SOL    HW1 7054   8.602  13.253   9.217
 1719SOL    HW2 7055   8.730  13.177   9.245
 1720SOL     OW 7056  14.452   4.488   1.927
 1720SOL    HW1 7057  14.452   4.421   1.995
 1720SOL    HW2 7058  14.368   4.533   1.936
 1721SOL     OW 7059   3.140   6.977  13.370
 1721SOL    HW1 7060   3.109   6.896  13.328
 1721SOL    HW2 7061   3.172   7.031  13.298
 1722SOL     OW 7062   7.000   9.123   9.680
 1722SOL    HW1 7063   6.988   9.164   9.594
 1722SOL    HW2 7064   6.964   9.035   9.670
 1723SOL     OW 7065  12.523  12.723  14.131
 1723SOL    HW1 7066  12.590  12.783  14.163
 1723SOL    HW2 7067  12.571  12.644  14.106
 1724SOL     OW 7068  13.550  11.691   6.087
 1724SOL    HW1 7069  13.613  11.624   6.114
 1724SOL    HW2 7070  13.598  11.746   6.025
 1725SOL     OW 7071   4.464   2.647  12.021
 1725SOL    HW1 7072   4.468   2.736  11.986
 1725SOL    HW2 7073   4.524   2.597  11.964
 1726SOL     OW 7074   0.681  10.328   2.621
 1726SOL    HW1 7075   0.770  10.296   2.632
 1726SOL    HW2 7076   0.625  10.255   2.648
 1727SOL     OW 7077  13.198   1.978   7.782
 1727SOL    HW1 7078  13.103   1.971   7.780
 1727SOL    HW2 7079  13.224   1.980   7.690
 1728SOL     OW 7080   1.521   6.905   7.950
 1728SOL    HW1 7081   1.592   6.951   7.906
 1728SOL    HW2 7082   1.527   6.934   8.041
 1729SOL     OW 7083   5.147  13.781   9.825
 1729SOL    HW1 7084   5.232  13.767   9.868
 1729SOL    HW2 7085   5.083  13.755   9.892
 1730SOL     OW 7086   9.173   4.482   6.247
 1730SOL    HW1 7087   9.163   4.387   6.252
 1730SOL    HW2 7088   9.158   4.512   6.337
 1731SOL     OW 7089   3.669   0.808  14.642
 1731SOL    HW1 7090   3.607   0.747  14.683
 1731SOL    HW2 7091   3.753   0.761  14.642
 1732SOL     OW 7092   4.996  13.835   1.096
 1732SOL    HW1 7093   4.976  13.877   1.179
 1732SOL    HW2 7094   5.017  13.745   1.118
 1733SOL     OW 7095   7.313  14.439   3.324
 1733SOL    HW1 7096   7.309  14.451   3.229
 1733SOL    HW2 7097   7.272  14.517   3.360
 1734SOL     OW 7098  12.524   0.822   8.068
 1734SOL    HW1 7099  12.539   0.839   7.975
 1734SOL    HW2 7100  12.583   0.881   8.114
 1735SOL     OW 7101   2.533  13.068   8.813
 1735SOL    HW1 7102   2.462  13.016   8.851
 1735SOL    HW2 7103   2.563  13.123   8.885
 1736SOL     OW 7104  10.859   2.117  13.807
 1736SOL    HW1 7105  10.895   2.051  13.748
 1736SOL    HW2 7106  10.820   2.183  13.750
 1737SOL     OW 7107   0.954   9.039   1.696
 1737SOL    HW1 7108   1.018   9.079   1.755
 1737SOL    HW2 7109   0.988   9.055   1.608
 1738SOL     OW 7110   3.879  12.502   1.098
 1738SOL    HW1 7111   3.864  12.431   1.036
 1738SOL    HW2 7112   3.895  12.458   1.182
 1739SOL     OW 7113   5.569  13.754  13.848
 1739SOL    HW1 7114   5.569  13.849  13.861
 1739SOL    HW2 7115   5.487  13.724  13.889
 1740SOL     OW 7116   7.589   6.723   3.116
 1740SOL    HW1 7117   7.646   6.787   3.157
 1740SOL    HW2 7118   7.500   6.752   3.137
 1741SOL     OW 7119  14.368  12.038   1.461
 1741SOL    HW1 7120  14.289  12.021   1.513
 1741SOL    HW2 7121  14.412  11.953   1.456
 1742SOL     OW 7122   2.400   5.882  12.660
 1742SOL    HW1 7123   2.379   5.833  12.580
 1742SOL    HW2 7124   2.352   5.964  12.651
 1743SOL     OW 7125   5.618   5.609   8.610
 1743SOL    HW1 7126   5.590   5.619   8.701
 1743SOL    HW2 7127   5.697   5.663   8.603
 1744SOL     OW 7128   4.864  12.443   2.924
 1744SOL    HW1 7129   4.871  12.401   2.839
 1744SOL    HW2 7130   4.783  12.495   2.919
 1745SOL     OW 7131   8.071  12.185   9.191
 1745SOL    HW1 7132   8.075  12.263   9.247
 1745SOL    HW2 7133   7.997  12.135   9.225
 1746SOL     OW 7134   8.498   2.349  10.426
 1746SOL    HW1 7135   8.474   2.269  10.473
 1746SOL    HW2 7136   8.505   2.322  10.334
 1747SOL     OW 7137  13.607   4.369   0.074
 1747SOL    HW1 7138  13.546   4.432   0.115
 1747SOL    HW2 7139  13.555   4.289   0.064
 1748SOL     OW 7140  12.789   4.900   5.822
 1748SOL    HW1 7141  12.794   4.928   5.730
 1748SOL    HW2 7142  12.867   4.937   5.862
 1749SOL     OW 7143   1.788   4.466   7.388
 1749SOL    HW1 7144   1.851   4.487   7.319
 1749SOL    HW2 7145   1.704   4.498   7.355
 1750SOL     OW 7146   7.114   8.646  10.728
 1750SOL    HW1 7147   7.191   8.600  10.763
 1750SOL    HW2 7148   7.146   8.734  10.710
 1751SOL     OW 7149   9.298   2.744  12.481
 1751SOL    HW1 7150   9.335   2.788  12.404
 1751SOL    HW2 7151   9.350   2.665  12.491
 1752SOL     OW 7152   5.707   1.938   3.062
 1752SOL    HW1 7153   5.624   1.897   3.037
 1752SOL    HW2 7154   5.698   1.956   3.156
 1753SOL     OW 7155  14.329   4.471   8.117
 1753SOL    HW1 7156  14.356   4.550   8.071
 1753SOL    HW2 7157  14.393   4.405   8.091
 1754SOL     OW 7158  12.462   1.165   8.069
 1754SOL    HW1 7159  12.534   1.191   8.011
 1754SOL    HW2 7160  12.426   1.086   8.030
 1755SOL     OW 7161  13.793   7.888   3.899
 1755SOL    HW1 7162  13.781   7.982   3.884
 1755SOL    HW2 7163  13.824   7.881   3.989
 1756SOL     OW 7164  11.059  12.989  11.020
 1756SOL    HW1 7165  11.020  12.987  10.932
 1756SOL    HW2 7166  10.987  13.015  11.077
 1757SOL     OW 7167   6.278   1.441   5.757
 1757SOL    HW1 7168   6.289   1.364   5.813
 1757SOL    HW2 7169   6.209   1.491   5.799
 1758SOL     OW 7170   2.254  12.101  11.031
 1758SOL    HW1 7171   2.238  12.191  11.003
 1758SOL    HW2 7172   2.304  12.062  10.958
 1759SOL     OW 7173  14.769  13.619   0.609
 1759SOL    HW1 7174  14.818  13.564   0.549
 1759SOL    HW2 7175  14.813  13.704   0.605
 1760SOL     OW 7176   1.303   2.268   1.765
 1760SOL    HW1 7177   1.279   2.354   1.730
 1760SOL    HW2 7178   1.299   2.279   1.860
 1761SOL     OW 7179  12.517   2.921   5.130
 1761SOL    HW1 7180  12.432   2.906   5.173
 1761SOL    HW2 7181  12.523   3.016   5.121
 1762SOL     OW 7182   2.670   2.720   0.692
 1762SOL    HW1 7183   2.663   2.653   0.624
 1762SOL    HW2 7184   2.580   2.731   0.724
 1763SOL     OW 7185   7.933   5.082   8.913
 1763SOL    HW1 7186   7.873   5.073   8.839
 1763SOL    HW2 7187   7.932   5.175   8.934
 1764SOL     OW 7188   2.358  10.104  11.177
 1764SOL    HW1 7189   2.453  10.112  11.162
 1764SOL    HW2 7190   2.333  10.028  11.125
 1765SOL     OW 7191  10.330  13.528   4.450
 1765SOL    HW1 7192  10.234  13.530   4.445
 1765SOL    HW2 7193  10.358  13.493   4.365
 1766SOL     OW 7194   3.429   8.152   9.012
 1766SOL    HW1 7195   3.375   8.231   9.005
 1766SOL    HW2 7196   3.483   8.153   8.933
 1767SOL     OW 7197   7.539  10.148   3.910
 1767SOL    HW1 7198   7.545  10.220   3.973
 1767SOL    HW2 7199   7.492  10.185   3.836
 1768SOL     OW 7200   0.268  11.310   3.785
 1768SOL    HW1 7201   0.189  11.313   3.839
 1768SOL    HW2 7202   0.338  11.342   3.842
 1769SOL     OW 7203  13.843   2.950   1.762
 1769SOL    HW1 7204  13.816   2.922   1.849
 1769SOL    HW2 7205  13.770   3.005   1.730
 1770SOL     OW 7206  12.122  10.815  14.838
 1770SOL    HW1 7207  12.172  10.736  14.816
 1770SOL    HW2 7208  12.184  10.869   0.007
 1771SOL     OW 7209   9.221   2.878  14.724
 1771SOL    HW1 7210   9.152   2.933  14.688
 1771SOL    HW2 7211   9.180   2.830  14.795
 1772SOL     OW 7212   4.166   5.962  14.504
 1772SOL    HW1 7213   4.125   6.047  14.515
 1772SOL    HW2 7214   4.156   5.918  14.588
 1773SOL     OW 7215  11.665   1.283   1.474
 1773SOL    HW1 7216  11.733   1.350   1.483
 1773SOL    HW2 7217  11.659   1.266   1.380
 1774SOL     OW 7218   7.299  13.169  10.939
 1774SOL    HW1 7219   7.265  13.135  10.856
 1774SOL    HW2 7220   7.369  13.229  10.913
 1775SOL     OW 7221   9.388  14.245   4.460
 1775SOL    HW1 7222   9.467  14.207   4.497
 1775SOL    HW2 7223   9.404  14.246   4.365
 1776SOL     OW 7224  10.188   2.186   1.694
 1776SOL    HW1 7225  10.262   2.243   1.672
 1776SOL    HW2 7226  10.202   2.107   1.643
 1777SOL     OW 7227   2.398  10.646   8.087
 1777SOL    HW1 7228   2.419  10.557   8.114
 1777SOL    HW2 7229   2.479  10.695   8.099
 1778SOL     OW 7230  11.181   2.818   2.000
 1778SOL    HW1 7231  11.094   2.857   2.001
 1778SOL    HW2 7232  11.183   2.767   1.919
 1779SOL     OW 7233  14.811   5.470  13.713
 1779SOL    HW1 7234  14.851   5.418  13.643
 1779SOL    HW2 7235  14.717   5.461  13.698
 1780SOL     OW 7236   9.629  13.498   8.377
 1780SOL    HW1 7237   9.554  13.442   8.358
 1780SOL    HW2 7238   9.643  13.490   8.471
 1781SOL     OW 7239  13.526   7.924   0.864
 1781SOL    HW1 7240  13.505   8.014   0.837
 1781SOL    HW2 7241  13.441   7.883   0.880
 1782SOL     OW 7242   9.240   7.339   0.646
 1782SOL    HW1 7243   9.167   7.348   0.585
 1782SOL    HW2 7244   9.261   7.246   0.644
 1783SOL     OW 7245   7.862  11.486   5.265
 1783SOL    HW1 7246   7.870  11.469   5.359
 1783SOL    HW2 7247   7.768  11.495   5.249
 1784SOL     OW 7248   1.055  12.741   3.754
 1784SOL    HW1 7249   1.035  12.742   3.847
 1784SOL    HW2 7250   1.097  12.656   3.739
 1785SOL     OW 7251  14.276   9.417   2.538
 1785SOL    HW1 7252  14.280   9.433   2.632
 1785SOL    HW2 7253  14.192   9.453   2.510
 1786SOL     OW 7254  11.959   7.844  14.815
 1786SOL    HW1 7255  12.039   7.859  14.764
 1786SOL    HW2 7256  11.953   7.749  14.822
 1787SOL     OW 7257   8.841   4.604   5.324
 1787SOL    HW1 7258   8.784   4.672   5.360
 1787SOL    HW2 7259   8.783   4.529   5.310
 1788SOL     OW 7260   4.290  14.744   3.440
 1788SOL    HW1 7261   4.210  14.793   3.422
 1788SOL    HW2 7262   4.359  14.795   3.398
 1789SOL     OW 7263  14.138  11.490   2.078
 1789SOL    HW1 7264  14.165  11.399   2.076
 1789SOL    HW2 7265  14.218  11.539   2.058
 1790SOL     OW 7266   4.496   4.271   8.349
 1790SOL    HW1 7267   4.575   4.325   8.355
 1790SOL    HW2 7268   4.528   4.186   8.317
 1791SOL     OW 7269   1.711   3.709   6.068
 1791SOL    HW1 7270   1.633   3.666   6.101
 1791SOL    HW2 7271   1.774   3.638   6.055
 1792SOL     OW 7272   0.097   5.341   2.518
 1792SOL    HW1 7273   0.029   5.293   2.470
 1792SOL    HW2 7274   0.056   5.424   2.541
 1793SOL     OW 7275  12.455   4.986   0.502
 1793SOL    HW1 7276  12.498   4.977   0.587
 1793SOL    HW2 7277  12.527   4.984   0.439
 1794SOL     OW 7278   9.615   1.306   9.355
 1794SOL    HW1 7279   9.645   1.350   9.275
 1794SOL    HW2 7280   9.560   1.371   9.398
 1795SOL     OW 7281   5.773   5.868   1.408
 1795SOL    HW1 7282   5.860   5.906   1.415
 1795SOL    HW2 7283   5.751   5.843   1.498
 1796SOL     OW 7284   4.085   1.887  10.583
 1796SOL    HW1 7285   4.058   1.889  10.675
 1796SOL    HW2 7286   4.003   1.880  10.534
 1797SOL     OW 7287  11.309   3.858   5.323
 1797SOL    HW1 7288  11.295   3.801   5.399
 1797SOL    HW2 7289  11.324   3.798   5.250
 1798SOL     OW 7290   0.375  11.218   2.575
 1798SOL    HW1 7291   0.380  11.207   2.670
 1798SOL    HW2 7292   0.355  11.311   2.563
 1799SOL     OW 7293   6.299   2.937  14.766
 1799SOL    HW1 7294   6.347   2.898  14.840
 1799SOL    HW2 7295   6.213   2.957  14.802
 1800SOL     OW 7296   1.670  13.773   6.994
 1800SOL    HW1 7297   1.702  13.696   7.039
 1800SOL    HW2 7298   1.656  13.744   6.903
 1801SOL     OW 7299   6.933  10.129   0.559
 1801SOL    HW1 7300   7.021  10.094   0.543
 1801SOL    HW2 7301   6.896  10.139   0.471
 1802SOL     OW 7302  13.171  14.030  12.814
 1802SOL    HW1 7303  13.077  14.016  12.825
 1802SOL    HW2 7304  13.177  14.099  12.748
 1803SOL     OW 7305  11.667   3.449   0.521
 1803SOL    HW1 7306  11.577   3.480   0.517
 1803SOL    HW2 7307  11.693   3.436   0.430
 1804SOL     OW 7308  13.207   5.956  13.322
 1804SOL    HW1 7309  13.151   6.001  13.386
 1804SOL    HW2 7310  13.222   5.870  13.360
 1805SOL     OW 7311  14.167  10.743   1.827
 1805SOL    HW1 7312  14.177  10.651   1.802
 1805SOL    HW2 7313  14.244  10.762   1.880
 1806SOL     OW 7314   7.458  12.059   6.494
 1806SOL    HW1 7315   7.379  12.010   6.513
 1806SOL    HW2 7316   7.493  12.083   6.579
 1807SOL     OW 7317   0.965   1.728   8.970
 1807SOL    HW1 7318   1.036   1.740   8.907
 1807SOL    HW2 7319   0.952   1.634   8.974
 1808SOL     OW 7320  14.853   5.002   4.640
 1808SOL    HW1 7321  14.781   5.066   4.643
 1808SOL    HW2 7322   0.026   5.031   4.565
 1809SOL     OW 7323  11.285   6.748   8.775
 1809SOL    HW1 7324  11.270   6.735   8.869
 1809SOL    HW2 7325  11.346   6.821   8.770
 1810SOL     OW 7326   1.620   0.761   4.060
 1810SOL    HW1 7327   1.632   0.796   3.972
 1810SOL    HW2 7328   1.599   0.837   4.113
 1811SOL     OW 7329  14.037  12.646   2.702
 1811SOL    HW1 7330  14.070  12.576   2.759
 1811SOL    HW2 7331  14.101  12.717   2.711
 1812SOL     OW 7332  14.438   3.262   6.165
 1812SOL    HW1 7333  14.498   3.289   6.234
 1812SOL    HW2 7334  14.460   3.171   6.147
 1813SOL     OW 7335  12.268   5.307  13.363
 1813SOL    HW1 7336  12.214   5.311  13.284
 1813SOL    HW2 7337  12.322   5.229  13.351
 1814SOL     OW 7338   5.841   3.773   1.778
 1814SOL    HW1 7339   5.899   3.705   1.814
 1814SOL    HW2 7340   5.898   3.848   1.764
 1815SOL     OW 7341  11.017   2.251  10.928
 1815SOL    HW1 7342  11.067   2.325  10.964
 1815SOL    HW2 7343  11.004   2.274  10.837
 1816SOL     OW 7344   4.266  13.005  14.119
 1816SOL    HW1 7345   4.227  12.931  14.072
 1816SOL    HW2 7346   4.359  13.002  14.095
 1817SOL     OW 7347  13.970   4.852   5.733
 1817SOL    HW1 7348  13.905   4.879   5.798
 1817SOL    HW2 7349  14.042   4.914   5.745
 1818SOL     OW 7350   9.487   9.760   5.498
 1818SOL    HW1 7351   9.485   9.795   5.587
 1818SOL    HW2 7352   9.567   9.707   5.495
 1819SOL     OW 7353   5.742  13.928   6.001
 1819SOL    HW1 7354   5.669  13.905   6.059
 1819SOL    HW2 7355   5.809  13.962   6.059
 1820SOL     OW 7356   0.524  12.364   2.918
 1820SOL    HW1 7357   0.485  12.296   2.972
 1820SOL    HW2 7358   0.513  12.334   2.828
 1821SOL     OW 7359   3.279   0.849   7.162
 1821SOL    HW1 7360   3.233   0.905   7.225
 1821SOL    HW2 7361   3.262   0.760   7.193
 1822SOL     OW 7362  11.345  11.514   1.518
 1822SOL    HW1 7363  11.328  11.516   1.424
 1822SOL    HW2 7364  11.416  11.576   1.531
 1823SOL     OW 7365   0.148   1.259   5.137
 1823SOL    HW1 7366   0.180   1.349   5.132
 1823SOL    HW2 7367   0.053   1.268   5.135
 1824SOL     OW 7368   4.543  11.643   6.479
 1824SOL    HW1 7369   4.568  11.574   6.540
 1824SOL    HW2 7370   4.577  11.613   6.394
 1825SOL     OW 7371   8.421   9.891   3.844
 1825SOL    HW1 7372   8.432   9.796   3.852
 1825SOL    HW2 7373   8.438   9.924   3.932
 1826SOL     OW 7374   4.469   1.662   6.104
 1826SOL    HW1 7375   4.512   1.726   6.160
 1826SOL    HW2 7376   4.389   1.706   6.075
 1827SOL     OW 7377  12.230  11.660   6.071
 1827SOL    HW1 7378  12.198  11.571   6.085
 1827SOL    HW2 7379  12.323  11.650   6.051
 1828SOL     OW 7380   3.019  13.039  14.621
 1828SOL    HW1 7381   2.932  12.999  14.611
 1828SOL    HW2 7382   3.004  13.114  14.679
 1829SOL     OW 7383   8.343   2.429  13.361
 1829SOL    HW1 7384   8.378   2.361  13.304
 1829SOL    HW2 7385   8.420   2.478  13.390
 1830SOL     OW 7386   8.099  13.453  13.273
 1830SOL    HW1 7387   8.027  13.412  13.322
 1830SOL    HW2 7388   8.137  13.516  13.333
 1831SOL     OW 7389  14.174   2.405   5.954
 1831SOL    HW1 7390  14.233   2.446   5.890
 1831SOL    HW2 7391  14.092   2.452   5.943
 1832SOL     OW 7392  10.247   2.184   5.890
 1832SOL    HW1 7393  10.298   2.181   5.972
 1832SOL    HW2 7394  10.169   2.234   5.912
 1833SOL     OW 7395   3.677  11.687   8.451
 1833SOL    HW1 7396   3.690  11.745   8.525
 1833SOL    HW2 7397   3.762  11.645   8.437
 1834SOL     OW 7398  11.043  10.851   9.449
 1834SOL    HW1 7399  11.116  10.835   9.508
 1834SOL    HW2 7400  10.977  10.894   9.503
 1835SOL     OW 7401   2.966   1.702   3.090
 1835SOL    HW1 7402   2.943   1.726   3.001
 1835SOL    HW2 7403   2.928   1.772   3.144
 1836SOL     OW 7404  11.062   1.292   6.379
 1836SOL    HW1 7405  10.996   1.227   6.357
 1836SOL    HW2 7406  11.111   1.254   6.451
 1837SOL     OW 7407   3.026   7.393  14.364
 1837SOL    HW1 7408   3.019   7.487  14.383
 1837SOL    HW2 7409   2.959   7.352  14.418
 1838SOL     OW 7410   6.897   8.613  13.005
 1838SOL    HW1 7411   6.888   8.598  12.911
 1838SOL    HW2 7412   6.946   8.695  13.011
 1839SOL     OW 7413  14.541  11.959   9.226
 1839SOL    HW1 7414  14.477  11.961   9.154
 1839SOL    HW2 7415  14.507  11.892   9.285
 1840SOL     OW 7416   7.009   4.228  13.684
 1840SOL    HW1 7417   7.057   4.222  13.601
 1840SOL    HW2 7418   7.071   4.196  13.750
 1841SOL     OW 7419  12.275   4.503   3.174
 1841SOL    HW1 7420  12.280   4.417   3.131
 1841SOL    HW2 7421  12.200   4.546   3.133
 1842SOL     OW 7422   7.528  11.209   9.209
 1842SOL    HW1 7423   7.550  11.258   9.130
 1842SOL    HW2 7424   7.608  11.209   9.261
 1843SOL     OW 7425   2.366   8.396   9.145
 1843SOL    HW1 7426   2.311   8.396   9.223
 1843SOL    HW2 7427   2.321   8.337   9.084
 1844SOL     OW 7428   3.432   7.805   8.705
 1844SOL    HW1 7429   3.504   7.745   8.727
 1844SOL    HW2 7430   3.356   7.769   8.751
 1845SOL     OW 7431  12.692   5.368  13.197
 1845SOL    HW1 7432  12.711   5.306  13.127
 1845SOL    HW2 7433  12.777   5.400  13.225
 1846SOL     OW 7434   6.505   1.065   5.762
 1846SOL    HW1 7435   6.584   1.057   5.709
 1846SOL    HW2 7436   6.452   0.990   5.736
 1847SOL     OW 7437   2.020   9.186   9.543
 1847SOL    HW1 7438   1.961   9.213   9.613
 1847SOL    HW2 7439   1.968   9.130   9.487
 1848SOL     OW 7440  12.040   4.207   1.310
 1848SOL    HW1 7441  12.115   4.150   1.293
 1848SOL    HW2 7442  12.033   4.262   1.232
 1849SOL     OW 7443  10.683   4.568  12.373
 1849SOL    HW1 7444  10.611   4.559  12.311
 1849SOL    HW2 7445  10.730   4.485  12.368
 1850SOL     OW 7446   2.136   3.183  11.089
 1850SOL    HW1 7447   2.165   3.092  11.092
 1850SOL    HW2 7448   2.217   3.234  11.083
 1851SOL     OW 7449  13.770  14.742   4.221
 1851SOL    HW1 7450  13.807  14.821   4.182
 1851SOL    HW2 7451  13.844  14.684   4.235
 1852SOL     OW 7452   6.602   3.997   4.159
 1852SOL    HW1 7453   6.555   4.002   4.076
 1852SOL    HW2 7454   6.594   3.905   4.185
 1853SOL     OW 7455   5.268   8.962   6.162
 1853SOL    HW1 7456   5.198   8.948   6.226
 1853SOL    HW2 7457   5.277   8.878   6.117
 1854SOL     OW 7458  14.504   7.160   0.150
 1854SOL    HW1 7459  14.474   7.076   0.185
 1854SOL    HW2 7460  14.466   7.164   0.062
 1855SOL     OW 7461   8.908  14.355  14.529
 1855SOL    HW1 7462   8.944  14.443  14.530
 1855SOL    HW2 7463   8.815  14.367  14.514
 1856SOL     OW 7464  12.355   1.703   0.927
 1856SOL    HW1 7465  12.286   1.637   0.926
 1856SOL    HW2 7466  12.390   1.700   1.016
 1857SOL     OW 7467   2.019   4.417   3.832
 1857SOL    HW1 7468   1.954   4.470   3.786
 1857SOL    HW2 7469   2.014   4.447   3.923
 1858SOL     OW 7470   7.661   8.189   6.184
 1858SOL    HW1 7471   7.603   8.264   6.200
 1858SOL    HW2 7472   7.638   8.126   6.252
 1859SOL     OW 7473  10.235   8.795  11.538
 1859SOL    HW1 7474  10.177   8.849  11.484
 1859SOL    HW2 7475  10.206   8.810  11.628
 1860SOL     OW 7476  12.153   0.457   4.264
 1860SOL    HW1 7477  12.082   0.407   4.305
 1860SOL    HW2 7478  12.110   0.534   4.228
 1861SOL     OW 7479   1.629   0.364   9.293
 1861SOL    HW1 7480   1.675   0.287   9.327
 1861SOL    HW2 7481   1.698   0.428   9.277
 1862SOL     OW 7482  13.300  11.290  12.952
 1862SOL    HW1 7483  13.364  11.362  12.962
 1862SOL    HW2 7484  13.320  11.252  12.867
 1863SOL     OW 7485  10.655   0.576  12.951
 1863SOL    HW1 7486  10.600   0.647  12.918
 1863SOL    HW2 7487  10.708   0.549  12.875
 1864SOL     OW 7488   1.606  12.915  11.340
 1864SOL    HW1 7489   1.660  12.857  11.286
 1864SOL    HW2 7490   1.607  12.998  11.293
 1865SOL     OW 7491  13.779  12.474  10.282
 1865SOL    HW1 7492  13.711  12.429  10.334
 1865SOL    HW2 7493  13.798  12.553  10.332
 1866SOL     OW 7494  11.729   0.895   8.146
 1866SOL    HW1 7495  11.713   0.985   8.117
 1866SOL    HW2 7496  11.738   0.902   8.241
 1867SOL     OW 7497   8.967   0.126   1.666
 1867SOL    HW1 7498   9.014   0.043   1.681
 1867SOL    HW2 7499   8.973   0.140   1.572
 1868SOL     OW 7500   2.716   8.906   7.695
 1868SOL    HW1 7501   2.635   8.905   7.745
 1868SOL    HW2 7502   2.783   8.933   7.758
 1869SOL     OW 7503  10.126  10.378   2.630
 1869SOL    HW1 7504  10.130  10.349   2.722
 1869SOL    HW2 7505  10.043  10.342   2.598
 1870SOL     OW 7506  10.553   0.702  12.060
 1870SOL    HW1 7507  10.466   0.688  12.024
 1870SOL    HW2 7508  10.540   0.701  12.155
 1871SOL     OW 7509  13.933   0.036   0.473
 1871SOL    HW1 7510  13.931  14.828   0.436
 1871SOL    HW2 7511  13.852   0.077   0.444
 1872SOL     OW 7512  11.318   6.271  13.872
 1872SOL    HW1 7513  11.226   6.246  13.861
 1872SOL    HW2 7514  11.364   6.221  13.805
 1873SOL     OW 7515   9.279  13.607  11.852
 1873SOL    HW1 7516   9.223  13.552  11.908
 1873SOL    HW2 7517   9.230  13.689  11.843
 1874SOL     OW 7518  10.514   4.538  11.112
 1874SOL    HW1 7519  10.504   4.609  11.175
 1874SOL    HW2 7520  10.479   4.573  11.030
 1875SOL     OW 7521  11.490   8.268   5.969
 1875SOL    HW1 7522  11.444   8.187   5.991
 1875SOL    HW2 7523  11.446   8.335   6.021
 1876SOL     OW 7524   1.264   7.808  11.071
 1876SOL    HW1 7525   1.322   7.746  11.115
 1876SOL    HW2 7526   1.176   7.771  11.082
 1877SOL     OW 7527   3.304   1.579  12.126
 1877SOL    HW1 7528   3.375   1.600  12.186
 1877SOL    HW2 7529   3.241   1.650  12.137
 1878SOL     OW 7530   3.165   2.562   0.823
 1878SOL    HW1 7531   3.247   2.517   0.802
 1878SOL    HW2 7532   3.191   2.640   0.871
 1879SOL     OW 7533   8.937   3.027   4.029
 1879SOL    HW1 7534   8.943   2.949   3.974
 1879SOL    HW2 7535   8.946   3.101   3.968
 1880SOL     OW 7536   8.725  14.403   1.660
 1880SOL    HW1 7537   8.809  14.441   1.688
 1880SOL    HW2 7538   8.685  14.372   1.741
 1881SOL     OW 7539   7.949   4.383   7.558
 1881SOL    HW1 7540   7.911   4.457   7.511
 1881SOL    HW2 7541   7.897   4.376   7.638
 1882SOL     OW 7542   4.122   9.444   5.184
 1882SOL    HW1 7543   4.088   9.444   5.095
 1882SOL    HW2 7544   4.201   9.497   5.180
 1883SOL     OW 7545   6.304   7.179  13.961
 1883SOL    HW1 7546   6.269   7.119  14.026
 1883SOL    HW2 7547   6.257   7.261  13.976
 1884SOL     OW 7548   6.116   4.762   7.093
 1884SOL    HW1 7549   6.064   4.682   7.087
 1884SOL    HW2 7550   6.174   4.747   7.167
 1885SOL     OW 7551   1.391   7.600   7.130
 1885SOL    HW1 7552   1.336   7.677   7.146
 1885SOL    HW2 7553   1.337   7.542   7.077
 1886SOL     OW 7554   9.710   5.784   0.477
 1886SOL    HW1 7555   9.698   5.776   0.382
 1886SOL    HW2 7556   9.802   5.808   0.487
 1887SOL     OW 7557   5.234   1.780   4.354
 1887SOL    HW1 7558   5.267   1.697   4.388
 1887SOL    HW2 7559   5.267   1.785   4.264
 1888SOL     OW 7560   0.701  14.782   0.830
 1888SOL    HW1 7561   0.605  14.784   0.836
 1888SOL    HW2 7562   0.721  14.693   0.801
 1889SOL     OW 7563   5.829   7.653   5.681
 1889SOL    HW1 7564   5.804   7.609   5.600
 1889SOL    HW2 7565   5.780   7.735   5.681
 1890SOL     OW 7566  11.833  13.401   0.228
 1890SOL    HW1 7567  11.817  13.478   0.174
 1890SOL    HW2 7568  11.920  13.371   0.202
 1891SOL     OW 7569   5.674   5.392   0.050
 1891SOL    HW1 7570   5.594   5.423   0.093
 1891SOL    HW2 7571   5.648   5.381  14.838
 1892SOL     OW 7572   6.312   0.122   8.197
 1892SOL    HW1 7573   6.219   0.138   8.179
 1892SOL    HW2 7574   6.319   0.126   8.292
 1893SOL     OW 7575  14.846   9.361   3.877
 1893SOL    HW1 7576  14.791   9.283   3.883
 1893SOL    HW2 7577   0.017   9.361   3.958
 1894SOL     OW 7578   1.025   6.856   7.546
 1894SOL    HW1 7579   1.095   6.911   7.511
 1894SOL    HW2 7580   0.964   6.917   7.587
 1895SOL     OW 7581  10.766   6.290  14.562
 1895SOL    HW1 7582  10.743   6.332  14.479
 1895SOL    HW2 7583  10.855   6.320  14.580
 1896SOL     OW 7584   4.918   6.534  12.294
 1896SOL    HW1 7585   4.864   6.518  12.217
 1896SOL    HW2 7586   4.865   6.503  12.367
 1897SOL     OW 7587   4.240   0.419  12.488
 1897SOL    HW1 7588   4.177   0.353  12.517
 1897SOL    HW2 7589   4.187   0.497  12.472
 1898SOL     OW 7590   4.200   2.155   3.760
 1898SOL    HW1 7591   4.155   2.105   3.692
 1898SOL    HW2 7592   4.210   2.243   3.723
 1899SOL     OW 7593   8.146   4.107   5.328
 1899SOL    HW1 7594   8.166   4.178   5.268
 1899SOL    HW2 7595   8.232   4.073   5.355
 1900SOL     OW 7596   4.290   4.647   2.015
 1900SOL    HW1 7597   4.316   4.561   2.049
 1900SOL    HW2 7598   4.219   4.675   2.073
 1901SOL     OW 7599   2.978  11.290   0.289
 1901SOL    HW1 7600   3.071  11.268   0.278
 1901SOL    HW2 7601   2.978  11.358   0.357
 1902SOL     OW 7602   7.847   2.408   2.561
 1902SOL    HW1 7603   7.904   2.437   2.490
 1902SOL    HW2 7604   7.908   2.380   2.630
 1903SOL     OW 7605  11.193   3.840   2.259
 1903SOL    HW1 7606  11.224   3.854   2.170
 1903SOL    HW2 7607  11.213   3.922   2.304
 1904SOL     OW 7608   4.464   7.055   0.788
 1904SOL    HW1 7609   4.426   7.130   0.834
 1904SOL    HW2 7610   4.420   6.979   0.827
 1905SOL     OW 7611   1.169   3.049   0.985
 1905SOL    HW1 7612   1.218   3.062   1.066
 1905SOL    HW2 7613   1.210   3.106   0.921
 1906SOL     OW 7614   9.658   1.905   0.502
 1906SOL    HW1 7615   9.726   1.857   0.550
 1906SOL    HW2 7616   9.610   1.953   0.569
 1907SOL     OW 7617   5.401  10.272  13.128
 1907SOL    HW1 7618   5.344  10.205  13.166
 1907SOL    HW2 7619   5.489  10.234  13.133
 1908SOL     OW 7620   2.259  11.981   4.214
 1908SOL    HW1 7621   2.310  11.917   4.164
 1908SOL    HW2 7622   2.319  12.013   4.281
 1909SOL     OW 7623   9.674   8.525   4.976
 1909SOL    HW1 7624   9.603   8.576   5.014
 1909SOL    HW2 7625   9.723   8.587   4.922
 1910SOL     OW 7626  13.230   5.043  13.453
 1910SOL    HW1 7627  13.212   5.103  13.525
 1910SOL    HW2 7628  13.270   5.098  13.385
 1911SOL     OW 7629   1.095   9.443  10.426
 1911SOL    HW1 7630   1.048   9.401  10.498
 1911SOL    HW2 7631   1.031   9.446  10.355
 1912SOL     OW 7632   8.843   5.539  14.866
 1912SOL    HW1 7633   8.883   5.452  14.872
 1912SOL    HW2 7634   8.843   5.560  14.773
 1913SOL     OW 7635  10.184   0.243   8.185
 1913SOL    HW1 7636  10.136   0.203   8.112
 1913SOL    HW2 7637  10.162   0.188   8.261
 1914SOL     OW 7638  10.661   6.064  12.866
 1914SOL    HW1 7639  10.749   6.100  12.859
 1914SOL    HW2 7640  10.660   5.989  12.806
 1915SOL     OW 7641  11.816   5.193  13.888
 1915SOL    HW1 7642  11.743   5.156  13.936
 1915SOL    HW2 7643  11.781   5.210  13.800
 1916SOL     OW 7644   2.926  10.524   0.119
 1916SOL    HW1 7645   2.865  10.452   0.103
 1916SOL    HW2 7646   2.936  10.526   0.214
 1917SOL     OW 7647  12.440   2.510  13.205
 1917SOL    HW1 7648  12.449   2.581  13.141
 1917SOL    HW2 7649  12.395   2.550  13.279
 1918SOL     OW 7650   9.936   7.278  11.408
 1918SOL    HW1 7651   9.990   7.200  11.393
 1918SOL    HW2 7652   9.933   7.321  11.323
 1919SOL     OW 7653   1.926   8.367   1.314
 1919SOL    HW1 7654   1.854   8.314   1.280
 1919SOL    HW2 7655   1.990   8.303   1.345
 1920SOL     OW 7656   0.869  12.764   8.243
 1920SOL    HW1 7657   0.951  12.722   8.269
 1920SOL    HW2 7658   0.884  12.791   8.153
 1921SOL     OW 7659   2.875   7.906   0.384
 1921SOL    HW1 7660   2.954   7.934   0.339
 1921SOL    HW2 7661   2.883   7.941   0.473
 1922SOL     OW 7662   3.661  13.849   7.313
 1922SOL    HW1 7663   3.669  13.825   7.405
 1922SOL    HW2 7664   3.744  13.893   7.292
 1923SOL     OW 7665   3.391   8.107   6.781
 1923SOL    HW1 7666   3.336   8.178   6.816
 1923SOL    HW2 7667   3.346   8.078   6.702
 1924SOL     OW 7668  13.145   0.032  10.970
 1924SOL    HW1 7669  13.104   0.114  10.942
 1924SOL    HW2 7670  13.198   0.057  11.046
 1925SOL     OW 7671  10.014  11.708   7.102
 1925SOL    HW1 7672   9.935  11.655   7.107
 1925SOL    HW2 7673  10.075  11.656   7.051
 1926SOL     OW 7674   6.746   2.374   7.257
 1926SOL    HW1 7675   6.764   2.283   7.281
 1926SOL    HW2 7676   6.833   2.413   7.246
 1927SOL     OW 7677   1.271   7.683   4.889
 1927SOL    HW1 7678   1.333   7.613   4.909
 1927SOL    HW2 7679   1.210   7.645   4.826
 1928SOL     OW 7680  11.079   1.216  14.664
 1928SOL    HW1 7681  11.048   1.216  14.755
 1928SOL    HW2 7682  10.999   1.228  14.613
 1929SOL     OW 7683  14.624  14.817  14.477
 1929SOL    HW1 7684  14.622   0.017  14.529
 1929SOL    HW2 7685  14.689  14.834  14.409
 1930SOL     OW 7686   7.508   9.728   9.675
 1930SOL    HW1 7687   7.492   9.820   9.696
 1930SOL    HW2 7688   7.573   9.730   9.605
 1931SOL     OW 7689  14.854  10.611  12.840
 1931SOL    HW1 7690   0.064  10.608  12.875
 1931SOL    HW2 7691  14.827  10.519  12.835
 1932SOL     OW 7692   0.255  13.058  14.346
 1932SOL    HW1 7693   0.209  12.975  14.358
 1932SOL    HW2 7694   0.224  13.114  14.417
 1933SOL     OW 7695  10.541   1.966  10.916
 1933SOL    HW1 7696  10.574   1.946  10.828
 1933SOL    HW2 7697  10.587   1.904  10.973
 1934SOL     OW 7698   9.109  12.373  10.353
 1934SOL    HW1 7699   9.178  12.319  10.392
 1934SOL    HW2 7700   9.046  12.310  10.318
 1935SOL     OW 7701   2.818   0.524   1.450
 1935SOL    HW1 7702   2.802   0.437   1.488
 1935SOL    HW2 7703   2.764   0.526   1.371
 1936SOL     OW 7704   9.927  14.544   5.767
 1936SOL    HW1 7705   9.884  14.627   5.746
 1936SOL    HW2 7706   9.991  14.533   5.697
 1937SOL     OW 7707   6.418   3.276   5.199
 1937SOL    HW1 7708   6.397   3.220   5.273
 1937SOL    HW2 7709   6.349   3.343   5.198
 1938SOL     OW 7710   4.977   9.987  13.145
 1938SOL    HW1 7711   4.903   9.927  13.131
 1938SOL    HW2 7712   5.037   9.969  13.072
 1939SOL     OW 7713   3.072   3.480  11.352
 1939SOL    HW1 7714   3.059   3.574  11.334
 1939SOL    HW2 7715   3.042   3.469  11.442
 1940SOL     OW 7716   8.566  14.262  13.249
 1940SOL    HW1 7717   8.583  14.169  13.230
 1940SOL    HW2 7718   8.507  14.260  13.324
 1941SOL     OW 7719   8.547  11.164   2.861
 1941SOL    HW1 7720   8.642  11.170   2.853
 1941SOL    HW2 7721   8.530  11.170   2.955
 1942SOL     OW 7722  12.001  10.796   3.025
 1942SOL    HW1 7723  11.980  10.874   2.973
 1942SOL    HW2 7724  12.038  10.831   3.106
 1943SOL     OW 7725  12.949   3.776  12.835
 1943SOL    HW1 7726  13.003   3.710  12.878
 1943SOL    HW2 7727  12.978   3.775  12.744
 1944SOL     OW 7728   8.059   5.148   0.616
 1944SOL    HW1 7729   8.138   5.190   0.651
 1944SOL    HW2 7730   8.050   5.185   0.528
 1945SOL     OW 7731   4.981   5.489   0.942
 1945SOL    HW1 7732   4.929   5.557   0.899
 1945SOL    HW2 7733   4.997   5.523   1.030
 1946SOL     OW 7734   9.540   6.878  13.502
 1946SOL    HW1 7735   9.570   6.920  13.421
 1946SOL    HW2 7736   9.491   6.801  13.472
 1947SOL     OW 7737   7.606  14.323  10.287
 1947SOL    HW1 7738   7.618  14.346  10.195
 1947SOL    HW2 7739   7.629  14.230  10.292
 1948SOL     OW 7740   7.715   1.687   1.104
 1948SOL    HW1 7741   7.623   1.662   1.115
 1948SOL    HW2 7742   7.748   1.625   1.039
 1949SOL     OW 7743   3.336   8.663   2.420
 1949SOL    HW1 7744   3.322   8.718   2.343
 1949SOL    HW2 7745   3.414   8.612   2.398
 1950SOL     OW 7746  14.626  14.128   1.108
 1950SOL    HW1 7747  14.567  14.195   1.141
 1950SOL    HW2 7748  14.575  14.079   1.043
 1951SOL     OW 7749  13.186  12.713   8.186
 1951SOL    HW1 7750  13.236  12.723   8.105
 1951SOL    HW2 7751  13.152  12.624   8.182
 1952SOL     OW 7752  13.126  11.906   1.849
 1952SOL    HW1 7753  13.144  11.943   1.763
 1952SOL    HW2 7754  13.045  11.856   1.837
 1953SOL     OW 7755   6.925   0.072  11.523
 1953SOL    HW1 7756   6.986   0.120  11.577
 1953SOL    HW2 7757   6.904  14.873  11.573
 1954SOL     OW 7758   9.131   5.255   0.999
 1954SOL    HW1 7759   9.107   5.344   1.023
 1954SOL    HW2 7760   9.208   5.265   0.943
 1955SOL     OW 7761  10.253   3.177  11.896
 1955SOL    HW1 7762  10.293   3.227  11.826
 1955SOL    HW2 7763  10.211   3.103  11.853
 1956SOL     OW 7764   8.319   5.546   6.436
 1956SOL    HW1 7765   8.272   5.464   6.423
 1956SOL    HW2 7766   8.409   5.526   6.411
 1957SOL     OW 7767   9.912  12.596   8.219
 1957SOL    HW1 7768   9.862  12.588   8.300
 1957SOL    HW2 7769   9.911  12.509   8.180
 1958SOL     OW 7770   2.485   1.489  10.384
 1958SOL    HW1 7771   2.427   1.564  10.394
 1958SOL    HW2 7772   2.446   1.421  10.440
 1959SOL     OW 7773   1.188   9.415   9.524
 1959SOL    HW1 7774   1.239   9.468   9.585
 1959SOL    HW2 7775   1.164   9.476   9.454
 1960SOL     OW 7776   2.620   0.554   7.004
 1960SOL    HW1 7777   2.695   0.603   7.037
 1960SOL    HW2 7778   2.545   0.611   7.020
 1961SOL     OW 7779  12.087   2.827   5.888
 1961SOL    HW1 7780  12.172   2.819   5.934
 1961SOL    HW2 7781  12.022   2.807   5.956
 1962SOL     OW 7782   0.823  12.539  12.391
 1962SOL    HW1 7783   0.886  12.594  12.345
 1962SOL    HW2 7784   0.810  12.463  12.334
 1963SOL     OW 7785  10.025   1.255   8.858
 1963SOL    HW1 7786  10.080   1.238   8.934
 1963SOL    HW2 7787  10.087   1.275   8.788
 1964SOL     OW 7788  12.446  14.202   1.210
 1964SOL    HW1 7789  12.488  14.201   1.124
 1964SOL    HW2 7790  12.418  14.112   1.224
 1965SOL     OW 7791   4.743   8.132   8.219
 1965SOL    HW1 7792   4.730   8.164   8.129
 1965SOL    HW2 7793   4.704   8.045   8.220
 1966SOL     OW 7794  11.305   3.701   4.094
 1966SOL    HW1 7795  11.324   3.752   4.016
 1966SOL    HW2 7796  11.224   3.739   4.129
 1967SOL     OW 7797   4.810   0.398   8.877
 1967SOL    HW1 7798   4.858   0.475   8.905
 1967SOL    HW2 7799   4.741   0.387   8.942
 1968SOL     OW 7800   6.728   5.617   1.751
 1968SOL    HW1 7801   6.665   5.620   1.823
 1968SOL    HW2 7802   6.772   5.532   1.760
 1969SOL     OW 7803   5.609   6.778   5.061
 1969SOL    HW1 7804   5.541   6.845   5.046
 1969SOL    HW2 7805   5.675   6.797   4.995
 1970SOL     OW 7806  11.852   2.344   2.110
 1970SOL    HW1 7807  11.910   2.389   2.049
 1970SOL    HW2 7808  11.764   2.362   2.077
 1971SOL     OW 7809  12.471   8.876   3.641
 1971SOL    HW1 7810  12.461   8.884   3.735
 1971SOL    HW2 7811  12.488   8.783   3.626
 1972SOL     OW 7812   8.286   0.086   0.428
 1972SOL    HW1 7813   8.223   0.076   0.356
 1972SOL    HW2 7814   8.311  14.876   0.450
 1973SOL     OW 7815   3.392  14.394   3.579
 1973SOL    HW1 7816   3.313  14.380   3.631
 1973SOL    HW2 7817   3.365  14.381   3.489
 1974SOL     OW 7818   7.150   6.730   3.835
 1974SOL    HW1 7819   7.072   6.676   3.846
 1974SOL    HW2 7820   7.190   6.732   3.922
 1975SOL     OW 7821   3.930   6.235  10.923
 1975SOL    HW1 7822   3.897   6.280  11.001
 1975SOL    HW2 7823   3.982   6.301  10.878
 1976SOL     OW 7824   3.647   9.991  12.584
 1976SOL    HW1 7825   3.646   9.991  12.680
 1976SOL    HW2 7826   3.580   9.928  12.559
 1977SOL     OW 7827   2.201  10.411   2.177
 1977SOL    HW1 7828   2.283  10.460   2.174
 1977SOL    HW2 7829   2.193  10.372   2.090
 1978SOL     OW 7830  13.811   1.784   5.568
 1978SOL    HW1 7831  13.742   1.719   5.580
 1978SOL    HW2 7832  13.772   1.852   5.513
 1979SOL     OW 7833   4.400   2.514  10.959
 1979SOL    HW1 7834   4.465   2.460  11.005
 1979SOL    HW2 7835   4.381   2.464  10.879
 1980SOL     OW 7836  14.379   9.127   9.527
 1980SOL    HW1 7837  14.352   9.067   9.596
 1980SOL    HW2 7838  14.305   9.188   9.519
 1981SOL     OW 7839   2.354   8.712   5.052
 1981SOL    HW1 7840   2.333   8.763   4.974
 1981SOL    HW2 7841   2.348   8.621   5.024
 1982SOL     OW 7842   9.133  14.213   5.237
 1982SOL    HW1 7843   9.085  14.295   5.243
 1982SOL    HW2 7844   9.137  14.194   5.143
 1983SOL     OW 7845   2.778   9.744   1.132
 1983SOL    HW1 7846   2.706   9.781   1.079
 1983SOL    HW2 7847   2.737   9.722   1.215
 1984SOL     OW 7848   4.671  11.485   3.868
 1984SOL    HW1 7849   4.648  11.572   3.834
 1984SOL    HW2 7850   4.696  11.435   3.790
 1985SOL     OW 7851  14.382   4.733  14.484
 1985SOL    HW1 7852  14.469   4.704  14.511
 1985SOL    HW2 7853  14.335   4.653  14.461
 1986SOL     OW 7854   7.278   1.628  13.051
 1986SOL    HW1 7855   7.278   1.584  12.965
 1986SOL    HW2 7856   7.248   1.561  13.112
 1987SOL     OW 7857   7.992   5.076   3.871
 1987SOL    HW1 7858   8.021   5.136   3.803
 1987SOL    HW2 7859   7.933   5.015   3.826
 1988SOL     OW 7860   4.013   9.438  13.300
 1988SOL    HW1 7861   3.921   9.457  13.318
 1988SOL    HW2 7862   4.056   9.442  13.385
 1989SOL     OW 7863   1.424  13.966   1.694
 1989SOL    HW1 7864   1.466  14.052   1.684
 1989SOL    HW2 7865   1.330  13.984   1.691
 1990SOL     OW 7866   4.520   9.316   6.969
 1990SOL    HW1 7867   4.465   9.370   7.026
 1990SOL    HW2 7868   4.468   9.304   6.889
 1991SOL     OW 7869   8.259  11.916   7.788
 1991SOL    HW1 7870   8.258  11.978   7.715
 1991SOL    HW2 7871   8.321  11.954   7.850
 1992SOL     OW 7872  14.427  14.333  10.936
 1992SOL    HW1 7873  14.342  14.372  10.916
 1992SOL    HW2 7874  14.427  14.250  10.887
 1993SOL     OW 7875   2.567   0.088   0.243
 1993SOL    HW1 7876   2.655   0.080   0.279
 1993SOL    HW2 7877   2.515   0.124   0.315
 1994SOL     OW 7878   8.065   5.808  13.739
 1994SOL    HW1 7879   7.988   5.791  13.685
 1994SOL    HW2 7880   8.138   5.774  13.688
 1995SOL     OW 7881   1.369   0.965   8.874
 1995SOL    HW1 7882   1.401   1.023   8.944
 1995SOL    HW2 7883   1.309   0.905   8.919
 1996SOL     OW 7884   8.477   3.278   8.835
 1996SOL    HW1 7885   8.456   3.364   8.799
 1996SOL    HW2 7886   8.406   3.222   8.804
 1997SOL     OW 7887  13.927   8.836   3.109
 1997SOL    HW1 7888  13.880   8.753   3.102
 1997SOL    HW2 7889  13.949   8.843   3.202
 1998SOL     OW 7890   5.472  12.265   5.901
 1998SOL    HW1 7891   5.527  12.325   5.851
 1998SOL    HW2 7892   5.528  12.189   5.918
 1999SOL     OW 7893   8.756   5.683   2.606
 1999SOL    HW1 7894   8.688   5.739   2.644
 1999SOL    HW2 7895   8.743   5.598   2.647
 2000SOL     OW 7896   0.050  11.390   3.291
 2000SOL    HW1 7897   0.106  11.339   3.232
 2000SOL    HW2 7898   0.020  11.328   3.356
 2001SOL     OW 7899  10.626  14.122   5.171
 2001SOL    HW1 7900  10.702  14.069   5.152
 2001SOL    HW2 7901  10.555  14.082   5.121
 2002SOL     OW 7902  14.570   0.522  10.145
 2002SOL    HW1 7903  14.658   0.550  10.117
 2002SOL    HW2 7904  14.557   0.566  10.229
 2003SOL     OW 7905  13.988  12.068  11.501
 2003SOL    HW1 7906  14.031  12.154  11.501
 2003SOL    HW2 7907  14.046  12.012  11.552
 2004SOL     OW 7908  11.406  10.920  10.875
 2004SOL    HW1 7909  11.477  10.905  10.812
 2004SOL    HW2 7910  11.450  10.923  10.960
 2005SOL     OW 7911   4.605  14.310   7.549
 2005SOL    HW1 7912   4.620  14.354   7.465
 2005SOL    HW2 7913   4.510  14.314   7.561
 2006SOL     OW 7914   3.733  11.384   6.112
 2006SOL    HW1 7915   3.777  11.458   6.069
 2006SOL    HW2 7916   3.755  11.394   6.205
 2007SOL     OW 7917  12.829  14.770   4.615
 2007SOL    HW1 7918  12.897  14.830   4.646
 2007SOL    HW2 7919  12.766  14.826   4.570
 2008SOL     OW 7920  12.219   6.799   7.394
 2008SOL    HW1 7921  12.263   6.870   7.346
 2008SOL    HW2 7922  12.290   6.753   7.438
 2009SOL     OW 7923   8.517   7.435   3.993
 2009SOL    HW1 7924   8.602   7.469   4.021
 2009SOL    HW2 7925   8.519   7.440   3.898
 2010SOL     OW 7926  13.608  10.130   2.879
 2010SOL    HW1 7927  13.676  10.099   2.939
 2010SOL    HW2 7928  13.526  10.102   2.920
 2011SOL     OW 7929  11.059   8.963  11.919
 2011SOL    HW1 7930  11.032   9.033  11.979
 2011SOL    HW2 7931  10.997   8.892  11.937
 2012SOL     OW 7932   3.738   9.571  10.714
 2012SOL    HW1 7933   3.827   9.560  10.749
 2012SOL    HW2 7934   3.687   9.600  10.789
 2013SOL     OW 7935   8.401   5.014   2.889
 2013SOL    HW1 7936   8.443   5.089   2.848
 2013SOL    HW2 7937   8.331   5.052   2.942
 2014SOL     OW 7938   2.424   2.309   8.240
 2014SOL    HW1 7939   2.516   2.331   8.255
 2014SOL    HW2 7940   2.397   2.264   8.320
 2015SOL     OW 7941  13.494  13.165  14.323
 2015SOL    HW1 7942  13.503  13.092  14.262
 2015SOL    HW2 7943  13.580  13.207  14.323
 2016SOL     OW 7944   9.249  10.402   7.754
 2016SOL    HW1 7945   9.203  10.318   7.748
 2016SOL    HW2 7946   9.331  10.381   7.799
 2017SOL     OW 7947   1.320  10.386  14.407
 2017SOL    HW1 7948   1.322  10.379  14.502
 2017SOL    HW2 7949   1.333  10.479  14.390
 2018SOL     OW 7950   0.675   9.215   3.882
 2018SOL    HW1 7951   0.692   9.219   3.788
 2018SOL    HW2 7952   0.682   9.306   3.911
 2019SOL     OW 7953  11.954  14.876   6.548
 2019SOL    HW1 7954  11.931   0.014   6.456
 2019SOL    HW2 7955  11.900  14.801   6.572
 2020SOL     OW 7956  13.092   0.158   4.296
 2020SOL    HW1 7957  13.103   0.242   4.341
 2020SOL    HW2 7958  13.171   0.148   4.243
 2021SOL     OW 7959   7.753   7.514  11.394
 2021SOL    HW1 7960   7.819   7.583  11.394
 2021SOL    HW2 7961   7.738   7.495  11.302
 2022SOL     OW 7962   1.886   2.467   1.155
 2022SOL    HW1 7963   1.879   2.467   1.250
 2022SOL    HW2 7964   1.980   2.453   1.138
 2023SOL     OW 7965   9.121  13.646   2.139
 2023SOL    HW1 7966   9.131  13.653   2.044
 2023SOL    HW2 7967   9.055  13.578   2.151
 2024SOL     OW 7968   0.176   8.207   3.064
 2024SOL    HW1 7969   0.266   8.224   3.090
 2024SOL    HW2 7970   0.173   8.113   3.046
 2025SOL     OW 7971   1.930   3.351   7.147
 2025SOL    HW1 7972   1.969   3.395   7.222
 2025SOL    HW2 7973   1.853   3.306   7.183
 2026SOL     OW 7974  14.722  12.160   5.055
 2026SOL    HW1 7975  14.708  12.087   5.115
 2026SOL    HW2 7976  14.683  12.235   5.098
 2027SOL     OW 7977   8.081  12.907   4.637
 2027SOL    HW1 7978   8.024  12.848   4.686
 2027SOL    HW2 7979   8.064  12.886   4.545
 2028SOL     OW 7980   1.766   0.543   2.460
 2028SOL    HW1 7981   1.856   0.530   2.429
 2028SOL    HW2 7982   1.717   0.471   2.422
 2029SOL     OW 7983   4.787  13.315   9.367
 2029SOL    HW1 7984   4.852  13.244   9.365
 2029SOL    HW2 7985   4.828  13.386   9.317
 2030SOL     OW 7986   5.029   9.967   4.382
 2030SOL    HW1 7987   4.951  10.002   4.425
 2030SOL    HW2 7988   5.000   9.885   4.343
 2031SOL     OW 7989  12.815   1.621   5.385
 2031SOL    HW1 7990  12.887   1.678   5.358
 2031SOL    HW2 7991  12.749   1.681   5.420
 2032SOL     OW 7992   3.180  13.566   6.316
 2032SOL    HW1 7993   3.115  13.497   6.327
 2032SOL    HW2 7994   3.261  13.528   6.347
 2033SOL     OW 7995   5.969   7.803  10.378
 2033SOL    HW1 7996   5.944   7.892  10.356
 2033SOL    HW2 7997   6.016   7.811  10.461
 2034SOL     OW 7998   7.596  10.353   3.465
 2034SOL    HW1 7999   7.621  10.264   3.492
 2034SOL    HW2 8000   7.611  10.354   3.370
 2035SOL     OW 8001   6.978  11.322  12.228
 2035SOL    HW1 8002   7.002  11.243  12.180
 2035SOL    HW2 8003   7.061  11.355  12.263
 2036SOL     OW 8004   9.341   6.162  10.557
 2036SOL    HW1 8005   9.392   6.086  10.527
 2036SOL    HW2 8006   9.275   6.125  10.616
 2037SOL     OW 8007  11.507   5.356   7.177
 2037SOL    HW1 8008  11.583   5.318   7.132
 2037SOL    HW2 8009  11.511   5.319   7.265
 2038SOL     OW 8010   5.919  14.548  14.123
 2038SOL    HW1 8011   5.898  14.480  14.188
 2038SOL    HW2 8012   5.855  14.617  14.140
 2039SOL     OW 8013   9.361  14.235   6.589
 2039SOL    HW1 8014   9.384  14.147   6.558
 2039SOL    HW2 8015   9.266  14.232   6.600
 2040SOL     OW 8016  13.052  10.546  10.088
 2040SOL    HW1 8017  12.996  10.524  10.013
 2040SOL    HW2 8018  13.133  10.579  10.049
 2041SOL     OW 8019   6.193   0.941   4.951
 2041SOL    HW1 8020   6.240   0.868   4.911
 2041SOL    HW2 8021   6.127   0.899   5.007
 2042SOL     OW 8022   7.048   8.239   6.594
 2042SOL    HW1 8023   7.118   8.297   6.626
 2042SOL    HW2 8024   6.968   8.292   6.600
 2043SOL     OW 8025  11.430   7.023  12.301
 2043SOL    HW1 8026  11.429   7.082  12.226
 2043SOL    HW2 8027  11.400   7.077  12.374
 2044SOL     OW 8028  12.874   8.976   5.524
 2044SOL    HW1 8029  12.855   8.922   5.601
 2044SOL    HW2 8030  12.963   8.952   5.499
 2045SOL     OW 8031   6.186  14.672   0.257
 2045SOL    HW1 8032   6.121  14.725   0.304
 2045SOL    HW2 8033   6.222  14.731   0.192
 2046SOL     OW 8034  10.326   1.935   5.062
 2046SOL    HW1 8035  10.404   1.931   5.008
 2046SOL    HW2 8036  10.255   1.907   5.005
 2047SOL     OW 8037  10.944   0.549   2.933
 2047SOL    HW1 8038  10.903   0.631   2.910
 2047SOL    HW2 8039  10.938   0.545   3.029
 2048SOL     OW 8040   9.699   6.154   3.177
 2048SOL    HW1 8041   9.622   6.155   3.234
 2048SOL    HW2 8042   9.764   6.206   3.223
 2049SOL     OW 8043  13.780  11.754   4.288
 2049SOL    HW1 8044  13.699  11.803   4.276
 2049SOL    HW2 8045  13.798  11.717   4.202
 2050SOL     OW 8046  10.676  11.167   0.744
 2050SOL    HW1 8047  10.706  11.229   0.677
 2050SOL    HW2 8048  10.746  11.166   0.808
 2051SOL     OW 8049   5.412   9.610   9.573
 2051SOL    HW1 8050   5.318   9.611   9.589
 2051SOL    HW2 8051   5.448   9.675   9.635
 2052SOL     OW 8052   4.383  13.443   1.267
 2052SOL    HW1 8053   4.379  13.532   1.301
 2052SOL    HW2 8054   4.393  13.388   1.344
 2053SOL     OW 8055   4.948   8.457   4.885
 2053SOL    HW1 8056   4.952   8.547   4.919
 2053SOL    HW2 8057   4.868   8.421   4.924
 2054SOL     OW 8058   0.585   6.159   6.038
 2054SOL    HW1 8059   0.661   6.155   5.980
 2054SOL    HW2 8060   0.595   6.240   6.087
 2055SOL     OW 8061   4.757   1.684   8.911
 2055SOL    HW1 8062   4.754   1.777   8.890
 2055SOL    HW2 8063   4.791   1.681   9.001
 2056SOL     OW 8064   1.106  13.435  10.604
 2056SOL    HW1 8065   1.013  13.424  10.623
 2056SOL    HW2 8066   1.143  13.474  10.683
 2057SOL     OW 8067  11.563  13.588  11.989
 2057SOL    HW1 8068  11.506  13.578  12.065
 2057SOL    HW2 8069  11.644  13.625  12.023
 2058SOL     OW 8070   4.213   5.288   5.980
 2058SOL    HW1 8071   4.188   5.211   6.031
 2058SOL    HW2 8072   4.277   5.334   6.035
 2059SOL     OW 8073  14.053   8.554  12.129
 2059SOL    HW1 8074  13.986   8.591  12.186
 2059SOL    HW2 8075  14.122   8.523  12.188
 2060SOL     OW 8076   8.826  11.290   1.567
 2060SOL    HW1 8077   8.909  11.251   1.543
 2060SOL    HW2 8078   8.765  11.259   1.500
 2061SOL     OW 8079   8.839   1.552  12.108
 2061SOL    HW1 8080   8.896   1.628  12.107
 2061SOL    HW2 8081   8.756   1.585  12.143
 2062SOL     OW 8082   4.711  11.591   9.819
 2062SOL    HW1 8083   4.756  11.575   9.737
 2062SOL    HW2 8084   4.649  11.519   9.828
 2063SOL     OW 8085  11.830   0.927  10.627
 2063SOL    HW1 8086  11.799   0.972  10.548
 2063SOL    HW2 8087  11.875   0.849  10.594
 2064SOL     OW 8088   7.853   4.554   8.103
 2064SOL    HW1 8089   7.912   4.483   8.080
 2064SOL    HW2 8090   7.910   4.623   8.135
 2065SOL     OW 8091  11.005  11.328   7.568
 2065SOL    HW1 8092  11.096  11.341   7.540
 2065SOL    HW2 8093  10.955  11.328   7.486
 2066SOL     OW 8094  12.108   6.573   4.638
 2066SOL    HW1 8095  12.045   6.532   4.698
 2066SOL    HW2 8096  12.104   6.520   4.559
 2067SOL     OW 8097   7.661  13.343  10.897
 2067SOL    HW1 8098   7.577  13.350  10.850
 2067SOL    HW2 8099   7.703  13.428  10.883
 2068SOL     OW 8100   0.220   3.800  14.309
 2068SOL    HW1 8101   0.285   3.760  14.367
 2068SOL    HW2 8102   0.225   3.750  14.228
 2069SOL     OW 8103   9.168   4.538   1.932
 2069SOL    HW1 8104   9.140   4.577   1.849
 2069SOL    HW2 8105   9.221   4.463   1.906
 2070SOL     OW 8106  10.515   6.479  11.367
 2070SOL    HW1 8107  10.556   6.421  11.303
 2070SOL    HW2 8108  10.583   6.544  11.387
 2071SOL     OW 8109  13.428  11.700   4.372
 2071SOL    HW1 8110  13.469  11.758   4.308
 2071SOL    HW2 8111  13.355  11.751   4.407
 2072SOL     OW 8112   1.368  12.961   5.982
 2072SOL    HW1 8113   1.432  12.899   5.945
 2072SOL    HW2 8114   1.421  13.033   6.015
 2073SOL     OW 8115  14.815   0.383   8.699
 2073SOL    HW1 8116  14.852   0.370   8.787
 2073SOL    HW2 8117  14.755   0.457   8.710
 2074SOL     OW 8118   1.910  13.029   1.766
 2074SOL    HW1 8119   1.989  13.018   1.820
 2074SOL    HW2 8120   1.939  13.082   1.692
 2075SOL     OW 8121  14.411  10.974  14.298
 2075SOL    HW1 8122  14.386  10.914  14.368
 2075SOL    HW2 8123  14.458  11.044  14.342
 2076SOL     OW 8124   2.664  12.680   3.587
 2076SOL    HW1 8125   2.639  12.751   3.645
 2076SOL    HW2 8126   2.755  12.661   3.610
 2077SOL     OW 8127   8.053   5.097  14.117
 2077SOL    HW1 8128   8.148   5.111  14.111
 2077SOL    HW2 8129   8.032   5.110  14.209
 2078SOL     OW 8130   6.966   9.835  14.851
 2078SOL    HW1 8131   6.974   9.907   0.034
 2078SOL    HW2 8132   7.000   9.872  14.769
 2079SOL     OW 8133  10.254  13.515   5.537
 2079SOL    HW1 8134  10.264  13.448   5.469
 2079SOL    HW2 8135  10.188  13.575   5.502
 2080SOL     OW 8136  10.827   4.875   2.780
 2080SOL    HW1 8137  10.839   4.815   2.707
 2080SOL    HW2 8138  10.740   4.912   2.767
 2081SOL     OW 8139  14.422   8.694   3.741
 2081SOL    HW1 8140  14.416   8.640   3.819
 2081SOL    HW2 8141  14.514   8.718   3.734
 2082SOL     OW 8142   7.203  10.134  14.438
 2082SOL    HW1 8143   7.264  10.171  14.502
 2082SOL    HW2 8144   7.199  10.198  14.368
 2083SOL     OW 8145  14.511   5.144   9.842
 2083SOL    HW1 8146  14.485   5.080   9.775
 2083SOL    HW2 8147  14.605   5.156   9.827
 2084SOL     OW 8148   3.087  13.579  12.938
 2084SOL    HW1 8149   3.072  13.524  12.861
 2084SOL    HW2 8150   3.040  13.660  12.919
 2085SOL     OW 8151  13.757   7.415  11.400
 2085SOL    HW1 8152  13.756   7.319  11.393
 2085SOL    HW2 8153  13.848   7.439  11.383
 2086SOL     OW 8154   3.338  14.682   9.426
 2086SOL    HW1 8155   3.305  14.593   9.417
 2086SOL    HW2 8156   3.260  14.736   9.435
 2087SOL     OW 8157   2.280   9.321   0.381
 2087SOL    HW1 8158   2.310   9.256   0.444
 2087SOL    HW2 8159   2.323   9.297   0.299
 2088SOL     OW 8160  13.749   2.802  12.264
 2088SOL    HW1 8161  13.804   2.792  12.186
 2088SOL    HW2 8162  13.682   2.734  12.255
 2089SOL     OW 8163   3.582   5.073   9.085
 2089SOL    HW1 8164   3.629   5.138   9.033
 2089SOL    HW2 8165   3.650   5.011   9.113
 2090SOL     OW 8166   8.772   2.868  13.850
 2090SOL    HW1 8167   8.763   2.926  13.926
 2090SOL    HW2 8168   8.839   2.910  13.796
 2091SOL     OW 8169   3.552   6.397   2.661
 2091SOL    HW1 8170   3.643   6.376   2.638
 2091SOL    HW2 8171   3.504   6.317   2.644
 2092SOL     OW 8172   5.590   0.149   3.323
 2092SOL    HW1 8173   5.659   0.202   3.284
 2092SOL    HW2 8174   5.626   0.060   3.324
 2093SOL     OW 8175  11.795   6.512   1.751
 2093SOL    HW1 8176  11.845   6.544   1.675
 2093SOL    HW2 8177  11.705   6.539   1.733
 2094SOL     OW 8178  11.449   8.916   6.372
 2094SOL    HW1 8179  11.515   8.869   6.321
 2094SOL    HW2 8180  11.374   8.857   6.376
 2095SOL     OW 8181   4.071  13.490  10.582
 2095SOL    HW1 8182   4.105  13.521  10.666
 2095SOL    HW2 8183   3.993  13.543  10.567
 2096SOL     OW 8184   7.584  11.913   0.666
 2096SOL    HW1 8185   7.520  11.895   0.597
 2096SOL    HW2 8186   7.638  11.834   0.671
 2097SOL     OW 8187  13.561   0.556   9.933
 2097SOL    HW1 8188  13.632   0.493   9.924
 2097SOL    HW2 8189  13.548   0.591   9.845
 2098SOL     OW 8190   9.028   4.666   0.670
 2098SOL    HW1 8191   9.010   4.738   0.731
 2098SOL    HW2 8192   9.029   4.708   0.584
 2099SOL     OW 8193   2.487  11.518   4.373
 2099SOL    HW1 8194   2.475  11.542   4.281
 2099SOL    HW2 8195   2.456  11.595   4.422
 2100SOL     OW 8196   3.980   9.526   8.998
 2100SOL    HW1 8197   3.964   9.587   8.926
 2100SOL    HW2 8198   3.906   9.466   8.996
 2101SOL     OW 8199   0.166  11.870  11.461
 2101SOL    HW1 8200   0.173  11.941  11.524
 2101SOL    HW2 8201   0.210  11.903  11.382
 2102SOL     OW 8202   6.101   3.445   5.411
 2102SOL    HW1 8203   6.122   3.447   5.317
 2102SOL    HW2 8204   6.006   3.456   5.414
 2103SOL     OW 8205   6.788  10.875  14.399
 2103SOL    HW1 8206   6.800  10.789  14.439
 2103SOL    HW2 8207   6.792  10.936  14.473
 2104SOL     OW 8208   4.826  13.597   5.590
 2104SOL    HW1 8209   4.836  13.691   5.579
 2104SOL    HW2 8210   4.792  13.566   5.506
 2105SOL     OW 8211   4.949   4.633   3.289
 2105SOL    HW1 8212   4.991   4.562   3.240
 2105SOL    HW2 8213   4.864   4.644   3.246
 2106SOL     OW 8214  11.635   6.045  11.481
 2106SOL    HW1 8215  11.626   5.968  11.425
 2106SOL    HW2 8216  11.671   6.011  11.563
 2107SOL     OW 8217  12.324   3.447   5.798
 2107SOL    HW1 8218  12.380   3.519   5.827
 2107SOL    HW2 8219  12.246   3.454   5.853
 2108SOL     OW 8220   5.316  14.725  14.877
 2108SOL    HW1 8221   5.256  14.783   0.044
 2108SOL    HW2 8222   5.359  14.675   0.067
 2109SOL     OW 8223   8.462   3.146   5.784
 2109SOL    HW1 8224   8.437   3.143   5.877
 2109SOL    HW2 8225   8.554   3.121   5.784
 2110SOL     OW 8226   5.615   2.030   3.527
 2110SOL    HW1 8227   5.520   2.040   3.522
 2110SOL    HW2 8228   5.649   2.086   3.456
 2111SOL     OW 8229   5.131   9.684   9.621
 2111SOL    HW1 8230   5.134   9.691   9.525
 2111SOL    HW2 8231   5.097   9.768   9.651
 2112SOL     OW 8232   9.161  12.976  14.741
 2112SOL    HW1 8233   9.217  12.966  14.818
 2112SOL    HW2 8234   9.191  12.908  14.680
 2113SOL     OW 8235   3.563   2.173   4.873
 2113SOL    HW1 8236   3.537   2.260   4.841
 2113SOL    HW2 8237   3.617   2.137   4.803
 2114SOL     OW 8238   4.937  11.034   0.464
 2114SOL    HW1 8239   4.883  11.094   0.412
 2114SOL    HW2 8240   4.875  10.994   0.525
 2115SOL     OW 8241   1.240   0.709  12.827
 2115SOL    HW1 8242   1.286   0.752  12.899
 2115SOL    HW2 8243   1.171   0.771  12.803
 2116SOL     OW 8244   1.761  12.949  12.471
 2116SOL    HW1 8245   1.676  12.916  12.500
 2116SOL    HW2 8246   1.777  12.904  12.388
 2117SOL     OW 8247   7.114   5.106  14.243
 2117SOL    HW1 8248   7.204   5.075  14.249
 2117SOL    HW2 8249   7.060   5.028  14.254
 2118SOL     OW 8250  12.346  13.857  13.401
 2118SOL    HW1 8251  12.435  13.867  13.368
 2118SOL    HW2 8252  12.291  13.857  13.322
 2119SOL     OW 8253  14.168   4.493   6.848
 2119SOL    HW1 8254  14.175   4.420   6.787
 2119SOL    HW2 8255  14.103   4.465   6.912
 2120SOL     OW 8256  13.055  11.226  10.023
 2120SOL    HW1 8257  13.132  11.175  10.050
 2120SOL    HW2 8258  13.017  11.175   9.952
 2121SOL     OW 8259   1.335   7.088   0.479
 2121SOL    HW1 8260   1.267   7.041   0.528
 2121SOL    HW2 8261   1.299   7.176   0.467
 2122SOL     OW 8262   2.016   8.218   6.334
 2122SOL    HW1 8263   1.951   8.168   6.384
 2122SOL    HW2 8264   2.098   8.204   6.381
 2123SOL     OW 8265   7.361   2.725   8.782
 2123SOL    HW1 8266   7.293   2.659   8.797
 2123SOL    HW2 8267   7.379   2.720   8.688
 2124SOL     OW 8268   9.732   2.135   9.469
 2124SOL    HW1 8269   9.644   2.124   9.433
 2124SOL    HW2 8270   9.763   2.045   9.483
 2125SOL     OW 8271   1.366   3.933  13.042
 2125SOL    HW1 8272   1.441   3.917  12.985
 2125SOL    HW2 8273   1.369   3.861  13.106
 2126SOL     OW 8274   0.426   6.649   6.373
 2126SOL    HW1 8275   0.417   6.651   6.468
 2126SOL    HW2 8276   0.366   6.580   6.344
 2127SOL     OW 8277  13.175   2.874   1.988
 2127SOL    HW1 8278  13.080   2.874   1.975
 2127SOL    HW2 8279  13.192   2.953   2.040
 2128SOL     OW 8280   5.389   5.658   1.285
 2128SOL    HW1 8281   5.316   5.615   1.329
 2128SOL    HW2 8282   5.426   5.716   1.352
 2129SOL     OW 8283   1.902   5.605   9.971
 2129SOL    HW1 8284   1.926   5.524   9.927
 2129SOL    HW2 8285   1.957   5.672   9.930
 2130SOL     OW 8286   9.717  13.519   5.808
 2130SOL    HW1 8287   9.671  13.451   5.858
 2130SOL    HW2 8288   9.736  13.478   5.724
 2131SOL     OW 8289   3.929  10.077  12.292
 2131SOL    HW1 8290   3.852  10.031  12.325
 2131SOL    HW2 8291   3.949  10.143  12.358
 2132SOL     OW 8292  10.346  13.242   6.529
 2132SOL    HW1 8293  10.422  13.258   6.584
 2132SOL    HW2 8294  10.276  13.219   6.590
 2133SOL     OW 8295   6.221   9.254   2.043
 2133SOL    HW1 8296   6.191   9.327   1.989
 2133SOL    HW2 8297   6.305   9.229   2.005
 2134SOL     OW 8298   3.366   8.409   4.112
 2134SOL    HW1 8299   3.283   8.398   4.158
 2134SOL    HW2 8300   3.424   8.450   4.175
 2135SOL     OW 8301   9.210   6.760   8.937
 2135SOL    HW1 8302   9.218   6.726   8.848
 2135SOL    HW2 8303   9.248   6.692   8.992
 2136SOL     OW 8304   2.111   1.644   6.107
 2136SOL    HW1 8305   2.072   1.724   6.071
 2136SOL    HW2 8306   2.044   1.577   6.093
 2137SOL     OW 8307   5.405   3.924   1.481
 2137SOL    HW1 8308   5.363   4.008   1.463
 2137SOL    HW2 8309   5.358   3.861   1.427
 2138SOL     OW 8310   6.775   3.511  12.977
 2138SOL    HW1 8311   6.785   3.450  12.904
 2138SOL    HW2 8312   6.712   3.467  13.035
 2139SOL     OW 8313   6.259  10.009   0.705
 2139SOL    HW1 8314   6.220  10.067   0.770
 2139SOL    HW2 8315   6.341   9.981   0.744
 2140SOL     OW 8316   0.397   1.063  13.385
 2140SOL    HW1 8317   0.372   1.102  13.468
 2140SOL    HW2 8318   0.384   1.132  13.320
 2141SOL     OW 8319   9.203   9.081  11.882
 2141SOL    HW1 8320   9.244   9.128  11.810
 2141SOL    HW2 8321   9.241   8.993  11.878
 2142SOL     OW 8322   1.503  13.135   8.286
 2142SOL    HW1 8323   1.558  13.207   8.318
 2142SOL    HW2 8324   1.483  13.159   8.196
 2143SOL     OW 8325  11.244  11.691  10.433
 2143SOL    HW1 8326  11.221  11.710  10.524
 2143SOL    HW2 8327  11.164  11.708  10.383
 2144SOL     OW 8328   7.493   4.305   5.922
 2144SOL    HW1 8329   7.462   4.381   5.971
 2144SOL    HW2 8330   7.543   4.341   5.849
 2145SOL     OW 8331  13.876   7.665   2.820
 2145SOL    HW1 8332  13.919   7.592   2.777
 2145SOL    HW2 8333  13.829   7.626   2.894
 2146SOL     OW 8334   7.943   5.027   3.547
 2146SOL    HW1 8335   7.930   4.932   3.538
 2146SOL    HW2 8336   7.855   5.064   3.538
 2147SOL     OW 8337   6.944   4.625   4.874
 2147SOL    HW1 8338   6.911   4.714   4.873
 2147SOL    HW2 8339   7.015   4.627   4.939
 2148SOL     OW 8340   2.448   5.278  12.608
 2148SOL    HW1 8341   2.398   5.323  12.676
 2148SOL    HW2 8342   2.382   5.244  12.547
 2149SOL     OW 8343  12.869   3.186  11.003
 2149SOL    HW1 8344  12.819   3.263  11.029
 2149SOL    HW2 8345  12.960   3.211  11.015
 2150SOL     OW 8346   5.610   7.961   1.064
 2150SOL    HW1 8347   5.578   7.873   1.087
 2150SOL    HW2 8348   5.580   7.975   0.975
 2151SOL     OW 8349   8.409  12.753   0.651
 2151SOL    HW1 8350   8.444  12.788   0.569
 2151SOL    HW2 8351   8.428  12.659   0.646
 2152SOL     OW 8352   7.805   2.536   1.110
 2152SOL    HW1 8353   7.900   2.533   1.114
 2152SOL    HW2 8354   7.783   2.501   1.024
 2153SOL     OW 8355  10.876   7.807  12.932
 2153SOL    HW1 8356  10.871   7.786  12.838
 2153SOL    HW2 8357  10.791   7.780  12.967
 2154SOL     OW 8358   3.547   8.957   5.721
 2154SOL    HW1 8359   3.465   8.952   5.672
 2154SOL    HW2 8360   3.545   8.881   5.779
 2155SOL     OW 8361  13.717  13.412  11.768
 2155SOL    HW1 8362  13.788  13.353  11.742
 2155SOL    HW2 8363  13.761  13.487  11.808
 2156SOL     OW 8364  13.459  11.126  14.374
 2156SOL    HW1 8365  13.507  11.104  14.294
 2156SOL    HW2 8366  13.462  11.221  14.379
 2157SOL     OW 8367   5.004   5.256   3.704
 2157SOL    HW1 8368   5.000   5.208   3.787
 2157SOL    HW2 8369   4.918   5.296   3.696
 2158SOL     OW 8370  10.393  10.957   2.900
 2158SOL    HW1 8371  10.444  10.975   2.821
 2158SOL    HW2 8372  10.377  10.863   2.899
 2159SOL     OW 8373  14.010  12.931   1.028
 2159SOL    HW1 8374  13.954  12.941   1.105
 2159SOL    HW2 8375  14.052  12.846   1.040
 2160SOL     OW 8376   9.309   3.286  14.650
 2160SOL    HW1 8377   9.325   3.379  14.637
 2160SOL    HW2 8378   9.279   3.278  14.740
 2161SOL     OW 8379  10.329   4.372   7.237
 2161SOL    HW1 8380  10.398   4.437   7.226
 2161SOL    HW2 8381  10.320   4.330   7.151
 2162SOL     OW 8382   9.407   1.604   1.586
 2162SOL    HW1 8383   9.500   1.613   1.610
 2162SOL    HW2 8384   9.397   1.511   1.565
 2163SOL     OW 8385   1.449   8.885  10.593
 2163SOL    HW1 8386   1.355   8.888  10.573
 2163SOL    HW2 8387   1.487   8.957  10.543
 2164SOL     OW 8388  11.802  14.246  12.459
 2164SOL    HW1 8389  11.820  14.245  12.553
 2164SOL    HW2 8390  11.706  14.241  12.453
 2165SOL     OW 8391  11.303   2.632  13.853
 2165SOL    HW1 8392  11.364   2.616  13.781
 2165SOL    HW2 8393  11.227   2.672  13.810
 2166SOL     OW 8394   7.167  14.813  11.978
 2166SOL    HW1 8395   7.200  14.807  11.889
 2166SOL    HW2 8396   7.191   0.022  12.007
 2167SOL     OW 8397   8.958   9.672  10.380
 2167SOL    HW1 8398   9.053   9.668  10.394
 2167SOL    HW2 8399   8.945   9.751  10.328
 2168SOL     OW 8400  14.822  11.609   4.392
 2168SOL    HW1 8401  14.814  11.630   4.299
 2168SOL    HW2 8402  14.801  11.691   4.437
 2169SOL     OW 8403   9.159   2.383   3.457
 2169SOL    HW1 8404   9.071   2.345   3.454
 2169SOL    HW2 8405   9.148   2.465   3.506
 2170SOL     OW 8406   5.695   2.265  14.372
 2170SOL    HW1 8407   5.782   2.239  14.340
 2170SOL    HW2 8408   5.705   2.358  14.393
 2171SOL     OW 8409   0.856   8.216  11.571
 2171SOL    HW1 8410   0.783   8.181  11.520
 2171SOL    HW2 8411   0.882   8.295  11.524
 2172SOL     OW 8412   9.177  13.678  10.441
 2172SOL    HW1 8413   9.229  13.754  10.465
 2172SOL    HW2 8414   9.240  13.616  10.404
 2173SOL     OW 8415  11.288   3.044   1.904
 2173SOL    HW1 8416  11.290   3.127   1.952
 2173SOL    HW2 8417  11.259   2.979   1.968
 2174SOL     OW 8418  11.197   2.344   9.818
 2174SOL    HW1 8419  11.147   2.283   9.762
 2174SOL    HW2 8420  11.238   2.405   9.756
 2175SOL     OW 8421   9.353  10.445   2.493
 2175SOL    HW1 8422   9.407  10.382   2.541
 2175SOL    HW2 8423   9.319  10.394   2.419
 2176SOL     OW 8424   0.450   8.990   0.138
 2176SOL    HW1 8425   0.496   9.016   0.059
 2176SOL    HW2 8426   0.440   8.895   0.131
 2177SOL     OW 8427  13.795   4.157  14.029
 2177SOL    HW1 8428  13.746   4.078  14.009
 2177SOL    HW2 8429  13.730   4.227  14.024
 2178SOL     OW 8430  12.922   7.451   4.327
 2178SOL    HW1 8431  12.998   7.509   4.341
 2178SOL    HW2 8432  12.932   7.420   4.238
 2179SOL     OW 8433   0.121  10.875  11.785
 2179SOL    HW1 8434   0.032  10.897  11.811
 2179SOL    HW2 8435   0.137  10.929  11.708
 2180SOL     OW 8436   3.669   1.230   1.169
 2180SOL    HW1 8437   3.736   1.299   1.177
 2180SOL    HW2 8438   3.595   1.274   1.127
 2181SOL     OW 8439   3.548   7.595  10.494
 2181SOL    HW1 8440   3.610   7.602  10.566
 2181SOL    HW2 8441   3.463   7.582  10.536
 2182SOL     OW 8442   0.735   9.711   5.273
 2182SOL    HW1 8443   0.700   9.799   5.283
 2182SOL    HW2 8444   0.724   9.690   5.180
 2183SOL     OW 8445   6.232   2.868  11.967
 2183SOL    HW1 8446   6.261   2.929  12.034
 2183SOL    HW2 8447   6.236   2.917  11.885
 2184SOL     OW 8448   0.319   1.279  13.593
 2184SOL    HW1 8449   0.358   1.366  13.598
 2184SOL    HW2 8450   0.263   1.272  13.670
 2185SOL     OW 8451   7.780   3.057   4.767
 2185SOL    HW1 8452   7.703   3.081   4.716
 2185SOL    HW2 8453   7.808   2.973   4.731
 2186SOL     OW 8454  13.273   7.609  11.868
 2186SOL    HW1 8455  13.262   7.582  11.777
 2186SOL    HW2 8456  13.187   7.593  11.908
 2187SOL     OW 8457   6.408  12.527   6.644
 2187SOL    HW1 8458   6.395  12.617   6.673
 2187SOL    HW2 8459   6.400  12.530   6.549
 2188SOL     OW 8460   1.520   1.833  13.569
 2188SOL    HW1 8461   1.584   1.865  13.633
 2188SOL    HW2 8462   1.573   1.809  13.493
 2189SOL     OW 8463  14.177   2.579   7.296
 2189SOL    HW1 8464  14.263   2.540   7.316
 2189SOL    HW2 8465  14.171   2.655   7.354
 2190SOL     OW 8466   8.697   4.487   9.728
 2190SOL    HW1 8467   8.641   4.487   9.806
 2190SOL    HW2 8468   8.647   4.439   9.663
 2191SOL     OW 8469   6.213   9.022  11.348
 2191SOL    HW1 8470   6.232   9.000  11.439
 2191SOL    HW2 8471   6.203   8.937  11.304
 2192SOL     OW 8472   6.530   5.675   7.201
 2192SOL    HW1 8473   6.453   5.626   7.174
 2192SOL    HW2 8474   6.547   5.647   7.291
 2193SOL     OW 8475   1.059   3.636  14.556
 2193SOL    HW1 8476   1.154   3.649  14.562
 2193SOL    HW2 8477   1.048   3.572  14.487
 2194SOL     OW 8478   6.878   8.630  13.777
 2194SOL    HW1 8479   6.822   8.672  13.712
 2194SOL    HW2 8480   6.823   8.621  13.854
 2195SOL     OW 8481  13.768  13.305   5.479
 2195SOL    HW1 8482  13.749  13.248   5.554
 2195SOL    HW2 8483  13.686  13.351   5.462
 2196SOL     OW 8484   1.663   5.954   9.030
 2196SOL    HW1 8485   1.632   5.953   9.121
 2196SOL    HW2 8486   1.653   6.045   9.002
 2197SOL     OW 8487   8.091  11.512  13.562
 2197SOL    HW1 8488   8.179  11.528  13.526
 2197SOL    HW2 8489   8.069  11.424  13.533
 2198SOL     OW 8490  10.431   0.459   3.478
 2198SOL    HW1 8491  10.475   0.511   3.546
 2198SOL    HW2 8492  10.360   0.516   3.448
 2199SOL     OW 8493   7.808  13.418   5.094
 2199SOL    HW1 8494   7.882  13.470   5.127
 2199SOL    HW2 8495   7.730  13.465   5.126
 2200SOL     OW 8496   2.409  12.001  10.828
 2200SOL    HW1 8497   2.387  11.918  10.785
 2200SOL    HW2 8498   2.484  11.980  10.884
 2201SOL     OW 8499   4.274   2.683  13.499
 2201SOL    HW1 8500   4.274   2.769  13.541
 2201SOL    HW2 8501   4.367   2.663  13.485
 2202SOL     OW 8502   7.972   0.382  14.084
 2202SOL    HW1 8503   8.000   0.365  14.174
 2202SOL    HW2 8504   7.879   0.406  14.092
 2203SOL     OW 8505  10.904  11.591   5.725
 2203SOL    HW1 8506  10.936  11.668   5.679
 2203SOL    HW2 8507  10.918  11.611   5.818
 2204SOL     OW 8508   2.465   7.354  11.217
 2204SOL    HW1 8509   2.517   7.303  11.155
 2204SOL    HW2 8510   2.527   7.384  11.283
 2205SOL     OW 8511  13.213   8.535   4.719
 2205SOL    HW1 8512  13.199   8.596   4.792
 2205SOL    HW2 8513  13.255   8.459   4.759
 2206SOL     OW 8514  10.769   8.363  12.608
 2206SOL    HW1 8515  10.706   8.411  12.554
 2206SOL    HW2 8516  10.719   8.290  12.645
 2207SOL     OW 8517   4.403   2.009   8.378
 2207SOL    HW1 8518   4.409   1.945   8.449
 2207SOL    HW2 8519   4.442   2.089   8.414
 2208SOL     OW 8520   2.312  10.581  10.006
 2208SOL    HW1 8521   2.273  10.623  10.083
 2208SOL    HW2 8522   2.278  10.491  10.008
 2209SOL     OW 8523   2.318   3.578  10.451
 2209SOL    HW1 8524   2.283   3.667  10.446
 2209SOL    HW2 8525   2.369   3.568  10.371
 2210SOL     OW 8526   5.040  11.627  13.790
 2210SOL    HW1 8527   4.968  11.619  13.726
 2210SOL    HW2 8528   5.070  11.717  13.780
 2211SOL     OW 8529   9.313  12.673  10.935
 2211SOL    HW1 8530   9.388  12.731  10.925
 2211SOL    HW2 8531   9.240  12.732  10.955
 2212SOL     OW 8532   4.528   9.902   7.245
 2212SOL    HW1 8533   4.488   9.834   7.300
 2212SOL    HW2 8534   4.594   9.855   7.194
 2213SOL     OW 8535   0.863  14.565  11.495
 2213SOL    HW1 8536   0.928  14.584  11.428
 2213SOL    HW2 8537   0.894  14.485  11.537
 2214SOL     OW 8538   4.493   2.772   0.175
 2214SOL    HW1 8539   4.495   2.694   0.119
 2214SOL    HW2 8540   4.447   2.743   0.254
 2215SOL     OW 8541   4.591  11.575  12.832
 2215SOL    HW1 8542   4.540  11.503  12.868
 2215SOL    HW2 8543   4.580  11.646  12.894
 2216SOL     OW 8544  13.768  10.353   2.569
 2216SOL    HW1 8545  13.681  10.314   2.568
 2216SOL    HW2 8546  13.763  10.421   2.636
 2217SOL     OW 8547  10.665  12.368   2.767
 2217SOL    HW1 8548  10.744  12.374   2.821
 2217SOL    HW2 8549  10.614  12.446   2.791
 2218SOL     OW 8550  12.804   6.678  12.536
 2218SOL    HW1 8551  12.777   6.719  12.619
 2218SOL    HW2 8552  12.772   6.588  12.544
 2219SOL     OW 8553  13.035   1.114  10.014
 2219SOL    HW1 8554  12.967   1.178  10.036
 2219SOL    HW2 8555  12.992   1.053   9.954
 2220SOL     OW 8556   8.797  12.155   7.547
 2220SOL    HW1 8557   8.759  12.160   7.460
 2220SOL    HW2 8558   8.783  12.241   7.585
 2221SOL     OW 8559   1.291   0.851   4.507
 2221SOL    HW1 8560   1.294   0.842   4.412
 2221SOL    HW2 8561   1.291   0.946   4.521
 2222SOL     OW 8562   4.959   7.001  10.244
 2222SOL    HW1 8563   4.923   6.953  10.169
 2222SOL    HW2 8564   4.902   7.077  10.254
 2223SOL     OW 8565   9.536   9.704   8.837
 2223SOL    HW1 8566   9.516   9.698   8.743
 2223SOL    HW2 8567   9.462   9.660   8.880
 2224SOL     OW 8568   0.038   6.183  13.972
 2224SOL    HW1 8569   0.039   6.278  13.979
 2224SOL    HW2 8570  14.846   6.164  13.912
 2225SOL     OW 8571   6.217   0.235   4.909
 2225SOL    HW1 8572   6.146   0.298   4.897
 2225SOL    HW2 8573   6.241   0.209   4.820
 2226SOL     OW 8574  12.953   2.729   6.795
 2226SOL    HW1 8575  12.974   2.638   6.813
 2226SOL    HW2 8576  12.857   2.734   6.804
 2227SOL     OW 8577   0.343  11.032   1.139
 2227SOL    HW1 8578   0.308  11.071   1.218
 2227SOL    HW2 8579   0.347  10.938   1.158
 2228SOL     OW 8580   7.141   4.860   0.125
 2228SOL    HW1 8581   7.105   4.948   0.122
 2228SOL    HW2 8582   7.196   4.853   0.047
 2229SOL     OW 8583  11.577   1.387   2.245
 2229SOL    HW1 8584  11.646   1.427   2.298
 2229SOL    HW2 8585  11.503   1.447   2.255
 2230SOL     OW 8586   0.518   3.179   5.881
 2230SOL    HW1 8587   0.508   3.156   5.789
 2230SOL    HW2 8588   0.587   3.245   5.883
 2231SOL     OW 8589   6.281  11.753   8.826
 2231SOL    HW1 8590   6.333  11.758   8.906
 2231SOL    HW2 8591   6.219  11.682   8.841
 2232SOL     OW 8592   9.489   9.196   9.950
 2232SOL    HW1 8593   9.442   9.226  10.028
 2232SOL    HW2 8594   9.421   9.192   9.882
 2233SOL     OW 8595   8.607   6.048  12.907
 2233SOL    HW1 8596   8.597   5.966  12.955
 2233SOL    HW2 8597   8.570   6.030  12.821
 2234SOL     OW 8598   1.983   4.704   0.917
 2234SOL    HW1 8599   1.919   4.692   0.987
 2234SOL    HW2 8600   2.016   4.793   0.929
 2235SOL     OW 8601   6.051  12.899  10.484
 2235SOL    HW1 8602   6.060  12.873  10.575
 2235SOL    HW2 8603   6.129  12.951  10.466
 2236SOL     OW 8604  13.378  10.348   5.172
 2236SOL    HW1 8605  13.421  10.262   5.163
 2236SOL    HW2 8606  13.410  10.399   5.098
 2237SOL     OW 8607   5.006   3.480   7.285
 2237SOL    HW1 8608   4.959   3.415   7.234
 2237SOL    HW2 8609   5.085   3.499   7.234
 2238SOL     OW 8610  11.499   1.580  13.640
 2238SOL    HW1 8611  11.438   1.653  13.629
 2238SOL    HW2 8612  11.555   1.607  13.713
 2239SOL     OW 8613  10.942  13.727   9.114
 2239SOL    HW1 8614  11.032  13.754   9.134
 2239SOL    HW2 8615  10.898  13.725   9.199
 2240SOL     OW 8616   9.057   1.912   5.168
 2240SOL    HW1 8617   8.984   1.851   5.160
 2240SOL    HW2 8618   9.021   1.997   5.141
 2241SOL     OW 8619   3.938   0.050   0.457
 2241SOL    HW1 8620   3.923   0.081   0.547
 2241SOL    HW2 8621   3.897   0.117   0.402
 2242SOL     OW 8622   8.219   5.083   3.536
 2242SOL    HW1 8623   8.227   5.136   3.615
 2242SOL    HW2 8624   8.127   5.056   3.535
 2243SOL     OW 8625  10.218  10.587  14.829
 2243SOL    HW1 8626  10.253  10.676  14.815
 2243SOL    HW2 8627  10.255  10.536  14.757
 2244SOL     OW 8628  10.960   9.912   2.030
 2244SOL    HW1 8629  11.014   9.893   1.954
 2244SOL    HW2 8630  11.022   9.938   2.099
 2245SOL     OW 8631   1.518   4.221  11.831
 2245SOL    HW1 8632   1.503   4.284  11.901
 2245SOL    HW2 8633   1.445   4.234  11.771
 2246SOL     OW 8634   9.413  13.982  11.094
 2246SOL    HW1 8635   9.367  13.957  11.014
 2246SOL    HW2 8636   9.375  14.066  11.119
 2247SOL     OW 8637   6.940   0.696   9.995
 2247SOL    HW1 8638   6.950   0.791  10.001
 2247SOL    HW2 8639   6.954   0.676   9.903
 2248SOL     OW 8640   1.645   9.363   4.219
 2248SOL    HW1 8641   1.680   9.391   4.135
 2248SOL    HW2 8642   1.550   9.364   4.207
 2249SOL     OW 8643  14.650  10.920   1.563
 2249SOL    HW1 8644  14.592  10.869   1.507
 2249SOL    HW2 8645  14.676  10.860   1.633
 2250SOL     OW 8646   7.798   0.316   3.237
 2250SOL    HW1 8647   7.782   0.243   3.177
 2250SOL    HW2 8648   7.834   0.276   3.315
 2251SOL     OW 8649  10.406   1.039   3.167
 2251SOL    HW1 8650  10.487   1.029   3.217
 2251SOL    HW2 8651  10.343   0.981   3.211
 2252SOL     OW 8652   1.237   0.141   4.716
 2252SOL    HW1 8653   1.281   0.183   4.789
 2252SOL    HW2 8654   1.159   0.100   4.755
 2253SOL     OW 8655   1.503   4.855  10.085
 2253SOL    HW1 8656   1.594   4.833  10.065
 2253SOL    HW2 8657   1.468   4.890  10.003
 2254SOL     OW 8658   5.334   0.345  13.028
 2254SOL    HW1 8659   5.293   0.359  13.114
 2254SOL    HW2 8660   5.261   0.323  12.970
 2255SOL     OW 8661  13.134   9.373   9.836
 2255SOL    HW1 8662  13.166   9.285   9.858
 2255SOL    HW2 8663  13.183   9.397   9.757
 2256SOL     OW 8664  11.311   2.467  12.894
 2256SOL    HW1 8665  11.289   2.464  12.987
 2256SOL    HW2 8666  11.286   2.555  12.866
 2257SOL     OW 8667  10.135   9.323   1.238
 2257SOL    HW1 8668  10.095   9.345   1.154
 2257SOL    HW2 8669  10.063   9.286   1.290
 2258SOL     OW 8670  12.363  14.427   9.693
 2258SOL    HW1 8671  12.427  14.427   9.764
 2258SOL    HW2 8672  12.359  14.519   9.665
 2259SOL     OW 8673  14.030  11.295   4.637
 2259SOL    HW1 8674  13.953  11.321   4.686
 2259SOL    HW2 8675  14.024  11.200   4.631
 2260SOL     OW 8676  12.449   4.485  14.174
 2260SOL    HW1 8677  12.408   4.454  14.093
 2260SOL    HW2 8678  12.479   4.574  14.152
 2261SOL     OW 8679   7.386   1.179  14.701
 2261SOL    HW1 8680   7.315   1.228  14.743
 2261SOL    HW2 8681   7.413   1.235  14.628
 2262SOL     OW 8682   0.965   1.991   8.613
 2262SOL    HW1 8683   1.052   1.962   8.584
 2262SOL    HW2 8684   0.907   1.919   8.589
 2263SOL     OW 8685   2.819  14.175  13.604
 2263SOL    HW1 8686   2.778  14.261  13.614
 2263SOL    HW2 8687   2.880  14.169  13.677
 2264SOL     OW 8688   1.525   8.823   8.433
 2264SOL    HW1 8689   1.477   8.773   8.366
 2264SOL    HW2 8690   1.456   8.865   8.485
 2265SOL     OW 8691   7.334   8.844  12.109
 2265SOL    HW1 8692   7.397   8.804  12.048
 2265SOL    HW2 8693   7.361   8.812  12.195
 2266SOL     OW 8694   1.722   8.405   2.910
 2266SOL    HW1 8695   1.633   8.373   2.923
 2266SOL    HW2 8696   1.771   8.328   2.881
 2267SOL     OW 8697   7.860   8.054  13.478
 2267SOL    HW1 8698   7.933   8.109  13.507
 2267SOL    HW2 8699   7.868   7.974  13.530
 2268SOL     OW 8700   3.242  11.098   0.751
 2268SOL    HW1 8701   3.155  11.070   0.780
 2268SOL    HW2 8702   3.229  11.125   0.660
 2269SOL     OW 8703   1.963  10.392   1.778
 2269SOL    HW1 8704   1.899  10.342   1.829
 2269SOL    HW2 8705   2.000  10.328   1.717
 2270SOL     OW 8706   4.723   5.592  14.471
 2270SOL    HW1 8707   4.722   5.687  14.482
 2270SOL    HW2 8708   4.737   5.558  14.560
 2271SOL     OW 8709   8.432  13.326   9.650
 2271SOL    HW1 8710   8.356  13.350   9.597
 2271SOL    HW2 8711   8.502  13.382   9.617
 2272SOL     OW 8712   4.930   4.417  13.514
 2272SOL    HW1 8713   4.944   4.401  13.607
 2272SOL    HW2 8714   5.014   4.395  13.473
 2273SOL     OW 8715   8.427   6.223   6.321
 2273SOL    HW1 8716   8.407   6.306   6.278
 2273SOL    HW2 8717   8.522   6.223   6.333
 2274SOL     OW 8718   5.494   2.537  11.744
 2274SOL    HW1 8719   5.561   2.554  11.810
 2274SOL    HW2 8720   5.523   2.586  11.667
 2275SOL     OW 8721  12.351   7.849  12.202
 2275SOL    HW1 8722  12.274   7.902  12.223
 2275SOL    HW2 8723  12.327   7.760  12.227
 2276SOL     OW 8724  13.950   7.789  14.137
 2276SOL    HW1 8725  14.035   7.763  14.172
 2276SOL    HW2 8726  13.918   7.856  14.198
 2277SOL     OW 8727   8.664  10.688   3.393
 2277SOL    HW1 8728   8.653  10.645   3.477
 2277SOL    HW2 8729   8.752  10.665   3.365
 2278SOL     OW 8730   3.316  12.690  13.585
 2278SOL    HW1 8731   3.294  12.683  13.493
 2278SOL    HW2 8732   3.382  12.759  13.589
 2279SOL     OW 8733   5.761   7.563   2.400
 2279SOL    HW1 8734   5.702   7.563   2.324
 2279SOL    HW2 8735   5.794   7.653   2.404
 2280SOL     OW 8736  13.596   3.736  12.926
 2280SOL    HW1 8737  13.537   3.698  12.990
 2280SOL    HW2 8738  13.603   3.828  12.950
 2281SOL     OW 8739   4.092   5.426   9.795
 2281SOL    HW1 8740   4.083   5.492   9.727
 2281SOL    HW2 8741   4.143   5.469   9.864
 2282SOL     OW 8742  13.802   5.601  14.858
 2282SOL    HW1 8743  13.718   5.576   0.017
 2282SOL    HW2 8744  13.835   5.522  14.816
 2283SOL     OW 8745   2.617   1.456  13.304
 2283SOL    HW1 8746   2.607   1.550  13.285
 2283SOL    HW2 8747   2.698   1.450  13.353
 2284SOL     OW 8748  12.202   0.346  14.662
 2284SOL    HW1 8749  12.222   0.279  14.727
 2284SOL    HW2 8750  12.224   0.429  14.704
 2285SOL     OW 8751   9.336   5.432   3.846
 2285SOL    HW1 8752   9.415   5.405   3.893
 2285SOL    HW2 8753   9.305   5.509   3.894
 2286SOL     OW 8754   5.350   5.675   3.412
 2286SOL    HW1 8755   5.275   5.720   3.450
 2286SOL    HW2 8756   5.365   5.600   3.470
 2287SOL     OW 8757   7.650  12.200  13.546
 2287SOL    HW1 8758   7.630  12.249  13.625
 2287SOL    HW2 8759   7.570  12.151  13.527
 2288SOL     OW 8760   2.206  13.774   8.281
 2288SOL    HW1 8761   2.134  13.827   8.248
 2288SOL    HW2 8762   2.285  13.818   8.251
 2289SOL     OW 8763   2.471  10.552   2.207
 2289SOL    HW1 8764   2.519  10.599   2.140
 2289SOL    HW2 8765   2.440  10.620   2.267
 2290SOL     OW 8766  14.821   1.728   9.784
 2290SOL    HW1 8767  14.867   1.721   9.868
 2290SOL    HW2 8768  14.827   1.821   9.762
 2291SOL     OW 8769  13.522   6.586   1.273
 2291SOL    HW1 8770  13.486   6.609   1.359
 2291SOL    HW2 8771  13.465   6.631   1.210
 2292SOL     OW 8772   4.255  10.359   9.056
 2292SOL    HW1 8773   4.320  10.290   9.062
 2292SOL    HW2 8774   4.305  10.441   9.058
 2293SOL     OW 8775  13.142   7.616   4.747
 2293SOL    HW1 8776  13.072   7.553   4.764
 2293SOL    HW2 8777  13.208   7.567   4.698
 2294SOL     OW 8778   7.553   6.062  12.927
 2294SOL    HW1 8779   7.578   6.015  13.007
 2294SOL    HW2 8780   7.459   6.046  12.919
 2295SOL     OW 8781   5.242  13.729  11.353
 2295SOL    HW1 8782   5.227  13.647  11.399
 2295SOL    HW2 8783   5.156  13.753  11.318
 2296SOL     OW 8784   7.218  12.794  12.385
 2296SOL    HW1 8785   7.234  12.887  12.401
 2296SOL    HW2 8786   7.239  12.751  12.469
 2297SOL     OW 8787   5.124   2.012  10.284
 2297SOL    HW1 8788   5.106   1.969  10.367
 2297SOL    HW2 8789   5.145   2.102  10.308
 2298SOL     OW 8790   5.618  11.565  10.204
 2298SOL    HW1 8791   5.678  11.557  10.277
 2298SOL    HW2 8792   5.655  11.635  10.149
 2299SOL     OW 8793   4.083   5.496  10.591
 2299SOL    HW1 8794   4.107   5.584  10.563
 2299SOL    HW2 8795   4.003   5.507  10.641
 2300SOL     OW 8796   6.888   9.265   5.659
 2300SOL    HW1 8797   6.795   9.242   5.655
 2300SOL    HW2 8798   6.931   9.198   5.605
 2301SOL     OW 8799   5.981  13.578   4.514
 2301SOL    HW1 8800   5.927  13.509   4.474
 2301SOL    HW2 8801   6.029  13.617   4.441
 2302SOL     OW 8802   4.328   6.839   9.852
 2302SOL    HW1 8803   4.289   6.919   9.816
 2302SOL    HW2 8804   4.409   6.870   9.894
 2303SOL     OW 8805  11.759   5.256   6.450
 2303SOL    HW1 8806  11.676   5.238   6.494
 2303SOL    HW2 8807  11.735   5.315   6.378
 2304SOL     OW 8808   2.811  14.668   1.681
 2304SOL    HW1 8809   2.737  14.710   1.725
 2304SOL    HW2 8810   2.777  14.584   1.651
 2305SOL     OW 8811   9.902   0.917   1.371
 2305SOL    HW1 8812   9.827   0.966   1.404
 2305SOL    HW2 8813   9.864   0.837   1.334
 2306SOL     OW 8814  12.551  14.709   0.905
 2306SOL    HW1 8815  12.486  14.768   0.944
 2306SOL    HW2 8816  12.615  14.768   0.865
 2307SOL     OW 8817  10.043  13.349   5.694
 2307SOL    HW1 8818  10.078  13.398   5.619
 2307SOL    HW2 8819  10.063  13.258   5.674
 2308SOL     OW 8820  12.947   2.115   8.167
 2308SOL    HW1 8821  12.950   2.210   8.174
 2308SOL    HW2 8822  13.025   2.092   8.116
 2309SOL     OW 8823  11.591  13.792   2.015
 2309SOL    HW1 8824  11.531  13.860   2.044
 2309SOL    HW2 8825  11.671  13.808   2.065
 2310SOL     OW 8826   4.664   6.550   2.184
 2310SOL    HW1 8827   4.713   6.540   2.103
 2310SOL    HW2 8828   4.682   6.640   2.212
 2311SOL     OW 8829   1.164   9.329   1.432
 2311SOL    HW1 8830   1.080   9.313   1.388
 2311SOL    HW2 8831   1.206   9.397   1.379
 2312SOL     OW 8832  11.656   9.475  11.131
 2312SOL    HW1 8833  11.730   9.467  11.070
 2312SOL    HW2 8834  11.670   9.407  11.196
 2313SOL     OW 8835   1.664   2.703   8.128
 2313SOL    HW1 8836   1.733   2.723   8.064
 2313SOL    HW2 8837   1.705   2.641   8.188
 2314SOL     OW 8838   6.753   7.552   2.862
 2314SOL    HW1 8839   6.773   7.618   2.796
 2314SOL    HW2 8840   6.658   7.557   2.873
 2315SOL     OW 8841   2.799   7.593  11.823
 2315SOL    HW1 8842   2.710   7.616  11.847
 2315SOL    HW2 8843   2.845   7.677  11.817
 2316SOL     OW 8844   3.084  14.708   1.958
 2316SOL    HW1 8845   3.011  14.650   1.981
 2316SOL    HW2 8846   3.120  14.737   2.042
 2317SOL     OW 8847   9.638   7.816  11.183
 2317SOL    HW1 8848   9.564   7.828  11.243
 2317SOL    HW2 8849   9.599   7.786  11.101
 2318SOL     OW 8850   2.009   5.398   4.855
 2318SOL    HW1 8851   1.960   5.323   4.820
 2318SOL    HW2 8852   1.943   5.467   4.862
 2319SOL     OW 8853   1.115  10.764   4.458
 2319SOL    HW1 8854   1.150  10.751   4.546
 2319SOL    HW2 8855   1.178  10.823   4.416
 2320SOL     OW 8856   5.497  10.654   9.833
 2320SOL    HW1 8857   5.521  10.568   9.799
 2320SOL    HW2 8858   5.580  10.697   9.850
 2321SOL     OW 8859   2.223  13.294   4.528
 2321SOL    HW1 8860   2.184  13.337   4.452
 2321SOL    HW2 8861   2.284  13.230   4.491
 2322SOL     OW 8862  11.860   7.886  13.994
 2322SOL    HW1 8863  11.922   7.816  14.011
 2322SOL    HW2 8864  11.877   7.912  13.904
 2323SOL     OW 8865   4.609   1.929   0.511
 2323SOL    HW1 8866   4.571   1.849   0.476
 2323SOL    HW2 8867   4.545   1.997   0.490
 2324SOL     OW 8868   7.154  10.289   2.984
 2324SOL    HW1 8869   7.186  10.284   2.894
 2324SOL    HW2 8870   7.163  10.382   3.007
 2325SOL     OW 8871   4.021   0.807   8.140
 2325SOL    HW1 8872   4.039   0.718   8.109
 2325SOL    HW2 8873   3.934   0.827   8.106
 2326SOL     OW 8874   9.711   2.077   6.819
 2326SOL    HW1 8875   9.805   2.079   6.800
 2326SOL    HW2 8876   9.694   2.159   6.865
 2327SOL     OW 8877  14.367   8.747   1.491
 2327SOL    HW1 8878  14.305   8.674   1.500
 2327SOL    HW2 8879  14.403   8.759   1.579
 2328SOL     OW 8880   9.892   5.099  11.894
 2328SOL    HW1 8881   9.818   5.047  11.864
 2328SOL    HW2 8882   9.879   5.106  11.989
 2329SOL     OW 8883  10.892   0.464   5.278
 2329SOL    HW1 8884  10.847   0.411   5.344
 2329SOL    HW2 8885  10.943   0.527   5.329
 2330SOL     OW 8886   3.262   6.031   4.351
 2330SOL    HW1 8887   3.166   6.032   4.354
 2330SOL    HW2 8888   3.289   6.057   4.439
 2331SOL     OW 8889   4.860   9.856   2.338
 2331SOL    HW1 8890   4.781   9.865   2.391
 2331SOL    HW2 8891   4.880   9.763   2.340
 2332SOL     OW 8892   3.491   6.825   8.613
 2332SOL    HW1 8893   3.508   6.825   8.519
 2332SOL    HW2 8894   3.532   6.904   8.645
 2333SOL     OW 8895  11.138  12.274  12.117
 2333SOL    HW1 8896  11.105  12.320  12.040
 2333SOL    HW2 8897  11.188  12.200  12.082
 2334SOL     OW 8898   6.895   3.178   9.309
 2334SOL    HW1 8899   6.899   3.188   9.214
 2334SOL    HW2 8900   6.909   3.266   9.343
 2335SOL     OW 8901   1.490   6.676   7.829
 2335SOL    HW1 8902   1.489   6.764   7.866
 2335SOL    HW2 8903   1.503   6.689   7.735
 2336SOL     OW 8904  10.341   4.328   2.685
 2336SOL    HW1 8905  10.356   4.340   2.779
 2336SOL    HW2 8906  10.271   4.263   2.680
 2337SOL     OW 8907   6.918   6.321   1.839
 2337SOL    HW1 8908   6.942   6.363   1.922
 2337SOL    HW2 8909   7.000   6.285   1.806
 2338SOL     OW 8910  10.723  13.875   0.048
 2338SOL    HW1 8911  10.676  13.796   0.075
 2338SOL    HW2 8912  10.815  13.857   0.066
 2339SOL     OW 8913   4.884  10.391  11.759
 2339SOL    HW1 8914   4.916  10.303  11.778
 2339SOL    HW2 8915   4.804  10.399  11.811
 2340SOL     OW 8916  12.183   9.920   1.884
 2340SOL    HW1 8917  12.125   9.848   1.910
 2340SOL    HW2 8918  12.183   9.916   1.788
 2341SOL     OW 8919  13.521   9.915  12.018
 2341SOL    HW1 8920  13.577   9.982  11.978
 2341SOL    HW2 8921  13.553   9.908  12.108
 2342SOL     OW 8922   7.070   3.827   2.740
 2342SOL    HW1 8923   7.104   3.742   2.712
 2342SOL    HW2 8924   7.068   3.822   2.835
 2343SOL     OW 8925   5.276  14.506   4.190
 2343SOL    HW1 8926   5.208  14.564   4.156
 2343SOL    HW2 8927   5.287  14.440   4.122
 2344SOL     OW 8928   3.148   5.689   8.266
 2344SOL    HW1 8929   3.138   5.779   8.299
 2344SOL    HW2 8930   3.067   5.645   8.292
 2345SOL     OW 8931   0.732  10.888   7.098
 2345SOL    HW1 8932   0.730  10.963   7.039
 2345SOL    HW2 8933   0.642  10.879   7.128
 2346SOL     OW 8934   0.699   5.345  10.580
 2346SOL    HW1 8935   0.636   5.414  10.558
 2346SOL    HW2 8936   0.780   5.371  10.536
 2347SOL     OW 8937   2.849  12.523   5.406
 2347SOL    HW1 8938   2.823  12.607   5.367
 2347SOL    HW2 8939   2.933  12.541   5.447
 2348SOL     OW 8940   1.880   1.684   5.170
 2348SOL    HW1 8941   1.832   1.665   5.251
 2348SOL    HW2 8942   1.869   1.605   5.117
 2349SOL     OW 8943   3.037  13.147   4.560
 2349SOL    HW1 8944   3.125  13.163   4.526
 2349SOL    HW2 8945   3.051  13.095   4.639
 2350SOL     OW 8946  14.176  11.625  14.202
 2350SOL    HW1 8947  14.086  11.594  14.209
 2350SOL    HW2 8948  14.202  11.646  14.292
 2351SOL     OW 8949   8.035  12.443  11.785
 2351SOL    HW1 8950   8.057  12.523  11.737
 2351SOL    HW2 8951   7.962  12.405  11.735
 2352SOL     OW 8952  13.578   1.205  10.583
 2352SOL    HW1 8953  13.598   1.128  10.637
 2352SOL    HW2 8954  13.483   1.211  10.584
 2353SOL     OW 8955  12.300   8.687   8.501
 2353SOL    HW1 8956  12.249   8.670   8.421
 2353SOL    HW2 8957  12.235   8.692   8.570
 2354SOL     OW 8958  11.896   6.821   3.355
 2354SOL    HW1 8959  11.927   6.873   3.429
 2354SOL    HW2 8960  11.976   6.786   3.315
 2355SOL     OW 8961  13.013   8.951   7.080
 2355SOL    HW1 8962  13.016   9.040   7.046
 2355SOL    HW2 8963  13.007   8.962   7.175
 2356SOL     OW 8964  10.801   2.024   1.405
 2356SOL    HW1 8965  10.866   1.956   1.387
 2356SOL    HW2 8966  10.838   2.103   1.366
 2357SOL     OW 8967  14.160   4.314  14.342
 2357SOL    HW1 8968  14.068   4.293  14.354
 2357SOL    HW2 8969  14.191   4.251  14.276
 2358SOL     OW 8970  12.400   3.283   5.383
 2358SOL    HW1 8971  12.312   3.294   5.417
 2358SOL    HW2 8972  12.440   3.217   5.440
 2359SOL     OW 8973   6.720   3.872  10.394
 2359SOL    HW1 8974   6.767   3.835  10.469
 2359SOL    HW2 8975   6.688   3.956  10.425
 2360SOL     OW 8976   0.625   9.410   8.035
 2360SOL    HW1 8977   0.673   9.460   7.969
 2360SOL    HW2 8978   0.584   9.339   7.987
 2361SOL     OW 8979   2.899  14.003  12.510
 2361SOL    HW1 8980   2.853  13.950  12.446
 2361SOL    HW2 8981   2.829  14.049  12.558
 2362SOL     OW 8982   0.007  12.064  12.469
 2362SOL    HW1 8983   0.027  12.104  12.385
 2362SOL    HW2 8984  14.828  12.127  12.512
 2363SOL     OW 8985   7.384   0.198   5.274
 2363SOL    HW1 8986   7.382   0.292   5.259
 2363SOL    HW2 8987   7.339   0.186   5.358
 2364SOL     OW 8988   6.193   7.741   4.102
 2364SOL    HW1 8989   6.183   7.656   4.059
 2364SOL    HW2 8990   6.261   7.786   4.052
 2365SOL     OW 8991   4.669   2.236  11.888
 2365SOL    HW1 8992   4.667   2.282  11.972
 2365SOL    HW2 8993   4.582   2.250  11.851
 2366SOL     OW 8994   2.442   6.097   0.868
 2366SOL    HW1 8995   2.455   6.057   0.782
 2366SOL    HW2 8996   2.409   6.026   0.923
 2367SOL     OW 8997   4.649  13.200  13.700
 2367SOL    HW1 8998   4.647  13.285  13.745
 2367SOL    HW2 8999   4.600  13.141  13.758
 2368SOL     OW 9000   0.641   2.266   3.551
 2368SOL    HW1 9001   0.597   2.350   3.537
 2368SOL    HW2 9002   0.670   2.239   3.464
 2369SOL     OW 9003  13.818   0.281   5.328
 2369SOL    HW1 9004  13.823   0.358   5.271
 2369SOL    HW2 9005  13.832   0.315   5.416
 2370SOL     OW 9006  13.331  11.070   8.310
 2370SOL    HW1 9007  13.305  10.979   8.321
 2370SOL    HW2 9008  13.251  11.120   8.330
 2371SOL     OW 9009   0.574   5.639  10.806
 2371SOL    HW1 9010   0.660   5.679  10.791
 2371SOL    HW2 9011   0.545   5.675  10.890
 2372SOL     OW 9012   6.214   8.137  14.697
 2372SOL    HW1 9013   6.254   8.130  14.610
 2372SOL    HW2 9014   6.287   8.155  14.756
 2373SOL     OW 9015  12.893   4.291   0.585
 2373SOL    HW1 9016  12.888   4.229   0.512
 2373SOL    HW2 9017  12.804   4.327   0.592
 2374SOL     OW 9018  11.683   8.395   8.600
 2374SOL    HW1 9019  11.638   8.328   8.549
 2374SOL    HW2 9020  11.613   8.445   8.641
 2375SOL     OW 9021   3.305   9.518   1.683
 2375SOL    HW1 9022   3.325   9.442   1.628
 2375SOL    HW2 9023   3.356   9.503   1.763
 2376SOL     OW 9024  12.203  12.721   8.456
 2376SOL    HW1 9025  12.160  12.792   8.505
 2376SOL    HW2 9026  12.221  12.654   8.522
 2377SOL     OW 9027  12.223   2.499   6.530
 2377SOL    HW1 9028  12.178   2.425   6.572
 2377SOL    HW2 9029  12.229   2.474   6.438
 2378SOL     OW 9030   7.681   7.980   2.300
 2378SOL    HW1 9031   7.645   7.968   2.388
 2378SOL    HW2 9032   7.661   7.898   2.254
 2379SOL     OW 9033   7.143  10.998   0.934
 2379SOL    HW1 9034   7.187  11.063   0.880
 2379SOL    HW2 9035   7.093  11.049   0.998
 2380SOL     OW 9036   4.643   9.912  14.077
 2380SOL    HW1 9037   4.672   9.827  14.042
 2380SOL    HW2 9038   4.645   9.970  14.001
 2381SOL     OW 9039  11.862   4.121   1.517
 2381SOL    HW1 9040  11.880   4.038   1.561
 2381SOL    HW2 9041  11.936   4.133   1.457
 2382SOL     OW 9042  12.205  12.963  10.833
 2382SOL    HW1 9043  12.273  12.897  10.847
 2382SOL    HW2 9044  12.212  13.021  10.909
 2383SOL     OW 9045   7.267   7.814   1.954
 2383SOL    HW1 9046   7.243   7.761   1.878
 2383SOL    HW2 9047   7.351   7.854   1.929
 2384SOL     OW 9048   7.384  10.515  14.217
 2384SOL    HW1 9049   7.426  10.490  14.299
 2384SOL    HW2 9050   7.425  10.598  14.194
 2385SOL     OW 9051  12.040  13.136   1.105
 2385SOL    HW1 9052  12.023  13.163   1.014
 2385SOL    HW2 9053  11.973  13.070   1.123
 2386SOL     OW 9054   1.838   8.600   3.092
 2386SOL    HW1 9055   1.827   8.694   3.082
 2386SOL    HW2 9056   1.767   8.562   3.040
 2387SOL     OW 9057   4.124  10.650   5.098
 2387SOL    HW1 9058   4.066  10.574   5.095
 2387SOL    HW2 9059   4.137  10.666   5.191
 2388SOL     OW 9060   0.490   8.762   9.994
 2388SOL    HW1 9061   0.561   8.698  10.004
 2388SOL    HW2 9062   0.453   8.742   9.908
 2389SOL     OW 9063   3.792   7.934  12.575
 2389SOL    HW1 9064   3.739   7.988  12.516
 2389SOL    HW2 9065   3.882   7.948  12.545
 2390SOL     OW 9066  12.049   8.106   4.341
 2390SOL    HW1 9067  11.981   8.145   4.397
 2390SOL    HW2 9068  12.086   8.036   4.395
 2391SOL     OW 9069   6.670   5.531   7.744
 2391SOL    HW1 9070   6.751   5.580   7.756
 2391SOL    HW2 9071   6.668   5.469   7.816
 2392SOL     OW 9072   7.245   9.726   1.713
 2392SOL    HW1 9073   7.184   9.782   1.760
 2392SOL    HW2 9074   7.331   9.749   1.748
 2393SOL     OW 9075  10.854  14.544  14.790
 2393SOL    HW1 9076  10.885  14.547  14.699
 2393SOL    HW2 9077  10.759  14.551  14.783
 2394SOL     OW 9078  13.536   0.881   9.494
 2394SOL    HW1 9079  13.534   0.857   9.587
 2394SOL    HW2 9080  13.608   0.943   9.487
 2395SOL     OW 9081  12.801  12.848  12.449
 2395SOL    HW1 9082  12.787  12.937  12.481
 2395SOL    HW2 9083  12.745  12.793  12.504
 2396SOL     OW 9084   4.318   1.460   7.606
 2396SOL    HW1 9085   4.327   1.368   7.631
 2396SOL    HW2 9086   4.406   1.486   7.578
 2397SOL     OW 9087   9.327  11.407  13.040
 2397SOL    HW1 9088   9.272  11.407  13.118
 2397SOL    HW2 9089   9.288  11.474  12.983
 2398SOL     OW 9090   3.233   5.788   9.988
 2398SOL    HW1 9091   3.180   5.778   9.909
 2398SOL    HW2 9092   3.299   5.854   9.964
 2399SOL     OW 9093   3.340   4.737   5.802
 2399SOL    HW1 9094   3.401   4.798   5.760
 2399SOL    HW2 9095   3.254   4.762   5.769
 2400SOL     OW 9096   1.412  10.709   0.555
 2400SOL    HW1 9097   1.405  10.662   0.472
 2400SOL    HW2 9098   1.483  10.772   0.541
 2401SOL     OW 9099   5.543   3.259  11.500
 2401SOL    HW1 9100   5.577   3.339  11.459
 2401SOL    HW2 9101   5.508   3.208  11.427
 2402SOL     OW 9102   1.554  14.526   0.639
 2402SOL    HW1 9103   1.574  14.489   0.725
 2402SOL    HW2 9104   1.639  14.533   0.595
 2403SOL     OW 9105  12.963   1.488  13.796
 2403SOL    HW1 9106  13.040   1.510  13.743
 2403SOL    HW2 9107  12.889   1.518  13.744
 2404SOL     OW 9108  14.391   9.127   0.304
 2404SOL    HW1 9109  14.439   9.207   0.326
 2404SOL    HW2 9110  14.384   9.079   0.387
 2405SOL     OW 9111   6.522  11.092  10.235
 2405SOL    HW1 9112   6.516  11.095  10.139
 2405SOL    HW2 9113   6.434  11.114  10.265
 2406SOL     OW 9114   2.287   9.967   2.569
 2406SOL    HW1 9115   2.201   9.960   2.528
 2406SOL    HW2 9116   2.285   9.905   2.642
 2407SOL     OW 9117  13.357  12.271  13.583
 2407SOL    HW1 9118  13.295  12.318  13.639
 2407SOL    HW2 9119  13.439  12.271  13.632
 2408SOL     OW 9120   8.288  13.276  10.090
 2408SOL    HW1 9121   8.249  13.356  10.126
 2408SOL    HW2 9122   8.213  13.225  10.059
 2409SOL     OW 9123  10.603  14.844   9.922
 2409SOL    HW1 9124  10.600   0.046   9.871
 2409SOL    HW2 9125  10.637  14.779   9.861
 2410SOL     OW 9126  11.112   4.202   9.109
 2410SOL    HW1 9127  11.094   4.245   9.025
 2410SOL    HW2 9128  11.158   4.268   9.160
 2411SOL     OW 9129   2.325  12.765   0.562
 2411SOL    HW1 9130   2.382  12.710   0.615
 2411SOL    HW2 9131   2.379  12.840   0.537
 2412SOL     OW 9132   1.677  12.137  11.638
 2412SOL    HW1 9133   1.744  12.103  11.697
 2412SOL    HW2 9134   1.599  12.145  11.693
 2413SOL     OW 9135   3.296  14.521   4.785
 2413SOL    HW1 9136   3.354  14.498   4.857
 2413SOL    HW2 9137   3.267  14.610   4.805
 2414SOL     OW 9138  11.566  10.241   2.395
 2414SOL    HW1 9139  11.566  10.164   2.452
 2414SOL    HW2 9140  11.636  10.296   2.430
 2415SOL     OW 9141  11.633   1.298   6.622
 2415SOL    HW1 9142  11.576   1.343   6.560
 2415SOL    HW2 9143  11.616   1.339   6.706
 2416SOL     OW 9144   9.636   4.141  14.740
 2416SOL    HW1 9145   9.571   4.147  14.670
 2416SOL    HW2 9146   9.606   4.069  14.795
 2417SOL     OW 9147   9.633  10.025   2.223
 2417SOL    HW1 9148   9.649   9.963   2.152
 2417SOL    HW2 9149   9.603  10.104   2.179
 2418SOL     OW 9150   0.176   0.991   7.964
 2418SOL    HW1 9151   0.267   0.974   7.988
 2418SOL    HW2 9152   0.173   1.085   7.948
 2419SOL     OW 9153   1.577  10.847   8.581
 2419SOL    HW1 9154   1.568  10.785   8.509
 2419SOL    HW2 9155   1.651  10.815   8.632
 2420SOL     OW 9156  12.436   4.442  11.787
 2420SOL    HW1 9157  12.359   4.409  11.740
 2420SOL    HW2 9158  12.486   4.489  11.721
 2421SOL     OW 9159  13.916   1.411   5.980
 2421SOL    HW1 9160  13.823   1.398   5.961
 2421SOL    HW2 9161  13.955   1.430   5.895
 2422SOL     OW 9162   3.582  10.978   1.235
 2422SOL    HW1 9163   3.591  11.048   1.171
 2422SOL    HW2 9164   3.660  10.986   1.291
 2423SOL     OW 9165  14.029  10.515  12.011
 2423SOL    HW1 9166  14.061  10.457  11.942
 2423SOL    HW2 9167  14.076  10.489  12.090
 2424SOL     OW 9168   8.410  10.685  10.387
 2424SOL    HW1 9169   8.336  10.650  10.437
 2424SOL    HW2 9170   8.433  10.767  10.432
 2425SOL     OW 9171  14.094   6.371   8.627
 2425SOL    HW1 9172  14.109   6.405   8.539
 2425SOL    HW2 9173  14.069   6.449   8.678
 2426SOL     OW 9174   6.246  12.301  13.626
 2426SOL    HW1 9175   6.185  12.228  13.630
 2426SOL    HW2 9176   6.192  12.377  13.605
 2427SOL     OW 9177  13.636  10.939   2.144
 2427SOL    HW1 9178  13.602  10.925   2.232
 2427SOL    HW2 9179  13.616  11.031   2.125
 2428SOL     OW 9180   9.269  14.131   5.917
 2428SOL    HW1 9181   9.293  14.137   6.010
 2428SOL    HW2 9182   9.342  14.172   5.871
 2429SOL     OW 9183   9.803   9.661  13.509
 2429SOL    HW1 9184   9.859   9.617  13.445
 2429SOL    HW2 9185   9.852   9.657  13.591
 2430SOL     OW 9186   4.175   2.728   1.464
 2430SOL    HW1 9187   4.171   2.786   1.388
 2430SOL    HW2 9188   4.250   2.671   1.446
 2431SOL     OW 9189  13.056  13.594   4.527
 2431SOL    HW1 9190  13.098  13.581   4.442
 2431SOL    HW2 9191  13.105  13.537   4.586
 2432SOL     OW 9192   7.217   0.640   2.957
 2432SOL    HW1 9193   7.255   0.654   3.044
 2432SOL    HW2 9194   7.232   0.723   2.911
 2433SOL     OW 9195   7.605   7.543   0.056
 2433SOL    HW1 9196   7.626   7.633   0.078
 2433SOL    HW2 9197   7.510   7.543   0.041
 2434SOL     OW 9198   5.568  10.389   0.443
 2434SOL    HW1 9199   5.610  10.393   0.357
 2434SOL    HW2 9200   5.505  10.317   0.436
 2435SOL     OW 9201  12.134  13.264   1.925
 2435SOL    HW1 9202  12.187  13.190   1.955
 2435SOL    HW2 9203  12.044  13.231   1.926
 2436SOL     OW 9204   5.388   2.657   4.796
 2436SOL    HW1 9205   5.437   2.669   4.715
 2436SOL    HW2 9206   5.316   2.599   4.771
 2437SOL     OW 9207  14.599  14.117   6.427
 2437SOL    HW1 9208  14.546  14.047   6.465
 2437SOL    HW2 9209  14.601  14.099   6.333
 2438SOL     OW 9210   7.800   6.383   3.141
 2438SOL    HW1 9211   7.885   6.426   3.152
 2438SOL    HW2 9212   7.773   6.404   3.052
 2439SOL     OW 9213   7.313   1.164   4.031
 2439SOL    HW1 9214   7.394   1.212   4.049
 2439SOL    HW2 9215   7.327   1.077   4.067
 2440SOL     OW 9216   0.475   6.554  14.265
 2440SOL    HW1 9217   0.504   6.642  14.290
 2440SOL    HW2 9218   0.555   6.502  14.267
 2441SOL     OW 9219  12.172   0.180   8.413
 2441SOL    HW1 9220  12.190   0.274   8.406
 2441SOL    HW2 9221  12.258   0.138   8.408
 2442SOL     OW 9222   0.056   8.466   4.727
 2442SOL    HW1 9223  14.870   8.401   4.703
 2442SOL    HW2 9224   0.075   8.511   4.645
 2443SOL     OW 9225  13.118  11.669  14.812
 2443SOL    HW1 9226  13.166  11.739  14.856
 2443SOL    HW2 9227  13.126  11.593  14.870
 2444SOL     OW 9228  11.390   2.913  12.818
 2444SOL    HW1 9229  11.442   2.856  12.762
 2444SOL    HW2 9230  11.302   2.910  12.780
 2445SOL     OW 9231  11.460  12.891  12.606
 2445SOL    HW1 9232  11.491  12.876  12.516
 2445SOL    HW2 9233  11.394  12.960  12.598
 2446SOL     OW 9234  10.839   5.796   3.777
 2446SOL    HW1 9235  10.809   5.850   3.703
 2446SOL    HW2 9236  10.772   5.728   3.785
 2447SOL     OW 9237   8.916  10.670   4.741
 2447SOL    HW1 9238   8.883  10.642   4.656
 2447SOL    HW2 9239   8.944  10.589   4.784
 2448SOL     OW 9240   9.889   9.270   4.117
 2448SOL    HW1 9241   9.800   9.287   4.086
 2448SOL    HW2 9242   9.876   9.234   4.205
 2449SOL     OW 9243   9.081   5.300   9.482
 2449SOL    HW1 9244   9.116   5.212   9.487
 2449SOL    HW2 9245   9.144   5.348   9.429
 2450SOL     OW 9246   3.687   3.352   0.725
 2450SOL    HW1 9247   3.732   3.435   0.718
 2450SOL    HW2 9248   3.757   3.287   0.734
 2451SOL     OW 9249  11.190   3.968   1.325
 2451SOL    HW1 9250  11.103   3.948   1.289
 2451SOL    HW2 9251  11.243   3.891   1.305
 2452SOL     OW 9252   8.811   9.496   6.010
 2452SOL    HW1 9253   8.834   9.501   6.102
 2452SOL    HW2 9254   8.747   9.425   6.005
 2453SOL     OW 9255   0.810  12.198   2.386
 2453SOL    HW1 9256   0.904  12.200   2.403
 2453SOL    HW2 9257   0.775  12.272   2.436
 2454SOL     OW 9258  14.138   6.230   5.081
 2454SOL    HW1 9259  14.172   6.206   5.167
 2454SOL    HW2 9260  14.111   6.321   5.090
 2455SOL     OW 9261   8.036  10.121   4.700
 2455SOL    HW1 9262   8.081  10.109   4.617
 2455SOL    HW2 9263   7.976  10.047   4.706
 2456SOL     OW 9264   5.666   5.427   9.241
 2456SOL    HW1 9265   5.649   5.512   9.280
 2456SOL    HW2 9266   5.594   5.372   9.272
 2457SOL     OW 9267  14.498   2.377   1.161
 2457SOL    HW1 9268  14.573   2.367   1.102
 2457SOL    HW2 9269  14.477   2.288   1.190
 2458SOL     OW 9270  11.110   8.997   2.681
 2458SOL    HW1 9271  11.182   8.954   2.634
 2458SOL    HW2 9272  11.090   8.937   2.753
 2459SOL     OW 9273  11.596  14.200   5.123
 2459SOL    HW1 9274  11.539  14.125   5.106
 2459SOL    HW2 9275  11.601  14.205   5.218
 2460SOL     OW 9276   6.146  14.857  12.112
 2460SOL    HW1 9277   6.124  14.806  12.190
 2460SOL    HW2 9278   6.242  14.855  12.109
 2461SOL     OW 9279  11.192  11.113   3.145
 2461SOL    HW1 9280  11.234  11.047   3.089
 2461SOL    HW2 9281  11.241  11.110   3.227
 2462SOL     OW 9282   2.470   8.051   8.836
 2462SOL    HW1 9283   2.474   8.011   8.750
 2462SOL    HW2 9284   2.450   7.979   8.896
 2463SOL     OW 9285   7.657   8.765   7.281
 2463SOL    HW1 9286   7.724   8.697   7.279
 2463SOL    HW2 9287   7.699   8.841   7.239
 2464SOL     OW 9288  10.384   1.300  14.859
 2464SOL    HW1 9289  10.437   1.230  14.821
 2464SOL    HW2 9290  10.406   1.299   0.072
 2465SOL     OW 9291   2.634  12.967   7.258
 2465SOL    HW1 9292   2.540  12.947   7.258
 2465SOL    HW2 9293   2.648  13.016   7.178
 2466SOL     OW 9294  12.880   5.534  14.483
 2466SOL    HW1 9295  12.821   5.502  14.414
 2466SOL    HW2 9296  12.904   5.456  14.532
 2467SOL     OW 9297   6.105   2.404   8.741
 2467SOL    HW1 9298   6.011   2.394   8.729
 2467SOL    HW2 9299   6.139   2.420   8.653
 2468SOL     OW 9300   2.875   5.113  10.914
 2468SOL    HW1 9301   2.851   5.037  10.967
 2468SOL    HW2 9302   2.817   5.108  10.838
 2469SOL     OW 9303  12.732   1.884  10.973
 2469SOL    HW1 9304  12.815   1.843  10.952
 2469SOL    HW2 9305  12.719   1.868  11.066
 2470SOL     OW 9306  13.289   6.696   5.532
 2470SOL    HW1 9307  13.325   6.665   5.449
 2470SOL    HW2 9308  13.355   6.673   5.598
 2471SOL     OW 9309  13.753  10.496   5.745
 2471SOL    HW1 9310  13.834  10.445   5.749
 2471SOL    HW2 9311  13.752  10.545   5.828
 2472SOL     OW 9312   1.392  11.713   6.317
 2472SOL    HW1 9313   1.368  11.765   6.394
 2472SOL    HW2 9314   1.446  11.771   6.264
 2473SOL     OW 9315   1.828  11.758  11.978
 2473SOL    HW1 9316   1.738  11.784  11.997
 2473SOL    HW2 9317   1.882  11.823  12.022
 2474SOL     OW 9318   9.406  14.217   4.174
 2474SOL    HW1 9319   9.495  14.180   4.171
 2474SOL    HW2 9320   9.353  14.154   4.125
 2475SOL     OW 9321  13.735  13.342  10.880
 2475SOL    HW1 9322  13.707  13.306  10.964
 2475SOL    HW2 9323  13.664  13.401  10.854
 2476SOL     OW 9324   1.683   0.237   2.489
 2476SOL    HW1 9325   1.653   0.151   2.460
 2476SOL    HW2 9326   1.679   0.292   2.411
 2477SOL     OW 9327   5.016   5.849   1.253
 2477SOL    HW1 9328   5.069   5.829   1.176
 2477SOL    HW2 9329   5.021   5.771   1.308
 2478SOL     OW 9330   2.047   9.776   2.189
 2478SOL    HW1 9331   2.031   9.683   2.172
 2478SOL    HW2 9332   2.140   9.781   2.208
 2479SOL     OW 9333  12.669  14.856  11.710
 2479SOL    HW1 9334  12.639  14.813  11.629
 2479SOL    HW2 9335  12.650  14.792  11.779
 2480SOL     OW 9336  10.481  14.466   0.394
 2480SOL    HW1 9337  10.431  14.437   0.317
 2480SOL    HW2 9338  10.417  14.470   0.464
 2481SOL     OW 9339   2.645   1.845   2.706
 2481SOL    HW1 9340   2.568   1.848   2.764
 2481SOL    HW2 9341   2.689   1.763   2.729
 2482SOL     OW 9342  13.408  13.633  12.556
 2482SOL    HW1 9343  13.487  13.642  12.502
 2482SOL    HW2 9344  13.392  13.538  12.558
 2483SOL     OW 9345  12.248   0.213   6.058
 2483SOL    HW1 9346  12.286   0.280   6.002
 2483SOL    HW2 9347  12.305   0.211   6.135
 2484SOL     OW 9348   3.928   7.958   8.958
 2484SOL    HW1 9349   3.888   8.026   9.013
 2484SOL    HW2 9350   3.908   7.984   8.868
 2485SOL     OW 9351  10.917   5.852   5.974
 2485SOL    HW1 9352  10.859   5.777   5.980
 2485SOL    HW2 9353  10.980   5.829   5.905
 2486SOL     OW 9354   0.712   2.759  14.604
 2486SOL    HW1 9355   0.690   2.842  14.646
 2486SOL    HW2 9356   0.806   2.765  14.587
 2487SOL     OW 9357  13.951   4.742   0.328
 2487SOL    HW1 9358  13.984   4.831   0.314
 2487SOL    HW2 9359  14.023   4.697   0.373
 2488SOL     OW 9360   0.747   1.704   2.083
 2488SOL    HW1 9361   0.663   1.749   2.082
 2488SOL    HW2 9362   0.764   1.688   2.176
 2489SOL     OW 9363  14.022   6.476   0.813
 2489SOL    HW1 9364  14.070   6.445   0.736
 2489SOL    HW2 9365  13.931   6.450   0.797
 2490SOL     OW 9366  10.351   4.750   8.865
 2490SOL    HW1 9367  10.397   4.831   8.843
 2490SOL    HW2 9368  10.305   4.771   8.946
 2491SOL     OW 9369   8.734  12.634  10.125
 2491SOL    HW1 9370   8.740  12.583  10.044
 2491SOL    HW2 9371   8.824  12.635  10.159
 2492SOL     OW 9372  10.993  11.094   7.831
 2492SOL    HW1 9373  10.916  11.065   7.879
 2492SOL    HW2 9374  11.064  11.090   7.895
 2493SOL     OW 9375   1.472   5.069  10.858
 2493SOL    HW1 9376   1.466   5.093  10.950
 2493SOL    HW2 9377   1.484   4.974  10.858
 2494SOL     OW 9378   5.468  11.338   6.239
 2494SOL    HW1 9379   5.386  11.342   6.289
 2494SOL    HW2 9380   5.465  11.253   6.195
 2495SOL     OW 9381   1.819   7.416   3.898
 2495SOL    HW1 9382   1.835   7.341   3.956
 2495SOL    HW2 9383   1.896   7.471   3.909
 2496SOL     OW 9384   3.645   1.476   8.205
 2496SOL    HW1 9385   3.629   1.509   8.117
 2496SOL    HW2 9386   3.612   1.545   8.263
 2497SOL     OW 9387  14.686   9.095  12.624
 2497SOL    HW1 9388  14.625   9.078  12.552
 2497SOL    HW2 9389  14.773   9.081  12.585
 2498SOL     OW 9390   6.473   7.799   0.119
 2498SOL    HW1 9391   6.447   7.823   0.208
 2498SOL    HW2 9392   6.558   7.757   0.130
 2499SOL     OW 9393  11.700  10.084   7.528
 2499SOL    HW1 9394  11.723  10.129   7.609
 2499SOL    HW2 9395  11.760  10.120   7.462
 2500SOL     OW 9396  14.197   3.674  12.279
 2500SOL    HW1 9397  14.250   3.726  12.218
 2500SOL    HW2 9398  14.221   3.706  12.366
 2501SOL     OW 9399   4.823  13.696   2.244
 2501SOL    HW1 9400   4.882  13.711   2.169
 2501SOL    HW2 9401   4.860  13.620   2.288
 2502SOL     OW 9402   3.719  10.107  14.262
 2502SOL    HW1 9403   3.766  10.036  14.219
 2502SOL    HW2 9404   3.756  10.187  14.224
 2503SOL     OW 9405   7.612  12.902   3.898
 2503SOL    HW1 9406   7.625  12.900   3.803
 2503SOL    HW2 9407   7.605  12.809   3.923
 2504SOL     OW 9408   2.008   2.541  10.819
 2504SOL    HW1 9409   1.944   2.572  10.755
 2504SOL    HW2 9410   1.962   2.472  10.867
 2505SOL     OW 9411   7.716   4.300   0.955
 2505SOL    HW1 9412   7.783   4.327   1.018
 2505SOL    HW2 9413   7.712   4.205   0.965
 2506SOL     OW 9414   3.482   3.835   5.625
 2506SOL    HW1 9415   3.522   3.921   5.636
 2506SOL    HW2 9416   3.555   3.776   5.606
 2507SOL     OW 9417  11.770  13.886   1.737
 2507SOL    HW1 9418  11.740  13.800   1.705
 2507SOL    HW2 9419  11.832  13.865   1.807
 2508SOL     OW 9420   7.242   8.357   5.283
 2508SOL    HW1 9421   7.179   8.306   5.333
 2508SOL    HW2 9422   7.328   8.330   5.318
 2509SOL     OW 9423   5.155   6.476  10.989
 2509SOL    HW1 9424   5.115   6.419  10.923
 2509SOL    HW2 9425   5.114   6.561  10.975
 2510SOL     OW 9426  14.722   1.187  13.643
 2510SOL    HW1 9427  14.721   1.161  13.735
 2510SOL    HW2 9428  14.629   1.198  13.620
 2511SOL     OW 9429   0.994   9.080   0.738
 2511SOL    HW1 9430   1.025   9.114   0.822
 2511SOL    HW2 9431   1.044   9.129   0.672
 2512SOL     OW 9432  10.975   5.766  11.897
 2512SOL    HW1 9433  10.947   5.704  11.831
 2512SOL    HW2 9434  10.960   5.722  11.980
 2513SOL     OW 9435   5.930  10.182  11.965
 2513SOL    HW1 9436   5.903  10.090  11.961
 2513SOL    HW2 9437   6.017  10.180  12.006
 2514SOL     OW 9438   0.654   6.123   8.519
 2514SOL    HW1 9439   0.721   6.107   8.452
 2514SOL    HW2 9440   0.571   6.117   8.471
 2515SOL     OW 9441   1.173   0.027   4.126
 2515SOL    HW1 9442   1.264  14.879   4.129
 2515SOL    HW2 9443   1.173   0.118   4.153
 2516SOL     OW 9444   2.779   9.972   1.441
 2516SOL    HW1 9445   2.739   9.909   1.501
 2516SOL    HW2 9446   2.810  10.042   1.498
 2517SOL     OW 9447  11.096   1.539   2.267
 2517SOL    HW1 9448  11.102   1.485   2.188
 2517SOL    HW2 9449  11.004   1.565   2.271
 2518SOL     OW 9450   1.212   8.202   3.076
 2518SOL    HW1 9451   1.166   8.285   3.066
 2518SOL    HW2 9452   1.220   8.168   2.987
 2519SOL     OW 9453   3.509   9.810   7.521
 2519SOL    HW1 9454   3.530   9.745   7.588
 2519SOL    HW2 9455   3.419   9.838   7.541
 2520SOL     OW 9456  14.876  13.614  13.923
 2520SOL    HW1 9457  14.797  13.582  13.966
 2520SOL    HW2 9458   0.040  13.669  13.988
 2521SOL     OW 9459   6.195   3.229   1.791
 2521SOL    HW1 9460   6.208   3.135   1.802
 2521SOL    HW2 9461   6.238   3.250   1.708
 2522SOL     OW 9462  11.698   2.843  12.043
 2522SOL    HW1 9463  11.698   2.852  12.138
 2522SOL    HW2 9464  11.657   2.758  12.027
 2523SOL     OW 9465  12.739   7.551   8.661
 2523SOL    HW1 9466  12.748   7.638   8.621
 2523SOL    HW2 9467  12.687   7.501   8.597
 2524SOL     OW 9468   6.396   4.439  14.452
 2524SOL    HW1 9469   6.391   4.530  14.482
 2524SOL    HW2 9470   6.435   4.392  14.526
 2525SOL     OW 9471   0.861   1.728   5.564
 2525SOL    HW1 9472   0.893   1.769   5.484
 2525SOL    HW2 9473   0.781   1.776   5.586
 2526SOL     OW 9474  13.109  11.718  13.004
 2526SOL    HW1 9475  13.098  11.813  13.003
 2526SOL    HW2 9476  13.149  11.700  13.089
 2527SOL     OW 9477   6.399   2.203   8.543
 2527SOL    HW1 9478   6.461   2.184   8.473
 2527SOL    HW2 9479   6.440   2.169   8.622
 2528SOL     OW 9480   8.403   8.833   4.092
 2528SOL    HW1 9481   8.486   8.788   4.082
 2528SOL    HW2 9482   8.355   8.783   4.158
 2529SOL     OW 9483   6.310   9.434   8.289
 2529SOL    HW1 9484   6.401   9.435   8.318
 2529SOL    HW2 9485   6.259   9.415   8.368
 2530SOL     OW 9486   1.281   4.221   1.498
 2530SOL    HW1 9487   1.237   4.183   1.574
 2530SOL    HW2 9488   1.229   4.191   1.423
 2531SOL     OW 9489   6.781   5.234   3.791
 2531SOL    HW1 9490   6.746   5.164   3.735
 2531SOL    HW2 9491   6.823   5.294   3.729
 2532SOL     OW 9492  12.246  13.019   3.092
 2532SOL    HW1 9493  12.208  12.947   3.144
 2532SOL    HW2 9494  12.336  13.025   3.123
 2533SOL     OW 9495  12.967   5.820   1.239
 2533SOL    HW1 9496  13.000   5.871   1.313
 2533SOL    HW2 9497  12.976   5.729   1.267
 2534SOL     OW 9498  12.684   0.904  14.037
 2534SOL    HW1 9499  12.701   0.846  13.963
 2534SOL    HW2 9500  12.755   0.968  14.034
 2535SOL     OW 9501   1.452   5.459   1.415
 2535SOL    HW1 9502   1.459   5.545   1.372
 2535SOL    HW2 9503   1.363   5.457   1.451
 2536SOL     OW 9504   3.685  12.361  11.456
 2536SOL    HW1 9505   3.702  12.339  11.365
 2536SOL    HW2 9506   3.599  12.404  11.455
 2537SOL     OW 9507   9.232  13.784   7.230
 2537SOL    HW1 9508   9.263  13.867   7.267
 2537SOL    HW2 9509   9.292  13.765   7.158
 2538SOL     OW 9510   2.385   3.851   5.814
 2538SOL    HW1 9511   2.442   3.779   5.842
 2538SOL    HW2 9512   2.437   3.930   5.830
 2539SOL     OW 9513   4.114   0.748   3.233
 2539SOL    HW1 9514   4.132   0.838   3.208
 2539SOL    HW2 9515   4.047   0.754   3.301
 2540SOL     OW 9516  11.880  10.613  11.677
 2540SOL    HW1 9517  11.948  10.578  11.620
 2540SOL    HW2 9518  11.916  10.604  11.766
 2541SOL     OW 9519   8.790   4.432   3.442
 2541SOL    HW1 9520   8.730   4.410   3.514
 2541SOL    HW2 9521   8.788   4.355   3.385
 2542SOL     OW 9522   1.631   9.470   0.461
 2542SOL    HW1 9523   1.536   9.467   0.465
 2542SOL    HW2 9524   1.659   9.392   0.509
 2543SOL     OW 9525   5.499  11.274  12.605
 2543SOL    HW1 9526   5.475  11.193  12.649
 2543SOL    HW2 9527   5.591  11.288  12.627
 2544SOL     OW 9528   6.305  12.435   9.152
 2544SOL    HW1 9529   6.390  12.473   9.132
 2544SOL    HW2 9530   6.319  12.385   9.232
 2545SOL     OW 9531   7.195   2.964  14.582
 2545SOL    HW1 9532   7.178   2.873  14.560
 2545SOL    HW2 9533   7.138   3.014  14.525
 2546SOL     OW 9534  11.146   7.476  11.384
 2546SOL    HW1 9535  11.118   7.393  11.346
 2546SOL    HW2 9536  11.110   7.543  11.325
 2547SOL     OW 9537  12.484  10.829   5.718
 2547SOL    HW1 9538  12.557  10.814   5.658
 2547SOL    HW2 9539  12.415  10.868   5.664
 2548SOL     OW 9540   2.817  12.492   1.301
 2548SOL    HW1 9541   2.761  12.417   1.320
 2548SOL    HW2 9542   2.900  12.473   1.346
 2549SOL     OW 9543  14.048  13.044   1.410
 2549SOL    HW1 9544  14.039  12.952   1.387
 2549SOL    HW2 9545  13.991  13.055   1.486
 2550SOL     OW 9546   9.398   2.516   2.157
 2550SOL    HW1 9547   9.467   2.564   2.202
 2550SOL    HW2 9548   9.436   2.430   2.139
 2551SOL     OW 9549   4.588  13.440   7.790
 2551SOL    HW1 9550   4.538  13.389   7.854
 2551SOL    HW2 9551   4.604  13.524   7.832
 2552SOL     OW 9552  13.779   9.088   6.612
 2552SOL    HW1 9553  13.721   9.084   6.688
 2552SOL    HW2 9554  13.865   9.063   6.647
 2553SOL     OW 9555  10.250   5.459   3.699
 2553SOL    HW1 9556  10.340   5.427   3.701
 2553SOL    HW2 9557  10.255   5.546   3.739
 2554SOL     OW 9558   1.632  14.137  11.534
 2554SOL    HW1 9559   1.636  14.056  11.483
 2554SOL    HW2 9560   1.629  14.108  11.625
 2555SOL     OW 9561   9.887   7.488   4.354
 2555SOL    HW1 9562   9.921   7.573   4.382
 2555SOL    HW2 9563   9.794   7.503   4.336
 2556SOL     OW 9564   4.023   4.229   2.132
 2556SOL    HW1 9565   3.963   4.178   2.078
 2556SOL    HW2 9566   4.091   4.259   2.071
 2557SOL     OW 9567   9.865  13.819   3.943
 2557SOL    HW1 9568   9.921  13.890   3.913
 2557SOL    HW2 9569   9.818  13.856   4.018
 2558SOL     OW 9570   7.760   8.365   6.981
 2558SOL    HW1 9571   7.796   8.290   6.932
 2558SOL    HW2 9572   7.832   8.394   7.037
 2559SOL     OW 9573   0.222  10.611  10.589
 2559SOL    HW1 9574   0.173  10.587  10.511
 2559SOL    HW2 9575   0.294  10.665  10.557
 2560SOL     OW 9576   7.272   7.661   3.429
 2560SOL    HW1 9577   7.319   7.664   3.346
 2560SOL    HW2 9578   7.328   7.708   3.490
 2561SOL     OW 9579   7.833  14.225  13.872
 2561SOL    HW1 9580   7.781  14.149  13.898
 2561SOL    HW2 9581   7.801  14.247  13.785
 2562SOL     OW 9582   3.671   5.779  14.873
 2562SOL    HW1 9583   3.724   5.859   0.006
 2562SOL    HW2 9584   3.581   5.810  14.878
 2563SOL     OW 9585   9.020  12.648  10.083
 2563SOL    HW1 9586   8.995  12.569  10.035
 2563SOL    HW2 9587   9.039  12.713  10.016
 2564SOL     OW 9588   1.170   0.521   9.728
 2564SOL    HW1 9589   1.089   0.504   9.776
 2564SOL    HW2 9590   1.210   0.434   9.716
 2565SOL     OW 9591   4.741   5.357   6.006
 2565SOL    HW1 9592   4.762   5.280   6.059
 2565SOL    HW2 9593   4.821   5.376   5.958
 2566SOL     OW 9594  13.266   9.583  14.396
 2566SOL    HW1 9595  13.302   9.605  14.482
 2566SOL    HW2 9596  13.176   9.617  14.398
 2567SOL     OW 9597  14.539   5.684   2.060
 2567SOL    HW1 9598  14.617   5.650   2.016
 2567SOL    HW2 9599  14.511   5.757   2.004
 2568SOL     OW 9600  10.209  10.913   0.299
 2568SOL    HW1 9601  10.257  10.838   0.334
 2568SOL    HW2 9602  10.235  10.986   0.356
 2569SOL     OW 9603   4.505  13.479   5.596
 2569SOL    HW1 9604   4.584  13.453   5.644
 2569SOL    HW2 9605   4.488  13.406   5.536
 2570SOL     OW 9606  10.901   2.137   3.003
 2570SOL    HW1 9607  10.911   2.170   3.092
 2570SOL    HW2 9608  10.952   2.056   3.002
 2571SOL     OW 9609   1.883  10.387   7.705
 2571SOL    HW1 9610   1.941  10.452   7.666
 2571SOL    HW2 9611   1.797  10.430   7.707
 2572SOL     OW 9612   1.965   7.155   6.273
 2572SOL    HW1 9613   2.012   7.116   6.199
 2572SOL    HW2 9614   2.014   7.235   6.292
 2573SOL     OW 9615   1.591   0.255  12.454
 2573SOL    HW1 9616   1.575   0.292  12.367
 2573SOL    HW2 9617   1.563   0.164  12.447
 2574SOL     OW 9618   7.101   2.159   5.153
 2574SOL    HW1 9619   7.182   2.176   5.201
 2574SOL    HW2 9620   7.107   2.067   5.127
 2575SOL     OW 9621  14.342  11.246  12.043
 2575SOL    HW1 9622  14.285  11.323  12.042
 2575SOL    HW2 9623  14.417  11.271  12.097
 2576SOL     OW 9624   6.606  10.205  10.426
 2576SOL    HW1 9625   6.585  10.209  10.332
 2576SOL    HW2 9626   6.694  10.241  10.432
 2577SOL     OW 9627   5.565   7.526   4.332
 2577SOL    HW1 9628   5.648   7.483   4.353
 2577SOL    HW2 9629   5.500   7.456   4.340
 2578SOL     OW 9630  14.705   7.844   0.913
 2578SOL    HW1 9631  14.620   7.888   0.920
 2578SOL    HW2 9632  14.692   7.778   0.845
 2579SOL     OW 9633   4.020   6.202  14.485
 2579SOL    HW1 9634   4.031   6.239  14.398
 2579SOL    HW2 9635   3.925   6.206  14.501
 2580SOL     OW 9636   2.392   0.582  10.283
 2580SOL    HW1 9637   2.301   0.605  10.265
 2580SOL    HW2 9638   2.429   0.659  10.325
 2581SOL     OW 9639   3.987   9.247   4.544
 2581SOL    HW1 9640   3.916   9.183   4.541
 2581SOL    HW2 9641   4.027   9.243   4.457
 2582SOL     OW 9642  13.898   4.158  14.563
 2582SOL    HW1 9643  13.899   4.213  14.485
 2582SOL    HW2 9644  13.815   4.179  14.606
 2583SOL     OW 9645  10.451   3.477   3.150
 2583SOL    HW1 9646  10.508   3.427   3.092
 2583SOL    HW2 9647  10.372   3.424   3.157
 2584SOL     OW 9648   8.735   1.791  13.086
 2584SOL    HW1 9649   8.746   1.771  12.993
 2584SOL    HW2 9650   8.673   1.725  13.117
 2585SOL     OW 9651   3.733  11.935  13.947
 2585SOL    HW1 9652   3.745  11.927  14.042
 2585SOL    HW2 9653   3.821  11.953  13.913
 2586SOL     OW 9654  13.284   2.749   6.534
 2586SOL    HW1 9655  13.260   2.841   6.545
 2586SOL    HW2 9656  13.289   2.736   6.440
 2587SOL     OW 9657   4.387   5.926   7.587
 2587SOL    HW1 9658   4.364   5.853   7.531
 2587SOL    HW2 9659   4.343   6.001   7.548
 2588SOL     OW 9660   2.799   2.217   6.425
 2588SOL    HW1 9661   2.886   2.199   6.461
 2588SOL    HW2 9662   2.817   2.259   6.341
 2589SOL     OW 9663   3.086   2.936   1.545
 2589SOL    HW1 9664   3.121   2.991   1.474
 2589SOL    HW2 9665   3.018   2.884   1.503
 2590SOL     OW 9666   5.320   0.187   1.339
 2590SOL    HW1 9667   5.236   0.168   1.296
 2590SOL    HW2 9668   5.312   0.279   1.367
 2591SOL     OW 9669  13.653   4.996  10.616
 2591SOL    HW1 9670  13.655   4.972  10.708
 2591SOL    HW2 9671  13.688   4.920  10.570
 2592SOL     OW 9672   8.619   5.917   9.725
 2592SOL    HW1 9673   8.696   5.961   9.761
 2592SOL    HW2 9674   8.568   5.892   9.802
 2593SOL     OW 9675  12.642   5.288   9.025
 2593SOL    HW1 9676  12.559   5.329   9.001
 2593SOL    HW2 9677  12.670   5.334   9.104
 2594SOL     OW 9678  11.542   7.335   3.931
 2594SOL    HW1 9679  11.550   7.292   3.846
 2594SOL    HW2 9680  11.525   7.426   3.910
 2595SOL     OW 9681   8.271   4.112   7.914
 2595SOL    HW1 9682   8.296   4.029   7.954
 2595SOL    HW2 9683   8.346   4.136   7.859
 2596SOL     OW 9684   6.569   9.296   1.546
 2596SOL    HW1 9685   6.490   9.337   1.582
 2596SOL    HW2 9686   6.612   9.257   1.622
 2597SOL     OW 9687  11.140  14.824   8.661
 2597SOL    HW1 9688  11.150  14.843   8.567
 2597SOL    HW2 9689  11.230  14.817   8.694
 2598SOL     OW 9690  13.728   6.794   1.687
 2598SOL    HW1 9691  13.695   6.874   1.728
 2598SOL    HW2 9692  13.754   6.739   1.761
 2599SOL     OW 9693  12.834   1.131   8.553
 2599SOL    HW1 9694  12.904   1.074   8.521
 2599SOL    HW2 9695  12.791   1.165   8.475
 2600SOL     OW 9696  12.534  11.121   6.054
 2600SOL    HW1 9697  12.628  11.123   6.035
 2600SOL    HW2 9698  12.529  11.128   6.150
 2601SOL     OW 9699   5.020  13.000  11.877
 2601SOL    HW1 9700   5.050  13.007  11.968
 2601SOL    HW2 9701   5.046  12.911  11.851
 2602SOL     OW 9702  14.076  14.186   0.049
 2602SOL    HW1 9703  14.042  14.188   0.139
 2602SOL    HW2 9704  14.048  14.270   0.011
 2603SOL     OW 9705   1.997  14.092   0.542
 2603SOL    HW1 9706   1.961  14.134   0.464
 2603SOL    HW2 9707   1.921  14.074   0.597
 2604SOL     OW 9708   6.440   5.483   0.334
 2604SOL    HW1 9709   6.455   5.571   0.300
 2604SOL    HW2 9710   6.415   5.432   0.256
 2605SOL     OW 9711   7.560  12.845  13.279
 2605SOL    HW1 9712   7.608  12.762  13.286
 2605SOL    HW2 9713   7.471  12.824  13.306
 2606SOL     OW 9714   1.233  10.011   8.518
 2606SOL    HW1 9715   1.230   9.918   8.495
 2606SOL    HW2 9716   1.253  10.012   8.612
 2607SOL     OW 9717   8.089  11.586   2.954
 2607SOL    HW1 9718   8.112  11.583   2.861
 2607SOL    HW2 9719   8.081  11.494   2.981
 2608SOL     OW 9720  11.273   3.531   2.835
 2608SOL    HW1 9721  11.275   3.591   2.761
 2608SOL    HW2 9722  11.358   3.486   2.832
 2609SOL     OW 9723   5.479  11.358   1.479
 2609SOL    HW1 9724   5.490  11.421   1.550
 2609SOL    HW2 9725   5.387  11.365   1.455
 2610SOL     OW 9726  13.275   7.250  12.657
 2610SOL    HW1 9727  13.290   7.215  12.745
 2610SOL    HW2 9728  13.326   7.193  12.600
 2611SOL     OW 9729  11.657  10.939  13.829
 2611SOL    HW1 9730  11.632  10.954  13.737
 2611SOL    HW2 9731  11.718  11.010  13.848
 2612SOL     OW 9732   3.832   1.362  11.901
 2612SOL    HW1 9733   3.856   1.433  11.960
 2612SOL    HW2 9734   3.747   1.332  11.933
 2613SOL     OW 9735   9.982   5.842   2.426
 2613SOL    HW1 9736   9.891   5.822   2.447
 2613SOL    HW2 9737   9.982   5.856   2.331
 2614SOL     OW 9738  13.850  12.169   7.118
 2614SOL    HW1 9739  13.942  12.160   7.092
 2614SOL    HW2 9740  13.841  12.114   7.196
 2615SOL     OW 9741  13.191   3.013  10.171
 2615SOL    HW1 9742  13.272   3.031  10.124
 2615SOL    HW2 9743  13.171   2.921  10.151
 2616SOL     OW 9744  11.441   3.073  11.503
 2616SOL    HW1 9745  11.390   3.021  11.565
 2616SOL    HW2 9746  11.529   3.076  11.542
 2617SOL     OW 9747  12.487   5.976   1.744
 2617SOL    HW1 9748  12.525   6.003   1.828
 2617SOL    HW2 9749  12.420   5.912   1.768
 2618SOL     OW 9750  13.438  12.842  12.008
 2618SOL    HW1 9751  13.533  12.853  12.014
 2618SOL    HW2 9752  13.408  12.847  12.099
 2619SOL     OW 9753   4.889   3.603   8.112
 2619SOL    HW1 9754   4.816   3.618   8.052
 2619SOL    HW2 9755   4.919   3.691   8.135
 2620SOL     OW 9756  13.595   7.443   7.965
 2620SOL    HW1 9757  13.533   7.380   8.001
 2620SOL    HW2 9758  13.616   7.410   7.878
 2621SOL     OW 9759  14.023   1.081  11.882
 2621SOL    HW1 9760  13.993   1.135  11.955
 2621SOL    HW2 9761  13.987   1.123  11.804
 2622SOL     OW 9762  13.441   2.282   0.432
 2622SOL    HW1 9763  13.521   2.242   0.465
 2622SOL    HW2 9764  13.401   2.324   0.509
 2623SOL     OW 9765  12.699   4.218  10.720
 2623SOL    HW1 9766  12.709   4.281  10.791
 2623SOL    HW2 9767  12.710   4.270  10.640
 2624SOL     OW 9768   6.263  12.773   2.094
 2624SOL    HW1 9769   6.267  12.829   2.171
 2624SOL    HW2 9770   6.323  12.700   2.114
 2625SOL     OW 9771   6.585   9.418  10.267
 2625SOL    HW1 9772   6.651   9.467  10.219
 2625SOL    HW2 9773   6.607   9.431  10.359
 2626SOL     OW 9774   6.786   4.800  10.843
 2626SOL    HW1 9775   6.803   4.888  10.810
 2626SOL    HW2 9776   6.754   4.815  10.932
 2627SOL     OW 9777   3.761   6.411  13.447
 2627SOL    HW1 9778   3.774   6.318  13.427
 2627SOL    HW2 9779   3.671   6.429  13.420
 2628SOL     OW 9780   6.840   0.228  13.405
 2628SOL    HW1 9781   6.862   0.211  13.313
 2628SOL    HW2 9782   6.869   0.318  13.420
 2629SOL     OW 9783  11.621   5.287  13.706
 2629SOL    HW1 9784  11.536   5.243  13.704
 2629SOL    HW2 9785  11.601   5.376  13.734
 2630SOL     OW 9786  13.187  10.485   2.415
 2630SOL    HW1 9787  13.216  10.536   2.340
 2630SOL    HW2 9788  13.153  10.549   2.477
 2631SOL     OW 9789   8.503  12.723  14.778
 2631SOL    HW1 9790   8.469  12.787  14.841
 2631SOL    HW2 9791   8.574  12.770  14.734
 2632SOL     OW 9792   0.460  13.836   1.102
 2632SOL    HW1 9793   0.455  13.919   1.148
 2632SOL    HW2 9794   0.373  13.823   1.065
 2633SOL     OW 9795   7.403   0.767   7.073
 2633SOL    HW1 9796   7.409   0.689   7.017
 2633SOL    HW2 9797   7.345   0.827   7.025
 2634SOL     OW 9798   4.361   7.727  14.461
 2634SOL    HW1 9799   4.329   7.782  14.532
 2634SOL    HW2 9800   4.351   7.637  14.493
 2635SOL     OW 9801  12.033   9.828  12.437
 2635SOL    HW1 9802  11.964   9.786  12.387
 2635SOL    HW2 9803  12.049   9.769  12.510
 2636SOL     OW 9804  14.614   7.535  11.640
 2636SOL    HW1 9805  14.697   7.501  11.608
 2636SOL    HW2 9806  14.606   7.621  11.598
 2637SOL     OW 9807   0.860  14.587   6.703
 2637SOL    HW1 9808   0.807  14.512   6.678
 2637SOL    HW2 9809   0.845  14.652   6.634
 2638SOL     OW 9810  14.091  10.423   8.259
 2638SOL    HW1 9811  14.026  10.355   8.241
 2638SOL    HW2 9812  14.050  10.504   8.229
 2639SOL     OW 9813   0.846  14.746   0.261
 2639SOL    HW1 9814   0.924  14.689   0.261
 2639SOL    HW2 9815   0.873  14.823   0.310
 2640SOL     OW 9816   5.989   7.419  10.504
 2640SOL    HW1 9817   6.015   7.327  10.497
 2640SOL    HW2 9818   6.000   7.453  10.415
 2641SOL     OW 9819   7.819   9.048   6.343
 2641SOL    HW1 9820   7.842   9.136   6.374
 2641SOL    HW2 9821   7.889   8.992   6.375
 2642SOL     OW 9822  12.696   1.085   6.469
 2642SOL    HW1 9823  12.643   1.006   6.460
 2642SOL    HW2 9824  12.669   1.140   6.395
 2643SOL     OW 9825   0.714  14.049  10.141
 2643SOL    HW1 9826   0.727  14.030  10.234
 2643SOL    HW2 9827   0.619  14.054  10.130
 2644SOL     OW 9828   3.800   4.613   8.725
 2644SOL    HW1 9829   3.785   4.586   8.634
 2644SOL    HW2 9830   3.720   4.587   8.771
 2645SOL     OW 9831  13.574   8.802   4.166
 2645SOL    HW1 9832  13.640   8.733   4.170
 2645SOL    HW2 9833  13.496   8.763   4.204
 2646SOL     OW 9834   8.222   9.291   8.192
 2646SOL    HW1 9835   8.306   9.247   8.181
 2646SOL    HW2 9836   8.157   9.223   8.177
 2647SOL     OW 9837  14.181   1.338   3.119
 2647SOL    HW1 9838  14.141   1.322   3.034
 2647SOL    HW2 9839  14.201   1.432   3.119
 2648SOL     OW 9840   1.103   3.987  14.776
 2648SOL    HW1 9841   1.154   4.065  14.800
 2648SOL    HW2 9842   1.013   4.012  14.794
 2649SOL     OW 9843   5.550   3.448   3.207
 2649SOL    HW1 9844   5.560   3.467   3.300
 2649SOL    HW2 9845   5.459   3.419   3.198
 2650SOL     OW 9846   3.501   0.283   2.403
 2650SOL    HW1 9847   3.551   0.363   2.391
 2650SOL    HW2 9848   3.550   0.233   2.469
 2651SOL     OW 9849   0.408   8.449  11.044
 2651SOL    HW1 9850   0.472   8.419  10.979
 2651SOL    HW2 9851   0.324   8.450  10.997
 2652SOL     OW 9852  11.907  12.173   5.918
 2652SOL    HW1 9853  11.997  12.184   5.948
 2652SOL    HW2 9854  11.916  12.137   5.830
 2653SOL     OW 9855   8.867   7.196   8.777
 2653SOL    HW1 9856   8.941   7.146   8.811
 2653SOL    HW2 9857   8.850   7.262   8.844
 2654SOL     OW 9858  14.514   4.574   8.462
 2654SOL    HW1 9859  14.501   4.583   8.556
 2654SOL    HW2 9860  14.437   4.528   8.431
 2655SOL     OW 9861   4.618   5.880   5.862
 2655SOL    HW1 9862   4.634   5.919   5.948
 2655SOL    HW2 9863   4.705   5.853   5.831
 2656SOL     OW 9864   9.571   3.860   5.435
 2656SOL    HW1 9865   9.561   3.829   5.525
 2656SOL    HW2 9866   9.534   3.948   5.435
 2657SOL     OW 9867   9.042  11.234   3.097
 2657SOL    HW1 9868   8.974  11.260   3.035
 2657SOL    HW2 9869   9.030  11.293   3.171
 2658SOL     OW 9870   9.905   1.166   6.922
 2658SOL    HW1 9871   9.827   1.115   6.940
 2658SOL    HW2 9872   9.934   1.197   7.008
 2659SOL     OW 9873  14.158   0.616   3.944
 2659SOL    HW1 9874  14.167   0.613   4.039
 2659SOL    HW2 9875  14.201   0.536   3.913
 2660SOL     OW 9876   2.900   2.731   2.696
 2660SOL    HW1 9877   2.984   2.687   2.702
 2660SOL    HW2 9878   2.883   2.737   2.602
 2661SOL     OW 9879   4.309   1.463  13.411
 2661SOL    HW1 9880   4.379   1.475  13.475
 2661SOL    HW2 9881   4.228   1.476  13.461
 2662SOL     OW 9882   7.054  10.529  10.234
 2662SOL    HW1 9883   7.082  10.462  10.296
 2662SOL    HW2 9884   6.982  10.489  10.186
 2663SOL     OW 9885  11.437   2.254   8.060
 2663SOL    HW1 9886  11.392   2.303   7.991
 2663SOL    HW2 9887  11.373   2.248   8.131
 2664SOL     OW 9888   5.798   5.106   4.306
 2664SOL    HW1 9889   5.800   5.186   4.253
 2664SOL    HW2 9890   5.821   5.036   4.245
 2665SOL     OW 9891  14.114  13.066   3.766
 2665SOL    HW1 9892  14.190  13.029   3.720
 2665SOL    HW2 9893  14.110  13.019   3.849
 2666SOL     OW 9894   9.086   8.487   3.468
 2666SOL    HW1 9895   9.033   8.510   3.392
 2666SOL    HW2 9896   9.053   8.402   3.496
 2667SOL     OW 9897  13.339  13.318   0.153
 2667SOL    HW1 9898  13.302  13.230   0.141
 2667SOL    HW2 9899  13.301  13.349   0.235
 2668SOL     OW 9900   3.012  11.392  12.966
 2668SOL    HW1 9901   3.061  11.389  13.048
 2668SOL    HW2 9902   2.924  11.362  12.990
 2669SOL     OW 9903   7.251   4.117  10.220
 2669SOL    HW1 9904   7.339   4.092  10.191
 2669SOL    HW2 9905   7.192   4.059  10.172
 2670SOL     OW 9906   3.064  14.410  14.357
 2670SOL    HW1 9907   3.000  14.428  14.426
 2670SOL    HW2 9908   3.137  14.469  14.376
 2671SOL     OW 9909   8.742  14.211  12.637
 2671SOL    HW1 9910   8.812  14.195  12.701
 2671SOL    HW2 9911   8.717  14.124  12.606
 2672SOL     OW 9912  10.055  13.013   3.021
 2672SOL    HW1 9913  10.054  13.088   2.961
 2672SOL    HW2 9914  10.076  13.051   3.106
 2673SOL     OW 9915  10.606  11.368   5.961
 2673SOL    HW1 9916  10.653  11.348   5.880
 2673SOL    HW2 9917  10.603  11.464   5.964
 2674SOL     OW 9918   5.451   4.746  12.271
 2674SOL    HW1 9919   5.412   4.791  12.345
 2674SOL    HW2 9920   5.497   4.814  12.222
 2675SOL     OW 9921  11.169  13.739   6.958
 2675SOL    HW1 9922  11.122  13.806   7.008
 2675SOL    HW2 9923  11.100  13.690   6.913
 2676SOL     OW 9924  13.099   3.325   7.343
 2676SOL    HW1 9925  13.107   3.369   7.259
 2676SOL    HW2 9926  13.035   3.255   7.327
 2677SOL     OW 9927   8.524   2.109   4.859
 2677SOL    HW1 9928   8.473   2.160   4.923
 2677SOL    HW2 9929   8.587   2.060   4.912
 2678SOL     OW 9930  11.732  13.806   0.686
 2678SOL    HW1 9931  11.763  13.847   0.767
 2678SOL    HW2 9932  11.801  13.744   0.662
 2679SOL     OW 9933   6.535  10.430   5.326
 2679SOL    HW1 9934   6.470  10.482   5.278
 2679SOL    HW2 9935   6.492  10.346   5.343
 2680SOL     OW 9936   7.465  10.086  11.181
 2680SOL    HW1 9937   7.442   9.994  11.190
 2680SOL    HW2 9938   7.388  10.126  11.141
 2681SOL     OW 9939   9.420   2.254  10.081
 2681SOL    HW1 9940   9.471   2.226  10.005
 2681SOL    HW2 9941   9.443   2.191  10.150
 2682SOL     OW 9942   0.377   0.740   6.098
 2682SOL    HW1 9943   0.427   0.817   6.126
 2682SOL    HW2 9944   0.341   0.703   6.178
 2683SOL     OW 9945   7.151   3.610   4.014
 2683SOL    HW1 9946   7.131   3.699   4.043
 2683SOL    HW2 9947   7.077   3.585   3.958
 2684SOL     OW 9948   2.974   0.255   1.369
 2684SOL    HW1 9949   2.883   0.235   1.389
 2684SOL    HW2 9950   2.970   0.309   1.290
 2685SOL     OW 9951   0.996   6.854   4.946
 2685SOL    HW1 9952   0.901   6.843   4.946
 2685SOL    HW2 9953   1.029   6.783   4.890
 2686SOL     OW 9954   7.311   9.273   9.333
 2686SOL    HW1 9955   7.341   9.213   9.402
 2686SOL    HW2 9956   7.323   9.224   9.252
 2687SOL     OW 9957   2.990   5.509  12.620
 2687SOL    HW1 9958   3.009   5.415  12.631
 2687SOL    HW2 9959   3.057   5.539  12.559
 2688SOL     OW 9960  13.308   0.204   7.909
 2688SOL    HW1 9961  13.238   0.144   7.883
 2688SOL    HW2 9962  13.346   0.235   7.827
 2689SOL     OW 9963   5.022  11.612   3.408
 2689SOL    HW1 9964   5.045  11.526   3.372
 2689SOL    HW2 9965   4.927  11.610   3.414
 2690SOL     OW 9966   5.464   5.103   2.120
 2690SOL    HW1 9967   5.419   5.180   2.155
 2690SOL    HW2 9968   5.527   5.139   2.057
 2691SOL     OW 9969  11.256   1.494   8.607
 2691SOL    HW1 9970  11.168   1.459   8.590
 2691SOL    HW2 9971  11.280   1.458   8.692
 2692SOL     OW 9972   8.901   6.254   9.408
 2692SOL    HW1 9973   8.945   6.260   9.323
 2692SOL    HW2 9974   8.839   6.327   9.408
 2693SOL     OW 9975   5.616   7.258   3.679
 2693SOL    HW1 9976   5.598   7.233   3.588
 2693SOL    HW2 9977   5.709   7.236   3.692
 2694SOL     OW 9978  11.481   9.413  14.182
 2694SOL    HW1 9979  11.510   9.441  14.269
 2694SOL    HW2 9980  11.562   9.394  14.135
 2695SOL     OW 9981   0.447  12.590   8.912
 2695SOL    HW1 9982   0.366  12.562   8.954
 2695SOL    HW2 9983   0.503  12.619   8.985
 2696SOL     OW 9984   9.908   3.567   0.139
 2696SOL    HW1 9985   9.912   3.538   0.048
 2696SOL    HW2 9986   9.845   3.508   0.180
 2697SOL     OW 9987  14.096   9.904   8.874
 2697SOL    HW1 9988  14.056   9.818   8.859
 2697SOL    HW2 9989  14.031   9.951   8.927
 2698SOL     OW 9990  11.025   3.833   3.948
 2698SOL    HW1 9991  11.018   3.838   4.043
 2698SOL    HW2 9992  11.071   3.750   3.932
 2699SOL     OW 9993  13.734   3.624   5.630
 2699SOL    HW1 9994  13.812   3.606   5.576
 2699SOL    HW2 9995  13.749   3.573   5.710
 2700SOL     OW 9996   0.684  12.989   7.272
 2700SOL    HW1 9997   0.657  12.925   7.337
 2700SOL    HW2 9998   0.779  12.980   7.267
 2701SOL     OW 9999   8.393   0.299   1.783
 2701SOL    HW110000   8.314   0.275   1.735
 2701SOL    HW210001   8.436   0.215   1.803
 2702SOL     OW10002   6.729   6.834  12.426
 2702SOL    HW110003   6.641   6.854  12.457
 2702SOL    HW210004   6.781   6.911  12.451
 2703SOL     OW10005   2.215   5.544   2.306
 2703SOL    HW110006   2.218   5.632   2.270
 2703SOL    HW210007   2.123   5.530   2.327
 2704SOL     OW10008   2.860   2.595  11.245
 2704SOL    HW110009   2.811   2.656  11.190
 2704SOL    HW210010   2.935   2.646  11.276
 2705SOL     OW10011  10.199   9.449  13.720
 2705SOL    HW110012  10.186   9.384  13.789
 2705SOL    HW210013  10.258   9.406  13.658
 2706SOL     OW10014   3.312   2.331   9.606
 2706SOL    HW110015   3.296   2.351   9.514
 2706SOL    HW210016   3.257   2.393   9.655
 2707SOL     OW10017   3.431   1.779   1.781
 2707SOL    HW110018   3.519   1.745   1.763
 2707SOL    HW210019   3.424   1.857   1.726
 2708SOL     OW10020   1.205   3.174   1.484
 2708SOL    HW110021   1.147   3.198   1.412
 2708SOL    HW210022   1.235   3.258   1.519
 2709SOL     OW10023   1.153  14.055  10.906
 2709SOL    HW110024   1.151  14.122  10.975
 2709SOL    HW210025   1.132  14.102  10.826
 2710SOL     OW10026   6.817   6.353   6.331
 2710SOL    HW110027   6.731   6.392   6.318
 2710SOL    HW210028   6.878   6.427   6.331
 2711SOL     OW10029  11.020  13.412  13.668
 2711SOL    HW110030  11.000  13.335  13.615
 2711SOL    HW210031  10.935  13.455  13.681
 2712SOL     OW10032   9.839   9.145   4.338
 2712SOL    HW110033   9.868   9.063   4.299
 2712SOL    HW210034   9.874   9.143   4.427
 2713SOL     OW10035  13.747  14.422   4.179
 2713SOL    HW110036  13.734  14.516   4.191
 2713SOL    HW210037  13.789  14.414   4.093
 2714SOL     OW10038  14.417   9.812   7.375
 2714SOL    HW110039  14.414   9.801   7.470
 2714SOL    HW210040  14.365   9.890   7.358
 2715SOL     OW10041   6.887   3.651   7.888
 2715SOL    HW110042   6.874   3.700   7.807
 2715SOL    HW210043   6.838   3.570   7.876
 2716SOL     OW10044  12.370   8.863   1.847
 2716SOL    HW110045  12.280   8.891   1.827
 2716SOL    HW210046  12.425   8.937   1.821
 2717SOL     OW10047  14.723   0.081   2.523
 2717SOL    HW110048  14.636   0.042   2.518
 2717SOL    HW210049  14.707   0.172   2.548
 2718SOL     OW10050  13.126  14.589  14.320
 2718SOL    HW110051  13.054  14.610  14.260
 2718SOL    HW210052  13.099  14.628  14.404
 2719SOL     OW10053   3.088   9.485   8.263
 2719SOL    HW110054   3.058   9.511   8.350
 2719SOL    HW210055   3.184   9.480   8.271
 2720SOL     OW10056  14.664  12.866  11.175
 2720SOL    HW110057  14.571  12.885  11.159
 2720SOL    HW210058  14.665  12.774  11.202
 2721SOL     OW10059  12.294   9.494   1.680
 2721SOL    HW110060  12.341   9.487   1.763
 2721SOL    HW210061  12.357   9.533   1.620
 2722SOL     OW10062  13.890  11.256   3.918
 2722SOL    HW110063  13.875  11.240   3.825
 2722SOL    HW210064  13.815  11.217   3.962
 2723SOL     OW10065  13.173   8.353   7.144
 2723SOL    HW110066  13.176   8.404   7.062
 2723SOL    HW210067  13.151   8.418   7.211
 2724SOL     OW10068  12.104  12.571   3.094
 2724SOL    HW110069  12.038  12.522   3.142
 2724SOL    HW210070  12.128  12.642   3.153
 2725SOL     OW10071   9.672   8.581   6.103
 2725SOL    HW110072   9.619   8.525   6.159
 2725SOL    HW210073   9.628   8.579   6.018
 2726SOL     OW10074   8.944  10.964   6.293
 2726SOL    HW110075   8.874  10.918   6.338
 2726SOL    HW210076   9.012  10.976   6.359
 2727SOL     OW10077   4.493  10.011  10.900
 2727SOL    HW110078   4.420   9.957  10.870
 2727SOL    HW210079   4.539   9.956  10.964
 2728SOL     OW10080   5.873   9.353   4.762
 2728SOL    HW110081   5.901   9.425   4.818
 2728SOL    HW210082   5.954   9.306   4.741
 2729SOL     OW10083  13.640  12.369  13.421
 2729SOL    HW110084  13.713  12.360  13.360
 2729SOL    HW210085  13.567  12.398  13.366
 2730SOL     OW10086  13.714   7.044   8.251
 2730SOL    HW110087  13.715   7.010   8.340
 2730SOL    HW210088  13.802   7.079   8.237
 2731SOL     OW10089   2.255   7.964   4.746
 2731SOL    HW110090   2.185   7.974   4.810
 2731SOL    HW210091   2.273   7.870   4.744
 2732SOL     OW10092  12.422   1.550  10.183
 2732SOL    HW110093  12.337   1.513  10.208
 2732SOL    HW210094  12.485   1.480  10.198
 2733SOL     OW10095  10.952  14.302  14.854
 2733SOL    HW110096  11.045  14.309  14.833
 2733SOL    HW210097  10.916  14.388  14.831
 2734SOL     OW10098  11.823   7.308  14.602
 2734SOL    HW110099  11.888   7.238  14.594
 2734SOL    HW210100  11.748   7.278  14.551
 2735SOL     OW10101   6.743   4.017   0.644
 2735SOL    HW110102   6.687   3.973   0.579
 2735SOL    HW210103   6.795   4.078   0.592
 2736SOL     OW10104   5.517   9.000  13.739
 2736SOL    HW110105   5.589   8.949  13.702
 2736SOL    HW210106   5.532   8.998  13.833
 2737SOL     OW10107   5.322  13.163   9.463
 2737SOL    HW110108   5.417  13.173   9.462
 2737SOL    HW210109   5.307  13.069   9.460
 2738SOL     OW10110   6.884  13.533   8.260
 2738SOL    HW110111   6.969  13.490   8.246
 2738SOL    HW210112   6.906  13.625   8.274
 2739SOL     OW10113  12.568   5.418   1.324
 2739SOL    HW110114  12.571   5.323   1.309
 2739SOL    HW210115  12.523   5.452   1.247
 2740SOL     OW10116   3.138   4.350  12.631
 2740SOL    HW110117   3.206   4.319  12.690
 2740SOL    HW210118   3.069   4.383  12.688
 2741SOL     OW10119   2.829   4.501  14.008
 2741SOL    HW110120   2.889   4.562  13.965
 2741SOL    HW210121   2.872   4.477  14.089
 2742SOL     OW10122   7.439   2.867   9.464
 2742SOL    HW110123   7.475   2.951   9.496
 2742SOL    HW210124   7.359   2.855   9.514
 2743SOL     OW10125   8.603   6.264   1.517
 2743SOL    HW110126   8.606   6.275   1.612
 2743SOL    HW210127   8.634   6.347   1.481
 2744SOL     OW10128   9.774   5.170   0.665
 2744SOL    HW110129   9.865   5.171   0.694
 2744SOL    HW210130   9.766   5.246   0.608
 2745SOL     OW10131   9.254   2.774  13.352
 2745SOL    HW110132   9.322   2.741  13.411
 2745SOL    HW210133   9.270   2.729  13.269
 2746SOL     OW10134  13.354   2.432   9.372
 2746SOL    HW110135  13.283   2.476   9.324
 2746SOL    HW210136  13.417   2.408   9.305
 2747SOL     OW10137   3.883  14.421  11.205
 2747SOL    HW110138   3.889  14.481  11.280
 2747SOL    HW210139   3.811  14.456  11.153
 2748SOL     OW10140  13.450   4.239   1.695
 2748SOL    HW110141  13.505   4.221   1.619
 2748SOL    HW210142  13.380   4.175   1.691
 2749SOL     OW10143   5.765   8.063  12.168
 2749SOL    HW110144   5.840   8.065  12.109
 2749SOL    HW210145   5.715   7.986  12.141
 2750SOL     OW10146  14.004   2.211   7.090
 2750SOL    HW110147  14.019   2.143   7.156
 2750SOL    HW210148  13.922   2.187   7.048
 2751SOL     OW10149   1.932  11.686   0.542
 2751SOL    HW110150   1.989  11.610   0.551
 2751SOL    HW210151   1.937  11.730   0.627
 2752SOL     OW10152  13.143   9.883   8.501
 2752SOL    HW110153  13.093   9.918   8.575
 2752SOL    HW210154  13.077   9.851   8.440
 2753SOL     OW10155   5.270  12.621   8.988
 2753SOL    HW110156   5.358  12.655   9.002
 2753SOL    HW210157   5.244  12.655   8.902
 2754SOL     OW10158   3.498  11.985   7.571
 2754SOL    HW110159   3.496  12.040   7.492
 2754SOL    HW210160   3.409  11.951   7.579
 2755SOL     OW10161   5.852   6.053   6.968
 2755SOL    HW110162   5.857   6.141   7.006
 2755SOL    HW210163   5.934   6.043   6.920
 2756SOL     OW10164  14.043   9.309   0.598
 2756SOL    HW110165  14.044   9.213   0.600
 2756SOL    HW210166  13.953   9.332   0.623
 2757SOL     OW10167   5.997  12.844   9.698
 2757SOL    HW110168   6.092  12.832   9.697
 2757SOL    HW210169   5.981  12.900   9.774
 2758SOL     OW10170  14.678  13.139  14.393
 2758SOL    HW110171  14.661  13.199  14.466
 2758SOL    HW210172  14.765  13.163  14.362
 2759SOL     OW10173   8.092  10.156   2.503
 2759SOL    HW110174   8.076  10.221   2.435
 2759SOL    HW210175   8.005  10.127   2.529
 2760SOL     OW10176   2.838   6.333   8.233
 2760SOL    HW110177   2.843   6.396   8.305
 2760SOL    HW210178   2.745   6.328   8.213
 2761SOL     OW10179   8.901  12.753   0.058
 2761SOL    HW110180   8.849  12.742  14.858
 2761SOL    HW210181   8.979  12.701   0.043
 2762SOL     OW10182   2.647  12.506   7.930
 2762SOL    HW110183   2.567  12.559   7.925
 2762SOL    HW210184   2.632  12.447   8.003
 2763SOL     OW10185   4.802   9.585   1.913
 2763SOL    HW110186   4.763   9.671   1.927
 2763SOL    HW210187   4.794   9.540   1.997
 2764SOL     OW10188   2.085  10.797   6.276
 2764SOL    HW110189   2.099  10.829   6.187
 2764SOL    HW210190   2.148  10.845   6.330
 2765SOL     OW10191   6.042   3.532   8.226
 2765SOL    HW110192   5.957   3.493   8.206
 2765SOL    HW210193   6.103   3.459   8.225
 2766SOL     OW10194  10.832   0.679  13.976
 2766SOL    HW110195  10.879   0.744  14.029
 2766SOL    HW210196  10.742   0.712  13.972
 2767SOL     OW10197   4.524   0.779  13.130
 2767SOL    HW110198   4.601   0.772  13.187
 2767SOL    HW210199   4.467   0.842  13.173
 2768SOL     OW10200  12.348  14.139   5.430
 2768SOL    HW110201  12.429  14.088   5.434
 2768SOL    HW210202  12.301  14.104   5.355
 2769SOL     OW10203  13.423  12.081  14.255
 2769SOL    HW110204  13.440  12.082  14.349
 2769SOL    HW210205  13.328  12.083  14.248
 2770SOL     OW10206   0.565  12.467  13.954
 2770SOL    HW110207   0.485  12.416  13.947
 2770SOL    HW210208   0.563  12.526  13.878
 2771SOL     OW10209  13.657   4.466  11.816
 2771SOL    HW110210  13.604   4.393  11.786
 2771SOL    HW210211  13.646   4.467  11.911
 2772SOL     OW10212  14.009  11.674   3.603
 2772SOL    HW110213  13.953  11.706   3.674
 2772SOL    HW210214  14.010  11.746   3.539
 2773SOL     OW10215   9.441   4.494   2.533
 2773SOL    HW110216   9.502   4.420   2.533
 2773SOL    HW210217   9.365   4.463   2.582
 2774SOL     OW10218   7.192   5.123   4.843
 2774SOL    HW110219   7.139   5.046   4.823
 2774SOL    HW210220   7.168   5.187   4.776
 2775SOL     OW10221   6.310   4.614   0.509
 2775SOL    HW110222   6.381   4.565   0.467
 2775SOL    HW210223   6.353   4.662   0.580
 2776SOL     OW10224   2.191   4.288   0.468
 2776SOL    HW110225   2.257   4.241   0.519
 2776SOL    HW210226   2.186   4.374   0.508
 2777SOL     OW10227   7.087   3.732  10.907
 2777SOL    HW110228   7.157   3.731  10.842
 2777SOL    HW210229   7.131   3.724  10.991
 2778SOL     OW10230   9.928   9.528   9.425
 2778SOL    HW110231   9.950   9.438   9.400
 2778SOL    HW210232   9.964   9.582   9.354
 2779SOL     OW10233   3.625   7.466  13.911
 2779SOL    HW110234   3.710   7.459  13.953
 2779SOL    HW210235   3.604   7.560  13.914
 2780SOL     OW10236   8.792  12.993   9.272
 2780SOL    HW110237   8.828  12.935   9.205
 2780SOL    HW210238   8.815  12.951   9.355
 2781SOL     OW10239   2.993  12.163  12.574
 2781SOL    HW110240   2.953  12.101  12.513
 2781SOL    HW210241   3.087  12.143  12.570
 2782SOL     OW10242   7.321   9.838   1.034
 2782SOL    HW110243   7.235   9.868   1.006
 2782SOL    HW210244   7.380   9.910   1.012
 2783SOL     OW10245  10.219   9.919   3.820
 2783SOL    HW110246  10.271   9.924   3.900
 2783SOL    HW210247  10.283   9.905   3.750
 2784SOL     OW10248   0.592  13.000  11.542
 2784SOL    HW110249   0.523  13.066  11.547
 2784SOL    HW210250   0.590  12.969  11.452
 2785SOL     OW10251  12.966   8.840   0.605
 2785SOL    HW110252  12.900   8.858   0.672
 2785SOL    HW210253  12.922   8.858   0.522
 2786SOL     OW10254   8.856   8.995   1.200
 2786SOL    HW110255   8.845   8.900   1.197
 2786SOL    HW210256   8.923   9.015   1.134
 2787SOL     OW10257   0.885   0.760  10.998
 2787SOL    HW110258   0.979   0.769  11.012
 2787SOL    HW210259   0.867   0.668  11.021
 2788SOL     OW10260   4.652  12.792  11.113
 2788SOL    HW110261   4.604  12.812  11.033
 2788SOL    HW210262   4.585  12.787  11.181
 2789SOL     OW10263   4.508  13.713   8.608
 2789SOL    HW110264   4.475  13.696   8.696
 2789SOL    HW210265   4.595  13.672   8.607
 2790SOL     OW10266   1.699  10.803   7.525
 2790SOL    HW110267   1.692  10.894   7.553
 2790SOL    HW210268   1.705  10.808   7.429
 2791SOL     OW10269  11.598  11.549   0.078
 2791SOL    HW110270  11.518  11.539   0.130
 2791SOL    HW210271  11.568  11.592  14.877
 2792SOL     OW10272  11.268  10.489   7.281
 2792SOL    HW110273  11.266  10.579   7.311
 2792SOL    HW210274  11.324  10.444   7.344
 2793SOL     OW10275   1.497   2.933   0.976
 2793SOL    HW110276   1.511   3.005   0.914
 2793SOL    HW210277   1.583   2.922   1.018
 2794SOL     OW10278  11.331   6.669  14.244
 2794SOL    HW110279  11.326   6.642  14.153
 2794SOL    HW210280  11.421   6.697  14.257
 2795SOL     OW10281  13.009  13.092   0.150
 2795SOL    HW110282  12.996  13.158   0.082
 2795SOL    HW210283  12.926  13.091   0.198
 2796SOL     OW10284   4.303   5.258  13.757
 2796SOL    HW110285   4.316   5.254  13.662
 2796SOL    HW210286   4.362   5.190  13.792
 2797SOL     OW10287   0.333   4.879   7.869
 2797SOL    HW110288   0.403   4.909   7.928
 2797SOL    HW210289   0.347   4.785   7.863
 2798SOL     OW10290   1.451  10.841   9.065
 2798SOL    HW110291   1.390  10.909   9.036
 2798SOL    HW210292   1.401  10.760   9.061
 2799SOL     OW10293  14.414   2.829  12.847
 2799SOL    HW110294  14.352   2.787  12.787
 2799SOL    HW210295  14.426   2.917  12.811
 2800SOL     OW10296   5.959   2.896   9.272
 2800SOL    HW110297   5.886   2.868   9.217
 2800SOL    HW210298   5.932   2.875   9.362
 2801SOL     OW10299   9.086   9.521   9.148
 2801SOL    HW110300   9.116   9.432   9.128
 2801SOL    HW210301   9.032   9.511   9.226
 2802SOL     OW10302  13.463  12.967  13.339
 2802SOL    HW110303  13.526  12.937  13.405
 2802SOL    HW210304  13.514  13.021  13.280
 2803SOL     OW10305  10.523   1.697  13.044
 2803SOL    HW110306  10.551   1.605  13.045
 2803SOL    HW210307  10.538   1.726  12.954
 2804SOL     OW10308  10.180  10.894   9.825
 2804SOL    HW110309  10.178  10.925   9.916
 2804SOL    HW210310  10.251  10.830   9.824
 2805SOL     OW10311  11.808  13.899   6.758
 2805SOL    HW110312  11.765  13.836   6.700
 2805SOL    HW210313  11.737  13.951   6.795
 2806SOL     OW10314  11.574  12.220   6.565
 2806SOL    HW110315  11.606  12.233   6.654
 2806SOL    HW210316  11.527  12.137   6.568
 2807SOL     OW10317  12.433   5.758   0.988
 2807SOL    HW110318  12.398   5.754   1.076
 2807SOL    HW210319  12.525   5.779   0.999
 2808SOL     OW10320  10.373   4.166  10.213
 2808SOL    HW110321  10.452   4.168  10.159
 2808SOL    HW210322  10.301   4.164  10.150
 2809SOL     OW10323   5.874   3.857   2.930
 2809SOL    HW110324   5.938   3.881   2.863
 2809SOL    HW210325   5.920   3.793   2.985
 2810SOL     OW10326   3.743   3.069  10.934
 2810SOL    HW110327   3.652   3.046  10.915
 2810SOL    HW210328   3.753   3.157  10.897
 2811SOL     OW10329   3.727   9.236   0.387
 2811SOL    HW110330   3.686   9.241   0.473
 2811SOL    HW210331   3.711   9.146   0.358
 2812SOL     OW10332   0.604   8.517   9.135
 2812SOL    HW110333   0.543   8.580   9.172
 2812SOL    HW210334   0.549   8.444   9.106
 2813SOL     OW10335  12.417   4.150   9.554
 2813SOL    HW110336  12.505   4.174   9.581
 2813SOL    HW210337  12.363   4.226   9.578
 2814SOL     OW10338   5.001   5.740   8.422
 2814SOL    HW110339   4.952   5.802   8.367
 2814SOL    HW210340   5.026   5.670   8.363
 2815SOL     OW10341  12.314   4.870   2.325
 2815SOL    HW110342  12.407   4.851   2.337
 2815SOL    HW210343  12.273   4.846   2.407
 2816SOL     OW10344   1.639   8.168   0.464
 2816SOL    HW110345   1.562   8.208   0.503
 2816SOL    HW210346   1.604   8.102   0.404
 2817SOL     OW10347   0.282  11.421  13.097
 2817SOL    HW110348   0.324  11.410  13.012
 2817SOL    HW210349   0.233  11.502  13.089
 2818SOL     OW10350   9.092  14.713  10.319
 2818SOL    HW110351   9.093  14.618  10.333
 2818SOL    HW210352   9.130  14.749  10.399
 2819SOL     OW10353   8.083  12.410   7.282
 2819SOL    HW110354   8.011  12.406   7.219
 2819SOL    HW210355   8.150  12.353   7.245
 2820SOL     OW10356   4.176   8.533   0.013
 2820SOL    HW110357   4.262   8.573   0.007
 2820SOL    HW210358   4.193   8.439   0.015
 2821SOL     OW10359  14.489   8.368   4.592
 2821SOL    HW110360  14.428   8.338   4.659
 2821SOL    HW210361  14.571   8.324   4.613
 2822SOL     OW10362  11.185   2.422  11.687
 2822SOL    HW110363  11.106   2.461  11.723
 2822SOL    HW210364  11.176   2.328  11.702
 2823SOL     OW10365   0.419   6.670   6.720
 2823SOL    HW110366   0.484   6.607   6.749
 2823SOL    HW210367   0.340   6.618   6.706
 2824SOL     OW10368  12.368   8.523  12.119
 2824SOL    HW110369  12.423   8.496  12.045
 2824SOL    HW210370  12.345   8.614  12.100
 2825SOL     OW10371   1.315   9.996   1.976
 2825SOL    HW110372   1.362   9.917   1.947
 2825SOL    HW210373   1.223   9.970   1.975
 2826SOL     OW10374   2.615   1.339  11.713
 2826SOL    HW110375   2.599   1.273  11.780
 2826SOL    HW210376   2.528   1.373  11.691
 2827SOL     OW10377  12.891   8.301   3.061
 2827SOL    HW110378  12.983   8.325   3.069
 2827SOL    HW210379  12.867   8.270   3.148
 2828SOL     OW10380  14.275   2.603   5.246
 2828SOL    HW110381  14.206   2.669   5.232
 2828SOL    HW210382  14.259   2.570   5.335
 2829SOL     OW10383   0.169   9.258  14.787
 2829SOL    HW110384   0.079   9.286  14.772
 2829SOL    HW210385   0.160   9.169  14.823
 2830SOL     OW10386   1.540  12.747   5.883
 2830SOL    HW110387   1.536  12.652   5.873
 2830SOL    HW210388   1.633  12.768   5.881
 2831SOL     OW10389   4.082   1.976  14.373
 2831SOL    HW110390   3.990   1.955  14.384
 2831SOL    HW210391   4.090   2.068  14.398
 2832SOL     OW10392   2.074  12.888   1.492
 2832SOL    HW110393   2.043  12.798   1.479
 2832SOL    HW210394   2.003  12.943   1.463
 2833SOL     OW10395   0.770   2.897   5.809
 2833SOL    HW110396   0.677   2.912   5.822
 2833SOL    HW210397   0.808   2.906   5.897
 2834SOL     OW10398   5.040   5.295   8.130
 2834SOL    HW110399   5.047   5.206   8.097
 2834SOL    HW210400   5.006   5.346   8.056
 2835SOL     OW10401   6.585   1.849   6.666
 2835SOL    HW110402   6.622   1.768   6.701
 2835SOL    HW210403   6.647   1.877   6.600
 2836SOL     OW10404   7.200   6.687   4.132
 2836SOL    HW110405   7.108   6.662   4.139
 2836SOL    HW210406   7.247   6.625   4.188
 2837SOL     OW10407   0.955   1.319   0.522
 2837SOL    HW110408   1.003   1.244   0.486
 2837SOL    HW210409   0.896   1.346   0.452
 2838SOL     OW10410   2.640   8.521   4.022
 2838SOL    HW110411   2.598   8.452   4.073
 2838SOL    HW210412   2.718   8.544   4.073
 2839SOL     OW10413   8.016   3.140  11.413
 2839SOL    HW110414   8.040   3.106  11.499
 2839SOL    HW210415   8.098   3.145  11.365
 2840SOL     OW10416   9.069   4.898   0.818
 2840SOL    HW110417   9.073   4.951   0.738
 2840SOL    HW210418   9.160   4.886   0.843
 2841SOL     OW10419   9.836  14.654  11.359
 2841SOL    HW110420   9.928  14.654  11.386
 2841SOL    HW210421   9.806  14.564  11.374
 2842SOL     OW10422   3.838  12.209  10.592
 2842SOL    HW110423   3.864  12.132  10.642
 2842SOL    HW210424   3.919  12.243  10.556
 2843SOL     OW10425   2.093  11.992  10.175
 2843SOL    HW110426   2.052  12.061  10.228
 2843SOL    HW210427   2.162  11.956  10.232
 2844SOL     OW10428  12.346  11.171   6.943
 2844SOL    HW110429  12.319  11.079   6.939
 2844SOL    HW210430  12.274  11.219   6.902
 2845SOL     OW10431   6.620   5.987   3.187
 2845SOL    HW110432   6.585   6.029   3.109
 2845SOL    HW210433   6.613   6.054   3.255
 2846SOL     OW10434   6.612   4.443  11.051
 2846SOL    HW110435   6.663   4.447  11.132
 2846SOL    HW210436   6.638   4.521  11.002
 2847SOL     OW10437   5.764   5.544   4.902
 2847SOL    HW110438   5.730   5.511   4.819
 2847SOL    HW210439   5.688   5.549   4.959
 2848SOL     OW10440  10.445   3.572   9.615
 2848SOL    HW110441  10.465   3.655   9.660
 2848SOL    HW210442  10.491   3.578   9.532
 2849SOL     OW10443   8.802   2.535  12.199
 2849SOL    HW110444   8.821   2.490  12.117
 2849SOL    HW210445   8.868   2.502  12.260
 2850SOL     OW10446   4.538   0.403  14.689
 2850SOL    HW110447   4.452   0.404  14.731
 2850SOL    HW210448   4.518   0.403  14.595
 2851SOL     OW10449  14.047  13.472   9.126
 2851SOL    HW110450  13.984  13.542   9.110
 2851SOL    HW210451  13.997  13.391   9.113
 2852SOL     OW10452  10.664   8.765   3.055
 2852SOL    HW110453  10.596   8.813   3.102
 2852SOL    HW210454  10.742   8.820   3.062
 2853SOL     OW10455   4.815   7.268   4.706
 2853SOL    HW110456   4.906   7.265   4.736
 2853SOL    HW210457   4.768   7.314   4.775
 2854SOL     OW10458  14.221  11.646  10.870
 2854SOL    HW110459  14.316  11.634  10.877
 2854SOL    HW210460  14.184  11.579  10.927
 2855SOL     OW10461   1.944   3.016  10.771
 2855SOL    HW110462   1.897   3.068  10.705
 2855SOL    HW210463   2.023   2.987  10.725
 2856SOL     OW10464   4.215   6.618   6.206
 2856SOL    HW110465   4.145   6.611   6.142
 2856SOL    HW210466   4.194   6.554   6.273
 2857SOL     OW10467   0.351  10.254  11.558
 2857SOL    HW110468   0.275  10.203  11.587
 2857SOL    HW210469   0.414  10.188  11.529
 2858SOL     OW10470  13.232  12.691   7.704
 2858SOL    HW110471  13.140  12.706   7.725
 2858SOL    HW210472  13.237  12.706   7.609
 2859SOL     OW10473   3.542  13.137  10.592
 2859SOL    HW110474   3.457  13.126  10.635
 2859SOL    HW210475   3.605  13.103  10.655
 2860SOL     OW10476  11.824   8.523   1.507
 2860SOL    HW110477  11.732   8.497   1.508
 2860SOL    HW210478  11.834   8.582   1.581
 2861SOL     OW10479  10.252   4.817   9.120
 2861SOL    HW110480  10.197   4.883   9.162
 2861SOL    HW210481  10.214   4.734   9.148
 2862SOL     OW10482   5.336  11.161   7.466
 2862SOL    HW110483   5.284  11.163   7.385
 2862SOL    HW210484   5.426  11.146   7.436
 2863SOL     OW10485  11.584   9.219   8.847
 2863SOL    HW110486  11.490   9.230   8.834
 2863SOL    HW210487  11.595   9.221   8.942
 2864SOL     OW10488  14.414   4.230   4.006
 2864SOL    HW110489  14.327   4.262   3.982
 2864SOL    HW210490  14.459   4.220   3.922
 2865SOL     OW10491   0.778  10.064  10.553
 2865SOL    HW110492   0.707  10.123  10.579
 2865SOL    HW210493   0.734   9.981  10.533
 2866SOL     OW10494   5.538  14.479  13.737
 2866SOL    HW110495   5.589  14.403  13.767
 2866SOL    HW210496   5.535  14.470  13.642
 2867SOL     OW10497   0.305   4.983   5.671
 2867SOL    HW110498   0.261   4.908   5.710
 2867SOL    HW210499   0.234   5.041   5.644
 2868SOL     OW10500   7.890   9.661   8.919
 2868SOL    HW110501   7.819   9.700   8.868
 2868SOL    HW210502   7.892   9.569   8.893
 2869SOL     OW10503   1.378   0.709   3.736
 2869SOL    HW110504   1.423   0.647   3.680
 2869SOL    HW210505   1.448   0.761   3.777
 2870SOL     OW10506   5.270   8.604  10.741
 2870SOL    HW110507   5.349   8.557  10.768
 2870SOL    HW210508   5.259   8.582  10.649
 2871SOL     OW10509   3.453   2.675   6.354
 2871SOL    HW110510   3.500   2.598   6.386
 2871SOL    HW210511   3.422   2.651   6.267
 2872SOL     OW10512   5.962  12.165   0.094
 2872SOL    HW110513   5.977  12.161  14.880
 2872SOL    HW210514   6.016  12.094   0.130
 2873SOL     OW10515   2.419   2.578   2.527
 2873SOL    HW110516   2.478   2.521   2.575
 2873SOL    HW210517   2.377   2.633   2.594
 2874SOL     OW10518  12.932   4.875   8.719
 2874SOL    HW110519  12.873   4.812   8.760
 2874SOL    HW210520  12.992   4.902   8.790
 2875SOL     OW10521   1.121   5.100  13.557
 2875SOL    HW110522   1.147   5.185  13.593
 2875SOL    HW210523   1.108   5.117  13.464
 2876SOL     OW10524   7.741   0.370  13.447
 2876SOL    HW110525   7.767   0.279  13.464
 2876SOL    HW210526   7.816   0.422  13.476
 2877SOL     OW10527   1.051  14.556   2.934
 2877SOL    HW110528   1.094  14.478   2.897
 2877SOL    HW210529   0.984  14.520   2.993
 2878SOL     OW10530   6.567  13.674  14.052
 2878SOL    HW110531   6.514  13.627  13.988
 2878SOL    HW210532   6.531  13.648  14.137
 2879SOL     OW10533  13.229   4.086  11.055
 2879SOL    HW110534  13.220   4.052  10.966
 2879SOL    HW210535  13.198   4.176  11.049
 2880SOL     OW10536   4.173   4.712   5.568
 2880SOL    HW110537   4.204   4.802   5.575
 2880SOL    HW210538   4.089   4.712   5.613
 2881SOL     OW10539   0.748   2.600  13.252
 2881SOL    HW110540   0.758   2.545  13.174
 2881SOL    HW210541   0.661   2.578  13.286
 2882SOL     OW10542   1.880   8.769   0.348
 2882SOL    HW110543   1.909   8.684   0.382
 2882SOL    HW210544   1.865   8.753   0.255
 2883SOL     OW10545   8.421   0.638   7.062
 2883SOL    HW110546   8.328   0.618   7.068
 2883SOL    HW210547   8.440   0.688   7.141
 2884SOL     OW10548  14.160   1.728   4.013
 2884SOL    HW110549  14.231   1.713   4.076
 2884SOL    HW210550  14.187   1.680   3.935
 2885SOL     OW10551   4.450  14.739   5.761
 2885SOL    HW110552   4.433  14.794   5.684
 2885SOL    HW210553   4.368  14.744   5.812
 2886SOL     OW10554   1.690   9.107  13.190
 2886SOL    HW110555   1.639   9.026  13.178
 2886SOL    HW210556   1.701   9.141  13.101
 2887SOL     OW10557   6.788  14.701   6.152
 2887SOL    HW110558   6.740  14.619   6.165
 2887SOL    HW210559   6.812  14.729   6.240
 2888SOL     OW10560   9.767   7.923  14.750
 2888SOL    HW110561   9.813   7.854  14.703
 2888SOL    HW210562   9.784   8.003  14.700
 2889SOL     OW10563  13.375  13.836  12.718
 2889SOL    HW110564  13.382  13.766  12.654
 2889SOL    HW210565  13.281  13.856  12.722
 2890SOL     OW10566   3.880   6.526  10.168
 2890SOL    HW110567   3.856   6.434  10.161
 2890SOL    HW210568   3.976   6.527  10.167
 2891SOL     OW10569  12.316  11.215  10.317
 2891SOL    HW110570  12.324  11.303  10.281
 2891SOL    HW210571  12.230  11.213  10.357
 2892SOL     OW10572   6.465   3.582   3.825
 2892SOL    HW110573   6.406   3.574   3.750
 2892SOL    HW210574   6.510   3.665   3.811
 2893SOL     OW10575   3.594  13.161   6.253
 2893SOL    HW110576   3.685  13.190   6.266
 2893SOL    HW210577   3.554  13.232   6.204
 2894SOL     OW10578   6.336  10.389   1.079
 2894SOL    HW110579   6.377  10.429   1.002
 2894SOL    HW210580   6.409  10.353   1.130
 2895SOL     OW10581   2.655   2.114   2.544
 2895SOL    HW110582   2.561   2.131   2.537
 2895SOL    HW210583   2.661   2.029   2.586
 2896SOL     OW10584  10.655  13.059   0.859
 2896SOL    HW110585  10.604  13.112   0.798
 2896SOL    HW210586  10.745  13.088   0.846
 2897SOL     OW10587   5.452   3.380   3.614
 2897SOL    HW110588   5.417   3.466   3.591
 2897SOL    HW210589   5.386   3.342   3.672
 2898SOL     OW10590   3.961   5.983   8.728
 2898SOL    HW110591   3.990   5.919   8.793
 2898SOL    HW210592   4.037   6.041   8.717
 2899SOL     OW10593  12.101  10.865   9.840
 2899SOL    HW110594  12.068  10.907   9.920
 2899SOL    HW210595  12.087  10.931   9.772
 2900SOL     OW10596   3.026   7.404   4.714
 2900SOL    HW110597   3.029   7.428   4.807
 2900SOL    HW210598   3.012   7.309   4.714
 2901SOL     OW10599   4.115  12.834  11.849
 2901SOL    HW110600   4.035  12.782  11.853
 2901SOL    HW210601   4.154  12.811  11.764
 2902SOL     OW10602  11.982   0.957  12.977
 2902SOL    HW110603  11.891   0.956  12.948
 2902SOL    HW210604  12.033   0.973  12.897
 2903SOL     OW10605   9.540  13.851  14.511
 2903SOL    HW110606   9.459  13.877  14.554
 2903SOL    HW210607   9.605  13.849  14.581
 2904SOL     OW10608   7.270   3.973   7.552
 2904SOL    HW110609   7.177   3.950   7.548
 2904SOL    HW210610   7.272   4.066   7.530
 2905SOL     OW10611  13.746   1.868   1.306
 2905SOL    HW110612  13.720   1.863   1.214
 2905SOL    HW210613  13.761   1.778   1.333
 2906SOL     OW10614   4.694  11.636   7.848
 2906SOL    HW110615   4.701  11.552   7.803
 2906SOL    HW210616   4.662  11.615   7.936
 2907SOL     OW10617   6.583   3.451  11.738
 2907SOL    HW110618   6.659   3.460  11.795
 2907SOL    HW210619   6.618   3.460  11.649
 2908SOL     OW10620   0.889   2.957   0.447
 2908SOL    HW110621   0.974   2.930   0.483
 2908SOL    HW210622   0.911   3.021   0.380
 2909SOL     OW10623   8.572   9.663   9.057
 2909SOL    HW110624   8.656   9.646   9.100
 2909SOL    HW210625   8.508   9.616   9.111
 2910SOL     OW10626  14.414  10.183   5.443
 2910SOL    HW110627  14.503  10.156   5.418
 2910SOL    HW210628  14.389  10.122   5.513
 2911SOL     OW10629   2.673  14.350   6.566
 2911SOL    HW110630   2.734  14.276   6.560
 2911SOL    HW210631   2.601  14.325   6.508
 2912SOL     OW10632  12.894  10.516   7.187
 2912SOL    HW110633  12.810  10.479   7.216
 2912SOL    HW210634  12.869  10.594   7.137
 2913SOL     OW10635   0.035   7.938   3.622
 2913SOL    HW110636   0.035   7.881   3.546
 2913SOL    HW210637  14.879   7.884   3.693
 2914SOL     OW10638  12.207  12.165  11.215
 2914SOL    HW110639  12.228  12.188  11.124
 2914SOL    HW210640  12.115  12.137  11.212
 2915SOL     OW10641   5.055   0.246   3.135
 2915SOL    HW110642   5.121   0.177   3.144
 2915SOL    HW210643   5.085   0.316   3.193
 2916SOL     OW10644   1.807  12.027  13.632
 2916SOL    HW110645   1.745  12.084  13.677
 2916SOL    HW210646   1.858  12.087  13.577
 2917SOL     OW10647   9.876   1.263  12.190
 2917SOL    HW110648   9.898   1.325  12.120
 2917SOL    HW210649   9.925   1.294  12.266
 2918SOL     OW10650  13.065  10.136  11.686
 2918SOL    HW110651  13.042  10.072  11.619
 2918SOL    HW210652  13.015  10.214  11.664
 2919SOL     OW10653  12.415  14.286  12.196
 2919SOL    HW110654  12.357  14.308  12.269
 2919SOL    HW210655  12.418  14.191  12.195
 2920SOL     OW10656  14.336  11.554   1.115
 2920SOL    HW110657  14.266  11.599   1.163
 2920SOL    HW210658  14.293  11.516   1.038
 2921SOL     OW10659   4.724  12.005  11.776
 2921SOL    HW110660   4.722  11.936  11.842
 2921SOL    HW210661   4.811  12.044  11.786
 2922SOL     OW10662  12.800   0.231   5.010
 2922SOL    HW110663  12.790   0.316   5.052
 2922SOL    HW210664  12.761   0.169   5.072
 2923SOL     OW10665   3.295   3.925  14.809
 2923SOL    HW110666   3.299   4.016  14.778
 2923SOL    HW210667   3.366   3.881  14.762
 2924SOL     OW10668   0.059   3.242   0.697
 2924SOL    HW110669   0.030   3.304   0.631
 2924SOL    HW210670  14.878   3.169   0.690
 2925SOL     OW10671   3.973   0.044   4.192
 2925SOL    HW110672   3.960   0.072   4.283
 2925SOL    HW210673   4.030  14.848   4.198
 2926SOL     OW10674  11.521   1.527   3.698
 2926SOL    HW110675  11.527   1.503   3.790
 2926SOL    HW210676  11.530   1.623   3.697
 2927SOL     OW10677  13.821  14.407   5.476
 2927SOL    HW110678  13.794  14.479   5.419
 2927SOL    HW210679  13.745  14.390   5.531
 2928SOL     OW10680  10.502  11.621   3.296
 2928SOL    HW110681  10.515  11.638   3.390
 2928SOL    HW210682  10.415  11.583   3.291
 2929SOL     OW10683  10.892   8.160   3.034
 2929SOL    HW110684  10.915   8.077   2.993
 2929SOL    HW210685  10.825   8.197   2.978
 2930SOL     OW10686   0.049  14.832   7.916
 2930SOL    HW110687  14.852  14.792   7.957
 2930SOL    HW210688   0.014   0.029   7.869
 2931SOL     OW10689   2.810   7.455   4.933
 2931SOL    HW110690   2.848   7.539   4.909
 2931SOL    HW210691   2.814   7.453   5.029
 2932SOL     OW10692   9.926   2.120  12.223
 2932SOL    HW110693   9.978   2.126  12.143
 2932SOL    HW210694   9.867   2.046  12.208
 2933SOL     OW10695  11.734   5.489  11.148
 2933SOL    HW110696  11.732   5.431  11.073
 2933SOL    HW210697  11.665   5.554  11.130
 2934SOL     OW10698   8.418   3.333   2.161
 2934SOL    HW110699   8.485   3.401   2.168
 2934SOL    HW210700   8.396   3.330   2.068
 2935SOL     OW10701  12.213  11.761  11.887
 2935SOL    HW110702  12.138  11.733  11.835
 2935SOL    HW210703  12.174  11.809  11.960
 2936SOL     OW10704   3.643  13.654   8.471
 2936SOL    HW110705   3.561  13.631   8.515
 2936SOL    HW210706   3.699  13.687   8.542
 2937SOL     OW10707   3.964   2.745   2.280
 2937SOL    HW110708   4.057   2.730   2.298
 2937SOL    HW210709   3.954   2.720   2.188
 2938SOL     OW10710   2.902  10.805  11.747
 2938SOL    HW110711   2.940  10.886  11.782
 2938SOL    HW210712   2.823  10.792  11.798
 2939SOL     OW10713   6.448   4.522   3.430
 2939SOL    HW110714   6.440   4.561   3.517
 2939SOL    HW210715   6.542   4.528   3.410
 2940SOL     OW10716   1.367   0.588  14.336
 2940SOL    HW110717   1.354   0.529  14.410
 2940SOL    HW210718   1.297   0.566  14.274
 2941SOL     OW10719   0.833  14.026   1.979
 2941SOL    HW110720   0.861  14.022   2.070
 2941SOL    HW210721   0.815  13.935   1.955
 2942SOL     OW10722   7.363   3.947   4.502
 2942SOL    HW110723   7.363   3.931   4.407
 2942SOL    HW210724   7.448   3.913   4.532
 2943SOL     OW10725   9.751  12.794   4.955
 2943SOL    HW110726   9.846  12.805   4.961
 2943SOL    HW210727   9.731  12.724   5.017
 2944SOL     OW10728  14.360  11.834   5.171
 2944SOL    HW110729  14.325  11.765   5.115
 2944SOL    HW210730  14.317  11.821   5.255
 2945SOL     OW10731   4.565  12.577   3.768
 2945SOL    HW110732   4.535  12.500   3.720
 2945SOL    HW210733   4.546  12.556   3.860
 2946SOL     OW10734  12.712  11.261  12.461
 2946SOL    HW110735  12.675  11.237  12.376
 2946SOL    HW210736  12.791  11.206  12.469
 2947SOL     OW10737  12.356   3.461  11.283
 2947SOL    HW110738  12.315   3.531  11.232
 2947SOL    HW210739  12.336   3.483  11.374
 2948SOL     OW10740   3.911   0.878   8.410
 2948SOL    HW110741   3.951   0.901   8.326
 2948SOL    HW210742   3.975   0.908   8.475
 2949SOL     OW10743  14.750   9.317  10.174
 2949SOL    HW110744  14.685   9.320  10.245
 2949SOL    HW210745  14.830   9.287  10.217
 2950SOL     OW10746  12.937   3.577   9.457
 2950SOL    HW110747  12.956   3.497   9.408
 2950SOL    HW210748  12.852   3.606   9.424
 2951SOL     OW10749   7.543   1.073   3.325
 2951SOL    HW110750   7.576   0.984   3.329
 2951SOL    HW210751   7.465   1.068   3.270
 2952SOL     OW10752   0.379  14.753   1.413
 2952SOL    HW110753   0.340  14.693   1.349
 2952SOL    HW210754   0.468  14.768   1.381
 2953SOL     OW10755   1.781  10.998   3.744
 2953SOL    HW110756   1.780  11.004   3.839
 2953SOL    HW210757   1.810  11.085   3.715
 2954SOL     OW10758  14.652  10.459   8.410
 2954SOL    HW110759  14.592  10.521   8.369
 2954SOL    HW210760  14.648  10.480   8.504
 2955SOL     OW10761   4.088   9.253   7.527
 2955SOL    HW110762   4.039   9.172   7.513
 2955SOL    HW210763   4.179   9.226   7.537
 2956SOL     OW10764   6.682   7.042   8.964
 2956SOL    HW110765   6.724   6.988   8.898
 2956SOL    HW210766   6.625   6.981   9.012
 2957SOL     OW10767   2.291   3.542   9.986
 2957SOL    HW110768   2.319   3.589  10.064
 2957SOL    HW210769   2.350   3.572   9.917
 2958SOL     OW10770   4.685   7.075   3.950
 2958SOL    HW110771   4.632   7.084   3.871
 2958SOL    HW210772   4.775   7.092   3.921
 2959SOL     OW10773   1.680   0.716  10.845
 2959SOL    HW110774   1.591   0.680  10.849
 2959SOL    HW210775   1.681   0.770  10.765
 2960SOL     OW10776   6.691  11.852  13.701
 2960SOL    HW110777   6.734  11.853  13.787
 2960SOL    HW210778   6.663  11.761  13.689
 2961SOL     OW10779   8.768   1.913  14.434
 2961SOL    HW110780   8.694   1.972  14.418
 2961SOL    HW210781   8.844   1.970  14.429
 2962SOL     OW10782   0.028   8.208   2.061
 2962SOL    HW110783   0.067   8.135   2.011
 2962SOL    HW210784  14.860   8.165   2.132
 2963SOL     OW10785  11.056   1.622   1.377
 2963SOL    HW110786  10.963   1.600   1.381
 2963SOL    HW210787  11.072   1.640   1.284
 2964SOL     OW10788   2.847   1.281  11.086
 2964SOL    HW110789   2.866   1.218  11.156
 2964SOL    HW210790   2.762   1.318  11.109
 2965SOL     OW10791  14.841  10.262   8.997
 2965SOL    HW110792  14.773  10.199   9.021
 2965SOL    HW210793  14.794  10.332   8.952
 2966SOL     OW10794  10.447   9.263   4.108
 2966SOL    HW110795  10.505   9.308   4.170
 2966SOL    HW210796  10.369   9.241   4.160
 2967SOL     OW10797   7.561   4.883   4.433
 2967SOL    HW110798   7.488   4.823   4.420
 2967SOL    HW210799   7.619   4.839   4.495
 2968SOL     OW10800   6.152   8.410   6.114
 2968SOL    HW110801   6.157   8.317   6.133
 2968SOL    HW210802   6.131   8.414   6.020
 2969SOL     OW10803   1.923   4.643   2.632
 2969SOL    HW110804   2.003   4.595   2.610
 2969SOL    HW210805   1.860   4.616   2.565
 2970SOL     OW10806  12.781  13.126   3.646
 2970SOL    HW110807  12.728  13.173   3.582
 2970SOL    HW210808  12.819  13.195   3.701
 2971SOL     OW10809  13.423   0.175   0.327
 2971SOL    HW110810  13.422   0.141   0.237
 2971SOL    HW210811  13.451   0.266   0.317
 2972SOL     OW10812  11.646  11.434  14.000
 2972SOL    HW110813  11.580  11.499  13.976
 2972SOL    HW210814  11.692  11.416  13.918
 2973SOL     OW10815   4.541   8.138  13.726
 2973SOL    HW110816   4.502   8.225  13.741
 2973SOL    HW210817   4.470   8.087  13.686
 2974SOL     OW10818   4.344   3.795   2.403
 2974SOL    HW110819   4.361   3.777   2.495
 2974SOL    HW210820   4.431   3.798   2.363
 2975SOL     OW10821  11.186   5.630  13.273
 2975SOL    HW110822  11.190   5.576  13.352
 2975SOL    HW210823  11.141   5.574  13.209
 2976SOL     OW10824   8.380   2.949   6.654
 2976SOL    HW110825   8.346   2.895   6.582
 2976SOL    HW210826   8.430   3.018   6.610
 2977SOL     OW10827   5.226   4.034   5.873
 2977SOL    HW110828   5.237   4.113   5.821
 2977SOL    HW210829   5.292   4.041   5.942
 2978SOL     OW10830   9.286   2.164   0.635
 2978SOL    HW110831   9.324   2.156   0.548
 2978SOL    HW210832   9.295   2.076   0.673
 2979SOL     OW10833   0.400   4.169   0.524
 2979SOL    HW110834   0.317   4.218   0.519
 2979SOL    HW210835   0.439   4.178   0.437
 2980SOL     OW10836  14.535   5.001  12.104
 2980SOL    HW110837  14.493   4.925  12.144
 2980SOL    HW210838  14.623   4.970  12.081
 2981SOL     OW10839   7.140   0.446   0.228
 2981SOL    HW110840   7.135   0.533   0.266
 2981SOL    HW210841   7.082   0.449   0.152
 2982SOL     OW10842  14.879   8.670  11.179
 2982SOL    HW110843  14.865   8.624  11.262
 2982SOL    HW210844  14.791   8.692  11.148
 2983SOL     OW10845   0.633  13.257  14.814
 2983SOL    HW110846   0.663  13.334  14.862
 2983SOL    HW210847   0.539  13.270  14.803
 2984SOL     OW10848   9.972  12.285   5.435
 2984SOL    HW110849   9.881  12.270   5.409
 2984SOL    HW210850   9.970  12.292   5.530
 2985SOL     OW10851  12.820  14.536  10.006
 2985SOL    HW110852  12.872  14.531  10.086
 2985SOL    HW210853  12.830  14.450   9.965
 2986SOL     OW10854  12.411  10.994   3.937
 2986SOL    HW110855  12.394  10.932   3.866
 2986SOL    HW210856  12.416  11.079   3.893
 2987SOL     OW10857   8.585  14.561   5.999
 2987SOL    HW110858   8.572  14.507   5.920
 2987SOL    HW210859   8.526  14.635   5.986
 2988SOL     OW10860  13.804  14.396  11.550
 2988SOL    HW110861  13.751  14.334  11.500
 2988SOL    HW210862  13.794  14.479  11.503
 2989SOL     OW10863  11.753   3.078  11.521
 2989SOL    HW110864  11.755   3.141  11.449
 2989SOL    HW210865  11.709   3.002  11.485
 2990SOL     OW10866  12.276   8.689   7.071
 2990SOL    HW110867  12.188   8.721   7.087
 2990SOL    HW210868  12.323   8.705   7.153
 2991SOL     OW10869   9.892   2.501   9.548
 2991SOL    HW110870   9.907   2.459   9.464
 2991SOL    HW210871   9.859   2.588   9.526
 2992SOL     OW10872   7.754   0.460   7.787
 2992SOL    HW110873   7.804   0.467   7.868
 2992SOL    HW210874   7.680   0.520   7.799
 2993SOL     OW10875  11.264  10.912   6.217
 2993SOL    HW110876  11.236  10.846   6.281
 2993SOL    HW210877  11.233  10.995   6.252
 2994SOL     OW10878   1.752   3.109   9.361
 2994SOL    HW110879   1.829   3.131   9.307
 2994SOL    HW210880   1.677   3.134   9.307
 2995SOL     OW10881   4.638   2.891   2.987
 2995SOL    HW110882   4.572   2.945   3.028
 2995SOL    HW210883   4.706   2.953   2.958
 2996SOL     OW10884  10.313  11.415  11.218
 2996SOL    HW110885  10.280  11.399  11.306
 2996SOL    HW210886  10.368  11.493  11.227
 2997SOL     OW10887   0.382  10.920   6.365
 2997SOL    HW110888   0.381  10.905   6.460
 2997SOL    HW210889   0.329  10.849   6.329
 2998SOL     OW10890   4.488  10.454   0.781
 2998SOL    HW110891   4.554  10.502   0.731
 2998SOL    HW210892   4.469  10.377   0.728
 2999SOL     OW10893   0.781   0.700   1.991
 2999SOL    HW110894   0.842   0.636   2.027
 2999SOL    HW210895   0.834   0.779   1.978
 3000SOL     OW10896   7.672   2.288  13.321
 3000SOL    HW110897   7.595   2.299  13.267
 3000SOL    HW210898   7.681   2.371  13.368
 3001SOL     OW10899   4.232   8.299  11.959
 3001SOL    HW110900   4.179   8.255  11.893
 3001SOL    HW210901   4.243   8.388  11.925
 3002SOL     OW10902   3.500   3.556   5.384
 3002SOL    HW110903   3.463   3.468   5.392
 3002SOL    HW210904   3.450   3.596   5.313
 3003SOL     OW10905   5.844   4.861   6.312
 3003SOL    HW110906   5.832   4.912   6.393
 3003SOL    HW210907   5.864   4.772   6.343
 3004SOL     OW10908   5.506   9.730  14.047
 3004SOL    HW110909   5.430   9.757  13.996
 3004SOL    HW210910   5.486   9.641  14.075
 3005SOL     OW10911  12.546   9.410  12.950
 3005SOL    HW110912  12.462   9.456  12.952
 3005SOL    HW210913  12.553   9.378  12.860
 3006SOL     OW10914   0.807   3.676  13.750
 3006SOL    HW110915   0.810   3.746  13.815
 3006SOL    HW210916   0.898   3.665  13.723
 3007SOL     OW10917   1.475   6.130  14.074
 3007SOL    HW110918   1.456   6.164  14.161
 3007SOL    HW210919   1.567   6.103  14.077
 3008SOL     OW10920  14.786   5.856   8.251
 3008SOL    HW110921  14.875   5.890   8.242
 3008SOL    HW210922  14.785   5.817   8.339
 3009SOL     OW10923   5.919   8.737   9.118
 3009SOL    HW110924   5.980   8.664   9.129
 3009SOL    HW210925   5.842   8.698   9.078
 3010SOL     OW10926  14.345   7.101   2.004
 3010SOL    HW110927  14.370   7.077   1.914
 3010SOL    HW210928  14.328   7.195   2.000
 3011SOL     OW10929   4.393   5.198   7.734
 3011SOL    HW110930   4.379   5.179   7.641
 3011SOL    HW210931   4.484   5.227   7.739
 3012SOL     OW10932  12.677  12.434   4.036
 3012SOL    HW110933  12.587  12.401   4.029
 3012SOL    HW210934  12.675  12.518   3.991
 3013SOL     OW10935   9.840   0.409  12.372
 3013SOL    HW110936   9.764   0.358  12.396
 3013SOL    HW210937   9.897   0.348  12.325
 3014SOL     OW10938   9.654   0.232  12.521
 3014SOL    HW110939   9.618   0.157  12.568
 3014SOL    HW210940   9.579   0.291  12.509
 3015SOL     OW10941   2.708   0.915   0.819
 3015SOL    HW110942   2.616   0.907   0.794
 3015SOL    HW210943   2.716   0.864   0.899
 3016SOL     OW10944  11.460  10.204   5.170
 3016SOL    HW110945  11.425  10.290   5.190
 3016SOL    HW210946  11.508  10.216   5.087
 3017SOL     OW10947   0.285  11.729  14.669
 3017SOL    HW110948   0.299  11.712  14.576
 3017SOL    HW210949   0.372  11.747  14.704
 3018SOL     OW10950   9.130   4.934   2.683
 3018SOL    HW110951   9.206   4.943   2.740
 3018SOL    HW210952   9.093   5.021   2.678
 3019SOL     OW10953   4.407   5.124   3.330
 3019SOL    HW110954   4.409   5.030   3.348
 3019SOL    HW210955   4.328   5.138   3.279
 3020SOL     OW10956   1.706  13.885  13.205
 3020SOL    HW110957   1.754  13.835  13.139
 3020SOL    HW210958   1.647  13.822  13.245
 3021SOL     OW10959   4.746  13.552   6.846
 3021SOL    HW110960   4.704  13.612   6.907
 3021SOL    HW210961   4.798  13.608   6.789
 3022SOL     OW10962  10.009   0.826  14.334
 3022SOL    HW110963   9.938   0.877  14.372
 3022SOL    HW210964  10.023   0.754  14.396
 3023SOL     OW10965   1.390   6.056   1.011
 3023SOL    HW110966   1.401   6.053   1.106
 3023SOL    HW210967   1.465   6.008   0.976
 3024SOL     OW10968   3.146   2.080   5.725
 3024SOL    HW110969   3.221   2.024   5.707
 3024SOL    HW210970   3.123   2.118   5.640
 3025SOL     OW10971   4.939   6.567  10.021
 3025SOL    HW110972   4.885   6.514  10.079
 3025SOL    HW210973   5.028   6.532  10.032
 3026SOL     OW10974   6.488  13.601   4.935
 3026SOL    HW110975   6.479  13.598   4.840
 3026SOL    HW210976   6.558  13.664   4.951
 3027SOL     OW10977   4.751  13.292  12.774
 3027SOL    HW110978   4.678  13.233  12.756
 3027SOL    HW210979   4.745  13.309  12.868
 3028SOL     OW10980  13.933   5.168  10.362
 3028SOL    HW110981  13.932   5.117  10.442
 3028SOL    HW210982  13.950   5.258  10.391
 3029SOL     OW10983  11.210   3.518   8.798
 3029SOL    HW110984  11.268   3.487   8.727
 3029SOL    HW210985  11.260   3.587   8.841
 3030SOL     OW10986  13.748   1.785  10.350
 3030SOL    HW110987  13.686   1.753  10.283
 3030SOL    HW210988  13.734   1.727  10.425
 3031SOL     OW10989  13.878   9.970   8.586
 3031SOL    HW110990  13.953  10.011   8.542
 3031SOL    HW210991  13.862  10.025   8.663
 3032SOL     OW10992   9.979   8.624   6.424
 3032SOL    HW110993   9.910   8.677   6.384
 3032SOL    HW210994   9.932   8.560   6.478
 3033SOL     OW10995   8.176   3.852  13.830
 3033SOL    HW110996   8.126   3.778  13.795
 3033SOL    HW210997   8.200   3.903  13.753
 3034SOL     OW10998   4.490   8.474   3.314
 3034SOL    HW110999   4.568   8.441   3.271
 3034SOL    HW211000   4.514   8.479   3.407
 3035SOL     OW11001   0.205   2.757   3.277
 3035SOL    HW111002   0.191   2.850   3.259
 3035SOL    HW211003   0.168   2.743   3.364
 3036SOL     OW11004   9.520  10.632   4.636
 3036SOL    HW111005   9.570  10.654   4.715
 3036SOL    HW211006   9.587  10.626   4.567
 3037SOL     OW11007   3.546   1.565   2.418
 3037SOL    HW111008   3.521   1.605   2.334
 3037SOL    HW211009   3.638   1.590   2.430
 3038SOL     OW11010  12.632   9.924  13.251
 3038SOL    HW111011  12.562   9.892  13.193
 3038SOL    HW211012  12.586   9.974  13.319
 3039SOL     OW11013   6.704   2.821   0.220
 3039SOL    HW111014   6.794   2.810   0.189
 3039SOL    HW211015   6.693   2.752   0.286
 3040SOL     OW11016   0.750   3.534   1.664
 3040SOL    HW111017   0.776   3.475   1.594
 3040SOL    HW211018   0.781   3.620   1.636
 3041SOL     OW11019   1.686   3.803   0.872
 3041SOL    HW111020   1.660   3.880   0.821
 3041SOL    HW211021   1.774   3.782   0.841
 3042SOL     OW11022   7.843   1.870  10.455
 3042SOL    HW111023   7.937   1.864  10.435
 3042SOL    HW211024   7.840   1.912  10.541
 3043SOL     OW11025  13.100   5.131   2.772
 3043SOL    HW111026  13.011   5.102   2.752
 3043SOL    HW211027  13.154   5.090   2.704
 3044SOL     OW11028   5.897  12.161   5.406
 3044SOL    HW111029   5.864  12.250   5.401
 3044SOL    HW211030   5.928  12.142   5.318
 3045SOL     OW11031  11.281  13.043   1.119
 3045SOL    HW111032  11.324  13.005   1.043
 3045SOL    HW211033  11.253  13.130   1.090
 3046SOL     OW11034  13.748   5.027   9.463
 3046SOL    HW111035  13.819   5.075   9.420
 3046SOL    HW211036  13.669   5.052   9.413
 3047SOL     OW11037   2.852   0.397   7.351
 3047SOL    HW111038   2.832   0.389   7.257
 3047SOL    HW211039   2.948   0.402   7.354
 3048SOL     OW11040   9.531  11.459  13.200
 3048SOL    HW111041   9.474  11.399  13.151
 3048SOL    HW211042   9.479  11.483  13.277
 3049SOL     OW11043   1.452   9.999   7.835
 3049SOL    HW111044   1.463   9.949   7.916
 3049SOL    HW211045   1.377   9.957   7.791
 3050SOL     OW11046   3.621   9.630   9.166
 3050SOL    HW111047   3.667   9.561   9.215
 3050SOL    HW211048   3.651   9.619   9.076
 3051SOL     OW11049   2.920   2.545   8.239
 3051SOL    HW111050   2.913   2.602   8.316
 3051SOL    HW211051   2.866   2.469   8.261
 3052SOL     OW11052  11.555   8.906   2.592
 3052SOL    HW111053  11.595   8.976   2.540
 3052SOL    HW211054  11.605   8.828   2.569
 3053SOL     OW11055   0.314   7.004   8.029
 3053SOL    HW111056   0.389   6.958   8.067
 3053SOL    HW211057   0.350   7.085   7.993
 3054SOL     OW11058  13.522   0.279  11.424
 3054SOL    HW111059  13.487   0.367  11.408
 3054SOL    HW211060  13.608   0.295  11.463
 3055SOL     OW11061   8.671   5.420   4.763
 3055SOL    HW111062   8.662   5.503   4.715
 3055SOL    HW211063   8.583   5.383   4.763
 3056SOL     OW11064   4.901   3.710  12.146
 3056SOL    HW111065   4.900   3.739  12.238
 3056SOL    HW211066   4.993   3.718  12.120
 3057SOL     OW11067   0.836  12.895   1.230
 3057SOL    HW111068   0.819  12.989   1.238
 3057SOL    HW211069   0.751  12.854   1.249
 3058SOL     OW11070  10.605   7.168   0.351
 3058SOL    HW111071  10.582   7.082   0.388
 3058SOL    HW211072  10.635   7.148   0.263
 3059SOL     OW11073  13.440  11.447   8.357
 3059SOL    HW111074  13.470  11.383   8.422
 3059SOL    HW211075  13.376  11.400   8.304
 3060SOL     OW11076   8.019   1.449   3.668
 3060SOL    HW111077   8.000   1.416   3.581
 3060SOL    HW211078   7.984   1.383   3.727
 3061SOL     OW11079  13.463  11.186  13.165
 3061SOL    HW111080  13.406  11.235  13.105
 3061SOL    HW211081  13.411  11.110  13.191
 3062SOL     OW11082  12.464  10.478   5.564
 3062SOL    HW111083  12.387  10.515   5.520
 3062SOL    HW211084  12.459  10.385   5.546
 3063SOL     OW11085   8.011   5.688  10.350
 3063SOL    HW111086   8.086   5.655  10.301
 3063SOL    HW211087   7.939   5.629  10.326
 3064SOL     OW11088  12.281  13.293   1.390
 3064SOL    HW111089  12.302  13.206   1.356
 3064SOL    HW211090  12.206  13.279   1.448
 3065SOL     OW11091   4.381  10.663  13.250
 3065SOL    HW111092   4.304  10.717  13.267
 3065SOL    HW211093   4.350  10.594  13.191
 3066SOL     OW11094   0.260   7.802  10.168
 3066SOL    HW111095   0.329   7.736  10.160
 3066SOL    HW211096   0.195   7.763  10.227
 3067SOL     OW11097  11.837   4.094   6.167
 3067SOL    HW111098  11.898   4.028   6.135
 3067SOL    HW211099  11.850   4.095   6.262
 3068SOL     OW11100  11.843  14.133   5.703
 3068SOL    HW111101  11.868  14.085   5.782
 3068SOL    HW211102  11.760  14.094   5.677
 3069SOL     OW11103   9.159   3.343   2.365
 3069SOL    HW111104   9.105   3.417   2.393
 3069SOL    HW211105   9.097   3.271   2.354
 3070SOL     OW11106   9.069  10.247   3.303
 3070SOL    HW111107   9.100  10.331   3.270
 3070SOL    HW211108   8.976  10.244   3.280
 3071SOL     OW11109   9.914  12.346   7.548
 3071SOL    HW111110   9.983  12.382   7.493
 3071SOL    HW211111   9.962  12.297   7.616
 3072SOL     OW11112  10.487  13.373   6.210
 3072SOL    HW111113  10.406  13.326   6.191
 3072SOL    HW211114  10.468  13.420   6.291
 3073SOL     OW11115   2.115   3.015   6.285
 3073SOL    HW111116   2.128   3.107   6.308
 3073SOL    HW211117   2.191   2.970   6.322
 3074SOL     OW11118  14.547   0.497   4.754
 3074SOL    HW111119  14.470   0.544   4.721
 3074SOL    HW211120  14.594   0.470   4.676
 3075SOL     OW11121  11.954   1.185  12.034
 3075SOL    HW111122  11.889   1.223  11.975
 3075SOL    HW211123  12.011   1.259  12.058
 3076SOL     OW11124   8.538   3.917   7.319
 3076SOL    HW111125   8.585   3.958   7.246
 3076SOL    HW211126   8.576   3.956   7.398
 3077SOL     OW11127   7.806  12.436   9.947
 3077SOL    HW111128   7.833  12.527   9.964
 3077SOL    HW211129   7.874  12.402   9.888
 3078SOL     OW11130   1.346   4.180  12.687
 3078SOL    HW111131   1.312   4.237  12.618
 3078SOL    HW211132   1.393   4.239  12.746
 3079SOL     OW11133   0.077  13.026   9.003
 3079SOL    HW111134   0.033  13.106   9.032
 3079SOL    HW211135   0.149  13.056   8.947
 3080SOL     OW11136  10.863  14.636   7.331
 3080SOL    HW111137  10.934  14.643   7.267
 3080SOL    HW211138  10.783  14.635   7.279
 3081SOL     OW11139  11.802  13.658   8.925
 3081SOL    HW111140  11.833  13.695   9.007
 3081SOL    HW211141  11.712  13.691   8.916
 3082SOL     OW11142   7.804  13.490   3.416
 3082SOL    HW111143   7.824  13.460   3.505
 3082SOL    HW211144   7.800  13.409   3.364
 3083SOL     OW11145   7.573   1.317   6.787
 3083SOL    HW111146   7.615   1.381   6.728
 3083SOL    HW211147   7.490   1.359   6.812
 3084SOL     OW11148   4.925   8.349   4.095
 3084SOL    HW111149   4.947   8.392   4.177
 3084SOL    HW211150   5.008   8.314   4.063
 3085SOL     OW11151   9.670  12.030   8.050
 3085SOL    HW111152   9.685  12.058   8.140
 3085SOL    HW211153   9.615  11.952   8.057
 3086SOL     OW11154   8.533  12.491  11.940
 3086SOL    HW111155   8.556  12.552  11.869
 3086SOL    HW211156   8.446  12.460  11.917
 3087SOL     OW11157   4.104   5.922  11.324
 3087SOL    HW111158   4.170   5.926  11.393
 3087SOL    HW211159   4.041   5.991  11.347
 3088SOL     OW11160   8.319  14.327   8.830
 3088SOL    HW111161   8.301  14.374   8.749
 3088SOL    HW211162   8.264  14.371   8.896
 3089SOL     OW11163  13.049   1.399   7.320
 3089SOL    HW111164  13.099   1.336   7.269
 3089SOL    HW211165  12.993   1.444   7.256
 3090SOL     OW11166   9.099   1.770   9.323
 3090SOL    HW111167   9.068   1.687   9.361
 3090SOL    HW211168   9.074   1.836   9.388
 3091SOL     OW11169   2.086   7.072  11.185
 3091SOL    HW111170   2.052   7.113  11.105
 3091SOL    HW211171   2.050   6.983  11.184
 3092SOL     OW11172  12.526   6.200   3.082
 3092SOL    HW111173  12.619   6.178   3.092
 3092SOL    HW211174  12.526   6.269   3.015
 3093SOL     OW11175   4.004   5.361   1.333
 3093SOL    HW111176   3.955   5.341   1.253
 3093SOL    HW211177   4.076   5.299   1.332
 3094SOL     OW11178   3.994   5.682   6.637
 3094SOL    HW111179   3.927   5.706   6.574
 3094SOL    HW211180   4.044   5.762   6.651
 3095SOL     OW11181   9.213  12.574   3.899
 3095SOL    HW111182   9.200  12.580   3.805
 3095SOL    HW211183   9.238  12.663   3.926
 3096SOL     OW11184  12.490   9.018   1.223
 3096SOL    HW111185  12.427   8.963   1.176
 3096SOL    HW211186  12.456   9.107   1.214
 3097SOL     OW11187  13.921  14.283   0.803
 3097SOL    HW111188  13.885  14.197   0.780
 3097SOL    HW211189  14.013  14.278   0.777
 3098SOL     OW11190   9.585  14.365   4.719
 3098SOL    HW111191   9.503  14.372   4.769
 3098SOL    HW211192   9.621  14.454   4.719
 3099SOL     OW11193  14.229  10.176   1.776
 3099SOL    HW111194  14.165  10.155   1.845
 3099SOL    HW211195  14.314  10.159   1.817
 3100SOL     OW11196   7.991  11.302   5.067
 3100SOL    HW111197   7.931  11.318   4.994
 3100SOL    HW211198   7.946  11.338   5.143
 3101SOL     OW11199   8.929   2.904  12.103
 3101SOL    HW111200   8.992   2.831  12.107
 3101SOL    HW211201   8.944   2.952  12.185
 3102SOL     OW11202   8.819  10.702   6.671
 3102SOL    HW111203   8.854  10.622   6.712
 3102SOL    HW211204   8.809  10.763   6.744
 3103SOL     OW11205   8.607  13.945   9.275
 3103SOL    HW111206   8.524  13.992   9.266
 3103SOL    HW211207   8.589  13.874   9.336
 3104SOL     OW11208   4.152   3.713   0.874
 3104SOL    HW111209   4.244   3.727   0.895
 3104SOL    HW211210   4.118   3.801   0.859
 3105SOL     OW11211  11.521   1.317  13.733
 3105SOL    HW111212  11.514   1.405  13.696
 3105SOL    HW211213  11.615   1.305  13.748
 3106SOL     OW11214  14.237   7.678   8.151
 3106SOL    HW111215  14.239   7.773   8.155
 3106SOL    HW211216  14.151   7.654   8.184
 3107SOL     OW11217   3.869  14.724   2.461
 3107SOL    HW111218   3.902  14.757   2.378
 3107SOL    HW211219   3.931  14.655   2.486
 3108SOL     OW11220  10.016   3.216   7.957
 3108SOL    HW111221   9.971   3.195   7.875
 3108SOL    HW211222  10.023   3.311   7.957
 3109SOL     OW11223   2.676   5.906  12.674
 3109SOL    HW111224   2.671   5.973  12.606
 3109SOL    HW211225   2.585   5.885  12.695
 3110SOL     OW11226   1.910   3.653   2.156
 3110SOL    HW111227   1.845   3.701   2.207
 3110SOL    HW211228   1.915   3.567   2.198
 3111SOL     OW11229  12.293   9.548   0.737
 3111SOL    HW111230  12.243   9.562   0.657
 3111SOL    HW211231  12.275   9.457   0.761
 3112SOL     OW11232   2.524  12.139   5.934
 3112SOL    HW111233   2.603  12.091   5.910
 3112SOL    HW211234   2.499  12.185   5.854
 3113SOL     OW11235   2.175   5.762   7.161
 3113SOL    HW111236   2.262   5.741   7.196
 3113SOL    HW211237   2.118   5.695   7.197
 3114SOL     OW11238   5.884   4.741   7.873
 3114SOL    HW111239   5.874   4.650   7.845
 3114SOL    HW211240   5.855   4.793   7.798
 3115SOL     OW11241  12.023  10.561   0.200
 3115SOL    HW111242  12.082  10.514   0.140
 3115SOL    HW211243  11.935  10.532   0.175
 3116SOL     OW11244  11.502  10.576   0.695
 3116SOL    HW111245  11.469  10.491   0.665
 3116SOL    HW211246  11.560  10.605   0.625
 3117SOL     OW11247  13.567   1.235   4.328
 3117SOL    HW111248  13.600   1.161   4.277
 3117SOL    HW211249  13.561   1.202   4.418
 3118SOL     OW11250  14.057   0.221  14.364
 3118SOL    HW111251  14.071   0.145  14.307
 3118SOL    HW211252  14.043   0.294  14.303
 3119SOL     OW11253   9.140   1.042   5.583
 3119SOL    HW111254   9.150   1.092   5.664
 3119SOL    HW211255   9.053   1.067   5.551
 3120SOL     OW11256   1.099  12.152   8.415
 3120SOL    HW111257   1.004  12.157   8.414
 3120SOL    HW211258   1.127  12.235   8.454
 3121SOL     OW11259   7.845   8.144   4.441
 3121SOL    HW111260   7.908   8.127   4.511
 3121SOL    HW211261   7.882   8.100   4.364
 3122SOL     OW11262   1.175  12.245  12.291
 3122SOL    HW111263   1.248  12.199  12.334
 3122SOL    HW211264   1.215  12.289  12.216
 3123SOL     OW11265   5.058  13.003   9.742
 3123SOL    HW111266   5.143  12.985   9.784
 3123SOL    HW211267   5.026  12.917   9.715
 3124SOL     OW11268  12.026  10.562  13.021
 3124SOL    HW111269  12.001  10.512  13.098
 3124SOL    HW211270  12.056  10.646  13.056
 3125SOL     OW11271  14.724   0.661   4.941
 3125SOL    HW111272  14.674   0.599   4.888
 3125SOL    HW211273  14.814   0.629   4.936
 3126SOL     OW11274   1.813   4.828   4.955
 3126SOL    HW111275   1.894   4.857   4.912
 3126SOL    HW211276   1.843   4.776   5.029
 3127SOL     OW11277  10.311  14.831  10.358
 3127SOL    HW111278  10.363  14.852  10.280
 3127SOL    HW211279  10.372  14.843  10.431
 3128SOL     OW11280   6.505   8.147   9.995
 3128SOL    HW111281   6.510   8.236  10.030
 3128SOL    HW211282   6.493   8.159   9.901
 3129SOL     OW11283   1.320  13.675   2.293
 3129SOL    HW111284   1.320  13.693   2.387
 3129SOL    HW211285   1.261  13.741   2.255
 3130SOL     OW11286   7.885   8.927   7.397
 3130SOL    HW111287   7.872   8.837   7.367
 3130SOL    HW211288   7.891   8.920   7.492
 3131SOL     OW11289   1.898  11.595  13.994
 3131SOL    HW111290   1.840  11.536  13.945
 3131SOL    HW211291   1.874  11.682  13.964
 3132SOL     OW11292   6.824   8.826   3.020
 3132SOL    HW111293   6.852   8.764   3.087
 3132SOL    HW211294   6.735   8.850   3.045
 3133SOL     OW11295  10.115   9.010   3.907
 3133SOL    HW111296  10.080   8.932   3.864
 3133SOL    HW211297  10.127   9.073   3.836
 3134SOL     OW11298   5.039  14.323   0.010
 3134SOL    HW111299   5.103  14.376  14.842
 3134SOL    HW211300   5.090  14.250   0.045
 3135SOL     OW11301   7.882   5.056  12.740
 3135SOL    HW111302   7.836   5.140  12.734
 3135SOL    HW211303   7.833   4.998  12.681
 3136SOL     OW11304   3.652  10.269   6.074
 3136SOL    HW111305   3.636  10.209   6.147
 3136SOL    HW211306   3.680  10.213   6.002
 3137SOL     OW11307   9.221   4.910  11.651
 3137SOL    HW111308   9.134   4.872  11.636
 3137SOL    HW211309   9.276   4.871  11.584
 3138SOL     OW11310   2.323   6.001   8.455
 3138SOL    HW111311   2.415   6.026   8.447
 3138SOL    HW211312   2.315   5.920   8.405
 3139SOL     OW11313   4.407   6.034   9.320
 3139SOL    HW111314   4.363   6.112   9.286
 3139SOL    HW211315   4.386   5.965   9.257
 3140SOL     OW11316   6.461   1.092   8.419
 3140SOL    HW111317   6.551   1.093   8.453
 3140SOL    HW211318   6.406   1.082   8.497
 3141SOL     OW11319  11.594   8.440   9.406
 3141SOL    HW111320  11.538   8.434   9.328
 3141SOL    HW211321  11.647   8.518   9.392
 3142SOL     OW11322  13.188  11.560   0.471
 3142SOL    HW111323  13.168  11.528   0.559
 3142SOL    HW211324  13.247  11.494   0.434
 3143SOL     OW11325   7.448  11.335   9.434
 3143SOL    HW111326   7.354  11.346   9.447
 3143SOL    HW211327   7.454  11.274   9.360
 3144SOL     OW11328  14.150   6.710   2.163
 3144SOL    HW111329  14.215   6.643   2.144
 3144SOL    HW211330  14.193   6.769   2.225
 3145SOL     OW11331  11.589   2.080   0.726
 3145SOL    HW111332  11.584   2.031   0.808
 3145SOL    HW211333  11.658   2.145   0.740
 3146SOL     OW11334  12.883  12.478   4.261
 3146SOL    HW111335  12.814  12.509   4.320
 3146SOL    HW211336  12.837  12.452   4.181
 3147SOL     OW11337  11.485   8.632  11.228
 3147SOL    HW111338  11.507   8.630  11.322
 3147SOL    HW211339  11.522   8.714  11.196
 3148SOL     OW11340   8.319  12.661   7.380
 3148SOL    HW111341   8.378  12.735   7.399
 3148SOL    HW211342   8.294  12.628   7.467
 3149SOL     OW11343  13.015   4.653  13.504
 3149SOL    HW111344  13.034   4.649  13.411
 3149SOL    HW211345  12.920   4.665  13.509
 3150SOL     OW11346  13.050  13.349   4.676
 3150SOL    HW111347  12.973  13.405   4.681
 3150SOL    HW211348  13.020  13.264   4.708
 3151SOL     OW11349   3.240   3.310  10.091
 3151SOL    HW111350   3.183   3.323  10.015
 3151SOL    HW211351   3.208   3.231  10.133
 3152SOL     OW11352   8.475   2.827   2.969
 3152SOL    HW111353   8.523   2.826   3.052
 3152SOL    HW211354   8.510   2.752   2.920
 3153SOL     OW11355   2.343   0.088  13.525
 3153SOL    HW111356   2.257   0.107  13.563
 3153SOL    HW211357   2.364   0.000  13.558
 3154SOL     OW11358  10.125   0.081   6.352
 3154SOL    HW111359  10.112  14.872   6.385
 3154SOL    HW211360  10.044   0.127   6.374
 3155SOL     OW11361  12.773  10.980   4.770
 3155SOL    HW111362  12.712  11.037   4.817
 3155SOL    HW211363  12.717  10.917   4.724
 3156SOL     OW11364  12.957  12.163  13.896
 3156SOL    HW111365  12.973  12.078  13.856
 3156SOL    HW211366  12.882  12.198  13.849
 3157SOL     OW11367  10.843  14.595   6.700
 3157SOL    HW111368  10.882  14.555   6.623
 3157SOL    HW211369  10.818  14.683   6.673
 3158SOL     OW11370  12.898   1.372  14.502
 3158SOL    HW111371  12.934   1.310  14.438
 3158SOL    HW211372  12.848   1.318  14.562
 3159SOL     OW11373   3.535   2.970   3.681
 3159SOL    HW111374   3.528   2.908   3.754
 3159SOL    HW211375   3.610   2.940   3.631
 3160SOL     OW11376  12.201  13.483   2.376
 3160SOL    HW111377  12.112  13.500   2.407
 3160SOL    HW211378  12.252  13.558   2.406
 3161SOL     OW11379  11.383  11.251  12.732
 3161SOL    HW111380  11.370  11.171  12.782
 3161SOL    HW211381  11.303  11.260  12.680
 3162SOL     OW11382  14.448  12.263   8.401
 3162SOL    HW111383  14.485  12.234   8.318
 3162SOL    HW211384  14.524  12.294   8.452
 3163SOL     OW11385  13.306  14.491   3.076
 3163SOL    HW111386  13.249  14.535   3.013
 3163SOL    HW211387  13.257  14.413   3.102
 3164SOL     OW11388   3.424   3.977   9.885
 3164SOL    HW111389   3.367   3.985   9.808
 3164SOL    HW211390   3.437   4.067   9.915
 3165SOL     OW11391  11.222   1.542   5.291
 3165SOL    HW111392  11.166   1.470   5.321
 3165SOL    HW211393  11.186   1.566   5.206
 3166SOL     OW11394  13.921   3.366  12.875
 3166SOL    HW111395  13.977   3.292  12.851
 3166SOL    HW211396  13.966   3.407  12.949
 3167SOL     OW11397   2.931  13.291   2.845
 3167SOL    HW111398   3.026  13.277   2.843
 3167SOL    HW211399   2.908  13.311   2.754
 3168SOL     OW11400   4.769   7.346   8.425
 3168SOL    HW111401   4.772   7.275   8.360
 3168SOL    HW211402   4.853   7.340   8.471
 3169SOL     OW11403   9.590   2.812   8.446
 3169SOL    HW111404   9.615   2.720   8.441
 3169SOL    HW211405   9.516   2.814   8.506
 3170SOL     OW11406   2.734   4.377   9.214
 3170SOL    HW111407   2.715   4.458   9.168
 3170SOL    HW211408   2.653   4.356   9.260
 3171SOL     OW11409   9.999  10.440   3.341
 3171SOL    HW111410  10.032  10.370   3.398
 3171SOL    HW211411   9.931  10.399   3.289
 3172SOL     OW11412   7.427   1.421  10.823
 3172SOL    HW111413   7.394   1.493  10.769
 3172SOL    HW211414   7.349   1.383  10.863
 3173SOL     OW11415   6.081   7.602   9.131
 3173SOL    HW111416   6.117   7.672   9.186
 3173SOL    HW211417   5.994   7.585   9.167
 3174SOL     OW11418  12.747   5.364   3.984
 3174SOL    HW111419  12.724   5.436   4.044
 3174SOL    HW211420  12.803   5.405   3.918
 3175SOL     OW11421   5.701   4.832   9.277
 3175SOL    HW111422   5.668   4.886   9.205
 3175SOL    HW211423   5.704   4.743   9.241
 3176SOL     OW11424  12.641  10.027   6.668
 3176SOL    HW111425  12.565  10.085   6.665
 3176SOL    HW211426  12.686  10.051   6.749
 3177SOL     OW11427   7.502   2.412   2.315
 3177SOL    HW111428   7.490   2.424   2.221
 3177SOL    HW211429   7.498   2.500   2.352
 3178SOL     OW11430   2.111   6.841  11.386
 3178SOL    HW111431   2.118   6.932  11.358
 3178SOL    HW211432   2.195   6.822  11.429
 3179SOL     OW11433   2.244   8.814  10.063
 3179SOL    HW111434   2.224   8.803   9.971
 3179SOL    HW211435   2.214   8.903  10.084
 3180SOL     OW11436  14.083   7.534   2.126
 3180SOL    HW111437  14.048   7.484   2.052
 3180SOL    HW211438  14.134   7.604   2.086
 3181SOL     OW11439  10.861   1.593   5.441
 3181SOL    HW111440  10.767   1.609   5.447
 3181SOL    HW211441  10.896   1.617   5.527
 3182SOL     OW11442  10.560  10.575  11.214
 3182SOL    HW111443  10.643  10.621  11.225
 3182SOL    HW211444  10.584  10.485  11.195
 3183SOL     OW11445   1.147   2.051   3.467
 3183SOL    HW111446   1.093   1.984   3.426
 3183SOL    HW211447   1.083   2.110   3.509
 3184SOL     OW11448  12.001  14.736  13.321
 3184SOL    HW111449  11.910  14.706  13.327
 3184SOL    HW211450  12.036  14.724  13.409
 3185SOL     OW11451  11.759   3.734  10.260
 3185SOL    HW111452  11.729   3.811  10.308
 3185SOL    HW211453  11.840   3.762  10.217
 3186SOL     OW11454   0.347   2.466  14.311
 3186SOL    HW111455   0.331   2.486  14.403
 3186SOL    HW211456   0.424   2.517  14.288
 3187SOL     OW11457  13.777  11.346  12.103
 3187SOL    HW111458  13.698  11.297  12.080
 3187SOL    HW211459  13.810  11.303  12.182
 3188SOL     OW11460  12.749   5.584   3.508
 3188SOL    HW111461  12.789   5.580   3.421
 3188SOL    HW211462  12.680   5.517   3.506
 3189SOL     OW11463   6.434   0.690   8.154
 3189SOL    HW111464   6.386   0.758   8.200
 3189SOL    HW211465   6.386   0.677   8.072
 3190SOL     OW11466   0.677   1.728   0.094
 3190SOL    HW111467   0.667   1.708   0.187
 3190SOL    HW211468   0.707   1.819   0.091
 3191SOL     OW11469  11.422  10.768   7.228
 3191SOL    HW111470  11.427  10.702   7.159
 3191SOL    HW211471  11.341  10.747   7.275
 3192SOL     OW11472   6.535   4.694   1.071
 3192SOL    HW111473   6.525   4.785   1.045
 3192SOL    HW211474   6.472   4.682   1.142
 3193SOL     OW11475   3.995   3.326   7.271
 3193SOL    HW111476   4.083   3.288   7.271
 3193SOL    HW211477   3.969   3.325   7.363
 3194SOL     OW11478  11.644   1.270   8.845
 3194SOL    HW111479  11.713   1.326   8.880
 3194SOL    HW211480  11.627   1.206   8.914
 3195SOL     OW11481   4.056   9.888  12.155
 3195SOL    HW111482   4.105   9.938  12.089
 3195SOL    HW211483   4.023   9.954  12.216
 3196SOL     OW11484   5.474   6.369   5.291
 3196SOL    HW111485   5.546   6.431   5.279
 3196SOL    HW211486   5.432   6.395   5.373
 3197SOL     OW11487   7.574  11.336   3.520
 3197SOL    HW111488   7.581  11.317   3.427
 3197SOL    HW211489   7.620  11.264   3.563
 3198SOL     OW11490   8.536   3.217  10.763
 3198SOL    HW111491   8.567   3.258  10.844
 3198SOL    HW211492   8.514   3.127  10.789
 3199SOL     OW11493   3.089   8.160   0.514
 3199SOL    HW111494   3.025   8.230   0.501
 3199SOL    HW211495   3.156   8.176   0.448
 3200SOL     OW11496   6.479   0.870   2.291
 3200SOL    HW111497   6.451   0.957   2.264
 3200SOL    HW211498   6.408   0.811   2.264
 3201SOL     OW11499  14.775   0.445  11.583
 3201SOL    HW111500  14.736   0.364  11.614
 3201SOL    HW211501  14.791   0.496  11.662
 3202SOL     OW11502  10.081   5.140   9.828
 3202SOL    HW111503  10.013   5.077   9.852
 3202SOL    HW211504  10.152   5.086   9.793
 3203SOL     OW11505   5.129   9.210   0.075
 3203SOL    HW111506   5.138   9.295   0.032
 3203SOL    HW211507   5.215   9.169   0.064
 3204SOL     OW11508   6.579   1.851   2.253
 3204SOL    HW111509   6.620   1.788   2.312
 3204SOL    HW211510   6.515   1.897   2.308
 3205SOL     OW11511  14.493  10.589   0.073
 3205SOL    HW111512  14.564  10.584   0.009
 3205SOL    HW211513  14.535  10.626   0.151
 3206SOL     OW11514  13.130  14.367   3.945
 3206SOL    HW111515  13.048  14.367   3.896
 3206SOL    HW211516  13.106  14.388   4.035
 3207SOL     OW11517   0.478  10.878  12.633
 3207SOL    HW111518   0.463  10.954  12.689
 3207SOL    HW211519   0.565  10.847  12.659
 3208SOL     OW11520  11.529   1.155   3.360
 3208SOL    HW111521  11.559   1.093   3.293
 3208SOL    HW211522  11.434   1.140   3.365
 3209SOL     OW11523   7.608   5.864   4.359
 3209SOL    HW111524   7.625   5.920   4.284
 3209SOL    HW211525   7.518   5.833   4.347
 3210SOL     OW11526   1.246   6.297   4.712
 3210SOL    HW111527   1.209   6.316   4.798
 3210SOL    HW211528   1.236   6.379   4.663
 3211SOL     OW11529   9.143  10.616   0.326
 3211SOL    HW111530   9.122  10.554   0.396
 3211SOL    HW211531   9.104  10.577   0.248
 3212SOL     OW11532   5.271   8.365   9.156
 3212SOL    HW111533   5.359   8.342   9.186
 3212SOL    HW211534   5.217   8.290   9.180
 3213SOL     OW11535  11.827  11.645   9.726
 3213SOL    HW111536  11.798  11.651   9.817
 3213SOL    HW211537  11.748  11.620   9.678
 3214SOL     OW11538   4.894  10.428   2.810
 3214SOL    HW111539   4.876  10.358   2.873
 3214SOL    HW211540   4.809  10.444   2.768
 3215SOL     OW11541   4.398  11.156   0.630
 3215SOL    HW111542   4.384  11.076   0.680
 3215SOL    HW211543   4.420  11.223   0.695
 3216SOL     OW11544   1.042   6.073   3.625
 3216SOL    HW111545   1.106   6.143   3.630
 3216SOL    HW211546   1.080   6.010   3.564
 3217SOL     OW11547  10.927  11.769   7.109
 3217SOL    HW111548  10.836  11.799   7.117
 3217SOL    HW211549  10.946  11.726   7.193
 3218SOL     OW11550  10.212   3.649  12.449
 3218SOL    HW111551  10.214   3.559  12.484
 3218SOL    HW211552  10.219   3.638  12.355
 3219SOL     OW11553   3.823   9.867   8.532
 3219SOL    HW111554   3.882   9.890   8.460
 3219SOL    HW211555   3.863   9.905   8.610
 3220SOL     OW11556   4.464   5.677   9.570
 3220SOL    HW111557   4.446   5.728   9.648
 3220SOL    HW211558   4.380   5.639   9.545
 3221SOL     OW11559   9.286  10.028  12.644
 3221SOL    HW111560   9.197  10.009  12.672
 3221SOL    HW211561   9.290  10.124  12.640
 3222SOL     OW11562   6.160   0.351  10.657
 3222SOL    HW111563   6.209   0.402  10.592
 3222SOL    HW211564   6.179   0.394  10.740
 3223SOL     OW11565   5.054  13.036  10.616
 3223SOL    HW111566   5.084  13.078  10.535
 3223SOL    HW211567   5.035  12.946  10.591
 3224SOL     OW11568   5.977   2.533   9.092
 3224SOL    HW111569   6.059   2.553   9.136
 3224SOL    HW211570   5.967   2.603   9.027
 3225SOL     OW11571   7.027   0.717   6.937
 3225SOL    HW111572   6.979   0.777   6.879
 3225SOL    HW211573   7.107   0.764   6.959
 3226SOL     OW11574  11.988   2.899   3.562
 3226SOL    HW111575  12.081   2.899   3.584
 3226SOL    HW211576  11.944   2.914   3.646
 3227SOL     OW11577   5.424   6.680   6.727
 3227SOL    HW111578   5.481   6.621   6.678
 3227SOL    HW211579   5.458   6.768   6.708
 3228SOL     OW11580   8.854  14.620   8.643
 3228SOL    HW111581   8.808  14.654   8.566
 3228SOL    HW211582   8.879  14.699   8.691
 3229SOL     OW11583  10.114   0.677  11.438
 3229SOL    HW111584  10.135   0.710  11.351
 3229SOL    HW211585  10.026   0.640  11.430
 3230SOL     OW11586   8.304   1.091   3.077
 3230SOL    HW111587   8.389   1.104   3.034
 3230SOL    HW211588   8.314   1.008   3.124
 3231SOL     OW11589   9.128   5.906   6.446
 3231SOL    HW111590   9.089   5.864   6.523
 3231SOL    HW211591   9.222   5.895   6.458
 3232SOL     OW11592   2.565  13.157   3.808
 3232SOL    HW111593   2.582  13.186   3.718
 3232SOL    HW211594   2.611  13.221   3.863
 3233SOL     OW11595  13.250   9.996   3.274
 3233SOL    HW111596  13.230   9.908   3.308
 3233SOL    HW211597  13.331   9.984   3.224
 3234SOL     OW11598   8.738   5.256  14.317
 3234SOL    HW111599   8.654   5.293  14.345
 3234SOL    HW211600   8.716   5.169  14.285
 3235SOL     OW11601   4.561   9.075   7.494
 3235SOL    HW111602   4.564   9.094   7.588
 3235SOL    HW211603   4.571   8.980   7.489
 3236SOL     OW11604   2.078   5.186  12.215
 3236SOL    HW111605   1.989   5.217  12.234
 3236SOL    HW211606   2.065   5.104  12.167
 3237SOL     OW11607   2.976   1.952   6.386
 3237SOL    HW111608   2.884   1.964   6.408
 3237SOL    HW211609   3.006   1.884   6.447
 3238SOL     OW11610   6.376   6.524  12.810
 3238SOL    HW111611   6.323   6.455  12.770
 3238SOL    HW211612   6.334   6.540  12.895
 3239SOL     OW11613   0.334   0.782  11.980
 3239SOL    HW111614   0.262   0.724  12.006
 3239SOL    HW211615   0.412   0.741  12.017
 3240SOL     OW11616   2.237  11.212   1.277
 3240SOL    HW111617   2.288  11.131   1.264
 3240SOL    HW211618   2.202  11.204   1.365
 3241SOL     OW11619  11.924   0.898  11.314
 3241SOL    HW111620  12.012   0.905  11.278
 3241SOL    HW211621  11.927   0.821  11.371
 3242SOL     OW11622   6.730   0.348  14.682
 3242SOL    HW111623   6.654   0.290  14.684
 3242SOL    HW211624   6.768   0.334  14.595
 3243SOL     OW11625   7.263   1.090  11.570
 3243SOL    HW111626   7.211   1.148  11.626
 3243SOL    HW211627   7.335   1.145  11.539
 3244SOL     OW11628  13.535  10.579   6.798
 3244SOL    HW111629  13.583  10.524   6.860
 3244SOL    HW211630  13.517  10.520   6.724
 3245SOL     OW11631   9.068  12.720   9.711
 3245SOL    HW111632   9.145  12.694   9.661
 3245SOL    HW211633   9.103  12.750   9.795
 3246SOL     OW11634   2.001   2.379   0.121
 3246SOL    HW111635   1.912   2.374   0.086
 3246SOL    HW211636   1.993   2.349   0.212
 3247SOL     OW11637   7.984   6.743   5.223
 3247SOL    HW111638   7.925   6.782   5.287
 3247SOL    HW211639   8.058   6.711   5.274
 3248SOL     OW11640  10.091  11.309  13.590
 3248SOL    HW111641  10.143  11.390  13.583
 3248SOL    HW211642  10.149  11.247  13.633
 3249SOL     OW11643   7.375   1.713   1.254
 3249SOL    HW111644   7.356   1.806   1.247
 3249SOL    HW211645   7.420   1.704   1.338
 3250SOL     OW11646   8.036   2.964   8.262
 3250SOL    HW111647   8.007   3.044   8.218
 3250SOL    HW211648   7.963   2.903   8.249
 3251SOL     OW11649   5.248   7.037   8.388
 3251SOL    HW111650   5.339   7.009   8.401
 3251SOL    HW211651   5.205   7.017   8.471
 3252SOL     OW11652  12.090   1.825   4.268
 3252SOL    HW111653  12.074   1.919   4.259
 3252SOL    HW211654  12.065   1.804   4.358
 3253SOL     OW11655   1.393  13.383   6.794
 3253SOL    HW111656   1.417  13.310   6.736
 3253SOL    HW211657   1.307  13.412   6.761
 3254SOL     OW11658  10.978  11.856  11.029
 3254SOL    HW111659  11.034  11.930  11.005
 3254SOL    HW211660  10.900  11.897  11.069
 3255SOL     OW11661  13.800  13.076   5.683
 3255SOL    HW111662  13.871  13.117   5.731
 3255SOL    HW211663  13.732  13.060   5.748
 3256SOL     OW11664  12.118   8.122   7.066
 3256SOL    HW111665  12.129   8.074   7.148
 3256SOL    HW211666  12.159   8.207   7.083
 3257SOL     OW11667   0.489   7.598   9.858
 3257SOL    HW111668   0.522   7.685   9.838
 3257SOL    HW211669   0.403   7.612   9.898
 3258SOL     OW11670   0.831   9.340  14.613
 3258SOL    HW111671   0.830   9.306  14.524
 3258SOL    HW211672   0.918   9.318  14.647
 3259SOL     OW11673   9.317  12.066   8.558
 3259SOL    HW111674   9.291  12.060   8.466
 3259SOL    HW211675   9.400  12.113   8.556
 3260SOL     OW11676   2.621   4.608   8.507
 3260SOL    HW111677   2.700   4.564   8.478
 3260SOL    HW211678   2.563   4.538   8.538
 3261SOL     OW11679   3.196  12.346   3.324
 3261SOL    HW111680   3.196  12.352   3.228
 3261SOL    HW211681   3.285  12.369   3.349
 3262SOL     OW11682   7.247  11.915   4.239
 3262SOL    HW111683   7.192  11.987   4.208
 3262SOL    HW211684   7.332  11.955   4.256
 3263SOL     OW11685   3.247   8.264  13.961
 3263SOL    HW111686   3.206   8.340  13.919
 3263SOL    HW211687   3.174   8.221  14.006
 3264SOL     OW11688  11.592  11.503   2.548
 3264SOL    HW111689  11.576  11.425   2.601
 3264SOL    HW211690  11.686  11.519   2.558
 3265SOL     OW11691   3.138   7.768  12.761
 3265SOL    HW111692   3.114   7.853  12.799
 3265SOL    HW211693   3.092   7.704  12.815
 3266SOL     OW11694   3.521   8.302   8.042
 3266SOL    HW111695   3.535   8.394   8.020
 3266SOL    HW211696   3.592   8.255   7.998
 3267SOL     OW11697   1.526   8.200  14.234
 3267SOL    HW111698   1.497   8.185  14.324
 3267SOL    HW211699   1.514   8.295  14.222
 3268SOL     OW11700   7.086  10.984  13.264
 3268SOL    HW111701   7.090  10.915  13.330
 3268SOL    HW211702   7.141  11.054  13.298
 3269SOL     OW11703  13.943  14.664  13.700
 3269SOL    HW111704  13.922  14.755  13.721
 3269SOL    HW211705  13.960  14.623  13.785
 3270SOL     OW11706   9.468   7.848  11.402
 3270SOL    HW111707   9.496   7.758  11.422
 3270SOL    HW211708   9.394   7.864  11.460
 3271SOL     OW11709   4.454  11.131   7.612
 3271SOL    HW111710   4.527  11.079   7.577
 3271SOL    HW211711   4.468  11.219   7.577
 3272SOL     OW11712  11.794   5.658  10.800
 3272SOL    HW111713  11.821   5.572  10.767
 3272SOL    HW211714  11.753   5.700  10.724
 3273SOL     OW11715  12.221  13.214  12.025
 3273SOL    HW111716  12.130  13.244  12.028
 3273SOL    HW211717  12.267  13.284  11.979
 3274SOL     OW11718  14.792  12.397   6.057
 3274SOL    HW111719  14.807  12.478   6.008
 3274SOL    HW211720  14.713  12.414   6.108
 3275SOL     OW11721  13.656   1.401   5.935
 3275SOL    HW111722  13.580   1.372   5.987
 3275SOL    HW211723  13.619   1.426   5.851
 3276SOL     OW11724   4.576  10.562  10.609
 3276SOL    HW111725   4.520  10.525  10.541
 3276SOL    HW211726   4.664  10.558  10.573
 3277SOL     OW11727   2.392   0.134   6.464
 3277SOL    HW111728   2.394   0.136   6.559
 3277SOL    HW211729   2.475   0.093   6.439
 3278SOL     OW11730   5.896  11.079  11.789
 3278SOL    HW111731   5.925  11.170  11.785
 3278SOL    HW211732   5.889  11.052  11.698
 3279SOL     OW11733   4.067  11.645  13.972
 3279SOL    HW111734   4.116  11.717  14.010
 3279SOL    HW211735   4.092  11.569  14.024
 3280SOL     OW11736  12.391  14.185  10.385
 3280SOL    HW111737  12.371  14.162  10.475
 3280SOL    HW211738  12.314  14.234  10.355
 3281SOL     OW11739   8.012  11.634  14.267
 3281SOL    HW111740   8.077  11.590  14.322
 3281SOL    HW211741   8.052  11.639  14.180
 3282SOL     OW11742  13.610   4.977  12.239
 3282SOL    HW111743  13.601   5.022  12.323
 3282SOL    HW211744  13.663   4.900  12.259
 3283SOL     OW11745   9.955   9.097   1.770
 3283SOL    HW111746  10.040   9.095   1.813
 3283SOL    HW211747   9.895   9.056   1.832
 3284SOL     OW11748  13.526  14.812  12.101
 3284SOL    HW111749  13.592  14.827  12.033
 3284SOL    HW211750  13.555  14.732  12.145
 3285SOL     OW11751   3.579   7.713   1.877
 3285SOL    HW111752   3.665   7.748   1.899
 3285SOL    HW211753   3.565   7.738   1.786
 3286SOL     OW11754   0.636  10.826   3.692
 3286SOL    HW111755   0.602  10.888   3.756
 3286SOL    HW211756   0.710  10.784   3.736
 3287SOL     OW11757  11.795   1.539   2.408
 3287SOL    HW111758  11.790   1.470   2.474
 3287SOL    HW211759  11.876   1.587   2.429
 3288SOL     OW11760   6.540   6.704   8.270
 3288SOL    HW111761   6.495   6.728   8.351
 3288SOL    HW211762   6.516   6.773   8.208
 3289SOL     OW11763   9.577   8.867  11.546
 3289SOL    HW111764   9.644   8.819  11.497
 3289SOL    HW211765   9.526   8.799  11.591
 3290SOL     OW11766   5.907   7.052   5.696
 3290SOL    HW111767   5.956   7.044   5.614
 3290SOL    HW211768   5.970   7.026   5.764
 3291SOL     OW11769   8.436   5.412  12.638
 3291SOL    HW111770   8.486   5.487  12.608
 3291SOL    HW211771   8.448   5.411  12.733
 3292SOL     OW11772   7.365  13.904  12.753
 3292SOL    HW111773   7.303  13.840  12.787
 3292SOL    HW211774   7.393  13.954  12.830
 3293SOL     OW11775  10.192  13.301   1.238
 3293SOL    HW111776  10.225  13.385   1.206
 3293SOL    HW211777  10.120  13.280   1.180
 3294SOL     OW11778   0.356   1.035   1.328
 3294SOL    HW111779   0.351   1.130   1.317
 3294SOL    HW211780   0.450   1.017   1.332
 3295SOL     OW11781   9.409   6.269   0.344
 3295SOL    HW111782   9.464   6.288   0.267
 3295SOL    HW211783   9.460   6.302   0.418
 3296SOL     OW11784   9.155   2.849   8.186
 3296SOL    HW111785   9.196   2.916   8.131
 3296SOL    HW211786   9.139   2.776   8.127
 3297SOL     OW11787   5.213   6.688  12.044
 3297SOL    HW111788   5.176   6.745  12.112
 3297SOL    HW211789   5.137   6.644  12.006
 3298SOL     OW11790   0.014   2.778   3.485
 3298SOL    HW111791   0.026   2.777   3.580
 3298SOL    HW211792  14.835   2.851   3.469
 3299SOL     OW11793   9.099   0.126   3.197
 3299SOL    HW111794   9.105   0.197   3.133
 3299SOL    HW211795   9.027   0.071   3.164
 3300SOL     OW11796   0.382   5.480   5.896
 3300SOL    HW111797   0.321   5.426   5.846
 3300SOL    HW211798   0.454   5.421   5.917
 3301SOL     OW11799  12.378   3.337  14.798
 3301SOL    HW111800  12.368   3.429  14.822
 3301SOL    HW211801  12.362   3.289  14.879
 3302SOL     OW11802  12.998  10.701  11.475
 3302SOL    HW111803  13.024  10.609  11.481
 3302SOL    HW211804  13.080  10.750  11.474
 3303SOL     OW11805   5.934  13.111   0.029
 3303SOL    HW111806   5.843  13.089   0.013
 3303SOL    HW211807   5.958  13.061   0.108
 3304SOL     OW11808  11.753  11.165  11.101
 3304SOL    HW111809  11.734  11.171  11.195
 3304SOL    HW211810  11.819  11.232  11.085
 3305SOL     OW11811  10.500   8.177  14.626
 3305SOL    HW111812  10.488   8.115  14.554
 3305SOL    HW211813  10.458   8.257  14.597
 3306SOL     OW11814  14.481   3.829   4.435
 3306SOL    HW111815  14.394   3.859   4.458
 3306SOL    HW211816  14.538   3.905   4.450
 3307SOL     OW11817   9.190  10.563  11.824
 3307SOL    HW111818   9.229  10.515  11.752
 3307SOL    HW211819   9.143  10.496  11.875
 3308SOL     OW11820   8.523  10.819  13.443
 3308SOL    HW111821   8.601  10.772  13.474
 3308SOL    HW211822   8.452  10.788  13.500
 3309SOL     OW11823   5.402   1.563  13.346
 3309SOL    HW111824   5.410   1.501  13.418
 3309SOL    HW211825   5.356   1.515  13.277
 3310SOL     OW11826  10.368   5.306   5.296
 3310SOL    HW111827  10.301   5.258   5.344
 3310SOL    HW211828  10.384   5.384   5.349
 3311SOL     OW11829   1.259  12.298   3.072
 3311SOL    HW111830   1.205  12.361   3.024
 3311SOL    HW211831   1.250  12.324   3.164
 3312SOL     OW11832   5.285   5.767   4.047
 3312SOL    HW111833   5.336   5.759   4.128
 3312SOL    HW211834   5.239   5.684   4.040
 3313SOL     OW11835   9.551  11.858   9.311
 3313SOL    HW111836   9.645  11.847   9.298
 3313SOL    HW211837   9.514  11.855   9.222
 3314SOL     OW11838   4.817  13.073   3.716
 3314SOL    HW111839   4.852  13.006   3.774
 3314SOL    HW211840   4.723  13.054   3.712
 3315SOL     OW11841  11.367  14.752   4.429
 3315SOL    HW111842  11.317  14.758   4.347
 3315SOL    HW211843  11.340  14.829   4.479
 3316SOL     OW11844   2.390   9.023  11.104
 3316SOL    HW111845   2.304   8.986  11.122
 3316SOL    HW211846   2.372   9.114  11.080
 3317SOL     OW11847  12.860  11.274   0.115
 3317SOL    HW111848  12.882  11.306   0.202
 3317SOL    HW211849  12.795  11.205   0.130
 3318SOL     OW11850   0.428   8.829   7.932
 3318SOL    HW111851   0.364   8.759   7.918
 3318SOL    HW211852   0.472   8.806   8.013
 3319SOL     OW11853   4.606  13.264   4.755
 3319SOL    HW111854   4.637  13.202   4.689
 3319SOL    HW211855   4.549  13.212   4.812
 3320SOL     OW11856  13.012  12.195   0.051
 3320SOL    HW111857  12.983  12.229  14.846
 3320SOL    HW211858  12.956  12.240   0.115
 3321SOL     OW11859   9.109  10.890   0.357
 3321SOL    HW111860   9.017  10.882   0.332
 3321SOL    HW211861   9.144  10.802   0.346
 3322SOL     OW11862   9.963   0.831  12.096
 3322SOL    HW111863   9.897   0.896  12.074
 3322SOL    HW211864   9.994   0.799  12.012
 3323SOL     OW11865   4.049  13.633   5.971
 3323SOL    HW111866   4.032  13.708   5.914
 3323SOL    HW211867   4.111  13.579   5.923
 3324SOL     OW11868   4.875  11.023   6.563
 3324SOL    HW111869   4.942  10.954   6.564
 3324SOL    HW211870   4.926  11.104   6.569
 3325SOL     OW11871   5.002   4.301   6.650
 3325SOL    HW111872   4.960   4.322   6.567
 3325SOL    HW211873   5.071   4.239   6.628
 3326SOL     OW11874   8.926   3.549  13.328
 3326SOL    HW111875   8.992   3.617  13.316
 3326SOL    HW211876   8.918   3.507  13.242
 3327SOL     OW11877   9.267   5.424   4.559
 3327SOL    HW111878   9.242   5.347   4.507
 3327SOL    HW211879   9.284   5.492   4.494
 3328SOL     OW11880   7.407   3.325   3.346
 3328SOL    HW111881   7.490   3.356   3.310
 3328SOL    HW211882   7.342   3.353   3.283
 3329SOL     OW11883  10.225   6.021   9.193
 3329SOL    HW111884  10.209   5.939   9.238
 3329SOL    HW211885  10.315   6.013   9.160
 3330SOL     OW11886  14.665   8.097   0.479
 3330SOL    HW111887  14.703   8.009   0.479
 3330SOL    HW211888  14.688   8.133   0.393
 3331SOL     OW11889   6.684  11.080   1.922
 3331SOL    HW111890   6.715  11.022   1.992
 3331SOL    HW211891   6.600  11.043   1.896
 3332SOL     OW11892  13.459   3.448  13.326
 3332SOL    HW111893  13.408   3.471  13.404
 3332SOL    HW211894  13.550   3.466  13.351
 3333SOL     OW11895   9.661   5.735   7.357
 3333SOL    HW111896   9.650   5.753   7.264
 3333SOL    HW211897   9.728   5.668   7.362
 3334SOL     OW11898  14.853   4.789  11.914
 3334SOL    HW111899   0.021   4.747  11.842
 3334SOL    HW211900  14.775   4.736  11.926
 3335SOL     OW11901   6.963   0.595  13.766
 3335SOL    HW111902   7.022   0.564  13.698
 3335SOL    HW211903   7.021   0.636  13.830
 3336SOL     OW11904   7.490  12.400   6.623
 3336SOL    HW111905   7.446  12.401   6.538
 3336SOL    HW211906   7.581  12.380   6.603
 3337SOL     OW11907   9.292  12.737  12.025
 3337SOL    HW111908   9.286  12.717  11.932
 3337SOL    HW211909   9.353  12.672  12.060
 3338SOL     OW11910  13.424  14.833   3.669
 3338SOL    HW111911  13.385  14.810   3.753
 3338SOL    HW211912  13.406  14.758   3.613
 3339SOL     OW11913  12.736  10.298   0.441
 3339SOL    HW111914  12.694  10.384   0.449
 3339SOL    HW211915  12.753  10.272   0.532
 3340SOL     OW11916  13.491  14.255   3.288
 3340SOL    HW111917  13.554  14.193   3.252
 3340SOL    HW211918  13.409  14.206   3.293
 3341SOL     OW11919   0.686   7.539   5.416
 3341SOL    HW111920   0.638   7.456   5.409
 3341SOL    HW211921   0.632   7.591   5.476
 3342SOL     OW11922  12.013  10.304  10.258
 3342SOL    HW111923  11.918  10.314  10.254
 3342SOL    HW211924  12.047  10.391  10.237
 3343SOL     OW11925   2.649   3.153  12.901
 3343SOL    HW111926   2.582   3.183  12.963
 3343SOL    HW211927   2.658   3.226  12.840
 3344SOL     OW11928   9.538  12.661  12.604
 3344SOL    HW111929   9.465  12.706  12.646
 3344SOL    HW211930   9.541  12.697  12.516
 3345SOL     OW11931   5.591   7.272  13.205
 3345SOL    HW111932   5.534   7.199  13.180
 3345SOL    HW211933   5.678   7.246  13.174
 3346SOL     OW11934   0.851   4.715  11.349
 3346SOL    HW111935   0.871   4.699  11.257
 3346SOL    HW211936   0.936   4.730  11.390
 3347SOL     OW11937   6.837   8.851   7.267
 3347SOL    HW111938   6.809   8.863   7.176
 3347SOL    HW211939   6.756   8.829   7.314
 3348SOL     OW11940  12.629   4.436   6.508
 3348SOL    HW111941  12.685   4.391   6.572
 3348SOL    HW211942  12.600   4.515   6.554
 3349SOL     OW11943   0.655   8.622   4.125
 3349SOL    HW111944   0.700   8.706   4.134
 3349SOL    HW211945   0.725   8.557   4.133
 3350SOL     OW11946  12.522  10.935  12.566
 3350SOL    HW111947  12.437  10.937  12.611
 3350SOL    HW211948  12.501  10.955  12.475
 3351SOL     OW11949   4.869   3.532   2.424
 3351SOL    HW111950   4.870   3.621   2.459
 3351SOL    HW211951   4.809   3.536   2.350
 3352SOL     OW11952   8.126   8.053   9.394
 3352SOL    HW111953   8.191   7.992   9.429
 3352SOL    HW211954   8.078   8.003   9.329
 3353SOL     OW11955  14.357   2.732   6.358
 3353SOL    HW111956  14.372   2.725   6.263
 3353SOL    HW211957  14.326   2.645   6.384
 3354SOL     OW11958  12.784   5.061  11.880
 3354SOL    HW111959  12.767   5.128  11.946
 3354SOL    HW211960  12.843   5.102  11.818
 3355SOL     OW11961   0.725   6.008  12.207
 3355SOL    HW111962   0.744   6.069  12.279
 3355SOL    HW211963   0.754   5.923  12.240
 3356SOL     OW11964   3.854  10.139   4.447
 3356SOL    HW111965   3.877  10.198   4.519
 3356SOL    HW211966   3.771  10.174   4.413
 3357SOL     OW11967   9.466   3.325  10.905
 3357SOL    HW111968   9.521   3.386  10.954
 3357SOL    HW211969   9.524   3.291  10.837
 3358SOL     OW11970  13.833   5.961   0.854
 3358SOL    HW111971  13.905   5.906   0.822
 3358SOL    HW211972  13.762   5.899   0.873
 3359SOL     OW11973   5.213   4.883   1.280
 3359SOL    HW111974   5.213   4.817   1.210
 3359SOL    HW211975   5.193   4.966   1.235
 3360SOL     OW11976  13.278   7.837   3.407
 3360SOL    HW111977  13.293   7.745   3.426
 3360SOL    HW211978  13.345   7.884   3.456
 3361SOL     OW11979   4.540  10.180   3.447
 3361SOL    HW111980   4.634  10.180   3.431
 3361SOL    HW211981   4.530  10.222   3.532
 3362SOL     OW11982   1.556   3.728  11.919
 3362SOL    HW111983   1.517   3.708  11.835
 3362SOL    HW211984   1.523   3.815  11.942
 3363SOL     OW11985  12.848  11.683   0.126
 3363SOL    HW111986  12.868  11.658   0.216
 3363SOL    HW211987  12.892  11.768   0.114
 3364SOL     OW11988   0.012  11.361   0.660
 3364SOL    HW111989  14.807  11.326   0.687
 3364SOL    HW211990   0.030  11.431   0.722
 3365SOL     OW11991  14.315  14.648   0.539
 3365SOL    HW111992  14.325  14.635   0.633
 3365SOL    HW211993  14.355  14.734   0.522
 3366SOL     OW11994  11.814   7.655   5.564
 3366SOL    HW111995  11.868   7.676   5.488
 3366SOL    HW211996  11.733   7.705   5.551
 3367SOL     OW11997   8.300  13.499   6.036
 3367SOL    HW111998   8.308  13.544   5.952
 3367SOL    HW211999   8.359  13.546   6.094
 3368SOL     OW12000   5.227   3.290  12.578
 3368SOL    HW112001   5.165   3.263  12.646
 3368SOL    HW212002   5.172   3.323  12.507
 3369SOL     OW12003   3.086  13.895  13.015
 3369SOL    HW112004   3.171  13.926  13.047
 3369SOL    HW212005   3.035  13.877  13.095
 3370SOL     OW12006   9.879   0.085   2.456
 3370SOL    HW112007   9.877   0.172   2.495
 3370SOL    HW212008   9.971   0.061   2.455
 3371SOL     OW12009  14.442   2.527  14.718
 3371SOL    HW112010  14.521   2.547  14.769
 3371SOL    HW212011  14.375   2.509  14.784
 3372SOL     OW12012   1.479   0.201   8.341
 3372SOL    HW112013   1.558   0.146   8.344
 3372SOL    HW212014   1.424   0.159   8.275
 3373SOL     OW12015   2.163   6.968  13.036
 3373SOL    HW112016   2.258   6.971  13.039
 3373SOL    HW212017   2.135   7.053  13.069
 3374SOL     OW12018   2.999  14.745  14.658
 3374SOL    HW112019   3.076  14.753  14.714
 3374SOL    HW212020   2.927  14.728  14.718
 3375SOL     OW12021   3.884   4.264   5.139
 3375SOL    HW112022   3.949   4.278   5.070
 3375SOL    HW212023   3.866   4.170   5.136
 3376SOL     OW12024   9.357   1.058   4.932
 3376SOL    HW112025   9.400   1.126   4.881
 3376SOL    HW212026   9.275   1.099   4.961
 3377SOL     OW12027  11.191  13.511   0.428
 3377SOL    HW112028  11.240  13.463   0.495
 3377SOL    HW212029  11.207  13.603   0.449
 3378SOL     OW12030   8.686  12.994  14.708
 3378SOL    HW112031   8.683  13.080  14.750
 3378SOL    HW212032   8.774  12.990  14.670
 3379SOL     OW12033   1.238   0.638   8.809
 3379SOL    HW112034   1.247   0.586   8.889
 3379SOL    HW212035   1.188   0.715   8.836
 3380SOL     OW12036   9.900   5.083   8.298
 3380SOL    HW112037   9.917   5.174   8.273
 3380SOL    HW212038   9.818   5.086   8.346
 3381SOL     OW12039   1.089  13.230  12.792
 3381SOL    HW112040   1.159  13.237  12.727
 3381SOL    HW212041   1.091  13.138  12.819
 3382SOL     OW12042  11.907   5.127   6.179
 3382SOL    HW112043  11.826   5.084   6.152
 3382SOL    HW212044  11.900   5.216   6.142
 3383SOL     OW12045  14.523  12.815   0.523
 3383SOL    HW112046  14.510  12.781   0.434
 3383SOL    HW212047  14.516  12.910   0.513
 3384SOL     OW12048  10.364   1.825  11.740
 3384SOL    HW112049  10.285   1.879  11.729
 3384SOL    HW212050  10.351   1.782  11.824
 3385SOL     OW12051   4.655   6.417   9.916
 3385SOL    HW112052   4.673   6.437   9.824
 3385SOL    HW212053   4.619   6.328   9.914
 3386SOL     OW12054   8.973  10.446   6.641
 3386SOL    HW112055   8.917  10.369   6.649
 3386SOL    HW212056   9.016  10.454   6.726
 3387SOL     OW12057   7.355   5.449  12.884
 3387SOL    HW112058   7.294   5.385  12.846
 3387SOL    HW212059   7.311   5.481  12.962
 3388SOL     OW12060   0.632   3.473   0.841
 3388SOL    HW112061   0.690   3.544   0.869
 3388SOL    HW212062   0.621   3.487   0.747
 3389SOL     OW12063  10.184   7.406   9.682
 3389SOL    HW112064  10.274   7.412   9.714
 3389SOL    HW212065  10.155   7.319   9.710
 3390SOL     OW12066   2.835   0.909   5.305
 3390SOL    HW112067   2.891   0.848   5.257
 3390SOL    HW212068   2.862   0.900   5.396
 3391SOL     OW12069   4.368   2.938  12.480
 3391SOL    HW112070   4.385   2.847  12.457
 3391SOL    HW212071   4.285   2.936  12.528
 3392SOL     OW12072   0.881  11.872   4.973
 3392SOL    HW112073   0.821  11.891   5.044
 3392SOL    HW212074   0.965  11.855   5.016
 3393SOL     OW12075  10.053   9.711   0.057
 3393SOL    HW112076  10.101   9.713   0.140
 3393SOL    HW212077   9.974   9.660   0.077
 3394SOL     OW12078   9.146   1.917  11.619
 3394SOL    HW112079   9.075   1.885  11.675
 3394SOL    HW212080   9.124   2.008  11.602
 3395SOL     OW12081   7.212   4.489   1.247
 3395SOL    HW112082   7.145   4.525   1.306
 3395SOL    HW212083   7.221   4.555   1.178
 3396SOL     OW12084   7.474   5.148   2.916
 3396SOL    HW112085   7.501   5.238   2.898
 3396SOL    HW212086   7.379   5.150   2.903
 3397SOL     OW12087  10.613  13.914   7.882
 3397SOL    HW112088  10.664  13.843   7.921
 3397SOL    HW212089  10.580  13.878   7.800
 3398SOL     OW12090   8.844  13.098  13.719
 3398SOL    HW112091   8.906  13.092  13.791
 3398SOL    HW212092   8.857  13.016  13.670
 3399SOL     OW12093  11.110   6.536   7.334
 3399SOL    HW112094  11.183   6.474   7.342
 3399SOL    HW212095  11.058   6.503   7.261
 3400SOL     OW12096   5.941   2.810  12.418
 3400SOL    HW112097   5.883   2.861  12.361
 3400SOL    HW212098   5.964   2.733  12.367
 3401SOL     OW12099   0.547  11.119   2.391
 3401SOL    HW112100   0.623  11.166   2.423
 3401SOL    HW212101   0.472  11.157   2.437
 3402SOL     OW12102   9.389   5.356   0.460
 3402SOL    HW112103   9.410   5.389   0.373
 3402SOL    HW212104   9.326   5.419   0.496
 3403SOL     OW12105   9.231   8.804   8.111
 3403SOL    HW112106   9.190   8.775   8.030
 3403SOL    HW212107   9.227   8.900   8.108
 3404SOL     OW12108  14.442   8.769   0.669
 3404SOL    HW112109  14.402   8.682   0.664
 3404SOL    HW212110  14.487   8.770   0.753
 3405SOL     OW12111  12.627   0.670   0.024
 3405SOL    HW112112  12.567   0.651  14.832
 3405SOL    HW212113  12.650   0.762   0.013
 3406SOL     OW12114   6.896   0.829   5.597
 3406SOL    HW112115   6.973   0.805   5.648
 3406SOL    HW212116   6.901   0.775   5.518
 3407SOL     OW12117   2.942  14.276   1.336
 3407SOL    HW112118   3.036  14.265   1.351
 3407SOL    HW212119   2.925  14.226   1.256
 3408SOL     OW12120   7.331   2.309  10.191
 3408SOL    HW112121   7.335   2.291  10.097
 3408SOL    HW212122   7.379   2.391  10.202
 3409SOL     OW12123   9.215   8.149   0.760
 3409SOL    HW112124   9.229   8.228   0.812
 3409SOL    HW212125   9.298   8.101   0.767
 3410SOL     OW12126  14.572   1.115   4.934
 3410SOL    HW112127  14.626   1.047   4.894
 3410SOL    HW212128  14.634   1.175   4.974
 3411SOL     OW12129  11.793   1.999   4.360
 3411SOL    HW112130  11.776   2.004   4.454
 3411SOL    HW212131  11.824   2.087   4.336
 3412SOL     OW12132   7.739  11.363  14.094
 3412SOL    HW112133   7.674  11.345  14.162
 3412SOL    HW212134   7.800  11.290  14.099
 3413SOL     OW12135  11.420  12.070   8.090
 3413SOL    HW112136  11.442  12.078   7.997
 3413SOL    HW212137  11.463  12.145   8.131
 3414SOL     OW12138   2.193   4.790  12.336
 3414SOL    HW112139   2.177   4.832  12.251
 3414SOL    HW212140   2.288   4.784  12.342
 3415SOL     OW12141  14.839  13.250   8.458
 3415SOL    HW112142   0.047  13.249   8.496
 3415SOL    HW212143  14.820  13.159   8.437
 3416SOL     OW12144   0.799   9.631  10.193
 3416SOL    HW112145   0.716   9.672  10.169
 3416SOL    HW212146   0.862   9.703  10.191
 3417SOL     OW12147   0.449  12.193   7.811
 3417SOL    HW112148   0.466  12.277   7.854
 3417SOL    HW212149   0.495  12.200   7.727
 3418SOL     OW12150  14.267   3.662   0.127
 3418SOL    HW112151  14.212   3.700   0.195
 3418SOL    HW212152  14.209   3.603   0.079
 3419SOL     OW12153   8.540  10.454   5.394
 3419SOL    HW112154   8.561  10.420   5.307
 3419SOL    HW212155   8.605  10.523   5.409
 3420SOL     OW12156  11.000   4.925  11.400
 3420SOL    HW112157  11.049   4.977  11.337
 3420SOL    HW212158  11.043   4.839  11.399
 3421SOL     OW12159   4.505  11.503  14.736
 3421SOL    HW112160   4.492  11.427  14.679
 3421SOL    HW212161   4.436  11.564  14.712
 3422SOL     OW12162   0.426  13.472   6.638
 3422SOL    HW112163   0.505  13.527   6.633
 3422SOL    HW212164   0.396  13.465   6.548
 3423SOL     OW12165  10.620  10.333  11.101
 3423SOL    HW112166  10.561  10.315  11.029
 3423SOL    HW212167  10.700  10.284  11.080
 3424SOL     OW12168   1.797   7.196  13.369
 3424SOL    HW112169   1.817   7.243  13.288
 3424SOL    HW212170   1.882   7.177  13.408
 3425SOL     OW12171   6.860  13.969  14.644
 3425SOL    HW112172   6.935  14.003  14.694
 3425SOL    HW212173   6.900  13.924  14.570
 3426SOL     OW12174   6.632   5.733  11.088
 3426SOL    HW112175   6.562   5.699  11.144
 3426SOL    HW212176   6.650   5.820  11.124
 3427SOL     OW12177  13.303   3.616   5.797
 3427SOL    HW112178  13.380   3.672   5.811
 3427SOL    HW212179  13.339   3.533   5.767
 3428SOL     OW12180   0.874   5.615   8.338
 3428SOL    HW112181   0.816   5.542   8.362
 3428SOL    HW212182   0.920   5.636   8.420
 3429SOL     OW12183   5.830   5.820   8.573
 3429SOL    HW112184   5.752   5.871   8.592
 3429SOL    HW212185   5.836   5.819   8.478
 3430SOL     OW12186   4.098   6.813   4.347
 3430SOL    HW112187   4.139   6.748   4.289
 3430SOL    HW212188   4.121   6.785   4.435
 3431SOL     OW12189  12.207   8.318   2.190
 3431SOL    HW112190  12.243   8.281   2.271
 3431SOL    HW212191  12.177   8.405   2.215
 3432SOL     OW12192  11.041   7.399   1.907
 3432SOL    HW112193  11.124   7.427   1.869
 3432SOL    HW212194  10.979   7.468   1.885
 3433SOL     OW12195   5.162  12.847   8.805
 3433SOL    HW112196   5.143  12.763   8.762
 3433SOL    HW212197   5.116  12.912   8.752
 3434SOL     OW12198   0.921   0.635  11.627
 3434SOL    HW112199   0.857   0.627  11.557
 3434SOL    HW212200   1.000   0.595  11.592
 3435SOL     OW12201   2.893   6.583   4.705
 3435SOL    HW112202   2.970   6.550   4.750
 3435SOL    HW212203   2.901   6.549   4.616
 3436SOL     OW12204   2.190  13.183   1.372
 3436SOL    HW112205   2.152  13.141   1.449
 3436SOL    HW212206   2.170  13.276   1.383
 3437SOL     OW12207   7.748   0.907   9.616
 3437SOL    HW112208   7.830   0.875   9.653
 3437SOL    HW212209   7.774   0.953   9.536
 3438SOL     OW12210  11.293   8.878   3.480
 3438SOL    HW112211  11.319   8.960   3.439
 3438SOL    HW212212  11.223   8.845   3.424
 3439SOL     OW12213  11.173  11.346   7.289
 3439SOL    HW112214  11.165  11.333   7.194
 3439SOL    HW212215  11.177  11.257   7.325
 3440SOL     OW12216  12.062  11.291   5.318
 3440SOL    HW112217  12.054  11.371   5.266
 3440SOL    HW212218  12.004  11.306   5.393
 3441SOL     OW12219  10.686   9.183   9.514
 3441SOL    HW112220  10.706   9.143   9.599
 3441SOL    HW212221  10.758   9.245   9.499
 3442SOL     OW12222  12.511   0.861   6.374
 3442SOL    HW112223  12.444   0.848   6.441
 3442SOL    HW212224  12.471   0.829   6.294
 3443SOL     OW12225  10.333   2.262  11.291
 3443SOL    HW112226  10.368   2.245  11.378
 3443SOL    HW212227  10.384   2.206  11.233
 3444SOL     OW12228   6.887  10.797  14.157
 3444SOL    HW112229   6.829  10.825  14.228
 3444SOL    HW212230   6.830  10.745  14.100
 3445SOL     OW12231   8.954   6.347  10.720
 3445SOL    HW112232   8.951   6.282  10.790
 3445SOL    HW212233   9.011   6.417  10.754
 3446SOL     OW12234   6.413  11.071   0.670
 3446SOL    HW112235   6.337  11.123   0.696
 3446SOL    HW212236   6.385  11.023   0.592
 3447SOL     OW12237   6.973  12.539   4.811
 3447SOL    HW112238   7.016  12.622   4.829
 3447SOL    HW212239   6.883  12.551   4.843
 3448SOL     OW12240   0.371   3.665   0.773
 3448SOL    HW112241   0.391   3.730   0.705
 3448SOL    HW212242   0.306   3.608   0.733
 3449SOL     OW12243   9.234   6.405  11.896
 3449SOL    HW112244   9.310   6.390  11.952
 3449SOL    HW212245   9.206   6.318  11.869
 3450SOL     OW12246  14.827   8.120   2.300
 3450SOL    HW112247  14.746   8.093   2.257
 3450SOL    HW212248  14.801   8.195   2.354
 3451SOL     OW12249   0.835   5.381   0.188
 3451SOL    HW112250   0.854   5.467   0.151
 3451SOL    HW212251   0.921   5.341   0.201
 3452SOL     OW12252   0.798  13.270  11.796
 3452SOL    HW112253   0.743  13.194  11.813
 3452SOL    HW212254   0.887  13.241  11.816
 3453SOL     OW12255  13.516   4.531  11.300
 3453SOL    HW112256  13.451   4.465  11.275
 3453SOL    HW212257  13.491   4.555  11.390
 3454SOL     OW12258   4.741   0.717   3.048
 3454SOL    HW112259   4.770   0.658   2.978
 3454SOL    HW212260   4.820   0.767   3.071
 3455SOL     OW12261   2.539   7.796   7.885
 3455SOL    HW112262   2.632   7.819   7.888
 3455SOL    HW212263   2.508   7.830   7.801
 3456SOL     OW12264   2.962  13.994   0.366
 3456SOL    HW112265   2.876  14.035   0.368
 3456SOL    HW212266   3.022  14.065   0.342
 3457SOL     OW12267   3.668  11.428   8.709
 3457SOL    HW112268   3.730  11.435   8.637
 3457SOL    HW212269   3.582  11.422   8.666
 3458SOL     OW12270  10.961  13.134  13.850
 3458SOL    HW112271  10.903  13.103  13.781
 3458SOL    HW212272  10.918  13.214  13.883
 3459SOL     OW12273  11.547   5.346   2.232
 3459SOL    HW112274  11.586   5.362   2.318
 3459SOL    HW212275  11.505   5.261   2.239
 3460SOL     OW12276   1.999   7.800   5.814
 3460SOL    HW112277   1.955   7.716   5.806
 3460SOL    HW212278   1.928   7.861   5.837
 3461SOL     OW12279   9.877  13.460   9.882
 3461SOL    HW112280   9.817  13.418   9.943
 3461SOL    HW212281   9.964  13.430   9.910
 3462SOL     OW12282   6.501   7.101   8.413
 3462SOL    HW112283   6.519   7.157   8.488
 3462SOL    HW212284   6.441   7.034   8.446
 3463SOL     OW12285  13.618   2.839   5.219
 3463SOL    HW112286  13.579   2.901   5.157
 3463SOL    HW212287  13.625   2.757   5.171
 3464SOL     OW12288   0.034  11.975   7.056
 3464SOL    HW112289   0.039  12.058   7.103
 3464SOL    HW212290  14.845  11.989   6.989
 3465SOL     OW12291   7.627   7.753   6.396
 3465SOL    HW112292   7.694   7.709   6.343
 3465SOL    HW212293   7.630   7.706   6.480
 3466SOL     OW12294   6.931   8.094  12.595
 3466SOL    HW112295   6.962   8.029  12.532
 3466SOL    HW212296   6.978   8.174  12.572
 3467SOL     OW12297  12.576   5.310  10.106
 3467SOL    HW112298  12.538   5.366  10.174
 3467SOL    HW212299  12.665   5.343  10.095
 3468SOL     OW12300   2.660   8.828  14.174
 3468SOL    HW112301   2.686   8.918  14.189
 3468SOL    HW212302   2.620   8.829  14.087
 3469SOL     OW12303  12.123  12.914  12.423
 3469SOL    HW112304  12.180  12.908  12.500
 3469SOL    HW212305  12.060  12.843  12.435
 3470SOL     OW12306   1.999  14.098   2.092
 3470SOL    HW112307   1.934  14.029   2.083
 3470SOL    HW212308   2.000  14.119   2.185
 3471SOL     OW12309   5.543   6.180   8.958
 3471SOL    HW112310   5.503   6.100   8.989
 3471SOL    HW212311   5.616   6.151   8.903
 3472SOL     OW12312   2.942   7.084   2.398
 3472SOL    HW112313   2.998   7.098   2.475
 3472SOL    HW212314   2.938   7.170   2.356
 3473SOL     OW12315  13.100  10.954   5.084
 3473SOL    HW112316  13.182  10.963   5.131
 3473SOL    HW212317  13.075  11.044   5.063
 3474SOL     OW12318   1.067  13.870   2.430
 3474SOL    HW112319   1.125  13.891   2.357
 3474SOL    HW212320   1.091  13.781   2.455
 3475SOL     OW12321   6.752  11.115   6.663
 3475SOL    HW112322   6.760  11.024   6.692
 3475SOL    HW212323   6.726  11.163   6.742
 3476SOL     OW12324   2.536  13.472  12.389
 3476SOL    HW112325   2.513  13.397  12.443
 3476SOL    HW212326   2.629  13.461  12.369
 3477SOL     OW12327  14.691   6.030  10.705
 3477SOL    HW112328  14.682   5.938  10.683
 3477SOL    HW212329  14.738   6.068  10.630
 3478SOL     OW12330   1.324   6.889   7.311
 3478SOL    HW112331   1.315   6.795   7.293
 3478SOL    HW212332   1.394   6.918   7.253
 3479SOL     OW12333   1.017  12.392   3.806
 3479SOL    HW112334   0.986  12.411   3.895
 3479SOL    HW212335   0.968  12.315   3.779
 3480SOL     OW12336  10.293   0.106   7.681
 3480SOL    HW112337  10.240   0.032   7.711
 3480SOL    HW212338  10.234   0.155   7.623
 3481SOL     OW12339   0.605   5.668  13.857
 3481SOL    HW112340   0.516   5.660  13.824
 3481SOL    HW212341   0.612   5.603  13.927
 3482SOL     OW12342   1.344  14.094   8.850
 3482SOL    HW112343   1.336  14.187   8.829
 3482SOL    HW212344   1.313  14.049   8.772
 3483SOL     OW12345  10.827   2.656  11.124
 3483SOL    HW112346  10.737   2.688  11.131
 3483SOL    HW212347  10.882   2.730  11.151
 3484SOL     OW12348   1.197   0.184   8.710
 3484SOL    HW112349   1.213   0.270   8.671
 3484SOL    HW212350   1.195   0.123   8.636
 3485SOL     OW12351  12.088   0.001  14.161
 3485SOL    HW112352  12.182  14.865  14.168
 3485SOL    HW212353  12.056  14.813  14.101
 3486SOL     OW12354  14.877   7.618   2.840
 3486SOL    HW112355   0.017   7.526   2.826
 3486SOL    HW212356   0.002   7.629   2.935
 3487SOL     OW12357   6.655   6.902   6.136
 3487SOL    HW112358   6.729   6.930   6.083
 3487SOL    HW212359   6.578   6.917   6.081
 3488SOL     OW12360   6.975   3.490   2.889
 3488SOL    HW112361   7.045   3.521   2.831
 3488SOL    HW212362   6.913   3.563   2.893
 3489SOL     OW12363   6.443   3.107  11.590
 3489SOL    HW112364   6.525   3.058  11.583
 3489SOL    HW212365   6.379   3.044  11.622
 3490SOL     OW12366   5.331   5.708  11.875
 3490SOL    HW112367   5.344   5.716  11.970
 3490SOL    HW212368   5.369   5.788  11.839
 3491SOL     OW12369  12.319   8.887   9.576
 3491SOL    HW112370  12.258   8.913   9.645
 3491SOL    HW212371  12.328   8.792   9.588
 3492SOL     OW12372   2.794   8.587   6.753
 3492SOL    HW112373   2.840   8.614   6.833
 3492SOL    HW212374   2.737   8.661   6.732
 3493SOL     OW12375  10.807  11.622   6.232
 3493SOL    HW112376  10.867  11.678   6.183
 3493SOL    HW212377  10.860  11.589   6.305
 3494SOL     OW12378   3.791   3.344  13.299
 3494SOL    HW112379   3.823   3.274  13.356
 3494SOL    HW212380   3.700   3.357  13.325
 3495SOL     OW12381  13.244   1.660  13.578
 3495SOL    HW112382  13.286   1.673  13.493
 3495SOL    HW212383  13.315   1.631  13.636
 3496SOL     OW12384   3.951   2.063   7.998
 3496SOL    HW112385   3.954   1.980   7.950
 3496SOL    HW212386   3.922   2.039   8.086
 3497SOL     OW12387   3.539  10.344  10.512
 3497SOL    HW112388   3.505  10.373  10.597
 3497SOL    HW212389   3.545  10.425  10.461
 3498SOL     OW12390  14.586   5.282   2.713
 3498SOL    HW112391  14.573   5.188   2.702
 3498SOL    HW212392  14.613   5.313   2.626
 3499SOL     OW12393   8.215  13.961  11.857
 3499SOL    HW112394   8.244  13.883  11.810
 3499SOL    HW212395   8.233  13.942  11.949
 3500SOL     OW12396  12.153   9.982  12.819
 3500SOL    HW112397  12.122  10.014  12.904
 3500SOL    HW212398  12.231  10.035  12.801
 3501SOL     OW12399  11.931   8.466   9.811
 3501SOL    HW112400  11.894   8.438   9.728
 3501SOL    HW212401  11.887   8.411   9.876
 3502SOL     OW12402   7.860   9.416  13.292
 3502SOL    HW112403   7.808   9.495  13.278
 3502SOL    HW212404   7.864   9.375  13.205
 3503SOL     OW12405   1.207   4.279   3.875
 3503SOL    HW112406   1.171   4.257   3.960
 3503SOL    HW212407   1.132   4.282   3.816
 3504SOL     OW12408   5.402   4.436   7.868
 3504SOL    HW112409   5.362   4.353   7.842
 3504SOL    HW212410   5.401   4.490   7.789
 3505SOL     OW12411  13.339   3.018   8.493
 3505SOL    HW112412  13.432   3.009   8.475
 3505SOL    HW212413  13.326   2.973   8.577
 3506SOL     OW12414   2.106  12.944   5.487
 3506SOL    HW112415   2.017  12.966   5.460
 3506SOL    HW212416   2.162  13.009   5.445
 3507SOL     OW12417   4.659   1.989   5.048
 3507SOL    HW112418   4.713   1.915   5.022
 3507SOL    HW212419   4.601   2.005   4.973
 3508SOL     OW12420  13.430   1.522   3.648
 3508SOL    HW112421  13.449   1.532   3.554
 3508SOL    HW212422  13.343   1.483   3.650
 3509SOL     OW12423  10.732   0.283   8.990
 3509SOL    HW112424  10.672   0.235   9.047
 3509SOL    HW212425  10.812   0.291   9.041
 3510SOL     OW12426  12.141   6.219   1.117
 3510SOL    HW112427  12.200   6.144   1.108
 3510SOL    HW212428  12.090   6.220   1.037
 3511SOL     OW12429   3.155   5.136   0.965
 3511SOL    HW112430   3.196   5.221   0.979
 3511SOL    HW212431   3.075   5.156   0.916
 3512SOL     OW12432   6.935  12.235   3.325
 3512SOL    HW112433   6.906  12.289   3.252
 3512SOL    HW212434   6.990  12.294   3.377
 3513SOL     OW12435  12.550  13.510   5.903
 3513SOL    HW112436  12.484  13.523   5.972
 3513SOL    HW212437  12.601  13.590   5.904
 3514SOL     OW12438  10.627   7.472   5.537
 3514SOL    HW112439  10.548   7.508   5.576
 3514SOL    HW212440  10.682   7.548   5.518
 3515SOL     OW12441   2.233   6.242  10.170
 3515SOL    HW112442   2.186   6.179  10.224
 3515SOL    HW212443   2.167   6.306  10.144
 3516SOL     OW12444   4.650  11.958   5.023
 3516SOL    HW112445   4.578  11.909   4.983
 3516SOL    HW212446   4.727  11.902   5.010
 3517SOL     OW12447  13.003   2.878  13.351
 3517SOL    HW112448  12.963   2.949  13.300
 3517SOL    HW212449  13.025   2.919  13.435
 3518SOL     OW12450   3.438   5.772   8.842
 3518SOL    HW112451   3.531   5.785   8.825
 3518SOL    HW212452   3.410   5.853   8.884
 3519SOL     OW12453   6.418  14.876   9.598
 3519SOL    HW112454   6.412   0.056   9.672
 3519SOL    HW212455   6.327  14.852   9.578
 3520SOL     OW12456   1.939   1.134   5.203
 3520SOL    HW112457   1.935   1.220   5.245
 3520SOL    HW212458   1.848   1.111   5.187
 3521SOL     OW12459  11.507  13.156  13.096
 3521SOL    HW112460  11.451  13.179  13.022
 3521SOL    HW212461  11.595  13.184  13.070
 3522SOL     OW12462   3.880   6.595   4.322
 3522SOL    HW112463   3.810   6.608   4.258
 3522SOL    HW212464   3.922   6.681   4.329
 3523SOL     OW12465   1.377  13.466  13.683
 3523SOL    HW112466   1.302  13.460  13.742
 3523SOL    HW212467   1.426  13.541  13.714
 3524SOL     OW12468   3.032   0.105   5.747
 3524SOL    HW112469   3.005   0.087   5.837
 3524SOL    HW212470   2.950   0.122   5.701
 3525SOL     OW12471   4.195   5.699  10.412
 3525SOL    HW112472   4.142   5.751  10.352
 3525SOL    HW212473   4.267   5.665  10.357
 3526SOL     OW12474   9.448   6.522   2.820
 3526SOL    HW112475   9.539   6.507   2.843
 3526SOL    HW212476   9.403   6.441   2.846
 3527SOL     OW12477   1.610   2.337   8.258
 3527SOL    HW112478   1.688   2.336   8.315
 3527SOL    HW212479   1.552   2.401   8.299
 3528SOL     OW12480   7.857   7.925   3.791
 3528SOL    HW112481   7.859   8.016   3.759
 3528SOL    HW212482   7.879   7.872   3.714
 3529SOL     OW12483   6.022   2.674   0.899
 3529SOL    HW112484   6.106   2.686   0.856
 3529SOL    HW212485   6.006   2.756   0.945
 3530SOL     OW12486   5.250   3.986   3.031
 3530SOL    HW112487   5.305   3.909   3.013
 3530SOL    HW212488   5.161   3.954   3.019
 3531SOL     OW12489  10.740  14.080   1.123
 3531SOL    HW112490  10.834  14.099   1.130
 3531SOL    HW212491  10.724  14.012   1.189
 3532SOL     OW12492   6.505  11.885   5.868
 3532SOL    HW112493   6.556  11.905   5.790
 3532SOL    HW212494   6.561  11.824   5.918
 3533SOL     OW12495   9.808   9.504   0.675
 3533SOL    HW112496   9.748   9.577   0.661
 3533SOL    HW212497   9.893   9.537   0.647
 3534SOL     OW12498  12.850  14.819   1.386
 3534SOL    HW112499  12.860  14.728   1.417
 3534SOL    HW212500  12.815  14.866   1.462
 3535SOL     OW12501   1.746   6.004   1.160
 3535SOL    HW112502   1.808   6.046   1.100
 3535SOL    HW212503   1.796   5.933   1.200
 3536SOL     OW12504  11.514   5.746   8.418
 3536SOL    HW112505  11.492   5.840   8.423
 3536SOL    HW212506  11.469   5.716   8.340
 3537SOL     OW12507  10.177   5.494   0.726
 3537SOL    HW112508  10.089   5.513   0.760
 3537SOL    HW212509  10.198   5.570   0.670
 3538SOL     OW12510   7.323  11.763  13.190
 3538SOL    HW112511   7.311  11.738  13.098
 3538SOL    HW212512   7.248  11.819  13.209
 3539SOL     OW12513   1.735   2.534   7.816
 3539SOL    HW112514   1.719   2.467   7.883
 3539SOL    HW212515   1.802   2.590   7.854
 3540SOL     OW12516   6.428   1.247   0.760
 3540SOL    HW112517   6.489   1.288   0.822
 3540SOL    HW212518   6.472   1.166   0.733
 3541SOL     OW12519  14.077   2.303   7.387
 3541SOL    HW112520  14.079   2.397   7.367
 3541SOL    HW212521  13.984   2.282   7.394
 3542SOL     OW12522  13.013  10.260  13.827
 3542SOL    HW112523  12.968  10.343  13.811
 3542SOL    HW212524  13.064  10.275  13.907
 3543SOL     OW12525   1.500   2.189  12.994
 3543SOL    HW112526   1.469   2.103  13.023
 3543SOL    HW212527   1.560   2.170  12.922
 3544SOL     OW12528   3.152   1.572   6.978
 3544SOL    HW112529   3.082   1.542   7.036
 3544SOL    HW212530   3.144   1.516   6.900
 3545SOL     OW12531  11.906   0.988   7.850
 3545SOL    HW112532  11.966   1.008   7.922
 3545SOL    HW212533  11.947   0.914   7.805
 3546SOL     OW12534   3.633   6.366   3.450
 3546SOL    HW112535   3.615   6.438   3.511
 3546SOL    HW212536   3.671   6.409   3.373
 3547SOL     OW12537  11.143   6.685  10.930
 3547SOL    HW112538  11.091   6.606  10.913
 3547SOL    HW212539  11.233   6.654  10.935
 3548SOL     OW12540   3.836   7.822   1.895
 3548SOL    HW112541   3.829   7.910   1.858
 3548SOL    HW212542   3.930   7.804   1.895
 3549SOL     OW12543  13.680   9.855  12.230
 3549SOL    HW112544  13.639   9.910  12.297
 3549SOL    HW212545  13.667   9.765  12.261
 3550SOL     OW12546  10.799   2.315   6.564
 3550SOL    HW112547  10.812   2.377   6.492
 3550SOL    HW212548  10.793   2.230   6.522
 3551SOL     OW12549   3.220  11.026  10.614
 3551SOL    HW112550   3.307  11.031  10.573
 3551SOL    HW212551   3.182  10.945  10.579
 3552SOL     OW12552  13.562  13.629   3.961
 3552SOL    HW112553  13.495  13.692   3.989
 3552SOL    HW212554  13.630  13.683   3.921
 3553SOL     OW12555  10.103  13.482   6.427
 3553SOL    HW112556  10.070  13.479   6.337
 3553SOL    HW212557  10.194  13.455   6.420
 3554SOL     OW12558   1.967   2.677   2.499
 3554SOL    HW112559   1.972   2.646   2.409
 3554SOL    HW212560   1.957   2.598   2.551
 3555SOL     OW12561   2.760   9.592   8.368
 3555SOL    HW112562   2.716   9.524   8.316
 3555SOL    HW212563   2.691   9.632   8.419
 3556SOL     OW12564   7.476   9.872   8.602
 3556SOL    HW112565   7.424   9.840   8.676
 3556SOL    HW212566   7.564   9.880   8.636
 3557SOL     OW12567   5.897   8.352   6.837
 3557SOL    HW112568   5.985   8.377   6.807
 3557SOL    HW212569   5.893   8.385   6.927
 3558SOL     OW12570   0.312   6.999   2.878
 3558SOL    HW112571   0.406   6.986   2.866
 3558SOL    HW212572   0.303   7.093   2.895
 3559SOL     OW12573   0.336   8.291   4.585
 3559SOL    HW112574   0.287   8.341   4.519
 3559SOL    HW212575   0.336   8.347   4.662
 3560SOL     OW12576  13.437   2.225  12.305
 3560SOL    HW112577  13.505   2.261  12.247
 3560SOL    HW212578  13.468   2.244  12.393
 3561SOL     OW12579   2.526  11.087   3.467
 3561SOL    HW112580   2.516  11.175   3.431
 3561SOL    HW212581   2.620  11.076   3.478
 3562SOL     OW12582   8.112   8.464   0.704
 3562SOL    HW112583   8.022   8.467   0.736
 3562SOL    HW212584   8.105   8.477   0.610
 3563SOL     OW12585   9.071   9.418   8.687
 3563SOL    HW112586   8.991   9.470   8.682
 3563SOL    HW212587   9.136   9.470   8.641
 3564SOL     OW12588   7.108   8.319   4.013
 3564SOL    HW112589   7.104   8.236   4.060
 3564SOL    HW212590   7.046   8.376   4.060
 3565SOL     OW12591   1.444   2.790  11.174
 3565SOL    HW112592   1.476   2.725  11.111
 3565SOL    HW212593   1.392   2.850  11.121
 3566SOL     OW12594  13.809  13.150   8.061
 3566SOL    HW112595  13.844  13.199   7.987
 3566SOL    HW212596  13.743  13.207   8.099
 3567SOL     OW12597  14.307  13.400   2.826
 3567SOL    HW112598  14.384  13.345   2.813
 3567SOL    HW212599  14.321  13.444   2.910
 3568SOL     OW12600   1.338   4.910   5.023
 3568SOL    HW112601   1.326   4.858   5.102
 3568SOL    HW212602   1.335   5.001   5.053
 3569SOL     OW12603   3.027   0.526  13.503
 3569SOL    HW112604   3.028   0.600  13.443
 3569SOL    HW212605   2.934   0.506  13.514
 3570SOL     OW12606   1.747  11.085   0.726
 3570SOL    HW112607   1.828  11.052   0.766
 3570SOL    HW212608   1.698  11.124   0.798
 3571SOL     OW12609   1.069   8.323   6.276
 3571SOL    HW112610   1.085   8.273   6.195
 3571SOL    HW212611   1.077   8.414   6.249
 3572SOL     OW12612   4.885   3.231   5.471
 3572SOL    HW112613   4.881   3.167   5.400
 3572SOL    HW212614   4.909   3.181   5.548
 3573SOL     OW12615   0.614  10.182   0.798
 3573SOL    HW112616   0.529  10.225   0.791
 3573SOL    HW212617   0.612  10.137   0.882
 3574SOL     OW12618  11.579   3.957   4.776
 3574SOL    HW112619  11.546   3.907   4.851
 3574SOL    HW212620  11.584   3.893   4.705
 3575SOL     OW12621   3.394  11.076  14.098
 3575SOL    HW112622   3.464  11.104  14.157
 3575SOL    HW212623   3.313  11.102  14.143
 3576SOL     OW12624   1.854  12.952   9.929
 3576SOL    HW112625   1.939  12.979   9.963
 3576SOL    HW212626   1.874  12.899   9.852
 3577SOL     OW12627   1.753   2.097   8.827
 3577SOL    HW112628   1.730   2.031   8.892
 3577SOL    HW212629   1.844   2.118   8.845
 3578SOL     OW12630   8.633   5.953  11.828
 3578SOL    HW112631   8.707   5.983  11.775
 3578SOL    HW212632   8.594   6.033  11.862
 3579SOL     OW12633  10.204  10.970  13.451
 3579SOL    HW112634  10.139  10.925  13.505
 3579SOL    HW212635  10.264  10.901  13.424
 3580SOL     OW12636  11.309   6.467   9.296
 3580SOL    HW112637  11.379   6.513   9.250
 3580SOL    HW212638  11.256   6.428   9.226
 3581SOL     OW12639  10.879   0.680  11.131
 3581SOL    HW112640  10.805   0.689  11.191
 3581SOL    HW212641  10.843   0.633  11.056
 3582SOL     OW12642  12.936   3.246   2.700
 3582SOL    HW112643  12.879   3.172   2.684
 3582SOL    HW212644  12.988   3.221   2.777
 3583SOL     OW12645  13.520  14.768   0.523
 3583SOL    HW112646  13.602  14.731   0.493
 3583SOL    HW212647  13.539  14.803   0.610
 3584SOL     OW12648   2.449  14.058  12.329
 3584SOL    HW112649   2.493  14.117  12.268
 3584SOL    HW212650   2.479  14.087  12.415
 3585SOL     OW12651  14.399   9.633   1.546
 3585SOL    HW112652  14.479   9.581   1.534
 3585SOL    HW212653  14.363   9.601   1.629
 3586SOL     OW12654  12.002   8.634  12.243
 3586SOL    HW112655  11.968   8.600  12.160
 3586SOL    HW212656  11.976   8.569  12.308
 3587SOL     OW12657   2.758   7.336   1.553
 3587SOL    HW112658   2.787   7.379   1.634
 3587SOL    HW212659   2.782   7.397   1.484
 3588SOL     OW12660   9.648   3.947   3.126
 3588SOL    HW112661   9.657   3.971   3.034
 3588SOL    HW212662   9.576   4.003   3.158
 3589SOL     OW12663   5.660   9.351  11.672
 3589SOL    HW112664   5.620   9.371  11.588
 3589SOL    HW212665   5.657   9.256  11.679
 3590SOL     OW12666   6.328   3.747   7.616
 3590SOL    HW112667   6.337   3.714   7.706
 3590SOL    HW212668   6.418   3.754   7.584
 3591SOL     OW12669   5.696   5.810   1.155
 3591SOL    HW112670   5.723   5.836   1.243
 3591SOL    HW212671   5.613   5.856   1.141
 3592SOL     OW12672   3.723   9.303  10.647
 3592SOL    HW112673   3.768   9.266  10.571
 3592SOL    HW212674   3.745   9.396  10.644
 3593SOL     OW12675   4.710   2.168   1.422
 3593SOL    HW112676   4.710   2.162   1.326
 3593SOL    HW212677   4.801   2.184   1.445
 3594SOL     OW12678   9.706  13.513  12.326
 3594SOL    HW112679   9.612  13.525  12.336
 3594SOL    HW212680   9.722  13.421  12.347
 3595SOL     OW12681   5.205   1.562   8.786
 3595SOL    HW112682   5.233   1.563   8.878
 3595SOL    HW212683   5.112   1.585   8.789
 3596SOL     OW12684   2.064  13.925   7.560
 3596SOL    HW112685   2.117  13.864   7.509
 3596SOL    HW212686   2.128  13.984   7.600
 3597SOL     OW12687  11.018  10.559   1.564
 3597SOL    HW112688  10.950  10.530   1.504
 3597SOL    HW212689  10.996  10.518   1.648
 3598SOL     OW12690  13.881   3.577   3.346
 3598SOL    HW112691  13.904   3.565   3.438
 3598SOL    HW212692  13.838   3.495   3.322
 3599SOL     OW12693   4.916   6.826   3.945
 3599SOL    HW112694   4.996   6.775   3.930
 3599SOL    HW212695   4.918   6.894   3.878
 3600SOL     OW12696  14.299   5.687  11.174
 3600SOL    HW112697  14.224   5.709  11.118
 3600SOL    HW212698  14.281   5.598  11.206
 3601SOL     OW12699   4.713  14.009   9.995
 3601SOL    HW112700   4.684  14.073   9.929
 3601SOL    HW212701   4.806  14.026  10.006
 3602SOL     OW12702   3.953   5.757  14.063
 3602SOL    HW112703   3.985   5.709  13.986
 3602SOL    HW212704   3.876   5.709  14.092
 3603SOL     OW12705   3.189   2.410  11.670
 3603SOL    HW112706   3.243   2.364  11.735
 3603SOL    HW212707   3.100   2.380  11.687
 3604SOL     OW12708   6.424   8.305  12.337
 3604SOL    HW112709   6.490   8.238  12.317
 3604SOL    HW212710   6.474   8.387  12.342
 3605SOL     OW12711   3.523   2.754   5.248
 3605SOL    HW112712   3.452   2.724   5.192
 3605SOL    HW212713   3.543   2.679   5.304
 3606SOL     OW12714   0.556   3.599   5.529
 3606SOL    HW112715   0.612   3.626   5.456
 3606SOL    HW212716   0.492   3.671   5.538
 3607SOL     OW12717   5.671   6.606  14.116
 3607SOL    HW112718   5.623   6.547  14.059
 3607SOL    HW212719   5.638   6.693  14.093
 3608SOL     OW12720   5.005   5.954  10.569
 3608SOL    HW112721   4.928   6.011  10.575
 3608SOL    HW212722   4.989   5.900  10.492
 3609SOL     OW12723  14.029   4.545  10.311
 3609SOL    HW112724  13.941   4.542  10.274
 3609SOL    HW212725  14.015   4.538  10.406
 3610SOL     OW12726   0.825  14.865   1.386
 3610SOL    HW112727   0.746   0.012   1.338
 3610SOL    HW212728   0.850  14.781   1.347
 3611SOL     OW12729  14.744  13.206   4.734
 3611SOL    HW112730  14.730  13.276   4.798
 3611SOL    HW212731  14.799  13.246   4.666
 3612SOL     OW12732  12.587  13.018  11.057
 3612SOL    HW112733  12.590  13.073  11.135
 3612SOL    HW212734  12.674  12.978  11.052
 3613SOL     OW12735  11.008   6.465  14.656
 3613SOL    HW112736  11.043   6.384  14.692
 3613SOL    HW212737  11.061   6.481  14.578
 3614SOL     OW12738   7.282   8.000   0.250
 3614SOL    HW112739   7.194   8.030   0.273
 3614SOL    HW212740   7.313   8.063   0.186
 3615SOL     OW12741  10.733   1.205  11.336
 3615SOL    HW112742  10.798   1.273  11.317
 3615SOL    HW212743  10.783   1.124  11.339
 3616SOL     OW12744   5.561   7.339   9.797
 3616SOL    HW112745   5.531   7.392   9.871
 3616SOL    HW212746   5.656   7.350   9.796
 3617SOL     OW12747   2.586  11.943  11.025
 3617SOL    HW112748   2.595  11.848  11.025
 3617SOL    HW212749   2.601  11.969  11.116
 3618SOL     OW12750   8.309  10.479   3.651
 3618SOL    HW112751   8.275  10.390   3.643
 3618SOL    HW212752   8.329  10.489   3.744
 3619SOL     OW12753  13.174   0.896   2.060
 3619SOL    HW112754  13.103   0.860   2.113
 3619SOL    HW212755  13.134   0.915   1.975
 3620SOL     OW12756   6.429  11.942   7.049
 3620SOL    HW112757   6.425  11.940   7.144
 3620SOL    HW212758   6.347  11.982   7.022
 3621SOL     OW12759   1.233  12.724  14.312
 3621SOL    HW112760   1.256  12.707  14.403
 3621SOL    HW212761   1.313  12.756  14.272
 3622SOL     OW12762   2.178   7.628   3.070
 3622SOL    HW112763   2.208   7.692   3.134
 3622SOL    HW212764   2.111   7.577   3.116
 3623SOL     OW12765  11.737  14.818  14.179
 3623SOL    HW112766  11.743  14.793  14.087
 3623SOL    HW212767  11.717   0.032  14.177
 3624SOL     OW12768   2.758   8.847   9.930
 3624SOL    HW112769   2.819   8.831   9.857
 3624SOL    HW212770   2.794   8.797  10.003
 3625SOL     OW12771  10.099  13.599  10.175
 3625SOL    HW112772  10.105  13.659  10.101
 3625SOL    HW212773  10.051  13.648  10.242
 3626SOL     OW12774   9.687   1.869   3.856
 3626SOL    HW112775   9.780   1.890   3.845
 3626SOL    HW212776   9.642   1.923   3.790
 3627SOL     OW12777   1.279  14.290  14.163
 3627SOL    HW112778   1.253  14.365  14.109
 3627SOL    HW212779   1.324  14.329  14.238
 3628SOL     OW12780   6.165   9.223   4.279
 3628SOL    HW112781   6.242   9.256   4.325
 3628SOL    HW212782   6.134   9.150   4.333
 3629SOL     OW12783  14.799  11.371   2.994
 3629SOL    HW112784  14.813  11.359   3.087
 3629SOL    HW212785   0.005  11.396   2.959
 3630SOL     OW12786   1.584   7.743  13.108
 3630SOL    HW112787   1.595   7.665  13.163
 3630SOL    HW212788   1.673   7.778  13.098
 3631SOL     OW12789   2.940   6.942   4.984
 3631SOL    HW112790   2.895   6.881   4.926
 3631SOL    HW212791   2.991   6.886   5.043
 3632SOL     OW12792  13.954   5.508   9.081
 3632SOL    HW112793  14.038   5.507   9.126
 3632SOL    HW212794  13.976   5.512   8.988
 3633SOL     OW12795   5.897  10.127   8.113
 3633SOL    HW112796   5.862  10.039   8.105
 3633SOL    HW212797   5.981  10.116   8.157
 3634SOL     OW12798   1.990  12.341  12.809
 3634SOL    HW112799   1.945  12.398  12.871
 3634SOL    HW212800   2.074  12.386  12.793
 3635SOL     OW12801  14.582   9.404   4.391
 3635SOL    HW112802  14.510   9.445   4.344
 3635SOL    HW212803  14.591   9.456   4.471
 3636SOL     OW12804  13.205   4.382   9.500
 3636SOL    HW112805  13.234   4.471   9.481
 3636SOL    HW212806  13.141   4.362   9.431
 3637SOL     OW12807   5.908   5.107  13.074
 3637SOL    HW112808   5.869   5.058  13.147
 3637SOL    HW212809   5.848   5.180  13.060
 3638SOL     OW12810   2.657  10.276   4.298
 3638SOL    HW112811   2.727  10.276   4.363
 3638SOL    HW212812   2.655  10.186   4.265
 3639SOL     OW12813   0.580  13.107  11.934
 3639SOL    HW112814   0.662  13.059  11.940
 3639SOL    HW212815   0.530  13.079  12.011
 3640SOL     OW12816  11.915  12.323   5.023
 3640SOL    HW112817  11.984  12.259   5.004
 3640SOL    HW212818  11.958  12.389   5.077
 3641SOL     OW12819   8.601  11.504  11.957
 3641SOL    HW112820   8.624  11.505  11.864
 3641SOL    HW212821   8.506  11.494  11.959
 3642SOL     OW12822  11.202   4.739   1.687
 3642SOL    HW112823  11.204   4.724   1.782
 3642SOL    HW212824  11.126   4.689   1.657
 3643SOL     OW12825  10.614   5.825   7.754
 3643SOL    HW112826  10.671   5.900   7.766
 3643SOL    HW212827  10.529   5.853   7.788
 3644SOL     OW12828  12.233  11.112  14.077
 3644SOL    HW112829  12.317  11.064  14.082
 3644SOL    HW212830  12.252  11.197  14.117
 3645SOL     OW12831   2.221  14.753  10.426
 3645SOL    HW112832   2.177  14.711  10.500
 3645SOL    HW212833   2.307  14.713  10.422
 3646SOL     OW12834   3.594   4.458   0.573
 3646SOL    HW112835   3.640   4.456   0.490
 3646SOL    HW212836   3.517   4.402   0.559
 3647SOL     OW12837   7.176   0.348   2.998
 3647SOL    HW112838   7.095   0.299   2.989
 3647SOL    HW212839   7.158   0.432   2.956
 3648SOL     OW12840  10.710   7.827   2.685
 3648SOL    HW112841  10.704   7.854   2.594
 3648SOL    HW212842  10.620   7.831   2.718
 3649SOL     OW12843   5.660  13.963   8.477
 3649SOL    HW112844   5.706  13.880   8.487
 3649SOL    HW212845   5.607  13.971   8.556
 3650SOL     OW12846  12.382   3.609  14.554
 3650SOL    HW112847  12.397   3.515  14.544
 3650SOL    HW212848  12.397   3.645  14.467
 3651SOL     OW12849   3.355  14.670   0.619
 3651SOL    HW112850   3.286  14.613   0.585
 3651SOL    HW212851   3.308  14.738   0.668
 3652SOL     OW12852  13.396   5.196  12.620
 3652SOL    HW112853  13.327   5.147  12.665
 3652SOL    HW212854  13.423   5.264  12.683
 3653SOL     OW12855  11.302  12.421   1.725
 3653SOL    HW112856  11.343  12.335   1.729
 3653SOL    HW212857  11.209  12.403   1.715
 3654SOL     OW12858  12.897   5.935  11.377
 3654SOL    HW112859  12.980   5.981  11.386
 3654SOL    HW212860  12.852   5.980  11.305
 3655SOL     OW12861  10.883   7.685   4.913
 3655SOL    HW112862  10.968   7.690   4.870
 3655SOL    HW212863  10.863   7.777   4.934
 3656SOL     OW12864   5.666   0.739   1.088
 3656SOL    HW112865   5.711   0.792   1.023
 3656SOL    HW212866   5.619   0.673   1.037
 3657SOL     OW12867   3.080  11.298  12.556
 3657SOL    HW112868   3.049  11.378  12.598
 3657SOL    HW212869   3.011  11.234  12.575
 3658SOL     OW12870  12.096   1.086   8.023
 3658SOL    HW112871  12.175   1.036   8.002
 3658SOL    HW212872  12.126   1.177   8.028
 3659SOL     OW12873  11.843   4.401   9.890
 3659SOL    HW112874  11.924   4.426   9.934
 3659SOL    HW212875  11.848   4.445   9.805
 3660SOL     OW12876  12.848  11.178   6.849
 3660SOL    HW112877  12.769  11.218   6.884
 3660SOL    HW212878  12.818  11.123   6.776
 3661SOL     OW12879   8.668   2.498  10.555
 3661SOL    HW112880   8.623   2.425  10.515
 3661SOL    HW212881   8.659   2.570  10.492
 3662SOL     OW12882  12.383   5.658   2.301
 3662SOL    HW112883  12.362   5.667   2.394
 3662SOL    HW212884  12.312   5.703   2.256
 3663SOL     OW12885  14.335   6.439   9.453
 3663SOL    HW112886  14.364   6.389   9.377
 3663SOL    HW212887  14.267   6.384   9.493
 3664SOL     OW12888   3.021   7.693  14.865
 3664SOL    HW112889   2.963   7.744  14.809
 3664SOL    HW212890   3.093   7.753   0.006
 3665SOL     OW12891   1.647  10.026  13.660
 3665SOL    HW112892   1.585  10.052  13.591
 3665SOL    HW212893   1.648   9.931  13.656
 3666SOL     OW12894   8.912  12.538   0.802
 3666SOL    HW112895   8.921  12.590   0.722
 3666SOL    HW212896   8.893  12.602   0.870
 3667SOL     OW12897   9.215  10.511  11.525
 3667SOL    HW112898   9.277  10.580  11.504
 3667SOL    HW212899   9.240  10.437  11.469
 3668SOL     OW12900   8.491   9.319   6.177
 3668SOL    HW112901   8.572   9.309   6.227
 3668SOL    HW212902   8.427   9.349   6.242
 3669SOL     OW12903   4.516  11.888   0.680
 3669SOL    HW112904   4.473  11.966   0.716
 3669SOL    HW212905   4.531  11.832   0.756
 3670SOL     OW12906   1.160   0.752   5.498
 3670SOL    HW112907   1.201   0.701   5.428
 3670SOL    HW212908   1.127   0.687   5.559
 3671SOL     OW12909  10.577  10.624   6.523
 3671SOL    HW112910  10.489  10.586   6.525
 3671SOL    HW212911  10.617  10.597   6.606
 3672SOL     OW12912   3.061  14.197   3.154
 3672SOL    HW112913   3.148  14.169   3.180
 3672SOL    HW212914   3.074  14.240   3.070
 3673SOL     OW12915  13.342  13.278   9.978
 3673SOL    HW112916  13.434  13.255   9.993
 3673SOL    HW212917  13.292  13.210  10.025
 3674SOL     OW12918   4.039   3.036  10.758
 3674SOL    HW112919   3.964   3.093  10.739
 3674SOL    HW212920   4.001   2.949  10.770
 3675SOL     OW12921   0.416  13.059   5.588
 3675SOL    HW112922   0.466  13.133   5.554
 3675SOL    HW212923   0.424  13.068   5.683
 3676SOL     OW12924   1.811   5.144  11.278
 3676SOL    HW112925   1.742   5.149  11.344
 3676SOL    HW212926   1.775   5.191  11.203
 3677SOL     OW12927   2.084   2.330   3.839
 3677SOL    HW112928   2.014   2.277   3.801
 3677SOL    HW212929   2.165   2.284   3.816
 3678SOL     OW12930   4.234  11.445   2.298
 3678SOL    HW112931   4.206  11.355   2.279
 3678SOL    HW212932   4.308  11.460   2.239
 3679SOL     OW12933   2.026   8.513  11.283
 3679SOL    HW112934   2.027   8.606  11.259
 3679SOL    HW212935   2.022   8.514  11.379
 3680SOL     OW12936   1.102  11.737   5.907
 3680SOL    HW112937   1.158  11.777   5.973
 3680SOL    HW212938   1.126  11.782   5.825
 3681SOL     OW12939   3.381   0.787   1.725
 3681SOL    HW112940   3.350   0.726   1.658
 3681SOL    HW212941   3.323   0.862   1.718
 3682SOL     OW12942   9.307  11.211  11.473
 3682SOL    HW112943   9.394  11.178  11.450
 3682SOL    HW212944   9.271  11.244  11.390
 3683SOL     OW12945   8.481   4.475  13.529
 3683SOL    HW112946   8.527   4.557  13.547
 3683SOL    HW212947   8.407   4.501  13.473
 3684SOL     OW12948   6.918   3.692   6.320
 3684SOL    HW112949   6.824   3.699   6.305
 3684SOL    HW212950   6.929   3.708   6.413
 3685SOL     OW12951  10.820  10.765   2.616
 3685SOL    HW112952  10.862  10.810   2.689
 3685SOL    HW212953  10.789  10.836   2.559
 3686SOL     OW12954   6.267   3.108   2.569
 3686SOL    HW112955   6.198   3.046   2.546
 3686SOL    HW212956   6.222   3.193   2.572
 3687SOL     OW12957   4.416  12.915   3.805
 3687SOL    HW112958   4.431  12.847   3.740
 3687SOL    HW212959   4.321  12.918   3.816
 3688SOL     OW12960   3.344   2.195  13.216
 3688SOL    HW112961   3.379   2.228  13.133
 3688SOL    HW212962   3.284   2.263  13.246
 3689SOL     OW12963  11.457   7.589   3.874
 3689SOL    HW112964  11.383   7.545   3.831
 3689SOL    HW212965  11.460   7.676   3.834
 3690SOL     OW12966   6.008   1.576   0.220
 3690SOL    HW112967   6.062   1.617   0.153
 3690SOL    HW212968   6.062   1.577   0.299
 3691SOL     OW12969  14.387   6.797  14.119
 3691SOL    HW112970  14.463   6.773  14.173
 3691SOL    HW212971  14.331   6.847  14.178
 3692SOL     OW12972   4.862  12.850   3.899
 3692SOL    HW112973   4.925  12.840   3.970
 3692SOL    HW212974   4.782  12.810   3.933
 3693SOL     OW12975   5.223   8.550   6.566
 3693SOL    HW112976   5.231   8.469   6.617
 3693SOL    HW212977   5.290   8.608   6.602
 3694SOL     OW12978   5.927  11.857  12.654
 3694SOL    HW112979   5.928  11.948  12.685
 3694SOL    HW212980   5.984  11.857  12.577
 3695SOL     OW12981  10.033   6.879   1.387
 3695SOL    HW112982  10.119   6.922   1.382
 3695SOL    HW212983  10.054   6.786   1.385
 3696SOL     OW12984   0.540   3.988  10.023
 3696SOL    HW112985   0.467   3.932  10.051
 3696SOL    HW212986   0.553   3.966   9.931
 3697SOL     OW12987   0.304   5.472  12.301
 3697SOL    HW112988   0.383   5.520  12.326
 3697SOL    HW212989   0.257   5.532  12.243
 3698SOL     OW12990   7.063  11.733   2.402
 3698SOL    HW112991   7.035  11.665   2.462
 3698SOL    HW212992   7.118  11.688   2.338
 3699SOL     OW12993  13.037   2.837   6.391
 3699SOL    HW112994  13.094   2.899   6.437
 3699SOL    HW212995  13.064   2.843   6.300
 3700SOL     OW12996   9.956   5.547   0.412
 3700SOL    HW112997  10.022   5.486   0.380
 3700SOL    HW212998   9.953   5.616   0.346
 3701SOL     OW12999   3.283   5.330   5.450
 3701SOL    HW113000   3.224   5.297   5.382
 3701SOL    HW213001   3.233   5.397   5.495
 3702SOL     OW13002  12.173   5.278  13.611
 3702SOL    HW113003  12.091   5.326  13.623
 3702SOL    HW213004  12.204   5.302  13.524
 3703SOL     OW13005   8.068   9.791  12.421
 3703SOL    HW113006   8.052   9.836  12.338
 3703SOL    HW213007   7.990   9.807  12.473
 3704SOL     OW13008   3.443   9.722   8.717
 3704SOL    HW113009   3.428   9.674   8.636
 3704SOL    HW213010   3.449   9.814   8.690
 3705SOL     OW13011  12.311   5.752   5.796
 3705SOL    HW113012  12.218   5.771   5.783
 3705SOL    HW213013  12.312   5.684   5.864
 3706SOL     OW13014   6.630   1.754   8.530
 3706SOL    HW113015   6.583   1.812   8.469
 3706SOL    HW213016   6.570   1.680   8.543
 3707SOL     OW13017  12.743   9.859  12.412
 3707SOL    HW113018  12.819   9.809  12.383
 3707SOL    HW213019  12.698   9.884  12.331
 3708SOL     OW13020  13.489   3.954   4.952
 3708SOL    HW113021  13.449   3.883   4.902
 3708SOL    HW213022  13.416   4.011   4.974
 3709SOL     OW13023   2.754  10.122   5.944
 3709SOL    HW113024   2.805  10.054   5.988
 3709SOL    HW213025   2.809  10.149   5.871
 3710SOL     OW13026   2.804   5.551   0.764
 3710SOL    HW113027   2.802   5.646   0.774
 3710SOL    HW213028   2.878   5.523   0.817
 3711SOL     OW13029  11.481   4.063  11.043
 3711SOL    HW113030  11.478   4.026  11.131
 3711SOL    HW213031  11.469   4.157  11.056
 3712SOL     OW13032   0.263   9.248  13.525
 3712SOL    HW113033   0.220   9.196  13.457
 3712SOL    HW213034   0.212   9.329  13.528
 3713SOL     OW13035  10.338  13.651   0.422
 3713SOL    HW113036  10.379  13.705   0.490
 3713SOL    HW213037  10.264  13.610   0.467
 3714SOL     OW13038  13.878   3.291   9.241
 3714SOL    HW113039  13.949   3.299   9.177
 3714SOL    HW213040  13.919   3.246   9.316
 3715SOL     OW13041   7.341  14.714   3.528
 3715SOL    HW113042   7.393  14.692   3.605
 3715SOL    HW213043   7.268  14.653   3.530
 3716SOL     OW13044   5.284   8.177   2.185
 3716SOL    HW113045   5.296   8.261   2.229
 3716SOL    HW213046   5.341   8.181   2.108
 3717SOL     OW13047   3.008   1.128   6.303
 3717SOL    HW113048   2.917   1.126   6.275
 3717SOL    HW213049   3.021   1.045   6.349
 3718SOL     OW13050  11.632  11.749   7.768
 3718SOL    HW113051  11.562  11.782   7.712
 3718SOL    HW213052  11.590  11.685   7.825
 3719SOL     OW13053  11.053  10.095  10.097
 3719SOL    HW113054  10.975  10.103  10.152
 3719SOL    HW213055  11.126  10.117  10.154
 3720SOL     OW13056  12.188  12.700  10.554
 3720SOL    HW113057  12.123  12.672  10.491
 3720SOL    HW213058  12.269  12.708  10.504
 3721SOL     OW13059   4.720   3.434   1.910
 3721SOL    HW113060   4.653   3.478   1.961
 3721SOL    HW213061   4.777   3.505   1.879
 3722SOL     OW13062   2.350  11.597  10.715
 3722SOL    HW113063   2.284  11.667  10.720
 3722SOL    HW213064   2.342  11.551  10.798
 3723SOL     OW13065  14.724   0.868  10.417
 3723SOL    HW113066  14.745   0.832  10.331
 3723SOL    HW213067  14.703   0.792  10.471
 3724SOL     OW13068   4.921  14.082   6.223
 3724SOL    HW113069   4.948  13.997   6.256
 3724SOL    HW213070   4.891  14.130   6.301
 3725SOL     OW13071   1.444   0.004  11.454
 3725SOL    HW113072   1.410  14.817  11.395
 3725SOL    HW213073   1.418  14.854  11.541
 3726SOL     OW13074  12.881  10.465   9.901
 3726SOL    HW113075  12.901  10.372   9.895
 3726SOL    HW213076  12.851  10.490   9.814
 3727SOL     OW13077   2.146   9.609   8.090
 3727SOL    HW113078   2.143   9.670   8.163
 3727SOL    HW213079   2.067   9.628   8.039
 3728SOL     OW13080   5.232  14.796  11.613
 3728SOL    HW113081   5.186  14.724  11.655
 3728SOL    HW213082   5.271  14.758  11.535
 3729SOL     OW13083   0.178   4.923   6.490
 3729SOL    HW113084   0.136   4.968   6.563
 3729SOL    HW213085   0.171   4.830   6.511
 3730SOL     OW13086   0.027  11.728   4.767
 3730SOL    HW113087   0.089  11.674   4.717
 3730SOL    HW213088  14.847  11.762   4.700
 3731SOL     OW13089   3.506   1.835  10.936
 3731SOL    HW113090   3.577   1.809  10.995
 3731SOL    HW213091   3.433   1.778  10.959
 3732SOL     OW13092  13.525   9.036  13.887
 3732SOL    HW113093  13.529   9.120  13.841
 3732SOL    HW213094  13.612   9.024  13.924
 3733SOL     OW13095   3.092  10.923  13.444
 3733SOL    HW113096   3.105  10.851  13.381
 3733SOL    HW213097   3.013  10.899  13.491
 3734SOL     OW13098   1.362  11.108  10.919
 3734SOL    HW113099   1.419  11.062  10.857
 3734SOL    HW213100   1.275  11.105  10.877
 3735SOL     OW13101   8.764   6.685   8.522
 3735SOL    HW113102   8.844   6.701   8.473
 3735SOL    HW213103   8.723   6.772   8.530
 3736SOL     OW13104   3.312  14.106   2.510
 3736SOL    HW113105   3.238  14.129   2.454
 3736SOL    HW213106   3.273  14.090   2.596
 3737SOL     OW13107  10.610   0.196  13.541
 3737SOL    HW113108  10.577   0.278  13.505
 3737SOL    HW213109  10.608   0.209  13.636
 3738SOL     OW13110   2.502   9.719  13.251
 3738SOL    HW113111   2.435   9.783  13.275
 3738SOL    HW213112   2.578   9.772  13.225
 3739SOL     OW13113  11.715  10.330   2.656
 3739SOL    HW113114  11.664  10.408   2.635
 3739SOL    HW213115  11.651  10.269   2.693
 3740SOL     OW13116  11.978   9.701  10.504
 3740SOL    HW113117  12.029   9.780  10.523
 3740SOL    HW213118  11.898   9.711  10.555
 3741SOL     OW13119   1.054  13.636   4.717
 3741SOL    HW113120   0.995  13.631   4.793
 3741SOL    HW213121   1.113  13.708   4.738
 3742SOL     OW13122   9.641  14.798  10.876
 3742SOL    HW113123   9.629  14.714  10.832
 3742SOL    HW213124   9.703  14.779  10.946
 3743SOL     OW13125  11.679   1.506   3.253
 3743SOL    HW113126  11.696   1.565   3.179
 3743SOL    HW213127  11.604   1.545   3.298
 3744SOL     OW13128   2.772  12.994  11.259
 3744SOL    HW113129   2.855  12.959  11.225
 3744SOL    HW213130   2.705  12.952  11.204
 3745SOL     OW13131  14.405   1.466  12.807
 3745SOL    HW113132  14.392   1.541  12.865
 3745SOL    HW213133  14.413   1.505  12.720
 3746SOL     OW13134  11.671   0.044  11.998
 3746SOL    HW113135  11.733   0.040  12.071
 3746SOL    HW213136  11.623   0.126  12.011
 3747SOL     OW13137   9.541   0.147   6.300
 3747SOL    HW113138   9.618   0.092   6.316
 3747SOL    HW213139   9.467   0.092   6.326
 3748SOL     OW13140   6.360  12.074  14.673
 3748SOL    HW113141   6.407  12.012  14.617
 3748SOL    HW213142   6.429  12.131  14.708
 3749SOL     OW13143  14.486  13.884   3.273
 3749SOL    HW113144  14.422  13.868   3.342
 3749SOL    HW213145  14.505  13.797   3.238
 3750SOL     OW13146  13.183  10.458   7.429
 3750SOL    HW113147  13.148  10.399   7.362
 3750SOL    HW213148  13.241  10.403   7.482
 3751SOL     OW13149   2.403   6.179  12.949
 3751SOL    HW113150   2.468   6.131  13.001
 3751SOL    HW213151   2.369   6.245  13.010
 3752SOL     OW13152   0.462  14.063   1.404
 3752SOL    HW113153   0.477  14.063   1.498
 3752SOL    HW213154   0.450  13.971   1.381
 3753SOL     OW13155   1.376  14.349   1.740
 3753SOL    HW113156   1.292  14.388   1.768
 3753SOL    HW213157   1.442  14.399   1.788
 3754SOL     OW13158   7.024   3.452   4.718
 3754SOL    HW113159   7.029   3.504   4.637
 3754SOL    HW213160   7.115   3.433   4.740
 3755SOL     OW13161   0.322   4.757   1.689
 3755SOL    HW113162   0.365   4.831   1.732
 3755SOL    HW213163   0.274   4.797   1.616
 3756SOL     OW13164  14.324   4.595  12.169
 3756SOL    HW113165  14.343   4.521  12.228
 3756SOL    HW213166  14.366   4.670  12.211
 3757SOL     OW13167   8.457   6.155   9.023
 3757SOL    HW113168   8.454   6.235   9.076
 3757SOL    HW213169   8.368   6.120   9.026
 3758SOL     OW13170   8.261  11.737   5.204
 3758SOL    HW113171   8.248  11.729   5.110
 3758SOL    HW213172   8.212  11.815   5.229
 3759SOL     OW13173   3.261   9.817   3.842
 3759SOL    HW113174   3.289   9.780   3.926
 3759SOL    HW213175   3.337   9.805   3.785
 3760SOL     OW13176   2.402  10.361  11.458
 3760SOL    HW113177   2.328  10.304  11.480
 3760SOL    HW213178   2.446  10.316  11.387
 3761SOL     OW13179  10.029  10.573   5.209
 3761SOL    HW113180   9.951  10.564   5.155
 3761SOL    HW213181   9.997  10.597   5.295
 3762SOL     OW13182   2.705  11.915   9.731
 3762SOL    HW113183   2.662  11.988   9.686
 3762SOL    HW213184   2.647  11.840   9.716
 3763SOL     OW13185  13.679  11.186   4.057
 3763SOL    HW113186  13.688  11.092   4.044
 3763SOL    HW213187  13.640  11.195   4.144
 3764SOL     OW13188   6.597   5.726   9.941
 3764SOL    HW113189   6.635   5.801   9.988
 3764SOL    HW213190   6.560   5.764   9.862
 3765SOL     OW13191   5.995   0.001   3.669
 3765SOL    HW113192   6.047   0.082   3.670
 3765SOL    HW213193   6.054  14.814   3.635
 3766SOL     OW13194  12.504   0.684  10.032
 3766SOL    HW113195  12.440   0.743   9.991
 3766SOL    HW213196  12.570   0.670   9.965
 3767SOL     OW13197  10.671  11.621   4.044
 3767SOL    HW113198  10.707  11.590   4.128
 3767SOL    HW213199  10.670  11.543   3.989
 3768SOL     OW13200   2.815  10.020  10.417
 3768SOL    HW113201   2.897   9.971  10.411
 3768SOL    HW213202   2.792  10.018  10.509
 3769SOL     OW13203   0.365  14.032   8.546
 3769SOL    HW113204   0.276  13.998   8.537
 3769SOL    HW213205   0.417  13.980   8.485
 3770SOL     OW13206   0.820   3.932  12.368
 3770SOL    HW113207   0.904   3.943  12.414
 3770SOL    HW213208   0.754   3.940  12.437
 3771SOL     OW13209   3.124   2.894   0.281
 3771SOL    HW113210   3.171   2.909   0.363
 3771SOL    HW213211   3.055   2.831   0.304
 3772SOL     OW13212   1.719  14.831  10.570
 3772SOL    HW113213   1.745  14.759  10.511
 3772SOL    HW213214   1.787   0.018  10.558
 3773SOL     OW13215   7.148   0.581   2.373
 3773SOL    HW113216   7.164   0.546   2.285
 3773SOL    HW213217   7.226   0.559   2.422
 3774SOL     OW13218   9.604   4.459   0.903
 3774SOL    HW113219   9.682   4.494   0.946
 3774SOL    HW213220   9.637   4.388   0.847
 3775SOL     OW13221  12.878  12.168   7.075
 3775SOL    HW113222  12.969  12.186   7.051
 3775SOL    HW213223  12.874  12.073   7.082
 3776SOL     OW13224  11.683  12.444   2.617
 3776SOL    HW113225  11.763  12.496   2.614
 3776SOL    HW213226  11.714  12.354   2.633
 3777SOL     OW13227   8.892  14.424   6.580
 3777SOL    HW113228   8.923  14.382   6.660
 3777SOL    HW213229   8.875  14.515   6.605
 3778SOL     OW13230   9.727  13.564   1.238
 3778SOL    HW113231   9.674  13.486   1.257
 3778SOL    HW213232   9.813  13.544   1.276
 3779SOL     OW13233   0.074   4.315   9.316
 3779SOL    HW113234   0.073   4.389   9.256
 3779SOL    HW213235  14.868   4.274   9.304
 3780SOL     OW13236  14.495   5.615   9.613
 3780SOL    HW113237  14.555   5.689   9.599
 3780SOL    HW213238  14.429   5.649   9.673
 3781SOL     OW13239  11.327   8.215   3.903
 3781SOL    HW113240  11.361   8.248   3.820
 3781SOL    HW213241  11.266   8.283   3.932
 3782SOL     OW13242   7.663  10.377   9.440
 3782SOL    HW113243   7.645  10.438   9.368
 3782SOL    HW213244   7.652  10.429   9.519
 3783SOL     OW13245   4.706  14.070   5.065
 3783SOL    HW113246   4.659  14.010   5.007
 3783SOL    HW213247   4.788  14.025   5.085
 3784SOL     OW13248   2.235  10.532   0.073
 3784SOL    HW113249   2.241  10.625   0.052
 3784SOL    HW213250   2.215  10.529   0.166
 3785SOL     OW13251  13.740  10.075  11.438
 3785SOL    HW113252  13.760  10.126  11.359
 3785SOL    HW213253  13.654  10.104  11.465
 3786SOL     OW13254   5.005   6.320   0.151
 3786SOL    HW113255   4.934   6.282   0.100
 3786SOL    HW213256   4.964   6.391   0.200
 3787SOL     OW13257   7.313   0.672   1.780
 3787SOL    HW113258   7.232   0.690   1.826
 3787SOL    HW213259   7.346   0.592   1.820
 3788SOL     OW13260   2.648  11.436  10.840
 3788SOL    HW113261   2.608  11.357  10.805
 3788SOL    HW213262   2.740  11.431  10.813
 3789SOL     OW13263  13.492  14.757   1.170
 3789SOL    HW113264  13.430  14.723   1.234
 3789SOL    HW213265  13.438  14.785   1.096
 3790SOL     OW13266   5.410   0.925  11.289
 3790SOL    HW113267   5.344   0.889  11.348
 3790SOL    HW213268   5.493   0.890  11.322
 3791SOL     OW13269  11.117  14.710   5.506
 3791SOL    HW113270  11.068  14.628   5.508
 3791SOL    HW213271  11.190  14.693   5.447
 3792SOL     OW13272   4.445  13.360   0.663
 3792SOL    HW113273   4.463  13.452   0.681
 3792SOL    HW213274   4.392  13.331   0.738
 3793SOL     OW13275   9.903   2.549   9.910
 3793SOL    HW113276   9.887   2.529   9.818
 3793SOL    HW213277   9.819   2.534   9.953
 3794SOL     OW13278   1.749   7.084   1.446
 3794SOL    HW113279   1.818   7.097   1.511
 3794SOL    HW213280   1.736   6.989   1.444
 3795SOL     OW13281   4.099   2.588   1.695
 3795SOL    HW113282   4.097   2.675   1.655
 3795SOL    HW213283   4.060   2.530   1.630
 3796SOL     OW13284   6.160  10.203   0.871
 3796SOL    HW113285   6.193  10.217   0.959
 3796SOL    HW213286   6.170  10.288   0.827
 3797SOL     OW13287  13.091   8.061  10.028
 3797SOL    HW113288  12.997   8.042  10.026
 3797SOL    HW213289  13.126   8.003  10.096
 3798SOL     OW13290   3.430   4.830  13.410
 3798SOL    HW113291   3.404   4.751  13.361
 3798SOL    HW213292   3.519   4.812  13.440
 3799SOL     OW13293   7.035   1.694  10.462
 3799SOL    HW113294   7.041   1.789  10.468
 3799SOL    HW213295   6.989   1.667  10.541
 3800SOL     OW13296   4.957   9.201  13.461
 3800SOL    HW113297   4.936   9.262  13.391
 3800SOL    HW213298   4.905   9.231  13.536
 3801SOL     OW13299   2.578  11.246  11.804
 3801SOL    HW113300   2.557  11.313  11.739
 3801SOL    HW213301   2.673  11.235  11.797
 3802SOL     OW13302   0.181   3.172   8.641
 3802SOL    HW113303   0.186   3.221   8.723
 3802SOL    HW213304   0.204   3.235   8.573
 3803SOL     OW13305   0.225  14.462   8.245
 3803SOL    HW113306   0.129  14.459   8.240
 3803SOL    HW213307   0.243  14.499   8.331
 3804SOL     OW13308  10.805   7.012   0.966
 3804SOL    HW113309  10.768   6.949   1.028
 3804SOL    HW213310  10.855   6.959   0.904
 3805SOL     OW13311  12.371  12.931   4.340
 3805SOL    HW113312  12.305  12.862   4.346
 3805SOL    HW213313  12.347  12.981   4.262
 3806SOL     OW13314  11.510   4.148   8.640
 3806SOL    HW113315  11.415   4.155   8.637
 3806SOL    HW213316  11.530   4.071   8.587
 3807SOL     OW13317   7.966  14.619   8.134
 3807SOL    HW113318   8.039  14.655   8.184
 3807SOL    HW213319   7.939  14.542   8.183
 3808SOL     OW13320   9.803   1.493   6.941
 3808SOL    HW113321   9.749   1.461   6.868
 3808SOL    HW213322   9.886   1.517   6.900
 3809SOL     OW13323  11.702  11.550   3.259
 3809SOL    HW113324  11.755  11.623   3.290
 3809SOL    HW213325  11.635  11.539   3.326
 3810SOL     OW13326   5.114   2.069   4.010
 3810SOL    HW113327   5.121   1.995   3.950
 3810SOL    HW213328   5.085   2.030   4.093
 3811SOL     OW13329   8.385  13.623   4.230
 3811SOL    HW113330   8.472  13.600   4.197
 3811SOL    HW213331   8.326  13.564   4.184
 3812SOL     OW13332  14.085   2.217  11.339
 3812SOL    HW113333  14.147   2.150  11.366
 3812SOL    HW213334  14.032   2.175  11.271
 3813SOL     OW13335   9.592   8.847   1.734
 3813SOL    HW113336   9.671   8.895   1.711
 3813SOL    HW213337   9.619   8.790   1.807
 3814SOL     OW13338   5.852   6.425  14.241
 3814SOL    HW113339   5.773   6.472  14.215
 3814SOL    HW213340   5.863   6.447  14.334
 3815SOL     OW13341   8.299  14.801  14.249
 3815SOL    HW113342   8.278  14.761  14.165
 3815SOL    HW213343   8.281  14.733  14.313
 3816SOL     OW13344   7.272   5.441   8.195
 3816SOL    HW113345   7.234   5.441   8.282
 3816SOL    HW213346   7.363   5.467   8.208
 3817SOL     OW13347   8.303   2.682   6.186
 3817SOL    HW113348   8.338   2.738   6.255
 3817SOL    HW213349   8.287   2.598   6.228
 3818SOL     OW13350  11.227   6.104   1.648
 3818SOL    HW113351  11.222   6.061   1.734
 3818SOL    HW213352  11.261   6.192   1.667
 3819SOL     OW13353   0.898   3.739   0.436
 3819SOL    HW113354   0.849   3.801   0.383
 3819SOL    HW213355   0.977   3.721   0.384
 3820SOL     OW13356  12.389   6.631   2.216
 3820SOL    HW113357  12.400   6.625   2.311
 3820SOL    HW213358  12.313   6.576   2.196
 3821SOL     OW13359   9.110  10.101   5.479
 3821SOL    HW113360   9.168  10.071   5.409
 3821SOL    HW213361   9.043  10.152   5.434
 3822SOL     OW13362   4.683   6.316  11.708
 3822SOL    HW113363   4.661   6.268  11.628
 3822SOL    HW213364   4.637   6.269  11.778
 3823SOL     OW13365   3.949   5.174  13.254
 3823SOL    HW113366   3.865   5.152  13.295
 3823SOL    HW213367   3.926   5.198  13.164
 3824SOL     OW13368   9.098   7.906  14.461
 3824SOL    HW113369   9.040   7.948  14.523
 3824SOL    HW213370   9.157   7.852  14.514
 3825SOL     OW13371  13.951   4.834  10.831
 3825SOL    HW113372  13.963   4.926  10.855
 3825SOL    HW213373  14.000   4.824  10.750
 3826SOL     OW13374  13.161  12.686   3.006
 3826SOL    HW113375  13.100  12.720   3.071
 3826SOL    HW213376  13.141  12.736   2.926
 3827SOL     OW13377  10.601  11.263  13.585
 3827SOL    HW113378  10.651  11.185  13.561
 3827SOL    HW213379  10.539  11.233  13.651
 3828SOL     OW13380   0.859   3.264  11.825
 3828SOL    HW113381   0.830   3.189  11.877
 3828SOL    HW213382   0.778   3.313  11.808
 3829SOL     OW13383   8.731   1.415   7.660
 3829SOL    HW113384   8.814   1.463   7.667
 3829SOL    HW213385   8.686   1.457   7.586
 3830SOL     OW13386  12.492   2.039   1.644
 3830SOL    HW113387  12.401   2.037   1.617
 3830SOL    HW213388  12.493   1.998   1.731
 3831SOL     OW13389   6.033   5.214   3.238
 3831SOL    HW113390   5.963   5.273   3.210
 3831SOL    HW213391   6.059   5.246   3.325
 3832SOL     OW13392   3.265  10.694   3.623
 3832SOL    HW113393   3.325  10.725   3.555
 3832SOL    HW213394   3.314  10.702   3.704
 3833SOL     OW13395  11.244  14.614  14.248
 3833SOL    HW113396  11.263  14.555  14.320
 3833SOL    HW213397  11.209  14.558  14.179
 3834SOL     OW13398   2.559  14.541   8.842
 3834SOL    HW113399   2.475  14.561   8.883
 3834SOL    HW213400   2.561  14.446   8.836
 3835SOL     OW13401   1.896  10.456  12.234
 3835SOL    HW113402   1.980  10.427  12.200
 3835SOL    HW213403   1.853  10.376  12.266
 3836SOL     OW13404   3.016  12.909   2.311
 3836SOL    HW113405   3.099  12.871   2.283
 3836SOL    HW213406   3.039  12.996   2.344
 3837SOL     OW13407   7.571   1.007  13.411
 3837SOL    HW113408   7.560   0.965  13.496
 3837SOL    HW213409   7.544   1.098  13.425
 3838SOL     OW13410  14.129   2.144   0.147
 3838SOL    HW113411  14.188   2.163   0.074
 3838SOL    HW213412  14.155   2.204   0.216
 3839SOL     OW13413   6.977   2.478  12.449
 3839SOL    HW113414   6.942   2.417  12.385
 3839SOL    HW213415   7.019   2.547  12.397
 3840SOL     OW13416  12.887  12.094  12.488
 3840SOL    HW113417  12.952  12.163  12.479
 3840SOL    HW213418  12.812  12.137  12.530
 3841SOL     OW13419  11.760   6.902   5.137
 3841SOL    HW113420  11.847   6.927   5.168
 3841SOL    HW213421  11.758   6.930   5.046
 3842SOL     OW13422   0.770  10.561   5.274
 3842SOL    HW113423   0.850  10.523   5.239
 3842SOL    HW213424   0.711  10.487   5.287
 3843SOL     OW13425   8.812   3.853   5.951
 3843SOL    HW113426   8.815   3.852   5.855
 3843SOL    HW213427   8.887   3.799   5.977
 3844SOL     OW13428  11.005  13.779   5.918
 3844SOL    HW113429  10.995  13.689   5.949
 3844SOL    HW213430  11.078  13.776   5.857
 3845SOL     OW13431   3.949  12.030   8.564
 3845SOL    HW113432   3.881  11.963   8.567
 3845SOL    HW213433   3.967  12.049   8.656
 3846SOL     OW13434  10.073  13.755   6.269
 3846SOL    HW113435   9.984  13.788   6.278
 3846SOL    HW213436  10.063  13.661   6.258
 3847SOL     OW13437   8.608   8.235   4.697
 3847SOL    HW113438   8.583   8.149   4.732
 3847SOL    HW213439   8.553   8.247   4.620
 3848SOL     OW13440   0.815  10.685  10.427
 3848SOL    HW113441   0.871  10.754  10.463
 3848SOL    HW213442   0.726  10.712  10.449
 3849SOL     OW13443   5.958   7.006  13.922
 3849SOL    HW113444   5.995   6.947  13.988
 3849SOL    HW213445   5.983   6.966  13.838
 3850SOL     OW13446   6.073   1.200  12.636
 3850SOL    HW113447   6.147   1.260  12.624
 3850SOL    HW213448   6.102   1.139  12.704
 3851SOL     OW13449   2.647   6.457  12.567
 3851SOL    HW113450   2.691   6.373  12.560
 3851SOL    HW213451   2.565   6.437  12.614
 3852SOL     OW13452   5.936   3.978   1.636
 3852SOL    HW113453   5.859   3.964   1.581
 3852SOL    HW213454   5.961   4.069   1.622
 3853SOL     OW13455  11.181  11.054  13.140
 3853SOL    HW113456  11.191  11.135  13.090
 3853SOL    HW213457  11.204  11.078  13.230
 3854SOL     OW13458   1.558   7.669   3.827
 3854SOL    HW113459   1.472   7.698   3.856
 3854SOL    HW213460   1.620   7.729   3.870
 3855SOL     OW13461   0.508  14.410   2.187
 3855SOL    HW113462   0.429  14.357   2.195
 3855SOL    HW213463   0.477  14.501   2.188
 3856SOL     OW13464   3.177   8.599  11.659
 3856SOL    HW113465   3.250   8.641  11.705
 3856SOL    HW213466   3.202   8.602  11.566
 3857SOL     OW13467   0.428   6.614  11.398
 3857SOL    HW113468   0.448   6.521  11.412
 3857SOL    HW213469   0.511   6.659  11.415
 3858SOL     OW13470   6.884  12.968   0.144
 3858SOL    HW113471   6.820  12.898   0.156
 3858SOL    HW213472   6.907  12.963   0.051
 3859SOL     OW13473  12.060  10.346   8.250
 3859SOL    HW113474  12.113  10.340   8.170
 3859SOL    HW213475  12.060  10.257   8.285
 3860SOL     OW13476   9.873   2.710  11.764
 3860SOL    HW113477   9.961   2.699  11.800
 3860SOL    HW213478   9.839   2.788  11.807
 3861SOL     OW13479   6.452   3.439   5.721
 3861SOL    HW113480   6.359   3.420   5.704
 3861SOL    HW213481   6.499   3.378   5.664
 3862SOL     OW13482   8.926  14.150   0.813
 3862SOL    HW113483   8.989  14.125   0.745
 3862SOL    HW213484   8.857  14.084   0.809
 3863SOL     OW13485   1.532  14.466   8.974
 3863SOL    HW113486   1.447  14.507   8.991
 3863SOL    HW213487   1.550  14.487   8.882
 3864SOL     OW13488   7.244  13.166   6.140
 3864SOL    HW113489   7.268  13.092   6.196
 3864SOL    HW213490   7.326  13.213   6.126
 3865SOL     OW13491   6.710   4.132   6.652
 3865SOL    HW113492   6.717   4.212   6.600
 3865SOL    HW213493   6.759   4.150   6.732
 3866SOL     OW13494  10.232  12.288   0.628
 3866SOL    HW113495  10.192  12.206   0.657
 3866SOL    HW213496  10.203  12.298   0.538
 3867SOL     OW13497   0.296  10.355  12.850
 3867SOL    HW113498   0.287  10.287  12.917
 3867SOL    HW213499   0.277  10.437  12.897
 3868SOL     OW13500   2.318   2.450   9.685
 3868SOL    HW113501   2.299   2.371   9.736
 3868SOL    HW213502   2.358   2.510   9.748
 3869SOL     OW13503  11.451   7.906   2.324
 3869SOL    HW113504  11.528   7.952   2.293
 3869SOL    HW213505  11.387   7.975   2.342
 3870SOL     OW13506   7.148   0.581  14.689
 3870SOL    HW113507   7.210   0.557  14.758
 3870SOL    HW213508   7.125   0.672  14.709
 3871SOL     OW13509   9.612  10.841   6.943
 3871SOL    HW113510   9.677  10.778   6.912
 3871SOL    HW213511   9.555  10.856   6.867
 3872SOL     OW13512  10.575   3.058  10.876
 3872SOL    HW113513  10.567   2.974  10.830
 3872SOL    HW213514  10.486   3.077  10.907
 3873SOL     OW13515  12.309   2.093   5.858
 3873SOL    HW113516  12.320   2.187   5.847
 3873SOL    HW213517  12.215   2.080   5.856
 3874SOL     OW13518  11.105  13.958   9.574
 3874SOL    HW113519  11.037  13.976   9.640
 3874SOL    HW213520  11.116  13.863   9.576
 3875SOL     OW13521   7.041  12.184   5.817
 3875SOL    HW113522   7.010  12.207   5.729
 3875SOL    HW213523   6.972  12.129   5.854
 3876SOL     OW13524  11.342   8.640   3.859
 3876SOL    HW113525  11.373   8.570   3.802
 3876SOL    HW213526  11.371   8.721   3.815
 3877SOL     OW13527   4.591  14.636   5.432
 3877SOL    HW113528   4.635  14.721   5.431
 3877SOL    HW213529   4.499  14.657   5.413
 3878SOL     OW13530   1.940   5.871   2.572
 3878SOL    HW113531   1.988   5.796   2.605
 3878SOL    HW213532   1.955   5.870   2.478
 3879SOL     OW13533   9.262   1.207   6.090
 3879SOL    HW113534   9.264   1.280   6.028
 3879SOL    HW213535   9.175   1.209   6.128
 3880SOL     OW13536   6.114   2.600   5.588
 3880SOL    HW113537   6.118   2.505   5.575
 3880SOL    HW213538   6.095   2.635   5.501
 3881SOL     OW13539  10.913   3.417   8.745
 3881SOL    HW113540  10.870   3.465   8.816
 3881SOL    HW213541  10.926   3.329   8.781
 3882SOL     OW13542  14.022  10.831   5.868
 3882SOL    HW113543  14.047  10.792   5.784
 3882SOL    HW213544  13.982  10.915   5.844
 3883SOL     OW13545   3.856   3.862   5.949
 3883SOL    HW113546   3.845   3.920   5.874
 3883SOL    HW213547   3.803   3.785   5.928
 3884SOL     OW13548   5.316  12.291   5.627
 3884SOL    HW113549   5.306  12.212   5.680
 3884SOL    HW213550   5.259  12.276   5.552
 3885SOL     OW13551   4.098   8.382   9.784
 3885SOL    HW113552   4.107   8.474   9.807
 3885SOL    HW213553   4.174   8.364   9.727
 3886SOL     OW13554   9.658   9.908   8.964
 3886SOL    HW113555   9.599   9.849   8.916
 3886SOL    HW213556   9.622   9.912   9.052
 3887SOL     OW13557  14.484   7.608  12.111
 3887SOL    HW113558  14.436   7.530  12.085
 3887SOL    HW213559  14.448   7.678  12.056
 3888SOL     OW13560   9.322   7.628  13.079
 3888SOL    HW113561   9.289   7.718  13.080
 3888SOL    HW213562   9.386   7.626  13.150
 3889SOL     OW13563   3.519   2.793   3.912
 3889SOL    HW113564   3.463   2.819   3.985
 3889SOL    HW213565   3.606   2.785   3.949
 3890SOL     OW13566   5.225   6.004   0.644
 3890SOL    HW113567   5.221   6.097   0.621
 3890SOL    HW213568   5.280   6.000   0.722
 3891SOL     OW13569  11.114  14.464  11.424
 3891SOL    HW113570  11.106  14.382  11.375
 3891SOL    HW213571  11.198  14.457  11.470
 3892SOL     OW13572   5.396  14.063  13.409
 3892SOL    HW113573   5.327  14.079  13.344
 3892SOL    HW213574   5.349  14.026  13.484
 3893SOL     OW13575   1.143   8.966  13.488
 3893SOL    HW113576   1.113   8.925  13.569
 3893SOL    HW213577   1.183   8.894  13.439
 3894SOL     OW13578  14.447  14.110  12.832
 3894SOL    HW113579  14.354  14.106  12.851
 3894SOL    HW213580  14.485  14.034  12.876
 3895SOL     OW13581   7.366   0.395   1.589
 3895SOL    HW113582   7.394   0.407   1.680
 3895SOL    HW213583   7.271   0.406   1.591
 3896SOL     OW13584   0.542   8.215   5.029
 3896SOL    HW113585   0.544   8.199   4.934
 3896SOL    HW213586   0.465   8.167   5.060
 3897SOL     OW13587   9.990   9.359   6.742
 3897SOL    HW113588   9.925   9.294   6.766
 3897SOL    HW213589  10.061   9.309   6.703
 3898SOL     OW13590  12.908   9.023   6.170
 3898SOL    HW113591  12.857   9.080   6.113
 3898SOL    HW213592  12.849   8.950   6.190
 3899SOL     OW13593  12.678   4.349   5.146
 3899SOL    HW113594  12.716   4.419   5.200
 3899SOL    HW213595  12.753   4.313   5.099
 3900SOL     OW13596   6.246  13.648   5.038
 3900SOL    HW113597   6.316  13.672   4.977
 3900SOL    HW213598   6.168  13.690   5.002
 3901SOL     OW13599   9.437   1.969  11.797
 3901SOL    HW113600   9.409   2.058  11.775
 3901SOL    HW213601   9.528   1.966  11.769
 3902SOL     OW13602   2.142   7.180  13.680
 3902SOL    HW113603   2.231   7.211  13.661
 3902SOL    HW213604   2.148   7.085  13.675
 3903SOL     OW13605   5.400  13.146   0.803
 3903SOL    HW113606   5.389  13.225   0.857
 3903SOL    HW213607   5.365  13.075   0.857
 3904SOL     OW13608   3.936   6.162   3.728
 3904SOL    HW113609   3.960   6.169   3.820
 3904SOL    HW213610   4.005   6.208   3.681
 3905SOL     OW13611   0.135   5.745   3.551
 3905SOL    HW113612   0.117   5.733   3.458
 3905SOL    HW213613   0.231   5.745   3.558
 3906SOL     OW13614   1.435   4.299  11.519
 3906SOL    HW113615   1.519   4.253  11.509
 3906SOL    HW213616   1.429   4.355  11.442
 3907SOL     OW13617   4.994   4.962   7.433
 3907SOL    HW113618   4.987   4.873   7.399
 3907SOL    HW213619   5.034   4.951   7.520
 3908SOL     OW13620  12.854   5.429   2.997
 3908SOL    HW113621  12.894   5.405   3.080
 3908SOL    HW213622  12.781   5.368   2.987
 3909SOL     OW13623   5.543   2.704  10.188
 3909SOL    HW113624   5.467   2.681  10.241
 3909SOL    HW213625   5.548   2.800  10.193
 3910SOL     OW13626  14.759   3.435  10.209
 3910SOL    HW113627  14.723   3.518  10.178
 3910SOL    HW213628  14.724   3.426  10.297
 3911SOL     OW13629   0.729  12.563  12.882
 3911SOL    HW113630   0.726  12.486  12.939
 3911SOL    HW213631   0.774  12.532  12.803
 3912SOL     OW13632   1.484  14.584   7.825
 3912SOL    HW113633   1.524  14.506   7.788
 3912SOL    HW213634   1.472  14.643   7.750
 3913SOL     OW13635   3.583   1.406  11.198
 3913SOL    HW113636   3.518   1.465  11.238
 3913SOL    HW213637   3.534   1.325  11.182
 3914SOL     OW13638   1.000   3.959  12.970
 3914SOL    HW113639   0.964   4.008  13.044
 3914SOL    HW213640   0.993   3.867  12.996
 3915SOL     OW13641   7.293   3.081  14.140
 3915SOL    HW113642   7.290   3.147  14.209
 3915SOL    HW213643   7.362   3.021  14.167
 3916SOL     OW13644   4.689   7.865  13.657
 3916SOL    HW113645   4.607   7.820  13.674
 3916SOL    HW213646   4.677   7.952  13.694
 3917SOL     OW13647  11.551  10.564   3.275
 3917SOL    HW113648  11.461  10.574   3.243
 3917SOL    HW213649  11.579  10.479   3.240
 3918SOL     OW13650   8.667  11.959  10.900
 3918SOL    HW113651   8.669  11.864  10.913
 3918SOL    HW213652   8.582  11.976  10.859
 3919SOL     OW13653  10.893   6.327   9.200
 3919SOL    HW113654  10.928   6.346   9.287
 3919SOL    HW213655  10.800   6.348   9.206
 3920SOL     OW13656   9.748   3.071   1.783
 3920SOL    HW113657   9.814   3.112   1.726
 3920SOL    HW213658   9.715   2.997   1.732
 3921SOL     OW13659   6.581   3.414   7.536
 3921SOL    HW113660   6.591   3.394   7.443
 3921SOL    HW213661   6.637   3.350   7.581
 3922SOL     OW13662  11.973   7.325  12.363
 3922SOL    HW113663  11.934   7.280  12.288
 3922SOL    HW213664  11.943   7.416  12.355
 3923SOL     OW13665   2.127   7.600   1.371
 3923SOL    HW113666   2.041   7.601   1.412
 3923SOL    HW213667   2.124   7.669   1.305
 3924SOL     OW13668  14.362   9.076  11.923
 3924SOL    HW113669  14.393   9.149  11.869
 3924SOL    HW213670  14.271   9.064  11.897
 3925SOL     OW13671   3.186   0.846  14.169
 3925SOL    HW113672   3.210   0.763  14.127
 3925SOL    HW213673   3.269   0.882  14.201
 3926SOL     OW13674   2.977  14.156   3.851
 3926SOL    HW113675   2.967  14.251   3.839
 3926SOL    HW213676   2.889  14.121   3.836
 3927SOL     OW13677  11.863   3.040  13.745
 3927SOL    HW113678  11.859   3.110  13.680
 3927SOL    HW213679  11.927   3.071  13.809
 3928SOL     OW13680  14.090  12.674   3.637
 3928SOL    HW113681  14.183  12.653   3.641
 3928SOL    HW213682  14.048  12.604   3.687
 3929SOL     OW13683   3.975  14.748   6.256
 3929SOL    HW113684   4.018  14.828   6.288
 3929SOL    HW213685   3.989  14.750   6.161
 3930SOL     OW13686  11.100   7.446   3.069
 3930SOL    HW113687  11.194   7.434   3.055
 3930SOL    HW213688  11.065   7.357   3.076
 3931SOL     OW13689   2.831   7.006   9.162
 3931SOL    HW113690   2.891   6.931   9.157
 3931SOL    HW213691   2.874   7.068   9.221
 3932SOL     OW13692   6.473   7.578  11.962
 3932SOL    HW113693   6.563   7.609  11.953
 3932SOL    HW213694   6.439   7.577  11.873
 3933SOL     OW13695   9.329   3.302   8.846
 3933SOL    HW113696   9.318   3.384   8.895
 3933SOL    HW213697   9.392   3.324   8.777
 3934SOL     OW13698   3.658   1.083   3.935
 3934SOL    HW113699   3.651   1.130   3.852
 3934SOL    HW213700   3.650   0.991   3.911
 3935SOL     OW13701  13.490   7.474   8.983
 3935SOL    HW113702  13.420   7.455   9.045
 3935SOL    HW213703  13.469   7.421   8.906
 3936SOL     OW13704  11.329   7.108  10.225
 3936SOL    HW113705  11.324   7.202  10.243
 3936SOL    HW213706  11.279   7.097  10.145
 3937SOL     OW13707   2.285  13.669   9.499
 3937SOL    HW113708   2.271  13.756   9.537
 3937SOL    HW213709   2.211  13.618   9.531
 3938SOL     OW13710  12.801   9.384   4.337
 3938SOL    HW113711  12.831   9.361   4.249
 3938SOL    HW213712  12.877   9.366   4.393
 3939SOL     OW13713   5.042   1.153   6.920
 3939SOL    HW113714   4.993   1.071   6.921
 3939SOL    HW213715   5.060   1.169   6.827
 3940SOL     OW13716   9.434  11.842   4.496
 3940SOL    HW113717   9.410  11.921   4.449
 3940SOL    HW213718   9.437  11.774   4.429
 3941SOL     OW13719   4.734   4.390   1.578
 3941SOL    HW113720   4.740   4.406   1.672
 3941SOL    HW213721   4.710   4.298   1.570
 3942SOL     OW13722  12.840  10.748   1.517
 3942SOL    HW113723  12.890  10.711   1.590
 3942SOL    HW213724  12.748  10.732   1.541
 3943SOL     OW13725   3.586   0.432   4.710
 3943SOL    HW113726   3.559   0.523   4.702
 3943SOL    HW213727   3.655   0.421   4.645
 3944SOL     OW13728   0.808   5.869   2.464
 3944SOL    HW113729   0.791   5.825   2.547
 3944SOL    HW213730   0.774   5.810   2.397
 3945SOL     OW13731   4.626  14.766  12.177
 3945SOL    HW113732   4.607  14.686  12.226
 3945SOL    HW213733   4.558  14.828  12.205
 3946SOL     OW13734   9.143   6.330  14.501
 3946SOL    HW113735   9.108   6.381  14.574
 3946SOL    HW213736   9.093   6.359  14.425
 3947SOL     OW13737  14.844   5.902   1.947
 3947SOL    HW113738  14.784   5.975   1.929
 3947SOL    HW213739  14.827   5.839   1.876
 3948SOL     OW13740   0.099  14.702  11.593
 3948SOL    HW113741   0.145  14.699  11.677
 3948SOL    HW213742   0.133  14.780  11.549
 3949SOL     OW13743  12.525   1.687   4.363
 3949SOL    HW113744  12.435   1.669   4.391
 3949SOL    HW213745  12.578   1.665   4.440
 3950SOL     OW13746   6.040   3.243  12.840
 3950SOL    HW113747   6.063   3.285  12.923
 3950SOL    HW213748   6.123   3.229  12.795
 3951SOL     OW13749   3.003   4.396   8.912
 3951SOL    HW113750   2.981   4.485   8.884
 3951SOL    HW213751   2.984   4.395   9.006
 3952SOL     OW13752   1.970   9.409   2.492
 3952SOL    HW113753   1.908   9.410   2.419
 3952SOL    HW213754   1.915   9.405   2.570
 3953SOL     OW13755   7.796  12.697  10.941
 3953SOL    HW113756   7.809  12.791  10.929
 3953SOL    HW213757   7.883  12.663  10.964
 3954SOL     OW13758   7.676   4.100   5.723
 3954SOL    HW113759   7.659   4.189   5.692
 3954SOL    HW213760   7.660   4.105   5.818
 3955SOL     OW13761  11.469   3.520   4.446
 3955SOL    HW113762  11.485   3.450   4.382
 3955SOL    HW213763  11.384   3.498   4.485
 3956SOL     OW13764   1.507   6.709   7.560
 3956SOL    HW113765   1.454   6.664   7.494
 3956SOL    HW213766   1.597   6.704   7.527
 3957SOL     OW13767   1.569   1.585  11.601
 3957SOL    HW113768   1.587   1.648  11.532
 3957SOL    HW213769   1.631   1.514  11.585
 3958SOL     OW13770   0.117   2.959   2.758
 3958SOL    HW113771   0.122   3.055   2.758
 3958SOL    HW213772   0.164   2.932   2.836
 3959SOL     OW13773  13.270  10.916   2.510
 3959SOL    HW113774  13.185  10.880   2.486
 3959SOL    HW213775  13.330  10.841   2.506
 3960SOL     OW13776   6.513   9.349   0.938
 3960SOL    HW113777   6.451   9.396   0.994
 3960SOL    HW213778   6.589   9.332   0.994
 3961SOL     OW13779   6.401   0.178  13.117
 3961SOL    HW113780   6.322   0.165  13.169
 3961SOL    HW213781   6.453   0.242  13.167
 3962SOL     OW13782   3.217  11.061   3.708
 3962SOL    HW113783   3.208  11.151   3.676
 3962SOL    HW213784   3.210  11.007   3.629
 3963SOL     OW13785   0.235  11.961   8.573
 3963SOL    HW113786   0.316  12.010   8.561
 3963SOL    HW213787   0.168  12.029   8.582
 3964SOL     OW13788   0.764  12.465  11.514
 3964SOL    HW113789   0.701  12.534  11.532
 3964SOL    HW213790   0.821  12.501  11.447
 3965SOL     OW13791  13.494  12.739   1.114
 3965SOL    HW113792  13.577  12.746   1.066
 3965SOL    HW213793  13.511  12.783   1.197
 3966SOL     OW13794   6.920  10.559   5.670
 3966SOL    HW113795   6.898  10.469   5.643
 3966SOL    HW213796   6.837  10.596   5.700
 3967SOL     OW13797   3.997   8.669  10.746
 3967SOL    HW113798   3.960   8.645  10.662
 3967SOL    HW213799   4.007   8.586  10.793
 3968SOL     OW13800   1.891   5.266   0.846
 3968SOL    HW113801   1.959   5.327   0.818
 3968SOL    HW213802   1.904   5.258   0.941
 3969SOL     OW13803   1.989   1.541  14.194
 3969SOL    HW113804   1.960   1.561  14.105
 3969SOL    HW213805   1.962   1.450  14.208
 3970SOL     OW13806   0.888   0.362   3.064
 3970SOL    HW113807   0.893   0.280   3.015
 3970SOL    HW213808   0.978   0.378   3.093
 3971SOL     OW13809   3.912  14.273   2.799
 3971SOL    HW113810   3.878  14.313   2.719
 3971SOL    HW213811   3.887  14.181   2.793
 3972SOL     OW13812   3.275   1.844   2.445
 3972SOL    HW113813   3.182   1.835   2.464
 3972SOL    HW213814   3.296   1.769   2.389
 3973SOL     OW13815   7.271   3.384   3.579
 3973SOL    HW113816   7.271   3.303   3.630
 3973SOL    HW213817   7.325   3.365   3.503
 3974SOL     OW13818   8.955   4.790   4.234
 3974SOL    HW113819   9.024   4.838   4.280
 3974SOL    HW213820   9.000   4.715   4.196
 3975SOL     OW13821  12.807   1.103   0.939
 3975SOL    HW113822  12.809   1.176   1.001
 3975SOL    HW213823  12.714   1.092   0.919
 3976SOL     OW13824  10.435   2.633   5.993
 3976SOL    HW113825  10.500   2.653   5.926
 3976SOL    HW213826  10.355   2.613   5.943
 3977SOL     OW13827   4.535   7.714   2.796
 3977SOL    HW113828   4.510   7.622   2.803
 3977SOL    HW213829   4.456   7.758   2.765
 3978SOL     OW13830   4.915   9.209   8.480
 3978SOL    HW113831   4.961   9.283   8.440
 3978SOL    HW213832   4.838   9.196   8.425
 3979SOL     OW13833   8.980  10.109   4.125
 3979SOL    HW113834   8.945  10.029   4.165
 3979SOL    HW213835   8.989  10.088   4.032
 3980SOL     OW13836  11.310  10.572   4.060
 3980SOL    HW113837  11.380  10.618   4.108
 3980SOL    HW213838  11.235  10.630   4.067
 3981SOL     OW13839   4.990   9.510   5.510
 3981SOL    HW113840   4.899   9.526   5.534
 3981SOL    HW213841   4.988   9.432   5.455
 3982SOL     OW13842  12.148  12.982   5.010
 3982SOL    HW113843  12.178  12.982   5.101
 3982SOL    HW213844  12.229  12.975   4.958
 3983SOL     OW13845   6.239  10.948   5.852
 3983SOL    HW113846   6.220  10.967   5.944
 3983SOL    HW213847   6.330  10.972   5.840
 3984SOL     OW13848   4.291   9.283  10.870
 3984SOL    HW113849   4.368   9.233  10.895
 3984SOL    HW213850   4.266   9.331  10.949
 3985SOL     OW13851   0.297   0.036   8.123
 3985SOL    HW113852   0.266  14.828   8.101
 3985SOL    HW213853   0.218   0.085   8.145
 3986SOL     OW13854   6.005   5.323   6.761
 3986SOL    HW113855   5.936   5.307   6.697
 3986SOL    HW213856   5.995   5.254   6.825
 3987SOL     OW13857  12.393   2.644  12.365
 3987SOL    HW113858  12.396   2.594  12.447
 3987SOL    HW213859  12.443   2.724  12.384
 3988SOL     OW13860   6.268  10.223   9.039
 3988SOL    HW113861   6.249  10.146   9.092
 3988SOL    HW213862   6.274  10.190   8.949
 3989SOL     OW13863  14.736  13.890   1.974
 3989SOL    HW113864  14.641  13.888   1.966
 3989SOL    HW213865  14.751  13.907   2.067
 3990SOL     OW13866  13.198  11.227   0.431
 3990SOL    HW113867  13.243  11.145   0.408
 3990SOL    HW213868  13.214  11.237   0.525
 3991SOL     OW13869   9.247  10.603  11.103
 3991SOL    HW113870   9.307  10.544  11.149
 3991SOL    HW213871   9.285  10.613  11.016
 3992SOL     OW13872  12.161  14.806   0.115
 3992SOL    HW113873  12.082  14.820   0.167
 3992SOL    HW213874  12.229  14.789   0.180
 3993SOL     OW13875  13.186   2.063   8.053
 3993SOL    HW113876  13.193   2.043   7.960
 3993SOL    HW213877  13.232   1.992   8.097
 3994SOL     OW13878   4.789  10.553  11.410
 3994SOL    HW113879   4.843  10.622  11.449
 3994SOL    HW213880   4.701  10.591  11.407
 3995SOL     OW13881  10.884  11.076   3.886
 3995SOL    HW113882  10.867  11.070   3.792
 3995SOL    HW213883  10.833  11.005   3.925
 3996SOL     OW13884   5.622   5.409   5.906
 3996SOL    HW113885   5.693   5.467   5.877
 3996SOL    HW213886   5.617   5.341   5.839
 3997SOL     OW13887   2.046   3.323   5.435
 3997SOL    HW113888   2.007   3.378   5.503
 3997SOL    HW213889   2.087   3.386   5.374
 3998SOL     OW13890   3.096  11.005   9.923
 3998SOL    HW113891   3.175  10.986   9.974
 3998SOL    HW213892   3.109  11.094   9.890
 3999SOL     OW13893   9.419   3.025   0.011
 3999SOL    HW113894   9.357   2.978  14.835
 3999SOL    HW213895   9.383   3.114   0.017
 4000SOL     OW13896  14.802  10.297  14.132
 4000SOL    HW113897   0.014  10.284  14.105
 4000SOL    HW213898  14.759  10.330  14.053
 4001SOL     OW13899   6.296   2.211   7.782
 4001SOL    HW113900   6.370   2.187   7.725
 4001SOL    HW213901   6.269   2.298   7.751
 4002SOL     OW13902   5.462   0.530   3.527
 4002SOL    HW113903   5.399   0.549   3.597
 4002SOL    HW213904   5.416   0.553   3.446
 4003SOL     OW13905   3.035   7.775   5.403
 4003SOL    HW113906   2.994   7.756   5.319
 4003SOL    HW213907   3.101   7.707   5.414
 4004SOL     OW13908   9.713  10.797  10.226
 4004SOL    HW113909   9.767  10.861  10.272
 4004SOL    HW213910   9.774  10.729  10.197
 4005SOL     OW13911   8.196   8.410  11.868
 4005SOL    HW113912   8.182   8.503  11.886
 4005SOL    HW213913   8.282   8.391  11.906
 4006SOL     OW13914   7.147   9.806   6.889
 4006SOL    HW113915   7.133   9.841   6.978
 4006SOL    HW213916   7.064   9.822   6.844
 4007SOL     OW13917   0.233  14.005   4.005
 4007SOL    HW113918   0.299  13.944   4.035
 4007SOL    HW213919   0.210  14.057   4.082
 4008SOL     OW13920   1.493   2.999  14.693
 4008SOL    HW113921   1.471   2.907  14.681
 4008SOL    HW213922   1.580   3.009  14.656
 4009SOL     OW13923  11.468   5.536   9.984
 4009SOL    HW113924  11.374   5.531   9.964
 4009SOL    HW213925  11.489   5.449  10.019
 4010SOL     OW13926   1.411  12.798   2.639
 4010SOL    HW113927   1.439  12.793   2.548
 4010SOL    HW213928   1.379  12.887   2.649
 4011SOL     OW13929   1.103  13.622   5.388
 4011SOL    HW113930   1.065  13.542   5.351
 4011SOL    HW213931   1.155  13.658   5.316
 4012SOL     OW13932  11.064   3.645  10.674
 4012SOL    HW113933  11.158   3.624  10.676
 4012SOL    HW213934  11.060   3.740  10.685
 4013SOL     OW13935  10.188   0.394  11.936
 4013SOL    HW113936  10.267   0.444  11.917
 4013SOL    HW213937  10.186   0.388  12.032
 4014SOL     OW13938  13.069  13.118   6.252
 4014SOL    HW113939  13.105  13.032   6.273
 4014SOL    HW213940  13.071  13.166   6.334
 4015SOL     OW13941  13.295  14.549   8.617
 4015SOL    HW113942  13.245  14.474   8.585
 4015SOL    HW213943  13.257  14.568   8.703
 4016SOL     OW13944   4.207   4.367  13.457
 4016SOL    HW113945   4.244   4.444  13.413
 4016SOL    HW213946   4.236   4.373  13.547
 4017SOL     OW13947   4.920   0.953  12.553
 4017SOL    HW113948   4.976   1.028  12.535
 4017SOL    HW213949   4.868   0.979  12.629
 4018SOL     OW13950   1.488   7.796   9.135
 4018SOL    HW113951   1.409   7.757   9.172
 4018SOL    HW213952   1.463   7.819   9.045
 4019SOL     OW13953  12.382   5.769   6.529
 4019SOL    HW113954  12.453   5.754   6.593
 4019SOL    HW213955  12.417   5.836   6.471
 4020SOL     OW13956   0.117   5.804   5.935
 4020SOL    HW113957   0.061   5.738   5.978
 4020SOL    HW213958   0.204   5.790   5.972
 4021SOL     OW13959   8.097   4.948   4.370
 4021SOL    HW113960   8.001   4.956   4.366
 4021SOL    HW213961   8.117   4.869   4.320
 4022SOL     OW13962   1.210   2.286   3.920
 4022SOL    HW113963   1.166   2.223   3.864
 4022SOL    HW213964   1.138   2.330   3.967
 4023SOL     OW13965  13.492   4.264   1.009
 4023SOL    HW113966  13.480   4.330   0.941
 4023SOL    HW213967  13.520   4.185   0.962
 4024SOL     OW13968  13.944  14.427   8.311
 4024SOL    HW113969  13.948  14.520   8.288
 4024SOL    HW213970  13.878  14.423   8.380
 4025SOL     OW13971   7.960   9.723   4.413
 4025SOL    HW113972   7.922   9.707   4.327
 4025SOL    HW213973   7.886   9.746   4.468
 4026SOL     OW13974  12.366  13.688  10.375
 4026SOL    HW113975  12.389  13.779  10.358
 4026SOL    HW213976  12.286  13.693  10.428
 4027SOL     OW13977   1.765   9.047  11.131
 4027SOL    HW113978   1.753   9.010  11.218
 4027SOL    HW213979   1.769   8.971  11.073
 4028SOL     OW13980   7.047  14.202   1.836
 4028SOL    HW113981   6.996  14.152   1.771
 4028SOL    HW213982   7.084  14.274   1.786
 4029SOL     OW13983   3.956   4.682   0.144
 4029SOL    HW113984   3.982   4.604   0.095
 4029SOL    HW213985   3.864   4.667   0.165
 4030SOL     OW13986  11.469  14.004   1.347
 4030SOL    HW113987  11.415  14.059   1.404
 4030SOL    HW213988  11.559  14.028   1.371
 4031SOL     OW13989   1.159   0.565  12.617
 4031SOL    HW113990   1.216   0.488  12.625
 4031SOL    HW213991   1.178   0.617  12.695
 4032SOL     OW13992   9.056   3.198   0.743
 4032SOL    HW113993   8.968   3.213   0.708
 4032SOL    HW213994   9.051   3.113   0.786
 4033SOL     OW13995   1.821  13.843  10.980
 4033SOL    HW113996   1.820  13.918  10.921
 4033SOL    HW213997   1.914  13.826  10.996
 4034SOL     OW13998   6.367   4.218   2.787
 4034SOL    HW113999   6.425   4.254   2.720
 4034SOL    HW214000   6.302   4.167   2.737
 4035SOL     OW14001   7.542   5.371   3.324
 4035SOL    HW114002   7.480   5.343   3.256
 4035SOL    HW214003   7.581   5.451   3.289
 4036SOL     OW14004  12.214   8.576   5.932
 4036SOL    HW114005  12.250   8.592   6.020
 4036SOL    HW214006  12.185   8.662   5.903
 4037SOL     OW14007   6.496   1.908  12.117
 4037SOL    HW114008   6.453   1.968  12.058
 4037SOL    HW214009   6.453   1.922  12.202
 4038SOL     OW14010   3.158  11.657  11.189
 4038SOL    HW114011   3.224  11.722  11.165
 4038SOL    HW214012   3.206  11.592  11.241
 4039SOL     OW14013   7.235  10.520  11.213
 4039SOL    HW114014   7.151  10.562  11.232
 4039SOL    HW214015   7.270  10.496  11.299
 4040SOL     OW14016   8.817   2.898   7.735
 4040SOL    HW114017   8.838   2.865   7.822
 4040SOL    HW214018   8.895   2.881   7.683
 4041SOL     OW14019   4.804   0.083   1.666
 4041SOL    HW114020   4.790   0.170   1.630
 4041SOL    HW214021   4.815   0.026   1.590
 4042SOL     OW14022   1.132  11.245  11.580
 4042SOL    HW114023   1.105  11.304  11.650
 4042SOL    HW214024   1.122  11.297  11.500
 4043SOL     OW14025   9.930   8.941  11.986
 4043SOL    HW114026   9.908   8.965  11.896
 4043SOL    HW214027  10.025   8.951  11.991
 4044SOL     OW14028  10.503   4.650   1.055
 4044SOL    HW114029  10.562   4.597   1.108
 4044SOL    HW214030  10.532   4.740   1.068
 4045SOL     OW14031   3.085   0.609   3.519
 4045SOL    HW114032   3.178   0.613   3.499
 4045SOL    HW214033   3.043   0.600   3.433
 4046SOL     OW14034  10.397  13.615   6.369
 4046SOL    HW114035  10.359  13.590   6.453
 4046SOL    HW214036  10.374  13.708   6.359
 4047SOL     OW14037   2.905   6.070   5.209
 4047SOL    HW114038   2.826   6.121   5.228
 4047SOL    HW214039   2.925   6.027   5.292
 4048SOL     OW14040   1.623   3.656   2.746
 4048SOL    HW114041   1.679   3.678   2.672
 4048SOL    HW214042   1.654   3.570   2.775
 4049SOL     OW14043  12.997   5.620  13.644
 4049SOL    HW114044  12.937   5.602  13.572
 4049SOL    HW214045  13.007   5.715  13.645
 4050SOL     OW14046   6.591   5.626  10.228
 4050SOL    HW114047   6.593   5.603  10.135
 4050SOL    HW214048   6.677   5.663  10.246
 4051SOL     OW14049  12.486   3.501  12.624
 4051SOL    HW114050  12.499   3.484  12.717
 4051SOL    HW214051  12.426   3.432  12.596
 4052SOL     OW14052   0.165   5.202  11.780
 4052SOL    HW114053   0.090   5.201  11.721
 4052SOL    HW214054   0.166   5.291  11.817
 4053SOL     OW14055   4.755   4.147   4.335
 4053SOL    HW114056   4.738   4.118   4.245
 4053SOL    HW214057   4.691   4.100   4.388
 4054SOL     OW14058  12.931   2.851   9.530
 4054SOL    HW114059  13.015   2.872   9.489
 4054SOL    HW214060  12.954   2.810   9.613
 4055SOL     OW14061   8.994  14.624   9.046
 4055SOL    HW114062   8.945  14.552   9.086
 4055SOL    HW214063   9.043  14.662   9.119
 4056SOL     OW14064   2.597   7.853  11.346
 4056SOL    HW114065   2.591   7.791  11.419
 4056SOL    HW214066   2.579   7.799  11.268
 4057SOL     OW14067   4.356   9.539  14.626
 4057SOL    HW114068   4.309   9.514  14.546
 4057SOL    HW214069   4.289   9.578  14.682
 4058SOL     OW14070  10.350  12.993  11.204
 4058SOL    HW114071  10.347  13.066  11.142
 4058SOL    HW214072  10.363  12.916  11.150
 4059SOL     OW14073   7.164   8.725  12.649
 4059SOL    HW114074   7.148   8.690  12.562
 4059SOL    HW214075   7.215   8.657  12.693
 4060SOL     OW14076   7.373   5.667  11.574
 4060SOL    HW114077   7.444   5.634  11.629
 4060SOL    HW214078   7.293   5.632  11.613
 4061SOL     OW14079   9.149  11.675  13.704
 4061SOL    HW114080   9.058  11.649  13.724
 4061SOL    HW214081   9.143  11.718  13.619
 4062SOL     OW14082   0.788   0.919   1.155
 4062SOL    HW114083   0.697   0.889   1.154
 4062SOL    HW214084   0.821   0.891   1.241
 4063SOL     OW14085   3.829   2.114   6.895
 4063SOL    HW114086   3.874   2.031   6.911
 4063SOL    HW214087   3.808   2.147   6.982
 4064SOL     OW14088   2.916   7.796   6.952
 4064SOL    HW114089   2.935   7.716   6.903
 4064SOL    HW214090   2.958   7.782   7.037
 4065SOL     OW14091   5.003   7.210   5.791
 4065SOL    HW114092   4.942   7.154   5.840
 4065SOL    HW214093   5.029   7.278   5.853
 4066SOL     OW14094   4.890   7.515   9.742
 4066SOL    HW114095   4.873   7.473   9.827
 4066SOL    HW214096   4.847   7.600   9.749
 4067SOL     OW14097   0.255   7.108   5.812
 4067SOL    HW114098   0.193   7.092   5.741
 4067SOL    HW214099   0.203   7.097   5.892
 4068SOL     OW14100   3.483   3.710   4.495
 4068SOL    HW114101   3.494   3.744   4.583
 4068SOL    HW214102   3.389   3.694   4.487
 4069SOL     OW14103  13.497   3.090   7.047
 4069SOL    HW114104  13.489   3.097   6.952
 4069SOL    HW214105  13.497   2.996   7.065
 4070SOL     OW14106  10.032   8.778   3.024
 4070SOL    HW114107  10.113   8.828   3.016
 4070SOL    HW214108  10.061   8.687   3.034
 4071SOL     OW14109   4.994  14.811   8.785
 4071SOL    HW114110   5.002  14.830   8.878
 4071SOL    HW214111   4.984   0.017   8.743
 4072SOL     OW14112   4.228   7.510   8.892
 4072SOL    HW114113   4.192   7.592   8.859
 4072SOL    HW214114   4.260   7.464   8.814
 4073SOL     OW14115   4.819  13.504  13.587
 4073SOL    HW114116   4.853  13.495  13.677
 4073SOL    HW214117   4.836  13.418  13.547
 4074SOL     OW14118   4.415   8.958   6.738
 4074SOL    HW114119   4.350   8.900   6.699
 4074SOL    HW214120   4.367   9.008   6.804
 4075SOL     OW14121   0.711   3.326  14.634
 4075SOL    HW114122   0.787   3.271  14.653
 4075SOL    HW214123   0.734   3.412  14.670
 4076SOL     OW14124   7.823  14.631  13.811
 4076SOL    HW114125   7.760  14.577  13.763
 4076SOL    HW214126   7.813  14.604  13.902
 4077SOL     OW14127  10.144  11.966   4.003
 4077SOL    HW114128  10.079  11.977   3.934
 4077SOL    HW214129  10.189  12.050   4.008
 4078SOL     OW14130  10.116  12.871   0.118
 4078SOL    HW114131  10.157  12.785   0.113
 4078SOL    HW214132  10.052  12.864   0.189
 4079SOL     OW14133  12.070   3.180  13.100
 4079SOL    HW114134  12.151   3.200  13.052
 4079SOL    HW214135  12.081   3.090  13.129
 4080SOL     OW14136   3.421   0.738   2.783
 4080SOL    HW114137   3.465   0.658   2.812
 4080SOL    HW214138   3.332   0.710   2.762
 4081SOL     OW14139   1.685   8.030   7.830
 4081SOL    HW114140   1.699   7.951   7.882
 4081SOL    HW214141   1.764   8.082   7.843
 4082SOL     OW14142   5.517  14.352   1.712
 4082SOL    HW114143   5.540  14.328   1.801
 4082SOL    HW214144   5.423  14.374   1.717
 4083SOL     OW14145   3.070  12.489   1.355
 4083SOL    HW114146   3.076  12.548   1.429
 4083SOL    HW214147   3.119  12.533   1.285
 4084SOL     OW14148   2.646   6.183   1.589
 4084SOL    HW114149   2.679   6.152   1.504
 4084SOL    HW214150   2.554   6.157   1.590
 4085SOL     OW14151   4.231   1.667  13.740
 4085SOL    HW114152   4.321   1.663  13.772
 4085SOL    HW214153   4.187   1.728  13.799
 4086SOL     OW14154   6.398   2.555   4.740
 4086SOL    HW114155   6.460   2.485   4.718
 4086SOL    HW214156   6.312   2.512   4.740
 4087SOL     OW14157   9.140   9.644  12.642
 4087SOL    HW114158   9.118   9.641  12.549
 4087SOL    HW214159   9.104   9.727  12.673
 4088SOL     OW14160  14.099  14.085  14.678
 4088SOL    HW114161  14.067  13.996  14.687
 4088SOL    HW214162  14.106  14.117  14.768
 4089SOL     OW14163   9.753   0.119  14.454
 4089SOL    HW114164   9.839   0.110  14.413
 4089SOL    HW214165   9.761   0.194  14.513
 4090SOL     OW14166  13.879   5.596   0.343
 4090SOL    HW114167  13.944   5.667   0.345
 4090SOL    HW214168  13.874   5.570   0.252
 4091SOL     OW14169   2.207  14.040   7.928
 4091SOL    HW114170   2.159  14.111   7.971
 4091SOL    HW214171   2.219  14.069   7.838
 4092SOL     OW14172  13.661  13.382  12.157
 4092SOL    HW114173  13.654  13.432  12.076
 4092SOL    HW214174  13.732  13.424  12.205
 4093SOL     OW14175  14.313   8.200   6.846
 4093SOL    HW114176  14.347   8.148   6.774
 4093SOL    HW214177  14.230   8.158   6.868
 4094SOL     OW14178  11.445  11.193   7.432
 4094SOL    HW114179  11.498  11.131   7.482
 4094SOL    HW214180  11.486  11.278   7.449
 4095SOL     OW14181   2.376  10.563   3.525
 4095SOL    HW114182   2.297  10.616   3.534
 4095SOL    HW214183   2.446  10.628   3.514
 4096SOL     OW14184  13.165   3.057  14.046
 4096SOL    HW114185  13.140   3.135  13.996
 4096SOL    HW214186  13.197   3.092  14.130
 4097SOL     OW14187  11.140   9.339   5.662
 4097SOL    HW114188  11.209   9.347   5.596
 4097SOL    HW214189  11.118   9.430   5.684
 4098SOL     OW14190   3.732  11.023   0.815
 4098SOL    HW114191   3.730  10.950   0.753
 4098SOL    HW214192   3.679  11.091   0.774
 4099SOL     OW14193   2.016   3.849   1.095
 4099SOL    HW114194   2.002   3.783   1.028
 4099SOL    HW214195   2.110   3.866   1.093
 4100SOL     OW14196  14.798  11.052   2.758
 4100SOL    HW114197  14.839  10.966   2.749
 4100SOL    HW214198  14.775  11.077   2.668
 4101SOL     OW14199   0.809   5.114   8.186
 4101SOL    HW114200   0.893   5.098   8.230
 4101SOL    HW214201   0.744   5.107   8.255
 4102SOL     OW14202   8.596   7.887  11.161
 4102SOL    HW114203   8.643   7.818  11.114
 4102SOL    HW214204   8.658   7.959  11.165
 4103SOL     OW14205   7.929   6.224  10.409
 4103SOL    HW114206   7.867   6.150  10.403
 4103SOL    HW214207   7.893   6.290  10.350
 4104SOL     OW14208  14.220   2.693  14.261
 4104SOL    HW114209  14.247   2.784  14.274
 4104SOL    HW214210  14.301   2.646  14.243
 4105SOL     OW14211  11.878   7.467   6.279
 4105SOL    HW114212  11.902   7.375   6.268
 4105SOL    HW214213  11.924   7.512   6.208
 4106SOL     OW14214   6.801   5.558  14.372
 4106SOL    HW114215   6.861   5.597  14.435
 4106SOL    HW214216   6.757   5.632  14.330
 4107SOL     OW14217  14.557  14.157   2.524
 4107SOL    HW114218  14.571  14.172   2.430
 4107SOL    HW214219  14.634  14.107   2.552
 4108SOL     OW14220   5.002  12.380   5.294
 4108SOL    HW114221   5.003  12.476   5.295
 4108SOL    HW214222   5.024  12.355   5.384
 4109SOL     OW14223   2.276  11.898  10.350
 4109SOL    HW114224   2.243  11.927  10.435
 4109SOL    HW214225   2.328  11.820  10.370
 4110SOL     OW14226   6.079   2.697   8.446
 4110SOL    HW114227   6.040   2.624   8.495
 4110SOL    HW214228   6.169   2.671   8.431
 4111SOL     OW14229  12.055   4.119  13.538
 4111SOL    HW114230  12.078   4.152  13.451
 4111SOL    HW214231  11.993   4.048  13.520
 4112SOL     OW14232  10.885   7.992  14.569
 4112SOL    HW114233  10.969   7.946  14.577
 4112SOL    HW214234  10.860   7.982  14.477
 4113SOL     OW14235   4.888  10.750  12.621
 4113SOL    HW114236   4.838  10.670  12.613
 4113SOL    HW214237   4.979  10.723  12.609
 4114SOL     OW14238   4.155   4.945  12.516
 4114SOL    HW114239   4.191   4.857  12.514
 4114SOL    HW214240   4.066   4.936  12.483
 4115SOL     OW14241   2.366   6.726   3.666
 4115SOL    HW114242   2.442   6.686   3.625
 4115SOL    HW214243   2.294   6.710   3.605
 4116SOL     OW14244   7.049   7.152  10.245
 4116SOL    HW114245   7.042   7.226  10.184
 4116SOL    HW214246   7.122   7.176  10.303
 4117SOL     OW14247   5.969  12.948  12.697
 4117SOL    HW114248   6.033  12.975  12.762
 4117SOL    HW214249   5.926  13.029  12.670
 4118SOL     OW14250  12.092   4.733   4.513
 4118SOL    HW114251  12.092   4.658   4.573
 4118SOL    HW214252  12.184   4.760   4.508
 4119SOL     OW14253   0.677  12.902  13.609
 4119SOL    HW114254   0.757  12.857  13.638
 4119SOL    HW214255   0.605  12.847  13.641
 4120SOL     OW14256   3.616   4.763   3.402
 4120SOL    HW114257   3.521   4.774   3.397
 4120SOL    HW214258   3.641   4.734   3.314
 4121SOL     OW14259  13.990  11.524  12.041
 4121SOL    HW114260  13.917  11.463  12.039
 4121SOL    HW214261  13.949  11.611  12.040
 4122SOL     OW14262   8.321   2.527   9.126
 4122SOL    HW114263   8.301   2.549   9.217
 4122SOL    HW214264   8.389   2.590   9.100
 4123SOL     OW14265   0.630   2.287   9.135
 4123SOL    HW114266   0.580   2.337   9.200
 4123SOL    HW214267   0.564   2.234   9.090
 4124SOL     OW14268   5.604  11.963  12.710
 4124SOL    HW114269   5.537  11.908  12.751
 4124SOL    HW214270   5.665  11.901  12.670
 4125SOL     OW14271   2.184  14.435  12.066
 4125SOL    HW114272   2.222  14.363  12.015
 4125SOL    HW214273   2.259  14.481  12.104
 4126SOL     OW14274   6.466   3.888  12.199
 4126SOL    HW114275   6.541   3.832  12.216
 4126SOL    HW214276   6.394   3.827  12.182
 4127SOL     OW14277   1.782   7.994   5.779
 4127SOL    HW114278   1.820   8.052   5.845
 4127SOL    HW214279   1.705   7.955   5.822
 4128SOL     OW14280   1.636   9.198   5.485
 4128SOL    HW114281   1.664   9.128   5.425
 4128SOL    HW214282   1.665   9.167   5.571
 4129SOL     OW14283   5.654   5.934  10.086
 4129SOL    HW114284   5.734   5.885  10.100
 4129SOL    HW214285   5.609   5.931  10.171
 4130SOL     OW14286   7.107  10.121   6.160
 4130SOL    HW114287   7.016  10.141   6.140
 4130SOL    HW214288   7.135  10.063   6.089
 4131SOL     OW14289   4.944  14.864   0.583
 4131SOL    HW114290   4.868  14.840   0.636
 4131SOL    HW214291   4.971  14.782   0.541
 4132SOL     OW14292   1.693   6.463   2.785
 4132SOL    HW114293   1.639   6.388   2.812
 4132SOL    HW214294   1.634   6.538   2.791
 4133SOL     OW14295  13.523   9.401  13.359
 4133SOL    HW114296  13.465   9.477  13.363
 4133SOL    HW214297  13.465   9.327  13.339
 4134SOL     OW14298   6.915  14.030   2.016
 4134SOL    HW114299   6.825  14.002   2.004
 4134SOL    HW214300   6.922  14.111   1.964
 4135SOL     OW14301   3.167   9.449  11.527
 4135SOL    HW114302   3.172   9.360  11.493
 4135SOL    HW214303   3.137   9.439  11.617
 4136SOL     OW14304   0.568   8.833   0.807
 4136SOL    HW114305   0.569   8.770   0.879
 4136SOL    HW214306   0.660   8.847   0.785
 4137SOL     OW14307   4.142   3.914  11.291
 4137SOL    HW114308   4.191   3.964  11.226
 4137SOL    HW214309   4.147   3.824  11.260
 4138SOL     OW14310   6.770  10.731   5.435
 4138SOL    HW114311   6.683  10.767   5.421
 4138SOL    HW214312   6.814  10.796   5.491
 4139SOL     OW14313   1.429   5.973   0.252
 4139SOL    HW114314   1.365   5.902   0.263
 4139SOL    HW214315   1.375   6.049   0.231
 4140SOL     OW14316   4.786   4.283  10.550
 4140SOL    HW114317   4.707   4.234  10.572
 4140SOL    HW214318   4.775   4.368  10.593
 4141SOL     OW14319   6.334  12.044   3.699
 4141SOL    HW114320   6.415  12.043   3.647
 4141SOL    HW214321   6.280  12.111   3.658
 4142SOL     OW14322   5.054   1.936  12.942
 4142SOL    HW114323   5.081   1.984  12.863
 4142SOL    HW214324   5.099   1.981  13.014
 4143SOL     OW14325   5.582   5.091   3.127
 4143SOL    HW114326   5.522   5.047   3.188
 4143SOL    HW214327   5.644   5.022   3.102
 4144SOL     OW14328   1.467   3.280   4.534
 4144SOL    HW114329   1.434   3.302   4.621
 4144SOL    HW214330   1.529   3.349   4.514
 4145SOL     OW14331   2.265   3.412  14.228
 4145SOL    HW114332   2.180   3.381  14.259
 4145SOL    HW214333   2.328   3.347  14.262
 4146SOL     OW14334  11.394  14.704   3.289
 4146SOL    HW114335  11.430  14.791   3.304
 4146SOL    HW214336  11.359  14.677   3.374
 4147SOL     OW14337   3.085  11.054   6.031
 4147SOL    HW114338   3.108  11.138   6.070
 4147SOL    HW214339   3.115  10.989   6.094
 4148SOL     OW14340  14.328  14.294   0.935
 4148SOL    HW114341  14.305  14.318   1.025
 4148SOL    HW214342  14.403  14.235   0.944
 4149SOL     OW14343   9.699   3.168   8.013
 4149SOL    HW114344   9.794   3.179   8.005
 4149SOL    HW214345   9.686   3.122   8.096
 4150SOL     OW14346  12.161  12.585  13.781
 4150SOL    HW114347  12.221  12.526  13.826
 4150SOL    HW214348  12.210  12.617  13.705
 4151SOL     OW14349   8.175  14.625   7.407
 4151SOL    HW114350   8.085  14.614   7.439
 4151SOL    HW214351   8.191  14.719   7.414
 4152SOL     OW14352   6.694   5.595  14.079
 4152SOL    HW114353   6.685   5.683  14.042
 4152SOL    HW214354   6.718   5.540  14.004
 4153SOL     OW14355   1.534   9.056   7.475
 4153SOL    HW114356   1.502   9.009   7.398
 4153SOL    HW214357   1.475   9.028   7.545
 4154SOL     OW14358   4.498   5.508  12.270
 4154SOL    HW114359   4.428   5.492  12.333
 4154SOL    HW214360   4.550   5.578  12.309
 4155SOL     OW14361  11.660   1.218  13.117
 4155SOL    HW114362  11.677   1.183  13.204
 4155SOL    HW214363  11.678   1.145  13.057
 4156SOL     OW14364  12.439   2.469   3.387
 4156SOL    HW114365  12.481   2.542   3.342
 4156SOL    HW214366  12.371   2.509   3.441
 4157SOL     OW14367  13.806   5.263   3.100
 4157SOL    HW114368  13.894   5.274   3.135
 4157SOL    HW214369  13.785   5.348   3.061
 4158SOL     OW14370   7.917   0.735   5.380
 4158SOL    HW114371   7.887   0.777   5.299
 4158SOL    HW214372   7.990   0.680   5.354
 4159SOL     OW14373   4.082   3.393   8.762
 4159SOL    HW114374   4.076   3.460   8.830
 4159SOL    HW214375   4.019   3.326   8.788
 4160SOL     OW14376   0.743   8.699  12.294
 4160SOL    HW114377   0.822   8.748  12.273
 4160SOL    HW214378   0.773   8.627  12.349
 4161SOL     OW14379   3.678  12.885  12.349
 4161SOL    HW114380   3.650  12.949  12.284
 4161SOL    HW214381   3.728  12.937  12.413
 4162SOL     OW14382  10.623   2.105   4.708
 4162SOL    HW114383  10.623   2.200   4.718
 4162SOL    HW214384  10.682   2.088   4.635
 4163SOL     OW14385  10.260   0.129   3.801
 4163SOL    HW114386  10.285   0.094   3.886
 4163SOL    HW214387  10.343   0.155   3.760
 4164SOL     OW14388   2.884   3.067   8.439
 4164SOL    HW114389   2.834   3.003   8.490
 4164SOL    HW214390   2.862   3.047   8.348
 4165SOL     OW14391   1.831   6.127  14.823
 4165SOL    HW114392   1.778   6.071   0.000
 4165SOL    HW214393   1.915   6.083  14.817
 4166SOL     OW14394  14.035  10.830   1.526
 4166SOL    HW114395  13.957  10.845   1.580
 4166SOL    HW214396  14.027  10.739   1.497
 4167SOL     OW14397   8.338   2.845   5.873
 4167SOL    HW114398   8.395   2.791   5.927
 4167SOL    HW214399   8.376   2.932   5.877
 4168SOL     OW14400   4.470   8.141   1.540
 4168SOL    HW114401   4.409   8.072   1.567
 4168SOL    HW214402   4.422   8.222   1.556
 4169SOL     OW14403   2.505   3.853   4.363
 4169SOL    HW114404   2.547   3.920   4.309
 4169SOL    HW214405   2.482   3.898   4.444
 4170SOL     OW14406   2.140  14.276   6.231
 4170SOL    HW114407   2.116  14.209   6.168
 4170SOL    HW214408   2.113  14.359   6.191
 4171SOL     OW14409   3.196   3.471   0.899
 4171SOL    HW114410   3.284   3.445   0.875
 4171SOL    HW214411   3.195   3.566   0.889
 4172SOL     OW14412   4.098   7.403  12.917
 4172SOL    HW114413   4.132   7.459  12.986
 4172SOL    HW214414   4.046   7.337  12.963
 4173SOL     OW14415  10.271  14.487   7.530
 4173SOL    HW114416  10.269  14.461   7.438
 4173SOL    HW214417  10.342  14.436   7.568
 4174SOL     OW14418   2.097   5.540   3.973
 4174SOL    HW114419   2.124   5.542   4.064
 4174SOL    HW214420   2.086   5.632   3.948
 4175SOL     OW14421   3.076   4.870   1.821
 4175SOL    HW114422   3.084   4.831   1.734
 4175SOL    HW214423   3.072   4.965   1.805
 4176SOL     OW14424  10.798   0.970   4.562
 4176SOL    HW114425  10.734   1.016   4.509
 4176SOL    HW214426  10.883   0.989   4.521
 4177SOL     OW14427   0.778  12.054   3.567
 4177SOL    HW114428   0.810  11.973   3.528
 4177SOL    HW214429   0.773  12.117   3.495
 4178SOL     OW14430   2.424  10.506   8.985
 4178SOL    HW114431   2.427  10.414   9.010
 4178SOL    HW214432   2.393  10.505   8.894
 4179SOL     OW14433   9.333  11.350   2.511
 4179SOL    HW114434   9.329  11.343   2.606
 4179SOL    HW214435   9.426  11.362   2.492
 4180SOL     OW14436   9.182  10.587  13.975
 4180SOL    HW114437   9.103  10.548  13.938
 4180SOL    HW214438   9.232  10.618  13.900
 4181SOL     OW14439  11.527  11.273   8.607
 4181SOL    HW114440  11.541  11.353   8.555
 4181SOL    HW214441  11.476  11.216   8.551
 4182SOL     OW14442   7.587  10.425   6.696
 4182SOL    HW114443   7.549  10.359   6.638
 4182SOL    HW214444   7.553  10.508   6.663
 4183SOL     OW14445  10.781   5.657   8.078
 4183SOL    HW114446  10.691   5.625   8.067
 4183SOL    HW214447  10.836   5.590   8.039
 4184SOL     OW14448   6.561  10.756   1.489
 4184SOL    HW114449   6.548  10.688   1.423
 4184SOL    HW214450   6.473  10.791   1.504
 4185SOL     OW14451   0.180   7.373   7.873
 4185SOL    HW114452   0.259   7.339   7.916
 4185SOL    HW214453   0.172   7.321   7.793
 4186SOL     OW14454   0.108   6.401   5.106
 4186SOL    HW114455   0.185   6.362   5.063
 4186SOL    HW214456   0.141   6.435   5.189
 4187SOL     OW14457   4.396  11.483  13.459
 4187SOL    HW114458   4.462  11.426  13.420
 4187SOL    HW214459   4.329  11.493  13.391
 4188SOL     OW14460   5.541   4.093   9.009
 4188SOL    HW114461   5.460   4.055   8.974
 4188SOL    HW214462   5.511   4.155   9.075
 4189SOL     OW14463  13.415  13.751  14.307
 4189SOL    HW114464  13.444  13.829  14.260
 4189SOL    HW214465  13.322  13.768  14.326
 4190SOL     OW14466  12.638  14.717  14.226
 4190SOL    HW114467  12.729  14.703  14.254
 4190SOL    HW214468  12.629  14.812  14.223
 4191SOL     OW14469   0.248   5.362  14.097
 4191SOL    HW114470   0.275   5.434  14.153
 4191SOL    HW214471   0.152   5.369  14.093
 4192SOL     OW14472  11.230   5.775   2.265
 4192SOL    HW114473  11.213   5.858   2.220
 4192SOL    HW214474  11.305   5.793   2.321
 4193SOL     OW14475  13.384   8.932   1.791
 4193SOL    HW114476  13.444   8.862   1.816
 4193SOL    HW214477  13.369   8.919   1.697
 4194SOL     OW14478  13.024   3.849   7.317
 4194SOL    HW114479  13.085   3.830   7.246
 4194SOL    HW214480  13.055   3.796   7.391
 4195SOL     OW14481   2.642   8.126  13.037
 4195SOL    HW114482   2.610   8.103  13.125
 4195SOL    HW214483   2.698   8.053  13.012
 4196SOL     OW14484   9.895   4.820   1.086
 4196SOL    HW114485   9.809   4.858   1.103
 4196SOL    HW214486   9.938   4.883   1.028
 4197SOL     OW14487   0.599  14.727   0.084
 4197SOL    HW114488   0.694  14.741   0.090
 4197SOL    HW214489   0.561  14.803   0.129
 4198SOL     OW14490   1.107   1.571   2.032
 4198SOL    HW114491   1.097   1.491   1.980
 4198SOL    HW214492   1.081   1.642   1.972
 4199SOL     OW14493   4.278   0.787   2.028
 4199SOL    HW114494   4.203   0.731   2.011
 4199SOL    HW214495   4.245   0.876   2.018
 4200SOL     OW14496  14.179  14.745   8.204
 4200SOL    HW114497  14.087  14.720   8.209
 4200SOL    HW214498  14.201  14.738   8.111
 4201SOL     OW14499   3.578  12.440   7.013
 4201SOL    HW114500   3.542  12.513   6.961
 4201SOL    HW214501   3.669  12.435   6.985
 4202SOL     OW14502   4.863  11.813  10.820
 4202SOL    HW114503   4.847  11.882  10.756
 4202SOL    HW214504   4.959  11.803  10.822
 4203SOL     OW14505   4.712  14.813  14.689
 4203SOL    HW114506   4.658   0.003  14.727
 4203SOL    HW214507   4.778  14.795  14.756
 4204SOL     OW14508   5.197  11.519  10.037
 4204SOL    HW114509   5.172  11.431  10.011
 4204SOL    HW214510   5.279  11.536   9.991
 4205SOL     OW14511   9.501   6.770  10.688
 4205SOL    HW114512   9.560   6.735  10.755
 4205SOL    HW214513   9.553   6.839  10.645
 4206SOL     OW14514   9.726   4.155   2.458
 4206SOL    HW114515   9.639   4.186   2.435
 4206SOL    HW214516   9.780   4.174   2.381
 4207SOL     OW14517  10.487   0.213   2.530
 4207SOL    HW114518  10.490   0.117   2.530
 4207SOL    HW214519  10.554   0.239   2.593
 4208SOL     OW14520   4.607  13.865   6.217
 4208SOL    HW114521   4.672  13.798   6.196
 4208SOL    HW214522   4.653  13.948   6.205
 4209SOL     OW14523  11.199   3.917   7.564
 4209SOL    HW114524  11.241   3.941   7.646
 4209SOL    HW214525  11.241   3.973   7.499
 4210SOL     OW14526  10.805   9.905   8.025
 4210SOL    HW114527  10.834   9.878   7.939
 4210SOL    HW214528  10.851   9.847   8.086
 4211SOL     OW14529  12.388  12.745   7.411
 4211SOL    HW114530  12.339  12.792   7.344
 4211SOL    HW214531  12.469  12.717   7.368
 4212SOL     OW14532   4.254   8.948   0.817
 4212SOL    HW114533   4.251   9.025   0.760
 4212SOL    HW214534   4.337   8.905   0.796
 4213SOL     OW14535   4.817   3.788  10.440
 4213SOL    HW114536   4.892   3.734  10.417
 4213SOL    HW214537   4.849   3.878  10.435
 4214SOL     OW14538  11.265  11.435   4.741
 4214SOL    HW114539  11.200  11.458   4.807
 4214SOL    HW214540  11.347  11.472   4.774
 4215SOL     OW14541   3.250  11.827   4.983
 4215SOL    HW114542   3.197  11.775   4.924
 4215SOL    HW214543   3.305  11.881   4.926
 4216SOL     OW14544  14.798   3.348   6.004
 4216SOL    HW114545  14.871   3.326   5.946
 4216SOL    HW214546  14.758   3.425   5.964
 4217SOL     OW14547   4.678   3.454  10.362
 4217SOL    HW114548   4.697   3.406  10.442
 4217SOL    HW214549   4.750   3.517  10.353
 4218SOL     OW14550   5.063   4.212   4.984
 4218SOL    HW114551   5.150   4.204   5.023
 4218SOL    HW214552   5.008   4.153   5.036
 4219SOL     OW14553  10.979   7.191   4.429
 4219SOL    HW114554  10.942   7.130   4.365
 4219SOL    HW214555  10.949   7.277   4.401
 4220SOL     OW14556   4.339  10.666  10.659
 4220SOL    HW114557   4.327  10.746  10.607
 4220SOL    HW214558   4.429  10.640  10.643
 4221SOL     OW14559   0.438   1.356   9.676
 4221SOL    HW114560   0.431   1.368   9.582
 4221SOL    HW214561   0.366   1.408   9.712
 4222SOL     OW14562  14.274  12.880   9.450
 4222SOL    HW114563  14.185  12.844   9.461
 4222SOL    HW214564  14.262  12.953   9.390
 4223SOL     OW14565  12.191  12.289  14.592
 4223SOL    HW114566  12.114  12.289  14.649
 4223SOL    HW214567  12.157  12.311  14.505
 4224SOL     OW14568   6.570   5.050   0.123
 4224SOL    HW114569   6.545   5.019   0.210
 4224SOL    HW214570   6.608   5.136   0.139
 4225SOL     OW14571   7.310   4.134   5.755
 4225SOL    HW114572   7.379   4.161   5.816
 4225SOL    HW214573   7.229   4.139   5.806
 4226SOL     OW14574   0.200   4.428   2.922
 4226SOL    HW114575   0.129   4.399   2.865
 4226SOL    HW214576   0.157   4.479   2.991
 4227SOL     OW14577   0.469   1.738   4.137
 4227SOL    HW114578   0.395   1.684   4.109
 4227SOL    HW214579   0.459   1.820   4.088
 4228SOL     OW14580  11.065  10.906   2.455
 4228SOL    HW114581  11.059  10.910   2.550
 4228SOL    HW214582  11.160  10.906   2.437
 4229SOL     OW14583   8.746   6.178   5.798
 4229SOL    HW114584   8.826   6.182   5.849
 4229SOL    HW214585   8.771   6.131   5.718
 4230SOL     OW14586   8.900   8.585   5.598
 4230SOL    HW114587   8.940   8.653   5.653
 4230SOL    HW214588   8.881   8.630   5.516
 4231SOL     OW14589   8.288  10.210   3.635
 4231SOL    HW114590   8.322  10.123   3.613
 4231SOL    HW214591   8.302  10.219   3.729
 4232SOL     OW14592   3.225   7.596   4.248
 4232SOL    HW114593   3.235   7.618   4.155
 4232SOL    HW214594   3.132   7.581   4.260
 4233SOL     OW14595   9.474   2.499  11.968
 4233SOL    HW114596   9.419   2.441  12.020
 4233SOL    HW214597   9.555   2.507  12.017
 4234SOL     OW14598   9.738  10.997  14.007
 4234SOL    HW114599   9.754  10.977  14.100
 4234SOL    HW214600   9.751  11.091  14.000
 4235SOL     OW14601   9.136   1.804  10.777
 4235SOL    HW114602   9.140   1.899  10.766
 4235SOL    HW214603   9.216   1.781  10.824
 4236SOL     OW14604  14.453   2.242   3.543
 4236SOL    HW114605  14.434   2.232   3.450
 4236SOL    HW214606  14.531   2.188   3.557
 4237SOL     OW14607   5.862   0.623   3.333
 4237SOL    HW114608   5.934   0.686   3.333
 4237SOL    HW214609   5.814   0.641   3.414
 4238SOL     OW14610   8.184  11.253   8.094
 4238SOL    HW114611   8.137  11.319   8.144
 4238SOL    HW214612   8.149  11.170   8.126
 4239SOL     OW14613   4.072   7.374   7.634
 4239SOL    HW114614   4.104   7.292   7.673
 4239SOL    HW214615   4.152   7.424   7.616
 4240SOL     OW14616   3.382   3.092  13.951
 4240SOL    HW114617   3.336   3.011  13.976
 4240SOL    HW214618   3.352   3.157  14.014
 4241SOL     OW14619   5.074   2.867   4.707
 4241SOL    HW114620   5.111   2.779   4.701
 4241SOL    HW214621   5.063   2.895   4.616
 4242SOL     OW14622   6.389   7.176   4.927
 4242SOL    HW114623   6.375   7.264   4.892
 4242SOL    HW214624   6.301   7.143   4.944
 4243SOL     OW14625  10.524   7.146   3.302
 4243SOL    HW114626  10.484   7.063   3.328
 4243SOL    HW214627  10.488   7.164   3.216
 4244SOL     OW14628   6.156   9.283  13.446
 4244SOL    HW114629   6.218   9.250  13.381
 4244SOL    HW214630   6.073   9.289  13.400
 4245SOL     OW14631  14.399   3.635   7.141
 4245SOL    HW114632  14.482   3.591   7.121
 4245SOL    HW214633  14.350   3.572   7.193
 4246SOL     OW14634   7.322  14.528  10.286
 4246SOL    HW114635   7.340  14.437  10.310
 4246SOL    HW214636   7.373  14.542  10.206
 4247SOL     OW14637  11.122   7.424   2.513
 4247SOL    HW114638  11.191   7.490   2.504
 4247SOL    HW214639  11.043   7.470   2.485
 4248SOL     OW14640  11.155  14.679  14.558
 4248SOL    HW114641  11.214  14.613  14.595
 4248SOL    HW214642  11.208  14.759  14.553
 4249SOL     OW14643   9.402  10.316  14.416
 4249SOL    HW114644   9.389  10.371  14.339
 4249SOL    HW214645   9.478  10.263  14.395
 4250SOL     OW14646  14.451   3.832  12.787
 4250SOL    HW114647  14.473   3.739  12.790
 4250SOL    HW214648  14.494   3.864  12.708
 4251SOL     OW14649   6.970   2.448   8.471
 4251SOL    HW114650   6.890   2.424   8.518
 4251SOL    HW214651   6.975   2.544   8.478
 4252SOL     OW14652  12.157  13.610  14.696
 4252SOL    HW114653  12.207  13.542  14.652
 4252SOL    HW214654  12.210  13.689  14.688
 4253SOL     OW14655   6.645   6.763   7.336
 4253SOL    HW114656   6.711   6.695   7.324
 4253SOL    HW214657   6.678   6.838   7.286
 4254SOL     OW14658   9.302   8.929   7.824
 4254SOL    HW114659   9.251   8.851   7.847
 4254SOL    HW214660   9.381   8.894   7.783
 4255SOL     OW14661   1.739   6.280   0.223
 4255SOL    HW114662   1.686   6.202   0.204
 4255SOL    HW214663   1.743   6.283   0.319
 4256SOL     OW14664   8.803   4.208   3.260
 4256SOL    HW114665   8.767   4.122   3.284
 4256SOL    HW214666   8.805   4.206   3.164
 4257SOL     OW14667   4.732   5.178   0.327
 4257SOL    HW114668   4.826   5.168   0.312
 4257SOL    HW214669   4.712   5.117   0.398
 4258SOL     OW14670   9.354   3.165   0.324
 4258SOL    HW114671   9.377   3.176   0.416
 4258SOL    HW214672   9.439   3.168   0.278
 4259SOL     OW14673  13.353   9.679   4.693
 4259SOL    HW114674  13.386   9.591   4.712
 4259SOL    HW214675  13.384   9.698   4.605
 4260SOL     OW14676  11.739   1.141   4.879
 4260SOL    HW114677  11.767   1.200   4.810
 4260SOL    HW214678  11.686   1.195   4.937
 4261SOL     OW14679   5.563  10.656   6.129
 4261SOL    HW114680   5.576  10.679   6.038
 4261SOL    HW214681   5.646  10.677   6.172
 4262SOL     OW14682  11.185   5.013   6.126
 4262SOL    HW114683  11.094   4.990   6.106
 4262SOL    HW214684  11.230   5.007   6.042
 4263SOL     OW14685  12.300   3.115  12.944
 4263SOL    HW114686  12.237   3.056  12.903
 4263SOL    HW214687  12.369   3.058  12.977
 4264SOL     OW14688   7.802   6.762   9.892
 4264SOL    HW114689   7.735   6.797   9.833
 4264SOL    HW214690   7.881   6.812   9.870
 4265SOL     OW14691   6.122   7.362   1.060
 4265SOL    HW114692   6.121   7.346   0.965
 4265SOL    HW214693   6.211   7.338   1.087
 4266SOL     OW14694   4.445  10.690  14.249
 4266SOL    HW114695   4.391  10.631  14.301
 4266SOL    HW214696   4.438  10.774  14.295
 4267SOL     OW14697   9.189  11.136   3.375
 4267SOL    HW114698   9.198  11.227   3.403
 4267SOL    HW214699   9.094  11.124   3.367
 4268SOL     OW14700  14.059  11.325   2.801
 4268SOL    HW114701  13.981  11.313   2.747
 4268SOL    HW214702  14.031  11.386   2.870
 4269SOL     OW14703   8.403  10.227  10.102
 4269SOL    HW114704   8.370  10.314  10.126
 4269SOL    HW214705   8.324  10.177  10.080
 4270SOL     OW14706   1.016  14.321   9.960
 4270SOL    HW114707   1.039  14.312  10.052
 4270SOL    HW214708   0.942  14.381   9.958
 4271SOL     OW14709  13.687  14.619  11.878
 4271SOL    HW114710  13.765  14.633  11.932
 4271SOL    HW214711  13.699  14.676  11.802
 4272SOL     OW14712   4.275   3.002   4.535
 4272SOL    HW114713   4.322   3.061   4.476
 4272SOL    HW214714   4.342   2.942   4.566
 4273SOL     OW14715  14.393   6.601   9.074
 4273SOL    HW114716  14.403   6.667   9.142
 4273SOL    HW214717  14.459   6.623   9.008
 4274SOL     OW14718   7.122   5.700   0.663
 4274SOL    HW114719   7.076   5.618   0.681
 4274SOL    HW214720   7.191   5.676   0.601
 4275SOL     OW14721   1.025   3.127   0.309
 4275SOL    HW114722   1.104   3.158   0.355
 4275SOL    HW214723   0.986   3.206   0.273
 4276SOL     OW14724   7.596   8.002   5.821
 4276SOL    HW114725   7.609   7.974   5.730
 4276SOL    HW214726   7.684   8.026   5.851
 4277SOL     OW14727   5.466   0.967   8.835
 4277SOL    HW114728   5.554   1.005   8.834
 4277SOL    HW214729   5.481   0.872   8.834
 4278SOL     OW14730   7.785  13.348   1.571
 4278SOL    HW114731   7.767  13.324   1.480
 4278SOL    HW214732   7.874  13.317   1.586
 4279SOL     OW14733   0.383   5.095  14.753
 4279SOL    HW114734   0.441   5.143  14.694
 4279SOL    HW214735   0.439   5.025  14.789
 4280SOL     OW14736  12.617   1.059   9.016
 4280SOL    HW114737  12.684   1.023   8.957
 4280SOL    HW214738  12.646   1.033   9.104
 4281SOL     OW14739  12.540   2.457   1.020
 4281SOL    HW114740  12.444   2.461   1.019
 4281SOL    HW214741  12.564   2.475   1.111
 4282SOL     OW14742   7.283  10.821   4.612
 4282SOL    HW114743   7.265  10.906   4.653
 4282SOL    HW214744   7.246  10.830   4.523
 4283SOL     OW14745   1.245   5.566   4.383
 4283SOL    HW114746   1.261   5.659   4.395
 4283SOL    HW214747   1.149   5.557   4.386
 4284SOL     OW14748  12.146  14.661   5.892
 4284SOL    HW114749  12.189  14.746   5.879
 4284SOL    HW214750  12.099  14.671   5.975
 4285SOL     OW14751  14.351   4.345   5.320
 4285SOL    HW114752  14.424   4.308   5.371
 4285SOL    HW214753  14.280   4.282   5.331
 4286SOL     OW14754   6.827   5.430   8.100
 4286SOL    HW114755   6.798   5.377   8.174
 4286SOL    HW214756   6.769   5.506   8.102
 4287SOL     OW14757   8.892   3.704   3.185
 4287SOL    HW114758   8.853   3.660   3.260
 4287SOL    HW214759   8.857   3.658   3.109
 4288SOL     OW14760  14.667   2.479   3.671
 4288SOL    HW114761  14.653   2.386   3.683
 4288SOL    HW214762  14.634   2.497   3.583
 4289SOL     OW14763   6.579  14.368  14.737
 4289SOL    HW114764   6.483  14.365  14.733
 4289SOL    HW214765   6.608  14.315  14.663
 4290SOL     OW14766   1.277  11.451   0.770
 4290SOL    HW114767   1.305  11.540   0.751
 4290SOL    HW214768   1.222  11.458   0.847
 4291SOL     OW14769   9.718   4.737   7.775
 4291SOL    HW114770   9.814   4.733   7.769
 4291SOL    HW214771   9.691   4.780   7.694
 4292SOL     OW14772  14.028  13.531  13.178
 4292SOL    HW114773  14.110  13.568  13.209
 4292SOL    HW214774  13.980  13.509  13.258
 4293SOL     OW14775   1.024  14.234  11.104
 4293SOL    HW114776   0.931  14.223  11.084
 4293SOL    HW214777   1.027  14.236  11.200
 4294SOL     OW14778   6.196   9.536   1.647
 4294SOL    HW114779   6.247   9.539   1.728
 4294SOL    HW214780   6.231   9.607   1.594
 4295SOL     OW14781   3.236  13.492  14.432
 4295SOL    HW114782   3.215  13.432  14.360
 4295SOL    HW214783   3.228  13.579  14.394
 4296SOL     OW14784   5.305   0.689  10.396
 4296SOL    HW114785   5.294   0.597  10.421
 4296SOL    HW214786   5.293   0.738  10.477
 4297SOL     OW14787   4.304   3.303  11.283
 4297SOL    HW114788   4.327   3.232  11.224
 4297SOL    HW214789   4.301   3.262  11.370
 4298SOL     OW14790   5.198   0.864   1.658
 4298SOL    HW114791   5.112   0.903   1.674
 4298SOL    HW214792   5.251   0.936   1.623
 4299SOL     OW14793  13.452   9.764  10.659
 4299SOL    HW114794  13.361   9.746  10.685
 4299SOL    HW214795  13.487   9.678  10.635
 4300SOL     OW14796   6.314   1.309   5.097
 4300SOL    HW114797   6.334   1.393   5.138
 4300SOL    HW214798   6.238   1.326   5.041
 4301SOL     OW14799   5.877   5.360   0.826
 4301SOL    HW114800   5.871   5.420   0.752
 4301SOL    HW214801   5.971   5.358   0.847
 4302SOL     OW14802  13.517   7.722   1.265
 4302SOL    HW114803  13.531   7.798   1.321
 4302SOL    HW214804  13.521   7.647   1.325
 4303SOL     OW14805  12.818  14.850   5.722
 4303SOL    HW114806  12.775  14.803   5.650
 4303SOL    HW214807  12.890  14.794   5.749
 4304SOL     OW14808   6.686   2.233  13.431
 4304SOL    HW114809   6.706   2.302  13.495
 4304SOL    HW214810   6.628   2.173  13.477
 4305SOL     OW14811  11.987   6.938   5.630
 4305SOL    HW114812  11.998   7.033   5.624
 4305SOL    HW214813  11.906   6.920   5.583
 4306SOL     OW14814   0.645   7.471   5.988
 4306SOL    HW114815   0.674   7.504   5.903
 4306SOL    HW214816   0.614   7.549   6.035
 4307SOL     OW14817  11.128  14.047  13.663
 4307SOL    HW114818  11.062  14.083  13.723
 4307SOL    HW214819  11.212  14.070  13.703
 4308SOL     OW14820  13.635   5.056  12.893
 4308SOL    HW114821  13.632   5.151  12.898
 4308SOL    HW214822  13.704   5.031  12.954
 4309SOL     OW14823   9.715   8.458   8.314
 4309SOL    HW114824   9.754   8.465   8.401
 4309SOL    HW214825   9.665   8.376   8.317
 4310SOL     OW14826   2.332  11.108  14.003
 4310SOL    HW114827   2.317  11.175  14.069
 4310SOL    HW214828   2.255  11.112  13.946
 4311SOL     OW14829   0.961  11.216   2.458
 4311SOL    HW114830   1.026  11.175   2.515
 4311SOL    HW214831   0.945  11.302   2.498
 4312SOL     OW14832  11.182   3.806   1.735
 4312SOL    HW114833  11.163   3.718   1.702
 4312SOL    HW214834  11.099   3.837   1.771
 4313SOL     OW14835   6.388   4.111   9.639
 4313SOL    HW114836   6.407   4.035   9.584
 4313SOL    HW214837   6.441   4.098   9.717
 4314SOL     OW14838   8.461   5.302  10.925
 4314SOL    HW114839   8.536   5.308  10.985
 4314SOL    HW214840   8.441   5.393  10.902
 4315SOL     OW14841   1.364   2.573   9.615
 4315SOL    HW114842   1.427   2.515   9.573
 4315SOL    HW214843   1.333   2.631   9.546
 4316SOL     OW14844  12.458   5.579   2.583
 4316SOL    HW114845  12.381   5.629   2.609
 4316SOL    HW214846  12.530   5.621   2.629
 4317SOL     OW14847   2.144  12.278   6.467
 4317SOL    HW114848   2.190  12.240   6.393
 4317SOL    HW214849   2.051  12.269   6.446
 4318SOL     OW14850   9.431   8.654   7.820
 4318SOL    HW114851   9.429   8.609   7.735
 4318SOL    HW214852   9.342   8.645   7.854
 4319SOL     OW14853   5.522  11.406  10.571
 4319SOL    HW114854   5.585  11.350  10.526
 4319SOL    HW214855   5.474  11.449  10.500
 4320SOL     OW14856  11.427   4.721  14.716
 4320SOL    HW114857  11.395   4.706  14.627
 4320SOL    HW214858  11.373   4.664  14.770
 4321SOL     OW14859  12.960   8.402  14.833
 4321SOL    HW114860  12.910   8.320  14.830
 4321SOL    HW214861  13.033   8.388  14.774
 4322SOL     OW14862   3.317   9.113  11.662
 4322SOL    HW114863   3.346   9.192  11.707
 4322SOL    HW214864   3.352   9.041  11.715
 4323SOL     OW14865   2.860   4.046  12.896
 4323SOL    HW114866   2.871   4.046  12.800
 4323SOL    HW214867   2.795   4.113  12.913
 4324SOL     OW14868  13.834  13.781   8.209
 4324SOL    HW114869  13.772  13.756   8.278
 4324SOL    HW214870  13.910  13.816   8.256
 4325SOL     OW14871   8.504  10.850  11.753
 4325SOL    HW114872   8.411  10.862  11.768
 4325SOL    HW214873   8.527  10.915  11.686
 4326SOL     OW14874   9.782  10.934   4.335
 4326SOL    HW114875   9.752  10.877   4.265
 4326SOL    HW214876   9.834  11.001   4.291
 4327SOL     OW14877   8.699   9.054  10.078
 4327SOL    HW114878   8.721   9.019  10.164
 4327SOL    HW214879   8.603   9.053  10.076
 4328SOL     OW14880  12.736  10.029   7.580
 4328SOL    HW114881  12.738  10.125   7.575
 4328SOL    HW214882  12.647  10.006   7.552
 4329SOL     OW14883   6.261   9.980   2.457
 4329SOL    HW114884   6.200   9.966   2.529
 4329SOL    HW214885   6.338   9.927   2.480
 4330SOL     OW14886   3.579  11.275  12.443
 4330SOL    HW114887   3.511  11.326  12.399
 4330SOL    HW214888   3.533  11.199  12.480
 4331SOL     OW14889   9.272   9.045   4.389
 4331SOL    HW114890   9.180   9.021   4.394
 4331SOL    HW214891   9.304   9.001   4.310
 4332SOL     OW14892   6.596   3.080  12.227
 4332SOL    HW114893   6.512   3.079  12.271
 4332SOL    HW214894   6.598   3.164  12.180
 4333SOL     OW14895   1.008   4.858   4.492
 4333SOL    HW114896   1.017   4.773   4.447
 4333SOL    HW214897   0.914   4.875   4.494
 4334SOL     OW14898   6.713   5.918  11.623
 4334SOL    HW114899   6.747   5.972  11.552
 4334SOL    HW214900   6.678   5.981  11.687
 4335SOL     OW14901   2.566  11.500   0.145
 4335SOL    HW114902   2.516  11.579   0.167
 4335SOL    HW214903   2.500  11.438   0.115
 4336SOL     OW14904  11.164   9.872  12.723
 4336SOL    HW114905  11.171   9.810  12.650
 4336SOL    HW214906  11.190   9.956  12.686
 4337SOL     OW14907  10.406  11.671  14.279
 4337SOL    HW114908  10.438  11.653  14.190
 4337SOL    HW214909  10.398  11.767  14.282
 4338SOL     OW14910   7.552   3.977   5.451
 4338SOL    HW114911   7.604   3.907   5.491
 4338SOL    HW214912   7.544   4.042   5.521
 4339SOL     OW14913   2.029   8.073   4.323
 4339SOL    HW114914   2.033   8.077   4.228
 4339SOL    HW214915   2.091   8.005   4.347
 4340SOL     OW14916  13.966   0.024   6.218
 4340SOL    HW114917  13.967  14.809   6.233
 4340SOL    HW214918  13.873   0.046   6.208
 4341SOL     OW14919   5.723  11.262   1.459
 4341SOL    HW114920   5.724  11.189   1.397
 4341SOL    HW214921   5.631  11.288   1.464
 4342SOL     OW14922  11.941   4.276   8.034
 4342SOL    HW114923  11.993   4.234   8.103
 4342SOL    HW214924  11.989   4.357   8.014
 4343SOL     OW14925  12.349   3.032  12.045
 4343SOL    HW114926  12.346   3.127  12.053
 4343SOL    HW214927  12.291   3.000  12.114
 4344SOL     OW14928   1.984  12.087   5.733
 4344SOL    HW114929   1.918  12.136   5.783
 4344SOL    HW214930   2.052  12.067   5.797
 4345SOL     OW14931   6.952   5.686   3.321
 4345SOL    HW114932   6.874   5.642   3.356
 4345SOL    HW214933   6.970   5.755   3.385
 4346SOL     OW14934   4.509   7.782   6.994
 4346SOL    HW114935   4.480   7.705   7.044
 4346SOL    HW214936   4.603   7.768   6.981
 4347SOL     OW14937   0.375   7.898   6.025
 4347SOL    HW114938   0.368   7.912   6.120
 4347SOL    HW214939   0.427   7.972   5.993
 4348SOL     OW14940   4.125   8.244   0.062
 4348SOL    HW114941   4.132   8.241   0.157
 4348SOL    HW214942   4.106   8.154   0.037
 4349SOL     OW14943   7.812   2.526  13.688
 4349SOL    HW114944   7.854   2.598  13.736
 4349SOL    HW214945   7.885   2.471  13.660
 4350SOL     OW14946   3.567  13.081   5.952
 4350SOL    HW114947   3.570  13.167   5.994
 4350SOL    HW214948   3.602  13.021   6.018
 4351SOL     OW14949   5.362   3.306   8.883
 4351SOL    HW114950   5.309   3.384   8.903
 4351SOL    HW214951   5.445   3.342   8.852
 4352SOL     OW14952  10.005  12.287   1.778
 4352SOL    HW114953  10.040  12.370   1.811
 4352SOL    HW214954   9.964  12.246   1.855
 4353SOL     OW14955   4.311   5.659  14.083
 4353SOL    HW114956   4.293   5.579  14.034
 4353SOL    HW214957   4.231   5.710  14.077
 4354SOL     OW14958  10.794  10.885  14.027
 4354SOL    HW114959  10.790  10.789  14.033
 4354SOL    HW214960  10.711  10.914  14.067
 4355SOL     OW14961  11.433  11.663  13.653
 4355SOL    HW114962  11.407  11.598  13.718
 4355SOL    HW214963  11.501  11.620  13.602
 4356SOL     OW14964   6.414   8.746   4.683
 4356SOL    HW114965   6.375   8.659   4.693
 4356SOL    HW214966   6.393   8.791   4.765
 4357SOL     OW14967  13.760  14.622  11.422
 4357SOL    HW114968  13.700  14.679  11.376
 4357SOL    HW214969  13.816  14.585  11.354
 4358SOL     OW14970  10.278   4.143   7.419
 4358SOL    HW114971  10.342   4.076   7.394
 4358SOL    HW214972  10.298   4.217   7.361
 4359SOL     OW14973   3.341   1.678  13.510
 4359SOL    HW114974   3.270   1.687  13.573
 4359SOL    HW214975   3.341   1.760  13.461
 4360SOL     OW14976  13.946  14.299   3.575
 4360SOL    HW114977  14.023  14.254   3.611
 4360SOL    HW214978  13.916  14.242   3.504
 4361SOL     OW14979   1.990   9.115   0.040
 4361SOL    HW114980   2.030   9.031   0.017
 4361SOL    HW214981   1.899   9.107   0.014
 4362SOL     OW14982   3.330  11.564   6.746
 4362SOL    HW114983   3.285  11.648   6.744
 4362SOL    HW214984   3.417  11.582   6.710
 4363SOL     OW14985   7.006   6.061   7.090
 4363SOL    HW114986   7.006   6.122   7.163
 4363SOL    HW214987   7.058   6.104   7.022
 4364SOL     OW14988  12.964   1.724   0.091
 4364SOL    HW114989  12.985   1.690   0.178
 4364SOL    HW214990  12.898   1.664   0.057
 4365SOL     OW14991   0.146  12.414   3.497
 4365SOL    HW114992   0.204  12.379   3.564
 4365SOL    HW214993   0.076  12.350   3.489
 4366SOL     OW14994   0.643   5.992   2.188
 4366SOL    HW114995   0.717   6.031   2.141
 4366SOL    HW214996   0.603   6.065   2.235
 4367SOL     OW14997   7.491   1.646  12.091
 4367SOL    HW114998   7.472   1.721  12.148
 4367SOL    HW214999   7.441   1.665  12.011
 4368SOL     OW15000   0.836   3.888  10.821
 4368SOL    HW115001   0.766   3.948  10.796
 4368SOL    HW215002   0.791   3.812  10.857
 4369SOL     OW15003   4.334   7.373   2.470
 4369SOL    HW115004   4.411   7.370   2.526
 4369SOL    HW215005   4.302   7.463   2.478
 4370SOL     OW15006   5.835   0.900   8.238
 4370SOL    HW115007   5.885   0.865   8.164
 4370SOL    HW215008   5.881   0.980   8.263
 4371SOL     OW15009   8.259   8.566   5.690
 4371SOL    HW115010   8.253   8.567   5.594
 4371SOL    HW215011   8.199   8.497   5.717
 4372SOL     OW15012   9.163   2.707   6.600
 4372SOL    HW115013   9.155   2.738   6.690
 4372SOL    HW215014   9.086   2.651   6.587
 4373SOL     OW15015   3.730   8.028   9.487
 4373SOL    HW115016   3.702   8.072   9.567
 4373SOL    HW215017   3.809   7.979   9.512
 4374SOL     OW15018   4.431  12.136   4.530
 4374SOL    HW115019   4.426  12.049   4.568
 4374SOL    HW215020   4.506  12.134   4.471
 4375SOL     OW15021  14.159   9.429   3.970
 4375SOL    HW115022  14.167   9.407   4.063
 4375SOL    HW215023  14.192   9.519   3.964
 4376SOL     OW15024   7.243   0.073   6.299
 4376SOL    HW115025   7.229   0.141   6.365
 4376SOL    HW215026   7.291   0.117   6.229
 4377SOL     OW15027  14.340  10.055  11.886
 4377SOL    HW115028  14.314  10.006  11.809
 4377SOL    HW215029  14.395   9.994  11.936
 4378SOL     OW15030   6.520   7.388  10.517
 4378SOL    HW115031   6.485   7.452  10.454
 4378SOL    HW215032   6.575   7.330  10.463
 4379SOL     OW15033   2.017   4.338  12.645
 4379SOL    HW115034   1.935   4.337  12.595
 4379SOL    HW215035   1.993   4.301  12.730
 4380SOL     OW15036   8.796  11.846   4.412
 4380SOL    HW115037   8.716  11.812   4.452
 4380SOL    HW215038   8.816  11.785   4.341
 4381SOL     OW15039   1.878  11.958   6.626
 4381SOL    HW115040   1.838  11.878   6.591
 4381SOL    HW215041   1.820  11.984   6.698
 4382SOL     OW15042  13.513  11.256   3.842
 4382SOL    HW115043  13.485  11.165   3.849
 4382SOL    HW215044  13.559  11.274   3.924
 4383SOL     OW15045   2.480   4.811  10.462
 4383SOL    HW115046   2.532   4.839  10.537
 4383SOL    HW215047   2.390   4.829  10.487
 4384SOL     OW15048   5.232   0.108  13.291
 4384SOL    HW115049   5.189   0.151  13.217
 4384SOL    HW215050   5.160   0.082  13.349
 4385SOL     OW15051   9.405   1.286   1.532
 4385SOL    HW115052   9.375   1.203   1.497
 4385SOL    HW215053   9.500   1.283   1.522
 4386SOL     OW15054  14.740  13.340   8.193
 4386SOL    HW115055  14.786  13.334   8.277
 4386SOL    HW215056  14.682  13.264   8.192
 4387SOL     OW15057   0.110  14.076  11.403
 4387SOL    HW115058   0.047  14.004  11.410
 4387SOL    HW215059   0.091  14.132  11.479
 4388SOL     OW15060   9.140   1.672   8.481
 4388SOL    HW115061   9.091   1.591   8.499
 4388SOL    HW215062   9.179   1.695   8.565
 4389SOL     OW15063   2.705   6.961  11.352
 4389SOL    HW115064   2.730   6.941  11.262
 4389SOL    HW215065   2.653   6.885  11.380
 4390SOL     OW15066  13.985   7.897  11.908
 4390SOL    HW115067  13.977   7.956  11.834
 4390SOL    HW215068  13.983   7.809  11.869
 4391SOL     OW15069   2.779   5.060   6.256
 4391SOL    HW115070   2.860   5.040   6.304
 4391SOL    HW215071   2.809   5.097   6.173
 4392SOL     OW15072   4.488  10.260  12.104
 4392SOL    HW115073   4.561  10.247  12.164
 4392SOL    HW215074   4.448  10.173  12.096
 4393SOL     OW15075   0.294  11.821   4.429
 4393SOL    HW115076   0.246  11.830   4.347
 4393SOL    HW215077   0.297  11.910   4.464
 4394SOL     OW15078   5.526  10.831   8.946
 4394SOL    HW115079   5.489  10.762   8.891
 4394SOL    HW215080   5.568  10.784   9.019
 4395SOL     OW15081   0.510   1.707   8.204
 4395SOL    HW115082   0.546   1.623   8.233
 4395SOL    HW215083   0.485   1.752   8.285
 4396SOL     OW15084   0.935   3.687  12.840
 4396SOL    HW115085   1.029   3.704  12.846
 4396SOL    HW215086   0.917   3.687  12.746
 4397SOL     OW15087  11.838   5.824   7.049
 4397SOL    HW115088  11.765   5.879   7.021
 4397SOL    HW215089  11.831   5.821   7.144
 4398SOL     OW15090   7.000  12.174  10.642
 4398SOL    HW115091   6.990  12.252  10.696
 4398SOL    HW215092   7.084  12.137  10.668
 4399SOL     OW15093  13.702   6.287  13.312
 4399SOL    HW115094  13.671   6.261  13.399
 4399SOL    HW215095  13.625   6.327  13.271
 4400SOL     OW15096   2.632   1.152  11.891
 4400SOL    HW115097   2.591   1.066  11.901
 4400SOL    HW215098   2.724   1.137  11.913
 4401SOL     OW15099   4.724   4.810   3.938
 4401SOL    HW115100   4.703   4.861   3.860
 4401SOL    HW215101   4.764   4.874   3.997
 4402SOL     OW15102   9.828   2.627   1.727
 4402SOL    HW115103   9.831   2.604   1.820
 4402SOL    HW215104   9.875   2.555   1.683
 4403SOL     OW15105   3.164   5.402   9.974
 4403SOL    HW115106   3.108   5.448  10.037
 4403SOL    HW215107   3.194   5.471   9.914
 4404SOL     OW15108   8.931   4.648   6.389
 4404SOL    HW115109   8.991   4.586   6.429
 4404SOL    HW215110   8.982   4.728   6.378
 4405SOL     OW15111   3.132  12.603  10.752
 4405SOL    HW115112   3.170  12.667  10.812
 4405SOL    HW215113   3.038  12.606  10.769
 4406SOL     OW15114   8.892   9.061   8.627
 4406SOL    HW115115   8.831   8.999   8.669
 4406SOL    HW215116   8.979   9.026   8.647
 4407SOL     OW15117  10.284   6.755   1.962
 4407SOL    HW115118  10.354   6.811   1.997
 4407SOL    HW215119  10.331   6.689   1.910
 4408SOL     OW15120  14.198   7.339   6.715
 4408SOL    HW115121  14.186   7.350   6.810
 4408SOL    HW215122  14.111   7.321   6.681
 4409SOL     OW15123   2.197  11.065   0.935
 4409SOL    HW115124   2.176  11.157   0.952
 4409SOL    HW215125   2.215  11.028   1.021
 4410SOL     OW15126   0.390   7.286   0.351
 4410SOL    HW115127   0.452   7.359   0.344
 4410SOL    HW215128   0.311   7.317   0.307
 4411SOL     OW15129   2.249   4.071   7.543
 4411SOL    HW115130   2.236   4.142   7.480
 4411SOL    HW215131   2.312   4.012   7.500
 4412SOL     OW15132  10.448   5.256   5.713
 4412SOL    HW115133  10.514   5.239   5.646
 4412SOL    HW215134  10.380   5.192   5.697
 4413SOL     OW15135  14.035   3.938   0.163
 4413SOL    HW115136  14.008   3.942   0.071
 4413SOL    HW215137  13.988   3.862   0.198
 4414SOL     OW15138   2.959   5.368   9.323
 4414SOL    HW115139   2.953   5.293   9.263
 4414SOL    HW215140   3.030   5.421   9.288
 4415SOL     OW15141   7.750   6.076   3.531
 4415SOL    HW115142   7.816   6.073   3.462
 4415SOL    HW215143   7.781   6.015   3.598
 4416SOL     OW15144   8.875  14.174   2.633
 4416SOL    HW115145   8.926  14.106   2.589
 4416SOL    HW215146   8.818  14.209   2.564
 4417SOL     OW15147  10.179   2.988  13.813
 4417SOL    HW115148  10.226   3.011  13.732
 4417SOL    HW215149  10.124   3.064  13.831
 4418SOL     OW15150  13.599  12.910   1.369
 4418SOL    HW115151  13.694  12.916   1.363
 4418SOL    HW215152  13.569  13.000   1.378
 4419SOL     OW15153   3.865   4.265  14.705
 4419SOL    HW115154   3.954   4.233  14.689
 4419SOL    HW215155   3.813   4.186  14.718
 4420SOL     OW15156   3.233   8.688  14.294
 4420SOL    HW115157   3.313   8.691  14.345
 4420SOL    HW215158   3.214   8.779  14.274
 4421SOL     OW15159   3.793   8.441  10.013
 4421SOL    HW115160   3.745   8.369  10.054
 4421SOL    HW215161   3.733   8.515  10.017
 4422SOL     OW15162  13.576   9.496  12.643
 4422SOL    HW115163  13.565   9.411  12.601
 4422SOL    HW215164  13.547   9.482  12.734
 4423SOL     OW15165   1.897  12.533  12.988
 4423SOL    HW115166   1.826  12.469  12.990
 4423SOL    HW215167   1.853  12.618  12.994
 4424SOL     OW15168  12.368  10.915  11.974
 4424SOL    HW115169  12.389  10.828  12.007
 4424SOL    HW215170  12.289  10.940  12.023
 4425SOL     OW15171   2.858  14.012  12.048
 4425SOL    HW115172   2.866  13.935  11.993
 4425SOL    HW215173   2.764  14.019  12.066
 4426SOL     OW15174   6.447   7.593   3.269
 4426SOL    HW115175   6.413   7.512   3.232
 4426SOL    HW215176   6.515   7.621   3.208
 4427SOL     OW15177   9.592   2.540   5.603
 4427SOL    HW115178   9.572   2.633   5.613
 4427SOL    HW215179   9.509   2.495   5.616
 4428SOL     OW15180  10.806  12.033   6.340
 4428SOL    HW115181  10.771  11.984   6.415
 4428SOL    HW215182  10.732  12.082   6.306
 4429SOL     OW15183   5.402  12.113  12.944
 4429SOL    HW115184   5.400  12.017  12.941
 4429SOL    HW215185   5.493  12.135  12.962
 4430SOL     OW15186   5.605   6.383  12.279
 4430SOL    HW115187   5.636   6.460  12.326
 4430SOL    HW215188   5.599   6.411  12.188
 4431SOL     OW15189   4.621   6.016   2.505
 4431SOL    HW115190   4.548   6.048   2.452
 4431SOL    HW215191   4.674   5.965   2.444
 4432SOL     OW15192   8.072  13.851  13.478
 4432SOL    HW115193   8.125  13.909  13.424
 4432SOL    HW215194   8.090  13.879  13.567
 4433SOL     OW15195   2.628   9.812   2.724
 4433SOL    HW115196   2.619   9.826   2.819
 4433SOL    HW215197   2.545   9.771   2.699
 4434SOL     OW15198  14.450  12.084   9.611
 4434SOL    HW115199  14.495  12.026   9.673
 4434SOL    HW215200  14.497  12.072   9.529
 4435SOL     OW15201  11.717  12.438  13.302
 4435SOL    HW115202  11.734  12.346  13.324
 4435SOL    HW215203  11.684  12.476  13.383
 4436SOL     OW15204   6.708   3.288  10.624
 4436SOL    HW115205   6.668   3.296  10.537
 4436SOL    HW215206   6.682   3.368  10.670
 4437SOL     OW15207   1.268   8.570  11.918
 4437SOL    HW115208   1.265   8.506  11.847
 4437SOL    HW215209   1.341   8.627  11.896
 4438SOL     OW15210  13.592   9.248  12.003
 4438SOL    HW115211  13.528   9.177  12.006
 4438SOL    HW215212  13.550   9.316  11.950
 4439SOL     OW15213   1.538   9.434   9.294
 4439SOL    HW115214   1.606   9.449   9.229
 4439SOL    HW215215   1.508   9.521   9.319
 4440SOL     OW15216  10.994   9.788   5.562
 4440SOL    HW115217  11.073   9.838   5.540
 4440SOL    HW215218  11.027   9.706   5.599
 4441SOL     OW15219   7.912  13.750  10.772
 4441SOL    HW115220   7.828  13.704  10.773
 4441SOL    HW215221   7.945  13.743  10.861
 4442SOL     OW15222   2.011   3.866  13.850
 4442SOL    HW115223   2.102   3.845  13.828
 4442SOL    HW215224   2.016   3.951  13.893
 4443SOL     OW15225   3.074   6.490   0.099
 4443SOL    HW115226   3.116   6.407   0.079
 4443SOL    HW215227   2.981   6.476   0.080
 4444SOL     OW15228   3.286   4.332   6.797
 4444SOL    HW115229   3.319   4.306   6.883
 4444SOL    HW215230   3.305   4.258   6.740
 4445SOL     OW15231   2.536   9.657   0.562
 4445SOL    HW115232   2.554   9.695   0.648
 4445SOL    HW215233   2.493   9.727   0.513
 4446SOL     OW15234   7.744   4.725   1.367
 4446SOL    HW115235   7.821   4.669   1.380
 4446SOL    HW215236   7.773   4.811   1.396
 4447SOL     OW15237   4.775   5.680  14.855
 4447SOL    HW115238   4.738   5.655   0.060
 4447SOL    HW215239   4.781   5.598  14.806
 4448SOL     OW15240   4.861   8.471   0.800
 4448SOL    HW115241   4.841   8.511   0.885
 4448SOL    HW215242   4.923   8.531   0.759
 4449SOL     OW15243   0.015  12.306   9.988
 4449SOL    HW115244   0.072  12.308   9.911
 4449SOL    HW215245   0.051  12.237  10.043
 4450SOL     OW15246   8.821  14.605  14.674
 4450SOL    HW115247   8.760  14.542  14.711
 4450SOL    HW215248   8.862  14.647  14.749
 4451SOL     OW15249   6.489   4.256   8.856
 4451SOL    HW115250   6.513   4.264   8.763
 4451SOL    HW215251   6.562   4.208   8.895
 4452SOL     OW15252  12.738   0.499   8.314
 4452SOL    HW115253  12.686   0.503   8.233
 4452SOL    HW215254  12.696   0.561   8.373
 4453SOL     OW15255   3.793  10.315  12.797
 4453SOL    HW115256   3.803  10.378  12.868
 4453SOL    HW215257   3.782  10.368  12.718
 4454SOL     OW15258   3.521   8.422   5.744
 4454SOL    HW115259   3.496   8.500   5.696
 4454SOL    HW215260   3.444   8.400   5.797
 4455SOL     OW15261   8.167  10.429  10.094
 4455SOL    HW115262   8.106  10.360  10.123
 4455SOL    HW215263   8.175  10.416  10.000
 4456SOL     OW15264   8.325  10.442  11.543
 4456SOL    HW115265   8.270  10.504  11.495
 4456SOL    HW215266   8.304  10.357  11.504
 4457SOL     OW15267   8.835   1.455  11.483
 4457SOL    HW115268   8.842   1.383  11.420
 4457SOL    HW215269   8.926   1.477  11.503
 4458SOL     OW15270   6.848   5.354   2.379
 4458SOL    HW115271   6.871   5.445   2.398
 4458SOL    HW215272   6.763   5.341   2.421
 4459SOL     OW15273  14.469   5.932   2.225
 4459SOL    HW115274  14.529   6.007   2.228
 4459SOL    HW215275  14.520   5.864   2.182
 4460SOL     OW15276   5.989   5.713   8.777
 4460SOL    HW115277   5.918   5.750   8.724
 4460SOL    HW215278   6.040   5.661   8.716
 4461SOL     OW15279   3.197   7.838  12.180
 4461SOL    HW115280   3.137   7.763  12.176
 4461SOL    HW215281   3.173   7.883  12.261
 4462SOL     OW15282   6.065   8.893   7.551
 4462SOL    HW115283   6.143   8.928   7.592
 4462SOL    HW215284   5.996   8.956   7.572
 4463SOL     OW15285  13.625   5.748  13.642
 4463SOL    HW115286  13.557   5.692  13.681
 4463SOL    HW215287  13.682   5.771  13.715
 4464SOL     OW15288   7.676  11.727   5.724
 4464SOL    HW115289   7.654  11.634   5.727
 4464SOL    HW215290   7.594  11.771   5.701
 4465SOL     OW15291   9.198   2.619   0.998
 4465SOL    HW115292   9.188   2.573   1.081
 4465SOL    HW215293   9.114   2.664   0.985
 4466SOL     OW15294  13.062   8.754   4.157
 4466SOL    HW115295  13.029   8.677   4.203
 4466SOL    HW215296  12.997   8.771   4.089
 4467SOL     OW15297   6.063   6.295   6.046
 4467SOL    HW115298   6.015   6.352   5.986
 4467SOL    HW215299   6.148   6.283   6.004
 4468SOL     OW15300   4.773   0.690   6.230
 4468SOL    HW115301   4.797   0.743   6.154
 4468SOL    HW215302   4.842   0.707   6.295
 4469SOL     OW15303   8.195  14.037  13.343
 4469SOL    HW115304   8.278  14.010  13.382
 4469SOL    HW215305   8.207  14.131  13.325
 4470SOL     OW15306  10.741   6.389   5.346
 4470SOL    HW115307  10.732   6.483   5.333
 4470SOL    HW215308  10.832   6.370   5.324
 4471SOL     OW15309  13.260   1.203  14.630
 4471SOL    HW115310  13.258   1.294  14.598
 4471SOL    HW215311  13.259   1.150  14.550
 4472SOL     OW15312   2.878  13.508  10.385
 4472SOL    HW115313   2.884  13.445  10.456
 4472SOL    HW215314   2.871  13.593  10.428
 4473SOL     OW15315  14.640   1.985  10.959
 4473SOL    HW115316  14.656   2.031  11.041
 4473SOL    HW215317  14.559   2.024  10.925
 4474SOL     OW15318   9.195  11.791  14.403
 4474SOL    HW115319   9.102  11.812  14.402
 4474SOL    HW215320   9.199  11.696  14.410
 4475SOL     OW15321   3.796  10.901   9.733
 4475SOL    HW115322   3.830  10.812   9.746
 4475SOL    HW215323   3.826  10.926   9.646
 4476SOL     OW15324  13.328   1.322   9.165
 4476SOL    HW115325  13.400   1.292   9.221
 4476SOL    HW215326  13.249   1.297   9.212
 4477SOL     OW15327   6.748   2.653   4.965
 4477SOL    HW115328   6.711   2.593   5.029
 4477SOL    HW215329   6.843   2.645   4.977
 4478SOL     OW15330  14.047   8.337   5.866
 4478SOL    HW115331  14.074   8.263   5.920
 4478SOL    HW215332  14.025   8.298   5.781
 4479SOL     OW15333  14.170  11.921   2.882
 4479SOL    HW115334  14.111  11.996   2.894
 4479SOL    HW215335  14.237  11.934   2.949
 4480SOL     OW15336   9.864  10.120   6.783
 4480SOL    HW115337   9.894  10.052   6.723
 4480SOL    HW215338   9.778  10.145   6.749
 4481SOL     OW15339   4.923   6.823   5.277
 4481SOL    HW115340   4.924   6.872   5.360
 4481SOL    HW215341   4.836   6.840   5.241
 4482SOL     OW15342  12.911  13.092  11.862
 4482SOL    HW115343  12.906  13.103  11.767
 4482SOL    HW215344  12.880  13.003  11.878
 4483SOL     OW15345   8.976   3.759  10.700
 4483SOL    HW115346   8.977   3.722  10.788
 4483SOL    HW215347   9.068   3.759  10.673
 4484SOL     OW15348   9.890   5.208  13.473
 4484SOL    HW115349   9.847   5.255  13.401
 4484SOL    HW215350   9.915   5.277  13.535
 4485SOL     OW15351  12.182   2.908   2.078
 4485SOL    HW115352  12.269   2.935   2.107
 4485SOL    HW215353  12.147   2.986   2.034
 4486SOL     OW15354   0.395   8.761   7.362
 4486SOL    HW115355   0.393   8.682   7.307
 4486SOL    HW215356   0.303   8.783   7.377
 4487SOL     OW15357   8.952  11.486  14.616
 4487SOL    HW115358   8.921  11.575  14.636
 4487SOL    HW215359   9.026  11.500  14.556
 4488SOL     OW15360   6.458  11.103   1.634
 4488SOL    HW115361   6.441  11.118   1.727
 4488SOL    HW215362   6.437  11.010   1.621
 4489SOL     OW15363   1.180   5.952   3.398
 4489SOL    HW115364   1.192   5.984   3.308
 4489SOL    HW215365   1.269   5.931   3.428
 4490SOL     OW15366  10.314   6.349   3.014
 4490SOL    HW115367  10.282   6.392   3.093
 4490SOL    HW215368  10.258   6.382   2.944
 4491SOL     OW15369   6.270   9.083  14.593
 4491SOL    HW115370   6.355   9.081  14.639
 4491SOL    HW215371   6.293   9.079  14.501
 4492SOL     OW15372   4.682  13.819   1.902
 4492SOL    HW115373   4.625  13.809   1.826
 4492SOL    HW215374   4.755  13.873   1.871
 4493SOL     OW15375   9.632   4.029   5.043
 4493SOL    HW115376   9.665   4.086   4.973
 4493SOL    HW215377   9.600   4.090   5.110
 4494SOL     OW15378   2.330  12.479  11.379
 4494SOL    HW115379   2.268  12.438  11.440
 4494SOL    HW215380   2.369  12.405  11.332
 4495SOL     OW15381   6.249  11.410   1.586
 4495SOL    HW115382   6.260  11.362   1.668
 4495SOL    HW215383   6.180  11.363   1.540
 4496SOL     OW15384   6.030   0.435   4.243
 4496SOL    HW115385   6.118   0.408   4.269
 4496SOL    HW215386   5.973   0.362   4.270
 4497SOL     OW15387  11.436   0.326   4.280
 4497SOL    HW115388  11.447   0.278   4.198
 4497SOL    HW215389  11.471   0.413   4.261
 4498SOL     OW15390   9.292   5.070   7.340
 4498SOL    HW115391   9.251   4.983   7.343
 4498SOL    HW215392   9.222   5.130   7.365
 4499SOL     OW15393   7.580   8.285  14.261
 4499SOL    HW115394   7.631   8.215  14.221
 4499SOL    HW215395   7.593   8.273  14.355
 4500SOL     OW15396   3.848  11.446   3.017
 4500SOL    HW115397   3.926  11.391   3.011
 4500SOL    HW215398   3.875  11.520   3.071
 4501SOL     OW15399  10.768   7.599   6.133
 4501SOL    HW115400  10.807   7.656   6.199
 4501SOL    HW215401  10.710   7.541   6.182
 4502SOL     OW15402  13.613  10.650   4.083
 4502SOL    HW115403  13.643  10.618   3.998
 4502SOL    HW215404  13.638  10.581   4.145
 4503SOL     OW15405   9.106   5.432   3.244
 4503SOL    HW115406   9.133   5.465   3.330
 4503SOL    HW215407   9.014   5.457   3.236
 4504SOL     OW15408   3.174   1.975  10.808
 4504SOL    HW115409   3.112   1.976  10.881
 4504SOL    HW215410   3.243   2.036  10.835
 4505SOL     OW15411  12.544  12.942   4.532
 4505SOL    HW115412  12.476  12.937   4.465
 4505SOL    HW215413  12.559  12.851   4.557
 4506SOL     OW15414   1.357  14.098   9.569
 4506SOL    HW115415   1.297  14.105   9.643
 4506SOL    HW215416   1.412  14.022   9.589
 4507SOL     OW15417   7.329   5.532   8.926
 4507SOL    HW115418   7.247   5.498   8.962
 4507SOL    HW215419   7.397   5.486   8.974
 4508SOL     OW15420   2.394   6.220   3.373
 4508SOL    HW115421   2.462   6.233   3.307
 4508SOL    HW215422   2.442   6.221   3.456
 4509SOL     OW15423  10.643  12.137  12.621
 4509SOL    HW115424  10.553  12.125  12.590
 4509SOL    HW215425  10.634  12.147  12.716
 4510SOL     OW15426  13.662   9.714   2.388
 4510SOL    HW115427  13.646   9.744   2.477
 4510SOL    HW215428  13.641   9.621   2.389
 4511SOL     OW15429   0.494  11.718   4.234
 4511SOL    HW115430   0.444  11.696   4.312
 4511SOL    HW215431   0.481  11.812   4.223
 4512SOL     OW15432   9.871   2.452  12.706
 4512SOL    HW115433   9.944   2.448  12.768
 4512SOL    HW215434   9.826   2.368  12.716
 4513SOL     OW15435   1.999   2.188   9.282
 4513SOL    HW115436   2.086   2.219   9.306
 4513SOL    HW215437   1.986   2.109   9.334
 4514SOL     OW15438   3.144   8.761   7.955
 4514SOL    HW115439   3.060   8.718   7.973
 4514SOL    HW215440   3.154   8.756   7.860
 4515SOL     OW15441   0.170   9.100   9.228
 4515SOL    HW115442   0.173   9.076   9.320
 4515SOL    HW215443   0.229   9.175   9.221
 4516SOL     OW15444  13.345   0.910  14.113
 4516SOL    HW115445  13.381   0.997  14.096
 4516SOL    HW215446  13.340   0.903  14.208
 4517SOL     OW15447  10.904   8.624  10.853
 4517SOL    HW115448  10.901   8.569  10.775
 4517SOL    HW215449  10.923   8.712  10.819
 4518SOL     OW15450   8.247   7.347  14.343
 4518SOL    HW115451   8.160   7.316  14.316
 4518SOL    HW215452   8.235   7.371  14.435
 4519SOL     OW15453   8.079   1.187   9.414
 4519SOL    HW115454   8.139   1.208   9.342
 4519SOL    HW215455   8.105   1.246   9.485
 4520SOL     OW15456   7.983   3.094  14.036
 4520SOL    HW115457   8.010   3.155  14.105
 4520SOL    HW215458   8.020   3.010  14.063
 4521SOL     OW15459   9.664   6.936  11.170
 4521SOL    HW115460   9.712   7.018  11.165
 4521SOL    HW215461   9.601   6.949  11.241
 4522SOL     OW15462  13.826  12.066   2.857
 4522SOL    HW115463  13.843  11.978   2.822
 4522SOL    HW215464  13.760  12.103   2.799
 4523SOL     OW15465   4.436   0.391  11.391
 4523SOL    HW115466   4.514   0.357  11.435
 4523SOL    HW215467   4.407   0.464  11.446
 4524SOL     OW15468   1.991   5.563   0.439
 4524SOL    HW115469   1.907   5.603   0.464
 4524SOL    HW215470   2.054   5.599   0.501
 4525SOL     OW15471   1.097  10.606   6.911
 4525SOL    HW115472   1.094  10.578   7.003
 4525SOL    HW215473   1.011  10.646   6.896
 4526SOL     OW15474   8.056  12.326  14.483
 4526SOL    HW115475   7.970  12.314  14.443
 4526SOL    HW215476   8.061  12.421  14.499
 4527SOL     OW15477  11.562  14.591  11.621
 4527SOL    HW115478  11.522  14.529  11.560
 4527SOL    HW215479  11.584  14.667  11.568
 4528SOL     OW15480  13.272  11.224   6.540
 4528SOL    HW115481  13.339  11.281   6.578
 4528SOL    HW215482  13.199  11.228   6.602
 4529SOL     OW15483   2.984   2.068   2.650
 4529SOL    HW115484   2.944   2.028   2.573
 4529SOL    HW215485   3.058   2.011   2.672
 4530SOL     OW15486   4.249  12.548   1.234
 4530SOL    HW115487   4.335  12.575   1.265
 4530SOL    HW215488   4.187  12.596   1.289
 4531SOL     OW15489  12.887  11.305   7.554
 4531SOL    HW115490  12.911  11.385   7.507
 4531SOL    HW215491  12.939  11.237   7.512
 4532SOL     OW15492  10.849  11.793   4.324
 4532SOL    HW115493  10.834  11.771   4.416
 4532SOL    HW215494  10.765  11.831   4.295
 4533SOL     OW15495   0.277   9.942   0.023
 4533SOL    HW115496   0.354   9.980   0.065
 4533SOL    HW215497   0.281   9.849   0.045
 4534SOL     OW15498  11.936   1.424   1.425
 4534SOL    HW115499  11.990   1.347   1.408
 4534SOL    HW215500  11.921   1.462   1.338
 4535SOL     OW15501   8.683   4.770   7.470
 4535SOL    HW115502   8.774   4.739   7.475
 4535SOL    HW215503   8.675   4.835   7.540
 4536SOL     OW15504   6.918   9.350   5.920
 4536SOL    HW115505   6.878   9.288   5.982
 4536SOL    HW215506   6.904   9.310   5.835
 4537SOL     OW15507   6.224   4.028  14.049
 4537SOL    HW115508   6.200   4.002  13.960
 4537SOL    HW215509   6.262   3.950  14.088
 4538SOL     OW15510  13.054  10.321   6.937
 4538SOL    HW115511  13.020  10.299   7.024
 4538SOL    HW215512  13.144  10.290   6.938
 4539SOL     OW15513   8.857   7.190  13.471
 4539SOL    HW115514   8.812   7.107  13.457
 4539SOL    HW215515   8.805   7.234  13.538
 4540SOL     OW15516   1.023  14.625   7.276
 4540SOL    HW115517   1.047  14.608   7.367
 4540SOL    HW215518   1.053  14.714   7.259
 4541SOL     OW15519   7.227  13.733   6.480
 4541SOL    HW115520   7.157  13.780   6.436
 4541SOL    HW215521   7.185  13.656   6.517
 4542SOL     OW15522   0.233  12.463   5.969
 4542SOL    HW115523   0.187  12.380   5.957
 4542SOL    HW215524   0.281  12.452   6.052
 4543SOL     OW15525   3.616  13.917  10.481
 4543SOL    HW115526   3.701  13.878  10.502
 4543SOL    HW215527   3.578  13.939  10.566
 4544SOL     OW15528  10.698   9.723   8.698
 4544SOL    HW115529  10.605   9.709   8.715
 4544SOL    HW215530  10.704   9.734   8.603
 4545SOL     OW15531  12.056   8.373  13.238
 4545SOL    HW115532  11.992   8.441  13.218
 4545SOL    HW215533  12.021   8.330  13.316
 4546SOL     OW15534   2.044   0.137  11.351
 4546SOL    HW115535   2.065   0.049  11.381
 4546SOL    HW215536   2.100   0.150  11.274
 4547SOL     OW15537   4.890  12.850   9.151
 4547SOL    HW115538   4.960  12.786   9.165
 4547SOL    HW215539   4.856  12.868   9.238
 4548SOL     OW15540   0.340   1.776  13.073
 4548SOL    HW115541   0.267   1.752  13.129
 4548SOL    HW215542   0.405   1.707  13.088
 4549SOL     OW15543  11.262   0.193  10.574
 4549SOL    HW115544  11.288   0.209  10.665
 4549SOL    HW215545  11.339   0.217  10.523
 4550SOL     OW15546   5.348   9.592   5.625
 4550SOL    HW115547   5.264   9.576   5.669
 4550SOL    HW215548   5.327   9.592   5.532
 4551SOL     OW15549   6.782  14.573   6.576
 4551SOL    HW115550   6.730  14.494   6.591
 4551SOL    HW215551   6.746  14.637   6.638
 4552SOL     OW15552   1.172   2.815   6.061
 4552SOL    HW115553   1.182   2.754   6.134
 4552SOL    HW215554   1.077   2.827   6.053
 4553SOL     OW15555  13.000  12.261   1.746
 4553SOL    HW115556  12.912  12.298   1.737
 4553SOL    HW215557  13.051  12.305   1.678
 4554SOL     OW15558  10.038   4.862  12.234
 4554SOL    HW115559  10.031   4.836  12.326
 4554SOL    HW215560  10.073   4.952  12.237
 4555SOL     OW15561  11.407   4.261   0.562
 4555SOL    HW115562  11.329   4.306   0.530
 4555SOL    HW215563  11.427   4.304   0.646
 4556SOL     OW15564  14.302   2.302  11.142
 4556SOL    HW115565  14.321   2.343  11.226
 4556SOL    HW215566  14.218   2.339  11.115
 4557SOL     OW15567   4.465   8.403   8.069
 4557SOL    HW115568   4.465   8.350   8.149
 4557SOL    HW215569   4.466   8.493   8.100
 4558SOL     OW15570   5.951  10.516  12.682
 4558SOL    HW115571   6.024  10.577  12.674
 4558SOL    HW215572   5.897  10.533  12.605
 4559SOL     OW15573  11.477   5.361   9.656
 4559SOL    HW115574  11.400   5.322   9.615
 4559SOL    HW215575  11.468   5.339   9.749
 4560SOL     OW15576  12.737  13.768   0.968
 4560SOL    HW115577  12.737  13.835   0.900
 4560SOL    HW215578  12.714  13.687   0.922
 4561SOL     OW15579   2.464   5.057   0.535
 4561SOL    HW115580   2.499   4.968   0.530
 4561SOL    HW215581   2.513   5.106   0.469
 4562SOL     OW15582   4.081  12.875   0.066
 4562SOL    HW115583   4.014  12.827   0.115
 4562SOL    HW215584   4.034  12.910  14.869
 4563SOL     OW15585  14.824   2.572  13.454
 4563SOL    HW115586  14.852   2.602  13.367
 4563SOL    HW215587   0.027   2.556  13.501
 4564SOL     OW15588   7.755   4.074  11.749
 4564SOL    HW115589   7.744   4.063  11.654
 4564SOL    HW215590   7.836   4.028  11.769
 4565SOL     OW15591   9.156   3.686  13.269
 4565SOL    HW115592   9.183   3.776  13.255
 4565SOL    HW215593   9.211   3.635  13.209
 4566SOL     OW15594  10.479   4.722  11.305
 4566SOL    HW115595  10.447   4.759  11.387
 4566SOL    HW215596  10.557   4.773  11.284
 4567SOL     OW15597  11.225   9.308   2.829
 4567SOL    HW115598  11.171   9.284   2.753
 4567SOL    HW215599  11.161   9.322   2.900
 4568SOL     OW15600  10.808   0.044  12.605
 4568SOL    HW115601  10.790   0.138  12.599
 4568SOL    HW215602  10.851   0.033  12.690
 4569SOL     OW15603   9.740   5.980   6.344
 4569SOL    HW115604   9.685   5.944   6.275
 4569SOL    HW215605   9.824   5.935   6.334
 4570SOL     OW15606  10.776  10.124  10.989
 4570SOL    HW115607  10.820  10.057  11.041
 4570SOL    HW215608  10.835  10.139  10.915
 4571SOL     OW15609   4.082   9.486   2.526
 4571SOL    HW115610   4.148   9.417   2.519
 4571SOL    HW215611   4.005   9.442   2.563
 4572SOL     OW15612   5.686   8.439   4.438
 4572SOL    HW115613   5.717   8.528   4.422
 4572SOL    HW215614   5.763   8.384   4.423
 4573SOL     OW15615  14.122   1.934   1.650
 4573SOL    HW115616  14.110   2.029   1.652
 4573SOL    HW215617  14.120   1.911   1.557
 4574SOL     OW15618   0.345   6.818   9.988
 4574SOL    HW115619   0.324   6.816   9.894
 4574SOL    HW215620   0.429   6.773   9.995
 4575SOL     OW15621   0.075   4.245   8.932
 4575SOL    HW115622   0.139   4.200   8.876
 4575SOL    HW215623   0.123   4.320   8.966
 4576SOL     OW15624  14.006  14.600   4.191
 4576SOL    HW115625  14.056  14.682   4.197
 4576SOL    HW215626  14.061  14.536   4.235
 4577SOL     OW15627   2.789  12.114   0.052
 4577SOL    HW115628   2.814  12.187   0.108
 4577SOL    HW215629   2.864  12.056   0.052
 4578SOL     OW15630  13.692   2.227   5.575
 4578SOL    HW115631  13.656   2.180   5.650
 4578SOL    HW215632  13.646   2.190   5.500
 4579SOL     OW15633   9.909   8.855  10.623
 4579SOL    HW115634   9.902   8.760  10.612
 4579SOL    HW215635   9.931   8.867  10.715
 4580SOL     OW15636   2.647   0.464   7.517
 4580SOL    HW115637   2.711   0.449   7.446
 4580SOL    HW215638   2.701   0.480   7.594
 4581SOL     OW15639   0.984   0.404   8.904
 4581SOL    HW115640   1.053   0.461   8.938
 4581SOL    HW215641   1.014   0.380   8.816
 4582SOL     OW15642  11.620   2.589  12.268
 4582SOL    HW115643  11.540   2.581  12.216
 4582SOL    HW215644  11.617   2.679  12.303
 4583SOL     OW15645   9.890   7.361   4.859
 4583SOL    HW115646   9.911   7.451   4.834
 4583SOL    HW215647   9.808   7.343   4.813
 4584SOL     OW15648   7.035   0.920   2.762
 4584SOL    HW115649   7.055   1.013   2.752
 4584SOL    HW215650   7.107   0.875   2.719
 4585SOL     OW15651   0.453   3.546   4.203
 4585SOL    HW115652   0.484   3.596   4.128
 4585SOL    HW215653   0.512   3.570   4.275
 4586SOL     OW15654  10.777   0.034   3.753
 4586SOL    HW115655  10.789  14.819   3.756
 4586SOL    HW215656  10.705   0.047   3.692
 4587SOL     OW15657   5.951  13.903  10.191
 4587SOL    HW115658   5.858  13.925  10.188
 4587SOL    HW215659   5.959  13.824  10.137
 4588SOL     OW15660   9.458   7.943   2.855
 4588SOL    HW115661   9.377   7.974   2.814
 4588SOL    HW215662   9.514   8.021   2.858
 4589SOL     OW15663   2.185   8.023  10.173
 4589SOL    HW115664   2.119   8.089  10.154
 4589SOL    HW215665   2.260   8.072  10.206
 4590SOL     OW15666   3.423  11.193   8.624
 4590SOL    HW115667   3.397  11.122   8.565
 4590SOL    HW215668   3.355  11.260   8.612
 4591SOL     OW15669  11.978   1.892   9.951
 4591SOL    HW115670  11.952   1.818  10.006
 4591SOL    HW215671  11.998   1.852   9.866
 4592SOL     OW15672   8.667  11.615  14.051
 4592SOL    HW115673   8.728  11.684  14.026
 4592SOL    HW215674   8.710  11.534  14.026
 4593SOL     OW15675   8.753   5.404  14.592
 4593SOL    HW115676   8.791   5.336  14.535
 4593SOL    HW215677   8.817   5.475  14.589
 4594SOL     OW15678   6.634  13.988   0.267
 4594SOL    HW115679   6.561  13.951   0.217
 4594SOL    HW215680   6.663  14.063   0.216
 4595SOL     OW15681   0.012   3.581   2.543
 4595SOL    HW115682   0.074   3.569   2.470
 4595SOL    HW215683   0.049   3.528   2.614
 4596SOL     OW15684   9.425   6.130  11.955
 4596SOL    HW115685   9.439   6.216  11.995
 4596SOL    HW215686   9.414   6.070  12.029
 4597SOL     OW15687  13.990  14.070   2.951
 4597SOL    HW115688  14.001  13.997   3.012
 4597SOL    HW215689  13.896  14.087   2.951
 4598SOL     OW15690   2.807  10.634   2.211
 4598SOL    HW115691   2.763  10.697   2.154
 4598SOL    HW215692   2.804  10.674   2.298
 4599SOL     OW15693   5.627  14.698   7.160
 4599SOL    HW115694   5.565  14.738   7.099
 4599SOL    HW215695   5.674  14.633   7.107
 4600SOL     OW15696  11.988   7.386  11.317
 4600SOL    HW115697  11.894   7.399  11.322
 4600SOL    HW215698  12.000   7.292  11.326
 4601SOL     OW15699  14.311  10.888   8.533
 4601SOL    HW115700  14.386  10.941   8.559
 4601SOL    HW215701  14.324  10.804   8.577
 4602SOL     OW15702  12.092   3.378   9.206
 4602SOL    HW115703  12.076   3.470   9.225
 4602SOL    HW215704  12.009   3.347   9.169
 4603SOL     OW15705   3.208  14.823  13.184
 4603SOL    HW115706   3.143  14.812  13.114
 4603SOL    HW215707   3.170   0.009  13.242
 4604SOL     OW15708   3.335   4.447  10.720
 4604SOL    HW115709   3.262   4.503  10.743
 4604SOL    HW215710   3.376   4.425  10.804
 4605SOL     OW15711   4.922   0.580   7.323
 4605SOL    HW115712   4.851   0.517   7.310
 4605SOL    HW215713   4.901   0.622   7.407
 4606SOL     OW15714  14.361   3.612   6.803
 4606SOL    HW115715  14.391   3.660   6.880
 4606SOL    HW215716  14.354   3.521   6.832
 4607SOL     OW15717   4.437  10.046   9.756
 4607SOL    HW115718   4.382  10.009   9.826
 4607SOL    HW215719   4.374  10.079   9.691
 4608SOL     OW15720   5.809   2.513  12.507
 4608SOL    HW115721   5.874   2.488  12.442
 4608SOL    HW215722   5.837   2.599  12.537
 4609SOL     OW15723   9.104   3.115   7.423
 4609SOL    HW115724   9.071   3.205   7.425
 4609SOL    HW215725   9.128   3.097   7.514
 4610SOL     OW15726  11.951   7.690   4.177
 4610SOL    HW115727  11.858   7.710   4.185
 4610SOL    HW215728  11.991   7.772   4.148
 4611SOL     OW15729   2.326   9.093  10.710
 4611SOL    HW115730   2.412   9.126  10.734
 4611SOL    HW215731   2.265   9.160  10.741
 4612SOL     OW15732   6.199   0.060  10.443
 4612SOL    HW115733   6.170   0.149  10.425
 4612SOL    HW215734   6.289   0.057  10.410
 4613SOL     OW15735   3.828  14.597  12.064
 4613SOL    HW115736   3.734  14.582  12.052
 4613SOL    HW215737   3.839  14.603  12.159
 4614SOL     OW15738  10.307  11.823   9.985
 4614SOL    HW115739  10.329  11.806   9.893
 4614SOL    HW215740  10.380  11.874  10.018
 4615SOL     OW15741   2.858   8.706   4.862
 4615SOL    HW115742   2.901   8.770   4.806
 4615SOL    HW215743   2.774   8.747   4.884
 4616SOL     OW15744   6.837  11.752   8.170
 4616SOL    HW115745   6.835  11.841   8.137
 4616SOL    HW215746   6.814  11.697   8.094
 4617SOL     OW15747  13.180   6.372  13.837
 4617SOL    HW115748  13.257   6.364  13.780
 4617SOL    HW215749  13.216   6.370  13.926
 4618SOL     OW15750  11.217   4.637   7.550
 4618SOL    HW115751  11.196   4.670   7.637
 4618SOL    HW215752  11.311   4.651   7.542
 4619SOL     OW15753  14.680   5.242  11.328
 4619SOL    HW115754  14.758   5.247  11.274
 4619SOL    HW215755  14.631   5.322  11.307
 4620SOL     OW15756   2.748   1.337   1.777
 4620SOL    HW115757   2.723   1.252   1.740
 4620SOL    HW215758   2.828   1.319   1.827
 4621SOL     OW15759   5.010   5.198   0.277
 4621SOL    HW115760   5.092   5.187   0.326
 4621SOL    HW215761   5.028   5.159   0.191
 4622SOL     OW15762  13.995  14.000   5.300
 4622SOL    HW115763  14.019  13.990   5.208
 4622SOL    HW215764  14.067  13.958   5.348
 4623SOL     OW15765   4.753  10.871   1.850
 4623SOL    HW115766   4.763  10.939   1.783
 4623SOL    HW215767   4.824  10.809   1.831
 4624SOL     OW15768  14.236  14.079   7.217
 4624SOL    HW115769  14.216  14.031   7.136
 4624SOL    HW215770  14.270  14.164   7.187
 4625SOL     OW15771  11.308   5.354   0.617
 4625SOL    HW115772  11.298   5.393   0.703
 4625SOL    HW215773  11.384   5.397   0.579
 4626SOL     OW15774   8.710   8.479   4.739
 4626SOL    HW115775   8.689   8.393   4.702
 4626SOL    HW215776   8.675   8.476   4.828
 4627SOL     OW15777   7.164   6.725   1.323
 4627SOL    HW115778   7.100   6.794   1.301
 4627SOL    HW215779   7.163   6.666   1.248
 4628SOL     OW15780   9.763  14.002   3.105
 4628SOL    HW115781   9.669  14.001   3.087
 4628SOL    HW215782   9.774  14.068   3.174
 4629SOL     OW15783  10.335   2.074   4.679
 4629SOL    HW115784  10.363   2.164   4.663
 4629SOL    HW215785  10.411   2.021   4.657
 4630SOL     OW15786  13.358  11.267  10.900
 4630SOL    HW115787  13.337  11.200  10.835
 4630SOL    HW215788  13.299  11.249  10.973
 4631SOL     OW15789   3.390   3.906  13.565
 4631SOL    HW115790   3.355   3.984  13.607
 4631SOL    HW215791   3.482   3.904  13.591
 4632SOL     OW15792   8.273  11.718  13.089
 4632SOL    HW115793   8.267  11.623  13.080
 4632SOL    HW215794   8.194  11.751  13.047
 4633SOL     OW15795   6.281   0.542   7.534
 4633SOL    HW115796   6.224   0.614   7.504
 4633SOL    HW215797   6.363   0.555   7.486
 4634SOL     OW15798   5.638  13.322   7.408
 4634SOL    HW115799   5.713  13.274   7.373
 4634SOL    HW215800   5.617  13.386   7.340
 4635SOL     OW15801  13.087   6.334  11.622
 4635SOL    HW115802  13.040   6.349  11.540
 4635SOL    HW215803  13.066   6.244  11.646
 4636SOL     OW15804   7.873   2.603  14.681
 4636SOL    HW115805   7.835   2.659  14.614
 4636SOL    HW215806   7.959   2.642  14.699
 4637SOL     OW15807  12.491   0.124   6.971
 4637SOL    HW115808  12.428   0.178   6.923
 4637SOL    HW215809  12.445   0.041   6.985
 4638SOL     OW15810   0.145   8.155   6.754
 4638SOL    HW115811   0.158   8.200   6.671
 4638SOL    HW215812   0.050   8.152   6.765
 4639SOL     OW15813  11.969  11.575   1.138
 4639SOL    HW115814  11.951  11.599   1.047
 4639SOL    HW215815  11.936  11.486   1.147
 4640SOL     OW15816  13.495   6.296  12.548
 4640SOL    HW115817  13.516   6.331  12.635
 4640SOL    HW215818  13.566   6.326  12.492
 4641SOL     OW15819  13.249   6.226   1.717
 4641SOL    HW115820  13.203   6.212   1.635
 4641SOL    HW215821  13.341   6.207   1.697
 4642SOL     OW15822   2.732   0.634  12.907
 4642SOL    HW115823   2.728   0.729  12.917
 4642SOL    HW215824   2.642   0.605  12.919
 4643SOL     OW15825  14.470   3.727   5.555
 4643SOL    HW115826  14.379   3.748   5.532
 4643SOL    HW215827  14.522   3.764   5.484
 4644SOL     OW15828   4.708  14.586   2.261
 4644SOL    HW115829   4.765  14.619   2.192
 4644SOL    HW215830   4.757  14.601   2.342
 4645SOL     OW15831   9.472   4.693   4.401
 4645SOL    HW115832   9.378   4.675   4.392
 4645SOL    HW215833   9.477   4.774   4.451
 4646SOL     OW15834   6.865  12.107   8.739
 4646SOL    HW115835   6.888  12.067   8.823
 4646SOL    HW215836   6.925  12.181   8.731
 4647SOL     OW15837   6.231  13.219   6.707
 4647SOL    HW115838   6.199  13.261   6.787
 4647SOL    HW215839   6.186  13.134   6.705
 4648SOL     OW15840  13.176   3.141   2.840
 4648SOL    HW115841  13.145   3.082   2.771
 4648SOL    HW215842  13.269   3.152   2.822
 4649SOL     OW15843   2.813   5.858   5.787
 4649SOL    HW115844   2.749   5.809   5.736
 4649SOL    HW215845   2.896   5.814   5.770
 4650SOL     OW15846   9.379   3.340  12.182
 4650SOL    HW115847   9.329   3.398  12.124
 4650SOL    HW215848   9.391   3.259  12.131
 4651SOL     OW15849  10.410  10.312   1.744
 4651SOL    HW115850  10.504  10.330   1.733
 4651SOL    HW215851  10.392  10.243   1.679
 4652SOL     OW15852  13.881  14.682   3.827
 4652SOL    HW115853  13.869  14.651   3.737
 4652SOL    HW215854  13.864  14.605   3.881
 4653SOL     OW15855  13.160   3.736   5.349
 4653SOL    HW115856  13.086   3.740   5.289
 4653SOL    HW215857  13.191   3.646   5.343
 4654SOL     OW15858   8.145   9.381   2.296
 4654SOL    HW115859   8.094   9.342   2.367
 4654SOL    HW215860   8.136   9.476   2.310
 4655SOL     OW15861   2.953   6.297   8.758
 4655SOL    HW115862   2.881   6.359   8.749
 4655SOL    HW215863   3.032   6.349   8.740
 4656SOL     OW15864   3.058   5.341   2.554
 4656SOL    HW115865   3.066   5.246   2.554
 4656SOL    HW215866   3.029   5.363   2.465
 4657SOL     OW15867  13.115  10.466  11.513
 4657SOL    HW115868  13.108  10.459  11.608
 4657SOL    HW215869  13.208  10.456  11.495
 4658SOL     OW15870   8.350   7.982   7.700
 4658SOL    HW115871   8.339   7.892   7.669
 4658SOL    HW215872   8.435   8.009   7.666
 4659SOL     OW15873   7.062   3.353   7.888
 4659SOL    HW115874   7.067   3.323   7.797
 4659SOL    HW215875   7.148   3.392   7.905
 4660SOL     OW15876   4.840   4.344  14.081
 4660SOL    HW115877   4.917   4.398  14.067
 4660SOL    HW215878   4.854   4.268  14.024
 4661SOL     OW15879  14.875  12.002   8.818
 4661SOL    HW115880   0.040  12.072   8.770
 4661SOL    HW215881   0.062  11.936   8.833
 4662SOL     OW15882   6.669   6.507  13.613
 4662SOL    HW115883   6.698   6.593  13.645
 4662SOL    HW215884   6.686   6.448  13.686
 4663SOL     OW15885  10.573   7.859   0.033
 4663SOL    HW115886  10.640   7.899   0.087
 4663SOL    HW215887  10.507   7.827   0.095
 4664SOL     OW15888   7.235  10.686  12.902
 4664SOL    HW115889   7.161  10.626  12.905
 4664SOL    HW215890   7.237  10.727  12.988
 4665SOL     OW15891  14.516   5.633   6.279
 4665SOL    HW115892  14.528   5.538   6.288
 4665SOL    HW215893  14.593   5.671   6.322
 4666SOL     OW15894  12.357  13.989   8.648
 4666SOL    HW115895  12.353  14.070   8.699
 4666SOL    HW215896  12.391  14.016   8.563
 4667SOL     OW15897   5.847   4.842   1.050
 4667SOL    HW115898   5.822   4.799   0.968
 4667SOL    HW215899   5.857   4.934   1.027
 4668SOL     OW15900   5.885  10.903   1.718
 4668SOL    HW115901   5.879  10.997   1.701
 4668SOL    HW215902   5.963  10.894   1.771
 4669SOL     OW15903   0.365   4.492  14.524
 4669SOL    HW115904   0.426   4.556  14.487
 4669SOL    HW215905   0.393   4.482  14.615
 4670SOL     OW15906  10.594   8.289   5.484
 4670SOL    HW115907  10.516   8.265   5.533
 4670SOL    HW215908  10.659   8.308   5.552
 4671SOL     OW15909   5.236   7.942   9.135
 4671SOL    HW115910   5.158   7.922   9.083
 4671SOL    HW215911   5.212   8.020   9.185
 4672SOL     OW15912   9.569   6.407   3.329
 4672SOL    HW115913   9.516   6.335   3.293
 4672SOL    HW215914   9.537   6.417   3.419
 4673SOL     OW15915  14.392   4.968   1.513
 4673SOL    HW115916  14.486   4.962   1.500
 4673SOL    HW215917  14.356   4.893   1.465
 4674SOL     OW15918  10.914  10.729   9.254
 4674SOL    HW115919  10.971  10.768   9.320
 4674SOL    HW215920  10.868  10.803   9.215
 4675SOL     OW15921   4.142  12.904  14.354
 4675SOL    HW115922   4.214  12.900  14.417
 4675SOL    HW215923   4.184  12.931  14.272
 4676SOL     OW15924  10.263  11.116   0.461
 4676SOL    HW115925  10.297  11.143   0.547
 4676SOL    HW215926  10.213  11.192   0.431
 4677SOL     OW15927  13.542   0.205   3.687
 4677SOL    HW115928  13.480   0.140   3.654
 4677SOL    HW215929  13.616   0.154   3.719
 4678SOL     OW15930   5.332   8.797  14.880
 4678SOL    HW115931   5.347   8.729   0.065
 4678SOL    HW215932   5.320   8.877   0.051
 4679SOL     OW15933   1.240   1.540  11.128
 4679SOL    HW115934   1.176   1.470  11.115
 4679SOL    HW215935   1.245   1.585  11.044
 4680SOL     OW15936   2.398  14.492   2.529
 4680SOL    HW115937   2.472  14.524   2.581
 4680SOL    HW215938   2.345  14.570   2.511
 4681SOL     OW15939  12.161  14.688   4.941
 4681SOL    HW115940  12.235  14.657   4.889
 4681SOL    HW215941  12.201  14.732   5.016
 4682SOL     OW15942   8.527  12.154   2.597
 4682SOL    HW115943   8.531  12.177   2.504
 4682SOL    HW215944   8.605  12.100   2.611
 4683SOL     OW15945  14.059   2.516   2.164
 4683SOL    HW115946  14.055   2.544   2.072
 4683SOL    HW215947  14.052   2.421   2.160
 4684SOL     OW15948  14.005  11.218   8.006
 4684SOL    HW115949  13.968  11.169   7.932
 4684SOL    HW215950  13.931  11.230   8.066
 4685SOL     OW15951  11.667   9.598  10.420
 4685SOL    HW115952  11.639   9.677  10.373
 4685SOL    HW215953  11.703   9.630  10.503
 4686SOL     OW15954  13.357  12.478   5.419
 4686SOL    HW115955  13.341  12.569   5.443
 4686SOL    HW215956  13.269  12.443   5.402
 4687SOL     OW15957  10.207   4.519  10.197
 4687SOL    HW115958  10.282   4.507  10.255
 4687SOL    HW215959  10.245   4.518  10.109
 4688SOL     OW15960   3.690   9.863   5.872
 4688SOL    HW115961   3.651   9.938   5.917
 4688SOL    HW215962   3.780   9.891   5.854
 4689SOL     OW15963  13.422   5.769   8.270
 4689SOL    HW115964  13.396   5.786   8.361
 4689SOL    HW215965  13.476   5.690   8.276
 4690SOL     OW15966   9.207   4.581   9.116
 4690SOL    HW115967   9.266   4.518   9.156
 4690SOL    HW215968   9.259   4.661   9.107
 4691SOL     OW15969   2.879   5.489  11.528
 4691SOL    HW115970   2.907   5.575  11.495
 4691SOL    HW215971   2.878   5.432  11.451
 4692SOL     OW15972   9.434   0.346  11.300
 4692SOL    HW115973   9.500   0.409  11.328
 4692SOL    HW215974   9.385   0.325  11.380
 4693SOL     OW15975  14.868   9.991   4.118
 4693SOL    HW115976  14.797  10.043   4.080
 4693SOL    HW215977   0.026   9.944   4.044
 4694SOL     OW15978   2.263   3.618   5.600
 4694SOL    HW115979   2.204   3.590   5.530
 4694SOL    HW215980   2.218   3.592   5.681
 4695SOL     OW15981   5.652   1.669   6.649
 4695SOL    HW115982   5.598   1.675   6.571
 4695SOL    HW215983   5.590   1.652   6.720
 4696SOL     OW15984  10.969   4.406   8.659
 4696SOL    HW115985  10.980   4.500   8.674
 4696SOL    HW215986  10.920   4.400   8.578
 4697SOL     OW15987   0.258   5.998   5.262
 4697SOL    HW115988   0.290   5.908   5.268
 4697SOL    HW215989   0.231   6.008   5.171
 4698SOL     OW15990   9.708   6.704   6.751
 4698SOL    HW115991   9.775   6.764   6.719
 4698SOL    HW215992   9.641   6.704   6.683
 4699SOL     OW15993   6.822   9.992   9.058
 4699SOL    HW115994   6.850  10.051   9.128
 4699SOL    HW215995   6.760   9.932   9.099
 4700SOL     OW15996   1.292  12.901   7.857
 4700SOL    HW115997   1.260  12.942   7.938
 4700SOL    HW215998   1.387  12.902   7.866
 4701SOL     OW15999  12.313  14.045   2.780
 4701SOL    HW116000  12.248  13.986   2.818
 4701SOL    HW216001  12.380  13.987   2.745
 4702SOL     OW16002   1.681   7.139  10.884
 4702SOL    HW116003   1.602   7.086  10.877
 4702SOL    HW216004   1.749   7.088  10.840
 4703SOL     OW16005   7.318  14.536   1.339
 4703SOL    HW116006   7.274  14.612   1.377
 4703SOL    HW216007   7.311  14.550   1.244
 4704SOL     OW16008   3.761  10.574   0.773
 4704SOL    HW116009   3.769  10.485   0.739
 4704SOL    HW216010   3.800  10.571   0.860
 4705SOL     OW16011  13.848   6.704  11.141
 4705SOL    HW116012  13.836   6.613  11.114
 4705SOL    HW216013  13.850   6.701  11.237
 4706SOL     OW16014   0.647   2.075   0.360
 4706SOL    HW116015   0.634   2.157   0.312
 4706SOL    HW216016   0.703   2.023   0.303
 4707SOL     OW16017   5.398   9.837   1.591
 4707SOL    HW116018   5.410   9.742   1.598
 4707SOL    HW216019   5.453   9.874   1.660
 4708SOL     OW16020  13.819   7.969  10.200
 4708SOL    HW116021  13.801   8.022  10.278
 4708SOL    HW216022  13.876   7.898  10.232
 4709SOL     OW16023   9.564   1.146   7.901
 4709SOL    HW116024   9.637   1.109   7.852
 4709SOL    HW216025   9.533   1.219   7.847
 4710SOL     OW16026  11.036   2.196   9.655
 4710SOL    HW116027  10.958   2.161   9.699
 4710SOL    HW216028  11.030   2.162   9.565
 4711SOL     OW16029   5.417  14.474  11.155
 4711SOL    HW116030   5.433  14.424  11.235
 4711SOL    HW216031   5.504  14.495  11.121
 4712SOL     OW16032   3.531   6.777   2.302
 4712SOL    HW116033   3.627   6.770   2.308
 4712SOL    HW216034   3.498   6.707   2.359
 4713SOL     OW16035  10.554   7.656  12.123
 4713SOL    HW116036  10.471   7.695  12.094
 4713SOL    HW216037  10.572   7.588  12.057
 4714SOL     OW16038   5.400   8.141   2.705
 4714SOL    HW116039   5.339   8.134   2.631
 4714SOL    HW216040   5.349   8.181   2.775
 4715SOL     OW16041   2.002  13.895  12.181
 4715SOL    HW116042   2.090  13.901  12.217
 4715SOL    HW216043   2.010  13.833  12.109
 4716SOL     OW16044   0.883   4.263  12.993
 4716SOL    HW116045   0.897   4.346  12.947
 4716SOL    HW216046   0.921   4.197  12.934
 4717SOL     OW16047   2.898  13.850   0.845
 4717SOL    HW116048   2.964  13.780   0.848
 4717SOL    HW216049   2.829  13.815   0.789
 4718SOL     OW16050   5.125   6.174  13.815
 4718SOL    HW116051   5.189   6.114  13.778
 4718SOL    HW216052   5.167   6.207  13.895
 4719SOL     OW16053  11.452   2.396   7.521
 4719SOL    HW116054  11.492   2.482   7.508
 4719SOL    HW216055  11.524   2.341   7.550
 4720SOL     OW16056  11.079   3.661  11.062
 4720SOL    HW116057  11.148   3.595  11.066
 4720SOL    HW216058  11.031   3.640  10.982
 4721SOL     OW16059   6.983   9.759   0.612
 4721SOL    HW116060   6.976   9.782   0.520
 4721SOL    HW216061   6.924   9.685   0.623
 4722SOL     OW16062   9.697   3.346  11.628
 4722SOL    HW116063   9.735   3.427  11.665
 4722SOL    HW216064   9.724   3.347  11.536
 4723SOL     OW16065   8.152   8.994  11.601
 4723SOL    HW116066   8.234   9.021  11.641
 4723SOL    HW216067   8.093   8.979  11.675
 4724SOL     OW16068   5.477   6.889   2.739
 4724SOL    HW116069   5.537   6.815   2.737
 4724SOL    HW216070   5.533   6.964   2.762
 4725SOL     OW16071   6.107   4.798   0.437
 4725SOL    HW116072   6.152   4.843   0.366
 4725SOL    HW216073   6.173   4.737   0.472
 4726SOL     OW16074  13.615   1.259  14.341
 4726SOL    HW116075  13.587   1.340  14.384
 4726SOL    HW216076  13.636   1.286  14.252
 4727SOL     OW16077   7.666   5.704   7.608
 4727SOL    HW116078   7.603   5.676   7.541
 4727SOL    HW216079   7.695   5.791   7.578
 4728SOL     OW16080   2.230   8.241  11.590
 4728SOL    HW116081   2.248   8.150  11.565
 4728SOL    HW216082   2.201   8.235  11.681
 4729SOL     OW16083   2.698   8.908  13.117
 4729SOL    HW116084   2.685   8.813  13.121
 4729SOL    HW216085   2.627   8.939  13.061
 4730SOL     OW16086   3.763   3.675  10.518
 4730SOL    HW116087   3.684   3.626  10.543
 4730SOL    HW216088   3.830   3.608  10.508
 4731SOL     OW16089  13.706   3.919  10.000
 4731SOL    HW116090  13.675   3.918  10.090
 4731SOL    HW216091  13.801   3.930  10.007
 4732SOL     OW16092   7.677   1.391  14.071
 4732SOL    HW116093   7.639   1.305  14.052
 4732SOL    HW216094   7.620   1.428  14.139
 4733SOL     OW16095  11.011   8.470   4.348
 4733SOL    HW116096  10.965   8.512   4.276
 4733SOL    HW216097  11.010   8.377   4.326
 4734SOL     OW16098   6.377   6.815  11.398
 4734SOL    HW116099   6.349   6.870  11.324
 4734SOL    HW216100   6.450   6.863  11.437
 4735SOL     OW16101  13.502   3.783   0.688
 4735SOL    HW116102  13.478   3.704   0.735
 4735SOL    HW216103  13.458   3.775   0.603
 4736SOL     OW16104   6.675   1.552  11.641
 4736SOL    HW116105   6.591   1.595  11.626
 4736SOL    HW216106   6.669   1.470  11.592
 4737SOL     OW16107   2.262  10.456   8.735
 4737SOL    HW116108   2.235  10.485   8.648
 4737SOL    HW216109   2.190  10.482   8.792
 4738SOL     OW16110   9.963   9.586  12.135
 4738SOL    HW116111  10.043   9.634  12.156
 4738SOL    HW216112   9.991   9.495  12.126
 4739SOL     OW16113  14.484  14.820  13.499
 4739SOL    HW116114  14.531  14.739  13.518
 4739SOL    HW216115  14.444  14.844  13.582
 4740SOL     OW16116   7.883   6.956  10.768
 4740SOL    HW116117   7.958   6.986  10.717
 4740SOL    HW216118   7.921   6.905  10.839
 4741SOL     OW16119   7.799   0.766   7.330
 4741SOL    HW116120   7.750   0.809   7.260
 4741SOL    HW216121   7.835   0.688   7.289
 4742SOL     OW16122   8.094  14.781  13.307
 4742SOL    HW116123   8.009  14.740  13.319
 4742SOL    HW216124   8.077  14.858  13.253
 4743SOL     OW16125  13.971   9.972   6.847
 4743SOL    HW116126  13.972   9.883   6.810
 4743SOL    HW216127  14.049  10.013   6.810
 4744SOL     OW16128  13.419  10.644   9.092
 4744SOL    HW116129  13.513  10.657   9.079
 4744SOL    HW216130  13.383  10.732   9.104
 4745SOL     OW16131   4.291   6.727  14.870
 4745SOL    HW116132   4.376   6.769   0.006
 4745SOL    HW216133   4.271   6.746  14.779
 4746SOL     OW16134  11.891   5.645  13.490
 4746SOL    HW116135  11.807   5.616  13.453
 4746SOL    HW216136  11.879   5.738  13.506
 4747SOL     OW16137  14.056   1.562  12.309
 4747SOL    HW116138  13.995   1.635  12.303
 4747SOL    HW216139  14.002   1.484  12.292
 4748SOL     OW16140   6.942   4.338  14.498
 4748SOL    HW116141   6.949   4.256  14.545
 4748SOL    HW216142   6.903   4.399  14.561
 4749SOL     OW16143  13.643   1.957   4.311
 4749SOL    HW116144  13.603   1.986   4.229
 4749SOL    HW216145  13.594   1.879   4.336
 4750SOL     OW16146  14.225   5.023   8.008
 4750SOL    HW116147  14.251   4.932   8.025
 4750SOL    HW216148  14.131   5.018   7.988
 4751SOL     OW16149   5.786   9.492   9.842
 4751SOL    HW116150   5.843   9.428   9.885
 4751SOL    HW216151   5.731   9.439   9.784
 4752SOL     OW16152  11.595   0.711   7.939
 4752SOL    HW116153  11.507   0.748   7.939
 4752SOL    HW216154  11.642   0.760   8.006
 4753SOL     OW16155   5.937   7.139  13.499
 4753SOL    HW116156   5.882   7.200  13.548
 4753SOL    HW216157   5.964   7.073  13.563
 4754SOL     OW16158  10.005   7.379   2.729
 4754SOL    HW116159   9.935   7.318   2.750
 4754SOL    HW216160   9.961   7.454   2.688
 4755SOL     OW16161   3.215   1.914  14.423
 4755SOL    HW116162   3.199   2.002  14.457
 4755SOL    HW216163   3.213   1.925  14.328
 4756SOL     OW16164   4.576   6.508  13.867
 4756SOL    HW116165   4.570   6.457  13.786
 4756SOL    HW216166   4.624   6.451  13.928
 4757SOL     OW16167  12.675  12.026   9.753
 4757SOL    HW116168  12.728  11.946   9.764
 4757SOL    HW216169  12.702  12.083   9.825
 4758SOL     OW16170  11.070   3.023   5.994
 4758SOL    HW116171  11.125   3.101   6.000
 4758SOL    HW216172  11.124   2.960   5.946
 4759SOL     OW16173   4.649  14.115   7.228
 4759SOL    HW116174   4.693  14.040   7.187
 4759SOL    HW216175   4.617  14.081   7.311
 4760SOL     OW16176   1.479   2.378  14.392
 4760SOL    HW116177   1.428   2.452  14.360
 4760SOL    HW216178   1.496   2.398  14.484
 4761SOL     OW16179   9.840  11.467   0.721
 4761SOL    HW116180   9.875  11.502   0.638
 4761SOL    HW216181   9.917  11.432   0.766
 4762SOL     OW16182   9.869   8.816   3.999
 4762SOL    HW116183   9.925   8.753   4.045
 4762SOL    HW216184   9.909   8.823   3.912
 4763SOL     OW16185   3.221   8.087   3.741
 4763SOL    HW116186   3.197   8.067   3.831
 4763SOL    HW216187   3.193   8.011   3.691
 4764SOL     OW16188   3.537  13.916  12.079
 4764SOL    HW116189   3.620  13.873  12.057
 4764SOL    HW216190   3.474  13.845  12.085
 4765SOL     OW16191  14.432   6.458   3.524
 4765SOL    HW116192  14.388   6.414   3.596
 4765SOL    HW216193  14.523   6.465   3.552
 4766SOL     OW16194   0.265   2.238  12.923
 4766SOL    HW116195   0.205   2.284  12.981
 4766SOL    HW216196   0.216   2.162  12.893
 4767SOL     OW16197   7.472  13.533   1.971
 4767SOL    HW116198   7.378  13.522   1.984
 4767SOL    HW216199   7.487  13.509   1.880
 4768SOL     OW16200   5.548   9.514  10.768
 4768SOL    HW116201   5.606   9.504  10.843
 4768SOL    HW216202   5.554   9.431  10.722
 4769SOL     OW16203  11.617  12.513   3.429
 4769SOL    HW116204  11.580  12.480   3.347
 4769SOL    HW216205  11.711  12.516   3.413
 4770SOL     OW16206   7.008   2.660   5.827
 4770SOL    HW116207   7.086   2.698   5.787
 4770SOL    HW216208   6.965   2.613   5.755
 4771SOL     OW16209   6.854   7.045   9.883
 4771SOL    HW116210   6.923   6.991   9.846
 4771SOL    HW216211   6.890   7.134   9.884
 4772SOL     OW16212   3.994   9.909   3.195
 4772SOL    HW116213   3.999   9.871   3.282
 4772SOL    HW216214   4.082   9.895   3.158
 4773SOL     OW16215   0.088  10.598   9.130
 4773SOL    HW116216   0.083  10.538   9.204
 4773SOL    HW216217   0.171  10.577   9.087
 4774SOL     OW16218   4.525  11.933   2.156
 4774SOL    HW116219   4.560  11.885   2.231
 4774SOL    HW216220   4.516  12.024   2.187
 4775SOL     OW16221  13.416   7.364  11.594
 4775SOL    HW116222  13.474   7.290  11.612
 4775SOL    HW216223  13.334   7.324  11.566
 4776SOL     OW16224  12.574   9.420   1.753
 4776SOL    HW116225  12.640   9.368   1.797
 4776SOL    HW216226  12.534   9.473   1.822
 4777SOL     OW16227  14.450  12.895   1.707
 4777SOL    HW116228  14.532  12.940   1.732
 4777SOL    HW216229  14.470  12.802   1.718
 4778SOL     OW16230   2.339   4.334   7.827
 4778SOL    HW116231   2.265   4.367   7.879
 4778SOL    HW216232   2.342   4.240   7.847
 4779SOL     OW16233  14.392   8.447  10.562
 4779SOL    HW116234  14.327   8.419  10.497
 4779SOL    HW216235  14.341   8.487  10.632
 4780SOL     OW16236   7.742  10.438   2.153
 4780SOL    HW116237   7.779  10.495   2.221
 4780SOL    HW216238   7.754  10.488   2.072
 4781SOL     OW16239   9.950   7.748   5.981
 4781SOL    HW116240   9.987   7.803   5.912
 4781SOL    HW216241   9.919   7.670   5.936
 4782SOL     OW16242   6.271   2.720   0.243
 4782SOL    HW116243   6.329   2.776   0.191
 4782SOL    HW216244   6.255   2.770   0.323
 4783SOL     OW16245   9.574   6.559   6.540
 4783SOL    HW116246   9.530   6.483   6.578
 4783SOL    HW216247   9.572   6.544   6.446
 4784SOL     OW16248   9.053   2.648  12.092
 4784SOL    HW116249   9.046   2.622  12.184
 4784SOL    HW216250   9.041   2.567  12.043
 4785SOL     OW16251   4.497   4.315   5.819
 4785SOL    HW116252   4.578   4.365   5.816
 4785SOL    HW216253   4.498   4.272   5.905
 4786SOL     OW16254   7.683   4.815  12.299
 4786SOL    HW116255   7.602   4.782  12.259
 4786SOL    HW216256   7.726   4.864  12.229
 4787SOL     OW16257  14.272  10.772   3.399
 4787SOL    HW116258  14.332  10.806   3.466
 4787SOL    HW216259  14.329  10.738   3.331
 4788SOL     OW16260   3.556   4.802   9.110
 4788SOL    HW116261   3.486   4.746   9.144
 4788SOL    HW216262   3.552   4.881   9.165
 4789SOL     OW16263   5.179  14.275   3.587
 4789SOL    HW116264   5.092  14.307   3.611
 4789SOL    HW216265   5.196  14.314   3.501
 4790SOL     OW16266   1.498  12.184  11.388
 4790SOL    HW116267   1.457  12.099  11.405
 4790SOL    HW216268   1.555  12.198  11.463
 4791SOL     OW16269  13.292  11.380   7.728
 4791SOL    HW116270  13.248  11.297   7.707
 4791SOL    HW216271  13.226  11.430   7.777
 4792SOL     OW16272  10.276   7.739   1.716
 4792SOL    HW116273  10.214   7.797   1.672
 4792SOL    HW216274  10.247   7.739   1.808
 4793SOL     OW16275  12.457   0.203  13.837
 4793SOL    HW116276  12.415   0.129  13.792
 4793SOL    HW216277  12.495   0.165  13.916
 4794SOL     OW16278   5.542   0.291   1.122
 4794SOL    HW116279   5.457   0.291   1.167
 4794SOL    HW216280   5.600   0.339   1.180
 4795SOL     OW16281   4.176   5.180   1.073
 4795SOL    HW116282   4.242   5.231   1.120
 4795SOL    HW216283   4.170   5.097   1.121
 4796SOL     OW16284   7.903  10.719   3.588
 4796SOL    HW116285   7.941  10.712   3.675
 4796SOL    HW216286   7.901  10.813   3.570
 4797SOL     OW16287   0.163  10.340   0.068
 4797SOL    HW116288   0.152  10.271   0.002
 4797SOL    HW216289   0.141  10.421   0.021
 4798SOL     OW16290   5.985   7.437   4.859
 4798SOL    HW116291   5.995   7.341   4.860
 4798SOL    HW216292   6.051   7.467   4.797
 4799SOL     OW16293   1.459   8.957  14.199
 4799SOL    HW116294   1.476   8.988  14.110
 4799SOL    HW216295   1.544   8.925  14.230
 4800SOL     OW16296   1.101   2.317   2.973
 4800SOL    HW116297   1.150   2.319   2.892
 4800SOL    HW216298   1.126   2.235   3.015
 4801SOL     OW16299   5.835   2.411   4.722
 4801SOL    HW116300   5.742   2.390   4.714
 4801SOL    HW216301   5.842   2.457   4.805
 4802SOL     OW16302   0.645   5.672   9.109
 4802SOL    HW116303   0.637   5.595   9.052
 4802SOL    HW216304   0.556   5.689   9.139
 4803SOL     OW16305   2.131   9.929  13.674
 4803SOL    HW116306   2.182   9.979  13.738
 4803SOL    HW216307   2.053   9.902  13.721
 4804SOL     OW16308  13.884   5.227   9.363
 4804SOL    HW116309  13.816   5.274   9.314
 4804SOL    HW216310  13.922   5.293   9.421
 4805SOL     OW16311   2.596  11.303   9.422
 4805SOL    HW116312   2.651  11.366   9.376
 4805SOL    HW216313   2.606  11.222   9.373
 4806SOL     OW16314  10.439   3.245  11.246
 4806SOL    HW116315  10.379   3.191  11.297
 4806SOL    HW216316  10.433   3.332  11.287
 4807SOL     OW16317   5.683   1.078  14.032
 4807SOL    HW116318   5.734   1.071  13.952
 4807SOL    HW216319   5.596   1.045  14.009
 4808SOL     OW16320  10.085   7.951   8.805
 4808SOL    HW116321  10.096   7.897   8.726
 4808SOL    HW216322  10.120   8.036   8.781
 4809SOL     OW16323  11.053   4.025  12.832
 4809SOL    HW116324  10.979   4.065  12.876
 4809SOL    HW216325  11.027   3.934  12.819
 4810SOL     OW16326  10.968   3.168   6.593
 4810SOL    HW116327  10.878   3.201   6.595
 4810SOL    HW216328  10.959   3.076   6.566
 4811SOL     OW16329   5.982  14.245   7.779
 4811SOL    HW116330   6.031  14.191   7.842
 4811SOL    HW216331   6.046  14.266   7.711
 4812SOL     OW16332   6.541   4.034  12.571
 4812SOL    HW116333   6.605   4.058  12.504
 4812SOL    HW216334   6.578   4.067  12.653
 4813SOL     OW16335   7.541   0.841  11.981
 4813SOL    HW116336   7.571   0.854  11.891
 4813SOL    HW216337   7.604   0.779  12.019
 4814SOL     OW16338   7.058  11.205  13.058
 4814SOL    HW116339   7.026  11.222  13.146
 4814SOL    HW216340   6.980  11.177  13.009
 4815SOL     OW16341   1.783  12.908   2.268
 4815SOL    HW116342   1.821  12.987   2.308
 4815SOL    HW216343   1.734  12.867   2.339
 4816SOL     OW16344   1.768   9.300  13.381
 4816SOL    HW116345   1.735   9.247  13.309
 4816SOL    HW216346   1.690   9.340  13.420
 4817SOL     OW16347   8.160  13.978   5.414
 4817SOL    HW116348   8.240  14.002   5.461
 4817SOL    HW216349   8.110  13.927   5.477
 4818SOL     OW16350  14.662   7.709  11.164
 4818SOL    HW116351  14.730   7.663  11.213
 4818SOL    HW216352  14.596   7.642  11.145
 4819SOL     OW16353   6.189   1.641  13.941
 4819SOL    HW116354   6.094   1.630  13.934
 4819SOL    HW216355   6.203   1.667  14.032
 4820SOL     OW16356   8.310   7.724   7.651
 4820SOL    HW116357   8.232   7.700   7.602
 4820SOL    HW216358   8.371   7.652   7.636
 4821SOL     OW16359  12.198   7.041   6.873
 4821SOL    HW116360  12.237   7.129   6.878
 4821SOL    HW216361  12.187   7.014   6.964
 4822SOL     OW16362   2.092  14.068  11.652
 4822SOL    HW116363   2.034  14.140  11.679
 4822SOL    HW216364   2.179  14.107  11.652
 4823SOL     OW16365  14.292  14.219   0.282
 4823SOL    HW116366  14.375  14.251   0.245
 4823SOL    HW216367  14.247  14.298   0.312
 4824SOL     OW16368   9.268  11.355   1.001
 4824SOL    HW116369   9.196  11.301   0.967
 4824SOL    HW216370   9.326  11.292   1.044
 4825SOL     OW16371   2.052  11.464   8.298
 4825SOL    HW116372   2.075  11.557   8.302
 4825SOL    HW216373   1.981  11.455   8.362
 4826SOL     OW16374   8.131   6.537   1.580
 4826SOL    HW116375   8.156   6.628   1.591
 4826SOL    HW216376   8.123   6.525   1.485
 4827SOL     OW16377  11.802   0.262   7.341
 4827SOL    HW116378  11.851   0.306   7.272
 4827SOL    HW216379  11.846   0.177   7.350
 4828SOL     OW16380   9.904   9.246   7.764
 4828SOL    HW116381   9.812   9.223   7.780
 4828SOL    HW216382   9.902   9.302   7.686
 4829SOL     OW16383  13.420  12.992   0.643
 4829SOL    HW116384  13.471  13.071   0.657
 4829SOL    HW216385  13.482  12.930   0.603
 4830SOL     OW16386   2.342   5.844  12.933
 4830SOL    HW116387   2.357   5.863  12.840
 4830SOL    HW216388   2.299   5.923  12.967
 4831SOL     OW16389   8.897  13.517   2.128
 4831SOL    HW116390   8.835  13.444   2.129
 4831SOL    HW216391   8.842  13.595   2.126
 4832SOL     OW16392   2.376  11.502   9.859
 4832SOL    HW116393   2.340  11.424   9.816
 4832SOL    HW216394   2.346  11.495   9.949
 4833SOL     OW16395   8.051   4.304   0.650
 4833SOL    HW116396   8.032   4.283   0.742
 4833SOL    HW216397   8.125   4.364   0.654
 4834SOL     OW16398  10.713  13.054  11.454
 4834SOL    HW116399  10.776  13.048  11.526
 4834SOL    HW216400  10.681  13.144  11.459
 4835SOL     OW16401   8.133   7.642   3.648
 4835SOL    HW116402   8.192   7.717   3.655
 4835SOL    HW216403   8.052   7.679   3.613
 4836SOL     OW16404   5.281   2.092  12.048
 4836SOL    HW116405   5.202   2.087  12.102
 4836SOL    HW216406   5.272   2.175  12.000
 4837SOL     OW16407   3.587   4.175   6.809
 4837SOL    HW116408   3.670   4.145   6.772
 4837SOL    HW216409   3.568   4.256   6.763
 4838SOL     OW16410   2.779  13.391   0.605
 4838SOL    HW116411   2.787  13.299   0.580
 4838SOL    HW216412   2.685  13.404   0.619
 4839SOL     OW16413   6.418   4.988  14.384
 4839SOL    HW116414   6.425   5.069  14.434
 4839SOL    HW216415   6.354   5.007  14.316
 4840SOL     OW16416   9.432   8.830   6.240
 4840SOL    HW116417   9.491   8.905   6.234
 4840SOL    HW216418   9.439   8.787   6.155
 4841SOL     OW16419  14.670   1.776  13.932
 4841SOL    HW116420  14.578   1.801  13.920
 4841SOL    HW216421  14.714   1.807  13.852
 4842SOL     OW16422  11.135  13.357  12.489
 4842SOL    HW116423  11.128  13.438  12.439
 4842SOL    HW216424  11.050  13.313  12.475
 4843SOL     OW16425   3.194  10.417   6.681
 4843SOL    HW116426   3.241  10.356   6.624
 4843SOL    HW216427   3.254  10.491   6.691
 4844SOL     OW16428   1.367   3.495   5.432
 4844SOL    HW116429   1.349   3.495   5.338
 4844SOL    HW216430   1.407   3.581   5.448
 4845SOL     OW16431  13.098   0.162   8.150
 4845SOL    HW116432  13.033   0.093   8.135
 4845SOL    HW216433  13.152   0.163   8.071
 4846SOL     OW16434   8.222   7.798  12.029
 4846SOL    HW116435   8.243   7.722  11.973
 4846SOL    HW216436   8.242   7.769  12.117
 4847SOL     OW16437   6.198   7.324  10.271
 4847SOL    HW116438   6.189   7.418  10.257
 4847SOL    HW216439   6.109   7.292  10.281
 4848SOL     OW16440   8.504   2.997   0.733
 4848SOL    HW116441   8.536   2.955   0.653
 4848SOL    HW216442   8.581   3.004   0.789
 4849SOL     OW16443  13.569   5.509  11.725
 4849SOL    HW116444  13.658   5.479  11.745
 4849SOL    HW216445  13.522   5.502  11.808
 4850SOL     OW16446  12.860   0.358   6.230
 4850SOL    HW116447  12.886   0.329   6.142
 4850SOL    HW216448  12.766   0.373   6.224
 4851SOL     OW16449   9.180   8.500   5.813
 4851SOL    HW116450   9.119   8.526   5.881
 4851SOL    HW216451   9.193   8.578   5.760
 4852SOL     OW16452  12.277  12.657  13.117
 4852SOL    HW116453  12.253  12.697  13.201
 4852SOL    HW216454  12.333  12.583  13.140
 4853SOL     OW16455  13.088  12.570   6.079
 4853SOL    HW116456  13.060  12.487   6.042
 4853SOL    HW216457  13.157  12.547   6.142
 4854SOL     OW16458   3.942   7.435  11.826
 4854SOL    HW116459   3.860   7.452  11.872
 4854SOL    HW216460   3.950   7.340  11.824
 4855SOL     OW16461   3.177   2.223  14.443
 4855SOL    HW116462   3.182   2.306  14.490
 4855SOL    HW216463   3.101   2.232  14.386
 4856SOL     OW16464   4.090   7.338   0.627
 4856SOL    HW116465   4.053   7.404   0.568
 4856SOL    HW216466   4.156   7.294   0.575
 4857SOL     OW16467   9.449  12.898   8.044
 4857SOL    HW116468   9.536  12.865   8.020
 4857SOL    HW216469   9.394  12.820   8.051
 4858SOL     OW16470  11.304   6.671  11.760
 4858SOL    HW116471  11.399   6.683  11.760
 4858SOL    HW216472  11.285   6.627  11.843
 4859SOL     OW16473   1.801   4.260   5.688
 4859SOL    HW116474   1.839   4.181   5.729
 4859SOL    HW216475   1.832   4.257   5.598
 4860SOL     OW16476  10.153  10.384  10.855
 4860SOL    HW116477  10.237  10.370  10.898
 4860SOL    HW216478  10.097  10.423  10.923
 4861SOL     OW16479   7.124   5.228   1.244
 4861SOL    HW116480   7.078   5.310   1.224
 4861SOL    HW216481   7.059   5.175   1.290
 4862SOL     OW16482  12.226  11.103   2.724
 4862SOL    HW116483  12.180  11.187   2.730
 4862SOL    HW216484  12.159  11.041   2.696
 4863SOL     OW16485   6.403   9.731   4.955
 4863SOL    HW116486   6.475   9.675   4.984
 4863SOL    HW216487   6.445   9.810   4.923
 4864SOL     OW16488   8.616  13.209   8.604
 4864SOL    HW116489   8.701  13.247   8.582
 4864SOL    HW216490   8.563  13.283   8.633
 4865SOL     OW16491  11.120   1.077   7.042
 4865SOL    HW116492  11.033   1.117   7.033
 4865SOL    HW216493  11.178   1.150   7.064
 4866SOL     OW16494  12.959   6.800  12.351
 4866SOL    HW116495  12.896   6.764  12.414
 4866SOL    HW216496  13.037   6.745  12.360
 4867SOL     OW16497   6.550   2.121   6.387
 4867SOL    HW116498   6.605   2.057   6.432
 4867SOL    HW216499   6.564   2.202   6.437
 4868SOL     OW16500   8.158  11.858   7.451
 4868SOL    HW116501   8.204  11.930   7.408
 4868SOL    HW216502   8.184  11.780   7.402
 4869SOL     OW16503   9.965  11.555   3.486
 4869SOL    HW116504  10.036  11.550   3.549
 4869SOL    HW216505   9.972  11.474   3.435
 4870SOL     OW16506  11.176   6.528   8.624
 4870SOL    HW116507  11.186   6.454   8.684
 4870SOL    HW216508  11.211   6.602   8.673
 4871SOL     OW16509   5.879   8.404   8.368
 4871SOL    HW116510   5.841   8.317   8.378
 4871SOL    HW216511   5.966   8.389   8.331
 4872SOL     OW16512  12.928   6.059   0.118
 4872SOL    HW116513  13.012   6.090   0.084
 4872SOL    HW216514  12.948   6.028   0.207
 4873SOL     OW16515   7.751   9.716   5.905
 4873SOL    HW116516   7.670   9.671   5.881
 4873SOL    HW216517   7.725   9.776   5.975
 4874SOL     OW16518   8.902   2.940   1.831
 4874SOL    HW116519   8.833   2.916   1.894
 4874SOL    HW216520   8.956   2.861   1.824
 4875SOL     OW16521   5.525  14.522  12.844
 4875SOL    HW116522   5.558  14.561  12.925
 4875SOL    HW216523   5.445  14.477  12.870
 4876SOL     OW16524   9.429   1.009  11.565
 4876SOL    HW116525   9.392   1.068  11.499
 4876SOL    HW216526   9.512   1.050  11.590
 4877SOL     OW16527   1.726   5.864  12.295
 4877SOL    HW116528   1.644   5.818  12.312
 4877SOL    HW216529   1.767   5.872  12.380
 4878SOL     OW16530   1.429   6.182  11.634
 4878SOL    HW116531   1.430   6.189  11.729
 4878SOL    HW216532   1.459   6.267  11.603
 4879SOL     OW16533  10.514   0.743   7.619
 4879SOL    HW116534  10.570   0.673   7.652
 4879SOL    HW216535  10.450   0.758   7.688
 4880SOL     OW16536   1.947  12.922   1.141
 4880SOL    HW116537   1.853  12.912   1.155
 4880SOL    HW216538   1.958  13.011   1.110
 4881SOL     OW16539  12.514   5.070  11.468
 4881SOL    HW116540  12.474   5.038  11.387
 4881SOL    HW216541  12.528   4.991  11.521
 4882SOL     OW16542  10.284   7.591   8.343
 4882SOL    HW116543  10.289   7.569   8.250
 4882SOL    HW216544  10.202   7.639   8.353
 4883SOL     OW16545  12.757   3.099  12.021
 4883SOL    HW116546  12.697   3.162  11.982
 4883SOL    HW216547  12.780   3.137  12.106
 4884SOL     OW16548  12.377  14.263   7.166
 4884SOL    HW116549  12.373  14.231   7.076
 4884SOL    HW216550  12.370  14.358   7.157
 4885SOL     OW16551   1.979   0.215  10.099
 4885SOL    HW116552   1.941   0.132  10.069
 4885SOL    HW216553   2.025   0.249  10.022
 4886SOL     OW16554  12.088   2.610  11.279
 4886SOL    HW116555  12.029   2.617  11.354
 4886SOL    HW216556  12.172   2.586  11.316
 4887SOL     OW16557   8.139  14.654  14.830
 4887SOL    HW116558   8.114  14.746  14.838
 4887SOL    HW216559   8.072  14.616  14.773
 4888SOL     OW16560   9.596   0.853   5.320
 4888SOL    HW116561   9.641   0.887   5.242
 4888SOL    HW216562   9.635   0.901   5.393
 4889SOL     OW16563  11.561  14.386   8.454
 4889SOL    HW116564  11.641  14.411   8.407
 4889SOL    HW216565  11.539  14.300   8.419
 4890SOL     OW16566   6.916   5.761   6.992
 4890SOL    HW116567   6.849   5.745   6.925
 4890SOL    HW216568   6.870   5.805   7.063
 4891SOL     OW16569   8.349   5.367  13.488
 4891SOL    HW116570   8.382   5.353  13.577
 4891SOL    HW216571   8.404   5.436  13.452
 4892SOL     OW16572  13.917  12.297  14.317
 4892SOL    HW116573  13.959  12.360  14.375
 4892SOL    HW216574  13.824  12.319  14.322
 4893SOL     OW16575   1.294   7.815  11.803
 4893SOL    HW116576   1.253   7.879  11.745
 4893SOL    HW216577   1.358   7.770  11.748
 4894SOL     OW16578   2.528   7.858  10.132
 4894SOL    HW116579   2.449   7.836  10.083
 4894SOL    HW216580   2.523   7.805  10.211
 4895SOL     OW16581   4.773   9.327  10.227
 4895SOL    HW116582   4.820   9.395  10.178
 4895SOL    HW216583   4.811   9.245  10.198
 4896SOL     OW16584   6.576   1.512  10.873
 4896SOL    HW116585   6.603   1.559  10.793
 4896SOL    HW216586   6.520   1.573  10.919
 4897SOL     OW16587   3.689   2.455  13.455
 4897SOL    HW116588   3.640   2.417  13.528
 4897SOL    HW216589   3.742   2.382  13.422
 4898SOL     OW16590  13.249   2.942   4.113
 4898SOL    HW116591  13.331   2.987   4.130
 4898SOL    HW216592  13.199   2.949   4.194
 4899SOL     OW16593  11.804  11.986   9.617
 4899SOL    HW116594  11.878  11.944   9.661
 4899SOL    HW216595  11.814  12.079   9.635
 4900SOL     OW16596   1.228   0.336  10.506
 4900SOL    HW116597   1.188   0.279  10.572
 4900SOL    HW216598   1.169   0.411  10.500
 4901SOL     OW16599  10.707  11.359   3.977
 4901SOL    HW116600  10.788  11.347   3.928
 4901SOL    HW216601  10.710  11.293   4.046
 4902SOL     OW16602   8.216   3.828   8.857
 4902SOL    HW116603   8.286   3.766   8.837
 4902SOL    HW216604   8.245   3.910   8.816
 4903SOL     OW16605   4.729   7.126   9.705
 4903SOL    HW116606   4.667   7.195   9.729
 4903SOL    HW216607   4.677   7.061   9.659
 4904SOL     OW16608   6.651   6.346  12.939
 4904SOL    HW116609   6.563   6.309  12.943
 4904SOL    HW216610   6.701   6.297  13.003
 4905SOL     OW16611   6.626  13.531   9.470
 4905SOL    HW116612   6.653  13.441   9.486
 4905SOL    HW216613   6.698  13.584   9.506
 4906SOL     OW16614   6.202   1.981   3.952
 4906SOL    HW116615   6.283   2.030   3.937
 4906SOL    HW216616   6.143   2.013   3.883
 4907SOL     OW16617   1.466   3.438  13.147
 4907SOL    HW116618   1.484   3.412  13.237
 4907SOL    HW216619   1.411   3.367  13.112
 4908SOL     OW16620   2.584   2.712  14.186
 4908SOL    HW116621   2.621   2.780  14.130
 4908SOL    HW216622   2.659   2.669  14.226
 4909SOL     OW16623   4.503   7.411  12.269
 4909SOL    HW116624   4.449   7.478  12.228
 4909SOL    HW216625   4.558   7.378  12.198
 4910SOL     OW16626   3.175   5.731   8.657
 4910SOL    HW116627   3.200   5.821   8.635
 4910SOL    HW216628   3.220   5.712   8.739
 4911SOL     OW16629  14.360   1.679   9.897
 4911SOL    HW116630  14.449   1.689   9.931
 4911SOL    HW216631  14.340   1.585   9.908
 4912SOL     OW16632  12.967   1.341  12.136
 4912SOL    HW116633  12.904   1.348  12.064
 4912SOL    HW216634  12.974   1.430  12.170
 4913SOL     OW16635   5.457  14.879  14.182
 4913SOL    HW116636   5.475   0.079  14.133
 4913SOL    HW216637   5.462   0.026  14.274
 4914SOL     OW16638   4.588   1.464   6.273
 4914SOL    HW116639   4.555   1.549   6.244
 4914SOL    HW216640   4.683   1.471   6.264
 4915SOL     OW16641   9.190  12.812   9.935
 4915SOL    HW116642   9.161  12.901   9.954
 4915SOL    HW216643   9.285  12.820   9.924
 4916SOL     OW16644   8.726  12.080  12.549
 4916SOL    HW116645   8.807  12.116  12.585
 4916SOL    HW216646   8.697  12.147  12.486
 4917SOL     OW16647   1.291   6.828   4.721
 4917SOL    HW116648   1.352   6.842   4.648
 4917SOL    HW216649   1.234   6.904   4.719
 4918SOL     OW16650  10.667   5.220  14.083
 4918SOL    HW116651  10.626   5.210  14.169
 4918SOL    HW216652  10.665   5.314  14.065
 4919SOL     OW16653   4.660   2.349   3.737
 4919SOL    HW116654   4.682   2.321   3.826
 4919SOL    HW216655   4.699   2.282   3.681
 4920SOL     OW16656   4.418   4.881  13.595
 4920SOL    HW116657   4.412   4.920  13.508
 4920SOL    HW216658   4.439   4.955  13.652
 4921SOL     OW16659  13.549   5.658  12.705
 4921SOL    HW116660  13.642   5.677  12.696
 4921SOL    HW216661  13.531   5.593  12.637
 4922SOL     OW16662  14.552  12.531   4.639
 4922SOL    HW116663  14.505  12.585   4.575
 4922SOL    HW216664  14.482  12.487   4.689
 4923SOL     OW16665   8.429   8.599   1.195
 4923SOL    HW116666   8.345   8.598   1.149
 4923SOL    HW216667   8.490   8.559   1.133
 4924SOL     OW16668  14.435   0.023   1.951
 4924SOL    HW116669  14.459   0.097   1.894
 4924SOL    HW216670  14.369   0.059   2.010
 4925SOL     OW16671   0.691   3.437  12.252
 4925SOL    HW116672   0.659   3.371  12.191
 4925SOL    HW216673   0.714   3.388  12.331
 4926SOL     OW16674   6.664   9.059  10.714
 4926SOL    HW116675   6.646   8.992  10.647
 4926SOL    HW216676   6.689   9.009  10.791
 4927SOL     OW16677   1.204   5.700   9.518
 4927SOL    HW116678   1.256   5.672   9.443
 4927SOL    HW216679   1.253   5.670   9.595
 4928SOL     OW16680  13.866   4.828  14.151
 4928SOL    HW116681  13.910   4.791  14.074
 4928SOL    HW216682  13.938   4.862  14.204
 4929SOL     OW16683   1.869   6.668  10.410
 4929SOL    HW116684   1.864   6.607  10.484
 4929SOL    HW216685   1.857   6.614  10.332
 4930SOL     OW16686  13.921   8.793   5.315
 4930SOL    HW116687  13.885   8.747   5.239
 4930SOL    HW216688  13.872   8.759   5.389
 4931SOL     OW16689   7.180  13.224  14.552
 4931SOL    HW116690   7.264  13.217  14.597
 4931SOL    HW216691   7.162  13.136  14.520
 4932SOL     OW16692  12.603   9.930   1.174
 4932SOL    HW116693  12.676   9.935   1.112
 4932SOL    HW216694  12.645   9.931   1.260
 4933SOL     OW16695  12.614   6.398   5.175
 4933SOL    HW116696  12.643   6.387   5.266
 4933SOL    HW216697  12.585   6.489   5.170
 4934SOL     OW16698   8.469  14.220  14.114
 4934SOL    HW116699   8.472  14.303  14.162
 4934SOL    HW216700   8.511  14.157  14.172
 4935SOL     OW16701   7.708   6.466  12.824
 4935SOL    HW116702   7.662   6.438  12.745
 4935SOL    HW216703   7.791   6.417  12.822
 4936SOL     OW16704  10.565  12.179   1.023
 4936SOL    HW116705  10.631  12.248   1.015
 4936SOL    HW216706  10.518  12.201   1.104
 4937SOL     OW16707  13.134  11.452  14.274
 4937SOL    HW116708  13.128  11.357  14.267
 4937SOL    HW216709  13.043  11.482  14.265
 4938SOL     OW16710  12.014   2.965  12.452
 4938SOL    HW116711  11.967   2.883  12.458
 4938SOL    HW216712  11.946   3.032  12.454
 4939SOL     OW16713  11.094  11.748   5.013
 4939SOL    HW116714  11.071  11.691   5.087
 4939SOL    HW216715  11.179  11.785   5.037
 4940SOL     OW16716  10.741   2.065  12.734
 4940SOL    HW116717  10.791   2.144  12.757
 4940SOL    HW216718  10.683   2.094  12.663
 4941SOL     OW16719   2.886   6.206   4.302
 4941SOL    HW116720   2.858   6.167   4.219
 4941SOL    HW216721   2.976   6.234   4.285
 4942SOL     OW16722  14.354   1.155   0.864
 4942SOL    HW116723  14.299   1.189   0.935
 4942SOL    HW216724  14.360   1.228   0.802
 4943SOL     OW16725   0.403   4.075  12.390
 4943SOL    HW116726   0.416   3.982  12.374
 4943SOL    HW216727   0.439   4.118  12.313
 4944SOL     OW16728   5.204   5.706   2.811
 4944SOL    HW116729   5.206   5.800   2.795
 4944SOL    HW216730   5.180   5.698   2.904
 4945SOL     OW16731  12.801   0.390  14.644
 4945SOL    HW116732  12.800   0.377  14.549
 4945SOL    HW216733  12.711   0.410  14.667
 4946SOL     OW16734   4.489  10.786   5.579
 4946SOL    HW116735   4.407  10.831   5.600
 4946SOL    HW216736   4.480  10.761   5.487
 4947SOL     OW16737  13.070   4.739   0.291
 4947SOL    HW116738  13.120   4.677   0.345
 4947SOL    HW216739  12.990   4.692   0.268
 4948SOL     OW16740   6.086  11.030   0.829
 4948SOL    HW116741   6.128  11.089   0.767
 4948SOL    HW216742   6.156  11.004   0.889
 4949SOL     OW16743   9.023   6.525  12.284
 4949SOL    HW116744   8.942   6.498  12.328
 4949SOL    HW216745   9.008   6.617  12.263
 4950SOL     OW16746   1.577  14.688   2.969
 4950SOL    HW116747   1.641  14.751   2.937
 4950SOL    HW216748   1.570  14.705   3.063
 4951SOL     OW16749   6.501   6.908   2.451
 4951SOL    HW116750   6.578   6.965   2.458
 4951SOL    HW216751   6.427   6.968   2.458
 4952SOL     OW16752  13.016   7.705   8.614
 4952SOL    HW116753  13.022   7.634   8.678
 4952SOL    HW216754  12.941   7.757   8.642
 4953SOL     OW16755  11.457   9.610   1.624
 4953SOL    HW116756  11.523   9.560   1.672
 4953SOL    HW216757  11.373   9.584   1.663
 4954SOL     OW16758  12.158   5.357   5.762
 4954SOL    HW116759  12.155   5.392   5.673
 4954SOL    HW216760  12.251   5.352   5.783
 4955SOL     OW16761   2.271   3.883   1.130
 4955SOL    HW116762   2.326   3.813   1.093
 4955SOL    HW216763   2.323   3.962   1.120
 4956SOL     OW16764   5.217   1.955  10.607
 4956SOL    HW116765   5.256   1.880  10.562
 4956SOL    HW216766   5.267   2.030  10.576
 4957SOL     OW16767   8.892   6.314   0.384
 4957SOL    HW116768   8.837   6.350   0.454
 4957SOL    HW216769   8.981   6.318   0.419
 4958SOL     OW16770   4.523   4.041   1.162
 4958SOL    HW116771   4.491   4.096   1.234
 4958SOL    HW216772   4.566   4.103   1.102
 4959SOL     OW16773  12.961   9.465  11.720
 4959SOL    HW116774  13.045   9.504  11.696
 4959SOL    HW216775  12.926   9.431  11.638
 4960SOL     OW16776  14.826   8.165  12.229
 4960SOL    HW116777  14.842   8.181  12.322
 4960SOL    HW216778  14.818   8.069  12.222
 4961SOL     OW16779  10.649   8.728   1.809
 4961SOL    HW116780  10.607   8.651   1.847
 4961SOL    HW216781  10.676   8.699   1.721
 4962SOL     OW16782   5.594  10.257   3.933
 4962SOL    HW116783   5.654  10.216   3.996
 4962SOL    HW216784   5.515  10.277   3.984
 4963SOL     OW16785   9.901  12.518  11.746
 4963SOL    HW116786   9.933  12.429  11.732
 4963SOL    HW216787   9.819  12.523  11.698
 4964SOL     OW16788   6.242  14.343  13.820
 4964SOL    HW116789   6.280  14.413  13.873
 4964SOL    HW216790   6.309  14.275  13.817
 4965SOL     OW16791  14.576   6.187  12.042
 4965SOL    HW116792  14.644   6.135  11.998
 4965SOL    HW216793  14.554   6.255  11.979
 4966SOL     OW16794  13.640  11.409   5.887
 4966SOL    HW116795  13.598  11.323   5.895
 4966SOL    HW216796  13.575  11.463   5.843
 4967SOL     OW16797   6.391  13.585   8.012
 4967SOL    HW116798   6.400  13.557   8.102
 4967SOL    HW216799   6.297  13.603   8.001
 4968SOL     OW16800  12.846  10.817   6.453
 4968SOL    HW116801  12.897  10.755   6.400
 4968SOL    HW216802  12.800  10.871   6.388
 4969SOL     OW16803  13.170   0.698  10.656
 4969SOL    HW116804  13.157   0.671  10.747
 4969SOL    HW216805  13.219   0.626  10.616
 4970SOL     OW16806  10.513   3.011   5.723
 4970SOL    HW116807  10.543   2.925   5.752
 4970SOL    HW216808  10.593   3.059   5.704
 4971SOL     OW16809   4.618   3.377  13.429
 4971SOL    HW116810   4.661   3.462  13.417
 4971SOL    HW216811   4.525   3.395  13.412
 4972SOL     OW16812  11.168   0.149  14.499
 4972SOL    HW116813  11.218   0.091  14.441
 4972SOL    HW216814  11.234   0.198  14.547
 4973SOL     OW16815   0.367   9.536   7.971
 4973SOL    HW116816   0.347   9.543   8.065
 4973SOL    HW216817   0.453   9.494   7.968
 4974SOL     OW16818  13.051  12.894  13.684
 4974SOL    HW116819  13.055  12.806  13.646
 4974SOL    HW216820  13.055  12.953  13.608
 4975SOL     OW16821  11.048   4.616  12.311
 4975SOL    HW116822  11.050   4.620  12.215
 4975SOL    HW216823  11.140   4.614  12.336
 4976SOL     OW16824  12.382   6.209   1.594
 4976SOL    HW116825  12.392   6.166   1.678
 4976SOL    HW216826  12.406   6.142   1.530
 4977SOL     OW16827   9.610   1.006   2.405
 4977SOL    HW116828   9.702   1.032   2.401
 4977SOL    HW216829   9.599   0.944   2.334
 4978SOL     OW16830  12.621   7.042   2.416
 4978SOL    HW116831  12.550   7.032   2.353
 4978SOL    HW216832  12.579   7.039   2.501
 4979SOL     OW16833   3.862   5.928   2.411
 4979SOL    HW116834   3.833   5.911   2.321
 4979SOL    HW216835   3.929   5.996   2.402
 4980SOL     OW16836   7.112   3.759   0.570
 4980SOL    HW116837   7.077   3.691   0.513
 4980SOL    HW216838   7.184   3.717   0.617
 4981SOL     OW16839   8.688   8.215   2.395
 4981SOL    HW116840   8.612   8.171   2.434
 4981SOL    HW216841   8.657   8.304   2.377
 4982SOL     OW16842   1.016  11.681   4.382
 4982SOL    HW116843   1.043  11.608   4.327
 4982SOL    HW216844   1.012  11.756   4.323
 4983SOL     OW16845   5.569   1.245   6.711
 4983SOL    HW116846   5.548   1.164   6.666
 4983SOL    HW216847   5.519   1.312   6.664
 4984SOL     OW16848  14.402   9.839   4.831
 4984SOL    HW116849  14.356   9.782   4.769
 4984SOL    HW216850  14.364   9.926   4.816
 4985SOL     OW16851  11.951   4.147   9.021
 4985SOL    HW116852  12.006   4.078   8.982
 4985SOL    HW216853  11.950   4.127   9.115
 4986SOL     OW16854  14.403   6.041   7.898
 4986SOL    HW116855  14.453   5.996   7.966
 4986SOL    HW216856  14.318   6.058   7.939
 4987SOL     OW16857  11.654  13.266   5.916
 4987SOL    HW116858  11.703  13.272   5.998
 4987SOL    HW216859  11.683  13.342   5.865
 4988SOL     OW16860   7.850   9.712   4.163
 4988SOL    HW116861   7.787   9.780   4.187
 4988SOL    HW216862   7.799   9.645   4.120
 4989SOL     OW16863  13.322   1.037  14.413
 4989SOL    HW116864  13.406   1.001  14.440
 4989SOL    HW216865  13.267   0.961  14.396
 4990SOL     OW16866   4.462  10.719   8.602
 4990SOL    HW116867   4.370  10.691   8.600
 4990SOL    HW216868   4.501  10.679   8.525
 4991SOL     OW16869   4.398   3.587   1.773
 4991SOL    HW116870   4.438   3.541   1.699
 4991SOL    HW216871   4.395   3.521   1.843
 4992SOL     OW16872  14.555   3.336  10.703
 4992SOL    HW116873  14.518   3.261  10.751
 4992SOL    HW216874  14.624   3.298  10.649
 4993SOL     OW16875  12.163   6.268  10.806
 4993SOL    HW116876  12.115   6.344  10.838
 4993SOL    HW216877  12.212   6.237  10.883
 4994SOL     OW16878  12.241   7.713   7.895
 4994SOL    HW116879  12.192   7.733   7.974
 4994SOL    HW216880  12.262   7.798   7.857
 4995SOL     OW16881  12.259   5.307  12.122
 4995SOL    HW116882  12.192   5.331  12.059
 4995SOL    HW216883  12.247   5.367  12.195
 4996SOL     OW16884   7.362   7.837   8.328
 4996SOL    HW116885   7.442   7.877   8.295
 4996SOL    HW216886   7.385   7.801   8.413
 4997SOL     OW16887   5.991   3.286  13.431
 4997SOL    HW116888   5.944   3.261  13.351
 4997SOL    HW216889   5.930   3.345  13.476
 4998SOL     OW16890  11.110   0.052   1.969
 4998SOL    HW116891  11.122   0.145   1.949
 4998SOL    HW216892  11.045   0.022   1.906
 4999SOL     OW16893   7.204  14.555   9.871
 4999SOL    HW116894   7.235  14.486   9.930
 4999SOL    HW216895   7.220  14.637   9.919
 5000SOL     OW16896   1.903  11.296   2.266
 5000SOL    HW116897   1.839  11.249   2.320
 5000SOL    HW216898   1.980  11.240   2.266
 5001SOL     OW16899   4.033  11.459   1.142
 5001SOL    HW116900   4.018  11.515   1.066
 5001SOL    HW216901   3.946  11.427   1.167
 5002SOL     OW16902  10.847   9.027   7.810
 5002SOL    HW116903  10.885   9.070   7.886
 5002SOL    HW216904  10.841   8.935   7.833
 5003SOL     OW16905  10.366  10.333  13.973
 5003SOL    HW116906  10.343  10.254  14.022
 5003SOL    HW216907  10.331  10.404  14.025
 5004SOL     OW16908  10.536  10.160   4.275
 5004SOL    HW116909  10.443  10.138   4.272
 5004SOL    HW216910  10.580  10.074   4.275
 5005SOL     OW16911  13.091   5.391   2.779
 5005SOL    HW116912  13.097   5.298   2.797
 5005SOL    HW216913  13.007   5.417   2.815
 5006SOL     OW16914   0.708   3.244   6.556
 5006SOL    HW116915   0.776   3.276   6.496
 5006SOL    HW216916   0.754   3.182   6.613
 5007SOL     OW16917   6.481   6.999   1.858
 5007SOL    HW116918   6.553   6.939   1.879
 5007SOL    HW216919   6.524   7.083   1.844
 5008SOL     OW16920   6.073  12.927  10.764
 5008SOL    HW116921   6.145  12.864  10.770
 5008SOL    HW216922   5.996  12.880  10.796
 5009SOL     OW16923  11.831   1.033   9.282
 5009SOL    HW116924  11.852   0.948   9.243
 5009SOL    HW216925  11.916   1.068   9.308
 5010SOL     OW16926   6.838  14.614  10.720
 5010SOL    HW116927   6.900  14.679  10.687
 5010SOL    HW216928   6.854  14.537  10.666
 5011SOL     OW16929  12.222   5.204   7.709
 5011SOL    HW116930  12.148   5.220   7.769
 5011SOL    HW216931  12.240   5.289   7.670
 5012SOL     OW16932   7.595  14.258   5.808
 5012SOL    HW116933   7.583  14.164   5.796
 5012SOL    HW216934   7.511  14.289   5.843
 5013SOL     OW16935  14.554   8.567   1.971
 5013SOL    HW116936  14.603   8.500   2.018
 5013SOL    HW216937  14.603   8.648   1.988
 5014SOL     OW16938   1.212  13.278  13.533
 5014SOL    HW116939   1.186  13.214  13.599
 5014SOL    HW216940   1.248  13.351  13.584
 5015SOL     OW16941   8.353   3.392   0.514
 5015SOL    HW116942   8.290   3.464   0.512
 5015SOL    HW216943   8.425   3.422   0.458
 5016SOL     OW16944   0.309   2.940   1.947
 5016SOL    HW116945   0.364   2.941   2.025
 5016SOL    HW216946   0.363   2.980   1.879
 5017SOL     OW16947  12.179   8.971  10.822
 5017SOL    HW116948  12.114   8.956  10.754
 5017SOL    HW216949  12.196   9.065  10.819
 5018SOL     OW16950  10.075   4.649   5.945
 5018SOL    HW116951  10.113   4.727   5.987
 5018SOL    HW216952  10.151   4.600   5.914
 5019SOL     OW16953  10.209   7.400   5.439
 5019SOL    HW116954  10.176   7.482   5.401
 5019SOL    HW216955  10.291   7.383   5.393
 5020SOL     OW16956   3.567   2.904   0.922
 5020SOL    HW116957   3.643   2.851   0.946
 5020SOL    HW216958   3.584   2.990   0.959
 5021SOL     OW16959   2.408   0.643   0.866
 5021SOL    HW116960   2.339   0.579   0.880
 5021SOL    HW216961   2.417   0.687   0.951
 5022SOL     OW16962  13.915  11.244  12.540
 5022SOL    HW116963  13.952  11.261  12.454
 5022SOL    HW216964  13.981  11.275  12.602
 5023SOL     OW16965   0.024   1.079   0.454
 5023SOL    HW116966   0.044   1.172   0.457
 5023SOL    HW216967  14.827   1.072   0.397
 5024SOL     OW16968   1.780   0.416  12.211
 5024SOL    HW116969   1.797   0.509  12.221
 5024SOL    HW216970   1.805   0.396  12.121
 5025SOL     OW16971   0.206  14.221   1.093
 5025SOL    HW116972   0.114  14.247   1.098
 5025SOL    HW216973   0.255  14.299   1.118
 5026SOL     OW16974   1.212   1.032   5.928
 5026SOL    HW116975   1.262   1.074   5.858
 5026SOL    HW216976   1.121   1.043   5.904
 5027SOL     OW16977   2.422   3.950   7.396
 5027SOL    HW116978   2.388   3.900   7.322
 5027SOL    HW216979   2.498   3.997   7.361
 5028SOL     OW16980   4.158  12.060  14.861
 5028SOL    HW116981   4.102  12.114  14.805
 5028SOL    HW216982   4.185  11.987  14.806
 5029SOL     OW16983   9.884  12.568   3.056
 5029SOL    HW116984   9.933  12.512   2.996
 5029SOL    HW216985   9.802  12.522   3.071
 5030SOL     OW16986   4.690   7.836  12.629
 5030SOL    HW116987   4.750   7.762  12.624
 5030SOL    HW216988   4.637   7.829  12.550
 5031SOL     OW16989  10.502  14.145   1.829
 5031SOL    HW116990  10.533  14.209   1.764
 5031SOL    HW216991  10.520  14.187   1.913
 5032SOL     OW16992  12.872   1.174  13.470
 5032SOL    HW116993  12.871   1.184  13.565
 5032SOL    HW216994  12.928   1.097  13.455
 5033SOL     OW16995   2.227   4.291   6.778
 5033SOL    HW116996   2.194   4.369   6.735
 5033SOL    HW216997   2.224   4.222   6.711
 5034SOL     OW16998   2.729   8.327   9.185
 5034SOL    HW116999   2.694   8.415   9.199
 5034SOL    HW217000   2.684   8.273   9.250
 5035SOL     OW17001   0.028   7.147   0.810
 5035SOL    HW117002  14.868   7.234   0.813
 5035SOL    HW217003   0.105   7.156   0.753
 5036SOL     OW17004   1.625  11.716   6.134
 5036SOL    HW117005   1.705  11.766   6.117
 5036SOL    HW217006   1.589  11.698   6.047
 5037SOL     OW17007  12.017   8.739  11.537
 5037SOL    HW117008  12.098   8.712  11.580
 5037SOL    HW217009  11.994   8.666  11.481
 5038SOL     OW17010   0.054  13.451   6.430
 5038SOL    HW117011  14.872  13.380   6.447
 5038SOL    HW217012   0.004  13.531   6.445
 5039SOL     OW17013   9.508   8.477   5.837
 5039SOL    HW117014   9.414   8.485   5.821
 5039SOL    HW217015   9.516   8.402   5.895
 5040SOL     OW17016  14.251   4.664   1.967
 5040SOL    HW117017  14.247   4.748   1.921
 5040SOL    HW217018  14.287   4.686   2.053
 5041SOL     OW17019   2.272   1.958  12.125
 5041SOL    HW117020   2.343   1.906  12.088
 5041SOL    HW217021   2.243   2.014  12.053
 5042SOL     OW17022   4.196   7.100   3.691
 5042SOL    HW117023   4.244   7.046   3.753
 5042SOL    HW217024   4.151   7.165   3.746
 5043SOL     OW17025   1.805   4.200   6.694
 5043SOL    HW117026   1.880   4.231   6.644
 5043SOL    HW217027   1.744   4.273   6.693
 5044SOL     OW17028   4.133   5.884   5.567
 5044SOL    HW117029   4.118   5.862   5.475
 5044SOL    HW217030   4.217   5.842   5.588
 5045SOL     OW17031   6.040  14.199   0.493
 5045SOL    HW117032   6.113  14.140   0.472
 5045SOL    HW217033   6.072  14.286   0.470
 5046SOL     OW17034  12.208   8.729   1.590
 5046SOL    HW117035  12.130   8.783   1.576
 5046SOL    HW217036  12.180   8.661   1.651
 5047SOL     OW17037   2.636   8.715   0.098
 5047SOL    HW117038   2.651   8.808   0.081
 5047SOL    HW217039   2.561   8.692   0.043
 5048SOL     OW17040  12.927   3.208  10.016
 5048SOL    HW117041  12.866   3.275   9.985
 5048SOL    HW217042  12.935   3.147   9.942
 5049SOL     OW17043   1.065  12.701   2.133
 5049SOL    HW117044   0.988  12.754   2.155
 5049SOL    HW217045   1.080  12.717   2.040
 5050SOL     OW17046   8.345  10.908   9.534
 5050SOL    HW117047   8.336  10.814   9.550
 5050SOL    HW217048   8.331  10.919   9.440
 5051SOL     OW17049   2.444   1.787   2.880
 5051SOL    HW117050   2.394   1.777   2.962
 5051SOL    HW217051   2.378   1.813   2.815
 5052SOL     OW17052  12.398   0.574   1.675
 5052SOL    HW117053  12.377   0.502   1.616
 5052SOL    HW217054  12.454   0.535   1.742
 5053SOL     OW17055   8.520   3.846   9.209
 5053SOL    HW117056   8.515   3.936   9.240
 5053SOL    HW217057   8.442   3.834   9.155
 5054SOL     OW17058  12.524  14.641  11.181
 5054SOL    HW117059  12.501  14.586  11.107
 5054SOL    HW217060  12.494  14.729  11.157
 5055SOL     OW17061   5.952   4.275  10.576
 5055SOL    HW117062   5.911   4.311  10.498
 5055SOL    HW217063   6.045   4.295  10.566
 5056SOL     OW17064   0.073  10.889  13.474
 5056SOL    HW117065   0.133  10.940  13.419
 5056SOL    HW217066  14.870  10.937  13.469
 5057SOL     OW17067   2.399   8.356  14.780
 5057SOL    HW117068   2.480   8.407  14.783
 5057SOL    HW217069   2.427   8.266  14.799
 5058SOL     OW17070   9.523   0.175   3.686
 5058SOL    HW117071   9.602   0.165   3.739
 5058SOL    HW217072   9.458   0.210   3.746
 5059SOL     OW17073   2.155   4.841   3.829
 5059SOL    HW117074   2.066   4.857   3.861
 5059SOL    HW217075   2.209   4.843   3.907
 5060SOL     OW17076  10.635   2.554   4.579
 5060SOL    HW117077  10.662   2.643   4.600
 5060SOL    HW217078  10.615   2.556   4.485
 5061SOL     OW17079   2.354  13.450  11.485
 5061SOL    HW117080   2.382  13.461  11.576
 5061SOL    HW217081   2.392  13.524  11.438
 5062SOL     OW17082   9.520   8.451   1.015
 5062SOL    HW117083   9.459   8.525   1.021
 5062SOL    HW217084   9.530   8.421   1.105
 5063SOL     OW17085   1.287  14.312   9.321
 5063SOL    HW117086   1.213  14.257   9.345
 5063SOL    HW217087   1.287  14.382   9.387
 5064SOL     OW17088   1.679   1.963   0.853
 5064SOL    HW117089   1.637   2.015   0.784
 5064SOL    HW217090   1.746   2.021   0.889
 5065SOL     OW17091   8.857   0.537   8.103
 5065SOL    HW117092   8.781   0.565   8.053
 5065SOL    HW217093   8.932   0.560   8.047
 5066SOL     OW17094   2.299  12.865   0.158
 5066SOL    HW117095   2.218  12.817   0.141
 5066SOL    HW217096   2.352  12.804   0.209
 5067SOL     OW17097   0.936  10.768   7.228
 5067SOL    HW117098   0.934  10.679   7.193
 5067SOL    HW217099   0.864  10.812   7.185
 5068SOL     OW17100   1.669   4.568  13.328
 5068SOL    HW117101   1.595   4.510  13.342
 5068SOL    HW217102   1.651   4.611  13.245
 5069SOL     OW17103   2.421   1.213   3.820
 5069SOL    HW117104   2.396   1.301   3.847
 5069SOL    HW217105   2.346   1.158   3.846
 5070SOL     OW17106   9.607   5.399   8.309
 5070SOL    HW117107   9.648   5.465   8.253
 5070SOL    HW217108   9.514   5.421   8.309
 5071SOL     OW17109   5.187   0.379   9.314
 5071SOL    HW117110   5.192   0.413   9.403
 5071SOL    HW217111   5.167   0.286   9.325
 5072SOL     OW17112  11.701   9.971   0.829
 5072SOL    HW117113  11.750   9.923   0.895
 5072SOL    HW217114  11.736   9.939   0.746
 5073SOL     OW17115  14.470  13.748   5.238
 5073SOL    HW117116  14.507  13.686   5.175
 5073SOL    HW217117  14.384  13.771   5.203
 5074SOL     OW17118  13.608   9.611   2.054
 5074SOL    HW117119  13.589   9.546   1.986
 5074SOL    HW217120  13.557   9.688   2.029
 5075SOL     OW17121   2.422   3.370  13.497
 5075SOL    HW117122   2.449   3.462  13.502
 5075SOL    HW217123   2.464   3.328  13.572
 5076SOL     OW17124   3.935   4.681   9.796
 5076SOL    HW117125   4.019   4.685   9.750
 5076SOL    HW217126   3.957   4.699   9.887
 5077SOL     OW17127   8.955   1.341   8.989
 5077SOL    HW117128   8.984   1.431   8.972
 5077SOL    HW217129   9.025   1.302   9.041
 5078SOL     OW17130   8.389  13.697   4.765
 5078SOL    HW117131   8.484  13.688   4.769
 5078SOL    HW217132   8.370  13.715   4.673
 5079SOL     OW17133   1.738  13.906  11.421
 5079SOL    HW117134   1.827  13.937  11.404
 5079SOL    HW217135   1.747  13.842  11.491
 5080SOL     OW17136  12.866   0.140  14.067
 5080SOL    HW117137  12.910   0.219  14.100
 5080SOL    HW217138  12.900   0.129  13.978
 5081SOL     OW17139   9.638   4.576  11.615
 5081SOL    HW117140   9.592   4.660  11.615
 5081SOL    HW217141   9.611   4.534  11.696
 5082SOL     OW17142  12.225  13.538   5.854
 5082SOL    HW117143  12.278  13.504   5.926
 5082SOL    HW217144  12.286  13.588   5.801
 5083SOL     OW17145   5.566  12.490  14.869
 5083SOL    HW117146   5.482  12.443  14.862
 5083SOL    HW217147   5.561  12.534   0.074
 5084SOL     OW17148   4.113   1.134   7.796
 5084SOL    HW117149   4.084   1.073   7.727
 5084SOL    HW217150   4.082   1.220   7.766
 5085SOL     OW17151   9.569   1.171  13.237
 5085SOL    HW117152   9.490   1.174  13.183
 5085SOL    HW217153   9.637   1.211  13.183
 5086SOL     OW17154  13.414   0.486   6.394
 5086SOL    HW117155  13.372   0.403   6.414
 5086SOL    HW217156  13.341   0.545   6.371
 5087SOL     OW17157   5.966   7.512  13.044
 5087SOL    HW117158   5.915   7.556  13.111
 5087SOL    HW217159   5.924   7.535  12.961
 5088SOL     OW17160  14.522  11.834   0.782
 5088SOL    HW117161  14.564  11.820   0.697
 5088SOL    HW217162  14.548  11.922   0.808
 5089SOL     OW17163   9.799   6.175   4.685
 5089SOL    HW117164   9.738   6.139   4.750
 5089SOL    HW217165   9.885   6.145   4.715
 5090SOL     OW17166  14.770   0.470   3.100
 5090SOL    HW117167  14.779   0.377   3.080
 5090SOL    HW217168  14.846   0.511   3.060
 5091SOL     OW17169   5.477  10.171   9.124
 5091SOL    HW117170   5.539  10.243   9.134
 5091SOL    HW217171   5.404  10.208   9.074
 5092SOL     OW17172   0.035  13.439  10.765
 5092SOL    HW117173   0.065  13.455  10.676
 5092SOL    HW217174   0.066  13.350  10.786
 5093SOL     OW17175  10.479  12.242   0.023
 5093SOL    HW117176  10.440  12.242   0.110
 5093SOL    HW217177  10.507  12.151   0.010
 5094SOL     OW17178   8.441   4.111   1.755
 5094SOL    HW117179   8.530   4.100   1.722
 5094SOL    HW217180   8.433   4.205   1.773
 5095SOL     OW17181   5.574   6.583   8.840
 5095SOL    HW117182   5.650   6.597   8.784
 5095SOL    HW217183   5.611   6.571   8.928
 5096SOL     OW17184   8.393  11.639  10.764
 5096SOL    HW117185   8.365  11.724  10.798
 5096SOL    HW217186   8.398  11.583  10.841
 5097SOL     OW17187   9.939   0.400   1.703
 5097SOL    HW117188   9.945   0.313   1.663
 5097SOL    HW217189   9.889   0.385   1.784
 5098SOL     OW17190   0.586   9.051   4.074
 5098SOL    HW117191   0.630   9.103   4.006
 5098SOL    HW217192   0.656   8.996   4.110
 5099SOL     OW17193  12.683   9.778   1.530
 5099SOL    HW117194  12.590   9.755   1.530
 5099SOL    HW217195  12.687   9.863   1.572
 5100SOL     OW17196   1.041   7.868   6.346
 5100SOL    HW117197   1.110   7.931   6.326
 5100SOL    HW217198   1.082   7.782   6.331
 5101SOL     OW17199   1.195  14.526   0.995
 5101SOL    HW117200   1.224  14.445   0.952
 5101SOL    HW217201   1.262  14.544   1.060
 5102SOL     OW17202   6.325  14.220  12.546
 5102SOL    HW117203   6.383  14.295  12.554
 5102SOL    HW217204   6.373  14.148  12.586
 5103SOL     OW17205   9.314   5.061   6.558
 5103SOL    HW117206   9.229   5.105   6.554
 5103SOL    HW217207   9.339   5.047   6.466
 5104SOL     OW17208   7.421  11.906  11.672
 5104SOL    HW117209   7.366  11.856  11.612
 5104SOL    HW217210   7.363  11.973  11.707
 5105SOL     OW17211   1.670   5.747   5.482
 5105SOL    HW117212   1.575   5.737   5.475
 5105SOL    HW217213   1.705   5.663   5.453
 5106SOL     OW17214  12.160   1.878  12.036
 5106SOL    HW117215  12.127   1.788  12.042
 5106SOL    HW217216  12.159   1.910  12.126
 5107SOL     OW17217  13.540  13.675   5.629
 5107SOL    HW117218  13.571  13.724   5.705
 5107SOL    HW217219  13.608  13.686   5.563
 5108SOL     OW17220  10.357   7.180  11.902
 5108SOL    HW117221  10.329   7.238  11.831
 5108SOL    HW217222  10.297   7.200  11.974
 5109SOL     OW17223   8.169  11.480   3.781
 5109SOL    HW117224   8.163  11.402   3.726
 5109SOL    HW217225   8.079  11.497   3.809
 5110SOL     OW17226   7.998  11.302  10.450
 5110SOL    HW117227   8.012  11.240  10.378
 5110SOL    HW217228   7.975  11.247  10.525
 5111SOL     OW17229   3.369  10.422   3.544
 5111SOL    HW117230   3.370  10.348   3.605
 5111SOL    HW217231   3.305  10.483   3.581
 5112SOL     OW17232   9.777   8.340   5.138
 5112SOL    HW117233   9.703   8.345   5.200
 5112SOL    HW217234   9.751   8.396   5.065
 5113SOL     OW17235   5.249   6.310   4.856
 5113SOL    HW117236   5.273   6.328   4.947
 5113SOL    HW217237   5.331   6.284   4.814
 5114SOL     OW17238   5.709   8.620  12.476
 5114SOL    HW117239   5.646   8.575  12.419
 5114SOL    HW217240   5.724   8.559  12.548
 5115SOL     OW17241  14.291   2.178  10.052
 5115SOL    HW117242  14.348   2.107  10.020
 5115SOL    HW217243  14.320   2.255  10.003
 5116SOL     OW17244  11.993   5.914  12.721
 5116SOL    HW117245  11.956   6.001  12.709
 5116SOL    HW217246  12.014   5.910  12.814
 5117SOL     OW17247   9.465   1.259   2.901
 5117SOL    HW117248   9.491   1.337   2.950
 5117SOL    HW217249   9.390   1.287   2.849
 5118SOL     OW17250   6.077   1.304   1.710
 5118SOL    HW117251   6.054   1.273   1.623
 5118SOL    HW217252   6.074   1.226   1.765
 5119SOL     OW17253   1.308  10.244   7.014
 5119SOL    HW117254   1.340  10.160   6.980
 5119SOL    HW217255   1.381  10.305   6.998
 5120SOL     OW17256   5.698  14.657   2.995
 5120SOL    HW117257   5.670  14.569   3.022
 5120SOL    HW217258   5.787  14.666   3.031
 5121SOL     OW17259   6.391   3.077   8.382
 5121SOL    HW117260   6.486   3.065   8.382
 5121SOL    HW217261   6.356   2.992   8.354
 5122SOL     OW17262   3.636   7.894   7.686
 5122SOL    HW117263   3.658   7.884   7.779
 5122SOL    HW217264   3.721   7.891   7.641
 5123SOL     OW17265   7.807   0.662  12.608
 5123SOL    HW117266   7.714   0.643  12.594
 5123SOL    HW217267   7.853   0.590  12.565
 5124SOL     OW17268  14.292  14.638   5.452
 5124SOL    HW117269  14.307  14.661   5.360
 5124SOL    HW217270  14.219  14.577   5.451
 5125SOL     OW17271  11.229  14.851   7.134
 5125SOL    HW117272  11.243  14.877   7.225
 5125SOL    HW217273  11.144   0.008   7.111
 5126SOL     OW17274   7.191  13.389   8.807
 5126SOL    HW117275   7.109  13.407   8.854
 5126SOL    HW217276   7.257  13.382   8.876
 5127SOL     OW17277   8.801  12.664   9.750
 5127SOL    HW117278   8.887  12.688   9.716
 5127SOL    HW217279   8.820  12.600   9.820
 5128SOL     OW17280   5.721  13.527   3.771
 5128SOL    HW117281   5.713  13.464   3.842
 5128SOL    HW217282   5.685  13.483   3.695
 5129SOL     OW17283   1.737  14.249   0.489
 5129SOL    HW117284   1.679  14.187   0.446
 5129SOL    HW217285   1.711  14.246   0.582
 5130SOL     OW17286   6.016  12.748  14.085
 5130SOL    HW117287   6.086  12.785  14.139
 5130SOL    HW217288   6.024  12.792  14.001
 5131SOL     OW17289  12.785  12.446   7.323
 5131SOL    HW117290  12.737  12.431   7.242
 5131SOL    HW217291  12.875  12.462   7.296
 5132SOL     OW17292   8.410   9.259   3.611
 5132SOL    HW117293   8.432   9.301   3.694
 5132SOL    HW217294   8.380   9.172   3.636
 5133SOL     OW17295  13.023   5.641  10.047
 5133SOL    HW117296  13.047   5.646   9.954
 5133SOL    HW217297  13.099   5.602  10.089
 5134SOL     OW17298   3.192   0.248   8.127
 5134SOL    HW117299   3.198   0.342   8.143
 5134SOL    HW217300   3.128   0.240   8.056
 5135SOL     OW17301  12.920   3.556   6.046
 5135SOL    HW117302  12.830   3.547   6.078
 5135SOL    HW217303  12.945   3.645   6.071
 5136SOL     OW17304  10.202   0.592   3.426
 5136SOL    HW117305  10.129   0.532   3.437
 5136SOL    HW217306  10.174   0.672   3.471
 5137SOL     OW17307   0.639   6.570   2.489
 5137SOL    HW117308   0.705   6.509   2.456
 5137SOL    HW217309   0.614   6.622   2.413
 5138SOL     OW17310   5.623   6.458   9.682
 5138SOL    HW117311   5.708   6.467   9.638
 5138SOL    HW217312   5.611   6.541   9.728
 5139SOL     OW17313  10.359   5.542   7.195
 5139SOL    HW117314  10.329   5.457   7.161
 5139SOL    HW217315  10.373   5.595   7.118
 5140SOL     OW17316   2.240   5.141   0.113
 5140SOL    HW117317   2.219   5.137   0.020
 5140SOL    HW217318   2.205   5.226   0.142
 5141SOL     OW17319   6.541  13.986   9.316
 5141SOL    HW117320   6.466  13.943   9.276
 5141SOL    HW217321   6.601  14.003   9.243
 5142SOL     OW17322   2.017   9.877   5.480
 5142SOL    HW117323   2.039   9.869   5.387
 5142SOL    HW217324   1.956   9.805   5.496
 5143SOL     OW17325   1.567   9.347   8.099
 5143SOL    HW117326   1.500   9.377   8.160
 5143SOL    HW217327   1.528   9.270   8.056
 5144SOL     OW17328  11.539   7.496   7.676
 5144SOL    HW117329  11.495   7.448   7.747
 5144SOL    HW217330  11.595   7.558   7.721
 5145SOL     OW17331   0.839  14.402   6.351
 5145SOL    HW117332   0.850  14.450   6.269
 5145SOL    HW217333   0.927  14.396   6.387
 5146SOL     OW17334   8.315   7.940   8.419
 5146SOL    HW117335   8.318   8.015   8.360
 5146SOL    HW217336   8.248   7.963   8.484
 5147SOL     OW17337   6.074  10.477  10.145
 5147SOL    HW117338   6.160  10.520  10.146
 5147SOL    HW217339   6.042  10.491  10.055
 5148SOL     OW17340   0.600  13.554  10.807
 5148SOL    HW117341   0.644  13.623  10.757
 5148SOL    HW217342   0.540  13.513  10.744
 5149SOL     OW17343   4.920   6.228   1.828
 5149SOL    HW117344   5.002   6.253   1.785
 5149SOL    HW217345   4.892   6.308   1.874
 5150SOL     OW17346   3.301  13.434   7.081
 5150SOL    HW117347   3.267  13.520   7.055
 5150SOL    HW217348   3.333  13.447   7.170
 5151SOL     OW17349  11.570   5.593  12.151
 5151SOL    HW117350  11.500   5.626  12.207
 5151SOL    HW217351  11.650   5.608  12.200
 5152SOL     OW17352   6.227   5.286   3.495
 5152SOL    HW117353   6.200   5.325   3.578
 5152SOL    HW217354   6.268   5.358   3.447
 5153SOL     OW17355  13.693   5.010   6.598
 5153SOL    HW117356  13.630   4.980   6.532
 5153SOL    HW217357  13.657   4.978   6.681
 5154SOL     OW17358   5.656  11.725  12.597
 5154SOL    HW117359   5.568  11.688  12.604
 5154SOL    HW217360   5.671  11.734  12.503
 5155SOL     OW17361   8.237   4.676  10.514
 5155SOL    HW117362   8.262   4.768  10.524
 5155SOL    HW217363   8.288   4.630  10.581
 5156SOL     OW17364   2.402   4.779   5.653
 5156SOL    HW117365   2.476   4.772   5.714
 5156SOL    HW217366   2.342   4.710   5.679
 5157SOL     OW17367   7.503   9.083   8.064
 5157SOL    HW117368   7.553   9.129   7.997
 5157SOL    HW217369   7.518   8.990   8.047
 5158SOL     OW17370   2.668   3.695   7.189
 5158SOL    HW117371   2.635   3.647   7.113
 5158SOL    HW217372   2.629   3.651   7.264
 5159SOL     OW17373   9.350   0.018  10.085
 5159SOL    HW117374   9.365   0.026   9.991
 5159SOL    HW217375   9.262  14.861  10.092
 5160SOL     OW17376  10.339   0.830   1.804
 5160SOL    HW117377  10.341   0.920   1.836
 5160SOL    HW217378  10.428   0.797   1.817
 5161SOL     OW17379   8.187  14.680  11.685
 5161SOL    HW117380   8.104  14.684  11.733
 5161SOL    HW217381   8.242  14.747  11.726
 5162SOL     OW17382   2.650   7.851   7.151
 5162SOL    HW117383   2.556   7.839   7.168
 5162SOL    HW217384   2.653   7.915   7.080
 5163SOL     OW17385  11.755  14.537   7.467
 5163SOL    HW117386  11.811  14.506   7.539
 5163SOL    HW217387  11.715  14.457   7.432
 5164SOL     OW17388   2.886   8.430   4.957
 5164SOL    HW117389   2.842   8.377   4.891
 5164SOL    HW217390   2.888   8.518   4.919
 5165SOL     OW17391   9.125   0.521   3.930
 5165SOL    HW117392   9.054   0.510   3.867
 5165SOL    HW217393   9.089   0.581   3.996
 5166SOL     OW17394   7.257  14.729   7.985
 5166SOL    HW117395   7.305  14.691   8.059
 5166SOL    HW217396   7.320  14.788   7.943
 5167SOL     OW17397  12.876   1.857  10.062
 5167SOL    HW117398  12.857   1.950  10.050
 5167SOL    HW217399  12.800   1.812  10.025
 5168SOL     OW17400   0.905  11.619   9.737
 5168SOL    HW117401   0.994  11.644   9.762
 5168SOL    HW217402   0.882  11.549   9.799
 5169SOL     OW17403   5.371  11.202   6.999
 5169SOL    HW117404   5.376  11.107   7.011
 5169SOL    HW217405   5.439  11.222   6.935
 5170SOL     OW17406  14.197   0.396   9.582
 5170SOL    HW117407  14.244   0.446   9.516
 5170SOL    HW217408  14.109   0.383   9.545
 5171SOL     OW17409   7.049   2.570   4.239
 5171SOL    HW117410   7.043   2.475   4.228
 5171SOL    HW217411   7.033   2.585   4.332
 5172SOL     OW17412   7.824   8.688   9.743
 5172SOL    HW117413   7.895   8.648   9.793
 5172SOL    HW217414   7.746   8.637   9.767
 5173SOL     OW17415   4.502   4.150  14.196
 5173SOL    HW117416   4.551   4.068  14.206
 5173SOL    HW217417   4.567   4.218  14.211
 5174SOL     OW17418   7.392   8.373   4.587
 5174SOL    HW117419   7.297   8.359   4.594
 5174SOL    HW217420   7.422   8.302   4.529
 5175SOL     OW17421   7.771   9.804   3.173
 5175SOL    HW117422   7.854   9.776   3.211
 5175SOL    HW217423   7.784   9.896   3.149
 5176SOL     OW17424   7.994  10.721   4.395
 5176SOL    HW117425   7.974  10.656   4.463
 5176SOL    HW217426   7.921  10.783   4.400
 5177SOL     OW17427   1.112   4.847   9.826
 5177SOL    HW117428   1.143   4.859   9.737
 5177SOL    HW217429   1.075   4.758   9.827
 5178SOL     OW17430   9.520   6.605   1.927
 5178SOL    HW117431   9.551   6.553   1.853
 5178SOL    HW217432   9.453   6.662   1.889
 5179SOL     OW17433  11.713  12.622   3.019
 5179SOL    HW117434  11.769  12.558   2.975
 5179SOL    HW217435  11.762  12.704   3.013
 5180SOL     OW17436  10.979  11.577  12.696
 5180SOL    HW117437  11.012  11.548  12.781
 5180SOL    HW217438  10.896  11.621  12.716
 5181SOL     OW17439   9.702   8.875   5.312
 5181SOL    HW117440   9.795   8.891   5.328
 5181SOL    HW217441   9.679   8.937   5.243
 5182SOL     OW17442   4.528  10.163  13.725
 5182SOL    HW117443   4.583  10.239  13.743
 5182SOL    HW217444   4.557  10.131  13.640
 5183SOL     OW17445   5.298   7.116  14.077
 5183SOL    HW117446   5.295   7.211  14.082
 5183SOL    HW217447   5.368   7.091  14.138
 5184SOL     OW17448   7.093   2.408   0.691
 5184SOL    HW117449   7.062   2.490   0.653
 5184SOL    HW217450   7.021   2.378   0.746
 5185SOL     OW17451  14.738   5.504   4.921
 5185SOL    HW117452  14.815   5.493   4.978
 5185SOL    HW217453  14.677   5.437   4.951
 5186SOL     OW17454   4.010  13.807  12.580
 5186SOL    HW117455   3.971  13.895  12.588
 5186SOL    HW217456   3.948  13.750  12.626
 5187SOL     OW17457   8.563   4.899   1.223
 5187SOL    HW117458   8.658   4.893   1.227
 5187SOL    HW217459   8.532   4.816   1.260
 5188SOL     OW17460  14.147   0.170   5.914
 5188SOL    HW117461  14.234   0.133   5.902
 5188SOL    HW217462  14.117   0.190   5.825
 5189SOL     OW17463   4.252   5.350   8.974
 5189SOL    HW117464   4.221   5.409   8.906
 5189SOL    HW217465   4.297   5.280   8.927
 5190SOL     OW17466  12.569  12.478   4.942
 5190SOL    HW117467  12.603  12.465   5.030
 5190SOL    HW217468  12.540  12.391   4.915
 5191SOL     OW17469   8.438   7.083   9.602
 5191SOL    HW117470   8.513   7.027   9.584
 5191SOL    HW217471   8.476   7.159   9.647
 5192SOL     OW17472   0.420  14.717   0.825
 5192SOL    HW117473   0.379  14.706   0.739
 5192SOL    HW217474   0.439  14.628   0.855
 5193SOL     OW17475   9.001   9.122   9.836
 5193SOL    HW117476   9.024   9.064   9.763
 5193SOL    HW217477   8.905   9.121   9.838
 5194SOL     OW17478   3.455   8.424  10.216
 5194SOL    HW117479   3.362   8.403  10.205
 5194SOL    HW217480   3.458   8.477  10.296
 5195SOL     OW17481   2.717  11.089  13.629
 5195SOL    HW117482   2.673  11.047  13.703
 5195SOL    HW217483   2.809  11.066  13.639
 5196SOL     OW17484   5.686   6.376   6.234
 5196SOL    HW117485   5.617   6.343   6.291
 5196SOL    HW217486   5.768   6.353   6.278
 5197SOL     OW17487   2.342  11.429  10.945
 5197SOL    HW117488   2.433  11.438  10.916
 5197SOL    HW217489   2.347  11.373  11.022
 5198SOL     OW17490   8.938   3.504   7.132
 5198SOL    HW117491   8.917   3.563   7.205
 5198SOL    HW217492   8.862   3.510   7.074
 5199SOL     OW17493  14.370   0.140   0.021
 5199SOL    HW117494  14.349   0.094  14.819
 5199SOL    HW217495  14.328   0.089   0.090
 5200SOL     OW17496   9.466   8.095  14.371
 5200SOL    HW117497   9.416   8.032  14.318
 5200SOL    HW217498   9.554   8.057  14.377
 5201SOL     OW17499  13.238   9.433  13.143
 5201SOL    HW117500  13.187   9.375  13.087
 5201SOL    HW217501  13.277   9.496  13.082
 5202SOL     OW17502   7.741  13.581   5.842
 5202SOL    HW117503   7.789  13.502   5.867
 5202SOL    HW217504   7.713  13.564   5.752
 5203SOL     OW17505   7.609   2.316   6.205
 5203SOL    HW117506   7.659   2.273   6.135
 5203SOL    HW217507   7.559   2.246   6.245
 5204SOL     OW17508   6.181   9.014   4.052
 5204SOL    HW117509   6.205   9.078   4.118
 5204SOL    HW217510   6.107   9.054   4.005
 5205SOL     OW17511  14.615   9.787   6.611
 5205SOL    HW117512  14.693   9.763   6.562
 5205SOL    HW217513  14.642   9.781   6.703
 5206SOL     OW17514  12.463   6.822  14.153
 5206SOL    HW117515  12.500   6.795  14.069
 5206SOL    HW217516  12.532   6.877  14.192
 5207SOL     OW17517   0.817  13.545  11.574
 5207SOL    HW117518   0.870  13.560  11.495
 5207SOL    HW217519   0.739  13.500  11.542
 5208SOL     OW17520   1.259  10.776   6.756
 5208SOL    HW117521   1.335  10.723   6.779
 5208SOL    HW217522   1.185  10.731   6.799
 5209SOL     OW17523   2.509   4.226   6.456
 5209SOL    HW117524   2.534   4.145   6.412
 5209SOL    HW217525   2.421   4.209   6.490
 5210SOL     OW17526  13.375   3.122  10.916
 5210SOL    HW117527  13.391   3.190  10.981
 5210SOL    HW217528  13.294   3.081  10.943
 5211SOL     OW17529   0.259  11.751  14.390
 5211SOL    HW117530   0.292  11.831  14.348
 5211SOL    HW217531   0.296  11.680  14.338
 5212SOL     OW17532   2.614   4.899  12.837
 5212SOL    HW117533   2.638   4.882  12.928
 5212SOL    HW217534   2.639   4.990  12.822
 5213SOL     OW17535   2.179   4.904  13.295
 5213SOL    HW117536   2.140   4.931  13.211
 5213SOL    HW217537   2.272   4.896  13.276
 5214SOL     OW17538   7.454   4.595   0.120
 5214SOL    HW117539   7.473   4.537   0.047
 5214SOL    HW217540   7.480   4.682   0.090
 5215SOL     OW17541  11.093   6.658   6.702
 5215SOL    HW117542  11.067   6.653   6.610
 5215SOL    HW217543  11.013   6.640   6.751
 5216SOL     OW17544   5.710   2.237   9.053
 5216SOL    HW117545   5.716   2.322   9.096
 5216SOL    HW217546   5.640   2.192   9.101
 5217SOL     OW17547  13.299   6.776   2.920
 5217SOL    HW117548  13.368   6.839   2.902
 5217SOL    HW217549  13.233   6.825   2.968
 5218SOL     OW17550   1.179  14.166  13.171
 5218SOL    HW117551   1.273  14.188  13.174
 5218SOL    HW217552   1.137  14.249  13.147
 5219SOL     OW17553   9.326  12.068  11.799
 5219SOL    HW117554   9.419  12.070  11.821
 5219SOL    HW217555   9.303  11.975  11.801
 5220SOL     OW17556   2.477   5.449   9.720
 5220SOL    HW117557   2.502   5.498   9.798
 5220SOL    HW217558   2.519   5.364   9.730
 5221SOL     OW17559  12.939  13.998   9.544
 5221SOL    HW117560  12.941  14.040   9.630
 5221SOL    HW217561  12.859  14.031   9.503
 5222SOL     OW17562   0.395  10.988  10.386
 5222SOL    HW117563   0.362  11.065  10.341
 5222SOL    HW217564   0.340  10.978  10.464
 5223SOL     OW17565  10.333  11.323   8.401
 5223SOL    HW117566  10.250  11.368   8.387
 5223SOL    HW217567  10.393  11.391   8.433
 5224SOL     OW17568  10.724  14.365   4.351
 5224SOL    HW117569  10.653  14.354   4.289
 5224SOL    HW217570  10.695  14.319   4.430
 5225SOL     OW17571   6.470   9.336   8.508
 5225SOL    HW117572   6.407   9.375   8.569
 5225SOL    HW217573   6.519   9.273   8.561
 5226SOL     OW17574   6.758   7.644   1.112
 5226SOL    HW117575   6.795   7.581   1.175
 5226SOL    HW217576   6.774   7.605   1.027
 5227SOL     OW17577   0.076   7.426  13.429
 5227SOL    HW117578   0.108   7.359  13.368
 5227SOL    HW217579  14.861   7.412  13.433
 5228SOL     OW17580   5.382   1.568   0.409
 5228SOL    HW117581   5.436   1.505   0.457
 5228SOL    HW217582   5.444   1.633   0.377
 5229SOL     OW17583  10.115  12.626   6.219
 5229SOL    HW117584  10.203  12.664   6.209
 5229SOL    HW217585  10.127  12.555   6.283
 5230SOL     OW17586   2.806   1.903  12.854
 5230SOL    HW117587   2.850   1.879  12.935
 5230SOL    HW217588   2.873   1.891  12.786
 5231SOL     OW17589  14.529  12.810   3.665
 5231SOL    HW117590  14.494  12.767   3.587
 5231SOL    HW217591  14.472  12.780   3.736
 5232SOL     OW17592   4.331   7.073   6.085
 5232SOL    HW117593   4.381   7.020   6.148
 5232SOL    HW217594   4.343   7.163   6.115
 5233SOL     OW17595  12.760   3.368   9.138
 5233SOL    HW117596  12.827   3.351   9.204
 5233SOL    HW217597  12.790   3.448   9.094
 5234SOL     OW17598  12.164   6.909   6.453
 5234SOL    HW117599  12.164   6.819   6.485
 5234SOL    HW217600  12.223   6.908   6.377
 5235SOL     OW17601  10.954  12.649   2.904
 5235SOL    HW117602  11.045  12.652   2.932
 5235SOL    HW217603  10.957  12.623   2.812
 5236SOL     OW17604   5.921  14.000  13.713
 5236SOL    HW117605   5.978  14.068  13.677
 5236SOL    HW217606   5.865  13.974  13.640
 5237SOL     OW17607   4.271  14.400   4.498
 5237SOL    HW117608   4.308  14.409   4.586
 5237SOL    HW217609   4.236  14.486   4.477
 5238SOL     OW17610   2.836   5.947  13.707
 5238SOL    HW117611   2.927   5.960  13.682
 5238SOL    HW217612   2.792   6.028  13.682
 5239SOL     OW17613   2.183   4.981   2.758
 5239SOL    HW117614   2.114   4.973   2.692
 5239SOL    HW217615   2.154   4.924   2.829
 5240SOL     OW17616   0.775   2.713   8.229
 5240SOL    HW117617   0.843   2.754   8.283
 5240SOL    HW217618   0.816   2.633   8.197
 5241SOL     OW17619   3.052   7.121   2.648
 5241SOL    HW117620   3.008   7.153   2.727
 5241SOL    HW217621   3.108   7.194   2.620
 5242SOL     OW17622   4.352   1.113  11.331
 5242SOL    HW117623   4.369   1.172  11.403
 5242SOL    HW217624   4.396   1.153  11.256
 5243SOL     OW17625  10.286   8.881  10.204
 5243SOL    HW117626  10.212   8.854  10.258
 5243SOL    HW217627  10.293   8.814  10.137
 5244SOL     OW17628   2.024  12.749   4.649
 5244SOL    HW117629   2.019  12.693   4.572
 5244SOL    HW217630   2.079  12.700   4.710
 5245SOL     OW17631   0.568   3.115   3.666
 5245SOL    HW117632   0.571   3.159   3.581
 5245SOL    HW217633   0.655   3.075   3.675
 5246SOL     OW17634   2.662  10.861  13.048
 5246SOL    HW117635   2.666  10.768  13.071
 5246SOL    HW217636   2.712  10.905  13.117
 5247SOL     OW17637   0.164  12.527  13.482
 5247SOL    HW117638   0.187  12.463  13.414
 5247SOL    HW217639   0.075  12.554  13.461
 5248SOL     OW17640  10.436   0.700   0.569
 5248SOL    HW117641  10.369   0.695   0.501
 5248SOL    HW217642  10.516   0.725   0.522
 5249SOL     OW17643   2.501  14.251  12.541
 5249SOL    HW117644   2.492  14.335  12.586
 5249SOL    HW217645   2.582  14.214  12.575
 5250SOL     OW17646   3.400   9.647  13.076
 5250SOL    HW117647   3.436   9.650  13.165
 5250SOL    HW217648   3.432   9.728  13.035
 5251SOL     OW17649  14.529  14.425  13.226
 5251SOL    HW117650  14.545  14.507  13.178
 5251SOL    HW217651  14.434  14.414  13.223
 5252SOL     OW17652  13.257   6.588   7.182
 5252SOL    HW117653  13.190   6.550   7.125
 5252SOL    HW217654  13.208   6.646   7.241
 5253SOL     OW17655   7.706   7.643  14.221
 5253SOL    HW117656   7.793   7.646  14.262
 5253SOL    HW217657   7.693   7.731  14.187
 5254SOL     OW17658  11.305   2.018   7.294
 5254SOL    HW117659  11.380   1.964   7.319
 5254SOL    HW217660  11.238   1.998   7.360
 5255SOL     OW17661   5.587   3.931  12.105
 5255SOL    HW117662   5.597   3.933  12.010
 5255SOL    HW217663   5.663   3.978  12.139
 5256SOL     OW17664   1.727   4.830   3.497
 5256SOL    HW117665   1.747   4.737   3.493
 5256SOL    HW217666   1.646   4.840   3.447
 5257SOL     OW17667   2.121   7.874   1.920
 5257SOL    HW117668   2.111   7.826   1.838
 5257SOL    HW217669   2.186   7.824   1.969
 5258SOL     OW17670  14.680   4.332   7.847
 5258SOL    HW117671  14.731   4.316   7.767
 5258SOL    HW217672  14.620   4.257   7.852
 5259SOL     OW17673   2.904  10.048  11.152
 5259SOL    HW117674   2.856   9.969  11.178
 5259SOL    HW217675   2.988  10.015  11.121
 5260SOL     OW17676   3.612   5.946   5.405
 5260SOL    HW117677   3.586   5.949   5.497
 5260SOL    HW217678   3.646   5.857   5.392
 5261SOL     OW17679   0.453  11.109   7.065
 5261SOL    HW117680   0.477  11.132   6.975
 5261SOL    HW217681   0.479  11.017   7.073
 5262SOL     OW17682   2.263  10.035  13.875
 5262SOL    HW117683   2.214  10.093  13.933
 5262SOL    HW217684   2.354  10.044  13.903
 5263SOL     OW17685   1.922  10.541   6.298
 5263SOL    HW117686   1.976  10.618   6.314
 5263SOL    HW217687   1.868  10.564   6.222
 5264SOL     OW17688   9.061   2.147   6.420
 5264SOL    HW117689   9.113   2.095   6.359
 5264SOL    HW217690   9.058   2.093   6.500
 5265SOL     OW17691  14.845   8.131  14.364
 5265SOL    HW117692   0.053   8.114  14.397
 5265SOL    HW217693  14.787   8.082  14.422
 5266SOL     OW17694  13.670   9.969   5.621
 5266SOL    HW117695  13.718   9.971   5.704
 5266SOL    HW217696  13.623  10.052   5.618
 5267SOL     OW17697  14.300  14.517   6.116
 5267SOL    HW117698  14.385  14.519   6.072
 5267SOL    HW217699  14.311  14.573   6.193
 5268SOL     OW17700   5.584   0.193  11.131
 5268SOL    HW117701   5.522   0.182  11.059
 5268SOL    HW217702   5.657   0.243  11.093
 5269SOL     OW17703   1.940   0.890  12.906
 5269SOL    HW117704   1.913   0.803  12.935
 5269SOL    HW217705   1.870   0.948  12.935
 5270SOL     OW17706  11.135   5.928  11.130
 5270SOL    HW117707  11.214   5.934  11.184
 5270SOL    HW217708  11.137   6.006  11.076
 5271SOL     OW17709  13.773  11.814  10.241
 5271SOL    HW117710  13.705  11.746  10.251
 5271SOL    HW217711  13.795  11.839  10.330
 5272SOL     OW17712  13.294   3.951  13.067
 5272SOL    HW117713  13.303   3.865  13.027
 5272SOL    HW217714  13.370   3.958  13.125
 5273SOL     OW17715   8.717  14.163   6.778
 5273SOL    HW117716   8.796  14.176   6.830
 5273SOL    HW217717   8.680  14.081   6.810
 5274SOL     OW17718   7.513   7.873  14.002
 5274SOL    HW117719   7.514   7.931  13.926
 5274SOL    HW217720   7.422   7.841  14.007
 5275SOL     OW17721   5.060   9.940   6.107
 5275SOL    HW117722   5.020   9.970   6.189
 5275SOL    HW217723   5.144   9.986   6.103
 5276SOL     OW17724   6.426   0.703   5.967
 5276SOL    HW117725   6.367   0.638   6.005
 5276SOL    HW217726   6.513   0.674   5.995
 5277SOL     OW17727  14.420  14.429   2.898
 5277SOL    HW117728  14.498  14.414   2.845
 5277SOL    HW217729  14.388  14.342   2.920
 5278SOL     OW17730  14.404  13.311   6.475
 5278SOL    HW117731  14.448  13.272   6.550
 5278SOL    HW217732  14.448  13.274   6.398
 5279SOL     OW17733   3.008  11.550  13.354
 5279SOL    HW117734   3.002  11.459  13.382
 5279SOL    HW217735   3.074  11.549  13.284
 5280SOL     OW17736   8.007   4.754   2.773
 5280SOL    HW117737   7.981   4.686   2.835
 5280SOL    HW217738   8.023   4.831   2.829
 5281SOL     OW17739  10.331  10.510   5.521
 5281SOL    HW117740  10.285  10.446   5.575
 5281SOL    HW217741  10.335  10.589   5.576
 5282SOL     OW17742   6.673   9.682   1.106
 5282SOL    HW117743   6.721   9.698   1.024
 5282SOL    HW217744   6.742   9.662   1.170
 5283SOL     OW17745   7.621   9.430   1.269
 5283SOL    HW117746   7.680   9.409   1.197
 5283SOL    HW217747   7.606   9.347   1.313
 5284SOL     OW17748   9.208  12.990   1.284
 5284SOL    HW117749   9.301  12.971   1.276
 5284SOL    HW217750   9.200  13.081   1.257
 5285SOL     OW17751  10.032  10.056   4.359
 5285SOL    HW117752   9.951  10.006   4.364
 5285SOL    HW217753  10.083  10.025   4.434
 5286SOL     OW17754   8.579   7.723   6.471
 5286SOL    HW117755   8.493   7.680   6.470
 5286SOL    HW217756   8.639   7.656   6.503
 5287SOL     OW17757   3.591   3.239  14.170
 5287SOL    HW117758   3.496   3.234  14.169
 5287SOL    HW217759   3.620   3.148  14.178
 5288SOL     OW17760  11.493   3.716  10.256
 5288SOL    HW117761  11.502   3.664  10.176
 5288SOL    HW217762  11.583   3.739  10.280
 5289SOL     OW17763   0.911  14.273   0.359
 5289SOL    HW117764   0.924  14.199   0.420
 5289SOL    HW217765   0.816  14.283   0.355
 5290SOL     OW17766   5.859   8.864  12.453
 5290SOL    HW117767   5.841   8.899  12.365
 5290SOL    HW217768   5.799   8.790  12.462
 5291SOL     OW17769  13.497   7.182  13.200
 5291SOL    HW117770  13.405   7.187  13.227
 5291SOL    HW217771  13.541   7.250  13.252
 5292SOL     OW17772   1.365   1.941   3.343
 5292SOL    HW117773   1.324   1.871   3.292
 5292SOL    HW217774   1.291   1.987   3.383
 5293SOL     OW17775   0.687   4.668  11.085
 5293SOL    HW117776   0.619   4.637  11.144
 5293SOL    HW217777   0.691   4.602  11.015
 5294SOL     OW17778  11.774   6.942   7.728
 5294SOL    HW117779  11.771   6.860   7.679
 5294SOL    HW217780  11.792   6.916   7.818
 5295SOL     OW17781   6.969   3.516   8.534
 5295SOL    HW117782   6.907   3.491   8.602
 5295SOL    HW217783   7.053   3.479   8.564
 5296SOL     OW17784  11.031  14.652   3.952
 5296SOL    HW117785  11.072  14.607   4.026
 5296SOL    HW217786  10.977  14.720   3.991
 5297SOL     OW17787  12.287  14.134  14.579
 5297SOL    HW117788  12.334  14.147  14.496
 5297SOL    HW217789  12.225  14.207  14.583
 5298SOL     OW17790   0.019   5.653   2.094
 5298SOL    HW117791  14.838   5.631   2.024
 5298SOL    HW217792   0.030   5.572   2.144
 5299SOL     OW17793   1.075   1.432  13.265
 5299SOL    HW117794   1.028   1.467  13.189
 5299SOL    HW217795   1.056   1.339  13.265
 5300SOL     OW17796   4.127   8.209  10.363
 5300SOL    HW117797   4.080   8.133  10.329
 5300SOL    HW217798   4.153   8.258  10.285
 5301SOL     OW17799  12.489  12.446   6.772
 5301SOL    HW117800  12.454  12.360   6.795
 5301SOL    HW217801  12.490  12.447   6.676
 5302SOL     OW17802  11.900  12.233  11.937
 5302SOL    HW117803  11.974  12.184  11.901
 5302SOL    HW217804  11.861  12.174  12.002
 5303SOL     OW17805   7.393   5.651   0.911
 5303SOL    HW117806   7.396   5.573   0.966
 5303SOL    HW217807   7.302   5.654   0.879
 5304SOL     OW17808   0.429   3.829  12.089
 5304SOL    HW117809   0.507   3.785  12.122
 5304SOL    HW217810   0.375   3.845  12.166
 5305SOL     OW17811   9.871   6.024   1.238
 5305SOL    HW117812   9.786   6.057   1.211
 5305SOL    HW217813   9.854   5.977   1.319
 5306SOL     OW17814   4.175   2.724  11.898
 5306SOL    HW117815   4.083   2.747  11.884
 5306SOL    HW217816   4.173   2.634  11.929
 5307SOL     OW17817   0.308   0.528  11.096
 5307SOL    HW117818   0.343   0.603  11.047
 5307SOL    HW217819   0.355   0.452  11.061
 5308SOL     OW17820   5.396  12.832   4.255
 5308SOL    HW117821   5.328  12.822   4.321
 5308SOL    HW217822   5.438  12.915   4.276
 5309SOL     OW17823  10.114  11.538  14.016
 5309SOL    HW117824  10.109  11.542  14.112
 5309SOL    HW217825  10.076  11.620  13.987
 5310SOL     OW17826   4.204   9.483  13.526
 5310SOL    HW117827   4.213   9.567  13.480
 5310SOL    HW217828   4.188   9.507  13.617
 5311SOL     OW17829  12.148   4.330   9.915
 5311SOL    HW117830  12.142   4.259   9.851
 5311SOL    HW217831  12.093   4.301   9.988
 5312SOL     OW17832  13.753   0.562   7.783
 5312SOL    HW117833  13.756   0.509   7.863
 5312SOL    HW217834  13.843   0.594   7.773
 5313SOL     OW17835  13.032   8.426  11.311
 5313SOL    HW117836  12.947   8.443  11.351
 5313SOL    HW217837  13.087   8.395  11.384
 5314SOL     OW17838  13.263   4.595  12.785
 5314SOL    HW117839  13.257   4.657  12.859
 5314SOL    HW217840  13.202   4.630  12.720
 5315SOL     OW17841   5.759   8.357  12.583
 5315SOL    HW117842   5.696   8.286  12.571
 5315SOL    HW217843   5.838   8.325  12.539
 5316SOL     OW17844  12.359   1.135   2.984
 5316SOL    HW117845  12.307   1.083   2.922
 5316SOL    HW217846  12.294   1.179   3.039
 5317SOL     OW17847   3.838  11.457   4.331
 5317SOL    HW117848   3.800  11.391   4.272
 5317SOL    HW217849   3.824  11.540   4.286
 5318SOL     OW17850   4.773  11.237   0.729
 5318SOL    HW117851   4.752  11.233   0.822
 5318SOL    HW217852   4.837  11.308   0.722
 5319SOL     OW17853   4.377  12.574   3.371
 5319SOL    HW117854   4.437  12.561   3.297
 5319SOL    HW217855   4.290  12.576   3.331
 5320SOL     OW17856   4.255  12.558   4.978
 5320SOL    HW117857   4.275  12.496   5.049
 5320SOL    HW217858   4.333  12.613   4.971
 5321SOL     OW17859   9.290   1.168   4.453
 5321SOL    HW117860   9.365   1.209   4.496
 5321SOL    HW217861   9.291   1.077   4.484
 5322SOL     OW17862   4.052   6.216   8.286
 5322SOL    HW117863   4.101   6.228   8.367
 5322SOL    HW217864   3.973   6.270   8.297
 5323SOL     OW17865   3.437   8.127   7.628
 5323SOL    HW117866   3.360   8.089   7.587
 5323SOL    HW217867   3.501   8.055   7.629
 5324SOL     OW17868  13.707   0.163   0.352
 5324SOL    HW117869  13.726   0.256   0.349
 5324SOL    HW217870  13.622   0.156   0.396
 5325SOL     OW17871   6.902  14.347  10.611
 5325SOL    HW117872   6.911  14.272  10.553
 5325SOL    HW217873   6.815  14.339  10.649
 5326SOL     OW17874  12.233   7.798   5.895
 5326SOL    HW117875  12.230   7.779   5.988
 5326SOL    HW217876  12.142   7.794   5.866
 5327SOL     OW17877  12.598   6.999   9.811
 5327SOL    HW117878  12.578   7.034   9.724
 5327SOL    HW217879  12.572   7.068   9.872
 5328SOL     OW17880   1.105   5.143  13.263
 5328SOL    HW117881   1.069   5.171  13.179
 5328SOL    HW217882   1.149   5.221  13.298
 5329SOL     OW17883   0.412   1.315   6.425
 5329SOL    HW117884   0.505   1.317   6.402
 5329SOL    HW217885   0.411   1.326   6.520
 5330SOL     OW17886   3.720  10.805   2.884
 5330SOL    HW117887   3.678  10.723   2.910
 5330SOL    HW217888   3.782  10.780   2.815
 5331SOL     OW17889  11.503  14.834   8.031
 5331SOL    HW117890  11.528   0.002   8.110
 5331SOL    HW217891  11.415  14.866   8.009
 5332SOL     OW17892   0.232   1.635  10.528
 5332SOL    HW117893   0.254   1.595  10.612
 5332SOL    HW217894   0.280   1.719  10.528
 5333SOL     OW17895   5.154   4.599   2.662
 5333SOL    HW117896   5.191   4.551   2.587
 5333SOL    HW217897   5.059   4.592   2.649
 5334SOL     OW17898  11.464   3.509  10.693
 5334SOL    HW117899  11.518   3.436  10.724
 5334SOL    HW217900  11.525   3.580  10.677
 5335SOL     OW17901   0.783   7.498   9.206
 5335SOL    HW117902   0.877   7.483   9.189
 5335SOL    HW217903   0.781   7.563   9.275
 5336SOL     OW17904  11.673   7.706   7.758
 5336SOL    HW117905  11.711   7.774   7.702
 5336SOL    HW217906  11.612   7.753   7.814
 5337SOL     OW17907   6.156   1.448  11.535
 5337SOL    HW117908   6.106   1.477  11.611
 5337SOL    HW217909   6.094   1.451  11.462
 5338SOL     OW17910  12.020   3.120   6.441
 5338SOL    HW117911  12.059   3.046   6.487
 5338SOL    HW217912  12.070   3.127   6.360
 5339SOL     OW17913   0.758   8.833   7.813
 5339SOL    HW117914   0.721   8.863   7.730
 5339SOL    HW217915   0.682   8.808   7.866
 5340SOL     OW17916   6.523   4.680   9.760
 5340SOL    HW117917   6.495   4.629   9.684
 5340SOL    HW217918   6.558   4.615   9.821
 5341SOL     OW17919   1.762   6.918   0.235
 5341SOL    HW117920   1.675   6.948   0.260
 5341SOL    HW217921   1.821   6.986   0.268
 5342SOL     OW17922  12.141  10.055   7.846
 5342SOL    HW117923  12.124  10.012   7.930
 5342SOL    HW217924  12.147   9.983   7.783
 5343SOL     OW17925   7.759  11.121   3.059
 5343SOL    HW117926   7.812  11.046   3.033
 5343SOL    HW217927   7.670  11.098   3.032
 5344SOL     OW17928   6.797   3.714   7.338
 5344SOL    HW117929   6.737   3.749   7.272
 5344SOL    HW217930   6.744   3.706   7.417
 5345SOL     OW17931  10.071   0.224   9.185
 5345SOL    HW117932  10.134   0.252   9.119
 5345SOL    HW217933  10.054   0.132   9.165
 5346SOL     OW17934  13.899   2.942   7.247
 5346SOL    HW117935  13.820   2.919   7.296
 5346SOL    HW217936  13.869   3.007   7.183
 5347SOL     OW17937   6.891   2.283  12.276
 5347SOL    HW117938   6.870   2.203  12.325
 5347SOL    HW217939   6.906   2.253  12.186
 5348SOL     OW17940   9.882  10.708   0.312
 5348SOL    HW117941   9.949  10.747   0.369
 5348SOL    HW217942   9.805  10.762   0.326
 5349SOL     OW17943   3.702   4.854   6.920
 5349SOL    HW117944   3.766   4.833   6.852
 5349SOL    HW217945   3.637   4.908   6.875
 5350SOL     OW17946  13.334   7.780  14.621
 5350SOL    HW117947  13.322   7.867  14.584
 5350SOL    HW217948  13.280   7.724  14.565
 5351SOL     OW17949   8.204  10.048   8.779
 5351SOL    HW117950   8.270  10.014   8.718
 5351SOL    HW217951   8.169  10.125   8.735
 5352SOL     OW17952   7.203  14.473   2.571
 5352SOL    HW117953   7.195  14.545   2.634
 5352SOL    HW217954   7.156  14.504   2.494
 5353SOL     OW17955   8.027   5.826  11.603
 5353SOL    HW117956   8.069   5.851  11.686
 5353SOL    HW217957   8.041   5.732  11.597
 5354SOL     OW17958  10.479  11.062   7.439
 5354SOL    HW117959  10.450  11.143   7.481
 5354SOL    HW217960  10.574  11.062   7.452
 5355SOL     OW17961   9.859   3.580   2.845
 5355SOL    HW117962   9.765   3.583   2.828
 5355SOL    HW217963   9.876   3.659   2.896
 5356SOL     OW17964  11.353  11.603   5.853
 5356SOL    HW117965  11.379  11.511   5.855
 5356SOL    HW217966  11.434  11.651   5.866
 5357SOL     OW17967   9.562   5.749   5.273
 5357SOL    HW117968   9.601   5.836   5.266
 5357SOL    HW217969   9.579   5.722   5.364
 5358SOL     OW17970   4.190   3.742   7.587
 5358SOL    HW117971   4.215   3.816   7.531
 5358SOL    HW217972   4.105   3.768   7.624
 5359SOL     OW17973   7.482  12.150   4.662
 5359SOL    HW117974   7.417  12.079   4.658
 5359SOL    HW217975   7.489  12.181   4.572
 5360SOL     OW17976  11.900   9.687   6.513
 5360SOL    HW117977  11.887   9.592   6.517
 5360SOL    HW217978  11.995   9.698   6.518
 5361SOL     OW17979   4.360   5.329   1.602
 5361SOL    HW117980   4.335   5.351   1.692
 5361SOL    HW217981   4.356   5.233   1.599
 5362SOL     OW17982   1.815   1.853   2.811
 5362SOL    HW117983   1.879   1.823   2.747
 5362SOL    HW217984   1.782   1.935   2.775
 5363SOL     OW17985   6.398   4.339   2.297
 5363SOL    HW117986   6.440   4.283   2.232
 5363SOL    HW217987   6.396   4.426   2.257
 5364SOL     OW17988   1.952   9.282   7.340
 5364SOL    HW117989   1.866   9.249   7.314
 5364SOL    HW217990   2.011   9.252   7.271
 5365SOL     OW17991   2.848  13.052  13.569
 5365SOL    HW117992   2.758  13.022  13.582
 5365SOL    HW217993   2.866  13.107  13.646
 5366SOL     OW17994   0.385   1.394   4.594
 5366SOL    HW117995   0.308   1.352   4.632
 5366SOL    HW217996   0.417   1.331   4.529
 5367SOL     OW17997  12.446   1.064  12.773
 5367SOL    HW117998  12.446   1.091  12.681
 5367SOL    HW217999  12.372   1.004  12.781
 5368SOL     OW18000   9.836   6.588   6.037
 5368SOL    HW118001   9.821   6.659   6.100
 5368SOL    HW218002   9.798   6.620   5.955
 5369SOL     OW18003   1.767  13.151   7.464
 5369SOL    HW118004   1.852  13.111   7.447
 5369SOL    HW218005   1.704  13.084   7.440
 5370SOL     OW18006   3.385   7.248   7.347
 5370SOL    HW118007   3.432   7.246   7.431
 5370SOL    HW218008   3.363   7.341   7.335
 5371SOL     OW18009   7.139  14.277   4.556
 5371SOL    HW118010   7.202  14.241   4.494
 5371SOL    HW218011   7.075  14.323   4.502
 5372SOL     OW18012  11.860   2.819  13.423
 5372SOL    HW118013  11.826   2.784  13.341
 5372SOL    HW218014  11.888   2.909  13.401
 5373SOL     OW18015  10.256   2.846   2.188
 5373SOL    HW118016  10.185   2.903   2.216
 5373SOL    HW218017  10.271   2.788   2.262
 5374SOL     OW18018   3.018   6.126   2.745
 5374SOL    HW118019   3.001   6.124   2.651
 5374SOL    HW218020   3.035   6.218   2.765
 5375SOL     OW18021  11.774  14.376   3.535
 5375SOL    HW118022  11.864  14.346   3.544
 5375SOL    HW218023  11.780  14.461   3.492
 5376SOL     OW18024  13.768   9.631  10.723
 5376SOL    HW118025  13.832   9.658  10.789
 5376SOL    HW218026  13.693   9.601  10.774
 5377SOL     OW18027  13.962  10.245   5.154
 5377SOL    HW118028  14.047  10.221   5.191
 5377SOL    HW218029  13.915  10.163   5.146
 5378SOL     OW18030   1.953   4.761   1.419
 5378SOL    HW118031   2.000   4.780   1.337
 5378SOL    HW218032   2.006   4.803   1.487
 5379SOL     OW18033   3.146   9.826   2.141
 5379SOL    HW118034   3.240   9.841   2.152
 5379SOL    HW218035   3.111   9.829   2.229
 5380SOL     OW18036   3.089   1.033   0.230
 5380SOL    HW118037   3.132   1.010   0.312
 5380SOL    HW218038   3.059   1.123   0.242
 5381SOL     OW18039  11.401   7.867   4.665
 5381SOL    HW118040  11.374   7.816   4.589
 5381SOL    HW218041  11.493   7.845   4.677
 5382SOL     OW18042  14.141   7.277  10.030
 5382SOL    HW118043  14.114   7.201   9.978
 5382SOL    HW218044  14.062   7.305  10.076
 5383SOL     OW18045   3.300  13.958  14.042
 5383SOL    HW118046   3.394  13.964  14.020
 5383SOL    HW218047   3.255  13.978  13.960
 5384SOL     OW18048  11.218   9.223  12.416
 5384SOL    HW118049  11.299   9.236  12.365
 5384SOL    HW218050  11.156   9.285  12.377
 5385SOL     OW18051   8.792  10.040  10.540
 5385SOL    HW118052   8.806  10.038  10.445
 5385SOL    HW218053   8.779  10.133  10.560
 5386SOL     OW18054  10.500  11.372  14.291
 5386SOL    HW118055  10.561  11.321  14.344
 5386SOL    HW218056  10.453  11.427  14.354
 5387SOL     OW18057  10.086   6.408   6.468
 5387SOL    HW118058  10.158   6.471   6.472
 5387SOL    HW218059  10.013   6.452   6.513
 5388SOL     OW18060   5.788   6.676   7.333
 5388SOL    HW118061   5.750   6.764   7.334
 5388SOL    HW218062   5.879   6.690   7.361
 5389SOL     OW18063  11.865  11.069   7.575
 5389SOL    HW118064  11.945  11.019   7.559
 5389SOL    HW218065  11.824  11.025   7.650
 5390SOL     OW18066  12.546  11.479   0.741
 5390SOL    HW118067  12.525  11.388   0.720
 5390SOL    HW218068  12.626  11.497   0.692
 5391SOL     OW18069   3.135   2.123   2.228
 5391SOL    HW118070   3.177   2.109   2.312
 5391SOL    HW218071   3.199   2.093   2.163
 5392SOL     OW18072   5.110  12.283  11.074
 5392SOL    HW118073   5.134  12.295  10.982
 5392SOL    HW218074   5.193  12.270  11.119
 5393SOL     OW18075  10.390   9.195   5.648
 5393SOL    HW118076  10.441   9.151   5.580
 5393SOL    HW218077  10.352   9.271   5.604
 5394SOL     OW18078   2.094   6.568   3.518
 5394SOL    HW118079   2.179   6.525   3.530
 5394SOL    HW218080   2.113   6.644   3.464
 5395SOL     OW18081  13.952   1.161   4.032
 5395SOL    HW118082  14.015   1.101   4.073
 5395SOL    HW218083  13.964   1.244   4.079
 5396SOL     OW18084   0.565   3.517   8.966
 5396SOL    HW118085   0.541   3.439   8.916
 5396SOL    HW218086   0.542   3.495   9.057
 5397SOL     OW18087  12.623   2.489   7.649
 5397SOL    HW118088  12.702   2.446   7.616
 5397SOL    HW218089  12.600   2.552   7.580
 5398SOL     OW18090   3.922  10.897   3.959
 5398SOL    HW118091   3.919  10.803   3.977
 5398SOL    HW218092   4.013  10.922   3.978
 5399SOL     OW18093  14.614   0.519   3.354
 5399SOL    HW118094  14.522   0.494   3.358
 5399SOL    HW218095  14.643   0.491   3.267
 5400SOL     OW18096   8.280   1.318   2.388
 5400SOL    HW118097   8.220   1.374   2.339
 5400SOL    HW218098   8.285   1.359   2.475
 5401SOL     OW18099  10.495   6.859   8.200
 5401SOL    HW118100  10.407   6.825   8.215
 5401SOL    HW218101  10.486   6.954   8.203
 5402SOL     OW18102   3.072  11.952  13.570
 5402SOL    HW118103   3.132  12.006  13.623
 5402SOL    HW218104   3.112  11.949  13.484
 5403SOL     OW18105   5.677   8.177   2.677
 5403SOL    HW118106   5.733   8.114   2.633
 5403SOL    HW218107   5.588   8.143   2.666
 5404SOL     OW18108   3.889   6.321   4.443
 5404SOL    HW118109   3.938   6.277   4.512
 5404SOL    HW218110   3.912   6.413   4.451
 5405SOL     OW18111   0.310   1.541   7.938
 5405SOL    HW118112   0.405   1.555   7.932
 5405SOL    HW218113   0.272   1.616   7.890
 5406SOL     OW18114  10.430   6.183   3.460
 5406SOL    HW118115  10.385   6.100   3.447
 5406SOL    HW218116  10.456   6.183   3.552
 5407SOL     OW18117  12.888   2.325  12.152
 5407SOL    HW118118  12.846   2.245  12.122
 5407SOL    HW218119  12.974   2.296  12.185
 5408SOL     OW18120   6.120  12.968   7.494
 5408SOL    HW118121   6.036  12.925   7.483
 5408SOL    HW218122   6.100  13.053   7.531
 5409SOL     OW18123  14.412  12.251   2.859
 5409SOL    HW118124  14.413  12.330   2.913
 5409SOL    HW218125  14.448  12.183   2.916
 5410SOL     OW18126  11.554  14.426  10.319
 5410SOL    HW118127  11.485  14.361  10.313
 5410SOL    HW218128  11.631  14.377  10.349
 5411SOL     OW18129   6.691   2.892   9.660
 5411SOL    HW118130   6.773   2.918   9.703
 5411SOL    HW218131   6.662   2.972   9.616
 5412SOL     OW18132   9.899   2.735   0.580
 5412SOL    HW118133   9.967   2.720   0.514
 5412SOL    HW218134   9.939   2.708   0.662
 5413SOL     OW18135  12.796   6.094  12.187
 5413SOL    HW118136  12.745   6.015  12.199
 5413SOL    HW218137  12.882   6.063  12.158
 5414SOL     OW18138  11.102   5.763   9.803
 5414SOL    HW118139  11.023   5.737   9.850
 5414SOL    HW218140  11.109   5.857   9.818
 5415SOL     OW18141   7.279   0.851   4.512
 5415SOL    HW118142   7.276   0.943   4.536
 5415SOL    HW218143   7.191   0.832   4.478
 5416SOL     OW18144   3.258  12.284  12.800
 5416SOL    HW118145   3.230  12.193  12.811
 5416SOL    HW218146   3.243  12.302  12.707
 5417SOL     OW18147  11.258   2.158   1.498
 5417SOL    HW118148  11.256   2.075   1.546
 5417SOL    HW218149  11.239   2.134   1.408
 5418SOL     OW18150   4.766   5.958  10.821
 5418SOL    HW118151   4.752   5.987  10.911
 5418SOL    HW218152   4.744   5.865  10.822
 5419SOL     OW18153   1.858   6.544   1.141
 5419SOL    HW118154   1.809   6.497   1.074
 5419SOL    HW218155   1.941   6.567   1.099
 5420SOL     OW18156  13.870  11.660   8.498
 5420SOL    HW118157  13.899  11.748   8.475
 5420SOL    HW218158  13.823  11.629   8.421
 5421SOL     OW18159   4.440  10.158   8.973
 5421SOL    HW118160   4.437  10.136   8.880
 5421SOL    HW218161   4.533  10.157   8.995
 5422SOL     OW18162   5.667   6.474   0.512
 5422SOL    HW118163   5.620   6.405   0.465
 5422SOL    HW218164   5.638   6.465   0.602
 5423SOL     OW18165   9.369  12.685   4.866
 5423SOL    HW118166   9.347  12.668   4.774
 5423SOL    HW218167   9.409  12.603   4.896
 5424SOL     OW18168   1.547   9.749   2.002
 5424SOL    HW118169   1.481   9.718   1.940
 5424SOL    HW218170   1.561   9.675   2.061
 5425SOL     OW18171   4.812   9.478  12.680
 5425SOL    HW118172   4.783   9.388  12.672
 5425SOL    HW218173   4.744   9.529  12.635
 5426SOL     OW18174   5.111   0.211  10.931
 5426SOL    HW118175   5.059   0.185  10.855
 5426SOL    HW218176   5.106   0.307  10.933
 5427SOL     OW18177  13.307   2.306   4.273
 5427SOL    HW118178  13.394   2.326   4.307
 5427SOL    HW218179  13.250   2.309   4.350
 5428SOL     OW18180   0.584  14.192  11.888
 5428SOL    HW118181   0.507  14.177  11.833
 5428SOL    HW218182   0.615  14.104  11.909
 5429SOL     OW18183   0.243   3.039  14.060
 5429SOL    HW118184   0.203   3.118  14.022
 5429SOL    HW218185   0.186   2.968  14.031
 5430SOL     OW18186   9.624  12.678   3.572
 5430SOL    HW118187   9.655  12.633   3.493
 5430SOL    HW218188   9.696  12.669   3.635
 5431SOL     OW18189   6.103  10.532   7.936
 5431SOL    HW118190   6.106  10.437   7.948
 5431SOL    HW218191   6.131  10.568   8.020
 5432SOL     OW18192   5.082   1.963  11.145
 5432SOL    HW118193   4.996   1.923  11.155
 5432SOL    HW218194   5.144   1.890  11.154
 5433SOL     OW18195  10.850   3.608  11.600
 5433SOL    HW118196  10.938   3.607  11.636
 5433SOL    HW218197  10.818   3.697  11.617
 5434SOL     OW18198   6.094   9.216   4.665
 5434SOL    HW118199   6.186   9.227   4.642
 5434SOL    HW218200   6.063   9.143   4.612
 5435SOL     OW18201   9.970  14.142   8.193
 5435SOL    HW118202   9.904  14.075   8.176
 5435SOL    HW218203   9.919  14.219   8.219
 5436SOL     OW18204  14.284   1.307  12.147
 5436SOL    HW118205  14.343   1.256  12.202
 5436SOL    HW218206  14.309   1.398  12.162
 5437SOL     OW18207   1.791   1.736  10.460
 5437SOL    HW118208   1.876   1.706  10.429
 5437SOL    HW218209   1.758   1.791  10.389
 5438SOL     OW18210   7.470   7.483   1.466
 5438SOL    HW118211   7.492   7.552   1.527
 5438SOL    HW218212   7.536   7.489   1.397
 5439SOL     OW18213   4.575  14.723  11.533
 5439SOL    HW118214   4.533  14.757  11.612
 5439SOL    HW218215   4.603  14.634  11.557
 5440SOL     OW18216   5.439   8.390   7.506
 5440SOL    HW118217   5.416   8.306   7.547
 5440SOL    HW218218   5.433   8.373   7.412
 5441SOL     OW18219   3.828   1.448   5.934
 5441SOL    HW118220   3.763   1.506   5.972
 5441SOL    HW218221   3.910   1.472   5.978
 5442SOL     OW18222   4.541   4.929   7.160
 5442SOL    HW118223   4.600   4.863   7.123
 5442SOL    HW218224   4.456   4.886   7.164
 5443SOL     OW18225  11.582   2.156  11.473
 5443SOL    HW118226  11.677   2.147  11.485
 5443SOL    HW218227  11.551   2.190  11.557
 5444SOL     OW18228   9.307  12.663   6.813
 5444SOL    HW118229   9.305  12.647   6.907
 5444SOL    HW218230   9.400  12.663   6.791
 5445SOL     OW18231   3.486   5.162   9.444
 5445SOL    HW118232   3.430   5.181   9.369
 5445SOL    HW218233   3.433   5.186   9.520
 5446SOL     OW18234   1.394   5.947   8.352
 5446SOL    HW118235   1.441   5.907   8.425
 5446SOL    HW218236   1.420   5.895   8.276
 5447SOL     OW18237   4.735   9.306   4.818
 5447SOL    HW118238   4.736   9.244   4.891
 5447SOL    HW218239   4.785   9.264   4.749
 5448SOL     OW18240   2.660   7.298   5.496
 5448SOL    HW118241   2.580   7.263   5.536
 5448SOL    HW218242   2.636   7.388   5.471
 5449SOL     OW18243   7.057  13.102   0.298
 5449SOL    HW118244   7.111  13.149   0.235
 5449SOL    HW218245   7.029  13.023   0.252
 5450SOL     OW18246   6.595   4.935   9.429
 5450SOL    HW118247   6.567   4.994   9.499
 5450SOL    HW218248   6.517   4.925   9.375
 5451SOL     OW18249   7.347   2.595   6.478
 5451SOL    HW118250   7.405   2.525   6.505
 5451SOL    HW218251   7.327   2.577   6.386
 5452SOL     OW18252  12.576   2.744   2.252
 5452SOL    HW118253  12.489   2.719   2.221
 5452SOL    HW218254  12.577   2.717   2.344
 5453SOL     OW18255   5.415   0.639   5.074
 5453SOL    HW118256   5.373   0.554   5.056
 5453SOL    HW218257   5.491   0.617   5.127
 5454SOL     OW18258   9.187   0.087   6.149
 5454SOL    HW118259   9.226   0.166   6.112
 5454SOL    HW218260   9.226   0.079   6.236
 5455SOL     OW18261   0.840   5.939  11.212
 5455SOL    HW118262   0.898   5.996  11.263
 5455SOL    HW218263   0.886   5.856  11.208
 5456SOL     OW18264  13.634  14.053  13.296
 5456SOL    HW118265  13.726  14.040  13.322
 5456SOL    HW218266  13.594  13.967  13.307
 5457SOL     OW18267   3.804   1.759   1.022
 5457SOL    HW118268   3.890   1.773   1.062
 5457SOL    HW218269   3.741   1.787   1.089
 5458SOL     OW18270   7.732   5.976   5.900
 5458SOL    HW118271   7.719   6.029   5.978
 5458SOL    HW218272   7.798   5.911   5.925
 5459SOL     OW18273   4.413  12.043   7.590
 5459SOL    HW118274   4.415  12.108   7.660
 5459SOL    HW218275   4.453  11.964   7.628
 5460SOL     OW18276   5.689   5.422   1.378
 5460SOL    HW118277   5.653   5.440   1.465
 5460SOL    HW218278   5.766   5.367   1.394
 5461SOL     OW18279  13.323   4.586  12.267
 5461SOL    HW118280  13.229   4.605  12.258
 5461SOL    HW218281  13.327   4.492  12.282
 5462SOL     OW18282   2.908   1.830   7.288
 5462SOL    HW118283   2.982   1.833   7.227
 5462SOL    HW218284   2.847   1.896   7.256
 5463SOL     OW18285   6.304  10.380   2.109
 5463SOL    HW118286   6.354  10.301   2.127
 5463SOL    HW218287   6.352  10.450   2.153
 5464SOL     OW18288   0.866  12.984   7.645
 5464SOL    HW118289   0.958  12.958   7.635
 5464SOL    HW218290   0.862  13.072   7.610
 5465SOL     OW18291   0.623  11.328  11.454
 5465SOL    HW118292   0.669  11.321  11.538
 5465SOL    HW218293   0.580  11.413  11.457
 5466SOL     OW18294  13.869   3.297  10.673
 5466SOL    HW118295  13.857   3.238  10.599
 5466SOL    HW218296  13.797   3.275  10.733
 5467SOL     OW18297   2.190   4.234  10.333
 5467SOL    HW118298   2.162   4.318  10.297
 5467SOL    HW218299   2.219   4.184  10.257
 5468SOL     OW18300   6.195  10.331   8.359
 5468SOL    HW118301   6.180  10.240   8.335
 5468SOL    HW218302   6.247  10.367   8.286
 5469SOL     OW18303   4.090   2.288   1.615
 5469SOL    HW118304   4.125   2.214   1.565
 5469SOL    HW218305   4.135   2.283   1.699
 5470SOL     OW18306   4.062   4.901  13.163
 5470SOL    HW118307   4.030   4.990  13.181
 5470SOL    HW218308   4.051   4.855  13.246
 5471SOL     OW18309  11.149  10.531   3.445
 5471SOL    HW118310  11.194  10.540   3.361
 5471SOL    HW218311  11.127  10.621   3.469
 5472SOL     OW18312   0.706   7.732   8.605
 5472SOL    HW118313   0.709   7.717   8.699
 5472SOL    HW218314   0.643   7.668   8.572
 5473SOL     OW18315  13.373  11.607   6.598
 5473SOL    HW118316  13.285  11.637   6.618
 5473SOL    HW218317  13.386  11.630   6.505
 5474SOL     OW18318   1.169   8.386   7.238
 5474SOL    HW118319   1.117   8.306   7.243
 5474SOL    HW218320   1.220   8.376   7.158
 5475SOL     OW18321  11.224   1.849  11.620
 5475SOL    HW118322  11.240   1.858  11.526
 5475SOL    HW218323  11.307   1.817  11.655
 5476SOL     OW18324   3.786  10.731  12.663
 5476SOL    HW118325   3.877  10.750  12.687
 5476SOL    HW218326   3.735  10.760  12.739
 5477SOL     OW18327  12.676   4.090   1.347
 5477SOL    HW118328  12.739   4.132   1.288
 5477SOL    HW218329  12.660   4.155   1.415
 5478SOL     OW18330   8.837  13.235   3.243
 5478SOL    HW118331   8.761  13.221   3.299
 5478SOL    HW218332   8.802  13.280   3.166
 5479SOL     OW18333   7.919  11.482  11.289
 5479SOL    HW118334   7.851  11.542  11.320
 5479SOL    HW218335   7.957  11.445  11.369
 5480SOL     OW18336   4.495   8.456  11.539
 5480SOL    HW118337   4.413   8.497  11.566
 5480SOL    HW218338   4.479   8.428  11.448
 5481SOL     OW18339  13.541  13.692   9.977
 5481SOL    HW118340  13.454  13.654   9.982
 5481SOL    HW218341  13.572  13.694  10.068
 5482SOL     OW18342   4.077  10.755   2.932
 5482SOL    HW118343   4.111  10.678   2.976
 5482SOL    HW218344   4.003  10.722   2.880
 5483SOL     OW18345   8.357   9.997   2.049
 5483SOL    HW118346   8.430  10.057   2.068
 5483SOL    HW218347   8.391   9.939   1.980
 5484SOL     OW18348   8.907   9.321  11.303
 5484SOL    HW118349   8.918   9.341  11.396
 5484SOL    HW218350   8.994   9.298  11.272
 5485SOL     OW18351   5.600   6.265   4.914
 5485SOL    HW118352   5.692   6.236   4.909
 5485SOL    HW218353   5.554   6.208   4.854
 5486SOL     OW18354  12.008   4.876   0.984
 5486SOL    HW118355  11.959   4.804   0.945
 5486SOL    HW218356  12.052   4.837   1.060
 5487SOL     OW18357  12.232  13.659   0.834
 5487SOL    HW118358  12.324  13.682   0.821
 5487SOL    HW218359  12.224  13.570   0.799
 5488SOL     OW18360  14.727  11.266  10.849
 5488SOL    HW118361  14.677  11.307  10.919
 5488SOL    HW218362  14.818  11.288  10.869
 5489SOL     OW18363   4.267  14.024   4.169
 5489SOL    HW118364   4.256  14.111   4.207
 5489SOL    HW218365   4.180  14.001   4.135
 5490SOL     OW18366   6.321   3.039  10.741
 5490SOL    HW118367   6.395   3.080  10.786
 5490SOL    HW218368   6.247   3.096  10.760
 5491SOL     OW18369  14.313  13.770   8.006
 5491SOL    HW118370  14.255  13.741   8.076
 5491SOL    HW218371  14.342  13.690   7.963
 5492SOL     OW18372   7.241  14.089   5.982
 5492SOL    HW118373   7.147  14.103   5.969
 5492SOL    HW218374   7.249  14.056   6.071
 5493SOL     OW18375  12.495   2.774   8.545
 5493SOL    HW118376  12.423   2.718   8.517
 5493SOL    HW218377  12.521   2.740   8.631
 5494SOL     OW18378   3.671   3.475  12.119
 5494SOL    HW118379   3.690   3.558  12.075
 5494SOL    HW218380   3.757   3.443  12.148
 5495SOL     OW18381   1.894  14.537   1.796
 5495SOL    HW118382   1.929  14.551   1.708
 5495SOL    HW218383   1.899  14.442   1.809
 5496SOL     OW18384  14.838  14.720   1.337
 5496SOL    HW118385   0.028  14.775   1.301
 5496SOL    HW218386  14.765  14.779   1.352
 5497SOL     OW18387   5.450   8.293   1.993
 5497SOL    HW118388   5.479   8.384   2.000
 5497SOL    HW218389   5.530   8.245   1.969
 5498SOL     OW18390   8.306   2.783   0.389
 5498SOL    HW118391   8.300   2.871   0.426
 5498SOL    HW218392   8.232   2.777   0.329
 5499SOL     OW18393   9.125   9.073   1.665
 5499SOL    HW118394   9.182   9.024   1.725
 5499SOL    HW218395   9.105   9.154   1.711
 5500SOL     OW18396   0.358  13.020   0.620
 5500SOL    HW118397   0.388  12.954   0.683
 5500SOL    HW218398   0.271  12.990   0.594
 5501SOL     OW18399   0.649  14.000   0.532
 5501SOL    HW118400   0.743  14.017   0.519
 5501SOL    HW218401   0.615  14.083   0.566
 5502SOL     OW18402   4.513   2.795   2.298
 5502SOL    HW118403   4.553   2.717   2.261
 5502SOL    HW218404   4.499   2.774   2.391
 5503SOL     OW18405   1.267   2.563  10.112
 5503SOL    HW118406   1.228   2.589  10.196
 5503SOL    HW218407   1.198   2.515  10.067
 5504SOL     OW18408   8.563   1.048  12.357
 5504SOL    HW118409   8.632   1.093  12.406
 5504SOL    HW218410   8.593   1.050  12.266
 5505SOL     OW18411   9.268  12.808   1.940
 5505SOL    HW118412   9.180  12.814   1.977
 5505SOL    HW218413   9.274  12.882   1.880
 5506SOL     OW18414   3.569  13.258   8.926
 5506SOL    HW118415   3.644  13.287   8.978
 5506SOL    HW218416   3.543  13.335   8.876
 5507SOL     OW18417   3.659   9.929   4.738
 5507SOL    HW118418   3.579   9.908   4.690
 5507SOL    HW218419   3.629   9.951   4.826
 5508SOL     OW18420   0.560   5.598  12.821
 5508SOL    HW118421   0.472   5.632  12.839
 5508SOL    HW218422   0.598   5.662  12.761
 5509SOL     OW18423  11.269   4.070   8.372
 5509SOL    HW118424  11.230   4.104   8.292
 5509SOL    HW218425  11.207   4.004   8.403
 5510SOL     OW18426   9.496   0.495   9.826
 5510SOL    HW118427   9.552   0.418   9.840
 5510SOL    HW218428   9.546   0.568   9.862
 5511SOL     OW18429  14.259   0.364   0.763
 5511SOL    HW118430  14.330   0.376   0.826
 5511SOL    HW218431  14.303   0.335   0.683
 5512SOL     OW18432   1.211   1.890   1.831
 5512SOL    HW118433   1.286   1.945   1.811
 5512SOL    HW218434   1.208   1.826   1.760
 5513SOL     OW18435   7.845  14.833  10.328
 5513SOL    HW118436   7.917  14.804  10.385
 5513SOL    HW218437   7.808   0.029  10.374
 5514SOL     OW18438   7.290   4.242   1.463
 5514SOL    HW118439   7.330   4.313   1.411
 5514SOL    HW218440   7.364   4.198   1.504
 5515SOL     OW18441  14.598   4.884   9.476
 5515SOL    HW118442  14.647   4.834   9.541
 5515SOL    HW218443  14.664   4.937   9.431
 5516SOL     OW18444   5.459   3.767   5.872
 5516SOL    HW118445   5.430   3.750   5.783
 5516SOL    HW218446   5.548   3.800   5.863
 5517SOL     OW18447  14.312  12.114   0.966
 5517SOL    HW118448  14.346  12.070   1.044
 5517SOL    HW218449  14.225  12.077   0.953
 5518SOL     OW18450   1.003   4.176  10.149
 5518SOL    HW118451   1.060   4.129  10.088
 5518SOL    HW218452   0.961   4.107  10.200
 5519SOL     OW18453   5.247  13.342   6.903
 5519SOL    HW118454   5.291  13.390   6.972
 5519SOL    HW218455   5.155  13.368   6.909
 5520SOL     OW18456   6.485   5.332  12.071
 5520SOL    HW118457   6.401   5.325  12.026
 5520SOL    HW218458   6.506   5.426  12.068
 5521SOL     OW18459   9.464   9.796   0.880
 5521SOL    HW118460   9.426   9.775   0.966
 5521SOL    HW218461   9.407   9.865   0.845
 5522SOL     OW18462  14.111   9.028  12.344
 5522SOL    HW118463  14.197   9.068  12.360
 5522SOL    HW218464  14.126   8.934  12.352
 5523SOL     OW18465   7.726  10.224  14.238
 5523SOL    HW118466   7.778  10.149  14.266
 5523SOL    HW218467   7.788  10.296  14.230
 5524SOL     OW18468   0.781   5.441  10.228
 5524SOL    HW118469   0.854   5.437  10.290
 5524SOL    HW218470   0.821   5.427  10.143
 5525SOL     OW18471  11.813  10.827   5.952
 5525SOL    HW118472  11.810  10.732   5.962
 5525SOL    HW218473  11.726  10.850   5.920
 5526SOL     OW18474  11.041   9.232   2.571
 5526SOL    HW118475  10.953   9.261   2.595
 5526SOL    HW218476  11.045   9.141   2.601
 5527SOL     OW18477  14.732   0.129   7.543
 5527SOL    HW118478  14.796   0.183   7.497
 5527SOL    HW218479  14.653   0.134   7.490
 5528SOL     OW18480   0.959   3.201  12.320
 5528SOL    HW118481   0.962   3.107  12.298
 5528SOL    HW218482   0.883   3.209  12.378
 5529SOL     OW18483  11.483   2.588  13.097
 5529SOL    HW118484  11.423   2.571  13.169
 5529SOL    HW218485  11.476   2.682  13.081
 5530SOL     OW18486   2.127   3.565   4.511
 5530SOL    HW118487   2.161   3.600   4.594
 5530SOL    HW218488   2.067   3.495   4.537
 5531SOL     OW18489  10.906   0.915   4.146
 5531SOL    HW118490  10.934   0.928   4.055
 5531SOL    HW218491  10.939   0.828   4.169
 5532SOL     OW18492   7.135   7.921   4.435
 5532SOL    HW118493   7.084   7.873   4.501
 5532SOL    HW218494   7.220   7.935   4.477
 5533SOL     OW18495   5.031  11.102   4.276
 5533SOL    HW118496   5.022  11.110   4.181
 5533SOL    HW218497   4.989  11.180   4.311
 5534SOL     OW18498  14.052   3.140  12.658
 5534SOL    HW118499  13.968   3.185  12.651
 5534SOL    HW218500  14.070   3.138  12.752
 5535SOL     OW18501   0.331   6.990   3.685
 5535SOL    HW118502   0.276   7.025   3.615
 5535SOL    HW218503   0.414   7.036   3.677
 5536SOL     OW18504  12.019   1.730   4.545
 5536SOL    HW118505  11.963   1.685   4.608
 5536SOL    HW218506  12.047   1.810   4.589
 5537SOL     OW18507   3.878   1.472  11.611
 5537SOL    HW118508   3.867   1.426  11.694
 5537SOL    HW218509   3.861   1.406  11.544
 5538SOL     OW18510   6.920   0.862  10.518
 5538SOL    HW118511   6.904   0.821  10.602
 5538SOL    HW218512   6.835   0.896  10.490
 5539SOL     OW18513  10.011   8.151   7.909
 5539SOL    HW118514   9.951   8.143   7.983
 5539SOL    HW218515   9.982   8.229   7.863
 5540SOL     OW18516  11.317   9.917  11.802
 5540SOL    HW118517  11.387   9.978  11.827
 5540SOL    HW218518  11.263   9.966  11.740
 5541SOL     OW18519   4.960   6.665   6.629
 5541SOL    HW118520   5.017   6.735   6.659
 5541SOL    HW218521   4.879   6.709   6.604
 5542SOL     OW18522   2.386  14.121   2.425
 5542SOL    HW118523   2.417  14.067   2.353
 5542SOL    HW218524   2.461  14.130   2.483
 5543SOL     OW18525   6.553  14.155   0.492
 5543SOL    HW118526   6.605  14.233   0.475
 5543SOL    HW218527   6.590  14.088   0.436
 5544SOL     OW18528   6.730  10.429   4.281
 5544SOL    HW118529   6.743  10.499   4.345
 5544SOL    HW218530   6.715  10.350   4.335
 5545SOL     OW18531   0.667  12.611   1.887
 5545SOL    HW118532   0.673  12.593   1.981
 5545SOL    HW218533   0.758  12.615   1.857
 5546SOL     OW18534  10.718  10.048  12.101
 5546SOL    HW118535  10.747  10.037  12.011
 5546SOL    HW218536  10.660  10.125  12.099
 5547SOL     OW18537  12.644   9.116  12.723
 5547SOL    HW118538  12.642   9.210  12.704
 5547SOL    HW218539  12.729   9.087  12.689
 5548SOL     OW18540  11.493  12.559   1.936
 5548SOL    HW118541  11.545  12.623   1.888
 5548SOL    HW218542  11.417  12.543   1.879
 5549SOL     OW18543   0.968   4.706   2.190
 5549SOL    HW118544   1.054   4.745   2.172
 5549SOL    HW218545   0.910   4.782   2.204
 5550SOL     OW18546  14.238   4.557  11.087
 5550SOL    HW118547  14.165   4.540  11.027
 5550SOL    HW218548  14.262   4.649  11.071
 5551SOL     OW18549  10.369   4.566   8.364
 5551SOL    HW118550  10.406   4.540   8.449
 5551SOL    HW218551  10.390   4.659   8.357
 5552SOL     OW18552  13.579   2.533  14.678
 5552SOL    HW118553  13.663   2.557  14.640
 5552SOL    HW218554  13.601   2.481  14.755
 5553SOL     OW18555   7.035   1.531   8.766
 5553SOL    HW118556   7.130   1.539   8.753
 5553SOL    HW218557   7.023   1.447   8.810
 5554SOL     OW18558   3.561   8.869   7.633
 5554SOL    HW118559   3.546   8.909   7.548
 5554SOL    HW218560   3.635   8.918   7.670
 5555SOL     OW18561   4.398   1.073   1.079
 5555SOL    HW118562   4.378   0.993   1.128
 5555SOL    HW218563   4.416   1.138   1.147
 5556SOL     OW18564  12.955   8.157  12.878
 5556SOL    HW118565  13.046   8.185  12.876
 5556SOL    HW218566  12.954   8.078  12.932
 5557SOL     OW18567  13.414   0.025  13.322
 5557SOL    HW118568  13.407   0.004  13.229
 5557SOL    HW218569  13.505   0.005  13.344
 5558SOL     OW18570   0.722  10.611   9.902
 5558SOL    HW118571   0.784  10.659   9.958
 5558SOL    HW218572   0.684  10.677   9.845
 5559SOL     OW18573   4.462   5.478  12.783
 5559SOL    HW118574   4.409   5.401  12.762
 5559SOL    HW218575   4.538   5.443  12.829
 5560SOL     OW18576  12.240   9.432   0.384
 5560SOL    HW118577  12.178   9.397   0.320
 5560SOL    HW218578  12.287   9.355   0.416
 5561SOL     OW18579   2.637   6.338   6.739
 5561SOL    HW118580   2.704   6.405   6.749
 5561SOL    HW218581   2.611   6.344   6.647
 5562SOL     OW18582  12.786  14.424   7.301
 5562SOL    HW118583  12.752  14.506   7.267
 5562SOL    HW218584  12.785  14.364   7.226
 5563SOL     OW18585   0.599  13.613   7.780
 5563SOL    HW118586   0.533  13.567   7.833
 5563SOL    HW218587   0.610  13.558   7.703
 5564SOL     OW18588   7.869  12.887   2.997
 5564SOL    HW118589   7.877  12.796   3.025
 5564SOL    HW218590   7.774  12.900   2.987
 5565SOL     OW18591   5.179   0.049   0.116
 5565SOL    HW118592   5.208   0.104   0.043
 5565SOL    HW218593   5.186   0.106   0.192
 5566SOL     OW18594  14.217  14.679   3.138
 5566SOL    HW118595  14.148  14.710   3.079
 5566SOL    HW218596  14.205  14.584   3.141
 5567SOL     OW18597   0.674  10.522   4.308
 5567SOL    HW118598   0.680  10.483   4.395
 5567SOL    HW218599   0.589  10.494   4.275
 5568SOL     OW18600   7.747   1.980   0.696
 5568SOL    HW118601   7.796   2.040   0.752
 5568SOL    HW218602   7.813   1.921   0.660
 5569SOL     OW18603   8.672  14.554   2.317
 5569SOL    HW118604   8.590  14.537   2.271
 5569SOL    HW218605   8.678  14.485   2.383
 5570SOL     OW18606   2.590   4.011  14.412
 5570SOL    HW118607   2.562   3.920  14.399
 5570SOL    HW218608   2.655   4.006  14.481
 5571SOL     OW18609  13.896  13.925   8.597
 5571SOL    HW118610  13.930  13.838   8.574
 5571SOL    HW218611  13.972  13.971   8.633
 5572SOL     OW18612   9.724   2.637  10.944
 5572SOL    HW118613   9.810   2.633  10.902
 5572SOL    HW218614   9.738   2.596  11.030
 5573SOL     OW18615   2.236   7.186   0.707
 5573SOL    HW118616   2.292   7.256   0.739
 5573SOL    HW218617   2.183   7.160   0.783
 5574SOL     OW18618   0.870   1.758   1.223
 5574SOL    HW118619   0.848   1.666   1.212
 5574SOL    HW218620   0.836   1.801   1.145
 5575SOL     OW18621   1.541   3.980   5.816
 5575SOL    HW118622   1.615   4.012   5.765
 5575SOL    HW218623   1.548   4.025   5.900
 5576SOL     OW18624   0.368  11.405   4.359
 5576SOL    HW118625   0.318  11.446   4.430
 5576SOL    HW218626   0.334  11.446   4.279
 5577SOL     OW18627   0.520   6.602   7.105
 5577SOL    HW118628   0.517   6.608   7.200
 5577SOL    HW218629   0.432   6.573   7.080
 5578SOL     OW18630   9.465  10.618   8.174
 5578SOL    HW118631   9.512  10.615   8.091
 5578SOL    HW218632   9.373  10.621   8.150
 5579SOL     OW18633   1.610   9.990   9.062
 5579SOL    HW118634   1.622  10.041   8.982
 5579SOL    HW218635   1.632  10.051   9.132
 5580SOL     OW18636   7.961   1.587   0.901
 5580SOL    HW118637   7.985   1.628   0.984
 5580SOL    HW218638   8.023   1.622   0.838
 5581SOL     OW18639   8.154  14.405   0.812
 5581SOL    HW118640   8.190  14.319   0.832
 5581SOL    HW218641   8.142  14.447   0.898
 5582SOL     OW18642   1.921   4.060  12.397
 5582SOL    HW118643   1.994   4.035  12.341
 5582SOL    HW218644   1.845   4.060  12.339
 5583SOL     OW18645   9.072   5.905   9.598
 5583SOL    HW118646   9.115   5.851   9.532
 5583SOL    HW218647   8.979   5.904   9.573
 5584SOL     OW18648   8.598  10.407   3.261
 5584SOL    HW118649   8.505  10.398   3.243
 5584SOL    HW218650   8.608  10.497   3.291
 5585SOL     OW18651   1.544   2.149   7.632
 5585SOL    HW118652   1.484   2.212   7.672
 5585SOL    HW218653   1.611   2.135   7.699
 5586SOL     OW18654   8.736  13.229   3.796
 5586SOL    HW118655   8.700  13.256   3.881
 5586SOL    HW218656   8.774  13.310   3.760
 5587SOL     OW18657   5.145  14.396  12.571
 5587SOL    HW118658   5.206  14.323  12.560
 5587SOL    HW218659   5.195  14.473  12.544
 5588SOL     OW18660   0.566   0.569  11.201
 5588SOL    HW118661   0.542   0.478  11.217
 5588SOL    HW218662   0.485   0.610  11.170
 5589SOL     OW18663   9.010   6.257   9.173
 5589SOL    HW118664   9.097   6.297   9.179
 5589SOL    HW218665   8.970   6.298   9.097
 5590SOL     OW18666  12.143   9.858  14.720
 5590SOL    HW118667  12.098   9.924  14.774
 5590SOL    HW218668  12.234   9.862  14.749
 5591SOL     OW18669   6.587   1.544  10.603
 5591SOL    HW118670   6.506   1.500  10.627
 5591SOL    HW218671   6.563   1.602  10.531
 5592SOL     OW18672   9.523  13.959   9.215
 5592SOL    HW118673   9.543  14.020   9.286
 5592SOL    HW218674   9.566  13.877   9.241
 5593SOL     OW18675  11.261   1.569   6.556
 5593SOL    HW118676  11.307   1.539   6.477
 5593SOL    HW218677  11.177   1.601   6.524
 5594SOL     OW18678   7.528  14.526   1.840
 5594SOL    HW118679   7.519  14.446   1.892
 5594SOL    HW218680   7.608  14.513   1.790
 5595SOL     OW18681  13.305   7.534   6.344
 5595SOL    HW118682  13.330   7.610   6.291
 5595SOL    HW218683  13.312   7.564   6.434
 5596SOL     OW18684   5.072  13.425   5.547
 5596SOL    HW118685   5.079  13.352   5.609
 5596SOL    HW218686   4.979  13.446   5.545
 5597SOL     OW18687  14.715   0.281   8.083
 5597SOL    HW118688  14.703   0.289   7.989
 5597SOL    HW218689  14.731   0.370   8.114
 5598SOL     OW18690  10.111   4.095   1.195
 5598SOL    HW118691  10.191   4.147   1.200
 5598SOL    HW218692  10.046   4.143   1.246
 5599SOL     OW18693   2.503   8.421   5.285
 5599SOL    HW118694   2.439   8.491   5.279
 5599SOL    HW218695   2.499   8.393   5.377
 5600SOL     OW18696  11.594   4.930   2.595
 5600SOL    HW118697  11.595   4.966   2.506
 5600SOL    HW218698  11.685   4.931   2.622
 5601SOL     OW18699  13.418   0.154  11.977
 5601SOL    HW118700  13.507   0.165  11.942
 5601SOL    HW218701  13.421   0.070  12.024
 5602SOL     OW18702   9.000   4.061   7.111
 5602SOL    HW118703   9.023   4.055   7.204
 5602SOL    HW218704   8.960   4.147   7.101
 5603SOL     OW18705   5.763   7.031  14.395
 5603SOL    HW118706   5.858   7.038  14.382
 5603SOL    HW218707   5.747   6.936  14.402
 5604SOL     OW18708  12.450  11.053  13.807
 5604SOL    HW118709  12.489  11.017  13.887
 5604SOL    HW218710  12.450  11.148  13.821
 5605SOL     OW18711  10.300   8.375  12.265
 5605SOL    HW118712  10.335   8.352  12.351
 5605SOL    HW218713  10.354   8.448  12.236
 5606SOL     OW18714   7.985  10.163  12.553
 5606SOL    HW118715   7.923  10.137  12.484
 5606SOL    HW218716   7.931  10.207  12.619
 5607SOL     OW18717   3.566   4.583  10.301
 5607SOL    HW118718   3.516   4.601  10.380
 5607SOL    HW218719   3.525   4.638  10.234
 5608SOL     OW18720   9.717  11.495  10.622
 5608SOL    HW118721   9.683  11.413  10.657
 5608SOL    HW218722   9.812  11.483  10.623
 5609SOL     OW18723   4.274   6.885   7.387
 5609SOL    HW118724   4.209   6.910   7.321
 5609SOL    HW218725   4.345   6.846   7.336
 5610SOL     OW18726  10.454   1.659  10.008
 5610SOL    HW118727  10.502   1.661  10.091
 5610SOL    HW218728  10.362   1.650  10.035
 5611SOL     OW18729   6.297  14.099   4.101
 5611SOL    HW118730   6.381  14.057   4.121
 5611SOL    HW218731   6.289  14.169   4.166
 5612SOL     OW18732   2.492   5.282  14.781
 5612SOL    HW118733   2.560   5.298  14.846
 5612SOL    HW218734   2.421   5.341  14.806
 5613SOL     OW18735  10.961   7.341   4.853
 5613SOL    HW118736  10.928   7.295   4.776
 5613SOL    HW218737  10.887   7.342   4.914
 5614SOL     OW18738   6.640  11.456   0.624
 5614SOL    HW118739   6.725  11.412   0.622
 5614SOL    HW218740   6.620  11.473   0.532
 5615SOL     OW18741   7.355  11.062   5.623
 5615SOL    HW118742   7.313  11.059   5.709
 5615SOL    HW218743   7.283  11.051   5.561
 5616SOL     OW18744   0.606   6.287  11.821
 5616SOL    HW118745   0.635   6.361  11.768
 5616SOL    HW218746   0.685   6.255  11.863
 5617SOL     OW18747   8.855   2.911   6.807
 5617SOL    HW118748   8.838   2.964   6.886
 5617SOL    HW218749   8.866   2.976   6.737
 5618SOL     OW18750   7.094   8.501  13.438
 5618SOL    HW118751   7.009   8.459  13.428
 5618SOL    HW218752   7.083   8.587  13.397
 5619SOL     OW18753   5.991   5.207   7.990
 5619SOL    HW118754   5.928   5.262   7.943
 5619SOL    HW218755   6.032   5.153   7.921
 5620SOL     OW18756   7.516   8.318   0.616
 5620SOL    HW118757   7.432   8.355   0.644
 5620SOL    HW218758   7.501   8.291   0.525
 5621SOL     OW18759  12.896   8.323   4.497
 5621SOL    HW118760  12.969   8.383   4.482
 5621SOL    HW218761  12.938   8.242   4.527
 5622SOL     OW18762   5.320   1.585  10.373
 5622SOL    HW118763   5.233   1.625  10.368
 5622SOL    HW218764   5.363   1.610  10.292
 5623SOL     OW18765   4.276   7.097   8.609
 5623SOL    HW118766   4.302   7.014   8.568
 5623SOL    HW218767   4.311   7.164   8.550
 5624SOL     OW18768  11.898   3.495   0.747
 5624SOL    HW118769  11.831   3.458   0.689
 5624SOL    HW218770  11.973   3.509   0.689
 5625SOL     OW18771   8.107  13.603  10.661
 5625SOL    HW118772   8.046  13.651  10.718
 5625SOL    HW218773   8.192  13.613  10.703
 5626SOL     OW18774  11.054  12.484  13.417
 5626SOL    HW118775  11.121  12.526  13.364
 5626SOL    HW218776  11.016  12.555  13.469
 5627SOL     OW18777   4.274   7.694   8.470
 5627SOL    HW118778   4.226   7.613   8.484
 5627SOL    HW218779   4.363   7.666   8.448
 5628SOL     OW18780   2.193   2.067   3.283
 5628SOL    HW118781   2.255   2.077   3.211
 5628SOL    HW218782   2.228   1.994   3.335
 5629SOL     OW18783  12.218   4.367   5.836
 5629SOL    HW118784  12.250   4.426   5.768
 5629SOL    HW218785  12.123   4.364   5.822
 5630SOL     OW18786   7.509  10.742   0.667
 5630SOL    HW118787   7.527  10.832   0.695
 5630SOL    HW218788   7.557  10.688   0.731
 5631SOL     OW18789   7.943  11.960   1.658
 5631SOL    HW118790   8.029  11.992   1.685
 5631SOL    HW218791   7.891  12.040   1.645
 5632SOL     OW18792   1.769   7.991   3.643
 5632SOL    HW118793   1.831   8.003   3.716
 5632SOL    HW218794   1.770   8.075   3.598
 5633SOL     OW18795   2.232  14.523  11.379
 5633SOL    HW118796   2.302  14.495  11.320
 5633SOL    HW218797   2.269  14.513  11.467
 5634SOL     OW18798  11.689   7.594   2.410
 5634SOL    HW118799  11.730   7.548   2.483
 5634SOL    HW218800  11.621   7.648   2.450
 5635SOL     OW18801  11.152   3.175   6.775
 5635SOL    HW118802  11.215   3.230   6.729
 5635SOL    HW218803  11.072   3.180   6.723
 5636SOL     OW18804   4.168   0.502  12.195
 5636SOL    HW118805   4.221   0.575  12.164
 5636SOL    HW218806   4.103   0.543  12.253
 5637SOL     OW18807  10.117  10.310   1.966
 5637SOL    HW118808  10.197  10.358   1.990
 5637SOL    HW218809  10.088  10.351   1.885
 5638SOL     OW18810   7.792   6.414   1.870
 5638SOL    HW118811   7.745   6.491   1.837
 5638SOL    HW218812   7.882   6.444   1.881
 5639SOL     OW18813   6.998   6.857   9.769
 5639SOL    HW118814   7.091   6.877   9.777
 5639SOL    HW218815   6.978   6.869   9.676
 5640SOL     OW18816   1.132  11.506   5.552
 5640SOL    HW118817   1.039  11.510   5.572
 5640SOL    HW218818   1.142  11.429   5.497
 5641SOL     OW18819   8.092   8.140   5.391
 5641SOL    HW118820   8.143   8.153   5.311
 5641SOL    HW218821   8.131   8.062   5.432
 5642SOL     OW18822  13.011   7.439  10.592
 5642SOL    HW118823  13.012   7.512  10.653
 5642SOL    HW218824  12.998   7.361  10.646
 5643SOL     OW18825   6.658   3.061   7.467
 5643SOL    HW118826   6.583   3.007   7.490
 5643SOL    HW218827   6.662   3.058   7.371
 5644SOL     OW18828  12.995   6.912   6.222
 5644SOL    HW118829  12.914   6.963   6.222
 5644SOL    HW218830  13.065   6.978   6.228
 5645SOL     OW18831  13.237  11.880   8.796
 5645SOL    HW118832  13.255  11.844   8.709
 5645SOL    HW218833  13.195  11.965   8.778
 5646SOL     OW18834   5.011  12.095   3.769
 5646SOL    HW118835   4.994  12.092   3.863
 5646SOL    HW218836   4.962  12.021   3.733
 5647SOL     OW18837  13.197  13.546   0.606
 5647SOL    HW118838  13.146  13.551   0.687
 5647SOL    HW218839  13.200  13.636   0.574
 5648SOL     OW18840   2.320   0.187   1.907
 5648SOL    HW118841   2.401   0.230   1.881
 5648SOL    HW218842   2.252   0.251   1.890
 5649SOL     OW18843  11.439   9.515   3.739
 5649SOL    HW118844  11.361   9.568   3.722
 5649SOL    HW218845  11.433   9.443   3.677
 5650SOL     OW18846  11.066  11.023   1.372
 5650SOL    HW118847  10.975  11.037   1.397
 5650SOL    HW218848  11.089  10.939   1.412
 5651SOL     OW18849  10.222  14.877   7.193
 5651SOL    HW118850  10.173   0.071   7.156
 5651SOL    HW218851  10.157  14.825   7.240
 5652SOL     OW18852   0.956  11.084  12.439
 5652SOL    HW118853   1.021  11.059  12.372
 5652SOL    HW218854   0.884  11.122  12.389
 5653SOL     OW18855   8.480  12.713  11.271
 5653SOL    HW118856   8.431  12.796  11.271
 5653SOL    HW218857   8.569  12.738  11.294
 5654SOL     OW18858   7.308  14.735   2.311
 5654SOL    HW118859   7.240  14.687   2.264
 5654SOL    HW218860   7.264  14.814   2.344
 5655SOL     OW18861  14.489   3.420  13.991
 5655SOL    HW118862  14.518   3.491  13.934
 5655SOL    HW218863  14.567   3.397  14.042
 5656SOL     OW18864  11.713   2.732   6.954
 5656SOL    HW118865  11.635   2.705   6.905
 5656SOL    HW218866  11.774   2.761   6.887
 5657SOL     OW18867   9.656  11.654  10.993
 5657SOL    HW118868   9.662  11.622  11.083
 5657SOL    HW218869   9.598  11.730  10.998
 5658SOL     OW18870   7.498   7.973  11.691
 5658SOL    HW118871   7.567   8.040  11.688
 5658SOL    HW218872   7.424   8.017  11.732
 5659SOL     OW18873   3.235   8.385   3.635
 5659SOL    HW118874   3.239   8.290   3.648
 5659SOL    HW218875   3.210   8.395   3.543
 5660SOL     OW18876   7.421   3.394   6.650
 5660SOL    HW118877   7.457   3.405   6.562
 5660SOL    HW218878   7.482   3.333   6.693
 5661SOL     OW18879   0.718  11.848  13.971
 5661SOL    HW118880   0.683  11.818  14.055
 5661SOL    HW218881   0.665  11.804  13.905
 5662SOL     OW18882   3.679  12.286  10.001
 5662SOL    HW118883   3.710  12.376  10.012
 5662SOL    HW218884   3.757  12.236   9.979
 5663SOL     OW18885   0.023   6.464   6.223
 5663SOL    HW118886   0.117   6.477   6.233
 5663SOL    HW218887  14.865   6.550   6.241
 5664SOL     OW18888   2.471   7.437   2.603
 5664SOL    HW118889   2.455   7.357   2.553
 5664SOL    HW218890   2.565   7.450   2.599
 5665SOL     OW18891   9.804   8.748   1.406
 5665SOL    HW118892   9.713   8.778   1.403
 5665SOL    HW218893   9.824   8.724   1.316
 5666SOL     OW18894   5.545   7.079   4.265
 5666SOL    HW118895   5.507   7.165   4.286
 5666SOL    HW218896   5.495   7.049   4.189
 5667SOL     OW18897   4.008  14.508   9.159
 5667SOL    HW118898   3.960  14.583   9.124
 5667SOL    HW218899   4.099  14.525   9.137
 5668SOL     OW18900   2.285   1.688   9.854
 5668SOL    HW118901   2.217   1.692   9.787
 5668SOL    HW218902   2.332   1.607   9.834
 5669SOL     OW18903   0.967   9.488   3.295
 5669SOL    HW118904   1.001   9.447   3.216
 5669SOL    HW218905   0.877   9.459   3.301
 5670SOL     OW18906  12.711   5.920   0.172
 5670SOL    HW118907  12.782   5.970   0.133
 5670SOL    HW218908  12.631   5.957   0.134
 5671SOL     OW18909  13.376  13.127  12.356
 5671SOL    HW118910  13.459  13.168  12.379
 5671SOL    HW218911  13.333  13.114  12.440
 5672SOL     OW18912   3.299  11.544   9.516
 5672SOL    HW118913   3.392  11.522   9.514
 5672SOL    HW218914   3.294  11.633   9.480
 5673SOL     OW18915   6.904   8.940   9.923
 5673SOL    HW118916   6.900   9.010   9.989
 5673SOL    HW218917   6.868   8.863   9.967
 5674SOL     OW18918   5.657   6.496   2.107
 5674SOL    HW118919   5.658   6.590   2.128
 5674SOL    HW218920   5.573   6.465   2.141
 5675SOL     OW18921   0.458   0.584   9.105
 5675SOL    HW118922   0.382   0.539   9.069
 5675SOL    HW218923   0.519   0.514   9.128
 5676SOL     OW18924   9.162  13.058   7.278
 5676SOL    HW118925   9.222  13.029   7.210
 5676SOL    HW218926   9.217  13.066   7.356
 5677SOL     OW18927  11.167   1.719  12.239
 5677SOL    HW118928  11.184   1.811  12.219
 5677SOL    HW218929  11.152   1.717  12.333
 5678SOL     OW18930  11.559   5.611  14.564
 5678SOL    HW118931  11.517   5.695  14.583
 5678SOL    HW218932  11.499   5.546  14.601
 5679SOL     OW18933  10.778   9.071  11.481
 5679SOL    HW118934  10.868   9.040  11.485
 5679SOL    HW218935  10.755   9.066  11.388
 5680SOL     OW18936   4.139  12.969  10.853
 5680SOL    HW118937   4.200  13.020  10.800
 5680SOL    HW218938   4.147  13.004  10.941
 5681SOL     OW18939  13.608   6.486   6.118
 5681SOL    HW118940  13.689   6.516   6.077
 5681SOL    HW218941  13.610   6.525   6.206
 5682SOL     OW18942   8.670   3.330   3.977
 5682SOL    HW118943   8.664   3.276   4.056
 5682SOL    HW218944   8.601   3.297   3.920
 5683SOL     OW18945   9.023  13.756   8.610
 5683SOL    HW118946   9.040  13.801   8.527
 5683SOL    HW218947   9.098  13.698   8.622
 5684SOL     OW18948   5.587  11.226   9.702
 5684SOL    HW118949   5.552  11.227   9.612
 5684SOL    HW218950   5.517  11.262   9.755
 5685SOL     OW18951   3.811   0.881  11.756
 5685SOL    HW118952   3.842   0.970  11.772
 5685SOL    HW218953   3.752   0.862  11.829
 5686SOL     OW18954  13.011   8.160   1.030
 5686SOL    HW118955  12.999   8.109   1.110
 5686SOL    HW218956  13.105   8.153   1.012
 5687SOL     OW18957   8.987  11.369  11.066
 5687SOL    HW118958   9.066  11.368  11.012
 5687SOL    HW218959   8.923  11.319  11.015
 5688SOL     OW18960   8.175  13.669   4.951
 5688SOL    HW118961   8.223  13.612   5.010
 5688SOL    HW218962   8.235  13.686   4.879
 5689SOL     OW18963   9.603   2.935  13.293
 5689SOL    HW118964   9.552   2.884  13.357
 5689SOL    HW218965   9.675   2.877  13.269
 5690SOL     OW18966   3.199   3.476  13.267
 5690SOL    HW118967   3.229   3.420  13.338
 5690SOL    HW218968   3.204   3.565  13.303
 5691SOL     OW18969  13.360   7.814   0.421
 5691SOL    HW118970  13.455   7.818   0.423
 5691SOL    HW218971  13.340   7.758   0.346
 5692SOL     OW18972  11.947   6.028   5.514
 5692SOL    HW118973  12.009   6.067   5.453
 5692SOL    HW218974  11.933   6.097   5.580
 5693SOL     OW18975  14.106   0.531  12.626
 5693SOL    HW118976  14.187   0.488  12.655
 5693SOL    HW218977  14.076   0.478  12.553
 5694SOL     OW18978   2.333   8.993  11.475
 5694SOL    HW118979   2.268   9.049  11.431
 5694SOL    HW218980   2.318   8.906  11.438
 5695SOL     OW18981  11.781  14.257  10.338
 5695SOL    HW118982  11.862  14.305  10.318
 5695SOL    HW218983  11.809  14.185  10.394
 5696SOL     OW18984   7.579   5.567  11.802
 5696SOL    HW118985   7.615   5.536  11.719
 5696SOL    HW218986   7.551   5.488  11.848
 5697SOL     OW18987   6.547  13.677  13.613
 5697SOL    HW118988   6.474  13.707  13.559
 5697SOL    HW218989   6.589  13.757  13.644
 5698SOL     OW18990   7.280   5.093   8.252
 5698SOL    HW118991   7.296   5.015   8.305
 5698SOL    HW218992   7.357   5.147   8.266
 5699SOL     OW18993   4.389   3.557   5.476
 5699SOL    HW118994   4.307   3.545   5.427
 5699SOL    HW218995   4.442   3.481   5.453
 5700SOL     OW18996  12.935   1.348   0.212
 5700SOL    HW118997  12.972   1.416   0.268
 5700SOL    HW218998  12.992   1.347   0.135
 5701SOL     OW18999  12.429  10.881   2.819
 5701SOL    HW119000  12.458  10.962   2.861
 5701SOL    HW219001  12.360  10.848   2.877
 5702SOL     OW19002   6.854   0.890   1.140
 5702SOL    HW119003   6.886   0.801   1.155
 5702SOL    HW219004   6.832   0.922   1.227
 5703SOL     OW19005  12.561   7.171  14.220
 5703SOL    HW119006  12.574   7.231  14.147
 5703SOL    HW219007  12.487   7.209  14.269
 5704SOL     OW19008   8.006   3.204   3.993
 5704SOL    HW119009   7.976   3.241   3.910
 5704SOL    HW219010   7.970   3.262   4.060
 5705SOL     OW19011  12.808   3.852   6.431
 5705SOL    HW119012  12.892   3.879   6.470
 5705SOL    HW219013  12.772   3.789   6.494
 5706SOL     OW19014   6.777   2.205   1.823
 5706SOL    HW119015   6.717   2.227   1.753
 5706SOL    HW219016   6.736   2.130   1.867
 5707SOL     OW19017  13.275  10.580   6.544
 5707SOL    HW119018  13.210  10.560   6.611
 5707SOL    HW219019  13.299  10.671   6.558
 5708SOL     OW19020   2.752  10.719   4.010
 5708SOL    HW119021   2.737  10.634   3.969
 5708SOL    HW219022   2.813  10.764   3.951
 5709SOL     OW19023   5.669  10.238  13.049
 5709SOL    HW119024   5.746  10.214  13.099
 5709SOL    HW219025   5.704  10.277  12.969
 5710SOL     OW19026   6.982  14.052  11.797
 5710SOL    HW119027   7.062  14.029  11.844
 5710SOL    HW219028   6.911  14.038  11.860
 5711SOL     OW19029   9.528   6.494   1.661
 5711SOL    HW119030   9.439   6.509   1.630
 5711SOL    HW219031   9.576   6.466   1.583
 5712SOL     OW19032   4.578   8.664  10.972
 5712SOL    HW119033   4.564   8.752  11.008
 5712SOL    HW219034   4.650   8.628  11.024
 5713SOL     OW19035  12.988   0.239   7.209
 5713SOL    HW119036  12.944   0.273   7.131
 5713SOL    HW219037  12.938   0.274   7.282
 5714SOL     OW19038   0.502   4.710   8.029
 5714SOL    HW119039   0.564   4.781   8.043
 5714SOL    HW219040   0.519   4.648   8.100
 5715SOL     OW19041   0.977   9.916   7.958
 5715SOL    HW119042   1.056   9.971   7.957
 5715SOL    HW219043   0.959   9.900   7.865
 5716SOL     OW19044  11.405   2.324   2.504
 5716SOL    HW119045  11.459   2.340   2.582
 5716SOL    HW219046  11.469   2.308   2.434
 5717SOL     OW19047   5.313   5.027   8.153
 5717SOL    HW119048   5.376   5.047   8.222
 5717SOL    HW219049   5.233   5.005   8.200
 5718SOL     OW19050  13.671   8.609   0.038
 5718SOL    HW119051  13.733   8.619   0.110
 5718SOL    HW219052  13.726   8.602  14.840
 5719SOL     OW19053   9.862   7.199   8.432
 5719SOL    HW119054   9.795   7.137   8.403
 5719SOL    HW219055   9.887   7.246   8.352
 5720SOL     OW19056  13.764   6.619  12.319
 5720SOL    HW119057  13.844   6.669  12.338
 5720SOL    HW219058  13.716   6.619  12.402
 5721SOL     OW19059  13.970   7.006   3.337
 5721SOL    HW119060  13.966   6.916   3.370
 5721SOL    HW219061  13.942   7.060   3.410
 5722SOL     OW19062   9.644  14.625   7.603
 5722SOL    HW119063   9.574  14.595   7.546
 5722SOL    HW219064   9.607  14.621   7.691
 5723SOL     OW19065  12.519   0.042  11.108
 5723SOL    HW119066  12.487   0.119  11.062
 5723SOL    HW219067  12.572   0.076  11.180
 5724SOL     OW19068  13.753   7.754   1.740
 5724SOL    HW119069  13.695   7.785   1.809
 5724SOL    HW219070  13.703   7.686   1.695
 5725SOL     OW19071   7.923   7.505   9.174
 5725SOL    HW119072   7.962   7.534   9.256
 5725SOL    HW219073   7.955   7.416   9.161
 5726SOL     OW19074  12.326   3.961   4.224
 5726SOL    HW119075  12.300   3.976   4.133
 5726SOL    HW219076  12.416   3.929   4.218
 5727SOL     OW19077   9.479   4.727  12.128
 5727SOL    HW119078   9.476   4.753  12.036
 5727SOL    HW219079   9.567   4.753  12.157
 5728SOL     OW19080   9.374   2.634   5.104
 5728SOL    HW119081   9.338   2.723   5.110
 5728SOL    HW219082   9.388   2.620   5.010
 5729SOL     OW19083   8.970  11.881   3.625
 5729SOL    HW119084   8.959  11.976   3.630
 5729SOL    HW219085   9.002  11.865   3.537
 5730SOL     OW19086   9.433   5.301  10.003
 5730SOL    HW119087   9.376   5.331  10.075
 5730SOL    HW219088   9.373   5.291   9.929
 5731SOL     OW19089   3.714  13.166  11.299
 5731SOL    HW119090   3.623  13.167  11.328
 5731SOL    HW219091   3.721  13.242  11.241
 5732SOL     OW19092   4.116  11.702   6.739
 5732SOL    HW119093   4.119  11.615   6.777
 5732SOL    HW219094   4.083  11.689   6.650
 5733SOL     OW19095   5.072  10.283   6.662
 5733SOL    HW119096   5.037  10.361   6.619
 5733SOL    HW219097   5.157  10.310   6.696
 5734SOL     OW19098  13.701   9.199  12.539
 5734SOL    HW119099  13.762   9.208  12.612
 5734SOL    HW219100  13.712   9.110  12.508
 5735SOL     OW19101   7.609  10.773   3.620
 5735SOL    HW119102   7.690  10.744   3.578
 5735SOL    HW219103   7.582  10.699   3.673
 5736SOL     OW19104   9.271   8.989   7.160
 5736SOL    HW119105   9.272   8.898   7.187
 5736SOL    HW219106   9.207   8.993   7.090
 5737SOL     OW19107   0.041   7.040   6.580
 5737SOL    HW119108  14.862   7.035   6.505
 5737SOL    HW219109   0.114   6.982   6.558
 5738SOL     OW19110   0.980   8.993  12.414
 5738SOL    HW119111   1.042   8.922  12.429
 5738SOL    HW219112   0.996   9.021  12.324
 5739SOL     OW19113   6.995   9.529   3.685
 5739SOL    HW119114   7.064   9.575   3.637
 5739SOL    HW219115   6.918   9.533   3.628
 5740SOL     OW19116   2.447   8.107  13.676
 5740SOL    HW119117   2.453   8.037  13.611
 5740SOL    HW219118   2.406   8.180  13.629
 5741SOL     OW19119  11.322   2.310   7.273
 5741SOL    HW119120  11.327   2.216   7.256
 5741SOL    HW219121  11.339   2.319   7.366
 5742SOL     OW19122   6.657   9.043   4.989
 5742SOL    HW119123   6.578   9.098   4.984
 5742SOL    HW219124   6.637   8.980   5.058
 5743SOL     OW19125  13.746  12.066   1.806
 5743SOL    HW119126  13.659  12.037   1.778
 5743SOL    HW219127  13.735  12.095   1.897
 5744SOL     OW19128  14.059   6.098   8.728
 5744SOL    HW119129  14.146   6.099   8.767
 5744SOL    HW219130  14.062   6.166   8.661
 5745SOL     OW19131   6.551   6.883   9.189
 5745SOL    HW119132   6.614   6.878   9.261
 5745SOL    HW219133   6.478   6.935   9.224
 5746SOL     OW19134  14.571   6.335  11.797
 5746SOL    HW119135  14.659   6.366  11.780
 5746SOL    HW219136  14.514   6.401  11.757
 5747SOL     OW19137   6.460  14.748   5.648
 5747SOL    HW119138   6.525  14.724   5.582
 5747SOL    HW219139   6.507  14.745   5.731
 5748SOL     OW19140   8.280   3.849   1.935
 5748SOL    HW119141   8.338   3.921   1.960
 5748SOL    HW219142   8.328   3.770   1.960
 5749SOL     OW19143   0.785   8.021  13.888
 5749SOL    HW119144   0.798   8.087  13.956
 5749SOL    HW219145   0.696   8.036  13.857
 5750SOL     OW19146  14.450   2.086   2.154
 5750SOL    HW119147  14.416   2.115   2.069
 5750SOL    HW219148  14.529   2.036   2.133
 5751SOL     OW19149  12.842   9.812  13.424
 5751SOL    HW119150  12.928   9.775  13.401
 5751SOL    HW219151  12.810   9.849  13.342
 5752SOL     OW19152   5.214   3.942   3.420
 5752SOL    HW119153   5.201   4.032   3.391
 5752SOL    HW219154   5.263   3.901   3.348
 5753SOL     OW19155   0.455   4.222   6.629
 5753SOL    HW119156   0.516   4.234   6.702
 5753SOL    HW219157   0.511   4.221   6.551
 5754SOL     OW19158   6.304   4.345   9.725
 5754SOL    HW119159   6.324   4.407   9.655
 5754SOL    HW219160   6.342   4.262   9.697
 5755SOL     OW19161   4.724   4.358   0.377
 5755SOL    HW119162   4.656   4.348   0.443
 5755SOL    HW219163   4.720   4.451   0.352
 5756SOL     OW19164   3.722   9.845  11.104
 5756SOL    HW119165   3.772   9.925  11.088
 5756SOL    HW219166   3.765   9.804  11.179
 5757SOL     OW19167   4.714   8.512   7.461
 5757SOL    HW119168   4.792   8.457   7.474
 5757SOL    HW219169   4.677   8.484   7.378
 5758SOL     OW19170   9.255   8.794  12.849
 5758SOL    HW119171   9.186   8.850  12.885
 5758SOL    HW219172   9.209   8.714  12.823
 5759SOL     OW19173   5.165   1.692  14.244
 5759SOL    HW119174   5.141   1.752  14.315
 5759SOL    HW219175   5.217   1.745  14.184
 5760SOL     OW19176  13.074   3.543   7.642
 5760SOL    HW119177  12.995   3.598   7.643
 5760SOL    HW219178  13.139   3.596   7.596
 5761SOL     OW19179  11.688  11.859   8.230
 5761SOL    HW119180  11.637  11.833   8.153
 5761SOL    HW219181  11.735  11.937   8.202
 5762SOL     OW19182  12.990  11.573  13.292
 5762SOL    HW119183  12.942  11.645  13.252
 5762SOL    HW219184  12.930  11.498  13.285
 5763SOL     OW19185   0.626   5.606   2.434
 5763SOL    HW119186   0.667   5.527   2.471
 5763SOL    HW219187   0.683   5.630   2.361
 5764SOL     OW19188  10.323   5.200   9.356
 5764SOL    HW119189  10.323   5.192   9.261
 5764SOL    HW219190  10.366   5.285   9.373
 5765SOL     OW19191  14.292  11.477   9.091
 5765SOL    HW119192  14.205  11.509   9.115
 5765SOL    HW219193  14.313  11.410   9.156
 5766SOL     OW19194  10.576   2.190   1.423
 5766SOL    HW119195  10.636   2.214   1.494
 5766SOL    HW219196  10.552   2.099   1.441
 5767SOL     OW19197   8.561   1.642  14.140
 5767SOL    HW119198   8.618   1.597  14.078
 5767SOL    HW219199   8.473   1.631  14.105
 5768SOL     OW19200   9.855  13.322   0.724
 5768SOL    HW119201   9.880  13.233   0.698
 5768SOL    HW219202   9.938  13.370   0.727
 5769SOL     OW19203  14.424  10.020  14.807
 5769SOL    HW119204  14.442   9.940  14.759
 5769SOL    HW219205  14.345  10.056  14.765
 5770SOL     OW19206   5.178   5.276   2.251
 5770SOL    HW119207   5.207   5.256   2.340
 5770SOL    HW219208   5.255   5.313   2.208
 5771SOL     OW19209   0.426  11.593   2.934
 5771SOL    HW119210   0.493  11.524   2.937
 5771SOL    HW219211   0.409  11.614   3.025
 5772SOL     OW19212   8.948   4.104  13.067
 5772SOL    HW119213   8.937   4.168  12.997
 5772SOL    HW219214   9.043   4.090  13.071
 5773SOL     OW19215   0.370  12.236   6.242
 5773SOL    HW119216   0.358  12.184   6.322
 5773SOL    HW219217   0.282  12.267   6.220
 5774SOL     OW19218   3.429   4.874   8.882
 5774SOL    HW119219   3.378   4.954   8.899
 5774SOL    HW219220   3.475   4.856   8.964
 5775SOL     OW19221   8.570   7.169  12.982
 5775SOL    HW119222   8.657   7.174  13.022
 5775SOL    HW219223   8.575   7.226  12.906
 5776SOL     OW19224   4.674   5.063   3.227
 5776SOL    HW119225   4.582   5.073   3.251
 5776SOL    HW219226   4.700   5.149   3.197
 5777SOL     OW19227   3.786   3.283  10.112
 5777SOL    HW119228   3.849   3.266  10.042
 5777SOL    HW219229   3.710   3.228  10.091
 5778SOL     OW19230   5.041   1.451  11.055
 5778SOL    HW119231   5.069   1.359  11.066
 5778SOL    HW219232   5.120   1.496  11.023
 5779SOL     OW19233  11.211   3.542  14.311
 5779SOL    HW119234  11.304   3.548  14.331
 5779SOL    HW219235  11.180   3.632  14.318
 5780SOL     OW19236  14.728   7.063  12.542
 5780SOL    HW119237  14.717   7.036  12.633
 5780SOL    HW219238  14.803   7.122  12.542
 5781SOL     OW19239  12.528   1.372   2.924
 5781SOL    HW119240  12.463   1.421   2.974
 5781SOL    HW219241  12.514   1.281   2.948
 5782SOL     OW19242   9.235  10.548   3.957
 5782SOL    HW119243   9.219  10.550   3.863
 5782SOL    HW219244   9.269  10.461   3.975
 5783SOL     OW19245   7.561   9.663   3.229
 5783SOL    HW119246   7.551   9.605   3.154
 5783SOL    HW219247   7.631   9.723   3.204
 5784SOL     OW19248   6.602   4.649   2.259
 5784SOL    HW119249   6.563   4.690   2.336
 5784SOL    HW219250   6.530   4.637   2.198
 5785SOL     OW19251   7.968  12.632   9.267
 5785SOL    HW119252   8.043  12.645   9.208
 5785SOL    HW219253   7.982  12.544   9.304
 5786SOL     OW19254  10.412  14.495  13.095
 5786SOL    HW119255  10.387  14.407  13.064
 5786SOL    HW219256  10.342  14.519  13.155
 5787SOL     OW19257  12.037  14.620  14.772
 5787SOL    HW119258  12.090  14.654  14.845
 5787SOL    HW219259  11.971  14.565  14.814
 5788SOL     OW19260  10.669   9.389   4.878
 5788SOL    HW119261  10.597   9.327   4.888
 5788SOL    HW219262  10.629   9.467   4.839
 5789SOL     OW19263   7.578   8.469   9.681
 5789SOL    HW119264   7.550   8.506   9.597
 5789SOL    HW219265   7.496   8.449   9.727
 5790SOL     OW19266   2.973  13.572   5.151
 5790SOL    HW119267   2.999  13.573   5.244
 5790SOL    HW219268   2.928  13.656   5.139
 5791SOL     OW19269   5.380   3.928   0.420
 5791SOL    HW119270   5.375   3.870   0.344
 5791SOL    HW219271   5.303   3.984   0.411
 5792SOL     OW19272   7.329   1.021  12.013
 5792SOL    HW119273   7.405   0.962  12.016
 5792SOL    HW219274   7.353   1.087  11.949
 5793SOL     OW19275   1.796   1.558  13.598
 5793SOL    HW119276   1.723   1.520  13.550
 5793SOL    HW219277   1.757   1.626  13.652
 5794SOL     OW19278  12.008  11.450   5.744
 5794SOL    HW119279  11.991  11.410   5.829
 5794SOL    HW219280  12.016  11.543   5.763
 5795SOL     OW19281  14.232   7.968   9.036
 5795SOL    HW119282  14.144   7.946   9.006
 5795SOL    HW219283  14.221   8.045   9.090
 5796SOL     OW19284   8.921   1.285  13.080
 5796SOL    HW119285   8.831   1.253  13.072
 5796SOL    HW219286   8.951   1.251  13.164
 5797SOL     OW19287  13.112   2.540   1.624
 5797SOL    HW119288  13.055   2.516   1.697
 5797SOL    HW219289  13.054   2.586   1.563
 5798SOL     OW19290   2.571  14.773   1.769
 5798SOL    HW119291   2.529  14.734   1.692
 5798SOL    HW219292   2.499  14.787   1.831
 5799SOL     OW19293   8.912   4.304   7.967
 5799SOL    HW119294   8.868   4.252   8.035
 5799SOL    HW219295   8.994   4.257   7.951
 5800SOL     OW19296   2.825   4.791   6.954
 5800SOL    HW119297   2.886   4.854   6.917
 5800SOL    HW219298   2.811   4.727   6.884
 5801SOL     OW19299  10.071  10.753  12.232
 5801SOL    HW119300  10.127  10.830  12.235
 5801SOL    HW219301  10.082  10.719  12.143
 5802SOL     OW19302   5.077   5.519   4.813
 5802SOL    HW119303   5.032   5.594   4.853
 5802SOL    HW219304   5.060   5.529   4.719
 5803SOL     OW19305   7.558  12.532   8.371
 5803SOL    HW119306   7.588  12.613   8.332
 5803SOL    HW219307   7.462  12.537   8.366
 5804SOL     OW19308   4.791   6.815  11.051
 5804SOL    HW119309   4.841   6.890  11.019
 5804SOL    HW219310   4.701   6.833  11.024
 5805SOL     OW19311   6.906   2.888   5.960
 5805SOL    HW119312   6.960   2.816   5.926
 5805SOL    HW219313   6.902   2.872   6.054
 5806SOL     OW19314   0.915   1.724   8.532
 5806SOL    HW119315   0.860   1.651   8.561
 5806SOL    HW219316   0.995   1.716   8.585
 5807SOL     OW19317   2.644   9.254   7.145
 5807SOL    HW119318   2.657   9.159   7.152
 5807SOL    HW219319   2.698   9.291   7.215
 5808SOL     OW19320  12.157   3.971   1.243
 5808SOL    HW119321  12.211   3.920   1.183
 5808SOL    HW219322  12.214   3.988   1.319
 5809SOL     OW19323   4.171  10.001   8.842
 5809SOL    HW119324   4.262   9.999   8.815
 5809SOL    HW219325   4.173   9.987   8.937
 5810SOL     OW19326   5.077   2.777   4.132
 5810SOL    HW119327   5.066   2.839   4.060
 5810SOL    HW219328   5.088   2.692   4.090
 5811SOL     OW19329   2.020  10.882   3.425
 5811SOL    HW119330   2.022  10.869   3.520
 5811SOL    HW219331   1.958  10.953   3.411
 5812SOL     OW19332  14.189   3.187  12.401
 5812SOL    HW119333  14.255   3.257  12.406
 5812SOL    HW219334  14.144   3.190  12.485
 5813SOL     OW19335   3.311   8.265  12.333
 5813SOL    HW119336   3.300   8.330  12.403
 5813SOL    HW219337   3.288   8.311  12.253
 5814SOL     OW19338   0.717  10.208  14.185
 5814SOL    HW119339   0.800  10.161  14.180
 5814SOL    HW219340   0.720  10.270  14.112
 5815SOL     OW19341   3.934   0.780   4.849
 5815SOL    HW119342   3.918   0.742   4.763
 5815SOL    HW219343   4.025   0.811   4.845
 5816SOL     OW19344   4.711  12.154   8.229
 5816SOL    HW119345   4.671  12.220   8.285
 5816SOL    HW219346   4.637  12.107   8.190
 5817SOL     OW19347  13.584   3.920   8.744
 5817SOL    HW119348  13.670   3.960   8.752
 5817SOL    HW219349  13.601   3.826   8.740
 5818SOL     OW19350   3.213   0.674   8.858
 5818SOL    HW119351   3.287   0.625   8.822
 5818SOL    HW219352   3.173   0.613   8.921
 5819SOL     OW19353   5.978   6.903   1.830
 5819SOL    HW119354   6.040   6.958   1.877
 5819SOL    HW219355   5.893   6.945   1.844
 5820SOL     OW19356   0.336  11.613   4.593
 5820SOL    HW119357   0.312  11.687   4.538
 5820SOL    HW219358   0.423  11.634   4.626
 5821SOL     OW19359   1.606   9.357   0.061
 5821SOL    HW119360   1.687   9.385   0.105
 5821SOL    HW219361   1.616   9.388  14.851
 5822SOL     OW19362   9.350  11.793   4.898
 5822SOL    HW119363   9.338  11.883   4.867
 5822SOL    HW219364   9.407  11.753   4.832
 5823SOL     OW19365   3.705  14.215  11.231
 5823SOL    HW119366   3.769  14.282  11.207
 5823SOL    HW219367   3.621  14.259  11.228
 5824SOL     OW19368  11.709  10.203   3.270
 5824SOL    HW119369  11.631  10.233   3.224
 5824SOL    HW219370  11.698  10.238   3.359
 5825SOL     OW19371  10.010  10.186  12.936
 5825SOL    HW119372  10.057  10.225  13.011
 5825SOL    HW219373   9.929  10.151  12.975
 5826SOL     OW19374   7.246   5.413   6.184
 5826SOL    HW119375   7.280   5.469   6.254
 5826SOL    HW219376   7.317   5.352   6.165
 5827SOL     OW19377   6.321   2.881   5.114
 5827SOL    HW119378   6.379   2.834   5.054
 5827SOL    HW219379   6.364   2.965   5.128
 5828SOL     OW19380   7.552  10.580   5.700
 5828SOL    HW119381   7.492  10.505   5.698
 5828SOL    HW219382   7.524  10.631   5.776
 5829SOL     OW19383  14.171   2.269  13.145
 5829SOL    HW119384  14.259   2.287  13.113
 5829SOL    HW219385  14.135   2.355  13.167
 5830SOL     OW19386  13.884   8.191   8.117
 5830SOL    HW119387  13.971   8.230   8.108
 5830SOL    HW219388  13.823   8.265   8.111
 5831SOL     OW19389  13.811   8.260   9.952
 5831SOL    HW119390  13.765   8.178   9.968
 5831SOL    HW219391  13.773   8.322  10.014
 5832SOL     OW19392   1.827   3.219   3.603
 5832SOL    HW119393   1.818   3.148   3.667
 5832SOL    HW219394   1.761   3.284   3.630
 5833SOL     OW19395  11.518   4.331  11.732
 5833SOL    HW119396  11.596   4.299  11.687
 5833SOL    HW219397  11.550   4.405  11.784
 5834SOL     OW19398   2.263   2.628   1.494
 5834SOL    HW119399   2.210   2.689   1.443
 5834SOL    HW219400   2.297   2.566   1.429
 5835SOL     OW19401   5.400  10.672  13.420
 5835SOL    HW119402   5.305  10.669  13.429
 5835SOL    HW219403   5.415  10.724  13.341
 5836SOL     OW19404   4.565  10.094   1.117
 5836SOL    HW119405   4.567  10.170   1.176
 5836SOL    HW219406   4.475  10.091   1.085
 5837SOL     OW19407   7.370  12.239   5.352
 5837SOL    HW119408   7.392  12.281   5.269
 5837SOL    HW219409   7.442  12.260   5.410
 5838SOL     OW19410   7.976   7.084  12.400
 5838SOL    HW119411   8.034   7.160  12.410
 5838SOL    HW219412   7.986   7.035  12.482
 5839SOL     OW19413  10.495   3.487  14.479
 5839SOL    HW119414  10.548   3.432  14.536
 5839SOL    HW219415  10.405   3.463  14.498
 5840SOL     OW19416  10.614  10.037   1.830
 5840SOL    HW119417  10.663   9.969   1.783
 5840SOL    HW219418  10.523  10.023   1.804
 5841SOL     OW19419  12.362   8.156   3.465
 5841SOL    HW119420  12.294   8.106   3.511
 5841SOL    HW219421  12.403   8.209   3.533
 5842SOL     OW19422   5.158   1.914   1.555
 5842SOL    HW119423   5.247   1.904   1.589
 5842SOL    HW219424   5.137   2.006   1.570
 5843SOL     OW19425  10.430   3.707   9.955
 5843SOL    HW119426  10.422   3.742  10.044
 5843SOL    HW219427  10.440   3.612   9.968
 5844SOL     OW19428   8.256   2.744  12.609
 5844SOL    HW119429   8.236   2.791  12.528
 5844SOL    HW219430   8.339   2.700  12.591
 5845SOL     OW19431   9.978  12.087   6.803
 5845SOL    HW119432  10.011  12.153   6.864
 5845SOL    HW219433  10.045  12.082   6.734
 5846SOL     OW19434   5.627  10.080   3.729
 5846SOL    HW119435   5.722  10.068   3.723
 5846SOL    HW219436   5.616  10.160   3.781
 5847SOL     OW19437   0.060   0.983   5.659
 5847SOL    HW119438   0.025   1.072   5.651
 5847SOL    HW219439   0.085   0.975   5.751
 5848SOL     OW19440   9.117  12.510   8.898
 5848SOL    HW119441   9.050  12.551   8.843
 5848SOL    HW219442   9.182  12.477   8.836
 5849SOL     OW19443   0.749   8.183   6.843
 5849SOL    HW119444   0.664   8.218   6.869
 5849SOL    HW219445   0.767   8.116   6.910
 5850SOL     OW19446  12.621   7.818  14.443
 5850SOL    HW119447  12.651   7.853  14.527
 5850SOL    HW219448  12.621   7.894  14.384
 5851SOL     OW19449   7.548   0.728   9.156
 5851SOL    HW119450   7.535   0.650   9.210
 5851SOL    HW219451   7.459   0.760   9.140
 5852SOL     OW19452   6.312   6.170  12.741
 5852SOL    HW119453   6.348   6.189  12.827
 5852SOL    HW219454   6.386   6.134  12.691
 5853SOL     OW19455  11.212   0.092   4.988
 5853SOL    HW119456  11.164   0.079   5.069
 5853SOL    HW219457  11.167   0.038   4.923
 5854SOL     OW19458   8.230   6.314  12.490
 5854SOL    HW119459   8.143   6.310  12.451
 5854SOL    HW219460   8.290   6.308  12.415
 5855SOL     OW19461  10.662  13.503   2.564
 5855SOL    HW119462  10.726  13.518   2.634
 5855SOL    HW219463  10.581  13.483   2.610
 5856SOL     OW19464   7.951  12.880   6.754
 5856SOL    HW119465   7.889  12.916   6.690
 5856SOL    HW219466   7.958  12.949   6.821
 5857SOL     OW19467   8.924   0.345   4.860
 5857SOL    HW119468   8.864   0.420   4.855
 5857SOL    HW219469   8.979   0.353   4.783
 5858SOL     OW19470   7.951   7.571   9.855
 5858SOL    HW119471   8.003   7.641   9.816
 5858SOL    HW219472   7.914   7.523   9.781
 5859SOL     OW19473   6.405   9.117   8.869
 5859SOL    HW119474   6.346   9.127   8.795
 5859SOL    HW219475   6.425   9.207   8.897
 5860SOL     OW19476  13.325  10.940   7.879
 5860SOL    HW119477  13.330  10.907   7.789
 5860SOL    HW219478  13.316  10.862   7.933
 5861SOL     OW19479  11.248   2.340   6.506
 5861SOL    HW119480  11.172   2.285   6.486
 5861SOL    HW219481  11.211   2.420   6.542
 5862SOL     OW19482  12.639  12.449   5.593
 5862SOL    HW119483  12.686  12.460   5.510
 5862SOL    HW219484  12.701  12.403   5.649
 5863SOL     OW19485   5.368   0.100  10.966
 5863SOL    HW119486   5.351   0.065  10.878
 5863SOL    HW219487   5.285   0.137  10.993
 5864SOL     OW19488   7.168   7.031   8.589
 5864SOL    HW119489   7.126   6.967   8.532
 5864SOL    HW219490   7.113   7.033   8.667
 5865SOL     OW19491  10.918   3.455   6.862
 5865SOL    HW119492  11.006   3.482   6.838
 5865SOL    HW219493  10.868   3.458   6.781
 5866SOL     OW19494   9.779  11.719   3.364
 5866SOL    HW119495   9.771  11.682   3.277
 5866SOL    HW219496   9.852  11.672   3.404
 5867SOL     OW19497  14.426   4.636   6.606
 5867SOL    HW119498  14.408   4.578   6.680
 5867SOL    HW219499  14.472   4.710   6.645
 5868SOL     OW19500   1.340  12.753   5.692
 5868SOL    HW119501   1.411  12.779   5.750
 5868SOL    HW219502   1.383  12.724   5.612
 5869SOL     OW19503   1.739   5.340   0.379
 5869SOL    HW119504   1.735   5.291   0.462
 5869SOL    HW219505   1.823   5.314   0.340
 5870SOL     OW19506   3.774  13.013  13.113
 5870SOL    HW119507   3.732  13.049  13.035
 5870SOL    HW219508   3.816  13.088  13.155
 5871SOL     OW19509  12.811   7.269   7.603
 5871SOL    HW119510  12.874   7.246   7.534
 5871SOL    HW219511  12.741   7.314   7.557
 5872SOL     OW19512  13.800   8.443   0.515
 5872SOL    HW119513  13.780   8.359   0.555
 5872SOL    HW219514  13.757   8.441   0.430
 5873SOL     OW19515   8.481   7.280   8.358
 5873SOL    HW119516   8.565   7.254   8.319
 5873SOL    HW219517   8.421   7.209   8.335
 5874SOL     OW19518  13.025   6.440   2.586
 5874SOL    HW119519  13.011   6.532   2.562
 5874SOL    HW219520  13.045   6.396   2.504
 5875SOL     OW19521   9.117  14.775   0.376
 5875SOL    HW119522   9.173  14.717   0.428
 5875SOL    HW219523   9.062  14.819   0.441
 5876SOL     OW19524   1.549  11.208   4.736
 5876SOL    HW119525   1.569  11.284   4.680
 5876SOL    HW219526   1.615  11.143   4.712
 5877SOL     OW19527   9.410   4.449   7.771
 5877SOL    HW119528   9.356   4.406   7.837
 5877SOL    HW219529   9.362   4.530   7.750
 5878SOL     OW19530   2.482   7.566   4.698
 5878SOL    HW119531   2.478   7.493   4.636
 5878SOL    HW219532   2.511   7.526   4.780
 5879SOL     OW19533   2.771   6.874   8.086
 5879SOL    HW119534   2.752   6.801   8.145
 5879SOL    HW219535   2.734   6.950   8.129
 5880SOL     OW19536   4.470   0.211   5.754
 5880SOL    HW119537   4.531   0.148   5.792
 5880SOL    HW219538   4.431   0.164   5.680
 5881SOL     OW19539  13.976  10.069  11.810
 5881SOL    HW119540  13.956  10.084  11.902
 5881SOL    HW219541  14.009   9.980  11.806
 5882SOL     OW19542   8.863   1.221   6.004
 5882SOL    HW119543   8.810   1.235   6.083
 5882SOL    HW219544   8.884   1.128   6.005
 5883SOL     OW19545   2.616   9.090   8.062
 5883SOL    HW119546   2.588   9.024   7.998
 5883SOL    HW219547   2.641   9.040   8.139
 5884SOL     OW19548  14.620  12.363   5.695
 5884SOL    HW119549  14.532  12.327   5.710
 5884SOL    HW219550  14.616  12.401   5.607
 5885SOL     OW19551  12.539   8.521   4.535
 5885SOL    HW119552  12.505   8.434   4.557
 5885SOL    HW219553  12.608   8.537   4.599
 5886SOL     OW19554   7.951   9.386   8.863
 5886SOL    HW119555   7.932   9.333   8.940
 5886SOL    HW219556   8.028   9.345   8.824
 5887SOL     OW19557  11.142   0.034   3.558
 5887SOL    HW119558  11.118  14.844   3.620
 5887SOL    HW219559  11.237   0.027   3.550
 5888SOL     OW19560   1.056   1.769  12.250
 5888SOL    HW119561   0.979   1.723  12.283
 5888SOL    HW219562   1.104   1.702  12.201
 5889SOL     OW19563   1.823  13.404  14.539
 5889SOL    HW119564   1.748  13.455  14.508
 5889SOL    HW219565   1.788  13.316  14.552
 5890SOL     OW19566  12.648   5.361  14.759
 5890SOL    HW119567  12.732   5.408  14.765
 5890SOL    HW219568  12.585   5.427  14.731
 5891SOL     OW19569   7.418   4.298  12.698
 5891SOL    HW119570   7.436   4.392  12.700
 5891SOL    HW219571   7.369   4.285  12.617
 5892SOL     OW19572   4.134  12.483   8.387
 5892SOL    HW119573   4.100  12.476   8.476
 5892SOL    HW219574   4.057  12.502   8.333
 5893SOL     OW19575   9.478   3.804   1.744
 5893SOL    HW119576   9.404   3.748   1.720
 5893SOL    HW219577   9.526   3.753   1.811
 5894SOL     OW19578   7.227  14.723  14.773
 5894SOL    HW119579   7.177  14.709  14.693
 5894SOL    HW219580   7.240  14.818  14.777
 5895SOL     OW19581   3.132  13.024   1.491
 5895SOL    HW119582   3.216  13.030   1.535
 5895SOL    HW219583   3.091  12.945   1.526
 5896SOL     OW19584   9.030  12.486  13.222
 5896SOL    HW119585   9.062  12.475  13.133
 5896SOL    HW219586   8.936  12.470  13.216
 5897SOL     OW19587   3.534   5.406  14.743
 5897SOL    HW119588   3.614   5.458  14.742
 5897SOL    HW219589   3.509   5.398  14.651
 5898SOL     OW19590   7.770   9.467   2.586
 5898SOL    HW119591   7.733   9.427   2.665
 5898SOL    HW219592   7.842   9.408   2.562
 5899SOL     OW19593   0.403   3.263  11.847
 5899SOL    HW119594   0.481   3.208  11.847
 5899SOL    HW219595   0.372   3.259  11.756
 5900SOL     OW19596  11.947   5.059  10.190
 5900SOL    HW119597  11.874   5.009  10.153
 5900SOL    HW219598  12.021   5.038  10.132
 5901SOL     OW19599   0.155  14.316  10.650
 5901SOL    HW119600   0.251  14.322  10.647
 5901SOL    HW219601   0.136  14.286  10.739
 5902SOL     OW19602  11.159   2.580   4.163
 5902SOL    HW119603  11.252   2.559   4.176
 5902SOL    HW219604  11.118   2.559   4.246
 5903SOL     OW19605   9.719  14.620   4.705
 5903SOL    HW119606   9.666  14.654   4.634
 5903SOL    HW219607   9.792  14.576   4.662
 5904SOL     OW19608   4.809   4.731  12.738
 5904SOL    HW119609   4.730   4.677  12.738
 5904SOL    HW219610   4.874   4.678  12.784
 5905SOL     OW19611   7.448  13.530  11.285
 5905SOL    HW119612   7.403  13.598  11.335
 5905SOL    HW219613   7.514  13.496  11.346
 5906SOL     OW19614   4.928  13.265   6.600
 5906SOL    HW119615   5.006  13.291   6.648
 5906SOL    HW219616   4.962  13.217   6.524
 5907SOL     OW19617   9.376   3.736   1.112
 5907SOL    HW119618   9.331   3.679   1.174
 5907SOL    HW219619   9.467   3.736   1.142
 5908SOL     OW19620   3.237   9.465   4.849
 5908SOL    HW119621   3.150   9.473   4.891
 5908SOL    HW219622   3.293   9.431   4.919
 5909SOL     OW19623   3.427   3.111   7.562
 5909SOL    HW119624   3.375   3.039   7.526
 5909SOL    HW219625   3.404   3.187   7.507
 5910SOL     OW19626   7.240   9.289   2.557
 5910SOL    HW119627   7.256   9.206   2.513
 5910SOL    HW219628   7.166   9.272   2.616
 5911SOL     OW19629   0.441  12.050  13.984
 5911SOL    HW119630   0.427  11.955  13.984
 5911SOL    HW219631   0.499  12.065  14.058
 5912SOL     OW19632   7.225   6.001   6.077
 5912SOL    HW119633   7.317   5.988   6.104
 5912SOL    HW219634   7.231   6.051   5.996
 5913SOL     OW19635   6.067  11.617  12.399
 5913SOL    HW119636   5.990  11.648  12.351
 5913SOL    HW219637   6.034  11.551  12.458
 5914SOL     OW19638   5.540   4.300   1.091
 5914SOL    HW119639   5.633   4.290   1.070
 5914SOL    HW219640   5.494   4.264   1.015
 5915SOL     OW19641  12.889   2.210   9.425
 5915SOL    HW119642  12.844   2.164   9.496
 5915SOL    HW219643  12.886   2.302   9.451
 5916SOL     OW19644   1.510   1.910   9.292
 5916SOL    HW119645   1.425   1.952   9.279
 5916SOL    HW219646   1.501   1.860   9.373
 5917SOL     OW19647   5.023   5.023  10.582
 5917SOL    HW119648   4.931   5.000  10.573
 5917SOL    HW219649   5.058   5.019  10.494
 5918SOL     OW19650   5.525   9.101   7.162
 5918SOL    HW119651   5.505   9.012   7.131
 5918SOL    HW219652   5.605   9.091   7.214
 5919SOL     OW19653  14.468   4.330  10.856
 5919SOL    HW119654  14.375   4.325  10.876
 5919SOL    HW219655  14.493   4.240  10.833
 5920SOL     OW19656   7.540   9.082   2.427
 5920SOL    HW119657   7.619   9.072   2.375
 5920SOL    HW219658   7.552   9.165   2.473
 5921SOL     OW19659   7.331   4.743  13.239
 5921SOL    HW119660   7.352   4.677  13.173
 5921SOL    HW219661   7.406   4.803  13.237
 5922SOL     OW19662  11.032   1.422  11.893
 5922SOL    HW119663  11.021   1.513  11.869
 5922SOL    HW219664  11.075   1.381  11.818
 5923SOL     OW19665   9.126  13.962  10.710
 5923SOL    HW119666   9.090  13.969  10.622
 5923SOL    HW219667   9.182  13.884  10.707
 5924SOL     OW19668  10.779   4.302   4.010
 5924SOL    HW119669  10.687   4.310   4.033
 5924SOL    HW219670  10.784   4.219   3.963
 5925SOL     OW19671  10.529  11.681   3.557
 5925SOL    HW119672  10.505  11.608   3.614
 5925SOL    HW219673  10.606  11.721   3.598
 5926SOL     OW19674   2.878   1.655   3.935
 5926SOL    HW119675   2.828   1.593   3.883
 5926SOL    HW219676   2.815   1.693   3.996
 5927SOL     OW19677   2.684   5.346   9.493
 5927SOL    HW119678   2.691   5.339   9.588
 5927SOL    HW219679   2.728   5.428   9.472
 5928SOL     OW19680   5.192   2.633  10.630
 5928SOL    HW119681   5.260   2.699  10.644
 5928SOL    HW219682   5.218   2.560  10.687
 5929SOL     OW19683   5.466   0.990   8.556
 5929SOL    HW119684   5.555   0.956   8.562
 5929SOL    HW219685   5.425   0.965   8.639
 5930SOL     OW19686   8.342  10.629   4.580
 5930SOL    HW119687   8.325  10.649   4.672
 5930SOL    HW219688   8.320  10.710   4.534
 5931SOL     OW19689   6.870  11.309   0.714
 5931SOL    HW119690   6.928  11.384   0.707
 5931SOL    HW219691   6.916  11.238   0.668
 5932SOL     OW19692   8.255   4.996   2.467
 5932SOL    HW119693   8.163   4.979   2.445
 5932SOL    HW219694   8.271   4.944   2.545
 5933SOL     OW19695  14.516  14.671  13.093
 5933SOL    HW119696  14.433  14.707  13.062
 5933SOL    HW219697  14.575  14.675  13.018
 5934SOL     OW19698  12.347  11.954   4.591
 5934SOL    HW119699  12.405  11.931   4.517
 5934SOL    HW219700  12.396  11.927   4.668
 5935SOL     OW19701   9.609  11.953   2.340
 5935SOL    HW119702   9.569  12.023   2.391
 5935SOL    HW219703   9.703  11.965   2.353
 5936SOL     OW19704   4.887   0.928   4.294
 5936SOL    HW119705   4.918   0.881   4.372
 5936SOL    HW219706   4.852   0.859   4.238
 5937SOL     OW19707   0.091   9.212   3.325
 5937SOL    HW119708   0.011   9.172   3.358
 5937SOL    HW219709   0.137   9.242   3.403
 5938SOL     OW19710  13.497   5.567   9.189
 5938SOL    HW119711  13.449   5.577   9.107
 5938SOL    HW219712  13.587   5.592   9.168
 5939SOL     OW19713   6.967   7.186   8.084
 5939SOL    HW119714   7.056   7.165   8.114
 5939SOL    HW219715   6.944   7.266   8.131
 5940SOL     OW19716  14.177   6.976   6.475
 5940SOL    HW119717  14.157   6.981   6.568
 5940SOL    HW219718  14.153   6.886   6.450
 5941SOL     OW19719  12.608   6.055  10.816
 5941SOL    HW119720  12.576   6.117  10.750
 5941SOL    HW219721  12.593   6.099  10.899
 5942SOL     OW19722   1.159  10.451   1.092
 5942SOL    HW119723   1.074  10.473   1.130
 5942SOL    HW219724   1.182  10.367   1.132
 5943SOL     OW19725   0.190   8.109  11.499
 5943SOL    HW119726   0.117   8.148  11.450
 5943SOL    HW219727   0.263   8.171  11.486
 5944SOL     OW19728   2.464   4.360  10.448
 5944SOL    HW119729   2.497   4.287  10.396
 5944SOL    HW219730   2.541   4.413  10.467
 5945SOL     OW19731  13.179   2.044   0.556
 5945SOL    HW119732  13.176   2.004   0.470
 5945SOL    HW219733  13.269   2.029   0.586
 5946SOL     OW19734   1.307   2.938   4.904
 5946SOL    HW119735   1.384   2.882   4.898
 5946SOL    HW219736   1.234   2.878   4.919
 5947SOL     OW19737  11.831   2.498  13.056
 5947SOL    HW119738  11.768   2.469  12.990
 5947SOL    HW219739  11.914   2.507  13.008
 5948SOL     OW19740   8.080  10.095  13.687
 5948SOL    HW119741   8.053  10.007  13.661
 5948SOL    HW219742   8.175  10.094  13.680
 5949SOL     OW19743  13.707   2.489   6.115
 5949SOL    HW119744  13.658   2.511   6.194
 5949SOL    HW219745  13.723   2.394   6.123
 5950SOL     OW19746  10.889  13.446   9.412
 5950SOL    HW119747  10.808  13.395   9.414
 5950SOL    HW219748  10.937  13.417   9.489
 5951SOL     OW19749  14.150  10.381   7.719
 5951SOL    HW119750  14.068  10.402   7.765
 5951SOL    HW219751  14.135  10.411   7.629
 5952SOL     OW19752   3.445   3.446  10.294
 5952SOL    HW119753   3.427   3.537  10.269
 5952SOL    HW219754   3.382   3.395  10.244
 5953SOL     OW19755   6.495  13.592   4.659
 5953SOL    HW119756   6.423  13.623   4.604
 5953SOL    HW219757   6.508  13.501   4.632
 5954SOL     OW19758   5.997   7.136  12.735
 5954SOL    HW119759   6.002   7.168  12.826
 5954SOL    HW219760   6.087   7.143  12.703
 5955SOL     OW19761  12.688  13.134   8.138
 5955SOL    HW119762  12.631  13.065   8.104
 5955SOL    HW219763  12.645  13.215   8.111
 5956SOL     OW19764   1.051   4.936  10.998
 5956SOL    HW119765   0.957   4.948  10.983
 5956SOL    HW219766   1.058   4.911  11.090
 5957SOL     OW19767   5.484  12.771  13.884
 5957SOL    HW119768   5.524  12.812  13.960
 5957SOL    HW219769   5.539  12.695  13.865
 5958SOL     OW19770  14.091   6.327  11.677
 5958SOL    HW119771  14.109   6.419  11.660
 5958SOL    HW219772  14.169   6.295  11.722
 5959SOL     OW19773  11.278  14.581  11.952
 5959SOL    HW119774  11.294  14.619  11.866
 5959SOL    HW219775  11.323  14.497  11.951
 5960SOL     OW19776   1.023   7.606   8.938
 5960SOL    HW119777   1.086   7.570   8.875
 5960SOL    HW219778   1.020   7.541   9.008
 5961SOL     OW19779   0.555   6.785   8.463
 5961SOL    HW119780   0.594   6.870   8.442
 5961SOL    HW219781   0.540   6.744   8.378
 5962SOL     OW19782   7.735   5.967   1.448
 5962SOL    HW119783   7.809   5.940   1.394
 5962SOL    HW219784   7.660   5.920   1.411
 5963SOL     OW19785  13.712  11.895   3.340
 5963SOL    HW119786  13.713  11.931   3.251
 5963SOL    HW219787  13.621  11.903   3.369
 5964SOL     OW19788  12.600  14.458  13.777
 5964SOL    HW119789  12.683  14.437  13.735
 5964SOL    HW219790  12.623  14.473  13.869
 5965SOL     OW19791   1.237   8.692   7.593
 5965SOL    HW119792   1.146   8.661   7.593
 5965SOL    HW219793   1.287   8.619   7.557
 5966SOL     OW19794  10.011   3.462   4.931
 5966SOL    HW119795   9.940   3.486   4.871
 5966SOL    HW219796   9.993   3.512   5.011
 5967SOL     OW19797   1.599  14.849  14.111
 5967SOL    HW119798   1.563  14.762  14.095
 5967SOL    HW219799   1.525   0.029  14.097
 5968SOL     OW19800  11.963  10.230   0.577
 5968SOL    HW119801  12.051  10.194   0.570
 5968SOL    HW219802  11.975  10.319   0.610
 5969SOL     OW19803  11.741   9.310  12.871
 5969SOL    HW119804  11.806   9.376  12.896
 5969SOL    HW219805  11.667   9.325  12.930
 5970SOL     OW19806   7.279   6.245   8.418
 5970SOL    HW119807   7.319   6.200   8.344
 5970SOL    HW219808   7.226   6.314   8.379
 5971SOL     OW19809   4.938   6.799   3.319
 5971SOL    HW119810   4.866   6.768   3.373
 5971SOL    HW219811   5.015   6.795   3.376
 5972SOL     OW19812   5.122   1.606   3.264
 5972SOL    HW119813   5.195   1.653   3.304
 5972SOL    HW219814   5.091   1.663   3.194
 5973SOL     OW19815   0.592   5.656   7.371
 5973SOL    HW119816   0.635   5.677   7.453
 5973SOL    HW219817   0.501   5.685   7.383
 5974SOL     OW19818  11.418  14.596   3.700
 5974SOL    HW119819  11.371  14.531   3.753
 5974SOL    HW219820  11.370  14.600   3.618
 5975SOL     OW19821  10.858   2.885   1.230
 5975SOL    HW119822  10.928   2.831   1.266
 5975SOL    HW219823  10.874   2.973   1.266
 5976SOL     OW19824   3.088  11.819  13.899
 5976SOL    HW119825   3.080  11.724  13.892
 5976SOL    HW219826   3.068  11.851  13.811
 5977SOL     OW19827   1.342  12.702  13.684
 5977SOL    HW119828   1.330  12.630  13.621
 5977SOL    HW219829   1.345  12.781  13.630
 5978SOL     OW19830   9.470   5.466  13.634
 5978SOL    HW119831   9.548   5.520  13.644
 5978SOL    HW219832   9.397   5.524  13.656
 5979SOL     OW19833   6.433   7.425   0.024
 5979SOL    HW119834   6.448   7.331   0.012
 5979SOL    HW219835   6.508   7.455   0.076
 5980SOL     OW19836  14.418   1.537  10.280
 5980SOL    HW119837  14.370   1.616  10.258
 5980SOL    HW219838  14.486   1.529  10.213
 5981SOL     OW19839  14.113   7.010  12.304
 5981SOL    HW119840  14.196   6.962  12.308
 5981SOL    HW219841  14.122   7.065  12.226
 5982SOL     OW19842  12.544   1.369  10.436
 5982SOL    HW119843  12.465   1.318  10.454
 5982SOL    HW219844  12.598   1.311  10.382
 5983SOL     OW19845   9.204  13.174   7.993
 5983SOL    HW119846   9.137  13.209   8.052
 5983SOL    HW219847   9.276  13.148   8.051
 5984SOL     OW19848  13.543  11.139   8.147
 5984SOL    HW119849  13.480  11.087   8.196
 5984SOL    HW219850  13.493  11.213   8.113
 5985SOL     OW19851   0.138  10.572   9.550
 5985SOL    HW119852   0.202  10.502   9.546
 5985SOL    HW219853   0.160  10.622   9.629
 5986SOL     OW19854   9.149   8.151  13.750
 5986SOL    HW119855   9.230   8.186  13.786
 5986SOL    HW219856   9.099   8.228  13.723
 5987SOL     OW19857   7.572   8.642   1.317
 5987SOL    HW119858   7.531   8.576   1.373
 5987SOL    HW219859   7.640   8.595   1.269
 5988SOL     OW19860  14.820   0.185   7.802
 5988SOL    HW119861  14.835   0.279   7.790
 5988SOL    HW219862  14.785   0.156   7.717
 5989SOL     OW19863   8.861   6.189  12.542
 5989SOL    HW119864   8.892   6.198  12.632
 5989SOL    HW219865   8.851   6.095  12.530
 5990SOL     OW19866   1.402   7.818  14.312
 5990SOL    HW119867   1.449   7.851  14.235
 5990SOL    HW219868   1.431   7.875  14.384
 5991SOL     OW19869  14.408   3.383  13.213
 5991SOL    HW119870  14.487   3.375  13.267
 5991SOL    HW219871  14.374   3.469  13.234
 5992SOL     OW19872   0.814   2.167   8.476
 5992SOL    HW119873   0.844   2.256   8.494
 5992SOL    HW219874   0.875   2.111   8.524
 5993SOL     OW19875  12.297   5.851  13.025
 5993SOL    HW119876  12.210   5.858  13.065
 5993SOL    HW219877  12.283   5.796  12.948
 5994SOL     OW19878   5.812  14.190   2.420
 5994SOL    HW119879   5.807  14.157   2.331
 5994SOL    HW219880   5.876  14.261   2.416
 5995SOL     OW19881   5.576   2.412  11.400
 5995SOL    HW119882   5.550   2.504  11.407
 5995SOL    HW219883   5.507   2.364  11.445
 5996SOL     OW19884  12.973   4.010   5.974
 5996SOL    HW119885  13.000   4.075   6.039
 5996SOL    HW219886  12.908   3.956   6.019
 5997SOL     OW19887  10.382   3.911  13.029
 5997SOL    HW119888  10.398   3.954  12.945
 5997SOL    HW219889  10.408   3.820  13.016
 5998SOL     OW19890  14.083  13.392   2.355
 5998SOL    HW119891  14.014  13.458   2.365
 5998SOL    HW219892  14.061  13.325   2.419
 5999SOL     OW19893   8.358   4.371  11.722
 5999SOL    HW119894   8.367   4.465  11.741
 5999SOL    HW219895   8.359   4.329  11.808
 6000SOL     OW19896   4.982  13.150   9.240
 6000SOL    HW119897   4.944  13.101   9.167
 6000SOL    HW219898   4.983  13.089   9.313
 6001SOL     OW19899   2.126   8.092  14.218
 6001SOL    HW119900   2.081   8.010  14.202
 6001SOL    HW219901   2.173   8.111  14.137
 6002SOL     OW19902  11.159   7.415   4.310
 6002SOL    HW119903  11.235   7.367   4.277
 6002SOL    HW219904  11.085   7.380   4.260
 6003SOL     OW19905   8.913   8.911   2.561
 6003SOL    HW119906   8.839   8.856   2.585
 6003SOL    HW219907   8.888   8.952   2.479
 6004SOL     OW19908   6.996   0.433   7.307
 6004SOL    HW119909   7.055   0.508   7.315
 6004SOL    HW219910   6.908   0.472   7.305
 6005SOL     OW19911   5.629   6.210   8.544
 6005SOL    HW119912   5.710   6.253   8.572
 6005SOL    HW219913   5.559   6.259   8.587
 6006SOL     OW19914  12.348   8.568  14.261
 6006SOL    HW119915  12.387   8.655  14.264
 6006SOL    HW219916  12.377   8.525  14.341
 6007SOL     OW19917  12.643   3.274   6.007
 6007SOL    HW119918  12.646   3.349   6.066
 6007SOL    HW219919  12.672   3.200   6.061
 6008SOL     OW19920  14.822  13.403   6.771
 6008SOL    HW119921  14.780  13.330   6.726
 6008SOL    HW219922  14.769  13.416   6.850
 6009SOL     OW19923   3.886   6.546   2.020
 6009SOL    HW119924   3.848   6.500   1.945
 6009SOL    HW219925   3.981   6.544   2.003
 6010SOL     OW19926   9.052   7.310   0.430
 6010SOL    HW119927   9.005   7.357   0.360
 6010SOL    HW219928   9.017   7.221   0.426
 6011SOL     OW19929   9.261  10.058   3.275
 6011SOL    HW119930   9.191  10.123   3.281
 6011SOL    HW219931   9.331  10.093   3.330
 6012SOL     OW19932   7.156   1.322   5.090
 6012SOL    HW119933   7.221   1.391   5.098
 6012SOL    HW219934   7.079   1.366   5.054
 6013SOL     OW19935   5.734   8.481  10.679
 6013SOL    HW119936   5.825   8.457  10.662
 6013SOL    HW219937   5.717   8.554  10.620
 6014SOL     OW19938  14.533   6.694   7.938
 6014SOL    HW119939  14.464   6.755   7.911
 6014SOL    HW219940  14.588   6.685   7.861
 6015SOL     OW19941   4.540   8.852   1.694
 6015SOL    HW119942   4.487   8.893   1.625
 6015SOL    HW219943   4.545   8.919   1.762
 6016SOL     OW19944  14.472  13.713  13.297
 6016SOL    HW119945  14.477  13.805  13.269
 6016SOL    HW219946  14.531  13.709  13.373
 6017SOL     OW19947  14.442  13.700  10.413
 6017SOL    HW119948  14.503  13.637  10.376
 6017SOL    HW219949  14.419  13.758  10.341
 6018SOL     OW19950   6.949   3.579  11.523
 6018SOL    HW119951   6.948   3.485  11.539
 6018SOL    HW219952   6.904   3.590  11.440
 6019SOL     OW19953   0.895  13.273  13.659
 6019SOL    HW119954   0.897  13.262  13.564
 6019SOL    HW219955   0.803  13.266  13.682
 6020SOL     OW19956  12.988   0.088   8.395
 6020SOL    HW119957  12.930   0.164   8.389
 6020SOL    HW219958  13.044   0.094   8.317
 6021SOL     OW19959   6.189   4.261   6.644
 6021SOL    HW119960   6.208   4.351   6.619
 6021SOL    HW219961   6.131   4.229   6.575
 6022SOL     OW19962   0.314   4.567  13.872
 6022SOL    HW119963   0.266   4.513  13.935
 6022SOL    HW219964   0.379   4.614  13.925
 6023SOL     OW19965   9.960   7.272   5.139
 6023SOL    HW119966   9.885   7.300   5.193
 6023SOL    HW219967   9.930   7.285   5.049
 6024SOL     OW19968   5.326   5.348  13.235
 6024SOL    HW119969   5.402   5.372  13.289
 6024SOL    HW219970   5.364   5.324  13.151
 6025SOL     OW19971   4.180  13.901   8.269
 6025SOL    HW119972   4.173  13.910   8.364
 6025SOL    HW219973   4.261  13.852   8.256
 6026SOL     OW19974  11.718  11.661  14.258
 6026SOL    HW119975  11.680  11.705  14.334
 6026SOL    HW219976  11.654  11.673  14.188
 6027SOL     OW19977   0.018   1.705   7.230
 6027SOL    HW119978   0.079   1.747   7.290
 6027SOL    HW219979   0.063   1.626   7.201
 6028SOL     OW19980   7.070  11.311   2.268
 6028SOL    HW119981   7.152  11.269   2.242
 6028SOL    HW219982   7.026  11.246   2.323
 6029SOL     OW19983   8.761   6.968   4.816
 6029SOL    HW119984   8.683   6.931   4.856
 6029SOL    HW219985   8.831   6.950   4.879
 6030SOL     OW19986   2.704  12.538   7.070
 6030SOL    HW119987   2.698  12.575   7.158
 6030SOL    HW219988   2.697  12.443   7.083
 6031SOL     OW19989   3.429  10.942   5.744
 6031SOL    HW119990   3.441  11.025   5.698
 6031SOL    HW219991   3.475  10.878   5.690
 6032SOL     OW19992   5.558  10.264  12.152
 6032SOL    HW119993   5.479  10.260  12.205
 6032SOL    HW219994   5.603  10.344  12.181
 6033SOL     OW19995  13.645   2.456  13.352
 6033SOL    HW119996  13.607   2.393  13.291
 6033SOL    HW219997  13.595   2.536  13.338
 6034SOL     OW19998   8.325  13.497   6.689
 6034SOL    HW119999   8.316  13.505   6.594
 6034SOL    HW220000   8.288  13.578   6.724
 6035SOL     OW20001   2.932   2.939   6.056
 6035SOL    HW120002   2.874   3.016   6.056
 6035SOL    HW220003   3.008   2.966   6.107
 6036SOL     OW20004  13.541  11.915   3.858
 6036SOL    HW120005  13.608  11.869   3.808
 6036SOL    HW220006  13.513  11.986   3.800
 6037SOL     OW20007   8.880   8.752   7.340
 6037SOL    HW120008   8.963   8.789   7.369
 6037SOL    HW220009   8.903   8.670   7.296
 6038SOL     OW20010   0.079   4.998   6.756
 6038SOL    HW120011   0.128   5.021   6.836
 6038SOL    HW220012  14.869   4.985   6.786
 6039SOL     OW20013   3.524   5.219   4.165
 6039SOL    HW120014   3.514   5.314   4.171
 6039SOL    HW220015   3.434   5.186   4.170
 6040SOL     OW20016   2.151  12.108   3.854
 6040SOL    HW120017   2.068  12.107   3.903
 6040SOL    HW220018   2.170  12.016   3.838
 6041SOL     OW20019   9.850  11.107   3.273
 6041SOL    HW120020   9.769  11.128   3.227
 6041SOL    HW220021   9.854  11.011   3.273
 6042SOL     OW20022   4.054   2.613   3.147
 6042SOL    HW120023   4.074   2.519   3.146
 6042SOL    HW220024   4.139   2.656   3.158
 6043SOL     OW20025   0.648   1.932   6.875
 6043SOL    HW120026   0.682   1.844   6.894
 6043SOL    HW220027   0.556   1.928   6.899
 6044SOL     OW20028   8.677  12.630   5.521
 6044SOL    HW120029   8.749  12.685   5.553
 6044SOL    HW220030   8.719  12.551   5.488
 6045SOL     OW20031   8.344   9.194   1.853
 6045SOL    HW120032   8.414   9.205   1.788
 6045SOL    HW220033   8.386   9.211   1.937
 6046SOL     OW20034   3.723  12.645  14.264
 6046SOL    HW120035   3.813  12.641  14.232
 6046SOL    HW220036   3.716  12.730  14.308
 6047SOL     OW20037   5.780   6.371   9.176
 6047SOL    HW120038   5.765   6.279   9.155
 6047SOL    HW220039   5.831   6.370   9.257
 6048SOL     OW20040   5.289   4.312   4.327
 6048SOL    HW120041   5.374   4.331   4.286
 6048SOL    HW220042   5.311   4.283   4.415
 6049SOL     OW20043   7.018   9.238  13.920
 6049SOL    HW120044   6.975   9.323  13.925
 6049SOL    HW220045   7.103   9.251  13.961
 6050SOL     OW20046   7.436   1.639  10.170
 6050SOL    HW120047   7.519   1.664  10.128
 6050SOL    HW220048   7.439   1.682  10.256
 6051SOL     OW20049   7.389   6.564   8.094
 6051SOL    HW120050   7.314   6.598   8.045
 6051SOL    HW220051   7.465   6.592   8.044
 6052SOL     OW20052   1.386   8.798  11.906
 6052SOL    HW120053   1.338   8.808  11.989
 6052SOL    HW220054   1.453   8.865  11.909
 6053SOL     OW20055   8.139  12.930  13.067
 6053SOL    HW120056   8.089  12.848  13.058
 6053SOL    HW220057   8.185  12.920  13.151
 6054SOL     OW20058   6.181  12.205  10.286
 6054SOL    HW120059   6.193  12.128  10.230
 6054SOL    HW220060   6.266  12.249  10.283
 6055SOL     OW20061   6.917  12.561   9.663
 6055SOL    HW120062   6.908  12.466   9.663
 6055SOL    HW220063   6.944  12.583   9.752
 6056SOL     OW20064   2.550   6.053   8.763
 6056SOL    HW120065   2.470   6.004   8.742
 6056SOL    HW220066   2.591   6.002   8.832
 6057SOL     OW20067   6.802   0.271   5.353
 6057SOL    HW120068   6.797   0.321   5.271
 6057SOL    HW220069   6.802   0.337   5.422
 6058SOL     OW20070   0.109  11.840   8.223
 6058SOL    HW120071   0.090  11.766   8.165
 6058SOL    HW220072   0.172  11.805   8.286
 6059SOL     OW20073   2.814  12.324   3.501
 6059SOL    HW120074   2.754  12.259   3.537
 6059SOL    HW220075   2.805  12.315   3.406
 6060SOL     OW20076   6.619   1.177  10.748
 6060SOL    HW120077   6.678   1.238  10.704
 6060SOL    HW220078   6.618   1.206  10.839
 6061SOL     OW20079   6.074   7.884   1.475
 6061SOL    HW120080   5.992   7.874   1.524
 6061SOL    HW220081   6.139   7.836   1.527
 6062SOL     OW20082  13.381  14.859   7.639
 6062SOL    HW120083  13.378  14.868   7.544
 6062SOL    HW220084  13.353   0.065   7.671
 6063SOL     OW20085   1.600   4.979   4.908
 6063SOL    HW120086   1.524   4.969   4.965
 6063SOL    HW220087   1.666   4.919   4.945
 6064SOL     OW20088   8.901   8.982  11.888
 6064SOL    HW120089   8.870   8.894  11.911
 6064SOL    HW220090   8.996   8.973  11.879
 6065SOL     OW20091   5.897   8.413  14.127
 6065SOL    HW120092   5.887   8.358  14.050
 6065SOL    HW220093   5.882   8.354  14.201
 6066SOL     OW20094   9.959   5.708  13.378
 6066SOL    HW120095   9.960   5.704  13.282
 6066SOL    HW220096   9.981   5.620  13.407
 6067SOL     OW20097  12.321  10.168  13.218
 6067SOL    HW120098  12.386  10.231  13.250
 6067SOL    HW220099  12.237  10.205  13.242
 6068SOL     OW20100   4.797  10.920   3.565
 6068SOL    HW120101   4.751  10.890   3.486
 6068SOL    HW220102   4.868  10.857   3.577
 6069SOL     OW20103  14.279  12.525  14.000
 6069SOL    HW120104  14.355  12.582  13.987
 6069SOL    HW220105  14.302  12.471  14.076
 6070SOL     OW20106  13.425   1.710   6.415
 6070SOL    HW120107  13.343   1.734   6.458
 6070SOL    HW220108  13.406   1.627   6.372
 6071SOL     OW20109  14.763   7.944  11.562
 6071SOL    HW120110  14.686   7.961  11.507
 6071SOL    HW220111  14.749   7.996  11.641
 6072SOL     OW20112  12.706  13.288   4.942
 6072SOL    HW120113  12.622  13.271   4.983
 6072SOL    HW220114  12.725  13.208   4.893
 6073SOL     OW20115   2.948  13.920   8.335
 6073SOL    HW120116   2.899  13.841   8.314
 6073SOL    HW220117   2.946  13.972   8.255
 6074SOL     OW20118   2.121   5.456   8.427
 6074SOL    HW120119   2.031   5.451   8.396
 6074SOL    HW220120   2.124   5.537   8.478
 6075SOL     OW20121   6.800   2.495   5.933
 6075SOL    HW120122   6.871   2.553   5.905
 6075SOL    HW220123   6.721   2.536   5.898
 6076SOL     OW20124  10.390  10.449   5.110
 6076SOL    HW120125  10.469  10.405   5.143
 6076SOL    HW220126  10.382  10.528   5.164
 6077SOL     OW20127  11.427  14.762   2.359
 6077SOL    HW120128  11.422  14.685   2.415
 6077SOL    HW220129  11.348  14.757   2.304
 6078SOL     OW20130  10.830   5.578  13.425
 6078SOL    HW120131  10.752   5.613  13.468
 6078SOL    HW220132  10.836   5.626  13.342
 6079SOL     OW20133   2.301   5.891   2.519
 6079SOL    HW120134   2.394   5.890   2.496
 6079SOL    HW220135   2.255   5.886   2.435
 6080SOL     OW20136  11.275   6.335   2.134
 6080SOL    HW120137  11.200   6.369   2.183
 6080SOL    HW220138  11.350   6.384   2.168
 6081SOL     OW20139   1.358   6.650   2.544
 6081SOL    HW120140   1.298   6.671   2.472
 6081SOL    HW220141   1.304   6.603   2.608
 6082SOL     OW20142   5.714  10.698  14.026
 6082SOL    HW120143   5.622  10.683  14.004
 6082SOL    HW220144   5.725  10.793  14.017
 6083SOL     OW20145   0.991  14.725  10.710
 6083SOL    HW120146   0.950  14.796  10.759
 6083SOL    HW220147   0.999  14.760  10.621
 6084SOL     OW20148  11.467  12.856  10.278
 6084SOL    HW120149  11.490  12.942  10.313
 6084SOL    HW220150  11.481  12.796  10.350
 6085SOL     OW20151   1.525  14.763   7.405
 6085SOL    HW120152   1.499  14.852   7.379
 6085SOL    HW220153   1.485  14.706   7.339
 6086SOL     OW20154   3.942  10.571   5.423
 6086SOL    HW120155   4.034  10.597   5.413
 6086SOL    HW220156   3.896  10.652   5.445
 6087SOL     OW20157   3.908   9.399  11.968
 6087SOL    HW120158   3.900   9.494  11.979
 6087SOL    HW220159   3.958   9.388  11.887
 6088SOL     OW20160   8.046  10.751  14.119
 6088SOL    HW120161   8.029  10.828  14.065
 6088SOL    HW220162   8.101  10.784  14.191
 6089SOL     OW20163   7.680   4.972   4.879
 6089SOL    HW120164   7.710   4.951   4.967
 6089SOL    HW220165   7.710   5.063   4.866
 6090SOL     OW20166   5.446  12.920   0.218
 6090SOL    HW120167   5.478  12.998   0.174
 6090SOL    HW220168   5.524  12.879   0.255
 6091SOL     OW20169  13.149   1.152   6.718
 6091SOL    HW120170  13.055   1.133   6.723
 6091SOL    HW220171  13.159   1.232   6.769
 6092SOL     OW20172   5.640  14.671   8.610
 6092SOL    HW120173   5.697  14.661   8.686
 6092SOL    HW220174   5.697  14.708   8.542
 6093SOL     OW20175  10.137  13.041  14.237
 6093SOL    HW120176  10.149  13.063  14.329
 6093SOL    HW220177  10.168  12.951  14.229
 6094SOL     OW20178   5.699   6.038  13.147
 6094SOL    HW120179   5.606   6.052  13.167
 6094SOL    HW220180   5.707   5.943  13.139
 6095SOL     OW20181   1.589  14.575   9.658
 6095SOL    HW120182   1.586  14.598   9.565
 6095SOL    HW220183   1.523  14.507   9.668
 6096SOL     OW20184   2.003  12.030   5.466
 6096SOL    HW120185   1.918  12.069   5.445
 6096SOL    HW220186   1.999  12.012   5.560
 6097SOL     OW20187  13.004   6.172   6.436
 6097SOL    HW120188  13.006   6.203   6.345
 6097SOL    HW220189  13.095   6.158   6.459
 6098SOL     OW20190   9.264   1.394   0.617
 6098SOL    HW120191   9.224   1.444   0.688
 6098SOL    HW220192   9.305   1.319   0.661
 6099SOL     OW20193   3.326  11.600   4.372
 6099SOL    HW120194   3.295  11.555   4.293
 6099SOL    HW220195   3.384  11.669   4.339
 6100SOL     OW20196   6.865   9.574   8.469
 6100SOL    HW120197   6.932   9.611   8.412
 6100SOL    HW220198   6.850   9.486   8.433
 6101SOL     OW20199   5.562   5.995   9.424
 6101SOL    HW120200   5.591   5.942   9.350
 6101SOL    HW220201   5.626   6.065   9.430
 6102SOL     OW20202  11.962   1.222  14.747
 6102SOL    HW120203  12.044   1.175  14.732
 6102SOL    HW220204  11.959   1.235  14.842
 6103SOL     OW20205  10.871   5.157   7.583
 6103SOL    HW120206  10.806   5.128   7.519
 6103SOL    HW220207  10.902   5.241   7.549
 6104SOL     OW20208  10.397   6.362   3.906
 6104SOL    HW120209  10.427   6.428   3.844
 6104SOL    HW220210  10.466   6.296   3.908
 6105SOL     OW20211  10.461   9.741   8.312
 6105SOL    HW120212  10.367   9.741   8.330
 6105SOL    HW220213  10.467   9.725   8.217
 6106SOL     OW20214  10.760  11.887  12.891
 6106SOL    HW120215  10.765  11.930  12.977
 6106SOL    HW220216  10.790  11.798  12.907
 6107SOL     OW20217  12.251  13.165  11.461
 6107SOL    HW120218  12.314  13.233  11.485
 6107SOL    HW220219  12.198  13.152  11.540
 6108SOL     OW20220   4.414  10.000  12.141
 6108SOL    HW120221   4.347   9.968  12.080
 6108SOL    HW220222   4.406   9.943  12.217
 6109SOL     OW20223   9.022   2.556  10.404
 6109SOL    HW120224   9.008   2.472  10.359
 6109SOL    HW220225   9.073   2.608  10.341
 6110SOL     OW20226  11.758  14.839   6.005
 6110SOL    HW120227  11.828  14.853   5.942
 6110SOL    HW220228  11.731  14.748   5.991
 6111SOL     OW20229   0.189   1.274  13.344
 6111SOL    HW120230   0.179   1.325  13.424
 6111SOL    HW220231   0.196   1.339  13.274
 6112SOL     OW20232  10.806   2.905   5.965
 6112SOL    HW120233  10.883   2.950   6.000
 6112SOL    HW220234  10.737   2.970   5.966
 6113SOL     OW20235  12.316  12.320  11.801
 6113SOL    HW120236  12.372  12.257  11.754
 6113SOL    HW220237  12.235  12.271  11.818
 6114SOL     OW20238   9.220   6.851  10.598
 6114SOL    HW120239   9.302   6.817  10.631
 6114SOL    HW220240   9.240   6.882  10.510
 6115SOL     OW20241  12.684   3.383   8.413
 6115SOL    HW120242  12.627   3.458   8.428
 6115SOL    HW220243  12.768   3.408   8.452
 6116SOL     OW20244   2.338   1.192   8.102
 6116SOL    HW120245   2.295   1.132   8.163
 6116SOL    HW220246   2.417   1.220   8.147
 6117SOL     OW20247  13.278  13.805   2.258
 6117SOL    HW120248  13.223  13.739   2.300
 6117SOL    HW220249  13.357  13.808   2.312
 6118SOL     OW20250  12.968   6.580   2.040
 6118SOL    HW120251  12.989   6.490   2.018
 6118SOL    HW220252  13.008   6.594   2.125
 6119SOL     OW20253   9.192   5.153   3.817
 6119SOL    HW120254   9.241   5.233   3.837
 6119SOL    HW220255   9.117   5.155   3.876
 6120SOL     OW20256   5.705   2.054   4.080
 6120SOL    HW120257   5.610   2.051   4.087
 6120SOL    HW220258   5.728   2.145   4.099
 6121SOL     OW20259  14.324   6.428   1.623
 6121SOL    HW120260  14.277   6.366   1.567
 6121SOL    HW220261  14.415   6.399   1.620
 6122SOL     OW20262   4.923   4.573   8.000
 6122SOL    HW120263   4.887   4.508   8.060
 6122SOL    HW220264   5.012   4.542   7.981
 6123SOL     OW20265   8.569  12.394   5.904
 6123SOL    HW120266   8.493  12.439   5.940
 6123SOL    HW220267   8.605  12.344   5.977
 6124SOL     OW20268   9.916   7.609   4.775
 6124SOL    HW120269   9.874   7.686   4.813
 6124SOL    HW220270   9.972   7.644   4.706
 6125SOL     OW20271   8.919   3.442  11.993
 6125SOL    HW120272   8.886   3.354  12.010
 6125SOL    HW220273   8.874   3.498  12.057
 6126SOL     OW20274   4.200   4.754   0.211
 6126SOL    HW120275   4.204   4.826   0.274
 6126SOL    HW220276   4.107   4.747   0.190
 6127SOL     OW20277  13.548   0.568   2.456
 6127SOL    HW120278  13.461   0.596   2.483
 6127SOL    HW220279  13.601   0.576   2.536
 6128SOL     OW20280   4.464   9.282   7.650
 6128SOL    HW120281   4.402   9.337   7.697
 6128SOL    HW220282   4.550   9.314   7.676
 6129SOL     OW20283   7.863  12.625   3.606
 6129SOL    HW120284   7.945  12.622   3.656
 6129SOL    HW220285   7.889  12.603   3.517
 6130SOL     OW20286   2.131   5.532   9.791
 6130SOL    HW120287   2.107   5.606   9.735
 6130SOL    HW220288   2.112   5.454   9.738
 6131SOL     OW20289   8.672   9.721   5.870
 6131SOL    HW120290   8.731   9.734   5.796
 6131SOL    HW220291   8.700   9.637   5.908
 6132SOL     OW20292   4.641   3.529  14.577
 6132SOL    HW120293   4.705   3.587  14.618
 6132SOL    HW220294   4.562   3.583  14.570
 6133SOL     OW20295   1.924   1.973   8.530
 6133SOL    HW120296   1.844   1.939   8.490
 6133SOL    HW220297   1.957   2.036   8.466
 6134SOL     OW20298   8.344   5.169   7.653
 6134SOL    HW120299   8.330   5.256   7.615
 6134SOL    HW220300   8.263   5.122   7.634
 6135SOL     OW20301  12.091   8.279  10.286
 6135SOL    HW120302  11.998   8.261  10.302
 6135SOL    HW220303  12.104   8.259  10.193
 6136SOL     OW20304   3.409   6.279   5.829
 6136SOL    HW120305   3.470   6.214   5.862
 6136SOL    HW220306   3.414   6.351   5.892
 6137SOL     OW20307   9.668   0.422  13.565
 6137SOL    HW120308   9.650   0.374  13.646
 6137SOL    HW220309   9.590   0.476  13.552
 6138SOL     OW20310  14.857   1.930  13.060
 6138SOL    HW120311  14.799   1.968  12.993
 6138SOL    HW220312   0.065   1.940  13.024
 6139SOL     OW20313   2.063   3.202   8.826
 6139SOL    HW120314   2.093   3.222   8.737
 6139SOL    HW220315   2.139   3.162   8.868
 6140SOL     OW20316   6.601   4.285   1.276
 6140SOL    HW120317   6.637   4.330   1.199
 6140SOL    HW220318   6.560   4.355   1.327
 6141SOL     OW20319   1.219  13.963  12.520
 6141SOL    HW120320   1.136  13.919  12.535
 6141SOL    HW220321   1.237  13.951  12.426
 6142SOL     OW20322   0.656  10.427   2.883
 6142SOL    HW120323   0.564  10.447   2.903
 6142SOL    HW220324   0.664  10.444   2.789
 6143SOL     OW20325  10.371  13.877   8.600
 6143SOL    HW120326  10.344  13.968   8.588
 6143SOL    HW220327  10.464  13.877   8.578
 6144SOL     OW20328   2.913   8.641  14.141
 6144SOL    HW120329   2.987   8.695  14.112
 6144SOL    HW220330   2.839   8.701  14.146
 6145SOL     OW20331   0.768   5.461   1.889
 6145SOL    HW120332   0.676   5.474   1.866
 6145SOL    HW220333   0.766   5.394   1.957
 6146SOL     OW20334   0.252   7.867   8.204
 6146SOL    HW120335   0.170   7.917   8.203
 6146SOL    HW220336   0.232   7.789   8.257
 6147SOL     OW20337   4.957   6.639   2.356
 6147SOL    HW120338   4.899   6.711   2.383
 6147SOL    HW220339   4.967   6.652   2.261
 6148SOL     OW20340  10.011  11.225   5.637
 6148SOL    HW120341   9.965  11.308   5.624
 6148SOL    HW220342   9.959  11.178   5.702
 6149SOL     OW20343   8.087   4.591  10.310
 6149SOL    HW120344   8.134   4.623  10.233
 6149SOL    HW220345   8.138   4.622  10.385
 6150SOL     OW20346   7.068   3.792   5.972
 6150SOL    HW120347   7.107   3.724   5.917
 6150SOL    HW220348   6.995   3.748   6.016
 6151SOL     OW20349   3.689   7.657   3.908
 6151SOL    HW120350   3.685   7.724   3.840
 6151SOL    HW220351   3.781   7.630   3.909
 6152SOL     OW20352   4.845   7.712  10.243
 6152SOL    HW120353   4.792   7.748  10.314
 6152SOL    HW220354   4.783   7.694  10.172
 6153SOL     OW20355   4.427   0.193   6.338
 6153SOL    HW120356   4.362   0.178   6.269
 6153SOL    HW220357   4.467   0.277   6.314
 6154SOL     OW20358  14.293  11.056   2.635
 6154SOL    HW120359  14.198  11.048   2.632
 6154SOL    HW220360  14.308  11.144   2.670
 6155SOL     OW20361  13.184   5.746  14.744
 6155SOL    HW120362  13.159   5.662  14.782
 6155SOL    HW220363  13.111   5.804  14.762
 6156SOL     OW20364   5.701   0.911  12.538
 6156SOL    HW120365   5.765   0.852  12.578
 6156SOL    HW220366   5.638   0.929  12.607
 6157SOL     OW20367  13.088   5.536   1.788
 6157SOL    HW120368  13.024   5.595   1.750
 6157SOL    HW220369  13.061   5.527   1.880
 6158SOL     OW20370   7.394   1.325  14.261
 6158SOL    HW120371   7.301   1.331  14.238
 6158SOL    HW220372   7.405   1.235  14.291
 6159SOL     OW20373   8.895   6.336   9.919
 6159SOL    HW120374   8.981   6.312   9.884
 6159SOL    HW220375   8.885   6.282   9.997
 6160SOL     OW20376  12.149   4.494   8.759
 6160SOL    HW120377  12.119   4.424   8.817
 6160SOL    HW220378  12.142   4.457   8.671
 6161SOL     OW20379   5.147   3.793  12.020
 6161SOL    HW120380   5.185   3.876  12.048
 6161SOL    HW220381   5.175   3.730  12.087
 6162SOL     OW20382   7.099   0.082   9.255
 6162SOL    HW120383   7.157   0.155   9.276
 6162SOL    HW220384   7.018   0.124   9.225
 6163SOL     OW20385   3.757  11.491  12.174
 6163SOL    HW120386   3.769  11.403  12.138
 6163SOL    HW220387   3.663  11.499  12.186
 6164SOL     OW20388   0.701  14.312   1.775
 6164SOL    HW120389   0.641  14.378   1.740
 6164SOL    HW220390   0.646  14.254   1.827
 6165SOL     OW20391  13.666   2.602   2.718
 6165SOL    HW120392  13.726   2.578   2.648
 6165SOL    HW220393  13.702   2.684   2.754
 6166SOL     OW20394   5.165   5.304  11.951
 6166SOL    HW120395   5.097   5.286  11.886
 6166SOL    HW220396   5.202   5.388  11.925
 6167SOL     OW20397  10.449   4.709   2.523
 6167SOL    HW120398  10.475   4.617   2.514
 6167SOL    HW220399  10.395   4.727   2.446
 6168SOL     OW20400   1.680   9.696   6.193
 6168SOL    HW120401   1.749   9.762   6.184
 6168SOL    HW220402   1.664   9.692   6.287
 6169SOL     OW20403   8.350   3.457   5.123
 6169SOL    HW120404   8.263   3.471   5.160
 6169SOL    HW220405   8.343   3.484   5.031
 6170SOL     OW20406  13.804   5.625   2.396
 6170SOL    HW120407  13.743   5.660   2.330
 6170SOL    HW220408  13.760   5.547   2.429
 6171SOL     OW20409  14.540   7.696   9.150
 6171SOL    HW120410  14.530   7.766   9.214
 6171SOL    HW220411  14.500   7.620   9.191
 6172SOL     OW20412   2.069  14.873  13.743
 6172SOL    HW120413   2.114  14.870  13.827
 6172SOL    HW220414   2.124  14.821  13.684
 6173SOL     OW20415  14.337   3.272   2.027
 6173SOL    HW120416  14.414   3.216   2.032
 6173SOL    HW220417  14.327   3.308   2.115
 6174SOL     OW20418  11.542   2.702   3.110
 6174SOL    HW120419  11.545   2.795   3.089
 6174SOL    HW220420  11.543   2.658   3.025
 6175SOL     OW20421   9.680   0.843   2.914
 6175SOL    HW120422   9.753   0.901   2.936
 6175SOL    HW220423   9.662   0.862   2.822
 6176SOL     OW20424   0.927   3.156  14.683
 6176SOL    HW120425   1.002   3.179  14.628
 6176SOL    HW220426   0.965   3.117  14.761
 6177SOL     OW20427   0.367   2.165   1.200
 6177SOL    HW120428   0.452   2.183   1.240
 6177SOL    HW220429   0.387   2.135   1.112
 6178SOL     OW20430  12.005   8.029   4.675
 6178SOL    HW120431  12.021   8.104   4.733
 6178SOL    HW220432  12.075   7.967   4.696
 6179SOL     OW20433   2.980  13.257   9.272
 6179SOL    HW120434   3.058  13.265   9.217
 6179SOL    HW220435   3.006  13.200   9.344
 6180SOL     OW20436  11.640  14.825  10.476
 6180SOL    HW120437  11.725  14.801  10.512
 6180SOL    HW220438  11.579  14.812  10.549
 6181SOL     OW20439   8.471  14.161  10.960
 6181SOL    HW120440   8.545  14.135  11.015
 6181SOL    HW220441   8.428  14.231  11.010
 6182SOL     OW20442   1.354   9.583   4.041
 6182SOL    HW120443   1.363   9.489   4.060
 6182SOL    HW220444   1.359   9.588   3.946
 6183SOL     OW20445   6.245  13.999   4.433
 6183SOL    HW120446   6.309  14.041   4.375
 6183SOL    HW220447   6.186  14.070   4.457
 6184SOL     OW20448   1.067   5.791   1.563
 6184SOL    HW120449   1.035   5.849   1.632
 6184SOL    HW220450   1.160   5.779   1.582
 6185SOL     OW20451   4.387   4.105   7.125
 6185SOL    HW120452   4.469   4.151   7.143
 6185SOL    HW220453   4.320   4.173   7.128
 6186SOL     OW20454  13.796   6.387   4.656
 6186SOL    HW120455  13.723   6.332   4.627
 6186SOL    HW220456  13.773   6.413   4.746
 6187SOL     OW20457   1.551   0.650  11.232
 6187SOL    HW120458   1.550   0.558  11.206
 6187SOL    HW220459   1.642   0.678  11.219
 6188SOL     OW20460   0.600  12.044  11.837
 6188SOL    HW120461   0.608  12.033  11.742
 6188SOL    HW220462   0.691  12.048  11.868
 6189SOL     OW20463   0.967   9.965   8.840
 6189SOL    HW120464   0.929  10.040   8.794
 6189SOL    HW220465   1.061   9.980   8.838
 6190SOL     OW20466   3.028  11.884   0.447
 6190SOL    HW120467   2.949  11.864   0.397
 6190SOL    HW220468   3.039  11.978   0.438
 6191SOL     OW20469   8.916  12.078   7.925
 6191SOL    HW120470   8.978  12.129   7.976
 6191SOL    HW220471   8.960  11.994   7.912
 6192SOL     OW20472   1.751   7.797   5.578
 6192SOL    HW120473   1.659   7.822   5.568
 6192SOL    HW220474   1.795   7.879   5.600
 6193SOL     OW20475   5.070   0.261   6.090
 6193SOL    HW120476   5.023   0.342   6.072
 6193SOL    HW220477   5.086   0.222   6.004
 6194SOL     OW20478   5.759   2.547   0.428
 6194SOL    HW120479   5.807   2.575   0.351
 6194SOL    HW220480   5.738   2.455   0.411
 6195SOL     OW20481   8.753   4.643  14.474
 6195SOL    HW120482   8.674   4.599  14.444
 6195SOL    HW220483   8.723   4.707  14.538
 6196SOL     OW20484   9.850   4.269   9.379
 6196SOL    HW120485   9.892   4.306   9.301
 6196SOL    HW220486   9.905   4.195   9.403
 6197SOL     OW20487  12.538  14.796   5.362
 6197SOL    HW120488  12.493  14.781   5.444
 6197SOL    HW220489  12.530  14.713   5.315
 6198SOL     OW20490  11.258  14.213  13.355
 6198SOL    HW120491  11.333  14.175  13.401
 6198SOL    HW220492  11.207  14.255  13.424
 6199SOL     OW20493   9.156   0.929   9.944
 6199SOL    HW120494   9.077   0.910   9.893
 6199SOL    HW220495   9.159   0.861  10.011
 6200SOL     OW20496   8.669   8.509   9.999
 6200SOL    HW120497   8.608   8.551  10.060
 6200SOL    HW220498   8.755   8.545  10.023
 6201SOL     OW20499   5.662  11.369   4.636
 6201SOL    HW120500   5.597  11.409   4.579
 6201SOL    HW220501   5.644  11.275   4.630
 6202SOL     OW20502   0.567   8.376   4.463
 6202SOL    HW120503   0.522   8.455   4.433
 6202SOL    HW220504   0.499   8.324   4.505
 6203SOL     OW20505   3.724   8.999  10.015
 6203SOL    HW120506   3.797   9.041  10.060
 6203SOL    HW220507   3.659   9.068  10.005
 6204SOL     OW20508   0.301  12.641  14.043
 6204SOL    HW120509   0.293  12.726  14.001
 6204SOL    HW220510   0.356  12.656  14.120
 6205SOL     OW20511   0.701   3.784   6.445
 6205SOL    HW120512   0.636   3.851   6.465
 6205SOL    HW220513   0.649   3.709   6.414
 6206SOL     OW20514   2.304   8.416  14.301
 6206SOL    HW120515   2.341   8.445  14.217
 6206SOL    HW220516   2.209   8.424  14.289
 6207SOL     OW20517  14.773  11.183   6.576
 6207SOL    HW120518  14.830  11.140   6.640
 6207SOL    HW220519  14.707  11.116   6.554
 6208SOL     OW20520  10.827  12.675  12.031
 6208SOL    HW120521  10.873  12.591  12.037
 6208SOL    HW220522  10.766  12.675  12.105
 6209SOL     OW20523   6.971   4.864   7.462
 6209SOL    HW120524   6.946   4.907   7.381
 6209SOL    HW220525   7.024   4.789   7.434
 6210SOL     OW20526   1.504   9.863  11.985
 6210SOL    HW120527   1.408   9.869  11.989
 6210SOL    HW220528   1.534   9.950  12.011
 6211SOL     OW20529   7.970   9.826  13.630
 6211SOL    HW120530   7.909   9.834  13.704
 6211SOL    HW220531   8.038   9.765  13.661
 6212SOL     OW20532   1.001   2.709   8.016
 6212SOL    HW120533   0.966   2.744   8.097
 6212SOL    HW220534   0.984   2.776   7.951
 6213SOL     OW20535   2.890   1.819  14.720
 6213SOL    HW120536   2.941   1.821  14.801
 6213SOL    HW220537   2.955   1.800  14.652
 6214SOL     OW20538   9.409   3.226  11.363
 6214SOL    HW120539   9.331   3.281  11.354
 6214SOL    HW220540   9.468   3.257  11.294
 6215SOL     OW20541   3.790  11.239  12.098
 6215SOL    HW120542   3.845  11.224  12.021
 6215SOL    HW220543   3.735  11.161  12.104
 6216SOL     OW20544   7.265  11.387  13.228
 6216SOL    HW120545   7.341  11.363  13.175
 6216SOL    HW220546   7.264  11.323  13.299
 6217SOL     OW20547   8.663   1.396  14.429
 6217SOL    HW120548   8.750   1.400  14.391
 6217SOL    HW220549   8.627   1.484  14.416
 6218SOL     OW20550  12.638  13.858   9.462
 6218SOL    HW120551  12.638  13.777   9.412
 6218SOL    HW220552  12.647  13.927   9.396
 6219SOL     OW20553   0.977   3.073  14.189
 6219SOL    HW120554   1.030   3.135  14.140
 6219SOL    HW220555   0.893   3.116  14.199
 6220SOL     OW20556   5.529  13.429   1.947
 6220SOL    HW120557   5.570  13.496   2.003
 6220SOL    HW220558   5.602  13.374   1.919
 6221SOL     OW20559  11.687  14.641   1.111
 6221SOL    HW120560  11.617  14.580   1.134
 6221SOL    HW220561  11.641  14.718   1.078
 6222SOL     OW20562   7.781   2.541   1.402
 6222SOL    HW120563   7.687   2.552   1.420
 6222SOL    HW220564   7.788   2.551   1.307
 6223SOL     OW20565   1.707  14.826  11.617
 6223SOL    HW120566   1.631  14.814  11.674
 6223SOL    HW220567   1.686  14.774  11.539
 6224SOL     OW20568   1.711   0.704  11.951
 6224SOL    HW120569   1.777   0.700  11.881
 6224SOL    HW220570   1.755   0.665  12.027
 6225SOL     OW20571   0.468   9.286  11.618
 6225SOL    HW120572   0.523   9.348  11.666
 6225SOL    HW220573   0.479   9.311  11.526
 6226SOL     OW20574   5.322  10.588  10.818
 6226SOL    HW120575   5.373  10.605  10.898
 6226SOL    HW220576   5.383  10.540  10.761
 6227SOL     OW20577   8.933  13.990   9.764
 6227SOL    HW120578   8.917  14.021   9.854
 6227SOL    HW220579   8.977  14.063   9.721
 6228SOL     OW20580  10.873   8.586   4.921
 6228SOL    HW120581  10.788   8.617   4.888
 6228SOL    HW220582  10.861   8.491   4.931
 6229SOL     OW20583  12.183  14.553   9.220
 6229SOL    HW120584  12.216  14.605   9.293
 6229SOL    HW220585  12.092  14.579   9.210
 6230SOL     OW20586   6.659  13.255   3.029
 6230SOL    HW120587   6.615  13.173   3.053
 6230SOL    HW220588   6.602  13.324   3.064
 6231SOL     OW20589   9.110  12.957   9.338
 6231SOL    HW120590   9.088  13.047   9.314
 6231SOL    HW220591   9.043  12.932   9.401
 6232SOL     OW20592   8.942   4.311  13.664
 6232SOL    HW120593   8.942   4.256  13.742
 6232SOL    HW220594   8.975   4.396  13.693
 6233SOL     OW20595   0.593  11.239  10.803
 6233SOL    HW120596   0.585  11.144  10.809
 6233SOL    HW220597   0.558  11.272  10.886
 6234SOL     OW20598   8.633   6.615   6.210
 6234SOL    HW120599   8.651   6.678   6.280
 6234SOL    HW220600   8.542   6.589   6.224
 6235SOL     OW20601   0.817  14.300  11.715
 6235SOL    HW120602   0.895  14.272  11.763
 6235SOL    HW220603   0.748  14.242  11.746
 6236SOL     OW20604   3.631  14.264  13.398
 6236SOL    HW120605   3.647  14.260  13.493
 6236SOL    HW220606   3.540  14.294  13.391
 6237SOL     OW20607  10.428   3.821  10.209
 6237SOL    HW120608  10.496   3.861  10.264
 6237SOL    HW220609  10.346   3.854  10.245
 6238SOL     OW20610   5.927   0.687   1.246
 6238SOL    HW120611   5.951   0.778   1.262
 6238SOL    HW220612   5.853   0.691   1.186
 6239SOL     OW20613   2.688   7.723   4.393
 6239SOL    HW120614   2.618   7.687   4.338
 6239SOL    HW220615   2.743   7.649   4.415
 6240SOL     OW20616   3.285  13.145   0.496
 6240SOL    HW120617   3.294  13.148   0.401
 6240SOL    HW220618   3.370  13.114   0.527
 6241SOL     OW20619  12.884  13.956   2.472
 6241SOL    HW120620  12.904  13.868   2.439
 6241SOL    HW220621  12.959  14.009   2.447
 6242SOL     OW20622   2.951  13.604   9.713
 6242SOL    HW120623   2.956  13.563   9.626
 6242SOL    HW220624   2.874  13.565   9.754
 6243SOL     OW20625  11.343   9.309   0.207
 6243SOL    HW120626  11.266   9.252   0.208
 6243SOL    HW220627  11.321   9.376   0.142
 6244SOL     OW20628   2.832   0.235   1.783
 6244SOL    HW120629   2.859   0.185   1.860
 6244SOL    HW220630   2.898   0.305   1.775
 6245SOL     OW20631   5.007   0.221   5.543
 6245SOL    HW120632   4.934   0.200   5.601
 6245SOL    HW220633   5.000   0.316   5.529
 6246SOL     OW20634   5.141   4.926   2.330
 6246SOL    HW120635   5.208   4.952   2.268
 6246SOL    HW220636   5.189   4.902   2.409
 6247SOL     OW20637   9.278  10.311   8.115
 6247SOL    HW120638   9.334  10.321   8.192
 6247SOL    HW220639   9.339  10.289   8.044
 6248SOL     OW20640  12.142   7.486   4.089
 6248SOL    HW120641  12.098   7.554   4.140
 6248SOL    HW220642  12.071   7.442   4.042
 6249SOL     OW20643   0.155   8.693   6.019
 6249SOL    HW120644   0.100   8.655   5.951
 6249SOL    HW220645   0.239   8.709   5.975
 6250SOL     OW20646   0.678  10.712  13.987
 6250SOL    HW120647   0.654  10.798  13.951
 6250SOL    HW220648   0.597  10.661  13.983
 6251SOL     OW20649  12.854   4.856  13.863
 6251SOL    HW120650  12.817   4.943  13.877
 6251SOL    HW220651  12.778   4.799  13.852
 6252SOL     OW20652   5.438   0.523  12.267
 6252SOL    HW120653   5.419   0.472  12.345
 6252SOL    HW220654   5.379   0.489  12.200
 6253SOL     OW20655   8.694   5.600   0.851
 6253SOL    HW120656   8.757   5.532   0.874
 6253SOL    HW220657   8.637   5.607   0.927
 6254SOL     OW20658   3.416   3.313   4.150
 6254SOL    HW120659   3.460   3.260   4.084
 6254SOL    HW220660   3.467   3.394   4.155
 6255SOL     OW20661  12.408   6.290   3.303
 6255SOL    HW120662  12.442   6.240   3.229
 6255SOL    HW220663  12.319   6.313   3.278
 6256SOL     OW20664  10.693   1.845  12.479
 6256SOL    HW120665  10.613   1.885  12.443
 6256SOL    HW220666  10.720   1.782  12.413
 6257SOL     OW20667   0.795  10.035  13.950
 6257SOL    HW120668   0.852   9.959  13.962
 6257SOL    HW220669   0.843  10.108  13.989
 6258SOL     OW20670   7.817   3.559   1.613
 6258SOL    HW120671   7.887   3.517   1.663
 6258SOL    HW220672   7.835   3.536   1.522
 6259SOL     OW20673  14.644   0.082  12.297
 6259SOL    HW120674  14.630  14.870  12.275
 6259SOL    HW220675  14.596   0.130  12.230
 6260SOL     OW20676  10.963   5.314   9.128
 6260SOL    HW120677  11.009   5.396   9.108
 6260SOL    HW220678  10.945   5.276   9.042
 6261SOL     OW20679   9.887   2.377   0.019
 6261SOL    HW120680   9.866   2.429   0.096
 6261SOL    HW220681   9.802   2.358  14.859
 6262SOL     OW20682   6.740   8.908   7.018
 6262SOL    HW120683   6.783   8.879   6.937
 6262SOL    HW220684   6.750   9.003   7.017
 6263SOL     OW20685   3.501   2.650   3.602
 6263SOL    HW120686   3.515   2.741   3.628
 6263SOL    HW220687   3.487   2.654   3.507
 6264SOL     OW20688  10.615  11.045  10.926
 6264SOL    HW120689  10.647  11.111  10.864
 6264SOL    HW220690  10.603  11.094  11.008
 6265SOL     OW20691   9.117   1.543  12.710
 6265SOL    HW120692   9.101   1.635  12.734
 6265SOL    HW220693   9.032   1.511  12.678
 6266SOL     OW20694   5.768   1.695  11.300
 6266SOL    HW120695   5.775   1.667  11.209
 6266SOL    HW220696   5.821   1.774  11.305
 6267SOL     OW20697  14.364  11.861   6.356
 6267SOL    HW120698  14.431  11.839   6.291
 6267SOL    HW220699  14.409  11.854   6.440
 6268SOL     OW20700  12.254  12.240  10.809
 6268SOL    HW120701  12.180  12.299  10.826
 6268SOL    HW220702  12.225  12.156  10.844
 6269SOL     OW20703   5.114   6.803   8.144
 6269SOL    HW120704   5.120   6.898   8.157
 6269SOL    HW220705   5.196   6.779   8.102
 6270SOL     OW20706   6.583   4.040   6.288
 6270SOL    HW120707   6.497   4.008   6.260
 6270SOL    HW220708   6.568   4.131   6.312
 6271SOL     OW20709  14.815   1.433  11.506
 6271SOL    HW120710  14.835   1.490  11.580
 6271SOL    HW220711  14.877   1.360  11.515
 6272SOL     OW20712   5.690  12.422   6.341
 6272SOL    HW120713   5.623  12.479   6.305
 6272SOL    HW220714   5.771  12.450   6.298
 6273SOL     OW20715  11.655  11.420   4.173
 6273SOL    HW120716  11.571  11.465   4.185
 6273SOL    HW220717  11.692  11.415   4.261
 6274SOL     OW20718   4.572   0.818  11.096
 6274SOL    HW120719   4.580   0.912  11.076
 6274SOL    HW220720   4.594   0.811  11.188
 6275SOL     OW20721   7.450   0.674  12.879
 6275SOL    HW120722   7.472   0.733  12.807
 6275SOL    HW220723   7.400   0.603  12.838
 6276SOL     OW20724  11.971  12.599  10.409
 6276SOL    HW120725  11.933  12.677  10.369
 6276SOL    HW220726  11.998  12.545  10.334
 6277SOL     OW20727   8.646   9.229   2.833
 6277SOL    HW120728   8.581   9.293   2.864
 6277SOL    HW220729   8.730   9.273   2.842
 6278SOL     OW20730  10.891   6.716   2.432
 6278SOL    HW120731  10.898   6.790   2.493
 6278SOL    HW220732  10.920   6.640   2.482
 6279SOL     OW20733  12.699   3.985  11.383
 6279SOL    HW120734  12.667   3.990  11.473
 6279SOL    HW220735  12.726   3.894  11.373
 6280SOL     OW20736  12.183   2.840  13.518
 6280SOL    HW120737  12.117   2.789  13.472
 6280SOL    HW220738  12.164   2.825  13.611
 6281SOL     OW20739   9.704  10.362  13.043
 6281SOL    HW120740   9.625  10.395  13.085
 6281SOL    HW220741   9.775  10.386  13.103
 6282SOL     OW20742   5.531   8.367  10.070
 6282SOL    HW120743   5.516   8.413   9.988
 6282SOL    HW220744   5.477   8.288  10.064
 6283SOL     OW20745  14.571   6.668   2.405
 6283SOL    HW120746  14.587   6.597   2.342
 6283SOL    HW220747  14.476   6.667   2.417
 6284SOL     OW20748  13.371  12.441   2.961
 6284SOL    HW120749  13.347  12.524   3.001
 6284SOL    HW220750  13.301  12.425   2.897
 6285SOL     OW20751   5.943   5.982  12.767
 6285SOL    HW120752   5.894   5.952  12.690
 6285SOL    HW220753   6.033   5.993  12.735
 6286SOL     OW20754   8.777   8.561   0.875
 6286SOL    HW120755   8.814   8.628   0.816
 6286SOL    HW220756   8.842   8.491   0.875
 6287SOL     OW20757  10.924   3.753   2.487
 6287SOL    HW120758  10.943   3.827   2.543
 6287SOL    HW220759  10.881   3.790   2.411
 6288SOL     OW20760  12.937  13.988   5.176
 6288SOL    HW120761  12.961  13.947   5.259
 6288SOL    HW220762  12.849  13.955   5.158
 6289SOL     OW20763   0.723  12.688   4.940
 6289SOL    HW120764   0.798  12.745   4.954
 6289SOL    HW220765   0.673  12.693   5.022
 6290SOL     OW20766   1.391   3.126   8.826
 6290SOL    HW120767   1.313   3.115   8.771
 6290SOL    HW220768   1.450   3.178   8.772
 6291SOL     OW20769  14.770  10.450  11.363
 6291SOL    HW120770  14.759  10.542  11.386
 6291SOL    HW220771  14.720  10.439  11.282
 6292SOL     OW20772   1.313   3.353   3.979
 6292SOL    HW120773   1.266   3.314   4.052
 6292SOL    HW220774   1.379   3.288   3.956
 6293SOL     OW20775  12.213   3.518   8.574
 6293SOL    HW120776  12.232   3.475   8.658
 6293SOL    HW220777  12.292   3.567   8.554
 6294SOL     OW20778   5.224   8.640  10.396
 6294SOL    HW120779   5.225   8.551  10.363
 6294SOL    HW220780   5.136   8.651  10.433
 6295SOL     OW20781   1.676   6.602   4.138
 6295SOL    HW120782   1.627   6.601   4.220
 6295SOL    HW220783   1.654   6.687   4.099
 6296SOL     OW20784   4.655  10.084   0.366
 6296SOL    HW120785   4.675  10.015   0.430
 6296SOL    HW220786   4.716  10.155   0.388
 6297SOL     OW20787  14.627  10.551  14.228
 6297SOL    HW120788  14.586  10.498  14.160
 6297SOL    HW220789  14.555  10.603  14.265
 6298SOL     OW20790  10.934  11.885   3.492
 6298SOL    HW120791  10.907  11.976   3.488
 6298SOL    HW220792  11.003  11.877   3.426
 6299SOL     OW20793   0.600   0.823   0.435
 6299SOL    HW120794   0.655   0.805   0.358
 6299SOL    HW220795   0.529   0.759   0.429
 6300SOL     OW20796   9.916  10.026  11.719
 6300SOL    HW120797   9.880  10.010  11.806
 6300SOL    HW220798   9.965   9.946  11.698
 6301SOL     OW20799   1.607  10.425   6.500
 6301SOL    HW120800   1.671  10.354   6.491
 6301SOL    HW220801   1.525  10.389   6.466
 6302SOL     OW20802  10.812   2.134   4.500
 6302SOL    HW120803  10.840   2.179   4.420
 6302SOL    HW220804  10.849   2.185   4.571
 6303SOL     OW20805  13.313   5.316  12.344
 6303SOL    HW120806  13.356   5.278  12.421
 6303SOL    HW220807  13.385   5.340  12.286
 6304SOL     OW20808   5.651   2.676   7.186
 6304SOL    HW120809   5.598   2.606   7.225
 6304SOL    HW220810   5.591   2.721   7.127
 6305SOL     OW20811   1.266   3.702   8.069
 6305SOL    HW120812   1.349   3.735   8.035
 6305SOL    HW220813   1.291   3.627   8.123
 6306SOL     OW20814   0.713   6.155   8.893
 6306SOL    HW120815   0.745   6.146   8.803
 6306SOL    HW220816   0.669   6.072   8.911
 6307SOL     OW20817   8.776   7.686  12.735
 6307SOL    HW120818   8.766   7.617  12.669
 6307SOL    HW220819   8.843   7.652  12.795
 6308SOL     OW20820   2.765   8.762   9.297
 6308SOL    HW120821   2.695   8.699   9.283
 6308SOL    HW220822   2.831   8.740   9.231
 6309SOL     OW20823  10.993   8.349  11.083
 6309SOL    HW120824  11.048   8.305  11.019
 6309SOL    HW220825  11.011   8.442  11.071
 6310SOL     OW20826   3.580  11.895  12.362
 6310SOL    HW120827   3.494  11.909  12.322
 6310SOL    HW220828   3.641  11.944  12.305
 6311SOL     OW20829   4.901   3.728   0.807
 6311SOL    HW120830   4.840   3.767   0.743
 6311SOL    HW220831   4.855   3.651   0.840
 6312SOL     OW20832   5.488  14.595   3.254
 6312SOL    HW120833   5.547  14.537   3.206
 6312SOL    HW220834   5.521  14.593   3.344
 6313SOL     OW20835  11.218   9.241   6.539
 6313SOL    HW120836  11.188   9.283   6.619
 6313SOL    HW220837  11.236   9.150   6.565
 6314SOL     OW20838   2.463   1.857   2.276
 6314SOL    HW120839   2.425   1.770   2.264
 6314SOL    HW220840   2.482   1.888   2.187
 6315SOL     OW20841   3.403  10.882   0.804
 6315SOL    HW120842   3.369  10.967   0.773
 6315SOL    HW220843   3.497  10.887   0.787
 6316SOL     OW20844   0.300   5.828   7.149
 6316SOL    HW120845   0.239   5.773   7.198
 6316SOL    HW220846   0.271   5.821   7.058
 6317SOL     OW20847   9.967  10.612   3.030
 6317SOL    HW120848   9.970  10.652   2.943
 6317SOL    HW220849  10.003  10.525   3.018
 6318SOL     OW20850   0.705   5.081   9.798
 6318SOL    HW120851   0.796   5.103   9.817
 6318SOL    HW220852   0.686   5.006   9.854
 6319SOL     OW20853   7.112   2.844   8.954
 6319SOL    HW120854   7.035   2.787   8.955
 6319SOL    HW220855   7.154   2.828   8.869
 6320SOL     OW20856  11.095   4.572  10.612
 6320SOL    HW120857  11.111   4.540  10.701
 6320SOL    HW220858  11.132   4.504  10.555
 6321SOL     OW20859   0.502   0.182   1.821
 6321SOL    HW120860   0.489   0.209   1.730
 6321SOL    HW220861   0.563   0.108   1.816
 6322SOL     OW20862   2.634   2.839   8.459
 6322SOL    HW120863   2.577   2.901   8.414
 6322SOL    HW220864   2.599   2.836   8.549
 6323SOL     OW20865  13.273  12.998   4.037
 6323SOL    HW120866  13.243  13.063   4.100
 6323SOL    HW220867  13.194  12.949   4.013
 6324SOL     OW20868  10.397   5.788   6.698
 6324SOL    HW120869  10.396   5.720   6.766
 6324SOL    HW220870  10.305   5.800   6.675
 6325SOL     OW20871   0.105  11.200   2.007
 6325SOL    HW120872   0.086  11.239   2.092
 6325SOL    HW220873   0.059  11.256   1.944
 6326SOL     OW20874  11.501  14.118  13.463
 6326SOL    HW120875  11.555  14.059  13.410
 6326SOL    HW220876  11.491  14.073  13.547
 6327SOL     OW20877  12.333   9.682  12.819
 6327SOL    HW120878  12.332   9.774  12.846
 6327SOL    HW220879  12.315   9.634  12.900
 6328SOL     OW20880   0.412   1.660   3.496
 6328SOL    HW120881   0.470   1.736   3.505
 6328SOL    HW220882   0.372   1.671   3.410
 6329SOL     OW20883   9.324   5.275  11.502
 6329SOL    HW120884   9.352   5.242  11.417
 6329SOL    HW220885   9.356   5.365  11.505
 6330SOL     OW20886  11.385  10.640  14.635
 6330SOL    HW120887  11.391  10.570  14.570
 6330SOL    HW220888  11.303  10.686  14.614
 6331SOL     OW20889   7.469   1.187   2.085
 6331SOL    HW120890   7.491   1.257   2.023
 6331SOL    HW220891   7.420   1.230   2.154
 6332SOL     OW20892   6.394   9.943  10.544
 6332SOL    HW120893   6.357  10.002  10.609
 6332SOL    HW220894   6.319   9.912  10.493
 6333SOL     OW20895  12.648  13.647  13.344
 6333SOL    HW120896  12.626  13.556  13.324
 6333SOL    HW220897  12.722  13.642  13.404
 6334SOL     OW20898  13.517   0.983  12.113
 6334SOL    HW120899  13.498   1.049  12.046
 6334SOL    HW220900  13.432   0.961  12.149
 6335SOL     OW20901   3.377   2.243   3.842
 6335SOL    HW120902   3.411   2.294   3.915
 6335SOL    HW220903   3.428   2.272   3.766
 6336SOL     OW20904   1.498   7.045  14.053
 6336SOL    HW120905   1.488   7.091  14.136
 6336SOL    HW220906   1.475   7.111  13.987
 6337SOL     OW20907   5.056  11.869   1.269
 6337SOL    HW120908   5.147  11.898   1.277
 6337SOL    HW220909   5.061  11.783   1.229
 6338SOL     OW20910  14.452  11.833   5.796
 6338SOL    HW120911  14.420  11.743   5.798
 6338SOL    HW220912  14.440  11.861   5.706
 6339SOL     OW20913   7.492   8.344  12.224
 6339SOL    HW120914   7.502   8.282  12.152
 6339SOL    HW220915   7.562   8.408  12.209
 6340SOL     OW20916   4.465   0.889   4.066
 6340SOL    HW120917   4.514   0.963   4.100
 6340SOL    HW220918   4.383   0.926   4.034
 6341SOL     OW20919   7.893   9.379   9.474
 6341SOL    HW120920   7.884   9.346   9.563
 6341SOL    HW220921   7.833   9.326   9.421
 6342SOL     OW20922  10.229   9.396   0.330
 6342SOL    HW120923  10.141   9.390   0.295
 6342SOL    HW220924  10.217   9.421   0.422
 6343SOL     OW20925   5.412   7.788  14.493
 6343SOL    HW120926   5.349   7.854  14.522
 6343SOL    HW220927   5.426   7.808  14.400
 6344SOL     OW20928   6.895   0.322   4.518
 6344SOL    HW120929   6.968   0.262   4.532
 6344SOL    HW220930   6.934   0.409   4.516
 6345SOL     OW20931  11.213  13.398   2.402
 6345SOL    HW120932  11.153  13.334   2.362
 6345SOL    HW220933  11.266  13.429   2.328
 6346SOL     OW20934   4.371   6.811   0.441
 6346SOL    HW120935   4.393   6.819   0.349
 6346SOL    HW220936   4.433   6.868   0.486
 6347SOL     OW20937   3.253  14.641   5.304
 6347SOL    HW120938   3.246  14.546   5.309
 6347SOL    HW220939   3.325  14.664   5.362
 6348SOL     OW20940   5.478  14.007  11.966
 6348SOL    HW120941   5.514  14.090  11.996
 6348SOL    HW220942   5.383  14.018  11.972
 6349SOL     OW20943   4.692  11.301   1.932
 6349SOL    HW120944   4.741  11.357   1.872
 6349SOL    HW220945   4.634  11.360   1.979
 6350SOL     OW20946   9.358   2.371   2.703
 6350SOL    HW120947   9.331   2.363   2.611
 6350SOL    HW220948   9.276   2.377   2.752
 6351SOL     OW20949   1.894  12.350   1.513
 6351SOL    HW120950   1.837  12.340   1.437
 6351SOL    HW220951   1.952  12.273   1.510
 6352SOL     OW20952   0.623   8.293   0.239
 6352SOL    HW120953   0.590   8.212   0.279
 6352SOL    HW220954   0.651   8.267   0.151
 6353SOL     OW20955   2.801   0.846   3.861
 6353SOL    HW120956   2.767   0.886   3.781
 6353SOL    HW220957   2.841   0.764   3.832
 6354SOL     OW20958   2.487   4.969   3.427
 6354SOL    HW120959   2.572   4.941   3.459
 6354SOL    HW220960   2.505   5.043   3.369
 6355SOL     OW20961   9.528  13.952  13.237
 6355SOL    HW120962   9.486  13.984  13.316
 6355SOL    HW220963   9.529  13.857  13.247
 6356SOL     OW20964  11.411   7.809   3.751
 6356SOL    HW120965  11.354   7.816   3.675
 6356SOL    HW220966  11.475   7.879   3.740
 6357SOL     OW20967   8.365   2.649   0.086
 6357SOL    HW120968   8.454   2.679   0.069
 6357SOL    HW220969   8.368   2.554   0.071
 6358SOL     OW20970   1.655  14.622  13.819
 6358SOL    HW120971   1.691  14.534  13.833
 6358SOL    HW220972   1.723  14.669  13.771
 6359SOL     OW20973   1.730   2.685   2.875
 6359SOL    HW120974   1.811   2.640   2.853
 6359SOL    HW220975   1.671   2.616   2.904
 6360SOL     OW20976   8.832  11.737   6.882
 6360SOL    HW120977   8.743  11.772   6.872
 6360SOL    HW220978   8.862  11.723   6.792
 6361SOL     OW20979   3.816  11.859  10.651
 6361SOL    HW120980   3.862  11.921  10.708
 6361SOL    HW220981   3.862  11.864  10.567
 6362SOL     OW20982  12.636   1.671   8.672
 6362SOL    HW120983  12.575   1.706   8.737
 6362SOL    HW220984  12.684   1.747   8.640
 6363SOL     OW20985  14.518   9.289   0.527
 6363SOL    HW120986  14.523   9.197   0.555
 6363SOL    HW220987  14.441   9.323   0.572
 6364SOL     OW20988  12.302  10.517   4.063
 6364SOL    HW120989  12.378  10.543   4.114
 6364SOL    HW220990  12.227  10.542   4.118
 6365SOL     OW20991   8.733   5.806  13.318
 6365SOL    HW120992   8.797   5.875  13.303
 6365SOL    HW220993   8.778   5.725  13.293
 6366SOL     OW20994  14.334   5.218   8.877
 6366SOL    HW120995  14.417   5.231   8.923
 6366SOL    HW220996  14.350   5.251   8.789
 6367SOL     OW20997   0.705   3.112   0.837
 6367SOL    HW120998   0.614   3.140   0.844
 6367SOL    HW220999   0.750   3.162   0.905
 6368SOL     OW21000   1.049   1.694  14.054
 6368SOL    HW121001   1.035   1.776  14.102
 6368SOL    HW221002   1.105   1.720  13.980
 6369SOL     OW21003   3.598   3.953   1.317
 6369SOL    HW121004   3.659   4.023   1.339
 6369SOL    HW221005   3.527   3.996   1.270
 6370SOL     OW21006   8.710  10.183   6.459
 6370SOL    HW121007   8.616  10.192   6.442
 6370SOL    HW221008   8.750  10.188   6.373
 6371SOL     OW21009   5.965   1.528  11.833
 6371SOL    HW121010   5.928   1.597  11.778
 6371SOL    HW221011   5.945   1.555  11.923
 6372SOL     OW21012   9.903   2.879   6.118
 6372SOL    HW121013   9.922   2.971   6.138
 6372SOL    HW221014   9.810   2.869   6.140
 6373SOL     OW21015  14.656  10.642  11.129
 6373SOL    HW121016  14.582  10.600  11.085
 6373SOL    HW221017  14.624  10.659  11.218
 6374SOL     OW21018  13.953   3.415   4.025
 6374SOL    HW121019  14.033   3.388   4.070
 6374SOL    HW221020  13.977   3.495   3.978
 6375SOL     OW21021   3.459  11.659  10.655
 6375SOL    HW121022   3.454  11.755  10.651
 6375SOL    HW221023   3.370  11.630  10.632
 6376SOL     OW21024  12.804   6.201   0.842
 6376SOL    HW121025  12.891   6.172   0.869
 6376SOL    HW221026  12.820   6.269   0.778
 6377SOL     OW21027   5.522   5.653   9.289
 6377SOL    HW121028   5.474   5.619   9.364
 6377SOL    HW221029   5.467   5.631   9.214
 6378SOL     OW21030   6.831   9.703  12.248
 6378SOL    HW121031   6.760   9.765  12.231
 6378SOL    HW221032   6.864   9.679  12.161
 6379SOL     OW21033   6.400  11.134   1.894
 6379SOL    HW121034   6.358  11.218   1.911
 6379SOL    HW221035   6.360  11.075   1.958
 6380SOL     OW21036   7.794  11.427  10.869
 6380SOL    HW121037   7.756  11.460  10.788
 6380SOL    HW221038   7.724  11.436  10.933
 6381SOL     OW21039   2.552  12.923   6.273
 6381SOL    HW121040   2.527  12.831   6.264
 6381SOL    HW221041   2.522  12.947   6.361
 6382SOL     OW21042  12.625  10.668   5.478
 6382SOL    HW121043  12.672  10.622   5.408
 6382SOL    HW221044  12.581  10.599   5.527
 6383SOL     OW21045   3.921   2.949  13.900
 6383SOL    HW121046   3.964   2.970  13.983
 6383SOL    HW221047   3.988   2.902  13.850
 6384SOL     OW21048   9.155   4.396   2.669
 6384SOL    HW121049   9.166   4.301   2.672
 6384SOL    HW221050   9.089   4.411   2.602
 6385SOL     OW21051  11.883  11.251  13.314
 6385SOL    HW121052  11.898  11.239  13.408
 6385SOL    HW221053  11.900  11.165  13.275
 6386SOL     OW21054   4.002   1.948   2.522
 6386SOL    HW121055   3.975   1.856   2.529
 6386SOL    HW221056   4.097   1.946   2.531
 6387SOL     OW21057   7.620   4.724   1.029
 6387SOL    HW121058   7.669   4.673   1.093
 6387SOL    HW221059   7.683   4.788   0.996
 6388SOL     OW21060   7.405   9.004   4.541
 6388SOL    HW121061   7.475   9.066   4.521
 6388SOL    HW221062   7.434   8.959   4.620
 6389SOL     OW21063  11.836   7.770   5.008
 6389SOL    HW121064  11.846   7.861   5.038
 6389SOL    HW221065  11.913   7.754   4.954
 6390SOL     OW21066   7.839   6.069   5.500
 6390SOL    HW121067   7.847   6.127   5.425
 6390SOL    HW221068   7.746   6.072   5.523
 6391SOL     OW21069   7.848   4.848   8.450
 6391SOL    HW121070   7.931   4.890   8.429
 6391SOL    HW221071   7.790   4.920   8.474
 6392SOL     OW21072   2.112   3.404   1.477
 6392SOL    HW121073   2.034   3.453   1.450
 6392SOL    HW221074   2.185   3.458   1.446
 6393SOL     OW21075   5.443   1.167  12.318
 6393SOL    HW121076   5.506   1.097  12.303
 6393SOL    HW221077   5.358   1.123  12.320
 6394SOL     OW21078   9.540  12.939   7.367
 6394SOL    HW121079   9.553  12.863   7.310
 6394SOL    HW221080   9.620  12.991   7.355
 6395SOL     OW21081   8.814   5.800   1.242
 6395SOL    HW121082   8.794   5.870   1.304
 6395SOL    HW221083   8.837   5.846   1.161
 6396SOL     OW21084   9.676  12.393   7.676
 6396SOL    HW121085   9.754  12.377   7.623
 6396SOL    HW221086   9.656  12.309   7.716
 6397SOL     OW21087   9.918   7.910   0.485
 6397SOL    HW121088   9.984   7.923   0.417
 6397SOL    HW221089   9.936   7.979   0.549
 6398SOL     OW21090  10.835   8.877   4.479
 6398SOL    HW121091  10.897   8.847   4.412
 6398SOL    HW221092  10.890   8.904   4.552
 6399SOL     OW21093   8.904   5.130   2.769
 6399SOL    HW121094   8.861   5.044   2.769
 6399SOL    HW221095   8.863   5.177   2.696
 6400SOL     OW21096   7.303  10.104   7.636
 6400SOL    HW121097   7.256  10.058   7.566
 6400SOL    HW221098   7.233  10.146   7.687
 6401SOL     OW21099   0.505   1.446  11.919
 6401SOL    HW121100   0.593   1.467  11.951
 6401SOL    HW221101   0.518   1.367  11.865
 6402SOL     OW21102   5.270  10.397  11.294
 6402SOL    HW121103   5.318  10.394  11.377
 6402SOL    HW221104   5.335  10.428  11.230
 6403SOL     OW21105   9.323   3.359   9.928
 6403SOL    HW121106   9.375   3.439   9.924
 6403SOL    HW221107   9.252   3.379   9.988
 6404SOL     OW21108   9.350   7.692   6.474
 6404SOL    HW121109   9.318   7.779   6.499
 6404SOL    HW221110   9.346   7.641   6.555
 6405SOL     OW21111   7.411   5.689  10.390
 6405SOL    HW121112   7.346   5.664  10.324
 6405SOL    HW221113   7.490   5.710  10.340
 6406SOL     OW21114   0.392   3.353   6.990
 6406SOL    HW121115   0.411   3.264   7.020
 6406SOL    HW221116   0.477   3.386   6.961
 6407SOL     OW21117   2.024   6.120   2.692
 6407SOL    HW121118   1.932   6.138   2.709
 6407SOL    HW221119   2.026   6.028   2.663
 6408SOL     OW21120   7.972   7.657  14.336
 6408SOL    HW121121   8.021   7.623  14.261
 6408SOL    HW221122   8.036   7.659  14.407
 6409SOL     OW21123   9.216   7.193   6.358
 6409SOL    HW121124   9.134   7.147   6.337
 6409SOL    HW221125   9.245   7.153   6.440
 6410SOL     OW21126   5.477  12.790  12.898
 6410SOL    HW121127   5.522  12.845  12.962
 6410SOL    HW221128   5.515  12.703  12.911
 6411SOL     OW21129   9.773   1.378  10.607
 6411SOL    HW121130   9.703   1.323  10.643
 6411SOL    HW221131   9.848   1.361  10.665
 6412SOL     OW21132  12.664   4.935  14.319
 6412SOL    HW121133  12.636   4.953  14.409
 6412SOL    HW221134  12.759   4.926  14.324
 6413SOL     OW21135   4.207   9.866   3.863
 6413SOL    HW121136   4.162   9.838   3.943
 6413SOL    HW221137   4.297   9.885   3.891
 6414SOL     OW21138   1.377   0.647  13.502
 6414SOL    HW121139   1.313   0.579  13.525
 6414SOL    HW221140   1.331   0.703  13.439
 6415SOL     OW21141   5.951   2.226   1.478
 6415SOL    HW121142   5.974   2.139   1.446
 6415SOL    HW221143   5.863   2.215   1.515
 6416SOL     OW21144   6.351  12.734   6.849
 6416SOL    HW121145   6.337  12.767   6.938
 6416SOL    HW221146   6.268  12.751   6.804
 6417SOL     OW21147  10.800   2.829   9.968
 6417SOL    HW121148  10.756   2.866   9.891
 6417SOL    HW221149  10.864   2.896   9.992
 6418SOL     OW21150  14.820   4.178   6.527
 6418SOL    HW121151   0.003   4.202   6.458
 6418SOL    HW221152  14.865   4.201   6.609
 6419SOL     OW21153  14.835   5.086   4.944
 6419SOL    HW121154  14.778   5.011   4.958
 6419SOL    HW221155  14.860   5.081   4.852
 6420SOL     OW21156   3.728   1.433   7.617
 6420SOL    HW121157   3.669   1.400   7.685
 6420SOL    HW221158   3.685   1.511   7.583
 6421SOL     OW21159  12.029   9.533   1.744
 6421SOL    HW121160  12.118   9.520   1.711
 6421SOL    HW221161  12.036   9.610   1.801
 6422SOL     OW21162   1.881  11.099  11.687
 6422SOL    HW121163   1.804  11.041  11.690
 6422SOL    HW221164   1.925  11.084  11.770
 6423SOL     OW21165  10.251   1.161   7.856
 6423SOL    HW121166  10.194   1.232   7.828
 6423SOL    HW221167  10.220   1.084   7.807
 6424SOL     OW21168   9.989   1.357  12.420
 6424SOL    HW121169   9.983   1.265  12.446
 6424SOL    HW221170  10.060   1.393  12.472
 6425SOL     OW21171   2.242   8.603   5.328
 6425SOL    HW121172   2.149   8.601   5.349
 6425SOL    HW221173   2.246   8.643   5.241
 6426SOL     OW21174   0.456   8.069   2.762
 6426SOL    HW121175   0.548   8.043   2.759
 6426SOL    HW221176   0.421   8.021   2.837
 6427SOL     OW21177   0.842  13.284   6.697
 6427SOL    HW121178   0.865  13.239   6.615
 6427SOL    HW221179   0.921  13.274   6.751
 6428SOL     OW21180   3.680   7.852   5.438
 6428SOL    HW121181   3.677   7.760   5.413
 6428SOL    HW221182   3.761   7.860   5.489
 6429SOL     OW21183  11.131   9.870  11.432
 6429SOL    HW121184  11.097   9.843  11.347
 6429SOL    HW221185  11.214   9.915  11.412
 6430SOL     OW21186   8.252   8.659   4.676
 6430SOL    HW121187   8.252   8.564   4.690
 6430SOL    HW221188   8.249   8.696   4.764
 6431SOL     OW21189  14.184  10.904   0.032
 6431SOL    HW121190  14.182  10.991   0.071
 6431SOL    HW221191  14.235  10.915  14.831
 6432SOL     OW21192   9.606   5.075  13.522
 6432SOL    HW121193   9.684   5.089  13.468
 6432SOL    HW221194   9.641   5.046  13.606
 6433SOL     OW21195   6.999   9.695   6.206
 6433SOL    HW121196   6.996   9.600   6.192
 6433SOL    HW221197   6.946   9.731   6.135
 6434SOL     OW21198   3.593   2.648   9.177
 6434SOL    HW121199   3.581   2.706   9.101
 6434SOL    HW221200   3.662   2.588   9.150
 6435SOL     OW21201   0.943   6.122   5.377
 6435SOL    HW121202   0.968   6.171   5.454
 6435SOL    HW221203   1.019   6.067   5.357
 6436SOL     OW21204   7.461   3.877   9.740
 6436SOL    HW121205   7.405   3.814   9.695
 6436SOL    HW221206   7.423   3.963   9.720
 6437SOL     OW21207   7.360  10.311   1.520
 6437SOL    HW121208   7.363  10.315   1.615
 6437SOL    HW221209   7.272  10.343   1.497
 6438SOL     OW21210   8.214   3.706   4.765
 6438SOL    HW121211   8.233   3.695   4.672
 6438SOL    HW221212   8.169   3.790   4.771
 6439SOL     OW21213   5.378   4.080   5.291
 6439SOL    HW121214   5.395   4.159   5.241
 6439SOL    HW221215   5.311   4.105   5.355
 6440SOL     OW21216   6.420   6.278   7.222
 6440SOL    HW121217   6.374   6.196   7.205
 6440SOL    HW221218   6.487   6.255   7.287
 6441SOL     OW21219  11.114  14.101  10.197
 6441SOL    HW121220  11.077  14.044  10.129
 6441SOL    HW221221  11.139  14.041  10.267
 6442SOL     OW21222  13.162   6.104  10.518
 6442SOL    HW121223  13.148   6.045  10.444
 6442SOL    HW221224  13.156   6.192  10.481
 6443SOL     OW21225  11.857   5.464   1.327
 6443SOL    HW121226  11.783   5.517   1.356
 6443SOL    HW221227  11.822   5.408   1.258
 6444SOL     OW21228   4.658   0.429   0.842
 6444SOL    HW121229   4.711   0.426   0.762
 6444SOL    HW221230   4.572   0.461   0.813
 6445SOL     OW21231   1.486  14.712   6.739
 6445SOL    HW121232   1.424  14.703   6.666
 6445SOL    HW221233   1.445  14.775   6.798
 6446SOL     OW21234   2.817  11.665   7.111
 6446SOL    HW121235   2.789  11.574   7.116
 6446SOL    HW221236   2.769  11.708   7.182
 6447SOL     OW21237   0.834   4.813   5.367
 6447SOL    HW121238   0.789   4.831   5.285
 6447SOL    HW221239   0.815   4.721   5.385
 6448SOL     OW21240  11.892  13.103   1.766
 6448SOL    HW121241  11.876  13.142   1.852
 6448SOL    HW221242  11.811  13.120   1.717
 6449SOL     OW21243   4.944   2.965  12.169
 6449SOL    HW121244   4.942   2.871  12.149
 6449SOL    HW221245   5.037   2.988  12.167
 6450SOL     OW21246  13.573   3.193   3.952
 6450SOL    HW121247  13.644   3.132   3.930
 6450SOL    HW221248  13.497   3.159   3.905
 6451SOL     OW21249  14.482   4.783   4.488
 6451SOL    HW121250  14.399   4.738   4.506
 6451SOL    HW221251  14.476   4.865   4.537
 6452SOL     OW21252   8.179   6.119   4.913
 6452SOL    HW121253   8.124   6.108   4.836
 6452SOL    HW221254   8.155   6.205   4.948
 6453SOL     OW21255  13.554   4.507   1.747
 6453SOL    HW121256  13.622   4.539   1.806
 6453SOL    HW221257  13.586   4.421   1.718
 6454SOL     OW21258   0.879   5.219   5.000
 6454SOL    HW121259   0.942   5.164   5.046
 6454SOL    HW221260   0.840   5.161   4.934
 6455SOL     OW21261   9.727  10.005  10.385
 6455SOL    HW121262   9.655  10.051  10.342
 6455SOL    HW221263   9.797  10.004  10.319
 6456SOL     OW21264   0.458   4.207  12.821
 6456SOL    HW121265   0.553   4.218  12.813
 6456SOL    HW221266   0.448   4.157  12.902
 6457SOL     OW21267  10.726   4.309  12.850
 6457SOL    HW121268  10.755   4.362  12.776
 6457SOL    HW221269  10.716   4.372  12.921
 6458SOL     OW21270  10.777   5.628   1.053
 6458SOL    HW121271  10.761   5.701   1.113
 6458SOL    HW221272  10.867   5.642   1.023
 6459SOL     OW21273  13.532   3.188  10.184
 6459SOL    HW121274  13.545   3.283  10.181
 6459SOL    HW221275  13.619   3.152  10.201
 6460SOL     OW21276   7.274  12.444   3.125
 6460SOL    HW121277   7.185  12.480   3.126
 6460SOL    HW221278   7.310  12.466   3.210
 6461SOL     OW21279   3.518   3.801  11.835
 6461SOL    HW121280   3.500   3.719  11.789
 6461SOL    HW221281   3.611   3.816  11.821
 6462SOL     OW21282   1.205   3.902   2.539
 6462SOL    HW121283   1.292   3.869   2.563
 6462SOL    HW221284   1.154   3.823   2.520
 6463SOL     OW21285  10.921   1.411  14.872
 6463SOL    HW121286  10.833   1.394   0.027
 6463SOL    HW221287  10.906   1.462  14.792
 6464SOL     OW21288   4.465   1.137   9.281
 6464SOL    HW121289   4.489   1.176   9.364
 6464SOL    HW221290   4.371   1.118   9.289
 6465SOL     OW21291   6.500  13.941  12.967
 6465SOL    HW121292   6.584  13.944  12.922
 6465SOL    HW221293   6.506  13.865  13.024
 6466SOL     OW21294   4.970   3.319   0.645
 6466SOL    HW121295   4.982   3.389   0.710
 6466SOL    HW221296   5.031   3.341   0.575
 6467SOL     OW21297   8.579   6.339   0.074
 6467SOL    HW121298   8.526   6.281   0.020
 6467SOL    HW221299   8.595   6.289   0.154
 6468SOL     OW21300   4.029  11.590   6.478
 6468SOL    HW121301   4.109  11.621   6.436
 6468SOL    HW221302   3.960  11.647   6.446
 6469SOL     OW21303  10.072   1.570  13.625
 6469SOL    HW121304   9.978   1.579  13.642
 6469SOL    HW221305  10.077   1.527  13.540
 6470SOL     OW21306   1.530   4.586   5.640
 6470SOL    HW121307   1.478   4.506   5.629
 6470SOL    HW221308   1.531   4.626   5.553
 6471SOL     OW21309   3.183  11.084  11.201
 6471SOL    HW121310   3.205  11.104  11.110
 6471SOL    HW221311   3.218  11.158  11.251
 6472SOL     OW21312  14.190   7.017  13.719
 6472SOL    HW121313  14.116   7.075  13.738
 6472SOL    HW221314  14.151   6.938  13.684
 6473SOL     OW21315   8.382   6.198  12.847
 6473SOL    HW121316   8.398   6.157  12.762
 6473SOL    HW221317   8.397   6.128  12.911
 6474SOL     OW21318  10.768  12.347  12.503
 6474SOL    HW121319  10.743  12.258  12.528
 6474SOL    HW221320  10.694  12.401  12.532
 6475SOL     OW21321   4.051   0.393   0.322
 6475SOL    HW121322   4.015   0.427   0.404
 6475SOL    HW221323   3.983   0.334   0.290
 6476SOL     OW21324   1.893  13.639  11.435
 6476SOL    HW121325   1.941  13.605  11.359
 6476SOL    HW221326   1.953  13.702  11.475
 6477SOL     OW21327   5.238   2.089   0.476
 6477SOL    HW121328   5.289   2.021   0.432
 6477SOL    HW221329   5.234   2.061   0.567
 6478SOL     OW21330   5.425  12.695   1.706
 6478SOL    HW121331   5.512  12.718   1.674
 6478SOL    HW221332   5.370  12.770   1.685
 6479SOL     OW21333  13.336   6.352   6.446
 6479SOL    HW121334  13.283   6.282   6.484
 6479SOL    HW221335  13.284   6.384   6.372
 6480SOL     OW21336  12.485   0.764  11.691
 6480SOL    HW121337  12.436   0.844  11.673
 6480SOL    HW221338  12.479   0.714  11.610
 6481SOL     OW21339  13.324   3.368   1.819
 6481SOL    HW121340  13.340   3.448   1.768
 6481SOL    HW221341  13.236   3.340   1.792
 6482SOL     OW21342   1.100   6.323   7.971
 6482SOL    HW121343   1.070   6.327   8.062
 6482SOL    HW221344   1.172   6.385   7.967
 6483SOL     OW21345   2.098  11.918   8.752
 6483SOL    HW121346   2.125  11.904   8.843
 6483SOL    HW221347   2.003  11.920   8.755
 6484SOL     OW21348  13.752   1.023   9.483
 6484SOL    HW121349  13.762   1.043   9.576
 6484SOL    HW221350  13.787   1.100   9.438
 6485SOL     OW21351   5.135   0.866   0.960
 6485SOL    HW121352   5.149   0.782   0.916
 6485SOL    HW221353   5.203   0.869   1.028
 6486SOL     OW21354   0.005  11.031  11.332
 6486SOL    HW121355   0.051  11.102  11.287
 6486SOL    HW221356  14.811  11.011  11.275
 6487SOL     OW21357   2.055   7.957   7.884
 6487SOL    HW121358   1.992   7.894   7.919
 6487SOL    HW221359   2.003   8.035   7.863
 6488SOL     OW21360  12.963   5.732  13.308
 6488SOL    HW121361  12.885   5.720  13.362
 6488SOL    HW221362  12.998   5.644  13.295
 6489SOL     OW21363   3.388  14.706  12.995
 6489SOL    HW121364   3.406  14.628  13.048
 6489SOL    HW221365   3.341  14.765  13.054
 6490SOL     OW21366   2.027   4.015   4.662
 6490SOL    HW121367   2.092   3.977   4.721
 6490SOL    HW221368   1.960   4.051   4.719
 6491SOL     OW21369   8.115   2.059  13.318
 6491SOL    HW121370   8.074   1.984  13.274
 6491SOL    HW221371   8.177   2.094  13.255
 6492SOL     OW21372   1.303   3.086  12.168
 6492SOL    HW121373   1.223   3.129  12.138
 6492SOL    HW221374   1.300   3.095  12.263
 6493SOL     OW21375   0.908   0.319  14.401
 6493SOL    HW121376   0.875   0.409  14.398
 6493SOL    HW221377   0.941   0.309  14.491
 6494SOL     OW21378   7.537   3.078  14.410
 6494SOL    HW121379   7.472   3.008  14.412
 6494SOL    HW221380   7.493   3.152  14.452
 6495SOL     OW21381  10.058  10.599   9.994
 6495SOL    HW121382  10.127  10.557  10.046
 6495SOL    HW221383  10.082  10.581   9.903
 6496SOL     OW21384   7.436   7.816   0.391
 6496SOL    HW121385   7.425   7.837   0.483
 6496SOL    HW221386   7.385   7.883   0.344
 6497SOL     OW21387   4.461  12.243  14.573
 6497SOL    HW121388   4.431  12.206  14.489
 6497SOL    HW221389   4.549  12.276  14.554
 6498SOL     OW21390   4.600  11.933  13.372
 6498SOL    HW121391   4.613  12.016  13.418
 6498SOL    HW221392   4.687  11.894  13.368
 6499SOL     OW21393  13.939  10.741  10.368
 6499SOL    HW121394  13.938  10.826  10.412
 6499SOL    HW221395  13.895  10.756  10.285
 6500SOL     OW21396   4.300   8.133   7.639
 6500SOL    HW121397   4.205   8.134   7.647
 6500SOL    HW221398   4.318   8.184   7.560
 6501SOL     OW21399   2.839   7.003  12.611
 6501SOL    HW121400   2.900   6.979  12.681
 6501SOL    HW221401   2.752   6.999  12.653
 6502SOL     OW21402   0.336   1.261  14.608
 6502SOL    HW121403   0.408   1.238  14.667
 6502SOL    HW221404   0.257   1.238  14.657
 6503SOL     OW21405   2.045   6.826  12.327
 6503SOL    HW121406   2.091   6.904  12.359
 6503SOL    HW221407   2.016   6.850  12.239
 6504SOL     OW21408  14.658   9.522   3.068
 6504SOL    HW121409  14.648   9.614   3.094
 6504SOL    HW221410  14.717   9.525   2.993
 6505SOL     OW21411   0.436   2.392   9.290
 6505SOL    HW121412   0.352   2.355   9.264
 6505SOL    HW221413   0.415   2.481   9.317
 6506SOL     OW21414   9.998  13.374   8.679
 6506SOL    HW121415  10.077  13.394   8.628
 6506SOL    HW221416  10.013  13.416   8.763
 6507SOL     OW21417  10.244   2.947  12.988
 6507SOL    HW121418  10.290   2.864  12.988
 6507SOL    HW221419  10.207   2.954  13.076
 6508SOL     OW21420  12.542   9.669  11.121
 6508SOL    HW121421  12.534   9.621  11.204
 6508SOL    HW221422  12.471   9.733  11.124
 6509SOL     OW21423   7.757  14.527   1.622
 6509SOL    HW121424   7.686  14.489   1.570
 6509SOL    HW221425   7.816  14.454   1.638
 6510SOL     OW21426   2.935   3.265   8.924
 6510SOL    HW121427   2.969   3.231   9.007
 6510SOL    HW221428   2.879   3.338   8.949
 6511SOL     OW21429   9.007   4.449   3.168
 6511SOL    HW121430   8.994   4.542   3.186
 6511SOL    HW221431   8.926   4.408   3.198
 6512SOL     OW21432   4.983  13.238   1.942
 6512SOL    HW121433   5.020  13.272   1.860
 6512SOL    HW221434   5.036  13.161   1.962
 6513SOL     OW21435   9.040   8.128   9.987
 6513SOL    HW121436   9.132   8.152   9.974
 6513SOL    HW221437   9.036   8.102  10.079
 6514SOL     OW21438   7.377   5.167   3.783
 6514SOL    HW121439   7.450   5.132   3.834
 6514SOL    HW221440   7.383   5.121   3.699
 6515SOL     OW21441   5.301  13.544   3.497
 6515SOL    HW121442   5.276  13.570   3.408
 6515SOL    HW221443   5.284  13.621   3.551
 6516SOL     OW21444   6.916  12.218   5.585
 6516SOL    HW121445   6.834  12.256   5.553
 6516SOL    HW221446   6.938  12.150   5.522
 6517SOL     OW21447  14.119  13.321   9.982
 6517SOL    HW121448  14.210  13.320   9.952
 6517SOL    HW221449  14.068  13.328   9.901
 6518SOL     OW21450  14.359   0.340  11.936
 6518SOL    HW121451  14.298   0.370  12.004
 6518SOL    HW221452  14.316   0.263  11.899
 6519SOL     OW21453   6.100  11.115  11.361
 6519SOL    HW121454   6.158  11.118  11.437
 6519SOL    HW221455   6.135  11.182  11.301
 6520SOL     OW21456   4.013   1.954   9.667
 6520SOL    HW121457   4.036   1.997   9.750
 6520SOL    HW221458   3.920   1.933   9.676
 6521SOL     OW21459  13.016   6.178   9.991
 6521SOL    HW121460  12.953   6.213   9.929
 6521SOL    HW221461  12.974   6.100  10.027
 6522SOL     OW21462   3.306  14.369   7.513
 6522SOL    HW121463   3.211  14.370   7.508
 6522SOL    HW221464   3.330  14.279   7.494
 6523SOL     OW21465  12.053   2.498   9.527
 6523SOL    HW121466  12.016   2.585   9.535
 6523SOL    HW221467  12.144   2.513   9.499
 6524SOL     OW21468   8.276   5.671   1.879
 6524SOL    HW121469   8.318   5.734   1.819
 6524SOL    HW221470   8.185   5.701   1.884
 6525SOL     OW21471   1.370   7.468   8.920
 6525SOL    HW121472   1.377   7.553   8.876
 6525SOL    HW221473   1.432   7.474   8.993
 6526SOL     OW21474   4.588   1.035   2.547
 6526SOL    HW121475   4.529   1.097   2.503
 6526SOL    HW221476   4.640   0.997   2.476
 6527SOL     OW21477   9.296   2.917  13.736
 6527SOL    HW121478   9.296   2.969  13.656
 6527SOL    HW221479   9.265   2.831  13.709
 6528SOL     OW21480   6.421   7.531   2.253
 6528SOL    HW121481   6.485   7.588   2.211
 6528SOL    HW221482   6.435   7.546   2.347
 6529SOL     OW21483  11.058   4.928   1.136
 6529SOL    HW121484  11.041   4.840   1.168
 6529SOL    HW221485  11.141   4.953   1.176
 6530SOL     OW21486   8.483  11.728   1.250
 6530SOL    HW121487   8.389  11.739   1.234
 6530SOL    HW221488   8.496  11.633   1.256
 6531SOL     OW21489   9.802   9.953  14.438
 6531SOL    HW121490   9.739  10.007  14.486
 6531SOL    HW221491   9.878  10.009  14.425
 6532SOL     OW21492   5.373   3.133   5.417
 6532SOL    HW121493   5.379   3.207   5.357
 6532SOL    HW221494   5.447   3.076   5.392
 6533SOL     OW21495   7.780  13.866   7.244
 6533SOL    HW121496   7.798  13.809   7.170
 6533SOL    HW221497   7.795  13.955   7.210
 6534SOL     OW21498   2.387   1.027   9.424
 6534SOL    HW121499   2.399   0.940   9.387
 6534SOL    HW221500   2.412   1.087   9.353
 6535SOL     OW21501  10.001   0.854   4.777
 6535SOL    HW121502   9.946   0.894   4.845
 6535SOL    HW221503  10.062   0.923   4.751
 6536SOL     OW21504  10.869   7.127  13.271
 6536SOL    HW121505  10.795   7.153  13.326
 6536SOL    HW221506  10.945   7.163  13.315
 6537SOL     OW21507  12.575   0.200   7.677
 6537SOL    HW121508  12.500   0.257   7.662
 6537SOL    HW221509  12.540   0.127   7.729
 6538SOL     OW21510   4.155   3.580   2.859
 6538SOL    HW121511   4.100   3.539   2.792
 6538SOL    HW221512   4.113   3.664   2.876
 6539SOL     OW21513  13.100   0.167  10.429
 6539SOL    HW121514  13.066   0.211  10.351
 6539SOL    HW221515  13.176   0.119  10.398
 6540SOL     OW21516  14.823  12.240   4.112
 6540SOL    HW121517  14.821  12.146   4.130
 6540SOL    HW221518  14.750  12.253   4.051
 6541SOL     OW21519   3.576  12.226   1.563
 6541SOL    HW121520   3.529  12.210   1.481
 6541SOL    HW221521   3.553  12.151   1.618
 6542SOL     OW21522  12.356   0.985  11.678
 6542SOL    HW121523  12.317   0.983  11.766
 6542SOL    HW221524  12.283   0.997  11.619
 6543SOL     OW21525   3.472   6.432  11.324
 6543SOL    HW121526   3.480   6.493  11.398
 6543SOL    HW221527   3.408   6.367  11.352
 6544SOL     OW21528  11.491   2.475  11.381
 6544SOL    HW121529  11.564   2.447  11.435
 6544SOL    HW221530  11.488   2.570  11.391
 6545SOL     OW21531  10.265   9.409   9.275
 6545SOL    HW121532  10.201   9.345   9.306
 6545SOL    HW221533  10.350   9.368   9.294
 6546SOL     OW21534   2.995  14.558   2.800
 6546SOL    HW121535   2.975  14.602   2.882
 6546SOL    HW221536   3.059  14.615   2.756
 6547SOL     OW21537  10.117   6.559  12.808
 6547SOL    HW121538  10.078   6.585  12.724
 6547SOL    HW221539  10.211   6.557  12.790
 6548SOL     OW21540   1.895   4.876   6.622
 6548SOL    HW121541   1.960   4.887   6.691
 6548SOL    HW221542   1.826   4.939   6.644
 6549SOL     OW21543   2.570   6.330   2.415
 6549SOL    HW121544   2.582   6.260   2.479
 6549SOL    HW221545   2.554   6.408   2.468
 6550SOL     OW21546  12.595   1.937  13.128
 6550SOL    HW121547  12.649   1.858  13.125
 6550SOL    HW221548  12.543   1.933  13.048
 6551SOL     OW21549   8.576   9.530   9.312
 6551SOL    HW121550   8.499   9.552   9.364
 6551SOL    HW221551   8.601   9.443   9.341
 6552SOL     OW21552  11.323   5.945  10.778
 6552SOL    HW121553  11.330   6.041  10.779
 6552SOL    HW221554  11.399   5.915  10.827
 6553SOL     OW21555   3.512   1.649  12.510
 6553SOL    HW121556   3.578   1.715  12.531
 6553SOL    HW221557   3.432   1.683  12.549
 6554SOL     OW21558  11.935   9.823  11.408
 6554SOL    HW121559  11.904   9.773  11.483
 6554SOL    HW221560  11.997   9.764  11.364
 6555SOL     OW21561   4.137  12.271  13.305
 6555SOL    HW121562   4.101  12.193  13.262
 6555SOL    HW221563   4.232  12.255  13.308
 6556SOL     OW21564   6.998  13.238   7.027
 6556SOL    HW121565   7.037  13.263   6.943
 6556SOL    HW221566   6.997  13.320   7.077
 6557SOL     OW21567   5.957   3.939   6.689
 6557SOL    HW121568   5.887   3.995   6.656
 6557SOL    HW221569   5.994   3.899   6.610
 6558SOL     OW21570  10.054  10.914   0.078
 6558SOL    HW121571  10.084  10.932   0.168
 6558SOL    HW221572   9.959  10.910   0.085
 6559SOL     OW21573   7.078   7.054  11.707
 6559SOL    HW121574   7.101   7.131  11.759
 6559SOL    HW221575   7.161   7.023  11.671
 6560SOL     OW21576   1.347   8.498  10.507
 6560SOL    HW121577   1.285   8.538  10.447
 6560SOL    HW221578   1.427   8.549  10.497
 6561SOL     OW21579   6.961   0.574  10.389
 6561SOL    HW121580   7.049   0.603  10.413
 6561SOL    HW221581   6.906   0.652  10.400
 6562SOL     OW21582   0.053   0.299   7.435
 6562SOL    HW121583   0.135   0.259   7.465
 6562SOL    HW221584   0.037   0.258   7.350
 6563SOL     OW21585  12.130   2.896  12.828
 6563SOL    HW121586  12.072   2.832  12.787
 6563SOL    HW221587  12.178   2.934  12.754
 6564SOL     OW21588   2.114  11.169   0.516
 6564SOL    HW121589   2.122  11.086   0.469
 6564SOL    HW221590   2.022  11.176   0.539
 6565SOL     OW21591   9.429   5.810   7.861
 6565SOL    HW121592   9.406   5.750   7.931
 6565SOL    HW221593   9.398   5.895   7.890
 6566SOL     OW21594  14.189   7.522  10.351
 6566SOL    HW121595  14.254   7.485  10.410
 6566SOL    HW221596  14.237   7.543  10.271
 6567SOL     OW21597  11.119   4.612   0.287
 6567SOL    HW121598  11.066   4.534   0.271
 6567SOL    HW221599  11.132   4.650   0.201
 6568SOL     OW21600  11.161  14.852   3.002
 6568SOL    HW121601  11.148   0.010   2.916
 6568SOL    HW221602  11.104   0.023   3.060
 6569SOL     OW21603   7.741  12.125   7.190
 6569SOL    HW121604   7.674  12.179   7.233
 6569SOL    HW221605   7.698  12.091   7.112
 6570SOL     OW21606   9.060   9.322   1.487
 6570SOL    HW121607   9.090   9.322   1.396
 6570SOL    HW221608   9.141   9.329   1.538
 6571SOL     OW21609  10.913   0.042  13.532
 6571SOL    HW121610  10.887  14.848  13.587
 6571SOL    HW221611  10.907   0.118  13.590
 6572SOL     OW21612   6.434  11.215  10.906
 6572SOL    HW121613   6.448  11.140  10.964
 6572SOL    HW221614   6.362  11.188  10.849
 6573SOL     OW21615   4.523   4.492  10.103
 6573SOL    HW121616   4.517   4.586  10.087
 6573SOL    HW221617   4.470   4.452  10.034
 6574SOL     OW21618  10.789  13.553   2.090
 6574SOL    HW121619  10.846  13.576   2.162
 6574SOL    HW221620  10.825  13.600   2.015
 6575SOL     OW21621   8.326  14.607  14.413
 6575SOL    HW121622   8.349  14.592  14.505
 6575SOL    HW221623   8.255  14.544  14.396
 6576SOL     OW21624   5.955  11.234  14.604
 6576SOL    HW121625   5.893  11.169  14.636
 6576SOL    HW221626   6.014  11.186  14.547
 6577SOL     OW21627   4.077   1.642   0.416
 6577SOL    HW121628   4.066   1.673   0.327
 6577SOL    HW221629   4.027   1.560   0.419
 6578SOL     OW21630   6.438  13.682   8.863
 6578SOL    HW121631   6.478  13.595   8.857
 6578SOL    HW221632   6.504  13.742   8.828
 6579SOL     OW21633   1.545  13.596  12.341
 6579SOL    HW121634   1.577  13.679  12.305
 6579SOL    HW221635   1.536  13.539  12.265
 6580SOL     OW21636  11.656   4.333   5.810
 6580SOL    HW121637  11.596   4.306   5.879
 6580SOL    HW221638  11.629   4.283   5.733
 6581SOL     OW21639   3.666   1.691  11.349
 6581SOL    HW121640   3.683   1.717  11.439
 6581SOL    HW221641   3.740   1.635  11.326
 6582SOL     OW21642   1.782   4.901   6.946
 6582SOL    HW121643   1.872   4.875   6.928
 6582SOL    HW221644   1.783   4.996   6.943
 6583SOL     OW21645   6.671   6.341  10.245
 6583SOL    HW121646   6.735   6.392  10.295
 6583SOL    HW221647   6.604   6.404  10.219
 6584SOL     OW21648   0.838   5.632  13.136
 6584SOL    HW121649   0.810   5.701  13.076
 6584SOL    HW221650   0.797   5.552  13.102
 6585SOL     OW21651   0.336  10.882  14.240
 6585SOL    HW121652   0.252  10.901  14.197
 6585SOL    HW221653   0.311  10.846  14.325
 6586SOL     OW21654   4.244   8.289  12.846
 6586SOL    HW121655   4.203   8.361  12.894
 6586SOL    HW221656   4.335   8.315  12.837
 6587SOL     OW21657  13.183   8.780   2.918
 6587SOL    HW121658  13.106   8.829   2.945
 6587SOL    HW221659  13.155   8.689   2.917
 6588SOL     OW21660  10.160  10.465   9.773
 6588SOL    HW121661  10.080  10.414   9.759
 6588SOL    HW221662  10.227  10.400   9.795
 6589SOL     OW21663   3.215  11.196   6.433
 6589SOL    HW121664   3.132  11.192   6.384
 6589SOL    HW221665   3.224  11.109   6.472
 6590SOL     OW21666  12.895   5.211   2.125
 6590SOL    HW121667  12.854   5.295   2.102
 6590SOL    HW221668  12.941   5.230   2.207
 6591SOL     OW21669  10.170  11.580   1.939
 6591SOL    HW121670  10.206  11.530   1.866
 6591SOL    HW221671  10.129  11.515   1.995
 6592SOL     OW21672   6.513   5.921   3.831
 6592SOL    HW121673   6.600   5.898   3.861
 6592SOL    HW221674   6.494   6.006   3.872
 6593SOL     OW21675   5.571   6.527   1.162
 6593SOL    HW121676   5.528   6.449   1.125
 6593SOL    HW221677   5.499   6.590   1.174
 6594SOL     OW21678   9.207   9.902   2.722
 6594SOL    HW121679   9.134   9.942   2.769
 6594SOL    HW221680   9.210   9.812   2.755
 6595SOL     OW21681   7.381   1.184  10.008
 6595SOL    HW121682   7.408   1.274  10.025
 6595SOL    HW221683   7.351   1.152  10.093
 6596SOL     OW21684   6.818   8.631  14.257
 6596SOL    HW121685   6.893   8.579  14.286
 6596SOL    HW221686   6.814   8.704  14.319
 6597SOL     OW21687   7.450   2.270   0.141
 6597SOL    HW121688   7.391   2.340   0.111
 6597SOL    HW221689   7.522   2.272   0.078
 6598SOL     OW21690   0.924   0.885   5.468
 6598SOL    HW121691   0.992   0.818   5.460
 6598SOL    HW221692   0.973   0.965   5.488
 6599SOL     OW21693   2.707   1.720   8.690
 6599SOL    HW121694   2.705   1.766   8.607
 6599SOL    HW221695   2.632   1.755   8.739
 6600SOL     OW21696  11.658   8.919  13.705
 6600SOL    HW121697  11.692   8.948  13.620
 6600SOL    HW221698  11.729   8.868  13.743
 6601SOL     OW21699   6.198   0.131   0.868
 6601SOL    HW121700   6.168   0.054   0.820
 6601SOL    HW221701   6.184   0.108   0.960
 6602SOL     OW21702  13.588   0.112   8.252
 6602SOL    HW121703  13.552   0.083   8.168
 6602SOL    HW221704  13.518   0.166   8.290
 6603SOL     OW21705   2.676   1.234   5.793
 6603SOL    HW121706   2.677   1.203   5.703
 6603SOL    HW221707   2.611   1.180   5.837
 6604SOL     OW21708   8.160   0.131   2.191
 6604SOL    HW121709   8.067   0.142   2.209
 6604SOL    HW221710   8.165   0.118   2.097
 6605SOL     OW21711   6.840   8.750   0.280
 6605SOL    HW121712   6.760   8.757   0.228
 6605SOL    HW221713   6.809   8.736   0.370
 6606SOL     OW21714   7.992   3.257   3.074
 6606SOL    HW121715   7.964   3.167   3.054
 6606SOL    HW221716   8.066   3.272   3.015
 6607SOL     OW21717   2.697  13.285   0.065
 6607SOL    HW121718   2.625  13.289   0.127
 6607SOL    HW221719   2.661  13.239  14.869
 6608SOL     OW21720   7.245   7.439   9.662
 6608SOL    HW121721   7.280   7.500   9.726
 6608SOL    HW221722   7.300   7.450   9.584
 6609SOL     OW21723   8.979   9.057  13.613
 6609SOL    HW121724   8.979   8.986  13.677
 6609SOL    HW221725   8.996   9.136  13.664
 6610SOL     OW21726   7.725   4.029   6.616
 6610SOL    HW121727   7.813   4.067   6.627
 6610SOL    HW221728   7.667   4.092   6.659
 6611SOL     OW21729   7.063  14.644   2.915
 6611SOL    HW121730   7.059  14.676   2.824
 6611SOL    HW221731   7.099  14.718   2.964
 6612SOL     OW21732   9.883   0.818  10.823
 6612SOL    HW121733   9.837   0.779  10.749
 6612SOL    HW221734   9.813   0.839  10.886
 6613SOL     OW21735   9.606  14.794   0.421
 6613SOL    HW121736   9.698  14.768   0.424
 6613SOL    HW221737   9.561  14.717   0.386
 6614SOL     OW21738   4.826   6.187   4.561
 6614SOL    HW121739   4.844   6.173   4.654
 6614SOL    HW221740   4.741   6.145   4.546
 6615SOL     OW21741  12.586   6.833   1.100
 6615SOL    HW121742  12.590   6.867   1.010
 6615SOL    HW221743  12.639   6.754   1.098
 6616SOL     OW21744  11.534   8.941   4.339
 6616SOL    HW121745  11.552   8.869   4.399
 6616SOL    HW221746  11.439   8.953   4.344
 6617SOL     OW21747   2.527  11.247   4.867
 6617SOL    HW121748   2.481  11.253   4.784
 6617SOL    HW221749   2.501  11.326   4.914
 6618SOL     OW21750   5.570   7.670   8.818
 6618SOL    HW121751   5.503   7.610   8.786
 6618SOL    HW221752   5.625   7.616   8.874
 6619SOL     OW21753   5.038   6.772  14.578
 6619SOL    HW121754   5.117   6.729  14.612
 6619SOL    HW221755   5.062   6.865  14.575
 6620SOL     OW21756  10.095  14.714  10.740
 6620SOL    HW121757  10.177  14.694  10.784
 6620SOL    HW221758  10.095  14.809  10.730
 6621SOL     OW21759   7.958   7.233   8.137
 6621SOL    HW121760   8.028   7.256   8.197
 6621SOL    HW221761   7.988   7.152   8.094
 6622SOL     OW21762   7.303   1.525  11.383
 6622SOL    HW121763   7.288   1.540  11.477
 6622SOL    HW221764   7.397   1.541  11.372
 6623SOL     OW21765  12.092  14.731   7.529
 6623SOL    HW121766  12.124  14.817   7.554
 6623SOL    HW221767  12.154  14.669   7.568
 6624SOL     OW21768  10.701  13.556  11.375
 6624SOL    HW121769  10.729  13.469  11.347
 6624SOL    HW221770  10.612  13.543  11.409
 6625SOL     OW21771   2.073   9.382   9.902
 6625SOL    HW121772   2.158   9.346   9.876
 6625SOL    HW221773   2.053   9.339   9.985
 6626SOL     OW21774   8.954  13.150  12.599
 6626SOL    HW121775   9.028  13.205  12.622
 6626SOL    HW221776   8.983  13.061  12.619
 6627SOL     OW21777   2.607  13.642   9.150
 6627SOL    HW121778   2.524  13.681   9.121
 6627SOL    HW221779   2.586  13.598   9.232
 6628SOL     OW21780   6.853   8.180   4.467
 6628SOL    HW121781   6.789   8.110   4.481
 6628SOL    HW221782   6.848   8.198   4.373
 6629SOL     OW21783  10.050   9.160  13.050
 6629SOL    HW121784  10.015   9.186  12.965
 6629SOL    HW221785   9.985   9.101  13.087
 6630SOL     OW21786   8.947   5.470   7.778
 6630SOL    HW121787   9.038   5.482   7.806
 6630SOL    HW221788   8.895   5.499   7.853
 6631SOL     OW21789   5.050   8.574   5.720
 6631SOL    HW121790   5.114   8.566   5.790
 6631SOL    HW221791   4.977   8.519   5.748
 6632SOL     OW21792   4.688   2.743  13.629
 6632SOL    HW121793   4.727   2.817  13.676
 6632SOL    HW221794   4.676   2.676  13.696
 6633SOL     OW21795   6.948  14.070  14.325
 6633SOL    HW121796   7.044  14.070  14.332
 6633SOL    HW221797   6.923  13.979  14.340
 6634SOL     OW21798  12.258  12.699  11.492
 6634SOL    HW121799  12.300  12.722  11.575
 6634SOL    HW221800  12.289  12.610  11.474
 6635SOL     OW21801  10.387  13.103   0.704
 6635SOL    HW121802  10.371  13.036   0.770
 6635SOL    HW221803  10.306  13.105   0.652
 6636SOL     OW21804   5.009  13.256   5.750
 6636SOL    HW121805   5.000  13.161   5.740
 6636SOL    HW221806   4.989  13.272   5.842
 6637SOL     OW21807  13.680   4.554   3.156
 6637SOL    HW121808  13.614   4.523   3.218
 6637SOL    HW221809  13.666   4.503   3.077
 6638SOL     OW21810  12.024   8.142   9.603
 6638SOL    HW121811  11.942   8.182   9.630
 6638SOL    HW221812  12.017   8.132   9.508
 6639SOL     OW21813   0.780   3.047   3.246
 6639SOL    HW121814   0.828   2.990   3.306
 6639SOL    HW221815   0.771   2.996   3.166
 6640SOL     OW21816   6.355   9.073   6.288
 6640SOL    HW121817   6.275   9.118   6.260
 6640SOL    HW221818   6.424   9.137   6.274
 6641SOL     OW21819   2.411   2.483  11.607
 6641SOL    HW121820   2.378   2.443  11.527
 6641SOL    HW221821   2.497   2.443  11.620
 6642SOL     OW21822   5.266  11.798   7.397
 6642SOL    HW121823   5.262  11.793   7.493
 6642SOL    HW221824   5.293  11.887   7.378
 6643SOL     OW21825  13.326   3.506  13.997
 6643SOL    HW121826  13.230   3.515  13.994
 6643SOL    HW221827  13.343   3.466  14.082
 6644SOL     OW21828   1.491   8.586   9.728
 6644SOL    HW121829   1.551   8.626   9.791
 6644SOL    HW221830   1.427   8.655   9.710
 6645SOL     OW21831   8.357   0.623   9.546
 6645SOL    HW121832   8.325   0.626   9.636
 6645SOL    HW221833   8.413   0.545   9.544
 6646SOL     OW21834   4.082   0.617   1.961
 6646SOL    HW121835   4.021   0.636   1.890
 6646SOL    HW221836   4.081   0.521   1.968
 6647SOL     OW21837   0.539  13.602   4.055
 6647SOL    HW121838   0.450  13.619   4.024
 6647SOL    HW221839   0.553  13.666   4.124
 6648SOL     OW21840   6.346  10.652   1.335
 6648SOL    HW121841   6.296  10.734   1.334
 6648SOL    HW221842   6.299  10.594   1.275
 6649SOL     OW21843  14.557  11.303   4.270
 6649SOL    HW121844  14.554  11.208   4.278
 6649SOL    HW221845  14.522  11.335   4.353
 6650SOL     OW21846   7.366  14.440   0.551
 6650SOL    HW121847   7.364  14.493   0.472
 6650SOL    HW221848   7.323  14.358   0.527
 6651SOL     OW21849   2.927   3.313   0.203
 6651SOL    HW121850   2.889   3.264   0.130
 6651SOL    HW221851   2.932   3.403   0.171
 6652SOL     OW21852  14.086   2.635   0.236
 6652SOL    HW121853  14.102   2.727   0.258
 6652SOL    HW221854  14.110   2.587   0.315
 6653SOL     OW21855   9.490   8.362  12.287
 6653SOL    HW121856   9.399   8.341  12.308
 6653SOL    HW221857   9.488   8.392  12.197
 6654SOL     OW21858  12.897  13.560  11.549
 6654SOL    HW121859  12.987  13.532  11.566
 6654SOL    HW221860  12.896  13.652  11.576
 6655SOL     OW21861   6.913   8.994  13.976
 6655SOL    HW121862   6.917   9.088  13.957
 6655SOL    HW221863   6.822   8.978  14.001
 6656SOL     OW21864   8.688   4.280   6.674
 6656SOL    HW121865   8.766   4.326   6.703
 6656SOL    HW221866   8.715   4.189   6.666
 6657SOL     OW21867   1.875  12.760   0.222
 6657SOL    HW121868   1.903  12.777   0.311
 6657SOL    HW221869   1.792  12.713   0.232
 6658SOL     OW21870   2.182   1.472  13.098
 6658SOL    HW121871   2.212   1.381  13.105
 6658SOL    HW221872   2.119   1.470  13.025
 6659SOL     OW21873  13.725  11.328  14.472
 6659SOL    HW121874  13.746  11.235  14.481
 6659SOL    HW221875  13.643  11.330  14.423
 6660SOL     OW21876  13.171   9.462  11.468
 6660SOL    HW121877  13.107   9.491  11.403
 6660SOL    HW221878  13.248   9.518  11.453
 6661SOL     OW21879   6.016  11.258   5.400
 6661SOL    HW121880   5.945  11.300   5.449
 6661SOL    HW221881   6.065  11.209   5.466
 6662SOL     OW21882   8.945   6.317   0.120
 6662SOL    HW121883   8.909   6.314   0.209
 6662SOL    HW221884   9.032   6.355   0.132
 6663SOL     OW21885  13.794   7.436  14.414
 6663SOL    HW121886  13.751   7.443  14.329
 6663SOL    HW221887  13.875   7.387  14.395
 6664SOL     OW21888  12.958  12.081   4.845
 6664SOL    HW121889  12.905  12.161   4.853
 6664SOL    HW221890  13.028  12.105   4.783
 6665SOL     OW21891  14.628   8.847   6.361
 6665SOL    HW121892  14.633   8.902   6.283
 6665SOL    HW221893  14.550   8.792   6.347
 6666SOL     OW21894   7.586   3.224   6.360
 6666SOL    HW121895   7.586   3.139   6.403
 6666SOL    HW221896   7.567   3.205   6.268
 6667SOL     OW21897   4.952   2.501   1.616
 6667SOL    HW121898   4.894   2.522   1.689
 6667SOL    HW221899   5.032   2.550   1.635
 6668SOL     OW21900   4.619   1.996   8.949
 6668SOL    HW121901   4.585   2.010   9.037
 6668SOL    HW221902   4.714   2.007   8.958
 6669SOL     OW21903   4.664   8.103  10.721
 6669SOL    HW121904   4.588   8.115  10.664
 6669SOL    HW221905   4.674   8.186  10.766
 6670SOL     OW21906   7.526  10.270  10.730
 6670SOL    HW121907   7.563  10.275  10.819
 6670SOL    HW221908   7.582  10.206  10.685
 6671SOL     OW21909   5.261   1.877   7.590
 6671SOL    HW121910   5.302   1.949   7.542
 6671SOL    HW221911   5.333   1.823   7.620
 6672SOL     OW21912   7.610   5.567  12.942
 6672SOL    HW121913   7.579   5.651  12.908
 6672SOL    HW221914   7.531   5.515  12.952
 6673SOL     OW21915   7.858  10.937   4.663
 6673SOL    HW121916   7.877  10.880   4.738
 6673SOL    HW221917   7.763  10.931   4.651
 6674SOL     OW21918  13.008   0.515   1.653
 6674SOL    HW121919  13.087   0.507   1.705
 6674SOL    HW221920  13.008   0.605   1.622
 6675SOL     OW21921  10.625   6.882   6.698
 6675SOL    HW121922  10.604   6.807   6.643
 6675SOL    HW221923  10.559   6.881   6.767
 6676SOL     OW21924  10.423   8.285   9.723
 6676SOL    HW121925  10.517   8.299   9.735
 6676SOL    HW221926  10.416   8.240   9.638
 6677SOL     OW21927   0.018  11.234   7.341
 6677SOL    HW121928  14.827  11.294   7.361
 6677SOL    HW221929   0.080  11.244   7.413
 6678SOL     OW21930   7.146  10.179   7.185
 6678SOL    HW121931   7.172  10.089   7.166
 6678SOL    HW221932   7.214  10.213   7.243
 6679SOL     OW21933  12.880   0.829   8.351
 6679SOL    HW121934  12.822   0.826   8.275
 6679SOL    HW221935  12.946   0.895   8.329
 6680SOL     OW21936  11.791   4.773   6.059
 6680SOL    HW121937  11.747   4.689   6.066
 6680SOL    HW221938  11.882   4.751   6.040
 6681SOL     OW21939   7.494   8.328  10.655
 6681SOL    HW121940   7.456   8.280  10.729
 6681SOL    HW221941   7.579   8.358  10.687
 6682SOL     OW21942   8.190   9.323   4.575
 6682SOL    HW121943   8.115   9.347   4.630
 6682SOL    HW221944   8.158   9.254   4.518
 6683SOL     OW21945   4.898   1.502  14.258
 6683SOL    HW121946   4.887   1.508  14.353
 6683SOL    HW221947   4.983   1.543  14.241
 6684SOL     OW21948  11.978   0.235   0.557
 6684SOL    HW121949  11.894   0.280   0.565
 6684SOL    HW221950  11.974   0.191   0.472
 6685SOL     OW21951   3.557   4.677   8.094
 6685SOL    HW121952   3.529   4.769   8.102
 6685SOL    HW221953   3.645   4.675   8.131
 6686SOL     OW21954   9.407   2.815   7.854
 6686SOL    HW121955   9.316   2.802   7.829
 6686SOL    HW221956   9.457   2.785   7.777
 6687SOL     OW21957  13.409  11.465  13.463
 6687SOL    HW121958  13.375  11.376  13.468
 6687SOL    HW221959  13.382  11.506  13.545
 6688SOL     OW21960  14.705   4.037  14.181
 6688SOL    HW121961  14.642   3.986  14.131
 6688SOL    HW221962  14.757   4.083  14.115
 6689SOL     OW21963   3.396   5.134   3.404
 6689SOL    HW121964   3.466   5.180   3.450
 6689SOL    HW221965   3.334   5.203   3.381
 6690SOL     OW21966  10.931   7.345   3.921
 6690SOL    HW121967  10.895   7.366   3.835
 6690SOL    HW221968  10.919   7.250   3.930
 6691SOL     OW21969   0.707   3.864   0.273
 6691SOL    HW121970   0.727   3.954   0.298
 6691SOL    HW221971   0.615   3.866   0.245
 6692SOL     OW21972  14.845   2.392  10.129
 6692SOL    HW121973  14.838   2.389  10.224
 6692SOL    HW221974   0.059   2.389  10.111
 6693SOL     OW21975  12.589  13.560  11.142
 6693SOL    HW121976  12.594  13.637  11.086
 6693SOL    HW221977  12.608  13.593  11.230
 6694SOL     OW21978   8.619  11.760  13.013
 6694SOL    HW121979   8.597  11.843  13.055
 6694SOL    HW221980   8.591  11.771  12.923
 6695SOL     OW21981  14.597   9.515   5.290
 6695SOL    HW121982  14.523   9.493   5.347
 6695SOL    HW221983  14.673   9.512   5.348
 6696SOL     OW21984   5.449   1.361   1.622
 6696SOL    HW121985   5.405   1.385   1.540
 6696SOL    HW221986   5.535   1.402   1.616
 6697SOL     OW21987   6.240   5.383   1.259
 6697SOL    HW121988   6.220   5.344   1.344
 6697SOL    HW221989   6.154   5.398   1.219
 6698SOL     OW21990   8.258   4.677   6.571
 6698SOL    HW121991   8.230   4.704   6.484
 6698SOL    HW221992   8.331   4.735   6.593
 6699SOL     OW21993   8.409  13.039   0.877
 6699SOL    HW121994   8.413  13.091   0.958
 6699SOL    HW221995   8.394  13.103   0.808
 6700SOL     OW21996   2.577   4.052   9.694
 6700SOL    HW121997   2.671   4.066   9.705
 6700SOL    HW221998   2.562   4.070   9.601
 6701SOL     OW21999   4.584   0.461   8.173
 6701SOL    HW122000   4.632   0.506   8.104
 6701SOL    HW222001   4.627   0.488   8.254
 6702SOL     OW22002   0.232  12.625   5.749
 6702SOL    HW122003   0.207  12.558   5.813
 6702SOL    HW222004   0.297  12.679   5.794
 6703SOL     OW22005   8.241  10.380  14.174
 6703SOL    HW122006   8.263  10.301  14.126
 6703SOL    HW222007   8.230  10.447  14.106
 6704SOL     OW22008   5.975  14.410   0.791
 6704SOL    HW122009   5.973  14.500   0.758
 6704SOL    HW222010   6.043  14.411   0.859
 6705SOL     OW22011  14.564  13.838   8.132
 6705SOL    HW122012  14.602  13.750   8.123
 6705SOL    HW222013  14.471  13.826   8.111
 6706SOL     OW22014   3.057   8.924  11.405
 6706SOL    HW122015   3.062   9.012  11.443
 6706SOL    HW222016   2.963   8.907  11.395
 6707SOL     OW22017   0.675   0.129   9.368
 6707SOL    HW122018   0.727   0.089   9.438
 6707SOL    HW222019   0.736   0.188   9.324
 6708SOL     OW22020   3.789  14.031   6.721
 6708SOL    HW122021   3.831  14.008   6.638
 6708SOL    HW222022   3.718  13.967   6.730
 6709SOL     OW22023   4.714   3.558   8.717
 6709SOL    HW122024   4.703   3.512   8.800
 6709SOL    HW222025   4.689   3.494   8.650
 6710SOL     OW22026  11.285   4.509  14.878
 6710SOL    HW122027  11.203   4.547   0.029
 6710SOL    HW222028  11.258   4.429  14.832
 6711SOL     OW22029   1.422   5.335   3.864
 6711SOL    HW122030   1.425   5.422   3.905
 6711SOL    HW222031   1.407   5.275   3.936
 6712SOL     OW22032   8.354   6.573   8.780
 6712SOL    HW122033   8.443   6.577   8.745
 6712SOL    HW222034   8.335   6.663   8.806
 6713SOL     OW22035   1.799  14.635  14.435
 6713SOL    HW122036   1.766  14.592  14.357
 6713SOL    HW222037   1.756  14.721  14.435
 6714SOL     OW22038  10.867   8.894   8.222
 6714SOL    HW122039  10.835   8.839   8.294
 6714SOL    HW222040  10.808   8.970   8.222
 6715SOL     OW22041   4.185   5.936  10.792
 6715SOL    HW122042   4.140   5.874  10.849
 6715SOL    HW222043   4.265   5.892  10.766
 6716SOL     OW22044  10.802  14.487  14.106
 6716SOL    HW122045  10.788  14.581  14.121
 6716SOL    HW222046  10.721  14.458  14.064
 6717SOL     OW22047  14.856  11.713  13.883
 6717SOL    HW122048  14.871  11.788  13.826
 6717SOL    HW222049   0.007  11.637  13.834
 6718SOL     OW22050   1.889  13.770  13.464
 6718SOL    HW122051   1.878  13.738  13.553
 6718SOL    HW222052   1.809  13.817  13.445
 6719SOL     OW22053  14.631   0.301  12.807
 6719SOL    HW122054  14.680   0.300  12.725
 6719SOL    HW222055  14.685   0.250  12.868
 6720SOL     OW22056  10.884  10.023  11.874
 6720SOL    HW122057  10.865  10.005  11.782
 6720SOL    HW222058  10.951   9.960  11.898
 6721SOL     OW22059   5.831   4.351   8.851
 6721SOL    HW122060   5.807   4.268   8.810
 6721SOL    HW222061   5.793   4.347   8.939
 6722SOL     OW22062  13.944   6.545   2.101
 6722SOL    HW122063  14.022   6.597   2.122
 6722SOL    HW222064  13.908   6.520   2.186
 6723SOL     OW22065   8.407   5.174   2.136
 6723SOL    HW122066   8.435   5.229   2.063
 6723SOL    HW222067   8.389   5.088   2.096
 6724SOL     OW22068   1.434  12.379  13.815
 6724SOL    HW122069   1.492  12.350  13.885
 6724SOL    HW222070   1.372  12.438  13.857
 6725SOL     OW22071   4.022   0.443  14.045
 6725SOL    HW122072   4.025   0.471  13.953
 6725SOL    HW222073   3.961   0.504  14.087
 6726SOL     OW22074   2.570   9.335   9.970
 6726SOL    HW122075   2.493   9.291  10.006
 6726SOL    HW222076   2.620   9.266   9.927
 6727SOL     OW22077   6.962   6.153   7.441
 6727SOL    HW122078   6.874   6.174   7.472
 6727SOL    HW222079   6.985   6.224   7.381
 6728SOL     OW22080   9.119  14.444  10.365
 6728SOL    HW122081   9.073  14.417  10.444
 6728SOL    HW222082   9.202  14.396  10.368
 6729SOL     OW22083   5.469   8.656  12.632
 6729SOL    HW122084   5.523   8.679  12.556
 6729SOL    HW222085   5.443   8.741  12.669
 6730SOL     OW22086   8.194   0.499   7.091
 6730SOL    HW122087   8.247   0.462   7.163
 6730SOL    HW222088   8.106   0.505   7.128
 6731SOL     OW22089   7.150   6.697  12.465
 6731SOL    HW122090   7.064   6.693  12.425
 6731SOL    HW222091   7.196   6.621  12.430
 6732SOL     OW22092   2.590   2.141   0.536
 6732SOL    HW122093   2.631   2.112   0.617
 6732SOL    HW222094   2.541   2.065   0.505
 6733SOL     OW22095  14.282   4.221  14.081
 6733SOL    HW122096  14.188   4.242  14.077
 6733SOL    HW222097  14.322   4.277  14.014
 6734SOL     OW22098   5.142   9.303   7.172
 6734SOL    HW122099   5.117   9.268   7.257
 6734SOL    HW222100   5.146   9.227   7.115
 6735SOL     OW22101   1.804   5.837   9.680
 6735SOL    HW122102   1.723   5.888   9.684
 6735SOL    HW222103   1.775   5.746   9.681
 6736SOL     OW22104  14.182   6.679   3.104
 6736SOL    HW122105  14.107   6.730   3.073
 6736SOL    HW222106  14.174   6.681   3.199
 6737SOL     OW22107  13.101   2.586   7.694
 6737SOL    HW122108  13.193   2.567   7.676
 6737SOL    HW222109  13.088   2.556   7.785
 6738SOL     OW22110   0.573   1.497  14.497
 6738SOL    HW122111   0.588   1.551  14.575
 6738SOL    HW222112   0.497   1.444  14.519
 6739SOL     OW22113   6.491   7.946   9.309
 6739SOL    HW122114   6.573   7.924   9.264
 6739SOL    HW222115   6.505   7.917   9.399
 6740SOL     OW22116   3.050   7.698   4.539
 6740SOL    HW122117   3.046   7.711   4.444
 6740SOL    HW222118   3.091   7.612   4.550
 6741SOL     OW22119  10.773  13.524   3.104
 6741SOL    HW122120  10.723  13.601   3.078
 6741SOL    HW222121  10.803  13.486   3.022
 6742SOL     OW22122   3.211   4.735   4.679
 6742SOL    HW122123   3.250   4.804   4.626
 6742SOL    HW222124   3.284   4.677   4.701
 6743SOL     OW22125   5.138  12.640   3.488
 6743SOL    HW122126   5.211  12.642   3.550
 6743SOL    HW222127   5.065  12.680   3.534
 6744SOL     OW22128   9.181  10.458  13.135
 6744SOL    HW122129   9.120  10.528  13.111
 6744SOL    HW222130   9.252  10.466  13.071
 6745SOL     OW22131   7.729   0.857   8.996
 6745SOL    HW122132   7.673   0.838   8.921
 6745SOL    HW222133   7.688   0.811   9.069
 6746SOL     OW22134  13.847   7.043   5.292
 6746SOL    HW122135  13.837   6.999   5.208
 6746SOL    HW222136  13.782   7.112   5.291
 6747SOL     OW22137   8.335   3.330  14.404
 6747SOL    HW122138   8.430   3.323  14.409
 6747SOL    HW222139   8.317   3.355  14.314
 6748SOL     OW22140   8.033  14.303   5.346
 6748SOL    HW122141   8.092  14.324   5.419
 6748SOL    HW222142   8.086  14.319   5.268
 6749SOL     OW22143   9.363   4.807   9.136
 6749SOL    HW122144   9.375   4.899   9.159
 6749SOL    HW222145   9.452   4.771   9.133
 6750SOL     OW22146   0.498  14.374   3.647
 6750SOL    HW122147   0.412  14.389   3.686
 6750SOL    HW222148   0.552  14.445   3.682
 6751SOL     OW22149   3.538   9.058   4.733
 6751SOL    HW122150   3.545   9.144   4.690
 6751SOL    HW222151   3.582   9.070   4.817
 6752SOL     OW22152  14.472  12.005  13.321
 6752SOL    HW122153  14.467  11.976  13.412
 6752SOL    HW222154  14.403  11.957  13.276
 6753SOL     OW22155   5.157  11.076  14.837
 6753SOL    HW122156   5.180  11.010   0.023
 6753SOL    HW222157   5.222  11.065  14.768
 6754SOL     OW22158  11.794  14.562   5.956
 6754SOL    HW122159  11.854  14.559   6.031
 6754SOL    HW222160  11.819  14.487   5.902
 6755SOL     OW22161   9.507  10.047  13.603
 6755SOL    HW122162   9.510   9.956  13.573
 6755SOL    HW222163   9.587  10.058  13.655
 6756SOL     OW22164  14.647   6.069   9.678
 6756SOL    HW122165  14.623   6.128   9.606
 6756SOL    HW222166  14.638   6.123   9.757
 6757SOL     OW22167   6.150  11.498   0.217
 6757SOL    HW122168   6.146  11.493   0.312
 6757SOL    HW222169   6.224  11.555   0.199
 6758SOL     OW22170  13.060   9.626   6.390
 6758SOL    HW122171  13.024   9.627   6.302
 6758SOL    HW222172  13.068   9.533   6.412
 6759SOL     OW22173  12.927   8.977   7.810
 6759SOL    HW122174  12.848   8.923   7.803
 6759SOL    HW222175  12.997   8.913   7.827
 6760SOL     OW22176   9.176  11.562   2.411
 6760SOL    HW122177   9.083  11.548   2.426
 6760SOL    HW222178   9.217  11.479   2.435
 6761SOL     OW22179   1.296  10.078   3.548
 6761SOL    HW122180   1.216  10.032   3.574
 6761SOL    HW222181   1.325  10.033   3.468
 6762SOL     OW22182   0.239   9.927  11.000
 6762SOL    HW122183   0.272   9.875  10.926
 6762SOL    HW222184   0.295   9.903  11.073
 6763SOL     OW22185   6.360   4.361   6.287
 6763SOL    HW122186   6.342   4.380   6.379
 6763SOL    HW222187   6.456   4.353   6.282
 6764SOL     OW22188   7.912   3.582  14.610
 6764SOL    HW122189   7.938   3.505  14.560
 6764SOL    HW222190   7.986   3.642  14.602
 6765SOL     OW22191   8.762  14.207   8.017
 6765SOL    HW122192   8.668  14.201   8.003
 6765SOL    HW222193   8.775  14.170   8.105
 6766SOL     OW22194   8.786   8.164   1.870
 6766SOL    HW122195   8.827   8.078   1.864
 6766SOL    HW222196   8.757   8.184   1.781
 6767SOL     OW22197  12.073   9.343   7.127
 6767SOL    HW122198  12.003   9.278   7.131
 6767SOL    HW222199  12.153   9.294   7.146
 6768SOL     OW22200   2.085  14.053  10.095
 6768SOL    HW122201   2.106  14.099  10.176
 6768SOL    HW222202   2.046  13.970  10.123
 6769SOL     OW22203   7.011   3.285   7.345
 6769SOL    HW122204   6.921   3.286   7.311
 6769SOL    HW222205   7.047   3.370   7.320
 6770SOL     OW22206  13.982   6.629   8.773
 6770SOL    HW122207  13.991   6.722   8.755
 6770SOL    HW222208  14.026   6.616   8.857
 6771SOL     OW22209   9.715  11.288   6.981
 6771SOL    HW122210   9.634  11.295   7.032
 6771SOL    HW222211   9.685  11.287   6.890
 6772SOL     OW22212   1.855  13.422   1.510
 6772SOL    HW122213   1.902  13.457   1.586
 6772SOL    HW222214   1.788  13.487   1.491
 6773SOL     OW22215   8.168  13.827  12.960
 6773SOL    HW122216   8.115  13.783  13.026
 6773SOL    HW222217   8.159  13.772  12.882
 6774SOL     OW22218  12.030  10.468   9.102
 6774SOL    HW122219  12.082  10.548   9.113
 6774SOL    HW222220  11.987  10.479   9.017
 6775SOL     OW22221   5.700   6.347  10.313
 6775SOL    HW122222   5.674   6.295  10.390
 6775SOL    HW222223   5.790   6.373  10.332
 6776SOL     OW22224  12.109  11.257  13.745
 6776SOL    HW122225  12.070  11.297  13.822
 6776SOL    HW222226  12.185  11.311  13.724
 6777SOL     OW22227  11.702   8.480  10.078
 6777SOL    HW122228  11.766   8.420  10.117
 6777SOL    HW222229  11.754   8.555  10.051
 6778SOL     OW22230   1.365   4.867  14.092
 6778SOL    HW122231   1.342   4.920  14.016
 6778SOL    HW222232   1.296   4.802  14.098
 6779SOL     OW22233   5.576  12.162   9.373
 6779SOL    HW122234   5.513  12.183   9.441
 6779SOL    HW222235   5.541  12.083   9.332
 6780SOL     OW22236   1.412  10.248   2.525
 6780SOL    HW122237   1.333  10.254   2.472
 6780SOL    HW222238   1.474  10.199   2.470
 6781SOL     OW22239  13.670   8.362   1.023
 6781SOL    HW122240  13.764   8.363   1.009
 6781SOL    HW222241  13.643   8.272   1.003
 6782SOL     OW22242   3.826   2.120  10.770
 6782SOL    HW122243   3.846   2.030  10.797
 6782SOL    HW222244   3.765   2.151  10.837
 6783SOL     OW22245   4.186   8.595   4.263
 6783SOL    HW122246   4.114   8.585   4.201
 6783SOL    HW222247   4.145   8.592   4.349
 6784SOL     OW22248   7.353  14.265   4.080
 6784SOL    HW122249   7.302  14.187   4.057
 6784SOL    HW222250   7.289  14.336   4.080
 6785SOL     OW22251   9.891  14.787  13.457
 6785SOL    HW122252   9.806  14.744  13.454
 6785SOL    HW222253   9.953  14.720  13.430
 6786SOL     OW22254   4.890   9.624   0.560
 6786SOL    HW122255   4.954   9.676   0.608
 6786SOL    HW222256   4.894   9.537   0.599
 6787SOL     OW22257   4.268   8.662   9.511
 6787SOL    HW122258   4.231   8.739   9.552
 6787SOL    HW222259   4.263   8.680   9.417
 6788SOL     OW22260  10.966   5.285   9.828
 6788SOL    HW122261  10.896   5.320   9.773
 6788SOL    HW222262  11.030   5.250   9.767
 6789SOL     OW22263   3.707   3.000   3.047
 6789SOL    HW122264   3.655   2.970   2.972
 6789SOL    HW222265   3.730   2.919   3.093
 6790SOL     OW22266   5.263   3.362  14.260
 6790SOL    HW122267   5.333   3.314  14.304
 6790SOL    HW222268   5.189   3.357  14.320
 6791SOL     OW22269   1.977  13.722   0.178
 6791SOL    HW122270   2.023  13.799   0.211
 6791SOL    HW222271   2.015  13.649   0.227
 6792SOL     OW22272   6.234  13.579  11.997
 6792SOL    HW122273   6.212  13.601  11.906
 6792SOL    HW222274   6.158  13.607  12.048
 6793SOL     OW22275   3.170   2.340   4.873
 6793SOL    HW122276   3.075   2.343   4.879
 6793SOL    HW222277   3.188   2.290   4.793
 6794SOL     OW22278   2.713   8.069   4.322
 6794SOL    HW122279   2.643   8.108   4.373
 6794SOL    HW222280   2.743   7.995   4.375
 6795SOL     OW22281  12.839   5.048   4.448
 6795SOL    HW122282  12.762   4.998   4.474
 6795SOL    HW222283  12.810   5.139   4.448
 6796SOL     OW22284   8.431   9.368  13.326
 6796SOL    HW122285   8.401   9.453  13.356
 6796SOL    HW222286   8.379   9.351  13.247
 6797SOL     OW22287  11.056   7.440   7.200
 6797SOL    HW122288  11.110   7.485   7.136
 6797SOL    HW222289  11.071   7.487   7.282
 6798SOL     OW22290   1.267  11.393  10.529
 6798SOL    HW122291   1.186  11.410  10.577
 6798SOL    HW222292   1.318  11.338  10.589
 6799SOL     OW22293   7.765   6.386  11.449
 6799SOL    HW122294   7.684   6.367  11.402
 6799SOL    HW222295   7.829   6.403  11.380
 6800SOL     OW22296  14.145   0.366   6.504
 6800SOL    HW122297  14.103   0.374   6.418
 6800SOL    HW222298  14.123   0.279   6.534
 6801SOL     OW22299   9.674   9.884   4.810
 6801SOL    HW122300   9.599   9.918   4.762
 6801SOL    HW222301   9.744   9.949   4.796
 6802SOL     OW22302  11.776   0.421  13.592
 6802SOL    HW122303  11.706   0.405  13.529
 6802SOL    HW222304  11.750   0.502  13.636
 6803SOL     OW22305   8.707   4.864  11.847
 6803SOL    HW122306   8.629   4.908  11.812
 6803SOL    HW222307   8.780   4.915  11.813
 6804SOL     OW22308  12.890  12.555  12.707
 6804SOL    HW122309  12.899  12.460  12.705
 6804SOL    HW222310  12.980  12.588  12.713
 6805SOL     OW22311   1.103   1.329  10.799
 6805SOL    HW122312   1.103   1.267  10.727
 6805SOL    HW222313   1.150   1.405  10.764
 6806SOL     OW22314   5.790   1.852  14.862
 6806SOL    HW122315   5.802   1.758  14.851
 6806SOL    HW222316   5.828   1.890  14.783
 6807SOL     OW22317  11.297   0.148   2.351
 6807SOL    HW122318  11.330   0.214   2.290
 6807SOL    HW222319  11.305   0.065   2.303
 6808SOL     OW22320   3.657   2.403   7.028
 6808SOL    HW122321   3.725   2.443   7.083
 6808SOL    HW222322   3.628   2.474   6.971
 6809SOL     OW22323   1.494  13.364   8.801
 6809SOL    HW122324   1.575  13.314   8.814
 6809SOL    HW222325   1.513  13.420   8.725
 6810SOL     OW22326   3.737   1.515  12.917
 6810SOL    HW122327   3.737   1.492  13.010
 6810SOL    HW222328   3.688   1.596  12.913
 6811SOL     OW22329   2.600   2.049  13.275
 6811SOL    HW122330   2.568   1.959  13.277
 6811SOL    HW222331   2.533   2.100  13.320
 6812SOL     OW22332   9.356   8.240  13.884
 6812SOL    HW122333   9.373   8.329  13.851
 6812SOL    HW222334   9.442   8.209  13.911
 6813SOL     OW22335   0.721   7.112   5.989
 6813SOL    HW122336   0.721   7.195   6.038
 6813SOL    HW222337   0.730   7.138   5.898
 6814SOL     OW22338   4.517   2.066   2.145
 6814SOL    HW122339   4.599   2.054   2.096
 6814SOL    HW222340   4.467   1.987   2.128
 6815SOL     OW22341   5.187  13.435  10.376
 6815SOL    HW122342   5.167  13.410  10.286
 6815SOL    HW222343   5.106  13.477  10.407
 6816SOL     OW22344   7.251   3.338   4.413
 6816SOL    HW122345   7.273   3.384   4.494
 6816SOL    HW222346   7.298   3.385   4.345
 6817SOL     OW22347   0.066   8.687   8.457
 6817SOL    HW122348   0.076   8.693   8.552
 6817SOL    HW222349   0.138   8.630   8.430
 6818SOL     OW22350   4.063   5.252   8.199
 6818SOL    HW122351   4.012   5.267   8.119
 6818SOL    HW222352   4.008   5.286   8.269
 6819SOL     OW22353   7.561  11.917  13.232
 6819SOL    HW122354   7.582  11.939  13.141
 6819SOL    HW222355   7.497  11.846  13.225
 6820SOL     OW22356   5.041   6.609   0.022
 6820SOL    HW122357   5.135   6.627   0.030
 6820SOL    HW222358   5.036   6.514   0.011
 6821SOL     OW22359   0.623  14.552   2.647
 6821SOL    HW122360   0.648  14.584   2.734
 6821SOL    HW222361   0.631  14.457   2.653
 6822SOL     OW22362   6.961   8.060   6.946
 6822SOL    HW122363   6.981   7.970   6.920
 6822SOL    HW222364   6.968   8.110   6.864
 6823SOL     OW22365   2.107  11.044  12.494
 6823SOL    HW122366   2.197  11.039  12.462
 6823SOL    HW222367   2.085  10.954  12.518
 6824SOL     OW22368  12.940   3.525   8.464
 6824SOL    HW122369  13.014   3.465   8.457
 6824SOL    HW222370  12.979   3.609   8.487
 6825SOL     OW22371   9.907   9.825   7.695
 6825SOL    HW122372   9.838   9.759   7.687
 6825SOL    HW222373   9.974   9.797   7.632
 6826SOL     OW22374  10.821   4.867   9.151
 6826SOL    HW122375  10.796   4.956   9.176
 6826SOL    HW222376  10.747   4.835   9.099
 6827SOL     OW22377   2.415  10.648  13.237
 6827SOL    HW122378   2.390  10.605  13.319
 6827SOL    HW222379   2.502  10.613  13.217
 6828SOL     OW22380  12.006  14.710  13.963
 6828SOL    HW122381  11.971  14.629  13.925
 6828SOL    HW222382  11.955  14.780  13.923
 6829SOL     OW22383   1.951   4.060  14.700
 6829SOL    HW122384   1.865   4.103  14.699
 6829SOL    HW222385   1.994   4.092  14.621
 6830SOL     OW22386  11.100  13.685   4.801
 6830SOL    HW122387  11.143  13.686   4.886
 6830SOL    HW222388  11.062  13.773   4.792
 6831SOL     OW22389   8.206   8.678   9.474
 6831SOL    HW122390   8.114   8.653   9.482
 6831SOL    HW222391   8.205   8.773   9.468
 6832SOL     OW22392   5.714   9.275   0.423
 6832SOL    HW122393   5.707   9.332   0.346
 6832SOL    HW222394   5.623   9.254   0.445
 6833SOL     OW22395   5.326  11.670   1.388
 6833SOL    HW122396   5.277  11.736   1.437
 6833SOL    HW222397   5.409  11.663   1.435
 6834SOL     OW22398   5.656   3.055   2.931
 6834SOL    HW122399   5.708   2.975   2.941
 6834SOL    HW222400   5.684   3.111   3.003
 6835SOL     OW22401   5.269  14.206  14.293
 6835SOL    HW122402   5.194  14.264  14.278
 6835SOL    HW222403   5.296  14.179  14.205
 6836SOL     OW22404  11.336   9.687   3.040
 6836SOL    HW122405  11.399   9.625   3.004
 6836SOL    HW222406  11.250   9.649   3.019
 6837SOL     OW22407  13.069  12.882   6.568
 6837SOL    HW122408  13.107  12.836   6.643
 6837SOL    HW222409  13.100  12.972   6.578
 6838SOL     OW22410   3.769   3.686   2.126
 6838SOL    HW122411   3.814   3.769   2.139
 6838SOL    HW222412   3.832   3.630   2.081
 6839SOL     OW22413  10.689  12.312   6.324
 6839SOL    HW122414  10.763  12.372   6.335
 6839SOL    HW222415  10.620  12.349   6.378
 6840SOL     OW22416  11.398   8.379   1.429
 6840SOL    HW122417  11.355   8.440   1.369
 6840SOL    HW222418  11.354   8.394   1.513
 6841SOL     OW22419  13.428  14.484   4.077
 6841SOL    HW122420  13.489  14.493   4.004
 6841SOL    HW222421  13.370  14.560   4.071
 6842SOL     OW22422   4.123   1.058   3.164
 6842SOL    HW122423   4.177   1.106   3.102
 6842SOL    HW222424   4.095   1.123   3.229
 6843SOL     OW22425  10.489  13.266   8.566
 6843SOL    HW122426  10.521  13.246   8.653
 6843SOL    HW222427  10.430  13.194   8.545
 6844SOL     OW22428  12.445   6.964   2.926
 6844SOL    HW122429  12.428   7.059   2.920
 6844SOL    HW222430  12.380   6.925   2.868
 6845SOL     OW22431   0.639   5.096   1.846
 6845SOL    HW122432   0.608   5.183   1.822
 6845SOL    HW222433   0.682   5.109   1.931
 6846SOL     OW22434  12.379  11.048  12.350
 6846SOL    HW122435  12.308  11.017  12.293
 6846SOL    HW222436  12.335  11.109  12.410
 6847SOL     OW22437   0.357   4.176   3.939
 6847SOL    HW122438   0.368   4.109   3.872
 6847SOL    HW222439   0.446   4.206   3.957
 6848SOL     OW22440   7.156   7.816  11.647
 6848SOL    HW122441   7.185   7.901  11.612
 6848SOL    HW222442   7.147   7.760  11.570
 6849SOL     OW22443   4.478   5.575   8.620
 6849SOL    HW122444   4.486   5.658   8.574
 6849SOL    HW222445   4.467   5.510   8.551
 6850SOL     OW22446   5.562   2.560   8.876
 6850SOL    HW122447   5.618   2.527   8.947
 6850SOL    HW222448   5.548   2.652   8.898
 6851SOL     OW22449   0.275  13.170   9.900
 6851SOL    HW122450   0.261  13.096   9.842
 6851SOL    HW222451   0.370  13.174   9.912
 6852SOL     OW22452   2.635   0.224   7.065
 6852SOL    HW122453   2.577   0.173   7.009
 6852SOL    HW222454   2.631   0.180   7.150
 6853SOL     OW22455  12.164  10.666   6.967
 6853SOL    HW122456  12.115  10.635   7.044
 6853SOL    HW222457  12.226  10.595   6.948
 6854SOL     OW22458   2.106   9.312  12.654
 6854SOL    HW122459   2.138   9.315  12.563
 6854SOL    HW222460   2.167   9.368  12.702
 6855SOL     OW22461   4.474   9.147   1.476
 6855SOL    HW122462   4.393   9.195   1.493
 6855SOL    HW222463   4.445   9.067   1.432
 6856SOL     OW22464   1.177   5.085   1.389
 6856SOL    HW122465   1.219   5.007   1.425
 6856SOL    HW222466   1.220   5.158   1.434
 6857SOL     OW22467   8.708  10.372   8.218
 6857SOL    HW122468   8.687  10.428   8.144
 6857SOL    HW222469   8.662  10.290   8.200
 6858SOL     OW22470   4.984  12.584   4.443
 6858SOL    HW122471   5.035  12.518   4.396
 6858SOL    HW222472   4.893  12.557   4.431
 6859SOL     OW22473  12.442   6.979   6.548
 6859SOL    HW122474  12.352   6.949   6.553
 6859SOL    HW222475  12.439   7.054   6.489
 6860SOL     OW22476   7.032  10.181   7.716
 6860SOL    HW122477   7.013  10.244   7.786
 6860SOL    HW222478   6.955  10.186   7.658
 6861SOL     OW22479  10.897  11.012  10.320
 6861SOL    HW122480  10.850  10.976  10.396
 6861SOL    HW222481  10.956  10.942  10.292
 6862SOL     OW22482  10.432   4.610   2.940
 6862SOL    HW122483  10.361   4.636   2.881
 6862SOL    HW222484  10.417   4.517   2.956
 6863SOL     OW22485   6.985  13.294  11.858
 6863SOL    HW122486   6.962  13.368  11.802
 6863SOL    HW222487   7.077  13.310  11.882
 6864SOL     OW22488   9.205  10.835  11.342
 6864SOL    HW122489   9.269  10.765  11.357
 6864SOL    HW222490   9.169  10.816  11.255
 6865SOL     OW22491   9.696   3.869  11.627
 6865SOL    HW122492   9.621   3.907  11.582
 6865SOL    HW222493   9.772   3.916  11.593
 6866SOL     OW22494  14.870  14.584   4.026
 6866SOL    HW122495  14.876  14.513   3.961
 6866SOL    HW222496   0.012  14.663   3.976
 6867SOL     OW22497   8.862  13.515   9.629
 6867SOL    HW122498   8.785  13.534   9.574
 6867SOL    HW222499   8.911  13.597   9.630
 6868SOL     OW22500   7.554   5.739   3.661
 6868SOL    HW122501   7.631   5.682   3.657
 6868SOL    HW222502   7.526   5.735   3.752
 6869SOL     OW22503   9.765   2.941   7.507
 6869SOL    HW122504   9.772   2.885   7.584
 6869SOL    HW222505   9.788   2.883   7.434
 6870SOL     OW22506  11.122   1.003  14.487
 6870SOL    HW122507  11.065   0.935  14.520
 6870SOL    HW222508  11.136   1.062  14.561
 6871SOL     OW22509   9.368   0.430  14.395
 6871SOL    HW122510   9.408   0.448  14.481
 6871SOL    HW222511   9.442   0.409  14.338
 6872SOL     OW22512   1.606   5.057   7.393
 6872SOL    HW122513   1.622   5.026   7.482
 6872SOL    HW222514   1.641   4.988   7.337
 6873SOL     OW22515   7.099   7.595   2.275
 6873SOL    HW122516   7.149   7.536   2.332
 6873SOL    HW222517   7.074   7.541   2.200
 6874SOL     OW22518   0.422  13.385   0.218
 6874SOL    HW122519   0.389  13.301   0.251
 6874SOL    HW222520   0.344  13.437   0.200
 6875SOL     OW22521  12.801  13.405   1.027
 6875SOL    HW122522  12.809  13.372   1.116
 6875SOL    HW222523  12.865  13.477   1.023
 6876SOL     OW22524  12.206  14.086  13.516
 6876SOL    HW122525  12.155  14.077  13.596
 6876SOL    HW222526  12.254  14.003  13.509
 6877SOL     OW22527  11.432   5.976   2.948
 6877SOL    HW122528  11.499   5.908   2.955
 6877SOL    HW222529  11.355   5.930   2.914
 6878SOL     OW22530   9.814   9.150  10.921
 6878SOL    HW122531   9.746   9.157  10.988
 6878SOL    HW222532   9.768   9.167  10.839
 6879SOL     OW22533   5.370  11.387   8.835
 6879SOL    HW122534   5.330  11.300   8.838
 6879SOL    HW222535   5.382  11.411   8.926
 6880SOL     OW22536  11.452  11.779   2.074
 6880SOL    HW122537  11.442  11.687   2.050
 6880SOL    HW222538  11.523  11.779   2.138
 6881SOL     OW22539   8.090   9.593  10.133
 6881SOL    HW122540   8.137   9.669  10.098
 6881SOL    HW222541   8.095   9.603  10.228
 6882SOL     OW22542   6.592   0.277   6.594
 6882SOL    HW122543   6.610   0.201   6.650
 6882SOL    HW222544   6.533   0.331   6.646
 6883SOL     OW22545   0.062  13.793  13.365
 6883SOL    HW122546   0.088  13.884  13.356
 6883SOL    HW222547   0.143  13.748  13.391
 6884SOL     OW22548  12.984   1.295   1.271
 6884SOL    HW122549  12.988   1.201   1.289
 6884SOL    HW222550  12.991   1.336   1.357
 6885SOL     OW22551   9.280   5.930  10.041
 6885SOL    HW122552   9.364   5.963  10.010
 6885SOL    HW222553   9.298   5.897  10.129
 6886SOL     OW22554   8.274   5.380  14.202
 6886SOL    HW122555   8.253   5.407  14.291
 6886SOL    HW222556   8.191   5.387  14.154
 6887SOL     OW22557   8.457   4.438   9.323
 6887SOL    HW122558   8.509   4.459   9.245
 6887SOL    HW222559   8.411   4.520   9.343
 6888SOL     OW22560   2.444  12.052   9.298
 6888SOL    HW122561   2.425  12.136   9.255
 6888SOL    HW222562   2.361  12.005   9.296
 6889SOL     OW22563   5.771   5.315   3.130
 6889SOL    HW122564   5.729   5.229   3.120
 6889SOL    HW222565   5.701   5.373   3.158
 6890SOL     OW22566  11.916   4.627  13.436
 6890SOL    HW122567  11.995   4.600  13.388
 6890SOL    HW222568  11.861   4.548  13.438
 6891SOL     OW22569   2.792   3.972   4.962
 6891SOL    HW122570   2.858   3.913   4.924
 6891SOL    HW222571   2.758   3.924   5.037
 6892SOL     OW22572   0.821   4.458   7.556
 6892SOL    HW122573   0.757   4.500   7.499
 6892SOL    HW222574   0.879   4.529   7.584
 6893SOL     OW22575   8.390   5.939   9.554
 6893SOL    HW122576   8.458   5.931   9.622
 6893SOL    HW222577   8.312   5.966   9.602
 6894SOL     OW22578   7.945  14.026  13.227
 6894SOL    HW122579   7.910  13.956  13.281
 6894SOL    HW222580   8.036  14.034  13.256
 6895SOL     OW22581   3.201  11.105  10.937
 6895SOL    HW122582   3.154  11.030  10.902
 6895SOL    HW222583   3.163  11.180  10.893
 6896SOL     OW22584   7.332  11.577   9.258
 6896SOL    HW122585   7.281  11.564   9.338
 6896SOL    HW222586   7.406  11.517   9.266
 6897SOL     OW22587   9.129   6.915   2.405
 6897SOL    HW122588   9.063   6.977   2.374
 6897SOL    HW222589   9.175   6.888   2.325
 6898SOL     OW22590   3.093   1.032   1.010
 6898SOL    HW122591   3.072   0.940   0.994
 6898SOL    HW222592   3.019   1.080   0.973
 6899SOL     OW22593  13.253  11.475   4.371
 6899SOL    HW122594  13.163  11.504   4.383
 6899SOL    HW222595  13.304  11.556   4.364
 6900SOL     OW22596   6.793   6.593  10.317
 6900SOL    HW122597   6.825   6.580  10.227
 6900SOL    HW222598   6.827   6.678  10.342
 6901SOL     OW22599   6.918  10.744   5.181
 6901SOL    HW122600   6.884  10.753   5.271
 6901SOL    HW222601   6.868  10.808   5.130
 6902SOL     OW22602   7.032  12.407   0.190
 6902SOL    HW122603   6.938  12.401   0.172
 6902SOL    HW222604   7.051  12.331   0.245
 6903SOL     OW22605  12.328  13.158  11.018
 6903SOL    HW122606  12.413  13.117  11.027
 6903SOL    HW222607  12.347  13.252  11.018
 6904SOL     OW22608  10.437   5.553  12.295
 6904SOL    HW122609  10.360   5.609  12.300
 6904SOL    HW222610  10.437   5.520  12.205
 6905SOL     OW22611  14.301   2.343   4.505
 6905SOL    HW122612  14.287   2.421   4.451
 6905SOL    HW222613  14.265   2.271   4.452
 6906SOL     OW22614   5.082   1.376   1.673
 6906SOL    HW122615   5.071   1.395   1.580
 6906SOL    HW222616   5.068   1.461   1.716
 6907SOL     OW22617   6.197  10.438   7.511
 6907SOL    HW122618   6.279  10.483   7.491
 6907SOL    HW222619   6.156  10.491   7.580
 6908SOL     OW22620   7.701   2.898   8.609
 6908SOL    HW122621   7.779   2.951   8.591
 6908SOL    HW222622   7.661   2.940   8.685
 6909SOL     OW22623  10.852   8.406  10.698
 6909SOL    HW122624  10.856   8.371  10.609
 6909SOL    HW222625  10.762   8.435  10.709
 6910SOL     OW22626   4.215  10.106  14.726
 6910SOL    HW122627   4.279  10.176  14.717
 6910SOL    HW222628   4.256  10.043  14.786
 6911SOL     OW22629   4.203   2.774   2.074
 6911SOL    HW122630   4.254   2.824   2.010
 6911SOL    HW222631   4.240   2.797   2.159
 6912SOL     OW22632   2.604   1.618  14.766
 6912SOL    HW122633   2.696   1.608  14.791
 6912SOL    HW222634   2.567   1.674  14.833
 6913SOL     OW22635   4.106  14.183  13.332
 6913SOL    HW122636   4.160  14.202  13.255
 6913SOL    HW222637   4.060  14.265  13.349
 6914SOL     OW22638  12.231   8.660   0.405
 6914SOL    HW122639  12.282   8.584   0.431
 6914SOL    HW222640  12.194   8.636   0.320
 6915SOL     OW22641   4.274   2.360   4.347
 6915SOL    HW122642   4.205   2.424   4.361
 6915SOL    HW222643   4.279   2.349   4.252
 6916SOL     OW22644  14.640   1.770   7.518
 6916SOL    HW122645  14.669   1.693   7.470
 6916SOL    HW222646  14.708   1.836   7.501
 6917SOL     OW22647   9.694   0.640   3.123
 6917SOL    HW122648   9.600   0.622   3.120
 6917SOL    HW222649   9.705   0.716   3.067
 6918SOL     OW22650   9.714   6.091   7.983
 6918SOL    HW122651   9.783   6.124   8.040
 6918SOL    HW222652   9.633   6.121   8.024
 6919SOL     OW22653   9.648   0.680   7.621
 6919SOL    HW122654   9.555   0.697   7.614
 6919SOL    HW222655   9.677   0.662   7.532
 6920SOL     OW22656   7.859   4.056   4.922
 6920SOL    HW122657   7.764   4.056   4.909
 6920SOL    HW222658   7.881   3.965   4.940
 6921SOL     OW22659   0.875   1.053   7.219
 6921SOL    HW122660   0.922   1.105   7.154
 6921SOL    HW222661   0.897   1.094   7.303
 6922SOL     OW22662  13.462  14.641   0.022
 6922SOL    HW122663  13.510  14.560   0.041
 6922SOL    HW222664  13.427  14.669   0.107
 6923SOL     OW22665  14.402   1.049   5.959
 6923SOL    HW122666  14.424   1.056   6.052
 6923SOL    HW222667  14.459   0.979   5.926
 6924SOL     OW22668   1.034   8.335  12.676
 6924SOL    HW122669   1.070   8.315  12.589
 6924SOL    HW222670   1.001   8.251  12.708
 6925SOL     OW22671  12.800   4.152   6.406
 6925SOL    HW122672  12.806   4.132   6.499
 6925SOL    HW222673  12.718   4.111   6.377
 6926SOL     OW22674   8.068  10.791  13.510
 6926SOL    HW122675   8.063  10.847  13.432
 6926SOL    HW222676   8.068  10.853  13.583
 6927SOL     OW22677   9.344  11.526  10.927
 6927SOL    HW122678   9.418  11.487  10.881
 6927SOL    HW222679   9.373  11.529  11.019
 6928SOL     OW22680   3.641   5.901   9.551
 6928SOL    HW122681   3.594   5.945   9.622
 6928SOL    HW222682   3.702   5.842   9.597
 6929SOL     OW22683   7.659   1.895  10.274
 6929SOL    HW122684   7.595   1.876  10.342
 6929SOL    HW222685   7.737   1.923  10.321
 6930SOL     OW22686   8.425   3.648   2.308
 6930SOL    HW122687   8.401   3.740   2.319
 6930SOL    HW222688   8.424   3.634   2.213
 6931SOL     OW22689   1.844   8.765   1.655
 6931SOL    HW122690   1.853   8.682   1.608
 6931SOL    HW222691   1.881   8.830   1.595
 6932SOL     OW22692  11.408   5.744   7.175
 6932SOL    HW122693  11.491   5.696   7.171
 6932SOL    HW222694  11.343   5.679   7.149
 6933SOL     OW22695   7.012   3.335   1.798
 6933SOL    HW122696   6.930   3.379   1.779
 6933SOL    HW222697   7.039   3.370   1.883
 6934SOL     OW22698  12.014   4.033   0.530
 6934SOL    HW122699  12.073   3.964   0.561
 6934SOL    HW222700  11.926   3.994   0.536
 6935SOL     OW22701   2.271   4.595   7.338
 6935SOL    HW122702   2.280   4.654   7.413
 6935SOL    HW222703   2.311   4.513   7.367
 6936SOL     OW22704  12.250  14.524   8.273
 6936SOL    HW122705  12.335  14.562   8.292
 6936SOL    HW222706  12.255  14.434   8.305
 6937SOL     OW22707   4.540   5.474   7.730
 6937SOL    HW122708   4.611   5.410   7.725
 6937SOL    HW222709   4.558   5.536   7.660
 6938SOL     OW22710   5.807   4.446   0.616
 6938SOL    HW122711   5.808   4.488   0.702
 6938SOL    HW222712   5.876   4.380   0.622
 6939SOL     OW22713  11.470   9.234   5.754
 6939SOL    HW122714  11.431   9.152   5.786
 6939SOL    HW222715  11.444   9.299   5.819
 6940SOL     OW22716  10.355  14.176  12.423
 6940SOL    HW122717  10.447  14.152  12.431
 6940SOL    HW222718  10.307  14.095  12.441
 6941SOL     OW22719  11.187   8.998   5.476
 6941SOL    HW122720  11.201   9.069   5.414
 6941SOL    HW222721  11.094   9.004   5.498
 6942SOL     OW22722   1.888  11.934  12.232
 6942SOL    HW122723   1.922  12.022  12.219
 6942SOL    HW222724   1.924  11.907  12.317
 6943SOL     OW22725   9.151  14.840   3.944
 6943SOL    HW122726   9.060  14.835   3.971
 6943SOL    HW222727   9.150  14.818   3.851
 6944SOL     OW22728   3.933   9.125   0.659
 6944SOL    HW122729   3.860   9.182   0.681
 6944SOL    HW222730   4.010   9.181   0.664
 6945SOL     OW22731  14.447  10.168   6.556
 6945SOL    HW122732  14.498  10.173   6.637
 6945SOL    HW222733  14.364  10.210   6.577
 6946SOL     OW22734   0.923  11.045  13.676
 6946SOL    HW122735   0.919  11.066  13.769
 6946SOL    HW222736   1.016  11.045  13.655
 6947SOL     OW22737   8.916  13.436   0.719
 6947SOL    HW122738   8.866  13.476   0.648
 6947SOL    HW222739   8.986  13.387   0.675
 6948SOL     OW22740   1.230   4.118   5.492
 6948SOL    HW122741   1.138   4.098   5.476
 6948SOL    HW222742   1.243   4.096   5.584
 6949SOL     OW22743  13.187   1.207  12.254
 6949SOL    HW122744  13.133   1.235  12.180
 6949SOL    HW222745  13.151   1.254  12.329
 6950SOL     OW22746   3.664  10.625  14.140
 6950SOL    HW122747   3.752  10.595  14.117
 6950SOL    HW222748   3.625  10.552  14.188
 6951SOL     OW22749   3.379   3.074   4.729
 6951SOL    HW122750   3.339   3.070   4.816
 6951SOL    HW222751   3.464   3.114   4.743
 6952SOL     OW22752  12.155  14.854   6.222
 6952SOL    HW122753  12.166   0.053   6.170
 6952SOL    HW222754  12.071  14.865   6.267
 6953SOL     OW22755   4.984   4.082  11.534
 6953SOL    HW122756   5.014   4.030  11.609
 6953SOL    HW222757   5.027   4.042  11.459
 6954SOL     OW22758   4.188  14.481  14.267
 6954SOL    HW122759   4.266  14.426  14.274
 6954SOL    HW222760   4.129  14.433  14.210
 6955SOL     OW22761   4.717   7.829   9.392
 6955SOL    HW122762   4.643   7.881   9.361
 6955SOL    HW222763   4.793   7.886   9.380
 6956SOL     OW22764   3.517   8.656   1.591
 6956SOL    HW122765   3.581   8.722   1.617
 6956SOL    HW222766   3.443   8.706   1.556
 6957SOL     OW22767   5.343   5.692  12.885
 6957SOL    HW122768   5.351   5.737  12.969
 6957SOL    HW222769   5.302   5.608  12.907
 6958SOL     OW22770   3.869  10.509   7.577
 6958SOL    HW122771   3.822  10.441   7.529
 6958SOL    HW222772   3.956  10.473   7.591
 6959SOL     OW22773  13.314   9.744   6.744
 6959SOL    HW122774  13.356   9.703   6.669
 6959SOL    HW222775  13.220   9.741   6.725
 6960SOL     OW22776  12.239   9.323   5.761
 6960SOL    HW122777  12.172   9.383   5.727
 6960SOL    HW222778  12.320   9.373   5.760
 6961SOL     OW22779   6.040   7.825   5.664
 6961SOL    HW122780   5.976   7.880   5.618
 6961SOL    HW222781   5.988   7.751   5.697
 6962SOL     OW22782   4.899  13.002  10.354
 6962SOL    HW122783   4.959  13.069  10.319
 6962SOL    HW222784   4.816  13.049  10.366
 6963SOL     OW22785  10.406   3.560  13.358
 6963SOL    HW122786  10.459   3.579  13.281
 6963SOL    HW222787  10.438   3.476  13.389
 6964SOL     OW22788  14.096   9.977   8.155
 6964SOL    HW122789  14.073  10.053   8.209
 6964SOL    HW222790  14.175  10.004   8.108
 6965SOL     OW22791   7.755  14.603  11.672
 6965SOL    HW122792   7.780  14.511  11.664
 6965SOL    HW222793   7.666  14.600  11.707
 6966SOL     OW22794   3.460   0.578   8.762
 6966SOL    HW122795   3.517   0.510   8.725
 6966SOL    HW222796   3.504   0.605   8.842
 6967SOL     OW22797   9.710   1.016   9.837
 6967SOL    HW122798   9.678   1.012   9.927
 6967SOL    HW222799   9.630   1.016   9.784
 6968SOL     OW22800   5.199   9.622   0.667
 6968SOL    HW122801   5.284   9.615   0.710
 6968SOL    HW222802   5.184   9.536   0.628
 6969SOL     OW22803   1.569  11.741   0.980
 6969SOL    HW122804   1.608  11.828   0.981
 6969SOL    HW222805   1.586  11.708   0.892
 6970SOL     OW22806   5.154   9.909  12.964
 6970SOL    HW122807   5.236   9.934  12.921
 6970SOL    HW222808   5.179   9.842  13.028
 6971SOL     OW22809   0.836  13.555   9.021
 6971SOL    HW122810   0.786  13.528   9.098
 6971SOL    HW222811   0.854  13.474   8.974
 6972SOL     OW22812   4.528   6.191  12.210
 6972SOL    HW122813   4.550   6.134  12.284
 6972SOL    HW222814   4.445   6.156  12.177
 6973SOL     OW22815  11.495   4.333   3.635
 6973SOL    HW122816  11.403   4.310   3.649
 6973SOL    HW222817  11.524   4.363   3.721
 6974SOL     OW22818  14.004  10.198   9.205
 6974SOL    HW122819  14.045  10.249   9.274
 6974SOL    HW222820  13.932  10.152   9.248
 6975SOL     OW22821   6.698   0.007   7.308
 6975SOL    HW122822   6.778   0.047   7.274
 6975SOL    HW222823   6.710  14.793   7.293
 6976SOL     OW22824   2.076   2.896   2.139
 6976SOL    HW122825   2.087   2.852   2.055
 6976SOL    HW222826   2.005   2.959   2.124
 6977SOL     OW22827  14.749   6.823  14.003
 6977SOL    HW122828  14.694   6.875  14.062
 6977SOL    HW222829  14.725   6.732  14.023
 6978SOL     OW22830   4.659   3.417   7.551
 6978SOL    HW122831   4.568   3.399   7.575
 6978SOL    HW222832   4.653   3.486   7.485
 6979SOL     OW22833   4.526   9.982  11.457
 6979SOL    HW122834   4.516  10.047  11.387
 6979SOL    HW222835   4.619   9.964  11.461
 6980SOL     OW22836  13.635   6.726  13.625
 6980SOL    HW122837  13.725   6.753  13.640
 6980SOL    HW222838  13.628   6.716  13.530
 6981SOL     OW22839   4.040   5.738   1.237
 6981SOL    HW122840   4.070   5.667   1.182
 6981SOL    HW222841   4.085   5.816   1.204
 6982SOL     OW22842   1.407  12.366   8.693
 6982SOL    HW122843   1.344  12.294   8.702
 6982SOL    HW222844   1.439  12.381   8.782
 6983SOL     OW22845   1.181   2.139   0.782
 6983SOL    HW122846   1.225   2.067   0.827
 6983SOL    HW222847   1.214   2.134   0.692
 6984SOL     OW22848  12.486   3.097  14.688
 6984SOL    HW122849  12.535   3.055  14.759
 6984SOL    HW222850  12.504   3.191  14.699
 6985SOL     OW22851  14.829   8.487   0.009
 6985SOL    HW122852  14.836   8.441   0.092
 6985SOL    HW222853  14.748   8.538   0.016
 6986SOL     OW22854   0.960   9.569   0.876
 6986SOL    HW122855   0.904   9.521   0.815
 6986SOL    HW222856   1.049   9.556   0.843
 6987SOL     OW22857   8.147   3.418   8.691
 6987SOL    HW122858   8.075   3.426   8.754
 6987SOL    HW222859   8.103   3.402   8.607
 6988SOL     OW22860   2.001  13.865   4.125
 6988SOL    HW122861   2.078  13.888   4.177
 6988SOL    HW222862   1.942  13.940   4.136
 6989SOL     OW22863  14.494   1.339  14.052
 6989SOL    HW122864  14.500   1.260  14.106
 6989SOL    HW222865  14.435   1.397  14.100
 6990SOL     OW22866   6.884  14.714   6.955
 6990SOL    HW122867   6.804  14.674   6.921
 6990SOL    HW222868   6.926  14.751   6.877
 6991SOL     OW22869   6.633  11.938   9.943
 6991SOL    HW122870   6.598  11.896  10.021
 6991SOL    HW222871   6.577  11.908   9.872
 6992SOL     OW22872   0.927   0.925   0.908
 6992SOL    HW122873   0.898   0.925   0.999
 6992SOL    HW222874   0.868   0.986   0.864
 6993SOL     OW22875  13.965  14.576  14.280
 6993SOL    HW122876  13.881  14.566  14.235
 6993SOL    HW222877  13.943  14.584  14.372
 6994SOL     OW22878   8.236   4.512   6.794
 6994SOL    HW122879   8.251   4.556   6.711
 6994SOL    HW222880   8.305   4.447   6.800
 6995SOL     OW22881  10.967   8.235  11.884
 6995SOL    HW122882  11.044   8.194  11.925
 6995SOL    HW222883  10.897   8.224  11.949
 6996SOL     OW22884   0.209   1.112   2.771
 6996SOL    HW122885   0.203   1.019   2.791
 6996SOL    HW222886   0.163   1.155   2.843
 6997SOL     OW22887  12.610  13.953   2.353
 6997SOL    HW122888  12.706  13.947   2.346
 6997SOL    HW222889  12.592  14.047   2.345
 6998SOL     OW22890   7.162   3.338  10.895
 6998SOL    HW122891   7.190   3.253  10.929
 6998SOL    HW222892   7.126   3.319  10.809
 6999SOL     OW22893  14.817   2.378  14.680
 6999SOL    HW122894   0.017   2.394  14.731
 6999SOL    HW222895  14.848   2.327  14.604
 7000SOL     OW22896  10.084   3.268   3.648
 7000SOL    HW122897  10.097   3.350   3.696
 7000SOL    HW222898  10.113   3.288   3.559
 7001SOL     OW22899   4.279   1.850   5.778
 7001SOL    HW122900   4.266   1.938   5.813
 7001SOL    HW222901   4.197   1.805   5.797
 7002SOL     OW22902   7.594   7.423  11.736
 7002SOL    HW122903   7.582   7.447  11.828
 7002SOL    HW222904   7.592   7.507  11.689
 7003SOL     OW22905   5.625   5.699   6.951
 7003SOL    HW122906   5.561   5.747   7.003
 7003SOL    HW222907   5.650   5.759   6.881
 7004SOL     OW22908  11.487  10.136   6.574
 7004SOL    HW122909  11.428  10.207   6.547
 7004SOL    HW222910  11.574  10.165   6.544
 7005SOL     OW22911   7.431  12.614   6.072
 7005SOL    HW122912   7.342  12.581   6.059
 7005SOL    HW222913   7.487  12.545   6.036
 7006SOL     OW22914   1.540  10.050   3.707
 7006SOL    HW122915   1.522   9.965   3.746
 7006SOL    HW222916   1.464  10.069   3.652
 7007SOL     OW22917  13.860   9.698   8.599
 7007SOL    HW122918  13.875   9.793   8.593
 7007SOL    HW222919  13.899   9.663   8.520
 7008SOL     OW22920   9.498   5.980  13.052
 7008SOL    HW122921   9.475   5.982  13.145
 7008SOL    HW222922   9.421   5.943  13.009
 7009SOL     OW22923   8.914  12.711   1.719
 7009SOL    HW122924   8.933  12.767   1.644
 7009SOL    HW222925   8.994  12.660   1.732
 7010SOL     OW22926  10.939   4.764   4.592
 7010SOL    HW122927  11.025   4.727   4.614
 7010SOL    HW222928  10.944   4.781   4.498
 7011SOL     OW22929  14.563  11.048   8.613
 7011SOL    HW122930  14.597  10.963   8.640
 7011SOL    HW222931  14.601  11.110   8.675
 7012SOL     OW22932   0.601   8.728   1.893
 7012SOL    HW122933   0.508   8.749   1.901
 7012SOL    HW222934   0.646   8.809   1.918
 7013SOL     OW22935   6.666   1.670   9.529
 7013SOL    HW122936   6.654   1.599   9.592
 7013SOL    HW222937   6.732   1.727   9.569
 7014SOL     OW22938  12.647   7.430   7.434
 7014SOL    HW122939  12.671   7.521   7.453
 7014SOL    HW222940  12.555   7.434   7.407
 7015SOL     OW22941   0.053   6.590   0.822
 7015SOL    HW122942   0.012   6.574   0.737
 7015SOL    HW222943   0.061   6.503   0.862
 7016SOL     OW22944   1.450  13.457   3.819
 7016SOL    HW122945   1.377  13.399   3.801
 7016SOL    HW222946   1.413  13.525   3.877
 7017SOL     OW22947  13.940  13.196   5.907
 7017SOL    HW122948  13.854  13.197   5.949
 7017SOL    HW222949  14.000  13.168   5.977
 7018SOL     OW22950   9.360   1.576   0.102
 7018SOL    HW122951   9.315   1.567   0.018
 7018SOL    HW222952   9.293   1.552   0.167
 7019SOL     OW22953   5.555   8.269   9.185
 7019SOL    HW122954   5.533   8.190   9.234
 7019SOL    HW222955   5.651   8.271   9.183
 7020SOL     OW22956  13.186  12.394  13.727
 7020SOL    HW122957  13.258  12.453  13.750
 7020SOL    HW222958  13.113  12.422  13.782
 7021SOL     OW22959  10.898   9.348   9.475
 7021SOL    HW122960  10.903   9.443   9.468
 7021SOL    HW222961  10.960   9.325   9.545
 7022SOL     OW22962  13.559  14.850  12.797
 7022SOL    HW122963  13.524   0.024  12.869
 7022SOL    HW222964  13.487  14.846  12.734
 7023SOL     OW22965  13.370   5.903   8.835
 7023SOL    HW122966  13.283   5.874   8.809
 7023SOL    HW222967  13.355   5.959   8.911
 7024SOL     OW22968  13.723  12.823   9.527
 7024SOL    HW122969  13.629  12.828   9.512
 7024SOL    HW222970  13.757  12.907   9.498
 7025SOL     OW22971   2.203   0.471   3.040
 7025SOL    HW122972   2.117   0.480   2.999
 7025SOL    HW222973   2.221   0.557   3.078
 7026SOL     OW22974  13.072   4.054  12.990
 7026SOL    HW122975  13.057   4.128  13.048
 7026SOL    HW222976  13.157   4.019  13.017
 7027SOL     OW22977  11.539  11.868   9.095
 7027SOL    HW122978  11.576  11.943   9.048
 7027SOL    HW222979  11.509  11.904   9.178
 7028SOL     OW22980   1.083   2.035   3.006
 7028SOL    HW122981   1.128   1.960   3.044
 7028SOL    HW222982   1.061   2.007   2.917
 7029SOL     OW22983  12.068  11.740  11.264
 7029SOL    HW122984  12.065  11.655  11.308
 7029SOL    HW222985  12.111  11.722  11.180
 7030SOL     OW22986   7.421  11.339  11.488
 7030SOL    HW122987   7.427  11.268  11.552
 7030SOL    HW222988   7.327  11.348  11.471
 7031SOL     OW22989  13.705   0.761   4.161
 7031SOL    HW122990  13.777   0.747   4.100
 7031SOL    HW222991  13.656   0.834   4.124
 7032SOL     OW22992   8.969  14.008   1.744
 7032SOL    HW122993   8.915  14.058   1.805
 7032SOL    HW222994   9.058  14.014   1.779
 7033SOL     OW22995  11.739   1.038   1.863
 7033SOL    HW122996  11.775   1.117   1.903
 7033SOL    HW222997  11.661   1.018   1.915
 7034SOL     OW22998   1.978  10.300  11.353
 7034SOL    HW122999   2.044  10.240  11.388
 7034SOL    HW223000   1.955  10.356  11.426
 7035SOL     OW23001   0.410  13.095   6.136
 7035SOL    HW123002   0.354  13.039   6.188
 7035SOL    HW223003   0.498  13.079   6.169
 7036SOL     OW23004  10.067   0.522   0.687
 7036SOL    HW123005  10.111   0.552   0.608
 7036SOL    HW223006  10.080   0.427   0.687
 7037SOL     OW23007  10.269   1.187   7.545
 7037SOL    HW123008  10.307   1.124   7.607
 7037SOL    HW223009  10.316   1.170   7.463
 7038SOL     OW23010   9.544   8.230   8.325
 7038SOL    HW123011   9.575   8.195   8.242
 7038SOL    HW223012   9.471   8.173   8.350
 7039SOL     OW23013  10.467  11.676  13.066
 7039SOL    HW123014  10.423  11.604  13.111
 7039SOL    HW223015  10.560  11.663  13.084
 7040SOL     OW23016   7.844  14.620   2.960
 7040SOL    HW123017   7.870  14.654   3.045
 7040SOL    HW223018   7.756  14.586   2.974
 7041SOL     OW23019   4.798  13.038   5.627
 7041SOL    HW123020   4.739  12.963   5.625
 7041SOL    HW223021   4.886  13.000   5.631
 7042SOL     OW23022   0.595  11.009   1.405
 7042SOL    HW123023   0.627  10.923   1.429
 7042SOL    HW223024   0.576  11.002   1.311
 7043SOL     OW23025  12.332   1.182   5.539
 7043SOL    HW123026  12.310   1.243   5.610
 7043SOL    HW223027  12.362   1.103   5.583
 7044SOL     OW23028   3.499   5.013   1.010
 7044SOL    HW123029   3.521   4.976   0.924
 7044SOL    HW223030   3.547   4.957   1.072
 7045SOL     OW23031  12.910  13.538   5.825
 7045SOL    HW123032  13.001  13.566   5.814
 7045SOL    HW223033  12.915  13.443   5.838
 7046SOL     OW23034   3.658   7.321   6.948
 7046SOL    HW123035   3.624   7.258   7.011
 7046SOL    HW223036   3.749   7.294   6.934
 7047SOL     OW23037   9.160   2.257   0.319
 7047SOL    HW123038   9.084   2.266   0.262
 7047SOL    HW223039   9.164   2.340   0.366
 7048SOL     OW23040   5.876   6.552   8.254
 7048SOL    HW123041   5.951   6.494   8.264
 7048SOL    HW223042   5.896   6.628   8.308
 7049SOL     OW23043   2.950   2.172   9.670
 7049SOL    HW123044   2.855   2.175   9.684
 7049SOL    HW223045   2.981   2.256   9.705
 7050SOL     OW23046   2.170   2.801   8.758
 7050SOL    HW123047   2.138   2.714   8.732
 7050SOL    HW223048   2.138   2.860   8.689
 7051SOL     OW23049  14.223  12.814   4.330
 7051SOL    HW123050  14.146  12.764   4.358
 7051SOL    HW223051  14.191  12.903   4.316
 7052SOL     OW23052  13.977  13.881   3.693
 7052SOL    HW123053  13.985  13.975   3.713
 7052SOL    HW223054  14.007  13.873   3.603
 7053SOL     OW23055  14.067  11.642   9.217
 7053SOL    HW123056  14.023  11.570   9.262
 7053SOL    HW223057  14.029  11.642   9.129
 7054SOL     OW23058   8.950   7.734   6.302
 7054SOL    HW123059   8.986   7.816   6.267
 7054SOL    HW223060   8.912   7.691   6.225
 7055SOL     OW23061  14.544   6.658  12.602
 7055SOL    HW123062  14.577   6.665  12.692
 7055SOL    HW223063  14.612   6.610  12.556
 7056SOL     OW23064   0.787   7.339  12.556
 7056SOL    HW123065   0.715   7.302  12.606
 7056SOL    HW223066   0.866   7.307  12.600
 7057SOL     OW23067   9.937  14.400   2.756
 7057SOL    HW123068   9.909  14.448   2.678
 7057SOL    HW223069  10.031  14.417   2.763
 7058SOL     OW23070   6.779  14.498  13.163
 7058SOL    HW123071   6.868  14.500  13.199
 7058SOL    HW223072   6.771  14.578  13.112
 7059SOL     OW23073   6.471   2.736   3.625
 7059SOL    HW123074   6.523   2.673   3.574
 7059SOL    HW223075   6.417   2.780   3.559
 7060SOL     OW23076   2.117   8.084   4.046
 7060SOL    HW123077   2.165   8.023   4.102
 7060SOL    HW223078   2.168   8.088   3.965
 7061SOL     OW23079  14.150   1.838  12.236
 7061SOL    HW123080  14.159   1.853  12.142
 7061SOL    HW223081  14.059   1.810  12.247
 7062SOL     OW23082  14.596   1.796   3.715
 7062SOL    HW123083  14.565   1.749   3.638
 7062SOL    HW223084  14.544   1.759   3.787
 7063SOL     OW23085   6.164   5.470   7.535
 7063SOL    HW123086   6.240   5.415   7.550
 7063SOL    HW223087   6.121   5.432   7.458
 7064SOL     OW23088   4.205   3.969   9.328
 7064SOL    HW123089   4.202   3.945   9.236
 7064SOL    HW223090   4.297   3.989   9.345
 7065SOL     OW23091   2.466   4.988   9.734
 7065SOL    HW123092   2.465   4.998   9.639
 7065SOL    HW223093   2.377   4.961   9.757
 7066SOL     OW23094   7.396   1.950  13.720
 7066SOL    HW123095   7.466   1.986  13.774
 7066SOL    HW223096   7.368   1.871  13.767
 7067SOL     OW23097  14.038  13.510   0.109
 7067SOL    HW123098  13.949  13.505   0.072
 7067SOL    HW223099  14.024  13.512   0.204
 7068SOL     OW23100   4.591   9.636   2.261
 7068SOL    HW123101   4.624   9.674   2.342
 7068SOL    HW223102   4.651   9.563   2.242
 7069SOL     OW23103   9.491  10.351   3.527
 7069SOL    HW123104   9.577  10.389   3.548
 7069SOL    HW223105   9.476  10.286   3.596
 7070SOL     OW23106  10.867   1.162  10.931
 7070SOL    HW123107  10.955   1.184  10.899
 7070SOL    HW223108  10.830   1.106  10.863
 7071SOL     OW23109   3.521   3.641   2.661
 7071SOL    HW123110   3.505   3.564   2.716
 7071SOL    HW223111   3.468   3.710   2.701
 7072SOL     OW23112  10.259   0.136  14.572
 7072SOL    HW123113  10.182   0.173  14.615
 7072SOL    HW223114  10.260   0.045  14.600
 7073SOL     OW23115  13.173   3.668  10.020
 7073SOL    HW123116  13.133   3.676  10.107
 7073SOL    HW223117  13.100   3.673   9.959
 7074SOL     OW23118   0.204   0.721   0.261
 7074SOL    HW123119   0.212   0.795   0.321
 7074SOL    HW223120   0.194   0.645   0.318
 7075SOL     OW23121  14.859   9.732  12.583
 7075SOL    HW123122   0.004   9.655  12.531
 7075SOL    HW223123   0.051   9.741  12.646
 7076SOL     OW23124   1.439   9.967   1.055
 7076SOL    HW123125   1.449  10.042   1.113
 7076SOL    HW223126   1.501   9.984   0.984
 7077SOL     OW23127   6.314   0.668  11.061
 7077SOL    HW123128   6.378   0.692  10.994
 7077SOL    HW223129   6.243   0.731  11.051
 7078SOL     OW23130   4.826   6.542  11.773
 7078SOL    HW123131   4.805   6.457  11.735
 7078SOL    HW223132   4.790   6.605  11.710
 7079SOL     OW23133  12.030  10.642   1.614
 7079SOL    HW123134  12.037  10.695   1.535
 7079SOL    HW223135  11.971  10.691   1.671
 7080SOL     OW23136   8.084   5.397  13.771
 7080SOL    HW123137   8.086   5.312  13.727
 7080SOL    HW223138   8.023   5.450  13.719
 7081SOL     OW23139   9.663  11.099  12.678
 7081SOL    HW123140   9.657  11.139  12.592
 7081SOL    HW223141   9.620  11.162  12.737
 7082SOL     OW23142   9.286  12.222   2.982
 7082SOL    HW123143   9.263  12.314   2.990
 7082SOL    HW223144   9.204  12.178   2.960
 7083SOL     OW23145  13.774   3.597   5.270
 7083SOL    HW123146  13.841   3.531   5.252
 7083SOL    HW223147  13.822   3.680   5.269
 7084SOL     OW23148   9.572   2.644   4.604
 7084SOL    HW123149   9.507   2.683   4.662
 7084SOL    HW223150   9.586   2.710   4.536
 7085SOL     OW23151   8.979  10.578   8.269
 7085SOL    HW123152   8.932  10.515   8.324
 7085SOL    HW223153   8.913  10.643   8.245
 7086SOL     OW23154  13.679  13.325   9.113
 7086SOL    HW123155  13.652  13.304   9.024
 7086SOL    HW223156  13.610  13.382   9.146
 7087SOL     OW23157  10.837   6.386   4.602
 7087SOL    HW123158  10.821   6.333   4.524
 7087SOL    HW223159  10.751   6.394   4.643
 7088SOL     OW23160  13.732   8.580  10.013
 7088SOL    HW123161  13.641   8.597  10.036
 7088SOL    HW223162  13.781   8.592  10.095
 7089SOL     OW23163   8.577   3.272  13.294
 7089SOL    HW123164   8.531   3.193  13.264
 7089SOL    HW223165   8.610   3.248  13.381
 7090SOL     OW23166   3.622   2.355   2.903
 7090SOL    HW123167   3.587   2.266   2.908
 7090SOL    HW223168   3.584   2.399   2.979
 7091SOL     OW23169  11.298   8.032   5.193
 7091SOL    HW123170  11.246   8.066   5.265
 7091SOL    HW223171  11.250   8.057   5.114
 7092SOL     OW23172  14.269   7.716   4.421
 7092SOL    HW123173  14.182   7.749   4.401
 7092SOL    HW223174  14.262   7.621   4.410
 7093SOL     OW23175   0.899   2.788  10.380
 7093SOL    HW123176   0.862   2.872  10.355
 7093SOL    HW223177   0.974   2.776  10.322
 7094SOL     OW23178  13.920   7.165   3.545
 7094SOL    HW123179  13.987   7.233   3.533
 7094SOL    HW223180  13.933   7.135   3.635
 7095SOL     OW23181   8.615   4.549   7.155
 7095SOL    HW123182   8.621   4.471   7.210
 7095SOL    HW223183   8.535   4.592   7.183
 7096SOL     OW23184   4.344   5.181   2.185
 7096SOL    HW123185   4.318   5.204   2.274
 7096SOL    HW223186   4.439   5.177   2.187
 7097SOL     OW23187  14.455  12.096  14.371
 7097SOL    HW123188  14.409  12.178  14.387
 7097SOL    HW223189  14.533  12.101  14.426
 7098SOL     OW23190   0.802   5.829  10.691
 7098SOL    HW123191   0.875   5.807  10.750
 7098SOL    HW223192   0.763   5.907  10.730
 7099SOL     OW23193   4.005   5.311   0.279
 7099SOL    HW123194   4.058   5.384   0.245
 7099SOL    HW223195   3.965   5.346   0.359
 7100SOL     OW23196  14.242   4.525   2.364
 7100SOL    HW123197  14.174   4.574   2.411
 7100SOL    HW223198  14.290   4.593   2.315
 7101SOL     OW23199   9.173   1.648  10.523
 7101SOL    HW123200   9.129   1.697  10.592
 7101SOL    HW223201   9.124   1.668  10.444
 7102SOL     OW23202   0.675   0.538   5.475
 7102SOL    HW123203   0.618   0.501   5.542
 7102SOL    HW223204   0.707   0.620   5.513
 7103SOL     OW23205   9.181  14.237  10.836
 7103SOL    HW123206   9.189  14.174  10.764
 7103SOL    HW223207   9.164  14.183  10.913
 7104SOL     OW23208   2.189  11.606   7.890
 7104SOL    HW123209   2.283  11.626   7.887
 7104SOL    HW223210   2.185  11.516   7.924
 7105SOL     OW23211   3.168  10.702   2.270
 7105SOL    HW123212   3.077  10.699   2.298
 7105SOL    HW223213   3.171  10.774   2.206
 7106SOL     OW23214  13.586   7.743   7.256
 7106SOL    HW123215  13.642   7.679   7.300
 7106SOL    HW223216  13.504   7.741   7.305
 7107SOL     OW23217   5.991   2.691   4.798
 7107SOL    HW123218   6.009   2.776   4.758
 7107SOL    HW223219   5.920   2.708   4.860
 7108SOL     OW23220   1.828   2.299   8.453
 7108SOL    HW123221   1.903   2.246   8.424
 7108SOL    HW223222   1.845   2.313   8.547
 7109SOL     OW23223  10.079   3.652  14.575
 7109SOL    HW123224  10.091   3.660  14.480
 7109SOL    HW223225  10.138   3.718  14.612
 7110SOL     OW23226  14.672   9.784   6.908
 7110SOL    HW123227  14.627   9.853   6.956
 7110SOL    HW223228  14.760   9.783   6.945
 7111SOL     OW23229   9.587  11.118   8.875
 7111SOL    HW123230   9.680  11.128   8.898
 7111SOL    HW223231   9.565  11.198   8.826
 7112SOL     OW23232   8.481   3.507   8.195
 7112SOL    HW123233   8.560   3.456   8.181
 7112SOL    HW223234   8.476   3.566   8.121
 7113SOL     OW23235   5.578   0.944  13.611
 7113SOL    HW123236   5.503   0.885  13.618
 7113SOL    HW223237   5.622   0.919  13.530
 7114SOL     OW23238   5.540  12.277   8.639
 7114SOL    HW123239   5.575  12.246   8.723
 7114SOL    HW223240   5.505  12.198   8.597
 7115SOL     OW23241   3.898   8.367   4.264
 7115SOL    HW123242   3.851   8.305   4.208
 7115SOL    HW223243   3.990   8.340   4.258
 7116SOL     OW23244  14.064   4.700  14.643
 7116SOL    HW123245  13.976   4.669  14.621
 7116SOL    HW223246  14.121   4.654  14.582
 7117SOL     OW23247   3.041  11.944   4.171
 7117SOL    HW123248   3.003  12.031   4.184
 7117SOL    HW223249   3.090  11.952   4.089
 7118SOL     OW23250   2.411   9.826   0.404
 7118SOL    HW123251   2.389   9.771   0.329
 7118SOL    HW223252   2.374   9.912   0.382
 7119SOL     OW23253   4.189   8.178   1.816
 7119SOL    HW123254   4.248   8.109   1.787
 7119SOL    HW223255   4.227   8.259   1.781
 7120SOL     OW23256  12.198  10.721   2.837
 7120SOL    HW123257  12.153  10.756   2.760
 7120SOL    HW223258  12.153  10.759   2.912
 7121SOL     OW23259  12.684   9.924   3.317
 7121SOL    HW123260  12.633   9.926   3.399
 7121SOL    HW223261  12.774   9.939   3.345
 7122SOL     OW23262   7.201  11.250   2.693
 7122SOL    HW123263   7.108  11.234   2.707
 7122SOL    HW223264   7.230  11.292   2.774
 7123SOL     OW23265   6.181   5.046  14.817
 7123SOL    HW123266   6.170   5.052  14.722
 7123SOL    HW223267   6.096   5.072  14.852
 7124SOL     OW23268   7.352   2.904   8.428
 7124SOL    HW123269   7.381   2.981   8.476
 7124SOL    HW223270   7.428   2.847   8.424
 7125SOL     OW23271  13.381  14.144   5.643
 7125SOL    HW123272  13.365  14.235   5.669
 7125SOL    HW223273  13.324  14.093   5.700
 7126SOL     OW23274   7.929   3.246  13.496
 7126SOL    HW123275   7.904   3.318  13.438
 7126SOL    HW223276   7.974   3.184  13.439
 7127SOL     OW23277  11.998  10.858   8.019
 7127SOL    HW123278  11.960  10.816   7.941
 7127SOL    HW223279  11.990  10.792   8.088
 7128SOL     OW23280  13.293   2.939   4.773
 7128SOL    HW123281  13.370   2.903   4.729
 7128SOL    HW223282  13.261   3.009   4.716
 7129SOL     OW23283   8.726   5.375  10.640
 7129SOL    HW123284   8.742   5.468  10.626
 7129SOL    HW223285   8.716   5.366  10.735
 7130SOL     OW23286   8.877   5.406  11.506
 7130SOL    HW123287   8.857   5.445  11.421
 7130SOL    HW223288   8.792   5.381  11.542
 7131SOL     OW23289   7.473   5.969   5.823
 7131SOL    HW123290   7.479   6.059   5.856
 7131SOL    HW223291   7.560   5.933   5.834
 7132SOL     OW23292  14.242   8.260   3.176
 7132SOL    HW123293  14.237   8.172   3.138
 7132SOL    HW223294  14.161   8.268   3.227
 7133SOL     OW23295   9.386  11.082   5.873
 7133SOL    HW123296   9.320  11.053   5.936
 7133SOL    HW223297   9.339  11.141   5.814
 7134SOL     OW23298   1.779   2.551  14.224
 7134SOL    HW123299   1.722   2.561  14.148
 7134SOL    HW223300   1.866   2.575  14.192
 7135SOL     OW23301   3.391  10.296   9.855
 7135SOL    HW123302   3.302  10.329   9.847
 7135SOL    HW223303   3.424  10.335   9.936
 7136SOL     OW23304   7.582  11.353   9.664
 7136SOL    HW123305   7.525  11.340   9.588
 7136SOL    HW223306   7.525  11.392   9.731
 7137SOL     OW23307   1.517   8.607   2.720
 7137SOL    HW123308   1.570   8.532   2.692
 7137SOL    HW223309   1.437   8.568   2.755
 7138SOL     OW23310  11.109  12.325   1.227
 7138SOL    HW123311  11.042  12.356   1.287
 7138SOL    HW223312  11.177  12.393   1.229
 7139SOL     OW23313   1.911   1.469   1.916
 7139SOL    HW123314   1.984   1.518   1.955
 7139SOL    HW223315   1.871   1.530   1.855
 7140SOL     OW23316   5.031   1.957   5.661
 7140SOL    HW123317   5.030   1.931   5.753
 7140SOL    HW223318   4.967   1.899   5.620
 7141SOL     OW23319   0.903  11.414  12.452
 7141SOL    HW123320   0.827  11.369  12.490
 7141SOL    HW223321   0.928  11.359  12.378
 7142SOL     OW23322   2.830   3.396   4.223
 7142SOL    HW123323   2.834   3.448   4.143
 7142SOL    HW223324   2.873   3.313   4.200
 7143SOL     OW23325   4.632   2.029   5.692
 7143SOL    HW123326   4.697   2.090   5.727
 7143SOL    HW223327   4.599   1.982   5.769
 7144SOL     OW23328  14.753   7.968   4.811
 7144SOL    HW123329  14.773   7.958   4.905
 7144SOL    HW223330  14.811   7.906   4.768
 7145SOL     OW23331   2.701   1.371  11.439
 7145SOL    HW123332   2.662   1.352  11.525
 7145SOL    HW223333   2.734   1.460  11.447
 7146SOL     OW23334   9.391   5.363  13.932
 7146SOL    HW123335   9.338   5.422  13.879
 7146SOL    HW223336   9.340   5.281  13.935
 7147SOL     OW23337   1.458   1.122  10.792
 7147SOL    HW123338   1.425   1.097  10.705
 7147SOL    HW223339   1.443   1.044  10.845
 7148SOL     OW23340   7.142  13.627   9.097
 7148SOL    HW123341   7.077  13.583   9.151
 7148SOL    HW223342   7.195  13.556   9.060
 7149SOL     OW23343   4.926   9.885  10.716
 7149SOL    HW123344   4.841   9.854  10.685
 7149SOL    HW223345   4.913   9.977  10.737
 7150SOL     OW23346  10.811   1.043   3.130
 7150SOL    HW123347  10.877   1.102   3.093
 7150SOL    HW223348  10.780   0.992   3.054
 7151SOL     OW23349   3.708  14.385   3.199
 7151SOL    HW123350   3.794  14.364   3.160
 7151SOL    HW223351   3.702  14.327   3.275
 7152SOL     OW23352  12.985   3.152  13.165
 7152SOL    HW123353  13.001   3.246  13.154
 7152SOL    HW223354  13.057   3.110  13.119
 7153SOL     OW23355   5.643  12.427   0.900
 7153SOL    HW123356   5.594  12.506   0.878
 7153SOL    HW223357   5.732  12.443   0.868
 7154SOL     OW23358   1.675   1.846   6.825
 7154SOL    HW123359   1.663   1.819   6.916
 7154SOL    HW223360   1.738   1.784   6.789
 7155SOL     OW23361   7.834  14.485   8.535
 7155SOL    HW123362   7.750  14.531   8.537
 7155SOL    HW223363   7.831  14.433   8.455
 7156SOL     OW23364   9.746  13.755  12.193
 7156SOL    HW123365   9.708  13.675  12.229
 7156SOL    HW223366   9.777  13.804  12.269
 7157SOL     OW23367  12.245   7.629  14.707
 7157SOL    HW123368  12.185   7.572  14.658
 7157SOL    HW223369  12.224   7.717  14.677
 7158SOL     OW23370   5.080  10.624   8.301
 7158SOL    HW123371   5.159  10.666   8.269
 7158SOL    HW223372   5.111  10.549   8.352
 7159SOL     OW23373  13.804  10.808  10.863
 7159SOL    HW123374  13.888  10.764  10.879
 7159SOL    HW223375  13.757  10.748  10.805
 7160SOL     OW23376   7.229   5.784   0.015
 7160SOL    HW123377   7.162   5.846  14.864
 7160SOL    HW223378   7.272   5.754  14.815
 7161SOL     OW23379   2.767   2.476  13.910
 7161SOL    HW123380   2.706   2.542  13.878
 7161SOL    HW223381   2.720   2.393  13.903
 7162SOL     OW23382   7.330   6.530   0.159
 7162SOL    HW123383   7.378   6.497   0.235
 7162SOL    HW223384   7.258   6.468   0.147
 7163SOL     OW23385  13.921  12.557   6.707
 7163SOL    HW123386  14.003  12.597   6.676
 7163SOL    HW223387  13.894  12.499   6.635
 7164SOL     OW23388   9.115   5.522   0.388
 7164SOL    HW123389   9.103   5.427   0.389
 7164SOL    HW223390   9.076   5.550   0.305
 7165SOL     OW23391  10.449   5.078   7.831
 7165SOL    HW123392  10.383   5.083   7.899
 7165SOL    HW223393  10.441   5.160   7.782
 7166SOL     OW23394   1.917   0.617   7.353
 7166SOL    HW123395   1.849   0.554   7.329
 7166SOL    HW223396   1.870   0.687   7.398
 7167SOL     OW23397   3.054   4.259   7.502
 7167SOL    HW123398   3.009   4.344   7.503
 7167SOL    HW223399   3.009   4.209   7.434
 7168SOL     OW23400   4.025   1.077  11.530
 7168SOL    HW123401   3.936   1.058  11.498
 7168SOL    HW223402   4.011   1.118  11.615
 7169SOL     OW23403   4.596   3.827   1.345
 7169SOL    HW123404   4.610   3.899   1.284
 7169SOL    HW223405   4.629   3.749   1.300
 7170SOL     OW23406  13.774  10.478  11.307
 7170SOL    HW123407  13.693  10.527  11.291
 7170SOL    HW223408  13.751  10.387  11.289
 7171SOL     OW23409   3.917   9.586  11.671
 7171SOL    HW123410   4.011   9.601  11.674
 7171SOL    HW223411   3.905   9.515  11.608
 7172SOL     OW23412  13.274   4.411   3.635
 7172SOL    HW123413  13.205   4.425   3.570
 7172SOL    HW223414  13.353   4.445   3.594
 7173SOL     OW23415   5.988   8.406   7.673
 7173SOL    HW123416   6.078   8.415   7.703
 7173SOL    HW223417   5.977   8.312   7.659
 7174SOL     OW23418   0.533   3.702  10.925
 7174SOL    HW123419   0.519   3.773  10.989
 7174SOL    HW223420   0.628   3.698  10.915
 7175SOL     OW23421  11.673   2.769   0.264
 7175SOL    HW123422  11.726   2.746   0.187
 7175SOL    HW223423  11.595   2.811   0.228
 7176SOL     OW23424  14.534  14.202  10.276
 7176SOL    HW123425  14.555  14.196  10.183
 7176SOL    HW223426  14.468  14.272  10.282
 7177SOL     OW23427  12.188  11.230  11.322
 7177SOL    HW123428  12.225  11.144  11.303
 7177SOL    HW223429  12.240  11.263  11.395
 7178SOL     OW23430  13.023   7.796   6.453
 7178SOL    HW123431  13.071   7.799   6.370
 7178SOL    HW223432  13.013   7.888   6.479
 7179SOL     OW23433   8.766   1.033   6.247
 7179SOL    HW123434   8.763   1.060   6.339
 7179SOL    HW223435   8.684   0.986   6.233
 7180SOL     OW23436  10.309   0.175   6.542
 7180SOL    HW123437  10.387   0.145   6.497
 7180SOL    HW223438  10.237   0.151   6.484
 7181SOL     OW23439   8.392   8.459   6.266
 7181SOL    HW123440   8.446   8.454   6.188
 7181SOL    HW223441   8.363   8.369   6.281
 7182SOL     OW23442  14.046   4.680   2.968
 7182SOL    HW123443  14.034   4.767   3.007
 7182SOL    HW223444  14.137   4.658   2.988
 7183SOL     OW23445  12.228   3.076   7.824
 7183SOL    HW123446  12.237   2.985   7.797
 7183SOL    HW223447  12.317   3.108   7.833
 7184SOL     OW23448   1.588   8.471  10.254
 7184SOL    HW123449   1.543   8.402  10.206
 7184SOL    HW223450   1.635   8.426  10.324
 7185SOL     OW23451   9.633  14.087   3.888
 7185SOL    HW123452   9.562  14.029   3.862
 7185SOL    HW223453   9.639  14.077   3.984
 7186SOL     OW23454   7.985  14.657   5.419
 7186SOL    HW123455   7.928  14.582   5.400
 7186SOL    HW223456   7.973  14.716   5.344
 7187SOL     OW23457  10.476  11.108  10.309
 7187SOL    HW123458  10.516  11.066  10.232
 7187SOL    HW223459  10.529  11.078  10.383
 7188SOL     OW23460  14.093   8.525  12.457
 7188SOL    HW123461  14.112   8.618  12.459
 7188SOL    HW223462  14.001   8.517  12.480
 7189SOL     OW23463  10.735  14.714   6.284
 7189SOL    HW123464  10.757  14.660   6.208
 7189SOL    HW223465  10.820  14.740   6.320
 7190SOL     OW23466  12.800  14.009   3.799
 7190SOL    HW123467  12.759  13.932   3.759
 7190SOL    HW223468  12.749  14.024   3.878
 7191SOL     OW23469   9.968  11.911  12.689
 7191SOL    HW123470   9.992  11.839  12.747
 7191SOL    HW223471   9.908  11.872  12.626
 7192SOL     OW23472  13.155  10.869  14.452
 7192SOL    HW123473  13.241  10.830  14.470
 7192SOL    HW223474  13.097  10.830  14.517
 7193SOL     OW23475  11.031   6.373  12.766
 7193SOL    HW123476  11.072   6.441  12.818
 7193SOL    HW223477  11.101   6.341  12.709
 7194SOL     OW23478   2.298   7.511   0.154
 7194SOL    HW123479   2.250   7.512   0.071
 7194SOL    HW223480   2.256   7.441   0.204
 7195SOL     OW23481  14.689   3.118   9.680
 7195SOL    HW123482  14.654   3.166   9.604
 7195SOL    HW223483  14.784   3.126   9.672
 7196SOL     OW23484  13.674   5.286  12.610
 7196SOL    HW123485  13.764   5.318  12.608
 7196SOL    HW223486  13.671   5.227  12.685
 7197SOL     OW23487  12.275  10.587   7.625
 7197SOL    HW123488  12.179  10.583   7.624
 7197SOL    HW223489  12.298  10.584   7.718
 7198SOL     OW23490   4.798   4.307   6.037
 7198SOL    HW123491   4.837   4.230   5.995
 7198SOL    HW223492   4.843   4.313   6.122
 7199SOL     OW23493  13.791   7.814   0.794
 7199SOL    HW123494  13.696   7.799   0.795
 7199SOL    HW223495  13.813   7.837   0.884
 7200SOL     OW23496  12.556  13.414   9.013
 7200SOL    HW123497  12.548  13.330   9.058
 7200SOL    HW223498  12.474  13.424   8.965
 7201SOL     OW23499  14.441   5.893   5.162
 7201SOL    HW123500  14.451   5.933   5.075
 7201SOL    HW223501  14.350   5.909   5.185
 7202SOL     OW23502  11.346   8.485  10.120
 7202SOL    HW123503  11.414   8.545  10.151
 7202SOL    HW223504  11.394   8.415  10.076
 7203SOL     OW23505  11.875   4.733   2.949
 7203SOL    HW123506  11.814   4.697   2.884
 7203SOL    HW223507  11.909   4.813   2.908
 7204SOL     OW23508   8.360  14.773   1.189
 7204SOL    HW123509   8.455  14.777   1.189
 7204SOL    HW223510   8.332  14.857   1.155
 7205SOL     OW23511   2.875  13.651  13.435
 7205SOL    HW123512   2.781  13.658  13.419
 7205SOL    HW223513   2.903  13.576  13.382
 7206SOL     OW23514  13.352  13.018   2.666
 7206SOL    HW123515  13.438  13.052   2.692
 7206SOL    HW223516  13.347  12.931   2.705
 7207SOL     OW23517   9.555   3.860   0.270
 7207SOL    HW123518   9.539   3.942   0.223
 7207SOL    HW223519   9.550   3.792   0.203
 7208SOL     OW23520   4.854   0.280   0.367
 7208SOL    HW123521   4.805   0.281   0.449
 7208SOL    HW223522   4.788   0.275   0.298
 7209SOL     OW23523   5.112   7.893   4.441
 7209SOL    HW123524   5.137   7.892   4.533
 7209SOL    HW223525   5.099   7.800   4.419
 7210SOL     OW23526   7.665   5.752  11.549
 7210SOL    HW123527   7.632   5.794  11.469
 7210SOL    HW223528   7.749   5.715  11.523
 7211SOL     OW23529   5.822  10.027  12.222
 7211SOL    HW123530   5.844  10.019  12.314
 7211SOL    HW223531   5.866  10.106  12.193
 7212SOL     OW23532  14.185  11.605   1.434
 7212SOL    HW123533  14.140  11.520   1.434
 7212SOL    HW223534  14.152  11.649   1.356
 7213SOL     OW23535  12.996  14.356   2.660
 7213SOL    HW123536  12.934  14.372   2.731
 7213SOL    HW223537  13.046  14.437   2.653
 7214SOL     OW23538   7.945   0.249   3.468
 7214SOL    HW123539   8.018   0.216   3.416
 7214SOL    HW223540   7.985   0.285   3.547
 7215SOL     OW23541   9.545   1.875   1.443
 7215SOL    HW123542   9.455   1.903   1.427
 7215SOL    HW223543   9.591   1.896   1.362
 7216SOL     OW23544  12.539   9.074   1.776
 7216SOL    HW123545  12.622   9.121   1.778
 7216SOL    HW223546  12.511   9.078   1.684
 7217SOL     OW23547  12.233  14.524  12.936
 7217SOL    HW123548  12.157  14.555  12.984
 7217SOL    HW223549  12.304  14.584  12.962
 7218SOL     OW23550   4.452   1.462   8.234
 7218SOL    HW123551   4.390   1.462   8.161
 7218SOL    HW223552   4.404   1.504   8.306
 7219SOL     OW23553   2.908   1.537   9.896
 7219SOL    HW123554   2.899   1.442   9.888
 7219SOL    HW223555   2.943   1.565   9.811
 7220SOL     OW23556   4.254  12.025  12.213
 7220SOL    HW123557   4.335  12.055  12.254
 7220SOL    HW223558   4.200  12.104  12.205
 7221SOL     OW23559  12.093   1.763   2.154
 7221SOL    HW123560  12.021   1.729   2.102
 7221SOL    HW223561  12.083   1.723   2.240
 7222SOL     OW23562   7.551   1.996   0.459
 7222SOL    HW123563   7.596   1.917   0.429
 7222SOL    HW223564   7.601   2.025   0.536
 7223SOL     OW23565   5.560   5.434  10.247
 7223SOL    HW123566   5.476   5.433  10.295
 7223SOL    HW223567   5.576   5.526  10.230
 7224SOL     OW23568   4.822   5.847   7.028
 7224SOL    HW123569   4.916   5.860   7.035
 7224SOL    HW223570   4.789   5.929   6.992
 7225SOL     OW23571   9.797   1.570   2.479
 7225SOL    HW123572   9.846   1.582   2.397
 7225SOL    HW223573   9.713   1.613   2.463
 7226SOL     OW23574  12.267   3.002   2.441
 7226SOL    HW123575  12.238   2.985   2.531
 7226SOL    HW223576  12.212   2.946   2.386
 7227SOL     OW23577  12.033  11.418   8.590
 7227SOL    HW123578  11.950  11.441   8.632
 7227SOL    HW223579  12.083  11.500   8.588
 7228SOL     OW23580   0.357   1.268  10.244
 7228SOL    HW123581   0.406   1.347  10.267
 7228SOL    HW223582   0.312   1.242  10.324
 7229SOL     OW23583   9.545   4.630   0.017
 7229SOL    HW123584   9.563   4.636   0.111
 7229SOL    HW223585   9.630   4.646  14.855
 7230SOL     OW23586   2.329   3.354   2.975
 7230SOL    HW123587   2.320   3.449   2.978
 7230SOL    HW223588   2.284   3.323   3.054
 7231SOL     OW23589   6.380   6.739   9.805
 7231SOL    HW123590   6.351   6.827   9.829
 7231SOL    HW223591   6.469   6.751   9.774
 7232SOL     OW23592  12.578   4.920   5.605
 7232SOL    HW123593  12.576   4.878   5.691
 7232SOL    HW223594  12.487   4.941   5.586
 7233SOL     OW23595  14.327  12.771  13.291
 7233SOL    HW123596  14.247  12.723  13.272
 7233SOL    HW223597  14.308  12.820  13.371
 7234SOL     OW23598   7.721   1.857   9.058
 7234SOL    HW123599   7.658   1.809   9.005
 7234SOL    HW223600   7.788   1.887   8.996
 7235SOL     OW23601  14.806   3.197   8.373
 7235SOL    HW123602   0.005   3.143   8.376
 7235SOL    HW223603  14.753   3.160   8.303
 7236SOL     OW23604  11.294   5.408  13.686
 7236SOL    HW123605  11.327   5.318  13.692
 7236SOL    HW223606  11.207   5.398  13.646
 7237SOL     OW23607  10.591   4.792   9.050
 7237SOL    HW123608  10.597   4.696   9.046
 7237SOL    HW223609  10.571   4.818   8.961
 7238SOL     OW23610  13.003   7.443   2.652
 7238SOL    HW123611  13.069   7.509   2.629
 7238SOL    HW223612  13.039   7.400   2.729
 7239SOL     OW23613   8.295   2.314   7.429
 7239SOL    HW123614   8.296   2.222   7.456
 7239SOL    HW223615   8.384   2.330   7.396
 7240SOL     OW23616   5.648   5.959   3.042
 7240SOL    HW123617   5.592   5.917   3.107
 7240SOL    HW223618   5.723   5.991   3.092
 7241SOL     OW23619   4.474   7.848   5.878
 7241SOL    HW123620   4.451   7.940   5.868
 7241SOL    HW223621   4.389   7.803   5.885
 7242SOL     OW23622  12.869   0.890   6.877
 7242SOL    HW123623  12.903   0.957   6.937
 7242SOL    HW223624  12.868   0.933   6.792
 7243SOL     OW23625   4.423  10.580   9.120
 7243SOL    HW123626   4.432  10.565   9.214
 7243SOL    HW223627   4.336  10.617   9.109
 7244SOL     OW23628   8.329   0.816   4.586
 7244SOL    HW123629   8.262   0.780   4.644
 7244SOL    HW223630   8.403   0.836   4.644
 7245SOL     OW23631   8.606   8.230   3.911
 7245SOL    HW123632   8.667   8.281   3.857
 7245SOL    HW223633   8.652   8.219   3.994
 7246SOL     OW23634  14.728  11.403   4.678
 7246SOL    HW123635  14.790  11.443   4.617
 7246SOL    HW223636  14.781  11.383   4.756
 7247SOL     OW23637   2.275   1.105  10.362
 7247SOL    HW123638   2.248   1.052  10.287
 7247SOL    HW223639   2.200   1.163  10.378
 7248SOL     OW23640   9.741  13.181  11.516
 7248SOL    HW123641   9.753  13.197  11.609
 7248SOL    HW223642   9.661  13.228  11.493
 7249SOL     OW23643  11.684   9.866  14.533
 7249SOL    HW123644  11.635   9.901  14.458
 7249SOL    HW223645  11.715   9.944  14.580
 7250SOL     OW23646   9.613  14.484   8.947
 7250SOL    HW123647   9.639  14.547   9.014
 7250SOL    HW223648   9.523  14.461   8.969
 7251SOL     OW23649  14.345  14.326   9.880
 7251SOL    HW123650  14.263  14.290   9.913
 7251SOL    HW223651  14.352  14.412   9.921
 7252SOL     OW23652   6.403  13.600   2.617
 7252SOL    HW123653   6.480  13.553   2.585
 7252SOL    HW223654   6.331  13.568   2.563
 7253SOL     OW23655   5.785   2.555   3.516
 7253SOL    HW123656   5.693   2.530   3.504
 7253SOL    HW223657   5.826   2.536   3.432
 7254SOL     OW23658   4.207   7.663   0.540
 7254SOL    HW123659   4.200   7.731   0.473
 7254SOL    HW223660   4.287   7.616   0.518
 7255SOL     OW23661  11.000   7.287  10.317
 7255SOL    HW123662  10.954   7.352  10.263
 7255SOL    HW223663  10.939   7.265  10.387
 7256SOL     OW23664   3.593   4.747   5.978
 7256SOL    HW123665   3.538   4.687   6.029
 7256SOL    HW223666   3.535   4.783   5.912
 7257SOL     OW23667   1.352  13.255  12.993
 7257SOL    HW123668   1.439  13.296  12.992
 7257SOL    HW223669   1.291  13.329  12.994
 7258SOL     OW23670  12.096   8.254   4.865
 7258SOL    HW123671  12.143   8.337   4.854
 7258SOL    HW223672  12.162   8.194   4.899
 7259SOL     OW23673  14.007  12.619   8.301
 7259SOL    HW123674  13.980  12.532   8.272
 7259SOL    HW223675  13.933  12.653   8.351
 7260SOL     OW23676   6.234   7.831  11.375
 7260SOL    HW123677   6.261   7.739  11.377
 7260SOL    HW223678   6.262   7.862  11.289
 7261SOL     OW23679   2.778   0.028   4.982
 7261SOL    HW123680   2.764  14.859   5.063
 7261SOL    HW223681   2.830   0.104   5.008
 7262SOL     OW23682   0.873  14.141   9.122
 7262SOL    HW123683   0.958  14.109   9.091
 7262SOL    HW223684   0.815  14.066   9.113
 7263SOL     OW23685   6.534   5.217   3.377
 7263SOL    HW123686   6.520   5.292   3.435
 7263SOL    HW223687   6.454   5.213   3.324
 7264SOL     OW23688   4.280   9.334   2.151
 7264SOL    HW123689   4.270   9.413   2.204
 7264SOL    HW223690   4.262   9.363   2.062
 7265SOL     OW23691  13.908   3.838   5.212
 7265SOL    HW123692  13.985   3.847   5.155
 7265SOL    HW223693  13.857   3.917   5.196
 7266SOL     OW23694   8.579   2.245   1.598
 7266SOL    HW123695   8.528   2.301   1.539
 7266SOL    HW223696   8.630   2.306   1.651
 7267SOL     OW23697   1.745   0.414   3.182
 7267SOL    HW123698   1.809   0.397   3.112
 7267SOL    HW223699   1.691   0.486   3.147
 7268SOL     OW23700  11.566   3.919   5.437
 7268SOL    HW123701  11.546   3.873   5.519
 7268SOL    HW223702  11.487   3.908   5.384
 7269SOL     OW23703   6.608  10.731   3.570
 7269SOL    HW123704   6.616  10.643   3.532
 7269SOL    HW223705   6.543  10.775   3.515
 7270SOL     OW23706   0.524  14.653  10.145
 7270SOL    HW123707   0.567  14.585  10.093
 7270SOL    HW223708   0.486  14.712  10.080
 7271SOL     OW23709   1.752   3.855   2.388
 7271SOL    HW123710   1.803   3.874   2.467
 7271SOL    HW223711   1.805   3.889   2.316
 7272SOL     OW23712   9.196  12.991   1.746
 7272SOL    HW123713   9.131  13.055   1.775
 7272SOL    HW223714   9.152  12.944   1.675
 7273SOL     OW23715  10.845   9.571   1.685
 7273SOL    HW123716  10.858   9.539   1.774
 7273SOL    HW223717  10.750   9.566   1.671
 7274SOL     OW23718  14.427   3.804   1.829
 7274SOL    HW123719  14.396   3.716   1.849
 7274SOL    HW223720  14.522   3.797   1.830
 7275SOL     OW23721   8.649   1.890   5.988
 7275SOL    HW123722   8.742   1.873   6.002
 7275SOL    HW223723   8.613   1.901   6.076
 7276SOL     OW23724   7.974  10.802   6.905
 7276SOL    HW123725   8.059  10.758   6.913
 7276SOL    HW223726   7.914  10.747   6.955
 7277SOL     OW23727   5.316   1.806   5.839
 7277SOL    HW123728   5.335   1.758   5.758
 7277SOL    HW223729   5.228   1.777   5.863
 7278SOL     OW23730  14.592  10.774   3.857
 7278SOL    HW123731  14.662  10.718   3.892
 7278SOL    HW223732  14.530  10.782   3.929
 7279SOL     OW23733   9.466  10.027  14.367
 7279SOL    HW123734   9.447   9.935  14.351
 7279SOL    HW223735   9.394  10.057  14.424
 7280SOL     OW23736   5.940  11.746  12.172
 7280SOL    HW123737   5.965  11.828  12.215
 7280SOL    HW223738   5.967  11.758  12.081
 7281SOL     OW23739   4.426   7.637  13.941
 7281SOL    HW123740   4.415   7.717  13.992
 7281SOL    HW223741   4.518   7.613  13.953
 7282SOL     OW23742  11.492  12.514   5.507
 7282SOL    HW123743  11.424  12.532   5.442
 7282SOL    HW223744  11.550  12.589   5.503
 7283SOL     OW23745   5.317  10.391  14.361
 7283SOL    HW123746   5.245  10.436  14.404
 7283SOL    HW223747   5.283  10.370  14.274
 7284SOL     OW23748   5.387   6.436   9.491
 7284SOL    HW123749   5.347   6.358   9.452
 7284SOL    HW223750   5.470   6.405   9.527
 7285SOL     OW23751   4.847   1.562   7.173
 7285SOL    HW123752   4.752   1.559   7.183
 7285SOL    HW223753   4.876   1.473   7.194
 7286SOL     OW23754  10.748   0.947  12.922
 7286SOL    HW123755  10.660   0.911  12.932
 7286SOL    HW223756  10.799   0.875  12.886
 7287SOL     OW23757   5.347  12.810  14.342
 7287SOL    HW123758   5.420  12.757  14.310
 7287SOL    HW223759   5.345  12.885  14.283
 7288SOL     OW23760   4.690  14.343  10.708
 7288SOL    HW123761   4.708  14.417  10.650
 7288SOL    HW223762   4.611  14.303  10.673
 7289SOL     OW23763  11.363   4.661   6.688
 7289SOL    HW123764  11.346   4.733   6.627
 7289SOL    HW223765  11.316   4.684   6.767
 7290SOL     OW23766   1.136   0.896   6.581
 7290SOL    HW123767   1.115   0.988   6.563
 7290SOL    HW223768   1.096   0.879   6.666
 7291SOL     OW23769  12.024  14.384  10.238
 7291SOL    HW123770  11.997  14.473  10.261
 7291SOL    HW223771  12.117  14.391  10.218
 7292SOL     OW23772   9.776   6.515   9.225
 7292SOL    HW123773   9.706   6.451   9.240
 7292SOL    HW223774   9.839   6.468   9.169
 7293SOL     OW23775   3.165   1.335   6.001
 7293SOL    HW123776   3.189   1.250   6.036
 7293SOL    HW223777   3.133   1.316   5.912
 7294SOL     OW23778  13.762  11.704   6.754
 7294SOL    HW123779  13.754  11.745   6.839
 7294SOL    HW223780  13.673  11.701   6.719
 7295SOL     OW23781   3.784   9.630  13.806
 7295SOL    HW123782   3.756   9.587  13.725
 7295SOL    HW223783   3.704   9.672  13.839
 7296SOL     OW23784  14.291   2.312  10.434
 7296SOL    HW123785  14.221   2.301  10.370
 7296SOL    HW223786  14.316   2.223  10.457
 7297SOL     OW23787   9.412   3.081  11.895
 7297SOL    HW123788   9.414   3.106  11.802
 7297SOL    HW223789   9.418   2.985  11.893
 7298SOL     OW23790   7.297   8.107  14.481
 7298SOL    HW123791   7.368   8.078  14.423
 7298SOL    HW223792   7.339   8.118  14.566
 7299SOL     OW23793  14.620   9.041   0.640
 7299SOL    HW123794  14.612   9.020   0.733
 7299SOL    HW223795  14.699   9.095   0.635
 7300SOL     OW23796  11.672   1.345   2.797
 7300SOL    HW123797  11.725   1.422   2.777
 7300SOL    HW223798  11.733   1.272   2.798
 7301SOL     OW23799   6.693   1.999   9.049
 7301SOL    HW123800   6.693   1.936   9.122
 7301SOL    HW223801   6.748   2.071   9.080
 7302SOL     OW23802   9.310   3.629   4.988
 7302SOL    HW123803   9.361   3.709   5.000
 7302SOL    HW223804   9.330   3.576   5.066
 7303SOL     OW23805   7.307   2.133  10.706
 7303SOL    HW123806   7.291   2.067  10.639
 7303SOL    HW223807   7.273   2.214  10.669
 7304SOL     OW23808   9.205   6.351   6.903
 7304SOL    HW123809   9.221   6.429   6.851
 7304SOL    HW223810   9.114   6.360   6.933
 7305SOL     OW23811  13.230  14.074   6.703
 7305SOL    HW123812  13.160  14.040   6.757
 7305SOL    HW223813  13.222  14.026   6.620
 7306SOL     OW23814  12.015  12.159  13.796
 7306SOL    HW123815  11.928  12.136  13.764
 7306SOL    HW223816  12.047  12.224  13.734
 7307SOL     OW23817   6.767   5.177  10.927
 7307SOL    HW123818   6.716   5.102  10.958
 7307SOL    HW223819   6.837   5.137  10.875
 7308SOL     OW23820  14.063   1.129   7.270
 7308SOL    HW123821  14.102   1.158   7.189
 7308SOL    HW223822  14.092   1.192   7.336
 7309SOL     OW23823  10.941   3.989  12.570
 7309SOL    HW123824  10.974   4.008  12.658
 7309SOL    HW223825  11.002   4.033  12.511
 7310SOL     OW23826   4.574   7.224  10.327
 7310SOL    HW123827   4.505   7.274  10.284
 7310SOL    HW223828   4.591   7.151  10.267
 7311SOL     OW23829   4.929   3.329   3.940
 7311SOL    HW123830   4.975   3.389   3.998
 7311SOL    HW223831   4.997   3.290   3.887
 7312SOL     OW23832   9.707   8.552  13.635
 7312SOL    HW123833   9.718   8.620  13.568
 7312SOL    HW223834   9.761   8.583  13.708
 7313SOL     OW23835   7.260   2.455   0.081
 7313SOL    HW123836   7.232   2.449  14.870
 7313SOL    HW223837   7.191   2.410   0.130
 7314SOL     OW23838   5.756   4.829   8.114
 7314SOL    HW123839   5.786   4.779   8.038
 7314SOL    HW223840   5.829   4.887   8.135
 7315SOL     OW23841  10.523  10.977  14.388
 7315SOL    HW123842  10.429  10.995  14.384
 7315SOL    HW223843  10.533  10.917  14.462
 7316SOL     OW23844   8.243  10.269  10.427
 7316SOL    HW123845   8.319  10.218  10.453
 7316SOL    HW223846   8.208  10.304  10.508
 7317SOL     OW23847  10.369   2.492   4.815
 7317SOL    HW123848  10.383   2.441   4.735
 7317SOL    HW223849  10.276   2.513   4.814
 7318SOL     OW23850   1.779  12.570   4.833
 7318SOL    HW123851   1.740  12.484   4.818
 7318SOL    HW223852   1.866  12.552   4.869
 7319SOL     OW23853   0.614  12.248   5.242
 7319SOL    HW123854   0.609  12.342   5.262
 7319SOL    HW223855   0.640  12.245   5.150
 7320SOL     OW23856   5.112   0.952   4.714
 7320SOL    HW123857   5.082   0.915   4.630
 7320SOL    HW223858   5.066   0.901   4.780
 7321SOL     OW23859   0.640   4.391   7.164
 7321SOL    HW123860   0.563   4.344   7.131
 7321SOL    HW223861   0.608   4.480   7.181
 7322SOL     OW23862   6.352   2.963  14.154
 7322SOL    HW123863   6.359   2.912  14.073
 7322SOL    HW223864   6.392   2.907  14.221
 7323SOL     OW23865  11.382   2.384  14.190
 7323SOL    HW123866  11.332   2.329  14.250
 7323SOL    HW223867  11.343   2.367  14.104
 7324SOL     OW23868   7.050   2.312   0.166
 7324SOL    HW123869   7.035   2.236   0.110
 7324SOL    HW223870   6.962   2.344   0.187
 7325SOL     OW23871   4.304  13.939   9.260
 7325SOL    HW123872   4.326  13.896   9.343
 7325SOL    HW223873   4.315  14.032   9.278
 7326SOL     OW23874   3.578   1.336  12.790
 7326SOL    HW123875   3.637   1.391  12.842
 7326SOL    HW223876   3.635   1.298  12.723
 7327SOL     OW23877   7.701   7.644  13.396
 7327SOL    HW123878   7.694   7.598  13.312
 7327SOL    HW223879   7.635   7.713  13.391
 7328SOL     OW23880   7.949   3.422  12.481
 7328SOL    HW123881   7.875   3.441  12.424
 7328SOL    HW223882   8.022   3.403  12.422
 7329SOL     OW23883  12.435   3.430  13.352
 7329SOL    HW123884  12.370   3.399  13.414
 7329SOL    HW223885  12.402   3.515  13.323
 7330SOL     OW23886  10.113  12.375   9.009
 7330SOL    HW123887  10.050  12.311   8.976
 7330SOL    HW223888  10.186  12.370   8.948
 7331SOL     OW23889   1.106  11.176  10.817
 7331SOL    HW123890   1.109  11.272  10.808
 7331SOL    HW223891   1.024  11.150  10.776
 7332SOL     OW23892  11.403   5.202  11.257
 7332SOL    HW123893  11.472   5.251  11.301
 7332SOL    HW223894  11.377   5.257  11.184
 7333SOL     OW23895   0.931   3.444   5.853
 7333SOL    HW123896   0.966   3.433   5.765
 7333SOL    HW223897   1.008   3.446   5.910
 7334SOL     OW23898   3.825   0.105   7.349
 7334SOL    HW123899   3.744   0.149   7.323
 7334SOL    HW223900   3.798   0.015   7.368
 7335SOL     OW23901  12.595   7.486   5.644
 7335SOL    HW123902  12.515   7.524   5.680
 7335SOL    HW223903  12.565   7.412   5.590
 7336SOL     OW23904   2.315   4.092   8.069
 7336SOL    HW123905   2.295   4.072   7.977
 7336SOL    HW223906   2.231   4.085   8.113
 7337SOL     OW23907   6.411   8.512   7.750
 7337SOL    HW123908   6.473   8.528   7.820
 7337SOL    HW223909   6.325   8.526   7.789
 7338SOL     OW23910  11.672   9.196   4.440
 7338SOL    HW123911  11.729   9.271   4.421
 7338SOL    HW223912  11.692   9.133   4.371
 7339SOL     OW23913  12.959  13.699  10.634
 7339SOL    HW123914  12.936  13.762  10.565
 7339SOL    HW223915  12.876  13.658  10.658
 7340SOL     OW23916   7.924   0.970  14.338
 7340SOL    HW123917   7.927   1.065  14.337
 7340SOL    HW223918   7.919   0.946  14.245
 7341SOL     OW23919  13.836  14.030   7.523
 7341SOL    HW123920  13.879  14.054   7.440
 7341SOL    HW223921  13.848  14.107   7.579
 7342SOL     OW23922   5.035   1.809  14.715
 7342SOL    HW123923   5.100   1.875  14.689
 7342SOL    HW223924   5.086   1.736  14.748
 7343SOL     OW23925   4.560   5.615   6.158
 7343SOL    HW123926   4.564   5.698   6.205
 7343SOL    HW223927   4.630   5.621   6.093
 7344SOL     OW23928   0.927   3.218   8.659
 7344SOL    HW123929   0.865   3.171   8.602
 7344SOL    HW223930   0.874   3.285   8.701
 7345SOL     OW23931  10.156  13.133  14.510
 7345SOL    HW123932  10.225  13.185  14.551
 7345SOL    HW223933  10.108  13.094  14.583
 7346SOL     OW23934   5.325   6.047   7.369
 7346SOL    HW123935   5.395   6.102   7.404
 7346SOL    HW223936   5.253   6.108   7.351
 7347SOL     OW23937  13.347  11.593   0.799
 7347SOL    HW123938  13.346  11.689   0.801
 7347SOL    HW223939  13.409  11.571   0.729
 7348SOL     OW23940   4.472   6.757   5.322
 7348SOL    HW123941   4.387   6.721   5.298
 7348SOL    HW223942   4.491   6.821   5.254
 7349SOL     OW23943   4.158  11.231   3.436
 7349SOL    HW123944   4.155  11.326   3.440
 7349SOL    HW223945   4.076  11.206   3.394
 7350SOL     OW23946   5.330   8.559   9.504
 7350SOL    HW123947   5.286   8.598   9.579
 7350SOL    HW223948   5.275   8.484   9.481
 7351SOL     OW23949   9.529   8.899   6.731
 7351SOL    HW123950   9.612   8.895   6.779
 7351SOL    HW223951   9.543   8.840   6.656
 7352SOL     OW23952  10.618   1.118   0.976
 7352SOL    HW123953  10.617   1.096   0.883
 7352SOL    HW223954  10.564   1.051   1.018
 7353SOL     OW23955   4.190   8.755  10.983
 7353SOL    HW123956   4.105   8.728  10.949
 7353SOL    HW223957   4.219   8.824  10.923
 7354SOL     OW23958  12.430  10.982   1.824
 7354SOL    HW123959  12.451  10.902   1.873
 7354SOL    HW223960  12.355  10.958   1.770
 7355SOL     OW23961   1.510  13.603   0.371
 7355SOL    HW123962   1.593  13.558   0.358
 7355SOL    HW223963   1.455  13.538   0.416
 7356SOL     OW23964  11.715   5.860  11.703
 7356SOL    HW123965  11.664   5.856  11.784
 7356SOL    HW223966  11.805   5.875  11.732
 7357SOL     OW23967   0.376  14.449   0.521
 7357SOL    HW123968   0.369  14.358   0.493
 7357SOL    HW223969   0.463  14.476   0.493
 7358SOL     OW23970  14.382   2.702   8.044
 7358SOL    HW123971  14.425   2.786   8.032
 7358SOL    HW223972  14.304   2.708   7.989
 7359SOL     OW23973   6.000   3.309   4.415
 7359SOL    HW123974   5.948   3.262   4.350
 7359SOL    HW223975   5.971   3.400   4.408
 7360SOL     OW23976  10.823   0.919   1.074
 7360SOL    HW123977  10.850   0.856   1.141
 7360SOL    HW223978  10.776   0.987   1.122
 7361SOL     OW23979  11.877   1.509   3.475
 7361SOL    HW123980  11.873   1.556   3.392
 7361SOL    HW223981  11.798   1.455   3.477
 7362SOL     OW23982   3.699  11.671   7.218
 7362SOL    HW123983   3.725  11.627   7.299
 7362SOL    HW223984   3.640  11.740   7.246
 7363SOL     OW23985  12.874   0.235   2.152
 7363SOL    HW123986  12.803   0.196   2.203
 7363SOL    HW223987  12.871   0.328   2.174
 7364SOL     OW23988   0.336  13.653  11.073
 7364SOL    HW123989   0.346  13.592  11.146
 7364SOL    HW223990   0.302  13.733  11.113
 7365SOL     OW23991  10.117   2.055   4.120
 7365SOL    HW123992  10.073   2.115   4.180
 7365SOL    HW223993  10.068   1.973   4.128
 7366SOL     OW23994   2.143  14.090  13.730
 7366SOL    HW123995   2.216  14.073  13.790
 7366SOL    HW223996   2.077  14.025  13.754
 7367SOL     OW23997   4.266   4.760  11.452
 7367SOL    HW123998   4.324   4.684  11.456
 7367SOL    HW223999   4.245   4.768  11.359
 7368SOL     OW24000  13.349   3.806   2.439
 7368SOL    HW124001  13.400   3.844   2.510
 7368SOL    HW224002  13.268   3.777   2.481
 7369SOL     OW24003   9.810  10.926   4.027
 7369SOL    HW124004   9.871  10.999   4.010
 7369SOL    HW224005   9.723  10.966   4.018
 7370SOL     OW24006  13.803   1.240   2.989
 7370SOL    HW124007  13.782   1.313   2.930
 7370SOL    HW224008  13.765   1.265   3.073
 7371SOL     OW24009  11.085  14.765   7.498
 7371SOL    HW124010  11.175  14.747   7.472
 7371SOL    HW224011  11.037  14.685   7.476
 7372SOL     OW24012  10.022   5.645   5.181
 7372SOL    HW124013   9.984   5.731   5.194
 7372SOL    HW224014   9.947   5.589   5.158
 7373SOL     OW24015   5.130   9.923   1.649
 7373SOL    HW124016   5.104   9.924   1.557
 7373SOL    HW224017   5.223   9.903   1.648
 7374SOL     OW24018  12.618   6.934  13.829
 7374SOL    HW124019  12.600   7.009  13.886
 7374SOL    HW224020  12.553   6.941  13.759
 7375SOL     OW24021   7.390  10.188  13.039
 7375SOL    HW124022   7.309  10.236  13.055
 7375SOL    HW224023   7.404  10.137  13.119
 7376SOL     OW24024   6.587   0.386  13.156
 7376SOL    HW124025   6.558   0.404  13.067
 7376SOL    HW224026   6.678   0.357  13.146
 7377SOL     OW24027  10.182   9.542   5.558
 7377SOL    HW124028  10.191   9.637   5.547
 7377SOL    HW224029  10.244   9.504   5.496
 7378SOL     OW24030   0.761   6.449  11.013
 7378SOL    HW124031   0.728   6.523  11.064
 7378SOL    HW224032   0.688   6.424  10.957
 7379SOL     OW24033   1.760   2.890   2.281
 7379SOL    HW124034   1.730   2.842   2.204
 7379SOL    HW224035   1.785   2.976   2.248
 7380SOL     OW24036   3.844   0.383   3.265
 7380SOL    HW124037   3.821   0.334   3.186
 7380SOL    HW224038   3.786   0.459   3.263
 7381SOL     OW24039   3.265   8.479  12.491
 7381SOL    HW124040   3.180   8.505  12.527
 7381SOL    HW224041   3.325   8.549  12.518
 7382SOL     OW24042   9.102  14.816  10.087
 7382SOL    HW124043   9.098  14.781  10.176
 7382SOL    HW224044   9.100   0.032  10.098
 7383SOL     OW24045   3.426   9.050   8.607
 7383SOL    HW124046   3.521   9.037   8.615
 7383SOL    HW224047   3.416   9.144   8.596
 7384SOL     OW24048   2.974   3.390   3.168
 7384SOL    HW124049   3.026   3.347   3.099
 7384SOL    HW224050   2.980   3.330   3.243
 7385SOL     OW24051   8.198  11.414  11.799
 7385SOL    HW124052   8.227  11.503  11.818
 7385SOL    HW224053   8.277  11.369  11.770
 7386SOL     OW24054   1.849   9.858   1.045
 7386SOL    HW124055   1.808   9.773   1.029
 7386SOL    HW224056   1.938   9.848   1.011
 7387SOL     OW24057   8.799   0.547  10.659
 7387SOL    HW124058   8.863   0.617  10.646
 7387SOL    HW224059   8.760   0.534  10.572
 7388SOL     OW24060   1.273   6.495   0.568
 7388SOL    HW124061   1.350   6.521   0.620
 7388SOL    HW224062   1.227   6.433   0.624
 7389SOL     OW24063  10.699   8.014   5.249
 7389SOL    HW124064  10.614   8.055   5.267
 7389SOL    HW224065  10.693   7.927   5.289
 7390SOL     OW24066   1.680  13.451   2.068
 7390SOL    HW124067   1.731  13.409   1.998
 7390SOL    HW224068   1.730  13.434   2.148
 7391SOL     OW24069   6.547   0.886   0.356
 7391SOL    HW124070   6.560   0.980   0.344
 7391SOL    HW224071   6.559   0.849   0.268
 7392SOL     OW24072   7.704   3.381   9.765
 7392SOL    HW124073   7.726   3.309   9.706
 7392SOL    HW224074   7.785   3.398   9.813
 7393SOL     OW24075  11.215  13.520   7.681
 7393SOL    HW124076  11.172  13.597   7.719
 7393SOL    HW224077  11.301  13.518   7.724
 7394SOL     OW24078  11.199   9.764  14.456
 7394SOL    HW124079  11.162   9.729  14.375
 7394SOL    HW224080  11.292   9.744  14.450
 7395SOL     OW24081   3.410   7.578   5.579
 7395SOL    HW124082   3.388   7.632   5.503
 7395SOL    HW224083   3.430   7.641   5.648
 7396SOL     OW24084   5.496   5.248  11.453
 7396SOL    HW124085   5.503   5.259  11.547
 7396SOL    HW224086   5.415   5.293  11.429
 7397SOL     OW24087  13.922   7.469  13.043
 7397SOL    HW124088  13.981   7.480  12.968
 7397SOL    HW224089  13.852   7.533  13.028
 7398SOL     OW24090  11.305   4.204   1.508
 7398SOL    HW124091  11.231   4.164   1.463
 7398SOL    HW224092  11.378   4.143   1.495
 7399SOL     OW24093  12.994   4.717  14.491
 7399SOL    HW124094  12.927   4.716  14.558
 7399SOL    HW224095  13.077   4.709  14.539
 7400SOL     OW24096   2.526  11.833   5.648
 7400SOL    HW124097   2.574  11.904   5.605
 7400SOL    HW224098   2.448  11.822   5.594
 7401SOL     OW24099   9.265   3.660   1.652
 7401SOL    HW124100   9.242   3.600   1.724
 7401SOL    HW224101   9.191   3.720   1.647
 7402SOL     OW24102   7.339   2.132   8.142
 7402SOL    HW124103   7.398   2.057   8.131
 7402SOL    HW224104   7.293   2.139   8.058
 7403SOL     OW24105  10.607  14.227  13.707
 7403SOL    HW124106  10.630  14.163  13.639
 7403SOL    HW224107  10.617  14.180  13.789
 7404SOL     OW24108   0.381   0.142   6.025
 7404SOL    HW124109   0.426   0.106   6.101
 7404SOL    HW224110   0.340   0.223   6.056
 7405SOL     OW24111  12.494   1.428  13.901
 7405SOL    HW124112  12.524   1.457  13.815
 7405SOL    HW224113  12.523   1.337  13.907
 7406SOL     OW24114   8.789   8.688   1.121
 7406SOL    HW124115   8.771   8.646   1.037
 7406SOL    HW224116   8.855   8.632   1.162
 7407SOL     OW24117  14.130   0.901  13.030
 7407SOL    HW124118  14.192   0.894  12.957
 7407SOL    HW224119  14.051   0.938  12.990
 7408SOL     OW24120  10.253   1.730   1.161
 7408SOL    HW124121  10.264   1.642   1.125
 7408SOL    HW224122  10.169   1.728   1.207
 7409SOL     OW24123   2.589  13.696   6.644
 7409SOL    HW124124   2.497  13.676   6.659
 7409SOL    HW224125   2.589  13.786   6.611
 7410SOL     OW24126   7.006   2.204   9.871
 7410SOL    HW124127   6.915   2.197   9.900
 7410SOL    HW224128   7.024   2.298   9.868
 7411SOL     OW24129   4.625  11.417  12.405
 7411SOL    HW124130   4.693  11.362  12.367
 7411SOL    HW224131   4.630  11.401  12.499
 7412SOL     OW24132   8.527   6.862  13.036
 7412SOL    HW124133   8.562   6.804  12.969
 7412SOL    HW224134   8.538   6.950  12.999
 7413SOL     OW24135  11.763  13.315   9.941
 7413SOL    HW124136  11.776  13.320   9.846
 7413SOL    HW224137  11.820  13.384   9.976
 7414SOL     OW24138   8.118   4.669  10.806
 7414SOL    HW124139   8.199   4.629  10.774
 7414SOL    HW224140   8.144   4.756  10.836
 7415SOL     OW24141   6.562   5.867   4.679
 7415SOL    HW124142   6.603   5.826   4.755
 7415SOL    HW224143   6.581   5.808   4.606
 7416SOL     OW24144   2.707   4.672   0.764
 7416SOL    HW124145   2.653   4.606   0.807
 7416SOL    HW224146   2.709   4.745   0.826
 7417SOL     OW24147   3.585   9.273   2.108
 7417SOL    HW124148   3.617   9.364   2.106
 7417SOL    HW224149   3.490   9.281   2.102
 7418SOL     OW24150   3.112   8.628  11.341
 7418SOL    HW124151   3.105   8.723  11.356
 7418SOL    HW224152   3.101   8.618  11.247
 7419SOL     OW24153  10.098   2.797   7.012
 7419SOL    HW124154  10.014   2.770   6.975
 7419SOL    HW224155  10.162   2.737   6.972
 7420SOL     OW24156  10.907   5.856   5.660
 7420SOL    HW124157  10.921   5.950   5.663
 7420SOL    HW224158  10.972   5.823   5.598
 7421SOL     OW24159   4.099  13.333  13.541
 7421SOL    HW124160   4.128  13.417  13.507
 7421SOL    HW224161   4.148  13.321  13.622
 7422SOL     OW24162   4.960   1.867  14.349
 7422SOL    HW124163   4.881   1.919  14.339
 7422SOL    HW224164   4.978   1.832  14.261
 7423SOL     OW24165   4.665  13.352   1.513
 7423SOL    HW124166   4.733  13.414   1.539
 7423SOL    HW224167   4.648  13.300   1.591
 7424SOL     OW24168  10.832   7.956  14.851
 7424SOL    HW124169  10.874   8.034  14.815
 7424SOL    HW224170  10.787   7.917  14.776
 7425SOL     OW24171   9.890  11.248   9.625
 7425SOL    HW124172   9.815  11.293   9.665
 7425SOL    HW224173   9.898  11.288   9.538
 7426SOL     OW24174   0.219   2.507  13.570
 7426SOL    HW124175   0.289   2.530  13.631
 7426SOL    HW224176   0.242   2.419  13.539
 7427SOL     OW24177  11.730   9.351  10.641
 7427SOL    HW124178  11.636   9.367  10.646
 7427SOL    HW224179  11.744   9.270  10.690
 7428SOL     OW24180   0.736  11.543   4.538
 7428SOL    HW124181   0.803  11.610   4.530
 7428SOL    HW224182   0.687  11.567   4.616
 7429SOL     OW24183   1.177   2.353   5.022
 7429SOL    HW124184   1.207   2.263   5.004
 7429SOL    HW224185   1.252   2.396   5.062
 7430SOL     OW24186   6.059   9.426   9.562
 7430SOL    HW124187   5.992   9.476   9.609
 7430SOL    HW224188   6.015   9.345   9.537
 7431SOL     OW24189   0.832   3.206   7.775
 7431SOL    HW124190   0.819   3.266   7.701
 7431SOL    HW224191   0.905   3.245   7.824
 7432SOL     OW24192  11.115   7.864   2.417
 7432SOL    HW124193  11.083   7.889   2.504
 7432SOL    HW224194  11.090   7.937   2.361
 7433SOL     OW24195  11.049  12.481  12.528
 7433SOL    HW124196  11.119  12.419  12.548
 7433SOL    HW224197  10.968  12.435  12.551
 7434SOL     OW24198   1.833   5.326   8.925
 7434SOL    HW124199   1.855   5.373   8.844
 7434SOL    HW224200   1.903   5.262   8.935
 7435SOL     OW24201  14.145   4.316   8.240
 7435SOL    HW124202  14.215   4.361   8.192
 7435SOL    HW224203  14.190   4.254   8.296
 7436SOL     OW24204   5.961  13.279   2.341
 7436SOL    HW124205   5.921  13.354   2.384
 7436SOL    HW224206   6.044  13.312   2.308
 7437SOL     OW24207   0.412   9.512   9.547
 7437SOL    HW124208   0.444   9.453   9.615
 7437SOL    HW224209   0.487   9.523   9.488
 7438SOL     OW24210   4.193   4.338  12.938
 7438SOL    HW124211   4.114   4.292  12.908
 7438SOL    HW224212   4.160   4.416  12.981
 7439SOL     OW24213  11.297  12.488   4.746
 7439SOL    HW124214  11.206  12.477   4.722
 7439SOL    HW224215  11.298  12.481   4.842
 7440SOL     OW24216  10.805   2.247   4.992
 7440SOL    HW124217  10.780   2.253   4.900
 7440SOL    HW224218  10.807   2.338   5.022
 7441SOL     OW24219   8.416   9.323   3.078
 7441SOL    HW124220   8.470   9.258   3.123
 7441SOL    HW224221   8.388   9.383   3.147
 7442SOL     OW24222   7.790   3.748   0.635
 7442SOL    HW124223   7.743   3.686   0.690
 7442SOL    HW224224   7.739   3.753   0.554
 7443SOL     OW24225   6.621   3.366   0.889
 7443SOL    HW124226   6.665   3.407   0.964
 7443SOL    HW224227   6.591   3.440   0.836
 7444SOL     OW24228  10.526  14.824   1.584
 7444SOL    HW124229  10.521  14.744   1.532
 7444SOL    HW224230  10.620  14.842   1.590
 7445SOL     OW24231   5.396   7.467   6.120
 7445SOL    HW124232   5.366   7.377   6.134
 7445SOL    HW224233   5.326   7.521   6.158
 7446SOL     OW24234  11.990   2.259  12.851
 7446SOL    HW124235  12.049   2.213  12.911
 7446SOL    HW224236  11.908   2.209  12.856
 7447SOL     OW24237   6.168   8.709   1.257
 7447SOL    HW124238   6.081   8.716   1.297
 7447SOL    HW224239   6.194   8.618   1.271
 7448SOL     OW24240  11.382  13.428   4.037
 7448SOL    HW124241  11.365  13.501   3.977
 7448SOL    HW224242  11.474  13.408   4.025
 7449SOL     OW24243   0.290   0.868  13.600
 7449SOL    HW124244   0.247   0.867  13.685
 7449SOL    HW224245   0.243   0.934  13.550
 7450SOL     OW24246  10.451  12.692   2.046
 7450SOL    HW124247  10.546  12.705   2.039
 7450SOL    HW224248  10.420  12.693   1.955
 7451SOL     OW24249  11.764   5.570   9.334
 7451SOL    HW124250  11.859   5.585   9.337
 7451SOL    HW224251  11.750   5.525   9.251
 7452SOL     OW24252   6.665  14.597  11.898
 7452SOL    HW124253   6.666  14.555  11.812
 7452SOL    HW224254   6.582  14.646  11.900
 7453SOL     OW24255   9.480   0.113  14.460
 7453SOL    HW124256   9.459   0.155  14.543
 7453SOL    HW224257   9.550   0.051  14.481
 7454SOL     OW24258   3.981   3.251  10.314
 7454SOL    HW124259   3.976   3.311  10.389
 7454SOL    HW224260   3.914   3.284  10.253
 7455SOL     OW24261   7.279   2.965   2.120
 7455SOL    HW124262   7.220   2.890   2.132
 7455SOL    HW224263   7.261   3.021   2.195
 7456SOL     OW24264  11.250  12.779  11.107
 7456SOL    HW124265  11.308  12.837  11.157
 7456SOL    HW224266  11.175  12.834  11.086
 7457SOL     OW24267  13.010   3.880   1.729
 7457SOL    HW124268  13.009   3.785   1.739
 7457SOL    HW224269  13.004   3.895   1.635
 7458SOL     OW24270   3.475   3.476  13.593
 7458SOL    HW124271   3.380   3.488  13.588
 7458SOL    HW224272   3.511   3.539  13.530
 7459SOL     OW24273   4.821   3.831   6.367
 7459SOL    HW124274   4.830   3.801   6.277
 7459SOL    HW224275   4.878   3.908   6.373
 7460SOL     OW24276   4.070   8.102  11.281
 7460SOL    HW124277   4.133   8.079  11.349
 7460SOL    HW224278   4.031   8.019  11.254
 7461SOL     OW24279   8.474  11.667   1.954
 7461SOL    HW124280   8.392  11.682   2.000
 7461SOL    HW224281   8.495  11.751   1.914
 7462SOL     OW24282  13.761  11.818   6.996
 7462SOL    HW124283  13.737  11.764   7.071
 7462SOL    HW224284  13.848  11.851   7.017
 7463SOL     OW24285   5.425   3.085  14.032
 7463SOL    HW124286   5.387   2.997  14.031
 7463SOL    HW224287   5.352   3.143  14.008
 7464SOL     OW24288  12.316   3.378  13.919
 7464SOL    HW124289  12.390   3.385  13.858
 7464SOL    HW224290  12.315   3.461  13.965
 7465SOL     OW24291  11.992   1.655  10.276
 7465SOL    HW124292  11.943   1.606  10.343
 7465SOL    HW224293  11.930   1.721  10.245
 7466SOL     OW24294   6.719  12.632  11.426
 7466SOL    HW124295   6.672  12.667  11.501
 7466SOL    HW224296   6.651  12.601  11.366
 7467SOL     OW24297  12.024   3.887   5.298
 7467SOL    HW124298  12.030   3.836   5.379
 7467SOL    HW224299  12.093   3.953   5.306
 7468SOL     OW24300   6.216   2.472  14.198
 7468SOL    HW124301   6.162   2.445  14.124
 7468SOL    HW224302   6.298   2.503  14.159
 7469SOL     OW24303   7.790  11.643  12.177
 7469SOL    HW124304   7.716  11.584  12.191
 7469SOL    HW224305   7.860  11.606  12.230
 7470SOL     OW24306   1.337   0.054   0.945
 7470SOL    HW124307   1.318   0.140   0.982
 7470SOL    HW224308   1.432   0.045   0.951
 7471SOL     OW24309   4.546   9.777  12.838
 7471SOL    HW124310   4.495   9.700  12.865
 7471SOL    HW224311   4.481   9.841  12.811
 7472SOL     OW24312   3.905  14.106  12.682
 7472SOL    HW124313   3.895  14.059  12.764
 7472SOL    HW224314   3.973  14.170  12.699
 7473SOL     OW24315   7.097   8.507   7.963
 7473SOL    HW124316   7.134   8.549   8.041
 7473SOL    HW224317   7.150   8.540   7.891
 7474SOL     OW24318   8.641  10.009  13.632
 7474SOL    HW124319   8.622   9.931  13.684
 7474SOL    HW224320   8.557  10.032  13.592
 7475SOL     OW24321   2.783   2.807   9.892
 7475SOL    HW124322   2.867   2.845   9.864
 7475SOL    HW224323   2.773   2.837   9.983
 7476SOL     OW24324   4.355   3.746   2.731
 7476SOL    HW124325   4.374   3.814   2.796
 7476SOL    HW224326   4.290   3.690   2.773
 7477SOL     OW24327   9.712   2.158   2.490
 7477SOL    HW124328   9.740   2.201   2.570
 7477SOL    HW224329   9.700   2.066   2.515
 7478SOL     OW24330   9.264   1.292   8.185
 7478SOL    HW124331   9.185   1.315   8.137
 7478SOL    HW224332   9.295   1.212   8.144
 7479SOL     OW24333   3.826  12.382   0.145
 7479SOL    HW124334   3.821  12.398   0.051
 7479SOL    HW224335   3.914  12.410   0.170
 7480SOL     OW24336  14.720  13.781   9.751
 7480SOL    HW124337  14.771  13.747   9.677
 7480SOL    HW224338  14.645  13.723   9.756
 7481SOL     OW24339   0.699   1.970   5.220
 7481SOL    HW124340   0.714   1.998   5.130
 7481SOL    HW224341   0.653   2.044   5.261
 7482SOL     OW24342   2.048   6.434  10.109
 7482SOL    HW124343   1.960   6.472  10.121
 7482SOL    HW224344   2.060   6.434  10.014
 7483SOL     OW24345  13.796  11.490   5.542
 7483SOL    HW124346  13.805  11.547   5.618
 7483SOL    HW224347  13.855  11.528   5.477
 7484SOL     OW24348   5.400   7.786   3.224
 7484SOL    HW124349   5.408   7.721   3.293
 7484SOL    HW224350   5.431   7.742   3.145
 7485SOL     OW24351  11.577  13.007  13.474
 7485SOL    HW124352  11.623  12.946  13.532
 7485SOL    HW224353  11.604  12.981  13.386
 7486SOL     OW24354  12.140  13.490   3.041
 7486SOL    HW124355  12.192  13.475   2.962
 7486SOL    HW224356  12.067  13.428   3.034
 7487SOL     OW24357   4.384   9.642   9.819
 7487SOL    HW124358   4.449   9.712   9.815
 7487SOL    HW224359   4.373   9.624   9.912
 7488SOL     OW24360   6.093   4.196   2.497
 7488SOL    HW124361   5.999   4.211   2.506
 7488SOL    HW224362   6.130   4.237   2.575
 7489SOL     OW24363   0.685   2.516  10.926
 7489SOL    HW124364   0.596   2.485  10.946
 7489SOL    HW224365   0.679   2.612  10.934
 7490SOL     OW24366   0.071  14.836   0.474
 7490SOL    HW124367  14.863  14.874   0.467
 7490SOL    HW224368   0.077  14.774   0.402
 7491SOL     OW24369   3.911  11.630  13.135
 7491SOL    HW124370   3.907  11.705  13.194
 7491SOL    HW224371   3.933  11.667  13.050
 7492SOL     OW24372   4.103  12.295   5.063
 7492SOL    HW124373   4.096  12.262   4.973
 7492SOL    HW224374   4.149  12.225   5.110
 7493SOL     OW24375  10.191  13.310   9.534
 7493SOL    HW124376  10.222  13.375   9.597
 7493SOL    HW224377  10.131  13.255   9.583
 7494SOL     OW24378  12.826   4.716   8.928
 7494SOL    HW124379  12.774   4.637   8.914
 7494SOL    HW224380  12.914   4.683   8.946
 7495SOL     OW24381   8.390   7.488  11.651
 7495SOL    HW124382   8.399   7.395  11.672
 7495SOL    HW224383   8.342   7.525  11.725
 7496SOL     OW24384   8.435   1.432   0.784
 7496SOL    HW124385   8.440   1.496   0.855
 7496SOL    HW224386   8.451   1.348   0.827
 7497SOL     OW24387   7.735  14.869   2.669
 7497SOL    HW124388   7.652  14.851   2.625
 7497SOL    HW224389   7.710   0.030   2.752
 7498SOL     OW24390  13.449   0.013   8.042
 7498SOL    HW124391  13.448  14.815   7.987
 7498SOL    HW224392  13.400   0.078   7.993
 7499SOL     OW24393   2.800   5.944   1.113
 7499SOL    HW124394   2.809   6.004   1.039
 7499SOL    HW224395   2.750   5.870   1.078
 7500SOL     OW24396   0.935   7.252   2.850
 7500SOL    HW124397   0.997   7.215   2.787
 7500SOL    HW224398   0.984   7.322   2.893
 7501SOL     OW24399   2.212   5.691   4.494
 7501SOL    HW124400   2.263   5.669   4.572
 7501SOL    HW224401   2.121   5.689   4.525
 7502SOL     OW24402   8.498   8.339  13.799
 7502SOL    HW124403   8.473   8.249  13.780
 7502SOL    HW224404   8.571   8.331  13.861
 7503SOL     OW24405  13.084   7.068  12.019
 7503SOL    HW124406  13.145   7.047  12.089
 7503SOL    HW224407  13.011   7.112  12.063
 7504SOL     OW24408   2.709   4.488   9.971
 7504SOL    HW124409   2.706   4.424  10.042
 7504SOL    HW224410   2.797   4.526   9.978
 7505SOL     OW24411   2.828   8.929  12.045
 7505SOL    HW124412   2.749   8.926  12.099
 7505SOL    HW224413   2.798   8.962  11.961
 7506SOL     OW24414   5.694   4.719   9.884
 7506SOL    HW124415   5.645   4.756   9.957
 7506SOL    HW224416   5.763   4.666   9.926
 7507SOL     OW24417   0.235   4.566   8.388
 7507SOL    HW124418   0.298   4.638   8.391
 7507SOL    HW224419   0.219   4.552   8.295
 7508SOL     OW24420  11.244  12.827   4.928
 7508SOL    HW124421  11.335  12.821   4.898
 7508SOL    HW224422  11.234  12.918   4.957
 7509SOL     OW24423  11.069   6.038   7.585
 7509SOL    HW124424  11.026   6.007   7.665
 7509SOL    HW224425  11.022   5.995   7.514
 7510SOL     OW24426   3.329   6.587   4.030
 7510SOL    HW124427   3.237   6.608   4.045
 7510SOL    HW224428   3.349   6.624   3.944
 7511SOL     OW24429  11.837  14.857   0.646
 7511SOL    HW124430  11.854   0.059   0.601
 7511SOL    HW224431  11.751  14.870   0.688
 7512SOL     OW24432   7.854  11.017   6.407
 7512SOL    HW124433   7.773  10.985   6.366
 7512SOL    HW224434   7.840  11.004   6.501
 7513SOL     OW24435   6.042  14.295   7.117
 7513SOL    HW124436   6.008  14.382   7.095
 7513SOL    HW224437   6.072  14.260   7.033
 7514SOL     OW24438   9.231   6.729  13.890
 7514SOL    HW124439   9.150   6.750  13.936
 7514SOL    HW224440   9.296   6.717  13.959
 7515SOL     OW24441  11.273  12.299   6.629
 7515SOL    HW124442  11.284  12.331   6.539
 7515SOL    HW224443  11.295  12.206   6.623
 7516SOL     OW24444   9.963  10.037   6.154
 7516SOL    HW124445   9.912  10.078   6.085
 7516SOL    HW224446   9.976   9.947   6.124
 7517SOL     OW24447   1.067  14.193  11.433
 7517SOL    HW124448   1.149  14.237  11.454
 7517SOL    HW224449   1.086  14.100  11.443
 7518SOL     OW24450   0.442   6.164   5.669
 7518SOL    HW124451   0.398   6.210   5.597
 7518SOL    HW224452   0.379   6.167   5.741
 7519SOL     OW24453   8.336  10.214   1.684
 7519SOL    HW124454   8.270  10.144   1.690
 7519SOL    HW224455   8.349  10.227   1.590
 7520SOL     OW24456   4.335   3.498   0.290
 7520SOL    HW124457   4.276   3.509   0.365
 7520SOL    HW224458   4.276   3.484   0.216
 7521SOL     OW24459   6.531  13.830   8.165
 7521SOL    HW124460   6.446  13.871   8.149
 7521SOL    HW224461   6.528  13.807   8.258
 7522SOL     OW24462   9.164  10.748  13.509
 7522SOL    HW124463   9.182  10.657  13.532
 7522SOL    HW224464   9.102  10.778  13.575
 7523SOL     OW24465   5.329   9.521   2.198
 7523SOL    HW124466   5.284   9.479   2.124
 7523SOL    HW224467   5.339   9.450   2.262
 7524SOL     OW24468  12.295   6.824   8.021
 7524SOL    HW124469  12.312   6.847   8.112
 7524SOL    HW224470  12.216   6.874   7.998
 7525SOL     OW24471  14.101  11.782   3.148
 7525SOL    HW124472  14.024  11.761   3.095
 7525SOL    HW224473  14.066  11.802   3.235
 7526SOL     OW24474  10.918   0.311  12.951
 7526SOL    HW124475  10.995   0.355  12.987
 7526SOL    HW224476  10.945   0.220  12.941
 7527SOL     OW24477   7.811   0.175  13.911
 7527SOL    HW124478   7.785   0.252  13.960
 7527SOL    HW224479   7.905   0.165  13.931
 7528SOL     OW24480   2.582   7.328  11.954
 7528SOL    HW124481   2.557   7.420  11.945
 7528SOL    HW224482   2.603   7.318  12.047
 7529SOL     OW24483   7.897   6.455  11.989
 7529SOL    HW124484   7.956   6.516  12.032
 7529SOL    HW224485   7.901   6.478  11.896
 7530SOL     OW24486   3.315  10.733   1.181
 7530SOL    HW124487   3.259  10.780   1.119
 7530SOL    HW224488   3.254  10.685   1.237
 7531SOL     OW24489  12.016   1.275   7.077
 7531SOL    HW124490  12.048   1.308   6.993
 7531SOL    HW224491  11.951   1.209   7.054
 7532SOL     OW24492   1.639   8.797  14.382
 7532SOL    HW124493   1.553   8.761  14.405
 7532SOL    HW224494   1.681   8.728  14.330
 7533SOL     OW24495   0.275   8.412   2.444
 7533SOL    HW124496   0.206   8.454   2.495
 7533SOL    HW224497   0.308   8.343   2.501
 7534SOL     OW24498  11.501   1.680  11.251
 7534SOL    HW124499  11.471   1.613  11.312
 7534SOL    HW224500  11.534   1.750  11.308
 7535SOL     OW24501   1.152   6.306  10.604
 7535SOL    HW124502   1.224   6.307  10.541
 7535SOL    HW224503   1.076   6.335  10.553
 7536SOL     OW24504   5.610   5.134  14.370
 7536SOL    HW124505   5.652   5.152  14.454
 7536SOL    HW224506   5.580   5.220  14.339
 7537SOL     OW24507  12.151   1.334   8.117
 7537SOL    HW124508  12.206   1.285   8.177
 7537SOL    HW224509  12.069   1.348   8.165
 7538SOL     OW24510  10.902   1.906  13.631
 7538SOL    HW124511  10.922   1.835  13.570
 7538SOL    HW224512  10.833   1.871  13.687
 7539SOL     OW24513   1.661   6.208   7.087
 7539SOL    HW124514   1.645   6.142   7.020
 7539SOL    HW224515   1.747   6.243   7.067
 7540SOL     OW24516   0.945   6.458   8.209
 7540SOL    HW124517   0.854   6.440   8.234
 7540SOL    HW224518   0.997   6.404   8.268
 7541SOL     OW24519  10.781  11.225   7.747
 7541SOL    HW124520  10.808  11.279   7.673
 7541SOL    HW224521  10.863  11.193   7.786
 7542SOL     OW24522   8.150   5.447   0.824
 7542SOL    HW124523   8.063   5.477   0.800
 7542SOL    HW224524   8.209   5.508   0.780
 7543SOL     OW24525   4.683   7.071   2.638
 7543SOL    HW124526   4.734   7.066   2.718
 7543SOL    HW224527   4.594   7.046   2.665
 7544SOL     OW24528   4.977   8.494   2.148
 7544SOL    HW124529   5.017   8.456   2.070
 7544SOL    HW224530   5.045   8.487   2.215
 7545SOL     OW24531   4.358   6.620   1.454
 7545SOL    HW124532   4.453   6.632   1.447
 7545SOL    HW224533   4.331   6.590   1.368
 7546SOL     OW24534   2.726  13.498   6.786
 7546SOL    HW124535   2.699  13.411   6.756
 7546SOL    HW224536   2.682  13.558   6.725
 7547SOL     OW24537   9.614  10.541   6.131
 7547SOL    HW124538   9.565  10.486   6.070
 7547SOL    HW224539   9.564  10.536   6.213
 7548SOL     OW24540  12.903  11.604   1.070
 7548SOL    HW124541  12.837  11.541   1.041
 7548SOL    HW224542  12.853  11.680   1.100
 7549SOL     OW24543   2.938  14.732   8.148
 7549SOL    HW124544   2.977  14.792   8.085
 7549SOL    HW224545   2.873  14.785   8.194
 7550SOL     OW24546   6.711   4.322   0.991
 7550SOL    HW124547   6.795   4.348   1.030
 7550SOL    HW224548   6.730   4.240   0.945
 7551SOL     OW24549  14.377  11.619  12.233
 7551SOL    HW124550  14.354  11.580  12.149
 7551SOL    HW224551  14.299  11.607  12.287
 7552SOL     OW24552   6.360   2.278   2.964
 7552SOL    HW124553   6.357   2.346   3.031
 7552SOL    HW224554   6.450   2.246   2.966
 7553SOL     OW24555   7.850   0.632  14.679
 7553SOL    HW124556   7.823   0.570  14.746
 7553SOL    HW224557   7.769   0.659  14.636
 7554SOL     OW24558   0.872  14.361  14.305
 7554SOL    HW124559   0.813  14.399  14.240
 7554SOL    HW224560   0.890  14.273  14.272
 7555SOL     OW24561  14.386   5.574  12.442
 7555SOL    HW124562  14.302   5.621  12.448
 7555SOL    HW224563  14.443   5.619  12.504
 7556SOL     OW24564   7.847   0.841   0.257
 7556SOL    HW124565   7.927   0.875   0.297
 7556SOL    HW224566   7.849   0.875   0.168
 7557SOL     OW24567   4.821   4.014  12.195
 7557SOL    HW124568   4.853   3.948  12.133
 7557SOL    HW224569   4.888   4.083  12.193
 7558SOL     OW24570  13.250  14.660  14.651
 7558SOL    HW124571  13.205  14.666  14.567
 7558SOL    HW224572  13.251  14.567  14.671
 7559SOL     OW24573   1.150   6.778   4.318
 7559SOL    HW124574   1.086   6.792   4.248
 7559SOL    HW224575   1.216   6.720   4.280
 7560SOL     OW24576   3.832  12.523   6.883
 7560SOL    HW124577   3.881  12.554   6.959
 7560SOL    HW224578   3.800  12.603   6.841
 7561SOL     OW24579   1.757   0.347   1.850
 7561SOL    HW124580   1.816   0.413   1.886
 7561SOL    HW224581   1.813   0.272   1.832
 7562SOL     OW24582   2.864   4.270  10.498
 7562SOL    HW124583   2.857   4.174  10.495
 7562SOL    HW224584   2.956   4.288  10.482
 7563SOL     OW24585  10.408   2.317   2.006
 7563SOL    HW124586  10.407   2.409   1.980
 7563SOL    HW224587  10.500   2.297   2.021
 7564SOL     OW24588   1.267   2.434  11.353
 7564SOL    HW124589   1.177   2.427  11.321
 7564SOL    HW224590   1.258   2.443  11.448
 7565SOL     OW24591   5.943  12.595   3.444
 7565SOL    HW124592   6.029  12.636   3.452
 7565SOL    HW224593   5.922  12.566   3.533
 7566SOL     OW24594   1.578   8.229   2.555
 7566SOL    HW124595   1.534   8.260   2.476
 7566SOL    HW224596   1.671   8.240   2.538
 7567SOL     OW24597   8.359   4.298  10.516
 7567SOL    HW124598   8.332   4.333  10.431
 7567SOL    HW224599   8.308   4.346  10.580
 7568SOL     OW24600   3.488   9.862   9.163
 7568SOL    HW124601   3.451   9.881   9.077
 7568SOL    HW224602   3.532   9.778   9.153
 7569SOL     OW24603   6.356   4.110  12.304
 7569SOL    HW124604   6.381   4.021  12.279
 7569SOL    HW224605   6.423   4.166  12.263
 7570SOL     OW24606  10.887  12.114   5.032
 7570SOL    HW124607  10.955  12.089   5.093
 7570SOL    HW224608  10.835  12.034   5.019
 7571SOL     OW24609  10.295   4.816   9.634
 7571SOL    HW124610  10.241   4.881   9.589
 7571SOL    HW224611  10.380   4.821   9.590
 7572SOL     OW24612   6.751   6.033   5.911
 7572SOL    HW124613   6.680   5.987   5.868
 7572SOL    HW224614   6.821   6.036   5.846
 7573SOL     OW24615   2.560   5.915   2.407
 7573SOL    HW124616   2.563   5.991   2.466
 7573SOL    HW224617   2.643   5.920   2.359
 7574SOL     OW24618  10.384   0.760   0.242
 7574SOL    HW124619  10.316   0.756   0.310
 7574SOL    HW224620  10.466   0.770   0.291
 7575SOL     OW24621   2.892  10.405  11.364
 7575SOL    HW124622   2.815  10.436  11.411
 7575SOL    HW224623   2.919  10.326  11.409
 7576SOL     OW24624  12.716   9.473  10.902
 7576SOL    HW124625  12.665   9.546  10.867
 7576SOL    HW224626  12.656   9.426  10.959
 7577SOL     OW24627  10.196   5.546  11.614
 7577SOL    HW124628  10.210   5.533  11.520
 7577SOL    HW224629  10.105   5.521  11.628
 7578SOL     OW24630   9.440   6.577   5.500
 7578SOL    HW124631   9.494   6.636   5.553
 7578SOL    HW224632   9.466   6.489   5.527
 7579SOL     OW24633   4.358   8.214   5.262
 7579SOL    HW124634   4.295   8.182   5.198
 7579SOL    HW224635   4.310   8.210   5.345
 7580SOL     OW24636   0.845   2.479  10.681
 7580SOL    HW124637   0.805   2.483  10.767
 7580SOL    HW224638   0.774   2.455  10.622
 7581SOL     OW24639   6.147   2.140   8.890
 7581SOL    HW124640   6.089   2.186   8.829
 7581SOL    HW224641   6.142   2.192   8.971
 7582SOL     OW24642   3.484   3.177   0.408
 7582SOL    HW124643   3.521   3.108   0.463
 7582SOL    HW224644   3.528   3.167   0.324
 7583SOL     OW24645   9.846   8.468  11.049
 7583SOL    HW124646   9.879   8.386  11.087
 7583SOL    HW224647   9.753   8.451  11.033
 7584SOL     OW24648  10.205  13.742   5.919
 7584SOL    HW124649  10.243  13.656   5.902
 7584SOL    HW224650  10.112  13.733   5.898
 7585SOL     OW24651  12.070  12.531  11.197
 7585SOL    HW124652  12.153  12.495  11.168
 7585SOL    HW224653  12.092  12.617  11.234
 7586SOL     OW24654   0.373   2.850   9.691
 7586SOL    HW124655   0.408   2.768   9.657
 7586SOL    HW224656   0.449   2.908   9.699
 7587SOL     OW24657   0.615  13.619   8.414
 7587SOL    HW124658   0.665  13.655   8.487
 7587SOL    HW224659   0.580  13.696   8.369
 7588SOL     OW24660  13.516   4.166   4.466
 7588SOL    HW124661  13.530   4.147   4.559
 7588SOL    HW224662  13.535   4.259   4.457
 7589SOL     OW24663   7.534  11.190  11.164
 7589SOL    HW124664   7.514  11.117  11.106
 7589SOL    HW224665   7.475  11.179  11.238
 7590SOL     OW24666   4.999  12.974   1.400
 7590SOL    HW124667   4.947  12.911   1.351
 7590SOL    HW224668   4.961  12.974   1.488
 7591SOL     OW24669  14.230  10.184   5.207
 7591SOL    HW124670  14.192  10.096   5.210
 7591SOL    HW224671  14.280  10.191   5.289
 7592SOL     OW24672   9.429   5.872   5.643
 7592SOL    HW124673   9.487   5.852   5.569
 7592SOL    HW224674   9.411   5.966   5.634
 7593SOL     OW24675  12.088  10.037   0.239
 7593SOL    HW124676  12.146  10.086   0.181
 7593SOL    HW224677  12.129  10.042   0.325
 7594SOL     OW24678   8.558   6.974  14.641
 7594SOL    HW124679   8.554   7.016  14.555
 7594SOL    HW224680   8.544   7.046  14.703
 7595SOL     OW24681   5.847   5.572  11.064
 7595SOL    HW124682   5.937   5.541  11.066
 7595SOL    HW224683   5.848   5.655  11.113
 7596SOL     OW24684   2.433   1.284  10.534
 7596SOL    HW124685   2.435   1.245  10.622
 7596SOL    HW224686   2.395   1.216  10.479
 7597SOL     OW24687   0.189   1.918   0.536
 7597SOL    HW124688   0.220   1.836   0.498
 7597SOL    HW224689   0.093   1.910   0.537
 7598SOL     OW24690   8.172  11.149   5.689
 7598SOL    HW124691   8.149  11.056   5.701
 7598SOL    HW224692   8.250  11.162   5.741
 7599SOL     OW24693   1.219  13.088   1.465
 7599SOL    HW124694   1.180  13.005   1.494
 7599SOL    HW224695   1.172  13.155   1.515
 7600SOL     OW24696   2.843   3.639  10.461
 7600SOL    HW124697   2.851   3.602  10.373
 7600SOL    HW224698   2.776   3.585  10.503
 7601SOL     OW24699   3.878   2.684   2.509
 7601SOL    HW124700   3.905   2.721   2.425
 7601SOL    HW224701   3.788   2.656   2.495
 7602SOL     OW24702   2.066   7.837   6.116
 7602SOL    HW124703   2.092   7.774   6.049
 7602SOL    HW224704   2.142   7.893   6.128
 7603SOL     OW24705  12.499  11.911   5.588
 7603SOL    HW124706  12.594  11.913   5.582
 7603SOL    HW224707  12.476  11.820   5.570
 7604SOL     OW24708   6.360   3.191   6.786
 7604SOL    HW124709   6.374   3.275   6.831
 7604SOL    HW224710   6.338   3.216   6.696
 7605SOL     OW24711   2.789   4.407   7.910
 7605SOL    HW124712   2.741   4.473   7.860
 7605SOL    HW224713   2.804   4.336   7.847
 7606SOL     OW24714   6.230  10.154  10.273
 7606SOL    HW124715   6.280  10.103  10.337
 7606SOL    HW224716   6.157  10.097  10.249
 7607SOL     OW24717  13.608  12.007   8.360
 7607SOL    HW124718  13.597  11.978   8.269
 7607SOL    HW224719  13.520  12.037   8.386
 7608SOL     OW24720  14.315   3.724   2.724
 7608SOL    HW124721  14.351   3.636   2.731
 7608SOL    HW224722  14.361   3.763   2.650
 7609SOL     OW24723   2.619   1.152   2.263
 7609SOL    HW124724   2.554   1.208   2.305
 7609SOL    HW224725   2.605   1.165   2.169
 7610SOL     OW24726   0.581   5.930   9.364
 7610SOL    HW124727   0.577   5.850   9.311
 7610SOL    HW224728   0.499   5.930   9.413
 7611SOL     OW24729   8.354   2.984  11.893
 7611SOL    HW124730   8.331   3.016  11.805
 7611SOL    HW224731   8.293   3.028  11.952
 7612SOL     OW24732   8.750  10.380  13.891
 7612SOL    HW124733   8.692  10.386  13.967
 7612SOL    HW224734   8.766  10.286  13.880
 7613SOL     OW24735   6.806   0.189   9.595
 7613SOL    HW124736   6.778   0.098   9.590
 7613SOL    HW224737   6.900   0.186   9.577
 7614SOL     OW24738   4.084   8.551   6.871
 7614SOL    HW124739   4.013   8.516   6.925
 7614SOL    HW224740   4.143   8.595   6.933
 7615SOL     OW24741   4.205   8.428  13.088
 7615SOL    HW124742   4.275   8.385  13.136
 7615SOL    HW224743   4.236   8.519  13.077
 7616SOL     OW24744   0.180  10.379   8.704
 7616SOL    HW124745   0.209  10.323   8.776
 7616SOL    HW224746   0.249  10.374   8.639
 7617SOL     OW24747   8.933   8.627  12.963
 7617SOL    HW124748   8.955   8.575  12.885
 7617SOL    HW224749   8.929   8.717  12.931
 7618SOL     OW24750  13.281  13.904   2.574
 7618SOL    HW124751  13.364  13.904   2.527
 7618SOL    HW224752  13.278  13.990   2.618
 7619SOL     OW24753   6.749   0.177   0.608
 7619SOL    HW124754   6.812   0.228   0.658
 7619SOL    HW224755   6.676   0.163   0.669
 7620SOL     OW24756   3.798   0.287   5.338
 7620SOL    HW124757   3.815   0.261   5.247
 7620SOL    HW224758   3.735   0.223   5.370
 7621SOL     OW24759   6.030  12.094   4.263
 7621SOL    HW124760   5.941  12.124   4.277
 7621SOL    HW224761   6.083  12.147   4.323
 7622SOL     OW24762   2.907   1.970   5.217
 7622SOL    HW124763   2.836   1.911   5.239
 7622SOL    HW224764   2.987   1.918   5.231
 7623SOL     OW24765   3.273  13.821   8.467
 7623SOL    HW124766   3.219  13.891   8.431
 7623SOL    HW224767   3.362  13.841   8.436
 7624SOL     OW24768   0.071  12.087  13.536
 7624SOL    HW124769   0.019  12.138  13.473
 7624SOL    HW224770   0.132  12.150  13.574
 7625SOL     OW24771   9.207  13.559   1.085
 7625SOL    HW124772   9.201  13.636   1.142
 7625SOL    HW224773   9.293  13.566   1.044
 7626SOL     OW24774  11.913   6.512   6.667
 7626SOL    HW124775  12.005   6.487   6.657
 7626SOL    HW224776  11.897   6.504   6.761
 7627SOL     OW24777  11.659   0.492   2.692
 7627SOL    HW124778  11.586   0.519   2.748
 7627SOL    HW224779  11.653   0.551   2.617
 7628SOL     OW24780  13.473   7.853   7.564
 7628SOL    HW124781  13.400   7.793   7.549
 7628SOL    HW224782  13.432   7.939   7.568
 7629SOL     OW24783  12.101  11.018   7.202
 7629SOL    HW124784  12.192  11.047   7.189
 7629SOL    HW224785  12.048  11.083   7.156
 7630SOL     OW24786   2.108   8.872   8.914
 7630SOL    HW124787   2.142   8.951   8.872
 7630SOL    HW224788   2.106   8.893   9.008
 7631SOL     OW24789   0.982   0.402   6.250
 7631SOL    HW124790   1.055   0.430   6.305
 7631SOL    HW224791   0.984   0.463   6.176
 7632SOL     OW24792   9.792  12.876   2.435
 7632SOL    HW124793   9.880  12.901   2.462
 7632SOL    HW224794   9.805  12.826   2.354
 7633SOL     OW24795   9.406   8.182  12.531
 7633SOL    HW124796   9.393   8.119  12.460
 7633SOL    HW224797   9.485   8.152  12.575
 7634SOL     OW24798   2.269  13.353   9.308
 7634SOL    HW124799   2.207  13.373   9.377
 7634SOL    HW224800   2.287  13.259   9.318
 7635SOL     OW24801   6.808   4.286   0.106
 7635SOL    HW124802   6.877   4.310   0.167
 7635SOL    HW224803   6.854   4.252   0.029
 7636SOL     OW24804  14.562  12.992   4.822
 7636SOL    HW124805  14.506  12.966   4.749
 7636SOL    HW224806  14.631  13.045   4.781
 7637SOL     OW24807   4.629   0.271   2.682
 7637SOL    HW124808   4.656   0.220   2.757
 7637SOL    HW224809   4.678   0.234   2.608
 7638SOL     OW24810   1.674   9.568  12.481
 7638SOL    HW124811   1.754   9.619  12.464
 7638SOL    HW224812   1.702   9.477  12.472
 7639SOL     OW24813   3.606   0.065  13.832
 7639SOL    HW124814   3.540   0.000  13.859
 7639SOL    HW224815   3.620   0.119  13.909
 7640SOL     OW24816   8.614   5.764   2.320
 7640SOL    HW124817   8.591   5.832   2.256
 7640SOL    HW224818   8.543   5.767   2.384
 7641SOL     OW24819  10.061   4.612   6.855
 7641SOL    HW124820   9.971   4.622   6.823
 7641SOL    HW224821  10.086   4.524   6.826
 7642SOL     OW24822   4.227   0.226  11.809
 7642SOL    HW124823   4.220   0.290  11.738
 7642SOL    HW224824   4.315   0.239  11.845
 7643SOL     OW24825   9.485   7.182  14.208
 7643SOL    HW124826   9.430   7.258  14.229
 7643SOL    HW224827   9.527   7.205  14.125
 7644SOL     OW24828  14.245  13.847   5.141
 7644SOL    HW124829  14.156  13.851   5.107
 7644SOL    HW224830  14.286  13.929   5.113
 7645SOL     OW24831   1.899  14.517   0.118
 7645SOL    HW124832   1.861  14.586   0.064
 7645SOL    HW224833   1.824  14.473   0.157
 7646SOL     OW24834   1.486   7.220  12.561
 7646SOL    HW124835   1.453   7.304  12.531
 7646SOL    HW224836   1.514   7.176  12.480
 7647SOL     OW24837   9.511  14.273   1.377
 7647SOL    HW124838   9.542  14.252   1.465
 7647SOL    HW224839   9.459  14.353   1.389
 7648SOL     OW24840   5.016   6.237   2.228
 7648SOL    HW124841   4.941   6.191   2.265
 7648SOL    HW224842   5.083   6.169   2.217
 7649SOL     OW24843   6.460  10.176   5.394
 7649SOL    HW124844   6.375  10.179   5.438
 7649SOL    HW224845   6.521  10.147   5.462
 7650SOL     OW24846  12.400  14.592   2.421
 7650SOL    HW124847  12.396  14.688   2.422
 7650SOL    HW224848  12.393  14.569   2.329
 7651SOL     OW24849   1.351   0.923  14.630
 7651SOL    HW124850   1.446   0.931  14.616
 7651SOL    HW224851   1.313   0.998  14.585
 7652SOL     OW24852   6.469   2.354  12.081
 7652SOL    HW124853   6.478   2.393  11.994
 7652SOL    HW224854   6.541   2.392  12.132
 7653SOL     OW24855   8.084  11.027   0.475
 7653SOL    HW124856   7.989  11.025   0.464
 7653SOL    HW224857   8.103  11.118   0.498
 7654SOL     OW24858  11.079   0.579   5.431
 7654SOL    HW124859  11.061   0.658   5.481
 7654SOL    HW224860  11.156   0.541   5.472
 7655SOL     OW24861   1.046   6.255   0.763
 7655SOL    HW124862   1.109   6.261   0.835
 7655SOL    HW224863   1.098   6.238   0.686
 7656SOL     OW24864   9.581   1.869  10.711
 7656SOL    HW124865   9.641   1.866  10.785
 7656SOL    HW224866   9.582   1.780  10.675
 7657SOL     OW24867  11.509   7.493  14.599
 7657SOL    HW124868  11.557   7.561  14.647
 7657SOL    HW224869  11.425   7.486  14.643
 7658SOL     OW24870   5.225  10.032   2.373
 7658SOL    HW124871   5.190   9.947   2.347
 7658SOL    HW224872   5.310  10.011   2.413
 7659SOL     OW24873   8.389  12.158   7.670
 7659SOL    HW124874   8.463  12.098   7.675
 7659SOL    HW224875   8.373  12.170   7.577
 7660SOL     OW24876   3.911   9.614   8.011
 7660SOL    HW124877   3.938   9.676   7.944
 7660SOL    HW224878   3.987   9.608   8.070
 7661SOL     OW24879   1.512   9.903  10.373
 7661SOL    HW124880   1.499   9.819  10.330
 7661SOL    HW224881   1.486   9.968  10.308
 7662SOL     OW24882   5.324   5.496   6.929
 7662SOL    HW124883   5.338   5.537   6.843
 7662SOL    HW224884   5.236   5.525   6.955
 7663SOL     OW24885  14.621  11.192   7.706
 7663SOL    HW124886  14.677  11.130   7.659
 7663SOL    HW224887  14.589  11.142   7.781
 7664SOL     OW24888  13.713   0.448   4.614
 7664SOL    HW124889  13.735   0.356   4.632
 7664SOL    HW224890  13.701   0.452   4.520
 7665SOL     OW24891   1.632   6.301   3.691
 7665SOL    HW124892   1.665   6.390   3.699
 7665SOL    HW224893   1.634   6.266   3.780
 7666SOL     OW24894   0.699   7.410   9.898
 7666SOL    HW124895   0.632   7.472   9.867
 7666SOL    HW224896   0.747   7.386   9.820
 7667SOL     OW24897   6.565   4.936  13.612
 7667SOL    HW124898   6.640   4.976  13.657
 7667SOL    HW224899   6.576   4.842  13.626
 7668SOL     OW24900   7.934   2.814   1.860
 7668SOL    HW124901   7.911   2.862   1.940
 7668SOL    HW224902   8.030   2.814   1.859
 7669SOL     OW24903   7.808   1.765   7.466
 7669SOL    HW124904   7.837   1.811   7.388
 7669SOL    HW224905   7.715   1.748   7.451
 7670SOL     OW24906   7.999  13.432   9.134
 7670SOL    HW124907   8.085  13.402   9.163
 7670SOL    HW224908   7.952  13.453   9.215
 7671SOL     OW24909  13.070   0.382   3.105
 7671SOL    HW124910  13.046   0.361   3.195
 7671SOL    HW224911  13.123   0.461   3.112
 7672SOL     OW24912   9.946   1.334   2.017
 7672SOL    HW124913  10.006   1.291   2.078
 7672SOL    HW224914   9.887   1.264   1.988
 7673SOL     OW24915  11.513   2.393   6.537
 7673SOL    HW124916  11.420   2.375   6.522
 7673SOL    HW224917  11.539   2.326   6.601
 7674SOL     OW24918  14.100  14.751   5.736
 7674SOL    HW124919  14.080  14.831   5.686
 7674SOL    HW224920  14.035  14.688   5.707
 7675SOL     OW24921  11.634   9.771  14.835
 7675SOL    HW124922  11.660   9.786  14.744
 7675SOL    HW224923  11.576   9.695  14.831
 7676SOL     OW24924  12.153   6.538  14.686
 7676SOL    HW124925  12.186   6.526  14.597
 7676SOL    HW224926  12.207   6.480  14.740
 7677SOL     OW24927   3.049   6.967   3.372
 7677SOL    HW124928   3.031   6.950   3.464
 7677SOL    HW224929   3.091   6.888   3.339
 7678SOL     OW24930   9.313   5.268   4.775
 7678SOL    HW124931   9.393   5.298   4.816
 7678SOL    HW224932   9.298   5.329   4.703
 7679SOL     OW24933   8.535  13.310  13.772
 7679SOL    HW124934   8.623  13.342  13.794
 7679SOL    HW224935   8.497  13.285  13.856
 7680SOL     OW24936  14.369   8.759   4.280
 7680SOL    HW124937  14.448   8.751   4.226
 7680SOL    HW224938  14.402   8.759   4.370
 7681SOL     OW24939   7.032   3.559   7.338
 7681SOL    HW124940   6.971   3.631   7.354
 7681SOL    HW224941   7.102   3.598   7.286
 7682SOL     OW24942   3.766  13.530   6.452
 7682SOL    HW124943   3.767  13.625   6.442
 7682SOL    HW224944   3.753  13.497   6.363
 7683SOL     OW24945   8.963   0.060   0.533
 7683SOL    HW124946   8.998   0.069   0.622
 7683SOL    HW224947   8.868   0.066   0.545
 7684SOL     OW24948  11.510  11.503   7.539
 7684SOL    HW124949  11.506  11.553   7.457
 7684SOL    HW224950  11.584  11.444   7.528
 7685SOL     OW24951  14.788   3.417   1.278
 7685SOL    HW124952  14.769   3.383   1.191
 7685SOL    HW224953  14.776   3.342   1.337
 7686SOL     OW24954  13.361  12.900  11.093
 7686SOL    HW124955  13.421  12.908  11.019
 7686SOL    HW224956  13.362  12.986  11.134
 7687SOL     OW24957   1.410   7.150  10.163
 7687SOL    HW124958   1.367   7.209  10.101
 7687SOL    HW224959   1.442   7.077  10.109
 7688SOL     OW24960   7.843   3.101  13.101
 7688SOL    HW124961   7.864   3.009  13.083
 7688SOL    HW224962   7.853   3.145  13.016
 7689SOL     OW24963  12.531  12.523  11.890
 7689SOL    HW124964  12.587  12.446  11.883
 7689SOL    HW224965  12.442  12.487  11.895
 7690SOL     OW24966   7.934   3.795   1.734
 7690SOL    HW124967   7.886   3.714   1.714
 7690SOL    HW224968   7.984   3.774   1.813
 7691SOL     OW24969   4.430   3.109   4.295
 7691SOL    HW124970   4.401   3.041   4.234
 7691SOL    HW224971   4.513   3.077   4.329
 7692SOL     OW24972   9.874  13.838   7.337
 7692SOL    HW124973   9.903  13.874   7.253
 7692SOL    HW224974   9.857  13.746   7.319
 7693SOL     OW24975   5.361   5.354  10.609
 7693SOL    HW124976   5.314   5.379  10.529
 7693SOL    HW224977   5.443   5.403  10.605
 7694SOL     OW24978  12.275  14.503  10.777
 7694SOL    HW124979  12.291  14.542  10.691
 7694SOL    HW224980  12.235  14.574  10.828
 7695SOL     OW24981   3.275   0.795   6.123
 7695SOL    HW124982   3.239   0.754   6.044
 7695SOL    HW224983   3.224   0.758   6.195
 7696SOL     OW24984   6.015   7.301  13.276
 7696SOL    HW124985   6.003   7.393  13.301
 7696SOL    HW224986   6.011   7.253  13.359
 7697SOL     OW24987   8.568  13.626   8.344
 7697SOL    HW124988   8.648  13.613   8.395
 7697SOL    HW224989   8.500  13.579   8.393
 7698SOL     OW24990   0.748   3.791  11.587
 7698SOL    HW124991   0.786   3.708  11.617
 7698SOL    HW224992   0.777   3.855  11.652
 7699SOL     OW24993  13.076  14.438  13.874
 7699SOL    HW124994  13.031  14.354  13.867
 7699SOL    HW224995  13.156  14.427  13.823
 7700SOL     OW24996   0.583  13.111   9.395
 7700SOL    HW124997   0.641  13.069   9.331
 7700SOL    HW224998   0.642  13.160   9.452
 7701SOL     OW24999   7.309   2.392   4.316
 7701SOL    HW125000   7.391   2.343   4.322
 7701SOL    HW225001   7.333   2.474   4.274
 7702SOL     OW25002   4.473   7.182  12.039
 7702SOL    HW125003   4.537   7.153  12.103
 7702SOL    HW225004   4.523   7.233  11.976
 7703SOL     OW25005  11.534   4.654  10.560
 7703SOL    HW125006  11.465   4.717  10.538
 7703SOL    HW225007  11.487   4.573  10.579
 7704SOL     OW25008  11.726   5.690  14.343
 7704SOL    HW125009  11.654   5.645  14.388
 7704SOL    HW225010  11.699   5.782  14.341
 7705SOL     OW25011   3.080   5.414  14.155
 7705SOL    HW125012   3.115   5.440  14.240
 7705SOL    HW225013   2.991   5.449  14.153
 7706SOL     OW25014   2.435  14.749   1.448
 7706SOL    HW125015   2.408  14.657   1.447
 7706SOL    HW225016   2.482  14.761   1.365
 7707SOL     OW25017  10.443  13.851  13.707
 7707SOL    HW125018  10.419  13.773  13.758
 7707SOL    HW225019  10.539  13.854  13.712
 7708SOL     OW25020   0.207   5.782   4.957
 7708SOL    HW125021   0.228   5.690   4.943
 7708SOL    HW225022   0.220   5.824   4.872
 7709SOL     OW25023   8.002  12.392  10.317
 7709SOL    HW125024   8.019  12.455  10.387
 7709SOL    HW225025   8.023  12.439  10.236
 7710SOL     OW25026   3.992  10.812   3.533
 7710SOL    HW125027   3.913  10.866   3.535
 7710SOL    HW225028   4.055  10.866   3.486
 7711SOL     OW25029  10.035   3.547   4.021
 7711SOL    HW125030  10.001   3.523   3.935
 7711SOL    HW225031  10.099   3.616   4.003
 7712SOL     OW25032  12.912   1.235   9.629
 7712SOL    HW125033  12.892   1.257   9.538
 7712SOL    HW225034  13.008   1.242   9.634
 7713SOL     OW25035   4.530   7.699   7.585
 7713SOL    HW125036   4.480   7.780   7.593
 7713SOL    HW225037   4.562   7.699   7.495
 7714SOL     OW25038   2.776  13.083  12.203
 7714SOL    HW125039   2.811  13.011  12.151
 7714SOL    HW225040   2.826  13.081  12.284
 7715SOL     OW25041  13.478   1.677   3.154
 7715SOL    HW125042  13.407   1.734   3.182
 7715SOL    HW225043  13.557   1.731   3.161
 7716SOL     OW25044   3.494  13.349  11.203
 7716SOL    HW125045   3.426  13.321  11.264
 7716SOL    HW225046   3.456  13.335  11.117
 7717SOL     OW25047   6.964  12.917   6.196
 7717SOL    HW125048   7.015  12.862   6.137
 7717SOL    HW225049   6.873  12.900   6.173
 7718SOL     OW25050  14.594   8.637   0.052
 7718SOL    HW125051  14.567   8.575   0.119
 7718SOL    HW225052  14.514   8.685   0.030
 7719SOL     OW25053   6.266  12.399   4.963
 7719SOL    HW125054   6.189  12.430   4.914
 7719SOL    HW225055   6.237  12.395   5.054
 7720SOL     OW25056   9.856   0.738  13.827
 7720SOL    HW125057   9.837   0.772  13.740
 7720SOL    HW225058   9.936   0.783  13.854
 7721SOL     OW25059   8.984   2.705   5.641
 7721SOL    HW125060   8.890   2.693   5.647
 7721SOL    HW225061   9.021   2.650   5.709
 7722SOL     OW25062   1.884   7.576   5.800
 7722SOL    HW125063   1.899   7.546   5.711
 7722SOL    HW225064   1.796   7.545   5.821
 7723SOL     OW25065   2.186  12.228  11.774
 7723SOL    HW125066   2.093  12.209  11.787
 7723SOL    HW225067   2.197  12.229  11.679
 7724SOL     OW25068  11.418   2.018  10.909
 7724SOL    HW125069  11.464   2.065  10.839
 7724SOL    HW225070  11.416   1.927  10.879
 7725SOL     OW25071   5.278  12.856  12.072
 7725SOL    HW125072   5.298  12.811  12.154
 7725SOL    HW225073   5.212  12.921  12.096
 7726SOL     OW25074  10.866   4.388   7.519
 7726SOL    HW125075  10.960   4.383   7.505
 7726SOL    HW225076  10.829   4.322   7.460
 7727SOL     OW25077   5.069   5.047   0.820
 7727SOL    HW125078   5.050   4.975   0.880
 7727SOL    HW225079   5.164   5.043   0.807
 7728SOL     OW25080   7.724   8.641  11.865
 7728SOL    HW125081   7.804   8.669  11.819
 7728SOL    HW225082   7.696   8.562  11.818
 7729SOL     OW25083   1.864   9.306   3.668
 7729SOL    HW125084   1.956   9.306   3.641
 7729SOL    HW225085   1.838   9.215   3.663
 7730SOL     OW25086   2.526  13.127  11.779
 7730SOL    HW125087   2.568  13.045  11.752
 7730SOL    HW225088   2.582  13.160  11.849
 7731SOL     OW25089   9.040  14.802   0.950
 7731SOL    HW125090   8.964  14.807   0.893
 7731SOL    HW225091   9.040  14.713   0.985
 7732SOL     OW25092   6.424  12.048   3.963
 7732SOL    HW125093   6.388  12.049   3.875
 7732SOL    HW225094   6.495  11.984   3.959
 7733SOL     OW25095  14.500   6.228   2.161
 7733SOL    HW125096  14.437   6.225   2.089
 7733SOL    HW225097  14.450   6.262   2.235
 7734SOL     OW25098   3.923  13.707  12.041
 7734SOL    HW125099   3.830  13.686  12.046
 7734SOL    HW225100   3.943  13.747  12.126
 7735SOL     OW25101   9.666  12.640   9.523
 7735SOL    HW125102   9.660  12.696   9.446
 7735SOL    HW225103   9.725  12.569   9.497
 7736SOL     OW25104   4.153   4.908   5.324
 7736SOL    HW125105   4.234   4.861   5.300
 7736SOL    HW225106   4.084   4.844   5.309
 7737SOL     OW25107   7.321   1.527   4.648
 7737SOL    HW125108   7.256   1.578   4.696
 7737SOL    HW225109   7.278   1.503   4.567
 7738SOL     OW25110   4.985   5.299   0.699
 7738SOL    HW125111   4.956   5.324   0.787
 7738SOL    HW225112   5.005   5.206   0.706
 7739SOL     OW25113  10.063   2.824   0.246
 7739SOL    HW125114  10.049   2.744   0.297
 7739SOL    HW225115  10.021   2.893   0.297
 7740SOL     OW25116  13.990  10.677  13.962
 7740SOL    HW125117  13.925  10.606  13.967
 7740SOL    HW225118  14.020  10.676  13.871
 7741SOL     OW25119   9.829  10.845   8.538
 7741SOL    HW125120   9.882  10.925   8.539
 7741SOL    HW225121   9.804  10.834   8.446
 7742SOL     OW25122   2.712  11.899  13.338
 7742SOL    HW125123   2.702  11.927  13.247
 7742SOL    HW225124   2.790  11.843  13.337
 7743SOL     OW25125  10.069   5.057   7.796
 7743SOL    HW125126  10.102   5.039   7.708
 7743SOL    HW225127  10.115   4.994   7.852
 7744SOL     OW25128   2.824  12.766  10.185
 7744SOL    HW125129   2.778  12.811  10.256
 7744SOL    HW225130   2.768  12.692  10.163
 7745SOL     OW25131   5.890  11.759   6.743
 7745SOL    HW125132   5.878  11.773   6.837
 7745SOL    HW225133   5.837  11.828   6.701
 7746SOL     OW25134  13.483  11.223   0.627
 7746SOL    HW125135  13.475  11.314   0.596
 7746SOL    HW225136  13.571  11.197   0.601
 7747SOL     OW25137   2.144   7.403  13.866
 7747SOL    HW125138   2.216   7.415  13.929
 7747SOL    HW225139   2.128   7.308  13.868
 7748SOL     OW25140   4.603   3.182   5.514
 7748SOL    HW125141   4.664   3.123   5.558
 7748SOL    HW225142   4.519   3.166   5.556
 7749SOL     OW25143  10.224  12.799   2.205
 7749SOL    HW125144  10.258  12.808   2.293
 7749SOL    HW225145  10.287  12.742   2.160
 7750SOL     OW25146   1.419   3.372   3.353
 7750SOL    HW125147   1.514   3.385   3.344
 7750SOL    HW225148   1.404   3.284   3.318
 7751SOL     OW25149   0.546  12.730  14.651
 7751SOL    HW125150   0.607  12.657  14.642
 7751SOL    HW225151   0.487  12.722  14.576
 7752SOL     OW25152   4.827   4.280   6.350
 7752SOL    HW125153   4.907   4.259   6.302
 7752SOL    HW225154   4.763   4.215   6.320
 7753SOL     OW25155   8.635  10.814   4.054
 7753SOL    HW125156   8.703  10.858   4.106
 7753SOL    HW225157   8.666  10.724   4.044
 7754SOL     OW25158  12.203   6.486   0.390
 7754SOL    HW125159  12.242   6.426   0.327
 7754SOL    HW225160  12.129   6.439   0.426
 7755SOL     OW25161   2.375  12.016  11.879
 7755SOL    HW125162   2.303  12.066  11.842
 7755SOL    HW225163   2.415  12.075  11.943
 7756SOL     OW25164  10.092   5.300   5.039
 7756SOL    HW125165  10.153   5.374   5.046
 7756SOL    HW225166  10.149   5.223   5.039
 7757SOL     OW25167  12.751  12.767  11.569
 7757SOL    HW125168  12.689  12.695  11.565
 7757SOL    HW225169  12.767  12.790  11.477
 7758SOL     OW25170   2.610   3.848   8.627
 7758SOL    HW125171   2.636   3.837   8.718
 7758SOL    HW225172   2.565   3.933   8.625
 7759SOL     OW25173   4.643   0.686   4.607
 7759SOL    HW125174   4.659   0.664   4.515
 7759SOL    HW225175   4.719   0.653   4.654
 7760SOL     OW25176   2.590  14.196  12.119
 7760SOL    HW125177   2.591  14.263  12.050
 7760SOL    HW225178   2.641  14.234  12.190
 7761SOL     OW25179   7.853   2.498   3.231
 7761SOL    HW125180   7.844   2.433   3.301
 7761SOL    HW225181   7.808   2.576   3.264
 7762SOL     OW25182  13.880   5.119   2.571
 7762SOL    HW125183  13.966   5.143   2.604
 7762SOL    HW225184  13.837   5.074   2.644
 7763SOL     OW25185  11.129  10.716  13.811
 7763SOL    HW125186  11.192  10.731  13.741
 7763SOL    HW225187  11.164  10.765  13.885
 7764SOL     OW25188   1.643   2.933   7.778
 7764SOL    HW125189   1.600   3.015   7.801
 7764SOL    HW225190   1.606   2.868   7.838
 7765SOL     OW25191   0.002   4.012   9.348
 7765SOL    HW125192  14.804   4.065   9.333
 7765SOL    HW225193   0.000   3.993   9.442
 7766SOL     OW25194  10.907   5.073   6.397
 7766SOL    HW125195  10.884   5.019   6.321
 7766SOL    HW225196  10.824   5.090   6.441
 7767SOL     OW25197  12.839   9.020  12.493
 7767SOL    HW125198  12.925   9.062  12.488
 7767SOL    HW225199  12.803   9.029  12.404
 7768SOL     OW25200   3.325  14.043  13.104
 7768SOL    HW125201   3.403  14.041  13.160
 7768SOL    HW225202   3.349  14.100  13.031
 7769SOL     OW25203   7.499   2.600   4.486
 7769SOL    HW125204   7.458   2.609   4.401
 7769SOL    HW225205   7.442   2.649   4.546
 7770SOL     OW25206  14.781  11.622   6.913
 7770SOL    HW125207  14.701  11.667   6.885
 7770SOL    HW225208  14.809  11.670   6.990
 7771SOL     OW25209   2.267   6.562   2.529
 7771SOL    HW125210   2.218   6.620   2.471
 7771SOL    HW225211   2.201   6.503   2.566
 7772SOL     OW25212  14.530   6.181   0.790
 7772SOL    HW125213  14.446   6.139   0.804
 7772SOL    HW225214  14.591   6.108   0.775
 7773SOL     OW25215   4.906   8.150   0.828
 7773SOL    HW125216   4.932   8.179   0.916
 7773SOL    HW225217   4.867   8.228   0.788
 7774SOL     OW25218  14.535   1.036   2.183
 7774SOL    HW125219  14.444   1.063   2.198
 7774SOL    HW225220  14.585   1.078   2.252
 7775SOL     OW25221   0.985   5.232   2.192
 7775SOL    HW125222   0.980   5.303   2.256
 7775SOL    HW225223   1.073   5.239   2.154
 7776SOL     OW25224   6.575   4.117   0.130
 7776SOL    HW125225   6.639   4.182   0.102
 7776SOL    HW225226   6.559   4.138   0.222
 7777SOL     OW25227   9.464  12.357   9.548
 7777SOL    HW125228   9.507  12.376   9.632
 7777SOL    HW225229   9.488  12.266   9.530
 7778SOL     OW25230   7.879  10.172   4.140
 7778SOL    HW125231   7.856  10.129   4.222
 7778SOL    HW225232   7.834  10.121   4.073
 7779SOL     OW25233  11.106   2.734   8.836
 7779SOL    HW125234  11.200   2.727   8.854
 7779SOL    HW225235  11.068   2.656   8.878
 7780SOL     OW25236   7.460  10.245   2.899
 7780SOL    HW125237   7.551  10.268   2.917
 7780SOL    HW225238   7.425  10.218   2.984
 7781SOL     OW25239   9.177  11.924   1.681
 7781SOL    HW125240   9.108  11.894   1.621
 7781SOL    HW225241   9.169  11.866   1.757
 7782SOL     OW25242   3.994   0.240  13.760
 7782SOL    HW125243   3.988   0.311  13.824
 7782SOL    HW225244   3.918   0.253  13.703
 7783SOL     OW25245   3.797  14.309  11.629
 7783SOL    HW125246   3.756  14.292  11.714
 7783SOL    HW225247   3.769  14.235  11.575
 7784SOL     OW25248   1.831   0.680  12.225
 7784SOL    HW125249   1.848   0.773  12.240
 7784SOL    HW225250   1.815   0.644  12.313
 7785SOL     OW25251  13.392   0.161   5.036
 7785SOL    HW125252  13.483   0.143   5.057
 7785SOL    HW225253  13.355   0.197   5.117
 7786SOL     OW25254   1.927   4.656   5.371
 7786SOL    HW125255   1.884   4.633   5.454
 7786SOL    HW225256   1.941   4.750   5.377
 7787SOL     OW25257   3.187   7.496   5.709
 7787SOL    HW125258   3.265   7.516   5.657
 7787SOL    HW225259   3.207   7.531   5.796
 7788SOL     OW25260  13.359   3.104   1.578
 7788SOL    HW125261  13.304   3.161   1.524
 7788SOL    HW225262  13.322   3.111   1.666
 7789SOL     OW25263  12.757   1.808   4.059
 7789SOL    HW125264  12.751   1.792   3.965
 7789SOL    HW225265  12.817   1.882   4.068
 7790SOL     OW25266   5.340   5.071  12.497
 7790SOL    HW125267   5.413   5.058  12.437
 7790SOL    HW225268   5.263   5.045  12.447
 7791SOL     OW25269  12.961   7.821   4.740
 7791SOL    HW125270  13.046   7.778   4.744
 7791SOL    HW225271  12.912   7.785   4.814
 7792SOL     OW25272   8.223   0.051   8.983
 7792SOL    HW125273   8.189  14.874   8.913
 7792SOL    HW225274   8.195   0.008   9.063
 7793SOL     OW25275  13.911  12.630   0.523
 7793SOL    HW125276  13.899  12.658   0.432
 7793SOL    HW225277  13.905  12.711   0.574
 7794SOL     OW25278   0.226   7.526   7.510
 7794SOL    HW125279   0.241   7.554   7.419
 7794SOL    HW225280   0.257   7.435   7.512
 7795SOL     OW25281   4.479   2.644   7.864
 7795SOL    HW125282   4.572   2.653   7.841
 7795SOL    HW225283   4.458   2.724   7.912
 7796SOL     OW25284   1.542   4.293  13.348
 7796SOL    HW125285   1.537   4.226  13.415
 7796SOL    HW225286   1.451   4.313  13.326
 7797SOL     OW25287   3.461   1.538   4.563
 7797SOL    HW125288   3.518   1.543   4.486
 7797SOL    HW225289   3.482   1.617   4.613
 7798SOL     OW25290   8.490   9.389  12.381
 7798SOL    HW125291   8.557   9.410  12.315
 7798SOL    HW225292   8.447   9.473  12.398
 7799SOL     OW25293   6.628  13.019   3.403
 7799SOL    HW125294   6.606  13.112   3.405
 7799SOL    HW225295   6.684  13.005   3.479
 7800SOL     OW25296   1.081  14.816   5.040
 7800SOL    HW125297   1.079  14.744   5.103
 7800SOL    HW225298   1.147  14.876   5.073
 7801SOL     OW25299   3.336  11.616   8.264
 7801SOL    HW125300   3.379  11.692   8.305
 7801SOL    HW225301   3.408  11.557   8.242
 7802SOL     OW25302   8.563   3.532  11.977
 7802SOL    HW125303   8.539   3.570  11.892
 7802SOL    HW225304   8.631   3.590  12.011
 7803SOL     OW25305   6.531  13.338   1.352
 7803SOL    HW125306   6.493  13.286   1.423
 7803SOL    HW225307   6.614  13.295   1.332
 7804SOL     OW25308   7.633   8.577   2.743
 7804SOL    HW125309   7.691   8.652   2.759
 7804SOL    HW225310   7.545   8.613   2.752
 7805SOL     OW25311  11.095   6.024  13.871
 7805SOL    HW125312  11.042   5.946  13.890
 7805SOL    HW225313  11.086   6.078  13.949
 7806SOL     OW25314  10.774  10.704   4.652
 7806SOL    HW125315  10.749  10.666   4.736
 7806SOL    HW225316  10.701  10.761   4.628
 7807SOL     OW25317   4.820  13.785   6.078
 7807SOL    HW125318   4.849  13.862   6.029
 7807SOL    HW225319   4.862  13.711   6.035
 7808SOL     OW25320  13.313  14.710  11.919
 7808SOL    HW125321  13.363  14.642  11.965
 7808SOL    HW225322  13.356  14.719  11.834
 7809SOL     OW25323  10.512  11.352   0.066
 7809SOL    HW125324  10.425  11.313   0.072
 7809SOL    HW225325  10.557  11.301  14.878
 7810SOL     OW25326   9.008  12.849  11.517
 7810SOL    HW125327   8.976  12.759  11.520
 7810SOL    HW225328   9.036  12.862  11.426
 7811SOL     OW25329   1.638   2.250   9.837
 7811SOL    HW125330   1.697   2.324   9.825
 7811SOL    HW225331   1.552   2.289   9.852
 7812SOL     OW25332  10.400   7.920  11.881
 7812SOL    HW125333  10.404   7.844  11.822
 7812SOL    HW225334  10.368   7.991  11.826
 7813SOL     OW25335   2.529  10.123  10.438
 7813SOL    HW125336   2.501  10.127  10.529
 7813SOL    HW225337   2.608  10.069  10.439
 7814SOL     OW25338   3.189  13.805   1.737
 7814SOL    HW125339   3.276  13.764   1.734
 7814SOL    HW225340   3.136  13.751   1.679
 7815SOL     OW25341  13.116  14.629   7.921
 7815SOL    HW125342  13.127  14.549   7.972
 7815SOL    HW225343  13.049  14.608   7.856
 7816SOL     OW25344   8.908   2.339   9.419
 7816SOL    HW125345   9.000   2.347   9.393
 7816SOL    HW225346   8.890   2.419   9.468
 7817SOL     OW25347   5.261   9.183  14.129
 7817SOL    HW125348   5.343   9.205  14.084
 7817SOL    HW225349   5.267   9.228  14.214
 7818SOL     OW25350   2.209   4.742  14.831
 7818SOL    HW125351   2.138   4.803  14.816
 7818SOL    HW225352   2.246   4.768   0.036
 7819SOL     OW25353   2.993   1.486   4.306
 7819SOL    HW125354   3.086   1.463   4.308
 7819SOL    HW225355   2.949   1.403   4.284
 7820SOL     OW25356  11.372  11.479  10.692
 7820SOL    HW125357  11.396  11.518  10.608
 7820SOL    HW225358  11.296  11.425  10.671
 7821SOL     OW25359   8.650  13.661   6.526
 7821SOL    HW125360   8.605  13.735   6.486
 7821SOL    HW225361   8.734  13.656   6.480
 7822SOL     OW25362   7.294   5.354   7.721
 7822SOL    HW125363   7.375   5.326   7.679
 7822SOL    HW225364   7.251   5.272   7.746
 7823SOL     OW25365   0.322   2.865  12.248
 7823SOL    HW125366   0.249   2.804  12.243
 7823SOL    HW225367   0.284   2.945  12.286
 7824SOL     OW25368   3.032   2.896  10.401
 7824SOL    HW125369   3.076   2.850  10.473
 7824SOL    HW225370   2.939   2.883  10.418
 7825SOL     OW25371  10.395   9.813   9.902
 7825SOL    HW125372  10.375   9.735   9.954
 7825SOL    HW225373  10.399   9.782   9.812
 7826SOL     OW25374  14.423   6.908   0.206
 7826SOL    HW125375  14.436   6.876   0.296
 7826SOL    HW225376  14.348   6.858   0.174
 7827SOL     OW25377  14.012   1.779   9.704
 7827SOL    HW125378  13.975   1.703   9.660
 7827SOL    HW225379  14.028   1.750   9.794
 7828SOL     OW25380  13.731  12.600   8.725
 7828SOL    HW125381  13.675  12.557   8.660
 7828SOL    HW225382  13.788  12.530   8.757
 7829SOL     OW25383  12.880  10.236   0.013
 7829SOL    HW125384  12.846  10.195   0.093
 7829SOL    HW225385  12.911  10.322   0.042
 7830SOL     OW25386  10.076   2.475   6.890
 7830SOL    HW125387  10.145   2.541   6.893
 7830SOL    HW225388   9.995   2.525   6.893
 7831SOL     OW25389  12.363  13.737   1.936
 7831SOL    HW125390  12.393  13.723   2.026
 7831SOL    HW225391  12.285  13.683   1.927
 7832SOL     OW25392  10.789   8.218   6.656
 7832SOL    HW125393  10.745   8.142   6.618
 7832SOL    HW225394  10.845   8.182   6.724
 7833SOL     OW25395   4.934   4.897   5.224
 7833SOL    HW125396   5.005   4.919   5.165
 7833SOL    HW225397   4.870   4.967   5.212
 7834SOL     OW25398  13.568   6.194   0.678
 7834SOL    HW125399  13.581   6.130   0.609
 7834SOL    HW225400  13.473   6.201   0.687
 7835SOL     OW25401   5.777   1.571  14.782
 7835SOL    HW125402   5.802   1.483  14.809
 7835SOL    HW225403   5.691   1.585  14.821
 7836SOL     OW25404   2.193   1.782   9.227
 7836SOL    HW125405   2.099   1.765   9.226
 7836SOL    HW225406   2.229   1.713   9.282
 7837SOL     OW25407   4.475  10.732   3.002
 7837SOL    HW125408   4.554  10.686   2.975
 7837SOL    HW225409   4.432  10.756   2.920
 7838SOL     OW25410  11.475  13.262   1.971
 7838SOL    HW125411  11.387  13.230   1.951
 7838SOL    HW225412  11.502  13.310   1.893
 7839SOL     OW25413   7.081  10.612   7.954
 7839SOL    HW125414   7.078  10.615   7.858
 7839SOL    HW225415   7.071  10.519   7.975
 7840SOL     OW25416  10.734  12.706  10.766
 7840SOL    HW125417  10.664  12.669  10.714
 7840SOL    HW225418  10.782  12.631  10.801
 7841SOL     OW25419   0.435  10.806  12.369
 7841SOL    HW125420   0.530  10.816  12.370
 7841SOL    HW225421   0.414  10.771  12.456
 7842SOL     OW25422   1.103   3.957  10.860
 7842SOL    HW125423   1.025   3.909  10.834
 7842SOL    HW225424   1.077   4.006  10.938
 7843SOL     OW25425   7.480   1.889   8.139
 7843SOL    HW125426   7.569   1.858   8.124
 7843SOL    HW225427   7.425   1.811   8.134
 7844SOL     OW25428  10.282   8.441  14.155
 7844SOL    HW125429  10.238   8.404  14.079
 7844SOL    HW225430  10.373   8.411  14.147
 7845SOL     OW25431   7.388   8.550   1.660
 7845SOL    HW125432   7.454   8.483   1.645
 7845SOL    HW225433   7.361   8.538   1.752
 7846SOL     OW25434   2.155   1.128   7.246
 7846SOL    HW125435   2.232   1.092   7.290
 7846SOL    HW225436   2.091   1.141   7.316
 7847SOL     OW25437   9.367   0.076   7.992
 7847SOL    HW125438   9.347   0.144   8.056
 7847SOL    HW225439   9.331  14.875   8.029
 7848SOL     OW25440   1.104   3.881  14.252
 7848SOL    HW125441   1.094   3.795  14.210
 7848SOL    HW225442   1.190   3.912  14.222
 7849SOL     OW25443  13.936   5.284   0.639
 7849SOL    HW125444  13.975   5.264   0.724
 7849SOL    HW225445  14.011   5.288   0.579
 7850SOL     OW25446   9.241  10.234   7.381
 7850SOL    HW125447   9.156  10.278   7.388
 7850SOL    HW225448   9.231  10.155   7.434
 7851SOL     OW25449  10.979  12.315   1.907
 7851SOL    HW125450  10.908  12.313   1.970
 7851SOL    HW225451  10.975  12.402   1.868
 7852SOL     OW25452   7.262   4.690  10.492
 7852SOL    HW125453   7.273   4.746  10.414
 7852SOL    HW225454   7.175   4.652  10.482
 7853SOL     OW25455   4.714   2.537  11.899
 7853SOL    HW125456   4.776   2.523  11.970
 7853SOL    HW225457   4.760   2.508  11.820
 7854SOL     OW25458  10.166   8.163   9.823
 7854SOL    HW125459  10.215   8.083   9.801
 7854SOL    HW225460  10.234   8.231   9.829
 7855SOL     OW25461   8.331  13.521   8.062
 7855SOL    HW125462   8.361  13.609   8.038
 7855SOL    HW225463   8.321  13.524   8.157
 7856SOL     OW25464  13.324   6.202  10.726
 7856SOL    HW125465  13.290   6.144  10.794
 7856SOL    HW225466  13.269   6.185  10.650
 7857SOL     OW25467   4.055  10.464   9.294
 7857SOL    HW125468   4.102  10.437   9.215
 7857SOL    HW225469   3.963  10.448   9.273
 7858SOL     OW25470   8.653   0.742   3.827
 7858SOL    HW125471   8.699   0.800   3.766
 7858SOL    HW225472   8.693   0.758   3.912
 7859SOL     OW25473  12.267   9.009   7.935
 7859SOL    HW125474  12.198   8.960   7.981
 7859SOL    HW225475  12.311   8.944   7.881
 7860SOL     OW25476   5.334   6.640   3.241
 7860SOL    HW125477   5.253   6.603   3.204
 7860SOL    HW225478   5.305   6.686   3.319
 7861SOL     OW25479  11.363   5.059   7.773
 7861SOL    HW125480  11.426   5.010   7.721
 7861SOL    HW225481  11.369   5.149   7.742
 7862SOL     OW25482   7.800   0.773   4.599
 7862SOL    HW125483   7.712   0.805   4.579
 7862SOL    HW225484   7.823   0.816   4.681
 7863SOL     OW25485  12.761   4.718  14.646
 7863SOL    HW125486  12.738   4.710  14.739
 7863SOL    HW225487  12.695   4.775  14.609
 7864SOL     OW25488   7.234   2.712   8.013
 7864SOL    HW125489   7.327   2.690   8.016
 7864SOL    HW225490   7.229   2.782   7.947
 7865SOL     OW25491  10.326  14.878   9.716
 7865SOL    HW125492  10.343   0.032   9.628
 7865SOL    HW225493  10.347   0.071   9.774
 7866SOL     OW25494   5.751   9.821   2.901
 7866SOL    HW125495   5.722   9.730   2.892
 7866SOL    HW225496   5.845   9.817   2.886
 7867SOL     OW25497   9.887   7.415   8.834
 7867SOL    HW125498   9.952   7.485   8.832
 7867SOL    HW225499   9.899   7.369   8.750
 7868SOL     OW25500   6.478   0.447   4.476
 7868SOL    HW125501   6.514   0.531   4.448
 7868SOL    HW225502   6.472   0.453   4.571
 7869SOL     OW25503   9.866  13.842   0.710
 7869SOL    HW125504   9.891  13.788   0.785
 7869SOL    HW225505   9.781  13.879   0.733
 7870SOL     OW25506  10.467   5.492   8.367
 7870SOL    HW125507  10.377   5.462   8.357
 7870SOL    HW225508  10.462   5.563   8.431
 7871SOL     OW25509  11.817   1.912   5.849
 7871SOL    HW125510  11.741   1.958   5.813
 7871SOL    HW225511  11.874   1.982   5.880
 7872SOL     OW25512   1.000   6.164   2.899
 7872SOL    HW125513   1.029   6.232   2.960
 7872SOL    HW225514   0.964   6.095   2.955
 7873SOL     OW25515  14.074  10.271   4.855
 7873SOL    HW125516  14.078  10.216   4.933
 7873SOL    HW225517  14.021  10.221   4.792
 7874SOL     OW25518  10.856   2.066   5.660
 7874SOL    HW125519  10.932   2.032   5.707
 7874SOL    HW225520  10.880   2.156   5.638
 7875SOL     OW25521   8.706   6.209  12.273
 7875SOL    HW125522   8.751   6.294  12.279
 7875SOL    HW225523   8.766   6.147  12.313
 7876SOL     OW25524   4.996  12.209  10.454
 7876SOL    HW125525   4.916  12.259  10.466
 7876SOL    HW225526   4.968  12.117  10.460
 7877SOL     OW25527  14.750   9.657   6.083
 7877SOL    HW125528  14.751   9.745   6.044
 7877SOL    HW225529  14.685   9.609   6.032
 7878SOL     OW25530   3.707   9.633   1.036
 7878SOL    HW125531   3.627   9.656   0.989
 7878SOL    HW225532   3.731   9.712   1.084
 7879SOL     OW25533  12.253   9.759   1.249
 7879SOL    HW125534  12.256   9.667   1.223
 7879SOL    HW225535  12.162   9.774   1.277
 7880SOL     OW25536  12.126   5.053   2.257
 7880SOL    HW125537  12.069   5.070   2.331
 7880SOL    HW225538  12.196   4.998   2.293
 7881SOL     OW25539   8.237   7.428   0.629
 7881SOL    HW125540   8.332   7.436   0.638
 7881SOL    HW225541   8.225   7.346   0.581
 7882SOL     OW25542   4.536  11.369   1.306
 7882SOL    HW125543   4.471  11.389   1.373
 7882SOL    HW225544   4.494  11.394   1.223
 7883SOL     OW25545  11.801  11.062   6.917
 7883SOL    HW125546  11.742  11.055   6.992
 7883SOL    HW225547  11.743  11.063   6.841
 7884SOL     OW25548   2.555  10.932   3.744
 7884SOL    HW125549   2.595  10.847   3.726
 7884SOL    HW225550   2.496  10.947   3.670
 7885SOL     OW25551   6.470  11.468   1.429
 7885SOL    HW125552   6.509  11.556   1.435
 7885SOL    HW225553   6.395  11.472   1.488
 7886SOL     OW25554  10.401   9.695   7.594
 7886SOL    HW125555  10.449   9.705   7.676
 7886SOL    HW225556  10.358   9.609   7.602
 7887SOL     OW25557  13.903  10.997  14.182
 7887SOL    HW125558  13.957  10.936  14.233
 7887SOL    HW225559  13.964  11.042  14.125
 7888SOL     OW25560   8.820   1.596   3.389
 7888SOL    HW125561   8.770   1.545   3.324
 7888SOL    HW225562   8.753   1.635   3.445
 7889SOL     OW25563   5.911  12.927   1.576
 7889SOL    HW125564   5.833  12.875   1.594
 7889SOL    HW225565   5.984  12.871   1.603
 7890SOL     OW25566   6.056   2.408   8.286
 7890SOL    HW125567   6.136   2.459   8.276
 7890SOL    HW225568   6.012   2.415   8.202
 7891SOL     OW25569   2.100   1.868   2.377
 7891SOL    HW125570   2.118   1.962   2.389
 7891SOL    HW225571   2.080   1.860   2.283
 7892SOL     OW25572   8.813  12.962   4.496
 7892SOL    HW125573   8.780  12.873   4.512
 7892SOL    HW225574   8.779  13.013   4.569
 7893SOL     OW25575  10.846   7.444  11.228
 7893SOL    HW125576  10.806   7.442  11.141
 7893SOL    HW225577  10.773   7.460  11.288
 7894SOL     OW25578   6.951  13.581   5.807
 7894SOL    HW125579   6.930  13.495   5.844
 7894SOL    HW225580   7.021  13.615   5.864
 7895SOL     OW25581   3.333   1.631  11.055
 7895SOL    HW125582   3.381   1.626  11.137
 7895SOL    HW225583   3.298   1.543  11.041
 7896SOL     OW25584   5.728  14.229  14.539
 7896SOL    HW125585   5.786  14.221  14.463
 7896SOL    HW225586   5.648  14.183  14.514
 7897SOL     OW25587   5.523   2.047  11.432
 7897SOL    HW125588   5.522   2.042  11.527
 7897SOL    HW225589   5.613   2.025  11.408
 7898SOL     OW25590   4.394  13.741  14.050
 7898SOL    HW125591   4.402  13.717  14.143
 7898SOL    HW225592   4.416  13.834  14.048
 7899SOL     OW25593   9.976   5.775   0.220
 7899SOL    HW125594   9.941   5.857   0.254
 7899SOL    HW225595   9.989   5.791   0.127
 7900SOL     OW25596  12.288   9.933  12.490
 7900SOL    HW125597  12.194   9.917  12.492
 7900SOL    HW225598  12.328   9.846  12.484
 7901SOL     OW25599  12.683  12.602   6.520
 7901SOL    HW125600  12.752  12.545   6.554
 7901SOL    HW225601  12.729  12.669   6.470
 7902SOL     OW25602  11.467  12.615  13.998
 7902SOL    HW125603  11.419  12.695  14.019
 7902SOL    HW225604  11.403  12.558  13.956
 7903SOL     OW25605  13.622   7.568   6.436
 7903SOL    HW125606  13.611   7.473   6.437
 7903SOL    HW225607  13.710   7.582   6.400
 7904SOL     OW25608   3.814   5.670  10.231
 7904SOL    HW125609   3.740   5.715  10.273
 7904SOL    HW225610   3.783   5.650  10.143
 7905SOL     OW25611   3.948   2.129   1.272
 7905SOL    HW125612   4.026   2.184   1.280
 7905SOL    HW225613   3.913   2.148   1.184
 7906SOL     OW25614   1.921   2.622   4.524
 7906SOL    HW125615   1.952   2.667   4.445
 7906SOL    HW225616   1.973   2.541   4.527
 7907SOL     OW25617   9.844   0.964  14.765
 7907SOL    HW125618   9.938   0.979  14.768
 7907SOL    HW225619   9.814   0.981  14.855
 7908SOL     OW25620   3.409  13.891   0.387
 7908SOL    HW125621   3.352  13.815   0.385
 7908SOL    HW225622   3.368  13.954   0.327
 7909SOL     OW25623   9.245  14.035   2.758
 7909SOL    HW125624   9.227  13.957   2.812
 7909SOL    HW225625   9.186  14.102   2.793
 7910SOL     OW25626  11.865  10.025   5.052
 7910SOL    HW125627  11.830   9.939   5.031
 7910SOL    HW225628  11.943  10.007   5.106
 7911SOL     OW25629   5.049  10.889   7.801
 7911SOL    HW125630   5.031  10.798   7.824
 7911SOL    HW225631   4.964  10.924   7.773
 7912SOL     OW25632   1.786   4.884   5.499
 7912SOL    HW125633   1.755   4.968   5.534
 7912SOL    HW225634   1.814   4.903   5.410
 7913SOL     OW25635  10.238   3.903  11.734
 7913SOL    HW125636  10.187   3.926  11.657
 7913SOL    HW225637  10.268   3.814  11.719
 7914SOL     OW25638   1.605  14.203   1.664
 7914SOL    HW125639   1.592  14.182   1.572
 7914SOL    HW225640   1.543  14.273   1.682
 7915SOL     OW25641   2.019   0.715  13.898
 7915SOL    HW125642   2.082   0.749  13.962
 7915SOL    HW225643   1.934   0.732  13.937
 7916SOL     OW25644  14.460   6.365   4.523
 7916SOL    HW125645  14.367   6.384   4.511
 7916SOL    HW225646  14.487   6.324   4.441
 7917SOL     OW25647   2.501   9.438   9.309
 7917SOL    HW125648   2.487   9.400   9.223
 7917SOL    HW225649   2.507   9.532   9.293
 7918SOL     OW25650   7.280   2.119   1.442
 7918SOL    HW125651   7.290   2.051   1.375
 7918SOL    HW225652   7.233   2.076   1.513
 7919SOL     OW25653   5.480  11.992   9.787
 7919SOL    HW125654   5.520  11.966   9.869
 7919SOL    HW225655   5.483  12.088   9.788
 7920SOL     OW25656  13.306  10.374  13.250
 7920SOL    HW125657  13.229  10.353  13.198
 7920SOL    HW225658  13.380  10.350  13.193
 7921SOL     OW25659  12.153   5.104   8.292
 7921SOL    HW125660  12.147   5.042   8.365
 7921SOL    HW225661  12.243   5.094   8.260
 7922SOL     OW25662   1.170  10.907   6.085
 7922SOL    HW125663   1.255  10.923   6.043
 7922SOL    HW225664   1.189  10.907   6.179
 7923SOL     OW25665   0.714  12.955  14.075
 7923SOL    HW125666   0.748  12.867  14.086
 7923SOL    HW225667   0.749  12.985  13.992
 7924SOL     OW25668   5.965   6.860  14.719
 7924SOL    HW125669   5.909   6.838  14.794
 7924SOL    HW225670   5.904   6.897  14.654
 7925SOL     OW25671   4.257  13.057   4.696
 7925SOL    HW125672   4.249  13.151   4.710
 7925SOL    HW225673   4.188  13.037   4.632
 7926SOL     OW25674   9.720  12.207   6.239
 7926SOL    HW125675   9.698  12.124   6.281
 7926SOL    HW225676   9.734  12.268   6.311
 7927SOL     OW25677   4.312   1.472   1.299
 7927SOL    HW125678   4.238   1.479   1.238
 7927SOL    HW225679   4.319   1.558   1.339
 7928SOL     OW25680  11.256   4.802  13.952
 7928SOL    HW125681  11.212   4.871  14.001
 7928SOL    HW225682  11.187   4.765  13.896
 7929SOL     OW25683   5.015  13.806  11.156
 7929SOL    HW125684   5.006  13.852  11.239
 7929SOL    HW225685   4.928  13.811  11.116
 7930SOL     OW25686   9.656  14.411   1.042
 7930SOL    HW125687   9.611  14.490   1.012
 7930SOL    HW225688   9.739  14.443   1.078
 7931SOL     OW25689  11.348   6.174  12.276
 7931SOL    HW125690  11.439   6.188  12.305
 7931SOL    HW225691  11.332   6.242  12.211
 7932SOL     OW25692   3.919   0.230   6.301
 7932SOL    HW125693   3.951   0.161   6.360
 7932SOL    HW225694   3.940   0.198   6.214
 7933SOL     OW25695   2.552   4.801   7.242
 7933SOL    HW125696   2.465   4.839   7.251
 7933SOL    HW225697   2.567   4.754   7.324
 7934SOL     OW25698   9.406  14.478   8.376
 7934SOL    HW125699   9.312  14.494   8.380
 7934SOL    HW225700   9.427  14.431   8.457
 7935SOL     OW25701   2.228  11.057   6.412
 7935SOL    HW125702   2.140  11.087   6.432
 7935SOL    HW225703   2.242  10.982   6.469
 7936SOL     OW25704   9.791  14.248   2.962
 7936SOL    HW125705   9.768  14.162   2.927
 7936SOL    HW225706   9.867  14.276   2.911
 7937SOL     OW25707  14.077  10.503  11.094
 7937SOL    HW125708  14.151  10.515  11.153
 7937SOL    HW225709  14.013  10.569  11.121
 7938SOL     OW25710   7.572   7.324   9.902
 7938SOL    HW125711   7.505   7.333   9.970
 7938SOL    HW225712   7.654   7.316   9.950
 7939SOL     OW25713  14.159  13.664   1.440
 7939SOL    HW125714  14.108  13.727   1.491
 7939SOL    HW225715  14.136  13.682   1.349
 7940SOL     OW25716  10.765   2.751  11.879
 7940SOL    HW125717  10.778   2.845  11.895
 7940SOL    HW225718  10.759   2.713  11.967
 7941SOL     OW25719  14.632   2.633   7.872
 7941SOL    HW125720  14.565   2.599   7.932
 7941SOL    HW225721  14.667   2.710   7.918
 7942SOL     OW25722   8.690   0.475  10.428
 7942SOL    HW125723   8.708   0.534  10.354
 7942SOL    HW225724   8.595   0.482  10.440
 7943SOL     OW25725  12.226  10.671  13.564
 7943SOL    HW125726  12.248  10.588  13.607
 7943SOL    HW225727  12.306  10.724  13.572
 7944SOL     OW25728  10.055   1.688   9.172
 7944SOL    HW125729   9.970   1.643   9.163
 7944SOL    HW225730  10.103   1.636   9.236
 7945SOL     OW25731   8.227   4.007   2.237
 7945SOL    HW125732   8.298   4.016   2.174
 7945SOL    HW225733   8.237   4.081   2.296
 7946SOL     OW25734   1.518  11.998  13.243
 7946SOL    HW125735   1.540  12.082  13.283
 7946SOL    HW225736   1.423  11.992  13.251
 7947SOL     OW25737   2.338   0.710   8.128
 7947SOL    HW125738   2.377   0.733   8.044
 7947SOL    HW225739   2.410   0.716   8.191
 7948SOL     OW25740  11.884  11.821  12.574
 7948SOL    HW125741  11.832  11.811  12.495
 7948SOL    HW225742  11.948  11.750  12.570
 7949SOL     OW25743   4.879   8.934  11.786
 7949SOL    HW125744   4.912   8.855  11.829
 7949SOL    HW225745   4.809   8.964  11.844
 7950SOL     OW25746   4.490   6.517  11.809
 7950SOL    HW125747   4.511   6.585  11.746
 7950SOL    HW225748   4.562   6.455  11.803
 7951SOL     OW25749   1.765  13.169   4.162
 7951SOL    HW125750   1.826  13.097   4.175
 7951SOL    HW225751   1.733  13.190   4.250
 7952SOL     OW25752   0.234   2.293  11.424
 7952SOL    HW125753   0.229   2.375  11.376
 7952SOL    HW225754   0.315   2.251  11.392
 7953SOL     OW25755   3.371   7.317   0.033
 7953SOL    HW125756   3.301   7.379   0.015
 7953SOL    HW225757   3.333   7.256   0.097
 7954SOL     OW25758   0.596   0.269  13.024
 7954SOL    HW125759   0.551   0.190  13.055
 7954SOL    HW225760   0.525   0.329  13.000
 7955SOL     OW25761   8.300   3.013   0.523
 7955SOL    HW125762   8.233   3.081   0.530
 7955SOL    HW225763   8.365   3.037   0.589
 7956SOL     OW25764  11.272  14.411   6.770
 7956SOL    HW125765  11.280  14.440   6.679
 7956SOL    HW225766  11.363  14.401   6.800
 7957SOL     OW25767   2.393  11.760   2.308
 7957SOL    HW125768   2.395  11.676   2.262
 7957SOL    HW225769   2.316  11.805   2.272
 7958SOL     OW25770   6.174   8.338   1.600
 7958SOL    HW125771   6.153   8.258   1.648
 7958SOL    HW225772   6.117   8.336   1.524
 7959SOL     OW25773   6.513   9.449   5.728
 7959SOL    HW125774   6.492   9.363   5.766
 7959SOL    HW225775   6.544   9.429   5.640
 7960SOL     OW25776   9.372  10.559   9.498
 7960SOL    HW125777   9.430  10.569   9.574
 7960SOL    HW225778   9.353  10.465   9.495
 7961SOL     OW25779   2.170   1.178   9.470
 7961SOL    HW125780   2.090   1.136   9.438
 7961SOL    HW225781   2.235   1.109   9.470
 7962SOL     OW25782   1.560   0.191  11.273
 7962SOL    HW125783   1.505   0.130  11.322
 7962SOL    HW225784   1.628   0.216  11.335
 7963SOL     OW25785  10.084  11.497   8.347
 7963SOL    HW125786  10.020  11.504   8.418
 7963SOL    HW225787  10.060  11.416   8.301
 7964SOL     OW25788   8.187   0.827   7.350
 7964SOL    HW125789   8.098   0.802   7.377
 7964SOL    HW225790   8.223   0.871   7.428
 7965SOL     OW25791   1.557   6.407  14.483
 7965SOL    HW125792   1.598   6.421  14.568
 7965SOL    HW225793   1.497   6.481  14.473
 7966SOL     OW25794  13.114   0.066   2.079
 7966SOL    HW125795  13.116  14.869   2.136
 7966SOL    HW225796  13.051   0.125   2.119
 7967SOL     OW25797   2.876   2.790   1.709
 7967SOL    HW125798   2.919   2.874   1.723
 7967SOL    HW225799   2.873   2.750   1.796
 7968SOL     OW25800   6.270  13.839   5.259
 7968SOL    HW125801   6.208  13.904   5.228
 7968SOL    HW225802   6.247  13.758   5.213
 7969SOL     OW25803   7.443   1.926   5.812
 7969SOL    HW125804   7.430   1.991   5.743
 7969SOL    HW225805   7.531   1.891   5.796
 7970SOL     OW25806   1.598  13.418   9.757
 7970SOL    HW125807   1.669  13.378   9.807
 7970SOL    HW225808   1.547  13.343   9.724
 7971SOL     OW25809  13.964   4.468   7.788
 7971SOL    HW125810  13.956   4.399   7.722
 7971SOL    HW225811  13.943   4.425   7.870
 7972SOL     OW25812   9.022  11.452   6.157
 7972SOL    HW125813   8.967  11.374   6.161
 7972SOL    HW225814   9.112  11.418   6.155
 7973SOL     OW25815   3.075   7.950  10.190
 7973SOL    HW125816   2.990   7.916  10.219
 7973SOL    HW225817   3.134   7.875  10.192
 7974SOL     OW25818  11.482   5.506   8.928
 7974SOL    HW125819  11.529   5.587   8.910
 7974SOL    HW225820  11.518   5.475   9.012
 7975SOL     OW25821  12.615   8.365  13.357
 7975SOL    HW125822  12.541   8.308  13.378
 7975SOL    HW225823  12.587   8.413  13.279
 7976SOL     OW25824  13.161  13.983  14.093
 7976SOL    HW125825  13.255  13.972  14.082
 7976SOL    HW225826  13.124  13.897  14.074
 7977SOL     OW25827   8.643   2.412   8.900
 7977SOL    HW125828   8.673   2.343   8.842
 7977SOL    HW225829   8.652   2.492   8.849
 7978SOL     OW25830   5.909  14.623   3.422
 7978SOL    HW125831   5.895  14.605   3.515
 7978SOL    HW225832   5.996  14.587   3.404
 7979SOL     OW25833   3.175  11.722   2.831
 7979SOL    HW125834   3.259  11.761   2.806
 7979SOL    HW225835   3.173  11.728   2.927
 7980SOL     OW25836   8.978   5.776  14.087
 7980SOL    HW125837   8.956   5.731  14.006
 7980SOL    HW225838   8.978   5.869  14.064
 7981SOL     OW25839  13.666   5.077   8.419
 7981SOL    HW125840  13.760   5.081   8.407
 7981SOL    HW225841  13.647   5.143   8.487
 7982SOL     OW25842  14.566  12.165  10.149
 7982SOL    HW125843  14.606  12.111  10.081
 7982SOL    HW225844  14.472  12.144  10.144
 7983SOL     OW25845  13.912  11.418   3.548
 7983SOL    HW125846  13.999  11.422   3.509
 7983SOL    HW225847  13.914  11.482   3.619
 7984SOL     OW25848  10.697  13.274  12.880
 7984SOL    HW125849  10.757  13.318  12.941
 7984SOL    HW225850  10.746  13.199  12.847
 7985SOL     OW25851  13.600   2.550  14.386
 7985SOL    HW125852  13.545   2.561  14.464
 7985SOL    HW225853  13.652   2.630  14.382
 7986SOL     OW25854   8.232  13.539  12.105
 7986SOL    HW125855   8.300  13.591  12.148
 7986SOL    HW225856   8.277  13.496  12.032
 7987SOL     OW25857   3.416   2.984  10.362
 7987SOL    HW125858   3.493   3.040  10.347
 7987SOL    HW225859   3.452   2.895  10.363
 7988SOL     OW25860  12.313  10.005  12.215
 7988SOL    HW125861  12.316  10.015  12.310
 7988SOL    HW225862  12.350   9.918  12.199
 7989SOL     OW25863   0.740   9.885   4.074
 7989SOL    HW125864   0.796   9.838   4.012
 7989SOL    HW225865   0.801   9.921   4.139
 7990SOL     OW25866   6.042   3.147  10.043
 7990SOL    HW125867   5.989   3.193   9.977
 7990SOL    HW225868   6.058   3.061  10.006
 7991SOL     OW25869   6.902   9.642   2.146
 7991SOL    HW125870   6.971   9.595   2.100
 7991SOL    HW225871   6.891   9.723   2.097
 7992SOL     OW25872   5.969  14.695  14.372
 7992SOL    HW125873   6.029  14.669  14.301
 7992SOL    HW225874   6.014  14.768  14.415
 7993SOL     OW25875   8.328  10.463   2.776
 7993SOL    HW125876   8.371  10.425   2.852
 7993SOL    HW225877   8.280  10.390   2.737
 7994SOL     OW25878  10.028   3.212  14.877
 7994SOL    HW125879  10.097   3.272   0.026
 7994SOL    HW225880  10.033   3.214  14.781
 7995SOL     OW25881  10.240   7.063   1.377
 7995SOL    HW125882  10.320   7.030   1.418
 7995SOL    HW225883  10.257   7.055   1.283
 7996SOL     OW25884  14.761  10.084   0.260
 7996SOL    HW125885  14.683  10.053   0.215
 7996SOL    HW225886  14.786  10.012   0.317
 7997SOL     OW25887   4.536   4.950   6.242
 7997SOL    HW125888   4.489   4.871   6.216
 7997SOL    HW225889   4.618   4.917   6.279
 7998SOL     OW25890   9.628   3.269  10.653
 7998SOL    HW125891   9.587   3.340  10.604
 7998SOL    HW225892   9.628   3.194  10.593
 7999SOL     OW25893   2.032  12.019   0.837
 7999SOL    HW125894   2.056  12.081   0.906
 7999SOL    HW225895   1.936  12.017   0.839
 8000SOL     OW25896  11.279  12.178   3.959
 8000SOL    HW125897  11.191  12.142   3.956
 8000SOL    HW225898  11.297  12.205   3.869
 8001SOL     OW25899  14.478   1.306  10.393
 8001SOL    HW125900  14.461   1.333  10.483
 8001SOL    HW225901  14.465   1.385  10.341
 8002SOL     OW25902   7.572   6.147   5.559
 8002SOL    HW125903   7.521   6.226   5.542
 8002SOL    HW225904   7.551   6.125   5.650
 8003SOL     OW25905   0.105  10.582   4.232
 8003SOL    HW125906   0.044  10.613   4.298
 8003SOL    HW225907   0.053  10.577   4.152
 8004SOL     OW25908   9.035   6.968   6.321
 8004SOL    HW125909   9.100   6.903   6.293
 8004SOL    HW225910   9.022   6.951   6.414
 8005SOL     OW25911  10.052   3.433  12.114
 8005SOL    HW125912   9.997   3.462  12.187
 8005SOL    HW225913   9.999   3.369  12.067
 8006SOL     OW25914   8.162   8.717   9.180
 8006SOL    HW125915   8.086   8.768   9.208
 8006SOL    HW225916   8.200   8.684   9.261
 8007SOL     OW25917   3.571   8.862  10.959
 8007SOL    HW125918   3.655   8.858  10.913
 8007SOL    HW225919   3.561   8.953  10.985
 8008SOL     OW25920   2.911   4.745  14.240
 8008SOL    HW125921   2.844   4.728  14.174
 8008SOL    HW225922   2.897   4.837  14.265
 8009SOL     OW25923   6.561   1.308   2.875
 8009SOL    HW125924   6.592   1.218   2.862
 8009SOL    HW225925   6.476   1.311   2.832
 8010SOL     OW25926   0.260   4.531   1.999
 8010SOL    HW125927   0.253   4.513   2.093
 8010SOL    HW225928   0.212   4.613   1.988
 8011SOL     OW25929  14.178   5.281   5.992
 8011SOL    HW125930  14.238   5.341   6.037
 8011SOL    HW225931  14.137   5.334   5.924
 8012SOL     OW25932   0.271   8.472   6.127
 8012SOL    HW125933   0.182   8.462   6.161
 8012SOL    HW225934   0.280   8.566   6.112
 8013SOL     OW25935   3.243   2.343   5.164
 8013SOL    HW125936   3.253   2.318   5.072
 8013SOL    HW225937   3.332   2.342   5.199
 8014SOL     OW25938   8.018  10.364   1.384
 8014SOL    HW125939   7.973  10.443   1.352
 8014SOL    HW225940   8.072  10.336   1.310
 8015SOL     OW25941   2.548  11.648   6.788
 8015SOL    HW125942   2.495  11.723   6.762
 8015SOL    HW225943   2.484  11.582   6.817
 8016SOL     OW25944   4.877   6.519  13.882
 8016SOL    HW125945   4.877   6.565  13.798
 8016SOL    HW225946   4.854   6.428  13.859
 8017SOL     OW25947   0.967  13.292   6.000
 8017SOL    HW125948   0.979  13.386   5.984
 8017SOL    HW225949   0.873  13.282   6.014
 8018SOL     OW25950   5.479  10.077   6.615
 8018SOL    HW125951   5.453  10.076   6.707
 8018SOL    HW225952   5.465  10.167   6.587
 8019SOL     OW25953   7.444  10.514   9.308
 8019SOL    HW125954   7.484  10.585   9.357
 8019SOL    HW225955   7.459  10.536   9.216
 8020SOL     OW25956  10.044   1.853   6.393
 8020SOL    HW125957  10.063   1.826   6.483
 8020SOL    HW225958   9.952   1.880   6.394
 8021SOL     OW25959   5.479   2.567  12.591
 8021SOL    HW125960   5.481   2.657  12.625
 8021SOL    HW225961   5.519   2.514  12.660
 8022SOL     OW25962   5.274   3.756  14.143
 8022SOL    HW125963   5.201   3.694  14.143
 8022SOL    HW225964   5.301   3.761  14.051
 8023SOL     OW25965   2.058  12.207   2.571
 8023SOL    HW125966   2.151  12.212   2.548
 8023SOL    HW225967   2.049  12.260   2.650
 8024SOL     OW25968  10.968   7.063  12.329
 8024SOL    HW125969  10.908   7.114  12.384
 8024SOL    HW225970  11.036   7.032  12.388
 8025SOL     OW25971   5.012   1.772   7.781
 8025SOL    HW125972   5.001   1.757   7.687
 8025SOL    HW225973   5.087   1.719   7.806
 8026SOL     OW25974   7.215  10.586  13.380
 8026SOL    HW125975   7.218  10.621  13.291
 8026SOL    HW225976   7.299  10.611  13.418
 8027SOL     OW25977   5.059  11.310   2.487
 8027SOL    HW125978   5.000  11.239   2.464
 8027SOL    HW225979   5.137  11.267   2.522
 8028SOL     OW25980  13.884  13.519  14.097
 8028SOL    HW125981  13.807  13.566  14.128
 8028SOL    HW225982  13.935  13.503  14.177
 8029SOL     OW25983   1.395   4.309   1.155
 8029SOL    HW125984   1.444   4.366   1.214
 8029SOL    HW225985   1.458   4.242   1.128
 8030SOL     OW25986  11.235  11.153  10.792
 8030SOL    HW125987  11.245  11.148  10.697
 8030SOL    HW225988  11.315  11.114  10.827
 8031SOL     OW25989   5.160  10.094  10.707
 8031SOL    HW125990   5.167  10.112  10.801
 8031SOL    HW225991   5.127  10.005  10.702
 8032SOL     OW25992   0.077   8.008   1.123
 8032SOL    HW125993   0.164   8.048   1.115
 8032SOL    HW225994   0.037   8.020   1.037
 8033SOL     OW25995  12.675   7.078   5.363
 8033SOL    HW125996  12.720   7.133   5.299
 8033SOL    HW225997  12.736   7.006   5.380
 8034SOL     OW25998  11.898  12.998   1.449
 8034SOL    HW125999  11.843  12.930   1.409
 8034SOL    HW226000  11.837  13.051   1.500
 8035SOL     OW26001   2.991   0.850  11.924
 8035SOL    HW126002   2.973   0.890  11.839
 8035SOL    HW226003   3.080   0.816  11.916
 8036SOL     OW26004  13.601  11.861   1.555
 8036SOL    HW126005  13.563  11.886   1.639
 8036SOL    HW226006  13.538  11.799   1.518
 8037SOL     OW26007  11.302   0.224   2.819
 8037SOL    HW126008  11.244   0.266   2.755
 8037SOL    HW226009  11.294   0.131   2.801
 8038SOL     OW26010  13.979   7.617   8.249
 8038SOL    HW126011  13.921   7.692   8.235
 8038SOL    HW226012  13.928   7.541   8.221
 8039SOL     OW26013  11.713   9.295  14.091
 8039SOL    HW126014  11.786   9.235  14.104
 8039SOL    HW226015  11.688   9.285  13.999
 8040SOL     OW26016   5.110   2.586   4.717
 8040SOL    HW126017   5.020   2.570   4.745
 8040SOL    HW226018   5.118   2.538   4.634
 8041SOL     OW26019   2.956  11.379   9.503
 8041SOL    HW126020   3.027  11.323   9.473
 8041SOL    HW226021   2.982  11.406   9.591
 8042SOL     OW26022   4.040  14.448  10.613
 8042SOL    HW126023   4.006  14.476  10.528
 8042SOL    HW226024   3.967  14.464  10.674
 8043SOL     OW26025   8.057  10.255   8.063
 8043SOL    HW126026   7.977  10.216   8.027
 8043SOL    HW226027   8.062  10.341   8.021
 8044SOL     OW26028   7.131   1.895   4.140
 8044SOL    HW126029   7.138   1.967   4.078
 8044SOL    HW226030   7.040   1.866   4.134
 8045SOL     OW26031  14.303   3.835   4.038
 8045SOL    HW126032  14.271   3.893   3.969
 8045SOL    HW226033  14.260   3.752   4.023
 8046SOL     OW26034   6.323   3.947  14.513
 8046SOL    HW126035   6.322   3.981  14.602
 8046SOL    HW226036   6.336   4.023  14.458
 8047SOL     OW26037   9.545   9.717   4.973
 8047SOL    HW126038   9.483   9.666   4.921
 8047SOL    HW226039   9.601   9.760   4.910
 8048SOL     OW26040  10.669  14.706  12.647
 8048SOL    HW126041  10.750  14.754  12.629
 8048SOL    HW226042  10.603  14.774  12.658
 8049SOL     OW26043  10.528  13.058   6.402
 8049SOL    HW126044  10.443  13.026   6.371
 8049SOL    HW226045  10.506  13.134   6.456
 8050SOL     OW26046  11.363   1.415   3.163
 8050SOL    HW126047  11.275   1.376   3.161
 8050SOL    HW226048  11.404   1.378   3.241
 8051SOL     OW26049   5.750   1.937   9.085
 8051SOL    HW126050   5.821   1.889   9.041
 8051SOL    HW226051   5.765   2.028   9.062
 8052SOL     OW26052   6.968   5.275   6.917
 8052SOL    HW126053   6.894   5.327   6.949
 8052SOL    HW226054   6.941   5.248   6.829
 8053SOL     OW26055  12.882  12.247  14.680
 8053SOL    HW126056  12.860  12.155  14.671
 8053SOL    HW226057  12.918  12.272  14.595
 8054SOL     OW26058  14.453   7.181  12.595
 8054SOL    HW126059  14.479   7.099  12.637
 8054SOL    HW226060  14.498   7.179  12.510
 8055SOL     OW26061   0.234   9.398  12.933
 8055SOL    HW126062   0.265   9.398  12.843
 8055SOL    HW226063   0.182   9.318  12.941
 8056SOL     OW26064  12.332   8.494   3.568
 8056SOL    HW126065  12.302   8.539   3.647
 8056SOL    HW226066  12.412   8.541   3.543
 8057SOL     OW26067  11.218   9.032  10.879
 8057SOL    HW126068  11.147   9.087  10.911
 8057SOL    HW226069  11.234   9.064  10.790
 8058SOL     OW26070   0.045  12.519   1.114
 8058SOL    HW126071   0.088  12.469   1.184
 8058SOL    HW226072  14.854  12.566   1.159
 8059SOL     OW26073   5.721   4.485  13.363
 8059SOL    HW126074   5.632   4.504  13.393
 8059SOL    HW226075   5.740   4.398  13.396
 8060SOL     OW26076   4.460   3.222  13.215
 8060SOL    HW126077   4.373   3.209  13.177
 8060SOL    HW226078   4.444   3.283  13.288
 8061SOL     OW26079  14.077   1.266   7.619
 8061SOL    HW126080  14.059   1.347   7.666
 8061SOL    HW226081  14.132   1.293   7.545
 8062SOL     OW26082   9.207   2.887  14.217
 8062SOL    HW126083   9.133   2.875  14.276
 8062SOL    HW226084   9.220   2.982  14.213
 8063SOL     OW26085  14.321   0.948  10.637
 8063SOL    HW126086  14.354   0.987  10.556
 8063SOL    HW226087  14.331   0.853  10.624
 8064SOL     OW26088  12.201   6.573  11.868
 8064SOL    HW126089  12.166   6.485  11.856
 8064SOL    HW226090  12.133   6.631  11.833
 8065SOL     OW26091   3.024   1.521  12.420
 8065SOL    HW126092   3.092   1.458  12.444
 8065SOL    HW226093   3.014   1.576  12.497
 8066SOL     OW26094   0.949   9.617   9.128
 8066SOL    HW126095   0.959   9.711   9.139
 8066SOL    HW226096   0.855   9.604   9.113
 8067SOL     OW26097   2.655  11.307   3.238
 8067SOL    HW126098   2.642  11.235   3.177
 8067SOL    HW226099   2.568  11.324   3.274
 8068SOL     OW26100   8.492  14.796   8.192
 8068SOL    HW126101   8.501  14.853   8.269
 8068SOL    HW226102   8.569  14.815   8.139
 8069SOL     OW26103   0.808   7.736   6.469
 8069SOL    HW126104   0.806   7.772   6.558
 8069SOL    HW226105   0.885   7.776   6.429
 8070SOL     OW26106  10.097   4.624   3.508
 8070SOL    HW126107  10.006   4.596   3.516
 8070SOL    HW226108  10.133   4.614   3.596
 8071SOL     OW26109  11.512   1.709   0.022
 8071SOL    HW126110  11.513   1.805   0.032
 8071SOL    HW226111  11.591   1.689  14.853
 8072SOL     OW26112   4.113   9.043  11.518
 8072SOL    HW126113   4.143   9.087  11.439
 8072SOL    HW226114   4.171   8.967  11.526
 8073SOL     OW26115   7.581   1.350   9.743
 8073SOL    HW126116   7.499   1.384   9.707
 8073SOL    HW226117   7.637   1.427   9.755
 8074SOL     OW26118   3.697  13.389   7.951
 8074SOL    HW126119   3.767  13.333   7.916
 8074SOL    HW226120   3.737  13.431   8.027
 8075SOL     OW26121  12.957  13.740   6.099
 8075SOL    HW126122  12.922  13.827   6.077
 8075SOL    HW226123  12.961  13.739   6.194
 8076SOL     OW26124   8.965   4.645  13.486
 8076SOL    HW126125   8.996   4.631  13.576
 8076SOL    HW226126   8.977   4.560  13.443
 8077SOL     OW26127   7.003  13.243   8.302
 8077SOL    HW126128   7.011  13.293   8.383
 8077SOL    HW226129   6.914  13.206   8.305
 8078SOL     OW26130  13.158  12.138   6.393
 8078SOL    HW126131  13.213  12.095   6.327
 8078SOL    HW226132  13.127  12.217   6.350
 8079SOL     OW26133   4.859   8.602  11.898
 8079SOL    HW126134   4.868   8.579  11.806
 8079SOL    HW226135   4.898   8.529  11.946
 8080SOL     OW26136   4.796   3.686   9.876
 8080SOL    HW126137   4.728   3.741   9.837
 8080SOL    HW226138   4.752   3.603   9.895
 8081SOL     OW26139   7.744   1.187  10.034
 8081SOL    HW126140   7.676   1.245  10.068
 8081SOL    HW226141   7.699   1.130   9.972
 8082SOL     OW26142   8.681  13.868   6.877
 8082SOL    HW126143   8.612  13.818   6.921
 8082SOL    HW226144   8.708  13.813   6.804
 8083SOL     OW26145   7.224   0.577   4.879
 8083SOL    HW126146   7.210   0.646   4.813
 8083SOL    HW226147   7.138   0.534   4.886
 8084SOL     OW26148   7.014   0.364   3.396
 8084SOL    HW126149   7.001   0.407   3.311
 8084SOL    HW226150   6.926   0.333   3.420
 8085SOL     OW26151   1.541   4.632   8.974
 8085SOL    HW126152   1.479   4.602   9.041
 8085SOL    HW226153   1.572   4.552   8.932
 8086SOL     OW26154   9.814   1.663   7.731
 8086SOL    HW126155   9.790   1.670   7.823
 8086SOL    HW226156   9.844   1.751   7.707
 8087SOL     OW26157   1.997   3.567   3.009
 8087SOL    HW126158   1.985   3.639   3.071
 8087SOL    HW226159   1.923   3.573   2.950
 8088SOL     OW26160  12.532  10.674   6.996
 8088SOL    HW126161  12.564  10.765   6.993
 8088SOL    HW226162  12.589  10.626   6.937
 8089SOL     OW26163   5.308   1.536  11.775
 8089SOL    HW126164   5.391   1.502  11.740
 8089SOL    HW226165   5.316   1.631  11.769
 8090SOL     OW26166  10.103  13.836  12.712
 8090SOL    HW126167  10.075  13.745  12.726
 8090SOL    HW226168  10.051  13.886  12.774
 8091SOL     OW26169   3.496  13.349   5.098
 8091SOL    HW126170   3.522  13.261   5.124
 8091SOL    HW226171   3.571  13.383   5.049
 8092SOL     OW26172   8.254   8.824   2.068
 8092SOL    HW126173   8.327   8.834   2.007
 8092SOL    HW226174   8.206   8.906   2.063
 8093SOL     OW26175   3.960  14.125   1.073
 8093SOL    HW126176   3.969  14.063   1.145
 8093SOL    HW226177   3.913  14.075   1.005
 8094SOL     OW26178   0.960  13.501   8.188
 8094SOL    HW126179   0.876  13.501   8.141
 8094SOL    HW226180   0.940  13.463   8.273
 8095SOL     OW26181  14.871   1.387   2.254
 8095SOL    HW126182  14.809   1.432   2.311
 8095SOL    HW226183  14.830   1.389   2.167
 8096SOL     OW26184  12.461   2.840   1.864
 8096SOL    HW126185  12.433   2.931   1.868
 8096SOL    HW226186  12.380   2.790   1.863
 8097SOL     OW26187   0.806  10.547   6.299
 8097SOL    HW126188   0.821  10.480   6.365
 8097SOL    HW226189   0.728  10.594   6.329
 8098SOL     OW26190   4.195  13.753   2.097
 8098SOL    HW126191   4.285  13.764   2.067
 8098SOL    HW226192   4.195  13.785   2.187
 8099SOL     OW26193  10.588   0.547   6.000
 8099SOL    HW126194  10.533   0.529   5.924
 8099SOL    HW226195  10.535   0.522   6.075
 8100SOL     OW26196  14.800   0.654   2.675
 8100SOL    HW126197  14.850   0.614   2.746
 8100SOL    HW226198  14.711   0.662   2.709
 8101SOL     OW26199   8.725   4.337   1.839
 8101SOL    HW126200   8.733   4.273   1.769
 8101SOL    HW226201   8.788   4.406   1.816
 8102SOL     OW26202   8.987  11.925  13.570
 8102SOL    HW126203   8.926  11.867  13.525
 8102SOL    HW226204   8.932  11.977  13.629
 8103SOL     OW26205  12.024   8.100   8.091
 8103SOL    HW126206  12.108   8.061   8.116
 8103SOL    HW226207  12.043   8.193   8.079
 8104SOL     OW26208   9.078   9.602   6.332
 8104SOL    HW126209   9.102   9.672   6.271
 8104SOL    HW226210   9.070   9.645   6.417
 8105SOL     OW26211   7.344   2.892   5.911
 8105SOL    HW126212   7.349   2.987   5.907
 8105SOL    HW226213   7.281   2.868   5.844
 8106SOL     OW26214  14.380   2.769   1.945
 8106SOL    HW126215  14.370   2.674   1.947
 8106SOL    HW226216  14.423   2.790   2.028
 8107SOL     OW26217   2.673   8.957   2.343
 8107SOL    HW126218   2.633   9.020   2.402
 8107SOL    HW226219   2.621   8.961   2.263
 8108SOL     OW26220   4.019   4.752   1.706
 8108SOL    HW126221   4.005   4.809   1.781
 8108SOL    HW226222   4.018   4.810   1.631
 8109SOL     OW26223   4.783  12.630   5.451
 8109SOL    HW126224   4.875  12.612   5.468
 8109SOL    HW226225   4.753  12.680   5.527
 8110SOL     OW26226  11.950   9.675   8.126
 8110SOL    HW126227  11.879   9.697   8.186
 8110SOL    HW226228  11.908   9.631   8.052
 8111SOL     OW26229  14.515   6.036  14.623
 8111SOL    HW126230  14.518   6.115  14.568
 8111SOL    HW226231  14.581   5.978  14.585
 8112SOL     OW26232   0.133   3.425  14.143
 8112SOL    HW126233   0.163   3.420  14.052
 8112SOL    HW226234   0.073   3.500  14.143
 8113SOL     OW26235   5.929   7.391   9.688
 8113SOL    HW126236   6.001   7.404   9.626
 8113SOL    HW226237   5.852   7.424   9.642
 8114SOL     OW26238  14.264   6.728   7.822
 8114SOL    HW126239  14.294   6.637   7.822
 8114SOL    HW226240  14.181   6.726   7.774
 8115SOL     OW26241   3.675   3.124   1.036
 8115SOL    HW126242   3.750   3.072   1.063
 8115SOL    HW226243   3.713   3.199   0.990
 8116SOL     OW26244   5.450   6.413  10.248
 8116SOL    HW126245   5.445   6.329  10.204
 8116SOL    HW226246   5.543   6.423  10.270
 8117SOL     OW26247  12.488  12.568   1.151
 8117SOL    HW126248  12.414  12.618   1.116
 8117SOL    HW226249  12.449  12.493   1.194
 8118SOL     OW26250   5.226   2.069   0.741
 8118SOL    HW126251   5.226   1.983   0.783
 8118SOL    HW226252   5.264   2.127   0.807
 8119SOL     OW26253  11.403  14.563   7.605
 8119SOL    HW126254  11.391  14.648   7.562
 8119SOL    HW226255  11.386  14.499   7.536
 8120SOL     OW26256   0.173   9.156  11.956
 8120SOL    HW126257   0.125   9.239  11.961
 8120SOL    HW226258   0.192   9.145  11.863
 8121SOL     OW26259   0.466  10.291  14.858
 8121SOL    HW126260   0.453  10.337  14.776
 8121SOL    HW226261   0.387  10.307   0.029
 8122SOL     OW26262   7.122   6.846  10.146
 8122SOL    HW126263   7.082   6.915  10.199
 8122SOL    HW226264   7.163   6.892  10.073
 8123SOL     OW26265   4.467  14.861  11.758
 8123SOL    HW126266   4.483   0.059  11.810
 8123SOL    HW226267   4.402   0.009  11.694
 8124SOL     OW26268   7.889   4.302   1.816
 8124SOL    HW126269   7.798   4.298   1.845
 8124SOL    HW226270   7.896   4.234   1.750
 8125SOL     OW26271  11.445   9.392   6.560
 8125SOL    HW126272  11.448   9.443   6.479
 8125SOL    HW226273  11.371   9.332   6.547
 8126SOL     OW26274   8.552  13.786   5.639
 8126SOL    HW126275   8.502  13.866   5.623
 8126SOL    HW226276   8.636  13.817   5.672
 8127SOL     OW26277   9.366   1.321   2.485
 8127SOL    HW126278   9.395   1.385   2.549
 8127SOL    HW226279   9.274   1.341   2.471
 8128SOL     OW26280   5.585   6.914  11.192
 8128SOL    HW126281   5.664   6.871  11.160
 8128SOL    HW226282   5.593   7.005  11.163
 8129SOL     OW26283  14.748   7.769   1.844
 8129SOL    HW126284  14.698   7.692   1.872
 8129SOL    HW226285  14.686   7.841   1.848
 8130SOL     OW26286   8.657   1.090   0.276
 8130SOL    HW126287   8.590   1.054   0.334
 8130SOL    HW226288   8.625   1.177   0.253
 8131SOL     OW26289  14.191   7.737   1.961
 8131SOL    HW126290  14.202   7.810   2.022
 8131SOL    HW226291  14.221   7.772   1.877
 8132SOL     OW26292  13.164   1.210  11.587
 8132SOL    HW126293  13.183   1.120  11.613
 8132SOL    HW226294  13.237   1.261  11.621
 8133SOL     OW26295   4.594  10.583   8.406
 8133SOL    HW126296   4.685  10.568   8.432
 8133SOL    HW226297   4.574  10.512   8.345
 8134SOL     OW26298  13.414  13.893   4.581
 8134SOL    HW126299  13.469  13.966   4.553
 8134SOL    HW226300  13.434  13.882   4.674
 8135SOL     OW26301  11.114  10.839   0.188
 8135SOL    HW126302  11.022  10.861   0.174
 8135SOL    HW226303  11.155  10.852   0.103
 8136SOL     OW26304  11.408   0.415   4.848
 8136SOL    HW126305  11.402   0.329   4.890
 8136SOL    HW226306  11.349   0.409   4.772
 8137SOL     OW26307   6.270   0.791   6.596
 8137SOL    HW126308   6.332   0.730   6.556
 8137SOL    HW226309   6.187   0.774   6.551
 8138SOL     OW26310   9.708   2.273  12.322
 8138SOL    HW126311   9.783   2.230  12.281
 8138SOL    HW226312   9.670   2.206  12.380
 8139SOL     OW26313   3.987   9.101   5.031
 8139SOL    HW126314   4.023   9.187   5.008
 8139SOL    HW226315   3.908   9.094   4.977
 8140SOL     OW26316   1.115   4.121  11.707
 8140SOL    HW126317   1.159   4.093  11.627
 8140SOL    HW226318   1.125   4.216  11.709
 8141SOL     OW26319   9.095   5.335   7.316
 8141SOL    HW126320   9.110   5.404   7.381
 8141SOL    HW226321   9.090   5.255   7.368
 8142SOL     OW26322   9.376   1.366   5.024
 8142SOL    HW126323   9.354   1.459   5.020
 8142SOL    HW226324   9.438   1.353   4.951
 8143SOL     OW26325   6.478  12.316  14.047
 8143SOL    HW126326   6.552  12.354  14.094
 8143SOL    HW226327   6.456  12.380  13.980
 8144SOL     OW26328   6.996   4.318   2.194
 8144SOL    HW126329   6.917   4.364   2.219
 8144SOL    HW226330   7.021   4.268   2.271
 8145SOL     OW26331  11.721   6.386   1.003
 8145SOL    HW126332  11.700   6.399   0.910
 8145SOL    HW226333  11.734   6.475   1.036
 8146SOL     OW26334   6.412   9.393   3.900
 8146SOL    HW126335   6.455   9.339   3.833
 8146SOL    HW226336   6.460   9.374   3.980
 8147SOL     OW26337   7.188  11.823   6.331
 8147SOL    HW126338   7.234  11.834   6.414
 8147SOL    HW226339   7.257  11.806   6.267
 8148SOL     OW26340  11.141   7.106   4.132
 8148SOL    HW126341  11.179   7.018   4.141
 8148SOL    HW226342  11.048   7.094   4.148
 8149SOL     OW26343  10.568   4.505   7.186
 8149SOL    HW126344  10.599   4.584   7.230
 8149SOL    HW226345  10.638   4.482   7.125
 8150SOL     OW26346  14.015   1.793   0.769
 8150SOL    HW126347  14.095   1.819   0.814
 8150SOL    HW226348  13.960   1.872   0.772
 8151SOL     OW26349   7.945   8.587   3.161
 8151SOL    HW126350   7.867   8.586   3.216
 8151SOL    HW226351   7.956   8.679   3.136
 8152SOL     OW26352   0.363   3.805  12.393
 8152SOL    HW126353   0.438   3.781  12.448
 8152SOL    HW226354   0.297   3.738  12.412
 8153SOL     OW26355   9.707  10.959  10.746
 8153SOL    HW126356   9.680  11.007  10.824
 8153SOL    HW226357   9.736  11.027  10.685
 8154SOL     OW26358  12.863   8.251   0.548
 8154SOL    HW126359  12.780   8.287   0.518
 8154SOL    HW226360  12.852   8.240   0.642
 8155SOL     OW26361   1.010  13.277   9.916
 8155SOL    HW126362   0.944  13.340   9.943
 8155SOL    HW226363   1.025  13.224   9.994
 8156SOL     OW26364   4.961  10.518  13.660
 8156SOL    HW126365   4.924  10.463  13.730
 8156SOL    HW226366   5.056  10.510  13.672
 8157SOL     OW26367   6.012  10.292   7.072
 8157SOL    HW126368   6.100  10.278   7.107
 8157SOL    HW226369   5.991  10.211   7.026
 8158SOL     OW26370   0.559   0.257  11.399
 8158SOL    HW126371   0.640   0.224  11.436
 8158SOL    HW226372   0.525   0.318  11.465
 8159SOL     OW26373   6.936   3.257   5.303
 8159SOL    HW126374   6.863   3.209   5.265
 8159SOL    HW226375   6.913   3.350   5.292
 8160SOL     OW26376   3.861   9.223  12.150
 8160SOL    HW126377   3.896   9.293  12.097
 8160SOL    HW226378   3.831   9.266  12.231
 8161SOL     OW26379  14.634  12.655   7.007
 8161SOL    HW126380  14.592  12.737   6.981
 8161SOL    HW226381  14.715  12.651   6.956
 8162SOL     OW26382  10.611   3.298  14.664
 8162SOL    HW126383  10.525   3.266  14.689
 8162SOL    HW226384  10.664   3.219  14.654
 8163SOL     OW26385   6.225   2.612  13.136
 8163SOL    HW126386   6.159   2.571  13.079
 8163SOL    HW226387   6.177   2.633  13.216
 8164SOL     OW26388  11.972   0.224  12.774
 8164SOL    HW126389  12.025   0.218  12.695
 8164SOL    HW226390  12.035   0.221  12.846
 8165SOL     OW26391   6.217   0.863   4.228
 8165SOL    HW126392   6.126   0.849   4.199
 8165SOL    HW226393   6.210   0.881   4.321
 8166SOL     OW26394  13.808   0.255   8.215
 8166SOL    HW126395  13.746   0.185   8.235
 8166SOL    HW226396  13.850   0.275   8.299
 8167SOL     OW26397   5.246   8.638   9.035
 8167SOL    HW126398   5.256   8.559   9.087
 8167SOL    HW226399   5.310   8.630   8.965
 8168SOL     OW26400   2.407   2.626  10.860
 8168SOL    HW126401   2.330   2.644  10.914
 8168SOL    HW226402   2.373   2.576  10.785
 8169SOL     OW26403   8.866   8.370   0.498
 8169SOL    HW126404   8.921   8.296   0.524
 8169SOL    HW226405   8.914   8.412   0.426
 8170SOL     OW26406   6.868  10.854   7.597
 8170SOL    HW126407   6.886  10.799   7.673
 8170SOL    HW226408   6.928  10.823   7.529
 8171SOL     OW26409  11.277  10.445   2.580
 8171SOL    HW126410  11.254  10.364   2.535
 8171SOL    HW226411  11.200  10.465   2.633
 8172SOL     OW26412  11.400   4.129  12.319
 8172SOL    HW126413  11.377   4.218  12.344
 8172SOL    HW226414  11.446   4.138  12.235
 8173SOL     OW26415   3.776  10.063   5.189
 8173SOL    HW126416   3.795  10.086   5.280
 8173SOL    HW226417   3.756   9.969   5.192
 8174SOL     OW26418   7.734   5.903   0.208
 8174SOL    HW126419   7.639   5.898   0.197
 8174SOL    HW226420   7.750   5.992   0.237
 8175SOL     OW26421   0.578   1.376   7.208
 8175SOL    HW126422   0.583   1.330   7.124
 8175SOL    HW226423   0.631   1.454   7.196
 8176SOL     OW26424  13.477   6.586   2.906
 8176SOL    HW126425  13.460   6.512   2.965
 8176SOL    HW226426  13.412   6.652   2.932
 8177SOL     OW26427   6.342   7.067   6.220
 8177SOL    HW126428   6.384   7.043   6.137
 8177SOL    HW226429   6.343   7.163   6.220
 8178SOL     OW26430  14.815  13.602   9.542
 8178SOL    HW126431  14.869  13.529   9.511
 8178SOL    HW226432  14.794  13.652   9.463
 8179SOL     OW26433   4.601  11.673  14.427
 8179SOL    HW126434   4.596  11.717  14.342
 8179SOL    HW226435   4.594  11.743  14.491
 8180SOL     OW26436   5.119  10.444   7.068
 8180SOL    HW126437   5.191  10.504   7.089
 8180SOL    HW226438   5.042  10.485   7.105
 8181SOL     OW26439   3.646  12.211   6.612
 8181SOL    HW126440   3.734  12.246   6.622
 8181SOL    HW226441   3.641  12.139   6.675
 8182SOL     OW26442   3.662   5.885   8.360
 8182SOL    HW126443   3.688   5.921   8.276
 8182SOL    HW226444   3.624   5.800   8.339
 8183SOL     OW26445  11.765  11.180   2.128
 8183SOL    HW126446  11.697  11.148   2.070
 8183SOL    HW226447  11.844  11.181   2.074
 8184SOL     OW26448  14.699  10.312   1.869
 8184SOL    HW126449  14.781  10.340   1.911
 8184SOL    HW226450  14.635  10.379   1.894
 8185SOL     OW26451  11.483  10.060   9.834
 8185SOL    HW126452  11.552  10.001   9.866
 8185SOL    HW226453  11.406  10.004   9.825
 8186SOL     OW26454  13.015   0.555   5.682
 8186SOL    HW126455  13.029   0.581   5.773
 8186SOL    HW226456  13.050   0.466   5.676
 8187SOL     OW26457   4.367   4.777   5.153
 8187SOL    HW126458   4.371   4.761   5.059
 8187SOL    HW226459   4.448   4.824   5.173
 8188SOL     OW26460   2.982  12.634   5.718
 8188SOL    HW126461   3.049  12.567   5.705
 8188SOL    HW226462   3.031  12.716   5.723
 8189SOL     OW26463   9.915   4.578   1.685
 8189SOL    HW126464   9.915   4.660   1.635
 8189SOL    HW226465   9.835   4.533   1.658
 8190SOL     OW26466   9.307   0.532  10.377
 8190SOL    HW126467   9.240   0.471  10.410
 8190SOL    HW226468   9.326   0.500  10.289
 8191SOL     OW26469   0.224   6.693   2.603
 8191SOL    HW126470   0.164   6.766   2.585
 8191SOL    HW226471   0.170   6.615   2.595
 8192SOL     OW26472  13.464   2.845   4.599
 8192SOL    HW126473  13.528   2.777   4.615
 8192SOL    HW226474  13.477   2.870   4.508
 8193SOL     OW26475   1.580   0.622  12.413
 8193SOL    HW126476   1.655   0.605  12.469
 8193SOL    HW226477   1.512   0.653  12.473
 8194SOL     OW26478   7.887   7.965  11.180
 8194SOL    HW126479   7.964   7.926  11.223
 8194SOL    HW226480   7.899   8.059  11.191
 8195SOL     OW26481   2.564  14.246   1.328
 8195SOL    HW126482   2.615  14.326   1.337
 8195SOL    HW226483   2.630  14.177   1.321
 8196SOL     OW26484  11.920   5.745   9.041
 8196SOL    HW126485  11.965   5.730   9.125
 8196SOL    HW226486  11.989   5.739   8.975
 8197SOL     OW26487   4.424   6.883  13.952
 8197SOL    HW126488   4.397   6.878  14.043
 8197SOL    HW226489   4.493   6.950  13.951
 8198SOL     OW26490   3.374   8.862   4.683
 8198SOL    HW126491   3.351   8.841   4.774
 8198SOL    HW226492   3.441   8.930   4.691
 8199SOL     OW26493  10.206   3.643   5.408
 8199SOL    HW126494  10.230   3.557   5.444
 8199SOL    HW226495  10.217   3.634   5.314
 8200SOL     OW26496  10.562   9.598   1.604
 8200SOL    HW126497  10.496   9.660   1.574
 8200SOL    HW226498  10.511   9.522   1.632
 8201SOL     OW26499  10.684   8.170   1.181
 8201SOL    HW126500  10.752   8.109   1.155
 8201SOL    HW226501  10.602   8.129   1.154
 8202SOL     OW26502  14.815   4.167   1.644
 8202SOL    HW126503  14.758   4.091   1.638
 8202SOL    HW226504  14.824   4.183   1.738
 8203SOL     OW26505   3.427  14.357  11.253
 8203SOL    HW126506   3.361  14.296  11.287
 8203SOL    HW226507   3.417  14.436  11.308
 8204SOL     OW26508  13.378   9.744  10.191
 8204SOL    HW126509  13.374   9.788  10.276
 8204SOL    HW226510  13.299   9.689  10.188
 8205SOL     OW26511  11.422   6.161   7.887
 8205SOL    HW126512  11.435   6.087   7.947
 8205SOL    HW226513  11.470   6.136   7.808
 8206SOL     OW26514   7.249   6.525   5.279
 8206SOL    HW126515   7.241   6.607   5.328
 8206SOL    HW226516   7.341   6.522   5.254
 8207SOL     OW26517   9.853   8.762   5.006
 8207SOL    HW126518   9.887   8.840   5.049
 8207SOL    HW226519   9.777   8.793   4.956
 8208SOL     OW26520   9.870   3.896   1.790
 8208SOL    HW126521   9.825   3.975   1.761
 8208SOL    HW226522   9.844   3.829   1.727
 8209SOL     OW26523   3.396   2.220   6.259
 8209SOL    HW126524   3.454   2.169   6.314
 8209SOL    HW226525   3.438   2.306   6.253
 8210SOL     OW26526   2.816   4.017   9.946
 8210SOL    HW126527   2.836   3.936   9.992
 8210SOL    HW226528   2.901   4.055   9.924
 8211SOL     OW26529  11.071   4.147   0.570
 8211SOL    HW126530  10.990   4.165   0.522
 8211SOL    HW226531  11.133   4.214   0.539
 8212SOL     OW26532   8.799   8.065   2.203
 8212SOL    HW126533   8.757   8.108   2.278
 8212SOL    HW226534   8.790   8.127   2.131
 8213SOL     OW26535   6.684   7.087   9.646
 8213SOL    HW126536   6.726   7.107   9.729
 8213SOL    HW226537   6.643   7.001   9.660
 8214SOL     OW26538   4.365   7.332   3.604
 8214SOL    HW126539   4.453   7.355   3.572
 8214SOL    HW226540   4.307   7.396   3.562
 8215SOL     OW26541  14.201   2.337   0.639
 8215SOL    HW126542  14.209   2.332   0.734
 8215SOL    HW226543  14.252   2.262   0.607
 8216SOL     OW26544  11.722   0.615   2.060
 8216SOL    HW126545  11.740   0.599   2.152
 8216SOL    HW226546  11.666   0.542   2.033
 8217SOL     OW26547   6.975  11.651   0.291
 8217SOL    HW126548   7.011  11.579   0.239
 8217SOL    HW226549   6.917  11.608   0.354
 8218SOL     OW26550   7.728   2.755   2.247
 8218SOL    HW126551   7.679   2.705   2.312
 8218SOL    HW226552   7.820   2.743   2.272
 8219SOL     OW26553  14.211   1.727   6.550
 8219SOL    HW126554  14.138   1.680   6.511
 8219SOL    HW226555  14.226   1.682   6.634
 8220SOL     OW26556   5.333  13.136  13.314
 8220SOL    HW126557   5.335  13.041  13.318
 8220SOL    HW226558   5.331  13.165  13.405
 8221SOL     OW26559   2.358   5.276   8.441
 8221SOL    HW126560   2.299   5.347   8.416
 8221SOL    HW226561   2.393   5.303   8.526
 8222SOL     OW26562   7.057  13.148   1.348
 8222SOL    HW126563   7.024  13.063   1.377
 8222SOL    HW226564   6.985  13.186   1.299
 8223SOL     OW26565  13.400   0.961   1.453
 8223SOL    HW126566  13.333   1.004   1.401
 8223SOL    HW226567  13.368   0.871   1.466
 8224SOL     OW26568   8.568  12.162  11.060
 8224SOL    HW126569   8.513  12.219  11.005
 8224SOL    HW226570   8.581  12.083  11.006
 8225SOL     OW26571   5.256   9.531   7.876
 8225SOL    HW126572   5.337   9.560   7.918
 8225SOL    HW226573   5.236   9.599   7.812
 8226SOL     OW26574   2.284  13.526   1.225
 8226SOL    HW126575   2.271  13.589   1.295
 8226SOL    HW226576   2.209  13.537   1.167
 8227SOL     OW26577  12.312   5.825   2.898
 8227SOL    HW126578  12.371   5.801   2.826
 8227SOL    HW226579  12.235   5.769   2.885
 8228SOL     OW26580   4.706   2.567   1.791
 8228SOL    HW126581   4.611   2.566   1.809
 8228SOL    HW226582   4.714   2.524   1.706
 8229SOL     OW26583   2.449  11.840   6.429
 8229SOL    HW126584   2.473  11.932   6.420
 8229SOL    HW226585   2.437  11.826   6.523
 8230SOL     OW26586  10.742  11.379   5.706
 8230SOL    HW126587  10.791  11.303   5.677
 8230SOL    HW226588  10.804  11.451   5.702
 8231SOL     OW26589   2.106   2.239   6.950
 8231SOL    HW126590   2.045   2.285   7.008
 8231SOL    HW226591   2.192   2.261   6.985
 8232SOL     OW26592  14.154   2.006   0.621
 8232SOL    HW126593  14.077   1.989   0.566
 8232SOL    HW226594  14.120   2.011   0.710
 8233SOL     OW26595   8.465   5.628   0.457
 8233SOL    HW126596   8.528   5.623   0.385
 8233SOL    HW226597   8.516   5.664   0.530
 8234SOL     OW26598   1.428   7.739  12.573
 8234SOL    HW126599   1.457   7.731  12.664
 8234SOL    HW226600   1.389   7.654  12.553
 8235SOL     OW26601   3.146   4.522   2.937
 8235SOL    HW126602   3.106   4.435   2.952
 8235SOL    HW226603   3.236   4.503   2.911
 8236SOL     OW26604  13.547   4.257  14.451
 8236SOL    HW126605  13.540   4.162  14.445
 8236SOL    HW226606  13.457   4.289  14.450
 8237SOL     OW26607   1.321  14.271   0.887
 8237SOL    HW126608   1.238  14.261   0.840
 8237SOL    HW226609   1.378  14.203   0.852
 8238SOL     OW26610   3.225  11.108   1.794
 8238SOL    HW126611   3.286  11.046   1.832
 8238SOL    HW226612   3.155  11.116   1.858
 8239SOL     OW26613  10.591   4.970  10.448
 8239SOL    HW126614  10.599   4.984  10.542
 8239SOL    HW226615  10.647   4.895  10.429
 8240SOL     OW26616  13.418   9.218  14.577
 8240SOL    HW126617  13.385   9.140  14.621
 8240SOL    HW226618  13.408   9.288  14.642
 8241SOL     OW26619   3.663   4.247  11.336
 8241SOL    HW126620   3.584   4.214  11.380
 8241SOL    HW226621   3.690   4.175  11.278
 8242SOL     OW26622   8.267   1.079  11.612
 8242SOL    HW126623   8.268   1.091  11.707
 8242SOL    HW226624   8.347   1.122  11.582
 8243SOL     OW26625   2.674   1.796   8.411
 8243SOL    HW126626   2.666   1.812   8.317
 8243SOL    HW226627   2.706   1.706   8.418
 8244SOL     OW26628  11.731   0.258   5.735
 8244SOL    HW126629  11.677   0.331   5.763
 8244SOL    HW226630  11.670   0.185   5.727
 8245SOL     OW26631   1.869  13.751   3.358
 8245SOL    HW126632   1.901  13.663   3.344
 8245SOL    HW226633   1.888  13.797   3.276
 8246SOL     OW26634  13.586   3.199   0.555
 8246SOL    HW126635  13.618   3.154   0.634
 8246SOL    HW226636  13.595   3.292   0.575
 8247SOL     OW26637   4.305   6.756  14.612
 8247SOL    HW126638   4.311   6.835  14.559
 8247SOL    HW226639   4.368   6.695  14.573
 8248SOL     OW26640   7.785  13.760   3.324
 8248SOL    HW126641   7.804  13.667   3.333
 8248SOL    HW226642   7.862  13.804   3.362
 8249SOL     OW26643   3.743  13.739   5.267
 8249SOL    HW126644   3.661  13.787   5.279
 8249SOL    HW226645   3.812  13.805   5.273
 8250SOL     OW26646   2.415   9.693   8.063
 8250SOL    HW126647   2.345   9.639   8.102
 8250SOL    HW226648   2.443   9.751   8.134
 8251SOL     OW26649   4.801   6.300   3.164
 8251SOL    HW126650   4.812   6.314   3.070
 8251SOL    HW226651   4.718   6.253   3.172
 8252SOL     OW26652   2.026  11.156  11.938
 8252SOL    HW126653   2.047  11.140  12.030
 8252SOL    HW226654   2.101  11.122  11.889
 8253SOL     OW26655   0.330  10.518  11.530
 8253SOL    HW126656   0.416  10.561  11.528
 8253SOL    HW226657   0.351  10.425  11.540
 8254SOL     OW26658   0.200   8.714   4.123
 8254SOL    HW126659   0.129   8.719   4.187
 8254SOL    HW226660   0.247   8.797   4.134
 8255SOL     OW26661   5.699   0.123  13.859
 8255SOL    HW126662   5.673   0.033  13.878
 8255SOL    HW226663   5.719   0.123  13.765
 8256SOL     OW26664   2.023   8.795   4.008
 8256SOL    HW126665   2.092   8.742   3.966
 8256SOL    HW226666   1.978   8.836   3.935
 8257SOL     OW26667  14.142  13.017  10.999
 8257SOL    HW126668  14.063  12.985  11.042
 8257SOL    HW226669  14.155  13.105  11.034
 8258SOL     OW26670   9.842  10.487   1.775
 8258SOL    HW126671   9.878  10.571   1.804
 8258SOL    HW226672   9.919  10.438   1.747
 8259SOL     OW26673   6.016  10.170  10.675
 8259SOL    HW126674   6.108  10.142  10.684
 8259SOL    HW226675   6.010  10.205  10.587
 8260SOL     OW26676   6.415   6.618   7.685
 8260SOL    HW126677   6.440   6.600   7.595
 8260SOL    HW226678   6.347   6.555   7.705
 8261SOL     OW26679   0.574   2.578   0.075
 8261SOL    HW126680   0.669   2.572   0.084
 8261SOL    HW226681   0.550   2.655   0.128
 8262SOL     OW26682   5.189  12.707  12.949
 8262SOL    HW126683   5.277  12.720  12.914
 8262SOL    HW226684   5.188  12.615  12.977
 8263SOL     OW26685   8.216  12.232   8.807
 8263SOL    HW126686   8.127  12.268   8.810
 8263SOL    HW226687   8.271  12.308   8.787
 8264SOL     OW26688   0.597   1.470  11.435
 8264SOL    HW126689   0.619   1.385  11.473
 8264SOL    HW226690   0.503   1.480  11.453
 8265SOL     OW26691   7.632   6.478   5.467
 8265SOL    HW126692   7.638   6.555   5.523
 8265SOL    HW226693   7.721   6.441   5.467
 8266SOL     OW26694  12.716  13.454   9.823
 8266SOL    HW126695  12.672  13.371   9.837
 8266SOL    HW226696  12.804  13.442   9.860
 8267SOL     OW26697  10.982  13.887  11.674
 8267SOL    HW126698  11.057  13.828  11.665
 8267SOL    HW226699  10.907  13.836  11.643
 8268SOL     OW26700  12.631  11.552   2.209
 8268SOL    HW126701  12.570  11.498   2.259
 8268SOL    HW226702  12.575  11.606   2.153
 8269SOL     OW26703   4.372   0.649   8.538
 8269SOL    HW126704   4.449   0.600   8.510
 8269SOL    HW226705   4.393   0.740   8.520
 8270SOL     OW26706   4.640   6.947  11.391
 8270SOL    HW126707   4.636   6.854  11.369
 8270SOL    HW226708   4.709   6.953  11.457
 8271SOL     OW26709   2.093  10.014   5.755
 8271SOL    HW126710   2.093   9.985   5.664
 8271SOL    HW226711   2.038   9.951   5.802
 8272SOL     OW26712   8.207  13.423   1.848
 8272SOL    HW126713   8.113  13.439   1.858
 8272SOL    HW226714   8.217  13.329   1.859
 8273SOL     OW26715   1.184  14.476  14.672
 8273SOL    HW126716   1.142  14.551  14.714
 8273SOL    HW226717   1.112  14.417  14.650
 8274SOL     OW26718  14.862   9.963   5.988
 8274SOL    HW126719  14.797   9.970   6.058
 8274SOL    HW226720   0.036  10.041   5.998
 8275SOL     OW26721  11.753  14.253   4.279
 8275SOL    HW126722  11.694  14.179   4.265
 8275SOL    HW226723  11.828  14.215   4.325
 8276SOL     OW26724   4.516   3.358   4.287
 8276SOL    HW126725   4.454   3.284   4.289
 8276SOL    HW226726   4.595   3.322   4.247
 8277SOL     OW26727   9.010   8.434   0.265
 8277SOL    HW126728   9.047   8.367   0.207
 8277SOL    HW226729   8.919   8.444   0.235
 8278SOL     OW26730  14.014   6.505   4.982
 8278SOL    HW126731  13.927   6.465   4.987
 8278SOL    HW226732  14.050   6.495   5.071
 8279SOL     OW26733   2.528   2.754   1.084
 8279SOL    HW126734   2.504   2.668   1.117
 8279SOL    HW226735   2.611   2.741   1.038
 8280SOL     OW26736   3.116   8.791  13.114
 8280SOL    HW126737   3.089   8.851  13.183
 8280SOL    HW226738   3.089   8.834  13.032
 8281SOL     OW26739  11.889   4.633   7.700
 8281SOL    HW126740  11.811   4.579   7.707
 8281SOL    HW226741  11.962   4.572   7.712
 8282SOL     OW26742  14.872  11.239   1.268
 8282SOL    HW126743   0.045  11.303   1.220
 8282SOL    HW226744  14.864  11.165   1.208
 8283SOL     OW26745   1.776   9.813  11.381
 8283SOL    HW126746   1.757   9.809  11.475
 8283SOL    HW226747   1.869   9.792  11.375
 8284SOL     OW26748   2.065   3.795   3.628
 8284SOL    HW126749   2.115   3.772   3.706
 8284SOL    HW226750   2.081   3.889   3.617
 8285SOL     OW26751   2.880  14.181   6.521
 8285SOL    HW126752   2.940  14.136   6.462
 8285SOL    HW226753   2.918  14.170   6.607
 8286SOL     OW26754   1.810  10.537   0.193
 8286SOL    HW126755   1.811  10.586   0.111
 8286SOL    HW226756   1.796  10.603   0.261
 8287SOL     OW26757   4.357   4.367   7.467
 8287SOL    HW126758   4.272   4.411   7.466
 8287SOL    HW226759   4.342   4.286   7.417
 8288SOL     OW26760  11.371   7.857   8.955
 8288SOL    HW126761  11.376   7.951   8.938
 8288SOL    HW226762  11.440   7.840   9.019
 8289SOL     OW26763  11.310   9.060   9.691
 8289SOL    HW126764  11.372   9.049   9.619
 8289SOL    HW226765  11.279   9.150   9.683
 8290SOL     OW26766   8.071   3.876   2.585
 8290SOL    HW126767   8.042   3.842   2.500
 8290SOL    HW226768   8.040   3.811   2.649
 8291SOL     OW26769   4.157   7.772  10.875
 8291SOL    HW126770   4.081   7.749  10.821
 8291SOL    HW226771   4.224   7.710  10.849
 8292SOL     OW26772   5.749   3.531   3.036
 8292SOL    HW126773   5.698   3.491   3.106
 8292SOL    HW226774   5.837   3.543   3.073
 8293SOL     OW26775  12.995   5.507  12.507
 8293SOL    HW126776  12.951   5.581  12.464
 8293SOL    HW226777  12.970   5.515  12.599
 8294SOL     OW26778   7.098  14.623   4.858
 8294SOL    HW126779   7.064  14.711   4.845
 8294SOL    HW226780   7.124  14.620   4.950
 8295SOL     OW26781   0.653   0.815   2.490
 8295SOL    HW126782   0.637   0.904   2.524
 8295SOL    HW226783   0.630   0.757   2.563
 8296SOL     OW26784  10.416   2.537  11.565
 8296SOL    HW126785  10.502   2.499  11.583
 8296SOL    HW226786  10.385   2.566  11.651
 8297SOL     OW26787   4.320   2.942   5.470
 8297SOL    HW126788   4.350   2.990   5.547
 8297SOL    HW226789   4.293   2.857   5.503
 8298SOL     OW26790   9.395   2.804   1.191
 8298SOL    HW126791   9.439   2.782   1.109
 8298SOL    HW226792   9.304   2.818   1.167
 8299SOL     OW26793   4.493   8.205   8.679
 8299SOL    HW126794   4.508   8.251   8.762
 8299SOL    HW226795   4.489   8.113   8.703
 8300SOL     OW26796   0.755  12.726   6.068
 8300SOL    HW126797   0.709  12.642   6.063
 8300SOL    HW226798   0.791  12.739   5.980
 8301SOL     OW26799   4.648   4.981   0.886
 8301SOL    HW126800   4.578   4.919   0.908
 8301SOL    HW226801   4.690   4.943   0.809
 8302SOL     OW26802   6.759  12.103   9.142
 8302SOL    HW126803   6.830  12.064   9.090
 8302SOL    HW226804   6.742  12.187   9.100
 8303SOL     OW26805  12.181   1.757  14.500
 8303SOL    HW126806  12.227   1.796  14.426
 8303SOL    HW226807  12.176   1.828  14.565
 8304SOL     OW26808  11.953  13.107   9.991
 8304SOL    HW126809  11.979  13.024  10.031
 8304SOL    HW226810  11.873  13.087   9.943
 8305SOL     OW26811   1.006   5.658   3.158
 8305SOL    HW126812   1.004   5.567   3.186
 8305SOL    HW226813   0.966   5.706   3.231
 8306SOL     OW26814   9.389  14.738   1.841
 8306SOL    HW126815   9.404  14.657   1.889
 8306SOL    HW226816   9.473  14.758   1.801
 8307SOL     OW26817   3.198   0.887   6.914
 8307SOL    HW126818   3.226   0.888   7.006
 8307SOL    HW226819   3.223   0.800   6.882
 8308SOL     OW26820   0.898   9.480   2.787
 8308SOL    HW126821   0.815   9.499   2.830
 8308SOL    HW226822   0.889   9.516   2.699
 8309SOL     OW26823   9.191   4.090  11.282
 8309SOL    HW126824   9.172   4.040  11.362
 8309SOL    HW226825   9.188   4.026  11.212
 8310SOL     OW26826   4.333   2.418   9.788
 8310SOL    HW126827   4.329   2.397   9.695
 8310SOL    HW226828   4.399   2.358   9.823
 8311SOL     OW26829  10.842   7.013   3.665
 8311SOL    HW126830  10.791   6.950   3.614
 8311SOL    HW226831  10.781   7.085   3.683
 8312SOL     OW26832   6.372   1.618  13.286
 8312SOL    HW126833   6.388   1.565  13.208
 8312SOL    HW226834   6.364   1.555  13.357
 8313SOL     OW26835  12.374   2.950  14.154
 8313SOL    HW126836  12.319   3.017  14.194
 8313SOL    HW226837  12.321   2.870  14.157
 8314SOL     OW26838  10.805  11.173   8.134
 8314SOL    HW126839  10.780  11.218   8.214
 8314SOL    HW226840  10.739  11.201   8.069
 8315SOL     OW26841   4.376   2.895   4.120
 8315SOL    HW126842   4.300   2.867   4.170
 8315SOL    HW226843   4.418   2.814   4.091
 8316SOL     OW26844   9.256   6.571   6.504
 8316SOL    HW126845   9.338   6.580   6.553
 8316SOL    HW226846   9.275   6.505   6.437
 8317SOL     OW26847  10.292  12.370  14.768
 8317SOL    HW126848  10.238  12.292  14.752
 8317SOL    HW226849  10.375  12.335  14.802
 8318SOL     OW26850  11.069   8.834  10.757
 8318SOL    HW126851  11.117   8.851  10.676
 8318SOL    HW226852  11.101   8.900  10.818
 8319SOL     OW26853  11.026   4.571   9.085
 8319SOL    HW126854  11.006   4.591   9.177
 8319SOL    HW226855  11.064   4.652   9.052
 8320SOL     OW26856   6.142   5.603   9.418
 8320SOL    HW126857   6.053   5.568   9.415
 8320SOL    HW226858   6.198   5.530   9.393
 8321SOL     OW26859   6.088   7.765  14.499
 8321SOL    HW126860   6.138   7.814  14.563
 8321SOL    HW226861   6.043   7.697  14.550
 8322SOL     OW26862   3.423   1.509  13.302
 8322SOL    HW126863   3.417   1.551  13.388
 8322SOL    HW226864   3.347   1.450  13.298
 8323SOL     OW26865   1.814   6.430   7.281
 8323SOL    HW126866   1.887   6.466   7.333
 8323SOL    HW226867   1.754   6.393   7.346
 8324SOL     OW26868   5.970   4.822   3.366
 8324SOL    HW126869   6.042   4.810   3.427
 8324SOL    HW226870   6.001   4.890   3.306
 8325SOL     OW26871   9.057   7.891  10.283
 8325SOL    HW126872   9.148   7.878  10.255
 8325SOL    HW226873   9.027   7.804  10.308
 8326SOL     OW26874   6.236   5.930   6.335
 8326SOL    HW126875   6.165   5.866   6.341
 8326SOL    HW226876   6.193   6.014   6.344
 8327SOL     OW26877   6.742   8.998   1.923
 8327SOL    HW126878   6.824   9.037   1.954
 8327SOL    HW226879   6.768   8.915   1.883
 8328SOL     OW26880   8.091  12.181  12.465
 8328SOL    HW126881   8.153  12.185  12.538
 8328SOL    HW226882   8.127  12.114  12.406
 8329SOL     OW26883   1.413  12.351   6.320
 8329SOL    HW126884   1.319  12.349   6.340
 8329SOL    HW226885   1.430  12.442   6.294
 8330SOL     OW26886   8.131   9.487  11.458
 8330SOL    HW126887   8.182   9.429  11.515
 8330SOL    HW226888   8.187   9.563  11.446
 8331SOL     OW26889   0.891   2.222   3.604
 8331SOL    HW126890   0.937   2.298   3.638
 8331SOL    HW226891   0.803   2.253   3.585
 8332SOL     OW26892   2.563  12.006   2.170
 8332SOL    HW126893   2.579  11.912   2.166
 8332SOL    HW226894   2.584  12.031   2.260
 8333SOL     OW26895   7.714   4.178  13.485
 8333SOL    HW126896   7.776   4.154  13.554
 8333SOL    HW226897   7.762   4.237  13.428
 8334SOL     OW26898   7.515   7.981   7.084
 8334SOL    HW126899   7.582   7.993   7.016
 8334SOL    HW226900   7.474   8.067   7.093
 8335SOL     OW26901   9.750   7.790   3.021
 8335SOL    HW126902   9.718   7.742   3.098
 8335SOL    HW226903   9.673   7.804   2.967
 8336SOL     OW26904   3.663   3.573   7.353
 8336SOL    HW126905   3.580   3.593   7.396
 8336SOL    HW226906   3.676   3.645   7.291
 8337SOL     OW26907   0.583   9.970   6.569
 8337SOL    HW126908   0.522   9.920   6.513
 8337SOL    HW226909   0.549  10.059   6.567
 8338SOL     OW26910  12.555   1.102   2.295
 8338SOL    HW126911  12.503   1.150   2.360
 8338SOL    HW226912  12.642   1.142   2.299
 8339SOL     OW26913   6.715  11.144   1.120
 8339SOL    HW126914   6.663  11.067   1.141
 8339SOL    HW226915   6.654  11.204   1.078
 8340SOL     OW26916   7.025  12.946   0.619
 8340SOL    HW126917   7.116  12.950   0.647
 8340SOL    HW226918   6.974  12.952   0.700
 8341SOL     OW26919  12.702   0.882   9.617
 8341SOL    HW126920  12.797   0.886   9.614
 8341SOL    HW226921  12.676   0.855   9.529
 8342SOL     OW26922   3.949   5.520   8.849
 8342SOL    HW126923   4.031   5.567   8.834
 8342SOL    HW226924   3.904   5.521   8.764
 8343SOL     OW26925   0.272  14.352  13.197
 8343SOL    HW126926   0.327  14.430  13.193
 8343SOL    HW226927   0.287  14.317  13.284
 8344SOL     OW26928  12.596  12.337   7.474
 8344SOL    HW126929  12.524  12.344   7.411
 8344SOL    HW226930  12.671  12.375   7.429
 8345SOL     OW26931  14.249   8.766  10.092
 8345SOL    HW126932  14.241   8.860  10.110
 8345SOL    HW226933  14.333   8.741  10.131
 8346SOL     OW26934  11.051  14.480   8.149
 8346SOL    HW126935  10.965  14.521   8.137
 8346SOL    HW226936  11.113  14.544   8.113
 8347SOL     OW26937   7.706   9.035   8.858
 8347SOL    HW126938   7.734   9.098   8.792
 8347SOL    HW226939   7.750   9.063   8.938
 8348SOL     OW26940   7.039   9.525   8.906
 8348SOL    HW126941   7.032   9.434   8.877
 8348SOL    HW226942   6.969   9.570   8.859
 8349SOL     OW26943  13.604   3.718  10.684
 8349SOL    HW126944  13.628   3.631  10.651
 8349SOL    HW226945  13.535   3.700  10.749
 8350SOL     OW26946   0.041   3.261   9.136
 8350SOL    HW126947   0.032   3.170   9.109
 8350SOL    HW226948   0.136   3.275   9.144
 8351SOL     OW26949  13.935   1.129   2.376
 8351SOL    HW126950  13.948   1.034   2.376
 8351SOL    HW226951  13.899   1.148   2.290
 8352SOL     OW26952  10.634  12.963   2.948
 8352SOL    HW126953  10.672  12.879   2.973
 8352SOL    HW226954  10.540  12.949   2.951
 8353SOL     OW26955   7.660   5.346   5.402
 8353SOL    HW126956   7.727   5.404   5.438
 8353SOL    HW226957   7.587   5.404   5.380
 8354SOL     OW26958   1.356  14.481  10.320
 8354SOL    HW126959   1.266  14.473  10.287
 8354SOL    HW226960   1.346  14.517  10.408
 8355SOL     OW26961   7.314   9.538   3.320
 8355SOL    HW126962   7.395   9.588   3.309
 8355SOL    HW226963   7.265   9.555   3.239
 8356SOL     OW26964   9.660   2.134   5.235
 8356SOL    HW126965   9.636   2.075   5.163
 8356SOL    HW226966   9.629   2.220   5.206
 8357SOL     OW26967   4.978  10.890  14.476
 8357SOL    HW126968   5.053  10.887  14.536
 8357SOL    HW226969   4.908  10.844  14.521
 8358SOL     OW26970   9.192  12.487   0.592
 8358SOL    HW126971   9.168  12.431   0.519
 8358SOL    HW226972   9.155  12.573   0.570
 8359SOL     OW26973   5.532   4.464  14.809
 8359SOL    HW126974   5.512   4.372  14.789
 8359SOL    HW226975   5.460   4.493  14.864
 8360SOL     OW26976   1.282  12.468   0.334
 8360SOL    HW126977   1.282  12.376   0.363
 8360SOL    HW226978   1.310  12.464   0.242
 8361SOL     OW26979  10.312   3.619  11.885
 8361SOL    HW126980  10.354   3.593  11.802
 8361SOL    HW226981  10.221   3.591  11.876
 8362SOL     OW26982  12.100  12.353   0.841
 8362SOL    HW126983  12.063  12.270   0.811
 8362SOL    HW226984  12.195  12.340   0.838
 8363SOL     OW26985   7.498   9.786   6.209
 8363SOL    HW126986   7.489   9.827   6.295
 8363SOL    HW226987   7.569   9.833   6.167
 8364SOL     OW26988  14.742   6.081  12.955
 8364SOL    HW126989  14.781   6.007  13.002
 8364SOL    HW226990  14.662   6.100  13.004
 8365SOL     OW26991   5.910  11.896   4.522
 8365SOL    HW126992   5.879  11.975   4.479
 8365SOL    HW226993   5.963  11.852   4.456
 8366SOL     OW26994   4.330   5.427   5.452
 8366SOL    HW126995   4.269   5.357   5.427
 8366SOL    HW226996   4.278   5.485   5.507
 8367SOL     OW26997  14.189  14.223  12.388
 8367SOL    HW126998  14.120  14.268  12.437
 8367SOL    HW226999  14.267  14.233  12.442
 8368SOL     OW27000  10.036  13.138  11.566
 8368SOL    HW127001  10.058  13.098  11.650
 8368SOL    HW227002   9.960  13.193  11.585
 8369SOL     OW27003   6.171   3.189   9.028
 8369SOL    HW127004   6.079   3.181   9.004
 8369SOL    HW227005   6.174   3.168   9.121
 8370SOL     OW27006   7.636   9.332   1.640
 8370SOL    HW127007   7.722   9.288   1.640
 8370SOL    HW227008   7.588   9.290   1.569
 8371SOL     OW27009   4.486  13.523   2.826
 8371SOL    HW127010   4.540  13.600   2.809
 8371SOL    HW227011   4.485  13.476   2.742
 8372SOL     OW27012  11.909   5.021  11.799
 8372SOL    HW127013  11.897   5.059  11.886
 8372SOL    HW227014  12.003   5.023  11.783
 8373SOL     OW27015   3.657   3.809   1.708
 8373SOL    HW127016   3.698   3.894   1.695
 8373SOL    HW227017   3.712   3.764   1.771
 8374SOL     OW27018   9.763   2.875   2.336
 8374SOL    HW127019   9.815   2.955   2.340
 8374SOL    HW227020   9.828   2.804   2.335
 8375SOL     OW27021   8.473   4.818   3.605
 8375SOL    HW127022   8.501   4.772   3.526
 8375SOL    HW227023   8.537   4.888   3.616
 8376SOL     OW27024   8.850  13.759   7.104
 8376SOL    HW127025   8.817  13.761   7.014
 8376SOL    HW227026   8.848  13.666   7.129
 8377SOL     OW27027   6.150   5.688   7.893
 8377SOL    HW127028   6.199   5.756   7.939
 8377SOL    HW227029   6.215   5.622   7.871
 8378SOL     OW27030   4.847   1.906   6.089
 8378SOL    HW127031   4.839   1.977   6.025
 8378SOL    HW227032   4.758   1.872   6.099
 8379SOL     OW27033  12.256  13.058   4.152
 8379SOL    HW127034  12.277  13.127   4.089
 8379SOL    HW227035  12.230  12.983   4.098
 8380SOL     OW27036   8.729   5.709   5.573
 8380SOL    HW127037   8.703   5.732   5.484
 8380SOL    HW227038   8.813   5.664   5.562
 8381SOL     OW27039  13.933   7.422  12.649
 8381SOL    HW127040  13.947   7.348  12.590
 8381SOL    HW227041  13.845   7.409  12.685
 8382SOL     OW27042   6.296  14.601  14.289
 8382SOL    HW127043   6.235  14.626  14.219
 8382SOL    HW227044   6.370  14.662  14.278
 8383SOL     OW27045  11.991   7.144   9.443
 8383SOL    HW127046  11.989   7.174   9.534
 8383SOL    HW227047  12.083   7.149   9.418
 8384SOL     OW27048   1.028   4.929   4.777
 8384SOL    HW127049   1.055   4.874   4.704
 8384SOL    HW227050   1.009   4.868   4.848
 8385SOL     OW27051   4.879  10.324  11.496
 8385SOL    HW127052   4.876  10.379  11.574
 8385SOL    HW227053   4.841  10.378  11.427
 8386SOL     OW27054  12.149   3.716  12.339
 8386SOL    HW127055  12.097   3.742  12.262
 8386SOL    HW227056  12.152   3.621  12.334
 8387SOL     OW27057   4.399   8.457   4.351
 8387SOL    HW127058   4.460   8.435   4.281
 8387SOL    HW227059   4.330   8.508   4.309
 8388SOL     OW27060  13.089   5.242   4.070
 8388SOL    HW127061  13.031   5.170   4.044
 8388SOL    HW227062  13.039   5.321   4.051
 8389SOL     OW27063  10.986  12.564   5.116
 8389SOL    HW127064  10.914  12.505   5.139
 8389SOL    HW227065  10.943  12.645   5.088
 8390SOL     OW27066  10.175   7.793  14.729
 8390SOL    HW127067  10.194   7.796  14.822
 8390SOL    HW227068  10.159   7.885  14.704
 8391SOL     OW27069   1.422   7.738   8.824
 8391SOL    HW127070   1.403   7.751   8.732
 8391SOL    HW227071   1.427   7.826   8.861
 8392SOL     OW27072   4.262   5.092  11.870
 8392SOL    HW127073   4.220   5.174  11.842
 8392SOL    HW227074   4.212   5.023  11.826
 8393SOL     OW27075  10.654   9.043   1.140
 8393SOL    HW127076  10.691   9.109   1.082
 8393SOL    HW227077  10.617   9.092   1.213
 8394SOL     OW27078  12.216  11.113   9.146
 8394SOL    HW127079  12.274  11.106   9.070
 8394SOL    HW227080  12.128  11.117   9.108
 8395SOL     OW27081   1.765   1.229   2.393
 8395SOL    HW127082   1.808   1.282   2.460
 8395SOL    HW227083   1.671   1.249   2.402
 8396SOL     OW27084  11.690  14.147  10.796
 8396SOL    HW127085  11.785  14.136  10.804
 8396SOL    HW227086  11.654  14.067  10.835
 8397SOL     OW27087   3.525   1.881   9.498
 8397SOL    HW127088   3.471   1.930   9.560
 8397SOL    HW227089   3.574   1.948   9.451
 8398SOL     OW27090   8.821  14.132   4.402
 8398SOL    HW127091   8.744  14.189   4.403
 8398SOL    HW227092   8.801  14.064   4.467
 8399SOL     OW27093   8.849  10.025  11.019
 8399SOL    HW127094   8.938  10.032  10.985
 8399SOL    HW227095   8.855  10.056  11.109
 8400SOL     OW27096   9.862   7.850   7.844
 8400SOL    HW127097   9.821   7.910   7.782
 8400SOL    HW227098   9.817   7.766   7.829
 8401SOL     OW27099   5.804   8.123   8.469
 8401SOL    HW127100   5.814   8.028   8.458
 8401SOL    HW227101   5.768   8.134   8.556
 8402SOL     OW27102  13.446   2.665   0.571
 8402SOL    HW127103  13.508   2.595   0.554
 8402SOL    HW227104  13.360   2.623   0.568
 8403SOL     OW27105   2.175  10.128   8.690
 8403SOL    HW127106   2.196  10.222   8.693
 8403SOL    HW227107   2.097  10.119   8.744
 8404SOL     OW27108   8.350  10.623   8.893
 8404SOL    HW127109   8.398  10.681   8.835
 8404SOL    HW227110   8.280  10.678   8.930
 8405SOL     OW27111  14.858   3.334   9.372
 8405SOL    HW127112  14.847   3.299   9.284
 8405SOL    HW227113   0.029   3.268   9.419
 8406SOL     OW27114   2.580   3.218   8.525
 8406SOL    HW127115   2.672   3.212   8.499
 8406SOL    HW227116   2.533   3.164   8.462
 8407SOL     OW27117   6.535   7.417   6.924
 8407SOL    HW127118   6.518   7.372   6.842
 8407SOL    HW227119   6.563   7.505   6.899
 8408SOL     OW27120   8.856   1.258   2.797
 8408SOL    HW127121   8.867   1.169   2.831
 8408SOL    HW227122   8.943   1.298   2.808
 8409SOL     OW27123   6.219   6.469  12.196
 8409SOL    HW127124   6.300   6.442  12.154
 8409SOL    HW227125   6.244   6.537  12.258
 8410SOL     OW27126   8.984  13.385   5.743
 8410SOL    HW127127   8.957  13.476   5.731
 8410SOL    HW227128   9.077  13.385   5.720
 8411SOL     OW27129   2.221  10.547   8.484
 8411SOL    HW127130   2.204  10.471   8.428
 8411SOL    HW227131   2.164  10.615   8.449
 8412SOL     OW27132  10.166   6.733   8.868
 8412SOL    HW127133  10.232   6.762   8.931
 8412SOL    HW227134  10.087   6.781   8.893
 8413SOL     OW27135   2.160   3.982  11.930
 8413SOL    HW127136   2.167   3.962  11.837
 8413SOL    HW227137   2.090   4.047  11.936
 8414SOL     OW27138  10.356   8.559  12.760
 8414SOL    HW127139  10.433   8.614  12.746
 8414SOL    HW227140  10.284   8.621  12.770
 8415SOL     OW27141   3.906   8.182   1.822
 8415SOL    HW127142   3.907   8.259   1.765
 8415SOL    HW227143   3.985   8.190   1.875
 8416SOL     OW27144  14.536   6.429   0.891
 8416SOL    HW127145  14.516   6.345   0.849
 8416SOL    HW227146  14.548   6.407   0.984
 8417SOL     OW27147   7.667   2.075   6.643
 8417SOL    HW127148   7.621   2.149   6.605
 8417SOL    HW227149   7.711   2.032   6.569
 8418SOL     OW27150   5.529  12.694   4.944
 8418SOL    HW127151   5.612  12.647   4.939
 8418SOL    HW227152   5.533  12.758   4.873
 8419SOL     OW27153   8.664  10.286  10.610
 8419SOL    HW127154   8.628  10.365  10.570
 8419SOL    HW227155   8.704  10.316  10.691
 8420SOL     OW27156   7.717   7.297  10.490
 8420SOL    HW127157   7.779   7.225  10.480
 8420SOL    HW227158   7.723   7.321  10.582
 8421SOL     OW27159   2.761   6.205  14.832
 8421SOL    HW127160   2.709   6.272  14.789
 8421SOL    HW227161   2.761   6.230   0.045
 8422SOL     OW27162  14.868   9.741   2.438
 8422SOL    HW127163  14.804   9.807   2.465
 8422SOL    HW227164   0.061   9.751   2.499
 8423SOL     OW27165   3.092  10.894  12.813
 8423SOL    HW127166   3.069  10.985  12.831
 8423SOL    HW227167   3.018  10.844  12.847
 8424SOL     OW27168   0.442   1.263   2.719
 8424SOL    HW127169   0.348   1.247   2.710
 8424SOL    HW227170   0.449   1.358   2.729
 8425SOL     OW27171   7.386   2.946   3.977
 8425SOL    HW127172   7.348   2.864   3.945
 8425SOL    HW227173   7.462   2.961   3.921
 8426SOL     OW27174   3.288  13.751  12.346
 8426SOL    HW127175   3.270  13.801  12.267
 8426SOL    HW227176   3.217  13.773  12.406
 8427SOL     OW27177  13.342  13.047   6.535
 8427SOL    HW127178  13.330  12.979   6.602
 8427SOL    HW227179  13.422  13.021   6.489
 8428SOL     OW27180   6.784   5.445   4.536
 8428SOL    HW127181   6.844   5.415   4.604
 8428SOL    HW227182   6.832   5.433   4.454
 8429SOL     OW27183   4.206  14.772   9.820
 8429SOL    HW127184   4.166  14.786   9.906
 8429SOL    HW227185   4.132  14.768   9.759
 8430SOL     OW27186   6.017  11.721  13.566
 8430SOL    HW127187   6.092  11.707  13.624
 8430SOL    HW227188   6.014  11.642  13.512
 8431SOL     OW27189  12.679   6.264   1.713
 8431SOL    HW127190  12.696   6.354   1.742
 8431SOL    HW227191  12.633   6.274   1.630
 8432SOL     OW27192   2.548  11.148   1.734
 8432SOL    HW127193   2.490  11.195   1.792
 8432SOL    HW227194   2.490  11.100   1.675
 8433SOL     OW27195  12.725   4.168   1.054
 8433SOL    HW127196  12.749   4.256   1.084
 8433SOL    HW227197  12.752   4.166   0.962
 8434SOL     OW27198   6.265   2.331  12.916
 8434SOL    HW127199   6.324   2.397  12.952
 8434SOL    HW227200   6.180   2.349  12.958
 8435SOL     OW27201  12.319   0.427  12.339
 8435SOL    HW127202  12.397   0.480  12.322
 8435SOL    HW227203  12.327   0.354  12.278
 8436SOL     OW27204   4.821   8.604   8.919
 8436SOL    HW127205   4.882   8.580   8.850
 8436SOL    HW227206   4.870   8.665   8.975
 8437SOL     OW27207   7.693   3.726   7.657
 8437SOL    HW127208   7.613   3.771   7.630
 8437SOL    HW227209   7.719   3.675   7.580
 8438SOL     OW27210  14.005  12.550  13.604
 8438SOL    HW127211  13.931  12.493  13.586
 8438SOL    HW227212  14.061  12.499  13.663
 8439SOL     OW27213  11.074  10.398   9.404
 8439SOL    HW127214  11.077  10.353   9.489
 8439SOL    HW227215  10.981  10.416   9.390
 8440SOL     OW27216  12.823  13.740   4.416
 8440SOL    HW127217  12.906  13.743   4.463
 8440SOL    HW227218  12.836  13.798   4.341
 8441SOL     OW27219  12.810   7.555   0.599
 8441SOL    HW127220  12.814   7.638   0.551
 8441SOL    HW227221  12.731   7.563   0.653
 8442SOL     OW27222  12.787   1.060  11.517
 8442SOL    HW127223  12.801   1.103  11.432
 8442SOL    HW227224  12.843   1.107  11.578
 8443SOL     OW27225   2.595   0.946   6.695
 8443SOL    HW127226   2.553   0.892   6.627
 8443SOL    HW227227   2.630   0.882   6.757
 8444SOL     OW27228  10.429   3.808   2.474
 8444SOL    HW127229  10.475   3.871   2.418
 8444SOL    HW227230  10.408   3.736   2.415
 8445SOL     OW27231   8.684   6.739   4.499
 8445SOL    HW127232   8.659   6.776   4.414
 8445SOL    HW227233   8.602   6.706   4.536
 8446SOL     OW27234   9.382  11.916   3.647
 8446SOL    HW127235   9.474  11.940   3.636
 8446SOL    HW227236   9.383  11.820   3.655
 8447SOL     OW27237  11.994  11.310   5.973
 8447SOL    HW127238  12.076  11.292   6.019
 8447SOL    HW227239  11.974  11.229   5.925
 8448SOL     OW27240   3.816   4.625   7.558
 8448SOL    HW127241   3.865   4.695   7.601
 8448SOL    HW227242   3.861   4.544   7.584
 8449SOL     OW27243  10.988   7.315  14.313
 8449SOL    HW127244  10.917   7.360  14.360
 8449SOL    HW227245  10.947   7.279  14.235
 8450SOL     OW27246   9.549   3.149   1.244
 8450SOL    HW127247   9.590   3.103   1.317
 8450SOL    HW227248   9.620   3.163   1.182
 8451SOL     OW27249  10.198   8.768  12.795
 8451SOL    HW127250  10.201   8.863  12.789
 8451SOL    HW227251  10.110   8.744  12.766
 8452SOL     OW27252   0.686   3.845  12.878
 8452SOL    HW127253   0.622   3.787  12.917
 8452SOL    HW227254   0.767   3.794  12.875
 8453SOL     OW27255   1.329   8.673   6.155
 8453SOL    HW127256   1.367   8.589   6.177
 8453SOL    HW227257   1.263   8.689   6.222
 8454SOL     OW27258  13.388   0.512   2.142
 8454SOL    HW127259  13.304   0.481   2.175
 8454SOL    HW227260  13.401   0.597   2.184
 8455SOL     OW27261   4.671   2.670   0.555
 8455SOL    HW127262   4.710   2.755   0.576
 8455SOL    HW227263   4.727   2.607   0.601
 8456SOL     OW27264  10.242   7.640  12.597
 8456SOL    HW127265  10.169   7.698  12.617
 8456SOL    HW227266  10.206   7.552  12.610
 8457SOL     OW27267   2.894  13.769  10.502
 8457SOL    HW127268   2.988  13.773  10.486
 8457SOL    HW227269   2.867  13.860  10.513
 8458SOL     OW27270   2.209  14.439   1.783
 8458SOL    HW127271   2.222  14.350   1.817
 8458SOL    HW227272   2.205  14.494   1.861
 8459SOL     OW27273   4.763   1.591   0.198
 8459SOL    HW127274   4.676   1.558   0.173
 8459SOL    HW227275   4.814   1.585   0.117
 8460SOL     OW27276   7.745   9.275   4.866
 8460SOL    HW127277   7.758   9.313   4.953
 8460SOL    HW227278   7.657   9.236   4.870
 8461SOL     OW27279  14.013  11.740   9.892
 8461SOL    HW127280  13.988  11.720   9.983
 8461SOL    HW227281  13.956  11.812   9.867
 8462SOL     OW27282   8.634  12.456   8.642
 8462SOL    HW127283   8.544  12.454   8.673
 8462SOL    HW227284   8.687  12.461   8.722
 8463SOL     OW27285   6.372   9.923   0.463
 8463SOL    HW127286   6.331   9.950   0.545
 8463SOL    HW227287   6.379  10.004   0.412
 8464SOL     OW27288  13.077  10.536   6.734
 8464SOL    HW127289  13.059  10.625   6.765
 8464SOL    HW227290  13.089  10.485   6.814
 8465SOL     OW27291   0.988   0.736   0.198
 8465SOL    HW127292   0.991   0.822   0.240
 8465SOL    HW227293   0.896   0.710   0.205
 8466SOL     OW27294   4.030   6.134   5.491
 8466SOL    HW127295   4.058   6.043   5.484
 8466SOL    HW227296   3.934   6.129   5.497
 8467SOL     OW27297  10.795  13.193   7.636
 8467SOL    HW127298  10.881  13.203   7.677
 8467SOL    HW227299  10.794  13.259   7.567
 8468SOL     OW27300   9.600   6.065   2.942
 8468SOL    HW127301   9.563   5.979   2.962
 8468SOL    HW227302   9.624   6.101   3.028
 8469SOL     OW27303   0.081   1.935   1.704
 8469SOL    HW127304   0.010   1.899   1.650
 8469SOL    HW227305   0.159   1.925   1.650
 8470SOL     OW27306  12.502   7.341   4.613
 8470SOL    HW127307  12.578   7.345   4.555
 8470SOL    HW227308  12.439   7.287   4.566
 8471SOL     OW27309   0.409   2.864   8.928
 8471SOL    HW127310   0.336   2.804   8.916
 8471SOL    HW227311   0.441   2.846   9.017
 8472SOL     OW27312  14.799  13.744  13.118
 8472SOL    HW127313  14.740  13.670  13.106
 8472SOL    HW227314  14.859  13.716  13.187
 8473SOL     OW27315  14.290   8.309   1.291
 8473SOL    HW127316  14.338   8.278   1.367
 8473SOL    HW227317  14.326   8.258   1.218
 8474SOL     OW27318   0.067   2.960   2.063
 8474SOL    HW127319   0.156   2.976   2.032
 8474SOL    HW227320   0.044   2.874   2.029
 8475SOL     OW27321   3.528   6.045   9.217
 8475SOL    HW127322   3.599   5.982   9.223
 8475SOL    HW227323   3.477   6.018   9.141
 8476SOL     OW27324   3.629   5.654  14.622
 8476SOL    HW127325   3.534   5.646  14.633
 8476SOL    HW227326   3.653   5.726  14.680
 8477SOL     OW27327  11.959  13.992   1.550
 8477SOL    HW127328  12.012  14.051   1.603
 8477SOL    HW227329  11.910  13.940   1.613
 8478SOL     OW27330   0.613   0.185  13.532
 8478SOL    HW127331   0.616   0.134  13.450
 8478SOL    HW227332   0.689   0.242  13.527
 8479SOL     OW27333   2.732   1.835   5.406
 8479SOL    HW127334   2.663   1.894   5.437
 8479SOL    HW227335   2.686   1.767   5.358
 8480SOL     OW27336   4.151   9.257   0.728
 8480SOL    HW127337   4.176   9.295   0.644
 8480SOL    HW227338   4.214   9.293   0.790
 8481SOL     OW27339   7.189   8.491   1.207
 8481SOL    HW127340   7.159   8.472   1.296
 8481SOL    HW227341   7.222   8.580   1.211
 8482SOL     OW27342  11.829  12.986   0.877
 8482SOL    HW127343  11.766  12.922   0.846
 8482SOL    HW227344  11.874  13.015   0.798
 8483SOL     OW27345   6.398   8.531  10.808
 8483SOL    HW127346   6.399   8.447  10.762
 8483SOL    HW227347   6.486   8.566  10.796
 8484SOL     OW27348   7.384  10.527   3.487
 8484SOL    HW127349   7.403  10.607   3.439
 8484SOL    HW227350   7.468  10.480   3.488
 8485SOL     OW27351   3.777  11.763  14.202
 8485SOL    HW127352   3.712  11.725  14.261
 8485SOL    HW227353   3.795  11.694  14.139
 8486SOL     OW27354   2.076   3.819   1.574
 8486SOL    HW127355   2.087   3.736   1.621
 8486SOL    HW227356   2.081   3.795   1.482
 8487SOL     OW27357   8.548   2.954  12.085
 8487SOL    HW127358   8.576   3.043  12.108
 8487SOL    HW227359   8.475   2.966  12.025
 8488SOL     OW27360   8.790   8.879  14.610
 8488SOL    HW127361   8.697   8.863  14.597
 8488SOL    HW227362   8.816   8.930  14.534
 8489SOL     OW27363   9.286   8.656  10.889
 8489SOL    HW127364   9.361   8.714  10.872
 8489SOL    HW227365   9.247   8.641  10.803
 8490SOL     OW27366   2.099  14.324   3.636
 8490SOL    HW127367   2.067  14.255   3.577
 8490SOL    HW227368   2.019  14.365   3.669
 8491SOL     OW27369  11.855   9.201   3.782
 8491SOL    HW127370  11.878   9.272   3.722
 8491SOL    HW227371  11.890   9.228   3.867
 8492SOL     OW27372  13.829   8.028   3.365
 8492SOL    HW127373  13.854   8.051   3.455
 8492SOL    HW227374  13.799   7.937   3.372
 8493SOL     OW27375   5.446   2.241   4.025
 8493SOL    HW127376   5.528   2.290   4.027
 8493SOL    HW227377   5.401   2.274   3.947
 8494SOL     OW27378  14.112   9.877   3.037
 8494SOL    HW127379  14.134   9.857   3.128
 8494SOL    HW227380  14.194   9.867   2.990
 8495SOL     OW27381   5.878   8.581   1.807
 8495SOL    HW127382   5.901   8.495   1.771
 8495SOL    HW227383   5.960   8.616   1.841
 8496SOL     OW27384   8.370   3.789   5.453
 8496SOL    HW127385   8.358   3.861   5.514
 8496SOL    HW227386   8.359   3.710   5.506
 8497SOL     OW27387  10.785  13.685   9.352
 8497SOL    HW127388  10.816  13.598   9.377
 8497SOL    HW227389  10.731  13.713   9.425
 8498SOL     OW27390   2.726  13.269   7.728
 8498SOL    HW127391   2.708  13.231   7.814
 8498SOL    HW227392   2.816  13.301   7.734
 8499SOL     OW27393   5.517   0.556   4.717
 8499SOL    HW127394   5.480   0.639   4.686
 8499SOL    HW227395   5.576   0.529   4.646
 8500SOL     OW27396  11.252   6.219   8.505
 8500SOL    HW127397  11.223   6.245   8.592
 8500SOL    HW227398  11.282   6.300   8.464
 8501SOL     OW27399   5.516   2.408  10.575
 8501SOL    HW127400   5.549   2.434  10.490
 8501SOL    HW227401   5.511   2.489  10.626
 8502SOL     OW27402   6.369   8.910  10.930
 8502SOL    HW127403   6.306   8.974  10.961
 8502SOL    HW227404   6.337   8.884  10.844
 8503SOL     OW27405   8.560  12.654   4.195
 8503SOL    HW127406   8.509  12.621   4.121
 8503SOL    HW227407   8.521  12.611   4.272
 8504SOL     OW27408  11.262   3.518   3.900
 8504SOL    HW127409  11.200   3.557   3.839
 8504SOL    HW227410  11.271   3.582   3.970
 8505SOL     OW27411  10.831   4.588   3.234
 8505SOL    HW127412  10.760   4.614   3.175
 8505SOL    HW227413  10.848   4.665   3.287
 8506SOL     OW27414  10.897  12.817   6.342
 8506SOL    HW127415  10.977  12.766   6.355
 8506SOL    HW227416  10.911  12.897   6.392
 8507SOL     OW27417   6.935   3.015   8.734
 8507SOL    HW127418   6.958   2.924   8.715
 8507SOL    HW227419   6.945   3.023   8.829
 8508SOL     OW27420   5.986   3.304   3.651
 8508SOL    HW127421   5.913   3.246   3.632
 8508SOL    HW227422   5.947   3.391   3.656
 8509SOL     OW27423   8.133  13.772   3.263
 8509SOL    HW127424   8.096  13.811   3.342
 8509SOL    HW227425   8.144  13.679   3.286
 8510SOL     OW27426   0.532  13.647   8.972
 8510SOL    HW127427   0.608  13.631   8.916
 8510SOL    HW227428   0.559  13.616   9.058
 8511SOL     OW27429   2.974  13.588   3.523
 8511SOL    HW127430   2.895  13.543   3.551
 8511SOL    HW227431   3.030  13.589   3.600
 8512SOL     OW27432   8.110   9.890   5.540
 8512SOL    HW127433   8.032   9.909   5.593
 8512SOL    HW227434   8.145   9.809   5.578
 8513SOL     OW27435   3.556   2.860  12.988
 8513SOL    HW127436   3.617   2.913  12.936
 8513SOL    HW227437   3.493   2.924  13.023
 8514SOL     OW27438  14.399  14.672  12.739
 8514SOL    HW127439  14.404  14.586  12.780
 8514SOL    HW227440  14.489  14.690  12.711
 8515SOL     OW27441  13.903  10.024  12.085
 8515SOL    HW127442  13.877   9.933  12.100
 8515SOL    HW227443  13.851  10.075  12.148
 8516SOL     OW27444  11.279  13.189  14.818
 8516SOL    HW127445  11.307  13.280  14.809
 8516SOL    HW227446  11.353  13.139  14.784
 8517SOL     OW27447  14.656   2.050   3.617
 8517SOL    HW127448  14.628   1.969   3.660
 8517SOL    HW227449  14.708   2.022   3.543
 8518SOL     OW27450   2.967   5.554   5.685
 8518SOL    HW127451   2.922   5.566   5.768
 8518SOL    HW227452   2.898   5.558   5.619
 8519SOL     OW27453   7.726   2.421   0.851
 8519SOL    HW127454   7.759   2.454   0.768
 8519SOL    HW227455   7.639   2.387   0.831
 8520SOL     OW27456   7.464   0.033   2.504
 8520SOL    HW127457   7.374   0.017   2.476
 8520SOL    HW227458   7.486   0.117   2.466
 8521SOL     OW27459   7.044   1.657   1.784
 8521SOL    HW127460   6.996   1.588   1.737
 8521SOL    HW227461   7.129   1.660   1.740
 8522SOL     OW27462   8.908  12.908  13.555
 8522SOL    HW127463   8.941  12.833  13.604
 8522SOL    HW227464   8.872  12.870  13.474
 8523SOL     OW27465   2.637   9.975   9.660
 8523SOL    HW127466   2.590   9.954   9.580
 8523SOL    HW227467   2.640  10.070   9.662
 8524SOL     OW27468   8.319   6.593   9.794
 8524SOL    HW127469   8.360   6.507   9.806
 8524SOL    HW227470   8.228   6.581   9.821
 8525SOL     OW27471   0.456   4.154   1.089
 8525SOL    HW127472   0.515   4.111   1.151
 8525SOL    HW227473   0.472   4.109   1.006
 8526SOL     OW27474   2.753   8.478  10.439
 8526SOL    HW127475   2.806   8.398  10.442
 8526SOL    HW227476   2.687   8.465  10.507
 8527SOL     OW27477   9.363  13.156   3.559
 8527SOL    HW127478   9.276  13.128   3.587
 8527SOL    HW227479   9.417  13.077   3.564
 8528SOL     OW27480  13.146  14.395  11.408
 8528SOL    HW127481  13.148  14.487  11.381
 8528SOL    HW227482  13.101  14.351  11.336
 8529SOL     OW27483  10.951  10.271   5.519
 8529SOL    HW127484  10.941  10.247   5.426
 8529SOL    HW227485  11.030  10.224   5.547
 8530SOL     OW27486   5.270   6.680   5.081
 8530SOL    HW127487   5.331   6.619   5.040
 8530SOL    HW227488   5.311   6.766   5.068
 8531SOL     OW27489   9.895   5.123   5.066
 8531SOL    HW127490   9.970   5.065   5.078
 8531SOL    HW227491   9.932   5.211   5.063
 8532SOL     OW27492  11.644   3.518  14.662
 8532SOL    HW127493  11.643   3.524  14.757
 8532SOL    HW227494  11.642   3.424  14.643
 8533SOL     OW27495   5.961   1.953   0.479
 8533SOL    HW127496   6.003   2.031   0.514
 8533SOL    HW227497   6.032   1.889   0.469
 8534SOL     OW27498   5.798   3.657   1.560
 8534SOL    HW127499   5.771   3.719   1.492
 8534SOL    HW227500   5.799   3.708   1.640
 8535SOL     OW27501  12.794   8.177   0.819
 8535SOL    HW127502  12.855   8.207   0.886
 8535SOL    HW227503  12.774   8.087   0.844
 8536SOL     OW27504   0.932   7.173   4.804
 8536SOL    HW127505   0.976   7.127   4.876
 8536SOL    HW227506   0.908   7.258   4.840
 8537SOL     OW27507   1.773   6.939   6.644
 8537SOL    HW127508   1.710   6.938   6.716
 8537SOL    HW227509   1.767   7.027   6.607
 8538SOL     OW27510   6.592   6.963  11.398
 8538SOL    HW127511   6.592   6.964  11.494
 8538SOL    HW227512   6.598   7.056  11.374
 8539SOL     OW27513   5.525  10.111   1.736
 8539SOL    HW127514   5.582  10.130   1.661
 8539SOL    HW227515   5.545  10.020   1.759
 8540SOL     OW27516   7.045   7.009   7.654
 8540SOL    HW127517   7.083   7.091   7.687
 8540SOL    HW227518   7.117   6.946   7.656
 8541SOL     OW27519   1.885  13.463  10.255
 8541SOL    HW127520   1.818  13.402  10.225
 8541SOL    HW227521   1.837  13.532  10.301
 8542SOL     OW27522  11.331  11.666  11.933
 8542SOL    HW127523  11.256  11.726  11.944
 8542SOL    HW227524  11.380  11.703  11.859
 8543SOL     OW27525   3.136   0.914   7.729
 8543SOL    HW127526   3.204   0.859   7.769
 8543SOL    HW227527   3.087   0.855   7.673
 8544SOL     OW27528   8.216   8.499   6.858
 8544SOL    HW127529   8.183   8.410   6.864
 8544SOL    HW227530   8.239   8.510   6.765
 8545SOL     OW27531   4.676   2.898   2.087
 8545SOL    HW127532   4.622   2.860   2.157
 8545SOL    HW227533   4.638   2.865   2.006
 8546SOL     OW27534   5.168  11.438  11.779
 8546SOL    HW127535   5.135  11.450  11.868
 8546SOL    HW227536   5.236  11.505  11.769
 8547SOL     OW27537   6.233  12.240  13.144
 8547SOL    HW127538   6.267  12.245  13.234
 8547SOL    HW227539   6.220  12.147  13.129
 8548SOL     OW27540  12.792   4.937   5.427
 8548SOL    HW127541  12.807   4.974   5.514
 8548SOL    HW227542  12.698   4.926   5.421
 8549SOL     OW27543   4.842  12.682  14.116
 8549SOL    HW127544   4.765  12.734  14.137
 8549SOL    HW227545   4.915  12.743  14.118
 8550SOL     OW27546   4.638  14.374   5.407
 8550SOL    HW127547   4.653  14.350   5.498
 8550SOL    HW227548   4.648  14.469   5.405
 8551SOL     OW27549  13.206   2.837   7.733
 8551SOL    HW127550  13.224   2.830   7.826
 8551SOL    HW227551  13.206   2.746   7.701
 8552SOL     OW27552   0.722   4.607   5.119
 8552SOL    HW127553   0.762   4.576   5.200
 8552SOL    HW227554   0.713   4.702   5.132
 8553SOL     OW27555   0.308  12.603   3.211
 8553SOL    HW127556   0.297  12.546   3.135
 8553SOL    HW227557   0.396  12.585   3.242
 8554SOL     OW27558   2.326  11.295   8.968
 8554SOL    HW127559   2.368  11.210   8.955
 8554SOL    HW227560   2.239  11.284   8.931
 8555SOL     OW27561   2.531   6.340   4.036
 8555SOL    HW127562   2.447   6.315   3.998
 8555SOL    HW227563   2.510   6.373   4.123
 8556SOL     OW27564   6.294  12.869  14.154
 8556SOL    HW127565   6.349  12.873  14.075
 8556SOL    HW227566   6.295  12.959  14.188
 8557SOL     OW27567   2.084   8.623   4.664
 8557SOL    HW127568   2.113   8.708   4.630
 8557SOL    HW227569   2.062   8.640   4.755
 8558SOL     OW27570   4.292   3.970  14.534
 8558SOL    HW127571   4.307   4.024  14.456
 8558SOL    HW227572   4.316   4.028  14.607
 8559SOL     OW27573   2.844   3.122   2.009
 8559SOL    HW127574   2.925   3.102   1.961
 8559SOL    HW227575   2.789   3.166   1.945
 8560SOL     OW27576   1.531  12.042   3.870
 8560SOL    HW127577   1.611  12.091   3.849
 8560SOL    HW227578   1.501  12.080   3.953
 8561SOL     OW27579  10.284   7.166   7.585
 8561SOL    HW127580  10.311   7.212   7.506
 8561SOL    HW227581  10.329   7.211   7.656
 8562SOL     OW27582   9.787   7.605   1.141
 8562SOL    HW127583   9.795   7.553   1.061
 8562SOL    HW227584   9.699   7.587   1.173
 8563SOL     OW27585   0.432   6.376  10.452
 8563SOL    HW127586   0.462   6.302  10.505
 8563SOL    HW227587   0.383   6.336  10.381
 8564SOL     OW27588   3.612   1.985   1.976
 8564SOL    HW127589   3.645   1.962   1.890
 8564SOL    HW227590   3.679   1.953   2.037
 8565SOL     OW27591  14.349  10.692  12.485
 8565SOL    HW127592  14.432  10.719  12.524
 8565SOL    HW227593  14.292  10.672  12.559
 8566SOL     OW27594  12.703   2.596   2.919
 8566SOL    HW127595  12.738   2.653   2.850
 8566SOL    HW227596  12.776   2.585   2.980
 8567SOL     OW27597  12.635   6.355   5.701
 8567SOL    HW127598  12.574   6.417   5.738
 8567SOL    HW227599  12.648   6.384   5.610
 8568SOL     OW27600   0.289   5.158   6.886
 8568SOL    HW127601   0.366   5.106   6.863
 8568SOL    HW227602   0.278   5.218   6.813
 8569SOL     OW27603   1.948  12.973   6.931
 8569SOL    HW127604   1.989  12.921   6.862
 8569SOL    HW227605   1.939  13.061   6.893
 8570SOL     OW27606   2.385   7.473   1.241
 8570SOL    HW127607   2.480   7.479   1.227
 8570SOL    HW227608   2.369   7.531   1.316
 8571SOL     OW27609  12.759  10.084   0.240
 8571SOL    HW127610  12.672  10.058   0.210
 8571SOL    HW227611  12.743  10.145   0.312
 8572SOL     OW27612   9.210   1.579  13.507
 8572SOL    HW127613   9.294   1.577  13.462
 8572SOL    HW227614   9.150   1.618  13.444
 8573SOL     OW27615  14.672   7.442  13.475
 8573SOL    HW127616  14.580   7.423  13.455
 8573SOL    HW227617  14.669   7.527  13.520
 8574SOL     OW27618  10.984   9.247  10.730
 8574SOL    HW127619  10.895   9.233  10.699
 8574SOL    HW227620  11.038   9.240  10.651
 8575SOL     OW27621   4.754   9.877   1.182
 8575SOL    HW127622   4.718   9.899   1.268
 8575SOL    HW227623   4.725   9.948   1.125
 8576SOL     OW27624  12.466   9.036   0.051
 8576SOL    HW127625  12.419   9.115   0.078
 8576SOL    HW227626  12.457   8.976   0.126
 8577SOL     OW27627   0.754   5.260   6.870
 8577SOL    HW127628   0.785   5.334   6.818
 8577SOL    HW227629   0.834   5.222   6.906
 8578SOL     OW27630   9.438  11.884   0.815
 8578SOL    HW127631   9.391  11.876   0.898
 8578SOL    HW227632   9.392  11.826   0.755
 8579SOL     OW27633  12.541  12.836  13.197
 8579SOL    HW127634  12.478  12.860  13.265
 8579SOL    HW227635  12.580  12.754  13.228
 8580SOL     OW27636   7.130  12.589  10.521
 8580SOL    HW127637   7.168  12.667  10.481
 8580SOL    HW227638   7.055  12.621  10.570
 8581SOL     OW27639  10.061   6.093   4.757
 8581SOL    HW127640  10.120   6.168   4.748
 8581SOL    HW227641  10.089   6.032   4.688
 8582SOL     OW27642   0.265  12.997   8.453
 8582SOL    HW127643   0.348  13.045   8.450
 8582SOL    HW227644   0.215  13.039   8.523
 8583SOL     OW27645  11.019   4.152   4.777
 8583SOL    HW127646  11.063   4.090   4.719
 8583SOL    HW227647  10.954   4.098   4.823
 8584SOL     OW27648   4.769   2.051  13.667
 8584SOL    HW127649   4.810   2.078  13.585
 8584SOL    HW227650   4.675   2.050  13.648
 8585SOL     OW27651   6.805   5.237  11.540
 8585SOL    HW127652   6.775   5.318  11.499
 8585SOL    HW227653   6.897   5.230  11.514
 8586SOL     OW27654   9.487  12.148   6.981
 8586SOL    HW127655   9.426  12.202   7.031
 8586SOL    HW227656   9.538  12.211   6.930
 8587SOL     OW27657   9.922   7.008  10.737
 8587SOL    HW127658   9.959   6.974  10.656
 8587SOL    HW227659   9.976   7.084  10.758
 8588SOL     OW27660   5.478  10.378   3.523
 8588SOL    HW127661   5.405  10.410   3.470
 8588SOL    HW227662   5.546  10.445   3.512
 8589SOL     OW27663   8.838  13.256   2.565
 8589SOL    HW127664   8.827  13.188   2.631
 8589SOL    HW227665   8.826  13.338   2.612
 8590SOL     OW27666   3.817   1.192   3.258
 8590SOL    HW127667   3.835   1.114   3.204
 8590SOL    HW227668   3.724   1.208   3.246
 8591SOL     OW27669   1.919  13.683   1.210
 8591SOL    HW127670   1.933  13.636   1.128
 8591SOL    HW227671   1.824  13.693   1.217
 8592SOL     OW27672  12.975  14.438   4.210
 8592SOL    HW127673  12.935  14.486   4.282
 8592SOL    HW227674  12.940  14.480   4.131
 8593SOL     OW27675   4.248  10.836   6.448
 8593SOL    HW127676   4.325  10.842   6.390
 8593SOL    HW227677   4.173  10.845   6.389
 8594SOL     OW27678   8.856   8.075  14.748
 8594SOL    HW127679   8.926   8.110  14.694
 8594SOL    HW227680   8.841   8.142  14.815
 8595SOL     OW27681   7.780   0.517   3.568
 8595SOL    HW127682   7.829   0.489   3.646
 8595SOL    HW227683   7.848   0.532   3.502
 8596SOL     OW27684   9.196   9.846   8.799
 8596SOL    HW127685   9.140   9.782   8.755
 8596SOL    HW227686   9.262   9.869   8.734
 8597SOL     OW27687   2.158   4.867   7.779
 8597SOL    HW127688   2.192   4.956   7.766
 8597SOL    HW227689   2.213   4.831   7.849
 8598SOL     OW27690   3.514   4.942   8.125
 8598SOL    HW127691   3.446   4.996   8.085
 8598SOL    HW227692   3.535   4.987   8.207
 8599SOL     OW27693   4.542  13.543  10.488
 8599SOL    HW127694   4.618  13.582  10.446
 8599SOL    HW227695   4.494  13.617  10.525
 8600SOL     OW27696   5.914  13.210   1.513
 8600SOL    HW127697   6.009  13.214   1.529
 8600SOL    HW227698   5.887  13.128   1.553
 8601SOL     OW27699   7.535   8.647  13.032
 8601SOL    HW127700   7.457   8.617  13.079
 8601SOL    HW227701   7.608   8.623  13.089
 8602SOL     OW27702   3.072   8.998   7.038
 8602SOL    HW127703   3.005   9.034   7.096
 8602SOL    HW227704   3.127   8.945   7.095
 8603SOL     OW27705  14.395   0.250  11.198
 8603SOL    HW127706  14.407   0.344  11.210
 8603SOL    HW227707  14.479   0.219  11.163
 8604SOL     OW27708   2.985  10.054   7.847
 8604SOL    HW127709   2.969  10.104   7.767
 8604SOL    HW227710   2.942  10.105   7.916
 8605SOL     OW27711  11.989  14.572  13.081
 8605SOL    HW127712  11.911  14.610  13.041
 8605SOL    HW227713  11.989  14.604  13.171
 8606SOL     OW27714   2.947  13.489   6.509
 8606SOL    HW127715   2.932  13.396   6.490
 8606SOL    HW227716   3.030  13.490   6.556
 8607SOL     OW27717   2.813   4.059   9.581
 8607SOL    HW127718   2.896   4.025   9.615
 8607SOL    HW227719   2.828   4.069   9.487
 8608SOL     OW27720  12.452   5.675  13.510
 8608SOL    HW127721  12.432   5.621  13.586
 8608SOL    HW227722  12.481   5.613  13.443
 8609SOL     OW27723   4.405  12.938   6.932
 8609SOL    HW127724   4.471  12.874   6.960
 8609SOL    HW227725   4.448  12.987   6.862
 8610SOL     OW27726   0.077  11.220  13.544
 8610SOL    HW127727   0.169  11.199  13.535
 8610SOL    HW227728   0.065  11.300  13.492
 8611SOL     OW27729   8.637  14.107   6.505
 8611SOL    HW127730   8.695  14.146   6.570
 8611SOL    HW227731   8.605  14.181   6.453
 8612SOL     OW27732   4.550  12.554   5.706
 8612SOL    HW127733   4.486  12.523   5.769
 8612SOL    HW227734   4.506  12.625   5.658
 8613SOL     OW27735  12.960  13.586   4.915
 8613SOL    HW127736  12.911  13.559   4.838
 8613SOL    HW227737  12.991  13.674   4.894
 8614SOL     OW27738   7.020   8.383  11.463
 8614SOL    HW127739   7.074   8.443  11.513
 8614SOL    HW227740   6.940   8.373  11.515
 8615SOL     OW27741  10.968   4.882   3.004
 8615SOL    HW127742  10.989   4.789   3.011
 8615SOL    HW227743  10.918   4.889   2.923
 8616SOL     OW27744   1.315  11.194  10.030
 8616SOL    HW127745   1.361  11.110  10.036
 8616SOL    HW227746   1.258  11.195  10.107
 8617SOL     OW27747   8.503  11.509   7.548
 8617SOL    HW127748   8.448  11.497   7.625
 8617SOL    HW227749   8.503  11.603   7.533
 8618SOL     OW27750   7.158   8.488   7.467
 8618SOL    HW127751   7.254   8.492   7.465
 8618SOL    HW227752   7.131   8.575   7.498
 8619SOL     OW27753  12.312   2.696   2.200
 8619SOL    HW127754  12.244   2.745   2.153
 8619SOL    HW227755  12.263   2.638   2.259
 8620SOL     OW27756   3.520   2.892   1.267
 8620SOL    HW127757   3.448   2.887   1.205
 8620SOL    HW227758   3.560   2.805   1.265
 8621SOL     OW27759   5.665  14.714   4.272
 8621SOL    HW127760   5.676  14.809   4.266
 8621SOL    HW227761   5.570  14.702   4.280
 8622SOL     OW27762   0.246  14.139   5.621
 8622SOL    HW127763   0.204  14.107   5.542
 8622SOL    HW227764   0.175  14.144   5.686
 8623SOL     OW27765   1.540   2.515   5.698
 8623SOL    HW127766   1.528   2.588   5.758
 8623SOL    HW227767   1.634   2.516   5.678
 8624SOL     OW27768   9.600   5.005   1.558
 8624SOL    HW127769   9.672   5.054   1.518
 8624SOL    HW227770   9.530   5.009   1.493
 8625SOL     OW27771   4.905   2.767   6.362
 8625SOL    HW127772   4.946   2.706   6.424
 8625SOL    HW227773   4.836   2.810   6.413
 8626SOL     OW27774  14.637   2.801  14.698
 8626SOL    HW127775  14.661   2.755  14.617
 8626SOL    HW227776  14.710   2.860  14.715
 8627SOL     OW27777   9.538  12.491   2.401
 8627SOL    HW127778   9.607  12.456   2.457
 8627SOL    HW227779   9.470  12.424   2.402
 8628SOL     OW27780   0.490   0.370   0.159
 8628SOL    HW127781   0.573   0.325   0.144
 8628SOL    HW227782   0.423   0.303   0.144
 8629SOL     OW27783  10.697  12.699  12.310
 8629SOL    HW127784  10.787  12.671  12.328
 8629SOL    HW227785  10.644  12.619  12.319
 8630SOL     OW27786   2.623  10.082  11.050
 8630SOL    HW127787   2.665  10.017  10.993
 8630SOL    HW227788   2.687  10.152  11.058
 8631SOL     OW27789  13.431   1.686   9.782
 8631SOL    HW127790  13.526   1.700   9.777
 8631SOL    HW227791  13.418   1.601   9.740
 8632SOL     OW27792   0.985  11.505   4.141
 8632SOL    HW127793   1.034  11.435   4.098
 8632SOL    HW227794   0.895  11.474   4.144
 8633SOL     OW27795  14.193   1.809   9.030
 8633SOL    HW127796  14.190   1.850   8.944
 8633SOL    HW227797  14.255   1.864   9.080
 8634SOL     OW27798   9.911  12.358  14.534
 8634SOL    HW127799  10.006  12.357  14.548
 8634SOL    HW227800   9.891  12.450  14.515
 8635SOL     OW27801  11.243  11.622   7.863
 8635SOL    HW127802  11.157  11.580   7.864
 8635SOL    HW227803  11.226  11.713   7.887
 8636SOL     OW27804   6.900   7.208   0.158
 8636SOL    HW127805   6.978   7.186   0.209
 8636SOL    HW227806   6.908   7.156   0.078
 8637SOL     OW27807   3.790   7.114   7.811
 8637SOL    HW127808   3.738   7.135   7.888
 8637SOL    HW227809   3.726   7.109   7.740
 8638SOL     OW27810   3.667   0.059  11.788
 8638SOL    HW127811   3.747   0.037  11.836
 8638SOL    HW227812   3.606  14.868  11.808
 8639SOL     OW27813  13.898  10.894   8.257
 8639SOL    HW127814  13.822  10.922   8.307
 8639SOL    HW227815  13.970  10.897   8.319
 8640SOL     OW27816   2.923   1.178   4.619
 8640SOL    HW127817   3.012   1.207   4.597
 8640SOL    HW227818   2.914   1.198   4.712
 8641SOL     OW27819   4.321  14.841   1.497
 8641SOL    HW127820   4.289  14.816   1.583
 8641SOL    HW227821   4.309  14.762   1.444
 8642SOL     OW27822  14.005   9.155   8.244
 8642SOL    HW127823  14.044   9.068   8.232
 8642SOL    HW227824  14.078   9.209   8.275
 8643SOL     OW27825  11.876  11.435  10.684
 8643SOL    HW127826  11.794  11.386  10.672
 8643SOL    HW227827  11.938  11.370  10.717
 8644SOL     OW27828   4.623   7.245  12.460
 8644SOL    HW127829   4.564   7.294  12.403
 8644SOL    HW227830   4.566   7.192  12.514
 8645SOL     OW27831   0.574   3.838   6.066
 8645SOL    HW127832   0.535   3.760   6.025
 8645SOL    HW227833   0.626   3.878   5.996
 8646SOL     OW27834   3.694   1.294   5.518
 8646SOL    HW127835   3.775   1.341   5.535
 8646SOL    HW227836   3.649   1.346   5.451
 8647SOL     OW27837  14.337  10.394  12.374
 8647SOL    HW127838  14.373  10.329  12.433
 8647SOL    HW227839  14.395  10.393  12.298
 8648SOL     OW27840   8.533  13.953   3.938
 8648SOL    HW127841   8.562  13.873   3.894
 8648SOL    HW227842   8.498  13.924   4.022
 8649SOL     OW27843   9.028  14.323   4.732
 8649SOL    HW127844   9.025  14.418   4.720
 8649SOL    HW227845   9.112  14.297   4.695
 8650SOL     OW27846   9.187   4.517   0.836
 8650SOL    HW127847   9.129   4.560   0.772
 8650SOL    HW227848   9.131   4.503   0.912
 8651SOL     OW27849   3.375   6.423  12.543
 8651SOL    HW127850   3.426   6.444  12.464
 8651SOL    HW227851   3.290   6.466  12.528
 8652SOL     OW27852   5.586   9.303   2.717
 8652SOL    HW127853   5.613   9.223   2.762
 8652SOL    HW227854   5.666   9.355   2.710
 8653SOL     OW27855  12.484   0.554  11.009
 8653SOL    HW127856  12.426   0.629  10.995
 8653SOL    HW227857  12.506   0.524  10.921
 8654SOL     OW27858   9.630   3.030  10.455
 8654SOL    HW127859   9.568   2.968  10.493
 8654SOL    HW227860   9.707   2.977  10.432
 8655SOL     OW27861   6.299  14.454  12.015
 8655SOL    HW127862   6.372  14.392  12.014
 8655SOL    HW227863   6.329  14.527  11.960
 8656SOL     OW27864   2.814   6.522  14.466
 8656SOL    HW127865   2.891   6.479  14.428
 8656SOL    HW227866   2.748   6.453  14.472
 8657SOL     OW27867  12.185   3.997  10.617
 8657SOL    HW127868  12.198   3.968  10.527
 8657SOL    HW227869  12.212   3.923  10.671
 8658SOL     OW27870   9.094   2.211   5.969
 8658SOL    HW127871   9.175   2.170   5.938
 8658SOL    HW227872   9.107   2.221   6.063
 8659SOL     OW27873  11.543   0.370   1.261
 8659SOL    HW127874  11.577   0.384   1.349
 8659SOL    HW227875  11.456   0.333   1.274
 8660SOL     OW27876   7.043  10.342   4.005
 8660SOL    HW127877   6.957  10.383   3.995
 8660SOL    HW227878   7.050  10.281   3.932
 8661SOL     OW27879   2.453  11.698  10.371
 8661SOL    HW127880   2.473  11.616  10.326
 8661SOL    HW227881   2.507  11.697  10.449
 8662SOL     OW27882  14.346   6.053  13.866
 8662SOL    HW127883  14.374   6.142  13.888
 8662SOL    HW227884  14.251   6.059  13.854
 8663SOL     OW27885   3.667   6.683   4.167
 8663SOL    HW127886   3.597   6.732   4.211
 8663SOL    HW227887   3.627   6.600   4.142
 8664SOL     OW27888   9.238   6.285   3.500
 8664SOL    HW127889   9.175   6.324   3.560
 8664SOL    HW227890   9.261   6.355   3.440
 8665SOL     OW27891   4.314   9.679   3.264
 8665SOL    HW127892   4.405   9.682   3.293
 8665SOL    HW227893   4.302   9.591   3.230
 8666SOL     OW27894   6.444   7.139  12.432
 8666SOL    HW127895   6.490   7.219  12.456
 8666SOL    HW227896   6.485   7.071  12.486
 8667SOL     OW27897   8.696   2.869   2.005
 8667SOL    HW127898   8.718   2.822   2.086
 8667SOL    HW227899   8.638   2.939   2.033
 8668SOL     OW27900   7.987   4.590  12.598
 8668SOL    HW127901   8.012   4.615  12.509
 8668SOL    HW227902   8.061   4.539  12.630
 8669SOL     OW27903   8.033  14.089  10.472
 8669SOL    HW127904   8.090  14.027  10.426
 8669SOL    HW227905   7.958  14.036  10.499
 8670SOL     OW27906   2.279   8.159   0.756
 8670SOL    HW127907   2.274   8.084   0.698
 8670SOL    HW227908   2.198   8.208   0.739
 8671SOL     OW27909   0.785  12.794  10.883
 8671SOL    HW127910   0.703  12.785  10.834
 8671SOL    HW227911   0.782  12.883  10.918
 8672SOL     OW27912  11.022   7.240   1.363
 8672SOL    HW127913  10.957   7.299   1.324
 8672SOL    HW227914  11.002   7.154   1.325
 8673SOL     OW27915   8.597  11.071   7.512
 8673SOL    HW127916   8.603  10.975   7.513
 8673SOL    HW227917   8.525  11.091   7.572
 8674SOL     OW27918   0.797   2.438   0.613
 8674SOL    HW127919   0.841   2.422   0.529
 8674SOL    HW227920   0.758   2.354   0.637
 8675SOL     OW27921   4.665   9.490   6.713
 8675SOL    HW127922   4.735   9.443   6.758
 8675SOL    HW227923   4.613   9.421   6.672
 8676SOL     OW27924   8.342   6.392  10.226
 8676SOL    HW127925   8.334   6.298  10.241
 8676SOL    HW227926   8.405   6.421  10.292
 8677SOL     OW27927   7.387   4.731   4.153
 8677SOL    HW127928   7.330   4.677   4.208
 8677SOL    HW227929   7.468   4.681   4.146
 8678SOL     OW27930  13.784  13.133  11.369
 8678SOL    HW127931  13.739  13.050  11.350
 8678SOL    HW227932  13.850  13.110  11.434
 8679SOL     OW27933  12.249   0.999   0.454
 8679SOL    HW127934  12.187   1.071   0.470
 8679SOL    HW227935  12.220   0.929   0.512
 8680SOL     OW27936  10.990   7.056   5.131
 8680SOL    HW127937  11.002   6.968   5.097
 8680SOL    HW227938  10.981   7.045   5.225
 8681SOL     OW27939  13.723  13.407  10.283
 8681SOL    HW127940  13.778  13.342  10.325
 8681SOL    HW227941  13.722  13.382  10.190
 8682SOL     OW27942   1.717   4.088  12.172
 8682SOL    HW127943   1.648   4.152  12.157
 8682SOL    HW227944   1.684   4.007  12.133
 8683SOL     OW27945  12.458  13.383   9.470
 8683SOL    HW127946  12.508  13.305   9.446
 8683SOL    HW227947  12.407  13.356   9.547
 8684SOL     OW27948  10.852  12.836  12.705
 8684SOL    HW127949  10.927  12.795  12.747
 8684SOL    HW227950  10.872  12.834  12.611
 8685SOL     OW27951   8.729   3.245   0.387
 8685SOL    HW127952   8.657   3.306   0.401
 8685SOL    HW227953   8.798   3.298   0.348
 8686SOL     OW27954   3.720   1.487   7.165
 8686SOL    HW127955   3.745   1.577   7.145
 8686SOL    HW227956   3.803   1.439   7.169
 8687SOL     OW27957  11.577   4.081   1.707
 8687SOL    HW127958  11.666   4.096   1.676
 8687SOL    HW227959  11.564   4.146   1.777
 8688SOL     OW27960  13.453   0.426   9.440
 8688SOL    HW127961  13.542   0.438   9.473
 8688SOL    HW227962  13.397   0.454   9.512
 8689SOL     OW27963   6.196   5.756  13.026
 8689SOL    HW127964   6.222   5.839  12.984
 8689SOL    HW227965   6.137   5.716  12.962
 8690SOL     OW27966   8.806   1.688  12.847
 8690SOL    HW127967   8.753   1.737  12.783
 8690SOL    HW227968   8.842   1.615  12.798
 8691SOL     OW27969  14.307   7.989   8.598
 8691SOL    HW127970  14.317   7.948   8.683
 8691SOL    HW227971  14.368   7.942   8.541
 8692SOL     OW27972   8.270   4.678   4.566
 8692SOL    HW127973   8.217   4.729   4.627
 8692SOL    HW227974   8.234   4.589   4.571
 8693SOL     OW27975  13.116   5.640   3.179
 8693SOL    HW127976  13.131   5.657   3.086
 8693SOL    HW227977  13.167   5.560   3.197
 8694SOL     OW27978   1.941   0.076  14.587
 8694SOL    HW127979   2.000   0.054  14.514
 8694SOL    HW227980   1.996   0.071  14.665
 8695SOL     OW27981  11.284   1.402  14.650
 8695SOL    HW127982  11.220   1.334  14.675
 8695SOL    HW227983  11.310   1.379  14.561
 8696SOL     OW27984   2.439  11.514  13.292
 8696SOL    HW127985   2.513  11.533  13.348
 8696SOL    HW227986   2.436  11.419  13.287
 8697SOL     OW27987   8.495   5.906   8.797
 8697SOL    HW127988   8.568   5.885   8.738
 8697SOL    HW227989   8.500   6.001   8.808
 8698SOL     OW27990   3.302   2.925   4.960
 8698SOL    HW127991   3.246   2.978   5.016
 8698SOL    HW227992   3.249   2.849   4.937
 8699SOL     OW27993  13.232   8.639   8.346
 8699SOL    HW127994  13.295   8.702   8.381
 8699SOL    HW227995  13.179   8.614   8.421
 8700SOL     OW27996   2.450  12.229   2.074
 8700SOL    HW127997   2.418  12.243   2.163
 8700SOL    HW227998   2.487  12.141   2.076
 8701SOL     OW27999   9.473   2.578  13.411
 8701SOL    HW128000   9.486   2.489  13.377
 8701SOL    HW228001   9.562   2.613  13.421
 8702SOL     OW28002  14.024  12.127   1.340
 8702SOL    HW128003  14.069  12.210   1.349
 8702SOL    HW228004  14.023  12.089   1.428
 8703SOL     OW28005   6.284   4.014   5.214
 8703SOL    HW128006   6.359   4.039   5.268
 8703SOL    HW228007   6.319   3.951   5.151
 8704SOL     OW28008   9.976   6.067   5.003
 8704SOL    HW128009   9.991   6.157   5.029
 8704SOL    HW228010  10.005   6.062   4.912
 8705SOL     OW28011   8.097   7.899   0.599
 8705SOL    HW128012   8.083   7.959   0.525
 8705SOL    HW228013   8.062   7.815   0.568
 8706SOL     OW28014  12.159   3.636   4.461
 8706SOL    HW128015  12.157   3.732   4.451
 8706SOL    HW228016  12.074   3.607   4.427
 8707SOL     OW28017   6.588  13.688   0.411
 8707SOL    HW128018   6.507  13.691   0.360
 8707SOL    HW228019   6.656  13.664   0.347
 8708SOL     OW28020   3.835   4.083   1.995
 8708SOL    HW128021   3.860   4.139   1.920
 8708SOL    HW228022   3.879   4.000   1.979
 8709SOL     OW28023   0.446  12.627   6.152
 8709SOL    HW128024   0.376  12.618   6.216
 8709SOL    HW228025   0.525  12.638   6.205
 8710SOL     OW28026   7.467   1.692  14.823
 8710SOL    HW128027   7.476   1.614  14.878
 8710SOL    HW228028   7.375   1.716  14.830
 8711SOL     OW28029  10.873   5.678   0.587
 8711SOL    HW128030  10.910   5.593   0.564
 8711SOL    HW228031  10.778   5.664   0.582
 8712SOL     OW28032   8.100   1.422   7.174
 8712SOL    HW128033   8.173   1.371   7.139
 8712SOL    HW228034   8.070   1.373   7.251
 8713SOL     OW28035   8.703  12.169   4.736
 8713SOL    HW128036   8.689  12.182   4.830
 8713SOL    HW228037   8.782  12.218   4.715
 8714SOL     OW28038  12.763   0.898  14.507
 8714SOL    HW128039  12.773   0.937  14.420
 8714SOL    HW228040  12.720   0.814  14.492
 8715SOL     OW28041   5.039  10.442   8.741
 8715SOL    HW128042   5.060  10.442   8.835
 8715SOL    HW228043   5.005  10.530   8.724
 8716SOL     OW28044  10.682   9.139   3.888
 8716SOL    HW128045  10.677   9.142   3.984
 8716SOL    HW228046  10.714   9.225   3.863
 8717SOL     OW28047  14.635   9.247  14.668
 8717SOL    HW128048  14.625   9.184  14.597
 8717SOL    HW228049  14.680   9.199  14.737
 8718SOL     OW28050   9.160  12.107  12.936
 8718SOL    HW128051   9.094  12.041  12.918
 8718SOL    HW228052   9.112  12.190  12.937
 8719SOL     OW28053  12.003  11.484  12.210
 8719SOL    HW128054  12.088  11.520  12.182
 8719SOL    HW228055  11.944  11.506  12.138
 8720SOL     OW28056   0.856  13.392  12.480
 8720SOL    HW128057   0.793  13.437  12.536
 8720SOL    HW228058   0.818  13.396  12.393
 8721SOL     OW28059  13.530   8.452   4.778
 8721SOL    HW128060  13.546   8.359   4.763
 8721SOL    HW228061  13.617   8.490   4.791
 8722SOL     OW28062  11.319   2.678   8.983
 8722SOL    HW128063  11.329   2.772   8.996
 8722SOL    HW228064  11.250   2.653   9.045
 8723SOL     OW28065   6.422   7.447   5.521
 8723SOL    HW128066   6.516   7.463   5.507
 8723SOL    HW228067   6.417   7.411   5.609
 8724SOL     OW28068   5.908  14.740   6.360
 8724SOL    HW128069   5.898  14.714   6.268
 8724SOL    HW228070   5.822  14.725   6.398
 8725SOL     OW28071   6.056  14.134   3.501
 8725SOL    HW128072   6.036  14.162   3.590
 8725SOL    HW228073   6.066  14.039   3.506
 8726SOL     OW28074   1.224   4.618  14.856
 8726SOL    HW128075   1.309   4.576  14.861
 8726SOL    HW228076   1.236   4.691  14.795
 8727SOL     OW28077   1.044   5.460   8.152
 8727SOL    HW128078   0.970   5.519   8.165
 8727SOL    HW228079   1.043   5.401   8.227
 8728SOL     OW28080   5.656   3.804   5.609
 8728SOL    HW128081   5.715   3.852   5.552
 8728SOL    HW228082   5.568   3.828   5.580
 8729SOL     OW28083   2.929   3.970  14.818
 8729SOL    HW128084   2.893   3.995   0.024
 8729SOL    HW228085   2.869   4.008  14.754
 8730SOL     OW28086  10.677   1.633   9.122
 8730SOL    HW128087  10.709   1.685   9.049
 8730SOL    HW228088  10.689   1.689   9.199
 8731SOL     OW28089   1.478   9.370   8.628
 8731SOL    HW128090   1.566   9.335   8.643
 8731SOL    HW228091   1.435   9.366   8.713
 8732SOL     OW28092   5.004   1.245  10.086
 8732SOL    HW128093   4.911   1.228  10.103
 8732SOL    HW228094   5.016   1.337  10.111
 8733SOL     OW28095   8.486   8.996  13.151
 8733SOL    HW128096   8.416   9.050  13.116
 8733SOL    HW228097   8.501   8.930  13.084
 8734SOL     OW28098  10.465   4.559  10.376
 8734SOL    HW128099  10.546   4.611  10.378
 8734SOL    HW228100  10.494   4.471  10.353
 8735SOL     OW28101  12.664   0.407  11.709
 8735SOL    HW128102  12.664   0.346  11.635
 8735SOL    HW228103  12.655   0.493  11.668
 8736SOL     OW28104   2.771  11.415   5.135
 8736SOL    HW128105   2.819  11.336   5.159
 8736SOL    HW228106   2.813  11.485   5.185
 8737SOL     OW28107   3.722   6.019   5.770
 8737SOL    HW128108   3.803   5.982   5.806
 8737SOL    HW228109   3.737   6.114   5.770
 8738SOL     OW28110  11.659  14.732   6.830
 8738SOL    HW128111  11.577  14.746   6.876
 8738SOL    HW228112  11.715  14.805   6.857
 8739SOL     OW28113  11.491  13.432  13.349
 8739SOL    HW128114  11.541  13.513  13.357
 8739SOL    HW228115  11.538  13.381  13.284
 8740SOL     OW28116   6.390   4.023   3.959
 8740SOL    HW128117   6.312   4.008   4.013
 8740SOL    HW228118   6.370   3.978   3.876
 8741SOL     OW28119   1.971   5.402   6.959
 8741SOL    HW128120   1.889   5.451   6.964
 8741SOL    HW228121   2.015   5.437   6.882
 8742SOL     OW28122  12.996  13.816  14.610
 8742SOL    HW128123  13.036  13.729  14.613
 8742SOL    HW228124  12.907  13.800  14.578
 8743SOL     OW28125   3.197  12.832   7.795
 8743SOL    HW128126   3.114  12.871   7.823
 8743SOL    HW228127   3.262  12.871   7.854
 8744SOL     OW28128  11.403   8.140  10.312
 8744SOL    HW128129  11.409   8.223  10.359
 8744SOL    HW228130  11.311   8.114  10.322
 8745SOL     OW28131  14.491  11.902  11.801
 8745SOL    HW128132  14.474  11.983  11.849
 8745SOL    HW228133  14.513  11.930  11.712
 8746SOL     OW28134   8.850   5.912   1.548
 8746SOL    HW128135   8.783   5.906   1.616
 8746SOL    HW228136   8.920   5.854   1.578
 8747SOL     OW28137   0.308   3.193   6.782
 8747SOL    HW128138   0.251   3.226   6.713
 8747SOL    HW228139   0.313   3.265   6.845
 8748SOL     OW28140   8.481   6.543   2.212
 8748SOL    HW128141   8.436   6.559   2.129
 8748SOL    HW228142   8.412   6.518   2.273
 8749SOL     OW28143   3.679  10.332   9.497
 8749SOL    HW128144   3.593  10.365   9.522
 8749SOL    HW228145   3.662  10.244   9.462
 8750SOL     OW28146   1.386   5.626   8.736
 8750SOL    HW128147   1.433   5.636   8.819
 8750SOL    HW228148   1.296   5.607   8.761
 8751SOL     OW28149   0.601   0.404   1.222
 8751SOL    HW128150   0.597   0.473   1.155
 8751SOL    HW228151   0.544   0.435   1.292
 8752SOL     OW28152  13.476  11.644   1.448
 8752SOL    HW128153  13.560  11.614   1.414
 8752SOL    HW228154  13.413  11.579   1.416
 8753SOL     OW28155  10.068   4.632   8.548
 8753SOL    HW128156  10.100   4.545   8.571
 8753SOL    HW228157  10.018   4.619   8.468
 8754SOL     OW28158   6.360   6.608  11.907
 8754SOL    HW128159   6.430   6.653  11.859
 8754SOL    HW228160   6.403   6.570  11.984
 8755SOL     OW28161   5.620   5.357  14.645
 8755SOL    HW128162   5.562   5.410  14.591
 8755SOL    HW228163   5.699   5.344  14.592
 8756SOL     OW28164   0.611   1.787   3.264
 8756SOL    HW128165   0.602   1.843   3.186
 8756SOL    HW228166   0.568   1.836   3.334
 8757SOL     OW28167   6.242   3.952   1.669
 8757SOL    HW128168   6.202   4.034   1.697
 8757SOL    HW228169   6.169   3.892   1.655
 8758SOL     OW28170  13.641  12.762   4.491
 8758SOL    HW128171  13.679  12.807   4.415
 8758SOL    HW228172  13.548  12.783   4.487
 8759SOL     OW28173   6.249  11.691  14.239
 8759SOL    HW128174   6.163  11.656  14.218
 8759SOL    HW228175   6.299  11.683  14.157
 8760SOL     OW28176   6.277  11.124   0.379
 8760SOL    HW128177   6.224  11.143   0.302
 8760SOL    HW228178   6.287  11.208   0.423
 8761SOL     OW28179  14.651  12.046   6.400
 8761SOL    HW128180  14.629  12.056   6.307
 8761SOL    HW228181  14.744  12.069   6.405
 8762SOL     OW28182   4.037   7.334   7.332
 8762SOL    HW128183   3.972   7.404   7.326
 8762SOL    HW228184   4.029   7.301   7.421
 8763SOL     OW28185   8.041   8.239   8.032
 8763SOL    HW128186   7.947   8.249   8.045
 8763SOL    HW228187   8.060   8.292   7.954
 8764SOL     OW28188   8.909   9.016  14.805
 8764SOL    HW128189   8.999   8.986  14.815
 8764SOL    HW228190   8.871   8.959  14.738
 8765SOL     OW28191   7.677   5.583   0.961
 8765SOL    HW128192   7.724   5.646   1.015
 8765SOL    HW228193   7.589   5.619   0.953
 8766SOL     OW28194   7.465   0.730   0.489
 8766SOL    HW128195   7.438   0.787   0.561
 8766SOL    HW228196   7.451   0.641   0.521
 8767SOL     OW28197  10.043   0.454   5.863
 8767SOL    HW128198   9.963   0.422   5.905
 8767SOL    HW228199  10.077   0.519   5.924
 8768SOL     OW28200   6.573   6.727  11.742
 8768SOL    HW128201   6.646   6.708  11.683
 8768SOL    HW228202   6.529   6.802  11.704
 8769SOL     OW28203   1.627   1.552   2.708
 8769SOL    HW128204   1.642   1.589   2.621
 8769SOL    HW228205   1.644   1.624   2.768
 8770SOL     OW28206  11.656   3.347   6.285
 8770SOL    HW128207  11.740   3.390   6.271
 8770SOL    HW228208  11.674   3.254   6.271
 8771SOL     OW28209   6.734   5.717   8.121
 8771SOL    HW128210   6.656   5.713   8.176
 8771SOL    HW228211   6.803   5.745   8.181
 8772SOL     OW28212  13.904  13.145   6.508
 8772SOL    HW128213  13.904  13.179   6.419
 8772SOL    HW228214  13.813  13.155   6.537
 8773SOL     OW28215   0.771   6.429   2.089
 8773SOL    HW128216   0.833   6.460   2.022
 8773SOL    HW228217   0.734   6.349   2.052
 8774SOL     OW28218  11.756  13.980  11.417
 8774SOL    HW128219  11.682  14.040  11.411
 8774SOL    HW228220  11.833  14.038  11.424
 8775SOL     OW28221   5.549   9.250   3.608
 8775SOL    HW128222   5.562   9.256   3.514
 8775SOL    HW228223   5.616   9.187   3.637
 8776SOL     OW28224   2.926  10.909   8.309
 8776SOL    HW128225   3.015  10.940   8.294
 8776SOL    HW228226   2.934  10.814   8.312
 8777SOL     OW28227   7.194  13.051  12.485
 8777SOL    HW128228   7.254  13.092  12.547
 8777SOL    HW228229   7.112  13.040  12.535
 8778SOL     OW28230   9.977   6.473   7.522
 8778SOL    HW128231   9.908   6.526   7.561
 8778SOL    HW228232  10.016   6.529   7.455
 8779SOL     OW28233  13.228   4.336  12.264
 8779SOL    HW128234  13.165   4.353  12.194
 8779SOL    HW228235  13.179   4.286  12.329
 8780SOL     OW28236   0.887   0.040  13.725
 8780SOL    HW128237   0.868   0.071  13.813
 8780SOL    HW228238   0.927   0.114  13.681
 8781SOL     OW28239   5.638  13.829   9.887
 8781SOL    HW128240   5.621  13.795   9.975
 8781SOL    HW228241   5.592  13.912   9.884
 8782SOL     OW28242   8.119  12.155   6.146
 8782SOL    HW128243   8.199  12.107   6.167
 8782SOL    HW228244   8.114  12.154   6.051
 8783SOL     OW28245   3.696  14.213   7.305
 8783SOL    HW128246   3.631  14.143   7.297
 8783SOL    HW228247   3.779  14.171   7.280
 8784SOL     OW28248   8.307  10.218   7.556
 8784SOL    HW128249   8.292  10.164   7.478
 8784SOL    HW228250   8.294  10.158   7.629
 8785SOL     OW28251  10.276   4.985   6.928
 8785SOL    HW128252  10.352   4.961   6.981
 8785SOL    HW228253  10.307   4.981   6.838
 8786SOL     OW28254   9.473  13.005  12.366
 8786SOL    HW128255   9.410  13.060  12.411
 8786SOL    HW228256   9.534  12.977  12.434
 8787SOL     OW28257   9.920   5.865  12.144
 8787SOL    HW128258   9.955   5.868  12.055
 8787SOL    HW228259   9.889   5.954  12.160
 8788SOL     OW28260   7.795  14.527  10.734
 8788SOL    HW128261   7.730  14.518  10.664
 8788SOL    HW228262   7.750  14.496  10.813
 8789SOL     OW28263   0.325   5.424   8.320
 8789SOL    HW128264   0.239   5.385   8.336
 8789SOL    HW228265   0.324   5.505   8.371
 8790SOL     OW28266   6.566   0.306   1.948
 8790SOL    HW128267   6.504   0.246   1.907
 8790SOL    HW228268   6.572   0.276   2.039
 8791SOL     OW28269   5.797  13.714  13.572
 8791SOL    HW128270   5.803  13.650  13.642
 8791SOL    HW228271   5.707  13.746  13.576
 8792SOL     OW28272  13.924  11.551  10.093
 8792SOL    HW128273  13.888  11.553  10.182
 8792SOL    HW228274  13.851  11.524  10.038
 8793SOL     OW28275   8.537   5.869   7.932
 8793SOL    HW128276   8.534   5.787   7.882
 8793SOL    HW228277   8.563   5.935   7.867
 8794SOL     OW28278   0.665  14.827   7.794
 8794SOL    HW128279   0.598   0.014   7.813
 8794SOL    HW228280   0.646  14.757   7.856
 8795SOL     OW28281   1.697   0.247   7.086
 8795SOL    HW128282   1.761   0.263   7.017
 8795SOL    HW228283   1.612   0.254   7.042
 8796SOL     OW28284  12.157   7.948  11.397
 8796SOL    HW128285  12.214   7.886  11.441
 8796SOL    HW228286  12.134   7.906  11.314
 8797SOL     OW28287  12.071  11.692   4.426
 8797SOL    HW128288  12.135  11.693   4.354
 8797SOL    HW228289  12.118  11.654   4.500
 8798SOL     OW28290   3.190   4.048   7.613
 8798SOL    HW128291   3.155   3.997   7.540
 8798SOL    HW228292   3.141   4.130   7.612
 8799SOL     OW28293   1.438   5.804   7.214
 8799SOL    HW128294   1.384   5.744   7.162
 8799SOL    HW228295   1.391   5.888   7.209
 8800SOL     OW28296  10.627   3.185   5.971
 8800SOL    HW128297  10.586   3.218   5.890
 8800SOL    HW228298  10.554   3.172   6.031
 8801SOL     OW28299  13.592  10.089   7.957
 8801SOL    HW128300  13.567  10.026   8.025
 8801SOL    HW228301  13.674  10.127   7.989
 8802SOL     OW28302   2.669   7.544   3.948
 8802SOL    HW128303   2.642   7.572   3.860
 8802SOL    HW228304   2.746   7.489   3.933
 8803SOL     OW28305   1.071   5.497  10.675
 8803SOL    HW128306   1.093   5.432  10.742
 8803SOL    HW228307   1.139   5.565  10.684
 8804SOL     OW28308   7.357   8.286   1.762
 8804SOL    HW128309   7.412   8.212   1.736
 8804SOL    HW228310   7.271   8.248   1.777
 8805SOL     OW28311   3.527  12.907   4.990
 8805SOL    HW128312   3.491  12.939   4.907
 8805SOL    HW228313   3.529  12.984   5.047
 8806SOL     OW28314   3.817   4.610   9.508
 8806SOL    HW128315   3.913   4.613   9.505
 8806SOL    HW228316   3.797   4.574   9.595
 8807SOL     OW28317   8.697   6.965  13.248
 8807SOL    HW128318   8.746   6.886  13.271
 8807SOL    HW228319   8.626   6.934  13.192
 8808SOL     OW28320  12.628  11.083   3.158
 8808SOL    HW128321  12.541  11.047   3.146
 8808SOL    HW228322  12.686  11.022   3.112
 8809SOL     OW28323   5.849   0.383  10.628
 8809SOL    HW128324   5.941   0.374  10.604
 8809SOL    HW228325   5.810   0.433  10.556
 8810SOL     OW28326   4.855   3.109   2.521
 8810SOL    HW128327   4.861   3.028   2.470
 8810SOL    HW228328   4.799   3.167   2.469
 8811SOL     OW28329   6.288   0.725   1.860
 8811SOL    HW128330   6.313   0.633   1.850
 8811SOL    HW228331   6.369   0.774   1.847
 8812SOL     OW28332   9.337  11.142   1.555
 8812SOL    HW128333   9.408  11.104   1.606
 8812SOL    HW228334   9.267  11.076   1.556
 8813SOL     OW28335  11.593  11.078  14.487
 8813SOL    HW128336  11.608  11.120  14.402
 8813SOL    HW228337  11.584  11.151  14.548
 8814SOL     OW28338   8.373  12.715   1.689
 8814SOL    HW128339   8.466  12.693   1.679
 8814SOL    HW228340   8.354  12.773   1.616
 8815SOL     OW28341   1.340   8.431   3.458
 8815SOL    HW128342   1.262   8.485   3.452
 8815SOL    HW228343   1.393   8.456   3.383
 8816SOL     OW28344  13.250   7.178   4.243
 8816SOL    HW128345  13.167   7.159   4.200
 8816SOL    HW228346  13.225   7.199   4.334
 8817SOL     OW28347  10.838   6.595   4.406
 8817SOL    HW128348  10.760   6.580   4.353
 8817SOL    HW228349  10.805   6.635   4.487
 8818SOL     OW28350  14.661   8.409   6.119
 8818SOL    HW128351  14.583   8.430   6.172
 8818SOL    HW228352  14.727   8.473   6.148
 8819SOL     OW28353  14.442   2.665   7.681
 8819SOL    HW128354  14.501   2.664   7.756
 8819SOL    HW228355  14.356   2.685   7.718
 8820SOL     OW28356  11.872   0.101   3.259
 8820SOL    HW128357  11.881   0.010   3.285
 8820SOL    HW228358  11.795   0.103   3.202
 8821SOL     OW28359   4.560  11.851   7.718
 8821SOL    HW128360   4.625  11.803   7.770
 8821SOL    HW228361   4.518  11.783   7.664
 8822SOL     OW28362  13.548   7.612   4.103
 8822SOL    HW128363  13.466   7.568   4.084
 8822SOL    HW228364  13.547   7.690   4.047
 8823SOL     OW28365  11.110   3.330  12.700
 8823SOL    HW128366  11.190   3.300  12.657
 8823SOL    HW228367  11.070   3.390  12.637
 8824SOL     OW28368   4.732   2.156  11.244
 8824SOL    HW128369   4.699   2.075  11.205
 8824SOL    HW228370   4.683   2.225  11.201
 8825SOL     OW28371   1.614   5.998   6.905
 8825SOL    HW128372   1.633   6.030   6.817
 8825SOL    HW228373   1.676   5.926   6.918
 8826SOL     OW28374   6.652  10.795   9.636
 8826SOL    HW128375   6.626  10.706   9.614
 8826SOL    HW228376   6.669  10.836   9.551
 8827SOL     OW28377  14.771   0.377   4.225
 8827SOL    HW128378  14.823   0.452   4.257
 8827SOL    HW228379  14.694   0.376   4.282
 8828SOL     OW28380   2.902   0.406   5.427
 8828SOL    HW128381   2.956   0.450   5.362
 8828SOL    HW228382   2.897   0.316   5.398
 8829SOL     OW28383   6.900   6.612   2.816
 8829SOL    HW128384   6.954   6.625   2.738
 8829SOL    HW228385   6.927   6.527   2.850
 8830SOL     OW28386   5.875   3.031   9.021
 8830SOL    HW128387   5.889   3.064   9.110
 8830SOL    HW228388   5.917   2.945   9.020
 8831SOL     OW28389  10.035   8.726   1.869
 8831SOL    HW128390   9.960   8.782   1.888
 8831SOL    HW228391  10.096   8.782   1.823
 8832SOL     OW28392  14.555   7.906  14.337
 8832SOL    HW128393  14.610   7.841  14.293
 8832SOL    HW228394  14.584   7.904  14.428
 8833SOL     OW28395   8.608   8.361   7.309
 8833SOL    HW128396   8.615   8.452   7.278
 8833SOL    HW228397   8.536   8.363   7.372
 8834SOL     OW28398   5.743   5.497   2.391
 8834SOL    HW128399   5.784   5.440   2.325
 8834SOL    HW228400   5.649   5.483   2.380
 8835SOL     OW28401   8.664   0.048  12.309
 8835SOL    HW128402   8.665   0.039  12.404
 8835SOL    HW228403   8.574   0.029  12.284
 8836SOL     OW28404   7.715   9.587   8.392
 8836SOL    HW128405   7.621   9.603   8.398
 8836SOL    HW228406   7.724   9.528   8.317
 8837SOL     OW28407   9.044  14.797   8.341
 8837SOL    HW128408   8.981  14.843   8.397
 8837SOL    HW228409   9.005  14.798   8.254
 8838SOL     OW28410   2.263  10.977   4.911
 8838SOL    HW128411   2.296  11.065   4.926
 8838SOL    HW228412   2.329  10.935   4.856
 8839SOL     OW28413   0.412   9.780   6.062
 8839SOL    HW128414   0.380   9.821   6.142
 8839SOL    HW228415   0.338   9.731   6.028
 8840SOL     OW28416   9.801   2.799   9.458
 8840SOL    HW128417   9.828   2.891   9.454
 8840SOL    HW228418   9.752   2.792   9.540
 8841SOL     OW28419   7.578   6.232   1.746
 8841SOL    HW128420   7.528   6.213   1.666
 8841SOL    HW228421   7.524   6.298   1.791
 8842SOL     OW28422  13.275   9.234  13.340
 8842SOL    HW128423  13.197   9.180  13.358
 8842SOL    HW228424  13.243   9.303  13.282
 8843SOL     OW28425   6.813   5.156   0.717
 8843SOL    HW128426   6.809   5.061   0.726
 8843SOL    HW228427   6.895   5.173   0.672
 8844SOL     OW28428  12.255   0.968  11.931
 8844SOL    HW128429  12.229   0.901  11.994
 8844SOL    HW228430  12.299   1.034  11.984
 8845SOL     OW28431  13.217   9.053   1.445
 8845SOL    HW128432  13.151   8.984   1.439
 8845SOL    HW228433  13.295   9.016   1.403
 8846SOL     OW28434   8.717   9.929   2.428
 8846SOL    HW128435   8.723   9.954   2.521
 8846SOL    HW228436   8.638   9.874   2.423
 8847SOL     OW28437  14.102   9.364  12.240
 8847SOL    HW128438  14.076   9.372  12.332
 8847SOL    HW228439  14.197   9.352  12.242
 8848SOL     OW28440   8.322   5.441  14.546
 8848SOL    HW128441   8.363   5.525  14.565
 8848SOL    HW228442   8.286   5.412  14.630
 8849SOL     OW28443   8.052   8.355   4.456
 8849SOL    HW128444   7.978   8.310   4.416
 8849SOL    HW228445   8.127   8.333   4.401
 8850SOL     OW28446   1.799  12.174   2.937
 8850SOL    HW128447   1.711  12.187   2.972
 8850SOL    HW228448   1.794  12.204   2.847
 8851SOL     OW28449  13.186   4.850   4.365
 8851SOL    HW128450  13.208   4.937   4.330
 8851SOL    HW228451  13.215   4.789   4.298
 8852SOL     OW28452   8.397   1.654   6.666
 8852SOL    HW128453   8.458   1.727   6.674
 8852SOL    HW228454   8.431   1.601   6.594
 8853SOL     OW28455   5.229  13.189  14.851
 8853SOL    HW128456   5.171  13.143  14.791
 8853SOL    HW228457   5.279  13.249  14.796
 8854SOL     OW28458   4.994   3.177   7.574
 8854SOL    HW128459   5.061   3.207   7.636
 8854SOL    HW228460   5.017   3.221   7.492
 8855SOL     OW28461   6.984  11.969  11.493
 8855SOL    HW128462   6.987  11.930  11.581
 8855SOL    HW228463   6.984  12.063  11.509
 8856SOL     OW28464  11.802  12.727   7.093
 8856SOL    HW128465  11.775  12.818   7.098
 8856SOL    HW228466  11.898  12.730   7.094
 8857SOL     OW28467   5.613   7.765   2.627
 8857SOL    HW128468   5.557   7.810   2.690
 8857SOL    HW228469   5.687   7.734   2.679
 8858SOL     OW28470   9.712  10.370   0.623
 8858SOL    HW128471   9.693  10.463   0.606
 8858SOL    HW228472   9.727  10.332   0.537
 8859SOL     OW28473   7.581   2.690   9.269
 8859SOL    HW128474   7.556   2.693   9.361
 8859SOL    HW228475   7.498   2.700   9.222
 8860SOL     OW28476  13.080   6.333  11.173
 8860SOL    HW128477  13.038   6.417  11.151
 8860SOL    HW228478  13.022   6.267  11.135
 8861SOL     OW28479   8.383   8.500   9.822
 8861SOL    HW128480   8.463   8.448   9.832
 8861SOL    HW228481   8.344   8.502   9.910
 8862SOL     OW28482  10.188   4.706   6.531
 8862SOL    HW128483  10.264   4.731   6.479
 8862SOL    HW228484  10.124   4.675   6.467
 8863SOL     OW28485   8.528   6.206   2.787
 8863SOL    HW128486   8.546   6.112   2.780
 8863SOL    HW228487   8.566   6.232   2.871
 8864SOL     OW28488   2.718   1.160   7.754
 8864SOL    HW128489   2.691   1.099   7.684
 8864SOL    HW228490   2.813   1.166   7.745
 8865SOL     OW28491   1.704   5.189  10.381
 8865SOL    HW128492   1.661   5.115  10.337
 8865SOL    HW228493   1.796   5.163  10.387
 8866SOL     OW28494   4.075   4.706   1.376
 8866SOL    HW128495   4.152   4.762   1.379
 8866SOL    HW228496   4.002   4.764   1.397
 8867SOL     OW28497  12.629   5.935  14.087
 8867SOL    HW128498  12.694   5.985  14.039
 8867SOL    HW228499  12.679   5.868  14.134
 8868SOL     OW28500  11.112   1.693  11.810
 8868SOL    HW128501  11.019   1.698  11.790
 8868SOL    HW228502  11.154   1.752  11.748
 8869SOL     OW28503   7.915   2.245   1.727
 8869SOL    HW128504   7.942   2.154   1.740
 8869SOL    HW228505   7.935   2.263   1.635
 8870SOL     OW28506  13.628   4.977  14.049
 8870SOL    HW128507  13.654   5.054  14.100
 8870SOL    HW228508  13.709   4.928  14.037
 8871SOL     OW28509  10.609  12.112   1.542
 8871SOL    HW128510  10.602  12.056   1.465
 8871SOL    HW228511  10.570  12.060   1.612
 8872SOL     OW28512  11.490   0.406   9.998
 8872SOL    HW128513  11.491   0.311  10.005
 8872SOL    HW228514  11.532   0.424   9.914
 8873SOL     OW28515   6.426  12.316  10.667
 8873SOL    HW128516   6.345  12.270  10.687
 8873SOL    HW228517   6.450  12.359  10.749
 8874SOL     OW28518  10.635   9.715   2.680
 8874SOL    HW128519  10.660   9.799   2.641
 8874SOL    HW228520  10.712   9.660   2.668
 8875SOL     OW28521   9.477  11.486   8.289
 8875SOL    HW128522   9.410  11.547   8.321
 8875SOL    HW228523   9.555  11.508   8.339
 8876SOL     OW28524  12.947   4.812   0.050
 8876SOL    HW128525  12.988   4.825   0.136
 8876SOL    HW228526  12.913   4.723   0.053
 8877SOL     OW28527  12.200  11.600  11.061
 8877SOL    HW128528  12.275  11.601  11.120
 8877SOL    HW228529  12.205  11.516  11.016
 8878SOL     OW28530   6.252   9.233   5.076
 8878SOL    HW128531   6.160   9.259   5.078
 8878SOL    HW228532   6.292   9.280   5.150
 8879SOL     OW28533   1.176   3.761  12.766
 8879SOL    HW128534   1.153   3.854  12.768
 8879SOL    HW228535   1.188   3.742  12.673
 8880SOL     OW28536   5.351  11.805   5.880
 8880SOL    HW128537   5.439  11.802   5.842
 8880SOL    HW228538   5.346  11.892   5.921
 8881SOL     OW28539   9.657  12.996   6.984
 8881SOL    HW128540   9.596  13.022   6.914
 8881SOL    HW228541   9.626  12.910   7.012
 8882SOL     OW28542   5.935  11.708   2.256
 8882SOL    HW128543   6.011  11.655   2.278
 8882SOL    HW228544   5.958  11.750   2.173
 8883SOL     OW28545  11.024  12.225   6.334
 8883SOL    HW128546  10.941  12.192   6.369
 8883SOL    HW228547  11.075  12.146   6.314
 8884SOL     OW28548  11.716   1.181  10.472
 8884SOL    HW128549  11.747   1.200  10.561
 8884SOL    HW228550  11.628   1.145  10.484
 8885SOL     OW28551   6.979   2.649   0.802
 8885SOL    HW128552   6.903   2.681   0.852
 8885SOL    HW228553   7.051   2.649   0.866
 8886SOL     OW28554   3.973  13.454  14.722
 8886SOL    HW128555   4.039  13.417  14.664
 8886SOL    HW228556   3.940  13.379  14.771
 8887SOL     OW28557   3.401   0.754   8.571
 8887SOL    HW128558   3.466   0.724   8.508
 8887SOL    HW228559   3.426   0.714   8.654
 8888SOL     OW28560   8.894   0.506  12.238
 8888SOL    HW128561   8.884   0.451  12.160
 8888SOL    HW228562   8.881   0.445  12.311
 8889SOL     OW28563   4.863   1.397   4.008
 8889SOL    HW128564   4.872   1.467   4.072
 8889SOL    HW228565   4.949   1.356   4.005
 8890SOL     OW28566  10.214   7.634   4.012
 8890SOL    HW128567  10.233   7.558   4.066
 8890SOL    HW228568  10.119   7.645   4.018
 8891SOL     OW28569   9.077   9.523  10.703
 8891SOL    HW128570   8.983   9.527  10.720
 8891SOL    HW228571   9.113   9.600  10.748
 8892SOL     OW28572  12.383  14.163   9.558
 8892SOL    HW128573  12.376  14.233   9.623
 8892SOL    HW228574  12.477  14.144   9.554
 8893SOL     OW28575  11.288   6.727   9.370
 8893SOL    HW128576  11.293   6.637   9.400
 8893SOL    HW228577  11.196   6.739   9.347
 8894SOL     OW28578   5.174   2.594   1.843
 8894SOL    HW128579   5.159   2.535   1.917
 8894SOL    HW228580   5.243   2.552   1.792
 8895SOL     OW28581   8.425   8.740   0.070
 8895SOL    HW128582   8.517   8.764   0.054
 8895SOL    HW228583   8.410   8.664   0.014
 8896SOL     OW28584   8.039  12.471   1.570
 8896SOL    HW128585   8.007  12.561   1.558
 8896SOL    HW228586   8.034  12.457   1.664
 8897SOL     OW28587   5.613   7.450   2.599
 8897SOL    HW128588   5.682   7.392   2.567
 8897SOL    HW228589   5.635   7.535   2.563
 8898SOL     OW28590   2.932  13.778   8.584
 8898SOL    HW128591   2.985  13.818   8.654
 8898SOL    HW228592   2.944  13.836   8.509
 8899SOL     OW28593  14.304   5.020   2.954
 8899SOL    HW128594  14.354   5.059   3.027
 8899SOL    HW228595  14.339   4.931   2.947
 8900SOL     OW28596   1.358   1.187  14.756
 8900SOL    HW128597   1.294   1.159  14.691
 8900SOL    HW228598   1.409   1.255  14.711
 8901SOL     OW28599   8.816   2.145   5.417
 8901SOL    HW128600   8.768   2.202   5.476
 8901SOL    HW228601   8.749   2.090   5.376
 8902SOL     OW28602   0.011   7.170  10.199
 8902SOL    HW128603  14.839   7.111  10.255
 8902SOL    HW228604   0.087   7.118  10.174
 8903SOL     OW28605  10.989   3.291   1.147
 8903SOL    HW128606  10.989   3.359   1.079
 8903SOL    HW228607  11.015   3.211   1.101
 8904SOL     OW28608   1.564   5.315   8.690
 8904SOL    HW128609   1.658   5.300   8.695
 8904SOL    HW228610   1.553   5.406   8.720
 8905SOL     OW28611   7.003   4.361   0.279
 8905SOL    HW128612   7.042   4.443   0.310
 8905SOL    HW228613   7.071   4.321   0.225
 8906SOL     OW28614   9.441  11.221  11.769
 8906SOL    HW128615   9.369  11.174  11.812
 8906SOL    HW228616   9.442  11.186  11.680
 8907SOL     OW28617  10.206  13.952  12.467
 8907SOL    HW128618  10.180  13.923  12.554
 8907SOL    HW228619  10.204  13.873  12.413
 8908SOL     OW28620   6.677   5.803  14.313
 8908SOL    HW128621   6.638   5.845  14.237
 8908SOL    HW228622   6.628   5.836  14.388
 8909SOL     OW28623  10.489  10.493  13.145
 8909SOL    HW128624  10.404  10.509  13.106
 8909SOL    HW228625  10.470  10.444  13.225
 8910SOL     OW28626  13.157   7.002   0.938
 8910SOL    HW128627  13.079   6.987   0.992
 8910SOL    HW228628  13.173   7.096   0.946
 8911SOL     OW28629   6.175  12.211  10.681
 8911SOL    HW128630   6.095  12.253  10.651
 8911SOL    HW228631   6.197  12.148  10.612
 8912SOL     OW28632  11.676   5.851   3.304
 8912SOL    HW128633  11.771   5.844   3.311
 8912SOL    HW228634  11.659   5.945   3.306
 8913SOL     OW28635   0.524  10.618   9.464
 8913SOL    HW128636   0.472  10.667   9.528
 8913SOL    HW228637   0.614  10.641   9.484
 8914SOL     OW28638  14.391  10.344  13.613
 8914SOL    HW128639  14.412  10.260  13.572
 8914SOL    HW228640  14.471  10.396  13.604
 8915SOL     OW28641  10.086  12.865   9.435
 8915SOL    HW128642  10.018  12.847   9.371
 8915SOL    HW228643  10.158  12.806   9.411
 8916SOL     OW28644   6.322   7.416  12.636
 8916SOL    HW128645   6.380   7.481  12.596
 8916SOL    HW228646   6.274   7.464  12.704
 8917SOL     OW28647   8.488  10.743   8.671
 8917SOL    HW128648   8.559  10.706   8.724
 8917SOL    HW228649   8.519  10.733   8.580
 8918SOL     OW28650   6.341   4.945   6.566
 8918SOL    HW128651   6.256   4.973   6.532
 8918SOL    HW228652   6.382   5.025   6.598
 8919SOL     OW28653   8.099  10.604  12.295
 8919SOL    HW128654   8.009  10.575  12.313
 8919SOL    HW228655   8.104  10.606  12.199
 8920SOL     OW28656   4.429   3.302   7.180
 8920SOL    HW128657   4.513   3.296   7.135
 8920SOL    HW228658   4.421   3.395   7.204
 8921SOL     OW28659   6.443   7.420  12.302
 8921SOL    HW128660   6.466   7.513  12.312
 8921SOL    HW228661   6.501   7.389  12.232
 8922SOL     OW28662   8.630  12.523  11.457
 8922SOL    HW128663   8.598  12.597  11.406
 8922SOL    HW228664   8.633  12.451  11.394
 8923SOL     OW28665   9.805   4.754  12.627
 8923SOL    HW128666   9.833   4.746  12.718
 8923SOL    HW228667   9.821   4.846  12.605
 8924SOL     OW28668   5.459  10.717  14.758
 8924SOL    HW128669   5.421  10.675  14.680
 8924SOL    HW228670   5.407  10.683  14.831
 8925SOL     OW28671   8.288   9.413   2.060
 8925SOL    HW128672   8.261   9.498   2.024
 8925SOL    HW228673   8.236   9.403   2.139
 8926SOL     OW28674   5.688  14.760  13.595
 8926SOL    HW128675   5.750  14.832  13.587
 8926SOL    HW228676   5.609  14.792  13.552
 8927SOL     OW28677   8.649  13.420  13.384
 8927SOL    HW128678   8.617  13.394  13.297
 8927SOL    HW228679   8.643  13.340  13.437
 8928SOL     OW28680   0.580  11.381   3.375
 8928SOL    HW128681   0.611  11.322   3.444
 8928SOL    HW228682   0.658  11.431   3.350
 8929SOL     OW28683   3.421  12.940  13.682
 8929SOL    HW128684   3.475  12.919  13.758
 8929SOL    HW228685   3.482  12.946  13.609
 8930SOL     OW28686   9.198  10.120   5.093
 8930SOL    HW128687   9.258  10.107   5.019
 8930SOL    HW228688   9.231  10.198   5.136
 8931SOL     OW28689   9.646  13.154  14.185
 8931SOL    HW128690   9.597  13.073  14.197
 8931SOL    HW228691   9.633  13.203  14.266
 8932SOL     OW28692   1.438   7.507   6.472
 8932SOL    HW128693   1.369   7.464   6.421
 8932SOL    HW228694   1.427   7.600   6.452
 8933SOL     OW28695   8.353   6.669   0.323
 8933SOL    HW128696   8.407   6.596   0.293
 8933SOL    HW228697   8.369   6.674   0.417
 8934SOL     OW28698   5.330  12.361   1.435
 8934SOL    HW128699   5.353  12.451   1.413
 8934SOL    HW228700   5.243  12.348   1.399
 8935SOL     OW28701  10.499  12.495   9.030
 8935SOL    HW128702  10.460  12.473   8.945
 8935SOL    HW228703  10.577  12.439   9.036
 8936SOL     OW28704   1.634  13.682  10.757
 8936SOL    HW128705   1.597  13.610  10.706
 8936SOL    HW228706   1.658  13.641  10.841
 8937SOL     OW28707  10.838   1.112   9.652
 8937SOL    HW128708  10.854   1.135   9.561
 8937SOL    HW228709  10.925   1.098   9.689
 8938SOL     OW28710   3.044   8.151  12.058
 8938SOL    HW128711   3.054   8.114  11.971
 8938SOL    HW228712   2.962   8.200  12.054
 8939SOL     OW28713   4.371   2.609   1.765
 8939SOL    HW128714   4.294   2.596   1.710
 8939SOL    HW228715   4.371   2.703   1.784
 8940SOL     OW28716   9.666  14.779   1.809
 8940SOL    HW128717   9.707  14.788   1.724
 8940SOL    HW228718   9.691  14.692   1.839
 8941SOL     OW28719  12.214  11.787   2.990
 8941SOL    HW128720  12.253  11.700   2.997
 8941SOL    HW228721  12.120  11.769   2.977
 8942SOL     OW28722  13.852   4.207  12.113
 8942SOL    HW128723  13.817   4.179  12.197
 8942SOL    HW228724  13.945   4.224  12.130
 8943SOL     OW28725   1.490   4.857   4.299
 8943SOL    HW128726   1.563   4.798   4.283
 8943SOL    HW228727   1.482   4.861   4.394
 8944SOL     OW28728  12.022   6.981   4.043
 8944SOL    HW128729  12.103   6.931   4.043
 8944SOL    HW228730  11.974   6.949   4.119
 8945SOL     OW28731   3.989   6.490   8.683
 8945SOL    HW128732   4.034   6.517   8.603
 8945SOL    HW228733   3.936   6.566   8.707
 8946SOL     OW28734   3.189   3.465   7.784
 8946SOL    HW128735   3.195   3.533   7.717
 8946SOL    HW228736   3.248   3.494   7.853
 8947SOL     OW28737   6.628  11.341   8.356
 8947SOL    HW128738   6.566  11.402   8.395
 8947SOL    HW228739   6.714  11.373   8.384
 8948SOL     OW28740   6.212   3.676   9.169
 8948SOL    HW128741   6.255   3.752   9.130
 8948SOL    HW228742   6.275   3.605   9.160
 8949SOL     OW28743   5.575   7.977  14.703
 8949SOL    HW128744   5.500   7.951  14.649
 8949SOL    HW228745   5.592   7.900  14.758
 8950SOL     OW28746   1.026  11.181  10.165
 8950SOL    HW128747   1.035  11.276  10.160
 8950SOL    HW228748   0.985  11.166  10.250
 8951SOL     OW28749   1.322  14.772   9.236
 8951SOL    HW128750   1.368  14.776   9.320
 8951SOL    HW228751   1.391  14.765   9.171
 8952SOL     OW28752  10.237   8.518   2.441
 8952SOL    HW128753  10.249   8.495   2.348
 8952SOL    HW228754  10.325   8.514   2.478
 8953SOL     OW28755  14.121   5.474   2.463
 8953SOL    HW128756  14.102   5.383   2.486
 8953SOL    HW228757  14.215   5.483   2.478
 8954SOL     OW28758   4.936   8.427   4.566
 8954SOL    HW128759   5.000   8.358   4.585
 8954SOL    HW228760   4.913   8.462   4.652
 8955SOL     OW28761   9.737  10.043  13.769
 8955SOL    HW128762   9.730  10.119  13.826
 8955SOL    HW228763   9.745   9.969  13.829
 8956SOL     OW28764   6.239   5.878   4.393
 8956SOL    HW128765   6.239   5.971   4.368
 8956SOL    HW228766   6.317   5.868   4.447
 8957SOL     OW28767   7.960  13.711  13.766
 8957SOL    HW128768   7.908  13.791  13.764
 8957SOL    HW228769   7.900  13.642  13.739
 8958SOL     OW28770  12.065   8.225   2.598
 8958SOL    HW128771  12.113   8.301   2.565
 8958SOL    HW228772  12.014   8.259   2.672
 8959SOL     OW28773  12.910   1.416   7.641
 8959SOL    HW128774  12.928   1.504   7.608
 8959SOL    HW228775  12.815   1.414   7.654
 8960SOL     OW28776   3.903   8.878   5.514
 8960SOL    HW128777   3.886   8.784   5.517
 8960SOL    HW228778   3.908   8.899   5.421
 8961SOL     OW28779  12.509   1.111   0.855
 8961SOL    HW128780  12.439   1.058   0.818
 8961SOL    HW228781  12.503   1.195   0.809
 8962SOL     OW28782   5.822   4.196   2.508
 8962SOL    HW128783   5.752   4.230   2.564
 8962SOL    HW228784   5.796   4.220   2.419
 8963SOL     OW28785   0.025  10.243   8.470
 8963SOL    HW128786   0.033  10.168   8.530
 8963SOL    HW228787  14.840  10.300   8.510
 8964SOL     OW28788   0.286   9.388  12.681
 8964SOL    HW128789   0.334   9.323  12.630
 8964SOL    HW228790   0.327   9.472  12.659
 8965SOL     OW28791   0.236   4.665  12.139
 8965SOL    HW128792   0.219   4.607  12.064
 8965SOL    HW228793   0.323   4.702  12.121
 8966SOL     OW28794   9.028  11.946  14.727
 8966SOL    HW128795   8.937  11.976  14.727
 8966SOL    HW228796   9.024  11.858  14.766
 8967SOL     OW28797  12.898   0.612   4.100
 8967SOL    HW128798  12.815   0.652   4.126
 8967SOL    HW228799  12.965   0.661   4.147
 8968SOL     OW28800   1.380  12.911  13.500
 8968SOL    HW128801   1.390  12.894  13.407
 8968SOL    HW228802   1.461  12.955  13.525
 8969SOL     OW28803   9.004   7.183   3.391
 8969SOL    HW128804   8.937   7.226   3.445
 8969SOL    HW228805   8.966   7.097   3.371
 8970SOL     OW28806   7.236   6.355  12.734
 8970SOL    HW128807   7.196   6.327  12.651
 8970SOL    HW228808   7.191   6.437  12.756
 8971SOL     OW28809  12.868  11.866   4.328
 8971SOL    HW128810  12.820  11.820   4.396
 8971SOL    HW228811  12.877  11.956   4.361
 8972SOL     OW28812   1.507   4.524   4.427
 8972SOL    HW128813   1.530   4.588   4.494
 8972SOL    HW228814   1.577   4.532   4.362
 8973SOL     OW28815   9.768   9.839   5.230
 8973SOL    HW128816   9.756   9.745   5.246
 8973SOL    HW228817   9.719   9.856   5.150
 8974SOL     OW28818   1.087   0.690   3.228
 8974SOL    HW128819   1.042   0.716   3.147
 8974SOL    HW228820   1.104   0.596   3.216
 8975SOL     OW28821   6.449   2.909   0.143
 8975SOL    HW128822   6.542   2.888   0.131
 8975SOL    HW228823   6.448   2.974   0.213
 8976SOL     OW28824  11.461  13.895   8.637
 8976SOL    HW128825  11.508  13.974   8.612
 8976SOL    HW228826  11.371  13.924   8.652
 8977SOL     OW28827   7.508   8.846   7.979
 8977SOL    HW128828   7.593   8.853   7.935
 8977SOL    HW228829   7.506   8.757   8.012
 8978SOL     OW28830   9.991  14.608   9.913
 8978SOL    HW128831  10.079  14.644   9.903
 8978SOL    HW228832   9.961  14.643   9.997
 8979SOL     OW28833   0.373   9.418   1.918
 8979SOL    HW128834   0.365   9.401   1.824
 8979SOL    HW228835   0.315   9.491   1.935
 8980SOL     OW28836   7.568  12.198   5.727
 8980SOL    HW128837   7.485  12.188   5.772
 8980SOL    HW228838   7.626  12.133   5.767
 8981SOL     OW28839  14.626   2.270  12.478
 8981SOL    HW128840  14.584   2.189  12.509
 8981SOL    HW228841  14.623   2.329  12.553
 8982SOL     OW28842  10.233   5.924   9.768
 8982SOL    HW128843  10.222   5.830   9.782
 8982SOL    HW228844  10.144   5.959   9.775
 8983SOL     OW28845   0.637  13.713   2.265
 8983SOL    HW128846   0.594  13.694   2.349
 8983SOL    HW228847   0.565  13.729   2.204
 8984SOL     OW28848   7.596  14.284   8.098
 8984SOL    HW128849   7.610  14.366   8.049
 8984SOL    HW228850   7.674  14.232   8.080
 8985SOL     OW28851   6.683  13.539   6.273
 8985SOL    HW128852   6.757  13.498   6.317
 8985SOL    HW228853   6.699  13.633   6.279
 8986SOL     OW28854  11.688  10.345   1.117
 8986SOL    HW128855  11.600  10.375   1.093
 8986SOL    HW228856  11.729  10.323   1.034
 8987SOL     OW28857   6.726  10.904   9.381
 8987SOL    HW128858   6.760  10.987   9.348
 8987SOL    HW228859   6.804  10.852   9.401
 8988SOL     OW28860   5.754   4.606   2.216
 8988SOL    HW128861   5.791   4.621   2.303
 8988SOL    HW228862   5.684   4.542   2.231
 8989SOL     OW28863  13.763   9.407   2.649
 8989SOL    HW128864  13.825   9.471   2.680
 8989SOL    HW228865  13.805   9.368   2.572
 8990SOL     OW28866   1.663   1.146   4.919
 8990SOL    HW128867   1.634   1.067   4.875
 8990SOL    HW228868   1.738   1.176   4.868
 8991SOL     OW28869  14.538  14.214  10.555
 8991SOL    HW128870  14.557  14.222  10.461
 8991SOL    HW228871  14.610  14.259  10.598
 8992SOL     OW28872  11.613   1.065  13.934
 8992SOL    HW128873  11.698   1.105  13.917
 8992SOL    HW228874  11.563   1.133  13.981
 8993SOL     OW28875   0.169  13.604  10.154
 8993SOL    HW128876   0.147  13.697  10.153
 8993SOL    HW228877   0.245  13.597  10.212
 8994SOL     OW28878   1.947  10.146   4.500
 8994SOL    HW128879   1.941  10.241   4.492
 8994SOL    HW228880   1.881  10.123   4.566
 8995SOL     OW28881  12.587  13.125  12.013
 8995SOL    HW128882  12.539  13.057  11.966
 8995SOL    HW228883  12.623  13.080  12.090
 8996SOL     OW28884   5.680  14.272   4.814
 8996SOL    HW128885   5.665  14.178   4.821
 8996SOL    HW228886   5.718  14.296   4.899
 8997SOL     OW28887   4.550  10.781  14.752
 8997SOL    HW128888   4.495  10.857  14.772
 8997SOL    HW228889   4.490  10.707  14.755
 8998SOL     OW28890   2.960   6.580   3.743
 8998SOL    HW128891   2.865   6.594   3.744
 8998SOL    HW228892   2.994   6.652   3.690
 8999SOL     OW28893   0.381   6.066   3.509
 8999SOL    HW128894   0.421   6.090   3.593
 8999SOL    HW228895   0.455   6.044   3.453
 9000SOL     OW28896   5.526  10.490   9.552
 9000SOL    HW128897   5.556  10.492   9.461
 9000SOL    HW228898   5.598  10.450   9.600
 9001SOL     OW28899   1.084   3.755  11.430
 9001SOL    HW128900   1.079   3.666  11.467
 9001SOL    HW228901   1.165   3.791  11.465
 9002SOL     OW28902  10.574   2.648   9.779
 9002SOL    HW128903  10.600   2.738   9.757
 9002SOL    HW228904  10.504   2.628   9.716
 9003SOL     OW28905  13.382   2.737  11.007
 9003SOL    HW128906  13.392   2.811  11.067
 9003SOL    HW228907  13.404   2.773  10.921
 9004SOL     OW28908   2.551  13.003   4.673
 9004SOL    HW128909   2.563  12.962   4.758
 9004SOL    HW228910   2.548  13.097   4.692
 9005SOL     OW28911   6.365   9.086  10.320
 9005SOL    HW128912   6.394   9.173  10.291
 9005SOL    HW228913   6.293   9.064  10.261
 9006SOL     OW28914   2.688  13.705  10.965
 9006SOL    HW128915   2.731  13.748  10.891
 9006SOL    HW228916   2.690  13.770  11.035
 9007SOL     OW28917   9.771  14.659  12.993
 9007SOL    HW128918   9.801  14.673  13.083
 9007SOL    HW228919   9.681  14.692  12.992
 9008SOL     OW28920   2.348   1.347   6.852
 9008SOL    HW128921   2.358   1.257   6.885
 9008SOL    HW228922   2.259   1.372   6.878
 9009SOL     OW28923   8.793   1.341   8.145
 9009SOL    HW128924   8.805   1.422   8.194
 9009SOL    HW228925   8.781   1.274   8.212
 9010SOL     OW28926  12.720  14.879   2.448
 9010SOL    HW128927  12.671   0.053   2.510
 9010SOL    HW228928  12.811   0.007   2.477
 9011SOL     OW28929   1.495   2.126  14.455
 9011SOL    HW128930   1.494   2.221  14.447
 9011SOL    HW228931   1.505   2.110  14.549
 9012SOL     OW28932  11.466  10.643   6.501
 9012SOL    HW128933  11.426  10.611   6.420
 9012SOL    HW228934  11.560  10.644   6.483
 9013SOL     OW28935  13.270   3.767   9.036
 9013SOL    HW128936  13.334   3.818   9.084
 9013SOL    HW228937  13.320   3.721   8.969
 9014SOL     OW28938   2.123  12.290   1.941
 9014SOL    HW128939   2.044  12.326   1.980
 9014SOL    HW228940   2.128  12.200   1.975
 9015SOL     OW28941   5.169   7.577   5.801
 9015SOL    HW128942   5.143   7.505   5.858
 9015SOL    HW228943   5.263   7.564   5.787
 9016SOL     OW28944   3.750   5.444  12.784
 9016SOL    HW128945   3.845   5.430  12.787
 9016SOL    HW228946   3.733   5.506  12.855
 9017SOL     OW28947   2.743   0.539   3.486
 9017SOL    HW128948   2.779   0.622   3.453
 9017SOL    HW228949   2.752   0.546   3.581
 9018SOL     OW28950  11.447   0.369   6.466
 9018SOL    HW128951  11.412   0.325   6.543
 9018SOL    HW228952  11.373   0.379   6.407
 9019SOL     OW28953  14.396   1.910   6.011
 9019SOL    HW128954  14.386   1.971   6.084
 9019SOL    HW228955  14.338   1.837   6.032
 9020SOL     OW28956   4.855   9.374   5.879
 9020SOL    HW128957   4.910   9.309   5.834
 9020SOL    HW228958   4.834   9.333   5.963
 9021SOL     OW28959   3.915  10.876   7.446
 9021SOL    HW128960   3.915  10.831   7.361
 9021SOL    HW228961   3.832  10.924   7.448
 9022SOL     OW28962   4.120   7.193   0.385
 9022SOL    HW128963   4.099   7.106   0.417
 9022SOL    HW228964   4.036   7.229   0.357
 9023SOL     OW28965   8.628   5.334   5.424
 9023SOL    HW128966   8.693   5.300   5.361
 9023SOL    HW228967   8.678   5.349   5.504
 9024SOL     OW28968   4.980   9.849   3.841
 9024SOL    HW128969   4.971   9.931   3.891
 9024SOL    HW228970   5.065   9.815   3.868
 9025SOL     OW28971   3.559  11.093   6.350
 9025SOL    HW128972   3.537  11.186   6.356
 9025SOL    HW228973   3.480  11.052   6.313
 9026SOL     OW28974   5.312  10.191   8.346
 9026SOL    HW128975   5.277  10.108   8.313
 9026SOL    HW228976   5.327  10.243   8.268
 9027SOL     OW28977   4.548   6.391  13.615
 9027SOL    HW128978   4.617   6.364  13.554
 9027SOL    HW228979   4.485   6.437  13.560
 9028SOL     OW28980   8.452   5.764   3.843
 9028SOL    HW128981   8.492   5.779   3.929
 9028SOL    HW228982   8.456   5.849   3.799
 9029SOL     OW28983   0.479   8.181   1.517
 9029SOL    HW128984   0.439   8.245   1.576
 9029SOL    HW228985   0.428   8.101   1.532
 9030SOL     OW28986   7.161   7.045   6.717
 9030SOL    HW128987   7.224   7.045   6.645
 9030SOL    HW228988   7.197   6.983   6.780
 9031SOL     OW28989   8.976   2.682  14.594
 9031SOL    HW128990   9.048   2.635  14.637
 9031SOL    HW228991   8.947   2.623  14.524
 9032SOL     OW28992  12.556   4.383  12.430
 9032SOL    HW128993  12.509   4.386  12.347
 9032SOL    HW228994  12.622   4.314  12.419
 9033SOL     OW28995  10.955  14.415   9.869
 9033SOL    HW128996  10.997  14.396   9.953
 9033SOL    HW228997  11.015  14.382   9.803
 9034SOL     OW28998   6.647   2.190  11.336
 9034SOL    HW128999   6.567   2.139  11.349
 9034SOL    HW229000   6.708   2.129  11.296
 9035SOL     OW29001   5.203   5.913  12.142
 9035SOL    HW129002   5.121   5.922  12.191
 9035SOL    HW229003   5.202   5.988  12.081
 9036SOL     OW29004  12.279   7.496   4.413
 9036SOL    HW129005  12.356   7.529   4.460
 9036SOL    HW229006  12.316   7.452   4.336
 9037SOL     OW29007   6.098  12.968  13.936
 9037SOL    HW129008   6.179  12.959  13.987
 9037SOL    HW229009   6.043  13.026  13.990
 9038SOL     OW29010   5.240   6.379   5.126
 9038SOL    HW129011   5.315   6.340   5.171
 9038SOL    HW229012   5.234   6.467   5.163
 9039SOL     OW29013   5.200   0.551   2.060
 9039SOL    HW129014   5.121   0.605   2.062
 9039SOL    HW229015   5.245   0.577   1.980
 9040SOL     OW29016   3.654  11.685   0.286
 9040SOL    HW129017   3.709  11.608   0.269
 9040SOL    HW229018   3.715  11.757   0.297
 9041SOL     OW29019   1.395  10.483   7.567
 9041SOL    HW129020   1.328  10.474   7.499
 9041SOL    HW229021   1.411  10.393   7.596
 9042SOL     OW29022   6.178   6.898   9.166
 9042SOL    HW129023   6.133   6.905   9.082
 9042SOL    HW229024   6.172   6.986   9.203
 9043SOL     OW29025  10.210   7.457   0.605
 9043SOL    HW129026  10.178   7.497   0.686
 9043SOL    HW229027  10.146   7.388   0.586
 9044SOL     OW29028   7.592  13.490   1.697
 9044SOL    HW129029   7.658  13.421   1.689
 9044SOL    HW229030   7.600  13.539   1.615
 9045SOL     OW29031   1.318   2.131  10.561
 9045SOL    HW129032   1.409   2.158  10.547
 9045SOL    HW229033   1.325   2.039  10.587
 9046SOL     OW29034   0.545   4.503   1.945
 9046SOL    HW129035   0.576   4.552   1.869
 9046SOL    HW229036   0.450   4.519   1.947
 9047SOL     OW29037  13.667   4.910  11.635
 9047SOL    HW129038  13.688   4.859  11.713
 9047SOL    HW229039  13.617   4.985  11.668
 9048SOL     OW29040   2.421  11.347  12.376
 9048SOL    HW129041   2.373  11.385  12.449
 9048SOL    HW229042   2.360  11.351  12.302
 9049SOL     OW29043   6.332   8.934  10.568
 9049SOL    HW129044   6.361   8.970  10.485
 9049SOL    HW229045   6.412   8.904  10.611
 9050SOL     OW29046  12.863   0.951   5.230
 9050SOL    HW129047  12.958   0.944   5.226
 9050SOL    HW229048  12.832   0.862   5.217
 9051SOL     OW29049  14.382   9.941   2.331
 9051SOL    HW129050  14.331   9.990   2.396
 9051SOL    HW229051  14.352   9.850   2.340
 9052SOL     OW29052  14.039   2.366   9.743
 9052SOL    HW129053  13.977   2.342   9.674
 9052SOL    HW229054  14.000   2.332   9.824
 9053SOL     OW29055  11.752  10.935   9.654
 9053SOL    HW129056  11.712  10.977   9.578
 9053SOL    HW229057  11.846  10.937   9.636
 9054SOL     OW29058  14.785  11.988  14.177
 9054SOL    HW129059  14.856  11.995  14.114
 9054SOL    HW229060  14.705  11.993  14.125
 9055SOL     OW29061   7.642   1.258  14.414
 9055SOL    HW129062   7.636   1.334  14.471
 9055SOL    HW229063   7.604   1.287  14.331
 9056SOL     OW29064   9.113   5.888   6.170
 9056SOL    HW129065   9.079   5.799   6.177
 9056SOL    HW229066   9.123   5.917   6.261
 9057SOL     OW29067   6.701  10.452  14.708
 9057SOL    HW129068   6.650  10.469  14.788
 9057SOL    HW229069   6.756  10.377  14.730
 9058SOL     OW29070   8.010   8.094   3.417
 9058SOL    HW129071   8.019   8.006   3.379
 9058SOL    HW229072   7.931   8.130   3.376
 9059SOL     OW29073  10.677   7.681   8.903
 9059SOL    HW129074  10.756   7.626   8.896
 9059SOL    HW229075  10.633   7.670   8.818
 9060SOL     OW29076   6.096  11.951  13.442
 9060SOL    HW129077   6.123  12.004  13.517
 9060SOL    HW229078   6.084  11.863  13.479
 9061SOL     OW29079  13.217  10.197  11.207
 9061SOL    HW129080  13.147  10.220  11.269
 9061SOL    HW229081  13.288  10.257  11.229
 9062SOL     OW29082   5.711  14.579   9.763
 9062SOL    HW129083   5.636  14.621   9.722
 9062SOL    HW229084   5.768  14.555   9.689
 9063SOL     OW29085   2.788  13.685  11.591
 9063SOL    HW129086   2.867  13.733  11.565
 9063SOL    HW229087   2.716  13.742  11.563
 9064SOL     OW29088   2.978   9.135   6.136
 9064SOL    HW129089   3.052   9.179   6.095
 9064SOL    HW229090   2.939   9.202   6.192
 9065SOL     OW29091  13.536   0.285  13.015
 9065SOL    HW129092  13.546   0.300  12.921
 9065SOL    HW229093  13.442   0.278  13.029
 9066SOL     OW29094   9.305   9.342   3.448
 9066SOL    HW129095   9.388   9.298   3.428
 9066SOL    HW229096   9.309   9.424   3.399
 9067SOL     OW29097  10.760   5.695   9.552
 9067SOL    HW129098  10.841   5.720   9.595
 9067SOL    HW229099  10.711   5.777   9.545
 9068SOL     OW29100   2.009   8.104   2.000
 9068SOL    HW129101   2.066   8.032   1.973
 9068SOL    HW229102   1.962   8.069   2.076
 9069SOL     OW29103   0.590   9.843  10.212
 9069SOL    HW129104   0.564   9.800  10.130
 9069SOL    HW229105   0.619   9.930  10.186
 9070SOL     OW29106   9.644   9.876   3.933
 9070SOL    HW129107   9.712   9.826   3.887
 9070SOL    HW229108   9.594   9.919   3.863
 9071SOL     OW29109   9.427   3.270   1.801
 9071SOL    HW129110   9.479   3.259   1.881
 9071SOL    HW229111   9.491   3.297   1.735
 9072SOL     OW29112   9.316  11.651   9.664
 9072SOL    HW129113   9.298  11.689   9.579
 9072SOL    HW229114   9.412  11.648   9.669
 9073SOL     OW29115  12.664   1.712   9.032
 9073SOL    HW129116  12.736   1.659   8.998
 9073SOL    HW229117  12.586   1.679   8.988
 9074SOL     OW29118  11.908  11.097   1.271
 9074SOL    HW129119  11.836  11.048   1.232
 9074SOL    HW229120  11.888  11.188   1.252
 9075SOL     OW29121   5.357  12.592  11.020
 9075SOL    HW129122   5.296  12.527  10.983
 9075SOL    HW229123   5.303  12.671  11.032
 9076SOL     OW29124   1.628   0.352  10.161
 9076SOL    HW129125   1.547   0.335  10.209
 9076SOL    HW229126   1.677   0.269  10.165
 9077SOL     OW29127  14.833   8.280   5.037
 9077SOL    HW129128  14.829   8.185   5.050
 9077SOL    HW229129  14.875   8.290   4.951
 9078SOL     OW29130   3.099  12.946   9.069
 9078SOL    HW129131   3.185  12.987   9.063
 9078SOL    HW229132   3.038  13.017   9.048
 9079SOL     OW29133   3.876  13.419   6.869
 9079SOL    HW129134   3.863  13.390   6.779
 9079SOL    HW229135   3.971  13.421   6.880
 9080SOL     OW29136   0.850   6.195   3.766
 9080SOL    HW129137   0.880   6.241   3.845
 9080SOL    HW229138   0.931   6.174   3.719
 9081SOL     OW29139   5.574  14.022   4.866
 9081SOL    HW129140   5.547  13.930   4.871
 9081SOL    HW229141   5.498  14.068   4.830
 9082SOL     OW29142  14.497  14.385   0.147
 9082SOL    HW129143  14.566  14.317   0.148
 9082SOL    HW229144  14.542  14.464   0.175
 9083SOL     OW29145  10.141   9.427   9.037
 9083SOL    HW129146  10.191   9.432   9.119
 9083SOL    HW229147  10.069   9.489   9.049
 9084SOL     OW29148   0.738   4.695   6.030
 9084SOL    HW129149   0.661   4.650   6.065
 9084SOL    HW229150   0.704   4.744   5.955
 9085SOL     OW29151   5.094   3.147   4.445
 9085SOL    HW129152   5.185   3.167   4.467
 9085SOL    HW229153   5.046   3.226   4.469
 9086SOL     OW29154   8.773  13.170   1.874
 9086SOL    HW129155   8.764  13.087   1.827
 9086SOL    HW229156   8.844  13.216   1.829
 9087SOL     OW29157   5.929  13.751   0.471
 9087SOL    HW129158   5.886  13.759   0.556
 9087SOL    HW229159   5.897  13.668   0.436
 9088SOL     OW29160  12.942   5.507   4.333
 9088SOL    HW129161  12.947   5.478   4.242
 9088SOL    HW229162  12.863   5.465   4.368
 9089SOL     OW29163  10.919   9.546   0.614
 9089SOL    HW129164  11.014   9.550   0.604
 9089SOL    HW229165  10.897   9.624   0.666
 9090SOL     OW29166  10.765   9.266   2.234
 9090SOL    HW129167  10.733   9.353   2.211
 9090SOL    HW229168  10.852   9.261   2.195
 9091SOL     OW29169  11.807   9.568   7.908
 9091SOL    HW129170  11.817   9.573   7.813
 9091SOL    HW229171  11.749   9.493   7.922
 9092SOL     OW29172  11.188   4.804   6.858
 9092SOL    HW129173  11.095   4.783   6.864
 9092SOL    HW229174  11.191   4.898   6.840
 9093SOL     OW29175   1.874   2.826   3.466
 9093SOL    HW129176   1.949   2.882   3.445
 9093SOL    HW229177   1.875   2.758   3.399
 9094SOL     OW29178   3.807  11.387   5.799
 9094SOL    HW129179   3.740  11.448   5.830
 9094SOL    HW229180   3.760  11.307   5.779
 9095SOL     OW29181   5.958  14.449   2.166
 9095SOL    HW129182   6.019  14.506   2.119
 9095SOL    HW229183   5.990  14.361   2.150
 9096SOL     OW29184   7.142  14.434  14.705
 9096SOL    HW129185   7.144  14.517  14.657
 9096SOL    HW229186   7.050  14.421  14.728
 9097SOL     OW29187   8.889   6.542  11.801
 9097SOL    HW129188   8.958   6.579  11.856
 9097SOL    HW229189   8.815   6.530  11.861
 9098SOL     OW29190  13.619   6.017   6.915
 9098SOL    HW129191  13.681   5.961   6.960
 9098SOL    HW229192  13.656   6.029   6.827
 9099SOL     OW29193   9.254  13.575   8.629
 9099SOL    HW129194   9.228  13.509   8.694
 9099SOL    HW229195   9.340  13.604   8.659
 9100SOL     OW29196  12.495   7.240   5.910
 9100SOL    HW129197  12.446   7.319   5.884
 9100SOL    HW229198  12.568   7.273   5.962
 9101SOL     OW29199   8.346  13.764  11.666
 9101SOL    HW129200   8.417  13.796  11.721
 9101SOL    HW229201   8.379  13.771  11.577
 9102SOL     OW29202   7.699  13.544   3.702
 9102SOL    HW129203   7.657  13.547   3.788
 9102SOL    HW229204   7.627  13.529   3.641
 9103SOL     OW29205   3.471  14.794  14.253
 9103SOL    HW129206   3.380  14.765  14.263
 9103SOL    HW229207   3.516  14.760  14.331
 9104SOL     OW29208  11.730   6.882   0.800
 9104SOL    HW129209  11.658   6.847   0.852
 9104SOL    HW229210  11.708   6.974   0.786
 9105SOL     OW29211   8.017   0.776  10.004
 9105SOL    HW129212   7.928   0.760  10.035
 9105SOL    HW229213   8.054   0.689   9.991
 9106SOL     OW29214   7.706   0.588  12.927
 9106SOL    HW129215   7.687   0.548  13.013
 9106SOL    HW229216   7.620   0.606  12.890
 9107SOL     OW29217   6.264   6.960   3.139
 9107SOL    HW129218   6.280   7.017   3.214
 9107SOL    HW229219   6.340   6.902   3.137
 9108SOL     OW29220  12.250  14.361   1.963
 9108SOL    HW129221  12.301  14.326   1.889
 9108SOL    HW229222  12.159  14.356   1.934
 9109SOL     OW29223  10.208   8.954   4.356
 9109SOL    HW129224  10.229   8.967   4.263
 9109SOL    HW229225  10.120   8.918   4.356
 9110SOL     OW29226   2.728   5.914   9.643
 9110SOL    HW129227   2.769   5.832   9.669
 9110SOL    HW229228   2.660   5.928   9.709
 9111SOL     OW29229   0.723  12.369   0.490
 9111SOL    HW129230   0.647  12.426   0.494
 9111SOL    HW229231   0.719  12.317   0.571
 9112SOL     OW29232  14.811   9.109   9.088
 9112SOL    HW129233   0.016   9.093   9.131
 9112SOL    HW229234  14.777   9.187   9.133
 9113SOL     OW29235   2.324   2.816   0.454
 9113SOL    HW129236   2.282   2.811   0.540
 9113SOL    HW229237   2.274   2.883   0.408
 9114SOL     OW29238   2.967   5.083   8.893
 9114SOL    HW129239   2.972   5.055   8.802
 9114SOL    HW229240   2.884   5.129   8.901
 9115SOL     OW29241  13.151   2.927   6.164
 9115SOL    HW129242  13.143   2.889   6.077
 9115SOL    HW229243  13.205   3.005   6.151
 9116SOL     OW29244   1.310  10.118  13.411
 9116SOL    HW129245   1.389  10.141  13.362
 9116SOL    HW229246   1.313  10.022  13.416
 9117SOL     OW29247   9.599   1.304  11.675
 9117SOL    HW129248   9.549   1.278  11.753
 9117SOL    HW229249   9.677   1.346  11.710
 9118SOL     OW29250   6.395   9.206   1.351
 9118SOL    HW129251   6.460   9.265   1.389
 9118SOL    HW229252   6.316   9.222   1.402
 9119SOL     OW29253  12.171  12.996  14.484
 9119SOL    HW129254  12.158  12.912  14.440
 9119SOL    HW229255  12.193  12.973  14.574
 9120SOL     OW29256   4.117   0.860   0.810
 9120SOL    HW129257   4.045   0.900   0.760
 9120SOL    HW229258   4.196   0.901   0.776
 9121SOL     OW29259   9.685   2.774  12.703
 9121SOL    HW129260   9.754   2.835  12.677
 9121SOL    HW229261   9.606   2.808  12.662
 9122SOL     OW29262   8.180   3.127  13.385
 9122SOL    HW129263   8.179   3.199  13.448
 9122SOL    HW229264   8.221   3.164  13.307
 9123SOL     OW29265   3.634   0.160  12.458
 9123SOL    HW129266   3.557   0.172  12.402
 9123SOL    HW229267   3.619   0.220  12.532
 9124SOL     OW29268  10.547   5.868   0.285
 9124SOL    HW129269  10.481   5.929   0.252
 9124SOL    HW229270  10.572   5.816   0.209
 9125SOL     OW29271   1.429   2.013   8.098
 9125SOL    HW129272   1.463   1.924   8.111
 9125SOL    HW229273   1.372   2.006   8.022
 9126SOL     OW29274   9.350   9.941  12.284
 9126SOL    HW129275   9.274   9.895  12.318
 9126SOL    HW229276   9.350  10.025  12.330
 9127SOL     OW29277   2.698  11.544   9.993
 9127SOL    HW129278   2.727  11.517   9.906
 9127SOL    HW229279   2.652  11.626   9.979
 9128SOL     OW29280   3.028  14.542   5.574
 9128SOL    HW129281   3.042  14.491   5.654
 9128SOL    HW229282   3.093  14.612   5.579
 9129SOL     OW29283   2.731   1.847   1.407
 9129SOL    HW129284   2.793   1.884   1.344
 9129SOL    HW229285   2.653   1.825   1.355
 9130SOL     OW29286  13.306   5.249   7.934
 9130SOL    HW129287  13.292   5.340   7.909
 9130SOL    HW229288  13.267   5.198   7.863
 9131SOL     OW29289  14.485  13.085  11.803
 9131SOL    HW129290  14.555  13.144  11.829
 9131SOL    HW229291  14.513  13.049  11.719
 9132SOL     OW29292   6.519  10.527   2.883
 9132SOL    HW129293   6.566  10.480   2.814
 9132SOL    HW229294   6.450  10.575   2.837
 9133SOL     OW29295  10.630  11.067  13.256
 9133SOL    HW129296  10.717  11.104  13.240
 9133SOL    HW229297  10.646  10.993  13.314
 9134SOL     OW29298   5.063   7.373   8.516
 9134SOL    HW129299   5.094   7.334   8.598
 9134SOL    HW229300   5.136   7.360   8.455
 9135SOL     OW29301  12.679   4.285   3.049
 9135SOL    HW129302  12.713   4.319   3.131
 9135SOL    HW229303  12.742   4.218   3.022
 9136SOL     OW29304  12.842   7.665  13.896
 9136SOL    HW129305  12.750   7.666  13.868
 9136SOL    HW229306  12.841   7.701  13.984
 9137SOL     OW29307   6.461  10.893  13.861
 9137SOL    HW129308   6.427  10.847  13.937
 9137SOL    HW229309   6.384  10.910  13.806
 9138SOL     OW29310  14.647   6.876   2.602
 9138SOL    HW129311  14.620   6.850   2.690
 9138SOL    HW229312  14.620   6.803   2.546
 9139SOL     OW29313   2.396   3.904   9.889
 9139SOL    HW129314   2.455   3.966   9.847
 9139SOL    HW229315   2.432   3.818   9.868
 9140SOL     OW29316   4.347   1.864  10.450
 9140SOL    HW129317   4.269   1.896  10.496
 9140SOL    HW229318   4.350   1.771  10.469
 9141SOL     OW29319   7.853   8.858   2.604
 9141SOL    HW129320   7.862   8.902   2.688
 9141SOL    HW229321   7.862   8.765   2.624
 9142SOL     OW29322   6.345   0.057  12.318
 9142SOL    HW129323   6.410  14.878  12.355
 9142SOL    HW229324   6.356   0.139  12.366
 9143SOL     OW29325   1.176   8.281  10.904
 9143SOL    HW129326   1.253   8.318  10.861
 9143SOL    HW229327   1.212   8.220  10.968
 9144SOL     OW29328  11.341   9.579  12.635
 9144SOL    HW129329  11.404   9.524  12.588
 9144SOL    HW229330  11.321   9.651  12.575
 9145SOL     OW29331   5.267  12.434   3.845
 9145SOL    HW129332   5.188  12.402   3.802
 9145SOL    HW229333   5.299  12.504   3.788
 9146SOL     OW29334  11.082   4.518   4.390
 9146SOL    HW129335  11.094   4.423   4.397
 9146SOL    HW229336  11.097   4.551   4.478
 9147SOL     OW29337  10.617   8.506   3.569
 9147SOL    HW129338  10.651   8.583   3.524
 9147SOL    HW229339  10.600   8.536   3.658
 9148SOL     OW29340  10.192  11.335  11.000
 9148SOL    HW129341  10.235  11.252  11.022
 9148SOL    HW229342  10.209  11.392  11.076
 9149SOL     OW29343   5.125  13.248  12.962
 9149SOL    HW129344   5.167  13.175  12.917
 9149SOL    HW229345   5.188  13.274  13.029
 9150SOL     OW29346   7.812  12.045  13.869
 9150SOL    HW129347   7.719  12.067  13.877
 9150SOL    HW229348   7.816  11.950  13.883
 9151SOL     OW29349   3.025  13.776   2.828
 9151SOL    HW129350   3.014  13.855   2.776
 9151SOL    HW229351   3.118  13.774   2.850
 9152SOL     OW29352   1.053   6.751   0.405
 9152SOL    HW129353   0.994   6.678   0.385
 9152SOL    HW229354   1.013   6.827   0.363
 9153SOL     OW29355  12.583   3.325  14.405
 9153SOL    HW129356  12.511   3.321  14.469
 9153SOL    HW229357  12.629   3.241  14.416
 9154SOL     OW29358   3.968   1.868  11.300
 9154SOL    HW129359   3.998   1.807  11.232
 9154SOL    HW229360   4.045   1.919  11.323
 9155SOL     OW29361   2.519   6.602  12.166
 9155SOL    HW129362   2.602   6.567  12.135
 9155SOL    HW229363   2.453   6.544  12.128
 9156SOL     OW29364   1.063  13.758   7.099
 9156SOL    HW129365   1.058  13.804   7.015
 9156SOL    HW229366   1.126  13.809   7.150
 9157SOL     OW29367   4.313   1.952   9.248
 9157SOL    HW129368   4.325   1.917   9.336
 9157SOL    HW229369   4.221   1.937   9.228
 9158SOL     OW29370   3.326   2.096   0.776
 9158SOL    HW129371   3.282   2.125   0.696
 9158SOL    HW229372   3.354   2.006   0.757
 9159SOL     OW29373   8.775  13.575   3.381
 9159SOL    HW129374   8.843  13.558   3.316
 9159SOL    HW229375   8.703  13.614   3.331
 9160SOL     OW29376   0.048   7.361   2.790
 9160SOL    HW129377   0.070   7.287   2.733
 9160SOL    HW229378  14.879   7.322   2.862
 9161SOL     OW29379   3.931  13.071  13.830
 9161SOL    HW129380   3.928  13.007  13.901
 9161SOL    HW229381   3.894  13.025  13.754
 9162SOL     OW29382  13.951   0.767  12.606
 9162SOL    HW129383  13.971   0.817  12.527
 9162SOL    HW229384  14.004   0.687  12.597
 9163SOL     OW29385   2.821   3.240  11.902
 9163SOL    HW129386   2.913   3.217  11.887
 9163SOL    HW229387   2.785   3.256  11.815
 9164SOL     OW29388   5.772   8.294   3.908
 9164SOL    HW129389   5.706   8.356   3.938
 9164SOL    HW229390   5.847   8.349   3.884
 9165SOL     OW29391   2.279   7.735   4.534
 9165SOL    HW129392   2.234   7.670   4.480
 9165SOL    HW229393   2.332   7.684   4.595
 9166SOL     OW29394   9.606  12.919   4.231
 9166SOL    HW129395   9.674  12.877   4.179
 9166SOL    HW229396   9.524  12.881   4.199
 9167SOL     OW29397   0.505  10.508   8.299
 9167SOL    HW129398   0.555  10.433   8.265
 9167SOL    HW229399   0.413  10.482   8.291
 9168SOL     OW29400   4.210   9.021   3.908
 9168SOL    HW129401   4.221   8.951   3.972
 9168SOL    HW229402   4.138   8.991   3.852
 9169SOL     OW29403   3.891  14.014   4.253
 9169SOL    HW129404   3.843  14.060   4.184
 9169SOL    HW229405   3.950  13.955   4.207
 9170SOL     OW29406  11.868   2.157   2.510
 9170SOL    HW129407  11.837   2.168   2.599
 9170SOL    HW229408  11.883   2.246   2.478
 9171SOL     OW29409   8.380  12.670  13.625
 9171SOL    HW129410   8.332  12.750  13.641
 9171SOL    HW229411   8.334  12.628  13.552
 9172SOL     OW29412  11.439  10.740   2.699
 9172SOL    HW129413  11.437  10.722   2.605
 9172SOL    HW229414  11.531  10.759   2.718
 9173SOL     OW29415   9.140   2.560  13.795
 9173SOL    HW129416   9.224   2.566  13.749
 9173SOL    HW229417   9.129   2.466  13.811
 9174SOL     OW29418   3.870   2.395  14.383
 9174SOL    HW129419   3.832   2.465  14.436
 9174SOL    HW229420   3.795   2.348  14.346
 9175SOL     OW29421   2.561   6.311   8.379
 9175SOL    HW129422   2.590   6.234   8.428
 9175SOL    HW229423   2.591   6.295   8.289
 9176SOL     OW29424  13.925   4.786   4.250
 9176SOL    HW129425  13.863   4.849   4.214
 9176SOL    HW229426  13.907   4.785   4.344
 9177SOL     OW29427   2.240  12.076   1.249
 9177SOL    HW129428   2.263  11.983   1.260
 9177SOL    HW229429   2.263  12.096   1.159
 9178SOL     OW29430   0.346   4.147   9.091
 9178SOL    HW129431   0.268   4.093   9.101
 9178SOL    HW229432   0.312   4.235   9.073
 9179SOL     OW29433  13.379   6.702   5.211
 9179SOL    HW129434  13.470   6.732   5.216
 9179SOL    HW229435  13.331   6.780   5.183
 9180SOL     OW29436  10.765  11.829  12.368
 9180SOL    HW129437  10.671  11.844  12.357
 9180SOL    HW229438  10.781  11.844  12.461
 9181SOL     OW29439   7.146  14.445   2.022
 9181SOL    HW129440   7.126  14.394   1.943
 9181SOL    HW229441   7.131  14.536   1.997
 9182SOL     OW29442   0.857   7.148   7.960
 9182SOL    HW129443   0.877   7.056   7.971
 9182SOL    HW229444   0.819   7.175   8.044
 9183SOL     OW29445   9.531   0.208   8.530
 9183SOL    HW129446   9.574   0.182   8.612
 9183SOL    HW229447   9.576   0.288   8.504
 9184SOL     OW29448  12.442   1.844   3.925
 9184SOL    HW129449  12.479   1.892   3.851
 9184SOL    HW229450  12.465   1.896   4.001
 9185SOL     OW29451   5.402  10.307   4.098
 9185SOL    HW129452   5.340  10.275   4.164
 9185SOL    HW229453   5.351  10.370   4.046
 9186SOL     OW29454   1.748   9.930   7.996
 9186SOL    HW129455   1.821   9.963   7.943
 9186SOL    HW229456   1.712  10.007   8.040
 9187SOL     OW29457   8.154   8.115   4.679
 9187SOL    HW129458   8.241   8.074   4.683
 9187SOL    HW229459   8.131   8.129   4.771
 9188SOL     OW29460  13.682   3.225   6.094
 9188SOL    HW129461  13.748   3.287   6.124
 9188SOL    HW229462  13.726   3.140   6.096
 9189SOL     OW29463  10.033   7.784   3.094
 9189SOL    HW129464  10.084   7.806   3.016
 9189SOL    HW229465   9.943   7.777   3.063
 9190SOL     OW29466  13.061  12.794  12.085
 9190SOL    HW129467  13.150  12.766  12.064
 9190SOL    HW229468  13.012  12.782  12.004
 9191SOL     OW29469   3.437  10.088   4.370
 9191SOL    HW129470   3.454  10.175   4.336
 9191SOL    HW229471   3.457  10.094   4.464
 9192SOL     OW29472   6.951   6.375   0.422
 9192SOL    HW129473   7.009   6.424   0.480
 9192SOL    HW229474   6.887   6.440   0.393
 9193SOL     OW29475   5.461   8.145   9.741
 9193SOL    HW129476   5.417   8.153   9.826
 9193SOL    HW229477   5.530   8.212   9.744
 9194SOL     OW29478   5.336  14.139   4.756
 9194SOL    HW129479   5.321  14.210   4.694
 9194SOL    HW229480   5.255  14.088   4.755
 9195SOL     OW29481   6.105  14.691  10.366
 9195SOL    HW129482   6.137  14.688  10.276
 9195SOL    HW229483   6.115  14.783  10.392
 9196SOL     OW29484  10.479   1.067  14.748
 9196SOL    HW129485  10.563   1.051  14.705
 9196SOL    HW229486  10.414   1.030  14.689
 9197SOL     OW29487   7.264   4.083   8.716
 9197SOL    HW129488   7.304   4.153   8.664
 9197SOL    HW229489   7.191   4.125   8.761
 9198SOL     OW29490  12.667   8.723  13.351
 9198SOL    HW129491  12.622   8.734  13.267
 9198SOL    HW229492  12.642   8.636  13.381
 9199SOL     OW29493  13.501  10.284   7.197
 9199SOL    HW129494  13.513  10.196   7.161
 9199SOL    HW229495  13.461  10.334   7.126
 9200SOL     OW29496  11.058   0.128  13.309
 9200SOL    HW129497  10.992   0.103  13.373
 9200SOL    HW229498  11.126   0.172  13.360
 9201SOL     OW29499  14.553   6.681   5.395
 9201SOL    HW129500  14.518   6.701   5.309
 9201SOL    HW229501  14.476   6.669   5.451
 9202SOL     OW29502   8.542   0.363   0.055
 9202SOL    HW129503   8.575   0.449   0.029
 9202SOL    HW229504   8.570   0.305  14.864
 9203SOL     OW29505   5.962   8.992  12.932
 9203SOL    HW129506   5.930   9.061  12.989
 9203SOL    HW229507   5.954   8.912  12.984
 9204SOL     OW29508   5.597   2.153   7.874
 9204SOL    HW129509   5.612   2.128   7.965
 9204SOL    HW229510   5.593   2.069   7.827
 9205SOL     OW29511   3.643   1.709   7.690
 9205SOL    HW129512   3.603   1.689   7.606
 9205SOL    HW229513   3.575   1.756   7.738
 9206SOL     OW29514  12.775  14.874   6.164
 9206SOL    HW129515  12.728   0.048   6.100
 9206SOL    HW229516  12.868   0.012   6.146
 9207SOL     OW29517   4.327  12.263   9.347
 9207SOL    HW129518   4.320  12.318   9.425
 9207SOL    HW229519   4.395  12.305   9.294
 9208SOL     OW29520  10.605  13.892  12.014
 9208SOL    HW129521  10.522  13.898  11.968
 9208SOL    HW229522  10.641  13.981  12.009
 9209SOL     OW29523  13.043   8.745  13.747
 9209SOL    HW129524  12.983   8.819  13.735
 9209SOL    HW229525  12.993   8.683  13.799
 9210SOL     OW29526   4.237   1.198   6.151
 9210SOL    HW129527   4.181   1.170   6.223
 9210SOL    HW229528   4.326   1.192   6.186
 9211SOL     OW29529  13.129  10.825   5.848
 9211SOL    HW129530  13.090  10.901   5.890
 9211SOL    HW229531  13.162  10.857   5.764
 9212SOL     OW29532  10.005   5.578   9.360
 9212SOL    HW129533  10.085   5.612   9.400
 9212SOL    HW229534   9.962   5.655   9.324
 9213SOL     OW29535   2.106  12.478   6.713
 9213SOL    HW129536   2.196  12.507   6.721
 9213SOL    HW229537   2.111  12.392   6.671
 9214SOL     OW29538   1.023  12.283   7.683
 9214SOL    HW129539   1.052  12.206   7.634
 9214SOL    HW229540   1.076  12.355   7.649
 9215SOL     OW29541  10.687  10.479   0.204
 9215SOL    HW129542  10.603  10.500   0.244
 9215SOL    HW229543  10.666  10.417   0.134
 9216SOL     OW29544   8.166  12.867   5.216
 9216SOL    HW129545   8.129  12.778   5.215
 9216SOL    HW229546   8.148  12.901   5.128
 9217SOL     OW29547  11.727   6.460   2.614
 9217SOL    HW129548  11.744   6.537   2.559
 9217SOL    HW229549  11.728   6.494   2.703
 9218SOL     OW29550   2.663  12.226   6.159
 9218SOL    HW129551   2.622  12.190   6.080
 9218SOL    HW229552   2.716  12.299   6.127
 9219SOL     OW29553   7.596  10.014  12.675
 9219SOL    HW129554   7.635  10.063  12.603
 9219SOL    HW229555   7.610  10.068  12.753
 9220SOL     OW29556  12.366   4.590  12.004
 9220SOL    HW129557  12.390   4.539  11.927
 9220SOL    HW229558  12.288   4.639  11.977
 9221SOL     OW29559  14.020   3.910   0.828
 9221SOL    HW129560  14.016   4.005   0.818
 9221SOL    HW229561  14.034   3.877   0.739
 9222SOL     OW29562   0.755  12.570  14.532
 9222SOL    HW129563   0.683  12.517  14.565
 9222SOL    HW229564   0.763  12.545  14.440
 9223SOL     OW29565   8.972  14.416   2.483
 9223SOL    HW129566   8.932  14.330   2.474
 9223SOL    HW229567   8.915  14.463   2.544
 9224SOL     OW29568   0.065  10.495   0.696
 9224SOL    HW129569   0.052  10.484   0.791
 9224SOL    HW229570   0.007  10.429   0.657
 9225SOL     OW29571  13.094   5.232   4.803
 9225SOL    HW129572  13.072   5.236   4.710
 9225SOL    HW229573  13.184   5.264   4.808
 9226SOL     OW29574  13.853   2.792  11.410
 9226SOL    HW129575  13.844   2.874  11.458
 9226SOL    HW229576  13.939   2.799  11.367
 9227SOL     OW29577   8.172   8.954   0.659
 9227SOL    HW129578   8.151   9.044   0.683
 9227SOL    HW229579   8.152   8.903   0.738
 9228SOL     OW29580   3.002   5.964   6.131
 9228SOL    HW129581   3.061   5.889   6.125
 9228SOL    HW229582   3.051   6.030   6.180
 9229SOL     OW29583   5.678   8.076  14.057
 9229SOL    HW129584   5.730   8.058  14.135
 9229SOL    HW229585   5.622   8.000  14.046
 9230SOL     OW29586   8.083  12.768  10.333
 9230SOL    HW129587   8.115  12.788  10.245
 9230SOL    HW229588   8.121  12.682  10.353
 9231SOL     OW29589   4.228   4.786   9.963
 9231SOL    HW129590   4.196   4.709  10.010
 9231SOL    HW229591   4.176   4.859   9.996
 9232SOL     OW29592  13.638  13.167   6.611
 9232SOL    HW129593  13.661  13.165   6.704
 9232SOL    HW229594  13.564  13.228   6.606
 9233SOL     OW29595   2.296   0.336   5.321
 9233SOL    HW129596   2.203   0.345   5.297
 9233SOL    HW229597   2.307   0.396   5.394
 9234SOL     OW29598  12.934   8.226   3.795
 9234SOL    HW129599  12.885   8.308   3.791
 9234SOL    HW229600  12.889   8.175   3.862
 9235SOL     OW29601   7.361  11.516   0.678
 9235SOL    HW129602   7.380  11.451   0.610
 9235SOL    HW229603   7.446  11.535   0.717
 9236SOL     OW29604   4.950   0.857   4.894
 9236SOL    HW129605   4.903   0.941   4.899
 9236SOL    HW229606   4.888   0.793   4.930
 9237SOL     OW29607   3.902   0.994   3.772
 9237SOL    HW129608   3.972   0.956   3.719
 9237SOL    HW229609   3.836   0.925   3.778
 9238SOL     OW29610  12.610   2.306   9.818
 9238SOL    HW129611  12.524   2.324   9.854
 9238SOL    HW229612  12.663   2.381   9.843
 9239SOL     OW29613   9.955  12.237  10.837
 9239SOL    HW129614  10.030  12.291  10.814
 9239SOL    HW229615   9.886  12.264  10.776
 9240SOL     OW29616  10.524  11.557  12.291
 9240SOL    HW129617  10.472  11.622  12.340
 9240SOL    HW229618  10.464  11.524  12.224
 9241SOL     OW29619  14.762  14.015   7.042
 9241SOL    HW129620  14.696  14.013   7.111
 9241SOL    HW229621  14.735  14.087   6.985
 9242SOL     OW29622   5.980   0.777   7.690
 9242SOL    HW129623   6.031   0.761   7.610
 9242SOL    HW229624   5.937   0.694   7.708
 9243SOL     OW29625  11.933  10.489   7.862
 9243SOL    HW129626  11.887  10.449   7.936
 9243SOL    HW229627  11.891  10.452   7.785
 9244SOL     OW29628  13.214   3.107  11.310
 9244SOL    HW129629  13.257   3.024  11.289
 9244SOL    HW229630  13.121   3.089  11.301
 9245SOL     OW29631   8.120   4.535   7.979
 9245SOL    HW129632   8.208   4.548   7.944
 9245SOL    HW229633   8.113   4.440   7.991
 9246SOL     OW29634  13.105   0.435  11.368
 9246SOL    HW129635  13.011   0.428  11.355
 9246SOL    HW229636  13.128   0.521  11.331
 9247SOL     OW29637   3.470   3.929  10.157
 9247SOL    HW129638   3.468   3.944  10.062
 9247SOL    HW229639   3.421   4.003  10.194
 9248SOL     OW29640  12.771   4.917   1.705
 9248SOL    HW129641  12.708   4.987   1.687
 9248SOL    HW229642  12.809   4.941   1.790
 9249SOL     OW29643   4.459   4.735  14.609
 9249SOL    HW129644   4.378   4.690  14.585
 9249SOL    HW229645   4.498   4.680  14.677
 9250SOL     OW29646   2.850  10.538  12.410
 9250SOL    HW129647   2.898  10.610  12.452
 9250SOL    HW229648   2.900  10.518  12.331
 9251SOL     OW29649   0.105  12.289  11.084
 9251SOL    HW129650   0.126  12.319  10.996
 9251SOL    HW229651   0.025  12.238  11.075
 9252SOL     OW29652   6.892   4.923  14.371
 9252SOL    HW129653   6.814   4.972  14.397
 9252SOL    HW229654   6.952   4.932  14.444
 9253SOL     OW29655   6.104   6.135   8.382
 9253SOL    HW129656   6.063   6.123   8.468
 9253SOL    HW229657   6.188   6.176   8.401
 9254SOL     OW29658   6.046   1.241  13.887
 9254SOL    HW129659   6.133   1.234  13.925
 9254SOL    HW229660   5.986   1.222  13.960
 9255SOL     OW29661  14.102  14.200  11.328
 9255SOL    HW129662  14.169  14.133  11.312
 9255SOL    HW229663  14.020  14.158  11.302
 9256SOL     OW29664   1.524   0.399   3.857
 9256SOL    HW129665   1.530   0.425   3.949
 9256SOL    HW229666   1.604   0.350   3.840
 9257SOL     OW29667   5.433   3.400  12.838
 9257SOL    HW129668   5.351   3.449  12.834
 9257SOL    HW229669   5.443   3.362  12.751
 9258SOL     OW29670   6.712  13.909  12.805
 9258SOL    HW129671   6.794  13.956  12.823
 9258SOL    HW229672   6.726  13.868  12.719
 9259SOL     OW29673   4.961   1.492   5.892
 9259SOL    HW129674   4.915   1.411   5.912
 9259SOL    HW229675   4.992   1.481   5.802
 9260SOL     OW29676   3.525   3.497   3.936
 9260SOL    HW129677   3.582   3.425   3.911
 9260SOL    HW229678   3.585   3.566   3.966
 9261SOL     OW29679   5.757   6.613   8.657
 9261SOL    HW129680   5.838   6.562   8.657
 9261SOL    HW229681   5.763   6.667   8.578
 9262SOL     OW29682   9.231   4.398   4.624
 9262SOL    HW129683   9.248   4.475   4.679
 9262SOL    HW229684   9.199   4.433   4.541
 9263SOL     OW29685   1.838  13.577   7.167
 9263SOL    HW129686   1.873  13.510   7.226
 9263SOL    HW229687   1.908  13.591   7.103
 9264SOL     OW29688  13.789  10.651  10.604
 9264SOL    HW129689  13.759  10.725  10.551
 9264SOL    HW229690  13.869  10.622  10.561
 9265SOL     OW29691   3.955  13.925  14.687
 9265SOL    HW129692   3.891  13.995  14.683
 9265SOL    HW229693   3.990  13.929  14.776
 9266SOL     OW29694   7.552   8.316   7.368
 9266SOL    HW129695   7.638   8.274   7.367
 9266SOL    HW229696   7.524   8.316   7.276
 9267SOL     OW29697  11.559   1.467  14.646
 9267SOL    HW129698  11.468   1.461  14.674
 9267SOL    HW229699  11.590   1.377  14.647
 9268SOL     OW29700   0.590   9.757  11.085
 9268SOL    HW129701   0.610   9.715  11.001
 9268SOL    HW229702   0.586   9.851  11.064
 9269SOL     OW29703  14.638  13.583   5.116
 9269SOL    HW129704  14.724  13.624   5.118
 9269SOL    HW229705  14.629  13.549   5.027
 9270SOL     OW29706   1.117   4.582   5.721
 9270SOL    HW129707   1.184   4.517   5.740
 9270SOL    HW229708   1.095   4.619   5.807
 9271SOL     OW29709  13.924   3.167   0.732
 9271SOL    HW129710  13.876   3.142   0.811
 9271SOL    HW229711  13.907   3.261   0.722
 9272SOL     OW29712   5.441   9.071   9.600
 9272SOL    HW129713   5.360   9.066   9.652
 9272SOL    HW229714   5.441   9.159   9.564
 9273SOL     OW29715   3.548  12.911   1.989
 9273SOL    HW129716   3.616  12.975   1.965
 9273SOL    HW229717   3.591  12.826   1.982
 9274SOL     OW29718  11.628  13.417   9.462
 9274SOL    HW129719  11.605  13.493   9.514
 9274SOL    HW229720  11.621  13.446   9.372
 9275SOL     OW29721   9.193  12.659   4.351
 9275SOL    HW129722   9.238  12.722   4.408
 9275SOL    HW229723   9.148  12.600   4.412
 9276SOL     OW29724   7.591   9.534  10.925
 9276SOL    HW129725   7.620   9.615  10.965
 9276SOL    HW229726   7.642   9.527  10.844
 9277SOL     OW29727  13.043  14.649  12.762
 9277SOL    HW129728  12.981  14.719  12.744
 9277SOL    HW229729  12.991  14.582  12.806
 9278SOL     OW29730   3.206   7.955   6.539
 9278SOL    HW129731   3.291   7.926   6.506
 9278SOL    HW229732   3.190   7.901   6.616
 9279SOL     OW29733   4.921   5.708  11.203
 9279SOL    HW129734   4.862   5.729  11.131
 9279SOL    HW229735   4.961   5.792  11.227
 9280SOL     OW29736   7.770   2.737   6.476
 9280SOL    HW129737   7.773   2.774   6.564
 9280SOL    HW229738   7.738   2.648   6.488
 9281SOL     OW29739   5.638  14.110   7.036
 9281SOL    HW129740   5.594  14.069   7.111
 9281SOL    HW229741   5.681  14.187   7.073
 9282SOL     OW29742  12.958  13.129   8.648
 9282SOL    HW129743  12.872  13.168   8.664
 9282SOL    HW229744  13.015  13.168   8.716
 9283SOL     OW29745   0.807   1.265   5.850
 9283SOL    HW129746   0.806   1.345   5.797
 9283SOL    HW229747   0.780   1.295   5.937
 9284SOL     OW29748  10.210   5.854   8.777
 9284SOL    HW129749  10.260   5.781   8.816
 9284SOL    HW229750  10.120   5.839   8.806
 9285SOL     OW29751  11.451  13.184   6.198
 9285SOL    HW129752  11.515  13.229   6.143
 9285SOL    HW229753  11.494  13.102   6.222
 9286SOL     OW29754   8.476   8.086  13.651
 9286SOL    HW129755   8.405   8.044  13.603
 9286SOL    HW229756   8.534   8.121  13.583
 9287SOL     OW29757  10.266   8.298  13.560
 9287SOL    HW129758  10.247   8.345  13.641
 9287SOL    HW229759  10.344   8.246  13.579
 9288SOL     OW29760   4.508  13.158   4.998
 9288SOL    HW129761   4.485  13.191   5.085
 9288SOL    HW229762   4.575  13.093   5.015
 9289SOL     OW29763  11.438   3.260  14.207
 9289SOL    HW129764  11.508   3.240  14.145
 9289SOL    HW229765  11.454   3.350  14.234
 9290SOL     OW29766   9.875   0.811   6.154
 9290SOL    HW129767   9.827   0.734   6.183
 9290SOL    HW229768   9.958   0.776   6.120
 9291SOL     OW29769   1.256   2.009  14.727
 9291SOL    HW129770   1.285   2.051  14.808
 9291SOL    HW229771   1.230   2.082  14.670
 9292SOL     OW29772   8.963   6.237  10.480
 9292SOL    HW129773   8.937   6.297  10.551
 9292SOL    HW229774   9.015   6.292  10.421
 9293SOL     OW29775   3.292  10.191  14.393
 9293SOL    HW129776   3.199  10.205  14.407
 9293SOL    HW229777   3.305  10.097  14.405
 9294SOL     OW29778  12.571  11.450  14.124
 9294SOL    HW129779  12.601  11.539  14.145
 9294SOL    HW229780  12.638  11.393  14.162
 9295SOL     OW29781   0.433   9.497   4.442
 9295SOL    HW129782   0.523   9.508   4.472
 9295SOL    HW229783   0.380   9.506   4.522
 9296SOL     OW29784   5.523   4.342  11.967
 9296SOL    HW129785   5.591   4.289  11.925
 9296SOL    HW229786   5.571   4.396  12.031
 9297SOL     OW29787  12.180   5.661   3.301
 9297SOL    HW129788  12.245   5.638   3.234
 9297SOL    HW229789  12.231   5.686   3.377
 9298SOL     OW29790   9.296  10.712   6.028
 9298SOL    HW129791   9.207  10.694   6.056
 9298SOL    HW229792   9.348  10.705   6.108
 9299SOL     OW29793   0.226   0.730   1.387
 9299SOL    HW129794   0.238   0.772   1.472
 9299SOL    HW229795   0.262   0.793   1.324
 9300SOL     OW29796   9.263   6.323   2.234
 9300SOL    HW129797   9.199   6.390   2.259
 9300SOL    HW229798   9.300   6.294   2.318
 9301SOL     OW29799  11.930   1.055  10.302
 9301SOL    HW129800  11.851   1.085  10.347
 9301SOL    HW229801  11.948   1.123  10.237
 9302SOL     OW29802   8.844  10.533   0.688
 9302SOL    HW129803   8.833  10.527   0.593
 9302SOL    HW229804   8.939  10.540   0.700
 9303SOL     OW29805   3.152  10.163  13.890
 9303SOL    HW129806   3.115  10.097  13.948
 9303SOL    HW229807   3.243  10.171  13.917
 9304SOL     OW29808  12.983   8.433   5.904
 9304SOL    HW129809  12.935   8.479   5.972
 9304SOL    HW229810  12.964   8.481   5.824
 9305SOL     OW29811  11.633   5.368   5.033
 9305SOL    HW129812  11.566   5.423   5.074
 9305SOL    HW229813  11.677   5.426   4.971
 9306SOL     OW29814   6.584   3.106   1.006
 9306SOL    HW129815   6.581   3.197   0.977
 9306SOL    HW229816   6.616   3.057   0.929
 9307SOL     OW29817   9.230   8.132  11.691
 9307SOL    HW129818   9.263   8.055  11.738
 9307SOL    HW229819   9.287   8.139  11.614
 9308SOL     OW29820   6.549   5.871   1.507
 9308SOL    HW129821   6.561   5.785   1.469
 9308SOL    HW229822   6.557   5.932   1.433
 9309SOL     OW29823   2.457   1.138  11.278
 9309SOL    HW129824   2.432   1.113  11.367
 9309SOL    HW229825   2.531   1.081  11.257
 9310SOL     OW29826   5.587  12.257  14.698
 9310SOL    HW129827   5.654  12.320  14.728
 9310SOL    HW229828   5.596  12.183  14.757
 9311SOL     OW29829  13.459   7.120  10.217
 9311SOL    HW129830  13.447   7.114  10.311
 9311SOL    HW229831  13.506   7.040  10.194
 9312SOL     OW29832   2.751   8.529  11.168
 9312SOL    HW129833   2.665   8.501  11.198
 9312SOL    HW229834   2.770   8.606  11.222
 9313SOL     OW29835   8.704  14.518   0.119
 9313SOL    HW129836   8.664  14.500   0.033
 9313SOL    HW229837   8.715  14.431   0.159
 9314SOL     OW29838   2.464   6.861   9.232
 9314SOL    HW129839   2.482   6.818   9.315
 9314SOL    HW229840   2.519   6.815   9.169
 9315SOL     OW29841   3.861   4.274  14.291
 9315SOL    HW129842   3.770   4.269  14.322
 9315SOL    HW229843   3.889   4.183  14.285
 9316SOL     OW29844   8.107  11.110   3.204
 9316SOL    HW129845   8.041  11.120   3.273
 9316SOL    HW229846   8.156  11.032   3.229
 9317SOL     OW29847  10.867   4.026   5.225
 9317SOL    HW129848  10.919   3.978   5.289
 9317SOL    HW229849  10.905   4.005   5.141
 9318SOL     OW29850  14.582   2.940   2.876
 9318SOL    HW129851  14.663   2.892   2.894
 9318SOL    HW229852  14.595   3.025   2.918
 9319SOL     OW29853  14.337  11.340  10.886
 9319SOL    HW129854  14.281  11.372  10.956
 9319SOL    HW229855  14.297  11.257  10.860
 9320SOL     OW29856   0.341  14.748   3.559
 9320SOL    HW129857   0.255  14.755   3.599
 9320SOL    HW229858   0.401  14.785   3.624
 9321SOL     OW29859   5.347   9.266  11.834
 9321SOL    HW129860   5.348   9.177  11.797
 9321SOL    HW229861   5.300   9.319  11.770
 9322SOL     OW29862   3.945   5.566   9.185
 9322SOL    HW129863   3.901   5.557   9.101
 9322SOL    HW229864   3.936   5.480   9.226
 9323SOL     OW29865   3.702   0.638  13.285
 9323SOL    HW129866   3.770   0.591  13.332
 9323SOL    HW229867   3.745   0.670  13.206
 9324SOL     OW29868   8.000   6.045  12.112
 9324SOL    HW129869   8.076   5.992  12.088
 9324SOL    HW229870   7.953   6.059  12.029
 9325SOL     OW29871  13.211   7.719   1.568
 9325SOL    HW129872  13.267   7.679   1.501
 9325SOL    HW229873  13.158   7.647   1.601
 9326SOL     OW29874   5.792  13.457  14.521
 9326SOL    HW129875   5.786  13.370  14.560
 9326SOL    HW229876   5.702  13.489  14.519
 9327SOL     OW29877   2.330   1.170  12.789
 9327SOL    HW129878   2.281   1.096  12.825
 9327SOL    HW229879   2.421   1.140  12.788
 9328SOL     OW29880  11.033   6.946   9.781
 9328SOL    HW129881  10.954   7.000   9.779
 9328SOL    HW229882  11.085   6.978   9.707
 9329SOL     OW29883   4.465  14.145   3.262
 9329SOL    HW129884   4.504  14.175   3.343
 9329SOL    HW229885   4.371  14.159   3.273
 9330SOL     OW29886   1.874   6.391  13.033
 9330SOL    HW129887   1.808   6.447  13.074
 9330SOL    HW229888   1.824   6.332  12.977
 9331SOL     OW29889   6.063   2.452   6.752
 9331SOL    HW129890   5.974   2.475   6.781
 9331SOL    HW229891   6.086   2.375   6.803
 9332SOL     OW29892  13.308   4.335   0.029
 9332SOL    HW129893  13.267   4.359  14.825
 9332SOL    HW229894  13.319   4.418   0.075
 9333SOL     OW29895   9.058   1.062   3.357
 9333SOL    HW129896   9.023   1.145   3.322
 9333SOL    HW229897   9.062   1.076   3.451
 9334SOL     OW29898   2.923   7.177  11.021
 9334SOL    HW129899   2.956   7.246  10.963
 9334SOL    HW229900   2.864   7.222  11.081
 9335SOL     OW29901   0.131   2.950   8.024
 9335SOL    HW129902   0.166   3.029   7.983
 9335SOL    HW229903   0.195   2.882   8.003
 9336SOL     OW29904   2.372   9.850  14.371
 9336SOL    HW129905   2.365   9.757  14.393
 9336SOL    HW229906   2.321   9.859  14.290
 9337SOL     OW29907   2.758  12.859   9.011
 9337SOL    HW129908   2.825  12.844   9.077
 9337SOL    HW229909   2.792  12.932   8.959
 9338SOL     OW29910   6.130   7.591  12.461
 9338SOL    HW129911   6.167   7.661  12.515
 9338SOL    HW229912   6.184   7.514  12.481
 9339SOL     OW29913   5.192   2.618  12.451
 9339SOL    HW129914   5.150   2.703  12.441
 9339SOL    HW229915   5.277   2.638  12.491
 9340SOL     OW29916  12.414   2.940   6.663
 9340SOL    HW129917  12.488   2.979   6.616
 9340SOL    HW229918  12.419   2.981   6.750
 9341SOL     OW29919   7.704  14.679  12.220
 9341SOL    HW129920   7.683  14.706  12.130
 9341SOL    HW229921   7.743  14.757  12.260
 9342SOL     OW29922   7.349   2.148   4.854
 9342SOL    HW129923   7.286   2.184   4.917
 9342SOL    HW229924   7.421   2.117   4.908
 9343SOL     OW29925   1.906   4.323   1.535
 9343SOL    HW129926   1.988   4.281   1.510
 9343SOL    HW229927   1.912   4.333   1.630
 9344SOL     OW29928   2.453   0.356  11.077
 9344SOL    HW129929   2.447   0.312  10.993
 9344SOL    HW229930   2.501   0.437  11.059
 9345SOL     OW29931   2.518   6.657  13.442
 9345SOL    HW129932   2.495   6.591  13.507
 9345SOL    HW229933   2.434   6.693  13.413
 9346SOL     OW29934   9.114  10.838   0.904
 9346SOL    HW129935   9.108  10.853   0.998
 9346SOL    HW229936   9.050  10.770   0.885
 9347SOL     OW29937   4.840   8.815  10.647
 9347SOL    HW129938   4.756   8.789  10.684
 9347SOL    HW229939   4.840   8.911  10.651
 9348SOL     OW29940   7.518   8.243  10.929
 9348SOL    HW129941   7.459   8.178  10.967
 9348SOL    HW229942   7.505   8.321  10.983
 9349SOL     OW29943  10.756   4.476   9.083
 9349SOL    HW129944  10.743   4.489   9.177
 9349SOL    HW229945  10.844   4.509   9.066
 9350SOL     OW29946   8.769   9.779   3.547
 9350SOL    HW129947   8.696   9.735   3.503
 9350SOL    HW229948   8.841   9.775   3.484
 9351SOL     OW29949   0.637  10.611   4.863
 9351SOL    HW129950   0.722  10.655   4.869
 9351SOL    HW229951   0.657  10.518   4.876
 9352SOL     OW29952   1.589  12.189  13.988
 9352SOL    HW129953   1.604  12.136  13.910
 9352SOL    HW229954   1.671  12.236  14.001
 9353SOL     OW29955   2.931  11.992   3.325
 9353SOL    HW129956   2.935  11.902   3.291
 9353SOL    HW229957   3.018  12.007   3.362
 9354SOL     OW29958  11.697   3.143  13.257
 9354SOL    HW129959  11.648   3.191  13.191
 9354SOL    HW229960  11.651   3.060  13.266
 9355SOL     OW29961   6.954   3.861  10.561
 9355SOL    HW129962   6.931   3.951  10.537
 9355SOL    HW229963   7.010   3.831  10.489
 9356SOL     OW29964  10.166   6.892   6.665
 9356SOL    HW129965  10.177   6.987   6.676
 9356SOL    HW229966  10.165   6.858   6.755
 9357SOL     OW29967  11.744   5.712   0.834
 9357SOL    HW129968  11.721   5.723   0.741
 9357SOL    HW229969  11.696   5.782   0.878
 9358SOL     OW29970  14.656   9.712  13.504
 9358SOL    HW129971  14.604   9.639  13.538
 9358SOL    HW229972  14.659   9.774  13.576
 9359SOL     OW29973   3.432  13.948   6.435
 9359SOL    HW129974   3.396  13.869   6.476
 9359SOL    HW229975   3.360  14.011   6.437
 9360SOL     OW29976  13.288  14.360  13.719
 9360SOL    HW129977  13.333  14.440  13.690
 9360SOL    HW229978  13.316  14.293  13.656
 9361SOL     OW29979   7.501  13.176   0.393
 9361SOL    HW129980   7.454  13.188   0.475
 9361SOL    HW229981   7.494  13.082   0.374
 9362SOL     OW29982  10.230   6.777  11.761
 9362SOL    HW129983  10.228   6.725  11.681
 9362SOL    HW229984  10.147   6.825  11.760
 9363SOL     OW29985  11.340   2.863   0.596
 9363SOL    HW129986  11.404   2.848   0.665
 9363SOL    HW229987  11.279   2.790   0.604
 9364SOL     OW29988   4.226   9.009   5.197
 9364SOL    HW129989   4.273   8.957   5.132
 9364SOL    HW229990   4.137   9.016   5.163
 9365SOL     OW29991   9.091   6.279  13.913
 9365SOL    HW129992   9.102   6.368  13.947
 9365SOL    HW229993   9.098   6.289  13.818
 9366SOL     OW29994   3.713   6.514   0.131
 9366SOL    HW129995   3.773   6.537   0.061
 9366SOL    HW229996   3.766   6.518   0.211
 9367SOL     OW29997   5.414   6.340   0.550
 9367SOL    HW129998   5.406   6.348   0.645
 9367SOL    HW229999   5.476   6.269   0.537
 9368SOL     OW30000   1.409  11.412  11.264
 9368SOL    HW130001   1.443  11.501  11.261
 9368SOL    HW230002   1.482  11.360  11.298
 9369SOL     OW30003   7.606   7.025   4.533
 9369SOL    HW130004   7.533   7.017   4.471
 9369SOL    HW230005   7.565   7.017   4.619
 9370SOL     OW30006  10.489  11.013   2.644
 9370SOL    HW130007  10.485  11.081   2.577
 9370SOL    HW230008  10.474  10.932   2.596
 9371SOL     OW30009  12.020  13.445  14.358
 9371SOL    HW130010  12.097  13.487  14.321
 9371SOL    HW230011  12.042  13.352  14.362
 9372SOL     OW30012   7.187   9.507   0.804
 9372SOL    HW130013   7.277   9.539   0.812
 9372SOL    HW230014   7.138   9.583   0.772
 9373SOL     OW30015   3.057  12.531  12.154
 9373SOL    HW130016   3.040  12.564  12.066
 9373SOL    HW230017   3.019  12.596  12.213
 9374SOL     OW30018   6.504   9.636   2.050
 9374SOL    HW130019   6.557   9.581   2.108
 9374SOL    HW230020   6.495   9.719   2.097
 9375SOL     OW30021  14.786   0.540   7.421
 9375SOL    HW130022  14.836   0.461   7.404
 9375SOL    HW230023  14.745   0.524   7.506
 9376SOL     OW30024   8.254   6.794  12.151
 9376SOL    HW130025   8.245   6.843  12.232
 9376SOL    HW230026   8.176   6.816  12.100
 9377SOL     OW30027   2.455  14.268  10.555
 9377SOL    HW130028   2.374  14.266  10.606
 9377SOL    HW230029   2.430  14.304  10.470
 9378SOL     OW30030   4.615   4.746   5.980
 9378SOL    HW130031   4.597   4.696   6.059
 9378SOL    HW230032   4.695   4.707   5.945
 9379SOL     OW30033  10.609   2.722  10.188
 9379SOL    HW130034  10.631   2.755  10.101
 9379SOL    HW230035  10.617   2.627  10.180
 9380SOL     OW30036   4.109  10.996  11.323
 9380SOL    HW130037   4.157  11.064  11.372
 9380SOL    HW230038   4.177  10.943  11.282
 9381SOL     OW30039   3.145  11.650   4.797
 9381SOL    HW130040   3.170  11.571   4.748
 9381SOL    HW230041   3.051  11.640   4.810
 9382SOL     OW30042   5.555  13.930   8.014
 9382SOL    HW130043   5.618  13.973   8.070
 9382SOL    HW230044   5.488  13.897   8.074
 9383SOL     OW30045   7.148   7.680   8.435
 9383SOL    HW130046   7.239   7.678   8.465
 9383SOL    HW230047   7.103   7.732   8.502
 9384SOL     OW30048   1.772  10.691   0.429
 9384SOL    HW130049   1.722  10.753   0.480
 9384SOL    HW230050   1.844  10.665   0.487
 9385SOL     OW30051   0.399   3.880   9.316
 9385SOL    HW130052   0.370   3.920   9.398
 9385SOL    HW230053   0.334   3.908   9.251
 9386SOL     OW30054   3.184   1.042  13.307
 9386SOL    HW130055   3.199   0.972  13.244
 9386SOL    HW230056   3.244   1.023  13.379
 9387SOL     OW30057   5.884  14.527   8.492
 9387SOL    HW130058   5.909  14.457   8.431
 9387SOL    HW230059   5.800  14.499   8.527
 9388SOL     OW30060   1.233   4.458   5.434
 9388SOL    HW130061   1.198   4.422   5.516
 9388SOL    HW230062   1.294   4.391   5.403
 9389SOL     OW30063   7.608   0.095   3.854
 9389SOL    HW130064   7.519   0.061   3.843
 9389SOL    HW230065   7.651   0.077   3.770
 9390SOL     OW30066   5.139  11.610   6.297
 9390SOL    HW130067   5.060  11.559   6.281
 9390SOL    HW230068   5.205  11.545   6.322
 9391SOL     OW30069  11.136   4.487   4.113
 9391SOL    HW130070  11.100   4.503   4.200
 9391SOL    HW230071  11.068   4.437   4.068
 9392SOL     OW30072   2.226   0.772   5.116
 9392SOL    HW130073   2.219   0.707   5.047
 9392SOL    HW230074   2.189   0.730   5.193
 9393SOL     OW30075   4.707  14.809  14.279
 9393SOL    HW130076   4.752  14.878  14.231
 9393SOL    HW230077   4.616  14.838  14.284
 9394SOL     OW30078   3.246   7.131  12.063
 9394SOL    HW130079   3.207   7.098  12.144
 9394SOL    HW230080   3.277   7.219  12.086
 9395SOL     OW30081   3.352   5.460   5.189
 9395SOL    HW130082   3.363   5.403   5.266
 9395SOL    HW230083   3.387   5.408   5.117
 9396SOL     OW30084   1.936   0.431   0.438
 9396SOL    HW130085   2.018   0.391   0.411
 9396SOL    HW230086   1.943   0.522   0.409
 9397SOL     OW30087   8.734  10.005   8.142
 9397SOL    HW130088   8.746   9.967   8.055
 9397SOL    HW230089   8.823  10.029   8.169
 9398SOL     OW30090   5.472   5.903   4.434
 9398SOL    HW130091   5.530   5.875   4.505
 9398SOL    HW230092   5.506   5.988   4.407
 9399SOL     OW30093  14.339   6.822  10.535
 9399SOL    HW130094  14.315   6.747  10.480
 9399SOL    HW230095  14.256   6.856  10.566
 9400SOL     OW30096   4.895   0.219  10.751
 9400SOL    HW130097   4.859   0.300  10.714
 9400SOL    HW230098   4.819   0.174  10.787
 9401SOL     OW30099   7.536   2.145   5.449
 9401SOL    HW130100   7.564   2.172   5.536
 9401SOL    HW230101   7.579   2.061   5.435
 9402SOL     OW30102   9.638   4.872  11.605
 9402SOL    HW130103   9.727   4.875  11.568
 9402SOL    HW230104   9.584   4.915  11.539
 9403SOL     OW30105   3.795   5.357  11.309
 9403SOL    HW130106   3.741   5.397  11.377
 9403SOL    HW230107   3.742   5.285  11.275
 9404SOL     OW30108  14.055  12.835   4.023
 9404SOL    HW130109  14.049  12.913   4.079
 9404SOL    HW230110  13.965  12.807   4.010
 9405SOL     OW30111   8.988   0.691  12.538
 9405SOL    HW130112   9.062   0.744  12.508
 9405SOL    HW230113   9.027   0.605  12.556
 9406SOL     OW30114  14.868   5.980   2.942
 9406SOL    HW130115  14.852   6.056   2.886
 9406SOL    HW230116   0.083   5.970   2.943
 9407SOL     OW30117  11.126   8.845   3.302
 9407SOL    HW130118  11.055   8.790   3.270
 9407SOL    HW230119  11.146   8.903   3.229
 9408SOL     OW30120   9.056   3.823   1.734
 9408SOL    HW130121   9.055   3.823   1.830
 9408SOL    HW230122   9.102   3.904   1.712
 9409SOL     OW30123  13.423   0.864   5.483
 9409SOL    HW130124  13.515   0.850   5.505
 9409SOL    HW230125  13.394   0.780   5.448
 9410SOL     OW30126   0.582  10.958  13.920
 9410SOL    HW130127   0.598  10.980  14.012
 9410SOL    HW230128   0.609  11.036  13.872
 9411SOL     OW30129   8.320  12.371  11.351
 9411SOL    HW130130   8.288  12.460  11.363
 9411SOL    HW230131   8.321  12.359  11.256
 9412SOL     OW30132  11.738   9.717   8.266
 9412SOL    HW130133  11.693   9.781   8.320
 9412SOL    HW230134  11.713   9.632   8.302
 9413SOL     OW30135   5.548   2.804   9.000
 9413SOL    HW130136   5.563   2.870   8.933
 9413SOL    HW230137   5.456   2.814   9.023
 9414SOL     OW30138   8.670   8.993   9.177
 9414SOL    HW130139   8.587   8.968   9.217
 9414SOL    HW230140   8.736   8.943   9.225
 9415SOL     OW30141   7.627  10.179   5.684
 9415SOL    HW130142   7.553  10.239   5.690
 9415SOL    HW230143   7.700  10.233   5.655
 9416SOL     OW30144   7.041  13.839  11.069
 9416SOL    HW130145   7.065  13.858  11.159
 9416SOL    HW230146   6.972  13.902  11.049
 9417SOL     OW30147  13.239   4.755   5.335
 9417SOL    HW130148  13.280   4.669   5.346
 9417SOL    HW230149  13.228   4.764   5.241
 9418SOL     OW30150   8.843   3.608  12.209
 9418SOL    HW130151   8.780   3.670  12.246
 9418SOL    HW230152   8.926   3.629  12.251
 9419SOL     OW30153   6.288   8.978   9.074
 9419SOL    HW130154   6.353   8.923   9.118
 9419SOL    HW230155   6.337   9.018   9.002
 9420SOL     OW30156   6.331   8.975   5.158
 9420SOL    HW130157   6.349   9.004   5.247
 9420SOL    HW230158   6.293   9.051   5.115
 9421SOL     OW30159  10.951  11.561   6.443
 9421SOL    HW130160  10.950  11.644   6.491
 9421SOL    HW230161  11.035  11.521   6.467
 9422SOL     OW30162   6.234   7.657   1.631
 9422SOL    HW130163   6.223   7.573   1.588
 9422SOL    HW230164   6.318   7.650   1.677
 9423SOL     OW30165   5.920  10.530  13.058
 9423SOL    HW130166   5.969  10.526  12.976
 9423SOL    HW230167   5.844  10.474  13.044
 9424SOL     OW30168  11.399  14.482   0.532
 9424SOL    HW130169  11.467  14.420   0.558
 9424SOL    HW230170  11.324  14.458   0.586
 9425SOL     OW30171  13.084   2.334  10.352
 9425SOL    HW130172  13.044   2.268  10.295
 9425SOL    HW230173  13.051   2.313  10.439
 9426SOL     OW30174  13.234   0.841   0.327
 9426SOL    HW130175  13.196   0.754   0.341
 9426SOL    HW230176  13.328   0.827   0.329
 9427SOL     OW30177  12.891   2.893   1.992
 9427SOL    HW130178  12.844   2.942   1.924
 9427SOL    HW230179  12.875   2.801   1.970
 9428SOL     OW30180  12.003   4.496   4.152
 9428SOL    HW130181  12.088   4.463   4.182
 9428SOL    HW230182  12.018   4.523   4.061
 9429SOL     OW30183  12.409   3.293   6.685
 9429SOL    HW130184  12.444   3.227   6.746
 9429SOL    HW230185  12.316   3.272   6.679
 9430SOL     OW30186  11.469   0.425  13.536
 9430SOL    HW130187  11.443   0.515  13.551
 9430SOL    HW230188  11.468   0.414  13.441
 9431SOL     OW30189  11.352   9.820  10.469
 9431SOL    HW130190  11.417   9.890  10.467
 9431SOL    HW230191  11.359   9.777  10.384
 9432SOL     OW30192   1.644   9.935   3.306
 9432SOL    HW130193   1.652   9.852   3.258
 9432SOL    HW230194   1.718   9.988   3.275
 9433SOL     OW30195  14.545   3.816  13.333
 9433SOL    HW130196  14.555   3.783  13.243
 9433SOL    HW230197  14.620   3.874  13.345
 9434SOL     OW30198   7.843  11.454   0.335
 9434SOL    HW130199   7.865  11.527   0.276
 9434SOL    HW230200   7.898  11.468   0.412
 9435SOL     OW30201   6.458   0.947  10.730
 9435SOL    HW130202   6.367   0.968  10.708
 9435SOL    HW230203   6.505   1.030  10.721
 9436SOL     OW30204   9.938  14.702  10.230
 9436SOL    HW130205   9.935  14.792  10.200
 9436SOL    HW230206   9.909  14.706  10.321
 9437SOL     OW30207   9.469  12.961   3.046
 9437SOL    HW130208   9.544  12.913   3.083
 9437SOL    HW230209   9.412  12.893   3.011
 9438SOL     OW30210  13.245   6.345   9.594
 9438SOL    HW130211  13.254   6.289   9.517
 9438SOL    HW230212  13.315   6.409   9.586
 9439SOL     OW30213  11.722   1.873   7.880
 9439SOL    HW130214  11.787   1.819   7.924
 9439SOL    HW230215  11.639   1.825   7.892
 9440SOL     OW30216   7.172   8.430   0.953
 9440SOL    HW130217   7.164   8.435   1.048
 9440SOL    HW230218   7.090   8.389   0.925
 9441SOL     OW30219  14.560   1.071  11.215
 9441SOL    HW130220  14.477   1.039  11.181
 9441SOL    HW230221  14.539   1.104  11.303
 9442SOL     OW30222  11.671   4.822  14.008
 9442SOL    HW130223  11.712   4.799  13.924
 9442SOL    HW230224  11.638   4.910  13.994
 9443SOL     OW30225  13.869   2.796  11.765
 9443SOL    HW130226  13.844   2.862  11.700
 9443SOL    HW230227  13.965   2.801  11.768
 9444SOL     OW30228   2.624  10.040   0.302
 9444SOL    HW130229   2.658   9.953   0.280
 9444SOL    HW230230   2.539  10.044   0.260
 9445SOL     OW30231   8.001   3.075   2.271
 9445SOL    HW130232   8.069   3.015   2.300
 9445SOL    HW230233   8.034   3.108   2.187
 9446SOL     OW30234  14.751   7.376   3.940
 9446SOL    HW130235  14.756   7.418   4.026
 9446SOL    HW230236  14.676   7.418   3.898
 9447SOL     OW30237  13.790   4.403  13.668
 9447SOL    HW130238  13.715   4.451  13.633
 9447SOL    HW230239  13.808   4.444  13.753
 9448SOL     OW30240  13.766   3.569   9.742
 9448SOL    HW130241  13.849   3.545   9.700
 9448SOL    HW230242  13.707   3.588   9.669
 9449SOL     OW30243  11.534  10.672   8.339
 9449SOL    HW130244  11.458  10.709   8.383
 9449SOL    HW230245  11.525  10.577   8.350
 9450SOL     OW30246   7.117   2.511  13.165
 9450SOL    HW130247   7.068   2.502  13.246
 9450SOL    HW230248   7.209   2.498  13.191
 9451SOL     OW30249   8.338   7.895  11.562
 9451SOL    HW130250   8.407   7.863  11.505
 9451SOL    HW230251   8.374   7.887  11.650
 9452SOL     OW30252   6.727   4.110  14.222
 9452SOL    HW130253   6.701   4.078  14.136
 9452SOL    HW230254   6.768   4.035  14.265
 9453SOL     OW30255   4.746  10.341  12.023
 9453SOL    HW130256   4.741  10.246  12.037
 9453SOL    HW230257   4.656  10.368  12.005
 9454SOL     OW30258   4.643   6.430   7.132
 9454SOL    HW130259   4.681   6.439   7.044
 9454SOL    HW230260   4.549   6.430   7.117
 9455SOL     OW30261   3.549   0.950  14.878
 9455SOL    HW130262   3.522   0.959  14.787
 9455SOL    HW230263   3.472   0.915   0.043
 9456SOL     OW30264   3.201  12.183   5.377
 9456SOL    HW130265   3.287  12.150   5.353
 9456SOL    HW230266   3.166  12.116   5.436
 9457SOL     OW30267   9.460   8.670  11.691
 9457SOL    HW130268   9.555   8.661  11.698
 9457SOL    HW230269   9.427   8.584  11.718
 9458SOL     OW30270  10.783   8.617   0.856
 9458SOL    HW130271  10.703   8.666   0.875
 9458SOL    HW230272  10.779   8.541   0.914
 9459SOL     OW30273  11.987   8.808   6.874
 9459SOL    HW130274  11.951   8.723   6.850
 9459SOL    HW230275  11.912   8.868   6.872
 9460SOL     OW30276   5.185   5.403   1.679
 9460SOL    HW130277   5.250   5.401   1.750
 9460SOL    HW230278   5.118   5.340   1.707
 9461SOL     OW30279  10.199  11.226   7.413
 9461SOL    HW130280  10.267  11.236   7.480
 9461SOL    HW230281  10.153  11.146   7.436
 9462SOL     OW30282   1.087  11.805  10.678
 9462SOL    HW130283   0.999  11.769  10.672
 9462SOL    HW230284   1.129  11.756  10.749
 9463SOL     OW30285   4.118   7.513   4.286
 9463SOL    HW130286   4.033   7.558   4.286
 9463SOL    HW230287   4.097   7.422   4.308
 9464SOL     OW30288   6.215  13.407   1.361
 9464SOL    HW130289   6.179  13.319   1.372
 9464SOL    HW230290   6.208  13.424   1.267
 9465SOL     OW30291   9.584   6.862   2.650
 9465SOL    HW130292   9.645   6.935   2.636
 9465SOL    HW230293   9.499   6.897   2.623
 9466SOL     OW30294   4.228   8.426  14.544
 9466SOL    HW130295   4.280   8.380  14.610
 9466SOL    HW230296   4.263   8.515  14.545
 9467SOL     OW30297   8.319   1.490  11.448
 9467SOL    HW130298   8.366   1.420  11.494
 9467SOL    HW230299   8.379   1.516  11.378
 9468SOL     OW30300  11.168   3.238   6.418
 9468SOL    HW130301  11.101   3.199   6.474
 9468SOL    HW230302  11.222   3.290   6.478
 9469SOL     OW30303   2.259   1.278   1.494
 9469SOL    HW130304   2.312   1.245   1.568
 9469SOL    HW230305   2.185   1.218   1.490
 9470SOL     OW30306   0.510   1.926   0.851
 9470SOL    HW130307   0.506   1.985   0.776
 9470SOL    HW230308   0.432   1.872   0.843
 9471SOL     OW30309   3.505  12.485   1.616
 9471SOL    HW130310   3.497  12.399   1.574
 9471SOL    HW230311   3.444  12.480   1.690
 9472SOL     OW30312   7.041   3.785  14.567
 9472SOL    HW130313   7.044   3.782  14.663
 9472SOL    HW230314   6.952   3.756  14.545
 9473SOL     OW30315  11.018   0.803  14.720
 9473SOL    HW130316  11.006   0.765  14.633
 9473SOL    HW230317  11.112   0.795  14.737
 9474SOL     OW30318  13.565  12.385  10.441
 9474SOL    HW130319  13.532  12.353  10.357
 9474SOL    HW230320  13.486  12.394  10.496
 9475SOL     OW30321   0.387   9.306  13.819
 9475SOL    HW130322   0.340   9.371  13.767
 9475SOL    HW230323   0.410   9.237  13.757
 9476SOL     OW30324   4.083   8.590   6.562
 9476SOL    HW130325   4.062   8.545   6.480
 9476SOL    HW230326   4.002   8.584   6.614
 9477SOL     OW30327  13.168   9.690  11.662
 9477SOL    HW130328  13.226   9.691  11.586
 9477SOL    HW230329  13.227   9.674  11.736
 9478SOL     OW30330   2.771   5.252  11.954
 9478SOL    HW130331   2.772   5.211  11.868
 9478SOL    HW230332   2.863   5.269  11.973
 9479SOL     OW30333   2.438   2.549   9.927
 9479SOL    HW130334   2.398   2.468   9.958
 9479SOL    HW230335   2.530   2.528   9.917
 9480SOL     OW30336   6.859   5.389   1.790
 9480SOL    HW130337   6.946   5.401   1.830
 9480SOL    HW230338   6.841   5.295   1.801
 9481SOL     OW30339   5.387   8.614   0.724
 9481SOL    HW130340   5.479   8.600   0.748
 9481SOL    HW230341   5.363   8.697   0.766
 9482SOL     OW30342   8.509   4.705   1.575
 9482SOL    HW130343   8.567   4.689   1.501
 9482SOL    HW230344   8.425   4.668   1.548
 9483SOL     OW30345  11.947  14.213   9.103
 9483SOL    HW130346  11.921  14.237   9.192
 9483SOL    HW230347  12.013  14.278   9.080
 9484SOL     OW30348   1.334  12.877  13.227
 9484SOL    HW130349   1.417  12.890  13.181
 9484SOL    HW230350   1.282  12.954  13.207
 9485SOL     OW30351   9.818  13.071  13.257
 9485SOL    HW130352   9.734  13.115  13.264
 9485SOL    HW230353   9.836  13.069  13.163
 9486SOL     OW30354   3.804   6.617   6.185
 9486SOL    HW130355   3.761   6.532   6.181
 9486SOL    HW230356   3.741   6.674   6.228
 9487SOL     OW30357   4.623   7.101  11.012
 9487SOL    HW130358   4.631   7.056  11.097
 9487SOL    HW230359   4.558   7.169  11.028
 9488SOL     OW30360   6.186  14.670  13.147
 9488SOL    HW130361   6.128  14.620  13.205
 9488SOL    HW230362   6.169  14.635  13.060
 9489SOL     OW30363   3.142   9.850   5.466
 9489SOL    HW130364   3.233   9.820   5.470
 9489SOL    HW230365   3.147   9.935   5.421
 9490SOL     OW30366   9.163   0.698  12.100
 9490SOL    HW130367   9.080   0.730  12.134
 9490SOL    HW230368   9.140   0.654  12.018
 9491SOL     OW30369   4.855   2.234   4.221
 9491SOL    HW130370   4.777   2.189   4.253
 9491SOL    HW230371   4.923   2.211   4.283
 9492SOL     OW30372   4.384   9.329  12.622
 9492SOL    HW130373   4.345   9.269  12.685
 9492SOL    HW230374   4.445   9.382  12.672
 9493SOL     OW30375   3.114   8.036   4.025
 9493SOL    HW130376   3.064   8.118   4.033
 9493SOL    HW230377   3.178   8.040   4.096
 9494SOL     OW30378  12.051  14.005   6.697
 9494SOL    HW130379  12.067  14.040   6.784
 9494SOL    HW230380  11.964  13.965   6.703
 9495SOL     OW30381  11.253   2.290  13.925
 9495SOL    HW130382  11.225   2.359  13.865
 9495SOL    HW230383  11.197   2.302  14.002
 9496SOL     OW30384   9.571  10.470  10.426
 9496SOL    HW130385   9.640  10.524  10.389
 9496SOL    HW230386   9.506  10.532  10.458
 9497SOL     OW30387  10.681   7.927   6.237
 9497SOL    HW130388  10.615   7.903   6.172
 9497SOL    HW230389  10.673   8.022   6.246
 9498SOL     OW30390   9.386   2.494   5.356
 9498SOL    HW130391   9.317   2.492   5.422
 9498SOL    HW230392   9.366   2.571   5.303
 9499SOL     OW30393  12.561   3.785  10.807
 9499SOL    HW130394  12.599   3.795  10.720
 9499SOL    HW230395  12.470   3.814  10.797
 9500SOL     OW30396  11.099  10.376   0.215
 9500SOL    HW130397  11.167  10.335   0.162
 9500SOL    HW230398  11.142  10.453   0.253
 9501SOL     OW30399   7.813  11.004  13.292
 9501SOL    HW130400   7.761  10.929  13.321
 9501SOL    HW230401   7.770  11.034  13.212
 9502SOL     OW30402   1.469   9.489   4.757
 9502SOL    HW130403   1.515   9.441   4.689
 9502SOL    HW230404   1.470   9.431   4.833
 9503SOL     OW30405  10.366  10.454   3.267
 9503SOL    HW130406  10.319  10.505   3.333
 9503SOL    HW230407  10.360  10.363   3.296
 9504SOL     OW30408  11.538  14.139  11.418
 9504SOL    HW130409  11.505  14.175  11.336
 9504SOL    HW230410  11.496  14.191  11.486
 9505SOL     OW30411   3.269   1.397   1.960
 9505SOL    HW130412   3.302   1.458   2.026
 9505SOL    HW230413   3.206   1.342   2.007
 9506SOL     OW30414  11.534  14.474   5.172
 9506SOL    HW130415  11.583  14.524   5.107
 9506SOL    HW230416  11.550  14.383   5.150
 9507SOL     OW30417   5.704   8.723   4.500
 9507SOL    HW130418   5.753   8.805   4.505
 9507SOL    HW230419   5.613   8.750   4.486
 9508SOL     OW30420  12.365  10.831  10.598
 9508SOL    HW130421  12.409  10.901  10.646
 9508SOL    HW230422  12.387  10.751  10.646
 9509SOL     OW30423   8.843   3.193  12.625
 9509SOL    HW130424   8.749   3.203  12.638
 9509SOL    HW230425   8.854   3.178  12.531
 9510SOL     OW30426  11.148   2.705   2.258
 9510SOL    HW130427  11.164   2.752   2.176
 9510SOL    HW230428  11.159   2.612   2.235
 9511SOL     OW30429   3.074  14.857   1.743
 9511SOL    HW130430   2.984  14.846   1.714
 9511SOL    HW230431   3.078  14.816   1.829
 9512SOL     OW30432  12.284  13.888  10.646
 9512SOL    HW130433  12.218  13.837  10.600
 9512SOL    HW230434  12.347  13.823  10.678
 9513SOL     OW30435   1.905   4.427  13.959
 9513SOL    HW130436   1.853   4.506  13.950
 9513SOL    HW230437   1.948   4.416  13.874
 9514SOL     OW30438   6.587  10.951   5.172
 9514SOL    HW130439   6.587  11.040   5.209
 9514SOL    HW230440   6.663  10.949   5.115
 9515SOL     OW30441  12.285   0.255  14.413
 9515SOL    HW130442  12.284   0.160  14.426
 9515SOL    HW230443  12.270   0.291  14.501
 9516SOL     OW30444  11.062   9.378   2.250
 9516SOL    HW130445  11.057   9.458   2.302
 9516SOL    HW230446  11.098   9.312   2.309
 9517SOL     OW30447  11.963  10.891   6.323
 9517SOL    HW130448  12.026  10.837   6.370
 9517SOL    HW230449  11.900  10.919   6.390
 9518SOL     OW30450   4.667   1.548  12.180
 9518SOL    HW130451   4.751   1.565  12.139
 9518SOL    HW230452   4.610   1.521  12.108
 9519SOL     OW30453  11.060  10.184   3.011
 9519SOL    HW130454  11.144  10.152   3.043
 9519SOL    HW230455  11.010  10.205   3.090
 9520SOL     OW30456  13.300  13.068   1.177
 9520SOL    HW130457  13.303  13.053   1.083
 9520SOL    HW230458  13.390  13.091   1.201
 9521SOL     OW30459  11.430  13.387  12.732
 9521SOL    HW130460  11.415  13.479  12.753
 9521SOL    HW230461  11.418  13.340  12.815
 9522SOL     OW30462  13.229   1.044   7.913
 9522SOL    HW130463  13.243   1.106   7.985
 9522SOL    HW230464  13.202   1.098   7.839
 9523SOL     OW30465  13.266   3.531   7.174
 9523SOL    HW130466  13.318   3.451   7.167
 9523SOL    HW230467  13.189   3.515   7.119
 9524SOL     OW30468  13.501  14.103   2.578
 9524SOL    HW130469  13.593  14.113   2.555
 9524SOL    HW230470  13.464  14.191   2.567
 9525SOL     OW30471  11.578   8.749   1.791
 9525SOL    HW130472  11.628   8.707   1.721
 9525SOL    HW230473  11.493   8.705   1.790
 9526SOL     OW30474  14.610   2.720   3.772
 9526SOL    HW130475  14.553   2.762   3.707
 9526SOL    HW230476  14.617   2.629   3.742
 9527SOL     OW30477   7.048   4.861  13.560
 9527SOL    HW130478   6.959   4.876  13.591
 9527SOL    HW230479   7.039   4.799  13.488
 9528SOL     OW30480   4.513  13.702  12.516
 9528SOL    HW130481   4.587  13.650  12.483
 9528SOL    HW230482   4.490  13.661  12.599
 9529SOL     OW30483   7.178   0.358   9.852
 9529SOL    HW130484   7.110   0.312   9.901
 9529SOL    HW230485   7.249   0.369   9.915
 9530SOL     OW30486   8.360   3.077   6.065
 9530SOL    HW130487   8.410   3.156   6.085
 9530SOL    HW230488   8.399   3.009   6.119
 9531SOL     OW30489   4.541   1.023  12.197
 9531SOL    HW130490   4.571   1.112  12.217
 9531SOL    HW230491   4.620   0.978  12.166
 9532SOL     OW30492  13.270   1.670   8.763
 9532SOL    HW130493  13.290   1.636   8.850
 9532SOL    HW230494  13.183   1.709   8.771
 9533SOL     OW30495   6.623   8.555   9.108
 9533SOL    HW130496   6.709   8.521   9.132
 9533SOL    HW230497   6.623   8.555   9.012
 9534SOL     OW30498   4.992   2.039   3.070
 9534SOL    HW130499   5.017   2.109   3.131
 9534SOL    HW230500   5.029   2.066   2.986
 9535SOL     OW30501   0.446   4.764   9.076
 9535SOL    HW130502   0.524   4.818   9.091
 9535SOL    HW230503   0.447   4.746   8.982
 9536SOL     OW30504  12.188  11.319   4.421
 9536SOL    HW130505  12.278  11.296   4.444
 9536SOL    HW230506  12.189  11.414   4.410
 9537SOL     OW30507  14.791   2.843   5.606
 9537SOL    HW130508  14.764   2.932   5.584
 9537SOL    HW230509   0.007   2.849   5.614
 9538SOL     OW30510   0.219   6.901  13.081
 9538SOL    HW130511   0.276   6.910  13.005
 9538SOL    HW230512   0.150   6.965  13.067
 9539SOL     OW30513   7.353   9.388   8.450
 9539SOL    HW130514   7.365   9.321   8.383
 9539SOL    HW230515   7.388   9.468   8.411
 9540SOL     OW30516  12.683   7.256   1.654
 9540SOL    HW130517  12.775   7.243   1.677
 9540SOL    HW230518  12.671   7.351   1.657
 9541SOL     OW30519   5.764   8.490  13.796
 9541SOL    HW130520   5.759   8.400  13.828
 9541SOL    HW230521   5.843   8.526  13.838
 9542SOL     OW30522   1.402   4.658   7.578
 9542SOL    HW130523   1.459   4.649   7.501
 9542SOL    HW230524   1.352   4.577   7.580
 9543SOL     OW30525   6.263   6.402   7.666
 9543SOL    HW130526   6.275   6.312   7.637
 9543SOL    HW230527   6.177   6.402   7.709
 9544SOL     OW30528   0.210  12.114   7.958
 9544SOL    HW130529   0.294  12.139   7.920
 9544SOL    HW230530   0.166  12.197   7.975
 9545SOL     OW30531   8.544  11.434   3.060
 9545SOL    HW130532   8.522  11.425   2.968
 9545SOL    HW230533   8.515  11.352   3.100
 9546SOL     OW30534  13.722   1.001   2.754
 9546SOL    HW130535  13.629   0.995   2.777
 9546SOL    HW230536  13.761   0.923   2.791
 9547SOL     OW30537   3.114   8.440  13.822
 9547SOL    HW130538   3.110   8.528  13.784
 9547SOL    HW230539   3.039   8.395  13.785
 9548SOL     OW30540   6.088   2.954   5.656
 9548SOL    HW130541   6.088   2.891   5.728
 9548SOL    HW230542   6.009   2.933   5.606
 9549SOL     OW30543   5.512  12.355   4.581
 9549SOL    HW130544   5.437  12.326   4.632
 9549SOL    HW230545   5.587  12.311   4.621
 9550SOL     OW30546   1.773   9.936   0.061
 9550SOL    HW130547   1.848   9.889   0.025
 9550SOL    HW230548   1.725   9.968  14.865
 9551SOL     OW30549   0.614  12.790   8.028
 9551SOL    HW130550   0.619  12.859   8.094
 9551SOL    HW230551   0.624  12.836   7.945
 9552SOL     OW30552   7.027  14.735   5.400
 9552SOL    HW130553   6.969  14.718   5.325
 9552SOL    HW230554   7.113  14.748   5.361
 9553SOL     OW30555   3.607  13.660   6.216
 9553SOL    HW130556   3.636  13.701   6.297
 9553SOL    HW230557   3.544  13.722   6.179
 9554SOL     OW30558   5.290   1.793  11.734
 9554SOL    HW130559   5.237   1.774  11.657
 9554SOL    HW230560   5.352   1.860  11.705
 9555SOL     OW30561   3.479   8.422   4.381
 9555SOL    HW130562   3.476   8.328   4.366
 9555SOL    HW230563   3.389   8.446   4.404
 9556SOL     OW30564   0.567   9.994   8.102
 9556SOL    HW130565   0.515   9.938   8.045
 9556SOL    HW230566   0.505  10.025   8.168
 9557SOL     OW30567  13.700   9.912   3.301
 9557SOL    HW130568  13.742   9.828   3.317
 9557SOL    HW230569  13.714   9.962   3.382
 9558SOL     OW30570   6.010   0.837   5.805
 9558SOL    HW130571   6.084   0.842   5.745
 9558SOL    HW230572   6.041   0.878   5.885
 9559SOL     OW30573   2.327   8.769   0.172
 9559SOL    HW130574   2.277   8.789   0.252
 9559SOL    HW230575   2.419   8.775   0.198
 9560SOL     OW30576   3.608  12.008   7.992
 9560SOL    HW130577   3.638  12.031   7.904
 9560SOL    HW230578   3.626  12.086   8.045
 9561SOL     OW30579   2.346   4.416  11.653
 9561SOL    HW130580   2.320   4.372  11.573
 9561SOL    HW230581   2.264   4.441  11.695
 9562SOL     OW30582   5.136   1.757  10.164
 9562SOL    HW130583   5.229   1.749  10.147
 9562SOL    HW230584   5.124   1.848  10.193
 9563SOL     OW30585  13.133   8.985   1.923
 9563SOL    HW130586  13.210   8.968   1.868
 9563SOL    HW230587  13.147   9.074   1.956
 9564SOL     OW30588   8.929   5.984  13.384
 9564SOL    HW130589   8.905   6.077  13.381
 9564SOL    HW230590   8.932   5.964  13.477
 9565SOL     OW30591   2.579  10.861   9.774
 9565SOL    HW130592   2.664  10.878   9.814
 9565SOL    HW230593   2.553  10.944   9.735
 9566SOL     OW30594   5.875  12.661   7.311
 9566SOL    HW130595   5.872  12.584   7.368
 9566SOL    HW230596   5.807  12.719   7.345
 9567SOL     OW30597   9.964  10.142   0.163
 9567SOL    HW130598   9.985  10.192   0.084
 9567SOL    HW230599  10.050  10.112   0.195
 9568SOL     OW30600  12.377  10.609  13.310
 9568SOL    HW130601  12.305  10.630  13.370
 9568SOL    HW230602  12.456  10.633  13.358
 9569SOL     OW30603  14.089   2.054   5.156
 9569SOL    HW130604  14.055   1.966   5.169
 9569SOL    HW230605  14.184   2.042   5.151
 9570SOL     OW30606   7.485   7.900   2.854
 9570SOL    HW130607   7.453   7.968   2.795
 9570SOL    HW230608   7.580   7.907   2.851
 9571SOL     OW30609   4.220  12.961   2.856
 9571SOL    HW130610   4.204  13.039   2.802
 9571SOL    HW230611   4.154  12.898   2.827
 9572SOL     OW30612   2.296  13.890  13.050
 9572SOL    HW130613   2.254  13.969  13.085
 9572SOL    HW230614   2.375  13.922  13.007
 9573SOL     OW30615  10.978   5.409  13.176
 9573SOL    HW130616  11.040   5.339  13.156
 9573SOL    HW230617  10.953   5.444  13.090
 9574SOL     OW30618   7.238   0.938   9.457
 9574SOL    HW130619   7.156   0.986   9.469
 9574SOL    HW230620   7.229   0.899   9.370
 9575SOL     OW30621  10.296   7.691   0.824
 9575SOL    HW130622  10.339   7.637   0.890
 9575SOL    HW230623  10.203   7.671   0.832
 9576SOL     OW30624  12.875   0.892   3.002
 9576SOL    HW130625  12.832   0.978   3.004
 9576SOL    HW230626  12.955   0.907   2.952
 9577SOL     OW30627   6.466  13.212  12.198
 9577SOL    HW130628   6.397  13.151  12.172
 9577SOL    HW230629   6.470  13.206  12.293
 9578SOL     OW30630  13.386   9.106   0.365
 9578SOL    HW130631  13.439   9.063   0.431
 9578SOL    HW230632  13.297   9.104   0.401
 9579SOL     OW30633   2.063  10.085  11.202
 9579SOL    HW130634   2.018  10.162  11.238
 9579SOL    HW230635   2.156  10.102  11.220
 9580SOL     OW30636  12.034   3.470   5.447
 9580SOL    HW130637  11.940   3.459   5.431
 9580SOL    HW230638  12.044   3.563   5.467
 9581SOL     OW30639   1.076  12.195  11.279
 9581SOL    HW130640   1.136  12.263  11.309
 9581SOL    HW230641   1.132  12.128  11.241
 9582SOL     OW30642   3.331   9.670   0.544
 9582SOL    HW130643   3.252   9.688   0.493
 9582SOL    HW230644   3.403   9.696   0.487
 9583SOL     OW30645   8.211  10.227  12.072
 9583SOL    HW130646   8.203  10.160  12.140
 9583SOL    HW230647   8.234  10.178  11.993
 9584SOL     OW30648   1.419  14.718  13.707
 9584SOL    HW130649   1.499  14.684  13.749
 9584SOL    HW230650   1.375  14.640  13.674
 9585SOL     OW30651   0.994   3.617   0.969
 9585SOL    HW130652   0.976   3.606   0.876
 9585SOL    HW230653   1.088   3.599   0.978
 9586SOL     OW30654   3.444   8.572   9.381
 9586SOL    HW130655   3.491   8.545   9.460
 9586SOL    HW230656   3.360   8.605   9.412
 9587SOL     OW30657   3.509   9.781  12.252
 9587SOL    HW130658   3.481   9.736  12.172
 9587SOL    HW230659   3.435   9.837  12.275
 9588SOL     OW30660   1.448   0.830   1.576
 9588SOL    HW130661   1.387   0.853   1.646
 9588SOL    HW230662   1.527   0.799   1.622
 9589SOL     OW30663   7.396   1.779   9.440
 9589SOL    HW130664   7.358   1.695   9.414
 9589SOL    HW230665   7.466   1.794   9.377
 9590SOL     OW30666   5.991  11.185  10.025
 9590SOL    HW130667   6.078  11.169   9.989
 9590SOL    HW230668   5.961  11.265   9.982
 9591SOL     OW30669   2.426   3.384   1.757
 9591SOL    HW130670   2.369   3.403   1.832
 9591SOL    HW230671   2.478   3.463   1.745
 9592SOL     OW30672  12.778   6.694  11.583
 9592SOL    HW130673  12.847   6.644  11.626
 9592SOL    HW230674  12.785   6.671  11.491
 9593SOL     OW30675  12.135   1.556   7.337
 9593SOL    HW130676  12.067   1.503   7.295
 9593SOL    HW230677  12.092   1.593   7.414
 9594SOL     OW30678   4.672  12.358  12.113
 9594SOL    HW130679   4.675  12.263  12.118
 9594SOL    HW230680   4.758  12.386  12.145
 9595SOL     OW30681  12.150   2.678  13.227
 9595SOL    HW130682  12.220   2.623  13.193
 9595SOL    HW230683  12.084   2.616  13.259
 9596SOL     OW30684  10.141   5.570   8.079
 9596SOL    HW130685  10.137   5.666   8.086
 9596SOL    HW230686  10.188   5.554   7.997
 9597SOL     OW30687  13.076   9.375  12.252
 9597SOL    HW130688  13.059   9.290  12.291
 9597SOL    HW230689  13.171   9.376  12.236
 9598SOL     OW30690   8.408  11.079   4.932
 9598SOL    HW130691   8.314  11.098   4.930
 9598SOL    HW230692   8.413  10.983   4.927
 9599SOL     OW30693  11.917   5.758  12.526
 9599SOL    HW130694  11.852   5.813  12.483
 9599SOL    HW230695  11.948   5.811  12.599
 9600SOL     OW30696   4.684   2.577  10.066
 9600SOL    HW130697   4.701   2.654  10.119
 9600SOL    HW230698   4.765   2.564  10.016
 9601SOL     OW30699  11.036  14.718  11.433
 9601SOL    HW130700  11.057  14.626  11.447
 9601SOL    HW230701  11.009  14.750  11.519
 9602SOL     OW30702   6.637   1.471   9.714
 9602SOL    HW130703   6.637   1.387   9.669
 9602SOL    HW230704   6.558   1.470   9.768
 9603SOL     OW30705   0.056   0.157  10.845
 9603SOL    HW130706   0.107   0.077  10.857
 9603SOL    HW230707   0.113   0.215  10.796
 9604SOL     OW30708   2.670   5.314   0.746
 9604SOL    HW130709   2.604   5.290   0.680
 9604SOL    HW230710   2.688   5.407   0.728
 9605SOL     OW30711   3.722   5.501   3.984
 9605SOL    HW130712   3.717   5.549   3.901
 9605SOL    HW230713   3.799   5.446   3.976
 9606SOL     OW30714   0.142   8.936  11.587
 9606SOL    HW130715   0.183   8.889  11.514
 9606SOL    HW230716   0.210   8.997  11.618
 9607SOL     OW30717  10.401   1.129   9.526
 9607SOL    HW130718  10.463   1.179   9.578
 9607SOL    HW230719  10.330   1.191   9.506
 9608SOL     OW30720   7.017   9.927   0.828
 9608SOL    HW130721   7.014   9.871   0.750
 9608SOL    HW230722   7.096   9.980   0.817
 9609SOL     OW30723   2.025  11.607   4.500
 9609SOL    HW130724   1.930  11.609   4.485
 9609SOL    HW230725   2.063  11.642   4.419
 9610SOL     OW30726   1.128   0.167   1.908
 9610SOL    HW130727   1.197   0.124   1.960
 9610SOL    HW230728   1.052   0.169   1.967
 9611SOL     OW30729   2.373   3.397   4.224
 9611SOL    HW130730   2.280   3.376   4.233
 9611SOL    HW230731   2.406   3.333   4.161
 9612SOL     OW30732   7.630   7.947   4.400
 9612SOL    HW130733   7.706   7.912   4.447
 9612SOL    HW230734   7.625   7.895   4.320
 9613SOL     OW30735   4.354   7.028   7.863
 9613SOL    HW130736   4.278   7.077   7.835
 9613SOL    HW230737   4.372   6.967   7.791
 9614SOL     OW30738  11.244  11.652  10.987
 9614SOL    HW130739  11.275  11.734  10.948
 9614SOL    HW230740  11.186  11.615  10.920
 9615SOL     OW30741   2.758  11.322  13.815
 9615SOL    HW130742   2.730  11.379  13.887
 9615SOL    HW230743   2.709  11.241  13.828
 9616SOL     OW30744  11.375   8.478   3.647
 9616SOL    HW130745  11.304   8.432   3.602
 9616SOL    HW230746  11.401   8.547   3.586
 9617SOL     OW30747   7.085   2.931  11.000
 9617SOL    HW130748   7.121   3.019  10.987
 9617SOL    HW230749   7.061   2.901  10.913
 9618SOL     OW30750   0.225   3.586   8.189
 9618SOL    HW130751   0.302   3.624   8.232
 9618SOL    HW230752   0.211   3.639   8.111
 9619SOL     OW30753  13.516  12.771  10.064
 9619SOL    HW130754  13.490  12.679  10.064
 9619SOL    HW230755  13.442  12.816  10.104
 9620SOL     OW30756   1.656  13.644   8.407
 9620SOL    HW130757   1.735  13.593   8.387
 9620SOL    HW230758   1.686  13.709   8.471
 9621SOL     OW30759   7.909   5.980   3.734
 9621SOL    HW130760   8.002   5.964   3.722
 9621SOL    HW230761   7.900   6.075   3.737
 9622SOL     OW30762   1.235   2.568  12.482
 9622SOL    HW130763   1.302   2.610  12.428
 9622SOL    HW230764   1.221   2.482  12.442
 9623SOL     OW30765   8.103   1.201   1.019
 9623SOL    HW130766   8.041   1.221   0.949
 9623SOL    HW230767   8.111   1.106   1.019
 9624SOL     OW30768   0.786  13.947   6.631
 9624SOL    HW130769   0.810  14.006   6.560
 9624SOL    HW230770   0.867  13.901   6.652
 9625SOL     OW30771   3.850   4.321   0.697
 9625SOL    HW130772   3.795   4.383   0.649
 9625SOL    HW230773   3.800   4.239   0.697
 9626SOL     OW30774   2.573   8.057   8.309
 9626SOL    HW130775   2.529   7.997   8.248
 9626SOL    HW230776   2.587   8.136   8.257
 9627SOL     OW30777  11.772  14.024   0.527
 9627SOL    HW130778  11.731  13.953   0.577
 9627SOL    HW230779  11.794  14.090   0.593
 9628SOL     OW30780   7.615  13.200   7.775
 9628SOL    HW130781   7.602  13.141   7.701
 9628SOL    HW230782   7.584  13.150   7.850
 9629SOL     OW30783   6.722   7.423   2.395
 9629SOL    HW130784   6.789   7.426   2.463
 9629SOL    HW230785   6.747   7.350   2.339
 9630SOL     OW30786   7.493  11.758   2.045
 9630SOL    HW130787   7.449  11.774   1.962
 9630SOL    HW230788   7.538  11.840   2.066
 9631SOL     OW30789   0.117   3.401   7.587
 9631SOL    HW130790   0.193   3.437   7.633
 9631SOL    HW230791   0.048   3.465   7.599
 9632SOL     OW30792   1.837   6.880  14.288
 9632SOL    HW130793   1.757   6.838  14.256
 9632SOL    HW230794   1.894   6.807  14.312
 9633SOL     OW30795   0.721   4.068  14.192
 9633SOL    HW130796   0.742   4.121  14.269
 9633SOL    HW230797   0.748   3.980  14.214
 9634SOL     OW30798  10.776  14.112   2.386
 9634SOL    HW130799  10.753  14.058   2.462
 9634SOL    HW230800  10.852  14.069   2.348
 9635SOL     OW30801  12.911   5.680   8.016
 9635SOL    HW130802  12.985   5.639   7.970
 9635SOL    HW230803  12.926   5.774   8.006
 9636SOL     OW30804  12.711   4.586   1.773
 9636SOL    HW130805  12.765   4.648   1.724
 9636SOL    HW230806  12.680   4.636   1.849
 9637SOL     OW30807   9.562   0.656   8.081
 9637SOL    HW130808   9.588   0.728   8.023
 9637SOL    HW230809   9.583   0.577   8.031
 9638SOL     OW30810   6.812   4.864   4.529
 9638SOL    HW130811   6.737   4.810   4.555
 9638SOL    HW230812   6.772   4.947   4.502
 9639SOL     OW30813   1.961  12.399   9.112
 9639SOL    HW130814   1.871  12.385   9.143
 9639SOL    HW230815   1.985  12.485   9.145
 9640SOL     OW30816   8.502  13.159   2.398
 9640SOL    HW130817   8.547  13.219   2.458
 9640SOL    HW230818   8.414  13.150   2.436
 9641SOL     OW30819   0.703  11.760  12.360
 9641SOL    HW130820   0.767  11.810  12.309
 9641SOL    HW230821   0.659  11.704  12.295
 9642SOL     OW30822   4.347   1.631  11.761
 9642SOL    HW130823   4.406   1.633  11.685
 9642SOL    HW230824   4.404   1.647  11.836
 9643SOL     OW30825   3.187  13.472  11.120
 9643SOL    HW130826   3.213  13.397  11.173
 9643SOL    HW230827   3.097  13.452  11.094
 9644SOL     OW30828  11.266  14.428   0.762
 9644SOL    HW130829  11.345  14.394   0.804
 9644SOL    HW230830  11.207  14.450   0.834
 9645SOL     OW30831   2.235   9.307   9.658
 9645SOL    HW130832   2.274   9.233   9.705
 9645SOL    HW230833   2.164   9.268   9.608
 9646SOL     OW30834   0.213   6.080  14.765
 9646SOL    HW130835   0.210   6.163  14.718
 9646SOL    HW230836   0.259   6.100  14.847
 9647SOL     OW30837  11.129  11.759   2.128
 9647SOL    HW130838  11.222  11.770   2.144
 9647SOL    HW230839  11.091  11.845   2.146
 9648SOL     OW30840   6.843  10.652  14.562
 9648SOL    HW130841   6.789  10.611  14.629
 9648SOL    HW230842   6.860  10.582  14.498
 9649SOL     OW30843   0.482   7.810   4.640
 9649SOL    HW130844   0.429   7.761   4.577
 9649SOL    HW230845   0.484   7.756   4.718
 9650SOL     OW30846  10.668   7.038   2.824
 9650SOL    HW130847  10.677   6.972   2.893
 9650SOL    HW230848  10.625   7.112   2.867
 9651SOL     OW30849   9.438  12.446  13.823
 9651SOL    HW130850   9.494  12.375  13.855
 9651SOL    HW230851   9.366  12.401  13.778
 9652SOL     OW30852   8.134   2.979   0.285
 9652SOL    HW130853   8.083   2.957   0.363
 9652SOL    HW230854   8.150   3.073   0.292
 9653SOL     OW30855   5.021   4.938   9.123
 9653SOL    HW130856   4.949   4.984   9.167
 9653SOL    HW230857   5.046   4.996   9.051
 9654SOL     OW30858  13.477   9.061   8.535
 9654SOL    HW130859  13.386   9.034   8.525
 9654SOL    HW230860  13.473   9.156   8.546
 9655SOL     OW30861  12.955  11.596   1.614
 9655SOL    HW130862  12.881  11.535   1.614
 9655SOL    HW230863  12.926  11.668   1.671
 9656SOL     OW30864  11.293   0.749   9.093
 9656SOL    HW130865  11.288   0.834   9.048
 9656SOL    HW230866  11.387   0.733   9.103
 9657SOL     OW30867   0.209  12.331  13.290
 9657SOL    HW130868   0.221  12.422  13.262
 9657SOL    HW230869   0.295  12.291  13.281
 9658SOL     OW30870   4.456   8.188   0.744
 9658SOL    HW130871   4.499   8.271   0.765
 9658SOL    HW230872   4.366   8.199   0.776
 9659SOL     OW30873  12.095  10.116   1.104
 9659SOL    HW130874  12.159  10.048   1.125
 9659SOL    HW230875  12.013  10.084   1.142
 9660SOL     OW30876   7.289  13.625  10.463
 9660SOL    HW130877   7.337  13.593  10.387
 9660SOL    HW230878   7.201  13.645  10.429
 9661SOL     OW30879   1.370   6.878  13.734
 9661SOL    HW130880   1.362   6.967  13.768
 9661SOL    HW230881   1.281   6.843  13.736
 9662SOL     OW30882   9.484   8.855   5.967
 9662SOL    HW130883   9.575   8.882   5.955
 9662SOL    HW230884   9.434   8.936   5.962
 9663SOL     OW30885   2.498  11.091   6.630
 9663SOL    HW130886   2.516  11.165   6.689
 9663SOL    HW230887   2.488  11.132   6.544
 9664SOL     OW30888   2.526  11.735  12.658
 9664SOL    HW130889   2.567  11.657  12.696
 9664SOL    HW230890   2.477  11.774  12.731
 9665SOL     OW30891   2.802   5.793  11.049
 9665SOL    HW130892   2.755   5.865  11.089
 9665SOL    HW230893   2.754   5.715  11.074
 9666SOL     OW30894   1.689  14.646   3.538
 9666SOL    HW130895   1.624  14.631   3.606
 9666SOL    HW230896   1.773  14.643   3.583
 9667SOL     OW30897   7.910   5.244   2.325
 9667SOL    HW130898   7.979   5.278   2.268
 9667SOL    HW230899   7.852   5.195   2.266
 9668SOL     OW30900  12.517  10.555   1.093
 9668SOL    HW130901  12.454  10.500   1.141
 9668SOL    HW230902  12.490  10.645   1.113
 9669SOL     OW30903   5.719   9.001  11.882
 9669SOL    HW130904   5.665   9.022  11.805
 9669SOL    HW230905   5.754   8.914  11.864
 9670SOL     OW30906  11.050   5.002   8.195
 9670SOL    HW130907  11.145   5.005   8.186
 9670SOL    HW230908  11.018   5.054   8.121
 9671SOL     OW30909   8.144   0.579  10.167
 9671SOL    HW130910   8.054   0.547  10.169
 9671SOL    HW230911   8.196   0.502  10.142
 9672SOL     OW30912   6.220   1.106   8.639
 9672SOL    HW130913   6.284   1.081   8.706
 9672SOL    HW230914   6.191   1.023   8.601
 9673SOL     OW30915   4.520  12.657   1.294
 9673SOL    HW130916   4.531  12.651   1.389
 9673SOL    HW230917   4.557  12.742   1.270
 9674SOL     OW30918  13.957  11.205   6.217
 9674SOL    HW130919  13.958  11.110   6.229
 9674SOL    HW230920  14.023  11.238   6.278
 9675SOL     OW30921  10.606   5.797   9.896
 9675SOL    HW130922  10.541   5.730   9.917
 9675SOL    HW230923  10.559   5.860   9.842
 9676SOL     OW30924  14.260   7.848  10.596
 9676SOL    HW130925  14.259   7.943  10.588
 9676SOL    HW230926  14.332   7.819  10.540
 9677SOL     OW30927   9.056   5.019   9.723
 9677SOL    HW130928   9.028   4.943   9.776
 9677SOL    HW230929   9.150   5.006   9.710
 9678SOL     OW30930  14.218  14.049  10.802
 9678SOL    HW130931  14.246  14.091  10.721
 9678SOL    HW230932  14.296  14.006  10.836
 9679SOL     OW30933   0.362   7.353   9.766
 9679SOL    HW130934   0.423   7.410   9.811
 9679SOL    HW230935   0.385   7.265   9.795
 9680SOL     OW30936   8.622  12.927   2.315
 9680SOL    HW130937   8.546  12.917   2.372
 9680SOL    HW230938   8.654  13.015   2.333
 9681SOL     OW30939   9.402   7.268  11.665
 9681SOL    HW130940   9.451   7.319  11.600
 9681SOL    HW230941   9.467   7.241  11.729
 9682SOL     OW30942  10.408   0.456   9.349
 9682SOL    HW130943  10.343   0.490   9.287
 9682SOL    HW230944  10.387   0.363   9.357
 9683SOL     OW30945  12.009   6.986   6.152
 9683SOL    HW130946  11.967   6.929   6.218
 9683SOL    HW230947  12.004   6.936   6.071
 9684SOL     OW30948   2.200  11.220   1.549
 9684SOL    HW130949   2.180  11.289   1.612
 9684SOL    HW230950   2.168  11.139   1.591
 9685SOL     OW30951   2.554  14.677   5.820
 9685SOL    HW130952   2.591  14.682   5.731
 9685SOL    HW230953   2.477  14.621   5.811
 9686SOL     OW30954   4.727  10.076  12.023
 9686SOL    HW130955   4.703  10.027  11.944
 9686SOL    HW230956   4.726  10.011  12.093
 9687SOL     OW30957   4.841   2.991   0.350
 9687SOL    HW130958   4.936   2.991   0.353
 9687SOL    HW230959   4.814   2.960   0.436
 9688SOL     OW30960   3.370   7.736   0.454
 9688SOL    HW130961   3.402   7.706   0.539
 9688SOL    HW230962   3.445   7.726   0.395
 9689SOL     OW30963   0.728  13.235   9.614
 9689SOL    HW130964   0.766  13.323   9.611
 9689SOL    HW230965   0.665  13.239   9.685
 9690SOL     OW30966  13.883   5.645   6.374
 9690SOL    HW130967  13.925   5.592   6.440
 9690SOL    HW230968  13.834   5.711   6.423
 9691SOL     OW30969   7.171   7.415  10.064
 9691SOL    HW130970   7.260   7.398  10.094
 9691SOL    HW230971   7.153   7.505  10.091
 9692SOL     OW30972   9.539  13.903   4.869
 9692SOL    HW130973   9.578  13.915   4.956
 9692SOL    HW230974   9.525  13.808   4.862
 9693SOL     OW30975  13.176   5.057  14.678
 9693SOL    HW130976  13.087   5.027  14.699
 9693SOL    HW230977  13.178   5.059  14.582
 9694SOL     OW30978   1.161   1.804   2.808
 9694SOL    HW130979   1.198   1.723   2.843
 9694SOL    HW230980   1.081   1.777   2.763
 9695SOL     OW30981   6.917  10.889   8.959
 9695SOL    HW130982   6.906  10.795   8.976
 9695SOL    HW230983   7.003  10.896   8.919
 9696SOL     OW30984  13.836   0.746   2.823
 9696SOL    HW130985  13.920   0.757   2.778
 9696SOL    HW230986  13.860   0.734   2.915
 9697SOL     OW30987   5.359  10.776   8.343
 9697SOL    HW130988   5.407  10.720   8.405
 9697SOL    HW230989   5.428  10.826   8.298
 9698SOL     OW30990  14.860   8.795   8.811
 9698SOL    HW130991   0.052   8.844   8.771
 9698SOL    HW230992   0.006   8.703   8.801
 9699SOL     OW30993   8.984   1.498   3.585
 9699SOL    HW130994   8.927   1.423   3.601
 9699SOL    HW230995   8.937   1.551   3.521
 9700SOL     OW30996   0.517   4.810  14.503
 9700SOL    HW130997   0.450   4.844  14.443
 9700SOL    HW230998   0.558   4.888  14.540
 9701SOL     OW30999   2.012   5.430   5.603
 9701SOL    HW131000   1.976   5.518   5.611
 9701SOL    HW231001   2.082   5.427   5.668
 9702SOL     OW31002   5.571   1.995  13.478
 9702SOL    HW131003   5.490   1.956  13.446
 9702SOL    HW231004   5.632   1.989  13.404
 9703SOL     OW31005   1.876  11.190   5.200
 9703SOL    HW131006   1.800  11.249   5.197
 9703SOL    HW231007   1.877  11.157   5.290
 9704SOL     OW31008  10.191   3.404   2.473
 9704SOL    HW131009  10.132   3.433   2.542
 9704SOL    HW231010  10.275   3.391   2.517
 9705SOL     OW31011   4.224  11.911   1.942
 9705SOL    HW131012   4.246  11.818   1.942
 9705SOL    HW231013   4.133  11.914   1.970
 9706SOL     OW31014   4.456   6.488  14.775
 9706SOL    HW131015   4.546   6.506  14.804
 9706SOL    HW231016   4.420   6.574  14.755
 9707SOL     OW31017   7.971   1.600  14.577
 9707SOL    HW131018   8.059   1.584  14.611
 9707SOL    HW231019   7.983   1.611  14.482
 9708SOL     OW31020  13.435   9.346   5.972
 9708SOL    HW131021  13.392   9.282   5.915
 9708SOL    HW231022  13.472   9.294   6.043
 9709SOL     OW31023   1.185   8.608   1.444
 9709SOL    HW131024   1.119   8.599   1.513
 9709SOL    HW231025   1.160   8.688   1.397
 9710SOL     OW31026   8.963   2.850  14.342
 9710SOL    HW131027   8.960   2.812  14.429
 9710SOL    HW231028   8.887   2.813  14.296
 9711SOL     OW31029   9.081   1.027   9.609
 9711SOL    HW131030   9.050   0.947   9.568
 9711SOL    HW231031   9.175   1.030   9.587
 9712SOL     OW31032   9.104   3.303   7.157
 9712SOL    HW131033   9.045   3.378   7.152
 9712SOL    HW231034   9.192   3.341   7.151
 9713SOL     OW31035   4.481   8.006   9.308
 9713SOL    HW131036   4.486   8.009   9.212
 9713SOL    HW231037   4.396   7.966   9.326
 9714SOL     OW31038   2.092   7.287   6.929
 9714SOL    HW131039   2.179   7.247   6.929
 9714SOL    HW231040   2.103   7.369   6.883
 9715SOL     OW31041   7.986   9.724  11.455
 9715SOL    HW131042   8.029   9.772  11.526
 9715SOL    HW231043   7.999   9.632  11.478
 9716SOL     OW31044  12.803  10.650   6.088
 9716SOL    HW131045  12.812  10.745   6.099
 9716SOL    HW231046  12.892  10.618   6.082
 9717SOL     OW31047   7.196   7.179   8.989
 9717SOL    HW131048   7.269   7.200   8.931
 9717SOL    HW231049   7.222   7.098   9.032
 9718SOL     OW31050   3.478   5.196   2.172
 9718SOL    HW131051   3.417   5.239   2.112
 9718SOL    HW231052   3.439   5.110   2.188
 9719SOL     OW31053  13.776  10.867   5.465
 9719SOL    HW131054  13.764  10.773   5.462
 9719SOL    HW231055  13.847  10.881   5.528
 9720SOL     OW31056  14.212   3.146   9.593
 9720SOL    HW131057  14.253   3.075   9.642
 9720SOL    HW231058  14.241   3.133   9.503
 9721SOL     OW31059  10.930   8.547  13.630
 9721SOL    HW131060  10.850   8.590  13.600
 9721SOL    HW231061  10.914   8.529  13.722
 9722SOL     OW31062   7.703  12.248   4.037
 9722SOL    HW131063   7.724  12.274   3.948
 9722SOL    HW231064   7.752  12.166   4.050
 9723SOL     OW31065   8.755   9.258  14.836
 9723SOL    HW131066   8.668   9.243  14.798
 9723SOL    HW231067   8.801   9.175  14.826
 9724SOL     OW31068  11.712   6.972  11.555
 9724SOL    HW131069  11.792   6.974  11.608
 9724SOL    HW231070  11.723   6.896  11.499
 9725SOL     OW31071   1.442   2.523   0.868
 9725SOL    HW131072   1.429   2.584   0.941
 9725SOL    HW231073   1.495   2.452   0.906
 9726SOL     OW31074  12.940   5.511   0.362
 9726SOL    HW131075  12.967   5.580   0.302
 9726SOL    HW231076  12.935   5.554   0.447
 9727SOL     OW31077  13.882   9.739   6.488
 9727SOL    HW131078  13.803   9.708   6.531
 9727SOL    HW231079  13.900   9.673   6.421
 9728SOL     OW31080  10.494  12.577  12.043
 9728SOL    HW131081  10.430  12.512  12.016
 9728SOL    HW231082  10.523  12.549  12.129
 9729SOL     OW31083   6.752  12.557  14.878
 9729SOL    HW131084   6.746  12.515   0.085
 9729SOL    HW231085   6.689  12.509  14.824
 9730SOL     OW31086  11.628   8.487  11.017
 9730SOL    HW131087  11.598   8.505  10.928
 9730SOL    HW231088  11.580   8.549  11.072
 9731SOL     OW31089   3.078   6.394   1.576
 9731SOL    HW131090   3.022   6.329   1.617
 9731SOL    HW231091   3.046   6.478   1.609
 9732SOL     OW31092   0.176   8.885  13.164
 9732SOL    HW131093   0.126   8.804  13.160
 9732SOL    HW231094   0.197   8.906  13.073
 9733SOL     OW31095   9.885  12.278   8.454
 9733SOL    HW131096   9.907  12.330   8.377
 9733SOL    HW231097   9.967  12.235   8.478
 9734SOL     OW31098   2.140   9.740   8.359
 9734SOL    HW131099   2.183   9.818   8.393
 9734SOL    HW231100   2.052   9.743   8.397
 9735SOL     OW31101  13.345   2.229   9.931
 9735SOL    HW131102  13.305   2.229   9.844
 9735SOL    HW231103  13.436   2.256   9.915
 9736SOL     OW31104   5.134   6.547   1.261
 9736SOL    HW131105   5.102   6.626   1.218
 9736SOL    HW231106   5.186   6.578   1.335
 9737SOL     OW31107  11.572   4.982   7.619
 9737SOL    HW131108  11.586   4.916   7.550
 9737SOL    HW231109  11.660   5.007   7.646
 9738SOL     OW31110  14.782   8.247  13.123
 9738SOL    HW131111  14.690   8.239  13.099
 9738SOL    HW231112  14.826   8.277  13.043
 9739SOL     OW31113   5.822  11.288   3.232
 9739SOL    HW131114   5.753  11.349   3.206
 9739SOL    HW231115   5.778  11.203   3.236
 9740SOL     OW31116   7.570  11.719   4.749
 9740SOL    HW131117   7.607  11.805   4.767
 9740SOL    HW231118   7.614  11.690   4.669
 9741SOL     OW31119   7.480   9.287  11.981
 9741SOL    HW131120   7.423   9.209  11.978
 9741SOL    HW231121   7.558   9.261  11.933
 9742SOL     OW31122  11.008   0.338  11.426
 9742SOL    HW131123  11.070   0.292  11.370
 9742SOL    HW231124  11.038   0.429  11.424
 9743SOL     OW31125  10.252   6.028  14.802
 9743SOL    HW131126  10.234   6.099  14.741
 9743SOL    HW231127  10.346   6.031  14.816
 9744SOL     OW31128  14.625   3.419   4.364
 9744SOL    HW131129  14.681   3.345   4.341
 9744SOL    HW231130  14.631   3.426   4.459
 9745SOL     OW31131   9.707   0.645   4.256
 9745SOL    HW131132   9.713   0.585   4.181
 9745SOL    HW231133   9.794   0.641   4.296
 9746SOL     OW31134   3.193   9.993   3.243
 9746SOL    HW131135   3.246  10.054   3.294
 9746SOL    HW231136   3.150  10.048   3.177
 9747SOL     OW31137   8.596   5.463  11.109
 9747SOL    HW131138   8.612   5.497  11.198
 9747SOL    HW231139   8.676   5.483  11.061
 9748SOL     OW31140   6.522   6.139  10.724
 9748SOL    HW131141   6.495   6.168  10.637
 9748SOL    HW231142   6.588   6.071  10.707
 9749SOL     OW31143   9.176  11.331  11.249
 9749SOL    HW131144   9.241  11.380  11.199
 9749SOL    HW231145   9.096  11.340  11.197
 9750SOL     OW31146  12.139   5.616  14.422
 9750SOL    HW131147  12.083   5.627  14.345
 9750SOL    HW231148  12.104   5.677  14.486
 9751SOL     OW31149  10.818   6.170   3.687
 9751SOL    HW131150  10.871   6.179   3.608
 9751SOL    HW231151  10.738   6.126   3.656
 9752SOL     OW31152   5.837   9.231   6.037
 9752SOL    HW131153   5.922   9.253   5.998
 9752SOL    HW231154   5.814   9.310   6.086
 9753SOL     OW31155   7.592   8.180  12.041
 9753SOL    HW131156   7.652   8.121  12.087
 9753SOL    HW231157   7.617   8.172  11.949
 9754SOL     OW31158  13.006   5.974  14.301
 9754SOL    HW131159  13.015   6.061  14.341
 9754SOL    HW231160  12.968   5.991  14.215
 9755SOL     OW31161   0.736   2.460  13.937
 9755SOL    HW131162   0.749   2.515  13.860
 9755SOL    HW231163   0.659   2.407  13.915
 9756SOL     OW31164  10.723   7.933   5.569
 9756SOL    HW131165  10.654   7.952   5.632
 9756SOL    HW231166  10.804   7.942   5.619
 9757SOL     OW31167   6.110   8.751   0.555
 9757SOL    HW131168   6.138   8.778   0.642
 9757SOL    HW231169   6.029   8.702   0.570
 9758SOL     OW31170   8.657   9.611   4.882
 9758SOL    HW131171   8.740   9.578   4.848
 9758SOL    HW231172   8.632   9.680   4.821
 9759SOL     OW31173  11.412  14.348  13.178
 9759SOL    HW131174  11.355  14.304  13.241
 9759SOL    HW231175  11.352  14.389  13.116
 9760SOL     OW31176   0.105   6.249  11.999
 9760SOL    HW131177   0.185   6.222  11.954
 9760SOL    HW231178   0.110   6.207  12.085
 9761SOL     OW31179   2.063  14.106   0.218
 9761SOL    HW131180   1.969  14.096   0.203
 9761SOL    HW231181   2.088  14.180   0.163
 9762SOL     OW31182   4.484   6.268   1.797
 9762SOL    HW131183   4.408   6.216   1.772
 9762SOL    HW231184   4.558   6.224   1.754
 9763SOL     OW31185   8.857   4.573   1.798
 9763SOL    HW131186   8.953   4.574   1.803
 9763SOL    HW231187   8.835   4.651   1.746
 9764SOL     OW31188   4.043   7.692  13.933
 9764SOL    HW131189   4.096   7.703  14.012
 9764SOL    HW231190   3.958   7.729  13.957
 9765SOL     OW31191   3.445  10.186   4.633
 9765SOL    HW131192   3.385  10.188   4.708
 9765SOL    HW231193   3.520  10.239   4.662
 9766SOL     OW31194   7.925   2.320   5.056
 9766SOL    HW131195   7.963   2.360   4.978
 9766SOL    HW231196   7.836   2.355   5.060
 9767SOL     OW31197   5.657   0.963  11.003
 9767SOL    HW131198   5.682   1.011  10.923
 9767SOL    HW231199   5.740   0.951  11.050
 9768SOL     OW31200  12.863  11.930   3.653
 9768SOL    HW131201  12.806  11.996   3.613
 9768SOL    HW231202  12.876  11.864   3.585
 9769SOL     OW31203   8.345   9.897  10.497
 9769SOL    HW131204   8.418   9.861  10.546
 9769SOL    HW231205   8.372   9.985  10.472
 9770SOL     OW31206   6.525   6.737   4.985
 9770SOL    HW131207   6.607   6.773   5.021
 9770SOL    HW231208   6.487   6.687   5.057
 9771SOL     OW31209  13.825   2.613   6.925
 9771SOL    HW131210  13.865   2.592   7.009
 9771SOL    HW231211  13.891   2.591   6.860
 9772SOL     OW31212   1.650   5.485  12.260
 9772SOL    HW131213   1.652   5.570  12.304
 9772SOL    HW231214   1.605   5.501  12.177
 9773SOL     OW31215   7.333   4.656  13.938
 9773SOL    HW131216   7.427   4.666  13.952
 9773SOL    HW231217   7.295   4.740  13.965
 9774SOL     OW31218  12.193  12.306   2.505
 9774SOL    HW131219  12.137  12.370   2.462
 9774SOL    HW231220  12.133  12.236   2.533
 9775SOL     OW31221   4.900  13.619  11.436
 9775SOL    HW131222   4.978  13.564  11.447
 9775SOL    HW231223   4.933  13.709  11.447
 9776SOL     OW31224  11.345  12.583  11.939
 9776SOL    HW131225  11.424  12.603  11.889
 9776SOL    HW231226  11.311  12.503  11.899
 9777SOL     OW31227   7.117  10.389   4.805
 9777SOL    HW131228   7.154  10.477   4.809
 9777SOL    HW231229   7.025  10.403   4.785
 9778SOL     OW31230   3.352   3.876   7.253
 9778SOL    HW131231   3.290   3.916   7.192
 9778SOL    HW231232   3.343   3.782   7.238
 9779SOL     OW31233   2.503  11.273  13.570
 9779SOL    HW131234   2.579  11.228  13.609
 9779SOL    HW231235   2.451  11.301  13.645
 9780SOL     OW31236   5.257  10.351  12.910
 9780SOL    HW131237   5.193  10.299  12.861
 9780SOL    HW231238   5.301  10.289  12.967
 9781SOL     OW31239   7.075   8.743   0.726
 9781SOL    HW131240   7.016   8.679   0.686
 9781SOL    HW231241   7.037   8.761   0.812
 9782SOL     OW31242   0.780   1.635   2.341
 9782SOL    HW131243   0.728   1.689   2.401
 9782SOL    HW231244   0.809   1.562   2.394
 9783SOL     OW31245   4.661  12.969   3.215
 9783SOL    HW131246   4.647  13.063   3.217
 9783SOL    HW231247   4.684  12.946   3.305
 9784SOL     OW31248  13.814   3.136   7.049
 9784SOL    HW131249  13.720   3.147   7.037
 9784SOL    HW231250  13.834   3.054   7.004
 9785SOL     OW31251   5.844  14.837   6.054
 9785SOL    HW131252   5.934  14.857   6.029
 9785SOL    HW231253   5.817  14.767   5.995
 9786SOL     OW31254   2.301   6.229   1.453
 9786SOL    HW131255   2.317   6.170   1.380
 9786SOL    HW231256   2.260   6.306   1.412
 9787SOL     OW31257  12.038   9.146  14.390
 9787SOL    HW131258  12.057   9.233  14.424
 9787SOL    HW231259  12.088   9.086  14.446
 9788SOL     OW31260   4.000  14.694   8.800
 9788SOL    HW131261   3.987  14.671   8.708
 9788SOL    HW231262   4.086  14.736   8.801
 9789SOL     OW31263   2.384  10.323   1.817
 9789SOL    HW131264   2.440  10.301   1.891
 9789SOL    HW231265   2.426  10.281   1.741
 9790SOL     OW31266   2.031   1.638  10.646
 9790SOL    HW131267   2.024   1.622  10.552
 9790SOL    HW231268   2.002   1.557  10.687
 9791SOL     OW31269  13.523   7.042   4.348
 9791SOL    HW131270  13.428   7.047   4.342
 9791SOL    HW231271  13.552   7.133   4.347
 9792SOL     OW31272   6.985   4.887  11.444
 9792SOL    HW131273   6.891   4.879  11.460
 9792SOL    HW231274   6.993   4.883  11.349
 9793SOL     OW31275   9.771   1.822  13.685
 9793SOL    HW131276   9.709   1.893  13.698
 9793SOL    HW231277   9.828   1.851  13.613
 9794SOL     OW31278   1.053  14.866  12.757
 9794SOL    HW131279   0.978  14.848  12.700
 9794SOL    HW231280   1.119   0.024  12.700
 9795SOL     OW31281  10.785  10.936   7.176
 9795SOL    HW131282  10.737  10.871   7.227
 9795SOL    HW231283  10.840  10.884   7.118
 9796SOL     OW31284  10.823   1.005  13.198
 9796SOL    HW131285  10.909   1.047  13.195
 9796SOL    HW231286  10.809   0.974  13.108
 9797SOL     OW31287   6.630   2.372   3.254
 9797SOL    HW131288   6.713   2.404   3.217
 9797SOL    HW231289   6.563   2.419   3.204
 9798SOL     OW31290   9.719   4.749   8.048
 9798SOL    HW131291   9.738   4.842   8.047
 9798SOL    HW231292   9.723   4.723   7.956
 9799SOL     OW31293   2.577   7.102   9.882
 9799SOL    HW131294   2.589   7.019   9.927
 9799SOL    HW231295   2.493   7.094   9.837
 9800SOL     OW31296   2.324   3.827   7.987
 9800SOL    HW131297   2.417   3.827   7.966
 9800SOL    HW231298   2.320   3.828   8.082
 9801SOL     OW31299  14.533  11.840   9.752
 9801SOL    HW131300  14.468  11.805   9.691
 9801SOL    HW231301  14.617  11.819   9.711
 9802SOL     OW31302   3.342   9.404   8.332
 9802SOL    HW131303   3.359   9.334   8.396
 9802SOL    HW231304   3.375   9.369   8.249
 9803SOL     OW31305   4.003  12.917   9.026
 9803SOL    HW131306   3.917  12.902   9.065
 9803SOL    HW231307   4.057  12.950   9.097
 9804SOL     OW31308   8.759   1.749   9.733
 9804SOL    HW131309   8.669   1.729   9.709
 9804SOL    HW231310   8.756   1.760   9.828
 9805SOL     OW31311   5.773   0.450   5.599
 9805SOL    HW131312   5.772   0.526   5.540
 9805SOL    HW231313   5.847   0.398   5.569
 9806SOL     OW31314   7.676   9.250   9.415
 9806SOL    HW131315   7.611   9.321   9.416
 9806SOL    HW231316   7.624   9.170   9.423
 9807SOL     OW31317   5.391   6.036  13.209
 9807SOL    HW131318   5.357   6.124  13.191
 9807SOL    HW231319   5.320   5.977  13.182
 9808SOL     OW31320   8.691   6.603   7.415
 9808SOL    HW131321   8.678   6.697   7.403
 9808SOL    HW231322   8.760   6.597   7.481
 9809SOL     OW31323  14.120   4.718  12.375
 9809SOL    HW131324  14.114   4.672  12.291
 9809SOL    HW231325  14.202   4.687  12.413
 9810SOL     OW31326  10.382  11.088  10.754
 9810SOL    HW131327  10.411  11.076  10.844
 9810SOL    HW231328  10.373  10.999  10.720
 9811SOL     OW31329  13.603   9.992  14.727
 9811SOL    HW131330  13.581   9.935  14.800
 9811SOL    HW231331  13.524   9.994  14.673
 9812SOL     OW31332   8.632  11.541   2.421
 9812SOL    HW131333   8.619  11.577   2.333
 9812SOL    HW231334   8.621  11.616   2.479
 9813SOL     OW31335   5.149   6.602   8.382
 9813SOL    HW131336   5.154   6.694   8.408
 9813SOL    HW231337   5.137   6.605   8.287
 9814SOL     OW31338  12.781  14.675   9.267
 9814SOL    HW131339  12.715  14.677   9.336
 9814SOL    HW231340  12.803  14.582   9.257
 9815SOL     OW31341   2.496   5.567   0.213
 9815SOL    HW131342   2.410   5.548   0.249
 9815SOL    HW231343   2.538   5.623   0.278
 9816SOL     OW31344  13.139  11.577   6.071
 9816SOL    HW131345  13.116  11.586   5.978
 9816SOL    HW231346  13.185  11.493   6.076
 9817SOL     OW31347  12.010  11.959  11.414
 9817SOL    HW131348  12.033  11.888  11.354
 9817SOL    HW231349  11.963  12.022  11.359
 9818SOL     OW31350   5.177   3.756   5.499
 9818SOL    HW131351   5.164   3.676   5.447
 9818SOL    HW231352   5.122   3.821   5.457
 9819SOL     OW31353  12.240   6.472   3.495
 9819SOL    HW131354  12.275   6.408   3.557
 9819SOL    HW231355  12.315   6.496   3.441
 9820SOL     OW31356  12.340   7.659   9.500
 9820SOL    HW131357  12.259   7.693   9.462
 9820SOL    HW231358  12.330   7.674   9.594
 9821SOL     OW31359   0.736  14.485  12.321
 9821SOL    HW131360   0.659  14.524  12.364
 9821SOL    HW231361   0.769  14.421  12.384
 9822SOL     OW31362  10.863   2.696  14.260
 9822SOL    HW131363  10.864   2.626  14.195
 9822SOL    HW231364  10.907   2.770  14.217
 9823SOL     OW31365   8.403  12.040  10.824
 9823SOL    HW131366   8.353  12.036  10.743
 9823SOL    HW231367   8.356  11.981  10.883
 9824SOL     OW31368   5.263   6.999  10.710
 9824SOL    HW131369   5.190   7.054  10.737
 9824SOL    HW231370   5.340   7.037  10.753
 9825SOL     OW31371  13.398  11.616   8.017
 9825SOL    HW131372  13.322  11.662   8.053
 9825SOL    HW231373  13.433  11.675   7.951
 9826SOL     OW31374  10.182   6.056  13.948
 9826SOL    HW131375  10.152   6.144  13.968
 9826SOL    HW231376  10.151   6.002  14.021
 9827SOL     OW31377   0.909   0.874   0.551
 9827SOL    HW131378   0.944   0.963   0.552
 9827SOL    HW231379   0.820   0.884   0.517
 9828SOL     OW31380   9.547   6.750   4.238
 9828SOL    HW131381   9.491   6.728   4.164
 9828SOL    HW231382   9.490   6.798   4.298
 9829SOL     OW31383  12.439   0.311  11.887
 9829SOL    HW131384  12.509   0.331  11.826
 9829SOL    HW231385  12.372   0.377  11.868
 9830SOL     OW31386   3.659   8.873  13.492
 9830SOL    HW131387   3.638   8.788  13.453
 9830SOL    HW231388   3.752   8.866  13.516
 9831SOL     OW31389   1.547  10.216   9.779
 9831SOL    HW131390   1.454  10.199   9.772
 9831SOL    HW231391   1.554  10.284   9.847
 9832SOL     OW31392   0.477   6.755   2.706
 9832SOL    HW131393   0.389   6.723   2.689
 9832SOL    HW231394   0.534   6.693   2.659
 9833SOL     OW31395  14.485  10.611  11.426
 9833SOL    HW131396  14.567  10.649  11.456
 9833SOL    HW231397  14.428  10.687  11.410
 9834SOL     OW31398  10.649   9.894   4.264
 9834SOL    HW131399  10.619   9.807   4.290
 9834SOL    HW231400  10.642   9.894   4.168
 9835SOL     OW31401  10.424   3.431  12.388
 9835SOL    HW131402  10.412   3.380  12.308
 9835SOL    HW231403  10.354   3.401  12.446
 9836SOL     OW31404   0.955   3.891   4.315
 9836SOL    HW131405   0.921   3.818   4.264
 9836SOL    HW231406   0.915   3.968   4.275
 9837SOL     OW31407  13.074   8.000   8.608
 9837SOL    HW131408  13.044   8.031   8.693
 9837SOL    HW231409  13.090   7.907   8.620
 9838SOL     OW31410   3.417   3.998  11.599
 9838SOL    HW131411   3.423   3.938  11.673
 9838SOL    HW231412   3.506   4.029  11.585
 9839SOL     OW31413   3.198   3.547   5.532
 9839SOL    HW131414   3.185   3.546   5.437
 9839SOL    HW231415   3.214   3.639   5.553
 9840SOL     OW31416   3.605   6.363  10.522
 9840SOL    HW131417   3.623   6.291  10.462
 9840SOL    HW231418   3.684   6.417  10.519
 9841SOL     OW31419   2.345  14.618  13.134
 9841SOL    HW131420   2.284  14.565  13.185
 9841SOL    HW231421   2.399  14.553  13.088
 9842SOL     OW31422   3.332  14.044   6.814
 9842SOL    HW131423   3.272  14.097   6.867
 9842SOL    HW231424   3.276  13.979   6.772
 9843SOL     OW31425   7.471   1.390  13.710
 9843SOL    HW131426   7.539   1.442  13.753
 9843SOL    HW231427   7.395   1.398  13.766
 9844SOL     OW31428  12.855   0.514   2.199
 9844SOL    HW131429  12.918   0.577   2.163
 9844SOL    HW231430  12.806   0.564   2.264
 9845SOL     OW31431   1.525  10.438  12.406
 9845SOL    HW131432   1.566  10.477  12.329
 9845SOL    HW231433   1.447  10.395  12.372
 9846SOL     OW31434   7.137   4.856  11.639
 9846SOL    HW131435   7.074   4.866  11.568
 9846SOL    HW231436   7.151   4.762  11.647
 9847SOL     OW31437   0.613   6.159  13.826
 9847SOL    HW131438   0.656   6.074  13.823
 9847SOL    HW231439   0.685   6.222  13.825
 9848SOL     OW31440   3.254  11.391   1.870
 9848SOL    HW131441   3.237  11.297   1.862
 9848SOL    HW231442   3.178  11.432   1.829
 9849SOL     OW31443   3.438   8.745   6.675
 9849SOL    HW131444   3.439   8.703   6.761
 9849SOL    HW231445   3.528   8.739   6.643
 9850SOL     OW31446   2.251   0.978   3.585
 9850SOL    HW131447   2.250   0.973   3.681
 9850SOL    HW231448   2.190   1.049   3.564
 9851SOL     OW31449  13.046   1.838   4.728
 9851SOL    HW131450  13.134   1.867   4.751
 9851SOL    HW231451  13.003   1.822   4.813
 9852SOL     OW31452   7.104   6.898  13.872
 9852SOL    HW131453   7.196   6.896  13.846
 9852SOL    HW231454   7.061   6.953  13.807
 9853SOL     OW31455   2.621   7.195   6.995
 9853SOL    HW131456   2.677   7.268   7.024
 9853SOL    HW231457   2.652   7.120   7.045
 9854SOL     OW31458   1.666   8.857   2.263
 9854SOL    HW131459   1.742   8.914   2.250
 9854SOL    HW231460   1.703   8.774   2.292
 9855SOL     OW31461   8.838  11.150   1.824
 9855SOL    HW131462   8.856  11.205   1.901
 9855SOL    HW231463   8.838  11.212   1.751
 9856SOL     OW31464  10.463   4.925   0.315
 9856SOL    HW131465  10.421   4.898   0.233
 9856SOL    HW231466  10.394   4.915   0.381
 9857SOL     OW31467  13.002   7.586   5.170
 9857SOL    HW131468  13.044   7.500   5.168
 9857SOL    HW231469  12.926   7.576   5.112
 9858SOL     OW31470   6.611   5.277   1.725
 9858SOL    HW131471   6.626   5.364   1.762
 9858SOL    HW231472   6.582   5.224   1.799
 9859SOL     OW31473   8.254  11.698   9.508
 9859SOL    HW131474   8.239  11.705   9.603
 9859SOL    HW231475   8.217  11.613   9.485
 9860SOL     OW31476  14.275   8.768   9.508
 9860SOL    HW131477  14.345   8.789   9.445
 9860SOL    HW231478  14.270   8.846   9.564
 9861SOL     OW31479   3.923  12.083  12.957
 9861SOL    HW131480   4.009  12.111  12.987
 9861SOL    HW231481   3.863  12.149  12.993
 9862SOL     OW31482   8.627   2.564   9.126
 9862SOL    HW131483   8.626   2.490   9.187
 9862SOL    HW231484   8.607   2.525   9.041
 9863SOL     OW31485   1.966  13.969  14.484
 9863SOL    HW131486   1.943  14.062  14.478
 9863SOL    HW231487   2.061  13.967  14.482
 9864SOL     OW31488   8.853  12.580  13.518
 9864SOL    HW131489   8.798  12.651  13.549
 9864SOL    HW231490   8.804  12.500  13.538
 9865SOL     OW31491  11.135  11.187  11.462
 9865SOL    HW131492  11.201  11.198  11.531
 9865SOL    HW231493  11.103  11.097  11.475
 9866SOL     OW31494  13.241   5.489   3.893
 9866SOL    HW131495  13.272   5.569   3.850
 9866SOL    HW231496  13.316   5.430   3.890
 9867SOL     OW31497  10.152   0.921   6.424
 9867SOL    HW131498  10.154   0.825   6.420
 9867SOL    HW231499  10.059   0.943   6.425
 9868SOL     OW31500   2.743   4.960   1.165
 9868SOL    HW131501   2.697   5.018   1.104
 9868SOL    HW231502   2.796   4.903   1.110
 9869SOL     OW31503   3.353   6.247  13.793
 9869SOL    HW131504   3.367   6.290  13.877
 9869SOL    HW231505   3.434   6.262  13.744
 9870SOL     OW31506   2.042  10.042  10.146
 9870SOL    HW131507   2.049  10.104  10.219
 9870SOL    HW231508   2.018   9.959  10.188
 9871SOL     OW31509   1.741   5.730   6.113
 9871SOL    HW131510   1.683   5.654   6.107
 9871SOL    HW231511   1.714   5.775   6.193
 9872SOL     OW31512   8.012   7.109  13.939
 9872SOL    HW131513   7.980   7.038  13.993
 9872SOL    HW231514   7.975   7.093  13.852
 9873SOL     OW31515  14.010   7.232   6.547
 9873SOL    HW131516  13.949   7.201   6.480
 9873SOL    HW231517  14.053   7.152   6.578
 9874SOL     OW31518   5.134   5.844   3.515
 9874SOL    HW131519   5.075   5.822   3.588
 9874SOL    HW231520   5.214   5.874   3.558
 9875SOL     OW31521   2.800   7.035   7.216
 9875SOL    HW131522   2.808   7.130   7.221
 9875SOL    HW231523   2.852   7.002   7.289
 9876SOL     OW31524   8.651   3.662   9.937
 9876SOL    HW131525   8.629   3.747   9.899
 9876SOL    HW231526   8.747   3.658   9.932
 9877SOL     OW31527  13.730   9.622   0.256
 9877SOL    HW131528  13.803   9.606   0.197
 9877SOL    HW231529  13.755   9.702   0.304
 9878SOL     OW31530   8.388  10.850   8.031
 9878SOL    HW131531   8.476  10.813   8.024
 9878SOL    HW231532   8.371  10.888   7.945
 9879SOL     OW31533   8.326   6.582   2.475
 9879SOL    HW131534   8.382   6.536   2.538
 9879SOL    HW231535   8.368   6.667   2.464
 9880SOL     OW31536  12.850  10.371  11.698
 9880SOL    HW131537  12.835  10.465  11.697
 9880SOL    HW231538  12.808  10.339  11.619
 9881SOL     OW31539   5.689   6.039   2.789
 9881SOL    HW131540   5.670   6.000   2.875
 9881SOL    HW231541   5.784   6.044   2.785
 9882SOL     OW31542  13.954   9.283   8.019
 9882SOL    HW131543  13.918   9.207   7.975
 9882SOL    HW231544  13.973   9.253   8.108
 9883SOL     OW31545   2.145   8.183   8.582
 9883SOL    HW131546   2.082   8.207   8.649
 9883SOL    HW231547   2.123   8.093   8.559
 9884SOL     OW31548   7.372  11.660   5.409
 9884SOL    HW131549   7.277  11.676   5.414
 9884SOL    HW231550   7.387  11.589   5.471
 9885SOL     OW31551  11.612   7.396  14.855
 9885SOL    HW131552  11.606   7.401  14.760
 9885SOL    HW231553  11.524   7.370   0.004
 9886SOL     OW31554   2.454   5.838   3.377
 9886SOL    HW131555   2.433   5.747   3.397
 9886SOL    HW231556   2.408   5.888   3.445
 9887SOL     OW31557   1.546   1.562  14.454
 9887SOL    HW131558   1.510   1.650  14.440
 9887SOL    HW231559   1.525   1.515  14.373
 9888SOL     OW31560   9.181   4.096   8.425
 9888SOL    HW131561   9.195   4.099   8.520
 9888SOL    HW231562   9.196   4.004   8.402
 9889SOL     OW31563   9.928   9.335   1.585
 9889SOL    HW131564   9.927   9.245   1.620
 9889SOL    HW231565   9.922   9.323   1.490
 9890SOL     OW31566  14.728  12.264  12.534
 9890SOL    HW131567  14.714  12.332  12.601
 9890SOL    HW231568  14.690  12.301  12.454
 9891SOL     OW31569   6.247   2.333  11.625
 9891SOL    HW131570   6.282   2.252  11.589
 9891SOL    HW231571   6.277   2.402  11.565
 9892SOL     OW31572   0.548   0.877   8.720
 9892SOL    HW131573   0.609   0.948   8.738
 9892SOL    HW231574   0.464   0.919   8.703
 9893SOL     OW31575  10.466   3.253  10.643
 9893SOL    HW131576  10.475   3.246  10.738
 9893SOL    HW231577  10.548   3.292  10.614
 9894SOL     OW31578   2.785   2.095   5.592
 9894SOL    HW131579   2.841   2.162   5.633
 9894SOL    HW231580   2.703   2.098   5.642
 9895SOL     OW31581   8.794   9.524   5.514
 9895SOL    HW131582   8.790   9.432   5.541
 9895SOL    HW231583   8.884   9.536   5.483
 9896SOL     OW31584   6.726   2.199   6.666
 9896SOL    HW131585   6.737   2.128   6.729
 9896SOL    HW231586   6.667   2.261   6.711
 9897SOL     OW31587  12.941   7.512  14.334
 9897SOL    HW131588  12.905   7.504  14.422
 9897SOL    HW231589  12.884   7.575  14.291
 9898SOL     OW31590   1.928   5.046   5.735
 9898SOL    HW131591   1.969   5.120   5.780
 9898SOL    HW231592   1.936   4.973   5.797
 9899SOL     OW31593   8.799   0.249  10.188
 9899SOL    HW131594   8.776   0.337  10.217
 9899SOL    HW231595   8.755   0.240  10.104
 9900SOL     OW31596   3.487   7.137   0.731
 9900SOL    HW131597   3.465   7.048   0.703
 9900SOL    HW231598   3.408   7.168   0.775
 9901SOL     OW31599  13.429   7.674   5.415
 9901SOL    HW131600  13.362   7.739   5.435
 9901SOL    HW231601  13.397   7.629   5.337
 9902SOL     OW31602  11.874  12.712  14.446
 9902SOL    HW131603  11.863  12.777  14.515
 9902SOL    HW231604  11.795  12.721  14.393
 9903SOL     OW31605   1.614  12.227   4.527
 9903SOL    HW131606   1.574  12.302   4.483
 9903SOL    HW231607   1.706  12.230   4.501
 9904SOL     OW31608  13.303   6.006  10.057
 9904SOL    HW131609  13.297   5.984   9.964
 9904SOL    HW231610  13.305   6.101  10.059
 9905SOL     OW31611  13.036  14.838   2.484
 9905SOL    HW131612  13.007  14.879   2.565
 9905SOL    HW231613  13.074   0.030   2.433
 9906SOL     OW31614   8.670  14.267   0.263
 9906SOL    HW131615   8.625  14.196   0.217
 9906SOL    HW231616   8.698  14.228   0.346
 9907SOL     OW31617   7.669  11.171  12.752
 9907SOL    HW131618   7.578  11.145  12.765
 9907SOL    HW231619   7.706  11.101  12.697
 9908SOL     OW31620  13.276  14.346  10.632
 9908SOL    HW131621  13.279  14.259  10.672
 9908SOL    HW231622  13.226  14.333  10.551
 9909SOL     OW31623   5.372   7.900   4.300
 9909SOL    HW131624   5.280   7.910   4.278
 9909SOL    HW231625   5.373   7.875   4.392
 9910SOL     OW31626   7.245  13.659   1.234
 9910SOL    HW131627   7.205  13.685   1.152
 9910SOL    HW231628   7.267  13.566   1.223
 9911SOL     OW31629  11.224   0.094   6.388
 9911SOL    HW131630  11.220   0.181   6.347
 9911SOL    HW231631  11.271   0.040   6.325
 9912SOL     OW31632   4.956   4.892  12.527
 9912SOL    HW131633   4.869   4.886  12.567
 9912SOL    HW231634   4.991   4.803  12.531
 9913SOL     OW31635  13.227   8.296  10.103
 9913SOL    HW131636  13.183   8.320  10.184
 9913SOL    HW231637  13.174   8.225  10.067
 9914SOL     OW31638   8.895  12.958   7.737
 9914SOL    HW131639   8.848  12.879   7.713
 9914SOL    HW231640   8.930  12.992   7.655
 9915SOL     OW31641   8.759   6.210  14.044
 9915SOL    HW131642   8.799   6.166  14.119
 9915SOL    HW231643   8.732   6.296  14.077
 9916SOL     OW31644   1.178   1.433   9.868
 9916SOL    HW131645   1.186   1.476   9.953
 9916SOL    HW231646   1.265   1.398   9.850
 9917SOL     OW31647  10.774  13.729  11.594
 9917SOL    HW131648  10.795  13.652  11.647
 9917SOL    HW231649  10.776  13.696  11.504
 9918SOL     OW31650  14.679  11.974   7.989
 9918SOL    HW131651  14.737  12.044   7.958
 9918SOL    HW231652  14.692  11.972   8.084
 9919SOL     OW31653   9.378   7.852   4.405
 9919SOL    HW131654   9.337   7.903   4.475
 9919SOL    HW231655   9.366   7.761   4.432
 9920SOL     OW31656   7.913   3.595   8.575
 9920SOL    HW131657   7.959   3.611   8.493
 9920SOL    HW231658   7.847   3.665   8.580
 9921SOL     OW31659   3.505   0.318   0.131
 9921SOL    HW131660   3.576   0.353   0.184
 9921SOL    HW231661   3.500   0.226   0.154
 9922SOL     OW31662   7.633   5.939   9.172
 9922SOL    HW131663   7.611   6.032   9.164
 9922SOL    HW231664   7.727   5.935   9.158
 9923SOL     OW31665   5.000   8.542  10.888
 9923SOL    HW131666   5.055   8.569  10.814
 9923SOL    HW231667   5.025   8.601  10.959
 9924SOL     OW31668  10.618   9.747  13.296
 9924SOL    HW131669  10.574   9.665  13.317
 9924SOL    HW231670  10.561   9.791  13.234
 9925SOL     OW31671   5.691  13.517   8.925
 9925SOL    HW131672   5.669  13.572   9.001
 9925SOL    HW231673   5.611  13.468   8.907
 9926SOL     OW31674   7.764   9.312   9.144
 9926SOL    HW131675   7.707   9.290   9.218
 9926SOL    HW231676   7.807   9.229   9.122
 9927SOL     OW31677   7.646   9.999  14.531
 9927SOL    HW131678   7.558  10.026  14.505
 9927SOL    HW231679   7.681   9.954  14.454
 9928SOL     OW31680   9.867   9.374   1.934
 9928SOL    HW131681   9.806   9.394   2.005
 9928SOL    HW231682   9.810   9.350   1.861
 9929SOL     OW31683   7.722   7.519   6.632
 9929SOL    HW131684   7.742   7.549   6.721
 9929SOL    HW231685   7.806   7.522   6.586
 9930SOL     OW31686  11.885   9.362   4.330
 9930SOL    HW131687  11.954   9.427   4.342
 9930SOL    HW231688  11.929   9.285   4.294
 9931SOL     OW31689   1.529   8.371   8.943
 9931SOL    HW131690   1.618   8.399   8.922
 9931SOL    HW231691   1.528   8.363   9.038
 9932SOL     OW31692   5.060   7.355   1.726
 9932SOL    HW131693   5.101   7.319   1.647
 9932SOL    HW231694   5.078   7.449   1.721
 9933SOL     OW31695   8.726   4.392   0.826
 9933SOL    HW131696   8.701   4.410   0.917
 9933SOL    HW231697   8.761   4.304   0.828
 9934SOL     OW31698  13.339   4.793   6.345
 9934SOL    HW131699  13.383   4.708   6.358
 9934SOL    HW231700  13.279   4.778   6.272
 9935SOL     OW31701   4.861  10.701   4.704
 9935SOL    HW131702   4.866  10.797   4.708
 9935SOL    HW231703   4.951  10.672   4.713
 9936SOL     OW31704   3.795   0.824   0.037
 9936SOL    HW131705   3.721   0.868  14.874
 9936SOL    HW231706   3.775   0.730   0.028
 9937SOL     OW31707  10.106   9.415  11.581
 9937SOL    HW131708  10.155   9.418  11.498
 9937SOL    HW231709  10.173   9.395  11.647
 9938SOL     OW31710   0.331   9.982  12.490
 9938SOL    HW131711   0.279  10.062  12.499
 9938SOL    HW231712   0.418  10.007  12.519
 9939SOL     OW31713   2.670   9.647   1.378
 9939SOL    HW131714   2.676   9.560   1.416
 9939SOL    HW231715   2.586   9.681   1.410
 9940SOL     OW31716   5.423  12.312   0.406
 9940SOL    HW131717   5.458  12.313   0.496
 9940SOL    HW231718   5.354  12.379   0.407
 9941SOL     OW31719   3.711   8.524  13.917
 9941SOL    HW131720   3.641   8.466  13.888
 9941SOL    HW231721   3.736   8.490  14.003
 9942SOL     OW31722  10.688  14.441  10.790
 9942SOL    HW131723  10.770  14.473  10.753
 9942SOL    HW231724  10.698  14.452  10.884
 9943SOL     OW31725  13.510   6.347  14.778
 9943SOL    HW131726  13.531   6.313  14.690
 9943SOL    HW231727  13.594   6.348  14.824
 9944SOL     OW31728   0.466  11.475   9.504
 9944SOL    HW131729   0.527  11.463   9.431
 9944SOL    HW231730   0.486  11.404   9.565
 9945SOL     OW31731  14.019  10.191  12.417
 9945SOL    HW131732  13.991  10.157  12.502
 9945SOL    HW231733  14.030  10.285  12.431
 9946SOL     OW31734   0.071   5.908  11.483
 9946SOL    HW131735   0.157   5.941  11.509
 9946SOL    HW231736   0.062   5.825  11.528
 9947SOL     OW31737   8.458   1.598  11.826
 9947SOL    HW131738   8.403   1.672  11.799
 9947SOL    HW231739   8.545   1.620  11.794
 9948SOL     OW31740   1.478   2.887   1.788
 9948SOL    HW131741   1.452   2.946   1.859
 9948SOL    HW231742   1.520   2.814   1.831
 9949SOL     OW31743   1.573   7.219   0.076
 9949SOL    HW131744   1.507   7.285   0.054
 9949SOL    HW231745   1.529   7.135   0.059
 9950SOL     OW31746   3.468  14.407  14.732
 9950SOL    HW131747   3.416  14.331  14.756
 9950SOL    HW231748   3.558  14.375  14.732
 9951SOL     OW31749  11.728   2.464   1.558
 9951SOL    HW131750  11.795   2.396   1.566
 9951SOL    HW231751  11.646   2.419   1.576
 9952SOL     OW31752   8.482  14.245  10.686
 9952SOL    HW131753   8.406  14.260  10.629
 9952SOL    HW231754   8.443  14.231  10.772
 9953SOL     OW31755   1.620  14.462  14.807
 9953SOL    HW131756   1.639  14.383  14.857
 9953SOL    HW231757   1.580  14.521  14.870
 9954SOL     OW31758  14.112   1.900  11.071
 9954SOL    HW131759  14.048   1.966  11.097
 9954SOL    HW231760  14.070   1.853  10.999
 9955SOL     OW31761   9.788  10.831   7.926
 9955SOL    HW131762   9.859  10.783   7.969
 9955SOL    HW231763   9.770  10.781   7.846
 9956SOL     OW31764  12.447  13.375   1.717
 9956SOL    HW131765  12.409  13.310   1.658
 9956SOL    HW231766  12.541  13.360   1.711
 9957SOL     OW31767   1.688   6.942   6.333
 9957SOL    HW131768   1.773   6.900   6.348
 9957SOL    HW231769   1.710   7.033   6.312
 9958SOL     OW31770  10.200   4.506   2.480
 9958SOL    HW131771  10.263   4.442   2.512
 9958SOL    HW231772  10.210   4.505   2.385
 9959SOL     OW31773   4.416   1.770   5.552
 9959SOL    HW131774   4.404   1.840   5.488
 9959SOL    HW231775   4.429   1.815   5.636
 9960SOL     OW31776   3.391   7.317   1.294
 9960SOL    HW131777   3.307   7.271   1.293
 9960SOL    HW231778   3.456   7.248   1.282
 9961SOL     OW31779   8.438   4.888   5.018
 9961SOL    HW131780   8.461   4.980   5.005
 9961SOL    HW231781   8.350   4.879   4.981
 9962SOL     OW31782   6.960  14.135   3.884
 9962SOL    HW131783   6.887  14.194   3.903
 9962SOL    HW231784   6.936  14.052   3.925
 9963SOL     OW31785   7.311  13.761   2.272
 9963SOL    HW131786   7.299  13.753   2.366
 9963SOL    HW231787   7.348  13.849   2.260
 9964SOL     OW31788   0.174   6.464  12.353
 9964SOL    HW131789   0.140   6.375  12.346
 9964SOL    HW231790   0.169   6.499  12.264
 9965SOL     OW31791   8.161  10.562  13.959
 9965SOL    HW131792   8.114  10.555  13.876
 9965SOL    HW231793   8.093  10.578  14.024
 9966SOL     OW31794  13.570   9.089  11.519
 9966SOL    HW131795  13.510   9.051  11.584
 9966SOL    HW231796  13.644   9.120  11.570
 9967SOL     OW31797   4.412  12.278   3.150
 9967SOL    HW131798   4.496  12.244   3.180
 9967SOL    HW231799   4.398  12.357   3.202
 9968SOL     OW31800   9.935  10.531  10.944
 9968SOL    HW131801   9.949  10.626  10.947
 9968SOL    HW231802   9.895  10.516  10.858
 9969SOL     OW31803   8.521   0.138   2.906
 9969SOL    HW131804   8.471   0.116   2.828
 9969SOL    HW231805   8.494   0.073   2.971
 9970SOL     OW31806   2.205   5.778   7.661
 9970SOL    HW131807   2.229   5.710   7.598
 9970SOL    HW231808   2.272   5.770   7.730
 9971SOL     OW31809  13.360   1.015  10.409
 9971SOL    HW131810  13.269   1.008  10.378
 9971SOL    HW231811  13.370   1.107  10.432
 9972SOL     OW31812   9.774   6.789   3.390
 9972SOL    HW131813   9.766   6.879   3.360
 9972SOL    HW231814   9.709   6.740   3.339
 9973SOL     OW31815   8.266  12.233  13.013
 9973SOL    HW131816   8.251  12.230  12.919
 9973SOL    HW231817   8.193  12.182  13.051
 9974SOL     OW31818   3.158   8.222   2.062
 9974SOL    HW131819   3.109   8.148   2.099
 9974SOL    HW231820   3.139   8.218   1.969
 9975SOL     OW31821  12.288   3.522   9.791
 9975SOL    HW131822  12.246   3.445   9.753
 9975SOL    HW231823  12.379   3.515   9.763
 9976SOL     OW31824  12.916   7.742   7.408
 9976SOL    HW131825  12.979   7.803   7.449
 9976SOL    HW231826  12.901   7.676   7.475
 9977SOL     OW31827  12.991   4.259   5.695
 9977SOL    HW131828  12.960   4.171   5.673
 9977SOL    HW231829  13.001   4.303   5.611
 9978SOL     OW31830  13.605   1.627   5.368
 9978SOL    HW131831  13.585   1.554   5.309
 9978SOL    HW231832  13.528   1.633   5.426
 9979SOL     OW31833   8.590   8.693  12.784
 9979SOL    HW131834   8.624   8.646  12.709
 9979SOL    HW231835   8.592   8.629  12.856
 9980SOL     OW31836   8.327   8.929  14.068
 9980SOL    HW131837   8.341   8.860  14.133
 9980SOL    HW231838   8.341   8.886  13.984
 9981SOL     OW31839   5.066  13.162   6.042
 9981SOL    HW131840   5.147  13.118   6.015
 9981SOL    HW231841   5.090  13.209   6.122
 9982SOL     OW31842   9.000  10.489  14.316
 9982SOL    HW131843   8.976  10.541  14.239
 9982SOL    HW231844   8.978  10.546  14.391
 9983SOL     OW31845  14.737   4.672   9.103
 9983SOL    HW131846  14.750   4.641   9.013
 9983SOL    HW231847  14.694   4.757   9.092
 9984SOL     OW31848   9.536   5.544   4.327
 9984SOL    HW131849   9.589   5.576   4.254
 9984SOL    HW231850   9.504   5.624   4.370
 9985SOL     OW31851  12.236   2.165   8.818
 9985SOL    HW131852  12.285   2.207   8.888
 9985SOL    HW231853  12.295   2.098   8.783
 9986SOL     OW31854   8.914   4.665  11.051
 9986SOL    HW131855   8.967   4.651  10.972
 9986SOL    HW231856   8.862   4.585  11.059
 9987SOL     OW31857  11.006   8.284  14.259
 9987SOL    HW131858  10.997   8.317  14.348
 9987SOL    HW231859  11.056   8.203  14.267
 9988SOL     OW31860   4.749  11.600  13.449
 9988SOL    HW131861   4.834  11.566  13.479
 9988SOL    HW231862   4.717  11.652  13.522
 9989SOL     OW31863   8.959  12.509   2.652
 9989SOL    HW131864   8.990  12.599   2.651
 9989SOL    HW231865   8.937  12.490   2.560
 9990SOL     OW31866  11.013  11.186   6.531
 9990SOL    HW131867  11.022  11.241   6.609
 9990SOL    HW231868  10.944  11.123   6.554
 9991SOL     OW31869   4.260   7.454  12.714
 9991SOL    HW131870   4.207   7.452  12.794
 9991SOL    HW231871   4.266   7.547  12.692
 9992SOL     OW31872   1.413  12.598   2.841
 9992SOL    HW131873   1.326  12.624   2.871
 9992SOL    HW231874   1.443  12.671   2.786
 9993SOL     OW31875  11.964  10.608   3.609
 9993SOL    HW131876  11.874  10.628   3.636
 9993SOL    HW231877  12.002  10.562   3.683
 9994SOL     OW31878  13.155  11.499  13.940
 9994SOL    HW131879  13.188  11.429  13.997
 9994SOL    HW231880  13.139  11.455  13.856
 9995SOL     OW31881  11.889  14.673  11.129
 9995SOL    HW131882  11.880  14.754  11.078
 9995SOL    HW231883  11.953  14.621  11.080
 9996SOL     OW31884   1.849  12.255   4.419
 9996SOL    HW131885   1.940  12.237   4.395
 9996SOL    HW231886   1.821  12.324   4.358
 9997SOL     OW31887   7.027   9.123   9.279
 9997SOL    HW131888   6.980   9.096   9.200
 9997SOL    HW231889   7.119   9.099   9.261
 9998SOL     OW31890  14.283   4.764  14.095
 9998SOL    HW131891  14.240   4.737  14.176
 9998SOL    HW231892  14.377   4.753  14.113
 9999SOL     OW31893  12.375   3.672   0.221
 9999SOL    HW131894  12.366   3.637   0.132
 9999SOL    HW231895  12.404   3.598   0.274
10000SOL     OW31896   5.549   7.858   1.923
10000SOL    HW131897   5.523   7.805   1.998
10000SOL    HW231898   5.615   7.918   1.957
10001SOL     OW31899  11.971  12.105   0.880
10001SOL    HW131900  11.992  12.138   0.967
10001SOL    HW231901  11.883  12.068   0.888
10002SOL     OW31902   1.872   2.918   4.994
10002SOL    HW131903   1.898   2.841   5.044
10002SOL    HW231904   1.845   2.883   4.909
10003SOL     OW31905   6.516   5.138  14.053
10003SOL    HW131906   6.575   5.204  14.091
10003SOL    HW231907   6.506   5.073  14.122
10004SOL     OW31908  13.755  10.431  12.563
10004SOL    HW131909  13.797  10.489  12.627
10004SOL    HW231910  13.679  10.396  12.609
10005SOL     OW31911  12.741   0.891   5.911
10005SOL    HW131912  12.788   0.808   5.904
10005SOL    HW231913  12.785   0.949   5.849
10006SOL     OW31914  12.407  12.612   3.290
10006SOL    HW131915  12.371  12.524   3.292
10006SOL    HW231916  12.465  12.613   3.214
10007SOL     OW31917   8.477   7.758  13.736
10007SOL    HW131918   8.529   7.701  13.678
10007SOL    HW231919   8.407   7.792  13.679
10008SOL     OW31920   6.196   5.014   7.170
10008SOL    HW131921   6.166   4.930   7.135
10008SOL    HW231922   6.123   5.046   7.223
10009SOL     OW31923  14.461  12.615  12.046
10009SOL    HW131924  14.530  12.571  11.997
10009SOL    HW231925  14.477  12.593  12.137
10010SOL     OW31926  11.753   6.744   1.941
10010SOL    HW131927  11.774   6.665   1.890
10010SOL    HW231928  11.745   6.713   2.031
10011SOL     OW31929  14.208   1.985  11.454
10011SOL    HW131930  14.266   2.029  11.516
10011SOL    HW231931  14.166   1.916  11.507
10012SOL     OW31932   9.028  12.224   6.607
10012SOL    HW131933   8.984  12.296   6.562
10012SOL    HW231934   9.051  12.259   6.693
10013SOL     OW31935   7.130  11.103   5.396
10013SOL    HW131936   7.044  11.102   5.354
10013SOL    HW231937   7.178  11.031   5.354
10014SOL     OW31938  11.847  12.010  12.192
10014SOL    HW131939  11.859  11.933  12.137
10014SOL    HW231940  11.765  11.995  12.238
10015SOL     OW31941   5.111  11.399   1.108
10015SOL    HW131942   5.018  11.377   1.097
10015SOL    HW231943   5.156  11.314   1.108
10016SOL     OW31944   4.733   9.433   2.652
10016SOL    HW131945   4.752   9.418   2.560
10016SOL    HW231946   4.799   9.496   2.681
10017SOL     OW31947   1.413  13.843   7.150
10017SOL    HW131948   1.343  13.818   7.091
10017SOL    HW231949   1.493  13.837   7.097
10018SOL     OW31950   5.209   3.393  14.646
10018SOL    HW131951   5.298   3.360  14.640
10018SOL    HW231952   5.156   3.317  14.669
10019SOL     OW31953   6.129   7.550   2.217
10019SOL    HW131954   6.139   7.557   2.122
10019SOL    HW231955   6.215   7.523   2.248
10020SOL     OW31956   7.511   0.287  14.581
10020SOL    HW131957   7.592   0.262  14.536
10020SOL    HW231958   7.472   0.354  14.526
10021SOL     OW31959  12.256   7.968   8.111
10021SOL    HW131960  12.268   7.880   8.147
10021SOL    HW231961  12.339   8.013   8.131
10022SOL     OW31962   9.439   2.519   3.167
10022SOL    HW131963   9.533   2.539   3.173
10022SOL    HW231964   9.404   2.585   3.106
10023SOL     OW31965   8.117   9.909  11.615
10023SOL    HW131966   8.196   9.956  11.586
10023SOL    HW231967   8.135   9.884  11.705
10024SOL     OW31968   5.940   9.626  10.133
10024SOL    HW131969   5.983   9.540  10.135
10024SOL    HW231970   5.863   9.616  10.188
10025SOL     OW31971   1.106  14.101   1.573
10025SOL    HW131972   1.151  14.121   1.491
10025SOL    HW231973   1.035  14.164   1.578
10026SOL     OW31974   6.016   0.726   0.143
10026SOL    HW131975   6.109   0.705   0.158
10026SOL    HW231976   6.006   0.814   0.180
10027SOL     OW31977   8.087  10.765   0.022
10027SOL    HW131978   8.128  10.680   0.040
10027SOL    HW231979   8.007  10.763   0.075
10028SOL     OW31980  12.138   8.379   1.340
10028SOL    HW131981  12.135   8.289   1.373
10028SOL    HW231982  12.048   8.397   1.312
10029SOL     OW31983   6.285   5.325  11.483
10029SOL    HW131984   6.200   5.303  11.443
10029SOL    HW231985   6.263   5.389  11.551
10030SOL     OW31986  13.237   2.214   0.256
10030SOL    HW131987  13.285   2.200   0.175
10030SOL    HW231988  13.305   2.224   0.323
10031SOL     OW31989   9.637   5.874  12.036
10031SOL    HW131990   9.698   5.888  12.109
10031SOL    HW231991   9.576   5.948  12.041
10032SOL     OW31992  13.890  11.898  14.517
10032SOL    HW131993  13.817  11.864  14.466
10032SOL    HW231994  13.917  11.826  14.573
10033SOL     OW31995   3.633   1.761  11.947
10033SOL    HW131996   3.557   1.708  11.924
10033SOL    HW231997   3.675   1.712  12.018
10034SOL     OW31998   3.637   2.879  12.486
10034SOL    HW131999   3.670   2.963  12.455
10034SOL    HW232000   3.548   2.897  12.516
10035SOL     OW32001  13.704   2.263  14.522
10035SOL    HW132002  13.704   2.328  14.452
10035SOL    HW232003  13.742   2.309  14.597
10036SOL     OW32004   8.345   9.285   0.642
10036SOL    HW132005   8.264   9.257   0.684
10036SOL    HW232006   8.413   9.233   0.684
10037SOL     OW32007  13.505   2.434   4.776
10037SOL    HW132008  13.467   2.500   4.718
10037SOL    HW232009  13.586   2.408   4.732
10038SOL     OW32010   5.357   3.720   3.045
10038SOL    HW132011   5.424   3.656   3.020
10038SOL    HW232012   5.362   3.723   3.140
10039SOL     OW32013   3.713   5.666   5.406
10039SOL    HW132014   3.682   5.607   5.474
10039SOL    HW232015   3.798   5.631   5.380
10040SOL     OW32016  14.864   8.094   1.671
10040SOL    HW132017   0.017   8.032   1.605
10040SOL    HW232018   0.063   8.124   1.716
10041SOL     OW32019   5.376   0.659   1.888
10041SOL    HW132020   5.337   0.717   1.823
10041SOL    HW232021   5.409   0.585   1.838
10042SOL     OW32022   1.988   9.384   5.621
10042SOL    HW132023   1.904   9.381   5.576
10042SOL    HW232024   2.048   9.422   5.558
10043SOL     OW32025   5.511   9.523   8.651
10043SOL    HW132026   5.598   9.543   8.616
10043SOL    HW232027   5.528   9.476   8.733
10044SOL     OW32028   2.538   1.867   7.521
10044SOL    HW132029   2.528   1.810   7.445
10044SOL    HW232030   2.623   1.909   7.509
10045SOL     OW32031   0.131   6.788  12.669
10045SOL    HW132032   0.054   6.787  12.611
10045SOL    HW232033   0.204   6.762  12.613
10046SOL     OW32034   6.437   1.658  12.264
10046SOL    HW132035   6.504   1.675  12.331
10046SOL    HW232036   6.398   1.744  12.246
10047SOL     OW32037  11.143   5.510   6.320
10047SOL    HW132038  11.149   5.415   6.330
10047SOL    HW232039  11.055   5.525   6.285
10048SOL     OW32040  11.265  12.544   5.019
10048SOL    HW132041  11.174  12.534   5.048
10048SOL    HW232042  11.276  12.638   5.009
10049SOL     OW32043   2.985  12.742   2.521
10049SOL    HW132044   3.041  12.803   2.568
10049SOL    HW232045   2.964  12.786   2.439
10050SOL     OW32046   6.505  12.651   1.108
10050SOL    HW132047   6.570  12.581   1.102
10050SOL    HW232048   6.505  12.675   1.201
10051SOL     OW32049   6.114   1.293   8.471
10051SOL    HW132050   6.164   1.239   8.534
10051SOL    HW232051   6.058   1.348   8.526
10052SOL     OW32052   9.947  10.711  13.274
10052SOL    HW132053   9.870  10.747  13.319
10052SOL    HW232054   9.989  10.787  13.235
10053SOL     OW32055   7.654   4.648   5.133
10053SOL    HW132056   7.612   4.569   5.099
10053SOL    HW232057   7.742   4.647   5.096
10054SOL     OW32058   0.536   9.773  12.777
10054SOL    HW132059   0.558   9.729  12.859
10054SOL    HW232060   0.617   9.817  12.751
10055SOL     OW32061  12.417   1.958   6.903
10055SOL    HW132062  12.461   2.039   6.927
10055SOL    HW232063  12.480   1.911   6.848
10056SOL     OW32064   2.749  14.375  10.084
10056SOL    HW132065   2.781  14.302  10.031
10056SOL    HW232066   2.723  14.334  10.167
10057SOL     OW32067   9.032  13.827   8.357
10057SOL    HW132068   9.127  13.818   8.349
10057SOL    HW232069   9.001  13.825   8.266
10058SOL     OW32070  14.233  10.022   0.193
10058SOL    HW132071  14.189   9.993   0.113
10058SOL    HW232072  14.309   9.965   0.201
10059SOL     OW32073   5.069   2.263  14.796
10059SOL    HW132074   5.028   2.340  14.835
10059SOL    HW232075   4.996   2.209  14.766
10060SOL     OW32076   8.098  11.283   0.571
10060SOL    HW132077   8.060  11.356   0.523
10060SOL    HW232078   8.151  11.323   0.640
10061SOL     OW32079   2.446   2.125   6.834
10061SOL    HW132080   2.425   2.049   6.889
10061SOL    HW232081   2.529   2.157   6.870
10062SOL     OW32082   8.800  14.640   9.764
10062SOL    HW132083   8.845  14.645   9.849
10062SOL    HW232084   8.868  14.614   9.702
10063SOL     OW32085  11.872   7.878   6.916
10063SOL    HW132086  11.902   7.867   7.006
10063SOL    HW232087  11.831   7.794   6.893
10064SOL     OW32088  14.578   1.871   0.878
10064SOL    HW132089  14.525   1.849   0.801
10064SOL    HW232090  14.556   1.962   0.897
10065SOL     OW32091   5.496   5.720   1.798
10065SOL    HW132092   5.422   5.778   1.817
10065SOL    HW232093   5.540   5.708   1.882
10066SOL     OW32094   6.514  10.173   5.876
10066SOL    HW132095   6.453  10.236   5.837
10066SOL    HW232096   6.473  10.088   5.863
10067SOL     OW32097  14.252  11.328   3.805
10067SOL    HW132098  14.178  11.347   3.862
10067SOL    HW232099  14.265  11.409   3.755
10068SOL     OW32100  12.996  11.487   3.415
10068SOL    HW132101  13.083  11.458   3.389
10068SOL    HW232102  12.938  11.447   3.350
10069SOL     OW32103  10.110   0.288   2.806
10069SOL    HW132104  10.140   0.274   2.716
10069SOL    HW232105  10.179   0.250   2.861
10070SOL     OW32106   4.215   3.776   6.834
10070SOL    HW132107   4.188   3.696   6.880
10070SOL    HW232108   4.236   3.748   6.745
10071SOL     OW32109   2.035   1.175  11.908
10071SOL    HW132110   1.987   1.247  11.868
10071SOL    HW232111   2.085   1.216  11.979
10072SOL     OW32112   3.879   8.689  13.535
10072SOL    HW132113   3.973   8.709  13.539
10072SOL    HW232114   3.866   8.623  13.603
10073SOL     OW32115  12.559   6.524   0.266
10073SOL    HW132116  12.593   6.509   0.178
10073SOL    HW232117  12.627   6.490   0.325
10074SOL     OW32118   6.278   0.890  13.957
10074SOL    HW132119   6.323   0.822  14.007
10074SOL    HW232120   6.197   0.906  14.007
10075SOL     OW32121  13.423   0.339   1.394
10075SOL    HW132122  13.402   0.320   1.485
10075SOL    HW232123  13.481   0.267   1.367
10076SOL     OW32124   5.520   2.061   7.096
10076SOL    HW132125   5.539   2.041   7.005
10076SOL    HW232126   5.425   2.073   7.099
10077SOL     OW32127   2.427  10.337  12.136
10077SOL    HW132128   2.420  10.390  12.056
10077SOL    HW232129   2.495  10.272  12.116
10078SOL     OW32130   9.207   6.124   0.112
10078SOL    HW132131   9.207   6.128   0.016
10078SOL    HW232132   9.194   6.214   0.140
10079SOL     OW32133   7.329   5.335   1.519
10079SOL    HW132134   7.233   5.341   1.518
10079SOL    HW232135   7.355   5.359   1.431
10080SOL     OW32136   8.116   4.892   4.034
10080SOL    HW132137   8.071   4.956   3.979
10080SOL    HW232138   8.046   4.838   4.071
10081SOL     OW32139  13.446  11.013  12.066
10081SOL    HW132140  13.474  11.103  12.077
10081SOL    HW232141  13.515  10.960  12.106
10082SOL     OW32142   1.606   5.540   9.918
10082SOL    HW132143   1.619   5.489   9.998
10082SOL    HW232144   1.683   5.522   9.865
10083SOL     OW32145   5.185  11.670  12.077
10083SOL    HW132146   5.151  11.585  12.050
10083SOL    HW232147   5.208  11.658  12.169
10084SOL     OW32148  10.415   2.143  14.420
10084SOL    HW132149  10.503   2.155  14.385
10084SOL    HW232150  10.358   2.154  14.344
10085SOL     OW32151   1.260   3.130   4.219
10085SOL    HW132152   1.186   3.108   4.162
10085SOL    HW232153   1.337   3.100   4.171
10086SOL     OW32154   2.453  11.871   6.076
10086SOL    HW132155   2.455  11.944   6.014
10086SOL    HW232156   2.460  11.912   6.162
10087SOL     OW32157  11.601   8.323   2.971
10087SOL    HW132158  11.527   8.347   3.027
10087SOL    HW232159  11.606   8.394   2.906
10088SOL     OW32160   8.885  10.333   9.399
10088SOL    HW132161   8.847  10.263   9.346
10088SOL    HW232162   8.810  10.372   9.445
10089SOL     OW32163   7.621   2.295   7.479
10089SOL    HW132164   7.591   2.210   7.511
10089SOL    HW232165   7.665   2.335   7.554
10090SOL     OW32166   8.060   3.444  10.337
10090SOL    HW132167   8.152   3.420  10.322
10090SOL    HW232168   8.029   3.378  10.400
10091SOL     OW32169   2.489  10.555   6.901
10091SOL    HW132170   2.521  10.645   6.906
10091SOL    HW232171   2.418  10.559   6.836
10092SOL     OW32172  13.018   4.696   4.843
10092SOL    HW132173  12.935   4.651   4.826
10092SOL    HW232174  13.041   4.736   4.759
10093SOL     OW32175   8.354   9.167  14.278
10093SOL    HW132176   8.330   9.133  14.192
10093SOL    HW232177   8.347   9.262  14.269
10094SOL     OW32178  14.409  13.309   7.736
10094SOL    HW132179  14.426  13.336   7.646
10094SOL    HW232180  14.340  13.243   7.729
10095SOL     OW32181   5.750   4.612   4.920
10095SOL    HW132182   5.732   4.674   4.849
10095SOL    HW232183   5.827   4.564   4.891
10096SOL     OW32184  12.708   5.713  11.131
10096SOL    HW132185  12.667   5.791  11.167
10096SOL    HW232186  12.643   5.644  11.145
10097SOL     OW32187  13.402  12.183   3.258
10097SOL    HW132188  13.449  12.189   3.175
10097SOL    HW232189  13.461  12.222   3.322
10098SOL     OW32190   9.101  13.923   7.817
10098SOL    HW132191   9.140  13.902   7.732
10098SOL    HW232192   9.163  13.984   7.857
10099SOL     OW32193   0.019  12.401   2.262
10099SOL    HW132194   0.073  12.420   2.338
10099SOL    HW232195   0.042  12.310   2.239
10100SOL     OW32196   7.298   5.378  10.289
10100SOL    HW132197   7.281   5.284  10.285
10100SOL    HW232198   7.369   5.386  10.354
10101SOL     OW32199  11.792   7.708   9.423
10101SOL    HW132200  11.823   7.622   9.450
10101SOL    HW232201  11.748   7.693   9.340
10102SOL     OW32202  10.817  11.518  11.887
10102SOL    HW132203  10.760  11.595  11.887
10102SOL    HW232204  10.904  11.553  11.871
10103SOL     OW32205   2.693   9.599   3.817
10103SOL    HW132206   2.659   9.688   3.828
10103SOL    HW232207   2.789   9.609   3.822
10104SOL     OW32208   9.847   8.613   2.843
10104SOL    HW132209   9.870   8.643   2.931
10104SOL    HW232210   9.759   8.647   2.828
10105SOL     OW32211   2.932   8.803  11.702
10105SOL    HW132212   2.980   8.758  11.633
10105SOL    HW232213   2.996   8.865  11.738
10106SOL     OW32214   1.627   7.747  14.647
10106SOL    HW132215   1.572   7.671  14.626
10106SOL    HW232216   1.645   7.787  14.563
10107SOL     OW32217   6.390  14.474  12.890
10107SOL    HW132218   6.399  14.383  12.915
10107SOL    HW232219   6.449  14.521  12.948
10108SOL     OW32220   0.081   4.598  10.980
10108SOL    HW132221   0.105   4.593  10.887
10108SOL    HW232222   0.074   4.691  10.999
10109SOL     OW32223   8.038   8.664  13.608
10109SOL    HW132224   7.950   8.694  13.628
10109SOL    HW232225   8.037   8.649  13.513
10110SOL     OW32226   6.907  10.081  14.151
10110SOL    HW132227   6.812  10.089  14.159
10110SOL    HW232228   6.924   9.987  14.162
10111SOL     OW32229   8.694  11.508   9.535
10111SOL    HW132230   8.653  11.578   9.483
10111SOL    HW232231   8.623  11.445   9.548
10112SOL     OW32232  12.690   7.953  10.841
10112SOL    HW132233  12.748   7.909  10.903
10112SOL    HW232234  12.748   8.007  10.787
10113SOL     OW32235  12.100   8.856   6.515
10113SOL    HW132236  12.015   8.890   6.543
10113SOL    HW232237  12.108   8.883   6.424
10114SOL     OW32238   5.075  14.817   0.928
10114SOL    HW132239   5.014  14.771   0.986
10114SOL    HW232240   5.153  14.762   0.927
10115SOL     OW32241   9.516   5.835   1.442
10115SOL    HW132242   9.581   5.787   1.389
10115SOL    HW232243   9.568   5.888   1.502
10116SOL     OW32244   1.423  12.749  11.982
10116SOL    HW132245   1.375  12.712  12.056
10116SOL    HW232246   1.393  12.698  11.907
10117SOL     OW32247  11.152  12.773   3.244
10117SOL    HW132248  11.067  12.800   3.280
10117SOL    HW232249  11.200  12.855   3.232
10118SOL     OW32250   3.860   3.351   0.997
10118SOL    HW132251   3.858   3.421   0.933
10118SOL    HW232252   3.940   3.302   0.977
10119SOL     OW32253   2.665   1.199   3.398
10119SOL    HW132254   2.676   1.111   3.434
10119SOL    HW232255   2.658   1.185   3.304
10120SOL     OW32256   0.280   8.538  12.345
10120SOL    HW132257   0.366   8.522  12.383
10120SOL    HW232258   0.263   8.631  12.364
10121SOL     OW32259  13.866   9.448  14.434
10121SOL    HW132260  13.831   9.457  14.345
10121SOL    HW232261  13.941   9.390  14.425
10122SOL     OW32262   7.253   7.787  13.978
10122SOL    HW132263   7.237   7.703  14.021
10122SOL    HW232264   7.244   7.769  13.885
10123SOL     OW32265  12.864   6.227  12.423
10123SOL    HW132266  12.853   6.142  12.467
10123SOL    HW232267  12.826   6.214  12.336
10124SOL     OW32268  12.064   5.705   6.102
10124SOL    HW132269  12.018   5.743   6.027
10124SOL    HW232270  12.146   5.673   6.065
10125SOL     OW32271  12.245   4.060   0.896
10125SOL    HW132272  12.206   4.135   0.942
10125SOL    HW232273  12.309   4.099   0.837
10126SOL     OW32274  13.232  10.273   6.720
10126SOL    HW132275  13.171  10.342   6.694
10126SOL    HW232276  13.227  10.209   6.649
10127SOL     OW32277   2.278   7.249  10.706
10127SOL    HW132278   2.282   7.245  10.610
10127SOL    HW232279   2.230   7.330  10.725
10128SOL     OW32280   0.164   4.439  14.354
10128SOL    HW132281   0.228   4.446  14.425
10128SOL    HW232282   0.098   4.505  14.374
10129SOL     OW32283  13.310   9.119   4.899
10129SOL    HW132284  13.314   9.185   4.968
10129SOL    HW232285  13.399   9.084   4.894
10130SOL     OW32286  10.416   7.883   6.683
10130SOL    HW132287  10.391   7.805   6.635
10130SOL    HW232288  10.333   7.923   6.710
10131SOL     OW32289  12.030   1.154  14.387
10131SOL    HW132290  12.039   1.059  14.378
10131SOL    HW232291  12.095   1.178  14.453
10132SOL     OW32292  12.168   9.022   0.368
10132SOL    HW132293  12.156   8.939   0.322
10132SOL    HW232294  12.165   9.088   0.299
10133SOL     OW32295   6.147  14.700  14.080
10133SOL    HW132296   6.072  14.640  14.078
10133SOL    HW232297   6.111  14.784  14.052
10134SOL     OW32298  13.486  14.492   9.559
10134SOL    HW132299  13.549  14.562   9.542
10134SOL    HW232300  13.538  14.420   9.594
10135SOL     OW32301  11.196   4.729   0.750
10135SOL    HW132302  11.106   4.758   0.759
10135SOL    HW232303  11.219   4.750   0.659
10136SOL     OW32304  10.328  14.174   4.353
10136SOL    HW132305  10.307  14.083   4.331
10136SOL    HW232306  10.409  14.192   4.306
10137SOL     OW32307   3.405  13.523   9.077
10137SOL    HW132308   3.362  13.569   9.004
10137SOL    HW232309   3.496  13.513   9.048
10138SOL     OW32310  14.653   2.031   1.274
10138SOL    HW132311  14.650   1.937   1.254
10138SOL    HW232312  14.562   2.060   1.266
10139SOL     OW32313  14.308   1.162   0.352
10139SOL    HW132314  14.364   1.211   0.291
10139SOL    HW232315  14.309   1.073   0.319
10140SOL     OW32316   4.963   7.545   1.139
10140SOL    HW132317   4.880   7.593   1.147
10140SOL    HW232318   4.937   7.455   1.118
10141SOL     OW32319   3.935   7.851   9.584
10141SOL    HW132320   3.862   7.807   9.627
10141SOL    HW232321   4.011   7.796   9.604
10142SOL     OW32322   9.356   0.442  11.062
10142SOL    HW132323   9.285   0.386  11.030
10142SOL    HW232324   9.388   0.397  11.140
10143SOL     OW32325   7.770   2.188  12.834
10143SOL    HW132326   7.816   2.198  12.918
10143SOL    HW232327   7.839   2.202  12.769
10144SOL     OW32328   7.886  12.809   8.682
10144SOL    HW132329   7.797  12.832   8.656
10144SOL    HW232330   7.903  12.861   8.761
10145SOL     OW32331  11.659   4.144  12.107
10145SOL    HW132332  11.687   4.070  12.162
10145SOL    HW232333  11.705   4.131  12.024
10146SOL     OW32334   9.347   1.423   6.409
10146SOL    HW132335   9.392   1.463   6.335
10146SOL    HW232336   9.274   1.376   6.370
10147SOL     OW32337  13.900   5.043   0.290
10147SOL    HW132338  13.877   5.007   0.204
10147SOL    HW232339  13.817   5.044   0.338
10148SOL     OW32340  13.617   0.353  13.832
10148SOL    HW132341  13.628   0.434  13.782
10148SOL    HW232342  13.658   0.285  13.778
10149SOL     OW32343   9.349   9.368  10.664
10149SOL    HW132344   9.273   9.398  10.615
10149SOL    HW232345   9.342   9.273  10.663
10150SOL     OW32346   8.792   8.767  11.340
10150SOL    HW132347   8.887   8.755  11.329
10150SOL    HW232348   8.775   8.855  11.307
10151SOL     OW32349   8.347   5.304  14.792
10151SOL    HW132350   8.438   5.331  14.797
10151SOL    HW232351   8.324   5.282   0.002
10152SOL     OW32352   3.566   2.551   5.417
10152SOL    HW132353   3.531   2.475   5.372
10152SOL    HW232354   3.639   2.517   5.470
10153SOL     OW32355   1.935   3.814   1.932
10153SOL    HW132356   1.924   3.766   2.014
10153SOL    HW232357   1.856   3.794   1.881
10154SOL     OW32358   3.017   9.627  13.990
10154SOL    HW132359   3.017   9.717  13.957
10154SOL    HW232360   3.094   9.587  13.950
10155SOL     OW32361   8.011   1.145   1.754
10155SOL    HW132362   8.065   1.110   1.684
10155SOL    HW232363   8.073   1.177   1.819
10156SOL     OW32364   0.059   6.744   4.215
10156SOL    HW132365   0.140   6.709   4.253
10156SOL    HW232366   0.053   6.833   4.247
10157SOL     OW32367   6.559   0.679   8.708
10157SOL    HW132368   6.613   0.603   8.685
10157SOL    HW232369   6.618   0.754   8.702
10158SOL     OW32370   8.482   5.522   5.266
10158SOL    HW132371   8.540   5.465   5.316
10158SOL    HW232372   8.487   5.488   5.176
10159SOL     OW32373   3.665  13.702   4.647
10159SOL    HW132374   3.696  13.784   4.685
10159SOL    HW232375   3.595  13.728   4.588
10160SOL     OW32376   5.499   6.665   9.798
10160SOL    HW132377   5.470   6.667   9.889
10160SOL    HW232378   5.524   6.755   9.778
10161SOL     OW32379   8.572   1.252   7.972
10161SOL    HW132380   8.590   1.186   7.905
10161SOL    HW232381   8.655   1.262   8.019
10162SOL     OW32382  11.322   5.585   5.309
10162SOL    HW132383  11.312   5.540   5.225
10162SOL    HW232384  11.406   5.631   5.302
10163SOL     OW32385   4.880   9.339   1.485
10163SOL    HW132386   4.856   9.247   1.482
10163SOL    HW232387   4.815   9.380   1.541
10164SOL     OW32388   1.606  13.173   4.683
10164SOL    HW132389   1.541  13.177   4.613
10164SOL    HW232390   1.624  13.264   4.705
10165SOL     OW32391  12.208   6.906   2.778
10165SOL    HW132392  12.186   6.995   2.752
10165SOL    HW232393  12.124   6.863   2.791
10166SOL     OW32394   3.092  11.672  12.914
10166SOL    HW132395   3.046  11.708  12.838
10166SOL    HW232396   3.081  11.577  12.906
10167SOL     OW32397   7.758  11.974  13.451
10167SOL    HW132398   7.696  11.973  13.378
10167SOL    HW232399   7.741  12.056  13.496
10168SOL     OW32400   3.856   6.414   7.929
10168SOL    HW132401   3.852   6.434   8.023
10168SOL    HW232402   3.835   6.497   7.886
10169SOL     OW32403  13.294  14.815   4.461
10169SOL    HW132404  13.269  14.787   4.373
10169SOL    HW232405  13.273  14.740   4.517
10170SOL     OW32406  14.608  14.383   1.476
10170SOL    HW132407  14.557  14.460   1.450
10170SOL    HW232408  14.604  14.325   1.400
10171SOL     OW32409   2.898   0.793  13.804
10171SOL    HW132410   2.959   0.742  13.858
10171SOL    HW232411   2.950   0.821  13.729
10172SOL     OW32412   2.308   7.143  11.319
10172SOL    HW132413   2.235   7.117  11.263
10172SOL    HW232414   2.350   7.216  11.272
10173SOL     OW32415  11.939   1.865  12.528
10173SOL    HW132416  11.850   1.830  12.526
10173SOL    HW232417  11.927   1.960  12.526
10174SOL     OW32418   8.505  10.653  14.026
10174SOL    HW132419   8.428  10.701  14.055
10174SOL    HW232420   8.486  10.627  13.936
10175SOL     OW32421  14.506  13.053   7.881
10175SOL    HW132422  14.438  13.117   7.900
10175SOL    HW232423  14.529  13.015   7.966
10176SOL     OW32424   6.488   0.074  10.420
10176SOL    HW132425   6.512   0.143  10.482
10176SOL    HW232426   6.544   0.000  10.443
10177SOL     OW32427   1.201   7.586   8.386
10177SOL    HW132428   1.247   7.503   8.398
10177SOL    HW232429   1.204   7.601   8.291
10178SOL     OW32430   9.412   6.284   6.069
10178SOL    HW132431   9.435   6.269   6.161
10178SOL    HW232432   9.488   6.251   6.021
10179SOL     OW32433   8.449   8.527   3.784
10179SOL    HW132434   8.480   8.443   3.749
10179SOL    HW232435   8.483   8.592   3.722
10180SOL     OW32436   5.339  12.476  13.015
10180SOL    HW132437   5.434  12.469  13.024
10180SOL    HW232438   5.304  12.423  13.087
10181SOL     OW32439   1.460   5.246   3.604
10181SOL    HW132440   1.419   5.293   3.531
10181SOL    HW232441   1.450   5.305   3.679
10182SOL     OW32442   0.513  11.316   1.908
10182SOL    HW132443   0.600  11.294   1.874
10182SOL    HW232444   0.454  11.255   1.865
10183SOL     OW32445   1.585   5.084   7.917
10183SOL    HW132446   1.561   4.993   7.931
10183SOL    HW232447   1.503   5.132   7.924
10184SOL     OW32448  14.349   0.700  10.563
10184SOL    HW132449  14.306   0.683  10.480
10184SOL    HW232450  14.380   0.615  10.593
10185SOL     OW32451  13.890  13.215   0.434
10185SOL    HW132452  13.851  13.239   0.518
10185SOL    HW232453  13.822  13.166   0.388
10186SOL     OW32454  11.280   9.699   5.156
10186SOL    HW132455  11.290   9.641   5.232
10186SOL    HW232456  11.356   9.758   5.161
10187SOL     OW32457   6.675   3.766  13.935
10187SOL    HW132458   6.715   3.777  13.849
10187SOL    HW232459   6.668   3.854  13.971
10188SOL     OW32460  10.321   9.528   3.216
10188SOL    HW132461  10.375   9.538   3.137
10188SOL    HW232462  10.382   9.493   3.281
10189SOL     OW32463  14.416   0.615  14.359
10189SOL    HW132464  14.350   0.662  14.410
10189SOL    HW232465  14.484   0.592  14.423
10190SOL     OW32466   5.521   7.931   8.508
10190SOL    HW132467   5.532   7.836   8.507
10190SOL    HW232468   5.606   7.965   8.481
10191SOL     OW32469   0.057  12.535  13.994
10191SOL    HW132470   0.143  12.574  14.007
10191SOL    HW232471   0.004  12.606  13.958
10192SOL     OW32472   9.604   8.844   4.879
10192SOL    HW132473   9.595   8.923   4.934
10192SOL    HW232474   9.515   8.815   4.864
10193SOL     OW32475  14.563  10.161   9.434
10193SOL    HW132476  14.519  10.100   9.493
10193SOL    HW232477  14.506  10.166   9.358
10194SOL     OW32478   8.504   8.060   1.940
10194SOL    HW132479   8.456   8.088   1.862
10194SOL    HW232480   8.595   8.082   1.921
10195SOL     OW32481   1.832   7.443  13.525
10195SOL    HW132482   1.926   7.425  13.518
10195SOL    HW232483   1.792   7.384  13.461
10196SOL     OW32484   1.137  11.981   9.805
10196SOL    HW132485   1.155  11.903   9.752
10196SOL    HW232486   1.144  11.951   9.896
10197SOL     OW32487   3.445  11.968   6.557
10197SOL    HW132488   3.453  11.998   6.647
10197SOL    HW232489   3.352  11.946   6.548
10198SOL     OW32490   4.236  13.827   9.523
10198SOL    HW132491   4.182  13.765   9.571
10198SOL    HW232492   4.319  13.828   9.570
10199SOL     OW32493   0.662   3.522   5.299
10199SOL    HW132494   0.724   3.529   5.226
10199SOL    HW232495   0.598   3.458   5.270
10200SOL     OW32496   8.885  11.756  12.743
10200SOL    HW132497   8.794  11.769  12.716
10200SOL    HW232498   8.936  11.802  12.677
10201SOL     OW32499  11.772   3.569   3.739
10201SOL    HW132500  11.690   3.536   3.701
10201SOL    HW232501  11.840   3.537   3.680
10202SOL     OW32502   5.384   3.264  13.478
10202SOL    HW132503   5.397   3.188  13.534
10202SOL    HW232504   5.417   3.338  13.529
10203SOL     OW32505   3.074   5.210   5.802
10203SOL    HW132506   3.109   5.293   5.834
10203SOL    HW232507   3.149   5.166   5.762
10204SOL     OW32508   7.712   3.568  12.979
10204SOL    HW132509   7.735   3.549  12.888
10204SOL    HW232510   7.791   3.605  13.017
10205SOL     OW32511   9.292   0.846  11.781
10205SOL    HW132512   9.288   0.900  11.860
10205SOL    HW232513   9.343   0.898  11.719
10206SOL     OW32514  13.047   4.576  13.252
10206SOL    HW132515  13.049   4.488  13.216
10206SOL    HW232516  13.050   4.633  13.175
10207SOL     OW32517  12.184   6.999   4.838
10207SOL    HW132518  12.217   7.080   4.877
10207SOL    HW232519  12.100   7.023   4.799
10208SOL     OW32520   5.804  11.991   2.948
10208SOL    HW132521   5.874  11.938   2.986
10208SOL    HW232522   5.789  11.952   2.862
10209SOL     OW32523  14.535  14.702   9.805
10209SOL    HW132524  14.473  14.649   9.756
10209SOL    HW232525  14.570  14.643   9.872
10210SOL     OW32526   8.450   1.663   3.313
10210SOL    HW132527   8.399   1.599   3.362
10210SOL    HW232528   8.528   1.615   3.286
10211SOL     OW32529   5.255   8.982  13.649
10211SOL    HW132530   5.240   8.893  13.615
10211SOL    HW232531   5.350   8.991  13.652
10212SOL     OW32532   1.082   5.243   8.797
10212SOL    HW132533   1.170   5.214   8.773
10212SOL    HW232534   1.092   5.337   8.816
10213SOL     OW32535   5.784   1.785   1.208
10213SOL    HW132536   5.825   1.703   1.182
10213SOL    HW232537   5.809   1.797   1.299
10214SOL     OW32538   2.924   2.078  13.532
10214SOL    HW132539   2.854   2.120  13.581
10214SOL    HW232540   2.980   2.040  13.599
10215SOL     OW32541  12.359   2.635   5.062
10215SOL    HW132542  12.273   2.670   5.084
10215SOL    HW232543  12.362   2.637   4.966
10216SOL     OW32544   1.867   6.588  14.136
10216SOL    HW132545   1.954   6.577  14.175
10216SOL    HW232546   1.809   6.535  14.191
10217SOL     OW32547  13.352   4.550   6.737
10217SOL    HW132548  13.372   4.457   6.733
10217SOL    HW232549  13.261   4.557   6.706
10218SOL     OW32550   4.836   6.043   7.940
10218SOL    HW132551   4.839   5.953   7.908
10218SOL    HW232552   4.900   6.089   7.885
10219SOL     OW32553  14.662   3.587   3.468
10219SOL    HW132554  14.676   3.526   3.540
10219SOL    HW232555  14.741   3.581   3.415
10220SOL     OW32556   2.401   6.540   8.264
10220SOL    HW132557   2.340   6.580   8.326
10220SOL    HW232558   2.439   6.466   8.310
10221SOL     OW32559  10.774   3.748  13.429
10221SOL    HW132560  10.749   3.661  13.460
10221SOL    HW232561  10.868   3.754  13.449
10222SOL     OW32562  11.386   3.857   5.974
10222SOL    HW132563  11.393   3.771   6.015
10222SOL    HW232564  11.445   3.913   6.025
10223SOL     OW32565   2.515   3.645   2.390
10223SOL    HW132566   2.588   3.681   2.340
10223SOL    HW232567   2.553   3.571   2.439
10224SOL     OW32568  11.734   4.294   8.693
10224SOL    HW132569  11.648   4.253   8.695
10224SOL    HW232570  11.753   4.304   8.600
10225SOL     OW32571   4.153   2.282  11.483
10225SOL    HW132572   4.067   2.321  11.468
10225SOL    HW232573   4.205   2.352  11.523
10226SOL     OW32574   3.167   0.584   0.753
10226SOL    HW132575   3.192   0.514   0.814
10226SOL    HW232576   3.073   0.594   0.764
10227SOL     OW32577  11.258   2.792   6.440
10227SOL    HW132578  11.182   2.850   6.445
10227SOL    HW232579  11.328   2.839   6.486
10228SOL     OW32580   9.568  14.362  11.821
10228SOL    HW132581   9.658  14.372  11.790
10228SOL    HW232582   9.575  14.303  11.896
10229SOL     OW32583   7.143   4.353   3.714
10229SOL    HW132584   7.083   4.293   3.670
10229SOL    HW232585   7.199   4.296   3.768
10230SOL     OW32586   1.099   6.731  12.606
10230SOL    HW132587   1.121   6.653  12.555
10230SOL    HW232588   1.042   6.699  12.676
10231SOL     OW32589   8.245   5.785   4.111
10231SOL    HW132590   8.326   5.764   4.158
10231SOL    HW232591   8.176   5.772   4.177
10232SOL     OW32592   7.286   9.823   9.189
10232SOL    HW132593   7.344   9.888   9.150
10232SOL    HW232594   7.304   9.742   9.141
10233SOL     OW32595   7.205  10.036   2.884
10233SOL    HW132596   7.163  10.103   2.937
10233SOL    HW232597   7.132   9.990   2.841
10234SOL     OW32598  10.013  13.140   9.655
10234SOL    HW132599   9.998  13.063   9.711
10234SOL    HW232600   9.933  13.191   9.662
10235SOL     OW32601   3.327   6.676  11.849
10235SOL    HW132602   3.334   6.713  11.937
10235SOL    HW232603   3.274   6.739  11.801
10236SOL     OW32604   7.462   0.374   4.384
10236SOL    HW132605   7.554   0.381   4.357
10236SOL    HW232606   7.449   0.450   4.441
10237SOL     OW32607   5.497   9.256   0.745
10237SOL    HW132608   5.434   9.227   0.811
10237SOL    HW232609   5.481   9.200   0.669
10238SOL     OW32610  11.624  10.799   5.379
10238SOL    HW132611  11.710  10.796   5.337
10238SOL    HW232612  11.603  10.892   5.386
10239SOL     OW32613   3.092   3.751   9.090
10239SOL    HW132614   3.094   3.841   9.123
10239SOL    HW232615   3.088   3.761   8.995
10240SOL     OW32616   2.005   1.235   3.832
10240SOL    HW132617   2.012   1.149   3.789
10240SOL    HW232618   2.043   1.221   3.919
10241SOL     OW32619   7.372   1.466  12.826
10241SOL    HW132620   7.433   1.392  12.819
10241SOL    HW232621   7.381   1.512  12.743
10242SOL     OW32622   2.389  13.521   7.141
10242SOL    HW132623   2.335  13.535   7.219
10242SOL    HW232624   2.371  13.597   7.085
10243SOL     OW32625  10.875   5.267   2.607
10243SOL    HW132626  10.843   5.345   2.653
10243SOL    HW232627  10.809   5.252   2.538
10244SOL     OW32628   4.393   4.335  13.938
10244SOL    HW132629   4.449   4.265  13.906
10244SOL    HW232630   4.452   4.407  13.956
10245SOL     OW32631   1.206   7.867   4.632
10245SOL    HW132632   1.230   7.902   4.718
10245SOL    HW232633   1.114   7.840   4.642
10246SOL     OW32634   3.300   3.443   4.727
10246SOL    HW132635   3.298   3.401   4.641
10246SOL    HW232636   3.310   3.536   4.708
10247SOL     OW32637   3.788  13.706   4.153
10247SOL    HW132638   3.795  13.712   4.058
10247SOL    HW232639   3.737  13.783   4.178
10248SOL     OW32640   7.152   9.211  13.369
10248SOL    HW132641   7.135   9.157  13.446
10248SOL    HW232642   7.244   9.235  13.376
10249SOL     OW32643  11.587   3.566   9.180
10249SOL    HW132644  11.614   3.477   9.157
10249SOL    HW232645  11.496   3.557   9.209
10250SOL     OW32646  10.829   8.842   0.445
10250SOL    HW132647  10.755   8.877   0.496
10250SOL    HW232648  10.787   8.795   0.373
10251SOL     OW32649   5.289  10.809  11.382
10251SOL    HW132650   5.336  10.725  11.377
10251SOL    HW232651   5.262  10.827  11.292
10252SOL     OW32652  12.269   5.213   3.316
10252SOL    HW132653  12.194   5.161   3.289
10252SOL    HW232654  12.295   5.175   3.400
10253SOL     OW32655   1.851   1.486   1.484
10253SOL    HW132656   1.798   1.451   1.412
10253SOL    HW232657   1.925   1.529   1.441
10254SOL     OW32658  12.302   9.445  14.151
10254SOL    HW132659  12.320   9.351  14.150
10254SOL    HW232660  12.388   9.486  14.138
10255SOL     OW32661   3.364   4.856   0.748
10255SOL    HW132662   3.457   4.861   0.771
10255SOL    HW232663   3.337   4.948   0.741
10256SOL     OW32664   5.818  13.731   8.508
10256SOL    HW132665   5.809  13.714   8.602
10256SOL    HW232666   5.790  13.649   8.466
10257SOL     OW32667  11.187   9.523  12.051
10257SOL    HW132668  11.271   9.544  12.011
10257SOL    HW232669  11.122   9.545  11.985
10258SOL     OW32670   8.619   5.810   6.360
10258SOL    HW132671   8.554   5.855   6.306
10258SOL    HW232672   8.698   5.864   6.354
10259SOL     OW32673  11.999  10.472  11.429
10259SOL    HW132674  12.047  10.554  11.439
10259SOL    HW232675  11.984  10.464  11.335
10260SOL     OW32676   7.496   6.860   7.458
10260SOL    HW132677   7.538   6.894   7.537
10260SOL    HW232678   7.552   6.891   7.386
10261SOL     OW32679   0.740   8.626   9.483
10261SOL    HW132680   0.728   8.694   9.417
10261SOL    HW232681   0.818   8.654   9.532
10262SOL     OW32682   7.744   4.978   2.636
10262SOL    HW132683   7.781   5.056   2.678
10262SOL    HW232684   7.805   4.957   2.566
10263SOL     OW32685   3.117   9.453  13.672
10263SOL    HW132686   3.129   9.548  13.661
10263SOL    HW232687   3.154   9.435  13.758
10264SOL     OW32688   2.171   6.772  11.013
10264SOL    HW132689   2.228   6.714  11.063
10264SOL    HW232690   2.225   6.849  10.995
10265SOL     OW32691  13.133  13.112   5.352
10265SOL    HW132692  13.057  13.061   5.381
10265SOL    HW232693  13.143  13.180   5.418
10266SOL     OW32694   9.891  10.013   9.004
10266SOL    HW132695   9.878  10.058   9.087
10266SOL    HW232696   9.804   9.983   8.979
10267SOL     OW32697  13.560  13.097   8.465
10267SOL    HW132698  13.501  13.150   8.519
10267SOL    HW232699  13.538  13.007   8.487
10268SOL     OW32700   6.805   1.477  12.427
10268SOL    HW132701   6.765   1.456  12.512
10268SOL    HW232702   6.833   1.393  12.392
10269SOL     OW32703   8.244  11.711  12.774
10269SOL    HW132704   8.166  11.736  12.825
10269SOL    HW232705   8.306  11.680  12.840
10270SOL     OW32706   7.587   3.426   9.440
10270SOL    HW132707   7.679   3.404   9.454
10270SOL    HW232708   7.579   3.438   9.345
10271SOL     OW32709   4.499   2.858   5.884
10271SOL    HW132710   4.448   2.781   5.859
10271SOL    HW232711   4.516   2.846   5.978
10272SOL     OW32712  11.143   8.477  11.535
10272SOL    HW132713  11.062   8.449  11.576
10272SOL    HW232714  11.205   8.487  11.607
10273SOL     OW32715   2.280  13.459   3.594
10273SOL    HW132716   2.194  13.417   3.597
10273SOL    HW232717   2.332  13.404   3.535
10274SOL     OW32718   1.653   5.882  11.100
10274SOL    HW132719   1.601   5.842  11.170
10274SOL    HW232720   1.658   5.975  11.124
10275SOL     OW32721   8.571   7.115  10.740
10275SOL    HW132722   8.629   7.092  10.812
10275SOL    HW232723   8.626   7.108  10.662
10276SOL     OW32724   2.046   5.250   9.686
10276SOL    HW132725   2.070   5.188   9.755
10276SOL    HW232726   2.129   5.272   9.643
10277SOL     OW32727   5.861  11.183   9.668
10277SOL    HW132728   5.784  11.239   9.674
10277SOL    HW232729   5.864  11.137   9.752
10278SOL     OW32730   0.353   3.142   3.089
10278SOL    HW132731   0.333   3.231   3.117
10278SOL    HW232732   0.400   3.152   3.006
10279SOL     OW32733   9.992   6.031   9.848
10279SOL    HW132734   9.920   6.037   9.911
10279SOL    HW232735   9.952   6.054   9.764
10280SOL     OW32736   1.298  11.926   4.396
10280SOL    HW132737   1.360  11.964   4.459
10280SOL    HW232738   1.216  11.918   4.446
10281SOL     OW32739   7.126   6.243  12.991
10281SOL    HW132740   7.156   6.275  12.906
10281SOL    HW232741   7.127   6.320  13.048
10282SOL     OW32742  12.577  13.906   8.877
10282SOL    HW132743  12.503  13.888   8.818
10282SOL    HW232744  12.552  13.865   8.960
10283SOL     OW32745   4.878   1.751  10.018
10283SOL    HW132746   4.888   1.729   9.926
10283SOL    HW232747   4.966   1.742  10.055
10284SOL     OW32748   4.454   1.634   1.046
10284SOL    HW132749   4.535   1.674   1.077
10284SOL    HW232750   4.421   1.584   1.121
10285SOL     OW32751   1.413   1.123   4.642
10285SOL    HW132752   1.450   1.082   4.719
10285SOL    HW232753   1.473   1.101   4.571
10286SOL     OW32754   3.141  10.713  13.245
10286SOL    HW132755   3.156  10.652  13.173
10286SOL    HW232756   3.222  10.712  13.296
10287SOL     OW32757   4.126   2.694   6.019
10287SOL    HW132758   4.186   2.674   5.947
10287SOL    HW232759   4.112   2.610   6.063
10288SOL     OW32760   4.317  13.155   2.647
10288SOL    HW132761   4.355  13.102   2.577
10288SOL    HW232762   4.352  13.242   2.633
10289SOL     OW32763   1.611  11.584   0.726
10289SOL    HW132764   1.642  11.522   0.793
10289SOL    HW232765   1.660  11.559   0.647
10290SOL     OW32766   4.654   8.996   3.900
10290SOL    HW132767   4.693   8.909   3.910
10290SOL    HW232768   4.726   9.053   3.876
10291SOL     OW32769   5.590   1.696   8.813
10291SOL    HW132770   5.677   1.733   8.799
10291SOL    HW232771   5.546   1.706   8.729
10292SOL     OW32772  11.198  12.547  14.176
10292SOL    HW132773  11.236  12.509  14.097
10292SOL    HW232774  11.194  12.641  14.157
10293SOL     OW32775   8.336   6.163   7.207
10293SOL    HW132776   8.278   6.211   7.148
10293SOL    HW232777   8.405   6.128   7.150
10294SOL     OW32778   7.927  14.668   3.254
10294SOL    HW132779   7.850  14.723   3.234
10294SOL    HW232780   7.970  14.713   3.326
10295SOL     OW32781   6.306  10.979   8.125
10295SOL    HW132782   6.296  11.044   8.194
10295SOL    HW232783   6.274  11.023   8.046
10296SOL     OW32784  13.766   9.401   4.204
10296SOL    HW132785  13.827   9.335   4.237
10296SOL    HW232786  13.683   9.354   4.195
10297SOL     OW32787   2.710   2.997   4.671
10297SOL    HW132788   2.669   3.082   4.685
10297SOL    HW232789   2.705   2.983   4.577
10298SOL     OW32790   8.192   4.231   8.925
10298SOL    HW132791   8.129   4.275   8.869
10298SOL    HW232792   8.193   4.283   9.006
10299SOL     OW32793  14.393  11.908   0.424
10299SOL    HW132794  14.369  11.997   0.450
10299SOL    HW232795  14.309  11.866   0.404
10300SOL     OW32796   3.656   4.882   0.796
10300SOL    HW132797   3.696   4.818   0.737
10300SOL    HW232798   3.713   4.882   0.873
10301SOL     OW32799   4.856   1.381   9.241
10301SOL    HW132800   4.883   1.312   9.301
10301SOL    HW232801   4.931   1.394   9.184
10302SOL     OW32802   4.642  10.748   6.870
10302SOL    HW132803   4.548  10.759   6.880
10302SOL    HW232804   4.664  10.671   6.923
10303SOL     OW32805   4.623  10.805   5.812
10303SOL    HW132806   4.596  10.787   5.722
10303SOL    HW232807   4.549  10.852   5.851
10304SOL     OW32808   2.298   1.986   7.879
10304SOL    HW132809   2.260   1.939   7.805
10304SOL    HW232810   2.250   2.069   7.883
10305SOL     OW32811   4.758   2.885  11.867
10305SOL    HW132812   4.832   2.827  11.886
10305SOL    HW232813   4.713   2.896  11.951
10306SOL     OW32814  11.169  12.640  12.169
10306SOL    HW132815  11.179  12.708  12.101
10306SOL    HW232816  11.222  12.567  12.137
10307SOL     OW32817   2.198   8.238   5.809
10307SOL    HW132818   2.189   8.326   5.771
10307SOL    HW232819   2.287   8.211   5.786
10308SOL     OW32820   9.075  10.894   4.698
10308SOL    HW132821   9.020  10.816   4.690
10308SOL    HW232822   9.164  10.860   4.698
10309SOL     OW32823  13.723   2.088  12.663
10309SOL    HW132824  13.711   2.035  12.742
10309SOL    HW232825  13.637   2.089  12.622
10310SOL     OW32826  14.497   2.715  11.334
10310SOL    HW132827  14.470   2.802  11.365
10310SOL    HW232828  14.479   2.657  11.408
10311SOL     OW32829   5.657   6.589   9.084
10311SOL    HW132830   5.584   6.589   9.146
10311SOL    HW232831   5.712   6.515   9.111
10312SOL     OW32832   6.781  13.880   4.433
10312SOL    HW132833   6.841  13.944   4.472
10312SOL    HW232834   6.732  13.844   4.508
10313SOL     OW32835   8.521   7.187   0.897
10313SOL    HW132836   8.426   7.188   0.905
10313SOL    HW232837   8.547   7.279   0.908
10314SOL     OW32838  12.023   4.730   6.592
10314SOL    HW132839  12.023   4.675   6.513
10314SOL    HW232840  12.097   4.790   6.579
10315SOL     OW32841   8.302   6.402   9.496
10315SOL    HW132842   8.337   6.326   9.450
10315SOL    HW232843   8.351   6.404   9.578
10316SOL     OW32844   8.303  14.592   7.772
10316SOL    HW132845   8.283  14.508   7.730
10316SOL    HW232846   8.222  14.617   7.816
10317SOL     OW32847  12.178   8.511  11.468
10317SOL    HW132848  12.236   8.435  11.458
10317SOL    HW232849  12.099   8.475  11.509
10318SOL     OW32850   8.637   9.040   6.618
10318SOL    HW132851   8.710   9.047   6.680
10318SOL    HW232852   8.612   8.948   6.621
10319SOL     OW32853  13.702  13.453   3.122
10319SOL    HW132854  13.755  13.531   3.105
10319SOL    HW232855  13.754  13.400   3.182
10320SOL     OW32856   2.994   3.339   8.516
10320SOL    HW132857   3.080   3.334   8.476
10320SOL    HW232858   2.950   3.259   8.489
10321SOL     OW32859   0.649  13.450  12.854
10321SOL    HW132860   0.601  13.378  12.896
10321SOL    HW232861   0.741  13.426  12.863
10322SOL     OW32862  12.377   0.358  12.713
10322SOL    HW132863  12.390   0.271  12.675
10322SOL    HW232864  12.436   0.360  12.789
10323SOL     OW32865  14.360  12.638  11.320
10323SOL    HW132866  14.283  12.680  11.356
10323SOL    HW232867  14.374  12.682  11.236
10324SOL     OW32868  13.612  11.151   4.322
10324SOL    HW132869  13.568  11.069   4.302
10324SOL    HW232870  13.547  11.202   4.371
10325SOL     OW32871   4.198  11.262   7.129
10325SOL    HW132872   4.243  11.178   7.138
10325SOL    HW232873   4.134  11.263   7.200
10326SOL     OW32874   9.382   1.446  12.695
10326SOL    HW132875   9.293   1.479  12.702
10326SOL    HW232876   9.401   1.446  12.601
10327SOL     OW32877   8.602   5.075  11.437
10327SOL    HW132878   8.586   5.157  11.483
10327SOL    HW232879   8.619   5.100  11.347
10328SOL     OW32880   0.510   5.728   0.911
10328SOL    HW132881   0.503   5.633   0.923
10328SOL    HW232882   0.604   5.746   0.920
10329SOL     OW32883   9.178  13.445  14.695
10329SOL    HW132884   9.093  13.442  14.650
10329SOL    HW232885   9.230  13.505  14.641
10330SOL     OW32886  10.022   1.783   4.182
10330SOL    HW132887   9.975   1.835   4.247
10330SOL    HW232888  10.077   1.724   4.234
10331SOL     OW32889   3.020  13.259   7.797
10331SOL    HW132890   3.035  13.191   7.731
10331SOL    HW232891   3.021  13.341   7.746
10332SOL     OW32892   8.199  14.083   4.112
10332SOL    HW132893   8.187  14.063   4.205
10332SOL    HW232894   8.257  14.014   4.080
10333SOL     OW32895   7.629   2.407   0.584
10333SOL    HW132896   7.643   2.341   0.516
10333SOL    HW232897   7.536   2.402   0.605
10334SOL     OW32898  10.038  14.026  12.974
10334SOL    HW132899  10.060  14.108  12.929
10334SOL    HW232900  10.007  14.054  13.061
10335SOL     OW32901   2.876   1.479  14.379
10335SOL    HW132902   2.797   1.506  14.332
10335SOL    HW232903   2.849   1.402  14.429
10336SOL     OW32904   4.404  13.193   4.090
10336SOL    HW132905   4.358  13.247   4.026
10336SOL    HW232906   4.399  13.242   4.172
10337SOL     OW32907  12.036   5.664  10.975
10337SOL    HW132908  12.113   5.619  10.941
10337SOL    HW232909  11.974   5.665  10.902
10338SOL     OW32910   1.915   3.771   8.395
10338SOL    HW132911   1.989   3.712   8.404
10338SOL    HW232912   1.895   3.770   8.301
10339SOL     OW32913   3.947  11.029   8.080
10339SOL    HW132914   3.937  11.124   8.078
10339SOL    HW232915   4.042  11.016   8.081
10340SOL     OW32916  14.230   3.853  13.951
10340SOL    HW132917  14.162   3.896  13.898
10340SOL    HW232918  14.294   3.922  13.968
10341SOL     OW32919   3.388   9.523   0.757
10341SOL    HW132920   3.361   9.578   0.683
10341SOL    HW232921   3.332   9.446   0.752
10342SOL     OW32922  12.467   8.402  14.740
10342SOL    HW132923  12.484   8.417  14.833
10342SOL    HW232924  12.524   8.464  14.695
10343SOL     OW32925  10.240   9.453  10.620
10343SOL    HW132926  10.309   9.445  10.555
10343SOL    HW232927  10.234   9.548  10.636
10344SOL     OW32928   7.436   1.192   7.629
10344SOL    HW132929   7.372   1.132   7.592
10344SOL    HW232930   7.512   1.186   7.572
10345SOL     OW32931   7.277   8.570  12.865
10345SOL    HW132932   7.238   8.565  12.952
10345SOL    HW232933   7.371   8.556  12.879
10346SOL     OW32934  11.349  11.367   2.890
10346SOL    HW132935  11.418  11.406   2.944
10346SOL    HW232936  11.395  11.326   2.817
10347SOL     OW32937  14.739   7.193   9.508
10347SOL    HW132938  14.729   7.119   9.449
10347SOL    HW232939  14.830   7.191   9.536
10348SOL     OW32940   0.039   6.497   3.155
10348SOL    HW132941   0.048   6.500   3.060
10348SOL    HW232942  14.826   6.476   3.170
10349SOL     OW32943   6.191   0.952   8.959
10349SOL    HW132944   6.176   0.858   8.966
10349SOL    HW232945   6.277   0.959   8.916
10350SOL     OW32946   2.542   2.872   5.134
10350SOL    HW132947   2.503   2.838   5.215
10350SOL    HW232948   2.512   2.811   5.067
10351SOL     OW32949  10.222  13.461   3.014
10351SOL    HW132950  10.227  13.438   3.107
10351SOL    HW232951  10.310  13.444   2.980
10352SOL     OW32952   8.465  13.222   2.748
10352SOL    HW132953   8.434  13.132   2.733
10352SOL    HW232954   8.391  13.267   2.789
10353SOL     OW32955   5.931   3.822  11.965
10353SOL    HW132956   6.009   3.857  12.008
10353SOL    HW232957   5.881   3.780  12.035
10354SOL     OW32958   7.070   9.395   8.039
10354SOL    HW132959   7.119   9.447   7.975
10354SOL    HW232960   7.127   9.321   8.059
10355SOL     OW32961  10.688   1.753  13.383
10355SOL    HW132962  10.669   1.835  13.429
10355SOL    HW232963  10.615   1.695  13.405
10356SOL     OW32964  12.428   8.363  10.768
10356SOL    HW132965  12.440   8.457  10.780
10356SOL    HW232966  12.395   8.354  10.679
10357SOL     OW32967   9.488   9.698   1.888
10357SOL    HW132968   9.423   9.696   1.958
10357SOL    HW232969   9.530   9.612   1.892
10358SOL     OW32970   0.068   0.584   2.896
10358SOL    HW132971   0.090   0.637   2.973
10358SOL    HW232972   0.141   0.524   2.886
10359SOL     OW32973   6.375   9.247   1.783
10359SOL    HW132974   6.452   9.253   1.840
10359SOL    HW232975   6.351   9.338   1.766
10360SOL     OW32976   5.372  13.987   8.593
10360SOL    HW132977   5.304  14.040   8.635
10360SOL    HW232978   5.412  13.938   8.665
10361SOL     OW32979   9.095  10.129   1.931
10361SOL    HW132980   9.175  10.177   1.907
10361SOL    HW232981   9.030  10.197   1.947
10362SOL     OW32982  12.406   6.242  13.530
10362SOL    HW132983  12.405   6.154  13.493
10362SOL    HW232984  12.497   6.257  13.556
10363SOL     OW32985   2.060   3.459   6.514
10363SOL    HW132986   1.977   3.494   6.546
10363SOL    HW232987   2.124   3.482   6.581
10364SOL     OW32988  13.498  10.186  10.455
10364SOL    HW132989  13.543  10.119  10.507
10364SOL    HW232990  13.568  10.236  10.414
10365SOL     OW32991   8.943  14.617   9.460
10365SOL    HW132992   9.011  14.588   9.399
10365SOL    HW232993   8.929  14.541   9.517
10366SOL     OW32994   8.279   5.288   6.645
10366SOL    HW132995   8.211   5.296   6.712
10366SOL    HW232996   8.241   5.332   6.569
10367SOL     OW32997   3.080   0.516  13.802
10367SOL    HW132998   2.991   0.480  13.803
10367SOL    HW232999   3.096   0.539  13.711
10368SOL     OW33000   6.382   1.446   9.518
10368SOL    HW133001   6.408   1.414   9.432
10368SOL    HW233002   6.408   1.376   9.578
10369SOL     OW33003   2.775   1.347   9.359
10369SOL    HW133004   2.684   1.375   9.346
10369SOL    HW233005   2.767   1.259   9.397
10370SOL     OW33006  13.474   0.609   8.543
10370SOL    HW133007  13.413   0.676   8.578
10370SOL    HW233008  13.437   0.586   8.458
10371SOL     OW33009   8.858   9.329   1.999
10371SOL    HW133010   8.864   9.424   2.005
10371SOL    HW233011   8.764   9.311   2.004
10372SOL     OW33012   8.206  13.523   8.639
10372SOL    HW133013   8.122  13.482   8.663
10372SOL    HW233014   8.217  13.594   8.702
10373SOL     OW33015   9.023   1.479  10.167
10373SOL    HW133016   9.054   1.394  10.197
10373SOL    HW233017   9.099   1.537  10.177
10374SOL     OW33018  11.405   2.106   6.325
10374SOL    HW133019  11.346   2.052   6.378
10374SOL    HW233020  11.346   2.158   6.270
10375SOL     OW33021  11.380   5.701   8.171
10375SOL    HW133022  11.315   5.671   8.107
10375SOL    HW233023  11.441   5.628   8.180
10376SOL     OW33024  10.753  11.425   8.636
10376SOL    HW133025  10.819  11.418   8.567
10376SOL    HW233026  10.760  11.343   8.685
10377SOL     OW33027   1.510  12.335  10.310
10377SOL    HW133028   1.485  12.266  10.248
10377SOL    HW233029   1.470  12.414  10.275
10378SOL     OW33030   6.068   1.454  13.344
10378SOL    HW133031   6.143   1.395  13.343
10378SOL    HW233032   6.001   1.409  13.292
10379SOL     OW33033   1.141   7.048  14.102
10379SOL    HW133034   1.112   7.125  14.151
10379SOL    HW233035   1.170   7.082  14.018
10380SOL     OW33036   3.132   7.226   1.138
10380SOL    HW133037   3.130   7.137   1.102
10380SOL    HW233038   3.217   7.260   1.111
10381SOL     OW33039  14.873   6.313  13.690
10381SOL    HW133040   0.010   6.229  13.647
10381SOL    HW233041   0.080   6.344  13.715
10382SOL     OW33042  11.650   9.710  12.909
10382SOL    HW133043  11.577   9.764  12.880
10382SOL    HW233044  11.664   9.736  13.000
10383SOL     OW33045   1.698  12.206   2.680
10383SOL    HW133046   1.699  12.178   2.589
10383SOL    HW233047   1.680  12.126   2.730
10384SOL     OW33048  10.983  14.632   1.180
10384SOL    HW133049  10.994  14.633   1.275
10384SOL    HW233050  10.998  14.722   1.153
10385SOL     OW33051   4.821  14.267   3.310
10385SOL    HW133052   4.805  14.198   3.375
10385SOL    HW233053   4.915  14.263   3.293
10386SOL     OW33054  11.709   5.846   5.020
10386SOL    HW133055  11.677   5.935   5.034
10386SOL    HW233056  11.799   5.848   5.052
10387SOL     OW33057   3.597   1.522   8.806
10387SOL    HW133058   3.520   1.551   8.854
10387SOL    HW233059   3.594   1.569   8.723
10388SOL     OW33060   9.968  11.830   2.572
10388SOL    HW133061   9.931  11.807   2.657
10388SOL    HW233062  10.057  11.795   2.575
10389SOL     OW33063   6.097   5.252  10.326
10389SOL    HW133064   6.154   5.224  10.255
10389SOL    HW233065   6.156   5.280  10.396
10390SOL     OW33066   2.821  10.360   4.531
10390SOL    HW133067   2.753  10.297   4.557
10390SOL    HW233068   2.792  10.443   4.567
10391SOL     OW33069  12.778  12.531   2.979
10391SOL    HW133070  12.782  12.509   2.886
10391SOL    HW233071  12.816  12.619   2.983
10392SOL     OW33072   0.208   1.914  14.802
10392SOL    HW133073   0.146   1.851  14.764
10392SOL    HW233074   0.283   1.913  14.743
10393SOL     OW33075   8.569   0.453   0.369
10393SOL    HW133076   8.483   0.419   0.393
10393SOL    HW233077   8.596   0.400   0.294
10394SOL     OW33078   8.209  10.888   1.701
10394SOL    HW133079   8.187  10.818   1.763
10394SOL    HW233080   8.199  10.969   1.751
10395SOL     OW33081   8.204   3.914   4.031
10395SOL    HW133082   8.250   3.957   4.103
10395SOL    HW233083   8.242   3.954   3.952
10396SOL     OW33084   5.012   8.635  10.574
10396SOL    HW133085   4.965   8.709  10.614
10396SOL    HW233086   4.943   8.570  10.557
10397SOL     OW33087   5.588   2.393   2.848
10397SOL    HW133088   5.584   2.460   2.779
10397SOL    HW233089   5.578   2.310   2.802
10398SOL     OW33090   2.642   5.501   6.124
10398SOL    HW133091   2.645   5.410   6.152
10398SOL    HW233092   2.554   5.513   6.088
10399SOL     OW33093   5.666   2.931  10.062
10399SOL    HW133094   5.650   2.945   9.969
10399SOL    HW233095   5.620   3.003  10.106
10400SOL     OW33096   2.846   4.284  10.135
10400SOL    HW133097   2.773   4.222  10.131
10400SOL    HW233098   2.865   4.293  10.228
10401SOL     OW33099  10.478   8.511   2.564
10401SOL    HW133100  10.491   8.427   2.608
10401SOL    HW233101  10.552   8.565   2.591
10402SOL     OW33102   2.201   1.672  12.784
10402SOL    HW133103   2.124   1.635  12.828
10402SOL    HW233104   2.233   1.740  12.844
10403SOL     OW33105   2.007  12.577   3.634
10403SOL    HW133106   1.932  12.592   3.692
10403SOL    HW233107   2.023  12.483   3.639
10404SOL     OW33108   5.061   1.103   3.424
10404SOL    HW133109   5.132   1.138   3.477
10404SOL    HW233110   5.104   1.041   3.365
10405SOL     OW33111  12.842   9.847   9.707
10405SOL    HW133112  12.813   9.864   9.617
10405SOL    HW233113  12.824   9.755   9.721
10406SOL     OW33114   5.325   2.226   2.665
10406SOL    HW133115   5.280   2.165   2.607
10406SOL    HW233116   5.401   2.255   2.614
10407SOL     OW33117   9.252   1.868   8.306
10407SOL    HW133118   9.334   1.887   8.352
10407SOL    HW233119   9.212   1.798   8.357
10408SOL     OW33120   4.194  11.831  12.435
10408SOL    HW133121   4.236  11.890  12.372
10408SOL    HW233122   4.212  11.869  12.520
10409SOL     OW33123   7.946  12.784   8.417
10409SOL    HW133124   7.921  12.695   8.393
10409SOL    HW233125   7.962  12.779   8.511
10410SOL     OW33126   1.065   1.953   0.187
10410SOL    HW133127   1.149   1.920   0.219
10410SOL    HW233128   1.070   2.048   0.200
10411SOL     OW33129   1.695   5.456   2.699
10411SOL    HW133130   1.791   5.460   2.707
10411SOL    HW233131   1.680   5.381   2.641
10412SOL     OW33132  14.269  10.743   5.770
10412SOL    HW133133  14.208  10.689   5.719
10412SOL    HW233134  14.276  10.698   5.854
10413SOL     OW33135  13.751   2.353  10.576
10413SOL    HW133136  13.844   2.330  10.575
10413SOL    HW233137  13.722   2.343  10.485
10414SOL     OW33138  12.373   2.478  12.573
10414SOL    HW133139  12.325   2.526  12.641
10414SOL    HW233140  12.459   2.464  12.611
10415SOL     OW33141   6.173   1.266  10.458
10415SOL    HW133142   6.112   1.292  10.389
10415SOL    HW233143   6.222   1.193  10.420
10416SOL     OW33144  13.708   3.589   8.929
10416SOL    HW133145  13.680   3.574   8.839
10416SOL    HW233146  13.628   3.578   8.981
10417SOL     OW33147  11.895   5.983  10.381
10417SOL    HW133148  11.931   5.953  10.465
10417SOL    HW233149  11.841   5.909  10.351
10418SOL     OW33150  14.215   3.418   1.775
10418SOL    HW133151  14.283   3.415   1.841
10418SOL    HW233152  14.262   3.425   1.692
10419SOL     OW33153  10.519  12.716   7.765
10419SOL    HW133154  10.521  12.709   7.669
10419SOL    HW233155  10.547  12.630   7.796
10420SOL     OW33156   2.758   1.304  12.374
10420SOL    HW133157   2.784   1.344  12.456
10420SOL    HW233158   2.673   1.264  12.392
10421SOL     OW33159   8.656  12.230  10.141
10421SOL    HW133160   8.574  12.195  10.106
10421SOL    HW233161   8.629  12.289  10.211
10422SOL     OW33162   6.428   0.519   7.748
10422SOL    HW133163   6.505   0.477   7.710
10422SOL    HW233164   6.358   0.503   7.684
10423SOL     OW33165   4.679   3.647   7.946
10423SOL    HW133166   4.709   3.711   7.881
10423SOL    HW233167   4.641   3.576   7.895
10424SOL     OW33168   7.020   0.129   4.109
10424SOL    HW133169   7.093   0.173   4.065
10424SOL    HW233170   7.063   0.073   4.174
10425SOL     OW33171   9.720   9.439  10.825
10425SOL    HW133172   9.722   9.371  10.757
10425SOL    HW233173   9.641   9.490  10.807
10426SOL     OW33174   0.632   6.584  12.113
10426SOL    HW133175   0.653   6.651  12.048
10426SOL    HW233176   0.665   6.620  12.196
10427SOL     OW33177   2.337   5.249  11.463
10427SOL    HW133178   2.295   5.278  11.544
10427SOL    HW233179   2.421   5.212  11.492
10428SOL     OW33180   8.912  14.507  12.428
10428SOL    HW133181   8.924  14.599  12.404
10428SOL    HW233182   8.892  14.509  12.521
10429SOL     OW33183   9.544   6.945   8.488
10429SOL    HW133184   9.496   6.912   8.413
10429SOL    HW233185   9.479   6.992   8.540
10430SOL     OW33186   1.803   7.693  11.662
10430SOL    HW133187   1.775   7.767  11.716
10430SOL    HW233188   1.763   7.617  11.703
10431SOL     OW33189   3.519  13.868   5.381
10431SOL    HW133190   3.516  13.963   5.386
10431SOL    HW233191   3.526  13.839   5.472
10432SOL     OW33192  14.247   7.809  12.596
10432SOL    HW133193  14.164   7.774  12.628
10432SOL    HW233194  14.269   7.753  12.521
10433SOL     OW33195   8.467   2.100   7.273
10433SOL    HW133196   8.386   2.060   7.242
10433SOL    HW233197   8.479   2.177   7.218
10434SOL     OW33198  10.768   2.094  10.636
10434SOL    HW133199  10.794   2.033  10.567
10434SOL    HW233200  10.831   2.165  10.631
10435SOL     OW33201   6.359   5.707   6.641
10435SOL    HW133202   6.322   5.723   6.728
10435SOL    HW233203   6.384   5.794   6.610
10436SOL     OW33204  13.575   2.016  10.155
10436SOL    HW133205  13.568   1.921  10.140
10436SOL    HW233206  13.484   2.044  10.169
10437SOL     OW33207  13.401   2.898   3.357
10437SOL    HW133208  13.318   2.854   3.378
10437SOL    HW233209  13.440   2.919   3.442
10438SOL     OW33210   5.695   1.075   1.347
10438SOL    HW133211   5.678   1.121   1.265
10438SOL    HW233212   5.668   0.985   1.330
10439SOL     OW33213   2.253  10.029   9.997
10439SOL    HW133214   2.188  10.046  10.066
10439SOL    HW233215   2.242   9.936   9.976
10440SOL     OW33216  12.412  13.387   7.020
10440SOL    HW133217  12.479  13.382   6.952
10440SOL    HW233218  12.329  13.371   6.974
10441SOL     OW33219   8.289   8.469  13.351
10441SOL    HW133220   8.214   8.455  13.292
10441SOL    HW233221   8.283   8.561  13.376
10442SOL     OW33222  14.464   0.356   0.966
10442SOL    HW133223  14.484   0.335   1.058
10442SOL    HW233224  14.501   0.283   0.916
10443SOL     OW33225  11.787  14.681   6.579
10443SOL    HW133226  11.741  14.663   6.660
10443SOL    HW233227  11.762  14.610   6.520
10444SOL     OW33228  13.349   4.152   6.054
10444SOL    HW133229  13.303   4.068   6.056
10444SOL    HW233230  13.314   4.197   5.977
10445SOL     OW33231   9.197  12.626   0.994
10445SOL    HW133232   9.174  12.575   0.917
10445SOL    HW233233   9.149  12.709   0.983
10446SOL     OW33234  12.136   6.825   1.393
10446SOL    HW133235  12.125   6.747   1.339
10446SOL    HW233236  12.056   6.876   1.378
10447SOL     OW33237   0.065   6.076  12.519
10447SOL    HW133238  14.879   6.143  12.501
10447SOL    HW233239   0.065   6.067  12.614
10448SOL     OW33240   6.867  14.678   5.900
10448SOL    HW133241   6.780  14.641   5.887
10448SOL    HW233242   6.870  14.701   5.993
10449SOL     OW33243  12.010   9.684  13.370
10449SOL    HW133244  12.054   9.769  13.371
10449SOL    HW233245  11.929   9.699  13.418
10450SOL     OW33246   8.257  13.118  13.542
10450SOL    HW133247   8.345  13.129  13.507
10450SOL    HW233248   8.219  13.206  13.538
10451SOL     OW33249   0.093   2.152   5.568
10451SOL    HW133250   0.068   2.181   5.656
10451SOL    HW233251   0.028   2.084   5.547
10452SOL     OW33252  12.464   3.864   3.868
10452SOL    HW133253  12.422   3.950   3.860
10452SOL    HW233254  12.394   3.801   3.848
10453SOL     OW33255   1.821   3.413   7.789
10453SOL    HW133256   1.824   3.350   7.717
10453SOL    HW233257   1.897   3.471   7.774
10454SOL     OW33258   6.410   3.610   3.084
10454SOL    HW133259   6.329   3.605   3.034
10454SOL    HW233260   6.424   3.521   3.117
10455SOL     OW33261  12.606   6.062   8.583
10455SOL    HW133262  12.573   6.005   8.652
10455SOL    HW233263  12.544   6.051   8.511
10456SOL     OW33264   4.575  12.595  13.617
10456SOL    HW133265   4.485  12.619  13.594
10456SOL    HW233266   4.610  12.672  13.661
10457SOL     OW33267  10.370  14.214   0.296
10457SOL    HW133268  10.438  14.149   0.315
10457SOL    HW233269  10.389  14.242   0.207
10458SOL     OW33270   3.834   8.636  10.530
10458SOL    HW133271   3.807   8.712  10.479
10458SOL    HW233272   3.844   8.566  10.465
10459SOL     OW33273   4.357  14.819  13.442
10459SOL    HW133274   4.317  14.750  13.389
10459SOL    HW233275   4.341  14.792  13.532
10460SOL     OW33276  12.203   4.395   0.266
10460SOL    HW133277  12.282   4.447   0.254
10460SOL    HW233278  12.234   4.308   0.292
10461SOL     OW33279  10.902   6.211   4.060
10461SOL    HW133280  10.818   6.245   4.092
10461SOL    HW233281  10.880   6.126   4.021
10462SOL     OW33282   9.467   9.120  12.169
10462SOL    HW133283   9.550   9.110  12.216
10462SOL    HW233284   9.439   9.031  12.151
10463SOL     OW33285   4.919   2.825  12.686
10463SOL    HW133286   4.958   2.864  12.764
10463SOL    HW233287   4.908   2.897  12.625
10464SOL     OW33288  10.821   6.695   3.198
10464SOL    HW133289  10.862   6.624   3.148
10464SOL    HW233290  10.873   6.700   3.278
10465SOL     OW33291   1.219   0.913   7.007
10465SOL    HW133292   1.227   0.900   6.912
10465SOL    HW233293   1.142   0.969   7.017
10466SOL     OW33294   9.312   4.277   3.672
10466SOL    HW133295   9.247   4.347   3.675
10466SOL    HW233296   9.394   4.319   3.698
10467SOL     OW33297   2.990   8.036   6.110
10467SOL    HW133298   3.020   8.029   6.020
10467SOL    HW233299   3.070   8.056   6.160
10468SOL     OW33300   7.383  10.628   6.670
10468SOL    HW133301   7.368  10.658   6.760
10468SOL    HW233302   7.365  10.705   6.616
10469SOL     OW33303   4.321   7.233   7.091
10469SOL    HW133304   4.287   7.315   7.128
10469SOL    HW233305   4.265   7.165   7.128
10470SOL     OW33306   4.341  12.879   5.118
10470SOL    HW133307   4.323  12.856   5.027
10470SOL    HW233308   4.297  12.812   5.170
10471SOL     OW33309   8.964   6.221   7.835
10471SOL    HW133310   8.880   6.230   7.789
10471SOL    HW233311   9.017   6.294   7.804
10472SOL     OW33312  14.061   4.381   3.064
10472SOL    HW133313  14.002   4.386   2.989
10472SOL    HW233314  14.026   4.309   3.117
10473SOL     OW33315   0.861   4.023  11.745
10473SOL    HW133316   0.948   4.064  11.742
10473SOL    HW233317   0.866   3.960  11.816
10474SOL     OW33318   3.401  12.477  10.092
10474SOL    HW133319   3.367  12.391  10.067
10474SOL    HW233320   3.475  12.492  10.033
10475SOL     OW33321   4.709   9.159  12.252
10475SOL    HW133322   4.643   9.160  12.321
10475SOL    HW233323   4.786   9.199  12.292
10476SOL     OW33324  12.061  10.653   1.183
10476SOL    HW133325  11.983  10.602   1.204
10476SOL    HW233326  12.041  10.742   1.214
10477SOL     OW33327  11.878  11.034   4.619
10477SOL    HW133328  11.937  10.959   4.619
10477SOL    HW233329  11.805  11.008   4.563
10478SOL     OW33330   1.063   1.433   2.661
10478SOL    HW133331   1.139   1.491   2.656
10478SOL    HW233332   1.045   1.424   2.754
10479SOL     OW33333   4.778   9.439   4.470
10479SOL    HW133334   4.761   9.420   4.377
10479SOL    HW233335   4.691   9.433   4.511
10480SOL     OW33336   0.708   3.386   8.711
10480SOL    HW133337   0.677   3.467   8.670
10480SOL    HW233338   0.754   3.416   8.790
10481SOL     OW33339  14.063   7.614   3.944
10481SOL    HW133340  14.013   7.664   3.879
10481SOL    HW233341  14.069   7.526   3.907
10482SOL     OW33342   6.707   2.184  10.361
10482SOL    HW133343   6.649   2.217  10.292
10482SOL    HW233344   6.756   2.114  10.319
10483SOL     OW33345   2.609  14.838   6.616
10483SOL    HW133346   2.593  14.744   6.622
10483SOL    HW233347   2.703  14.847   6.633
10484SOL     OW33348   2.076   0.023  14.314
10484SOL    HW133349   2.148  14.843  14.293
10484SOL    HW233350   1.999  14.861  14.277
10485SOL     OW33351  12.360  11.474   2.638
10485SOL    HW133352  12.390  11.562   2.615
10485SOL    HW233353  12.282  11.489   2.692
10486SOL     OW33354   6.063  11.692   8.291
10486SOL    HW133355   6.089  11.653   8.208
10486SOL    HW233356   6.124  11.764   8.305
10487SOL     OW33357   8.308   2.150   7.907
10487SOL    HW133358   8.330   2.082   7.843
10487SOL    HW233359   8.245   2.108   7.966
10488SOL     OW33360   3.121   1.050  12.969
10488SOL    HW133361   3.073   0.974  12.935
10488SOL    HW233362   3.208   1.015  12.990
10489SOL     OW33363   0.648   0.143  10.203
10489SOL    HW133364   0.700   0.209  10.249
10489SOL    HW233365   0.602   0.193  10.135
10490SOL     OW33366   9.976   7.729   3.565
10490SOL    HW133367   9.903   7.668   3.569
10490SOL    HW233368   9.968   7.770   3.479
10491SOL     OW33369  12.564   9.564  13.216
10491SOL    HW133370  12.561   9.606  13.301
10491SOL    HW233371  12.592   9.474  13.234
10492SOL     OW33372  13.515   5.292   8.986
10492SOL    HW133373  13.598   5.338   8.976
10492SOL    HW233374  13.482   5.283   8.897
10493SOL     OW33375   1.124  14.407   1.347
10493SOL    HW133376   1.066  14.390   1.422
10493SOL    HW233377   1.105  14.336   1.286
10494SOL     OW33378  10.487  14.852  10.593
10494SOL    HW133379  10.441  14.814  10.668
10494SOL    HW233380  10.545  14.783  10.562
10495SOL     OW33381  10.462   2.909   1.157
10495SOL    HW133382  10.428   2.844   1.094
10495SOL    HW233383  10.416   2.890   1.238
10496SOL     OW33384  10.291   0.197   6.186
10496SOL    HW133385  10.235   0.148   6.246
10496SOL    HW233386  10.306   0.138   6.113
10497SOL     OW33387   2.596   4.495  11.809
10497SOL    HW133388   2.511   4.486  11.766
10497SOL    HW233389   2.626   4.583  11.785
10498SOL     OW33390  11.879   1.712   0.357
10498SOL    HW133391  11.808   1.721   0.293
10498SOL    HW233392  11.867   1.626   0.396
10499SOL     OW33393   5.651   7.996  10.063
10499SOL    HW133394   5.705   7.917  10.063
10499SOL    HW233395   5.648   8.023   9.971
10500SOL     OW33396  10.831  13.246  11.032
10500SOL    HW133397  10.793  13.252  10.944
10500SOL    HW233398  10.918  13.283  11.024
10501SOL     OW33399   7.157   9.292   4.196
10501SOL    HW133400   7.164   9.343   4.115
10501SOL    HW233401   7.244   9.255   4.210
10502SOL     OW33402   9.920   5.259   3.348
10502SOL    HW133403   9.896   5.235   3.438
10502SOL    HW233404   9.911   5.354   3.346
10503SOL     OW33405   4.453   9.830   0.551
10503SOL    HW133406   4.503   9.865   0.625
10503SOL    HW233407   4.458   9.735   0.561
10504SOL     OW33408  11.121   8.582   9.469
10504SOL    HW133409  11.064   8.650   9.432
10504SOL    HW233410  11.179   8.629   9.529
10505SOL     OW33411   3.184   3.884  10.101
10505SOL    HW133412   3.181   3.825  10.026
10505SOL    HW233413   3.176   3.972  10.062
10506SOL     OW33414   4.909   7.998  14.332
10506SOL    HW133415   4.981   7.960  14.382
10506SOL    HW233416   4.834   7.941  14.350
10507SOL     OW33417   9.583   9.453   1.942
10507SOL    HW133418   9.598   9.361   1.921
10507SOL    HW233419   9.622   9.464   2.029
10508SOL     OW33420  14.130   9.927  13.413
10508SOL    HW133421  14.062   9.993  13.398
10508SOL    HW233422  14.203   9.955  13.357
10509SOL     OW33423   3.752  14.033   9.412
10509SOL    HW133424   3.704  14.080   9.481
10509SOL    HW233425   3.809  13.973   9.459
10510SOL     OW33426  11.787   4.783   6.797
10510SOL    HW133427  11.867   4.829   6.772
10510SOL    HW233428  11.730   4.790   6.720
10511SOL     OW33429   0.628  13.787   1.655
10511SOL    HW133430   0.603  13.719   1.593
10511SOL    HW233431   0.609  13.749   1.741
10512SOL     OW33432  10.326  10.597  14.063
10512SOL    HW133433  10.290  10.685  14.071
10512SOL    HW233434  10.414  10.610  14.026
10513SOL     OW33435  13.308   9.809   2.158
10513SOL    HW133436  13.214   9.828   2.159
10513SOL    HW233437  13.333   9.819   2.067
10514SOL     OW33438   2.989   7.675   6.384
10514SOL    HW133439   3.080   7.646   6.393
10514SOL    HW233440   2.943   7.631   6.456
10515SOL     OW33441   8.282   3.537   9.034
10515SOL    HW133442   8.197   3.545   9.077
10515SOL    HW233443   8.334   3.483   9.094
10516SOL     OW33444   9.513  11.291   7.147
10516SOL    HW133445   9.458  11.224   7.186
10516SOL    HW233446   9.476  11.374   7.177
10517SOL     OW33447  10.511  11.780   1.121
10517SOL    HW133448  10.497  11.778   1.026
10517SOL    HW233449  10.584  11.841   1.133
10518SOL     OW33450  13.159  13.613   5.739
10518SOL    HW133451  13.198  13.556   5.673
10518SOL    HW233452  13.221  13.614   5.811
10519SOL     OW33453   4.576   2.286   9.335
10519SOL    HW133454   4.525   2.367   9.346
10519SOL    HW233455   4.639   2.289   9.407
10520SOL     OW33456  12.283  13.517   4.544
10520SOL    HW133457  12.329  13.459   4.483
10520SOL    HW233458  12.345  13.586   4.564
10521SOL     OW33459   2.461   1.637   9.171
10521SOL    HW133460   2.508   1.712   9.135
10521SOL    HW233461   2.527   1.568   9.177
10522SOL     OW33462   7.157  13.210   2.080
10522SOL    HW133463   7.213  13.133   2.080
10522SOL    HW233464   7.068  13.175   2.076
10523SOL     OW33465   4.497   5.120   4.867
10523SOL    HW133466   4.548   5.048   4.831
10523SOL    HW233467   4.503   5.189   4.801
10524SOL     OW33468  13.498   2.953   3.592
10524SOL    HW133469  13.528   3.040   3.617
10524SOL    HW233470  13.472   2.912   3.674
10525SOL     OW33471   9.168   3.123   2.001
10525SOL    HW133472   9.149   3.086   1.915
10525SOL    HW233473   9.082   3.141   2.039
10526SOL     OW33474   2.107  10.643   3.373
10526SOL    HW133475   2.177  10.645   3.307
10526SOL    HW233476   2.063  10.727   3.362
10527SOL     OW33477   1.748   5.877   8.170
10527SOL    HW133478   1.836   5.908   8.150
10527SOL    HW233479   1.690   5.941   8.129
10528SOL     OW33480   8.919   9.176  12.242
10528SOL    HW133481   8.895   9.233  12.169
10528SOL    HW233482   9.000   9.133  12.214
10529SOL     OW33483  13.186   2.734   0.908
10529SOL    HW133484  13.266   2.765   0.865
10529SOL    HW233485  13.116   2.781   0.865
10530SOL     OW33486   6.036   6.826   3.798
10530SOL    HW133487   6.123   6.861   3.817
10530SOL    HW233488   5.984   6.902   3.773
10531SOL     OW33489   2.123   3.989  13.509
10531SOL    HW133490   2.157   3.949  13.589
10531SOL    HW233491   2.083   3.917  13.461
10532SOL     OW33492   5.152   3.541   1.163
10532SOL    HW133493   5.106   3.620   1.192
10532SOL    HW233494   5.116   3.471   1.218
10533SOL     OW33495   4.450  14.787   8.020
10533SOL    HW133496   4.423  14.794   8.111
10533SOL    HW233497   4.514  14.857   8.007
10534SOL     OW33498  11.188  13.434   1.921
10534SOL    HW133499  11.178  13.344   1.891
10534SOL    HW233500  11.098  13.468   1.924
10535SOL     OW33501   9.863  12.828   2.774
10535SOL    HW133502   9.927  12.825   2.846
10535SOL    HW233503   9.893  12.899   2.718
10536SOL     OW33504  11.461  10.805  14.309
10536SOL    HW133505  11.483  10.849  14.227
10536SOL    HW233506  11.385  10.852  14.343
10537SOL     OW33507   8.841   5.998   9.359
10537SOL    HW133508   8.864   6.087   9.384
10537SOL    HW233509   8.750   6.004   9.328
10538SOL     OW33510   4.547   2.063   9.206
10538SOL    HW133511   4.462   2.022   9.223
10538SOL    HW233512   4.538   2.152   9.242
10539SOL     OW33513   0.048  10.547   7.940
10539SOL    HW133514   0.136  10.552   7.976
10539SOL    HW233515  14.872  10.529   8.016
10540SOL     OW33516  11.450   1.166   2.364
10540SOL    HW133517  11.492   1.207   2.288
10540SOL    HW233518  11.418   1.082   2.331
10541SOL     OW33519  12.225   4.781   9.801
10541SOL    HW133520  12.250   4.827   9.721
10541SOL    HW233521  12.293   4.715   9.813
10542SOL     OW33522   6.722  14.264   9.710
10542SOL    HW133523   6.748  14.175   9.686
10542SOL    HW233524   6.643  14.253   9.762
10543SOL     OW33525   0.783  14.626  10.511
10543SOL    HW133526   0.789  14.530  10.510
10543SOL    HW233527   0.758  14.650  10.422
10544SOL     OW33528  14.252   6.454  14.442
10544SOL    HW133529  14.186   6.462  14.372
10544SOL    HW233530  14.333   6.484  14.401
10545SOL     OW33531   7.138  12.238  11.010
10545SOL    HW133532   7.071  12.209  11.072
10545SOL    HW233533   7.089  12.279  10.939
10546SOL     OW33534   6.495  12.492   9.727
10546SOL    HW133535   6.549  12.560   9.768
10546SOL    HW233536   6.434  12.465   9.796
10547SOL     OW33537  10.451   8.918  14.415
10547SOL    HW133538  10.546   8.903  14.417
10547SOL    HW233539  10.414   8.831  14.401
10548SOL     OW33540   4.989   6.699   9.510
10548SOL    HW133541   5.006   6.729   9.599
10548SOL    HW233542   5.074   6.707   9.466
10549SOL     OW33543   4.184  10.408  12.256
10549SOL    HW133544   4.268  10.380  12.293
10549SOL    HW233545   4.208  10.472  12.189
10550SOL     OW33546   6.593  12.961   6.469
10550SOL    HW133547   6.549  13.031   6.422
10550SOL    HW233548   6.551  12.960   6.555
10551SOL     OW33549   2.788   5.202   2.679
10551SOL    HW133550   2.822   5.255   2.607
10551SOL    HW233551   2.845   5.222   2.753
10552SOL     OW33552   9.810  10.096   9.603
10552SOL    HW133553   9.866  10.037   9.554
10552SOL    HW233554   9.734  10.044   9.627
10553SOL     OW33555   0.803   3.700   1.347
10553SOL    HW133556   0.795   3.773   1.409
10553SOL    HW233557   0.722   3.650   1.359
10554SOL     OW33558   5.101   3.815  11.463
10554SOL    HW133559   5.095   3.784  11.372
10554SOL    HW233560   5.037   3.762  11.510
10555SOL     OW33561   5.981   2.216   7.089
10555SOL    HW133562   5.965   2.236   7.181
10555SOL    HW233563   5.928   2.138   7.072
10556SOL     OW33564   7.269   1.563   5.108
10556SOL    HW133565   7.323   1.633   5.072
10556SOL    HW233566   7.247   1.593   5.196
10557SOL     OW33567  14.786  11.182  10.288
10557SOL    HW133568  14.768  11.091  10.263
10557SOL    HW233569  14.699  11.221  10.300
10558SOL     OW33570  13.225   1.143  13.315
10558SOL    HW133571  13.305   1.094  13.298
10558SOL    HW233572  13.185   1.099  13.390
10559SOL     OW33573   3.014   8.884  12.881
10559SOL    HW133574   3.069   8.894  12.804
10559SOL    HW233575   2.937   8.837  12.850
10560SOL     OW33576  10.599   6.213  14.209
10560SOL    HW133577  10.653   6.288  14.232
10560SOL    HW233578  10.511   6.236  14.241
10561SOL     OW33579   5.994   0.320   4.690
10561SOL    HW133580   5.922   0.325   4.753
10561SOL    HW233581   5.958   0.355   4.609
10562SOL     OW33582  11.468   7.629  14.062
10562SOL    HW133583  11.443   7.721  14.073
10562SOL    HW233584  11.502   7.624  13.972
10563SOL     OW33585  13.540   3.719   1.927
10563SOL    HW133586  13.617   3.752   1.973
10563SOL    HW233587  13.505   3.651   1.984
10564SOL     OW33588   1.996   1.687   8.872
10564SOL    HW133589   1.912   1.707   8.915
10564SOL    HW233590   1.990   1.595   8.848
10565SOL     OW33591   5.616  14.029  13.248
10565SOL    HW133592   5.553  14.045  13.318
10565SOL    HW233593   5.649  14.115  13.224
10566SOL     OW33594   0.559   7.858   4.309
10566SOL    HW133595   0.540   7.950   4.296
10566SOL    HW233596   0.507   7.813   4.243
10567SOL     OW33597  11.299  13.466   6.200
10567SOL    HW133598  11.219  13.416   6.185
10567SOL    HW233599  11.311  13.463   6.295
10568SOL     OW33600   1.925   5.051  10.983
10568SOL    HW133601   1.885   4.970  11.014
10568SOL    HW233602   1.854   5.116  10.987
10569SOL     OW33603   0.987   2.870  10.632
10569SOL    HW133604   0.964   2.824  10.551
10569SOL    HW233605   1.056   2.816  10.671
10570SOL     OW33606   6.492   6.469   1.643
10570SOL    HW133607   6.498   6.556   1.601
10570SOL    HW233608   6.579   6.456   1.681
10571SOL     OW33609   1.516  12.311   9.857
10571SOL    HW133610   1.507  12.407   9.858
10571SOL    HW233611   1.473  12.284   9.776
10572SOL     OW33612   1.039  14.804   3.903
10572SOL    HW133613   1.017  14.717   3.935
10572SOL    HW233614   1.091  14.843   3.973
10573SOL     OW33615   5.449   9.704   2.042
10573SOL    HW133616   5.541   9.682   2.055
10573SOL    HW233617   5.401   9.634   2.085
10574SOL     OW33618   6.489   2.295   2.146
10574SOL    HW133619   6.494   2.312   2.240
10574SOL    HW233620   6.410   2.341   2.118
10575SOL     OW33621  13.166  12.128  10.149
10575SOL    HW133622  13.168  12.128  10.245
10575SOL    HW233623  13.112  12.052  10.127
10576SOL     OW33624   7.458   5.312   9.004
10576SOL    HW133625   7.524   5.334   9.069
10576SOL    HW233626   7.507   5.294   8.924
10577SOL     OW33627  11.733   9.378   0.767
10577SOL    HW133628  11.819   9.384   0.810
10577SOL    HW233629  11.753   9.364   0.675
10578SOL     OW33630   7.026  14.477  13.252
10578SOL    HW133631   7.096  14.524  13.207
10578SOL    HW233632   7.057  14.386  13.258
10579SOL     OW33633  14.014   2.328   5.200
10579SOL    HW133634  14.080   2.367   5.257
10579SOL    HW233635  14.023   2.234   5.212
10580SOL     OW33636   5.065  13.558   8.467
10580SOL    HW133637   5.151  13.542   8.507
10580SOL    HW233638   5.044  13.477   8.422
10581SOL     OW33639  10.478   1.362   4.437
10581SOL    HW133640  10.557   1.309   4.451
10581SOL    HW233641  10.487   1.394   4.347
10582SOL     OW33642   4.822  13.081   5.990
10582SOL    HW133643   4.906  13.124   6.008
10582SOL    HW233644   4.842  13.019   5.920
10583SOL     OW33645   3.456   2.750   0.268
10583SOL    HW133646   3.395   2.677   0.281
10583SOL    HW233647   3.443   2.776   0.177
10584SOL     OW33648   8.376  14.513  10.677
10584SOL    HW133649   8.397  14.510  10.771
10584SOL    HW233650   8.281  14.520  10.674
10585SOL     OW33651   0.851   9.365   1.982
10585SOL    HW133652   0.924   9.424   2.002
10585SOL    HW233653   0.892   9.281   1.963
10586SOL     OW33654  14.707   1.523  14.093
10586SOL    HW133655  14.629   1.469  14.084
10586SOL    HW233656  14.692   1.597  14.035
10587SOL     OW33657  13.094  10.550  10.373
10587SOL    HW133658  13.188  10.549  10.387
10587SOL    HW233659  13.083  10.529  10.280
10588SOL     OW33660   4.867   6.817   6.406
10588SOL    HW133661   4.959   6.790   6.397
10588SOL    HW233662   4.832   6.813   6.317
10589SOL     OW33663   9.954   6.238  10.344
10589SOL    HW133664   9.977   6.189  10.423
10589SOL    HW233665  10.006   6.197  10.275
10590SOL     OW33666   3.751  10.216   8.192
10590SOL    HW133667   3.673  10.175   8.229
10590SOL    HW233668   3.724  10.305   8.170
10591SOL     OW33669   0.127  12.015   9.662
10591SOL    HW133670   0.121  11.969   9.745
10591SOL    HW233671   0.048  12.070   9.659
10592SOL     OW33672   5.316  11.870   2.063
10592SOL    HW133673   5.352  11.793   2.107
10592SOL    HW233674   5.325  11.940   2.127
10593SOL     OW33675  12.320   3.616   5.362
10593SOL    HW133676  12.328   3.567   5.280
10593SOL    HW233677  12.251   3.570   5.411
10594SOL     OW33678  11.026  12.402   4.808
10594SOL    HW133679  11.061  12.364   4.889
10594SOL    HW233680  10.933  12.381   4.810
10595SOL     OW33681   5.350   2.225  10.911
10595SOL    HW133682   5.265   2.254  10.879
10595SOL    HW233683   5.349   2.246  11.004
10596SOL     OW33684   9.395   4.904  10.378
10596SOL    HW133685   9.445   4.834  10.419
10596SOL    HW233686   9.347   4.944  10.450
10597SOL     OW33687  11.487  10.611   9.336
10597SOL    HW133688  11.405  10.611   9.285
10597SOL    HW233689  11.556  10.606   9.270
10598SOL     OW33690   5.993   7.260   8.353
10598SOL    HW133691   5.897   7.257   8.355
10598SOL    HW233692   6.018   7.173   8.320
10599SOL     OW33693   8.688   9.264   6.391
10599SOL    HW133694   8.626   9.198   6.419
10599SOL    HW233695   8.739   9.284   6.470
10600SOL     OW33696  14.710   8.470   1.461
10600SOL    HW133697  14.687   8.562   1.455
10600SOL    HW233698  14.693   8.434   1.374
10601SOL     OW33699   0.771   0.209  11.578
10601SOL    HW133700   0.746   0.146  11.645
10601SOL    HW233701   0.835   0.163  11.524
10602SOL     OW33702   5.779   2.870  13.184
10602SOL    HW133703   5.859   2.921  13.196
10602SOL    HW233704   5.725   2.922  13.124
10603SOL     OW33705  10.377   4.577   4.987
10603SOL    HW133706  10.359   4.518   4.913
10603SOL    HW233707  10.382   4.664   4.947
10604SOL     OW33708   5.052   0.402   3.814
10604SOL    HW133709   4.970   0.448   3.834
10604SOL    HW233710   5.107   0.419   3.891
10605SOL     OW33711   0.957  11.200   5.675
10605SOL    HW133712   0.981  11.290   5.695
10605SOL    HW233713   1.016  11.175   5.603
10606SOL     OW33714   3.028   5.819   6.987
10606SOL    HW133715   2.950   5.830   6.931
10606SOL    HW233716   3.075   5.746   6.946
10607SOL     OW33717  11.925   4.222   9.592
10607SOL    HW133718  11.980   4.151   9.560
10607SOL    HW233719  11.835   4.192   9.579
10608SOL     OW33720   7.183   5.893  13.248
10608SOL    HW133721   7.271   5.864  13.270
10608SOL    HW233722   7.150   5.932  13.329
10609SOL     OW33723   9.831   4.765   9.787
10609SOL    HW133724   9.756   4.790   9.733
10609SOL    HW233725   9.830   4.669   9.788
10610SOL     OW33726   1.432   8.289   0.580
10610SOL    HW133727   1.411   8.323   0.493
10610SOL    HW233728   1.350   8.298   0.630
10611SOL     OW33729   9.525  10.562  12.764
10611SOL    HW133730   9.521  10.533  12.673
10611SOL    HW233731   9.532  10.658  12.758
10612SOL     OW33732   7.324  10.736   6.907
10612SOL    HW133733   7.255  10.700   6.963
10612SOL    HW233734   7.361  10.808   6.958
10613SOL     OW33735   7.856   0.750   1.611
10613SOL    HW133736   7.812   0.817   1.663
10613SOL    HW233737   7.948   0.755   1.639
10614SOL     OW33738   1.861  14.191   3.930
10614SOL    HW133739   1.889  14.146   3.850
10614SOL    HW233740   1.903  14.277   3.925
10615SOL     OW33741  12.339   2.286   2.348
10615SOL    HW133742  12.411   2.235   2.311
10615SOL    HW233743  12.260   2.240   2.320
10616SOL     OW33744   6.082   9.919   8.761
10616SOL    HW133745   6.166   9.899   8.719
10616SOL    HW233746   6.048   9.994   8.713
10617SOL     OW33747  14.682   5.503  13.039
10617SOL    HW133748  14.591   5.483  13.018
10617SOL    HW233749  14.726   5.512  12.954
10618SOL     OW33750   5.180  11.175   8.730
10618SOL    HW133751   5.087  11.155   8.723
10618SOL    HW233752   5.200  11.161   8.822
10619SOL     OW33753   6.801   2.405   0.258
10619SOL    HW133754   6.768   2.410   0.168
10619SOL    HW233755   6.745   2.465   0.307
10620SOL     OW33756  13.850  11.267   2.649
10620SOL    HW133757  13.817  11.302   2.567
10620SOL    HW233758  13.772  11.248   2.701
10621SOL     OW33759   3.943   0.582   1.002
10621SOL    HW133760   3.855   0.545   0.991
10621SOL    HW233761   3.994   0.544   0.930
10622SOL     OW33762   1.065   8.421   3.011
10622SOL    HW133763   1.006   8.435   2.938
10622SOL    HW233764   1.031   8.477   3.081
10623SOL     OW33765   6.334   3.678   0.811
10623SOL    HW133766   6.331   3.604   0.872
10623SOL    HW233767   6.281   3.745   0.853
10624SOL     OW33768   5.046   9.898   2.640
10624SOL    HW133769   5.082   9.872   2.555
10624SOL    HW233770   4.995   9.977   2.622
10625SOL     OW33771  11.602   6.433  11.649
10625SOL    HW133772  11.601   6.374  11.724
10625SOL    HW233773  11.538   6.396  11.589
10626SOL     OW33774   3.697   0.626   4.415
10626SOL    HW133775   3.645   0.636   4.335
10626SOL    HW233776   3.747   0.708   4.421
10627SOL     OW33777   2.741   1.972   6.846
10627SOL    HW133778   2.711   1.922   6.769
10627SOL    HW233779   2.818   2.018   6.815
10628SOL     OW33780   8.791   4.080   4.301
10628SOL    HW133781   8.708   4.032   4.306
10628SOL    HW233782   8.791   4.137   4.377
10629SOL     OW33783   9.722   0.169   2.017
10629SOL    HW133784   9.696   0.077   2.027
10629SOL    HW233785   9.818   0.166   2.013
10630SOL     OW33786  11.255   0.425   5.947
10630SOL    HW133787  11.249   0.451   6.039
10630SOL    HW233788  11.275   0.332   5.950
10631SOL     OW33789  13.387   7.626  12.703
10631SOL    HW133790  13.342   7.703  12.738
10631SOL    HW233791  13.387   7.640  12.608
10632SOL     OW33792  14.027  10.763   3.226
10632SOL    HW133793  13.947  10.786   3.273
10632SOL    HW233794  14.085  10.729   3.293
10633SOL     OW33795   4.801  10.596  12.360
10633SOL    HW133796   4.862  10.610  12.287
10633SOL    HW233797   4.720  10.637  12.331
10634SOL     OW33798   4.619   1.382   5.836
10634SOL    HW133799   4.529   1.395   5.866
10634SOL    HW233800   4.610   1.332   5.755
10635SOL     OW33801   7.834   0.847   5.624
10635SOL    HW133802   7.767   0.791   5.661
10635SOL    HW233803   7.858   0.803   5.542
10636SOL     OW33804   2.363   7.251   1.062
10636SOL    HW133805   2.351   7.283   0.972
10636SOL    HW233806   2.371   7.330   1.115
10637SOL     OW33807   4.829   3.941   8.968
10637SOL    HW133808   4.792   3.866   9.014
10637SOL    HW233809   4.893   3.902   8.908
10638SOL     OW33810   4.717   9.511   0.046
10638SOL    HW133811   4.726   9.420   0.018
10638SOL    HW233812   4.763   9.515   0.130
10639SOL     OW33813   4.597  10.306  11.385
10639SOL    HW133814   4.679  10.288  11.432
10639SOL    HW233815   4.572  10.394  11.413
10640SOL     OW33816   8.958   9.279   9.259
10640SOL    HW133817   9.044   9.260   9.221
10640SOL    HW233818   8.897   9.270   9.185
10641SOL     OW33819   5.977  12.399  13.666
10641SOL    HW133820   5.959  12.364  13.753
10641SOL    HW233821   5.989  12.493  13.680
10642SOL     OW33822  10.807   2.946   0.981
10642SOL    HW133823  10.817   2.865   0.931
10642SOL    HW233824  10.805   2.917   1.072
10643SOL     OW33825   3.399  12.596  10.632
10643SOL    HW133826   3.413  12.661  10.564
10643SOL    HW233827   3.304  12.596  10.646
10644SOL     OW33828   1.621   5.338   7.353
10644SOL    HW133829   1.537   5.357   7.394
10644SOL    HW233830   1.636   5.245   7.371
10645SOL     OW33831   8.933   2.268   9.107
10645SOL    HW133832   8.963   2.320   9.033
10645SOL    HW233833   8.983   2.301   9.182
10646SOL     OW33834   5.424   8.231  10.477
10646SOL    HW133835   5.428   8.269  10.565
10646SOL    HW233836   5.463   8.144  10.486
10647SOL     OW33837   4.732  12.323  14.491
10647SOL    HW133838   4.773  12.311  14.576
10647SOL    HW233839   4.762  12.409  14.461
10648SOL     OW33840   0.949  10.758   7.732
10648SOL    HW133841   0.981  10.739   7.821
10648SOL    HW233842   1.027  10.752   7.677
10649SOL     OW33843   1.741  13.429  11.441
10649SOL    HW133844   1.774  13.518  11.443
10649SOL    HW233845   1.819  13.374  11.450
10650SOL     OW33846  10.718   0.905   2.427
10650SOL    HW133847  10.635   0.949   2.411
10650SOL    HW233848  10.742   0.932   2.515
10651SOL     OW33849   1.203   5.712   1.034
10651SOL    HW133850   1.188   5.658   0.957
10651SOL    HW233851   1.124   5.700   1.088
10652SOL     OW33852  12.250  11.368   6.344
10652SOL    HW133853  12.235  11.331   6.257
10652SOL    HW233854  12.342  11.394   6.344
10653SOL     OW33855   0.392   3.446  12.575
10653SOL    HW133856   0.316   3.494  12.610
10653SOL    HW233857   0.389   3.463  12.481
10654SOL     OW33858  12.727   4.513   4.037
10654SOL    HW133859  12.802   4.560   4.000
10654SOL    HW233860  12.688   4.468   3.962
10655SOL     OW33861   6.205   9.602  11.246
10655SOL    HW133862   6.292   9.593  11.208
10655SOL    HW233863   6.177   9.513  11.265
10656SOL     OW33864  12.710  10.127   8.050
10656SOL    HW133865  12.728  10.036   8.023
10656SOL    HW233866  12.618  10.126   8.075
10657SOL     OW33867   7.315   0.085  10.239
10657SOL    HW133868   7.234   0.126  10.270
10657SOL    HW233869   7.344   0.031  10.313
10658SOL     OW33870   8.944   9.681  10.043
10658SOL    HW133871   9.016   9.715  10.095
10658SOL    HW233872   8.976   9.681   9.953
10659SOL     OW33873   4.396   2.185  11.747
10659SOL    HW133874   4.337   2.165  11.819
10659SOL    HW233875   4.341   2.179  11.669
10660SOL     OW33876  11.026  12.709   3.794
10660SOL    HW133877  11.025  12.637   3.731
10660SOL    HW233878  10.963  12.773   3.758
10661SOL     OW33879  10.113   5.230   0.067
10661SOL    HW133880  10.098   5.267   0.154
10661SOL    HW233881  10.032   5.249   0.019
10662SOL     OW33882   2.305   7.989   6.149
10662SOL    HW133883   2.268   8.059   6.202
10662SOL    HW233884   2.397   8.013   6.138
10663SOL     OW33885   6.995   9.882   2.770
10663SOL    HW133886   6.916   9.936   2.765
10663SOL    HW233887   7.003   9.843   2.683
10664SOL     OW33888   3.518   1.819   4.849
10664SOL    HW133889   3.609   1.789   4.855
10664SOL    HW233890   3.525   1.910   4.821
10665SOL     OW33891   4.803  12.403  10.508
10665SOL    HW133892   4.827  12.483  10.554
10665SOL    HW233893   4.778  12.432  10.421
10666SOL     OW33894   6.862  10.038   1.021
10666SOL    HW133895   6.906  10.001   0.944
10666SOL    HW233896   6.897   9.987   1.094
10667SOL     OW33897  11.792  10.505   8.372
10667SOL    HW133898  11.715  10.504   8.316
10667SOL    HW233899  11.810  10.413   8.391
10668SOL     OW33900   0.920   8.495   8.370
10668SOL    HW133901   0.941   8.582   8.336
10668SOL    HW233902   0.842   8.469   8.320
10669SOL     OW33903   5.651   2.347   1.276
10669SOL    HW133904   5.606   2.275   1.230
10669SOL    HW233905   5.683   2.403   1.205
10670SOL     OW33906   6.952   7.234  11.526
10670SOL    HW133907   6.982   7.198  11.609
10670SOL    HW233908   7.031   7.241  11.472
10671SOL     OW33909   4.157  14.582  11.170
10671SOL    HW133910   4.214  14.542  11.104
10671SOL    HW233911   4.194  14.554  11.254
10672SOL     OW33912   3.245   6.552  10.779
10672SOL    HW133913   3.315   6.615  10.762
10672SOL    HW233914   3.186   6.597  10.839
10673SOL     OW33915   3.762   1.139  12.110
10673SOL    HW133916   3.735   1.105  12.025
10673SOL    HW233917   3.708   1.217  12.123
10674SOL     OW33918  12.995   7.008  13.129
10674SOL    HW133919  12.933   6.956  13.181
10674SOL    HW233920  13.065   6.946  13.107
10675SOL     OW33921   1.990   0.103   1.475
10675SOL    HW133922   2.021   0.192   1.487
10675SOL    HW233923   2.040   0.051   1.538
10676SOL     OW33924   3.135  12.962   2.628
10676SOL    HW133925   3.062  13.024   2.630
10676SOL    HW233926   3.208  13.014   2.595
10677SOL     OW33927   4.145   9.659   9.321
10677SOL    HW133928   4.206   9.712   9.373
10677SOL    HW233929   4.076   9.720   9.295
10678SOL     OW33930   9.851   5.754   1.129
10678SOL    HW133931   9.944   5.776   1.136
10678SOL    HW233932   9.822   5.791   1.046
10679SOL     OW33933  10.894   6.435  10.199
10679SOL    HW133934  10.907   6.342  10.179
10679SOL    HW233935  10.847   6.469  10.123
10680SOL     OW33936   1.818   0.865   0.186
10680SOL    HW133937   1.778   0.923   0.252
10680SOL    HW233938   1.849   0.924   0.118
10681SOL     OW33939   2.755   6.730   4.402
10681SOL    HW133940   2.670   6.688   4.392
10681SOL    HW233941   2.817   6.658   4.407
10682SOL     OW33942   8.566  10.029  12.917
10682SOL    HW133943   8.537  10.044  13.007
10682SOL    HW233944   8.573   9.934  12.909
10683SOL     OW33945  14.242  12.519   9.585
10683SOL    HW133946  14.171  12.563   9.632
10683SOL    HW233947  14.200  12.481   9.508
10684SOL     OW33948   3.817   8.091   6.540
10684SOL    HW133949   3.872   8.024   6.499
10684SOL    HW233950   3.799   8.057   6.628
10685SOL     OW33951   9.234   1.318  13.649
10685SOL    HW133952   9.302   1.271  13.601
10685SOL    HW233953   9.191   1.372  13.582
10686SOL     OW33954  14.762   4.394   5.480
10686SOL    HW133955  14.798   4.346   5.555
10686SOL    HW233956  14.796   4.483   5.490
10687SOL     OW33957   7.808   5.825  14.610
10687SOL    HW133958   7.809   5.786  14.697
10687SOL    HW233959   7.867   5.900  14.616
10688SOL     OW33960   8.853   5.283   6.256
10688SOL    HW133961   8.933   5.231   6.247
10688SOL    HW233962   8.882   5.367   6.289
10689SOL     OW33963  13.586   0.304   0.744
10689SOL    HW133964  13.511   0.308   0.685
10689SOL    HW233965  13.588   0.213   0.774
10690SOL     OW33966   1.148   2.910   1.458
10690SOL    HW133967   1.056   2.923   1.433
10690SOL    HW233968   1.188   2.996   1.444
10691SOL     OW33969   6.053   2.568   9.560
10691SOL    HW133970   6.079   2.548   9.470
10691SOL    HW233971   6.081   2.491   9.611
10692SOL     OW33972   1.547  11.033  10.346
10692SOL    HW133973   1.499  11.105  10.305
10692SOL    HW233974   1.620  11.076  10.391
10693SOL     OW33975   9.880   1.542   6.634
10693SOL    HW133976   9.929   1.483   6.691
10693SOL    HW233977   9.879   1.499   6.549
10694SOL     OW33978   8.915   9.179   3.938
10694SOL    HW133979   8.820   9.193   3.930
10694SOL    HW233980   8.947   9.184   3.847
10695SOL     OW33981  11.898   3.322  13.266
10695SOL    HW133982  11.965   3.267  13.223
10695SOL    HW233983  11.819   3.268  13.265
10696SOL     OW33984   2.275   3.868   5.489
10696SOL    HW133985   2.278   3.772   5.486
10696SOL    HW233986   2.364   3.895   5.466
10697SOL     OW33987   9.262   0.551   8.829
10697SOL    HW133988   9.292   0.618   8.890
10697SOL    HW233989   9.198   0.597   8.774
10698SOL     OW33990  11.644   9.800   1.873
10698SOL    HW133991  11.658   9.706   1.860
10698SOL    HW233992  11.732   9.837   1.879
10699SOL     OW33993   0.488   6.299  10.022
10699SOL    HW133994   0.558   6.237  10.001
10699SOL    HW233995   0.490   6.363   9.951
10700SOL     OW33996   4.769   3.996   6.882
10700SOL    HW133997   4.822   4.067   6.919
10700SOL    HW233998   4.712   4.039   6.818
10701SOL     OW33999   8.389   0.109   5.330
10701SOL    HW134000   8.480   0.127   5.356
10701SOL    HW234001   8.394   0.095   5.236
10702SOL     OW34002  12.395   1.392  12.358
10702SOL    HW134003  12.362   1.415  12.272
10702SOL    HW234004  12.489   1.379  12.346
10703SOL     OW34005   0.237   4.372   0.833
10703SOL    HW134006   0.312   4.313   0.832
10703SOL    HW234007   0.244   4.420   0.750
10704SOL     OW34008   5.985   2.920  13.739
10704SOL    HW134009   6.055   2.879  13.687
10704SOL    HW234010   5.997   3.014  13.726
10705SOL     OW34011   5.978   6.993   5.427
10705SOL    HW134012   5.887   7.019   5.414
10705SOL    HW234013   5.983   6.904   5.393
10706SOL     OW34014   5.753   8.583  11.158
10706SOL    HW134015   5.812   8.655  11.136
10706SOL    HW234016   5.780   8.511  11.101
10707SOL     OW34017  11.728  14.622  12.554
10707SOL    HW134018  11.674  14.544  12.570
10707SOL    HW234019  11.818  14.589  12.552
10708SOL     OW34020   4.867  11.714   8.554
10708SOL    HW134021   4.847  11.693   8.645
10708SOL    HW234022   4.949  11.762   8.558
10709SOL     OW34023  13.915   4.883  12.465
10709SOL    HW134024  13.988   4.832  12.430
10709SOL    HW234025  13.839   4.851  12.417
10710SOL     OW34026   5.409   5.468   0.071
10710SOL    HW134027   5.432   5.376   0.060
10710SOL    HW234028   5.366   5.472   0.156
10711SOL     OW34029   5.496   8.066   3.512
10711SOL    HW134030   5.533   8.037   3.428
10711SOL    HW234031   5.448   8.146   3.491
10712SOL     OW34032   0.302   0.044   1.957
10712SOL    HW134033   0.365   0.104   1.917
10712SOL    HW234034   0.315  14.841   1.911
10713SOL     OW34035  10.090  13.837   6.639
10713SOL    HW134036  10.157  13.815   6.703
10713SOL    HW234037  10.085  13.932   6.640
10714SOL     OW34038   3.106   6.508   7.409
10714SOL    HW134039   3.130   6.478   7.321
10714SOL    HW234040   3.093   6.602   7.399
10715SOL     OW34041   7.233   1.842   8.876
10715SOL    HW134042   7.267   1.928   8.902
10715SOL    HW234043   7.288   1.816   8.802
10716SOL     OW34044  10.518   9.464   7.077
10716SOL    HW134045  10.497   9.469   7.170
10716SOL    HW234046  10.435   9.477   7.032
10717SOL     OW34047  10.150   7.211  12.976
10717SOL    HW134048  10.124   7.303  12.975
10717SOL    HW234049  10.220   7.207  13.041
10718SOL     OW34050   4.526   7.862  13.353
10718SOL    HW134051   4.437   7.882  13.323
10718SOL    HW234052   4.512   7.810  13.432
10719SOL     OW34053   5.889   7.011  12.404
10719SOL    HW134054   5.891   6.962  12.486
10719SOL    HW234055   5.798   7.039  12.395
10720SOL     OW34056   1.692  14.201  12.401
10720SOL    HW134057   1.771  14.156  12.431
10720SOL    HW234058   1.621  14.141  12.421
10721SOL     OW34059   7.066   2.875   2.421
10721SOL    HW134060   7.064   2.936   2.495
10721SOL    HW234061   7.013   2.919   2.354
10722SOL     OW34062   6.264   2.010   9.980
10722SOL    HW134063   6.252   2.096   9.938
10722SOL    HW234064   6.206   2.011  10.055
10723SOL     OW34065   1.241   2.027  10.030
10723SOL    HW134066   1.184   2.003  10.103
10723SOL    HW234067   1.282   2.109  10.057
10724SOL     OW34068   1.585  12.136  10.505
10724SOL    HW134069   1.666  12.132  10.555
10724SOL    HW234070   1.583  12.225  10.470
10725SOL     OW34071  14.835   0.733   6.426
10725SOL    HW134072   0.032   0.756   6.373
10725SOL    HW234073  14.872   0.702   6.509
10726SOL     OW34074   9.482   6.448  12.626
10726SOL    HW134075   9.435   6.530  12.608
10726SOL    HW234076   9.413   6.386  12.650
10727SOL     OW34077   2.753   6.361  10.826
10727SOL    HW134078   2.797   6.395  10.748
10727SOL    HW234079   2.799   6.400  10.899
10728SOL     OW34080   4.304   3.233   2.238
10728SOL    HW134081   4.368   3.191   2.296
10728SOL    HW234082   4.221   3.189   2.258
10729SOL     OW34083   2.830   6.383   2.724
10729SOL    HW134084   2.824   6.469   2.764
10729SOL    HW234085   2.743   6.345   2.736
10730SOL     OW34086   0.747   8.233   8.571
10730SOL    HW134087   0.710   8.321   8.580
10730SOL    HW234088   0.838   8.242   8.599
10731SOL     OW34089   9.818   0.919   0.948
10731SOL    HW134090   9.853   0.834   0.921
10731SOL    HW234091   9.848   0.980   0.882
10732SOL     OW34092  12.340   3.192   7.411
10732SOL    HW134093  12.249   3.206   7.438
10732SOL    HW234094  12.369   3.278   7.380
10733SOL     OW34095   6.742   8.118   3.027
10733SOL    HW134096   6.654   8.082   3.036
10733SOL    HW234097   6.800   8.042   3.033
10734SOL     OW34098   4.392   5.843  10.647
10734SOL    HW134099   4.367   5.756  10.614
10734SOL    HW234100   4.480   5.856  10.614
10735SOL     OW34101   6.578   9.222   1.946
10735SOL    HW134102   6.608   9.132   1.946
10735SOL    HW234103   6.621   9.261   2.023
10736SOL     OW34104   8.853   3.946   2.057
10736SOL    HW134105   8.847   3.925   2.150
10736SOL    HW234106   8.789   4.015   2.043
10737SOL     OW34107   3.568  11.672   4.940
10737SOL    HW134108   3.514  11.655   5.018
10737SOL    HW234109   3.526  11.747   4.898
10738SOL     OW34110   3.358   4.142  14.663
10738SOL    HW134111   3.447   4.128  14.628
10738SOL    HW234112   3.311   4.183  14.591
10739SOL     OW34113   4.738   0.100   2.852
10739SOL    HW134114   4.719   0.007   2.838
10739SOL    HW234115   4.716   0.115   2.944
10740SOL     OW34116   3.576   3.531  12.747
10740SOL    HW134117   3.500   3.521  12.690
10740SOL    HW234118   3.547   3.590  12.817
10741SOL     OW34119   3.966  13.161   3.843
10741SOL    HW134120   3.875  13.163   3.870
10741SOL    HW234121   3.965  13.190   3.752
10742SOL     OW34122   4.063  12.548   4.788
10742SOL    HW134123   4.043  12.640   4.770
10742SOL    HW234124   4.121  12.551   4.865
10743SOL     OW34125   0.252  11.794   6.176
10743SOL    HW134126   0.284  11.804   6.087
10743SOL    HW234127   0.192  11.720   6.172
10744SOL     OW34128   3.792  14.434  10.806
10744SOL    HW134129   3.758  14.427  10.895
10744SOL    HW234130   3.742  14.506  10.767
10745SOL     OW34131   7.720  13.023  10.255
10745SOL    HW134132   7.718  13.112  10.292
10745SOL    HW234133   7.689  13.034  10.165
10746SOL     OW34134  10.687   3.603  10.700
10746SOL    HW134135  10.611   3.589  10.756
10746SOL    HW234136  10.718   3.690  10.725
10747SOL     OW34137   2.431  14.037   9.525
10747SOL    HW134138   2.381  14.021   9.605
10747SOL    HW234139   2.364  14.059   9.460
10748SOL     OW34140   8.520   8.901   9.804
10748SOL    HW134141   8.476   8.822   9.772
10748SOL    HW234142   8.507   8.899   9.899
10749SOL     OW34143   0.396  14.876   7.420
10749SOL    HW134144   0.376  14.803   7.479
10749SOL    HW234145   0.384   0.075   7.474
10750SOL     OW34146   8.478   8.412  12.492
10750SOL    HW134147   8.541   8.430  12.562
10750SOL    HW234148   8.394   8.438  12.529
10751SOL     OW34149   3.459  11.486   9.246
10751SOL    HW134150   3.481  11.411   9.190
10751SOL    HW234151   3.540  11.502   9.296
10752SOL     OW34152   8.188  12.347   6.320
10752SOL    HW134153   8.161  12.295   6.245
10752SOL    HW234154   8.174  12.438   6.293
10753SOL     OW34155  10.158   7.364   7.312
10753SOL    HW134156  10.197   7.442   7.353
10753SOL    HW234157  10.071   7.357   7.353
10754SOL     OW34158   3.409   8.103  11.226
10754SOL    HW134159   3.381   8.149  11.146
10754SOL    HW234160   3.328   8.078  11.269
10755SOL     OW34161   4.304  13.249  12.877
10755SOL    HW134162   4.360  13.174  12.856
10755SOL    HW234163   4.217  13.223  12.848
10756SOL     OW34164   5.538   0.332   7.532
10756SOL    HW134165   5.614   0.299   7.485
10756SOL    HW234166   5.470   0.267   7.517
10757SOL     OW34167  12.950  13.834   0.443
10757SOL    HW134168  12.937  13.926   0.419
10757SOL    HW234169  13.030  13.835   0.496
10758SOL     OW34170   4.933   2.391  10.042
10758SOL    HW134171   4.975   2.308  10.021
10758SOL    HW234172   4.940   2.398  10.138
10759SOL     OW34173   3.934   9.238  12.497
10759SOL    HW134174   4.007   9.280  12.451
10759SOL    HW234175   3.866   9.306  12.501
10760SOL     OW34176   5.486  12.605   0.208
10760SOL    HW134177   5.434  12.563   0.277
10760SOL    HW234178   5.529  12.678   0.252
10761SOL     OW34179   4.267   6.088   7.037
10761SOL    HW134180   4.183   6.081   6.990
10761SOL    HW234181   4.256   6.031   7.113
10762SOL     OW34182   1.948  10.935   4.471
10762SOL    HW134183   1.989  11.000   4.415
10762SOL    HW234184   1.871  10.906   4.422
10763SOL     OW34185   4.520   3.374  11.714
10763SOL    HW134186   4.576   3.297  11.709
10763SOL    HW234187   4.580   3.446  11.733
10764SOL     OW34188  12.781   0.184  11.567
10764SOL    HW134189  12.872   0.170  11.596
10764SOL    HW234190  12.734   0.107  11.598
10765SOL     OW34191   8.447   6.142   4.976
10765SOL    HW134192   8.501   6.088   4.919
10765SOL    HW234193   8.357   6.127   4.944
10766SOL     OW34194   4.550   0.860   1.967
10766SOL    HW134195   4.481   0.795   1.955
10766SOL    HW234196   4.511   0.926   2.024
10767SOL     OW34197   3.174   0.650   5.909
10767SOL    HW134198   3.133   0.564   5.900
10767SOL    HW234199   3.226   0.660   5.828
10768SOL     OW34200  14.551   6.385   5.138
10768SOL    HW134201  14.539   6.303   5.185
10768SOL    HW234202  14.469   6.400   5.092
10769SOL     OW34203  14.572   8.327   3.859
10769SOL    HW134204  14.563   8.341   3.765
10769SOL    HW234205  14.529   8.403   3.899
10770SOL     OW34206   2.488   3.201   4.637
10770SOL    HW134207   2.452   3.137   4.576
10770SOL    HW234208   2.490   3.283   4.588
10771SOL     OW34209  14.604   4.539  10.744
10771SOL    HW134210  14.589   4.490  10.825
10771SOL    HW234211  14.586   4.630  10.768
10772SOL     OW34212   2.744  13.815  14.691
10772SOL    HW134213   2.721  13.733  14.734
10772SOL    HW234214   2.830  13.799  14.652
10773SOL     OW34215   0.908   0.595  13.852
10773SOL    HW134216   0.846   0.594  13.925
10773SOL    HW234217   0.855   0.616  13.775
10774SOL     OW34218   3.449   9.574  11.229
10774SOL    HW134219   3.405   9.625  11.161
10774SOL    HW234220   3.439   9.626  11.309
10775SOL     OW34221   9.407  12.238   1.160
10775SOL    HW134222   9.479  12.265   1.103
10775SOL    HW234223   9.329  12.244   1.104
10776SOL     OW34224   0.716   5.205  12.340
10776SOL    HW134225   0.768   5.280  12.309
10776SOL    HW234226   0.662   5.181  12.264
10777SOL     OW34227   5.699   7.378  10.056
10777SOL    HW134228   5.789   7.400  10.032
10777SOL    HW234229   5.688   7.415  10.144
10778SOL     OW34230   2.172   8.414   7.341
10778SOL    HW134231   2.093   8.365   7.318
10778SOL    HW234232   2.244   8.357   7.312
10779SOL     OW34233  10.388   5.545   0.900
10779SOL    HW134234  10.433   5.463   0.877
10779SOL    HW234235  10.303   5.538   0.856
10780SOL     OW34236   4.927   0.583   1.768
10780SOL    HW134237   5.002   0.532   1.737
10780SOL    HW234238   4.872   0.593   1.690
10781SOL     OW34239  10.271   0.569  14.423
10781SOL    HW134240  10.321   0.633  14.474
10781SOL    HW234241  10.180   0.596  14.434
10782SOL     OW34242   2.927   8.892   6.220
10782SOL    HW134243   2.947   8.982   6.191
10782SOL    HW234244   2.986   8.877   6.294
10783SOL     OW34245  14.662   4.562  11.421
10783SOL    HW134246  14.649   4.640  11.474
10783SOL    HW234247  14.585   4.507  11.440
10784SOL     OW34248   8.072   9.837   5.082
10784SOL    HW134249   8.114   9.811   5.000
10784SOL    HW234250   7.979   9.818   5.069
10785SOL     OW34251   6.528   7.199  14.111
10785SOL    HW134252   6.559   7.288  14.095
10785SOL    HW234253   6.476   7.177  14.034
10786SOL     OW34254   9.857   1.981   7.268
10786SOL    HW134255   9.901   2.059   7.301
10786SOL    HW234256   9.785   1.966   7.329
10787SOL     OW34257   9.112  12.605   5.493
10787SOL    HW134258   9.085  12.605   5.585
10787SOL    HW234259   9.081  12.521   5.459
10788SOL     OW34260   1.423  14.746  14.368
10788SOL    HW134261   1.363  14.727  14.295
10788SOL    HW234262   1.438  14.661  14.409
10789SOL     OW34263   7.798   0.528   5.616
10789SOL    HW134264   7.842   0.455   5.573
10789SOL    HW234265   7.869   0.577   5.657
10790SOL     OW34266   6.173  14.490  12.470
10790SOL    HW134267   6.266  14.476  12.490
10790SOL    HW234268   6.155  14.429  12.399
10791SOL     OW34269   1.006   3.087   4.037
10791SOL    HW134270   1.028   3.008   3.988
10791SOL    HW234271   0.981   3.150   3.969
10792SOL     OW34272  11.192   2.914   1.092
10792SOL    HW134273  11.208   2.997   1.049
10792SOL    HW234274  11.161   2.937   1.180
10793SOL     OW34275   2.521   5.209   8.215
10793SOL    HW134276   2.587   5.158   8.261
10793SOL    HW234277   2.483   5.265   8.282
10794SOL     OW34278   4.796   8.813   6.024
10794SOL    HW134279   4.760   8.893   6.062
10794SOL    HW234280   4.809   8.754   6.099
10795SOL     OW34281   0.430  11.658   7.121
10795SOL    HW134282   0.390  11.587   7.172
10795SOL    HW234283   0.480  11.709   7.184
10796SOL     OW34284  12.947   0.954   1.872
10796SOL    HW134285  13.011   0.913   1.815
10796SOL    HW234286  12.863   0.916   1.846
10797SOL     OW34287   6.918   1.064  12.971
10797SOL    HW134288   6.949   1.121  13.041
10797SOL    HW234289   6.966   1.092  12.894
10798SOL     OW34290   9.526   9.237   5.549
10798SOL    HW134291   9.612   9.275   5.564
10798SOL    HW234292   9.537   9.144   5.568
10799SOL     OW34293   0.713   6.856   4.214
10799SOL    HW134294   0.750   6.793   4.153
10799SOL    HW234295   0.623   6.826   4.227
10800SOL     OW34296   9.175   3.363  11.260
10800SOL    HW134297   9.182   3.377  11.166
10800SOL    HW234298   9.182   3.451  11.298
10801SOL     OW34299  11.635   9.807  12.112
10801SOL    HW134300  11.652   9.888  12.065
10801SOL    HW234301  11.655   9.827  12.203
10802SOL     OW34302   6.370   1.221  12.068
10802SOL    HW134303   6.299   1.284  12.057
10802SOL    HW234304   6.331   1.149  12.119
10803SOL     OW34305  13.421   8.405  10.332
10803SOL    HW134306  13.363   8.341  10.291
10803SOL    HW234307  13.478   8.353  10.389
10804SOL     OW34308   2.357  13.685   5.272
10804SOL    HW134309   2.398  13.772   5.272
10804SOL    HW234310   2.316  13.679   5.359
10805SOL     OW34311  11.003   6.195  11.339
10805SOL    HW134312  11.086   6.244  11.341
10805SOL    HW234313  11.028   6.106  11.316
10806SOL     OW34314   7.435   8.048  10.225
10806SOL    HW134315   7.486   7.995  10.287
10806SOL    HW234316   7.480   8.038  10.142
10807SOL     OW34317  13.633   6.739  12.110
10807SOL    HW134318  13.714   6.777  12.075
10807SOL    HW234319  13.659   6.694  12.190
10808SOL     OW34320   3.883  14.138   2.206
10808SOL    HW134321   3.835  14.152   2.125
10808SOL    HW234322   3.975  14.131   2.179
10809SOL     OW34323  10.023  12.078  14.599
10809SOL    HW134324  10.057  12.089  14.688
10809SOL    HW234325  10.016  12.167  14.564
10810SOL     OW34326   3.404   7.489  10.915
10810SOL    HW134327   3.360   7.574  10.906
10810SOL    HW234328   3.336   7.430  10.948
10811SOL     OW34329   2.629   8.973   8.322
10811SOL    HW134330   2.694   8.997   8.388
10811SOL    HW234331   2.547   9.009   8.355
10812SOL     OW34332   9.089   5.730   5.224
10812SOL    HW134333   9.041   5.649   5.238
10812SOL    HW234334   9.180   5.702   5.212
10813SOL     OW34335  12.637  12.024  11.231
10813SOL    HW134336  12.576  11.950  11.233
10813SOL    HW234337  12.653  12.039  11.138
10814SOL     OW34338   9.733   7.803   4.884
10814SOL    HW134339   9.697   7.733   4.938
10814SOL    HW234340   9.678   7.804   4.806
10815SOL     OW34341   1.882   7.766  12.027
10815SOL    HW134342   1.847   7.799  11.944
10815SOL    HW234343   1.927   7.685  12.004
10816SOL     OW34344   9.026   5.501   4.000
10816SOL    HW134345   8.974   5.577   3.975
10816SOL    HW234346   9.015   5.440   3.927
10817SOL     OW34347  13.465   6.971   1.211
10817SOL    HW134348  13.490   6.917   1.136
10817SOL    HW234349  13.434   7.054   1.172
10818SOL     OW34350   7.003  12.856   7.062
10818SOL    HW134351   7.091  12.889   7.079
10818SOL    HW234352   6.966  12.840   7.149
10819SOL     OW34353   9.927  12.116   2.552
10819SOL    HW134354   9.890  12.062   2.483
10819SOL    HW234355   9.897  12.075   2.633
10820SOL     OW34356   3.896  11.139   3.345
10820SOL    HW134357   3.828  11.174   3.403
10820SOL    HW234358   3.850  11.075   3.290
10821SOL     OW34359  11.756   9.579   6.253
10821SOL    HW134360  11.790   9.666   6.232
10821SOL    HW234361  11.661   9.588   6.248
10822SOL     OW34362  10.070   9.515   2.770
10822SOL    HW134363  10.011   9.497   2.844
10822SOL    HW234364  10.140   9.568   2.808
10823SOL     OW34365   2.092   9.738   8.705
10823SOL    HW134366   2.078   9.794   8.781
10823SOL    HW234367   2.099   9.649   8.742
10824SOL     OW34368  12.920   7.881   4.470
10824SOL    HW134369  12.970   7.808   4.434
10824SOL    HW234370  12.919   7.866   4.564
10825SOL     OW34371   6.775  10.210   3.460
10825SOL    HW134372   6.851  10.174   3.415
10825SOL    HW234373   6.802  10.217   3.551
10826SOL     OW34374   8.460   0.870   2.753
10826SOL    HW134375   8.373   0.906   2.740
10826SOL    HW234376   8.454   0.779   2.725
10827SOL     OW34377  13.026  10.869   2.375
10827SOL    HW134378  12.954  10.861   2.438
10827SOL    HW234379  13.011  10.953   2.332
10828SOL     OW34380  11.133   7.193   7.302
10828SOL    HW134381  11.226   7.208   7.284
10828SOL    HW234382  11.087   7.246   7.238
10829SOL     OW34383   5.579   5.409  12.742
10829SOL    HW134384   5.513   5.346  12.770
10829SOL    HW234385   5.535   5.462  12.676
10830SOL     OW34386  11.573   6.698  11.682
10830SOL    HW134387  11.589   6.608  11.652
10830SOL    HW234388  11.528   6.740  11.609
10831SOL     OW34389   8.344   2.442   8.750
10831SOL    HW134390   8.250   2.453   8.767
10831SOL    HW234391   8.379   2.531   8.750
10832SOL     OW34392   3.449   0.767  13.339
10832SOL    HW134393   3.527   0.714  13.353
10832SOL    HW234394   3.477   0.835  13.277
10833SOL     OW34395   1.467   9.033   2.480
10833SOL    HW134396   1.521   8.981   2.420
10833SOL    HW234397   1.423   8.967   2.534
10834SOL     OW34398   4.665  13.059   9.674
10834SOL    HW134399   4.597  13.002   9.636
10834SOL    HW234400   4.647  13.145   9.638
10835SOL     OW34401  10.843   2.772  11.515
10835SOL    HW134402  10.761   2.735  11.545
10835SOL    HW234403  10.900   2.697  11.498
10836SOL     OW34404   2.110  13.031  10.058
10836SOL    HW134405   2.169  13.105  10.050
10836SOL    HW234406   2.088  13.027  10.151
10837SOL     OW34407   8.226  14.560   5.805
10837SOL    HW134408   8.135  14.574   5.833
10837SOL    HW234409   8.219  14.497   5.733
10838SOL     OW34410   9.591  12.531   1.066
10838SOL    HW134411   9.596  12.443   1.028
10838SOL    HW234412   9.598  12.590   0.990
10839SOL     OW34413   7.236   9.941   4.018
10839SOL    HW134414   7.307  10.006   4.023
10839SOL    HW234415   7.195   9.944   4.104
10840SOL     OW34416   8.533  13.759   1.208
10840SOL    HW134417   8.548  13.846   1.246
10840SOL    HW234418   8.474  13.716   1.270
10841SOL     OW34419   2.203  14.756   7.872
10841SOL    HW134420   2.117  14.728   7.839
10841SOL    HW234421   2.252  14.779   7.793
10842SOL     OW34422   9.695  11.359   0.037
10842SOL    HW134423   9.617  11.403   0.070
10842SOL    HW234424   9.703  11.389  14.826
10843SOL     OW34425   7.272   5.041   9.584
10843SOL    HW134426   7.341   4.976   9.598
10843SOL    HW234427   7.315   5.125   9.601
10844SOL     OW34428  10.748   5.536   2.486
10844SOL    HW134429  10.827   5.589   2.493
10844SOL    HW234430  10.727   5.535   2.393
10845SOL     OW34431   6.416   1.214   4.528
10845SOL    HW134432   6.448   1.161   4.601
10845SOL    HW234433   6.495   1.242   4.482
10846SOL     OW34434   7.845   2.884   4.528
10846SOL    HW134435   7.886   2.945   4.467
10846SOL    HW234436   7.821   2.809   4.474
10847SOL     OW34437  11.716  10.348   1.950
10847SOL    HW134438  11.790  10.299   1.986
10847SOL    HW234439  11.641  10.289   1.959
10848SOL     OW34440   5.814   7.071   0.545
10848SOL    HW134441   5.782   6.995   0.594
10848SOL    HW234442   5.742   7.135   0.549
10849SOL     OW34443   2.162   1.556   1.553
10849SOL    HW134444   2.170   1.466   1.584
10849SOL    HW234445   2.146   1.548   1.459
10850SOL     OW34446  10.278   1.742  10.423
10850SOL    HW134447  10.212   1.801  10.385
10850SOL    HW234448  10.226   1.679  10.474
10851SOL     OW34449   6.107   0.634   1.032
10851SOL    HW134450   6.065   0.586   0.961
10851SOL    HW234451   6.044   0.630   1.104
10852SOL     OW34452   4.016   9.571   9.913
10852SOL    HW134453   4.072   9.505   9.954
10852SOL    HW234454   4.054   9.584   9.826
10853SOL     OW34455   6.291   5.408  13.701
10853SOL    HW134456   6.320   5.428  13.789
10853SOL    HW234457   6.363   5.358  13.662
10854SOL     OW34458   5.127   6.102   6.214
10854SOL    HW134459   5.038   6.070   6.230
10854SOL    HW234460   5.134   6.106   6.119
10855SOL     OW34461   4.183  11.664   8.275
10855SOL    HW134462   4.264  11.669   8.224
10855SOL    HW234463   4.212  11.673   8.366
10856SOL     OW34464   1.943   8.676   8.949
10856SOL    HW134465   1.974   8.594   8.910
10856SOL    HW234466   2.001   8.743   8.913
10857SOL     OW34467   2.376  11.695   9.258
10857SOL    HW134468   2.404  11.604   9.245
10857SOL    HW234469   2.458  11.744   9.267
10858SOL     OW34470  10.567   0.686   8.580
10858SOL    HW134471  10.562   0.652   8.669
10858SOL    HW234472  10.581   0.780   8.591
10859SOL     OW34473   7.125  10.800   4.383
10859SOL    HW134474   7.079  10.780   4.302
10859SOL    HW234475   7.078  10.876   4.419
10860SOL     OW34476  14.115   9.253   3.329
10860SOL    HW134477  14.063   9.279   3.252
10860SOL    HW234478  14.065   9.181   3.367
10861SOL     OW34479   9.750   6.389  12.702
10861SOL    HW134480   9.657   6.393  12.679
10861SOL    HW234481   9.785   6.472  12.671
10862SOL     OW34482   1.998   2.217   0.789
10862SOL    HW134483   2.032   2.153   0.725
10862SOL    HW234484   1.941   2.273   0.737
10863SOL     OW34485   9.555   9.851   0.345
10863SOL    HW134486   9.506   9.932   0.363
10863SOL    HW234487   9.516   9.786   0.403
10864SOL     OW34488   2.213   5.423   9.337
10864SOL    HW134489   2.122   5.437   9.312
10864SOL    HW234490   2.261   5.494   9.293
10865SOL     OW34491   3.877  11.968   2.086
10865SOL    HW134492   3.790  12.008   2.085
10865SOL    HW234493   3.913  11.991   2.171
10866SOL     OW34494   0.303  11.012   4.343
10866SOL    HW134495   0.286  11.083   4.405
10866SOL    HW234496   0.383  10.970   4.375
10867SOL     OW34497   2.754  10.711   3.292
10867SOL    HW134498   2.775  10.745   3.205
10867SOL    HW234499   2.669  10.751   3.313
10868SOL     OW34500   3.788   3.016  14.335
10868SOL    HW134501   3.756   2.998  14.423
10868SOL    HW234502   3.799   2.930  14.295
10869SOL     OW34503   1.519  12.838  13.833
10869SOL    HW134504   1.549  12.761  13.881
10869SOL    HW234505   1.451  12.805  13.774
10870SOL     OW34506   4.215   4.797   8.744
10870SOL    HW134507   4.141   4.741   8.764
10870SOL    HW234508   4.241   4.834   8.828
10871SOL     OW34509  11.164  13.022  12.951
10871SOL    HW134510  11.142  12.956  12.885
10871SOL    HW234511  11.179  12.972  13.031
10872SOL     OW34512   8.397   9.493   5.244
10872SOL    HW134513   8.318   9.513   5.194
10872SOL    HW234514   8.367   9.483   5.334
10873SOL     OW34515   9.670   4.520   3.969
10873SOL    HW134516   9.700   4.610   3.980
10873SOL    HW234517   9.747   4.473   3.938
10874SOL     OW34518  14.744  13.429   8.613
10874SOL    HW134519  14.790  13.368   8.556
10874SOL    HW234520  14.704  13.493   8.554
10875SOL     OW34521   9.631  13.006  14.757
10875SOL    HW134522   9.675  13.090  14.741
10875SOL    HW234523   9.685  12.942  14.712
10876SOL     OW34524   8.364   7.217  13.144
10876SOL    HW134525   8.434   7.186  13.086
10876SOL    HW234526   8.369   7.159  13.221
10877SOL     OW34527  12.889  10.152   2.499
10877SOL    HW134528  12.956  10.160   2.430
10877SOL    HW234529  12.882  10.058   2.515
10878SOL     OW34530   2.664   3.200  13.255
10878SOL    HW134531   2.728   3.131  13.241
10878SOL    HW234532   2.697   3.249  13.331
10879SOL     OW34533   0.607  10.898   5.618
10879SOL    HW134534   0.542  10.863   5.679
10879SOL    HW234535   0.654  10.965   5.668
10880SOL     OW34536   7.449  13.455   5.098
10880SOL    HW134537   7.377  13.471   5.037
10880SOL    HW234538   7.489  13.540   5.112
10881SOL     OW34539   9.178  11.321  11.997
10881SOL    HW134540   9.186  11.234  11.958
10881SOL    HW234541   9.267  11.346  12.020
10882SOL     OW34542   8.098  13.791  14.076
10882SOL    HW134543   8.180  13.779  14.123
10882SOL    HW234544   8.109  13.742  13.995
10883SOL     OW34545   3.173   9.154   7.996
10883SOL    HW134546   3.260   9.118   7.975
10883SOL    HW234547   3.162   9.135   8.089
10884SOL     OW34548   1.998   5.755  12.759
10884SOL    HW134549   2.003   5.680  12.818
10884SOL    HW234550   1.957   5.824  12.811
10885SOL     OW34551   8.547   2.052  12.028
10885SOL    HW134552   8.465   2.003  12.020
10885SOL    HW234553   8.524   2.141  11.999
10886SOL     OW34554  13.608   0.579   1.306
10886SOL    HW134555  13.640   0.529   1.231
10886SOL    HW234556  13.536   0.526   1.341
10887SOL     OW34557  13.248  12.616  12.320
10887SOL    HW134558  13.316  12.668  12.277
10887SOL    HW234559  13.181  12.680  12.345
10888SOL     OW34560   8.673  10.299  12.039
10888SOL    HW134561   8.684  10.297  12.134
10888SOL    HW234562   8.604  10.363  12.025
10889SOL     OW34563   3.207   7.928  14.829
10889SOL    HW134564   3.250   7.872  14.765
10889SOL    HW234565   3.139   7.973  14.780
10890SOL     OW34566   4.916   0.936   6.149
10890SOL    HW134567   4.921   0.979   6.063
10890SOL    HW234568   4.945   1.004   6.211
10891SOL     OW34569   5.597   1.859  14.634
10891SOL    HW134570   5.594   1.954  14.622
10891SOL    HW234571   5.612   1.846  14.727
10892SOL     OW34572   7.377  13.882  13.343
10892SOL    HW134573   7.392  13.787  13.335
10892SOL    HW234574   7.289  13.895  13.306
10893SOL     OW34575   5.342   6.093   5.700
10893SOL    HW134576   5.267   6.112   5.643
10893SOL    HW234577   5.322   6.007   5.738
10894SOL     OW34578   7.993   3.921  11.858
10894SOL    HW134579   8.076   3.877  11.841
10894SOL    HW234580   8.004   3.962  11.944
10895SOL     OW34581   9.744   4.495   8.345
10895SOL    HW134582   9.788   4.576   8.317
10895SOL    HW234583   9.786   4.473   8.428
10896SOL     OW34584   9.111   9.369  12.909
10896SOL    HW134585   9.086   9.332  12.824
10896SOL    HW234586   9.030   9.369  12.960
10897SOL     OW34587   1.348   5.447   9.936
10897SOL    HW134588   1.309   5.532   9.957
10897SOL    HW234589   1.441   5.466   9.923
10898SOL     OW34590   7.729   3.348   2.259
10898SOL    HW134591   7.666   3.396   2.205
10898SOL    HW234592   7.717   3.256   2.236
10899SOL     OW34593   8.474   0.956  11.937
10899SOL    HW134594   8.518   0.927  11.857
10899SOL    HW234595   8.427   0.878  11.968
10900SOL     OW34596   5.240  12.594  13.856
10900SOL    HW134597   5.319  12.647  13.865
10900SOL    HW234598   5.224  12.558  13.943
10901SOL     OW34599  12.652   6.403   8.817
10901SOL    HW134600  12.637   6.467   8.748
10901SOL    HW234601  12.744   6.377   8.807
10902SOL     OW34602  11.786   0.713  11.113
10902SOL    HW134603  11.813   0.766  11.188
10902SOL    HW234604  11.785   0.775  11.039
10903SOL     OW34605   5.210   2.030  14.846
10903SOL    HW134606   5.150   1.995   0.031
10903SOL    HW234607   5.162   2.102  14.804
10904SOL     OW34608   3.544  10.668   9.899
10904SOL    HW134609   3.498  10.701   9.821
10904SOL    HW234610   3.482  10.680   9.970
10905SOL     OW34611   8.702   0.467   4.582
10905SOL    HW134612   8.739   0.380   4.567
10905SOL    HW234613   8.769   0.512   4.634
10906SOL     OW34614  12.541   0.979   1.704
10906SOL    HW134615  12.607   1.013   1.765
10906SOL    HW234616  12.588   0.968   1.621
10907SOL     OW34617  13.751  10.993   9.097
10907SOL    HW134618  13.745  10.901   9.070
10907SOL    HW234619  13.668  11.011   9.142
10908SOL     OW34620   9.123  13.655  14.264
10908SOL    HW134621   9.175  13.594  14.317
10908SOL    HW234622   9.186  13.691  14.201
10909SOL     OW34623   5.324   2.820   1.928
10909SOL    HW134624   5.282   2.736   1.910
10909SOL    HW234625   5.401   2.822   1.871
10910SOL     OW34626   7.620   8.416   8.291
10910SOL    HW134627   7.574   8.412   8.374
10910SOL    HW234628   7.627   8.324   8.263
10911SOL     OW34629  12.245  14.538  10.433
10911SOL    HW134630  12.218  14.452  10.462
10911SOL    HW234631  12.197  14.552  10.351
10912SOL     OW34632   2.932   3.869   5.549
10912SOL    HW134633   3.024   3.874   5.522
10912SOL    HW234634   2.914   3.775   5.558
10913SOL     OW34635   7.854  14.334  12.448
10913SOL    HW134636   7.830  14.283  12.525
10913SOL    HW234637   7.938  14.372  12.470
10914SOL     OW34638   6.315  12.628   1.458
10914SOL    HW134639   6.374  12.553   1.463
10914SOL    HW234640   6.311  12.662   1.548
10915SOL     OW34641  12.366   5.150  10.785
10915SOL    HW134642  12.339   5.099  10.861
10915SOL    HW234643  12.302   5.221  10.779
10916SOL     OW34644  12.204   2.295   2.680
10916SOL    HW134645  12.272   2.348   2.639
10916SOL    HW234646  12.143   2.359   2.717
10917SOL     OW34647   2.728   2.966   9.146
10917SOL    HW134648   2.821   2.982   9.158
10917SOL    HW234649   2.717   2.953   9.052
10918SOL     OW34650  14.002  13.590   1.743
10918SOL    HW134651  14.083  13.573   1.790
10918SOL    HW234652  13.935  13.543   1.793
10919SOL     OW34653   5.467  13.473   8.517
10919SOL    HW134654   5.496  13.403   8.458
10919SOL    HW234655   5.499  13.553   8.476
10920SOL     OW34656   0.107   7.868   4.666
10920SOL    HW134657   0.175   7.858   4.732
10920SOL    HW234658   0.140   7.938   4.608
10921SOL     OW34659   3.606   5.814  10.370
10921SOL    HW134660   3.523   5.810  10.321
10921SOL    HW234661   3.592   5.757  10.445
10922SOL     OW34662   4.220  10.412   9.736
10922SOL    HW134663   4.135  10.402   9.694
10922SOL    HW234664   4.235  10.328   9.781
10923SOL     OW34665   3.160   5.823   6.549
10923SOL    HW134666   3.218   5.857   6.617
10923SOL    HW234667   3.211   5.833   6.468
10924SOL     OW34668   4.387   0.896   8.436
10924SOL    HW134669   4.473   0.864   8.408
10924SOL    HW234670   4.393   0.991   8.425
10925SOL     OW34671   8.736  11.577   0.847
10925SOL    HW134672   8.678  11.533   0.786
10925SOL    HW234673   8.756  11.512   0.914
10926SOL     OW34674   3.849   9.215  14.597
10926SOL    HW134675   3.796   9.191  14.674
10926SOL    HW234676   3.931   9.167  14.609
10927SOL     OW34677  10.832   2.110   8.366
10927SOL    HW134678  10.849   2.197   8.329
10927SOL    HW234679  10.856   2.049   8.297
10928SOL     OW34680   7.556   8.417  13.872
10928SOL    HW134681   7.507   8.390  13.950
10928SOL    HW234682   7.499   8.481  13.830
10929SOL     OW34683   8.185   1.894   5.784
10929SOL    HW134684   8.171   1.962   5.849
10929SOL    HW234685   8.267   1.919   5.740
10930SOL     OW34686   8.783   2.664   0.814
10930SOL    HW134687   8.816   2.578   0.789
10930SOL    HW234688   8.822   2.725   0.751
10931SOL     OW34689  13.208  10.543   3.352
10931SOL    HW134690  13.272  10.485   3.311
10931SOL    HW234691  13.125  10.494   3.347
10932SOL     OW34692   7.286  14.179   5.442
10932SOL    HW134693   7.362  14.122   5.431
10932SOL    HW234694   7.320  14.268   5.426
10933SOL     OW34695   8.517   6.197   0.305
10933SOL    HW134696   8.441   6.174   0.359
10933SOL    HW234697   8.567   6.116   0.297
10934SOL     OW34698   0.451  11.574  12.390
10934SOL    HW134699   0.472  11.584  12.297
10934SOL    HW234700   0.493  11.649  12.432
10935SOL     OW34701   3.144   9.446   0.359
10935SOL    HW134702   3.197   9.505   0.305
10935SOL    HW234703   3.054   9.459   0.328
10936SOL     OW34704  11.570   7.507   3.347
10936SOL    HW134705  11.480   7.528   3.325
10936SOL    HW234706  11.613   7.492   3.263
10937SOL     OW34707   4.798   9.984  13.744
10937SOL    HW134708   4.784  10.060  13.687
10937SOL    HW234709   4.841   9.920  13.688
10938SOL     OW34710  10.279   4.062   6.786
10938SOL    HW134711  10.217   4.027   6.849
10938SOL    HW234712  10.303   3.987   6.731
10939SOL     OW34713   5.377   2.262   6.214
10939SOL    HW134714   5.426   2.328   6.165
10939SOL    HW234715   5.425   2.253   6.297
10940SOL     OW34716  11.712   8.730   3.615
10940SOL    HW134717  11.683   8.697   3.701
10940SOL    HW234718  11.649   8.692   3.553
10941SOL     OW34719  13.179  12.470   2.000
10941SOL    HW134720  13.264  12.430   1.982
10941SOL    HW234721  13.141  12.484   1.913
10942SOL     OW34722  13.259   2.846  12.428
10942SOL    HW134723  13.219   2.818  12.511
10942SOL    HW234724  13.283   2.764  12.385
10943SOL     OW34725  11.047   4.438   2.237
10943SOL    HW134726  10.966   4.480   2.266
10943SOL    HW234727  11.081   4.395   2.316
10944SOL     OW34728   7.275  11.087  10.945
10944SOL    HW134729   7.268  11.183  10.948
10944SOL    HW234730   7.238  11.063  10.860
10945SOL     OW34731  13.645   3.404   2.084
10945SOL    HW134732  13.592   3.335   2.046
10945SOL    HW234733  13.720   3.359   2.123
10946SOL     OW34734   0.218   0.530   7.054
10946SOL    HW134735   0.161   0.457   7.030
10946SOL    HW234736   0.268   0.549   6.974
10947SOL     OW34737   6.001  11.777   7.700
10947SOL    HW134738   5.982  11.825   7.781
10947SOL    HW234739   6.078  11.724   7.722
10948SOL     OW34740   0.787  11.399   5.255
10948SOL    HW134741   0.879  11.409   5.230
10948SOL    HW234742   0.763  11.312   5.223
10949SOL     OW34743   0.543   2.106  13.659
10949SOL    HW134744   0.501   2.090  13.743
10949SOL    HW234745   0.612   2.040  13.654
10950SOL     OW34746  13.344   9.404   4.719
10950SOL    HW134747  13.400   9.382   4.794
10950SOL    HW234748  13.255   9.387   4.750
10951SOL     OW34749   0.371  13.436   8.885
10951SOL    HW134750   0.442  13.496   8.907
10951SOL    HW234751   0.304  13.452   8.951
10952SOL     OW34752   3.131   1.499  11.753
10952SOL    HW134753   3.149   1.559  11.680
10952SOL    HW234754   3.050   1.455  11.728
10953SOL     OW34755   0.136   2.156  14.534
10953SOL    HW134756   0.186   2.179  14.456
10953SOL    HW234757   0.063   2.104  14.502
10954SOL     OW34758   8.671   4.582   4.060
10954SOL    HW134759   8.632   4.609   3.977
10954SOL    HW234760   8.759   4.552   4.037
10955SOL     OW34761   6.243   2.664   6.749
10955SOL    HW134762   6.165   2.608   6.739
10955SOL    HW234763   6.273   2.679   6.659
10956SOL     OW34764   5.394   7.268   3.235
10956SOL    HW134765   5.367   7.245   3.324
10956SOL    HW234766   5.484   7.299   3.245
10957SOL     OW34767  10.045   2.718   8.617
10957SOL    HW134768  10.009   2.667   8.544
10957SOL    HW234769   9.977   2.781   8.638
10958SOL     OW34770   0.020   2.727   1.986
10958SOL    HW134771   0.064   2.678   1.916
10958SOL    HW234772  14.853   2.660   2.037
10959SOL     OW34773   8.359  14.061  12.641
10959SOL    HW134774   8.326  14.084  12.555
10959SOL    HW234775   8.371  13.966  12.637
10960SOL     OW34776   5.125  13.217   1.260
10960SOL    HW134777   5.209  13.219   1.306
10960SOL    HW234778   5.071  13.159   1.313
10961SOL     OW34779   7.163   9.875   6.352
10961SOL    HW134780   7.179   9.819   6.429
10961SOL    HW234781   7.116   9.818   6.291
10962SOL     OW34782  11.693  10.238   0.521
10962SOL    HW134783  11.783  10.226   0.552
10962SOL    HW234784  11.666  10.152   0.489
10963SOL     OW34785   3.620   3.833   3.849
10963SOL    HW134786   3.637   3.873   3.764
10963SOL    HW234787   3.527   3.849   3.864
10964SOL     OW34788   2.699   9.166  11.197
10964SOL    HW134789   2.723   9.186  11.288
10964SOL    HW234790   2.753   9.090  11.174
10965SOL     OW34791   5.843   7.286   6.134
10965SOL    HW134792   5.773   7.246   6.083
10965SOL    HW234793   5.804   7.303   6.220
10966SOL     OW34794   6.312   7.163   4.054
10966SOL    HW134795   6.407   7.153   4.049
10966SOL    HW234796   6.294   7.176   4.148
10967SOL     OW34797   6.499   3.568  12.221
10967SOL    HW134798   6.581   3.615  12.234
10967SOL    HW234799   6.469   3.548  12.310
10968SOL     OW34800  13.726   0.985   1.626
10968SOL    HW134801  13.750   0.923   1.556
10968SOL    HW234802  13.646   0.948   1.663
10969SOL     OW34803   9.252   9.697   3.559
10969SOL    HW134804   9.168   9.651   3.552
10969SOL    HW234805   9.305   9.641   3.616
10970SOL     OW34806   6.502   7.569   1.478
10970SOL    HW134807   6.501   7.550   1.571
10970SOL    HW234808   6.539   7.657   1.472
10971SOL     OW34809  14.194   0.533   0.426
10971SOL    HW134810  14.276   0.501   0.389
10971SOL    HW234811  14.133   0.460   0.416
10972SOL     OW34812  12.825  13.666   5.296
10972SOL    HW134813  12.890  13.722   5.337
10972SOL    HW234814  12.876  13.593   5.258
10973SOL     OW34815   1.266   9.072   7.115
10973SOL    HW134816   1.231   8.983   7.122
10973SOL    HW234817   1.198   9.121   7.068
10974SOL     OW34818   8.537   2.630   7.947
10974SOL    HW134819   8.550   2.583   8.029
10974SOL    HW234820   8.457   2.592   7.910
10975SOL     OW34821  13.114  11.474  12.880
10975SOL    HW134822  13.169  11.412  12.926
10975SOL    HW234823  13.150  11.560  12.904
10976SOL     OW34824   9.548  11.658  14.617
10976SOL    HW134825   9.640  11.673  14.638
10976SOL    HW234826   9.549  11.593  14.546
10977SOL     OW34827  13.712   8.839  11.394
10977SOL    HW134828  13.643   8.779  11.366
10977SOL    HW234829  13.666   8.908  11.441
10978SOL     OW34830   0.570   9.384   7.596
10978SOL    HW134831   0.659   9.409   7.571
10978SOL    HW234832   0.515   9.426   7.530
10979SOL     OW34833   8.616  12.722   1.574
10979SOL    HW134834   8.647  12.665   1.504
10979SOL    HW234835   8.695  12.757   1.613
10980SOL     OW34836   7.790   9.126  14.584
10980SOL    HW134837   7.816   9.193  14.646
10980SOL    HW234838   7.822   9.044  14.622
10981SOL     OW34839   9.642   1.493   8.567
10981SOL    HW134840   9.689   1.470   8.486
10981SOL    HW234841   9.689   1.447   8.636
10982SOL     OW34842  11.438  14.082  13.720
10982SOL    HW134843  11.459  14.161  13.770
10982SOL    HW234844  11.447  14.011  13.782
10983SOL     OW34845   4.834   4.805   8.926
10983SOL    HW134846   4.876   4.878   8.972
10983SOL    HW234847   4.891   4.730   8.944
10984SOL     OW34848   3.861  10.928   6.228
10984SOL    HW134849   3.949  10.913   6.261
10984SOL    HW234850   3.830  10.841   6.202
10985SOL     OW34851   0.805   3.182   4.544
10985SOL    HW134852   0.860   3.216   4.614
10985SOL    HW234853   0.725   3.152   4.588
10986SOL     OW34854  12.778   4.219   7.765
10986SOL    HW134855  12.783   4.179   7.851
10986SOL    HW234856  12.708   4.171   7.720
10987SOL     OW34857   2.391   6.243  14.024
10987SOL    HW134858   2.449   6.252  14.100
10987SOL    HW234859   2.315   6.196  14.057
10988SOL     OW34860  11.469   2.168   9.604
10988SOL    HW134861  11.529   2.131   9.540
10988SOL    HW234862  11.433   2.246   9.561
10989SOL     OW34863   6.485  12.071   8.926
10989SOL    HW134864   6.431  11.996   8.950
10989SOL    HW234865   6.430  12.147   8.943
10990SOL     OW34866   1.074   3.337   6.195
10990SOL    HW134867   1.083   3.421   6.150
10990SOL    HW234868   1.159   3.295   6.184
10991SOL     OW34869  10.781   4.877   2.368
10991SOL    HW134870  10.733   4.959   2.378
10991SOL    HW234871  10.806   4.874   2.276
10992SOL     OW34872   0.762   5.460  11.082
10992SOL    HW134873   0.833   5.517  11.051
10992SOL    HW234874   0.797   5.371  11.073
10993SOL     OW34875   1.225   2.821   7.244
10993SOL    HW134876   1.180   2.834   7.161
10993SOL    HW234877   1.161   2.777   7.300
10994SOL     OW34878   2.315  13.559  12.250
10994SOL    HW134879   2.395  13.529  12.292
10994SOL    HW234880   2.247  13.501  12.284
10995SOL     OW34881   2.205  11.971  10.601
10995SOL    HW134882   2.150  11.927  10.666
10995SOL    HW234883   2.213  12.060  10.633
10996SOL     OW34884   1.497   1.224   1.126
10996SOL    HW134885   1.463   1.135   1.132
10996SOL    HW234886   1.452   1.272   1.196
10997SOL     OW34887  12.416   4.608   0.223
10997SOL    HW134888  12.378   4.601   0.136
10997SOL    HW234889  12.351   4.656   0.274
10998SOL     OW34890   3.406   8.610   8.390
10998SOL    HW134891   3.371   8.658   8.315
10998SOL    HW234892   3.389   8.667   8.465
10999SOL     OW34893   3.367  14.118   7.461
10999SOL    HW134894   3.427  14.093   7.530
10999SOL    HW234895   3.376  14.050   7.394
11000SOL     OW34896  11.838   6.718  12.254
11000SOL    HW134897  11.775   6.719  12.327
11000SOL    HW234898  11.865   6.810  12.246
11001SOL     OW34899  13.102  10.684  10.971
11001SOL    HW134900  13.019  10.650  11.007
11001SOL    HW234901  13.159  10.690  11.047
11002SOL     OW34902   0.123   3.918   1.777
11002SOL    HW134903   0.166   3.885   1.698
11002SOL    HW234904   0.051   3.972   1.745
11003SOL     OW34905   5.373  14.374   6.040
11003SOL    HW134906   5.290  14.332   6.063
11003SOL    HW234907   5.420  14.307   5.990
11004SOL     OW34908  13.820  12.533  12.638
11004SOL    HW134909  13.858  12.449  12.612
11004SOL    HW234910  13.733  12.534  12.597
11005SOL     OW34911   1.562   4.693   5.906
11005SOL    HW134912   1.580   4.656   5.819
11005SOL    HW234913   1.499   4.763   5.889
11006SOL     OW34914   5.528   5.128   9.962
11006SOL    HW134915   5.523   5.086   9.876
11006SOL    HW234916   5.438   5.158   9.979
11007SOL     OW34917  12.236   1.706   4.062
11007SOL    HW134918  12.180   1.755   4.123
11007SOL    HW234919  12.300   1.770   4.032
11008SOL     OW34920   6.906  14.429   0.670
11008SOL    HW134921   6.857  14.434   0.588
11008SOL    HW234922   6.926  14.336   0.680
11009SOL     OW34923   5.673   1.824   4.873
11009SOL    HW134924   5.679   1.920   4.873
11009SOL    HW234925   5.665   1.800   4.965
11010SOL     OW34926  13.265  14.395   6.957
11010SOL    HW134927  13.271  14.299   6.959
11010SOL    HW234928  13.207  14.417   7.029
11011SOL     OW34929   6.522   5.467   9.939
11011SOL    HW134930   6.558   5.556   9.937
11011SOL    HW234931   6.427   5.480   9.938
11012SOL     OW34932  10.703   9.046  10.166
11012SOL    HW134933  10.681   9.077  10.254
11012SOL    HW234934  10.791   9.081  10.150
11013SOL     OW34935   3.916   2.138   4.539
11013SOL    HW134936   3.901   2.086   4.460
11013SOL    HW234937   4.006   2.168   4.531
11014SOL     OW34938   5.707  11.907   6.226
11014SOL    HW134939   5.667  11.994   6.231
11014SOL    HW234940   5.679  11.863   6.306
11015SOL     OW34941  13.059   7.030  12.497
11015SOL    HW134942  13.000   7.050  12.570
11015SOL    HW234943  13.004   6.987  12.432
11016SOL     OW34944   5.849  14.525   1.563
11016SOL    HW134945   5.855  14.440   1.520
11016SOL    HW234946   5.937  14.561   1.559
11017SOL     OW34947   5.654   3.099   0.996
11017SOL    HW134948   5.726   3.071   1.052
11017SOL    HW234949   5.582   3.039   1.017
11018SOL     OW34950   8.868   9.387   0.192
11018SOL    HW134951   8.944   9.330   0.180
11018SOL    HW234952   8.808   9.361   0.123
11019SOL     OW34953   9.846   6.691   9.677
11019SOL    HW134954   9.751   6.696   9.687
11019SOL    HW234955   9.859   6.668   9.585
11020SOL     OW34956   2.691   0.408   6.767
11020SOL    HW134957   2.762   0.470   6.750
11020SOL    HW234958   2.675   0.416   6.862
11021SOL     OW34959   6.584  14.146   7.060
11021SOL    HW134960   6.593  14.170   7.152
11021SOL    HW234961   6.586  14.229   7.013
11022SOL     OW34962   6.989   4.586   1.363
11022SOL    HW134963   6.897   4.607   1.375
11022SOL    HW234964   7.008   4.521   1.431
11023SOL     OW34965   3.988   7.615   3.318
11023SOL    HW134966   3.970   7.522   3.331
11023SOL    HW234967   4.008   7.622   3.225
11024SOL     OW34968  10.874   6.706   3.466
11024SOL    HW134969  10.819   6.771   3.509
11024SOL    HW234970  10.828   6.623   3.479
11025SOL     OW34971  13.924  12.986   5.383
11025SOL    HW134972  13.848  12.928   5.395
11025SOL    HW234973  13.957  12.963   5.296
11026SOL     OW34974  14.528   6.963   7.230
11026SOL    HW134975  14.555   6.994   7.143
11026SOL    HW234976  14.573   7.021   7.291
11027SOL     OW34977  10.792   0.543   0.652
11027SOL    HW134978  10.706   0.543   0.693
11027SOL    HW234979  10.852   0.517   0.723
11028SOL     OW34980   9.120   5.503  13.949
11028SOL    HW134981   9.101   5.530  13.859
11028SOL    HW234982   9.049   5.443  13.972
11029SOL     OW34983  10.436   7.586   9.496
11029SOL    HW134984  10.366   7.649   9.480
11029SOL    HW234985  10.395   7.517   9.550
11030SOL     OW34986   9.948  12.587  10.566
11030SOL    HW134987   9.895  12.582  10.645
11030SOL    HW234988  10.029  12.631  10.594
11031SOL     OW34989   7.495  14.573   8.983
11031SOL    HW134990   7.469  14.521   8.906
11031SOL    HW234991   7.412  14.605   9.019
11032SOL     OW34992   6.467   0.675   5.069
11032SOL    HW134993   6.506   0.593   5.099
11032SOL    HW234994   6.375   0.654   5.055
11033SOL     OW34995   6.108   1.448   7.114
11033SOL    HW134996   6.149   1.535   7.122
11033SOL    HW234997   6.021   1.459   7.153
11034SOL     OW34998   2.207  14.494   6.833
11034SOL    HW134999   2.179  14.414   6.789
11034SOL    HW235000   2.245  14.548   6.763
11035SOL     OW35001   2.077   1.565   4.664
11035SOL    HW135002   2.058   1.472   4.655
11035SOL    HW235003   2.152   1.568   4.724
11036SOL     OW35004   9.216   2.454  11.783
11036SOL    HW135005   9.168   2.463  11.865
11036SOL    HW235006   9.252   2.366  11.786
11037SOL     OW35007   7.043   1.460  11.318
11037SOL    HW135008   7.126   1.505  11.337
11037SOL    HW235009   7.051   1.375  11.361
11038SOL     OW35010   0.909  10.886   1.476
11038SOL    HW135011   0.945  10.799   1.492
11038SOL    HW235012   0.820  10.870   1.445
11039SOL     OW35013  14.061   9.944   4.216
11039SOL    HW135014  14.055   9.849   4.214
11039SOL    HW235015  14.146   9.964   4.177
11040SOL     OW35016   3.900   1.786   4.118
11040SOL    HW135017   3.830   1.815   4.058
11040SOL    HW235018   3.902   1.691   4.108
11041SOL     OW35019  10.899   2.359  14.514
11041SOL    HW135020  10.968   2.313  14.560
11041SOL    HW235021  10.914   2.452  14.534
11042SOL     OW35022   6.666   9.145   8.270
11042SOL    HW135023   6.742   9.121   8.218
11042SOL    HW235024   6.644   9.066   8.319
11043SOL     OW35025   3.735   2.662   1.610
11043SOL    HW135026   3.795   2.729   1.645
11043SOL    HW235027   3.788   2.583   1.603
11044SOL     OW35028   0.597   5.463   3.016
11044SOL    HW135029   0.502   5.451   3.007
11044SOL    HW235030   0.620   5.410   3.093
11045SOL     OW35031   0.246   4.532  10.294
11045SOL    HW135032   0.152   4.516  10.308
11045SOL    HW235033   0.284   4.528  10.382
11046SOL     OW35034  12.911   3.777   7.587
11046SOL    HW135035  12.864   3.830   7.523
11046SOL    HW235036  12.923   3.835   7.662
11047SOL     OW35037   5.236   7.670   8.908
11047SOL    HW135038   5.292   7.613   8.856
11047SOL    HW235039   5.226   7.626   8.992
11048SOL     OW35040   3.931  14.569   4.013
11048SOL    HW135041   3.924  14.657   3.977
11048SOL    HW235042   3.987  14.579   4.090
11049SOL     OW35043  14.219   0.975   8.630
11049SOL    HW135044  14.284   1.012   8.689
11049SOL    HW235045  14.258   0.984   8.543
11050SOL     OW35046   5.438   5.299   3.800
11050SOL    HW135047   5.392   5.219   3.774
11050SOL    HW235048   5.498   5.271   3.868
11051SOL     OW35049   6.475  11.480   9.775
11051SOL    HW135050   6.484  11.576   9.773
11051SOL    HW235051   6.381  11.465   9.789
11052SOL     OW35052  14.038   0.710  11.028
11052SOL    HW135053  14.119   0.739  10.988
11052SOL    HW235054  13.973   0.775  11.002
11053SOL     OW35055  11.261   5.397  14.841
11053SOL    HW135056  11.328   5.348   0.009
11053SOL    HW235057  11.195   5.418   0.027
11054SOL     OW35058   9.798   9.108   0.111
11054SOL    HW135059   9.761   9.096   0.199
11054SOL    HW235060   9.728   9.079   0.052
11055SOL     OW35061  13.123  10.098   6.507
11055SOL    HW135062  13.028  10.104   6.514
11055SOL    HW235063  13.139  10.058   6.422
11056SOL     OW35064   2.774   0.085  11.184
11056SOL    HW135065   2.768   0.169  11.140
11056SOL    HW235066   2.867   0.074  11.203
11057SOL     OW35067   7.204   4.598  11.635
11057SOL    HW135068   7.202   4.565  11.725
11057SOL    HW235069   7.176   4.523  11.582
11058SOL     OW35070  11.735   1.984   5.529
11058SOL    HW135071  11.694   1.907   5.489
11058SOL    HW235072  11.710   2.056   5.471
11059SOL     OW35073  12.341   6.011   3.765
11059SOL    HW135074  12.414   5.961   3.727
11059SOL    HW235075  12.345   5.991   3.858
11060SOL     OW35076  11.648   3.853   5.873
11060SOL    HW135077  11.586   3.886   5.938
11060SOL    HW235078  11.593   3.828   5.798
11061SOL     OW35079   6.654  11.837   0.316
11061SOL    HW135080   6.617  11.818   0.230
11061SOL    HW235081   6.735  11.884   0.297
11062SOL     OW35082   9.815  11.784   7.425
11062SOL    HW135083   9.855  11.838   7.493
11062SOL    HW235084   9.722  11.784   7.446
11063SOL     OW35085   5.590  10.812  11.884
11063SOL    HW135086   5.526  10.786  11.819
11063SOL    HW235087   5.660  10.854  11.834
11064SOL     OW35088   5.764  11.750  14.004
11064SOL    HW135089   5.675  11.740  14.038
11064SOL    HW235090   5.763  11.704  13.920
11065SOL     OW35091   7.972   8.393   7.182
11065SOL    HW135092   8.040   8.327   7.180
11065SOL    HW235093   7.923   8.376   7.263
11066SOL     OW35094  12.544   4.233  11.924
11066SOL    HW135095  12.536   4.312  11.869
11066SOL    HW235096  12.509   4.163  11.870
11067SOL     OW35097  11.689   2.180   6.303
11067SOL    HW135098  11.598   2.151   6.309
11067SOL    HW235099  11.712   2.204   6.393
11068SOL     OW35100   6.450  13.248  12.453
11068SOL    HW135101   6.361  13.282  12.464
11068SOL    HW235102   6.505  13.326  12.458
11069SOL     OW35103   5.699   2.098   4.896
11069SOL    HW135104   5.749   2.158   4.951
11069SOL    HW235105   5.626   2.150   4.863
11070SOL     OW35106   4.282  12.817  11.142
11070SOL    HW135107   4.207  12.759  11.126
11070SOL    HW235108   4.341  12.765  11.196
11071SOL     OW35109  12.408   4.303  14.636
11071SOL    HW135110  12.357   4.336  14.710
11071SOL    HW235111  12.479   4.366  14.625
11072SOL     OW35112   7.228  10.315   9.300
11072SOL    HW135113   7.164  10.356   9.241
11072SOL    HW235114   7.297  10.380   9.308
11073SOL     OW35115   0.314   8.292   9.816
11073SOL    HW135116   0.399   8.332   9.795
11073SOL    HW235117   0.285   8.253   9.734
11074SOL     OW35118   1.461  13.768   4.283
11074SOL    HW135119   1.508  13.684   4.288
11074SOL    HW235120   1.371  13.746   4.307
11075SOL     OW35121   0.932   4.839   1.166
11075SOL    HW135122   0.845   4.841   1.124
11075SOL    HW235123   0.913   4.852   1.259
11076SOL     OW35124  10.572   1.865  14.532
11076SOL    HW135125  10.612   1.949  14.514
11076SOL    HW235126  10.632   1.801  14.493
11077SOL     OW35127   1.406  14.063  13.400
11077SOL    HW135128   1.380  13.972  13.390
11077SOL    HW235129   1.428  14.092  13.312
11078SOL     OW35130  12.124   5.793   8.367
11078SOL    HW135131  12.066   5.776   8.441
11078SOL    HW235132  12.075   5.764   8.291
11079SOL     OW35133   6.243   8.541   9.435
11079SOL    HW135134   6.151   8.519   9.450
11079SOL    HW235135   6.287   8.521   9.518
11080SOL     OW35136   2.572   4.291  14.360
11080SOL    HW135137   2.566   4.198  14.380
11080SOL    HW235138   2.482   4.317  14.339
11081SOL     OW35139   9.025   9.148   2.161
11081SOL    HW135140   9.022   9.192   2.076
11081SOL    HW235141   8.998   9.058   2.144
11082SOL     OW35142   9.811   9.506  14.712
11082SOL    HW135143   9.826   9.435  14.649
11082SOL    HW235144   9.718   9.526  14.704
11083SOL     OW35145   9.498   1.489   6.211
11083SOL    HW135146   9.528   1.574   6.181
11083SOL    HW235147   9.577   1.434   6.213
11084SOL     OW35148   3.953  12.064  11.575
11084SOL    HW135149   4.007  12.087  11.651
11084SOL    HW235150   4.015  12.044  11.506
11085SOL     OW35151   7.588   3.370  12.045
11085SOL    HW135152   7.545   3.423  11.978
11085SOL    HW235153   7.670   3.415  12.063
11086SOL     OW35154  10.277  14.629   0.816
11086SOL    HW135155  10.251  14.571   0.744
11086SOL    HW235156  10.213  14.700   0.814
11087SOL     OW35157   7.228  13.755   0.449
11087SOL    HW135158   7.228  13.772   0.355
11087SOL    HW235159   7.318  13.732   0.470
11088SOL     OW35160   5.103  10.388   5.306
11088SOL    HW135161   5.153  10.410   5.385
11088SOL    HW235162   5.161  10.331   5.256
11089SOL     OW35163   7.963   5.830   5.533
11089SOL    HW135164   8.021   5.862   5.603
11089SOL    HW235165   7.899   5.900   5.522
11090SOL     OW35166   9.624   6.918  14.614
11090SOL    HW135167   9.579   6.896  14.696
11090SOL    HW235168   9.585   7.001  14.587
11091SOL     OW35169   5.138   6.157   5.927
11091SOL    HW135170   5.205   6.189   5.867
11091SOL    HW235171   5.058   6.202   5.901
11092SOL     OW35172   8.060   0.234   8.759
11092SOL    HW135173   7.967   0.214   8.772
11092SOL    HW235174   8.102   0.205   8.840
11093SOL     OW35175   0.923   9.486   6.693
11093SOL    HW135176   0.931   9.554   6.626
11093SOL    HW235177   0.930   9.533   6.776
11094SOL     OW35178   6.448   4.705  12.408
11094SOL    HW135179   6.407   4.773  12.354
11094SOL    HW235180   6.410   4.718  12.495
11095SOL     OW35181  14.411   3.742   2.460
11095SOL    HW135182  14.463   3.811   2.419
11095SOL    HW235183  14.474   3.670   2.473
11096SOL     OW35184   9.235   6.342   1.759
11096SOL    HW135185   9.209   6.392   1.836
11096SOL    HW235186   9.247   6.253   1.791
11097SOL     OW35187   8.976   5.444   5.309
11097SOL    HW135188   8.897   5.399   5.281
11097SOL    HW235189   9.043   5.375   5.312
11098SOL     OW35190  12.307   8.602   7.545
11098SOL    HW135191  12.348   8.516   7.550
11098SOL    HW235192  12.228   8.588   7.493
11099SOL     OW35193   7.182  10.392  13.057
11099SOL    HW135194   7.098  10.364  13.095
11099SOL    HW235195   7.158  10.439  12.977
11100SOL     OW35196   3.706  12.179  11.702
11100SOL    HW135197   3.784  12.148  11.655
11100SOL    HW235198   3.678  12.257  11.654
11101SOL     OW35199   6.652  13.053   3.961
11101SOL    HW135200   6.713  12.998   3.912
11101SOL    HW235201   6.706  13.126   3.992
11102SOL     OW35202  10.973   8.478   9.722
11102SOL    HW135203  11.053   8.461   9.672
11102SOL    HW235204  11.000   8.470   9.814
11103SOL     OW35205  12.468   5.084   5.205
11103SOL    HW135206  12.400   5.118   5.263
11103SOL    HW235207  12.545   5.137   5.224
11104SOL     OW35208   1.290   3.756  10.207
11104SOL    HW135209   1.374   3.722  10.175
11104SOL    HW235210   1.241   3.678  10.233
11105SOL     OW35211  10.042  12.370   2.918
11105SOL    HW135212  10.077  12.344   3.003
11105SOL    HW235213   9.972  12.307   2.901
11106SOL     OW35214   5.279   2.362  10.267
11106SOL    HW135215   5.307   2.305  10.339
11106SOL    HW235216   5.310   2.318  10.188
11107SOL     OW35217   9.992   6.696  13.004
11107SOL    HW135218   9.988   6.790  12.986
11107SOL    HW235219  10.032   6.659  12.925
11108SOL     OW35220  11.863   5.078   7.605
11108SOL    HW135221  11.824   5.125   7.531
11108SOL    HW235222  11.897   5.147   7.662
11109SOL     OW35223   6.628   3.913   6.512
11109SOL    HW135224   6.621   3.943   6.421
11109SOL    HW235225   6.636   3.993   6.563
11110SOL     OW35226   5.393   2.847  12.538
11110SOL    HW135227   5.475   2.895  12.523
11110SOL    HW235228   5.372   2.864  12.630
11111SOL     OW35229   7.134   2.462   7.560
11111SOL    HW135230   7.116   2.414   7.479
11111SOL    HW235231   7.161   2.394   7.622
11112SOL     OW35232   7.734   1.595   4.897
11112SOL    HW135233   7.656   1.625   4.851
11112SOL    HW235234   7.805   1.603   4.832
11113SOL     OW35235   8.898   5.398   3.776
11113SOL    HW135236   8.915   5.366   3.688
11113SOL    HW235237   8.845   5.477   3.763
11114SOL     OW35238   3.872  14.848  11.968
11114SOL    HW135239   3.882  14.759  12.002
11114SOL    HW235240   3.825   0.014  12.037
11115SOL     OW35241   4.869  10.148   6.780
11115SOL    HW135242   4.924  10.085   6.826
11115SOL    HW235243   4.931  10.205   6.734
11116SOL     OW35244   9.733   0.389   5.976
11116SOL    HW135245   9.720   0.296   5.993
11116SOL    HW235246   9.724   0.398   5.881
11117SOL     OW35247  11.446   9.514   8.295
11117SOL    HW135248  11.387   9.515   8.220
11117SOL    HW235249  11.456   9.422   8.318
11118SOL     OW35250   0.248   0.969   8.603
11118SOL    HW135251   0.176   0.967   8.541
11118SOL    HW235252   0.324   0.940   8.552
11119SOL     OW35253  12.556  12.092   6.667
11119SOL    HW135254  12.620  12.026   6.641
11119SOL    HW235255  12.577  12.111   6.759
11120SOL     OW35256   4.394   8.641   3.817
11120SOL    HW135257   4.298   8.646   3.821
11120SOL    HW235258   4.420   8.611   3.904
11121SOL     OW35259   0.326   1.377   9.998
11121SOL    HW135260   0.327   1.327  10.080
11121SOL    HW235261   0.256   1.337   9.947
11122SOL     OW35262   6.260   6.466  13.346
11122SOL    HW135263   6.325   6.396  13.347
11122SOL    HW235264   6.178   6.422  13.367
11123SOL     OW35265   2.669  13.707   1.962
11123SOL    HW135266   2.762  13.723   1.943
11123SOL    HW235267   2.622  13.768   1.906
11124SOL     OW35268  13.097  12.283   7.455
11124SOL    HW135269  13.012  12.241   7.440
11124SOL    HW235270  13.076  12.370   7.488
11125SOL     OW35271   7.393   8.637   3.965
11125SOL    HW135272   7.449   8.574   3.919
11125SOL    HW235273   7.366   8.591   4.044
11126SOL     OW35274  10.736  14.183  10.476
11126SOL    HW135275  10.676  14.132  10.530
11126SOL    HW235276  10.706  14.169  10.386
11127SOL     OW35277   7.125   3.618   2.197
11127SOL    HW135278   7.185   3.557   2.240
11127SOL    HW235279   7.124   3.695   2.255
11128SOL     OW35280  12.714   7.975  13.265
11128SOL    HW135281  12.772   8.037  13.311
11128SOL    HW235282  12.627   8.013  13.274
11129SOL     OW35283   7.681  12.799  14.407
11129SOL    HW135284   7.688  12.894  14.418
11129SOL    HW235285   7.771  12.771  14.387
11130SOL     OW35286  12.722   9.255   2.780
11130SOL    HW135287  12.703   9.347   2.763
11130SOL    HW235288  12.818   9.251   2.786
11131SOL     OW35289   4.012  12.567   9.278
11131SOL    HW135290   3.986  12.601   9.364
11131SOL    HW235291   4.101  12.600   9.266
11132SOL     OW35292   2.134   9.650  12.037
11132SOL    HW135293   2.137   9.601  12.119
11132SOL    HW235294   2.225   9.675  12.022
11133SOL     OW35295   6.015   4.505   6.854
11133SOL    HW135296   6.068   4.583   6.842
11133SOL    HW235297   5.929   4.528   6.817
11134SOL     OW35298   0.039   8.251   3.614
11134SOL    HW135299   0.019   8.170   3.566
11134SOL    HW235300   0.129   8.272   3.589
11135SOL     OW35301  14.372  10.623  14.325
11135SOL    HW135302  14.294  10.661  14.285
11135SOL    HW235303  14.381  10.537  14.285
11136SOL     OW35304  11.009   5.968  10.794
11136SOL    HW135305  11.053   6.013  10.867
11136SOL    HW235306  11.034   6.018  10.717
11137SOL     OW35307   6.174   9.392  12.667
11137SOL    HW135308   6.145   9.313  12.621
11137SOL    HW235309   6.195   9.362  12.755
11138SOL     OW35310   0.022   5.236   5.297
11138SOL    HW135311   0.006   5.322   5.337
11138SOL    HW235312  14.818   5.215   5.254
11139SOL     OW35313  14.371  14.181  14.494
11139SOL    HW135314  14.296  14.190  14.552
11139SOL    HW235315  14.446  14.169  14.553
11140SOL     OW35316   8.624  12.350   3.756
11140SOL    HW135317   8.634  12.444   3.770
11140SOL    HW235318   8.612  12.315   3.845
11141SOL     OW35319   6.284  11.430  13.047
11141SOL    HW135320   6.310  11.370  13.116
11141SOL    HW235321   6.339  11.406  12.972
11142SOL     OW35322  10.734  12.627   7.255
11142SOL    HW135323  10.715  12.534   7.238
11142SOL    HW235324  10.830  12.631   7.261
11143SOL     OW35325  10.087  13.962   4.199
11143SOL    HW135326  10.085  14.049   4.159
11143SOL    HW235327   9.996  13.934   4.201
11144SOL     OW35328   1.527  14.251   9.183
11144SOL    HW135329   1.510  14.314   9.113
11144SOL    HW235330   1.458  14.267   9.248
11145SOL     OW35331  10.975   8.061  11.088
11145SOL    HW135332  10.999   8.131  11.027
11145SOL    HW235333  11.018   8.086  11.171
11146SOL     OW35334   7.105   8.207  10.717
11146SOL    HW135335   7.133   8.118  10.697
11146SOL    HW235336   7.130   8.257  10.639
11147SOL     OW35337   3.073   5.730   3.634
11147SOL    HW135338   3.077   5.634   3.630
11147SOL    HW235339   2.981   5.750   3.650
11148SOL     OW35340  13.051   8.228   1.776
11148SOL    HW135341  13.143   8.254   1.766
11148SOL    HW235342  13.002   8.304   1.744
11149SOL     OW35343  14.778   8.583   6.870
11149SOL    HW135344  14.754   8.571   6.962
11149SOL    HW235345  14.699   8.560   6.822
11150SOL     OW35346   2.463   1.873   9.698
11150SOL    HW135347   2.412   1.820   9.759
11150SOL    HW235348   2.555   1.851   9.718
11151SOL     OW35349   7.062   7.564   0.701
11151SOL    HW135350   7.114   7.622   0.757
11151SOL    HW235351   7.084   7.590   0.612
11152SOL     OW35352   8.998  12.321  14.875
11152SOL    HW135353   9.024  12.400   0.043
11152SOL    HW235354   9.014  12.250   0.058
11153SOL     OW35355   5.706   2.164   4.456
11153SOL    HW135356   5.713   2.138   4.548
11153SOL    HW235357   5.616   2.143   4.432
11154SOL     OW35358  14.321   2.422   3.722
11154SOL    HW135359  14.266   2.480   3.670
11154SOL    HW235360  14.360   2.362   3.658
11155SOL     OW35361  12.760   3.824   1.276
11155SOL    HW135362  12.838   3.833   1.222
11155SOL    HW235363  12.737   3.914   1.300
11156SOL     OW35364   1.451  13.446  12.087
11156SOL    HW135365   1.408  13.361  12.077
11156SOL    HW235366   1.504  13.454  12.008
11157SOL     OW35367   9.743   7.137   7.738
11157SOL    HW135368   9.830   7.128   7.698
11157SOL    HW235369   9.760   7.130   7.832
11158SOL     OW35370  12.627  13.984  10.192
11158SOL    HW135371  12.718  14.010  10.203
11158SOL    HW235372  12.607  14.007  10.101
11159SOL     OW35373  14.324   0.014   8.767
11159SOL    HW135374  14.396   0.049   8.714
11159SOL    HW235375  14.283   0.091   8.806
11160SOL     OW35376   9.767   7.571   7.835
11160SOL    HW135377   9.677   7.575   7.867
11160SOL    HW235378   9.811   7.510   7.894
11161SOL     OW35379  12.948   5.188   0.655
11161SOL    HW135380  12.994   5.110   0.687
11161SOL    HW235381  12.860   5.180   0.692
11162SOL     OW35382   4.257   0.462   4.145
11162SOL    HW135383   4.279   0.431   4.233
11162SOL    HW235384   4.258   0.383   4.091
11163SOL     OW35385   9.499   3.609   9.804
11163SOL    HW135386   9.458   3.564   9.731
11163SOL    HW235387   9.444   3.686   9.819
11164SOL     OW35388  12.499   8.175   4.075
11164SOL    HW135389  12.533   8.246   4.130
11164SOL    HW235390  12.466   8.220   3.997
11165SOL     OW35391   9.210   4.827  14.002
11165SOL    HW135392   9.120   4.815  13.971
11165SOL    HW235393   9.254   4.872  13.930
11166SOL     OW35394   8.573   2.159   9.926
11166SOL    HW135395   8.479   2.140   9.928
11166SOL    HW235396   8.611   2.101   9.992
11167SOL     OW35397  12.895   3.938  11.067
11167SOL    HW135398  12.826   3.885  11.106
11167SOL    HW235399  12.914   4.004  11.133
11168SOL     OW35400  12.352   2.489   3.842
11168SOL    HW135401  12.280   2.551   3.853
11168SOL    HW235402  12.411   2.506   3.916
11169SOL     OW35403   4.529   1.634  11.549
11169SOL    HW135404   4.546   1.591  11.466
11169SOL    HW235405   4.555   1.725  11.536
11170SOL     OW35406   1.023   0.592   6.073
11170SOL    HW135407   0.945   0.616   6.022
11170SOL    HW235408   1.054   0.675   6.109
11171SOL     OW35409   9.573   3.932   9.129
11171SOL    HW135410   9.573   4.011   9.182
11171SOL    HW235411   9.611   3.865   9.186
11172SOL     OW35412  14.287   5.251   3.846
11172SOL    HW135413  14.296   5.266   3.940
11172SOL    HW235414  14.297   5.338   3.807
11173SOL     OW35415   9.596  14.172  12.057
11173SOL    HW135416   9.522  14.112  12.067
11173SOL    HW235417   9.673  14.119  12.080
11174SOL     OW35418   6.659  12.883  12.980
11174SOL    HW135419   6.704  12.957  12.940
11174SOL    HW235420   6.587  12.863  12.920
11175SOL     OW35421  11.648  13.526   6.238
11175SOL    HW135422  11.699  13.451   6.267
11175SOL    HW235423  11.562  13.490   6.215
11176SOL     OW35424  11.471   7.870   5.329
11176SOL    HW135425  11.524   7.840   5.255
11176SOL    HW235426  11.402   7.923   5.290
11177SOL     OW35427   9.128   1.016  14.255
11177SOL    HW135428   9.150   1.048  14.167
11177SOL    HW235429   9.194   0.949  14.272
11178SOL     OW35430   2.445   1.168   9.720
11178SOL    HW135431   2.496   1.155   9.800
11178SOL    HW235432   2.390   1.090   9.713
11179SOL     OW35433  10.459   2.221   3.335
11179SOL    HW135434  10.411   2.217   3.252
11179SOL    HW235435  10.394   2.252   3.398
11180SOL     OW35436  10.427   0.857   3.981
11180SOL    HW135437  10.508   0.904   3.960
11180SOL    HW235438  10.457   0.772   4.013
11181SOL     OW35439   9.961   2.436  14.254
11181SOL    HW135440   9.912   2.395  14.326
11181SOL    HW235441   9.929   2.526  14.252
11182SOL     OW35442  13.154   8.783   0.231
11182SOL    HW135443  13.080   8.824   0.185
11182SOL    HW235444  13.113   8.727   0.297
11183SOL     OW35445   7.383   8.211   1.084
11183SOL    HW135446   7.365   8.137   1.026
11183SOL    HW235447   7.322   8.280   1.055
11184SOL     OW35448   3.667   3.649   5.939
11184SOL    HW135449   3.618   3.632   5.859
11184SOL    HW235450   3.648   3.575   5.996
11185SOL     OW35451   5.632   2.419   2.102
11185SOL    HW135452   5.674   2.455   2.024
11185SOL    HW235453   5.552   2.470   2.111
11186SOL     OW35454   5.324   0.293  14.479
11186SOL    HW135455   5.237   0.331  14.477
11186SOL    HW235456   5.370   0.334  14.406
11187SOL     OW35457   8.973   4.525   4.769
11187SOL    HW135458   8.954   4.617   4.790
11187SOL    HW235459   9.068   4.522   4.759
11188SOL     OW35460   8.728   4.865  10.165
11188SOL    HW135461   8.671   4.795  10.195
11188SOL    HW235462   8.737   4.851  10.071
11189SOL     OW35463   5.288   8.211   7.345
11189SOL    HW135464   5.233   8.134   7.331
11189SOL    HW235465   5.313   8.206   7.437
11190SOL     OW35466   8.894   5.617  13.829
11190SOL    HW135467   8.856   5.606  13.742
11190SOL    HW235468   8.819   5.619  13.889
11191SOL     OW35469   6.160  12.932   1.315
11191SOL    HW135470   6.212  12.897   1.243
11191SOL    HW235471   6.109  12.857   1.346
11192SOL     OW35472   3.530   7.904   2.361
11192SOL    HW135473   3.604   7.947   2.317
11192SOL    HW235474   3.463   7.972   2.369
11193SOL     OW35475  12.120   1.874   0.919
11193SOL    HW135476  12.202   1.825   0.916
11193SOL    HW235477  12.106   1.891   1.012
11194SOL     OW35478   9.504   3.498   8.719
11194SOL    HW135479   9.596   3.509   8.697
11194SOL    HW235480   9.466   3.459   8.640
11195SOL     OW35481   7.295   6.039  12.454
11195SOL    HW135482   7.370   6.077  12.408
11195SOL    HW235483   7.283   5.954  12.413
11196SOL     OW35484   2.714  12.958  10.392
11196SOL    HW135485   2.804  12.985  10.410
11196SOL    HW235486   2.663  13.039  10.397
11197SOL     OW35487   0.686   0.535  14.756
11197SOL    HW135488   0.743   0.510  14.829
11197SOL    HW235489   0.605   0.486  14.772
11198SOL     OW35490   0.812   2.278  11.459
11198SOL    HW135491   0.766   2.233  11.389
11198SOL    HW235492   0.756   2.353  11.481
11199SOL     OW35493   2.800   7.613   9.556
11199SOL    HW135494   2.881   7.665   9.552
11199SOL    HW235495   2.800   7.563   9.474
11200SOL     OW35496  10.724   3.861   4.117
11200SOL    HW135497  10.785   3.866   4.044
11200SOL    HW235498  10.665   3.936   4.104
11201SOL     OW35499   4.782   9.987   4.501
11201SOL    HW135500   4.708  10.047   4.498
11201SOL    HW235501   4.762   9.928   4.574
11202SOL     OW35502   9.623   1.696  10.139
11202SOL    HW135503   9.579   1.778  10.119
11202SOL    HW235504   9.710   1.705  10.099
11203SOL     OW35505   4.153  12.319   2.852
11203SOL    HW135506   4.176  12.228   2.872
11203SOL    HW235507   4.060  12.326   2.877
11204SOL     OW35508  11.886   4.350  13.489
11204SOL    HW135509  11.866   4.259  13.509
11204SOL    HW235510  11.847   4.365  13.403
11205SOL     OW35511  14.339   0.724   4.807
11205SOL    HW135512  14.426   0.764   4.806
11205SOL    HW235513  14.279   0.799   4.803
11206SOL     OW35514   0.610  10.871  13.315
11206SOL    HW135515   0.694  10.873  13.269
11206SOL    HW235516   0.632  10.897  13.405
11207SOL     OW35517   4.645   0.904   7.435
11207SOL    HW135518   4.636   0.845   7.360
11207SOL    HW235519   4.732   0.944   7.424
11208SOL     OW35520  12.792  12.221   5.140
11208SOL    HW135521  12.708  12.182   5.164
11208SOL    HW235522  12.785  12.237   5.046
11209SOL     OW35523   1.957   1.192   1.452
11209SOL    HW135524   1.943   1.282   1.423
11209SOL    HW235525   1.869   1.161   1.473
11210SOL     OW35526   2.621   7.755   2.674
11210SOL    HW135527   2.622   7.793   2.586
11210SOL    HW235528   2.551   7.803   2.720
11211SOL     OW35529  10.854  10.652   7.644
11211SOL    HW135530  10.823  10.565   7.672
11211SOL    HW235531  10.781  10.688   7.593
11212SOL     OW35532   3.554   5.506   2.083
11212SOL    HW135533   3.484   5.543   2.029
11212SOL    HW235534   3.515   5.429   2.124
11213SOL     OW35535   9.339   9.606   9.429
11213SOL    HW135536   9.370   9.670   9.364
11213SOL    HW235537   9.383   9.524   9.405
11214SOL     OW35538   7.099   9.463  10.672
11214SOL    HW135539   7.063   9.392  10.725
11214SOL    HW235540   7.078   9.542  10.722
11215SOL     OW35541   2.363   6.142  14.870
11215SOL    HW135542   2.430   6.088  14.829
11215SOL    HW235543   2.391   6.151   0.081
11216SOL     OW35544   2.765   2.551   1.276
11216SOL    HW135545   2.843   2.563   1.330
11216SOL    HW235546   2.793   2.578   1.188
11217SOL     OW35547  12.440   2.501  11.163
11217SOL    HW135548  12.387   2.542  11.232
11217SOL    HW235549  12.478   2.424  11.204
11218SOL     OW35550   9.112   1.497   0.204
11218SOL    HW135551   9.067   1.457   0.130
11218SOL    HW235552   9.045   1.507   0.271
11219SOL     OW35553   1.199  11.184   4.733
11219SOL    HW135554   1.206  11.099   4.776
11219SOL    HW235555   1.290  11.213   4.723
11220SOL     OW35556   1.037   4.827   5.193
11220SOL    HW135557   1.117   4.778   5.211
11220SOL    HW235558   0.982   4.811   5.270
11221SOL     OW35559   8.818   3.885   0.717
11221SOL    HW135560   8.759   3.816   0.688
11221SOL    HW235561   8.815   3.951   0.647
11222SOL     OW35562   4.914  10.261   5.979
11222SOL    HW135563   4.864  10.208   6.041
11222SOL    HW235564   4.848  10.312   5.932
11223SOL     OW35565  13.629  10.107   2.457
11223SOL    HW135566  13.540  10.098   2.490
11223SOL    HW235567  13.626  10.071   2.368
11224SOL     OW35568   3.084  13.702  13.584
11224SOL    HW135569   3.021  13.661  13.524
11224SOL    HW235570   3.042  13.785  13.609
11225SOL     OW35571   1.150   1.204  11.508
11225SOL    HW135572   1.105   1.230  11.428
11225SOL    HW235573   1.224   1.265  11.515
11226SOL     OW35574   6.686   6.008  14.065
11226SOL    HW135575   6.758   6.069  14.050
11226SOL    HW235576   6.608   6.064  14.069
11227SOL     OW35577   5.888   6.105   4.658
11227SOL    HW135578   5.853   6.030   4.705
11227SOL    HW235579   5.905   6.171   4.725
11228SOL     OW35580   4.215   2.339   5.962
11228SOL    HW135581   4.285   2.381   5.912
11228SOL    HW235582   4.135   2.371   5.921
11229SOL     OW35583   9.076   7.284   1.252
11229SOL    HW135584   9.099   7.308   1.341
11229SOL    HW235585   8.998   7.230   1.261
11230SOL     OW35586   7.202   5.127  13.554
11230SOL    HW135587   7.266   5.144  13.485
11230SOL    HW235588   7.180   5.034  13.544
11231SOL     OW35589   9.640   7.917   0.365
11231SOL    HW135590   9.604   8.005   0.371
11231SOL    HW235591   9.732   7.926   0.391
11232SOL     OW35592   5.491  11.282   7.967
11232SOL    HW135593   5.451  11.249   7.886
11232SOL    HW235594   5.422  11.272   8.033
11233SOL     OW35595   5.821   9.989  14.452
11233SOL    HW135596   5.803   9.896  14.462
11233SOL    HW235597   5.760  10.018  14.383
11234SOL     OW35598   6.558   4.036   5.284
11234SOL    HW135599   6.607   3.970   5.333
11234SOL    HW235600   6.586   4.024   5.193
11235SOL     OW35601   1.405   7.715   4.559
11235SOL    HW135602   1.328   7.755   4.599
11235SOL    HW235603   1.398   7.622   4.582
11236SOL     OW35604   8.365   3.154   2.375
11236SOL    HW135605   8.370   3.226   2.313
11236SOL    HW235606   8.447   3.105   2.362
11237SOL     OW35607  10.940   9.086   3.381
11237SOL    HW135608  10.987   9.003   3.388
11237SOL    HW235609  10.958   9.116   3.292
11238SOL     OW35610  13.962  12.556  12.234
11238SOL    HW135611  13.903  12.560  12.158
11238SOL    HW235612  14.002  12.469  12.230
11239SOL     OW35613   3.092   2.001   7.988
11239SOL    HW135614   3.037   2.064   7.942
11239SOL    HW235615   3.181   2.035   7.979
11240SOL     OW35616   1.798  11.607   4.331
11240SOL    HW135617   1.825  11.676   4.271
11240SOL    HW235618   1.702  11.614   4.333
11241SOL     OW35619  12.514  14.099   9.257
11241SOL    HW135620  12.488  14.175   9.205
11241SOL    HW235621  12.433  14.048   9.267
11242SOL     OW35622   3.278   3.220  12.674
11242SOL    HW135623   3.195   3.252  12.639
11242SOL    HW235624   3.263   3.208  12.767
11243SOL     OW35625   5.162   2.308   2.309
11243SOL    HW135626   5.092   2.243   2.312
11243SOL    HW235627   5.128   2.383   2.357
11244SOL     OW35628   4.837   9.957   5.181
11244SOL    HW135629   4.898   9.904   5.232
11244SOL    HW235630   4.856  10.047   5.207
11245SOL     OW35631   9.919  10.607   7.221
11245SOL    HW135632   9.920  10.670   7.293
11245SOL    HW235633   9.919  10.522   7.265
11246SOL     OW35634   5.849   1.215  11.325
11246SOL    HW135635   5.907   1.290  11.314
11246SOL    HW235636   5.783   1.245  11.388
11247SOL     OW35637   6.157   1.773   2.207
11247SOL    HW135638   6.212   1.835   2.255
11247SOL    HW235639   6.073   1.775   2.253
11248SOL     OW35640   5.313   4.935   1.931
11248SOL    HW135641   5.360   5.001   1.983
11248SOL    HW235642   5.268   4.986   1.864
11249SOL     OW35643   1.675   8.719   8.134
11249SOL    HW135644   1.689   8.677   8.219
11249SOL    HW235645   1.733   8.672   8.074
11250SOL     OW35646  12.005   3.335   0.378
11250SOL    HW135647  12.039   3.286   0.303
11250SOL    HW235648  11.965   3.268   0.434
11251SOL     OW35649   0.952   6.867   6.614
11251SOL    HW135650   0.912   6.938   6.565
11251SOL    HW235651   1.043   6.865   6.585
11252SOL     OW35652  11.920   0.697   9.391
11252SOL    HW135653  11.966   0.615   9.373
11252SOL    HW235654  11.827   0.673   9.389
11253SOL     OW35655   7.285   3.040   1.291
11253SOL    HW135656   7.323   3.128   1.288
11253SOL    HW235657   7.191   3.055   1.293
11254SOL     OW35658   6.178   3.586  11.338
11254SOL    HW135659   6.165   3.641  11.261
11254SOL    HW235660   6.247   3.525  11.312
11255SOL     OW35661   0.734   0.226   0.361
11255SOL    HW135662   0.687   0.171   0.298
11255SOL    HW235663   0.811   0.176   0.385
11256SOL     OW35664   1.881  10.133   3.778
11256SOL    HW135665   1.851  10.107   3.691
11256SOL    HW235666   1.810  10.187   3.813
11257SOL     OW35667   0.397   8.168   6.484
11257SOL    HW135668   0.486   8.167   6.519
11257SOL    HW235669   0.355   8.241   6.530
11258SOL     OW35670   6.191   5.260   6.562
11258SOL    HW135671   6.171   5.284   6.472
11258SOL    HW235672   6.133   5.316   6.615
11259SOL     OW35673   0.652   1.333   9.429
11259SOL    HW135674   0.729   1.277   9.421
11259SOL    HW235675   0.639   1.344   9.523
11260SOL     OW35676   1.105   6.088   2.509
11260SOL    HW135677   1.018   6.102   2.471
11260SOL    HW235678   1.131   6.174   2.543
11261SOL     OW35679  13.544  11.855   4.813
11261SOL    HW135680  13.624  11.841   4.762
11261SOL    HW235681  13.524  11.948   4.802
11262SOL     OW35682   6.531  11.539  12.270
11262SOL    HW135683   6.445  11.531  12.230
11262SOL    HW235684   6.528  11.622  12.319
11263SOL     OW35685  13.735   6.150  12.546
11263SOL    HW135686  13.685   6.069  12.540
11263SOL    HW235687  13.748   6.177  12.455
11264SOL     OW35688  12.666   2.021   3.126
11264SOL    HW135689  12.699   2.111   3.124
11264SOL    HW235690  12.720   1.975   3.061
11265SOL     OW35691   4.625  11.104   1.246
11265SOL    HW135692   4.567  11.039   1.286
11265SOL    HW235693   4.597  11.187   1.283
11266SOL     OW35694   9.393   9.267  10.998
11266SOL    HW135695   9.302   9.288  10.979
11266SOL    HW235696   9.437   9.270  10.913
11267SOL     OW35697   4.259  11.078  10.406
11267SOL    HW135698   4.237  11.147  10.343
11267SOL    HW235699   4.274  11.125  10.488
11268SOL     OW35700  14.128   0.204   3.917
11268SOL    HW135701  14.041   0.232   3.889
11268SOL    HW235702  14.129   0.217   4.012
11269SOL     OW35703   7.046   5.843   0.417
11269SOL    HW135704   7.130   5.799   0.410
11269SOL    HW235705   7.063   5.933   0.386
11270SOL     OW35706   9.194   3.316   5.832
11270SOL    HW135707   9.255   3.383   5.862
11270SOL    HW235708   9.173   3.341   5.742
11271SOL     OW35709   4.482   7.529   7.109
11271SOL    HW135710   4.390   7.511   7.091
11271SOL    HW235711   4.521   7.443   7.124
11272SOL     OW35712   6.581  14.646   5.880
11272SOL    HW135713   6.539  14.561   5.868
11272SOL    HW235714   6.582  14.659   5.975
11273SOL     OW35715  11.965   8.607   8.202
11273SOL    HW135716  11.921   8.571   8.279
11273SOL    HW235717  11.899   8.603   8.132
11274SOL     OW35718   6.530   5.857  10.603
11274SOL    HW135719   6.456   5.840  10.545
11274SOL    HW235720   6.599   5.888  10.545
11275SOL     OW35721   1.999   5.032   6.276
11275SOL    HW135722   1.919   4.982   6.296
11275SOL    HW235723   2.003   5.098   6.345
11276SOL     OW35724   1.089   9.858  11.520
11276SOL    HW135725   1.074   9.938  11.571
11276SOL    HW235726   1.150   9.806  11.572
11277SOL     OW35727   1.174   4.553   4.780
11277SOL    HW135728   1.102   4.613   4.804
11277SOL    HW235729   1.151   4.523   4.692
11278SOL     OW35730   2.124  13.893   7.230
11278SOL    HW135731   2.070  13.972   7.235
11278SOL    HW235732   2.161  13.884   7.318
11279SOL     OW35733  13.998   9.584   9.363
11279SOL    HW135734  13.953   9.529   9.298
11279SOL    HW235735  14.081   9.539   9.379
11280SOL     OW35736   5.977  12.297  10.454
11280SOL    HW135737   6.043  12.261  10.394
11280SOL    HW235738   5.934  12.220  10.491
11281SOL     OW35739   3.299   6.412  10.557
11281SOL    HW135740   3.278   6.458  10.638
11281SOL    HW235741   3.392   6.391  10.565
11282SOL     OW35742   3.894   9.550  12.765
11282SOL    HW135743   3.956   9.476  12.764
11282SOL    HW235744   3.849   9.544  12.681
11283SOL     OW35745   8.557  11.262   8.897
11283SOL    HW135746   8.632  11.306   8.858
11283SOL    HW235747   8.595  11.194   8.952
11284SOL     OW35748  10.336   0.572   1.003
11284SOL    HW135749  10.342   0.639   1.070
11284SOL    HW235750  10.270   0.510   1.036
11285SOL     OW35751   5.301   1.282  14.518
11285SOL    HW135752   5.357   1.350  14.481
11285SOL    HW235753   5.214   1.322  14.524
11286SOL     OW35754   3.799   4.729  11.681
11286SOL    HW135755   3.712   4.769  11.673
11286SOL    HW235756   3.860   4.803  11.675
11287SOL     OW35757   9.029   3.051  14.674
11287SOL    HW135758   8.933   3.050  14.670
11287SOL    HW235759   9.057   3.072  14.585
11288SOL     OW35760  13.305  12.311   4.390
11288SOL    HW135761  13.224  12.337   4.434
11288SOL    HW235762  13.373  12.365   4.430
11289SOL     OW35763   3.433   1.867   4.132
11289SOL    HW135764   3.374   1.865   4.056
11289SOL    HW235765   3.426   1.779   4.169
11290SOL     OW35766   6.813   0.172  10.659
11290SOL    HW135767   6.748   0.218  10.606
11290SOL    HW235768   6.893   0.223  10.647
11291SOL     OW35769   0.896   0.404   1.496
11291SOL    HW135770   0.936   0.402   1.409
11291SOL    HW235771   0.843   0.484   1.496
11292SOL     OW35772   0.692  14.365   7.813
11292SOL    HW135773   0.759  14.341   7.749
11292SOL    HW235774   0.639  14.431   7.769
11293SOL     OW35775   1.924   2.951  12.991
11293SOL    HW135776   1.962   2.946  12.903
11293SOL    HW235777   1.857   2.882  12.992
11294SOL     OW35778   9.466   2.420   6.884
11294SOL    HW135779   9.446   2.444   6.793
11294SOL    HW235780   9.500   2.500   6.923
11295SOL     OW35781   7.810   5.436  12.469
11295SOL    HW135782   7.859   5.360  12.438
11295SOL    HW235783   7.857   5.465  12.547
11296SOL     OW35784   8.324   9.419  14.224
11296SOL    HW135785   8.393   9.470  14.266
11296SOL    HW235786   8.342   9.426  14.130
11297SOL     OW35787  12.962  11.974   8.145
11297SOL    HW135788  12.919  12.059   8.133
11297SOL    HW235789  12.962  11.934   8.058
11298SOL     OW35790  12.418   4.527   5.590
11298SOL    HW135791  12.465   4.445   5.575
11298SOL    HW235792  12.425   4.574   5.506
11299SOL     OW35793  14.574   0.139   7.102
11299SOL    HW135794  14.622   0.059   7.082
11299SOL    HW235795  14.495   0.134   7.048
11300SOL     OW35796   2.351  13.519   2.235
11300SOL    HW135797   2.291  13.467   2.288
11300SOL    HW235798   2.371  13.595   2.290
11301SOL     OW35799   3.629   1.580   0.491
11301SOL    HW135800   3.660   1.568   0.402
11301SOL    HW235801   3.674   1.511   0.541
11302SOL     OW35802  13.705  10.711  13.074
11302SOL    HW135803  13.640  10.708  13.144
11302SOL    HW235804  13.789  10.715  13.119
11303SOL     OW35805  12.199  11.255  12.202
11303SOL    HW135806  12.263  11.298  12.259
11303SOL    HW235807  12.130  11.320  12.190
11304SOL     OW35808   7.643   4.353   2.634
11304SOL    HW135809   7.619   4.446   2.638
11304SOL    HW235810   7.562   4.306   2.650
11305SOL     OW35811   2.958   8.266   4.051
11305SOL    HW135812   2.983   8.348   4.094
11305SOL    HW235813   2.862   8.271   4.045
11306SOL     OW35814   3.941   6.279   6.416
11306SOL    HW135815   3.961   6.248   6.504
11306SOL    HW235816   4.021   6.323   6.387
11307SOL     OW35817   3.619  14.628  10.734
11307SOL    HW135818   3.677  14.692  10.775
11307SOL    HW235819   3.531  14.664  10.748
11308SOL     OW35820  12.987   0.402   1.004
11308SOL    HW135821  13.071   0.416   1.048
11308SOL    HW235822  12.950   0.489   0.995
11309SOL     OW35823   5.418   4.634   7.012
11309SOL    HW135824   5.467   4.627   7.094
11309SOL    HW235825   5.484   4.656   6.946
11310SOL     OW35826   4.761   7.900   8.657
11310SOL    HW135827   4.780   7.807   8.644
11310SOL    HW235828   4.802   7.943   8.581
11311SOL     OW35829   0.712   3.053  12.768
11311SOL    HW135830   0.728   3.139  12.805
11311SOL    HW235831   0.640   3.017  12.821
11312SOL     OW35832   0.887   3.522   7.183
11312SOL    HW135833   0.834   3.443   7.180
11312SOL    HW235834   0.825   3.593   7.165
11313SOL     OW35835   2.806   6.335   0.216
11313SOL    HW135836   2.793   6.276   0.290
11313SOL    HW235837   2.795   6.423   0.252
11314SOL     OW35838  13.029   4.845   9.475
11314SOL    HW135839  12.948   4.816   9.435
11314SOL    HW235840  13.013   4.937   9.498
11315SOL     OW35841   2.961   9.476   5.687
11315SOL    HW135842   2.877   9.470   5.733
11315SOL    HW235843   2.948   9.544   5.621
11316SOL     OW35844  13.217   2.364   3.997
11316SOL    HW135845  13.125   2.389   3.996
11316SOL    HW235846  13.238   2.352   4.090
11317SOL     OW35847   8.464   3.839   5.201
11317SOL    HW135848   8.418   3.839   5.285
11317SOL    HW235849   8.524   3.764   5.206
11318SOL     OW35850  13.601   4.927   3.215
11318SOL    HW135851  13.584   5.004   3.270
11318SOL    HW235852  13.687   4.896   3.242
11319SOL     OW35853  12.132   6.331   3.200
11319SOL    HW135854  12.158   6.239   3.206
11319SOL    HW235855  12.036   6.328   3.196
11320SOL     OW35856  12.588   0.367   2.801
11320SOL    HW135857  12.606   0.307   2.874
11320SOL    HW235858  12.571   0.452   2.843
11321SOL     OW35859   6.894   9.826   3.299
11321SOL    HW135860   6.986   9.830   3.272
11321SOL    HW235861   6.855   9.763   3.238
11322SOL     OW35862  12.715  11.565   4.907
11322SOL    HW135863  12.756  11.643   4.869
11322SOL    HW235864  12.700  11.507   4.833
11323SOL     OW35865  14.700   5.986   3.572
11323SOL    HW135866  14.728   5.906   3.617
11323SOL    HW235867  14.774   6.047   3.584
11324SOL     OW35868   1.289   8.763   9.664
11324SOL    HW135869   1.210   8.805   9.696
11324SOL    HW235870   1.338   8.834   9.622
11325SOL     OW35871   2.446  11.113   4.194
11325SOL    HW135872   2.517  11.070   4.147
11325SOL    HW235873   2.453  11.079   4.284
11326SOL     OW35874  10.433   3.164   6.503
11326SOL    HW135875  10.487   3.121   6.436
11326SOL    HW235876  10.458   3.121   6.585
11327SOL     OW35877   4.874   1.077  11.194
11327SOL    HW135878   4.796   1.051  11.144
11327SOL    HW235879   4.936   1.006  11.181
11328SOL     OW35880   2.614   8.929  11.425
11328SOL    HW135881   2.547   8.991  11.396
11328SOL    HW235882   2.616   8.939  11.521
11329SOL     OW35883   7.806  12.864   9.913
11329SOL    HW135884   7.797  12.870   9.818
11329SOL    HW235885   7.749  12.933   9.947
11330SOL     OW35886  13.974   7.150  13.864
11330SOL    HW135887  13.998   7.242  13.858
11330SOL    HW235888  13.883   7.150  13.892
11331SOL     OW35889   9.523   5.242  10.509
11331SOL    HW135890   9.564   5.156  10.521
11331SOL    HW235891   9.434   5.222  10.481
11332SOL     OW35892  13.679   6.597   8.935
11332SOL    HW135893  13.665   6.633   9.023
11332SOL    HW235894  13.752   6.536   8.945
11333SOL     OW35895   4.438   5.350  13.056
11333SOL    HW135896   4.439   5.400  13.138
11333SOL    HW235897   4.352   5.308  13.054
11334SOL     OW35898   0.370   0.566   6.800
11334SOL    HW135899   0.431   0.627   6.841
11334SOL    HW235900   0.419   0.529   6.726
11335SOL     OW35901   4.194   5.981   9.669
11335SOL    HW135902   4.134   5.996   9.742
11335SOL    HW235903   4.152   6.024   9.594
11336SOL     OW35904  14.535   1.628  11.717
11336SOL    HW135905  14.560   1.536  11.713
11336SOL    HW235906  14.520   1.653  11.626
11337SOL     OW35907   6.265   7.014   8.530
11337SOL    HW135908   6.265   7.096   8.579
11337SOL    HW235909   6.191   7.023   8.470
11338SOL     OW35910   3.953  11.649   9.712
11338SOL    HW135911   3.955  11.673   9.805
11338SOL    HW235912   4.042  11.667   9.681
11339SOL     OW35913   3.811   3.299  14.337
11339SOL    HW135914   3.782   3.319  14.248
11339SOL    HW235915   3.811   3.203  14.341
11340SOL     OW35916   7.935   5.198   9.512
11340SOL    HW135917   7.980   5.266   9.563
11340SOL    HW235918   8.004   5.136   9.488
11341SOL     OW35919   0.886   1.888  11.635
11341SOL    HW135920   0.976   1.857  11.642
11341SOL    HW235921   0.888   1.977  11.671
11342SOL     OW35922   1.494   3.438  12.841
11342SOL    HW135923   1.537   3.522  12.830
11342SOL    HW235924   1.443   3.447  12.921
11343SOL     OW35925   0.106   7.653   0.155
11343SOL    HW135926   0.140   7.731   0.198
11343SOL    HW235927   0.014   7.649   0.181
11344SOL     OW35928   6.006   5.958   1.128
11344SOL    HW135929   5.971   6.029   1.182
11344SOL    HW235930   6.031   5.890   1.191
11345SOL     OW35931   9.346   1.406   8.836
11345SOL    HW135932   9.361   1.325   8.787
11345SOL    HW235933   9.366   1.383   8.927
11346SOL     OW35934   8.690   5.864   4.402
11346SOL    HW135935   8.696   5.956   4.378
11346SOL    HW235936   8.676   5.864   4.497
11347SOL     OW35937  11.096   3.052  14.337
11347SOL    HW135938  11.081   2.989  14.267
11347SOL    HW235939  11.087   3.138  14.295
11348SOL     OW35940   9.292  11.976  11.435
11348SOL    HW135941   9.347  11.958  11.512
11348SOL    HW235942   9.226  11.907  11.436
11349SOL     OW35943  14.309  10.524   4.315
11349SOL    HW135944  14.396  10.540   4.278
11349SOL    HW235945  14.250  10.572   4.257
11350SOL     OW35946   4.353  11.363  12.291
11350SOL    HW135947   4.300  11.413  12.353
11350SOL    HW235948   4.443  11.376  12.321
11351SOL     OW35949  13.311  14.244   2.066
11351SOL    HW135950  13.326  14.305   2.139
11351SOL    HW235951  13.225  14.267   2.033
11352SOL     OW35952   0.986   2.789  14.167
11352SOL    HW135953   0.982   2.884  14.159
11352SOL    HW235954   0.981   2.772  14.261
11353SOL     OW35955  10.196  13.706   1.417
11353SOL    HW135956  10.175  13.766   1.344
11353SOL    HW235957  10.177  13.757   1.496
11354SOL     OW35958  11.497   5.976  13.955
11354SOL    HW135959  11.467   6.000  14.043
11354SOL    HW235960  11.491   5.880  13.954
11355SOL     OW35961  10.335   8.812   1.789
11355SOL    HW135962  10.355   8.732   1.838
11355SOL    HW235963  10.365   8.793   1.700
11356SOL     OW35964  11.762   4.487   8.157
11356SOL    HW135965  11.765   4.569   8.107
11356SOL    HW235966  11.790   4.420   8.095
11357SOL     OW35967  12.836  13.142  10.692
11357SOL    HW135968  12.863  13.211  10.631
11357SOL    HW235969  12.899  13.072  10.679
11358SOL     OW35970   7.838   2.757   3.419
11358SOL    HW135971   7.836   2.795   3.332
11358SOL    HW235972   7.930   2.735   3.433
11359SOL     OW35973   4.230  13.080   8.450
11359SOL    HW135974   4.283  13.010   8.489
11359SOL    HW235975   4.165  13.033   8.397
11360SOL     OW35976   6.670  12.799   0.958
11360SOL    HW135977   6.602  12.752   1.006
11360SOL    HW235978   6.629  12.821   0.874
11361SOL     OW35979   4.092   5.307  12.446
11361SOL    HW135980   4.092   5.397  12.412
11361SOL    HW235981   4.040   5.258  12.383
11362SOL     OW35982   6.337   9.573  10.829
11362SOL    HW135983   6.284   9.650  10.807
11362SOL    HW235984   6.379   9.549  10.747
11363SOL     OW35985  11.155   5.804  12.675
11363SOL    HW135986  11.234   5.754  12.654
11363SOL    HW235987  11.180   5.895  12.661
11364SOL     OW35988   0.388  13.390  10.915
11364SOL    HW135989   0.376  13.475  10.959
11364SOL    HW235990   0.407  13.413  10.824
11365SOL     OW35991  11.529   0.864   2.009
11365SOL    HW135992  11.603   0.817   1.969
11365SOL    HW235993  11.454   0.806   1.995
11366SOL     OW35994  14.014   8.904   9.298
11366SOL    HW135995  14.036   8.816   9.267
11366SOL    HW235996  14.037   8.962   9.225
11367SOL     OW35997   4.958   9.296  14.614
11367SOL    HW135998   4.885   9.306  14.553
11367SOL    HW235999   5.020   9.364  14.589
11368SOL     OW36000  12.225   2.346   1.708
11368SOL    HW136001  12.148   2.384   1.665
11368SOL    HW236002  12.219   2.252   1.692
11369SOL     OW36003   0.824   5.667  11.987
11369SOL    HW136004   0.858   5.745  11.944
11369SOL    HW236005   0.729   5.673  11.978
11370SOL     OW36006   8.884  12.184  13.016
11370SOL    HW136007   8.911  12.096  13.042
11370SOL    HW236008   8.817  12.208  13.080
11371SOL     OW36009  10.626   4.907   2.090
11371SOL    HW136010  10.642   4.939   2.001
11371SOL    HW236011  10.531   4.903   2.097
11372SOL     OW36012  12.382   8.961  11.519
11372SOL    HW136013  12.326   8.894  11.480
11372SOL    HW236014  12.408   8.925  11.604
11373SOL     OW36015   6.957  11.289   6.715
11373SOL    HW136016   6.925  11.201   6.693
11373SOL    HW236017   6.878  11.344   6.713
11374SOL     OW36018   2.429  14.803   8.237
11374SOL    HW136019   2.454  14.872   8.299
11374SOL    HW236020   2.505  14.746   8.232
11375SOL     OW36021  11.542   5.659  11.036
11375SOL    HW136022  11.485   5.735  11.030
11375SOL    HW236023  11.609   5.674  10.969
11376SOL     OW36024   4.614  14.802  12.963
11376SOL    HW136025   4.682  14.869  12.972
11376SOL    HW236026   4.536  14.852  12.939
11377SOL     OW36027  11.673   0.172  10.678
11377SOL    HW136028  11.603   0.205  10.622
11377SOL    HW236029  11.737   0.135  10.617
11378SOL     OW36030   2.168   2.575  14.600
11378SOL    HW136031   2.202   2.496  14.641
11378SOL    HW236032   2.177   2.559  14.506
11379SOL     OW36033  11.251  13.404  11.651
11379SOL    HW136034  11.297  13.336  11.601
11379SOL    HW236035  11.319  13.441  11.708
11380SOL     OW36036   6.617   7.446   3.622
11380SOL    HW136037   6.679   7.512   3.593
11380SOL    HW236038   6.531   7.487   3.612
11381SOL     OW36039   8.914  10.361   5.542
11381SOL    HW136040   8.941  10.309   5.466
11381SOL    HW236041   8.843  10.310   5.582
11382SOL     OW36042  13.708   5.234   8.642
11382SOL    HW136043  13.659   5.317   8.643
11382SOL    HW236044  13.797   5.259   8.665
11383SOL     OW36045  12.627   8.561   5.738
11383SOL    HW136046  12.649   8.513   5.817
11383SOL    HW236047  12.535   8.538   5.721
11384SOL     OW36048   5.975  14.818   0.379
11384SOL    HW136049   6.019   0.010   0.427
11384SOL    HW236050   5.923  14.862   0.312
11385SOL     OW36051   1.487   7.252  13.830
11385SOL    HW136052   1.530   7.196  13.766
11385SOL    HW236053   1.537   7.333  13.829
11386SOL     OW36054   2.942  12.343   6.431
11386SOL    HW136055   2.910  12.391   6.355
11386SOL    HW236056   2.895  12.260   6.429
11387SOL     OW36057   6.151   4.178  10.347
11387SOL    HW136058   6.185   4.192  10.435
11387SOL    HW236059   6.070   4.128  10.359
11388SOL     OW36060   4.177  11.590  13.324
11388SOL    HW136061   4.226  11.666  13.291
11388SOL    HW236062   4.096  11.589  13.273
11389SOL     OW36063   4.971   2.129   0.341
11389SOL    HW136064   5.045   2.078   0.375
11389SOL    HW236065   4.933   2.169   0.419
11390SOL     OW36066   6.158  11.808   4.213
11390SOL    HW136067   6.120  11.894   4.232
11390SOL    HW236068   6.082  11.749   4.214
11391SOL     OW36069  13.302  11.809   6.022
11391SOL    HW136070  13.391  11.781   6.001
11391SOL    HW236071  13.252  11.728   6.026
11392SOL     OW36072  10.280   9.328   1.916
11392SOL    HW136073  10.349   9.335   1.982
11392SOL    HW236074  10.257   9.235   1.915
11393SOL     OW36075   4.429  13.232  10.684
11393SOL    HW136076   4.371  13.283  10.742
11393SOL    HW236077   4.515  13.237  10.726
11394SOL     OW36078  12.025   3.322   5.070
11394SOL    HW136079  12.085   3.254   5.101
11394SOL    HW236080  12.082   3.389   5.031
11395SOL     OW36081   7.718  11.676   2.972
11395SOL    HW136082   7.786  11.733   2.937
11395SOL    HW236083   7.665  11.652   2.897
11396SOL     OW36084  10.739  14.098   1.553
11396SOL    HW136085  10.790  14.080   1.632
11396SOL    HW236086  10.760  14.189   1.531
11397SOL     OW36087   5.954  13.093  13.067
11397SOL    HW136088   6.003  13.163  13.023
11397SOL    HW236089   6.021  13.040  13.109
11398SOL     OW36090   8.150   6.795  13.836
11398SOL    HW136091   8.155   6.805  13.740
11398SOL    HW236092   8.136   6.702  13.850
11399SOL     OW36093   4.616   7.331   4.891
11399SOL    HW136094   4.576   7.336   4.804
11399SOL    HW236095   4.590   7.413   4.933
11400SOL     OW36096   7.703   0.280   1.864
11400SOL    HW136097   7.720   0.370   1.838
11400SOL    HW236098   7.789   0.242   1.880
11401SOL     OW36099   1.652  11.258   2.920
11401SOL    HW136100   1.671  11.350   2.901
11401SOL    HW236101   1.621  11.223   2.837
11402SOL     OW36102   7.733   0.826  10.049
11402SOL    HW136103   7.777   0.861  10.126
11402SOL    HW236104   7.692   0.902  10.008
11403SOL     OW36105  12.106   2.360   1.370
11403SOL    HW136106  12.161   2.285   1.345
11403SOL    HW236107  12.167   2.431   1.384
11404SOL     OW36108   1.950  13.061   8.378
11404SOL    HW136109   1.967  13.041   8.470
11404SOL    HW236110   2.035  13.051   8.335
11405SOL     OW36111   4.735   9.396  14.455
11405SOL    HW136112   4.793   9.471  14.452
11405SOL    HW236113   4.662   9.424  14.510
11406SOL     OW36114   3.527   0.343   9.014
11406SOL    HW136115   3.597   0.408   9.013
11406SOL    HW236116   3.498   0.338   8.923
11407SOL     OW36117   1.078   1.652   0.983
11407SOL    HW136118   1.057   1.685   1.070
11407SOL    HW236119   1.128   1.572   0.999
11408SOL     OW36120   7.503   4.863   5.122
11408SOL    HW136121   7.559   4.786   5.133
11408SOL    HW236122   7.462   4.850   5.036
11409SOL     OW36123  14.176   3.867  11.067
11409SOL    HW136124  14.107   3.921  11.105
11409SOL    HW236125  14.133   3.819  10.997
11410SOL     OW36126   2.599   2.106  10.267
11410SOL    HW136127   2.593   2.020  10.308
11410SOL    HW236128   2.691   2.112  10.239
11411SOL     OW36129  10.054  11.008   7.460
11411SOL    HW136130  10.118  10.948   7.498
11411SOL    HW236131   9.996  10.952   7.408
11412SOL     OW36132   6.945  12.926   4.089
11412SOL    HW136133   6.876  12.898   4.150
11412SOL    HW236134   6.985  12.845   4.059
11413SOL     OW36135   4.276   8.070  13.062
11413SOL    HW136136   4.258   8.153  13.017
11413SOL    HW236137   4.237   8.080  13.148
11414SOL     OW36138   0.039   3.738   8.898
11414SOL    HW136139  14.845   3.800   8.899
11414SOL    HW236140   0.017   3.674   8.966
11415SOL     OW36141   5.425  10.430   4.416
11415SOL    HW136142   5.456  10.340   4.426
11415SOL    HW236143   5.482  10.468   4.349
11416SOL     OW36144  12.907  13.003   8.946
11416SOL    HW136145  12.982  13.061   8.939
11416SOL    HW236146  12.843  13.052   8.998
11417SOL     OW36147   1.906   8.989   7.449
11417SOL    HW136148   1.952   9.069   7.424
11417SOL    HW236149   1.814   9.010   7.437
11418SOL     OW36150   3.205   5.409   1.192
11418SOL    HW136151   3.203   5.359   1.274
11418SOL    HW236152   3.284   5.379   1.148
11419SOL     OW36153  10.671   6.319   9.455
11419SOL    HW136154  10.635   6.231   9.458
11419SOL    HW236155  10.722   6.327   9.536
11420SOL     OW36156  10.375   0.902  10.692
11420SOL    HW136157  10.403   0.994  10.697
11420SOL    HW236158  10.280   0.906  10.695
11421SOL     OW36159  11.849   3.222  11.752
11421SOL    HW136160  11.825   3.181  11.668
11421SOL    HW236161  11.896   3.154  11.799
11422SOL     OW36162   6.343   7.972  12.241
11422SOL    HW136163   6.257   7.996  12.275
11422SOL    HW236164   6.328   7.890  12.195
11423SOL     OW36165  12.537  13.033  13.801
11423SOL    HW136166  12.515  13.034  13.708
11423SOL    HW236167  12.629  13.007  13.804
11424SOL     OW36168  14.660   5.178  14.845
11424SOL    HW136169  14.721   5.118   0.008
11424SOL    HW236170  14.583   5.179   0.022
11425SOL     OW36171  11.847   1.363   5.960
11425SOL    HW136172  11.927   1.310   5.956
11425SOL    HW236173  11.854   1.410   6.043
11426SOL     OW36174   3.266   0.266  14.078
11426SOL    HW136175   3.203   0.198  14.054
11426SOL    HW236176   3.291   0.306  13.994
11427SOL     OW36177   6.487  13.496   1.080
11427SOL    HW136178   6.484  13.470   1.172
11427SOL    HW236179   6.402  13.537   1.063
11428SOL     OW36180  10.548   4.589   5.305
11428SOL    HW136181  10.580   4.552   5.223
11428SOL    HW236182  10.520   4.512   5.356
11429SOL     OW36183   8.542   0.838   0.061
11429SOL    HW136184   8.608   0.907   0.053
11429SOL    HW236185   8.461   0.879   0.029
11430SOL     OW36186   5.856  10.181   6.337
11430SOL    HW136187   5.906  10.177   6.255
11430SOL    HW236188   5.781  10.236   6.316
11431SOL     OW36189   1.411   9.485  13.772
11431SOL    HW136190   1.344   9.551  13.762
11431SOL    HW236191   1.493   9.530  13.750
11432SOL     OW36192   6.411   7.179   2.800
11432SOL    HW136193   6.489   7.218   2.840
11432SOL    HW236194   6.423   7.085   2.809
11433SOL     OW36195   5.255   0.698   7.407
11433SOL    HW136196   5.230   0.617   7.362
11433SOL    HW236197   5.288   0.670   7.492
11434SOL     OW36198   4.833  14.545   1.764
11434SOL    HW136199   4.806  14.461   1.801
11434SOL    HW236200   4.765  14.565   1.699
11435SOL     OW36201  13.808   5.331   0.108
11435SOL    HW136202  13.723   5.288   0.108
11435SOL    HW236203  13.863   5.274   0.053
11436SOL     OW36204   1.006   4.807   9.428
11436SOL    HW136205   0.921   4.826   9.467
11436SOL    HW236206   1.016   4.712   9.435
11437SOL     OW36207  12.857   1.961   6.115
11437SOL    HW136208  12.815   1.984   6.032
11437SOL    HW236209  12.908   2.039   6.138
11438SOL     OW36210  12.761  13.874   6.928
11438SOL    HW136211  12.689  13.929   6.896
11438SOL    HW236212  12.737  13.853   7.018
11439SOL     OW36213  12.152  10.554  10.600
11439SOL    HW136214  12.244  10.579  10.610
11439SOL    HW236215  12.154  10.486  10.533
11440SOL     OW36216   2.189  14.509   4.441
11440SOL    HW136217   2.164  14.430   4.392
11440SOL    HW236218   2.126  14.514   4.512
11441SOL     OW36219   4.956   3.285   1.008
11441SOL    HW136220   5.014   3.210   1.005
11441SOL    HW236221   4.868   3.247   1.016
11442SOL     OW36222   3.181   3.362   4.487
11442SOL    HW136223   3.128   3.419   4.432
11442SOL    HW236224   3.122   3.290   4.511
11443SOL     OW36225   2.290   6.140  12.679
11443SOL    HW136226   2.346   6.140  12.756
11443SOL    HW236227   2.201   6.151  12.714
11444SOL     OW36228  14.250   1.483   9.639
11444SOL    HW136229  14.231   1.505   9.730
11444SOL    HW236230  14.341   1.508   9.627
11445SOL     OW36231   0.409  13.471   7.905
11445SOL    HW136232   0.454  13.409   7.847
11445SOL    HW236233   0.442  13.449   7.992
11446SOL     OW36234   3.276  14.712   6.055
11446SOL    HW136235   3.357  14.707   6.104
11446SOL    HW236236   3.248  14.803   6.063
11447SOL     OW36237  13.350   0.083  10.373
11447SOL    HW136238  13.388   0.170  10.364
11447SOL    HW236239  13.360   0.043  10.287
11448SOL     OW36240   5.898  14.713   4.098
11448SOL    HW136241   5.966  14.686   4.160
11448SOL    HW236242   5.816  14.705   4.148
11449SOL     OW36243  10.370   7.789   2.439
11449SOL    HW136244  10.419   7.730   2.497
11449SOL    HW236245  10.326   7.730   2.377
11450SOL     OW36246   0.558   9.371   6.318
11450SOL    HW136247   0.510   9.355   6.237
11450SOL    HW236248   0.593   9.286   6.344
11451SOL     OW36249   4.730  13.594   4.417
11451SOL    HW136250   4.666  13.632   4.357
11451SOL    HW236251   4.678  13.545   4.480
11452SOL     OW36252   3.822   1.586  12.080
11452SOL    HW136253   3.832   1.603  12.174
11452SOL    HW236254   3.892   1.636  12.039
11453SOL     OW36255   6.602   8.760   6.116
11453SOL    HW136256   6.683   8.752   6.066
11453SOL    HW236257   6.620   8.831   6.179
11454SOL     OW36258   0.764  14.755  10.246
11454SOL    HW136259   0.680  14.734  10.206
11454SOL    HW236260   0.774  14.850  10.234
11455SOL     OW36261   0.318  14.200   0.449
11455SOL    HW136262   0.353  14.158   0.370
11455SOL    HW236263   0.255  14.137   0.483
11456SOL     OW36264   8.086  10.307  11.694
11456SOL    HW136265   8.113  10.396  11.714
11456SOL    HW236266   8.137  10.252  11.753
11457SOL     OW36267  11.387  14.467   8.933
11457SOL    HW136268  11.476  14.444   8.961
11457SOL    HW236269  11.380  14.561   8.949
11458SOL     OW36270   5.190   3.504  12.821
11458SOL    HW136271   5.162   3.582  12.773
11458SOL    HW236272   5.114   3.446  12.819
11459SOL     OW36273   4.163   3.473   2.167
11459SOL    HW136274   4.206   3.402   2.214
11459SOL    HW236275   4.197   3.467   2.078
11460SOL     OW36276   4.769  12.433   3.604
11460SOL    HW136277   4.743  12.490   3.676
11460SOL    HW236278   4.695  12.373   3.592
11461SOL     OW36279  11.396  12.039   3.385
11461SOL    HW136280  11.369  12.130   3.384
11461SOL    HW236281  11.408  12.018   3.478
11462SOL     OW36282   2.907   8.478   2.412
11462SOL    HW136283   2.922   8.442   2.500
11462SOL    HW236284   2.993   8.472   2.370
11463SOL     OW36285   8.119  10.681   1.827
11463SOL    HW136286   8.177  10.622   1.874
11463SOL    HW236287   8.101  10.636   1.745
11464SOL     OW36288   4.776   9.258   6.106
11464SOL    HW136289   4.767   9.174   6.150
11464SOL    HW236290   4.801   9.320   6.175
11465SOL     OW36291   1.575  12.576   0.595
11465SOL    HW136292   1.542  12.576   0.684
11465SOL    HW236293   1.514  12.633   0.547
11466SOL     OW36294   3.619   9.639   9.629
11466SOL    HW136295   3.590   9.730   9.632
11466SOL    HW236296   3.714   9.644   9.615
11467SOL     OW36297  13.283   5.268   1.288
11467SOL    HW136298  13.231   5.188   1.277
11467SOL    HW236299  13.259   5.300   1.375
11468SOL     OW36300   7.468   5.750  14.234
11468SOL    HW136301   7.416   5.823  14.269
11468SOL    HW236302   7.540   5.792  14.187
11469SOL     OW36303  13.156  13.859   1.046
11469SOL    HW136304  13.107  13.777   1.049
11469SOL    HW236305  13.205  13.861   1.129
11470SOL     OW36306   0.261   2.858   9.306
11470SOL    HW136307   0.200   2.797   9.347
11470SOL    HW236308   0.335   2.803   9.281
11471SOL     OW36309   4.671  13.102   8.660
11471SOL    HW136310   4.707  13.038   8.722
11471SOL    HW236311   4.735  13.104   8.589
11472SOL     OW36312  11.247   6.650   0.719
11472SOL    HW136313  11.318   6.665   0.656
11472SOL    HW236314  11.193   6.583   0.678
11473SOL     OW36315  10.233   4.181   3.872
11473SOL    HW136316  10.158   4.125   3.852
11473SOL    HW236317  10.267   4.208   3.787
11474SOL     OW36318   0.862   4.264  14.330
11474SOL    HW136319   0.826   4.349  14.353
11474SOL    HW236320   0.844   4.209  14.406
11475SOL     OW36321  12.225   8.098   0.957
11475SOL    HW136322  12.193   8.184   0.986
11475SOL    HW236323  12.146   8.045   0.947
11476SOL     OW36324   0.013   0.547  14.184
11476SOL    HW136325  14.798   0.561  14.185
11476SOL    HW236326   0.029   0.498  14.103
11477SOL     OW36327   6.346   7.001   0.523
11477SOL    HW136328   6.354   7.085   0.570
11477SOL    HW236329   6.254   6.996   0.499
11478SOL     OW36330  12.664   9.732   0.895
11478SOL    HW136331  12.746   9.761   0.934
11478SOL    HW236332  12.615   9.813   0.880
11479SOL     OW36333   8.719   7.721  10.004
11479SOL    HW136334   8.720   7.724  10.100
11479SOL    HW236335   8.812   7.726   9.979
11480SOL     OW36336  10.533  13.442   5.415
11480SOL    HW136337  10.490  13.385   5.478
11480SOL    HW236338  10.470  13.453   5.344
11481SOL     OW36339   3.389   0.262   7.291
11481SOL    HW136340   3.296   0.284   7.295
11481SOL    HW236341   3.399   0.186   7.348
11482SOL     OW36342   0.329  11.276   2.253
11482SOL    HW136343   0.389  11.252   2.182
11482SOL    HW236344   0.340  11.371   2.262
11483SOL     OW36345  13.312   8.014  10.572
11483SOL    HW136346  13.241   7.953  10.591
11483SOL    HW236347  13.379   7.962  10.528
11484SOL     OW36348  12.420   3.939  14.219
11484SOL    HW136349  12.468   3.994  14.281
11484SOL    HW236350  12.331   3.974  14.221
11485SOL     OW36351   9.134  10.634   1.818
11485SOL    HW136352   9.153  10.728   1.822
11485SOL    HW236353   9.073  10.619   1.890
11486SOL     OW36354   1.419   6.212   0.757
11486SOL    HW136355   1.486   6.279   0.773
11486SOL    HW236356   1.412   6.165   0.840
11487SOL     OW36357  10.993   6.571   4.760
11487SOL    HW136358  11.067   6.598   4.706
11487SOL    HW236359  10.939   6.517   4.702
11488SOL     OW36360  12.991   0.363  14.159
11488SOL    HW136361  13.039   0.445  14.172
11488SOL    HW236362  13.044   0.298  14.205
11489SOL     OW36363  12.815   8.433   3.582
11489SOL    HW136364  12.727   8.471   3.589
11489SOL    HW236365  12.800   8.344   3.550
11490SOL     OW36366   1.287   2.420   9.131
11490SOL    HW136367   1.338   2.446   9.054
11490SOL    HW236368   1.353   2.388   9.193
11491SOL     OW36369  14.409   5.410  13.118
11491SOL    HW136370  14.331   5.354  13.115
11491SOL    HW236371  14.439   5.404  13.209
11492SOL     OW36372   9.841   8.721   7.278
11492SOL    HW136373   9.783   8.782   7.232
11492SOL    HW236374   9.804   8.634   7.259
11493SOL     OW36375   3.446   9.311   1.534
11493SOL    HW136376   3.453   9.246   1.604
11493SOL    HW236377   3.536   9.342   1.520
11494SOL     OW36378   6.943   3.789  13.309
11494SOL    HW136379   6.976   3.874  13.279
11494SOL    HW236380   7.018   3.748  13.351
11495SOL     OW36381   8.023   7.565   3.881
11495SOL    HW136382   8.098   7.526   3.926
11495SOL    HW236383   8.056   7.589   3.795
11496SOL     OW36384   0.981   6.360   8.656
11496SOL    HW136385   1.002   6.280   8.607
11496SOL    HW236386   1.063   6.382   8.700
11497SOL     OW36387   9.668  11.910   8.858
11497SOL    HW136388   9.759  11.882   8.861
11497SOL    HW236389   9.669  12.001   8.889
11498SOL     OW36390  10.410   7.258  14.032
11498SOL    HW136391  10.500   7.251  14.066
11498SOL    HW236392  10.362   7.300  14.103
11499SOL     OW36393   4.013  14.444   0.863
11499SOL    HW136394   4.011  14.453   0.958
11499SOL    HW236395   3.921  14.441   0.837
11500SOL     OW36396   5.616   7.280  10.867
11500SOL    HW136397   5.710   7.267  10.876
11500SOL    HW236398   5.593   7.238  10.784
11501SOL     OW36399   0.104   0.074  13.214
11501SOL    HW136400   0.127   0.165  13.198
11501SOL    HW236401   0.010   0.070  13.195
11502SOL     OW36402   0.308  13.053   6.655
11502SOL    HW136403   0.243  13.117   6.685
11502SOL    HW236404   0.391  13.100   6.661
11503SOL     OW36405  13.323   5.621  14.552
11503SOL    HW136406  13.257   5.653  14.614
11503SOL    HW236407  13.282   5.631  14.466
11504SOL     OW36408   5.939  10.319   4.943
11504SOL    HW136409   5.950  10.330   4.849
11504SOL    HW236410   5.964  10.403   4.981
11505SOL     OW36411   8.570   8.463   1.591
11505SOL    HW136412   8.537   8.471   1.502
11505SOL    HW236413   8.530   8.383   1.625
11506SOL     OW36414   1.718   3.612   0.004
11506SOL    HW136415   1.804   3.652   0.016
11506SOL    HW236416   1.657   3.671   0.048
11507SOL     OW36417   6.313   5.166   3.183
11507SOL    HW136418   6.349   5.163   3.094
11507SOL    HW236419   6.218   5.170   3.171
11508SOL     OW36420   0.075   2.559  14.851
11508SOL    HW136421   0.094   2.467  14.870
11508SOL    HW236422   0.136   2.608   0.027
11509SOL     OW36423   1.874   7.339  13.134
11509SOL    HW136424   1.807   7.363  13.071
11509SOL    HW236425   1.913   7.423  13.160
11510SOL     OW36426   3.175   6.101   7.602
11510SOL    HW136427   3.085   6.130   7.621
11510SOL    HW236428   3.229   6.175   7.629
11511SOL     OW36429   4.291   2.503   2.113
11511SOL    HW136430   4.310   2.542   2.198
11511SOL    HW236431   4.240   2.568   2.067
11512SOL     OW36432   4.738   4.687   7.664
11512SOL    HW136433   4.704   4.601   7.641
11512SOL    HW236434   4.725   4.741   7.585
11513SOL     OW36435   3.143  10.473  10.860
11513SOL    HW136436   3.110  10.550  10.905
11513SOL    HW236437   3.125  10.400  10.919
11514SOL     OW36438  12.246   5.931   0.088
11514SOL    HW136439  12.155   5.912   0.113
11514SOL    HW236440  12.298   5.906   0.164
11515SOL     OW36441   9.413  13.884   8.048
11515SOL    HW136442   9.354  13.956   8.023
11515SOL    HW236443   9.480  13.884   7.980
11516SOL     OW36444  11.664  10.875  12.131
11516SOL    HW136445  11.607  10.926  12.074
11516SOL    HW236446  11.654  10.914  12.218
11517SOL     OW36447  12.015   0.045  11.824
11517SOL    HW136448  12.104   0.016  11.841
11517SOL    HW236449  12.000   0.116  11.887
11518SOL     OW36450  13.091   6.556   4.045
11518SOL    HW136451  13.009   6.515   4.069
11518SOL    HW236452  13.159   6.496   4.076
11519SOL     OW36453   2.646   4.723   7.552
11519SOL    HW136454   2.641   4.727   7.648
11519SOL    HW236455   2.673   4.633   7.533
11520SOL     OW36456   8.633   5.285  13.227
11520SOL    HW136457   8.594   5.245  13.304
11520SOL    HW236458   8.664   5.212  13.175
11521SOL     OW36459   0.771  13.047   5.084
11521SOL    HW136460   0.833  13.120   5.089
11521SOL    HW236461   0.821  12.977   5.042
11522SOL     OW36462  10.506  14.497   9.615
11522SOL    HW136463  10.582  14.519   9.669
11522SOL    HW236464  10.536  14.509   9.525
11523SOL     OW36465   5.754  10.068  10.043
11523SOL    HW136466   5.701   9.988  10.041
11523SOL    HW236467   5.794  10.071   9.956
11524SOL     OW36468   1.527   4.707   0.996
11524SOL    HW136469   1.454   4.647   1.008
11524SOL    HW236470   1.486   4.794   0.992
11525SOL     OW36471   0.023  12.583  10.046
11525SOL    HW136472  14.807  12.586  10.053
11525SOL    HW236473   0.043  12.491  10.030
11526SOL     OW36474  13.150  13.675  13.008
11526SOL    HW136475  13.079  13.723  13.052
11526SOL    HW236476  13.216  13.742  12.989
11527SOL     OW36477  12.122  10.303   1.306
11527SOL    HW136478  12.037  10.344   1.292
11527SOL    HW236479  12.142  10.262   1.222
11528SOL     OW36480   3.880  11.035   3.699
11528SOL    HW136481   3.865  11.004   3.788
11528SOL    HW236482   3.974  11.021   3.684
11529SOL     OW36483   5.166  11.336   6.104
11529SOL    HW136484   5.111  11.377   6.171
11529SOL    HW236485   5.164  11.243   6.126
11530SOL     OW36486   0.028   5.855   7.900
11530SOL    HW136487   0.031   5.763   7.927
11530SOL    HW236488   0.113   5.890   7.930
11531SOL     OW36489  10.825   5.070  11.187
11531SOL    HW136490  10.856   5.053  11.097
11531SOL    HW236491  10.905   5.085  11.237
11532SOL     OW36492  12.848  11.626  12.631
11532SOL    HW136493  12.897  11.545  12.615
11532SOL    HW236494  12.796  11.608  12.709
11533SOL     OW36495   2.358   2.595  12.631
11533SOL    HW136496   2.376   2.683  12.664
11533SOL    HW236497   2.310   2.609  12.550
11534SOL     OW36498  12.673   4.265   4.543
11534SOL    HW136499  12.590   4.236   4.580
11534SOL    HW236500  12.650   4.339   4.487
11535SOL     OW36501   5.754   1.398   8.101
11535SOL    HW136502   5.739   1.305   8.085
11535SOL    HW236503   5.848   1.409   8.089
11536SOL     OW36504   8.282   0.537   9.316
11536SOL    HW136505   8.320   0.572   9.397
11536SOL    HW236506   8.278   0.613   9.258
11537SOL     OW36507   3.005  12.905   0.891
11537SOL    HW136508   2.957  12.822   0.894
11537SOL    HW236509   3.076  12.889   0.829
11538SOL     OW36510   7.986  14.334   5.658
11538SOL    HW136511   7.976  14.377   5.743
11538SOL    HW236512   8.069  14.366   5.624
11539SOL     OW36513  14.876   7.855   7.658
11539SOL    HW136514  14.841   7.890   7.740
11539SOL    HW236515   0.053   7.783   7.686
11540SOL     OW36516   2.205  11.362  11.528
11540SOL    HW136517   2.209  11.368  11.624
11540SOL    HW236518   2.227  11.270  11.509
11541SOL     OW36519  11.724   2.467  11.191
11541SOL    HW136520  11.634   2.444  11.216
11541SOL    HW236521  11.749   2.401  11.127
11542SOL     OW36522   1.621  10.828   3.616
11542SOL    HW136523   1.691  10.826   3.681
11542SOL    HW236524   1.640  10.905   3.563
11543SOL     OW36525  13.620   0.471  12.414
11543SOL    HW136526  13.640   0.410  12.342
11543SOL    HW236527  13.554   0.425  12.466
11544SOL     OW36528   8.987  14.782   6.417
11544SOL    HW136529   9.045  14.765   6.343
11544SOL    HW236530   9.044  14.825   6.482
11545SOL     OW36531  14.503   0.168   6.816
11545SOL    HW136532  14.538   0.083   6.791
11545SOL    HW236533  14.453   0.197   6.740
11546SOL     OW36534  13.916   3.098   2.851
11546SOL    HW136535  13.943   3.165   2.914
11546SOL    HW236536  13.966   3.117   2.772
11547SOL     OW36537  10.732   0.648  10.880
11547SOL    HW136538  10.778   0.565  10.895
11547SOL    HW236539  10.710   0.646  10.787
11548SOL     OW36540  14.675   0.451   0.137
11548SOL    HW136541  14.682   0.543   0.163
11548SOL    HW236542  14.722   0.403   0.205
11549SOL     OW36543  11.559   5.491   8.190
11549SOL    HW136544  11.611   5.420   8.154
11549SOL    HW236545  11.554   5.472   8.284
11550SOL     OW36546   3.102   1.843   7.067
11550SOL    HW136547   3.165   1.914   7.053
11550SOL    HW236548   3.138   1.769   7.018
11551SOL     OW36549   7.815   6.070  10.708
11551SOL    HW136550   7.810   5.999  10.644
11551SOL    HW236551   7.906   6.100  10.703
11552SOL     OW36552   8.694   3.897   8.032
11552SOL    HW136553   8.612   3.909   7.985
11552SOL    HW236554   8.742   3.832   7.981
11553SOL     OW36555   8.278   1.143   7.375
11553SOL    HW136556   8.302   1.199   7.302
11553SOL    HW236557   8.184   1.129   7.365
11554SOL     OW36558  11.390  10.609   5.138
11554SOL    HW136559  11.359  10.694   5.169
11554SOL    HW236560  11.349  10.546   5.196
11555SOL     OW36561   9.279   1.851   2.006
11555SOL    HW136562   9.249   1.919   2.067
11555SOL    HW236563   9.314   1.900   1.932
11556SOL     OW36564   9.447  13.426  11.743
11556SOL    HW136565   9.398  13.502  11.773
11556SOL    HW236566   9.535  13.460  11.725
11557SOL     OW36567   0.494  11.741  10.922
11557SOL    HW136568   0.492  11.672  10.988
11557SOL    HW236569   0.582  11.777  10.927
11558SOL     OW36570   2.635   7.839  10.634
11558SOL    HW136571   2.585   7.758  10.643
11558SOL    HW236572   2.702   7.834  10.703
11559SOL     OW36573   2.872  13.571   2.933
11559SOL    HW136574   2.881  13.498   2.872
11559SOL    HW236575   2.920  13.642   2.892
11560SOL     OW36576  13.644   7.047   7.410
11560SOL    HW136577  13.587   6.989   7.358
11560SOL    HW236578  13.706   7.082   7.347
11561SOL     OW36579  13.647  14.770   0.255
11561SOL    HW136580  13.662  14.864   0.268
11561SOL    HW236581  13.691  14.750   0.173
11562SOL     OW36582  14.641   8.947   8.874
11562SOL    HW136583  14.719   8.894   8.859
11562SOL    HW236584  14.649   8.978   8.964
11563SOL     OW36585   3.720   0.395   1.753
11563SOL    HW136586   3.720   0.300   1.761
11563SOL    HW236587   3.637   0.422   1.793
11564SOL     OW36588   3.171   3.198   0.471
11564SOL    HW136589   3.158   3.263   0.541
11564SOL    HW236590   3.251   3.226   0.427
11565SOL     OW36591   2.832  14.127  10.540
11565SOL    HW136592   2.783  14.207  10.558
11565SOL    HW236593   2.892  14.119  10.614
11566SOL     OW36594   6.477  10.667  10.297
11566SOL    HW136595   6.534  10.597  10.264
11566SOL    HW236596   6.538  10.735  10.326
11567SOL     OW36597   5.779   7.585  10.347
11567SOL    HW136598   5.839   7.644  10.393
11567SOL    HW236599   5.813   7.497  10.366
11568SOL     OW36600   9.176   5.008   0.020
11568SOL    HW136601   9.271   4.999   0.019
11568SOL    HW236602   9.143   4.919   0.014
11569SOL     OW36603   7.999   1.038   5.502
11569SOL    HW136604   7.922   1.068   5.453
11569SOL    HW236605   7.968   0.963   5.552
11570SOL     OW36606   7.429  12.639   6.736
11570SOL    HW136607   7.511  12.678   6.766
11570SOL    HW236608   7.453  12.551   6.708
11571SOL     OW36609  11.635  11.675   2.873
11571SOL    HW136610  11.597  11.592   2.903
11571SOL    HW236611  11.574  11.742   2.905
11572SOL     OW36612   9.502   7.537   5.600
11572SOL    HW136613   9.441   7.498   5.537
11572SOL    HW236614   9.498   7.480   5.676
11573SOL     OW36615   6.614   1.253   9.515
11573SOL    HW136616   6.557   1.221   9.445
11573SOL    HW236617   6.647   1.173   9.556
11574SOL     OW36618  12.600   5.738   6.720
11574SOL    HW136619  12.672   5.800   6.731
11574SOL    HW236620  12.594   5.694   6.805
11575SOL     OW36621   5.784  10.972   0.635
11575SOL    HW136622   5.696  11.004   0.659
11575SOL    HW236623   5.774  10.876   0.633
11576SOL     OW36624   7.101   1.679  14.841
11576SOL    HW136625   7.049   1.603  14.867
11576SOL    HW236626   7.097   1.681  14.746
11577SOL     OW36627   3.805   8.169   9.165
11577SOL    HW136628   3.875   8.219   9.123
11577SOL    HW236629   3.782   8.220   9.242
11578SOL     OW36630   1.334   5.394   3.382
11578SOL    HW136631   1.409   5.454   3.374
11578SOL    HW236632   1.294   5.394   3.295
11579SOL     OW36633  10.796   7.736  13.877
11579SOL    HW136634  10.788   7.831  13.886
11579SOL    HW236635  10.890   7.720  13.871
11580SOL     OW36636   3.896   0.514  11.924
11580SOL    HW136637   3.886   0.427  11.884
11580SOL    HW236638   3.963   0.557  11.870
11581SOL     OW36639   9.120   2.077  10.617
11581SOL    HW136640   9.091   2.157  10.661
11581SOL    HW236641   9.212   2.068  10.641
11582SOL     OW36642   9.572  12.386   8.393
11582SOL    HW136643   9.645  12.447   8.381
11582SOL    HW236644   9.494  12.438   8.377
11583SOL     OW36645  14.637   6.998  12.786
11583SOL    HW136646  14.631   6.903  12.775
11583SOL    HW236647  14.570   7.019  12.852
11584SOL     OW36648  12.627   2.816  12.465
11584SOL    HW136649  12.701   2.781  12.416
11584SOL    HW236650  12.665   2.849  12.547
11585SOL     OW36651   4.856   2.415  13.623
11585SOL    HW136652   4.938   2.382  13.588
11585SOL    HW236653   4.882   2.466  13.699
11586SOL     OW36654   8.972   9.810   5.258
11586SOL    HW136655   9.043   9.859   5.300
11586SOL    HW236656   8.960   9.733   5.313
11587SOL     OW36657  10.648  10.962  12.559
11587SOL    HW136658  10.582  10.923  12.502
11587SOL    HW236659  10.597  10.999  12.632
11588SOL     OW36660  14.233  10.232   2.336
11588SOL    HW136661  14.139  10.248   2.330
11588SOL    HW236662  14.255  10.253   2.427
11589SOL     OW36663  12.615   1.814   5.478
11589SOL    HW136664  12.541   1.763   5.446
11589SOL    HW236665  12.595   1.904   5.452
11590SOL     OW36666   0.584  14.162   8.999
11590SOL    HW136667   0.492  14.159   8.973
11590SOL    HW236668   0.600  14.255   9.018
11591SOL     OW36669  12.147  12.776  14.832
11591SOL    HW136670  12.233  12.743  14.807
11591SOL    HW236671  12.103  12.700  14.871
11592SOL     OW36672  14.183   8.452   8.349
11592SOL    HW136673  14.123   8.453   8.423
11592SOL    HW236674  14.224   8.538   8.350
11593SOL     OW36675   0.347  11.205  14.728
11593SOL    HW136676   0.408  11.190  14.800
11593SOL    HW236677   0.268  11.159  14.753
11594SOL     OW36678   5.683   0.272  11.860
11594SOL    HW136679   5.656   0.208  11.794
11594SOL    HW236680   5.609   0.331  11.868
11595SOL     OW36681  10.945   0.406   0.838
11595SOL    HW136682  10.934   0.396   0.933
11595SOL    HW236683  10.978   0.321   0.809
11596SOL     OW36684  14.822  14.365  10.258
11596SOL    HW136685  14.772  14.443  10.233
11596SOL    HW236686   0.034  14.389  10.244
11597SOL     OW36687  14.206  14.137   6.472
11597SOL    HW136688  14.230  14.171   6.386
11597SOL    HW236689  14.240  14.201   6.534
11598SOL     OW36690   1.326   8.892  13.279
11598SOL    HW136691   1.413   8.911  13.245
11598SOL    HW236692   1.268   8.954  13.234
11599SOL     OW36693   7.245  11.506   8.269
11599SOL    HW136694   7.228  11.465   8.354
11599SOL    HW236695   7.307  11.446   8.226
11600SOL     OW36696  13.997   6.132   6.571
11600SOL    HW136697  13.906   6.150   6.595
11600SOL    HW236698  13.998   6.038   6.552
11601SOL     OW36699   5.751   9.085   7.339
11601SOL    HW136700   5.827   9.056   7.288
11601SOL    HW236701   5.789   9.117   7.421
11602SOL     OW36702  10.933  11.708  14.367
11602SOL    HW136703  10.856  11.658  14.342
11602SOL    HW236704  10.917  11.796  14.331
11603SOL     OW36705   9.002   8.789  13.191
11603SOL    HW136706   8.954   8.739  13.125
11603SOL    HW236707   8.947   8.866  13.207
11604SOL     OW36708  14.305  11.792   2.684
11604SOL    HW136709  14.380  11.841   2.718
11604SOL    HW236710  14.230  11.826   2.733
11605SOL     OW36711  10.473   4.826   5.938
11605SOL    HW136712  10.438   4.770   5.869
11605SOL    HW236713  10.506   4.903   5.892
11606SOL     OW36714   5.726   9.921   5.978
11606SOL    HW136715   5.706   9.830   5.999
11606SOL    HW236716   5.791   9.946   6.043
11607SOL     OW36717  12.952  13.446   8.604
11607SOL    HW136718  12.890  13.373   8.609
11607SOL    HW236719  12.958  13.478   8.694
11608SOL     OW36720   3.661  14.644   6.702
11608SOL    HW136721   3.656  14.729   6.657
11608SOL    HW236722   3.719  14.660   6.776
11609SOL     OW36723   0.015  12.867   7.548
11609SOL    HW136724   0.092  12.849   7.601
11609SOL    HW236725  14.822  12.868   7.611
11610SOL     OW36726   6.728   9.601   5.969
11610SOL    HW136727   6.659   9.551   6.014
11610SOL    HW236728   6.806   9.544   5.974
11611SOL     OW36729  13.226  10.657   7.265
11611SOL    HW136730  13.320  10.673   7.262
11611SOL    HW236731  13.215  10.586   7.328
11612SOL     OW36732   5.877   7.066  10.965
11612SOL    HW136733   5.837   6.980  10.953
11612SOL    HW236734   5.933   7.055  11.043
11613SOL     OW36735   6.409   0.632   8.490
11613SOL    HW136736   6.451   0.667   8.569
11613SOL    HW236737   6.479   0.585   8.445
11614SOL     OW36738  12.200   8.293  14.696
11614SOL    HW136739  12.291   8.316  14.716
11614SOL    HW236740  12.191   8.203  14.727
11615SOL     OW36741   2.445  10.662   2.639
11615SOL    HW136742   2.467  10.645   2.731
11615SOL    HW236743   2.469  10.582   2.593
11616SOL     OW36744   0.375   0.645   8.405
11616SOL    HW136745   0.341   0.658   8.493
11616SOL    HW236746   0.318   0.579   8.367
11617SOL     OW36747  10.297   2.107  13.181
11617SOL    HW136748  10.267   2.100  13.090
11617SOL    HW236749  10.348   2.188  13.183
11618SOL     OW36750   6.885  12.356   9.044
11618SOL    HW136751   6.822  12.358   8.972
11618SOL    HW236752   6.918  12.445   9.049
11619SOL     OW36753   3.510   5.992   1.491
11619SOL    HW136754   3.566   6.069   1.479
11619SOL    HW236755   3.514   5.946   1.408
11620SOL     OW36756   5.812  13.321   3.100
11620SOL    HW136757   5.784  13.411   3.115
11620SOL    HW236758   5.874  13.327   3.027
11621SOL     OW36759  12.680  11.280   2.903
11621SOL    HW136760  12.736  11.358   2.898
11621SOL    HW236761  12.739  11.207   2.885
11622SOL     OW36762  10.546   7.626  13.802
11622SOL    HW136763  10.519   7.630  13.710
11622SOL    HW236764  10.627   7.676  13.805
11623SOL     OW36765   3.696  11.159   5.458
11623SOL    HW136766   3.765  11.112   5.411
11623SOL    HW236767   3.704  11.249   5.428
11624SOL     OW36768  12.377   6.509   6.908
11624SOL    HW136769  12.310   6.441   6.898
11624SOL    HW236770  12.335   6.589   6.875
11625SOL     OW36771  11.451  14.791   3.033
11625SOL    HW136772  11.376  14.824   2.983
11625SOL    HW236773  11.419  14.786   3.123
11626SOL     OW36774  14.842   6.661   0.567
11626SOL    HW136775   0.018   6.709   0.506
11626SOL    HW236776  14.758   6.651   0.521
11627SOL     OW36777   6.431  13.889   4.792
11627SOL    HW136778   6.439  13.828   4.719
11627SOL    HW236779   6.338  13.889   4.813
11628SOL     OW36780   1.196   1.174   2.324
11628SOL    HW136781   1.224   1.245   2.267
11628SOL    HW236782   1.270   1.113   2.324
11629SOL     OW36783   9.684   3.069   5.319
11629SOL    HW136784   9.628   3.005   5.275
11629SOL    HW236785   9.727   3.117   5.247
11630SOL     OW36786   7.493  12.763   5.027
11630SOL    HW136787   7.557  12.832   5.042
11630SOL    HW236788   7.417  12.788   5.080
11631SOL     OW36789  10.144   8.131   1.015
11631SOL    HW136790  10.115   8.191   0.946
11631SOL    HW236791  10.239   8.125   1.003
11632SOL     OW36792  11.629   1.742   5.446
11632SOL    HW136793  11.669   1.657   5.462
11632SOL    HW236794  11.545   1.722   5.404
11633SOL     OW36795  11.788  11.170   0.081
11633SOL    HW136796  11.698  11.176   0.049
11633SOL    HW236797  11.830  11.105   0.025
11634SOL     OW36798   3.400   8.202   9.624
11634SOL    HW136799   3.319   8.252   9.623
11634SOL    HW236800   3.389   8.136   9.556
11635SOL     OW36801   8.743   9.102   5.471
11635SOL    HW136802   8.649   9.095   5.454
11635SOL    HW236803   8.752   9.184   5.520
11636SOL     OW36804   2.802   8.745  11.379
11636SOL    HW136805   2.775   8.686  11.449
11636SOL    HW236806   2.734   8.812  11.376
11637SOL     OW36807   9.155  10.994  11.577
11637SOL    HW136808   9.178  11.086  11.561
11637SOL    HW236809   9.184  10.948  11.498
11638SOL     OW36810   6.818   2.738   3.446
11638SOL    HW136811   6.797   2.824   3.482
11638SOL    HW236812   6.861   2.756   3.363
11639SOL     OW36813  12.168  14.292  10.542
11639SOL    HW136814  12.154  14.321  10.633
11639SOL    HW236815  12.128  14.205  10.539
11640SOL     OW36816  12.156   1.694  13.082
11640SOL    HW136817  12.098   1.621  13.102
11640SOL    HW236818  12.153   1.703  12.987
11641SOL     OW36819   2.186   1.405   0.929
11641SOL    HW136820   2.098   1.385   0.958
11641SOL    HW236821   2.243   1.374   1.000
11642SOL     OW36822   3.887   4.722   3.510
11642SOL    HW136823   3.942   4.767   3.446
11642SOL    HW236824   3.798   4.734   3.477
11643SOL     OW36825   2.396   3.802   1.768
11643SOL    HW136826   2.337   3.789   1.694
11643SOL    HW236827   2.483   3.803   1.728
11644SOL     OW36828  10.514   2.157   4.331
11644SOL    HW136829  10.504   2.095   4.402
11644SOL    HW236830  10.446   2.223   4.346
11645SOL     OW36831   6.609  12.320   6.655
11645SOL    HW136832   6.553  12.373   6.598
11645SOL    HW236833   6.573  12.332   6.743
11646SOL     OW36834  14.366   6.527   7.466
11646SOL    HW136835  14.359   6.438   7.499
11646SOL    HW236836  14.278   6.547   7.433
11647SOL     OW36837   6.456   6.016   9.268
11647SOL    HW136838   6.448   5.921   9.264
11647SOL    HW236839   6.374   6.045   9.307
11648SOL     OW36840   0.700   6.752   4.949
11648SOL    HW136841   0.623   6.785   4.996
11648SOL    HW236842   0.703   6.659   4.971
11649SOL     OW36843   2.284   3.893  13.743
11649SOL    HW136844   2.339   3.818  13.765
11649SOL    HW236845   2.286   3.949  13.821
11650SOL     OW36846  12.278  11.465   4.992
11650SOL    HW136847  12.232  11.410   4.929
11650SOL    HW236848  12.290  11.549   4.946
11651SOL     OW36849   4.497   7.961   4.046
11651SOL    HW136850   4.487   7.931   4.136
11651SOL    HW236851   4.408   7.982   4.017
11652SOL     OW36852   9.311  12.033   5.462
11652SOL    HW136853   9.270  12.067   5.383
11652SOL    HW236854   9.340  12.111   5.510
11653SOL     OW36855   6.702  14.346   2.343
11653SOL    HW136856   6.786  14.311   2.371
11653SOL    HW236857   6.652  14.357   2.424
11654SOL     OW36858   5.042  12.644   4.761
11654SOL    HW136859   5.125  12.614   4.799
11654SOL    HW236860   5.066  12.680   4.676
11655SOL     OW36861   1.895   0.405   0.709
11655SOL    HW136862   1.911   0.414   0.615
11655SOL    HW236863   1.817   0.458   0.726
11656SOL     OW36864  14.029  11.768  11.853
11656SOL    HW136865  14.037  11.672  11.857
11656SOL    HW236866  13.942  11.783  11.818
11657SOL     OW36867   8.503   6.655  13.201
11657SOL    HW136868   8.513   6.718  13.129
11657SOL    HW236869   8.581   6.668  13.255
11658SOL     OW36870  11.765   2.648   9.020
11658SOL    HW136871  11.692   2.589   9.040
11658SOL    HW236872  11.728   2.715   8.964
11659SOL     OW36873   7.093   1.642  14.385
11659SOL    HW136874   7.027   1.574  14.396
11659SOL    HW236875   7.103   1.681  14.472
11660SOL     OW36876   9.300  14.361   3.809
11660SOL    HW136877   9.395  14.361   3.817
11660SOL    HW236878   9.273  14.274   3.838
11661SOL     OW36879   4.557   6.552   5.157
11661SOL    HW136880   4.635   6.559   5.102
11661SOL    HW236881   4.574   6.611   5.230
11662SOL     OW36882  13.344   5.907   7.837
11662SOL    HW136883  13.330   5.934   7.927
11662SOL    HW236884  13.427   5.859   7.839
11663SOL     OW36885   9.778   4.400   8.833
11663SOL    HW136886   9.785   4.372   8.741
11663SOL    HW236887   9.755   4.493   8.828
11664SOL     OW36888   6.349   7.097   1.217
11664SOL    HW136889   6.313   7.055   1.139
11664SOL    HW236890   6.347   7.191   1.197
11665SOL     OW36891   5.296   7.749   7.430
11665SOL    HW136892   5.269   7.669   7.475
11665SOL    HW236893   5.250   7.819   7.477
11666SOL     OW36894   6.817  12.678   5.623
11666SOL    HW136895   6.738  12.697   5.572
11666SOL    HW236896   6.844  12.762   5.659
11667SOL     OW36897  10.754   4.596  11.891
11667SOL    HW136898  10.808   4.517  11.902
11667SOL    HW236899  10.811   4.668  11.918
11668SOL     OW36900  11.884   5.420   2.847
11668SOL    HW136901  11.920   5.381   2.767
11668SOL    HW236902  11.874   5.513   2.827
11669SOL     OW36903   5.051   4.358   5.839
11669SOL    HW136904   5.009   4.379   5.756
11669SOL    HW236905   4.990   4.300   5.884
11670SOL     OW36906   6.362   5.796  10.190
11670SOL    HW136907   6.440   5.741  10.197
11670SOL    HW236908   6.361   5.824  10.099
11671SOL     OW36909  12.271  11.943   9.517
11671SOL    HW136910  12.359  11.908   9.532
11671SOL    HW236911  12.233  11.886   9.450
11672SOL     OW36912   3.795  14.417   0.640
11672SOL    HW136913   3.859  14.392   0.574
11672SOL    HW236914   3.775  14.335   0.686
11673SOL     OW36915  12.392  14.268  10.866
11673SOL    HW136916  12.401  14.359  10.837
11673SOL    HW236917  12.391  14.273  10.961
11674SOL     OW36918   5.022   4.550   1.692
11674SOL    HW136919   4.970   4.629   1.709
11674SOL    HW236920   5.041   4.554   1.599
11675SOL     OW36921  11.136  11.625   9.576
11675SOL    HW136922  11.123  11.641   9.669
11675SOL    HW236923  11.185  11.701   9.544
11676SOL     OW36924   0.420   9.627  11.405
11676SOL    HW136925   0.490   9.692  11.399
11676SOL    HW236926   0.431   9.573  11.327
11677SOL     OW36927  12.496  14.862   7.839
11677SOL    HW136928  12.404  14.843   7.856
11677SOL    HW236929  12.539  14.851   7.923
11678SOL     OW36930   1.222   6.547   3.826
11678SOL    HW136931   1.270   6.619   3.866
11678SOL    HW236932   1.198   6.580   3.739
11679SOL     OW36933   3.719   8.979   4.011
11679SOL    HW136934   3.640   8.927   4.023
11679SOL    HW236935   3.749   8.957   3.923
11680SOL     OW36936   4.851  11.263   2.678
11680SOL    HW136937   4.930  11.311   2.652
11680SOL    HW236938   4.877  11.215   2.757
11681SOL     OW36939  11.620  14.069   1.882
11681SOL    HW136940  11.675  14.010   1.831
11681SOL    HW236941  11.654  14.063   1.971
11682SOL     OW36942   2.519   8.364   6.171
11682SOL    HW136943   2.460   8.408   6.232
11682SOL    HW236944   2.547   8.285   6.217
11683SOL     OW36945   6.206   4.877   5.426
11683SOL    HW136946   6.264   4.806   5.453
11683SOL    HW236947   6.264   4.939   5.381
11684SOL     OW36948   5.908  11.216  10.524
11684SOL    HW136949   5.838  11.162  10.560
11684SOL    HW236950   5.910  11.192  10.431
11685SOL     OW36951  14.334  10.614   8.651
11685SOL    HW136952  14.429  10.606   8.647
11685SOL    HW236953  14.310  10.584   8.738
11686SOL     OW36954   5.032  14.698  12.669
11686SOL    HW136955   5.125  14.683  12.652
11686SOL    HW236956   4.988  14.626  12.624
11687SOL     OW36957   9.279   9.234   2.214
11687SOL    HW136958   9.322   9.241   2.128
11687SOL    HW236959   9.202   9.179   2.198
11688SOL     OW36960   4.182   2.586   3.736
11688SOL    HW136961   4.148   2.526   3.669
11688SOL    HW236962   4.183   2.672   3.693
11689SOL     OW36963  13.669   8.846  14.541
11689SOL    HW136964  13.638   8.836  14.451
11689SOL    HW236965  13.692   8.757  14.568
11690SOL     OW36966  14.429   3.466   1.050
11690SOL    HW136967  14.484   3.536   1.014
11690SOL    HW236968  14.373   3.509   1.114
11691SOL     OW36969  14.570   4.060   7.213
11691SOL    HW136970  14.489   4.010   7.218
11691SOL    HW236971  14.545   4.142   7.172
11692SOL     OW36972   1.211   9.706  14.172
11692SOL    HW136973   1.250   9.793  14.163
11692SOL    HW236974   1.259   9.651  14.110
11693SOL     OW36975   7.851   5.303   5.175
11693SOL    HW136976   7.769   5.316   5.223
11693SOL    HW236977   7.869   5.387   5.134
11694SOL     OW36978   4.800   6.853   0.512
11694SOL    HW136979   4.889   6.882   0.490
11694SOL    HW236980   4.785   6.777   0.455
11695SOL     OW36981   9.314   9.524   4.074
11695SOL    HW136982   9.300   9.452   4.136
11695SOL    HW236983   9.409   9.533   4.070
11696SOL     OW36984   1.308   0.079   5.117
11696SOL    HW136985   1.238   0.132   5.155
11696SOL    HW236986   1.368   0.062   5.189
11697SOL     OW36987  14.370   2.762   6.072
11697SOL    HW136988  14.277   2.771   6.054
11697SOL    HW236989  14.413   2.782   5.989
11698SOL     OW36990  13.797   9.361   8.449
11698SOL    HW136991  13.845   9.440   8.425
11698SOL    HW236992  13.863   9.305   8.491
11699SOL     OW36993   6.783   5.891   8.971
11699SOL    HW136994   6.813   5.932   9.052
11699SOL    HW236995   6.803   5.798   8.981
11700SOL     OW36996  11.431   0.232   2.091
11700SOL    HW136997  11.375   0.242   2.015
11700SOL    HW236998  11.512   0.277   2.068
11701SOL     OW36999   0.498   1.585   5.937
11701SOL    HW137000   0.470   1.646   6.005
11701SOL    HW237001   0.443   1.605   5.861
11702SOL     OW37002  10.313  10.272  12.398
11702SOL    HW137003  10.225  10.252  12.431
11702SOL    HW237004  10.305  10.267  12.303
11703SOL     OW37005   5.173   7.253   8.716
11703SOL    HW137006   5.120   7.219   8.787
11703SOL    HW237007   5.245   7.191   8.708
11704SOL     OW37008  12.076   3.281  14.513
11704SOL    HW137009  12.076   3.204  14.569
11704SOL    HW237010  12.018   3.344  14.556
11705SOL     OW37011   7.394   8.032   2.283
11705SOL    HW137012   7.345   7.951   2.272
11705SOL    HW237013   7.468   8.024   2.223
11706SOL     OW37014   4.381   8.519   2.316
11706SOL    HW137015   4.426   8.444   2.357
11706SOL    HW237016   4.415   8.521   2.227
11707SOL     OW37017   9.933   8.279   4.668
11707SOL    HW137018   9.974   8.314   4.747
11707SOL    HW237019   9.886   8.201   4.698
11708SOL     OW37020  14.649  14.780   2.305
11708SOL    HW137021  14.562  14.819   2.299
11708SOL    HW237022  14.702  14.847   2.348
11709SOL     OW37023   0.455   7.454  10.911
11709SOL    HW137024   0.368   7.486  10.934
11709SOL    HW237025   0.488   7.517  10.847
11710SOL     OW37026   3.235   5.570   2.548
11710SOL    HW137027   3.175   5.513   2.500
11710SOL    HW237028   3.207   5.659   2.526
11711SOL     OW37029   0.860  10.960  11.538
11711SOL    HW137030   0.876  10.928  11.449
11711SOL    HW237031   0.769  10.991  11.537
11712SOL     OW37032   5.973  10.150   8.656
11712SOL    HW137033   6.063  10.177   8.673
11712SOL    HW237034   5.921  10.196   8.722
11713SOL     OW37035   8.236   4.426   8.422
11713SOL    HW137036   8.142   4.431   8.404
11713SOL    HW237037   8.277   4.429   8.336
11714SOL     OW37038   5.095  10.579  12.766
11714SOL    HW137039   5.154  10.633  12.714
11714SOL    HW237040   5.141  10.496  12.777
11715SOL     OW37041   5.308   2.954  10.258
11715SOL    HW137042   5.212   2.959  10.254
11715SOL    HW237043   5.333   2.921  10.171
11716SOL     OW37044  14.646   6.397   3.154
11716SOL    HW137045  14.570   6.349   3.187
11716SOL    HW237046  14.661   6.361   3.067
11717SOL     OW37047   2.533   4.114   5.994
11717SOL    HW137048   2.446   4.154   5.987
11717SOL    HW237049   2.592   4.177   5.952
11718SOL     OW37050   2.947  11.612   1.091
11718SOL    HW137051   3.000  11.600   1.013
11718SOL    HW237052   2.890  11.534   1.093
11719SOL     OW37053   6.910  14.091   1.624
11719SOL    HW137054   6.966  14.045   1.562
11719SOL    HW237055   6.821  14.078   1.591
11720SOL     OW37056  11.583   7.030   8.071
11720SOL    HW137057  11.494   6.996   8.081
11720SOL    HW237058  11.585   7.106   8.129
11721SOL     OW37059   9.251   4.077  12.979
11721SOL    HW137060   9.335   4.031  12.974
11721SOL    HW237061   9.211   4.063  12.893
11722SOL     OW37062   2.313  14.615   8.956
11722SOL    HW137063   2.282  14.553   9.022
11722SOL    HW237064   2.299  14.701   8.996
11723SOL     OW37065   3.782   0.691   1.383
11723SOL    HW137066   3.719   0.622   1.404
11723SOL    HW237067   3.804   0.731   1.467
11724SOL     OW37068   5.991   9.998   0.567
11724SOL    HW137069   6.058   9.979   0.632
11724SOL    HW237070   5.977  10.093   0.573
11725SOL     OW37071  14.282  12.888   2.767
11725SOL    HW137072  14.356  12.913   2.823
11725SOL    HW237073  14.311  12.909   2.678
11726SOL     OW37074   9.453  10.206   1.198
11726SOL    HW137075   9.511  10.268   1.154
11726SOL    HW237076   9.506  10.169   1.269
11727SOL     OW37077   9.945   6.203   0.408
11727SOL    HW137078  10.031   6.234   0.435
11727SOL    HW237079   9.948   6.206   0.312
11728SOL     OW37080  11.944   0.027   8.401
11728SOL    HW137081  12.014   0.092   8.402
11728SOL    HW237082  11.893   0.046   8.480
11729SOL     OW37083   6.849   5.655  11.681
11729SOL    HW137084   6.798   5.723  11.636
11729SOL    HW237085   6.784   5.602  11.726
11730SOL     OW37086  12.539   5.160   1.421
11730SOL    HW137087  12.456   5.120   1.395
11730SOL    HW237088  12.545   5.144   1.515
11731SOL     OW37089   6.057  10.387   9.038
11731SOL    HW137090   5.997  10.317   9.012
11731SOL    HW237091   6.142  10.345   9.047
11732SOL     OW37092   2.931  10.113   4.253
11732SOL    HW137093   3.011  10.064   4.231
11732SOL    HW237094   2.894  10.065   4.328
11733SOL     OW37095   5.072  12.991   6.330
11733SOL    HW137096   5.148  12.976   6.386
11733SOL    HW237097   5.072  13.085   6.314
11734SOL     OW37098   7.915   9.345   1.402
11734SOL    HW137099   7.863   9.320   1.478
11734SOL    HW237100   7.966   9.267   1.381
11735SOL     OW37101   0.975  12.560  11.329
11735SOL    HW137102   1.064  12.529  11.311
11735SOL    HW237103   0.927  12.544  11.247
11736SOL     OW37104   7.683   0.236  14.827
11736SOL    HW137105   7.684   0.220   0.042
11736SOL    HW237106   7.600   0.281  14.811
11737SOL     OW37107  13.205   1.369  10.837
11737SOL    HW137108  13.255   1.437  10.883
11737SOL    HW237109  13.199   1.399  10.747
11738SOL     OW37110   9.896  14.481   6.040
11738SOL    HW137111   9.892  14.494   5.945
11738SOL    HW237112   9.977  14.434   6.055
11739SOL     OW37113   2.730  11.298   6.165
11739SOL    HW137114   2.698  11.383   6.196
11739SOL    HW237115   2.671  11.234   6.204
11740SOL     OW37116   2.401   3.135   9.737
11740SOL    HW137117   2.320   3.094   9.707
11740SOL    HW237118   2.469   3.095   9.682
11741SOL     OW37119   4.893   7.272   6.645
11741SOL    HW137120   4.863   7.265   6.554
11741SOL    HW237121   4.860   7.193   6.688
11742SOL     OW37122   0.725   0.416   3.707
11742SOL    HW137123   0.775   0.352   3.657
11742SOL    HW237124   0.696   0.369   3.785
11743SOL     OW37125   7.324   2.861   3.616
11743SOL    HW137126   7.361   2.807   3.547
11743SOL    HW237127   7.332   2.808   3.695
11744SOL     OW37128   6.118   9.970  13.406
11744SOL    HW137129   6.105  10.044  13.466
11744SOL    HW237130   6.192   9.922  13.443
11745SOL     OW37131   2.641   5.620  10.482
11745SOL    HW137132   2.669   5.708  10.507
11745SOL    HW237133   2.624   5.576  10.565
11746SOL     OW37134   7.952  12.178   3.742
11746SOL    HW137135   7.995  12.102   3.780
11746SOL    HW237136   8.022  12.229   3.701
11747SOL     OW37137   0.071   4.665  12.609
11747SOL    HW137138   0.109   4.700  12.689
11747SOL    HW237139   0.133   4.689  12.540
11748SOL     OW37140   1.548   6.278   5.438
11748SOL    HW137141   1.641   6.265   5.453
11748SOL    HW237142   1.534   6.247   5.348
11749SOL     OW37143  13.271  10.096  10.764
11749SOL    HW137144  13.209  10.046  10.711
11749SOL    HW237145  13.217  10.164  10.806
11750SOL     OW37146   5.228   4.048  13.452
11750SOL    HW137147   5.267   4.021  13.369
11750SOL    HW237148   5.174   4.124  13.430
11751SOL     OW37149   2.889   6.830   0.312
11751SOL    HW137150   2.879   6.925   0.308
11751SOL    HW237151   2.982   6.816   0.326
11752SOL     OW37152   3.576   6.585   0.830
11752SOL    HW137153   3.619   6.618   0.910
11752SOL    HW237154   3.509   6.525   0.862
11753SOL     OW37155   1.736  10.433   4.738
11753SOL    HW137156   1.678  10.357   4.742
11753SOL    HW237157   1.677  10.508   4.731
11754SOL     OW37158   0.626   0.937   8.176
11754SOL    HW137159   0.551   0.917   8.119
11754SOL    HW237160   0.675   0.855   8.180
11755SOL     OW37161  12.814   5.588  14.845
11755SOL    HW137162  12.837   5.631   0.048
11755SOL    HW237163  12.781   5.659  14.790
11756SOL     OW37164  12.443   2.359  14.231
11756SOL    HW137165  12.442   2.455  14.221
11756SOL    HW237166  12.472   2.327  14.146
11757SOL     OW37167   9.537   1.325   4.793
11757SOL    HW137168   9.628   1.298   4.810
11757SOL    HW237169   9.526   1.313   4.699
11758SOL     OW37170   4.634   0.458   4.955
11758SOL    HW137171   4.644   0.414   5.040
11758SOL    HW237172   4.620   0.388   4.892
11759SOL     OW37173   1.346  10.808  12.864
11759SOL    HW137174   1.388  10.763  12.937
11759SOL    HW237175   1.418  10.832  12.806
11760SOL     OW37176  12.297   0.313   2.327
11760SOL    HW137177  12.281   0.318   2.422
11760SOL    HW237178  12.263   0.395   2.293
11761SOL     OW37179   2.704  13.800   0.126
11761SOL    HW137180   2.616  13.816   0.092
11761SOL    HW237181   2.753  13.879   0.102
11762SOL     OW37182   7.210  11.329   6.371
11762SOL    HW137183   7.119  11.302   6.387
11762SOL    HW237184   7.237  11.369   6.453
11763SOL     OW37185   7.282   3.759  11.100
11763SOL    HW137186   7.369   3.719  11.102
11763SOL    HW237187   7.296   3.841  11.051
11764SOL     OW37188   3.460   1.352  11.676
11764SOL    HW137189   3.439   1.360  11.769
11764SOL    HW237190   3.429   1.264  11.653
11765SOL     OW37191   7.445   0.097   1.170
11765SOL    HW137192   7.439   0.169   1.233
11765SOL    HW237193   7.509   0.037   1.207
11766SOL     OW37194   4.790   5.082   1.789
11766SOL    HW137195   4.823   5.074   1.878
11766SOL    HW237196   4.742   5.000   1.773
11767SOL     OW37197   0.320   7.693   3.461
11767SOL    HW137198   0.410   7.660   3.461
11767SOL    HW237199   0.297   7.697   3.554
11768SOL     OW37200  10.093   9.798   6.060
11768SOL    HW137201  10.129   9.710   6.051
11768SOL    HW237202  10.093   9.833   5.971
11769SOL     OW37203   6.026   1.888   1.149
11769SOL    HW137204   5.933   1.871   1.162
11769SOL    HW237205   6.035   1.899   1.054
11770SOL     OW37206  14.504   1.596   3.559
11770SOL    HW137207  14.546   1.630   3.480
11770SOL    HW237208  14.535   1.506   3.566
11771SOL     OW37209  11.818   7.033   9.281
11771SOL    HW137210  11.789   6.951   9.322
11771SOL    HW237211  11.885   7.066   9.341
11772SOL     OW37212   7.468  13.102  11.875
11772SOL    HW137213   7.409  13.028  11.893
11772SOL    HW237214   7.429  13.175  11.922
11773SOL     OW37215  14.106   6.947   5.321
11773SOL    HW137216  14.136   6.984   5.238
11773SOL    HW237217  14.011   6.956   5.319
11774SOL     OW37218   8.853   5.279  10.893
11774SOL    HW137219   8.896   5.266  10.977
11774SOL    HW237220   8.871   5.199  10.844
11775SOL     OW37221   7.467   3.565  13.364
11775SOL    HW137222   7.446   3.608  13.281
11775SOL    HW237223   7.459   3.634  13.429
11776SOL     OW37224   8.353  13.063   5.815
11776SOL    HW137225   8.424  13.067   5.751
11776SOL    HW237226   8.373  13.131   5.878
11777SOL     OW37227  13.167   9.804   1.634
11777SOL    HW137228  13.156   9.736   1.568
11777SOL    HW237229  13.209   9.760   1.708
11778SOL     OW37230   1.787   9.225   1.473
11778SOL    HW137231   1.831   9.286   1.532
11778SOL    HW237232   1.758   9.279   1.400
11779SOL     OW37233   8.090   8.155  13.674
11779SOL    HW137234   8.055   8.086  13.731
11779SOL    HW237235   8.059   8.236  13.713
11780SOL     OW37236  11.400  10.015   3.541
11780SOL    HW137237  11.417   9.930   3.582
11780SOL    HW237238  11.485  10.057   3.536
11781SOL     OW37239  13.911   0.173  12.238
11781SOL    HW137240  13.907   0.088  12.282
11781SOL    HW237241  13.980   0.162  12.172
11782SOL     OW37242   5.621  10.155   0.081
11782SOL    HW137243   5.671  10.146   0.162
11782SOL    HW237244   5.681  10.129   0.011
11783SOL     OW37245  12.597   0.040  14.020
11783SOL    HW137246  12.676   0.081  14.056
11783SOL    HW237247  12.626  14.835  13.989
11784SOL     OW37248   1.034  10.145  10.162
11784SOL    HW137249   0.987  10.229  10.165
11784SOL    HW237250   1.101  10.153  10.230
11785SOL     OW37251  12.245  11.756  12.856
11785SOL    HW137252  12.160  11.712  12.861
11785SOL    HW237253  12.290  11.714  12.783
11786SOL     OW37254   4.954  12.089   1.086
11786SOL    HW137255   4.992  12.011   1.125
11786SOL    HW237256   5.017  12.115   1.018
11787SOL     OW37257   9.568  11.108  11.381
11787SOL    HW137258   9.638  11.131  11.441
11787SOL    HW237259   9.568  11.012  11.379
11788SOL     OW37260   6.033   4.877  14.434
11788SOL    HW137261   5.940   4.860  14.453
11788SOL    HW237262   6.047   4.839  14.347
11789SOL     OW37263  14.536   8.091   7.103
11789SOL    HW137264  14.455   8.139   7.119
11789SOL    HW237265  14.592   8.112   7.178
11790SOL     OW37266   4.084  14.353  10.350
11790SOL    HW137267   3.995  14.351  10.383
11790SOL    HW237268   4.139  14.334  10.426
11791SOL     OW37269   2.685   2.137   9.733
11791SOL    HW137270   2.703   2.051   9.773
11791SOL    HW237271   2.644   2.187   9.804
11792SOL     OW37272   7.936  10.833   6.092
11792SOL    HW137273   8.015  10.887   6.092
11792SOL    HW237274   7.868  10.889   6.056
11793SOL     OW37275   4.888   4.034   5.125
11793SOL    HW137276   4.802   4.007   5.158
11793SOL    HW237277   4.931   3.951   5.102
11794SOL     OW37278   8.423   3.091   7.153
11794SOL    HW137279   8.472   3.119   7.230
11794SOL    HW237280   8.331   3.099   7.180
11795SOL     OW37281   4.163   4.169   8.934
11795SOL    HW137282   4.133   4.140   8.847
11795SOL    HW237283   4.082   4.190   8.981
11796SOL     OW37284   2.155  10.096   1.912
11796SOL    HW137285   2.162  10.144   1.829
11796SOL    HW237286   2.091  10.145   1.963
11797SOL     OW37287   4.077   4.312   5.915
11797SOL    HW137288   4.085   4.408   5.915
11797SOL    HW237289   4.041   4.292   5.828
11798SOL     OW37290   9.119   3.679  10.295
11798SOL    HW137291   9.037   3.675  10.344
11798SOL    HW237292   9.187   3.663  10.360
11799SOL     OW37293   0.662  12.870  12.244
11799SOL    HW137294   0.629  12.816  12.316
11799SOL    HW237295   0.750  12.837  12.227
11800SOL     OW37296  13.664   6.459   9.515
11800SOL    HW137297  13.747   6.504   9.529
11800SOL    HW237298  13.601   6.530   9.498
11801SOL     OW37299  13.298   4.419   1.351
11801SOL    HW137300  13.256   4.336   1.327
11801SOL    HW237301  13.337   4.451   1.269
11802SOL     OW37302  14.551   9.263   2.289
11802SOL    HW137303  14.469   9.257   2.338
11802SOL    HW237304  14.606   9.323   2.339
11803SOL     OW37305   0.979   9.642   1.170
11803SOL    HW137306   0.994   9.621   1.078
11803SOL    HW237307   1.065   9.633   1.211
11804SOL     OW37308   7.480   7.868   0.656
11804SOL    HW137309   7.538   7.931   0.699
11804SOL    HW237310   7.515   7.782   0.681
11805SOL     OW37311  10.233  13.126   9.355
11805SOL    HW137312  10.243  13.196   9.420
11805SOL    HW237313  10.190  13.055   9.403
11806SOL     OW37314  12.680   7.805  12.618
11806SOL    HW137315  12.737   7.760  12.679
11806SOL    HW237316  12.733   7.817  12.539
11807SOL     OW37317   0.749  14.486   7.322
11807SOL    HW137318   0.734  14.494   7.416
11807SOL    HW237319   0.751  14.576   7.290
11808SOL     OW37320  11.034   6.212   1.965
11808SOL    HW137321  11.114   6.259   1.989
11808SOL    HW237322  11.041   6.199   1.870
11809SOL     OW37323   5.782   4.450   3.159
11809SOL    HW137324   5.873   4.475   3.144
11809SOL    HW237325   5.782   4.406   3.244
11810SOL     OW37326   4.054  11.432   7.312
11810SOL    HW137327   4.132  11.419   7.365
11810SOL    HW237328   3.982  11.441   7.375
11811SOL     OW37329   5.148  10.648   3.511
11811SOL    HW137330   5.146  10.557   3.483
11811SOL    HW237331   5.063  10.661   3.555
11812SOL     OW37332   1.305   6.077   4.541
11812SOL    HW137333   1.301   6.145   4.609
11812SOL    HW237334   1.396   6.080   4.510
11813SOL     OW37335   4.998   8.032  10.460
11813SOL    HW137336   4.971   8.090  10.389
11813SOL    HW237337   5.054   7.967  10.418
11814SOL     OW37338  11.878  10.016  13.319
11814SOL    HW137339  11.909  10.031  13.409
11814SOL    HW237340  11.799  10.070  13.312
11815SOL     OW37341  12.057   4.961   7.224
11815SOL    HW137342  12.119   4.941   7.294
11815SOL    HW237343  11.971   4.946   7.263
11816SOL     OW37344  14.575   0.639   2.074
11816SOL    HW137345  14.610   0.570   2.017
11816SOL    HW237346  14.621   0.718   2.045
11817SOL     OW37347  14.558  11.100  12.448
11817SOL    HW137348  14.571  11.053  12.366
11817SOL    HW237349  14.503  11.175  12.425
11818SOL     OW37350   0.265   6.590   8.702
11818SOL    HW137351   0.289   6.603   8.611
11818SOL    HW237352   0.204   6.516   8.701
11819SOL     OW37353   7.704   4.516   8.753
11819SOL    HW137354   7.675   4.440   8.704
11819SOL    HW237355   7.626   4.573   8.758
11820SOL     OW37356  12.317   7.802  13.762
11820SOL    HW137357  12.341   7.823  13.672
11820SOL    HW237358  12.300   7.707  13.761
11821SOL     OW37359   1.705   0.682   8.790
11821SOL    HW137360   1.658   0.611   8.746
11821SOL    HW237361   1.649   0.758   8.778
11822SOL     OW37362   1.357  10.644   1.254
11822SOL    HW137363   1.294  10.605   1.193
11822SOL    HW237364   1.439  10.648   1.205
11823SOL     OW37365   1.919  14.097   7.225
11823SOL    HW137366   1.841  14.067   7.272
11823SOL    HW237367   1.940  14.181   7.264
11824SOL     OW37368   6.820   0.101   1.546
11824SOL    HW137369   6.824   0.131   1.636
11824SOL    HW237370   6.740   0.048   1.541
11825SOL     OW37371   1.129   5.409  11.482
11825SOL    HW137372   1.089   5.471  11.543
11825SOL    HW237373   1.126   5.325  11.528
11826SOL     OW37374   5.312   1.357   5.932
11826SOL    HW137375   5.407   1.363   5.940
11826SOL    HW237376   5.296   1.352   5.838
11827SOL     OW37377   3.167  13.776   2.470
11827SOL    HW137378   3.200  13.793   2.382
11827SOL    HW237379   3.085  13.824   2.474
11828SOL     OW37380   0.350   1.601   7.355
11828SOL    HW137381   0.443   1.623   7.350
11828SOL    HW237382   0.318   1.612   7.265
11829SOL     OW37383  10.069  11.959   4.800
11829SOL    HW137384  10.084  11.950   4.707
11829SOL    HW237385  10.141  11.913   4.842
11830SOL     OW37386   9.620   5.707   0.787
11830SOL    HW137387   9.579   5.748   0.711
11830SOL    HW237388   9.579   5.620   0.793
11831SOL     OW37389   1.607   8.329  14.522
11831SOL    HW137390   1.673   8.398  14.525
11831SOL    HW237391   1.651   8.252  14.558
11832SOL     OW37392   9.021   4.610   6.869
11832SOL    HW137393   8.963   4.673   6.912
11832SOL    HW237394   9.080   4.581   6.938
11833SOL     OW37395   1.426   5.526   8.469
11833SOL    HW137396   1.501   5.562   8.421
11833SOL    HW237397   1.439   5.554   8.559
11834SOL     OW37398   0.893  13.133   1.823
11834SOL    HW137399   0.898  13.228   1.821
11834SOL    HW237400   0.800  13.114   1.831
11835SOL     OW37401   0.474  11.327   6.028
11835SOL    HW137402   0.438  11.286   6.107
11835SOL    HW237403   0.564  11.293   6.022
11836SOL     OW37404   0.264  12.934   9.716
11836SOL    HW137405   0.320  12.869   9.759
11836SOL    HW237406   0.190  12.884   9.682
11837SOL     OW37407   7.334   1.762  12.418
11837SOL    HW137408   7.389   1.711  12.478
11837SOL    HW237409   7.395   1.820  12.373
11838SOL     OW37410  11.634  12.981   7.402
11838SOL    HW137411  11.676  12.972   7.317
11838SOL    HW237412  11.544  13.008   7.382
11839SOL     OW37413   1.653   1.935   9.035
11839SOL    HW137414   1.588   1.923   9.103
11839SOL    HW237415   1.701   1.852   9.032
11840SOL     OW37416   3.692   3.846  12.489
11840SOL    HW137417   3.609   3.802  12.470
11840SOL    HW237418   3.671   3.907  12.559
11841SOL     OW37419   3.342   6.073   9.438
11841SOL    HW137420   3.388   6.103   9.360
11841SOL    HW237421   3.350   5.977   9.435
11842SOL     OW37422   5.157   7.451  10.777
11842SOL    HW137423   5.130   7.532  10.820
11842SOL    HW237424   5.228   7.477  10.719
11843SOL     OW37425  14.378  10.970   4.650
11843SOL    HW137426  14.332  10.886   4.656
11843SOL    HW237427  14.460  10.956   4.698
11844SOL     OW37428  10.020   4.778   0.523
11844SOL    HW137429   9.931   4.764   0.555
11844SOL    HW237430  10.073   4.715   0.572
11845SOL     OW37431   4.567  14.293  14.614
11845SOL    HW137432   4.606  14.228  14.673
11845SOL    HW237433   4.472  14.281  14.624
11846SOL     OW37434   5.678   0.208   4.718
11846SOL    HW137435   5.693   0.129   4.666
11846SOL    HW237436   5.685   0.280   4.655
11847SOL     OW37437   8.147   3.148  11.925
11847SOL    HW137438   8.123   3.154  11.832
11847SOL    HW237439   8.133   3.237  11.958
11848SOL     OW37440   1.635   1.702   4.925
11848SOL    HW137441   1.579   1.729   4.852
11848SOL    HW237442   1.646   1.781   4.978
11849SOL     OW37443   6.768   0.767  13.701
11849SOL    HW137444   6.729   0.769  13.788
11849SOL    HW237445   6.833   0.696  13.705
11850SOL     OW37446  12.238  11.765   2.591
11850SOL    HW137447  12.239  11.835   2.525
11850SOL    HW237448  12.321  11.774   2.637
11851SOL     OW37449   6.935   9.094  14.798
11851SOL    HW137450   6.891   9.179  14.794
11851SOL    HW237451   6.991   9.100  14.876
11852SOL     OW37452  12.612  13.109   5.373
11852SOL    HW137453  12.598  13.204   5.375
11852SOL    HW237454  12.549  13.077   5.308
11853SOL     OW37455   2.295   1.604   1.867
11853SOL    HW137456   2.304   1.661   1.791
11853SOL    HW237457   2.209   1.626   1.903
11854SOL     OW37458   3.134   3.166  14.369
11854SOL    HW137459   3.133   3.148  14.275
11854SOL    HW237460   3.077   3.099  14.406
11855SOL     OW37461   0.402  10.842   0.714
11855SOL    HW137462   0.370  10.801   0.793
11855SOL    HW237463   0.424  10.932   0.740
11856SOL     OW37464  13.935   4.711   8.598
11856SOL    HW137465  13.845   4.724   8.566
11856SOL    HW237466  13.935   4.622   8.633
11857SOL     OW37467   1.395   4.464   1.601
11857SOL    HW137468   1.409   4.540   1.544
11857SOL    HW237469   1.348   4.401   1.547
11858SOL     OW37470  14.738   8.959   0.361
11858SOL    HW137471  14.830   8.976   0.384
11858SOL    HW237472  14.688   8.998   0.433
11859SOL     OW37473   5.859   6.843   7.656
11859SOL    HW137474   5.927   6.782   7.628
11859SOL    HW237475   5.873   6.853   7.750
11860SOL     OW37476  11.032   9.896   6.708
11860SOL    HW137477  11.114   9.912   6.755
11860SOL    HW237478  10.976   9.854   6.773
11861SOL     OW37479   0.142   7.697  10.858
11861SOL    HW137480   0.214   7.759  10.842
11861SOL    HW237481   0.085   7.743  10.920
11862SOL     OW37482  11.458   0.693   4.166
11862SOL    HW137483  11.469   0.629   4.096
11862SOL    HW237484  11.365   0.686   4.190
11863SOL     OW37485   7.156   5.378  13.970
11863SOL    HW137486   7.091   5.430  14.018
11863SOL    HW237487   7.224   5.360  14.035
11864SOL     OW37488  13.866  13.051   9.833
11864SOL    HW137489  13.775  13.068   9.809
11864SOL    HW237490  13.874  12.955   9.832
11865SOL     OW37491  10.662  14.820  10.320
11865SOL    HW137492  10.715   0.015  10.347
11865SOL    HW237493  10.608  14.853  10.248
11866SOL     OW37494   7.931   3.501   1.375
11866SOL    HW137495   7.917   3.471   1.285
11866SOL    HW237496   8.021   3.533   1.376
11867SOL     OW37497   0.374   5.130  14.016
11867SOL    HW137498   0.332   5.202  14.062
11867SOL    HW237499   0.444   5.172  13.966
11868SOL     OW37500   5.213   8.563   7.499
11868SOL    HW137501   5.214   8.598   7.588
11868SOL    HW237502   5.301   8.526   7.487
11869SOL     OW37503   9.232   1.469   3.160
11869SOL    HW137504   9.217   1.483   3.253
11869SOL    HW237505   9.228   1.374   3.148
11870SOL     OW37506   0.799   1.970   0.147
11870SOL    HW137507   0.778   2.035   0.079
11870SOL    HW237508   0.895   1.970   0.150
11871SOL     OW37509  14.057   7.167   6.030
11871SOL    HW137510  14.013   7.130   5.953
11871SOL    HW237511  14.003   7.242   6.054
11872SOL     OW37512   6.527   4.797   1.516
11872SOL    HW137513   6.436   4.776   1.537
11872SOL    HW237514   6.565   4.825   1.600
11873SOL     OW37515  11.507   6.393   9.698
11873SOL    HW137516  11.455   6.334   9.643
11873SOL    HW237517  11.474   6.378   9.787
11874SOL     OW37518   9.735  11.902  14.789
11874SOL    HW137519   9.741  11.967  14.720
11874SOL    HW237520   9.716  11.820  14.744
11875SOL     OW37521  10.974   2.422  12.584
11875SOL    HW137522  11.066   2.410  12.560
11875SOL    HW237523  10.936   2.469  12.510
11876SOL     OW37524   1.854   0.814   8.603
11876SOL    HW137525   1.821   0.900   8.628
11876SOL    HW237526   1.804   0.753   8.658
11877SOL     OW37527   0.881   9.727   3.912
11877SOL    HW137528   0.893   9.654   3.973
11877SOL    HW237529   0.912   9.692   3.828
11878SOL     OW37530   4.081   4.893   2.296
11878SOL    HW137531   4.071   4.940   2.213
11878SOL    HW237532   4.175   4.898   2.315
11879SOL     OW37533   7.413  10.418   0.161
11879SOL    HW137534   7.505  10.410   0.188
11879SOL    HW237535   7.417  10.445   0.069
11880SOL     OW37536   3.993   1.356   7.697
11880SOL    HW137537   3.910   1.398   7.675
11880SOL    HW237538   4.047   1.369   7.618
11881SOL     OW37539   5.683   2.092   5.355
11881SOL    HW137540   5.618   2.151   5.393
11881SOL    HW237541   5.723   2.143   5.284
11882SOL     OW37542   9.890   7.079   5.633
11882SOL    HW137543   9.862   7.157   5.585
11882SOL    HW237544   9.966   7.047   5.584
11883SOL     OW37545  12.907  10.487  13.144
11883SOL    HW137546  12.825  10.517  13.105
11883SOL    HW237547  12.910  10.530  13.230
11884SOL     OW37548   7.709  10.538  12.061
11884SOL    HW137549   7.663  10.589  11.995
11884SOL    HW237550   7.797  10.525  12.025
11885SOL     OW37551  14.189   4.638   7.805
11885SOL    HW137552  14.111   4.585   7.789
11885SOL    HW237553  14.177   4.672   7.894
11886SOL     OW37554   9.082   2.906   9.941
11886SOL    HW137555   9.055   2.826   9.985
11886SOL    HW237556   9.174   2.916   9.963
11887SOL     OW37557   1.972   7.287   4.490
11887SOL    HW137558   1.928   7.363   4.454
11887SOL    HW237559   1.953   7.290   4.584
11888SOL     OW37560   8.549   2.644  11.081
11888SOL    HW137561   8.587   2.729  11.057
11888SOL    HW237562   8.576   2.631  11.172
11889SOL     OW37563   7.688  13.096   5.363
11889SOL    HW137564   7.760  13.071   5.305
11889SOL    HW237565   7.617  13.122   5.305
11890SOL     OW37566   1.009  10.362  12.159
11890SOL    HW137567   0.931  10.369  12.105
11890SOL    HW237568   0.977  10.342  12.246
11891SOL     OW37569   1.152   6.719   6.270
11891SOL    HW137570   1.072   6.689   6.313
11891SOL    HW237571   1.218   6.718   6.339
11892SOL     OW37572  13.362   6.822  13.339
11892SOL    HW137573  13.303   6.757  13.377
11892SOL    HW237574  13.414   6.773  13.275
11893SOL     OW37575  12.266  11.412   0.453
11893SOL    HW137576  12.211  11.490   0.458
11893SOL    HW237577  12.244  11.362   0.531
11894SOL     OW37578  11.696   0.845   2.364
11894SOL    HW137579  11.613   0.872   2.325
11894SOL    HW237580  11.685   0.751   2.379
11895SOL     OW37581   7.010  13.660   7.892
11895SOL    HW137582   7.101  13.689   7.894
11895SOL    HW237583   6.959  13.740   7.909
11896SOL     OW37584  14.096  11.893   4.703
11896SOL    HW137585  14.013  11.849   4.690
11896SOL    HW237586  14.074  11.986   4.711
11897SOL     OW37587   9.087   9.657   0.551
11897SOL    HW137588   9.035   9.633   0.628
11897SOL    HW237589   9.037   9.624   0.477
11898SOL     OW37590  14.756   2.080  12.872
11898SOL    HW137591  14.767   2.016  12.801
11898SOL    HW237592  14.703   2.149  12.833
11899SOL     OW37593   4.175   7.445  13.516
11899SOL    HW137594   4.208   7.516  13.460
11899SOL    HW237595   4.167   7.485  13.603
11900SOL     OW37596   4.000   1.882  12.012
11900SOL    HW137597   4.046   1.879  12.096
11900SOL    HW237598   4.039   1.811  11.961
11901SOL     OW37599   4.973   7.597   5.606
11901SOL    HW137600   4.940   7.525   5.553
11901SOL    HW237601   5.057   7.567   5.639
11902SOL     OW37602   6.645   2.996   5.506
11902SOL    HW137603   6.589   2.919   5.517
11902SOL    HW237604   6.713   2.987   5.572
11903SOL     OW37605   2.045  13.542   0.384
11903SOL    HW137606   2.130  13.584   0.397
11903SOL    HW237607   2.066  13.452   0.359
11904SOL     OW37608  14.043   6.217   3.601
11904SOL    HW137609  14.129   6.201   3.562
11904SOL    HW237610  14.008   6.293   3.552
11905SOL     OW37611  13.384   8.918   3.042
11905SOL    HW137612  13.320   8.856   3.006
11905SOL    HW237613  13.464   8.866   3.051
11906SOL     OW37614   8.602   2.182  10.861
11906SOL    HW137615   8.604   2.245  10.933
11906SOL    HW237616   8.551   2.225  10.792
11907SOL     OW37617   2.645  13.687   9.658
11907SOL    HW137618   2.718  13.748   9.665
11907SOL    HW237619   2.591  13.706   9.735
11908SOL     OW37620  10.007   2.806  11.535
11908SOL    HW137621   9.942   2.754  11.582
11908SOL    HW237622  10.078   2.745  11.515
11909SOL     OW37623   9.955   8.945   5.176
11909SOL    HW137624   9.944   9.035   5.206
11909SOL    HW237625  10.016   8.906   5.239
11910SOL     OW37626  12.546   2.884  11.673
11910SOL    HW137627  12.585   2.971  11.668
11910SOL    HW237628  12.556   2.857  11.764
11911SOL     OW37629   6.368  12.059   0.100
11911SOL    HW137630   6.435  12.083   0.036
11911SOL    HW237631   6.351  12.140   0.149
11912SOL     OW37632  10.220   5.670   2.926
11912SOL    HW137633  10.300   5.627   2.959
11912SOL    HW237634  10.200   5.623   2.845
11913SOL     OW37635   8.299  12.840   0.265
11913SOL    HW137636   8.269  12.753   0.292
11913SOL    HW237637   8.221  12.895   0.270
11914SOL     OW37638  10.953  11.772  14.627
11914SOL    HW137639  10.912  11.741  14.546
11914SOL    HW237640  10.975  11.863  14.609
11915SOL     OW37641  11.819  12.100   8.162
11915SOL    HW137642  11.866  12.182   8.175
11915SOL    HW237643  11.794  12.099   8.070
11916SOL     OW37644   0.294  11.031   3.523
11916SOL    HW137645   0.278  11.102   3.460
11916SOL    HW237646   0.207  10.999   3.545
11917SOL     OW37647   1.171  11.079  12.269
11917SOL    HW137648   1.259  11.115  12.257
11917SOL    HW237649   1.115  11.132  12.212
11918SOL     OW37650   5.924   9.253   7.028
11918SOL    HW137651   5.905   9.295   6.944
11918SOL    HW237652   5.913   9.160   7.011
11919SOL     OW37653   7.171  11.633   4.869
11919SOL    HW137654   7.244  11.690   4.894
11919SOL    HW237655   7.096  11.692   4.862
11920SOL     OW37656   8.705  12.827   8.718
11920SOL    HW137657   8.665  12.821   8.631
11920SOL    HW237658   8.671  12.909   8.754
11921SOL     OW37659   0.890  12.810  12.708
11921SOL    HW137660   0.909  12.901  12.688
11921SOL    HW237661   0.801  12.810  12.743
11922SOL     OW37662   8.546  10.954   5.715
11922SOL    HW137663   8.529  11.041   5.751
11922SOL    HW237664   8.551  10.968   5.620
11923SOL     OW37665   2.914  11.595   4.939
11923SOL    HW137666   2.964  11.635   5.010
11923SOL    HW237667   2.874  11.517   4.978
11924SOL     OW37668  11.412   7.211   7.291
11924SOL    HW137669  11.451   7.284   7.242
11924SOL    HW237670  11.457   7.212   7.375
11925SOL     OW37671   9.583  13.270   1.361
11925SOL    HW137672   9.490  13.296   1.362
11925SOL    HW237673   9.626  13.335   1.416
11926SOL     OW37674  10.492   3.620   3.417
11926SOL    HW137675  10.470   3.579   3.334
11926SOL    HW237676  10.492   3.714   3.399
11927SOL     OW37677   3.889   6.586  12.538
11927SOL    HW137678   3.878   6.503  12.492
11927SOL    HW237679   3.984   6.600  12.541
11928SOL     OW37680   4.197  11.335   0.934
11928SOL    HW137681   4.135  11.408   0.934
11928SOL    HW237682   4.162  11.274   0.869
11929SOL     OW37683   2.934  10.377  12.701
11929SOL    HW137684   2.975  10.294  12.678
11929SOL    HW237685   2.848  10.373  12.660
11930SOL     OW37686   4.670  14.114  13.268
11930SOL    HW137687   4.703  14.076  13.349
11930SOL    HW237688   4.721  14.195  13.257
11931SOL     OW37689   7.227  10.096  11.851
11931SOL    HW137690   7.237  10.156  11.777
11931SOL    HW237691   7.169  10.027  11.818
11932SOL     OW37692   9.465   0.362   0.086
11932SOL    HW137693   9.476   0.457   0.077
11932SOL    HW237694   9.373   0.347   0.062
11933SOL     OW37695   6.302   4.882  11.861
11933SOL    HW137696   6.251   4.833  11.925
11933SOL    HW237697   6.375   4.824  11.838
11934SOL     OW37698   1.202  11.096  13.664
11934SOL    HW137699   1.226  11.091  13.572
11934SOL    HW237700   1.280  11.064  13.711
11935SOL     OW37701   0.691  13.931  12.436
11935SOL    HW137702   0.684  13.857  12.375
11935SOL    HW237703   0.711  14.006  12.381
11936SOL     OW37704   3.162  11.715   3.122
11936SOL    HW137705   3.104  11.757   3.185
11936SOL    HW237706   3.146  11.621   3.133
11937SOL     OW37707   2.593  12.533   5.914
11937SOL    HW137708   2.683  12.506   5.894
11937SOL    HW237709   2.539  12.464   5.877
11938SOL     OW37710  10.789   0.579  11.955
11938SOL    HW137711  10.737   0.499  11.951
11938SOL    HW237712  10.732   0.643  11.999
11939SOL     OW37713   2.728   0.769  12.034
11939SOL    HW137714   2.811   0.815  12.017
11939SOL    HW237715   2.743   0.724  12.116
11940SOL     OW37716  11.980   3.425  11.899
11940SOL    HW137717  11.934   3.350  11.861
11940SOL    HW237718  11.915   3.467  11.955
11941SOL     OW37719   3.768  11.863   9.646
11941SOL    HW137720   3.680  11.828   9.632
11941SOL    HW237721   3.821  11.786   9.667
11942SOL     OW37722  11.962   1.571   4.820
11942SOL    HW137723  11.966   1.664   4.841
11942SOL    HW237724  11.940   1.529   4.903
11943SOL     OW37725  10.061  11.166   7.955
11943SOL    HW137726  10.098  11.098   7.900
11943SOL    HW237727  10.087  11.248   7.912
11944SOL     OW37728   1.617   8.354   0.982
11944SOL    HW137729   1.674   8.378   0.908
11944SOL    HW237730   1.599   8.437   1.026
11945SOL     OW37731   4.121  11.085   4.298
11945SOL    HW137732   4.209  11.102   4.263
11945SOL    HW237733   4.104  11.158   4.357
11946SOL     OW37734  10.535   9.560   3.045
11946SOL    HW137735  10.569   9.649   3.035
11946SOL    HW237736  10.613   9.505   3.059
11947SOL     OW37737   7.006   9.173   1.377
11947SOL    HW137738   7.002   9.121   1.457
11947SOL    HW237739   7.080   9.232   1.391
11948SOL     OW37740  13.405  11.580  14.212
11948SOL    HW137741  13.444  11.596  14.126
11948SOL    HW237742  13.311  11.576  14.195
11949SOL     OW37743  14.528   4.641  12.607
11949SOL    HW137744  14.568   4.554  12.601
11949SOL    HW237745  14.593   4.694  12.653
11950SOL     OW37746   6.969   8.934   3.447
11950SOL    HW137747   6.925   9.011   3.482
11950SOL    HW237748   6.944   8.863   3.506
11951SOL     OW37749   7.468   9.550   7.786
11951SOL    HW137750   7.491   9.626   7.733
11951SOL    HW237751   7.444   9.585   7.871
11952SOL     OW37752   3.159   2.106  11.352
11952SOL    HW137753   3.217   2.182  11.356
11952SOL    HW237754   3.082   2.132  11.402
11953SOL     OW37755   8.086   6.042   8.507
11953SOL    HW137756   8.015   6.063   8.446
11953SOL    HW237757   8.145   6.117   8.499
11954SOL     OW37758  10.640   2.530  10.000
11954SOL    HW137759  10.730   2.561  10.001
11954SOL    HW237760  10.600   2.574   9.926
11955SOL     OW37761   0.271  10.370  11.029
11955SOL    HW137762   0.225  10.360  11.113
11955SOL    HW237763   0.205  10.348  10.963
11956SOL     OW37764   0.428  10.450   8.573
11956SOL    HW137765   0.434  10.509   8.648
11956SOL    HW237766   0.453  10.504   8.498
11957SOL     OW37767   9.983   9.709   9.241
11957SOL    HW137768  10.077   9.725   9.239
11957SOL    HW237769   9.967   9.648   9.169
11958SOL     OW37770   7.535   4.924   2.809
11958SOL    HW137771   7.616   4.948   2.764
11958SOL    HW237772   7.493   5.007   2.832
11959SOL     OW37773  14.655   2.167  13.363
11959SOL    HW137774  14.671   2.235  13.297
11959SOL    HW237775  14.680   2.208  13.445
11960SOL     OW37776   3.151  11.023   8.256
11960SOL    HW137777   3.219  11.026   8.324
11960SOL    HW237778   3.200  11.016   8.174
11961SOL     OW37779  12.372  13.572  13.800
11961SOL    HW137780  12.347  13.661  13.824
11961SOL    HW237781  12.366  13.570  13.704
11962SOL     OW37782   7.079  11.638  11.772
11962SOL    HW137783   7.119  11.618  11.688
11962SOL    HW237784   7.045  11.727  11.763
11963SOL     OW37785   2.241   7.494   0.584
11963SOL    HW137786   2.173   7.561   0.579
11963SOL    HW237787   2.223   7.435   0.510
11964SOL     OW37788  10.264  11.660  13.704
11964SOL    HW137789  10.294  11.607  13.777
11964SOL    HW237790  10.292  11.749  13.726
11965SOL     OW37791   8.810   0.548   2.387
11965SOL    HW137792   8.753   0.624   2.373
11965SOL    HW237793   8.860   0.539   2.306
11966SOL     OW37794  12.314   0.611   2.270
11966SOL    HW137795  12.337   0.660   2.349
11966SOL    HW237796  12.398   0.589   2.230
11967SOL     OW37797  14.113   8.025   4.240
11967SOL    HW137798  14.136   7.993   4.153
11967SOL    HW237799  14.108   7.946   4.294
11968SOL     OW37800   5.498   1.582   9.598
11968SOL    HW137801   5.525   1.588   9.506
11968SOL    HW237802   5.574   1.610   9.648
11969SOL     OW37803  10.502   9.152   6.845
11969SOL    HW137804  10.523   9.091   6.774
11969SOL    HW237805  10.459   9.098   6.911
11970SOL     OW37806  11.410   8.915   2.849
11970SOL    HW137807  11.431   8.905   2.756
11970SOL    HW237808  11.456   8.995   2.876
11971SOL     OW37809   0.515  11.936  12.116
11971SOL    HW137810   0.536  11.926  12.209
11971SOL    HW237811   0.579  11.999  12.084
11972SOL     OW37812   6.098  10.098   4.586
11972SOL    HW137813   6.054  10.039   4.647
11972SOL    HW237814   6.190  10.071   4.589
11973SOL     OW37815   5.451  13.495   2.863
11973SOL    HW137816   5.526  13.455   2.820
11973SOL    HW237817   5.434  13.439   2.939
11974SOL     OW37818   9.719  13.176   4.143
11974SOL    HW137819   9.671  13.259   4.150
11974SOL    HW237820   9.674  13.117   4.203
11975SOL     OW37821   6.381  12.748   8.150
11975SOL    HW137822   6.470  12.777   8.130
11975SOL    HW237823   6.393  12.666   8.198
11976SOL     OW37824   7.246   3.707  10.154
11976SOL    HW137825   7.249   3.677  10.063
11976SOL    HW237826   7.338   3.713  10.180
11977SOL     OW37827   0.149  13.572  12.780
11977SOL    HW137828   0.095  13.536  12.710
11977SOL    HW237829   0.214  13.626  12.735
11978SOL     OW37830  10.404  12.505  13.972
11978SOL    HW137831  10.499  12.512  13.971
11978SOL    HW237832  10.382  12.466  13.888
11979SOL     OW37833  12.851  12.466  10.005
11979SOL    HW137834  12.864  12.400  10.073
11979SOL    HW237835  12.779  12.520  10.038
11980SOL     OW37836   1.537  14.738   6.460
11980SOL    HW137837   1.571  14.699   6.380
11980SOL    HW237838   1.585  14.695   6.530
11981SOL     OW37839   5.311  14.289   2.269
11981SOL    HW137840   5.298  14.290   2.174
11981SOL    HW237841   5.370  14.363   2.286
11982SOL     OW37842   1.775   3.771   7.585
11982SOL    HW137843   1.727   3.829   7.526
11982SOL    HW237844   1.824   3.713   7.527
11983SOL     OW37845  11.424   6.989   8.852
11983SOL    HW137846  11.404   6.972   8.944
11983SOL    HW237847  11.492   7.056   8.855
11984SOL     OW37848   3.133   8.972   3.987
11984SOL    HW137849   3.141   8.917   3.909
11984SOL    HW237850   3.208   9.031   3.981
11985SOL     OW37851   4.643   5.313  10.484
11985SOL    HW137852   4.641   5.218  10.495
11985SOL    HW237853   4.602   5.347  10.564
11986SOL     OW37854   1.965   3.202   9.213
11986SOL    HW137855   2.027   3.140   9.173
11986SOL    HW237856   1.994   3.288   9.182
11987SOL     OW37857   9.570  13.936  12.496
11987SOL    HW137858   9.576  14.031  12.485
11987SOL    HW237859   9.480  13.920  12.522
11988SOL     OW37860  10.298  13.750   2.991
11988SOL    HW137861  10.283  13.656   2.977
11988SOL    HW237862  10.213  13.790   2.973
11989SOL     OW37863   4.779  11.200   0.320
11989SOL    HW137864   4.805  11.284   0.283
11989SOL    HW237865   4.716  11.222   0.388
11990SOL     OW37866  11.227   3.455   0.631
11990SOL    HW137867  11.227   3.451   0.726
11990SOL    HW237868  11.183   3.374   0.603
11991SOL     OW37869   9.399   6.935   9.665
11991SOL    HW137870   9.442   6.994   9.727
11991SOL    HW237871   9.371   6.991   9.593
11992SOL     OW37872   0.977  13.746  13.887
11992SOL    HW137873   0.888  13.716  13.870
11992SOL    HW237874   0.983  13.830  13.840
11993SOL     OW37875   6.335   9.471   0.354
11993SOL    HW137876   6.404   9.521   0.397
11993SOL    HW237877   6.331   9.508   0.266
11994SOL     OW37878  11.078   2.565   5.790
11994SOL    HW137879  10.991   2.566   5.831
11994SOL    HW237880  11.060   2.563   5.696
11995SOL     OW37881   4.692  10.290   4.374
11995SOL    HW137882   4.751  10.299   4.448
11995SOL    HW237883   4.723  10.354   4.310
11996SOL     OW37884   0.538  14.649  12.101
11996SOL    HW137885   0.510  14.630  12.012
11996SOL    HW237886   0.623  14.604  12.109
11997SOL     OW37887   0.790   7.143   5.431
11997SOL    HW137888   0.703   7.181   5.421
11997SOL    HW237889   0.837   7.204   5.488
11998SOL     OW37890   9.165  10.449   6.831
11998SOL    HW137891   9.255  10.480   6.817
11998SOL    HW237892   9.154  10.451   6.926
11999SOL     OW37893   7.347  12.801  10.875
11999SOL    HW137894   7.276  12.736  10.877
11999SOL    HW237895   7.423  12.752  10.842
12000SOL     OW37896   3.569  13.767   2.974
12000SOL    HW137897   3.643  13.795   3.028
12000SOL    HW237898   3.605  13.762   2.885
12001SOL     OW37899   2.076   6.108  10.343
12001SOL    HW137900   1.990   6.085  10.378
12001SOL    HW237901   2.132   6.034  10.365
12002SOL     OW37902   9.410  12.237   6.321
12002SOL    HW137903   9.393  12.168   6.257
12002SOL    HW237904   9.347  12.305   6.300
12003SOL     OW37905   9.765   4.696   6.999
12003SOL    HW137906   9.816   4.632   7.048
12003SOL    HW237907   9.776   4.670   6.907
12004SOL     OW37908   5.646  13.927  12.309
12004SOL    HW137909   5.735  13.959  12.297
12004SOL    HW237910   5.592  14.005  12.306
12005SOL     OW37911   0.265   0.396   7.972
12005SOL    HW137912   0.350   0.435   7.993
12005SOL    HW237913   0.215   0.402   8.053
12006SOL     OW37914   4.312   2.139  13.454
12006SOL    HW137915   4.339   2.144  13.362
12006SOL    HW237916   4.219   2.159  13.454
12007SOL     OW37917   7.248  14.106   2.010
12007SOL    HW137918   7.303  14.059   1.948
12007SOL    HW237919   7.173  14.135   1.959
12008SOL     OW37920   7.162   1.627   5.362
12008SOL    HW137921   7.092   1.669   5.413
12008SOL    HW237922   7.169   1.539   5.399
12009SOL     OW37923  13.112   2.445   6.349
12009SOL    HW137924  13.102   2.455   6.444
12009SOL    HW237925  13.028   2.474   6.313
12010SOL     OW37926  14.815   1.029   6.845
12010SOL    HW137927  14.787   0.996   6.759
12010SOL    HW237928  14.843   0.951   6.893
12011SOL     OW37929  11.489   1.404   6.857
12011SOL    HW137930  11.408   1.353   6.869
12011SOL    HW237931  11.518   1.423   6.945
12012SOL     OW37932   7.941   1.178  11.850
12012SOL    HW137933   7.895   1.171  11.933
12012SOL    HW237934   8.000   1.253  11.861
12013SOL     OW37935   2.499   9.024  11.693
12013SOL    HW137936   2.434   8.999  11.628
12013SOL    HW237937   2.504   8.949  11.753
12014SOL     OW37938  11.515  12.278  10.531
12014SOL    HW137939  11.462  12.291  10.610
12014SOL    HW237940  11.577  12.351  10.531
12015SOL     OW37941  14.302   7.407   0.040
12015SOL    HW137942  14.321   7.331  14.866
12015SOL    HW237943  14.224   7.446   0.000
12016SOL     OW37944   6.871   7.989  10.883
12016SOL    HW137945   6.812   7.967  10.955
12016SOL    HW237946   6.876   8.085  10.884
12017SOL     OW37947   1.528   0.108   4.685
12017SOL    HW137948   1.552   0.064   4.766
12017SOL    HW237949   1.436   0.084   4.670
12018SOL     OW37950  13.243   6.933   3.555
12018SOL    HW137951  13.331   6.904   3.580
12018SOL    HW237952  13.201   6.956   3.638
12019SOL     OW37953  10.961  10.174   5.262
12019SOL    HW137954  11.045  10.128   5.261
12019SOL    HW237955  10.915  10.139   5.185
12020SOL     OW37956  13.765  10.443   9.706
12020SOL    HW137957  13.707  10.478   9.638
12020SOL    HW237958  13.816  10.518   9.735
12021SOL     OW37959   9.106   0.647   0.069
12021SOL    HW137960   9.134   0.586   0.002
12021SOL    HW237961   9.025   0.609   0.104
12022SOL     OW37962   6.546   7.606  13.725
12022SOL    HW137963   6.591   7.683  13.761
12022SOL    HW237964   6.500   7.639  13.648
12023SOL     OW37965  12.021  11.866   4.000
12023SOL    HW137966  12.066  11.874   3.915
12023SOL    HW237967  12.089  11.836   4.060
12024SOL     OW37968   7.615   7.312   0.221
12024SOL    HW137969   7.675   7.261   0.167
12024SOL    HW237970   7.606   7.396   0.175
12025SOL     OW37971   7.903  11.367   3.389
12025SOL    HW137972   7.902  11.435   3.323
12025SOL    HW237973   7.830  11.309   3.366
12026SOL     OW37974   1.554  11.240  11.051
12026SOL    HW137975   1.480  11.186  11.021
12026SOL    HW237976   1.530  11.329  11.026
12027SOL     OW37977  14.138  11.564  11.598
12027SOL    HW137978  14.053  11.552  11.641
12027SOL    HW237979  14.191  11.608  11.664
12028SOL     OW37980   7.574   0.055  11.650
12028SOL    HW137981   7.504  14.870  11.643
12028SOL    HW237982   7.535   0.136  11.617
12029SOL     OW37983  12.805   2.645  10.438
12029SOL    HW137984  12.829   2.720  10.492
12029SOL    HW237985  12.726   2.609  10.479
12030SOL     OW37986   7.514   3.089   4.668
12030SOL    HW137987   7.540   3.173   4.632
12030SOL    HW237988   7.421   3.100   4.689
12031SOL     OW37989   5.705  11.933  11.299
12031SOL    HW137990   5.739  12.016  11.266
12031SOL    HW237991   5.620  11.955  11.337
12032SOL     OW37992   0.144   0.328   8.525
12032SOL    HW137993   0.212   0.363   8.582
12032SOL    HW237994   0.063   0.344   8.573
12033SOL     OW37995   7.547  11.995   6.018
12033SOL    HW137996   7.561  11.976   6.111
12033SOL    HW237997   7.630  12.035   5.989
12034SOL     OW37998   5.906   9.148   6.729
12034SOL    HW137999   5.993   9.127   6.761
12034SOL    HW238000   5.893   9.240   6.754
12035SOL     OW38001  11.135   5.169   2.693
12035SOL    HW138002  11.051   5.173   2.648
12035SOL    HW238003  11.179   5.094   2.655
12036SOL     OW38004   6.177   7.550   5.635
12036SOL    HW138005   6.161   7.500   5.555
12036SOL    HW238006   6.197   7.639   5.604
12037SOL     OW38007   1.487   7.016   7.603
12037SOL    HW138008   1.530   7.022   7.518
12037SOL    HW238009   1.408   6.964   7.587
12038SOL     OW38010   1.668  10.605   8.995
12038SOL    HW138011   1.593  10.658   8.966
12038SOL    HW238012   1.706  10.653   9.068
12039SOL     OW38013   5.784  12.313  12.791
12039SOL    HW138014   5.853  12.351  12.737
12039SOL    HW238015   5.783  12.368  12.870
12040SOL     OW38016   7.302   2.158  11.009
12040SOL    HW138017   7.290   2.161  10.914
12040SOL    HW238018   7.266   2.242  11.040
12041SOL     OW38019   9.853   6.115   2.194
12041SOL    HW138020   9.879   6.190   2.142
12041SOL    HW238021   9.761   6.100   2.173
12042SOL     OW38022  12.238  10.259   5.070
12042SOL    HW138023  12.303  10.308   5.020
12042SOL    HW238024  12.270  10.261   5.160
12043SOL     OW38025  10.180  11.870   5.091
12043SOL    HW138026  10.158  11.825   5.173
12043SOL    HW238027  10.152  11.960   5.105
12044SOL     OW38028   0.717  13.630   0.746
12044SOL    HW138029   0.751  13.659   0.830
12044SOL    HW238030   0.626  13.662   0.744
12045SOL     OW38031   0.057   6.056  14.265
12045SOL    HW138032   0.151   6.068  14.278
12045SOL    HW238033   0.034   6.116  14.194
12046SOL     OW38034  13.857  11.749   4.712
12046SOL    HW138035  13.854  11.703   4.796
12046SOL    HW238036  13.812  11.690   4.651
12047SOL     OW38037   4.863   5.455   7.492
12047SOL    HW138038   4.937   5.408   7.530
12047SOL    HW238039   4.849   5.530   7.550
12048SOL     OW38040   1.961  13.840   4.464
12048SOL    HW138041   1.914  13.850   4.547
12048SOL    HW238042   2.053  13.833   4.489
12049SOL     OW38043  11.067  10.489  13.561
12049SOL    HW138044  10.975  10.512  13.569
12049SOL    HW238045  11.111  10.572  13.540
12050SOL     OW38046   7.168   7.674  11.425
12050SOL    HW138047   7.253   7.646  11.392
12050SOL    HW238048   7.131   7.727  11.354
12051SOL     OW38049   8.493  13.132   4.867
12051SOL    HW138050   8.469  13.222   4.846
12051SOL    HW238051   8.431  13.078   4.818
12052SOL     OW38052  10.756  14.671  11.716
12052SOL    HW138053  10.737  14.731  11.644
12052SOL    HW238054  10.850  14.684  11.733
12053SOL     OW38055   3.308   5.111   0.732
12053SOL    HW138056   3.253   5.122   0.809
12053SOL    HW238057   3.344   5.198   0.715
12054SOL     OW38058  13.846   1.548  14.243
12054SOL    HW138059  13.774   1.575  14.300
12054SOL    HW238060  13.848   1.614  14.174
12055SOL     OW38061  14.420  12.268  11.560
12055SOL    HW138062  14.481  12.267  11.486
12055SOL    HW238063  14.333  12.276  11.519
12056SOL     OW38064   7.117   5.536   1.807
12056SOL    HW138065   7.206   5.519   1.776
12056SOL    HW238066   7.112   5.631   1.814
12057SOL     OW38067   3.835   2.826  10.812
12057SOL    HW138068   3.817   2.854  10.902
12057SOL    HW238069   3.810   2.901  10.758
12058SOL     OW38070   1.000   7.265  14.817
12058SOL    HW138071   0.947   7.199  14.774
12058SOL    HW238072   0.970   7.348  14.780
12059SOL     OW38073   2.843   5.700   4.777
12059SOL    HW138074   2.902   5.709   4.702
12059SOL    HW238075   2.901   5.706   4.854
12060SOL     OW38076   0.520  10.923   1.897
12060SOL    HW138077   0.505  10.963   1.983
12060SOL    HW238078   0.517  10.997   1.836
12061SOL     OW38079   7.214   6.239  14.090
12061SOL    HW138080   7.167   6.303  14.144
12061SOL    HW238081   7.163   6.159  14.101
12062SOL     OW38082   0.266   2.434   2.766
12062SOL    HW138083   0.333   2.466   2.828
12062SOL    HW238084   0.188   2.484   2.788
12063SOL     OW38085   2.722  13.241   4.837
12063SOL    HW138086   2.665  13.278   4.904
12063SOL    HW238087   2.738  13.151   4.866
12064SOL     OW38088   5.200   9.762   2.292
12064SOL    HW138089   5.265   9.692   2.294
12064SOL    HW238090   5.216   9.808   2.210
12065SOL     OW38091   5.742   3.624   6.655
12065SOL    HW138092   5.837   3.638   6.651
12065SOL    HW238093   5.705   3.711   6.668
12066SOL     OW38094   9.498  11.225   2.023
12066SOL    HW138095   9.580  11.202   1.979
12066SOL    HW238096   9.494  11.320   2.016
12067SOL     OW38097   6.874   2.930  10.150
12067SOL    HW138098   6.820   2.866  10.104
12067SOL    HW238099   6.833   2.939  10.236
12068SOL     OW38100   2.552   1.604   6.556
12068SOL    HW138101   2.587   1.565   6.475
12068SOL    HW238102   2.458   1.610   6.541
12069SOL     OW38103   0.626   1.352  12.478
12069SOL    HW138104   0.685   1.286  12.442
12069SOL    HW238105   0.541   1.308  12.484
12070SOL     OW38106   4.705  10.041   9.845
12070SOL    HW138107   4.722   9.959   9.798
12070SOL    HW238108   4.610  10.043   9.856
12071SOL     OW38109  11.811   0.723   7.718
12071SOL    HW138110  11.760   0.713   7.798
12071SOL    HW238111  11.746   0.747   7.651
12072SOL     OW38112  12.852   2.377   7.551
12072SOL    HW138113  12.892   2.299   7.511
12072SOL    HW238114  12.914   2.447   7.533
12073SOL     OW38115   6.270  12.284   0.679
12073SOL    HW138116   6.266  12.369   0.635
12073SOL    HW238117   6.347  12.288   0.735
12074SOL     OW38118  11.171  12.788   2.296
12074SOL    HW138119  11.118  12.864   2.323
12074SOL    HW238120  11.243  12.825   2.245
12075SOL     OW38121  12.367  12.811  13.910
12075SOL    HW138122  12.409  12.783  13.991
12075SOL    HW238123  12.410  12.894  13.888
12076SOL     OW38124   4.922   4.550   6.778
12076SOL    HW138125   4.902   4.479   6.717
12076SOL    HW238126   5.004   4.524   6.820
12077SOL     OW38127   9.856   9.676   9.880
12077SOL    HW138128   9.896   9.623   9.812
12077SOL    HW238129   9.788   9.620   9.918
12078SOL     OW38130   0.599   3.229   2.326
12078SOL    HW138131   0.557   3.262   2.405
12078SOL    HW238132   0.658   3.299   2.298
12079SOL     OW38133  13.953   4.808  11.123
12079SOL    HW138134  13.964   4.782  11.032
12079SOL    HW238135  13.876   4.759  11.153
12080SOL     OW38136   3.321  13.530   5.200
12080SOL    HW138137   3.244  13.492   5.242
12080SOL    HW238138   3.373  13.455   5.171
12081SOL     OW38139  13.242   4.852   1.080
12081SOL    HW138140  13.252   4.904   1.000
12081SOL    HW238141  13.227   4.916   1.149
12082SOL     OW38142   1.344  12.597   8.150
12082SOL    HW138143   1.382  12.659   8.212
12082SOL    HW238144   1.330  12.517   8.201
12083SOL     OW38145   1.601   8.745   0.351
12083SOL    HW138146   1.692   8.754   0.377
12083SOL    HW238147   1.589   8.651   0.338
12084SOL     OW38148   8.105   2.560   8.286
12084SOL    HW138149   8.126   2.474   8.248
12084SOL    HW238150   8.083   2.540   8.377
12085SOL     OW38151   1.520   2.394   7.449
12085SOL    HW138152   1.450   2.452   7.479
12085SOL    HW238153   1.554   2.353   7.528
12086SOL     OW38154  14.432   6.871   9.226
12086SOL    HW138155  14.495   6.937   9.254
12086SOL    HW238156  14.458   6.792   9.274
12087SOL     OW38157   6.192   1.678   1.538
12087SOL    HW138158   6.235   1.763   1.552
12087SOL    HW238159   6.182   1.671   1.443
12088SOL     OW38160   0.159  14.139   4.235
12088SOL    HW138161   0.174  14.216   4.289
12088SOL    HW238162   0.200  14.067   4.282
12089SOL     OW38163   5.703  12.877   5.150
12089SOL    HW138164   5.728  12.823   5.075
12089SOL    HW238165   5.703  12.816   5.224
12090SOL     OW38166  10.360  11.123  12.414
12090SOL    HW138167  10.348  11.210  12.452
12090SOL    HW238168  10.390  11.069  12.487
12091SOL     OW38169   7.499   6.506  13.421
12091SOL    HW138170   7.573   6.449  13.439
12091SOL    HW238171   7.445   6.458  13.358
12092SOL     OW38172   1.037   1.821  14.779
12092SOL    HW138173   1.114   1.875  14.761
12092SOL    HW238174   1.018   1.836  14.871
12093SOL     OW38175   8.095   3.618   7.727
12093SOL    HW138176   8.102   3.713   7.718
12093SOL    HW238177   8.005   3.603   7.758
12094SOL     OW38178   4.855  12.456   9.058
12094SOL    HW138179   4.930  12.499   9.099
12094SOL    HW238180   4.780  12.511   9.081
12095SOL     OW38181   9.198   7.649  14.325
12095SOL    HW138182   9.171   7.627  14.414
12095SOL    HW238183   9.205   7.744  14.325
12096SOL     OW38184   3.947  11.966   2.754
12096SOL    HW138185   3.869  12.000   2.710
12096SOL    HW238186   3.927  11.874   2.771
12097SOL     OW38187   4.243   6.079  12.533
12097SOL    HW138188   4.329   6.043  12.516
12097SOL    HW238189   4.254   6.133  12.611
12098SOL     OW38190  13.888   8.588  13.437
12098SOL    HW138191  13.832   8.553  13.368
12098SOL    HW238192  13.975   8.593  13.398
12099SOL     OW38193   5.367   4.114  10.351
12099SOL    HW138194   5.407   4.164  10.422
12099SOL    HW238195   5.333   4.180  10.291
12100SOL     OW38196   2.235   3.277   9.922
12100SOL    HW138197   2.314   3.251   9.874
12100SOL    HW238198   2.249   3.370   9.942
12101SOL     OW38199   9.794   5.000   9.298
12101SOL    HW138200   9.758   5.071   9.349
12101SOL    HW238201   9.740   4.995   9.219
12102SOL     OW38202   8.303   8.256   2.399
12102SOL    HW138203   8.269   8.231   2.313
12102SOL    HW238204   8.349   8.178   2.430
12103SOL     OW38205  10.050  12.801   5.026
12103SOL    HW138206  10.094  12.862   5.084
12103SOL    HW238207  10.028  12.726   5.081
12104SOL     OW38208  10.082  14.699   0.051
12104SOL    HW138209  10.149  14.724  14.867
12104SOL    HW238210  10.118  14.727   0.135
12105SOL     OW38211   6.375   3.061   5.753
12105SOL    HW138212   6.279   3.062   5.756
12105SOL    HW238213   6.401   3.038   5.842
12106SOL     OW38214   7.701   7.438  14.466
12106SOL    HW138215   7.634   7.497  14.433
12106SOL    HW238216   7.746   7.489  14.534
12107SOL     OW38217   4.952   6.349   6.978
12107SOL    HW138218   4.892   6.415   6.941
12107SOL    HW238219   5.035   6.395   6.985
12108SOL     OW38220  13.048  13.664   1.371
12108SOL    HW138221  13.015  13.632   1.287
12108SOL    HW238222  12.992  13.739   1.391
12109SOL     OW38223   5.533   0.426  10.957
12109SOL    HW138224   5.508   0.445  11.047
12109SOL    HW238225   5.450   0.412  10.911
12110SOL     OW38226  12.529  13.758   2.162
12110SOL    HW138227  12.550  13.839   2.210
12110SOL    HW238228  12.614  13.727   2.129
12111SOL     OW38229   4.965  10.686   1.848
12111SOL    HW138230   5.031  10.741   1.889
12111SOL    HW238231   5.007  10.601   1.837
12112SOL     OW38232  13.635   7.944  13.281
12112SOL    HW138233  13.683   8.024  13.302
12112SOL    HW238234  13.604   7.957  13.191
12113SOL     OW38235  12.036  11.746   5.759
12113SOL    HW138236  11.977  11.750   5.684
12113SOL    HW238237  12.115  11.791   5.730
12114SOL     OW38238   2.425  13.698  11.049
12114SOL    HW138239   2.508  13.683  11.003
12114SOL    HW238240   2.361  13.647  10.999
12115SOL     OW38241   4.582  14.223  12.005
12115SOL    HW138242   4.492  14.204  11.979
12115SOL    HW238243   4.612  14.290  11.944
12116SOL     OW38244  10.939   0.421   5.801
12116SOL    HW138245  10.973   0.337   5.770
12116SOL    HW238246  10.938   0.413   5.896
12117SOL     OW38247   9.521   8.469  14.266
12117SOL    HW138248   9.553   8.420  14.190
12117SOL    HW238249   9.470   8.405  14.316
12118SOL     OW38250   7.882   9.292  13.056
12118SOL    HW138251   7.897   9.198  13.045
12118SOL    HW238252   7.844   9.320  12.972
12119SOL     OW38253   9.766  14.684  12.406
12119SOL    HW138254   9.821  14.752  12.446
12119SOL    HW238255   9.763  14.707  12.313
12120SOL     OW38256  11.768   5.480  12.706
12120SOL    HW138257  11.682   5.451  12.735
12120SOL    HW238258  11.803   5.406  12.656
12121SOL     OW38259   2.269   0.465  10.000
12121SOL    HW138260   2.225   0.445  10.083
12121SOL    HW238261   2.362   0.452  10.018
12122SOL     OW38262   2.818   4.244   2.820
12122SOL    HW138263   2.766   4.319   2.849
12122SOL    HW238264   2.901   4.253   2.867
12123SOL     OW38265   7.251   1.444   2.677
12123SOL    HW138266   7.229   1.515   2.737
12123SOL    HW238267   7.246   1.483   2.590
12124SOL     OW38268  11.359  14.069   4.150
12124SOL    HW138269  11.440  14.065   4.200
12124SOL    HW238270  11.316  13.985   4.166
12125SOL     OW38271   6.937   9.050   2.202
12125SOL    HW138272   6.986   8.969   2.205
12125SOL    HW238273   6.847   9.025   2.223
12126SOL     OW38274   5.850   3.163   6.933
12126SOL    HW138275   5.945   3.172   6.925
12126SOL    HW238276   5.825   3.108   6.860
12127SOL     OW38277  14.690  14.291  12.156
12127SOL    HW138278  14.617  14.241  12.192
12127SOL    HW238279  14.768  14.255  12.200
12128SOL     OW38280   2.019   4.473   2.333
12128SOL    HW138281   2.056   4.384   2.339
12128SOL    HW238282   2.067   4.523   2.398
12129SOL     OW38283   2.181  12.524  13.987
12129SOL    HW138284   2.122  12.569  14.047
12129SOL    HW238285   2.263  12.574  13.992
12130SOL     OW38286  10.671   5.697   3.150
12130SOL    HW138287  10.701   5.630   3.211
12130SOL    HW238288  10.738   5.700   3.082
12131SOL     OW38289   7.808   0.008   4.546
12131SOL    HW138290   7.759  14.825   4.493
12131SOL    HW238291   7.810   0.088   4.494
12132SOL     OW38292   4.459   7.696  13.611
12132SOL    HW138293   4.375   7.661  13.641
12132SOL    HW238294   4.520   7.622  13.620
12133SOL     OW38295   9.904   0.794   8.195
12133SOL    HW138296   9.960   0.861   8.233
12133SOL    HW238297   9.949   0.766   8.115
12134SOL     OW38298   3.925   7.105   9.423
12134SOL    HW138299   3.860   7.074   9.360
12134SOL    HW238300   3.942   7.195   9.397
12135SOL     OW38301   0.325   0.452   3.275
12135SOL    HW138302   0.395   0.508   3.242
12135SOL    HW238303   0.369   0.371   3.303
12136SOL     OW38304   4.460   3.494   9.977
12136SOL    HW138305   4.498   3.552  10.043
12136SOL    HW238306   4.395   3.442  10.025
12137SOL     OW38307   5.787   5.885  10.474
12137SOL    HW138308   5.837   5.819  10.522
12137SOL    HW238309   5.805   5.967  10.520
12138SOL     OW38310   2.451  11.052   8.908
12138SOL    HW138311   2.371  11.015   8.871
12138SOL    HW238312   2.518  11.034   8.842
12139SOL     OW38313  14.331  14.620   4.062
12139SOL    HW138314  14.384  14.697   4.082
12139SOL    HW238315  14.310  14.582   4.147
12140SOL     OW38316   7.434   9.053   3.311
12140SOL    HW138317   7.406   9.065   3.221
12140SOL    HW238318   7.389   8.974   3.340
12141SOL     OW38319   5.700  11.360   1.806
12141SOL    HW138320   5.748  11.298   1.751
12141SOL    HW238321   5.610  11.328   1.806
12142SOL     OW38322   4.944   2.553   8.000
12142SOL    HW138323   4.996   2.500   7.939
12142SOL    HW238324   4.977   2.529   8.087
12143SOL     OW38325  10.767   4.776  10.075
12143SOL    HW138326  10.798   4.828  10.001
12143SOL    HW238327  10.788   4.686  10.051
12144SOL     OW38328   2.084   6.807  10.184
12144SOL    HW138329   2.062   6.849  10.267
12144SOL    HW238330   2.023   6.847  10.121
12145SOL     OW38331   1.115   4.761  11.248
12145SOL    HW138332   1.184   4.743  11.312
12145SOL    HW238333   1.133   4.699  11.176
12146SOL     OW38334   1.953  14.092   9.680
12146SOL    HW138335   1.937  14.165   9.620
12146SOL    HW238336   1.993  14.132   9.757
12147SOL     OW38337   2.941   5.515   2.740
12147SOL    HW138338   2.998   5.463   2.682
12147SOL    HW238339   2.971   5.494   2.828
12148SOL     OW38340   1.509   3.560  10.240
12148SOL    HW138341   1.505   3.532  10.332
12148SOL    HW238342   1.583   3.620  10.236
12149SOL     OW38343  12.072   0.546   6.493
12149SOL    HW138344  12.038   0.572   6.578
12149SOL    HW238345  12.147   0.604   6.478
12150SOL     OW38346  11.715   1.254   9.412
12150SOL    HW138347  11.748   1.247   9.502
12150SOL    HW238348  11.735   1.169   9.373
12151SOL     OW38349   2.254   7.836  10.396
12151SOL    HW138350   2.213   7.848  10.310
12151SOL    HW238351   2.340   7.801  10.377
12152SOL     OW38352   3.080   6.284  10.801
12152SOL    HW138353   3.149   6.232  10.842
12152SOL    HW238354   3.089   6.371  10.840
12153SOL     OW38355  10.990   5.172   1.033
12153SOL    HW138356  10.922   5.217   1.082
12153SOL    HW238357  10.990   5.083   1.068
12154SOL     OW38358   9.197   7.313   5.850
12154SOL    HW138359   9.224   7.335   5.940
12154SOL    HW238360   9.168   7.396   5.813
12155SOL     OW38361   1.518  13.451   8.546
12155SOL    HW138362   1.564  13.378   8.505
12155SOL    HW238363   1.571  13.528   8.523
12156SOL     OW38364   4.865   0.230   9.911
12156SOL    HW138365   4.854   0.240  10.005
12156SOL    HW238366   4.844   0.316   9.875
12157SOL     OW38367  11.232   4.206   0.074
12157SOL    HW138368  11.239   4.146   0.000
12157SOL    HW238369  11.289   4.168   0.142
12158SOL     OW38370   4.102   3.822  12.430
12158SOL    HW138371   4.100   3.845  12.338
12158SOL    HW238372   4.082   3.904  12.476
12159SOL     OW38373  14.665  12.908   5.793
12159SOL    HW138374  14.744  12.956   5.770
12159SOL    HW238375  14.689  12.816   5.783
12160SOL     OW38376   0.221   2.344  10.107
12160SOL    HW138377   0.288   2.283  10.075
12160SOL    HW238378   0.219   2.415  10.043
12161SOL     OW38379   6.585   6.217   8.718
12161SOL    HW138380   6.547   6.296   8.680
12161SOL    HW238381   6.615   6.244   8.805
12162SOL     OW38382   6.836   8.122   8.004
12162SOL    HW138383   6.926   8.151   8.017
12162SOL    HW238384   6.838   8.068   7.926
12163SOL     OW38385   3.884   4.427   5.359
12163SOL    HW138386   3.788   4.427   5.364
12163SOL    HW238387   3.904   4.363   5.291
12164SOL     OW38388  11.587  13.301  11.927
12164SOL    HW138389  11.620  13.389  11.911
12164SOL    HW238390  11.613  13.250  11.850
12165SOL     OW38391   6.692  10.364   8.277
12165SOL    HW138392   6.716  10.400   8.363
12165SOL    HW238393   6.662  10.440   8.227
12166SOL     OW38394   3.458   3.708  12.453
12166SOL    HW138395   3.460   3.613  12.442
12166SOL    HW238396   3.372   3.733  12.421
12167SOL     OW38397   9.671   4.918   4.844
12167SOL    HW138398   9.766   4.909   4.841
12167SOL    HW238399   9.648   4.965   4.764
12168SOL     OW38400   9.355   0.887   4.540
12168SOL    HW138401   9.447   0.862   4.550
12168SOL    HW238402   9.315   0.865   4.624
12169SOL     OW38403   4.343   5.126  10.453
12169SOL    HW138404   4.392   5.116  10.534
12169SOL    HW238405   4.402   5.174  10.395
12170SOL     OW38406   2.153  10.540   0.691
12170SOL    HW138407   2.209  10.476   0.736
12170SOL    HW238408   2.087  10.487   0.646
12171SOL     OW38409   5.526   6.676   3.531
12171SOL    HW138410   5.564   6.688   3.444
12171SOL    HW238411   5.498   6.584   3.533
12172SOL     OW38412   0.390   5.726  11.654
12172SOL    HW138413   0.370   5.632  11.660
12172SOL    HW238414   0.473   5.736  11.700
12173SOL     OW38415   4.281   8.843   4.991
12173SOL    HW138416   4.265   8.848   4.897
12173SOL    HW238417   4.356   8.783   4.999
12174SOL     OW38418  11.671  14.807   7.577
12174SOL    HW138419  11.641  14.833   7.489
12174SOL    HW238420  11.696  14.716   7.567
12175SOL     OW38421   5.243   1.380   8.184
12175SOL    HW138422   5.163   1.378   8.237
12175SOL    HW238423   5.280   1.467   8.200
12176SOL     OW38424   7.940  10.091   5.945
12176SOL    HW138425   7.897  10.169   5.910
12176SOL    HW238426   7.930  10.099   6.040
12177SOL     OW38427   3.004  12.535   2.085
12177SOL    HW138428   2.937  12.598   2.057
12177SOL    HW238429   2.981  12.454   2.041
12178SOL     OW38430   7.416   8.716   5.103
12178SOL    HW138431   7.463   8.635   5.123
12178SOL    HW238432   7.463   8.784   5.150
12179SOL     OW38433  11.381   4.424   6.922
12179SOL    HW138434  11.377   4.514   6.955
12179SOL    HW238435  11.396   4.433   6.828
12180SOL     OW38436   6.901   4.982   9.035
12180SOL    HW138437   6.846   4.905   9.048
12180SOL    HW238438   6.883   5.037   9.111
12181SOL     OW38439   1.916  12.130   5.185
12181SOL    HW138440   1.849  12.160   5.246
12181SOL    HW238441   1.883  12.047   5.152
12182SOL     OW38442  10.786  12.417   2.100
12182SOL    HW138443  10.698  12.384   2.117
12182SOL    HW238444  10.777  12.513   2.105
12183SOL     OW38445  14.832   3.544   9.526
12183SOL    HW138446  14.845   3.453   9.498
12183SOL    HW238447  14.804   3.589   9.447
12184SOL     OW38448   0.847   3.274   1.014
12184SOL    HW138449   0.916   3.297   0.952
12184SOL    HW238450   0.853   3.339   1.084
12185SOL     OW38451   5.304  14.338  11.678
12185SOL    HW138452   5.312  14.247  11.649
12185SOL    HW238453   5.223  14.369  11.639
12186SOL     OW38454   7.618  10.923   8.391
12186SOL    HW138455   7.596  10.830   8.397
12186SOL    HW238456   7.710  10.927   8.416
12187SOL     OW38457  13.689   6.978   4.772
12187SOL    HW138458  13.645   6.950   4.691
12187SOL    HW238459  13.737   6.901   4.801
12188SOL     OW38460   0.787   0.191  11.062
12188SOL    HW138461   0.694   0.208  11.073
12188SOL    HW238462   0.826   0.277  11.045
12189SOL     OW38463   4.880   8.162  10.008
12189SOL    HW138464   4.838   8.143   9.924
12189SOL    HW238465   4.943   8.092  10.020
12190SOL     OW38466   6.849   3.342   4.264
12190SOL    HW138467   6.859   3.317   4.356
12190SOL    HW238468   6.759   3.319   4.243
12191SOL     OW38469  12.035   5.203   9.902
12191SOL    HW138470  11.999   5.188   9.815
12191SOL    HW238471  12.036   5.117   9.943
12192SOL     OW38472   8.641   4.321   0.322
12192SOL    HW138473   8.552   4.348   0.302
12192SOL    HW238474   8.662   4.366   0.404
12193SOL     OW38475  11.634   4.349   6.225
12193SOL    HW138476  11.653   4.421   6.165
12193SOL    HW238477  11.576   4.292   6.176
12194SOL     OW38478   7.266  10.455   0.783
12194SOL    HW138479   7.240  10.524   0.722
12194SOL    HW238480   7.294  10.383   0.727
12195SOL     OW38481   4.325  11.480   7.949
12195SOL    HW138482   4.233  11.453   7.950
12195SOL    HW238483   4.355  11.463   7.860
12196SOL     OW38484   4.683   2.315   9.021
12196SOL    HW138485   4.599   2.274   9.003
12196SOL    HW238486   4.665   2.378   9.090
12197SOL     OW38487  12.056  10.289   3.769
12197SOL    HW138488  12.132  10.283   3.826
12197SOL    HW238489  12.092  10.293   3.681
12198SOL     OW38490   6.911   3.552  11.167
12198SOL    HW138491   6.877   3.580  11.081
12198SOL    HW238492   6.914   3.456  11.161
12199SOL     OW38493   5.412  13.572   7.725
12199SOL    HW138494   5.395  13.636   7.656
12199SOL    HW238495   5.489  13.524   7.696
12200SOL     OW38496   4.684   1.268   9.833
12200SOL    HW138497   4.676   1.182   9.793
12200SOL    HW238498   4.714   1.325   9.761
12201SOL     OW38499  11.278   5.314   7.322
12201SOL    HW138500  11.186   5.327   7.344
12201SOL    HW238501  11.298   5.387   7.263
12202SOL     OW38502  14.785   8.095   9.664
12202SOL    HW138503  14.747   8.124   9.747
12202SOL    HW238504  14.772   8.000   9.664
12203SOL     OW38505  13.115   2.765  10.104
12203SOL    HW138506  13.080   2.694  10.157
12203SOL    HW238507  13.135   2.725  10.020
12204SOL     OW38508   5.605   2.497   4.898
12204SOL    HW138509   5.557   2.461   4.972
12204SOL    HW238510   5.538   2.533   4.840
12205SOL     OW38511   3.644   3.995  11.159
12205SOL    HW138512   3.629   3.957  11.072
12205SOL    HW238513   3.556   4.011  11.193
12206SOL     OW38514   9.503   3.688   0.041
12206SOL    HW138515   9.441   3.626   0.079
12206SOL    HW238516   9.547   3.638  14.851
12207SOL     OW38517   5.526   6.240   6.428
12207SOL    HW138518   5.468   6.277   6.495
12207SOL    HW238519   5.477   6.250   6.347
12208SOL     OW38520   7.264   3.922   6.144
12208SOL    HW138521   7.202   3.884   6.082
12208SOL    HW238522   7.350   3.902   6.106
12209SOL     OW38523   0.446  12.096   7.549
12209SOL    HW138524   0.527  12.102   7.498
12209SOL    HW238525   0.401  12.019   7.512
12210SOL     OW38526   9.678   2.366   0.937
12210SOL    HW138527   9.596   2.319   0.951
12210SOL    HW238528   9.690   2.365   0.842
12211SOL     OW38529   6.273   2.520   8.916
12211SOL    HW138530   6.230   2.456   8.859
12211SOL    HW238531   6.324   2.575   8.856
12212SOL     OW38532   1.077   3.268   9.455
12212SOL    HW138533   1.103   3.177   9.469
12212SOL    HW238534   1.093   3.311   9.539
12213SOL     OW38535  14.627  13.229  11.055
12213SOL    HW138536  14.721  13.241  11.041
12213SOL    HW238537  14.593  13.317  11.063
12214SOL     OW38538   6.639   1.950   9.822
12214SOL    HW138539   6.564   1.892   9.811
12214SOL    HW238540   6.617   2.005   9.897
12215SOL     OW38541   8.942  10.798   3.983
12215SOL    HW138542   8.949  10.871   4.044
12215SOL    HW238543   8.979  10.832   3.901
12216SOL     OW38544   1.023   6.480  11.332
12216SOL    HW138545   1.000   6.560  11.378
12216SOL    HW238546   1.091   6.439  11.386
12217SOL     OW38547   6.562   8.453   6.868
12217SOL    HW138548   6.620   8.396   6.919
12217SOL    HW238549   6.554   8.409   6.783
12218SOL     OW38550  12.635   9.510   8.206
12218SOL    HW138551  12.663   9.457   8.280
12218SOL    HW238552  12.630   9.447   8.133
12219SOL     OW38553   1.993  12.330   3.028
12219SOL    HW138554   1.919  12.270   3.017
12219SOL    HW238555   1.968  12.385   3.103
12220SOL     OW38556  10.036   7.582   7.164
12220SOL    HW138557  10.128   7.589   7.192
12220SOL    HW238558  10.041   7.552   7.073
12221SOL     OW38559  14.109   2.889  12.484
12221SOL    HW138560  14.202   2.873  12.501
12221SOL    HW238561  14.093   2.977  12.518
12222SOL     OW38562   2.136  13.801   1.671
12222SOL    HW138563   2.061  13.760   1.715
12222SOL    HW238564   2.195  13.827   1.742
12223SOL     OW38565   1.408   9.868   6.535
12223SOL    HW138566   1.338   9.804   6.545
12223SOL    HW238567   1.453   9.867   6.620
12224SOL     OW38568   2.816   0.208  13.820
12224SOL    HW138569   2.721   0.209  13.825
12224SOL    HW238570   2.841   0.300  13.809
12225SOL     OW38571   9.019   1.808  10.343
12225SOL    HW138572   9.041   1.901  10.352
12225SOL    HW238573   8.924   1.808  10.331
12226SOL     OW38574  10.360   9.475  14.377
12226SOL    HW138575  10.399   9.396  14.414
12226SOL    HW238576  10.273   9.480  14.418
12227SOL     OW38577   7.322  10.212   0.625
12227SOL    HW138578   7.396  10.166   0.583
12227SOL    HW238579   7.245  10.166   0.594
12228SOL     OW38580  12.109   4.484   7.962
12228SOL    HW138581  12.113   4.579   7.974
12228SOL    HW238582  12.194   4.452   7.994
12229SOL     OW38583  12.867   3.599   9.060
12229SOL    HW138584  12.939   3.545   9.028
12229SOL    HW238585  12.909   3.679   9.092
12230SOL     OW38586   2.028   0.634   7.885
12230SOL    HW138587   2.053   0.626   7.977
12230SOL    HW238588   2.111   0.638   7.838
12231SOL     OW38589   2.059   9.185   1.093
12231SOL    HW138590   2.096   9.205   1.007
12231SOL    HW238591   2.136   9.170   1.149
12232SOL     OW38592   8.666  12.322  11.270
12232SOL    HW138593   8.753  12.291  11.296
12232SOL    HW238594   8.629  12.250  11.219
12233SOL     OW38595  11.358   9.830   4.741
12233SOL    HW138596  11.437   9.775   4.745
12233SOL    HW238597  11.292   9.781   4.789
12234SOL     OW38598  10.902   4.285   2.906
12234SOL    HW138599  10.871   4.360   2.854
12234SOL    HW238600  10.858   4.209   2.867
12235SOL     OW38601  12.986   4.213   2.246
12235SOL    HW138602  12.896   4.203   2.217
12235SOL    HW238603  12.980   4.264   2.327
12236SOL     OW38604   5.132   6.645   7.543
12236SOL    HW138605   5.174   6.568   7.507
12236SOL    HW238606   5.126   6.628   7.637
12237SOL     OW38607  11.532   4.586  11.356
12237SOL    HW138608  11.607   4.589  11.415
12237SOL    HW238609  11.471   4.525  11.397
12238SOL     OW38610   6.705   9.848   1.437
12238SOL    HW138611   6.685   9.863   1.529
12238SOL    HW238612   6.644   9.905   1.389
12239SOL     OW38613   2.309   3.880   6.532
12239SOL    HW138614   2.397   3.853   6.507
12239SOL    HW238615   2.267   3.800   6.563
12240SOL     OW38616  11.137   9.347   6.808
12240SOL    HW138617  11.128   9.385   6.895
12240SOL    HW238618  11.061   9.289   6.800
12241SOL     OW38619   0.665   1.335   6.306
12241SOL    HW138620   0.665   1.351   6.212
12241SOL    HW238621   0.745   1.376   6.337
12242SOL     OW38622   8.373   3.511   3.013
12242SOL    HW138623   8.355   3.417   3.018
12242SOL    HW238624   8.331   3.540   2.932
12243SOL     OW38625  10.110   2.647   5.841
12243SOL    HW138626  10.026   2.684   5.814
12243SOL    HW238627  10.174   2.691   5.785
12244SOL     OW38628  13.944   0.949   1.948
12244SOL    HW138629  13.859   0.908   1.963
12244SOL    HW238630  13.970   0.920   1.861
12245SOL     OW38631   8.909  11.111  12.356
12245SOL    HW138632   8.867  11.026  12.341
12245SOL    HW238633   8.868  11.170  12.293
12246SOL     OW38634   4.846  10.420  10.820
12246SOL    HW138635   4.844  10.511  10.790
12246SOL    HW238636   4.853  10.426  10.915
12247SOL     OW38637   9.076   1.327   8.017
12247SOL    HW138638   9.096   1.415   7.982
12247SOL    HW238639   9.006   1.294   7.961
12248SOL     OW38640  12.263   9.550  14.706
12248SOL    HW138641  12.168   9.564  14.706
12248SOL    HW238642  12.289   9.559  14.797
12249SOL     OW38643  14.507   3.342   2.398
12249SOL    HW138644  14.413   3.359   2.386
12249SOL    HW238645  14.510   3.270   2.461
12250SOL     OW38646   1.753  11.775  13.535
12250SOL    HW138647   1.780  11.867  13.531
12250SOL    HW238648   1.690  11.771  13.607
12251SOL     OW38649  10.975  12.824   7.557
12251SOL    HW138650  11.059  12.819   7.510
12251SOL    HW238651  10.909  12.807   7.489
12252SOL     OW38652   7.052   4.714  14.263
12252SOL    HW138653   7.006   4.785  14.308
12252SOL    HW238654   7.101   4.670  14.333
12253SOL     OW38655  13.460   2.612   8.475
12253SOL    HW138656  13.540   2.566   8.449
12253SOL    HW238657  13.486   2.704   8.482
12254SOL     OW38658  10.887   5.091   3.279
12254SOL    HW138659  10.848   5.092   3.191
12254SOL    HW238660  10.935   5.008   3.283
12255SOL     OW38661   4.974   5.515   1.211
12255SOL    HW138662   4.890   5.478   1.239
12255SOL    HW238663   5.033   5.498   1.285
12256SOL     OW38664   3.328   4.114  13.705
12256SOL    HW138665   3.260   4.176  13.680
12256SOL    HW238666   3.282   4.048  13.757
12257SOL     OW38667   2.555   0.153   3.646
12257SOL    HW138668   2.559   0.072   3.596
12257SOL    HW238669   2.645   0.186   3.647
12258SOL     OW38670   1.932   7.839  12.494
12258SOL    HW138671   1.864   7.870  12.433
12258SOL    HW238672   1.963   7.757  12.456
12259SOL     OW38673   6.986  13.437   7.678
12259SOL    HW138674   7.003  13.521   7.719
12259SOL    HW238675   6.953  13.382   7.749
12260SOL     OW38676  11.001  11.082   6.261
12260SOL    HW138677  10.968  11.154   6.207
12260SOL    HW238678  11.002  11.118   6.350
12261SOL     OW38679   2.304   1.088   6.945
12261SOL    HW138680   2.259   1.028   6.886
12261SOL    HW238681   2.253   1.085   7.026
12262SOL     OW38682   8.571   0.653  13.761
12262SOL    HW138683   8.640   0.667  13.826
12262SOL    HW238684   8.514   0.586  13.800
12263SOL     OW38685   7.183   9.560   2.755
12263SOL    HW138686   7.173   9.519   2.669
12263SOL    HW238687   7.237   9.637   2.739
12264SOL     OW38688   3.404   2.838   0.038
12264SOL    HW138689   3.377   2.927   0.018
12264SOL    HW238690   3.427   2.800  14.833
12265SOL     OW38691   8.539  10.678   4.339
12265SOL    HW138692   8.449  10.701   4.361
12265SOL    HW238693   8.581  10.762   4.319
12266SOL     OW38694   3.751   3.499   0.108
12266SOL    HW138695   3.826   3.557   0.093
12266SOL    HW238696   3.675   3.555   0.101
12267SOL     OW38697  13.718  12.944  14.857
12267SOL    HW138698  13.643  12.934   0.036
12267SOL    HW238699  13.702  13.027  14.812
12268SOL     OW38700   1.540  11.185   2.648
12268SOL    HW138701   1.540  11.213   2.557
12268SOL    HW238702   1.521  11.091   2.645
12269SOL     OW38703   2.761   9.327   4.385
12269SOL    HW138704   2.724   9.276   4.457
12269SOL    HW238705   2.855   9.306   4.387
12270SOL     OW38706  13.258   6.958  13.030
12270SOL    HW138707  13.252   6.948  12.935
12270SOL    HW238708  13.290   6.873  13.061
12271SOL     OW38709  12.880   5.900   3.608
12271SOL    HW138710  12.859   5.827   3.551
12271SOL    HW238711  12.936   5.957   3.556
12272SOL     OW38712   7.171  13.667   0.713
12272SOL    HW138713   7.168  13.727   0.638
12272SOL    HW238714   7.116  13.593   0.688
12273SOL     OW38715  13.564   3.921   1.708
12273SOL    HW138716  13.610   3.956   1.784
12273SOL    HW238717  13.472   3.920   1.734
12274SOL     OW38718   1.239   4.561   3.381
12274SOL    HW138719   1.260   4.653   3.366
12274SOL    HW238720   1.301   4.513   3.325
12275SOL     OW38721   7.276   5.751   5.759
12275SOL    HW138722   7.335   5.822   5.782
12275SOL    HW238723   7.333   5.678   5.734
12276SOL     OW38724   4.573  14.692   6.805
12276SOL    HW138725   4.525  14.697   6.722
12276SOL    HW238726   4.655  14.649   6.782
12277SOL     OW38727   6.362  13.493   8.556
12277SOL    HW138728   6.349  13.531   8.469
12277SOL    HW238729   6.312  13.550   8.615
12278SOL     OW38730   3.347   1.232   0.423
12278SOL    HW138731   3.431   1.243   0.379
12278SOL    HW238732   3.354   1.287   0.501
12279SOL     OW38733   2.894   4.800   4.384
12279SOL    HW138734   2.983   4.803   4.420
12279SOL    HW238735   2.905   4.827   4.292
12280SOL     OW38736   7.354   2.407   3.256
12280SOL    HW138737   7.308   2.488   3.282
12280SOL    HW238738   7.436   2.410   3.305
12281SOL     OW38739   0.984   2.430   3.400
12281SOL    HW138740   0.938   2.510   3.375
12281SOL    HW238741   0.987   2.433   3.495
12282SOL     OW38742  11.536   7.112  12.697
12282SOL    HW138743  11.449   7.091  12.730
12282SOL    HW238744  11.589   7.035  12.717
12283SOL     OW38745  13.428  14.586  13.639
12283SOL    HW138746  13.440  14.642  13.715
12283SOL    HW238747  13.516  14.553  13.619
12284SOL     OW38748   7.029   8.730   9.119
12284SOL    HW138749   6.961   8.662   9.119
12284SOL    HW238750   6.981   8.812   9.119
12285SOL     OW38751   5.602   7.365  11.778
12285SOL    HW138752   5.507   7.380  11.780
12285SOL    HW238753   5.615   7.285  11.829
12286SOL     OW38754   1.598  13.687   5.783
12286SOL    HW138755   1.507  13.698   5.810
12286SOL    HW238756   1.650  13.726   5.853
12287SOL     OW38757   8.131   4.377  11.278
12287SOL    HW138758   8.120   4.445  11.211
12287SOL    HW238759   8.121   4.295  11.230
12288SOL     OW38760   5.730   7.148   8.341
12288SOL    HW138761   5.635   7.155   8.338
12288SOL    HW238762   5.747   7.054   8.340
12289SOL     OW38763   5.508  13.202  12.519
12289SOL    HW138764   5.421  13.202  12.481
12289SOL    HW238765   5.504  13.134  12.588
12290SOL     OW38766   8.114   7.506  10.597
12290SOL    HW138767   8.127   7.598  10.621
12290SOL    HW238768   8.202   7.467  10.603
12291SOL     OW38769   8.755  13.316  12.719
12291SOL    HW138770   8.699  13.249  12.758
12291SOL    HW238771   8.839  13.272  12.705
12292SOL     OW38772   1.306  10.428  14.681
12292SOL    HW138773   1.221  10.463  14.708
12292SOL    HW238774   1.357  10.423  14.763
12293SOL     OW38775   9.644  10.779  12.420
12293SOL    HW138776   9.709  10.812  12.483
12293SOL    HW238777   9.578  10.735  12.475
12294SOL     OW38778   6.908  12.304   1.077
12294SOL    HW138779   6.947  12.261   1.153
12294SOL    HW238780   6.886  12.232   1.017
12295SOL     OW38781  11.102   7.064  14.406
12295SOL    HW138782  11.032   7.052  14.470
12295SOL    HW238783  11.086   7.151  14.369
12296SOL     OW38784   5.630   9.732   0.706
12296SOL    HW138785   5.655   9.815   0.746
12296SOL    HW238786   5.700   9.671   0.730
12297SOL     OW38787   8.601   5.867  13.620
12297SOL    HW138788   8.633   5.882  13.709
12297SOL    HW238789   8.649   5.789  13.591
12298SOL     OW38790   8.473   4.221  13.237
12298SOL    HW138791   8.393   4.272  13.220
12298SOL    HW238792   8.539   4.287  13.260
12299SOL     OW38793  14.706   7.317   6.616
12299SOL    HW138794  14.659   7.252   6.563
12299SOL    HW238795  14.645   7.337   6.687
12300SOL     OW38796   5.148   3.370  11.640
12300SOL    HW138797   5.196   3.387  11.559
12300SOL    HW238798   5.057   3.390  11.618
12301SOL     OW38799   7.620   6.730   1.312
12301SOL    HW138800   7.680   6.800   1.340
12301SOL    HW238801   7.668   6.649   1.331
12302SOL     OW38802  14.704   5.784   4.953
12302SOL    HW138803  14.762   5.799   4.878
12302SOL    HW238804  14.694   5.689   4.957
12303SOL     OW38805   5.019   9.306  14.008
12303SOL    HW138806   5.056   9.361  13.939
12303SOL    HW238807   5.088   9.299  14.074
12304SOL     OW38808   7.092   5.408  12.033
12304SOL    HW138809   7.158   5.376  11.971
12304SOL    HW238810   7.110   5.502  12.040
12305SOL     OW38811   1.166   6.487  13.849
12305SOL    HW138812   1.122   6.467  13.767
12305SOL    HW238813   1.234   6.420  13.856
12306SOL     OW38814   2.382   1.805   3.644
12306SOL    HW138815   2.420   1.890   3.621
12306SOL    HW238816   2.397   1.751   3.566
12307SOL     OW38817   1.716  13.974  10.416
12307SOL    HW138818   1.671  14.058  10.418
12307SOL    HW238819   1.667  13.922  10.352
12308SOL     OW38820   1.542   9.425   3.452
12308SOL    HW138821   1.498   9.358   3.504
12308SOL    HW238822   1.582   9.483   3.517
12309SOL     OW38823   8.930  13.879   2.034
12309SOL    HW138824   8.914  13.967   2.002
12309SOL    HW238825   8.982  13.891   2.113
12310SOL     OW38826   4.121   6.026   3.246
12310SOL    HW138827   4.189   5.968   3.280
12310SOL    HW238828   4.071   5.970   3.186
12311SOL     OW38829   0.187   3.614  12.500
12311SOL    HW138830   0.171   3.570  12.416
12311SOL    HW238831   0.101   3.649  12.525
12312SOL     OW38832   7.697   0.267  14.377
12312SOL    HW138833   7.717   0.250  14.285
12312SOL    HW238834   7.742   0.350  14.396
12313SOL     OW38835   3.121   4.666   5.483
12313SOL    HW138836   3.084   4.603   5.422
12313SOL    HW238837   3.210   4.634   5.499
12314SOL     OW38838   1.631  13.391   6.468
12314SOL    HW138839   1.704  13.340   6.502
12314SOL    HW238840   1.553  13.346   6.501
12315SOL     OW38841  14.041  10.032   5.662
12315SOL    HW138842  13.969  10.011   5.603
12315SOL    HW238843  14.080   9.947   5.683
12316SOL     OW38844   3.280   4.106   0.196
12316SOL    HW138845   3.256   4.164   0.269
12316SOL    HW238846   3.208   4.116   0.133
12317SOL     OW38847   3.231   1.009   9.813
12317SOL    HW138848   3.269   1.090   9.845
12317SOL    HW238849   3.286   0.983   9.739
12318SOL     OW38850   9.618  12.150   3.656
12318SOL    HW138851   9.650  12.112   3.738
12318SOL    HW238852   9.630  12.081   3.591
12319SOL     OW38853  11.826  11.522   6.023
12319SOL    HW138854  11.918  11.498   6.037
12319SOL    HW238855  11.780  11.439   6.019
12320SOL     OW38856   9.141   3.537   8.080
12320SOL    HW138857   9.052   3.526   8.046
12320SOL    HW238858   9.196   3.539   8.002
12321SOL     OW38859   2.108   3.532   1.969
12321SOL    HW138860   2.058   3.561   2.045
12321SOL    HW238861   2.172   3.470   2.003
12322SOL     OW38862   2.625  13.942  13.853
12322SOL    HW138863   2.688  13.914  13.786
12322SOL    HW238864   2.634  13.877  13.922
12323SOL     OW38865   1.925  14.237  14.407
12323SOL    HW138866   1.868  14.293  14.459
12323SOL    HW238867   2.011  14.247  14.447
12324SOL     OW38868   2.215   6.976   9.864
12324SOL    HW138869   2.171   7.010   9.785
12324SOL    HW238870   2.251   6.892   9.837
12325SOL     OW38871  10.945  10.902   7.583
12325SOL    HW138872  10.921  10.950   7.663
12325SOL    HW238873  10.956  10.811   7.612
12326SOL     OW38874  12.802  14.115  11.169
12326SOL    HW138875  12.754  14.148  11.094
12326SOL    HW238876  12.735  14.102  11.237
12327SOL     OW38877   8.766   5.295  13.660
12327SOL    HW138878   8.771   5.211  13.614
12327SOL    HW238879   8.836   5.348  13.620
12328SOL     OW38880   4.318   2.962   4.936
12328SOL    HW138881   4.361   3.004   4.861
12328SOL    HW238882   4.319   3.028   5.005
12329SOL     OW38883   3.204   3.364  12.302
12329SOL    HW138884   3.223   3.322  12.218
12329SOL    HW238885   3.179   3.291  12.360
12330SOL     OW38886   0.595   7.420   2.835
12330SOL    HW138887   0.605   7.515   2.834
12330SOL    HW238888   0.613   7.395   2.926
12331SOL     OW38889  11.508   7.742  11.243
12331SOL    HW138890  11.595   7.705  11.230
12331SOL    HW238891  11.462   7.724  11.161
12332SOL     OW38892   5.439   3.462   5.671
12332SOL    HW138893   5.531   3.486   5.680
12332SOL    HW238894   5.439   3.366   5.678
12333SOL     OW38895   5.801   6.644   9.498
12333SOL    HW138896   5.855   6.686   9.565
12333SOL    HW238897   5.859   6.581   9.457
12334SOL     OW38898  10.065  10.231  12.516
12334SOL    HW138899  10.057  10.311  12.569
12334SOL    HW238900  10.048  10.160  12.578
12335SOL     OW38901   3.702   1.026  13.462
12335SOL    HW138902   3.698   1.025  13.558
12335SOL    HW238903   3.622   1.072  13.436
12336SOL     OW38904  13.963   6.260   1.660
12336SOL    HW138905  13.984   6.308   1.740
12336SOL    HW238906  14.002   6.174   1.673
12337SOL     OW38907  13.902  10.576  14.526
12337SOL    HW138908  13.935  10.661  14.555
12337SOL    HW238909  13.963  10.550  14.456
12338SOL     OW38910  12.124   3.903   6.818
12338SOL    HW138911  12.191   3.970   6.831
12338SOL    HW238912  12.064   3.940   6.753
12339SOL     OW38913   9.004   5.904   7.522
12339SOL    HW138914   9.043   5.969   7.463
12339SOL    HW238915   9.002   5.823   7.472
12340SOL     OW38916   2.487   5.871  10.321
12340SOL    HW138917   2.547   5.806  10.358
12340SOL    HW238918   2.543   5.946  10.300
12341SOL     OW38919   9.167   8.562  12.733
12341SOL    HW138920   9.208   8.607  12.659
12341SOL    HW238921   9.148   8.474  12.700
12342SOL     OW38922   8.276   7.749  12.596
12342SOL    HW138923   8.281   7.765  12.690
12342SOL    HW238924   8.215   7.816  12.564
12343SOL     OW38925  10.075   1.673  13.253
12343SOL    HW138926  10.024   1.703  13.178
12343SOL    HW238927  10.155   1.726  13.251
12344SOL     OW38928   5.579   2.913   3.568
12344SOL    HW138929   5.652   2.906   3.629
12344SOL    HW238930   5.619   2.904   3.481
12345SOL     OW38931  11.150  11.454   4.496
12345SOL    HW138932  11.170  11.450   4.589
12345SOL    HW238933  11.232  11.429   4.453
12346SOL     OW38934   5.160   5.908  11.671
12346SOL    HW138935   5.079   5.860  11.656
12346SOL    HW238936   5.142   5.996  11.638
12347SOL     OW38937   0.925   0.121   2.107
12347SOL    HW138938   0.876   0.131   2.026
12347SOL    HW238939   0.881   0.050   2.154
12348SOL     OW38940   8.023   4.714  13.490
12348SOL    HW138941   7.981   4.737  13.407
12348SOL    HW238942   7.980   4.770  13.555
12349SOL     OW38943  13.739   4.643   1.104
12349SOL    HW138944  13.683   4.581   1.151
12349SOL    HW238945  13.809   4.664   1.166
12350SOL     OW38946   2.922   3.138   1.673
12350SOL    HW138947   2.975   3.203   1.718
12350SOL    HW238948   2.986   3.082   1.628
12351SOL     OW38949   1.108  10.268   3.229
12351SOL    HW138950   1.065  10.252   3.313
12351SOL    HW238951   1.041  10.247   3.164
12352SOL     OW38952   5.682   2.161   0.538
12352SOL    HW138953   5.624   2.095   0.574
12352SOL    HW238954   5.770   2.125   0.549
12353SOL     OW38955   3.341   6.556  14.353
12353SOL    HW138956   3.404   6.591  14.417
12353SOL    HW238957   3.381   6.572  14.268
12354SOL     OW38958   8.101  14.359   9.409
12354SOL    HW138959   8.038  14.422   9.375
12354SOL    HW238960   8.081  14.353   9.503
12355SOL     OW38961   4.335  14.159   8.579
12355SOL    HW138962   4.326  14.063   8.574
12355SOL    HW238963   4.388  14.182   8.503
12356SOL     OW38964   6.895   0.982  10.113
12356SOL    HW138965   6.827   0.932  10.157
12356SOL    HW238966   6.921   1.049  10.175
12357SOL     OW38967  12.539   1.584  11.350
12357SOL    HW138968  12.544   1.632  11.267
12357SOL    HW238969  12.463   1.621  11.395
12358SOL     OW38970  13.369   5.701   6.231
12358SOL    HW138971  13.420   5.629   6.194
12358SOL    HW238972  13.404   5.713   6.319
12359SOL     OW38973   4.327  11.916  12.686
12359SOL    HW138974   4.288  11.833  12.711
12359SOL    HW238975   4.421  11.903  12.700
12360SOL     OW38976  12.669   3.633  14.088
12360SOL    HW138977  12.621   3.552  14.104
12360SOL    HW238978  12.600   3.698  14.070
12361SOL     OW38979   5.105   3.290   6.983
12361SOL    HW138980   5.144   3.358   7.037
12361SOL    HW238981   5.023   3.267   7.026
12362SOL     OW38982  10.865  10.487   1.319
12362SOL    HW138983  10.905  10.555   1.264
12362SOL    HW238984  10.918  10.409   1.303
12363SOL     OW38985   5.941   2.173   8.349
12363SOL    HW138986   5.982   2.250   8.310
12363SOL    HW238987   5.994   2.153   8.425
12364SOL     OW38988   0.465  14.557  14.256
12364SOL    HW138989   0.489  14.508  14.334
12364SOL    HW238990   0.498  14.646  14.271
12365SOL     OW38991   4.830  12.306  13.235
12365SOL    HW138992   4.792  12.357  13.164
12365SOL    HW238993   4.839  12.368  13.307
12366SOL     OW38994   2.292  13.964   9.743
12366SOL    HW138995   2.216  13.908   9.757
12366SOL    HW238996   2.330  13.977   9.830
12367SOL     OW38997   6.707   9.457  11.390
12367SOL    HW138998   6.653   9.410  11.327
12367SOL    HW238999   6.791   9.469  11.346
12368SOL     OW39000  11.357   4.339   7.620
12368SOL    HW139001  11.412   4.314   7.693
12368SOL    HW239002  11.412   4.397   7.567
12369SOL     OW39003   5.839   7.093   3.870
12369SOL    HW139004   5.878   7.166   3.917
12369SOL    HW239005   5.875   7.098   3.782
12370SOL     OW39006  11.527   0.737  11.774
12370SOL    HW139007  11.451   0.687  11.804
12370SOL    HW239008  11.513   0.825  11.809
12371SOL     OW39009   2.697   3.653   3.895
12371SOL    HW139010   2.739   3.734   3.922
12371SOL    HW239011   2.618   3.681   3.848
12372SOL     OW39012  14.795   6.653   7.071
12372SOL    HW139013  14.780   6.721   7.006
12372SOL    HW239014  14.720   6.659   7.131
12373SOL     OW39015   4.913   3.333   2.896
12373SOL    HW139016   4.875   3.344   2.809
12373SOL    HW239017   4.868   3.257   2.933
12374SOL     OW39018   7.728   8.536  13.199
12374SOL    HW139019   7.759   8.448  13.177
12374SOL    HW239020   7.659   8.521  13.264
12375SOL     OW39021  10.593  13.871   4.348
12375SOL    HW139022  10.500  13.884   4.334
12375SOL    HW239023  10.603  13.776   4.356
12376SOL     OW39024   0.551  11.711  14.756
12376SOL    HW139025   0.640  11.744  14.767
12376SOL    HW239026   0.563  11.617  14.741
12377SOL     OW39027   3.983   4.999   8.391
12377SOL    HW139028   4.038   5.062   8.343
12377SOL    HW239029   4.013   4.914   8.361
12378SOL     OW39030   7.940  12.545  12.737
12378SOL    HW139031   7.881  12.620  12.742
12378SOL    HW239032   7.936  12.517  12.645
12379SOL     OW39033   5.618   2.281   7.300
12379SOL    HW139034   5.700   2.267   7.349
12379SOL    HW239035   5.599   2.196   7.261
12380SOL     OW39036   3.377   9.052  12.396
12380SOL    HW139037   3.425   9.024  12.474
12380SOL    HW239038   3.344   9.139  12.418
12381SOL     OW39039  14.506  11.082   3.641
12381SOL    HW139040  14.579  11.110   3.586
12381SOL    HW239041  14.522  11.125   3.725
12382SOL     OW39042   6.664   1.927  10.612
12382SOL    HW139043   6.599   1.933  10.543
12382SOL    HW239044   6.736   1.983  10.584
12383SOL     OW39045  12.801   8.935   8.516
12383SOL    HW139046  12.716   8.950   8.556
12383SOL    HW239047  12.781   8.885   8.436
12384SOL     OW39048   9.900   5.374   9.194
12384SOL    HW139049   9.967   5.352   9.130
12384SOL    HW239050   9.941   5.437   9.252
12385SOL     OW39051   6.026  10.813  12.293
12385SOL    HW139052   6.069  10.839  12.211
12385SOL    HW239053   5.956  10.754  12.265
12386SOL     OW39054  13.198   6.693  12.511
12386SOL    HW139055  13.231   6.643  12.437
12386SOL    HW239056  13.170   6.627  12.574
12387SOL     OW39057  13.858   2.837   4.576
12387SOL    HW139058  13.935   2.864   4.627
12387SOL    HW239059  13.831   2.754   4.616
12388SOL     OW39060   0.974  10.371   3.670
12388SOL    HW139061   1.069  10.382   3.677
12388SOL    HW239062   0.962  10.313   3.594
12389SOL     OW39063   3.673  14.734   7.922
12389SOL    HW139064   3.640  14.815   7.883
12389SOL    HW239065   3.746  14.761   7.977
12390SOL     OW39066   3.010  13.720  11.427
12390SOL    HW139067   3.042  13.773  11.355
12390SOL    HW239068   3.014  13.630  11.395
12391SOL     OW39069   1.824   5.683  11.885
12391SOL    HW139070   1.890   5.752  11.892
12391SOL    HW239071   1.868   5.605  11.920
12392SOL     OW39072  10.776   5.047   9.370
12392SOL    HW139073  10.721   4.992   9.426
12392SOL    HW239074  10.742   5.135   9.381
12393SOL     OW39075   4.056  11.100   0.310
12393SOL    HW139076   3.995  11.045   0.358
12393SOL    HW239077   4.032  11.089   0.218
12394SOL     OW39078  14.436  14.151   3.170
12394SOL    HW139079  14.451  14.071   3.220
12394SOL    HW239080  14.498  14.145   3.097
12395SOL     OW39081   9.567   5.450   0.734
12395SOL    HW139082   9.642   5.433   0.678
12395SOL    HW239083   9.575   5.388   0.806
12396SOL     OW39084  10.220  10.013   0.162
12396SOL    HW139085  10.288   9.957   0.200
12396SOL    HW239086  10.231  10.003   0.067
12397SOL     OW39087   5.945  12.579   5.582
12397SOL    HW139088   5.920  12.507   5.640
12397SOL    HW239089   5.993  12.640   5.639
12398SOL     OW39090   0.355   9.056   1.736
12398SOL    HW139091   0.314   9.092   1.657
12398SOL    HW239092   0.449   9.057   1.717
12399SOL     OW39093   1.635  12.874   7.487
12399SOL    HW139094   1.582  12.826   7.424
12399SOL    HW239095   1.571  12.926   7.537
12400SOL     OW39096   1.376   7.903  12.351
12400SOL    HW139097   1.387   7.843  12.277
12400SOL    HW239098   1.401   7.852  12.428
12401SOL     OW39099  10.195  13.968  13.367
12401SOL    HW139100  10.136  13.968  13.443
12401SOL    HW239101  10.204  14.061  13.344
12402SOL     OW39102   9.484   7.582   7.831
12402SOL    HW139103   9.426   7.657   7.836
12402SOL    HW239104   9.426   7.506   7.837
12403SOL     OW39105  11.027   9.244  13.629
12403SOL    HW139106  11.113   9.248  13.670
12403SOL    HW239107  10.998   9.154  13.642
12404SOL     OW39108   8.777   9.219   9.071
12404SOL    HW139109   8.739   9.132   9.078
12404SOL    HW239110   8.799   9.229   8.978
12405SOL     OW39111  10.171   4.983  14.433
12405SOL    HW139112  10.092   4.936  14.408
12405SOL    HW239113  10.202   5.024  14.352
12406SOL     OW39114   7.583  13.506   0.089
12406SOL    HW139115   7.564  13.576   0.152
12406SOL    HW239116   7.513  13.513   0.024
12407SOL     OW39117  10.602  13.770   9.970
12407SOL    HW139118  10.649  13.816  10.041
12407SOL    HW239119  10.574  13.840   9.912
12408SOL     OW39120   1.665  12.914   8.321
12408SOL    HW139121   1.609  12.991   8.309
12408SOL    HW239122   1.754  12.950   8.323
12409SOL     OW39123   1.313   3.089   0.022
12409SOL    HW139124   1.381   3.115  14.840
12409SOL    HW239125   1.355   3.024   0.078
12410SOL     OW39126   8.848  14.426   0.831
12410SOL    HW139127   8.805  14.449   0.748
12410SOL    HW239128   8.881  14.337   0.817
12411SOL     OW39129  14.648   6.978   1.631
12411SOL    HW139130  14.605   6.915   1.689
12411SOL    HW239131  14.709   6.926   1.580
12412SOL     OW39132  13.938   0.049  11.336
12412SOL    HW139133  13.967   0.125  11.386
12412SOL    HW239134  13.971  14.853  11.384
12413SOL     OW39135   9.565   2.353  11.734
12413SOL    HW139136   9.509   2.278  11.756
12413SOL    HW239137   9.558   2.411  11.809
12414SOL     OW39138   0.393  10.553   2.001
12414SOL    HW139139   0.415  10.490   1.932
12414SOL    HW239140   0.451  10.627   1.984
12415SOL     OW39141   6.041   9.296  10.560
12415SOL    HW139142   6.010   9.223  10.507
12415SOL    HW239143   6.131   9.310  10.530
12416SOL     OW39144   2.127   6.563   1.759
12416SOL    HW139145   2.206   6.608   1.789
12416SOL    HW239146   2.131   6.476   1.800
12417SOL     OW39147  10.359   9.830   6.992
12417SOL    HW139148  10.293   9.864   7.052
12417SOL    HW239149  10.443   9.860   7.029
12418SOL     OW39150   1.157   2.383   8.406
12418SOL    HW139151   1.102   2.340   8.341
12418SOL    HW239152   1.096   2.417   8.472
12419SOL     OW39153   7.272   0.495   7.158
12419SOL    HW139154   7.340   0.534   7.104
12419SOL    HW239155   7.265   0.554   7.234
12420SOL     OW39156  13.695  14.781   1.820
12420SOL    HW139157  13.729  14.780   1.910
12420SOL    HW239158  13.614  14.832   1.827
12421SOL     OW39159  13.437   8.415   2.278
12421SOL    HW139160  13.369   8.438   2.343
12421SOL    HW239161  13.477   8.335   2.312
12422SOL     OW39162  11.939   2.417   2.370
12422SOL    HW139163  11.917   2.509   2.357
12422SOL    HW239164  11.952   2.383   2.282
12423SOL     OW39165   2.844  14.007   3.144
12423SOL    HW139166   2.769  14.065   3.159
12423SOL    HW239167   2.920  14.066   3.146
12424SOL     OW39168   8.963   3.936   7.637
12424SOL    HW139169   8.922   4.022   7.640
12424SOL    HW239170   9.056   3.952   7.652
12425SOL     OW39171  12.136   0.373   7.449
12425SOL    HW139172  12.182   0.414   7.376
12425SOL    HW239173  12.052   0.419   7.452
12426SOL     OW39174  13.892   2.491  11.231
12426SOL    HW139175  13.945   2.420  11.195
12426SOL    HW239176  13.955   2.550  11.272
12427SOL     OW39177   5.694   0.338   2.427
12427SOL    HW139178   5.609   0.301   2.451
12427SOL    HW239179   5.704   0.414   2.484
12428SOL     OW39180   5.855   0.380   2.174
12428SOL    HW139181   5.780   0.378   2.232
12428SOL    HW239182   5.897   0.295   2.186
12429SOL     OW39183  14.670   2.388  13.172
12429SOL    HW139184  14.744   2.334  13.144
12429SOL    HW239185  14.705   2.477  13.172
12430SOL     OW39186   8.752   5.528   9.786
12430SOL    HW139187   8.845   5.545   9.768
12430SOL    HW239188   8.739   5.559   9.875
12431SOL     OW39189   3.068   4.031  12.324
12431SOL    HW139190   3.139   4.052  12.264
12431SOL    HW239191   3.097   3.951  12.368
12432SOL     OW39192   0.052   0.217  11.477
12432SOL    HW139193   0.123   0.242  11.418
12432SOL    HW239194   0.013   0.300  11.504
12433SOL     OW39195  14.187  14.615  11.204
12433SOL    HW139196  14.111  14.556  11.198
12433SOL    HW239197  14.154  14.700  11.174
12434SOL     OW39198   9.986   5.528   8.843
12434SOL    HW139199   9.904   5.479   8.854
12434SOL    HW239200   9.964   5.595   8.778
12435SOL     OW39201   1.932   1.465   4.234
12435SOL    HW139202   1.914   1.523   4.309
12435SOL    HW239203   2.013   1.420   4.258
12436SOL     OW39204   6.771  13.345  11.338
12436SOL    HW139205   6.702  13.365  11.274
12436SOL    HW239206   6.729  13.353  11.423
12437SOL     OW39207  11.031   8.180  13.808
12437SOL    HW139208  11.070   8.248  13.753
12437SOL    HW239209  11.099   8.113  13.816
12438SOL     OW39210   8.498  14.170   1.750
12438SOL    HW139211   8.421  14.226   1.738
12438SOL    HW239212   8.551  14.215   1.815
12439SOL     OW39213  11.766  12.025   5.399
12439SOL    HW139214  11.678  12.055   5.376
12439SOL    HW239215  11.765  12.017   5.494
12440SOL     OW39216   6.732   5.856   7.169
12440SOL    HW139217   6.726   5.897   7.256
12440SOL    HW239218   6.663   5.790   7.170
12441SOL     OW39219   4.661   0.820   2.713
12441SOL    HW139220   4.659   0.894   2.652
12441SOL    HW239221   4.702   0.749   2.663
12442SOL     OW39222   4.745   5.238  12.415
12442SOL    HW139223   4.699   5.208  12.493
12442SOL    HW239224   4.677   5.247  12.348
12443SOL     OW39225   2.077   1.190   3.568
12443SOL    HW139226   1.992   1.182   3.523
12443SOL    HW239227   2.085   1.283   3.588
12444SOL     OW39228   8.153   9.013   8.367
12444SOL    HW139229   8.090   9.066   8.317
12444SOL    HW239230   8.235   9.063   8.363
12445SOL     OW39231   8.801   4.136   0.835
12445SOL    HW139232   8.804   4.044   0.810
12445SOL    HW239233   8.763   4.136   0.923
12446SOL     OW39234   5.659  13.664   6.573
12446SOL    HW139235   5.632  13.615   6.495
12446SOL    HW239236   5.730  13.612   6.611
12447SOL     OW39237  10.350   7.639   3.057
12447SOL    HW139238  10.385   7.700   3.122
12447SOL    HW239239  10.423   7.580   3.038
12448SOL     OW39240   0.318   3.463   4.916
12448SOL    HW139241   0.328   3.528   4.846
12448SOL    HW239242   0.375   3.391   4.890
12449SOL     OW39243   5.217   2.192   1.597
12449SOL    HW139244   5.304   2.193   1.556
12449SOL    HW239245   5.230   2.235   1.681
12450SOL     OW39246  13.191   8.994  10.931
12450SOL    HW139247  13.261   8.956  10.877
12450SOL    HW239248  13.234   9.064  10.980
12451SOL     OW39249  12.442   1.246   3.673
12451SOL    HW139250  12.461   1.339   3.688
12451SOL    HW239251  12.351   1.235   3.700
12452SOL     OW39252   7.454   1.508  12.509
12452SOL    HW139253   7.546   1.531  12.500
12452SOL    HW239254   7.436   1.450  12.435
12453SOL     OW39255   4.063   2.050   2.253
12453SOL    HW139256   4.023   2.054   2.339
12453SOL    HW239257   4.066   2.141   2.223
12454SOL     OW39258   1.759   0.937   2.316
12454SOL    HW139259   1.826   0.912   2.380
12454SOL    HW239260   1.744   1.030   2.332
12455SOL     OW39261  13.190  11.834   4.483
12455SOL    HW139262  13.127  11.767   4.456
12455SOL    HW239263  13.140  11.916   4.480
12456SOL     OW39264   9.736   5.340   2.715
12456SOL    HW139265   9.713   5.360   2.624
12456SOL    HW239266   9.808   5.277   2.708
12457SOL     OW39267  10.528  10.963  13.692
12457SOL    HW139268  10.543  10.869  13.685
12457SOL    HW239269  10.441  10.977  13.657
12458SOL     OW39270   9.167   3.986  14.795
12458SOL    HW139271   9.095   3.992  14.858
12458SOL    HW239272   9.196   4.076  14.782
12459SOL     OW39273   0.877   6.034   7.056
12459SOL    HW139274   0.871   5.991   6.971
12459SOL    HW239275   0.833   5.974   7.116
12460SOL     OW39276   6.008   8.163  12.690
12460SOL    HW139277   6.076   8.218  12.650
12460SOL    HW239278   5.992   8.094  12.626
12461SOL     OW39279  14.681  12.897   7.753
12461SOL    HW139280  14.621  12.968   7.777
12461SOL    HW239281  14.628  12.817   7.759
12462SOL     OW39282  12.316   0.452   6.908
12462SOL    HW139283  12.314   0.463   6.813
12462SOL    HW239284  12.409   0.449   6.929
12463SOL     OW39285   9.117   6.144  10.049
12463SOL    HW139286   9.182   6.074  10.037
12463SOL    HW239287   9.121   6.193   9.967
12464SOL     OW39288   9.978   8.254   8.982
12464SOL    HW139289   9.958   8.337   9.026
12464SOL    HW239290   9.980   8.277   8.889
12465SOL     OW39291   9.348  13.222   9.845
12465SOL    HW139292   9.266  13.176   9.864
12465SOL    HW239293   9.348  13.296   9.907
12466SOL     OW39294   4.922   3.790   3.153
12466SOL    HW139295   4.913   3.817   3.062
12466SOL    HW239296   4.912   3.694   3.150
12467SOL     OW39297   6.456  13.832   2.003
12467SOL    HW139298   6.459  13.763   1.936
12467SOL    HW239299   6.363  13.846   2.018
12468SOL     OW39300   3.313   0.678   9.474
12468SOL    HW139301   3.235   0.716   9.435
12468SOL    HW239302   3.352   0.625   9.405
12469SOL     OW39303   8.602  14.459   5.752
12469SOL    HW139304   8.612  14.553   5.737
12469SOL    HW239305   8.690  14.424   5.745
12470SOL     OW39306   3.874   7.787   4.532
12470SOL    HW139307   3.793   7.737   4.541
12470SOL    HW239308   3.849   7.877   4.552
12471SOL     OW39309  13.600   4.507   7.412
12471SOL    HW139310  13.527   4.446   7.399
12471SOL    HW239311  13.564   4.593   7.387
12472SOL     OW39312   6.438  10.422  13.016
12472SOL    HW139313   6.486  10.504  13.000
12472SOL    HW239314   6.497  10.370  13.070
12473SOL     OW39315   0.684  12.823   7.480
12473SOL    HW139316   0.652  12.768   7.552
12473SOL    HW239317   0.753  12.877   7.520
12474SOL     OW39318  14.042  14.578   0.740
12474SOL    HW139319  14.011  14.488   0.742
12474SOL    HW239320  14.137  14.571   0.737
12475SOL     OW39321   1.493   4.463  10.645
12475SOL    HW139322   1.507   4.499  10.557
12475SOL    HW239323   1.486   4.368  10.631
12476SOL     OW39324   9.900   7.676   5.208
12476SOL    HW139325   9.831   7.658   5.273
12476SOL    HW239326   9.892   7.605   5.145
12477SOL     OW39327  13.090   3.041  12.831
12477SOL    HW139328  13.157   3.029  12.898
12477SOL    HW239329  13.130   3.100  12.768
12478SOL     OW39330   1.561  12.925   7.873
12478SOL    HW139331   1.591  13.004   7.919
12478SOL    HW239332   1.619  12.856   7.904
12479SOL     OW39333   9.306   1.716  11.697
12479SOL    HW139334   9.246   1.786  11.673
12479SOL    HW239335   9.318   1.725  11.791
12480SOL     OW39336  10.249   3.887   3.733
12480SOL    HW139337  10.229   3.873   3.641
12480SOL    HW239338  10.175   3.938   3.767
12481SOL     OW39339   9.472   5.492  11.548
12481SOL    HW139340   9.489   5.517  11.639
12481SOL    HW239341   9.543   5.531  11.498
12482SOL     OW39342   9.122  10.185   3.581
12482SOL    HW139343   9.119  10.091   3.594
12482SOL    HW239344   9.062  10.202   3.509
12483SOL     OW39345   9.706   6.941  12.021
12483SOL    HW139346   9.759   6.899  12.089
12483SOL    HW239347   9.643   6.995  12.069
12484SOL     OW39348  10.743   0.439   1.222
12484SOL    HW139349  10.756   0.354   1.264
12484SOL    HW239350  10.683   0.421   1.150
12485SOL     OW39351   0.329   9.462   0.412
12485SOL    HW139352   0.395   9.445   0.345
12485SOL    HW239353   0.340   9.392   0.476
12486SOL     OW39354   5.991   0.637   2.156
12486SOL    HW139355   5.897   0.642   2.137
12486SOL    HW239356   6.023   0.568   2.098
12487SOL     OW39357   2.942   6.526  11.143
12487SOL    HW139358   2.997   6.449  11.159
12487SOL    HW239359   2.983   6.570  11.069
12488SOL     OW39360   8.056   7.338  11.580
12488SOL    HW139361   8.121   7.273  11.606
12488SOL    HW239362   7.972   7.299  11.603
12489SOL     OW39363   3.763   0.552   5.372
12489SOL    HW139364   3.794   0.471   5.333
12489SOL    HW239365   3.729   0.527   5.457
12490SOL     OW39366   3.404  13.646   3.309
12490SOL    HW139367   3.475  13.709   3.317
12490SOL    HW239368   3.334  13.694   3.265
12491SOL     OW39369   3.420   6.164  14.718
12491SOL    HW139370   3.496   6.216  14.694
12491SOL    HW239371   3.407   6.182  14.811
12492SOL     OW39372   8.628  12.887   7.874
12492SOL    HW139373   8.656  12.851   7.790
12492SOL    HW239374   8.633  12.982   7.861
12493SOL     OW39375  10.197  10.184   1.410
12493SOL    HW139376  10.151  10.103   1.389
12493SOL    HW239377  10.222  10.221   1.325
12494SOL     OW39378   7.329  11.192   1.648
12494SOL    HW139379   7.348  11.115   1.594
12494SOL    HW239380   7.378  11.177   1.729
12495SOL     OW39381   4.912   4.140  13.420
12495SOL    HW139382   4.927   4.160  13.327
12495SOL    HW239383   4.912   4.226  13.463
12496SOL     OW39384  14.805  10.346   0.317
12496SOL    HW139385  14.788  10.254   0.297
12496SOL    HW239386  14.865  10.374   0.248
12497SOL     OW39387   9.563  13.665   2.272
12497SOL    HW139388   9.553  13.570   2.272
12497SOL    HW239389   9.493  13.697   2.330
12498SOL     OW39390   8.789   7.318  14.675
12498SOL    HW139391   8.815   7.408  14.658
12498SOL    HW239392   8.870   7.268  14.667
12499SOL     OW39393  14.632   3.186   1.870
12499SOL    HW139394  14.625   3.194   1.965
12499SOL    HW239395  14.699   3.119   1.857
12500SOL     OW39396  11.689   5.940   0.523
12500SOL    HW139397  11.664   5.916   0.434
12500SOL    HW239398  11.785   5.931   0.524
12501SOL     OW39399   5.495   9.706   2.541
12501SOL    HW139400   5.518   9.640   2.475
12501SOL    HW239401   5.546   9.682   2.617
12502SOL     OW39402   8.500   1.990  10.165
12502SOL    HW139403   8.415   2.021  10.197
12502SOL    HW239404   8.538   1.945  10.240
12503SOL     OW39405  11.193   4.416   0.490
12503SOL    HW139406  11.098   4.421   0.503
12503SOL    HW239407  11.212   4.484   0.426
12504SOL     OW39408   4.253   7.307  13.255
12504SOL    HW139409   4.227   7.317  13.346
12504SOL    HW239410   4.171   7.299  13.207
12505SOL     OW39411   5.643   3.863   0.785
12505SOL    HW139412   5.591   3.922   0.731
12505SOL    HW239413   5.641   3.902   0.873
12506SOL     OW39414  12.953   5.158  11.018
12506SOL    HW139415  12.982   5.069  10.996
12506SOL    HW239416  12.979   5.211  10.942
12507SOL     OW39417   5.447  10.920   1.279
12507SOL    HW139418   5.484  10.852   1.335
12507SOL    HW239419   5.522  10.973   1.253
12508SOL     OW39420   0.579   6.407   7.620
12508SOL    HW139421   0.671   6.381   7.618
12508SOL    HW239422   0.535   6.340   7.567
12509SOL     OW39423  12.568   9.329   7.156
12509SOL    HW139424  12.543   9.237   7.153
12509SOL    HW239425  12.516   9.366   7.227
12510SOL     OW39426  11.902   9.128  14.676
12510SOL    HW139427  11.929   9.075  14.602
12510SOL    HW239428  11.812   9.155  14.655
12511SOL     OW39429  11.338   5.101   7.098
12511SOL    HW139430  11.310   5.151   7.175
12511SOL    HW239431  11.323   5.160   7.025
12512SOL     OW39432   1.690   3.678  14.632
12512SOL    HW139433   1.704   3.641  14.719
12512SOL    HW239434   1.748   3.753  14.628
12513SOL     OW39435   3.725   9.641  11.881
12513SOL    HW139436   3.803   9.659  11.932
12513SOL    HW239437   3.752   9.577  11.816
12514SOL     OW39438   0.378  12.955  13.028
12514SOL    HW139439   0.284  12.956  13.041
12514SOL    HW239440   0.391  12.904  12.948
12515SOL     OW39441   6.210   8.197   2.627
12515SOL    HW139442   6.200   8.288   2.598
12515SOL    HW239443   6.176   8.197   2.716
12516SOL     OW39444   6.885  13.049  11.941
12516SOL    HW139445   6.962  12.993  11.933
12516SOL    HW239446   6.914  13.136  11.916
12517SOL     OW39447   4.529   8.968  14.176
12517SOL    HW139448   4.604   8.911  14.157
12517SOL    HW239449   4.460   8.909  14.204
12518SOL     OW39450   0.553   1.230   1.107
12518SOL    HW139451   0.527   1.140   1.127
12518SOL    HW239452   0.471   1.273   1.082
12519SOL     OW39453   5.638   3.273  12.622
12519SOL    HW139454   5.684   3.190  12.636
12519SOL    HW239455   5.707   3.338  12.616
12520SOL     OW39456   8.878  11.628  13.125
12520SOL    HW139457   8.806  11.675  13.083
12520SOL    HW239458   8.957  11.666  13.086
12521SOL     OW39459   4.104   0.475   8.733
12521SOL    HW139460   4.113   0.382   8.709
12521SOL    HW239461   4.194   0.505   8.745
12522SOL     OW39462   0.099  11.540   0.109
12522SOL    HW139463   0.194  11.547   0.112
12522SOL    HW239464   0.072  11.541   0.201
12523SOL     OW39465   3.854   2.153   5.409
12523SOL    HW139466   3.788   2.096   5.448
12523SOL    HW239467   3.887   2.104   5.333
12524SOL     OW39468   9.261   0.025   0.766
12524SOL    HW139469   9.230  14.849   0.837
12524SOL    HW239470   9.291  14.843   0.699
12525SOL     OW39471   8.126   5.345   7.561
12525SOL    HW139472   8.126   5.374   7.470
12525SOL    HW239473   8.097   5.253   7.557
12526SOL     OW39474   2.350   1.484  11.626
12526SOL    HW139475   2.299   1.468  11.547
12526SOL    HW239476   2.386   1.572  11.613
12527SOL     OW39477   8.635   7.400  12.840
12527SOL    HW139478   8.621   7.455  12.917
12527SOL    HW239479   8.705   7.443  12.791
12528SOL     OW39480  12.246  13.684   9.357
12528SOL    HW139481  12.175  13.668   9.420
12528SOL    HW239482  12.322  13.640   9.394
12529SOL     OW39483  13.575   2.010  11.457
12529SOL    HW139484  13.556   1.958  11.535
12529SOL    HW239485  13.621   1.949  11.399
12530SOL     OW39486  12.253   8.423   2.504
12530SOL    HW139487  12.313   8.359   2.465
12530SOL    HW239488  12.262   8.501   2.450
12531SOL     OW39489   1.275   5.864  12.490
12531SOL    HW139490   1.184   5.838  12.505
12531SOL    HW239491   1.293   5.931  12.556
12532SOL     OW39492   5.179   6.266   7.239
12532SOL    HW139493   5.234   6.245   7.164
12532SOL    HW239494   5.218   6.345   7.276
12533SOL     OW39495  11.985   6.567   9.661
12533SOL    HW139496  11.903   6.594   9.704
12533SOL    HW239497  12.037   6.529   9.732
12534SOL     OW39498   7.329   4.192   8.296
12534SOL    HW139499   7.335   4.167   8.204
12534SOL    HW239500   7.407   4.154   8.336
12535SOL     OW39501   0.631  11.775  12.815
12535SOL    HW139502   0.641  11.711  12.745
12535SOL    HW239503   0.558  11.742  12.867
12536SOL     OW39504  12.834  14.081   3.535
12536SOL    HW139505  12.885  14.159   3.553
12536SOL    HW239506  12.808  14.048   3.621
12537SOL     OW39507   0.514   5.348  11.003
12537SOL    HW139508   0.575   5.408  11.046
12537SOL    HW239509   0.450   5.406  10.961
12538SOL     OW39510   7.657   9.787  11.039
12538SOL    HW139511   7.648   9.775  11.134
12538SOL    HW239512   7.743   9.828  11.028
12539SOL     OW39513  10.896   5.139  12.306
12539SOL    HW139514  10.929   5.217  12.349
12539SOL    HW239515  10.825   5.171  12.250
12540SOL     OW39516   0.665   8.444   4.839
12540SOL    HW139517   0.666   8.365   4.785
12540SOL    HW239518   0.740   8.433   4.898
12541SOL     OW39519  12.192  13.600  11.442
12541SOL    HW139520  12.116  13.582  11.386
12541SOL    HW239521  12.205  13.519  11.491
12542SOL     OW39522   3.886   0.575  12.959
12542SOL    HW139523   3.929   0.657  12.932
12542SOL    HW239524   3.924   0.556  13.045
12543SOL     OW39525   6.486   5.481   6.783
12543SOL    HW139526   6.503   5.567   6.822
12543SOL    HW239527   6.558   5.469   6.721
12544SOL     OW39528   9.494  14.647   1.217
12544SOL    HW139529   9.425  14.599   1.263
12544SOL    HW239530   9.460  14.659   1.128
12545SOL     OW39531   9.145   0.619   0.827
12545SOL    HW139532   9.241   0.615   0.823
12545SOL    HW239533   9.119   0.647   0.739
12546SOL     OW39534  12.913  11.385   6.225
12546SOL    HW139535  12.898  11.299   6.185
12546SOL    HW239536  13.007  11.385   6.246
12547SOL     OW39537  10.539  12.441   4.003
12547SOL    HW139538  10.559  12.394   3.922
12547SOL    HW239539  10.510  12.527   3.975
12548SOL     OW39540  12.251   8.739   6.141
12548SOL    HW139541  12.251   8.668   6.205
12548SOL    HW239542  12.193   8.805   6.179
12549SOL     OW39543  14.758  11.331   6.945
12549SOL    HW139544  14.854  11.338   6.947
12549SOL    HW239545  14.732  11.391   6.875
12550SOL     OW39546   8.903   8.458   3.274
12550SOL    HW139547   8.833   8.509   3.233
12550SOL    HW239548   8.859   8.398   3.333
12551SOL     OW39549   7.375   7.713   6.226
12551SOL    HW139550   7.358   7.806   6.216
12551SOL    HW239551   7.469   7.707   6.241
12552SOL     OW39552  13.301   7.904   6.921
12552SOL    HW139553  13.281   7.916   6.828
12552SOL    HW239554  13.339   7.816   6.926
12553SOL     OW39555   1.093  12.464   2.933
12553SOL    HW139556   1.070  12.462   2.840
12553SOL    HW239557   1.098  12.557   2.954
12554SOL     OW39558  14.358   3.666   6.521
12554SOL    HW139559  14.357   3.632   6.610
12554SOL    HW239560  14.430   3.619   6.478
12555SOL     OW39561   6.206   8.371  14.337
12555SOL    HW139562   6.264   8.412  14.402
12555SOL    HW239563   6.265   8.325  14.278
12556SOL     OW39564  10.330  11.077   7.216
12556SOL    HW139565  10.392  11.053   7.284
12556SOL    HW239566  10.261  11.125   7.262
12557SOL     OW39567   2.956  11.634  11.022
12557SOL    HW139568   3.040  11.640  11.069
12557SOL    HW239569   2.910  11.562  11.064
12558SOL     OW39570  11.837   1.237   8.100
12558SOL    HW139571  11.917   1.210   8.055
12558SOL    HW239572  11.786   1.284   8.034
12559SOL     OW39573   2.038   9.643   5.261
12559SOL    HW139574   2.122   9.615   5.225
12559SOL    HW239575   2.032   9.736   5.238
12560SOL     OW39576   7.235   4.436   9.046
12560SOL    HW139577   7.305   4.500   9.029
12560SOL    HW239578   7.253   4.402   9.133
12561SOL     OW39579  11.516  14.438  11.402
12561SOL    HW139580  11.568  14.488  11.338
12561SOL    HW239581  11.465  14.377  11.348
12562SOL     OW39582   6.467  13.085   2.164
12562SOL    HW139583   6.562  13.087   2.156
12562SOL    HW239584   6.436  13.140   2.092
12563SOL     OW39585  12.118   7.019   9.699
12563SOL    HW139586  12.099   6.932   9.665
12563SOL    HW239587  12.047   7.036   9.761
12564SOL     OW39588   0.243  13.778   7.343
12564SOL    HW139589   0.288  13.694   7.341
12564SOL    HW239590   0.256  13.810   7.432
12565SOL     OW39591  12.759  11.293   3.287
12565SOL    HW139592  12.728  11.216   3.240
12565SOL    HW239593  12.789  11.353   3.218
12566SOL     OW39594  14.592   7.407  12.676
12566SOL    HW139595  14.536   7.335  12.647
12566SOL    HW239596  14.567   7.481  12.621
12567SOL     OW39597  14.820   1.678   1.238
12567SOL    HW139598  14.862   1.659   1.155
12567SOL    HW239599  14.870   1.750   1.275
12568SOL     OW39600   1.955  14.772   3.370
12568SOL    HW139601   1.863  14.787   3.348
12568SOL    HW239602   1.992  14.859   3.378
12569SOL     OW39603  13.430   6.278   8.654
12569SOL    HW139604  13.442   6.362   8.699
12569SOL    HW239605  13.481   6.216   8.705
12570SOL     OW39606   8.231   5.358   7.879
12570SOL    HW139607   8.186   5.442   7.873
12570SOL    HW239608   8.298   5.371   7.946
12571SOL     OW39609  11.033   8.717   6.705
12571SOL    HW139610  11.075   8.637   6.674
12571SOL    HW239611  11.069   8.732   6.792
12572SOL     OW39612   2.467  13.298   6.342
12572SOL    HW139613   2.392  13.261   6.295
12572SOL    HW239614   2.429  13.362   6.401
12573SOL     OW39615  12.723   3.466   8.112
12573SOL    HW139616  12.765   3.459   8.197
12573SOL    HW239617  12.764   3.398   8.059
12574SOL     OW39618   9.692  11.944   3.485
12574SOL    HW139619   9.766  12.003   3.499
12574SOL    HW239620   9.727  11.874   3.431
12575SOL     OW39621   4.920  12.470  11.105
12575SOL    HW139622   4.992  12.408  11.091
12575SOL    HW239623   4.847  12.415  11.134
12576SOL     OW39624   1.434   2.142   3.061
12576SOL    HW139625   1.363   2.118   3.121
12576SOL    HW239626   1.443   2.237   3.071
12577SOL     OW39627   0.268  12.893   3.663
12577SOL    HW139628   0.299  12.802   3.656
12577SOL    HW239629   0.266  12.924   3.572
12578SOL     OW39630  11.980  13.906   7.789
12578SOL    HW139631  12.063  13.860   7.777
12578SOL    HW239632  11.941  13.906   7.702
12579SOL     OW39633   4.194   4.854   3.038
12579SOL    HW139634   4.142   4.823   2.964
12579SOL    HW239635   4.238   4.776   3.071
12580SOL     OW39636  13.951   9.623   4.628
12580SOL    HW139637  14.008   9.699   4.639
12580SOL    HW239638  13.873   9.659   4.583
12581SOL     OW39639   7.868   8.444   2.121
12581SOL    HW139640   7.836   8.498   2.049
12581SOL    HW239641   7.912   8.505   2.180
12582SOL     OW39642   2.041  14.457   3.096
12582SOL    HW139643   1.959  14.427   3.057
12582SOL    HW239644   2.014  14.516   3.166
12583SOL     OW39645  12.030   5.531  12.551
12583SOL    HW139646  11.996   5.619  12.539
12583SOL    HW239647  12.015   5.512  12.644
12584SOL     OW39648   2.007  13.617   1.849
12584SOL    HW139649   1.958  13.536   1.838
12584SOL    HW239650   2.092  13.589   1.884
12585SOL     OW39651   9.497   8.279   3.178
12585SOL    HW139652   9.572   8.323   3.218
12585SOL    HW239653   9.499   8.191   3.215
12586SOL     OW39654  12.420  10.805  12.887
12586SOL    HW139655  12.423  10.719  12.930
12586SOL    HW239656  12.384  10.786  12.800
12587SOL     OW39657  11.805  13.318  14.452
12587SOL    HW139658  11.875  13.355  14.399
12587SOL    HW239659  11.742  13.284  14.389
12588SOL     OW39660  10.525   8.197   2.554
12588SOL    HW139661  10.544   8.204   2.460
12588SOL    HW239662  10.468   8.121   2.561
12589SOL     OW39663  10.541  11.701   1.976
12589SOL    HW139664  10.516  11.675   1.887
12589SOL    HW239665  10.541  11.796   1.974
12590SOL     OW39666   9.478   8.865  11.115
12590SOL    HW139667   9.495   8.803  11.045
12590SOL    HW239668   9.387   8.893  11.101
12591SOL     OW39669  12.997  14.147  13.120
12591SOL    HW139670  13.051  14.101  13.185
12591SOL    HW239671  12.932  14.082  13.094
12592SOL     OW39672   1.370   8.795  12.459
12592SOL    HW139673   1.390   8.745  12.380
12592SOL    HW239674   1.276   8.814  12.451
12593SOL     OW39675  13.630  13.207  13.501
12593SOL    HW139676  13.583  13.274  13.451
12593SOL    HW239677  13.701  13.180  13.443
12594SOL     OW39678  12.273  10.380  14.365
12594SOL    HW139679  12.241  10.292  14.345
12594SOL    HW239680  12.333  10.401  14.294
12595SOL     OW39681   3.556  12.133  10.969
12595SOL    HW139682   3.482  12.126  11.031
12595SOL    HW239683   3.603  12.050  10.979
12596SOL     OW39684   5.423   7.540   6.411
12596SOL    HW139685   5.460   7.584   6.334
12596SOL    HW239686   5.342   7.588   6.429
12597SOL     OW39687  12.681   6.852  11.133
12597SOL    HW139688  12.776   6.844  11.121
12597SOL    HW239689  12.647   6.869  11.045
12598SOL     OW39690   6.940   6.879   0.220
12598SOL    HW139691   6.970   6.831   0.143
12598SOL    HW239692   6.850   6.849   0.233
12599SOL     OW39693   2.408  12.796   5.253
12599SOL    HW139694   2.383  12.816   5.343
12599SOL    HW239695   2.409  12.700   5.248
12600SOL     OW39696  14.628  10.549   0.319
12600SOL    HW139697  14.704  10.492   0.309
12600SOL    HW239698  14.665  10.631   0.353
12601SOL     OW39699   5.489  14.618   9.104
12601SOL    HW139700   5.516  14.541   9.154
12601SOL    HW239701   5.456  14.678   9.171
12602SOL     OW39702   1.474   3.869  14.506
12602SOL    HW139703   1.452   3.907  14.592
12602SOL    HW239704   1.542   3.805  14.525
12603SOL     OW39705  13.120   3.884   6.264
12603SOL    HW139706  13.067   3.828   6.321
12603SOL    HW239707  13.080   3.971   6.272
12604SOL     OW39708  11.072   2.963   2.832
12604SOL    HW139709  10.996   2.929   2.786
12604SOL    HW239710  11.104   3.035   2.777
12605SOL     OW39711   5.362  14.451   4.433
12605SOL    HW139712   5.322  14.463   4.347
12605SOL    HW239713   5.333  14.364   4.460
12606SOL     OW39714  12.178   1.223   1.089
12606SOL    HW139715  12.219   1.164   1.026
12606SOL    HW239716  12.243   1.292   1.103
12607SOL     OW39717   7.177   1.724   9.121
12607SOL    HW139718   7.197   1.767   9.038
12607SOL    HW239719   7.115   1.655   9.098
12608SOL     OW39720  10.323   9.558   6.860
12608SOL    HW139721  10.323   9.535   6.767
12608SOL    HW239722  10.274   9.640   6.865
12609SOL     OW39723   6.453   6.106   2.975
12609SOL    HW139724   6.390   6.035   2.963
12609SOL    HW239725   6.426   6.173   2.913
12610SOL     OW39726   9.495   5.532   6.185
12610SOL    HW139727   9.545   5.600   6.229
12610SOL    HW239728   9.493   5.558   6.093
12611SOL     OW39729  13.040  14.616  11.674
12611SOL    HW139730  13.023  14.663  11.756
12611SOL    HW239731  13.092  14.677  11.622
12612SOL     OW39732   8.009   6.036  14.624
12612SOL    HW139733   8.032   6.104  14.561
12612SOL    HW239734   8.027   6.075  14.709
12613SOL     OW39735  12.297   7.524   8.999
12613SOL    HW139736  12.227   7.544   9.061
12613SOL    HW239737  12.280   7.435   8.970
12614SOL     OW39738   4.136   4.912   7.976
12614SOL    HW139739   4.157   4.951   8.061
12614SOL    HW239740   4.214   4.924   7.923
12615SOL     OW39741   8.663   9.964   7.622
12615SOL    HW139742   8.597   9.956   7.553
12615SOL    HW239743   8.656  10.055   7.651
12616SOL     OW39744  11.181  13.731  14.811
12616SOL    HW139745  11.096  13.706  14.846
12616SOL    HW239746  11.202  13.813  14.856
12617SOL     OW39747   6.194   4.163   7.680
12617SOL    HW139748   6.282   4.127   7.687
12617SOL    HW239749   6.159   4.156   7.769
12618SOL     OW39750   2.408   9.657   3.145
12618SOL    HW139751   2.377   9.687   3.230
12618SOL    HW239752   2.497   9.626   3.161
12619SOL     OW39753  11.430   0.641   1.780
12619SOL    HW139754  11.363   0.655   1.846
12619SOL    HW239755  11.387   0.591   1.711
12620SOL     OW39756   9.884   9.647   8.356
12620SOL    HW139757   9.884   9.732   8.312
12620SOL    HW239758   9.871   9.583   8.287
12621SOL     OW39759  14.774  11.715  14.621
12621SOL    HW139760  14.819  11.734  14.538
12621SOL    HW239761  14.831  11.652  14.665
12622SOL     OW39762   3.780   8.673   8.621
12622SOL    HW139763   3.859   8.680   8.568
12622SOL    HW239764   3.808   8.626   8.700
12623SOL     OW39765  14.202  13.171  12.497
12623SOL    HW139766  14.228  13.163  12.406
12623SOL    HW239767  14.249  13.100  12.542
12624SOL     OW39768   9.054   5.402  12.320
12624SOL    HW139769   8.988   5.341  12.288
12624SOL    HW239770   9.096   5.355  12.393
12625SOL     OW39771   0.897   4.364   9.995
12625SOL    HW139772   0.898   4.281  10.043
12625SOL    HW239773   0.830   4.417  10.040
12626SOL     OW39774   5.921  12.384   4.402
12626SOL    HW139775   5.885  12.442   4.468
12626SOL    HW239776   5.898  12.425   4.318
12627SOL     OW39777  11.424  11.100   0.798
12627SOL    HW139778  11.395  11.087   0.888
12627SOL    HW239779  11.352  11.148   0.757
12628SOL     OW39780   1.016  11.718   2.459
12628SOL    HW139781   1.069  11.792   2.487
12628SOL    HW239782   1.045  11.700   2.369
12629SOL     OW39783   8.387   5.540   2.320
12629SOL    HW139784   8.300   5.525   2.358
12629SOL    HW239785   8.448   5.516   2.390
12630SOL     OW39786   7.890   0.525  14.383
12630SOL    HW139787   7.900   0.575  14.464
12630SOL    HW239788   7.972   0.475  14.375
12631SOL     OW39789   1.953  14.829   6.136
12631SOL    HW139790   2.011   0.018   6.104
12631SOL    HW239791   1.865  14.862   6.120
12632SOL     OW39792   5.473   7.545  13.887
12632SOL    HW139793   5.384   7.523  13.860
12632SOL    HW239794   5.516   7.572  13.806
12633SOL     OW39795   2.089  11.909   9.054
12633SOL    HW139796   2.126  11.935   9.139
12633SOL    HW239797   2.005  11.956   9.049
12634SOL     OW39798   9.618  12.097   3.926
12634SOL    HW139799   9.706  12.132   3.939
12634SOL    HW239800   9.574  12.111   4.010
12635SOL     OW39801   9.355   7.357  13.407
12635SOL    HW139802   9.410   7.293  13.453
12635SOL    HW239803   9.265   7.333  13.431
12636SOL     OW39804  13.029   2.411   3.723
12636SOL    HW139805  12.981   2.407   3.806
12636SOL    HW239806  13.106   2.465   3.743
12637SOL     OW39807   8.101   5.823   6.192
12637SOL    HW139808   8.020   5.822   6.243
12637SOL    HW239809   8.171   5.823   6.258
12638SOL     OW39810   4.828   2.649   0.197
12638SOL    HW139811   4.784   2.723   0.155
12638SOL    HW239812   4.901   2.688   0.245
12639SOL     OW39813   2.228   9.586   4.105
12639SOL    HW139814   2.317   9.620   4.104
12639SOL    HW239815   2.183   9.637   4.172
12640SOL     OW39816  11.724   8.233   2.588
12640SOL    HW139817  11.752   8.321   2.610
12640SOL    HW239818  11.759   8.178   2.658
12641SOL     OW39819   9.081  11.655   1.682
12641SOL    HW139820   9.099  11.683   1.592
12641SOL    HW239821   9.167  11.644   1.721
12642SOL     OW39822  12.368   0.329  11.613
12642SOL    HW139823  12.303   0.266  11.643
12642SOL    HW239824  12.318   0.407  11.592
12643SOL     OW39825  11.348   4.350   1.757
12643SOL    HW139826  11.305   4.332   1.673
12643SOL    HW239827  11.419   4.410   1.735
12644SOL     OW39828  12.749   8.533  14.248
12644SOL    HW139829  12.713   8.620  14.232
12644SOL    HW239830  12.812   8.520  14.178
12645SOL     OW39831   1.275   7.249   5.559
12645SOL    HW139832   1.306   7.322   5.506
12645SOL    HW239833   1.355   7.204   5.588
12646SOL     OW39834  13.311   8.732   4.241
12646SOL    HW139835  13.229   8.756   4.197
12646SOL    HW239836  13.315   8.637   4.234
12647SOL     OW39837   6.090   8.076  13.033
12647SOL    HW139838   6.049   8.157  13.001
12647SOL    HW239839   6.044   8.006  12.987
12648SOL     OW39840   2.701  14.403   5.561
12648SOL    HW139841   2.610  14.374   5.568
12648SOL    HW239842   2.736  14.393   5.649
12649SOL     OW39843   1.743   0.378  12.643
12649SOL    HW139844   1.779   0.320  12.710
12649SOL    HW239845   1.692   0.320  12.586
12650SOL     OW39846   9.603   6.047   0.491
12650SOL    HW139847   9.652   5.967   0.506
12650SOL    HW239848   9.597   6.053   0.395
12651SOL     OW39849   3.377  12.115   5.937
12651SOL    HW139850   3.399  12.062   5.860
12651SOL    HW239851   3.382  12.053   6.011
12652SOL     OW39852   8.634   4.815   6.026
12652SOL    HW139853   8.667   4.842   6.112
12652SOL    HW239854   8.695   4.746   5.997
12653SOL     OW39855   7.637  11.975   4.825
12653SOL    HW139856   7.588  12.043   4.778
12653SOL    HW239857   7.631  12.002   4.917
12654SOL     OW39858  13.666  10.561   3.269
12654SOL    HW139859  13.624  10.642   3.299
12654SOL    HW239860  13.742  10.551   3.326
12655SOL     OW39861   1.877  12.387  11.530
12655SOL    HW139862   1.841  12.398  11.443
12655SOL    HW239863   1.821  12.322  11.572
12656SOL     OW39864  13.259  14.679   4.217
12656SOL    HW139865  13.259  14.595   4.264
12656SOL    HW239866  13.169  14.690   4.188
12657SOL     OW39867   2.340   3.154  10.588
12657SOL    HW139868   2.267   3.116  10.638
12657SOL    HW239869   2.302   3.230  10.544
12658SOL     OW39870   8.762   4.847   4.612
12658SOL    HW139871   8.680   4.798   4.615
12658SOL    HW239872   8.808   4.812   4.536
12659SOL     OW39873   3.215  13.321   9.089
12659SOL    HW139874   3.272  13.396   9.073
12659SOL    HW239875   3.268  13.245   9.067
12660SOL     OW39876  11.578  13.457   0.549
12660SOL    HW139877  11.621  13.527   0.500
12660SOL    HW239878  11.577  13.383   0.488
12661SOL     OW39879  10.945   3.176   5.757
12661SOL    HW139880  10.993   3.093   5.760
12661SOL    HW239881  10.934   3.200   5.849
12662SOL     OW39882  13.882   7.632   2.438
12662SOL    HW139883  13.889   7.575   2.515
12662SOL    HW239884  13.894   7.721   2.473
12663SOL     OW39885  11.121   1.276  14.322
12663SOL    HW139886  11.214   1.294  14.334
12663SOL    HW239887  11.103   1.204  14.382
12664SOL     OW39888  11.843   9.773   6.976
12664SOL    HW139889  11.877   9.684   6.985
12664SOL    HW239890  11.836   9.806   7.065
12665SOL     OW39891   6.040   1.731   7.181
12665SOL    HW139892   6.038   1.715   7.275
12665SOL    HW239893   6.065   1.823   7.173
12666SOL     OW39894   1.938   1.287   8.193
12666SOL    HW139895   1.992   1.283   8.114
12666SOL    HW239896   1.950   1.202   8.235
12667SOL     OW39897  12.891   1.029   6.640
12667SOL    HW139898  12.957   1.007   6.574
12667SOL    HW239899  12.811   1.042   6.589
12668SOL     OW39900   4.340   8.235  12.483
12668SOL    HW139901   4.333   8.235  12.387
12668SOL    HW239902   4.433   8.246  12.500
12669SOL     OW39903   0.686   0.416   9.021
12669SOL    HW139904   0.693   0.510   9.004
12669SOL    HW239905   0.777   0.385   9.022
12670SOL     OW39906   1.553   5.975   2.477
12670SOL    HW139907   1.529   5.887   2.448
12670SOL    HW239908   1.488   5.997   2.544
12671SOL     OW39909  14.353   4.386   1.202
12671SOL    HW139910  14.308   4.303   1.183
12671SOL    HW239911  14.433   4.360   1.247
12672SOL     OW39912   3.382  11.044  12.168
12672SOL    HW139913   3.337  11.016  12.248
12672SOL    HW239914   3.371  10.970  12.108
12673SOL     OW39915  14.864   0.933  10.864
12673SOL    HW139916  14.823   0.872  10.926
12673SOL    HW239917  14.870   0.884  10.783
12674SOL     OW39918   0.688  12.241   4.970
12674SOL    HW139919   0.692  12.220   4.877
12674SOL    HW239920   0.616  12.304   4.977
12675SOL     OW39921   0.091  11.153   0.252
12675SOL    HW139922   0.023  11.216   0.229
12675SOL    HW239923   0.173  11.201   0.244
12676SOL     OW39924  10.422   2.555   5.591
12676SOL    HW139925  10.424   2.462   5.614
12676SOL    HW239926  10.463   2.559   5.505
12677SOL     OW39927   5.399   3.956   6.133
12677SOL    HW139928   5.492   3.943   6.116
12677SOL    HW239929   5.355   3.889   6.081
12678SOL     OW39930  13.760   0.580   7.243
12678SOL    HW139931  13.828   0.518   7.268
12678SOL    HW239932  13.790   0.615   7.159
12679SOL     OW39933  12.508  10.609  10.089
12679SOL    HW139934  12.446  10.537  10.083
12679SOL    HW239935  12.472  10.677  10.031
12680SOL     OW39936   8.100  13.202  12.402
12680SOL    HW139937   8.037  13.150  12.352
12680SOL    HW239938   8.068  13.199  12.492
12681SOL     OW39939   6.329   5.989   8.237
12681SOL    HW139940   6.423   5.971   8.248
12681SOL    HW239941   6.308   6.053   8.305
12682SOL     OW39942   0.263   3.311  10.974
12682SOL    HW139943   0.177   3.314  11.017
12682SOL    HW239944   0.279   3.218  10.958
12683SOL     OW39945   6.700   0.729   8.141
12683SOL    HW139946   6.605   0.719   8.144
12683SOL    HW239947   6.719   0.752   8.050
12684SOL     OW39948   3.001   3.006   7.826
12684SOL    HW139949   3.020   3.003   7.920
12684SOL    HW239950   2.942   2.932   7.811
12685SOL     OW39951  11.287  12.674   2.517
12685SOL    HW139952  11.324  12.587   2.502
12685SOL    HW239953  11.264  12.706   2.430
12686SOL     OW39954  13.959   5.944  11.089
12686SOL    HW139955  14.013   6.007  11.041
12686SOL    HW239956  13.869   5.968  11.068
12687SOL     OW39957   9.233  10.519  10.782
12687SOL    HW139958   9.298  10.488  10.720
12687SOL    HW239959   9.195  10.440  10.820
12688SOL     OW39960   6.182   1.016  10.703
12688SOL    HW139961   6.097   0.988  10.736
12688SOL    HW239962   6.180   1.112  10.708
12689SOL     OW39963  12.505   3.702  12.111
12689SOL    HW139964  12.527   3.768  12.045
12689SOL    HW239965  12.535   3.739  12.194
12690SOL     OW39966   2.798  13.324  13.665
12690SOL    HW139967   2.880  13.301  13.621
12690SOL    HW239968   2.737  13.338  13.593
12691SOL     OW39969   0.323  12.142   3.403
12691SOL    HW139970   0.272  12.219   3.375
12691SOL    HW239971   0.257  12.074   3.418
12692SOL     OW39972   6.078   5.138  13.752
12692SOL    HW139973   6.032   5.109  13.831
12692SOL    HW239974   6.170   5.136  13.776
12693SOL     OW39975   8.230   4.246  14.556
12693SOL    HW139976   8.205   4.306  14.627
12693SOL    HW239977   8.187   4.282  14.479
12694SOL     OW39978   9.047  10.553   4.401
12694SOL    HW139979   9.025  10.569   4.309
12694SOL    HW239980   8.963  10.550   4.446
12695SOL     OW39981  11.744   1.852   5.169
12695SOL    HW139982  11.743   1.771   5.220
12695SOL    HW239983  11.820   1.900   5.202
12696SOL     OW39984   8.160   1.269  12.662
12696SOL    HW139985   8.182   1.242  12.573
12696SOL    HW239986   8.090   1.210  12.689
12697SOL     OW39987   0.887   0.566   4.795
12697SOL    HW139988   0.859   0.604   4.878
12697SOL    HW239989   0.814   0.582   4.735
12698SOL     OW39990  14.056   9.196   4.588
12698SOL    HW139991  14.068   9.102   4.580
12698SOL    HW239992  14.115   9.222   4.658
12699SOL     OW39993   8.083   5.553   0.451
12699SOL    HW139994   8.105   5.616   0.520
12699SOL    HW239995   8.008   5.592   0.406
12700SOL     OW39996   7.187   1.010   1.145
12700SOL    HW139997   7.253   1.048   1.202
12700SOL    HW239998   7.103   1.038   1.183
12701SOL     OW39999  10.568   0.629   4.055
12701SOL    HW140000  10.578   0.673   4.140
12701SOL    HW240001  10.640   0.565   4.053
12702SOL     OW40002   7.879  11.082  13.564
12702SOL    HW140003   7.836  11.165  13.549
12702SOL    HW240004   7.885  11.041  13.478
12703SOL     OW40005   4.801   4.514   4.184
12703SOL    HW140006   4.728   4.510   4.122
12703SOL    HW240007   4.878   4.490   4.133
12704SOL     OW40008  14.110  14.214   5.133
12704SOL    HW140009  14.018  14.200   5.111
12704SOL    HW240010  14.151  14.240   5.051
12705SOL     OW40011   2.970  10.535   8.631
12705SOL    HW140012   3.039  10.480   8.669
12705SOL    HW240013   2.912  10.555   8.704
12706SOL     OW40014  12.070  14.121  13.096
12706SOL    HW140015  12.157  14.149  13.068
12706SOL    HW240016  12.009  14.174  13.044
12707SOL     OW40017   7.135   4.613   6.446
12707SOL    HW140018   7.126   4.665   6.366
12707SOL    HW240019   7.229   4.594   6.451
12708SOL     OW40020  10.661   7.575   0.037
12708SOL    HW140021  10.640   7.657  14.871
12708SOL    HW240022  10.678   7.601   0.127
12709SOL     OW40023   4.299   4.015  10.174
12709SOL    HW140024   4.298   3.924  10.203
12709SOL    HW240025   4.332   4.064  10.249
12710SOL     OW40026   5.699  11.807   8.161
12710SOL    HW140027   5.693  11.893   8.203
12710SOL    HW240028   5.724  11.747   8.231
12711SOL     OW40029   3.678  10.525   1.943
12711SOL    HW140030   3.695  10.495   1.854
12711SOL    HW240031   3.698  10.619   1.940
12712SOL     OW40032   3.173   1.351  14.104
12712SOL    HW140033   3.166   1.358  14.009
12712SOL    HW240034   3.262   1.319  14.119
12713SOL     OW40035   0.819   6.849  11.994
12713SOL    HW140036   0.747   6.845  12.058
12713SOL    HW240037   0.776   6.834  11.909
12714SOL     OW40038   8.873   3.574  13.936
12714SOL    HW140039   8.901   3.652  13.887
12714SOL    HW240040   8.911   3.501  13.887
12715SOL     OW40041  11.137  14.038   9.316
12715SOL    HW140042  11.146  13.949   9.281
12715SOL    HW240043  11.121  14.025   9.410
12716SOL     OW40044  10.778   1.564   1.129
12716SOL    HW140045  10.783   1.469   1.121
12716SOL    HW240046  10.777   1.580   1.224
12717SOL     OW40047   4.716  12.723   8.963
12717SOL    HW140048   4.753  12.742   8.877
12717SOL    HW240049   4.780  12.758   9.025
12718SOL     OW40050  14.306  11.667   4.496
12718SOL    HW140051  14.267  11.627   4.418
12718SOL    HW240052  14.400  11.669   4.477
12719SOL     OW40053  11.034   5.074   5.477
12719SOL    HW140054  10.947   5.089   5.515
12719SOL    HW240055  11.046   5.147   5.416
12720SOL     OW40056   9.179   6.674   4.721
12720SOL    HW140057   9.085   6.688   4.728
12720SOL    HW240058   9.199   6.609   4.787
12721SOL     OW40059   1.244   5.357  10.845
12721SOL    HW140060   1.288   5.323  10.767
12721SOL    HW240061   1.234   5.281  10.902
12722SOL     OW40062   0.840  10.769  12.147
12722SOL    HW140063   0.815  10.714  12.073
12722SOL    HW240064   0.784  10.846  12.139
12723SOL     OW40065   8.260   7.632  14.245
12723SOL    HW140066   8.300   7.681  14.173
12723SOL    HW240067   8.283   7.540  14.227
12724SOL     OW40068  11.601   7.822  11.736
12724SOL    HW140069  11.571   7.836  11.646
12724SOL    HW240070  11.524   7.787  11.781
12725SOL     OW40071   9.887  14.780   0.380
12725SOL    HW140072   9.971  14.748   0.349
12725SOL    HW240073   9.902  14.803   0.472
12726SOL     OW40074   8.594   5.801   8.529
12726SOL    HW140075   8.533   5.729   8.542
12726SOL    HW240076   8.647   5.775   8.454
12727SOL     OW40077   7.810   3.821  10.891
12727SOL    HW140078   7.791   3.804  10.798
12727SOL    HW240079   7.804   3.916  10.899
12728SOL     OW40080   3.381  10.235  10.901
12728SOL    HW140081   3.407  10.308  10.845
12728SOL    HW240082   3.358  10.275  10.984
12729SOL     OW40083   3.079   3.307   0.733
12729SOL    HW140084   3.142   3.241   0.763
12729SOL    HW240085   3.099   3.385   0.785
12730SOL     OW40086  13.979   5.740   9.818
12730SOL    HW140087  13.982   5.836   9.812
12730SOL    HW240088  13.982   5.711   9.727
12731SOL     OW40089   8.266   5.674   1.365
12731SOL    HW140090   8.290   5.659   1.273
12731SOL    HW240091   8.346   5.656   1.414
12732SOL     OW40092   2.382  10.830  14.287
12732SOL    HW140093   2.464  10.865  14.324
12732SOL    HW240094   2.314  10.866  14.343
12733SOL     OW40095   0.599   9.668  14.206
12733SOL    HW140096   0.636   9.649  14.293
12733SOL    HW240097   0.550   9.589  14.183
12734SOL     OW40098   7.277  12.350   1.861
12734SOL    HW140099   7.214  12.310   1.801
12734SOL    HW240100   7.224  12.388   1.931
12735SOL     OW40101   0.863  10.069   2.455
12735SOL    HW140102   0.849  10.142   2.395
12735SOL    HW240103   0.877  10.110   2.540
12736SOL     OW40104   4.747   4.706   8.623
12736SOL    HW140105   4.796   4.783   8.596
12736SOL    HW240106   4.739   4.715   8.718
12737SOL     OW40107   6.804  12.964   5.906
12737SOL    HW140108   6.739  12.898   5.930
12737SOL    HW240109   6.811  12.957   5.810
12738SOL     OW40110  14.589  14.584   2.514
12738SOL    HW140111  14.633  14.613   2.434
12738SOL    HW240112  14.533  14.512   2.485
12739SOL     OW40113   8.673   1.924   0.405
12739SOL    HW140114   8.645   1.870   0.331
12739SOL    HW240115   8.643   2.012   0.384
12740SOL     OW40116   8.705   1.944  12.514
12740SOL    HW140117   8.797   1.919  12.501
12740SOL    HW240118   8.681   1.989  12.433
12741SOL     OW40119   7.457   7.897  12.768
12741SOL    HW140120   7.373   7.939  12.786
12741SOL    HW240121   7.473   7.915  12.675
12742SOL     OW40122   5.053   8.941   6.449
12742SOL    HW140123   5.127   8.950   6.509
12742SOL    HW240124   5.023   8.851   6.461
12743SOL     OW40125  12.023   5.524   8.719
12743SOL    HW140126  12.085   5.457   8.690
12743SOL    HW240127  11.990   5.491   8.803
12744SOL     OW40128  10.729  13.309   0.447
12744SOL    HW140129  10.709  13.216   0.452
12744SOL    HW240130  10.654  13.347   0.402
12745SOL     OW40131  12.775   7.521  11.076
12745SOL    HW140132  12.781   7.616  11.084
12745SOL    HW240133  12.682   7.501  11.088
12746SOL     OW40134   8.741   1.528  11.847
12746SOL    HW140135   8.834   1.523  11.826
12746SOL    HW240136   8.739   1.533  11.943
12747SOL     OW40137  11.276   8.513   2.392
12747SOL    HW140138  11.346   8.455   2.361
12747SOL    HW240139  11.233   8.543   2.313
12748SOL     OW40140  14.836   3.826   6.250
12748SOL    HW140141  14.767   3.852   6.311
12748SOL    HW240142  14.860   3.737   6.277
12749SOL     OW40143   7.190   4.957  10.880
12749SOL    HW140144   7.239   4.960  10.799
12749SOL    HW240145   7.214   4.873  10.920
12750SOL     OW40146  10.484   4.171   5.723
12750SOL    HW140147  10.442   4.100   5.772
12750SOL    HW240148  10.412   4.215   5.678
12751SOL     OW40149   5.386   3.734   3.353
12751SOL    HW140150   5.346   3.677   3.419
12751SOL    HW240151   5.428   3.804   3.404
12752SOL     OW40152   7.608  12.276   0.027
12752SOL    HW140153   7.569  12.193   0.000
12752SOL    HW240154   7.546  12.343  14.878
12753SOL     OW40155  14.323   2.333   0.886
12753SOL    HW140156  14.247   2.320   0.943
12753SOL    HW240157  14.380   2.258   0.905
12754SOL     OW40158   2.679  13.943   6.500
12754SOL    HW140159   2.730  13.995   6.562
12754SOL    HW240160   2.597  13.991   6.490
12755SOL     OW40161   2.817   1.984  10.490
12755SOL    HW140162   2.775   1.901  10.513
12755SOL    HW240163   2.908   1.961  10.474
12756SOL     OW40164   8.886  14.727   4.038
12756SOL    HW140165   8.841  14.658   4.086
12756SOL    HW240166   8.815  14.777   3.996
12757SOL     OW40167   3.646   2.560  12.308
12757SOL    HW140168   3.625   2.634  12.250
12757SOL    HW240169   3.714   2.594  12.366
12758SOL     OW40170   7.471   0.185   2.078
12758SOL    HW140171   7.535   0.234   2.026
12758SOL    HW240172   7.523   0.125   2.131
12759SOL     OW40173  10.499  14.823  14.342
12759SOL    HW140174  10.491  14.728  14.332
12759SOL    HW240175  10.410  14.856  14.333
12760SOL     OW40176   8.718   3.576  13.492
12760SOL    HW140177   8.641   3.578  13.436
12760SOL    HW240178   8.792   3.586  13.432
12761SOL     OW40179   1.793   2.022  13.202
12761SOL    HW140180   1.797   2.004  13.108
12761SOL    HW240181   1.842   2.103  13.214
12762SOL     OW40182  13.134  11.338  13.715
12762SOL    HW140183  13.220  11.301  13.695
12762SOL    HW240184  13.076  11.262  13.718
12763SOL     OW40185   6.627   6.210   3.391
12763SOL    HW140186   6.656   6.141   3.451
12763SOL    HW240187   6.703   6.266   3.380
12764SOL     OW40188  11.976   7.403   1.786
12764SOL    HW140189  11.924   7.437   1.713
12764SOL    HW240190  11.918   7.340   1.829
12765SOL     OW40191  14.801   0.728  12.094
12765SOL    HW140192  14.843   0.785  12.159
12765SOL    HW240193  14.708   0.735  12.112
12766SOL     OW40194  14.789  13.072  13.226
12766SOL    HW140195  14.826  13.094  13.311
12766SOL    HW240196  14.697  13.053  13.244
12767SOL     OW40197  13.089   9.096  12.075
12767SOL    HW140198  13.158   9.041  12.038
12767SOL    HW240199  13.041   9.129  11.999
12768SOL     OW40200   0.145  11.728  12.299
12768SOL    HW140201   0.168  11.794  12.234
12768SOL    HW240202   0.155  11.644  12.254
12769SOL     OW40203   8.468  13.309   8.350
12769SOL    HW140204   8.519  13.295   8.270
12769SOL    HW240205   8.494  13.238   8.408
12770SOL     OW40206   8.656   3.569   4.142
12770SOL    HW140207   8.676   3.485   4.102
12770SOL    HW240208   8.575   3.597   4.099
12771SOL     OW40209   0.280   0.668   8.672
12771SOL    HW140210   0.203   0.694   8.722
12771SOL    HW240211   0.353   0.712   8.716
12772SOL     OW40212   5.944  10.432  11.291
12772SOL    HW140213   5.965  10.375  11.365
12772SOL    HW240214   5.887  10.379  11.235
12773SOL     OW40215  12.031   1.884   1.426
12773SOL    HW140216  12.029   1.804   1.479
12773SOL    HW240217  12.063   1.855   1.341
12774SOL     OW40218   2.528   4.715   9.331
12774SOL    HW140219   2.560   4.726   9.421
12774SOL    HW240220   2.518   4.620   9.321
12775SOL     OW40221   7.844  11.377   7.881
12775SOL    HW140222   7.870  11.288   7.856
12775SOL    HW240223   7.847  11.377   7.977
12776SOL     OW40224   6.688   4.797   7.716
12776SOL    HW140225   6.666   4.837   7.632
12776SOL    HW240226   6.778   4.824   7.733
12777SOL     OW40227  14.727  11.154   3.465
12777SOL    HW140228  14.739  11.133   3.373
12777SOL    HW240229  14.802  11.116   3.509
12778SOL     OW40230   2.770   2.259   3.999
12778SOL    HW140231   2.713   2.217   4.064
12778SOL    HW240232   2.858   2.233   4.024
12779SOL     OW40233   2.321   1.022  14.535
12779SOL    HW140234   2.229   0.997  14.538
12779SOL    HW240235   2.343   1.025  14.442
12780SOL     OW40236  13.917   1.591  14.734
12780SOL    HW140237  13.882   1.661  14.678
12780SOL    HW240238  13.887   1.510  14.693
12781SOL     OW40239   1.887  14.527  12.426
12781SOL    HW140240   1.801  14.564  12.407
12781SOL    HW240241   1.878  14.490  12.514
12782SOL     OW40242  14.175   7.610   6.870
12782SOL    HW140243  14.146   7.543   6.808
12782SOL    HW240244  14.133   7.587   6.953
12783SOL     OW40245   7.626   4.214   9.275
12783SOL    HW140246   7.565   4.216   9.201
12783SOL    HW240247   7.607   4.131   9.319
12784SOL     OW40248  14.253   6.940   7.503
12784SOL    HW140249  14.211   6.894   7.575
12784SOL    HW240250  14.262   6.874   7.434
12785SOL     OW40251   5.667   1.876   8.515
12785SOL    HW140252   5.679   1.965   8.484
12785SOL    HW240253   5.691   1.821   8.440
12786SOL     OW40254   0.088   5.900  10.392
12786SOL    HW140255   0.105   5.870  10.303
12786SOL    HW240256   0.017   5.964  10.383
12787SOL     OW40257   2.111   5.304   7.396
12787SOL    HW140258   2.026   5.348   7.391
12787SOL    HW240259   2.142   5.303   7.305
12788SOL     OW40260   3.262   9.865   7.038
12788SOL    HW140261   3.336   9.805   7.031
12788SOL    HW240262   3.186   9.814   7.007
12789SOL     OW40263   3.967  10.107  10.127
12789SOL    HW140264   3.950  10.015  10.147
12789SOL    HW240265   3.944  10.154  10.207
12790SOL     OW40266  12.778   8.070   7.555
12790SOL    HW140267  12.808   8.026   7.476
12790SOL    HW240268  12.832   8.034   7.625
12791SOL     OW40269   4.787   2.850   9.871
12791SOL    HW140270   4.834   2.767   9.862
12791SOL    HW240271   4.733   2.839   9.949
12792SOL     OW40272  12.180   2.524  10.488
12792SOL    HW140273  12.213   2.595  10.434
12792SOL    HW240274  12.111   2.564  10.541
12793SOL     OW40275  10.556  13.868   8.364
12793SOL    HW140276  10.622  13.820   8.313
12793SOL    HW240277  10.472  13.837   8.330
12794SOL     OW40278  11.364   7.619   5.021
12794SOL    HW140279  11.366   7.603   4.927
12794SOL    HW240280  11.411   7.702   5.032
12795SOL     OW40281   3.278   1.033   1.632
12795SOL    HW140282   3.264   1.030   1.538
12795SOL    HW240283   3.193   1.009   1.670
12796SOL     OW40284   9.494   8.368   0.243
12796SOL    HW140285   9.415   8.389   0.194
12796SOL    HW240286   9.543   8.309   0.185
12797SOL     OW40287  14.221   5.450  10.950
12797SOL    HW140288  14.179   5.423  10.869
12797SOL    HW240289  14.228   5.546  10.943
12798SOL     OW40290   7.871  14.720   9.431
12798SOL    HW140291   7.789  14.766   9.447
12798SOL    HW240292   7.878  14.656   9.501
12799SOL     OW40293   7.665   7.785  11.202
12799SOL    HW140294   7.752   7.821  11.190
12799SOL    HW240295   7.637   7.819  11.287
12800SOL     OW40296  11.542  11.676   1.293
12800SOL    HW140297  11.520  11.756   1.342
12800SOL    HW240298  11.499  11.688   1.208
12801SOL     OW40299  13.563  11.433   4.828
12801SOL    HW140300  13.518  11.482   4.759
12801SOL    HW240301  13.550  11.486   4.907
12802SOL     OW40302   5.146   3.668  12.450
12802SOL    HW140303   5.051   3.659  12.440
12802SOL    HW240304   5.157   3.717  12.531
12803SOL     OW40305  14.755  13.052  12.140
12803SOL    HW140306  14.850  13.047  12.128
12803SOL    HW240307  14.743  13.097  12.223
12804SOL     OW40308  14.072   4.487  13.714
12804SOL    HW140309  14.100   4.570  13.751
12804SOL    HW240310  13.995   4.462  13.766
12805SOL     OW40311  11.469  13.876   5.766
12805SOL    HW140312  11.497  13.785   5.765
12805SOL    HW240313  11.496  13.909   5.852
12806SOL     OW40314  13.936  10.808  10.093
12806SOL    HW140315  13.864  10.756  10.057
12806SOL    HW240316  14.013  10.779  10.045
12807SOL     OW40317   3.175   5.401   6.291
12807SOL    HW140318   3.243   5.344   6.256
12807SOL    HW240319   3.210   5.489   6.279
12808SOL     OW40320  10.892   4.944   4.090
12808SOL    HW140321  10.980   4.936   4.128
12808SOL    HW240322  10.861   4.854   4.081
12809SOL     OW40323  11.402  11.952   4.503
12809SOL    HW140324  11.396  11.955   4.408
12809SOL    HW240325  11.324  11.997   4.534
12810SOL     OW40326  11.578   9.809   8.481
12810SOL    HW140327  11.539   9.752   8.547
12810SOL    HW240328  11.504   9.839   8.429
12811SOL     OW40329   8.875  12.413  14.045
12811SOL    HW140330   8.944  12.356  14.010
12811SOL    HW240331   8.874  12.394  14.139
12812SOL     OW40332  13.089   0.274   0.750
12812SOL    HW140333  13.151   0.329   0.702
12812SOL    HW240334  13.079   0.317   0.835
12813SOL     OW40335   6.183  10.299  11.031
12813SOL    HW140336   6.211  10.350  10.955
12813SOL    HW240337   6.120  10.355  11.076
12814SOL     OW40338  10.482  11.161   1.056
12814SOL    HW140339  10.553  11.119   1.104
12814SOL    HW240340  10.496  11.255   1.069
12815SOL     OW40341   4.908  11.803   4.439
12815SOL    HW140342   4.935  11.831   4.527
12815SOL    HW240343   4.825  11.758   4.453
12816SOL     OW40344  12.127   3.640  14.306
12816SOL    HW140345  12.144   3.590  14.386
12816SOL    HW240346  12.133   3.731  14.334
12817SOL     OW40347  12.694   5.564   8.577
12817SOL    HW140348  12.682   5.583   8.670
12817SOL    HW240349  12.787   5.543   8.569
12818SOL     OW40350   0.890   2.232   4.878
12818SOL    HW140351   0.933   2.279   4.806
12818SOL    HW240352   0.927   2.269   4.957
12819SOL     OW40353  10.036   1.477  11.973
12819SOL    HW140354  10.066   1.520  12.053
12819SOL    HW240355  10.109   1.420  11.948
12820SOL     OW40356   3.017  12.743   9.216
12820SOL    HW140357   3.082  12.676   9.195
12820SOL    HW240358   3.047  12.821   9.170
12821SOL     OW40359   3.225   3.895   7.864
12821SOL    HW140360   3.192   3.950   7.793
12821SOL    HW240361   3.297   3.946   7.901
12822SOL     OW40362   7.504  13.778   0.553
12822SOL    HW140363   7.504  13.868   0.521
12822SOL    HW240364   7.526  13.786   0.646
12823SOL     OW40365   7.028   3.241   0.047
12823SOL    HW140366   6.989   3.159   0.018
12823SOL    HW240367   7.039   3.293  14.847
12824SOL     OW40368   7.909   5.491   6.430
12824SOL    HW140369   7.944   5.525   6.347
12824SOL    HW240370   7.822   5.459   6.408
12825SOL     OW40371  14.524   2.655  12.396
12825SOL    HW140372  14.488   2.743  12.400
12825SOL    HW240373  14.545   2.642  12.304
12826SOL     OW40374   9.830   1.254   0.417
12826SOL    HW140375   9.814   1.312   0.342
12826SOL    HW240376   9.771   1.181   0.404
12827SOL     OW40377   5.254   8.256   5.688
12827SOL    HW140378   5.251   8.167   5.653
12827SOL    HW240379   5.237   8.247   5.781
12828SOL     OW40380   7.308   0.097  10.690
12828SOL    HW140381   7.240   0.117  10.626
12828SOL    HW240382   7.349   0.016  10.658
12829SOL     OW40383   7.180  12.374  12.764
12829SOL    HW140384   7.276  12.369  12.765
12829SOL    HW240385   7.153  12.327  12.843
12830SOL     OW40386  12.873   2.226   6.447
12830SOL    HW140387  12.932   2.163   6.406
12830SOL    HW240388  12.862   2.295   6.381
12831SOL     OW40389   2.482   1.491   8.691
12831SOL    HW140390   2.569   1.503   8.652
12831SOL    HW240391   2.459   1.578   8.725
12832SOL     OW40392   2.813   3.909  14.275
12832SOL    HW140393   2.775   3.862  14.200
12832SOL    HW240394   2.745   3.971  14.300
12833SOL     OW40395  13.222  11.862   9.640
12833SOL    HW140396  13.271  11.925   9.588
12833SOL    HW240397  13.156  11.914   9.686
12834SOL     OW40398  10.573   6.111  14.580
12834SOL    HW140399  10.657   6.155  14.583
12834SOL    HW240400  10.550   6.097  14.672
12835SOL     OW40401  13.030  13.111   4.840
12835SOL    HW140402  12.965  13.124   4.909
12835SOL    HW240403  13.106  13.075   4.885
12836SOL     OW40404   9.213   9.900   7.730
12836SOL    HW140405   9.182   9.866   7.647
12836SOL    HW240406   9.198   9.994   7.726
12837SOL     OW40407  13.890   0.838  11.929
12837SOL    HW140408  13.909   0.764  11.872
12837SOL    HW240409  13.925   0.914  11.884
12838SOL     OW40410  11.769   4.793   4.919
12838SOL    HW140411  11.705   4.858   4.944
12838SOL    HW240412  11.765   4.727   4.988
12839SOL     OW40413   2.515   9.518   2.903
12839SOL    HW140414   2.541   9.608   2.926
12839SOL    HW240415   2.562   9.464   2.967
12840SOL     OW40416   6.986   3.050  12.740
12840SOL    HW140417   6.896   3.022  12.757
12840SOL    HW240418   7.018   3.083  12.824
12841SOL     OW40419  14.227   4.051   5.459
12841SOL    HW140420  14.152   4.030   5.515
12841SOL    HW240421  14.267   4.127   5.501
12842SOL     OW40422   9.403  13.827   1.497
12842SOL    HW140423   9.344  13.836   1.423
12842SOL    HW240424   9.359  13.765   1.556
12843SOL     OW40425   6.960  13.284   4.731
12843SOL    HW140426   7.042  13.257   4.772
12843SOL    HW240427   6.969  13.379   4.720
12844SOL     OW40428   3.258   0.693   7.794
12844SOL    HW140429   3.281   0.623   7.856
12844SOL    HW240430   3.342   0.732   7.770
12845SOL     OW40431  14.275  13.661   4.912
12845SOL    HW140432  14.184  13.632   4.921
12845SOL    HW240433  14.281  13.738   4.970
12846SOL     OW40434  11.139   0.722   1.055
12846SOL    HW140435  11.230   0.751   1.055
12846SOL    HW240436  11.117   0.710   0.963
12847SOL     OW40437   4.936   2.224   2.088
12847SOL    HW140438   5.012   2.281   2.087
12847SOL    HW240439   4.865   2.278   2.053
12848SOL     OW40440   7.427  11.719  12.367
12848SOL    HW140441   7.481  11.660  12.314
12848SOL    HW240442   7.488  11.785  12.399
12849SOL     OW40443  12.881   5.394   9.261
12849SOL    HW140444  12.911   5.426   9.176
12849SOL    HW240445  12.960   5.361   9.303
12850SOL     OW40446   6.468  13.241   2.754
12850SOL    HW140447   6.426  13.234   2.840
12850SOL    HW240448   6.485  13.335   2.743
12851SOL     OW40449  13.595   9.689  10.042
12851SOL    HW140450  13.517   9.721  10.088
12851SOL    HW240451  13.667   9.708  10.101
12852SOL     OW40452   7.544   6.377  13.016
12852SOL    HW140453   7.526   6.327  12.936
12852SOL    HW240454   7.597   6.451  12.987
12853SOL     OW40455   6.521   2.379   6.730
12853SOL    HW140456   6.527   2.463   6.684
12853SOL    HW240457   6.441   2.385   6.781
12854SOL     OW40458   3.131  14.818  14.272
12854SOL    HW140459   3.049  14.850  14.235
12854SOL    HW240460   3.150  14.877  14.344
12855SOL     OW40461   6.167  10.536  10.518
12855SOL    HW140462   6.257  10.501  10.522
12855SOL    HW240463   6.170  10.602  10.450
12856SOL     OW40464   5.271   2.695   5.025
12856SOL    HW140465   5.179   2.682   5.004
12856SOL    HW240466   5.316   2.690   4.941
12857SOL     OW40467   7.784   4.353  12.481
12857SOL    HW140468   7.748   4.342  12.393
12857SOL    HW240469   7.877   4.372  12.467
12858SOL     OW40470   8.640  12.414  10.832
12858SOL    HW140471   8.600  12.482  10.886
12858SOL    HW240472   8.571  12.389  10.771
12859SOL     OW40473  10.483   8.067   0.673
12859SOL    HW140474  10.399   8.023   0.666
12859SOL    HW240475  10.538   8.024   0.607
12860SOL     OW40476   5.992   9.036   7.205
12860SOL    HW140477   5.997   9.111   7.145
12860SOL    HW240478   6.037   9.066   7.284
12861SOL     OW40479   3.684  13.139   3.601
12861SOL    HW140480   3.611  13.143   3.540
12861SOL    HW240481   3.753  13.093   3.554
12862SOL     OW40482   7.737   2.462   2.003
12862SOL    HW140483   7.751   2.367   2.002
12862SOL    HW240484   7.784   2.493   1.926
12863SOL     OW40485   0.938   5.282   5.675
12863SOL    HW140486   1.005   5.237   5.726
12863SOL    HW240487   0.855   5.246   5.707
12864SOL     OW40488   4.980   8.917   2.044
12864SOL    HW140489   4.926   8.838   2.034
12864SOL    HW240490   4.918   8.986   2.065
12865SOL     OW40491  14.370   8.901   3.940
12865SOL    HW140492  14.403   8.877   4.027
12865SOL    HW240493  14.428   8.855   3.879
12866SOL     OW40494   9.466   4.465   6.945
12866SOL    HW140495   9.404   4.392   6.940
12866SOL    HW240496   9.428   4.524   7.010
12867SOL     OW40497   1.249   4.531  10.752
12867SOL    HW140498   1.343   4.520  10.737
12867SOL    HW240499   1.210   4.448  10.726
12868SOL     OW40500   8.443   0.014   7.117
12868SOL    HW140501   8.465   0.101   7.084
12868SOL    HW240502   8.486   0.008   7.202
12869SOL     OW40503   0.805   2.841  13.349
12869SOL    HW140504   0.771   2.756  13.323
12869SOL    HW240505   0.861   2.823  13.425
12870SOL     OW40506   2.986   5.023   4.839
12870SOL    HW140507   3.029   5.081   4.776
12870SOL    HW240508   2.906   5.070   4.864
12871SOL     OW40509   1.365  11.676   0.358
12871SOL    HW140510   1.456  11.653   0.376
12871SOL    HW240511   1.332  11.708   0.441
12872SOL     OW40512  11.157   8.108  12.493
12872SOL    HW140513  11.127   8.191  12.455
12872SOL    HW240514  11.108   8.041  12.444
12873SOL     OW40515   7.383   9.770   7.346
12873SOL    HW140516   7.367   9.706   7.416
12873SOL    HW240517   7.356   9.725   7.266
12874SOL     OW40518   2.104   6.180   8.463
12874SOL    HW140519   2.162   6.105   8.453
12874SOL    HW240520   2.066   6.170   8.551
12875SOL     OW40521   0.839  10.805   5.491
12875SOL    HW140522   0.822  10.738   5.425
12875SOL    HW240523   0.757  10.853   5.499
12876SOL     OW40524   5.947  12.563   6.279
12876SOL    HW140525   5.927  12.654   6.301
12876SOL    HW240526   6.021  12.540   6.335
12877SOL     OW40527   3.712   3.303   5.714
12877SOL    HW140528   3.718   3.225   5.661
12877SOL    HW240529   3.689   3.271   5.802
12878SOL     OW40530   9.498  10.270   2.641
12878SOL    HW140531   9.572  10.224   2.603
12878SOL    HW240532   9.422  10.217   2.617
12879SOL     OW40533   7.441   9.789  13.632
12879SOL    HW140534   7.347   9.774  13.620
12879SOL    HW240535   7.483   9.741  13.562
12880SOL     OW40536  11.569   1.375   5.944
12880SOL    HW140537  11.547   1.293   5.899
12880SOL    HW240538  11.663   1.368   5.961
12881SOL     OW40539  12.222   3.450   3.050
12881SOL    HW140540  12.130   3.428   3.066
12881SOL    HW240541  12.270   3.371   3.076
12882SOL     OW40542   9.816   0.530   4.830
12882SOL    HW140543   9.776   0.493   4.909
12882SOL    HW240544   9.890   0.580   4.862
12883SOL     OW40545   4.560   1.974  10.803
12883SOL    HW140546   4.612   1.895  10.815
12883SOL    HW240547   4.560   1.988  10.708
12884SOL     OW40548   8.753  13.473   4.911
12884SOL    HW140549   8.822  13.417   4.946
12884SOL    HW240550   8.776  13.561   4.941
12885SOL     OW40551  12.173   1.609   6.708
12885SOL    HW140552  12.126   1.654   6.779
12885SOL    HW240553  12.256   1.582   6.747
12886SOL     OW40554   7.952   0.942   7.460
12886SOL    HW140555   7.922   0.922   7.549
12886SOL    HW240556   7.897   0.887   7.404
12887SOL     OW40557  13.361   6.755  12.210
12887SOL    HW140558  13.378   6.671  12.253
12887SOL    HW240559  13.443   6.776  12.165
12888SOL     OW40560   0.445   4.718  13.244
12888SOL    HW140561   0.391   4.742  13.169
12888SOL    HW240562   0.386   4.727  13.320
12889SOL     OW40563   0.916   1.127   4.364
12889SOL    HW140564   0.978   1.058   4.340
12889SOL    HW240565   0.906   1.179   4.284
12890SOL     OW40566   3.589   6.414   9.820
12890SOL    HW140567   3.650   6.342   9.804
12890SOL    HW240568   3.565   6.445   9.732
12891SOL     OW40569  10.374   4.409  12.723
12891SOL    HW140570  10.447   4.464  12.750
12891SOL    HW240571  10.361   4.429  12.630
12892SOL     OW40572  11.007   1.891   2.984
12892SOL    HW140573  11.088   1.863   2.941
12892SOL    HW240574  10.948   1.816   2.976
12893SOL     OW40575   7.582  10.029   1.098
12893SOL    HW140576   7.537   9.973   1.160
12893SOL    HW240577   7.600  10.110   1.146
12894SOL     OW40578  11.768   9.600   0.548
12894SOL    HW140579  11.684   9.602   0.593
12894SOL    HW240580  11.778   9.509   0.519
12895SOL     OW40581   3.661   1.154   2.342
12895SOL    HW140582   3.620   1.184   2.423
12895SOL    HW240583   3.753   1.141   2.365
12896SOL     OW40584   9.603   8.769   3.985
12896SOL    HW140585   9.697   8.787   3.988
12896SOL    HW240586   9.594   8.697   3.923
12897SOL     OW40587   3.018  10.685  13.790
12897SOL    HW140588   3.085  10.616  13.784
12897SOL    HW240589   3.065  10.762  13.819
12898SOL     OW40590  10.380   6.102   5.512
12898SOL    HW140591  10.450   6.167   5.507
12898SOL    HW240592  10.312   6.144   5.564
12899SOL     OW40593  10.488   7.974  12.435
12899SOL    HW140594  10.529   8.026  12.504
12899SOL    HW240595  10.405   8.019  12.418
12900SOL     OW40596   2.916   3.618  14.232
12900SOL    HW140597   3.012   3.625  14.234
12900SOL    HW240598   2.886   3.699  14.274
12901SOL     OW40599  10.571   8.389  13.591
12901SOL    HW140600  10.535   8.436  13.516
12901SOL    HW240601  10.642   8.336  13.556
12902SOL     OW40602  10.710  12.976   6.596
12902SOL    HW140603  10.794  13.007   6.564
12902SOL    HW240604  10.648  12.997   6.526
12903SOL     OW40605   3.377   3.372   2.473
12903SOL    HW140606   3.370   3.457   2.428
12903SOL    HW240607   3.465   3.341   2.451
12904SOL     OW40608   6.586   5.371   2.452
12904SOL    HW140609   6.611   5.309   2.520
12904SOL    HW240610   6.490   5.365   2.448
12905SOL     OW40611   0.163   5.000   4.407
12905SOL    HW140612   0.222   5.073   4.386
12905SOL    HW240613   0.220   4.924   4.411
12906SOL     OW40614   3.071  11.145   4.620
12906SOL    HW140615   3.102  11.122   4.533
12906SOL    HW240616   2.987  11.188   4.605
12907SOL     OW40617   9.370   3.433   7.270
12907SOL    HW140618   9.371   3.528   7.271
12907SOL    HW240619   9.433   3.407   7.337
12908SOL     OW40620  11.511   6.433  14.569
12908SOL    HW140621  11.497   6.524  14.541
12908SOL    HW240622  11.465   6.381  14.504
12909SOL     OW40623   3.833  14.535   2.889
12909SOL    HW140624   3.865  14.482   2.816
12909SOL    HW240625   3.866  14.492   2.967
12910SOL     OW40626   4.716   1.009   0.118
12910SOL    HW140627   4.770   0.935   0.144
12910SOL    HW240628   4.637   0.970   0.081
12911SOL     OW40629   6.150  13.479  14.859
12911SOL    HW140630   6.222  13.542  14.859
12911SOL    HW240631   6.156  13.437  14.773
12912SOL     OW40632   0.258   3.713   0.462
12912SOL    HW140633   0.175   3.759   0.474
12912SOL    HW240634   0.325   3.777   0.486
12913SOL     OW40635   9.527  11.690   4.703
12913SOL    HW140636   9.533  11.595   4.687
12913SOL    HW240637   9.500  11.726   4.618
12914SOL     OW40638   2.598  12.139  13.477
12914SOL    HW140639   2.657  12.070  13.447
12914SOL    HW240640   2.520  12.129  13.421
12915SOL     OW40641   7.845   8.468   8.021
12915SOL    HW140642   7.757   8.502   8.009
12915SOL    HW240643   7.896   8.543   8.051
12916SOL     OW40644  11.135  13.541   8.706
12916SOL    HW140645  11.046  13.547   8.742
12916SOL    HW240646  11.183  13.488   8.770
12917SOL     OW40647   4.365   2.424   9.507
12917SOL    HW140648   4.281   2.448   9.468
12917SOL    HW240649   4.381   2.335   9.477
12918SOL     OW40650   3.157   7.961   5.598
12918SOL    HW140651   3.127   7.917   5.518
12918SOL    HW240652   3.253   7.955   5.594
12919SOL     OW40653   1.329  14.801   1.357
12919SOL    HW140654   1.246  14.804   1.403
12919SOL    HW240655   1.386  14.748   1.413
12920SOL     OW40656  10.965   5.896  14.676
12920SOL    HW140657  10.954   5.932  14.588
12920SOL    HW240658  10.900   5.825  14.681
12921SOL     OW40659  10.175  14.593   9.251
12921SOL    HW140660  10.146  14.568   9.338
12921SOL    HW240661  10.179  14.510   9.203
12922SOL     OW40662  14.425   3.136   4.207
12922SOL    HW140663  14.381   3.134   4.122
12922SOL    HW240664  14.396   3.056   4.251
12923SOL     OW40665  12.954   5.308  14.641
12923SOL    HW140666  12.928   5.227  14.685
12923SOL    HW240667  12.964   5.283  14.549
12924SOL     OW40668  14.572   9.944   8.012
12924SOL    HW140669  14.603  10.035   8.007
12924SOL    HW240670  14.603   9.905   7.931
12925SOL     OW40671  14.427   5.615   5.769
12925SOL    HW140672  14.400   5.583   5.856
12925SOL    HW240673  14.428   5.710   5.778
12926SOL     OW40674   0.516   6.809   7.842
12926SOL    HW140675   0.598   6.849   7.810
12926SOL    HW240676   0.519   6.823   7.937
12927SOL     OW40677   8.319   5.522  10.817
12927SOL    HW140678   8.283   5.458  10.878
12927SOL    HW240679   8.251   5.532  10.749
12928SOL     OW40680   8.227   3.686  11.445
12928SOL    HW140681   8.191   3.606  11.484
12928SOL    HW240682   8.310   3.699  11.490
12929SOL     OW40683   5.731  10.999  10.022
12929SOL    HW140684   5.678  10.997  10.102
12929SOL    HW240685   5.783  11.079  10.029
12930SOL     OW40686   6.629   3.526   5.496
12930SOL    HW140687   6.595   3.437   5.494
12930SOL    HW240688   6.565   3.578   5.447
12931SOL     OW40689   3.702   9.632   2.980
12931SOL    HW140690   3.688   9.725   2.995
12931SOL    HW240691   3.797   9.621   2.980
12932SOL     OW40692   3.213   6.625   5.380
12932SOL    HW140693   3.166   6.563   5.325
12932SOL    HW240694   3.259   6.570   5.444
12933SOL     OW40695   1.924  10.376   2.635
12933SOL    HW140696   2.005  10.326   2.637
12933SOL    HW240697   1.899  10.387   2.727
12934SOL     OW40698   9.821  10.149   3.878
12934SOL    HW140699   9.823  10.067   3.927
12934SOL    HW240700   9.740  10.192   3.905
12935SOL     OW40701  10.162   2.704   6.626
12935SOL    HW140702  10.185   2.789   6.664
12935SOL    HW240703  10.082   2.723   6.575
12936SOL     OW40704  12.397   9.198   2.526
12936SOL    HW140705  12.449   9.169   2.601
12936SOL    HW240706  12.452   9.263   2.482
12937SOL     OW40707   1.767  10.126  11.820
12937SOL    HW140708   1.680  10.107  11.784
12937SOL    HW240709   1.789  10.213  11.786
12938SOL     OW40710  14.616   6.253   9.853
12938SOL    HW140711  14.528   6.292   9.850
12938SOL    HW240712  14.673   6.320   9.816
12939SOL     OW40713  12.627   5.868   4.110
12939SOL    HW140714  12.643   5.946   4.163
12939SOL    HW240715  12.607   5.901   4.023
12940SOL     OW40716   8.110  13.553   4.166
12940SOL    HW140717   8.129  13.467   4.205
12940SOL    HW240718   8.118  13.539   4.072
12941SOL     OW40719   2.639  13.661   3.064
12941SOL    HW140720   2.715  13.639   3.009
12941SOL    HW240721   2.587  13.580   3.065
12942SOL     OW40722   6.654  13.010   7.454
12942SOL    HW140723   6.721  13.024   7.387
12942SOL    HW240724   6.695  12.952   7.517
12943SOL     OW40725   9.167   1.825   4.647
12943SOL    HW140726   9.176   1.920   4.642
12943SOL    HW240727   9.083   1.806   4.605
12944SOL     OW40728   9.178  12.834   5.381
12944SOL    HW140729   9.215  12.812   5.296
12944SOL    HW240730   9.147  12.750   5.416
12945SOL     OW40731  12.647   7.684   4.302
12945SOL    HW140732  12.710   7.747   4.267
12945SOL    HW240733  12.688   7.652   4.383
12946SOL     OW40734   4.999  10.526   0.533
12946SOL    HW140735   5.022  10.435   0.549
12946SOL    HW240736   5.002  10.536   0.438
12947SOL     OW40737   6.836  14.340   8.371
12947SOL    HW140738   6.854  14.391   8.450
12947SOL    HW240739   6.741  14.330   8.370
12948SOL     OW40740   0.823   6.019   9.312
12948SOL    HW140741   0.847   6.059   9.395
12948SOL    HW240742   0.733   5.989   9.325
12949SOL     OW40743  10.873   5.817  14.102
12949SOL    HW140744  10.854   5.749  14.166
12949SOL    HW240745  10.842   5.898  14.142
12950SOL     OW40746   6.770  11.695   5.405
12950SOL    HW140747   6.698  11.749   5.438
12950SOL    HW240748   6.736  11.606   5.404
12951SOL     OW40749   0.504   8.653   1.646
12951SOL    HW140750   0.580   8.613   1.604
12951SOL    HW240751   0.532   8.671   1.736
12952SOL     OW40752   2.158   1.745  11.827
12952SOL    HW140753   2.098   1.788  11.889
12952SOL    HW240754   2.145   1.792  11.745
12953SOL     OW40755  10.012  11.798   8.433
12953SOL    HW140756  10.100  11.772   8.461
12953SOL    HW240757  10.009  11.775   8.340
12954SOL     OW40758   4.482   1.473  11.965
12954SOL    HW140759   4.437   1.398  12.005
12954SOL    HW240760   4.498   1.447  11.875
12955SOL     OW40761   1.187   2.478  13.775
12955SOL    HW140762   1.133   2.532  13.832
12955SOL    HW240763   1.197   2.531  13.695
12956SOL     OW40764   0.333  13.741  10.589
12956SOL    HW140765   0.324  13.785  10.674
12956SOL    HW240766   0.261  13.776  10.537
12957SOL     OW40767   2.254   4.769   8.074
12957SOL    HW140768   2.292   4.855   8.091
12957SOL    HW240769   2.160   4.780   8.091
12958SOL     OW40770   4.140   2.602   9.733
12958SOL    HW140771   4.083   2.539   9.689
12958SOL    HW240772   4.223   2.556   9.746
12959SOL     OW40773  12.540   8.564   6.145
12959SOL    HW140774  12.519   8.644   6.096
12959SOL    HW240775  12.457   8.538   6.185
12960SOL     OW40776   6.184  11.581   6.635
12960SOL    HW140777   6.181  11.589   6.730
12960SOL    HW240778   6.156  11.666   6.602
12961SOL     OW40779   9.762   6.812   7.791
12961SOL    HW140780   9.823   6.870   7.837
12961SOL    HW240781   9.749   6.854   7.706
12962SOL     OW40782  12.349  11.408   9.002
12962SOL    HW140783  12.274  11.370   9.049
12962SOL    HW240784  12.312  11.437   8.919
12963SOL     OW40785   5.996   8.983  10.768
12963SOL    HW140786   5.924   9.015  10.715
12963SOL    HW240787   6.034   8.912  10.717
12964SOL     OW40788   3.068   3.169   9.866
12964SOL    HW140789   3.127   3.130   9.802
12964SOL    HW240790   3.032   3.095   9.914
12965SOL     OW40791  14.668   1.254  12.603
12965SOL    HW140792  14.620   1.267  12.685
12965SOL    HW240793  14.738   1.192  12.626
12966SOL     OW40794   0.882  13.217  10.450
12966SOL    HW140795   0.850  13.291  10.501
12966SOL    HW240796   0.952  13.180  10.503
12967SOL     OW40797   9.551  12.738   6.565
12967SOL    HW140798   9.636  12.766   6.598
12967SOL    HW240799   9.556  12.642   6.562
12968SOL     OW40800   3.767   1.752   0.017
12968SOL    HW140801   3.759   1.825  14.835
12968SOL    HW240802   3.810   1.683  14.847
12969SOL     OW40803   7.422  14.844   8.614
12969SOL    HW140804   7.503   0.015   8.626
12969SOL    HW240805   7.354   0.030   8.604
12970SOL     OW40806   6.694  11.274   6.900
12970SOL    HW140807   6.678  11.230   6.984
12970SOL    HW240808   6.764  11.336   6.918
12971SOL     OW40809   4.570   5.018  14.254
12971SOL    HW140810   4.581   5.075  14.330
12971SOL    HW240811   4.586   4.930  14.287
12972SOL     OW40812   4.484   5.938   6.846
12972SOL    HW140813   4.442   5.970   6.926
12972SOL    HW240814   4.480   5.843   6.852
12973SOL     OW40815   5.862   4.329   1.531
12973SOL    HW140816   5.792   4.349   1.470
12973SOL    HW240817   5.931   4.289   1.477
12974SOL     OW40818  13.633  12.365   0.969
12974SOL    HW140819  13.558  12.320   1.008
12974SOL    HW240820  13.708  12.308   0.989
12975SOL     OW40821   0.933   6.905  14.176
12975SOL    HW140822   1.023   6.936  14.167
12975SOL    HW240823   0.887   6.943  14.101
12976SOL     OW40824  13.925   7.716  11.041
12976SOL    HW140825  13.951   7.799  11.002
12976SOL    HW240826  13.986   7.652  11.005
12977SOL     OW40827   0.011   0.654  12.795
12977SOL    HW140828  14.797   0.666  12.810
12977SOL    HW240829   0.052   0.722  12.848
12978SOL     OW40830   4.065   5.552  12.319
12978SOL    HW140831   4.123   5.595  12.256
12978SOL    HW240832   4.010   5.494  12.266
12979SOL     OW40833   2.066   6.441   7.450
12979SOL    HW140834   2.060   6.515   7.389
12979SOL    HW240835   2.133   6.384   7.413
12980SOL     OW40836   7.609  10.832   6.400
12980SOL    HW140837   7.691  10.792   6.430
12980SOL    HW240838   7.571  10.768   6.341
12981SOL     OW40839  13.894   9.106   3.907
12981SOL    HW140840  13.955   9.036   3.931
12981SOL    HW240841  13.821   9.097   3.967
12982SOL     OW40842   1.914   2.966   8.642
12982SOL    HW140843   1.990   2.998   8.593
12982SOL    HW240844   1.858   3.043   8.653
12983SOL     OW40845  11.023   9.577   8.936
12983SOL    HW140846  11.001   9.554   9.026
12983SOL    HW240847  11.115   9.606   8.940
12984SOL     OW40848   0.408   5.560   2.725
12984SOL    HW140849   0.446   5.472   2.732
12984SOL    HW240850   0.484   5.617   2.714
12985SOL     OW40851   4.922   3.768   5.123
12985SOL    HW140852   4.839   3.774   5.075
12985SOL    HW240853   4.931   3.675   5.144
12986SOL     OW40854  14.101  12.454  13.353
12986SOL    HW140855  14.119  12.491  13.439
12986SOL    HW240856  14.111  12.527  13.292
12987SOL     OW40857  10.935  13.060   7.325
12987SOL    HW140858  10.989  13.125   7.370
12987SOL    HW240859  10.998  12.995   7.292
12988SOL     OW40860   6.551  12.914  10.027
12988SOL    HW140861   6.622  12.851  10.021
12988SOL    HW240862   6.471  12.861  10.025
12989SOL     OW40863   4.651   5.514   4.765
12989SOL    HW140864   4.562   5.514   4.731
12989SOL    HW240865   4.706   5.526   4.688
12990SOL     OW40866   6.200   2.771   9.185
12990SOL    HW140867   6.128   2.830   9.208
12990SOL    HW240868   6.262   2.827   9.138
12991SOL     OW40869  13.471  10.637  11.929
12991SOL    HW140870  13.564  10.637  11.907
12991SOL    HW240871  13.466  10.594  12.015
12992SOL     OW40872  12.672   3.127   5.789
12992SOL    HW140873  12.662   3.199   5.851
12992SOL    HW240874  12.766   3.108   5.790
12993SOL     OW40875   6.856   8.030   1.843
12993SOL    HW140876   6.868   8.029   1.748
12993SOL    HW240877   6.872   7.939   1.871
12994SOL     OW40878   1.121  12.647   4.705
12994SOL    HW140879   1.055  12.581   4.728
12994SOL    HW240880   1.121  12.648   4.609
12995SOL     OW40881  11.329   9.777   9.213
12995SOL    HW140882  11.279   9.695   9.217
12995SOL    HW240883  11.274   9.836   9.161
12996SOL     OW40884   3.488  12.186   6.357
12996SOL    HW140885   3.396  12.213   6.365
12996SOL    HW240886   3.505  12.136   6.437
12997SOL     OW40887  10.105  13.811   7.657
12997SOL    HW140888  10.057  13.878   7.608
12997SOL    HW240889  10.076  13.823   7.748
12998SOL     OW40890   5.751   4.500   7.802
12998SOL    HW140891   5.688   4.429   7.793
12998SOL    HW240892   5.778   4.497   7.894
12999SOL     OW40893  12.921   2.739   4.028
12999SOL    HW140894  12.977   2.780   3.962
12999SOL    HW240895  12.910   2.806   4.095
13000SOL     OW40896   2.226  11.035  12.125
13000SOL    HW140897   2.309  10.993  12.103
13000SOL    HW240898   2.167  10.964  12.148
13001SOL     OW40899   8.459   5.452   3.585
13001SOL    HW140900   8.363   5.462   3.580
13001SOL    HW240901   8.488   5.528   3.636
13002SOL     OW40902  10.530  12.310  14.586
13002SOL    HW140903  10.536  12.402  14.614
13002SOL    HW240904  10.547  12.260  14.666
13003SOL     OW40905   4.548   9.411   6.139
13003SOL    HW140906   4.468   9.394   6.089
13003SOL    HW240907   4.608   9.341   6.112
13004SOL     OW40908   5.644   3.341   1.834
13004SOL    HW140909   5.678   3.261   1.795
13004SOL    HW240910   5.716   3.404   1.830
13005SOL     OW40911   5.960   6.914   9.581
13005SOL    HW140912   5.923   6.862   9.653
13005SOL    HW240913   5.952   7.005   9.609
13006SOL     OW40914   6.099   5.258   4.403
13006SOL    HW140915   6.130   5.270   4.493
13006SOL    HW240916   6.169   5.208   4.361
13007SOL     OW40917  10.862  11.633  13.943
13007SOL    HW140918  10.793  11.597  13.887
13007SOL    HW240919  10.821  11.645  14.028
13008SOL     OW40920   6.900   7.714   9.416
13008SOL    HW140921   6.846   7.722   9.495
13008SOL    HW240922   6.859   7.644   9.366
13009SOL     OW40923   0.823  11.654   1.176
13009SOL    HW140924   0.881  11.583   1.204
13009SOL    HW240925   0.743  11.610   1.148
13010SOL     OW40926  14.846   6.270  13.339
13010SOL    HW140927   0.016   6.197  13.302
13010SOL    HW240928   0.031   6.340  13.348
13011SOL     OW40929  14.792   2.867  13.477
13011SOL    HW140930  14.770   2.780  13.510
13011SOL    HW240931   0.005   2.878  13.498
13012SOL     OW40932   7.471   4.118  13.855
13012SOL    HW140933   7.562   4.090  13.844
13012SOL    HW240934   7.427   4.086  13.776
13013SOL     OW40935   3.407   6.879  13.001
13013SOL    HW140936   3.485   6.904  12.950
13013SOL    HW240937   3.441   6.824  13.072
13014SOL     OW40938   3.432  12.129   1.354
13014SOL    HW140939   3.437  12.033   1.350
13014SOL    HW240940   3.343  12.147   1.384
13015SOL     OW40941   9.575  10.613   5.441
13015SOL    HW140942   9.504  10.659   5.484
13015SOL    HW240943   9.585  10.658   5.357
13016SOL     OW40944   5.203   5.025   3.993
13016SOL    HW140945   5.202   4.931   4.012
13016SOL    HW240946   5.188   5.066   4.078
13017SOL     OW40947   2.163   1.436   9.560
13017SOL    HW140948   2.131   1.430   9.650
13017SOL    HW240949   2.186   1.346   9.537
13018SOL     OW40950   1.892  14.149  13.285
13018SOL    HW140951   1.817  14.090  13.282
13018SOL    HW240952   1.899  14.173  13.377
13019SOL     OW40953  14.130   7.661  14.787
13019SOL    HW140954  14.221   7.691  14.782
13019SOL    HW240955  14.083   7.731  14.831
13020SOL     OW40956   3.427   5.574   3.451
13020SOL    HW140957   3.379   5.501   3.413
13020SOL    HW240958   3.377   5.597   3.530
13021SOL     OW40959   1.130   6.054   4.352
13021SOL    HW140960   1.057   6.083   4.407
13021SOL    HW240961   1.207   6.064   4.408
13022SOL     OW40962   5.196   7.823   6.871
13022SOL    HW140963   5.190   7.909   6.912
13022SOL    HW240964   5.224   7.764   6.941
13023SOL     OW40965  14.505  14.443   5.000
13023SOL    HW140966  14.528  14.510   4.936
13023SOL    HW240967  14.463  14.491   5.072
13024SOL     OW40968   8.681   7.020  11.247
13024SOL    HW140969   8.625   6.986  11.317
13024SOL    HW240970   8.747   7.072  11.292
13025SOL     OW40971   3.803  10.065   5.480
13025SOL    HW140972   3.892  10.063   5.515
13025SOL    HW240973   3.759   9.992   5.523
13026SOL     OW40974  10.194  13.077   4.165
13026SOL    HW140975  10.234  13.012   4.223
13026SOL    HW240976  10.262  13.144   4.156
13027SOL     OW40977  11.264   1.335   4.118
13027SOL    HW140978  11.264   1.242   4.140
13027SOL    HW240979  11.205   1.375   4.182
13028SOL     OW40980   4.032   8.626   8.496
13028SOL    HW140981   4.094   8.645   8.426
13028SOL    HW240982   3.984   8.548   8.466
13029SOL     OW40983  10.104   9.366   2.547
13029SOL    HW140984  10.075   9.294   2.604
13029SOL    HW240985  10.102   9.443   2.604
13030SOL     OW40986   5.834  14.491   8.105
13030SOL    HW140987   5.838  14.441   8.186
13030SOL    HW240988   5.926  14.511   8.084
13031SOL     OW40989   1.755  14.249  10.981
13031SOL    HW140990   1.697  14.325  10.975
13031SOL    HW240991   1.700  14.175  10.954
13032SOL     OW40992   0.248   8.717   3.292
13032SOL    HW140993   0.276   8.693   3.204
13032SOL    HW240994   0.193   8.794   3.279
13033SOL     OW40995   1.316  10.616   6.277
13033SOL    HW140996   1.290  10.620   6.185
13033SOL    HW240997   1.299  10.525   6.303
13034SOL     OW40998   5.769   6.773  14.490
13034SOL    HW140999   5.683   6.787  14.530
13034SOL    HW241000   5.774   6.679  14.476
13035SOL     OW41001  10.896  10.148   8.915
13035SOL    HW141002  10.831  10.103   8.968
13035SOL    HW241003  10.913  10.230   8.961
13036SOL     OW41004   5.863   6.186   3.088
13036SOL    HW141005   5.824   6.250   3.029
13036SOL    HW241006   5.804   6.186   3.164
13037SOL     OW41007   0.083   9.496   0.536
13037SOL    HW141008  14.873   9.497   0.501
13037SOL    HW241009   0.139   9.497   0.459
13038SOL     OW41010   3.943  11.534  13.540
13038SOL    HW141011   3.948  11.597  13.612
13038SOL    HW241012   4.032  11.531  13.505
13039SOL     OW41013   3.596   8.032  10.829
13039SOL    HW141014   3.658   8.007  10.897
13039SOL    HW241015   3.651   8.067  10.758
13040SOL     OW41016   7.268   6.760   5.477
13040SOL    HW141017   7.247   6.808   5.397
13040SOL    HW241018   7.344   6.806   5.513
13041SOL     OW41019   7.014  10.779   4.101
13041SOL    HW141020   6.942  10.722   4.127
13041SOL    HW241021   6.983  10.822   4.021
13042SOL     OW41022  13.247   8.128   9.561
13042SOL    HW141023  13.321   8.188   9.558
13042SOL    HW241024  13.260   8.078   9.641
13043SOL     OW41025   6.127   3.643  12.395
13043SOL    HW141026   6.120   3.641  12.300
13043SOL    HW241027   6.060   3.704  12.423
13044SOL     OW41028  13.434   8.916   3.964
13044SOL    HW141029  13.512   8.899   4.017
13044SOL    HW241030  13.369   8.946   4.028
13045SOL     OW41031   3.964   8.621  11.756
13045SOL    HW141032   3.952   8.637  11.849
13045SOL    HW241033   4.040   8.562  11.751
13046SOL     OW41034   9.860   8.042   4.812
13046SOL    HW141035   9.816   7.962   4.843
13046SOL    HW241036   9.911   8.072   4.887
13047SOL     OW41037   3.904   0.082  14.728
13047SOL    HW141038   3.969   0.024  14.688
13047SOL    HW241039   3.835   0.091  14.663
13048SOL     OW41040   8.214  14.825   4.639
13048SOL    HW141041   8.210  14.734   4.610
13048SOL    HW241042   8.301  14.855   4.612
13049SOL     OW41043   4.473   5.388   8.401
13049SOL    HW141044   4.491   5.461   8.342
13049SOL    HW241045   4.543   5.325   8.384
13050SOL     OW41046  14.306   7.410   9.863
13050SOL    HW141047  14.273   7.446   9.781
13050SOL    HW241048  14.228   7.385   9.912
13051SOL     OW41049   5.823  12.373   0.182
13051SOL    HW141050   5.782  12.391   0.098
13051SOL    HW241051   5.881  12.299   0.165
13052SOL     OW41052   8.071  13.897   4.558
13052SOL    HW141053   8.103  13.923   4.644
13052SOL    HW241054   8.149  13.864   4.512
13053SOL     OW41055   8.532  14.662  13.271
13053SOL    HW141056   8.564  14.750  13.287
13053SOL    HW241057   8.441  14.664  13.301
13054SOL     OW41058   4.207   8.917   2.575
13054SOL    HW141059   4.275   8.876   2.521
13054SOL    HW241060   4.176   8.846   2.631
13055SOL     OW41061   3.692   4.440   9.710
13055SOL    HW141062   3.764   4.387   9.743
13055SOL    HW241063   3.642   4.380   9.654
13056SOL     OW41064  10.412  12.962   9.906
13056SOL    HW141065  10.505  12.948   9.885
13056SOL    HW241066  10.399  13.056   9.900
13057SOL     OW41067   2.841   9.461  13.501
13057SOL    HW141068   2.753   9.440  13.470
13057SOL    HW241069   2.827   9.528  13.569
13058SOL     OW41070   3.310  11.198   0.469
13058SOL    HW141071   3.339  11.277   0.424
13058SOL    HW241072   3.360  11.127   0.429
13059SOL     OW41073   5.908   9.841   7.837
13059SOL    HW141074   5.997   9.876   7.838
13059SOL    HW241075   5.913   9.764   7.780
13060SOL     OW41076   2.698   2.214   3.151
13060SOL    HW141077   2.794   2.216   3.153
13060SOL    HW241078   2.674   2.247   3.065
13061SOL     OW41079   3.455   4.515  11.537
13061SOL    HW141080   3.428   4.424  11.527
13061SOL    HW241081   3.495   4.519  11.624
13062SOL     OW41082   8.450   3.231  13.741
13062SOL    HW141083   8.541   3.239  13.769
13062SOL    HW241084   8.404   3.199  13.818
13063SOL     OW41085   9.059   2.050  14.309
13063SOL    HW141086   9.131   2.103  14.275
13063SOL    HW241087   9.099   1.965  14.327
13064SOL     OW41088   9.575  14.781  10.558
13064SOL    HW141089   9.537  14.736  10.483
13064SOL    HW241090   9.591  14.712  10.623
13065SOL     OW41091  11.592   4.526   6.631
13065SOL    HW141092  11.658   4.595   6.634
13065SOL    HW241093  11.509   4.572   6.618
13066SOL     OW41094  13.165   8.471  13.341
13066SOL    HW141095  13.170   8.435  13.252
13066SOL    HW241096  13.207   8.557  13.334
13067SOL     OW41097   5.872   1.083   0.155
13067SOL    HW141098   5.789   1.125   0.134
13067SOL    HW241099   5.882   1.097   0.250
13068SOL     OW41100  10.601  14.035  10.948
13068SOL    HW141101  10.522  13.981  10.947
13068SOL    HW241102  10.569  14.123  10.969
13069SOL     OW41103   5.803  14.487  14.375
13069SOL    HW141104   5.835  14.440  14.452
13069SOL    HW241105   5.848  14.572  14.377
13070SOL     OW41106   5.281  13.895   2.584
13070SOL    HW141107   5.312  13.910   2.673
13070SOL    HW241108   5.303  13.976   2.537
13071SOL     OW41109  12.831  12.789   0.715
13071SOL    HW141110  12.913  12.750   0.745
13071SOL    HW241111  12.838  12.787   0.619
13072SOL     OW41112  11.529   9.755  13.383
13072SOL    HW141113  11.443   9.771  13.343
13072SOL    HW241114  11.590   9.761  13.310
13073SOL     OW41115   0.314   0.761   3.312
13073SOL    HW141116   0.370   0.773   3.388
13073SOL    HW241117   0.298   0.666   3.308
13074SOL     OW41118   5.561   9.649  11.228
13074SOL    HW141119   5.515   9.567  11.213
13074SOL    HW241120   5.646   9.623  11.265
13075SOL     OW41121   3.314  13.890  11.278
13075SOL    HW141122   3.400  13.925  11.298
13075SOL    HW241123   3.329  13.796  11.265
13076SOL     OW41124   0.106   3.248   1.965
13076SOL    HW141125   0.080   3.168   2.011
13076SOL    HW241126   0.200   3.240   1.952
13077SOL     OW41127  12.285   8.659   6.611
13077SOL    HW141128  12.342   8.684   6.685
13077SOL    HW241129  12.269   8.741   6.565
13078SOL     OW41130   6.645  12.028   6.257
13078SOL    HW141131   6.589  11.969   6.306
13078SOL    HW241132   6.734  12.006   6.285
13079SOL     OW41133  14.202   1.400   0.520
13079SOL    HW141134  14.261   1.336   0.478
13079SOL    HW241135  14.122   1.350   0.538
13080SOL     OW41136  14.645   4.606   4.637
13080SOL    HW141137  14.626   4.656   4.557
13080SOL    HW241138  14.628   4.515   4.613
13081SOL     OW41139   4.918   3.949   7.648
13081SOL    HW141140   4.924   4.001   7.729
13081SOL    HW241141   4.999   3.969   7.602
13082SOL     OW41142   9.011  14.747   4.502
13082SOL    HW141143   9.062  14.720   4.426
13082SOL    HW241144   8.972  14.830   4.476
13083SOL     OW41145   2.980  12.991   0.074
13083SOL    HW141146   2.884  12.988   0.078
13083SOL    HW241147   2.999  13.048  14.879
13084SOL     OW41148   0.575   7.955   8.461
13084SOL    HW141149   0.610   7.870   8.486
13084SOL    HW241150   0.652   8.011   8.453
13085SOL     OW41151   0.716   3.805   8.315
13085SOL    HW141152   0.694   3.796   8.222
13085SOL    HW241153   0.778   3.878   8.318
13086SOL     OW41154   2.094   1.975  13.439
13086SOL    HW141155   2.085   2.026  13.519
13086SOL    HW241156   2.032   1.903  13.449
13087SOL     OW41157   3.915   7.165  10.309
13087SOL    HW141158   3.994   7.203  10.346
13087SOL    HW241159   3.851   7.169  10.380
13088SOL     OW41160  10.300  10.915   2.155
13088SOL    HW141161  10.275  10.829   2.123
13088SOL    HW241162  10.325  10.964   2.077
13089SOL     OW41163   5.253   6.027   4.309
13089SOL    HW141164   5.324   5.977   4.348
13089SOL    HW241165   5.296   6.100   4.264
13090SOL     OW41166  12.520   7.735  10.355
13090SOL    HW141167  12.608   7.773  10.343
13090SOL    HW241168  12.462   7.811  10.360
13091SOL     OW41169   8.352   6.243  10.693
13091SOL    HW141170   8.406   6.165  10.676
13091SOL    HW241171   8.363   6.259  10.787
13092SOL     OW41172   8.131  10.764  11.694
13092SOL    HW141173   8.146  10.857  11.711
13092SOL    HW241174   8.112  10.726  11.780
13093SOL     OW41175   6.631   6.481   0.982
13093SOL    HW141176   6.567   6.491   0.912
13093SOL    HW241177   6.661   6.570   1.000
13094SOL     OW41178   7.466   9.435   0.202
13094SOL    HW141179   7.540   9.434   0.141
13094SOL    HW241180   7.425   9.349   0.191
13095SOL     OW41181   9.133  11.254   8.122
13095SOL    HW141182   9.058  11.303   8.156
13095SOL    HW241183   9.205  11.280   8.179
13096SOL     OW41184  10.395  14.273   4.890
13096SOL    HW141185  10.381  14.277   4.795
13096SOL    HW241186  10.479  14.227   4.900
13097SOL     OW41187  14.344   4.432   0.393
13097SOL    HW141188  14.343   4.338   0.415
13097SOL    HW241189  14.376   4.435   0.303
13098SOL     OW41190   1.471   0.284  12.914
13098SOL    HW141191   1.488   0.360  12.858
13098SOL    HW241192   1.538   0.290  12.982
13099SOL     OW41193   8.990   5.717  10.825
13099SOL    HW141194   9.061   5.778  10.845
13099SOL    HW241195   8.945   5.755  10.750
13100SOL     OW41196   3.964   0.801  14.045
13100SOL    HW141197   3.926   0.722  14.083
13100SOL    HW241198   3.992   0.774  13.958
13101SOL     OW41199  10.554   9.601   5.105
13101SOL    HW141200  10.543   9.506   5.095
13101SOL    HW241201  10.611   9.626   5.032
13102SOL     OW41202   7.819   9.566  10.145
13102SOL    HW141203   7.906   9.601  10.124
13102SOL    HW241204   7.826   9.472  10.126
13103SOL     OW41205   6.100   6.388   9.668
13103SOL    HW141206   6.027   6.416   9.723
13103SOL    HW241207   6.163   6.350   9.729
13104SOL     OW41208  14.019  10.796   6.694
13104SOL    HW141209  14.067  10.840   6.765
13104SOL    HW241210  13.952  10.860   6.668
13105SOL     OW41211   6.997   6.921   7.943
13105SOL    HW141212   6.994   6.934   7.848
13105SOL    HW241213   7.088   6.895   7.960
13106SOL     OW41214   5.800  10.944   3.266
13106SOL    HW141215   5.828  10.904   3.348
13106SOL    HW241216   5.720  10.993   3.290
13107SOL     OW41217   6.091  12.680   8.119
13107SOL    HW141218   6.045  12.694   8.202
13107SOL    HW241219   6.126  12.591   8.126
13108SOL     OW41220   2.113  11.311  14.281
13108SOL    HW141221   2.072  11.344  14.360
13108SOL    HW241222   2.055  11.241  14.251
13109SOL     OW41223   6.348  12.622   5.359
13109SOL    HW141224   6.282  12.661   5.416
13109SOL    HW241225   6.332  12.528   5.363
13110SOL     OW41226   6.360  11.512  12.766
13110SOL    HW141227   6.269  11.484  12.767
13110SOL    HW241228   6.395  11.476  12.684
13111SOL     OW41229   9.898   8.445   1.288
13111SOL    HW141230   9.957   8.513   1.257
13111SOL    HW241231   9.954   8.369   1.303
13112SOL     OW41232   3.250   1.732  10.706
13112SOL    HW141233   3.340   1.762  10.692
13112SOL    HW241234   3.213   1.798  10.765
13113SOL     OW41235   2.792  14.854   3.530
13113SOL    HW141236   2.834   0.057   3.555
13113SOL    HW241237   2.823  14.791   3.596
13114SOL     OW41238   8.706   6.958   8.532
13114SOL    HW141239   8.798   6.962   8.558
13114SOL    HW241240   8.676   7.049   8.536
13115SOL     OW41241  12.883   1.891  14.016
13115SOL    HW141242  12.889   1.977  14.058
13115SOL    HW241243  12.807   1.850  14.058
13116SOL     OW41244  11.751   7.394  11.449
13116SOL    HW141245  11.796   7.457  11.506
13116SOL    HW241246  11.686   7.352  11.506
13117SOL     OW41247   2.896   2.391   4.270
13117SOL    HW141248   2.811   2.384   4.314
13117SOL    HW241249   2.960   2.374   4.339
13118SOL     OW41250   8.924   6.852  12.308
13118SOL    HW141251   8.931   6.945  12.329
13118SOL    HW241252   8.933   6.808  12.392
13119SOL     OW41253   5.912  11.279   6.804
13119SOL    HW141254   5.836  11.326   6.769
13119SOL    HW241255   5.943  11.334   6.877
13120SOL     OW41256   8.189   2.910  12.397
13120SOL    HW141257   8.158   3.000  12.385
13120SOL    HW241258   8.129   2.857  12.344
13121SOL     OW41259   1.883   9.464   1.890
13121SOL    HW141260   1.886   9.369   1.902
13121SOL    HW241261   1.919   9.479   1.803
13122SOL     OW41262   6.662  13.066  10.936
13122SOL    HW141263   6.595  13.133  10.949
13122SOL    HW241264   6.738  13.098  10.984
13123SOL     OW41265  10.848  13.714  14.047
13123SOL    HW141266  10.891  13.727  14.131
13123SOL    HW241267  10.774  13.657  14.066
13124SOL     OW41268  10.251   1.710  11.442
13124SOL    HW141269  10.181   1.644  11.444
13124SOL    HW241270  10.319   1.675  11.500
13125SOL     OW41271   4.419   0.097  12.858
13125SOL    HW141272   4.494   0.110  12.800
13125SOL    HW241273   4.358   0.166  12.835
13126SOL     OW41274  11.784   9.624   1.154
13126SOL    HW141275  11.694   9.594   1.165
13126SOL    HW241276  11.826   9.607   1.239
13127SOL     OW41277   8.576   5.120   0.176
13127SOL    HW141278   8.637   5.128   0.102
13127SOL    HW241279   8.632   5.103   0.252
13128SOL     OW41280  13.599   6.705   6.619
13128SOL    HW141281  13.535   6.666   6.679
13128SOL    HW241282  13.683   6.669   6.647
13129SOL     OW41283   6.795   1.042   7.949
13129SOL    HW141284   6.743   1.105   7.998
13129SOL    HW241285   6.857   1.007   8.014
13130SOL     OW41286   3.994   4.987   0.623
13130SOL    HW141287   3.911   5.034   0.613
13130SOL    HW241288   3.970   4.902   0.659
13131SOL     OW41289   0.668   3.032  14.501
13131SOL    HW141290   0.678   3.120  14.466
13131SOL    HW241291   0.670   2.975  14.424
13132SOL     OW41292  11.060  14.481  11.701
13132SOL    HW141293  11.081  14.429  11.623
13132SOL    HW241294  11.137  14.535  11.716
13133SOL     OW41295   6.923   9.295   9.461
13133SOL    HW141296   6.977   9.243   9.401
13133SOL    HW241297   6.856   9.334   9.405
13134SOL     OW41298  12.633   5.978  13.289
13134SOL    HW141299  12.600   5.893  13.258
13134SOL    HW241300  12.630   6.034  13.211
13135SOL     OW41301   9.023  10.950   2.238
13135SOL    HW141302   9.057  11.002   2.311
13135SOL    HW241303   9.074  10.870   2.239
13136SOL     OW41304  12.598  11.132   4.971
13136SOL    HW141305  12.619  11.217   5.010
13136SOL    HW241306  12.624  11.068   5.037
13137SOL     OW41307   2.221  11.848  13.156
13137SOL    HW141308   2.243  11.779  13.093
13137SOL    HW241309   2.183  11.801  13.231
13138SOL     OW41310  13.105  13.233   6.016
13138SOL    HW141311  13.083  13.174   6.088
13138SOL    HW241312  13.049  13.204   5.943
13139SOL     OW41313   1.247  14.650  12.972
13139SOL    HW141314   1.214  14.701  13.046
13139SOL    HW241315   1.175  14.591  12.949
13140SOL     OW41316   5.906  12.304   3.411
13140SOL    HW141317   5.929  12.391   3.377
13140SOL    HW241318   5.908  12.247   3.335
13141SOL     OW41319  10.885   5.081   3.730
13141SOL    HW141320  10.946   5.044   3.667
13141SOL    HW241321  10.883   5.018   3.802
13142SOL     OW41322   1.027   3.875   3.984
13142SOL    HW141323   1.000   3.882   3.892
13142SOL    HW241324   1.019   3.782   4.005
13143SOL     OW41325   7.431  13.705   0.241
13143SOL    HW141326   7.504  13.744   0.192
13143SOL    HW241327   7.354  13.751   0.208
13144SOL     OW41328  12.106  11.015   6.123
13144SOL    HW141329  12.058  10.976   6.196
13144SOL    HW241330  12.061  10.983   6.045
13145SOL     OW41331   7.605  10.633  11.405
13145SOL    HW141332   7.623  10.715  11.359
13145SOL    HW241333   7.598  10.568  11.335
13146SOL     OW41334   5.980  14.409  13.909
13146SOL    HW141335   5.982  14.474  13.979
13146SOL    HW241336   6.072  14.385  13.896
13147SOL     OW41337  10.534  11.684  13.986
13147SOL    HW141338  10.474  11.611  13.974
13147SOL    HW241339  10.481  11.762  13.965
13148SOL     OW41340   5.315  12.892  14.761
13148SOL    HW141341   5.240  12.939  14.796
13148SOL    HW241342   5.281  12.806  14.738
13149SOL     OW41343  11.460   4.792  11.633
13149SOL    HW141344  11.498   4.712  11.597
13149SOL    HW241345  11.501   4.863  11.583
13150SOL     OW41346   3.479   4.178  14.185
13150SOL    HW141347   3.542   4.122  14.140
13150SOL    HW241348   3.394   4.152  14.148
13151SOL     OW41349   7.330   3.174  10.482
13151SOL    HW141350   7.355   3.203  10.569
13151SOL    HW241351   7.373   3.235  10.422
13152SOL     OW41352   7.654   0.274  10.121
13152SOL    HW141353   7.635   0.367  10.110
13152SOL    HW241354   7.637   0.257  10.213
13153SOL     OW41355   1.818  14.709   1.412
13153SOL    HW141356   1.898  14.736   1.458
13153SOL    HW241357   1.816  14.763   1.333
13154SOL     OW41358   8.518   5.166   5.698
13154SOL    HW141359   8.490   5.207   5.616
13154SOL    HW241360   8.606   5.199   5.713
13155SOL     OW41361  14.845   8.536   5.143
13155SOL    HW141362   0.010   8.587   5.075
13155SOL    HW241363  14.857   8.445   5.117
13156SOL     OW41364  12.577   8.628   3.570
13156SOL    HW141365  12.635   8.645   3.496
13156SOL    HW241366  12.626   8.659   3.646
13157SOL     OW41367  11.815   6.150   7.156
13157SOL    HW141368  11.810   6.242   7.182
13157SOL    HW241369  11.880   6.113   7.216
13158SOL     OW41370   0.536   6.856   8.106
13158SOL    HW141371   0.557   6.782   8.164
13158SOL    HW241372   0.570   6.933   8.152
13159SOL     OW41373   2.751   1.450   3.780
13159SOL    HW141374   2.744   1.357   3.804
13159SOL    HW241375   2.660   1.477   3.764
13160SOL     OW41376   8.019  10.049   6.925
13160SOL    HW141377   8.070   9.967   6.924
13160SOL    HW241378   8.067  10.106   6.985
13161SOL     OW41379  12.738   8.221   8.756
13161SOL    HW141380  12.741   8.316   8.767
13161SOL    HW241381  12.649   8.202   8.728
13162SOL     OW41382   0.610  12.893   5.763
13162SOL    HW141383   0.623  12.982   5.731
13162SOL    HW241384   0.692  12.872   5.808
13163SOL     OW41385   1.675   4.912   7.701
13163SOL    HW141386   1.742   4.972   7.733
13163SOL    HW241387   1.600   4.925   7.760
13164SOL     OW41388   4.663   3.680   9.604
13164SOL    HW141389   4.649   3.755   9.662
13164SOL    HW241390   4.575   3.644   9.591
13165SOL     OW41391   7.602  13.332  12.495
13165SOL    HW141392   7.579  13.421  12.519
13165SOL    HW241393   7.694  13.337  12.469
13166SOL     OW41394   5.044   9.703   4.614
13166SOL    HW141395   5.037   9.608   4.608
13166SOL    HW241396   4.963   9.735   4.573
13167SOL     OW41397   6.270  14.661   1.280
13167SOL    HW141398   6.215  14.614   1.217
13167SOL    HW241399   6.329  14.593   1.315
13168SOL     OW41400   1.358   5.159   0.016
13168SOL    HW141401   1.325   5.173  14.807
13168SOL    HW241402   1.440   5.208   0.020
13169SOL     OW41403  13.311   4.896   6.610
13169SOL    HW141404  13.307   4.869   6.518
13169SOL    HW241405  13.334   4.988   6.607
13170SOL     OW41406   4.320   8.177   4.875
13170SOL    HW141407   4.271   8.141   4.948
13170SOL    HW241408   4.287   8.130   4.798
13171SOL     OW41409  14.463   3.125  13.780
13171SOL    HW141410  14.426   3.110  13.693
13171SOL    HW241411  14.387   3.132  13.838
13172SOL     OW41412  12.175   9.552   6.463
13172SOL    HW141413  12.169   9.505   6.380
13172SOL    HW241414  12.266   9.542   6.490
13173SOL     OW41415  10.356   8.377   3.031
13173SOL    HW141416  10.353   8.405   3.122
13173SOL    HW241417  10.402   8.447   2.985
13174SOL     OW41418   9.008   1.801  12.500
13174SOL    HW141419   9.021   1.802  12.595
13174SOL    HW241420   8.949   1.728  12.484
13175SOL     OW41421  10.732   1.666  14.422
13175SOL    HW141422  10.700   1.612  14.349
13175SOL    HW241423  10.827   1.657  14.418
13176SOL     OW41424   8.350   6.813   0.812
13176SOL    HW141425   8.410   6.840   0.743
13176SOL    HW241426   8.298   6.892   0.830
13177SOL     OW41427   0.407  11.498  11.776
13177SOL    HW141428   0.332  11.447  11.744
13177SOL    HW241429   0.379  11.589  11.766
13178SOL     OW41430   8.416   1.768  11.099
13178SOL    HW141431   8.449   1.857  11.089
13178SOL    HW241432   8.379   1.747  11.013
13179SOL     OW41433  11.585   9.111   6.581
13179SOL    HW141434  11.621   9.132   6.495
13179SOL    HW241435  11.584   9.194   6.628
13180SOL     OW41436   1.478   2.350   6.554
13180SOL    HW141437   1.446   2.433   6.590
13180SOL    HW241438   1.479   2.363   6.459
13181SOL     OW41439  12.358   6.369   0.771
13181SOL    HW141440  12.309   6.388   0.852
13181SOL    HW241441  12.338   6.443   0.714
13182SOL     OW41442   4.224   3.531   3.443
13182SOL    HW141443   4.161   3.550   3.513
13182SOL    HW241444   4.170   3.505   3.369
13183SOL     OW41445   5.453  12.016   8.524
13183SOL    HW141446   5.401  11.959   8.467
13183SOL    HW241447   5.459  11.968   8.606
13184SOL     OW41448   5.722   9.737  14.715
13184SOL    HW141449   5.802   9.728  14.663
13184SOL    HW241450   5.662   9.783  14.657
13185SOL     OW41451  14.113   9.185   1.639
13185SOL    HW141452  14.125   9.224   1.553
13185SOL    HW241453  14.074   9.254   1.693
13186SOL     OW41454  12.673   8.780   4.759
13186SOL    HW141455  12.632   8.702   4.795
13186SOL    HW241456  12.760   8.783   4.800
13187SOL     OW41457   9.825  13.723   5.307
13187SOL    HW141458   9.851  13.789   5.242
13187SOL    HW241459   9.793  13.649   5.256
13188SOL     OW41460   3.109   6.919   7.100
13188SOL    HW141461   3.083   6.985   7.037
13188SOL    HW241462   3.043   6.850   7.092
13189SOL     OW41463   8.839   0.990   8.799
13189SOL    HW141464   8.813   0.900   8.816
13189SOL    HW241465   8.919   0.983   8.748
13190SOL     OW41466  13.202   1.613  12.977
13190SOL    HW141467  13.296   1.628  12.984
13190SOL    HW241468  13.189   1.524  13.010
13191SOL     OW41469  13.098   9.627   7.627
13191SOL    HW141470  13.143   9.682   7.691
13191SOL    HW241471  13.040   9.687   7.581
13192SOL     OW41472  11.307  13.257  12.925
13192SOL    HW141473  11.259  13.176  12.944
13192SOL    HW241474  11.246  13.309  12.871
13193SOL     OW41475   3.703   9.128   1.642
13193SOL    HW141476   3.652   9.057   1.682
13193SOL    HW241477   3.724   9.187   1.714
13194SOL     OW41478   1.652  10.037  13.929
13194SOL    HW141479   1.570  10.082  13.950
13194SOL    HW241480   1.648  10.023  13.835
13195SOL     OW41481  10.672   0.958   3.916
13195SOL    HW141482  10.726   0.879   3.922
13195SOL    HW241483  10.736   1.030   3.911
13196SOL     OW41484   7.261   3.072  13.576
13196SOL    HW141485   7.271   3.005  13.643
13196SOL    HW241486   7.245   3.153  13.625
13197SOL     OW41487  11.726  11.728  11.367
13197SOL    HW141488  11.664  11.677  11.314
13197SOL    HW241489  11.749  11.670  11.439
13198SOL     OW41490   4.132   4.344   0.583
13198SOL    HW141491   4.050   4.309   0.617
13198SOL    HW241492   4.115   4.358   0.490
13199SOL     OW41493   3.563  12.783   7.588
13199SOL    HW141494   3.529  12.872   7.585
13199SOL    HW241495   3.500  12.735   7.642
13200SOL     OW41496   3.824   7.830   8.578
13200SOL    HW141497   3.842   7.792   8.664
13200SOL    HW241498   3.799   7.921   8.597
13201SOL     OW41499   9.202   3.861  10.572
13201SOL    HW141500   9.253   3.827  10.645
13201SOL    HW241501   9.256   3.932  10.536
13202SOL     OW41502  10.275  14.557   2.952
13202SOL    HW141503  10.236  14.542   2.866
13202SOL    HW241504  10.318  14.473   2.973
13203SOL     OW41505  11.285  10.911   5.541
13203SOL    HW141506  11.278  10.833   5.486
13203SOL    HW241507  11.207  10.908   5.597
13204SOL     OW41508  12.434  11.836   7.087
13204SOL    HW141509  12.480  11.849   7.170
13204SOL    HW241510  12.366  11.772   7.107
13205SOL     OW41511   5.954   9.180   5.614
13205SOL    HW141512   5.928   9.088   5.621
13205SOL    HW241513   5.900   9.215   5.543
13206SOL     OW41514   9.694   9.332  13.773
13206SOL    HW141515   9.629   9.351  13.841
13206SOL    HW241516   9.655   9.259  13.724
13207SOL     OW41517   7.789   8.952   2.337
13207SOL    HW141518   7.821   8.918   2.421
13207SOL    HW241519   7.808   8.882   2.275
13208SOL     OW41520   0.733   3.550   0.334
13208SOL    HW141521   0.784   3.614   0.385
13208SOL    HW241522   0.699   3.489   0.400
13209SOL     OW41523   8.205   0.543   1.624
13209SOL    HW141524   8.220   0.449   1.633
13209SOL    HW241525   8.115   0.550   1.591
13210SOL     OW41526   1.909  14.273   1.740
13210SOL    HW141527   1.820  14.277   1.705
13210SOL    HW241528   1.952  14.206   1.686
13211SOL     OW41529  11.220   5.394   9.337
13211SOL    HW141530  11.130   5.398   9.370
13211SOL    HW241531  11.256   5.480   9.356
13212SOL     OW41532   6.537  14.463   0.700
13212SOL    HW141533   6.548  14.462   0.605
13212SOL    HW241534   6.553  14.554   0.725
13213SOL     OW41535   1.534   3.997   3.528
13213SOL    HW141536   1.508   3.919   3.576
13213SOL    HW241537   1.611   3.970   3.478
13214SOL     OW41538   3.918   2.504  10.216
13214SOL    HW141539   3.938   2.527  10.126
13214SOL    HW241540   3.905   2.587  10.261
13215SOL     OW41541  10.385   5.418   4.857
13215SOL    HW141542  10.352   5.497   4.899
13215SOL    HW241543  10.425   5.369   4.929
13216SOL     OW41544  14.297  13.581   7.375
13216SOL    HW141545  14.271  13.596   7.466
13216SOL    HW241546  14.387  13.613   7.370
13217SOL     OW41547   2.964   2.733   7.799
13217SOL    HW141548   2.921   2.720   7.884
13217SOL    HW241549   3.057   2.720   7.818
13218SOL     OW41550  11.888  14.848   5.545
13218SOL    HW141551  11.953   0.002   5.484
13218SOL    HW241552  11.909  14.756   5.554
13219SOL     OW41553   2.851   3.898   2.529
13219SOL    HW141554   2.901   3.906   2.611
13219SOL    HW241555   2.871   3.979   2.481
13220SOL     OW41556  14.201  12.907   1.793
13220SOL    HW141557  14.291  12.906   1.763
13220SOL    HW241558  14.155  12.963   1.732
13221SOL     OW41559   7.470   5.926   2.663
13221SOL    HW141560   7.502   5.923   2.753
13221SOL    HW241561   7.546   5.957   2.612
13222SOL     OW41562  11.012  14.436  12.693
13222SOL    HW141563  10.971  14.390  12.765
13222SOL    HW241564  11.013  14.528  12.721
13223SOL     OW41565  10.324   4.956   1.074
13223SOL    HW141566  10.305   4.895   1.002
13223SOL    HW241567  10.261   4.933   1.142
13224SOL     OW41568  12.946   6.288   2.077
13224SOL    HW141569  12.950   6.200   2.116
13224SOL    HW241570  12.887   6.278   2.002
13225SOL     OW41571   2.993   9.577   9.826
13225SOL    HW141572   2.967   9.668   9.812
13225SOL    HW241573   3.069   9.582   9.884
13226SOL     OW41574   0.998   1.425   4.102
13226SOL    HW141575   0.923   1.368   4.121
13226SOL    HW241576   1.035   1.446   4.187
13227SOL     OW41577  12.550   5.459   0.158
13227SOL    HW141578  12.608   5.486   0.087
13227SOL    HW241579  12.609   5.440   0.231
13228SOL     OW41580  11.831   5.930  13.517
13228SOL    HW141581  11.844   5.954  13.608
13228SOL    HW241582  11.783   6.004  13.479
13229SOL     OW41583  14.328   1.985  11.224
13229SOL    HW141584  14.274   1.980  11.303
13229SOL    HW241585  14.284   1.926  11.162
13230SOL     OW41586   1.167   6.370   8.865
13230SOL    HW141587   1.248   6.420   8.858
13230SOL    HW241588   1.191   6.293   8.916
13231SOL     OW41589   4.422   2.049  12.142
13231SOL    HW141590   4.340   2.095  12.165
13231SOL    HW241591   4.395   1.981  12.080
13232SOL     OW41592   6.176   7.577   6.459
13232SOL    HW141593   6.087   7.588   6.495
13232SOL    HW241594   6.187   7.651   6.400
13233SOL     OW41595   3.155   1.120  11.452
13233SOL    HW141596   3.208   1.081  11.382
13233SOL    HW241597   3.185   1.211  11.457
13234SOL     OW41598  10.346   9.138   0.525
13234SOL    HW141599  10.365   9.055   0.570
13234SOL    HW241600  10.251   9.143   0.526
13235SOL     OW41601   2.178  14.142   3.393
13235SOL    HW141602   2.195  14.236   3.387
13235SOL    HW241603   2.195  14.109   3.305
13236SOL     OW41604   5.611   7.816   5.765
13236SOL    HW141605   5.625   7.753   5.835
13236SOL    HW241606   5.532   7.864   5.791
13237SOL     OW41607  12.726   8.481   0.840
13237SOL    HW141608  12.687   8.515   0.921
13237SOL    HW241609  12.692   8.391   0.834
13238SOL     OW41610  13.260   8.106   6.170
13238SOL    HW141611  13.277   8.124   6.263
13238SOL    HW241612  13.198   8.174   6.144
13239SOL     OW41613  12.925   8.417   1.627
13239SOL    HW141614  12.998   8.449   1.573
13239SOL    HW241615  12.853   8.477   1.607
13240SOL     OW41616   9.024   5.328  12.747
13240SOL    HW141617   8.998   5.416  12.772
13240SOL    HW241618   9.101   5.341  12.691
13241SOL     OW41619  11.187   4.352  10.501
13241SOL    HW141620  11.198   4.345  10.406
13241SOL    HW241621  11.241   4.282  10.536
13242SOL     OW41622   1.833   2.466   5.611
13242SOL    HW141623   1.871   2.536   5.664
13242SOL    HW241624   1.840   2.388   5.667
13243SOL     OW41625   1.793   0.233  11.425
13243SOL    HW141626   1.879   0.222  11.385
13243SOL    HW241627   1.776   0.149  11.467
13244SOL     OW41628   7.431   0.810  10.556
13244SOL    HW141629   7.473   0.724  10.547
13244SOL    HW241630   7.455   0.839  10.644
13245SOL     OW41631  12.995   2.173   3.300
13245SOL    HW141632  13.038   2.096   3.337
13245SOL    HW241633  13.024   2.246   3.355
13246SOL     OW41634   8.670   8.001   9.688
13246SOL    HW141635   8.593   8.058   9.683
13246SOL    HW241636   8.659   7.939   9.616
13247SOL     OW41637   0.315  12.754  11.199
13247SOL    HW141638   0.230  12.761  11.243
13247SOL    HW241639   0.356  12.677  11.238
13248SOL     OW41640   2.678  14.783  10.548
13248SOL    HW141641   2.652  14.853  10.489
13248SOL    HW241642   2.726  14.827  10.619
13249SOL     OW41643  12.526   1.763  10.694
13249SOL    HW141644  12.546   1.675  10.725
13249SOL    HW241645  12.547   1.761  10.601
13250SOL     OW41646   7.356   3.379   7.846
13250SOL    HW141647   7.357   3.304   7.787
13250SOL    HW241648   7.395   3.450   7.794
13251SOL     OW41649   9.789   1.948   3.415
13251SOL    HW141650   9.724   1.921   3.351
13251SOL    HW241651   9.852   1.876   3.418
13252SOL     OW41652   2.596   4.099   4.817
13252SOL    HW141653   2.646   4.180   4.812
13252SOL    HW241654   2.654   4.037   4.860
13253SOL     OW41655   6.112  10.841  11.696
13253SOL    HW141656   6.127  10.815  11.605
13253SOL    HW241657   6.184  10.902  11.714
13254SOL     OW41658  11.227  10.010   2.193
13254SOL    HW141659  11.268   9.959   2.262
13254SOL    HW241660  11.231  10.101   2.225
13255SOL     OW41661   5.811  13.498  10.591
13255SOL    HW141662   5.829  13.480  10.683
13255SOL    HW241663   5.739  13.561  10.592
13256SOL     OW41664   1.524  10.894   9.477
13256SOL    HW141665   1.442  10.941   9.493
13256SOL    HW241666   1.544  10.913   9.385
13257SOL     OW41667   8.573   5.595   3.330
13257SOL    HW141668   8.593   5.519   3.384
13257SOL    HW241669   8.494   5.572   3.283
13258SOL     OW41670   7.870   4.365  10.879
13258SOL    HW141671   7.875   4.383  10.785
13258SOL    HW241672   7.810   4.431  10.913
13259SOL     OW41673   3.154  13.376   5.667
13259SOL    HW141674   3.228  13.430   5.695
13259SOL    HW241675   3.194  13.296   5.634
13260SOL     OW41676   0.074   3.446   3.272
13260SOL    HW141677   0.066   3.431   3.366
13260SOL    HW241678   0.037   3.533   3.258
13261SOL     OW41679  11.063  11.483  12.926
13261SOL    HW141680  11.086  11.398  12.886
13261SOL    HW241681  11.009  11.460  13.002
13262SOL     OW41682   0.228   1.168  10.469
13262SOL    HW141683   0.145   1.135  10.502
13262SOL    HW241684   0.266   1.215  10.544
13263SOL     OW41685   6.718   3.050   4.112
13263SOL    HW141686   6.786   3.006   4.163
13263SOL    HW241687   6.719   3.005   4.028
13264SOL     OW41688   8.895  12.483  12.747
13264SOL    HW141689   8.925  12.518  12.663
13264SOL    HW241690   8.803  12.508  12.752
13265SOL     OW41691   4.600  12.086   7.093
13265SOL    HW141692   4.551  12.108   7.014
13265SOL    HW241693   4.537  12.094   7.164
13266SOL     OW41694  14.528  13.291   7.051
13266SOL    HW141695  14.489  13.292   6.963
13266SOL    HW241696  14.522  13.199   7.078
13267SOL     OW41697   3.426  12.656   8.672
13267SOL    HW141698   3.400  12.677   8.582
13267SOL    HW241699   3.399  12.565   8.684
13268SOL     OW41700   8.233   7.639   0.326
13268SOL    HW141701   8.272   7.552   0.318
13268SOL    HW241702   8.157   7.626   0.383
13269SOL     OW41703   2.077   0.351   7.871
13269SOL    HW141704   2.121   0.385   7.793
13269SOL    HW241705   2.107   0.408   7.942
13270SOL     OW41706   0.302   9.531   2.978
13270SOL    HW141707   0.361   9.458   2.999
13270SOL    HW241708   0.220   9.510   3.023
13271SOL     OW41709  12.114   4.516   5.570
13271SOL    HW141710  12.182   4.561   5.520
13271SOL    HW241711  12.052   4.486   5.503
13272SOL     OW41712   6.776   5.101   5.335
13272SOL    HW141713   6.777   5.190   5.369
13272SOL    HW241714   6.848   5.098   5.272
13273SOL     OW41715  14.238  14.695  14.049
13273SOL    HW141716  14.227  14.615  14.100
13273SOL    HW241717  14.333  14.710  14.048
13274SOL     OW41718   9.786   9.969   2.963
13274SOL    HW141719   9.816   9.949   2.874
13274SOL    HW241720   9.703  10.015   2.951
13275SOL     OW41721  10.280   8.311   6.349
13275SOL    HW141722  10.362   8.262   6.341
13275SOL    HW241723  10.218   8.265   6.292
13276SOL     OW41724  14.737  10.976  11.897
13276SOL    HW141725  14.664  10.916  11.913
13276SOL    HW241726  14.790  10.971  11.976
13277SOL     OW41727   0.872   6.961  12.534
13277SOL    HW141728   0.792   6.999  12.498
13277SOL    HW241729   0.842   6.909  12.609
13278SOL     OW41730   4.324   4.120   9.930
13278SOL    HW141731   4.323   4.091  10.021
13278SOL    HW241732   4.297   4.044   9.879
13279SOL     OW41733  10.614   9.388  13.734
13279SOL    HW141734  10.584   9.450  13.800
13279SOL    HW241735  10.548   9.319  13.734
13280SOL     OW41736  11.838  14.810   5.069
13280SOL    HW141737  11.841  14.733   5.125
13280SOL    HW241738  11.858  14.777   4.982
13281SOL     OW41739   7.080  12.824   2.420
13281SOL    HW141740   7.163  12.870   2.432
13281SOL    HW241741   7.059  12.837   2.327
13282SOL     OW41742  13.426   6.508  11.318
13282SOL    HW141743  13.399   6.593  11.352
13282SOL    HW241744  13.467   6.464  11.393
13283SOL     OW41745   2.523  12.598  14.871
13283SOL    HW141746   2.483  12.528  14.820
13283SOL    HW241747   2.584  12.640  14.810
13284SOL     OW41748   9.944   6.992   9.649
13284SOL    HW141749  10.009   6.922   9.653
13284SOL    HW241750   9.890   6.980   9.727
13285SOL     OW41751  14.467   5.348   7.670
13285SOL    HW141752  14.390   5.401   7.691
13285SOL    HW241753  14.444   5.302   7.589
13286SOL     OW41754  10.804   1.891   7.178
13286SOL    HW141755  10.860   1.963   7.147
13286SOL    HW241756  10.730   1.891   7.118
13287SOL     OW41757   3.851   1.966  13.028
13287SOL    HW141758   3.777   1.952  13.086
13287SOL    HW241759   3.925   1.923  13.071
13288SOL     OW41760   0.002   9.243   8.312
13288SOL    HW141761   0.074   9.263   8.252
13288SOL    HW241762   0.043   9.192   8.383
13289SOL     OW41763   4.928   9.237  11.984
13289SOL    HW141764   4.849   9.290  11.991
13289SOL    HW241765   4.938   9.222  11.890
13290SOL     OW41766  10.887   5.981   6.350
13290SOL    HW141767  10.935   6.057   6.380
13290SOL    HW241768  10.796   5.997   6.376
13291SOL     OW41769   5.415   7.965  11.391
13291SOL    HW141770   5.491   7.946  11.445
13291SOL    HW241771   5.439   8.044  11.342
13292SOL     OW41772   7.501   2.370   4.053
13292SOL    HW141773   7.582   2.406   4.016
13292SOL    HW241774   7.521   2.279   4.073
13293SOL     OW41775   5.387  11.996  14.559
13293SOL    HW141776   5.475  12.032  14.568
13293SOL    HW241777   5.399  11.901  14.567
13294SOL     OW41778   0.789  13.378  10.055
13294SOL    HW141779   0.705  13.406  10.019
13294SOL    HW241780   0.767  13.315  10.124
13295SOL     OW41781  14.673   4.248   2.313
13295SOL    HW141782  14.651   4.193   2.238
13295SOL    HW241783  14.590   4.289   2.339
13296SOL     OW41784  11.608   1.238  14.340
13296SOL    HW141785  11.645   1.195  14.417
13296SOL    HW241786  11.659   1.318  14.331
13297SOL     OW41787   6.652   8.299   4.832
13297SOL    HW141788   6.664   8.253   4.915
13297SOL    HW241789   6.660   8.391   4.854
13298SOL     OW41790   5.023  14.301   2.440
13298SOL    HW141791   4.932  14.327   2.448
13298SOL    HW241792   5.073  14.379   2.467
13299SOL     OW41793   6.978   1.813   3.049
13299SOL    HW141794   6.894   1.833   3.090
13299SOL    HW241795   6.977   1.718   3.037
13300SOL     OW41796   6.176   1.336  14.447
13300SOL    HW141797   6.165   1.306  14.537
13300SOL    HW241798   6.118   1.279  14.396
13301SOL     OW41799   5.111   5.930   5.726
13301SOL    HW141800   5.035   5.988   5.728
13301SOL    HW241801   5.148   5.942   5.639
13302SOL     OW41802   4.489   2.609   3.498
13302SOL    HW141803   4.519   2.582   3.411
13302SOL    HW241804   4.394   2.604   3.493
13303SOL     OW41805  14.057   7.277   5.334
13303SOL    HW141806  14.099   7.238   5.410
13303SOL    HW241807  13.963   7.271   5.352
13304SOL     OW41808   3.078  12.089  14.114
13304SOL    HW141809   3.060  12.156  14.180
13304SOL    HW241810   3.160  12.049  14.142
13305SOL     OW41811  13.764  13.514   7.627
13305SOL    HW141812  13.845  13.555   7.596
13305SOL    HW241813  13.713  13.585   7.665
13306SOL     OW41814   5.228   5.632   8.174
13306SOL    HW141815   5.212   5.565   8.240
13306SOL    HW241816   5.323   5.644   8.174
13307SOL     OW41817  13.933   7.622   1.349
13307SOL    HW141818  13.951   7.645   1.257
13307SOL    HW241819  13.871   7.689   1.378
13308SOL     OW41820   9.755   0.468  14.562
13308SOL    HW141821   9.745   0.561  14.585
13308SOL    HW241822   9.672   0.428  14.590
13309SOL     OW41823  12.160   4.043   2.649
13309SOL    HW141824  12.143   3.978   2.718
13309SOL    HW241825  12.197   3.992   2.577
13310SOL     OW41826  14.689  12.590   2.338
13310SOL    HW141827  14.764  12.534   2.317
13310SOL    HW241828  14.616  12.553   2.287
13311SOL     OW41829   9.558  13.578   2.662
13311SOL    HW141830   9.499  13.537   2.598
13311SOL    HW241831   9.640  13.588   2.615
13312SOL     OW41832   4.652  10.586  10.078
13312SOL    HW141833   4.663  10.594   9.984
13312SOL    HW241834   4.616  10.499  10.091
13313SOL     OW41835   9.544  13.878   5.655
13313SOL    HW141836   9.633  13.893   5.624
13313SOL    HW241837   9.555  13.830   5.737
13314SOL     OW41838   9.647  13.461   6.851
13314SOL    HW141839   9.692  13.379   6.829
13314SOL    HW241840   9.559  13.451   6.814
13315SOL     OW41841   7.118   0.027   3.397
13315SOL    HW141842   7.177   0.100   3.415
13315SOL    HW241843   7.175  14.837   3.364
13316SOL     OW41844  12.468   7.528  13.945
13316SOL    HW141845  12.507   7.591  14.006
13316SOL    HW241846  12.536   7.513  13.879
13317SOL     OW41847   8.912  11.371   3.326
13317SOL    HW141848   8.821  11.398   3.318
13317SOL    HW241849   8.945  11.420   3.402
13318SOL     OW41850  13.618   3.203   0.031
13318SOL    HW141851  13.561   3.236   0.100
13318SOL    HW241852  13.698   3.178   0.077
13319SOL     OW41853  12.895  11.621  11.974
13319SOL    HW141854  12.879  11.692  11.912
13319SOL    HW241855  12.851  11.545  11.936
13320SOL     OW41856   3.774   6.126   9.453
13320SOL    HW141857   3.741   6.078   9.530
13320SOL    HW241858   3.700   6.179   9.425
13321SOL     OW41859  14.650   9.364   8.413
13321SOL    HW141860  14.697   9.448   8.412
13321SOL    HW241861  14.719   9.298   8.413
13322SOL     OW41862   3.720  10.793   0.638
13322SOL    HW141863   3.751  10.721   0.693
13322SOL    HW241864   3.642  10.758   0.594
13323SOL     OW41865   5.413  10.012   3.490
13323SOL    HW141866   5.421  10.063   3.410
13323SOL    HW241867   5.484  10.044   3.546
13324SOL     OW41868   1.286   6.162   2.819
13324SOL    HW141869   1.193   6.154   2.795
13324SOL    HW241870   1.333   6.111   2.754
13325SOL     OW41871   9.928   2.005   3.813
13325SOL    HW141872  10.001   2.067   3.806
13325SOL    HW241873   9.958   1.928   3.764
13326SOL     OW41874   4.003   2.388   9.623
13326SOL    HW141875   3.975   2.336   9.698
13326SOL    HW241876   4.066   2.333   9.578
13327SOL     OW41877   8.030   7.817  14.741
13327SOL    HW141878   8.103   7.805  14.680
13327SOL    HW241879   8.021   7.733  14.785
13328SOL     OW41880   4.574   1.257  14.088
13328SOL    HW141881   4.514   1.198  14.043
13328SOL    HW241882   4.609   1.205  14.160
13329SOL     OW41883   8.126  11.945   9.440
13329SOL    HW141884   8.206  11.893   9.445
13329SOL    HW241885   8.087  11.922   9.356
13330SOL     OW41886   9.970  11.407   7.635
13330SOL    HW141887   9.907  11.342   7.607
13330SOL    HW241888   9.971  11.472   7.565
13331SOL     OW41889  12.328   2.804   7.478
13331SOL    HW141890  12.247   2.831   7.522
13331SOL    HW241891  12.389   2.875   7.495
13332SOL     OW41892   1.880   2.974   1.385
13332SOL    HW141893   1.907   2.917   1.457
13332SOL    HW241894   1.805   2.930   1.346
13333SOL     OW41895   8.698  10.179  14.302
13333SOL    HW141896   8.769  10.151  14.245
13333SOL    HW241897   8.673  10.266  14.271
13334SOL     OW41898  10.282   5.468  10.684
13334SOL    HW141899  10.246   5.556  10.680
13334SOL    HW241900  10.242   5.429  10.762
13335SOL     OW41901  11.900  11.927   5.132
13335SOL    HW141902  11.869  11.976   5.208
13335SOL    HW241903  11.994  11.918   5.146
13336SOL     OW41904   1.593   6.217   2.301
13336SOL    HW141905   1.587   6.308   2.331
13336SOL    HW241906   1.547   6.167   2.369
13337SOL     OW41907  10.347  14.776   8.875
13337SOL    HW141908  10.419  14.748   8.932
13337SOL    HW241909  10.269  14.769   8.931
13338SOL     OW41910   3.358   8.643   3.892
13338SOL    HW141911   3.277   8.592   3.896
13338SOL    HW241912   3.423   8.581   3.857
13339SOL     OW41913   1.432   5.987   2.200
13339SOL    HW141914   1.478   6.064   2.235
13339SOL    HW241915   1.503   5.929   2.170
13340SOL     OW41916  14.394  10.868   8.140
13340SOL    HW141917  14.342  10.815   8.200
13340SOL    HW241918  14.335  10.938   8.111
13341SOL     OW41919  13.374   4.207   9.619
13341SOL    HW141920  13.465   4.235   9.612
13341SOL    HW241921  13.324   4.283   9.588
13342SOL     OW41922   3.961   4.590   4.799
13342SOL    HW141923   4.049   4.612   4.830
13342SOL    HW241924   3.967   4.595   4.704
13343SOL     OW41925  12.863   5.014   4.177
13343SOL    HW141926  12.903   4.927   4.178
13343SOL    HW241927  12.871   5.045   4.267
13344SOL     OW41928   6.209   6.301   5.769
13344SOL    HW141929   6.282   6.335   5.719
13344SOL    HW241930   6.135   6.357   5.746
13345SOL     OW41931  10.147  10.931  13.160
13345SOL    HW141932  10.127  11.012  13.113
13345SOL    HW241933  10.149  10.956  13.252
13346SOL     OW41934   1.279   1.207   6.203
13346SOL    HW141935   1.274   1.280   6.264
13346SOL    HW241936   1.350   1.230   6.142
13347SOL     OW41937  11.587   2.600  11.930
13347SOL    HW141938  11.550   2.556  11.854
13347SOL    HW241939  11.521   2.592  11.998
13348SOL     OW41940   0.158  11.143  11.867
13348SOL    HW141941   0.198  11.057  11.882
13348SOL    HW241942   0.108  11.132  11.786
13349SOL     OW41943  11.937   0.262  14.245
13349SOL    HW141944  11.965   0.171  14.240
13349SOL    HW241945  11.853   0.263  14.199
13350SOL     OW41946   8.880   4.080  12.738
13350SOL    HW141947   8.805   4.048  12.787
13350SOL    HW241948   8.904   4.162  12.782
13351SOL     OW41949  12.156   6.275   1.915
13351SOL    HW141950  12.065   6.299   1.934
13351SOL    HW241951  12.179   6.329   1.839
13352SOL     OW41952  14.629   5.024  14.100
13352SOL    HW141953  14.678   5.010  14.181
13352SOL    HW241954  14.605   4.936  14.070
13353SOL     OW41955   2.310   6.402   9.400
13353SOL    HW141956   2.316   6.497   9.390
13353SOL    HW241957   2.320   6.368   9.311
13354SOL     OW41958   5.339   4.826  14.450
13354SOL    HW141959   5.293   4.856  14.529
13354SOL    HW241960   5.287   4.752  14.419
13355SOL     OW41961   3.429   7.568   8.300
13355SOL    HW141962   3.455   7.649   8.255
13355SOL    HW241963   3.511   7.535   8.338
13356SOL     OW41964  13.388   4.345   7.420
13356SOL    HW141965  13.307   4.384   7.386
13356SOL    HW241966  13.419   4.288   7.350
13357SOL     OW41967   6.011  10.440   2.023
13357SOL    HW141968   6.021  10.527   2.061
13357SOL    HW241969   6.100  10.407   2.014
13358SOL     OW41970  11.303   5.182   9.499
13358SOL    HW141971  11.268   5.220   9.418
13358SOL    HW241972  11.372   5.123   9.469
13359SOL     OW41973  14.130  13.325   0.855
13359SOL    HW141974  14.213  13.328   0.807
13359SOL    HW241975  14.130  13.239   0.896
13360SOL     OW41976   3.369   0.450   4.496
13360SOL    HW141977   3.436   0.398   4.539
13360SOL    HW241978   3.294   0.446   4.556
13361SOL     OW41979  10.676  12.154   8.139
13361SOL    HW141980  10.599  12.211   8.139
13361SOL    HW241981  10.734  12.192   8.205
13362SOL     OW41982   5.895   9.369  13.329
13362SOL    HW141983   5.865   9.458  13.309
13362SOL    HW241984   5.815   9.316  13.325
13363SOL     OW41985  13.907   3.614   2.875
13363SOL    HW141986  13.968   3.550   2.838
13363SOL    HW241987  13.958   3.658   2.944
13364SOL     OW41988  12.213   0.589   7.855
13364SOL    HW141989  12.217   0.580   7.950
13364SOL    HW241990  12.194   0.501   7.823
13365SOL     OW41991   1.635   1.465  12.031
13365SOL    HW141992   1.540   1.478  12.037
13365SOL    HW241993   1.646   1.371  12.021
13366SOL     OW41994   3.157   6.040   1.691
13366SOL    HW141995   3.242   6.029   1.735
13366SOL    HW241996   3.120   6.119   1.729
13367SOL     OW41997  10.332   7.555   6.809
13367SOL    HW141998  10.354   7.541   6.717
13367SOL    HW241999  10.294   7.472   6.838
13368SOL     OW42000   5.413   7.481   5.791
13368SOL    HW142001   5.473   7.441   5.728
13368SOL    HW242002   5.434   7.439   5.874
13369SOL     OW42003   5.574  12.043   4.089
13369SOL    HW142004   5.576  12.055   4.184
13369SOL    HW242005   5.492  11.998   4.072
13370SOL     OW42006   4.563   8.574   5.462
13370SOL    HW142007   4.599   8.503   5.409
13370SOL    HW242008   4.479   8.540   5.494
13371SOL     OW42009   5.289  14.449   8.621
13371SOL    HW142010   5.344  14.527   8.613
13371SOL    HW242011   5.241  14.462   8.703
13372SOL     OW42012   2.671  13.132  13.809
13372SOL    HW142013   2.700  13.144  13.899
13372SOL    HW242014   2.710  13.205  13.761
13373SOL     OW42015   2.399   8.186   9.926
13373SOL    HW142016   2.403   8.181  10.021
13373SOL    HW242017   2.482   8.150   9.896
13374SOL     OW42018   3.516   4.034   0.973
13374SOL    HW142019   3.475   3.980   0.905
13374SOL    HW242020   3.448   4.045   1.039
13375SOL     OW42021   2.288   4.248   2.641
13375SOL    HW142022   2.332   4.189   2.580
13375SOL    HW242023   2.322   4.224   2.727
13376SOL     OW42024   1.077   2.029  10.248
13376SOL    HW142025   1.000   2.029  10.190
13376SOL    HW242026   1.078   2.117  10.285
13377SOL     OW42027  11.682  11.829   0.122
13377SOL    HW142028  11.706  11.894   0.056
13377SOL    HW242029  11.595  11.799   0.095
13378SOL     OW42030   1.720   6.162  11.898
13378SOL    HW142031   1.811   6.157  11.927
13378SOL    HW242032   1.672   6.105  11.957
13379SOL     OW42033   1.017   9.211   6.632
13379SOL    HW142034   0.996   9.304   6.625
13379SOL    HW242035   1.071   9.193   6.555
13380SOL     OW42036   1.669   9.873   9.983
13380SOL    HW142037   1.755   9.913   9.969
13380SOL    HW242038   1.625   9.932  10.044
13381SOL     OW42039   8.316  14.458   9.934
13381SOL    HW142040   8.253  14.448  10.005
13381SOL    HW242041   8.389  14.401   9.958
13382SOL     OW42042   1.969   8.088   5.588
13382SOL    HW142043   1.918   8.030   5.645
13382SOL    HW242044   1.991   8.162   5.644
13383SOL     OW42045  10.424  11.518  14.567
13383SOL    HW142046  10.511  11.507  14.606
13383SOL    HW242047  10.364  11.522  14.642
13384SOL     OW42048  10.632   4.752   4.269
13384SOL    HW142049  10.677   4.761   4.185
13384SOL    HW242050  10.539   4.743   4.246
13385SOL     OW42051   3.539  11.040  11.908
13385SOL    HW142052   3.459  10.992  11.884
13385SOL    HW242053   3.562  11.006  11.994
13386SOL     OW42054   5.332  13.816  10.044
13386SOL    HW142055   5.336  13.761  10.122
13386SOL    HW242056   5.417  13.860  10.042
13387SOL     OW42057  13.144  13.478  12.655
13387SOL    HW142058  13.128  13.570  12.634
13387SOL    HW242059  13.192  13.444  12.579
13388SOL     OW42060   8.807  11.099   7.277
13388SOL    HW142061   8.864  11.094   7.353
13388SOL    HW242062   8.718  11.096   7.312
13389SOL     OW42063  11.857   2.151   7.070
13389SOL    HW142064  11.889   2.177   7.156
13389SOL    HW242065  11.787   2.214   7.050
13390SOL     OW42066   3.688   0.431   0.300
13390SOL    HW142067   3.756   0.494   0.278
13390SOL    HW242068   3.707   0.407   0.391
13391SOL     OW42069   3.324   2.534  14.820
13391SOL    HW142070   3.416   2.514  14.804
13391SOL    HW242071   3.278   2.499  14.744
13392SOL     OW42072   3.769   1.901   5.500
13392SOL    HW142073   3.817   1.823   5.470
13392SOL    HW242074   3.695   1.908   5.440
13393SOL     OW42075   4.236   2.404   8.485
13393SOL    HW142076   4.210   2.475   8.427
13393SOL    HW242077   4.186   2.418   8.565
13394SOL     OW42078   4.879  13.480  14.220
13394SOL    HW142079   4.933  13.406  14.192
13394SOL    HW242080   4.866  13.467  14.313
13395SOL     OW42081  10.701   3.760   1.264
13395SOL    HW142082  10.643   3.767   1.188
13395SOL    HW242083  10.747   3.677   1.252
13396SOL     OW42084   4.370  13.272   6.608
13396SOL    HW142085   4.287  13.306   6.574
13396SOL    HW242086   4.422  13.255   6.530
13397SOL     OW42087   7.186  13.315   2.858
13397SOL    HW142088   7.204  13.378   2.927
13397SOL    HW242089   7.093  13.293   2.870
13398SOL     OW42090   2.631  14.040  14.622
13398SOL    HW142091   2.639  14.030  14.527
13398SOL    HW242092   2.657  13.955  14.657
13399SOL     OW42093   8.660  12.166   6.662
13399SOL    HW142094   8.596  12.227   6.699
13399SOL    HW242095   8.745  12.202   6.686
13400SOL     OW42096   0.626   7.903  12.534
13400SOL    HW142097   0.704   7.851  12.516
13400SOL    HW242098   0.654   7.967  12.601
13401SOL     OW42099   3.882   9.147   7.217
13401SOL    HW142100   3.904   9.099   7.297
13401SOL    HW242101   3.933   9.104   7.149
13402SOL     OW42102  13.942   3.829  13.397
13402SOL    HW142103  13.920   3.783  13.316
13402SOL    HW242104  14.034   3.851  13.387
13403SOL     OW42105  10.544   1.371   9.355
13403SOL    HW142106  10.623   1.403   9.398
13403SOL    HW242107  10.528   1.434   9.284
13404SOL     OW42108  14.213   4.863  14.789
13404SOL    HW142109  14.164   4.841  14.868
13404SOL    HW242110  14.181   4.802  14.723
13405SOL     OW42111   0.075   2.146   4.561
13405SOL    HW142112   0.070   2.169   4.654
13405SOL    HW242113   0.119   2.220   4.520
13406SOL     OW42114  12.255  11.167   1.925
13406SOL    HW142115  12.180  11.109   1.940
13406SOL    HW242116  12.326  11.108   1.898
13407SOL     OW42117   9.256  11.342   6.170
13407SOL    HW142118   9.244  11.253   6.136
13407SOL    HW242119   9.255  11.332   6.265
13408SOL     OW42120  10.579   6.866  13.880
13408SOL    HW142121  10.499   6.919  13.871
13408SOL    HW242122  10.637   6.919  13.935
13409SOL     OW42123  10.265   9.688   1.523
13409SOL    HW142124  10.219   9.606   1.541
13409SOL    HW242125  10.343   9.661   1.474
13410SOL     OW42126   9.845   8.666   9.543
13410SOL    HW142127   9.935   8.669   9.509
13410SOL    HW242128   9.796   8.726   9.487
13411SOL     OW42129  14.464  13.936   1.968
13411SOL    HW142130  14.434  14.025   1.948
13411SOL    HW242131  14.387  13.882   1.952
13412SOL     OW42132   7.491  14.575  12.944
13412SOL    HW142133   7.468  14.509  12.879
13412SOL    HW242134   7.538  14.526  13.012
13413SOL     OW42135   3.107   1.066  13.888
13413SOL    HW142136   3.157   0.985  13.886
13413SOL    HW242137   3.127   1.108  13.804
13414SOL     OW42138   1.909  10.518  14.662
13414SOL    HW142139   1.831  10.467  14.637
13414SOL    HW242140   1.973  10.498  14.594
13415SOL     OW42141  14.230   1.300   7.402
13415SOL    HW142142  14.286   1.222   7.398
13415SOL    HW242143  14.279   1.368   7.357
13416SOL     OW42144   2.837   0.714  11.037
13416SOL    HW142145   2.890   0.728  10.958
13416SOL    HW242146   2.899   0.725  11.109
13417SOL     OW42147   2.757  14.222  12.877
13417SOL    HW142148   2.719  14.203  12.963
13417SOL    HW242149   2.848  14.192  12.883
13418SOL     OW42150   8.911   5.064   6.945
13418SOL    HW142151   8.983   5.002   6.959
13418SOL    HW242152   8.954   5.145   6.919
13419SOL     OW42153  11.799   7.511   5.125
13419SOL    HW142154  11.817   7.587   5.070
13419SOL    HW242155  11.711   7.526   5.159
13420SOL     OW42156   2.622   7.183   3.166
13420SOL    HW142157   2.714   7.158   3.156
13420SOL    HW242158   2.587   7.184   3.077
13421SOL     OW42159   2.571   6.506   9.697
13421SOL    HW142160   2.595   6.449   9.623
13421SOL    HW242161   2.634   6.484   9.765
13422SOL     OW42162  11.983   7.529  13.449
13422SOL    HW142163  12.014   7.439  13.450
13422SOL    HW242164  12.009   7.562  13.363
13423SOL     OW42165   1.532   9.295   2.440
13423SOL    HW142166   1.509   9.207   2.471
13423SOL    HW242167   1.496   9.353   2.507
13424SOL     OW42168  14.091   8.585   9.947
13424SOL    HW142169  14.081   8.495   9.978
13424SOL    HW242170  14.157   8.623  10.005
13425SOL     OW42171  10.669   5.043   8.553
13425SOL    HW142172  10.589   5.064   8.505
13425SOL    HW242173  10.739   5.087   8.504
13426SOL     OW42174   7.451  10.627   9.036
13426SOL    HW142175   7.522  10.570   9.006
13426SOL    HW242176   7.412  10.662   8.956
13427SOL     OW42177   7.703  13.518  14.273
13427SOL    HW142178   7.755  13.599  14.269
13427SOL    HW242179   7.707  13.483  14.184
13428SOL     OW42180   0.355   3.073   1.556
13428SOL    HW142181   0.300   3.037   1.486
13428SOL    HW242182   0.293   3.106   1.621
13429SOL     OW42183  13.377  11.028  11.141
13429SOL    HW142184  13.412  10.940  11.126
13429SOL    HW242185  13.388  11.043  11.235
13430SOL     OW42186  14.403   3.950  13.033
13430SOL    HW142187  14.320   3.926  13.073
13430SOL    HW242188  14.413   3.890  12.959
13431SOL     OW42189  14.469  11.550   6.097
13431SOL    HW142190  14.434  11.484   6.156
13431SOL    HW242191  14.518  11.610   6.153
13432SOL     OW42192  14.012   1.225   9.247
13432SOL    HW142193  14.077   1.228   9.177
13432SOL    HW242194  14.041   1.293   9.309
13433SOL     OW42195   4.037  12.652   2.486
13433SOL    HW142196   4.056  12.615   2.400
13433SOL    HW242197   4.086  12.596   2.547
13434SOL     OW42198   4.870   4.840  11.134
13434SOL    HW142199   4.846   4.927  11.102
13434SOL    HW242200   4.962   4.830  11.109
13435SOL     OW42201   2.726   6.147   0.939
13435SOL    HW142202   2.637   6.131   0.908
13435SOL    HW242203   2.715   6.182   1.028
13436SOL     OW42204  10.121  12.041  13.135
13436SOL    HW142205  10.157  11.966  13.180
13436SOL    HW242206  10.049  12.070  13.191
13437SOL     OW42207  14.153   7.848  10.949
13437SOL    HW142208  14.173   7.942  10.948
13437SOL    HW242209  14.138   7.826  10.857
13438SOL     OW42210   1.162   5.365   5.820
13438SOL    HW142211   1.081   5.356   5.871
13438SOL    HW242212   1.153   5.449   5.777
13439SOL     OW42213   1.628   4.718  14.812
13439SOL    HW142214   1.598   4.723   0.023
13439SOL    HW242215   1.556   4.677  14.764
13440SOL     OW42216  14.107   7.196   5.588
13440SOL    HW142217  14.038   7.134   5.613
13440SOL    HW242218  14.189   7.151   5.609
13441SOL     OW42219   0.790  14.836   5.089
13441SOL    HW142220   0.878  14.832   5.052
13441SOL    HW242221   0.794  14.781   5.167
13442SOL     OW42222   5.096   0.320  12.915
13442SOL    HW142223   5.070   0.379  12.986
13442SOL    HW242224   5.023   0.325  12.853
13443SOL     OW42225  14.251   4.197  12.934
13443SOL    HW142226  14.274   4.119  12.985
13443SOL    HW242227  14.180   4.237  12.984
13444SOL     OW42228   3.782   4.124   5.389
13444SOL    HW142229   3.846   4.174   5.338
13444SOL    HW242230   3.835   4.071   5.449
13445SOL     OW42231   6.430   7.918   4.007
13445SOL    HW142232   6.430   8.012   4.024
13445SOL    HW242233   6.444   7.912   3.913
13446SOL     OW42234   6.941  11.410   3.729
13446SOL    HW142235   6.910  11.333   3.681
13446SOL    HW242236   6.901  11.402   3.816
13447SOL     OW42237   2.911  10.165  10.113
13447SOL    HW142238   2.864  10.199  10.037
13447SOL    HW242239   2.909  10.236  10.177
13448SOL     OW42240   7.017   9.612  12.031
13448SOL    HW142241   7.036   9.533  11.980
13448SOL    HW242242   7.103   9.645  12.057
13449SOL     OW42243   1.597   5.981  14.377
13449SOL    HW142244   1.684   6.018  14.361
13449SOL    HW242245   1.537   6.054  14.364
13450SOL     OW42246   0.604  14.108  14.170
13450SOL    HW142247   0.669  14.038  14.170
13450SOL    HW242248   0.596  14.134  14.262
13451SOL     OW42249   5.171   8.539   3.672
13451SOL    HW142250   5.106   8.605   3.645
13451SOL    HW242251   5.120   8.459   3.685
13452SOL     OW42252   5.380   8.749  13.044
13452SOL    HW142253   5.341   8.686  13.105
13452SOL    HW242254   5.373   8.708  12.958
13453SOL     OW42255   9.740  13.549   2.937
13453SOL    HW142256   9.812  13.578   2.993
13453SOL    HW242257   9.661  13.566   2.989
13454SOL     OW42258  12.396   2.105  11.483
13454SOL    HW142259  12.436   2.183  11.522
13454SOL    HW242260  12.470   2.050  11.459
13455SOL     OW42261   1.684  11.951  11.434
13455SOL    HW142262   1.639  11.991  11.509
13455SOL    HW242263   1.742  11.885  11.473
13456SOL     OW42264  13.940   9.148   4.326
13456SOL    HW142265  13.949   9.172   4.418
13456SOL    HW242266  13.985   9.218   4.279
13457SOL     OW42267   6.300   0.071   0.518
13457SOL    HW142268   6.225   0.120   0.485
13457SOL    HW242269   6.348   0.045   0.439
13458SOL     OW42270   7.847  10.600  11.565
13458SOL    HW142271   7.768  10.599  11.512
13458SOL    HW242272   7.898  10.674  11.532
13459SOL     OW42273   1.552   2.220   6.158
13459SOL    HW142274   1.629   2.234   6.212
13459SOL    HW242275   1.505   2.303   6.160
13460SOL     OW42276   1.432   7.565  11.545
13460SOL    HW142277   1.376   7.628  11.499
13460SOL    HW242278   1.485   7.525  11.476
13461SOL     OW42279   8.291   3.218   4.897
13461SOL    HW142280   8.257   3.308   4.906
13461SOL    HW242281   8.291   3.203   4.803
13462SOL     OW42282  12.251   0.228   0.615
13462SOL    HW142283  12.157   0.221   0.630
13462SOL    HW242284  12.274   0.150   0.565
13463SOL     OW42285  12.036   5.308   7.346
13463SOL    HW142286  11.948   5.343   7.327
13463SOL    HW242287  12.055   5.337   7.435
13464SOL     OW42288  10.831   7.725   6.680
13464SOL    HW142289  10.810   7.636   6.706
13464SOL    HW242290  10.790   7.735   6.594
13465SOL     OW42291   4.721   9.707  13.271
13465SOL    HW142292   4.726   9.706  13.176
13465SOL    HW242293   4.792   9.651  13.300
13466SOL     OW42294   0.522   8.996   6.777
13466SOL    HW142295   0.435   9.003   6.816
13466SOL    HW242296   0.582   9.003   6.851
13467SOL     OW42297   0.268   5.689   6.682
13467SOL    HW142298   0.247   5.775   6.646
13467SOL    HW242299   0.240   5.693   6.773
13468SOL     OW42300   6.973  10.405   6.060
13468SOL    HW142301   6.958  10.413   6.154
13468SOL    HW242302   6.886  10.407   6.021
13469SOL     OW42303   6.337  14.045  10.202
13469SOL    HW142304   6.395  14.121  10.197
13469SOL    HW242305   6.250  14.080  10.186
13470SOL     OW42306   9.747   0.907  14.383
13470SOL    HW142307   9.691   0.957  14.442
13470SOL    HW242308   9.686   0.873  14.317
13471SOL     OW42309   8.793   5.282   5.853
13471SOL    HW142310   8.842   5.212   5.897
13471SOL    HW242311   8.727   5.308   5.917
13472SOL     OW42312  14.581  13.264   2.331
13472SOL    HW142313  14.551  13.280   2.241
13472SOL    HW242314  14.505  13.225   2.374
13473SOL     OW42315  13.474   6.645  13.146
13473SOL    HW142316  13.459   6.688  13.062
13473SOL    HW242317  13.450   6.554  13.132
13474SOL     OW42318   7.540  13.042   2.220
13474SOL    HW142319   7.596  12.994   2.159
13474SOL    HW242320   7.578  13.130   2.224
13475SOL     OW42321  10.013   3.345   5.686
13475SOL    HW142322   9.972   3.299   5.613
13475SOL    HW242323  10.019   3.279   5.755
13476SOL     OW42324  11.659   4.570  13.563
13476SOL    HW142325  11.710   4.590  13.641
13476SOL    HW242326  11.638   4.477  13.571
13477SOL     OW42327   4.947   2.747   1.860
13477SOL    HW142328   5.002   2.680   1.819
13477SOL    HW242329   4.953   2.728   1.953
13478SOL     OW42330   9.811   0.428  12.016
13478SOL    HW142331   9.893   0.432  12.066
13478SOL    HW242332   9.839   0.407  11.927
13479SOL     OW42333   5.264  13.425   4.794
13479SOL    HW142334   5.247  13.406   4.886
13479SOL    HW242335   5.346  13.474   4.794
13480SOL     OW42336   0.881   9.132   9.914
13480SOL    HW142337   0.911   9.195   9.848
13480SOL    HW242338   0.786   9.142   9.915
13481SOL     OW42339  12.761   3.090   6.185
13481SOL    HW142340  12.690   3.090   6.248
13481SOL    HW242341  12.784   2.998   6.174
13482SOL     OW42342   6.766  13.659   2.443
13482SOL    HW142343   6.845  13.610   2.467
13482SOL    HW242344   6.698  13.592   2.433
13483SOL     OW42345   4.073  13.960  14.190
13483SOL    HW142346   4.135  13.955  14.117
13483SOL    HW242347   4.022  14.039  14.171
13484SOL     OW42348   1.091   2.659  12.704
13484SOL    HW142349   1.043   2.577  12.719
13484SOL    HW242350   1.148   2.639  12.629
13485SOL     OW42351  10.732   0.879   9.575
13485SOL    HW142352  10.769   0.949   9.628
13485SOL    HW242353  10.653   0.917   9.536
13486SOL     OW42354  13.518  11.264  12.093
13486SOL    HW142355  13.495  11.260  12.186
13486SOL    HW242356  13.461  11.332  12.058
13487SOL     OW42357   7.532   4.048  10.748
13487SOL    HW142358   7.548   3.959  10.715
13487SOL    HW242359   7.457   4.037  10.807
13488SOL     OW42360   5.778   8.951   4.886
13488SOL    HW142361   5.727   9.017   4.838
13488SOL    HW242362   5.868   8.966   4.857
13489SOL     OW42363   2.312   9.406  14.711
13489SOL    HW142364   2.375   9.409  14.783
13489SOL    HW242365   2.276   9.318  14.714
13490SOL     OW42366  11.991   9.832   5.373
13490SOL    HW142367  11.974   9.785   5.292
13490SOL    HW242368  12.082   9.862   5.364
13491SOL     OW42369  11.637  13.528   9.217
13491SOL    HW142370  11.593  13.567   9.141
13491SOL    HW242371  11.672  13.603   9.265
13492SOL     OW42372  10.557  13.718   0.251
13492SOL    HW142373  10.639  13.694   0.295
13492SOL    HW242374  10.489  13.683   0.308
13493SOL     OW42375  14.412   8.826  12.626
13493SOL    HW142376  14.461   8.746  12.645
13493SOL    HW242377  14.466   8.874  12.563
13494SOL     OW42378   8.029  11.749  12.943
13494SOL    HW142379   7.974  11.793  13.008
13494SOL    HW242380   7.970  11.726  12.872
13495SOL     OW42381  12.413   8.661  10.654
13495SOL    HW142382  12.358   8.719  10.602
13495SOL    HW242383  12.495   8.655  10.605
13496SOL     OW42384   9.065   1.009  14.871
13496SOL    HW142385   9.104   0.931  14.831
13496SOL    HW242386   9.000   1.039  14.808
13497SOL     OW42387   3.859  12.259   3.089
13497SOL    HW142388   3.933  12.268   3.149
13497SOL    HW242389   3.831  12.349   3.072
13498SOL     OW42390   1.607   6.752   8.783
13498SOL    HW142391   1.631   6.659   8.777
13498SOL    HW242392   1.555   6.768   8.705
13499SOL     OW42393   9.066   7.392   3.913
13499SOL    HW142394   9.121   7.326   3.955
13499SOL    HW242395   9.031   7.443   3.986
13500SOL     OW42396   0.407   6.299   7.431
13500SOL    HW142397   0.380   6.359   7.362
13500SOL    HW242398   0.328   6.283   7.482
13501SOL     OW42399   7.337   4.166  12.133
13501SOL    HW142400   7.279   4.147  12.060
13501SOL    HW242401   7.417   4.200  12.092
13502SOL     OW42402   7.593  14.593   6.048
13502SOL    HW142403   7.659  14.661   6.040
13502SOL    HW242404   7.525  14.632   6.102
13503SOL     OW42405   9.949   1.056  11.034
13503SOL    HW142406   9.944   1.115  11.109
13503SOL    HW242407   9.863   1.015  11.030
13504SOL     OW42408  13.643  10.534  10.827
13504SOL    HW142409  13.625  10.443  10.805
13504SOL    HW242410  13.670  10.574  10.745
13505SOL     OW42411  14.831  10.383   7.094
13505SOL    HW142412  14.866  10.357   7.009
13505SOL    HW242413  14.737  10.395   7.078
13506SOL     OW42414   8.254  11.675   3.138
13506SOL    HW142415   8.321  11.724   3.090
13506SOL    HW242416   8.190  11.651   3.071
13507SOL     OW42417   5.087  11.022  13.856
13507SOL    HW142418   5.132  11.073  13.923
13507SOL    HW242419   5.036  11.087  13.807
13508SOL     OW42420   6.707   9.121  12.542
13508SOL    HW142421   6.734   9.199  12.589
13508SOL    HW242422   6.623   9.097  12.581
13509SOL     OW42423   8.658  12.852   2.634
13509SOL    HW142424   8.585  12.810   2.589
13509SOL    HW242425   8.713  12.885   2.563
13510SOL     OW42426   4.577   9.108   1.123
13510SOL    HW142427   4.667   9.118   1.153
13510SOL    HW242428   4.583   9.046   1.050
13511SOL     OW42429   4.112  13.334  12.270
13511SOL    HW142430   4.119  13.413  12.217
13511SOL    HW242431   4.177  13.274  12.232
13512SOL     OW42432   4.227   0.644   3.944
13512SOL    HW142433   4.289   0.607   3.881
13512SOL    HW242434   4.227   0.581   4.017
13513SOL     OW42435  12.011   7.492  10.108
13513SOL    HW142436  11.939   7.429  10.103
13513SOL    HW242437  11.969   7.578  10.099
13514SOL     OW42438   9.034   3.536   1.474
13514SOL    HW142439   9.060   3.472   1.540
13514SOL    HW242440   8.940   3.522   1.462
13515SOL     OW42441   8.026  11.363   8.905
13515SOL    HW142442   8.115  11.360   8.868
13515SOL    HW242443   7.975  11.307   8.846
13516SOL     OW42444   4.745   5.587  10.430
13516SOL    HW142445   4.712   5.498  10.423
13516SOL    HW242446   4.820   5.581  10.489
13517SOL     OW42447  10.735   5.426  14.589
13517SOL    HW142448  10.660   5.422  14.648
13517SOL    HW242449  10.791   5.353  14.617
13518SOL     OW42450   9.641  12.387   2.134
13518SOL    HW142451   9.624  12.414   2.224
13518SOL    HW242452   9.601  12.300   2.127
13519SOL     OW42453  11.167   2.660   1.790
13519SOL    HW142454  11.128   2.574   1.807
13519SOL    HW242455  11.128   2.688   1.707
13520SOL     OW42456  11.802   0.678  13.712
13520SOL    HW142457  11.837   0.762  13.684
13520SOL    HW242458  11.879   0.624  13.728
13521SOL     OW42459   8.664  10.211   7.733
13521SOL    HW142460   8.735  10.253   7.780
13521SOL    HW242461   8.587  10.220   7.790
13522SOL     OW42462   3.138   4.163   3.196
13522SOL    HW142463   3.226   4.163   3.159
13522SOL    HW242464   3.151   4.134   3.287
13523SOL     OW42465   3.562   0.362   6.638
13523SOL    HW142466   3.591   0.300   6.571
13523SOL    HW242467   3.563   0.447   6.594
13524SOL     OW42468   3.635   3.591   4.852
13524SOL    HW142469   3.564   3.631   4.801
13524SOL    HW242470   3.705   3.656   4.850
13525SOL     OW42471   4.928   1.675  13.562
13525SOL    HW142472   4.973   1.592  13.548
13525SOL    HW242473   4.866   1.657  13.633
13526SOL     OW42474  10.210   3.356   2.126
13526SOL    HW142475  10.152   3.282   2.108
13526SOL    HW242476  10.198   3.416   2.052
13527SOL     OW42477   3.314  10.058   4.839
13527SOL    HW142478   3.357  10.057   4.925
13527SOL    HW242479   3.363   9.995   4.787
13528SOL     OW42480   6.810  10.991  13.936
13528SOL    HW142481   6.811  10.907  13.981
13528SOL    HW242482   6.828  10.970  13.845
13529SOL     OW42483   0.719   1.078  13.572
13529SOL    HW142484   0.677   0.996  13.599
13529SOL    HW242485   0.683   1.144  13.631
13530SOL     OW42486  10.755  14.796  13.082
13530SOL    HW142487  10.795  14.764  13.162
13530SOL    HW242488  10.695  14.864  13.110
13531SOL     OW42489   8.142   8.769   4.270
13531SOL    HW142490   8.107   8.721   4.345
13531SOL    HW242491   8.075   8.834   4.250
13532SOL     OW42492   0.893   7.029  10.509
13532SOL    HW142493   0.963   7.070  10.457
13532SOL    HW242494   0.813   7.073  10.480
13533SOL     OW42495   8.754   1.243  12.437
13533SOL    HW142496   8.712   1.309  12.492
13533SOL    HW242497   8.820   1.203  12.494
13534SOL     OW42498   4.652   2.575   2.155
13534SOL    HW142499   4.664   2.518   2.079
13534SOL    HW242500   4.594   2.525   2.213
13535SOL     OW42501   9.668  14.767   0.690
13535SOL    HW142502   9.752  14.810   0.674
13535SOL    HW242503   9.627  14.761   0.603
13536SOL     OW42504   1.005   4.638   4.346
13536SOL    HW142505   0.939   4.593   4.295
13536SOL    HW242506   1.071   4.572   4.365
13537SOL     OW42507  11.487   1.525  10.068
13537SOL    HW142508  11.471   1.432  10.057
13537SOL    HW242509  11.465   1.542  10.160
13538SOL     OW42510   3.869   8.990   4.802
13538SOL    HW142511   3.808   9.003   4.730
13538SOL    HW242512   3.905   8.902   4.788
13539SOL     OW42513   0.726  12.683   9.154
13539SOL    HW142514   0.742  12.746   9.084
13539SOL    HW242515   0.660  12.725   9.209
13540SOL     OW42516  14.039   7.336  14.316
13540SOL    HW142517  14.105   7.375  14.372
13540SOL    HW242518  14.082   7.326  14.231
13541SOL     OW42519  12.583   4.703  12.731
13541SOL    HW142520  12.600   4.722  12.638
13541SOL    HW242521  12.663   4.731  12.776
13542SOL     OW42522   0.488   0.707   5.856
13542SOL    HW142523   0.545   0.784   5.851
13542SOL    HW242524   0.444   0.716   5.941
13543SOL     OW42525   7.819   2.305   3.980
13543SOL    HW142526   7.839   2.242   4.049
13543SOL    HW242527   7.860   2.386   4.009
13544SOL     OW42528   1.351   8.007   2.334
13544SOL    HW142529   1.379   8.090   2.296
13544SOL    HW242530   1.261   7.995   2.303
13545SOL     OW42531  10.543  12.424   8.455
13545SOL    HW142532  10.610  12.414   8.522
13545SOL    HW242533  10.583  12.481   8.389
13546SOL     OW42534   3.995  12.031  10.761
13546SOL    HW142535   4.025  12.056  10.848
13546SOL    HW242536   4.074  12.004  10.715
13547SOL     OW42537   7.508   1.924   6.124
13547SOL    HW142538   7.582   1.887   6.075
13547SOL    HW242539   7.442   1.944   6.057
13548SOL     OW42540   2.010  12.506   7.308
13548SOL    HW142541   2.094  12.484   7.349
13548SOL    HW242542   1.998  12.439   7.241
13549SOL     OW42543   5.079  14.111  11.747
13549SOL    HW142544   5.008  14.047  11.748
13549SOL    HW242545   5.121  14.098  11.662
13550SOL     OW42546   1.293   5.267   6.107
13550SOL    HW142547   1.239   5.198   6.146
13550SOL    HW242548   1.248   5.348   6.130
13551SOL     OW42549   4.087   2.321  14.170
13551SOL    HW142550   4.124   2.309  14.258
13551SOL    HW242551   4.163   2.319  14.112
13552SOL     OW42552   0.729   6.835   9.510
13552SOL    HW142553   0.659   6.772   9.499
13552SOL    HW242554   0.791   6.816   9.440
13553SOL     OW42555  12.359  11.510  11.848
13553SOL    HW142556  12.374  11.466  11.931
13553SOL    HW242557  12.337  11.600  11.873
13554SOL     OW42558   6.071   4.213   1.413
13554SOL    HW142559   6.120   4.133   1.390
13554SOL    HW242560   6.136   4.282   1.411
13555SOL     OW42561   5.590  13.116   0.074
13555SOL    HW142562   5.655  13.046   0.064
13555SOL    HW242563   5.624  13.187   0.021
13556SOL     OW42564   8.431  13.147   3.944
13556SOL    HW142565   8.372  13.212   3.982
13556SOL    HW242566   8.426  13.073   4.004
13557SOL     OW42567   5.689   4.702   3.136
13557SOL    HW142568   5.727   4.614   3.134
13557SOL    HW242569   5.643   4.707   3.220
13558SOL     OW42570   2.096  10.476  13.385
13558SOL    HW142571   2.181  10.489  13.428
13558SOL    HW242572   2.062  10.396  13.425
13559SOL     OW42573   1.011   0.811   4.583
13559SOL    HW142574   1.103   0.834   4.573
13559SOL    HW242575   0.989   0.837   4.673
13560SOL     OW42576   3.072  13.204  11.739
13560SOL    HW142577   3.016  13.133  11.708
13560SOL    HW242578   3.020  13.248  11.806
13561SOL     OW42579   1.721   7.671   9.745
13561SOL    HW142580   1.758   7.701   9.829
13561SOL    HW242581   1.658   7.603   9.770
13562SOL     OW42582   6.668  12.254   9.855
13562SOL    HW142583   6.623  12.295   9.782
13562SOL    HW242584   6.716  12.181   9.817
13563SOL     OW42585   3.094   7.472   5.290
13563SOL    HW142586   3.102   7.420   5.370
13563SOL    HW242587   3.003   7.461   5.264
13564SOL     OW42588   9.973  11.642   5.845
13564SOL    HW142589   9.902  11.608   5.900
13564SOL    HW242590  10.029  11.566   5.828
13565SOL     OW42591  13.639   0.378   1.116
13565SOL    HW142592  13.651   0.420   1.031
13565SOL    HW242593  13.700   0.304   1.115
13566SOL     OW42594   6.500   8.357  10.213
13566SOL    HW142595   6.556   8.420  10.169
13566SOL    HW242596   6.511   8.375  10.307
13567SOL     OW42597   4.380   4.422  12.758
13567SOL    HW142598   4.318   4.398  12.827
13567SOL    HW242599   4.330   4.416  12.677
13568SOL     OW42600   5.473   0.240   9.796
13568SOL    HW142601   5.507   0.162   9.840
13568SOL    HW242602   5.497   0.313   9.854
13569SOL     OW42603  12.377  14.750   6.936
13569SOL    HW142604  12.325  14.770   6.858
13569SOL    HW242605  12.425  14.670   6.913
13570SOL     OW42606  12.612  10.375  14.592
13570SOL    HW142607  12.606  10.391  14.686
13570SOL    HW242608  12.577  10.455  14.552
13571SOL     OW42609   6.637   2.448   7.870
13571SOL    HW142610   6.576   2.403   7.812
13571SOL    HW242611   6.712   2.390   7.876
13572SOL     OW42612   8.722   4.976   9.703
13572SOL    HW142613   8.785   5.028   9.754
13572SOL    HW242614   8.763   4.890   9.696
13573SOL     OW42615   2.568   2.324   7.893
13573SOL    HW142616   2.474   2.315   7.877
13573SOL    HW242617   2.609   2.262   7.831
13574SOL     OW42618  11.292   2.532   6.186
13574SOL    HW142619  11.379   2.522   6.225
13574SOL    HW242620  11.249   2.598   6.240
13575SOL     OW42621   0.829   6.772   2.751
13575SOL    HW142622   0.867   6.761   2.663
13575SOL    HW242623   0.786   6.689   2.769
13576SOL     OW42624   3.608  12.420   1.063
13576SOL    HW142625   3.582  12.447   0.975
13576SOL    HW242626   3.662  12.492   1.096
13577SOL     OW42627  13.861   0.301   3.916
13577SOL    HW142628  13.812   0.246   3.977
13577SOL    HW242629  13.805   0.378   3.904
13578SOL     OW42630   3.075  13.894   1.377
13578SOL    HW142631   3.168  13.870   1.374
13578SOL    HW242632   3.075  13.989   1.371
13579SOL     OW42633   1.957   9.256   2.157
13579SOL    HW142634   1.946   9.243   2.063
13579SOL    HW242635   2.040   9.212   2.178
13580SOL     OW42636   2.828  14.076   2.328
13580SOL    HW142637   2.820  14.103   2.236
13580SOL    HW242638   2.738  14.081   2.362
13581SOL     OW42639   2.563   9.440  14.863
13581SOL    HW142640   2.579   9.490  14.783
13581SOL    HW242641   2.637   9.461   0.040
13582SOL     OW42642   2.078   2.482  11.176
13582SOL    HW142643   2.014   2.483  11.248
13582SOL    HW242644   2.128   2.402  11.190
13583SOL     OW42645   7.332   9.458   2.338
13583SOL    HW142646   7.309   9.396   2.408
13583SOL    HW242647   7.253   9.509   2.324
13584SOL     OW42648  11.408   0.432  14.031
13584SOL    HW142649  11.345   0.369  13.996
13584SOL    HW242650  11.361   0.514  14.036
13585SOL     OW42651  10.727  10.633   3.705
13585SOL    HW142652  10.710  10.538   3.707
13585SOL    HW242653  10.811  10.640   3.660
13586SOL     OW42654  12.272   0.725  12.753
13586SOL    HW142655  12.280   0.819  12.733
13586SOL    HW242656  12.253   0.721  12.846
13587SOL     OW42657   6.639   1.961  11.821
13587SOL    HW142658   6.581   1.926  11.753
13587SOL    HW242659   6.630   1.900  11.894
13588SOL     OW42660   3.764   9.370   9.015
13588SOL    HW142661   3.804   9.283   9.010
13588SOL    HW242662   3.717   9.380   8.933
13589SOL     OW42663   1.541  10.772   4.122
13589SOL    HW142664   1.539  10.821   4.040
13589SOL    HW242665   1.503  10.687   4.101
13590SOL     OW42666  14.223   3.982   8.029
13590SOL    HW142667  14.227   3.949   7.939
13590SOL    HW242668  14.131   3.974   8.053
13591SOL     OW42669  12.418  14.538  12.034
13591SOL    HW142670  12.322  14.541  12.033
13591SOL    HW242671  12.439  14.460  12.085
13592SOL     OW42672   3.585  14.673   8.411
13592SOL    HW142673   3.642  14.642   8.341
13592SOL    HW242674   3.540  14.749   8.374
13593SOL     OW42675  12.524  11.099   6.349
13593SOL    HW142676  12.483  11.097   6.435
13593SOL    HW242677  12.565  11.185   6.344
13594SOL     OW42678  10.174  12.748  13.117
13594SOL    HW142679  10.146  12.704  13.197
13594SOL    HW242680  10.250  12.697  13.087
13595SOL     OW42681  11.800   3.484   5.045
13595SOL    HW142682  11.884   3.444   5.023
13595SOL    HW242683  11.821   3.549   5.112
13596SOL     OW42684  10.222   3.360  12.871
13596SOL    HW142685  10.131   3.341  12.851
13596SOL    HW242686  10.268   3.278  12.853
13597SOL     OW42687   3.481   9.026   1.380
13597SOL    HW142688   3.562   9.005   1.333
13597SOL    HW242689   3.492   9.115   1.411
13598SOL     OW42690   5.797   0.941  14.439
13598SOL    HW142691   5.819   0.874  14.375
13598SOL    HW242692   5.706   0.964  14.420
13599SOL     OW42693  13.742  13.698  13.796
13599SOL    HW142694  13.806  13.713  13.727
13599SOL    HW242695  13.792  13.653  13.865
13600SOL     OW42696   8.933   4.534  10.556
13600SOL    HW142697   8.872   4.490  10.496
13600SOL    HW242698   8.905   4.625  10.557
13601SOL     OW42699   8.293  14.274  12.057
13601SOL    HW142700   8.261  14.192  12.093
13601SOL    HW242701   8.385  14.258  12.039
13602SOL     OW42702   0.827   6.989   2.263
13602SOL    HW142703   0.779   6.933   2.203
13602SOL    HW242704   0.859   7.061   2.209
13603SOL     OW42705   1.965  11.649   8.916
13603SOL    HW142706   2.014  11.727   8.942
13603SOL    HW242707   1.988  11.583   8.982
13604SOL     OW42708  11.633   5.806   3.054
13604SOL    HW142709  11.639   5.711   3.048
13604SOL    HW242710  11.631   5.824   3.148
13605SOL     OW42711   3.565   2.989   9.350
13605SOL    HW142712   3.511   2.916   9.381
13605SOL    HW242713   3.536   3.064   9.402
13606SOL     OW42714   0.903   3.994  11.435
13606SOL    HW142715   0.954   3.918  11.463
13606SOL    HW242716   0.896   4.049  11.513
13607SOL     OW42717  13.737   1.812   2.860
13607SOL    HW142718  13.769   1.888   2.811
13607SOL    HW242719  13.675   1.769   2.801
13608SOL     OW42720   2.659  10.246   1.102
13608SOL    HW142721   2.688  10.321   1.050
13608SOL    HW242722   2.585  10.210   1.053
13609SOL     OW42723  12.148  10.116   8.367
13609SOL    HW142724  12.094  10.041   8.389
13609SOL    HW242725  12.225  10.079   8.324
13610SOL     OW42726   1.917   6.417  11.257
13610SOL    HW142727   1.930   6.474  11.333
13610SOL    HW242728   1.846   6.459  11.208
13611SOL     OW42729   5.737   7.824   7.823
13611SOL    HW142730   5.813   7.805   7.768
13611SOL    HW242731   5.685   7.744   7.819
13612SOL     OW42732  14.034   2.066   9.194
13612SOL    HW142733  14.058   2.079   9.285
13612SOL    HW242734  14.017   1.972   9.186
13613SOL     OW42735   2.159  12.246   9.133
13613SOL    HW142736   2.079  12.289   9.103
13613SOL    HW242737   2.201  12.311   9.189
13614SOL     OW42738   1.806  10.940   0.266
13614SOL    HW142739   1.752  10.913   0.191
13614SOL    HW242740   1.756  10.911   0.343
13615SOL     OW42741   7.696   5.795   5.104
13615SOL    HW142742   7.682   5.888   5.122
13615SOL    HW242743   7.682   5.752   5.189
13616SOL     OW42744   6.732   8.377   7.063
13616SOL    HW142745   6.823   8.376   7.035
13616SOL    HW242746   6.717   8.467   7.094
13617SOL     OW42747   4.434  13.998   3.916
13617SOL    HW142748   4.517  13.965   3.951
13617SOL    HW242749   4.376  14.002   3.992
13618SOL     OW42750   8.179   0.007   6.252
13618SOL    HW142751   8.176  14.835   6.171
13618SOL    HW242752   8.165   0.097   6.222
13619SOL     OW42753  10.485   1.615   6.598
13619SOL    HW142754  10.510   1.627   6.506
13619SOL    HW242755  10.454   1.701   6.626
13620SOL     OW42756   1.295   8.681   0.132
13620SOL    HW142757   1.247   8.632   0.200
13620SOL    HW242758   1.240   8.758   0.115
13621SOL     OW42759  14.435   5.184  10.127
13621SOL    HW142760  14.399   5.264  10.164
13621SOL    HW242761  14.489   5.213  10.054
13622SOL     OW42762   1.140   4.103   8.432
13622SOL    HW142763   1.162   4.028   8.487
13622SOL    HW242764   1.224   4.139   8.405
13623SOL     OW42765  11.505   1.136   8.179
13623SOL    HW142766  11.516   1.162   8.088
13623SOL    HW242767  11.477   1.045   8.175
13624SOL     OW42768   3.970   4.186  11.176
13624SOL    HW142769   4.051   4.162  11.131
13624SOL    HW242770   3.906   4.122  11.144
13625SOL     OW42771  10.852   8.709  12.160
13625SOL    HW142772  10.920   8.645  12.178
13625SOL    HW242773  10.855   8.721  12.065
13626SOL     OW42774  12.548   3.135  11.715
13626SOL    HW142775  12.581   3.167  11.799
13626SOL    HW242776  12.471   3.188  11.698
13627SOL     OW42777   5.389   0.280  12.751
13627SOL    HW142778   5.352   0.192  12.743
13627SOL    HW242779   5.346   0.318  12.827
13628SOL     OW42780   3.685  13.628   7.577
13628SOL    HW142781   3.759  13.578   7.544
13628SOL    HW242782   3.724  13.708   7.613
13629SOL     OW42783   0.770  10.811  10.137
13629SOL    HW142784   0.675  10.813  10.150
13629SOL    HW242785   0.806  10.788  10.223
13630SOL     OW42786   0.375  10.751   9.236
13630SOL    HW142787   0.358  10.667   9.193
13630SOL    HW242788   0.439  10.730   9.304
13631SOL     OW42789   3.701  11.125   4.978
13631SOL    HW142790   3.698  11.220   4.988
13631SOL    HW242791   3.628  11.105   4.920
13632SOL     OW42792   1.671  13.476  10.087
13632SOL    HW142793   1.599  13.418  10.064
13632SOL    HW242794   1.629  13.551  10.128
13633SOL     OW42795   0.600   1.012  14.135
13633SOL    HW142796   0.541   0.949  14.093
13633SOL    HW242797   0.678   0.962  14.157
13634SOL     OW42798   9.813   7.936   5.164
13634SOL    HW142799   9.855   7.850   5.164
13634SOL    HW242800   9.748   7.930   5.234
13635SOL     OW42801   0.307  11.737  10.080
13635SOL    HW142802   0.341  11.716  10.167
13635SOL    HW242803   0.262  11.658  10.051
13636SOL     OW42804   0.227  12.679   0.981
13636SOL    HW142805   0.292  12.706   1.046
13636SOL    HW242806   0.151  12.652   1.034
13637SOL     OW42807   1.500  14.593  14.049
13637SOL    HW142808   1.552  14.601  13.970
13637SOL    HW242809   1.420  14.548  14.021
13638SOL     OW42810  13.782  11.736   3.770
13638SOL    HW142811  13.720  11.665   3.754
13638SOL    HW242812  13.801  11.730   3.864
13639SOL     OW42813   1.359  13.682   3.985
13639SOL    HW142814   1.366  13.776   4.002
13639SOL    HW242815   1.273  13.657   4.019
13640SOL     OW42816   4.747   7.764   1.408
13640SOL    HW142817   4.700   7.846   1.396
13640SOL    HW242818   4.733   7.715   1.327
13641SOL     OW42819   4.499  11.847   9.867
13641SOL    HW142820   4.545  11.778   9.819
13641SOL    HW242821   4.486  11.917   9.802
13642SOL     OW42822  13.995  11.398   0.735
13642SOL    HW142823  14.038  11.328   0.685
13642SOL    HW242824  13.924  11.428   0.678
13643SOL     OW42825  12.372  11.013  10.120
13643SOL    HW142826  12.364  10.947  10.189
13643SOL    HW242827  12.345  11.095  10.162
13644SOL     OW42828   8.198  12.443  12.204
13644SOL    HW142829   8.131  12.393  12.158
13644SOL    HW242830   8.183  12.533  12.177
13645SOL     OW42831   0.770   3.279  14.292
13645SOL    HW142832   0.676   3.287  14.276
13645SOL    HW242833   0.783   3.313  14.381
13646SOL     OW42834  12.070  14.446  14.106
13646SOL    HW142835  12.119  14.435  14.025
13646SOL    HW242836  11.982  14.473  14.078
13647SOL     OW42837   9.293  12.791   7.589
13647SOL    HW142838   9.307  12.859   7.655
13647SOL    HW242839   9.268  12.714   7.639
13648SOL     OW42840   3.896   7.194  10.956
13648SOL    HW142841   3.933   7.282  10.964
13648SOL    HW242842   3.818   7.205  10.902
13649SOL     OW42843   9.030   5.215  14.375
13649SOL    HW142844   8.973   5.280  14.334
13649SOL    HW242845   8.973   5.140  14.391
13650SOL     OW42846   7.257   8.645   8.146
13650SOL    HW142847   7.347   8.678   8.142
13650SOL    HW242848   7.219   8.691   8.221
13651SOL     OW42849  10.781   7.110  10.908
13651SOL    HW142850  10.876   7.112  10.916
13651SOL    HW242851  10.757   7.200  10.883
13652SOL     OW42852   0.221  14.227  14.522
13652SOL    HW142853   0.299  14.213  14.575
13652SOL    HW242854   0.241  14.183  14.439
13653SOL     OW42855   5.749   4.080  12.811
13653SOL    HW142856   5.679   4.125  12.764
13653SOL    HW242857   5.808   4.150  12.839
13654SOL     OW42858   8.925   0.865   2.767
13654SOL    HW142859   8.973   0.784   2.751
13654SOL    HW242860   8.951   0.924   2.696
13655SOL     OW42861  10.230   6.635   2.594
13655SOL    HW142862  10.283   6.594   2.525
13655SOL    HW242863  10.140   6.622   2.567
13656SOL     OW42864   6.437   8.182   4.044
13656SOL    HW142865   6.506   8.232   3.999
13656SOL    HW242866   6.406   8.241   4.112
13657SOL     OW42867   0.912  12.294   6.237
13657SOL    HW142868   0.933  12.302   6.144
13657SOL    HW242869   0.817  12.298   6.240
13658SOL     OW42870  10.326   1.483  11.073
13658SOL    HW142871  10.366   1.495  10.987
13658SOL    HW242872  10.347   1.563  11.121
13659SOL     OW42873  13.141   2.296   1.154
13659SOL    HW142874  13.154   2.313   1.247
13659SOL    HW242875  13.046   2.292   1.143
13660SOL     OW42876   5.042   4.479  11.871
13660SOL    HW142877   5.102   4.404  11.869
13660SOL    HW242878   5.100   4.555  11.869
13661SOL     OW42879  13.416   0.830   2.187
13661SOL    HW142880  13.406   0.886   2.264
13661SOL    HW242881  13.327   0.822   2.152
13662SOL     OW42882   4.625   3.951  14.723
13662SOL    HW142883   4.702   3.989  14.682
13662SOL    HW242884   4.646   3.858  14.732
13663SOL     OW42885   2.409   6.080   9.532
13663SOL    HW142886   2.492   6.110   9.495
13663SOL    HW242887   2.433   6.006   9.587
13664SOL     OW42888   7.044   2.028  11.135
13664SOL    HW142889   7.047   2.034  11.231
13664SOL    HW242890   7.136   2.027  11.108
13665SOL     OW42891   7.657   5.766   3.259
13665SOL    HW142892   7.728   5.797   3.202
13665SOL    HW242893   7.700   5.704   3.319
13666SOL     OW42894  14.175   1.692   4.676
13666SOL    HW142895  14.172   1.650   4.590
13666SOL    HW242896  14.148   1.624   4.738
13667SOL     OW42897   4.011   9.725  10.527
13667SOL    HW142898   3.965   9.759  10.604
13667SOL    HW242899   4.026   9.633  10.547
13668SOL     OW42900  11.819  14.236   0.195
13668SOL    HW142901  11.859  14.160   0.237
13668SOL    HW242902  11.793  14.292   0.268
13669SOL     OW42903  11.045  11.666  11.848
13669SOL    HW142904  11.059  11.755  11.816
13669SOL    HW242905  11.054  11.611  11.770
13670SOL     OW42906   5.527  10.160   9.554
13670SOL    HW142907   5.537  10.250   9.586
13670SOL    HW242908   5.445  10.130   9.593
13671SOL     OW42909   4.065   5.025   9.266
13671SOL    HW142910   4.153   4.987   9.265
13671SOL    HW242911   4.064   5.079   9.345
13672SOL     OW42912   4.595   3.889   8.747
13672SOL    HW142913   4.670   3.886   8.807
13672SOL    HW242914   4.541   3.814   8.773
13673SOL     OW42915   7.510  14.177   3.649
13673SOL    HW142916   7.557  14.098   3.622
13673SOL    HW242917   7.538  14.244   3.586
13674SOL     OW42918   2.335   8.404   2.380
13674SOL    HW142919   2.258   8.349   2.371
13674SOL    HW242920   2.312   8.467   2.448
13675SOL     OW42921  12.744  12.069   2.730
13675SOL    HW142922  12.764  12.163   2.728
13675SOL    HW242923  12.649  12.065   2.743
13676SOL     OW42924  11.832   5.952   8.791
13676SOL    HW142925  11.822   5.898   8.869
13676SOL    HW242926  11.816   6.042   8.821
13677SOL     OW42927   4.365  10.261  12.393
13677SOL    HW142928   4.453  10.231  12.368
13677SOL    HW242929   4.317  10.180  12.410
13678SOL     OW42930  13.686  13.440   5.987
13678SOL    HW142931  13.736  13.511   5.947
13678SOL    HW242932  13.645  13.395   5.913
13679SOL     OW42933  14.027  14.017  13.502
13679SOL    HW142934  14.122  14.011  13.494
13679SOL    HW242935  14.010  14.026  13.596
13680SOL     OW42936  12.444   9.861   3.846
13680SOL    HW142937  12.364   9.810   3.839
13680SOL    HW242938  12.511   9.809   3.801
13681SOL     OW42939   8.386  13.605   8.911
13681SOL    HW142940   8.451  13.636   8.848
13681SOL    HW242941   8.325  13.678   8.920
13682SOL     OW42942  13.655  11.119  14.159
13682SOL    HW142943  13.677  11.088  14.071
13682SOL    HW242944  13.727  11.088  14.214
13683SOL     OW42945  13.782   4.638   3.736
13683SOL    HW142946  13.722   4.569   3.764
13683SOL    HW242947  13.854   4.633   3.799
13684SOL     OW42948  14.264   2.613  12.439
13684SOL    HW142949  14.235   2.628  12.529
13684SOL    HW242950  14.360   2.615  12.444
13685SOL     OW42951   2.409  13.779   2.405
13685SOL    HW142952   2.493  13.773   2.450
13685SOL    HW242953   2.425  13.839   2.332
13686SOL     OW42954  14.562   5.459   4.516
13686SOL    HW142955  14.656   5.441   4.505
13686SOL    HW242956  14.557   5.515   4.593
13687SOL     OW42957  13.222  11.122  10.681
13687SOL    HW142958  13.181  11.062  10.744
13687SOL    HW242959  13.231  11.070  10.601
13688SOL     OW42960   5.967   3.145   5.473
13688SOL    HW142961   5.879   3.167   5.504
13688SOL    HW242962   6.021   3.149   5.551
13689SOL     OW42963   6.088   8.141   5.607
13689SOL    HW142964   6.071   8.092   5.526
13689SOL    HW242965   6.076   8.233   5.582
13690SOL     OW42966   3.382   0.210  12.297
13690SOL    HW142967   3.432   0.203  12.216
13690SOL    HW242968   3.373   0.304  12.312
13691SOL     OW42969  10.390   0.567   1.980
13691SOL    HW142970  10.325   0.635   1.996
13691SOL    HW242971  10.346   0.505   1.921
13692SOL     OW42972  13.458   1.672  13.022
13692SOL    HW142973  13.478   1.636  13.108
13692SOL    HW242974  13.511   1.620  12.961
13693SOL     OW42975   2.333   3.793   2.020
13693SOL    HW142976   2.355   3.815   1.929
13693SOL    HW242977   2.261   3.731   2.013
13694SOL     OW42978   1.393  10.565   0.319
13694SOL    HW142979   1.381  10.623   0.244
13694SOL    HW242980   1.307  10.523   0.330
13695SOL     OW42981   1.086  14.222  10.711
13695SOL    HW142982   1.104  14.316  10.709
13695SOL    HW242983   1.159  14.183  10.663
13696SOL     OW42984   7.441   8.418   6.184
13696SOL    HW142985   7.370   8.359   6.210
13696SOL    HW242986   7.396   8.498   6.156
13697SOL     OW42987  12.710  11.509  10.622
13697SOL    HW142988  12.739  11.442  10.684
13697SOL    HW242989  12.746  11.480  10.538
13698SOL     OW42990  14.737   2.077  11.449
13698SOL    HW142991  14.724   1.982  11.459
13698SOL    HW242992  14.828   2.091  11.476
13699SOL     OW42993   4.564  11.930   3.473
13699SOL    HW142994   4.504  11.883   3.531
13699SOL    HW242995   4.622  11.978   3.533
13700SOL     OW42996   5.935   2.134   0.146
13700SOL    HW142997   5.884   2.132   0.226
13700SOL    HW242998   5.889   2.195   0.089
13701SOL     OW42999  14.124  13.510   3.528
13701SOL    HW143000  14.143  13.418   3.509
13701SOL    HW243001  14.030  13.519   3.513
13702SOL     OW43002   1.212   3.342   0.600
13702SOL    HW143003   1.268   3.418   0.613
13702SOL    HW243004   1.178   3.352   0.511
13703SOL     OW43005   3.777   3.362  14.758
13703SOL    HW143006   3.805   3.373  14.848
13703SOL    HW243007   3.858   3.362  14.707
13704SOL     OW43008  12.906   8.784  13.439
13704SOL    HW143009  12.826   8.753  13.396
13704SOL    HW243010  12.877   8.809  13.527
13705SOL     OW43011   4.765  13.489   9.620
13705SOL    HW143012   4.778  13.463   9.529
13705SOL    HW243013   4.720  13.413   9.660
13706SOL     OW43014   4.913   1.593   8.700
13706SOL    HW143015   4.865   1.605   8.782
13706SOL    HW243016   4.861   1.639   8.634
13707SOL     OW43017   0.955  11.508   7.390
13707SOL    HW143018   1.011  11.463   7.453
13707SOL    HW243019   0.936  11.441   7.324
13708SOL     OW43020   5.417   1.052  10.662
13708SOL    HW143021   5.473   1.123  10.692
13708SOL    HW243022   5.330   1.074  10.695
13709SOL     OW43023   7.251  11.474  11.902
13709SOL    HW143024   7.324  11.461  11.842
13709SOL    HW243025   7.190  11.529  11.854
13710SOL     OW43026   2.147  11.693   2.060
13710SOL    HW143027   2.100  11.734   2.132
13710SOL    HW243028   2.080  11.672   1.996
13711SOL     OW43029   4.865  10.989   4.976
13711SOL    HW143030   4.821  11.014   5.058
13711SOL    HW243031   4.891  10.898   4.989
13712SOL     OW43032  11.809   9.092   9.092
13712SOL    HW143033  11.896   9.055   9.075
13712SOL    HW243034  11.824   9.186   9.104
13713SOL     OW43035   7.442   4.481  11.278
13713SOL    HW143036   7.427   4.543  11.348
13713SOL    HW243037   7.531   4.499  11.248
13714SOL     OW43038   7.851   5.032   7.233
13714SOL    HW143039   7.946   5.025   7.238
13714SOL    HW243040   7.821   4.944   7.212
13715SOL     OW43041  14.407   9.154   2.898
13715SOL    HW143042  14.473   9.153   2.828
13715SOL    HW243043  14.326   9.130   2.854
13716SOL     OW43044   4.177   5.007   4.214
13716SOL    HW143045   4.205   5.098   4.212
13716SOL    HW243046   4.251   4.958   4.178
13717SOL     OW43047  10.282  10.848  14.019
13717SOL    HW143048  10.232  10.924  13.989
13717SOL    HW243049  10.326  10.816  13.940
13718SOL     OW43050   5.769   3.335   3.866
13718SOL    HW143051   5.848   3.285   3.889
13718SOL    HW243052   5.699   3.270   3.866
13719SOL     OW43053   5.862  14.615   8.825
13719SOL    HW143054   5.906  14.698   8.808
13719SOL    HW243055   5.837  14.619   8.918
13720SOL     OW43056   1.199  13.387   4.608
13720SOL    HW143057   1.119  13.421   4.567
13720SOL    HW243058   1.248  13.465   4.634
13721SOL     OW43059   7.325  11.926   8.897
13721SOL    HW143060   7.330  11.913   8.991
13721SOL    HW243061   7.248  11.877   8.870
13722SOL     OW43062   3.237   8.907   3.742
13722SOL    HW143063   3.288   8.835   3.704
13722SOL    HW243064   3.298   8.980   3.744
13723SOL     OW43065   7.271  11.604   5.760
13723SOL    HW143066   7.198  11.622   5.700
13723SOL    HW243067   7.230  11.557   5.833
13724SOL     OW43068  12.909   0.109  14.595
13724SOL    HW143069  12.913   0.037  14.657
13724SOL    HW243070  12.869   0.181  14.645
13725SOL     OW43071  14.771  13.757   4.671
13725SOL    HW143072  14.841  13.807   4.715
13725SOL    HW243073  14.722  13.823   4.622
13726SOL     OW43074  14.099   3.690   1.719
13726SOL    HW143075  14.114   3.709   1.812
13726SOL    HW243076  14.126   3.599   1.708
13727SOL     OW43077   0.037   7.300  12.094
13727SOL    HW143078  14.869   7.324  12.014
13727SOL    HW243079  14.849   7.274  12.156
13728SOL     OW43080  12.007   2.559  14.022
13728SOL    HW143081  12.030   2.509  13.943
13728SOL    HW243082  12.040   2.506  14.095
13729SOL     OW43083   6.134  13.859   3.999
13729SOL    HW143084   6.187  13.933   4.027
13729SOL    HW243085   6.094  13.887   3.917
13730SOL     OW43086  12.071   3.779   3.153
13730SOL    HW143087  12.026   3.856   3.120
13730SOL    HW243088  12.061   3.784   3.248
13731SOL     OW43089   5.766   4.242   7.471
13731SOL    HW143090   5.833   4.192   7.519
13731SOL    HW243091   5.815   4.292   7.406
13732SOL     OW43092   1.451   6.264   9.825
13732SOL    HW143093   1.480   6.354   9.812
13732SOL    HW243094   1.445   6.228   9.737
13733SOL     OW43095   9.079   7.248   3.694
13733SOL    HW143096   9.081   7.299   3.775
13733SOL    HW243097   9.031   7.303   3.632
13734SOL     OW43098   9.020   9.233   4.219
13734SOL    HW143099   8.990   9.146   4.246
13734SOL    HW243100   9.003   9.236   4.125
13735SOL     OW43101  13.228   0.654   2.827
13735SOL    HW143102  13.303   0.610   2.868
13735SOL    HW243103  13.209   0.727   2.885
13736SOL     OW43104  11.277   0.034  11.003
13736SOL    HW143105  11.221  14.875  10.935
13736SOL    HW243106  11.224   0.034  11.082
13737SOL     OW43107   3.290   2.704  14.531
13737SOL    HW143108   3.247   2.787  14.512
13737SOL    HW243109   3.361   2.727  14.592
13738SOL     OW43110  13.975  14.804   1.104
13738SOL    HW143111  13.914  14.769   1.170
13738SOL    HW243112  13.975   0.018   1.119
13739SOL     OW43113  10.756  13.447   0.686
13739SOL    HW143114  10.771  13.401   0.603
13739SOL    HW243115  10.664  13.430   0.707
13740SOL     OW43116  14.579   6.197   9.458
13740SOL    HW143117  14.649   6.262   9.467
13740SOL    HW243118  14.502   6.249   9.434
13741SOL     OW43119  14.111  12.492   4.141
13741SOL    HW143120  14.197  12.449   4.147
13741SOL    HW243121  14.110  12.553   4.215
13742SOL     OW43122  10.611  14.324   0.092
13742SOL    HW143123  10.678  14.388   0.116
13742SOL    HW243124  10.642  14.241   0.130
13743SOL     OW43125   1.155  12.140  13.502
13743SOL    HW143126   1.244  12.111  13.481
13743SOL    HW243127   1.166  12.199  13.576
13744SOL     OW43128   4.552  11.937  14.051
13744SOL    HW143129   4.607  11.861  14.070
13744SOL    HW243130   4.485  11.936  14.119
13745SOL     OW43131   3.001  13.171   2.038
13745SOL    HW143132   3.056  13.175   1.960
13745SOL    HW243133   3.063  13.167   2.111
13746SOL     OW43134   6.233  12.635   8.707
13746SOL    HW143135   6.155  12.580   8.699
13746SOL    HW243136   6.262  12.647   8.617
13747SOL     OW43137   1.778   9.869  14.108
13747SOL    HW143138   1.791   9.921  14.187
13747SOL    HW243139   1.716   9.920  14.055
13748SOL     OW43140  12.279  11.590   9.717
13748SOL    HW143141  12.367  11.616   9.690
13748SOL    HW243142  12.255  11.651   9.786
13749SOL     OW43143   5.672   1.592   5.386
13749SOL    HW143144   5.700   1.613   5.476
13749SOL    HW243145   5.663   1.497   5.385
13750SOL     OW43146   3.595   8.607  10.025
13750SOL    HW143147   3.566   8.537  10.084
13750SOL    HW243148   3.566   8.687  10.068
13751SOL     OW43149   2.001   3.189   1.940
13751SOL    HW143150   2.020   3.129   1.868
13751SOL    HW243151   2.077   3.247   1.943
13752SOL     OW43152  11.153  13.099   2.856
13752SOL    HW143153  11.161  13.019   2.804
13752SOL    HW243154  11.115  13.163   2.796
13753SOL     OW43155  10.147   4.298   5.146
13753SOL    HW143156  10.111   4.314   5.233
13753SOL    HW243157  10.092   4.350   5.087
13754SOL     OW43158  10.689   4.870  11.259
13754SOL    HW143159  10.763   4.811  11.272
13754SOL    HW243160  10.729   4.953  11.232
13755SOL     OW43161   9.886   2.960   4.108
13755SOL    HW143162   9.854   2.997   4.026
13755SOL    HW243163   9.821   2.986   4.173
13756SOL     OW43164   2.900   8.882   9.702
13756SOL    HW143165   2.966   8.950   9.711
13756SOL    HW243166   2.860   8.897   9.617
13757SOL     OW43167   9.370   6.657   9.131
13757SOL    HW143168   9.368   6.748   9.158
13757SOL    HW243169   9.451   6.649   9.081
13758SOL     OW43170  12.141   4.302  10.960
13758SOL    HW143171  12.118   4.392  10.984
13758SOL    HW243172  12.147   4.303  10.865
13759SOL     OW43173  13.930   6.676   7.122
13759SOL    HW143174  13.957   6.591   7.088
13759SOL    HW243175  13.846   6.693   7.080
13760SOL     OW43176   2.424   0.105   8.970
13760SOL    HW143177   2.380   0.187   8.994
13760SOL    HW243178   2.391   0.041   9.033
13761SOL     OW43179   7.469   7.323   9.120
13761SOL    HW143180   7.499   7.411   9.139
13761SOL    HW243181   7.512   7.301   9.037
13762SOL     OW43182  13.654   7.014  10.591
13762SOL    HW143183  13.600   7.070  10.647
13762SOL    HW243184  13.707   6.963  10.652
13763SOL     OW43185   8.370   0.188   5.737
13763SOL    HW143186   8.295   0.164   5.682
13763SOL    HW243187   8.410   0.104   5.760
13764SOL     OW43188  12.218   3.480   2.069
13764SOL    HW143189  12.276   3.470   2.145
13764SOL    HW243190  12.269   3.446   1.995
13765SOL     OW43191   5.165  12.690   2.206
13765SOL    HW143192   5.175  12.599   2.235
13765SOL    HW243193   5.086  12.720   2.252
13766SOL     OW43194   9.064  13.311  13.244
13766SOL    HW143195   9.060  13.220  13.275
13766SOL    HW243196   8.982  13.323  13.197
13767SOL     OW43197   5.120   7.391   7.975
13767SOL    HW143198   5.034   7.412   8.012
13767SOL    HW243199   5.105   7.384   7.881
13768SOL     OW43200  13.319   8.489   0.927
13768SOL    HW143201  13.279   8.540   0.997
13768SOL    HW243202  13.258   8.496   0.854
13769SOL     OW43203   9.099   5.090   8.145
13769SOL    HW143204   9.147   5.087   8.063
13769SOL    HW243205   9.104   5.182   8.172
13770SOL     OW43206  13.459   6.575   5.732
13770SOL    HW143207  13.416   6.515   5.671
13770SOL    HW243208  13.406   6.572   5.811
13771SOL     OW43209  12.699   8.660   6.770
13771SOL    HW143210  12.743   8.682   6.688
13771SOL    HW243211  12.765   8.615   6.822
13772SOL     OW43212  13.847  13.522  14.796
13772SOL    HW143213  13.837  13.605  14.842
13772SOL    HW243214  13.769  13.514  14.742
13773SOL     OW43215  14.009   4.137   7.948
13773SOL    HW143216  13.975   4.157   7.861
13773SOL    HW243217  14.045   4.220   7.979
13774SOL     OW43218   1.363   7.064  14.377
13774SOL    HW143219   1.329   7.003  14.442
13774SOL    HW243220   1.289   7.122  14.358
13775SOL     OW43221   7.595   9.729   1.268
13775SOL    HW143222   7.572   9.751   1.358
13775SOL    HW243223   7.577   9.635   1.261
13776SOL     OW43224   2.894   2.293   5.742
13776SOL    HW143225   2.960   2.342   5.694
13776SOL    HW243226   2.917   2.305   5.834
13777SOL     OW43227  13.962  13.750  11.962
13777SOL    HW143228  14.021  13.724  12.033
13777SOL    HW243229  13.987  13.693  11.889
13778SOL     OW43230   3.512   2.761  14.680
13778SOL    HW143231   3.509   2.836  14.621
13778SOL    HW243232   3.598   2.765  14.720
13779SOL     OW43233  13.261   2.944   5.600
13779SOL    HW143234  13.299   2.924   5.514
13779SOL    HW243235  13.333   2.982   5.650
13780SOL     OW43236   5.312  13.225  13.568
13780SOL    HW143237   5.247  13.231  13.637
13780SOL    HW243238   5.394  13.253  13.609
13781SOL     OW43239   8.186   4.007   3.198
13781SOL    HW143240   8.178   4.080   3.137
13781SOL    HW243241   8.236   3.941   3.150
13782SOL     OW43242  13.518   9.492  13.907
13782SOL    HW143243  13.499   9.473  13.998
13782SOL    HW243244  13.575   9.421  13.879
13783SOL     OW43245   4.892   5.264  10.277
13783SOL    HW143246   4.873   5.300  10.363
13783SOL    HW243247   4.806   5.240  10.242
13784SOL     OW43248  12.312   5.030   1.094
13784SOL    HW143249  12.319   5.078   1.012
13784SOL    HW243250  12.370   4.954   1.083
13785SOL     OW43251   5.283  14.132   6.831
13785SOL    HW143252   5.374  14.130   6.800
13785SOL    HW243253   5.287  14.101   6.921
13786SOL     OW43254  10.093   0.366  13.329
13786SOL    HW143255  10.089   0.277  13.364
13786SOL    HW243256  10.082   0.422  13.406
13787SOL     OW43257  11.948   5.116   3.570
13787SOL    HW143258  11.933   5.092   3.479
13787SOL    HW243259  11.965   5.033   3.614
13788SOL     OW43260   3.485   0.842   1.071
13788SOL    HW143261   3.566   0.837   1.020
13788SOL    HW243262   3.418   0.866   1.008
13789SOL     OW43263  12.889   7.646   0.949
13789SOL    HW143264  12.893   7.630   1.043
13789SOL    HW243265  12.813   7.595   0.920
13790SOL     OW43266   9.804   3.172   6.374
13790SOL    HW143267   9.719   3.133   6.352
13790SOL    HW243268   9.856   3.162   6.294
13791SOL     OW43269  11.635   2.837   5.422
13791SOL    HW143270  11.640   2.772   5.492
13791SOL    HW243271  11.606   2.788   5.345
13792SOL     OW43272  10.089  13.563   6.694
13792SOL    HW143273  10.087  13.533   6.603
13792SOL    HW243274  10.058  13.654   6.690
13793SOL     OW43275   5.124   4.653  13.634
13793SOL    HW143276   5.189   4.605  13.685
13793SOL    HW243277   5.136   4.623  13.544
13794SOL     OW43278  11.854  12.252  12.317
13794SOL    HW143279  11.880  12.187  12.252
13794SOL    HW243280  11.771  12.287  12.285
13795SOL     OW43281   1.023   7.400   7.052
13795SOL    HW143282   0.936   7.427   7.025
13795SOL    HW243283   1.030   7.428   7.143
13796SOL     OW43284   6.289  11.682   5.158
13796SOL    HW143285   6.251  11.600   5.123
13796SOL    HW243286   6.353  11.707   5.092
13797SOL     OW43287  10.284  12.283   2.560
13797SOL    HW143288  10.232  12.354   2.597
13797SOL    HW243289  10.357  12.326   2.517
13798SOL     OW43290   7.217  11.155  13.879
13798SOL    HW143291   7.277  11.206  13.824
13798SOL    HW243292   7.145  11.131  13.821
13799SOL     OW43293  11.554  11.526  11.272
13799SOL    HW143294  11.617  11.458  11.297
13799SOL    HW243295  11.527  11.503  11.184
13800SOL     OW43296   0.335   4.151   5.696
13800SOL    HW143297   0.273   4.086   5.662
13800SOL    HW243298   0.323   4.147   5.791
13801SOL     OW43299  10.947  11.339   1.230
13801SOL    HW143300  10.959  11.312   1.139
13801SOL    HW243301  11.012  11.408   1.243
13802SOL     OW43302  13.699   8.490  12.287
13802SOL    HW143303  13.618   8.486  12.338
13802SOL    HW243304  13.680   8.437  12.210
13803SOL     OW43305   7.735   3.244   7.332
13803SOL    HW143306   7.815   3.268   7.285
13803SOL    HW243307   7.732   3.149   7.328
13804SOL     OW43308   0.921  14.104  14.190
13804SOL    HW143309   0.871  14.100  14.108
13804SOL    HW243310   1.010  14.079  14.165
13805SOL     OW43311   0.606   6.043   7.641
13805SOL    HW143312   0.547   6.041   7.566
13805SOL    HW243313   0.681   6.094   7.610
13806SOL     OW43314  13.895   2.059  11.210
13806SOL    HW143315  13.845   1.996  11.261
13806SOL    HW243316  13.835   2.089  11.142
13807SOL     OW43317   9.570  10.429  12.522
13807SOL    HW143318   9.655  10.422  12.480
13807SOL    HW243319   9.507  10.425  12.450
13808SOL     OW43320   6.440  12.514  13.022
13808SOL    HW143321   6.527  12.529  12.985
13808SOL    HW243322   6.403  12.446  12.966
13809SOL     OW43323  13.647  10.550  14.591
13809SOL    HW143324  13.653  10.460  14.626
13809SOL    HW243325  13.735  10.571  14.563
13810SOL     OW43326   2.424   5.071   2.776
13810SOL    HW143327   2.425   5.146   2.717
13810SOL    HW243328   2.333   5.042   2.776
13811SOL     OW43329  12.842   8.185  13.377
13811SOL    HW143330  12.898   8.196  13.301
13811SOL    HW243331  12.777   8.255  13.370
13812SOL     OW43332   8.388   8.269   7.901
13812SOL    HW143333   8.372   8.183   7.939
13812SOL    HW243334   8.349   8.331   7.963
13813SOL     OW43335   1.236  14.402  12.267
13813SOL    HW143336   1.325  14.382  12.296
13813SOL    HW243337   1.246  14.473  12.203
13814SOL     OW43338   9.144   3.266   9.228
13814SOL    HW143339   9.139   3.181   9.272
13814SOL    HW243340   9.183   3.247   9.143
13815SOL     OW43341   1.389   8.096   6.537
13815SOL    HW143342   1.409   8.190   6.541
13815SOL    HW243343   1.471   8.054   6.562
13816SOL     OW43344   6.919   6.373   2.918
13816SOL    HW143345   6.902   6.404   3.007
13816SOL    HW243346   6.954   6.284   2.930
13817SOL     OW43347  10.052  14.836   0.948
13817SOL    HW143348  10.122  14.817   1.012
13817SOL    HW243349   9.974  14.795   0.985
13818SOL     OW43350  14.496  11.794  10.973
13818SOL    HW143351  14.423  11.855  10.987
13818SOL    HW243352  14.546  11.797  11.054
13819SOL     OW43353   8.648  14.405  14.386
13819SOL    HW143354   8.599  14.456  14.321
13819SOL    HW243355   8.707  14.350  14.333
13820SOL     OW43356  14.339   1.921  13.452
13820SOL    HW143357  14.411   1.879  13.405
13820SOL    HW243358  14.334   2.009  13.413
13821SOL     OW43359  12.225   5.387   1.652
13821SOL    HW143360  12.170   5.345   1.587
13821SOL    HW243361  12.294   5.431   1.601
13822SOL     OW43362   7.148  14.878  12.285
13822SOL    HW143363   7.164   0.006  12.191
13822SOL    HW243364   7.119   0.085  12.312
13823SOL     OW43365  11.150  12.772   0.798
13823SOL    HW143366  11.127  12.855   0.758
13823SOL    HW243367  11.108  12.774   0.884
13824SOL     OW43368   0.669   4.744   0.342
13824SOL    HW143369   0.756   4.729   0.305
13824SOL    HW243370   0.622   4.792   0.274
13825SOL     OW43371  11.828  13.372  10.450
13825SOL    HW143372  11.859  13.316  10.379
13825SOL    HW243373  11.736  13.389  10.430
13826SOL     OW43374   5.705   7.290   4.722
13826SOL    HW143375   5.731   7.346   4.796
13826SOL    HW243376   5.644   7.344   4.672
13827SOL     OW43377   5.900  11.132   9.387
13827SOL    HW143378   5.967  11.064   9.390
13827SOL    HW243379   5.864  11.134   9.476
13828SOL     OW43380  11.594   6.166   6.266
13828SOL    HW143381  11.640   6.092   6.307
13828SOL    HW243382  11.570   6.223   6.339
13829SOL     OW43383  13.370   6.512  12.346
13829SOL    HW143384  13.330   6.474  12.268
13829SOL    HW243385  13.428   6.444  12.379
13830SOL     OW43386  13.978  10.563   9.452
13830SOL    HW143387  13.884  10.571   9.435
13830SOL    HW243388  13.984  10.542   9.545
13831SOL     OW43389   6.441   6.902  13.560
13831SOL    HW143390   6.420   6.819  13.516
13831SOL    HW243391   6.523   6.884  13.606
13832SOL     OW43392   8.386   9.855   0.421
13832SOL    HW143393   8.455   9.792   0.444
13832SOL    HW243394   8.371   9.840   0.327
13833SOL     OW43395   5.143  13.694   4.329
13833SOL    HW143396   5.159  13.772   4.276
13833SOL    HW243397   5.225  13.678   4.375
13834SOL     OW43398   2.492   3.741   3.736
13834SOL    HW143399   2.485   3.658   3.690
13834SOL    HW243400   2.404   3.756   3.772
13835SOL     OW43401   1.268   5.778   7.689
13835SOL    HW143402   1.228   5.729   7.618
13835SOL    HW243403   1.200   5.781   7.757
13836SOL     OW43404   2.852   4.631  13.664
13836SOL    HW143405   2.777   4.615  13.607
13836SOL    HW243406   2.847   4.724  13.686
13837SOL     OW43407   2.800   1.149   5.188
13837SOL    HW143408   2.805   1.206   5.265
13837SOL    HW243409   2.807   1.061   5.223
13838SOL     OW43410  14.210   1.982   3.260
13838SOL    HW143411  14.197   1.919   3.190
13838SOL    HW243412  14.281   1.945   3.313
13839SOL     OW43413   4.676   8.772  14.068
13839SOL    HW143414   4.588   8.766  14.030
13839SOL    HW243415   4.733   8.731  14.003
13840SOL     OW43416   6.996  14.330  13.998
13840SOL    HW143417   6.982  14.380  13.917
13840SOL    HW243418   6.913  14.284  14.012
13841SOL     OW43419  12.109   6.023   1.771
13841SOL    HW143420  12.107   6.102   1.825
13841SOL    HW243421  12.039   6.035   1.707
13842SOL     OW43422   4.871  14.012  12.659
13842SOL    HW143423   4.885  13.968  12.743
13842SOL    HW243424   4.828  13.946  12.605
13843SOL     OW43425   0.899   9.387  10.216
13843SOL    HW143426   0.841   9.341  10.276
13843SOL    HW243427   0.858   9.472  10.204
13844SOL     OW43428   1.538   5.611   4.726
13844SOL    HW143429   1.486   5.532   4.711
13844SOL    HW243430   1.535   5.658   4.642
13845SOL     OW43431   5.337  10.259   4.740
13845SOL    HW143432   5.253  10.216   4.728
13845SOL    HW243433   5.325  10.347   4.702
13846SOL     OW43434  14.829   6.559   6.728
13846SOL    HW143435   0.041   6.546   6.751
13846SOL    HW243436  14.823   6.651   6.703
13847SOL     OW43437   8.054   4.146   2.596
13847SOL    HW143438   8.074   4.058   2.565
13847SOL    HW243439   8.131   4.198   2.573
13848SOL     OW43440   7.255   8.233  13.045
13848SOL    HW143441   7.245   8.327  13.059
13848SOL    HW243442   7.349   8.221  13.028
13849SOL     OW43443   9.018   4.390   2.134
13849SOL    HW143444   9.101   4.363   2.174
13849SOL    HW243445   9.042   4.462   2.075
13850SOL     OW43446  12.654   5.055  10.515
13850SOL    HW143447  12.723   5.077  10.578
13850SOL    HW243448  12.595   4.997  10.562
13851SOL     OW43449   0.799  11.042   9.967
13851SOL    HW143450   0.884  11.083   9.978
13851SOL    HW243451   0.796  10.974  10.033
13852SOL     OW43452   7.654  12.743   6.845
13852SOL    HW143453   7.736  12.706   6.876
13852SOL    HW243454   7.679  12.826   6.804
13853SOL     OW43455   8.095  10.689   8.365
13853SOL    HW143456   8.123  10.669   8.275
13853SOL    HW243457   8.174  10.723   8.407
13854SOL     OW43458  14.098  11.389  10.496
13854SOL    HW143459  14.076  11.395  10.589
13854SOL    HW243460  14.038  11.450  10.452
13855SOL     OW43461   6.296   6.012  14.771
13855SOL    HW143462   6.368   6.012  14.834
13855SOL    HW243463   6.220   5.984  14.822
13856SOL     OW43464   1.098  10.310  12.650
13856SOL    HW143465   1.083  10.278  12.739
13856SOL    HW243466   1.142  10.394  12.661
13857SOL     OW43467  12.718  12.734   8.809
13857SOL    HW143468  12.810  12.718   8.826
13857SOL    HW243469  12.716  12.789   8.730
13858SOL     OW43470   9.432  13.353   0.517
13858SOL    HW143471   9.428  13.361   0.422
13858SOL    HW243472   9.523  13.374   0.538
13859SOL     OW43473   7.484  14.579   3.740
13859SOL    HW143474   7.569  14.608   3.707
13859SOL    HW243475   7.504  14.535   3.823
13860SOL     OW43476   0.715   0.438   6.041
13860SOL    HW143477   0.660   0.499   5.992
13860SOL    HW243478   0.727   0.481   6.126
13861SOL     OW43479   0.675   3.913   4.956
13861SOL    HW143480   0.622   3.888   4.881
13861SOL    HW243481   0.760   3.871   4.941
13862SOL     OW43482  11.777   9.204  12.460
13862SOL    HW143483  11.808   9.124  12.501
13862SOL    HW243484  11.681   9.196  12.461
13863SOL     OW43485  13.812   4.206   0.307
13863SOL    HW143486  13.835   4.210   0.215
13863SOL    HW243487  13.770   4.291   0.325
13864SOL     OW43488   1.112   7.088   2.180
13864SOL    HW143489   1.105   7.098   2.085
13864SOL    HW243490   1.100   7.177   2.213
13865SOL     OW43491  10.389   4.363   6.225
13865SOL    HW143492  10.431   4.371   6.311
13865SOL    HW243493  10.335   4.284   6.232
13866SOL     OW43494   1.217  11.783   3.194
13866SOL    HW143495   1.211  11.688   3.199
13866SOL    HW243496   1.207  11.802   3.100
13867SOL     OW43497   4.491  10.327   3.925
13867SOL    HW143498   4.543  10.262   3.877
13867SOL    HW243499   4.442  10.276   3.989
13868SOL     OW43500   2.457  12.212  12.067
13868SOL    HW143501   2.501  12.223  12.151
13868SOL    HW243502   2.525  12.227  12.002
13869SOL     OW43503   2.134   4.505   1.042
13869SOL    HW143504   2.075   4.556   0.986
13869SOL    HW243505   2.135   4.552   1.125
13870SOL     OW43506   8.703   1.159   9.868
13870SOL    HW143507   8.702   1.068   9.896
13870SOL    HW243508   8.694   1.209   9.949
13871SOL     OW43509   0.095   8.851   6.806
13871SOL    HW143510   0.038   8.777   6.828
13871SOL    HW243511   0.176   8.811   6.776
13872SOL     OW43512   3.533  14.323  10.605
13872SOL    HW143513   3.610  14.277  10.639
13872SOL    HW243514   3.523  14.399  10.662
13873SOL     OW43515   6.523   7.268   3.405
13873SOL    HW143516   6.618   7.263   3.406
13873SOL    HW243517   6.501   7.339   3.465
13874SOL     OW43518   9.318   8.086  12.827
13874SOL    HW143519   9.296   8.032  12.751
13874SOL    HW243520   9.413   8.099  12.820
13875SOL     OW43521   5.326   8.380   7.997
13875SOL    HW143522   5.349   8.468   7.968
13875SOL    HW243523   5.353   8.376   8.089
13876SOL     OW43524  10.402   0.948   1.008
13876SOL    HW143525  10.447   0.875   1.049
13876SOL    HW243526  10.402   0.928   0.915
13877SOL     OW43527   5.210  14.107  11.978
13877SOL    HW143528   5.147  14.040  12.007
13877SOL    HW243529   5.190  14.120  11.886
13878SOL     OW43530   1.094   3.458  12.714
13878SOL    HW143531   1.149   3.488  12.786
13878SOL    HW243532   1.007   3.447  12.754
13879SOL     OW43533   1.070   7.854   6.054
13879SOL    HW143534   1.030   7.845   6.141
13879SOL    HW243535   1.007   7.814   5.994
13880SOL     OW43536   8.921   4.663   3.552
13880SOL    HW143537   8.909   4.573   3.522
13880SOL    HW243538   8.859   4.714   3.499
13881SOL     OW43539   7.461   3.305  13.290
13881SOL    HW143540   7.449   3.398  13.308
13881SOL    HW243541   7.525   3.302  13.219
13882SOL     OW43542  13.078   0.760   7.544
13882SOL    HW143543  13.173   0.761   7.552
13882SOL    HW243544  13.052   0.674   7.577
13883SOL     OW43545  11.452  13.639  11.742
13883SOL    HW143546  11.486  13.728  11.737
13883SOL    HW243547  11.471  13.610  11.831
13884SOL     OW43548   1.097  13.400   6.273
13884SOL    HW143549   1.007  13.431   6.276
13884SOL    HW243550   1.098  13.336   6.202
13885SOL     OW43551   2.911  11.950   9.900
13885SOL    HW143552   2.829  11.924   9.858
13885SOL    HW243553   2.911  12.046   9.898
13886SOL     OW43554  14.456  13.980   0.697
13886SOL    HW143555  14.384  14.009   0.640
13886SOL    HW243556  14.527  14.040   0.678
13887SOL     OW43557  12.545   1.202  14.196
13887SOL    HW143558  12.511   1.291  14.203
13887SOL    HW243559  12.529   1.162  14.281
13888SOL     OW43560   4.333   1.270   2.194
13888SOL    HW143561   4.274   1.222   2.137
13888SOL    HW243562   4.366   1.342   2.140
13889SOL     OW43563   6.988   9.630   2.913
13889SOL    HW143564   7.045   9.596   2.844
13889SOL    HW243565   6.983   9.724   2.897
13890SOL     OW43566   2.247   3.300   6.017
13890SOL    HW143567   2.341   3.281   6.021
13890SOL    HW243568   2.222   3.313   6.109
13891SOL     OW43569   7.324   2.511   2.638
13891SOL    HW143570   7.283   2.522   2.552
13891SOL    HW243571   7.406   2.467   2.619
13892SOL     OW43572   5.247   6.453   7.705
13892SOL    HW143573   5.235   6.358   7.703
13892SOL    HW243574   5.318   6.467   7.767
13893SOL     OW43575   8.639   3.815   6.575
13893SOL    HW143576   8.604   3.904   6.581
13893SOL    HW243577   8.622   3.790   6.484
13894SOL     OW43578   1.956   4.233  12.879
13894SOL    HW143579   2.029   4.171  12.874
13894SOL    HW243580   1.885   4.182  12.918
13895SOL     OW43581   7.836  14.120   9.656
13895SOL    HW143582   7.767  14.170   9.614
13895SOL    HW243583   7.916  14.171   9.640
13896SOL     OW43584   7.850  10.368   5.527
13896SOL    HW143585   7.828  10.348   5.436
13896SOL    HW243586   7.916  10.303   5.550
13897SOL     OW43587   7.284  14.267  13.025
13897SOL    HW143588   7.202  14.272  12.976
13897SOL    HW243589   7.349  14.303  12.965
13898SOL     OW43590   3.436   6.863   3.404
13898SOL    HW143591   3.515   6.826   3.444
13898SOL    HW243592   3.369   6.795   3.414
13899SOL     OW43593   5.117  12.387   4.270
13899SOL    HW143594   5.197  12.435   4.291
13899SOL    HW243595   5.140  12.295   4.278
13900SOL     OW43596  14.809  10.230  13.651
13900SOL    HW143597  14.876  10.202  13.588
13900SOL    HW243598  14.753  10.153  13.662
13901SOL     OW43599  13.159   4.064   7.599
13901SOL    HW143600  13.150   3.986   7.545
13901SOL    HW243601  13.104   4.130   7.558
13902SOL     OW43602  12.079  11.587  13.757
13902SOL    HW143603  12.143  11.529  13.716
13902SOL    HW243604  12.063  11.548  13.843
13903SOL     OW43605   5.529  10.289   1.938
13903SOL    HW143606   5.555  10.211   1.890
13903SOL    HW243607   5.455  10.261   1.992
13904SOL     OW43608   1.087   0.690   2.338
13904SOL    HW143609   1.098   0.621   2.273
13904SOL    HW243610   0.994   0.688   2.360
13905SOL     OW43611   8.760   1.031   6.546
13905SOL    HW143612   8.786   1.115   6.584
13905SOL    HW243613   8.668   1.021   6.571
13906SOL     OW43614  10.411   5.105   1.936
13906SOL    HW143615  10.340   5.158   1.900
13906SOL    HW243616  10.367   5.040   1.990
13907SOL     OW43617  10.049   0.980   8.292
13907SOL    HW143618  10.127   0.924   8.282
13907SOL    HW243619  10.042   0.994   8.387
13908SOL     OW43620   4.687   1.369   7.675
13908SOL    HW143621   4.773   1.387   7.712
13908SOL    HW243622   4.626   1.376   7.749
13909SOL     OW43623   7.498  14.034   6.272
13909SOL    HW143624   7.583  14.060   6.237
13909SOL    HW243625   7.437  14.101   6.239
13910SOL     OW43626   5.319  10.766   2.289
13910SOL    HW143627   5.300  10.685   2.336
13910SOL    HW243628   5.330  10.739   2.198
13911SOL     OW43629  10.540  12.600   2.830
13911SOL    HW143630  10.480  12.672   2.813
13911SOL    HW243631  10.534  12.586   2.924
13912SOL     OW43632   7.156   3.072   5.293
13912SOL    HW143633   7.138   3.014   5.367
13912SOL    HW243634   7.085   3.136   5.296
13913SOL     OW43635   4.408   5.908  11.936
13913SOL    HW143636   4.497   5.919  11.969
13913SOL    HW243637   4.351   5.917  12.013
13914SOL     OW43638   7.842   2.607  12.415
13914SOL    HW143639   7.754   2.573  12.399
13914SOL    HW243640   7.837   2.700  12.393
13915SOL     OW43641   5.531  12.961  11.421
13915SOL    HW143642   5.474  13.020  11.371
13915SOL    HW243643   5.546  12.887  11.362
13916SOL     OW43644   5.919   9.539   4.961
13916SOL    HW143645   5.958   9.618   4.925
13916SOL    HW243646   5.863   9.570   5.032
13917SOL     OW43647   6.588  10.208   4.015
13917SOL    HW143648   6.506  10.257   4.016
13917SOL    HW243649   6.583  10.156   3.934
13918SOL     OW43650   1.778   3.186   5.388
13918SOL    HW143651   1.874   3.190   5.395
13918SOL    HW243652   1.757   3.254   5.324
13919SOL     OW43653  11.586  11.397  10.086
13919SOL    HW143654  11.543  11.313  10.106
13919SOL    HW243655  11.679  11.379  10.099
13920SOL     OW43656   3.462  13.391   0.227
13920SOL    HW143657   3.463  13.469   0.172
13920SOL    HW243658   3.369  13.374   0.243
13921SOL     OW43659   5.469   1.726  14.445
13921SOL    HW143660   5.527   1.776  14.502
13921SOL    HW243661   5.474   1.772  14.361
13922SOL     OW43662  13.711  14.571  13.534
13922SOL    HW143663  13.710  14.647  13.476
13922SOL    HW243664  13.802  14.565  13.563
13923SOL     OW43665  13.152   1.484  12.563
13923SOL    HW143666  13.185   1.433  12.636
13923SOL    HW243667  13.073   1.437  12.535
13924SOL     OW43668   6.401  13.441   3.553
13924SOL    HW143669   6.425  13.399   3.471
13924SOL    HW243670   6.384  13.532   3.530
13925SOL     OW43671  10.287  10.292   2.434
13925SOL    HW143672  10.247  10.320   2.517
13925SOL    HW243673  10.214  10.255   2.384
13926SOL     OW43674  13.018  13.691  12.539
13926SOL    HW143675  12.945  13.746  12.566
13926SOL    HW243676  13.022  13.702  12.444
13927SOL     OW43677   6.375   3.279   3.747
13927SOL    HW143678   6.465   3.250   3.731
13927SOL    HW243679   6.381   3.374   3.753
13928SOL     OW43680   1.171   8.013   5.722
13928SOL    HW143681   1.247   7.969   5.761
13928SOL    HW243682   1.207   8.092   5.682
13929SOL     OW43683   9.406  11.161   1.115
13929SOL    HW143684   9.496  11.190   1.101
13929SOL    HW243685   9.412  11.067   1.127
13930SOL     OW43686   6.590  13.089   8.900
13930SOL    HW143687   6.501  13.117   8.879
13930SOL    HW243688   6.583  12.995   8.915
13931SOL     OW43689   3.302   5.845   1.285
13931SOL    HW143690   3.273   5.916   1.342
13931SOL    HW243691   3.352   5.888   1.216
13932SOL     OW43692  14.831   5.093  11.943
13932SOL    HW143693   0.017   5.103  12.012
13932SOL    HW243694   0.002   5.081  11.863
13933SOL     OW43695   2.199  13.462  10.273
13933SOL    HW143696   2.249  13.425  10.200
13933SOL    HW243697   2.113  13.482  10.236
13934SOL     OW43698   6.946   2.913  12.480
13934SOL    HW143699   6.875   2.964  12.519
13934SOL    HW243700   7.006   2.895  12.553
13935SOL     OW43701   6.552   3.747   4.277
13935SOL    HW143702   6.623   3.683   4.285
13935SOL    HW243703   6.477   3.704   4.319
13936SOL     OW43704   1.602   6.419   3.358
13936SOL    HW143705   1.685   6.408   3.406
13936SOL    HW243706   1.622   6.392   3.269
13937SOL     OW43707   1.709   5.001   6.305
13937SOL    HW143708   1.652   5.074   6.282
13937SOL    HW243709   1.733   4.962   6.221
13938SOL     OW43710  10.160  10.830   8.540
13938SOL    HW143711  10.247  10.795   8.561
13938SOL    HW243712  10.099  10.766   8.575
13939SOL     OW43713   9.991  12.259  11.637
13939SOL    HW143714   9.972  12.168  11.660
13939SOL    HW243715   9.925  12.282  11.573
13940SOL     OW43716  10.113   6.550   8.524
13940SOL    HW143717  10.167   6.553   8.603
13940SOL    HW243718  10.048   6.620   8.536
13941SOL     OW43719   3.243   5.232  11.132
13941SOL    HW143720   3.213   5.152  11.088
13941SOL    HW243721   3.260   5.293  11.061
13942SOL     OW43722   2.553   2.664   9.637
13942SOL    HW143723   2.533   2.621   9.554
13942SOL    HW243724   2.598   2.597   9.688
13943SOL     OW43725  12.549   2.425   8.275
13943SOL    HW143726  12.549   2.518   8.298
13943SOL    HW243727  12.589   2.422   8.188
13944SOL     OW43728  12.300   1.689  11.469
13944SOL    HW143729  12.285   1.735  11.387
13944SOL    HW243730  12.278   1.753  11.537
13945SOL     OW43731   4.571   4.513  14.034
13945SOL    HW143732   4.550   4.512  14.128
13945SOL    HW243733   4.657   4.472  14.028
13946SOL     OW43734   2.978   2.381  12.748
13946SOL    HW143735   3.052   2.376  12.808
13946SOL    HW243736   2.940   2.293  12.750
13947SOL     OW43737   2.867  11.505   8.235
13947SOL    HW143738   2.929  11.523   8.163
13947SOL    HW243739   2.870  11.410   8.245
13948SOL     OW43740   0.177   6.767   1.036
13948SOL    HW143741   0.139   6.853   1.021
13948SOL    HW243742   0.169   6.722   0.952
13949SOL     OW43743  10.797   9.892   3.289
13949SOL    HW143744  10.798   9.949   3.212
13949SOL    HW243745  10.876   9.839   3.280
13950SOL     OW43746   5.836   0.144   2.557
13950SOL    HW143747   5.816   0.061   2.515
13950SOL    HW243748   5.786   0.209   2.507
13951SOL     OW43749   0.987   9.063   4.126
13951SOL    HW143750   0.976   9.046   4.220
13951SOL    HW243751   0.932   8.998   4.083
13952SOL     OW43752  13.990  11.169   7.600
13952SOL    HW143753  13.931  11.137   7.667
13952SOL    HW243754  14.026  11.250   7.636
13953SOL     OW43755  12.731   9.395   4.957
13953SOL    HW143756  12.728   9.306   4.990
13953SOL    HW243757  12.822   9.422   4.967
13954SOL     OW43758  11.477   5.354   1.623
13954SOL    HW143759  11.449   5.445   1.638
13954SOL    HW243760  11.479   5.316   1.711
13955SOL     OW43761   9.147   6.265   5.414
13955SOL    HW143762   9.089   6.320   5.362
13955SOL    HW243763   9.129   6.289   5.504
13956SOL     OW43764   8.865   9.513  12.702
13956SOL    HW143765   8.953   9.544  12.724
13956SOL    HW243766   8.870   9.418  12.711
13957SOL     OW43767   1.224  10.938   7.760
13957SOL    HW143768   1.236  11.026   7.796
13957SOL    HW243769   1.142  10.907   7.798
13958SOL     OW43770   0.694   8.815   2.635
13958SOL    HW143771   0.781   8.855   2.627
13958SOL    HW243772   0.712   8.721   2.644
13959SOL     OW43773  14.792   8.004  13.828
13959SOL    HW143774  14.833   8.088  13.805
13959SOL    HW243775  14.704   8.028  13.855
13960SOL     OW43776  11.509  13.487   8.503
13960SOL    HW143777  11.572  13.415   8.506
13960SOL    HW243778  11.426  13.444   8.481
13961SOL     OW43779   9.120  14.456  11.764
13961SOL    HW143780   9.052  14.425  11.704
13961SOL    HW243781   9.194  14.479  11.708
13962SOL     OW43782   5.633   8.072  14.446
13962SOL    HW143783   5.640   8.036  14.534
13962SOL    HW243784   5.704   8.029  14.397
13963SOL     OW43785   4.564   3.713   3.148
13963SOL    HW143786   4.621   3.766   3.204
13963SOL    HW243787   4.493   3.772   3.124
13964SOL     OW43788  10.140   0.095  10.722
13964SOL    HW143789  10.074   0.156  10.756
13964SOL    HW243790  10.218   0.113  10.774
13965SOL     OW43791  10.195   5.094   3.312
13965SOL    HW143792  10.116   5.143   3.332
13965SOL    HW243793  10.253   5.111   3.387
13966SOL     OW43794   5.290  13.524   5.892
13966SOL    HW143795   5.196  13.541   5.886
13966SOL    HW243796   5.304  13.446   5.837
13967SOL     OW43797   3.139   9.421   3.291
13967SOL    HW143798   3.164   9.387   3.377
13967SOL    HW243799   3.209   9.481   3.267
13968SOL     OW43800   1.328  11.607   9.148
13968SOL    HW143801   1.273  11.684   9.134
13968SOL    HW243802   1.269  11.542   9.186
13969SOL     OW43803  11.018   5.145   4.436
13969SOL    HW143804  11.000   5.235   4.408
13969SOL    HW243805  11.021   5.150   4.531
13970SOL     OW43806   7.197   4.103  11.907
13970SOL    HW143807   7.118   4.067  11.948
13970SOL    HW243808   7.188   4.082  11.814
13971SOL     OW43809  12.451   4.788   7.896
13971SOL    HW143810  12.375   4.741   7.930
13971SOL    HW243811  12.417   4.875   7.874
13972SOL     OW43812   8.428   2.064  11.363
13972SOL    HW143813   8.457   1.979  11.396
13972SOL    HW243814   8.493   2.126  11.396
13973SOL     OW43815   7.416  12.483   8.927
13973SOL    HW143816   7.476  12.448   8.861
13973SOL    HW243817   7.359  12.410   8.949
13974SOL     OW43818   9.544   7.988   3.308
13974SOL    HW143819   9.467   7.969   3.255
13974SOL    HW243820   9.588   7.904   3.317
13975SOL     OW43821  13.570  12.432   8.586
13975SOL    HW143822  13.624  12.353   8.580
13975SOL    HW243823  13.483  12.403   8.558
13976SOL     OW43824   1.546  11.268   9.195
13976SOL    HW143825   1.607  11.301   9.261
13976SOL    HW243826   1.560  11.173   9.194
13977SOL     OW43827  10.521   0.255  10.512
13977SOL    HW143828  10.540   0.301  10.594
13977SOL    HW243829  10.528   0.162  10.534
13978SOL     OW43830   0.955  10.953   5.933
13978SOL    HW143831   1.033  10.926   5.982
13978SOL    HW243832   0.989  11.005   5.861
13979SOL     OW43833   8.246  12.793   5.692
13979SOL    HW143834   8.196  12.875   5.690
13979SOL    HW243835   8.328  12.813   5.647
13980SOL     OW43836   3.263  12.195   2.140
13980SOL    HW143837   3.209  12.252   2.195
13980SOL    HW243838   3.246  12.107   2.173
13981SOL     OW43839   7.128   3.749   3.301
13981SOL    HW143840   7.058   3.800   3.341
13981SOL    HW243841   7.205   3.767   3.355
13982SOL     OW43842   6.974   5.831   4.432
13982SOL    HW143843   6.937   5.846   4.519
13982SOL    HW243844   7.000   5.918   4.401
13983SOL     OW43845  10.789  11.168   8.794
13983SOL    HW143846  10.713  11.122   8.830
13983SOL    HW243847  10.842  11.191   8.870
13984SOL     OW43848  10.841   5.176   1.592
13984SOL    HW143849  10.885   5.101   1.633
13984SOL    HW243850  10.819   5.233   1.665
13985SOL     OW43851   9.160   9.037  12.705
13985SOL    HW143852   9.219   8.963  12.722
13985SOL    HW243853   9.087   8.998  12.657
13986SOL     OW43854   6.499  10.293  12.275
13986SOL    HW143855   6.503  10.272  12.182
13986SOL    HW243856   6.477  10.211  12.318
13987SOL     OW43857   9.930  11.448   8.586
13987SOL    HW143858   9.913  11.517   8.651
13987SOL    HW243859   9.854  11.390   8.593
13988SOL     OW43860  13.494   7.175  10.725
13988SOL    HW143861  13.426   7.139  10.782
13988SOL    HW243862  13.548   7.228  10.784
13989SOL     OW43863  11.288  10.061   3.129
13989SOL    HW143864  11.255  10.013   3.205
13989SOL    HW243865  11.364  10.110   3.163
13990SOL     OW43866  11.629   8.772   0.412
13990SOL    HW143867  11.535   8.788   0.418
13990SOL    HW243868  11.649   8.714   0.485
13991SOL     OW43869   7.364  11.293   8.493
13991SOL    HW143870   7.375  11.239   8.571
13991SOL    HW243871   7.419  11.250   8.427
13992SOL     OW43872  12.178   3.555   4.972
13992SOL    HW143873  12.227   3.588   4.897
13992SOL    HW243874  12.243   3.512   5.027
13993SOL     OW43875   9.614  12.379   7.239
13993SOL    HW143876   9.521  12.363   7.225
13993SOL    HW243877   9.658  12.305   7.197
13994SOL     OW43878   2.408  11.207  10.424
13994SOL    HW143879   2.432  11.160  10.344
13994SOL    HW243880   2.370  11.290  10.393
13995SOL     OW43881  14.035  12.939  13.124
13995SOL    HW143882  13.969  12.918  13.058
13995SOL    HW243883  13.985  12.949  13.205
13996SOL     OW43884   9.735  14.674  13.741
13996SOL    HW143885   9.702  14.591  13.705
13996SOL    HW243886   9.813  14.648  13.791
13997SOL     OW43887   1.411   9.252  14.301
13997SOL    HW143888   1.448   9.170  14.269
13997SOL    HW243889   1.434   9.316  14.234
13998SOL     OW43890   2.050  14.450   2.524
13998SOL    HW143891   2.138  14.448   2.563
13998SOL    HW243892   2.062  14.422   2.434
13999SOL     OW43893  11.167   7.833   4.788
13999SOL    HW143894  11.251   7.859   4.749
13999SOL    HW243895  11.169   7.737   4.789
14000SOL     OW43896   5.333   8.884  10.659
14000SOL    HW143897   5.247   8.901  10.697
14000SOL    HW243898   5.354   8.794  10.687
14001SOL     OW43899   4.130  13.496   2.542
14001SOL    HW143900   4.155  13.581   2.580
14001SOL    HW243901   4.059  13.465   2.598
14002SOL     OW43902   3.128  10.015   4.509
14002SOL    HW143903   3.139  10.075   4.583
14002SOL    HW243904   3.033  10.007   4.499
14003SOL     OW43905   0.756   6.649   8.639
14003SOL    HW143906   0.741   6.556   8.625
14003SOL    HW243907   0.680   6.692   8.598
14004SOL     OW43908   7.490  13.663   9.837
14004SOL    HW143909   7.481  13.729   9.768
14004SOL    HW243910   7.580  13.673   9.868
14005SOL     OW43911  14.076   1.952   2.482
14005SOL    HW143912  14.125   1.893   2.425
14005SOL    HW243913  14.139   2.018   2.510
14006SOL     OW43914   8.558   7.624  14.740
14006SOL    HW143915   8.478   7.596  14.784
14006SOL    HW243916   8.599   7.686  14.800
14007SOL     OW43917  14.367   3.237  14.178
14007SOL    HW143918  14.419   3.303  14.133
14007SOL    HW243919  14.397   3.240  14.269
14008SOL     OW43920   4.582   4.069  10.282
14008SOL    HW143921   4.612   4.055  10.372
14008SOL    HW243922   4.613   4.157  10.260
14009SOL     OW43923   2.443  13.222   6.788
14009SOL    HW143924   2.364  13.171   6.804
14009SOL    HW243925   2.500  13.202   6.862
14010SOL     OW43926  11.878   6.491  10.563
14010SOL    HW143927  11.801   6.539  10.533
14010SOL    HW243928  11.938   6.492  10.488
14011SOL     OW43929  13.896  10.118   5.427
14011SOL    HW143930  13.909  10.208   5.456
14011SOL    HW243931  13.806  10.097   5.452
14012SOL     OW43932   1.427   1.908   6.729
14012SOL    HW143933   1.406   1.911   6.823
14012SOL    HW243934   1.517   1.874   6.726
14013SOL     OW43935  12.534   2.378  12.226
14013SOL    HW143936  12.605   2.443  12.222
14013SOL    HW243937  12.460   2.426  12.262
14014SOL     OW43938   1.167  10.040  12.431
14014SOL    HW143939   1.240  10.068  12.486
14014SOL    HW243940   1.173   9.944  12.430
14015SOL     OW43941  10.329  14.828   9.185
14015SOL    HW143942  10.374  14.765   9.129
14015SOL    HW243943  10.276  14.774   9.244
14016SOL     OW43944   9.047   4.617  12.822
14016SOL    HW143945   9.093   4.699  12.842
14016SOL    HW243946   9.085   4.587  12.740
14017SOL     OW43947  11.265  12.311  12.811
14017SOL    HW143948  11.303  12.394  12.839
14017SOL    HW243949  11.340  12.255  12.793
14018SOL     OW43950   9.455  13.894   4.121
14018SOL    HW143951   9.398  13.823   4.151
14018SOL    HW243952   9.457  13.885   4.026
14019SOL     OW43953   5.223  11.581   2.739
14019SOL    HW143954   5.271  11.555   2.661
14019SOL    HW243955   5.160  11.646   2.707
14020SOL     OW43956   5.190   1.065  12.262
14020SOL    HW143957   5.104   1.098  12.237
14020SOL    HW243958   5.180   0.969  12.260
14021SOL     OW43959   6.133  13.315   6.946
14021SOL    HW143960   6.190  13.296   7.020
14021SOL    HW243961   6.050  13.274   6.968
14022SOL     OW43962  12.633   4.716   8.265
14022SOL    HW143963  12.596   4.784   8.322
14022SOL    HW243964  12.666   4.763   8.189
14023SOL     OW43965   0.336  11.015   8.022
14023SOL    HW143966   0.267  11.072   7.986
14023SOL    HW243967   0.409  11.025   7.961
14024SOL     OW43968  10.734  14.019   9.299
14024SOL    HW143969  10.748  13.932   9.262
14024SOL    HW243970  10.793  14.076   9.248
14025SOL     OW43971   5.418   3.768   3.745
14025SOL    HW143972   5.422   3.859   3.776
14025SOL    HW243973   5.330   3.739   3.768
14026SOL     OW43974   1.880  12.818   3.049
14026SOL    HW143975   1.812  12.781   3.105
14026SOL    HW243976   1.915  12.744   3.000
14027SOL     OW43977   5.891  13.971  12.208
14027SOL    HW143978   5.888  13.990  12.115
14027SOL    HW243979   5.937  14.047  12.247
14028SOL     OW43980  11.090  10.722   9.817
14028SOL    HW143981  11.180  10.709   9.845
14028SOL    HW243982  11.097  10.753   9.727
14029SOL     OW43983   2.693   1.482   2.457
14029SOL    HW143984   2.724   1.493   2.546
14029SOL    HW243985   2.760   1.430   2.414
14030SOL     OW43986   0.943  10.933   2.549
14030SOL    HW143987   0.897  11.014   2.526
14030SOL    HW243988   0.906  10.866   2.491
14031SOL     OW43989  10.236   2.414  14.175
14031SOL    HW143990  10.147   2.414  14.211
14031SOL    HW243991  10.271   2.328  14.198
14032SOL     OW43992   0.874   4.341  12.398
14032SOL    HW143993   0.826   4.421  12.417
14032SOL    HW243994   0.866   4.288  12.477
14033SOL     OW43995  10.356  14.232  14.683
14033SOL    HW143996  10.348  14.280  14.766
14033SOL    HW243997  10.387  14.145  14.708
14034SOL     OW43998   2.744   8.088   2.407
14034SOL    HW143999   2.712   8.158   2.350
14034SOL    HW244000   2.836   8.078   2.383
14035SOL     OW44001  12.878   5.406   5.421
14035SOL    HW144002  12.935   5.483   5.430
14035SOL    HW244003  12.903   5.349   5.493
14036SOL     OW44004  14.267   3.603  11.755
14036SOL    HW144005  14.345   3.640  11.711
14036SOL    HW244006  14.300   3.571  11.839
14037SOL     OW44007   3.255   6.317   2.047
14037SOL    HW144008   3.256   6.230   2.087
14037SOL    HW244009   3.336   6.320   1.995
14038SOL     OW44010   1.155  14.505  10.710
14038SOL    HW144011   1.105  14.587  10.710
14038SOL    HW244012   1.235  14.526  10.662
14039SOL     OW44013   2.353   4.045   0.552
14039SOL    HW144014   2.428   4.067   0.498
14039SOL    HW244015   2.363   4.100   0.630
14040SOL     OW44016   8.627   2.871   6.462
14040SOL    HW144017   8.629   2.814   6.538
14040SOL    HW244018   8.651   2.958   6.496
14041SOL     OW44019  11.608   6.750   1.043
14041SOL    HW144020  11.680   6.713   1.094
14041SOL    HW244021  11.574   6.821   1.096
14042SOL     OW44022  11.049   7.009  14.862
14042SOL    HW144023  10.976   7.040   0.036
14042SOL    HW244024  11.023   7.033  14.772
14043SOL     OW44025   9.961   7.263   7.481
14043SOL    HW144026   9.996   7.337   7.531
14043SOL    HW244027   9.869   7.286   7.465
14044SOL     OW44028  11.229  11.634  14.080
14044SOL    HW144029  11.250  11.562  14.140
14044SOL    HW244030  11.159  11.599  14.025
14045SOL     OW44031   7.178  11.473  12.639
14045SOL    HW144032   7.090  11.447  12.612
14045SOL    HW244033   7.190  11.431  12.724
14046SOL     OW44034   0.176   8.048   7.606
14046SOL    HW144035   0.158   8.097   7.686
14046SOL    HW244036   0.099   7.992   7.594
14047SOL     OW44037   0.957   5.392   6.025
14047SOL    HW144038   0.966   5.396   6.120
14047SOL    HW244039   0.897   5.463   6.004
14048SOL     OW44040   9.123  10.102  13.809
14048SOL    HW144041   9.178  10.103  13.887
14048SOL    HW244042   9.168  10.042  13.749
14049SOL     OW44043  13.878   1.715   0.207
14049SOL    HW144044  13.904   1.689   0.119
14049SOL    HW244045  13.935   1.663   0.265
14050SOL     OW44046   1.328  13.614   9.429
14050SOL    HW144047   1.339  13.623   9.334
14050SOL    HW244048   1.379  13.685   9.467
14051SOL     OW44049   4.377  12.130  14.353
14051SOL    HW144050   4.382  12.039  14.325
14051SOL    HW244051   4.298  12.165  14.311
14052SOL     OW44052  13.808  12.192   9.606
14052SOL    HW144053  13.872  12.138   9.560
14052SOL    HW244054  13.855  12.224   9.683
14053SOL     OW44055   3.878   8.782   1.129
14053SOL    HW144056   3.845   8.787   1.039
14053SOL    HW244057   3.971   8.803   1.122
14054SOL     OW44058  10.121  14.030   4.626
14054SOL    HW144059  10.138  13.943   4.589
14054SOL    HW244060  10.204  14.077   4.613
14055SOL     OW44061   6.245  10.002  13.827
14055SOL    HW144062   6.201   9.929  13.872
14055SOL    HW244063   6.239  10.075  13.889
14056SOL     OW44064   6.273   2.115   6.689
14056SOL    HW144065   6.262   2.165   6.608
14056SOL    HW244066   6.211   2.156   6.750
14057SOL     OW44067   7.523   0.136  14.041
14057SOL    HW144068   7.492   0.102  13.957
14057SOL    HW244069   7.596   0.078  14.064
14058SOL     OW44070  10.317  13.675   2.472
14058SOL    HW144071  10.347  13.597   2.425
14058SOL    HW244072  10.396  13.729   2.480
14059SOL     OW44073  11.239  13.217  11.289
14059SOL    HW144074  11.280  13.226  11.375
14059SOL    HW244075  11.190  13.136  11.294
14060SOL     OW44076  11.548  14.586   0.778
14060SOL    HW144077  11.491  14.618   0.848
14060SOL    HW244078  11.518  14.632   0.700
14061SOL     OW44079   3.818   1.955   2.836
14061SOL    HW144080   3.838   2.027   2.775
14061SOL    HW244081   3.901   1.940   2.882
14062SOL     OW44082   7.193  12.094   3.868
14062SOL    HW144083   7.195  12.124   3.959
14062SOL    HW244084   7.281  12.059   3.853
14063SOL     OW44085  11.439   3.373  10.271
14063SOL    HW144086  11.418   3.380  10.178
14063SOL    HW244087  11.381   3.436  10.314
14064SOL     OW44088   4.037  10.060   3.823
14064SOL    HW144089   4.092  10.139   3.828
14064SOL    HW244090   4.099   9.987   3.833
14065SOL     OW44091   1.848   0.934   5.006
14065SOL    HW144092   1.766   0.946   5.053
14065SOL    HW244093   1.875   1.024   4.983
14066SOL     OW44094   8.012   8.268  11.404
14066SOL    HW144095   8.087   8.307  11.450
14066SOL    HW244096   8.013   8.310  11.318
14067SOL     OW44097  10.811   8.117  14.052
14067SOL    HW144098  10.833   8.200  14.094
14067SOL    HW244099  10.826   8.133  13.959
14068SOL     OW44100  11.657   5.588   7.177
14068SOL    HW144101  11.608   5.506   7.176
14068SOL    HW244102  11.731   5.573   7.118
14069SOL     OW44103   0.611  14.174  14.435
14069SOL    HW144104   0.701  14.156  14.461
14069SOL    HW244105   0.569  14.207  14.515
14070SOL     OW44106   0.167   2.587   5.902
14070SOL    HW144107   0.159   2.683   5.905
14070SOL    HW244108   0.193   2.569   5.812
14071SOL     OW44109   1.843   6.666   5.858
14071SOL    HW144110   1.853   6.591   5.799
14071SOL    HW244111   1.853   6.629   5.946
14072SOL     OW44112   7.930   9.423   6.812
14072SOL    HW144113   7.866   9.391   6.749
14072SOL    HW244114   7.951   9.347   6.866
14073SOL     OW44115   5.577  14.064   3.474
14073SOL    HW144116   5.488  14.079   3.505
14073SOL    HW244117   5.586  13.969   3.469
14074SOL     OW44118  13.291   4.836   7.963
14074SOL    HW144119  13.257   4.825   7.874
14074SOL    HW244120  13.346   4.760   7.978
14075SOL     OW44121   5.386   2.818  14.035
14075SOL    HW144122   5.389   2.749  13.969
14075SOL    HW244123   5.301   2.806  14.078
14076SOL     OW44124  13.639  11.503   3.523
14076SOL    HW144125  13.625  11.513   3.617
14076SOL    HW244126  13.732  11.482   3.515
14077SOL     OW44127   2.434   1.372   5.903
14077SOL    HW144128   2.385   1.454   5.910
14077SOL    HW244129   2.408   1.322   5.980
14078SOL     OW44130  11.999   7.571   4.414
14078SOL    HW144131  12.086   7.533   4.397
14078SOL    HW244132  11.964   7.591   4.328
14079SOL     OW44133  12.263   4.702   1.403
14079SOL    HW144134  12.263   4.771   1.469
14079SOL    HW244135  12.218   4.629   1.445
14080SOL     OW44136   9.904   4.060  13.393
14080SOL    HW144137   9.888   3.967  13.378
14080SOL    HW244138   9.825   4.104  13.364
14081SOL     OW44139  12.054   0.766   9.770
14081SOL    HW144140  12.089   0.848   9.804
14081SOL    HW244141  12.024   0.787   9.682
14082SOL     OW44142  12.654  12.666  10.037
14082SOL    HW144143  12.690  12.666  10.126
14082SOL    HW244144  12.561  12.684  10.049
14083SOL     OW44145   3.058   0.410   1.774
14083SOL    HW144146   3.021   0.497   1.789
14083SOL    HW244147   3.081   0.409   1.681
14084SOL     OW44148   7.759   6.814  12.554
14084SOL    HW144149   7.797   6.800  12.467
14084SOL    HW244150   7.665   6.801  12.541
14085SOL     OW44151   6.787   6.750   9.988
14085SOL    HW144152   6.863   6.773  10.041
14085SOL    HW244153   6.737   6.831   9.980
14086SOL     OW44154  11.457   5.897   1.548
14086SOL    HW144155  11.479   5.912   1.456
14086SOL    HW244156  11.426   5.982   1.579
14087SOL     OW44157   9.159   6.364   4.615
14087SOL    HW144158   9.154   6.440   4.673
14087SOL    HW244159   9.128   6.290   4.668
14088SOL     OW44160  10.599   2.663   0.451
14088SOL    HW144161  10.542   2.594   0.483
14088SOL    HW244162  10.552   2.702   0.377
14089SOL     OW44163   1.742  11.517  11.182
14089SOL    HW144164   1.696  11.532  11.099
14089SOL    HW244165   1.681  11.547  11.249
14090SOL     OW44166  13.361   1.219   8.915
14090SOL    HW144167  13.354   1.250   9.005
14090SOL    HW244168  13.276   1.237   8.876
14091SOL     OW44169  13.496   9.072   6.736
14091SOL    HW144170  13.475   8.998   6.679
14091SOL    HW244171  13.448   9.054   6.817
14092SOL     OW44172   6.793   0.311   1.386
14092SOL    HW144173   6.772   0.263   1.306
14092SOL    HW244174   6.795   0.244   1.455
14093SOL     OW44175   6.010  10.265   1.776
14093SOL    HW144176   6.066  10.330   1.734
14093SOL    HW244177   6.005  10.292   1.867
14094SOL     OW44178   5.212   9.356  12.074
14094SOL    HW144179   5.249   9.347  11.986
14094SOL    HW244180   5.193   9.267  12.102
14095SOL     OW44181   3.114  10.558   9.135
14095SOL    HW144182   3.126  10.651   9.116
14095SOL    HW244183   3.021  10.551   9.159
14096SOL     OW44184   6.443   4.512   2.091
14096SOL    HW144185   6.504   4.502   2.018
14096SOL    HW244186   6.358   4.529   2.050
14097SOL     OW44187   1.984   5.187  13.975
14097SOL    HW144188   2.058   5.160  13.921
14097SOL    HW244189   1.951   5.266  13.932
14098SOL     OW44190   5.947   3.992   0.010
14098SOL    HW144191   5.982   4.081   0.017
14098SOL    HW244192   5.940   3.976  14.795
14099SOL     OW44193  11.361  13.916  14.485
14099SOL    HW144194  11.271  13.935  14.457
14099SOL    HW244195  11.365  13.948  14.575
14100SOL     OW44196   7.993   5.562   5.712
14100SOL    HW144197   8.069   5.615   5.690
14100SOL    HW244198   8.029   5.483   5.752
14101SOL     OW44199   5.494   8.514   3.282
14101SOL    HW144200   5.451   8.584   3.233
14101SOL    HW244201   5.447   8.434   3.257
14102SOL     OW44202   4.594   1.631   2.988
14102SOL    HW144203   4.516   1.642   3.042
14102SOL    HW244204   4.594   1.539   2.963
14103SOL     OW44205  11.722  10.825   2.600
14103SOL    HW144206  11.758  10.898   2.551
14103SOL    HW244207  11.749  10.747   2.551
14104SOL     OW44208  14.583   5.861   7.510
14104SOL    HW144209  14.523   5.787   7.502
14104SOL    HW244210  14.658   5.837   7.455
14105SOL     OW44211   8.834  10.023   0.243
14105SOL    HW144212   8.757  10.025   0.185
14105SOL    HW244213   8.797  10.028   0.331
14106SOL     OW44214   5.345   2.631   2.914
14106SOL    HW144215   5.392   2.702   2.957
14106SOL    HW244216   5.387   2.623   2.828
14107SOL     OW44217   5.823   4.328   1.802
14107SOL    HW144218   5.853   4.246   1.842
14107SOL    HW244219   5.844   4.319   1.710
14108SOL     OW44220   9.823  14.008   0.233
14108SOL    HW144221   9.827  14.104   0.231
14108SOL    HW244222   9.730  13.988   0.241
14109SOL     OW44223  13.595  12.413   0.386
14109SOL    HW144224  13.524  12.455   0.435
14109SOL    HW244225  13.655  12.384   0.454
14110SOL     OW44226  13.122   5.884   0.970
14110SOL    HW144227  13.076   5.830   1.034
14110SOL    HW244228  13.213   5.880   0.996
14111SOL     OW44229   7.471  10.783   7.192
14111SOL    HW144230   7.547  10.774   7.135
14111SOL    HW244231   7.453  10.877   7.194
14112SOL     OW44232   9.028   9.581   3.502
14112SOL    HW144233   8.946   9.534   3.512
14112SOL    HW244234   9.027   9.612   3.411
14113SOL     OW44235   8.807   8.974  13.156
14113SOL    HW144236   8.721   8.974  13.115
14113SOL    HW244237   8.799   9.035  13.229
14114SOL     OW44238  14.032   9.867  10.162
14114SOL    HW144239  14.060   9.777  10.145
14114SOL    HW244240  14.109   9.920  10.144
14115SOL     OW44241   9.715   0.800  13.579
14115SOL    HW144242   9.650   0.731  13.566
14115SOL    HW244243   9.688   0.869  13.518
14116SOL     OW44244   1.523   0.265  13.549
14116SOL    HW144245   1.428   0.272  13.539
14116SOL    HW244246   1.537   0.180  13.591
14117SOL     OW44247   0.702   7.968   2.784
14117SOL    HW144248   0.750   7.996   2.862
14117SOL    HW244249   0.763   7.985   2.712
14118SOL     OW44250  10.134   7.630   1.435
14118SOL    HW144251  10.204   7.568   1.454
14118SOL    HW244252  10.063   7.576   1.399
14119SOL     OW44253   4.253   7.444  14.065
14119SOL    HW144254   4.317   7.399  14.010
14119SOL    HW244255   4.234   7.526  14.018
14120SOL     OW44256  10.588   0.611   3.642
14120SOL    HW144257  10.598   0.683   3.580
14120SOL    HW244258  10.538   0.648   3.714
14121SOL     OW44259  11.144  13.016  11.681
14121SOL    HW144260  11.154  12.926  11.713
14121SOL    HW244261  11.143  13.069  11.761
14122SOL     OW44262   4.330   2.592   7.412
14122SOL    HW144263   4.284   2.672   7.387
14122SOL    HW244264   4.316   2.585   7.506
14123SOL     OW44265   0.242   1.305   4.830
14123SOL    HW144266   0.196   1.386   4.854
14123SOL    HW244267   0.193   1.271   4.755
14124SOL     OW44268  11.178  14.126  12.819
14124SOL    HW144269  11.197  14.183  12.745
14124SOL    HW244270  11.142  14.184  12.886
14125SOL     OW44271   3.067   2.922  13.864
14125SOL    HW144272   3.117   2.845  13.836
14125SOL    HW244273   3.008   2.939  13.791
14126SOL     OW44274  10.837  14.682   3.575
14126SOL    HW144275  10.749  14.646   3.562
14126SOL    HW244276  10.835  14.767   3.532
14127SOL     OW44277   5.941   5.311  11.923
14127SOL    HW144278   5.932   5.227  11.879
14127SOL    HW244279   5.894   5.301  12.006
14128SOL     OW44280   2.151  11.001   1.748
14128SOL    HW144281   2.205  10.961   1.681
14128SOL    HW244282   2.072  10.946   1.752
14129SOL     OW44283  12.114   2.131  14.221
14129SOL    HW144284  12.135   2.220  14.252
14129SOL    HW244285  12.116   2.077  14.300
14130SOL     OW44286   3.359   6.628   8.179
14130SOL    HW144287   3.401   6.633   8.092
14130SOL    HW244288   3.267   6.644   8.161
14131SOL     OW44289  14.317   2.987   2.786
14131SOL    HW144290  14.264   2.922   2.833
14131SOL    HW244291  14.407   2.970   2.816
14132SOL     OW44292  12.172  10.833   0.981
14132SOL    HW144293  12.157  10.846   0.888
14132SOL    HW244294  12.132  10.747   1.000
14133SOL     OW44295  11.698   7.741   3.995
14133SOL    HW144296  11.710   7.655   3.955
14133SOL    HW244297  11.712   7.803   3.923
14134SOL     OW44298   2.261   7.669   3.900
14134SOL    HW144299   2.288   7.637   3.814
14134SOL    HW244300   2.297   7.758   3.905
14135SOL     OW44301  13.326   3.702   8.545
14135SOL    HW144302  13.238   3.733   8.524
14135SOL    HW244303  13.384   3.773   8.517
14136SOL     OW44304   6.652   9.348   3.402
14136SOL    HW144305   6.607   9.407   3.462
14136SOL    HW244306   6.741   9.383   3.397
14137SOL     OW44307   7.572   6.279  10.967
14137SOL    HW144308   7.572   6.195  11.012
14137SOL    HW244309   7.616   6.339  11.028
14138SOL     OW44310   2.472   8.391   0.373
14138SOL    HW144311   2.526   8.311   0.371
14138SOL    HW244312   2.533   8.461   0.352
14139SOL     OW44313   6.503   7.983   3.074
14139SOL    HW144314   6.468   7.946   2.993
14139SOL    HW244315   6.559   7.915   3.109
14140SOL     OW44316  10.351  12.280   3.005
14140SOL    HW144317  10.283  12.282   2.937
14140SOL    HW244318  10.363  12.371   3.030
14141SOL     OW44319   7.903  14.507  14.222
14141SOL    HW144320   7.835  14.550  14.273
14141SOL    HW244321   7.857  14.473  14.145
14142SOL     OW44322  10.904   4.984   1.862
14142SOL    HW144323  10.817   5.023   1.854
14142SOL    HW244324  10.944   5.027   1.937
14143SOL     OW44325   0.220   8.311   8.089
14143SOL    HW144326   0.289   8.351   8.035
14143SOL    HW244327   0.182   8.244   8.033
14144SOL     OW44328   0.627   9.570   0.372
14144SOL    HW144329   0.637   9.602   0.462
14144SOL    HW244330   0.566   9.631   0.331
14145SOL     OW44331   6.525   6.585   2.827
14145SOL    HW144332   6.573   6.646   2.771
14145SOL    HW244333   6.563   6.597   2.914
14146SOL     OW44334   9.484  12.418   5.755
14146SOL    HW144335   9.472  12.510   5.732
14146SOL    HW244336   9.461  12.413   5.848
14147SOL     OW44337   7.122   4.526   5.450
14147SOL    HW144338   7.180   4.495   5.519
14147SOL    HW244339   7.137   4.466   5.377
14148SOL     OW44340   8.968   2.644   9.995
14148SOL    HW144341   8.990   2.558  10.029
14148SOL    HW244342   8.886   2.667  10.038
14149SOL     OW44343   4.368   7.343   0.929
14149SOL    HW144344   4.422   7.385   0.861
14149SOL    HW244345   4.278   7.366   0.906
14150SOL     OW44346  13.570   2.144  14.166
14150SOL    HW144347  13.492   2.132  14.219
14150SOL    HW244348  13.575   2.239  14.152
14151SOL     OW44349  13.725  11.106   4.636
14151SOL    HW144350  13.814  11.072   4.630
14151SOL    HW244351  13.714  11.156   4.555
14152SOL     OW44352   8.870   2.988   7.381
14152SOL    HW144353   8.939   3.049   7.407
14152SOL    HW244354   8.892   2.906   7.425
14153SOL     OW44355   9.171   8.544   6.812
14153SOL    HW144356   9.134   8.603   6.879
14153SOL    HW244357   9.265   8.552   6.824
14154SOL     OW44358   7.294  12.617   8.312
14154SOL    HW144359   7.214  12.569   8.335
14154SOL    HW244360   7.264  12.705   8.291
14155SOL     OW44361   1.720   0.295  10.659
14155SOL    HW144362   1.738   0.388  10.666
14155SOL    HW244363   1.625   0.288  10.666
14156SOL     OW44364   7.770   3.374   8.607
14156SOL    HW144365   7.826   3.346   8.680
14156SOL    HW244366   7.803   3.461   8.584
14157SOL     OW44367   8.412   1.034   0.431
14157SOL    HW144368   8.366   0.983   0.498
14157SOL    HW244369   8.430   1.118   0.474
14158SOL     OW44370  11.504  12.188   7.446
14158SOL    HW144371  11.514  12.264   7.389
14158SOL    HW244372  11.455  12.125   7.394
14159SOL     OW44373   0.299  12.586  14.772
14159SOL    HW144374   0.267  12.663  14.820
14159SOL    HW244375   0.369  12.620  14.717
14160SOL     OW44376   1.131   8.294  13.986
14160SOL    HW144377   1.218   8.300  13.947
14160SOL    HW244378   1.093   8.381  13.974
14161SOL     OW44379   6.787   4.802  10.158
14161SOL    HW144380   6.749   4.813  10.245
14161SOL    HW244381   6.801   4.891  10.126
14162SOL     OW44382   2.902   2.936   0.482
14162SOL    HW144383   2.874   2.859   0.433
14162SOL    HW244384   2.994   2.919   0.503
14163SOL     OW44385   0.500   1.268   5.124
14163SOL    HW144386   0.480   1.181   5.158
14163SOL    HW244387   0.518   1.254   5.031
14164SOL     OW44388   0.323   6.233   1.774
14164SOL    HW144389   0.261   6.215   1.845
14164SOL    HW244390   0.364   6.316   1.797
14165SOL     OW44391   5.489   8.949   2.290
14165SOL    HW144392   5.426   8.974   2.223
14165SOL    HW244393   5.497   9.026   2.346
14166SOL     OW44394   8.408   3.697   6.656
14166SOL    HW144395   8.389   3.701   6.750
14166SOL    HW244396   8.485   3.752   6.645
14167SOL     OW44397   7.265   9.544  13.074
14167SOL    HW144398   7.198   9.477  13.091
14167SOL    HW244399   7.236   9.586  12.992
14168SOL     OW44400  13.658   3.476  13.825
14168SOL    HW144401  13.649   3.524  13.907
14168SOL    HW244402  13.737   3.422  13.838
14169SOL     OW44403   5.290   2.865   9.057
14169SOL    HW144404   5.308   2.954   9.088
14169SOL    HW244405   5.226   2.877   8.987
14170SOL     OW44406   5.051   4.813   7.929
14170SOL    HW144407   5.133   4.772   7.901
14170SOL    HW244408   4.992   4.740   7.944
14171SOL     OW44409   2.280  13.297   0.632
14171SOL    HW144410   2.329  13.338   0.561
14171SOL    HW244411   2.261  13.209   0.601
14172SOL     OW44412   7.030   4.866  12.459
14172SOL    HW144413   7.078   4.892  12.537
14172SOL    HW244414   7.057   4.928  12.391
14173SOL     OW44415   8.117   5.235  10.751
14173SOL    HW144416   8.190   5.182  10.720
14173SOL    HW244417   8.125   5.318  10.704
14174SOL     OW44418   8.343   1.259   4.769
14174SOL    HW144419   8.255   1.283   4.797
14174SOL    HW244420   8.388   1.234   4.850
14175SOL     OW44421  13.243   9.710  12.647
14175SOL    HW144422  13.267   9.656  12.572
14175SOL    HW244423  13.168   9.666  12.686
14176SOL     OW44424   2.981  10.976  11.330
14176SOL    HW144425   2.907  11.029  11.302
14176SOL    HW244426   3.057  11.015  11.288
14177SOL     OW44427   8.916   0.460   3.202
14177SOL    HW144428   8.986   0.461   3.137
14177SOL    HW244429   8.838   0.432   3.154
14178SOL     OW44430  11.486   1.832   5.918
14178SOL    HW144431  11.538   1.905   5.885
14178SOL    HW244432  11.452   1.789   5.840
14179SOL     OW44433   9.779   9.270   2.544
14179SOL    HW144434   9.767   9.343   2.484
14179SOL    HW244435   9.873   9.268   2.561
14180SOL     OW44436   6.204   3.145  13.447
14180SOL    HW144437   6.229   3.181  13.362
14180SOL    HW244438   6.115   3.177  13.462
14181SOL     OW44439   6.414   7.329   8.233
14181SOL    HW144440   6.446   7.303   8.319
14181SOL    HW244441   6.472   7.400   8.206
14182SOL     OW44442  14.407   1.716   6.874
14182SOL    HW144443  14.502   1.707   6.864
14182SOL    HW244444  14.394   1.806   6.902
14183SOL     OW44445   8.676   4.073   7.061
14183SOL    HW144446   8.609   4.140   7.078
14183SOL    HW244447   8.757   4.122   7.050
14184SOL     OW44448  11.609  11.244  12.448
14184SOL    HW144449  11.514  11.257  12.454
14184SOL    HW244450  11.633  11.284  12.364
14185SOL     OW44451   7.466   3.359  10.921
14185SOL    HW144452   7.378   3.372  10.957
14185SOL    HW244453   7.523   3.410  10.979
14186SOL     OW44454  10.262   7.170   2.473
14186SOL    HW144455  10.230   7.080   2.469
14186SOL    HW244456  10.262   7.191   2.566
14187SOL     OW44457   9.661  10.163   0.783
14187SOL    HW144458   9.688  10.232   0.722
14187SOL    HW244459   9.570  10.145   0.761
14188SOL     OW44460  12.351   8.263   5.896
14188SOL    HW144461  12.274   8.247   5.841
14188SOL    HW244462  12.320   8.327   5.961
14189SOL     OW44463  10.331   5.326   9.666
14189SOL    HW144464  10.322   5.355   9.757
14189SOL    HW244465  10.388   5.250   9.671
14190SOL     OW44466   0.984  10.997   6.382
14190SOL    HW144467   1.024  10.925   6.333
14190SOL    HW244468   1.053  11.029   6.440
14191SOL     OW44469   9.508   1.237   8.663
14191SOL    HW144470   9.454   1.186   8.603
14191SOL    HW244471   9.511   1.324   8.624
14192SOL     OW44472   8.129   4.708  10.048
14192SOL    HW144473   8.162   4.694   9.959
14192SOL    HW244474   8.041   4.671  10.049
14193SOL     OW44475   3.576   5.526   4.238
14193SOL    HW144476   3.601   5.521   4.146
14193SOL    HW244477   3.624   5.601   4.272
14194SOL     OW44478  11.392   7.379   6.782
14194SOL    HW144479  11.413   7.300   6.732
14194SOL    HW244480  11.341   7.433   6.722
14195SOL     OW44481   0.534   3.243   1.429
14195SOL    HW144482   0.477   3.255   1.353
14195SOL    HW244483   0.519   3.153   1.457
14196SOL     OW44484  11.189  11.741   5.691
14196SOL    HW144485  11.167  11.814   5.749
14196SOL    HW244486  11.251  11.688   5.741
14197SOL     OW44487   5.133  13.294  11.794
14197SOL    HW144488   5.060  13.356  11.787
14197SOL    HW244489   5.145  13.260  11.706
14198SOL     OW44490   2.623  11.222   9.104
14198SOL    HW144491   2.717  11.213   9.091
14198SOL    HW244492   2.584  11.173   9.032
14199SOL     OW44493   0.511   7.393   8.194
14199SOL    HW144494   0.488   7.399   8.287
14199SOL    HW244495   0.498   7.482   8.161
14200SOL     OW44496  13.748   6.500   4.407
14200SOL    HW144497  13.826   6.473   4.358
14200SOL    HW244498  13.767   6.476   4.497
14201SOL     OW44499  13.589   6.846  10.847
14201SOL    HW144500  13.628   6.759  10.852
14201SOL    HW244501  13.663   6.906  10.855
14202SOL     OW44502   3.775   7.049   4.082
14202SOL    HW144503   3.847   7.057   4.144
14202SOL    HW244504   3.738   7.137   4.077
14203SOL     OW44505   5.888   3.980   6.243
14203SOL    HW144506   5.846   3.898   6.217
14203SOL    HW244507   5.874   4.038   6.169
14204SOL     OW44508   5.384   4.026  13.224
14204SOL    HW144509   5.398   4.051  13.133
14204SOL    HW244510   5.407   3.933  13.227
14205SOL     OW44511   1.469   4.471  10.123
14205SOL    HW144512   1.469   4.496  10.030
14205SOL    HW244513   1.512   4.386  10.125
14206SOL     OW44514  11.815   8.969   9.811
14206SOL    HW144515  11.842   8.877   9.817
14206SOL    HW244516  11.741   8.975   9.871
14207SOL     OW44517  12.810   8.227  10.370
14207SOL    HW144518  12.753   8.183  10.306
14207SOL    HW244519  12.786   8.188  10.454
14208SOL     OW44520   1.786   9.666   4.694
14208SOL    HW144521   1.779   9.622   4.779
14208SOL    HW244522   1.858   9.621   4.650
14209SOL     OW44523  12.798  12.832  11.290
14209SOL    HW144524  12.769  12.801  11.204
14209SOL    HW244525  12.815  12.926  11.277
14210SOL     OW44526  10.419  13.106  13.383
14210SOL    HW144527  10.433  13.011  13.375
14210SOL    HW244528  10.464  13.143  13.307
14211SOL     OW44529   7.867  10.155   1.452
14211SOL    HW144530   7.781  10.192   1.435
14211SOL    HW244531   7.927  10.229   1.439
14212SOL     OW44532  14.679  12.041   1.820
14212SOL    HW144533  14.649  12.014   1.906
14212SOL    HW244534  14.618  12.000   1.759
14213SOL     OW44535   9.044   5.477  14.471
14213SOL    HW144536   9.083   5.448  14.553
14213SOL    HW244537   9.102   5.441  14.403
14214SOL     OW44538  13.271   3.112   5.103
14214SOL    HW144539  13.288   3.148   5.190
14214SOL    HW244540  13.286   3.185   5.044
14215SOL     OW44541   8.180   3.543   4.147
14215SOL    HW144542   8.106   3.483   4.146
14215SOL    HW244543   8.245   3.501   4.202
14216SOL     OW44544  14.556   9.928   8.907
14216SOL    HW144545  14.638   9.887   8.880
14216SOL    HW244546  14.505   9.858   8.947
14217SOL     OW44547  14.748   4.973   5.481
14217SOL    HW144548  14.762   4.976   5.386
14217SOL    HW244549  14.669   4.920   5.492
14218SOL     OW44550  10.879   9.510  13.943
14218SOL    HW144551  10.941   9.580  13.965
14218SOL    HW244552  10.859   9.524  13.850
14219SOL     OW44553   7.805  11.455   6.103
14219SOL    HW144554   7.876  11.495   6.052
14219SOL    HW244555   7.766  11.392   6.042
14220SOL     OW44556   5.925   0.839  12.203
14220SOL    HW144557   5.977   0.759  12.191
14220SOL    HW244558   5.975   0.889  12.268
14221SOL     OW44559   7.372  14.386  10.012
14221SOL    HW144560   7.360  14.326  10.085
14221SOL    HW244561   7.403  14.331   9.940
14222SOL     OW44562   9.234  13.841   5.057
14222SOL    HW144563   9.199  13.922   5.019
14222SOL    HW244564   9.160  13.801   5.101
14223SOL     OW44565  14.396   5.842  11.836
14223SOL    HW144566  14.467   5.872  11.779
14223SOL    HW244567  14.323   5.826  11.776
14224SOL     OW44568   7.581   7.193  14.420
14224SOL    HW144569   7.635   7.272  14.410
14224SOL    HW244570   7.528   7.191  14.341
14225SOL     OW44571  12.017  13.812  14.086
14225SOL    HW144572  11.921  13.814  14.086
14225SOL    HW244573  12.043  13.903  14.096
14226SOL     OW44574  11.616   8.354   5.562
14226SOL    HW144575  11.531   8.360   5.604
14226SOL    HW244576  11.638   8.445   5.540
14227SOL     OW44577  13.912  12.652   5.021
14227SOL    HW144578  13.877  12.666   4.933
14227SOL    HW244579  13.876  12.567   5.048
14228SOL     OW44580  14.008   6.425  10.487
14228SOL    HW144581  13.961   6.353  10.444
14228SOL    HW244582  13.953   6.449  10.561
14229SOL     OW44583   1.096  10.167  10.517
14229SOL    HW144584   1.115  10.074  10.525
14229SOL    HW244585   1.001  10.172  10.514
14230SOL     OW44586  11.703   8.736  13.275
14230SOL    HW144587  11.697   8.785  13.193
14230SOL    HW244588  11.775   8.675  13.261
14231SOL     OW44589  10.440   1.147   1.836
14231SOL    HW144590  10.444   1.239   1.812
14231SOL    HW244591  10.377   1.144   1.908
14232SOL     OW44592  11.541  11.926   9.546
14232SOL    HW144593  11.490  11.967   9.616
14232SOL    HW244594  11.631  11.927   9.578
14233SOL     OW44595   9.056   5.328   6.896
14233SOL    HW144596   8.993   5.383   6.943
14233SOL    HW244597   9.136   5.334   6.948
14234SOL     OW44598   9.531  13.075  14.437
14234SOL    HW144599   9.515  13.074  14.531
14234SOL    HW244600   9.469  13.140  14.403
14235SOL     OW44601   1.019  10.253  14.696
14235SOL    HW144602   1.000  10.347  14.696
14235SOL    HW244603   0.937  10.212  14.667
14236SOL     OW44604  10.083   2.084  12.595
14236SOL    HW144605  10.000   2.108  12.636
14236SOL    HW244606  10.082   1.989  12.592
14237SOL     OW44607   2.205  12.879   6.328
14237SOL    HW144608   2.135  12.832   6.282
14237SOL    HW244609   2.242  12.815   6.388
14238SOL     OW44610  11.320   2.993  10.206
14238SOL    HW144611  11.393   3.026  10.258
14238SOL    HW244612  11.254   3.063  10.212
14239SOL     OW44613  10.856   7.707  12.404
14239SOL    HW144614  10.803   7.783  12.381
14239SOL    HW244615  10.839   7.644  12.334
14240SOL     OW44616   1.457  14.509  12.868
14240SOL    HW144617   1.528  14.568  12.844
14240SOL    HW244618   1.388  14.566  12.902
14241SOL     OW44619   6.535   6.951  12.601
14241SOL    HW144620   6.608   6.978  12.657
14241SOL    HW244621   6.527   6.857  12.615
14242SOL     OW44622  14.311   9.115   0.935
14242SOL    HW144623  14.398   9.119   0.975
14242SOL    HW244624  14.292   9.206   0.912
14243SOL     OW44625   2.754  11.426   0.789
14243SOL    HW144626   2.733  11.364   0.858
14243SOL    HW244627   2.678  11.424   0.731
14244SOL     OW44628   5.768   1.338   6.221
14244SOL    HW144629   5.796   1.273   6.285
14244SOL    HW244630   5.805   1.307   6.138
14245SOL     OW44631   1.420   6.601  11.846
14245SOL    HW144632   1.400   6.629  11.935
14245SOL    HW244633   1.422   6.682  11.795
14246SOL     OW44634   7.169  10.404   3.386
14246SOL    HW144635   7.246  10.451   3.418
14246SOL    HW244636   7.104  10.472   3.370
14247SOL     OW44637   3.216  14.126   6.416
14247SOL    HW144638   3.192  14.210   6.457
14247SOL    HW244639   3.188  14.136   6.325
14248SOL     OW44640  10.372  14.438  12.735
14248SOL    HW144641  10.372  14.533  12.723
14248SOL    HW244642  10.302  14.407  12.678
14249SOL     OW44643   6.916  13.257   0.055
14249SOL    HW144644   6.842  13.227   0.107
14249SOL    HW244645   6.994  13.226   0.102
14250SOL     OW44646   1.631   8.558  10.006
14250SOL    HW144647   1.625   8.522  10.095
14250SOL    HW244648   1.693   8.500   9.961
14251SOL     OW44649  13.902   2.092   4.290
14251SOL    HW144650  13.886   2.133   4.205
14251SOL    HW244651  13.820   2.046   4.310
14252SOL     OW44652  11.374  11.866   7.679
14252SOL    HW144653  11.296  11.816   7.703
14252SOL    HW244654  11.368  11.946   7.731
14253SOL     OW44655  11.340   2.250  10.043
14253SOL    HW144656  11.270   2.269   9.979
14253SOL    HW244657  11.421   2.272   9.996
14254SOL     OW44658   9.619   5.119   6.905
14254SOL    HW144659   9.584   5.065   6.976
14254SOL    HW244660   9.541   5.151   6.859
14255SOL     OW44661   5.935   9.881   8.977
14255SOL    HW144662   6.002   9.885   8.909
14255SOL    HW244663   5.866   9.940   8.946
14256SOL     OW44664   2.235  13.722   9.231
14256SOL    HW144665   2.154  13.734   9.279
14256SOL    HW244666   2.299  13.696   9.297
14257SOL     OW44667   5.828   8.813   1.643
14257SOL    HW144668   5.829   8.743   1.709
14257SOL    HW244669   5.787   8.887   1.688
14258SOL     OW44670  13.278  13.438   8.025
14258SOL    HW144671  13.323  13.502   7.969
14258SOL    HW244672  13.220  13.491   8.079
14259SOL     OW44673   5.032   8.305   3.599
14259SOL    HW144674   4.997   8.218   3.581
14259SOL    HW244675   5.055   8.339   3.512
14260SOL     OW44676   4.300   5.438   0.615
14260SOL    HW144677   4.341   5.484   0.689
14260SOL    HW244678   4.232   5.498   0.584
14261SOL     OW44679   5.960   0.483   9.427
14261SOL    HW144680   5.954   0.546   9.356
14261SOL    HW244681   5.883   0.500   9.481
14262SOL     OW44682   0.473  12.137   6.598
14262SOL    HW144683   0.378  12.125   6.603
14262SOL    HW244684   0.498  12.168   6.684
14263SOL     OW44685   8.347   0.582  11.458
14263SOL    HW144686   8.319   0.584  11.549
14263SOL    HW244687   8.397   0.663  11.447
14264SOL     OW44688  11.784   3.483  13.884
14264SOL    HW144689  11.742   3.559  13.924
14264SOL    HW244690  11.745   3.408  13.930
14265SOL     OW44691  10.982   1.682   4.241
14265SOL    HW144692  10.993   1.712   4.151
14265SOL    HW244693  10.987   1.762   4.293
14266SOL     OW44694   8.461  14.210   8.365
14266SOL    HW144695   8.485  14.136   8.420
14266SOL    HW244696   8.365  14.213   8.369
14267SOL     OW44697   5.637  11.090   4.678
14267SOL    HW144698   5.576  11.026   4.714
14267SOL    HW244699   5.720  11.071   4.720
14268SOL     OW44700  12.980   8.726   4.602
14268SOL    HW144701  12.951   8.730   4.693
14268SOL    HW244702  13.007   8.635   4.589
14269SOL     OW44703   6.087  10.908   1.906
14269SOL    HW144704   6.102  10.997   1.937
14269SOL    HW244705   6.129  10.852   1.972
14270SOL     OW44706   2.975   3.495  12.355
14270SOL    HW144707   3.064   3.459  12.344
14270SOL    HW244708   2.923   3.450  12.288
14271SOL     OW44709   0.946   6.137  11.024
14271SOL    HW144710   0.952   6.116  11.117
14271SOL    HW244711   1.009   6.207  11.011
14272SOL     OW44712   4.753   9.603   1.089
14272SOL    HW144713   4.783   9.617   0.999
14272SOL    HW244714   4.749   9.690   1.127
14273SOL     OW44715   6.830   6.568  13.383
14273SOL    HW144716   6.755   6.565  13.442
14273SOL    HW244717   6.817   6.649  13.333
14274SOL     OW44718  11.317  10.173  13.858
14274SOL    HW144719  11.369  10.101  13.893
14274SOL    HW244720  11.296  10.227  13.933
14275SOL     OW44721  12.395   4.674   6.120
14275SOL    HW144722  12.376   4.580   6.119
14275SOL    HW244723  12.418   4.695   6.029
14276SOL     OW44724   3.313  13.826   9.743
14276SOL    HW144725   3.404  13.854   9.740
14276SOL    HW244726   3.317  13.731   9.741
14277SOL     OW44727  11.305  13.727   3.436
14277SOL    HW144728  11.303  13.775   3.519
14277SOL    HW244729  11.293  13.636   3.462
14278SOL     OW44730  12.253   5.193   6.536
14278SOL    HW144731  12.268   5.254   6.609
14278SOL    HW244732  12.158   5.188   6.529
14279SOL     OW44733   3.512   1.887   4.521
14279SOL    HW144734   3.421   1.862   4.507
14279SOL    HW244735   3.562   1.833   4.459
14280SOL     OW44736  11.767   0.513   0.382
14280SOL    HW144737  11.709   0.585   0.355
14280SOL    HW244738  11.849   0.530   0.336
14281SOL     OW44739   6.771   6.883  14.506
14281SOL    HW144740   6.765   6.978  14.512
14281SOL    HW244741   6.811   6.867  14.421
14282SOL     OW44742   8.550  11.233   2.137
14282SOL    HW144743   8.562  11.248   2.231
14282SOL    HW244744   8.611  11.162   2.117
14283SOL     OW44745   4.450   6.977   2.744
14283SOL    HW144746   4.385   7.037   2.707
14283SOL    HW244747   4.429   6.974   2.837
14284SOL     OW44748   3.800  10.312  11.741
14284SOL    HW144749   3.787  10.217  11.739
14284SOL    HW244750   3.713  10.348  11.755
14285SOL     OW44751   6.395  13.710   5.815
14285SOL    HW144752   6.456  13.636   5.822
14285SOL    HW244753   6.308  13.669   5.812
14286SOL     OW44754   7.230   4.346  14.747
14286SOL    HW144755   7.281   4.298  14.682
14286SOL    HW244756   7.200   4.279  14.808
14287SOL     OW44757   9.408   0.406   5.197
14287SOL    HW144758   9.426   0.498   5.180
14287SOL    HW244759   9.461   0.358   5.133
14288SOL     OW44760  11.282   2.988   9.386
14288SOL    HW144761  11.278   3.082   9.369
14288SOL    HW244762  11.229   2.976   9.465
14289SOL     OW44763   4.232   0.337  13.617
14289SOL    HW144764   4.302   0.274  13.634
14289SOL    HW244765   4.156   0.301  13.664
14290SOL     OW44766   1.615   2.506  10.542
14290SOL    HW144767   1.644   2.501  10.633
14290SOL    HW244768   1.604   2.415  10.515
14291SOL     OW44769  10.331   0.771   9.325
14291SOL    HW144770  10.419   0.754   9.292
14291SOL    HW244771  10.298   0.684   9.350
14292SOL     OW44772  13.487   4.173   7.187
14292SOL    HW144773  13.400   4.137   7.205
14292SOL    HW244774  13.530   4.105   7.134
14293SOL     OW44775  12.966  14.552   7.429
14293SOL    HW144776  12.910  14.484   7.391
14293SOL    HW244777  12.928  14.634   7.397
14294SOL     OW44778   1.434   6.202   0.479
14294SOL    HW144779   1.443   6.220   0.573
14294SOL    HW244780   1.480   6.119   0.466
14295SOL     OW44781  11.377   8.035  12.652
14295SOL    HW144782  11.368   7.948  12.692
14295SOL    HW244783  11.303   8.042  12.593
14296SOL     OW44784   9.419   9.377   7.749
14296SOL    HW144785   9.337   9.387   7.797
14296SOL    HW244786   9.392   9.349   7.661
14297SOL     OW44787   1.395   8.014  10.825
14297SOL    HW144788   1.354   8.012  10.912
14297SOL    HW244789   1.462   8.082  10.832
14298SOL     OW44790   9.062   2.700   1.843
14298SOL    HW144791   9.069   2.669   1.933
14298SOL    HW244792   9.133   2.656   1.797
14299SOL     OW44793  13.816   0.862  11.523
14299SOL    HW144794  13.910   0.865  11.506
14299SOL    HW244795  13.777   0.911  11.451
14300SOL     OW44796  14.015   7.807   4.385
14300SOL    HW144797  13.967   7.775   4.309
14300SOL    HW244798  13.949   7.819   4.453
14301SOL     OW44799  12.014   4.510  14.211
14301SOL    HW144800  11.924   4.497  14.180
14301SOL    HW244801  12.059   4.552  14.138
14302SOL     OW44802   2.933  14.389  12.025
14302SOL    HW144803   3.004  14.382  11.962
14302SOL    HW244804   2.945  14.476  12.064
14303SOL     OW44805   4.578   7.401   2.823
14303SOL    HW144806   4.673   7.402   2.816
14303SOL    HW244807   4.554   7.309   2.817
14304SOL     OW44808   8.391   7.436   9.367
14304SOL    HW144809   8.390   7.406   9.458
14304SOL    HW244810   8.401   7.531   9.373
14305SOL     OW44811   6.371  12.782   6.419
14305SOL    HW144812   6.467  12.786   6.416
14305SOL    HW244813   6.343  12.867   6.385
14306SOL     OW44814   5.855   5.463  13.248
14306SOL    HW144815   5.872   5.441  13.339
14306SOL    HW244816   5.927   5.521  13.223
14307SOL     OW44817  12.615   7.688   2.141
14307SOL    HW144818  12.682   7.714   2.204
14307SOL    HW244819  12.587   7.770   2.101
14308SOL     OW44820   0.172  13.939  13.071
14308SOL    HW144821   0.199  13.962  13.159
14308SOL    HW244822   0.107  13.869  13.083
14309SOL     OW44823   0.401  12.565  10.607
14309SOL    HW144824   0.467  12.498  10.591
14309SOL    HW244825   0.389  12.608  10.522
14310SOL     OW44826   7.505   5.232   8.349
14310SOL    HW144827   7.438   5.290   8.386
14310SOL    HW244828   7.510   5.257   8.257
14311SOL     OW44829  12.669  12.465   2.304
14311SOL    HW144830  12.608  12.396   2.328
14311SOL    HW244831  12.735  12.422   2.250
14312SOL     OW44832   5.829   1.787   7.985
14312SOL    HW144833   5.884   1.851   8.030
14312SOL    HW244834   5.758   1.768   8.046
14313SOL     OW44835   4.352   1.767  10.803
14313SOL    HW144836   4.403   1.845  10.826
14313SOL    HW244837   4.416   1.697  10.797
14314SOL     OW44838  12.616   8.583   1.108
14314SOL    HW144839  12.636   8.644   1.179
14314SOL    HW244840  12.523   8.598   1.090
14315SOL     OW44841   5.034   1.743   3.663
14315SOL    HW144842   4.963   1.687   3.695
14315SOL    HW244843   5.069   1.785   3.741
14316SOL     OW44844  11.108   9.631  11.584
14316SOL    HW144845  11.119   9.564  11.516
14316SOL    HW244846  11.124   9.714  11.538
14317SOL     OW44847   1.122  13.634  14.114
14317SOL    HW144848   1.072  13.674  14.043
14317SOL    HW244849   1.068  13.559  14.142
14318SOL     OW44850  10.403  13.482  13.108
14318SOL    HW144851  10.326  13.530  13.139
14318SOL    HW244852  10.465  13.551  13.083
14319SOL     OW44853   9.965   4.633  10.151
14319SOL    HW144854   9.991   4.690  10.078
14319SOL    HW244855  10.047   4.610  10.194
14320SOL     OW44856   8.253   3.203  12.858
14320SOL    HW144857   8.288   3.277  12.807
14320SOL    HW244858   8.272   3.126  12.805
14321SOL     OW44859  13.546   3.207   9.521
14321SOL    HW144860  13.599   3.275   9.480
14321SOL    HW244861  13.603   3.169   9.589
14322SOL     OW44862  13.925   3.719  13.767
14322SOL    HW144863  13.983   3.742  13.694
14322SOL    HW244864  13.877   3.643  13.736
14323SOL     OW44865   2.270   4.050   7.825
14323SOL    HW144866   2.252   4.046   7.731
14323SOL    HW244867   2.281   3.959   7.852
14324SOL     OW44868   4.387   2.192   4.536
14324SOL    HW144869   4.321   2.239   4.485
14324SOL    HW244870   4.414   2.253   4.604
14325SOL     OW44871   3.197   0.176   9.616
14325SOL    HW144872   3.262   0.145   9.679
14325SOL    HW244873   3.113   0.163   9.660
14326SOL     OW44874   9.013   6.765   3.216
14326SOL    HW144875   8.959   6.776   3.138
14326SOL    HW244876   8.952   6.778   3.289
14327SOL     OW44877   3.732   6.577   8.125
14327SOL    HW144878   3.651   6.581   8.073
14327SOL    HW244879   3.791   6.639   8.081
14328SOL     OW44880  12.652  14.740   3.956
14328SOL    HW144881  12.672  14.825   3.915
14328SOL    HW244882  12.737  14.700   3.972
14329SOL     OW44883   4.148   6.169  11.152
14329SOL    HW144884   4.145   6.078  11.182
14329SOL    HW244885   4.061   6.184  11.115
14330SOL     OW44886   7.168  11.547  10.692
14330SOL    HW144887   7.197  11.626  10.646
14330SOL    HW244888   7.079  11.533  10.661
14331SOL     OW44889   7.757   8.356   0.135
14331SOL    HW144890   7.726   8.387   0.220
14331SOL    HW244891   7.846   8.326   0.151
14332SOL     OW44892  10.326   5.832   5.161
14332SOL    HW144893  10.421   5.846   5.168
14332SOL    HW244894  10.308   5.761   5.221
14333SOL     OW44895  11.038  12.175   6.748
14333SOL    HW144896  11.048  12.107   6.814
14333SOL    HW244897  11.127  12.198   6.722
14334SOL     OW44898   5.522   4.031  10.737
14334SOL    HW144899   5.445   4.013  10.791
14334SOL    HW244900   5.548   3.946  10.702
14335SOL     OW44901  12.579   0.631   4.630
14335SOL    HW144902  12.605   0.720   4.606
14335SOL    HW244903  12.662   0.586   4.649
14336SOL     OW44904   8.743   3.672   9.016
14336SOL    HW144905   8.742   3.758   8.974
14336SOL    HW244906   8.733   3.610   8.943
14337SOL     OW44907   2.392   9.617   1.488
14337SOL    HW144908   2.339   9.680   1.537
14337SOL    HW244909   2.441   9.570   1.555
14338SOL     OW44910  11.077  11.449  10.671
14338SOL    HW144911  11.123  11.526  10.703
14338SOL    HW244912  10.986  11.477  10.661
14339SOL     OW44913   5.127   8.815  12.925
14339SOL    HW144914   5.088   8.816  12.838
14339SOL    HW244915   5.103   8.730  12.961
14340SOL     OW44916   5.629   1.275  10.628
14340SOL    HW144917   5.675   1.224  10.695
14340SOL    HW244918   5.620   1.362  10.668
14341SOL     OW44919  10.842  10.210  10.546
14341SOL    HW144920  10.882  10.133  10.504
14341SOL    HW244921  10.800  10.257  10.475
14342SOL     OW44922   6.283  13.370   6.240
14342SOL    HW144923   6.364  13.379   6.290
14342SOL    HW244924   6.225  13.437   6.275
14343SOL     OW44925  14.708   6.107   6.781
14343SOL    HW144926  14.620   6.073   6.790
14343SOL    HW244927  14.738   6.120   6.871
14344SOL     OW44928   4.313   4.172   6.685
14344SOL    HW144929   4.393   4.190   6.635
14344SOL    HW244930   4.334   4.095   6.738
14345SOL     OW44931   2.213   8.835   8.499
14345SOL    HW144932   2.287   8.777   8.516
14345SOL    HW244933   2.251   8.909   8.451
14346SOL     OW44934  14.361   3.985   2.005
14346SOL    HW144935  14.389   3.918   1.943
14346SOL    HW244936  14.272   3.959   2.030
14347SOL     OW44937  12.962   1.416  11.176
14347SOL    HW144938  12.926   1.503  11.197
14347SOL    HW244939  12.949   1.406  11.082
14348SOL     OW44940   2.955   5.910   8.371
14348SOL    HW144941   2.916   5.829   8.403
14348SOL    HW244942   2.988   5.954   8.450
14349SOL     OW44943   6.639   5.744  13.604
14349SOL    HW144944   6.625   5.671  13.544
14349SOL    HW244945   6.714   5.718  13.656
14350SOL     OW44946   1.343  12.964   4.146
14350SOL    HW144947   1.277  12.894   4.145
14350SOL    HW244948   1.427  12.918   4.145
14351SOL     OW44949   6.649  14.172   4.170
14351SOL    HW144950   6.735  14.132   4.180
14351SOL    HW244951   6.644  14.197   4.078
14352SOL     OW44952   4.699   2.375   1.977
14352SOL    HW144953   4.605   2.358   1.974
14352SOL    HW244954   4.717   2.423   1.896
14353SOL     OW44955   0.142   9.452   4.816
14353SOL    HW144956   0.086   9.386   4.856
14353SOL    HW244957   0.099   9.536   4.835
14354SOL     OW44958   8.069  13.351   0.468
14354SOL    HW144959   7.992  13.316   0.513
14354SOL    HW244960   8.118  13.273   0.441
14355SOL     OW44961   2.151   6.584  13.607
14355SOL    HW144962   2.174   6.676  13.622
14355SOL    HW244963   2.234   6.537  13.614
14356SOL     OW44964   9.758  11.375   5.587
14356SOL    HW144965   9.757  11.331   5.502
14356SOL    HW244966   9.818  11.449   5.574
14357SOL     OW44967   8.281   2.434   6.977
14357SOL    HW144968   8.260   2.456   7.068
14357SOL    HW244969   8.339   2.505   6.949
14358SOL     OW44970  10.576   3.145  12.990
14358SOL    HW144971  10.590   3.110  12.902
14358SOL    HW244972  10.596   3.239  12.981
14359SOL     OW44973  14.440  11.868   1.759
14359SOL    HW144974  14.460  11.792   1.704
14359SOL    HW244975  14.347  11.885   1.743
14360SOL     OW44976  14.841   7.457  14.713
14360SOL    HW144977  14.820   7.378  14.763
14360SOL    HW244978   0.026   7.428  14.648
14361SOL     OW44979  12.644  12.523  12.983
14361SOL    HW144980  12.728  12.569  12.985
14361SOL    HW244981  12.632  12.499  12.891
14362SOL     OW44982   4.934   1.699   9.749
14362SOL    HW144983   4.915   1.664   9.662
14362SOL    HW244984   5.029   1.693   9.756
14363SOL     OW44985   5.865   6.781   1.436
14363SOL    HW144986   5.783   6.740   1.463
14363SOL    HW244987   5.928   6.709   1.434
14364SOL     OW44988   0.353   4.516  12.557
14364SOL    HW144989   0.401   4.591  12.592
14364SOL    HW244990   0.335   4.461  12.634
14365SOL     OW44991   3.290  10.328  11.174
14365SOL    HW144992   3.348  10.258  11.204
14365SOL    HW244993   3.301  10.397  11.239
14366SOL     OW44994  13.545   9.730  13.487
14366SOL    HW144995  13.461   9.685  13.491
14366SOL    HW244996  13.584   9.717  13.574
14367SOL     OW44997  10.650   2.546   7.538
14367SOL    HW144998  10.635   2.633   7.575
14367SOL    HW244999  10.674   2.563   7.447
14368SOL     OW45000   3.805  10.495  10.157
14368SOL    HW145001   3.766  10.447  10.230
14368SOL    HW245002   3.816  10.430  10.088
14369SOL     OW45003   4.256   2.733  10.347
14369SOL    HW145004   4.233   2.693  10.263
14369SOL    HW245005   4.191   2.801  10.361
14370SOL     OW45006   7.510   5.164   0.229
14370SOL    HW145007   7.443   5.155   0.297
14370SOL    HW245008   7.589   5.191   0.276
14371SOL     OW45009   2.670  14.304  11.363
14371SOL    HW145010   2.661  14.209  11.353
14371SOL    HW245011   2.587  14.340  11.332
14372SOL     OW45012   3.167  13.051  14.370
14372SOL    HW145013   3.213  12.972  14.342
14372SOL    HW245014   3.129  13.029  14.454
14373SOL     OW45015   7.446  11.566  13.394
14373SOL    HW145016   7.436  11.475  13.365
14373SOL    HW245017   7.400  11.617  13.327
14374SOL     OW45018   7.061   2.303   4.272
14374SOL    HW145019   7.153   2.328   4.280
14374SOL    HW245020   7.062   2.208   4.265
14375SOL     OW45021  11.853   3.798   0.687
14375SOL    HW145022  11.934   3.814   0.736
14375SOL    HW245023  11.843   3.703   0.689
14376SOL     OW45024   2.861  11.180  12.682
14376SOL    HW145025   2.902  11.145  12.761
14376SOL    HW245026   2.773  11.141  12.681
14377SOL     OW45027  11.031   6.856   4.865
14377SOL    HW145028  10.975   6.794   4.820
14377SOL    HW245029  10.982   6.939   4.863
14378SOL     OW45030   4.980  10.941   2.802
14378SOL    HW145031   5.040  11.011   2.828
14378SOL    HW245032   5.017  10.862   2.840
14379SOL     OW45033   0.556   8.097   9.389
14379SOL    HW145034   0.642   8.094   9.431
14379SOL    HW245035   0.530   8.005   9.381
14380SOL     OW45036  14.687   2.997   4.410
14380SOL    HW145037  14.612   3.032   4.362
14380SOL    HW245038  14.746   3.072   4.419
14381SOL     OW45039   5.988   6.368   9.437
14381SOL    HW145040   6.026   6.393   9.521
14381SOL    HW245041   6.062   6.334   9.386
14382SOL     OW45042  10.090   0.576  10.764
14382SOL    HW145043  10.046   0.614  10.688
14382SOL    HW245044  10.183   0.572  10.738
14383SOL     OW45045   4.465  12.283   6.356
14383SOL    HW145046   4.543  12.329   6.323
14383SOL    HW245047   4.424  12.246   6.278
14384SOL     OW45048  11.070   4.105   2.288
14384SOL    HW145049  10.987   4.059   2.292
14384SOL    HW245050  11.091   4.108   2.194
14385SOL     OW45051  12.360  12.251   0.019
14385SOL    HW145052  12.416  12.176   0.034
14385SOL    HW245053  12.343  12.250  14.805
14386SOL     OW45054   7.050  14.332   0.277
14386SOL    HW145055   6.972  14.386   0.271
14386SOL    HW245056   7.113  14.374   0.219
14387SOL     OW45057   8.113  13.464   3.915
14387SOL    HW145058   8.145  13.447   3.827
14387SOL    HW245059   8.029  13.418   3.920
14388SOL     OW45060   0.428   5.346  12.660
14388SOL    HW145061   0.432   5.373  12.751
14388SOL    HW245062   0.344   5.378  12.628
14389SOL     OW45063  14.310   1.389  14.739
14389SOL    HW145064  14.243   1.320  14.745
14389SOL    HW245065  14.384   1.348  14.697
14390SOL     OW45066  14.241  10.358   8.511
14390SOL    HW145067  14.230  10.445   8.551
14390SOL    HW245068  14.207  10.368   8.422
14391SOL     OW45069   3.155  11.907   3.624
14391SOL    HW145070   3.170  11.963   3.547
14391SOL    HW245071   3.081  11.947   3.668
14392SOL     OW45072  11.982   9.760  11.897
14392SOL    HW145073  11.943   9.752  11.810
14392SOL    HW245074  11.969   9.852  11.921
14393SOL     OW45075   7.772   7.641   7.590
14393SOL    HW145076   7.707   7.665   7.523
14393SOL    HW245077   7.734   7.563   7.632
14394SOL     OW45078   5.036   9.238   2.244
14394SOL    HW145079   4.980   9.187   2.186
14394SOL    HW245080   4.993   9.233   2.330
14395SOL     OW45081   2.496  12.187   4.748
14395SOL    HW145082   2.589  12.198   4.727
14395SOL    HW245083   2.451  12.248   4.690
14396SOL     OW45084  14.005  11.020   0.296
14396SOL    HW145085  14.067  10.949   0.312
14396SOL    HW245086  14.051  11.080   0.237
14397SOL     OW45087   0.633  13.348  13.533
14397SOL    HW145088   0.582  13.414  13.486
14397SOL    HW245089   0.714  13.339  13.482
14398SOL     OW45090   0.038   0.134   1.995
14398SOL    HW145091   0.130   0.131   1.969
14398SOL    HW245092   0.010   0.042   1.995
14399SOL     OW45093  10.579   1.128   5.890
14399SOL    HW145094  10.628   1.053   5.857
14399SOL    HW245095  10.534   1.163   5.813
14400SOL     OW45096   0.070   5.295   9.529
14400SOL    HW145097   0.014   5.218   9.521
14400SOL    HW245098   0.157   5.259   9.547
14401SOL     OW45099  14.387   9.891   1.662
14401SOL    HW145100  14.385   9.898   1.758
14401SOL    HW245101  14.442   9.815   1.644
14402SOL     OW45102   3.403  14.465   7.891
14402SOL    HW145103   3.432  14.502   7.807
14402SOL    HW245104   3.480  14.471   7.947
14403SOL     OW45105   3.090  10.143   2.612
14403SOL    HW145106   3.001  10.166   2.636
14403SOL    HW245107   3.099  10.175   2.522
14404SOL     OW45108  11.416   8.564   0.532
14404SOL    HW145109  11.396   8.645   0.485
14404SOL    HW245110  11.390   8.494   0.472
14405SOL     OW45111   6.942   0.837   8.218
14405SOL    HW145112   7.000   0.771   8.256
14405SOL    HW245113   6.858   0.793   8.207
14406SOL     OW45114   5.235   5.456   8.831
14406SOL    HW145115   5.148   5.478   8.864
14406SOL    HW245116   5.235   5.486   8.740
14407SOL     OW45117   6.267  14.353  13.506
14407SOL    HW145118   6.265  14.424  13.570
14407SOL    HW245119   6.352  14.363  13.462
14408SOL     OW45120  11.030  10.270  12.387
14408SOL    HW145121  11.121  10.262  12.358
14408SOL    HW245122  10.980  10.276  12.306
14409SOL     OW45123   4.503   8.632   8.195
14409SOL    HW145124   4.595   8.612   8.212
14409SOL    HW245125   4.506   8.705   8.133
14410SOL     OW45126  11.152   3.940   4.998
14410SOL    HW145127  11.181   3.883   5.069
14410SOL    HW245128  11.206   3.915   4.923
14411SOL     OW45129  14.525  10.221   8.555
14411SOL    HW145130  14.570  10.138   8.540
14411SOL    HW245131  14.467  10.231   8.479
14412SOL     OW45132   0.204   6.954   3.169
14412SOL    HW145133   0.116   6.972   3.203
14412SOL    HW245134   0.198   6.973   3.076
14413SOL     OW45135  10.789   9.035   5.641
14413SOL    HW145136  10.805   9.125   5.613
14413SOL    HW245137  10.820   9.032   5.732
14414SOL     OW45138   8.578   4.966   3.249
14414SOL    HW145139   8.496   4.920   3.230
14414SOL    HW245140   8.559   5.058   3.229
14415SOL     OW45141   3.552   7.833  13.046
14415SOL    HW145142   3.517   7.807  12.961
14415SOL    HW245143   3.586   7.921  13.032
14416SOL     OW45144   0.377  10.342   1.823
14416SOL    HW145145   0.451  10.295   1.784
14416SOL    HW245146   0.335  10.278   1.880
14417SOL     OW45147   1.787  11.485  10.870
14417SOL    HW145148   1.805  11.503  10.778
14417SOL    HW245149   1.860  11.430  10.899
14418SOL     OW45150  13.580  13.813   6.698
14418SOL    HW145151  13.518  13.770   6.757
14418SOL    HW245152  13.546  13.795   6.610
14419SOL     OW45153  10.615  11.471   0.498
14419SOL    HW145154  10.671  11.422   0.439
14419SOL    HW245155  10.673  11.535   0.540
14420SOL     OW45156   5.501   8.755  12.191
14420SOL    HW145157   5.493   8.667  12.228
14420SOL    HW245158   5.463   8.813  12.257
14421SOL     OW45159  10.378   1.001   8.062
14421SOL    HW145160  10.340   1.069   8.007
14421SOL    HW245161  10.307   0.974   8.120
14422SOL     OW45162  14.098   7.375   3.483
14422SOL    HW145163  14.110   7.469   3.480
14422SOL    HW245164  14.183   7.340   3.508
14423SOL     OW45165  10.386   6.691  10.700
14423SOL    HW145166  10.348   6.610  10.665
14423SOL    HW245167  10.424   6.735  10.624
14424SOL     OW45168  13.796  12.539   4.512
14424SOL    HW145169  13.743  12.460   4.498
14424SOL    HW245170  13.737  12.611   4.491
14425SOL     OW45171   3.408  13.709   4.161
14425SOL    HW145172   3.432  13.799   4.181
14425SOL    HW245173   3.485  13.673   4.117
14426SOL     OW45174  13.279   3.183  14.271
14426SOL    HW145175  13.196   3.156  14.309
14426SOL    HW245176  13.345   3.152  14.333
14427SOL     OW45177  14.776  12.518   4.816
14427SOL    HW145178  14.777  12.610   4.842
14427SOL    HW245179  14.701  12.511   4.756
14428SOL     OW45180  14.732   5.720  13.463
14428SOL    HW145181  14.674   5.725  13.387
14428SOL    HW245182  14.676   5.742  13.538
14429SOL     OW45183   8.605   2.358   0.069
14429SOL    HW145184   8.678   2.312   0.027
14429SOL    HW245185   8.647   2.432   0.113
14430SOL     OW45186   9.204  12.514   2.946
14430SOL    HW145187   9.210  12.582   3.014
14430SOL    HW245188   9.251  12.550   2.871
14431SOL     OW45189   5.019   9.979   1.381
14431SOL    HW145190   4.954  10.022   1.437
14431SOL    HW245191   4.985   9.889   1.371
14432SOL     OW45192   3.030  12.005  14.608
14432SOL    HW145193   3.017  12.098  14.622
14432SOL    HW245194   2.946  11.965  14.632
14433SOL     OW45195   3.192   9.464   8.782
14433SOL    HW145196   3.114   9.414   8.808
14433SOL    HW245197   3.159   9.551   8.761
14434SOL     OW45198   4.948   1.285   6.629
14434SOL    HW145199   4.869   1.305   6.579
14434SOL    HW245200   4.961   1.191   6.617
14435SOL     OW45201   6.586   7.466  14.042
14435SOL    HW145202   6.607   7.496  14.131
14435SOL    HW245203   6.500   7.502  14.024
14436SOL     OW45204   7.333   4.250   7.452
14436SOL    HW145205   7.382   4.253   7.370
14436SOL    HW245206   7.342   4.338   7.489
14437SOL     OW45207   3.921   8.089  10.673
14437SOL    HW145208   4.011   8.071  10.645
14437SOL    HW245209   3.887   8.149  10.607
14438SOL     OW45210   9.734   9.625   3.154
14438SOL    HW145211   9.717   9.609   3.061
14438SOL    HW245212   9.766   9.715   3.157
14439SOL     OW45213   3.144   2.422   2.210
14439SOL    HW145214   3.051   2.447   2.217
14439SOL    HW245215   3.145   2.328   2.227
14440SOL     OW45216  11.056  13.484   1.106
14440SOL    HW145217  11.074  13.571   1.142
14440SOL    HW245218  11.140  13.454   1.072
14441SOL     OW45219   3.799  10.977   8.319
14441SOL    HW145220   3.715  11.022   8.308
14441SOL    HW245221   3.844  10.991   8.236
14442SOL     OW45222   5.336   5.936   8.153
14442SOL    HW145223   5.322   5.850   8.193
14442SOL    HW245224   5.249   5.974   8.145
14443SOL     OW45225  10.403   3.327   6.927
14443SOL    HW145226  10.406   3.412   6.970
14443SOL    HW245227  10.439   3.342   6.840
14444SOL     OW45228  13.082  11.570  10.506
14444SOL    HW145229  13.112  11.511  10.574
14444SOL    HW245230  13.077  11.656  10.548
14445SOL     OW45231   1.102  13.938  13.314
14445SOL    HW145232   1.007  13.928  13.321
14445SOL    HW245233   1.114  14.013  13.255
14446SOL     OW45234   7.198   6.936   4.316
14446SOL    HW145235   7.119   6.895   4.282
14446SOL    HW245236   7.167   7.012   4.364
14447SOL     OW45237   0.390   0.942   9.085
14447SOL    HW145238   0.385   0.856   9.126
14447SOL    HW245239   0.310   0.950   9.033
14448SOL     OW45240  14.803   7.838   7.226
14448SOL    HW145241   0.011   7.849   7.188
14448SOL    HW245242  14.743   7.847   7.152
14449SOL     OW45243   4.190   7.562  13.111
14449SOL    HW145244   4.215   7.566  13.204
14449SOL    HW245245   4.274   7.562  13.064
14450SOL     OW45246  14.378   2.866   4.014
14450SOL    HW145247  14.347   2.941   3.965
14450SOL    HW245248  14.302   2.810   4.024
14451SOL     OW45249  13.700   3.353   2.755
14451SOL    HW145250  13.766   3.305   2.804
14451SOL    HW245251  13.740   3.368   2.669
14452SOL     OW45252   2.613  14.794   0.778
14452SOL    HW145253   2.564  14.802   0.696
14452SOL    HW245254   2.564  14.847   0.841
14453SOL     OW45255  14.330  11.074   5.455
14453SOL    HW145256  14.255  11.123   5.488
14453SOL    HW245257  14.347  11.009   5.524
14454SOL     OW45258  13.740   5.770  11.173
14454SOL    HW145259  13.747   5.855  11.129
14454SOL    HW245260  13.804   5.775  11.245
14455SOL     OW45261   1.611   1.455   8.953
14455SOL    HW145262   1.604   1.370   8.996
14455SOL    HW245263   1.522   1.489   8.949
14456SOL     OW45264   1.506  10.092   4.159
14456SOL    HW145265   1.476  10.124   4.074
14456SOL    HW245266   1.502   9.997   4.153
14457SOL     OW45267   1.633   7.203  12.805
14457SOL    HW145268   1.705   7.178  12.747
14457SOL    HW245269   1.554   7.184  12.755
14458SOL     OW45270   8.811   2.542   3.043
14458SOL    HW145271   8.802   2.449   3.063
14458SOL    HW245272   8.741   2.560   2.981
14459SOL     OW45273  11.973  14.102   3.713
14459SOL    HW145274  11.915  14.148   3.774
14459SOL    HW245275  11.919  14.089   3.635
14460SOL     OW45276   7.881   7.214  12.159
14460SOL    HW145277   7.883   7.199  12.253
14460SOL    HW245278   7.955   7.164  12.125
14461SOL     OW45279   5.743   3.301  14.571
14461SOL    HW145280   5.692   3.318  14.492
14461SOL    HW245281   5.730   3.208  14.589
14462SOL     OW45282  14.698  14.275  13.996
14462SOL    HW145283  14.682  14.324  13.915
14462SOL    HW245284  14.778  14.313  14.031
14463SOL     OW45285  14.757   3.624  11.933
14463SOL    HW145286  14.825   3.674  11.978
14463SOL    HW245287  14.793   3.536  11.925
14464SOL     OW45288   3.386   1.097  11.637
14464SOL    HW145289   3.294   1.074  11.646
14464SOL    HW245290   3.420   1.035  11.572
14465SOL     OW45291   5.415  14.363   6.996
14465SOL    HW145292   5.484  14.305   7.030
14465SOL    HW245293   5.351  14.367   7.067
14466SOL     OW45294   8.854   0.540   6.435
14466SOL    HW145295   8.858   0.509   6.344
14466SOL    HW245296   8.890   0.629   6.431
14467SOL     OW45297   8.378  12.964  13.274
14467SOL    HW145298   8.425  12.983  13.355
14467SOL    HW245299   8.329  13.044  13.255
14468SOL     OW45300   0.192  13.747   6.537
14468SOL    HW145301   0.271  13.725   6.488
14468SOL    HW245302   0.210  13.721   6.627
14469SOL     OW45303  12.628   5.596   7.012
14469SOL    HW145304  12.719   5.625   7.011
14469SOL    HW245305  12.586   5.650   7.078
14470SOL     OW45306   8.727   5.267   4.033
14470SOL    HW145307   8.820   5.286   4.031
14470SOL    HW245308   8.722   5.175   4.059
14471SOL     OW45309   4.316   1.205   3.028
14471SOL    HW145310   4.352   1.194   2.940
14471SOL    HW245311   4.393   1.208   3.085
14472SOL     OW45312   8.414   0.313  11.350
14472SOL    HW145313   8.328   0.294  11.387
14472SOL    HW245314   8.428   0.406  11.368
14473SOL     OW45315   3.339  11.238   7.312
14473SOL    HW145316   3.356  11.284   7.230
14473SOL    HW245317   3.390  11.157   7.305
14474SOL     OW45318   1.969  11.710   0.274
14474SOL    HW145319   1.966  11.699   0.369
14474SOL    HW245320   2.048  11.664   0.246
14475SOL     OW45321   4.569   7.912   9.703
14475SOL    HW145322   4.476   7.908   9.722
14475SOL    HW245323   4.580   7.993   9.653
14476SOL     OW45324   6.243   8.587   3.145
14476SOL    HW145325   6.265   8.595   3.237
14476SOL    HW245326   6.320   8.548   3.104
14477SOL     OW45327   2.458   9.686   9.199
14477SOL    HW145328   2.535   9.743   9.204
14477SOL    HW245329   2.440   9.678   9.105
14478SOL     OW45330   3.212   0.119   0.968
14478SOL    HW145331   3.221   0.077   0.882
14478SOL    HW245332   3.244   0.053   1.030
14479SOL     OW45333  14.388   8.637   7.125
14479SOL    HW145334  14.346   8.716   7.091
14479SOL    HW245335  14.381   8.645   7.220
14480SOL     OW45336   3.684  11.065   4.516
14480SOL    HW145337   3.778  11.075   4.534
14480SOL    HW245338   3.678  11.058   4.421
14481SOL     OW45339   5.185   4.901  13.138
14481SOL    HW145340   5.198   4.961  13.065
14481SOL    HW245341   5.093   4.876  13.133
14482SOL     OW45342   4.965   7.823  11.312
14482SOL    HW145343   4.891   7.847  11.367
14482SOL    HW245344   4.959   7.728  11.302
14483SOL     OW45345   4.762  11.947   1.820
14483SOL    HW145346   4.764  11.950   1.724
14483SOL    HW245347   4.676  11.911   1.841
14484SOL     OW45348   5.929  12.169   2.786
14484SOL    HW145349   5.931  12.111   2.711
14484SOL    HW245350   5.874  12.124   2.850
14485SOL     OW45351  12.245   7.421   9.386
14485SOL    HW145352  12.273   7.495   9.439
14485SOL    HW245353  12.325   7.388   9.345
14486SOL     OW45354   8.104   6.753   8.641
14486SOL    HW145355   8.185   6.751   8.691
14486SOL    HW245356   8.094   6.663   8.609
14487SOL     OW45357   4.015   2.624   2.777
14487SOL    HW145358   4.008   2.689   2.847
14487SOL    HW245359   3.967   2.662   2.703
14488SOL     OW45360   6.940  14.387   3.505
14488SOL    HW145361   6.864  14.328   3.504
14488SOL    HW245362   7.013  14.331   3.532
14489SOL     OW45363   0.855   8.539  11.773
14489SOL    HW145364   0.798   8.544  11.850
14489SOL    HW245365   0.904   8.458  11.785
14490SOL     OW45366   9.409  13.948   6.121
14490SOL    HW145367   9.363  13.965   6.039
14490SOL    HW245368   9.414  13.853   6.127
14491SOL     OW45369   1.307   5.809   9.873
14491SOL    HW145370   1.353   5.858   9.941
14491SOL    HW245371   1.295   5.721   9.910
14492SOL     OW45372   4.757   8.766   5.469
14492SOL    HW145373   4.745   8.828   5.541
14492SOL    HW245374   4.694   8.696   5.486
14493SOL     OW45375  14.772  10.988   3.810
14493SOL    HW145376  14.738  10.902   3.785
14493SOL    HW245377  14.720  11.013   3.886
14494SOL     OW45378  14.564   4.745   0.884
14494SOL    HW145379  14.619   4.707   0.816
14494SOL    HW245380  14.480   4.759   0.842
14495SOL     OW45381  12.810   2.966   9.754
14495SOL    HW145382  12.799   2.927   9.667
14495SOL    HW245383  12.889   2.926   9.789
14496SOL     OW45384   6.723   6.179   9.988
14496SOL    HW145385   6.710   6.245  10.055
14496SOL    HW245386   6.796   6.212   9.935
14497SOL     OW45387  13.806   7.842   8.183
14497SOL    HW145388  13.839   7.909   8.123
14497SOL    HW245389  13.775   7.772   8.126
14498SOL     OW45390   4.165   8.849   2.086
14498SOL    HW145391   4.174   8.759   2.117
14498SOL    HW245392   4.072   8.869   2.098
14499SOL     OW45393   3.961  13.245  10.480
14499SOL    HW145394   3.940  13.179  10.546
14499SOL    HW245395   3.986  13.322  10.531
14500SOL     OW45396   0.631  10.720   2.951
14500SOL    HW145397   0.650  10.746   3.041
14500SOL    HW245398   0.596  10.631   2.958
14501SOL     OW45399   6.382   9.485  12.495
14501SOL    HW145400   6.307   9.471  12.553
14501SOL    HW245401   6.392   9.401  12.449
14502SOL     OW45402  14.838   7.727  10.269
14502SOL    HW145403  14.827   7.763  10.357
14502SOL    HW245404   0.007   7.646  10.282
14503SOL     OW45405   7.567   5.228   8.747
14503SOL    HW145406   7.638   5.164   8.754
14503SOL    HW245407   7.611   5.310   8.724
14504SOL     OW45408  11.448  11.287   9.443
14504SOL    HW145409  11.510  11.332   9.385
14504SOL    HW245410  11.412  11.217   9.389
14505SOL     OW45411   8.776  12.371   5.411
14505SOL    HW145412   8.765  12.295   5.469
14505SOL    HW245413   8.701  12.366   5.352
14506SOL     OW45414  10.293   0.095  13.018
14506SOL    HW145415  10.299   0.058  13.106
14506SOL    HW245416  10.348   0.173  13.022
14507SOL     OW45417   7.089  11.900  13.247
14507SOL    HW145418   7.031  11.976  13.236
14507SOL    HW245419   7.036  11.838  13.297
14508SOL     OW45420   2.260   9.119   3.157
14508SOL    HW145421   2.169   9.149   3.157
14508SOL    HW245422   2.308   9.187   3.205
14509SOL     OW45423   8.552   4.589   2.970
14509SOL    HW145424   8.601   4.537   2.907
14509SOL    HW245425   8.598   4.672   2.974
14510SOL     OW45426   2.955   7.395  10.847
14510SOL    HW145427   2.984   7.342  10.773
14510SOL    HW245428   2.895   7.459  10.809
14511SOL     OW45429  10.247  13.434  10.347
14511SOL    HW145430  10.269  13.357  10.293
14511SOL    HW245431  10.181  13.480  10.296
14512SOL     OW45432   8.660   4.040   0.086
14512SOL    HW145433   8.649   4.092   0.165
14512SOL    HW245434   8.575   3.999   0.072
14513SOL     OW45435   7.199   6.267  10.656
14513SOL    HW145436   7.259   6.329  10.697
14513SOL    HW245437   7.178   6.204  10.725
14514SOL     OW45438   7.801  10.273   3.877
14514SOL    HW145439   7.812  10.333   3.951
14514SOL    HW245440   7.720  10.226   3.897
14515SOL     OW45441   2.620  12.427   8.368
14515SOL    HW145442   2.716  12.428   8.368
14515SOL    HW245443   2.596  12.402   8.457
14516SOL     OW45444   7.753   1.343   9.191
14516SOL    HW145445   7.726   1.318   9.279
14516SOL    HW245446   7.761   1.439   9.195
14517SOL     OW45447   5.101   1.222   5.388
14517SOL    HW145448   5.159   1.148   5.408
14517SOL    HW245449   5.092   1.221   5.293
14518SOL     OW45450  12.872  14.080   9.824
14518SOL    HW145451  12.916  14.129   9.893
14518SOL    HW245452  12.872  13.989   9.855
14519SOL     OW45453  13.642   5.494   9.620
14519SOL    HW145454  13.564   5.479   9.566
14519SOL    HW245455  13.631   5.583   9.653
14520SOL     OW45456   7.064   6.049   7.908
14520SOL    HW145457   7.074   6.032   7.814
14520SOL    HW245458   6.969   6.053   7.921
14521SOL     OW45459   1.902   6.534   6.288
14521SOL    HW145460   1.813   6.528   6.325
14521SOL    HW245461   1.915   6.628   6.274
14522SOL     OW45462   8.032   0.735  10.596
14522SOL    HW145463   8.057   0.761  10.507
14522SOL    HW245464   8.087   0.659  10.614
14523SOL     OW45465   7.249   8.784   9.303
14523SOL    HW145466   7.250   8.825   9.390
14523SOL    HW245467   7.158   8.759   9.289
14524SOL     OW45468   7.872  14.834   0.530
14524SOL    HW145469   7.857  14.792   0.615
14524SOL    HW245470   7.838   0.043   0.539
14525SOL     OW45471  14.200  14.709  14.453
14525SOL    HW145472  14.167  14.690  14.541
14525SOL    HW245473  14.233  14.625  14.421
14526SOL     OW45474   2.894   7.433   1.763
14526SOL    HW145475   2.986   7.454   1.775
14526SOL    HW245476   2.865   7.403   1.850
14527SOL     OW45477   4.461   8.348   0.416
14527SOL    HW145478   4.532   8.395   0.459
14527SOL    HW245479   4.491   8.335   0.326
14528SOL     OW45480  13.337   7.659   0.217
14528SOL    HW145481  13.421   7.668   0.171
14528SOL    HW245482  13.272   7.686   0.153
14529SOL     OW45483   3.477   9.429   2.692
14529SOL    HW145484   3.559   9.444   2.646
14529SOL    HW245485   3.479   9.336   2.716
14530SOL     OW45486   3.895  10.826   8.509
14530SOL    HW145487   3.916  10.754   8.450
14530SOL    HW245488   3.876  10.900   8.450
14531SOL     OW45489  13.846   4.791  10.205
14531SOL    HW145490  13.885   4.748  10.129
14531SOL    HW245491  13.754   4.766  10.202
14532SOL     OW45492   1.130  13.905   8.716
14532SOL    HW145493   1.163  13.817   8.694
14532SOL    HW245494   1.062  13.921   8.651
14533SOL     OW45495  13.685   4.143  10.466
14533SOL    HW145496  13.614   4.204  10.485
14533SOL    HW245497  13.735   4.185  10.396
14534SOL     OW45498   4.998   5.372   4.034
14534SOL    HW145499   4.956   5.286   4.036
14534SOL    HW245500   4.936   5.427   3.985
14535SOL     OW45501  10.554   3.655  12.330
14535SOL    HW145502  10.503   3.575  12.338
14535SOL    HW245503  10.510   3.718  12.386
14536SOL     OW45504  13.455  14.449  13.334
14536SOL    HW145505  13.537  14.495  13.319
14536SOL    HW245506  13.394  14.517  13.361
14537SOL     OW45507   3.833   5.053  13.602
14537SOL    HW145508   3.891   5.089  13.669
14537SOL    HW245509   3.872   4.970  13.577
14538SOL     OW45510   0.186   7.531  12.811
14538SOL    HW145511   0.149   7.618  12.825
14538SOL    HW245512   0.208   7.528  12.718
14539SOL     OW45513   7.793   2.879  12.354
14539SOL    HW145514   7.710   2.866  12.400
14539SOL    HW245515   7.784   2.963  12.310
14540SOL     OW45516  13.516   5.493   6.092
14540SOL    HW145517  13.595   5.537   6.124
14540SOL    HW245518  13.516   5.409   6.137
14541SOL     OW45519   9.994   3.149   1.697
14541SOL    HW145520  10.018   3.227   1.646
14541SOL    HW245521  10.073   3.097   1.699
14542SOL     OW45522   3.242  12.956   7.311
14542SOL    HW145523   3.206  13.037   7.275
14542SOL    HW245524   3.296  12.920   7.241
14543SOL     OW45525   2.914   4.621   6.542
14543SOL    HW145526   3.008   4.638   6.530
14543SOL    HW245527   2.877   4.632   6.455
14544SOL     OW45528   4.913   5.055   2.059
14544SOL    HW145529   4.928   4.996   2.133
14544SOL    HW245530   4.949   5.139   2.088
14545SOL     OW45531   9.767   9.519   1.322
14545SOL    HW145532   9.740   9.609   1.305
14545SOL    HW245533   9.688   9.467   1.311
14546SOL     OW45534   2.723   2.273   6.012
14546SOL    HW145535   2.812   2.285   6.045
14546SOL    HW245536   2.720   2.180   5.987
14547SOL     OW45537  14.552  11.046  10.547
14547SOL    HW145538  14.494  11.044  10.471
14547SOL    HW245539  14.565  11.140  10.564
14548SOL     OW45540  10.514   7.278   9.514
14548SOL    HW145541  10.507   7.275   9.610
14548SOL    HW245542  10.606   7.298   9.497
14549SOL     OW45543   4.008   9.301  12.819
14549SOL    HW145544   4.027   9.319  12.911
14549SOL    HW245545   4.073   9.237  12.793
14550SOL     OW45546  13.661   9.760   6.987
14550SOL    HW145547  13.679   9.676   7.030
14550SOL    HW245548  13.726   9.820   7.024
14551SOL     OW45549   6.281   6.003   0.264
14551SOL    HW145550   6.208   6.054   0.298
14551SOL    HW245551   6.330   6.064   0.209
14552SOL     OW45552   4.557   0.803   3.535
14552SOL    HW145553   4.591   0.776   3.621
14552SOL    HW245554   4.633   0.841   3.490
14553SOL     OW45555  10.435   4.795   8.058
14553SOL    HW145556  10.384   4.744   7.995
14553SOL    HW245557  10.520   4.806   8.015
14554SOL     OW45558   7.493   2.242  13.618
14554SOL    HW145559   7.496   2.175  13.550
14554SOL    HW245560   7.411   2.289  13.602
14555SOL     OW45561   5.414   5.034  11.291
14555SOL    HW145562   5.372   5.086  11.222
14555SOL    HW245563   5.420   5.094  11.366
14556SOL     OW45564   2.747  13.441   9.796
14556SOL    HW145565   2.666  13.492   9.805
14556SOL    HW245566   2.725  13.370   9.736
14557SOL     OW45567   4.525   9.709   2.007
14557SOL    HW145568   4.591   9.773   1.981
14557SOL    HW245569   4.549   9.682   2.095
14558SOL     OW45570  11.475  14.105   6.302
14558SOL    HW145571  11.562  14.135   6.330
14558SOL    HW245572  11.444  14.052   6.376
14559SOL     OW45573   9.343  11.601   1.338
14559SOL    HW145574   9.389  11.678   1.305
14559SOL    HW245575   9.408  11.531   1.334
14560SOL     OW45576  13.547   0.773  12.373
14560SOL    HW145577  13.560   0.679  12.376
14560SOL    HW245578  13.533   0.793  12.281
14561SOL     OW45579   0.939  10.536   9.703
14561SOL    HW145580   0.918  10.527   9.796
14561SOL    HW245581   0.910  10.454   9.664
14562SOL     OW45582   4.661   5.186  13.396
14562SOL    HW145583   4.638   5.270  13.435
14562SOL    HW245584   4.745   5.163  13.437
14563SOL     OW45585   2.805   9.218  11.465
14563SOL    HW145586   2.864   9.291  11.445
14563SOL    HW245587   2.855   9.163  11.525
14564SOL     OW45588   4.561  12.601  12.127
14564SOL    HW145589   4.564  12.507  12.109
14564SOL    HW245590   4.554  12.642  12.041
14565SOL     OW45591   7.516   6.942   0.939
14565SOL    HW145592   7.473   6.967   0.858
14565SOL    HW245593   7.469   6.863   0.968
14566SOL     OW45594  13.588  12.364   9.195
14566SOL    HW145595  13.596  12.446   9.242
14566SOL    HW245596  13.651  12.305   9.238
14567SOL     OW45597   2.890   7.633  11.368
14567SOL    HW145598   2.975   7.651  11.408
14567SOL    HW245599   2.843   7.582  11.434
14568SOL     OW45600   0.489  14.654   1.960
14568SOL    HW145601   0.471  14.696   1.876
14568SOL    HW245602   0.577  14.619   1.951
14569SOL     OW45603   5.763   5.107  14.140
14569SOL    HW145604   5.719   5.110  14.225
14569SOL    HW245605   5.692   5.107  14.076
14570SOL     OW45606   0.510   6.969   7.199
14570SOL    HW145607   0.522   6.930   7.286
14570SOL    HW245608   0.594   6.955   7.156
14571SOL     OW45609   1.979   0.451  13.827
14571SOL    HW145610   2.017   0.519  13.883
14571SOL    HW245611   2.017   0.370  13.860
14572SOL     OW45612   5.125  10.811  13.507
14572SOL    HW145613   5.187  10.873  13.470
14572SOL    HW245614   5.039  10.850  13.490
14573SOL     OW45615   5.593  12.155  13.862
14573SOL    HW145616   5.555  12.234  13.824
14573SOL    HW245617   5.518  12.101  13.887
14574SOL     OW45618   9.432  12.085   4.344
14574SOL    HW145619   9.369  12.029   4.299
14574SOL    HW245620   9.517  12.044   4.326
14575SOL     OW45621  14.726  10.211   5.781
14575SOL    HW145622  14.637  10.235   5.758
14575SOL    HW245623  14.719  10.122   5.814
14576SOL     OW45624   2.656   4.439  14.822
14576SOL    HW145625   2.622   4.516  14.776
14576SOL    HW245626   2.694   4.385  14.753
14577SOL     OW45627   5.909  11.093   0.038
14577SOL    HW145628   5.835  11.088   0.098
14577SOL    HW245629   5.879  11.048  14.839
14578SOL     OW45630   7.849   0.080   7.961
14578SOL    HW145631   7.935   0.056   7.994
14578SOL    HW245632   7.865   0.117   7.875
14579SOL     OW45633  14.054   1.858  11.663
14579SOL    HW145634  13.982   1.841  11.723
14579SOL    HW245635  14.121   1.901  11.718
14580SOL     OW45636   3.681  12.643   1.980
14580SOL    HW145637   3.698  12.628   2.073
14580SOL    HW245638   3.761  12.686   1.948
14581SOL     OW45639   7.675   1.885   2.269
14581SOL    HW145640   7.629   1.939   2.205
14581SOL    HW245641   7.768   1.905   2.256
14582SOL     OW45642   9.877   6.627  12.600
14582SOL    HW145643   9.930   6.648  12.523
14582SOL    HW245644   9.808   6.694  12.601
14583SOL     OW45645   4.502   3.278   6.476
14583SOL    HW145646   4.464   3.340   6.415
14583SOL    HW245647   4.537   3.331   6.547
14584SOL     OW45648   2.994   0.757  10.369
14584SOL    HW145649   3.029   0.696  10.304
14584SOL    HW245650   3.068   0.778  10.425
14585SOL     OW45651   3.366   5.468   6.635
14585SOL    HW145652   3.351   5.373   6.632
14585SOL    HW245653   3.461   5.477   6.646
14586SOL     OW45654  11.733   8.375  11.442
14586SOL    HW145655  11.758   8.320  11.516
14586SOL    HW245656  11.643   8.348  11.421
14587SOL     OW45657   9.234   5.272  14.549
14587SOL    HW145658   9.278   5.201  14.596
14587SOL    HW245659   9.157   5.231  14.511
14588SOL     OW45660   9.847  13.068  13.550
14588SOL    HW145661   9.858  13.095  13.458
14588SOL    HW245662   9.882  12.980  13.553
14589SOL     OW45663   5.342   2.341   3.801
14589SOL    HW145664   5.253   2.329   3.766
14589SOL    HW245665   5.399   2.309   3.731
14590SOL     OW45666  10.394   3.223   3.622
14590SOL    HW145667  10.424   3.132   3.622
14590SOL    HW245668  10.451   3.266   3.687
14591SOL     OW45669   5.185   0.156   8.025
14591SOL    HW145670   5.253   0.223   8.012
14591SOL    HW245671   5.205   0.118   8.111
14592SOL     OW45672  12.609   9.442   3.899
14592SOL    HW145673  12.703   9.442   3.878
14592SOL    HW245674  12.588   9.350   3.916
14593SOL     OW45675   3.172  14.405  13.038
14593SOL    HW145676   3.145  14.326  12.991
14593SOL    HW245677   3.091  14.444  13.069
14594SOL     OW45678  13.238   4.151   3.746
14594SOL    HW145679  13.243   4.241   3.712
14594SOL    HW245680  13.144   4.135   3.756
14595SOL     OW45681  11.986  12.784   6.749
14595SOL    HW145682  11.897  12.784   6.715
14595SOL    HW245683  12.006  12.691   6.760
14596SOL     OW45684   8.892   4.943   8.617
14596SOL    HW145685   8.974   4.932   8.568
14596SOL    HW245686   8.825   4.953   8.549
14597SOL     OW45687  12.065  10.263  13.260
14597SOL    HW145688  11.989  10.254  13.203
14597SOL    HW245689  12.048  10.344  13.309
14598SOL     OW45690  13.718  11.245  10.466
14598SOL    HW145691  13.697  11.272  10.555
14598SOL    HW245692  13.812  11.256  10.458
14599SOL     OW45693  10.615   4.769   8.601
14599SOL    HW145694  10.664   4.851   8.606
14599SOL    HW245695  10.543   4.789   8.540
14600SOL     OW45696   5.175   9.227  11.165
14600SOL    HW145697   5.216   9.181  11.238
14600SOL    HW245698   5.248   9.272  11.121
14601SOL     OW45699   5.699  10.271  10.378
14601SOL    HW145700   5.772  10.249  10.321
14601SOL    HW245701   5.739  10.318  10.451
14602SOL     OW45702   2.841   2.919   8.213
14602SOL    HW145703   2.842   2.847   8.275
14602SOL    HW245704   2.811   2.880   8.131
14603SOL     OW45705   4.060   5.207   7.686
14603SOL    HW145706   4.156   5.211   7.684
14603SOL    HW245707   4.031   5.282   7.633
14604SOL     OW45708   6.161   9.461   0.953
14604SOL    HW145709   6.101   9.407   1.004
14604SOL    HW245710   6.227   9.490   1.016
14605SOL     OW45711   2.842   9.296   3.279
14605SOL    HW145712   2.936   9.302   3.297
14605SOL    HW245713   2.817   9.210   3.310
14606SOL     OW45714   8.897   3.219   7.811
14606SOL    HW145715   8.959   3.149   7.791
14606SOL    HW245716   8.823   3.203   7.753
14607SOL     OW45717   1.897   7.197  10.102
14607SOL    HW145718   1.978   7.149  10.086
14607SOL    HW245719   1.924   7.289  10.106
14608SOL     OW45720  13.881   7.124   6.238
14608SOL    HW145721  13.926   7.043   6.262
14608SOL    HW245722  13.892   7.130   6.143
14609SOL     OW45723  10.007  13.401   5.065
14609SOL    HW145724  10.052  13.481   5.090
14609SOL    HW245725  10.073  13.332   5.074
14610SOL     OW45726   1.797  12.525  10.017
14610SOL    HW145727   1.751  12.609  10.022
14610SOL    HW245728   1.886  12.548   9.990
14611SOL     OW45729   9.770   4.725  11.044
14611SOL    HW145730   9.690   4.718  10.993
14611SOL    HW245731   9.748   4.785  11.115
14612SOL     OW45732   9.877  12.174   3.905
14612SOL    HW145733   9.910  12.196   3.993
14612SOL    HW245734   9.883  12.256   3.856
14613SOL     OW45735   6.491  14.236   5.708
14613SOL    HW145736   6.399  14.210   5.714
14613SOL    HW245737   6.515  14.219   5.617
14614SOL     OW45738  10.632   2.560   4.293
14614SOL    HW145739  10.698   2.607   4.242
14614SOL    HW245740  10.617   2.479   4.243
14615SOL     OW45741   3.162   2.240   0.563
14615SOL    HW145742   3.128   2.314   0.512
14615SOL    HW245743   3.101   2.231   0.636
14616SOL     OW45744   7.548   3.702   0.482
14616SOL    HW145745   7.506   3.763   0.422
14616SOL    HW245746   7.483   3.687   0.551
14617SOL     OW45747   8.765   4.637   9.982
14617SOL    HW145748   8.683   4.588   9.994
14617SOL    HW245749   8.827   4.592  10.039
14618SOL     OW45750   6.900  11.187   8.589
14618SOL    HW145751   6.909  11.264   8.533
14618SOL    HW245752   6.970  11.195   8.653
14619SOL     OW45753  14.775   7.845   4.353
14619SOL    HW145754  14.681   7.843   4.336
14619SOL    HW245755  14.800   7.936   4.336
14620SOL     OW45756   5.290   0.090  10.701
14620SOL    HW145757   5.216   0.051  10.654
14620SOL    HW245758   5.368   0.051  10.660
14621SOL     OW45759   3.547  12.262  14.056
14621SOL    HW145760   3.462  12.305  14.067
14621SOL    HW245761   3.559  12.258  13.961
14622SOL     OW45762   9.343   3.115   3.001
14622SOL    HW145763   9.273   3.063   2.961
14622SOL    HW245764   9.322   3.115   3.094
14623SOL     OW45765   9.062   0.248  13.585
14623SOL    HW145766   9.101   0.161  13.594
14623SOL    HW245767   8.982   0.244  13.637
14624SOL     OW45768  11.923   8.884   1.357
14624SOL    HW145769  12.015   8.891   1.384
14624SOL    HW245770  11.919   8.929   1.273
14625SOL     OW45771   5.754  10.263   9.250
14625SOL    HW145772   5.759  10.171   9.223
14625SOL    HW245773   5.812  10.269   9.326
14626SOL     OW45774   2.158   7.942   8.712
14626SOL    HW145775   2.196   7.868   8.664
14626SOL    HW245776   2.176   7.924   8.804
14627SOL     OW45777   9.611   3.427  12.289
14627SOL    HW145778   9.530   3.424  12.239
14627SOL    HW245779   9.602   3.356  12.353
14628SOL     OW45780  11.715  14.340   6.182
14628SOL    HW145781  11.703  14.273   6.114
14628SOL    HW245782  11.640  14.399   6.171
14629SOL     OW45783   0.907   9.749   8.195
14629SOL    HW145784   0.928   9.789   8.279
14629SOL    HW245785   0.939   9.811   8.130
14630SOL     OW45786   5.719  13.796   5.600
14630SOL    HW145787   5.650  13.810   5.665
14630SOL    HW245788   5.674  13.759   5.524
14631SOL     OW45789  11.611   3.913  11.681
14631SOL    HW145790  11.559   3.868  11.615
14631SOL    HW245791  11.561   3.902  11.762
14632SOL     OW45792  12.538  13.298   6.568
14632SOL    HW145793  12.582  13.361   6.510
14632SOL    HW245794  12.573  13.213   6.541
14633SOL     OW45795   3.003   0.540  13.161
14633SOL    HW145796   3.026   0.474  13.227
14633SOL    HW245797   2.978   0.490  13.084
14634SOL     OW45798   6.577  12.439  10.859
14634SOL    HW145799   6.592  12.442  10.954
14634SOL    HW245800   6.625  12.362  10.830
14635SOL     OW45801  11.292   0.989  12.374
14635SOL    HW145802  11.364   0.977  12.436
14635SOL    HW245803  11.260   0.900  12.357
14636SOL     OW45804   3.188   5.204   6.821
14636SOL    HW145805   3.231   5.172   6.742
14636SOL    HW245806   3.095   5.191   6.804
14637SOL     OW45807  12.539   8.383   2.301
14637SOL    HW145808  12.603   8.346   2.240
14637SOL    HW245809  12.589   8.397   2.381
14638SOL     OW45810   0.108   6.095   3.498
14638SOL    HW145811   0.072   6.090   3.409
14638SOL    HW245812   0.197   6.062   3.490
14639SOL     OW45813   9.964  12.555   8.851
14639SOL    HW145814   9.940  12.496   8.780
14639SOL    HW245815   9.995  12.498   8.921
14640SOL     OW45816   0.057   1.026  13.485
14640SOL    HW145817  14.852   1.042  13.526
14640SOL    HW245818   0.081   1.110  13.445
14641SOL     OW45819   9.915  14.147  12.546
14641SOL    HW145820   9.879  14.235  12.556
14641SOL    HW245821  10.010  14.161  12.541
14642SOL     OW45822   1.405  13.704  11.423
14642SOL    HW145823   1.408  13.798  11.404
14642SOL    HW245824   1.417  13.662  11.337
14643SOL     OW45825   0.982  11.302   4.658
14643SOL    HW145826   1.062  11.259   4.688
14643SOL    HW245827   0.924  11.303   4.734
14644SOL     OW45828   1.145   0.187  14.734
14644SOL    HW145829   1.214   0.152  14.677
14644SOL    HW245830   1.192   0.220  14.810
14645SOL     OW45831  11.361  12.704  14.813
14645SOL    HW145832  11.435  12.679  14.758
14645SOL    HW245833  11.332  12.621  14.852
14646SOL     OW45834  10.169   4.192   4.347
14646SOL    HW145835  10.130   4.229   4.268
14646SOL    HW245836  10.103   4.132   4.381
14647SOL     OW45837   9.094   8.928   7.414
14647SOL    HW145838   9.130   8.988   7.348
14647SOL    HW245839   9.114   8.970   7.498
14648SOL     OW45840   5.902  10.772   8.241
14648SOL    HW145841   5.884  10.866   8.248
14648SOL    HW245842   5.866  10.735   8.321
14649SOL     OW45843  14.103   5.896   3.865
14649SOL    HW145844  14.078   5.902   3.773
14649SOL    HW245845  14.030   5.849   3.906
14650SOL     OW45846   8.575   2.977   8.350
14650SOL    HW145847   8.652   2.943   8.397
14650SOL    HW245848   8.510   2.907   8.357
14651SOL     OW45849  11.984   4.085  11.038
14651SOL    HW145850  12.030   4.152  10.987
14651SOL    HW245851  11.896   4.083  11.000
14652SOL     OW45852   7.799   8.046  14.482
14652SOL    HW145853   7.751   8.123  14.512
14652SOL    HW245854   7.891   8.070  14.494
14653SOL     OW45855   2.047   6.036   1.479
14653SOL    HW145856   2.024   6.047   1.386
14653SOL    HW245857   2.132   6.080   1.487
14654SOL     OW45858   4.145   8.527  14.239
14654SOL    HW145859   4.144   8.457  14.305
14654SOL    HW245860   4.193   8.598  14.280
14655SOL     OW45861   9.307  13.506  14.421
14655SOL    HW145862   9.328  13.413  14.430
14655SOL    HW245863   9.383  13.544  14.376
14656SOL     OW45864  10.807   8.310   6.367
14656SOL    HW145865  10.810   8.314   6.463
14656SOL    HW245866  10.815   8.402   6.340
14657SOL     OW45867   5.214  13.510  11.527
14657SOL    HW145868   5.292  13.527  11.580
14657SOL    HW245869   5.220  13.416  11.507
14658SOL     OW45870   7.648   1.996   2.557
14658SOL    HW145871   7.668   2.075   2.507
14658SOL    HW245872   7.630   1.929   2.490
14659SOL     OW45873  11.254   9.363  11.093
14659SOL    HW145874  11.162   9.358  11.069
14659SOL    HW245875  11.294   9.287  11.050
14660SOL     OW45876   4.752  12.204   4.843
14660SOL    HW145877   4.800  12.134   4.799
14660SOL    HW245878   4.733  12.168   4.930
14661SOL     OW45879  12.802  12.529  14.272
14661SOL    HW145880  12.885  12.574  14.259
14661SOL    HW245881  12.826  12.436  14.272
14662SOL     OW45882   1.357   4.226   6.914
14662SOL    HW145883   1.262   4.240   6.920
14662SOL    HW245884   1.389   4.303   6.867
14663SOL     OW45885  13.921   5.586   7.672
14663SOL    HW145886  13.984   5.609   7.604
14663SOL    HW245887  13.863   5.522   7.631
14664SOL     OW45888   6.952  14.241   6.755
14664SOL    HW145889   6.936  14.233   6.849
14664SOL    HW245890   6.969  14.151   6.726
14665SOL     OW45891   6.773  11.227  10.213
14665SOL    HW145892   6.794  11.220  10.120
14665SOL    HW245893   6.686  11.187  10.221
14666SOL     OW45894  14.693  12.970  12.928
14666SOL    HW145895  14.660  13.041  12.983
14666SOL    HW245896  14.772  12.939  12.973
14667SOL     OW45897  13.896   3.765   1.213
14667SOL    HW145898  13.921   3.696   1.274
14667SOL    HW245899  13.937   3.739   1.130
14668SOL     OW45900   0.733   3.474  12.870
14668SOL    HW145901   0.691   3.538  12.813
14668SOL    HW245902   0.792   3.525  12.925
14669SOL     OW45903   5.270  11.128  10.848
14669SOL    HW145904   5.189  11.132  10.900
14669SOL    HW245905   5.313  11.048  10.878
14670SOL     OW45906  13.060  14.874   0.701
14670SOL    HW145907  13.126   0.003   0.632
14670SOL    HW245908  13.053   0.081   0.740
14671SOL     OW45909   0.727  10.468  12.487
14671SOL    HW145910   0.639  10.433  12.469
14671SOL    HW245911   0.734  10.545  12.431
14672SOL     OW45912  14.450   1.934   0.422
14672SOL    HW145913  14.515   1.993   0.383
14672SOL    HW245914  14.402   1.898   0.348
14673SOL     OW45915  12.571   3.837  13.274
14673SOL    HW145916  12.585   3.798  13.188
14673SOL    HW245917  12.648   3.892  13.288
14674SOL     OW45918  12.920   3.089   7.405
14674SOL    HW145919  12.837   3.065   7.364
14674SOL    HW245920  12.921   3.040   7.488
14675SOL     OW45921   0.194   2.857  13.827
14675SOL    HW145922   0.278   2.902  13.834
14675SOL    HW245923   0.217   2.764  13.816
14676SOL     OW45924   3.359   6.126  11.703
14676SOL    HW145925   3.453   6.108  11.715
14676SOL    HW245926   3.333   6.172  11.782
14677SOL     OW45927   3.632  13.426  10.573
14677SOL    HW145928   3.683  13.452  10.496
14677SOL    HW245929   3.664  13.338  10.594
14678SOL     OW45930   6.082   4.176  11.069
14678SOL    HW145931   6.045   4.196  10.983
14678SOL    HW245932   6.102   4.261  11.107
14679SOL     OW45933   0.841   6.343  13.249
14679SOL    HW145934   0.931   6.362  13.222
14679SOL    HW245935   0.840   6.362  13.343
14680SOL     OW45936   5.464  14.804   6.978
14680SOL    HW145937   5.383  14.797   7.028
14680SOL    HW245938   5.454   0.005   6.927
14681SOL     OW45939   8.092   0.485   8.649
14681SOL    HW145940   7.999   0.483   8.626
14681SOL    HW245941   8.106   0.405   8.700
14682SOL     OW45942  11.530   0.393  14.880
14682SOL    HW145943  11.466   0.323  14.873
14682SOL    HW245944  11.484   0.465   0.043
14683SOL     OW45945  10.057  13.647   8.277
14683SOL    HW145946  10.066  13.552   8.280
14683SOL    HW245947  10.084  13.676   8.364
14684SOL     OW45948  11.181  14.166   6.853
14684SOL    HW145949  11.088  14.177   6.833
14684SOL    HW245950  11.222  14.247   6.824
14685SOL     OW45951   1.966   1.097   1.153
14685SOL    HW145952   2.022   1.019   1.154
14685SOL    HW245953   1.983   1.140   1.237
14686SOL     OW45954   8.894   0.467   9.050
14686SOL    HW145955   8.954   0.424   8.989
14686SOL    HW245956   8.810   0.423   9.036
14687SOL     OW45957  13.408   8.729   2.436
14687SOL    HW145958  13.380   8.755   2.523
14687SOL    HW245959  13.412   8.634   2.439
14688SOL     OW45960   0.044   2.470   8.806
14688SOL    HW145961  14.878   2.521   8.739
14688SOL    HW245962   0.069   2.389   8.761
14689SOL     OW45963   1.431   7.194  11.148
14689SOL    HW145964   1.425   7.214  11.055
14689SOL    HW245965   1.345   7.218  11.183
14690SOL     OW45966  10.926  14.215   8.148
14690SOL    HW145967  10.947  14.154   8.220
14690SOL    HW245968  10.977  14.294   8.168
14691SOL     OW45969   6.995   0.248  14.025
14691SOL    HW145970   7.033   0.305  14.092
14691SOL    HW245971   6.930   0.302  13.982
14692SOL     OW45972  10.193   8.748  11.823
14692SOL    HW145973  10.191   8.652  11.828
14692SOL    HW245974  10.219   8.775  11.911
14693SOL     OW45975   7.939  10.670   4.861
14693SOL    HW145976   7.880  10.692   4.933
14693SOL    HW245977   7.939  10.574   4.858
14694SOL     OW45978   5.916   1.711  14.567
14694SOL    HW145979   5.874   1.794  14.586
14694SOL    HW245980   5.890   1.653  14.639
14695SOL     OW45981   9.648   6.548  14.008
14695SOL    HW145982   9.735   6.528  14.044
14695SOL    HW245983   9.663   6.622  13.950
14696SOL     OW45984  10.690   3.155   6.734
14696SOL    HW145985  10.634   3.079   6.723
14696SOL    HW245986  10.632   3.230   6.724
14697SOL     OW45987  11.859   0.871  13.505
14697SOL    HW145988  11.862   0.955  13.550
14697SOL    HW245989  11.945   0.862  13.464
14698SOL     OW45990   0.533   5.589   1.864
14698SOL    HW145991   0.540   5.682   1.840
14698SOL    HW245992   0.489   5.590   1.949
14699SOL     OW45993   6.869   3.219  13.023
14699SOL    HW145994   6.787   3.252  12.987
14699SOL    HW245995   6.925   3.296  13.031
14700SOL     OW45996  14.822   3.181   5.011
14700SOL    HW145997   0.022   3.128   5.019
14700SOL    HW245998  14.782   3.153   4.929
14701SOL     OW45999   7.909   5.063  10.922
14701SOL    HW146000   7.959   5.125  10.976
14701SOL    HW246001   7.974   5.026  10.862
14702SOL     OW46002   9.223   5.458   5.686
14702SOL    HW146003   9.161   5.511   5.637
14702SOL    HW246004   9.226   5.498   5.773
14703SOL     OW46005   6.197  12.561  11.469
14703SOL    HW146006   6.119  12.569  11.525
14703SOL    HW246007   6.206  12.647  11.429
14704SOL     OW46008   6.080   8.062  12.243
14704SOL    HW146009   6.024   8.139  12.234
14704SOL    HW246010   6.048   8.001  12.177
14705SOL     OW46011   6.095   8.719   7.332
14705SOL    HW146012   6.017   8.721   7.277
14705SOL    HW246013   6.073   8.775   7.407
14706SOL     OW46014   4.680  14.231   3.081
14706SOL    HW146015   4.730  14.222   3.162
14706SOL    HW246016   4.596  14.191   3.100
14707SOL     OW46017   9.762   3.083   3.310
14707SOL    HW146018   9.842   3.109   3.264
14707SOL    HW246019   9.746   2.993   3.281
14708SOL     OW46020   1.768  10.671   9.937
14708SOL    HW146021   1.829  10.731   9.979
14708SOL    HW246022   1.686  10.681   9.984
14709SOL     OW46023   4.553   9.637  14.257
14709SOL    HW146024   4.457   9.638  14.267
14709SOL    HW246025   4.584   9.701  14.321
14710SOL     OW46026  10.118  13.021  11.320
14710SOL    HW146027  10.117  13.048  11.412
14710SOL    HW246028  10.211  13.010  11.299
14711SOL     OW46029  12.429  14.577   1.885
14711SOL    HW146030  12.395  14.533   1.807
14711SOL    HW246031  12.481  14.511   1.930
14712SOL     OW46032   9.405   0.862   8.661
14712SOL    HW146033   9.381   0.954   8.649
14712SOL    HW246034   9.458   0.860   8.740
14713SOL     OW46035   0.291  10.597   5.146
14713SOL    HW146036   0.247  10.519   5.112
14713SOL    HW246037   0.274  10.665   5.081
14714SOL     OW46038   0.696   7.136   0.608
14714SOL    HW146039   0.761   7.205   0.594
14714SOL    HW246040   0.640   7.169   0.678
14715SOL     OW46041   3.223   5.941  11.907
14715SOL    HW146042   3.317   5.928  11.895
14715SOL    HW246043   3.183   5.898  11.831
14716SOL     OW46044   7.556   0.768   8.479
14716SOL    HW146045   7.527   0.677   8.489
14716SOL    HW246046   7.605   0.768   8.396
14717SOL     OW46047   8.318   2.545   9.457
14717SOL    HW146048   8.277   2.459   9.448
14717SOL    HW246049   8.381   2.535   9.529
14718SOL     OW46050  11.113   8.310   8.513
14718SOL    HW146051  11.060   8.233   8.490
14718SOL    HW246052  11.130   8.301   8.607
14719SOL     OW46053  13.944  11.091   2.329
14719SOL    HW146054  13.905  11.088   2.241
14719SOL    HW246055  14.017  11.030   2.325
14720SOL     OW46056  11.415   7.652  13.484
14720SOL    HW146057  11.396   7.572  13.533
14720SOL    HW246058  11.503   7.638  13.448
14721SOL     OW46059   1.694   6.413   5.769
14721SOL    HW146060   1.664   6.329   5.803
14721SOL    HW246061   1.679   6.475   5.841
14722SOL     OW46062   0.671   1.681  13.388
14722SOL    HW146063   0.735   1.645  13.327
14722SOL    HW246064   0.672   1.620  13.462
14723SOL     OW46065   3.151   4.377   3.551
14723SOL    HW146066   3.191   4.406   3.633
14723SOL    HW246067   3.083   4.443   3.533
14724SOL     OW46068   0.420  12.270  14.342
14724SOL    HW146069   0.404  12.250  14.434
14724SOL    HW246070   0.340  12.313  14.311
14725SOL     OW46071  14.048  14.806   9.905
14725SOL    HW146072  14.053  14.735   9.841
14725SOL    HW246073  14.019   0.002   9.855
14726SOL     OW46074   4.203   2.272  10.493
14726SOL    HW146075   4.139   2.266  10.564
14726SOL    HW246076   4.177   2.350  10.444
14727SOL     OW46077   2.694  13.545  14.783
14727SOL    HW146078   2.785  13.520  14.766
14727SOL    HW246079   2.671  13.495  14.862
14728SOL     OW46080   5.119   0.477  14.410
14728SOL    HW146081   5.045   0.432  14.368
14728SOL    HW246082   5.081   0.518  14.487
14729SOL     OW46083  14.117   2.906  13.269
14729SOL    HW146084  14.079   2.879  13.353
14729SOL    HW246085  14.156   2.991  13.286
14730SOL     OW46086  10.192   6.589  14.876
14730SOL    HW146087  10.203   6.681  14.853
14730SOL    HW246088  10.100   6.581   0.021
14731SOL     OW46089   3.375  10.184   7.566
14731SOL    HW146090   3.328  10.222   7.641
14731SOL    HW246091   3.444  10.131   7.605
14732SOL     OW46092   3.315   9.676   3.503
14732SOL    HW146093   3.250   9.635   3.560
14732SOL    HW246094   3.313   9.624   3.423
14733SOL     OW46095   7.553  14.795   9.840
14733SOL    HW146096   7.557  14.879   9.885
14733SOL    HW246097   7.567  14.730   9.908
14734SOL     OW46098   6.848   6.586   7.283
14734SOL    HW146099   6.843   6.528   7.359
14734SOL    HW246100   6.940   6.613   7.280
14735SOL     OW46101  10.310  12.503  14.229
14735SOL    HW146102  10.331  12.503  14.136
14735SOL    HW246103  10.396  12.502  14.272
14736SOL     OW46104   2.788   2.152   3.705
14736SOL    HW146105   2.789   2.191   3.792
14736SOL    HW246106   2.796   2.058   3.720
14737SOL     OW46107  13.506   9.358   6.692
14737SOL    HW146108  13.562   9.417   6.743
14737SOL    HW246109  13.519   9.272   6.732
14738SOL     OW46110  11.817  10.605   3.120
14738SOL    HW146111  11.860  10.592   3.205
14738SOL    HW246112  11.863  10.679   3.081
14739SOL     OW46113   7.399  14.607   0.083
14739SOL    HW146114   7.439  14.543   0.024
14739SOL    HW246115   7.338  14.656   0.028
14740SOL     OW46116  14.401  12.055   8.990
14740SOL    HW146117  14.392  12.097   8.905
14740SOL    HW246118  14.422  11.964   8.971
14741SOL     OW46119   4.991  14.038   7.305
14741SOL    HW146120   5.016  14.037   7.398
14741SOL    HW246121   5.070  14.013   7.258
14742SOL     OW46122   4.230  11.304  14.420
14742SOL    HW146123   4.186  11.363  14.358
14742SOL    HW246124   4.319  11.338  14.426
14743SOL     OW46125   0.532  14.448   9.048
14743SOL    HW146126   0.446  14.488   9.052
14743SOL    HW246127   0.592  14.521   9.034
14744SOL     OW46128   6.305   4.936  12.310
14744SOL    HW146129   6.211   4.943  12.295
14744SOL    HW246130   6.330   5.022  12.344
14745SOL     OW46131   1.686   4.605   6.335
14745SOL    HW146132   1.772   4.608   6.377
14745SOL    HW246133   1.680   4.688   6.287
14746SOL     OW46134   6.901  14.337   7.626
14746SOL    HW146135   6.936  14.247   7.628
14746SOL    HW246136   6.920  14.372   7.712
14747SOL     OW46137   6.421  13.472  14.615
14747SOL    HW146138   6.341  13.420  14.624
14747SOL    HW246139   6.490  13.415  14.650
14748SOL     OW46140  13.874   9.747   5.576
14748SOL    HW146141  13.879   9.702   5.660
14748SOL    HW246142  13.831   9.830   5.595
14749SOL     OW46143  14.190   7.806  11.220
14749SOL    HW146144  14.162   7.810  11.128
14749SOL    HW246145  14.261   7.869  11.226
14750SOL     OW46146  14.452   9.781   5.876
14750SOL    HW146147  14.481   9.750   5.790
14750SOL    HW246148  14.390   9.714   5.906
14751SOL     OW46149   1.081   4.412  12.838
14751SOL    HW146150   1.145   4.427  12.768
14751SOL    HW246151   1.125   4.441  12.918
14752SOL     OW46152   4.977  13.864   5.043
14752SOL    HW146153   4.968  13.790   4.984
14752SOL    HW246154   4.937  13.835   5.125
14753SOL     OW46155   1.600   2.026  14.696
14753SOL    HW146156   1.633   2.107  14.735
14753SOL    HW246157   1.666   2.002  14.631
14754SOL     OW46158   9.119   1.559   8.890
14754SOL    HW146159   9.181   1.491   8.863
14754SOL    HW246160   9.108   1.614   8.813
14755SOL     OW46161   4.283  11.300  10.247
14755SOL    HW146162   4.287  11.338  10.335
14755SOL    HW246163   4.375  11.291  10.222
14756SOL     OW46164  11.132   1.300   3.171
14756SOL    HW146165  11.052   1.280   3.220
14756SOL    HW246166  11.147   1.222   3.117
14757SOL     OW46167  12.262   5.429   6.707
14757SOL    HW146168  12.240   5.393   6.793
14757SOL    HW246169  12.181   5.472   6.678
14758SOL     OW46170   9.999  11.611   3.163
14758SOL    HW146171   9.965  11.700   3.161
14758SOL    HW246172   9.977  11.574   3.078
14759SOL     OW46173   9.127   4.654   1.709
14759SOL    HW146174   9.197   4.694   1.658
14759SOL    HW246175   9.047   4.682   1.665
14760SOL     OW46176   1.644  13.603   7.818
14760SOL    HW146177   1.587  13.674   7.790
14760SOL    HW246178   1.675  13.564   7.737
14761SOL     OW46179   7.079   8.716   2.900
14761SOL    HW146180   7.005   8.658   2.921
14761SOL    HW246181   7.101   8.757   2.984
14762SOL     OW46182   1.608   2.066   8.332
14762SOL    HW146183   1.602   2.161   8.325
14762SOL    HW246184   1.535   2.033   8.281
14763SOL     OW46185   4.439   3.988   0.779
14763SOL    HW146186   4.517   4.033   0.747
14763SOL    HW246187   4.447   3.899   0.744
14764SOL     OW46188  13.708   3.578   7.854
14764SOL    HW146189  13.743   3.660   7.890
14764SOL    HW246190  13.754   3.509   7.904
14765SOL     OW46191   0.820   8.637   0.666
14765SOL    HW146192   0.740   8.607   0.709
14765SOL    HW246193   0.806   8.730   0.650
14766SOL     OW46194   7.526  14.150   4.969
14766SOL    HW146195   7.591  14.199   4.919
14766SOL    HW246196   7.490  14.213   5.031
14767SOL     OW46197   7.868  14.420   5.894
14767SOL    HW146198   7.777  14.402   5.873
14767SOL    HW246199   7.884  14.508   5.859
14768SOL     OW46200   8.508  11.563   0.099
14768SOL    HW146201   8.431  11.552   0.043
14768SOL    HW246202   8.545  11.647   0.072
14769SOL     OW46203   8.664   6.941   9.526
14769SOL    HW146204   8.713   6.914   9.449
14769SOL    HW246205   8.702   7.025   9.551
14770SOL     OW46206  13.499  12.469   3.816
14770SOL    HW146207  13.488  12.538   3.881
14770SOL    HW246208  13.410  12.446   3.789
14771SOL     OW46209  14.468  10.804  14.059
14771SOL    HW146210  14.548  10.848  14.031
14771SOL    HW246211  14.453  10.837  14.148
14772SOL     OW46212   1.189  10.605   6.023
14772SOL    HW146213   1.103  10.587   5.984
14772SOL    HW246214   1.213  10.690   5.988
14773SOL     OW46215   1.210  12.842   1.175
14773SOL    HW146216   1.150  12.770   1.194
14773SOL    HW246217   1.201  12.856   1.081
14774SOL     OW46218   0.412   3.694   9.735
14774SOL    HW146219   0.460   3.616   9.764
14774SOL    HW246220   0.323   3.680   9.767
14775SOL     OW46221  14.562   8.328  12.918
14775SOL    HW146222  14.606   8.385  12.855
14775SOL    HW246223  14.483   8.376  12.943
14776SOL     OW46224   1.048  13.570   9.259
14776SOL    HW146225   1.011  13.655   9.236
14776SOL    HW246226   1.074  13.579   9.351
14777SOL     OW46227  13.843  13.649   4.840
14777SOL    HW146228  13.862  13.646   4.746
14777SOL    HW246229  13.836  13.742   4.859
14778SOL     OW46230   9.010   8.410  11.084
14778SOL    HW146231   8.957   8.384  11.008
14778SOL    HW246232   8.963   8.374  11.159
14779SOL     OW46233  10.967   8.757   2.094
14779SOL    HW146234  10.937   8.824   2.033
14779SOL    HW246235  10.961   8.675   2.045
14780SOL     OW46236   5.944   6.057  11.051
14780SOL    HW146237   5.959   6.085  11.141
14780SOL    HW246238   6.022   6.006  11.028
14781SOL     OW46239   4.707   7.409  11.690
14781SOL    HW146240   4.670   7.428  11.776
14781SOL    HW246241   4.640   7.357  11.646
14782SOL     OW46242   3.762   9.821  12.378
14782SOL    HW146243   3.686   9.797  12.324
14782SOL    HW246244   3.726   9.881  12.444
14783SOL     OW46245   6.922   0.768   7.398
14783SOL    HW146246   6.903   0.856   7.366
14783SOL    HW246247   6.977   0.782   7.475
14784SOL     OW46248   7.013   8.857  12.983
14784SOL    HW146249   6.949   8.906  12.933
14784SOL    HW246250   7.024   8.906  13.065
14785SOL     OW46251   2.077  11.299  14.721
14785SOL    HW146252   2.046  11.373  14.670
14785SOL    HW246253   2.083  11.226  14.659
14786SOL     OW46254  11.873  13.116   2.280
14786SOL    HW146255  11.877  13.029   2.320
14786SOL    HW246256  11.791  13.116   2.232
14787SOL     OW46257   4.783   3.413   2.659
14787SOL    HW146258   4.825   3.426   2.574
14787SOL    HW246259   4.737   3.495   2.676
14788SOL     OW46260   8.019  10.617   3.317
14788SOL    HW146261   8.000  10.601   3.225
14788SOL    HW246262   7.934  10.610   3.361
14789SOL     OW46263   5.578  10.777   5.425
14789SOL    HW146264   5.506  10.809   5.371
14789SOL    HW246265   5.555  10.803   5.514
14790SOL     OW46266   7.567   9.585   2.322
14790SOL    HW146267   7.483   9.542   2.304
14790SOL    HW246268   7.628   9.512   2.334
14791SOL     OW46269  12.517  13.514  12.612
14791SOL    HW146270  12.469  13.519  12.529
14791SOL    HW246271  12.508  13.423  12.639
14792SOL     OW46272   8.256   1.630   9.202
14792SOL    HW146273   8.212   1.664   9.125
14792SOL    HW246274   8.200   1.656   9.276
14793SOL     OW46275  14.548   0.860   3.540
14793SOL    HW146276  14.515   0.774   3.515
14793SOL    HW246277  14.475   0.920   3.523
14794SOL     OW46278   0.077   7.367   5.665
14794SOL    HW146279   0.020   7.302   5.706
14794SOL    HW246280   0.065   7.353   5.571
14795SOL     OW46281  13.937   7.506   0.815
14795SOL    HW146282  14.019   7.502   0.864
14795SOL    HW246283  13.949   7.446   0.742
14796SOL     OW46284   5.900  10.690  10.967
14796SOL    HW146285   5.944  10.698  10.882
14796SOL    HW246286   5.880  10.780  10.993
14797SOL     OW46287   7.803  13.582  11.858
14797SOL    HW146288   7.762  13.620  11.781
14797SOL    HW246289   7.828  13.658  11.911
14798SOL     OW46290  13.902  14.444   7.037
14798SOL    HW146291  13.929  14.389   7.110
14798SOL    HW246292  13.947  14.406   6.961
14799SOL     OW46293  12.367   9.872  13.443
14799SOL    HW146294  12.417   9.953  13.450
14799SOL    HW246295  12.306   9.888  13.371
14800SOL     OW46296   6.981   9.569   1.062
14800SOL    HW146297   6.957   9.608   1.146
14800SOL    HW246298   6.932   9.620   0.997
14801SOL     OW46299   6.463   4.659  11.488
14801SOL    HW146300   6.530   4.611  11.536
14801SOL    HW246301   6.427   4.596  11.426
14802SOL     OW46302   0.814  11.476   9.342
14802SOL    HW146303   0.767  11.415   9.399
14802SOL    HW246304   0.751  11.499   9.274
14803SOL     OW46305  10.106   4.520  10.499
14803SOL    HW146306  10.082   4.428  10.516
14803SOL    HW246307  10.045   4.548  10.431
14804SOL     OW46308  14.564  14.837  10.176
14804SOL    HW146309  14.581   0.048  10.200
14804SOL    HW246310  14.504  14.843  10.102
14805SOL     OW46311   1.545   9.274  11.500
14805SOL    HW146312   1.612   9.335  11.469
14805SOL    HW246313   1.472   9.285  11.438
14806SOL     OW46314   3.248   7.999   4.866
14806SOL    HW146315   3.159   8.008   4.834
14806SOL    HW246316   3.247   7.917   4.916
14807SOL     OW46317   0.238   3.998   7.141
14807SOL    HW146318   0.212   3.915   7.102
14807SOL    HW246319   0.157   4.038   7.172
14808SOL     OW46320   4.688   5.366   7.043
14808SOL    HW146321   4.755   5.344   7.108
14808SOL    HW246322   4.737   5.410   6.973
14809SOL     OW46323  10.238  10.387  14.219
14809SOL    HW146324  10.313  10.347  14.263
14809SOL    HW246325  10.274  10.465  14.176
14810SOL     OW46326  11.712  13.048   3.061
14810SOL    HW146327  11.657  13.018   3.134
14810SOL    HW246328  11.649  13.065   2.990
14811SOL     OW46329  13.285   0.251  13.903
14811SOL    HW146330  13.280   0.201  13.984
14811SOL    HW246331  13.295   0.185  13.834
14812SOL     OW46332  11.533   6.974  10.336
14812SOL    HW146333  11.512   6.885  10.363
14812SOL    HW246334  11.449   7.011  10.308
14813SOL     OW46335   8.792  10.226   3.257
14813SOL    HW146336   8.722  10.178   3.302
14813SOL    HW246337   8.756  10.313   3.243
14814SOL     OW46338   7.932   9.593   5.708
14814SOL    HW146339   7.928   9.643   5.790
14814SOL    HW246340   7.994   9.522   5.726
14815SOL     OW46341   0.343  10.098   4.452
14815SOL    HW146342   0.314  10.163   4.388
14815SOL    HW246343   0.297  10.018   4.426
14816SOL     OW46344   7.387  10.776  13.500
14816SOL    HW146345   7.363  10.739  13.585
14816SOL    HW246346   7.348  10.864  13.501
14817SOL     OW46347  12.452  14.769   8.572
14817SOL    HW146348  12.458  14.814   8.487
14817SOL    HW246349  12.388  14.699   8.558
14818SOL     OW46350   5.904   1.336   8.684
14818SOL    HW146351   5.949   1.262   8.724
14818SOL    HW246352   5.813   1.308   8.676
14819SOL     OW46353   3.616   1.129  11.841
14819SOL    HW146354   3.560   1.063  11.881
14819SOL    HW246355   3.557   1.180  11.786
14820SOL     OW46356  12.548   1.645   2.403
14820SOL    HW146357  12.626   1.643   2.460
14820SOL    HW246358  12.500   1.723   2.433
14821SOL     OW46359   4.490  14.210   5.277
14821SOL    HW146360   4.500  14.148   5.350
14821SOL    HW246361   4.547  14.283   5.300
14822SOL     OW46362   2.352   7.380  14.474
14822SOL    HW146363   2.277   7.438  14.458
14822SOL    HW246364   2.315   7.304  14.519
14823SOL     OW46365   0.217   8.617   2.996
14823SOL    HW146366   0.149   8.551   2.987
14823SOL    HW246367   0.170   8.700   2.998
14824SOL     OW46368   9.006   5.647   6.589
14824SOL    HW146369   9.100   5.643   6.573
14824SOL    HW246370   8.995   5.613   6.678
14825SOL     OW46371   7.342   0.746  10.131
14825SOL    HW146372   7.257   0.764  10.170
14825SOL    HW246373   7.327   0.750  10.037
14826SOL     OW46374   8.948   6.424  13.391
14826SOL    HW146375   8.905   6.340  13.373
14826SOL    HW246376   8.955   6.427  13.486
14827SOL     OW46377   1.089   3.402   7.495
14827SOL    HW146378   1.135   3.382   7.577
14827SOL    HW246379   0.998   3.418   7.523
14828SOL     OW46380   5.299  13.453  13.420
14828SOL    HW146381   5.308  13.481  13.511
14828SOL    HW246382   5.271  13.362  13.425
14829SOL     OW46383   6.163   6.342  14.806
14829SOL    HW146384   6.121   6.398  14.741
14829SOL    HW246385   6.092   6.314  14.864
14830SOL     OW46386  14.400   7.510   5.842
14830SOL    HW146387  14.386   7.458   5.921
14830SOL    HW246388  14.432   7.447   5.777
14831SOL     OW46389   0.586   9.035  14.006
14831SOL    HW146390   0.665   8.990  14.038
14831SOL    HW246391   0.606   9.057  13.915
14832SOL     OW46392   6.098   1.659   5.505
14832SOL    HW146393   6.172   1.679   5.562
14832SOL    HW246394   6.112   1.569   5.477
14833SOL     OW46395   7.246   6.210   9.786
14833SOL    HW146396   7.178   6.145   9.799
14833SOL    HW246397   7.281   6.227   9.874
14834SOL     OW46398   7.498   8.309   2.446
14834SOL    HW146399   7.543   8.389   2.472
14834SOL    HW246400   7.553   8.272   2.377
14835SOL     OW46401   4.632  11.682   1.140
14835SOL    HW146402   4.618  11.773   1.164
14835SOL    HW246403   4.652  11.639   1.223
14836SOL     OW46404   4.368   9.269   2.935
14836SOL    HW146405   4.306   9.210   2.892
14836SOL    HW246406   4.410   9.316   2.863
14837SOL     OW46407   2.126   4.857  14.090
14837SOL    HW146408   2.138   4.902  14.006
14837SOL    HW246409   2.057   4.793  14.072
14838SOL     OW46410   4.588  12.180   0.147
14838SOL    HW146411   4.538  12.178   0.229
14838SOL    HW246412   4.604  12.087   0.127
14839SOL     OW46413  10.327   7.819   2.123
14839SOL    HW146414  10.256   7.840   2.183
14839SOL    HW246415  10.322   7.724   2.111
14840SOL     OW46416   0.421   9.176   0.353
14840SOL    HW146417   0.474   9.251   0.328
14840SOL    HW246418   0.413   9.125   0.272
14841SOL     OW46419  10.158   6.152   2.574
14841SOL    HW146420  10.112   6.234   2.585
14841SOL    HW246421  10.146   6.130   2.481
14842SOL     OW46422  10.278   0.839   9.597
14842SOL    HW146423  10.319   0.920   9.569
14842SOL    HW246424  10.289   0.779   9.524
14843SOL     OW46425   9.778   3.642   7.249
14843SOL    HW146426   9.819   3.559   7.275
14843SOL    HW246427   9.844   3.686   7.196
14844SOL     OW46428  14.342  10.937  13.707
14844SOL    HW146429  14.251  10.957  13.729
14844SOL    HW246430  14.393  11.002  13.755
14845SOL     OW46431   2.076  11.394   6.529
14845SOL    HW146432   2.096  11.398   6.622
14845SOL    HW246433   2.077  11.485   6.499
14846SOL     OW46434  14.293  14.223   5.811
14846SOL    HW146435  14.314  14.308   5.848
14846SOL    HW246436  14.342  14.219   5.729
14847SOL     OW46437  12.107   4.938   6.238
14847SOL    HW146438  12.093   5.020   6.190
14847SOL    HW246439  12.197   4.945   6.271
14848SOL     OW46440  10.736   1.861   0.008
14848SOL    HW146441  10.769   1.786  14.837
14848SOL    HW246442  10.772   1.849   0.095
14849SOL     OW46443   9.754  11.929  12.290
14849SOL    HW146444   9.770  12.021  12.312
14849SOL    HW246445   9.700  11.896  12.362
14850SOL     OW46446   3.764  12.044  11.350
14850SOL    HW146447   3.791  12.060  11.440
14850SOL    HW246448   3.842  12.009  11.307
14851SOL     OW46449  12.521  11.796   4.766
14851SOL    HW146450  12.605  11.810   4.810
14851SOL    HW246451  12.460  11.776   4.837
14852SOL     OW46452  14.282  10.364  12.739
14852SOL    HW146453  14.292  10.459  12.731
14852SOL    HW246454  14.364  10.328  12.706
14853SOL     OW46455  10.435   4.847   6.423
14853SOL    HW146456  10.530   4.835   6.418
14853SOL    HW246457  10.412   4.892   6.342
14854SOL     OW46458   7.307  10.922   5.277
14854SOL    HW146459   7.380  10.898   5.220
14854SOL    HW246460   7.303  10.851   5.341
14855SOL     OW46461   7.862   2.805  14.173
14855SOL    HW146462   7.950   2.843  14.178
14855SOL    HW246463   7.877   2.711  14.159
14856SOL     OW46464   2.588  13.635   8.054
14856SOL    HW146465   2.549  13.698   7.993
14856SOL    HW246466   2.514  13.591   8.095
14857SOL     OW46467  14.602   4.891   8.953
14857SOL    HW146468  14.563   4.954   9.013
14857SOL    HW246469  14.528   4.841   8.919
14858SOL     OW46470  11.509   7.782  12.232
14858SOL    HW146471  11.516   7.698  12.279
14858SOL    HW246472  11.444   7.832  12.282
14859SOL     OW46473   5.041   4.204   9.161
14859SOL    HW146474   4.945   4.206   9.157
14859SOL    HW246475   5.069   4.290   9.131
14860SOL     OW46476   9.803   0.477   4.545
14860SOL    HW146477   9.854   0.535   4.487
14860SOL    HW246478   9.817   0.513   4.633
14861SOL     OW46479   9.596   4.157   9.284
14861SOL    HW146480   9.688   4.183   9.294
14861SOL    HW246481   9.568   4.135   9.373
14862SOL     OW46482   6.450  13.740  14.582
14862SOL    HW146483   6.443  13.645  14.580
14862SOL    HW246484   6.411  13.768  14.499
14863SOL     OW46485  10.215  11.040  11.361
14863SOL    HW146486  10.232  10.958  11.315
14863SOL    HW246487  10.299  11.085  11.361
14864SOL     OW46488  13.872   2.611  12.786
14864SOL    HW146489  13.795   2.555  12.777
14864SOL    HW246490  13.863   2.676  12.715
14865SOL     OW46491   5.985  11.506   3.365
14865SOL    HW146492   5.989  11.540   3.455
14865SOL    HW246493   5.918  11.437   3.369
14866SOL     OW46494  12.486   1.361   4.786
14866SOL    HW146495  12.393   1.384   4.786
14866SOL    HW246496  12.500   1.318   4.870
14867SOL     OW46497  11.402  12.347   2.108
14867SOL    HW146498  11.459  12.394   2.047
14867SOL    HW246499  11.459  12.321   2.180
14868SOL     OW46500   4.179  13.897  11.871
14868SOL    HW146501   4.224  13.823  11.831
14868SOL    HW246502   4.170  13.873  11.963
14869SOL     OW46503   6.354   3.362   6.536
14869SOL    HW146504   6.277   3.336   6.485
14869SOL    HW246505   6.371   3.452   6.509
14870SOL     OW46506   0.288   9.315   9.772
14870SOL    HW146507   0.379   9.310   9.742
14870SOL    HW246508   0.272   9.229   9.812
14871SOL     OW46509   2.442   0.527  13.810
14871SOL    HW146510   2.526   0.571  13.800
14871SOL    HW246511   2.422   0.533  13.904
14872SOL     OW46512   2.641   6.005   7.998
14872SOL    HW146513   2.651   5.912   7.978
14872SOL    HW246514   2.715   6.025   8.055
14873SOL     OW46515   1.222   1.720   6.555
14873SOL    HW146516   1.307   1.728   6.512
14873SOL    HW246517   1.199   1.811   6.577
14874SOL     OW46518  10.384   5.058   4.219
14874SOL    HW146519  10.464   5.062   4.166
14874SOL    HW246520  10.374   5.146   4.255
14875SOL     OW46521  11.138  11.764  10.103
14875SOL    HW146522  11.165  11.853  10.081
14875SOL    HW246523  11.220  11.714  10.109
14876SOL     OW46524  11.979   6.338   0.867
14876SOL    HW146525  11.910   6.403   0.851
14876SOL    HW246526  12.055   6.390   0.894
14877SOL     OW46527   3.645   3.025  14.568
14877SOL    HW146528   3.561   3.063  14.542
14877SOL    HW246529   3.652   3.042  14.662
14878SOL     OW46530   3.653  13.212   0.867
14878SOL    HW146531   3.741  13.211   0.828
14878SOL    HW246532   3.596  13.243   0.796
14879SOL     OW46533   8.209  11.998   1.768
14879SOL    HW146534   8.258  12.058   1.712
14879SOL    HW246535   8.175  12.054   1.838
14880SOL     OW46536   2.720   2.703   6.062
14880SOL    HW146537   2.750   2.730   5.975
14880SOL    HW246538   2.782   2.742   6.123
14881SOL     OW46539   6.355   4.648   9.282
14881SOL    HW146540   6.383   4.668   9.193
14881SOL    HW246541   6.267   4.687   9.289
14882SOL     OW46542   9.916   5.732  11.156
14882SOL    HW146543   9.929   5.692  11.242
14882SOL    HW246544   9.895   5.659  11.098
14883SOL     OW46545  11.442   4.748   0.419
14883SOL    HW146546  11.419   4.841   0.411
14883SOL    HW246547  11.439   4.715   0.329
14884SOL     OW46548   1.733   1.130  10.755
14884SOL    HW146549   1.643   1.107  10.735
14884SOL    HW246550   1.728   1.218  10.793
14885SOL     OW46551   3.824   8.715   4.711
14885SOL    HW146552   3.862   8.628   4.710
14885SOL    HW246553   3.781   8.724   4.626
14886SOL     OW46554   5.667   9.156   6.603
14886SOL    HW146555   5.756   9.174   6.635
14886SOL    HW246556   5.667   9.062   6.585
14887SOL     OW46557   5.629  10.790  10.711
14887SOL    HW146558   5.618  10.728  10.784
14887SOL    HW246559   5.683  10.742  10.648
14888SOL     OW46560  13.185  14.661  13.942
14888SOL    HW146561  13.131  14.582  13.939
14888SOL    HW246562  13.209  14.670  14.034
14889SOL     OW46563   5.470   5.389   2.458
14889SOL    HW146564   5.492   5.317   2.517
14889SOL    HW246565   5.430   5.455   2.515
14890SOL     OW46566  14.380   3.655   0.740
14890SOL    HW146567  14.450   3.618   0.793
14890SOL    HW246568  14.328   3.707   0.802
14891SOL     OW46569   1.119   9.609  13.893
14891SOL    HW146570   1.065   9.598  13.815
14891SOL    HW246571   1.065   9.575  13.965
14892SOL     OW46572  10.989  12.607  11.790
14892SOL    HW146573  10.931  12.674  11.826
14892SOL    HW246574  11.063  12.657  11.753
14893SOL     OW46575   9.653   4.319   7.441
14893SOL    HW146576   9.695   4.378   7.503
14893SOL    HW246577   9.672   4.231   7.473
14894SOL     OW46578   8.854   3.060   4.775
14894SOL    HW146579   8.791   3.132   4.776
14894SOL    HW246580   8.908   3.074   4.852
14895SOL     OW46581   6.575  14.178  12.381
14895SOL    HW146582   6.545  14.164  12.291
14895SOL    HW246583   6.579  14.273  12.392
14896SOL     OW46584   8.181  11.718  10.551
14896SOL    HW146585   8.170  11.644  10.490
14896SOL    HW246586   8.169  11.680  10.638
14897SOL     OW46587   6.730   0.003  13.532
14897SOL    HW146588   6.771   0.069  13.477
14897SOL    HW246589   6.686  14.823  13.471
14898SOL     OW46590   7.458   3.724   4.906
14898SOL    HW146591   7.405   3.776   4.966
14898SOL    HW246592   7.503   3.661   4.962
14899SOL     OW46593   4.125   5.199   5.482
14899SOL    HW146594   4.183   5.231   5.552
14899SOL    HW246595   4.144   5.106   5.475
14900SOL     OW46596   5.261   0.694   2.309
14900SOL    HW146597   5.179   0.653   2.337
14900SOL    HW246598   5.299   0.633   2.246
14901SOL     OW46599   4.746   6.450  11.428
14901SOL    HW146600   4.679   6.383  11.443
14901SOL    HW246601   4.744   6.466  11.333
14902SOL     OW46602   9.870   3.695  13.548
14902SOL    HW146603   9.957   3.731  13.533
14902SOL    HW246604   9.849   3.649  13.467
14903SOL     OW46605   2.132  11.912   9.635
14903SOL    HW146606   2.134  11.834   9.579
14903SOL    HW246607   2.139  11.877   9.724
14904SOL     OW46608   4.036   9.882  12.523
14904SOL    HW146609   4.013   9.937  12.598
14904SOL    HW246610   3.952   9.856  12.485
14905SOL     OW46611  13.062  12.688   6.880
14905SOL    HW146612  13.126  12.685   6.951
14905SOL    HW246613  13.078  12.608   6.830
14906SOL     OW46614  12.588   0.080  12.473
14906SOL    HW146615  12.601   0.095  12.566
14906SOL    HW246616  12.533   0.153  12.444
14907SOL     OW46617  10.285   8.766   9.294
14907SOL    HW146618  10.357   8.739   9.350
14907SOL    HW246619  10.260   8.688   9.245
14908SOL     OW46620  12.298  10.913  11.553
14908SOL    HW146621  12.229  10.956  11.604
14908SOL    HW246622  12.378  10.931  11.603
14909SOL     OW46623   7.724   3.040   3.175
14909SOL    HW146624   7.673   3.060   3.253
14909SOL    HW246625   7.668   3.068   3.102
14910SOL     OW46626   8.269   5.837   6.438
14910SOL    HW146627   8.324   5.867   6.510
14910SOL    HW246628   8.255   5.744   6.456
14911SOL     OW46629   9.608  14.300   0.077
14911SOL    HW146630   9.533  14.257   0.036
14911SOL    HW246631   9.684  14.257   0.038
14912SOL     OW46632   8.747   3.819   9.715
14912SOL    HW146633   8.663   3.775   9.724
14912SOL    HW246634   8.787   3.779   9.638
14913SOL     OW46635   6.099  14.760   6.543
14913SOL    HW146636   6.182  14.727   6.509
14913SOL    HW246637   6.035  14.734   6.477
14914SOL     OW46638   3.807   3.070   1.466
14914SOL    HW146639   3.844   3.148   1.508
14914SOL    HW246640   3.712   3.085   1.468
14915SOL     OW46641   2.968   3.453   0.517
14915SOL    HW146642   2.901   3.423   0.457
14915SOL    HW246643   2.979   3.381   0.580
14916SOL     OW46644  13.179   4.686  14.700
14916SOL    HW146645  13.172   4.716  14.791
14916SOL    HW246646  13.273   4.682  14.684
14917SOL     OW46647   3.593  14.759   9.340
14917SOL    HW146648   3.610  14.813   9.263
14917SOL    HW246649   3.502  14.732   9.331
14918SOL     OW46650  13.795  11.347   0.289
14918SOL    HW146651  13.769  11.274   0.234
14918SOL    HW246652  13.734  11.418   0.266
14919SOL     OW46653  12.427   2.716  10.713
14919SOL    HW146654  12.504   2.707  10.769
14919SOL    HW246655  12.372   2.640  10.735
14920SOL     OW46656   9.624   7.219  13.077
14920SOL    HW146657   9.625   7.151  13.009
14920SOL    HW246658   9.532   7.246  13.081
14921SOL     OW46659   6.359  14.470   8.364
14921SOL    HW146660   6.292  14.500   8.425
14921SOL    HW246661   6.401  14.549   8.332
14922SOL     OW46662  11.723   9.345   3.090
14922SOL    HW146663  11.795   9.355   3.153
14922SOL    HW246664  11.752   9.274   3.033
14923SOL     OW46665   3.202   0.547   5.250
14923SOL    HW146666   3.189   0.455   5.228
14923SOL    HW246667   3.254   0.582   5.178
14924SOL     OW46668   7.824  10.803  14.687
14924SOL    HW146669   7.839  10.897  14.677
14924SOL    HW246670   7.905  10.769  14.724
14925SOL     OW46671   2.699   1.967   6.390
14925SOL    HW146672   2.647   1.962   6.310
14925SOL    HW246673   2.720   2.060   6.399
14926SOL     OW46674   1.611   9.519   3.981
14926SOL    HW146675   1.528   9.536   4.025
14926SOL    HW246676   1.588   9.504   3.890
14927SOL     OW46677  10.958   0.229   6.223
14927SOL    HW146678  10.926   0.212   6.312
14927SOL    HW246679  10.897   0.294   6.188
14928SOL     OW46680   5.654   6.967  11.458
14928SOL    HW146681   5.565   6.956  11.492
14928SOL    HW246682   5.650   6.935  11.368
14929SOL     OW46683   0.420   8.951   6.308
14929SOL    HW146684   0.380   8.987   6.228
14929SOL    HW246685   0.347   8.913   6.356
14930SOL     OW46686  13.967   0.127  11.756
14930SOL    HW146687  14.046   0.136  11.810
14930SOL    HW246688  13.958   0.033  11.742
14931SOL     OW46689  14.499  11.235  10.261
14931SOL    HW146690  14.407  11.208  10.254
14931SOL    HW246691  14.511  11.298  10.190
14932SOL     OW46692   9.739   0.737  10.606
14932SOL    HW146693   9.667   0.792  10.640
14932SOL    HW246694   9.707   0.706  10.521
14933SOL     OW46695   6.373   6.714  13.368
14933SOL    HW146696   6.451   6.718  13.312
14933SOL    HW246697   6.341   6.625  13.359
14934SOL     OW46698   6.046   5.589   3.587
14934SOL    HW146699   5.974   5.554   3.534
14934SOL    HW246700   6.030   5.683   3.590
14935SOL     OW46701   6.088   7.946   4.720
14935SOL    HW146702   6.024   7.877   4.736
14935SOL    HW246703   6.145   7.910   4.653
14936SOL     OW46704   7.111   0.414  14.204
14936SOL    HW146705   7.200   0.382  14.194
14936SOL    HW246706   7.103   0.437  14.296
14937SOL     OW46707   3.240  13.739  14.304
14937SOL    HW146708   3.228  13.756  14.210
14937SOL    HW246709   3.305  13.804  14.332
14938SOL     OW46710   4.577   7.777  12.407
14938SOL    HW146711   4.491   7.777  12.366
14938SOL    HW246712   4.621   7.699  12.371
14939SOL     OW46713  13.089   4.790  13.740
14939SOL    HW146714  12.995   4.794  13.757
14939SOL    HW246715  13.097   4.730  13.666
14940SOL     OW46716   4.195   1.131  12.511
14940SOL    HW146717   4.256   1.166  12.575
14940SOL    HW246718   4.140   1.071  12.561
14941SOL     OW46719   0.618   6.291   0.568
14941SOL    HW146720   0.615   6.359   0.635
14941SOL    HW246721   0.693   6.314   0.513
14942SOL     OW46722   0.039  11.643  10.707
14942SOL    HW146723   0.124  11.687  10.716
14942SOL    HW246724   0.018  11.613  10.795
14943SOL     OW46725   5.423  12.629   6.887
14943SOL    HW146726   5.377  12.684   6.950
14943SOL    HW246727   5.370  12.634   6.807
14944SOL     OW46728  10.920  12.374   4.111
14944SOL    HW146729  10.981  12.306   4.139
14944SOL    HW246730  10.859  12.382   4.184
14945SOL     OW46731   0.332   3.481   1.413
14945SOL    HW146732   0.278   3.446   1.484
14945SOL    HW246733   0.281   3.553   1.377
14946SOL     OW46734   4.537   5.122   8.052
14946SOL    HW146735   4.449   5.158   8.052
14946SOL    HW246736   4.524   5.027   8.048
14947SOL     OW46737  12.611   5.104   7.453
14947SOL    HW146738  12.629   5.192   7.487
14947SOL    HW246739  12.544   5.069   7.512
14948SOL     OW46740  11.716  13.824  12.030
14948SOL    HW146741  11.723  13.905  12.082
14948SOL    HW246742  11.790  13.771  12.059
14949SOL     OW46743   7.827  12.034   9.249
14949SOL    HW146744   7.753  12.073   9.202
14949SOL    HW246745   7.793  11.952   9.284
14950SOL     OW46746   3.586   2.766   9.954
14950SOL    HW146747   3.615   2.684   9.914
14950SOL    HW246748   3.506   2.742  10.001
14951SOL     OW46749   8.168   3.832   7.580
14951SOL    HW146750   8.122   3.909   7.547
14951SOL    HW246751   8.248   3.867   7.620
14952SOL     OW46752   3.605   3.088  10.039
14952SOL    HW146753   3.515   3.057  10.049
14952SOL    HW246754   3.644   3.029   9.976
14953SOL     OW46755   4.693   1.266   8.944
14953SOL    HW146756   4.640   1.342   8.920
14953SOL    HW246757   4.774   1.275   8.893
14954SOL     OW46758  14.238   3.765   3.616
14954SOL    HW146759  14.206   3.768   3.526
14954SOL    HW246760  14.333   3.773   3.608
14955SOL     OW46761  12.173   2.239   6.324
14955SOL    HW146762  12.190   2.318   6.274
14955SOL    HW246763  12.229   2.172   6.283
14956SOL     OW46764   8.407   4.248   4.411
14956SOL    HW146765   8.446   4.270   4.326
14956SOL    HW246766   8.482   4.234   4.468
14957SOL     OW46767   2.732   5.204   5.795
14957SOL    HW146768   2.654   5.230   5.747
14957SOL    HW246769   2.747   5.274   5.858
14958SOL     OW46770   7.036  10.204   6.777
14958SOL    HW146771   6.977  10.211   6.702
14958SOL    HW246772   7.097  10.133   6.753
14959SOL     OW46773   4.905   8.605   6.708
14959SOL    HW146774   4.863   8.535   6.758
14959SOL    HW246775   4.974   8.637   6.767
14960SOL     OW46776  13.351  14.137   7.056
14960SOL    HW146777  13.397  14.151   6.972
14960SOL    HW246778  13.420  14.147   7.122
14961SOL     OW46779   1.828   1.091   8.738
14961SOL    HW146780   1.751   1.066   8.790
14961SOL    HW246781   1.792   1.146   8.668
14962SOL     OW46782  11.476  13.547  13.810
14962SOL    HW146783  11.407  13.530  13.746
14962SOL    HW246784  11.524  13.465  13.817
14963SOL     OW46785   6.759   9.024  10.419
14963SOL    HW146786   6.734   9.061  10.335
14963SOL    HW246787   6.808   9.093  10.463
14964SOL     OW46788  11.890   8.620   1.257
14964SOL    HW146789  11.887   8.715   1.264
14964SOL    HW246790  11.862   8.588   1.343
14965SOL     OW46791   5.160   4.248   4.066
14965SOL    HW146792   5.077   4.294   4.054
14965SOL    HW246793   5.199   4.288   4.143
14966SOL     OW46794   5.533  13.597   6.818
14966SOL    HW146795   5.575  13.654   6.883
14966SOL    HW246796   5.523  13.654   6.741
14967SOL     OW46797   5.821   6.191  10.133
14967SOL    HW146798   5.762   6.249  10.182
14967SOL    HW246799   5.782   6.186  10.046
14968SOL     OW46800  11.627   4.359  10.056
14968SOL    HW146801  11.645   4.400  10.141
14968SOL    HW246802  11.696   4.392   9.998
14969SOL     OW46803   3.506  11.793   6.371
14969SOL    HW146804   3.598  11.769   6.373
14969SOL    HW246805   3.494  11.851   6.447
14970SOL     OW46806  12.088  14.069  10.653
14970SOL    HW146807  12.057  14.080  10.743
14970SOL    HW246808  12.170  14.020  10.661
14971SOL     OW46809  14.044  13.464  14.331
14971SOL    HW146810  14.101  13.398  14.292
14971SOL    HW246811  14.059  13.455  14.425
14972SOL     OW46812   2.362   7.525   1.825
14972SOL    HW146813   2.359   7.430   1.819
14972SOL    HW246814   2.344   7.556   1.737
14973SOL     OW46815   6.507   6.736  10.301
14973SOL    HW146816   6.583   6.704  10.348
14973SOL    HW246817   6.496   6.675  10.228
14974SOL     OW46818  10.441   4.093  10.642
14974SOL    HW146819  10.372   4.148  10.606
14974SOL    HW246820  10.512   4.153  10.664
14975SOL     OW46821   6.918   4.240   3.151
14975SOL    HW146822   6.950   4.330   3.140
14975SOL    HW246823   6.823   4.248   3.155
14976SOL     OW46824   3.334   6.974  14.715
14976SOL    HW146825   3.294   6.981  14.801
14976SOL    HW246826   3.362   7.063  14.694
14977SOL     OW46827   1.318   5.211   9.835
14977SOL    HW146828   1.324   5.290   9.890
14977SOL    HW246829   1.258   5.236   9.765
14978SOL     OW46830   5.198   6.940  10.032
14978SOL    HW146831   5.253   7.017  10.046
14978SOL    HW246832   5.122   6.954  10.088
14979SOL     OW46833  12.519   7.124   1.822
14979SOL    HW146834  12.502   7.042   1.775
14979SOL    HW246835  12.575   7.175   1.764
14980SOL     OW46836   1.574   6.463   9.681
14980SOL    HW146837   1.522   6.437   9.605
14980SOL    HW246838   1.661   6.480   9.645
14981SOL     OW46839   0.666  11.689   8.051
14981SOL    HW146840   0.732  11.718   7.988
14981SOL    HW246841   0.596  11.653   7.997
14982SOL     OW46842  12.458   4.498   8.877
14982SOL    HW146843  12.427   4.529   8.962
14982SOL    HW246844  12.385   4.449   8.841
14983SOL     OW46845   6.849   7.634  14.443
14983SOL    HW146846   6.823   7.724  14.461
14983SOL    HW246847   6.849   7.628  14.348
14984SOL     OW46848  12.213   0.183  13.512
14984SOL    HW146849  12.120   0.202  13.521
14984SOL    HW246850  12.257   0.251  13.563
14985SOL     OW46851   0.833   2.413   7.354
14985SOL    HW146852   0.844   2.390   7.262
14985SOL    HW246853   0.740   2.432   7.363
14986SOL     OW46854   3.557   8.646  12.335
14986SOL    HW146855   3.547   8.640  12.430
14986SOL    HW246856   3.652   8.640  12.320
14987SOL     OW46857   5.171  12.459   2.376
14987SOL    HW146858   5.084  12.420   2.373
14987SOL    HW246859   5.227  12.389   2.409
14988SOL     OW46860   7.643  14.575   4.163
14988SOL    HW146861   7.554  14.605   4.142
14988SOL    HW246862   7.681  14.549   4.079
14989SOL     OW46863   9.839  14.164   9.232
14989SOL    HW146864   9.756  14.186   9.276
14989SOL    HW246865   9.815  14.096   9.169
14990SOL     OW46866  10.811  13.419  13.089
14990SOL    HW146867  10.791  13.375  13.171
14990SOL    HW246868  10.864  13.494  13.115
14991SOL     OW46869  11.188   6.766  12.280
14991SOL    HW146870  11.273   6.810  12.289
14991SOL    HW246871  11.162   6.748  12.371
14992SOL     OW46872   4.656   3.988   3.346
14992SOL    HW146873   4.648   3.933   3.424
14992SOL    HW246874   4.727   4.048   3.368
14993SOL     OW46875  10.887  13.237   4.583
14993SOL    HW146876  10.883  13.205   4.673
14993SOL    HW246877  10.949  13.178   4.539
14994SOL     OW46878  10.152   7.687  10.533
14994SOL    HW146879  10.176   7.726  10.449
14994SOL    HW246880  10.160   7.759  10.596
14995SOL     OW46881  12.442   4.746   2.653
14995SOL    HW146882  12.529   4.707   2.659
14995SOL    HW246883  12.449   4.809   2.581
14996SOL     OW46884  11.138   2.419   5.119
14996SOL    HW146885  11.176   2.451   5.037
14996SOL    HW246886  11.044   2.438   5.110
14997SOL     OW46887  12.472   3.101   3.631
14997SOL    HW146888  12.550   3.099   3.686
14997SOL    HW246889  12.431   3.185   3.651
14998SOL     OW46890  13.369  12.057   9.453
14998SOL    HW146891  13.439  12.122   9.445
14998SOL    HW246892  13.298  12.091   9.399
14999SOL     OW46893   7.716   2.200   6.910
14999SOL    HW146894   7.690   2.147   6.835
14999SOL    HW246895   7.651   2.182   6.977
15000SOL     OW46896   6.413  12.047  11.084
15000SOL    HW146897   6.445  11.958  11.099
15000SOL    HW246898   6.481  12.087  11.029
15001SOL     OW46899  11.346   8.198   3.337
15001SOL    HW146900  11.352   8.103   3.348
15001SOL    HW246901  11.258   8.220   3.366
15002SOL     OW46902  10.381  11.192   4.462
15002SOL    HW146903  10.309  11.166   4.518
15002SOL    HW246904  10.420  11.110   4.433
15003SOL     OW46905  11.461  11.167   1.375
15003SOL    HW146906  11.510  11.242   1.343
15003SOL    HW246907  11.370  11.186   1.352
15004SOL     OW46908   1.813  14.314   4.732
15004SOL    HW146909   1.829  14.354   4.818
15004SOL    HW246910   1.720  14.295   4.732
15005SOL     OW46911  11.265  10.071  10.252
15005SOL    HW146912  11.356  10.091  10.231
15005SOL    HW246913  11.245  10.129  10.326
15006SOL     OW46914   5.252   1.611   7.830
15006SOL    HW146915   5.334   1.593   7.875
15006SOL    HW246916   5.190   1.549   7.866
15007SOL     OW46917   2.682   6.670   2.099
15007SOL    HW146918   2.680   6.755   2.143
15007SOL    HW246919   2.590   6.647   2.086
15008SOL     OW46920  12.903   7.248   8.135
15008SOL    HW146921  12.821   7.285   8.167
15008SOL    HW246922  12.882   7.157   8.113
15009SOL     OW46923  13.999  13.417   5.439
15009SOL    HW146924  13.920  13.372   5.467
15009SOL    HW246925  13.968  13.483   5.377
15010SOL     OW46926  11.122   5.094  11.240
15010SOL    HW146927  11.123   5.081  11.145
15010SOL    HW246928  11.207   5.134  11.259
15011SOL     OW46929   5.909  13.254  12.252
15011SOL    HW146930   5.975  13.185  12.257
15011SOL    HW246931   5.932  13.314  12.323
15012SOL     OW46932   1.042   8.259   0.212
15012SOL    HW146933   0.985   8.247   0.288
15012SOL    HW246934   0.992   8.317   0.154
15013SOL     OW46935   9.051  12.451   4.451
15013SOL    HW146936   9.100  12.393   4.392
15013SOL    HW246937   9.010  12.392   4.514
15014SOL     OW46938   8.403   3.522   1.157
15014SOL    HW146939   8.438   3.484   1.077
15014SOL    HW246940   8.459   3.597   1.176
15015SOL     OW46941   6.142   9.577  13.052
15015SOL    HW146942   6.113   9.654  13.004
15015SOL    HW246943   6.215   9.543  13.000
15016SOL     OW46944  12.403   6.181   6.708
15016SOL    HW146945  12.444   6.113   6.761
15016SOL    HW246946  12.460   6.257   6.719
15017SOL     OW46947   0.862   0.864   7.513
15017SOL    HW146948   0.890   0.956   7.517
15017SOL    HW246949   0.839   0.842   7.603
15018SOL     OW46950   1.342   0.925  10.633
15018SOL    HW146951   1.377   0.885  10.553
15018SOL    HW246952   1.295   0.854  10.677
15019SOL     OW46953  10.631   5.719  13.746
15019SOL    HW146954  10.630   5.679  13.659
15019SOL    HW246955  10.563   5.672  13.795
15020SOL     OW46956  12.695   2.916   3.184
15020SOL    HW146957  12.672   2.957   3.267
15020SOL    HW246958  12.788   2.893   3.194
15021SOL     OW46959  13.930   3.133   9.974
15021SOL    HW146960  13.945   3.061   9.913
15021SOL    HW246961  14.014   3.145  10.019
15022SOL     OW46962  14.746   7.256   8.170
15022SOL    HW146963  14.663   7.292   8.202
15022SOL    HW246964  14.742   7.164   8.194
15023SOL     OW46965   7.023  13.074   7.946
15023SOL    HW146966   7.079  13.068   8.023
15023SOL    HW246967   7.085  13.081   7.873
15024SOL     OW46968  12.144   7.143   3.551
15024SOL    HW146969  12.055   7.151   3.584
15024SOL    HW246970  12.156   7.050   3.536
15025SOL     OW46971   8.167   2.295   6.247
15025SOL    HW146972   8.087   2.344   6.265
15025SOL    HW246973   8.173   2.232   6.319
15026SOL     OW46974   6.858   7.211   3.921
15026SOL    HW146975   6.895   7.230   3.835
15026SOL    HW246976   6.908   7.135   3.952
15027SOL     OW46977   8.251   6.547  10.836
15027SOL    HW146978   8.320   6.496  10.877
15027SOL    HW246979   8.238   6.622  10.893
15028SOL     OW46980  10.271   4.411  12.452
15028SOL    HW146981  10.317   4.350  12.393
15028SOL    HW246982  10.197   4.443  12.400
15029SOL     OW46983  10.194   6.120   8.163
15029SOL    HW146984  10.257   6.123   8.091
15029SOL    HW246985  10.212   6.199   8.213
15030SOL     OW46986   9.930   6.382   9.038
15030SOL    HW146987   9.875   6.330   8.979
15030SOL    HW246988   9.955   6.459   8.987
15031SOL     OW46989   7.726  12.311   4.969
15031SOL    HW146990   7.716  12.384   5.030
15031SOL    HW246991   7.703  12.234   5.020
15032SOL     OW46992   5.122   1.180  13.681
15032SOL    HW146993   5.176   1.258  13.674
15032SOL    HW246994   5.093   1.163  13.591
15033SOL     OW46995   3.531   9.386  10.987
15033SOL    HW146996   3.477   9.461  11.016
15033SOL    HW246997   3.539   9.398  10.893
15034SOL     OW46998  11.688   4.722   7.032
15034SOL    HW146999  11.620   4.787   7.049
15034SOL    HW247000  11.729   4.752   6.950
15035SOL     OW47001   6.452   8.164   6.858
15035SOL    HW147002   6.528   8.125   6.813
15035SOL    HW247003   6.480   8.170   6.949
15036SOL     OW47004   5.159   3.666   3.795
15036SOL    HW147005   5.136   3.716   3.873
15036SOL    HW247006   5.150   3.574   3.822
15037SOL     OW47007   7.768   8.168   8.195
15037SOL    HW147008   7.833   8.098   8.193
15037SOL    HW247009   7.819   8.247   8.213
15038SOL     OW47010   0.158   0.425   8.262
15038SOL    HW147011   0.160   0.364   8.336
15038SOL    HW247012   0.072   0.466   8.267
15039SOL     OW47013   0.235  14.661   5.193
15039SOL    HW147014   0.269  14.578   5.226
15039SOL    HW247015   0.304  14.694   5.135
15040SOL     OW47016   3.916   9.404   7.266
15040SOL    HW147017   3.890   9.317   7.237
15040SOL    HW247018   3.872   9.416   7.350
15041SOL     OW47019   6.801  14.221  11.128
15041SOL    HW147020   6.747  14.295  11.154
15041SOL    HW247021   6.890  14.257  11.124
15042SOL     OW47022  12.935  13.193   4.382
15042SOL    HW147023  12.899  13.281   4.376
15042SOL    HW247024  12.858  13.136   4.383
15043SOL     OW47025   7.973  12.881  12.256
15043SOL    HW147026   8.000  12.828  12.181
15043SOL    HW247027   7.898  12.932  12.224
15044SOL     OW47028   2.890   3.539   7.044
15044SOL    HW147029   2.918   3.576   7.128
15044SOL    HW247030   2.839   3.461   7.068
15045SOL     OW47031   3.979   4.767   7.787
15045SOL    HW147032   4.025   4.685   7.771
15045SOL    HW247033   4.036   4.817   7.844
15046SOL     OW47034   5.266  11.154   4.943
15046SOL    HW147035   5.175  11.175   4.965
15046SOL    HW247036   5.283  11.204   4.862
15047SOL     OW47037   2.199   5.621   0.252
15047SOL    HW147038   2.191   5.716   0.248
15047SOL    HW247039   2.124   5.592   0.304
15048SOL     OW47040   9.909  10.463   6.361
15048SOL    HW147041   9.855  10.387   6.382
15048SOL    HW247042   9.956  10.483   6.442
15049SOL     OW47043   6.722  10.510  11.069
15049SOL    HW147044   6.628  10.505  11.087
15049SOL    HW247045   6.743  10.427  11.026
15050SOL     OW47046   6.128   9.410  14.150
15050SOL    HW147047   6.111   9.376  14.063
15050SOL    HW247048   6.197   9.475  14.137
15051SOL     OW47049   6.955   1.057   8.674
15051SOL    HW147050   6.977   0.992   8.607
15051SOL    HW247051   7.009   1.034   8.749
15052SOL     OW47052  11.696   7.667   1.930
15052SOL    HW147053  11.652   7.669   2.015
15052SOL    HW247054  11.789   7.657   1.952
15053SOL     OW47055  11.610  12.659   9.495
15053SOL    HW147056  11.562  12.741   9.486
15053SOL    HW247057  11.697  12.685   9.526
15054SOL     OW47058   8.340   9.478   8.361
15054SOL    HW147059   8.330   9.404   8.302
15054SOL    HW247060   8.407   9.451   8.423
15055SOL     OW47061   4.820  13.593   3.792
15055SOL    HW147062   4.900  13.541   3.798
15055SOL    HW247063   4.781  13.586   3.879
15056SOL     OW47064   6.423   1.822  11.675
15056SOL    HW147065   6.420   1.752  11.610
15056SOL    HW247066   6.367   1.791  11.746
15057SOL     OW47067  10.076   7.394   5.693
15057SOL    HW147068  10.012   7.465   5.688
15057SOL    HW247069  10.082   7.362   5.603
15058SOL     OW47070   1.938   9.002   0.472
15058SOL    HW147071   1.928   9.071   0.406
15058SOL    HW247072   1.906   8.923   0.429
15059SOL     OW47073  12.963  12.175   6.134
15059SOL    HW147074  12.900  12.177   6.206
15059SOL    HW247075  13.002  12.087   6.138
15060SOL     OW47076   6.408   9.179   9.834
15060SOL    HW147077   6.483   9.219   9.790
15060SOL    HW247078   6.364   9.129   9.766
15061SOL     OW47079   1.979   4.903  14.757
15061SOL    HW147080   1.922   4.976  14.782
15061SOL    HW247081   2.025   4.935  14.679
15062SOL     OW47082  12.214   2.052   1.622
15062SOL    HW147083  12.174   2.040   1.536
15062SOL    HW247084  12.186   1.976   1.672
15063SOL     OW47085  11.483   7.794  14.417
15063SOL    HW147086  11.509   7.791  14.509
15063SOL    HW247087  11.565   7.801  14.368
15064SOL     OW47088   3.905   0.774   7.079
15064SOL    HW147089   3.846   0.720   7.131
15064SOL    HW247090   3.865   0.778   6.992
15065SOL     OW47091   3.964  14.325   0.451
15065SOL    HW147092   4.032  14.285   0.505
15065SOL    HW247093   4.008  14.397   0.406
15066SOL     OW47094   9.308   6.164   3.994
15066SOL    HW147095   9.368   6.238   3.996
15066SOL    HW247096   9.221   6.203   4.004
15067SOL     OW47097   0.978  13.997   9.536
15067SOL    HW147098   1.064  13.981   9.574
15067SOL    HW247099   0.917  13.957   9.599
15068SOL     OW47100   2.444  14.314  13.009
15068SOL    HW147101   2.451  14.276  13.096
15068SOL    HW247102   2.368  14.271  12.970
15069SOL     OW47103   0.835   2.606   7.799
15069SOL    HW147104   0.798   2.680   7.751
15069SOL    HW247105   0.861   2.642   7.883
15070SOL     OW47106   1.029   8.001   7.277
15070SOL    HW147107   0.969   8.061   7.231
15070SOL    HW247108   1.000   8.002   7.367
15071SOL     OW47109   0.757  11.252  12.767
15071SOL    HW147110   0.852  11.240  12.764
15071SOL    HW247111   0.729  11.247  12.676
15072SOL     OW47112  11.328  13.135   3.236
15072SOL    HW147113  11.315  13.219   3.192
15072SOL    HW247114  11.265  13.076   3.194
15073SOL     OW47115   2.210   8.074  10.571
15073SOL    HW147116   2.278   8.038  10.515
15073SOL    HW247117   2.195   8.006  10.637
15074SOL     OW47118  12.428   6.512   2.473
15074SOL    HW147119  12.345   6.552   2.497
15074SOL    HW247120  12.425   6.424   2.512
15075SOL     OW47121   4.549   7.668   8.410
15075SOL    HW147122   4.636   7.698   8.382
15075SOL    HW247123   4.539   7.583   8.369
15076SOL     OW47124  12.663   9.442  12.254
15076SOL    HW147125  12.668   9.464  12.347
15076SOL    HW247126  12.570   9.434  12.236
15077SOL     OW47127   4.825   1.438  10.847
15077SOL    HW147128   4.860   1.352  10.871
15077SOL    HW247129   4.853   1.496  10.917
15078SOL     OW47130  14.221   9.844   3.505
15078SOL    HW147131  14.279   9.868   3.434
15078SOL    HW247132  14.276   9.848   3.584
15079SOL     OW47133  12.177   1.734   1.228
15079SOL    HW147134  12.271   1.751   1.228
15079SOL    HW247135  12.169   1.643   1.255
15080SOL     OW47136  11.962   4.484   0.205
15080SOL    HW147137  12.041   4.431   0.215
15080SOL    HW247138  11.957   4.502   0.111
15081SOL     OW47139  10.234   2.684  13.709
15081SOL    HW147140  10.198   2.756  13.761
15081SOL    HW247141  10.258   2.618  13.773
15082SOL     OW47142   7.336  11.487   3.416
15082SOL    HW147143   7.391  11.436   3.474
15082SOL    HW247144   7.280  11.539   3.475
15083SOL     OW47145   2.508   2.445  14.461
15083SOL    HW147146   2.473   2.530  14.434
15083SOL    HW247147   2.437   2.384  14.444
15084SOL     OW47148   2.650   2.935  11.367
15084SOL    HW147149   2.707   2.923  11.442
15084SOL    HW247150   2.709   2.937  11.292
15085SOL     OW47151   4.646   7.037  14.208
15085SOL    HW147152   4.720   7.059  14.151
15085SOL    HW247153   4.600   7.120  14.221
15086SOL     OW47154   0.301   2.351   3.808
15086SOL    HW147155   0.279   2.351   3.714
15086SOL    HW247156   0.218   2.331   3.852
15087SOL     OW47157   4.364  12.591  10.559
15087SOL    HW147158   4.284  12.538  10.565
15087SOL    HW247159   4.341  12.661  10.498
15088SOL     OW47160   0.234  11.390   5.672
15088SOL    HW147161   0.218  11.406   5.579
15088SOL    HW247162   0.154  11.422   5.715
15089SOL     OW47163  14.159   1.638  10.559
15089SOL    HW147164  14.103   1.694  10.504
15089SOL    HW247165  14.244   1.682  10.559
15090SOL     OW47166   4.897   3.286   7.155
15090SOL    HW147167   4.809   3.302   7.123
15090SOL    HW247168   4.893   3.199   7.194
15091SOL     OW47169   2.807   0.269   3.665
15091SOL    HW147170   2.803   0.296   3.757
15091SOL    HW247171   2.889   0.308   3.633
15092SOL     OW47172   9.790   2.440   6.768
15092SOL    HW147173   9.768   2.373   6.833
15092SOL    HW247174   9.788   2.392   6.684
15093SOL     OW47175  12.961   7.288  10.822
15093SOL    HW147176  13.020   7.351  10.864
15093SOL    HW247177  12.875   7.308  10.859
15094SOL     OW47178   8.596   4.140   1.415
15094SOL    HW147179   8.634   4.188   1.342
15094SOL    HW247180   8.502   4.153   1.406
15095SOL     OW47181   9.376   6.993   6.126
15095SOL    HW147182   9.345   6.945   6.203
15095SOL    HW247183   9.412   7.075   6.161
15096SOL     OW47184  10.169   5.614  11.936
15096SOL    HW147185  10.208   5.633  12.022
15096SOL    HW247186  10.163   5.699  11.893
15097SOL     OW47187   6.613   3.390  11.042
15097SOL    HW147188   6.679   3.324  11.021
15097SOL    HW247189   6.649   3.471  11.005
15098SOL     OW47190   9.651   1.919   1.710
15098SOL    HW147191   9.618   1.904   1.622
15098SOL    HW247192   9.746   1.931   1.698
15099SOL     OW47193   8.401   2.308  13.605
15099SOL    HW147194   8.368   2.371  13.541
15099SOL    HW247195   8.355   2.227  13.585
15100SOL     OW47196   9.040   0.103   2.214
15100SOL    HW147197   8.962   0.155   2.195
15100SOL    HW247198   9.056   0.116   2.308
15101SOL     OW47199   5.489  11.150  11.652
15101SOL    HW147200   5.547  11.076  11.641
15101SOL    HW247201   5.409  11.125  11.606
15102SOL     OW47202   3.859   0.119   7.676
15102SOL    HW147203   3.954   0.115   7.661
15102SOL    HW247204   3.823   0.156   7.595
15103SOL     OW47205   2.293   3.263  12.661
15103SOL    HW147206   2.303   3.194  12.596
15103SOL    HW247207   2.219   3.315  12.630
15104SOL     OW47208  13.979   2.310   5.613
15104SOL    HW147209  13.890   2.295   5.581
15104SOL    HW247210  13.980   2.275   5.701
15105SOL     OW47211   8.696   3.239  13.845
15105SOL    HW147212   8.746   3.206  13.920
15105SOL    HW247213   8.762   3.267  13.782
15106SOL     OW47214  12.537  14.090   4.881
15106SOL    HW147215  12.612  14.149   4.871
15106SOL    HW247216  12.467  14.146   4.916
15107SOL     OW47217   5.233  12.063  13.248
15107SOL    HW147218   5.319  12.025  13.266
15107SOL    HW247219   5.197  12.008  13.178
15108SOL     OW47220   4.629  13.538   3.512
15108SOL    HW147221   4.715  13.512   3.545
15108SOL    HW247222   4.595  13.459   3.469
15109SOL     OW47223   0.927   9.287  13.615
15109SOL    HW147224   0.994   9.298  13.547
15109SOL    HW247225   0.876   9.368  13.611
15110SOL     OW47226   7.307   4.857   8.400
15110SOL    HW147227   7.379   4.799   8.377
15110SOL    HW247228   7.310   4.863   8.495
15111SOL     OW47229  14.594   6.661   5.800
15111SOL    HW147230  14.641   6.744   5.814
15111SOL    HW247231  14.659   6.604   5.759
15112SOL     OW47232  10.210   8.527  10.351
15112SOL    HW147233  10.298   8.561  10.366
15112SOL    HW247234  10.221   8.459  10.284
15113SOL     OW47235   3.826   1.288   2.112
15113SOL    HW147236   3.784   1.279   2.197
15113SOL    HW247237   3.794   1.213   2.061
15114SOL     OW47238   3.195   9.294  14.443
15114SOL    HW147239   3.166   9.257  14.360
15114SOL    HW247240   3.276   9.340  14.421
15115SOL     OW47241  11.394   2.164   3.461
15115SOL    HW147242  11.460   2.188   3.396
15115SOL    HW247243  11.376   2.071   3.442
15116SOL     OW47244   7.511   7.032  13.494
15116SOL    HW147245   7.556   6.955  13.529
15116SOL    HW247246   7.581   7.086  13.458
15117SOL     OW47247  11.137  10.571   8.655
15117SOL    HW147248  11.055  10.525   8.676
15117SOL    HW247249  11.126  10.599   8.564
15118SOL     OW47250   8.132   9.526   8.050
15118SOL    HW147251   8.180   9.479   8.119
15118SOL    HW247252   8.066   9.576   8.096
15119SOL     OW47253   2.998   3.600   7.320
15119SOL    HW147254   2.936   3.664   7.355
15119SOL    HW247255   2.994   3.527   7.381
15120SOL     OW47256   5.541   3.339   4.917
15120SOL    HW147257   5.472   3.272   4.925
15120SOL    HW247258   5.522   3.400   4.988
15121SOL     OW47259   1.381   4.646   2.989
15121SOL    HW147260   1.468   4.651   3.028
15121SOL    HW247261   1.382   4.563   2.941
15122SOL     OW47262   9.078   0.265   2.665
15122SOL    HW147263   8.989   0.275   2.631
15122SOL    HW247264   9.123   0.346   2.638
15123SOL     OW47265   6.052   7.199   3.416
15123SOL    HW147266   6.058   7.106   3.436
15123SOL    HW247267   5.977   7.207   3.358
15124SOL     OW47268   0.134   9.234  14.454
15124SOL    HW147269   0.140   9.198  14.543
15124SOL    HW247270   0.197   9.306  14.453
15125SOL     OW47271   0.772  10.949   8.109
15125SOL    HW147272   0.705  10.884   8.126
15125SOL    HW247273   0.792  10.987   8.195
15126SOL     OW47274   0.619   8.866   8.833
15126SOL    HW147275   0.567   8.872   8.913
15126SOL    HW247276   0.562   8.821   8.770
15127SOL     OW47277   5.220   7.857   5.077
15127SOL    HW147278   5.267   7.932   5.040
15127SOL    HW247279   5.243   7.857   5.170
15128SOL     OW47280  14.519   6.096   1.506
15128SOL    HW147281  14.603   6.133   1.479
15128SOL    HW247282  14.522   6.096   1.602
15129SOL     OW47283   1.311   3.957  10.693
15129SOL    HW147284   1.240   3.956  10.757
15129SOL    HW247285   1.266   3.951  10.608
15130SOL     OW47286   5.857   6.997   7.072
15130SOL    HW147287   5.823   6.946   7.145
15130SOL    HW247288   5.929   6.945   7.037
15131SOL     OW47289  12.234  13.497   8.626
15131SOL    HW147290  12.305  13.492   8.562
15131SOL    HW247291  12.217  13.591   8.635
15132SOL     OW47292   7.872  12.923   9.556
15132SOL    HW147293   7.964  12.912   9.531
15132SOL    HW247294   7.842  12.835   9.578
15133SOL     OW47295  11.779   9.086  11.035
15133SOL    HW147296  11.747   9.115  11.121
15133SOL    HW247297  11.863   9.044  11.054
15134SOL     OW47298  11.860   5.938   1.930
15134SOL    HW147299  11.847   5.907   2.019
15134SOL    HW247300  11.941   5.896   1.901
15135SOL     OW47301   0.413  11.198   6.275
15135SOL    HW147302   0.318  11.190   6.290
15135SOL    HW247303   0.452  11.132   6.333
15136SOL     OW47304   3.273  13.038   4.246
15136SOL    HW147305   3.348  13.071   4.196
15136SOL    HW247306   3.306  12.960   4.290
15137SOL     OW47307   1.731   3.444   5.274
15137SOL    HW147308   1.818   3.462   5.238
15137SOL    HW247309   1.698   3.530   5.301
15138SOL     OW47310   0.527   0.769   2.136
15138SOL    HW147311   0.612   0.741   2.103
15138SOL    HW247312   0.467   0.756   2.063
15139SOL     OW47313   6.153   3.904  12.108
15139SOL    HW147314   6.116   3.962  12.174
15139SOL    HW247315   6.205   3.961  12.051
15140SOL     OW47316  10.494   9.030   7.536
15140SOL    HW147317  10.571   9.052   7.483
15140SOL    HW247318  10.512   8.942   7.568
15141SOL     OW47319   0.009   7.521   8.580
15141SOL    HW147320   0.010   7.586   8.650
15141SOL    HW247321  14.852   7.442   8.620
15142SOL     OW47322   6.351   8.289   3.764
15142SOL    HW147323   6.415   8.290   3.835
15142SOL    HW247324   6.335   8.195   3.748
15143SOL     OW47325   5.237   1.749   6.130
15143SOL    HW147326   5.159   1.775   6.082
15143SOL    HW247327   5.294   1.826   6.126
15144SOL     OW47328   4.067   2.299   0.092
15144SOL    HW147329   4.109   2.300   0.179
15144SOL    HW247330   4.122   2.356   0.038
15145SOL     OW47331   1.370   7.497   9.964
15145SOL    HW147332   1.299   7.553   9.996
15145SOL    HW247333   1.434   7.496  10.036
15146SOL     OW47334   9.120   2.583  13.105
15146SOL    HW147335   9.117   2.496  13.143
15146SOL    HW247336   9.038   2.625  13.131
15147SOL     OW47337   4.105  10.690   1.182
15147SOL    HW147338   4.023  10.656   1.217
15147SOL    HW247339   4.173  10.640   1.226
15148SOL     OW47340   5.540  12.889  13.151
15148SOL    HW147341   5.616  12.907  13.205
15148SOL    HW247342   5.467  12.882  13.213
15149SOL     OW47343  14.745   8.554   7.409
15149SOL    HW147344  14.755   8.549   7.504
15149SOL    HW247345  14.687   8.629   7.394
15150SOL     OW47346   7.452  14.724  13.365
15150SOL    HW147347   7.523  14.786  13.347
15150SOL    HW247348   7.378  14.778  13.391
15151SOL     OW47349  10.990   1.607   7.577
15151SOL    HW147350  10.989   1.563   7.492
15151SOL    HW247351  11.019   1.539   7.639
15152SOL     OW47352   9.434  12.802   0.631
15152SOL    HW147353   9.417  12.876   0.573
15152SOL    HW247354   9.517  12.765   0.601
15153SOL     OW47355   3.430   2.189   4.500
15153SOL    HW147356   3.436   2.169   4.407
15153SOL    HW247357   3.483   2.121   4.543
15154SOL     OW47358  13.909  14.554  13.250
15154SOL    HW147359  13.960  14.564  13.169
15154SOL    HW247360  13.914  14.461  13.270
15155SOL     OW47361   1.948  11.081   7.614
15155SOL    HW147362   1.945  10.997   7.660
15155SOL    HW247363   1.929  11.146   7.682
15156SOL     OW47364   4.750   1.272   6.404
15156SOL    HW147365   4.823   1.291   6.345
15156SOL    HW247366   4.743   1.177   6.403
15157SOL     OW47367  10.570   4.241   8.090
15157SOL    HW147368  10.496   4.190   8.058
15157SOL    HW247369  10.534   4.328   8.108
15158SOL     OW47370   6.318   2.739  14.582
15158SOL    HW147371   6.299   2.785  14.664
15158SOL    HW247372   6.232   2.711  14.550
15159SOL     OW47373   5.795   4.649   7.566
15159SOL    HW147374   5.787   4.576   7.628
15159SOL    HW247375   5.743   4.720   7.605
15160SOL     OW47376   2.213   3.928   4.883
15160SOL    HW147377   2.260   4.004   4.917
15160SOL    HW247378   2.282   3.864   4.864
15161SOL     OW47379  11.062  10.926  14.189
15161SOL    HW147380  11.089  11.015  14.167
15161SOL    HW247381  10.977  10.916  14.146
15162SOL     OW47382   5.887   4.999   5.225
15162SOL    HW147383   5.938   5.059   5.279
15162SOL    HW247384   5.811   5.050   5.198
15163SOL     OW47385   5.561   3.823   8.389
15163SOL    HW147386   5.571   3.841   8.482
15163SOL    HW247387   5.630   3.759   8.370
15164SOL     OW47388  13.529   0.907  14.530
15164SOL    HW147389  13.577   0.855  14.465
15164SOL    HW247390  13.501   0.843  14.595
15165SOL     OW47391   7.217  10.070   8.498
15165SOL    HW147392   7.278   9.999   8.515
15165SOL    HW247393   7.161  10.037   8.427
15166SOL     OW47394   0.855   0.118  13.015
15166SOL    HW147395   0.842   0.086  12.926
15166SOL    HW247396   0.776   0.169  13.033
15167SOL     OW47397   8.333   8.003   7.978
15167SOL    HW147398   8.332   7.985   7.884
15167SOL    HW247399   8.294   7.925   8.018
15168SOL     OW47400   8.008   2.344  13.612
15168SOL    HW147401   8.080   2.282  13.612
15168SOL    HW247402   8.019   2.395  13.531
15169SOL     OW47403  11.937   1.658  14.255
15169SOL    HW147404  12.014   1.623  14.211
15169SOL    HW247405  11.927   1.747  14.219
15170SOL     OW47406   1.260   6.993   7.855
15170SOL    HW147407   1.208   6.936   7.912
15170SOL    HW247408   1.347   6.954   7.855
15171SOL     OW47409   9.802   0.699   7.899
15171SOL    HW147410   9.762   0.675   7.815
15171SOL    HW247411   9.890   0.662   7.895
15172SOL     OW47412   2.256   6.900   7.552
15172SOL    HW147413   2.253   6.808   7.578
15172SOL    HW247414   2.193   6.906   7.480
15173SOL     OW47415  11.913  11.082   2.948
15173SOL    HW147416  11.887  11.163   2.904
15173SOL    HW247417  11.870  11.087   3.033
15174SOL     OW47418  13.819  10.873   3.354
15174SOL    HW147419  13.756  10.916   3.295
15174SOL    HW247420  13.782  10.884   3.441
15175SOL     OW47421   5.440   1.562  14.678
15175SOL    HW147422   5.471   1.625  14.613
15175SOL    HW247423   5.344   1.570  14.675
15176SOL     OW47424  14.490   0.766   3.848
15176SOL    HW147425  14.415   0.806   3.806
15176SOL    HW247426  14.562   0.777   3.785
15177SOL     OW47427   1.769  12.745   1.630
15177SOL    HW147428   1.779  12.833   1.667
15177SOL    HW247429   1.678  12.722   1.649
15178SOL     OW47430  14.056   9.239   7.471
15178SOL    HW147431  13.988   9.293   7.432
15178SOL    HW247432  14.077   9.282   7.554
15179SOL     OW47433   2.332  13.349   5.805
15179SOL    HW147434   2.242  13.349   5.836
15179SOL    HW247435   2.353  13.256   5.792
15180SOL     OW47436   1.171   2.433   2.567
15180SOL    HW147437   1.095   2.383   2.597
15180SOL    HW247438   1.147   2.525   2.583
15181SOL     OW47439   8.847   5.270   8.334
15181SOL    HW147440   8.780   5.268   8.266
15181SOL    HW247441   8.843   5.184   8.376
15182SOL     OW47442   0.032   0.057   3.408
15182SOL    HW147443  14.856  14.876   3.358
15182SOL    HW247444   0.110   0.067   3.355
15183SOL     OW47445   2.967  11.998  12.277
15183SOL    HW147446   3.031  11.969  12.212
15183SOL    HW247447   2.972  12.094  12.273
15184SOL     OW47448   9.477   1.635  13.159
15184SOL    HW147449   9.406   1.586  13.200
15184SOL    HW247450   9.539   1.568  13.131
15185SOL     OW47451  13.406  11.349   6.790
15185SOL    HW147452  13.495  11.352   6.825
15185SOL    HW247453  13.368  11.269   6.827
15186SOL     OW47454   9.862  12.021   0.135
15186SOL    HW147455   9.847  12.115   0.137
15186SOL    HW247456   9.817  11.991   0.056
15187SOL     OW47457   6.671  12.302   5.483
15187SOL    HW147458   6.716  12.364   5.425
15187SOL    HW247459   6.578  12.323   5.474
15188SOL     OW47460  10.851  11.703   0.883
15188SOL    HW147461  10.810  11.747   0.958
15188SOL    HW247462  10.817  11.614   0.886
15189SOL     OW47463  10.360  14.378   0.043
15189SOL    HW147464  10.453  14.356   0.036
15189SOL    HW247465  10.356  14.472   0.026
15190SOL     OW47466   2.615   7.824   4.641
15190SOL    HW147467   2.637   7.805   4.550
15190SOL    HW247468   2.548   7.759   4.664
15191SOL     OW47469   6.887  12.155  13.830
15191SOL    HW147470   6.828  12.224  13.801
15191SOL    HW247471   6.960  12.201  13.872
15192SOL     OW47472   9.934   2.914   1.338
15192SOL    HW147473   9.925   2.820   1.324
15192SOL    HW247474   9.857   2.953   1.297
15193SOL     OW47475  12.551   5.962  11.142
15193SOL    HW147476  12.521   5.987  11.230
15193SOL    HW247477  12.626   6.018  11.126
15194SOL     OW47478   5.172   3.124   0.110
15194SOL    HW147479   5.183   3.124   0.205
15194SOL    HW247480   5.084   3.089   0.096
15195SOL     OW47481   2.164  11.116   5.211
15195SOL    HW147482   2.072  11.140   5.226
15195SOL    HW247483   2.161  11.023   5.188
15196SOL     OW47484   4.866   3.118   8.167
15196SOL    HW147485   4.893   3.097   8.078
15196SOL    HW247486   4.897   3.207   8.182
15197SOL     OW47487   8.997   3.241   5.999
15197SOL    HW147488   8.973   3.149   5.987
15197SOL    HW247489   9.064   3.257   5.932
15198SOL     OW47490   2.836  14.348   9.590
15198SOL    HW147491   2.812  14.267   9.636
15198SOL    HW247492   2.929  14.336   9.568
15199SOL     OW47493   3.293  10.681   4.391
15199SOL    HW147494   3.308  10.624   4.316
15199SOL    HW247495   3.205  10.717   4.376
15200SOL     OW47496   5.286   1.630   1.096
15200SOL    HW147497   5.285   1.684   1.174
15200SOL    HW247498   5.295   1.540   1.129
15201SOL     OW47499  13.886  10.131   0.294
15201SOL    HW147500  13.829  10.175   0.231
15201SOL    HW247501  13.956  10.194   0.311
15202SOL     OW47502  13.861   7.057   1.219
15202SOL    HW147503  13.847   7.025   1.130
15202SOL    HW247504  13.889   7.148   1.207
15203SOL     OW47505  10.369   5.864  11.281
15203SOL    HW147506  10.370   5.935  11.345
15203SOL    HW247507  10.290   5.879  11.230
15204SOL     OW47508   6.519  13.772   3.200
15204SOL    HW147509   6.513  13.866   3.183
15204SOL    HW247510   6.563  13.766   3.285
15205SOL     OW47511   8.698   0.064  12.590
15205SOL    HW147512   8.777   0.021  12.621
15205SOL    HW247513   8.631   0.043  12.656
15206SOL     OW47514  10.527  12.389   2.388
15206SOL    HW147515  10.550  12.455   2.453
15206SOL    HW247516  10.590  12.318   2.404
15207SOL     OW47517   1.626   2.885   9.639
15207SOL    HW147518   1.553   2.945   9.656
15207SOL    HW247519   1.688   2.902   9.710
15208SOL     OW47520  12.940  11.263  14.722
15208SOL    HW147521  12.901  11.275  14.808
15208SOL    HW247522  13.009  11.198  14.736
15209SOL     OW47523   3.677   2.316   3.413
15209SOL    HW147524   3.702   2.363   3.333
15209SOL    HW247525   3.594   2.274   3.393
15210SOL     OW47526   1.080   3.006  14.437
15210SOL    HW147527   1.050   3.029  14.349
15210SOL    HW247528   1.080   3.090  14.484
15211SOL     OW47529   2.466   1.744  11.629
15211SOL    HW147530   2.542   1.787  11.668
15211SOL    HW247531   2.468   1.772  11.537
15212SOL     OW47532   2.834   0.459  10.792
15212SOL    HW147533   2.865   0.548  10.782
15212SOL    HW247534   2.877   0.410  10.722
15213SOL     OW47535   0.419  10.900   2.585
15213SOL    HW147536   0.507  10.918   2.550
15213SOL    HW247537   0.364  10.891   2.508
15214SOL     OW47538   7.961   2.336   7.311
15214SOL    HW147539   7.893   2.399   7.335
15214SOL    HW247540   8.032   2.390   7.276
15215SOL     OW47541  11.966   1.411  12.704
15215SOL    HW147542  11.932   1.491  12.744
15215SOL    HW247543  12.006   1.441  12.622
15216SOL     OW47544   0.753   6.900  12.931
15216SOL    HW147545   0.837   6.939  12.955
15216SOL    HW247546   0.688   6.966  12.956
15217SOL     OW47547   7.509   7.427   8.574
15217SOL    HW147548   7.442   7.361   8.561
15217SOL    HW247549   7.560   7.426   8.493
15218SOL     OW47550   4.334   3.530  14.029
15218SOL    HW147551   4.297   3.618  14.030
15218SOL    HW247552   4.423   3.541  14.063
15219SOL     OW47553   8.766   0.295   8.265
15219SOL    HW147554   8.776   0.370   8.206
15219SOL    HW247555   8.718   0.330   8.340
15220SOL     OW47556  11.516  11.163   3.185
15220SOL    HW147557  11.607  11.149   3.159
15220SOL    HW247558  11.481  11.223   3.119
15221SOL     OW47559  13.594   8.593   5.266
15221SOL    HW147560  13.597   8.659   5.335
15221SOL    HW247561  13.510   8.547   5.281
15222SOL     OW47562   7.172  14.585   4.608
15222SOL    HW147563   7.126  14.508   4.574
15222SOL    HW247564   7.149  14.588   4.700
15223SOL     OW47565  10.840  14.321   6.004
15223SOL    HW147566  10.932  14.293   6.002
15223SOL    HW247567  10.790  14.240   6.013
15224SOL     OW47568  14.590   9.332   6.722
15224SOL    HW147569  14.660   9.300   6.665
15224SOL    HW247570  14.628   9.405   6.769
15225SOL     OW47571   6.681   2.431  11.519
15225SOL    HW147572   6.671   2.357  11.458
15225SOL    HW247573   6.594   2.468  11.527
15226SOL     OW47574   6.770  12.774   9.098
15226SOL    HW147575   6.789  12.866   9.119
15226SOL    HW247576   6.679  12.774   9.068
15227SOL     OW47577  11.327  12.525   9.852
15227SOL    HW147578  11.326  12.436   9.816
15227SOL    HW247579  11.396  12.570   9.804
15228SOL     OW47580   2.064   4.388  13.735
15228SOL    HW147581   2.084   4.478  13.710
15228SOL    HW247582   2.146   4.341  13.724
15229SOL     OW47583  13.223  14.261   9.754
15229SOL    HW147584  13.280  14.240   9.681
15229SOL    HW247585  13.207  14.177   9.798
15230SOL     OW47586   1.231   9.848   2.889
15230SOL    HW147587   1.236   9.931   2.841
15230SOL    HW247588   1.281   9.864   2.969
15231SOL     OW47589   0.817  12.597   9.498
15231SOL    HW147590   0.889  12.660   9.491
15231SOL    HW247591   0.760  12.616   9.424
15232SOL     OW47592  11.527  14.805   2.718
15232SOL    HW147593  11.431  14.802   2.728
15232SOL    HW247594  11.544   0.004   2.667
15233SOL     OW47595   2.465  10.512   3.914
15233SOL    HW147596   2.482  10.476   4.001
15233SOL    HW247597   2.380  10.555   3.922
15234SOL     OW47598   9.745   5.581   5.150
15234SOL    HW147599   9.694   5.501   5.164
15234SOL    HW247600   9.688   5.651   5.182
15235SOL     OW47601   2.965   4.848   3.732
15235SOL    HW147602   2.907   4.917   3.764
15235SOL    HW247603   2.986   4.875   3.642
15236SOL     OW47604   8.837   3.991   3.764
15236SOL    HW147605   8.792   4.040   3.695
15236SOL    HW247606   8.853   4.055   3.833
15237SOL     OW47607  14.063   4.171   0.685
15237SOL    HW147608  13.993   4.235   0.673
15237SOL    HW247609  14.082   4.140   0.597
15238SOL     OW47610  10.799   1.289   1.102
15238SOL    HW147611  10.743   1.250   1.034
15238SOL    HW247612  10.888   1.272   1.072
15239SOL     OW47613  12.375   5.495   8.511
15239SOL    HW147614  12.444   5.434   8.485
15239SOL    HW247615  12.299   5.439   8.530
15240SOL     OW47616   1.492   3.295   1.388
15240SOL    HW147617   1.444   3.253   1.459
15240SOL    HW247618   1.584   3.278   1.408
15241SOL     OW47619   1.306   2.349   9.804
15241SOL    HW147620   1.333   2.431   9.763
15241SOL    HW247621   1.350   2.281   9.754
15242SOL     OW47622   0.967  13.057   8.642
15242SOL    HW147623   0.994  13.045   8.551
15242SOL    HW247624   1.047  13.082   8.687
15243SOL     OW47625   3.425  11.964  10.336
15243SOL    HW147626   3.520  11.952  10.336
15243SOL    HW247627   3.412  12.058  10.331
15244SOL     OW47628   7.723   7.091   6.570
15244SOL    HW147629   7.814   7.072   6.592
15244SOL    HW247630   7.681   7.004   6.566
15245SOL     OW47631  10.700   1.622   9.555
15245SOL    HW147632  10.660   1.646   9.638
15245SOL    HW247633  10.724   1.530   9.565
15246SOL     OW47634   4.893   3.701  13.671
15246SOL    HW147635   4.828   3.632  13.658
15246SOL    HW247636   4.955   3.663  13.734
15247SOL     OW47637   9.735   9.428   5.908
15247SOL    HW147638   9.672   9.370   5.950
15247SOL    HW247639   9.816   9.378   5.906
15248SOL     OW47640   2.610   9.269   6.752
15248SOL    HW147641   2.694   9.281   6.797
15248SOL    HW247642   2.589   9.355   6.717
15249SOL     OW47643   4.928   8.173   2.308
15249SOL    HW147644   4.882   8.099   2.349
15249SOL    HW247645   4.937   8.147   2.216
15250SOL     OW47646  12.775   9.491   5.793
15250SOL    HW147647  12.790   9.578   5.755
15250SOL    HW247648  12.738   9.440   5.720
15251SOL     OW47649   0.847   1.080  11.767
15251SOL    HW147650   0.808   1.023  11.701
15251SOL    HW247651   0.922   1.030  11.801
15252SOL     OW47652   7.895   4.758   3.518
15252SOL    HW147653   7.972   4.766   3.574
15252SOL    HW247654   7.851   4.680   3.550
15253SOL     OW47655  12.218   3.297   2.396
15253SOL    HW147656  12.125   3.321   2.395
15253SOL    HW247657  12.220   3.206   2.367
15254SOL     OW47658  13.268   1.972   9.494
15254SOL    HW147659  13.311   1.905   9.442
15254SOL    HW247660  13.334   1.999   9.558
15255SOL     OW47661  12.275   4.448  13.254
15255SOL    HW147662  12.290   4.446  13.349
15255SOL    HW247663  12.302   4.361  13.225
15256SOL     OW47664   2.769   4.305  14.544
15256SOL    HW147665   2.808   4.390  14.521
15256SOL    HW247666   2.704   4.289  14.476
15257SOL     OW47667   5.678  11.132   5.058
15257SOL    HW147668   5.715  11.178   4.983
15257SOL    HW247669   5.699  11.188   5.133
15258SOL     OW47670   2.600   7.875  13.884
15258SOL    HW147671   2.609   7.784  13.854
15258SOL    HW247672   2.519   7.875  13.935
15259SOL     OW47673  11.305   3.208   2.892
15259SOL    HW147674  11.240   3.209   2.822
15259SOL    HW247675  11.255   3.195   2.972
15260SOL     OW47676   1.770   3.922   4.174
15260SOL    HW147677   1.802   3.894   4.260
15260SOL    HW247678   1.697   3.863   4.155
15261SOL     OW47679   2.983  14.636  11.696
15261SOL    HW147680   2.895  14.646  11.661
15261SOL    HW247681   2.999  14.541  11.693
15262SOL     OW47682   9.002   9.723   6.909
15262SOL    HW147683   8.958   9.760   6.985
15262SOL    HW247684   8.981   9.783   6.838
15263SOL     OW47685  10.652   8.693   4.809
15263SOL    HW147686  10.662   8.692   4.714
15263SOL    HW247687  10.586   8.625   4.826
15264SOL     OW47688  12.812   1.631  13.302
15264SOL    HW147689  12.862   1.550  13.305
15264SOL    HW247690  12.863   1.693  13.354
15265SOL     OW47691   3.935   5.901  10.507
15265SOL    HW147692   3.903   5.817  10.542
15265SOL    HW247693   3.928   5.962  10.580
15266SOL     OW47694  11.355   5.337  11.031
15266SOL    HW147695  11.436   5.365  10.989
15266SOL    HW247696  11.286   5.361  10.970
15267SOL     OW47697   4.900  14.356  11.141
15267SOL    HW147698   4.838  14.283  11.144
15267SOL    HW247699   4.869  14.411  11.068
15268SOL     OW47700   7.620   8.435   5.838
15268SOL    HW147701   7.697   8.396   5.797
15268SOL    HW247702   7.642   8.442   5.931
15269SOL     OW47703   3.669  11.248   2.340
15269SOL    HW147704   3.759  11.221   2.328
15269SOL    HW247705   3.624  11.170   2.373
15270SOL     OW47706   8.245  14.189   5.771
15270SOL    HW147707   8.313  14.243   5.811
15270SOL    HW247708   8.183  14.172   5.843
15271SOL     OW47709   4.840  10.326   4.073
15271SOL    HW147710   4.787  10.246   4.073
15271SOL    HW247711   4.799  10.381   4.006
15272SOL     OW47712   1.379  12.637   6.091
15272SOL    HW147713   1.415  12.691   6.022
15272SOL    HW247714   1.359  12.698   6.162
15273SOL     OW47715   6.155  13.869   4.867
15273SOL    HW147716   6.073  13.830   4.836
15273SOL    HW247717   6.128  13.947   4.915
15274SOL     OW47718   4.174  12.390  12.701
15274SOL    HW147719   4.240  12.458  12.686
15274SOL    HW247720   4.214  12.310  12.667
15275SOL     OW47721   4.950   4.822   8.430
15275SOL    HW147722   5.043   4.844   8.434
15275SOL    HW247723   4.931   4.814   8.336
15276SOL     OW47724   6.877   5.397  12.359
15276SOL    HW147725   6.890   5.348  12.279
15276SOL    HW247726   6.790   5.436  12.350
15277SOL     OW47727  13.465   3.225  11.823
15277SOL    HW147728  13.393   3.214  11.886
15277SOL    HW247729  13.455   3.315  11.791
15278SOL     OW47730   5.631  11.856   6.474
15278SOL    HW147731   5.575  11.799   6.526
15278SOL    HW247732   5.678  11.909   6.539
15279SOL     OW47733  12.977   0.930  12.370
15279SOL    HW147734  13.038   0.871  12.325
15279SOL    HW247735  12.993   0.915  12.463
15280SOL     OW47736   6.158   8.289  10.871
15280SOL    HW147737   6.177   8.344  10.947
15280SOL    HW247738   6.241   8.283  10.824
15281SOL     OW47739   4.317   7.711  12.597
15281SOL    HW147740   4.310   7.806  12.604
15281SOL    HW247741   4.299   7.693  12.504
15282SOL     OW47742  12.525  14.112   6.151
15282SOL    HW147743  12.512  14.191   6.204
15282SOL    HW247744  12.497  14.137   6.063
15283SOL     OW47745   3.144  11.602   1.689
15283SOL    HW147746   3.211  11.647   1.740
15283SOL    HW247747   3.061  11.639   1.720
15284SOL     OW47748   8.909   3.802  13.741
15284SOL    HW147749   8.913   3.799  13.645
15284SOL    HW247750   8.866   3.885  13.760
15285SOL     OW47751   4.497   9.442  11.111
15285SOL    HW147752   4.406   9.468  11.093
15285SOL    HW247753   4.519   9.380  11.041
15286SOL     OW47754  10.769   4.668   2.106
15286SOL    HW147755  10.761   4.634   2.017
15286SOL    HW247756  10.717   4.748   2.106
15287SOL     OW47757   7.801  12.397  14.758
15287SOL    HW147758   7.761  12.384  14.844
15287SOL    HW247759   7.747  12.463  14.716
15288SOL     OW47760   2.601   5.088   9.475
15288SOL    HW147761   2.585   5.079   9.381
15288SOL    HW247762   2.618   5.181   9.488
15289SOL     OW47763  13.746  11.555  12.907
15289SOL    HW147764  13.775  11.592  12.823
15289SOL    HW247765  13.788  11.470  12.911
15290SOL     OW47766  13.419   3.361  12.593
15290SOL    HW147767  13.501   3.324  12.561
15290SOL    HW247768  13.405   3.439  12.539
15291SOL     OW47769   6.887  11.454   2.116
15291SOL    HW147770   6.962  11.409   2.156
15291SOL    HW247771   6.889  11.425   2.025
15292SOL     OW47772   9.384  14.747  12.391
15292SOL    HW147773   9.345  14.670  12.350
15292SOL    HW247774   9.336  14.821  12.352
15293SOL     OW47775   3.169   8.924   5.313
15293SOL    HW147776   3.178   8.830   5.302
15293SOL    HW247777   3.092   8.947   5.260
15294SOL     OW47778   8.924   2.956   5.984
15294SOL    HW147779   8.867   2.879   5.981
15294SOL    HW247780   8.953   2.967   5.894
15295SOL     OW47781  12.917   1.622  12.708
15295SOL    HW147782  12.989   1.559  12.712
15295SOL    HW247783  12.921   1.667  12.792
15296SOL     OW47784  12.129  14.083   1.777
15296SOL    HW147785  12.208  14.051   1.822
15296SOL    HW247786  12.060  14.075   1.843
15297SOL     OW47787   5.339   5.513   6.615
15297SOL    HW147788   5.431   5.497   6.596
15297SOL    HW247789   5.315   5.588   6.560
15298SOL     OW47790   3.532   8.061   5.923
15298SOL    HW147791   3.608   8.044   5.978
15298SOL    HW247792   3.555   8.138   5.872
15299SOL     OW47793  12.506   3.276   6.417
15299SOL    HW147794  12.484   3.285   6.510
15299SOL    HW247795  12.479   3.187   6.394
15300SOL     OW47796  10.723   3.723   8.614
15300SOL    HW147797  10.737   3.753   8.704
15300SOL    HW247798  10.630   3.702   8.610
15301SOL     OW47799   5.012   2.192  13.803
15301SOL    HW147800   4.952   2.125  13.770
15301SOL    HW247801   5.075   2.205  13.732
15302SOL     OW47802   0.733   6.337   4.258
15302SOL    HW147803   0.670   6.318   4.327
15302SOL    HW247804   0.762   6.251   4.229
15303SOL     OW47805   3.191   6.852   3.829
15303SOL    HW147806   3.233   6.777   3.787
15303SOL    HW247807   3.227   6.928   3.783
15304SOL     OW47808   8.612  11.938  13.516
15304SOL    HW147809   8.633  12.024  13.479
15304SOL    HW247810   8.523  11.948  13.550
15305SOL     OW47811  13.455   3.939   9.167
15305SOL    HW147812  13.448   4.013   9.107
15305SOL    HW247813  13.430   3.975   9.253
15306SOL     OW47814   7.985  12.309   5.423
15306SOL    HW147815   7.946  12.395   5.407
15306SOL    HW247816   7.931  12.271   5.492
15307SOL     OW47817   1.748   9.031   5.697
15307SOL    HW147818   1.750   9.066   5.786
15307SOL    HW247819   1.839   9.037   5.667
15308SOL     OW47820  14.462  10.547   5.344
15308SOL    HW147821  14.534  10.597   5.305
15308SOL    HW247822  14.497  10.517   5.428
15309SOL     OW47823   8.093   2.149   8.896
15309SOL    HW147824   8.186   2.134   8.914
15309SOL    HW247825   8.057   2.178   8.979
15310SOL     OW47826  14.475   8.722   9.832
15310SOL    HW147827  14.427   8.662   9.890
15310SOL    HW247828  14.480   8.676   9.749
15311SOL     OW47829   6.296   3.172   7.741
15311SOL    HW147830   6.219   3.122   7.713
15311SOL    HW247831   6.310   3.236   7.671
15312SOL     OW47832   9.067   4.574   7.678
15312SOL    HW147833   9.144   4.608   7.724
15312SOL    HW247834   9.101   4.544   7.594
15313SOL     OW47835   1.255   8.457   3.889
15313SOL    HW147836   1.344   8.440   3.857
15313SOL    HW247837   1.209   8.374   3.876
15314SOL     OW47838   4.356   2.467   1.406
15314SOL    HW147839   4.366   2.386   1.456
15314SOL    HW247840   4.288   2.447   1.342
15315SOL     OW47841   4.313   8.815  14.247
15315SOL    HW147842   4.357   8.747  14.196
15315SOL    HW247843   4.253   8.857  14.185
15316SOL     OW47844   7.887  11.906   5.083
15316SOL    HW147845   7.955  11.924   5.148
15316SOL    HW247846   7.806  11.906   5.133
15317SOL     OW47847   6.142   7.049  11.490
15317SOL    HW147848   6.059   7.093  11.470
15317SOL    HW247849   6.119   6.956  11.493
15318SOL     OW47850  13.374  10.135   1.538
15318SOL    HW147851  13.292  10.117   1.492
15318SOL    HW247852  13.428  10.058   1.521
15319SOL     OW47853   9.221  11.869   1.951
15319SOL    HW147854   9.273  11.799   1.911
15319SOL    HW247855   9.167  11.825   2.016
15320SOL     OW47856  11.482  11.126  13.255
15320SOL    HW147857  11.459  11.034  13.243
15320SOL    HW247858  11.414  11.174  13.208
15321SOL     OW47859   9.711  10.240   8.119
15321SOL    HW147860   9.720  10.304   8.189
15321SOL    HW247861   9.635  10.188   8.144
15322SOL     OW47862   0.835   6.414  14.600
15322SOL    HW147863   0.856   6.394  14.691
15322SOL    HW247864   0.859   6.506  14.590
15323SOL     OW47865   6.978  13.861  10.056
15323SOL    HW147866   6.991  13.887  10.147
15323SOL    HW247867   7.066  13.850  10.021
15324SOL     OW47868   7.140   3.954   6.676
15324SOL    HW147869   7.148   4.048   6.695
15324SOL    HW247870   7.170   3.946   6.585
15325SOL     OW47871  10.479   3.531   5.552
15325SOL    HW147872  10.396   3.484   5.551
15325SOL    HW247873  10.453   3.623   5.546
15326SOL     OW47874  12.107   1.486   2.994
15326SOL    HW147875  12.099   1.573   3.034
15326SOL    HW247876  12.115   1.504   2.900
15327SOL     OW47877   5.302  12.174   4.997
15327SOL    HW147878   5.318  12.097   5.051
15327SOL    HW247879   5.232  12.221   5.042
15328SOL     OW47880   4.842   3.266   6.075
15328SOL    HW147881   4.753   3.268   6.040
15328SOL    HW247882   4.864   3.357   6.093
15329SOL     OW47883   6.160  13.414   2.222
15329SOL    HW147884   6.234  13.464   2.257
15329SOL    HW247885   6.110  13.478   2.171
15330SOL     OW47886  10.345  12.783   2.920
15330SOL    HW147887  10.252  12.765   2.927
15330SOL    HW247888  10.354  12.877   2.936
15331SOL     OW47889   1.858   2.055   1.584
15331SOL    HW147890   1.859   2.016   1.671
15331SOL    HW247891   1.918   2.001   1.533
15332SOL     OW47892   1.829   8.794  10.633
15332SOL    HW147893   1.896   8.748  10.581
15332SOL    HW247894   1.819   8.740  10.711
15333SOL     OW47895  12.447   9.831   8.467
15333SOL    HW147896  12.533   9.797   8.443
15333SOL    HW247897  12.401   9.841   8.384
15334SOL     OW47898  11.380   8.980  11.109
15334SOL    HW147899  11.305   8.955  11.163
15334SOL    HW247900  11.345   8.983  11.020
15335SOL     OW47901  14.508   0.858   2.506
15335SOL    HW147902  14.561   0.861   2.585
15335SOL    HW247903  14.516   0.945   2.468
15336SOL     OW47904  13.927   5.091   3.415
15336SOL    HW147905  13.966   5.172   3.380
15336SOL    HW247906  13.870   5.121   3.485
15337SOL     OW47907  11.672  11.008  10.035
15337SOL    HW147908  11.643  11.037  10.121
15337SOL    HW247909  11.668  11.086   9.980
15338SOL     OW47910  10.381  12.514   0.608
15338SOL    HW147911  10.436  12.503   0.530
15338SOL    HW247912  10.329  12.434   0.612
15339SOL     OW47913   2.583   9.779   1.740
15339SOL    HW147914   2.506   9.735   1.777
15339SOL    HW247915   2.568   9.872   1.758
15340SOL     OW47916   9.894  11.707   8.671
15340SOL    HW147917   9.936  11.766   8.608
15340SOL    HW247918   9.905  11.751   8.755
15341SOL     OW47919   2.831   9.162   8.405
15341SOL    HW147920   2.867   9.225   8.343
15341SOL    HW247921   2.893   9.090   8.405
15342SOL     OW47922   1.994   0.462   2.297
15342SOL    HW147923   2.016   0.370   2.284
15342SOL    HW247924   2.079   0.506   2.306
15343SOL     OW47925  11.298   7.790   9.396
15343SOL    HW147926  11.223   7.735   9.418
15343SOL    HW247927  11.369   7.758   9.452
15344SOL     OW47928   7.090  10.176   3.253
15344SOL    HW147929   7.104  10.254   3.307
15344SOL    HW247930   7.108  10.204   3.163
15345SOL     OW47931   9.879   7.168  11.847
15345SOL    HW147932   9.855   7.081  11.879
15345SOL    HW247933   9.947   7.152  11.782
15346SOL     OW47934  11.170   5.730  10.657
15346SOL    HW147935  11.075   5.718  10.659
15346SOL    HW247936  11.185   5.818  10.691
15347SOL     OW47937   5.412   7.946   8.914
15347SOL    HW147938   5.423   7.856   8.884
15347SOL    HW247939   5.359   7.939   8.994
15348SOL     OW47940  11.525   5.141  14.300
15348SOL    HW147941  11.494   5.118  14.212
15348SOL    HW247942  11.580   5.067  14.325
15349SOL     OW47943   8.085  13.546   1.056
15349SOL    HW147944   8.139  13.495   0.995
15349SOL    HW247945   8.070  13.486   1.130
15350SOL     OW47946   1.958  11.783  14.823
15350SOL    HW147947   1.871  11.821  14.821
15350SOL    HW247948   1.962  11.736   0.027
15351SOL     OW47949   2.566   1.573   1.595
15351SOL    HW147950   2.544   1.492   1.550
15351SOL    HW247951   2.519   1.641   1.547
15352SOL     OW47952   5.810   2.194  12.171
15352SOL    HW147953   5.867   2.262  12.136
15352SOL    HW247954   5.867   2.140  12.225
15353SOL     OW47955   3.046   6.732  14.822
15353SOL    HW147956   2.972   6.784  14.853
15353SOL    HW247957   3.062   6.668   0.013
15354SOL     OW47958   0.828  10.087  11.218
15354SOL    HW147959   0.740  10.055  11.197
15354SOL    HW247960   0.866  10.109  11.133
15355SOL     OW47961  10.607   0.298  13.784
15355SOL    HW147962  10.627   0.391  13.785
15355SOL    HW247963  10.529   0.289  13.838
15356SOL     OW47964  14.523   1.218   9.051
15356SOL    HW147965  14.607   1.197   9.090
15356SOL    HW247966  14.461   1.219   9.125
15357SOL     OW47967  12.414  13.113   5.799
15357SOL    HW147968  12.435  13.081   5.712
15357SOL    HW247969  12.464  13.056   5.858
15358SOL     OW47970  13.956  11.598   8.942
15358SOL    HW147971  13.943  11.692   8.934
15358SOL    HW247972  13.961  11.566   8.851
15359SOL     OW47973   2.459  13.404   3.136
15359SOL    HW147974   2.370  13.434   3.154
15359SOL    HW247975   2.476  13.338   3.203
15360SOL     OW47976   7.060  11.123   1.716
15360SOL    HW147977   6.998  11.180   1.671
15360SOL    HW247978   7.146  11.151   1.684
15361SOL     OW47979  13.422   8.833  10.765
15361SOL    HW147980  13.433   8.798  10.677
15361SOL    HW247981  13.505   8.875  10.785
15362SOL     OW47982   5.433   3.864   4.496
15362SOL    HW147983   5.355   3.814   4.521
15362SOL    HW247984   5.405   3.956   4.498
15363SOL     OW47985  13.646   8.296  14.658
15363SOL    HW147986  13.675   8.214  14.697
15363SOL    HW247987  13.596   8.340  14.727
15364SOL     OW47988   0.326   4.313   3.161
15364SOL    HW147989   0.307   4.393   3.211
15364SOL    HW247990   0.287   4.329   3.075
15365SOL     OW47991   8.516  12.708   5.859
15365SOL    HW147992   8.535  12.788   5.907
15365SOL    HW247993   8.601  12.681   5.823
15366SOL     OW47994   2.971   8.226  11.603
15366SOL    HW147995   3.031   8.266  11.541
15366SOL    HW247996   2.885   8.234  11.563
15367SOL     OW47997   6.607   1.006   9.650
15367SOL    HW147998   6.550   1.010   9.727
15367SOL    HW247999   6.684   0.958   9.680
15368SOL     OW48000  13.546  11.280   1.774
15368SOL    HW148001  13.632  11.262   1.811
15368SOL    HW248002  13.551  11.372   1.745
15369SOL     OW48003  13.307   6.289   2.594
15369SOL    HW148004  13.227   6.335   2.568
15369SOL    HW248005  13.378   6.350   2.572
15370SOL     OW48006   9.048  14.765   5.820
15370SOL    HW148007   9.116  14.787   5.883
15370SOL    HW248008   8.975  14.733   5.874
15371SOL     OW48009   8.574   0.214  11.934
15371SOL    HW148010   8.630   0.201  12.010
15371SOL    HW248011   8.570   0.128  11.891
15372SOL     OW48012  11.573  12.368  11.130
15372SOL    HW148013  11.640  12.397  11.192
15372SOL    HW248014  11.533  12.450  11.099
15373SOL     OW48015  13.411   4.680   7.329
15373SOL    HW148016  13.372   4.615   7.270
15373SOL    HW248017  13.388   4.651   7.417
15374SOL     OW48018   5.309   0.540   7.033
15374SOL    HW148019   5.258   0.569   7.109
15374SOL    HW248020   5.366   0.615   7.013
15375SOL     OW48021   2.191   1.898  12.955
15375SOL    HW148022   2.201   1.986  12.990
15375SOL    HW248023   2.197   1.840  13.031
15376SOL     OW48024   5.481   7.235   0.436
15376SOL    HW148025   5.476   7.142   0.413
15376SOL    HW248026   5.544   7.271   0.374
15377SOL     OW48027   4.170   6.285   2.034
15377SOL    HW148028   4.266   6.291   2.033
15377SOL    HW248029   4.141   6.354   1.974
15378SOL     OW48030   3.098  10.369   3.068
15378SOL    HW148031   3.160  10.307   3.029
15378SOL    HW248032   3.075  10.428   2.996
15379SOL     OW48033   3.436   6.222   0.969
15379SOL    HW148034   3.391   6.236   0.886
15379SOL    HW248035   3.420   6.302   1.019
15380SOL     OW48036  10.462   3.830  10.544
15380SOL    HW148037  10.413   3.800  10.621
15380SOL    HW248038  10.415   3.909  10.516
15381SOL     OW48039   3.226   1.351   7.848
15381SOL    HW148040   3.257   1.413   7.914
15381SOL    HW248041   3.235   1.398   7.765
15382SOL     OW48042   7.222   0.955   3.667
15382SOL    HW148043   7.179   1.008   3.733
15382SOL    HW248044   7.162   0.882   3.652
15383SOL     OW48045   5.603   0.452   7.045
15383SOL    HW148046   5.611   0.540   7.081
15383SOL    HW248047   5.562   0.401   7.114
15384SOL     OW48048   1.230   0.257  12.045
15384SOL    HW148049   1.142   0.264  12.007
15384SOL    HW248050   1.245   0.163  12.051
15385SOL     OW48051   4.089  11.798   3.540
15385SOL    HW148052   4.111  11.832   3.454
15385SOL    HW248053   4.035  11.721   3.522
15386SOL     OW48054  10.627  14.398   1.842
15386SOL    HW148055  10.607  14.490   1.823
15386SOL    HW248056  10.678  14.400   1.922
15387SOL     OW48057  12.079   1.229   0.496
15387SOL    HW148058  12.041   1.260   0.578
15387SOL    HW248059  12.134   1.302   0.466
15388SOL     OW48060   2.580   8.062  13.291
15388SOL    HW148061   2.656   8.022  13.334
15388SOL    HW248062   2.545   8.123  13.355
15389SOL     OW48063  12.879   6.019  11.656
15389SOL    HW148064  12.799   6.049  11.698
15389SOL    HW248065  12.857   6.014  11.563
15390SOL     OW48066  13.951  11.908   0.298
15390SOL    HW148067  13.956  11.839   0.364
15390SOL    HW248068  14.000  11.874   0.224
15391SOL     OW48069   1.686  13.661  12.706
15391SOL    HW148070   1.723  13.739  12.747
15391SOL    HW248071   1.753  13.632  12.644
15392SOL     OW48072   8.213   6.864   9.977
15392SOL    HW148073   8.129   6.889   9.940
15392SOL    HW248074   8.233   6.780   9.936
15393SOL     OW48075   5.631   7.911   6.375
15393SOL    HW148076   5.653   8.003   6.360
15393SOL    HW248077   5.715   7.866   6.378
15394SOL     OW48078   6.150  14.839  14.498
15394SOL    HW148079   6.129  14.826  14.591
15394SOL    HW248080   6.243  14.863  14.498
15395SOL     OW48081   3.250  11.974  10.806
15395SOL    HW148082   3.236  12.068  10.821
15395SOL    HW248083   3.329  11.970  10.752
15396SOL     OW48084   0.711   9.468   4.519
15396SOL    HW148085   0.701   9.509   4.433
15396SOL    HW248086   0.804   9.477   4.539
15397SOL     OW48087   0.613  11.208   1.602
15397SOL    HW148088   0.533  11.262   1.607
15397SOL    HW248089   0.588  11.134   1.546
15398SOL     OW48090   0.448   8.971   5.005
15398SOL    HW148091   0.481   8.885   4.977
15398SOL    HW248092   0.522   9.012   5.048
15399SOL     OW48093   8.208   4.149   8.576
15399SOL    HW148094   8.203   4.240   8.546
15399SOL    HW248095   8.292   4.143   8.621
15400SOL     OW48096   8.063   8.787  13.919
15400SOL    HW148097   7.989   8.844  13.900
15400SOL    HW248098   8.097   8.762  13.833
15401SOL     OW48099  13.206   9.324   2.634
15401SOL    HW148100  13.293   9.351   2.663
15401SOL    HW248101  13.159   9.301   2.714
15402SOL     OW48102   2.357  10.626  11.194
15402SOL    HW148103   2.424  10.617  11.261
15402SOL    HW248104   2.279  10.655  11.241
15403SOL     OW48105   7.089   2.259   3.707
15403SOL    HW148106   7.083   2.303   3.792
15403SOL    HW248107   7.181   2.267   3.682
15404SOL     OW48108   0.332  11.916  10.559
15404SOL    HW148109   0.314  11.861  10.635
15404SOL    HW248110   0.247  11.924  10.515
15405SOL     OW48111  13.616   6.755   3.060
15405SOL    HW148112  13.650   6.675   3.020
15405SOL    HW248113  13.566   6.798   2.990
15406SOL     OW48114  14.304  10.473   2.125
15406SOL    HW148115  14.261  10.391   2.102
15406SOL    HW248116  14.240  10.520   2.178
15407SOL     OW48117   0.697   9.523   9.031
15407SOL    HW148118   0.731   9.471   8.957
15407SOL    HW248119   0.602   9.525   9.017
15408SOL     OW48120  11.176  12.231   5.801
15408SOL    HW148121  11.192  12.227   5.707
15408SOL    HW248122  11.197  12.321   5.826
15409SOL     OW48123   4.090   0.225   5.166
15409SOL    HW148124   4.090   0.246   5.259
15409SOL    HW248125   4.183   0.230   5.141
15410SOL     OW48126   8.822   8.606  10.533
15410SOL    HW148127   8.811   8.637  10.444
15410SOL    HW248128   8.916   8.592  10.543
15411SOL     OW48129   4.097  14.251  11.181
15411SOL    HW148130   4.111  14.252  11.086
15411SOL    HW248131   4.023  14.310  11.195
15412SOL     OW48132  10.128  14.364  11.415
15412SOL    HW148133  10.222  14.352  11.399
15412SOL    HW248134  10.092  14.390  11.331
15413SOL     OW48135  13.484   5.506   1.398
15413SOL    HW148136  13.522   5.555   1.471
15413SOL    HW248137  13.395   5.486   1.427
15414SOL     OW48138   6.846   1.866   5.243
15414SOL    HW148139   6.818   1.949   5.203
15414SOL    HW248140   6.874   1.813   5.168
15415SOL     OW48141   4.350   1.311   6.507
15415SOL    HW148142   4.348   1.284   6.599
15415SOL    HW248143   4.399   1.242   6.462
15416SOL     OW48144  10.229   8.954  12.045
15416SOL    HW148145  10.214   8.985  12.134
15416SOL    HW248146  10.312   8.995  12.019
15417SOL     OW48147   1.612  13.586  14.440
15417SOL    HW148148   1.553  13.568  14.513
15417SOL    HW248149   1.626  13.680  14.443
15418SOL     OW48150   5.422  10.871  10.931
15418SOL    HW148151   5.478  10.848  10.857
15418SOL    HW248152   5.477  10.859  11.008
15419SOL     OW48153   3.301   5.569   7.488
15419SOL    HW148154   3.372   5.546   7.548
15419SOL    HW248155   3.282   5.660   7.508
15420SOL     OW48156  12.002   2.711   8.316
15420SOL    HW148157  12.039   2.799   8.316
15420SOL    HW248158  11.908   2.724   8.307
15421SOL     OW48159   9.409   1.029   5.915
15421SOL    HW148160   9.383   1.096   5.977
15421SOL    HW248161   9.501   1.048   5.895
15422SOL     OW48162  13.496   9.061   9.306
15422SOL    HW148163  13.421   9.095   9.355
15422SOL    HW248164  13.561   9.040   9.373
15423SOL     OW48165   4.253  10.008  12.445
15423SOL    HW148166   4.320   9.946  12.416
15423SOL    HW248167   4.179   9.953  12.471
15424SOL     OW48168   8.760  11.269   5.458
15424SOL    HW148169   8.707  11.325   5.401
15424SOL    HW248170   8.839  11.320   5.475
15425SOL     OW48171   6.135  14.371  11.169
15425SOL    HW148172   6.157  14.464  11.178
15425SOL    HW248173   6.064  14.368  11.106
15426SOL     OW48174   0.246   5.959   2.950
15426SOL    HW148175   0.278   6.008   3.026
15426SOL    HW248176   0.277   5.870   2.965
15427SOL     OW48177  11.561   6.337   4.597
15427SOL    HW148178  11.531   6.410   4.651
15427SOL    HW248179  11.487   6.276   4.594
15428SOL     OW48180  12.172  10.619  10.911
15428SOL    HW148181  12.185  10.589  10.821
15428SOL    HW248182  12.180  10.540  10.965
15429SOL     OW48183   7.913  10.234   1.788
15429SOL    HW148184   7.986  10.227   1.849
15429SOL    HW248185   7.872  10.147   1.790
15430SOL     OW48186   2.050  14.302   1.417
15430SOL    HW148187   2.050  14.225   1.475
15430SOL    HW248188   2.143  14.317   1.399
15431SOL     OW48189   6.243   9.799   8.029
15431SOL    HW148190   6.207   9.849   7.956
15431SOL    HW248191   6.198   9.714   8.024
15432SOL     OW48192   8.860   0.839   5.028
15432SOL    HW148193   8.917   0.831   4.951
15432SOL    HW248194   8.921   0.845   5.102
15433SOL     OW48195   7.178   3.266  12.859
15433SOL    HW148196   7.125   3.332  12.903
15433SOL    HW248197   7.203   3.205  12.929
15434SOL     OW48198   6.943   4.870   2.890
15434SOL    HW148199   6.851   4.894   2.902
15434SOL    HW248200   6.984   4.891   2.974
15435SOL     OW48201   7.997   3.894   7.300
15435SOL    HW148202   8.091   3.913   7.301
15435SOL    HW248203   7.990   3.804   7.332
15436SOL     OW48204   4.083   5.918   7.740
15436SOL    HW148205   4.124   5.935   7.655
15436SOL    HW248206   4.127   5.977   7.800
15437SOL     OW48207   8.774  14.738  10.626
15437SOL    HW148208   8.823  14.781  10.695
15437SOL    HW248209   8.825  14.753  10.546
15438SOL     OW48210   9.905   8.779   1.154
15438SOL    HW148211   9.988   8.750   1.117
15438SOL    HW248212   9.839   8.746   1.093
15439SOL     OW48213  12.817   5.520   3.778
15439SOL    HW148214  12.788   5.497   3.690
15439SOL    HW248215  12.843   5.611   3.771
15440SOL     OW48216   0.284   7.324  13.617
15440SOL    HW148217   0.236   7.368  13.547
15440SOL    HW248218   0.375   7.326  13.588
15441SOL     OW48219   8.350  12.365  12.587
15441SOL    HW148220   8.336  12.439  12.528
15441SOL    HW248221   8.442  12.373  12.614
15442SOL     OW48222  10.595   1.273  12.236
15442SOL    HW148223  10.688   1.271  12.215
15442SOL    HW248224  10.561   1.188  12.208
15443SOL     OW48225  13.579   3.907  11.396
15443SOL    HW148226  13.637   3.977  11.427
15443SOL    HW248227  13.564   3.852  11.474
15444SOL     OW48228   8.808  12.499   4.993
15444SOL    HW148229   8.835  12.415   5.030
15444SOL    HW248230   8.721  12.482   4.957
15445SOL     OW48231   4.603   8.007   7.647
15445SOL    HW148232   4.694   7.995   7.674
15445SOL    HW248233   4.551   7.977   7.721
15446SOL     OW48234   2.989   0.523  12.679
15446SOL    HW148235   3.056   0.581  12.716
15446SOL    HW248236   2.965   0.565  12.596
15447SOL     OW48237   8.847   0.744   5.400
15447SOL    HW148238   8.942   0.742   5.410
15447SOL    HW248239   8.815   0.777   5.484
15448SOL     OW48240  13.754  10.143   6.926
15448SOL    HW148241  13.784  10.066   6.878
15448SOL    HW248242  13.752  10.114   7.018
15449SOL     OW48243  13.678   0.827  10.899
15449SOL    HW148244  13.768   0.857  10.915
15449SOL    HW248245  13.674   0.743  10.945
15450SOL     OW48246  14.051   6.422   2.931
15450SOL    HW148247  14.002   6.340   2.932
15450SOL    HW248248  14.141   6.397   2.952
15451SOL     OW48249   5.029  14.172  10.303
15451SOL    HW148250   5.063  14.172  10.214
15451SOL    HW248251   5.025  14.079  10.327
15452SOL     OW48252   1.873  11.169  10.433
15452SOL    HW148253   1.936  11.201  10.368
15452SOL    HW248254   1.902  11.080  10.452
15453SOL     OW48255  10.503  14.063  10.544
15453SOL    HW148256  10.463  14.137  10.590
15453SOL    HW248257  10.430  14.002  10.530
15454SOL     OW48258   8.569  11.632   4.825
15454SOL    HW148259   8.655  11.623   4.866
15454SOL    HW248260   8.525  11.699   4.878
15455SOL     OW48261  10.382  14.646  11.514
15455SOL    HW148262  10.447  14.616  11.579
15455SOL    HW248263  10.387  14.582  11.444
15456SOL     OW48264  12.270   9.164  14.234
15456SOL    HW148265  12.214   9.159  14.311
15456SOL    HW248266  12.226   9.111  14.169
15457SOL     OW48267   0.584   0.730   4.822
15457SOL    HW148268   0.511   0.788   4.844
15457SOL    HW248269   0.559   0.645   4.857
15458SOL     OW48270  12.215   9.806   7.735
15458SOL    HW148271  12.309   9.817   7.720
15458SOL    HW248272  12.208   9.721   7.779
15459SOL     OW48273   9.950  10.039   7.527
15459SOL    HW148274   9.984  10.054   7.616
15459SOL    HW248275   9.958   9.945   7.515
15460SOL     OW48276   5.434  11.658   1.109
15460SOL    HW148277   5.373  11.672   1.182
15460SOL    HW248278   5.390  11.695   1.033
15461SOL     OW48279   3.606   4.832   6.343
15461SOL    HW148280   3.510   4.835   6.352
15461SOL    HW248281   3.631   4.747   6.378
15462SOL     OW48282  11.903   2.111  13.677
15462SOL    HW148283  11.840   2.180  13.657
15462SOL    HW248284  11.932   2.130  13.767
15463SOL     OW48285  13.382   5.884   0.020
15463SOL    HW148286  13.468   5.887  14.857
15463SOL    HW248287  13.334   5.816  14.854
15464SOL     OW48288   9.584  13.162   4.717
15464SOL    HW148289   9.566  13.072   4.743
15464SOL    HW248290   9.539  13.171   4.633
15465SOL     OW48291  11.976   2.680   7.371
15465SOL    HW148292  12.052   2.652   7.320
15465SOL    HW248293  11.905   2.686   7.307
15466SOL     OW48294   9.003   7.025   2.084
15466SOL    HW148295   9.052   7.078   2.147
15466SOL    HW248296   9.063   7.012   2.011
15467SOL     OW48297   3.490  12.699   3.128
15467SOL    HW148298   3.476  12.708   3.222
15467SOL    HW248299   3.583  12.678   3.118
15468SOL     OW48300   2.665   5.312   6.643
15468SOL    HW148301   2.602   5.322   6.571
15468SOL    HW248302   2.620   5.257   6.707
15469SOL     OW48303   8.975  14.321   5.887
15469SOL    HW148304   8.983  14.382   5.960
15469SOL    HW248305   9.063  14.320   5.847
15470SOL     OW48306   2.166   3.190   4.479
15470SOL    HW148307   2.142   3.254   4.413
15470SOL    HW248308   2.190   3.242   4.556
15471SOL     OW48309   8.240   8.045   1.777
15471SOL    HW148310   8.190   8.012   1.702
15471SOL    HW248311   8.180   8.107   1.820
15472SOL     OW48312   3.878  11.864  12.694
15472SOL    HW148313   3.903  11.875  12.603
15472SOL    HW248314   3.907  11.776  12.717
15473SOL     OW48315  10.062  12.935   5.897
15473SOL    HW148316   9.984  12.881   5.911
15473SOL    HW248317  10.108  12.934   5.981
15474SOL     OW48318   2.492  14.406   2.244
15474SOL    HW148319   2.483  14.389   2.338
15474SOL    HW248320   2.506  14.500   2.238
15475SOL     OW48321   1.698  11.615   2.615
15475SOL    HW148322   1.767  11.553   2.590
15475SOL    HW248323   1.737  11.701   2.603
15476SOL     OW48324   8.880   3.838   6.940
15476SOL    HW148325   8.973   3.851   6.962
15476SOL    HW248326   8.842   3.926   6.942
15477SOL     OW48327   1.154   6.293   7.034
15477SOL    HW148328   1.069   6.286   7.077
15477SOL    HW248329   1.154   6.221   6.971
15478SOL     OW48330   8.194   7.919   3.596
15478SOL    HW148331   8.199   8.011   3.572
15478SOL    HW248332   8.158   7.876   3.519
15479SOL     OW48333  13.650  10.855   7.619
15479SOL    HW148334  13.580  10.916   7.598
15479SOL    HW248335  13.658  10.859   7.714
15480SOL     OW48336   9.306   0.953   3.725
15480SOL    HW148337   9.334   0.948   3.817
15480SOL    HW248338   9.379   0.993   3.680
15481SOL     OW48339   1.736   2.776   7.267
15481SOL    HW148340   1.653   2.785   7.218
15481SOL    HW248341   1.720   2.702   7.326
15482SOL     OW48342   8.481   5.719  12.726
15482SOL    HW148343   8.516   5.702  12.639
15482SOL    HW248344   8.496   5.638  12.775
15483SOL     OW48345   1.687   7.727  13.768
15483SOL    HW148346   1.681   7.634  13.744
15483SOL    HW248347   1.643   7.773  13.697
15484SOL     OW48348   2.758   7.002   1.271
15484SOL    HW148349   2.699   7.045   1.210
15484SOL    HW248350   2.794   6.928   1.222
15485SOL     OW48351   4.346   7.313   9.577
15485SOL    HW148352   4.427   7.313   9.629
15485SOL    HW248353   4.375   7.295   9.488
15486SOL     OW48354  11.412  14.820   1.726
15486SOL    HW148355  11.473  14.878   1.773
15486SOL    HW248356  11.359  14.780   1.794
15487SOL     OW48357   7.577   6.736  13.202
15487SOL    HW148358   7.642   6.679  13.160
15487SOL    HW248359   7.580   6.710  13.294
15488SOL     OW48360   2.515  13.083  12.224
15488SOL    HW148361   2.611  13.083  12.221
15488SOL    HW248362   2.490  13.171  12.196
15489SOL     OW48363   5.308   1.768   6.927
15489SOL    HW148364   5.375   1.700   6.916
15489SOL    HW248365   5.275   1.754   7.016
15490SOL     OW48366   7.034   6.740  14.513
15490SOL    HW148367   6.955   6.688  14.507
15490SOL    HW248368   7.004   6.831  14.504
15491SOL     OW48369  13.296   3.751  13.397
15491SOL    HW148370  13.320   3.669  13.440
15491SOL    HW248371  13.282   3.813  13.469
15492SOL     OW48372   9.561   6.049   6.805
15492SOL    HW148373   9.516   5.968   6.829
15492SOL    HW248374   9.501   6.119   6.832
15493SOL     OW48375  11.804   2.666   3.256
15493SOL    HW148376  11.886   2.653   3.207
15493SOL    HW248377  11.735   2.660   3.190
15494SOL     OW48378  10.360   3.698   0.403
15494SOL    HW148379  10.410   3.753   0.463
15494SOL    HW248380  10.399   3.611   0.412
15495SOL     OW48381   7.044   2.938   5.531
15495SOL    HW148382   6.988   3.008   5.566
15495SOL    HW248383   6.983   2.870   5.503
15496SOL     OW48384   4.599   3.184   2.740
15496SOL    HW148385   4.517   3.158   2.700
15496SOL    HW248386   4.654   3.211   2.667
15497SOL     OW48387   9.429  10.983  12.095
15497SOL    HW148388   9.524  10.982  12.108
15497SOL    HW248389   9.410  10.902  12.048
15498SOL     OW48390   5.444   9.245   0.342
15498SOL    HW148391   5.365   9.297   0.355
15498SOL    HW248392   5.498   9.297   0.282
15499SOL     OW48393  11.730   4.584   5.835
15499SOL    HW148394  11.711   4.494   5.808
15499SOL    HW248395  11.825   4.586   5.847
15500SOL     OW48396  13.304  11.926   3.226
15500SOL    HW148397  13.316  12.014   3.261
15500SOL    HW248398  13.284  11.939   3.134
15501SOL     OW48399   0.473   2.716  10.767
15501SOL    HW148400   0.439   2.739  10.680
15501SOL    HW248401   0.487   2.621  10.762
15502SOL     OW48402   0.892   9.719  11.370
15502SOL    HW148403   0.901   9.634  11.412
15502SOL    HW248404   0.950   9.777  11.420
15503SOL     OW48405   5.260  12.786   7.397
15503SOL    HW148406   5.213  12.704   7.411
15503SOL    HW248407   5.212  12.850   7.449
15504SOL     OW48408  14.093   6.719  14.158
15504SOL    HW148409  14.180   6.685  14.136
15504SOL    HW248410  14.109   6.786  14.225
15505SOL     OW48411   8.254  12.702   4.944
15505SOL    HW148412   8.198  12.780   4.947
15505SOL    HW248413   8.343  12.737   4.947
15506SOL     OW48414   2.470   2.933   7.563
15506SOL    HW148415   2.441   3.022   7.543
15506SOL    HW248416   2.419   2.877   7.505
15507SOL     OW48417  11.090   3.081   3.475
15507SOL    HW148418  11.145   3.030   3.416
15507SOL    HW248419  11.001   3.072   3.439
15508SOL     OW48420   5.844  14.412   6.571
15508SOL    HW148421   5.776  14.478   6.559
15508SOL    HW248422   5.905  14.451   6.633
15509SOL     OW48423   1.256   6.957  11.913
15509SOL    HW148424   1.285   6.882  11.964
15509SOL    HW248425   1.164   6.970  11.937
15510SOL     OW48426  12.302   6.376  12.536
15510SOL    HW148427  12.344   6.452  12.575
15510SOL    HW248428  12.362   6.303  12.553
15511SOL     OW48429  13.370  14.782   4.959
15511SOL    HW148430  13.386  14.876   4.963
15511SOL    HW248431  13.308  14.772   4.886
15512SOL     OW48432   0.518   6.484   8.784
15512SOL    HW148433   0.594   6.462   8.730
15512SOL    HW248434   0.456   6.525   8.723
15513SOL     OW48435   4.124   6.852   7.640
15513SOL    HW148436   4.196   6.845   7.577
15513SOL    HW248437   4.120   6.766   7.681
15514SOL     OW48438   4.772  12.784  12.704
15514SOL    HW148439   4.792  12.870  12.741
15514SOL    HW248440   4.749  12.731  12.781
15515SOL     OW48441   4.057   5.021   7.276
15515SOL    HW148442   4.048   5.037   7.370
15515SOL    HW248443   4.084   5.105   7.240
15516SOL     OW48444   9.871  14.866   8.569
15516SOL    HW148445   9.865   0.071   8.525
15516SOL    HW248446   9.780  14.841   8.585
15517SOL     OW48447  10.173   4.507   1.642
15517SOL    HW148448  10.088   4.524   1.683
15517SOL    HW248449  10.235   4.555   1.697
15518SOL     OW48450   3.602   7.586   7.015
15518SOL    HW148451   3.689   7.626   7.005
15518SOL    HW248452   3.617   7.492   7.003
15519SOL     OW48453   2.231   8.365   3.848
15519SOL    HW148454   2.262   8.421   3.777
15519SOL    HW248455   2.231   8.422   3.925
15520SOL     OW48456   5.927   1.263  11.709
15520SOL    HW148457   5.929   1.358  11.719
15520SOL    HW248458   5.971   1.230  11.788
15521SOL     OW48459  13.113  14.118   6.445
15521SOL    HW148460  13.108  14.124   6.350
15521SOL    HW248461  13.034  14.070   6.471
15522SOL     OW48462   4.481   4.111  11.112
15522SOL    HW148463   4.473   4.031  11.164
15522SOL    HW248464   4.568   4.145  11.133
15523SOL     OW48465   2.514  13.768  14.397
15523SOL    HW148466   2.474  13.723  14.471
15523SOL    HW248467   2.448  13.763  14.327
15524SOL     OW48468   9.410   4.203   7.649
15524SOL    HW148469   9.411   4.299   7.640
15524SOL    HW248470   9.429   4.187   7.742
15525SOL     OW48471   2.084   4.046   8.337
15525SOL    HW148472   2.060   4.059   8.246
15525SOL    HW248473   2.120   3.958   8.341
15526SOL     OW48474   6.135   3.630   8.742
15526SOL    HW148475   6.191   3.698   8.703
15526SOL    HW248476   6.108   3.576   8.668
15527SOL     OW48477  14.294   6.198  11.785
15527SOL    HW148478  14.377   6.239  11.810
15527SOL    HW248479  14.275   6.137  11.856
15528SOL     OW48480  12.625  12.507   4.417
15528SOL    HW148481  12.610  12.571   4.488
15528SOL    HW248482  12.551  12.519   4.358
15529SOL     OW48483  14.221   2.298   1.471
15529SOL    HW148484  14.130   2.316   1.497
15529SOL    HW248485  14.246   2.373   1.418
15530SOL     OW48486  10.259   9.023   7.386
15530SOL    HW148487  10.265   9.098   7.326
15530SOL    HW248488  10.333   9.033   7.445
15531SOL     OW48489   5.269   1.628   9.320
15531SOL    HW148490   5.214   1.692   9.365
15531SOL    HW248491   5.358   1.650   9.347
15532SOL     OW48492  11.742  13.492   7.377
15532SOL    HW148493  11.682  13.565   7.389
15532SOL    HW248494  11.686  13.415   7.376
15533SOL     OW48495  10.826  10.637   1.890
15533SOL    HW148496  10.830  10.703   1.959
15533SOL    HW248497  10.834  10.687   1.809
15534SOL     OW48498   9.075   3.790   2.021
15534SOL    HW148499   8.992   3.838   2.014
15534SOL    HW248500   9.111   3.816   2.105
15535SOL     OW48501   7.421  14.878   6.931
15535SOL    HW148502   7.369  14.807   6.893
15535SOL    HW248503   7.461  14.839   7.009
15536SOL     OW48504   5.969  10.067  12.765
15536SOL    HW148505   5.945  10.109  12.847
15536SOL    HW248506   6.063  10.083  12.756
15537SOL     OW48507   2.127   5.689  10.210
15537SOL    HW148508   2.078   5.611  10.184
15537SOL    HW248509   2.132   5.742  10.129
15538SOL     OW48510  11.371   4.339   9.323
15538SOL    HW148511  11.463   4.333   9.297
15538SOL    HW248512  11.346   4.430   9.304
15539SOL     OW48513   9.595  11.794   0.570
15539SOL    HW148514   9.673  11.820   0.522
15539SOL    HW248515   9.617  11.807   0.662
15540SOL     OW48516   0.228   5.400   8.972
15540SOL    HW148517   0.220   5.330   8.907
15540SOL    HW248518   0.221   5.356   9.056
15541SOL     OW48519   2.560   8.149  12.007
15541SOL    HW148520   2.596   8.168  11.920
15541SOL    HW248521   2.509   8.069  11.995
15542SOL     OW48522   9.488   4.185   3.152
15542SOL    HW148523   9.476   4.217   3.062
15542SOL    HW248524   9.490   4.265   3.205
15543SOL     OW48525   8.389   3.843   2.803
15543SOL    HW148526   8.324   3.911   2.821
15543SOL    HW248527   8.339   3.762   2.797
15544SOL     OW48528   0.132  13.783   3.071
15544SOL    HW148529   0.194  13.753   3.004
15544SOL    HW248530   0.185  13.794   3.150
15545SOL     OW48531   5.885   4.301   9.798
15545SOL    HW148532   5.874   4.314   9.703
15545SOL    HW248533   5.977   4.278   9.809
15546SOL     OW48534  12.718  13.413  12.039
15546SOL    HW148535  12.725  13.447  11.950
15546SOL    HW248536  12.715  13.318  12.029
15547SOL     OW48537   4.707  12.369   5.569
15547SOL    HW148538   4.750  12.433   5.513
15547SOL    HW248539   4.645  12.420   5.620
15548SOL     OW48540   1.249   7.246   4.922
15548SOL    HW148541   1.330   7.279   4.883
15548SOL    HW248542   1.271   7.156   4.949
15549SOL     OW48543  13.158  11.307  11.693
15549SOL    HW148544  13.204  11.380  11.733
15549SOL    HW248545  13.065  11.327  11.705
15550SOL     OW48546   8.132  14.309   4.685
15550SOL    HW148547   8.189  14.338   4.613
15550SOL    HW248548   8.046  14.345   4.663
15551SOL     OW48549   6.715   9.128  13.411
15551SOL    HW148550   6.731   9.096  13.499
15551SOL    HW248551   6.688   9.050  13.362
15552SOL     OW48552   2.560   2.256   3.572
15552SOL    HW148553   2.629   2.275   3.636
15552SOL    HW248554   2.491   2.213   3.624
15553SOL     OW48555   0.933   2.221   6.583
15553SOL    HW148556   0.863   2.193   6.643
15553SOL    HW248557   0.995   2.149   6.583
15554SOL     OW48558   8.300   4.776  12.857
15554SOL    HW148559   8.273   4.867  12.870
15554SOL    HW248560   8.386   4.771  12.899
15555SOL     OW48561   3.693   0.561   2.881
15555SOL    HW148562   3.776   0.597   2.910
15555SOL    HW248563   3.706   0.543   2.788
15556SOL     OW48564   7.255   4.130   0.899
15556SOL    HW148565   7.338   4.094   0.866
15556SOL    HW248566   7.281   4.181   0.976
15557SOL     OW48567   8.771   0.277   4.017
15557SOL    HW148568   8.708   0.319   3.959
15557SOL    HW248569   8.773   0.186   3.988
15558SOL     OW48570   7.959   4.579   2.273
15558SOL    HW148571   7.988   4.607   2.359
15558SOL    HW248572   7.873   4.539   2.288
15559SOL     OW48573   2.157   2.000   0.094
15559SOL    HW148574   2.207   1.924   0.065
15559SOL    HW248575   2.114   2.032   0.014
15560SOL     OW48576  11.402   1.382   8.234
15560SOL    HW148577  11.431   1.293   8.213
15560SOL    HW248578  11.476   1.421   8.280
15561SOL     OW48579   5.025   7.398   7.719
15561SOL    HW148580   4.938   7.435   7.705
15561SOL    HW248581   5.028   7.323   7.659
15562SOL     OW48582   9.923   4.979   6.000
15562SOL    HW148583   9.850   5.039   5.989
15562SOL    HW248584   9.978   4.994   5.923
15563SOL     OW48585  10.541  11.583   8.958
15563SOL    HW148586  10.514  11.612   9.046
15563SOL    HW248587  10.634  11.564   8.967
15564SOL     OW48588  11.989   1.949   1.871
15564SOL    HW148589  11.941   1.966   1.790
15564SOL    HW248590  12.011   1.856   1.867
15565SOL     OW48591   4.957  14.765  12.908
15565SOL    HW148592   4.991  14.754  12.819
15565SOL    HW248593   4.899  14.840  12.902
15566SOL     OW48594  12.257  12.673   0.403
15566SOL    HW148595  12.193  12.602   0.393
15566SOL    HW248596  12.327  12.635   0.456
15567SOL     OW48597   3.551   3.327   1.244
15567SOL    HW148598   3.623   3.383   1.273
15567SOL    HW248599   3.594   3.250   1.205
15568SOL     OW48600   9.782   8.822  11.335
15568SOL    HW148601   9.856   8.764  11.316
15568SOL    HW248602   9.820   8.910  11.334
15569SOL     OW48603  10.755   0.639  12.435
15569SOL    HW148604  10.792   0.706  12.377
15569SOL    HW248605  10.716   0.575  12.375
15570SOL     OW48606   7.014   1.954   9.230
15570SOL    HW148607   6.991   1.924   9.318
15570SOL    HW248608   7.078   1.890   9.198
15571SOL     OW48609  10.695   1.801  13.790
15571SOL    HW148610  10.715   1.799  13.884
15571SOL    HW248611  10.613   1.752  13.783
15572SOL     OW48612  10.268  12.504  11.908
15572SOL    HW148613  10.185  12.467  11.940
15572SOL    HW248614  10.252  12.598  11.906
15573SOL     OW48615   6.059  12.411  14.782
15573SOL    HW148616   6.114  12.396  14.706
15573SOL    HW248617   5.974  12.436  14.747
15574SOL     OW48618   2.908   5.396   7.706
15574SOL    HW148619   2.894   5.343   7.627
15574SOL    HW248620   2.956   5.473   7.675
15575SOL     OW48621   6.566   8.887   3.064
15575SOL    HW148622   6.561   8.969   3.015
15575SOL    HW248623   6.475   8.858   3.069
15576SOL     OW48624  12.135   2.898  13.812
15576SOL    HW148625  12.128   2.993  13.814
15576SOL    HW248626  12.045   2.867  13.799
15577SOL     OW48627   5.058   7.093   6.302
15577SOL    HW148628   5.074   7.180   6.339
15577SOL    HW248629   4.977   7.101   6.253
15578SOL     OW48630  12.385  13.660   3.150
15578SOL    HW148631  12.309  13.603   3.145
15578SOL    HW248632  12.379  13.717   3.073
15579SOL     OW48633   6.786   7.127   7.896
15579SOL    HW148634   6.782   7.032   7.886
15579SOL    HW248635   6.842   7.141   7.973
15580SOL     OW48636  14.478  13.512   0.926
15580SOL    HW148637  14.464  13.472   0.840
15580SOL    HW248638  14.406  13.575   0.935
15581SOL     OW48639   2.842   1.540   8.415
15581SOL    HW148640   2.869   1.509   8.329
15581SOL    HW248641   2.910   1.509   8.474
15582SOL     OW48642   5.655   7.055   0.161
15582SOL    HW148643   5.733   7.009   0.192
15582SOL    HW248644   5.585   7.023   0.217
15583SOL     OW48645   5.622   1.798   4.321
15583SOL    HW148646   5.711   1.788   4.286
15583SOL    HW248647   5.633   1.789   4.416
15584SOL     OW48648   2.688   2.616  10.197
15584SOL    HW148649   2.610   2.668  10.219
15584SOL    HW248650   2.735   2.608  10.281
15585SOL     OW48651  14.057  10.491   6.182
15585SOL    HW148652  14.027  10.436   6.254
15585SOL    HW248653  14.104  10.431   6.123
15586SOL     OW48654  13.032  11.387   8.578
15586SOL    HW148655  13.028  11.394   8.673
15586SOL    HW248656  13.120  11.418   8.555
15587SOL     OW48657   3.650   9.300  11.915
15587SOL    HW148658   3.733   9.347  11.913
15587SOL    HW248659   3.644   9.266  12.004
15588SOL     OW48660   8.694   8.649  11.081
15588SOL    HW148661   8.655   8.732  11.053
15588SOL    HW248662   8.738   8.669  11.163
15589SOL     OW48663  11.864  12.435   3.515
15589SOL    HW148664  11.786  12.380   3.519
15589SOL    HW248665  11.913  12.412   3.594
15590SOL     OW48666   3.155  14.056   9.743
15590SOL    HW148667   3.182  13.966   9.759
15590SOL    HW248668   3.233  14.108   9.763
15591SOL     OW48669   0.255   8.693   9.432
15591SOL    HW148670   0.194   8.766   9.444
15591SOL    HW248671   0.224   8.626   9.493
15592SOL     OW48672   9.280  10.313  11.339
15592SOL    HW148673   9.337  10.316  11.262
15592SOL    HW248674   9.238  10.227  11.335
15593SOL     OW48675   6.703   1.628   3.536
15593SOL    HW148676   6.784   1.583   3.511
15593SOL    HW248677   6.733   1.703   3.588
15594SOL     OW48678  11.513   0.132   2.540
15594SOL    HW148679  11.447   0.166   2.601
15594SOL    HW248680  11.462   0.091   2.470
15595SOL     OW48681   5.100   0.132   8.326
15595SOL    HW148682   5.022   0.089   8.360
15595SOL    HW248683   5.069   0.217   8.295
15596SOL     OW48684  14.124   9.485   6.221
15596SOL    HW148685  14.101   9.419   6.156
15596SOL    HW248686  14.040   9.520   6.251
15597SOL     OW48687   3.618  12.344  10.586
15597SOL    HW148688   3.694  12.286  10.594
15597SOL    HW248689   3.638  12.398  10.509
15598SOL     OW48690   9.171   0.015   3.437
15598SOL    HW148691   9.195   0.062   3.357
15598SOL    HW248692   9.171   0.081   3.506
15599SOL     OW48693  10.163  14.087   5.927
15599SOL    HW148694  10.094  14.066   5.864
15599SOL    HW248695  10.174  14.007   5.978
15600SOL     OW48696   8.449  10.395  12.977
15600SOL    HW148697   8.385  10.367  12.911
15600SOL    HW248698   8.532  10.395  12.930
15601SOL     OW48699   3.154  10.183   8.124
15601SOL    HW148700   3.202  10.237   8.187
15601SOL    HW248701   3.196  10.202   8.040
15602SOL     OW48702  12.344  14.395   1.035
15602SOL    HW148703  12.377  14.329   1.096
15602SOL    HW248704  12.301  14.460   1.090
15603SOL     OW48705  12.963   2.965   0.838
15603SOL    HW148706  12.932   2.931   0.754
15603SOL    HW248707  12.930   3.055   0.840
15604SOL     OW48708   1.985  13.399   1.212
15604SOL    HW148709   1.980  13.466   1.280
15604SOL    HW248710   1.910  13.342   1.230
15605SOL     OW48711   8.532   2.955   0.017
15605SOL    HW148712   8.533   2.968   0.111
15605SOL    HW248713   8.455   3.004  14.866
15606SOL     OW48714   6.550  13.975   9.942
15606SOL    HW148715   6.488  13.910   9.975
15606SOL    HW248716   6.590  13.934   9.866
15607SOL     OW48717   1.283  12.989   9.325
15607SOL    HW148718   1.295  12.899   9.356
15607SOL    HW248719   1.258  12.979   9.233
15608SOL     OW48720  11.027   9.488  12.283
15608SOL    HW148721  11.019   9.492  12.188
15608SOL    HW248722  10.956   9.430  12.310
15609SOL     OW48723   9.033  13.756   9.602
15609SOL    HW148724   9.123  13.771   9.574
15609SOL    HW248725   9.017  13.824   9.668
15610SOL     OW48726  14.130   2.781   4.379
15610SOL    HW148727  14.164   2.694   4.356
15610SOL    HW248728  14.068   2.764   4.450
15611SOL     OW48729   7.224   0.619   7.387
15611SOL    HW148730   7.229   0.530   7.423
15611SOL    HW248731   7.168   0.667   7.448
15612SOL     OW48732   3.640   7.385  11.208
15612SOL    HW148733   3.720   7.353  11.249
15612SOL    HW248734   3.669   7.461  11.156
15613SOL     OW48735  14.798   4.762  12.948
15613SOL    HW148736  14.849   4.685  12.920
15613SOL    HW248737  14.851   4.837  12.921
15614SOL     OW48738   5.435  10.388   1.246
15614SOL    HW148739   5.352  10.396   1.292
15614SOL    HW248740   5.413  10.346   1.163
15615SOL     OW48741   6.891  10.271  11.740
15615SOL    HW148742   6.866  10.182  11.718
15615SOL    HW248743   6.915  10.312  11.656
15616SOL     OW48744   6.662   5.918  11.312
15616SOL    HW148745   6.591   5.903  11.374
15616SOL    HW248746   6.646   6.006  11.279
15617SOL     OW48747   5.328  12.249   4.733
15617SOL    HW148748   5.343  12.241   4.827
15617SOL    HW248749   5.305  12.160   4.705
15618SOL     OW48750   4.477  12.004   4.240
15618SOL    HW148751   4.514  11.954   4.167
15618SOL    HW248752   4.553  12.027   4.294
15619SOL     OW48753   0.708  11.369  11.195
15619SOL    HW148754   0.692  11.337  11.284
15619SOL    HW248755   0.749  11.454  11.208
15620SOL     OW48756  13.857   8.770  12.143
15620SOL    HW148757  13.826   8.753  12.233
15620SOL    HW248758  13.782   8.746  12.088
15621SOL     OW48759   5.782   2.066  10.886
15621SOL    HW148760   5.754   1.983  10.923
15621SOL    HW248761   5.714   2.090  10.824
15622SOL     OW48762   7.354  14.596   8.674
15622SOL    HW148763   7.273  14.587   8.623
15622SOL    HW248764   7.381  14.687   8.660
15623SOL     OW48765  14.795   8.875   3.159
15623SOL    HW148766  14.732   8.947   3.147
15623SOL    HW248767  14.762   8.828   3.235
15624SOL     OW48768   6.718  13.636  10.193
15624SOL    HW148769   6.738  13.546  10.216
15624SOL    HW248770   6.712  13.636  10.098
15625SOL     OW48771   5.786   9.764  12.653
15625SOL    HW148772   5.869   9.717  12.666
15625SOL    HW248773   5.730   9.701  12.608
15626SOL     OW48774  10.753  12.243  14.337
15626SOL    HW148775  10.754  12.224  14.243
15626SOL    HW248776  10.702  12.324  14.344
15627SOL     OW48777   3.091   9.674   4.299
15627SOL    HW148778   3.106   9.599   4.242
15627SOL    HW248779   2.997   9.672   4.316
15628SOL     OW48780   3.226   0.803  13.175
15628SOL    HW148781   3.274   0.780  13.254
15628SOL    HW248782   3.265   0.747  13.107
15629SOL     OW48783   2.949  10.135   3.134
15629SOL    HW148784   2.891  10.162   3.205
15629SOL    HW248785   3.001  10.214   3.115
15630SOL     OW48786   9.369   8.627  10.592
15630SOL    HW148787   9.391   8.674  10.511
15630SOL    HW248788   9.276   8.607  10.583
15631SOL     OW48789   8.874   2.610   1.635
15631SOL    HW148790   8.900   2.691   1.591
15631SOL    HW248791   8.927   2.606   1.714
15632SOL     OW48792   6.896   1.572   4.392
15632SOL    HW148793   6.901   1.659   4.433
15632SOL    HW248794   6.905   1.589   4.298
15633SOL     OW48795  11.564  12.257   9.590
15633SOL    HW148796  11.644  12.272   9.640
15633SOL    HW248797  11.576  12.308   9.509
15634SOL     OW48798   5.448  10.834   6.442
15634SOL    HW148799   5.415  10.919   6.472
15634SOL    HW248800   5.538  10.853   6.413
15635SOL     OW48801   5.165   8.303   7.738
15635SOL    HW148802   5.074   8.320   7.714
15635SOL    HW248803   5.182   8.363   7.811
15636SOL     OW48804  10.400   7.712   0.181
15636SOL    HW148805  10.455   7.636   0.161
15636SOL    HW248806  10.327   7.676   0.231
15637SOL     OW48807   7.895   2.077   1.222
15637SOL    HW148808   7.889   2.002   1.282
15637SOL    HW248809   7.989   2.093   1.213
15638SOL     OW48810   0.874   2.683   1.494
15638SOL    HW148811   0.795   2.728   1.524
15638SOL    HW248812   0.934   2.688   1.568
15639SOL     OW48813  14.548   5.587   4.742
15639SOL    HW148814  14.490   5.641   4.795
15639SOL    HW248815  14.628   5.579   4.794
15640SOL     OW48816   1.534   1.461  11.177
15640SOL    HW148817   1.449   1.489  11.212
15640SOL    HW248818   1.519   1.453  11.083
15641SOL     OW48819   1.191   3.268   5.494
15641SOL    HW148820   1.263   3.331   5.499
15641SOL    HW248821   1.121   3.315   5.450
15642SOL     OW48822   4.009   9.233   9.257
15642SOL    HW148823   4.076   9.183   9.304
15642SOL    HW248824   4.024   9.211   9.165
15643SOL     OW48825   3.272   1.827   8.499
15643SOL    HW148826   3.287   1.825   8.593
15643SOL    HW248827   3.254   1.736   8.476
15644SOL     OW48828   2.036  11.355   8.839
15644SOL    HW148829   1.946  11.371   8.811
15644SOL    HW248830   2.032  11.356   8.935
15645SOL     OW48831  10.479   9.755  12.039
15645SOL    HW148832  10.494   9.843  12.005
15645SOL    HW248833  10.502   9.761  12.132
15646SOL     OW48834  11.949   2.251   2.833
15646SOL    HW148835  11.952   2.301   2.914
15646SOL    HW248836  11.991   2.168   2.854
15647SOL     OW48837  13.168  13.197   6.817
15647SOL    HW148838  13.191  13.241   6.898
15647SOL    HW248839  13.097  13.250   6.780
15648SOL     OW48840  14.439   3.002   8.190
15648SOL    HW148841  14.497   3.076   8.210
15648SOL    HW248842  14.377   3.001   8.264
15649SOL     OW48843   5.261   1.576   6.429
15649SOL    HW148844   5.186   1.577   6.489
15649SOL    HW248845   5.226   1.537   6.349
15650SOL     OW48846   8.557   6.710  14.541
15650SOL    HW148847   8.594   6.787  14.584
15650SOL    HW248848   8.605   6.636  14.577
15651SOL     OW48849   2.335   9.939  12.774
15651SOL    HW148850   2.404   9.876  12.793
15651SOL    HW248851   2.334   9.946  12.679
15652SOL     OW48852   0.754   3.540   7.766
15652SOL    HW148853   0.798   3.605   7.712
15652SOL    HW248854   0.706   3.485   7.704
15653SOL     OW48855   5.941   9.150   1.965
15653SOL    HW148856   5.955   9.057   1.951
15653SOL    HW248857   6.027   9.185   1.988
15654SOL     OW48858   4.679  12.942   8.213
15654SOL    HW148859   4.742  12.885   8.168
15654SOL    HW248860   4.594  12.913   8.180
15655SOL     OW48861   0.008  14.554  12.533
15655SOL    HW148862   0.047  14.496  12.468
15655SOL    HW248863  14.798  14.567  12.503
15656SOL     OW48864   3.506   9.544   7.594
15656SOL    HW148865   3.473   9.459   7.625
15656SOL    HW248866   3.434   9.605   7.612
15657SOL     OW48867  13.556  12.852   8.572
15657SOL    HW148868  13.637  12.869   8.621
15657SOL    HW248869  13.492  12.830   8.639
15658SOL     OW48870   8.548  10.748  11.327
15658SOL    HW148871   8.460  10.735  11.293
15658SOL    HW248872   8.603  10.692  11.272
15659SOL     OW48873   9.857   2.549   7.116
15659SOL    HW148874   9.804   2.586   7.186
15659SOL    HW248875   9.854   2.614   7.046
15660SOL     OW48876   3.304   1.664   3.761
15660SOL    HW148877   3.270   1.578   3.736
15660SOL    HW248878   3.255   1.688   3.840
15661SOL     OW48879  13.629   3.183   7.484
15661SOL    HW148880  13.673   3.265   7.509
15661SOL    HW248881  13.665   3.118   7.544
15662SOL     OW48882   5.012  13.402   4.698
15662SOL    HW148883   5.102  13.428   4.719
15662SOL    HW248884   5.011  13.399   4.602
15663SOL     OW48885   2.865  11.051   0.168
15663SOL    HW148886   2.892  11.138   0.198
15663SOL    HW248887   2.900  10.991   0.233
15664SOL     OW48888   5.421  10.333   5.419
15664SOL    HW148889   5.429  10.418   5.374
15664SOL    HW248890   5.415  10.269   5.349
15665SOL     OW48891   9.758   6.178   8.586
15665SOL    HW148892   9.685   6.172   8.525
15665SOL    HW248893   9.775   6.271   8.595
15666SOL     OW48894   3.508  12.345  12.921
15666SOL    HW148895   3.540  12.420  12.871
15666SOL    HW248896   3.424  12.324  12.881
15667SOL     OW48897  10.642   6.294   3.346
15667SOL    HW148898  10.573   6.235   3.376
15667SOL    HW248899  10.612   6.323   3.259
15668SOL     OW48900  10.209  13.310  10.609
15668SOL    HW148901  10.270  13.357  10.552
15668SOL    HW248902  10.246  13.222  10.616
15669SOL     OW48903  13.854   4.582   2.157
15669SOL    HW148904  13.771   4.599   2.202
15669SOL    HW248905  13.909   4.540   2.223
15670SOL     OW48906   7.440   8.332   2.018
15670SOL    HW148907   7.445   8.237   2.006
15670SOL    HW248908   7.421   8.366   1.930
15671SOL     OW48909   4.271   8.475   4.901
15671SOL    HW148910   4.317   8.412   4.845
15671SOL    HW248911   4.339   8.536   4.928
15672SOL     OW48912   0.757   0.300   0.788
15672SOL    HW148913   0.796   0.335   0.708
15672SOL    HW248914   0.832   0.279   0.844
15673SOL     OW48915   3.636  12.141   0.032
15673SOL    HW148916   3.675  12.123  14.826
15673SOL    HW248917   3.711  12.145   0.092
15674SOL     OW48918   4.717   2.975  13.173
15674SOL    HW148919   4.681   3.020  13.096
15674SOL    HW248920   4.719   3.042  13.241
15675SOL     OW48921   5.285  14.835   0.422
15675SOL    HW148922   5.225  14.776   0.469
15675SOL    HW248923   5.227   0.008   0.366
15676SOL     OW48924  12.131  14.146  12.111
15676SOL    HW148925  12.150  14.144  12.205
15676SOL    HW248926  12.038  14.122  12.105
15677SOL     OW48927   4.385   5.534   2.619
15677SOL    HW148928   4.477   5.554   2.601
15677SOL    HW248929   4.385   5.503   2.709
15678SOL     OW48930   1.894   2.109   3.778
15678SOL    HW148931   1.974   2.058   3.785
15678SOL    HW248932   1.865   2.098   3.688
15679SOL     OW48933   6.976   6.341  14.669
15679SOL    HW148934   6.945   6.251  14.659
15679SOL    HW248935   6.911   6.383  14.724
15680SOL     OW48936   0.605   3.695  10.476
15680SOL    HW148937   0.677   3.656  10.525
15680SOL    HW248938   0.530   3.639  10.495
15681SOL     OW48939   9.567  14.519  10.681
15681SOL    HW148940   9.551  14.443  10.737
15681SOL    HW248941   9.657  14.507  10.649
15682SOL     OW48942   9.584   5.720  14.629
15682SOL    HW148943   9.632   5.769  14.695
15682SOL    HW248944   9.597   5.769  14.548
15683SOL     OW48945   8.442   0.426   3.163
15683SOL    HW148946   8.447   0.339   3.123
15683SOL    HW248947   8.462   0.486   3.091
15684SOL     OW48948   6.813  11.267  11.794
15684SOL    HW148949   6.844  11.320  11.867
15684SOL    HW248950   6.749  11.208  11.834
15685SOL     OW48951  11.229   7.031   9.580
15685SOL    HW148952  11.243   7.056   9.489
15685SOL    HW248953  11.230   7.113   9.629
15686SOL     OW48954   0.371  12.463  10.970
15686SOL    HW148955   0.332  12.426  10.890
15686SOL    HW248956   0.395  12.387  11.022
15687SOL     OW48957   2.453   4.319   0.594
15687SOL    HW148958   2.496   4.397   0.629
15687SOL    HW248959   2.494   4.305   0.508
15688SOL     OW48960  12.255   0.718  10.745
15688SOL    HW148961  12.324   0.669  10.700
15688SOL    HW248962  12.301   0.780  10.801
15689SOL     OW48963   5.356   3.694   4.816
15689SOL    HW148964   5.405   3.631   4.764
15689SOL    HW248965   5.268   3.657   4.823
15690SOL     OW48966  14.456   1.355   1.278
15690SOL    HW148967  14.367   1.390   1.273
15690SOL    HW248968  14.444   1.261   1.286
15691SOL     OW48969   9.047   4.210  11.772
15691SOL    HW148970   9.083   4.290  11.735
15691SOL    HW248971   8.983   4.181  11.707
15692SOL     OW48972  10.608   8.652  13.113
15692SOL    HW148973  10.693   8.659  13.156
15692SOL    HW248974  10.611   8.568  13.067
15693SOL     OW48975   8.253  10.531   6.449
15693SOL    HW148976   8.250  10.592   6.523
15693SOL    HW248977   8.175  10.552   6.397
15694SOL     OW48978   5.305   8.849   5.125
15694SOL    HW148979   5.358   8.928   5.129
15694SOL    HW248980   5.367   8.780   5.103
15695SOL     OW48981   4.030   7.845   6.879
15695SOL    HW148982   4.123   7.863   6.879
15695SOL    HW248983   4.015   7.792   6.801
15696SOL     OW48984   8.198   7.976   4.186
15696SOL    HW148985   8.262   7.927   4.238
15696SOL    HW248986   8.190   7.926   4.105
15697SOL     OW48987   7.331   3.422   4.147
15697SOL    HW148988   7.265   3.476   4.104
15697SOL    HW248989   7.311   3.333   4.118
15698SOL     OW48990   4.222   4.615   3.197
15698SOL    HW148991   4.231   4.545   3.132
15698SOL    HW248992   4.205   4.569   3.279
15699SOL     OW48993   5.286  12.808  10.559
15699SOL    HW148994   5.240  12.827  10.641
15699SOL    HW248995   5.220  12.764  10.505
15700SOL     OW48996  12.708   0.206   7.422
15700SOL    HW148997  12.656   0.178   7.347
15700SOL    HW248998  12.656   0.180   7.498
15701SOL     OW48999  12.512   6.439   7.117
15701SOL    HW149000  12.489   6.509   7.179
15701SOL    HW249001  12.455   6.454   7.041
15702SOL     OW49002  11.598  12.672   2.270
15702SOL    HW149003  11.690  12.646   2.261
15702SOL    HW249004  11.549  12.595   2.242
15703SOL     OW49005   9.363  12.714   2.789
15703SOL    HW149006   9.444  12.695   2.741
15703SOL    HW249007   9.349  12.808   2.777
15704SOL     OW49008   7.655   9.795   0.986
15704SOL    HW149009   7.639   9.889   0.991
15704SOL    HW249010   7.621   9.760   1.068
15705SOL     OW49011   5.897   0.374   6.178
15705SOL    HW149012   5.941   0.390   6.094
15705SOL    HW249013   5.815   0.424   6.171
15706SOL     OW49014   6.122  10.596  14.643
15706SOL    HW149015   6.102  10.515  14.689
15706SOL    HW249016   6.191  10.572  14.581
15707SOL     OW49017   3.482  11.265   1.612
15707SOL    HW149018   3.426  11.311   1.674
15707SOL    HW249019   3.557  11.236   1.664
15708SOL     OW49020   8.057   0.341   3.713
15708SOL    HW149021   8.143   0.345   3.672
15708SOL    HW249022   8.075   0.322   3.805
15709SOL     OW49023  13.320   1.664   1.038
15709SOL    HW149024  13.299   1.645   0.947
15709SOL    HW249025  13.244   1.713   1.071
15710SOL     OW49026  13.500  10.480   6.406
15710SOL    HW149027  13.544  10.435   6.478
15710SOL    HW249028  13.419  10.513   6.445
15711SOL     OW49029   2.605   1.626   4.308
15711SOL    HW149030   2.577   1.710   4.343
15711SOL    HW249031   2.645   1.581   4.383
15712SOL     OW49032   9.174   0.844   2.492
15712SOL    HW149033   9.200   0.769   2.546
15712SOL    HW249034   9.221   0.918   2.529
15713SOL     OW49035  13.852   3.383   0.571
15713SOL    HW149036  13.866   3.405   0.479
15713SOL    HW249037  13.896   3.452   0.620
15714SOL     OW49038  13.183   8.630  11.216
15714SOL    HW149039  13.268   8.587  11.219
15714SOL    HW249040  13.124   8.569  11.262
15715SOL     OW49041  11.841   7.025  14.670
15715SOL    HW149042  11.753   7.027  14.709
15715SOL    HW249043  11.899   7.050  14.741
15716SOL     OW49044   3.160  12.271   2.406
15716SOL    HW149045   3.183  12.364   2.408
15716SOL    HW249046   3.069  12.267   2.434
15717SOL     OW49047   1.768   7.154   9.414
15717SOL    HW149048   1.855   7.176   9.449
15717SOL    HW249049   1.782   7.147   9.319
15718SOL     OW49050   5.036   3.189  14.706
15718SOL    HW149051   5.026   3.133  14.629
15718SOL    HW249052   4.981   3.148  14.773
15719SOL     OW49053  13.169   4.435  11.994
15719SOL    HW149054  13.239   4.476  12.045
15719SOL    HW249055  13.186   4.462  11.904
15720SOL     OW49056  14.685   6.436   1.257
15720SOL    HW149057  14.751   6.368   1.245
15720SOL    HW249058  14.604   6.396   1.228
15721SOL     OW49059   8.068  11.138   1.477
15721SOL    HW149060   8.032  11.049   1.469
15721SOL    HW249061   8.163  11.126   1.479
15722SOL     OW49062   7.736   6.657  11.519
15722SOL    HW149063   7.733   6.563  11.538
15722SOL    HW249064   7.710   6.699  11.601
15723SOL     OW49065   4.418   0.669   4.352
15723SOL    HW149066   4.508   0.650   4.378
15723SOL    HW249067   4.424   0.754   4.307
15724SOL     OW49068   5.003   5.945   4.759
15724SOL    HW149069   4.955   5.897   4.826
15724SOL    HW249070   4.951   5.935   4.679
15725SOL     OW49071   2.058   1.706  14.408
15725SOL    HW149072   2.115   1.657  14.467
15725SOL    HW249073   2.049   1.651  14.331
15726SOL     OW49074   7.001  11.141   4.858
15726SOL    HW149075   7.048  11.093   4.926
15726SOL    HW249076   7.064  11.205   4.826
15727SOL     OW49077   6.288   4.975  11.400
15727SOL    HW149078   6.260   4.892  11.440
15727SOL    HW249079   6.373   4.994  11.440
15728SOL     OW49080  10.351   3.530   3.658
15728SOL    HW149081  10.413   3.553   3.589
15728SOL    HW249082  10.369   3.438   3.677
15729SOL     OW49083   6.827   0.352  14.420
15729SOL    HW149084   6.921   0.341  14.436
15729SOL    HW249085   6.820   0.368  14.326
15730SOL     OW49086   4.984   0.677  13.297
15730SOL    HW149087   4.978   0.614  13.369
15730SOL    HW249088   5.045   0.638  13.235
15731SOL     OW49089   7.300   7.887  11.136
15731SOL    HW149090   7.325   7.977  11.113
15731SOL    HW249091   7.380   7.836  11.125
15732SOL     OW49092   1.991  12.352  12.126
15732SOL    HW149093   2.067  12.406  12.150
15732SOL    HW249094   1.961  12.316  12.209
15733SOL     OW49095  13.508  11.210   0.167
15733SOL    HW149096  13.586  11.155   0.171
15733SOL    HW249097  13.444  11.158   0.119
15734SOL     OW49098  10.476   4.152   4.909
15734SOL    HW149099  10.399   4.106   4.944
15734SOL    HW249100  10.543   4.141   4.977
15735SOL     OW49101   4.756   3.303  13.089
15735SOL    HW149102   4.712   3.222  13.063
15735SOL    HW249103   4.685   3.363  13.111
15736SOL     OW49104  14.646   3.377   2.771
15736SOL    HW149105  14.568   3.425   2.742
15736SOL    HW249106  14.669   3.321   2.697
15737SOL     OW49107   1.723   6.553   1.378
15737SOL    HW149108   1.775   6.543   1.298
15737SOL    HW249109   1.774   6.507   1.445
15738SOL     OW49110  12.218   2.167   4.061
15738SOL    HW149111  12.185   2.257   4.067
15738SOL    HW249112  12.143   2.114   4.089
15739SOL     OW49113   0.394   3.812   8.224
15739SOL    HW149114   0.384   3.858   8.307
15739SOL    HW249115   0.326   3.849   8.167
15740SOL     OW49116  13.118   1.877   2.831
15740SOL    HW149117  13.206   1.843   2.845
15740SOL    HW249118  13.079   1.818   2.766
15741SOL     OW49119  14.786   1.244  11.226
15741SOL    HW149120  14.767   1.325  11.273
15741SOL    HW249121  14.701   1.216  11.191
15742SOL     OW49122   0.846   7.365   3.580
15742SOL    HW149123   0.889   7.279   3.581
15742SOL    HW249124   0.760   7.350   3.619
15743SOL     OW49125  14.467   5.122  13.820
15743SOL    HW149126  14.419   5.128  13.902
15743SOL    HW249127  14.410   5.072  13.762
15744SOL     OW49128   1.429   3.905   2.015
15744SOL    HW149129   1.428   3.927   2.107
15744SOL    HW249130   1.518   3.925   1.986
15745SOL     OW49131  13.913   6.870  12.377
15745SOL    HW149132  13.981   6.935  12.358
15745SOL    HW249133  13.929   6.844  12.468
15746SOL     OW49134  11.120  13.263   2.171
15746SOL    HW149135  11.162  13.307   2.097
15746SOL    HW249136  11.027  13.274   2.155
15747SOL     OW49137  10.536  12.679   1.180
15747SOL    HW149138  10.541  12.748   1.114
15747SOL    HW249139  10.614  12.626   1.166
15748SOL     OW49140   2.928   7.139   4.298
15748SOL    HW149141   2.842   7.180   4.296
15748SOL    HW249142   2.963   7.153   4.210
15749SOL     OW49143   9.414   8.903   3.261
15749SOL    HW149144   9.400   8.978   3.203
15749SOL    HW249145   9.326   8.870   3.279
15750SOL     OW49146   7.083   6.040  11.182
15750SOL    HW149147   7.023   6.003  11.117
15750SOL    HW249148   7.080   5.979  11.255
15751SOL     OW49149  14.109  12.463   4.418
15751SOL    HW149150  14.163  12.536   4.447
15751SOL    HW249151  14.044  12.451   4.488
15752SOL     OW49152   5.616  10.457  13.354
15752SOL    HW149153   5.639  10.409  13.433
15752SOL    HW249154   5.543  10.513  13.380
15753SOL     OW49155   2.375  12.566  13.164
15753SOL    HW149156   2.305  12.512  13.202
15753SOL    HW249157   2.430  12.588  13.239
15754SOL     OW49158   3.327  10.842  11.979
15754SOL    HW149159   3.318  10.807  11.891
15754SOL    HW249160   3.270  10.787  12.033
15755SOL     OW49161  14.784  13.573  12.567
15755SOL    HW149162  14.830  13.657  12.564
15755SOL    HW249163  14.694  13.596  12.590
15756SOL     OW49164   1.499   6.063   3.209
15756SOL    HW149165   1.540   6.054   3.295
15756SOL    HW249166   1.559   6.118   3.159
15757SOL     OW49167  10.641   1.257   3.043
15757SOL    HW149168  10.551   1.229   3.022
15757SOL    HW249169  10.695   1.209   2.980
15758SOL     OW49170  14.467   0.739   7.821
15758SOL    HW149171  14.484   0.814   7.765
15758SOL    HW249172  14.511   0.666   7.777
15759SOL     OW49173   4.807   7.766   1.675
15759SOL    HW149174   4.811   7.735   1.585
15759SOL    HW249175   4.800   7.686   1.728
15760SOL     OW49176  12.748   8.814  14.159
15760SOL    HW149177  12.699   8.873  14.102
15760SOL    HW249178  12.838   8.849  14.158
15761SOL     OW49179  11.307   8.526   2.862
15761SOL    HW149180  11.392   8.519   2.817
15761SOL    HW249181  11.329   8.512   2.954
15762SOL     OW49182  10.028   3.911   8.866
15762SOL    HW149183   9.948   3.893   8.914
15762SOL    HW249184  10.058   3.996   8.901
15763SOL     OW49185   1.791  11.367  13.912
15763SOL    HW149186   1.761  11.357  13.822
15763SOL    HW249187   1.765  11.285  13.955
15764SOL     OW49188  14.723   4.260   2.943
15764SOL    HW149189  14.792   4.293   2.886
15764SOL    HW249190  14.742   4.167   2.954
15765SOL     OW49191   9.914   0.594   6.942
15765SOL    HW149192   9.902   0.675   6.892
15765SOL    HW249193   9.825   0.569   6.968
15766SOL     OW49194   3.764   6.843  12.003
15766SOL    HW149195   3.826   6.916  12.007
15766SOL    HW249196   3.819   6.765  12.009
15767SOL     OW49197  14.606  13.426   4.099
15767SOL    HW149198  14.529  13.375   4.124
15767SOL    HW249199  14.652  13.371   4.035
15768SOL     OW49200   6.176  12.075   7.202
15768SOL    HW149201   6.195  12.152   7.148
15768SOL    HW249202   6.095  12.098   7.248
15769SOL     OW49203   1.399   5.355  13.961
15769SOL    HW149204   1.382   5.315  14.046
15769SOL    HW249205   1.494   5.368  13.959
15770SOL     OW49206   6.388   6.273   1.509
15770SOL    HW149207   6.438   6.328   1.570
15770SOL    HW249208   6.321   6.233   1.564
15771SOL     OW49209   3.774  14.551  14.036
15771SOL    HW149210   3.763  14.646  14.040
15771SOL    HW249211   3.725  14.518  14.111
15772SOL     OW49212   7.656   7.420   9.350
15772SOL    HW149213   7.677   7.460   9.434
15772SOL    HW249214   7.726   7.449   9.292
15773SOL     OW49215   0.300   5.491  10.901
15773SOL    HW149216   0.282   5.585  10.899
15773SOL    HW249217   0.249   5.455  10.828
15774SOL     OW49218  14.160  10.099  12.205
15774SOL    HW149219  14.117  10.146  12.277
15774SOL    HW249220  14.089  10.048  12.165
15775SOL     OW49221   6.192  13.144  10.902
15775SOL    HW149222   6.226  13.190  10.825
15775SOL    HW249223   6.167  13.058  10.869
15776SOL     OW49224  14.684   1.339   5.859
15776SOL    HW149225  14.643   1.424   5.872
15776SOL    HW249226  14.679   1.296   5.944
15777SOL     OW49227   6.889  10.160   9.879
15777SOL    HW149228   6.809  10.185   9.833
15777SOL    HW249229   6.893  10.065   9.870
15778SOL     OW49230   3.321  12.415  14.055
15778SOL    HW149231   3.348  12.506  14.045
15778SOL    HW249232   3.259  12.400  13.983
15779SOL     OW49233   3.030   9.397   0.039
15779SOL    HW149234   3.074   9.345  14.851
15779SOL    HW249235   3.049   9.351   0.121
15780SOL     OW49236   4.183  13.108  13.419
15780SOL    HW149237   4.263  13.127  13.369
15780SOL    HW249238   4.155  13.194  13.453
15781SOL     OW49239   2.563  12.473  10.728
15781SOL    HW149240   2.628  12.423  10.678
15781SOL    HW249241   2.565  12.560  10.688
15782SOL     OW49242   7.946   2.251  12.604
15782SOL    HW149243   8.030   2.205  12.599
15782SOL    HW249244   7.949   2.313  12.532
15783SOL     OW49245   6.032   9.292  12.177
15783SOL    HW149246   6.111   9.290  12.123
15783SOL    HW249247   5.972   9.230  12.136
15784SOL     OW49248  11.400   9.203   6.214
15784SOL    HW149249  11.341   9.143   6.169
15784SOL    HW249250  11.419   9.160   6.298
15785SOL     OW49251   1.376   4.761   7.127
15785SOL    HW149252   1.334   4.678   7.104
15785SOL    HW249253   1.394   4.754   7.221
15786SOL     OW49254   3.119  11.142   2.848
15786SOL    HW149255   3.207  11.153   2.812
15786SOL    HW249256   3.061  11.143   2.772
15787SOL     OW49257   0.121  13.324   0.735
15787SOL    HW149258   0.180  13.257   0.771
15787SOL    HW249259   0.034  13.296   0.763
15788SOL     OW49260   1.143   3.924   1.234
15788SOL    HW149261   1.229   3.882   1.237
15788SOL    HW249262   1.160   4.015   1.260
15789SOL     OW49263   4.162   6.279  14.018
15789SOL    HW149264   4.210   6.247  14.094
15789SOL    HW249265   4.121   6.360  14.047
15790SOL     OW49266   4.147   7.000   1.648
15790SOL    HW149267   4.208   7.019   1.577
15790SOL    HW249268   4.202   6.968   1.719
15791SOL     OW49269  10.226   2.508   3.734
15791SOL    HW149270  10.169   2.451   3.785
15791SOL    HW249271  10.197   2.597   3.755
15792SOL     OW49272  12.906  12.777   6.208
15792SOL    HW149273  12.981  12.722   6.187
15792SOL    HW249274  12.923  12.860   6.164
15793SOL     OW49275   2.839  14.101  10.033
15793SOL    HW149276   2.846  14.107  10.128
15793SOL    HW249277   2.893  14.026  10.009
15794SOL     OW49278  13.724  11.465   9.948
15794SOL    HW149279  13.764  11.379   9.964
15794SOL    HW249280  13.637  11.445   9.913
15795SOL     OW49281  11.795   2.525   5.380
15795SOL    HW149282  11.734   2.565   5.443
15795SOL    HW249283  11.810   2.437   5.415
15796SOL     OW49284   1.282   2.787   3.988
15796SOL    HW149285   1.371   2.813   4.013
15796SOL    HW249286   1.277   2.694   4.011
15797SOL     OW49287   5.123  13.075   4.976
15797SOL    HW149288   5.113  13.064   4.882
15797SOL    HW249289   5.043  13.039   5.014
15798SOL     OW49290   4.350   6.510   3.204
15798SOL    HW149291   4.390   6.427   3.178
15798SOL    HW249292   4.260   6.503   3.173
15799SOL     OW49293   7.567  10.034   2.077
15799SOL    HW149294   7.651  10.073   2.102
15799SOL    HW249295   7.544   9.978   2.151
15800SOL     OW49296  14.795   3.054   5.924
15800SOL    HW149297  14.795   3.053   5.828
15800SOL    HW249298  14.783   3.146   5.947
15801SOL     OW49299   8.918   5.219   0.837
15801SOL    HW149300   9.006   5.226   0.875
15801SOL    HW249301   8.866   5.178   0.906
15802SOL     OW49302  12.938   8.962   1.246
15802SOL    HW149303  13.024   8.923   1.231
15802SOL    HW249304  12.956   9.051   1.276
15803SOL     OW49305   6.526   5.459   3.627
15803SOL    HW149306   6.473   5.539   3.627
15803SOL    HW249307   6.564   5.455   3.714
15804SOL     OW49308   2.262   0.579  13.141
15804SOL    HW149309   2.207   0.655  13.123
15804SOL    HW249310   2.351   0.608  13.122
15805SOL     OW49311   6.066   1.609   9.963
15805SOL    HW149312   6.019   1.556   9.898
15805SOL    HW249313   6.053   1.699   9.935
15806SOL     OW49314   7.033   1.395   0.592
15806SOL    HW149315   7.075   1.481   0.596
15806SOL    HW249316   7.091   1.339   0.644
15807SOL     OW49317   9.753   5.836   9.491
15807SOL    HW149318   9.797   5.841   9.406
15807SOL    HW249319   9.660   5.845   9.471
15808SOL     OW49320   6.149  11.799   7.219
15808SOL    HW149321   6.168  11.893   7.219
15808SOL    HW249322   6.089  11.787   7.292
15809SOL     OW49323   8.436  11.029  10.000
15809SOL    HW149324   8.383  10.962  10.042
15809SOL    HW249325   8.386  11.053   9.921
15810SOL     OW49326  10.174   1.465   7.507
15810SOL    HW149327  10.211   1.381   7.479
15810SOL    HW249328  10.232   1.494   7.578
15811SOL     OW49329   3.933  11.940   6.130
15811SOL    HW149330   3.942  12.034   6.148
15811SOL    HW249331   3.904  11.936   6.039
15812SOL     OW49332   1.276   0.323   0.999
15812SOL    HW149333   1.284   0.321   1.095
15812SOL    HW249334   1.352   0.373   0.970
15813SOL     OW49335   2.116  12.690   0.088
15813SOL    HW149336   2.031  12.705   0.129
15813SOL    HW249337   2.152  12.614   0.134
15814SOL     OW49338   8.344  14.674   6.995
15814SOL    HW149339   8.342  14.603   7.059
15814SOL    HW249340   8.390  14.745   7.039
15815SOL     OW49341  13.661  10.029   1.102
15815SOL    HW149342  13.579  10.049   1.147
15815SOL    HW249343  13.667   9.934   1.102
15816SOL     OW49344  13.676   6.866   8.812
15816SOL    HW149345  13.669   6.772   8.829
15816SOL    HW249346  13.632   6.907   8.886
15817SOL     OW49347  13.083   7.430   6.641
15817SOL    HW149348  13.035   7.351   6.617
15817SOL    HW249349  13.086   7.429   6.736
15818SOL     OW49350   9.457   6.339   6.618
15818SOL    HW149351   9.497   6.252   6.627
15818SOL    HW249352   9.364   6.323   6.634
15819SOL     OW49353  11.906   4.008  10.645
15819SOL    HW149354  11.999   4.016  10.664
15819SOL    HW249355  11.863   4.031  10.728
15820SOL     OW49356   4.353   7.521   8.167
15820SOL    HW149357   4.324   7.591   8.108
15820SOL    HW249358   4.403   7.462   8.110
15821SOL     OW49359   6.208   1.328   2.125
15821SOL    HW149360   6.115   1.319   2.144
15821SOL    HW249361   6.215   1.408   2.074
15822SOL     OW49362   4.666   9.016   4.504
15822SOL    HW149363   4.683   9.012   4.410
15822SOL    HW249364   4.571   9.025   4.511
15823SOL     OW49365   2.506  10.827   3.377
15823SOL    HW149366   2.410  10.829   3.381
15823SOL    HW249367   2.532  10.918   3.392
15824SOL     OW49368  12.604   1.570   5.136
15824SOL    HW149369  12.602   1.633   5.207
15824SOL    HW249370  12.525   1.588   5.085
15825SOL     OW49371  14.143   5.912  14.498
15825SOL    HW149372  14.205   5.842  14.517
15825SOL    HW249373  14.192   5.972  14.441
15826SOL     OW49374   3.186   8.362   9.621
15826SOL    HW149375   3.147   8.401   9.543
15826SOL    HW249376   3.118   8.369   9.688
15827SOL     OW49377  13.155  10.650   0.174
15827SOL    HW149378  13.142  10.623   0.265
15827SOL    HW249379  13.247  10.629   0.156
15828SOL     OW49380  12.429   2.573  13.918
15828SOL    HW149381  12.389   2.550  13.834
15828SOL    HW249382  12.477   2.494  13.944
15829SOL     OW49383   4.756   6.798   2.846
15829SOL    HW149384   4.761   6.888   2.815
15829SOL    HW249385   4.847   6.774   2.864
15830SOL     OW49386  10.706   6.968   1.725
15830SOL    HW149387  10.714   6.890   1.779
15830SOL    HW249388  10.795   7.004   1.722
15831SOL     OW49389   1.988   2.341   3.120
15831SOL    HW149390   1.967   2.256   3.082
15831SOL    HW249391   1.999   2.325   3.213
15832SOL     OW49392   0.083  11.675   0.802
15832SOL    HW149393   0.084  11.748   0.740
15832SOL    HW249394   0.003  11.627   0.781
15833SOL     OW49395   2.952   4.363   3.281
15833SOL    HW149396   2.971   4.444   3.328
15833SOL    HW249397   3.038   4.325   3.262
15834SOL     OW49398   4.515  13.542   6.232
15834SOL    HW149399   4.454  13.578   6.167
15834SOL    HW249400   4.581  13.496   6.181
15835SOL     OW49401  10.227   0.266   2.562
15835SOL    HW149402  10.321   0.257   2.548
15835SOL    HW249403  10.191   0.290   2.477
15836SOL     OW49404  14.726   1.145   8.286
15836SOL    HW149405  14.740   1.062   8.241
15836SOL    HW249406  14.803   1.197   8.265
15837SOL     OW49407   4.887  11.417   0.161
15837SOL    HW149408   4.911  11.476   0.233
15837SOL    HW249409   4.966  11.367   0.143
15838SOL     OW49410  11.826   2.364   3.059
15838SOL    HW149411  11.849   2.308   3.132
15838SOL    HW249412  11.756   2.420   3.093
15839SOL     OW49413   0.478  10.141   2.293
15839SOL    HW149414   0.397  10.110   2.334
15839SOL    HW249415   0.547  10.108   2.350
15840SOL     OW49416  14.179   3.868   3.092
15840SOL    HW149417  14.102   3.830   3.134
15840SOL    HW249418  14.204   3.941   3.149
15841SOL     OW49419  13.928   0.440  14.702
15841SOL    HW149420  13.996   0.465  14.640
15841SOL    HW249421  13.849   0.432  14.649
15842SOL     OW49422   5.737  14.324   4.152
15842SOL    HW149423   5.723  14.403   4.205
15842SOL    HW249424   5.826  14.297   4.174
15843SOL     OW49425   6.773   3.438   8.783
15843SOL    HW149426   6.867   3.431   8.796
15843SOL    HW249427   6.736   3.430   8.871
15844SOL     OW49428   8.070   1.053   4.085
15844SOL    HW149429   8.137   1.039   4.017
15844SOL    HW249430   8.039   0.965   4.106
15845SOL     OW49431   2.528  13.503   0.703
15845SOL    HW149432   2.463  13.531   0.640
15845SOL    HW249433   2.481  13.445   0.763
15846SOL     OW49434   1.169   9.191   3.647
15846SOL    HW149435   1.169   9.152   3.559
15846SOL    HW249436   1.101   9.143   3.695
15847SOL     OW49437   8.100   5.735   5.327
15847SOL    HW149438   8.063   5.776   5.404
15847SOL    HW249439   8.194   5.731   5.345
15848SOL     OW49440  14.036   3.790   0.570
15848SOL    HW149441  13.998   3.771   0.485
15848SOL    HW249442  14.122   3.748   0.569
15849SOL     OW49443  11.066   5.641   4.751
15849SOL    HW149444  11.116   5.705   4.699
15849SOL    HW249445  11.000   5.694   4.796
15850SOL     OW49446   9.258   0.138   0.366
15850SOL    HW149447   9.239   0.055   0.409
15850SOL    HW249448   9.265   0.201   0.438
15851SOL     OW49449  12.408   4.314   9.221
15851SOL    HW149450  12.500   4.298   9.201
15851SOL    HW249451  12.409   4.388   9.282
15852SOL     OW49452   6.564   0.398   8.853
15852SOL    HW149453   6.522   0.313   8.843
15852SOL    HW249454   6.588   0.424   8.763
15853SOL     OW49455  14.085  12.256   7.535
15853SOL    HW149456  14.099  12.350   7.532
15853SOL    HW249457  13.994  12.244   7.508
15854SOL     OW49458   7.953   3.616  13.121
15854SOL    HW149459   7.909   3.541  13.161
15854SOL    HW249460   8.022   3.577  13.068
15855SOL     OW49461  11.258   3.062   0.021
15855SOL    HW149462  11.252   3.092   0.112
15855SOL    HW249463  11.195   3.116  14.854
15856SOL     OW49464   6.150  11.188   6.678
15856SOL    HW149465   6.200  11.150   6.749
15856SOL    HW249466   6.067  11.215   6.718
15857SOL     OW49467   0.258   4.548   3.309
15857SOL    HW149468   0.171   4.567   3.344
15857SOL    HW249469   0.318   4.580   3.375
15858SOL     OW49470  14.144   9.783   2.293
15858SOL    HW149471  14.080   9.850   2.268
15858SOL    HW249472  14.132   9.713   2.230
15859SOL     OW49473   7.777   2.663  12.966
15859SOL    HW149474   7.763   2.714  12.885
15859SOL    HW249475   7.857   2.613  12.948
15860SOL     OW49476   6.582   7.897  14.324
15860SOL    HW149477   6.663   7.881  14.276
15860SOL    HW249478   6.602   7.874  14.414
15861SOL     OW49479  11.839   0.803   9.098
15861SOL    HW149480  11.826   0.845   9.013
15861SOL    HW249481  11.918   0.750   9.088
15862SOL     OW49482   0.701  12.893   8.572
15862SOL    HW149483   0.761  12.862   8.641
15862SOL    HW249484   0.615  12.861   8.599
15863SOL     OW49485   7.600  12.186   0.973
15863SOL    HW149486   7.555  12.217   1.052
15863SOL    HW249487   7.662  12.121   1.004
15864SOL     OW49488   9.117   9.190   8.819
15864SOL    HW149489   9.110   9.264   8.759
15864SOL    HW249490   9.031   9.183   8.860
15865SOL     OW49491  11.203   0.595  10.506
15865SOL    HW149492  11.213   0.538  10.582
15865SOL    HW249493  11.202   0.536  10.431
15866SOL     OW49494   8.547   7.767   8.382
15866SOL    HW149495   8.579   7.857   8.382
15866SOL    HW249496   8.452   7.775   8.391
15867SOL     OW49497  10.684   0.164   5.132
15867SOL    HW149498  10.614   0.192   5.192
15867SOL    HW249499  10.740   0.108   5.186
15868SOL     OW49500   4.849  12.474   0.863
15868SOL    HW149501   4.795  12.498   0.938
15868SOL    HW249502   4.822  12.535   0.794
15869SOL     OW49503   3.186   0.949  14.836
15869SOL    HW149504   3.141   0.980   0.035
15869SOL    HW249505   3.227   0.867  14.864
15870SOL     OW49506   1.748   4.912   2.911
15870SOL    HW149507   1.736   4.946   2.999
15870SOL    HW249508   1.663   4.873   2.889
15871SOL     OW49509  10.494   7.681   0.530
15871SOL    HW149510  10.406   7.645   0.538
15871SOL    HW249511  10.553   7.606   0.537
15872SOL     OW49512   5.066   1.994  13.369
15872SOL    HW149513   5.099   2.027  13.286
15872SOL    HW249514   4.972   2.013  13.367
15873SOL     OW49515   8.233   1.375  10.985
15873SOL    HW149516   8.150   1.327  10.981
15873SOL    HW249517   8.208   1.467  10.977
15874SOL     OW49518   0.042   6.684   7.638
15874SOL    HW149519   0.059   6.745   7.710
15874SOL    HW249520   0.090   6.720   7.564
15875SOL     OW49521   7.643  10.555   4.447
15875SOL    HW149522   7.643  10.613   4.371
15875SOL    HW249523   7.586  10.598   4.510
15876SOL     OW49524   1.515  11.573   9.403
15876SOL    HW149525   1.472  11.545   9.323
15876SOL    HW249526   1.530  11.667   9.391
15877SOL     OW49527   8.181   0.411  13.912
15877SOL    HW149528   8.101   0.404  13.964
15877SOL    HW249529   8.158   0.371  13.828
15878SOL     OW49530   9.410   8.868   4.141
15878SOL    HW149531   9.488   8.838   4.093
15878SOL    HW249532   9.386   8.950   4.099
15879SOL     OW49533   4.605  13.395   7.195
15879SOL    HW149534   4.688  13.369   7.234
15879SOL    HW249535   4.602  13.348   7.112
15880SOL     OW49536   2.420   7.306   8.796
15880SOL    HW149537   2.452   7.281   8.883
15880SOL    HW249538   2.473   7.382   8.772
15881SOL     OW49539   7.646   8.926   3.392
15881SOL    HW149540   7.639   8.951   3.484
15881SOL    HW249541   7.577   8.975   3.348
15882SOL     OW49542   3.568  14.181   0.302
15882SOL    HW149543   3.549  14.170   0.395
15882SOL    HW249544   3.654  14.141   0.290
15883SOL     OW49545   0.805   8.953   0.986
15883SOL    HW149546   0.888   8.986   0.950
15883SOL    HW249547   0.750   9.031   0.994
15884SOL     OW49548   5.636   7.125  11.942
15884SOL    HW149549   5.629   7.183  12.019
15884SOL    HW249550   5.576   7.053  11.962
15885SOL     OW49551  14.501   4.378  13.669
15885SOL    HW149552  14.454   4.336  13.597
15885SOL    HW249553  14.593   4.372  13.644
15886SOL     OW49554   3.663  10.651  13.274
15886SOL    HW149555   3.701  10.647  13.361
15886SOL    HW249556   3.716  10.716  13.227
15887SOL     OW49557   9.112   2.338   0.781
15887SOL    HW149558   9.178   2.283   0.741
15887SOL    HW249559   9.114   2.315   0.874
15888SOL     OW49560   9.479  12.517  11.136
15888SOL    HW149561   9.401  12.572  11.130
15888SOL    HW249562   9.491  12.482  11.048
15889SOL     OW49563   0.020   5.606   8.720
15889SOL    HW149564   0.092   5.615   8.783
15889SOL    HW249565  14.821   5.604   8.774
15890SOL     OW49566   0.962   9.089   2.027
15890SOL    HW149567   0.989   9.112   2.116
15890SOL    HW249568   1.044   9.075   1.980
15891SOL     OW49569  13.880   7.378   9.828
15891SOL    HW149570  13.951   7.324   9.792
15891SOL    HW249571  13.908   7.395   9.918
15892SOL     OW49572   6.434  10.699   4.375
15892SOL    HW149573   6.464  10.788   4.391
15892SOL    HW249574   6.390  10.703   4.291
15893SOL     OW49575  13.197  11.759  13.699
15893SOL    HW149576  13.144  11.682  13.680
15893SOL    HW249577  13.134  11.826  13.727
15894SOL     OW49578  12.972   6.665   9.528
15894SOL    HW149579  13.057   6.651   9.486
15894SOL    HW249580  12.938   6.576   9.543
15895SOL     OW49581   6.907   8.445   1.396
15895SOL    HW149582   6.983   8.429   1.453
15895SOL    HW249583   6.833   8.450   1.456
15896SOL     OW49584  10.670   6.859   3.029
15896SOL    HW149585  10.697   6.792   3.092
15896SOL    HW249586  10.578   6.839   3.012
15897SOL     OW49587   0.531   6.941  11.057
15897SOL    HW149588   0.612   6.986  11.031
15897SOL    HW249589   0.491   7.000  11.121
15898SOL     OW49590   1.642   2.572   6.005
15898SOL    HW149591   1.704   2.504   5.977
15898SOL    HW249592   1.680   2.606   6.086
15899SOL     OW49593   3.224   3.194   7.875
15899SOL    HW149594   3.161   3.136   7.834
15899SOL    HW249595   3.208   3.280   7.836
15900SOL     OW49596   4.173   1.467  11.581
15900SOL    HW149597   4.220   1.526  11.640
15900SOL    HW249598   4.084   1.502  11.579
15901SOL     OW49599   7.057  13.677   3.149
15901SOL    HW149600   7.001  13.600   3.156
15901SOL    HW249601   7.063  13.710   3.239
15902SOL     OW49602   6.720  10.872  12.116
15902SOL    HW149603   6.641  10.842  12.161
15902SOL    HW249604   6.784  10.884  12.186
15903SOL     OW49605   8.998  10.032   8.582
15903SOL    HW149606   8.989   9.937   8.588
15903SOL    HW249607   8.927  10.059   8.524
15904SOL     OW49608   0.517   0.812   3.564
15904SOL    HW149609   0.448   0.812   3.630
15904SOL    HW249610   0.547   0.721   3.561
15905SOL     OW49611   5.020   9.038  13.855
15905SOL    HW149612   5.064   8.987  13.923
15905SOL    HW249613   5.083   9.041  13.783
15906SOL     OW49614  12.676  10.455   8.920
15906SOL    HW149615  12.682  10.445   9.015
15906SOL    HW249616  12.632  10.540   8.909
15907SOL     OW49617  14.432  11.900   6.046
15907SOL    HW149618  14.439  11.892   5.951
15907SOL    HW249619  14.362  11.840   6.071
15908SOL     OW49620  13.568   7.287   6.589
15908SOL    HW149621  13.590   7.236   6.667
15908SOL    HW249622  13.650   7.294   6.541
15909SOL     OW49623  10.137   1.309   7.193
15909SOL    HW149624  10.043   1.301   7.210
15909SOL    HW249625  10.144   1.383   7.133
15910SOL     OW49626   6.898   2.273  13.146
15910SOL    HW149627   6.916   2.263  13.239
15910SOL    HW249628   6.890   2.368  13.133
15911SOL     OW49629   4.799  14.728   8.201
15911SOL    HW149630   4.732  14.661   8.205
15911SOL    HW249631   4.881  14.681   8.216
15912SOL     OW49632   5.952  12.856   4.579
15912SOL    HW149633   5.941  12.949   4.558
15912SOL    HW249634   5.869  12.830   4.619
15913SOL     OW49635   4.108   8.685  12.334
15913SOL    HW149636   4.168   8.628  12.383
15913SOL    HW249637   4.120   8.659  12.242
15914SOL     OW49638   9.225   9.828   4.595
15914SOL    HW149639   9.147   9.882   4.596
15914SOL    HW249640   9.204   9.752   4.650
15915SOL     OW49641   7.521  12.628  14.313
15915SOL    HW149642   7.564  12.706  14.349
15915SOL    HW249643   7.585  12.593  14.250
15916SOL     OW49644   4.750   2.157   1.145
15916SOL    HW149645   4.721   2.246   1.124
15916SOL    HW249646   4.823   2.141   1.085
15917SOL     OW49647  10.469   6.580   8.419
15917SOL    HW149648  10.432   6.658   8.460
15917SOL    HW249649  10.506   6.530   8.492
15918SOL     OW49650   7.868   2.167  14.371
15918SOL    HW149651   7.861   2.181  14.277
15918SOL    HW249652   7.911   2.247  14.404
15919SOL     OW49653   3.069   6.760  13.240
15919SOL    HW149654   3.018   6.680  13.227
15919SOL    HW249655   3.078   6.797  13.152
15920SOL     OW49656   3.213   6.959  10.700
15920SOL    HW149657   3.264   6.930  10.624
15920SOL    HW249658   3.202   6.880  10.753
15921SOL     OW49659   2.172   2.646   2.822
15921SOL    HW149660   2.218   2.683   2.897
15921SOL    HW249661   2.174   2.715   2.756
15922SOL     OW49662  13.873   8.295   6.460
15922SOL    HW149663  13.795   8.241   6.470
15922SOL    HW249664  13.895   8.321   6.550
15923SOL     OW49665   4.098   2.067   9.984
15923SOL    HW149666   4.179   2.079  10.035
15923SOL    HW249667   4.042   2.015  10.041
15924SOL     OW49668   9.148   1.510   1.310
15924SOL    HW149669   9.215   1.443   1.298
15924SOL    HW249670   9.197   1.592   1.316
15925SOL     OW49671   1.774   2.877  13.295
15925SOL    HW149672   1.776   2.801  13.237
15925SOL    HW249673   1.779   2.953  13.237
15926SOL     OW49674   7.490  14.759  12.720
15926SOL    HW149675   7.546  14.707  12.663
15926SOL    HW249676   7.496  14.716  12.805
15927SOL     OW49677   0.185  14.206   5.157
15927SOL    HW149678   0.220  14.139   5.098
15927SOL    HW249679   0.094  14.217   5.128
15928SOL     OW49680   2.658  14.548   5.028
15928SOL    HW149681   2.632  14.461   4.997
15928SOL    HW249682   2.620  14.608   4.963
15929SOL     OW49683  10.430   0.333   8.761
15929SOL    HW149684  10.518   0.365   8.743
15929SOL    HW249685  10.435   0.239   8.747
15930SOL     OW49686   2.017   1.780   2.638
15930SOL    HW149687   2.013   1.800   2.544
15930SOL    HW249688   2.064   1.696   2.643
15931SOL     OW49689  11.240   5.693  11.912
15931SOL    HW149690  11.169   5.758  11.913
15931SOL    HW249691  11.306   5.732  11.855
15932SOL     OW49692   6.484   5.404  13.207
15932SOL    HW149693   6.467   5.495  13.231
15932SOL    HW249694   6.579   5.398  13.202
15933SOL     OW49695   9.453   4.235   8.173
15933SOL    HW149696   9.404   4.192   8.242
15933SOL    HW249697   9.386   4.271   8.114
15934SOL     OW49698  14.197   7.012  10.934
15934SOL    HW149699  14.173   6.933  10.886
15934SOL    HW249700  14.268   7.051  10.884
15935SOL     OW49701   6.049  11.473   7.412
15935SOL    HW149702   6.036  11.567   7.420
15935SOL    HW249703   5.963  11.438   7.391
15936SOL     OW49704  13.784   1.084   6.217
15936SOL    HW149705  13.796   1.044   6.303
15936SOL    HW249706  13.847   1.156   6.214
15937SOL     OW49707  10.181   2.322  12.400
15937SOL    HW149708  10.154   2.400  12.448
15937SOL    HW249709  10.129   2.251  12.438
15938SOL     OW49710  14.375   2.440  13.555
15938SOL    HW149711  14.390   2.445  13.460
15938SOL    HW249712  14.280   2.446  13.564
15939SOL     OW49713  11.585  11.892  13.667
15939SOL    HW149714  11.537  11.810  13.681
15939SOL    HW249715  11.578  11.907  13.572
15940SOL     OW49716   3.164   8.088   7.996
15940SOL    HW149717   3.180   8.002   7.957
15940SOL    HW249718   3.147   8.146   7.922
15941SOL     OW49719   0.642   2.637  10.347
15941SOL    HW149720   0.624   2.561  10.402
15941SOL    HW249721   0.736   2.652  10.356
15942SOL     OW49722   4.855  11.189   5.945
15942SOL    HW149723   4.873  11.281   5.966
15942SOL    HW249724   4.913  11.140   6.004
15943SOL     OW49725   0.316  12.442   4.684
15943SOL    HW149726   0.259  12.509   4.723
15943SOL    HW249727   0.297  12.363   4.735
15944SOL     OW49728   5.778   5.996   2.105
15944SOL    HW149729   5.731   6.006   2.188
15944SOL    HW249730   5.862   6.039   2.119
15945SOL     OW49731   6.268  14.611   5.274
15945SOL    HW149732   6.282  14.589   5.367
15945SOL    HW249733   6.356  14.615   5.237
15946SOL     OW49734   9.293   4.717  13.356
15946SOL    HW149735   9.385   4.719  13.381
15946SOL    HW249736   9.246   4.735  13.438
15947SOL     OW49737  12.332   0.469  10.136
15947SOL    HW149738  12.247   0.476  10.179
15947SOL    HW249739  12.365   0.559  10.135
15948SOL     OW49740   4.676  10.645  11.139
15948SOL    HW149741   4.650  10.626  11.049
15948SOL    HW249742   4.634  10.576  11.191
15949SOL     OW49743  11.034   3.325   1.419
15949SOL    HW149744  11.053   3.311   1.326
15949SOL    HW249745  11.118   3.316   1.462
15950SOL     OW49746   1.169   3.428   6.891
15950SOL    HW149747   1.117   3.479   6.829
15950SOL    HW249748   1.121   3.436   6.974
15951SOL     OW49749   6.739   5.365  13.220
15951SOL    HW149750   6.790   5.388  13.143
15951SOL    HW249751   6.804   5.339  13.285
15952SOL     OW49752   8.823   8.867   5.366
15952SOL    HW149753   8.824   8.956   5.401
15952SOL    HW249754   8.731   8.840   5.372
15953SOL     OW49755  13.021   1.507   5.545
15953SOL    HW149756  13.064   1.589   5.569
15953SOL    HW249757  12.951   1.533   5.486
15954SOL     OW49758  13.104   2.692  13.811
15954SOL    HW149759  13.094   2.673  13.718
15954SOL    HW249760  13.015   2.685  13.847
15955SOL     OW49761  14.352  13.335   0.709
15955SOL    HW149762  14.398  13.400   0.656
15955SOL    HW249763  14.359  13.253   0.659
15956SOL     OW49764   1.921   9.985  12.402
15956SOL    HW149765   1.835   9.963  12.438
15956SOL    HW249766   1.939   9.916  12.338
15957SOL     OW49767   6.962  10.534   0.694
15957SOL    HW149768   6.992  10.612   0.741
15957SOL    HW249769   7.002  10.461   0.741
15958SOL     OW49770  14.352  12.269   5.706
15958SOL    HW149771  14.288  12.207   5.740
15958SOL    HW249772  14.333  12.276   5.613
15959SOL     OW49773  14.536   5.478   2.930
15959SOL    HW149774  14.581   5.401   2.896
15959SOL    HW249775  14.602   5.524   2.983
15960SOL     OW49776   2.769   7.325   7.320
15960SOL    HW149777   2.844   7.361   7.368
15960SOL    HW249778   2.719   7.401   7.293
15961SOL     OW49779   3.526   5.830   3.130
15961SOL    HW149780   3.553   5.739   3.135
15961SOL    HW249781   3.538   5.863   3.219
15962SOL     OW49782   4.940   8.979   0.127
15962SOL    HW149783   5.022   8.978   0.176
15962SOL    HW249784   4.952   9.050   0.063
15963SOL     OW49785  10.716   6.932   1.389
15963SOL    HW149786  10.775   6.873   1.436
15963SOL    HW249787  10.660   6.969   1.458
15964SOL     OW49788   1.114  11.459   9.239
15964SOL    HW149789   1.122  11.488   9.330
15964SOL    HW249790   1.026  11.486   9.213
15965SOL     OW49791   8.099   1.079  11.397
15965SOL    HW149792   8.039   1.009  11.423
15965SOL    HW249793   8.176   1.066  11.453
15966SOL     OW49794   2.188   5.481   8.919
15966SOL    HW149795   2.178   5.386   8.921
15966SOL    HW249796   2.100   5.515   8.932
15967SOL     OW49797   2.898   1.641  12.210
15967SOL    HW149798   2.939   1.597  12.284
15967SOL    HW249799   2.892   1.733  12.238
15968SOL     OW49800  11.372   2.854   4.677
15968SOL    HW149801  11.279   2.876   4.683
15968SOL    HW249802  11.378   2.794   4.603
15969SOL     OW49803   8.634  12.856   9.858
15969SOL    HW149804   8.663  12.787   9.919
15969SOL    HW249805   8.693  12.847   9.783
15970SOL     OW49806   0.119   1.149   6.618
15970SOL    HW149807   0.070   1.116   6.694
15970SOL    HW249808   0.134   1.072   6.564
15971SOL     OW49809   7.810  10.915   9.811
15971SOL    HW149810   7.744  10.845   9.813
15971SOL    HW249811   7.879  10.881   9.753
15972SOL     OW49812   4.146   1.995  11.503
15972SOL    HW149813   4.159   2.090  11.497
15972SOL    HW249814   4.066   1.985  11.553
15973SOL     OW49815   9.726   6.389   7.173
15973SOL    HW149816   9.678   6.459   7.129
15973SOL    HW249817   9.660   6.341   7.222
15974SOL     OW49818   6.692   3.070   2.346
15974SOL    HW149819   6.647   3.013   2.285
15974SOL    HW249820   6.627   3.136   2.370
15975SOL     OW49821  11.519   3.375   2.850
15975SOL    HW149822  11.451   3.311   2.871
15975SOL    HW249823  11.599   3.323   2.842
15976SOL     OW49824   6.679  12.266   2.868
15976SOL    HW149825   6.645  12.176   2.863
15976SOL    HW249826   6.736  12.266   2.945
15977SOL     OW49827   9.727  13.518  14.394
15977SOL    HW149828   9.663  13.527  14.465
15977SOL    HW249829   9.788  13.451  14.424
15978SOL     OW49830   0.097  12.018   6.117
15978SOL    HW149831   0.134  11.954   6.178
15978SOL    HW249832   0.069  12.090   6.173
15979SOL     OW49833   4.416   7.549   1.116
15979SOL    HW149834   4.385   7.476   1.062
15979SOL    HW249835   4.353   7.619   1.101
15980SOL     OW49836   1.109   6.338   3.441
15980SOL    HW149837   1.163   6.312   3.366
15980SOL    HW249838   1.159   6.311   3.518
15981SOL     OW49839  14.469   9.256  11.745
15981SOL    HW149840  14.479   9.262  11.650
15981SOL    HW249841  14.558   9.265  11.780
15982SOL     OW49842   0.895  11.815   9.132
15982SOL    HW149843   0.839  11.738   9.121
15982SOL    HW249844   0.862  11.857   9.211
15983SOL     OW49845  11.615   8.090   9.156
15983SOL    HW149846  11.561   8.096   9.078
15983SOL    HW249847  11.557   8.113   9.229
15984SOL     OW49848   2.393   9.315   3.274
15984SOL    HW149849   2.477   9.322   3.227
15984SOL    HW249850   2.414   9.341   3.363
15985SOL     OW49851   4.028  12.092   1.379
15985SOL    HW149852   4.090  12.128   1.442
15985SOL    HW249853   3.985  12.021   1.426
15986SOL     OW49854   0.371  12.805   5.897
15986SOL    HW149855   0.400  12.827   5.986
15986SOL    HW249856   0.442  12.834   5.841
15987SOL     OW49857   7.108   3.441  14.240
15987SOL    HW149858   7.075   3.358  14.204
15987SOL    HW249859   7.192   3.455  14.196
15988SOL     OW49860  13.143   5.199   1.560
15988SOL    HW149861  13.158   5.290   1.584
15988SOL    HW249862  13.112   5.157   1.641
15989SOL     OW49863  14.303  12.729   3.112
15989SOL    HW149864  14.294  12.815   3.072
15989SOL    HW249865  14.215  12.691   3.105
15990SOL     OW49866  12.690   3.842   5.099
15990SOL    HW149867  12.652   3.797   5.023
15990SOL    HW249868  12.644   3.926   5.102
15991SOL     OW49869   5.234   6.473  12.346
15991SOL    HW149870   5.234   6.564  12.374
15991SOL    HW249871   5.213   6.477  12.253
15992SOL     OW49872  10.253  11.620  13.449
15992SOL    HW149873  10.252  11.527  13.428
15992SOL    HW249874  10.251  11.623  13.545
15993SOL     OW49875   7.156   3.507  14.523
15993SOL    HW149876   7.158   3.526  14.429
15993SOL    HW249877   7.135   3.591  14.563
15994SOL     OW49878   6.175  10.040   6.413
15994SOL    HW149879   6.212  10.110   6.359
15994SOL    HW249880   6.127   9.985   6.351
15995SOL     OW49881   3.420   7.825   9.599
15995SOL    HW149882   3.426   7.881   9.522
15995SOL    HW249883   3.440   7.882   9.673
15996SOL     OW49884   5.876   2.568  10.554
15996SOL    HW149885   5.885   2.480  10.590
15996SOL    HW249886   5.813   2.558  10.482
15997SOL     OW49887   4.555   5.956   2.263
15997SOL    HW149888   4.564   5.862   2.278
15997SOL    HW249889   4.587   5.970   2.174
15998SOL     OW49890   9.029  10.670   8.679
15998SOL    HW149891   9.016  10.756   8.639
15998SOL    HW249892   8.963  10.666   8.749
15999SOL     OW49893   8.413   0.678   0.249
15999SOL    HW149894   8.478   0.685   0.318
15999SOL    HW249895   8.444   0.737   0.181
16000SOL     OW49896  12.175   9.567  13.750
16000SOL    HW149897  12.178   9.525  13.664
16000SOL    HW249898  12.255   9.620  13.754
16001SOL     OW49899  12.584   7.511  13.391
16001SOL    HW149900  12.603   7.439  13.330
16001SOL    HW249901  12.663   7.566  13.388
16002SOL     OW49902   7.873   2.365   4.707
16002SOL    HW149903   7.940   2.433   4.709
16002SOL    HW249904   7.795   2.408   4.742
16003SOL     OW49905   3.398   2.341  10.780
16003SOL    HW149906   3.404   2.252  10.816
16003SOL    HW249907   3.422   2.331  10.688
16004SOL     OW49908   8.739  11.783   5.109
16004SOL    HW149909   8.698  11.700   5.134
16004SOL    HW249910   8.679  11.821   5.044
16005SOL     OW49911   5.529  14.379  10.177
16005SOL    HW149912   5.604  14.344  10.129
16005SOL    HW249913   5.453  14.356  10.123
16006SOL     OW49914   0.619   3.794  11.340
16006SOL    HW149915   0.653   3.789  11.429
16006SOL    HW249916   0.654   3.876  11.305
16007SOL     OW49917   5.111   9.857   5.853
16007SOL    HW149918   5.065   9.871   5.936
16007SOL    HW249919   5.105   9.763   5.838
16008SOL     OW49920   5.375  14.104   0.416
16008SOL    HW149921   5.358  14.046   0.491
16008SOL    HW249922   5.450  14.063   0.372
16009SOL     OW49923   2.068   3.744   2.764
16009SOL    HW149924   2.076   3.654   2.794
16009SOL    HW249925   2.116   3.795   2.829
16010SOL     OW49926   9.466   2.503  10.600
16010SOL    HW149927   9.513   2.580  10.631
16010SOL    HW249928   9.528   2.431  10.608
16011SOL     OW49929   9.036  13.567   6.497
16011SOL    HW149930   9.046  13.551   6.591
16011SOL    HW249931   9.111  13.524   6.457
16012SOL     OW49932   4.466   1.912  14.162
16012SOL    HW149933   4.440   1.847  14.229
16012SOL    HW249934   4.554   1.939  14.188
16013SOL     OW49935  10.703   6.342  13.042
16013SOL    HW149936  10.775   6.405  13.053
16013SOL    HW249937  10.742   6.271  12.992
16014SOL     OW49938   9.961   6.374  14.566
16014SOL    HW149939   9.891   6.328  14.520
16014SOL    HW249940   9.919   6.453  14.600
16015SOL     OW49941  10.744   1.130   6.110
16015SOL    HW149942  10.809   1.196   6.084
16015SOL    HW249943  10.677   1.134   6.042
16016SOL     OW49944   8.045   1.828   9.309
16016SOL    HW149945   8.049   1.820   9.213
16016SOL    HW249946   8.084   1.914   9.327
16017SOL     OW49947  10.797   0.332   9.429
16017SOL    HW149948  10.796   0.370   9.341
16017SOL    HW249949  10.862   0.384   9.477
16018SOL     OW49950  13.267   4.192   5.776
16018SOL    HW149951  13.240   4.105   5.804
16018SOL    HW249952  13.186   4.244   5.776
16019SOL     OW49953   3.712   5.795   5.000
16019SOL    HW149954   3.663   5.776   5.080
16019SOL    HW249955   3.795   5.831   5.030
16020SOL     OW49956   7.867   4.067   1.674
16020SOL    HW149957   7.776   4.062   1.702
16020SOL    HW249958   7.899   3.977   1.678
16021SOL     OW49959   2.164   4.531   2.557
16021SOL    HW149960   2.224   4.604   2.540
16021SOL    HW249961   2.220   4.464   2.596
16022SOL     OW49962   5.525  11.488   7.209
16022SOL    HW149963   5.564  11.538   7.280
16022SOL    HW249964   5.471  11.551   7.161
16023SOL     OW49965  11.974   3.572  14.545
16023SOL    HW149966  11.982   3.621  14.626
16023SOL    HW249967  11.897   3.516  14.558
16024SOL     OW49968   7.468   5.607   7.248
16024SOL    HW149969   7.527   5.677   7.274
16024SOL    HW249970   7.419   5.644   7.174
16025SOL     OW49971   4.081   4.081   5.470
16025SOL    HW149972   4.120   4.143   5.409
16025SOL    HW249973   4.124   4.100   5.554
16026SOL     OW49974  10.562   3.064  12.385
16026SOL    HW149975  10.590   3.151  12.414
16026SOL    HW249976  10.638   3.029  12.339
16027SOL     OW49977   3.027   6.002   4.981
16027SOL    HW149978   3.053   5.910   4.977
16027SOL    HW249979   2.993   6.014   5.070
16028SOL     OW49980   8.372  12.961   9.529
16028SOL    HW149981   8.358  13.048   9.566
16028SOL    HW249982   8.464  12.941   9.549
16029SOL     OW49983  12.276   4.754  13.774
16029SOL    HW149984  12.340   4.700  13.728
16029SOL    HW249985  12.233   4.804  13.705
16030SOL     OW49986   7.697   7.230   8.241
16030SOL    HW149987   7.689   7.312   8.291
16030SOL    HW249988   7.787   7.229   8.210
16031SOL     OW49989   8.348  13.641   1.387
16031SOL    HW149990   8.272  13.697   1.372
16031SOL    HW249991   8.340  13.614   1.479
16032SOL     OW49992   0.703   9.227   1.112
16032SOL    HW149993   0.616   9.187   1.112
16032SOL    HW249994   0.728   9.229   1.019
16033SOL     OW49995   0.497   9.993   5.061
16033SOL    HW149996   0.473   9.959   5.147
16033SOL    HW249997   0.592   9.985   5.057
16034SOL     OW49998   1.993  12.997   4.973
16034SOL    HW149999   1.939  12.922   4.998
16034SOL    HW250000   2.081  12.962   4.962
16035SOL     OW50001   1.865   1.137   9.492
16035SOL    HW150002   1.838   1.125   9.401
16035SOL    HW250003   1.918   1.059   9.511
16036SOL     OW50004   3.490  12.021   3.633
16036SOL    HW150005   3.580  12.005   3.661
16036SOL    HW250006   3.489  11.999   3.540
16037SOL     OW50007  12.240  12.237   9.702
16037SOL    HW150008  12.330  12.270   9.694
16037SOL    HW250009  12.207  12.236   9.612
16038SOL     OW50010   5.683   2.198   1.636
16038SOL    HW150011   5.623   2.256   1.590
16038SOL    HW250012   5.669   2.217   1.728
16039SOL     OW50013   8.288  12.951  12.290
16039SOL    HW150014   8.206  12.906  12.306
16039SOL    HW250015   8.346  12.924  12.362
16040SOL     OW50016  12.783   9.777  11.222
16040SOL    HW150017  12.798   9.864  11.260
16040SOL    HW250018  12.700   9.785  11.175
16041SOL     OW50019   2.647   7.563   9.872
16041SOL    HW150020   2.715   7.502   9.844
16041SOL    HW250021   2.583   7.562   9.800
16042SOL     OW50022   6.934   0.090   2.328
16042SOL    HW150023   6.858   0.099   2.386
16042SOL    HW250024   6.941   0.174   2.284
16043SOL     OW50025  11.210  12.714   2.977
16043SOL    HW150026  11.192  12.709   3.071
16043SOL    HW250027  11.305  12.710   2.970
16044SOL     OW50028   3.142  12.622   4.459
16044SOL    HW150029   3.148  12.528   4.440
16044SOL    HW250030   3.230  12.655   4.442
16045SOL     OW50031  14.254   5.084  12.792
16045SOL    HW150032  14.300   5.078  12.876
16045SOL    HW250033  14.298   5.021  12.736
16046SOL     OW50034  10.967   7.757   5.285
16046SOL    HW150035  10.982   7.706   5.205
16046SOL    HW250036  11.027   7.831   5.278
16047SOL     OW50037   2.663  10.836   8.058
16047SOL    HW150038   2.621  10.857   7.974
16047SOL    HW250039   2.619  10.893   8.122
16048SOL     OW50040   4.273   6.208   9.186
16048SOL    HW150041   4.193   6.185   9.139
16048SOL    HW250042   4.257   6.297   9.218
16049SOL     OW50043   9.976   4.302   1.767
16049SOL    HW150044   9.991   4.356   1.844
16049SOL    HW250045   9.928   4.226   1.799
16050SOL     OW50046   3.606   4.222   2.456
16050SOL    HW150047   3.632   4.212   2.364
16050SOL    HW250048   3.592   4.316   2.467
16051SOL     OW50049  10.526   3.570   9.349
16051SOL    HW150050  10.597   3.517   9.312
16051SOL    HW250051  10.481   3.607   9.273
16052SOL     OW50052   1.705   5.572   1.061
16052SOL    HW150053   1.722   5.628   1.137
16052SOL    HW250054   1.618   5.598   1.031
16053SOL     OW50055   7.090  13.479  13.843
16053SOL    HW150056   6.999  13.509  13.840
16053SOL    HW250057   7.130  13.514  13.764
16054SOL     OW50058   4.168   9.131  13.229
16054SOL    HW150059   4.104   9.160  13.164
16054SOL    HW250060   4.234   9.200  13.231
16055SOL     OW50061  10.918  14.400   3.704
16055SOL    HW150062  10.906  14.307   3.723
16055SOL    HW250063  10.842  14.443   3.743
16056SOL     OW50064  13.236   0.461   3.878
16056SOL    HW150065  13.141   0.475   3.868
16056SOL    HW250066  13.244   0.369   3.901
16057SOL     OW50067   2.409   6.682   1.272
16057SOL    HW150068   2.449   6.647   1.351
16057SOL    HW250069   2.367   6.764   1.301
16058SOL     OW50070   1.140   8.832   7.200
16058SOL    HW150071   1.083   8.755   7.198
16058SOL    HW250072   1.084   8.904   7.227
16059SOL     OW50073   1.313  13.376   8.214
16059SOL    HW150074   1.387  13.437   8.215
16059SOL    HW250075   1.346  13.300   8.165
16060SOL     OW50076  14.306  14.499   5.751
16060SOL    HW150077  14.335  14.590   5.758
16060SOL    HW250078  14.218  14.499   5.788
16061SOL     OW50079   2.930   1.919   1.232
16061SOL    HW150080   3.012   1.886   1.268
16061SOL    HW250081   2.931   1.892   1.140
16062SOL     OW50082  10.175   1.217   0.736
16062SOL    HW150083  10.147   1.308   0.746
16062SOL    HW250084  10.239   1.205   0.806
16063SOL     OW50085  13.966   2.470   4.279
16063SOL    HW150086  14.015   2.391   4.253
16063SOL    HW250087  14.015   2.505   4.353
16064SOL     OW50088   9.021   9.521   4.393
16064SOL    HW150089   8.986   9.599   4.436
16064SOL    HW250090   9.005   9.535   4.300
16065SOL     OW50091   5.655  14.372   8.618
16065SOL    HW150092   5.616  14.455   8.589
16065SOL    HW250093   5.606  14.305   8.570
16066SOL     OW50094   0.395   3.511  11.598
16066SOL    HW150095   0.414   3.546  11.684
16066SOL    HW250096   0.453   3.558  11.539
16067SOL     OW50097  12.671   1.621  12.397
16067SOL    HW150098  12.699   1.540  12.440
16067SOL    HW250099  12.702   1.613  12.307
16068SOL     OW50100   5.542  10.344   8.672
16068SOL    HW150101   5.538  10.353   8.767
16068SOL    HW250102   5.635  10.331   8.653
16069SOL     OW50103   8.404  11.793  14.686
16069SOL    HW150104   8.441  11.863  14.631
16069SOL    HW250105   8.311  11.792  14.664
16070SOL     OW50106   1.219   1.906   6.246
16070SOL    HW150107   1.186   1.829   6.199
16070SOL    HW250108   1.309   1.916   6.214
16071SOL     OW50109  10.979   1.375   3.747
16071SOL    HW150110  10.973   1.449   3.687
16071SOL    HW250111  11.071   1.350   3.747
16072SOL     OW50112   4.097   1.277  10.892
16072SOL    HW150113   4.125   1.186  10.902
16072SOL    HW250114   4.154   1.326  10.951
16073SOL     OW50115  13.842   9.535   3.978
16073SOL    HW150116  13.879   9.496   3.899
16073SOL    HW250117  13.834   9.462   4.040
16074SOL     OW50118   2.569   6.278   9.386
16074SOL    HW150119   2.482   6.316   9.395
16074SOL    HW250120   2.572   6.244   9.297
16075SOL     OW50121  14.327   1.420   0.772
16075SOL    HW150122  14.304   1.493   0.828
16075SOL    HW250123  14.279   1.436   0.691
16076SOL     OW50124   2.228  10.910  11.235
16076SOL    HW150125   2.147  10.917  11.184
16076SOL    HW250126   2.205  10.854  11.309
16077SOL     OW50127   6.740   4.496   5.306
16077SOL    HW150128   6.685   4.424   5.334
16077SOL    HW250129   6.778   4.467   5.223
16078SOL     OW50130  11.961   3.862  12.149
16078SOL    HW150131  11.954   3.870  12.054
16078SOL    HW250132  11.880   3.900  12.183
16079SOL     OW50133  13.350  13.088   0.907
16079SOL    HW150134  13.274  13.076   0.851
16079SOL    HW250135  13.380  13.177   0.889
16080SOL     OW50136   8.456   1.619   3.748
16080SOL    HW150137   8.410   1.699   3.723
16080SOL    HW250138   8.541   1.625   3.705
16081SOL     OW50139   9.392  13.819   4.519
16081SOL    HW150140   9.361  13.906   4.495
16081SOL    HW250141   9.331  13.789   4.586
16082SOL     OW50142   3.893   1.134   0.315
16082SOL    HW150143   3.811   1.088   0.330
16082SOL    HW250144   3.953   1.066   0.283
16083SOL     OW50145  13.480   8.229  14.266
16083SOL    HW150146  13.386   8.241  14.283
16083SOL    HW250147  13.522   8.249  14.350
16084SOL     OW50148   7.234   7.501   7.180
16084SOL    HW150149   7.191   7.495   7.266
16084SOL    HW250150   7.326   7.515   7.201
16085SOL     OW50151  11.718   1.727  11.571
16085SOL    HW150152  11.776   1.655  11.545
16085SOL    HW250153  11.775   1.787  11.620
16086SOL     OW50154   0.267   0.033  10.984
16086SOL    HW150155   0.292   0.050  11.075
16086SOL    HW250156   0.276  14.818  10.973
16087SOL     OW50157   9.644   6.285   8.905
16087SOL    HW150158   9.623   6.333   8.825
16087SOL    HW250159   9.715   6.226   8.880
16088SOL     OW50160   7.624   0.222   8.034
16088SOL    HW150161   7.631   0.308   7.993
16088SOL    HW250162   7.714   0.192   8.044
16089SOL     OW50163   6.899   8.994   6.216
16089SOL    HW150164   6.964   8.926   6.202
16089SOL    HW250165   6.845   8.962   6.288
16090SOL     OW50166   4.040   2.475   1.954
16090SOL    HW150167   3.995   2.556   1.977
16090SOL    HW250168   4.086   2.495   1.873
16091SOL     OW50169  10.360   6.729   8.639
16091SOL    HW150170  10.301   6.747   8.712
16091SOL    HW250171  10.435   6.685   8.678
16092SOL     OW50172   9.187   4.045  12.212
16092SOL    HW150173   9.143   3.986  12.273
16092SOL    HW250174   9.146   4.028  12.128
16093SOL     OW50175   3.358   5.900   9.720
16093SOL    HW150176   3.350   5.886   9.626
16093SOL    HW250177   3.411   5.826   9.750
16094SOL     OW50178  11.125   2.554   6.626
16094SOL    HW150179  11.142   2.645   6.652
16094SOL    HW250180  11.080   2.516   6.702
16095SOL     OW50181   4.102   7.662   9.413
16095SOL    HW150182   4.069   7.572   9.422
16095SOL    HW250183   4.121   7.689   9.503
16096SOL     OW50184  10.649   1.128  12.606
16096SOL    HW150185  10.708   1.133  12.681
16096SOL    HW250186  10.678   1.051  12.558
16097SOL     OW50187   2.869  14.492   8.835
16097SOL    HW150188   2.788  14.512   8.788
16097SOL    HW250189   2.939  14.528   8.780
16098SOL     OW50190  10.733  13.702   4.672
16098SOL    HW150191  10.804  13.752   4.631
16098SOL    HW250192  10.694  13.653   4.599
16099SOL     OW50193   0.488   6.843  14.846
16099SOL    HW150194   0.465   6.849  14.753
16099SOL    HW250195   0.468   6.752  14.870
16100SOL     OW50196   3.626   2.749   2.397
16100SOL    HW150197   3.635   2.829   2.448
16100SOL    HW250198   3.549   2.764   2.342
16101SOL     OW50199  12.603   3.663   3.120
16101SOL    HW150200  12.525   3.660   3.064
16101SOL    HW250201  12.568   3.661   3.209
16102SOL     OW50202  14.638  14.636   2.784
16102SOL    HW150203  14.725  14.598   2.796
16102SOL    HW250204  14.617  14.620   2.692
16103SOL     OW50205   3.892   0.655   1.747
16103SOL    HW150206   3.839   0.727   1.712
16103SOL    HW250207   3.834   0.579   1.745
16104SOL     OW50208   0.588   5.463   3.536
16104SOL    HW150209   0.678   5.493   3.524
16104SOL    HW250210   0.558   5.442   3.448
16105SOL     OW50211   3.120   5.449  14.629
16105SOL    HW150212   3.124   5.354  14.639
16105SOL    HW250213   3.041   5.475  14.678
16106SOL     OW50214   5.097  13.162   0.848
16106SOL    HW150215   5.085  13.075   0.887
16106SOL    HW250216   5.101  13.145   0.754
16107SOL     OW50217   4.151   3.281   9.662
16107SOL    HW150218   4.241   3.273   9.631
16107SOL    HW250219   4.121   3.191   9.677
16108SOL     OW50220   3.924   8.997   6.258
16108SOL    HW150221   3.977   9.010   6.179
16108SOL    HW250222   3.976   9.036   6.328
16109SOL     OW50223   5.339   5.050   0.840
16109SOL    HW150224   5.386   4.975   0.876
16109SOL    HW250225   5.364   5.123   0.897
16110SOL     OW50226  10.760   3.452   9.275
16110SOL    HW150227  10.851   3.479   9.287
16110SOL    HW250228  10.763   3.357   9.267
16111SOL     OW50229   1.295  13.672   1.261
16111SOL    HW150230   1.284  13.723   1.341
16111SOL    HW250231   1.273  13.582   1.286
16112SOL     OW50232   6.180  10.657   1.711
16112SOL    HW150233   6.117  10.694   1.773
16112SOL    HW250234   6.205  10.573   1.750
16113SOL     OW50235   7.998   0.298   5.843
16113SOL    HW150236   8.081   0.339   5.867
16113SOL    HW250237   7.978   0.333   5.756
16114SOL     OW50238   6.943   5.643  13.845
16114SOL    HW150239   6.938   5.738  13.853
16114SOL    HW250240   6.925   5.610  13.934
16115SOL     OW50241   8.406   6.811   7.311
16115SOL    HW150242   8.467   6.819   7.238
16115SOL    HW250243   8.422   6.889   7.365
16116SOL     OW50244   6.182   5.566  10.759
16116SOL    HW150245   6.174   5.659  10.741
16116SOL    HW250246   6.237   5.561  10.837
16117SOL     OW50247   7.662   3.922   7.258
16117SOL    HW150248   7.703   3.872   7.187
16117SOL    HW250249   7.735   3.971   7.297
16118SOL     OW50250   5.402   7.654   2.469
16118SOL    HW150251   5.321   7.702   2.487
16118SOL    HW250252   5.469   7.699   2.520
16119SOL     OW50253   8.248   5.249   5.207
16119SOL    HW150254   8.192   5.326   5.212
16119SOL    HW250255   8.248   5.225   5.114
16120SOL     OW50256   6.212  14.430   0.400
16120SOL    HW150257   6.179  14.499   0.341
16120SOL    HW250258   6.245  14.477   0.476
16121SOL     OW50259   3.279   4.209   3.735
16121SOL    HW150260   3.238   4.217   3.649
16121SOL    HW250261   3.372   4.226   3.719
16122SOL     OW50262  10.480   6.585  14.361
16122SOL    HW150263  10.501   6.677  14.351
16122SOL    HW250264  10.386   6.579  14.345
16123SOL     OW50265   2.543  11.111  10.984
16123SOL    HW150266   2.561  11.021  11.012
16123SOL    HW250267   2.548  11.162  11.064
16124SOL     OW50268  10.099   0.878  11.613
16124SOL    HW150269  10.161   0.949  11.594
16124SOL    HW250270  10.124   0.808  11.553
16125SOL     OW50271   7.630  10.144   6.409
16125SOL    HW150272   7.596  10.233   6.413
16125SOL    HW250273   7.573  10.098   6.347
16126SOL     OW50274   8.738  13.786  13.593
16126SOL    HW150275   8.669  13.722  13.610
16126SOL    HW250276   8.772  13.763  13.507
16127SOL     OW50277   3.484   7.925   1.261
16127SOL    HW150278   3.433   7.950   1.338
16127SOL    HW250279   3.519   8.007   1.228
16128SOL     OW50280   5.499   7.702  13.029
16128SOL    HW150281   5.511   7.608  13.017
16128SOL    HW250282   5.406   7.717  13.013
16129SOL     OW50283  13.219   3.122   2.121
16129SOL    HW150284  13.124   3.124   2.128
16129SOL    HW250285  13.250   3.143   2.209
16130SOL     OW50286   0.447   5.855  12.889
16130SOL    HW150287   0.378   5.809  12.841
16130SOL    HW250288   0.428   5.947  12.876
16131SOL     OW50289   8.126   2.450  11.528
16131SOL    HW150290   8.173   2.388  11.585
16131SOL    HW250291   8.103   2.399  11.451
16132SOL     OW50292   5.745   1.940   5.672
16132SOL    HW150293   5.717   2.032   5.666
16132SOL    HW250294   5.826   1.937   5.621
16133SOL     OW50295  10.571   2.380   3.098
16133SOL    HW150296  10.485   2.420   3.086
16133SOL    HW250297  10.583   2.377   3.193
16134SOL     OW50298   3.748  12.122   0.759
16134SOL    HW150299   3.826  12.128   0.815
16134SOL    HW250300   3.766  12.049   0.700
16135SOL     OW50301  10.127  14.089  10.773
16135SOL    HW150302  10.105  14.180  10.754
16135SOL    HW250303  10.048  14.053  10.813
16136SOL     OW50304   9.895  13.714  10.604
16136SOL    HW150305   9.879  13.693  10.696
16136SOL    HW250306   9.928  13.632  10.567
16137SOL     OW50307  13.229   6.245   4.473
16137SOL    HW150308  13.242   6.314   4.538
16137SOL    HW250309  13.317   6.215   4.451
16138SOL     OW50310  11.395   9.889   1.910
16138SOL    HW150311  11.354   9.878   1.996
16138SOL    HW250312  11.484   9.854   1.921
16139SOL     OW50313   8.853   8.365   3.727
16139SOL    HW150314   8.866   8.460   3.716
16139SOL    HW250315   8.882   8.347   3.816
16140SOL     OW50316  11.643  11.237   4.872
16140SOL    HW150317  11.600  11.321   4.890
16140SOL    HW250318  11.725  11.241   4.922
16141SOL     OW50319  11.538   9.762   5.349
16141SOL    HW150320  11.615   9.705   5.360
16141SOL    HW250321  11.575   9.849   5.335
16142SOL     OW50322  13.278   2.789   7.236
16142SOL    HW150323  13.233   2.874   7.234
16142SOL    HW250324  13.343   2.794   7.166
16143SOL     OW50325   5.967   4.337   4.353
16143SOL    HW150326   5.897   4.340   4.418
16143SOL    HW250327   6.027   4.408   4.379
16144SOL     OW50328   5.224  12.935   5.765
16144SOL    HW150329   5.132  12.918   5.746
16144SOL    HW250330   5.256  12.983   5.689
16145SOL     OW50331   0.079  14.065   2.831
16145SOL    HW150332   0.059  14.158   2.817
16145SOL    HW250333   0.165  14.053   2.791
16146SOL     OW50334   0.100  13.493   1.786
16146SOL    HW150335   0.006  13.482   1.773
16146SOL    HW250336   0.139  13.461   1.704
16147SOL     OW50337  10.221   5.920   6.943
16147SOL    HW150338  10.175   5.838   6.962
16147SOL    HW250339  10.159   5.989   6.967
16148SOL     OW50340   4.879   6.169   2.571
16148SOL    HW150341   4.785   6.157   2.558
16148SOL    HW250342   4.893   6.262   2.556
16149SOL     OW50343   0.410   2.015   7.824
16149SOL    HW150344   0.381   2.076   7.756
16149SOL    HW250345   0.505   2.008   7.813
16150SOL     OW50346  13.860  11.040  10.177
16150SOL    HW150347  13.886  10.952  10.152
16150SOL    HW250348  13.942  11.084  10.200
16151SOL     OW50349   1.889  11.776   4.127
16151SOL    HW150350   1.979  11.770   4.159
16151SOL    HW250351   1.894  11.739   4.038
16152SOL     OW50352   2.837   9.965   8.649
16152SOL    HW150353   2.849   9.886   8.596
16152SOL    HW250354   2.821  10.034   8.585
16153SOL     OW50355  11.826   7.897   6.570
16153SOL    HW150356  11.881   7.832   6.526
16153SOL    HW250357  11.888   7.954   6.616
16154SOL     OW50358   2.958   6.285   0.540
16154SOL    HW150359   2.969   6.230   0.617
16154SOL    HW250360   2.895   6.352   0.567
16155SOL     OW50361   6.470  13.997  12.561
16155SOL    HW150362   6.508  14.049  12.489
16155SOL    HW250363   6.543  13.943  12.591
16156SOL     OW50364  14.231   7.984   6.178
16156SOL    HW150365  14.237   7.954   6.269
16156SOL    HW250366  14.247   7.906   6.125
16157SOL     OW50367   5.241  14.396   6.407
16157SOL    HW150368   5.175  14.414   6.474
16157SOL    HW250369   5.321  14.378   6.457
16158SOL     OW50370   1.349  10.548   0.917
16158SOL    HW150371   1.297  10.568   0.839
16158SOL    HW250372   1.295  10.487   0.967
16159SOL     OW50373  11.480   6.181   3.151
16159SOL    HW150374  11.566   6.199   3.114
16159SOL    HW250375  11.440   6.120   3.089
16160SOL     OW50376   2.553   6.958  11.988
16160SOL    HW150377   2.643   6.924  11.990
16160SOL    HW250378   2.526   6.958  12.080
16161SOL     OW50379   8.953   7.045  12.900
16161SOL    HW150380   8.942   6.953  12.925
16161SOL    HW250381   8.885   7.059  12.834
16162SOL     OW50382   8.879  12.588   7.162
16162SOL    HW150383   8.786  12.565   7.152
16162SOL    HW250384   8.924  12.530   7.100
16163SOL     OW50385  10.276   8.047  14.041
16163SOL    HW150386  10.252   8.138  14.022
16163SOL    HW250387  10.370   8.050  14.058
16164SOL     OW50388   6.861  10.289  10.477
16164SOL    HW150389   6.854  10.195  10.492
16164SOL    HW250390   6.955  10.306  10.472
16165SOL     OW50391  11.048   0.680   0.796
16165SOL    HW150392  10.966   0.720   0.767
16165SOL    HW250393  11.038   0.587   0.774
16166SOL     OW50394   3.727  12.300   0.397
16166SOL    HW150395   3.755  12.317   0.307
16166SOL    HW250396   3.651  12.242   0.389
16167SOL     OW50397  14.152   2.066  13.851
16167SOL    HW150398  14.131   2.065  13.944
16167SOL    HW250399  14.183   2.154  13.833
16168SOL     OW50400   7.549   4.442   0.810
16168SOL    HW150401   7.616   4.414   0.873
16168SOL    HW250402   7.584   4.523   0.773
16169SOL     OW50403   7.762   8.348   2.365
16169SOL    HW150404   7.809   8.364   2.284
16169SOL    HW250405   7.730   8.435   2.391
16170SOL     OW50406   9.836  13.655   7.804
16170SOL    HW150407   9.858  13.574   7.851
16170SOL    HW250408   9.910  13.713   7.822
16171SOL     OW50409  11.408   4.681   4.814
16171SOL    HW150410  11.460   4.666   4.734
16171SOL    HW250411  11.325   4.716   4.782
16172SOL     OW50412  12.270   6.855  10.767
16172SOL    HW150413  12.300   6.893  10.685
16172SOL    HW250414  12.277   6.925  10.831
16173SOL     OW50415   5.620   8.944  12.968
16173SOL    HW150416   5.531   8.925  12.937
16173SOL    HW250417   5.646   9.023  12.920
16174SOL     OW50418  13.658   1.622   3.811
16174SOL    HW150419  13.593   1.630   3.741
16174SOL    HW250420  13.660   1.528   3.830
16175SOL     OW50421  12.640  11.485   9.440
16175SOL    HW150422  12.554  11.449   9.460
16175SOL    HW250423  12.664  11.445   9.356
16176SOL     OW50424   1.822   4.180   7.393
16176SOL    HW150425   1.843   4.239   7.321
16176SOL    HW250426   1.851   4.226   7.472
16177SOL     OW50427   1.043   8.855   4.947
16177SOL    HW150428   1.004   8.846   4.861
16177SOL    HW250429   1.091   8.938   4.944
16178SOL     OW50430   1.068   9.042  13.144
16178SOL    HW150431   1.045   8.980  13.213
16178SOL    HW250432   1.021   9.122  13.169
16179SOL     OW50433   7.672  13.410   7.155
16179SOL    HW150434   7.620  13.403   7.075
16179SOL    HW250435   7.659  13.326   7.199
16180SOL     OW50436   9.345   2.260   4.662
16180SOL    HW150437   9.395   2.261   4.743
16180SOL    HW250438   9.345   2.352   4.634
16181SOL     OW50439   1.648   3.643   4.720
16181SOL    HW150440   1.591   3.659   4.645
16181SOL    HW250441   1.601   3.578   4.773
16182SOL     OW50442   1.145   1.567  10.120
16182SOL    HW150443   1.074   1.595  10.177
16182SOL    HW250444   1.223   1.610  10.155
16183SOL     OW50445   8.575   8.368   7.739
16183SOL    HW150446   8.505   8.332   7.793
16183SOL    HW250447   8.535   8.382   7.653
16184SOL     OW50448  13.888   0.836   8.321
16184SOL    HW150449  13.835   0.757   8.328
16184SOL    HW250450  13.938   0.839   8.402
16185SOL     OW50451   0.023   4.804   8.434
16185SOL    HW150452  14.809   4.806   8.416
16185SOL    HW250453   0.051   4.717   8.405
16186SOL     OW50454   2.289  12.167   6.249
16186SOL    HW150455   2.368  12.121   6.275
16186SOL    HW250456   2.319  12.234   6.187
16187SOL     OW50457  13.338   4.463   2.494
16187SOL    HW150458  13.341   4.554   2.465
16187SOL    HW250459  13.390   4.415   2.429
16188SOL     OW50460  10.799  11.335  10.053
16188SOL    HW150461  10.873  11.279  10.075
16188SOL    HW250462  10.776  11.378  10.136
16189SOL     OW50463   4.944  13.332  12.591
16189SOL    HW150464   4.916  13.259  12.535
16189SOL    HW250465   4.879  13.335  12.661
16190SOL     OW50466  11.109  10.258   8.429
16190SOL    HW150467  11.191  10.308   8.438
16190SOL    HW250468  11.102  10.210   8.512
16191SOL     OW50469   6.812   4.875   0.768
16191SOL    HW150470   6.903   4.858   0.792
16191SOL    HW250471   6.796   4.818   0.693
16192SOL     OW50472   3.488   0.508  10.701
16192SOL    HW150473   3.415   0.477  10.755
16192SOL    HW250474   3.506   0.596  10.733
16193SOL     OW50475   4.619  14.419  11.832
16193SOL    HW150476   4.652  14.465  11.754
16193SOL    HW250477   4.566  14.484  11.877
16194SOL     OW50478  13.162  14.553   7.153
16194SOL    HW150479  13.144  14.511   7.237
16194SOL    HW250480  13.224  14.623   7.173
16195SOL     OW50481   5.924   7.775   2.197
16195SOL    HW150482   5.877   7.789   2.280
16195SOL    HW250483   5.938   7.681   2.193
16196SOL     OW50484   5.738  11.760  14.833
16196SOL    HW150485   5.689  11.842  14.822
16196SOL    HW250486   5.828  11.784  14.813
16197SOL     OW50487   0.294   7.605  11.242
16197SOL    HW150488   0.297   7.700  11.228
16197SOL    HW250489   0.384   7.582  11.264
16198SOL     OW50490   7.930   1.378   2.540
16198SOL    HW150491   7.880   1.297   2.547
16198SOL    HW250492   7.871   1.446   2.573
16199SOL     OW50493   8.141  13.299  13.822
16199SOL    HW150494   8.191  13.300  13.740
16199SOL    HW250495   8.185  13.235  13.877
16200SOL     OW50496   4.195   8.966   0.242
16200SOL    HW150497   4.210   9.055   0.274
16200SOL    HW250498   4.205   8.973   0.147
16201SOL     OW50499   9.496   2.162   3.953
16201SOL    HW150500   9.485   2.248   3.993
16201SOL    HW250501   9.495   2.180   3.858
16202SOL     OW50502   4.713   2.837  11.244
16202SOL    HW150503   4.805   2.809  11.243
16202SOL    HW250504   4.716   2.931  11.224
16203SOL     OW50505   5.213  13.375   9.622
16203SOL    HW150506   5.245  13.318   9.552
16203SOL    HW250507   5.223  13.323   9.702
16204SOL     OW50508   5.782  13.317   3.380
16204SOL    HW150509   5.725  13.268   3.320
16204SOL    HW250510   5.869  13.311   3.340
16205SOL     OW50511  14.382   7.569  11.130
16205SOL    HW150512  14.389   7.573  11.035
16205SOL    HW250513  14.341   7.653  11.154
16206SOL     OW50514   4.552   1.235  10.751
16206SOL    HW150515   4.477   1.189  10.713
16206SOL    HW250516   4.599   1.270  10.676
16207SOL     OW50517  13.272   2.850  13.292
16207SOL    HW150518  13.179   2.838  13.315
16207SOL    HW250519  13.303   2.918  13.351
16208SOL     OW50520  11.579   4.292  13.929
16208SOL    HW150521  11.498   4.333  13.898
16208SOL    HW250522  11.610   4.240  13.855
16209SOL     OW50523   0.296  12.121   4.497
16209SOL    HW150524   0.243  12.183   4.445
16209SOL    HW250525   0.292  12.155   4.586
16210SOL     OW50526   5.281   6.471   7.362
16210SOL    HW150527   5.305   6.551   7.315
16210SOL    HW250528   5.356   6.452   7.418
16211SOL     OW50529  14.734  10.290   9.766
16211SOL    HW150530  14.747  10.380   9.736
16211SOL    HW250531  14.643  10.271   9.745
16212SOL     OW50532   6.464  13.136  10.221
16212SOL    HW150533   6.503  13.068  10.167
16212SOL    HW250534   6.517  13.214  10.203
16213SOL     OW50535  11.490   6.608   9.151
16213SOL    HW150536  11.431   6.683   9.143
16213SOL    HW250537  11.543   6.611   9.072
16214SOL     OW50538  11.729  12.663   1.693
16214SOL    HW150539  11.785  12.662   1.616
16214SOL    HW250540  11.656  12.720   1.669
16215SOL     OW50541   7.820   1.149  11.420
16215SOL    HW150542   7.879   1.188  11.356
16215SOL    HW250543   7.837   1.198  11.501
16216SOL     OW50544   4.313   5.673   7.476
16216SOL    HW150545   4.391   5.618   7.473
16216SOL    HW250546   4.254   5.628   7.537
16217SOL     OW50547  14.460   5.341   5.887
16217SOL    HW150548  14.416   5.408   5.939
16217SOL    HW250549  14.529   5.308   5.945
16218SOL     OW50550  10.051   3.423  10.570
16218SOL    HW150551  10.052   3.334  10.535
16218SOL    HW250552  10.137   3.458  10.548
16219SOL     OW50553   9.978   6.316  11.656
16219SOL    HW150554   9.900   6.348  11.610
16219SOL    HW250555   9.944   6.257  11.723
16220SOL     OW50556   9.831   8.996  13.093
16220SOL    HW150557   9.799   8.934  13.028
16220SOL    HW250558   9.763   9.063  13.100
16221SOL     OW50559   2.648   9.388   0.962
16221SOL    HW150560   2.627   9.406   1.054
16221SOL    HW250561   2.730   9.339   0.966
16222SOL     OW50562   4.860   9.545   4.827
16222SOL    HW150563   4.955   9.537   4.830
16222SOL    HW250564   4.828   9.455   4.819
16223SOL     OW50565   9.051   3.433   9.553
16223SOL    HW150566   9.113   3.443   9.481
16223SOL    HW250567   9.005   3.351   9.534
16224SOL     OW50568  11.432  13.962  14.768
16224SOL    HW150569  11.524  13.943  14.753
16224SOL    HW250570  11.431  14.010  14.851
16225SOL     OW50571  11.096   4.971  14.128
16225SOL    HW150572  11.043   5.044  14.096
16225SOL    HW250573  11.099   4.983  14.223
16226SOL     OW50574   5.186   0.484   4.992
16226SOL    HW150575   5.150   0.399   4.967
16226SOL    HW250576   5.129   0.513   5.064
16227SOL     OW50577   1.023  13.719  14.642
16227SOL    HW150578   0.934  13.751  14.630
16227SOL    HW250579   1.073  13.761  14.572
16228SOL     OW50580  12.244   0.645   1.291
16228SOL    HW150581  12.230   0.616   1.201
16228SOL    HW250582  12.286   0.570   1.333
16229SOL     OW50583   7.678   2.528   5.786
16229SOL    HW150584   7.628   2.577   5.851
16229SOL    HW250585   7.758   2.578   5.774
16230SOL     OW50586   9.439   6.628   3.990
16230SOL    HW150587   9.359   6.673   4.014
16230SOL    HW250588   9.424   6.597   3.900
16231SOL     OW50589   5.380   5.068  11.003
16231SOL    HW150590   5.391   4.973  11.010
16231SOL    HW250591   5.432   5.093  10.927
16232SOL     OW50592  12.412   2.126   0.743
16232SOL    HW150593  12.438   2.153   0.655
16232SOL    HW250594  12.329   2.171   0.758
16233SOL     OW50595   8.319  11.539   4.187
16233SOL    HW150596   8.389  11.593   4.224
16233SOL    HW250597   8.308  11.467   4.249
16234SOL     OW50598  10.462  12.303  13.081
16234SOL    HW150599  10.444  12.393  13.109
16234SOL    HW250600  10.486  12.257  13.161
16235SOL     OW50601   2.696  14.528   7.447
16235SOL    HW150602   2.758  14.519   7.519
16235SOL    HW250603   2.725  14.606   7.399
16236SOL     OW50604   8.066   2.795  10.531
16236SOL    HW150605   8.099   2.706  10.534
16236SOL    HW250606   7.975   2.789  10.561
16237SOL     OW50607   4.921   2.987   3.411
16237SOL    HW150608   4.847   2.926   3.414
16237SOL    HW250609   4.883   3.072   3.433
16238SOL     OW50610   2.936   7.720  10.491
16238SOL    HW150611   2.968   7.632  10.472
16238SOL    HW250612   2.889   7.710  10.574
16239SOL     OW50613   5.593   2.052   6.840
16239SOL    HW150614   5.571   2.025   6.751
16239SOL    HW250615   5.687   2.066   6.838
16240SOL     OW50616   2.295   9.460   2.037
16240SOL    HW150617   2.335   9.538   1.997
16240SOL    HW250618   2.208   9.489   2.064
16241SOL     OW50619  13.291  10.714   5.346
16241SOL    HW150620  13.362  10.779   5.348
16241SOL    HW250621  13.329  10.636   5.385
16242SOL     OW50622  11.846   7.200   3.161
16242SOL    HW150623  11.816   7.266   3.099
16242SOL    HW250624  11.898   7.139   3.107
16243SOL     OW50625   3.146   1.463  14.350
16243SOL    HW150626   3.154   1.429  14.261
16243SOL    HW250627   3.052   1.458  14.369
16244SOL     OW50628   8.814   2.309  14.647
16244SOL    HW150629   8.800   2.245  14.717
16244SOL    HW250630   8.908   2.302  14.627
16245SOL     OW50631   3.451   7.106   4.039
16245SOL    HW150632   3.394   7.102   4.115
16245SOL    HW250633   3.396   7.145   3.970
16246SOL     OW50634  12.451   0.904  13.816
16246SOL    HW150635  12.376   0.868  13.863
16246SOL    HW250636  12.508   0.828  13.801
16247SOL     OW50637   0.290   9.784   8.703
16247SOL    HW150638   0.375   9.771   8.746
16247SOL    HW250639   0.226   9.751   8.766
16248SOL     OW50640  11.226   2.153   5.158
16248SOL    HW150641  11.161   2.121   5.096
16248SOL    HW250642  11.216   2.248   5.156
16249SOL     OW50643   1.084   7.205   7.712
16249SOL    HW150644   1.136   7.125   7.716
16249SOL    HW250645   1.081   7.226   7.619
16250SOL     OW50646   7.115  12.840   8.291
16250SOL    HW150647   7.075  12.854   8.377
16250SOL    HW250648   7.059  12.774   8.250
16251SOL     OW50649   2.773   1.984   3.478
16251SOL    HW150650   2.810   1.938   3.554
16251SOL    HW250651   2.758   2.073   3.509
16252SOL     OW50652  10.072   7.194  10.816
16252SOL    HW150653  10.092   7.235  10.900
16252SOL    HW250654  10.082   7.264  10.752
16253SOL     OW50655   8.582   7.735  14.195
16253SOL    HW150656   8.576   7.805  14.260
16253SOL    HW250657   8.508   7.749  14.137
16254SOL     OW50658   0.065   4.894   7.571
16254SOL    HW150659   0.141   4.944   7.602
16254SOL    HW250660   0.100   4.837   7.502
16255SOL     OW50661   9.545   9.871  12.000
16255SOL    HW150662   9.544   9.943  11.938
16255SOL    HW250663   9.464   9.822  11.983
16256SOL     OW50664   8.668  12.941   0.924
16256SOL    HW150665   8.714  13.023   0.907
16256SOL    HW250666   8.591  12.944   0.867
16257SOL     OW50667  13.089  11.556  11.272
16257SOL    HW150668  13.072  11.650  11.262
16257SOL    HW250669  13.109  11.546  11.365
16258SOL     OW50670  12.910   6.464   4.601
16258SOL    HW150671  12.848   6.391   4.595
16258SOL    HW250672  12.886   6.510   4.681
16259SOL     OW50673   0.493  14.204   6.908
16259SOL    HW150674   0.577  14.226   6.950
16259SOL    HW250675   0.517  14.176   6.820
16260SOL     OW50676   3.985   8.243   9.992
16260SOL    HW150677   4.030   8.268   9.911
16260SOL    HW250678   3.914   8.307  10.001
16261SOL     OW50679   9.927  13.282   5.933
16261SOL    HW150680   9.847  13.243   5.899
16261SOL    HW250681   9.989  13.277   5.861
16262SOL     OW50682   7.376   1.555   0.350
16262SOL    HW150683   7.348   1.629   0.404
16262SOL    HW250684   7.444   1.591   0.294
16263SOL     OW50685   0.204   8.169  12.077
16263SOL    HW150686   0.133   8.230  12.096
16263SOL    HW250687   0.207   8.165  11.981
16264SOL     OW50688   0.446   8.597   4.282
16264SOL    HW150689   0.445   8.679   4.332
16264SOL    HW250690   0.534   8.595   4.243
16265SOL     OW50691   5.918   4.782  13.947
16265SOL    HW150692   5.831   4.747  13.965
16265SOL    HW250693   5.951   4.729  13.874
16266SOL     OW50694   2.898   2.803   0.807
16266SOL    HW150695   2.928   2.886   0.771
16266SOL    HW250696   2.818   2.783   0.759
16267SOL     OW50697   2.986   1.099  10.930
16267SOL    HW150698   2.944   1.105  10.843
16267SOL    HW250699   2.925   1.145  10.988
16268SOL     OW50700   6.059   3.782   5.128
16268SOL    HW150701   6.008   3.761   5.206
16268SOL    HW250702   6.120   3.708   5.119
16269SOL     OW50703   9.362   4.857   3.525
16269SOL    HW150704   9.274   4.890   3.507
16269SOL    HW250705   9.373   4.869   3.620
16270SOL     OW50706   0.552  12.429  13.580
16270SOL    HW150707   0.531  12.522  13.592
16270SOL    HW250708   0.645  12.423  13.602
16271SOL     OW50709   5.935   4.482  13.901
16271SOL    HW150710   6.017   4.448  13.936
16271SOL    HW250711   5.879   4.493  13.978
16272SOL     OW50712   7.655   9.178   0.329
16272SOL    HW150713   7.708   9.150   0.404
16272SOL    HW250714   7.709   9.245   0.286
16273SOL     OW50715   7.429  11.621  12.920
16273SOL    HW150716   7.343  11.650  12.891
16273SOL    HW250717   7.412  11.541  12.970
16274SOL     OW50718   8.908   1.653  10.726
16274SOL    HW150719   8.943   1.565  10.736
16274SOL    HW250720   8.978   1.711  10.755
16275SOL     OW50721  10.399   1.689   6.075
16275SOL    HW150722  10.464   1.742   6.030
16275SOL    HW250723  10.317   1.736   6.062
16276SOL     OW50724   8.962   9.318  11.572
16276SOL    HW150725   9.001   9.341  11.656
16276SOL    HW250726   8.983   9.225  11.561
16277SOL     OW50727  12.960  11.040   1.523
16277SOL    HW150728  12.930  10.950   1.535
16277SOL    HW250729  13.005  11.061   1.605
16278SOL     OW50730   6.273   1.733   3.755
16278SOL    HW150731   6.210   1.710   3.823
16278SOL    HW250732   6.325   1.803   3.793
16279SOL     OW50733   6.502  11.439   3.107
16279SOL    HW150734   6.589  11.404   3.087
16279SOL    HW250735   6.518  11.501   3.179
16280SOL     OW50736  13.004   2.323   5.255
16280SOL    HW150737  13.018   2.236   5.218
16280SOL    HW250738  13.092   2.354   5.277
16281SOL     OW50739  13.835   3.235   0.184
16281SOL    HW150740  13.851   3.186   0.265
16281SOL    HW250741  13.906   3.208   0.126
16282SOL     OW50742   2.535   1.494   3.032
16282SOL    HW150743   2.573   1.578   3.008
16282SOL    HW250744   2.529   1.496   3.127
16283SOL     OW50745  13.168  13.671  13.662
16283SOL    HW150746  13.254  13.700  13.693
16283SOL    HW250747  13.186  13.588  13.617
16284SOL     OW50748   1.652   0.453   7.303
16284SOL    HW150749   1.557   0.463   7.296
16284SOL    HW250750   1.675   0.392   7.234
16285SOL     OW50751   5.068  10.594  11.887
16285SOL    HW150752   5.123  10.632  11.819
16285SOL    HW250753   5.011  10.533  11.840
16286SOL     OW50754  14.665   7.690   8.917
16286SOL    HW150755  14.606   7.688   8.992
16286SOL    HW250756  14.623   7.635   8.851
16287SOL     OW50757   7.605   5.414  11.577
16287SOL    HW150758   7.690   5.446  11.546
16287SOL    HW250759   7.552   5.406  11.497
16288SOL     OW50760   6.434   0.828   9.023
16288SOL    HW150761   6.501   0.867   8.968
16288SOL    HW250762   6.466   0.739   9.042
16289SOL     OW50763   8.135   0.992  12.765
16289SOL    HW150764   8.112   0.905  12.798
16289SOL    HW250765   8.229   0.988  12.752
16290SOL     OW50766  10.488  10.885   1.319
16290SOL    HW150767  10.492  10.805   1.372
16290SOL    HW250768  10.506  10.855   1.230
16291SOL     OW50769   0.467  12.153   3.089
16291SOL    HW150770   0.431  12.081   3.141
16291SOL    HW250771   0.534  12.113   3.035
16292SOL     OW50772   5.059   5.243  13.163
16292SOL    HW150773   5.120   5.316  13.168
16292SOL    HW250774   5.094   5.178  13.224
16293SOL     OW50775   8.590  11.266   3.519
16293SOL    HW150776   8.558  11.334   3.579
16293SOL    HW250777   8.600  11.311   3.435
16294SOL     OW50778   4.174   5.613   6.417
16294SOL    HW150779   4.250   5.604   6.474
16294SOL    HW250780   4.111   5.665   6.468
16295SOL     OW50781   4.174   5.270   7.219
16295SOL    HW150782   4.170   5.359   7.185
16295SOL    HW250783   4.248   5.230   7.174
16296SOL     OW50784   4.272   9.287   2.549
16296SOL    HW150785   4.298   9.201   2.519
16296SOL    HW250786   4.331   9.307   2.622
16297SOL     OW50787  10.003  10.323   0.489
16297SOL    HW150788  10.077  10.265   0.469
16297SOL    HW250789   9.927  10.276   0.454
16298SOL     OW50790   9.311   2.365  10.797
16298SOL    HW150791   9.341   2.428  10.731
16298SOL    HW250792   9.341   2.402  10.880
16299SOL     OW50793   6.129  13.587   7.582
16299SOL    HW150794   6.038  13.597   7.613
16299SOL    HW250795   6.122  13.534   7.503
16300SOL     OW50796   9.412   0.441   6.414
16300SOL    HW150797   9.324   0.471   6.389
16300SOL    HW250798   9.404   0.346   6.420
16301SOL     OW50799   9.315  14.674   4.656
16301SOL    HW150800   9.266  14.609   4.606
16301SOL    HW250801   9.402  14.676   4.616
16302SOL     OW50802   9.705  14.191  12.744
16302SOL    HW150803   9.785  14.145  12.718
16302SOL    HW250804   9.733  14.249  12.814
16303SOL     OW50805   8.340  11.443  12.089
16303SOL    HW150806   8.376  11.381  12.153
16303SOL    HW250807   8.339  11.527  12.134
16304SOL     OW50808   0.670  14.213   7.443
16304SOL    HW150809   0.707  14.150   7.381
16304SOL    HW250810   0.594  14.249   7.397
16305SOL     OW50811   7.663  13.732  11.190
16305SOL    HW150812   7.642  13.731  11.096
16305SOL    HW250813   7.597  13.675  11.230
16306SOL     OW50814   4.180   5.149   8.707
16306SOL    HW150815   4.156   5.181   8.620
16306SOL    HW250816   4.117   5.078   8.724
16307SOL     OW50817  11.550   2.512   6.293
16307SOL    HW150818  11.558   2.467   6.377
16307SOL    HW250819  11.632   2.493   6.248
16308SOL     OW50820   1.188   6.925   6.508
16308SOL    HW150821   1.275   6.941   6.544
16308SOL    HW250822   1.193   6.953   6.417
16309SOL     OW50823   2.289  12.625  10.442
16309SOL    HW150824   2.358  12.584  10.390
16309SOL    HW250825   2.235  12.672  10.378
16310SOL     OW50826   9.840   7.320   5.509
16310SOL    HW150827   9.804   7.311   5.421
16310SOL    HW250828   9.811   7.407   5.538
16311SOL     OW50829   1.283  13.000   8.995
16311SOL    HW150830   1.260  13.051   8.917
16311SOL    HW250831   1.269  12.909   8.968
16312SOL     OW50832  10.258  12.774   7.897
16312SOL    HW150833  10.328  12.808   7.952
16312SOL    HW250834  10.305  12.731   7.824
16313SOL     OW50835   0.304   7.467   1.057
16313SOL    HW150836   0.333   7.394   1.111
16313SOL    HW250837   0.212   7.478   1.079
16314SOL     OW50838  14.388   7.098   1.718
16314SOL    HW150839  14.354   7.009   1.719
16314SOL    HW250840  14.482   7.087   1.703
16315SOL     OW50841   2.859   2.058   8.211
16315SOL    HW150842   2.906   2.100   8.140
16315SOL    HW250843   2.832   1.973   8.175
16316SOL     OW50844   4.688   3.163  14.210
16316SOL    HW150845   4.667   3.212  14.131
16316SOL    HW250846   4.710   3.230  14.275
16317SOL     OW50847   0.940   2.666   3.862
16317SOL    HW150848   0.865   2.694   3.915
16317SOL    HW250849   1.002   2.739   3.869
16318SOL     OW50850   1.191   2.585   7.878
16318SOL    HW150851   1.210   2.516   7.942
16318SOL    HW250852   1.135   2.646   7.925
16319SOL     OW50853  12.049   3.839  10.126
16319SOL    HW150854  11.975   3.838  10.066
16319SOL    HW250855  12.094   3.756  10.109
16320SOL     OW50856  12.699   0.644   7.572
16320SOL    HW150857  12.700   0.736   7.595
16320SOL    HW250858  12.666   0.600   7.650
16321SOL     OW50859   8.168   0.431  11.035
16321SOL    HW150860   8.202   0.516  11.007
16321SOL    HW250861   8.143   0.445  11.127
16322SOL     OW50862  11.126   4.071   9.848
16322SOL    HW150863  11.052   4.011   9.852
16322SOL    HW250864  11.091   4.155   9.880
16323SOL     OW50865   2.937   0.248   2.439
16323SOL    HW150866   2.949   0.225   2.531
16323SOL    HW250867   3.001   0.318   2.424
16324SOL     OW50868  11.268  10.954  10.106
16324SOL    HW150869  11.242  10.915  10.190
16324SOL    HW250870  11.233  10.894  10.040
16325SOL     OW50871   5.599  14.119   0.014
16325SOL    HW150872   5.574  14.203  14.855
16325SOL    HW250873   5.691  14.129   0.036
16326SOL     OW50874   5.383   7.201  11.453
16326SOL    HW150875   5.365   7.107  11.442
16326SOL    HW250876   5.330   7.243  11.386
16327SOL     OW50877   3.592   7.840   8.391
16327SOL    HW150878   3.534   7.823   8.466
16327SOL    HW250879   3.663   7.776   8.402
16328SOL     OW50880  11.012  12.356  11.855
16328SOL    HW150881  10.918  12.349  11.870
16328SOL    HW250882  11.025  12.447  11.827
16329SOL     OW50883  10.747   6.799   1.157
16329SOL    HW150884  10.730   6.875   1.213
16329SOL    HW250885  10.686   6.732   1.188
16330SOL     OW50886   2.576  12.747   4.862
16330SOL    HW150887   2.604  12.684   4.928
16330SOL    HW250888   2.498  12.707   4.822
16331SOL     OW50889   0.940  14.758  11.039
16331SOL    HW150890   0.914  14.676  10.999
16331SOL    HW250891   0.857  14.801  11.062
16332SOL     OW50892  14.290   3.228   8.369
16332SOL    HW150893  14.284   3.305   8.311
16332SOL    HW250894  14.324   3.263   8.451
16333SOL     OW50895   7.170  10.586   1.196
16333SOL    HW150896   7.212  10.509   1.234
16333SOL    HW250897   7.081  10.557   1.176
16334SOL     OW50898   8.247   1.409   0.421
16334SOL    HW150899   8.229   1.499   0.448
16334SOL    HW250900   8.263   1.415   0.327
16335SOL     OW50901  13.062   1.028   8.416
16335SOL    HW150902  13.069   0.995   8.326
16335SOL    HW250903  13.153   1.041   8.444
16336SOL     OW50904   1.076   9.185   2.262
16336SOL    HW150905   1.169   9.181   2.239
16336SOL    HW250906   1.072   9.246   2.335
16337SOL     OW50907  14.048   8.655   7.792
16337SOL    HW150908  14.042   8.578   7.848
16337SOL    HW250909  13.983   8.716   7.828
16338SOL     OW50910   0.655   3.003   8.545
16338SOL    HW150911   0.657   2.996   8.640
16338SOL    HW250912   0.575   2.956   8.519
16339SOL     OW50913  10.603  13.194  10.165
16339SOL    HW150914  10.601  13.183  10.070
16339SOL    HW250915  10.619  13.106  10.199
16340SOL     OW50916  11.278   9.777  13.206
16340SOL    HW150917  11.248   9.686  13.204
16340SOL    HW250918  11.210   9.826  13.160
16341SOL     OW50919  14.219   0.047   4.671
16341SOL    HW150920  14.265   0.114   4.722
16341SOL    HW250921  14.283  14.856   4.662
16342SOL     OW50922  12.256   6.288   4.042
16342SOL    HW150923  12.297   6.335   4.115
16342SOL    HW250924  12.165   6.318   4.042
16343SOL     OW50925  12.716   4.615   2.548
16343SOL    HW150926  12.770   4.670   2.605
16343SOL    HW250927  12.703   4.668   2.469
16344SOL     OW50928   4.319   3.982   2.906
16344SOL    HW150929   4.297   4.069   2.873
16344SOL    HW250930   4.352   3.998   2.994
16345SOL     OW50931  10.408  13.614   0.783
16345SOL    HW150932  10.440  13.534   0.742
16345SOL    HW250933  10.487  13.663   0.805
16346SOL     OW50934   3.357  10.089   6.031
16346SOL    HW150935   3.344   9.996   6.047
16346SOL    HW250936   3.395  10.093   5.943
16347SOL     OW50937   9.110   6.664   0.905
16347SOL    HW150938   9.130   6.625   0.990
16347SOL    HW250939   9.015   6.675   0.905
16348SOL     OW50940   2.201  14.774   3.208
16348SOL    HW150941   2.222  14.866   3.222
16348SOL    HW250942   2.211  14.734   3.295
16349SOL     OW50943   8.814  11.068   2.727
16349SOL    HW150944   8.812  11.059   2.632
16349SOL    HW250945   8.848  11.157   2.742
16350SOL     OW50946   2.843  12.052   0.909
16350SOL    HW150947   2.847  11.957   0.900
16350SOL    HW250948   2.823  12.066   1.002
16351SOL     OW50949   8.267   6.179   1.572
16351SOL    HW150950   8.173   6.185   1.593
16351SOL    HW250951   8.306   6.254   1.616
16352SOL     OW50952  11.617   0.162   8.187
16352SOL    HW150953  11.578   0.166   8.275
16352SOL    HW250954  11.655   0.249   8.174
16353SOL     OW50955   0.363   1.408  11.550
16353SOL    HW150956   0.371   1.473  11.619
16353SOL    HW250957   0.370   1.324  11.596
16354SOL     OW50958   9.653  12.537   8.683
16354SOL    HW150959   9.702  12.456   8.696
16354SOL    HW250960   9.588  12.538   8.754
16355SOL     OW50961   1.455   8.971   3.115
16355SOL    HW150962   1.482   8.884   3.144
16355SOL    HW250963   1.421   8.957   3.026
16356SOL     OW50964  13.734   5.776  10.179
16356SOL    HW150965  13.638   5.779  10.183
16356SOL    HW250966  13.758   5.701  10.233
16357SOL     OW50967   0.951  12.218   1.914
16357SOL    HW150968   0.973  12.131   1.947
16357SOL    HW250969   0.857  12.226   1.932
16358SOL     OW50970   8.622   5.009   5.217
16358SOL    HW150971   8.563   5.059   5.274
16358SOL    HW250972   8.585   5.019   5.130
16359SOL     OW50973  13.377   2.625   7.863
16359SOL    HW150974  13.334   2.698   7.909
16359SOL    HW250975  13.367   2.551   7.922
16360SOL     OW50976  12.505  12.920   9.656
16360SOL    HW150977  12.440  12.969   9.605
16360SOL    HW250978  12.459  12.898   9.738
16361SOL     OW50979   9.302   8.135   3.529
16361SOL    HW150980   9.317   8.205   3.593
16361SOL    HW250981   9.390   8.104   3.506
16362SOL     OW50982  13.077  13.257  11.452
16362SOL    HW150983  13.062  13.343  11.411
16362SOL    HW250984  13.173  13.248  11.452
16363SOL     OW50985   0.447   1.805  12.339
16363SOL    HW150986   0.500   1.748  12.395
16363SOL    HW250987   0.472   1.780  12.250
16364SOL     OW50988   1.240  13.447   8.866
16364SOL    HW150989   1.333  13.437   8.847
16364SOL    HW250990   1.205  13.494   8.791
16365SOL     OW50991   0.742   0.489   4.533
16365SOL    HW150992   0.805   0.524   4.470
16365SOL    HW250993   0.792   0.426   4.585
16366SOL     OW50994   7.469  12.833  14.090
16366SOL    HW150995   7.439  12.793  14.172
16366SOL    HW250996   7.520  12.765  14.047
16367SOL     OW50997  11.876   2.956  11.183
16367SOL    HW150998  11.923   2.876  11.204
16367SOL    HW250999  11.926   3.025  11.228
16368SOL     OW51000   0.216   5.891   6.511
16368SOL    HW151001   0.201   5.833   6.436
16368SOL    HW251002   0.258   5.968   6.474
16369SOL     OW51003  11.136   8.377  13.623
16369SOL    HW151004  11.173   8.359  13.537
16369SOL    HW251005  11.071   8.446  13.607
16370SOL     OW51006   0.889   6.028   5.760
16370SOL    HW151007   0.917   6.108   5.804
16370SOL    HW251008   0.825   6.057   5.695
16371SOL     OW51009  11.191  11.004   6.497
16371SOL    HW151010  11.139  11.079   6.526
16371SOL    HW251011  11.130  10.931   6.496
16372SOL     OW51012   6.717  12.736   9.589
16372SOL    HW151013   6.740  12.817   9.635
16372SOL    HW251014   6.794  12.680   9.597
16373SOL     OW51015   0.645   7.909   0.579
16373SOL    HW151016   0.642   7.850   0.654
16373SOL    HW251017   0.639   7.997   0.617
16374SOL     OW51018   2.280  12.402   1.143
16374SOL    HW151019   2.309  12.358   1.223
16374SOL    HW251020   2.228  12.476   1.174
16375SOL     OW51021   2.768  12.828   4.581
16375SOL    HW151022   2.755  12.818   4.487
16375SOL    HW251023   2.708  12.898   4.606
16376SOL     OW51024  10.312   6.936   2.711
16376SOL    HW151025  10.261   6.912   2.634
16376SOL    HW251026  10.282   7.024   2.733
16377SOL     OW51027   1.413   5.607  10.298
16377SOL    HW151028   1.459   5.523  10.298
16377SOL    HW251029   1.458   5.658  10.365
16378SOL     OW51030   1.105   8.724   5.595
16378SOL    HW151031   1.059   8.646   5.563
16378SOL    HW251032   1.036   8.782   5.627
16379SOL     OW51033   6.651   0.959  10.522
16379SOL    HW151034   6.610   0.931  10.604
16379SOL    HW251035   6.677   1.050  10.539
16380SOL     OW51036  13.021   5.947  12.141
16380SOL    HW151037  13.004   5.853  12.154
16380SOL    HW251038  13.033   5.957  12.047
16381SOL     OW51039   9.153   9.959   1.047
16381SOL    HW151040   9.192  10.015   1.114
16381SOL    HW251041   9.176  10.001   0.964
16382SOL     OW51042  11.899   9.159   5.666
16382SOL    HW151043  11.864   9.143   5.578
16382SOL    HW251044  11.953   9.082   5.685
16383SOL     OW51045   4.317   6.093   6.679
16383SOL    HW151046   4.386   6.072   6.742
16383SOL    HW251047   4.362   6.093   6.594
16384SOL     OW51048   7.129   7.890   7.954
16384SOL    HW151049   7.051   7.906   7.901
16384SOL    HW251050   7.189   7.960   7.928
16385SOL     OW51051   6.871  13.391   9.832
16385SOL    HW151052   6.793  13.384   9.777
16385SOL    HW251053   6.882  13.484   9.848
16386SOL     OW51054   0.977  12.150   6.516
16386SOL    HW151055   0.967  12.189   6.429
16386SOL    HW251056   0.968  12.224   6.577
16387SOL     OW51057  11.461   3.411   3.466
16387SOL    HW151058  11.533   3.348   3.469
16387SOL    HW251059  11.414   3.392   3.385
16388SOL     OW51060   0.183   1.365   4.167
16388SOL    HW151061   0.233   1.446   4.170
16388SOL    HW251062   0.236   1.306   4.114
16389SOL     OW51063   3.844  13.025   5.357
16389SOL    HW151064   3.750  13.019   5.374
16389SOL    HW251065   3.883  12.954   5.408
16390SOL     OW51066   0.492   0.822   7.748
16390SOL    HW151067   0.461   0.880   7.678
16390SOL    HW251068   0.492   0.734   7.708
16391SOL     OW51069   4.207   0.207   9.820
16391SOL    HW151070   4.261   0.280   9.788
16391SOL    HW251071   4.138   0.199   9.754
16392SOL     OW51072  12.599   6.373   2.292
16392SOL    HW151073  12.510   6.359   2.325
16392SOL    HW251074  12.605   6.467   2.277
16393SOL     OW51075   6.515   9.712   8.372
16393SOL    HW151076   6.551   9.771   8.438
16393SOL    HW251077   6.588   9.655   8.349
16394SOL     OW51078   6.738   5.483  11.394
16394SOL    HW151079   6.779   5.569  11.401
16394SOL    HW251080   6.647   5.498  11.421
16395SOL     OW51081   2.966  14.325  12.471
16395SOL    HW151082   2.981  14.381  12.547
16395SOL    HW251083   3.022  14.249  12.486
16396SOL     OW51084  10.478   0.395   0.340
16396SOL    HW151085  10.572   0.405   0.321
16396SOL    HW251086  10.475   0.330   0.411
16397SOL     OW51087   8.134  10.270   6.633
16397SOL    HW151088   8.200  10.254   6.566
16397SOL    HW251089   8.051  10.248   6.592
16398SOL     OW51090   1.951   5.776  12.120
16398SOL    HW151091   1.889   5.816  12.182
16398SOL    HW251092   1.955   5.684  12.148
16399SOL     OW51093   6.560   6.497  14.579
16399SOL    HW151094   6.568   6.412  14.622
16399SOL    HW251095   6.494   6.484  14.511
16400SOL     OW51096   0.657   5.062   5.446
16400SOL    HW151097   0.583   5.004   5.427
16400SOL    HW251098   0.734   5.007   5.432
16401SOL     OW51099  13.798   4.945  13.072
16401SOL    HW151100  13.877   4.892  13.057
16401SOL    HW251101  13.816   4.992  13.153
16402SOL     OW51102   1.812   6.180   5.117
16402SOL    HW151103   1.866   6.256   5.139
16402SOL    HW251104   1.722   6.211   5.127
16403SOL     OW51105   1.855  14.735   7.318
16403SOL    HW151106   1.918  14.777   7.377
16403SOL    HW251107   1.819  14.663   7.370
16404SOL     OW51108   2.668   7.118   0.660
16404SOL    HW151109   2.710   7.080   0.737
16404SOL    HW251110   2.719   7.197   0.642
16405SOL     OW51111  10.207  14.235  13.274
16405SOL    HW151112  10.166  14.291  13.208
16405SOL    HW251113  10.275  14.290  13.313
16406SOL     OW51114   4.649   8.845   2.135
16406SOL    HW151115   4.718   8.787   2.103
16406SOL    HW251116   4.673   8.861   2.227
16407SOL     OW51117  12.043   9.673  13.976
16407SOL    HW151118  12.090   9.757  13.974
16407SOL    HW251119  12.097   9.614  13.923
16408SOL     OW51120   8.860   0.820  11.435
16408SOL    HW151121   8.930   0.882  11.454
16408SOL    HW251122   8.792   0.874  11.392
16409SOL     OW51123   7.621   9.126   9.863
16409SOL    HW151124   7.567   9.149   9.787
16409SOL    HW251125   7.685   9.063   9.829
16410SOL     OW51126  14.620  14.497  12.498
16410SOL    HW151127  14.606  14.414  12.544
16410SOL    HW251128  14.536  14.514  12.455
16411SOL     OW51129   9.695   5.555  11.398
16411SOL    HW151130   9.717   5.640  11.435
16411SOL    HW251131   9.772   5.528  11.350
16412SOL     OW51132   7.878   5.933   4.908
16412SOL    HW151133   7.940   5.935   4.980
16412SOL    HW251134   7.794   5.959   4.947
16413SOL     OW51135   2.624   4.378   5.324
16413SOL    HW151136   2.631   4.284   5.309
16413SOL    HW251137   2.665   4.417   5.247
16414SOL     OW51138  10.900   5.625   6.547
16414SOL    HW151139  10.971   5.688   6.561
16414SOL    HW251140  10.831   5.654   6.608
16415SOL     OW51141  11.075  11.609   1.288
16415SOL    HW151142  11.083  11.702   1.307
16415SOL    HW251143  11.164  11.582   1.265
16416SOL     OW51144   0.530  12.743   5.116
16416SOL    HW151145   0.443  12.704   5.125
16416SOL    HW251146   0.521  12.831   5.154
16417SOL     OW51147   3.717  12.095   7.764
16417SOL    HW151148   3.678  12.031   7.705
16417SOL    HW251149   3.807  12.063   7.778
16418SOL     OW51150   4.186   8.314   2.059
16418SOL    HW151151   4.153   8.306   1.970
16418SOL    HW251152   4.223   8.229   2.080
16419SOL     OW51153   7.584   8.486   7.911
16419SOL    HW151154   7.587   8.487   7.816
16419SOL    HW251155   7.542   8.403   7.933
16420SOL     OW51156   0.974   1.321  11.672
16420SOL    HW151157   1.037   1.290  11.606
16420SOL    HW251158   0.919   1.244  11.690
16421SOL     OW51159   5.588   7.001   1.645
16421SOL    HW151160   5.596   6.939   1.717
16421SOL    HW251161   5.533   7.071   1.680
16422SOL     OW51162  10.515   0.423   9.653
16422SOL    HW151163  10.503   0.424   9.558
16422SOL    HW251164  10.585   0.487   9.669
16423SOL     OW51165   0.663  13.510   9.241
16423SOL    HW151166   0.606  13.438   9.265
16423SOL    HW251167   0.690  13.548   9.325
16424SOL     OW51168  14.739   5.921   0.827
16424SOL    HW151169  14.789   5.847   0.861
16424SOL    HW251170  14.651   5.887   0.813
16425SOL     OW51171   6.241   7.916   2.612
16425SOL    HW151172   6.269   7.893   2.523
16425SOL    HW251173   6.223   8.010   2.608
16426SOL     OW51174   9.853   3.896   9.612
16426SOL    HW151175   9.876   3.925   9.524
16426SOL    HW251176   9.847   3.801   9.606
16427SOL     OW51177  14.618   7.990   1.614
16427SOL    HW151178  14.542   8.014   1.667
16427SOL    HW251179  14.691   8.038   1.654
16428SOL     OW51180  13.553  10.096   9.286
16428SOL    HW151181  13.648  10.091   9.272
16428SOL    HW251182  13.537  10.041   9.363
16429SOL     OW51183   9.274   9.253  10.134
16429SOL    HW151184   9.190   9.245  10.180
16429SOL    HW251185   9.264   9.332  10.080
16430SOL     OW51186   8.604   2.686  14.828
16430SOL    HW151187   8.584   2.654  14.740
16430SOL    HW251188   8.576   2.777  14.828
16431SOL     OW51189   4.194   2.413   9.060
16431SOL    HW151190   4.099   2.416   9.046
16431SOL    HW251191   4.206   2.344   9.124
16432SOL     OW51192   3.316   3.630  11.449
16432SOL    HW151193   3.410   3.619  11.431
16432SOL    HW251194   3.289   3.547  11.488
16433SOL     OW51195   3.152   3.290   5.267
16433SOL    HW151196   3.095   3.311   5.341
16433SOL    HW251197   3.236   3.331   5.288
16434SOL     OW51198   3.176  11.090   2.440
16434SOL    HW151199   3.137  11.004   2.457
16434SOL    HW251200   3.122  11.151   2.489
16435SOL     OW51201   4.563   3.458   1.591
16435SOL    HW151202   4.635   3.396   1.582
16435SOL    HW251203   4.583   3.526   1.526
16436SOL     OW51204   9.893   8.356   1.761
16436SOL    HW151205   9.813   8.355   1.813
16436SOL    HW251206   9.889   8.275   1.710
16437SOL     OW51207   5.185   2.894   3.360
16437SOL    HW151208   5.147   2.850   3.284
16437SOL    HW251209   5.110   2.920   3.413
16438SOL     OW51210   4.384   9.712   7.381
16438SOL    HW151211   4.305   9.668   7.349
16438SOL    HW251212   4.444   9.641   7.402
16439SOL     OW51213  10.444   1.107   2.906
16439SOL    HW151214  10.422   1.073   2.993
16439SOL    HW251215  10.365   1.152   2.877
16440SOL     OW51216   1.551  10.213   4.708
16440SOL    HW151217   1.527  10.291   4.659
16440SOL    HW251218   1.489  10.210   4.781
16441SOL     OW51219   3.376   9.195   1.788
16441SOL    HW151220   3.322   9.239   1.853
16441SOL    HW251221   3.347   9.104   1.789
16442SOL     OW51222   3.815   8.032   6.082
16442SOL    HW151223   3.799   7.962   6.146
16442SOL    HW251224   3.871   7.990   6.016
16443SOL     OW51225   4.600   5.764   4.531
16443SOL    HW151226   4.514   5.765   4.574
16443SOL    HW251227   4.608   5.675   4.497
16444SOL     OW51228   8.228  14.226   7.439
16444SOL    HW151229   8.270  14.274   7.367
16444SOL    HW251230   8.149  14.188   7.401
16445SOL     OW51231   4.025   2.236  13.414
16445SOL    HW151232   3.987   2.234  13.326
16445SOL    HW251233   4.023   2.328  13.440
16446SOL     OW51234   0.790  14.539  13.377
16446SOL    HW151235   0.884  14.553  13.372
16446SOL    HW251236   0.761  14.594  13.451
16447SOL     OW51237   5.713   3.289   7.474
16447SOL    HW151238   5.640   3.228   7.476
16447SOL    HW251239   5.737   3.300   7.566
16448SOL     OW51240   2.698   6.007   5.411
16448SOL    HW151241   2.608   5.997   5.443
16448SOL    HW251242   2.727   6.091   5.447
16449SOL     OW51243   6.254   4.660   5.901
16449SOL    HW151244   6.291   4.574   5.924
16449SOL    HW251245   6.330   4.715   5.884
16450SOL     OW51246   1.860   3.353   3.970
16450SOL    HW151247   1.901   3.428   3.928
16450SOL    HW251248   1.898   3.277   3.926
16451SOL     OW51249   6.351   1.935   0.506
16451SOL    HW151250   6.408   1.897   0.572
16451SOL    HW251251   6.401   1.928   0.424
16452SOL     OW51252   6.011  11.843   5.884
16452SOL    HW151253   5.995  11.762   5.835
16452SOL    HW251254   6.090  11.880   5.844
16453SOL     OW51255   7.330   2.564   5.458
16453SOL    HW151256   7.386   2.641   5.447
16453SOL    HW251257   7.373   2.513   5.527
16454SOL     OW51258   5.867   0.292   3.848
16454SOL    HW151259   5.849   0.283   3.755
16454SOL    HW251260   5.925   0.219   3.869
16455SOL     OW51261  11.186   6.327  13.556
16455SOL    HW151262  11.274   6.296  13.576
16455SOL    HW251263  11.197   6.420  13.537
16456SOL     OW51264   2.521   6.886  11.111
16456SOL    HW151265   2.444   6.942  11.113
16456SOL    HW251266   2.573   6.920  11.038
16457SOL     OW51267  11.226   8.657  12.944
16457SOL    HW151268  11.149   8.710  12.960
16457SOL    HW251269  11.293   8.691  13.003
16458SOL     OW51270   7.559   6.768   9.743
16458SOL    HW151271   7.601   6.832   9.685
16458SOL    HW251272   7.574   6.683   9.701
16459SOL     OW51273  13.876   3.128   0.432
16459SOL    HW151274  13.891   3.077   0.511
16459SOL    HW251275  13.836   3.209   0.462
16460SOL     OW51276   4.612  14.032   2.895
16460SOL    HW151277   4.670  14.085   2.950
16460SOL    HW251278   4.623  14.069   2.807
16461SOL     OW51279   6.868   4.687   6.464
16461SOL    HW151280   6.861   4.779   6.489
16461SOL    HW251281   6.962   4.670   6.458
16462SOL     OW51282   1.977   0.141   8.002
16462SOL    HW151283   2.037   0.207   7.966
16462SOL    HW251284   2.033   0.068   8.025
16463SOL     OW51285  13.656  12.614   2.156
16463SOL    HW151286  13.711  12.634   2.081
16463SOL    HW251287  13.591  12.684   2.158
16464SOL     OW51288  11.486   0.414  11.668
16464SOL    HW151289  11.577   0.391  11.689
16464SOL    HW251290  11.493   0.476  11.595
16465SOL     OW51291   2.163   4.512   7.628
16465SOL    HW151292   2.202   4.452   7.692
16465SOL    HW251293   2.237   4.566   7.599
16466SOL     OW51294   0.584   0.006   2.726
16466SOL    HW151295   0.647   0.003   2.654
16466SOL    HW251296   0.498   0.005   2.683
16467SOL     OW51297  13.211  10.911   2.156
16467SOL    HW151298  13.277  10.968   2.194
16467SOL    HW251299  13.167  10.871   2.232
16468SOL     OW51300   4.032  11.632   1.466
16468SOL    HW151301   4.078  11.637   1.382
16468SOL    HW251302   3.941  11.651   1.445
16469SOL     OW51303  14.052   1.877   6.838
16469SOL    HW151304  14.145   1.894   6.850
16469SOL    HW251305  14.016   1.880   6.927
16470SOL     OW51306  12.617  13.821  11.053
16470SOL    HW151307  12.623  13.853  11.143
16470SOL    HW251308  12.685  13.869  11.006
16471SOL     OW51309   9.426   4.255  11.784
16471SOL    HW151310   9.498   4.233  11.844
16471SOL    HW251311   9.347   4.241  11.836
16472SOL     OW51312   0.574  10.657   6.382
16472SOL    HW151313   0.536  10.625   6.300
16472SOL    HW251314   0.573  10.752   6.374
16473SOL     OW51315   0.315   6.602   2.978
16473SOL    HW151316   0.247   6.562   2.925
16473SOL    HW251317   0.376   6.530   2.997
16474SOL     OW51318  11.090  13.344   2.703
16474SOL    HW151319  11.123  13.354   2.613
16474SOL    HW251320  11.103  13.430   2.743
16475SOL     OW51321   6.381   1.697   6.161
16475SOL    HW151322   6.290   1.716   6.182
16475SOL    HW251323   6.396   1.609   6.195
16476SOL     OW51324   7.969   2.839  11.595
16476SOL    HW151325   7.964   2.925  11.637
16476SOL    HW251326   7.920   2.849  11.513
16477SOL     OW51327   5.088  14.322   6.848
16477SOL    HW151328   5.151  14.250   6.840
16477SOL    HW251329   5.110  14.364   6.931
16478SOL     OW51330   2.926  13.075   8.896
16478SOL    HW151331   2.948  13.062   8.804
16478SOL    HW251332   2.918  13.170   8.905
16479SOL     OW51333  10.926   0.140  11.048
16479SOL    HW151334  10.961   0.060  11.009
16479SOL    HW251335  10.844   0.155  11.002
16480SOL     OW51336   2.551   0.093   8.456
16480SOL    HW151337   2.575   0.133   8.540
16480SOL    HW251338   2.593   0.007   8.457
16481SOL     OW51339   6.733   9.310   7.267
16481SOL    HW151340   6.809   9.362   7.244
16481SOL    HW251341   6.691   9.291   7.183
16482SOL     OW51342  10.355   0.979  11.308
16482SOL    HW151343  10.396   1.042  11.249
16482SOL    HW251344  10.304   0.921  11.251
16483SOL     OW51345   5.450   8.852   5.797
16483SOL    HW151346   5.408   8.806   5.870
16483SOL    HW251347   5.410   8.938   5.796
16484SOL     OW51348   7.267   1.663   1.620
16484SOL    HW151349   7.345   1.706   1.585
16484SOL    HW251350   7.199   1.682   1.556
16485SOL     OW51351   4.880   7.873   4.016
16485SOL    HW151352   4.834   7.894   4.097
16485SOL    HW251353   4.878   7.778   4.011
16486SOL     OW51354   2.623   0.544   1.781
16486SOL    HW151355   2.575   0.504   1.709
16486SOL    HW251356   2.629   0.475   1.848
16487SOL     OW51357   6.823   7.175   6.848
16487SOL    HW151358   6.790   7.193   6.760
16487SOL    HW251359   6.797   7.084   6.865
16488SOL     OW51360   0.216   6.976   4.650
16488SOL    HW151361   0.300   6.977   4.695
16488SOL    HW251362   0.168   6.903   4.691
16489SOL     OW51363   2.431   2.291  12.569
16489SOL    HW151364   2.414   2.248  12.653
16489SOL    HW251365   2.456   2.381  12.593
16490SOL     OW51366   8.136   2.233   4.691
16490SOL    HW151367   8.180   2.151   4.713
16490SOL    HW251368   8.135   2.283   4.772
16491SOL     OW51369  13.647   4.170  12.310
16491SOL    HW151370  13.629   4.112  12.384
16491SOL    HW251371  13.596   4.133  12.238
16492SOL     OW51372  14.789   7.548   0.825
16492SOL    HW151373  14.751   7.526   0.740
16492SOL    HW251374  14.720   7.528   0.888
16493SOL     OW51375   0.339   7.554   2.086
16493SOL    HW151376   0.331   7.643   2.052
16493SOL    HW251377   0.273   7.504   2.038
16494SOL     OW51378   8.233   1.659  13.016
16494SOL    HW151379   8.218   1.573  13.056
16494SOL    HW251380   8.154   1.676  12.965
16495SOL     OW51381   4.943   4.921  14.652
16495SOL    HW151382   4.918   4.929  14.560
16495SOL    HW251383   5.036   4.944  14.653
16496SOL     OW51384   4.389   4.847   7.563
16496SOL    HW151385   4.343   4.764   7.551
16496SOL    HW251386   4.480   4.823   7.579
16497SOL     OW51387   2.862   4.968   2.953
16497SOL    HW151388   2.801   4.922   3.011
16497SOL    HW251389   2.815   4.976   2.870
16498SOL     OW51390   6.357  14.876   7.626
16498SOL    HW151391   6.356  14.861   7.532
16498SOL    HW251392   6.286   0.058   7.642
16499SOL     OW51393   4.061  11.412   1.605
16499SOL    HW151394   4.051  11.500   1.568
16499SOL    HW251395   4.122  11.425   1.679
16500SOL     OW51396   6.508  11.011  13.010
16500SOL    HW151397   6.480  11.102  13.024
16500SOL    HW251398   6.493  10.995  12.917
16501SOL     OW51399   8.843  13.930   4.947
16501SOL    HW151400   8.819  13.853   4.999
16501SOL    HW251401   8.798  14.003   4.990
16502SOL     OW51402   4.996   1.923  12.575
16502SOL    HW151403   5.050   1.970  12.639
16502SOL    HW251404   4.970   1.990  12.512
16503SOL     OW51405   6.811  11.082  12.994
16503SOL    HW151406   6.814  10.998  13.041
16503SOL    HW251407   6.735  11.127  13.031
16504SOL     OW51408   4.556  14.534   4.601
16504SOL    HW151409   4.498  14.581   4.541
16504SOL    HW251410   4.512  14.451   4.618
16505SOL     OW51411   7.134   3.748   4.448
16505SOL    HW151412   7.078   3.692   4.394
16505SOL    HW251413   7.126   3.835   4.409
16506SOL     OW51414   2.296   9.557   7.419
16506SOL    HW151415   2.204   9.574   7.401
16506SOL    HW251416   2.300   9.538   7.513
16507SOL     OW51417   9.261   2.904  11.663
16507SOL    HW151418   9.283   2.983  11.614
16507SOL    HW251419   9.210   2.936  11.737
16508SOL     OW51420   0.239   9.575  11.598
16508SOL    HW151421   0.278   9.587  11.685
16508SOL    HW251422   0.309   9.600  11.537
16509SOL     OW51423   0.360  14.812   7.709
16509SOL    HW151424   0.384   0.005   7.767
16509SOL    HW251425   0.378  14.733   7.761
16510SOL     OW51426   0.100   7.364   2.356
16510SOL    HW151427   0.078   7.456   2.368
16510SOL    HW251428   0.164   7.346   2.425
16511SOL     OW51429  13.097   9.986   1.044
16511SOL    HW151430  13.124   9.908   1.093
16511SOL    HW251431  13.061  10.044   1.110
16512SOL     OW51432   4.346   8.389   9.613
16512SOL    HW151433   4.339   8.482   9.595
16512SOL    HW251434   4.357   8.348   9.527
16513SOL     OW51435  12.913   6.242   5.019
16513SOL    HW151436  12.868   6.217   5.100
16513SOL    HW251437  12.947   6.159   4.984
16514SOL     OW51438   8.681   9.501   2.248
16514SOL    HW151439   8.680   9.475   2.156
16514SOL    HW251440   8.643   9.589   2.248
16515SOL     OW51441   3.996   2.529   0.773
16515SOL    HW151442   3.989   2.473   0.696
16515SOL    HW251443   3.918   2.585   0.770
16516SOL     OW51444   4.184  14.648   4.463
16516SOL    HW151445   4.237  14.727   4.463
16516SOL    HW251446   4.132  14.654   4.383
16517SOL     OW51447  10.826   1.811  14.150
16517SOL    HW151448  10.770   1.741  14.184
16517SOL    HW251449  10.915   1.787  14.179
16518SOL     OW51450  13.523  13.008   4.794
16518SOL    HW151451  13.550  13.052   4.875
16518SOL    HW251452  13.591  12.942   4.779
16519SOL     OW51453   8.778   8.153   5.083
16519SOL    HW151454   8.815   8.088   5.024
16519SOL    HW251455   8.732   8.102   5.150
16520SOL     OW51456   3.452  14.860   5.716
16520SOL    HW151457   3.541   0.014   5.706
16520SOL    HW251458   3.400   0.035   5.657
16521SOL     OW51459   5.889   3.967  10.712
16521SOL    HW151460   5.821   3.956  10.646
16521SOL    HW251461   5.904   4.061  10.717
16522SOL     OW51462  10.335   0.262   4.497
16522SOL    HW151463  10.315   0.171   4.520
16522SOL    HW251464  10.249   0.303   4.484
16523SOL     OW51465  14.674   6.906  11.500
16523SOL    HW151466  14.663   6.991  11.542
16523SOL    HW251467  14.639   6.918  11.412
16524SOL     OW51468  13.110   1.341   8.182
16524SOL    HW151469  13.168   1.268   8.206
16524SOL    HW251470  13.132   1.360   8.091
16525SOL     OW51471  14.002  12.253   0.808
16525SOL    HW151472  14.036  12.316   0.744
16525SOL    HW251473  14.042  12.170   0.784
16526SOL     OW51474   3.378   1.038   2.091
16526SOL    HW151475   3.353   1.053   2.183
16526SOL    HW251476   3.471   1.017   2.095
16527SOL     OW51477  10.631  14.449  11.727
16527SOL    HW151478  10.674  14.534  11.743
16527SOL    HW251479  10.564  14.443  11.795
16528SOL     OW51480   9.923   6.023   7.781
16528SOL    HW151481   9.875   5.979   7.711
16528SOL    HW251482   9.857   6.041   7.848
16529SOL     OW51483   2.507   3.379  13.046
16529SOL    HW151484   2.439   3.427  13.093
16529SOL    HW251485   2.563   3.344  13.115
16530SOL     OW51486   3.317   7.320   8.292
16530SOL    HW151487   3.369   7.398   8.271
16530SOL    HW251488   3.280   7.339   8.379
16531SOL     OW51489   6.130   1.131  13.470
16531SOL    HW151490   6.039   1.116  13.446
16531SOL    HW251491   6.139   1.092  13.557
16532SOL     OW51492  10.427   5.953  14.340
16532SOL    HW151493  10.465   6.010  14.273
16532SOL    HW251494  10.450   5.996  14.423
16533SOL     OW51495   2.699   3.317  11.676
16533SOL    HW151496   2.739   3.333  11.590
16533SOL    HW251497   2.639   3.390  11.689
16534SOL     OW51498  12.414   5.088  13.642
16534SOL    HW151499  12.468   5.133  13.576
16534SOL    HW251500  12.326   5.125  13.630
16535SOL     OW51501   4.829  12.916   9.983
16535SOL    HW151502   4.921  12.914  10.011
16535SOL    HW251503   4.821  12.997   9.933
16536SOL     OW51504  11.518  14.349   8.105
16536SOL    HW151505  11.565  14.352   8.022
16536SOL    HW251506  11.516  14.440   8.135
16537SOL     OW51507   3.661   7.265   0.915
16537SOL    HW151508   3.743   7.215   0.920
16537SOL    HW251509   3.615   7.226   0.841
16538SOL     OW51510   0.562   2.478   1.401
16538SOL    HW151511   0.625   2.465   1.471
16538SOL    HW251512   0.479   2.447   1.437
16539SOL     OW51513  14.850   9.254   4.900
16539SOL    HW151514  14.767   9.261   4.853
16539SOL    HW251515  14.825   9.251   4.993
16540SOL     OW51516   8.122  13.602  12.715
16540SOL    HW151517   8.117  13.688  12.674
16540SOL    HW251518   8.125  13.540  12.642
16541SOL     OW51519  11.872   0.336   4.155
16541SOL    HW151520  11.925   0.270   4.110
16541SOL    HW251521  11.871   0.307   4.247
16542SOL     OW51522  13.537  12.311   3.487
16542SOL    HW151523  13.607  12.362   3.447
16542SOL    HW251524  13.467  12.374   3.504
16543SOL     OW51525   5.866   5.274   9.692
16543SOL    HW151526   5.805   5.301   9.761
16543SOL    HW251527   5.865   5.179   9.694
16544SOL     OW51528   5.203   8.551   9.968
16544SOL    HW151529   5.169   8.613   9.903
16544SOL    HW251530   5.126   8.506  10.001
16545SOL     OW51531   9.350  10.839   1.403
16545SOL    HW151532   9.270  10.864   1.450
16545SOL    HW251533   9.393  10.777   1.461
16546SOL     OW51534   5.663  11.898   1.078
16546SOL    HW151535   5.610  11.966   1.120
16546SOL    HW251536   5.601  11.827   1.063
16547SOL     OW51537  11.694  10.072  10.719
16547SOL    HW151538  11.619  10.069  10.659
16547SOL    HW251539  11.726   9.982  10.723
16548SOL     OW51540  14.491  14.203  11.290
16548SOL    HW151541  14.570  14.195  11.236
16548SOL    HW251542  14.466  14.295  11.282
16549SOL     OW51543   1.204   0.260   9.079
16549SOL    HW151544   1.193   0.349   9.046
16549SOL    HW251545   1.298   0.243   9.072
16550SOL     OW51546   9.050   3.851   3.691
16550SOL    HW151547   9.127   3.906   3.705
16550SOL    HW251548   8.976   3.910   3.705
16551SOL     OW51549  13.497  13.975   1.398
16551SOL    HW151550  13.572  13.917   1.416
16551SOL    HW251551  13.537  14.061   1.383
16552SOL     OW51552   9.163  13.469   8.917
16552SOL    HW151553   9.243  13.522   8.917
16552SOL    HW251554   9.097  13.525   8.957
16553SOL     OW51555  12.172   3.865   5.939
16553SOL    HW151556  12.213   3.908   5.864
16553SOL    HW251557  12.143   3.780   5.906
16554SOL     OW51558   3.776  13.452   5.375
16554SOL    HW151559   3.687  13.464   5.410
16554SOL    HW251560   3.802  13.540   5.347
16555SOL     OW51561  14.350  11.136   7.161
16555SOL    HW151562  14.424  11.109   7.107
16555SOL    HW251563  14.358  11.085   7.242
16556SOL     OW51564  10.575   4.029   2.359
16556SOL    HW151565  10.555   4.058   2.448
16556SOL    HW251566  10.534   4.094   2.302
16557SOL     OW51567   3.113   3.111   7.518
16557SOL    HW151568   3.150   3.049   7.580
16557SOL    HW251569   3.031   3.140   7.558
16558SOL     OW51570   9.141   8.869  10.566
16558SOL    HW151571   9.112   8.777  10.572
16558SOL    HW251572   9.101   8.900  10.484
16559SOL     OW51573   9.064   2.551   2.420
16559SOL    HW151574   9.040   2.566   2.512
16559SOL    HW251575   9.109   2.632   2.395
16560SOL     OW51576   2.001   5.117   0.599
16560SOL    HW151577   1.915   5.157   0.612
16560SOL    HW251578   1.982   5.024   0.583
16561SOL     OW51579   8.328   3.981   1.197
16561SOL    HW151580   8.353   4.070   1.221
16561SOL    HW251581   8.338   3.978   1.102
16562SOL     OW51582   0.284  10.506   0.265
16562SOL    HW151583   0.306  10.476   0.353
16562SOL    HW251584   0.229  10.436   0.229
16563SOL     OW51585  14.547   7.609   8.255
16563SOL    HW151586  14.499   7.669   8.198
16563SOL    HW251587  14.634   7.649   8.264
16564SOL     OW51588   8.489  14.781   4.886
16564SOL    HW151589   8.579  14.813   4.889
16564SOL    HW251590   8.436  14.858   4.871
16565SOL     OW51591   5.084  10.901   3.830
16565SOL    HW151592   5.114  10.928   3.743
16565SOL    HW251593   4.994  10.872   3.816
16566SOL     OW51594   5.789   9.285   8.373
16566SOL    HW151595   5.794   9.358   8.435
16566SOL    HW251596   5.701   9.291   8.336
16567SOL     OW51597  12.963  11.499   3.675
16567SOL    HW151598  12.953  11.404   3.668
16567SOL    HW251599  13.009  11.524   3.595
16568SOL     OW51600   6.713   0.048   4.264
16568SOL    HW151601   6.804   0.056   4.290
16568SOL    HW251602   6.674   0.133   4.283
16569SOL     OW51603   4.204  10.959   4.700
16569SOL    HW151604   4.123  11.009   4.713
16569SOL    HW251605   4.241  10.949   4.787
16570SOL     OW51606   4.323  13.277   8.926
16570SOL    HW151607   4.254  13.213   8.946
16570SOL    HW251608   4.299  13.354   8.978
16571SOL     OW51609   7.868  10.470  11.819
16571SOL    HW151610   7.841  10.512  11.737
16571SOL    HW251611   7.922  10.396  11.791
16572SOL     OW51612  11.790   9.973   8.523
16572SOL    HW151613  11.795  10.005   8.613
16572SOL    HW251614  11.706   9.927   8.519
16573SOL     OW51615  13.001   9.172   0.079
16573SOL    HW151616  12.950   9.113   0.134
16573SOL    HW251617  13.077   9.120   0.053
16574SOL     OW51618   1.341   2.139  11.361
16574SOL    HW151619   1.297   2.214  11.401
16574SOL    HW251620   1.353   2.164  11.269
16575SOL     OW51621   9.487   4.123   5.454
16575SOL    HW151622   9.429   4.187   5.412
16575SOL    HW251623   9.464   4.127   5.547
16576SOL     OW51624  10.270  13.480   8.592
16576SOL    HW151625  10.334  13.482   8.663
16576SOL    HW251626  10.320  13.450   8.516
16577SOL     OW51627   7.104  13.171  13.580
16577SOL    HW151628   7.075  13.154  13.490
16577SOL    HW251629   7.024  13.160  13.633
16578SOL     OW51630  12.879  11.987   8.564
16578SOL    HW151631  12.952  11.996   8.624
16578SOL    HW251632  12.916  12.006   8.478
16579SOL     OW51633  10.707   7.289  11.759
16579SOL    HW151634  10.624   7.289  11.713
16579SOL    HW251635  10.773   7.302  11.690
16580SOL     OW51636   3.148   3.181   5.737
16580SOL    HW151637   3.156   3.169   5.831
16580SOL    HW251638   3.218   3.241   5.713
16581SOL     OW51639   9.611   6.279  13.600
16581SOL    HW151640   9.613   6.274  13.695
16581SOL    HW251641   9.690   6.232  13.572
16582SOL     OW51642   2.239  10.188   3.631
16582SOL    HW151643   2.247  10.282   3.648
16582SOL    HW251644   2.310  10.148   3.681
16583SOL     OW51645   8.572   1.400   1.394
16583SOL    HW151646   8.531   1.410   1.480
16583SOL    HW251647   8.642   1.465   1.393
16584SOL     OW51648  14.565   4.290  12.583
16584SOL    HW151649  14.652   4.327  12.573
16584SOL    HW251650  14.540   4.310  12.674
16585SOL     OW51651   4.324   5.312   1.874
16585SOL    HW151652   4.297   5.267   1.954
16585SOL    HW251653   4.364   5.393   1.904
16586SOL     OW51654  10.422   9.639   2.178
16586SOL    HW151655  10.394   9.692   2.104
16586SOL    HW251656  10.433   9.701   2.250
16587SOL     OW51657  10.281   4.811   5.711
16587SOL    HW151658  10.368   4.835   5.681
16587SOL    HW251659  10.289   4.719   5.739
16588SOL     OW51660   1.601   3.249   6.833
16588SOL    HW151661   1.657   3.188   6.880
16588SOL    HW251662   1.527   3.264   6.891
16589SOL     OW51663  12.975  11.066   3.872
16589SOL    HW151664  12.915  10.992   3.870
16589SOL    HW251665  12.922  11.138   3.908
16590SOL     OW51666   8.231   4.618   9.371
16590SOL    HW151667   8.194   4.624   9.282
16590SOL    HW251668   8.168   4.565   9.419
16591SOL     OW51669   7.213   7.503   8.808
16591SOL    HW151670   7.155   7.483   8.882
16591SOL    HW251671   7.275   7.431   8.805
16592SOL     OW51672  13.825  11.413   1.540
16592SOL    HW151673  13.890  11.462   1.590
16592SOL    HW251674  13.856  11.322   1.542
16593SOL     OW51675  12.624  13.204  14.833
16593SOL    HW151676  12.616  13.297  14.855
16593SOL    HW251677  12.552  13.188  14.773
16594SOL     OW51678  12.716  14.355   0.686
16594SOL    HW151679  12.749  14.432   0.639
16594SOL    HW251680  12.651  14.391   0.747
16595SOL     OW51681  12.230   0.049   4.182
16595SOL    HW151682  12.261  14.864   4.119
16595SOL    HW251683  12.222   0.000   4.265
16596SOL     OW51684  13.084  10.158  10.418
16596SOL    HW151685  13.100  10.143  10.324
16596SOL    HW251686  13.121  10.244  10.435
16597SOL     OW51687   5.904  10.794   0.808
16597SOL    HW151688   5.974  10.859   0.801
16597SOL    HW251689   5.847  10.829   0.877
16598SOL     OW51690   3.429   0.151   7.030
16598SOL    HW151691   3.392   0.215   6.970
16598SOL    HW251692   3.414   0.187   7.117
16599SOL     OW51693   9.391   9.971   8.112
16599SOL    HW151694   9.351   9.884   8.107
16599SOL    HW251695   9.372  10.002   8.200
16600SOL     OW51696   3.719   3.500   5.114
16600SOL    HW151697   3.707   3.409   5.141
16600SOL    HW251698   3.682   3.503   5.026
16601SOL     OW51699   1.781   3.502   8.249
16601SOL    HW151700   1.799   3.581   8.197
16601SOL    HW251701   1.691   3.512   8.279
16602SOL     OW51702  11.890   9.474  12.437
16602SOL    HW151703  11.857   9.388  12.465
16602SOL    HW251704  11.861   9.534  12.505
16603SOL     OW51705   4.001  10.197   7.227
16603SOL    HW151706   3.915  10.160   7.244
16603SOL    HW251707   4.060  10.151   7.286
16604SOL     OW51708   7.103   4.640   8.828
16604SOL    HW151709   7.136   4.689   8.903
16604SOL    HW251710   7.172   4.575   8.809
16605SOL     OW51711   0.619   8.397  14.085
16605SOL    HW151712   0.633   8.361  13.997
16605SOL    HW251713   0.539   8.449  14.076
16606SOL     OW51714   4.092   4.780   2.798
16606SOL    HW151715   4.062   4.704   2.748
16606SOL    HW251716   4.160   4.818   2.743
16607SOL     OW51717  12.779   0.871   1.160
16607SOL    HW151718  12.789   0.858   1.066
16607SOL    HW251719  12.712   0.808   1.186
16608SOL     OW51720   4.264   5.831   6.044
16608SOL    HW151721   4.301   5.880   6.117
16608SOL    HW251722   4.221   5.756   6.084
16609SOL     OW51723  13.603  13.105   5.024
16609SOL    HW151724  13.550  13.151   5.090
16609SOL    HW251725  13.693  13.135   5.041
16610SOL     OW51726   8.797  13.539  14.544
16610SOL    HW151727   8.849  13.566  14.468
16610SOL    HW251728   8.764  13.621  14.580
16611SOL     OW51729  10.781   9.025   1.605
16611SOL    HW151730  10.695   8.990   1.629
16611SOL    HW251731  10.772   9.119   1.619
16612SOL     OW51732  13.888   0.381   2.577
16612SOL    HW151733  13.876   0.450   2.512
16612SOL    HW251734  13.971   0.339   2.553
16613SOL     OW51735   4.869   8.010  12.140
16613SOL    HW151736   4.940   8.067  12.167
16613SOL    HW251737   4.796   8.034  12.197
16614SOL     OW51738   7.641   3.180   5.751
16614SOL    HW151739   7.550   3.183   5.781
16614SOL    HW251740   7.692   3.209   5.825
16615SOL     OW51741   7.803  11.535   2.024
16615SOL    HW151742   7.882  11.526   2.077
16615SOL    HW251743   7.825  11.603   1.960
16616SOL     OW51744   3.393  14.474  11.518
16616SOL    HW151745   3.438  14.411  11.574
16616SOL    HW251746   3.307  14.435  11.502
16617SOL     OW51747   1.436   2.650   0.386
16617SOL    HW151748   1.430   2.556   0.401
16617SOL    HW251749   1.524   2.673   0.415
16618SOL     OW51750   4.788   6.264  11.180
16618SOL    HW151751   4.880   6.275  11.204
16618SOL    HW251752   4.758   6.352  11.161
16619SOL     OW51753  11.247   7.502   7.008
16619SOL    HW151754  11.231   7.590   6.974
16619SOL    HW251755  11.290   7.455   6.936
16620SOL     OW51756   8.171   2.771   3.094
16620SOL    HW151757   8.163   2.690   3.145
16620SOL    HW251758   8.216   2.832   3.153
16621SOL     OW51759   1.521   8.520   4.845
16621SOL    HW151760   1.447   8.484   4.795
16621SOL    HW251761   1.594   8.462   4.824
16622SOL     OW51762  14.306  10.799   7.136
16622SOL    HW151763  14.275  10.724   7.187
16622SOL    HW251764  14.333  10.863   7.202
16623SOL     OW51765  12.453   9.969  10.637
16623SOL    HW151766  12.421  10.039  10.580
16623SOL    HW251767  12.497  10.014  10.708
16624SOL     OW51768  14.151   0.209   4.451
16624SOL    HW151769  14.169   0.152   4.525
16624SOL    HW251770  14.115   0.288   4.490
16625SOL     OW51771  11.985   4.116   0.262
16625SOL    HW151772  11.910   4.165   0.296
16625SOL    HW251773  12.016   4.066   0.337
16626SOL     OW51774   1.095   2.496  10.588
16626SOL    HW151775   1.005   2.467  10.581
16626SOL    HW251776   1.102   2.530  10.677
16627SOL     OW51777  11.601  12.193   4.771
16627SOL    HW151778  11.578  12.243   4.693
16627SOL    HW251779  11.671  12.134   4.742
16628SOL     OW51780   3.127   7.409  11.418
16628SOL    HW151781   3.156   7.398  11.508
16628SOL    HW251782   3.205   7.434  11.370
16629SOL     OW51783   0.533   0.479  13.408
16629SOL    HW151784   0.515   0.450  13.319
16629SOL    HW251785   0.462   0.540  13.428
16630SOL     OW51786   5.551  14.315   3.930
16630SOL    HW151787   5.591  14.393   3.891
16630SOL    HW251788   5.610  14.289   4.000
16631SOL     OW51789   7.158   8.375  12.174
16631SOL    HW151790   7.190   8.322  12.247
16631SOL    HW251791   7.215   8.351  12.101
16632SOL     OW51792   4.798  13.394   8.872
16632SOL    HW151793   4.738  13.326   8.903
16632SOL    HW251794   4.805  13.378   8.778
16633SOL     OW51795  12.687   0.907   2.144
16633SOL    HW151796  12.631   0.968   2.193
16633SOL    HW251797  12.625   0.849   2.100
16634SOL     OW51798   8.106   9.199   0.799
16634SOL    HW151799   8.018   9.160   0.802
16634SOL    HW251800   8.112   9.252   0.879
16635SOL     OW51801  12.139   1.557   6.323
16635SOL    HW151802  12.169   1.642   6.354
16635SOL    HW251803  12.056   1.574   6.279
16636SOL     OW51804   8.152   5.255  11.813
16636SOL    HW151805   8.057   5.250  11.805
16636SOL    HW251806   8.168   5.261  11.907
16637SOL     OW51807   8.106   8.515   9.790
16637SOL    HW151808   8.196   8.490   9.768
16637SOL    HW251809   8.073   8.443   9.843
16638SOL     OW51810   0.002   4.390   0.605
16638SOL    HW151811   0.079   4.446   0.615
16638SOL    HW251812  14.808   4.450   0.613
16639SOL     OW51813   3.289   9.496  12.875
16639SOL    HW151814   3.329   9.531  12.954
16639SOL    HW251815   3.216   9.442  12.906
16640SOL     OW51816   9.655   7.852  11.634
16640SOL    HW151817   9.741   7.813  11.618
16640SOL    HW251818   9.599   7.814  11.566
16641SOL     OW51819   2.385   8.592   4.547
16641SOL    HW151820   2.310   8.611   4.604
16641SOL    HW251821   2.409   8.678   4.511
16642SOL     OW51822   6.771   1.365   0.654
16642SOL    HW151823   6.773   1.438   0.716
16642SOL    HW251824   6.862   1.337   0.647
16643SOL     OW51825  11.928   0.193   3.674
16643SOL    HW151826  11.833   0.195   3.678
16643SOL    HW251827  11.956   0.255   3.742
16644SOL     OW51828  14.524  13.230   2.722
16644SOL    HW151829  14.562  13.165   2.781
16644SOL    HW251830  14.508  13.182   2.640
16645SOL     OW51831   4.209  10.666   0.120
16645SOL    HW151832   4.225  10.610   0.196
16645SOL    HW251833   4.263  10.628   0.050
16646SOL     OW51834   9.415  11.027   6.593
16646SOL    HW151835   9.334  11.078   6.593
16646SOL    HW251836   9.428  11.005   6.501
16647SOL     OW51837   6.638   9.807  10.540
16647SOL    HW151838   6.563   9.861  10.516
16647SOL    HW251839   6.642   9.812  10.636
16648SOL     OW51840   1.522   8.709   3.165
16648SOL    HW151841   1.582   8.727   3.092
16648SOL    HW251842   1.530   8.616   3.181
16649SOL     OW51843  13.159   7.650   7.644
16649SOL    HW151844  13.065   7.634   7.651
16649SOL    HW251845  13.183   7.611   7.560
16650SOL     OW51846  11.712   9.555   3.844
16650SOL    HW151847  11.729   9.533   3.936
16650SOL    HW251848  11.620   9.532   3.830
16651SOL     OW51849  14.036   8.605  10.733
16651SOL    HW151850  13.947   8.573  10.748
16651SOL    HW251851  14.026   8.698  10.714
16652SOL     OW51852  11.440   6.652   0.519
16652SOL    HW151853  11.414   6.658   0.427
16652SOL    HW251854  11.514   6.592   0.519
16653SOL     OW51855   8.863  10.340   4.197
16653SOL    HW151856   8.906  10.255   4.200
16653SOL    HW251857   8.931  10.402   4.170
16654SOL     OW51858   7.108   0.998  11.058
16654SOL    HW151859   7.108   0.903  11.055
16654SOL    HW251860   7.051   1.025  10.986
16655SOL     OW51861   1.171  14.351   5.765
16655SOL    HW151862   1.212  14.424   5.811
16655SOL    HW251863   1.198  14.362   5.674
16656SOL     OW51864   3.446   4.726  10.074
16656SOL    HW151865   3.357   4.692  10.083
16656SOL    HW251866   3.463   4.724   9.979
16657SOL     OW51867  11.133   4.441   7.398
16657SOL    HW151868  11.160   4.508   7.461
16657SOL    HW251869  11.182   4.363   7.424
16658SOL     OW51870   0.731  14.407  11.058
16658SOL    HW151871   0.770  14.446  10.979
16658SOL    HW251872   0.744  14.313  11.047
16659SOL     OW51873   2.123   2.948  10.597
16659SOL    HW151874   2.072   2.911  10.525
16659SOL    HW251875   2.197   2.888  10.607
16660SOL     OW51876   1.640   4.904   8.229
16660SOL    HW151877   1.701   4.831   8.239
16660SOL    HW251878   1.670   4.950   8.150
16661SOL     OW51879  13.074   1.202   9.207
16661SOL    HW151880  13.049   1.144   9.135
16661SOL    HW251881  13.041   1.288   9.181
16662SOL     OW51882   1.881   0.582  11.759
16662SOL    HW151883   1.907   0.493  11.734
16662SOL    HW251884   1.869   0.627  11.675
16663SOL     OW51885   4.006  11.027  12.486
16663SOL    HW151886   3.943  11.089  12.522
16663SOL    HW251887   4.028  10.970  12.559
16664SOL     OW51888  12.193   0.833  11.201
16664SOL    HW151889  12.276   0.879  11.203
16664SOL    HW251890  12.197   0.778  11.122
16665SOL     OW51891  10.390   0.625  13.165
16665SOL    HW151892  10.390   0.720  13.174
16665SOL    HW251893  10.472   0.597  13.205
16666SOL     OW51894  12.033   4.322   6.920
16666SOL    HW151895  11.978   4.394   6.948
16666SOL    HW251896  12.005   4.303   6.830
16667SOL     OW51897   3.360   0.845   0.160
16667SOL    HW151898   3.331   0.854   0.251
16667SOL    HW251899   3.403   0.759   0.156
16668SOL     OW51900   6.919   9.756   0.356
16668SOL    HW151901   6.875   9.789   0.277
16668SOL    HW251902   6.975   9.685   0.325
16669SOL     OW51903   8.845   2.256   8.277
16669SOL    HW151904   8.781   2.185   8.268
16669SOL    HW251905   8.926   2.212   8.304
16670SOL     OW51906  13.093   5.229  13.928
16670SOL    HW151907  13.094   5.134  13.941
16670SOL    HW251908  13.169   5.261  13.978
16671SOL     OW51909   0.731   3.413   2.549
16671SOL    HW151910   0.655   3.366   2.580
16671SOL    HW251911   0.795   3.406   2.620
16672SOL     OW51912   9.690   4.782   3.528
16672SOL    HW151913   9.651   4.865   3.502
16672SOL    HW251914   9.624   4.716   3.507
16673SOL     OW51915   4.268   0.005   0.553
16673SOL    HW151916   4.232   0.080   0.600
16673SOL    HW251917   4.307  14.830   0.622
16674SOL     OW51918  11.014   2.237  13.417
16674SOL    HW151919  11.047   2.207  13.502
16674SOL    HW251920  11.082   2.213  13.354
16675SOL     OW51921   4.016   0.855   7.805
16675SOL    HW151922   4.047   0.902   7.727
16675SOL    HW251923   4.087   0.863   7.868
16676SOL     OW51924   9.024   8.346   9.552
16676SOL    HW151925   8.998   8.401   9.626
16676SOL    HW251926   9.119   8.352   9.549
16677SOL     OW51927   5.182   1.193   4.820
16677SOL    HW151928   5.277   1.200   4.808
16677SOL    HW251929   5.159   1.110   4.779
16678SOL     OW51930   9.552   8.195   7.885
16678SOL    HW151931   9.498   8.217   7.961
16678SOL    HW251932   9.531   8.104   7.866
16679SOL     OW51933  13.063  12.703  13.931
16679SOL    HW151934  12.982  12.656  13.950
16679SOL    HW251935  13.057  12.724  13.837
16680SOL     OW51936   0.816   2.759   3.616
16680SOL    HW151937   0.741   2.701   3.619
16680SOL    HW251938   0.865   2.740   3.696
16681SOL     OW51939  12.040   0.719   4.207
16681SOL    HW151940  11.963   0.690   4.255
16681SOL    HW251941  12.006   0.768   4.133
16682SOL     OW51942   9.627   8.377   6.698
16682SOL    HW151943   9.563   8.339   6.757
16682SOL    HW251944   9.630   8.317   6.623
16683SOL     OW51945   9.845   7.882  14.043
16683SOL    HW151946   9.780   7.878  13.973
16683SOL    HW251947   9.929   7.870  13.999
16684SOL     OW51948   4.227   6.190  10.708
16684SOL    HW151949   4.207   6.243  10.785
16684SOL    HW251950   4.230   6.100  10.741
16685SOL     OW51951   3.278  13.289   8.335
16685SOL    HW151952   3.262  13.381   8.355
16685SOL    HW251953   3.228  13.241   8.401
16686SOL     OW51954   5.384  12.768   5.182
16686SOL    HW151955   5.423  12.733   5.103
16686SOL    HW251956   5.333  12.844   5.153
16687SOL     OW51957   7.135   5.653  10.729
16687SOL    HW151958   7.080   5.702  10.790
16687SOL    HW251959   7.116   5.692  10.644
16688SOL     OW51960  14.468   4.658   3.531
16688SOL    HW151961  14.452   4.711   3.609
16688SOL    HW251962  14.553   4.616   3.548
16689SOL     OW51963   9.599   4.507   9.497
16689SOL    HW151964   9.684   4.541   9.470
16689SOL    HW251965   9.619   4.424   9.539
16690SOL     OW51966   8.379   2.855   3.719
16690SOL    HW151967   8.354   2.905   3.641
16690SOL    HW251968   8.362   2.915   3.791
16691SOL     OW51969   9.448   8.009   2.094
16691SOL    HW151970   9.401   7.928   2.112
16691SOL    HW251971   9.432   8.064   2.171
16692SOL     OW51972   6.562   5.579   7.454
16692SOL    HW151973   6.609   5.561   7.536
16692SOL    HW251974   6.516   5.498   7.434
16693SOL     OW51975   2.233   6.609  14.874
16693SOL    HW151976   2.172   6.675  14.841
16693SOL    HW251977   2.188   6.526  14.859
16694SOL     OW51978   0.044   0.277   2.275
16694SOL    HW151979   0.047   0.249   2.367
16694SOL    HW251980   0.071   0.199   2.226
16695SOL     OW51981  10.132   4.826  12.985
16695SOL    HW151982  10.063   4.878  13.027
16695SOL    HW251983  10.202   4.824  13.050
16696SOL     OW51984  14.406   8.644   7.414
16696SOL    HW151985  14.389   8.551   7.426
16696SOL    HW251986  14.356   8.686   7.484
16697SOL     OW51987   0.666   6.558   9.213
16697SOL    HW151988   0.691   6.642   9.175
16697SOL    HW251989   0.576   6.543   9.184
16698SOL     OW51990   5.660  10.647   7.004
16698SOL    HW151991   5.648  10.578   6.940
16698SOL    HW251992   5.657  10.728   6.953
16699SOL     OW51993   5.215   4.308  12.729
16699SOL    HW151994   5.205   4.403  12.721
16699SOL    HW251995   5.196   4.289  12.821
16700SOL     OW51996   0.072   9.679  14.694
16700SOL    HW151997   0.168   9.680  14.698
16700SOL    HW251998   0.052   9.648  14.606
16701SOL     OW51999  13.487   4.484   2.051
16701SOL    HW152000  13.434   4.437   1.988
16701SOL    HW252001  13.474   4.437   2.133
16702SOL     OW52002   2.495   2.326   0.128
16702SOL    HW152003   2.590   2.320   0.124
16702SOL    HW252004   2.474   2.304   0.219
16703SOL     OW52005   5.250   8.276  11.481
16703SOL    HW152006   5.317   8.245  11.421
16703SOL    HW252007   5.297   8.296  11.561
16704SOL     OW52008   3.712   3.849   9.181
16704SOL    HW152009   3.771   3.780   9.210
16704SOL    HW252010   3.715   3.845   9.086
16705SOL     OW52011   4.760   0.913  10.214
16705SOL    HW152012   4.775   0.958  10.131
16705SOL    HW252013   4.840   0.929  10.265
16706SOL     OW52014   0.479   5.393   8.683
16706SOL    HW152015   0.388   5.409   8.710
16706SOL    HW252016   0.508   5.477   8.647
16707SOL     OW52017   7.813  10.336   5.932
16707SOL    HW152018   7.767  10.397   5.875
16707SOL    HW252019   7.881  10.389   5.974
16708SOL     OW52020   5.631   0.660   7.201
16708SOL    HW152021   5.714   0.706   7.203
16708SOL    HW252022   5.627   0.612   7.284
16709SOL     OW52023   7.073  11.052  14.823
16709SOL    HW152024   7.091  10.972  14.774
16709SOL    HW252025   7.149  11.108  14.806
16710SOL     OW52026   8.371  11.715   6.352
16710SOL    HW152027   8.295  11.711   6.294
16710SOL    HW252028   8.446  11.701   6.295
16711SOL     OW52029   6.529   7.392  10.981
16711SOL    HW152030   6.555   7.383  10.889
16711SOL    HW252031   6.592   7.338  11.029
16712SOL     OW52032   3.652   0.643  11.869
16712SOL    HW152033   3.725   0.598  11.911
16712SOL    HW252034   3.650   0.608  11.780
16713SOL     OW52035   8.718  13.041   5.056
16713SOL    HW152036   8.744  12.953   5.028
16713SOL    HW252037   8.632  13.054   5.016
16714SOL     OW52038   9.967   4.797   9.401
16714SOL    HW152039   9.907   4.849   9.348
16714SOL    HW252040  10.047   4.850   9.405
16715SOL     OW52041  14.662  11.409   1.130
16715SOL    HW152042  14.730  11.343   1.119
16715SOL    HW252043  14.580  11.360   1.132
16716SOL     OW52044   4.491   9.426  14.098
16716SOL    HW152045   4.439   9.464  14.169
16716SOL    HW252046   4.581   9.451  14.118
16717SOL     OW52047   8.763  14.365   7.587
16717SOL    HW152048   8.759  14.296   7.521
16717SOL    HW252049   8.807  14.325   7.662
16718SOL     OW52050   3.361   4.423   9.683
16718SOL    HW152051   3.418   4.499   9.691
16718SOL    HW252052   3.346   4.413   9.589
16719SOL     OW52053  12.380  10.842  10.311
16719SOL    HW152054  12.440  10.768  10.307
16719SOL    HW252055  12.346  10.841  10.401
16720SOL     OW52056   2.814  12.454   2.750
16720SOL    HW152057   2.880  12.385   2.740
16720SOL    HW252058   2.748  12.416   2.807
16721SOL     OW52059   7.192   2.388  10.812
16721SOL    HW152060   7.221   2.448  10.881
16721SOL    HW252061   7.154   2.445  10.745
16722SOL     OW52062   9.216  11.326   9.970
16722SOL    HW152063   9.261  11.344  10.052
16722SOL    HW252064   9.285  11.306   9.907
16723SOL     OW52065   2.155   1.360   7.089
16723SOL    HW152066   2.178   1.278   7.135
16723SOL    HW252067   2.193   1.429   7.143
16724SOL     OW52068   6.747  14.016   9.128
16724SOL    HW152069   6.824  13.968   9.097
16724SOL    HW252070   6.684  14.011   9.056
16725SOL     OW52071  10.397   2.001   8.025
16725SOL    HW152072  10.419   2.051   8.104
16725SOL    HW252073  10.389   1.910   8.056
16726SOL     OW52074   4.555   8.360   9.202
16726SOL    HW152075   4.555   8.433   9.140
16726SOL    HW252076   4.536   8.400   9.287
16727SOL     OW52077   5.005   7.795  14.537
16727SOL    HW152078   5.030   7.822  14.625
16727SOL    HW252079   5.046   7.709  14.525
16728SOL     OW52080   6.251   0.913  14.657
16728SOL    HW152081   6.297   0.992  14.629
16728SOL    HW252082   6.194   0.941  14.729
16729SOL     OW52083   6.626  13.395  11.547
16729SOL    HW152084   6.578  13.460  11.599
16729SOL    HW252085   6.587  13.311  11.573
16730SOL     OW52086   1.975  12.599   1.529
16730SOL    HW152087   1.921  12.641   1.597
16730SOL    HW252088   1.943  12.509   1.525
16731SOL     OW52089   2.201  12.969  10.919
16731SOL    HW152090   2.117  12.994  10.956
16731SOL    HW252091   2.258  12.956  10.995
16732SOL     OW52092   8.231   0.448   8.050
16732SOL    HW152093   8.194   0.536   8.055
16732SOL    HW252094   8.273   0.444   7.964
16733SOL     OW52095   9.833   1.285   2.327
16733SOL    HW152096   9.867   1.341   2.257
16733SOL    HW252097   9.895   1.297   2.400
16734SOL     OW52098   3.779  11.031   2.036
16734SOL    HW152099   3.714  11.073   2.093
16734SOL    HW252100   3.863  11.058   2.071
16735SOL     OW52101   9.002   3.883   8.727
16735SOL    HW152102   9.034   3.801   8.763
16735SOL    HW252103   8.997   3.869   8.633
16736SOL     OW52104   8.405  12.070   7.408
16736SOL    HW152105   8.420  11.991   7.460
16736SOL    HW252106   8.478  12.073   7.346
16737SOL     OW52107   3.085   5.830   5.797
16737SOL    HW152108   3.106   5.920   5.770
16737SOL    HW252109   3.148   5.810   5.866
16738SOL     OW52110   5.457  10.000  13.136
16738SOL    HW152111   5.532   9.945  13.159
16738SOL    HW252112   5.464  10.012  13.041
16739SOL     OW52113   8.175   5.025   0.950
16739SOL    HW152114   8.094   5.060   0.987
16739SOL    HW252115   8.146   4.959   0.886
16740SOL     OW52116   1.343  12.719  12.958
16740SOL    HW152117   1.302  12.710  12.872
16740SOL    HW252118   1.357  12.814  12.968
16741SOL     OW52119  12.288   8.193  10.068
16741SOL    HW152120  12.265   8.210   9.977
16741SOL    HW252121  12.309   8.099  10.071
16742SOL     OW52122  13.261   1.970   4.826
16742SOL    HW152123  13.323   1.990   4.755
16742SOL    HW252124  13.261   2.050   4.880
16743SOL     OW52125   2.765   8.652  13.667
16743SOL    HW152126   2.813   8.575  13.638
16743SOL    HW252127   2.806   8.725  13.620
16744SOL     OW52128  12.663  10.557  14.400
16744SOL    HW152129  12.751  10.572  14.434
16744SOL    HW252130  12.675  10.499  14.325
16745SOL     OW52131   0.226   4.003   6.774
16745SOL    HW152132   0.154   3.989   6.836
16745SOL    HW252133   0.217   4.095   6.748
16746SOL     OW52134  10.076  10.113  11.218
16746SOL    HW152135  10.022  10.039  11.192
16746SOL    HW252136  10.122  10.139  11.138
16747SOL     OW52137   9.779  14.855  14.114
16747SOL    HW152138   9.815   0.058  14.147
16747SOL    HW252139   9.687  14.874  14.096
16748SOL     OW52140  11.630   8.300   1.846
16748SOL    HW152141  11.655   8.376   1.899
16748SOL    HW252142  11.712   8.264   1.814
16749SOL     OW52143   4.262   7.344  12.408
16749SOL    HW152144   4.270   7.361  12.502
16749SOL    HW252145   4.351   7.346  12.375
16750SOL     OW52146   0.277   7.934   3.315
16750SOL    HW152147   0.372   7.946   3.312
16750SOL    HW252148   0.265   7.846   3.352
16751SOL     OW52149   4.108  12.062   2.976
16751SOL    HW152150   4.052  12.029   2.906
16751SOL    HW252151   4.170  11.992   2.993
16752SOL     OW52152   5.060  14.372   8.812
16752SOL    HW152153   4.994  14.439   8.831
16752SOL    HW252154   5.031  14.295   8.861
16753SOL     OW52155  10.919  11.657   1.913
16753SOL    HW152156  10.872  11.639   1.994
16753SOL    HW252157  11.012  11.654   1.938
16754SOL     OW52158   6.868   4.290   7.759
16754SOL    HW152159   6.944   4.325   7.713
16754SOL    HW252160   6.898   4.282   7.850
16755SOL     OW52161   5.611   5.095   1.492
16755SOL    HW152162   5.570   5.165   1.543
16755SOL    HW252163   5.694   5.132   1.462
16756SOL     OW52164   5.385   1.333   6.914
16756SOL    HW152165   5.458   1.286   6.875
16756SOL    HW252166   5.320   1.340   6.844
16757SOL     OW52167   4.461   6.242   3.205
16757SOL    HW152168   4.431   6.195   3.126
16757SOL    HW252169   4.543   6.198   3.228
16758SOL     OW52170   0.103   4.617   5.015
16758SOL    HW152171   0.105   4.603   4.920
16758SOL    HW252172   0.159   4.693   5.029
16759SOL     OW52173   9.214   1.880   2.454
16759SOL    HW152174   9.308   1.874   2.473
16759SOL    HW252175   9.208   1.944   2.383
16760SOL     OW52176   6.472  11.998   6.647
16760SOL    HW152177   6.413  12.071   6.669
16760SOL    HW252178   6.546  12.008   6.708
16761SOL     OW52179   7.213   1.558  10.077
16761SOL    HW152180   7.227   1.587   9.987
16761SOL    HW252181   7.294   1.580  10.122
16762SOL     OW52182   8.280  14.017  13.994
16762SOL    HW152183   8.222  14.010  14.070
16762SOL    HW252184   8.348  14.078  14.020
16763SOL     OW52185   1.358  12.325   4.385
16763SOL    HW152186   1.286  12.284   4.337
16763SOL    HW252187   1.361  12.415   4.352
16764SOL     OW52188   1.545  10.930  12.105
16764SOL    HW152189   1.498  10.879  12.039
16764SOL    HW252190   1.515  11.020  12.092
16765SOL     OW52191  11.864   3.263   3.084
16765SOL    HW152192  11.956   3.242   3.101
16765SOL    HW252193  11.866   3.352   3.050
16766SOL     OW52194   2.303   1.914  14.465
16766SOL    HW152195   2.378   1.970  14.442
16766SOL    HW252196   2.227   1.973  14.462
16767SOL     OW52197   8.224   4.514   5.088
16767SOL    HW152198   8.250   4.483   5.001
16767SOL    HW252199   8.254   4.605   5.091
16768SOL     OW52200   2.651  10.698   0.418
16768SOL    HW152201   2.683  10.668   0.503
16768SOL    HW252202   2.730  10.723   0.370
16769SOL     OW52203   1.895  12.661  13.312
16769SOL    HW152204   1.822  12.600  13.298
16769SOL    HW252205   1.947  12.620  13.381
16770SOL     OW52206   6.515   6.499   9.333
16770SOL    HW152207   6.440   6.510   9.391
16770SOL    HW252208   6.517   6.580   9.281
16771SOL     OW52209   1.961  11.165   1.195
16771SOL    HW152210   2.051  11.199   1.203
16771SOL    HW252211   1.958  11.090   1.254
16772SOL     OW52212   2.642  11.440   2.104
16772SOL    HW152213   2.560  11.489   2.105
16772SOL    HW252214   2.644  11.397   2.019
16773SOL     OW52215   0.229   5.338   5.702
16773SOL    HW152216   0.283   5.398   5.650
16773SOL    HW252217   0.176   5.291   5.638
16774SOL     OW52218   8.903   1.250   2.225
16774SOL    HW152219   8.905   1.258   2.129
16774SOL    HW252220   8.995   1.240   2.250
16775SOL     OW52221   6.718   0.482   8.626
16775SOL    HW152222   6.804   0.515   8.649
16775SOL    HW252223   6.721   0.474   8.530
16776SOL     OW52224   2.951  14.176   8.657
16776SOL    HW152225   2.984  14.139   8.739
16776SOL    HW252226   2.856  14.173   8.666
16777SOL     OW52227   0.275   3.192  12.625
16777SOL    HW152228   0.325   3.269  12.597
16777SOL    HW252229   0.335   3.144  12.683
16778SOL     OW52230  12.071   5.815  11.714
16778SOL    HW152231  12.105   5.738  11.760
16778SOL    HW252232  12.073   5.789  11.621
16779SOL     OW52233   7.053   7.997   4.868
16779SOL    HW152234   6.961   7.971   4.868
16779SOL    HW252235   7.100   7.918   4.841
16780SOL     OW52236   1.691   1.078   0.567
16780SOL    HW152237   1.598   1.085   0.590
16780SOL    HW252238   1.725   1.011   0.628
16781SOL     OW52239   5.489   9.052   5.070
16781SOL    HW152240   5.491   9.126   5.009
16781SOL    HW252241   5.582   9.031   5.084
16782SOL     OW52242  13.372   1.198   3.969
16782SOL    HW152243  13.282   1.224   3.989
16782SOL    HW252244  13.393   1.132   4.036
16783SOL     OW52245  12.894   6.411   7.947
16783SOL    HW152246  12.866   6.493   7.907
16783SOL    HW252247  12.829   6.393   8.015
16784SOL     OW52248   1.828   8.436   1.800
16784SOL    HW152249   1.823   8.527   1.827
16784SOL    HW252250   1.760   8.392   1.851
16785SOL     OW52251   6.318  10.997  11.702
16785SOL    HW152252   6.321  11.084  11.740
16785SOL    HW252253   6.407  10.963  11.710
16786SOL     OW52254   4.099   6.160   2.629
16786SOL    HW152255   4.044   6.116   2.694
16786SOL    HW252256   4.184   6.168   2.670
16787SOL     OW52257   6.624   2.257   0.544
16787SOL    HW152258   6.618   2.350   0.522
16787SOL    HW252259   6.566   2.214   0.480
16788SOL     OW52260   9.977   0.561   7.675
16788SOL    HW152261  10.002   0.470   7.687
16788SOL    HW252262   9.938   0.564   7.587
16789SOL     OW52263   9.777   8.463  12.902
16789SOL    HW152264   9.693   8.421  12.888
16789SOL    HW252265   9.788   8.521  12.826
16790SOL     OW52266  10.716  12.250  11.261
16790SOL    HW152267  10.727  12.340  11.232
16790SOL    HW252268  10.641  12.253  11.320
16791SOL     OW52269  11.164   8.308   1.000
16791SOL    HW152270  11.251   8.272   1.017
16791SOL    HW252271  11.181   8.394   0.962
16792SOL     OW52272  11.534  10.145  12.189
16792SOL    HW152273  11.532  10.130  12.094
16792SOL    HW252274  11.612  10.198  12.203
16793SOL     OW52275  10.262   3.040   2.657
16793SOL    HW152276  10.321   3.021   2.583
16793SOL    HW252277  10.281   2.972   2.721
16794SOL     OW52278   7.239   4.295  14.296
16794SOL    HW152279   7.161   4.240  14.296
16794SOL    HW252280   7.310   4.236  14.322
16795SOL     OW52281   8.378  12.020   3.319
16795SOL    HW152282   8.373  12.116   3.315
16795SOL    HW252283   8.382  12.000   3.413
16796SOL     OW52284   2.798   7.872  12.941
16796SOL    HW152285   2.887   7.908  12.943
16796SOL    HW252286   2.801   7.796  12.998
16797SOL     OW52287   8.285   2.992   0.907
16797SOL    HW152288   8.243   3.070   0.871
16797SOL    HW252289   8.365   2.981   0.855
16798SOL     OW52290   0.923   8.356  11.287
16798SOL    HW152291   0.967   8.423  11.236
16798SOL    HW252292   0.906   8.285  11.226
16799SOL     OW52293  14.182   0.347  13.611
16799SOL    HW152294  14.114   0.286  13.584
16799SOL    HW252295  14.247   0.343  13.540
16800SOL     OW52296   1.573  13.861   6.651
16800SOL    HW152297   1.496  13.896   6.695
16800SOL    HW252298   1.544  13.778   6.613
16801SOL     OW52299   5.360   5.570  10.847
16801SOL    HW152300   5.318   5.485  10.839
16801SOL    HW252301   5.292   5.628  10.880
16802SOL     OW52302   8.116  11.751  14.633
16802SOL    HW152303   8.063  11.738  14.712
16802SOL    HW252304   8.066  11.815  14.582
16803SOL     OW52305   1.970   8.643   5.409
16803SOL    HW152306   1.890   8.678   5.369
16803SOL    HW252307   2.007   8.718   5.456
16804SOL     OW52308   8.877  12.101  11.349
16804SOL    HW152309   8.876  12.101  11.253
16804SOL    HW252310   8.828  12.022  11.373
16805SOL     OW52311  14.729   3.804   2.353
16805SOL    HW152312  14.650   3.854   2.335
16805SOL    HW252313  14.697   3.723   2.394
16806SOL     OW52314  14.201  12.072   6.487
16806SOL    HW152315  14.285  12.112   6.512
16806SOL    HW252316  14.226  11.988   6.447
16807SOL     OW52317   0.869  10.412   1.925
16807SOL    HW152318   0.824  10.428   2.007
16807SOL    HW252319   0.944  10.472   1.927
16808SOL     OW52320  11.828   3.945   3.151
16808SOL    HW152321  11.796   3.892   3.224
16808SOL    HW252322  11.754   3.948   3.090
16809SOL     OW52323   9.094  11.001   6.756
16809SOL    HW152324   9.107  11.091   6.725
16809SOL    HW252325   9.156  10.992   6.829
16810SOL     OW52326   3.291  10.662   6.702
16810SOL    HW152327   3.298  10.731   6.636
16810SOL    HW252328   3.311  10.706   6.785
16811SOL     OW52329  10.705  10.478   8.313
16811SOL    HW152330  10.785  10.429   8.296
16811SOL    HW252331  10.695  10.475   8.408
16812SOL     OW52332  12.945   1.269   1.844
16812SOL    HW152333  12.880   1.202   1.824
16812SOL    HW252334  12.981   1.295   1.759
16813SOL     OW52335   3.855   5.838   0.806
16813SOL    HW152336   3.766   5.860   0.834
16813SOL    HW252337   3.912   5.889   0.864
16814SOL     OW52338  14.850  11.549  10.956
16814SOL    HW152339  14.771  11.553  10.902
16814SOL    HW252340  14.817  11.540  11.046
16815SOL     OW52341  14.509   4.652   4.869
16815SOL    HW152342  14.540   4.567   4.901
16815SOL    HW252343  14.543   4.658   4.779
16816SOL     OW52344   1.110   6.392  13.216
16816SOL    HW152345   1.108   6.487  13.231
16816SOL    HW252346   1.160   6.358  13.290
16817SOL     OW52347   6.863   3.924   8.725
16817SOL    HW152348   6.941   3.870   8.719
16817SOL    HW252349   6.790   3.863   8.711
16818SOL     OW52350   4.452   8.845   7.695
16818SOL    HW152351   4.503   8.771   7.662
16818SOL    HW252352   4.511   8.888   7.757
16819SOL     OW52353   4.349   7.945  14.707
16819SOL    HW152354   4.278   7.977  14.652
16819SOL    HW252355   4.306   7.886  14.770
16820SOL     OW52356   2.463   6.218   5.491
16820SOL    HW152357   2.395   6.264   5.441
16820SOL    HW252358   2.489   6.281   5.559
16821SOL     OW52359  12.132  11.851   1.729
16821SOL    HW152360  12.169  11.930   1.769
16821SOL    HW252361  12.206  11.809   1.687
16822SOL     OW52362   9.136  13.580   0.259
16822SOL    HW152363   9.100  13.494   0.236
16822SOL    HW252364   9.121  13.633   0.181
16823SOL     OW52365   3.094   2.438  10.247
16823SOL    HW152366   3.126   2.423  10.336
16823SOL    HW252367   3.140   2.374  10.193
16824SOL     OW52368  10.437   7.602   2.638
16824SOL    HW152369  10.388   7.621   2.719
16824SOL    HW252370  10.518   7.561   2.668
16825SOL     OW52371  12.895   6.091  14.075
16825SOL    HW152372  12.910   6.107  13.981
16825SOL    HW252373  12.904   6.177  14.115
16826SOL     OW52374  13.537   7.849   4.837
16826SOL    HW152375  13.457   7.834   4.887
16826SOL    HW252376  13.606   7.809   4.890
16827SOL     OW52377  13.920   2.660   5.484
16827SOL    HW152378  13.867   2.597   5.436
16827SOL    HW252379  13.995   2.610   5.515
16828SOL     OW52380   0.110  10.642   8.600
16828SOL    HW152381   0.108  10.575   8.669
16828SOL    HW252382   0.099  10.594   8.519
16829SOL     OW52383   7.783   4.657  13.099
16829SOL    HW152384   7.716   4.641  13.033
16829SOL    HW252385   7.774   4.584  13.160
16830SOL     OW52386  14.572  13.887   9.547
16830SOL    HW152387  14.565  13.906   9.640
16830SOL    HW252388  14.651  13.834   9.538
16831SOL     OW52389  11.782   7.293   4.729
16831SOL    HW152390  11.805   7.383   4.708
16831SOL    HW252391  11.717   7.268   4.663
16832SOL     OW52392   0.577  13.466   8.171
16832SOL    HW152393   0.646  13.531   8.185
16832SOL    HW252394   0.547  13.444   8.259
16833SOL     OW52395   0.910   4.275   5.842
16833SOL    HW152396   0.887   4.194   5.888
16833SOL    HW252397   0.967   4.322   5.903
16834SOL     OW52398   2.907  11.250   5.301
16834SOL    HW152399   2.817  11.231   5.329
16834SOL    HW252400   2.960  11.230   5.378
16835SOL     OW52401   8.875   5.567   9.430
16835SOL    HW152402   8.970   5.566   9.418
16835SOL    HW252403   8.855   5.657   9.457
16836SOL     OW52404   6.797   7.510  13.608
16836SOL    HW152405   6.834   7.543  13.690
16836SOL    HW252406   6.724   7.454  13.635
16837SOL     OW52407   2.492   1.906  12.561
16837SOL    HW152408   2.531   1.992  12.545
16837SOL    HW252409   2.543   1.869  12.633
16838SOL     OW52410   2.768   3.941  11.478
16838SOL    HW152411   2.749   3.956  11.570
16838SOL    HW252412   2.699   3.986  11.430
16839SOL     OW52413  12.892  10.772   5.251
16839SOL    HW152414  12.862  10.681   5.255
16839SOL    HW252415  12.917  10.785   5.160
16840SOL     OW52416   0.162   9.654  13.272
16840SOL    HW152417   0.071   9.625  13.276
16840SOL    HW252418   0.207   9.585  13.222
16841SOL     OW52419   2.631   3.242   4.356
16841SOL    HW152420   2.691   3.293   4.301
16841SOL    HW252421   2.547   3.286   4.348
16842SOL     OW52422  13.395   4.992  14.251
16842SOL    HW152423  13.472   4.968  14.200
16842SOL    HW252424  13.430   5.026  14.333
16843SOL     OW52425  13.197  12.393   1.552
16843SOL    HW152426  13.293  12.395   1.547
16843SOL    HW252427  13.176  12.456   1.621
16844SOL     OW52428  10.863   9.285   7.649
16844SOL    HW152429  10.868   9.192   7.668
16844SOL    HW252430  10.864   9.328   7.735
16845SOL     OW52431   8.071  12.036  11.652
16845SOL    HW152432   8.152  11.985  11.644
16845SOL    HW252433   8.097  12.126  11.637
16846SOL     OW52434   1.114   5.649   9.188
16846SOL    HW152435   1.186   5.617   9.242
16846SOL    HW252436   1.055   5.574   9.180
16847SOL     OW52437  12.333   4.095   7.634
16847SOL    HW152438  12.298   4.163   7.577
16847SOL    HW252439  12.264   4.028   7.638
16848SOL     OW52440   3.101  14.833  12.731
16848SOL    HW152441   3.094  14.875  12.646
16848SOL    HW252442   3.193  14.843  12.756
16849SOL     OW52443  11.443   1.858   8.834
16849SOL    HW152444  11.384   1.883   8.763
16849SOL    HW252445  11.457   1.764   8.821
16850SOL     OW52446   2.711   3.998   2.136
16850SOL    HW152447   2.766   3.961   2.067
16850SOL    HW252448   2.759   4.074   2.167
16851SOL     OW52449   5.716  11.387   3.631
16851SOL    HW152450   5.658  11.412   3.703
16851SOL    HW252451   5.685  11.301   3.605
16852SOL     OW52452   6.938  13.726   9.562
16852SOL    HW152453   6.939  13.664   9.489
16852SOL    HW252454   6.993  13.799   9.533
16853SOL     OW52455   0.356  10.811   3.062
16853SOL    HW152456   0.428  10.765   3.019
16853SOL    HW252457   0.315  10.745   3.118
16854SOL     OW52458  13.560   6.286   9.944
16854SOL    HW152459  13.465   6.286   9.936
16854SOL    HW252460  13.581   6.202   9.985
16855SOL     OW52461   5.724   3.397  11.786
16855SOL    HW152462   5.728   3.320  11.729
16855SOL    HW252463   5.688   3.466  11.729
16856SOL     OW52464   6.094   4.908   5.915
16856SOL    HW152465   6.112   4.814   5.925
16856SOL    HW252466   6.178   4.951   5.931
16857SOL     OW52467  10.321   6.787  10.422
16857SOL    HW152468  10.262   6.792  10.347
16857SOL    HW252469  10.408   6.774  10.383
16858SOL     OW52470   7.039  12.216   9.683
16858SOL    HW152471   7.001  12.256   9.761
16858SOL    HW252472   7.074  12.132   9.713
16859SOL     OW52473   4.319  11.657   1.665
16859SOL    HW152474   4.347  11.703   1.586
16859SOL    HW252475   4.242  11.705   1.695
16860SOL     OW52476   7.379   1.130   1.287
16860SOL    HW152477   7.442   1.063   1.311
16860SOL    HW252478   7.411   1.164   1.203
16861SOL     OW52479  13.193   2.623   2.125
16861SOL    HW152480  13.112   2.653   2.166
16861SOL    HW252481  13.209   2.687   2.056
16862SOL     OW52482   4.964   1.271   8.853
16862SOL    HW152483   4.988   1.328   8.926
16862SOL    HW252484   4.963   1.183   8.890
16863SOL     OW52485   6.299   0.431   3.248
16863SOL    HW152486   6.249   0.351   3.233
16863SOL    HW252487   6.269   0.464   3.332
16864SOL     OW52488   9.881  12.390   5.144
16864SOL    HW152489   9.839  12.350   5.221
16864SOL    HW252490   9.933  12.319   5.106
16865SOL     OW52491   2.560   9.668   0.991
16865SOL    HW152492   2.593   9.579   0.976
16865SOL    HW252493   2.500   9.659   1.065
16866SOL     OW52494  13.948   2.463  14.066
16866SOL    HW152495  13.904   2.444  13.983
16866SOL    HW252496  13.984   2.379  14.094
16867SOL     OW52497   4.916   8.260  12.495
16867SOL    HW152498   4.927   8.168  12.520
16867SOL    HW252499   4.934   8.309  12.574
16868SOL     OW52500   1.728   8.475   0.769
16868SOL    HW152501   1.776   8.526   0.834
16868SOL    HW252502   1.793   8.453   0.702
16869SOL     OW52503   8.296   9.408  12.636
16869SOL    HW152504   8.264   9.420  12.726
16869SOL    HW252505   8.218   9.410  12.582
16870SOL     OW52506   7.492   8.070   4.784
16870SOL    HW152507   7.572   8.112   4.752
16870SOL    HW252508   7.521   8.016   4.858
16871SOL     OW52509  12.676  10.403   7.334
16871SOL    HW152510  12.601  10.416   7.392
16871SOL    HW252511  12.653  10.327   7.281
16872SOL     OW52512   6.862   4.683   2.137
16872SOL    HW152513   6.794   4.692   2.204
16872SOL    HW252514   6.936   4.642   2.182
16873SOL     OW52515   1.090   9.717   3.331
16873SOL    HW152516   1.177   9.703   3.367
16873SOL    HW252517   1.052   9.630   3.324
16874SOL     OW52518   3.839   9.859  10.723
16874SOL    HW152519   3.858   9.914  10.647
16874SOL    HW252520   3.743   9.861  10.729
16875SOL     OW52521   3.439   3.646   2.310
16875SOL    HW152522   3.516   3.599   2.342
16875SOL    HW252523   3.451   3.736   2.340
16876SOL     OW52524   8.183  12.295  11.593
16876SOL    HW152525   8.250  12.301  11.524
16876SOL    HW252526   8.102  12.318  11.548
16877SOL     OW52527  13.555   5.488   8.638
16877SOL    HW152528  13.517   5.513   8.554
16877SOL    HW252529  13.596   5.568   8.671
16878SOL     OW52530   5.380  11.706   9.379
16878SOL    HW152531   5.294  11.744   9.359
16878SOL    HW252532   5.364  11.612   9.385
16879SOL     OW52533   0.596   7.253  10.757
16879SOL    HW152534   0.673   7.303  10.729
16879SOL    HW252535   0.576   7.287  10.844
16880SOL     OW52536  11.881   9.279   8.220
16880SOL    HW152537  11.963   9.261   8.174
16880SOL    HW252538  11.902   9.351   8.279
16881SOL     OW52539   5.500   5.179   5.032
16881SOL    HW152540   5.483   5.089   5.007
16881SOL    HW252541   5.418   5.225   5.013
16882SOL     OW52542   4.811  11.483   4.147
16882SOL    HW152543   4.758  11.560   4.128
16882SOL    HW252544   4.871  11.476   4.073
16883SOL     OW52545   4.848   9.202   0.927
16883SOL    HW152546   4.848   9.226   1.020
16883SOL    HW252547   4.782   9.133   0.921
16884SOL     OW52548   4.871   5.318   7.253
16884SOL    HW152549   4.964   5.301   7.233
16884SOL    HW252550   4.873   5.368   7.334
16885SOL     OW52551  10.262   7.970   4.612
16885SOL    HW152552  10.173   8.004   4.620
16885SOL    HW252553  10.303   7.989   4.697
16886SOL     OW52554  12.944   4.433   5.884
16886SOL    HW152555  12.924   4.492   5.811
16886SOL    HW252556  12.954   4.347   5.844
16887SOL     OW52557   8.776  10.220  10.255
16887SOL    HW152558   8.735  10.181  10.177
16887SOL    HW252559   8.728  10.302  10.269
16888SOL     OW52560   4.927  11.971   5.557
16888SOL    HW152561   4.961  11.990   5.470
16888SOL    HW252562   5.004  11.957   5.612
16889SOL     OW52563   0.157   6.118   1.960
16889SOL    HW152564   0.062   6.110   1.951
16889SOL    HW252565   0.187   6.028   1.973
16890SOL     OW52566  10.385   6.577  12.720
16890SOL    HW152567  10.420   6.548  12.636
16890SOL    HW252568  10.397   6.502  12.778
16891SOL     OW52569   4.717  11.612   9.381
16891SOL    HW152570   4.771  11.641   9.454
16891SOL    HW252571   4.777  11.569   9.321
16892SOL     OW52572   2.751   6.042  12.961
16892SOL    HW152573   2.696   5.990  12.902
16892SOL    HW252574   2.709   6.034  13.046
16893SOL     OW52575   7.387   5.508   1.730
16893SOL    HW152576   7.413   5.584   1.678
16893SOL    HW252577   7.369   5.440   1.664
16894SOL     OW52578   5.653   3.961   1.046
16894SOL    HW152579   5.568   4.002   1.064
16894SOL    HW252580   5.717   4.022   1.081
16895SOL     OW52581   8.323  10.634  12.774
16895SOL    HW152582   8.336  10.700  12.842
16895SOL    HW252583   8.270  10.679  12.707
16896SOL     OW52584  10.107   3.069   4.027
16896SOL    HW152585  10.045   3.027   3.968
16896SOL    HW252586  10.084   3.036   4.114
16897SOL     OW52587  12.039   3.336  10.721
16897SOL    HW152588  11.996   3.277  10.659
16897SOL    HW252589  11.980   3.339  10.796
16898SOL     OW52590  11.406  13.828   9.686
16898SOL    HW152591  11.376  13.913   9.655
16898SOL    HW252592  11.467  13.848   9.756
16899SOL     OW52593   7.440  14.398   7.054
16899SOL    HW152594   7.506  14.353   7.001
16899SOL    HW252595   7.356  14.375   7.014
16900SOL     OW52596   0.648  10.375   4.526
16900SOL    HW152597   0.730  10.340   4.560
16900SOL    HW252598   0.581  10.314   4.558
16901SOL     OW52599  14.830   8.156   7.170
16901SOL    HW152600  14.835   8.072   7.216
16901SOL    HW252601   0.041   8.185   7.162
16902SOL     OW52602   2.648   7.420  10.298
16902SOL    HW152603   2.725   7.477  10.303
16902SOL    HW252604   2.658   7.373  10.216
16903SOL     OW52605  10.641  13.924  14.137
16903SOL    HW152606  10.660  13.833  14.113
16903SOL    HW252607  10.640  13.924  14.233
16904SOL     OW52608   8.373  14.677   0.916
16904SOL    HW152609   8.351  14.764   0.883
16904SOL    HW252610   8.397  14.628   0.837
16905SOL     OW52611   0.453   4.202   0.790
16905SOL    HW152612   0.525   4.252   0.827
16905SOL    HW252613   0.479   4.186   0.699
16906SOL     OW52614  13.473  14.546   8.957
16906SOL    HW152615  13.508  14.586   9.037
16906SOL    HW252616  13.382  14.525   8.978
16907SOL     OW52617  14.545   4.186   4.246
16907SOL    HW152618  14.637   4.203   4.226
16907SOL    HW252619  14.501   4.185   4.161
16908SOL     OW52620   6.144   6.280   3.152
16908SOL    HW152621   6.229   6.247   3.123
16908SOL    HW252622   6.083   6.208   3.134
16909SOL     OW52623   4.886   1.100   2.193
16909SOL    HW152624   4.819   1.069   2.254
16909SOL    HW252625   4.875   1.046   2.115
16910SOL     OW52626   4.167   5.831   2.161
16910SOL    HW152627   4.109   5.788   2.223
16910SOL    HW252628   4.136   5.921   2.157
16911SOL     OW52629  14.185   3.866  13.648
16911SOL    HW152630  14.189   3.874  13.553
16911SOL    HW252631  14.231   3.785  13.668
16912SOL     OW52632   0.959   6.458   7.745
16912SOL    HW152633   1.016   6.408   7.804
16912SOL    HW252634   1.008   6.537   7.725
16913SOL     OW52635   9.927  13.850   0.439
16913SOL    HW152636   9.905  13.845   0.532
16913SOL    HW252637   9.874  13.921   0.405
16914SOL     OW52638   4.151   0.442  11.062
16914SOL    HW152639   4.208   0.518  11.073
16914SOL    HW252640   4.130   0.441  10.969
16915SOL     OW52641   5.127  12.067  11.624
16915SOL    HW152642   5.074  12.095  11.699
16915SOL    HW252643   5.135  12.146  11.571
16916SOL     OW52644   4.307   4.804   5.948
16916SOL    HW152645   4.346   4.767   6.027
16916SOL    HW252646   4.227   4.753   5.934
16917SOL     OW52647   6.891  12.237   7.270
16917SOL    HW152648   6.956  12.306   7.261
16917SOL    HW252649   6.927  12.162   7.222
16918SOL     OW52650   5.142   1.410   7.953
16918SOL    HW152651   5.166   1.377   8.039
16918SOL    HW252652   5.195   1.359   7.892
16919SOL     OW52653   7.027  12.463   1.554
16919SOL    HW152654   7.039  12.369   1.570
16919SOL    HW252655   7.031  12.471   1.458
16920SOL     OW52656   5.419   1.727   3.280
16920SOL    HW152657   5.456   1.675   3.209
16920SOL    HW252658   5.448   1.682   3.360
16921SOL     OW52659   1.413   6.453  10.754
16921SOL    HW152660   1.370   6.425  10.673
16921SOL    HW252661   1.497   6.489  10.725
16922SOL     OW52662   7.492   4.115  10.079
16922SOL    HW152663   7.524   4.172  10.149
16922SOL    HW252664   7.477   4.174  10.005
16923SOL     OW52665   0.554  14.113   6.665
16923SOL    HW152666   0.613  14.039   6.650
16923SOL    HW252667   0.514  14.129   6.580
16924SOL     OW52668   7.299  11.350  14.541
16924SOL    HW152669   7.333  11.396  14.465
16924SOL    HW252670   7.227  11.297  14.506
16925SOL     OW52671  14.382  10.747  10.503
16925SOL    HW152672  14.439  10.756  10.580
16925SOL    HW252673  14.409  10.664  10.463
16926SOL     OW52674   2.809   4.119  10.865
16926SOL    HW152675   2.802   4.132  10.960
16926SOL    HW252676   2.737   4.170  10.829
16927SOL     OW52677  12.758  11.711   9.533
16927SOL    HW152678  12.721  11.650   9.468
16927SOL    HW252679  12.821  11.763   9.483
16928SOL     OW52680  11.226   7.792   9.728
16928SOL    HW152681  11.260   7.766   9.813
16928SOL    HW252682  11.300   7.779   9.668
16929SOL     OW52683   3.349   1.542   8.928
16929SOL    HW152684   3.276   1.603   8.917
16929SOL    HW252685   3.322   1.486   9.001
16930SOL     OW52686   0.916  13.105  12.458
16930SOL    HW152687   0.933  13.197  12.477
16930SOL    HW252688   0.943  13.094  12.367
16931SOL     OW52689  13.893   9.195   5.653
16931SOL    HW152690  13.865   9.249   5.579
16931SOL    HW252691  13.826   9.209   5.720
16932SOL     OW52692   4.661   0.839  12.907
16932SOL    HW152693   4.717   0.899  12.956
16932SOL    HW252694   4.583   0.829  12.962
16933SOL     OW52695   6.372   8.242   9.043
16933SOL    HW152696   6.360   8.317   9.102
16933SOL    HW252697   6.466   8.233   9.035
16934SOL     OW52698   8.591  11.412  11.415
16934SOL    HW152699   8.564  11.378  11.500
16934SOL    HW252700   8.681  11.442  11.429
16935SOL     OW52701   2.040  14.347  13.734
16935SOL    HW152702   2.096  14.271  13.721
16935SOL    HW252703   2.084  14.417  13.686
16936SOL     OW52704   4.103  14.508   0.321
16936SOL    HW152705   4.175  14.478   0.266
16936SOL    HW252706   4.137  14.585   0.365
16937SOL     OW52707   9.551   8.757   4.372
16937SOL    HW152708   9.516   8.782   4.286
16937SOL    HW252709   9.542   8.837   4.425
16938SOL     OW52710  12.358  14.585   0.636
16938SOL    HW152711  12.448  14.598   0.664
16938SOL    HW252712  12.366  14.535   0.554
16939SOL     OW52713   8.022   0.801  11.497
16939SOL    HW152714   8.097   0.763  11.452
16939SOL    HW252715   7.989   0.729  11.551
16940SOL     OW52716   5.468   3.836   4.181
16940SOL    HW152717   5.542   3.897   4.175
16940SOL    HW252718   5.392   3.891   4.193
16941SOL     OW52719   5.001  10.485   6.121
16941SOL    HW152720   4.974  10.404   6.077
16941SOL    HW252721   5.082  10.510   6.076
16942SOL     OW52722  13.428   8.406  13.292
16942SOL    HW152723  13.389   8.342  13.351
16942SOL    HW252724  13.371   8.406  13.215
16943SOL     OW52725  10.882   0.241  13.711
16943SOL    HW152726  10.799   0.252  13.758
16943SOL    HW252727  10.884   0.313  13.649
16944SOL     OW52728   3.400  11.402  10.411
16944SOL    HW152729   3.314  11.438  10.433
16944SOL    HW252730   3.459  11.437  10.477
16945SOL     OW52731   0.740   0.926   0.088
16945SOL    HW152732   0.656   0.894   0.053
16945SOL    HW252733   0.806   0.871   0.045
16946SOL     OW52734  12.323   6.961  11.224
16946SOL    HW152735  12.344   6.868  11.217
16946SOL    HW252736  12.371   6.992  11.301
16947SOL     OW52737  10.682   9.634  10.521
16947SOL    HW152738  10.608   9.598  10.471
16947SOL    HW252739  10.755   9.635  10.458
16948SOL     OW52740  14.755   4.435  11.718
16948SOL    HW152741  14.741   4.397  11.804
16948SOL    HW252742  14.676   4.487  11.702
16949SOL     OW52743   3.460   3.261  13.179
16949SOL    HW152744   3.485   3.353  13.166
16949SOL    HW252745   3.446   3.252  13.273
16950SOL     OW52746  11.925  14.025   2.372
16950SOL    HW152747  12.014  14.019   2.337
16950SOL    HW252748  11.900  14.116   2.355
16951SOL     OW52749   3.296  13.605   5.667
16951SOL    HW152750   3.314  13.652   5.748
16951SOL    HW252751   3.246  13.666   5.613
16952SOL     OW52752   6.287   0.510  10.464
16952SOL    HW152753   6.322   0.461  10.389
16952SOL    HW252754   6.247   0.587  10.425
16953SOL     OW52755   3.039   5.242   4.356
16953SOL    HW152756   2.952   5.223   4.391
16953SOL    HW252757   3.030   5.326   4.312
16954SOL     OW52758   7.825   0.491   0.233
16954SOL    HW152759   7.790   0.405   0.257
16954SOL    HW252760   7.765   0.554   0.273
16955SOL     OW52761   1.955   8.846   8.399
16955SOL    HW152762   1.921   8.887   8.479
16955SOL    HW252763   2.050   8.841   8.412
16956SOL     OW52764   6.939   6.629   4.133
16956SOL    HW152765   6.869   6.608   4.070
16956SOL    HW252766   6.898   6.621   4.218
16957SOL     OW52767  11.701   2.999   7.292
16957SOL    HW152768  11.786   2.979   7.330
16957SOL    HW252769  11.638   2.964   7.355
16958SOL     OW52770   9.076  10.671   2.426
16958SOL    HW152771   9.085  10.628   2.341
16958SOL    HW252772   8.984  10.694   2.432
16959SOL     OW52773   2.410  12.375   5.766
16959SOL    HW152774   2.320  12.343   5.764
16959SOL    HW252775   2.430  12.398   5.675
16960SOL     OW52776   3.074   2.414   4.029
16960SOL    HW152777   3.147   2.398   4.088
16960SOL    HW252778   3.009   2.347   4.051
16961SOL     OW52779   4.095  11.869   4.794
16961SOL    HW152780   4.001  11.851   4.803
16961SOL    HW252781   4.119  11.830   4.710
16962SOL     OW52782   6.661  10.430   0.454
16962SOL    HW152783   6.708  10.487   0.393
16962SOL    HW252784   6.586  10.481   0.483
16963SOL     OW52785  14.755   6.760   8.174
16963SOL    HW152786  14.734   6.850   8.197
16963SOL    HW252787  14.724   6.750   8.084
16964SOL     OW52788   3.221   1.140   3.835
16964SOL    HW152789   3.236   1.182   3.750
16964SOL    HW252790   3.277   1.188   3.896
16965SOL     OW52791   0.197  14.242   9.332
16965SOL    HW152792   0.281  14.288   9.328
16965SOL    HW252793   0.180  14.230   9.425
16966SOL     OW52794   1.258   1.823  13.899
16966SOL    HW152795   1.260   1.898  13.958
16966SOL    HW252796   1.308   1.755  13.944
16967SOL     OW52797  10.935  11.808  10.573
16967SOL    HW152798  10.899  11.737  10.521
16967SOL    HW252799  10.954  11.877  10.510
16968SOL     OW52800   7.086   0.071  11.057
16968SOL    HW152801   7.062   0.102  11.144
16968SOL    HW252802   7.040   0.130  10.997
16969SOL     OW52803  12.690  10.441   9.198
16969SOL    HW152804  12.604  10.436   9.240
16969SOL    HW252805  12.716  10.533   9.205
16970SOL     OW52806   7.651   8.164   1.081
16970SOL    HW152807   7.561   8.192   1.066
16970SOL    HW252808   7.650   8.071   1.059
16971SOL     OW52809   3.923  12.302   8.031
16971SOL    HW152810   3.949  12.355   7.956
16971SOL    HW252811   3.970  12.219   8.020
16972SOL     OW52812   3.121   2.997   6.245
16972SOL    HW152813   3.101   3.085   6.276
16972SOL    HW252814   3.202   2.974   6.290
16973SOL     OW52815  14.233  11.087   7.815
16973SOL    HW152816  14.239  11.064   7.907
16973SOL    HW252817  14.285  11.021   7.770
16974SOL     OW52818   0.113   0.664   4.647
16974SOL    HW152819   0.085   0.754   4.663
16974SOL    HW252820   0.204   0.671   4.619
16975SOL     OW52821   3.433  12.081  14.521
16975SOL    HW152822   3.409  12.028  14.445
16975SOL    HW252823   3.446  12.170  14.486
16976SOL     OW52824   0.413   3.896   0.606
16976SOL    HW152825   0.377   3.980   0.577
16976SOL    HW252826   0.508   3.910   0.604
16977SOL     OW52827   8.851   0.002   3.154
16977SOL    HW152828   8.920  14.823   3.187
16977SOL    HW252829   8.771  14.850   3.195
16978SOL     OW52830   9.098  10.202  13.120
16978SOL    HW152831   9.067  10.230  13.034
16978SOL    HW252832   9.166  10.265  13.143
16979SOL     OW52833  13.333   0.208   7.377
16979SOL    HW152834  13.331   0.278   7.311
16979SOL    HW252835  13.332   0.127   7.326
16980SOL     OW52836  13.551  13.675   9.143
16980SOL    HW152837  13.588  13.763   9.149
16980SOL    HW252838  13.581  13.641   9.059
16981SOL     OW52839   7.209   4.167  12.371
16981SOL    HW152840   7.130   4.220  12.359
16981SOL    HW252841   7.248   4.162  12.284
16982SOL     OW52842   4.706  10.814   1.323
16982SOL    HW152843   4.740  10.736   1.280
16982SOL    HW252844   4.782  10.873   1.329
16983SOL     OW52845   3.246   8.892  11.034
16983SOL    HW152846   3.317   8.938  10.990
16983SOL    HW252847   3.288   8.818  11.077
16984SOL     OW52848   7.903   5.704   0.332
16984SOL    HW152849   7.898   5.768   0.403
16984SOL    HW252850   7.873   5.751   0.254
16985SOL     OW52851  13.868  14.391   3.943
16985SOL    HW152852  13.960  14.402   3.919
16985SOL    HW252853  13.837  14.319   3.888
16986SOL     OW52854  13.268   2.456   8.335
16986SOL    HW152855  13.314   2.530   8.375
16986SOL    HW252856  13.302   2.379   8.381
16987SOL     OW52857  10.608  13.440   0.998
16987SOL    HW152858  10.553  13.430   0.921
16987SOL    HW252859  10.563  13.504   1.053
16988SOL     OW52860  11.817   2.743   9.732
16988SOL    HW152861  11.752   2.808   9.759
16988SOL    HW252862  11.770   2.659   9.736
16989SOL     OW52863   1.097   5.311   2.996
16989SOL    HW152864   1.081   5.340   3.086
16989SOL    HW252865   1.117   5.391   2.948
16990SOL     OW52866   7.889   2.416   6.922
16990SOL    HW152867   7.816   2.359   6.897
16990SOL    HW252868   7.894   2.407   7.017
16991SOL     OW52869   0.135  13.907  10.392
16991SOL    HW152870   0.151  13.910  10.298
16991SOL    HW252871   0.045  13.876  10.400
16992SOL     OW52872   5.242   9.960   5.412
16992SOL    HW152873   5.190  10.006   5.478
16992SOL    HW252874   5.333   9.981   5.434
16993SOL     OW52875  12.776   8.041  14.607
16993SOL    HW152876  12.705   8.102  14.627
16993SOL    HW252877  12.774   7.978  14.679
16994SOL     OW52878   1.126   5.411   0.089
16994SOL    HW152879   1.128   5.362   0.007
16994SOL    HW252880   1.086   5.495   0.066
16995SOL     OW52881  13.896  14.537   3.165
16995SOL    HW152882  13.844  14.530   3.085
16995SOL    HW252883  13.959  14.465   3.158
16996SOL     OW52884  11.709   4.705   4.390
16996SOL    HW152885  11.707   4.775   4.455
16996SOL    HW252886  11.789   4.721   4.339
16997SOL     OW52887  14.765   6.039   8.942
16997SOL    HW152888  14.762   6.135   8.942
16997SOL    HW252889  14.858   6.018   8.944
16998SOL     OW52890   1.250   9.460   3.584
16998SOL    HW152891   1.280   9.471   3.493
16998SOL    HW252892   1.209   9.373   3.585
16999SOL     OW52893   8.892   8.687  10.845
16999SOL    HW152894   8.858   8.642  10.922
16999SOL    HW252895   8.814   8.713  10.796
17000SOL     OW52896   9.400   1.292  11.885
17000SOL    HW152897   9.352   1.359  11.934
17000SOL    HW252898   9.337   1.220  11.875
17001SOL     OW52899   3.291   3.009   6.755
17001SOL    HW152900   3.378   3.022   6.716
17001SOL    HW252901   3.278   3.086   6.810
17002SOL     OW52902   5.243  11.331   6.778
17002SOL    HW152903   5.174  11.271   6.807
17002SOL    HW252904   5.220  11.415   6.818
17003SOL     OW52905   9.443   8.757  13.052
17003SOL    HW152906   9.390   8.815  13.106
17003SOL    HW252907   9.396   8.754  12.968
17004SOL     OW52908  12.795   5.217  11.653
17004SOL    HW152909  12.749   5.236  11.571
17004SOL    HW252910  12.725   5.216  11.719
17005SOL     OW52911  11.651   3.553   2.702
17005SOL    HW152912  11.651   3.546   2.606
17005SOL    HW252913  11.587   3.488   2.731
17006SOL     OW52914   1.223   9.256   7.814
17006SOL    HW152915   1.257   9.199   7.746
17006SOL    HW252916   1.172   9.198   7.871
17007SOL     OW52917   6.757   5.605   3.512
17007SOL    HW152918   6.708   5.529   3.541
17007SOL    HW252919   6.694   5.657   3.462
17008SOL     OW52920   9.759   3.700   1.186
17008SOL    HW152921   9.823   3.763   1.217
17008SOL    HW252922   9.728   3.656   1.265
17009SOL     OW52923   0.712   0.692  11.427
17009SOL    HW152924   0.678   0.630  11.362
17009SOL    HW252925   0.643   0.697  11.493
17010SOL     OW52926   5.688  10.196  12.568
17010SOL    HW152927   5.766  10.145  12.546
17010SOL    HW252928   5.618  10.157  12.516
17011SOL     OW52929   5.141  12.443   7.715
17011SOL    HW152930   5.056  12.471   7.748
17011SOL    HW252931   5.146  12.480   7.627
17012SOL     OW52932   1.646  11.846  11.168
17012SOL    HW152933   1.722  11.788  11.159
17012SOL    HW252934   1.676  11.914  11.228
17013SOL     OW52935   8.941  14.200   7.242
17013SOL    HW152936   8.850  14.207   7.270
17013SOL    HW252937   8.953  14.107   7.222
17014SOL     OW52938  10.868   0.728   9.370
17014SOL    HW152939  10.956   0.762   9.356
17014SOL    HW252940  10.827   0.792   9.430
17015SOL     OW52941   6.022  14.215   3.758
17015SOL    HW152942   5.995  14.202   3.848
17015SOL    HW252943   6.026  14.310   3.748
17016SOL     OW52944   8.152  13.511   3.638
17016SOL    HW152945   8.130  13.466   3.556
17016SOL    HW252946   8.235  13.555   3.620
17017SOL     OW52947   9.910  11.880   6.027
17017SOL    HW152948   9.838  11.895   5.965
17017SOL    HW252949   9.940  11.791   6.007
17018SOL     OW52950   2.521   1.882  13.598
17018SOL    HW152951   2.591   1.887  13.663
17018SOL    HW252952   2.466   1.809  13.627
17019SOL     OW52953  12.920   4.851  12.035
17019SOL    HW152954  12.838   4.858  12.084
17019SOL    HW252955  12.898   4.887  11.948
17020SOL     OW52956   6.264   1.900   1.641
17020SOL    HW152957   6.309   1.984   1.630
17020SOL    HW252958   6.245   1.894   1.734
17021SOL     OW52959   5.100   6.230  11.210
17021SOL    HW152960   5.179   6.246  11.157
17021SOL    HW252961   5.122   6.152  11.262
17022SOL     OW52962  11.208  14.274  12.576
17022SOL    HW152963  11.216  14.250  12.483
17022SOL    HW252964  11.120  14.312  12.582
17023SOL     OW52965   2.348   6.530   1.562
17023SOL    HW152966   2.299   6.472   1.621
17023SOL    HW252967   2.423   6.558   1.614
17024SOL     OW52968   0.353  13.565   2.226
17024SOL    HW152969   0.344  13.486   2.279
17024SOL    HW252970   0.276  13.564   2.169
17025SOL     OW52971   5.354   0.968  11.877
17025SOL    HW152972   5.424   1.026  11.905
17025SOL    HW252973   5.274   1.006  11.914
17026SOL     OW52974  13.070   1.600  12.003
17026SOL    HW152975  13.095   1.511  11.978
17026SOL    HW252976  13.152   1.644  12.023
17027SOL     OW52977   2.474   8.657  13.030
17027SOL    HW152978   2.505   8.567  13.019
17027SOL    HW252979   2.519   8.707  12.962
17028SOL     OW52980  10.668  14.071   6.782
17028SOL    HW152981  10.674  14.166   6.786
17028SOL    HW252982  10.619  14.047   6.860
17029SOL     OW52983  10.634   4.013   1.031
17029SOL    HW152984  10.671   4.076   0.969
17029SOL    HW252985  10.651   4.052   1.117
17030SOL     OW52986  12.034   4.694   9.117
17030SOL    HW152987  12.013   4.689   9.024
17030SOL    HW252988  12.038   4.602   9.145
17031SOL     OW52989  14.410   5.809  10.146
17031SOL    HW152990  14.496   5.826  10.184
17031SOL    HW252991  14.423   5.730  10.093
17032SOL     OW52992   0.832   5.772   6.566
17032SOL    HW152993   0.896   5.706   6.592
17032SOL    HW252994   0.747   5.731   6.582
17033SOL     OW52995  13.826   3.029   8.096
17033SOL    HW152996  13.915   3.012   8.128
17033SOL    HW252997  13.836   3.040   8.002
17034SOL     OW52998  11.568   3.767   4.960
17034SOL    HW152999  11.644   3.769   5.019
17034SOL    HW253000  11.585   3.694   4.901
17035SOL     OW53001   4.630  11.144  14.784
17035SOL    HW153002   4.591  11.158  14.871
17035SOL    HW253003   4.558  11.111  14.731
17036SOL     OW53004   8.398  14.679   9.031
17036SOL    HW153005   8.382  14.730   8.952
17036SOL    HW253006   8.318  14.687   9.082
17037SOL     OW53007   1.326  14.597  11.526
17037SOL    HW153008   1.393  14.533  11.503
17037SOL    HW253009   1.369  14.656  11.588
17038SOL     OW53010   1.348   6.323   5.823
17038SOL    HW153011   1.354   6.410   5.784
17038SOL    HW253012   1.438   6.296   5.839
17039SOL     OW53013   3.272  14.341   2.250
17039SOL    HW153014   3.320  14.320   2.330
17039SOL    HW253015   3.180  14.336   2.275
17040SOL     OW53016   6.226  11.347  11.581
17040SOL    HW153017   6.143  11.349  11.629
17040SOL    HW253018   6.281  11.411  11.626
17041SOL     OW53019   4.397   3.636   4.266
17041SOL    HW153020   4.457   3.696   4.222
17041SOL    HW253021   4.449   3.558   4.283
17042SOL     OW53022   8.930   3.152  13.212
17042SOL    HW153023   8.853   3.185  13.259
17042SOL    HW253024   8.955   3.073  13.259
17043SOL     OW53025  14.365   8.528  11.954
17043SOL    HW153026  14.282   8.569  11.979
17043SOL    HW253027  14.432   8.578  12.001
17044SOL     OW53028   5.211   6.428  10.382
17044SOL    HW153029   5.289   6.439  10.328
17044SOL    HW253030   5.229   6.479  10.461
17045SOL     OW53031   4.983   1.033   2.529
17045SOL    HW153032   5.035   1.094   2.477
17045SOL    HW253033   4.986   0.951   2.479
17046SOL     OW53034   2.733   4.895  10.329
17046SOL    HW153035   2.650   4.847  10.323
17046SOL    HW253036   2.711   4.973  10.380
17047SOL     OW53037   3.365   9.563   1.994
17047SOL    HW153038   3.458   9.584   2.002
17047SOL    HW253039   3.325   9.640   1.954
17048SOL     OW53040  13.225  13.598   2.439
17048SOL    HW153041  13.279  13.526   2.405
17048SOL    HW253042  13.254  13.609   2.529
17049SOL     OW53043  12.697  10.093   2.224
17049SOL    HW153044  12.746  10.175   2.234
17049SOL    HW253045  12.628  10.113   2.161
17050SOL     OW53046  13.726   3.134  11.942
17050SOL    HW153047  13.637   3.165  11.927
17050SOL    HW253048  13.781   3.213  11.932
17051SOL     OW53049   3.192  11.358  13.225
17051SOL    HW153050   3.202  11.311  13.308
17051SOL    HW253051   3.278  11.352  13.184
17052SOL     OW53052   9.130  14.352  12.435
17052SOL    HW153053   9.107  14.259  12.429
17052SOL    HW253054   9.049  14.398  12.414
17053SOL     OW53055   6.592  12.768   8.833
17053SOL    HW153056   6.509  12.731   8.865
17053SOL    HW253057   6.578  12.780   8.739
17054SOL     OW53058   8.284  14.601  13.370
17054SOL    HW153059   8.235  14.566  13.444
17054SOL    HW253060   8.235  14.679  13.343
17055SOL     OW53061   5.874   6.867   7.927
17055SOL    HW153062   5.836   6.955   7.931
17055SOL    HW253063   5.925   6.859   8.008
17056SOL     OW53064   3.060   9.015  13.259
17056SOL    HW153065   3.086   9.047  13.172
17056SOL    HW253066   2.977   9.060  13.276
17057SOL     OW53067   1.430   8.016  14.780
17057SOL    HW153068   1.349   7.970  14.761
17057SOL    HW253069   1.407   8.078  14.849
17058SOL     OW53070  10.871   3.297   5.137
17058SOL    HW153071  10.862   3.303   5.042
17058SOL    HW253072  10.935   3.227   5.151
17059SOL     OW53073   0.140  11.034  10.915
17059SOL    HW153074   0.148  11.129  10.920
17059SOL    HW253075   0.045  11.019  10.914
17060SOL     OW53076   3.317  10.158   7.317
17060SOL    HW153077   3.307  10.062   7.319
17060SOL    HW253078   3.351  10.180   7.404
17061SOL     OW53079  13.504   2.529  10.341
17061SOL    HW153080  13.549   2.582  10.275
17061SOL    HW253081  13.566   2.458  10.361
17062SOL     OW53082  13.806   8.835  10.684
17062SOL    HW153083  13.780   8.827  10.593
17062SOL    HW253084  13.873   8.903  10.685
17063SOL     OW53085   9.681   4.333   1.481
17063SOL    HW153086   9.696   4.391   1.556
17063SOL    HW253087   9.767   4.297   1.462
17064SOL     OW53088  10.860   4.009   9.947
17064SOL    HW153089  10.814   4.092   9.955
17064SOL    HW253090  10.867   3.995   9.852
17065SOL     OW53091   7.569   2.982  14.850
17065SOL    HW153092   7.541   2.896   0.003
17065SOL    HW253093   7.488   3.032  14.842
17066SOL     OW53094   9.057   4.831   9.283
17066SOL    HW153095   9.139   4.841   9.235
17066SOL    HW253096   9.053   4.738   9.306
17067SOL     OW53097  14.075  12.246  14.808
17067SOL    HW153098  13.986  12.222  14.783
17067SOL    HW253099  14.131  12.191  14.753
17068SOL     OW53100   9.636   3.205  14.121
17068SOL    HW153101   9.685   3.135  14.164
17068SOL    HW253102   9.583   3.245  14.190
17069SOL     OW53103   1.135   5.569  10.370
17069SOL    HW153104   1.130   5.655  10.328
17069SOL    HW253105   1.216   5.573  10.421
17070SOL     OW53106   5.778   2.572   4.504
17070SOL    HW153107   5.853   2.629   4.486
17070SOL    HW253108   5.810   2.510   4.570
17071SOL     OW53109   0.496   6.245  14.641
17071SOL    HW153110   0.406   6.260  14.613
17071SOL    HW253111   0.507   6.303  14.717
17072SOL     OW53112   0.998   8.262   1.221
17072SOL    HW153113   1.032   8.347   1.192
17072SOL    HW253114   0.941   8.234   1.149
17073SOL     OW53115   3.464   4.161   8.799
17073SOL    HW153116   3.377   4.199   8.801
17073SOL    HW253117   3.517   4.224   8.750
17074SOL     OW53118   7.159   1.764   6.512
17074SOL    HW153119   7.089   1.751   6.448
17074SOL    HW253120   7.123   1.828   6.574
17075SOL     OW53121   2.020   6.710   5.365
17075SOL    HW153122   1.961   6.645   5.401
17075SOL    HW253123   2.006   6.706   5.270
17076SOL     OW53124   8.720   4.340   5.253
17076SOL    HW153125   8.639   4.321   5.299
17076SOL    HW253126   8.711   4.296   5.169
17077SOL     OW53127   9.134   2.116   6.878
17077SOL    HW153128   9.142   2.204   6.841
17077SOL    HW253129   9.118   2.060   6.802
17078SOL     OW53130  12.253   0.430   9.535
17078SOL    HW153131  12.170   0.427   9.487
17078SOL    HW253132  12.295   0.346   9.514
17079SOL     OW53133   0.461   1.619   6.391
17079SOL    HW153134   0.515   1.678   6.338
17079SOL    HW253135   0.523   1.557   6.429
17080SOL     OW53136   8.452   5.176   4.738
17080SOL    HW153137   8.400   5.145   4.664
17080SOL    HW253138   8.541   5.145   4.718
17081SOL     OW53139  12.703   7.138  13.068
17081SOL    HW153140  12.668   7.180  13.147
17081SOL    HW253141  12.655   7.055  13.062
17082SOL     OW53142  14.209   1.510   1.204
17082SOL    HW153143  14.199   1.602   1.230
17082SOL    HW253144  14.130   1.467   1.238
17083SOL     OW53145   0.383  13.467   4.780
17083SOL    HW153146   0.320  13.439   4.714
17083SOL    HW253147   0.452  13.400   4.777
17084SOL     OW53148   0.484   9.268   7.839
17084SOL    HW153149   0.392   9.241   7.837
17084SOL    HW253150   0.499   9.308   7.754
17085SOL     OW53151   4.772  11.600   1.366
17085SOL    HW153152   4.786  11.642   1.451
17085SOL    HW253153   4.861  11.586   1.332
17086SOL     OW53154   0.761  11.894  11.634
17086SOL    HW153155   0.753  11.813  11.584
17086SOL    HW253156   0.822  11.947  11.583
17087SOL     OW53157   9.193   8.598  12.134
17087SOL    HW153158   9.158   8.602  12.045
17087SOL    HW253159   9.259   8.667  12.138
17088SOL     OW53160   3.478   4.350   0.108
17088SOL    HW153161   3.462   4.317   0.020
17088SOL    HW253162   3.470   4.273   0.165
17089SOL     OW53163  14.497  10.460   1.915
17089SOL    HW153164  14.434  10.456   1.987
17089SOL    HW253165  14.443  10.472   1.836
17090SOL     OW53166  13.110   5.050   2.063
17090SOL    HW153167  13.131   5.014   2.149
17090SOL    HW253168  13.044   5.118   2.081
17091SOL     OW53169   9.592   3.172   1.995
17091SOL    HW153170   9.655   3.160   2.067
17091SOL    HW253171   9.632   3.126   1.921
17092SOL     OW53172  10.473  14.374  10.256
17092SOL    HW153173  10.514  14.438  10.314
17092SOL    HW253174  10.402  14.422  10.213
17093SOL     OW53175  14.476   0.666   2.828
17093SOL    HW153176  14.403   0.635   2.882
17093SOL    HW253177  14.537   0.705   2.890
17094SOL     OW53178  10.786  10.312   3.680
17094SOL    HW153179  10.746  10.272   3.757
17094SOL    HW253180  10.880  10.300   3.692
17095SOL     OW53181   1.612   6.643  12.131
17095SOL    HW153182   1.676   6.592  12.083
17095SOL    HW253183   1.623   6.617  12.222
17096SOL     OW53184  11.698   3.518   3.190
17096SOL    HW153185  11.778   3.513   3.139
17096SOL    HW253186  11.703   3.603   3.235
17097SOL     OW53187   2.431  12.077   8.195
17097SOL    HW153188   2.452  12.159   8.149
17097SOL    HW253189   2.345  12.091   8.233
17098SOL     OW53190   0.995   5.184   4.669
17098SOL    HW153191   1.009   5.179   4.575
17098SOL    HW253192   1.015   5.096   4.701
17099SOL     OW53193  14.368   6.114  13.317
17099SOL    HW153194  14.388   6.092  13.408
17099SOL    HW253195  14.277   6.143  13.319
17100SOL     OW53196  10.693  14.768  12.259
17100SOL    HW153197  10.748  14.837  12.223
17100SOL    HW253198  10.742  14.735  12.335
17101SOL     OW53199   9.760   1.456   1.217
17101SOL    HW153200   9.692   1.523   1.210
17101SOL    HW253201   9.725   1.382   1.167
17102SOL     OW53202   5.387   0.638   3.925
17102SOL    HW153203   5.480   0.622   3.911
17102SOL    HW253204   5.348   0.632   3.838
17103SOL     OW53205   1.328  13.294   7.778
17103SOL    HW153206   1.349  13.387   7.783
17103SOL    HW253207   1.253  13.290   7.718
17104SOL     OW53208   5.911   6.635   2.939
17104SOL    HW153209   5.964   6.714   2.935
17104SOL    HW253210   5.975   6.564   2.947
17105SOL     OW53211   5.306   6.048   6.502
17105SOL    HW153212   5.300   6.057   6.407
17105SOL    HW253213   5.241   6.109   6.536
17106SOL     OW53214   5.939  13.450  11.134
17106SOL    HW153215   5.876  13.378  11.126
17106SOL    HW253216   6.006  13.416  11.195
17107SOL     OW53217   6.099  10.371   2.729
17107SOL    HW153218   6.075  10.449   2.679
17107SOL    HW253219   6.021  10.350   2.780
17108SOL     OW53220  11.788   2.962   2.809
17108SOL    HW153221  11.850   2.972   2.881
17108SOL    HW253222  11.704   2.947   2.851
17109SOL     OW53223   6.596   9.428  12.170
17109SOL    HW153224   6.528   9.495  12.168
17109SOL    HW253225   6.653   9.453  12.242
17110SOL     OW53226   4.335  11.443  11.275
17110SOL    HW153227   4.289  11.445  11.192
17110SOL    HW253228   4.359  11.534  11.292
17111SOL     OW53229   2.933   0.762  10.770
17111SOL    HW153230   2.896   0.734  10.686
17111SOL    HW253231   2.896   0.849  10.785
17112SOL     OW53232  10.225   1.811  13.708
17112SOL    HW153233  10.306   1.773  13.740
17112SOL    HW253234  10.183   1.741  13.657
17113SOL     OW53235   7.152  10.309  13.816
17113SOL    HW153236   7.118  10.348  13.735
17113SOL    HW253237   7.170  10.218  13.792
17114SOL     OW53238  11.788   3.728   9.650
17114SOL    HW153239  11.717   3.664   9.642
17114SOL    HW253240  11.745   3.808   9.678
17115SOL     OW53241  14.406  14.252   9.194
17115SOL    HW153242  14.423  14.188   9.264
17115SOL    HW253243  14.446  14.333   9.226
17116SOL     OW53244   1.454   5.579   3.965
17116SOL    HW153245   1.401   5.658   3.976
17116SOL    HW253246   1.544   5.611   3.955
17117SOL     OW53247   9.589  13.965   8.318
17117SOL    HW153248   9.578  14.031   8.249
17117SOL    HW253249   9.596  13.883   8.270
17118SOL     OW53250   9.532  11.526   7.544
17118SOL    HW153251   9.493  11.610   7.567
17118SOL    HW253252   9.577  11.542   7.461
17119SOL     OW53253   9.001  12.145   9.626
17119SOL    HW153254   8.956  12.062   9.616
17119SOL    HW253255   9.048  12.137   9.709
17120SOL     OW53256   1.244   0.084   6.193
17120SOL    HW153257   1.324   0.136   6.181
17120SOL    HW253258   1.219   0.100   6.284
17121SOL     OW53259   9.439   0.356   0.491
17121SOL    HW153260   9.349   0.370   0.520
17121SOL    HW253261   9.454   0.425   0.427
17122SOL     OW53262   0.195   3.628   4.276
17122SOL    HW153263   0.195   3.706   4.330
17122SOL    HW253264   0.287   3.606   4.265
17123SOL     OW53265  10.084   9.211   4.502
17123SOL    HW153266  10.107   9.144   4.438
17123SOL    HW253267  10.162   9.266   4.509
17124SOL     OW53268   9.730   9.933   0.901
17124SOL    HW153269   9.727  10.025   0.873
17124SOL    HW253270   9.638   9.905   0.902
17125SOL     OW53271  12.333   6.527   7.804
17125SOL    HW153272  12.250   6.482   7.820
17125SOL    HW253273  12.388   6.460   7.761
17126SOL     OW53274   8.130  14.111   8.108
17126SOL    HW153275   8.177  14.190   8.133
17126SOL    HW253276   8.043  14.142   8.081
17127SOL     OW53277   1.319   2.936   2.647
17127SOL    HW153278   1.409   2.926   2.675
17127SOL    HW253279   1.270   2.956   2.727
17128SOL     OW53280   5.060   8.818   0.856
17128SOL    HW153281   4.977   8.839   0.813
17128SOL    HW253282   5.100   8.903   0.873
17129SOL     OW53283  14.778  14.596  14.639
17129SOL    HW153284  14.730  14.651  14.577
17129SOL    HW253285  14.858  14.571  14.592
17130SOL     OW53286   3.258   9.068  13.772
17130SOL    HW153287   3.280   9.076  13.680
17130SOL    HW253288   3.165   9.046  13.772
17131SOL     OW53289  10.961   0.272   7.844
17131SOL    HW153290  10.993   0.182   7.850
17131SOL    HW253291  11.013   0.311   7.774
17132SOL     OW53292  12.023  10.948   4.138
17132SOL    HW153293  12.058  10.896   4.066
17132SOL    HW253294  11.930  10.925   4.141
17133SOL     OW53295  13.762  14.494   1.419
17133SOL    HW153296  13.857  14.505   1.421
17133SOL    HW253297  13.732  14.552   1.348
17134SOL     OW53298  14.031   5.023  14.312
17134SOL    HW153299  14.110   5.028  14.366
17134SOL    HW253300  13.960   5.044  14.371
17135SOL     OW53301   6.555   7.804  11.296
17135SOL    HW153302   6.542   7.780  11.388
17135SOL    HW253303   6.640   7.764  11.273
17136SOL     OW53304   4.767   9.736   6.734
17136SOL    HW153305   4.736   9.647   6.715
17136SOL    HW253306   4.855   9.724   6.768
17137SOL     OW53307   3.575   2.701   2.734
17137SOL    HW153308   3.496   2.657   2.763
17137SOL    HW253309   3.546   2.761   2.666
17138SOL     OW53310   7.537  14.639  14.613
17138SOL    HW153311   7.524  14.705  14.682
17138SOL    HW253312   7.632  14.637  14.600
17139SOL     OW53313   0.926   8.947   6.717
17139SOL    HW153314   0.851   8.932   6.660
17139SOL    HW253315   0.967   9.027   6.682
17140SOL     OW53316   6.155   5.415   3.775
17140SOL    HW153317   6.120   5.482   3.717
17140SOL    HW253318   6.081   5.391   3.831
17141SOL     OW53319  13.256  12.221  10.811
17141SOL    HW153320  13.272  12.300  10.760
17141SOL    HW253321  13.238  12.252  10.900
17142SOL     OW53322   5.445   5.301  11.702
17142SOL    HW153323   5.415   5.212  11.721
17142SOL    HW253324   5.383   5.357  11.747
17143SOL     OW53325   7.719   1.508  10.152
17143SOL    HW153326   7.645   1.450  10.171
17143SOL    HW253327   7.739   1.550  10.236
17144SOL     OW53328  14.155  14.297   4.831
17144SOL    HW153329  14.113  14.383   4.831
17144SOL    HW253330  14.221  14.302   4.762
17145SOL     OW53331   4.188   5.105   3.174
17145SOL    HW153332   4.096   5.129   3.164
17145SOL    HW253333   4.190   5.011   3.159
17146SOL     OW53334   8.135   8.213  12.287
17146SOL    HW153335   8.148   8.168  12.203
17146SOL    HW253336   8.222   8.212  12.328
17147SOL     OW53337   5.203   7.486   0.866
17147SOL    HW153338   5.222   7.395   0.888
17147SOL    HW253339   5.213   7.534   0.948
17148SOL     OW53340  10.611   0.866   5.541
17148SOL    HW153341  10.636   0.918   5.617
17148SOL    HW253342  10.691   0.861   5.488
17149SOL     OW53343   2.902  11.749   0.098
17149SOL    HW153344   2.833  11.740   0.031
17149SOL    HW253345   2.854  11.760   0.180
17150SOL     OW53346   5.547   0.129   0.559
17150SOL    HW153347   5.552   0.142   0.654
17150SOL    HW253348   5.463   0.084   0.545
17151SOL     OW53349   1.961   6.201   6.281
17151SOL    HW153350   1.975   6.116   6.240
17151SOL    HW253351   1.960   6.183   6.375
17152SOL     OW53352  12.323   2.783   0.504
17152SOL    HW153353  12.369   2.735   0.572
17152SOL    HW253354  12.231   2.763   0.517
17153SOL     OW53355  12.573  11.070   0.309
17153SOL    HW153356  12.549  10.977   0.307
17153SOL    HW253357  12.650  11.073   0.365
17154SOL     OW53358   1.930   8.450  13.273
17154SOL    HW153359   1.979   8.531  13.262
17154SOL    HW253360   1.844   8.469  13.235
17155SOL     OW53361   3.181   6.202  10.444
17155SOL    HW153362   3.232   6.270  10.489
17155SOL    HW253363   3.091   6.218  10.473
17156SOL     OW53364   8.178   3.196   3.445
17156SOL    HW153365   8.162   3.106   3.472
17156SOL    HW253366   8.192   3.244   3.527
17157SOL     OW53367   6.269   5.481  14.526
17157SOL    HW153368   6.353   5.436  14.518
17157SOL    HW253369   6.231   5.445  14.606
17158SOL     OW53370   2.772   2.373  10.082
17158SOL    HW153371   2.696   2.315  10.082
17158SOL    HW253372   2.736   2.460  10.098
17159SOL     OW53373   1.420  10.176  13.985
17159SOL    HW153374   1.340  10.197  14.033
17159SOL    HW253375   1.411  10.223  13.902
17160SOL     OW53376   2.304  11.571  11.331
17160SOL    HW153377   2.389  11.529  11.319
17160SOL    HW253378   2.263  11.523  11.403
17161SOL     OW53379   0.077   5.647  13.347
17161SOL    HW153380  14.868   5.670  13.372
17161SOL    HW253381   0.133   5.702  13.402
17162SOL     OW53382  12.841   2.372   5.996
17162SOL    HW153383  12.912   2.353   5.935
17162SOL    HW253384  12.763   2.335   5.954
17163SOL     OW53385  10.552   9.654   6.455
17163SOL    HW153386  10.503   9.705   6.392
17163SOL    HW253387  10.561   9.711   6.532
17164SOL     OW53388   4.737  10.948   0.220
17164SOL    HW153389   4.801  10.932   0.149
17164SOL    HW253390   4.736  11.043   0.231
17165SOL     OW53391   6.927   3.685   2.431
17165SOL    HW153392   7.010   3.706   2.474
17165SOL    HW253393   6.900   3.767   2.390
17166SOL     OW53394   3.939  10.832   0.242
17166SOL    HW153395   3.905  10.751   0.279
17166SOL    HW253396   4.031  10.835   0.269
17167SOL     OW53397  11.375   8.893  14.787
17167SOL    HW153398  11.297   8.917  14.737
17167SOL    HW253399  11.380   8.797  14.780
17168SOL     OW53400   1.901  10.080  14.524
17168SOL    HW153401   1.980  10.052  14.570
17168SOL    HW253402   1.830  10.065  14.586
17169SOL     OW53403   0.914   6.198  12.748
17169SOL    HW153404   0.846   6.147  12.704
17169SOL    HW253405   0.977   6.132  12.779
17170SOL     OW53406   5.706   4.440   2.891
17170SOL    HW153407   5.728   4.450   2.984
17170SOL    HW253408   5.659   4.521   2.869
17171SOL     OW53409  14.772  14.458  14.225
17171SOL    HW153410  14.697  14.399  14.217
17171SOL    HW253411  14.780  14.473  14.319
17172SOL     OW53412   5.065  14.265   0.958
17172SOL    HW153413   5.128  14.336   0.956
17172SOL    HW253414   4.980  14.308   0.951
17173SOL     OW53415   1.857   9.429   6.286
17173SOL    HW153416   1.928   9.471   6.335
17173SOL    HW253417   1.807   9.503   6.251
17174SOL     OW53418   7.633   4.024   2.097
17174SOL    HW153419   7.611   4.109   2.137
17174SOL    HW253420   7.636   4.042   2.003
17175SOL     OW53421   3.869   3.335   9.127
17175SOL    HW153422   3.903   3.251   9.095
17175SOL    HW253423   3.838   3.379   9.047
17176SOL     OW53424   1.133   4.649   0.225
17176SOL    HW153425   1.174   4.615   0.145
17176SOL    HW253426   1.155   4.742   0.225
17177SOL     OW53427   9.853  13.692  12.500
17177SOL    HW153428   9.804  13.641  12.436
17177SOL    HW253429   9.929  13.638  12.521
17178SOL     OW53430   8.620  13.081   5.730
17178SOL    HW153431   8.705  13.110   5.696
17178SOL    HW253432   8.640  13.046   5.817
17179SOL     OW53433   9.980  13.345  13.603
17179SOL    HW153434  10.014  13.355  13.514
17179SOL    HW253435   9.985  13.250  13.619
17180SOL     OW53436   6.722   1.884   0.472
17180SOL    HW153437   6.799   1.834   0.446
17180SOL    HW253438   6.749   1.976   0.466
17181SOL     OW53439  10.080   2.590   0.418
17181SOL    HW153440  10.125   2.530   0.359
17181SOL    HW253441  10.085   2.548   0.504
17182SOL     OW53442   4.999   8.084   5.041
17182SOL    HW153443   4.908   8.097   5.065
17182SOL    HW253444   5.042   8.056   5.122
17183SOL     OW53445   5.523   0.568  14.651
17183SOL    HW153446   5.577   0.516  14.711
17183SOL    HW253447   5.458   0.609  14.707
17184SOL     OW53448  10.070   0.463  14.819
17184SOL    HW153449  10.155   0.420  14.831
17184SOL    HW253450  10.092   0.557  14.815
17185SOL     OW53451   9.191   8.611   0.294
17185SOL    HW153452   9.253   8.593   0.366
17185SOL    HW253453   9.123   8.545   0.305
17186SOL     OW53454   6.441   4.830   5.846
17186SOL    HW153455   6.484   4.846   5.762
17186SOL    HW253456   6.428   4.917   5.883
17187SOL     OW53457   3.982  10.469   7.195
17187SOL    HW153458   4.037  10.493   7.270
17187SOL    HW253459   3.985  10.373   7.194
17188SOL     OW53460  10.890   5.239  14.685
17188SOL    HW153461  10.809   5.188  14.688
17188SOL    HW253462  10.940   5.201  14.613
17189SOL     OW53463   4.470   1.125   2.793
17189SOL    HW153464   4.415   1.070   2.738
17189SOL    HW253465   4.524   1.064   2.842
17190SOL     OW53466   2.076  11.815   1.136
17190SOL    HW153467   2.059  11.908   1.125
17190SOL    HW253468   2.113  11.787   1.052
17191SOL     OW53469   0.851   8.674   3.841
17191SOL    HW153470   0.763   8.675   3.802
17191SOL    HW253471   0.877   8.582   3.840
17192SOL     OW53472   8.292   4.985   3.303
17192SOL    HW153473   8.262   4.895   3.310
17192SOL    HW253474   8.284   5.021   3.391
17193SOL     OW53475   2.651   8.487   4.433
17193SOL    HW153476   2.715   8.538   4.482
17193SOL    HW253477   2.571   8.492   4.485
17194SOL     OW53478  12.726   4.104  12.783
17194SOL    HW153479  12.700   4.033  12.724
17194SOL    HW253480  12.821   4.111  12.771
17195SOL     OW53481   8.064  12.724  13.639
17195SOL    HW153482   8.054  12.798  13.698
17195SOL    HW253483   8.006  12.657  13.673
17196SOL     OW53484   8.446   4.135  14.166
17196SOL    HW153485   8.381   4.068  14.144
17196SOL    HW253486   8.498   4.144  14.086
17197SOL     OW53487   2.142  12.433  11.557
17197SOL    HW153488   2.159  12.476  11.641
17197SOL    HW253489   2.049  12.409  11.560
17198SOL     OW53490   0.359  13.383   3.012
17198SOL    HW153491   0.375  13.311   2.951
17198SOL    HW253492   0.401  13.354   3.093
17199SOL     OW53493  14.102   2.232  10.267
17199SOL    HW153494  14.025   2.176  10.273
17199SOL    HW253495  14.150   2.199  10.191
17200SOL     OW53496   4.815  10.060   1.613
17200SOL    HW153497   4.874  10.062   1.688
17200SOL    HW253498   4.788   9.968   1.605
17201SOL     OW53499   7.343   6.604   9.812
17201SOL    HW153500   7.362   6.693   9.781
17201SOL    HW253501   7.248   6.595   9.803
17202SOL     OW53502   6.483  11.302   2.395
17202SOL    HW153503   6.568  11.281   2.356
17202SOL    HW253504   6.469  11.234   2.461
17203SOL     OW53505   5.009   2.838   5.658
17203SOL    HW153506   5.050   2.908   5.709
17203SOL    HW253507   5.075   2.769   5.656
17204SOL     OW53508   2.747  12.945  12.844
17204SOL    HW153509   2.703  12.861  12.836
17204SOL    HW253510   2.840  12.923  12.844
17205SOL     OW53511  14.198   6.888   2.452
17205SOL    HW153512  14.249   6.917   2.376
17205SOL    HW253513  14.198   6.964   2.510
17206SOL     OW53514   8.070  10.862   7.704
17206SOL    HW153515   8.024  10.902   7.629
17206SOL    HW253516   8.015  10.787   7.728
17207SOL     OW53517   2.878   9.282  12.306
17207SOL    HW153518   2.950   9.229  12.339
17207SOL    HW253519   2.888   9.278  12.211
17208SOL     OW53520   0.015   8.804   6.473
17208SOL    HW153521   0.045   8.894   6.473
17208SOL    HW253522  14.812   8.805   6.424
17209SOL     OW53523   5.929   8.915   8.887
17209SOL    HW153524   5.851   8.963   8.859
17209SOL    HW253525   5.896   8.856   8.956
17210SOL     OW53526  11.572   7.646  12.735
17210SOL    HW153527  11.613   7.599  12.808
17210SOL    HW253528  11.628   7.723  12.721
17211SOL     OW53529  12.760  11.814  11.420
17211SOL    HW153530  12.725  11.877  11.482
17211SOL    HW253531  12.782  11.737  11.472
17212SOL     OW53532   3.549   9.550   8.893
17212SOL    HW153533   3.600   9.515   8.820
17212SOL    HW253534   3.501   9.624   8.856
17213SOL     OW53535   5.543   1.548   2.021
17213SOL    HW153536   5.547   1.515   2.111
17213SOL    HW253537   5.454   1.527   1.992
17214SOL     OW53538   9.780   9.195  11.567
17214SOL    HW153539   9.687   9.204  11.588
17214SOL    HW253540   9.789   9.236  11.481
17215SOL     OW53541   9.165   0.238  13.240
17215SOL    HW153542   9.115   0.175  13.293
17215SOL    HW253543   9.103   0.269  13.175
17216SOL     OW53544   9.662  10.667  14.488
17216SOL    HW153545   9.576  10.632  14.514
17216SOL    HW253546   9.651  10.762  14.494
17217SOL     OW53547   4.591  14.676  12.616
17217SOL    HW153548   4.506  14.651  12.652
17217SOL    HW253549   4.608  14.763  12.652
17218SOL     OW53550   4.538  14.092   8.398
17218SOL    HW153551   4.587  14.172   8.378
17218SOL    HW253552   4.577  14.060   8.479
17219SOL     OW53553  11.219  12.352  10.247
17219SOL    HW153554  11.189  12.279  10.301
17219SOL    HW253555  11.304  12.376  10.284
17220SOL     OW53556   4.598   8.081   2.276
17220SOL    HW153557   4.683   8.051   2.306
17220SOL    HW253558   4.551   8.104   2.357
17221SOL     OW53559  10.450  10.542   7.115
17221SOL    HW153560  10.429  10.523   7.023
17221SOL    HW253561  10.375  10.509   7.164
17222SOL     OW53562   8.934  10.677   9.557
17222SOL    HW153563   9.005  10.652   9.497
17222SOL    HW253564   8.908  10.594   9.598
17223SOL     OW53565  11.860   7.409   9.460
17223SOL    HW153566  11.911   7.368   9.531
17223SOL    HW253567  11.790   7.346   9.442
17224SOL     OW53568   0.975   7.992   1.973
17224SOL    HW153569   0.924   7.933   1.918
17224SOL    HW253570   1.010   8.057   1.912
17225SOL     OW53571  13.158   5.575   0.639
17225SOL    HW153572  13.201   5.531   0.713
17225SOL    HW253573  13.219   5.644   0.613
17226SOL     OW53574   6.507   2.888   9.989
17226SOL    HW153575   6.541   2.975   9.967
17226SOL    HW253576   6.427   2.880   9.937
17227SOL     OW53577  10.579  14.006  12.465
17227SOL    HW153578  10.589  14.028  12.558
17227SOL    HW253579  10.606  13.914  12.459
17228SOL     OW53580  13.322   8.216   2.932
17228SOL    HW153581  13.330   8.151   3.002
17228SOL    HW253582  13.271   8.173   2.864
17229SOL     OW53583   4.779  14.148   0.778
17229SOL    HW153584   4.765  14.137   0.684
17229SOL    HW253585   4.839  14.077   0.802
17230SOL     OW53586   6.178  11.328   3.507
17230SOL    HW153587   6.103  11.370   3.549
17230SOL    HW253588   6.235  11.303   3.579
17231SOL     OW53589   4.728   6.632   4.095
17231SOL    HW153590   4.705   6.720   4.122
17231SOL    HW253591   4.820   6.639   4.068
17232SOL     OW53592  10.125  11.077   6.412
17232SOL    HW153593  10.054  11.022   6.379
17232SOL    HW253594  10.188  11.081   6.340
17233SOL     OW53595  12.903   2.818   0.578
17233SOL    HW153596  12.880   2.744   0.633
17233SOL    HW253597  12.970   2.785   0.518
17234SOL     OW53598   9.277  11.084   2.902
17234SOL    HW153599   9.305  11.068   2.993
17234SOL    HW253600   9.182  11.073   2.904
17235SOL     OW53601   6.614   5.153   4.764
17235SOL    HW153602   6.613   5.137   4.858
17235SOL    HW253603   6.586   5.244   4.754
17236SOL     OW53604   2.156   4.025  10.858
17236SOL    HW153605   2.113   3.940  10.852
17236SOL    HW253606   2.126   4.073  10.781
17237SOL     OW53607   4.866  12.948  14.293
17237SOL    HW153608   4.946  12.935  14.344
17237SOL    HW253609   4.815  13.012  14.344
17238SOL     OW53610   3.195  12.615   6.062
17238SOL    HW153611   3.234  12.593   6.147
17238SOL    HW253612   3.208  12.537   6.009
17239SOL     OW53613  10.507   6.865   6.956
17239SOL    HW153614  10.429   6.820   6.988
17239SOL    HW253615  10.577   6.799   6.963
17240SOL     OW53616   9.069  13.431   7.434
17240SOL    HW153617   9.082  13.388   7.349
17240SOL    HW253618   9.138  13.497   7.438
17241SOL     OW53619   2.594   8.834  11.052
17241SOL    HW153620   2.520   8.894  11.061
17241SOL    HW253621   2.670   8.886  11.078
17242SOL     OW53622   2.641   9.015   6.907
17242SOL    HW153623   2.554   8.978   6.895
17242SOL    HW253624   2.642   9.093   6.852
17243SOL     OW53625  12.078  11.576   8.940
17243SOL    HW153626  12.017  11.608   9.006
17243SOL    HW253627  12.023  11.530   8.877
17244SOL     OW53628   4.619   8.578   4.534
17244SOL    HW153629   4.660   8.496   4.506
17244SOL    HW253630   4.527   8.567   4.510
17245SOL     OW53631   4.098   7.747   0.785
17245SOL    HW153632   4.176   7.802   0.791
17245SOL    HW253633   4.108   7.700   0.703
17246SOL     OW53634   0.037  14.228   5.795
17246SOL    HW153635  14.823  14.246   5.794
17246SOL    HW253636   0.077  14.308   5.761
17247SOL     OW53637   6.436  10.584  11.218
17247SOL    HW153638   6.442  10.604  11.124
17247SOL    HW253639   6.349  10.545  11.228
17248SOL     OW53640  11.474   8.620   4.137
17248SOL    HW153641  11.419   8.576   4.201
17248SOL    HW253642  11.413   8.653   4.071
17249SOL     OW53643  14.560   4.753  10.514
17249SOL    HW153644  14.596   4.734  10.427
17249SOL    HW253645  14.561   4.669  10.560
17250SOL     OW53646   7.182  10.780   5.662
17250SOL    HW153647   7.227  10.741   5.587
17250SOL    HW253648   7.089  10.773   5.640
17251SOL     OW53649   7.029   4.405   6.079
17251SOL    HW153650   7.048   4.369   6.165
17251SOL    HW253651   6.933   4.407   6.075
17252SOL     OW53652  14.040   4.194  10.057
17252SOL    HW153653  14.077   4.114  10.094
17252SOL    HW253654  14.114   4.252  10.045
17253SOL     OW53655   6.013   0.137  12.346
17253SOL    HW153656   5.956   0.093  12.283
17253SOL    HW253657   6.098   0.094  12.336
17254SOL     OW53658   8.089   6.934   8.436
17254SOL    HW153659   7.997   6.935   8.409
17254SOL    HW253660   8.089   6.887   8.520
17255SOL     OW53661   8.657  12.519  13.028
17255SOL    HW153662   8.604  12.561  13.097
17255SOL    HW253663   8.709  12.453  13.074
17256SOL     OW53664  11.152   2.165   4.797
17256SOL    HW153665  11.239   2.136   4.822
17256SOL    HW253666  11.093   2.111   4.850
17257SOL     OW53667   6.954  14.016   2.345
17257SOL    HW153668   7.019  13.969   2.293
17257SOL    HW253669   6.934  14.095   2.294
17258SOL     OW53670   7.917   6.402  11.677
17258SOL    HW153671   7.925   6.311  11.707
17258SOL    HW253672   7.861   6.396  11.599
17259SOL     OW53673   9.187   8.430  13.224
17259SOL    HW153674   9.124   8.465  13.161
17259SOL    HW253675   9.273   8.451  13.186
17260SOL     OW53676  13.472   1.409   6.628
17260SOL    HW153677  13.520   1.398   6.710
17260SOL    HW253678  13.383   1.432   6.655
17261SOL     OW53679   5.932   5.410   5.089
17261SOL    HW153680   5.880   5.491   5.082
17261SOL    HW253681   5.918   5.366   5.006
17262SOL     OW53682  12.074  10.102   3.101
17262SOL    HW153683  12.058  10.089   3.194
17262SOL    HW253684  11.998  10.151   3.069
17263SOL     OW53685   1.807   5.191   5.119
17263SOL    HW153686   1.808   5.223   5.029
17263SOL    HW253687   1.823   5.269   5.172
17264SOL     OW53688   9.906  11.610   9.079
17264SOL    HW153689   9.994  11.574   9.067
17264SOL    HW253690   9.847  11.537   9.061
17265SOL     OW53691   6.394   2.745  10.910
17265SOL    HW153692   6.451   2.817  10.884
17265SOL    HW253693   6.385   2.692  10.831
17266SOL     OW53694  13.808   3.388   6.612
17266SOL    HW153695  13.884   3.415   6.561
17266SOL    HW253696  13.843   3.343   6.688
17267SOL     OW53697  14.371  10.191   7.611
17267SOL    HW153698  14.417  10.268   7.577
17267SOL    HW253699  14.384  10.124   7.543
17268SOL     OW53700  14.048   4.282  13.970
17268SOL    HW153701  13.964   4.270  14.013
17268SOL    HW253702  14.065   4.198  13.927
17269SOL     OW53703   0.599  14.396   3.337
17269SOL    HW153704   0.550  14.385   3.419
17269SOL    HW253705   0.622  14.489   3.335
17270SOL     OW53706  14.747   7.233   1.761
17270SOL    HW153707  14.827   7.254   1.713
17270SOL    HW253708  14.710   7.159   1.713
17271SOL     OW53709   9.958   5.046  12.892
17271SOL    HW153710   9.910   4.978  12.938
17271SOL    HW253711   9.906   5.125  12.905
17272SOL     OW53712  14.379   3.149  13.035
17272SOL    HW153713  14.371   3.227  13.089
17272SOL    HW253714  14.289   3.129  13.009
17273SOL     OW53715   8.802   5.397  12.535
17273SOL    HW153716   8.880   5.398  12.589
17273SOL    HW253717   8.780   5.305  12.524
17274SOL     OW53718   2.642   3.953  12.478
17274SOL    HW153719   2.599   3.868  12.480
17274SOL    HW253720   2.714   3.945  12.541
17275SOL     OW53721  12.590  14.520   6.847
17275SOL    HW153722  12.502  14.488   6.864
17275SOL    HW253723  12.609  14.493   6.757
17276SOL     OW53724   6.854   1.043   4.091
17276SOL    HW153725   6.840   1.135   4.068
17276SOL    HW253726   6.941   1.041   4.130
17277SOL     OW53727   8.913   6.803   7.575
17277SOL    HW153728   8.823   6.835   7.571
17277SOL    HW253729   8.967   6.882   7.569
17278SOL     OW53730   5.124  11.277  13.125
17278SOL    HW153731   5.172  11.337  13.182
17278SOL    HW253732   5.047  11.327  13.096
17279SOL     OW53733   7.019   9.087   2.499
17279SOL    HW153734   6.977   9.073   2.414
17279SOL    HW253735   7.110   9.059   2.485
17280SOL     OW53736   4.349   3.809   4.796
17280SOL    HW153737   4.431   3.831   4.841
17280SOL    HW253738   4.299   3.890   4.797
17281SOL     OW53739  11.606  13.478   3.220
17281SOL    HW153740  11.545  13.406   3.205
17281SOL    HW253741  11.625  13.475   3.313
17282SOL     OW53742  10.033   0.844   0.175
17282SOL    HW153743   9.949   0.889   0.181
17282SOL    HW253744  10.035   0.786   0.251
17283SOL     OW53745   5.960  12.917  14.646
17283SOL    HW153746   5.980  12.841  14.702
17283SOL    HW253747   6.044  12.940  14.607
17284SOL     OW53748   9.776  12.102   7.401
17284SOL    HW153749   9.688  12.102   7.439
17284SOL    HW253750   9.802  12.194   7.400
17285SOL     OW53751   5.921  10.475   9.355
17285SOL    HW153752   5.829  10.499   9.360
17285SOL    HW253753   5.938  10.461   9.262
17286SOL     OW53754   6.901  11.434   8.445
17286SOL    HW153755   6.848  11.484   8.508
17286SOL    HW253756   6.944  11.501   8.391
17287SOL     OW53757   7.657   6.256  13.241
17287SOL    HW153758   7.709   6.288  13.168
17287SOL    HW253759   7.567   6.260  13.210
17288SOL     OW53760   1.745   5.527   9.140
17288SOL    HW153761   1.716   5.440   9.166
17288SOL    HW253762   1.787   5.514   9.055
17289SOL     OW53763   7.244   3.107  13.083
17289SOL    HW153764   7.289   3.022  13.078
17289SOL    HW253765   7.239   3.126  13.177
17290SOL     OW53766   2.717   3.048  11.644
17290SOL    HW153767   2.808   3.066  11.618
17290SOL    HW253768   2.685   3.132  11.677
17291SOL     OW53769   7.656   4.459   1.626
17291SOL    HW153770   7.634   4.386   1.684
17291SOL    HW253771   7.613   4.535   1.666
17292SOL     OW53772  12.516   4.894  13.156
17292SOL    HW153773  12.479   4.813  13.122
17292SOL    HW253774  12.600   4.868  13.194
17293SOL     OW53775   0.257   1.573   8.462
17293SOL    HW153776   0.350   1.559   8.476
17293SOL    HW253777   0.249   1.590   8.368
17294SOL     OW53778   0.271   8.788  11.187
17294SOL    HW153779   0.190   8.748  11.156
17294SOL    HW253780   0.286   8.749  11.273
17295SOL     OW53781  10.401   7.708   1.352
17295SOL    HW153782  10.405   7.732   1.259
17295SOL    HW253783  10.395   7.792   1.398
17296SOL     OW53784   0.261   8.285   1.661
17296SOL    HW153785   0.226   8.314   1.746
17296SOL    HW253786   0.217   8.340   1.597
17297SOL     OW53787   6.831  11.515   3.436
17297SOL    HW153788   6.817  11.423   3.456
17297SOL    HW253789   6.856  11.555   3.519
17298SOL     OW53790   0.939   0.039  11.427
17298SOL    HW153791   0.849   0.007  11.418
17298SOL    HW253792   0.992  14.849  11.388
17299SOL     OW53793   3.948   3.856   8.377
17299SOL    HW153794   3.951   3.777   8.432
17299SOL    HW253795   4.038   3.869   8.348
17300SOL     OW53796   5.959   8.260  14.644
17300SOL    HW153797   6.019   8.198  14.687
17300SOL    HW253798   5.890   8.274  14.709
17301SOL     OW53799  11.100   7.215  11.880
17301SOL    HW153800  11.071   7.259  11.800
17301SOL    HW253801  11.172   7.269  11.913
17302SOL     OW53802   4.642  11.007   0.888
17302SOL    HW153803   4.619  10.914   0.884
17302SOL    HW253804   4.560  11.051   0.913
17303SOL     OW53805  10.964   9.283   1.575
17303SOL    HW153806  11.028   9.256   1.509
17303SOL    HW253807  10.989   9.235   1.654
17304SOL     OW53808   6.492   2.148   7.596
17304SOL    HW153809   6.536   2.078   7.643
17304SOL    HW253810   6.563   2.210   7.575
17305SOL     OW53811  11.093   5.470   8.644
17305SOL    HW153812  11.064   5.557   8.614
17305SOL    HW253813  11.144   5.488   8.723
17306SOL     OW53814   7.183  11.356   4.798
17306SOL    HW153815   7.269  11.329   4.829
17306SOL    HW253816   7.178  11.449   4.820
17307SOL     OW53817  12.058  11.299   9.907
17307SOL    HW153818  11.976  11.258   9.878
17307SOL    HW253819  12.109  11.309   9.827
17308SOL     OW53820   6.003   8.553   8.697
17308SOL    HW153821   6.068   8.518   8.636
17308SOL    HW253822   5.921   8.511   8.672
17309SOL     OW53823   2.068  12.735   8.758
17309SOL    HW153824   2.122  12.669   8.801
17309SOL    HW253825   2.018  12.774   8.830
17310SOL     OW53826   0.724   4.118   0.378
17310SOL    HW153827   0.784   4.192   0.382
17310SOL    HW253828   0.640   4.153   0.408
17311SOL     OW53829   2.071   3.516  14.819
17311SOL    HW153830   2.052   3.489  14.729
17311SOL    HW253831   2.047   3.440  14.872
17312SOL     OW53832   2.295  10.255  14.233
17312SOL    HW153833   2.305  10.349  14.248
17312SOL    HW253834   2.319  10.214  14.316
17313SOL     OW53835   8.034   2.623   4.344
17313SOL    HW153836   8.061   2.569   4.418
17313SOL    HW253837   8.021   2.710   4.382
17314SOL     OW53838  13.668   8.541   5.543
17314SOL    HW153839  13.668   8.636   5.537
17314SOL    HW253840  13.576   8.519   5.560
17315SOL     OW53841   4.709  10.346   1.923
17315SOL    HW153842   4.797  10.330   1.957
17315SOL    HW253843   4.720  10.419   1.862
17316SOL     OW53844   0.290   1.141  12.645
17316SOL    HW153845   0.351   1.124  12.572
17316SOL    HW253846   0.239   1.216  12.616
17317SOL     OW53847   5.301   5.114   1.712
17317SOL    HW153848   5.298   5.036   1.656
17317SOL    HW253849   5.372   5.166   1.677
17318SOL     OW53850   7.577   2.359  10.578
17318SOL    HW153851   7.585   2.295  10.648
17318SOL    HW253852   7.573   2.306  10.498
17319SOL     OW53853   0.277   5.754   0.788
17319SOL    HW153854   0.365   5.773   0.819
17319SOL    HW253855   0.289   5.717   0.701
17320SOL     OW53856   2.540   2.502   8.627
17320SOL    HW153857   2.472   2.474   8.687
17320SOL    HW253858   2.499   2.572   8.575
17321SOL     OW53859   5.711   1.350   2.677
17321SOL    HW153860   5.674   1.261   2.673
17321SOL    HW253861   5.789   1.346   2.622
17322SOL     OW53862  11.655   8.191   3.436
17322SOL    HW153863  11.576   8.180   3.383
17322SOL    HW253864  11.625   8.229   3.518
17323SOL     OW53865  14.596   6.406  12.967
17323SOL    HW153866  14.636   6.483  13.008
17323SOL    HW253867  14.596   6.339  13.036
17324SOL     OW53868   2.236   0.819  12.436
17324SOL    HW153869   2.199   0.735  12.465
17324SOL    HW253870   2.179   0.885  12.475
17325SOL     OW53871   3.300   5.598   4.175
17325SOL    HW153872   3.284   5.693   4.171
17325SOL    HW253873   3.385   5.590   4.218
17326SOL     OW53874   9.395  13.409   6.804
17326SOL    HW153875   9.348  13.409   6.887
17326SOL    HW253876   9.352  13.342   6.751
17327SOL     OW53877   3.484   5.502   7.255
17327SOL    HW153878   3.423   5.534   7.322
17327SOL    HW253879   3.535   5.434   7.299
17328SOL     OW53880  13.562   5.298   1.261
17328SOL    HW153881  13.555   5.384   1.303
17328SOL    HW253882  13.471   5.271   1.246
17329SOL     OW53883  13.034   0.518   8.936
17329SOL    HW153884  13.045   0.613   8.931
17329SOL    HW253885  13.118   0.483   8.907
17330SOL     OW53886   4.191   9.394   1.891
17330SOL    HW153887   4.110   9.441   1.871
17330SOL    HW253888   4.241   9.396   1.809
17331SOL     OW53889   4.486  12.130   0.786
17331SOL    HW153890   4.503  12.206   0.730
17331SOL    HW253891   4.570  12.110   0.826
17332SOL     OW53892   6.676  10.399   5.834
17332SOL    HW153893   6.649  10.310   5.857
17332SOL    HW253894   6.627  10.419   5.754
17333SOL     OW53895  13.714   3.607  10.096
17333SOL    HW153896  13.633   3.582  10.140
17333SOL    HW253897  13.766   3.526  10.094
17334SOL     OW53898   1.079  13.086   7.395
17334SOL    HW153899   1.080  13.028   7.471
17334SOL    HW253900   1.109  13.032   7.322
17335SOL     OW53901  11.591   9.499   2.656
17335SOL    HW153902  11.683   9.483   2.638
17335SOL    HW253903  11.546   9.485   2.573
17336SOL     OW53904   9.131   3.732   9.185
17336SOL    HW153905   9.090   3.813   9.216
17336SOL    HW253906   9.059   3.685   9.142
17337SOL     OW53907  13.389  11.721   1.742
17337SOL    HW153908  13.317  11.782   1.753
17337SOL    HW253909  13.359  11.659   1.675
17338SOL     OW53910  13.543   7.368   3.118
17338SOL    HW153911  13.489   7.400   3.045
17338SOL    HW253912  13.627   7.412   3.107
17339SOL     OW53913   3.027  13.507   7.657
17339SOL    HW153914   3.106  13.542   7.614
17339SOL    HW253915   2.955  13.537   7.602
17340SOL     OW53916   5.400   2.848   2.327
17340SOL    HW153917   5.365   2.873   2.412
17340SOL    HW253918   5.332   2.793   2.288
17341SOL     OW53919  11.974   9.523   4.980
17341SOL    HW153920  11.935   9.464   5.044
17341SOL    HW253921  12.048   9.474   4.944
17342SOL     OW53922  14.747   8.434   2.125
17342SOL    HW153923  14.814   8.486   2.170
17342SOL    HW253924  14.797   8.376   2.067
17343SOL     OW53925   7.980   3.198  14.292
17343SOL    HW153926   7.911   3.206  14.357
17343SOL    HW253927   8.041   3.134  14.328
17344SOL     OW53928  12.308  11.292  11.694
17344SOL    HW153929  12.294  11.358  11.761
17344SOL    HW253930  12.257  11.216  11.723
17345SOL     OW53931   8.125  11.870   1.417
17345SOL    HW153932   8.049  11.835   1.464
17345SOL    HW253933   8.102  11.961   1.399
17346SOL     OW53934   6.567   1.617   1.765
17346SOL    HW153935   6.491   1.561   1.745
17346SOL    HW253936   6.579   1.608   1.860
17347SOL     OW53937   5.457   2.809   6.651
17347SOL    HW153938   5.462   2.904   6.644
17347SOL    HW253939   5.490   2.777   6.567
17348SOL     OW53940   1.105   6.543  11.964
17348SOL    HW153941   1.052   6.584  11.896
17348SOL    HW253942   1.062   6.566  12.046
17349SOL     OW53943   1.214   7.199  11.423
17349SOL    HW153944   1.297   7.200  11.469
17349SOL    HW253945   1.150   7.174  11.490
17350SOL     OW53946  10.668   0.628   7.257
17350SOL    HW153947  10.740   0.652   7.198
17350SOL    HW253948  10.704   0.559   7.312
17351SOL     OW53949   4.447   7.324  13.908
17351SOL    HW153950   4.536   7.295  13.930
17351SOL    HW253951   4.395   7.244  13.911
17352SOL     OW53952   4.979   5.474   2.214
17352SOL    HW153953   4.969   5.460   2.120
17352SOL    HW253954   5.057   5.424   2.238
17353SOL     OW53955   6.152   4.748   2.304
17353SOL    HW153956   6.160   4.730   2.210
17353SOL    HW253957   6.196   4.674   2.346
17354SOL     OW53958   7.218   4.975   8.013
17354SOL    HW153959   7.278   4.901   8.026
17354SOL    HW253960   7.235   5.033   8.087
17355SOL     OW53961   2.240   3.555  12.330
17355SOL    HW153962   2.207   3.467  12.313
17355SOL    HW253963   2.263   3.590  12.244
17356SOL     OW53964   8.968   7.716   4.903
17356SOL    HW153965   9.029   7.778   4.942
17356SOL    HW253966   8.938   7.662   4.976
17357SOL     OW53967   6.201   8.860   5.530
17357SOL    HW153968   6.258   8.797   5.573
17357SOL    HW253969   6.117   8.850   5.575
17358SOL     OW53970  10.530  14.855   4.650
17358SOL    HW153971  10.464  14.841   4.582
17358SOL    HW253972  10.490   0.037   4.711
17359SOL     OW53973   0.760  14.158  11.429
17359SOL    HW153974   0.853  14.140  11.422
17359SOL    HW253975   0.752  14.214  11.507
17360SOL     OW53976   0.129  13.756   1.397
17360SOL    HW153977   0.055  13.740   1.338
17360SOL    HW253978   0.167  13.838   1.367
17361SOL     OW53979  10.433   1.777   3.797
17361SOL    HW153980  10.378   1.847   3.762
17361SOL    HW253981  10.487   1.821   3.863
17362SOL     OW53982   9.012   9.351  14.034
17362SOL    HW153983   9.059   9.420  13.988
17362SOL    HW253984   8.941   9.397  14.079
17363SOL     OW53985  13.461   1.150   5.989
17363SOL    HW153986  13.472   1.142   6.084
17363SOL    HW253987  13.385   1.095   5.969
17364SOL     OW53988   9.865   4.806   3.318
17364SOL    HW153989   9.797   4.828   3.382
17364SOL    HW253990   9.940   4.860   3.343
17365SOL     OW53991   2.575  10.746   8.946
17365SOL    HW153992   2.528  10.678   8.994
17365SOL    HW253993   2.549  10.828   8.987
17366SOL     OW53994   4.464   4.467   5.252
17366SOL    HW153995   4.474   4.507   5.165
17366SOL    HW253996   4.392   4.515   5.292
17367SOL     OW53997   0.360   1.847  10.626
17367SOL    HW153998   0.420   1.842  10.701
17367SOL    HW253999   0.322   1.934  10.632
17368SOL     OW54000   7.569   6.984  11.848
17368SOL    HW154001   7.536   7.038  11.776
17368SOL    HW254002   7.587   7.046  11.918
17369SOL     OW54003   5.399   1.481   2.920
17369SOL    HW154004   5.342   1.424   2.868
17369SOL    HW254005   5.354   1.565   2.922
17370SOL     OW54006  13.241   1.402  13.396
17370SOL    HW154007  13.318   1.459  13.388
17370SOL    HW254008  13.263   1.325  13.343
17371SOL     OW54009  13.880   0.745   3.958
17371SOL    HW154010  13.960   0.693   3.956
17371SOL    HW254011  13.886   0.801   3.881
17372SOL     OW54012   6.124   8.407   6.689
17372SOL    HW154013   6.149   8.499   6.701
17372SOL    HW254014   6.070   8.408   6.610
17373SOL     OW54015   7.124   5.885   3.161
17373SOL    HW154016   7.081   5.876   3.246
17373SOL    HW254017   7.116   5.798   3.121
17374SOL     OW54018   2.087   5.930   5.058
17374SOL    HW154019   2.062   5.973   5.140
17374SOL    HW254020   2.088   6.001   4.994
17375SOL     OW54021   8.817   9.857   8.466
17375SOL    HW154022   8.767   9.932   8.432
17375SOL    HW254023   8.754   9.809   8.520
17376SOL     OW54024   6.994  12.490  11.845
17376SOL    HW154025   7.054  12.556  11.810
17376SOL    HW254026   6.925  12.483  11.779
17377SOL     OW54027  10.846   1.245  10.296
17377SOL    HW154028  10.911   1.257  10.227
17377SOL    HW254029  10.778   1.191  10.255
17378SOL     OW54030   1.070   4.339   3.489
17378SOL    HW154031   1.148   4.285   3.476
17378SOL    HW254032   1.101   4.429   3.474
17379SOL     OW54033  13.461   7.298   9.417
17379SOL    HW154034  13.392   7.275   9.478
17379SOL    HW254035  13.457   7.393   9.410
17380SOL     OW54036  11.172   3.921  14.851
17380SOL    HW154037  11.106   3.958  14.793
17380SOL    HW254038  11.137   3.836  14.877
17381SOL     OW54039   4.148  11.391  14.126
17381SOL    HW154040   4.079  11.355  14.070
17381SOL    HW254041   4.230  11.362  14.085
17382SOL     OW54042  10.797  12.674   5.743
17382SOL    HW154043  10.720  12.621   5.766
17382SOL    HW254044  10.817  12.723   5.823
17383SOL     OW54045  12.014   6.153   4.919
17383SOL    HW154046  11.929   6.172   4.877
17383SOL    HW254047  11.991   6.126   5.008
17384SOL     OW54048   4.692   9.211   0.108
17384SOL    HW154049   4.742   9.196   0.188
17384SOL    HW254050   4.742   9.168   0.039
17385SOL     OW54051   7.085  13.331   9.273
17385SOL    HW154052   7.173  13.296   9.285
17385SOL    HW254053   7.032  13.255   9.251
17386SOL     OW54054  10.687   4.474  13.642
17386SOL    HW154055  10.606   4.444  13.601
17386SOL    HW254056  10.708   4.556  13.598
17387SOL     OW54057   3.018   9.692  10.896
17387SOL    HW154058   3.088   9.743  10.854
17387SOL    HW254059   3.061   9.652  10.972
17388SOL     OW54060  13.336   7.236   0.470
17388SOL    HW154061  13.258   7.185   0.452
17388SOL    HW254062  13.378   7.246   0.385
17389SOL     OW54063  14.590  12.446   6.802
17389SOL    HW154064  14.611  12.431   6.894
17389SOL    HW254065  14.500  12.479   6.804
17390SOL     OW54066  10.966   3.221  14.848
17390SOL    HW154067  10.951   3.229   0.063
17390SOL    HW254068  10.889   3.174  14.816
17391SOL     OW54069   4.903   2.584   1.078
17391SOL    HW154070   4.899   2.546   1.166
17391SOL    HW254071   4.987   2.555   1.043
17392SOL     OW54072   2.166   9.333  10.164
17392SOL    HW154073   2.204   9.411  10.205
17392SOL    HW254074   2.202   9.260  10.212
17393SOL     OW54075   2.288   3.240   3.235
17393SOL    HW154076   2.246   3.326   3.231
17393SOL    HW254077   2.217   3.178   3.220
17394SOL     OW54078   8.149  14.639   8.819
17394SOL    HW154079   8.081  14.686   8.771
17394SOL    HW254080   8.186  14.577   8.755
17395SOL     OW54081   7.017   5.053   4.219
17395SOL    HW154082   6.953   5.037   4.150
17395SOL    HW254083   7.055   5.138   4.197
17396SOL     OW54084  14.525   6.091   1.760
17396SOL    HW154085  14.552   6.172   1.802
17396SOL    HW254086  14.510   6.030   1.832
17397SOL     OW54087  12.800  13.440   6.105
17397SOL    HW154088  12.770  13.363   6.057
17397SOL    HW254089  12.842  13.495   6.039
17398SOL     OW54090  11.347   9.343  13.263
17398SOL    HW154091  11.320   9.433  13.282
17398SOL    HW254092  11.264   9.295  13.254
17399SOL     OW54093   3.584  13.738   5.631
17399SOL    HW154094   3.597  13.668   5.567
17399SOL    HW254095   3.556  13.693   5.711
17400SOL     OW54096  10.455  11.991   0.583
17400SOL    HW154097  10.514  12.064   0.601
17400SOL    HW254098  10.376  12.032   0.548
17401SOL     OW54099  12.291   5.537   4.163
17401SOL    HW154100  12.309   5.578   4.248
17401SOL    HW254101  12.364   5.563   4.107
17402SOL     OW54102  14.443   5.644   7.476
17402SOL    HW154103  14.447   5.590   7.397
17402SOL    HW254104  14.384   5.597   7.535
17403SOL     OW54105   5.953  14.742   2.226
17403SOL    HW154106   5.922  14.760   2.315
17403SOL    HW254107   5.894  14.673   2.194
17404SOL     OW54108  10.126   5.413   9.875
17404SOL    HW154109  10.127   5.330   9.828
17404SOL    HW254110  10.049   5.407   9.933
17405SOL     OW54111   3.240  10.446   4.741
17405SOL    HW154112   3.284  10.403   4.814
17405SOL    HW254113   3.311  10.474   4.683
17406SOL     OW54114   3.248   7.138   9.719
17406SOL    HW154115   3.278   7.202   9.784
17406SOL    HW254116   3.326   7.115   9.669
17407SOL     OW54117  14.148   1.776   2.802
17407SOL    HW154118  14.094   1.714   2.753
17407SOL    HW254119  14.086   1.839   2.838
17408SOL     OW54120  11.356   7.190  11.595
17408SOL    HW154121  11.432   7.242  11.569
17408SOL    HW254122  11.302   7.251  11.645
17409SOL     OW54123  10.628   1.437   4.972
17409SOL    HW154124  10.685   1.446   5.048
17409SOL    HW254125  10.556   1.498   4.988
17410SOL     OW54126  10.892   6.857   7.763
17410SOL    HW154127  10.812   6.909   7.768
17410SOL    HW254128  10.959   6.919   7.735
17411SOL     OW54129   0.303  13.321   3.485
17411SOL    HW154130   0.383  13.374   3.478
17411SOL    HW254131   0.234  13.379   3.455
17412SOL     OW54132  12.924   9.960   7.031
17412SOL    HW154133  12.955  10.018   6.963
17412SOL    HW254134  13.000   9.906   7.054
17413SOL     OW54135   4.296   3.109   6.704
17413SOL    HW154136   4.223   3.075   6.652
17413SOL    HW254137   4.341   3.169   6.646
17414SOL     OW54138   8.231  14.040   6.553
17414SOL    HW154139   8.168  14.081   6.613
17414SOL    HW254140   8.289  13.990   6.610
17415SOL     OW54141   7.377   5.498  11.085
17415SOL    HW154142   7.378   5.512  10.991
17415SOL    HW254143   7.301   5.442  11.101
17416SOL     OW54144   4.879  10.875  11.291
17416SOL    HW154145   4.914  10.825  11.365
17416SOL    HW254146   4.951  10.878  11.228
17417SOL     OW54147   7.307  10.293   6.316
17417SOL    HW154148   7.319  10.388   6.310
17417SOL    HW254149   7.212  10.281   6.309
17418SOL     OW54150   6.441   9.904   6.685
17418SOL    HW154151   6.346   9.891   6.680
17418SOL    HW254152   6.469   9.912   6.594
17419SOL     OW54153   5.812   3.302   0.546
17419SOL    HW154154   5.742   3.260   0.597
17419SOL    HW254155   5.845   3.231   0.490
17420SOL     OW54156  12.319  12.651   3.567
17420SOL    HW154157  12.267  12.731   3.573
17420SOL    HW254158  12.360  12.656   3.480
17421SOL     OW54159   5.862   8.479  11.393
17421SOL    HW154160   5.807   8.493  11.316
17421SOL    HW254161   5.943   8.526  11.374
17422SOL     OW54162  14.084   4.658   5.549
17422SOL    HW154163  14.053   4.723   5.612
17422SOL    HW254164  14.012   4.596   5.539
17423SOL     OW54165   8.981  12.587  11.699
17423SOL    HW154166   8.994  12.497  11.728
17423SOL    HW254167   8.949  12.579  11.609
17424SOL     OW54168   6.698   7.813  10.769
17424SOL    HW154169   6.767   7.858  10.816
17424SOL    HW254170   6.742   7.769  10.696
17425SOL     OW54171   4.693   0.973  11.924
17425SOL    HW154172   4.700   1.065  11.901
17425SOL    HW254173   4.746   0.928  11.858
17426SOL     OW54174   7.362   9.835   0.417
17426SOL    HW154175   7.339   9.769   0.352
17426SOL    HW254176   7.405   9.786   0.487
17427SOL     OW54177  11.601   6.268   2.493
17427SOL    HW154178  11.616   6.335   2.559
17427SOL    HW254179  11.684   6.263   2.445
17428SOL     OW54180  12.249   7.183  14.544
17428SOL    HW154181  12.226   7.090  14.554
17428SOL    HW254182  12.334   7.191  14.588
17429SOL     OW54183  13.018  11.614   4.400
17429SOL    HW154184  12.939  11.565   4.421
17429SOL    HW254185  13.017  11.621   4.305
17430SOL     OW54186   1.681   2.907  14.147
17430SOL    HW154187   1.687   2.971  14.076
17430SOL    HW254188   1.711   2.825  14.109
17431SOL     OW54189   1.948   2.604   9.598
17431SOL    HW154190   1.918   2.668   9.662
17431SOL    HW254191   1.884   2.610   9.527
17432SOL     OW54192   0.855  13.416  10.667
17432SOL    HW154193   0.818  13.504  10.664
17432SOL    HW254194   0.803  13.371  10.735
17433SOL     OW54195  13.539   8.128   4.806
17433SOL    HW154196  13.547   8.152   4.899
17433SOL    HW254197  13.568   8.037   4.803
17434SOL     OW54198   5.089   8.069   7.008
17434SOL    HW154199   5.136   8.140   6.963
17434SOL    HW254200   5.116   8.075   7.099
17435SOL     OW54201  10.783   9.564   7.037
17435SOL    HW154202  10.689   9.556   7.017
17435SOL    HW254203  10.785   9.593   7.129
17436SOL     OW54204   3.674   3.712   3.263
17436SOL    HW154205   3.638   3.801   3.267
17436SOL    HW254206   3.727   3.710   3.184
17437SOL     OW54207   3.927   6.614   4.862
17437SOL    HW154208   3.875   6.542   4.827
17437SOL    HW254209   3.898   6.691   4.813
17438SOL     OW54210   9.929  11.911  13.660
17438SOL    HW154211   9.936  11.967  13.737
17438SOL    HW254212   9.979  11.956  13.592
17439SOL     OW54213   3.264   9.855   1.030
17439SOL    HW154214   3.243   9.939   1.072
17439SOL    HW254215   3.195   9.796   1.059
17440SOL     OW54216   3.288   3.253   6.866
17440SOL    HW154217   3.210   3.309   6.861
17440SOL    HW254218   3.360   3.309   6.836
17441SOL     OW54219  10.013   8.993   3.180
17441SOL    HW154220  10.032   8.940   3.103
17441SOL    HW254221   9.918   8.988   3.191
17442SOL     OW54222  13.554   5.135   9.269
17442SOL    HW154223  13.618   5.206   9.266
17442SOL    HW254224  13.555   5.098   9.181
17443SOL     OW54225   5.980  12.139  12.631
17443SOL    HW154226   5.903  12.137  12.574
17443SOL    HW254227   5.991  12.232  12.654
17444SOL     OW54228  11.139  14.751   9.559
17444SOL    HW154229  11.209  14.712   9.611
17444SOL    HW254230  11.150  14.714   9.472
17445SOL     OW54231  10.698  12.182   6.071
17445SOL    HW154232  10.687  12.219   6.159
17445SOL    HW254233  10.788  12.201   6.047
17446SOL     OW54234  12.051  13.868   3.573
17446SOL    HW154235  12.047  13.937   3.639
17446SOL    HW254236  11.994  13.899   3.502
17447SOL     OW54237  11.365  11.059   5.792
17447SOL    HW154238  11.358  11.039   5.699
17447SOL    HW254239  11.328  10.982   5.836
17448SOL     OW54240  12.214  12.600   8.710
17448SOL    HW154241  12.303  12.565   8.710
17448SOL    HW254242  12.215  12.669   8.776
17449SOL     OW54243  10.328   5.761  13.281
17449SOL    HW154244  10.268   5.806  13.222
17449SOL    HW254245  10.273   5.724  13.350
17450SOL     OW54246   0.825   6.872   3.479
17450SOL    HW154247   0.834   6.837   3.391
17450SOL    HW254248   0.910   6.855   3.520
17451SOL     OW54249  13.161  12.061   5.656
17451SOL    HW154250  13.195  12.064   5.745
17451SOL    HW254251  13.142  11.969   5.640
17452SOL     OW54252   7.933   2.860  10.081
17452SOL    HW154253   7.935   2.873  10.176
17452SOL    HW254254   7.953   2.947  10.045
17453SOL     OW54255  10.449  12.972  11.478
17453SOL    HW154256  10.418  12.969  11.388
17453SOL    HW254257  10.540  13.000  11.471
17454SOL     OW54258   6.267   6.760  10.683
17454SOL    HW154259   6.290   6.672  10.654
17454SOL    HW254260   6.275   6.813  10.603
17455SOL     OW54261   7.065  14.710   7.430
17455SOL    HW154262   7.125  14.763   7.378
17455SOL    HW254263   7.077  14.740   7.520
17456SOL     OW54264  14.741   0.148   5.313
17456SOL    HW154265  14.800   0.223   5.300
17456SOL    HW254266  14.784   0.075   5.268
17457SOL     OW54267  14.675   6.513   4.627
17457SOL    HW154268  14.674   6.604   4.599
17457SOL    HW254269  14.612   6.469   4.570
17458SOL     OW54270  12.083   6.002   6.365
17458SOL    HW154271  12.130   5.975   6.287
17458SOL    HW254272  12.151   6.024   6.428
17459SOL     OW54273   9.576   9.603   6.139
17459SOL    HW154274   9.578   9.699   6.140
17459SOL    HW254275   9.632   9.579   6.065
17460SOL     OW54276  13.067   1.040  13.090
17460SOL    HW154277  13.134   1.015  13.027
17460SOL    HW254278  13.113   1.042  13.174
17461SOL     OW54279   0.137  12.234   8.762
17461SOL    HW154280   0.086  12.315   8.763
17461SOL    HW254281   0.194  12.241   8.838
17462SOL     OW54282   9.253   3.546  12.623
17462SOL    HW154283   9.197   3.472  12.648
17462SOL    HW254284   9.342   3.516  12.644
17463SOL     OW54285   4.549   7.396   1.342
17463SOL    HW154286   4.520   7.445   1.266
17463SOL    HW254287   4.485   7.417   1.410
17464SOL     OW54288  14.038  10.120  13.048
17464SOL    HW154289  13.945  10.132  13.067
17464SOL    HW254290  14.068  10.206  13.019
17465SOL     OW54291   4.208   6.611  12.192
17465SOL    HW154292   4.288   6.657  12.165
17465SOL    HW254293   4.144   6.681  12.205
17466SOL     OW54294   9.605   1.606  10.640
17466SOL    HW154295   9.520   1.576  10.607
17466SOL    HW254296   9.669   1.551  10.595
17467SOL     OW54297   3.662  11.190   3.452
17467SOL    HW154298   3.629  11.103   3.474
17467SOL    HW254299   3.605  11.219   3.380
17468SOL     OW54300   2.141  14.170   5.484
17468SOL    HW154301   2.160  14.165   5.578
17468SOL    HW254302   2.163  14.259   5.460
17469SOL     OW54303  14.688   8.701   3.885
17469SOL    HW154304  14.739   8.620   3.873
17469SOL    HW254305  14.747   8.771   3.856
17470SOL     OW54306   7.853   5.269   8.495
17470SOL    HW154307   7.826   5.332   8.429
17470SOL    HW254308   7.807   5.188   8.471
17471SOL     OW54309   3.179   6.225   5.039
17471SOL    HW154310   3.165   6.133   5.018
17471SOL    HW254311   3.198   6.226   5.133
17472SOL     OW54312  10.439   0.344  14.486
17472SOL    HW154313  10.382   0.279  14.528
17472SOL    HW254314  10.380   0.416  14.464
17473SOL     OW54315   0.329   8.108   8.749
17473SOL    HW154316   0.358   8.179   8.691
17473SOL    HW254317   0.329   8.030   8.694
17474SOL     OW54318   8.135   1.396  11.857
17474SOL    HW154319   8.156   1.439  11.775
17474SOL    HW254320   8.217   1.353  11.884
17475SOL     OW54321   3.659   6.421  12.649
17475SOL    HW154322   3.656   6.443  12.556
17475SOL    HW254323   3.602   6.486  12.691
17476SOL     OW54324   4.317   9.893  14.858
17476SOL    HW154325   4.333   9.952   0.052
17476SOL    HW254326   4.401   9.851  14.842
17477SOL     OW54327  13.370  10.370  11.365
17477SOL    HW154328  13.408  10.451  11.331
17477SOL    HW254329  13.439  10.332  11.420
17478SOL     OW54330  13.736  13.596   7.193
17478SOL    HW154331  13.652  13.615   7.151
17478SOL    HW254332  13.741  13.657   7.266
17479SOL     OW54333   3.078   6.001  13.343
17479SOL    HW154334   3.124   5.982  13.261
17479SOL    HW254335   3.132   5.961  13.411
17480SOL     OW54336   9.124   9.396   6.585
17480SOL    HW154337   9.035   9.430   6.579
17480SOL    HW254338   9.169   9.432   6.508
17481SOL     OW54339  14.390   7.347   2.889
17481SOL    HW154340  14.413   7.428   2.934
17481SOL    HW254341  14.449   7.343   2.815
17482SOL     OW54342   0.804  11.012   7.674
17482SOL    HW154343   0.841  10.924   7.672
17482SOL    HW254344   0.712  10.999   7.697
17483SOL     OW54345  10.138   6.247  11.278
17483SOL    HW154346  10.225   6.211  11.264
17483SOL    HW254347  10.142   6.287  11.364
17484SOL     OW54348   6.852   8.708   3.602
17484SOL    HW154349   6.797   8.760   3.660
17484SOL    HW254350   6.907   8.657   3.661
17485SOL     OW54351   5.002   3.195  13.162
17485SOL    HW154352   4.908   3.210  13.161
17485SOL    HW254353   5.026   3.195  13.255
17486SOL     OW54354  13.941   7.286   1.102
17486SOL    HW154355  13.986   7.356   1.054
17486SOL    HW254356  13.923   7.219   1.036
17487SOL     OW54357  14.549   6.126   5.300
17487SOL    HW154358  14.642   6.146   5.292
17487SOL    HW254359  14.536   6.046   5.248
17488SOL     OW54360   6.671   0.124   2.503
17488SOL    HW154361   6.599   0.184   2.523
17488SOL    HW254362   6.643   0.040   2.541
17489SOL     OW54363   1.683  12.885  12.017
17489SOL    HW154364   1.598  12.849  11.989
17489SOL    HW254365   1.660  12.966  12.063
17490SOL     OW54366   0.624   9.068   9.887
17490SOL    HW154367   0.585   9.034   9.968
17490SOL    HW254368   0.586   9.014   9.818
17491SOL     OW54369   0.080  13.667  10.917
17491SOL    HW154370   0.173  13.660  10.939
17491SOL    HW254371   0.064  13.592  10.860
17492SOL     OW54372  14.025   0.686   8.916
17492SOL    HW154373  14.027   0.657   8.824
17492SOL    HW254374  13.972   0.621   8.960
17493SOL     OW54375   9.168   1.994  13.598
17493SOL    HW154376   9.219   1.999  13.678
17493SOL    HW254377   9.087   1.950  13.624
17494SOL     OW54378   9.713   8.529  10.482
17494SOL    HW154379   9.766   8.529  10.562
17494SOL    HW254380   9.702   8.436  10.461
17495SOL     OW54381   7.962   7.675  12.043
17495SOL    HW154382   8.025   7.745  12.025
17495SOL    HW254383   7.881   7.706  12.003
17496SOL     OW54384   9.430   0.757  13.286
17496SOL    HW154385   9.497   0.787  13.225
17496SOL    HW254386   9.386   0.685  13.241
17497SOL     OW54387   6.453   0.067   9.942
17497SOL    HW154388   6.407   0.088  10.023
17497SOL    HW254389   6.539   0.036   9.969
17498SOL     OW54390   1.098   2.591  14.040
17498SOL    HW154391   1.048   2.668  14.067
17498SOL    HW254392   1.051   2.517  14.081
17499SOL     OW54393   5.316   6.227  11.482
17499SOL    HW154394   5.285   6.149  11.437
17499SOL    HW254395   5.405   6.206  11.508
17500SOL     OW54396   0.253   8.726  11.438
17500SOL    HW154397   0.322   8.747  11.501
17500SOL    HW254398   0.221   8.640  11.466
17501SOL     OW54399  12.698  12.020  10.371
17501SOL    HW154400  12.716  12.101  10.321
17501SOL    HW254401  12.772  11.963  10.350
17502SOL     OW54402   6.887   0.828  12.088
17502SOL    HW154403   6.838   0.907  12.065
17502SOL    HW254404   6.918   0.844  12.177
17503SOL     OW54405   1.193   4.420   6.254
17503SOL    HW154406   1.153   4.368   6.323
17503SOL    HW254407   1.256   4.477   6.299
17504SOL     OW54408   4.338   2.821   8.655
17504SOL    HW154409   4.391   2.886   8.608
17504SOL    HW254410   4.302   2.765   8.585
17505SOL     OW54411  10.338   3.997   9.358
17505SOL    HW154412  10.409   3.956   9.308
17505SOL    HW254413  10.265   3.936   9.352
17506SOL     OW54414  13.384   9.270   5.365
17506SOL    HW154415  13.297   9.234   5.382
17506SOL    HW254416  13.385   9.354   5.412
17507SOL     OW54417   5.339   6.894  11.587
17507SOL    HW154418   5.310   6.905  11.496
17507SOL    HW254419   5.328   6.801  11.605
17508SOL     OW54420   6.951  12.096  12.283
17508SOL    HW154421   6.980  12.186  12.268
17508SOL    HW254422   7.032  12.044  12.283
17509SOL     OW54423  14.476   6.729   4.511
17509SOL    HW154424  14.491   6.685   4.595
17509SOL    HW254425  14.552   6.786   4.500
17510SOL     OW54426  10.825  10.794  14.574
17510SOL    HW154427  10.737  10.774  14.606
17510SOL    HW254428  10.845  10.880  14.611
17511SOL     OW54429  12.980   2.621   0.123
17511SOL    HW154430  13.070   2.645   0.099
17511SOL    HW254431  12.990   2.543   0.177
17512SOL     OW54432   2.928   5.903  10.843
17512SOL    HW154433   2.908   5.849  10.920
17512SOL    HW254434   2.844   5.942  10.820
17513SOL     OW54435   1.440   0.172   8.887
17513SOL    HW154436   1.484   0.105   8.835
17513SOL    HW254437   1.349   0.171   8.856
17514SOL     OW54438   9.988   7.291   4.132
17514SOL    HW154439   9.951   7.291   4.044
17514SOL    HW254440   9.925   7.340   4.184
17515SOL     OW54441   7.467   9.679  11.703
17515SOL    HW154442   7.478   9.773  11.717
17515SOL    HW254443   7.547   9.652  11.658
17516SOL     OW54444  14.080   9.755   0.590
17516SOL    HW154445  14.077   9.828   0.528
17516SOL    HW254446  14.102   9.679   0.535
17517SOL     OW54447   5.952   3.145   3.147
17517SOL    HW154448   5.868   3.185   3.168
17517SOL    HW254449   5.955   3.066   3.201
17518SOL     OW54450   7.143   6.868   5.255
17518SOL    HW154451   7.175   6.936   5.196
17518SOL    HW254452   7.103   6.803   5.198
17519SOL     OW54453  10.042  13.726   2.431
17519SOL    HW154454  10.130  13.697   2.453
17519SOL    HW254455  10.051  13.767   2.344
17520SOL     OW54456   1.555   6.362  10.055
17520SOL    HW154457   1.473   6.399  10.087
17520SOL    HW254458   1.529   6.299   9.988
17521SOL     OW54459  14.684   8.330   1.213
17521SOL    HW154460  14.689   8.297   1.123
17521SOL    HW254461  14.673   8.251   1.266
17522SOL     OW54462   9.303   3.547  11.051
17522SOL    HW154463   9.282   3.498  10.972
17522SOL    HW254464   9.386   3.509  11.081
17523SOL     OW54465   4.352   3.189   4.750
17523SOL    HW154466   4.329   3.114   4.695
17523SOL    HW254467   4.402   3.247   4.692
17524SOL     OW54468  13.049   6.442  12.416
17524SOL    HW154469  13.002   6.359  12.419
17524SOL    HW254470  13.046   6.468  12.324
17525SOL     OW54471   1.372  13.551   7.887
17525SOL    HW154472   1.463  13.574   7.906
17525SOL    HW254473   1.329  13.552   7.972
17526SOL     OW54474   4.943  10.492   6.870
17526SOL    HW154475   5.018  10.478   6.927
17526SOL    HW254476   4.942  10.586   6.853
17527SOL     OW54477  13.031  10.158   7.798
17527SOL    HW154478  13.033  10.125   7.708
17527SOL    HW254479  13.120  10.189   7.814
17528SOL     OW54480  10.150   1.562   7.086
17528SOL    HW154481  10.186   1.643   7.124
17528SOL    HW254482  10.092   1.592   7.017
17529SOL     OW54483   6.696  12.470   1.113
17529SOL    HW154484   6.760  12.402   1.092
17529SOL    HW254485   6.718  12.497   1.202
17530SOL     OW54486   1.360   7.477  12.523
17530SOL    HW154487   1.358   7.495  12.429
17530SOL    HW254488   1.273   7.504  12.554
17531SOL     OW54489   3.357   2.657   1.196
17531SOL    HW154490   3.288   2.680   1.258
17531SOL    HW254491   3.428   2.622   1.250
17532SOL     OW54492   2.268  10.615   6.448
17532SOL    HW154493   2.303  10.538   6.403
17532SOL    HW254494   2.181  10.627   6.410
17533SOL     OW54495   2.230   1.265   6.582
17533SOL    HW154496   2.167   1.307   6.641
17533SOL    HW254497   2.219   1.172   6.597
17534SOL     OW54498   7.319   3.828   3.475
17534SOL    HW154499   7.347   3.755   3.530
17534SOL    HW254500   7.400   3.866   3.442
17535SOL     OW54501   3.590   9.177   7.515
17535SOL    HW154502   3.621   9.125   7.441
17535SOL    HW254503   3.552   9.255   7.476
17536SOL     OW54504   0.436   5.475  11.309
17536SOL    HW154505   0.384   5.410  11.262
17536SOL    HW254506   0.376   5.508  11.376
17537SOL     OW54507   7.553   2.709   5.931
17537SOL    HW154508   7.605   2.764   5.990
17537SOL    HW254509   7.467   2.753   5.927
17538SOL     OW54510   5.806   5.163   3.501
17538SOL    HW154511   5.809   5.174   3.596
17538SOL    HW254512   5.827   5.250   3.466
17539SOL     OW54513   2.668   3.314   8.257
17539SOL    HW154514   2.586   3.282   8.221
17539SOL    HW254515   2.647   3.400   8.293
17540SOL     OW54516   7.617   6.349   6.118
17540SOL    HW154517   7.614   6.333   6.212
17540SOL    HW254518   7.533   6.390   6.098
17541SOL     OW54519   5.890   8.157   8.128
17541SOL    HW154520   5.951   8.107   8.182
17541SOL    HW254521   5.934   8.165   8.043
17542SOL     OW54522   3.934   8.945   0.454
17542SOL    HW154523   3.924   9.007   0.527
17542SOL    HW254524   4.017   8.970   0.413
17543SOL     OW54525   5.472   6.823  10.531
17543SOL    HW154526   5.426   6.885  10.587
17543SOL    HW254527   5.420   6.820  10.451
17544SOL     OW54528   9.545   3.206   5.516
17544SOL    HW154529   9.568   3.135   5.576
17544SOL    HW254530   9.581   3.178   5.432
17545SOL     OW54531   6.637  14.014   1.940
17545SOL    HW154532   6.577  13.946   1.971
17545SOL    HW254533   6.581  14.073   1.889
17546SOL     OW54534   8.994  10.392   4.865
17546SOL    HW154535   9.045  10.315   4.843
17546SOL    HW254536   8.948  10.370   4.946
17547SOL     OW54537  12.303   2.011   9.831
17547SOL    HW154538  12.266   2.098   9.818
17547SOL    HW254539  12.281   1.963   9.751
17548SOL     OW54540  11.498   4.066   0.743
17548SOL    HW154541  11.573   4.111   0.780
17548SOL    HW254542  11.452   4.133   0.692
17549SOL     OW54543  13.303   4.110   8.747
17549SOL    HW154544  13.235   4.068   8.799
17549SOL    HW254545  13.382   4.059   8.765
17550SOL     OW54546   8.634  11.853   7.243
17550SOL    HW154547   8.673  11.941   7.250
17550SOL    HW254548   8.703  11.800   7.204
17551SOL     OW54549   0.722  11.731   2.996
17551SOL    HW154550   0.776  11.657   3.024
17551SOL    HW254551   0.733  11.734   2.901
17552SOL     OW54552   4.768  14.348   8.048
17552SOL    HW154553   4.847  14.313   8.089
17552SOL    HW254554   4.734  14.411   8.112
17553SOL     OW54555  12.233   0.838   0.036
17553SOL    HW154556  12.259   0.922   0.073
17553SOL    HW254557  12.201   0.787   0.110
17554SOL     OW54558   8.019  13.530   5.215
17554SOL    HW154559   8.079  13.486   5.275
17554SOL    HW254560   8.073  13.549   5.138
17555SOL     OW54561   7.684   7.219  13.735
17555SOL    HW154562   7.688   7.310  13.705
17555SOL    HW254563   7.731   7.169  13.668
17556SOL     OW54564   7.050   5.540   9.084
17556SOL    HW154565   6.965   5.506   9.110
17556SOL    HW254566   7.049   5.631   9.115
17557SOL     OW54567   9.655   6.983   2.957
17557SOL    HW154568   9.571   6.950   2.925
17557SOL    HW254569   9.690   6.912   3.009
17558SOL     OW54570   2.119   2.547   5.462
17558SOL    HW154571   2.135   2.581   5.374
17558SOL    HW254572   2.140   2.620   5.521
17559SOL     OW54573   4.443   1.492   9.414
17559SOL    HW154574   4.451   1.486   9.319
17559SOL    HW254575   4.349   1.506   9.429
17560SOL     OW54576  14.499   7.601   1.938
17560SOL    HW154577  14.472   7.605   1.846
17560SOL    HW254578  14.534   7.512   1.948
17561SOL     OW54579   6.880  11.741   6.876
17561SOL    HW154580   6.847  11.671   6.819
17561SOL    HW254581   6.804  11.797   6.892
17562SOL     OW54582   0.707   8.721   7.089
17562SOL    HW154583   0.703   8.775   7.168
17562SOL    HW254584   0.777   8.760   7.037
17563SOL     OW54585  12.996   0.087   0.191
17563SOL    HW154586  13.025   0.068   0.280
17563SOL    HW254587  13.071   0.062   0.136
17564SOL     OW54588   7.815  10.614   7.032
17564SOL    HW154589   7.726  10.605   7.000
17564SOL    HW254590   7.851  10.525   7.028
17565SOL     OW54591  10.819   3.752   6.923
17565SOL    HW154592  10.801   3.733   6.831
17565SOL    HW254593  10.781   3.839   6.937
17566SOL     OW54594   6.814   9.955   7.363
17566SOL    HW154595   6.814   9.862   7.340
17566SOL    HW254596   6.816   9.956   7.459
17567SOL     OW54597   3.412   5.986  13.710
17567SOL    HW154598   3.394   5.920  13.777
17567SOL    HW254599   3.382   6.068  13.749
17568SOL     OW54600  11.540   4.979  12.634
17568SOL    HW154601  11.528   4.892  12.597
17568SOL    HW254602  11.538   5.038  12.559
17569SOL     OW54603   5.871  14.609  13.029
17569SOL    HW154604   5.880  14.638  13.120
17569SOL    HW254605   5.950  14.557  13.012
17570SOL     OW54606   7.115  13.116  12.164
17570SOL    HW154607   7.118  13.122  12.260
17570SOL    HW254608   7.031  13.154  12.140
17571SOL     OW54609  13.539  14.323   7.672
17571SOL    HW154610  13.623  14.279   7.685
17571SOL    HW254611  13.560  14.399   7.617
17572SOL     OW54612   1.178   4.734   3.751
17572SOL    HW154613   1.249   4.677   3.780
17572SOL    HW254614   1.119   4.739   3.827
17573SOL     OW54615  11.497   4.227   7.270
17573SOL    HW154616  11.537   4.183   7.194
17573SOL    HW254617  11.514   4.320   7.256
17574SOL     OW54618   1.109  12.149  10.856
17574SOL    HW154619   1.066  12.156  10.771
17574SOL    HW254620   1.166  12.072  10.848
17575SOL     OW54621   3.911  11.591   3.441
17575SOL    HW154622   3.855  11.519   3.471
17575SOL    HW254623   3.875  11.615   3.355
17576SOL     OW54624  14.051   4.309  13.093
17576SOL    HW154625  14.043   4.404  13.096
17576SOL    HW254626  13.973   4.276  13.137
17577SOL     OW54627   1.379   1.305   6.552
17577SOL    HW154628   1.445   1.306   6.621
17577SOL    HW254629   1.362   1.212   6.536
17578SOL     OW54630   7.331   1.928  14.327
17578SOL    HW154631   7.251   1.889  14.292
17578SOL    HW254632   7.382   1.951  14.250
17579SOL     OW54633   9.533   2.373   8.956
17579SOL    HW154634   9.606   2.434   8.966
17579SOL    HW254635   9.574   2.286   8.956
17580SOL     OW54636  10.541   5.424   3.736
17580SOL    HW154637  10.632   5.413   3.708
17580SOL    HW254638  10.523   5.346   3.789
17581SOL     OW54639   2.754   9.248   2.819
17581SOL    HW154640   2.844   9.270   2.796
17581SOL    HW254641   2.702   9.317   2.780
17582SOL     OW54642   9.350   2.748  10.899
17582SOL    HW154643   9.328   2.840  10.912
17582SOL    HW254644   9.283   2.716  10.839
17583SOL     OW54645   8.662   2.916   5.712
17583SOL    HW154646   8.615   2.880   5.637
17583SOL    HW254647   8.689   2.840   5.763
17584SOL     OW54648  11.242   7.727   3.981
17584SOL    HW154649  11.260   7.741   4.074
17584SOL    HW254650  11.329   7.722   3.941
17585SOL     OW54651   8.348  13.230   0.681
17585SOL    HW154652   8.348  13.310   0.734
17585SOL    HW254653   8.264  13.188   0.700
17586SOL     OW54654   5.935   2.115  12.928
17586SOL    HW154655   6.008   2.109  12.990
17586SOL    HW254656   5.893   2.029  12.931
17587SOL     OW54657   1.750   9.246  12.882
17587SOL    HW154658   1.703   9.182  12.829
17587SOL    HW254659   1.827   9.199  12.915
17588SOL     OW54660   0.441  14.485  12.473
17588SOL    HW154661   0.479  14.398  12.481
17588SOL    HW254662   0.481  14.535  12.544
17589SOL     OW54663   9.040   5.698   1.980
17589SOL    HW154664   8.957   5.694   2.028
17589SOL    HW254665   9.026   5.767   1.915
17590SOL     OW54666   8.381   5.064  10.797
17590SOL    HW154667   8.419   5.080  10.711
17590SOL    HW254668   8.409   5.138  10.850
17591SOL     OW54669  14.427  11.719  10.309
17591SOL    HW154670  14.436  11.627  10.334
17591SOL    HW254671  14.337  11.742  10.332
17592SOL     OW54672  12.889  11.473   3.140
17592SOL    HW154673  12.949  11.547   3.146
17592SOL    HW254674  12.868  11.467   3.046
17593SOL     OW54675   0.100  11.857  11.013
17593SOL    HW154676   0.151  11.828  11.089
17593SOL    HW254677   0.162  11.907  10.960
17594SOL     OW54678  11.007   6.490   9.443
17594SOL    HW154679  11.035   6.553   9.509
17594SOL    HW254680  11.010   6.538   9.360
17595SOL     OW54681   6.835  13.312   3.943
17595SOL    HW154682   6.904  13.313   3.877
17595SOL    HW254683   6.760  13.353   3.900
17596SOL     OW54684   4.458   0.000   5.197
17596SOL    HW154685   4.427   0.072   5.251
17596SOL    HW254686   4.402   0.001   5.120
17597SOL     OW54687   6.040   1.633   5.171
17597SOL    HW154688   6.085   1.583   5.239
17597SOL    HW254689   6.021   1.717   5.212
17598SOL     OW54690  10.185   4.842   4.194
17598SOL    HW154691  10.215   4.932   4.190
17598SOL    HW254692  10.118   4.836   4.126
17599SOL     OW54693  10.144   8.221   2.455
17599SOL    HW154694  10.098   8.233   2.372
17599SOL    HW254695  10.187   8.306   2.471
17600SOL     OW54696   7.854  11.257   8.459
17600SOL    HW154697   7.847  11.181   8.402
17600SOL    HW254698   7.924  11.310   8.420
17601SOL     OW54699   5.820   7.390   8.039
17601SOL    HW154700   5.732   7.416   8.063
17601SOL    HW254701   5.866   7.382   8.123
17602SOL     OW54702   3.833   3.863  10.717
17602SOL    HW154703   3.837   3.958  10.704
17602SOL    HW254704   3.795   3.829  10.636
17603SOL     OW54705   6.154   2.192  11.848
17603SOL    HW154706   6.177   2.240  11.768
17603SOL    HW254707   6.065   2.220  11.868
17604SOL     OW54708   4.030   9.857   5.137
17604SOL    HW154709   4.038   9.827   5.047
17604SOL    HW254710   3.949   9.815   5.169
17605SOL     OW54711   3.099   9.291  10.962
17605SOL    HW154712   3.155   9.288  10.884
17605SOL    HW254713   3.017   9.328  10.930
17606SOL     OW54714   3.279   9.210  12.102
17606SOL    HW154715   3.325   9.130  12.126
17606SOL    HW254716   3.187   9.185  12.102
17607SOL     OW54717  13.017   8.155   2.216
17607SOL    HW154718  13.040   8.069   2.182
17607SOL    HW254719  13.094   8.209   2.200
17608SOL     OW54720  14.624   1.095   7.933
17608SOL    HW154721  14.545   1.070   7.886
17608SOL    HW254722  14.619   1.048   8.016
17609SOL     OW54723  12.065  13.175  12.525
17609SOL    HW154724  12.126  13.160  12.597
17609SOL    HW254725  12.061  13.091  12.479
17610SOL     OW54726   6.406   6.635   0.090
17610SOL    HW154727   6.475   6.670   0.033
17610SOL    HW254728   6.331   6.692   0.073
17611SOL     OW54729   4.898   1.510   2.934
17611SOL    HW154730   4.940   1.456   3.001
17611SOL    HW254731   4.806   1.510   2.958
17612SOL     OW54732   9.946   1.555   1.638
17612SOL    HW154733  10.031   1.569   1.680
17612SOL    HW254734   9.962   1.487   1.572
17613SOL     OW54735   1.256  14.809   3.540
17613SOL    HW154736   1.314  14.797   3.465
17613SOL    HW254737   1.168  14.797   3.505
17614SOL     OW54738   3.675   1.948   7.116
17614SOL    HW154739   3.643   2.037   7.096
17614SOL    HW254740   3.596   1.894   7.116
17615SOL     OW54741   6.265   7.246  10.657
17615SOL    HW154742   6.330   7.273  10.592
17615SOL    HW254743   6.248   7.325  10.709
17616SOL     OW54744   6.244   5.027   3.423
17616SOL    HW154745   6.236   5.117   3.455
17616SOL    HW254746   6.267   5.036   3.331
17617SOL     OW54747  10.289   4.798  14.121
17617SOL    HW154748  10.290   4.783  14.026
17617SOL    HW254749  10.206   4.842  14.138
17618SOL     OW54750  13.200  12.872   8.465
17618SOL    HW154751  13.139  12.825   8.408
17618SOL    HW254752  13.150  12.887   8.546
17619SOL     OW54753   6.158   7.807   9.285
17619SOL    HW154754   6.240   7.774   9.321
17619SOL    HW254755   6.184   7.883   9.233
17620SOL     OW54756  10.971  13.242  14.231
17620SOL    HW154757  11.036  13.304  14.262
17620SOL    HW254758  10.891  13.264  14.280
17621SOL     OW54759  10.122   4.969   6.641
17621SOL    HW154760  10.027   4.976   6.650
17621SOL    HW254761  10.137   4.875   6.631
17622SOL     OW54762   9.437  12.473   7.522
17622SOL    HW154763   9.496  12.427   7.582
17622SOL    HW254764   9.357  12.487   7.573
17623SOL     OW54765   7.103  10.118   5.125
17623SOL    HW154766   7.055  10.181   5.178
17623SOL    HW254767   7.177  10.168   5.090
17624SOL     OW54768  11.717  12.772   7.857
17624SOL    HW154769  11.763  12.854   7.836
17624SOL    HW254770  11.754  12.708   7.797
17625SOL     OW54771   6.019   3.344  12.476
17625SOL    HW154772   5.946   3.388  12.519
17625SOL    HW254773   6.045   3.404  12.406
17626SOL     OW54774   7.956   3.376  11.252
17626SOL    HW154775   7.909   3.328  11.185
17626SOL    HW254776   7.992   3.308  11.309
17627SOL     OW54777  10.558   0.371  11.117
17627SOL    HW154778  10.513   0.316  11.181
17627SOL    HW254779  10.487   0.418  11.072
17628SOL     OW54780   2.166   4.634   6.769
17628SOL    HW154781   2.150   4.567   6.703
17628SOL    HW254782   2.252   4.613   6.805
17629SOL     OW54783   4.994   0.677  11.424
17629SOL    HW154784   5.058   0.718  11.483
17629SOL    HW254785   4.991   0.585  11.452
17630SOL     OW54786   5.740  12.372   7.057
17630SOL    HW154787   5.733  12.296   7.000
17630SOL    HW254788   5.701  12.345   7.140
17631SOL     OW54789  12.342   8.150  14.422
17631SOL    HW154790  12.310   8.156  14.332
17631SOL    HW254791  12.266   8.172  14.476
17632SOL     OW54792   5.096   0.047  11.206
17632SOL    HW154793   5.138   0.112  11.262
17632SOL    HW254794   5.086   0.091  11.122
17633SOL     OW54795   8.795  10.584  12.102
17633SOL    HW154796   8.766  10.531  12.028
17633SOL    HW254797   8.760  10.539  12.179
17634SOL     OW54798  14.149   7.365   8.394
17634SOL    HW154799  14.065   7.396   8.359
17634SOL    HW254800  14.186   7.312   8.324
17635SOL     OW54801   4.186   7.438   8.526
17635SOL    HW154802   4.262   7.380   8.522
17635SOL    HW254803   4.111   7.379   8.524
17636SOL     OW54804   4.899   1.664   6.845
17636SOL    HW154805   4.828   1.672   6.782
17636SOL    HW254806   4.866   1.603   6.912
17637SOL     OW54807  13.833  12.753   7.263
17637SOL    HW154808  13.776  12.708   7.200
17637SOL    HW254809  13.921  12.737   7.230
17638SOL     OW54810   9.105   4.433   1.398
17638SOL    HW154811   9.184   4.422   1.451
17638SOL    HW254812   9.120   4.378   1.321
17639SOL     OW54813  10.251   4.432  13.900
17639SOL    HW154814  10.221   4.433  13.991
17639SOL    HW254815  10.336   4.475  13.903
17640SOL     OW54816  13.968   6.934  10.280
17640SOL    HW154817  13.917   7.009  10.310
17640SOL    HW254818  14.054   6.969  10.260
17641SOL     OW54819   9.554   1.349   2.011
17641SOL    HW154820   9.596   1.431   2.037
17641SOL    HW254821   9.538   1.303   2.094
17642SOL     OW54822   7.818   4.992  12.125
17642SOL    HW154823   7.912   5.004  12.111
17642SOL    HW254824   7.777   5.021  12.044
17643SOL     OW54825   9.193   9.194  14.378
17643SOL    HW154826   9.195   9.266  14.441
17643SOL    HW254827   9.211   9.116  14.431
17644SOL     OW54828  13.661  11.895   7.619
17644SOL    HW154829  13.637  11.984   7.646
17644SOL    HW254830  13.680  11.849   7.700
17645SOL     OW54831  14.836  14.300   1.137
17645SOL    HW154832  14.748  14.267   1.122
17645SOL    HW254833  14.839  14.383   1.088
17646SOL     OW54834   8.676  12.170   8.364
17646SOL    HW154835   8.635  12.251   8.333
17646SOL    HW254836   8.754  12.200   8.412
17647SOL     OW54837  13.177  13.492   9.095
17647SOL    HW154838  13.185  13.558   9.164
17647SOL    HW254839  13.257  13.440   9.103
17648SOL     OW54840  10.823   1.780   2.202
17648SOL    HW154841  10.823   1.858   2.257
17648SOL    HW254842  10.826   1.813   2.112
17649SOL     OW54843   6.250   5.375  12.493
17649SOL    HW154844   6.169   5.382  12.442
17649SOL    HW254845   6.314   5.339  12.433
17650SOL     OW54846   9.725   9.063   8.614
17650SOL    HW154847   9.635   9.095   8.618
17650SOL    HW254848   9.742   9.049   8.521
17651SOL     OW54849   9.764  12.630   4.697
17651SOL    HW154850   9.850  12.671   4.687
17651SOL    HW254851   9.739  12.649   4.787
17652SOL     OW54852   0.987   9.045   7.309
17652SOL    HW154853   0.910   9.100   7.308
17652SOL    HW254854   1.058   9.103   7.336
17653SOL     OW54855  12.655   7.269  12.798
17653SOL    HW154856  12.671   7.230  12.884
17653SOL    HW254857  12.741   7.301  12.769
17654SOL     OW54858   0.407  13.896   5.297
17654SOL    HW154859   0.384  13.805   5.279
17654SOL    HW254860   0.324  13.940   5.312
17655SOL     OW54861   1.995  11.133  14.490
17655SOL    HW154862   1.965  11.122  14.400
17655SOL    HW254863   1.918  11.163  14.538
17656SOL     OW54864   0.999  12.280   5.729
17656SOL    HW154865   1.022  12.261   5.638
17656SOL    HW254866   0.905  12.259   5.734
17657SOL     OW54867   2.087  12.898   3.230
17657SOL    HW154868   2.026  12.906   3.157
17657SOL    HW254869   2.054  12.825   3.282
17658SOL     OW54870  13.856  12.573   2.943
17658SOL    HW154871  13.895  12.538   2.863
17658SOL    HW254872  13.763  12.583   2.923
17659SOL     OW54873  12.458   3.875  13.742
17659SOL    HW154874  12.369   3.863  13.710
17659SOL    HW254875  12.482   3.963  13.713
17660SOL     OW54876   6.319   3.443   8.976
17660SOL    HW154877   6.282   3.502   8.910
17660SOL    HW254878   6.265   3.365   8.971
17661SOL     OW54879   6.891   9.602   1.643
17661SOL    HW154880   6.944   9.548   1.584
17661SOL    HW254881   6.886   9.551   1.724
17662SOL     OW54882   3.911  12.650   5.837
17662SOL    HW154883   3.981  12.697   5.793
17662SOL    HW254884   3.836  12.709   5.832
17663SOL     OW54885   3.005   9.891   9.887
17663SOL    HW154886   3.040   9.964   9.937
17663SOL    HW254887   3.081   9.852   9.844
17664SOL     OW54888   5.827  14.439  11.968
17664SOL    HW154889   5.859  14.529  11.974
17664SOL    HW254890   5.864  14.406  11.887
17665SOL     OW54891  14.118   1.611   2.496
17665SOL    HW154892  14.172   1.681   2.458
17665SOL    HW254893  14.178   1.536   2.502
17666SOL     OW54894  12.742   0.576   8.875
17666SOL    HW154895  12.675   0.540   8.817
17666SOL    HW254896  12.823   0.532   8.848
17667SOL     OW54897  14.667   1.398  12.973
17667SOL    HW154898  14.576   1.371  12.983
17667SOL    HW254899  14.663   1.492  12.959
17668SOL     OW54900   4.308   6.686   3.594
17668SOL    HW154901   4.296   6.748   3.666
17668SOL    HW254902   4.363   6.617   3.631
17669SOL     OW54903   7.859  13.619   5.418
17669SOL    HW154904   7.801  13.544   5.425
17669SOL    HW254905   7.918  13.598   5.346
17670SOL     OW54906   7.571  11.526   2.181
17670SOL    HW154907   7.645  11.535   2.120
17670SOL    HW254908   7.521  11.607   2.169
17671SOL     OW54909  10.760   8.012   4.430
17671SOL    HW154910  10.699   8.059   4.487
17671SOL    HW254911  10.824   7.974   4.489
17672SOL     OW54912   9.796   8.538   5.842
17672SOL    HW154913   9.773   8.630   5.830
17672SOL    HW254914   9.714   8.490   5.829
17673SOL     OW54915  13.877   3.941   5.882
17673SOL    HW154916  13.821   3.956   5.805
17673SOL    HW254917  13.816   3.914   5.950
17674SOL     OW54918  12.708  12.982  12.220
17674SOL    HW154919  12.733  12.908  12.277
17674SOL    HW254920  12.791  13.018  12.190
17675SOL     OW54921   3.233  11.302   9.398
17675SOL    HW154922   3.300  11.263   9.342
17675SOL    HW254923   3.267  11.389   9.418
17676SOL     OW54924  12.565   7.829  13.879
17676SOL    HW154925  12.558   7.854  13.971
17676SOL    HW254926  12.475   7.824  13.848
17677SOL     OW54927   3.059  11.629  13.606
17677SOL    HW154928   3.082  11.721  13.615
17677SOL    HW254929   3.022  11.622  13.518
17678SOL     OW54930   1.035  14.268   6.870
17678SOL    HW154931   1.043  14.319   6.789
17678SOL    HW254932   1.104  14.302   6.927
17679SOL     OW54933   3.850  11.519   0.223
17679SOL    HW154934   3.922  11.574   0.194
17679SOL    HW254935   3.891  11.455   0.281
17680SOL     OW54936  10.255   2.987   9.544
17680SOL    HW154937  10.257   2.985   9.640
17680SOL    HW254938  10.198   2.915   9.519
17681SOL     OW54939  13.452  14.497  12.007
17681SOL    HW154940  13.486  14.444  12.080
17681SOL    HW254941  13.528  14.547  11.976
17682SOL     OW54942  13.386   6.376   3.770
17682SOL    HW154943  13.382   6.400   3.862
17682SOL    HW254944  13.356   6.285   3.767
17683SOL     OW54945   3.207  11.469   4.617
17683SOL    HW154946   3.168  11.465   4.530
17683SOL    HW254947   3.249  11.384   4.628
17684SOL     OW54948   8.391   5.351   1.590
17684SOL    HW154949   8.455   5.419   1.613
17684SOL    HW254950   8.365   5.313   1.673
17685SOL     OW54951  10.130  14.204   0.947
17685SOL    HW154952  10.141  14.144   0.873
17685SOL    HW254953  10.039  14.191   0.975
17686SOL     OW54954   7.377  13.752  11.835
17686SOL    HW154955   7.456  13.786  11.875
17686SOL    HW254956   7.380  13.657  11.852
17687SOL     OW54957   4.339   5.440   0.104
17687SOL    HW154958   4.402   5.411   0.170
17687SOL    HW254959   4.328   5.364   0.047
17688SOL     OW54960   3.632  13.252   2.610
17688SOL    HW154961   3.596  13.248   2.521
17688SOL    HW254962   3.671  13.166   2.625
17689SOL     OW54963  14.063  12.310   6.497
17689SOL    HW154964  14.103  12.364   6.430
17689SOL    HW254965  14.111  12.227   6.493
17690SOL     OW54966   2.969   0.758  12.958
17690SOL    HW154967   3.001   0.691  13.018
17690SOL    HW254968   2.886   0.723  12.925
17691SOL     OW54969  10.782  14.525  12.489
17691SOL    HW154970  10.725  14.570  12.551
17691SOL    HW254971  10.869  14.529  12.529
17692SOL     OW54972  14.748   2.060   2.593
17692SOL    HW154973  14.681   2.112   2.548
17692SOL    HW254974  14.806   2.125   2.633
17693SOL     OW54975   3.863   1.600  13.333
17693SOL    HW154976   3.924   1.527  13.326
17693SOL    HW254977   3.782   1.568  13.293
17694SOL     OW54978   0.450   9.889   9.540
17694SOL    HW154979   0.378   9.837   9.575
17694SOL    HW254980   0.512   9.824   9.506
17695SOL     OW54981   6.420   3.031  11.164
17695SOL    HW154982   6.423   2.968  11.236
17695SOL    HW254983   6.473   3.105  11.195
17696SOL     OW54984   9.672  10.450   2.785
17696SOL    HW154985   9.616  10.381   2.752
17696SOL    HW254986   9.612  10.519   2.813
17697SOL     OW54987   5.680  13.482  12.078
17697SOL    HW154988   5.644  13.413  12.133
17697SOL    HW254989   5.617  13.554  12.086
17698SOL     OW54990  13.924   9.511  14.740
17698SOL    HW154991  13.880   9.480  14.661
17698SOL    HW254992  13.925   9.435  14.798
17699SOL     OW54993  11.001   7.679  14.434
17699SOL    HW154994  10.962   7.720  14.358
17699SOL    HW254995  11.093   7.666  14.410
17700SOL     OW54996  11.720  12.980   7.130
17700SOL    HW154997  11.726  13.075   7.124
17700SOL    HW254998  11.654  12.956   7.065
17701SOL     OW54999   8.496   2.516   1.528
17701SOL    HW155000   8.420   2.458   1.517
17701SOL    HW255001   8.481   2.558   1.613
17702SOL     OW55002   7.895   3.526   3.588
17702SOL    HW155003   7.918   3.458   3.525
17702SOL    HW255004   7.978   3.568   3.609
17703SOL     OW55005  10.905  11.554  11.414
17703SOL    HW155006  10.976  11.577  11.355
17703SOL    HW255007  10.832  11.531  11.357
17704SOL     OW55008  11.918  10.055   4.027
17704SOL    HW155009  11.823  10.065   4.033
17704SOL    HW255010  11.943  10.107   3.951
17705SOL     OW55011   3.930  11.277   3.805
17705SOL    HW155012   3.918  11.194   3.760
17705SOL    HW255013   4.025  11.287   3.811
17706SOL     OW55014   8.888   7.403   9.167
17706SOL    HW155015   8.869   7.496   9.176
17706SOL    HW255016   8.818   7.359   9.215
17707SOL     OW55017  12.235   3.930  11.981
17707SOL    HW155018  12.212   4.005  12.035
17707SOL    HW255019  12.285   3.968  11.908
17708SOL     OW55020   1.236   7.742  11.385
17708SOL    HW155021   1.166   7.680  11.407
17708SOL    HW255022   1.190   7.825  11.372
17709SOL     OW55023   2.643   8.744  13.912
17709SOL    HW155024   2.556   8.710  13.933
17709SOL    HW255025   2.656   8.722  13.820
17710SOL     OW55026   2.726  13.722   7.696
17710SOL    HW155027   2.733  13.816   7.680
17710SOL    HW255028   2.817  13.690   7.694
17711SOL     OW55029  10.907   7.052  13.798
17711SOL    HW155030  10.946   7.012  13.720
17711SOL    HW255031  10.981   7.068  13.856
17712SOL     OW55032  10.113   6.150   1.223
17712SOL    HW155033  10.037   6.091   1.227
17712SOL    HW255034  10.183   6.103   1.267
17713SOL     OW55035   5.996   7.125   4.212
17713SOL    HW155036   6.080   7.165   4.235
17713SOL    HW255037   6.016   7.033   4.200
17714SOL     OW55038  13.118   4.616   5.645
17714SOL    HW155039  13.111   4.551   5.575
17714SOL    HW255040  13.070   4.692   5.612
17715SOL     OW55041  13.829  12.676  10.440
17715SOL    HW155042  13.885  12.749  10.465
17715SOL    HW255043  13.766  12.669  10.511
17716SOL     OW55044   1.149   1.541   8.393
17716SOL    HW155045   1.237   1.519   8.361
17716SOL    HW255046   1.148   1.508   8.483
17717SOL     OW55047   9.619   3.863   8.758
17717SOL    HW155048   9.530   3.897   8.767
17717SOL    HW255049   9.672   3.918   8.815
17718SOL     OW55050   5.410  12.729   2.404
17718SOL    HW155051   5.334  12.752   2.350
17718SOL    HW255052   5.417  12.634   2.396
17719SOL     OW55053   7.279   7.140  14.279
17719SOL    HW155054   7.344   7.137  14.209
17719SOL    HW255055   7.247   7.230  14.279
17720SOL     OW55056   9.964   6.832  11.016
17720SOL    HW155057   9.991   6.796  11.100
17720SOL    HW255058  10.041   6.822  10.960
17721SOL     OW55059   3.228   0.003   0.720
17721SOL    HW155060   3.233   0.079   0.661
17721SOL    HW255061   3.136  14.860   0.722
17722SOL     OW55062  10.990  12.230  12.788
17722SOL    HW155063  11.081  12.236  12.818
17722SOL    HW255064  10.939  12.217  12.868
17723SOL     OW55065  12.510   1.433  13.610
17723SOL    HW155066  12.544   1.403  13.526
17723SOL    HW255067  12.506   1.529  13.602
17724SOL     OW55068   4.191  12.473   0.970
17724SOL    HW155069   4.109  12.517   0.947
17724SOL    HW255070   4.201  12.488   1.064
17725SOL     OW55071   0.419   2.697   3.129
17725SOL    HW155072   0.339   2.719   3.178
17725SOL    HW255073   0.490   2.731   3.183
17726SOL     OW55074   6.095   2.273  11.316
17726SOL    HW155075   6.075   2.323  11.237
17726SOL    HW255076   6.010   2.261  11.359
17727SOL     OW55077   9.804   0.029   7.071
17727SOL    HW155078   9.797  14.813   7.081
17727SOL    HW255079   9.888   0.041   7.027
17728SOL     OW55080  13.305   7.737   3.749
17728SOL    HW155081  13.391   7.724   3.789
17728SOL    HW255082  13.311   7.693   3.664
17729SOL     OW55083   7.086   8.112   2.329
17729SOL    HW155084   7.052   8.023   2.338
17729SOL    HW255085   7.169   8.101   2.283
17730SOL     OW55086  12.391   1.121   7.329
17730SOL    HW155087  12.381   1.025   7.326
17730SOL    HW255088  12.302   1.154   7.337
17731SOL     OW55089   2.983   2.595  14.039
17731SOL    HW155090   3.056   2.551  13.994
17731SOL    HW255091   2.905   2.551  14.006
17732SOL     OW55092  14.512   3.629   5.209
17732SOL    HW155093  14.419   3.651   5.201
17732SOL    HW255094  14.544   3.625   5.119
17733SOL     OW55095   6.609   5.170  12.458
17733SOL    HW155096   6.654   5.221  12.525
17733SOL    HW255097   6.678   5.120  12.414
17734SOL     OW55098  11.293  14.022   7.756
17734SOL    HW155099  11.252  14.000   7.840
17734SOL    HW255100  11.387  14.017   7.773
17735SOL     OW55101   2.711  11.958  13.072
17735SOL    HW155102   2.795  11.942  13.029
17735SOL    HW255103   2.699  12.053  13.065
17736SOL     OW55104  12.861  12.650   9.605
17736SOL    HW155105  12.870  12.562   9.567
17736SOL    HW255106  12.917  12.705   9.551
17737SOL     OW55107  14.749   9.619   2.845
17737SOL    HW155108  14.757   9.713   2.826
17737SOL    HW255109  14.700   9.584   2.770
17738SOL     OW55110  11.053  10.491   6.192
17738SOL    HW155111  10.993  10.495   6.117
17738SOL    HW255112  11.000  10.453   6.263
17739SOL     OW55113  13.920   5.116  12.357
17739SOL    HW155114  13.932   5.029  12.394
17739SOL    HW255115  13.988   5.124  12.290
17740SOL     OW55116   0.272  10.083   2.477
17740SOL    HW155117   0.194  10.079   2.532
17740SOL    HW255118   0.343  10.109   2.537
17741SOL     OW55119   5.372  12.608   1.980
17741SOL    HW155120   5.357  12.628   1.887
17741SOL    HW255121   5.308  12.661   2.026
17742SOL     OW55122   4.994   4.349   8.776
17742SOL    HW155123   5.067   4.287   8.773
17742SOL    HW255124   4.925   4.302   8.823
17743SOL     OW55125   5.154   8.321   1.264
17743SOL    HW155126   5.122   8.272   1.339
17743SOL    HW255127   5.241   8.283   1.246
17744SOL     OW55128  12.496  12.675   5.803
17744SOL    HW155129  12.525  12.599   5.752
17744SOL    HW255130  12.569  12.736   5.798
17745SOL     OW55131   1.700   4.855   7.203
17745SOL    HW155132   1.723   4.882   7.114
17745SOL    HW255133   1.784   4.844   7.247
17746SOL     OW55134   9.853   2.131  14.255
17746SOL    HW155135   9.898   2.144  14.172
17746SOL    HW255136   9.771   2.179  14.246
17747SOL     OW55137   1.063   8.104  14.171
17747SOL    HW155138   0.978   8.145  14.184
17747SOL    HW255139   1.092   8.135  14.085
17748SOL     OW55140   5.209   5.526  13.038
17748SOL    HW155141   5.248   5.456  13.091
17748SOL    HW255142   5.117   5.500  13.028
17749SOL     OW55143   4.384   2.564   9.208
17749SOL    HW155144   4.322   2.533   9.142
17749SOL    HW255145   4.331   2.579   9.286
17750SOL     OW55146  12.595   4.807  11.300
17750SOL    HW155147  12.654   4.855  11.243
17750SOL    HW255148  12.643   4.728  11.324
17751SOL     OW55149   1.726   5.786   7.225
17751SOL    HW155150   1.632   5.788   7.207
17751SOL    HW255151   1.761   5.864   7.182
17752SOL     OW55152   8.887  14.457   8.871
17752SOL    HW155153   8.847  14.506   8.799
17752SOL    HW255154   8.945  14.521   8.913
17753SOL     OW55155  13.412   4.192   4.777
17753SOL    HW155156  13.352   4.126   4.742
17753SOL    HW255157  13.385   4.203   4.868
17754SOL     OW55158  11.327  10.088   0.924
17754SOL    HW155159  11.237  10.060   0.908
17754SOL    HW255160  11.376  10.058   0.847
17755SOL     OW55161   8.369  11.008   8.883
17755SOL    HW155162   8.372  11.078   8.949
17755SOL    HW255163   8.397  10.930   8.930
17756SOL     OW55164   3.692   7.567   8.354
17756SOL    HW155165   3.737   7.568   8.269
17756SOL    HW255166   3.759   7.539   8.416
17757SOL     OW55167   5.785   2.238   5.140
17757SOL    HW155168   5.742   2.320   5.165
17757SOL    HW255169   5.876   2.250   5.166
17758SOL     OW55170   4.229   9.031   3.183
17758SOL    HW155171   4.251   9.100   3.246
17758SOL    HW255172   4.268   8.952   3.219
17759SOL     OW55173   3.531   4.230  12.610
17759SOL    HW155174   3.553   4.149  12.656
17759SOL    HW255175   3.492   4.200  12.528
17760SOL     OW55176   6.318  14.294   3.510
17760SOL    HW155177   6.267  14.216   3.526
17760SOL    HW255178   6.387  14.266   3.449
17761SOL     OW55179  12.126   7.353   8.162
17761SOL    HW155180  12.138   7.442   8.194
17761SOL    HW255181  12.162   7.354   8.073
17762SOL     OW55182   8.615   5.037  14.136
17762SOL    HW155183   8.528   5.014  14.103
17762SOL    HW255184   8.653   4.953  14.165
17763SOL     OW55185   6.247  12.852   3.046
17763SOL    HW155186   6.201  12.880   3.124
17763SOL    HW255187   6.192  12.783   3.009
17764SOL     OW55188   3.083  10.277   2.363
17764SOL    HW155189   2.994  10.307   2.346
17764SOL    HW255190   3.139  10.334   2.311
17765SOL     OW55191   7.896   9.355   3.603
17765SOL    HW155192   7.952   9.389   3.534
17765SOL    HW255193   7.814   9.403   3.594
17766SOL     OW55194   4.702  12.858   6.068
17766SOL    HW155195   4.726  12.949   6.051
17766SOL    HW255196   4.759  12.830   6.140
17767SOL     OW55197   2.658   3.660  12.515
17767SOL    HW155198   2.567   3.638  12.494
17767SOL    HW255199   2.710   3.594  12.468
17768SOL     OW55200  10.887   0.502  13.536
17768SOL    HW155201  10.920   0.503  13.446
17768SOL    HW255202  10.965   0.485  13.589
17769SOL     OW55203  12.868   3.837  14.873
17769SOL    HW155204  12.830   3.849   0.080
17769SOL    HW255205  12.890   3.926  14.844
17770SOL     OW55206   4.903   6.492   2.004
17770SOL    HW155207   4.944   6.578   2.006
17770SOL    HW255208   4.926   6.452   2.088
17771SOL     OW55209   3.072  10.468   7.072
17771SOL    HW155210   3.054  10.552   7.030
17771SOL    HW255211   3.039  10.403   7.010
17772SOL     OW55212   8.374   1.095   3.643
17772SOL    HW155213   8.349   1.185   3.623
17772SOL    HW255214   8.422   1.066   3.566
17773SOL     OW55215  12.239   9.783   5.825
17773SOL    HW155216  12.192   9.864   5.804
17773SOL    HW255217  12.307   9.777   5.758
17774SOL     OW55218   7.968   3.572  10.932
17774SOL    HW155219   7.918   3.653  10.921
17774SOL    HW255220   8.038   3.595  10.993
17775SOL     OW55221  11.574   8.916   9.935
17775SOL    HW155222  11.595   8.953  10.020
17775SOL    HW255223  11.478   8.916   9.932
17776SOL     OW55224   0.622  12.714  11.566
17776SOL    HW155225   0.624  12.810  11.561
17776SOL    HW255226   0.646  12.694  11.656
17777SOL     OW55227   2.806  10.458   5.108
17777SOL    HW155228   2.843  10.544   5.087
17777SOL    HW255229   2.742  10.442   5.038
17778SOL     OW55230  14.292   0.621  10.319
17778SOL    HW155231  14.224   0.582  10.263
17778SOL    HW255232  14.350   0.548  10.341
17779SOL     OW55233  12.673   5.646   8.858
17779SOL    HW155234  12.635   5.576   8.911
17779SOL    HW255235  12.738   5.687   8.915
17780SOL     OW55236   1.696  13.278   8.425
17780SOL    HW155237   1.733  13.197   8.461
17780SOL    HW255238   1.769  13.339   8.423
17781SOL     OW55239  13.693   2.023  11.857
17781SOL    HW155240  13.631   1.971  11.908
17781SOL    HW255241  13.659   2.112  11.861
17782SOL     OW55242   3.314   9.104   3.111
17782SOL    HW155243   3.297   9.159   3.035
17782SOL    HW255244   3.238   9.119   3.168
17783SOL     OW55245  14.500   1.449   2.102
17783SOL    HW155246  14.493   1.396   2.181
17783SOL    HW255247  14.542   1.530   2.131
17784SOL     OW55248   0.620  13.193   0.281
17784SOL    HW155249   0.699  13.180   0.229
17784SOL    HW255250   0.587  13.279   0.254
17785SOL     OW55251   1.813  11.984   3.501
17785SOL    HW155252   1.814  11.910   3.439
17785SOL    HW255253   1.818  11.942   3.587
17786SOL     OW55254   5.938   8.569   3.330
17786SOL    HW155255   5.950   8.594   3.238
17786SOL    HW255256   5.938   8.652   3.377
17787SOL     OW55257   6.643   7.221  13.307
17787SOL    HW155258   6.683   7.135  13.321
17787SOL    HW255259   6.578   7.228  13.377
17788SOL     OW55260  13.083   6.742  13.762
17788SOL    HW155261  13.057   6.676  13.697
17788SOL    HW255262  13.040   6.714  13.842
17789SOL     OW55263   2.868   9.280   0.587
17789SOL    HW155264   2.809   9.331   0.642
17789SOL    HW255265   2.914   9.222   0.648
17790SOL     OW55266   8.815   4.815   6.894
17790SOL    HW155267   8.807   4.819   6.990
17790SOL    HW255268   8.803   4.905   6.865
17791SOL     OW55269   7.780   4.103   3.407
17791SOL    HW155270   7.852   4.064   3.456
17791SOL    HW255271   7.822   4.145   3.331
17792SOL     OW55272   6.486   6.979   1.418
17792SOL    HW155273   6.422   7.018   1.358
17792SOL    HW255274   6.559   7.041   1.419
17793SOL     OW55275  13.622   6.302  13.037
17793SOL    HW155276  13.615   6.207  13.041
17793SOL    HW255277  13.715   6.319  13.024
17794SOL     OW55278   4.134  11.428   7.686
17794SOL    HW155279   4.186  11.442   7.607
17794SOL    HW255280   4.134  11.333   7.698
17795SOL     OW55281  11.558   0.944   1.179
17795SOL    HW155282  11.617   0.883   1.223
17795SOL    HW255283  11.523   0.894   1.105
17796SOL     OW55284  13.971   4.998   7.856
17796SOL    HW155285  13.933   5.064   7.798
17796SOL    HW255286  13.903   4.933   7.866
17797SOL     OW55287   8.888   3.845   0.384
17797SOL    HW155288   8.875   3.938   0.400
17797SOL    HW255289   8.980   3.830   0.402
17798SOL     OW55290   2.874   9.816   9.589
17798SOL    HW155291   2.797   9.872   9.597
17798SOL    HW255292   2.840   9.730   9.566
17799SOL     OW55293   7.825  10.128   4.420
17799SOL    HW155294   7.860  10.081   4.496
17799SOL    HW255295   7.869  10.213   4.423
17800SOL     OW55296   1.424  12.038   6.688
17800SOL    HW155297   1.392  11.961   6.735
17800SOL    HW255298   1.371  12.041   6.608
17801SOL     OW55299   0.851   5.348   7.235
17801SOL    HW155300   0.883   5.300   7.159
17801SOL    HW255301   0.910   5.324   7.306
17802SOL     OW55302   4.100  12.100   0.765
17802SOL    HW155303   4.170  12.052   0.720
17802SOL    HW255304   4.061  12.154   0.696
17803SOL     OW55305   1.039   7.728   2.371
17803SOL    HW155306   0.971   7.736   2.438
17803SOL    HW255307   1.121   7.729   2.421
17804SOL     OW55308   1.988   7.570   4.204
17804SOL    HW155309   1.910   7.543   4.253
17804SOL    HW255310   2.060   7.559   4.266
17805SOL     OW55311   3.695   8.841  12.769
17805SOL    HW155312   3.773   8.896  12.765
17805SOL    HW255313   3.716   8.764  12.716
17806SOL     OW55314   2.131   4.026   6.025
17806SOL    HW155315   2.101   3.941   6.057
17806SOL    HW255316   2.207   4.006   5.970
17807SOL     OW55317   9.255   0.495  12.336
17807SOL    HW155318   9.211   0.571  12.297
17807SOL    HW255319   9.277   0.440  12.261
17808SOL     OW55320  11.284   8.337   1.671
17808SOL    HW155321  11.287   8.359   1.764
17808SOL    HW255322  11.191   8.325   1.653
17809SOL     OW55323  11.677   3.084  14.258
17809SOL    HW155324  11.715   2.997  14.271
17809SOL    HW255325  11.584   3.072  14.276
17810SOL     OW55326  12.962   1.067   0.481
17810SOL    HW155327  12.917   1.148   0.457
17810SOL    HW255328  13.055   1.086   0.466
17811SOL     OW55329   0.083   5.724  13.690
17811SOL    HW155330   0.142   5.688  13.757
17811SOL    HW255331   0.044   5.647  13.649
17812SOL     OW55332   2.895   1.343   0.758
17812SOL    HW155333   2.821   1.317   0.814
17812SOL    HW255334   2.896   1.438   0.762
17813SOL     OW55335   9.760   2.148   4.045
17813SOL    HW155336   9.668   2.122   4.044
17813SOL    HW255337   9.804   2.080   3.993
17814SOL     OW55338   1.589  13.883   1.068
17814SOL    HW155339   1.660  13.866   1.005
17814SOL    HW255340   1.633  13.919   1.144
17815SOL     OW55341   2.400  12.663  13.977
17815SOL    HW155342   2.455  12.621  14.043
17815SOL    HW255343   2.447  12.650  13.895
17816SOL     OW55344  14.411  14.274   8.390
17816SOL    HW155345  14.441  14.327   8.316
17816SOL    HW255346  14.445  14.187   8.372
17817SOL     OW55347  10.412   8.269   5.687
17817SOL    HW155348  10.416   8.341   5.750
17817SOL    HW255349  10.450   8.195   5.733
17818SOL     OW55350   5.458   2.919   1.062
17818SOL    HW155351   5.498   2.906   1.147
17818SOL    HW255352   5.462   2.833   1.020
17819SOL     OW55353   5.451  10.602  14.500
17819SOL    HW155354   5.431  10.508  14.493
17819SOL    HW255355   5.463  10.631  14.410
17820SOL     OW55356  10.978   8.365   8.908
17820SOL    HW155357  10.951   8.282   8.948
17820SOL    HW255358  10.924   8.431   8.951
17821SOL     OW55359   0.194  14.151   3.309
17821SOL    HW155360   0.266  14.123   3.365
17821SOL    HW255361   0.205  14.100   3.229
17822SOL     OW55362   6.983   7.049  12.728
17822SOL    HW155363   7.028   7.124  12.768
17822SOL    HW255364   7.053   6.989  12.704
17823SOL     OW55365   8.706  10.127   3.834
17823SOL    HW155366   8.800  10.111   3.844
17823SOL    HW255367   8.683  10.083   3.752
17824SOL     OW55368   9.192  12.697   3.161
17824SOL    HW155369   9.266  12.753   3.185
17824SOL    HW255370   9.115  12.748   3.187
17825SOL     OW55371  11.840   5.017   0.268
17825SOL    HW155372  11.833   4.999   0.175
17825SOL    HW255373  11.856   4.932   0.308
17826SOL     OW55374  10.045   2.710   9.277
17826SOL    HW155375  10.068   2.625   9.239
17826SOL    HW255376   9.957   2.729   9.243
17827SOL     OW55377   5.678   0.211  12.415
17827SOL    HW155378   5.725   0.293  12.397
17827SOL    HW255379   5.723   0.146  12.362
17828SOL     OW55380   4.482   0.228   1.092
17828SOL    HW155381   4.392   0.254   1.111
17828SOL    HW255382   4.484   0.134   1.106
17829SOL     OW55383   2.392  13.983   2.685
17829SOL    HW155384   2.395  13.908   2.746
17829SOL    HW255385   2.342  13.951   2.610
17830SOL     OW55386   3.372   2.972  14.268
17830SOL    HW155387   3.285   3.005  14.244
17830SOL    HW255388   3.391   3.013  14.352
17831SOL     OW55389   7.911  11.592   4.419
17831SOL    HW155390   7.826  11.574   4.379
17831SOL    HW255391   7.968  11.615   4.346
17832SOL     OW55392   7.820   3.546  11.416
17832SOL    HW155393   7.864   3.477  11.366
17832SOL    HW255394   7.876   3.558  11.493
17833SOL     OW55395   0.870  14.505   8.733
17833SOL    HW155396   0.806  14.470   8.671
17833SOL    HW255397   0.934  14.434   8.745
17834SOL     OW55398   6.403  10.165   0.338
17834SOL    HW155399   6.414  10.232   0.406
17834SOL    HW255400   6.447  10.202   0.261
17835SOL     OW55401   5.734   8.808  14.332
17835SOL    HW155402   5.800   8.864  14.292
17835SOL    HW255403   5.655   8.862  14.334
17836SOL     OW55404   5.672   9.061   7.762
17836SOL    HW155405   5.744   9.064   7.700
17836SOL    HW255406   5.614   8.991   7.730
17837SOL     OW55407  12.968  13.430   9.901
17837SOL    HW155408  12.985  13.443   9.994
17837SOL    HW255409  12.988  13.337   9.885
17838SOL     OW55410   2.347  13.186  13.647
17838SOL    HW155411   2.345  13.281  13.637
17838SOL    HW255412   2.255  13.161  13.652
17839SOL     OW55413   5.728   0.984   9.687
17839SOL    HW155414   5.746   1.049   9.618
17839SOL    HW255415   5.717   1.036   9.766
17840SOL     OW55416  11.393  14.087   3.576
17840SOL    HW155417  11.428  14.176   3.566
17840SOL    HW255418  11.342  14.090   3.657
17841SOL     OW55419   8.871  13.678   0.853
17841SOL    HW155420   8.803  13.698   0.917
17841SOL    HW255421   8.868  13.583   0.844
17842SOL     OW55422  12.345   0.030   2.405
17842SOL    HW155423  12.255   0.061   2.420
17842SOL    HW255424  12.396   0.069   2.476
17843SOL     OW55425  10.026  14.410   0.481
17843SOL    HW155426   9.996  14.449   0.399
17843SOL    HW255427  10.047  14.320   0.458
17844SOL     OW55428  13.244  13.253  14.394
17844SOL    HW155429  13.254  13.297  14.478
17844SOL    HW255430  13.333  13.238  14.363
17845SOL     OW55431  12.342  14.483   1.649
17845SOL    HW155432  12.318  14.425   1.576
17845SOL    HW255433  12.434  14.502   1.634
17846SOL     OW55434   1.075   9.942   3.174
17846SOL    HW155435   1.162   9.963   3.140
17846SOL    HW255436   1.088   9.864   3.227
17847SOL     OW55437   3.865   3.712   1.014
17847SOL    HW155438   3.959   3.717   1.033
17847SOL    HW255439   3.832   3.800   1.031
17848SOL     OW55440   4.615  10.481   8.783
17848SOL    HW155441   4.618  10.524   8.698
17848SOL    HW255442   4.634  10.389   8.764
17849SOL     OW55443  14.612  10.922   4.819
17849SOL    HW155444  14.699  10.961   4.826
17849SOL    HW255445  14.585  10.906   4.910
17850SOL     OW55446  13.110   0.022   7.882
17850SOL    HW155447  13.133  14.819   7.925
17850SOL    HW255448  13.105   0.000   7.789
17851SOL     OW55449   9.274  13.993  12.494
17851SOL    HW155450   9.267  14.025  12.404
17851SOL    HW255451   9.186  13.962  12.515
17852SOL     OW55452   9.983  11.282   8.206
17852SOL    HW155453  10.037  11.223   8.154
17852SOL    HW255454   9.894  11.248   8.197
17853SOL     OW55455   8.875   5.349   5.598
17853SOL    HW155456   8.865   5.356   5.693
17853SOL    HW255457   8.926   5.426   5.574
17854SOL     OW55458   3.484   3.758   2.928
17854SOL    HW155459   3.406   3.761   2.983
17854SOL    HW255460   3.506   3.665   2.922
17855SOL     OW55461   4.306  13.838  13.695
17855SOL    HW155462   4.391  13.862  13.658
17855SOL    HW255463   4.242  13.884  13.641
17856SOL     OW55464   1.544   8.867   3.749
17856SOL    HW155465   1.560   8.926   3.676
17856SOL    HW255466   1.511   8.787   3.709
17857SOL     OW55467   1.700   0.712  14.278
17857SOL    HW155468   1.613   0.679  14.299
17857SOL    HW255469   1.756   0.678  14.348
17858SOL     OW55470   2.585   4.829  11.522
17858SOL    HW155471   2.636   4.759  11.562
17858SOL    HW255472   2.513   4.845  11.583
17859SOL     OW55473   4.089   8.334   5.833
17859SOL    HW155474   4.078   8.425   5.807
17859SOL    HW255475   4.001   8.305   5.858
17860SOL     OW55476   4.651   3.571  13.070
17860SOL    HW155477   4.720   3.588  13.006
17860SOL    HW255478   4.695   3.581  13.155
17861SOL     OW55479   8.747  14.693   6.434
17861SOL    HW155480   8.726  14.642   6.355
17861SOL    HW255481   8.838  14.718   6.422
17862SOL     OW55482   0.312   2.195   5.077
17862SOL    HW155483   0.395   2.242   5.067
17862SOL    HW255484   0.245   2.262   5.066
17863SOL     OW55485   0.332   9.313   9.124
17863SOL    HW155486   0.346   9.407   9.119
17863SOL    HW255487   0.370   9.278   9.044
17864SOL     OW55488  13.323   1.246  10.559
17864SOL    HW155489  13.229   1.230  10.550
17864SOL    HW255490  13.329   1.334  10.598
17865SOL     OW55491  14.236  14.170  13.208
17865SOL    HW155492  14.144  14.157  13.231
17865SOL    HW255493  14.256  14.258  13.239
17866SOL     OW55494   3.997   3.111   5.111
17866SOL    HW155495   4.016   3.101   5.204
17866SOL    HW255496   4.081   3.096   5.068
17867SOL     OW55497   3.550   7.274   4.497
17867SOL    HW155498   3.633   7.279   4.450
17867SOL    HW255499   3.507   7.357   4.479
17868SOL     OW55500   9.034  14.671  13.799
17868SOL    HW155501   8.947  14.630  13.795
17868SOL    HW255502   9.070  14.660  13.711
17869SOL     OW55503   5.709   9.418   6.529
17869SOL    HW155504   5.659   9.337   6.544
17869SOL    HW255505   5.724   9.420   6.435
17870SOL     OW55506  13.466  10.667  14.720
17870SOL    HW155507  13.484  10.638  14.809
17870SOL    HW255508  13.535  10.628  14.667
17871SOL     OW55509   2.033  12.450   9.646
17871SOL    HW155510   1.953  12.445   9.699
17871SOL    HW255511   2.074  12.364   9.656
17872SOL     OW55512   5.042  13.565  10.752
17872SOL    HW155513   4.980  13.584  10.823
17872SOL    HW255514   4.988  13.562  10.673
17873SOL     OW55515   5.009   8.413  10.077
17873SOL    HW155516   4.947   8.469  10.124
17873SOL    HW255517   4.954   8.347  10.035
17874SOL     OW55518   7.280   7.142   2.685
17874SOL    HW155519   7.186   7.155   2.698
17874SOL    HW255520   7.320   7.224   2.714
17875SOL     OW55521   3.618   6.395   7.406
17875SOL    HW155522   3.552   6.375   7.472
17875SOL    HW255523   3.697   6.417   7.455
17876SOL     OW55524  12.097  13.781  13.669
17876SOL    HW155525  12.070  13.833  13.593
17876SOL    HW255526  12.162  13.720  13.635
17877SOL     OW55527   5.663   3.620   2.120
17877SOL    HW155528   5.629   3.678   2.052
17877SOL    HW255529   5.596   3.623   2.189
17878SOL     OW55530   0.482  11.963   2.302
17878SOL    HW155531   0.524  12.009   2.229
17878SOL    HW255532   0.512  11.872   2.294
17879SOL     OW55533   7.559   9.008  10.189
17879SOL    HW155534   7.485   8.998  10.129
17879SOL    HW255535   7.550   9.096  10.225
17880SOL     OW55536  14.535  10.552   1.616
17880SOL    HW155537  14.569  10.486   1.556
17880SOL    HW255538  14.468  10.598   1.566
17881SOL     OW55539  13.594   4.341  14.030
17881SOL    HW155540  13.566   4.396  14.104
17881SOL    HW255541  13.518   4.284  14.013
17882SOL     OW55542   9.604  14.233   9.364
17882SOL    HW155543   9.592  14.311   9.418
17882SOL    HW255544   9.606  14.160   9.426
17883SOL     OW55545  11.139   1.196  11.688
17883SOL    HW155546  11.098   1.109  11.687
17883SOL    HW255547  11.215   1.186  11.745
17884SOL     OW55548  14.241   7.945   2.129
17884SOL    HW155549  14.280   8.032   2.122
17884SOL    HW255550  14.274   7.910   2.212
17885SOL     OW55551   8.000   8.429  13.768
17885SOL    HW155552   8.057   8.495  13.730
17885SOL    HW255553   8.018   8.432  13.862
17886SOL     OW55554   7.262  12.684   1.292
17886SOL    HW155555   7.173  12.682   1.258
17886SOL    HW255556   7.301  12.763   1.253
17887SOL     OW55557  10.622   7.146  12.169
17887SOL    HW155558  10.658   7.089  12.101
17887SOL    HW255559  10.676   7.225  12.166
17888SOL     OW55560   7.371   9.794   4.740
17888SOL    HW155561   7.441   9.837   4.690
17888SOL    HW255562   7.299   9.858   4.741
17889SOL     OW55563   4.008   9.339   1.343
17889SOL    HW155564   3.993   9.264   1.286
17889SOL    HW255565   3.997   9.415   1.285
17890SOL     OW55566   1.681   5.614   2.324
17890SOL    HW155567   1.589   5.589   2.337
17890SOL    HW255568   1.677   5.685   2.260
17891SOL     OW55569   2.193  14.067   9.334
17891SOL    HW155570   2.131  14.129   9.295
17891SOL    HW255571   2.222  14.012   9.262
17892SOL     OW55572   9.200  10.218   4.276
17892SOL    HW155573   9.260  10.144   4.286
17892SOL    HW255574   9.124  10.182   4.231
17893SOL     OW55575  12.443   8.522   3.219
17893SOL    HW155576  12.494   8.441   3.222
17893SOL    HW255577  12.372   8.509   3.282
17894SOL     OW55578   2.853  14.077   5.057
17894SOL    HW155579   2.894  14.069   5.144
17894SOL    HW255580   2.921  14.118   5.003
17895SOL     OW55581   6.045   1.567  12.589
17895SOL    HW155582   6.018   1.525  12.670
17895SOL    HW255583   6.115   1.627  12.615
17896SOL     OW55584   6.876   4.881   4.939
17896SOL    HW155585   6.880   4.911   4.848
17896SOL    HW255586   6.894   4.959   4.991
17897SOL     OW55587   8.132   2.995   1.506
17897SOL    HW155588   8.043   2.993   1.471
17897SOL    HW255589   8.158   2.903   1.509
17898SOL     OW55590  10.390   0.067   3.233
17898SOL    HW155591  10.371  14.854   3.245
17898SOL    HW255592  10.346   0.111   3.306
17899SOL     OW55593   0.023   5.036  13.430
17899SOL    HW155594  14.808   5.030  13.417
17899SOL    HW255595   0.037   5.123  13.469
17900SOL     OW55596   0.926   8.822   6.953
17900SOL    HW155597   0.991   8.752   6.954
17900SOL    HW255598   0.922   8.850   6.862
17901SOL     OW55599   6.497   7.690  13.441
17901SOL    HW155600   6.444   7.763  13.409
17901SOL    HW255601   6.584   7.707  13.405
17902SOL     OW55602  12.552  13.753  12.387
17902SOL    HW155603  12.611  13.680  12.370
17902SOL    HW255604  12.531  13.789  12.301
17903SOL     OW55605   3.888   3.255   8.153
17903SOL    HW155606   3.949   3.278   8.083
17903SOL    HW255607   3.933   3.186   8.202
17904SOL     OW55608   2.126   8.761  13.938
17904SOL    HW155609   2.039   8.747  13.902
17904SOL    HW255610   2.114   8.761  14.033
17905SOL     OW55611  13.859   0.590  14.051
17905SOL    HW155612  13.767   0.616  14.056
17905SOL    HW255613  13.857   0.504  14.008
17906SOL     OW55614   0.228   8.349   3.891
17906SOL    HW155615   0.295   8.414   3.910
17906SOL    HW255616   0.277   8.272   3.861
17907SOL     OW55617   5.695   6.006   3.500
17907SOL    HW155618   5.681   5.946   3.573
17907SOL    HW255619   5.773   6.056   3.526
17908SOL     OW55620  13.582   0.081   9.960
17908SOL    HW155621  13.657   0.030   9.929
17908SOL    HW255622  13.505   0.036   9.925
17909SOL     OW55623  13.406  11.425  12.533
17909SOL    HW155624  13.467  11.362  12.495
17909SOL    HW255625  13.399  11.495  12.467
17910SOL     OW55626  11.158   1.964   8.769
17910SOL    HW155627  11.187   1.932   8.855
17910SOL    HW255628  11.218   2.036   8.749
17911SOL     OW55629   1.910  12.178  12.352
17911SOL    HW155630   1.844  12.212  12.412
17911SOL    HW255631   1.994  12.193  12.396
17912SOL     OW55632  13.450   1.531  12.779
17912SOL    HW155633  13.415   1.616  12.751
17912SOL    HW255634  13.377   1.470  12.764
17913SOL     OW55635  11.185   5.342   6.921
17913SOL    HW155636  11.120   5.304   6.863
17913SOL    HW255637  11.265   5.346   6.869
17914SOL     OW55638  14.146  12.751   4.662
17914SOL    HW155639  14.081  12.758   4.591
17914SOL    HW255640  14.183  12.838   4.670
17915SOL     OW55641   6.323  12.070  14.325
17915SOL    HW155642   6.272  12.145  14.294
17915SOL    HW255643   6.262  12.020  14.380
17916SOL     OW55644   1.698   2.970   0.220
17916SOL    HW155645   1.742   2.965   0.135
17916SOL    HW255646   1.640   3.046   0.213
17917SOL     OW55647   7.850   1.553   9.606
17917SOL    HW155648   7.856   1.600   9.689
17917SOL    HW255649   7.858   1.621   9.539
17918SOL     OW55650   8.663  12.318   9.851
17918SOL    HW155651   8.612  12.399   9.844
17918SOL    HW255652   8.637  12.280   9.935
17919SOL     OW55653  10.493  12.380   5.139
17919SOL    HW155654  10.532  12.389   5.226
17919SOL    HW255655  10.486  12.285   5.126
17920SOL     OW55656  14.156   2.882   9.203
17920SOL    HW155657  14.063   2.863   9.188
17920SOL    HW255658  14.189   2.805   9.250
17921SOL     OW55659  13.904   7.367   3.218
17921SOL    HW155660  13.983   7.337   3.264
17921SOL    HW255661  13.851   7.408   3.287
17922SOL     OW55662   2.178  14.482   8.757
17922SOL    HW155663   2.123  14.420   8.804
17922SOL    HW255664   2.229  14.527   8.825
17923SOL     OW55665   3.614   0.408   6.915
17923SOL    HW155666   3.601   0.342   6.847
17923SOL    HW255667   3.706   0.433   6.908
17924SOL     OW55668   1.453   8.165   6.833
17924SOL    HW155669   1.370   8.187   6.875
17924SOL    HW255670   1.450   8.070   6.822
17925SOL     OW55671  12.073   2.609   3.196
17925SOL    HW155672  12.115   2.623   3.281
17925SOL    HW255673  12.145   2.585   3.137
17926SOL     OW55674   0.056   1.447   6.571
17926SOL    HW155675   0.087   1.357   6.578
17926SOL    HW255676   0.135   1.500   6.570
17927SOL     OW55677  13.268   8.235   2.136
17927SOL    HW155678  13.295   8.166   2.075
17927SOL    HW255679  13.348   8.282   2.157
17928SOL     OW55680   6.224   0.449   8.907
17928SOL    HW155681   6.306   0.495   8.892
17928SOL    HW255682   6.167   0.514   8.946
17929SOL     OW55683   1.795   5.210   1.517
17929SOL    HW155684   1.852   5.133   1.518
17929SOL    HW255685   1.786   5.234   1.609
17930SOL     OW55686   2.098  11.791   4.309
17930SOL    HW155687   2.011  11.824   4.332
17930SOL    HW255688   2.147  11.869   4.282
17931SOL     OW55689  12.485   3.788   6.894
17931SOL    HW155690  12.545   3.734   6.843
17931SOL    HW255691  12.470   3.738   6.975
17932SOL     OW55692  13.717  13.174   6.089
17932SOL    HW155693  13.767  13.106   6.134
17932SOL    HW255694  13.631  13.172   6.131
17933SOL     OW55695   7.194   4.123  11.437
17933SOL    HW155696   7.273   4.121  11.383
17933SOL    HW255697   7.218   4.074  11.516
17934SOL     OW55698   9.351   0.275   8.793
17934SOL    HW155699   9.272   0.259   8.742
17934SOL    HW255700   9.360   0.371   8.793
17935SOL     OW55701  14.355   0.406   3.348
17935SOL    HW155702  14.376   0.405   3.254
17935SOL    HW255703  14.370   0.317   3.377
17936SOL     OW55704   0.430   1.521   8.833
17936SOL    HW155705   0.442   1.597   8.776
17936SOL    HW255706   0.487   1.454   8.796
17937SOL     OW55707   4.370  11.640  10.838
17937SOL    HW155708   4.464  11.625  10.847
17937SOL    HW255709   4.334  11.555  10.812
17938SOL     OW55710   9.060   4.109   8.856
17938SOL    HW155711   9.057   4.033   8.799
17938SOL    HW255712   9.122   4.168   8.814
17939SOL     OW55713  10.090   4.023   5.219
17939SOL    HW155714  10.004   3.984   5.236
17939SOL    HW255715  10.070   4.113   5.192
17940SOL     OW55716   4.170   8.880   6.460
17940SOL    HW155717   4.209   8.858   6.375
17940SOL    HW255718   4.123   8.802   6.486
17941SOL     OW55719  10.134  11.413   5.329
17941SOL    HW155720  10.083  11.489   5.302
17941SOL    HW255721  10.218  11.423   5.284
17942SOL     OW55722   2.065   0.952  12.045
17942SOL    HW155723   1.978   0.921  12.073
17942SOL    HW255724   2.047   1.030  11.992
17943SOL     OW55725   9.351  11.656   1.820
17943SOL    HW155726   9.424  11.710   1.788
17943SOL    HW255727   9.389  11.569   1.831
17944SOL     OW55728   5.246   6.253  13.150
17944SOL    HW155729   5.157   6.220  13.137
17944SOL    HW255730   5.253   6.327  13.090
17945SOL     OW55731   3.904  10.103   9.685
17945SOL    HW155732   3.829  10.150   9.723
17945SOL    HW255733   3.918  10.029   9.743
17946SOL     OW55734   6.508  14.116   4.945
17946SOL    HW155735   6.599  14.114   4.914
17946SOL    HW255736   6.464  14.049   4.893
17947SOL     OW55737   0.071   2.557  12.458
17947SOL    HW155738   0.095   2.474  12.418
17947SOL    HW255739  14.873   2.538  12.510
17948SOL     OW55740  14.106   5.029  13.374
17948SOL    HW155741  14.157   5.094  13.422
17948SOL    HW255742  14.128   4.946  13.416
17949SOL     OW55743  14.858   5.173  10.663
17949SOL    HW155744   0.027   5.165  10.581
17949SOL    HW255745   0.029   5.236  10.715
17950SOL     OW55746  11.755   7.347   7.936
17950SOL    HW155747  11.799   7.273   7.977
17950SOL    HW255748  11.704   7.388   8.006
17951SOL     OW55749  10.274   3.358  14.587
17951SOL    HW155750  10.214   3.399  14.650
17951SOL    HW255751  10.311   3.284  14.634
17952SOL     OW55752  13.237   1.860   0.198
17952SOL    HW155753  13.155   1.875   0.151
17952SOL    HW255754  13.249   1.765   0.196
17953SOL     OW55755   9.152  13.016  11.959
17953SOL    HW155756   9.177  12.941  11.904
17953SOL    HW255757   9.212  13.085  11.935
17954SOL     OW55758   5.762   7.703   8.210
17954SOL    HW155759   5.752   7.789   8.169
17954SOL    HW255760   5.693   7.649   8.170
17955SOL     OW55761   9.093  12.026   3.357
17955SOL    HW155762   9.126  12.089   3.421
17955SOL    HW255763   9.163  12.018   3.292
17956SOL     OW55764   0.886   4.006   1.305
17956SOL    HW155765   0.974   3.979   1.278
17956SOL    HW255766   0.899   4.090   1.348
17957SOL     OW55767   8.356   8.539  13.948
17957SOL    HW155768   8.323   8.495  14.026
17957SOL    HW255769   8.389   8.468  13.892
17958SOL     OW55770  12.231  13.688   9.750
17958SOL    HW155771  12.279  13.760   9.708
17958SOL    HW255772  12.299  13.630   9.783
17959SOL     OW55773   2.391   8.044   5.699
17959SOL    HW155774   2.482   8.027   5.721
17959SOL    HW255775   2.344   7.967   5.731
17960SOL     OW55776  12.006   2.824  10.373
17960SOL    HW155777  11.965   2.788  10.294
17960SOL    HW255778  11.986   2.760  10.442
17961SOL     OW55779   7.252  12.504  13.792
17961SOL    HW155780   7.239  12.542  13.705
17961SOL    HW255781   7.332  12.545  13.824
17962SOL     OW55782  10.924  10.888   3.163
17962SOL    HW155783  10.929  10.810   3.108
17962SOL    HW255784  10.911  10.960   3.101
17963SOL     OW55785  13.560  11.678   8.249
17963SOL    HW155786  13.503  11.624   8.195
17963SOL    HW255787  13.529  11.664   8.339
17964SOL     OW55788  11.765   2.186  11.816
17964SOL    HW155789  11.790   2.274  11.846
17964SOL    HW255790  11.804   2.179  11.729
17965SOL     OW55791   3.934   9.230  13.590
17965SOL    HW155792   4.029   9.233  13.606
17965SOL    HW255793   3.926   9.179  13.509
17966SOL     OW55794   6.143   4.977   4.605
17966SOL    HW155795   6.237   4.970   4.624
17966SOL    HW255796   6.107   4.894   4.635
17967SOL     OW55797  14.757   2.247   5.836
17967SOL    HW155798  14.830   2.264   5.895
17967SOL    HW255799  14.753   2.152   5.829
17968SOL     OW55800   3.094   7.217   3.349
17968SOL    HW155801   3.081   7.123   3.360
17968SOL    HW255802   3.018   7.245   3.297
17969SOL     OW55803  10.154   1.615   2.565
17969SOL    HW155804  10.167   1.684   2.500
17969SOL    HW255805  10.241   1.576   2.576
17970SOL     OW55806   4.599   0.471   9.588
17970SOL    HW155807   4.549   0.409   9.642
17970SOL    HW255808   4.547   0.479   9.508
17971SOL     OW55809  10.020  11.870   0.518
17971SOL    HW155810  10.077  11.859   0.594
17971SOL    HW255811  10.061  11.940   0.467
17972SOL     OW55812  11.321   1.914  11.160
17972SOL    HW155813  11.354   1.825  11.175
17972SOL    HW255814  11.389   1.956  11.108
17973SOL     OW55815   9.996   3.205   1.972
17973SOL    HW155816  10.062   3.236   1.910
17973SOL    HW255817   9.961   3.125   1.932
17974SOL     OW55818  12.391   6.674   7.545
17974SOL    HW155819  12.335   6.617   7.598
17974SOL    HW255820  12.475   6.675   7.592
17975SOL     OW55821  10.814   5.438   9.639
17975SOL    HW155822  10.838   5.426   9.547
17975SOL    HW255823  10.757   5.514   9.638
17976SOL     OW55824  10.600  12.490   9.785
17976SOL    HW155825  10.683  12.462   9.746
17976SOL    HW255826  10.554  12.409   9.804
17977SOL     OW55827   9.803   6.770  10.646
17977SOL    HW155828   9.894   6.790  10.625
17977SOL    HW255829   9.758   6.773  10.562
17978SOL     OW55830   9.024   2.323  13.855
17978SOL    HW155831   9.062   2.244  13.895
17978SOL    HW255832   8.965   2.289  13.788
17979SOL     OW55833  13.756  10.017  14.045
17979SOL    HW155834  13.750   9.924  14.063
17979SOL    HW255835  13.811  10.052  14.115
17980SOL     OW55836   9.463   3.936   2.435
17980SOL    HW155837   9.473   3.859   2.379
17980SOL    HW255838   9.489   4.009   2.379
17981SOL     OW55839   0.948   3.688   6.503
17981SOL    HW155840   0.993   3.669   6.421
17981SOL    HW255841   0.857   3.705   6.478
17982SOL     OW55842   5.348  10.235   1.011
17982SOL    HW155843   5.322  10.192   0.930
17982SOL    HW255844   5.393  10.315   0.984
17983SOL     OW55845   8.695   6.546  12.009
17983SOL    HW155846   8.704   6.617  12.073
17983SOL    HW255847   8.606   6.514  12.021
17984SOL     OW55848   8.392   4.542   8.920
17984SOL    HW155849   8.326   4.526   8.853
17984SOL    HW255850   8.467   4.577   8.872
17985SOL     OW55851   4.888   5.601  14.110
17985SOL    HW155852   4.952   5.636  14.172
17985SOL    HW255853   4.804   5.609  14.155
17986SOL     OW55854   5.450  14.569  13.285
17986SOL    HW155855   5.412  14.488  13.249
17986SOL    HW255856   5.377  14.611  13.331
17987SOL     OW55857   3.608  11.645  12.519
17987SOL    HW155858   3.681  11.599  12.476
17987SOL    HW255859   3.604  11.729  12.475
17988SOL     OW55860  10.047   1.569   5.440
17988SOL    HW155861   9.973   1.588   5.383
17988SOL    HW255862  10.091   1.653   5.452
17989SOL     OW55863   1.895  12.432   1.995
17989SOL    HW155864   1.877  12.526   1.987
17989SOL    HW255865   1.868  12.396   1.911
17990SOL     OW55866   4.741   3.739   9.168
17990SOL    HW155867   4.671   3.799   9.189
17990SOL    HW255868   4.698   3.653   9.161
17991SOL     OW55869   1.735   3.339   1.156
17991SOL    HW155870   1.661   3.302   1.109
17991SOL    HW255871   1.755   3.274   1.224
17992SOL     OW55872   3.911  13.755   1.733
17992SOL    HW155873   3.899  13.812   1.809
17992SOL    HW255874   4.006  13.744   1.726
17993SOL     OW55875  11.284   3.574  12.405
17993SOL    HW155876  11.361   3.540  12.451
17993SOL    HW255877  11.212   3.559  12.466
17994SOL     OW55878   0.513   1.226  10.539
17994SOL    HW155879   0.515   1.187  10.626
17994SOL    HW255880   0.486   1.154  10.481
17995SOL     OW55881   0.984   6.720   4.080
17995SOL    HW155882   0.935   6.654   4.029
17995SOL    HW255883   1.038   6.765   4.015
17996SOL     OW55884   3.936   2.711  14.531
17996SOL    HW155885   3.863   2.652  14.550
17996SOL    HW255886   3.908   2.759  14.453
17997SOL     OW55887   7.650   9.205  10.557
17997SOL    HW155888   7.571   9.154  10.575
17997SOL    HW255889   7.698   9.204  10.640
17998SOL     OW55890   5.181   7.189   5.584
17998SOL    HW155891   5.269   7.157   5.606
17998SOL    HW255892   5.139   7.203   5.669
17999SOL     OW55893   2.482  14.440  14.018
17999SOL    HW155894   2.476  14.418  14.111
17999SOL    HW255895   2.554  14.385  13.985
18000SOL     OW55896   9.208   2.151  12.024
18000SOL    HW155897   9.174   2.067  11.994
18000SOL    HW255898   9.298   2.133  12.051
18001SOL     OW55899  14.469   7.769   3.508
18001SOL    HW155900  14.377   7.784   3.530
18001SOL    HW255901  14.478   7.798   3.418
18002SOL     OW55902  10.892  12.501  10.936
18002SOL    HW155903  10.941  12.432  10.891
18002SOL    HW255904  10.946  12.522  11.012
18003SOL     OW55905   8.650  10.252   1.483
18003SOL    HW155906   8.646  10.240   1.578
18003SOL    HW255907   8.713  10.324   1.471
18004SOL     OW55908   4.963   1.077   3.841
18004SOL    HW155909   5.048   1.119   3.829
18004SOL    HW255910   4.903   1.130   3.788
18005SOL     OW55911   5.761  13.065   5.844
18005SOL    HW155912   5.827  13.133   5.853
18005SOL    HW255913   5.810  12.987   5.819
18006SOL     OW55914  13.031  13.823   5.358
18006SOL    HW155915  13.013  13.783   5.443
18006SOL    HW255916  13.111  13.873   5.372
18007SOL     OW55917  13.734   3.997   3.355
18007SOL    HW155918  13.652   3.979   3.400
18007SOL    HW255919  13.720   3.964   3.266
18008SOL     OW55920   2.307  11.282   0.384
18008SOL    HW155921   2.282  11.242   0.300
18008SOL    HW255922   2.236  11.257   0.444
18009SOL     OW55923  13.502   0.605  13.021
18009SOL    HW155924  13.494   0.513  13.047
18009SOL    HW255925  13.425   0.622  12.968
18010SOL     OW55926   5.989   4.393  11.461
18010SOL    HW155927   5.940   4.313  11.476
18010SOL    HW255928   5.923   4.463  11.462
18011SOL     OW55929  10.185  13.203  14.000
18011SOL    HW155930  10.094  13.176  13.986
18011SOL    HW255931  10.211  13.158  14.080
18012SOL     OW55932   3.615   3.103   8.291
18012SOL    HW155933   3.523   3.085   8.271
18012SOL    HW255934   3.646   3.155   8.217
18013SOL     OW55935  10.067  10.966   6.022
18013SOL    HW155936  10.033  10.919   6.099
18013SOL    HW255937   9.997  11.027   5.999
18014SOL     OW55938   6.961  13.817   8.310
18014SOL    HW155939   6.906  13.892   8.330
18014SOL    HW255940   6.967  13.817   8.215
18015SOL     OW55941   8.304   4.828   7.610
18015SOL    HW155942   8.209   4.821   7.603
18015SOL    HW255943   8.329   4.882   7.535
18016SOL     OW55944  10.546  13.291   4.763
18016SOL    HW155945  10.497  13.360   4.807
18016SOL    HW255946  10.633  13.328   4.750
18017SOL     OW55947   2.364  11.141   0.711
18017SOL    HW155948   2.306  11.183   0.646
18017SOL    HW255949   2.308  11.126   0.787
18018SOL     OW55950  12.502   8.134   7.771
18018SOL    HW155951  12.488   8.182   7.853
18018SOL    HW255952  12.589   8.096   7.780
18019SOL     OW55953  12.293  11.900   5.766
18019SOL    HW155954  12.285  11.978   5.820
18019SOL    HW255955  12.372  11.916   5.714
18020SOL     OW55956   9.997   5.752  10.428
18020SOL    HW155957   9.918   5.716  10.469
18020SOL    HW255958  10.018   5.690  10.358
18021SOL     OW55959   0.384   7.276   7.567
18021SOL    HW155960   0.302   7.227   7.563
18021SOL    HW255961   0.416   7.277   7.477
18022SOL     OW55962   0.165   8.209   6.126
18022SOL    HW155963   0.241   8.162   6.159
18022SOL    HW255964   0.138   8.265   6.199
18023SOL     OW55965   6.308   1.224   4.021
18023SOL    HW155966   6.337   1.266   4.103
18023SOL    HW255967   6.263   1.294   3.973
18024SOL     OW55968  11.962   8.838   5.253
18024SOL    HW155969  11.976   8.915   5.309
18024SOL    HW255970  11.913   8.872   5.178
18025SOL     OW55971  12.970   8.273   8.038
18025SOL    HW155972  13.016   8.335   8.095
18025SOL    HW255973  13.036   8.207   8.017
18026SOL     OW55974   1.283   5.115   4.112
18026SOL    HW155975   1.312   5.054   4.180
18026SOL    HW255976   1.239   5.060   4.048
18027SOL     OW55977  14.190   8.579  13.998
18027SOL    HW155978  14.266   8.548  13.948
18027SOL    HW255979  14.225   8.649  14.054
18028SOL     OW55980  12.015   5.018   3.912
18028SOL    HW155981  12.062   5.094   3.948
18028SOL    HW255982  11.925   5.047   3.904
18029SOL     OW55983  12.182  12.357  14.327
18029SOL    HW155984  12.231  12.285  14.288
18029SOL    HW255985  12.243  12.431  14.326
18030SOL     OW55986   8.660   4.545   7.840
18030SOL    HW155987   8.630   4.628   7.802
18030SOL    HW255988   8.752   4.561   7.861
18031SOL     OW55989   3.074   9.301  10.500
18031SOL    HW155990   3.029   9.239  10.443
18031SOL    HW255991   3.055   9.387  10.462
18032SOL     OW55992  13.151   3.221   3.112
18032SOL    HW155993  13.161   3.254   3.023
18032SOL    HW255994  13.221   3.157   3.122
18033SOL     OW55995   5.585   1.416  12.043
18033SOL    HW155996   5.605   1.510  12.037
18033SOL    HW255997   5.617   1.390  12.129
18034SOL     OW55998   7.681  11.682  13.050
18034SOL    HW155999   7.720  11.598  13.026
18034SOL    HW256000   7.593  11.679  13.013
18035SOL     OW56001   0.465   2.210   2.758
18035SOL    HW156002   0.385   2.262   2.750
18035SOL    HW256003   0.473   2.193   2.852
18036SOL     OW56004   8.215   6.633  12.511
18036SOL    HW156005   8.254   6.546  12.516
18036SOL    HW256006   8.261   6.684  12.577
18037SOL     OW56007   0.526  13.356  13.946
18037SOL    HW156008   0.447  13.326  13.991
18037SOL    HW256009   0.518  13.323  13.857
18038SOL     OW56010   3.525   5.418   8.536
18038SOL    HW156011   3.451   5.462   8.494
18038SOL    HW256012   3.513   5.434   8.630
18039SOL     OW56013   0.430   5.336   6.293
18039SOL    HW156014   0.375   5.404   6.255
18039SOL    HW256015   0.376   5.258   6.292
18040SOL     OW56016   5.612   5.965  14.674
18040SOL    HW156017   5.695   6.000  14.644
18040SOL    HW256018   5.558   5.961  14.595
18041SOL     OW56019  10.672   5.654   8.563
18041SOL    HW156020  10.595   5.711   8.563
18041SOL    HW256021  10.709   5.664   8.476
18042SOL     OW56022   6.220   0.658  13.245
18042SOL    HW156023   6.197   0.583  13.190
18042SOL    HW256024   6.299   0.694  13.206
18043SOL     OW56025   0.315  10.900   0.462
18043SOL    HW156026   0.290  10.991   0.475
18043SOL    HW256027   0.337  10.868   0.550
18044SOL     OW56028   9.548   9.083  14.856
18044SOL    HW156029   9.515   9.040  14.777
18044SOL    HW256030   9.536   9.177  14.839
18045SOL     OW56031   1.820   1.837   7.226
18045SOL    HW156032   1.751   1.865   7.165
18045SOL    HW256033   1.879   1.911   7.232
18046SOL     OW56034   2.463   5.154  14.399
18046SOL    HW156035   2.441   5.126  14.310
18046SOL    HW256036   2.545   5.108  14.418
18047SOL     OW56037   9.509   6.348   4.036
18047SOL    HW156038   9.544   6.324   3.950
18047SOL    HW256039   9.494   6.443   4.030
18048SOL     OW56040   4.197  12.046   9.183
18048SOL    HW156041   4.253  12.118   9.213
18048SOL    HW256042   4.256  11.970   9.180
18049SOL     OW56043  11.462  11.311   5.350
18049SOL    HW156044  11.514  11.384   5.316
18049SOL    HW256045  11.445  11.334   5.441
18050SOL     OW56046  12.402  10.655  12.038
18050SOL    HW156047  12.447  10.611  11.966
18050SOL    HW256048  12.421  10.601  12.114
18051SOL     OW56049   2.606   4.415   2.922
18051SOL    HW156050   2.525   4.453   2.886
18051SOL    HW256051   2.665   4.490   2.931
18052SOL     OW56052   7.203  12.821  11.247
18052SOL    HW156053   7.194  12.851  11.157
18052SOL    HW256054   7.197  12.900  11.300
18053SOL     OW56055  11.435   9.823   6.116
18053SOL    HW156056  11.520   9.849   6.152
18053SOL    HW256057  11.457   9.773   6.037
18054SOL     OW56058  12.316   4.458  13.937
18054SOL    HW156059  12.255   4.529  13.956
18054SOL    HW256060  12.378   4.494  13.873
18055SOL     OW56061  11.097   6.723   5.859
18055SOL    HW156062  11.070   6.708   5.950
18055SOL    HW256063  11.193   6.720   5.862
18056SOL     OW56064   9.495   8.063   0.732
18056SOL    HW156065   9.575   8.110   0.710
18056SOL    HW256066   9.526   7.983   0.777
18057SOL     OW56067  13.341  12.356  14.583
18057SOL    HW156068  13.351  12.381  14.675
18057SOL    HW256069  13.297  12.431  14.542
18058SOL     OW56070   8.649   8.049   5.302
18058SOL    HW156071   8.556   8.043   5.280
18058SOL    HW256072   8.681   7.959   5.294
18059SOL     OW56073  13.756   0.223  11.617
18059SOL    HW156074  13.835   0.202  11.667
18059SOL    HW256075  13.788   0.244  11.529
18060SOL     OW56076   0.728   7.201  14.374
18060SOL    HW156077   0.727   7.284  14.327
18060SOL    HW256078   0.636   7.183  14.394
18061SOL     OW56079   5.761   6.458  11.775
18061SOL    HW156080   5.756   6.504  11.859
18061SOL    HW256081   5.696   6.500  11.720
18062SOL     OW56082   2.906   2.524   2.283
18062SOL    HW156083   2.927   2.603   2.333
18062SOL    HW256084   2.812   2.530   2.266
18063SOL     OW56085  12.693   4.572   5.356
18063SOL    HW156086  12.627   4.613   5.299
18063SOL    HW256087  12.766   4.634   5.356
18064SOL     OW56088   4.314   1.343  11.058
18064SOL    HW156089   4.401   1.383  11.046
18064SOL    HW256090   4.283   1.379  11.142
18065SOL     OW56091   3.680   9.282   4.952
18065SOL    HW156092   3.721   9.275   4.865
18065SOL    HW256093   3.721   9.359   4.991
18066SOL     OW56094  13.951  11.166   5.267
18066SOL    HW156095  14.002  11.165   5.186
18066SOL    HW256096  13.864  11.135   5.242
18067SOL     OW56097  12.976  13.364  10.534
18067SOL    HW156098  13.039  13.433  10.556
18067SOL    HW256099  12.908  13.409  10.484
18068SOL     OW56100   1.678   7.427  13.748
18068SOL    HW156101   1.734   7.396  13.819
18068SOL    HW256102   1.738   7.449  13.677
18069SOL     OW56103   2.583  13.703  10.575
18069SOL    HW156104   2.597  13.736  10.486
18069SOL    HW256105   2.644  13.754  10.629
18070SOL     OW56106   6.406  11.817   9.056
18070SOL    HW156107   6.323  11.864   9.063
18070SOL    HW256108   6.464  11.861   9.118
18071SOL     OW56109  10.292   7.801   3.529
18071SOL    HW156110  10.231   7.854   3.477
18071SOL    HW256111  10.375   7.848   3.523
18072SOL     OW56112   2.061  14.748  10.193
18072SOL    HW156113   2.005  14.670  10.193
18072SOL    HW256114   2.114  14.739  10.272
18073SOL     OW56115   6.374   9.230   4.611
18073SOL    HW156116   6.412   9.315   4.590
18073SOL    HW256117   6.421   9.168   4.556
18074SOL     OW56118  10.571   0.195   8.491
18074SOL    HW156119  10.521   0.164   8.567
18074SOL    HW256120  10.509   0.187   8.418
18075SOL     OW56121  10.701   4.036   5.601
18075SOL    HW156122  10.620   4.068   5.640
18075SOL    HW256123  10.770   4.064   5.661
18076SOL     OW56124  12.483   1.926   0.156
18076SOL    HW156125  12.427   1.996   0.188
18076SOL    HW256126  12.509   1.953   0.068
18077SOL     OW56127   2.513   4.491   9.805
18077SOL    HW156128   2.586   4.508   9.865
18077SOL    HW256129   2.494   4.398   9.817
18078SOL     OW56130   8.623  11.506   6.888
18078SOL    HW156131   8.634  11.457   6.807
18078SOL    HW256132   8.617  11.439   6.956
18079SOL     OW56133   1.106   6.235  12.513
18079SOL    HW156134   1.067   6.161  12.558
18079SOL    HW256135   1.123   6.300  12.581
18080SOL     OW56136   3.813   0.714   6.107
18080SOL    HW156137   3.751   0.763   6.161
18080SOL    HW256138   3.871   0.671   6.170
18081SOL     OW56139  11.204   8.117  12.045
18081SOL    HW156140  11.202   8.182  12.115
18081SOL    HW256141  11.160   8.041  12.082
18082SOL     OW56142   8.364   8.014   6.550
18082SOL    HW156143   8.328   8.039   6.465
18082SOL    HW256144   8.346   8.089   6.607
18083SOL     OW56145  11.758   2.184   8.431
18083SOL    HW156146  11.698   2.251   8.399
18083SOL    HW256147  11.756   2.116   8.364
18084SOL     OW56148   3.503   0.263   8.700
18084SOL    HW156149   3.500   0.182   8.649
18084SOL    HW256150   3.591   0.264   8.739
18085SOL     OW56151  12.665   9.358   5.585
18085SOL    HW156152  12.711   9.274   5.587
18085SOL    HW256153  12.640   9.369   5.493
18086SOL     OW56154   4.085   9.747   3.398
18086SOL    HW156155   4.117   9.763   3.486
18086SOL    HW256156   4.157   9.702   3.353
18087SOL     OW56157   5.991   2.332   7.557
18087SOL    HW156158   5.922   2.377   7.607
18087SOL    HW256159   6.058   2.312   7.622
18088SOL     OW56160   6.219   3.928   5.848
18088SOL    HW156161   6.211   4.008   5.796
18088SOL    HW256162   6.141   3.877   5.826
18089SOL     OW56163   6.777   1.404   3.135
18089SOL    HW156164   6.708   1.458   3.097
18089SOL    HW256165   6.731   1.349   3.199
18090SOL     OW56166   4.596  14.479   5.837
18090SOL    HW156167   4.647  14.423   5.777
18090SOL    HW256168   4.554  14.543   5.780
18091SOL     OW56169  10.805  14.861   5.290
18091SOL    HW156170  10.721  14.829   5.323
18091SOL    HW256171  10.866  14.845   5.361
18092SOL     OW56172  14.679   2.234   3.807
18092SOL    HW156173  14.662   2.184   3.887
18092SOL    HW256174  14.663   2.172   3.736
18093SOL     OW56175   9.504  10.563   1.172
18093SOL    HW156176   9.552  10.638   1.209
18093SOL    HW256177   9.567  10.522   1.113
18094SOL     OW56178   8.784   7.973   6.489
18094SOL    HW156179   8.815   7.891   6.451
18094SOL    HW256180   8.854   8.036   6.474
18095SOL     OW56181  14.719   0.908   5.522
18095SOL    HW156182  14.660   0.867   5.585
18095SOL    HW256183  14.785   0.951   5.576
18096SOL     OW56184   5.166   7.639   6.474
18096SOL    HW156185   5.160   7.619   6.567
18096SOL    HW256186   5.093   7.697   6.457
18097SOL     OW56187   9.445  14.547   0.031
18097SOL    HW156188   9.530  14.592   0.033
18097SOL    HW256189   9.468  14.454   0.040
18098SOL     OW56190   7.554  13.646  13.472
18098SOL    HW156191   7.479  13.586  13.477
18098SOL    HW256192   7.553  13.692  13.556
18099SOL     OW56193   1.282  13.834   8.132
18099SOL    HW156194   1.253  13.744   8.117
18099SOL    HW256195   1.370  13.838   8.095
18100SOL     OW56196  14.866   4.591   3.338
18100SOL    HW156197  14.814   4.669   3.320
18100SOL    HW256198  14.804   4.518   3.326
18101SOL     OW56199   0.761   2.171   6.799
18101SOL    HW156200   0.708   2.248   6.779
18101SOL    HW256201   0.698   2.100   6.806
18102SOL     OW56202  11.364  11.117  10.322
18102SOL    HW156203  11.323  11.107  10.237
18102SOL    HW256204  11.455  11.089  10.308
18103SOL     OW56205  10.610   3.067  11.583
18103SOL    HW156206  10.628   3.161  11.580
18103SOL    HW256207  10.616   3.038  11.492
18104SOL     OW56208  12.295  10.241  13.542
18104SOL    HW156209  12.307  10.276  13.454
18104SOL    HW256210  12.297  10.318  13.599
18105SOL     OW56211   4.588   8.970   0.336
18105SOL    HW156212   4.647   9.045   0.328
18105SOL    HW256213   4.639   8.896   0.302
18106SOL     OW56214  13.781  10.874   1.649
18106SOL    HW156215  13.764  10.815   1.575
18106SOL    HW256216  13.745  10.828   1.725
18107SOL     OW56217   2.387   7.487   7.872
18107SOL    HW156218   2.343   7.534   7.801
18107SOL    HW256219   2.457   7.546   7.900
18108SOL     OW56220   4.903   1.724   0.363
18108SOL    HW156221   4.988   1.706   0.323
18108SOL    HW256222   4.841   1.669   0.314
18109SOL     OW56223   6.758   0.115   5.811
18109SOL    HW156224   6.825   0.118   5.879
18109SOL    HW256225   6.757   0.023   5.782
18110SOL     OW56226  10.570   6.912   0.418
18110SOL    HW156227  10.529   6.840   0.370
18110SOL    HW256228  10.620   6.869   0.487
18111SOL     OW56229   2.942   8.553  14.781
18111SOL    HW156230   3.001   8.486  14.746
18111SOL    HW256231   2.897   8.588  14.704
18112SOL     OW56232   3.330   2.210   1.315
18112SOL    HW156233   3.355   2.268   1.387
18112SOL    HW256234   3.284   2.138   1.358
18113SOL     OW56235   8.371   5.327   5.515
18113SOL    HW156236   8.454   5.337   5.469
18113SOL    HW256237   8.316   5.278   5.455
18114SOL     OW56238   2.984   1.112  12.343
18114SOL    HW156239   2.920   1.172  12.381
18114SOL    HW256240   3.049   1.169  12.302
18115SOL     OW56241   2.557   5.999   3.175
18115SOL    HW156242   2.582   5.953   3.095
18115SOL    HW256243   2.541   5.929   3.238
18116SOL     OW56244  12.476   7.925   4.404
18116SOL    HW156245  12.401   7.885   4.361
18116SOL    HW256246  12.544   7.929   4.336
18117SOL     OW56247   9.487   0.749   0.947
18117SOL    HW156248   9.543   0.727   1.022
18117SOL    HW256249   9.465   0.664   0.908
18118SOL     OW56250   6.006   4.441   0.976
18118SOL    HW156251   5.971   4.406   0.894
18118SOL    HW256252   6.101   4.437   0.965
18119SOL     OW56253   3.565   2.719   9.433
18119SOL    HW156254   3.637   2.776   9.461
18119SOL    HW256255   3.587   2.696   9.343
18120SOL     OW56256   0.656   6.319   5.750
18120SOL    HW156257   0.572   6.275   5.742
18120SOL    HW256258   0.658   6.382   5.679
18121SOL     OW56259  14.543   2.184   2.415
18121SOL    HW156260  14.607   2.252   2.393
18121SOL    HW256261  14.503   2.161   2.331
18122SOL     OW56262   4.804   1.198   2.615
18122SOL    HW156263   4.862   1.145   2.559
18122SOL    HW256264   4.733   1.138   2.640
18123SOL     OW56265  13.359   0.938   4.707
18123SOL    HW156266  13.339   0.876   4.777
18123SOL    HW256267  13.312   1.018   4.732
18124SOL     OW56268  12.529   4.941   6.691
18124SOL    HW156269  12.578   4.916   6.613
18124SOL    HW256270  12.591   4.995   6.741
18125SOL     OW56271   6.872   3.547   9.174
18125SOL    HW156272   6.897   3.456   9.156
18125SOL    HW256273   6.850   3.548   9.267
18126SOL     OW56274  13.700   6.001  11.694
18126SOL    HW156275  13.704   6.029  11.785
18126SOL    HW256276  13.711   5.906  11.698
18127SOL     OW56277   0.667   5.799  12.652
18127SOL    HW156278   0.596   5.853  12.617
18127SOL    HW256279   0.697   5.748  12.577
18128SOL     OW56280   5.600  13.929   9.208
18128SOL    HW156281   5.603  13.906   9.301
18128SOL    HW256282   5.552  13.856   9.167
18129SOL     OW56283   1.579  11.936   2.780
18129SOL    HW156284   1.563  11.935   2.875
18129SOL    HW256285   1.494  11.913   2.742
18130SOL     OW56286   7.690   8.444   1.212
18130SOL    HW156287   7.760   8.408   1.156
18130SOL    HW256288   7.610   8.434   1.159
18131SOL     OW56289  11.320   5.663   6.792
18131SOL    HW156290  11.366   5.646   6.874
18131SOL    HW256291  11.244   5.716   6.819
18132SOL     OW56292   4.847   0.641   3.391
18132SOL    HW156293   4.782   0.589   3.343
18132SOL    HW256294   4.858   0.720   3.339
18133SOL     OW56295   6.396  12.384  10.301
18133SOL    HW156296   6.477  12.425  10.272
18133SOL    HW256297   6.383  12.418  10.390
18134SOL     OW56298  12.749   1.629   5.970
18134SOL    HW156299  12.783   1.545   5.940
18134SOL    HW256300  12.761   1.688   5.896
18135SOL     OW56301   8.050   5.275  14.580
18135SOL    HW156302   8.073   5.362  14.547
18135SOL    HW256303   7.992   5.292  14.654
18136SOL     OW56304   5.135   9.696   8.909
18136SOL    HW156305   5.125   9.788   8.885
18136SOL    HW256306   5.082   9.648   8.845
18137SOL     OW56307  12.462  11.627   0.130
18137SOL    HW156308  12.548  11.667   0.124
18137SOL    HW256309  12.479  11.533   0.124
18138SOL     OW56310   6.292  10.419  12.712
18138SOL    HW156311   6.243  10.337  12.707
18138SOL    HW256312   6.384  10.393  12.711
18139SOL     OW56313   4.761   7.504  10.867
18139SOL    HW156314   4.773   7.590  10.906
18139SOL    HW256315   4.673   7.476  10.893
18140SOL     OW56316   8.886  13.782  10.983
18140SOL    HW156317   8.839  13.788  11.067
18140SOL    HW256318   8.947  13.709  10.995
18141SOL     OW56319  10.471   4.629  13.553
18141SOL    HW156320  10.394   4.670  13.513
18141SOL    HW256321  10.495   4.688  13.624
18142SOL     OW56322  13.510   9.516  11.131
18142SOL    HW156323  13.566   9.586  11.166
18142SOL    HW256324  13.427   9.560  11.111
18143SOL     OW56325  11.004   8.749  12.430
18143SOL    HW156326  10.956   8.714  12.506
18143SOL    HW256327  11.009   8.843  12.447
18144SOL     OW56328  10.726   4.714   4.757
18144SOL    HW156329  10.815   4.733   4.725
18144SOL    HW256330  10.697   4.640   4.703
18145SOL     OW56331   6.416   5.404  13.970
18145SOL    HW156332   6.444   5.449  14.050
18145SOL    HW256333   6.397   5.314  13.999
18146SOL     OW56334  13.200  13.383   8.369
18146SOL    HW156335  13.138  13.310   8.377
18146SOL    HW256336  13.146  13.458   8.343
18147SOL     OW56337  14.773   4.580   8.829
18147SOL    HW156338  14.691   4.596   8.782
18147SOL    HW256339  14.794   4.489   8.810
18148SOL     OW56340  12.191  11.766   1.269
18148SOL    HW156341  12.158  11.706   1.202
18148SOL    HW256342  12.284  11.775   1.248
18149SOL     OW56343   6.122  12.110   8.272
18149SOL    HW156344   6.171  12.115   8.190
18149SOL    HW256345   6.150  12.027   8.311
18150SOL     OW56346   3.122  10.729  14.555
18150SOL    HW156347   3.198  10.783  14.536
18150SOL    HW256348   3.156  10.639  14.559
18151SOL     OW56349   2.391   7.164  12.897
18151SOL    HW156350   2.487   7.166  12.898
18151SOL    HW256351   2.366   7.255  12.878
18152SOL     OW56352  12.236   1.241  14.642
18152SOL    HW156353  12.314   1.191  14.662
18152SOL    HW256354  12.269   1.326  14.611
18153SOL     OW56355  13.081  12.579  10.449
18153SOL    HW156356  13.176  12.592  10.446
18153SOL    HW256357  13.045  12.661  10.413
18154SOL     OW56358   5.774  10.466   8.845
18154SOL    HW156359   5.813  10.554   8.842
18154SOL    HW256360   5.694  10.477   8.896
18155SOL     OW56361   4.143   7.052  12.340
18155SOL    HW156362   4.128   7.096  12.424
18155SOL    HW256363   4.236   7.030  12.340
18156SOL     OW56364   7.564   4.480  14.770
18156SOL    HW156365   7.619   4.469  14.692
18156SOL    HW256366   7.493   4.417  14.758
18157SOL     OW56367   8.634   6.446  13.733
18157SOL    HW156368   8.658   6.354  13.748
18157SOL    HW256369   8.707   6.496  13.770
18158SOL     OW56370   3.363   9.295   5.610
18158SOL    HW156371   3.387   9.361   5.675
18158SOL    HW256372   3.447   9.263   5.577
18159SOL     OW56373  10.760   7.458  14.432
18159SOL    HW156374  10.678   7.411  14.449
18159SOL    HW256375  10.777   7.506  14.513
18160SOL     OW56376  12.766  10.675   1.122
18160SOL    HW156377  12.691  10.617   1.111
18160SOL    HW256378  12.739  10.736   1.190
18161SOL     OW56379   6.170  11.353   6.468
18161SOL    HW156380   6.155  11.281   6.529
18161SOL    HW256381   6.170  11.432   6.522
18162SOL     OW56382   2.545   1.514   3.320
18162SOL    HW156383   2.562   1.608   3.323
18162SOL    HW256384   2.610   1.477   3.381
18163SOL     OW56385   3.759   5.767  13.824
18163SOL    HW156386   3.732   5.735  13.911
18163SOL    HW256387   3.765   5.688  13.771
18164SOL     OW56388   9.229   6.764   0.632
18164SOL    HW156389   9.316   6.799   0.613
18164SOL    HW256390   9.216   6.696   0.567
18165SOL     OW56391   8.870   4.041   6.656
18165SOL    HW156392   8.963   4.050   6.634
18165SOL    HW256393   8.833   3.994   6.582
18166SOL     OW56394   4.517   6.604   8.725
18166SOL    HW156395   4.572   6.631   8.653
18166SOL    HW256396   4.461   6.679   8.744
18167SOL     OW56397   4.889   7.341   1.952
18167SOL    HW156398   4.958   7.350   1.886
18167SOL    HW256399   4.815   7.391   1.917
18168SOL     OW56400   0.900   6.026  13.003
18168SOL    HW156401   0.868   5.940  12.973
18168SOL    HW256402   0.983   6.006  13.046
18169SOL     OW56403   4.641   9.921   9.162
18169SOL    HW156404   4.555   9.958   9.183
18169SOL    HW256405   4.621   9.839   9.116
18170SOL     OW56406   3.545   7.239   7.926
18170SOL    HW156407   3.582   7.176   7.988
18170SOL    HW256408   3.556   7.324   7.969
18171SOL     OW56409  12.888   4.055   1.916
18171SOL    HW156410  12.920   3.990   1.854
18171SOL    HW256411  12.868   4.005   1.995
18172SOL     OW56412   4.305   3.061   1.561
18172SOL    HW156413   4.232   3.073   1.622
18172SOL    HW256414   4.382   3.052   1.617
18173SOL     OW56415   6.712   0.531   7.197
18173SOL    HW156416   6.632   0.492   7.233
18173SOL    HW256417   6.748   0.463   7.140
18174SOL     OW56418  12.944  10.770   6.890
18174SOL    HW156419  13.005  10.746   6.960
18174SOL    HW256420  13.000  10.808   6.822
18175SOL     OW56421  12.077   8.325   8.422
18175SOL    HW156422  12.001   8.321   8.364
18175SOL    HW256423  12.048   8.284   8.503
18176SOL     OW56424   9.622   5.222   3.669
18176SOL    HW156425   9.539   5.267   3.656
18176SOL    HW256426   9.641   5.234   3.763
18177SOL     OW56427  14.334  13.662   4.630
18177SOL    HW156428  14.292  13.589   4.586
18177SOL    HW256429  14.314  13.649   4.723
18178SOL     OW56430  12.285   5.218   5.332
18178SOL    HW156431  12.216   5.254   5.277
18178SOL    HW256432  12.284   5.271   5.411
18179SOL     OW56433  12.309   2.984   8.512
18179SOL    HW156434  12.372   2.912   8.504
18179SOL    HW256435  12.255   2.960   8.587
18180SOL     OW56436   5.786  13.380  12.739
18180SOL    HW156437   5.821  13.469  12.734
18180SOL    HW256438   5.697  13.386  12.704
18181SOL     OW56439   6.808   1.297   3.596
18181SOL    HW156440   6.903   1.287   3.599
18181SOL    HW256441   6.786   1.292   3.503
18182SOL     OW56442  12.930   3.808   5.209
18182SOL    HW156443  12.855   3.829   5.153
18182SOL    HW256444  12.893   3.749   5.275
18183SOL     OW56445   2.525  13.116   9.587
18183SOL    HW156446   2.487  13.032   9.610
18183SOL    HW256447   2.477  13.180   9.640
18184SOL     OW56448  13.918   8.575  14.030
18184SOL    HW156449  13.904   8.628  13.951
18184SOL    HW256450  14.004   8.536  14.017
18185SOL     OW56451  12.578   0.807   8.842
18185SOL    HW156452  12.552   0.725   8.800
18185SOL    HW256453  12.543   0.800   8.931
18186SOL     OW56454  12.918   9.353   4.028
18186SOL    HW156455  12.961   9.273   3.998
18186SOL    HW256456  12.879   9.390   3.948
18187SOL     OW56457  12.045   3.711   9.843
18187SOL    HW156458  12.024   3.656   9.768
18187SOL    HW256459  11.961   3.746   9.871
18188SOL     OW56460  12.716   1.500   0.120
18188SOL    HW156461  12.780   1.429   0.132
18188SOL    HW256462  12.643   1.459   0.073
18189SOL     OW56463  10.211   5.903   1.314
18189SOL    HW156464  10.195   5.835   1.380
18189SOL    HW256465  10.201   5.857   1.230
18190SOL     OW56466   4.691   2.757   6.552
18190SOL    HW156467   4.668   2.680   6.500
18190SOL    HW256468   4.636   2.751   6.630
18191SOL     OW56469   5.734   8.915   5.784
18191SOL    HW156470   5.692   9.000   5.777
18191SOL    HW256471   5.662   8.854   5.798
18192SOL     OW56472  10.395   7.402   4.794
18192SOL    HW156473  10.483   7.438   4.782
18192SOL    HW256474  10.347   7.470   4.839
18193SOL     OW56475   0.462   5.239   8.431
18193SOL    HW156476   0.463   5.286   8.515
18193SOL    HW256477   0.402   5.289   8.376
18194SOL     OW56478   9.379  13.056   8.906
18194SOL    HW156479   9.317  13.061   8.979
18194SOL    HW256480   9.376  13.143   8.866
18195SOL     OW56481  12.623   0.641   6.876
18195SOL    HW156482  12.590   0.552   6.884
18195SOL    HW256483  12.635   0.654   6.781
18196SOL     OW56484  10.117   1.267  14.840
18196SOL    HW156485  10.138   1.176  14.821
18196SOL    HW256486  10.201   1.309  14.856
18197SOL     OW56487   3.317   1.862   5.652
18197SOL    HW156488   3.412   1.870   5.663
18197SOL    HW256489   3.301   1.895   5.564
18198SOL     OW56490  13.408  11.648   3.607
18198SOL    HW156491  13.459  11.612   3.534
18198SOL    HW256492  13.370  11.571   3.649
18199SOL     OW56493  11.013   2.753   4.805
18199SOL    HW156494  10.931   2.758   4.853
18199SOL    HW256495  11.012   2.830   4.747
18200SOL     OW56496   3.275   3.923   8.332
18200SOL    HW156497   3.245   3.880   8.412
18200SOL    HW256498   3.334   3.859   8.291
18201SOL     OW56499  13.074   2.782  11.164
18201SOL    HW156500  13.030   2.704  11.198
18201SOL    HW256501  13.022   2.855  11.198
18202SOL     OW56502   7.757   1.569   5.174
18202SOL    HW156503   7.729   1.585   5.084
18202SOL    HW256504   7.685   1.520   5.213
18203SOL     OW56505   5.711   0.122   5.697
18203SOL    HW156506   5.637   0.100   5.754
18203SOL    HW256507   5.682   0.199   5.648
18204SOL     OW56508   7.993   0.908   2.830
18204SOL    HW156509   7.977   0.994   2.869
18204SOL    HW256510   8.087   0.904   2.816
18205SOL     OW56511  13.896   0.030   3.168
18205SOL    HW156512  13.912   0.109   3.220
18205SOL    HW256513  13.898  14.838   3.231
18206SOL     OW56514   5.257   0.700   5.466
18206SOL    HW156515   5.256   0.721   5.372
18206SOL    HW256516   5.254   0.605   5.469
18207SOL     OW56517   6.848   8.873   5.735
18207SOL    HW156518   6.911   8.827   5.680
18207SOL    HW256519   6.895   8.891   5.816
18208SOL     OW56520   0.673  14.174   3.592
18208SOL    HW156521   0.618  14.251   3.606
18208SOL    HW256522   0.696  14.178   3.499
18209SOL     OW56523  10.290   4.732  11.757
18209SOL    HW156524  10.339   4.666  11.806
18209SOL    HW256525  10.231   4.770  11.822
18210SOL     OW56526   8.151   2.383  14.835
18210SOL    HW156527   8.075   2.324  14.834
18210SOL    HW256528   8.207   2.348   0.024
18211SOL     OW56529  11.897   9.751  13.649
18211SOL    HW156530  11.985   9.715  13.660
18211SOL    HW256531  11.905   9.842  13.676
18212SOL     OW56532   3.486  10.526  11.512
18212SOL    HW156533   3.535  10.602  11.481
18212SOL    HW256534   3.400  10.534  11.470
18213SOL     OW56535   3.181   6.463   8.731
18213SOL    HW156536   3.122   6.528   8.769
18213SOL    HW256537   3.264   6.510   8.719
18214SOL     OW56538  13.116  10.305   4.342
18214SOL    HW156539  13.106  10.225   4.394
18214SOL    HW256540  13.089  10.375   4.402
18215SOL     OW56541   3.359   6.717  11.536
18215SOL    HW156542   3.303   6.665  11.593
18215SOL    HW256543   3.305   6.793  11.514
18216SOL     OW56544   2.803   8.860   8.128
18216SOL    HW156545   2.794   8.919   8.202
18216SOL    HW256546   2.747   8.785   8.149
18217SOL     OW56547  13.243   6.856   4.469
18217SOL    HW156548  13.153   6.860   4.437
18217SOL    HW256549  13.264   6.946   4.495
18218SOL     OW56550   2.168   4.057  12.238
18218SOL    HW156551   2.175   4.042  12.144
18218SOL    HW256552   2.245   4.110  12.259
18219SOL     OW56553   9.842  13.102  12.986
18219SOL    HW156554   9.889  13.145  12.915
18219SOL    HW256555   9.767  13.159  13.003
18220SOL     OW56556  13.614   7.556   0.879
18220SOL    HW156557  13.698   7.574   0.837
18220SOL    HW256558  13.554   7.537   0.807
18221SOL     OW56559  11.383  11.890  10.261
18221SOL    HW156560  11.339  11.960  10.310
18221SOL    HW256561  11.398  11.822  10.327
18222SOL     OW56562  12.629   7.880   3.813
18222SOL    HW156563  12.535   7.865   3.813
18222SOL    HW256564  12.658   7.859   3.724
18223SOL     OW56565   1.267   5.975  14.257
18223SOL    HW156566   1.185   5.998  14.301
18223SOL    HW256567   1.323   6.051  14.272
18224SOL     OW56568   0.548   2.293   5.008
18224SOL    HW156569   0.551   2.336   4.922
18224SOL    HW256570   0.611   2.222   5.001
18225SOL     OW56571   7.956   9.025  13.003
18225SOL    HW156572   7.877   8.982  12.969
18225SOL    HW256573   8.028   8.987  12.952
18226SOL     OW56574   7.712  12.335  10.924
18226SOL    HW156575   7.681  12.316  11.012
18226SOL    HW256576   7.727  12.430  10.924
18227SOL     OW56577  11.069  13.639  13.413
18227SOL    HW156578  10.995  13.698  13.427
18227SOL    HW256579  11.140  13.677  13.464
18228SOL     OW56580   3.899   0.428   6.897
18228SOL    HW156581   3.954   0.464   6.828
18228SOL    HW256582   3.951   0.356   6.934
18229SOL     OW56583   1.909   3.929   0.310
18229SOL    HW156584   1.894   3.908   0.218
18229SOL    HW256585   1.922   4.024   0.312
18230SOL     OW56586   9.860   3.314   5.469
18230SOL    HW156587   9.793   3.251   5.444
18230SOL    HW256588   9.811   3.394   5.488
18231SOL     OW56589   0.315   7.160   9.394
18231SOL    HW156590   0.328   7.232   9.333
18231SOL    HW256591   0.389   7.165   9.454
18232SOL     OW56592   6.955  14.143   6.313
18232SOL    HW156593   6.990  14.223   6.273
18232SOL    HW256594   6.874  14.172   6.355
18233SOL     OW56595   0.309   4.191   2.252
18233SOL    HW156596   0.218   4.164   2.233
18233SOL    HW256597   0.362   4.139   2.191
18234SOL     OW56598  12.855   9.137  11.029
18234SOL    HW156599  12.803   9.126  10.950
18234SOL    HW256600  12.924   9.199  11.005
18235SOL     OW56601   2.775   6.565   6.710
18235SOL    HW156602   2.823   6.605   6.782
18235SOL    HW256603   2.721   6.636   6.675
18236SOL     OW56604   8.626   0.168   1.310
18236SOL    HW156605   8.695   0.111   1.278
18236SOL    HW256606   8.617   0.148   1.403
18237SOL     OW56607   3.507  14.769  12.732
18237SOL    HW156608   3.468  14.710  12.666
18237SOL    HW256609   3.459  14.749  12.812
18238SOL     OW56610   6.148  10.503  13.926
18238SOL    HW156611   6.214  10.476  13.862
18238SOL    HW256612   6.142  10.598  13.916
18239SOL     OW56613   6.875  11.144   5.285
18239SOL    HW156614   6.801  11.191   5.324
18239SOL    HW256615   6.902  11.199   5.212
18240SOL     OW56616   5.734   8.210  11.325
18240SOL    HW156617   5.770   8.295  11.349
18240SOL    HW256618   5.793   8.178  11.257
18241SOL     OW56619   3.524  13.193   7.848
18241SOL    HW156620   3.454  13.224   7.906
18241SOL    HW256621   3.589  13.264   7.850
18242SOL     OW56622   1.389   7.380   2.152
18242SOL    HW156623   1.362   7.337   2.233
18242SOL    HW256624   1.335   7.340   2.084
18243SOL     OW56625   6.618   3.111   9.911
18243SOL    HW156626   6.580   3.152   9.834
18243SOL    HW256627   6.712   3.110   9.894
18244SOL     OW56628   9.958   5.018   0.903
18244SOL    HW156629   9.898   5.056   0.967
18244SOL    HW256630   9.987   5.092   0.850
18245SOL     OW56631   8.364   9.961   9.714
18245SOL    HW156632   8.382   9.954   9.620
18245SOL    HW256633   8.404   9.883   9.752
18246SOL     OW56634  10.527   0.104   7.440
18246SOL    HW156635  10.621   0.086   7.434
18246SOL    HW256636  10.497   0.049   7.512
18247SOL     OW56637   8.147   5.087   1.814
18247SOL    HW156638   8.091   5.147   1.766
18247SOL    HW256639   8.100   5.004   1.813
18248SOL     OW56640   5.130   4.834   5.597
18248SOL    HW156641   5.094   4.908   5.646
18248SOL    HW256642   5.056   4.801   5.546
18249SOL     OW56643   0.577   2.508   5.180
18249SOL    HW156644   0.622   2.482   5.261
18249SOL    HW256645   0.594   2.436   5.119
18250SOL     OW56646   5.930   6.725   6.616
18250SOL    HW156647   5.854   6.714   6.674
18250SOL    HW256648   5.933   6.644   6.565
18251SOL     OW56649   4.891   9.254   5.408
18251SOL    HW156650   4.796   9.252   5.420
18251SOL    HW256651   4.910   9.176   5.356
18252SOL     OW56652  14.117   9.341   4.214
18252SOL    HW156653  14.121   9.384   4.300
18252SOL    HW256654  14.176   9.266   4.221
18253SOL     OW56655   1.801  13.492   8.077
18253SOL    HW156656   1.886  13.532   8.058
18253SOL    HW256657   1.738  13.546   8.029
18254SOL     OW56658  10.344   1.512   2.282
18254SOL    HW156659  10.380   1.493   2.369
18254SOL    HW256660  10.344   1.607   2.276
18255SOL     OW56661   6.608   8.403   7.485
18255SOL    HW156662   6.661   8.326   7.462
18255SOL    HW256663   6.670   8.463   7.526
18256SOL     OW56664   9.441   2.773   0.934
18256SOL    HW156665   9.358   2.726   0.930
18256SOL    HW256666   9.476   2.768   0.844
18257SOL     OW56667   8.547   4.997   9.021
18257SOL    HW156668   8.589   4.918   9.055
18257SOL    HW256669   8.530   5.050   9.099
18258SOL     OW56670   5.279   5.841   4.701
18258SOL    HW156671   5.193   5.864   4.735
18258SOL    HW256672   5.264   5.821   4.609
18259SOL     OW56673   3.387   8.780   8.591
18259SOL    HW156674   3.369   8.872   8.608
18259SOL    HW256675   3.460   8.759   8.650
18260SOL     OW56676  13.333   7.583   3.509
18260SOL    HW156677  13.408   7.526   3.493
18260SOL    HW256678  13.262   7.523   3.533
18261SOL     OW56679  11.135   4.034  12.380
18261SOL    HW156680  11.058   4.062  12.329
18261SOL    HW256681  11.209   4.078  12.337
18262SOL     OW56682   4.227   9.973  10.479
18262SOL    HW156683   4.285   9.999  10.550
18262SOL    HW256684   4.158   9.921  10.522
18263SOL     OW56685   8.056  11.316   1.987
18263SOL    HW156686   8.001  11.257   2.039
18263SOL    HW256687   8.052  11.400   2.034
18264SOL     OW56688   0.346   9.694  14.709
18264SOL    HW156689   0.422   9.657  14.754
18264SOL    HW256690   0.376   9.779  14.677
18265SOL     OW56691   3.290   1.231  14.436
18265SOL    HW156692   3.260   1.317  14.407
18265SOL    HW256693   3.211   1.178  14.442
18266SOL     OW56694   4.299   5.427   2.929
18266SOL    HW156695   4.330   5.365   2.994
18266SOL    HW256696   4.339   5.511   2.954
18267SOL     OW56697   9.568  11.828   2.023
18267SOL    HW156698   9.559  11.864   1.935
18267SOL    HW256699   9.496  11.866   2.073
18268SOL     OW56700   3.203   4.189   1.394
18268SOL    HW156701   3.204   4.255   1.464
18268SOL    HW256702   3.161   4.113   1.434
18269SOL     OW56703  11.128  10.831   1.558
18269SOL    HW156704  11.119  10.735   1.557
18269SOL    HW256705  11.120  10.855   1.650
18270SOL     OW56706  10.858   5.399  11.378
18270SOL    HW156707  10.952   5.389  11.393
18270SOL    HW256708  10.841   5.492  11.398
18271SOL     OW56709   6.282  14.566   6.724
18271SOL    HW156710   6.340  14.641   6.738
18271SOL    HW256711   6.196  14.604   6.708
18272SOL     OW56712   3.102  13.642   1.530
18272SOL    HW156713   3.115  13.715   1.470
18272SOL    HW256714   3.050  13.579   1.481
18273SOL     OW56715   1.241  13.715  12.349
18273SOL    HW156716   1.304  13.708  12.421
18273SOL    HW256717   1.168  13.660  12.377
18274SOL     OW56718  12.178   2.326   4.569
18274SOL    HW156719  12.221   2.264   4.510
18274SOL    HW256720  12.183   2.410   4.522
18275SOL     OW56721   8.006  13.394   2.832
18275SOL    HW156722   7.911  13.381   2.837
18275SOL    HW256723   8.016  13.473   2.779
18276SOL     OW56724   1.400  13.246   4.528
18276SOL    HW156725   1.419  13.307   4.457
18276SOL    HW256726   1.313  13.272   4.559
18277SOL     OW56727  12.043   8.899   0.160
18277SOL    HW156728  12.065   8.974   0.105
18277SOL    HW256729  11.966   8.927   0.209
18278SOL     OW56730   7.189   6.577   7.154
18278SOL    HW156731   7.284   6.566   7.147
18278SOL    HW256732   7.178   6.646   7.218
18279SOL     OW56733  14.105   2.914   0.251
18279SOL    HW156734  14.177   2.925   0.189
18279SOL    HW256735  14.088   3.002   0.284
18280SOL     OW56736   7.905  12.934   9.138
18280SOL    HW156737   7.839  12.978   9.193
18280SOL    HW256738   7.873  12.844   9.130
18281SOL     OW56739   0.472   3.832   2.236
18281SOL    HW156740   0.410   3.880   2.290
18281SOL    HW256741   0.517   3.899   2.184
18282SOL     OW56742   8.941   4.286  12.873
18282SOL    HW156743   9.013   4.345  12.853
18282SOL    HW256744   8.869   4.343  12.900
18283SOL     OW56745  11.203   2.329   4.033
18283SOL    HW156746  11.189   2.410   4.082
18283SOL    HW256747  11.140   2.333   3.961
18284SOL     OW56748   2.005   7.302   7.954
18284SOL    HW156749   1.922   7.257   7.974
18284SOL    HW256750   1.979   7.389   7.927
18285SOL     OW56751   0.894   8.954   3.763
18285SOL    HW156752   0.906   8.933   3.856
18285SOL    HW256753   0.929   8.879   3.716
18286SOL     OW56754   2.452   3.761   0.459
18286SOL    HW156755   2.395   3.820   0.410
18286SOL    HW256756   2.429   3.674   0.427
18287SOL     OW56757   4.925   9.254  12.395
18287SOL    HW156758   4.963   9.307  12.325
18287SOL    HW256759   4.996   9.243  12.458
18288SOL     OW56760  10.422  10.646   5.314
18288SOL    HW156761  10.385  10.634   5.402
18288SOL    HW256762  10.456  10.735   5.315
18289SOL     OW56763   3.380   3.533   7.976
18289SOL    HW156764   3.351   3.590   8.047
18289SOL    HW256765   3.476   3.536   7.979
18290SOL     OW56766   0.385  11.880   6.417
18290SOL    HW156767   0.454  11.935   6.380
18290SOL    HW256768   0.340  11.843   6.341
18291SOL     OW56769   3.307   1.065   6.068
18291SOL    HW156770   3.306   0.972   6.093
18291SOL    HW256771   3.363   1.068   5.991
18292SOL     OW56772   6.646  11.682   6.014
18292SOL    HW156773   6.624  11.629   6.091
18292SOL    HW256774   6.740  11.696   6.020
18293SOL     OW56775   6.158   4.735  14.632
18293SOL    HW156776   6.098   4.738  14.707
18293SOL    HW256777   6.111   4.778  14.561
18294SOL     OW56778   7.210   7.060   9.974
18294SOL    HW156779   7.280   7.059   9.908
18294SOL    HW256780   7.216   7.146  10.015
18295SOL     OW56781   0.444   3.558   8.401
18295SOL    HW156782   0.379   3.624   8.426
18295SOL    HW256783   0.527   3.591   8.435
18296SOL     OW56784   9.966   7.001   0.538
18296SOL    HW156785  10.047   6.950   0.534
18296SOL    HW256786   9.923   6.970   0.618
18297SOL     OW56787   0.384   5.593   9.176
18297SOL    HW156788   0.388   5.497   9.183
18297SOL    HW256789   0.351   5.609   9.088
18298SOL     OW56790   9.681  11.988   2.700
18298SOL    HW156791   9.639  12.022   2.779
18298SOL    HW256792   9.729  11.911   2.730
18299SOL     OW56793   7.051   7.756   1.418
18299SOL    HW156794   7.060   7.724   1.507
18299SOL    HW256795   7.018   7.846   1.428
18300SOL     OW56796   4.001  12.943   6.771
18300SOL    HW156797   4.064  12.890   6.819
18300SOL    HW256798   4.012  13.032   6.806
18301SOL     OW56799   3.594   3.353   1.538
18301SOL    HW156800   3.603   3.296   1.615
18301SOL    HW256801   3.571   3.293   1.467
18302SOL     OW56802   0.150   0.253   3.190
18302SOL    HW156803   0.183   0.338   3.218
18302SOL    HW256804   0.211   0.190   3.227
18303SOL     OW56805   9.152   0.487  14.265
18303SOL    HW156806   9.234   0.480  14.313
18303SOL    HW256807   9.132   0.397  14.239
18304SOL     OW56808  11.039   1.424   5.115
18304SOL    HW156809  11.054   1.359   5.047
18304SOL    HW256810  10.974   1.385   5.173
18305SOL     OW56811   8.241   0.678   0.445
18305SOL    HW156812   8.285   0.674   0.360
18305SOL    HW256813   8.313   0.684   0.508
18306SOL     OW56814   2.142   2.621   4.829
18306SOL    HW156815   2.223   2.602   4.783
18306SOL    HW256816   2.073   2.590   4.771
18307SOL     OW56817   1.107   6.595   9.242
18307SOL    HW156818   1.074   6.541   9.171
18307SOL    HW256819   1.114   6.536   9.317
18308SOL     OW56820   9.982  12.158   8.912
18308SOL    HW156821   9.961  12.146   9.004
18308SOL    HW256822  10.013  12.072   8.883
18309SOL     OW56823   6.899  13.081   2.087
18309SOL    HW156824   6.841  13.104   2.159
18309SOL    HW256825   6.927  12.992   2.106
18310SOL     OW56826   0.839  14.071   6.380
18310SOL    HW156827   0.836  14.166   6.390
18310SOL    HW256828   0.800  14.054   6.294
18311SOL     OW56829   0.868   5.596   4.753
18311SOL    HW156830   0.792   5.550   4.717
18311SOL    HW256831   0.940   5.534   4.740
18312SOL     OW56832   1.044   8.962   9.569
18312SOL    HW156833   0.996   9.027   9.519
18312SOL    HW256834   1.079   9.010   9.644
18313SOL     OW56835   2.508  14.523   2.802
18313SOL    HW156836   2.513  14.616   2.825
18313SOL    HW256837   2.485  14.479   2.884
18314SOL     OW56838   9.660  10.646   7.395
18314SOL    HW156839   9.629  10.653   7.305
18314SOL    HW256840   9.663  10.552   7.412
18315SOL     OW56841  12.788   3.841   3.433
18315SOL    HW156842  12.734   3.913   3.401
18315SOL    HW256843  12.726   3.777   3.468
18316SOL     OW56844   2.877   3.992  12.613
18316SOL    HW156845   2.947   3.945  12.659
18316SOL    HW256846   2.923   4.059  12.562
18317SOL     OW56847  10.279  13.759   9.275
18317SOL    HW156848  10.339  13.817   9.228
18317SOL    HW256849  10.219  13.727   9.207
18318SOL     OW56850   0.924   5.654   3.732
18318SOL    HW156851   0.919   5.746   3.756
18318SOL    HW256852   0.998   5.620   3.783
18319SOL     OW56853  11.338   8.391   3.122
18319SOL    HW156854  11.350   8.337   3.200
18319SOL    HW256855  11.244   8.407   3.118
18320SOL     OW56856   5.109  12.866   3.247
18320SOL    HW156857   5.068  12.853   3.332
18320SOL    HW256858   5.036  12.878   3.186
18321SOL     OW56859  14.107   2.066  12.955
18321SOL    HW156860  14.130   2.137  13.015
18321SOL    HW256861  14.060   2.003  13.009
18322SOL     OW56862   9.362   6.263   2.497
18322SOL    HW156863   9.336   6.321   2.569
18322SOL    HW256864   9.438   6.215   2.532
18323SOL     OW56865   6.491   2.373  12.731
18323SOL    HW156866   6.502   2.413  12.817
18323SOL    HW256867   6.437   2.295  12.748
18324SOL     OW56868   3.235  12.561   6.703
18324SOL    HW156869   3.227  12.560   6.799
18324SOL    HW256870   3.313  12.510   6.685
18325SOL     OW56871   8.617  11.710   3.611
18325SOL    HW156872   8.564  11.697   3.533
18325SOL    HW256873   8.558  11.754   3.673
18326SOL     OW56874   2.403  11.244  13.278
18326SOL    HW156875   2.476  11.194  13.314
18326SOL    HW256876   2.374  11.193  13.202
18327SOL     OW56877   5.006   3.583  14.595
18327SOL    HW156878   5.091   3.543  14.609
18327SOL    HW256879   4.969   3.593  14.682
18328SOL     OW56880   8.998   7.115   9.385
18328SOL    HW156881   8.961   7.065   9.313
18328SOL    HW256882   8.924   7.160   9.425
18329SOL     OW56883   2.023   0.991   6.598
18329SOL    HW156884   1.945   1.036   6.629
18329SOL    HW256885   2.073   0.971   6.677
18330SOL     OW56886  13.617   4.191  11.978
18330SOL    HW156887  13.706   4.200  12.011
18330SOL    HW256888  13.563   4.234  12.044
18331SOL     OW56889   8.350  10.293   6.832
18331SOL    HW156890   8.430  10.332   6.798
18331SOL    HW256891   8.297  10.274   6.755
18332SOL     OW56892   4.737  12.807  12.419
18332SOL    HW156893   4.752  12.792  12.512
18332SOL    HW256894   4.666  12.747  12.396
18333SOL     OW56895   5.612   8.765   2.780
18333SOL    HW156896   5.543   8.788   2.718
18333SOL    HW256897   5.616   8.670   2.777
18334SOL     OW56898  14.786   2.518   5.724
18334SOL    HW156899  14.708   2.527   5.669
18334SOL    HW256900  14.777   2.431   5.763
18335SOL     OW56901  14.396   4.241  13.460
18335SOL    HW156902  14.333   4.197  13.403
18335SOL    HW256903  14.463   4.275  13.401
18336SOL     OW56904   8.154   6.385   0.448
18336SOL    HW156905   8.196   6.399   0.533
18336SOL    HW256906   8.117   6.297   0.455
18337SOL     OW56907   9.831   0.173  10.526
18337SOL    HW156908   9.778   0.159  10.604
18337SOL    HW256909   9.852   0.267  10.529
18338SOL     OW56910   6.607   6.459  12.473
18338SOL    HW156911   6.657   6.399  12.528
18338SOL    HW256912   6.629   6.433  12.383
18339SOL     OW56913  13.470  10.051   7.705
18339SOL    HW156914  13.538  10.024   7.767
18339SOL    HW256915  13.506  10.031   7.619
18340SOL     OW56916   2.656   4.790  13.310
18340SOL    HW156917   2.740   4.828  13.337
18340SOL    HW256918   2.662   4.698  13.336
18341SOL     OW56919   9.978   0.069   7.942
18341SOL    HW156920  10.027  14.870   7.969
18341SOL    HW256921   9.886   0.045   7.955
18342SOL     OW56922   4.870   3.616   1.463
18342SOL    HW156923   4.953   3.644   1.499
18342SOL    HW256924   4.804   3.667   1.511
18343SOL     OW56925  14.603  14.555   7.450
18343SOL    HW156926  14.619  14.573   7.357
18343SOL    HW256927  14.648  14.626   7.496
18344SOL     OW56928   6.061  11.726   1.171
18344SOL    HW156929   6.009  11.769   1.103
18344SOL    HW256930   6.010  11.738   1.251
18345SOL     OW56931   4.613   8.457   1.232
18345SOL    HW156932   4.673   8.384   1.247
18345SOL    HW256933   4.535   8.416   1.194
18346SOL     OW56934   6.834  12.051  13.196
18346SOL    HW156935   6.827  11.975  13.139
18346SOL    HW256936   6.743  12.082  13.206
18347SOL     OW56937  12.856   9.447  12.972
18347SOL    HW156938  12.764   9.462  12.950
18347SOL    HW256939  12.856   9.438  13.067
18348SOL     OW56940  12.776  10.118   5.342
18348SOL    HW156941  12.782  10.132   5.436
18348SOL    HW256942  12.807  10.200   5.303
18349SOL     OW56943   3.370  10.183   1.913
18349SOL    HW156944   3.333  10.163   1.999
18349SOL    HW256945   3.458  10.217   1.932
18350SOL     OW56946  10.473   4.275   9.356
18350SOL    HW156947  10.522   4.256   9.276
18350SOL    HW256948  10.413   4.201   9.366
18351SOL     OW56949  12.144  11.883  10.450
18351SOL    HW156950  12.085  11.819  10.410
18351SOL    HW256951  12.098  11.913  10.528
18352SOL     OW56952   7.830   8.956   8.029
18352SOL    HW156953   7.797   8.937   8.117
18352SOL    HW256954   7.881   8.878   8.006
18353SOL     OW56955  11.854   3.951  13.952
18353SOL    HW156956  11.797   3.981  13.882
18353SOL    HW256957  11.892   4.031  13.989
18354SOL     OW56958   8.235   0.513   7.492
18354SOL    HW156959   8.284   0.585   7.533
18354SOL    HW256960   8.145   0.547   7.484
18355SOL     OW56961  10.071   7.876  13.690
18355SOL    HW156962   9.981   7.883  13.658
18355SOL    HW256963  10.112   7.813  13.630
18356SOL     OW56964  12.685   1.761   7.793
18356SOL    HW156965  12.604   1.779   7.745
18356SOL    HW256966  12.694   1.834   7.854
18357SOL     OW56967   6.520   6.572   4.586
18357SOL    HW156968   6.568   6.633   4.530
18357SOL    HW256969   6.577   6.557   4.661
18358SOL     OW56970   0.078   9.351  12.220
18358SOL    HW156971   0.066   9.356  12.315
18358SOL    HW256972   0.146   9.415  12.201
18359SOL     OW56973   8.069   4.028   0.936
18359SOL    HW156974   8.155   4.001   0.903
18359SOL    HW256975   8.007   3.989   0.874
18360SOL     OW56976   8.187   8.673  11.610
18360SOL    HW156977   8.101   8.702  11.644
18360SOL    HW256978   8.246   8.682  11.685
18361SOL     OW56979  12.127  10.662   5.883
18361SOL    HW156980  12.137  10.615   5.966
18361SOL    HW256981  12.212  10.703   5.869
18362SOL     OW56982   9.325   1.134   0.736
18362SOL    HW156983   9.296   1.140   0.827
18362SOL    HW256984   9.410   1.091   0.741
18363SOL     OW56985   7.812   8.289  13.909
18363SOL    HW156986   7.857   8.346  13.847
18363SOL    HW256987   7.719   8.308  13.896
18364SOL     OW56988   3.599   1.510  13.944
18364SOL    HW156989   3.580   1.533  13.853
18364SOL    HW256990   3.526   1.454  13.970
18365SOL     OW56991   9.495   0.478   5.481
18365SOL    HW156992   9.427   0.478   5.548
18365SOL    HW256993   9.448   0.469   5.399
18366SOL     OW56994   2.004   5.961   7.083
18366SOL    HW156995   1.992   6.016   7.160
18366SOL    HW256996   2.046   5.882   7.116
18367SOL     OW56997   0.888  12.986   0.631
18367SOL    HW156998   0.875  13.057   0.694
18367SOL    HW256999   0.800  12.967   0.598
18368SOL     OW57000  10.873   4.895   6.189
18368SOL    HW157001  10.903   4.807   6.213
18368SOL    HW257002  10.864   4.893   6.094
18369SOL     OW57003   3.342   4.333   3.378
18369SOL    HW157004   3.344   4.429   3.374
18369SOL    HW257005   3.270   4.313   3.439
18370SOL     OW57006   7.021   6.409   1.410
18370SOL    HW157007   6.945   6.394   1.466
18370SOL    HW257008   7.000   6.489   1.362
18371SOL     OW57009   8.483   0.042   1.876
18371SOL    HW157010   8.465   0.083   1.960
18371SOL    HW257011   8.467  14.828   1.890
18372SOL     OW57012   4.805  14.067   5.965
18372SOL    HW157013   4.846  14.090   6.048
18372SOL    HW257014   4.815  14.145   5.910
18373SOL     OW57015   2.917   3.536  10.227
18373SOL    HW157016   2.865   3.471  10.180
18373SOL    HW257017   2.986   3.486  10.269
18374SOL     OW57018   6.676  11.563  13.744
18374SOL    HW157019   6.669  11.609  13.828
18374SOL    HW257020   6.741  11.495  13.760
18375SOL     OW57021  12.104  11.302  14.463
18375SOL    HW157022  12.041  11.363  14.424
18375SOL    HW257023  12.189  11.346  14.453
18376SOL     OW57024  13.296   4.841   1.482
18376SOL    HW157025  13.303   4.746   1.468
18376SOL    HW257026  13.386   4.868   1.500
18377SOL     OW57027   4.995  12.901  13.061
18377SOL    HW157028   5.032  12.953  13.132
18377SOL    HW257029   5.071  12.857  13.022
18378SOL     OW57030  10.051  14.677   1.660
18378SOL    HW157031  10.048  14.632   1.744
18378SOL    HW257032  10.091  14.762   1.679
18379SOL     OW57033  12.026   2.278  14.504
18379SOL    HW157034  11.999   2.231  14.583
18379SOL    HW257035  12.022   2.370  14.529
18380SOL     OW57036  12.775   1.152   6.108
18380SOL    HW157037  12.840   1.191   6.049
18380SOL    HW257038  12.760   1.218   6.175
18381SOL     OW57039  12.153   5.729   9.551
18381SOL    HW157040  12.068   5.757   9.586
18381SOL    HW257041  12.182   5.662   9.613
18382SOL     OW57042  14.673  14.264   4.843
18382SOL    HW157043  14.594  14.209   4.842
18382SOL    HW257044  14.646  14.345   4.887
18383SOL     OW57045  12.689  10.496  11.991
18383SOL    HW157046  12.643  10.524  11.912
18383SOL    HW257047  12.758  10.561  12.003
18384SOL     OW57048   2.980   8.399   8.773
18384SOL    HW157049   2.948   8.312   8.748
18384SOL    HW257050   3.036   8.425   8.700
18385SOL     OW57051   6.940  13.674  13.670
18385SOL    HW157052   6.921  13.684  13.576
18385SOL    HW257053   6.871  13.616  13.702
18386SOL     OW57054   0.591  10.493  10.267
18386SOL    HW157055   0.601  10.449  10.183
18386SOL    HW257056   0.607  10.585  10.248
18387SOL     OW57057   4.302  14.080   2.806
18387SOL    HW157058   4.275  14.071   2.897
18387SOL    HW257059   4.343  13.996   2.784
18388SOL     OW57060  14.512   6.067  12.404
18388SOL    HW157061  14.510   6.000  12.335
18388SOL    HW257062  14.500   6.019  12.485
18389SOL     OW57063  12.873   4.626   6.526
18389SOL    HW157064  12.868   4.553   6.464
18389SOL    HW257065  12.951   4.608   6.578
18390SOL     OW57066  12.360  11.920   9.874
18390SOL    HW157067  12.334  11.978   9.803
18390SOL    HW257068  12.425  11.969   9.923
18391SOL     OW57069   6.665   2.366   6.992
18391SOL    HW157070   6.616   2.361   6.910
18391SOL    HW257071   6.609   2.324   7.056
18392SOL     OW57072   2.019  11.690   3.579
18392SOL    HW157073   2.085  11.648   3.634
18392SOL    HW257074   2.067  11.757   3.530
18393SOL     OW57075   0.646  10.426   0.464
18393SOL    HW157076   0.605  10.362   0.406
18393SOL    HW257077   0.695  10.374   0.527
18394SOL     OW57078   8.694  12.329  13.239
18394SOL    HW157079   8.747  12.314  13.317
18394SOL    HW257080   8.604  12.324  13.270
18395SOL     OW57081  12.110  11.160   8.689
18395SOL    HW157082  12.091  11.241   8.641
18395SOL    HW257083  12.064  11.092   8.640
18396SOL     OW57084   4.374  10.979  13.708
18396SOL    HW157085   4.330  11.045  13.761
18396SOL    HW257086   4.452  11.022  13.675
18397SOL     OW57087   0.554  10.521   0.149
18397SOL    HW157088   0.466  10.532   0.185
18397SOL    HW257089   0.548  10.553   0.059
18398SOL     OW57090  12.479   0.672  11.428
18398SOL    HW157091  12.531   0.591  11.432
18398SOL    HW257092  12.390   0.642  11.411
18399SOL     OW57093  14.156   5.288  12.202
18399SOL    HW157094  14.101   5.271  12.125
18399SOL    HW257095  14.246   5.284  12.169
18400SOL     OW57096   3.468   0.638   9.896
18400SOL    HW157097   3.526   0.683   9.958
18400SOL    HW257098   3.514   0.557   9.875
18401SOL     OW57099   4.252   0.714  13.352
18401SOL    HW157100   4.316   0.643  13.348
18401SOL    HW257101   4.302   0.792  13.331
18402SOL     OW57102   9.588   6.046   0.180
18402SOL    HW157103   9.562   6.131   0.218
18402SOL    HW257104   9.538   6.040   0.099
18403SOL     OW57105  12.294  10.407   8.903
18403SOL    HW157106  12.265  10.472   8.967
18403SOL    HW257107  12.283  10.450   8.818
18404SOL     OW57108  11.358   7.988  12.336
18404SOL    HW157109  11.365   8.071  12.384
18404SOL    HW257110  11.291   7.938  12.384
18405SOL     OW57111   2.146   3.754   2.486
18405SOL    HW157112   2.118   3.739   2.576
18405SOL    HW257113   2.234   3.792   2.494
18406SOL     OW57114  14.726   8.758  10.114
18406SOL    HW157115  14.766   8.822  10.055
18406SOL    HW257116  14.650   8.803  10.151
18407SOL     OW57117  13.374  14.659  14.210
18407SOL    HW157118  13.296  14.623  14.252
18407SOL    HW257119  13.407  14.724  14.272
18408SOL     OW57120   1.539   9.119   3.865
18408SOL    HW157121   1.611   9.134   3.926
18408SOL    HW257122   1.536   9.024   3.853
18409SOL     OW57123   8.694   4.157   9.966
18409SOL    HW157124   8.770   4.099   9.953
18409SOL    HW257125   8.650   4.156   9.881
18410SOL     OW57126   7.650  10.256  12.074
18410SOL    HW157127   7.695  10.340  12.072
18410SOL    HW257128   7.659  10.222  11.984
18411SOL     OW57129   9.880  13.847   9.622
18411SOL    HW157130   9.959  13.802   9.593
18411SOL    HW257131   9.823  13.778   9.657
18412SOL     OW57132   2.445   9.754  11.457
18412SOL    HW157133   2.469   9.816  11.389
18412SOL    HW257134   2.527   9.711  11.481
18413SOL     OW57135   1.653   3.071   9.858
18413SOL    HW157136   1.726   3.078   9.919
18413SOL    HW257137   1.658   3.149   9.804
18414SOL     OW57138   4.513   5.403  10.696
18414SOL    HW157139   4.538   5.367  10.781
18414SOL    HW257140   4.430   5.448  10.713
18415SOL     OW57141  13.859  12.971   7.704
18415SOL    HW157142  13.842  13.061   7.674
18415SOL    HW257143  13.945  12.975   7.744
18416SOL     OW57144  11.033   3.500  12.514
18416SOL    HW157145  10.992   3.432  12.461
18416SOL    HW257146  10.993   3.582  12.483
18417SOL     OW57147   9.819   0.400   9.163
18417SOL    HW157148   9.881   0.330   9.181
18417SOL    HW257149   9.747   0.356   9.117
18418SOL     OW57150   5.335   8.710   7.910
18418SOL    HW157151   5.399   8.669   7.852
18418SOL    HW257152   5.331   8.801   7.881
18419SOL     OW57153  12.619   1.816   2.671
18419SOL    HW157154  12.686   1.803   2.604
18419SOL    HW257155  12.583   1.902   2.652
18420SOL     OW57156  11.921   0.052   5.794
18420SOL    HW157157  11.902   0.003   5.714
18420SOL    HW257158  11.873   0.134   5.784
18421SOL     OW57159  10.631   4.855   5.421
18421SOL    HW157160  10.628   4.765   5.386
18421SOL    HW257161  10.540   4.884   5.422
18422SOL     OW57162   4.349   1.006  10.104
18422SOL    HW157163   4.382   0.950  10.174
18422SOL    HW257164   4.300   1.075  10.148
18423SOL     OW57165  12.017  14.281   6.107
18423SOL    HW157166  11.922  14.268   6.100
18423SOL    HW257167  12.044  14.221   6.176
18424SOL     OW57168   3.384   7.734   5.091
18424SOL    HW157169   3.413   7.682   5.016
18424SOL    HW257170   3.437   7.814   5.087
18425SOL     OW57171   8.310  14.817  11.298
18425SOL    HW157172   8.225  14.795  11.337
18425SOL    HW257173   8.373  14.805  11.369
18426SOL     OW57174   7.882   1.296   5.912
18426SOL    HW157175   7.846   1.209   5.898
18426SOL    HW257176   7.968   1.294   5.870
18427SOL     OW57177   8.132   0.349   9.599
18427SOL    HW157178   8.218   0.316   9.626
18427SOL    HW257179   8.069   0.296   9.647
18428SOL     OW57180   9.034   9.014  10.357
18428SOL    HW157181   9.044   8.954  10.283
18428SOL    HW257182   9.039   9.101  10.319
18429SOL     OW57183   1.315   7.177   6.660
18429SOL    HW157184   1.288   7.085   6.666
18429SOL    HW257185   1.237   7.226   6.685
18430SOL     OW57186  10.124   3.825   2.225
18430SOL    HW157187  10.098   3.739   2.258
18430SOL    HW257188  10.042   3.868   2.202
18431SOL     OW57189   7.823  11.091  14.651
18431SOL    HW157190   7.769  11.165  14.676
18431SOL    HW257191   7.873  11.121  14.576
18432SOL     OW57192   9.330  10.933   3.506
18432SOL    HW157193   9.278  10.993   3.451
18432SOL    HW257194   9.324  10.970   3.594
18433SOL     OW57195   7.567   1.998  13.934
18433SOL    HW157196   7.607   2.034  14.014
18433SOL    HW257197   7.632   1.936  13.901
18434SOL     OW57198   1.468   5.921   4.182
18434SOL    HW157199   1.563   5.930   4.185
18434SOL    HW257200   1.451   5.830   4.205
18435SOL     OW57201   1.741  13.148   0.418
18435SOL    HW157202   1.748  13.227   0.364
18435SOL    HW257203   1.829  13.134   0.453
18436SOL     OW57204  13.356   2.347  13.224
18436SOL    HW157205  13.294   2.341  13.296
18436SOL    HW257206  13.320   2.416  13.167
18437SOL     OW57207  12.380   8.173   2.405
18437SOL    HW157208  12.377   8.105   2.338
18437SOL    HW257209  12.468   8.210   2.398
18438SOL     OW57210  10.270   1.089   0.517
18438SOL    HW157211  10.191   1.082   0.464
18438SOL    HW257212  10.244   1.144   0.591
18439SOL     OW57213  10.059   1.354   7.766
18439SOL    HW157214  10.077   1.407   7.845
18439SOL    HW257215  10.103   1.402   7.695
18440SOL     OW57216  12.787   7.725  11.849
18440SOL    HW157217  12.793   7.805  11.902
18440SOL    HW257218  12.723   7.746  11.782
18441SOL     OW57219   8.679   1.476   8.941
18441SOL    HW157220   8.757   1.449   8.989
18441SOL    HW257221   8.609   1.475   9.006
18442SOL     OW57222   4.670   3.537  13.658
18442SOL    HW157223   4.586   3.495  13.675
18442SOL    HW257224   4.725   3.467  13.623
18443SOL     OW57225   5.858  14.386   9.138
18443SOL    HW157226   5.817  14.472   9.126
18443SOL    HW257227   5.806  14.327   9.083
18444SOL     OW57228   7.379   9.369   2.085
18444SOL    HW157229   7.355   9.278   2.072
18444SOL    HW257230   7.343   9.391   2.171
18445SOL     OW57231  11.639   0.212   4.047
18445SOL    HW157232  11.716   0.248   4.092
18445SOL    HW257233  11.653   0.233   3.955
18446SOL     OW57234   3.344   2.902   5.774
18446SOL    HW157235   3.381   2.850   5.702
18446SOL    HW257236   3.271   2.849   5.806
18447SOL     OW57237   6.280   5.242   1.528
18447SOL    HW157238   6.278   5.299   1.605
18447SOL    HW257239   6.214   5.175   1.547
18448SOL     OW57240  13.541  13.107  14.594
18448SOL    HW157241  13.569  13.023  14.557
18448SOL    HW257242  13.499  13.152  14.521
18449SOL     OW57243  14.162  10.264   3.068
18449SOL    HW157244  14.120  10.199   3.124
18449SOL    HW257245  14.198  10.329   3.129
18450SOL     OW57246   2.591   8.329   4.227
18450SOL    HW157247   2.596   8.394   4.298
18450SOL    HW257248   2.503   8.292   4.235
18451SOL     OW57249   8.520   6.981   9.988
18451SOL    HW157250   8.597   7.031  10.016
18451SOL    HW257251   8.557   6.904   9.945
18452SOL     OW57252  13.574   6.598   4.823
18452SOL    HW157253  13.514   6.654   4.773
18452SOL    HW257254  13.528   6.514   4.829
18453SOL     OW57255   0.775  14.659   5.314
18453SOL    HW157256   0.860  14.672   5.354
18453SOL    HW257257   0.714  14.654   5.387
18454SOL     OW57258  13.447   8.212   7.891
18454SOL    HW157259  13.506   8.186   7.961
18454SOL    HW257260  13.446   8.308   7.895
18455SOL     OW57261  11.943   0.705   1.919
18455SOL    HW157262  11.859   0.669   1.947
18455SOL    HW257263  11.928   0.732   1.828
18456SOL     OW57264   9.943   0.469   8.633
18456SOL    HW157265  10.011   0.536   8.624
18456SOL    HW257266   9.979   0.407   8.696
18457SOL     OW57267  10.926   9.373  11.972
18457SOL    HW157268  10.948   9.445  11.913
18457SOL    HW257269  10.868   9.317  11.921
18458SOL     OW57270   8.002  11.193   5.459
18458SOL    HW157271   8.051  11.238   5.391
18458SOL    HW257272   8.067  11.174   5.527
18459SOL     OW57273   1.712   9.924   1.862
18459SOL    HW157274   1.654   9.856   1.898
18459SOL    HW257275   1.800   9.886   1.868
18460SOL     OW57276   9.849  11.473   7.175
18460SOL    HW157277   9.888  11.394   7.212
18460SOL    HW257278   9.779  11.440   7.118
18461SOL     OW57279  11.830   8.254   7.878
18461SOL    HW157280  11.770   8.320   7.845
18461SOL    HW257281  11.908   8.263   7.823
18462SOL     OW57282   9.697   0.333   0.892
18462SOL    HW157283   9.653   0.256   0.857
18462SOL    HW257284   9.679   0.402   0.829
18463SOL     OW57285   5.970  13.312   5.173
18463SOL    HW157286   6.035  13.309   5.243
18463SOL    HW257287   5.991  13.237   5.117
18464SOL     OW57288   2.159  11.899   5.304
18464SOL    HW157289   2.082  11.949   5.330
18464SOL    HW257290   2.185  11.936   5.219
18465SOL     OW57291  13.443   1.128  12.438
18465SOL    HW157292  13.534   1.100  12.435
18465SOL    HW257293  13.431   1.183  12.361
18466SOL     OW57294  10.569   7.859   2.072
18466SOL    HW157295  10.477   7.854   2.098
18466SOL    HW257296  10.567   7.868   1.977
18467SOL     OW57297   5.681   6.770  12.459
18467SOL    HW157298   5.743   6.835  12.426
18467SOL    HW257299   5.720   6.686  12.436
18468SOL     OW57300  12.600  10.651  13.437
18468SOL    HW157301  12.612  10.706  13.515
18468SOL    HW257302  12.674  10.673  13.380
18469SOL     OW57303   3.362   1.269   9.805
18469SOL    HW157304   3.439   1.215   9.785
18469SOL    HW257305   3.357   1.331   9.732
18470SOL     OW57306   3.061   9.298   5.206
18470SOL    HW157307   3.140   9.280   5.256
18470SOL    HW257308   3.046   9.217   5.156
18471SOL     OW57309   5.491   1.998  10.073
18471SOL    HW157310   5.544   2.040  10.141
18471SOL    HW257311   5.460   2.070  10.019
18472SOL     OW57312   3.106  11.008   1.091
18472SOL    HW157313   3.087  11.092   1.051
18472SOL    HW257314   3.163  11.029   1.165
18473SOL     OW57315   1.048   5.784  13.616
18473SOL    HW157316   1.016   5.773  13.527
18473SOL    HW257317   1.033   5.699  13.658
18474SOL     OW57318  10.319   4.191   7.687
18474SOL    HW157319  10.407   4.222   7.704
18474SOL    HW257320  10.321   4.163   7.595
18475SOL     OW57321   6.187   8.273   3.427
18475SOL    HW157322   6.262   8.213   3.427
18475SOL    HW257323   6.116   8.222   3.388
18476SOL     OW57324   0.538  11.640   7.807
18476SOL    HW157325   0.445  11.646   7.832
18476SOL    HW257326   0.538  11.657   7.713
18477SOL     OW57327   6.119   7.523   3.960
18477SOL    HW157328   6.108   7.443   3.909
18477SOL    HW257329   6.068   7.589   3.913
18478SOL     OW57330  11.821  12.794   4.813
18478SOL    HW157331  11.831  12.807   4.719
18478SOL    HW257332  11.814  12.699   4.824
18479SOL     OW57333   7.769   3.084   5.313
18479SOL    HW157334   7.752   3.132   5.394
18479SOL    HW257335   7.827   3.141   5.263
18480SOL     OW57336  12.900  10.759  10.296
18480SOL    HW157337  12.870  10.719  10.214
18480SOL    HW257338  12.964  10.697  10.331
18481SOL     OW57339   7.281   0.935  14.660
18481SOL    HW157340   7.352   0.885  14.699
18481SOL    HW257341   7.302   1.026  14.681
18482SOL     OW57342   0.851   3.764  13.121
18482SOL    HW157343   0.828   3.827  13.190
18482SOL    HW257344   0.770   3.715  13.106
18483SOL     OW57345   8.535  13.772   3.275
18483SOL    HW157346   8.527  13.861   3.239
18483SOL    HW257347   8.520  13.714   3.201
18484SOL     OW57348  13.177  14.255  11.659
18484SOL    HW157349  13.177  14.315  11.734
18484SOL    HW257350  13.146  14.309  11.586
18485SOL     OW57351   4.693  13.943   4.011
18485SOL    HW157352   4.727  13.942   3.922
18485SOL    HW257353   4.729  14.024   4.049
18486SOL     OW57354   8.436   5.983   6.977
18486SOL    HW157355   8.360   5.997   6.919
18486SOL    HW257356   8.422   5.896   7.013
18487SOL     OW57357  11.477   7.959  14.758
18487SOL    HW157358  11.549   7.898  14.745
18487SOL    HW257359  11.497   8.033  14.700
18488SOL     OW57360  11.442  10.070   8.857
18488SOL    HW157361  11.414   9.979   8.869
18488SOL    HW257362  11.537  10.068   8.871
18489SOL     OW57363  10.338   3.068  11.035
18489SOL    HW157364  10.379   3.121  11.104
18489SOL    HW257365  10.257   3.037  11.075
18490SOL     OW57366   5.874  14.196   9.785
18490SOL    HW157367   5.916  14.112   9.805
18490SOL    HW257368   5.887  14.209   9.691
18491SOL     OW57369   6.204   2.836  11.102
18491SOL    HW157370   6.269   2.812  11.035
18491SOL    HW257371   6.206   2.932  11.103
18492SOL     OW57372   5.019   1.749   4.124
18492SOL    HW157373   4.991   1.695   4.198
18492SOL    HW257374   4.947   1.810   4.110
18493SOL     OW57375   0.747   6.759   4.487
18493SOL    HW157376   0.721   6.822   4.554
18493SOL    HW257377   0.721   6.800   4.404
18494SOL     OW57378   9.979   6.359   2.585
18494SOL    HW157379   9.911   6.295   2.565
18494SOL    HW257380   9.931   6.436   2.615
18495SOL     OW57381   3.622   1.719  14.511
18495SOL    HW157382   3.624   1.632  14.551
18495SOL    HW257383   3.656   1.706  14.423
18496SOL     OW57384   4.230   4.784  12.214
18496SOL    HW157385   4.162   4.844  12.184
18496SOL    HW257386   4.249   4.730  12.137
18497SOL     OW57387   8.121   9.981   9.560
18497SOL    HW157388   8.198  10.030   9.590
18497SOL    HW257389   8.048  10.019   9.609
18498SOL     OW57390  13.506   4.188   0.488
18498SOL    HW157391  13.550   4.234   0.417
18498SOL    HW257392  13.419   4.228   0.491
18499SOL     OW57393   1.364   7.856   4.318
18499SOL    HW157394   1.389   7.810   4.399
18499SOL    HW257395   1.269   7.849   4.316
18500SOL     OW57396   8.638   3.200   8.628
18500SOL    HW157397   8.596   3.220   8.712
18500SOL    HW257398   8.598   3.262   8.567
18501SOL     OW57399   6.398   4.777   7.771
18501SOL    HW157400   6.489   4.773   7.741
18501SOL    HW257401   6.379   4.688   7.802
18502SOL     OW57402   1.000   4.632  12.408
18502SOL    HW157403   0.927   4.584  12.370
18502SOL    HW257404   0.970   4.654  12.497
18503SOL     OW57405   8.527   6.502   8.424
18503SOL    HW157406   8.601   6.463   8.378
18503SOL    HW257407   8.544   6.596   8.421
18504SOL     OW57408  11.257   4.540   2.041
18504SOL    HW157409  11.186   4.507   2.097
18504SOL    HW257410  11.219   4.614   1.994
18505SOL     OW57411  11.013  12.536   0.702
18505SOL    HW157412  11.046  12.618   0.739
18505SOL    HW257413  11.081  12.472   0.721
18506SOL     OW57414   3.093  12.950   3.822
18506SOL    HW157415   3.137  12.869   3.850
18506SOL    HW257416   3.013  12.920   3.779
18507SOL     OW57417   6.846   3.179  14.456
18507SOL    HW157418   6.765   3.210  14.415
18507SOL    HW257419   6.840   3.083  14.453
18508SOL     OW57420   7.911   7.618   4.303
18508SOL    HW157421   7.944   7.540   4.349
18508SOL    HW257422   7.844   7.585   4.244
18509SOL     OW57423  10.221   3.232  13.339
18509SOL    HW157424  10.193   3.303  13.281
18509SOL    HW257425  10.299   3.267  13.382
18510SOL     OW57426   4.117   9.240   8.250
18510SOL    HW157427   4.114   9.149   8.281
18510SOL    HW257428   4.208   9.254   8.226
18511SOL     OW57429   1.102   3.527  10.857
18511SOL    HW157430   1.166   3.591  10.889
18511SOL    HW257431   1.043   3.513  10.932
18512SOL     OW57432   0.010   4.479  10.349
18512SOL    HW157433  14.839   4.406  10.313
18512SOL    HW257434  14.875   4.474  10.443
18513SOL     OW57435   5.270   7.402  11.721
18513SOL    HW157436   5.227   7.452  11.652
18513SOL    HW257437   5.268   7.311  11.690
18514SOL     OW57438   0.376   6.217   7.080
18514SOL    HW157439   0.286   6.193   7.098
18514SOL    HW257440   0.388   6.301   7.123
18515SOL     OW57441   5.321  13.687  13.947
18515SOL    HW157442   5.238  13.639  13.953
18515SOL    HW257443   5.301  13.773  13.983
18516SOL     OW57444   8.201   4.703   3.349
18516SOL    HW157445   8.122   4.716   3.296
18516SOL    HW257446   8.172   4.711   3.439
18517SOL     OW57447   8.593  11.049  13.216
18517SOL    HW157448   8.687  11.062  13.210
18517SOL    HW257449   8.576  10.970  13.165
18518SOL     OW57450   0.891   4.134   6.458
18518SOL    HW157451   0.909   4.143   6.552
18518SOL    HW257452   0.796   4.135   6.451
18519SOL     OW57453  11.243   1.759  13.870
18519SOL    HW157454  11.205   1.757  13.782
18519SOL    HW257455  11.249   1.853  13.891
18520SOL     OW57456  13.134  11.453   0.717
18520SOL    HW157457  13.161  11.366   0.747
18520SOL    HW257458  13.170  11.513   0.783
18521SOL     OW57459   4.086   5.842   0.353
18521SOL    HW157460   4.060   5.764   0.402
18521SOL    HW257461   4.139   5.808   0.281
18522SOL     OW57462   8.906  13.508  10.478
18522SOL    HW157463   8.858  13.559  10.543
18522SOL    HW257464   8.972  13.570  10.444
18523SOL     OW57465  11.207   7.026   2.902
18523SOL    HW157466  11.194   7.117   2.877
18523SOL    HW257467  11.126   6.982   2.877
18524SOL     OW57468   3.913   5.613  13.273
18524SOL    HW157469   3.853   5.542  13.251
18524SOL    HW257470   3.868   5.693  13.245
18525SOL     OW57471   6.303   5.200   3.810
18525SOL    HW157472   6.243   5.274   3.806
18525SOL    HW257473   6.353   5.214   3.891
18526SOL     OW57474   7.400   2.342   1.550
18526SOL    HW157475   7.349   2.265   1.524
18526SOL    HW257476   7.397   2.399   1.473
18527SOL     OW57477   1.163   5.238   1.994
18527SOL    HW157478   1.244   5.252   1.945
18527SOL    HW257479   1.143   5.145   1.981
18528SOL     OW57480   5.432   4.695   7.614
18528SOL    HW157481   5.489   4.752   7.562
18528SOL    HW257482   5.357   4.750   7.636
18529SOL     OW57483   8.090   7.901   9.979
18529SOL    HW157484   8.051   7.972   9.928
18529SOL    HW257485   8.169   7.938  10.016
18530SOL     OW57486   1.193   2.279  12.090
18530SOL    HW157487   1.141   2.337  12.146
18530SOL    HW257488   1.264   2.249  12.147
18531SOL     OW57489   5.358   9.220  10.922
18531SOL    HW157490   5.429   9.176  10.875
18531SOL    HW257491   5.291   9.153  10.933
18532SOL     OW57492   1.753   4.767  10.445
18532SOL    HW157493   1.751   4.750  10.539
18532SOL    HW257494   1.669   4.810  10.427
18533SOL     OW57495  14.553  14.024  14.039
18533SOL    HW157496  14.470  14.058  14.006
18533SOL    HW257497  14.613  14.098  14.032
18534SOL     OW57498   0.697   6.060   0.923
18534SOL    HW157499   0.711   6.153   0.905
18534SOL    HW257500   0.783   6.020   0.908
18535SOL     OW57501  12.347   4.482   2.552
18535SOL    HW157502  12.275   4.520   2.501
18535SOL    HW257503  12.376   4.554   2.609
18536SOL     OW57504   9.138  14.234   7.470
18536SOL    HW157505   9.080  14.164   7.499
18536SOL    HW257506   9.102  14.261   7.385
18537SOL     OW57507   0.968   8.794   4.663
18537SOL    HW157508   0.874   8.778   4.657
18537SOL    HW257509   1.007   8.708   4.651
18538SOL     OW57510   8.911  11.601   9.894
18538SOL    HW157511   8.999  11.636   9.888
18538SOL    HW257512   8.861  11.647   9.826
18539SOL     OW57513  11.947  11.149   4.324
18539SOL    HW157514  12.036  11.183   4.333
18539SOL    HW257515  11.957  11.054   4.327
18540SOL     OW57516   1.988  14.513   6.153
18540SOL    HW157517   1.978  14.599   6.111
18540SOL    HW257518   1.918  14.459   6.115
18541SOL     OW57519   7.247  12.910   3.534
18541SOL    HW157520   7.172  12.963   3.509
18541SOL    HW257521   7.284  12.954   3.611
18542SOL     OW57522  10.918   8.933   8.969
18542SOL    HW157523  10.867   8.867   9.016
18542SOL    HW257524  10.892   8.922   8.877
18543SOL     OW57525   3.278   2.242  10.164
18543SOL    HW157526   3.301   2.169  10.222
18543SOL    HW257527   3.362   2.275  10.132
18544SOL     OW57528  13.436  12.742  11.584
18544SOL    HW157529  13.410  12.728  11.493
18544SOL    HW257530  13.521  12.698  11.591
18545SOL     OW57531   7.459  12.672   9.709
18545SOL    HW157532   7.397  12.709   9.771
18545SOL    HW257533   7.462  12.579   9.731
18546SOL     OW57534   0.648   4.870   9.969
18546SOL    HW157535   0.580   4.814  10.006
18546SOL    HW257536   0.713   4.879  10.039
18547SOL     OW57537   9.462   4.589   2.190
18547SOL    HW157538   9.517   4.627   2.258
18547SOL    HW257539   9.393   4.654   2.175
18548SOL     OW57540   1.746   6.331  11.496
18548SOL    HW157541   1.715   6.318  11.586
18548SOL    HW257542   1.719   6.420  11.474
18549SOL     OW57543   8.314   5.566  13.785
18549SOL    HW157544   8.242   5.503  13.784
18549SOL    HW257545   8.392   5.514  13.769
18550SOL     OW57546   8.492  12.630  13.259
18550SOL    HW157547   8.467  12.627  13.351
18550SOL    HW257548   8.422  12.582  13.214
18551SOL     OW57549   0.706   8.974   2.021
18551SOL    HW157550   0.800   8.992   2.027
18551SOL    HW257551   0.665   9.060   2.020
18552SOL     OW57552   7.319  12.417  10.923
18552SOL    HW157553   7.284  12.331  10.947
18552SOL    HW257554   7.309  12.422  10.828
18553SOL     OW57555   0.620   1.379   6.040
18553SOL    HW157556   0.600   1.467   6.008
18553SOL    HW257557   0.538   1.331   6.028
18554SOL     OW57558   0.850   8.233  12.464
18554SOL    HW157559   0.860   8.200  12.553
18554SOL    HW257560   0.927   8.201  12.418
18555SOL     OW57561  12.945   3.006  11.279
18555SOL    HW157562  12.914   3.050  11.358
18555SOL    HW257563  12.876   3.021  11.214
18556SOL     OW57564   1.167   3.390   0.315
18556SOL    HW157565   1.218   3.395   0.234
18556SOL    HW257566   1.087   3.440   0.297
18557SOL     OW57567  14.154   4.785  13.502
18557SOL    HW157568  14.160   4.695  13.470
18557SOL    HW257569  14.112   4.777  13.588
18558SOL     OW57570   6.345   7.680   9.505
18558SOL    HW157571   6.328   7.616   9.575
18558SOL    HW257572   6.403   7.744   9.546
18559SOL     OW57573   9.815  14.691   7.892
18559SOL    HW157574   9.868  14.615   7.869
18559SOL    HW257575   9.788  14.728   7.808
18560SOL     OW57576   8.337  14.698   0.468
18560SOL    HW157577   8.269  14.646   0.511
18560SOL    HW257578   8.391  14.634   0.422
18561SOL     OW57579  12.993   7.449   8.708
18561SOL    HW157580  12.898   7.447   8.697
18561SOL    HW257581  13.017   7.358   8.726
18562SOL     OW57582   0.657   8.391   2.044
18562SOL    HW157583   0.702   8.377   1.961
18562SOL    HW257584   0.577   8.338   2.037
18563SOL     OW57585   1.190  12.334   2.149
18563SOL    HW157586   1.187  12.344   2.054
18563SOL    HW257587   1.105  12.365   2.180
18564SOL     OW57588  13.896   3.791   1.996
18564SOL    HW157589  13.850   3.860   1.949
18564SOL    HW257590  13.889   3.714   1.940
18565SOL     OW57591   3.119   9.619   7.056
18565SOL    HW157592   3.091   9.580   7.138
18565SOL    HW257593   3.102   9.552   6.990
18566SOL     OW57594  11.980  12.416   3.839
18566SOL    HW157595  11.980  12.326   3.872
18566SOL    HW257596  12.070  12.431   3.810
18567SOL     OW57597  13.380   0.775  11.783
18567SOL    HW157598  13.315   0.768  11.714
18567SOL    HW257599  13.398   0.685  11.810
18568SOL     OW57600   5.323  12.372   2.956
18568SOL    HW157601   5.305  12.461   2.926
18568SOL    HW257602   5.321  12.378   3.052
18569SOL     OW57603   9.913   4.098   2.939
18569SOL    HW157604   9.863   4.017   2.950
18569SOL    HW257605   9.851   4.159   2.900
18570SOL     OW57606  12.385   2.082  12.693
18570SOL    HW157607  12.309   2.130  12.660
18570SOL    HW257608  12.447   2.150  12.721
18571SOL     OW57609  13.668   5.087   1.382
18571SOL    HW157610  13.626   5.010   1.343
18571SOL    HW257611  13.625   5.162   1.341
18572SOL     OW57612   1.398   0.169  14.074
18572SOL    HW157613   1.441   0.222  14.142
18572SOL    HW257614   1.387   0.229  14.000
18573SOL     OW57615   5.487  13.772   7.428
18573SOL    HW157616   5.501  13.834   7.499
18573SOL    HW257617   5.392  13.764   7.420
18574SOL     OW57618   0.777   4.064   4.202
18574SOL    HW157619   0.723   4.015   4.264
18574SOL    HW257620   0.743   4.153   4.206
18575SOL     OW57621  11.291   7.594   4.478
18575SOL    HW157622  11.251   7.532   4.417
18575SOL    HW257623  11.232   7.669   4.478
18576SOL     OW57624  11.059   1.694   6.416
18576SOL    HW157625  11.008   1.690   6.335
18576SOL    HW257626  11.006   1.648   6.481
18577SOL     OW57627  13.126   8.894   6.653
18577SOL    HW157628  13.190   8.936   6.595
18577SOL    HW257629  13.045   8.942   6.638
18578SOL     OW57630   6.180   0.327   3.572
18578SOL    HW157631   6.166   0.418   3.595
18578SOL    HW257632   6.200   0.284   3.656
18579SOL     OW57633  12.502   2.393  14.519
18579SOL    HW157634  12.557   2.388  14.597
18579SOL    HW257635  12.542   2.461  14.466
18580SOL     OW57636   8.361   9.102   9.659
18580SOL    HW157637   8.378   9.104   9.565
18580SOL    HW257638   8.427   9.042   9.694
18581SOL     OW57639   5.702   0.990  12.258
18581SOL    HW157640   5.770   0.941  12.211
18581SOL    HW257641   5.713   0.963  12.350
18582SOL     OW57642   7.477  13.528   4.261
18582SOL    HW157643   7.407  13.581   4.224
18582SOL    HW257644   7.537  13.592   4.300
18583SOL     OW57645  14.654  11.248   0.861
18583SOL    HW157646  14.604  11.170   0.839
18583SOL    HW257647  14.588  11.316   0.878
18584SOL     OW57648   2.130  14.869  10.830
18584SOL    HW157649   2.102  14.790  10.785
18584SOL    HW257650   2.069   0.057  10.799
18585SOL     OW57651  11.605   3.838   1.829
18585SOL    HW157652  11.617   3.782   1.752
18585SOL    HW257653  11.592   3.925   1.792
18586SOL     OW57654   3.686   2.302   1.107
18586SOL    HW157655   3.693   2.220   1.058
18586SOL    HW257656   3.640   2.361   1.048
18587SOL     OW57657   1.305   3.378   2.909
18587SOL    HW157658   1.365   3.304   2.909
18587SOL    HW257659   1.320   3.421   2.825
18588SOL     OW57660  11.117  10.231  10.475
18588SOL    HW157661  11.166  10.200  10.551
18588SOL    HW257662  11.042  10.277  10.513
18589SOL     OW57663   2.623   9.965   5.409
18589SOL    HW157664   2.597  10.057   5.397
18589SOL    HW257665   2.541   9.919   5.426
18590SOL     OW57666  10.053   6.567  11.988
18590SOL    HW157667   9.994   6.597  11.919
18590SOL    HW257668   9.996   6.548  12.063
18591SOL     OW57669   5.896   8.012   8.876
18591SOL    HW157670   5.825   8.030   8.815
18591SOL    HW257671   5.886   7.919   8.899
18592SOL     OW57672   0.198   3.079   9.713
18592SOL    HW157673   0.249   2.999   9.702
18592SOL    HW257674   0.249   3.146   9.667
18593SOL     OW57675   0.154  11.705   1.792
18593SOL    HW157676   0.235  11.670   1.753
18593SOL    HW257677   0.086  11.683   1.729
18594SOL     OW57678   3.903   2.463   9.056
18594SOL    HW157679   3.867   2.414   9.131
18594SOL    HW257680   3.836   2.457   8.989
18595SOL     OW57681  11.640  10.975  13.569
18595SOL    HW157682  11.697  11.024  13.511
18595SOL    HW257683  11.647  10.884  13.538
18596SOL     OW57684  12.219   3.202   1.465
18596SOL    HW157685  12.232   3.194   1.370
18596SOL    HW257686  12.124   3.201   1.475
18597SOL     OW57687   2.821  14.739   7.279
18597SOL    HW157688   2.739  14.786   7.293
18597SOL    HW257689   2.887  14.793   7.322
18598SOL     OW57690  12.318  12.508   5.415
18598SOL    HW157691  12.339  12.468   5.500
18598SOL    HW257692  12.363  12.452   5.351
18599SOL     OW57693   1.507   4.595  10.387
18599SOL    HW157694   1.579   4.570  10.329
18599SOL    HW257695   1.428   4.579  10.336
18600SOL     OW57696   2.499   9.742  12.858
18600SOL    HW157697   2.498   9.684  12.782
18600SOL    HW257698   2.493   9.682  12.933
18601SOL     OW57699   9.470  13.744   3.577
18601SOL    HW157700   9.553  13.748   3.624
18601SOL    HW257701   9.490  13.781   3.491
18602SOL     OW57702   6.698   6.729  11.981
18602SOL    HW157703   6.661   6.719  11.893
18602SOL    HW257704   6.649   6.802  12.019
18603SOL     OW57705   8.496   3.468  12.514
18603SOL    HW157706   8.428   3.439  12.453
18603SOL    HW257707   8.479   3.561  12.528
18604SOL     OW57708  10.675   4.153  10.818
18604SOL    HW157709  10.736   4.127  10.887
18604SOL    HW257710  10.593   4.173  10.864
18605SOL     OW57711   6.170  13.151   1.493
18605SOL    HW157712   6.166  13.083   1.426
18605SOL    HW257713   6.206  13.107   1.570
18606SOL     OW57714   9.707   6.621  13.066
18606SOL    HW157715   9.744   6.653  12.984
18606SOL    HW257716   9.758   6.664  13.135
18607SOL     OW57717  14.458   4.402   9.802
18607SOL    HW157718  14.393   4.356   9.855
18607SOL    HW257719  14.407   4.468   9.755
18608SOL     OW57720  12.531  12.580  11.591
18608SOL    HW157721  12.540  12.541  11.679
18608SOL    HW257722  12.483  12.514  11.541
18609SOL     OW57723   5.454  14.667   6.021
18609SOL    HW157724   5.401  14.730   6.070
18609SOL    HW257725   5.421  14.581   6.049
18610SOL     OW57726   1.578  11.929   6.459
18610SOL    HW157727   1.547  11.976   6.537
18610SOL    HW257728   1.593  11.840   6.490
18611SOL     OW57729  14.014   6.899   6.051
18611SOL    HW157730  14.035   6.993   6.053
18611SOL    HW257731  13.918   6.897   6.050
18612SOL     OW57732  12.852  12.752   4.452
18612SOL    HW157733  12.902  12.804   4.515
18612SOL    HW257734  12.795  12.696   4.505
18613SOL     OW57735  14.741   9.308  11.340
18613SOL    HW157736  14.749   9.373  11.410
18613SOL    HW257737  14.827   9.265  11.336
18614SOL     OW57738   5.233  14.467   0.907
18614SOL    HW157739   5.266  14.550   0.941
18614SOL    HW257740   5.199  14.489   0.820
18615SOL     OW57741   2.732   5.707   7.573
18615SOL    HW157742   2.733   5.611   7.573
18615SOL    HW257743   2.642   5.730   7.549
18616SOL     OW57744   9.611   7.452   3.322
18616SOL    HW157745   9.549   7.417   3.257
18616SOL    HW257746   9.691   7.466   3.273
18617SOL     OW57747   8.115   5.968   2.741
18617SOL    HW157748   8.048   5.997   2.803
18617SOL    HW257749   8.143   5.883   2.775
18618SOL     OW57750   1.317  12.944   4.479
18618SOL    HW157751   1.340  12.943   4.572
18618SOL    HW257752   1.326  13.035   4.453
18619SOL     OW57753   9.941   1.481   0.864
18619SOL    HW157754   9.933   1.474   0.768
18619SOL    HW257755   9.850   1.490   0.894
18620SOL     OW57756  11.726   9.525  12.176
18620SOL    HW157757  11.729   9.602  12.120
18620SOL    HW257758  11.740   9.559  12.264
18621SOL     OW57759  10.302  12.522   3.099
18621SOL    HW157760  10.265  12.608   3.079
18621SOL    HW257761  10.258  12.495   3.179
18622SOL     OW57762   7.273   5.343  11.817
18622SOL    HW157763   7.346   5.315  11.873
18622SOL    HW257764   7.226   5.262  11.797
18623SOL     OW57765   4.301  12.526   7.501
18623SOL    HW157766   4.320  12.598   7.441
18623SOL    HW257767   4.375  12.467   7.493
18624SOL     OW57768   1.227  10.958   4.935
18624SOL    HW157769   1.254  10.957   5.026
18624SOL    HW257770   1.142  11.001   4.935
18625SOL     OW57771  12.931  12.919   1.634
18625SOL    HW157772  12.999  12.939   1.570
18625SOL    HW257773  12.977  12.877   1.706
18626SOL     OW57774   4.402   2.113   0.467
18626SOL    HW157775   4.328   2.053   0.454
18626SOL    HW257776   4.404   2.165   0.386
18627SOL     OW57777   7.879   9.262   4.248
18627SOL    HW157778   7.967   9.270   4.210
18627SOL    HW257779   7.875   9.172   4.279
18628SOL     OW57780  10.789   1.546   1.404
18628SOL    HW157781  10.768   1.582   1.490
18628SOL    HW257782  10.716   1.487   1.384
18629SOL     OW57783  10.709   0.009  11.542
18629SOL    HW157784  10.709  14.818  11.479
18629SOL    HW257785  10.748   0.083  11.496
18630SOL     OW57786   7.414   4.174  11.319
18630SOL    HW157787   7.493   4.122  11.304
18630SOL    HW257788   7.445   4.265  11.318
18631SOL     OW57789   9.103   1.783   5.617
18631SOL    HW157790   9.017   1.766   5.656
18631SOL    HW257791   9.087   1.853   5.554
18632SOL     OW57792  13.243   7.858   4.552
18632SOL    HW157793  13.154   7.883   4.577
18632SOL    HW257794  13.234   7.818   4.466
18633SOL     OW57795   7.814   7.641   7.904
18633SOL    HW157796   7.773   7.575   7.848
18633SOL    HW257797   7.817   7.720   7.850
18634SOL     OW57798  14.144  14.351   6.250
18634SOL    HW157799  14.078  14.417   6.270
18634SOL    HW257800  14.203  14.393   6.188
18635SOL     OW57801   2.630   3.736  12.001
18635SOL    HW157802   2.718   3.774  12.012
18635SOL    HW257803   2.571   3.799  12.041
18636SOL     OW57804   6.463  10.757   3.904
18636SOL    HW157805   6.552  10.726   3.890
18636SOL    HW257806   6.469  10.816   3.979
18637SOL     OW57807   6.211   3.445   0.576
18637SOL    HW157808   6.188   3.353   0.588
18637SOL    HW257809   6.306   3.446   0.572
18638SOL     OW57810   6.050   8.931  11.955
18638SOL    HW157811   6.092   8.846  11.950
18638SOL    HW257812   5.960   8.916  11.928
18639SOL     OW57813   7.964   4.816   0.385
18639SOL    HW157814   7.921   4.731   0.396
18639SOL    HW257815   8.046   4.808   0.433
18640SOL     OW57816  14.590  11.962  12.972
18640SOL    HW157817  14.531  11.897  12.934
18640SOL    HW257818  14.607  11.931  13.061
18641SOL     OW57819  10.656  11.620   4.551
18641SOL    HW157820  10.667  11.709   4.585
18641SOL    HW257821  10.716  11.568   4.604
18642SOL     OW57822   5.533   9.798   5.344
18642SOL    HW157823   5.484   9.838   5.272
18642SOL    HW257824   5.528   9.862   5.415
18643SOL     OW57825  11.011   9.739   3.258
18643SOL    HW157826  11.026   9.691   3.177
18643SOL    HW257827  11.068   9.816   3.252
18644SOL     OW57828   3.119   2.027  10.380
18644SOL    HW157829   3.070   1.946  10.368
18644SOL    HW257830   3.055   2.097  10.365
18645SOL     OW57831  12.875   7.670   3.741
18645SOL    HW157832  12.878   7.719   3.658
18645SOL    HW257833  12.945   7.709   3.793
18646SOL     OW57834  12.344  12.495   6.002
18646SOL    HW157835  12.370  12.404   6.012
18646SOL    HW257836  12.425  12.542   5.982
18647SOL     OW57837   5.046   5.114  12.760
18647SOL    HW157838   5.050   5.090  12.667
18647SOL    HW257839   4.981   5.054  12.797
18648SOL     OW57840   2.164   9.240  10.998
18648SOL    HW157841   2.174   9.292  10.918
18648SOL    HW257842   2.134   9.303  11.064
18649SOL     OW57843   7.366   5.776   1.955
18649SOL    HW157844   7.359   5.694   2.003
18649SOL    HW257845   7.291   5.776   1.896
18650SOL     OW57846   4.951   3.812   7.895
18650SOL    HW157847   4.967   3.791   7.802
18650SOL    HW257848   4.961   3.728   7.940
18651SOL     OW57849   1.539   9.172  11.235
18651SOL    HW157850   1.626   9.143  11.205
18651SOL    HW257851   1.488   9.180  11.155
18652SOL     OW57852   6.797   5.029  10.042
18652SOL    HW157853   6.742   5.103  10.015
18652SOL    HW257854   6.887   5.061  10.032
18653SOL     OW57855   7.091   3.766  11.273
18653SOL    HW157856   7.038   3.690  11.251
18653SOL    HW257857   7.165   3.763  11.212
18654SOL     OW57858   9.108  10.572  10.103
18654SOL    HW157859   9.172  10.638  10.074
18654SOL    HW257860   9.024  10.605  10.072
18655SOL     OW57861  10.902   9.735   7.773
18655SOL    HW157862  10.951   9.816   7.756
18655SOL    HW257863  10.880   9.701   7.687
18656SOL     OW57864   5.702   1.119   8.100
18656SOL    HW157865   5.639   1.049   8.115
18656SOL    HW257866   5.784   1.087   8.136
18657SOL     OW57867   6.310   7.113   2.507
18657SOL    HW157868   6.369   7.186   2.487
18657SOL    HW257869   6.290   7.123   2.600
18658SOL     OW57870  13.909   5.359   1.570
18658SOL    HW157871  13.840   5.332   1.630
18658SOL    HW257872  13.963   5.281   1.558
18659SOL     OW57873   3.218   9.165  11.192
18659SOL    HW157874   3.243   9.074  11.172
18659SOL    HW257875   3.180   9.198  11.111
18660SOL     OW57876   9.016  14.529   1.024
18660SOL    HW157877   8.958  14.501   0.953
18660SOL    HW257878   8.957  14.545   1.098
18661SOL     OW57879   6.508   6.447   3.151
18661SOL    HW157880   6.510   6.495   3.233
18661SOL    HW257881   6.514   6.355   3.177
18662SOL     OW57882  14.396   8.683   6.800
18662SOL    HW157883  14.330   8.747   6.828
18662SOL    HW257884  14.445   8.728   6.732
18663SOL     OW57885   4.326  14.313  14.779
18663SOL    HW157886   4.234  14.287  14.770
18663SOL    HW257887   4.334  14.347  14.868
18664SOL     OW57888   1.668   8.398   8.554
18664SOL    HW157889   1.608   8.327   8.530
18664SOL    HW257890   1.616   8.456   8.608
18665SOL     OW57891  14.744  11.378  12.722
18665SOL    HW157892  14.672  11.350  12.778
18665SOL    HW257893  14.729  11.471  12.709
18666SOL     OW57894  13.124   0.491  12.351
18666SOL    HW157895  13.039   0.484  12.308
18666SOL    HW257896  13.146   0.402  12.376
18667SOL     OW57897   3.431   6.456   9.042
18667SOL    HW157898   3.483   6.535   9.060
18667SOL    HW257899   3.432   6.407   9.124
18668SOL     OW57900  10.229  12.876   6.799
18668SOL    HW157901  10.204  12.924   6.878
18668SOL    HW257902  10.315  12.839   6.820
18669SOL     OW57903   5.095  13.777   8.330
18669SOL    HW157904   5.036  13.765   8.256
18669SOL    HW257905   5.082  13.698   8.384
18670SOL     OW57906   3.117   3.065  11.334
18670SOL    HW157907   3.081   3.074  11.245
18670SOL    HW257908   3.053   3.108  11.390
18671SOL     OW57909   2.696  12.024   4.146
18671SOL    HW157910   2.729  12.038   4.234
18671SOL    HW257911   2.623  12.085   4.138
18672SOL     OW57912   1.696   5.344   2.238
18672SOL    HW157913   1.684   5.437   2.257
18672SOL    HW257914   1.691   5.301   2.323
18673SOL     OW57915   4.899  13.769   6.779
18673SOL    HW157916   4.855  13.819   6.848
18673SOL    HW257917   4.949  13.835   6.730
18674SOL     OW57918   0.923  11.421   6.444
18674SOL    HW157919   0.865  11.496   6.433
18674SOL    HW257920   0.872  11.358   6.494
18675SOL     OW57921   9.951  10.797  10.953
18675SOL    HW157922   9.899  10.840  11.021
18675SOL    HW257923   9.947  10.858  10.878
18676SOL     OW57924  10.770   8.756   0.181
18676SOL    HW157925  10.790   8.831   0.126
18676SOL    HW257926  10.852   8.707   0.188
18677SOL     OW57927  12.131   1.251   1.880
18677SOL    HW157928  12.185   1.178   1.850
18677SOL    HW257929  12.058   1.254   1.819
18678SOL     OW57930   3.297  13.193   4.478
18678SOL    HW157931   3.356  13.267   4.464
18678SOL    HW257932   3.277  13.161   4.390
18679SOL     OW57933   1.300   0.565  12.236
18679SOL    HW157934   1.387   0.533  12.212
18679SOL    HW257935   1.312   0.658  12.252
18680SOL     OW57936  13.646  12.601   2.432
18680SOL    HW157937  13.553  12.585   2.448
18680SOL    HW257938  13.656  12.598   2.337
18681SOL     OW57939   1.479   2.944   5.430
18681SOL    HW157940   1.440   2.922   5.346
18681SOL    HW257941   1.417   2.912   5.495
18682SOL     OW57942  13.531   2.409   0.942
18682SOL    HW157943  13.447   2.422   0.986
18682SOL    HW257944  13.591   2.382   1.012
18683SOL     OW57945  14.151   7.893   3.264
18683SOL    HW157946  14.234   7.848   3.246
18683SOL    HW257947  14.173   7.959   3.329
18684SOL     OW57948   2.737   1.576   8.902
18684SOL    HW157949   2.815   1.521   8.897
18684SOL    HW257950   2.733   1.619   8.816
18685SOL     OW57951   4.907  13.361   9.998
18685SOL    HW157952   4.932  13.422   9.928
18685SOL    HW257953   4.871  13.285   9.951
18686SOL     OW57954  12.733   8.116   3.945
18686SOL    HW157955  12.732   8.051   3.875
18686SOL    HW257956  12.646   8.112   3.984
18687SOL     OW57957   6.011  13.114   4.995
18687SOL    HW157958   6.078  13.155   4.940
18687SOL    HW257959   6.005  13.024   4.963
18688SOL     OW57960   6.943   8.886   5.328
18688SOL    HW157961   7.015   8.896   5.265
18688SOL    HW257962   6.972   8.816   5.386
18689SOL     OW57963   1.093  12.736   6.566
18689SOL    HW157964   1.174  12.725   6.615
18689SOL    HW257965   1.024  12.705   6.625
18690SOL     OW57966   4.319   3.067  10.483
18690SOL    HW157967   4.236   3.026  10.460
18690SOL    HW257968   4.350   3.018  10.559
18691SOL     OW57969   2.091   9.727  11.662
18691SOL    HW157970   2.020   9.790  11.676
18691SOL    HW257971   2.106   9.689  11.748
18692SOL     OW57972   5.410   9.798   6.542
18692SOL    HW157973   5.427   9.792   6.448
18692SOL    HW257974   5.436   9.887   6.565
18693SOL     OW57975  13.704   4.739  11.838
18693SOL    HW157976  13.663   4.656  11.813
18693SOL    HW257977  13.787   4.714  11.879
18694SOL     OW57978   2.244  14.196   3.939
18694SOL    HW157979   2.210  14.180   3.851
18694SOL    HW257980   2.251  14.109   3.978
18695SOL     OW57981   0.799  11.293   4.457
18695SOL    HW157982   0.772  11.384   4.470
18695SOL    HW257983   0.877  11.284   4.511
18696SOL     OW57984   1.975   1.285   9.741
18696SOL    HW157985   1.968   1.207   9.687
18696SOL    HW257986   1.915   1.269   9.815
18697SOL     OW57987   1.884   5.942   8.702
18697SOL    HW157988   1.816   5.877   8.723
18697SOL    HW257989   1.907   5.980   8.786
18698SOL     OW57990   9.908  11.726  10.884
18698SOL    HW157991   9.828  11.734  10.936
18698SOL    HW257992   9.882  11.751  10.795
18699SOL     OW57993  14.208   5.171  11.242
18699SOL    HW157994  14.260   5.108  11.291
18699SOL    HW257995  14.118   5.137  11.247
18700SOL     OW57996   8.329   9.500   9.118
18700SOL    HW157997   8.389   9.425   9.119
18700SOL    HW257998   8.330   9.532   9.209
18701SOL     OW57999   3.178   8.339  13.405
18701SOL    HW158000   3.193   8.248  13.431
18701SOL    HW258001   3.250   8.387  13.445
18702SOL     OW58002   5.752   8.059  13.627
18702SOL    HW158003   5.721   7.990  13.568
18702SOL    HW258004   5.830   8.095  13.583
18703SOL     OW58005   2.832   6.311  12.929
18703SOL    HW158006   2.794   6.223  12.924
18703SOL    HW258007   2.895   6.306  13.001
18704SOL     OW58008   1.858   5.926  13.771
18704SOL    HW158009   1.925   5.994  13.764
18704SOL    HW258010   1.798   5.944  13.698
18705SOL     OW58011   8.328  12.126   3.897
18705SOL    HW158012   8.420  12.135   3.924
18705SOL    HW258013   8.333  12.098   3.805
18706SOL     OW58014   1.072  11.642  11.463
18706SOL    HW158015   1.108  11.607  11.545
18706SOL    HW258016   1.080  11.570  11.401
18707SOL     OW58017   7.950  12.585   5.662
18707SOL    HW158018   8.018  12.647   5.686
18707SOL    HW258019   7.882  12.639   5.621
18708SOL     OW58020   4.530  13.284   9.235
18708SOL    HW158021   4.594  13.297   9.305
18708SOL    HW258022   4.482  13.367   9.232
18709SOL     OW58023  14.531   9.001  12.123
18709SOL    HW158024  14.459   9.012  12.062
18709SOL    HW258025  14.604   9.048  12.083
18710SOL     OW58026  12.257   9.691  10.009
18710SOL    HW158027  12.191   9.689  10.078
18710SOL    HW258028  12.208   9.672   9.929
18711SOL     OW58029   0.976   6.782  14.797
18711SOL    HW158030   1.064   6.770  14.762
18711SOL    HW258031   0.918   6.772  14.722
18712SOL     OW58032  12.728   3.841   5.582
18712SOL    HW158033  12.640   3.819   5.554
18712SOL    HW258034  12.785   3.784   5.530
18713SOL     OW58035   1.127   4.188   8.837
18713SOL    HW158036   1.044   4.176   8.792
18713SOL    HW258037   1.116   4.143   8.921
18714SOL     OW58038  14.015   2.691  13.069
18714SOL    HW158039  14.042   2.783  13.075
18714SOL    HW258040  13.944   2.690  13.005
18715SOL     OW58041   3.914   3.672   5.609
18715SOL    HW158042   3.907   3.580   5.583
18715SOL    HW258043   3.995   3.676   5.660
18716SOL     OW58044   0.292   6.909   6.501
18716SOL    HW158045   0.362   6.941   6.445
18716SOL    HW258046   0.311   6.815   6.511
18717SOL     OW58047   9.156   2.007   3.587
18717SOL    HW158048   9.220   1.947   3.549
18717SOL    HW258049   9.087   2.014   3.520
18718SOL     OW58050   7.660   7.057  12.299
18718SOL    HW158051   7.697   7.082  12.383
18718SOL    HW258052   7.735   7.022  12.250
18719SOL     OW58053   5.144   0.073   1.167
18719SOL    HW158054   5.162   0.100   1.077
18719SOL    HW258055   5.100  14.868   1.158
18720SOL     OW58056   1.246   0.549   1.816
18720SOL    HW158057   1.159   0.528   1.780
18720SOL    HW258058   1.229   0.617   1.881
18721SOL     OW58059  10.298   2.586  13.041
18721SOL    HW158060  10.260   2.628  13.118
18721SOL    HW258061  10.351   2.514  13.076
18722SOL     OW58062   4.074   4.228   4.926
18722SOL    HW158063   4.167   4.207   4.916
18722SOL    HW258064   4.042   4.237   4.836
18723SOL     OW58065   6.301   3.271   4.190
18723SOL    HW158066   6.214   3.230   4.190
18723SOL    HW258067   6.291   3.348   4.134
18724SOL     OW58068  12.972   6.083   4.661
18724SOL    HW158069  12.995   6.006   4.609
18724SOL    HW258070  13.048   6.099   4.717
18725SOL     OW58071  10.118  10.552   0.385
18725SOL    HW158072  10.031  10.587   0.366
18725SOL    HW258073  10.101  10.471   0.433
18726SOL     OW58074  13.612   4.413  12.448
18726SOL    HW158075  13.690   4.407  12.502
18726SOL    HW258076  13.618   4.337  12.389
18727SOL     OW58077  10.819  11.459   4.999
18727SOL    HW158078  10.772  11.542   5.004
18727SOL    HW258079  10.798  11.414   5.080
18728SOL     OW58080   0.259   9.011   3.255
18728SOL    HW158081   0.223   9.000   3.167
18728SOL    HW258082   0.211   9.086   3.291
18729SOL     OW58083   8.796  13.927  14.272
18729SOL    HW158084   8.834  13.848  14.310
18729SOL    HW258085   8.858  13.997  14.293
18730SOL     OW58086   1.246   0.399   6.380
18730SOL    HW158087   1.308   0.364   6.317
18730SOL    HW258088   1.209   0.322   6.424
18731SOL     OW58089   9.710   7.974  12.398
18731SOL    HW158090   9.692   7.988  12.305
18731SOL    HW258091   9.627   7.942  12.435
18732SOL     OW58092   6.338   6.342   2.172
18732SOL    HW158093   6.287   6.267   2.202
18732SOL    HW258094   6.371   6.382   2.253
18733SOL     OW58095   0.232  13.330  13.289
18733SOL    HW158096   0.196  13.301  13.372
18733SOL    HW258097   0.327  13.317  13.299
18734SOL     OW58098  12.892   6.165   9.483
18734SOL    HW158099  12.933   6.081   9.504
18734SOL    HW258100  12.803   6.142   9.458
18735SOL     OW58101   0.682   3.907   0.587
18735SOL    HW158102   0.746   3.903   0.658
18735SOL    HW258103   0.733   3.896   0.507
18736SOL     OW58104  10.323   2.405  13.363
18736SOL    HW158105  10.311   2.388  13.456
18736SOL    HW258106  10.234   2.412  13.328
18737SOL     OW58107   3.865   2.330  12.045
18737SOL    HW158108   3.906   2.378  12.116
18737SOL    HW258109   3.846   2.244  12.082
18738SOL     OW58110   2.915   0.859  14.151
18738SOL    HW158111   3.010   0.857  14.153
18738SOL    HW258112   2.892   0.951  14.164
18739SOL     OW58113   3.286   5.003  13.568
18739SOL    HW158114   3.350   4.972  13.504
18739SOL    HW258115   3.329   5.077  13.612
18740SOL     OW58116   4.588  11.010   3.386
18740SOL    HW158117   4.556  11.001   3.296
18740SOL    HW258118   4.544  11.088   3.419
18741SOL     OW58119   9.276   1.717   8.712
18741SOL    HW158120   9.266   1.727   8.807
18741SOL    HW258121   9.370   1.701   8.700
18742SOL     OW58122   6.641   8.291   3.890
18742SOL    HW158123   6.686   8.217   3.849
18742SOL    HW258124   6.679   8.368   3.848
18743SOL     OW58125   6.431   1.374   6.637
18743SOL    HW158126   6.456   1.448   6.582
18743SOL    HW258127   6.370   1.411   6.701
18744SOL     OW58128   0.153  11.495   2.795
18744SOL    HW158129   0.202  11.559   2.847
18744SOL    HW258130   0.186  11.410   2.824
18745SOL     OW58131   9.396  13.370   9.602
18745SOL    HW158132   9.375  13.353   9.694
18745SOL    HW258133   9.468  13.433   9.605
18746SOL     OW58134   4.334  13.189  12.115
18746SOL    HW158135   4.400  13.258  12.111
18746SOL    HW258136   4.378  13.116  12.159
18747SOL     OW58137   7.156   4.596  12.171
18747SOL    HW158138   7.118   4.588  12.083
18747SOL    HW258139   7.081   4.599  12.230
18748SOL     OW58140   4.749  10.587   4.287
18748SOL    HW158141   4.757  10.678   4.258
18748SOL    HW258142   4.704  10.593   4.371
18749SOL     OW58143  11.038   5.506  14.644
18749SOL    HW158144  11.096   5.543  14.711
18749SOL    HW258145  11.039   5.412  14.663
18750SOL     OW58146  12.172   8.858   3.007
18750SOL    HW158147  12.262   8.842   3.035
18750SOL    HW258148  12.135   8.914   3.075
18751SOL     OW58149  12.184   4.372  11.667
18751SOL    HW158150  12.157   4.296  11.719
18751SOL    HW258151  12.123   4.441  11.691
18752SOL     OW58152   5.046  13.644  13.390
18752SOL    HW158153   4.975  13.593  13.429
18752SOL    HW258154   5.006  13.725  13.361
18753SOL     OW58155  10.095  13.036   0.812
18753SOL    HW158156  10.144  12.954   0.807
18753SOL    HW258157  10.021  13.024   0.752
18754SOL     OW58158  14.227  10.620   5.230
18754SOL    HW158159  14.202  10.573   5.151
18754SOL    HW258160  14.306  10.575   5.261
18755SOL     OW58161   8.443   3.904  12.329
18755SOL    HW158162   8.368   3.939  12.282
18755SOL    HW258163   8.513   3.902  12.264
18756SOL     OW58164   2.009   9.350   9.255
18756SOL    HW158165   1.945   9.281   9.239
18756SOL    HW258166   1.982   9.389   9.339
18757SOL     OW58167   3.886  12.372  13.930
18757SOL    HW158168   3.837  12.425  13.994
18757SOL    HW258169   3.891  12.427  13.852
18758SOL     OW58170   5.049   1.464   9.066
18758SOL    HW158171   5.140   1.433   9.065
18758SOL    HW258172   5.054   1.551   9.024
18759SOL     OW58173  11.451   9.797   3.271
18759SOL    HW158174  11.540   9.778   3.301
18759SOL    HW258175  11.443   9.749   3.188
18760SOL     OW58176   0.140   7.342   3.942
18760SOL    HW158177   0.140   7.249   3.967
18760SOL    HW258178   0.051   7.371   3.959
18761SOL     OW58179   2.468  13.117  13.978
18761SOL    HW158180   2.494  13.172  14.052
18761SOL    HW258181   2.515  13.154  13.903
18762SOL     OW58182  11.038   1.117   4.456
18762SOL    HW158183  11.064   1.145   4.544
18762SOL    HW258184  11.120   1.115   4.407
18763SOL     OW58185  13.831   4.868   5.512
18763SOL    HW158186  13.899   4.850   5.577
18763SOL    HW258187  13.764   4.917   5.560
18764SOL     OW58188   6.498   1.892   0.281
18764SOL    HW158189   6.533   1.978   0.258
18764SOL    HW258190   6.569   1.850   0.330
18765SOL     OW58191   1.938   5.587  13.493
18765SOL    HW158192   1.890   5.517  13.449
18765SOL    HW258193   1.871   5.646  13.527
18766SOL     OW58194  12.540   2.213  10.125
18766SOL    HW158195  12.599   2.268  10.176
18766SOL    HW258196  12.461   2.267  10.114
18767SOL     OW58197   3.782   9.046   4.543
18767SOL    HW158198   3.757   8.994   4.467
18767SOL    HW258199   3.725   9.124   4.538
18768SOL     OW58200   1.852  14.706   3.911
18768SOL    HW158201   1.864  14.713   3.816
18768SOL    HW258202   1.936  14.673   3.944
18769SOL     OW58203  10.066   4.913   1.546
18769SOL    HW158204  10.015   4.851   1.493
18769SOL    HW258205  10.034   4.999   1.519
18770SOL     OW58206  13.340  11.812  12.329
18770SOL    HW158207  13.303  11.724  12.332
18770SOL    HW258208  13.328  11.845  12.418
18771SOL     OW58209   6.036  14.303   9.556
18771SOL    HW158210   6.114  14.306   9.612
18771SOL    HW258211   6.055  14.235   9.492
18772SOL     OW58212   1.391   2.114   5.253
18772SOL    HW158213   1.330   2.041   5.263
18772SOL    HW258214   1.347   2.189   5.293
18773SOL     OW58215   1.509   6.782   6.201
18773SOL    HW158216   1.567   6.829   6.261
18773SOL    HW258217   1.440   6.746   6.257
18774SOL     OW58218  13.451   9.336   3.588
18774SOL    HW158219  13.525   9.298   3.542
18774SOL    HW258220  13.480   9.345   3.679
18775SOL     OW58221   8.485  10.348  10.927
18775SOL    HW158222   8.437  10.404  10.866
18775SOL    HW258223   8.445  10.365  11.012
18776SOL     OW58224   3.774  11.045  13.736
18776SOL    HW158225   3.757  11.001  13.820
18776SOL    HW258226   3.828  11.120  13.759
18777SOL     OW58227   9.644   3.830  12.203
18777SOL    HW158228   9.695   3.777  12.264
18777SOL    HW258229   9.553   3.804  12.218
18778SOL     OW58230  14.476   3.501   4.154
18778SOL    HW158231  14.494   3.475   4.244
18778SOL    HW258232  14.519   3.586   4.144
18779SOL     OW58233   5.577   4.703   3.381
18779SOL    HW158234   5.576   4.639   3.452
18779SOL    HW258235   5.608   4.784   3.421
18780SOL     OW58236   1.699   6.942   5.508
18780SOL    HW158237   1.653   6.882   5.450
18780SOL    HW258238   1.680   6.910   5.596
18781SOL     OW58239  12.114  11.814  13.176
18781SOL    HW158240  12.183  11.825  13.242
18781SOL    HW258241  12.102  11.902  13.140
18782SOL     OW58242  14.387  13.768  11.462
18782SOL    HW158243  14.453  13.807  11.405
18782SOL    HW258244  14.396  13.674  11.449
18783SOL     OW58245   6.519   9.127   9.515
18783SOL    HW158246   6.553   9.153   9.430
18783SOL    HW258247   6.554   9.193   9.576
18784SOL     OW58248   2.325   9.123  10.285
18784SOL    HW158249   2.410   9.150  10.320
18784SOL    HW258250   2.338   9.120  10.190
18785SOL     OW58251   1.952  13.349  11.008
18785SOL    HW158252   1.982  13.261  11.029
18785SOL    HW258253   1.983  13.364  10.918
18786SOL     OW58254  11.607  13.080   8.184
18786SOL    HW158255  11.616  13.070   8.279
18786SOL    HW258256  11.695  13.101   8.154
18787SOL     OW58257  14.467   7.880   3.271
18787SOL    HW158258  14.466   7.974   3.253
18787SOL    HW258259  14.465   7.839   3.184
18788SOL     OW58260   1.638   7.353   5.376
18788SOL    HW158261   1.681   7.334   5.459
18788SOL    HW258262   1.689   7.305   5.311
18789SOL     OW58263   4.318  10.074  13.864
18789SOL    HW158264   4.257  10.092  13.793
18789SOL    HW258265   4.404  10.099  13.830
18790SOL     OW58266  10.137   2.375  12.125
18790SOL    HW158267  10.206   2.333  12.073
18790SOL    HW258268  10.169   2.372  12.215
18791SOL     OW58269  12.431   1.323  10.987
18791SOL    HW158270  12.520   1.346  10.958
18791SOL    HW258271  12.430   1.346  11.080
18792SOL     OW58272   2.231   8.442   6.527
18792SOL    HW158273   2.228   8.534   6.554
18792SOL    HW258274   2.251   8.446   6.433
18793SOL     OW58275  14.060   5.623  10.042
18793SOL    HW158276  14.102   5.545  10.007
18793SOL    HW258277  14.031   5.671   9.965
18794SOL     OW58278  12.344  13.293   3.750
18794SOL    HW158279  12.275  13.237   3.715
18794SOL    HW258280  12.383  13.334   3.673
18795SOL     OW58281   5.336  14.102  10.244
18795SOL    HW158282   5.250  14.098  10.203
18795SOL    HW258283   5.332  14.037  10.314
18796SOL     OW58284  12.255  11.268   3.240
18796SOL    HW158285  12.243  11.361   3.261
18796SOL    HW258286  12.346  11.261   3.211
18797SOL     OW58287   8.870   1.972  14.115
18797SOL    HW158288   8.861   2.034  14.188
18797SOL    HW258289   8.884   1.887  14.158
18798SOL     OW58290   3.515   0.152  14.118
18798SOL    HW158291   3.432   0.188  14.088
18798SOL    HW258292   3.491   0.075  14.169
18799SOL     OW58293   3.580   3.423   6.833
18799SOL    HW158294   3.592   3.416   6.927
18799SOL    HW258295   3.649   3.369   6.795
18800SOL     OW58296  11.107   6.432   7.875
18800SOL    HW158297  11.119   6.526   7.864
18800SOL    HW258298  11.148   6.394   7.798
18801SOL     OW58299   5.501  12.645   0.869
18801SOL    HW158300   5.509  12.725   0.922
18801SOL    HW258301   5.414  12.653   0.828
18802SOL     OW58302   8.423   9.393   3.860
18802SOL    HW158303   8.386   9.382   3.948
18802SOL    HW258304   8.348   9.423   3.807
18803SOL     OW58305   8.161   2.109  13.591
18803SOL    HW158306   8.239   2.055  13.605
18803SOL    HW258307   8.118   2.070  13.515
18804SOL     OW58308   3.246  10.056   0.798
18804SOL    HW158309   3.201  10.136   0.772
18804SOL    HW258310   3.188  10.017   0.864
18805SOL     OW58311   6.288   7.873   0.794
18805SOL    HW158312   6.321   7.928   0.865
18805SOL    HW258313   6.365   7.826   0.762
18806SOL     OW58314   3.747   2.491   2.294
18806SOL    HW158315   3.696   2.571   2.301
18806SOL    HW258316   3.740   2.466   2.202
18807SOL     OW58317   6.268  14.330  14.346
18807SOL    HW158318   6.247  14.421  14.324
18807SOL    HW258319   6.314  14.297  14.269
18808SOL     OW58320  11.357   1.780   3.647
18808SOL    HW158321  11.417   1.853   3.632
18808SOL    HW258322  11.347   1.775   3.742
18809SOL     OW58323  10.681   1.332  10.992
18809SOL    HW158324  10.729   1.253  10.968
18809SOL    HW258325  10.680   1.331  11.087
18810SOL     OW58326   1.921   9.014   0.769
18810SOL    HW158327   1.956   9.103   0.774
18810SOL    HW258328   1.904   9.000   0.676
18811SOL     OW58329  14.793   2.581   5.033
18811SOL    HW158330  14.789   2.517   4.963
18811SOL    HW258331  14.703   2.610   5.044
18812SOL     OW58332   1.653  12.937   5.594
18812SOL    HW158333   1.597  12.993   5.649
18812SOL    HW258334   1.737  12.935   5.640
18813SOL     OW58335   7.434   8.245   8.002
18813SOL    HW158336   7.401   8.187   8.071
18813SOL    HW258337   7.385   8.219   7.924
18814SOL     OW58338   1.649   9.701   6.453
18814SOL    HW158339   1.562   9.734   6.476
18814SOL    HW258340   1.703   9.720   6.529
18815SOL     OW58341   2.665   6.965  10.863
18815SOL    HW158342   2.668   6.888  10.808
18815SOL    HW258343   2.625   7.033  10.809
18816SOL     OW58344   6.223   4.288  10.110
18816SOL    HW158345   6.246   4.222  10.046
18816SOL    HW258346   6.212   4.240  10.192
18817SOL     OW58347   6.025   6.503   4.686
18817SOL    HW158348   6.111   6.540   4.707
18817SOL    HW258349   6.039   6.452   4.606
18818SOL     OW58350   7.808   7.439  12.059
18818SOL    HW158351   7.856   7.357  12.070
18818SOL    HW258352   7.872   7.507  12.077
18819SOL     OW58353  10.321  14.689   1.434
18819SOL    HW158354  10.266  14.628   1.386
18819SOL    HW258355  10.270  14.770   1.438
18820SOL     OW58356   8.133   3.951   8.388
18820SOL    HW158357   8.174   3.865   8.394
18820SOL    HW258358   8.177   4.004   8.454
18821SOL     OW58359  14.321   6.399   9.917
18821SOL    HW158360  14.335   6.488   9.884
18821SOL    HW258361  14.236   6.373   9.883
18822SOL     OW58362   2.122  14.128   6.443
18822SOL    HW158363   2.178  14.055   6.417
18822SOL    HW258364   2.113  14.181   6.364
18823SOL     OW58365   9.576   7.829   0.034
18823SOL    HW158366   9.628   7.875  14.848
18823SOL    HW258367   9.582   7.737   0.009
18824SOL     OW58368  14.445   8.652  14.399
18824SOL    HW158369  14.457   8.562  14.430
18824SOL    HW258370  14.482   8.652  14.311
18825SOL     OW58371   0.493   1.496   5.614
18825SOL    HW158372   0.409   1.514   5.656
18825SOL    HW258373   0.472   1.432   5.546
18826SOL     OW58374   2.953   7.836  11.742
18826SOL    HW158375   3.006   7.821  11.665
18826SOL    HW258376   3.011   7.882  11.803
18827SOL     OW58377   2.314  11.953  14.817
18827SOL    HW158378   2.236  11.997  14.850
18827SOL    HW258379   2.383  11.977  14.878
18828SOL     OW58380  14.231   4.398  12.697
18828SOL    HW158381  14.197   4.339  12.631
18828SOL    HW258382  14.238   4.345  12.776
18829SOL     OW58383  10.625   5.600  10.661
18829SOL    HW158384  10.683   5.669  10.629
18829SOL    HW258385  10.545   5.609  10.609
18830SOL     OW58386   3.989   1.839   1.308
18830SOL    HW158387   3.940   1.813   1.386
18830SOL    HW258388   3.973   1.933   1.300
18831SOL     OW58389   4.424   2.223   1.562
18831SOL    HW158390   4.504   2.170   1.563
18831SOL    HW258391   4.354   2.161   1.543
18832SOL     OW58392  11.002  14.173  13.863
18832SOL    HW158393  11.029  14.123  13.939
18832SOL    HW258394  11.001  14.264  13.892
18833SOL     OW58395  12.061   1.192   5.898
18833SOL    HW158396  12.138   1.229   5.855
18833SOL    HW258397  12.052   1.105   5.860
18834SOL     OW58398   1.798   2.192  11.929
18834SOL    HW158399   1.860   2.123  11.908
18834SOL    HW258400   1.845   2.273  11.909
18835SOL     OW58401   0.499   7.518   7.762
18835SOL    HW158402   0.508   7.428   7.729
18835SOL    HW258403   0.457   7.565   7.690
18836SOL     OW58404  13.936   4.203   6.848
18836SOL    HW158405  13.928   4.121   6.896
18836SOL    HW258406  13.909   4.271   6.911
18837SOL     OW58407  10.867   4.961  13.398
18837SOL    HW158408  10.807   5.010  13.342
18837SOL    HW258409  10.839   4.982  13.487
18838SOL     OW58410  14.590  12.193   1.095
18838SOL    HW158411  14.555  12.260   1.037
18838SOL    HW258412  14.681  12.182   1.066
18839SOL     OW58413   3.871   5.602   3.267
18839SOL    HW158414   3.786   5.590   3.226
18839SOL    HW258415   3.869   5.692   3.300
18840SOL     OW58416   6.946   0.446   5.516
18840SOL    HW158417   7.016   0.451   5.451
18840SOL    HW258418   6.992   0.430   5.599
18841SOL     OW58419  13.772   8.286  13.041
18841SOL    HW158420  13.856   8.260  13.079
18841SOL    HW258421  13.714   8.212  13.059
18842SOL     OW58422  13.440   0.749   6.732
18842SOL    HW158423  13.357   0.713   6.701
18842SOL    HW258424  13.414   0.809   6.802
18843SOL     OW58425  13.359  13.964   5.849
18843SOL    HW158426  13.310  13.971   5.930
18843SOL    HW258427  13.449  13.946   5.876
18844SOL     OW58428   5.975   3.776  11.547
18844SOL    HW158429   6.009   3.696  11.505
18844SOL    HW258430   5.919   3.816  11.481
18845SOL     OW58431   9.792  13.958  14.411
18845SOL    HW158432   9.732  13.885  14.403
18845SOL    HW258433   9.841  13.940  14.491
18846SOL     OW58434  13.129   7.022   2.356
18846SOL    HW158435  13.125   7.011   2.451
18846SOL    HW258436  13.090   6.942   2.321
18847SOL     OW58437  11.855   3.174  10.593
18847SOL    HW158438  11.839   3.160  10.499
18847SOL    HW258439  11.804   3.106  10.637
18848SOL     OW58440   2.909   1.393  13.296
18848SOL    HW158441   2.938   1.342  13.371
18848SOL    HW258442   2.968   1.468  13.294
18849SOL     OW58443   0.905   2.029   8.136
18849SOL    HW158444   0.907   2.120   8.168
18849SOL    HW258445   0.869   1.979   8.209
18850SOL     OW58446   5.999  11.296   2.298
18850SOL    HW158447   5.992  11.220   2.356
18850SOL    HW258448   5.915  11.301   2.253
18851SOL     OW58449   3.773   8.804   3.251
18851SOL    HW158450   3.740   8.738   3.191
18851SOL    HW258451   3.849   8.842   3.206
18852SOL     OW58452   6.412  14.785   6.885
18852SOL    HW158453   6.403  14.702   6.933
18852SOL    HW258454   6.328  14.829   6.898
18853SOL     OW58455   8.135   3.864   5.134
18853SOL    HW158456   8.134   3.789   5.193
18853SOL    HW258457   8.129   3.940   5.192
18854SOL     OW58458   9.252   9.426   9.928
18854SOL    HW158459   9.175   9.478   9.905
18854SOL    HW258460   9.262   9.365   9.855
18855SOL     OW58461   5.930   4.674  12.173
18855SOL    HW158462   5.880   4.720  12.241
18855SOL    HW258463   5.864   4.627  12.123
18856SOL     OW58464   7.930   4.302   5.090
18856SOL    HW158465   7.913   4.260   5.175
18856SOL    HW258466   7.929   4.230   5.027
18857SOL     OW58467   1.575  11.138   7.931
18857SOL    HW158468   1.541  11.152   8.020
18857SOL    HW258469   1.670  11.148   7.940
18858SOL     OW58470   8.974  12.941   5.790
18858SOL    HW158471   9.055  12.971   5.831
18858SOL    HW258472   8.985  12.846   5.784
18859SOL     OW58473   6.288   1.002   2.981
18859SOL    HW158474   6.214   0.987   2.922
18859SOL    HW258475   6.252   1.053   3.054
18860SOL     OW58476   6.686   9.734   9.054
18860SOL    HW158477   6.609   9.686   9.084
18860SOL    HW258478   6.757   9.702   9.109
18861SOL     OW58479   5.024   2.604   5.011
18861SOL    HW158480   4.995   2.600   5.102
18861SOL    HW258481   5.007   2.515   4.978
18862SOL     OW58482   3.762  12.906   4.034
18862SOL    HW158483   3.741  12.989   3.991
18862SOL    HW258484   3.831  12.930   4.097
18863SOL     OW58485  10.194   3.159   4.602
18863SOL    HW158486  10.195   3.132   4.510
18863SOL    HW258487  10.130   3.230   4.604
18864SOL     OW58488  13.893   1.050  14.315
18864SOL    HW158489  13.864   1.097  14.237
18864SOL    HW258490  13.849   0.965  14.308
18865SOL     OW58491   6.399   5.731   0.207
18865SOL    HW158492   6.355   5.698   0.129
18865SOL    HW258493   6.335   5.790   0.248
18866SOL     OW58494   5.571  10.386  10.176
18866SOL    HW158495   5.607  10.322  10.238
18866SOL    HW258496   5.594  10.471  10.213
18867SOL     OW58497   6.884   8.022   6.445
18867SOL    HW158498   6.944   8.033   6.519
18867SOL    HW258499   6.869   7.927   6.440
18868SOL     OW58500  12.940   0.255  10.209
18868SOL    HW158501  12.865   0.197  10.222
18868SOL    HW258502  12.917   0.336  10.254
18869SOL     OW58503   5.280   8.251   6.907
18869SOL    HW158504   5.275   8.326   6.967
18869SOL    HW258505   5.347   8.195   6.945
18870SOL     OW58506   3.663  13.053   3.315
18870SOL    HW158507   3.715  13.133   3.323
18870SOL    HW258508   3.629  13.056   3.225
18871SOL     OW58509  14.008   3.268   3.011
18871SOL    HW158510  14.095   3.292   3.040
18871SOL    HW258511  13.950   3.298   3.081
18872SOL     OW58512   4.400   4.500  11.552
18872SOL    HW158513   4.495   4.495  11.558
18872SOL    HW258514   4.377   4.439  11.482
18873SOL     OW58515   0.043   9.941  14.574
18873SOL    HW158516   0.000   9.914  14.493
18873SOL    HW258517   0.045   9.861  14.627
18874SOL     OW58518   2.566  12.074   9.546
18874SOL    HW158519   2.532  12.069   9.457
18874SOL    HW258520   2.655  12.108   9.535
18875SOL     OW58521   6.618  11.768  14.232
18875SOL    HW158522   6.530  11.740  14.206
18875SOL    HW258523   6.609  11.861  14.251
18876SOL     OW58524   1.446   8.440  11.505
18876SOL    HW158525   1.482   8.526  11.528
18876SOL    HW258526   1.416   8.450  11.415
18877SOL     OW58527   1.038   3.664   4.783
18877SOL    HW158528   1.069   3.661   4.693
18877SOL    HW258529   0.972   3.733   4.784
18878SOL     OW58530  11.906   2.089  10.467
18878SOL    HW158531  11.830   2.133  10.430
18878SOL    HW258532  11.872   2.004  10.496
18879SOL     OW58533   0.649   6.803  10.797
18879SOL    HW158534   0.643   6.756  10.881
18879SOL    HW258535   0.635   6.735  10.731
18880SOL     OW58536   4.787  14.637   0.019
18880SOL    HW158537   4.881  14.631   0.035
18880SOL    HW258538   4.751  14.671   0.102
18881SOL     OW58539   7.658  12.692   6.331
18881SOL    HW158540   7.588  12.708   6.395
18881SOL    HW258541   7.616  12.705   6.246
18882SOL     OW58542   5.939  14.534   0.025
18882SOL    HW158543   5.925  14.547   0.119
18882SOL    HW258544   6.016  14.477   0.020
18883SOL     OW58545  12.993   4.945  13.310
18883SOL    HW158546  13.075   4.994  13.307
18883SOL    HW258547  12.964   4.952  13.401
18884SOL     OW58548   9.849   3.949  10.505
18884SOL    HW158549   9.854   3.877  10.443
18884SOL    HW258550   9.756   3.963  10.519
18885SOL     OW58551   9.536   6.261   7.619
18885SOL    HW158552   9.545   6.174   7.657
18885SOL    HW258553   9.607   6.312   7.658
18886SOL     OW58554   9.118   0.408   4.686
18886SOL    HW158555   9.120   0.353   4.608
18886SOL    HW258556   9.073   0.488   4.658
18887SOL     OW58557  11.053  10.002   0.115
18887SOL    HW158558  11.042  10.037   0.027
18887SOL    HW258559  11.074   9.909   0.102
18888SOL     OW58560  14.157  13.648  13.545
18888SOL    HW158561  14.206  13.568  13.561
18888SOL    HW258562  14.074  13.635  13.591
18889SOL     OW58563   8.359  14.561   4.222
18889SOL    HW158564   8.358  14.554   4.317
18889SOL    HW258565   8.388  14.475   4.192
18890SOL     OW58566  12.379   6.013  13.780
18890SOL    HW158567  12.426   5.932  13.800
18890SOL    HW258568  12.415   6.041  13.695
18891SOL     OW58569  11.202  11.249   1.311
18891SOL    HW158570  11.178  11.288   1.395
18891SOL    HW258571  11.153  11.167   1.308
18892SOL     OW58572   8.589   0.805   5.315
18892SOL    HW158573   8.675   0.809   5.358
18892SOL    HW258574   8.555   0.895   5.321
18893SOL     OW58575   8.671  13.065   1.185
18893SOL    HW158576   8.684  13.010   1.108
18893SOL    HW258577   8.736  13.135   1.176
18894SOL     OW58578   0.393   1.556   9.110
18894SOL    HW158579   0.425   1.480   9.158
18894SOL    HW258580   0.419   1.539   9.019
18895SOL     OW58581  14.546  14.017   7.248
18895SOL    HW158582  14.555  14.069   7.327
18895SOL    HW258583  14.465  14.048   7.208
18896SOL     OW58584   6.480  14.268   7.639
18896SOL    HW158585   6.499  14.202   7.573
18896SOL    HW258586   6.548  14.335   7.626
18897SOL     OW58587  11.936   0.636  14.780
18897SOL    HW158588  11.943   0.713  14.725
18897SOL    HW258589  11.876   0.578  14.733
18898SOL     OW58590   2.597   4.127   5.239
18898SOL    HW158591   2.654   4.051   5.226
18898SOL    HW258592   2.561   4.144   5.152
18899SOL     OW58593   9.206  10.991   7.593
18899SOL    HW158594   9.224  10.933   7.519
18899SOL    HW258595   9.293  11.010   7.629
18900SOL     OW58596   9.620   7.806  11.928
18900SOL    HW158597   9.623   7.849  11.843
18900SOL    HW258598   9.590   7.717  11.909
18901SOL     OW58599   4.881   7.769   2.217
18901SOL    HW158600   4.974   7.752   2.201
18901SOL    HW258601   4.841   7.766   2.130
18902SOL     OW58602   1.900   7.962   0.481
18902SOL    HW158603   1.833   8.029   0.497
18902SOL    HW258604   1.942   7.990   0.399
18903SOL     OW58605   9.434   4.652   0.877
18903SOL    HW158606   9.500   4.583   0.883
18903SOL    HW258607   9.356   4.608   0.844
18904SOL     OW58608  11.411   7.180   8.276
18904SOL    HW158609  11.346   7.111   8.263
18904SOL    HW258610  11.361   7.261   8.267
18905SOL     OW58611   0.154   0.055   8.550
18905SOL    HW158612   0.151   0.041   8.645
18905SOL    HW258613   0.164   0.149   8.539
18906SOL     OW58614   6.932  13.701   1.247
18906SOL    HW158615   6.909  13.745   1.165
18906SOL    HW258616   7.025  13.680   1.238
18907SOL     OW58617   7.242   2.986  13.898
18907SOL    HW158618   7.174   3.049  13.875
18907SOL    HW258619   7.258   3.002  13.992
18908SOL     OW58620   1.766  14.121   3.462
18908SOL    HW158621   1.684  14.081   3.490
18908SOL    HW258622   1.827  14.048   3.452
18909SOL     OW58623  11.043  10.657   0.671
18909SOL    HW158624  10.973  10.684   0.612
18909SOL    HW258625  11.111  10.724   0.659
18910SOL     OW58626   5.275   5.751   3.745
18910SOL    HW158627   5.325   5.670   3.751
18910SOL    HW258628   5.216   5.749   3.821
18911SOL     OW58629   7.803  14.045   4.997
18911SOL    HW158630   7.786  14.131   4.958
18911SOL    HW258631   7.818  14.064   5.090
18912SOL     OW58632   5.545   4.494  12.284
18912SOL    HW158633   5.468   4.439  12.271
18912SOL    HW258634   5.515   4.582  12.263
18913SOL     OW58635   0.203  14.095   7.624
18913SOL    HW158636   0.125  14.119   7.674
18913SOL    HW258637   0.175  14.099   7.533
18914SOL     OW58638   9.069   6.164   6.101
18914SOL    HW158639   9.081   6.079   6.143
18914SOL    HW258640   9.053   6.144   6.009
18915SOL     OW58641  13.618   1.909   3.128
18915SOL    HW158642  13.673   1.952   3.193
18915SOL    HW258643  13.623   1.966   3.051
18916SOL     OW58644   2.102  11.062   2.575
18916SOL    HW158645   2.017  11.095   2.603
18916SOL    HW258646   2.125  11.116   2.499
18917SOL     OW58647   3.769   2.592   5.932
18917SOL    HW158648   3.709   2.660   5.903
18917SOL    HW258649   3.783   2.610   6.025
18918SOL     OW58650   6.807  10.190   4.577
18918SOL    HW158651   6.791  10.270   4.627
18918SOL    HW258652   6.901  10.193   4.558
18919SOL     OW58653  12.845   7.567  14.838
18919SOL    HW158654  12.805   7.485  14.868
18919SOL    HW258655  12.934   7.564  14.873
18920SOL     OW58656  13.069  12.313  10.409
18920SOL    HW158657  13.018  12.285  10.485
18920SOL    HW258658  13.067  12.409  10.412
18921SOL     OW58659   3.625   9.576  14.199
18921SOL    HW158660   3.628   9.649  14.260
18921SOL    HW258661   3.618   9.498  14.254
18922SOL     OW58662  12.236   9.217   4.067
18922SOL    HW158663  12.307   9.268   4.106
18922SOL    HW258664  12.275   9.179   3.988
18923SOL     OW58665  13.715   5.371   9.214
18923SOL    HW158666  13.783   5.432   9.183
18923SOL    HW258667  13.633   5.415   9.194
18924SOL     OW58668   8.937  14.085  10.103
18924SOL    HW158669   8.890  14.106  10.184
18924SOL    HW258670   8.975  13.999  10.119
18925SOL     OW58671  13.588   5.906   1.751
18925SOL    HW158672  13.549   5.850   1.818
18925SOL    HW258673  13.619   5.845   1.684
18926SOL     OW58674   0.394   2.868  14.638
18926SOL    HW158675   0.440   2.923  14.574
18926SOL    HW258676   0.392   2.921  14.718
18927SOL     OW58677  13.091   2.496   6.621
18927SOL    HW158678  13.090   2.591   6.606
18927SOL    HW258679  13.177   2.480   6.659
18928SOL     OW58680   3.469   1.117   4.609
18928SOL    HW158681   3.548   1.085   4.654
18928SOL    HW258682   3.398   1.065   4.646
18929SOL     OW58683   1.006  11.207   8.632
18929SOL    HW158684   1.018  11.264   8.556
18929SOL    HW258685   1.076  11.143   8.625
18930SOL     OW58686   5.957   1.893   5.510
18930SOL    HW158687   5.923   1.869   5.424
18930SOL    HW258688   5.994   1.811   5.544
18931SOL     OW58689   2.975  10.317   9.436
18931SOL    HW158690   2.893  10.360   9.461
18931SOL    HW258691   2.954  10.270   9.355
18932SOL     OW58692  14.145  12.876   8.323
18932SOL    HW158693  14.088  12.803   8.299
18932SOL    HW258694  14.118  12.900   8.411
18933SOL     OW58695   1.100   3.396   5.210
18933SOL    HW158696   1.161   3.425   5.142
18933SOL    HW258697   1.129   3.307   5.232
18934SOL     OW58698   8.135   9.242   9.410
18934SOL    HW158699   8.054   9.293   9.412
18934SOL    HW258700   8.184   9.270   9.487
18935SOL     OW58701  12.404   1.439   6.201
18935SOL    HW158702  12.317   1.464   6.232
18935SOL    HW258703  12.431   1.510   6.143
18936SOL     OW58704   2.462  12.661   0.257
18936SOL    HW158705   2.502  12.594   0.312
18936SOL    HW258706   2.481  12.633   0.168
18937SOL     OW58707   5.373  10.728   3.384
18937SOL    HW158708   5.438  10.731   3.454
18937SOL    HW258709   5.293  10.697   3.426
18938SOL     OW58710   0.464   3.968   6.268
18938SOL    HW158711   0.516   3.922   6.201
18938SOL    HW258712   0.381   3.922   6.269
18939SOL     OW58713   0.049   0.900   4.403
18939SOL    HW158714   0.014   0.869   4.320
18939SOL    HW258715   0.074   0.990   4.387
18940SOL     OW58716   4.163   1.904   7.482
18940SOL    HW158717   4.071   1.908   7.509
18940SOL    HW258718   4.167   1.957   7.403
18941SOL     OW58719   7.195   4.732   3.463
18941SOL    HW158720   7.245   4.685   3.530
18941SOL    HW258721   7.213   4.684   3.382
18942SOL     OW58722  11.144   4.401  13.635
18942SOL    HW158723  11.165   4.482  13.588
18942SOL    HW258724  11.107   4.344  13.568
18943SOL     OW58725  14.443   0.679   9.606
18943SOL    HW158726  14.410   0.670   9.695
18943SOL    HW258727  14.455   0.589   9.576
18944SOL     OW58728   2.442   6.609   4.757
18944SOL    HW158729   2.383   6.646   4.822
18944SOL    HW258730   2.431   6.515   4.766
18945SOL     OW58731   5.228   7.605   3.969
18945SOL    HW158732   5.231   7.675   3.904
18945SOL    HW258733   5.275   7.640   4.045
18946SOL     OW58734   1.491   8.002  14.494
18946SOL    HW158735   1.469   7.988  14.586
18946SOL    HW258736   1.571   8.054  14.496
18947SOL     OW58737   9.164   8.767   4.262
18947SOL    HW158738   9.212   8.701   4.311
18947SOL    HW258739   9.226   8.798   4.196
18948SOL     OW58740   1.065  12.210   9.099
18948SOL    HW158741   1.068  12.302   9.124
18948SOL    HW258742   0.972  12.188   9.099
18949SOL     OW58743   8.170   4.361   1.761
18949SOL    HW158744   8.212   4.438   1.799
18949SOL    HW258745   8.084   4.358   1.803
18950SOL     OW58746   1.527   4.059  13.529
18950SOL    HW158747   1.609   4.038  13.483
18950SOL    HW258748   1.505   3.980  13.578
18951SOL     OW58749   2.592   5.017   4.003
18951SOL    HW158750   2.614   5.082   4.070
18951SOL    HW258751   2.541   4.951   4.050
18952SOL     OW58752   7.214   8.345  11.216
18952SOL    HW158753   7.190   8.349  11.124
18952SOL    HW258754   7.131   8.332  11.262
18953SOL     OW58755   9.440   3.124   8.437
18953SOL    HW158756   9.371   3.064   8.465
18953SOL    HW258757   9.403   3.167   8.359
18954SOL     OW58758  11.183  13.496   3.569
18954SOL    HW158759  11.183  13.402   3.555
18954SOL    HW258760  11.092  13.518   3.587
18955SOL     OW58761   9.409   0.197  13.096
18955SOL    HW158762   9.336   0.189  13.034
18955SOL    HW258763   9.367   0.197  13.182
18956SOL     OW58764  10.930  10.120  14.528
18956SOL    HW158765  11.023  10.096  14.519
18956SOL    HW258766  10.932  10.210  14.561
18957SOL     OW58767   7.465   5.425   6.970
18957SOL    HW158768   7.538   5.390   7.021
18957SOL    HW258769   7.387   5.396   7.017
18958SOL     OW58770   2.241  13.139   6.221
18958SOL    HW158771   2.199  13.162   6.138
18958SOL    HW258772   2.213  13.049   6.237
18959SOL     OW58773   5.353  12.515   4.298
18959SOL    HW158774   5.424  12.500   4.235
18959SOL    HW258775   5.398  12.530   4.381
18960SOL     OW58776   7.102   4.164   4.362
18960SOL    HW158777   7.016   4.187   4.328
18960SOL    HW258778   7.130   4.089   4.310
18961SOL     OW58779  11.319   7.377  13.249
18961SOL    HW158780  11.374   7.319  13.198
18961SOL    HW258781  11.260   7.417  13.184
18962SOL     OW58782   8.028   5.548   6.190
18962SOL    HW158783   7.959   5.526   6.126
18962SOL    HW258784   8.102   5.575   6.136
18963SOL     OW58785   1.017   3.794   8.172
18963SOL    HW158786   1.103   3.764   8.144
18963SOL    HW258787   0.956   3.740   8.121
18964SOL     OW58788   2.058  14.647  10.634
18964SOL    HW158789   1.998  14.630  10.707
18964SOL    HW258790   2.012  14.614  10.557
18965SOL     OW58791   7.688   8.121  14.092
18965SOL    HW158792   7.738   8.169  14.027
18965SOL    HW258793   7.742   8.044  14.113
18966SOL     OW58794   9.178   2.692   9.339
18966SOL    HW158795   9.164   2.670   9.247
18966SOL    HW258796   9.092   2.682   9.379
18967SOL     OW58797   1.664  11.441  12.943
18967SOL    HW158798   1.759  11.443  12.928
18967SOL    HW258799   1.627  11.421  12.858
18968SOL     OW58800  11.621   6.196  12.275
18968SOL    HW158801  11.665   6.136  12.214
18968SOL    HW258802  11.639   6.283  12.239
18969SOL     OW58803   5.579  14.392  14.799
18969SOL    HW158804   5.657  14.395  14.744
18969SOL    HW258805   5.590  14.465  14.860
18970SOL     OW58806   0.211   4.434   1.754
18970SOL    HW158807   0.239   4.515   1.711
18970SOL    HW258808   0.268   4.426   1.830
18971SOL     OW58809  12.874   3.977  11.681
18971SOL    HW158810  12.841   4.063  11.656
18971SOL    HW258811  12.919   3.992  11.764
18972SOL     OW58812   7.573   3.742   5.208
18972SOL    HW158813   7.483   3.710   5.208
18972SOL    HW258814   7.594   3.756   5.301
18973SOL     OW58815   9.237   2.861  12.744
18973SOL    HW158816   9.252   2.955  12.739
18973SOL    HW258817   9.259   2.828  12.657
18974SOL     OW58818   7.765   2.955   2.542
18974SOL    HW158819   7.682   2.928   2.579
18974SOL    HW258820   7.741   3.006   2.464
18975SOL     OW58821   4.533   8.530   6.607
18975SOL    HW158822   4.457   8.528   6.548
18975SOL    HW258823   4.608   8.542   6.549
18976SOL     OW58824   7.735  10.261   8.452
18976SOL    HW158825   7.747  10.351   8.420
18976SOL    HW258826   7.750  10.206   8.375
18977SOL     OW58827   2.499   6.028  11.501
18977SOL    HW158828   2.407   6.015  11.481
18977SOL    HW258829   2.534   6.073  11.424
18978SOL     OW58830   7.950   8.564   9.523
18978SOL    HW158831   7.978   8.474   9.543
18978SOL    HW258832   7.934   8.603   9.609
18979SOL     OW58833  13.522  12.596   1.772
18979SOL    HW158834  13.551  12.645   1.696
18979SOL    HW258835  13.584  12.523   1.778
18980SOL     OW58836   8.029   1.966   2.185
18980SOL    HW158837   8.052   1.961   2.277
18980SOL    HW258838   7.983   2.050   2.176
18981SOL     OW58839  14.187   1.404   2.130
18981SOL    HW158840  14.176   1.346   2.054
18981SOL    HW258841  14.268   1.373   2.172
18982SOL     OW58842   1.146  13.200   4.819
18982SOL    HW158843   1.177  13.238   4.737
18982SOL    HW258844   1.143  13.105   4.802
18983SOL     OW58845   0.396   2.182  14.762
18983SOL    HW158846   0.336   2.109  14.779
18983SOL    HW258847   0.345   2.242  14.708
18984SOL     OW58848  14.247   2.520   1.182
18984SOL    HW158849  14.234   2.532   1.276
18984SOL    HW258850  14.325   2.466   1.175
18985SOL     OW58851   0.904   1.956   0.795
18985SOL    HW158852   0.899   2.051   0.783
18985SOL    HW258853   0.998   1.936   0.789
18986SOL     OW58854   3.907  11.358  14.410
18986SOL    HW158855   3.832  11.412  14.434
18986SOL    HW258856   3.961  11.354  14.489
18987SOL     OW58857   5.030   3.482   7.760
18987SOL    HW158858   4.942   3.456   7.730
18987SOL    HW258859   5.054   3.554   7.702
18988SOL     OW58860   2.477  10.198   7.532
18988SOL    HW158861   2.558  10.174   7.487
18988SOL    HW258862   2.450  10.279   7.489
18989SOL     OW58863   1.649   4.284   9.367
18989SOL    HW158864   1.685   4.369   9.344
18989SOL    HW258865   1.657   4.279   9.462
18990SOL     OW58866   7.856   8.897   1.356
18990SOL    HW158867   7.940   8.865   1.388
18990SOL    HW258868   7.878   8.951   1.281
18991SOL     OW58869  13.484   2.734   1.907
18991SOL    HW158870  13.423   2.697   1.843
18991SOL    HW258871  13.509   2.660   1.962
18992SOL     OW58872   6.746  12.214   4.116
18992SOL    HW158873   6.727  12.123   4.138
18992SOL    HW258874   6.661  12.258   4.122
18993SOL     OW58875   8.354   3.469   7.828
18993SOL    HW158876   8.364   3.487   7.735
18993SOL    HW258877   8.316   3.549   7.865
18994SOL     OW58878  13.912   3.648  13.186
18994SOL    HW158879  13.930   3.558  13.161
18994SOL    HW258880  13.930   3.700  13.107
18995SOL     OW58881   0.933  13.973   3.922
18995SOL    HW158882   0.943  14.045   3.985
18995SOL    HW258883   0.932  14.016   3.837
18996SOL     OW58884   1.793   2.380  12.728
18996SOL    HW158885   1.717   2.434  12.751
18996SOL    HW258886   1.833   2.425  12.654
18997SOL     OW58887  13.766   0.995   9.775
18997SOL    HW158888  13.832   0.943   9.820
18997SOL    HW258889  13.750   1.069   9.834
18998SOL     OW58890   8.894   3.163  12.013
18998SOL    HW158891   8.988   3.162  11.991
18998SOL    HW258892   8.876   3.076  12.047
18999SOL     OW58893   2.297   3.575   3.955
18999SOL    HW158894   2.359   3.513   3.916
18999SOL    HW258895   2.331   3.591   4.043
19000SOL     OW58896  11.453   1.767   7.905
19000SOL    HW158897  11.386   1.835   7.909
19000SOL    HW258898  11.405   1.685   7.903
19001SOL     OW58899  13.148  12.927   1.923
19001SOL    HW158900  13.139  13.007   1.974
19001SOL    HW258901  13.236  12.896   1.943
19002SOL     OW58902   5.317   8.497   0.463
19002SOL    HW158903   5.321   8.558   0.536
19002SOL    HW258904   5.389   8.436   0.478
19003SOL     OW58905   0.874   2.877   9.048
19003SOL    HW158906   0.897   2.970   9.046
19003SOL    HW258907   0.852   2.856   8.958
19004SOL     OW58908   4.309  11.930  13.350
19004SOL    HW158909   4.401  11.958  13.350
19004SOL    HW258910   4.294  11.899  13.261
19005SOL     OW58911   8.501   0.197   6.594
19005SOL    HW158912   8.512   0.158   6.507
19005SOL    HW258913   8.545   0.282   6.588
19006SOL     OW58914   4.115   1.793   3.794
19006SOL    HW158915   4.035   1.844   3.778
19006SOL    HW258916   4.142   1.763   3.708
19007SOL     OW58917   9.983  12.709   0.515
19007SOL    HW158918   9.938  12.684   0.596
19007SOL    HW258919  10.076  12.701   0.536
19008SOL     OW58920  11.644   8.324  13.476
19008SOL    HW158921  11.613   8.292  13.560
19008SOL    HW258922  11.592   8.276  13.411
19009SOL     OW58923   0.997   3.057   2.071
19009SOL    HW158924   0.948   3.031   1.993
19009SOL    HW258925   1.000   2.978   2.125
19010SOL     OW58926   1.138   2.069   7.799
19010SOL    HW158927   1.157   2.038   7.887
19010SOL    HW258928   1.071   2.136   7.810
19011SOL     OW58929   8.964   8.163   0.150
19011SOL    HW158930   9.029   8.092   0.151
19011SOL    HW258931   8.895   8.133   0.208
19012SOL     OW58932   2.279  13.821   1.905
19012SOL    HW158933   2.242  13.866   1.980
19012SOL    HW258934   2.266  13.728   1.924
19013SOL     OW58935   7.795  10.650   5.567
19013SOL    HW158936   7.813  10.556   5.570
19013SOL    HW258937   7.701  10.657   5.585
19014SOL     OW58938  13.412   2.239   3.018
19014SOL    HW158939  13.347   2.173   2.995
19014SOL    HW258940  13.388   2.264   3.108
19015SOL     OW58941   8.120  12.104   1.032
19015SOL    HW158942   8.085  12.028   0.986
19015SOL    HW258943   8.212  12.083   1.047
19016SOL     OW58944  11.085   9.620   7.281
19016SOL    HW158945  11.155   9.666   7.328
19016SOL    HW258946  11.009   9.626   7.339
19017SOL     OW58947  13.514   5.744   4.852
19017SOL    HW158948  13.556   5.744   4.766
19017SOL    HW258949  13.574   5.793   4.908
19018SOL     OW58950   4.927   8.761   2.391
19018SOL    HW158951   4.997   8.801   2.338
19018SOL    HW258952   4.965   8.754   2.479
19019SOL     OW58953  12.401  12.426  12.165
19019SOL    HW158954  12.388  12.357  12.100
19019SOL    HW258955  12.313  12.457  12.186
19020SOL     OW58956   7.136   9.807   4.569
19020SOL    HW158957   7.110   9.716   4.584
19020SOL    HW258958   7.172   9.836   4.653
19021SOL     OW58959   6.670   4.050   5.031
19021SOL    HW158960   6.761   4.074   5.015
19021SOL    HW258961   6.649   3.988   4.961
19022SOL     OW58962  11.263  12.110   8.777
19022SOL    HW158963  11.303  12.098   8.690
19022SOL    HW258964  11.233  12.023   8.802
19023SOL     OW58965   9.707   4.288  11.243
19023SOL    HW158966   9.612   4.280  11.242
19023SOL    HW258967   9.737   4.240  11.166
19024SOL     OW58968  10.777  11.963  13.163
19024SOL    HW158969  10.829  11.962  13.243
19024SOL    HW258970  10.686  11.958  13.193
19025SOL     OW58971   8.467  13.979   6.687
19025SOL    HW158972   8.534  14.026   6.638
19025SOL    HW258973   8.432  14.043   6.748
19026SOL     OW58974   0.334   3.524  13.363
19026SOL    HW158975   0.419   3.564  13.382
19026SOL    HW258976   0.304   3.568  13.283
19027SOL     OW58977  11.611   9.817   7.408
19027SOL    HW158978  11.677   9.812   7.338
19027SOL    HW258979  11.654   9.865   7.478
19028SOL     OW58980   0.237  11.559   4.155
19028SOL    HW158981   0.189  11.536   4.075
19028SOL    HW258982   0.188  11.633   4.191
19029SOL     OW58983   0.657   3.928   9.320
19029SOL    HW158984   0.564   3.910   9.313
19029SOL    HW258985   0.700   3.849   9.287
19030SOL     OW58986   1.299   5.174  14.626
19030SOL    HW158987   1.368   5.113  14.600
19030SOL    HW258988   1.341   5.260  14.623
19031SOL     OW58989   4.443   0.672   6.884
19031SOL    HW158990   4.484   0.591   6.914
19031SOL    HW258991   4.357   0.672   6.925
19032SOL     OW58992   9.117   5.099  11.988
19032SOL    HW158993   9.101   5.009  11.961
19032SOL    HW258994   9.038   5.124  12.037
19033SOL     OW58995  12.517   4.145   1.735
19033SOL    HW158996  12.578   4.188   1.795
19033SOL    HW258997  12.479   4.216   1.683
19034SOL     OW58998   3.573   3.928  14.384
19034SOL    HW158999   3.584   4.011  14.430
19034SOL    HW259000   3.518   3.876  14.443
19035SOL     OW59001  13.370   6.624   3.637
19035SOL    HW159002  13.368   6.533   3.667
19035SOL    HW259003  13.435   6.666   3.692
19036SOL     OW59004   1.042   2.604  13.323
19036SOL    HW159005   1.107   2.544  13.288
19036SOL    HW259006   0.960   2.578  13.281
19037SOL     OW59007   2.095   5.949   1.172
19037SOL    HW159008   2.087   5.856   1.191
19037SOL    HW259009   2.089   5.955   1.077
19038SOL     OW59010   6.272  12.816   9.672
19038SOL    HW159011   6.346  12.866   9.636
19038SOL    HW259012   6.275  12.733   9.624
19039SOL     OW59013   8.608  11.037   5.467
19039SOL    HW159014   8.664  11.112   5.489
19039SOL    HW259015   8.544  11.072   5.405
19040SOL     OW59016   2.037  11.501   4.118
19040SOL    HW159017   1.976  11.439   4.157
19040SOL    HW259018   1.989  11.539   4.044
19041SOL     OW59019   1.170  10.069  10.979
19041SOL    HW159020   1.080  10.100  10.982
19041SOL    HW259021   1.170   9.990  11.033
19042SOL     OW59022   1.739   4.009  10.427
19042SOL    HW159023   1.659   4.026  10.378
19042SOL    HW259024   1.753   4.089  10.479
19043SOL     OW59025   6.560   8.187   7.110
19043SOL    HW159026   6.606   8.146   7.184
19043SOL    HW259027   6.613   8.264   7.089
19044SOL     OW59028   9.345  11.372  10.183
19044SOL    HW159029   9.438  11.366  10.204
19044SOL    HW259030   9.306  11.417  10.258
19045SOL     OW59031   9.221   0.407  14.800
19045SOL    HW159032   9.183   0.380   0.004
19045SOL    HW259033   9.150   0.395  14.737
19046SOL     OW59034  13.263   1.821   6.010
19046SOL    HW159035  13.197   1.760   5.977
19046SOL    HW259036  13.331   1.764   6.047
19047SOL     OW59037   1.701  11.370  13.658
19047SOL    HW159038   1.611  11.399  13.645
19047SOL    HW259039   1.737  11.361  13.570
19048SOL     OW59040   1.260  11.954  10.147
19048SOL    HW159041   1.230  12.045  10.143
19048SOL    HW259042   1.327  11.954  10.216
19049SOL     OW59043  13.558  11.395   2.994
19049SOL    HW159044  13.545  11.421   3.086
19049SOL    HW259045  13.474  11.357   2.968
19050SOL     OW59046   2.054   4.162   2.547
19050SOL    HW159047   2.127   4.214   2.579
19050SOL    HW259048   2.094   4.098   2.488
19051SOL     OW59049   3.729   7.705   2.752
19051SOL    HW159050   3.682   7.690   2.834
19051SOL    HW259051   3.721   7.623   2.704
19052SOL     OW59052   9.683   1.088  10.505
19052SOL    HW159053   9.710   1.130  10.423
19052SOL    HW259054   9.765   1.070  10.551
19053SOL     OW59055   2.084   2.883   4.108
19053SOL    HW159056   2.004   2.933   4.099
19053SOL    HW259057   2.154   2.943   4.082
19054SOL     OW59058  13.280   1.467   5.139
19054SOL    HW159059  13.228   1.430   5.068
19054SOL    HW259060  13.281   1.561   5.122
19055SOL     OW59061   2.362   6.130  13.596
19055SOL    HW159062   2.352   6.176  13.513
19055SOL    HW259063   2.386   6.040  13.571
19056SOL     OW59064  10.786  11.836  10.811
19056SOL    HW159065  10.813  11.774  10.743
19056SOL    HW259066  10.858  11.834  10.875
19057SOL     OW59067  10.811   7.211  12.482
19057SOL    HW159068  10.783   7.292  12.440
19057SOL    HW259069  10.745   7.193  12.549
19058SOL     OW59070  12.681   1.269   7.926
19058SOL    HW159071  12.716   1.308   8.006
19058SOL    HW259072  12.672   1.343   7.865
19059SOL     OW59073   6.135   6.342   5.363
19059SOL    HW159074   6.062   6.283   5.344
19059SOL    HW259075   6.103   6.429   5.338
19060SOL     OW59076  10.725   1.151   6.554
19060SOL    HW159077  10.636   1.181   6.572
19060SOL    HW259078  10.716   1.089   6.482
19061SOL     OW59079   5.073   3.909  11.721
19061SOL    HW159080   5.125   3.886  11.798
19061SOL    HW259081   5.117   3.865  11.649
19062SOL     OW59082   8.358   7.688   5.262
19062SOL    HW159083   8.282   7.703   5.319
19062SOL    HW259084   8.343   7.602   5.224
19063SOL     OW59085  11.287  11.606   7.373
19063SOL    HW159086  11.262  11.660   7.448
19063SOL    HW259087  11.226  11.532   7.374
19064SOL     OW59088  13.864  10.130   0.774
19064SOL    HW159089  13.815  10.092   0.700
19064SOL    HW259090  13.942  10.074   0.781
19065SOL     OW59091   8.506   0.263   1.093
19065SOL    HW159092   8.578   0.241   1.034
19065SOL    HW259093   8.532   0.227   1.178
19066SOL     OW59094  10.406   5.866   2.248
19066SOL    HW159095  10.366   5.837   2.330
19066SOL    HW259096  10.342   5.926   2.210
19067SOL     OW59097  10.006   9.949  12.116
19067SOL    HW159098   9.936   9.947  12.181
19067SOL    HW259099  10.082   9.914  12.161
19068SOL     OW59100   2.304  14.350   1.370
19068SOL    HW159101   2.351  14.400   1.438
19068SOL    HW259102   2.369  14.287   1.338
19069SOL     OW59103   1.615   6.012   7.443
19069SOL    HW159104   1.642   6.102   7.465
19069SOL    HW259105   1.650   5.997   7.355
19070SOL     OW59106  10.090   9.622   4.649
19070SOL    HW159107  10.179   9.587   4.646
19070SOL    HW259108  10.093   9.690   4.717
19071SOL     OW59109   8.576   7.574  14.484
19071SOL    HW159110   8.563   7.603  14.574
19071SOL    HW259111   8.562   7.652  14.431
19072SOL     OW59112  13.082   0.965  14.607
19072SOL    HW159113  13.081   1.040  14.667
19072SOL    HW259114  13.056   1.002  14.523
19073SOL     OW59115  11.232   5.377   8.221
19073SOL    HW159116  11.241   5.289   8.185
19073SOL    HW259117  11.288   5.431   8.165
19074SOL     OW59118  12.681  14.294   4.035
19074SOL    HW159119  12.613  14.313   4.100
19074SOL    HW259120  12.675  14.199   4.022
19075SOL     OW59121   7.865  10.652   9.478
19075SOL    HW159122   7.920  10.731   9.485
19075SOL    HW259123   7.776  10.685   9.475
19076SOL     OW59124  10.070  13.598   8.848
19076SOL    HW159125  10.043  13.631   8.762
19076SOL    HW259126  10.126  13.667   8.884
19077SOL     OW59127   2.937  12.117   6.180
19077SOL    HW159128   2.940  12.022   6.170
19077SOL    HW259129   2.843  12.138   6.175
19078SOL     OW59130   3.318   5.764  11.105
19078SOL    HW159131   3.258   5.825  11.063
19078SOL    HW259132   3.302   5.681  11.061
19079SOL     OW59133   0.778  14.322   2.109
19079SOL    HW159134   0.812  14.289   2.193
19079SOL    HW259135   0.690  14.354   2.130
19080SOL     OW59136   6.358   0.444  11.198
19080SOL    HW159137   6.330   0.530  11.166
19080SOL    HW259138   6.281   0.408  11.242
19081SOL     OW59139   0.071  12.752   8.385
19081SOL    HW159140   0.020  12.679   8.352
19081SOL    HW259141   0.152  12.750   8.333
19082SOL     OW59142   7.748   2.050   0.063
19082SOL    HW159143   7.762   1.955   0.060
19082SOL    HW259144   7.661   2.063   0.027
19083SOL     OW59145   6.243  10.575   4.539
19083SOL    HW159146   6.294  10.500   4.570
19083SOL    HW259147   6.303  10.622   4.481
19084SOL     OW59148  14.204  14.111   1.455
19084SOL    HW159149  14.119  14.094   1.415
19084SOL    HW259150  14.253  14.157   1.387
19085SOL     OW59151   1.824   5.058   8.083
19085SOL    HW159152   1.855   5.134   8.134
19085SOL    HW259153   1.756   5.094   8.026
19086SOL     OW59154  11.666  11.887   6.629
19086SOL    HW159155  11.660  11.903   6.535
19086SOL    HW259156  11.646  11.794   6.640
19087SOL     OW59157   6.772   1.850   6.115
19087SOL    HW159158   6.681   1.845   6.087
19087SOL    HW259159   6.811   1.767   6.087
19088SOL     OW59160   4.542  13.054   6.721
19088SOL    HW159161   4.474  13.089   6.662
19088SOL    HW259162   4.616  13.113   6.709
19089SOL     OW59163   6.331   0.696   0.290
19089SOL    HW159164   6.352   0.678   0.198
19089SOL    HW259165   6.406   0.746   0.322
19090SOL     OW59166  13.949  10.859   7.788
19090SOL    HW159167  13.869  10.810   7.810
19090SOL    HW259168  14.004  10.849   7.865
19091SOL     OW59169   9.993   4.312   4.178
19091SOL    HW159170  10.046   4.388   4.154
19091SOL    HW259171   9.964   4.276   4.094
19092SOL     OW59172   1.688   2.696   1.768
19092SOL    HW159173   1.762   2.636   1.774
19092SOL    HW259174   1.619   2.645   1.725
19093SOL     OW59175   0.029   5.869  14.811
19093SOL    HW159176   0.065   5.947  14.766
19093SOL    HW259177  14.816   5.889  14.823
19094SOL     OW59178  13.671   5.760   4.634
19094SOL    HW159179  13.633   5.826   4.575
19094SOL    HW259180  13.639   5.676   4.600
19095SOL     OW59181   8.545  10.525   1.897
19095SOL    HW159182   8.558  10.479   1.980
19095SOL    HW259183   8.457  10.500   1.869
19096SOL     OW59184   6.504   0.300   3.552
19096SOL    HW159185   6.518   0.315   3.645
19096SOL    HW259186   6.487   0.388   3.516
19097SOL     OW59187   2.881   4.264   6.581
19097SOL    HW159188   2.865   4.277   6.674
19097SOL    HW259189   2.847   4.343   6.540
19098SOL     OW59190   8.789   6.432  12.417
19098SOL    HW159191   8.802   6.351  12.467
19098SOL    HW259192   8.709   6.470  12.454
19099SOL     OW59193  10.339   8.459   3.282
19099SOL    HW159194  10.360   8.409   3.361
19099SOL    HW259195  10.276   8.525   3.311
19100SOL     OW59196  11.839   3.221  12.573
19100SOL    HW159197  11.862   3.186  12.660
19100SOL    HW259198  11.868   3.312  12.576
19101SOL     OW59199   2.296   9.895   7.158
19101SOL    HW159200   2.350   9.853   7.224
19101SOL    HW259201   2.341   9.977   7.139
19102SOL     OW59202   7.438   4.867   9.249
19102SOL    HW159203   7.422   4.961   9.238
19102SOL    HW259204   7.403   4.827   9.170
19103SOL     OW59205   7.600   1.476  11.101
19103SOL    HW159206   7.600   1.446  11.010
19103SOL    HW259207   7.563   1.403  11.150
19104SOL     OW59208  11.377   7.407   5.187
19104SOL    HW159209  11.319   7.437   5.257
19104SOL    HW259210  11.367   7.472   5.118
19105SOL     OW59211   4.603   6.517  13.272
19105SOL    HW159212   4.573   6.426  13.266
19105SOL    HW259213   4.559   6.552  13.350
19106SOL     OW59214   9.279   8.552   4.383
19106SOL    HW159215   9.251   8.462   4.402
19106SOL    HW259216   9.361   8.562   4.432
19107SOL     OW59217  13.413   5.989   8.106
19107SOL    HW159218  13.389   5.921   8.169
19107SOL    HW259219  13.373   6.069   8.140
19108SOL     OW59220   4.413   9.243  13.089
19108SOL    HW159221   4.367   9.326  13.074
19108SOL    HW259222   4.468   9.232  13.012
19109SOL     OW59223  10.950   6.643  11.875
19109SOL    HW159224  11.014   6.639  11.946
19109SOL    HW259225  10.925   6.552  11.859
19110SOL     OW59226  11.820   1.260   0.114
19110SOL    HW159227  11.750   1.310   0.157
19110SOL    HW259228  11.848   1.197   0.180
19111SOL     OW59229   9.187   1.592   6.941
19111SOL    HW159230   9.206   1.507   6.982
19111SOL    HW259231   9.104   1.620   6.981
19112SOL     OW59232  13.186  13.700   6.637
19112SOL    HW159233  13.182  13.664   6.548
19112SOL    HW259234  13.095  13.701   6.666
19113SOL     OW59235   5.533   0.161   4.433
19113SOL    HW159236   5.603   0.109   4.472
19113SOL    HW259237   5.453   0.112   4.449
19114SOL     OW59238   0.851   5.555   8.802
19114SOL    HW159239   0.763   5.574   8.769
19114SOL    HW259240   0.840   5.550   8.897
19115SOL     OW59241  12.705   2.597   9.778
19115SOL    HW159242  12.680   2.673   9.830
19115SOL    HW259243  12.772   2.553   9.830
19116SOL     OW59244   8.377   8.337   3.997
19116SOL    HW159245   8.448   8.274   3.984
19116SOL    HW259246   8.414   8.421   3.970
19117SOL     OW59247   0.606  13.441   7.232
19117SOL    HW159248   0.701  13.446   7.219
19117SOL    HW259249   0.570  13.444   7.143
19118SOL     OW59250   7.577   2.360   1.226
19118SOL    HW159251   7.632   2.406   1.163
19118SOL    HW259252   7.536   2.430   1.278
19119SOL     OW59253   6.538   8.817   8.802
19119SOL    HW159254   6.521   8.822   8.708
19119SOL    HW259255   6.507   8.730   8.828
19120SOL     OW59256  13.033   1.840   2.291
19120SOL    HW159257  13.113   1.849   2.343
19120SOL    HW259258  13.064   1.835   2.200
19121SOL     OW59259   9.205   9.565  14.784
19121SOL    HW159260   9.178   9.637  14.727
19121SOL    HW259261   9.124   9.517  14.802
19122SOL     OW59262   2.380   7.717   6.052
19122SOL    HW159263   2.384   7.804   6.091
19122SOL    HW259264   2.349   7.732   5.963
19123SOL     OW59265   1.957   4.632   5.102
19123SOL    HW159266   2.047   4.633   5.070
19123SOL    HW259267   1.964   4.658   5.194
19124SOL     OW59268  10.573  14.563  14.778
19124SOL    HW159269  10.562  14.658  14.772
19124SOL    HW259270  10.506  14.528  14.718
19125SOL     OW59271   8.581  11.113   6.257
19125SOL    HW159272   8.620  11.031   6.226
19125SOL    HW259273   8.515  11.135   6.191
19126SOL     OW59274   5.599  14.255  12.028
19126SOL    HW159275   5.560  14.318  11.967
19126SOL    HW259276   5.688  14.288  12.042
19127SOL     OW59277   7.585   6.458  10.393
19127SOL    HW159278   7.660   6.410  10.358
19127SOL    HW259279   7.611   6.481  10.483
19128SOL     OW59280   4.815   0.621  12.909
19128SOL    HW159281   4.768   0.704  12.917
19128SOL    HW259282   4.778   0.565  12.977
19129SOL     OW59283   4.820   9.153   2.400
19129SOL    HW159284   4.768   9.194   2.469
19129SOL    HW259285   4.787   9.064   2.395
19130SOL     OW59286   8.816  13.122   5.309
19130SOL    HW159287   8.784  13.096   5.222
19130SOL    HW259288   8.909  13.097   5.309
19131SOL     OW59289   3.019   4.536   0.916
19131SOL    HW159290   3.016   4.609   0.978
19131SOL    HW259291   3.064   4.572   0.840
19132SOL     OW59292   3.350  10.822  14.314
19132SOL    HW159293   3.266  10.778  14.298
19132SOL    HW259294   3.332  10.914  14.294
19133SOL     OW59295  14.126  11.290   3.442
19133SOL    HW159296  14.156  11.200   3.435
19133SOL    HW259297  14.060  11.300   3.373
19134SOL     OW59298  13.329  13.082   7.804
19134SOL    HW159299  13.298  13.084   7.894
19134SOL    HW259300  13.404  13.023   7.806
19135SOL     OW59301   9.049   9.919  10.630
19135SOL    HW159302   8.967   9.915  10.579
19135SOL    HW259303   9.117   9.904  10.565
19136SOL     OW59304   3.677   2.064  10.548
19136SOL    HW159305   3.748   2.084  10.609
19136SOL    HW259306   3.626   1.996  10.593
19137SOL     OW59307   4.690  13.299   5.704
19137SOL    HW159308   4.766  13.322   5.758
19137SOL    HW259309   4.708  13.211   5.672
19138SOL     OW59310   3.456  11.092   6.859
19138SOL    HW159311   3.532  11.046   6.824
19138SOL    HW259312   3.444  11.167   6.802
19139SOL     OW59313   7.130   0.817   0.954
19139SOL    HW159314   7.039   0.844   0.939
19139SOL    HW259315   7.169   0.887   1.005
19140SOL     OW59316   5.105   1.217  12.515
19140SOL    HW159317   5.179   1.174  12.472
19140SOL    HW259318   5.114   1.309  12.491
19141SOL     OW59319  11.189  13.024   9.678
19141SOL    HW159320  11.120  13.061   9.623
19141SOL    HW259321  11.148  12.948   9.720
19142SOL     OW59322   5.944   7.787   5.116
19142SOL    HW159323   5.887   7.711   5.101
19142SOL    HW259324   5.892   7.861   5.085
19143SOL     OW59325   1.303   4.864   6.880
19143SOL    HW159326   1.346   4.860   6.966
19143SOL    HW259327   1.241   4.792   6.880
19144SOL     OW59328  14.622   4.112  10.474
19144SOL    HW159329  14.588   4.080  10.390
19144SOL    HW259330  14.709   4.073  10.481
19145SOL     OW59331   4.809   4.222   8.092
19145SOL    HW159332   4.746   4.155   8.064
19145SOL    HW259333   4.755   4.294   8.124
19146SOL     OW59334  11.418   0.627   6.232
19146SOL    HW159335  11.383   0.716   6.226
19146SOL    HW259336  11.486   0.624   6.164
19147SOL     OW59337   4.323   7.805   8.723
19147SOL    HW159338   4.246   7.813   8.780
19147SOL    HW259339   4.293   7.752   8.649
19148SOL     OW59340   3.498   4.289   3.160
19148SOL    HW159341   3.460   4.202   3.141
19148SOL    HW259342   3.435   4.330   3.218
19149SOL     OW59343  14.657   1.530   6.619
19149SOL    HW159344  14.739   1.489   6.590
19149SOL    HW259345  14.619   1.567   6.539
19150SOL     OW59346   2.357   2.182   1.096
19150SOL    HW159347   2.388   2.171   1.187
19150SOL    HW259348   2.408   2.118   1.046
19151SOL     OW59349   4.438  12.346   3.694
19151SOL    HW159350   4.362  12.398   3.719
19151SOL    HW259351   4.439  12.348   3.598
19152SOL     OW59352  13.389  10.274   1.757
19152SOL    HW159353  13.385  10.217   1.680
19152SOL    HW259354  13.374  10.362   1.722
19153SOL     OW59355   8.787   7.016   3.276
19153SOL    HW159356   8.713   6.962   3.248
19153SOL    HW259357   8.820   6.973   3.355
19154SOL     OW59358  11.221   4.969   2.550
19154SOL    HW159359  11.265   4.898   2.598
19154SOL    HW259360  11.215   4.937   2.460
19155SOL     OW59361  12.962   0.703  13.575
19155SOL    HW159362  12.889   0.674  13.520
19155SOL    HW259363  13.037   0.652  13.545
19156SOL     OW59364   8.042   0.384   0.409
19156SOL    HW159365   7.985   0.450   0.370
19156SOL    HW259366   8.021   0.303   0.362
19157SOL     OW59367   2.237   7.873   8.063
19157SOL    HW159368   2.196   7.916   7.988
19157SOL    HW259369   2.331   7.890   8.052
19158SOL     OW59370  13.745   1.453  13.300
19158SOL    HW159371  13.780   1.397  13.369
19158SOL    HW259372  13.738   1.396  13.224
19159SOL     OW59373  11.939   6.907  10.300
19159SOL    HW159374  11.976   6.986  10.338
19159SOL    HW259375  11.885   6.938  10.227
19160SOL     OW59376  12.737   9.660   6.382
19160SOL    HW159377  12.684   9.662   6.302
19160SOL    HW259378  12.820   9.699   6.357
19161SOL     OW59379  13.158  13.023  10.014
19161SOL    HW159380  13.078  13.068   9.985
19161SOL    HW259381  13.175  12.959   9.945
19162SOL     OW59382   8.221   4.249   5.134
19162SOL    HW159383   8.246   4.192   5.062
19162SOL    HW259384   8.214   4.336   5.094
19163SOL     OW59385  10.001   1.064   2.682
19163SOL    HW159386   9.993   1.155   2.653
19163SOL    HW259387   9.914   1.043   2.717
19164SOL     OW59388  12.678   9.761   6.978
19164SOL    HW159389  12.767   9.792   6.964
19164SOL    HW259390  12.686   9.665   6.983
19165SOL     OW59391   8.985  10.286  13.649
19165SOL    HW159392   9.045  10.244  13.711
19165SOL    HW259393   8.955  10.214  13.593
19166SOL     OW59394   9.893   5.089   6.253
19166SOL    HW159395   9.976   5.079   6.300
19166SOL    HW259396   9.905   5.041   6.172
19167SOL     OW59397   9.625  13.852  13.584
19167SOL    HW159398   9.586  13.922  13.637
19167SOL    HW259399   9.719  13.862  13.595
19168SOL     OW59400   0.442   8.277  13.152
19168SOL    HW159401   0.527   8.250  13.119
19168SOL    HW259402   0.457   8.298  13.244
19169SOL     OW59403   2.725   0.021   8.237
19169SOL    HW159404   2.716   0.046   8.145
19169SOL    HW259405   2.782   0.088   8.274
19170SOL     OW59406   6.732   4.063   8.153
19170SOL    HW159407   6.769   4.128   8.093
19170SOL    HW259408   6.715   3.987   8.098
19171SOL     OW59409   0.539  14.383   6.310
19171SOL    HW159410   0.506  14.473   6.303
19171SOL    HW259411   0.633  14.391   6.294
19172SOL     OW59412   8.202   9.235   3.357
19172SOL    HW159413   8.183   9.142   3.352
19172SOL    HW259414   8.273   9.242   3.421
19173SOL     OW59415  12.021  11.031   5.564
19173SOL    HW159416  12.030  11.028   5.468
19173SOL    HW259417  11.927  11.015   5.579
19174SOL     OW59418   1.544   8.515   2.402
19174SOL    HW159419   1.478   8.580   2.379
19174SOL    HW259420   1.607   8.563   2.456
19175SOL     OW59421   6.721   7.128   4.265
19175SOL    HW159422   6.761   7.057   4.216
19175SOL    HW259423   6.648   7.157   4.210
19176SOL     OW59424  10.541   0.955   9.086
19176SOL    HW159425  10.500   1.041   9.080
19176SOL    HW259426  10.499   0.904   9.017
19177SOL     OW59427   2.365  12.941   8.593
19177SOL    HW159428   2.342  12.937   8.685
19177SOL    HW259429   2.429  13.012   8.587
19178SOL     OW59430   2.161  14.308  14.100
19178SOL    HW159431   2.095  14.331  14.034
19178SOL    HW259432   2.227  14.378  14.093
19179SOL     OW59433  11.926  11.892  10.974
19179SOL    HW159434  11.916  11.797  10.983
19179SOL    HW259435  12.017  11.903  10.945
19180SOL     OW59436   6.972   6.877  13.530
19180SOL    HW159437   6.984   6.933  13.454
19180SOL    HW259438   7.049   6.821  13.531
19181SOL     OW59439   4.318  11.053   2.019
19181SOL    HW159440   4.405  11.087   1.998
19181SOL    HW259441   4.294  11.000   1.943
19182SOL     OW59442  14.759   8.539  11.444
19182SOL    HW159443  14.730   8.590  11.519
19182SOL    HW259444  14.680   8.524  11.393
19183SOL     OW59445  12.443  13.112   7.858
19183SOL    HW159446  12.467  13.027   7.821
19183SOL    HW259447  12.348  13.105   7.874
19184SOL     OW59448   5.213   4.588   9.477
19184SOL    HW159449   5.157   4.591   9.554
19184SOL    HW259450   5.222   4.679   9.450
19185SOL     OW59451   5.682  14.844   2.146
19185SOL    HW159452   5.686  14.755   2.113
19185SOL    HW259453   5.695   0.020   2.069
19186SOL     OW59454   4.437   7.862   1.078
19186SOL    HW159455   4.477   7.804   1.013
19186SOL    HW259456   4.344   7.839   1.077
19187SOL     OW59457  12.240  11.247   6.085
19187SOL    HW159458  12.213  11.156   6.085
19187SOL    HW259459  12.336  11.244   6.080
19188SOL     OW59460   3.476   6.923  11.204
19188SOL    HW159461   3.526   6.994  11.164
19188SOL    HW259462   3.536   6.884  11.268
19189SOL     OW59463   8.907  10.209  12.410
19189SOL    HW159464   8.905  10.304  12.408
19189SOL    HW259465   8.827  10.182  12.366
19190SOL     OW59466   4.988   5.157  11.260
19190SOL    HW159467   5.027   5.097  11.324
19190SOL    HW259468   5.004   5.244  11.297
19191SOL     OW59469   2.834   1.263  14.557
19191SOL    HW159470   2.753   1.211  14.562
19191SOL    HW259471   2.867   1.264  14.647
19192SOL     OW59472   7.218  11.966  11.921
19192SOL    HW159473   7.274  11.889  11.936
19192SOL    HW259474   7.229  12.019  11.999
19193SOL     OW59475  13.045   8.769   1.027
19193SOL    HW159476  13.082   8.716   0.956
19193SOL    HW259477  13.022   8.852   0.985
19194SOL     OW59478   0.106   6.452  14.119
19194SOL    HW159479   0.136   6.470  14.208
19194SOL    HW259480   0.184   6.463  14.065
19195SOL     OW59481  13.476   8.958   2.319
19195SOL    HW159482  13.452   8.874   2.358
19195SOL    HW259483  13.408   9.019   2.348
19196SOL     OW59484   3.139   5.080   7.852
19196SOL    HW159485   3.154   5.112   7.941
19196SOL    HW259486   3.198   5.006   7.842
19197SOL     OW59487   5.899   5.821  10.065
19197SOL    HW159488   5.962   5.875  10.112
19197SOL    HW259489   5.920   5.731  10.090
19198SOL     OW59490   7.212   3.925   3.992
19198SOL    HW159491   7.295   3.917   3.945
19198SOL    HW259492   7.147   3.888   3.932
19199SOL     OW59493   9.808   4.759  14.252
19199SOL    HW159494   9.846   4.673  14.266
19199SOL    HW259495   9.743   4.768  14.322
19200SOL     OW59496   9.014   1.901   2.150
19200SOL    HW159497   9.078   1.955   2.197
19200SOL    HW259498   9.008   1.821   2.202
19201SOL     OW59499   8.096   6.857   9.516
19201SOL    HW159500   8.124   6.942   9.483
19201SOL    HW259501   8.160   6.835   9.584
19202SOL     OW59502   8.460  13.381   9.925
19202SOL    HW159503   8.403  13.332   9.984
19202SOL    HW259504   8.427  13.360   9.837
19203SOL     OW59505  14.604   1.811   1.717
19203SOL    HW159506  14.522   1.828   1.763
19203SOL    HW259507  14.600   1.867   1.640
19204SOL     OW59508  13.833   0.093  14.517
19204SOL    HW159509  13.876   0.145  14.449
19204SOL    HW259510  13.749   0.069  14.479
19205SOL     OW59511   6.105  10.909   4.017
19205SOL    HW159512   6.071  10.975   3.958
19205SOL    HW259513   6.072  10.826   3.983
19206SOL     OW59514   6.785   4.544  12.728
19206SOL    HW159515   6.779   4.633  12.693
19206SOL    HW259516   6.707   4.499  12.696
19207SOL     OW59517  10.748  12.292   4.786
19207SOL    HW159518  10.732  12.203   4.819
19207SOL    HW259519  10.697  12.348   4.845
19208SOL     OW59520   4.063   9.543   7.542
19208SOL    HW159521   4.097   9.462   7.503
19208SOL    HW259522   3.968   9.530   7.546
19209SOL     OW59523   5.969  13.190   3.586
19209SOL    HW159524   6.022  13.170   3.663
19209SOL    HW259525   6.031  13.222   3.521
19210SOL     OW59526   7.937   9.812   0.663
19210SOL    HW159527   7.866   9.824   0.600
19210SOL    HW259528   7.984   9.734   0.631
19211SOL     OW59529   6.098   9.085  12.691
19211SOL    HW159530   6.149   9.009  12.662
19211SOL    HW259531   6.050   9.054  12.767
19212SOL     OW59532   4.159   1.313   1.536
19212SOL    HW159533   4.210   1.355   1.467
19212SOL    HW259534   4.207   1.334   1.617
19213SOL     OW59535   0.647  14.197  12.979
19213SOL    HW159536   0.666  14.275  13.031
19213SOL    HW259537   0.552  14.188  12.983
19214SOL     OW59538   3.784   8.083   8.753
19214SOL    HW159539   3.689   8.072   8.751
19214SOL    HW259540   3.798   8.170   8.788
19215SOL     OW59541   9.595   0.147   7.593
19215SOL    HW159542   9.615   0.240   7.604
19215SOL    HW259543   9.520   0.131   7.650
19216SOL     OW59544  14.268   8.008   7.287
19216SOL    HW159545  14.294   7.941   7.225
19216SOL    HW259546  14.235   7.959   7.363
19217SOL     OW59547   3.193  12.251   1.446
19217SOL    HW159548   3.125  12.183   1.444
19217SOL    HW259549   3.149  12.329   1.411
19218SOL     OW59550  14.138   2.050   7.967
19218SOL    HW159551  14.218   2.000   7.950
19218SOL    HW259552  14.151   2.089   8.053
19219SOL     OW59553   6.276   0.122   4.187
19219SOL    HW159554   6.355   0.071   4.172
19219SOL    HW259555   6.210   0.081   4.130
19220SOL     OW59556   1.620   3.834   1.140
19220SOL    HW159557   1.646   3.841   1.048
19220SOL    HW259558   1.607   3.741   1.154
19221SOL     OW59559   9.296   9.246   9.734
19221SOL    HW159560   9.344   9.190   9.673
19221SOL    HW259561   9.210   9.259   9.693
19222SOL     OW59562   8.729   8.150   6.095
19222SOL    HW159563   8.696   8.088   6.160
19222SOL    HW259564   8.735   8.099   6.014
19223SOL     OW59565  10.443   3.961   6.582
19223SOL    HW159566  10.455   4.042   6.531
19223SOL    HW259567  10.528   3.918   6.579
19224SOL     OW59568   6.600   5.969   2.529
19224SOL    HW159569   6.668   6.013   2.580
19224SOL    HW259570   6.648   5.907   2.474
19225SOL     OW59571   0.409   1.817  11.345
19225SOL    HW159572   0.343   1.791  11.410
19225SOL    HW259573   0.488   1.833  11.397
19226SOL     OW59574   7.504   5.147  14.347
19226SOL    HW159575   7.457   5.226  14.320
19226SOL    HW259576   7.558   5.174  14.421
19227SOL     OW59577  14.360   0.626   1.515
19227SOL    HW159578  14.435   0.655   1.464
19227SOL    HW259579  14.388   0.633   1.606
19228SOL     OW59580   6.257  11.303  13.680
19228SOL    HW159581   6.170  11.309  13.643
19228SOL    HW259582   6.305  11.245  13.621
19229SOL     OW59583   0.605   0.049  10.641
19229SOL    HW159584   0.538   0.075  10.578
19229SOL    HW259585   0.687   0.054  10.591
19230SOL     OW59586   8.265  14.337   8.165
19230SOL    HW159587   8.323  14.413   8.171
19230SOL    HW259588   8.214  14.340   8.246
19231SOL     OW59589   8.242  14.368  13.868
19231SOL    HW159590   8.326  14.334  13.898
19231SOL    HW259591   8.180  14.296  13.884
19232SOL     OW59592   5.014  12.770   1.910
19232SOL    HW159593   5.025  12.701   1.976
19232SOL    HW259594   5.064  12.844   1.944
19233SOL     OW59595   4.258   0.036  11.282
19233SOL    HW159596   4.275  14.824  11.303
19233SOL    HW259597   4.220   0.034  11.195
19234SOL     OW59598   8.986   6.627   3.480
19234SOL    HW159599   9.003   6.570   3.556
19234SOL    HW259600   9.021   6.578   3.406
19235SOL     OW59601  14.569   4.033  10.236
19235SOL    HW159602  14.505   3.965  10.218
19235SOL    HW259603  14.524   4.115  10.214
19236SOL     OW59604   2.443   7.098  12.558
19236SOL    HW159605   2.393   7.106  12.639
19236SOL    HW259606   2.377   7.103  12.489
19237SOL     OW59607   8.564  10.940   0.691
19237SOL    HW159608   8.478  10.897   0.695
19237SOL    HW259609   8.626  10.873   0.717
19238SOL     OW59610  12.293   2.148  13.912
19238SOL    HW159611  12.327   2.174  13.826
19238SOL    HW259612  12.326   2.060  13.926
19239SOL     OW59613   8.116   4.966   9.476
19239SOL    HW159614   8.203   4.941   9.507
19239SOL    HW259615   8.125   4.972   9.381
19240SOL     OW59616  14.169   5.885   5.213
19240SOL    HW159617  14.113   5.943   5.265
19240SOL    HW259618  14.140   5.897   5.123
19241SOL     OW59619   1.133   7.898   2.187
19241SOL    HW159620   1.060   7.882   2.128
19241SOL    HW259621   1.125   7.831   2.255
19242SOL     OW59622   1.155   5.583   3.865
19242SOL    HW159623   1.201   5.661   3.897
19242SOL    HW259624   1.166   5.519   3.936
19243SOL     OW59625   5.582   9.521   8.941
19243SOL    HW159626   5.656   9.567   8.982
19243SOL    HW259627   5.504   9.565   8.976
19244SOL     OW59628  13.153   6.693   7.876
19244SOL    HW159629  13.220   6.625   7.887
19244SOL    HW259630  13.174   6.759   7.942
19245SOL     OW59631  13.346   5.080   3.738
19245SOL    HW159632  13.347   5.042   3.650
19245SOL    HW259633  13.255   5.076   3.765
19246SOL     OW59634   6.641  11.134  11.474
19246SOL    HW159635   6.704  11.148  11.404
19246SOL    HW259636   6.560  11.176  11.443
19247SOL     OW59637  10.013  12.791  12.076
19247SOL    HW159638  10.088  12.786  12.017
19247SOL    HW259639  10.027  12.871  12.126
19248SOL     OW59640   4.636  11.462   3.139
19248SOL    HW159641   4.568  11.395   3.139
19248SOL    HW259642   4.698  11.434   3.072
19249SOL     OW59643  11.072   7.477  10.990
19249SOL    HW159644  11.071   7.525  11.073
19249SOL    HW259645  11.162   7.449  10.979
19250SOL     OW59646   0.396   7.106   1.000
19250SOL    HW159647   0.310   7.065   1.011
19250SOL    HW259648   0.452   7.037   0.965
19251SOL     OW59649   3.037   5.312  10.387
19251SOL    HW159650   2.976   5.360  10.331
19251SOL    HW259651   2.987   5.236  10.418
19252SOL     OW59652   3.253   4.915   6.935
19252SOL    HW159653   3.186   4.981   6.919
19252SOL    HW259654   3.218   4.862   7.007
19253SOL     OW59655   8.260  10.798   4.394
19253SOL    HW159656   8.181  10.753   4.367
19253SOL    HW259657   8.236  10.890   4.397
19254SOL     OW59658  13.975   7.468   0.052
19254SOL    HW159659  13.880   7.474   0.048
19254SOL    HW259660  14.006   7.556   0.030
19255SOL     OW59661  13.045   1.777  10.876
19255SOL    HW159662  13.031   1.871  10.890
19255SOL    HW259663  13.136   1.772  10.846
19256SOL     OW59664   7.913  12.569  12.457
19256SOL    HW159665   7.839  12.625  12.432
19256SOL    HW259666   7.910  12.496  12.396
19257SOL     OW59667   9.281   0.189   1.536
19257SOL    HW159668   9.244   0.190   1.624
19257SOL    HW259669   9.211   0.156   1.480
19258SOL     OW59670   8.461   0.363  14.186
19258SOL    HW159671   8.551   0.394  14.183
19258SOL    HW259672   8.425   0.401  14.266
19259SOL     OW59673   6.659   0.105   3.192
19259SOL    HW159674   6.709   0.025   3.176
19259SOL    HW259675   6.667   0.120   3.286
19260SOL     OW59676  10.309  11.388   2.244
19260SOL    HW159677  10.361  11.385   2.164
19260SOL    HW259678  10.292  11.481   2.259
19261SOL     OW59679  14.111   7.524   1.819
19261SOL    HW159680  14.137   7.596   1.877
19261SOL    HW259681  14.117   7.561   1.731
19262SOL     OW59682   0.337   7.881   0.250
19262SOL    HW159683   0.378   7.797   0.227
19262SOL    HW259684   0.398   7.947   0.216
19263SOL     OW59685  14.559   6.454   0.114
19263SOL    HW159686  14.533   6.414   0.197
19263SOL    HW259687  14.647   6.488   0.129
19264SOL     OW59688   9.393  12.787   4.155
19264SOL    HW159689   9.347  12.768   4.237
19264SOL    HW259690   9.324  12.809   4.093
19265SOL     OW59691   5.206   4.885   2.610
19265SOL    HW159692   5.180   4.793   2.613
19265SOL    HW259693   5.279   4.892   2.672
19266SOL     OW59694   9.511   9.574  10.748
19266SOL    HW159695   9.465   9.656  10.767
19266SOL    HW259696   9.442   9.512  10.727
19267SOL     OW59697   5.366   9.145  12.273
19267SOL    HW159698   5.293   9.132  12.212
19267SOL    HW259699   5.376   9.059  12.315
19268SOL     OW59700   9.605  10.700   9.898
19268SOL    HW159701   9.656  10.627   9.864
19268SOL    HW259702   9.668  10.770   9.913
19269SOL     OW59703   7.968  14.653   5.756
19269SOL    HW159704   7.907  14.725   5.768
19269SOL    HW259705   8.034  14.687   5.696
19270SOL     OW59706  10.529   1.471   9.829
19270SOL    HW159707  10.473   1.535   9.872
19270SOL    HW259708  10.561   1.416   9.900
19271SOL     OW59709  14.659   9.670  10.124
19271SOL    HW159710  14.747   9.660  10.089
19271SOL    HW259711  14.669   9.659  10.219
19272SOL     OW59712  12.707   8.872  10.707
19272SOL    HW159713  12.693   8.782  10.678
19272SOL    HW259714  12.766   8.909  10.642
19273SOL     OW59715   5.355   5.776   5.327
19273SOL    HW159716   5.304   5.836   5.382
19273SOL    HW259717   5.337   5.689   5.363
19274SOL     OW59718   2.874   2.372  12.458
19274SOL    HW159719   2.948   2.358  12.518
19274SOL    HW259720   2.828   2.288  12.458
19275SOL     OW59721   7.001  11.647  13.654
19275SOL    HW159722   7.017  11.721  13.712
19275SOL    HW259723   6.964  11.685  13.575
19276SOL     OW59724  13.071   3.577   2.218
19276SOL    HW159725  13.113   3.498   2.250
19276SOL    HW259726  13.073   3.638   2.291
19277SOL     OW59727   0.255   3.862   3.920
19277SOL    HW159728   0.189   3.807   3.962
19277SOL    HW259729   0.329   3.863   3.981
19278SOL     OW59730   8.612  10.958   9.620
19278SOL    HW159731   8.659  10.987   9.542
19278SOL    HW259732   8.523  10.940   9.589
19279SOL     OW59733   2.627   1.444   7.835
19279SOL    HW159734   2.574   1.468   7.758
19279SOL    HW259735   2.651   1.353   7.820
19280SOL     OW59736   4.115  13.376   1.585
19280SOL    HW159737   4.200  13.335   1.568
19280SOL    HW259738   4.102  13.366   1.679
19281SOL     OW59739   3.012   3.494   4.774
19281SOL    HW159740   3.010   3.414   4.826
19281SOL    HW259741   3.006   3.463   4.683
19282SOL     OW59742   2.676   2.625   1.594
19282SOL    HW159743   2.737   2.696   1.613
19282SOL    HW259744   2.613   2.662   1.532
19283SOL     OW59745  10.152   3.766   4.768
19283SOL    HW159746  10.229   3.716   4.795
19283SOL    HW259747  10.185   3.826   4.702
19284SOL     OW59748   7.331   9.415   5.323
19284SOL    HW159749   7.343   9.502   5.284
19284SOL    HW259750   7.311   9.358   5.249
19285SOL     OW59751   3.047  10.382   4.228
19285SOL    HW159752   3.041  10.291   4.201
19285SOL    HW259753   2.987  10.389   4.303
19286SOL     OW59754  11.336   5.887   3.666
19286SOL    HW159755  11.375   5.800   3.676
19286SOL    HW259756  11.247   5.877   3.698
19287SOL     OW59757   1.737   4.174   1.792
19287SOL    HW159758   1.693   4.256   1.773
19287SOL    HW259759   1.808   4.198   1.852
19288SOL     OW59760   0.748   8.195   4.792
19288SOL    HW159761   0.702   8.139   4.729
19288SOL    HW259762   0.840   8.168   4.784
19289SOL     OW59763  13.613  13.288  12.816
19289SOL    HW159764  13.545  13.348  12.846
19289SOL    HW259765  13.621  13.305  12.722
19290SOL     OW59766   0.792   4.917  10.188
19290SOL    HW159767   0.835   5.001  10.201
19290SOL    HW259768   0.778   4.883  10.277
19291SOL     OW59769  14.501   4.714   8.184
19291SOL    HW159770  14.548   4.720   8.101
19291SOL    HW259771  14.545   4.643   8.231
19292SOL     OW59772   1.253   0.222   2.647
19292SOL    HW159773   1.300   0.274   2.712
19292SOL    HW259774   1.296   0.243   2.564
19293SOL     OW59775  10.299  14.855  11.083
19293SOL    HW159776  10.334   0.010  11.001
19293SOL    HW259777  10.367  14.798  11.117
19294SOL     OW59778   0.422   2.572  12.601
19294SOL    HW159779   0.469   2.547  12.680
19294SOL    HW259780   0.353   2.631  12.632
19295SOL     OW59781   6.561   8.579   0.348
19295SOL    HW159782   6.592   8.654   0.399
19295SOL    HW259783   6.476   8.606   0.313
19296SOL     OW59784  10.179   3.590   3.047
19296SOL    HW159785  10.231   3.526   2.999
19296SOL    HW259786  10.150   3.545   3.126
19297SOL     OW59787   0.250  12.385  10.755
19297SOL    HW159788   0.256  12.304  10.704
19297SOL    HW259789   0.285  12.452  10.697
19298SOL     OW59790  11.670  14.659   3.647
19298SOL    HW159791  11.727  14.625   3.716
19298SOL    HW259792  11.582  14.646   3.681
19299SOL     OW59793  12.649   2.308  14.737
19299SOL    HW159794  12.724   2.249  14.738
19299SOL    HW259795  12.656   2.358  14.818
19300SOL     OW59796   9.567  14.465  13.587
19300SOL    HW159797   9.482  14.426  13.568
19300SOL    HW259798   9.631  14.398  13.561
19301SOL     OW59799   3.280  10.282   2.758
19301SOL    HW159800   3.243  10.363   2.793
19301SOL    HW259801   3.206  10.238   2.716
19302SOL     OW59802   4.712  12.661  12.934
19302SOL    HW159803   4.618  12.668  12.951
19302SOL    HW259804   4.732  12.569  12.948
19303SOL     OW59805   5.119  12.192   0.416
19303SOL    HW159806   5.185  12.156   0.475
19303SOL    HW259807   5.043  12.135   0.426
19304SOL     OW59808   8.006  14.082   7.371
19304SOL    HW159809   8.003  14.089   7.466
19304SOL    HW259810   8.029  13.991   7.353
19305SOL     OW59811  10.183   2.066  13.620
19305SOL    HW159812  10.181   1.977  13.654
19305SOL    HW259813  10.150   2.058  13.530
19306SOL     OW59814   8.175   7.817   8.096
19306SOL    HW159815   8.133   7.748   8.147
19306SOL    HW259816   8.107   7.847   8.036
19307SOL     OW59817   2.868  10.918   5.940
19307SOL    HW159818   2.819  10.876   6.011
19307SOL    HW259819   2.953  10.940   5.979
19308SOL     OW59820   0.842   7.652  12.693
19308SOL    HW159821   0.797   7.681  12.772
19308SOL    HW259822   0.880   7.568  12.717
19309SOL     OW59823   9.205   4.495  14.436
19309SOL    HW159824   9.196   4.503  14.341
19309SOL    HW259825   9.156   4.416  14.458
19310SOL     OW59826  13.853   0.298   7.606
19310SOL    HW159827  13.867   0.225   7.547
19310SOL    HW259828  13.835   0.258   7.691
19311SOL     OW59829  13.606   0.891   8.427
19311SOL    HW159830  13.625   0.918   8.517
19311SOL    HW259831  13.692   0.892   8.384
19312SOL     OW59832   9.386  13.083   1.507
19312SOL    HW159833   9.340  13.002   1.482
19312SOL    HW259834   9.472  13.075   1.465
19313SOL     OW59835   6.582   9.609   1.604
19313SOL    HW159836   6.606   9.689   1.650
19313SOL    HW259837   6.665   9.566   1.585
19314SOL     OW59838  14.140   9.689  14.645
19314SOL    HW159839  14.081   9.619  14.672
19314SOL    HW259840  14.223   9.644  14.628
19315SOL     OW59841  12.383   6.012   5.832
19315SOL    HW159842  12.307   6.046   5.786
19315SOL    HW259843  12.375   5.917   5.826
19316SOL     OW59844  12.466   1.992   4.672
19316SOL    HW159845  12.434   2.078   4.699
19316SOL    HW259846  12.558   1.991   4.698
19317SOL     OW59847   5.191   2.670   2.218
19317SOL    HW159848   5.116   2.681   2.160
19317SOL    HW259849   5.153   2.638   2.300
19318SOL     OW59850  11.505  10.354   4.681
19318SOL    HW159851  11.479  10.281   4.625
19318SOL    HW259852  11.434  10.362   4.744
19319SOL     OW59853   6.211  12.965   4.031
19319SOL    HW159854   6.187  13.020   4.106
19319SOL    HW259855   6.301  12.938   4.048
19320SOL     OW59856   4.766  13.301   7.635
19320SOL    HW159857   4.817  13.375   7.669
19320SOL    HW259858   4.681  13.308   7.680
19321SOL     OW59859   3.729   5.082   0.641
19321SOL    HW159860   3.712   5.005   0.696
19321SOL    HW259861   3.687   5.062   0.557
19322SOL     OW59862   1.023   7.966  12.960
19322SOL    HW159863   0.974   7.891  12.996
19322SOL    HW259864   1.056   8.012  13.038
19323SOL     OW59865   5.252   5.233   1.265
19323SOL    HW159866   5.169   5.216   1.222
19323SOL    HW259867   5.316   5.239   1.194
19324SOL     OW59868   0.790  14.243   5.719
19324SOL    HW159869   0.796  14.150   5.741
19324SOL    HW259870   0.700  14.253   5.686
19325SOL     OW59871  14.686   5.763  13.749
19325SOL    HW159872  14.774   5.766  13.788
19325SOL    HW259873  14.640   5.696  13.798
19326SOL     OW59874   6.311   7.594  12.846
19326SOL    HW159875   6.305   7.606  12.941
19326SOL    HW259876   6.307   7.682  12.810
19327SOL     OW59877   4.463   2.836   4.693
19327SOL    HW159878   4.556   2.825   4.712
19327SOL    HW259879   4.439   2.759   4.641
19328SOL     OW59880   1.428  10.537   5.476
19328SOL    HW159881   1.493  10.559   5.542
19328SOL    HW259882   1.453  10.589   5.399
19329SOL     OW59883   9.130  11.594   4.152
19329SOL    HW159884   9.156  11.550   4.071
19329SOL    HW259885   9.099  11.523   4.208
19330SOL     OW59886   9.313  10.337   0.209
19330SOL    HW159887   9.384  10.308   0.152
19330SOL    HW259888   9.247  10.372   0.149
19331SOL     OW59889   0.889  10.990   9.503
19331SOL    HW159890   0.911  11.082   9.492
19331SOL    HW259891   0.804  10.980   9.459
19332SOL     OW59892  10.742   1.629   8.177
19332SOL    HW159893  10.682   1.580   8.122
19332SOL    HW259894  10.788   1.688   8.116
19333SOL     OW59895  13.505  10.269  12.388
19333SOL    HW159896  13.537  10.188  12.427
19333SOL    HW259897  13.545  10.272  12.301
19334SOL     OW59898   8.931  14.066  12.801
19334SOL    HW159899   8.851  14.022  12.774
19334SOL    HW259900   8.998  13.998  12.797
19335SOL     OW59901   0.940   1.126   7.513
19335SOL    HW159902   1.029   1.126   7.477
19335SOL    HW259903   0.942   1.190   7.584
19336SOL     OW59904  13.163   5.640   8.588
19336SOL    HW159905  13.177   5.610   8.498
19336SOL    HW259906  13.244   5.686   8.610
19337SOL     OW59907   7.704   5.625   4.113
19337SOL    HW159908   7.749   5.582   4.040
19337SOL    HW259909   7.768   5.687   4.147
19338SOL     OW59910   2.721   8.015   4.059
19338SOL    HW159911   2.778   7.939   4.070
19338SOL    HW259912   2.684   8.031   4.146
19339SOL     OW59913  14.084  12.066  12.376
19339SOL    HW159914  14.158  12.049  12.434
19339SOL    HW259915  14.108  12.023  12.294
19340SOL     OW59916  12.361   8.685  14.545
19340SOL    HW159917  12.266   8.681  14.535
19340SOL    HW259918  12.375   8.735  14.626
19341SOL     OW59919  10.850   0.772  10.254
19341SOL    HW159920  10.896   0.843  10.208
19341SOL    HW259921  10.797   0.731  10.186
19342SOL     OW59922  12.177   3.147  13.877
19342SOL    HW159923  12.221   3.084  13.933
19342SOL    HW259924  12.210   3.232  13.906
19343SOL     OW59925   7.324   6.089   1.971
19343SOL    HW159926   7.253   6.092   2.035
19343SOL    HW259927   7.321   6.000   1.935
19344SOL     OW59928  11.276  12.502   3.216
19344SOL    HW159929  11.263  12.597   3.215
19344SOL    HW259930  11.356  12.488   3.165
19345SOL     OW59931  13.825   6.548  10.287
19345SOL    HW159932  13.887   6.485  10.324
19345SOL    HW259933  13.816   6.522  10.196
19346SOL     OW59934  12.676   0.407   9.215
19346SOL    HW159935  12.703   0.453   9.295
19346SOL    HW259936  12.711   0.461   9.144
19347SOL     OW59937  10.053   3.052   4.905
19347SOL    HW159938  10.063   3.079   4.814
19347SOL    HW259939  10.031   2.959   4.901
19348SOL     OW59940   0.215   4.617   2.695
19348SOL    HW159941   0.249   4.569   2.770
19348SOL    HW259942   0.293   4.639   2.643
19349SOL     OW59943   8.412  11.480  12.577
19349SOL    HW159944   8.467  11.439  12.510
19349SOL    HW259945   8.468  11.545  12.619
19350SOL     OW59946  10.228   2.468  14.609
19350SOL    HW159947  10.223   2.372  14.604
19350SOL    HW259948  10.178   2.490  14.687
19351SOL     OW59949   7.955  13.414  12.049
19351SOL    HW159950   7.916  13.496  12.019
19351SOL    HW259951   8.036  13.441  12.092
19352SOL     OW59952   4.357   9.951   2.406
19352SOL    HW159953   4.331   9.867   2.444
19352SOL    HW259954   4.304  10.015   2.452
19353SOL     OW59955  10.185  10.096   8.053
19353SOL    HW159956  10.243  10.167   8.026
19353SOL    HW259957  10.224  10.062   8.134
19354SOL     OW59958   8.110   4.547  11.067
19354SOL    HW159959   8.037   4.609  11.070
19354SOL    HW259960   8.117   4.523  10.974
19355SOL     OW59961   7.373   4.204   3.913
19355SOL    HW159962   7.448   4.152   3.885
19355SOL    HW259963   7.356   4.176   4.003
19356SOL     OW59964   2.260   6.745  14.276
19356SOL    HW159965   2.335   6.751  14.218
19356SOL    HW259966   2.210   6.825  14.259
19357SOL     OW59967   9.430   4.638   5.856
19357SOL    HW159968   9.373   4.612   5.928
19357SOL    HW259969   9.412   4.574   5.786
19358SOL     OW59970  10.865  12.888   2.268
19358SOL    HW159971  10.780  12.928   2.284
19358SOL    HW259972  10.928  12.955   2.291
19359SOL     OW59973   9.263  12.040  14.327
19359SOL    HW159974   9.246  11.946  14.333
19359SOL    HW259975   9.204  12.079  14.392
19360SOL     OW59976   8.141  14.427  14.334
19360SOL    HW159977   8.197  14.395  14.264
19360SOL    HW259978   8.064  14.463  14.289
19361SOL     OW59979   1.943   6.396   8.347
19361SOL    HW159980   2.001   6.394   8.271
19361SOL    HW259981   1.956   6.311   8.389
19362SOL     OW59982   9.023   3.697   3.448
19362SOL    HW159983   9.096   3.711   3.387
19362SOL    HW259984   9.043   3.754   3.523
19363SOL     OW59985  12.778   6.000  10.339
19363SOL    HW159986  12.826   6.056  10.400
19363SOL    HW259987  12.695   6.047  10.324
19364SOL     OW59988  13.878   6.977   9.993
19364SOL    HW159989  13.783   6.976  10.001
19364SOL    HW259990  13.911   6.967  10.082
19365SOL     OW59991   1.150  13.106  10.115
19365SOL    HW159992   1.242  13.131  10.120
19365SOL    HW259993   1.150  13.022  10.070
19366SOL     OW59994   1.848   3.862  14.501
19366SOL    HW159995   1.940   3.866  14.473
19366SOL    HW259996   1.810   3.943  14.467
19367SOL     OW59997  13.389  12.029   2.541
19367SOL    HW159998  13.407  11.940   2.510
19367SOL    HW259999  13.458  12.047   2.605
19368SOL     OW60000   4.222   5.357  11.749
19368SOL    HW160001   4.230   5.452  11.737
19368SOL    HW260002   4.266   5.319  11.673
19369SOL     OW60003  13.773   9.995   5.868
19369SOL    HW160004  13.754  10.070   5.925
19369SOL    HW260005  13.820   9.933   5.924
19370SOL     OW60006   7.522  13.112   6.913
19370SOL    HW160007   7.437  13.130   6.875
19370SOL    HW260008   7.512  13.028   6.957
19371SOL     OW60009   2.061   7.478   3.641
19371SOL    HW160010   2.023   7.415   3.703
19371SOL    HW260011   1.989   7.539   3.623
19372SOL     OW60012  13.803   8.051   9.173
19372SOL    HW160013  13.725   8.089   9.213
19372SOL    HW260014  13.834   7.988   9.238
19373SOL     OW60015   1.137  12.306  14.824
19373SOL    HW160016   1.050  12.344  14.827
19373SOL    HW260017   1.129  12.223  14.870
19374SOL     OW60018  11.025   3.584   1.904
19374SOL    HW160019  10.952   3.622   1.855
19374SOL    HW260020  11.088   3.557   1.837
19375SOL     OW60021  11.099   1.492  13.228
19375SOL    HW160022  11.028   1.526  13.173
19375SOL    HW260023  11.179   1.517  13.182
19376SOL     OW60024  10.922   3.045   5.373
19376SOL    HW160025  10.917   3.019   5.465
19376SOL    HW260026  10.872   3.127   5.369
19377SOL     OW60027   4.494   9.632   3.986
19377SOL    HW160028   4.529   9.578   3.915
19377SOL    HW260029   4.461   9.569   4.050
19378SOL     OW60030  13.536   8.022   5.618
19378SOL    HW160031  13.567   7.945   5.665
19378SOL    HW260032  13.441   8.024   5.635
19379SOL     OW60033  11.474   4.139   5.104
19379SOL    HW160034  11.407   4.127   5.171
19379SOL    HW260035  11.544   4.187   5.149
19380SOL     OW60036   4.843   4.993  13.704
19380SOL    HW160037   4.835   5.026  13.794
19380SOL    HW260038   4.864   5.071  13.652
19381SOL     OW60039   3.587  11.167   1.841
19381SOL    HW160040   3.533  11.183   1.919
19381SOL    HW260041   3.660  11.228   1.850
19382SOL     OW60042  12.141   1.506   0.873
19382SOL    HW160043  12.122   1.551   0.791
19382SOL    HW260044  12.121   1.414   0.856
19383SOL     OW60045  12.969   1.784   9.304
19383SOL    HW160046  13.052   1.829   9.290
19383SOL    HW260047  12.946   1.805   9.395
19384SOL     OW60048   9.524   5.382   7.048
19384SOL    HW160049   9.434   5.407   7.028
19384SOL    HW260050   9.530   5.291   7.020
19385SOL     OW60051   2.109   3.710  12.706
19385SOL    HW160052   2.183   3.737  12.761
19385SOL    HW260053   2.121   3.757  12.624
19386SOL     OW60054   1.195   4.888   5.967
19386SOL    HW160055   1.254   4.870   5.894
19386SOL    HW260056   1.249   4.874   6.045
19387SOL     OW60057   6.940   4.505   3.112
19387SOL    HW160058   6.904   4.556   3.039
19387SOL    HW260059   6.968   4.570   3.176
19388SOL     OW60060  14.093   4.945   9.865
19388SOL    HW160061  14.019   4.992   9.904
19388SOL    HW260062  14.147   5.013   9.824
19389SOL     OW60063   6.474   6.475   0.322
19389SOL    HW160064   6.561   6.501   0.351
19389SOL    HW260065   6.449   6.541   0.257
19390SOL     OW60066   8.822  14.518  13.731
19390SOL    HW160067   8.808  14.426  13.710
19390SOL    HW260068   8.779  14.565  13.659
19391SOL     OW60069   7.709   5.001  12.944
19391SOL    HW160070   7.772   5.044  12.888
19391SOL    HW260071   7.699   4.913  12.906
19392SOL     OW60072  11.175   2.892   9.897
19392SOL    HW160073  11.233   2.870   9.970
19392SOL    HW260074  11.172   2.812   9.844
19393SOL     OW60075   4.579   4.825   6.617
19393SOL    HW160076   4.540   4.780   6.691
19393SOL    HW260077   4.549   4.916   6.625
19394SOL     OW60078  13.432   1.699   1.887
19394SOL    HW160079  13.421   1.694   1.982
19394SOL    HW260080  13.521   1.666   1.872
19395SOL     OW60081  11.475   1.447   0.800
19395SOL    HW160082  11.543   1.387   0.770
19395SOL    HW260083  11.429   1.473   0.720
19396SOL     OW60084  10.129   3.423  13.105
19396SOL    HW160085  10.155   3.515  13.100
19396SOL    HW260086  10.176   3.381  13.033
19397SOL     OW60087   4.146  14.821   0.299
19397SOL    HW160088   4.218  14.841   0.358
19397SOL    HW260089   4.071  14.870   0.333
19398SOL     OW60090  14.209   2.859   6.833
19398SOL    HW160091  14.128   2.869   6.782
19398SOL    HW260092  14.240   2.949   6.845
19399SOL     OW60093  13.264  12.603   1.124
19399SOL    HW160094  13.342  12.658   1.118
19399SOL    HW260095  13.239  12.588   1.033
19400SOL     OW60096  12.910  10.767   0.476
19400SOL    HW160097  12.905  10.852   0.432
19400SOL    HW260098  13.001  10.761   0.504
19401SOL     OW60099   3.762  11.341  10.096
19401SOL    HW160100   3.784  11.415  10.152
19401SOL    HW260101   3.841  11.287  10.093
19402SOL     OW60102   3.928  11.053   5.414
19402SOL    HW160103   3.983  11.014   5.346
19402SOL    HW260104   3.954  11.145   5.417
19403SOL     OW60105   8.774   8.902   7.924
19403SOL    HW160106   8.850   8.939   7.969
19403SOL    HW260107   8.799   8.812   7.905
19404SOL     OW60108   9.059   9.465  13.567
19404SOL    HW160109   9.103   9.521  13.503
19404SOL    HW260110   9.082   9.504  13.652
19405SOL     OW60111  14.558   7.547   1.385
19405SOL    HW160112  14.510   7.578   1.462
19405SOL    HW260113  14.594   7.463   1.413
19406SOL     OW60114   4.883   2.515   6.195
19406SOL    HW160115   4.831   2.588   6.227
19406SOL    HW260116   4.973   2.538   6.216
19407SOL     OW60117  12.457   2.693  13.013
19407SOL    HW160118  12.445   2.788  13.001
19407SOL    HW260119  12.504   2.665  12.935
19408SOL     OW60120   9.471   6.208   9.452
19408SOL    HW160121   9.424   6.287   9.479
19408SOL    HW260122   9.549   6.241   9.408
19409SOL     OW60123   6.169   5.564   5.308
19409SOL    HW160124   6.078   5.580   5.282
19409SOL    HW260125   6.217   5.640   5.274
19410SOL     OW60126   0.695   7.495  13.379
19410SOL    HW160127   0.668   7.417  13.427
19410SOL    HW260128   0.765   7.464  13.320
19411SOL     OW60129  11.434   8.748   9.278
19411SOL    HW160130  11.354   8.733   9.227
19411SOL    HW260131  11.449   8.666   9.325
19412SOL     OW60132  12.776   3.928   7.874
19412SOL    HW160133  12.783   3.855   7.936
19412SOL    HW260134  12.865   3.965   7.870
19413SOL     OW60135  14.704   8.278   6.646
19413SOL    HW160136  14.653   8.359   6.643
19413SOL    HW260137  14.732   8.270   6.737
19414SOL     OW60138   3.692  12.520   3.380
19414SOL    HW160139   3.768  12.476   3.416
19414SOL    HW260140   3.725  12.605   3.350
19415SOL     OW60141   3.561  12.368   8.338
19415SOL    HW160142   3.489  12.427   8.313
19415SOL    HW260143   3.519  12.282   8.347
19416SOL     OW60144  14.867   1.492  10.459
19416SOL    HW160145  14.826   1.521  10.540
19416SOL    HW260146   0.076   1.528  10.461
19417SOL     OW60147   3.950  10.768   6.773
19417SOL    HW160148   3.954  10.699   6.840
19417SOL    HW260149   4.040  10.777   6.743
19418SOL     OW60150   3.138  10.576   1.356
19418SOL    HW160151   3.182  10.492   1.362
19418SOL    HW260152   3.091  10.585   1.439
19419SOL     OW60153   7.989  12.158  10.106
19419SOL    HW160154   7.997  12.243  10.149
19419SOL    HW260155   7.908  12.120  10.141
19420SOL     OW60156   4.709   5.178  10.755
19420SOL    HW160157   4.644   5.128  10.805
19420SOL    HW260158   4.703   5.267  10.789
19421SOL     OW60159   2.473   3.272   2.365
19421SOL    HW160160   2.557   3.255   2.321
19421SOL    HW260161   2.421   3.194   2.347
19422SOL     OW60162   5.846   6.362   5.264
19422SOL    HW160163   5.799   6.444   5.249
19422SOL    HW260164   5.833   6.344   5.357
19423SOL     OW60165   6.873   8.369  10.112
19423SOL    HW160166   6.957   8.415  10.104
19423SOL    HW260167   6.809   8.428  10.072
19424SOL     OW60168   2.315   1.856   4.140
19424SOL    HW160169   2.360   1.896   4.214
19424SOL    HW260170   2.242   1.807   4.179
19425SOL     OW60171   2.503  12.230  14.276
19425SOL    HW160172   2.483  12.262  14.188
19425SOL    HW260173   2.419  12.234  14.322
19426SOL     OW60174   2.685   1.113   9.485
19426SOL    HW160175   2.639   1.072   9.558
19426SOL    HW260176   2.651   1.068   9.407
19427SOL     OW60177   6.164   9.736   1.971
19427SOL    HW160178   6.157   9.774   2.058
19427SOL    HW260179   6.231   9.790   1.927
19428SOL     OW60180   9.424   9.463   7.216
19428SOL    HW160181   9.439   9.511   7.134
19428SOL    HW260182   9.332   9.478   7.236
19429SOL     OW60183   3.363  14.292   1.982
19429SOL    HW160184   3.389  14.375   1.940
19429SOL    HW260185   3.345  14.315   2.073
19430SOL     OW60186  11.632   5.844   9.101
19430SOL    HW160187  11.690   5.767   9.108
19430SOL    HW260188  11.690   5.918   9.116
19431SOL     OW60189   5.912   6.046  13.862
19431SOL    HW160190   5.971   6.114  13.832
19431SOL    HW260191   5.915   6.053  13.958
19432SOL     OW60192   9.931   3.961   2.053
19432SOL    HW160193   9.868   3.936   1.986
19432SOL    HW260194  10.002   4.003   2.005
19433SOL     OW60195  11.237  13.032   2.517
19433SOL    HW160196  11.251  12.968   2.587
19433SOL    HW260197  11.325  13.062   2.495
19434SOL     OW60198  10.144   1.336  11.256
19434SOL    HW160199  10.195   1.331  11.336
19434SOL    HW260200  10.203   1.376  11.192
19435SOL     OW60201   2.279  12.030   5.582
19435SOL    HW160202   2.262  12.101   5.520
19435SOL    HW260203   2.288  11.952   5.527
19436SOL     OW60204   9.213  13.263   2.653
19436SOL    HW160205   9.306  13.266   2.676
19436SOL    HW260206   9.211  13.280   2.559
19437SOL     OW60207   7.920   0.192   6.844
19437SOL    HW160208   7.969   0.261   6.800
19437SOL    HW260209   7.857   0.162   6.778
19438SOL     OW60210  12.103   5.497   7.533
19438SOL    HW160211  12.042   5.570   7.522
19438SOL    HW260212  12.161   5.524   7.603
19439SOL     OW60213   2.922   0.408  10.251
19439SOL    HW160214   2.988   0.478  10.254
19439SOL    HW260215   2.973   0.328  10.239
19440SOL     OW60216  10.403   2.818   2.771
19440SOL    HW160217  10.476   2.840   2.830
19440SOL    HW260218  10.349   2.758   2.822
19441SOL     OW60219   9.481   5.945  13.338
19441SOL    HW160220   9.416   5.911  13.400
19441SOL    HW260221   9.565   5.926  13.380
19442SOL     OW60222   7.993   4.741  11.834
19442SOL    HW160223   8.002   4.760  11.927
19442SOL    HW260224   8.059   4.798  11.792
19443SOL     OW60225   5.065   4.561  11.481
19443SOL    HW160226   5.034   4.633  11.537
19443SOL    HW260227   5.126   4.513  11.537
19444SOL     OW60228  11.887   8.090  13.233
19444SOL    HW160229  11.858   8.012  13.186
19444SOL    HW260230  11.979   8.100  13.207
19445SOL     OW60231   4.413   4.769   3.700
19445SOL    HW160232   4.491   4.760   3.645
19445SOL    HW260233   4.391   4.680   3.725
19446SOL     OW60234   6.581   0.661   1.617
19446SOL    HW160235   6.534   0.718   1.678
19446SOL    HW260236   6.560   0.696   1.530
19447SOL     OW60237  12.241   1.167   6.201
19447SOL    HW160238  12.152   1.200   6.186
19447SOL    HW260239  12.296   1.245   6.197
19448SOL     OW60240   4.562   2.066   7.395
19448SOL    HW160241   4.644   2.051   7.348
19448SOL    HW260242   4.518   1.981   7.394
19449SOL     OW60243   1.495   5.562  12.971
19449SOL    HW160244   1.460   5.624  13.035
19449SOL    HW260245   1.586   5.548  12.998
19450SOL     OW60246   5.083   2.752  14.073
19450SOL    HW160247   5.105   2.671  14.026
19450SOL    HW260248   5.006   2.730  14.124
19451SOL     OW60249  13.780  10.516   6.442
19451SOL    HW160250  13.738  10.571   6.508
19451SOL    HW260251  13.740  10.430   6.454
19452SOL     OW60252   8.009   1.914  12.589
19452SOL    HW160253   7.934   1.929  12.647
19452SOL    HW260254   7.974   1.926  12.501
19453SOL     OW60255   4.431   6.461   3.704
19453SOL    HW160256   4.514   6.469   3.752
19453SOL    HW260257   4.372   6.419   3.766
19454SOL     OW60258  10.817   8.424   2.677
19454SOL    HW160259  10.768   8.363   2.731
19454SOL    HW260260  10.794   8.511   2.711
19455SOL     OW60261  10.101   8.327   0.809
19455SOL    HW160262  10.186   8.335   0.851
19455SOL    HW260263  10.047   8.394   0.850
19456SOL     OW60264  14.082  10.149   7.841
19456SOL    HW160265  14.164  10.118   7.878
19456SOL    HW260266  14.105  10.228   7.793
19457SOL     OW60267  13.918  13.058   4.222
19457SOL    HW160268  13.998  13.098   4.189
19457SOL    HW260269  13.866  13.133   4.253
19458SOL     OW60270  11.739   5.962  13.113
19458SOL    HW160271  11.772   5.938  13.199
19458SOL    HW260272  11.715   6.055  13.121
19459SOL     OW60273  12.630   7.146  10.352
19459SOL    HW160274  12.563   7.133  10.285
19459SOL    HW260275  12.709   7.170  10.304
19460SOL     OW60276   2.240   5.082   9.421
19460SOL    HW160277   2.236   5.120   9.509
19460SOL    HW260278   2.251   5.157   9.363
19461SOL     OW60279  13.788  10.694  12.673
19461SOL    HW160280  13.779  10.768  12.733
19461SOL    HW260281  13.702  10.686  12.632
19462SOL     OW60282  14.327   1.905  10.673
19462SOL    HW160283  14.361   1.815  10.667
19462SOL    HW260284  14.396   1.959  10.636
19463SOL     OW60285   7.186   3.844   2.325
19463SOL    HW160286   7.208   3.895   2.247
19463SOL    HW260287   7.266   3.843   2.377
19464SOL     OW60288   5.441   4.255   9.264
19464SOL    HW160289   5.432   4.318   9.193
19464SOL    HW260290   5.353   4.218   9.275
19465SOL     OW60291  11.507  12.151  13.176
19465SOL    HW160292  11.474  12.067  13.145
19465SOL    HW260293  11.432  12.211  13.168
19466SOL     OW60294   6.156   9.881   3.716
19466SOL    HW160295   6.195   9.899   3.802
19466SOL    HW260296   6.070   9.924   3.720
19467SOL     OW60297  12.620  12.899   3.634
19467SOL    HW160298  12.689  12.964   3.646
19467SOL    HW260299  12.649  12.847   3.559
19468SOL     OW60300   5.299   0.046   9.961
19468SOL    HW160301   5.215   0.004   9.978
19468SOL    HW260302   5.289   0.135   9.995
19469SOL     OW60303   7.055   3.225   2.927
19469SOL    HW160304   7.026   3.316   2.918
19469SOL    HW260305   6.978   3.179   2.963
19470SOL     OW60306   0.917   1.728   2.700
19470SOL    HW160307   0.899   1.721   2.794
19470SOL    HW260308   0.886   1.645   2.663
19471SOL     OW60309  13.990   2.109   3.418
19471SOL    HW160310  14.058   2.047   3.395
19471SOL    HW260311  13.974   2.093   3.511
19472SOL     OW60312   3.246   6.287   8.944
19472SOL    HW160313   3.252   6.299   8.849
19472SOL    HW260314   3.309   6.349   8.980
19473SOL     OW60315  13.338   5.768   1.656
19473SOL    HW160316  13.411   5.825   1.680
19473SOL    HW260317  13.260   5.822   1.671
19474SOL     OW60318   0.304   8.790  12.523
19474SOL    HW160319   0.241   8.812  12.592
19474SOL    HW260320   0.389   8.787  12.568
19475SOL     OW60321  10.292  14.390   5.116
19475SOL    HW160322  10.314  14.380   5.023
19475SOL    HW260323  10.198  14.370   5.120
19476SOL     OW60324  10.682  13.492  10.692
19476SOL    HW160325  10.617  13.421  10.692
19476SOL    HW260326  10.694  13.514  10.784
19477SOL     OW60327  12.718   3.396  10.294
19477SOL    HW160328  12.672   3.442  10.363
19477SOL    HW260329  12.654   3.388  10.223
19478SOL     OW60330   1.507   1.311   2.376
19478SOL    HW160331   1.537   1.312   2.285
19478SOL    HW260332   1.498   1.404   2.399
19479SOL     OW60333   1.518  11.966   9.166
19479SOL    HW160334   1.569  12.040   9.199
19479SOL    HW260335   1.443  12.006   9.121
19480SOL     OW60336   0.045   9.439   1.862
19480SOL    HW160337   0.083   9.366   1.814
19480SOL    HW260338   0.120   9.489   1.893
19481SOL     OW60339   0.751   0.473   7.910
19481SOL    HW160340   0.800   0.487   7.829
19481SOL    HW260341   0.780   0.387   7.940
19482SOL     OW60342   2.212  14.203   1.944
19482SOL    HW160343   2.146  14.176   2.008
19482SOL    HW260344   2.192  14.151   1.866
19483SOL     OW60345  11.790  10.792   3.807
19483SOL    HW160346  11.732  10.719   3.786
19483SOL    HW260347  11.756  10.866   3.756
19484SOL     OW60348  13.851   7.903   5.433
19484SOL    HW160349  13.923   7.847   5.406
19484SOL    HW260350  13.849   7.898   5.528
19485SOL     OW60351   4.840   0.507   0.121
19485SOL    HW160352   4.904   0.473   0.184
19485SOL    HW260353   4.840   0.442   0.051
19486SOL     OW60354   6.578   7.818   4.211
19486SOL    HW160355   6.508   7.852   4.156
19486SOL    HW260356   6.560   7.724   4.217
19487SOL     OW60357  13.245   7.860  14.134
19487SOL    HW160358  13.177   7.927  14.129
19487SOL    HW260359  13.197   7.777  14.130
19488SOL     OW60360  14.783   9.828   5.570
19488SOL    HW160361  14.725   9.780   5.512
19488SOL    HW260362  14.852   9.863   5.513
19489SOL     OW60363  13.987   0.956  12.436
19489SOL    HW160364  14.048   1.023  12.467
19489SOL    HW260365  13.978   0.974  12.342
19490SOL     OW60366   5.684  13.079   8.091
19490SOL    HW160367   5.750  13.011   8.084
19490SOL    HW260368   5.603  13.032   8.113
19491SOL     OW60369   0.726  12.161   1.611
19491SOL    HW160370   0.652  12.102   1.599
19491SOL    HW260371   0.746  12.156   1.704
19492SOL     OW60372   4.302  12.589  13.549
19492SOL    HW160373   4.217  12.581  13.504
19492SOL    HW260374   4.288  12.544  13.633
19493SOL     OW60375  14.569  11.317  11.057
19493SOL    HW160376  14.494  11.352  11.009
19493SOL    HW260377  14.530  11.265  11.128
19494SOL     OW60378   4.648   7.949   4.435
19494SOL    HW160379   4.586   7.907   4.375
19494SOL    HW260380   4.718   7.980   4.379
19495SOL     OW60381   2.138   2.110   0.336
19495SOL    HW160382   2.147   2.078   0.247
19495SOL    HW260383   2.067   2.174   0.332
19496SOL     OW60384  14.668   8.556  13.112
19496SOL    HW160385  14.628   8.642  13.124
19496SOL    HW260386  14.698   8.556  13.021
19497SOL     OW60387  10.187   5.221   2.897
19497SOL    HW160388  10.203   5.264   2.813
19497SOL    HW260389  10.125   5.278   2.942
19498SOL     OW60390   9.417  12.542   5.399
19498SOL    HW160391   9.331  12.540   5.358
19498SOL    HW260392   9.402  12.576   5.487
19499SOL     OW60393   1.828   6.318  12.407
19499SOL    HW160394   1.841   6.243  12.348
19499SOL    HW260395   1.907   6.319  12.461
19500SOL     OW60396  13.641   1.515  12.099
19500SOL    HW160397  13.728   1.479  12.117
19500SOL    HW260398  13.581   1.444  12.119
19501SOL     OW60399   6.662  12.646   7.306
19501SOL    HW160400   6.644  12.557   7.278
19501SOL    HW260401   6.747  12.668   7.268
19502SOL     OW60402   5.779  10.565   7.372
19502SOL    HW160403   5.858  10.594   7.325
19502SOL    HW260404   5.781  10.615   7.454
19503SOL     OW60405   1.070  11.263   3.973
19503SOL    HW160406   1.086  11.251   3.880
19503SOL    HW260407   1.013  11.190   3.998
19504SOL     OW60408  11.259   1.924   6.482
19504SOL    HW160409  11.202   1.855   6.447
19504SOL    HW260410  11.327   1.878   6.530
19505SOL     OW60411   1.790   3.488   9.441
19505SOL    HW160412   1.849   3.535   9.500
19505SOL    HW260413   1.704   3.495   9.484
19506SOL     OW60414   3.551   3.899  10.914
19506SOL    HW160415   3.471   3.861  10.880
19506SOL    HW260416   3.617   3.831  10.904
19507SOL     OW60417  10.455   4.389  10.855
19507SOL    HW160418  10.517   4.461  10.841
19507SOL    HW260419  10.400   4.389  10.777
19508SOL     OW60420   8.357  10.022  11.527
19508SOL    HW160421   8.377  10.065  11.444
19508SOL    HW260422   8.438  10.028  11.578
19509SOL     OW60423   1.722  14.521  14.207
19509SOL    HW160424   1.758  14.468  14.135
19509SOL    HW260425   1.647  14.566  14.169
19510SOL     OW60426   5.780   9.318   3.174
19510SOL    HW160427   5.873   9.335   3.189
19510SOL    HW260428   5.740   9.405   3.164
19511SOL     OW60429   2.929  10.786  12.554
19511SOL    HW160430   2.889  10.758  12.637
19511SOL    HW260431   3.010  10.829  12.580
19512SOL     OW60432  12.753   0.647   7.935
19512SOL    HW160433  12.796   0.562   7.948
19512SOL    HW260434  12.662   0.625   7.916
19513SOL     OW60435  10.031   1.049   0.388
19513SOL    HW160436  10.061   1.027   0.300
19513SOL    HW260437   9.968   1.120   0.376
19514SOL     OW60438   1.553   4.116   9.979
19514SOL    HW160439   1.578   4.183   9.916
19514SOL    HW260440   1.567   4.156  10.065
19515SOL     OW60441   9.456   6.322   0.888
19515SOL    HW160442   9.443   6.239   0.841
19515SOL    HW260443   9.381   6.376   0.864
19516SOL     OW60444   0.708   7.450   7.206
19516SOL    HW160445   0.716   7.382   7.139
19516SOL    HW260446   0.789   7.443   7.257
19517SOL     OW60447   8.475  10.398  11.782
19517SOL    HW160448   8.479  10.302  11.776
19517SOL    HW260449   8.424  10.424  11.706
19518SOL     OW60450   2.585   5.082   7.761
19518SOL    HW160451   2.673   5.080   7.724
19518SOL    HW260452   2.591   5.141   7.837
19519SOL     OW60453   1.272   1.933   4.108
19519SOL    HW160454   1.325   1.869   4.155
19519SOL    HW260455   1.261   1.896   4.020
19520SOL     OW60456  12.031   7.379   2.121
19520SOL    HW160457  12.078   7.308   2.166
19520SOL    HW260458  12.032   7.452   2.184
19521SOL     OW60459   5.013  12.083   2.559
19521SOL    HW160460   5.071  12.079   2.635
19521SOL    HW260461   4.954  12.155   2.578
19522SOL     OW60462   7.815   8.719   4.120
19522SOL    HW160463   7.803   8.684   4.208
19522SOL    HW260464   7.906   8.697   4.098
19523SOL     OW60465   2.755  12.544   0.431
19523SOL    HW160466   2.791  12.626   0.463
19523SOL    HW260467   2.748  12.556   0.336
19524SOL     OW60468   3.710   5.180  10.630
19524SOL    HW160469   3.732   5.090  10.609
19524SOL    HW260470   3.721   5.186  10.725
19525SOL     OW60471   4.371  12.797  13.333
19525SOL    HW160472   4.337  12.783  13.245
19525SOL    HW260473   4.357  12.713  13.377
19526SOL     OW60474   4.157  14.653   6.526
19526SOL    HW160475   4.166  14.570   6.573
19526SOL    HW260476   4.076  14.643   6.476
19527SOL     OW60477   3.461   9.426   9.291
19527SOL    HW160478   3.450   9.516   9.260
19527SOL    HW260479   3.524   9.388   9.230
19528SOL     OW60480   9.472   8.855  10.827
19528SOL    HW160481   9.548   8.799  10.812
19528SOL    HW260482   9.506   8.944  10.822
19529SOL     OW60483  10.631   8.203   3.856
19529SOL    HW160484  10.593   8.127   3.812
19529SOL    HW260485  10.726   8.188   3.852
19530SOL     OW60486  10.942  11.445  14.394
19530SOL    HW160487  10.961  11.534  14.363
19530SOL    HW260488  10.998  11.389  14.342
19531SOL     OW60489   1.281   1.624   2.584
19531SOL    HW160490   1.248   1.549   2.534
19531SOL    HW260491   1.368   1.640   2.547
19532SOL     OW60492   6.323   9.240   7.276
19532SOL    HW160493   6.315   9.333   7.295
19532SOL    HW260494   6.348   9.237   7.183
19533SOL     OW60495   4.034  10.309   8.272
19533SOL    HW160496   4.045  10.272   8.360
19533SOL    HW260497   3.946  10.280   8.245
19534SOL     OW60498   6.496  12.746   7.515
19534SOL    HW160499   6.563  12.691   7.473
19534SOL    HW260500   6.519  12.835   7.489
19535SOL     OW60501  13.480   7.000   2.878
19535SOL    HW160502  13.561   7.050   2.888
19535SOL    HW260503  13.423   7.030   2.949
19536SOL     OW60504  14.824   1.444   3.780
19536SOL    HW160505  14.863   1.364   3.745
19536SOL    HW260506  14.859   1.514   3.724
19537SOL     OW60507   3.575  11.690  10.365
19537SOL    HW160508   3.541  11.731  10.445
19537SOL    HW260509   3.617  11.762  10.317
19538SOL     OW60510  14.829  12.674  14.811
19538SOL    HW160511  14.758  12.665  14.747
19538SOL    HW260512  14.869  12.587  14.814
19539SOL     OW60513  11.710   1.316  13.457
19539SOL    HW160514  11.797   1.346  13.429
19539SOL    HW260515  11.702   1.346  13.547
19540SOL     OW60516  14.601   6.417  14.599
19540SOL    HW160517  14.561   6.347  14.548
19540SOL    HW260518  14.535   6.486  14.602
19541SOL     OW60519  10.609   5.216   3.251
19541SOL    HW160520  10.529   5.213   3.198
19541SOL    HW260521  10.648   5.301   3.231
19542SOL     OW60522   4.767  10.914   7.124
19542SOL    HW160523   4.802  11.002   7.133
19542SOL    HW260524   4.829  10.867   7.068
19543SOL     OW60525   6.460  10.030  12.370
19543SOL    HW160526   6.382   9.977  12.388
19543SOL    HW260527   6.511   9.977  12.308
19544SOL     OW60528  13.716   7.744   2.250
19544SOL    HW160529  13.774   7.728   2.324
19544SOL    HW260530  13.738   7.676   2.187
19545SOL     OW60531  13.081  12.040   9.808
19545SOL    HW160532  13.141  12.092   9.862
19545SOL    HW260533  13.039  12.104   9.750
19546SOL     OW60534   8.767   3.483   1.733
19546SOL    HW160535   8.720   3.565   1.717
19546SOL    HW260536   8.725   3.419   1.675
19547SOL     OW60537  11.637  10.767  13.406
19547SOL    HW160538  11.602  10.801  13.324
19547SOL    HW260539  11.635  10.672  13.396
19548SOL     OW60540   8.137  12.751   1.294
19548SOL    HW160541   8.226  12.748   1.329
19548SOL    HW260542   8.111  12.659   1.287
19549SOL     OW60543   8.121   4.266   4.045
19549SOL    HW160544   8.118   4.256   4.140
19549SOL    HW260545   8.095   4.181   4.011
19550SOL     OW60546   4.089   4.031  13.956
19550SOL    HW160547   4.183   4.045  13.966
19550SOL    HW260548   4.082   3.950  13.906
19551SOL     OW60549  11.387   7.802  11.954
19551SOL    HW160550  11.445   7.810  12.030
19551SOL    HW260551  11.299   7.795  11.992
19552SOL     OW60552  12.847   5.690   6.205
19552SOL    HW160553  12.864   5.745   6.281
19552SOL    HW260554  12.769   5.640   6.229
19553SOL     OW60555   9.861  14.017   5.218
19553SOL    HW160556   9.776  14.025   5.175
19553SOL    HW260557   9.842  14.029   5.311
19554SOL     OW60558   3.866   3.657  12.503
19554SOL    HW160559   3.949   3.698  12.479
19554SOL    HW260560   3.807   3.730  12.519
19555SOL     OW60561   0.183   6.588   0.303
19555SOL    HW160562   0.241   6.542   0.242
19555SOL    HW260563   0.240   6.650   0.349
19556SOL     OW60564   0.113  12.206  10.316
19556SOL    HW160565   0.082  12.134  10.261
19556SOL    HW260566   0.034  12.240  10.358
19557SOL     OW60567   5.849   5.665   6.224
19557SOL    HW160568   5.769   5.634   6.265
19557SOL    HW260569   5.896   5.710   6.294
19558SOL     OW60570   6.695  10.460  11.375
19558SOL    HW160571   6.614  10.411  11.361
19558SOL    HW260572   6.725  10.482  11.286
19559SOL     OW60573  11.060  12.705   4.678
19559SOL    HW160574  11.087  12.647   4.749
19559SOL    HW260575  10.968  12.682   4.661
19560SOL     OW60576   9.406  13.686   6.165
19560SOL    HW160577   9.445  13.688   6.253
19560SOL    HW260578   9.412  13.594   6.138
19561SOL     OW60579   4.470   5.185   4.142
19561SOL    HW160580   4.382   5.218   4.125
19561SOL    HW260581   4.505   5.164   4.055
19562SOL     OW60582   0.127   1.296   0.249
19562SOL    HW160583   0.206   1.316   0.199
19562SOL    HW260584   0.104   1.207   0.222
19563SOL     OW60585   7.851  10.654   7.322
19563SOL    HW160586   7.946  10.643   7.319
19563SOL    HW260587   7.824  10.655   7.231
19564SOL     OW60588  13.377   6.050   4.724
19564SOL    HW160589  13.427   6.039   4.805
19564SOL    HW260590  13.319   6.124   4.742
19565SOL     OW60591  14.645  14.180   0.713
19565SOL    HW160592  14.662  14.259   0.763
19565SOL    HW260593  14.695  14.190   0.632
19566SOL     OW60594   8.381   2.887  11.622
19566SOL    HW160595   8.342   2.850  11.542
19566SOL    HW260596   8.357   2.825  11.691
19567SOL     OW60597   6.016   7.541   6.799
19567SOL    HW160598   6.026   7.446   6.794
19567SOL    HW260599   5.986   7.566   6.712
19568SOL     OW60600   3.100   8.511  11.935
19568SOL    HW160601   3.102   8.607  11.942
19568SOL    HW260602   3.090   8.494  11.841
19569SOL     OW60603   3.574   5.563   0.695
19569SOL    HW160604   3.615   5.476   0.700
19569SOL    HW260605   3.568   5.592   0.786
19570SOL     OW60606   1.052   6.398  12.954
19570SOL    HW160607   1.046   6.304  12.941
19570SOL    HW260608   1.079   6.408  13.045
19571SOL     OW60609   5.134   3.787   4.035
19571SOL    HW160610   5.188   3.837   4.097
19571SOL    HW260611   5.044   3.811   4.056
19572SOL     OW60612   5.069  11.045   5.479
19572SOL    HW160613   5.028  11.115   5.428
19572SOL    HW260614   5.160  11.073   5.489
19573SOL     OW60615  10.042  11.358   2.401
19573SOL    HW160616  10.048  11.443   2.445
19573SOL    HW260617  10.120  11.310   2.430
19574SOL     OW60618   8.920   2.642   4.198
19574SOL    HW160619   8.885   2.607   4.281
19574SOL    HW260620   8.980   2.711   4.225
19575SOL     OW60621  12.263   6.633  11.327
19575SOL    HW160622  12.289   6.678  11.408
19575SOL    HW260623  12.345   6.620  11.280
19576SOL     OW60624   2.162   2.679   7.099
19576SOL    HW160625   2.092   2.735   7.133
19576SOL    HW260626   2.146   2.676   7.005
19577SOL     OW60627  11.393   3.140   9.901
19577SOL    HW160628  11.472   3.089   9.886
19577SOL    HW260629  11.348   3.094   9.971
19578SOL     OW60630   3.533   5.709   1.151
19578SOL    HW160631   3.444   5.696   1.183
19578SOL    HW260632   3.529   5.791   1.102
19579SOL     OW60633   9.550   9.023   3.777
19579SOL    HW160634   9.540   8.930   3.757
19579SOL    HW260635   9.633   9.028   3.826
19580SOL     OW60636  13.735   5.825  14.125
19580SOL    HW160637  13.674   5.822  14.199
19580SOL    HW260638  13.790   5.748  14.136
19581SOL     OW60639   5.022  12.096   4.040
19581SOL    HW160640   4.976  12.171   4.077
19581SOL    HW260641   5.113  12.108   4.066
19582SOL     OW60642   9.138   8.198   2.166
19582SOL    HW160643   9.117   8.107   2.187
19582SOL    HW260644   9.199   8.225   2.235
19583SOL     OW60645   7.005   4.609   9.442
19583SOL    HW160646   7.035   4.684   9.390
19583SOL    HW260647   6.926   4.640   9.486
19584SOL     OW60648   7.377  13.626  11.533
19584SOL    HW160649   7.299  13.676  11.559
19584SOL    HW260650   7.353  13.535  11.550
19585SOL     OW60651   3.608  14.453   7.206
19585SOL    HW160652   3.640  14.367   7.235
19585SOL    HW260653   3.583  14.439   7.115
19586SOL     OW60654   0.947   4.968  10.686
19586SOL    HW160655   0.979   5.057  10.670
19586SOL    HW260656   1.020   4.925  10.730
19587SOL     OW60657   7.447   9.378   4.198
19587SOL    HW160658   7.438   9.472   4.214
19587SOL    HW260659   7.464   9.371   4.104
19588SOL     OW60660   0.570   5.485   4.187
19588SOL    HW160661   0.610   5.542   4.122
19588SOL    HW260662   0.529   5.415   4.136
19589SOL     OW60663  14.656  14.228  14.358
19589SOL    HW160664  14.682  14.260  14.444
19589SOL    HW260665  14.561  14.215  14.365
19590SOL     OW60666   3.682  10.352   4.715
19590SOL    HW160667   3.660  10.435   4.758
19590SOL    HW260668   3.777  10.344   4.726
19591SOL     OW60669   8.647  13.741   5.014
19591SOL    HW160670   8.562  13.745   5.057
19591SOL    HW260671   8.704  13.699   5.079
19592SOL     OW60672   4.010   6.134  13.449
19592SOL    HW160673   4.038   6.162  13.362
19592SOL    HW260674   4.045   6.045  13.458
19593SOL     OW60675   8.290   4.285   6.473
19593SOL    HW160676   8.346   4.353   6.435
19593SOL    HW260677   8.295   4.212   6.410
19594SOL     OW60678   4.510   4.946   8.747
19594SOL    HW160679   4.508   4.861   8.792
19594SOL    HW260680   4.444   4.937   8.679
19595SOL     OW60681   2.589   9.708  10.623
19595SOL    HW160682   2.653   9.743  10.685
19595SOL    HW260683   2.641   9.680  10.547
19596SOL     OW60684   1.357   3.093   1.186
19596SOL    HW160685   1.370   3.156   1.257
19596SOL    HW260686   1.408   3.017   1.211
19597SOL     OW60687   6.491  13.216  14.858
19597SOL    HW160688   6.413  13.231   0.030
19597SOL    HW260689   6.555  13.182   0.041
19598SOL     OW60690   7.483   5.226   9.525
19598SOL    HW160691   7.565   5.177   9.524
19598SOL    HW260692   7.491   5.285   9.600
19599SOL     OW60693   8.083   1.337  14.390
19599SOL    HW160694   8.051   1.344  14.300
19599SOL    HW260695   8.172   1.303  14.382
19600SOL     OW60696   8.070  13.014  14.349
19600SOL    HW160697   8.115  12.935  14.317
19600SOL    HW260698   8.136  13.083  14.342
19601SOL     OW60699   4.754   2.240  14.494
19601SOL    HW160700   4.670   2.281  14.471
19601SOL    HW260701   4.820   2.303  14.465
19602SOL     OW60702   5.436   6.857  13.227
19602SOL    HW160703   5.378   6.816  13.163
19602SOL    HW260704   5.415   6.815  13.310
19603SOL     OW60705   0.511   4.865  11.752
19603SOL    HW160706   0.509   4.908  11.838
19603SOL    HW260707   0.444   4.910  11.702
19604SOL     OW60708   9.308   3.003   6.009
19604SOL    HW160709   9.265   3.031   5.929
19604SOL    HW260710   9.380   3.065   6.021
19605SOL     OW60711  14.862   8.966  11.983
19605SOL    HW160712   0.031   8.889  11.953
19605SOL    HW260713   0.046   9.037  11.978
19606SOL     OW60714   2.173   0.334  10.268
19606SOL    HW160715   2.089   0.290  10.279
19606SOL    HW260716   2.189   0.378  10.351
19607SOL     OW60717  10.336   7.300   1.718
19607SOL    HW160718  10.376   7.383   1.689
19607SOL    HW260719  10.410   7.248   1.749
19608SOL     OW60720   2.444   7.512  12.604
19608SOL    HW160721   2.522   7.479  12.648
19608SOL    HW260722   2.470   7.597  12.569
19609SOL     OW60723   6.122   2.668   6.174
19609SOL    HW160724   6.177   2.591   6.186
19609SOL    HW260725   6.112   2.705   6.262
19610SOL     OW60726   1.186   8.017  14.393
19610SOL    HW160727   1.277   8.038  14.371
19610SOL    HW260728   1.136   8.043  14.316
19611SOL     OW60729   0.925  12.176   2.977
19611SOL    HW160730   1.001  12.159   2.921
19611SOL    HW260731   0.958  12.235   3.045
19612SOL     OW60732  10.854   2.663  14.841
19612SOL    HW160733  10.759   2.653  14.848
19612SOL    HW260734  10.866   2.730  14.774
19613SOL     OW60735   2.296   8.488   6.264
19613SOL    HW160736   2.335   8.567   6.225
19613SOL    HW260737   2.221   8.469   6.208
19614SOL     OW60738   5.737   0.651   3.585
19614SOL    HW160739   5.813   0.629   3.640
19614SOL    HW260740   5.671   0.586   3.607
19615SOL     OW60741   7.617   8.414  12.645
19615SOL    HW160742   7.695   8.374  12.607
19615SOL    HW260743   7.561   8.340  12.669
19616SOL     OW60744   0.229   4.585   9.583
19616SOL    HW160745   0.138   4.615   9.582
19616SOL    HW260746   0.227   4.501   9.535
19617SOL     OW60747  13.750   4.569  13.882
19617SOL    HW160748  13.802   4.620  13.944
19617SOL    HW260749  13.690   4.518  13.936
19618SOL     OW60750   8.734  12.420  14.408
19618SOL    HW160751   8.712  12.353  14.343
19618SOL    HW260752   8.797  12.378  14.466
19619SOL     OW60753   9.298   4.498   5.456
19619SOL    HW160754   9.361   4.470   5.522
19619SOL    HW260755   9.222   4.527   5.507
19620SOL     OW60756  10.174  12.592  11.236
19620SOL    HW160757  10.162  12.498  11.217
19620SOL    HW260758  10.267  12.601  11.256
19621SOL     OW60759   7.226   3.181  11.133
19621SOL    HW160760   7.274   3.253  11.174
19621SOL    HW260761   7.193   3.129  11.207
19622SOL     OW60762   5.714   6.423   4.041
19622SOL    HW160763   5.764   6.492   3.997
19622SOL    HW260764   5.626   6.459   4.049
19623SOL     OW60765   5.850  14.331   7.468
19623SOL    HW160766   5.822  14.285   7.547
19623SOL    HW260767   5.880  14.262   7.409
19624SOL     OW60768  13.762   3.535   4.845
19624SOL    HW160769  13.683   3.527   4.898
19624SOL    HW260770  13.833   3.511   4.904
19625SOL     OW60771  11.324   3.731   9.067
19625SOL    HW160772  11.356   3.764   8.982
19625SOL    HW260773  11.238   3.771   9.077
19626SOL     OW60774   1.212  10.900   1.261
19626SOL    HW160775   1.209  10.918   1.167
19626SOL    HW260776   1.258  10.816   1.268
19627SOL     OW60777   2.879   8.627   0.770
19627SOL    HW160778   2.958   8.681   0.771
19627SOL    HW260779   2.908   8.543   0.734
19628SOL     OW60780  13.649   7.504   5.067
19628SOL    HW160781  13.683   7.439   5.004
19628SOL    HW260782  13.725   7.525   5.121
19629SOL     OW60783   1.443   5.296  12.859
19629SOL    HW160784   1.418   5.335  12.775
19629SOL    HW260785   1.457   5.372  12.916
19630SOL     OW60786   9.421  14.570  12.900
19630SOL    HW160787   9.435  14.534  12.812
19630SOL    HW260788   9.454  14.660  12.894
19631SOL     OW60789   4.418   5.649   1.358
19631SOL    HW160790   4.356   5.614   1.422
19631SOL    HW260791   4.500   5.659   1.407
19632SOL     OW60792  14.357  13.526   7.888
19632SOL    HW160793  14.387  13.467   7.819
19632SOL    HW260794  14.330  13.468   7.959
19633SOL     OW60795   3.935   5.320   8.475
19633SOL    HW160796   4.029   5.335   8.470
19633SOL    HW260797   3.901   5.398   8.520
19634SOL     OW60798  14.757  13.529   4.303
19634SOL    HW160799  14.704  13.469   4.355
19634SOL    HW260800  14.717  13.527   4.216
19635SOL     OW60801   1.055   4.371  10.324
19635SOL    HW160802   0.978   4.377  10.380
19635SOL    HW260803   1.033   4.303  10.260
19636SOL     OW60804   6.920  12.125   4.800
19636SOL    HW160805   6.978  12.200   4.788
19636SOL    HW260806   6.860  12.129   4.726
19637SOL     OW60807   3.153   0.673  10.882
19637SOL    HW160808   3.166   0.742  10.947
19637SOL    HW260809   3.090   0.710  10.820
19638SOL     OW60810  12.614  13.350   6.836
19638SOL    HW160811  12.701  13.387   6.819
19638SOL    HW260812  12.586  13.315   6.752
19639SOL     OW60813   0.239   7.015   7.173
19639SOL    HW160814   0.333   7.008   7.155
19639SOL    HW260815   0.210   7.088   7.118
19640SOL     OW60816  14.830   4.873  12.171
19640SOL    HW160817  14.858   4.842  12.085
19640SOL    HW260818  14.806   4.794  12.219
19641SOL     OW60819   9.893  14.761  10.490
19641SOL    HW160820   9.890  14.854  10.509
19641SOL    HW260821   9.961  14.727  10.549
19642SOL     OW60822  12.746  13.364  11.247
19642SOL    HW160823  12.691  13.430  11.206
19642SOL    HW260824  12.830  13.408  11.261
19643SOL     OW60825  11.253  10.275  13.618
19643SOL    HW160826  11.292  10.266  13.705
19643SOL    HW260827  11.184  10.340  13.630
19644SOL     OW60828  14.342   3.132   4.854
19644SOL    HW160829  14.329   3.078   4.932
19644SOL    HW260830  14.436   3.128   4.836
19645SOL     OW60831  13.220   8.980  13.051
19645SOL    HW160832  13.210   8.886  13.067
19645SOL    HW260833  13.132   9.015  13.057
19646SOL     OW60834   0.065  11.261   1.694
19646SOL    HW160835   0.048  11.314   1.772
19646SOL    HW260836  14.873  11.283   1.634
19647SOL     OW60837   7.161  13.163   4.873
19647SOL    HW160838   7.132  13.076   4.899
19647SOL    HW260839   7.190  13.204   4.955
19648SOL     OW60840  13.566   8.855  14.866
19648SOL    HW160841  13.591   8.764  14.877
19648SOL    HW260842  13.509   8.874   0.062
19649SOL     OW60843   4.040  13.296   7.990
19649SOL    HW160844   3.996  13.355   8.051
19649SOL    HW260845   3.981  13.220   7.984
19650SOL     OW60846   5.828   4.483   8.052
19650SOL    HW160847   5.879   4.479   8.132
19650SOL    HW260848   5.739   4.506   8.081
19651SOL     OW60849   9.940   3.742   5.034
19651SOL    HW160850  10.009   3.750   4.968
19651SOL    HW260851   9.961   3.810   5.098
19652SOL     OW60852   0.515   3.338  14.215
19652SOL    HW160853   0.512   3.379  14.129
19652SOL    HW260854   0.460   3.394  14.270
19653SOL     OW60855   6.713  12.722   9.993
19653SOL    HW160856   6.709  12.635  10.031
19653SOL    HW260857   6.793  12.760  10.028
19654SOL     OW60858  14.139   7.541   3.074
19654SOL    HW160859  14.054   7.576   3.102
19654SOL    HW260860  14.203   7.585   3.130
19655SOL     OW60861  12.975   7.343  11.211
19655SOL    HW160862  12.906   7.395  11.169
19655SOL    HW260863  12.937   7.315  11.294
19656SOL     OW60864   2.738   6.217   4.685
19656SOL    HW160865   2.827   6.251   4.672
19656SOL    HW260866   2.736   6.192   4.778
19657SOL     OW60867   4.846   0.491   0.540
19657SOL    HW160868   4.890   0.483   0.455
19657SOL    HW260869   4.836   0.585   0.553
19658SOL     OW60870  14.652  10.061   4.883
19658SOL    HW160871  14.561  10.083   4.906
19658SOL    HW260872  14.684  10.138   4.835
19659SOL     OW60873  14.606   5.268   2.107
19659SOL    HW160874  14.618   5.178   2.076
19659SOL    HW260875  14.516   5.271   2.138
19660SOL     OW60876   8.365   5.799  13.924
19660SOL    HW160877   8.278   5.804  13.962
19660SOL    HW260878   8.366   5.716  13.877
19661SOL     OW60879   1.850   8.445  14.526
19661SOL    HW160880   1.890   8.368  14.564
19661SOL    HW260881   1.888   8.452  14.438
19662SOL     OW60882   1.267  13.742   0.648
19662SOL    HW160883   1.241  13.665   0.699
19662SOL    HW260884   1.334  13.784   0.701
19663SOL     OW60885   6.181  11.245   0.708
19663SOL    HW160886   6.091  11.273   0.694
19663SOL    HW260887   6.222  11.318   0.754
19664SOL     OW60888   0.254   5.464  12.868
19664SOL    HW160889   0.240   5.494  12.957
19664SOL    HW260890   0.181   5.404  12.851
19665SOL     OW60891  14.514   6.053   8.437
19665SOL    HW160892  14.436   6.090   8.397
19665SOL    HW260893  14.579   6.051   8.367
19666SOL     OW60894   1.150  13.095   9.536
19666SOL    HW160895   1.107  13.181   9.536
19666SOL    HW260896   1.193  13.090   9.450
19667SOL     OW60897  14.217   6.348  14.764
19667SOL    HW160898  14.287   6.412  14.776
19667SOL    HW260899  14.262   6.263  14.764
19668SOL     OW60900   1.932  14.336   9.537
19668SOL    HW160901   1.938  14.319   9.443
19668SOL    HW260902   1.839  14.334   9.556
19669SOL     OW60903   8.324   0.092  13.133
19669SOL    HW160904   8.274   0.162  13.175
19669SOL    HW260905   8.394   0.072  13.196
19670SOL     OW60906   8.125   0.219  10.242
19670SOL    HW160907   8.159   0.284  10.180
19670SOL    HW260908   8.045   0.187  10.201
19671SOL     OW60909   2.921   3.739   4.836
19671SOL    HW160910   2.863   3.711   4.907
19671SOL    HW260911   2.949   3.658   4.794
19672SOL     OW60912   0.026   8.133   3.321
19672SOL    HW160913   0.083   8.068   3.362
19672SOL    HW260914   0.083   8.181   3.261
19673SOL     OW60915   6.361   9.697   0.653
19673SOL    HW160916   6.368   9.743   0.570
19673SOL    HW260917   6.268   9.696   0.672
19674SOL     OW60918  11.410   3.572  11.800
19674SOL    HW160919  11.410   3.486  11.757
19674SOL    HW260920  11.493   3.576  11.848
19675SOL     OW60921   2.573   7.159  14.159
19675SOL    HW160922   2.647   7.101  14.142
19675SOL    HW260923   2.548   7.140  14.249
19676SOL     OW60924   4.982   1.730   8.059
19676SOL    HW160925   5.070   1.731   8.097
19676SOL    HW260926   4.996   1.749   7.966
19677SOL     OW60927   7.624   8.486   5.472
19677SOL    HW160928   7.615   8.581   5.465
19677SOL    HW260929   7.672   8.472   5.554
19678SOL     OW60930   8.755   0.683   2.933
19678SOL    HW160931   8.802   0.748   2.882
19678SOL    HW260932   8.799   0.600   2.912
19679SOL     OW60933   4.919   8.075   3.286
19679SOL    HW160934   4.924   8.089   3.381
19679SOL    HW260935   5.004   8.039   3.262
19680SOL     OW60936  12.677   4.490  14.563
19680SOL    HW160937  12.722   4.571  14.587
19680SOL    HW260938  12.641   4.507  14.476
19681SOL     OW60939  11.034  12.023  14.544
19681SOL    HW160940  11.020  12.087  14.613
19681SOL    HW260941  11.125  12.036  14.517
19682SOL     OW60942  11.966   8.569   9.513
19682SOL    HW160943  12.010   8.506   9.456
19682SOL    HW260944  11.916   8.624   9.453
19683SOL     OW60945   3.056  12.852  10.059
19683SOL    HW160946   2.990  12.812  10.115
19683SOL    HW260947   3.007  12.886   9.985
19684SOL     OW60948   8.116  12.995   2.878
19684SOL    HW160949   8.157  12.985   2.964
19684SOL    HW260950   8.025  12.971   2.891
19685SOL     OW60951  10.580   8.850   5.512
19685SOL    HW160952  10.652   8.821   5.567
19685SOL    HW260953  10.592   8.945   5.503
19686SOL     OW60954  11.789   4.608   2.474
19686SOL    HW160955  11.799   4.624   2.380
19686SOL    HW260956  11.820   4.518   2.486
19687SOL     OW60957   3.379   2.683   4.139
19687SOL    HW160958   3.308   2.648   4.192
19687SOL    HW260959   3.390   2.620   4.068
19688SOL     OW60960   1.283   4.053   8.139
19688SOL    HW160961   1.204   4.092   8.177
19688SOL    HW260962   1.253   3.970   8.101
19689SOL     OW60963   8.599   6.492   8.965
19689SOL    HW160964   8.526   6.436   8.988
19689SOL    HW260965   8.620   6.468   8.875
19690SOL     OW60966   8.900  13.656  13.818
19690SOL    HW160967   8.879  13.700  13.735
19690SOL    HW260968   8.862  13.712  13.885
19691SOL     OW60969   3.914   3.955  10.977
19691SOL    HW160970   3.983   3.899  11.012
19691SOL    HW260971   3.874   3.903  10.907
19692SOL     OW60972  13.520   9.653   4.483
19692SOL    HW160973  13.604   9.657   4.437
19692SOL    HW260974  13.470   9.586   4.435
19693SOL     OW60975   6.997  10.815   3.477
19693SOL    HW160976   7.030  10.822   3.567
19693SOL    HW260977   6.978  10.905   3.452
19694SOL     OW60978   7.208   8.592  12.401
19694SOL    HW160979   7.169   8.628  12.322
19694SOL    HW260980   7.234   8.503  12.378
19695SOL     OW60981  11.577   2.493  12.549
19695SOL    HW160982  11.582   2.538  12.464
19695SOL    HW260983  11.577   2.400  12.527
19696SOL     OW60984  14.623  11.744   6.570
19696SOL    HW160985  14.704  11.787   6.596
19696SOL    HW260986  14.639  11.715   6.480
19697SOL     OW60987   6.878   1.459   5.886
19697SOL    HW160988   6.831   1.378   5.909
19697SOL    HW260989   6.868   1.465   5.791
19698SOL     OW60990  11.629  13.175   1.330
19698SOL    HW160991  11.645  13.132   1.246
19698SOL    HW260992  11.560  13.123   1.371
19699SOL     OW60993  10.452   4.643   0.513
19699SOL    HW160994  10.398   4.597   0.449
19699SOL    HW260995  10.470   4.578   0.581
19700SOL     OW60996   5.432   5.885  11.657
19700SOL    HW160997   5.445   5.971  11.697
19700SOL    HW260998   5.337   5.876  11.651
19701SOL     OW60999  12.384   3.766  10.219
19701SOL    HW161000  12.375   3.693  10.157
19701SOL    HW261001  12.460   3.742  10.272
19702SOL     OW61002  13.177   4.747   6.136
19702SOL    HW161003  13.190   4.713   6.048
19702SOL    HW261004  13.094   4.709   6.165
19703SOL     OW61005  10.618   5.401   6.209
19703SOL    HW161006  10.678   5.449   6.267
19703SOL    HW261007  10.644   5.309   6.219
19704SOL     OW61008  13.442   8.635   6.983
19704SOL    HW161009  13.474   8.550   6.952
19704SOL    HW261010  13.487   8.699   6.928
19705SOL     OW61011  10.140   6.905   2.512
19705SOL    HW161012  10.071   6.847   2.542
19705SOL    HW261013  10.156   6.878   2.421
19706SOL     OW61014  12.132   9.878   1.609
19706SOL    HW161015  12.053   9.931   1.622
19706SOL    HW261016  12.111   9.821   1.535
19707SOL     OW61017   8.230   1.769  14.587
19707SOL    HW161018   8.258   1.858  14.607
19707SOL    HW261019   8.258   1.717  14.662
19708SOL     OW61020   1.286   2.340  12.962
19708SOL    HW161021   1.219   2.273  12.951
19708SOL    HW261022   1.366   2.291  12.978
19709SOL     OW61023   3.978   3.316   3.322
19709SOL    HW161024   3.980   3.412   3.321
19709SOL    HW261025   3.978   3.292   3.229
19710SOL     OW61026  12.110  10.811   8.395
19710SOL    HW161027  12.085  10.747   8.328
19710SOL    HW261028  12.202  10.791   8.414
19711SOL     OW61029   5.943   9.075  10.048
19711SOL    HW161030   5.912   8.985  10.034
19711SOL    HW261031   6.034   9.065  10.076
19712SOL     OW61032   8.091   8.443   4.003
19712SOL    HW161033   8.080   8.468   3.911
19712SOL    HW261034   8.181   8.409   4.008
19713SOL     OW61035  14.651   2.404  13.583
19713SOL    HW161036  14.561   2.422  13.556
19713SOL    HW261037  14.705   2.459  13.526
19714SOL     OW61038   2.629   9.842   8.782
19714SOL    HW161039   2.709   9.872   8.739
19714SOL    HW261040   2.573   9.919   8.787
19715SOL     OW61041   2.251   7.505  10.820
19715SOL    HW161042   2.255   7.438  10.888
19715SOL    HW261043   2.251   7.588  10.869
19716SOL     OW61044   8.911  12.432   9.897
19716SOL    HW161045   8.987  12.374   9.905
19716SOL    HW261046   8.836  12.374   9.886
19717SOL     OW61047   0.144   4.997  13.901
19717SOL    HW161048   0.228   5.000  13.948
19717SOL    HW261049   0.092   5.068  13.941
19718SOL     OW61050  11.879   1.374   8.949
19718SOL    HW161051  11.972   1.369   8.930
19718SOL    HW261052  11.874   1.419   9.034
19719SOL     OW61053   9.969   0.542   3.778
19719SOL    HW161054  10.012   0.552   3.863
19719SOL    HW261055   9.910   0.617   3.773
19720SOL     OW61056   1.401  11.993  10.692
19720SOL    HW161057   1.410  11.984  10.597
19720SOL    HW261058   1.419  11.906  10.726
19721SOL     OW61059   4.636   8.771   4.315
19721SOL    HW161060   4.705   8.772   4.249
19721SOL    HW261061   4.676   8.726   4.390
19722SOL     OW61062   1.168   4.654  14.116
19722SOL    HW161063   1.095   4.705  14.081
19722SOL    HW261064   1.126   4.589  14.172
19723SOL     OW61065  11.682   4.022   7.680
19723SOL    HW161066  11.654   4.095   7.625
19723SOL    HW261067  11.727   4.063   7.754
19724SOL     OW61068   7.759  13.664  10.455
19724SOL    HW161069   7.720  13.666  10.367
19724SOL    HW261070   7.686  13.650  10.514
19725SOL     OW61071   9.821   9.609   3.824
19725SOL    HW161072   9.892   9.673   3.825
19725SOL    HW261073   9.828   9.566   3.739
19726SOL     OW61074   4.434  13.561   6.504
19726SOL    HW161075   4.427  13.470   6.533
19726SOL    HW261076   4.467  13.555   6.414
19727SOL     OW61077   1.110  10.137  11.319
19727SOL    HW161078   1.018  10.161  11.328
19727SOL    HW261079   1.138  10.116  11.408
19728SOL     OW61080   5.518  13.691   1.114
19728SOL    HW161081   5.609  13.671   1.094
19728SOL    HW261082   5.501  13.773   1.067
19729SOL     OW61083   4.192  10.792  13.405
19729SOL    HW161084   4.240  10.874  13.413
19729SOL    HW261085   4.226  10.736  13.474
19730SOL     OW61086   4.619   5.074   4.510
19730SOL    HW161087   4.681   5.001   4.501
19730SOL    HW261088   4.648   5.120   4.589
19731SOL     OW61089   0.913   1.151   5.541
19731SOL    HW161090   0.930   1.245   5.540
19731SOL    HW261091   0.898   1.129   5.449
19732SOL     OW61092   7.373   6.893  10.265
19732SOL    HW161093   7.287   6.877  10.225
19732SOL    HW261094   7.417   6.807  10.262
19733SOL     OW61095   0.125  14.410   3.194
19733SOL    HW161096   0.164  14.330   3.229
19733SOL    HW261097   0.100  14.460   3.271
19734SOL     OW61098   8.649  10.460   5.125
19734SOL    HW161099   8.631  10.366   5.121
19734SOL    HW261100   8.590  10.499   5.062
19735SOL     OW61101   4.618   1.472   3.700
19735SOL    HW161102   4.624   1.454   3.794
19735SOL    HW261103   4.524   1.466   3.680
19736SOL     OW61104   0.525   4.695   6.850
19736SOL    HW161105   0.497   4.701   6.759
19736SOL    HW261106   0.534   4.787   6.878
19737SOL     OW61107  11.895   5.080   2.925
19737SOL    HW161108  11.925   5.157   2.974
19737SOL    HW261109  11.943   5.083   2.843
19738SOL     OW61110   6.792   5.530   0.868
19738SOL    HW161111   6.751   5.558   0.950
19738SOL    HW261112   6.743   5.452   0.843
19739SOL     OW61113   2.557   5.523  13.142
19739SOL    HW161114   2.551   5.557  13.053
19739SOL    HW261115   2.607   5.441  13.134
19740SOL     OW61116   2.546  10.378  13.547
19740SOL    HW161117   2.592  10.349  13.626
19740SOL    HW261118   2.591  10.332  13.476
19741SOL     OW61119   6.320  14.700  10.556
19741SOL    HW161120   6.306  14.787  10.593
19741SOL    HW261121   6.263  14.696  10.480
19742SOL     OW61122  12.525   2.768   5.778
19742SOL    HW161123  12.482   2.839   5.826
19742SOL    HW261124  12.463   2.744   5.709
19743SOL     OW61125   7.918  11.161  14.089
19743SOL    HW161126   7.875  11.128  14.009
19743SOL    HW261127   8.010  11.136  14.078
19744SOL     OW61128  13.807   8.909  11.852
19744SOL    HW161129  13.738   8.869  11.904
19744SOL    HW261130  13.875   8.842  11.847
19745SOL     OW61131   0.979   1.434   5.571
19745SOL    HW161132   0.911   1.470   5.627
19745SOL    HW261133   0.972   1.484   5.490
19746SOL     OW61134   2.425   5.734  14.077
19746SOL    HW161135   2.363   5.747  14.005
19746SOL    HW261136   2.509   5.722  14.033
19747SOL     OW61137  14.673   4.596  13.441
19747SOL    HW161138  14.591   4.548  13.425
19747SOL    HW261139  14.685   4.648  13.361
19748SOL     OW61140   9.735   1.158   2.806
19748SOL    HW161141   9.642   1.165   2.829
19748SOL    HW261142   9.777   1.128   2.887
19749SOL     OW61143   2.317   3.306   0.231
19749SOL    HW161144   2.382   3.344   0.291
19749SOL    HW261145   2.365   3.292   0.149
19750SOL     OW61146   4.810   0.247   2.046
19750SOL    HW161147   4.779   0.194   2.120
19750SOL    HW261148   4.878   0.194   2.005
19751SOL     OW61149  13.092   0.942   3.855
19751SOL    HW161150  13.161   0.994   3.813
19751SOL    HW261151  13.017   1.002   3.861
19752SOL     OW61152   6.850  12.332   3.095
19752SOL    HW161153   6.793  12.397   3.137
19752SOL    HW261154   6.881  12.375   3.016
19753SOL     OW61155  13.110  10.893  11.807
19753SOL    HW161156  13.121  10.799  11.790
19753SOL    HW261157  13.128  10.903  11.900
19754SOL     OW61158   6.611  14.720   2.574
19754SOL    HW161159   6.562  14.640   2.557
19754SOL    HW261160   6.687  14.715   2.516
19755SOL     OW61161   1.228   8.875  10.922
19755SOL    HW161162   1.201   8.790  10.887
19755SOL    HW261163   1.165   8.937  10.886
19756SOL     OW61164   4.505   0.838   5.001
19756SOL    HW161165   4.468   0.923   5.028
19756SOL    HW261166   4.594   0.838   5.037
19757SOL     OW61167  10.386  11.756   9.751
19757SOL    HW161168  10.454  11.689   9.756
19757SOL    HW261169  10.343  11.741   9.666
19758SOL     OW61170   9.114   1.662   2.763
19758SOL    HW161171   9.160   1.612   2.695
19758SOL    HW261172   9.177   1.667   2.835
19759SOL     OW61173  11.590  11.483   9.295
19759SOL    HW161174  11.503  11.522   9.303
19759SOL    HW261175  11.650  11.556   9.302
19760SOL     OW61176  12.928   0.589   9.542
19760SOL    HW161177  12.950   0.508   9.590
19760SOL    HW261178  12.963   0.659   9.597
19761SOL     OW61179  10.467  11.186   2.382
19761SOL    HW161180  10.421  11.104   2.364
19761SOL    HW261181  10.410  11.255   2.348
19762SOL     OW61182   8.836   1.443  13.716
19762SOL    HW161183   8.777   1.371  13.737
19762SOL    HW261184   8.860   1.429  13.624
19763SOL     OW61185  13.022  11.597  13.574
19763SOL    HW161186  13.056  11.507  13.580
19763SOL    HW261187  12.984  11.602  13.486
19764SOL     OW61188   0.666   5.419  13.504
19764SOL    HW161189   0.642   5.348  13.564
19764SOL    HW261190   0.585   5.468  13.490
19765SOL     OW61191   9.361   4.316   0.329
19765SOL    HW161192   9.291   4.319   0.264
19765SOL    HW261193   9.441   4.326   0.279
19766SOL     OW61194   2.061  13.263   3.572
19766SOL    HW161195   2.071  13.191   3.634
19766SOL    HW261196   1.968  13.261   3.548
19767SOL     OW61197  14.405   8.967  10.461
19767SOL    HW161198  14.447   8.890  10.499
19767SOL    HW261199  14.416   9.036  10.526
19768SOL     OW61200   8.293   0.908  12.373
19768SOL    HW161201   8.315   0.998  12.352
19768SOL    HW261202   8.377   0.866  12.394
19769SOL     OW61203   3.300   4.474  14.319
19769SOL    HW161204   3.367   4.471  14.251
19769SOL    HW261205   3.338   4.529  14.388
19770SOL     OW61206   0.851   5.578   0.681
19770SOL    HW161207   0.773   5.617   0.642
19770SOL    HW261208   0.831   5.484   0.684
19771SOL     OW61209   3.842   1.532   3.847
19771SOL    HW161210   3.768   1.477   3.874
19771SOL    HW261211   3.803   1.593   3.783
19772SOL     OW61212  11.994   5.631   0.525
19772SOL    HW161213  12.083   5.665   0.519
19772SOL    HW261214  11.965   5.624   0.434
19773SOL     OW61215  10.160   0.646  13.636
19773SOL    HW161216  10.219   0.581  13.598
19773SOL    HW261217  10.080   0.637  13.585
19774SOL     OW61218   0.015  14.365   9.915
19774SOL    HW161219  14.843  14.446   9.908
19774SOL    HW261220  14.874  14.317   9.834
19775SOL     OW61221   6.714   6.991  13.459
19775SOL    HW161222   6.798   6.951  13.478
19775SOL    HW261223   6.692   7.039  13.538
19776SOL     OW61224   8.577   3.789   3.025
19776SOL    HW161225   8.581   3.780   2.929
19776SOL    HW261226   8.488   3.761   3.048
19777SOL     OW61227   3.641   0.556   2.583
19777SOL    HW161228   3.622   0.625   2.520
19777SOL    HW261229   3.734   0.565   2.601
19778SOL     OW61230   7.380  13.427   1.417
19778SOL    HW161231   7.444  13.498   1.427
19778SOL    HW261232   7.363  13.424   1.322
19779SOL     OW61233   4.679   1.119   0.790
19779SOL    HW161234   4.661   1.194   0.733
19779SOL    HW261235   4.765   1.088   0.763
19780SOL     OW61236   9.349   2.279   8.014
19780SOL    HW161237   9.361   2.374   8.011
19780SOL    HW261238   9.291   2.265   8.089
19781SOL     OW61239   4.766  13.777   9.666
19781SOL    HW161240   4.696  13.810   9.722
19781SOL    HW261241   4.750  13.683   9.660
19782SOL     OW61242   2.776   3.645   1.462
19782SOL    HW161243   2.726   3.721   1.432
19782SOL    HW261244   2.773   3.583   1.389
19783SOL     OW61245  11.843   9.382  11.628
19783SOL    HW161246  11.847   9.379  11.532
19783SOL    HW261247  11.932   9.361  11.656
19784SOL     OW61248   0.736  13.339  12.192
19784SOL    HW161249   0.762  13.289  12.114
19784SOL    HW261250   0.674  13.403  12.159
19785SOL     OW61251   1.792   4.441   3.155
19785SOL    HW161252   1.823   4.352   3.172
19785SOL    HW261253   1.864   4.482   3.107
19786SOL     OW61254   5.579   0.106   5.186
19786SOL    HW161255   5.661   0.067   5.214
19786SOL    HW261256   5.521   0.032   5.168
19787SOL     OW61257   0.811  13.079   0.013
19787SOL    HW161258   0.757  13.151  14.859
19787SOL    HW261259   0.899  13.099  14.860
19788SOL     OW61260   1.736   2.214  12.399
19788SOL    HW161261   1.721   2.142  12.338
19788SOL    HW261262   1.743   2.171  12.485
19789SOL     OW61263   5.469   3.268   9.916
19789SOL    HW161264   5.384   3.225   9.922
19789SOL    HW261265   5.487   3.271   9.822
19790SOL     OW61266  12.247  13.127   3.450
19790SOL    HW161267  12.327  13.130   3.399
19790SOL    HW261268  12.196  13.202   3.418
19791SOL     OW61269   5.315  13.995   5.042
19791SOL    HW161270   5.275  13.941   5.111
19791SOL    HW261271   5.361  13.932   4.986
19792SOL     OW61272   7.197   4.188  13.910
19792SOL    HW161273   7.203   4.284  13.910
19792SOL    HW261274   7.287   4.159  13.898
19793SOL     OW61275  13.032  13.630   8.799
19793SOL    HW161276  13.041  13.709   8.745
19793SOL    HW261277  13.028  13.662   8.889
19794SOL     OW61278   0.886  10.920   9.109
19794SOL    HW161279   0.888  10.984   9.181
19794SOL    HW261280   0.811  10.864   9.130
19795SOL     OW61281   9.649   2.811   6.169
19795SOL    HW161282   9.567   2.857   6.152
19795SOL    HW261283   9.623   2.728   6.208
19796SOL     OW61284  10.267   6.004  13.542
19796SOL    HW161285  10.236   6.057  13.615
19796SOL    HW261286  10.261   6.061  13.466
19797SOL     OW61287  11.627  10.164  14.204
19797SOL    HW161288  11.678  10.242  14.182
19797SOL    HW261289  11.583  10.140  14.122
19798SOL     OW61290  10.610   0.289   0.718
19798SOL    HW161291  10.578   0.370   0.756
19798SOL    HW261292  10.651   0.242   0.792
19799SOL     OW61293   6.167   9.839   4.454
19799SOL    HW161294   6.133   9.757   4.491
19799SOL    HW261295   6.249   9.854   4.500
19800SOL     OW61296  11.661   3.037   9.116
19800SOL    HW161297  11.682   2.979   9.042
19800SOL    HW261298  11.605   2.983   9.173
19801SOL     OW61299  14.028   3.455   5.495
19801SOL    HW161300  14.016   3.549   5.505
19801SOL    HW261301  14.122   3.444   5.483
19802SOL     OW61302  11.920   3.194   8.247
19802SOL    HW161303  11.905   3.270   8.191
19802SOL    HW261304  11.841   3.141   8.238
19803SOL     OW61305   4.838   7.158   6.148
19803SOL    HW161306   4.837   7.249   6.119
19803SOL    HW261307   4.813   7.107   6.071
19804SOL     OW61308   7.516  11.298  14.251
19804SOL    HW161309   7.472  11.229  14.203
19804SOL    HW261310   7.458  11.374  14.244
19805SOL     OW61311   0.442   3.233   7.548
19805SOL    HW161312   0.459   3.326   7.565
19805SOL    HW261313   0.439   3.194   7.635
19806SOL     OW61314   7.044   3.450  12.996
19806SOL    HW161315   7.050   3.451  13.092
19806SOL    HW261316   6.964   3.498  12.977
19807SOL     OW61317   7.317  11.681   4.572
19807SOL    HW161318   7.390  11.626   4.543
19807SOL    HW261319   7.285  11.638   4.651
19808SOL     OW61320  12.451   8.843   4.190
19808SOL    HW161321  12.419   8.757   4.218
19808SOL    HW261322  12.400   8.905   4.242
19809SOL     OW61323  11.049   1.727  11.032
19809SOL    HW161324  10.965   1.724  10.986
19809SOL    HW261325  11.085   1.813  11.011
19810SOL     OW61326  11.142  12.510   5.349
19810SOL    HW161327  11.132  12.597   5.387
19810SOL    HW261328  11.123  12.522   5.256
19811SOL     OW61329   1.068   9.349   2.474
19811SOL    HW161330   1.141   9.411   2.480
19811SOL    HW261331   0.990   9.404   2.473
19812SOL     OW61332   1.836  13.621  14.853
19812SOL    HW161333   1.773  13.685  14.819
19812SOL    HW261334   1.886  13.669   0.039
19813SOL     OW61335   4.920   3.594  10.877
19813SOL    HW161336   4.849   3.541  10.840
19813SOL    HW261337   4.927   3.670  10.819
19814SOL     OW61338   0.551   8.040  12.294
19814SOL    HW161339   0.586   7.990  12.367
19814SOL    HW261340   0.461   8.060  12.319
19815SOL     OW61341   1.377   4.753  12.522
19815SOL    HW161342   1.356   4.734  12.614
19815SOL    HW261343   1.473   4.760  12.521
19816SOL     OW61344   1.064  14.619   9.195
19816SOL    HW161345   1.160  14.627   9.202
19816SOL    HW261346   1.045  14.647   9.105
19817SOL     OW61347   3.838   1.633   2.550
19817SOL    HW161348   3.862   1.545   2.581
19817SOL    HW261349   3.829   1.685   2.629
19818SOL     OW61350   5.695  12.838  14.100
19818SOL    HW161351   5.643  12.802  14.172
19818SOL    HW261352   5.767  12.776  14.090
19819SOL     OW61353  14.616   5.069  10.755
19819SOL    HW161354  14.627   4.975  10.767
19819SOL    HW261355  14.700   5.100  10.723
19820SOL     OW61356   9.739  11.139   8.160
19820SOL    HW161357   9.690  11.076   8.107
19820SOL    HW261358   9.693  11.141   8.244
19821SOL     OW61359  12.920   9.875   5.442
19821SOL    HW161360  13.011   9.903   5.440
19821SOL    HW261361  12.871   9.951   5.410
19822SOL     OW61362  10.010  10.811  13.556
19822SOL    HW161363   9.939  10.840  13.499
19822SOL    HW261364   9.967  10.779  13.635
19823SOL     OW61365   6.058   6.381   7.855
19823SOL    HW161366   6.095   6.373   7.943
19823SOL    HW261367   5.975   6.428   7.868
19824SOL     OW61368   4.272   6.877   0.910
19824SOL    HW161369   4.179   6.859   0.924
19824SOL    HW261370   4.314   6.849   0.991
19825SOL     OW61371  10.132   3.790   9.343
19825SOL    HW161372  10.080   3.735   9.285
19825SOL    HW261373  10.149   3.735   9.420
19826SOL     OW61374   7.361  12.006   1.376
19826SOL    HW161375   7.380  11.912   1.375
19826SOL    HW261376   7.366  12.031   1.284
19827SOL     OW61377   3.800   2.824   5.410
19827SOL    HW161378   3.724   2.823   5.351
19827SOL    HW261379   3.866   2.770   5.365
19828SOL     OW61380   1.569  13.578   6.831
19828SOL    HW161381   1.516  13.504   6.801
19828SOL    HW261382   1.649  13.538   6.865
19829SOL     OW61383   0.597  10.105  12.368
19829SOL    HW161384   0.654  10.076  12.439
19829SOL    HW261385   0.585  10.199  12.383
19830SOL     OW61386  11.434   3.811   9.318
19830SOL    HW161387  11.439   3.733   9.263
19830SOL    HW261388  11.457   3.884   9.260
19831SOL     OW61389   8.212  13.284  10.807
19831SOL    HW161390   8.130  13.319  10.841
19831SOL    HW261391   8.194  13.263  10.715
19832SOL     OW61392   9.373   1.477  11.587
19832SOL    HW161393   9.447   1.426  11.621
19832SOL    HW261394   9.389   1.566  11.619
19833SOL     OW61395   9.149   1.643  13.765
19833SOL    HW161396   9.230   1.610  13.803
19833SOL    HW261397   9.150   1.614  13.674
19834SOL     OW61398  14.582   2.988   0.246
19834SOL    HW161399  14.521   2.916   0.262
19834SOL    HW261400  14.548   3.032   0.168
19835SOL     OW61401   6.801  13.062  12.831
19835SOL    HW161402   6.772  13.089  12.744
19835SOL    HW261403   6.868  12.995  12.814
19836SOL     OW61404  12.324  13.098   9.207
19836SOL    HW161405  12.309  13.004   9.200
19836SOL    HW261406  12.409  13.112   9.166
19837SOL     OW61407   4.252   3.012  10.916
19837SOL    HW161408   4.176   3.032  10.862
19837SOL    HW261409   4.218   2.959  10.988
19838SOL     OW61410  11.511  12.687  10.492
19838SOL    HW161411  11.463  12.739  10.557
19838SOL    HW261412  11.557  12.621  10.545
19839SOL     OW61413   3.515   9.466   6.221
19839SOL    HW161414   3.562   9.537   6.177
19839SOL    HW261415   3.556   9.386   6.190
19840SOL     OW61416   7.101  13.500   6.592
19840SOL    HW161417   7.080  13.410   6.567
19840SOL    HW261418   7.019  13.536   6.624
19841SOL     OW61419   6.170  10.430   0.754
19841SOL    HW161420   6.203  10.498   0.813
19841SOL    HW261421   6.088  10.465   0.719
19842SOL     OW61422   0.548   1.605  13.090
19842SOL    HW161423   0.627   1.659  13.101
19842SOL    HW261424   0.568   1.525  13.139
19843SOL     OW61425  10.788   5.449   0.362
19843SOL    HW161426  10.696   5.452   0.387
19843SOL    HW261427  10.789   5.403   0.278
19844SOL     OW61428   9.391   9.529  12.610
19844SOL    HW161429   9.398   9.460  12.675
19844SOL    HW261430   9.299   9.557  12.614
19845SOL     OW61431  11.048   8.734   1.737
19845SOL    HW161432  11.047   8.801   1.668
19845SOL    HW261433  10.985   8.766   1.802
19846SOL     OW61434  12.701   0.397   4.060
19846SOL    HW161435  12.751   0.319   4.084
19846SOL    HW261436  12.765   0.468   4.065
19847SOL     OW61437   5.037   1.937   0.153
19847SOL    HW161438   4.956   1.933   0.103
19847SOL    HW261439   5.024   2.010   0.214
19848SOL     OW61440   8.758   9.538   6.294
19848SOL    HW161441   8.741   9.460   6.346
19848SOL    HW261442   8.774   9.607   6.359
19849SOL     OW61443  11.257  11.861   6.782
19849SOL    HW161444  11.183  11.883   6.838
19849SOL    HW261445  11.222  11.800   6.718
19850SOL     OW61446   3.972   7.941   3.856
19850SOL    HW161447   3.980   8.037   3.858
19850SOL    HW261448   3.902   7.925   3.793
19851SOL     OW61449   6.765   1.285   7.674
19851SOL    HW161450   6.702   1.276   7.745
19851SOL    HW261451   6.765   1.200   7.630
19852SOL     OW61452   5.444   5.691  10.145
19852SOL    HW161453   5.502   5.743  10.201
19852SOL    HW261454   5.363   5.683  10.195
19853SOL     OW61455   6.989   3.589  10.164
19853SOL    HW161456   7.075   3.624  10.187
19853SOL    HW261457   7.006   3.529  10.091
19854SOL     OW61458   2.710  10.330  11.191
19854SOL    HW161459   2.777  10.363  11.251
19854SOL    HW261460   2.688  10.405  11.136
19855SOL     OW61461   6.101   7.460  14.338
19855SOL    HW161462   6.123   7.551  14.320
19855SOL    HW261463   6.186   7.415  14.342
19856SOL     OW61464   8.723   5.609   3.711
19856SOL    HW161465   8.752   5.698   3.692
19856SOL    HW261466   8.674   5.617   3.793
19857SOL     OW61467   7.346   3.678  10.429
19857SOL    HW161468   7.288   3.602  10.425
19857SOL    HW261469   7.418   3.656  10.370
19858SOL     OW61470  13.101   8.108   9.164
19858SOL    HW161471  13.193   8.085   9.150
19858SOL    HW261472  13.058   8.024   9.180
19859SOL     OW61473   1.701   5.159   5.474
19859SOL    HW161474   1.754   5.213   5.415
19859SOL    HW261475   1.629   5.127   5.419
19860SOL     OW61476  12.810   4.870   7.059
19860SOL    HW161477  12.727   4.881   7.106
19860SOL    HW261478  12.784   4.835   6.974
19861SOL     OW61479   8.038   6.647   0.482
19861SOL    HW161480   7.944   6.633   0.480
19861SOL    HW261481   8.075   6.570   0.440
19862SOL     OW61482   1.456   5.703   3.541
19862SOL    HW161483   1.367   5.678   3.515
19862SOL    HW261484   1.513   5.639   3.499
19863SOL     OW61485   6.386   2.114  11.969
19863SOL    HW161486   6.332   2.119  11.890
19863SOL    HW261487   6.423   2.201  11.978
19864SOL     OW61488  11.972   3.491   8.908
19864SOL    HW161489  11.961   3.418   8.970
19864SOL    HW261490  12.064   3.487   8.884
19865SOL     OW61491   1.232  14.189   8.053
19865SOL    HW161492   1.183  14.268   8.031
19865SOL    HW261493   1.179  14.117   8.018
19866SOL     OW61494   2.272  10.900   1.524
19866SOL    HW161495   2.242  10.809   1.532
19866SOL    HW261496   2.356  10.893   1.477
19867SOL     OW61497   9.588   7.305  12.198
19867SOL    HW161498   9.629   7.312  12.285
19867SOL    HW261499   9.556   7.393  12.180
19868SOL     OW61500   3.579  10.659   3.642
19868SOL    HW161501   3.574  10.618   3.729
19868SOL    HW261502   3.672  10.653   3.618
19869SOL     OW61503   0.183   7.266   2.016
19869SOL    HW161504   0.245   7.233   2.080
19869SOL    HW261505   0.100   7.272   2.063
19870SOL     OW61506  10.863   5.456  12.905
19870SOL    HW161507  10.771   5.471  12.883
19870SOL    HW261508  10.892   5.389  12.844
19871SOL     OW61509  11.746   7.841   3.007
19871SOL    HW161510  11.724   7.929   3.039
19871SOL    HW261511  11.775   7.855   2.917
19872SOL     OW61512   1.565   5.780   4.509
19872SOL    HW161513   1.579   5.702   4.455
19872SOL    HW261514   1.479   5.812   4.482
19873SOL     OW61515  10.736  14.830   8.016
19873SOL    HW161516  10.701   0.039   8.005
19873SOL    HW261517  10.749  14.799   7.926
19874SOL     OW61518   6.343   2.692   2.688
19874SOL    HW161519   6.363   2.603   2.716
19874SOL    HW261520   6.404   2.708   2.615
19875SOL     OW61521   1.565  14.392  12.575
19875SOL    HW161522   1.511  14.340  12.635
19875SOL    HW261523   1.591  14.330  12.506
19876SOL     OW61524   7.872  10.406   2.862
19876SOL    HW161525   7.921  10.433   2.939
19876SOL    HW261526   7.919  10.445   2.788
19877SOL     OW61527   4.152   0.399  10.557
19877SOL    HW161528   4.245   0.412  10.579
19877SOL    HW261529   4.109   0.393  10.642
19878SOL     OW61530  11.666   6.010   6.842
19878SOL    HW161531  11.628   6.035   6.926
19878SOL    HW261532  11.618   6.061   6.777
19879SOL     OW61533   9.791  13.529  13.338
19879SOL    HW161534   9.714  13.585  13.332
19879SOL    HW261535   9.863  13.589  13.357
19880SOL     OW61536   1.289   9.075   5.444
19880SOL    HW161537   1.357   9.008   5.448
19880SOL    HW261538   1.331   9.154   5.479
19881SOL     OW61539   5.882  12.750  12.317
19881SOL    HW161540   5.811  12.813  12.314
19881SOL    HW261541   5.953  12.795  12.362
19882SOL     OW61542   9.935   2.031  12.907
19882SOL    HW161543   9.873   2.089  12.863
19882SOL    HW261544   9.999   2.090  12.947
19883SOL     OW61545   1.719   8.871   6.065
19883SOL    HW161546   1.748   8.930   5.996
19883SOL    HW261547   1.801   8.835   6.101
19884SOL     OW61548   9.803  10.811   2.526
19884SOL    HW161549   9.747  10.761   2.585
19884SOL    HW261550   9.880  10.755   2.514
19885SOL     OW61551   8.465  11.272   5.129
19885SOL    HW161552   8.484  11.205   5.063
19885SOL    HW261553   8.394  11.323   5.091
19886SOL     OW61554  11.891   7.745   0.804
19886SOL    HW161555  11.975   7.702   0.822
19886SOL    HW261556  11.828   7.699   0.859
19887SOL     OW61557   2.620  13.196   5.328
19887SOL    HW161558   2.709  13.207   5.362
19887SOL    HW261559   2.570  13.158   5.400
19888SOL     OW61560   3.805   7.312  14.226
19888SOL    HW161561   3.879   7.315  14.287
19888SOL    HW261562   3.846   7.301  14.140
19889SOL     OW61563   0.736   0.185  14.253
19889SOL    HW161564   0.682   0.261  14.233
19889SOL    HW261565   0.809   0.220  14.304
19890SOL     OW61566   9.011  14.105  14.275
19890SOL    HW161567   9.047  14.193  14.286
19890SOL    HW261568   9.081  14.047  14.306
19891SOL     OW61569  12.119   9.013  12.699
19891SOL    HW161570  12.093   9.096  12.659
19891SOL    HW261571  12.214   9.019  12.706
19892SOL     OW61572   7.062   8.270   1.806
19892SOL    HW161573   7.093   8.202   1.866
19892SOL    HW261574   6.979   8.236   1.773
19893SOL     OW61575  13.101  10.972   9.371
19893SOL    HW161576  13.194  10.988   9.388
19893SOL    HW261577  13.057  11.046   9.413
19894SOL     OW61578   3.361   6.436  10.024
19894SOL    HW161579   3.313   6.510   9.988
19894SOL    HW261580   3.448   6.443   9.984
19895SOL     OW61581   1.224   0.071  10.636
19895SOL    HW161582   1.304   0.041  10.592
19895SOL    HW261583   1.154   0.021  10.595
19896SOL     OW61584  13.350   4.866  10.632
19896SOL    HW161585  13.433   4.913  10.623
19896SOL    HW261586  13.341   4.819  10.549
19897SOL     OW61587  12.097   7.209   9.034
19897SOL    HW161588  12.054   7.265   9.099
19897SOL    HW261589  12.112   7.267   8.959
19898SOL     OW61590   9.085   2.581   9.737
19898SOL    HW161591   9.037   2.606   9.817
19898SOL    HW261592   9.045   2.635   9.668
19899SOL     OW61593   7.216  11.370   1.280
19899SOL    HW161594   7.305  11.361   1.248
19899SOL    HW261595   7.161  11.342   1.207
19900SOL     OW61596  14.392   9.934   3.714
19900SOL    HW161597  14.413   9.869   3.781
19900SOL    HW261598  14.476   9.975   3.693
19901SOL     OW61599   3.442   4.894   2.466
19901SOL    HW161600   3.378   4.874   2.398
19901SOL    HW261601   3.525   4.903   2.419
19902SOL     OW61602  10.182   4.920   2.598
19902SOL    HW161603  10.115   4.859   2.568
19902SOL    HW261604  10.146   4.959   2.677
19903SOL     OW61605  12.605   7.320   9.050
19903SOL    HW161606  12.657   7.400   9.057
19903SOL    HW261607  12.570   7.322   8.961
19904SOL     OW61608   6.102   5.376  11.109
19904SOL    HW161609   6.086   5.359  11.016
19904SOL    HW261610   6.176   5.436  11.110
19905SOL     OW61611  11.261   0.665   1.996
19905SOL    HW161612  11.219   0.741   1.957
19905SOL    HW261613  11.226   0.660   2.085
19906SOL     OW61614   6.963   7.790  11.810
19906SOL    HW161615   6.915   7.722  11.762
19906SOL    HW261616   7.044   7.802  11.759
19907SOL     OW61617   8.295  12.805  12.738
19907SOL    HW161618   8.226  12.781  12.676
19907SOL    HW261619   8.311  12.725  12.789
19908SOL     OW61620   7.517  14.804   7.175
19908SOL    HW161621   7.491  14.879   7.228
19908SOL    HW261622   7.468  14.731   7.212
19909SOL     OW61623  13.890   9.898   3.935
19909SOL    HW161624  13.980   9.867   3.939
19909SOL    HW261625  13.880   9.935   3.848
19910SOL     OW61626  13.483  13.971   0.227
19910SOL    HW161627  13.521  13.883   0.236
19910SOL    HW261628  13.510  13.999   0.140
19911SOL     OW61629   2.342   5.361  11.707
19911SOL    HW161630   2.306   5.449  11.720
19911SOL    HW261631   2.430   5.375  11.673
19912SOL     OW61632   4.043   4.169   6.490
19912SOL    HW161633   4.062   4.101   6.426
19912SOL    HW261634   4.117   4.166   6.551
19913SOL     OW61635   9.543   6.905  13.075
19913SOL    HW161636   9.457   6.943  13.093
19913SOL    HW261637   9.559   6.925  12.983
19914SOL     OW61638   3.961   6.248   5.965
19914SOL    HW161639   4.035   6.208   5.919
19914SOL    HW261640   3.924   6.176   6.018
19915SOL     OW61641   2.902   3.588   9.845
19915SOL    HW161642   2.842   3.658   9.818
19915SOL    HW261643   2.921   3.607   9.937
19916SOL     OW61644   2.030  13.685   5.259
19916SOL    HW161645   2.085  13.669   5.182
19916SOL    HW261646   2.079  13.749   5.310
19917SOL     OW61647  10.279   0.203   1.077
19917SOL    HW161648  10.219   0.208   1.003
19917SOL    HW261649  10.278   0.111   1.103
19918SOL     OW61650   7.373  11.499   1.928
19918SOL    HW161651   7.358  11.593   1.920
19918SOL    HW261652   7.431  11.478   1.855
19919SOL     OW61653  10.979   5.650   1.402
19919SOL    HW161654  10.987   5.558   1.427
19919SOL    HW261655  10.994   5.651   1.308
19920SOL     OW61656   1.396   7.789   6.425
19920SOL    HW161657   1.406   7.820   6.336
19920SOL    HW261658   1.357   7.863   6.472
19921SOL     OW61659  11.982   3.782   6.415
19921SOL    HW161660  12.045   3.818   6.477
19921SOL    HW261661  12.003   3.825   6.332
19922SOL     OW61662   4.106  14.707  12.335
19922SOL    HW161663   4.134  14.661  12.414
19922SOL    HW261664   4.013  14.688  12.327
19923SOL     OW61665  13.857   8.209   7.504
19923SOL    HW161666  13.948   8.222   7.476
19923SOL    HW261667  13.858   8.128   7.554
19924SOL     OW61668  14.548   6.648   1.542
19924SOL    HW161669  14.628   6.656   1.490
19924SOL    HW261670  14.547   6.556   1.570
19925SOL     OW61671  10.935   3.928   1.262
19925SOL    HW161672  10.857   3.875   1.279
19925SOL    HW261673  10.944   3.929   1.166
19926SOL     OW61674   6.645  10.976   3.807
19926SOL    HW161675   6.561  11.022   3.811
19926SOL    HW261676   6.622  10.886   3.782
19927SOL     OW61677   9.555   8.992   9.534
19927SOL    HW161678   9.579   9.071   9.583
19927SOL    HW261679   9.469   8.968   9.568
19928SOL     OW61680   8.671   6.506   4.306
19928SOL    HW161681   8.691   6.580   4.249
19928SOL    HW261682   8.614   6.542   4.373
19929SOL     OW61683  13.277  10.652  11.735
19929SOL    HW161684  13.321  10.684  11.814
19929SOL    HW261685  13.223  10.579  11.766
19930SOL     OW61686  12.154   6.332  12.204
19930SOL    HW161687  12.230   6.378  12.241
19930SOL    HW261688  12.184   6.242  12.195
19931SOL     OW61689   6.168   3.683   4.185
19931SOL    HW161690   6.082   3.660   4.220
19931SOL    HW261691   6.229   3.623   4.228
19932SOL     OW61692  12.569   8.859   8.045
19932SOL    HW161693  12.553   8.928   8.109
19932SOL    HW261694  12.500   8.795   8.061
19933SOL     OW61695  10.392   4.972   6.155
19933SOL    HW161696  10.426   4.925   6.078
19933SOL    HW261697  10.359   5.054   6.120
19934SOL     OW61698  13.444  11.346   2.136
19934SOL    HW161699  13.447  11.419   2.074
19934SOL    HW261700  13.383  11.374   2.204
19935SOL     OW61701   5.336  12.250   9.593
19935SOL    HW161702   5.340  12.327   9.536
19935SOL    HW261703   5.348  12.284   9.681
19936SOL     OW61704   5.488   1.822  11.256
19936SOL    HW161705   5.583   1.819  11.262
19936SOL    HW261706   5.465   1.910  11.287
19937SOL     OW61707   1.217  11.174   6.290
19937SOL    HW161708   1.191  11.200   6.378
19937SOL    HW261709   1.240  11.082   6.299
19938SOL     OW61710   2.139   5.700   2.629
19938SOL    HW161711   2.169   5.789   2.608
19938SOL    HW261712   2.220   5.648   2.632
19939SOL     OW61713   3.100   8.264   8.349
19939SOL    HW161714   3.109   8.169   8.339
19939SOL    HW261715   3.161   8.301   8.285
19940SOL     OW61716   0.917  14.459   0.990
19940SOL    HW161717   1.008  14.486   0.994
19940SOL    HW261718   0.910  14.388   1.054
19941SOL     OW61719  13.334   4.488  13.102
19941SOL    HW161720  13.415   4.483  13.154
19941SOL    HW261721  13.291   4.568  13.131
19942SOL     OW61722  14.033  13.466   5.844
19942SOL    HW161723  14.021  13.371   5.846
19942SOL    HW261724  14.041  13.491   5.935
19943SOL     OW61725   0.978  10.652   7.982
19943SOL    HW161726   0.953  10.736   8.019
19943SOL    HW261727   0.939  10.587   8.041
19944SOL     OW61728  11.666   4.008   6.550
19944SOL    HW161729  11.736   4.063   6.585
19944SOL    HW261730  11.601   4.069   6.518
19945SOL     OW61731  14.216  14.652  12.537
19945SOL    HW161732  14.127  14.647  12.575
19945SOL    HW261733  14.271  14.677  12.611
19946SOL     OW61734   6.901   3.809   9.306
19946SOL    HW161735   6.806   3.814   9.291
19946SOL    HW261736   6.938   3.796   9.219
19947SOL     OW61737   4.178  13.372   9.613
19947SOL    HW161738   4.251  13.427   9.585
19947SOL    HW261739   4.145  13.333   9.532
19948SOL     OW61740  11.843  11.114   1.693
19948SOL    HW161741  11.756  11.154   1.691
19948SOL    HW261742  11.892  11.166   1.756
19949SOL     OW61743  14.122  10.331   9.411
19949SOL    HW161744  14.082  10.418   9.402
19949SOL    HW261745  14.213  10.350   9.433
19950SOL     OW61746  14.211  13.068   8.711
19950SOL    HW161747  14.180  13.146   8.757
19950SOL    HW261748  14.133  13.031   8.670
19951SOL     OW61749  10.161  13.581   1.134
19951SOL    HW161750  10.150  13.575   1.039
19951SOL    HW261751  10.243  13.628   1.145
19952SOL     OW61752   7.777   9.213   7.440
19952SOL    HW161753   7.836   9.252   7.504
19952SOL    HW261754   7.800   9.120   7.440
19953SOL     OW61755   2.763   0.501   3.834
19953SOL    HW161756   2.758   0.432   3.900
19953SOL    HW261757   2.847   0.545   3.851
19954SOL     OW61758   2.897   5.922   6.476
19954SOL    HW161759   2.961   5.907   6.545
19954SOL    HW261760   2.911   5.851   6.413
19955SOL     OW61761  12.782   0.418  13.624
19955SOL    HW161762  12.845   0.405  13.553
19955SOL    HW261763  12.717   0.348  13.611
19956SOL     OW61764  12.078  12.294  14.000
19956SOL    HW161765  12.050  12.240  13.926
19956SOL    HW261766  12.037  12.379  13.984
19957SOL     OW61767   9.097   1.200   2.972
19957SOL    HW161768   9.162   1.142   2.931
19957SOL    HW261769   9.022   1.144   2.990
19958SOL     OW61770  11.151  10.907  10.893
19958SOL    HW161771  11.139  10.997  10.864
19958SOL    HW261772  11.246  10.893  10.892
19959SOL     OW61773   4.242  13.654  12.735
19959SOL    HW161774   4.329  13.694  12.741
19959SOL    HW261775   4.186  13.725  12.702
19960SOL     OW61776   8.519  12.972   3.413
19960SOL    HW161777   8.460  13.002   3.482
19960SOL    HW261778   8.468  12.908   3.364
19961SOL     OW61779  11.479   1.636   1.991
19961SOL    HW161780  11.529   1.657   2.070
19961SOL    HW261781  11.441   1.719   1.964
19962SOL     OW61782  12.508   5.174   2.374
19962SOL    HW161783  12.480   5.172   2.282
19962SOL    HW261784  12.540   5.263   2.387
19963SOL     OW61785   2.943   9.886   0.205
19963SOL    HW161786   2.960   9.917   0.294
19963SOL    HW261787   3.011   9.927   0.152
19964SOL     OW61788  11.542  11.279   2.691
19964SOL    HW161789  11.490  11.283   2.611
19964SOL    HW261790  11.582  11.192   2.689
19965SOL     OW61791  10.814   6.398   7.484
19965SOL    HW161792  10.819   6.457   7.409
19965SOL    HW261793  10.833   6.455   7.559
19966SOL     OW61794   0.176   4.516  11.917
19966SOL    HW161795   0.144   4.579  11.852
19966SOL    HW261796   0.097   4.489  11.965
19967SOL     OW61797   4.076  11.257  11.215
19967SOL    HW161798   4.061  11.170  11.252
19967SOL    HW261799   4.163  11.282  11.247
19968SOL     OW61800  10.683  13.222   3.099
19968SOL    HW161801  10.759  13.280   3.093
19968SOL    HW261802  10.656  13.208   3.008
19969SOL     OW61803  13.839  11.837  10.509
19969SOL    HW161804  13.764  11.850  10.567
19969SOL    HW261805  13.916  11.851  10.565
19970SOL     OW61806   7.167   9.615   7.792
19970SOL    HW161807   7.243   9.592   7.737
19970SOL    HW261808   7.093   9.613   7.732
19971SOL     OW61809  12.773   8.065  13.820
19971SOL    HW161810  12.760   8.085  13.912
19971SOL    HW261811  12.819   8.141  13.785
19972SOL     OW61812  14.417  10.882   2.869
19972SOL    HW161813  14.405  10.923   2.783
19972SOL    HW261814  14.433  10.956   2.928
19973SOL     OW61815  11.878   3.973  13.120
19973SOL    HW161816  11.899   3.892  13.167
19973SOL    HW261817  11.791   3.958  13.083
19974SOL     OW61818   4.115   1.701  11.867
19974SOL    HW161819   4.075   1.711  11.780
19974SOL    HW261820   4.204   1.672  11.849
19975SOL     OW61821   1.962   5.045   7.474
19975SOL    HW161822   1.929   5.022   7.561
19975SOL    HW261823   1.986   5.137   7.481
19976SOL     OW61824   8.709   9.779  13.178
19976SOL    HW161825   8.646   9.773  13.107
19976SOL    HW261826   8.665   9.739  13.253
19977SOL     OW61827   8.904  11.142  11.493
19977SOL    HW161828   8.937  11.135  11.403
19977SOL    HW261829   8.966  11.089  11.545
19978SOL     OW61830   6.973   9.969   7.935
19978SOL    HW161831   6.879   9.954   7.943
19978SOL    HW261832   6.981  10.040   7.871
19979SOL     OW61833   4.635   8.026  12.287
19979SOL    HW161834   4.581   8.012  12.208
19979SOL    HW261835   4.622   7.947  12.339
19980SOL     OW61836   8.782   5.569   0.554
19980SOL    HW161837   8.805   5.477   0.546
19980SOL    HW261838   8.738   5.576   0.639
19981SOL     OW61839  14.368  10.034   1.152
19981SOL    HW161840  14.313  10.103   1.190
19981SOL    HW261841  14.315   9.955   1.157
19982SOL     OW61842   5.105   1.154   5.117
19982SOL    HW161843   5.113   1.175   5.024
19982SOL    HW261844   5.114   1.059   5.122
19983SOL     OW61845  12.622   4.585   0.547
19983SOL    HW161846  12.549   4.608   0.490
19983SOL    HW261847  12.654   4.668   0.580
19984SOL     OW61848   4.257   7.464  14.335
19984SOL    HW161849   4.270   7.438  14.244
19984SOL    HW261850   4.257   7.559  14.334
19985SOL     OW61851  11.789   1.622  12.781
19985SOL    HW161852  11.772   1.650  12.691
19985SOL    HW261853  11.812   1.703  12.827
19986SOL     OW61854  14.385   8.074  12.193
19986SOL    HW161855  14.378   8.139  12.123
19986SOL    HW261856  14.328   8.106  12.263
19987SOL     OW61857  10.139   1.234  10.193
19987SOL    HW161858  10.154   1.206  10.283
19987SOL    HW261859  10.177   1.165  10.139
19988SOL     OW61860   1.283  12.635  13.938
19988SOL    HW161861   1.291  12.660  13.846
19988SOL    HW261862   1.230  12.704  13.978
19989SOL     OW61863   8.183   2.621   5.502
19989SOL    HW161864   8.163   2.715   5.506
19989SOL    HW261865   8.267   2.613   5.547
19990SOL     OW61866   5.550   9.326   6.254
19990SOL    HW161867   5.518   9.263   6.318
19990SOL    HW261868   5.478   9.388   6.244
19991SOL     OW61869  12.958   4.369   3.802
19991SOL    HW161870  13.034   4.374   3.860
19991SOL    HW261871  12.991   4.393   3.716
19992SOL     OW61872   4.708   7.138   5.508
19992SOL    HW161873   4.737   7.159   5.420
19992SOL    HW261874   4.746   7.052   5.527
19993SOL     OW61875   1.270  12.608  11.770
19993SOL    HW161876   1.298  12.523  11.738
19993SOL    HW261877   1.174  12.603  11.770
19994SOL     OW61878  12.202  13.764   8.643
19994SOL    HW161879  12.155  13.794   8.721
19994SOL    HW261880  12.273  13.827   8.632
19995SOL     OW61881  10.607   2.498  10.541
19995SOL    HW161882  10.681   2.453  10.501
19995SOL    HW261883  10.617   2.483  10.635
19996SOL     OW61884   6.503  14.852  12.985
19996SOL    HW161885   6.468   0.053  13.024
19996SOL    HW261886   6.473  14.853  12.894
19997SOL     OW61887   9.961   2.644   2.363
19997SOL    HW161888   9.944   2.591   2.440
19997SOL    HW261889  10.042   2.691   2.384
19998SOL     OW61890   1.388  11.385  13.081
19998SOL    HW161891   1.439  11.448  13.030
19998SOL    HW261892   1.378  11.426  13.167
19999SOL     OW61893   2.667   9.230   4.627
19999SOL    HW161894   2.652   9.278   4.709
19999SOL    HW261895   2.674   9.139   4.653
20000SOL     OW61896   2.565   0.277   4.264
20000SOL    HW161897   2.577   0.318   4.350
20000SOL    HW261898   2.530   0.347   4.209
20001SOL     OW61899   7.335   5.202   0.432
20001SOL    HW161900   7.335   5.220   0.526
20001SOL    HW261901   7.275   5.266   0.395
20002SOL     OW61902   2.171   7.964   0.934
20002SOL    HW161903   2.177   7.903   0.860
20002SOL    HW261904   2.235   8.032   0.914
20003SOL     OW61905  14.739   0.986  12.641
20003SOL    HW161906  14.707   0.978  12.731
20003SOL    HW261907  14.826   0.946  12.643
20004SOL     OW61908   6.740   4.492   1.969
20004SOL    HW161909   6.734   4.552   1.894
20004SOL    HW261910   6.784   4.542   2.037
20005SOL     OW61911   5.720   8.629   0.387
20005SOL    HW161912   5.758   8.616   0.300
20005SOL    HW261913   5.779   8.584   0.447
20006SOL     OW61914  10.667   5.132   2.423
20006SOL    HW161915  10.663   5.089   2.508
20006SOL    HW261916  10.581   5.174   2.414
20007SOL     OW61917   0.063   4.504   6.905
20007SOL    HW161918   0.046   4.518   6.811
20007SOL    HW261919  14.859   4.473   6.939
20008SOL     OW61920  12.016   9.642   9.853
20008SOL    HW161921  12.006   9.713   9.790
20008SOL    HW261922  11.988   9.564   9.805
20009SOL     OW61923   8.918   6.533   7.570
20009SOL    HW161924   8.908   6.513   7.663
20009SOL    HW261925   8.943   6.626   7.568
20010SOL     OW61926  14.627  13.866   0.309
20010SOL    HW161927  14.604  13.878   0.217
20010SOL    HW261928  14.716  13.830   0.307
20011SOL     OW61929   6.012   5.359   1.136
20011SOL    HW161930   5.973   5.442   1.106
20011SOL    HW261931   5.974   5.293   1.079
20012SOL     OW61932  10.428   3.332   7.842
20012SOL    HW161933  10.487   3.389   7.793
20012SOL    HW261934  10.340   3.366   7.824
20013SOL     OW61935   8.261   7.825  10.417
20013SOL    HW161936   8.192   7.816  10.483
20013SOL    HW261937   8.335   7.777  10.454
20014SOL     OW61938   1.220   9.979   3.943
20014SOL    HW161939   1.132  10.016   3.935
20014SOL    HW261940   1.215   9.920   4.018
20015SOL     OW61941   0.304   6.461   6.173
20015SOL    HW161942   0.345   6.546   6.155
20015SOL    HW261943   0.310   6.415   6.089
20016SOL     OW61944   2.784   3.840  10.770
20016SOL    HW161945   2.798   3.920  10.820
20016SOL    HW261946   2.722   3.789  10.823
20017SOL     OW61947  13.083  10.962  10.863
20017SOL    HW161948  13.101  10.871  10.887
20017SOL    HW261949  13.011  10.989  10.920
20018SOL     OW61950  11.616  13.659   9.586
20018SOL    HW161951  11.669  13.668   9.665
20018SOL    HW261952  11.535  13.706   9.606
20019SOL     OW61953   2.412   4.988  12.162
20019SOL    HW161954   2.462   5.068  12.143
20019SOL    HW261955   2.334   4.996  12.108
20020SOL     OW61956   4.228   9.613   8.882
20020SOL    HW161957   4.237   9.518   8.878
20020SOL    HW261958   4.143   9.627   8.925
20021SOL     OW61959  14.525   3.240   6.627
20021SOL    HW161960  14.613   3.212   6.655
20021SOL    HW261961  14.482   3.268   6.708
20022SOL     OW61962   2.504  12.879   9.949
20022SOL    HW161963   2.411  12.896   9.933
20022SOL    HW261964   2.509  12.864  10.044
20023SOL     OW61965   6.066   1.381   2.681
20023SOL    HW161966   6.098   1.433   2.607
20023SOL    HW261967   6.062   1.442   2.754
20024SOL     OW61968   0.129   9.444   4.080
20024SOL    HW161969   0.130   9.532   4.117
20024SOL    HW261970   0.220   9.416   4.079
20025SOL     OW61971  11.618  11.367  13.336
20025SOL    HW161972  11.710  11.342  13.330
20025SOL    HW261973  11.570  11.284  13.333
20026SOL     OW61974   9.281   6.096  12.503
20026SOL    HW161975   9.222   6.158  12.458
20026SOL    HW261976   9.230   6.016  12.510
20027SOL     OW61977   9.296   4.264   0.809
20027SOL    HW161978   9.260   4.351   0.825
20027SOL    HW261979   9.222   4.212   0.778
20028SOL     OW61980   8.528   3.259   3.663
20028SOL    HW161981   8.466   3.297   3.726
20028SOL    HW261982   8.553   3.333   3.608
20029SOL     OW61983   7.531   6.944   9.485
20029SOL    HW161984   7.508   6.869   9.430
20029SOL    HW261985   7.516   7.020   9.430
20030SOL     OW61986   8.653   5.486   1.554
20030SOL    HW161987   8.676   5.411   1.499
20030SOL    HW261988   8.646   5.559   1.492
20031SOL     OW61989   5.149   0.627   4.756
20031SOL    HW161990   5.233   0.662   4.727
20031SOL    HW261991   5.168   0.587   4.841
20032SOL     OW61992  13.980   6.339   5.583
20032SOL    HW161993  13.919   6.360   5.513
20032SOL    HW261994  13.931   6.358   5.664
20033SOL     OW61995  13.607   2.081   9.056
20033SOL    HW161996  13.592   2.058   8.964
20033SOL    HW261997  13.609   1.996   9.101
20034SOL     OW61998   9.424   1.686   7.389
20034SOL    HW161999   9.396   1.777   7.381
20034SOL    HW262000   9.519   1.690   7.390
20035SOL     OW62001   1.915   3.714   3.989
20035SOL    HW162002   1.982   3.713   4.058
20035SOL    HW262003   1.896   3.807   3.976
20036SOL     OW62004   9.856   7.143   1.000
20036SOL    HW162005   9.782   7.094   1.036
20036SOL    HW262006   9.930   7.119   1.056
20037SOL     OW62007  13.378   1.716  11.342
20037SOL    HW162008  13.323   1.789  11.314
20037SOL    HW262009  13.448   1.713  11.277
20038SOL     OW62010   6.800   9.611   3.467
20038SOL    HW162011   6.719   9.661   3.459
20038SOL    HW262012   6.859   9.650   3.403
20039SOL     OW62013   6.061  13.631   8.926
20039SOL    HW162014   6.099  13.665   8.845
20039SOL    HW262015   6.135  13.591   8.972
20040SOL     OW62016   2.668   0.755  14.112
20040SOL    HW162017   2.751   0.800  14.128
20040SOL    HW262018   2.688   0.694  14.041
20041SOL     OW62019   8.557   4.845   1.848
20041SOL    HW162020   8.579   4.929   1.809
20041SOL    HW262021   8.515   4.796   1.778
20042SOL     OW62022   3.926  14.613   9.775
20042SOL    HW162023   3.947  14.549   9.844
20042SOL    HW262024   3.832  14.603   9.761
20043SOL     OW62025  12.361   7.361  14.367
20043SOL    HW162026  12.309   7.291  14.404
20043SOL    HW262027  12.411   7.396  14.441
20044SOL     OW62028   4.249   5.607   9.389
20044SOL    HW162029   4.323   5.548   9.379
20044SOL    HW262030   4.190   5.584   9.317
20045SOL     OW62031   2.881   5.356   0.239
20045SOL    HW162032   2.891   5.302   0.317
20045SOL    HW262033   2.960   5.340   0.188
20046SOL     OW62034  13.020  12.716   4.988
20046SOL    HW162035  13.058  12.631   5.012
20046SOL    HW262036  13.095  12.776   4.986
20047SOL     OW62037   0.348   3.954   0.919
20047SOL    HW162038   0.394   3.880   0.880
20047SOL    HW262039   0.370   4.029   0.863
20048SOL     OW62040   8.572  14.373  10.274
20048SOL    HW162041   8.561  14.422  10.355
20048SOL    HW262042   8.627  14.429  10.219
20049SOL     OW62043  13.730  13.458  12.596
20049SOL    HW162044  13.739  13.516  12.671
20049SOL    HW262045  13.820  13.442  12.567
20050SOL     OW62046   3.502  11.237  11.737
20050SOL    HW162047   3.520  11.167  11.800
20050SOL    HW262048   3.511  11.195  11.651
20051SOL     OW62049  14.843  14.108  12.310
20051SOL    HW162050  14.774  14.088  12.373
20051SOL    HW262051   0.042  14.119  12.363
20052SOL     OW62052   0.303  13.021   4.831
20052SOL    HW162053   0.304  13.068   4.748
20052SOL    HW262054   0.368  13.067   4.885
20053SOL     OW62055   8.603  12.520  12.654
20053SOL    HW162056   8.603  12.582  12.581
20053SOL    HW262057   8.544  12.560  12.718
20054SOL     OW62058  12.142   7.834   1.475
20054SOL    HW162059  12.124   7.859   1.566
20054SOL    HW262060  12.188   7.910   1.438
20055SOL     OW62061   6.279  12.808  13.548
20055SOL    HW162062   6.195  12.763  13.560
20055SOL    HW262063   6.256  12.901  13.551
20056SOL     OW62064  10.422   6.915  11.938
20056SOL    HW162065  10.420   7.008  11.917
20056SOL    HW262066  10.354   6.876  11.884
20057SOL     OW62067  10.938   8.087   0.392
20057SOL    HW162068  10.869   8.126   0.445
20057SOL    HW262069  11.018   8.105   0.440
20058SOL     OW62070   9.511  13.642   8.737
20058SOL    HW162071   9.599  13.610   8.756
20058SOL    HW262072   9.521  13.699   8.662
20059SOL     OW62073   9.362   9.165   1.941
20059SOL    HW162074   9.328   9.076   1.933
20059SOL    HW262075   9.302   9.218   1.889
20060SOL     OW62076   1.890   4.931   5.257
20060SOL    HW162077   1.844   5.005   5.215
20060SOL    HW262078   1.969   4.920   5.204
20061SOL     OW62079  13.484  14.047  12.596
20061SOL    HW162080  13.545  14.007  12.534
20061SOL    HW262081  13.442  13.973  12.640
20062SOL     OW62082   1.651  14.867  14.414
20062SOL    HW162083   1.589  14.837  14.347
20062SOL    HW262084   1.661   0.081  14.397
20063SOL     OW62085   5.737   1.574   8.550
20063SOL    HW162086   5.781   1.513   8.609
20063SOL    HW262087   5.714   1.521   8.474
20064SOL     OW62088   5.058  12.952   5.540
20064SOL    HW162089   5.138  13.004   5.535
20064SOL    HW262090   5.039  12.929   5.448
20065SOL     OW62091   7.073   1.649   4.726
20065SOL    HW162092   7.031   1.616   4.647
20065SOL    HW262093   7.094   1.740   4.706
20066SOL     OW62094  10.526   0.759  13.651
20066SOL    HW162095  10.582   0.690  13.688
20066SOL    HW262096  10.524   0.740  13.558
20067SOL     OW62097   4.175   5.978   1.183
20067SOL    HW162098   4.212   6.045   1.126
20067SOL    HW262099   4.170   6.019   1.269
20068SOL     OW62100  14.075   6.893   9.161
20068SOL    HW162101  14.146   6.881   9.224
20068SOL    HW262102  14.002   6.926   9.214
20069SOL     OW62103  13.946   7.076   3.066
20069SOL    HW162104  14.007   7.149   3.058
20069SOL    HW262105  13.947   7.053   3.159
20070SOL     OW62106   2.367  10.700   5.512
20070SOL    HW162107   2.297  10.733   5.569
20070SOL    HW262108   2.419  10.777   5.491
20071SOL     OW62109  10.195   4.084   2.397
20071SOL    HW162110  10.213   3.990   2.402
20071SOL    HW262111  10.153   4.105   2.481
20072SOL     OW62112   8.333  11.981  11.632
20072SOL    HW162113   8.404  11.969  11.695
20072SOL    HW262114   8.359  12.056  11.579
20073SOL     OW62115   1.446  11.197  13.444
20073SOL    HW162116   1.413  11.153  13.366
20073SOL    HW262117   1.526  11.150  13.466
20074SOL     OW62118   7.344   0.212   3.541
20074SOL    HW162119   7.415   0.276   3.543
20074SOL    HW262120   7.274   0.252   3.593
20075SOL     OW62121   3.489   6.453   4.215
20075SOL    HW162122   3.411   6.493   4.178
20075SOL    HW262123   3.483   6.361   4.192
20076SOL     OW62124  13.117   5.050   8.260
20076SOL    HW162125  13.105   5.134   8.303
20076SOL    HW262126  13.196   5.061   8.207
20077SOL     OW62127  12.596   8.336   0.478
20077SOL    HW162128  12.532   8.314   0.410
20077SOL    HW262129  12.543   8.370   0.551
20078SOL     OW62130   1.569  11.580  13.955
20078SOL    HW162131   1.523  11.579  14.039
20078SOL    HW262132   1.539  11.501  13.910
20079SOL     OW62133   7.494  13.146  11.624
20079SOL    HW162134   7.493  13.117  11.715
20079SOL    HW262135   7.586  13.156  11.602
20080SOL     OW62136  14.628   0.170  11.092
20080SOL    HW162137  14.688   0.241  11.069
20080SOL    HW262138  14.681   0.091  11.089
20081SOL     OW62139   8.491  10.289  13.483
20081SOL    HW162140   8.571  10.329  13.515
20081SOL    HW262141   8.491  10.307  13.389
20082SOL     OW62142  10.848   9.629   6.741
20082SOL    HW162143  10.845   9.578   6.821
20082SOL    HW262144  10.774   9.689   6.747
20083SOL     OW62145   4.810   7.529  13.044
20083SOL    HW162146   4.890   7.512  13.094
20083SOL    HW262147   4.781   7.443  13.014
20084SOL     OW62148   3.168   9.421   6.854
20084SOL    HW162149   3.177   9.326   6.843
20084SOL    HW262150   3.179   9.456   6.765
20085SOL     OW62151   2.067   7.603   7.031
20085SOL    HW162152   2.082   7.576   6.940
20085SOL    HW262153   2.059   7.699   7.026
20086SOL     OW62154   8.582   5.854   4.062
20086SOL    HW162155   8.573   5.811   4.147
20086SOL    HW262156   8.645   5.924   4.078
20087SOL     OW62157   8.825   7.607   6.599
20087SOL    HW162158   8.915   7.638   6.591
20087SOL    HW262159   8.820   7.531   6.541
20088SOL     OW62160   0.054   6.002  12.785
20088SOL    HW162161   0.032   5.909  12.780
20088SOL    HW262162  14.860   6.041  12.831
20089SOL     OW62163   2.481  12.548   1.400
20089SOL    HW162164   2.532  12.620   1.436
20089SOL    HW262165   2.391  12.567   1.427
20090SOL     OW62166  11.503   9.799  11.596
20090SOL    HW162167  11.426   9.805  11.652
20090SOL    HW262168  11.574   9.775  11.656
20091SOL     OW62169   1.245   2.962  13.263
20091SOL    HW162170   1.241   2.891  13.198
20091SOL    HW262171   1.168   3.016  13.244
20092SOL     OW62172   3.974   6.922   5.853
20092SOL    HW162173   4.003   6.996   5.800
20092SOL    HW262174   4.011   6.845   5.810
20093SOL     OW62175   1.729   0.178   8.663
20093SOL    HW162176   1.770   0.192   8.578
20093SOL    HW262177   1.783   0.112   8.706
20094SOL     OW62178   6.231   6.819  12.721
20094SOL    HW162179   6.244   6.913  12.720
20094SOL    HW262180   6.290   6.787  12.789
20095SOL     OW62181   4.401  13.231   7.648
20095SOL    HW162182   4.369  13.266   7.731
20095SOL    HW262183   4.438  13.145   7.670
20096SOL     OW62184   8.863   2.447   0.712
20096SOL    HW162185   8.803   2.377   0.737
20096SOL    HW262186   8.950   2.413   0.734
20097SOL     OW62187   8.244  10.709   4.820
20097SOL    HW162188   8.173  10.647   4.838
20097SOL    HW262189   8.282  10.728   4.905
20098SOL     OW62190   3.790  13.460  14.003
20098SOL    HW162191   3.742  13.451  14.085
20098SOL    HW262192   3.736  13.414  13.938
20099SOL     OW62193  14.144   4.720   4.403
20099SOL    HW162194  14.081   4.784   4.371
20099SOL    HW262195  14.225   4.739   4.355
20100SOL     OW62196  14.423   3.251   1.203
20100SOL    HW162197  14.345   3.225   1.154
20100SOL    HW262198  14.460   3.324   1.153
20101SOL     OW62199  13.740   1.267  13.101
20101SOL    HW162200  13.811   1.223  13.054
20101SOL    HW262201  13.702   1.326  13.036
20102SOL     OW62202   6.616   7.247   2.984
20102SOL    HW162203   6.645   7.176   3.042
20102SOL    HW262204   6.540   7.284   3.027
20103SOL     OW62205  10.306   6.453   5.888
20103SOL    HW162206  10.339   6.468   5.799
20103SOL    HW262207  10.383   6.465   5.944
20104SOL     OW62208  13.879   3.005   8.590
20104SOL    HW162209  13.789   2.976   8.599
20104SOL    HW262210  13.917   2.945   8.525
20105SOL     OW62211  14.309  10.942   0.970
20105SOL    HW162212  14.369  10.885   0.922
20105SOL    HW262213  14.320  10.918   1.062
20106SOL     OW62214   0.455   6.534   7.829
20106SOL    HW162215   0.486   6.624   7.835
20106SOL    HW262216   0.490   6.502   7.746
20107SOL     OW62217   3.353  13.972  13.483
20107SOL    HW162218   3.427  13.992  13.425
20107SOL    HW262219   3.307  13.901  13.439
20108SOL     OW62220   1.116   1.430   5.856
20108SOL    HW162221   1.085   1.434   5.766
20108SOL    HW262222   1.037   1.414   5.908
20109SOL     OW62223   6.013   0.168   8.117
20109SOL    HW162224   5.938   0.191   8.061
20109SOL    HW262225   5.981   0.096   8.172
20110SOL     OW62226   9.475   3.168   3.736
20110SOL    HW162227   9.423   3.098   3.695
20110SOL    HW262228   9.414   3.210   3.797
20111SOL     OW62229  10.868   5.452  11.086
20111SOL    HW162230  10.918   5.532  11.101
20111SOL    HW262231  10.847   5.420  11.173
20112SOL     OW62232   7.768   2.377   9.321
20112SOL    HW162233   7.687   2.399   9.276
20112SOL    HW262234   7.774   2.282   9.314
20113SOL     OW62235  11.158   5.772   9.004
20113SOL    HW162236  11.156   5.818   8.919
20113SOL    HW262237  11.243   5.795   9.041
20114SOL     OW62238   4.892  11.188   3.031
20114SOL    HW162239   4.972  11.146   2.999
20114SOL    HW262240   4.919  11.237   3.108
20115SOL     OW62241  14.038   7.113   1.829
20115SOL    HW162242  14.037   7.022   1.861
20115SOL    HW262243  14.054   7.105   1.735
20116SOL     OW62244   7.280  12.981   0.704
20116SOL    HW162245   7.262  12.963   0.796
20116SOL    HW262246   7.326  13.065   0.704
20117SOL     OW62247  11.920   9.047  12.935
20117SOL    HW162248  11.870   9.084  12.863
20117SOL    HW262249  11.999   9.011  12.895
20118SOL     OW62250   1.277  13.965   9.269
20118SOL    HW162251   1.306  13.958   9.360
20118SOL    HW262252   1.358  13.972   9.218
20119SOL     OW62253  10.236  12.223   4.037
20119SOL    HW162254  10.299  12.270   4.091
20119SOL    HW262255  10.150  12.251   4.070
20120SOL     OW62256   2.449  12.819   5.541
20120SOL    HW162257   2.468  12.912   5.527
20120SOL    HW262258   2.535  12.776   5.537
20121SOL     OW62259   0.632   3.215   0.106
20121SOL    HW162260   0.641   3.309   0.087
20121SOL    HW262261   0.548   3.209   0.151
20122SOL     OW62262   5.153   9.942  11.801
20122SOL    HW162263   5.237   9.981  11.824
20122SOL    HW262264   5.152   9.942  11.705
20123SOL     OW62265   6.038   5.035  12.287
20123SOL    HW162266   5.982   5.043  12.210
20123SOL    HW262267   6.015   5.111  12.341
20124SOL     OW62268   3.944  12.202   4.532
20124SOL    HW162269   4.035  12.194   4.561
20124SOL    HW262270   3.894  12.215   4.613
20125SOL     OW62271  13.628  12.801   0.516
20125SOL    HW162272  13.634  12.775   0.424
20125SOL    HW262273  13.704  12.857   0.531
20126SOL     OW62274  14.385   8.577  11.679
20126SOL    HW162275  14.304   8.558  11.630
20126SOL    HW262276  14.358   8.580  11.770
20127SOL     OW62277   8.859   2.381   6.076
20127SOL    HW162278   8.863   2.295   6.117
20127SOL    HW262279   8.880   2.442   6.147
20128SOL     OW62280   5.968  10.381  11.788
20128SOL    HW162281   6.026  10.428  11.848
20128SOL    HW262282   5.949  10.299  11.833
20129SOL     OW62283   9.604  12.886  10.095
20129SOL    HW162284   9.587  12.817  10.159
20129SOL    HW262285   9.551  12.861  10.019
20130SOL     OW62286   6.250   9.089   2.747
20130SOL    HW162287   6.219   9.126   2.830
20130SOL    HW262288   6.171   9.079   2.694
20131SOL     OW62289   0.686  12.888  10.561
20131SOL    HW162290   0.687  12.807  10.612
20131SOL    HW262291   0.647  12.953  10.621
20132SOL     OW62292   3.918   9.016  11.695
20132SOL    HW162293   3.940   9.031  11.787
20132SOL    HW262294   4.003   9.013  11.651
20133SOL     OW62295   0.314  13.306   2.392
20133SOL    HW162296   0.238  13.251   2.372
20133SOL    HW262297   0.334  13.288   2.483
20134SOL     OW62298  12.912  14.111  14.104
20134SOL    HW162299  13.004  14.085  14.105
20134SOL    HW262300  12.898  14.145  14.015
20135SOL     OW62301  10.795   1.694  10.897
20135SOL    HW162302  10.723   1.678  10.958
20135SOL    HW262303  10.757   1.748  10.828
20136SOL     OW62304   4.768  12.046   3.065
20136SOL    HW162305   4.821  11.976   3.104
20136SOL    HW262306   4.713  12.001   3.001
20137SOL     OW62307   3.944   0.520   8.234
20137SOL    HW162308   4.031   0.535   8.270
20137SOL    HW262309   3.889   0.585   8.278
20138SOL     OW62310   1.925   3.443   2.315
20138SOL    HW162311   1.866   3.434   2.389
20138SOL    HW262312   1.998   3.384   2.334
20139SOL     OW62313   9.373   1.062   2.545
20139SOL    HW162314   9.448   1.018   2.506
20139SOL    HW262315   9.384   1.154   2.522
20140SOL     OW62316   0.502   8.119   3.442
20140SOL    HW162317   0.433   8.056   3.460
20140SOL    HW262318   0.581   8.066   3.432
20141SOL     OW62319   1.177   3.407   3.470
20141SOL    HW162320   1.266   3.381   3.447
20141SOL    HW262321   1.187   3.490   3.516
20142SOL     OW62322   1.594  14.865   5.659
20142SOL    HW162323   1.639   0.070   5.653
20142SOL    HW262324   1.665  14.802   5.675
20143SOL     OW62325   6.054   5.808  14.029
20143SOL    HW162326   5.974   5.768  14.063
20143SOL    HW262327   6.024   5.865  13.958
20144SOL     OW62328  11.687   1.533   0.440
20144SOL    HW162329  11.683   1.445   0.402
20144SOL    HW262330  11.600   1.570   0.423
20145SOL     OW62331   7.445  13.790   8.827
20145SOL    HW162332   7.430  13.755   8.739
20145SOL    HW262333   7.365  13.839   8.847
20146SOL     OW62334   2.627   4.727   5.785
20146SOL    HW162335   2.687   4.758   5.716
20146SOL    HW262336   2.678   4.734   5.866
20147SOL     OW62337   6.363  10.714  12.522
20147SOL    HW162338   6.347  10.655  12.449
20147SOL    HW262339   6.413  10.662  12.585
20148SOL     OW62340   7.517   9.523   9.854
20148SOL    HW162341   7.429   9.499   9.882
20148SOL    HW262342   7.503   9.594   9.791
20149SOL     OW62343   7.264   0.537   2.640
20149SOL    HW162344   7.185   0.575   2.678
20149SOL    HW262345   7.336   0.573   2.693
20150SOL     OW62346  14.576   0.075   6.213
20150SOL    HW162347  14.484   0.048   6.217
20150SOL    HW262348  14.574   0.163   6.176
20151SOL     OW62349  12.657   6.936  10.878
20151SOL    HW162350  12.745   6.969  10.860
20151SOL    HW262351  12.599   6.995  10.831
20152SOL     OW62352   7.630  12.493   0.273
20152SOL    HW162353   7.569  12.561   0.302
20152SOL    HW262354   7.593  12.411   0.305
20153SOL     OW62355  11.241  13.335   0.650
20153SOL    HW162356  11.246  13.260   0.592
20153SOL    HW262357  11.156  13.327   0.693
20154SOL     OW62358   1.167   2.582  14.674
20154SOL    HW162359   1.084   2.580  14.723
20154SOL    HW262360   1.233   2.601  14.739
20155SOL     OW62361   9.664   2.284   1.303
20155SOL    HW162362   9.712   2.296   1.221
20155SOL    HW262363   9.578   2.322   1.287
20156SOL     OW62364   0.573   7.681   5.610
20156SOL    HW162365   0.578   7.777   5.615
20156SOL    HW262366   0.481   7.661   5.627
20157SOL     OW62367  13.548  13.486   8.637
20157SOL    HW162368  13.559  13.422   8.567
20157SOL    HW262369  13.459  13.520   8.625
20158SOL     OW62370   5.780   7.052   1.464
20158SOL    HW162371   5.701   7.041   1.518
20158SOL    HW262372   5.813   6.964   1.451
20159SOL     OW62373  13.086   0.909   0.671
20159SOL    HW162374  13.076   0.966   0.595
20159SOL    HW262375  13.073   0.820   0.637
20160SOL     OW62376   8.918  10.795   7.928
20160SOL    HW162377   8.977  10.850   7.979
20160SOL    HW262378   8.976  10.739   7.876
20161SOL     OW62379  14.030   5.261   3.749
20161SOL    HW162380  14.029   5.181   3.803
20161SOL    HW262381  14.111   5.306   3.775
20162SOL     OW62382   7.454   2.824  14.607
20162SOL    HW162383   7.466   2.818  14.702
20162SOL    HW262384   7.373   2.875  14.596
20163SOL     OW62385  10.530  10.672   1.481
20163SOL    HW162386  10.549  10.678   1.574
20163SOL    HW262387  10.551  10.582   1.458
20164SOL     OW62388   6.500  14.693  10.143
20164SOL    HW162389   6.574  14.744  10.111
20164SOL    HW262390   6.425  14.752  10.135
20165SOL     OW62391   6.818  13.784   6.279
20165SOL    HW162392   6.871  13.721   6.230
20165SOL    HW262393   6.799  13.854   6.216
20166SOL     OW62394  10.257   7.128   0.803
20166SOL    HW162395  10.346   7.133   0.837
20166SOL    HW262396  10.242   7.213   0.762
20167SOL     OW62397  14.462   3.173   2.630
20167SOL    HW162398  14.459   3.252   2.683
20167SOL    HW262399  14.402   3.113   2.673
20168SOL     OW62400   0.717   2.706  13.716
20168SOL    HW162401   0.758   2.644  13.656
20168SOL    HW262402   0.631   2.722  13.679
20169SOL     OW62403   7.584   9.659  10.101
20169SOL    HW162404   7.553   9.605  10.029
20169SOL    HW262405   7.662   9.614  10.133
20170SOL     OW62406  12.882   3.697   0.811
20170SOL    HW162407  12.799   3.694   0.763
20170SOL    HW262408  12.933   3.765   0.768
20171SOL     OW62409   9.632   9.322   0.561
20171SOL    HW162410   9.693   9.371   0.617
20171SOL    HW262411   9.615   9.381   0.488
20172SOL     OW62412   6.461   2.583   1.707
20172SOL    HW162413   6.480   2.675   1.695
20172SOL    HW262414   6.418   2.578   1.793
20173SOL     OW62415   3.458  13.773   4.475
20173SOL    HW162416   3.401  13.788   4.550
20173SOL    HW262417   3.409  13.712   4.420
20174SOL     OW62418   3.597   9.009   6.778
20174SOL    HW162419   3.558   9.064   6.711
20174SOL    HW262420   3.668   9.062   6.815
20175SOL     OW62421  14.690   0.290   9.926
20175SOL    HW162422  14.750   0.306  10.000
20175SOL    HW262423  14.721   0.349   9.857
20176SOL     OW62424  12.539  13.788  12.072
20176SOL    HW162425  12.517  13.881  12.081
20176SOL    HW262426  12.588  13.783  11.990
20177SOL     OW62427  12.040  11.705   0.175
20177SOL    HW162428  12.056  11.622   0.220
20177SOL    HW262429  12.050  11.685   0.082
20178SOL     OW62430   3.437   7.459   0.572
20178SOL    HW162431   3.448   7.380   0.625
20178SOL    HW262432   3.511   7.459   0.511
20179SOL     OW62433   6.280  13.579  13.973
20179SOL    HW162434   6.204  13.634  13.953
20179SOL    HW262435   6.296  13.530  13.893
20180SOL     OW62436   5.491   0.125   6.776
20180SOL    HW162437   5.559   0.106   6.711
20180SOL    HW262438   5.410   0.094   6.735
20181SOL     OW62439  12.643   6.987   7.443
20181SOL    HW162440  12.725   6.946   7.472
20181SOL    HW262441  12.647   7.076   7.477
20182SOL     OW62442   8.242   1.130   5.060
20182SOL    HW162443   8.224   1.119   5.153
20182SOL    HW262444   8.337   1.133   5.053
20183SOL     OW62445  13.656  12.497   5.763
20183SOL    HW162446  13.686  12.501   5.672
20183SOL    HW262447  13.619  12.584   5.780
20184SOL     OW62448   5.538   1.686   9.358
20184SOL    HW162449   5.529   1.771   9.402
20184SOL    HW262450   5.532   1.707   9.265
20185SOL     OW62451  13.613  13.832   5.841
20185SOL    HW162452  13.677  13.809   5.909
20185SOL    HW262453  13.664  13.878   5.775
20186SOL     OW62454   1.433   1.636   3.725
20186SOL    HW162455   1.453   1.730   3.728
20186SOL    HW262456   1.518   1.595   3.707
20187SOL     OW62457  11.502   4.937   0.056
20187SOL    HW162458  11.593   4.918   0.079
20187SOL    HW262459  11.475   4.862   0.002
20188SOL     OW62460   1.941  14.692   3.651
20188SOL    HW162461   2.027  14.706   3.690
20188SOL    HW262462   1.945  14.737   3.566
20189SOL     OW62463   1.056  11.604  12.328
20189SOL    HW162464   0.998  11.531  12.351
20189SOL    HW262465   1.039  11.670  12.396
20190SOL     OW62466  13.275   3.932  10.402
20190SOL    HW162467  13.252   3.979  10.322
20190SOL    HW262468  13.215   3.968  10.468
20191SOL     OW62469  13.786  13.379   9.409
20191SOL    HW162470  13.841  13.456   9.392
20191SOL    HW262471  13.735  13.368   9.329
20192SOL     OW62472   8.668   8.777   9.506
20192SOL    HW162473   8.657   8.857   9.558
20192SOL    HW262474   8.580   8.757   9.474
20193SOL     OW62475   9.727  12.702   4.024
20193SOL    HW162476   9.642  12.674   3.989
20193SOL    HW262477   9.755  12.774   3.967
20194SOL     OW62478   4.934  12.155  13.791
20194SOL    HW162479   4.865  12.147  13.724
20194SOL    HW262480   4.886  12.175  13.872
20195SOL     OW62481   0.333  11.778   3.514
20195SOL    HW162482   0.279  11.713   3.469
20195SOL    HW262483   0.420  11.737   3.520
20196SOL     OW62484   4.608   4.769  12.022
20196SOL    HW162485   4.689   4.738  11.981
20196SOL    HW262486   4.621   4.755  12.115
20197SOL     OW62487   8.793  13.222  12.389
20197SOL    HW162488   8.708  13.177  12.384
20197SOL    HW262489   8.834  13.187  12.468
20198SOL     OW62490  10.973  13.119   4.876
20198SOL    HW162491  10.936  13.184   4.936
20198SOL    HW262492  11.054  13.090   4.920
20199SOL     OW62493   2.918   2.707   4.508
20199SOL    HW162494   2.935   2.614   4.522
20199SOL    HW262495   2.841   2.725   4.562
20200SOL     OW62496   5.008   3.142   6.541
20200SOL    HW162497   4.927   3.163   6.493
20200SOL    HW262498   4.982   3.076   6.605
20201SOL     OW62499   5.841   8.766   6.059
20201SOL    HW162500   5.869   8.740   5.972
20201SOL    HW262501   5.871   8.857   6.067
20202SOL     OW62502   4.142   6.855  11.903
20202SOL    HW162503   4.119   6.807  11.982
20202SOL    HW262504   4.238   6.854  11.901
20203SOL     OW62505  10.254   9.897   4.285
20203SOL    HW162506  10.278   9.938   4.368
20203SOL    HW262507  10.178   9.843   4.307
20204SOL     OW62508  10.787   2.356   4.701
20204SOL    HW162509  10.736   2.420   4.652
20204SOL    HW262510  10.877   2.369   4.673
20205SOL     OW62511   5.049   9.350   0.856
20205SOL    HW162512   5.051   9.414   0.928
20205SOL    HW262513   4.973   9.296   0.874
20206SOL     OW62514  12.623   5.623   5.441
20206SOL    HW162515  12.692   5.562   5.464
20206SOL    HW262516  12.573   5.635   5.522
20207SOL     OW62517   9.589  14.454  12.407
20207SOL    HW162518   9.661  14.515  12.422
20207SOL    HW262519   9.523  14.506  12.361
20208SOL     OW62520   7.139   3.145   6.191
20208SOL    HW162521   7.175   3.110   6.272
20208SOL    HW262522   7.058   3.096   6.177
20209SOL     OW62523  10.885  13.263   8.054
20209SOL    HW162524  10.833  13.203   8.000
20209SOL    HW262525  10.955  13.208   8.090
20210SOL     OW62526   2.694   8.616  10.858
20210SOL    HW162527   2.788   8.630  10.871
20210SOL    HW262528   2.653   8.671  10.926
20211SOL     OW62529  12.782   6.489  10.109
20211SOL    HW162530  12.716   6.449  10.053
20211SOL    HW262531  12.760   6.459  10.197
20212SOL     OW62532  13.254  11.354   1.071
20212SOL    HW162533  13.193  11.428   1.077
20212SOL    HW262534  13.326  11.378   1.129
20213SOL     OW62535  12.070  13.517   1.579
20213SOL    HW162536  12.077  13.535   1.485
20213SOL    HW262537  12.100  13.426   1.588
20214SOL     OW62538   7.848   3.110   9.208
20214SOL    HW162539   7.942   3.091   9.209
20214SOL    HW262540   7.808   3.031   9.244
20215SOL     OW62541   6.739   1.044  12.444
20215SOL    HW162542   6.665   1.104  12.430
20215SOL    HW262543   6.725   1.010  12.532
20216SOL     OW62544   1.287   2.474   6.817
20216SOL    HW162545   1.329   2.509   6.895
20216SOL    HW262546   1.318   2.531   6.746
20217SOL     OW62547  10.745  10.382   9.882
20217SOL    HW162548  10.834  10.414   9.869
20217SOL    HW262549  10.741  10.362   9.976
20218SOL     OW62550   7.807   2.589   5.420
20218SOL    HW162551   7.727   2.538   5.411
20218SOL    HW262552   7.797   2.663   5.360
20219SOL     OW62553   2.184   6.570   9.113
20219SOL    HW162554   2.118   6.608   9.055
20219SOL    HW262555   2.148   6.582   9.201
20220SOL     OW62556   5.546   3.742  10.748
20220SOL    HW162557   5.531   3.744  10.843
20220SOL    HW262558   5.625   3.690  10.737
20221SOL     OW62559  11.849   9.833   0.973
20221SOL    HW162560  11.920   9.812   0.912
20221SOL    HW262561  11.847   9.759   1.034
20222SOL     OW62562  12.789   8.798  10.373
20222SOL    HW162563  12.869   8.773  10.418
20222SOL    HW262564  12.743   8.715  10.359
20223SOL     OW62565   1.331  10.205  13.046
20223SOL    HW162566   1.362  10.213  12.956
20223SOL    HW262567   1.411  10.201  13.098
20224SOL     OW62568   9.662  10.547   3.361
20224SOL    HW162569   9.641  10.577   3.272
20224SOL    HW262570   9.714  10.468   3.348
20225SOL     OW62571   4.523   0.887   8.008
20225SOL    HW162572   4.541   0.979   7.988
20225SOL    HW262573   4.450   0.890   8.069
20226SOL     OW62574  14.685  14.432  11.015
20226SOL    HW162575  14.590  14.420  11.022
20226SOL    HW262576  14.719  14.401  11.099
20227SOL     OW62577   9.333  14.470   2.904
20227SOL    HW162578   9.398  14.540   2.901
20227SOL    HW262579   9.385  14.389   2.907
20228SOL     OW62580   1.348   0.304   5.342
20228SOL    HW162581   1.268   0.254   5.330
20228SOL    HW262582   1.417   0.238   5.347
20229SOL     OW62583   8.044   0.706   3.785
20229SOL    HW162584   8.080   0.794   3.798
20229SOL    HW262585   8.105   0.664   3.724
20230SOL     OW62586   9.386   2.826   8.649
20230SOL    HW162587   9.405   2.807   8.741
20230SOL    HW262588   9.291   2.814   8.641
20231SOL     OW62589  10.600   9.972   5.641
20231SOL    HW162590  10.595   9.922   5.722
20231SOL    HW262591  10.645  10.053   5.665
20232SOL     OW62592   1.620   5.224   3.016
20232SOL    HW162593   1.538   5.264   3.047
20232SOL    HW262594   1.688   5.278   3.055
20233SOL     OW62595   0.734   9.870   7.347
20233SOL    HW162596   0.663   9.807   7.334
20233SOL    HW262597   0.782   9.870   7.264
20234SOL     OW62598  12.864   4.029   5.720
20234SOL    HW162599  12.820   3.949   5.690
20234SOL    HW262600  12.912   4.001   5.798
20235SOL     OW62601   2.406   3.588  12.557
20235SOL    HW162602   2.345   3.596  12.484
20235SOL    HW262603   2.428   3.494  12.560
20236SOL     OW62604   9.325  11.547  14.762
20236SOL    HW162605   9.375  11.527  14.840
20236SOL    HW262606   9.382  11.605  14.711
20237SOL     OW62607   8.973   0.834   9.454
20237SOL    HW162608   9.032   0.816   9.381
20237SOL    HW262609   8.888   0.848   9.413
20238SOL     OW62610   3.983  11.104  12.893
20238SOL    HW162611   3.914  11.142  12.839
20238SOL    HW262612   4.062  11.109  12.840
20239SOL     OW62613   8.460  11.980   8.267
20239SOL    HW162614   8.517  12.048   8.303
20239SOL    HW262615   8.400  11.960   8.339
20240SOL     OW62616   0.102   9.319   9.529
20240SOL    HW162617   0.092   9.224   9.522
20240SOL    HW262618   0.181   9.331   9.582
20241SOL     OW62619   2.592   0.257   2.160
20241SOL    HW162620   2.666   0.204   2.130
20241SOL    HW262621   2.597   0.254   2.255
20242SOL     OW62622  13.367   5.139   1.871
20242SOL    HW162623  13.385   5.112   1.961
20242SOL    HW262624  13.279   5.107   1.853
20243SOL     OW62625   6.941   8.059   1.145
20243SOL    HW162626   7.023   8.087   1.184
20243SOL    HW262627   6.900   8.004   1.212
20244SOL     OW62628   1.048   0.909  13.640
20244SOL    HW162629   1.028   0.996  13.607
20244SOL    HW262630   1.065   0.921  13.733
20245SOL     OW62631   8.349  11.116  11.542
20245SOL    HW162632   8.275  11.092  11.486
20245SOL    HW262633   8.424  11.073  11.501
20246SOL     OW62634  13.252   4.766   4.637
20246SOL    HW162635  13.206   4.759   4.553
20246SOL    HW262636  13.247   4.859   4.659
20247SOL     OW62637  12.512  12.571   9.489
20247SOL    HW162638  12.593  12.522   9.474
20247SOL    HW262639  12.533  12.629   9.563
20248SOL     OW62640   7.439   6.123   8.246
20248SOL    HW162641   7.462   6.030   8.236
20248SOL    HW262642   7.505   6.170   8.195
20249SOL     OW62643   0.322  12.927   1.643
20249SOL    HW162644   0.350  12.945   1.553
20249SOL    HW262645   0.399  12.888   1.684
20250SOL     OW62646   1.667  13.162  12.089
20250SOL    HW162647   1.583  13.186  12.049
20250SOL    HW262648   1.681  13.229  12.156
20251SOL     OW62649   0.906   4.358   0.218
20251SOL    HW162650   0.983   4.305   0.237
20251SOL    HW262651   0.933   4.417   0.148
20252SOL     OW62652  10.434   3.774   8.594
20252SOL    HW162653  10.383   3.753   8.672
20252SOL    HW262654  10.436   3.869   8.591
20253SOL     OW62655   4.649   2.400   8.691
20253SOL    HW162656   4.574   2.374   8.744
20253SOL    HW262657   4.644   2.496   8.687
20254SOL     OW62658  10.814  11.646   9.602
20254SOL    HW162659  10.870  11.630   9.678
20254SOL    HW262660  10.852  11.590   9.534
20255SOL     OW62661  11.137   0.207   8.161
20255SOL    HW162662  11.067   0.156   8.202
20255SOL    HW262663  11.140   0.288   8.212
20256SOL     OW62664   6.978  13.394   3.725
20256SOL    HW162665   7.016  13.343   3.653
20256SOL    HW262666   6.941  13.472   3.682
20257SOL     OW62667   8.408   4.252  11.946
20257SOL    HW162668   8.482   4.283  11.999
20257SOL    HW262669   8.347   4.215  12.009
20258SOL     OW62670   5.054  11.034   7.323
20258SOL    HW162671   5.082  11.050   7.233
20258SOL    HW262672   4.992  11.104   7.342
20259SOL     OW62673  13.302   7.789   4.245
20259SOL    HW162674  13.391   7.780   4.277
20259SOL    HW262675  13.304   7.866   4.189
20260SOL     OW62676   4.858   4.870   8.171
20260SOL    HW162677   4.919   4.798   8.155
20260SOL    HW262678   4.893   4.943   8.120
20261SOL     OW62679   9.274  10.705   4.631
20261SOL    HW162680   9.262  10.746   4.545
20261SOL    HW262681   9.364  10.675   4.632
20262SOL     OW62682  14.513   2.445  10.305
20262SOL    HW162683  14.470   2.528  10.282
20262SOL    HW262684  14.440   2.383  10.314
20263SOL     OW62685   8.713   3.835   3.936
20263SOL    HW162686   8.736   3.896   3.867
20263SOL    HW262687   8.619   3.847   3.948
20264SOL     OW62688   4.908   9.559  13.383
20264SOL    HW162689   4.982   9.601  13.426
20264SOL    HW262690   4.943   9.478  13.348
20265SOL     OW62691   0.024   2.488   3.819
20265SOL    HW162692  14.829   2.477   3.760
20265SOL    HW262693   0.062   2.572   3.792
20266SOL     OW62694   9.255   7.256  10.348
20266SOL    HW162695   9.278   7.225  10.261
20266SOL    HW262696   9.332   7.237  10.402
20267SOL     OW62697   7.014   1.051  10.773
20267SOL    HW162698   7.106   1.043  10.751
20267SOL    HW262699   6.969   1.001  10.705
20268SOL     OW62700  13.257   3.210  12.051
20268SOL    HW162701  13.273   3.118  12.074
20268SOL    HW262702  13.178   3.208  11.997
20269SOL     OW62703   1.047   4.244   9.778
20269SOL    HW162704   1.002   4.277   9.700
20269SOL    HW262705   0.983   4.255   9.849
20270SOL     OW62706   9.796   1.496   2.936
20270SOL    HW162707   9.713   1.458   2.907
20270SOL    HW262708   9.819   1.561   2.870
20271SOL     OW62709   3.460   8.144   0.142
20271SOL    HW162710   3.440   8.232   0.111
20271SOL    HW262711   3.487   8.096   0.064
20272SOL     OW62712   0.397   2.295   8.358
20272SOL    HW162713   0.403   2.205   8.325
20272SOL    HW262714   0.313   2.327   8.323
20273SOL     OW62715   7.074   5.254  11.460
20273SOL    HW162716   7.089   5.160  11.465
20273SOL    HW262717   7.118   5.281  11.379
20274SOL     OW62718   4.897   8.169   5.497
20274SOL    HW162719   4.851   8.214   5.569
20274SOL    HW262720   4.864   8.079   5.501
20275SOL     OW62721  10.133  11.919   4.534
20275SOL    HW162722  10.069  11.907   4.464
20275SOL    HW262723  10.196  11.848   4.522
20276SOL     OW62724  14.740  13.623   0.929
20276SOL    HW162725  14.734  13.703   0.877
20276SOL    HW262726  14.650  13.589   0.931
20277SOL     OW62727   1.392   9.876   3.088
20277SOL    HW162728   1.375   9.920   3.171
20277SOL    HW262729   1.481   9.842   3.097
20278SOL     OW62730  11.075  10.243   9.627
20278SOL    HW162731  11.021  10.177   9.583
20278SOL    HW262732  11.079  10.213   9.718
20279SOL     OW62733   8.844   9.561   8.667
20279SOL    HW162734   8.854   9.578   8.574
20279SOL    HW262735   8.874   9.641   8.710
20280SOL     OW62736   4.653   9.211  12.927
20280SOL    HW162737   4.695   9.162  12.998
20280SOL    HW262738   4.718   9.212  12.857
20281SOL     OW62739   8.718   9.887   7.888
20281SOL    HW162740   8.643   9.827   7.884
20281SOL    HW262741   8.714   9.934   7.804
20282SOL     OW62742  12.947  14.810   0.449
20282SOL    HW162743  12.867  14.857   0.425
20282SOL    HW262744  12.966  14.838   0.538
20283SOL     OW62745   3.716  10.656  10.695
20283SOL    HW162746   3.788  10.635  10.636
20283SOL    HW262747   3.702  10.577  10.746
20284SOL     OW62748   3.742   4.474  12.217
20284SOL    HW162749   3.714   4.386  12.242
20284SOL    HW262750   3.837   4.467  12.209
20285SOL     OW62751   9.947   9.907  12.575
20285SOL    HW162752   9.937   9.812  12.568
20285SOL    HW262753   9.868   9.936  12.622
20286SOL     OW62754   3.737  14.706  12.898
20286SOL    HW162755   3.785  14.787  12.919
20286SOL    HW262756   3.657  14.735  12.855
20287SOL     OW62757  11.344   5.535   5.031
20287SOL    HW162758  11.344   5.466   4.964
20287SOL    HW262759  11.399   5.603   4.995
20288SOL     OW62760  13.376   5.803   1.032
20288SOL    HW162761  13.328   5.722   1.049
20288SOL    HW262762  13.455   5.796   1.086
20289SOL     OW62763   9.629   2.033   3.637
20289SOL    HW162764   9.650   2.123   3.662
20289SOL    HW262765   9.692   2.011   3.568
20290SOL     OW62766   5.743   2.607   0.831
20290SOL    HW162767   5.832   2.642   0.833
20290SOL    HW262768   5.709   2.632   0.745
20291SOL     OW62769   9.727  13.709   6.814
20291SOL    HW162770   9.683  13.628   6.839
20291SOL    HW262771   9.659  13.759   6.767
20292SOL     OW62772   6.808   4.514  14.666
20292SOL    HW162773   6.831   4.539  14.756
20292SOL    HW262774   6.717   4.483  14.673
20293SOL     OW62775   1.229  13.861   3.297
20293SOL    HW162776   1.180  13.791   3.255
20293SOL    HW262777   1.256  13.918   3.224
20294SOL     OW62778   4.318   2.448  11.274
20294SOL    HW162779   4.400   2.495  11.289
20294SOL    HW262780   4.295   2.411  11.359
20295SOL     OW62781  10.634  11.256  10.750
20295SOL    HW162782  10.685  11.288  10.676
20295SOL    HW262783  10.549  11.232  10.712
20296SOL     OW62784   2.102   0.950  10.189
20296SOL    HW162785   2.018   0.935  10.231
20296SOL    HW262786   2.140   0.863  10.177
20297SOL     OW62787   5.321   8.883   9.093
20297SOL    HW162788   5.263   8.812   9.067
20297SOL    HW262789   5.351   8.860   9.180
20298SOL     OW62790   0.013   7.970   8.261
20298SOL    HW162791  14.839   7.891   8.249
20298SOL    HW262792  14.868   8.002   8.348
20299SOL     OW62793   0.096   2.118  10.471
20299SOL    HW162794   0.067   2.208  10.458
20299SOL    HW262795   0.138   2.093  10.388
20300SOL     OW62796   6.505   4.302  13.906
20300SOL    HW162797   6.510   4.381  13.960
20300SOL    HW262798   6.543   4.328  13.822
20301SOL     OW62799   1.353  13.606   4.644
20301SOL    HW162800   1.354  13.700   4.629
20301SOL    HW262801   1.439  13.576   4.614
20302SOL     OW62802  10.583   1.617   7.129
20302SOL    HW162803  10.524   1.677   7.085
20302SOL    HW262804  10.557   1.620   7.221
20303SOL     OW62805   2.967  13.914   5.518
20303SOL    HW162806   3.051  13.867   5.515
20303SOL    HW262807   2.905  13.855   5.476
20304SOL     OW62808  11.076   7.500  13.136
20304SOL    HW162809  11.108   7.575  13.086
20304SOL    HW262810  10.988   7.527  13.165
20305SOL     OW62811   7.711   9.661  14.415
20305SOL    HW162812   7.704   9.719  14.339
20305SOL    HW262813   7.638   9.599  14.404
20306SOL     OW62814  14.695   8.651   2.670
20306SOL    HW162815  14.639   8.582   2.706
20306SOL    HW262816  14.683   8.645   2.575
20307SOL     OW62817   9.546   5.045   9.142
20307SOL    HW162818   9.609   5.117   9.149
20307SOL    HW262819   9.569   5.001   9.060
20308SOL     OW62820   5.371   6.692   0.741
20308SOL    HW162821   5.294   6.683   0.685
20308SOL    HW262822   5.409   6.776   0.715
20309SOL     OW62823  11.966   9.983  13.029
20309SOL    HW162824  11.880   9.976  12.988
20309SOL    HW262825  11.947  10.007  13.120
20310SOL     OW62826   7.394   0.426   1.874
20310SOL    HW162827   7.318   0.379   1.910
20310SOL    HW262828   7.463   0.413   1.939
20311SOL     OW62829   9.485   6.273   7.986
20311SOL    HW162830   9.546   6.305   8.052
20311SOL    HW262831   9.407   6.327   7.996
20312SOL     OW62832  11.357  12.945  13.288
20312SOL    HW162833  11.410  13.005  13.235
20312SOL    HW262834  11.398  12.946  13.374
20313SOL     OW62835  11.225   1.368   3.433
20313SOL    HW162836  11.196   1.279   3.414
20313SOL    HW262837  11.166   1.424   3.383
20314SOL     OW62838   8.980   6.126  10.959
20314SOL    HW162839   8.962   6.164  11.045
20314SOL    HW262840   8.894   6.114  10.920
20315SOL     OW62841   8.484   8.446   5.769
20315SOL    HW162842   8.399   8.474   5.734
20315SOL    HW262843   8.504   8.366   5.720
20316SOL     OW62844   5.474  11.533   0.374
20316SOL    HW162845   5.527  11.524   0.453
20316SOL    HW262846   5.495  11.620   0.340
20317SOL     OW62847   8.172   8.507   3.719
20317SOL    HW162848   8.162   8.461   3.636
20317SOL    HW262849   8.265   8.532   3.721
20318SOL     OW62850  12.002   7.918   1.887
20318SOL    HW162851  12.040   7.943   1.971
20318SOL    HW262852  11.953   7.838   1.906
20319SOL     OW62853   1.586   1.060  13.990
20319SOL    HW162854   1.590   1.154  14.006
20319SOL    HW262855   1.543   1.052  13.905
20320SOL     OW62856   4.758   7.302   5.286
20320SOL    HW162857   4.753   7.288   5.192
20320SOL    HW262858   4.734   7.394   5.298
20321SOL     OW62859   0.518   6.833  14.279
20321SOL    HW162860   0.541   6.872  14.194
20321SOL    HW262861   0.487   6.907  14.331
20322SOL     OW62862   9.691  10.212   4.210
20322SOL    HW162863   9.663  10.236   4.122
20322SOL    HW262864   9.758  10.277   4.232
20323SOL     OW62865   8.189   9.001  11.991
20323SOL    HW162866   8.156   8.912  11.983
20323SOL    HW262867   8.197   9.015  12.086
20324SOL     OW62868   8.233   7.608   0.888
20324SOL    HW162869   8.271   7.614   0.800
20324SOL    HW262870   8.191   7.693   0.901
20325SOL     OW62871   6.081   6.714   9.388
20325SOL    HW162872   6.132   6.778   9.339
20325SOL    HW262873   6.020   6.767   9.440
20326SOL     OW62874   4.656  10.782  12.849
20326SOL    HW162875   4.692  10.757  12.764
20326SOL    HW262876   4.581  10.838  12.827
20327SOL     OW62877   2.343  11.595   1.517
20327SOL    HW162878   2.309  11.656   1.452
20327SOL    HW262879   2.323  11.635   1.601
20328SOL     OW62880  12.657   2.074   0.950
20328SOL    HW162881  12.641   2.158   0.906
20328SOL    HW262882  12.630   2.008   0.886
20329SOL     OW62883   6.323   7.115   5.738
20329SOL    HW162884   6.285   7.079   5.818
20329SOL    HW262885   6.309   7.210   5.745
20330SOL     OW62886  11.620   3.174   3.156
20330SOL    HW162887  11.705   3.197   3.118
20330SOL    HW262888  11.577   3.258   3.170
20331SOL     OW62889   9.367  11.071   3.156
20331SOL    HW162890   9.311  11.095   3.230
20331SOL    HW262891   9.416  10.995   3.187
20332SOL     OW62892  12.907   1.013   5.722
20332SOL    HW162893  12.963   0.954   5.670
20332SOL    HW262894  12.950   1.098   5.716
20333SOL     OW62895  12.858   6.552  14.601
20333SOL    HW162896  12.825   6.482  14.544
20333SOL    HW262897  12.939   6.517  14.637
20334SOL     OW62898  11.866  12.451   1.990
20334SOL    HW162899  11.791  12.393   1.975
20334SOL    HW262900  11.934  12.417   1.932
20335SOL     OW62901  10.853  12.497   7.601
20335SOL    HW162902  10.898  12.574   7.634
20335SOL    HW262903  10.872  12.496   7.507
20336SOL     OW62904   1.184   6.264  12.235
20336SOL    HW162905   1.232   6.181  12.226
20336SOL    HW262906   1.158   6.266  12.327
20337SOL     OW62907   2.819   1.507   2.699
20337SOL    HW162908   2.880   1.452   2.746
20337SOL    HW262909   2.855   1.596   2.707
20338SOL     OW62910  12.926   4.596   8.075
20338SOL    HW162911  12.851   4.641   8.039
20338SOL    HW262912  12.987   4.666   8.099
20339SOL     OW62913   0.478  13.809  10.081
20339SOL    HW162914   0.423  13.746  10.128
20339SOL    HW262915   0.557  13.816  10.134
20340SOL     OW62916  13.457   4.963  10.299
20340SOL    HW162917  13.369   4.972  10.264
20340SOL    HW262918  13.514   4.992  10.229
20341SOL     OW62919   9.859   2.817   0.029
20341SOL    HW162920   9.846   2.912   0.037
20341SOL    HW262921   9.907   2.806  14.827
20342SOL     OW62922   1.957   1.399   5.375
20342SOL    HW162923   1.885   1.462   5.371
20342SOL    HW262924   1.968   1.382   5.469
20343SOL     OW62925   1.186   6.848   9.210
20343SOL    HW162926   1.226   6.855   9.123
20343SOL    HW262927   1.160   6.756   9.217
20344SOL     OW62928   8.741   5.919  14.361
20344SOL    HW162929   8.822   5.956  14.327
20344SOL    HW262930   8.762   5.827  14.379
20345SOL     OW62931   6.016   6.384   4.412
20345SOL    HW162932   6.019   6.479   4.396
20345SOL    HW262933   5.967   6.349   4.338
20346SOL     OW62934   3.530  12.883   3.643
20346SOL    HW162935   3.522  12.978   3.654
20346SOL    HW262936   3.497  12.847   3.725
20347SOL     OW62937   1.099   7.617  12.578
20347SOL    HW162938   1.132   7.623  12.489
20347SOL    HW262939   1.007   7.641  12.572
20348SOL     OW62940   3.072   3.736   0.892
20348SOL    HW162941   3.067   3.762   0.800
20348SOL    HW262942   3.032   3.808   0.940
20349SOL     OW62943   5.323  14.192   4.461
20349SOL    HW162944   5.356  14.173   4.373
20349SOL    HW262945   5.231  14.167   4.458
20350SOL     OW62946  13.148  13.813   4.060
20350SOL    HW162947  13.241  13.819   4.036
20350SOL    HW262948  13.127  13.898   4.097
20351SOL     OW62949   1.128   3.048   8.697
20351SOL    HW162950   1.089   2.961   8.686
20351SOL    HW262951   1.055   3.109   8.689
20352SOL     OW62952   7.874  13.813   8.776
20352SOL    HW162953   7.828  13.896   8.783
20352SOL    HW262954   7.874  13.793   8.682
20353SOL     OW62955   7.500   9.059  12.898
20353SOL    HW162956   7.412   9.041  12.930
20353SOL    HW262957   7.509   9.005  12.820
20354SOL     OW62958  12.742   0.897   0.550
20354SOL    HW162959  12.685   0.932   0.481
20354SOL    HW262960  12.824   0.945   0.540
20355SOL     OW62961   7.612   2.086   7.178
20355SOL    HW162962   7.654   2.148   7.237
20355SOL    HW262963   7.544   2.138   7.134
20356SOL     OW62964  12.416  10.497   7.163
20356SOL    HW162965  12.451  10.500   7.252
20356SOL    HW262966  12.463  10.565   7.116
20357SOL     OW62967   1.285   3.712  12.514
20357SOL    HW162968   1.265   3.785  12.456
20357SOL    HW262969   1.346   3.657  12.464
20358SOL     OW62970  11.667   4.208  13.143
20358SOL    HW162971  11.673   4.135  13.082
20358SOL    HW262972  11.578   4.241  13.131
20359SOL     OW62973   4.807   7.625   7.375
20359SOL    HW162974   4.819   7.531   7.387
20359SOL    HW262975   4.724   7.634   7.328
20360SOL     OW62976  13.936  12.490   3.955
20360SOL    HW162977  14.013  12.468   4.007
20360SOL    HW262978  13.901  12.568   3.997
20361SOL     OW62979   1.362  10.032  14.735
20361SOL    HW162980   1.321  10.040  14.649
20361SOL    HW262981   1.327  10.105  14.786
20362SOL     OW62982   9.734   5.638   9.075
20362SOL    HW162983   9.640   5.653   9.069
20362SOL    HW262984   9.748   5.553   9.031
20363SOL     OW62985  13.860  12.845   1.273
20363SOL    HW162986  13.934  12.784   1.278
20363SOL    HW262987  13.803  12.807   1.205
20364SOL     OW62988  14.411   9.117   4.954
20364SOL    HW162989  14.472   9.183   4.988
20364SOL    HW262990  14.401   9.055   5.026
20365SOL     OW62991   4.417   3.128  11.137
20365SOL    HW162992   4.496   3.103  11.185
20365SOL    HW262993   4.415   3.069  11.062
20366SOL     OW62994   1.918   2.557   1.475
20366SOL    HW162995   1.904   2.651   1.472
20366SOL    HW262996   1.866   2.527   1.549
20367SOL     OW62997   4.276  12.013  13.598
20367SOL    HW162998   4.276  11.961  13.518
20367SOL    HW262999   4.316  11.956  13.664
20368SOL     OW63000  11.130   9.169   8.485
20368SOL    HW163001  11.203   9.142   8.541
20368SOL    HW263002  11.059   9.188   8.546
20369SOL     OW63003  12.628   2.498   1.290
20369SOL    HW163004  12.701   2.440   1.309
20369SOL    HW263005  12.663   2.586   1.307
20370SOL     OW63006   4.240  14.634   5.145
20370SOL    HW163007   4.231  14.722   5.180
20370SOL    HW263008   4.276  14.583   5.218
20371SOL     OW63009  14.107   4.801   0.979
20371SOL    HW163010  14.123   4.708   0.964
20371SOL    HW263011  14.082   4.807   1.071
20372SOL     OW63012  14.703   7.422  11.954
20372SOL    HW163013  14.656   7.349  11.915
20372SOL    HW263014  14.636   7.467  12.007
20373SOL     OW63015   9.127  10.328   4.527
20373SOL    HW163016   9.151  10.279   4.448
20373SOL    HW263017   9.110  10.417   4.495
20374SOL     OW63018  14.766   7.832   9.658
20374SOL    HW163019  14.815   7.791   9.587
20374SOL    HW263020  14.817   7.814   9.737
20375SOL     OW63021  13.346   8.045   6.420
20375SOL    HW163022  13.264   8.025   6.465
20375SOL    HW263023  13.403   7.971   6.437
20376SOL     OW63024   4.235  10.245   4.491
20376SOL    HW163025   4.268  10.332   4.512
20376SOL    HW263026   4.201  10.212   4.575
20377SOL     OW63027  11.591   7.383   0.693
20377SOL    HW163028  11.584   7.455   0.755
20377SOL    HW263029  11.500   7.359   0.674
20378SOL     OW63030   5.001  10.714   2.283
20378SOL    HW163031   4.980  10.784   2.221
20378SOL    HW263032   4.991  10.755   2.369
20379SOL     OW63033  13.614   9.800   0.061
20379SOL    HW163034  13.616   9.706   0.043
20379SOL    HW263035  13.656   9.809   0.146
20380SOL     OW63036  11.430   1.311  12.626
20380SOL    HW163037  11.518   1.308  12.664
20380SOL    HW263038  11.405   1.219  12.619
20381SOL     OW63039  12.055  14.094  14.059
20381SOL    HW163040  12.010  14.120  14.140
20381SOL    HW263041  12.099  14.173  14.030
20382SOL     OW63042   7.917   3.644  11.900
20382SOL    HW163043   7.827   3.661  11.928
20382SOL    HW263044   7.945   3.725  11.857
20383SOL     OW63045   0.413  11.531   0.714
20383SOL    HW163046   0.471  11.462   0.745
20383SOL    HW263047   0.414  11.522   0.619
20384SOL     OW63048  12.883   9.428   5.391
20384SOL    HW163049  12.921   9.375   5.461
20384SOL    HW263050  12.789   9.422   5.404
20385SOL     OW63051   1.278  12.424   1.353
20385SOL    HW163052   1.319  12.344   1.321
20385SOL    HW263053   1.268  12.410   1.448
20386SOL     OW63054   1.871  10.299   8.760
20386SOL    HW163055   1.919  10.367   8.807
20386SOL    HW263056   1.843  10.341   8.678
20387SOL     OW63057  11.262   0.006   6.636
20387SOL    HW163058  11.347   0.033   6.671
20387SOL    HW263059  11.256   0.051   6.552
20388SOL     OW63060  12.251   8.485   2.967
20388SOL    HW163061  12.302   8.494   2.886
20388SOL    HW263062  12.287   8.407   3.009
20389SOL     OW63063   0.807   5.764   3.361
20389SOL    HW163064   0.739   5.765   3.294
20389SOL    HW263065   0.791   5.684   3.410
20390SOL     OW63066   2.467   9.045   9.395
20390SOL    HW163067   2.534   9.092   9.445
20390SOL    HW263068   2.395   9.107   9.386
20391SOL     OW63069   7.836   3.725   4.734
20391SOL    HW163070   7.862   3.775   4.811
20391SOL    HW263071   7.871   3.776   4.660
20392SOL     OW63072  13.493  10.536   2.080
20392SOL    HW163073  13.537  10.614   2.048
20392SOL    HW263074  13.549  10.463   2.054
20393SOL     OW63075   2.649   4.077   4.276
20393SOL    HW163076   2.742   4.100   4.281
20393SOL    HW263077   2.624   4.098   4.186
20394SOL     OW63078  13.029  10.666  12.521
20394SOL    HW163079  13.039  10.757  12.495
20394SOL    HW263080  13.019  10.619  12.438
20395SOL     OW63081   0.059   2.885  10.989
20395SOL    HW163082  14.861   2.840  10.957
20395SOL    HW263083   0.083   2.946  10.919
20396SOL     OW63084   6.823   8.545   7.954
20396SOL    HW163085   6.911   8.509   7.965
20396SOL    HW263086   6.822   8.624   8.008
20397SOL     OW63087   6.959  10.708   6.765
20397SOL    HW163088   6.982  10.693   6.674
20397SOL    HW263089   6.920  10.626   6.794
20398SOL     OW63090   8.631   5.348  10.124
20398SOL    HW163091   8.720   5.312  10.119
20398SOL    HW263092   8.574   5.271  10.125
20399SOL     OW63093   4.142  14.697   5.743
20399SOL    HW163094   4.059  14.657   5.716
20399SOL    HW263095   4.209  14.652   5.690
20400SOL     OW63096   6.575  12.667   9.352
20400SOL    HW163097   6.625  12.700   9.427
20400SOL    HW263098   6.568  12.741   9.292
20401SOL     OW63099   7.246  14.793   0.456
20401SOL    HW163100   7.191  14.730   0.503
20401SOL    HW263101   7.213  14.878   0.484
20402SOL     OW63102   2.675   4.866   9.902
20402SOL    HW163103   2.605   4.925   9.876
20402SOL    HW263104   2.742   4.875   9.834
20403SOL     OW63105   1.219   8.205   4.634
20403SOL    HW163106   1.250   8.157   4.558
20403SOL    HW263107   1.169   8.141   4.685
20404SOL     OW63108  14.545  14.368   5.338
20404SOL    HW163109  14.468  14.313   5.327
20404SOL    HW263110  14.612  14.310   5.374
20405SOL     OW63111   1.034  14.821   8.614
20405SOL    HW163112   1.122  14.795   8.588
20405SOL    HW263113   0.975  14.763   8.566
20406SOL     OW63114   0.086   0.021  10.505
20406SOL    HW163115   0.109  14.866  10.591
20406SOL    HW263116   0.033  14.831  10.465
20407SOL     OW63117   1.215  10.225   6.140
20407SOL    HW163118   1.149  10.280   6.182
20407SOL    HW263119   1.250  10.170   6.210
20408SOL     OW63120   9.296  12.396   8.155
20408SOL    HW163121   9.250  12.456   8.214
20408SOL    HW263122   9.335  12.453   8.088
20409SOL     OW63123   9.594  14.544   6.843
20409SOL    HW163124   9.555  14.624   6.810
20409SOL    HW263125   9.522  14.499   6.887
20410SOL     OW63126  10.427   7.264  13.622
20410SOL    HW163127  10.501   7.278  13.682
20410SOL    HW263128  10.415   7.169  13.622
20411SOL     OW63129   1.340   3.488   1.282
20411SOL    HW163130   1.391   3.415   1.317
20411SOL    HW263131   1.250   3.468   1.305
20412SOL     OW63132  12.724   0.695   5.198
20412SOL    HW163133  12.712   0.640   5.275
20412SOL    HW263134  12.656   0.667   5.137
20413SOL     OW63135   3.229  13.363   3.950
20413SOL    HW163136   3.289  13.392   4.019
20413SOL    HW263137   3.177  13.293   3.991
20414SOL     OW63138   0.111   4.799   3.530
20414SOL    HW163139   0.037   4.809   3.589
20414SOL    HW263140   0.071   4.777   3.445
20415SOL     OW63141   5.302   8.449   2.292
20415SOL    HW163142   5.346   8.533   2.306
20415SOL    HW263143   5.235   8.447   2.360
20416SOL     OW63144   2.358  12.973  11.167
20416SOL    HW163145   2.381  12.890  11.209
20416SOL    HW263146   2.297  13.015  11.227
20417SOL     OW63147  13.016   3.392  14.458
20417SOL    HW163148  13.010   3.347  14.374
20417SOL    HW263149  13.043   3.325  14.521
20418SOL     OW63150   8.977   8.354   0.842
20418SOL    HW163151   9.055   8.336   0.895
20418SOL    HW263152   9.009   8.406   0.769
20419SOL     OW63153   6.654   6.469   9.785
20419SOL    HW163154   6.648   6.392   9.729
20419SOL    HW263155   6.734   6.455   9.836
20420SOL     OW63156  11.952   1.870   7.401
20420SOL    HW163157  11.970   1.801   7.465
20420SOL    HW263158  12.007   1.848   7.325
20421SOL     OW63159   6.890  10.156   8.225
20421SOL    HW163160   6.835  10.234   8.221
20421SOL    HW263161   6.828  10.083   8.218
20422SOL     OW63162   0.983  11.668   0.186
20422SOL    HW163163   1.042  11.645   0.258
20422SOL    HW263164   1.037  11.667   0.108
20423SOL     OW63165  13.862  11.821   1.881
20423SOL    HW163166  13.830  11.908   1.858
20423SOL    HW263167  13.807  11.794   1.955
20424SOL     OW63168   7.584  13.324  10.029
20424SOL    HW163169   7.501  13.372  10.029
20424SOL    HW263170   7.616  13.331   9.939
20425SOL     OW63171   5.916   9.345  11.831
20425SOL    HW163172   5.880   9.398  11.902
20425SOL    HW263173   5.845   9.340  11.767
20426SOL     OW63174   7.426   9.634   8.045
20426SOL    HW163175   7.369   9.667   8.114
20426SOL    HW263176   7.500   9.595   8.091
20427SOL     OW63177  11.400   4.243   2.729
20427SOL    HW163178  11.406   4.329   2.687
20427SOL    HW263179  11.490   4.216   2.744
20428SOL     OW63180   2.235   1.134  14.776
20428SOL    HW163181   2.280   1.102  14.698
20428SOL    HW263182   2.244   1.063  14.840
20429SOL     OW63183  12.900  12.730   0.201
20429SOL    HW163184  12.956  12.789   0.150
20429SOL    HW263185  12.837  12.787   0.244
20430SOL     OW63186  11.863   6.427  11.555
20430SOL    HW163187  11.849   6.515  11.518
20430SOL    HW263188  11.787   6.412  11.611
20431SOL     OW63189  12.001  11.861   0.493
20431SOL    HW163190  11.959  11.905   0.419
20431SOL    HW263191  12.084  11.828   0.458
20432SOL     OW63192   6.541   6.467   7.049
20432SOL    HW163193   6.484   6.435   7.119
20432SOL    HW263194   6.603   6.395   7.034
20433SOL     OW63195   0.138  13.057   8.207
20433SOL    HW163196   0.160  13.050   8.300
20433SOL    HW263197   0.077  12.986   8.192
20434SOL     OW63198  12.309  11.446   5.708
20434SOL    HW163199  12.216  11.433   5.693
20434SOL    HW263200  12.351  11.366   5.676
20435SOL     OW63201   2.881   2.138   0.981
20435SOL    HW163202   2.909   2.158   1.070
20435SOL    HW263203   2.824   2.212   0.958
20436SOL     OW63204  11.404  11.533  13.894
20436SOL    HW163205  11.378  11.596  13.961
20436SOL    HW263206  11.333  11.470  13.892
20437SOL     OW63207   2.528  13.881   1.817
20437SOL    HW163208   2.551  13.937   1.743
20437SOL    HW263209   2.434  13.895   1.830
20438SOL     OW63210   4.592   3.568   4.936
20438SOL    HW163211   4.635   3.645   4.973
20438SOL    HW263212   4.588   3.585   4.842
20439SOL     OW63213  11.312   5.689   6.431
20439SOL    HW163214  11.258   5.635   6.372
20439SOL    HW263215  11.248   5.742   6.479
20440SOL     OW63216   4.685   3.203   0.335
20440SOL    HW163217   4.755   3.139   0.321
20440SOL    HW263218   4.631   3.165   0.403
20441SOL     OW63219  10.650   2.402  11.595
20441SOL    HW163220  10.720   2.416  11.531
20441SOL    HW263221  10.693   2.357  11.668
20442SOL     OW63222   2.693   8.089   9.898
20442SOL    HW163223   2.786   8.091   9.922
20442SOL    HW263224   2.663   8.002   9.925
20443SOL     OW63225   1.966   9.212   1.888
20443SOL    HW163226   2.045   9.216   1.835
20443SOL    HW263227   1.911   9.146   1.845
20444SOL     OW63228   2.713   9.637   6.979
20444SOL    HW163229   2.736   9.635   6.886
20444SOL    HW263230   2.773   9.575   7.020
20445SOL     OW63231   3.272   6.794  11.069
20445SOL    HW163232   3.332   6.852  11.115
20445SOL    HW263233   3.291   6.707  11.103
20446SOL     OW63234  10.799   9.383  10.193
20446SOL    HW163235  10.830   9.313  10.251
20446SOL    HW263236  10.804   9.462  10.247
20447SOL     OW63237   2.994   0.682  14.725
20447SOL    HW163238   3.022   0.725  14.644
20447SOL    HW263239   2.953   0.601  14.696
20448SOL     OW63240  10.670   7.566   4.784
20448SOL    HW163241  10.726   7.598   4.855
20448SOL    HW263242  10.721   7.581   4.704
20449SOL     OW63243   5.846   5.433   3.413
20449SOL    HW163244   5.904   5.433   3.337
20449SOL    HW263245   5.763   5.467   3.379
20450SOL     OW63246  11.263  14.306  11.604
20450SOL    HW163247  11.201  14.233  11.604
20450SOL    HW263248  11.335  14.275  11.659
20451SOL     OW63249   1.066   5.493   1.939
20451SOL    HW163250   1.092   5.412   1.982
20451SOL    HW263251   0.970   5.488   1.935
20452SOL     OW63252   8.985   1.745   6.778
20452SOL    HW163253   9.048   1.696   6.726
20452SOL    HW263254   8.965   1.689   6.853
20453SOL     OW63255  13.970   3.770  14.314
20453SOL    HW163256  13.931   3.763  14.227
20453SOL    HW263257  13.910   3.828  14.362
20454SOL     OW63258   3.251   2.568   0.391
20454SOL    HW163259   3.179   2.584   0.452
20454SOL    HW263260   3.213   2.515   0.321
20455SOL     OW63261   7.293   8.027  12.176
20455SOL    HW163262   7.329   7.977  12.249
20455SOL    HW263263   7.315   7.976  12.098
20456SOL     OW63264   3.783   3.651  11.101
20456SOL    HW163265   3.787   3.655  11.196
20456SOL    HW263266   3.698   3.613  11.081
20457SOL     OW63267   7.133   7.100   0.257
20457SOL    HW163268   7.225   7.074   0.248
20457SOL    HW263269   7.085   7.018   0.260
20458SOL     OW63270   5.529   6.890   4.497
20458SOL    HW163271   5.443   6.853   4.473
20458SOL    HW263272   5.544   6.958   4.432
20459SOL     OW63273  11.439  12.893   0.426
20459SOL    HW163274  11.366  12.832   0.439
20459SOL    HW263275  11.474  12.870   0.341
20460SOL     OW63276   4.026  13.404   2.828
20460SOL    HW163277   3.974  13.403   2.908
20460SOL    HW263278   3.962  13.412   2.757
20461SOL     OW63279   4.333   2.221  14.691
20461SOL    HW163280   4.351   2.243  14.600
20461SOL    HW263281   4.304   2.303  14.731
20462SOL     OW63282   9.535   3.136  14.534
20462SOL    HW163283   9.591   3.213  14.546
20462SOL    HW263284   9.460   3.152  14.591
20463SOL     OW63285   5.694   9.801   1.142
20463SOL    HW163286   5.699   9.792   1.237
20463SOL    HW263287   5.613   9.850   1.126
20464SOL     OW63288   3.433   9.859  10.296
20464SOL    HW163289   3.502   9.842  10.233
20464SOL    HW263290   3.451   9.947  10.329
20465SOL     OW63291  10.164   6.801  14.497
20465SOL    HW163292  10.154   6.896  14.498
20465SOL    HW263293  10.224   6.783  14.569
20466SOL     OW63294   8.175  14.364  10.176
20466SOL    HW163295   8.246  14.310  10.210
20466SOL    HW263296   8.095  14.317  10.201
20467SOL     OW63297   0.257  11.533   9.288
20467SOL    HW163298   0.323  11.486   9.339
20467SOL    HW263299   0.188  11.468   9.272
20468SOL     OW63300   4.733   6.601   0.413
20468SOL    HW163301   4.799   6.533   0.402
20468SOL    HW263302   4.653   6.563   0.377
20469SOL     OW63303   9.613   6.936   0.289
20469SOL    HW163304   9.639   7.028   0.289
20469SOL    HW263305   9.519   6.938   0.308
20470SOL     OW63306   3.771   3.090   3.316
20470SOL    HW163307   3.824   3.168   3.331
20470SOL    HW263308   3.688   3.123   3.281
20471SOL     OW63309   5.499   4.255   6.677
20471SOL    HW163310   5.408   4.256   6.706
20471SOL    HW263311   5.494   4.237   6.583
20472SOL     OW63312   5.343   9.606  11.997
20472SOL    HW163313   5.301   9.532  12.040
20472SOL    HW263314   5.418   9.569  11.953
20473SOL     OW63315   0.268   6.758  11.812
20473SOL    HW163316   0.327   6.690  11.845
20473SOL    HW263317   0.301   6.839  11.850
20474SOL     OW63318  11.943  10.569   8.859
20474SOL    HW163319  11.921  10.662   8.866
20474SOL    HW263320  11.946  10.552   8.765
20475SOL     OW63321   6.812   6.564   4.380
20475SOL    HW163322   6.810   6.470   4.397
20475SOL    HW263323   6.886   6.596   4.431
20476SOL     OW63324   9.744  12.045  14.118
20476SOL    HW163325   9.774  11.970  14.171
20476SOL    HW263326   9.761  12.121  14.173
20477SOL     OW63327   5.388  10.034   1.413
20477SOL    HW163328   5.445  10.006   1.340
20477SOL    HW263329   5.399   9.966   1.479
20478SOL     OW63330   9.195   3.870   2.249
20478SOL    HW163331   9.286   3.838   2.251
20478SOL    HW263332   9.197   3.950   2.301
20479SOL     OW63333  13.690   5.715   5.593
20479SOL    HW163334  13.648   5.774   5.530
20479SOL    HW263335  13.770   5.760   5.619
20480SOL     OW63336   2.315   5.779   4.041
20480SOL    HW163337   2.320   5.811   4.131
20480SOL    HW263338   2.330   5.685   4.048
20481SOL     OW63339   7.915  10.081  12.116
20481SOL    HW163340   7.968  10.012  12.157
20481SOL    HW263341   7.906  10.053  12.025
20482SOL     OW63342   6.433   4.801   5.262
20482SOL    HW163343   6.411   4.815   5.170
20482SOL    HW263344   6.529   4.803   5.264
20483SOL     OW63345   8.671   8.597  14.460
20483SOL    HW163346   8.757   8.612  14.420
20483SOL    HW263347   8.612   8.584  14.387
20484SOL     OW63348   2.328  12.163   2.482
20484SOL    HW163349   2.395  12.095   2.487
20484SOL    HW263350   2.367  12.232   2.428
20485SOL     OW63351   0.301  11.124   8.362
20485SOL    HW163352   0.374  11.157   8.310
20485SOL    HW263353   0.299  11.030   8.343
20486SOL     OW63354  14.336  10.327  14.850
20486SOL    HW163355  14.397  10.397  14.875
20486SOL    HW263356  14.369  10.250   0.017
20487SOL     OW63357   5.824   4.406  10.346
20487SOL    HW163358   5.767   4.473  10.384
20487SOL    HW263359   5.795   4.399  10.255
20488SOL     OW63360  10.921   8.622  12.683
20488SOL    HW163361  10.848   8.560  12.694
20488SOL    HW263362  10.950   8.640  12.772
20489SOL     OW63363   9.930   3.428  14.450
20489SOL    HW163364   9.923   3.505  14.394
20489SOL    HW263365   9.841   3.409  14.478
20490SOL     OW63366   1.385   2.800   2.241
20490SOL    HW163367   1.330   2.729   2.210
20490SOL    HW263368   1.453   2.809   2.174
20491SOL     OW63369   3.828   5.305  13.475
20491SOL    HW163370   3.837   5.233  13.537
20491SOL    HW263371   3.898   5.290  13.411
20492SOL     OW63372   2.296  10.070   9.663
20492SOL    HW163373   2.369  10.077   9.725
20492SOL    HW263374   2.269   9.978   9.669
20493SOL     OW63375  12.030  13.126  11.063
20493SOL    HW163376  12.009  13.111  11.156
20493SOL    HW263377  12.126  13.127  11.060
20494SOL     OW63378   2.952   1.581  10.211
20494SOL    HW163379   2.934   1.491  10.239
20494SOL    HW263380   2.987   1.572  10.123
20495SOL     OW63381   7.675  12.356   4.718
20495SOL    HW163382   7.716  12.336   4.802
20495SOL    HW263383   7.643  12.272   4.685
20496SOL     OW63384   2.622   7.005   7.688
20496SOL    HW163385   2.565   7.054   7.629
20496SOL    HW263386   2.637   6.922   7.643
20497SOL     OW63387  11.798   2.416   5.129
20497SOL    HW163388  11.857   2.448   5.061
20497SOL    HW263389  11.796   2.486   5.195
20498SOL     OW63390   8.039   5.222  12.989
20498SOL    HW163391   7.953   5.261  13.002
20498SOL    HW263392   8.047   5.213  12.894
20499SOL     OW63393  11.948   4.211  14.521
20499SOL    HW163394  11.927   4.190  14.430
20499SOL    HW263395  11.944   4.307  14.525
20500SOL     OW63396   7.547   1.493   0.113
20500SOL    HW163397   7.484   1.429   0.145
20500SOL    HW263398   7.613   1.441   0.068
20501SOL     OW63399  10.596   9.025   1.892
20501SOL    HW163400  10.580   8.931   1.892
20501SOL    HW263401  10.613   9.046   1.984
20502SOL     OW63402   1.699   5.177  11.561
20502SOL    HW163403   1.619   5.152  11.514
20502SOL    HW263404   1.673   5.252  11.614
20503SOL     OW63405   9.743  10.809  13.446
20503SOL    HW163406   9.660  10.764  13.428
20503SOL    HW263407   9.718  10.887  13.495
20504SOL     OW63408   7.043   0.745  11.047
20504SOL    HW163409   7.093   0.668  11.075
20504SOL    HW263410   6.956   0.710  11.025
20505SOL     OW63411  14.330  13.954  12.101
20505SOL    HW163412  14.342  14.019  12.031
20505SOL    HW263413  14.370  13.874  12.067
20506SOL     OW63414  11.966   5.995   7.356
20506SOL    HW163415  12.037   5.973   7.295
20506SOL    HW263416  11.915   5.914   7.364
20507SOL     OW63417   1.332  12.317   8.207
20507SOL    HW163418   1.310  12.268   8.286
20507SOL    HW263419   1.425  12.300   8.193
20508SOL     OW63420   3.529  12.914   1.216
20508SOL    HW163421   3.448  12.947   1.256
20508SOL    HW263422   3.499  12.855   1.147
20509SOL     OW63423  10.018   6.886   9.257
20509SOL    HW163424  10.085   6.880   9.188
20509SOL    HW263425  10.041   6.965   9.306
20510SOL     OW63426  11.229   0.822   8.492
20510SOL    HW163427  11.282   0.872   8.431
20510SOL    HW263428  11.153   0.877   8.509
20511SOL     OW63429   6.127  12.616   5.980
20511SOL    HW163430   6.139  12.545   6.044
20511SOL    HW263431   6.188  12.594   5.909
20512SOL     OW63432   7.853   5.094   0.778
20512SOL    HW163433   7.773   5.092   0.724
20512SOL    HW263434   7.924   5.089   0.715
20513SOL     OW63435  11.469   7.967   8.278
20513SOL    HW163436  11.431   8.002   8.198
20513SOL    HW263437  11.399   7.916   8.318
20514SOL     OW63438   3.715   2.325  14.067
20514SOL    HW163439   3.727   2.241  14.113
20514SOL    HW263440   3.803   2.361  14.060
20515SOL     OW63441  13.405  11.347   4.137
20515SOL    HW163442  13.350  11.277   4.172
20515SOL    HW263443  13.354  11.427   4.152
20516SOL     OW63444   0.415   7.431  11.869
20516SOL    HW163445   0.469   7.358  11.899
20516SOL    HW263446   0.469   7.475  11.803
20517SOL     OW63447   4.072   6.268   8.841
20517SOL    HW163448   4.135   6.221   8.787
20517SOL    HW263449   4.038   6.337   8.784
20518SOL     OW63450   7.350  10.281   1.796
20518SOL    HW163451   7.270  10.310   1.841
20518SOL    HW263452   7.421  10.327   1.840
20519SOL     OW63453  13.369   5.620   8.953
20519SOL    HW163454  13.417   5.572   8.887
20519SOL    HW263455  13.369   5.711   8.922
20520SOL     OW63456   1.491  13.935   2.468
20520SOL    HW163457   1.468  13.948   2.560
20520SOL    HW263458   1.442  14.002   2.421
20521SOL     OW63459   1.429   1.296   9.824
20521SOL    HW163460   1.506   1.324   9.774
20521SOL    HW263461   1.422   1.202   9.807
20522SOL     OW63462   5.674   4.078   3.668
20522SOL    HW163463   5.725   4.003   3.697
20522SOL    HW263464   5.732   4.153   3.680
20523SOL     OW63465   4.078   8.064   3.605
20523SOL    HW163466   4.170   8.065   3.578
20523SOL    HW263467   4.077   8.114   3.687
20524SOL     OW63468  10.340   2.928   6.115
20524SOL    HW163469  10.244   2.928   6.118
20524SOL    HW263470  10.363   2.843   6.077
20525SOL     OW63471   8.531   1.673   8.611
20525SOL    HW163472   8.484   1.663   8.528
20525SOL    HW263473   8.491   1.608   8.668
20526SOL     OW63474   1.798   4.966   0.837
20526SOL    HW163475   1.706   4.987   0.854
20526SOL    HW263476   1.796   4.911   0.758
20527SOL     OW63477   0.498  12.947   0.213
20527SOL    HW163478   0.509  13.042   0.215
20527SOL    HW263479   0.552  12.918   0.140
20528SOL     OW63480  14.435  10.887   0.486
20528SOL    HW163481  14.377  10.876   0.562
20528SOL    HW263482  14.467  10.798   0.468
20529SOL     OW63483  14.440   9.433   5.470
20529SOL    HW163484  14.345   9.420   5.459
20529SOL    HW263485  14.479   9.351   5.437
20530SOL     OW63486   3.366   4.064   6.714
20530SOL    HW163487   3.431   4.081   6.782
20530SOL    HW263488   3.402   4.105   6.635
20531SOL     OW63489   7.709  13.635  12.887
20531SOL    HW163490   7.662  13.576  12.945
20531SOL    HW263491   7.643  13.697  12.856
20532SOL     OW63492   5.686   1.305   4.307
20532SOL    HW163493   5.670   1.220   4.264
20532SOL    HW263494   5.643   1.369   4.250
20533SOL     OW63495   3.329   2.664   7.465
20533SOL    HW163496   3.377   2.736   7.424
20533SOL    HW263497   3.238   2.695   7.469
20534SOL     OW63498   9.011   9.515   5.097
20534SOL    HW163499   8.992   9.589   5.040
20534SOL    HW263500   8.927   9.494   5.138
20535SOL     OW63501   3.619  10.661   8.274
20535SOL    HW163502   3.526  10.679   8.291
20535SOL    HW263503   3.665  10.733   8.318
20536SOL     OW63504  11.691   3.902  12.236
20536SOL    HW163505  11.702   3.895  12.331
20536SOL    HW263506  11.621   3.840  12.215
20537SOL     OW63507   2.916   0.418  12.940
20537SOL    HW163508   2.940   0.433  12.849
20537SOL    HW263509   2.835   0.468  12.953
20538SOL     OW63510   2.730   5.170  13.863
20538SOL    HW163511   2.821   5.194  13.881
20538SOL    HW263512   2.691   5.158  13.949
20539SOL     OW63513   4.219   2.344   4.075
20539SOL    HW163514   4.281   2.367   4.006
20539SOL    HW263515   4.186   2.428   4.108
20540SOL     OW63516   9.564   5.825  14.376
20540SOL    HW163517   9.497   5.874  14.328
20540SOL    HW263518   9.584   5.751  14.319
20541SOL     OW63519  13.187   5.968   4.360
20541SOL    HW163520  13.176   5.902   4.429
20541SOL    HW263521  13.202   6.050   4.408
20542SOL     OW63522   5.470  12.057  14.269
20542SOL    HW163523   5.416  12.073  14.346
20542SOL    HW263524   5.470  11.961  14.259
20543SOL     OW63525   0.512   3.957   7.240
20543SOL    HW163526   0.420   3.964   7.215
20543SOL    HW263527   0.561   3.984   7.161
20544SOL     OW63528   5.109  11.160  11.760
20544SOL    HW163529   5.123  11.252  11.740
20544SOL    HW263530   5.029  11.136  11.713
20545SOL     OW63531   7.704   2.283  13.810
20545SOL    HW163532   7.650   2.251  13.738
20545SOL    HW263533   7.709   2.378  13.797
20546SOL     OW63534   3.048   4.164  14.235
20546SOL    HW163535   3.136   4.155  14.198
20546SOL    HW263536   2.990   4.128  14.168
20547SOL     OW63537   5.649   4.350   9.519
20547SOL    HW163538   5.669   4.438   9.550
20547SOL    HW263539   5.554   4.343   9.525
20548SOL     OW63540   5.325   8.485  11.192
20548SOL    HW163541   5.386   8.413  11.206
20548SOL    HW263542   5.254   8.448  11.139
20549SOL     OW63543   2.533  13.966   2.231
20549SOL    HW163544   2.507  13.990   2.142
20549SOL    HW263545   2.616  13.921   2.221
20550SOL     OW63546  10.296   8.793  13.282
20550SOL    HW163547  10.291   8.708  13.238
20550SOL    HW263548  10.229   8.847  13.239
20551SOL     OW63549   0.564   0.244   2.081
20551SOL    HW163550   0.567   0.157   2.121
20551SOL    HW263551   0.554   0.227   1.987
20552SOL     OW63552  13.883   1.776  12.244
20552SOL    HW163553  13.790   1.776  12.219
20552SOL    HW263554  13.883   1.803  12.336
20553SOL     OW63555  13.845  11.680   5.774
20553SOL    HW163556  13.922  11.659   5.828
20553SOL    HW263557  13.803  11.754   5.819
20554SOL     OW63558  11.741  10.780  14.864
20554SOL    HW163559  11.721  10.839  14.792
20554SOL    HW263560  11.664  10.784   0.041
20555SOL     OW63561   5.432  12.379  11.983
20555SOL    HW163562   5.374  12.453  11.968
20555SOL    HW263563   5.512  12.400  11.935
20556SOL     OW63564  14.522   4.599  11.714
20556SOL    HW163565  14.484   4.686  11.727
20556SOL    HW263566  14.450   4.546  11.679
20557SOL     OW63567  11.807   6.531   8.589
20557SOL    HW163568  11.829   6.438   8.592
20557SOL    HW263569  11.840   6.566   8.672
20558SOL     OW63570   4.315  13.219   5.332
20558SOL    HW163571   4.406  13.245   5.323
20558SOL    HW263572   4.265  13.300   5.324
20559SOL     OW63573  13.044   3.607   1.713
20559SOL    HW163574  13.075   3.613   1.623
20559SOL    HW263575  12.959   3.565   1.706
20560SOL     OW63576  14.352   6.543   2.147
20560SOL    HW163577  14.415   6.532   2.075
20560SOL    HW263578  14.334   6.454   2.177
20561SOL     OW63579  11.351   8.803   0.419
20561SOL    HW163580  11.306   8.860   0.481
20561SOL    HW263581  11.316   8.828   0.334
20562SOL     OW63582  10.710   7.687   2.209
20562SOL    HW163583  10.648   7.639   2.263
20562SOL    HW263584  10.657   7.753   2.164
20563SOL     OW63585  11.009   9.007   7.368
20563SOL    HW163586  11.073   9.074   7.346
20563SOL    HW263587  10.967   8.986   7.285
20564SOL     OW63588   7.122  14.363  14.398
20564SOL    HW163589   7.030  14.386  14.406
20564SOL    HW263590   7.169  14.446  14.402
20565SOL     OW63591   5.303   5.897   1.835
20565SOL    HW163592   5.210   5.919   1.830
20565SOL    HW263593   5.349   5.978   1.814
20566SOL     OW63594   6.512  11.801  10.143
20566SOL    HW163595   6.552  11.748  10.212
20566SOL    HW263596   6.431  11.833  10.182
20567SOL     OW63597   3.879   7.907  11.186
20567SOL    HW163598   3.871   7.955  11.103
20567SOL    HW263599   3.808   7.943  11.241
20568SOL     OW63600   3.724   2.054   0.965
20568SOL    HW163601   3.629   2.048   0.969
20568SOL    HW263602   3.755   1.979   1.017
20569SOL     OW63603  13.904  14.401   5.806
20569SOL    HW163604  13.945  14.460   5.869
20569SOL    HW263605  13.929  14.314   5.835
20570SOL     OW63606  10.238   8.531   9.007
20570SOL    HW163607  10.208   8.562   8.922
20570SOL    HW263608  10.273   8.444   8.990
20571SOL     OW63609   7.015   2.591   4.912
20571SOL    HW163610   7.096   2.642   4.910
20571SOL    HW263611   7.028   2.528   4.982
20572SOL     OW63612  14.025   1.282   8.411
20572SOL    HW163613  14.066   1.362   8.445
20572SOL    HW263614  14.080   1.256   8.337
20573SOL     OW63615   1.578   6.084   4.482
20573SOL    HW163616   1.645   6.152   4.476
20573SOL    HW263617   1.626   6.004   4.502
20574SOL     OW63618   5.025   3.366   8.028
20574SOL    HW163619   4.979   3.446   8.054
20574SOL    HW263620   5.021   3.366   7.933
20575SOL     OW63621  10.969   0.220   1.066
20575SOL    HW163622  11.005   0.276   1.134
20575SOL    HW263623  11.017   0.138   1.074
20576SOL     OW63624   0.535   5.187  12.125
20576SOL    HW163625   0.554   5.269  12.080
20576SOL    HW263626   0.481   5.138  12.063
20577SOL     OW63627  14.021   8.954   2.883
20577SOL    HW163628  13.971   8.923   2.959
20577SOL    HW263629  14.110   8.923   2.900
20578SOL     OW63630  12.354  10.097   9.983
20578SOL    HW163631  12.367  10.025  10.045
20578SOL    HW263632  12.302  10.058   9.913
20579SOL     OW63633   9.374   8.189   2.296
20579SOL    HW163634   9.416   8.273   2.278
20579SOL    HW263635   9.351   8.192   2.388
20580SOL     OW63636   6.642  12.829   4.319
20580SOL    HW163637   6.727  12.784   4.324
20580SOL    HW263638   6.581  12.762   4.290
20581SOL     OW63639   2.353  14.690   6.318
20581SOL    HW163640   2.311  14.775   6.302
20581SOL    HW263641   2.308  14.655   6.395
20582SOL     OW63642   5.346   8.727   2.383
20582SOL    HW163643   5.428   8.774   2.368
20582SOL    HW263644   5.279   8.782   2.343
20583SOL     OW63645  12.646   0.670   1.589
20583SOL    HW163646  12.559   0.688   1.624
20583SOL    HW263647  12.632   0.601   1.524
20584SOL     OW63648  12.568   3.047  14.414
20584SOL    HW163649  12.486   3.028  14.369
20584SOL    HW263650  12.553   3.024  14.505
20585SOL     OW63651   5.942  12.568   9.764
20585SOL    HW163652   5.996  12.559   9.842
20585SOL    HW263653   5.964  12.655   9.729
20586SOL     OW63654   3.675   4.309   2.945
20586SOL    HW163655   3.639   4.323   3.032
20586SOL    HW263656   3.598   4.306   2.888
20587SOL     OW63657   9.655  10.813   6.628
20587SOL    HW163658   9.668  10.827   6.534
20587SOL    HW263659   9.696  10.888   6.670
20588SOL     OW63660  11.540  10.633   0.409
20588SOL    HW163661  11.497  10.553   0.379
20588SOL    HW263662  11.509  10.700   0.349
20589SOL     OW63663   9.709  14.275   7.838
20589SOL    HW163664   9.664  14.360   7.844
20589SOL    HW263665   9.684  14.229   7.918
20590SOL     OW63666   4.026   5.676  10.844
20590SOL    HW163667   3.982   5.694  10.761
20590SOL    HW263668   3.954   5.666  10.907
20591SOL     OW63669   6.246  12.764  11.830
20591SOL    HW163670   6.247  12.693  11.895
20591SOL    HW263671   6.154  12.783  11.817
20592SOL     OW63672   2.151  11.113   2.295
20592SOL    HW163673   2.134  11.095   2.202
20592SOL    HW263674   2.239  11.150   2.296
20593SOL     OW63675  11.138   7.693  12.005
20593SOL    HW163676  11.111   7.757  12.071
20593SOL    HW263677  11.062   7.685  11.948
20594SOL     OW63678   8.115  10.123   3.435
20594SOL    HW163679   8.169  10.158   3.506
20594SOL    HW263680   8.069  10.049   3.475
20595SOL     OW63681  12.851   3.158   0.109
20595SOL    HW163682  12.905   3.082   0.130
20595SOL    HW263683  12.893   3.231   0.155
20596SOL     OW63684   3.152   8.881  13.477
20596SOL    HW163685   3.188   8.953  13.529
20596SOL    HW263686   3.113   8.923  13.401
20597SOL     OW63687   9.902   2.063   1.265
20597SOL    HW163688   9.816   2.020   1.261
20597SOL    HW263689   9.957   2.002   1.315
20598SOL     OW63690   5.250   6.731   4.091
20598SOL    HW163691   5.312   6.725   4.018
20598SOL    HW263692   5.207   6.645   4.093
20599SOL     OW63693  10.753   4.599   8.794
20599SOL    HW163694  10.841   4.609   8.757
20599SOL    HW263695  10.698   4.659   8.743
20600SOL     OW63696  13.518   9.252  13.714
20600SOL    HW163697  13.462   9.326  13.692
20600SOL    HW263698  13.502   9.188  13.644
20601SOL     OW63699  11.294   1.559  11.475
20601SOL    HW163700  11.215   1.534  11.523
20601SOL    HW263701  11.262   1.578  11.386
20602SOL     OW63702  11.295   7.162  12.509
20602SOL    HW163703  11.371   7.159  12.567
20602SOL    HW263704  11.220   7.146  12.566
20603SOL     OW63705  14.183   5.112  14.655
20603SOL    HW163706  14.210   5.038  14.710
20603SOL    HW263707  14.204   5.084  14.566
20604SOL     OW63708   1.616   2.343   7.988
20604SOL    HW163709   1.639   2.254   7.963
20604SOL    HW263710   1.631   2.346   8.083
20605SOL     OW63711   2.795   5.560   1.148
20605SOL    HW163712   2.715   5.574   1.097
20605SOL    HW263713   2.774   5.593   1.236
20606SOL     OW63714  10.195   4.251  11.646
20606SOL    HW163715  10.186   4.331  11.698
20606SOL    HW263716  10.163   4.275  11.559
20607SOL     OW63717   4.986   0.423   8.485
20607SOL    HW163718   4.960   0.435   8.394
20607SOL    HW263719   4.927   0.480   8.535
20608SOL     OW63720   9.405   5.520  14.705
20608SOL    HW163721   9.469   5.587  14.680
20608SOL    HW263722   9.357   5.501  14.625
20609SOL     OW63723   7.006  14.725   2.227
20609SOL    HW163724   6.964  14.807   2.252
20609SOL    HW263725   6.979  14.663   2.296
20610SOL     OW63726   3.955   6.843  10.285
20610SOL    HW163727   3.953   6.936  10.264
20610SOL    HW263728   4.001   6.803  10.211
20611SOL     OW63729   0.679  13.683   4.941
20611SOL    HW163730   0.760  13.645   4.975
20611SOL    HW263731   0.662  13.759   4.998
20612SOL     OW63732  13.831   5.904   9.391
20612SOL    HW163733  13.882   5.961   9.333
20612SOL    HW263734  13.837   5.946   9.477
20613SOL     OW63735   5.671   5.589   7.542
20613SOL    HW163736   5.743   5.651   7.536
20613SOL    HW263737   5.650   5.585   7.635
20614SOL     OW63738  11.295  10.703   8.000
20614SOL    HW163739  11.280  10.681   7.908
20614SOL    HW263740  11.334  10.790   7.997
20615SOL     OW63741   8.219   6.889  12.390
20615SOL    HW163742   8.192   6.929  12.473
20615SOL    HW263743   8.217   6.795  12.407
20616SOL     OW63744   2.039  13.619   8.070
20616SOL    HW163745   2.101  13.626   7.998
20616SOL    HW263746   2.085  13.657   8.145
20617SOL     OW63747  11.416  12.103  11.769
20617SOL    HW163748  11.342  12.053  11.804
20617SOL    HW263749  11.413  12.086  11.675
20618SOL     OW63750  12.563   4.221  14.013
20618SOL    HW163751  12.613   4.142  14.031
20618SOL    HW263752  12.491   4.219  14.076
20619SOL     OW63753   2.666   0.631  11.335
20619SOL    HW163754   2.587   0.676  11.308
20619SOL    HW263755   2.737   0.679  11.292
20620SOL     OW63756  12.178   7.248   0.150
20620SOL    HW163757  12.225   7.267   0.069
20620SOL    HW263758  12.205   7.317   0.211
20621SOL     OW63759   0.706  12.584  11.792
20621SOL    HW163760   0.710  12.489  11.802
20621SOL    HW263761   0.691  12.617  11.880
20622SOL     OW63762   8.694   8.070  14.084
20622SOL    HW163763   8.680   8.005  14.015
20622SOL    HW263764   8.789   8.074  14.094
20623SOL     OW63765   4.671   6.727   5.483
20623SOL    HW163766   4.678   6.803   5.541
20623SOL    HW263767   4.610   6.754   5.415
20624SOL     OW63768  13.194  10.029   4.815
20624SOL    HW163769  13.115  10.075   4.845
20624SOL    HW263770  13.165   9.939   4.800
20625SOL     OW63771  14.618   2.382  12.054
20625SOL    HW163772  14.604   2.412  11.964
20625SOL    HW263773  14.650   2.459  12.100
20626SOL     OW63774  12.031  10.121  13.543
20626SOL    HW163775  12.028  10.036  13.587
20626SOL    HW263776  12.125  10.139  13.533
20627SOL     OW63777  13.308   3.994   2.026
20627SOL    HW163778  13.307   3.912   2.075
20627SOL    HW263779  13.313   3.968   1.935
20628SOL     OW63780   5.214  13.898   0.240
20628SOL    HW163781   5.201  13.899   0.335
20628SOL    HW263782   5.168  13.976   0.209
20629SOL     OW63783  10.568   4.940   1.540
20629SOL    HW163784  10.495   4.962   1.598
20629SOL    HW263785  10.545   4.855   1.503
20630SOL     OW63786   3.549  13.047   7.632
20630SOL    HW163787   3.569  13.081   7.719
20630SOL    HW263788   3.470  13.093   7.606
20631SOL     OW63789   5.983  13.804   1.667
20631SOL    HW163790   5.905  13.769   1.623
20631SOL    HW263791   6.055  13.748   1.637
20632SOL     OW63792   0.122  11.319  12.630
20632SOL    HW163793   0.157  11.406  12.610
20632SOL    HW263794   0.035  11.336  12.667
20633SOL     OW63795  10.991  12.455   5.790
20633SOL    HW163796  10.903  12.471   5.758
20633SOL    HW263797  11.034  12.541   5.788
20634SOL     OW63798  14.766   9.935   2.192
20634SOL    HW163799  14.749  10.029   2.203
20634SOL    HW263800  14.723   9.894   2.267
20635SOL     OW63801   0.516   1.102   6.943
20635SOL    HW163802   0.462   1.087   6.865
20635SOL    HW263803   0.488   1.036   7.005
20636SOL     OW63804  10.839   2.579   2.769
20636SOL    HW163805  10.824   2.589   2.863
20636SOL    HW263806  10.929   2.546   2.762
20637SOL     OW63807   8.234   2.896   7.343
20637SOL    HW163808   8.199   2.847   7.417
20637SOL    HW263809   8.281   2.831   7.291
20638SOL     OW63810  14.786   9.083   7.871
20638SOL    HW163811  14.853   9.066   7.938
20638SOL    HW263812  14.708   9.038   7.903
20639SOL     OW63813   9.409   7.902   4.764
20639SOL    HW163814   9.315   7.914   4.754
20639SOL    HW263815   9.421   7.807   4.765
20640SOL     OW63816  10.508  12.143  13.761
20640SOL    HW163817  10.576  12.174  13.700
20640SOL    HW263818  10.550  12.146  13.847
20641SOL     OW63819   5.468   4.228   2.100
20641SOL    HW163820   5.511   4.143   2.097
20641SOL    HW263821   5.453   4.251   2.009
20642SOL     OW63822   2.598   5.020  14.774
20642SOL    HW163823   2.559   5.106  14.757
20642SOL    HW263824   2.549   4.960  14.716
20643SOL     OW63825   2.616   4.626  14.637
20643SOL    HW163826   2.551   4.684  14.597
20643SOL    HW263827   2.670   4.596  14.564
20644SOL     OW63828   7.165   4.906   3.063
20644SOL    HW163829   7.237   4.844   3.069
20644SOL    HW263830   7.140   4.924   3.154
20645SOL     OW63831   5.364  13.125   5.287
20645SOL    HW163832   5.319  13.041   5.272
20645SOL    HW263833   5.457  13.104   5.280
20646SOL     OW63834   3.892  11.075  10.866
20646SOL    HW163835   3.964  11.059  10.927
20646SOL    HW263836   3.822  11.017  10.896
20647SOL     OW63837   8.539   8.304  14.129
20647SOL    HW163838   8.572   8.215  14.132
20647SOL    HW263839   8.444   8.295  14.137
20648SOL     OW63840   0.416   6.948   5.497
20648SOL    HW163841   0.454   6.987   5.576
20648SOL    HW263842   0.324   6.936   5.518
20649SOL     OW63843   9.195  13.807   0.001
20649SOL    HW163844   9.148  13.877  14.836
20649SOL    HW263845   9.288  13.826  14.865
20650SOL     OW63846  14.834  13.774  12.835
20650SOL    HW163847  14.834  13.773  12.931
20650SOL    HW263848   0.036  13.731  12.811
20651SOL     OW63849   2.949   6.710   8.525
20651SOL    HW163850   3.004   6.784   8.500
20651SOL    HW263851   2.927   6.727   8.617
20652SOL     OW63852   7.717   9.671   1.986
20652SOL    HW163853   7.683   9.583   1.997
20652SOL    HW263854   7.653   9.715   1.930
20653SOL     OW63855   5.554   0.211  14.055
20653SOL    HW163856   5.621   0.244  14.114
20653SOL    HW263857   5.603   0.173  13.982
20654SOL     OW63858   1.908   5.830  11.033
20654SOL    HW163859   1.922   5.923  11.017
20654SOL    HW263860   1.814   5.823  11.054
20655SOL     OW63861   8.077   2.476  13.383
20655SOL    HW163862   8.034   2.513  13.306
20655SOL    HW263863   8.165   2.452  13.352
20656SOL     OW63864   4.151  12.784   9.933
20656SOL    HW163865   4.160  12.858   9.874
20656SOL    HW263866   4.109  12.821  10.011
20657SOL     OW63867   2.792   4.990   1.604
20657SOL    HW163868   2.818   4.947   1.522
20657SOL    HW263869   2.792   4.920   1.669
20658SOL     OW63870   5.443  10.466   0.950
20658SOL    HW163871   5.529  10.476   0.909
20658SOL    HW263872   5.404  10.554   0.946
20659SOL     OW63873   0.891   7.801   4.649
20659SOL    HW163874   0.943   7.725   4.672
20659SOL    HW263875   0.847   7.825   4.731
20660SOL     OW63876   4.513   9.727   3.600
20660SOL    HW163877   4.606   9.704   3.608
20660SOL    HW263878   4.511   9.790   3.528
20661SOL     OW63879   9.645   8.661  10.776
20661SOL    HW163880   9.607   8.640  10.691
20661SOL    HW263881   9.732   8.622  10.774
20662SOL     OW63882   3.458  14.806  14.638
20662SOL    HW163883   3.380  14.793  14.691
20662SOL    HW263884   3.528  14.761  14.685
20663SOL     OW63885   9.220  10.133  14.520
20663SOL    HW163886   9.242  10.094  14.604
20663SOL    HW263887   9.300  10.178  14.493
20664SOL     OW63888   1.158  12.877  13.980
20664SOL    HW163889   1.106  12.893  14.058
20664SOL    HW263890   1.143  12.954  13.925
20665SOL     OW63891  11.694  11.016   5.137
20665SOL    HW163892  11.754  10.945   5.159
20665SOL    HW263893  11.717  11.088   5.196
20666SOL     OW63894   0.262  13.390   5.781
20666SOL    HW163895   0.172  13.390   5.747
20666SOL    HW263896   0.265  13.467   5.838
20667SOL     OW63897   3.914  14.222  10.132
20667SOL    HW163898   3.852  14.158  10.166
20667SOL    HW263899   3.942  14.272  10.209
20668SOL     OW63900  13.531   7.255   5.446
20668SOL    HW163901  13.475   7.185   5.412
20668SOL    HW263902  13.473   7.330   5.453
20669SOL     OW63903   5.365   0.247   5.280
20669SOL    HW163904   5.435   0.221   5.221
20669SOL    HW263905   5.389   0.208   5.364
20670SOL     OW63906  13.628  12.030  14.026
20670SOL    HW163907  13.560  12.053  14.089
20670SOL    HW263908  13.710  12.053  14.069
20671SOL     OW63909   9.128  11.763   2.185
20671SOL    HW163910   9.131  11.710   2.265
20671SOL    HW263911   9.119  11.853   2.216
20672SOL     OW63912   4.454  14.658  10.759
20672SOL    HW163913   4.452  14.622  10.670
20672SOL    HW263914   4.434  14.751  10.748
20673SOL     OW63915   2.051   1.462  13.356
20673SOL    HW163916   2.116   1.487  13.290
20673SOL    HW263917   1.975   1.434  13.305
20674SOL     OW63918   1.651   9.008   8.788
20674SOL    HW163919   1.673   8.928   8.741
20674SOL    HW263920   1.661   8.985   8.881
20675SOL     OW63921   3.671  14.874   8.613
20675SOL    HW163922   3.671  14.848   8.521
20675SOL    HW263923   3.697  14.795   8.661
20676SOL     OW63924   9.604  10.855   9.091
20676SOL    HW163925   9.581  10.809   9.171
20676SOL    HW263926   9.606  10.786   9.024
20677SOL     OW63927  12.279   5.177  12.513
20677SOL    HW163928  12.241   5.162  12.600
20677SOL    HW263929  12.208   5.154  12.452
20678SOL     OW63930   1.014  12.582  12.808
20678SOL    HW163931   0.972  12.668  12.818
20678SOL    HW263932   0.964  12.539  12.738
20679SOL     OW63933   4.893  14.461   3.552
20679SOL    HW163934   4.912  14.462   3.646
20679SOL    HW263935   4.801  14.436   3.547
20680SOL     OW63936   0.150   0.264   9.906
20680SOL    HW163937   0.088   0.306   9.966
20680SOL    HW263938   0.235   0.275   9.947
20681SOL     OW63939  10.883   4.684   0.951
20681SOL    HW163940  10.944   4.707   1.021
20681SOL    HW263941  10.805   4.736   0.969
20682SOL     OW63942   9.152  14.591   6.534
20682SOL    HW163943   9.200  14.516   6.570
20682SOL    HW263944   9.062  14.578   6.563
20683SOL     OW63945  13.858  14.069  11.186
20683SOL    HW163946  13.897  14.074  11.099
20683SOL    HW263947  13.891  13.987  11.223
20684SOL     OW63948  14.103   8.254   0.441
20684SOL    HW163949  14.042   8.291   0.505
20684SOL    HW263950  14.060   8.174   0.411
20685SOL     OW63951   7.333   3.153   4.132
20685SOL    HW163952   7.332   3.118   4.221
20685SOL    HW263953   7.343   3.076   4.076
20686SOL     OW63954   2.986  12.287   7.525
20686SOL    HW163955   3.059  12.256   7.577
20686SOL    HW263956   2.941  12.350   7.581
20687SOL     OW63957   2.549   2.225   9.981
20687SOL    HW163958   2.456   2.243   9.992
20687SOL    HW263959   2.563   2.140  10.024
20688SOL     OW63960   0.282   1.905   2.668
20688SOL    HW163961   0.229   1.925   2.746
20688SOL    HW263962   0.342   1.979   2.660
20689SOL     OW63963   3.243   8.307   7.344
20689SOL    HW163964   3.223   8.255   7.422
20689SOL    HW263965   3.338   8.305   7.338
20690SOL     OW63966   0.313   6.581   4.352
20690SOL    HW163967   0.258   6.503   4.352
20690SOL    HW263968   0.356   6.580   4.438
20691SOL     OW63969   5.395   2.325   8.618
20691SOL    HW163970   5.463   2.301   8.681
20691SOL    HW263971   5.313   2.301   8.662
20692SOL     OW63972   6.061  10.993   5.183
20692SOL    HW163973   5.967  10.979   5.185
20692SOL    HW263974   6.094  10.945   5.259
20693SOL     OW63975   9.691  13.476   1.515
20693SOL    HW163976   9.652  13.491   1.601
20693SOL    HW263977   9.720  13.563   1.487
20694SOL     OW63978   2.951   3.435   6.169
20694SOL    HW163979   2.999   3.505   6.125
20694SOL    HW263980   2.892   3.481   6.230
20695SOL     OW63981   8.748   9.014  11.286
20695SOL    HW163982   8.678   9.056  11.336
20695SOL    HW263983   8.730   9.039  11.195
20696SOL     OW63984   4.596  12.512   9.498
20696SOL    HW163985   4.647  12.555   9.567
20696SOL    HW263986   4.640  12.538   9.417
20697SOL     OW63987   9.322   4.271   5.301
20697SOL    HW163988   9.370   4.273   5.218
20697SOL    HW263989   9.300   4.363   5.318
20698SOL     OW63990  12.386   7.643   6.832
20698SOL    HW163991  12.465   7.610   6.875
20698SOL    HW263992  12.382   7.594   6.749
20699SOL     OW63993   8.273   9.520   9.894
20699SOL    HW163994   8.238   9.602   9.859
20699SOL    HW263995   8.305   9.542   9.981
20700SOL     OW63996   5.755  14.276   9.409
20700SOL    HW163997   5.778  14.185   9.429
20700SOL    HW263998   5.762  14.283   9.314
20701SOL     OW63999  12.596   3.475   3.436
20701SOL    HW164000  12.557   3.562   3.427
20701SOL    HW264001  12.550   3.421   3.372
20702SOL     OW64002   7.018   1.440   3.253
20702SOL    HW164003   6.936   1.420   3.209
20702SOL    HW264004   6.998   1.518   3.305
20703SOL     OW64005  12.182   1.122  13.955
20703SOL    HW164006  12.251   1.093  14.016
20703SOL    HW264007  12.229   1.173  13.889
20704SOL     OW64008   6.457  11.945   1.799
20704SOL    HW164009   6.374  11.917   1.759
20704SOL    HW264010   6.460  11.899   1.883
20705SOL     OW64011   7.067   7.298   5.275
20705SOL    HW164012   7.051   7.235   5.346
20705SOL    HW264013   7.153   7.334   5.294
20706SOL     OW64014   1.846   9.017   8.039
20706SOL    HW164015   1.757   8.994   8.011
20706SOL    HW264016   1.842   9.015   8.135
20707SOL     OW64017   9.187   3.397  13.399
20707SOL    HW164018   9.114   3.435  13.350
20707SOL    HW264019   9.199   3.456  13.474
20708SOL     OW64020   2.670   3.798   3.144
20708SOL    HW164021   2.594   3.769   3.195
20708SOL    HW264022   2.712   3.717   3.115
20709SOL     OW64023   1.232   3.538   8.347
20709SOL    HW164024   1.210   3.501   8.433
20709SOL    HW264025   1.230   3.633   8.361
20710SOL     OW64026   7.576  12.575   3.852
20710SOL    HW164027   7.661  12.530   3.846
20710SOL    HW264028   7.548  12.585   3.761
20711SOL     OW64029   4.934  10.648  11.074
20711SOL    HW164030   4.850  10.619  11.110
20711SOL    HW264031   4.916  10.733  11.036
20712SOL     OW64032   6.835  10.085  11.268
20712SOL    HW164033   6.878  10.079  11.353
20712SOL    HW264034   6.832   9.995  11.236
20713SOL     OW64035   0.364  12.429   2.231
20713SOL    HW164036   0.288  12.478   2.201
20713SOL    HW264037   0.360  12.434   2.326
20714SOL     OW64038   7.244  14.133   3.012
20714SOL    HW164039   7.316  14.078   3.041
20714SOL    HW264040   7.269  14.161   2.924
20715SOL     OW64041   9.365  13.425   0.260
20715SOL    HW164042   9.437  13.478   0.227
20715SOL    HW264043   9.292  13.487   0.270
20716SOL     OW64044   3.157   4.008  12.703
20716SOL    HW164045   3.136   4.074  12.769
20716SOL    HW264046   3.248   3.984  12.721
20717SOL     OW64047   3.069   5.333   8.477
20717SOL    HW164048   3.102   5.347   8.389
20717SOL    HW264049   3.143   5.293   8.524
20718SOL     OW64050   9.525   5.336   8.708
20718SOL    HW164051   9.489   5.260   8.754
20718SOL    HW264052   9.448   5.387   8.683
20719SOL     OW64053   7.530   6.996   8.362
20719SOL    HW164054   7.454   6.969   8.413
20719SOL    HW264055   7.526   7.091   8.363
20720SOL     OW64056  12.106  12.368   1.230
20720SOL    HW164057  12.060  12.425   1.292
20720SOL    HW264058  12.188  12.414   1.213
20721SOL     OW64059   2.734  13.856  12.359
20721SOL    HW164060   2.657  13.845  12.414
20721SOL    HW264061   2.699  13.858  12.270
20722SOL     OW64062   5.159  11.529   0.450
20722SOL    HW164063   5.178  11.477   0.528
20722SOL    HW264064   5.243  11.532   0.403
20723SOL     OW64065   0.010  14.098   9.583
20723SOL    HW164066  14.842  14.146   9.515
20723SOL    HW264067   0.083  14.156   9.606
20724SOL     OW64068   5.226   9.531   7.008
20724SOL    HW164069   5.240   9.481   6.927
20724SOL    HW264070   5.216   9.464   7.075
20725SOL     OW64071  10.390  12.351   4.208
20725SOL    HW164072  10.437  12.361   4.291
20725SOL    HW264073  10.445  12.395   4.144
20726SOL     OW64074   1.158   7.673  13.099
20726SOL    HW164075   1.089   7.733  13.127
20726SOL    HW264076   1.143   7.660  13.006
20727SOL     OW64077  13.151   1.711  11.764
20727SOL    HW164078  13.244   1.689  11.771
20727SOL    HW264079  13.109   1.658  11.833
20728SOL     OW64080   2.319   2.088   8.813
20728SOL    HW164081   2.240   2.102   8.865
20728SOL    HW264082   2.338   1.994   8.824
20729SOL     OW64083   4.362   4.918   7.824
20729SOL    HW164084   4.374   5.013   7.823
20729SOL    HW264085   4.352   4.894   7.732
20730SOL     OW64086  13.870   1.050  13.760
20730SOL    HW164087  13.916   1.043  13.676
20730SOL    HW264088  13.933   1.016  13.824
20731SOL     OW64089  13.733   8.565   3.477
20731SOL    HW164090  13.663   8.502   3.457
20731SOL    HW264091  13.691   8.629   3.534
20732SOL     OW64092   2.525   4.124   0.373
20732SOL    HW164093   2.533   4.075   0.291
20732SOL    HW264094   2.591   4.192   0.367
20733SOL     OW64095  10.502  14.608   6.405
20733SOL    HW164096  10.531  14.517   6.412
20733SOL    HW264097  10.573  14.652   6.357
20734SOL     OW64098  13.364   0.314   3.356
20734SOL    HW164099  13.438   0.334   3.298
20734SOL    HW264100  13.355   0.391   3.412
20735SOL     OW64101   5.391   3.569   8.319
20735SOL    HW164102   5.297   3.556   8.306
20735SOL    HW264103   5.427   3.581   8.231
20736SOL     OW64104   0.683  12.002  10.593
20736SOL    HW164105   0.632  12.025  10.515
20736SOL    HW264106   0.675  11.907  10.600
20737SOL     OW64107  10.609  12.329   7.666
20737SOL    HW164108  10.602  12.368   7.753
20737SOL    HW264109  10.682  12.375   7.625
20738SOL     OW64110  10.068   0.842  12.981
20738SOL    HW164111  10.134   0.803  12.924
20738SOL    HW264112  10.114   0.860  13.063
20739SOL     OW64113   8.666  11.057   1.443
20739SOL    HW164114   8.637  11.045   1.534
20739SOL    HW264115   8.680  10.968   1.411
20740SOL     OW64116   8.467   6.432  10.473
20740SOL    HW164117   8.496   6.524  10.479
20740SOL    HW264118   8.492   6.395  10.558
20741SOL     OW64119  14.469  10.724   0.896
20741SOL    HW164120  14.502  10.689   0.813
20741SOL    HW264121  14.548  10.750   0.943
20742SOL     OW64122   9.340  11.275  12.287
20742SOL    HW164123   9.341  11.182  12.310
20742SOL    HW264124   9.351  11.276  12.191
20743SOL     OW64125  10.067   6.606   3.475
20743SOL    HW164126  10.100   6.517   3.489
20743SOL    HW264127   9.972   6.597   3.481
20744SOL     OW64128   9.545   0.088  14.005
20744SOL    HW164129   9.512   0.170  13.970
20744SOL    HW264130   9.527   0.023  13.937
20745SOL     OW64131   5.386  13.744   6.358
20745SOL    HW164132   5.475  13.709   6.352
20745SOL    HW264133   5.341  13.685   6.419
20746SOL     OW64134   9.853   4.315  10.249
20746SOL    HW164135   9.802   4.383  10.292
20746SOL    HW264136   9.909   4.363  10.187
20747SOL     OW64137   6.909   2.863   6.583
20747SOL    HW164138   6.987   2.911   6.610
20747SOL    HW264139   6.889   2.807   6.659
20748SOL     OW64140  10.694   3.680   2.971
20748SOL    HW164141  10.696   3.664   2.877
20748SOL    HW264142  10.776   3.726   2.989
20749SOL     OW64143   2.407   1.171  10.767
20749SOL    HW164144   2.325   1.213  10.795
20749SOL    HW264145   2.406   1.086  10.810
20750SOL     OW64146  13.363   4.512   5.361
20750SOL    HW164147  13.392   4.433   5.406
20750SOL    HW264148  13.359   4.487   5.269
20751SOL     OW64149   9.746   7.024   6.441
20751SOL    HW164150   9.681   7.094   6.444
20751SOL    HW264151   9.695   6.943   6.453
20752SOL     OW64152   9.125  12.137   3.912
20752SOL    HW164153   9.162  12.107   3.829
20752SOL    HW264154   9.173  12.218   3.932
20753SOL     OW64155   9.165   5.005   0.589
20753SOL    HW164156   9.254   5.035   0.573
20753SOL    HW264157   9.155   4.928   0.533
20754SOL     OW64158   6.125   6.811  13.439
20754SOL    HW164159   6.054   6.806  13.374
20754SOL    HW264160   6.204   6.786  13.390
20755SOL     OW64161   3.157  11.523   4.143
20755SOL    HW164162   3.187  11.442   4.101
20755SOL    HW264163   3.109  11.493   4.221
20756SOL     OW64164  12.139   3.779   0.827
20756SOL    HW164165  12.185   3.851   0.870
20756SOL    HW264166  12.107   3.724   0.899
20757SOL     OW64167   9.971  14.355  12.086
20757SOL    HW164168  10.040  14.378  12.023
20757SOL    HW264169  10.000  14.272  12.125
20758SOL     OW64170  12.498   1.853   0.772
20758SOL    HW164171  12.428   1.811   0.823
20758SOL    HW264172  12.465   1.940   0.753
20759SOL     OW64173   9.754   7.559   0.183
20759SOL    HW164174   9.777   7.535   0.093
20759SOL    HW264175   9.827   7.528   0.236
20760SOL     OW64176  12.797   1.266  10.087
20760SOL    HW164177  12.762   1.219  10.163
20760SOL    HW264178  12.736   1.244  10.016
20761SOL     OW64179  11.688   9.302   4.906
20761SOL    HW164180  11.636   9.361   4.959
20761SOL    HW264181  11.635   9.288   4.827
20762SOL     OW64182   5.480   1.009   6.024
20762SOL    HW164183   5.520   1.093   6.004
20762SOL    HW264184   5.469   1.009   6.119
20763SOL     OW64185  13.582  11.608   7.650
20763SOL    HW164186  13.490  11.632   7.653
20763SOL    HW264187  13.583  11.514   7.665
20764SOL     OW64188   3.285  12.316  10.643
20764SOL    HW164189   3.313  12.401  10.676
20764SOL    HW264190   3.365  12.263  10.641
20765SOL     OW64191   1.560   7.935   5.914
20765SOL    HW164192   1.482   7.881   5.923
20765SOL    HW264193   1.574   7.972   6.002
20766SOL     OW64194   7.834   2.171  14.055
20766SOL    HW164195   7.890   2.103  14.017
20766SOL    HW264196   7.798   2.217  13.979
20767SOL     OW64197   1.778   6.545   9.493
20767SOL    HW164198   1.844   6.480   9.519
20767SOL    HW264199   1.803   6.624   9.541
20768SOL     OW64200   8.636  11.428   5.286
20768SOL    HW164201   8.704  11.457   5.225
20768SOL    HW264202   8.572  11.383   5.231
20769SOL     OW64203  14.672   0.198   4.742
20769SOL    HW164204  14.583   0.234   4.742
20769SOL    HW264205  14.728   0.275   4.730
20770SOL     OW64206   3.196  13.041  12.212
20770SOL    HW164207   3.133  13.027  12.283
20770SOL    HW264208   3.155  13.002  12.135
20771SOL     OW64209   8.629   2.365   1.937
20771SOL    HW164210   8.570   2.425   1.984
20771SOL    HW264211   8.623   2.283   1.985
20772SOL     OW64212   8.985   1.665   5.868
20772SOL    HW164213   9.024   1.620   5.793
20772SOL    HW264214   9.046   1.735   5.890
20773SOL     OW64215  11.333   2.106  13.450
20773SOL    HW164216  11.287   2.151  13.379
20773SOL    HW264217  11.357   2.022  13.412
20774SOL     OW64218  13.853   9.214  10.573
20774SOL    HW164219  13.905   9.291  10.595
20774SOL    HW264220  13.816   9.234  10.487
20775SOL     OW64221   3.743   1.080   1.957
20775SOL    HW164222   3.701   1.101   1.874
20775SOL    HW264223   3.799   1.005   1.937
20776SOL     OW64224  14.605  11.260   2.405
20776SOL    HW164225  14.519  11.263   2.446
20776SOL    HW264226  14.667  11.272   2.477
20777SOL     OW64227   7.999   7.951   7.941
20777SOL    HW164228   8.017   8.033   7.986
20777SOL    HW264229   7.955   7.977   7.860
20778SOL     OW64230   1.330  12.749   9.442
20778SOL    HW164231   1.345  12.685   9.373
20778SOL    HW264232   1.408  12.744   9.497
20779SOL     OW64233   1.230   9.798   9.727
20779SOL    HW164234   1.226   9.718   9.779
20779SOL    HW264235   1.147   9.800   9.680
20780SOL     OW64236   1.750  10.929   9.615
20780SOL    HW164237   1.667  10.920   9.568
20780SOL    HW264238   1.804  10.857   9.583
20781SOL     OW64239  13.430  11.287   4.476
20781SOL    HW164240  13.487  11.361   4.498
20781SOL    HW264241  13.369  11.321   4.411
20782SOL     OW64242   3.753   0.410   8.070
20782SOL    HW164243   3.776   0.340   8.009
20782SOL    HW264244   3.837   0.447   8.097
20783SOL     OW64245   2.822   2.751  10.488
20783SOL    HW164246   2.743   2.740  10.541
20783SOL    HW264247   2.854   2.663  10.473
20784SOL     OW64248   7.976   4.609   2.533
20784SOL    HW164249   7.979   4.678   2.600
20784SOL    HW264250   7.921   4.541   2.571
20785SOL     OW64251  14.819   7.526  12.364
20785SOL    HW164252  14.739   7.547  12.411
20785SOL    HW264253  14.805   7.438  12.331
20786SOL     OW64254   2.141   4.470  14.102
20786SOL    HW164255   2.064   4.441  14.054
20786SOL    HW264256   2.183   4.533  14.044
20787SOL     OW64257   1.128   7.033   8.815
20787SOL    HW164258   1.046   6.993   8.785
20787SOL    HW264259   1.194   7.000   8.755
20788SOL     OW64260   5.980  11.360  13.658
20788SOL    HW164261   5.978  11.433  13.719
20788SOL    HW264262   5.912  11.381  13.594
20789SOL     OW64263   3.903   5.291   9.342
20789SOL    HW164264   3.848   5.242   9.403
20789SOL    HW264265   3.991   5.286   9.380
20790SOL     OW64266  13.418  10.026   1.232
20790SOL    HW164267  13.349   9.978   1.277
20790SOL    HW264268  13.376  10.107   1.203
20791SOL     OW64269   4.576  12.723   4.721
20791SOL    HW164270   4.644  12.778   4.759
20791SOL    HW264271   4.603  12.633   4.742
20792SOL     OW64272   5.128   3.232  13.393
20792SOL    HW164273   5.105   3.187  13.473
20792SOL    HW264274   5.224   3.229  13.390
20793SOL     OW64275   2.764   1.815  10.853
20793SOL    HW164276   2.795   1.795  10.941
20793SOL    HW264277   2.692   1.754  10.838
20794SOL     OW64278  13.342  13.617   1.156
20794SOL    HW164279  13.326  13.678   1.228
20794SOL    HW264280  13.437  13.603   1.157
20795SOL     OW64281   2.375   5.528   2.000
20795SOL    HW164282   2.457   5.575   2.014
20795SOL    HW264283   2.400   5.436   1.998
20796SOL     OW64284   0.181  12.320  12.601
20796SOL    HW164285   0.155  12.338  12.692
20796SOL    HW264286   0.237  12.242  12.608
20797SOL     OW64287   7.630   1.381   6.037
20797SOL    HW164288   7.568   1.309   6.046
20797SOL    HW264289   7.708   1.340   5.998
20798SOL     OW64290   0.275   8.992  10.903
20798SOL    HW164291   0.334   9.023  10.835
20798SOL    HW264292   0.257   9.069  10.957
20799SOL     OW64293   2.141  12.297   5.152
20799SOL    HW164294   2.135  12.341   5.237
20799SOL    HW264295   2.078  12.225   5.158
20800SOL     OW64296   5.346   8.665   1.791
20800SOL    HW164297   5.439   8.645   1.794
20800SOL    HW264298   5.339   8.756   1.819
20801SOL     OW64299   1.566   5.955   9.829
20801SOL    HW164300   1.555   5.944   9.924
20801SOL    HW264301   1.484   5.995   9.800
20802SOL     OW64302  14.674   3.355   4.040
20802SOL    HW164303  14.727   3.398   4.107
20802SOL    HW264304  14.592   3.404   4.039
20803SOL     OW64305  10.549   8.500  12.518
20803SOL    HW164306  10.470   8.447  12.507
20803SOL    HW264307  10.539   8.539  12.606
20804SOL     OW64308   2.027  12.632  10.628
20804SOL    HW164309   1.940  12.629  10.588
20804SOL    HW264310   2.084  12.588  10.565
20805SOL     OW64311   0.883   6.457  12.580
20805SOL    HW164312   0.956   6.406  12.544
20805SOL    HW264313   0.904   6.465  12.673
20806SOL     OW64314   4.509  13.734   5.408
20806SOL    HW164315   4.565  13.719   5.332
20806SOL    HW264316   4.521  13.655   5.462
20807SOL     OW64317   3.033   6.947   2.177
20807SOL    HW164318   3.001   6.979   2.261
20807SOL    HW264319   3.112   6.898   2.198
20808SOL     OW64320  14.085   6.564   7.363
20808SOL    HW164321  14.023   6.560   7.435
20808SOL    HW264322  14.037   6.603   7.291
20809SOL     OW64323  12.881  14.749  12.354
20809SOL    HW164324  12.883  14.736  12.259
20809SOL    HW264325  12.927  14.673  12.390
20810SOL     OW64326   6.641  12.679   5.407
20810SOL    HW164327   6.551  12.666   5.377
20810SOL    HW264328   6.669  12.760   5.364
20811SOL     OW64329  12.858  10.924  11.046
20811SOL    HW164330  12.803  10.914  10.968
20811SOL    HW264331  12.839  10.845  11.098
20812SOL     OW64332   9.356  13.917   6.825
20812SOL    HW164333   9.327  13.991   6.879
20812SOL    HW264334   9.280  13.860   6.822
20813SOL     OW64335   5.289   7.557   0.057
20813SOL    HW164336   5.264   7.508   0.136
20813SOL    HW264337   5.211   7.609   0.035
20814SOL     OW64338   1.977   2.435   7.409
20814SOL    HW164339   2.005   2.455   7.498
20814SOL    HW264340   1.909   2.500   7.390
20815SOL     OW64341  10.310   9.216   2.371
20815SOL    HW164342  10.230   9.252   2.410
20815SOL    HW264343  10.341   9.152   2.434
20816SOL     OW64344   4.084   5.763   3.416
20816SOL    HW164345   4.053   5.697   3.478
20816SOL    HW264346   4.077   5.845   3.464
20817SOL     OW64347   8.632   3.605  10.408
20817SOL    HW164348   8.662   3.545  10.340
20817SOL    HW264349   8.567   3.556  10.457
20818SOL     OW64350  10.927  12.908  10.767
20818SOL    HW164351  10.844  12.861  10.760
20818SOL    HW264352  10.994  12.841  10.754
20819SOL     OW64353   2.996   9.585   8.508
20819SOL    HW164354   2.909   9.597   8.469
20819SOL    HW264355   2.978   9.539   8.590
20820SOL     OW64356   2.329   5.489   7.983
20820SOL    HW164357   2.334   5.573   7.939
20820SOL    HW264358   2.254   5.497   8.042
20821SOL     OW64359   1.841   2.392   9.378
20821SOL    HW164360   1.861   2.317   9.321
20821SOL    HW264361   1.890   2.374   9.458
20822SOL     OW64362  12.372  10.858   8.704
20822SOL    HW164363  12.383  10.940   8.753
20822SOL    HW264364  12.279  10.854   8.684
20823SOL     OW64365  12.828   5.553  10.902
20823SOL    HW164366  12.830   5.648  10.913
20823SOL    HW264367  12.787   5.520  10.982
20824SOL     OW64368   4.529   1.494  13.547
20824SOL    HW164369   4.594   1.425  13.532
20824SOL    HW264370   4.580   1.574  13.555
20825SOL     OW64371   4.758   6.450   6.293
20825SOL    HW164372   4.749   6.465   6.199
20825SOL    HW264373   4.781   6.358   6.301
20826SOL     OW64374   6.353  11.230   7.733
20826SOL    HW164375   6.276  11.264   7.686
20826SOL    HW264376   6.384  11.305   7.784
20827SOL     OW64377   3.063   6.483   5.175
20827SOL    HW164378   3.106   6.398   5.177
20827SOL    HW264379   3.070   6.511   5.084
20828SOL     OW64380   5.760  10.351  12.802
20828SOL    HW164381   5.836  10.406  12.785
20828SOL    HW264382   5.759  10.287  12.730
20829SOL     OW64383  11.200   9.223  12.752
20829SOL    HW164384  11.227   9.213  12.661
20829SOL    HW264385  11.181   9.134  12.781
20830SOL     OW64386  11.599   3.503   2.402
20830SOL    HW164387  11.521   3.549   2.371
20830SOL    HW264388  11.670   3.537   2.348
20831SOL     OW64389   4.753   0.329   4.068
20831SOL    HW164390   4.819   0.327   4.138
20831SOL    HW264391   4.691   0.396   4.097
20832SOL     OW64392   7.631  10.824  12.488
20832SOL    HW164393   7.678  10.759  12.436
20832SOL    HW264394   7.558  10.775  12.526
20833SOL     OW64395  10.931  11.647  14.860
20833SOL    HW164396  11.007  11.593  14.879
20833SOL    HW264397  10.948  11.685  14.774
20834SOL     OW64398   7.215  12.562  13.170
20834SOL    HW164399   7.202  12.467  13.168
20834SOL    HW264400   7.194  12.591  13.081
20835SOL     OW64401   5.518   0.839  12.074
20835SOL    HW164402   5.592   0.891  12.104
20835SOL    HW264403   5.454   0.903  12.043
20836SOL     OW64404   1.564   5.948  11.563
20836SOL    HW164405   1.523   6.012  11.620
20836SOL    HW264406   1.597   5.880  11.622
20837SOL     OW64407   3.495   8.600   9.766
20837SOL    HW164408   3.545   8.556   9.696
20837SOL    HW264409   3.549   8.589   9.844
20838SOL     OW64410   5.139  13.527   7.258
20838SOL    HW164411   5.118  13.450   7.206
20838SOL    HW264412   5.131  13.497   7.349
20839SOL     OW64413   1.299  11.950   1.322
20839SOL    HW164414   1.349  11.869   1.324
20839SOL    HW264415   1.216  11.927   1.363
20840SOL     OW64416  12.484   1.440   1.029
20840SOL    HW164417  12.479   1.508   1.096
20840SOL    HW264418  12.572   1.405   1.036
20841SOL     OW64419  14.514  14.773  13.864
20841SOL    HW164420  14.595  14.768  13.914
20841SOL    HW264421  14.503  14.685  13.827
20842SOL     OW64422   2.225   8.563   1.817
20842SOL    HW164423   2.197   8.472   1.821
20842SOL    HW264424   2.178   8.599   1.742
20843SOL     OW64425   0.270  12.623   6.370
20843SOL    HW164426   0.280  12.677   6.449
20843SOL    HW264427   0.273  12.533   6.402
20844SOL     OW64428   8.212   5.997   3.645
20844SOL    HW164429   8.220   6.083   3.606
20844SOL    HW264430   8.234   6.010   3.738
20845SOL     OW64431   5.013   8.680   6.457
20845SOL    HW164432   5.095   8.630   6.460
20845SOL    HW264433   4.957   8.637   6.522
20846SOL     OW64434   1.103   4.383   0.882
20846SOL    HW164435   1.044   4.421   0.817
20846SOL    HW264436   1.191   4.398   0.847
20847SOL     OW64437   5.988   9.584  12.700
20847SOL    HW164438   6.054   9.637  12.746
20847SOL    HW264439   6.038   9.509  12.665
20848SOL     OW64440   6.824   5.068   3.423
20848SOL    HW164441   6.806   5.017   3.501
20848SOL    HW264442   6.764   5.143   3.430
20849SOL     OW64443   1.754  14.516   2.777
20849SOL    HW164444   1.662  14.539   2.792
20849SOL    HW264445   1.794  14.522   2.864
20850SOL     OW64446   8.465  10.192   6.261
20850SOL    HW164447   8.533  10.223   6.202
20850SOL    HW264448   8.407  10.139   6.206
20851SOL     OW64449  12.117  12.842   2.438
20851SOL    HW164450  12.048  12.837   2.372
20851SOL    HW264451  12.077  12.889   2.511
20852SOL     OW64452   6.439  11.318   6.785
20852SOL    HW164453   6.383  11.245   6.812
20852SOL    HW264454   6.524  11.300   6.823
20853SOL     OW64455   6.081  11.835   6.548
20853SOL    HW164456   6.016  11.861   6.613
20853SOL    HW264457   6.033  11.834   6.465
20854SOL     OW64458   5.256   5.813   8.866
20854SOL    HW164459   5.275   5.752   8.795
20854SOL    HW264460   5.169   5.846   8.846
20855SOL     OW64461  11.557   5.468   0.557
20855SOL    HW164462  11.557   5.553   0.600
20855SOL    HW264463  11.648   5.438   0.563
20856SOL     OW64464  11.282   8.500   4.326
20856SOL    HW164465  11.202   8.490   4.378
20856SOL    HW264466  11.348   8.530   4.389
20857SOL     OW64467   9.391   5.582  14.379
20857SOL    HW164468   9.315   5.543  14.336
20857SOL    HW264469   9.354   5.649  14.437
20858SOL     OW64470   2.960  11.788  12.705
20858SOL    HW164471   2.973  11.752  12.617
20858SOL    HW264472   2.865  11.794  12.715
20859SOL     OW64473   5.213   0.682   0.783
20859SOL    HW164474   5.196   0.727   0.700
20859SOL    HW264475   5.179   0.593   0.769
20860SOL     OW64476   7.729   4.433   2.317
20860SOL    HW164477   7.668   4.442   2.390
20860SOL    HW264478   7.784   4.359   2.341
20861SOL     OW64479  10.683   8.195   6.087
20861SOL    HW164480  10.732   8.221   6.008
20861SOL    HW264481  10.717   8.253   6.155
20862SOL     OW64482  12.362   3.493   2.658
20862SOL    HW164483  12.352   3.538   2.574
20862SOL    HW264484  12.435   3.538   2.700
20863SOL     OW64485   3.725   2.337   4.571
20863SOL    HW164486   3.790   2.406   4.587
20863SOL    HW264487   3.773   2.255   4.583
20864SOL     OW64488   8.058  14.711  10.147
20864SOL    HW164489   8.077  14.763  10.225
20864SOL    HW264490   7.968  14.682  10.158
20865SOL     OW64491   1.544   3.697   8.025
20865SOL    HW164492   1.575   3.683   7.935
20865SOL    HW264493   1.578   3.783   8.049
20866SOL     OW64494   8.079   9.160   5.514
20866SOL    HW164495   8.119   9.237   5.475
20866SOL    HW264496   8.023   9.124   5.445
20867SOL     OW64497   2.504   0.296   2.843
20867SOL    HW164498   2.428   0.238   2.840
20867SOL    HW264499   2.514   0.319   2.935
20868SOL     OW64500   8.076   7.381  10.003
20868SOL    HW164501   8.042   7.415   9.921
20868SOL    HW264502   8.071   7.285   9.993
20869SOL     OW64503   0.683   4.397   2.295
20869SOL    HW164504   0.611   4.442   2.251
20869SOL    HW264505   0.650   4.384   2.385
20870SOL     OW64506  11.963   9.386   5.420
20870SOL    HW164507  12.029   9.389   5.351
20870SOL    HW264508  12.010   9.409   5.500
20871SOL     OW64509   7.274   5.969   4.448
20871SOL    HW164510   7.196   5.989   4.396
20871SOL    HW264511   7.278   6.040   4.512
20872SOL     OW64512   2.818   4.511   0.574
20872SOL    HW164513   2.910   4.498   0.598
20872SOL    HW264514   2.787   4.582   0.630
20873SOL     OW64515   9.643   4.914   2.662
20873SOL    HW164516   9.576   4.982   2.670
20873SOL    HW264517   9.671   4.896   2.752
20874SOL     OW64518  10.427  14.262   8.038
20874SOL    HW164519  10.518  14.271   8.010
20874SOL    HW264520  10.433  14.230   8.128
20875SOL     OW64521   2.260   9.668  10.268
20875SOL    HW164522   2.354   9.675  10.254
20875SOL    HW264523   2.242   9.728  10.340
20876SOL     OW64524   2.416   1.069   5.329
20876SOL    HW164525   2.419   0.985   5.374
20876SOL    HW264526   2.333   1.067   5.281
20877SOL     OW64527   7.356   4.056   2.832
20877SOL    HW164528   7.353   4.091   2.921
20877SOL    HW264529   7.305   3.976   2.836
20878SOL     OW64530   5.169   7.760  10.679
20878SOL    HW164531   5.198   7.847  10.653
20878SOL    HW264532   5.121   7.727  10.603
20879SOL     OW64533   0.767   0.405  12.398
20879SOL    HW164534   0.805   0.490  12.378
20879SOL    HW264535   0.761   0.360  12.313
20880SOL     OW64536  10.444   1.171   4.088
20880SOL    HW164537  10.435   1.263   4.114
20880SOL    HW264538  10.530   1.145   4.121
20881SOL     OW64539   1.347   4.320   6.055
20881SOL    HW164540   1.289   4.342   6.128
20881SOL    HW264541   1.408   4.394   6.050
20882SOL     OW64542   5.242   0.648   0.473
20882SOL    HW164543   5.184   0.573   0.456
20882SOL    HW264544   5.310   0.641   0.406
20883SOL     OW64545   2.162   6.263   8.773
20883SOL    HW164546   2.132   6.352   8.753
20883SOL    HW264547   2.253   6.274   8.799
20884SOL     OW64548   9.208   3.732  11.607
20884SOL    HW164549   9.284   3.680  11.578
20884SOL    HW264550   9.164   3.676  11.671
20885SOL     OW64551  14.394   0.677   4.359
20885SOL    HW164552  14.457   0.699   4.290
20885SOL    HW264553  14.370   0.761   4.397
20886SOL     OW64554  11.826  11.729   1.355
20886SOL    HW164555  11.895  11.713   1.291
20886SOL    HW264556  11.747  11.693   1.316
20887SOL     OW64557  10.287   5.942   5.797
20887SOL    HW164558  10.321   5.861   5.761
20887SOL    HW264559  10.363   5.988   5.832
20888SOL     OW64560  13.916  13.042   3.423
20888SOL    HW164561  13.870  12.989   3.488
20888SOL    HW264562  13.847  13.093   3.380
20889SOL     OW64563   9.316  10.119  13.989
20889SOL    HW164564   9.382  10.063  13.948
20889SOL    HW264565   9.343  10.208  13.967
20890SOL     OW64566   3.986  14.574   7.325
20890SOL    HW164567   4.002  14.530   7.408
20890SOL    HW264568   3.986  14.503   7.260
20891SOL     OW64569   5.644   2.054  10.278
20891SOL    HW164570   5.738   2.039  10.289
20891SOL    HW264571   5.603   1.990  10.336
20892SOL     OW64572   0.113  13.575   2.032
20892SOL    HW164573   0.071  13.660   2.045
20892SOL    HW264574   0.093  13.552   1.942
20893SOL     OW64575   2.430   8.545  10.372
20893SOL    HW164576   2.342   8.510  10.356
20893SOL    HW264577   2.451   8.517  10.461
20894SOL     OW64578  13.844   0.403  10.718
20894SOL    HW164579  13.818   0.315  10.688
20894SOL    HW264580  13.852   0.454  10.638
20895SOL     OW64581   8.527   3.867  10.531
20895SOL    HW164582   8.584   3.798  10.496
20895SOL    HW264583   8.459   3.878  10.465
20896SOL     OW64584   1.746   2.924   5.470
20896SOL    HW164585   1.766   3.010   5.432
20896SOL    HW264586   1.654   2.909   5.447
20897SOL     OW64587  14.415   2.932   0.988
20897SOL    HW164588  14.350   2.863   0.998
20897SOL    HW264589  14.499   2.890   1.008
20898SOL     OW64590  11.993   5.376   5.423
20898SOL    HW164591  11.984   5.388   5.328
20898SOL    HW264592  12.055   5.445   5.450
20899SOL     OW64593   7.553   8.816   7.539
20899SOL    HW164594   7.481   8.877   7.522
20899SOL    HW264595   7.597   8.806   7.454
20900SOL     OW64596   4.569   8.760  10.693
20900SOL    HW164597   4.486   8.796  10.724
20900SOL    HW264598   4.591   8.691  10.755
20901SOL     OW64599   4.703   2.530  14.371
20901SOL    HW164600   4.636   2.489  14.424
20901SOL    HW264601   4.701   2.482  14.288
20902SOL     OW64602  14.022   0.952   9.264
20902SOL    HW164603  14.024   1.044   9.288
20902SOL    HW264604  13.984   0.951   9.176
20903SOL     OW64605   3.517  14.612   1.316
20903SOL    HW164606   3.569  14.539   1.350
20903SOL    HW264607   3.465  14.641   1.391
20904SOL     OW64608   4.894  11.760   1.557
20904SOL    HW164609   4.980  11.791   1.529
20904SOL    HW264610   4.899  11.761   1.652
20905SOL     OW64611   7.566  12.083  14.032
20905SOL    HW164612   7.616  12.100  14.112
20905SOL    HW264613   7.512  12.007  14.053
20906SOL     OW64614  12.216  13.836   4.133
20906SOL    HW164615  12.173  13.778   4.071
20906SOL    HW264616  12.144  13.877   4.182
20907SOL     OW64617  12.392   6.049  11.563
20907SOL    HW164618  12.348   6.117  11.615
20907SOL    HW264619  12.330   6.027  11.495
20908SOL     OW64620  11.004   1.037   6.288
20908SOL    HW164621  10.977   1.080   6.207
20908SOL    HW264622  11.020   0.946   6.262
20909SOL     OW64623  10.236  12.772  11.931
20909SOL    HW164624  10.260  12.798  11.842
20909SOL    HW264625  10.303  12.811  11.987
20910SOL     OW64626  11.468   9.212  10.000
20910SOL    HW164627  11.420   9.129   9.992
20910SOL    HW264628  11.560   9.188   9.988
20911SOL     OW64629   2.669   9.467   5.654
20911SOL    HW164630   2.610   9.432   5.720
20911SOL    HW264631   2.617   9.535   5.610
20912SOL     OW64632  11.479  10.142  11.901
20912SOL    HW164633  11.427  10.222  11.905
20912SOL    HW264634  11.561  10.168  11.860
20913SOL     OW64635   4.737   4.445  13.312
20913SOL    HW164636   4.820   4.440  13.360
20913SOL    HW264637   4.671   4.418  13.375
20914SOL     OW64638   5.699  14.044   3.906
20914SOL    HW164639   5.648  14.000   3.975
20914SOL    HW264640   5.653  14.022   3.825
20915SOL     OW64641   8.132   2.766   5.998
20915SOL    HW164642   8.180   2.787   5.918
20915SOL    HW264643   8.196   2.780   6.068
20916SOL     OW64644   3.495  11.505  11.733
20916SOL    HW164645   3.570  11.538  11.685
20916SOL    HW264646   3.515  11.412  11.749
20917SOL     OW64647  12.369   4.198  13.204
20917SOL    HW164648  12.417   4.138  13.147
20917SOL    HW264649  12.427   4.211  13.280
20918SOL     OW64650   1.335  10.869  10.461
20918SOL    HW164651   1.389  10.942  10.431
20918SOL    HW264652   1.397  10.806  10.498
20919SOL     OW64653   1.965   6.523  11.816
20919SOL    HW164654   2.003   6.609  11.801
20919SOL    HW264655   1.876   6.529  11.782
20920SOL     OW64656  11.524   1.871   8.142
20920SOL    HW164657  11.544   1.833   8.056
20920SOL    HW264658  11.493   1.797   8.194
20921SOL     OW64659  11.910   0.323   4.414
20921SOL    HW164660  11.970   0.256   4.448
20921SOL    HW264661  11.898   0.384   4.487
20922SOL     OW64662  13.686   0.168  13.619
20922SOL    HW164663  13.663   0.080  13.590
20922SOL    HW264664  13.726   0.209  13.542
20923SOL     OW64665  11.741   5.079   3.930
20923SOL    HW164666  11.680   5.082   3.856
20923SOL    HW264667  11.686   5.070   4.007
20924SOL     OW64668   3.242  14.761  14.784
20924SOL    HW164669   3.243  14.838  14.841
20924SOL    HW264670   3.255  14.687  14.844
20925SOL     OW64671  14.337   0.760   6.382
20925SOL    HW164672  14.308   0.793   6.298
20925SOL    HW264673  14.257   0.728   6.425
20926SOL     OW64674   1.513  12.547   7.952
20926SOL    HW164675   1.437  12.574   8.004
20926SOL    HW264676   1.511  12.451   7.956
20927SOL     OW64677   8.526   0.753   5.572
20927SOL    HW164678   8.436   0.772   5.597
20927SOL    HW264679   8.525   0.753   5.476
20928SOL     OW64680   4.677   6.996  13.549
20928SOL    HW164681   4.753   6.989  13.491
20928SOL    HW264682   4.601   6.991  13.491
20929SOL     OW64683   5.206   6.701  12.808
20929SOL    HW164684   5.164   6.721  12.725
20929SOL    HW264685   5.213   6.785  12.853
20930SOL     OW64686  10.621   9.735  14.575
20930SOL    HW164687  10.563   9.673  14.617
20930SOL    HW264688  10.641   9.697  14.490
20931SOL     OW64689   1.438   1.710   0.775
20931SOL    HW164690   1.520   1.727   0.823
20931SOL    HW264691   1.426   1.615   0.783
20932SOL     OW64692   6.371   3.582   5.411
20932SOL    HW164693   6.290   3.531   5.401
20932SOL    HW264694   6.346   3.657   5.464
20933SOL     OW64695   8.711   0.916   4.602
20933SOL    HW164696   8.806   0.912   4.594
20933SOL    HW264697   8.681   0.956   4.521
20934SOL     OW64698   2.574  12.466  12.436
20934SOL    HW164699   2.565  12.456  12.531
20934SOL    HW264700   2.508  12.531  12.413
20935SOL     OW64701  12.100  10.937   1.996
20935SOL    HW164702  12.114  10.846   1.969
20935SOL    HW264703  12.076  10.930   2.089
20936SOL     OW64704   2.365   4.965   3.668
20936SOL    HW164705   2.303   4.897   3.694
20936SOL    HW264706   2.390   4.941   3.578
20937SOL     OW64707   6.025   9.190   0.979
20937SOL    HW164708   6.107   9.199   1.028
20937SOL    HW264709   5.991   9.104   1.004
20938SOL     OW64710   2.595   5.262   4.507
20938SOL    HW164711   2.665   5.205   4.476
20938SOL    HW264712   2.538   5.204   4.558
20939SOL     OW64713  13.722   2.235  13.170
20939SOL    HW164714  13.789   2.176  13.137
20939SOL    HW264715  13.658   2.178  13.213
20940SOL     OW64716   4.932   5.695  10.857
20940SOL    HW164717   4.883   5.630  10.807
20940SOL    HW264718   4.968   5.754  10.791
20941SOL     OW64719  10.125   3.022   1.113
20941SOL    HW164720  10.148   2.961   1.183
20941SOL    HW264721  10.037   2.995   1.086
20942SOL     OW64722   0.500  12.929   2.216
20942SOL    HW164723   0.426  12.930   2.155
20942SOL    HW264724   0.465  12.888   2.295
20943SOL     OW64725   3.209   7.188  13.659
20943SOL    HW164726   3.264   7.252  13.613
20943SOL    HW264727   3.254   7.174  13.743
20944SOL     OW64728  10.152   9.598  14.514
20944SOL    HW164729  10.068   9.642  14.499
20944SOL    HW264730  10.130   9.517  14.560
20945SOL     OW64731   8.026  10.875   9.405
20945SOL    HW164732   8.085  10.842   9.338
20945SOL    HW264733   8.043  10.969   9.409
20946SOL     OW64734  13.767   4.617   9.753
20946SOL    HW164735  13.838   4.617   9.818
20946SOL    HW264736  13.745   4.524   9.743
20947SOL     OW64737  13.663   2.145   0.541
20947SOL    HW164738  13.691   2.164   0.451
20947SOL    HW264739  13.741   2.163   0.594
20948SOL     OW64740   9.560   9.356   1.289
20948SOL    HW164741   9.502   9.368   1.364
20948SOL    HW264742   9.555   9.262   1.270
20949SOL     OW64743   8.905   0.977  10.218
20949SOL    HW164744   8.988   0.930  10.204
20949SOL    HW264745   8.931   1.069  10.221
20950SOL     OW64746   7.533   0.884  14.269
20950SOL    HW164747   7.546   0.806  14.215
20950SOL    HW264748   7.601   0.878  14.336
20951SOL     OW64749  10.137  11.668   8.792
20951SOL    HW164750  10.103  11.627   8.713
20951SOL    HW264751  10.203  11.607   8.825
20952SOL     OW64752   0.932   2.603   4.706
20952SOL    HW164753   0.939   2.657   4.628
20952SOL    HW264754   1.020   2.567   4.718
20953SOL     OW64755  14.207   7.356  12.587
20953SOL    HW164756  14.269   7.298  12.631
20953SOL    HW264757  14.142   7.297  12.550
20954SOL     OW64758   7.010  14.437   7.389
20954SOL    HW164759   7.053  14.522   7.402
20954SOL    HW264760   6.971  14.417   7.474
20955SOL     OW64761  13.740   5.083   0.537
20955SOL    HW164762  13.753   5.171   0.501
20955SOL    HW264763  13.806   5.075   0.606
20956SOL     OW64764   1.422  12.809   4.999
20956SOL    HW164765   1.377  12.862   5.065
20956SOL    HW264766   1.485  12.757   5.049
20957SOL     OW64767   1.466   5.910   6.172
20957SOL    HW164768   1.452   5.815   6.166
20957SOL    HW264769   1.410   5.946   6.103
20958SOL     OW64770   5.755   3.739   7.782
20958SOL    HW164771   5.818   3.679   7.822
20958SOL    HW264772   5.742   3.807   7.848
20959SOL     OW64773   5.072   3.223   4.820
20959SOL    HW164774   4.996   3.281   4.817
20959SOL    HW264775   5.036   3.137   4.839
20960SOL     OW64776  14.130   4.936   7.517
20960SOL    HW164777  14.207   4.953   7.571
20960SOL    HW264778  14.063   4.994   7.552
20961SOL     OW64779   7.649   5.840  11.865
20961SOL    HW164780   7.650   5.883  11.779
20961SOL    HW264781   7.622   5.750  11.846
20962SOL     OW64782   5.760   3.219  12.160
20962SOL    HW164783   5.685   3.161  12.170
20962SOL    HW264784   5.806   3.185  12.083
20963SOL     OW64785   2.812  10.063  12.658
20963SOL    HW164786   2.749  10.133  12.676
20963SOL    HW264787   2.821  10.063  12.562
20964SOL     OW64788   5.687   6.694   5.544
20964SOL    HW164789   5.704   6.761   5.610
20964SOL    HW264790   5.685   6.612   5.593
20965SOL     OW64791  13.611   6.713   3.784
20965SOL    HW164792  13.639   6.644   3.844
20965SOL    HW264793  13.684   6.725   3.723
20966SOL     OW64794   5.052  11.884   8.503
20966SOL    HW164795   5.073  11.890   8.410
20966SOL    HW264796   5.072  11.971   8.538
20967SOL     OW64797  13.856   7.241   9.547
20967SOL    HW164798  13.784   7.194   9.505
20967SOL    HW264799  13.835   7.334   9.536
20968SOL     OW64800  13.379  12.621   4.659
20968SOL    HW164801  13.289  12.617   4.693
20968SOL    HW264802  13.421  12.688   4.711
20969SOL     OW64803  10.226   3.529   8.682
20969SOL    HW164804  10.199   3.512   8.592
20969SOL    HW264805  10.318   3.503   8.685
20970SOL     OW64806  10.206   3.009   1.715
20970SOL    HW164807  10.298   2.992   1.735
20970SOL    HW264808  10.181   2.937   1.658
20971SOL     OW64809  13.505   5.067  14.489
20971SOL    HW164810  13.564   5.002  14.527
20971SOL    HW264811  13.465   5.111  14.564
20972SOL     OW64812  10.509   1.309  13.469
20972SOL    HW164813  10.533   1.256  13.392
20972SOL    HW264814  10.446   1.256  13.516
20973SOL     OW64815  14.273   2.300  13.793
20973SOL    HW164816  14.257   2.375  13.850
20973SOL    HW264817  14.210   2.311  13.721
20974SOL     OW64818   2.691   3.342  14.158
20974SOL    HW164819   2.688   3.254  14.195
20974SOL    HW264820   2.683   3.401  14.233
20975SOL     OW64821  10.508  11.731   8.078
20975SOL    HW164822  10.494  11.780   7.997
20975SOL    HW264823  10.422  11.726   8.118
20976SOL     OW64824   4.499   5.975   5.461
20976SOL    HW164825   4.570   6.036   5.477
20976SOL    HW264826   4.543   5.896   5.429
20977SOL     OW64827   9.767  11.496  13.571
20977SOL    HW164828   9.734  11.429  13.631
20977SOL    HW264829   9.850  11.524  13.609
20978SOL     OW64830  12.197   1.651  13.353
20978SOL    HW164831  12.186   1.660  13.259
20978SOL    HW264832  12.291   1.662  13.368
20979SOL     OW64833  14.680   9.354  12.125
20979SOL    HW164834  14.761   9.398  12.151
20979SOL    HW264835  14.680   9.358  12.030
20980SOL     OW64836  11.431   0.010   3.645
20980SOL    HW164837  11.497  14.824   3.665
20980SOL    HW264838  11.404   0.044   3.731
20981SOL     OW64839   1.904   2.782   6.633
20981SOL    HW164840   1.914   2.687   6.621
20981SOL    HW264841   1.871   2.813   6.548
20982SOL     OW64842   7.828  14.427   1.075
20982SOL    HW164843   7.854  14.513   1.041
20982SOL    HW264844   7.733  14.427   1.072
20983SOL     OW64845   5.137   8.845  11.912
20983SOL    HW164846   5.219   8.817  11.952
20983SOL    HW264847   5.144   8.815  11.821
20984SOL     OW64848  13.297   6.633  14.200
20984SOL    HW164849  13.271   6.611  14.111
20984SOL    HW264850  13.280   6.728  14.206
20985SOL     OW64851   8.295   4.795   5.317
20985SOL    HW164852   8.209   4.785   5.277
20985SOL    HW264853   8.342   4.855   5.260
20986SOL     OW64854   3.037   5.147   7.158
20986SOL    HW164855   2.993   5.232   7.154
20986SOL    HW264856   3.096   5.154   7.233
20987SOL     OW64857   2.783   5.493  14.466
20987SOL    HW164858   2.765   5.470  14.557
20987SOL    HW264859   2.828   5.578  14.471
20988SOL     OW64860   1.501   9.815   3.871
20988SOL    HW164861   1.460   9.733   3.840
20988SOL    HW264862   1.489   9.813   3.966
20989SOL     OW64863   1.032   5.421   7.758
20989SOL    HW164864   0.967   5.491   7.767
20989SOL    HW264865   0.993   5.345   7.801
20990SOL     OW64866   4.762   6.478   6.571
20990SOL    HW164867   4.750   6.446   6.481
20990SOL    HW264868   4.847   6.522   6.570
20991SOL     OW64869  10.086  14.014  10.038
20991SOL    HW164870  10.139  13.935  10.022
20991SOL    HW264871  10.124  14.081   9.981
20992SOL     OW64872   6.733   0.184   7.033
20992SOL    HW164873   6.780   0.204   7.114
20992SOL    HW264874   6.797   0.200   6.964
20993SOL     OW64875   2.846   3.337  13.471
20993SOL    HW164876   2.813   3.348  13.561
20993SOL    HW264877   2.936   3.305  13.483
20994SOL     OW64878   4.165  11.002   5.726
20994SOL    HW164879   4.207  11.088   5.734
20994SOL    HW264880   4.082  11.012   5.772
20995SOL     OW64881   2.385   3.204   9.427
20995SOL    HW164882   2.399   3.111   9.409
20995SOL    HW264883   2.289   3.212   9.435
20996SOL     OW64884  10.849  10.256   8.554
20996SOL    HW164885  10.875  10.178   8.505
20996SOL    HW264886  10.754  10.259   8.545
20997SOL     OW64887  12.287  10.699   4.350
20997SOL    HW164888  12.199  10.710   4.313
20997SOL    HW264889  12.346  10.716   4.276
20998SOL     OW64890   1.841  11.201   8.046
20998SOL    HW164891   1.811  11.250   8.122
20998SOL    HW264892   1.880  11.121   8.082
20999SOL     OW64893  11.100   4.412  11.695
20999SOL    HW164894  11.135   4.498  11.716
20999SOL    HW264895  11.080   4.372  11.780
21000SOL     OW64896   3.792  13.070   4.757
21000SOL    HW164897   3.847  13.095   4.832
21000SOL    HW264898   3.821  12.982   4.734
21001SOL     OW64899   2.975  12.521  11.106
21001SOL    HW164900   2.989  12.555  11.017
21001SOL    HW264901   3.019  12.585  11.163
21002SOL     OW64902   2.358   4.616   3.749
21002SOL    HW164903   2.285   4.641   3.692
21002SOL    HW264904   2.316   4.591   3.832
21003SOL     OW64905   1.438   2.188   1.013
21003SOL    HW164906   1.527   2.224   1.009
21003SOL    HW264907   1.383   2.264   1.033
21004SOL     OW64908   4.364   4.405   9.922
21004SOL    HW164909   4.328   4.317   9.936
21004SOL    HW264910   4.331   4.430   9.836
21005SOL     OW64911   5.876   5.697   9.639
21005SOL    HW164912   5.804   5.643   9.674
21005SOL    HW264913   5.848   5.719   9.550
21006SOL     OW64914  13.624  13.383   3.524
21006SOL    HW164915  13.546  13.435   3.545
21006SOL    HW264916  13.660  13.360   3.610
21007SOL     OW64917  12.603   8.963  13.463
21007SOL    HW164918  12.620   8.879  13.421
21007SOL    HW264919  12.588   8.942  13.555
21008SOL     OW64920  11.277   7.432   1.774
21008SOL    HW164921  11.351   7.492   1.772
21008SOL    HW264922  11.316   7.346   1.756
21009SOL     OW64923  10.911  10.851  12.582
21009SOL    HW164924  10.890  10.794  12.656
21009SOL    HW264925  10.829  10.899  12.565
21010SOL     OW64926   9.029  14.164   0.400
21010SOL    HW164927   9.086  14.150   0.476
21010SOL    HW264928   9.083  14.211   0.337
21011SOL     OW64929   1.832  13.352  13.121
21011SOL    HW164930   1.796  13.281  13.174
21011SOL    HW264931   1.847  13.423  13.183
21012SOL     OW64932  12.391  12.535  10.721
21012SOL    HW164933  12.341  12.485  10.786
21012SOL    HW264934  12.324  12.579  10.669
21013SOL     OW64935   1.871   9.092   5.112
21013SOL    HW164936   1.812   9.068   5.183
21013SOL    HW264937   1.814   9.130   5.045
21014SOL     OW64938   9.855   1.384  10.333
21014SOL    HW164939   9.845   1.376  10.428
21014SOL    HW264940   9.777   1.431  10.304
21015SOL     OW64941  12.628   6.023   5.078
21015SOL    HW164942  12.539   5.988   5.086
21015SOL    HW264943  12.681   5.949   5.050
21016SOL     OW64944   2.271  13.834   1.193
21016SOL    HW164945   2.332  13.805   1.261
21016SOL    HW264946   2.188  13.846   1.238
21017SOL     OW64947   0.042   0.761   7.875
21017SOL    HW164948   0.098   0.833   7.905
21017SOL    HW264949  14.841   0.804   7.847
21018SOL     OW64950   8.648   9.122   8.253
21018SOL    HW164951   8.677   9.037   8.286
21018SOL    HW264952   8.707   9.185   8.294
21019SOL     OW64953   8.211  11.031   4.037
21019SOL    HW164954   8.238  10.941   4.018
21019SOL    HW264955   8.219  11.039   4.132
21020SOL     OW64956  12.216  12.120   5.555
21020SOL    HW164957  12.183  12.203   5.589
21020SOL    HW264958  12.142  12.060   5.564
21021SOL     OW64959   8.258  12.161   5.130
21021SOL    HW164960   8.235  12.253   5.114
21021SOL    HW264961   8.248  12.118   5.045
21022SOL     OW64962   3.780   6.924   8.954
21022SOL    HW164963   3.710   6.987   8.969
21022SOL    HW264964   3.860   6.977   8.954
21023SOL     OW64965  14.400   1.232  12.552
21023SOL    HW164966  14.414   1.325  12.532
21023SOL    HW264967  14.482   1.189  12.529
21024SOL     OW64968   0.997   7.006  13.777
21024SOL    HW164969   1.079   6.964  13.803
21024SOL    HW264970   1.012   7.031  13.685
21025SOL     OW64971   7.349   9.470   1.727
21025SOL    HW164972   7.299   9.548   1.749
21025SOL    HW264973   7.441   9.496   1.737
21026SOL     OW64974  13.167   8.640   3.555
21026SOL    HW164975  13.171   8.690   3.474
21026SOL    HW264976  13.210   8.695   3.620
21027SOL     OW64977   4.582   7.842   3.480
21027SOL    HW164978   4.518   7.809   3.417
21027SOL    HW264979   4.533   7.901   3.537
21028SOL     OW64980  11.983  12.724   3.867
21028SOL    HW164981  12.008  12.662   3.935
21028SOL    HW264982  11.972  12.671   3.788
21029SOL     OW64983   5.713   9.615  10.317
21029SOL    HW164984   5.697   9.683  10.382
21029SOL    HW264985   5.743   9.539  10.368
21030SOL     OW64986   2.170   8.880   7.195
21030SOL    HW164987   2.223   8.954   7.225
21030SOL    HW264988   2.085   8.893   7.237
21031SOL     OW64989   8.503   9.283  14.680
21031SOL    HW164990   8.455   9.207  14.650
21031SOL    HW264991   8.536   9.325  14.600
21032SOL     OW64992   7.502  12.906   8.030
21032SOL    HW164993   7.448  12.910   7.951
21032SOL    HW264994   7.470  12.828   8.076
21033SOL     OW64995   8.090  11.433   7.749
21033SOL    HW164996   8.002  11.415   7.780
21033SOL    HW264997   8.093  11.528   7.735
21034SOL     OW64998   3.801   5.967   7.726
21034SOL    HW164999   3.884   5.938   7.765
21034SOL    HW265000   3.812   5.950   7.632
21035SOL     OW65001  14.858  11.895   2.286
21035SOL    HW165002   0.058  11.850   2.258
21035SOL    HW265003  14.792  11.872   2.221
21036SOL     OW65004   3.120   6.516  12.507
21036SOL    HW165005   3.050   6.501  12.570
21036SOL    HW265006   3.103   6.604  12.472
21037SOL     OW65007  11.894  13.815  10.033
21037SOL    HW165008  11.977  13.838  10.074
21037SOL    HW265009  11.871  13.730  10.072
21038SOL     OW65010   7.350   2.519  14.416
21038SOL    HW165011   7.444   2.501  14.412
21038SOL    HW265012   7.310   2.450  14.362
21039SOL     OW65013   2.274  12.579   3.809
21039SOL    HW165014   2.279  12.667   3.772
21039SOL    HW265015   2.218  12.531   3.749
21040SOL     OW65016  11.952   5.419   4.606
21040SOL    HW165017  11.921   5.383   4.689
21040SOL    HW265018  11.910   5.365   4.539
21041SOL     OW65019   3.937   8.212   4.672
21041SOL    HW165020   3.906   8.299   4.697
21041SOL    HW265021   3.953   8.168   4.756
21042SOL     OW65022  14.096   3.285   8.999
21042SOL    HW165023  14.032   3.236   8.946
21042SOL    HW265024  14.173   3.229   9.000
21043SOL     OW65025   3.271  10.521   4.174
21043SOL    HW165026   3.202  10.461   4.201
21043SOL    HW265027   3.230  10.580   4.112
21044SOL     OW65028   1.130   4.765  10.438
21044SOL    HW165029   1.174   4.708  10.376
21044SOL    HW265030   1.147   4.725  10.524
21045SOL     OW65031   8.452  11.515   6.122
21045SOL    HW165032   8.391  11.583   6.093
21045SOL    HW265033   8.505  11.496   6.044
21046SOL     OW65034   9.728   2.631  13.433
21046SOL    HW165035   9.753   2.557  13.489
21046SOL    HW265036   9.795   2.633  13.364
21047SOL     OW65037   1.161   9.527  12.690
21047SOL    HW165038   1.093   9.592  12.674
21047SOL    HW265039   1.222   9.569  12.751
21048SOL     OW65040   9.201   1.598   2.039
21048SOL    HW165041   9.229   1.683   2.004
21048SOL    HW265042   9.107   1.596   2.022
21049SOL     OW65043   8.606   0.951   4.284
21049SOL    HW165044   8.661   0.875   4.306
21049SOL    HW265045   8.533   0.914   4.236
21050SOL     OW65046  13.572   1.411   5.189
21050SOL    HW165047  13.486   1.402   5.147
21050SOL    HW265048  13.600   1.320   5.204
21051SOL     OW65049   8.754   3.789   7.774
21051SOL    HW165050   8.748   3.712   7.717
21051SOL    HW265051   8.832   3.836   7.743
21052SOL     OW65052   8.993   1.737   2.406
21052SOL    HW165053   9.083   1.771   2.408
21052SOL    HW265054   9.000   1.652   2.450
21053SOL     OW65055  12.579  10.328   3.801
21053SOL    HW165056  12.654  10.299   3.853
21053SOL    HW265057  12.512  10.261   3.817
21054SOL     OW65058   6.658  11.708   2.458
21054SOL    HW165059   6.718  11.774   2.422
21054SOL    HW265060   6.620  11.665   2.381
21055SOL     OW65061  13.238   2.261   9.679
21055SOL    HW165062  13.234   2.343   9.629
21055SOL    HW265063  13.309   2.212   9.639
21056SOL     OW65064   7.277  10.659  10.468
21056SOL    HW165065   7.311  10.704  10.390
21056SOL    HW265066   7.319  10.573  10.466
21057SOL     OW65067   8.951   4.800   4.808
21057SOL    HW165068   8.960   4.872   4.870
21057SOL    HW265069   8.869   4.819   4.761
21058SOL     OW65070  13.269   9.721  11.331
21058SOL    HW165071  13.327   9.789  11.296
21058SOL    HW265072  13.181   9.756  11.321
21059SOL     OW65073   5.430   2.376   7.001
21059SOL    HW165074   5.524   2.371   6.988
21059SOL    HW265075   5.399   2.435   6.933
21060SOL     OW65076   3.420  13.714   9.271
21060SOL    HW165077   3.446  13.644   9.212
21060SOL    HW265078   3.373  13.670   9.342
21061SOL     OW65079   5.648  11.756  10.622
21061SOL    HW165080   5.561  11.780  10.590
21061SOL    HW265081   5.647  11.782  10.714
21062SOL     OW65082   6.356  11.803   1.232
21062SOL    HW165083   6.281  11.777   1.179
21062SOL    HW265084   6.429  11.804   1.170
21063SOL     OW65085  11.104   1.731   3.501
21063SOL    HW165086  11.120   1.702   3.411
21063SOL    HW265087  11.190   1.756   3.534
21064SOL     OW65088   9.747   1.925  12.093
21064SOL    HW165089   9.678   1.863  12.118
21064SOL    HW265090   9.702   1.991  12.040
21065SOL     OW65091   8.759   4.412   2.212
21065SOL    HW165092   8.715   4.467   2.148
21065SOL    HW265093   8.851   4.413   2.185
21066SOL     OW65094  12.944  13.660   2.444
21066SOL    HW165095  12.892  13.630   2.518
21066SOL    HW265096  13.034  13.639   2.468
21067SOL     OW65097   3.162   6.869   4.578
21067SOL    HW165098   3.070   6.869   4.604
21067SOL    HW265099   3.206   6.815   4.644
21068SOL     OW65100  12.909   8.617   1.210
21068SOL    HW165101  12.816   8.631   1.228
21068SOL    HW265102  12.934   8.689   1.152
21069SOL     OW65103   4.680   6.842   0.942
21069SOL    HW165104   4.657   6.900   0.870
21069SOL    HW265105   4.740   6.778   0.904
21070SOL     OW65106  11.664   0.477  11.118
21070SOL    HW165107  11.571   0.498  11.108
21070SOL    HW265108  11.709   0.561  11.105
21071SOL     OW65109  12.610  14.422   1.999
21071SOL    HW165110  12.679  14.474   2.041
21071SOL    HW265111  12.657  14.364   1.939
21072SOL     OW65112   3.261   4.502   0.242
21072SOL    HW165113   3.350   4.489   0.209
21072SOL    HW265114   3.263   4.587   0.285
21073SOL     OW65115   5.431  10.852  10.454
21073SOL    HW165116   5.408  10.759  10.442
21073SOL    HW265117   5.432  10.864  10.549
21074SOL     OW65118   2.844   7.177   5.094
21074SOL    HW165119   2.890   7.103   5.055
21074SOL    HW265120   2.872   7.253   5.043
21075SOL     OW65121  11.541   3.526  10.041
21075SOL    HW165122  11.467   3.495   9.990
21075SOL    HW265123  11.617   3.513   9.984
21076SOL     OW65124   8.990   3.052  14.030
21076SOL    HW165125   9.069   3.071  13.979
21076SOL    HW265126   9.014   2.978  14.085
21077SOL     OW65127   3.378  11.107   7.728
21077SOL    HW165128   3.298  11.056   7.739
21077SOL    HW265129   3.441  11.064   7.787
21078SOL     OW65130   6.800  10.779   1.350
21078SOL    HW165131   6.727  10.776   1.412
21078SOL    HW265132   6.862  10.841   1.388
21079SOL     OW65133   0.599  12.212  12.803
21079SOL    HW165134   0.558  12.286  12.758
21079SOL    HW265135   0.581  12.228  12.896
21080SOL     OW65136   7.737  12.489   7.629
21080SOL    HW165137   7.707  12.556   7.690
21080SOL    HW265138   7.814  12.528   7.588
21081SOL     OW65139   8.943   0.227  11.551
21081SOL    HW165140   9.028   0.223  11.508
21081SOL    HW265141   8.880   0.215  11.480
21082SOL     OW65142   3.831   8.556  12.325
21082SOL    HW165143   3.850   8.488  12.389
21082SOL    HW265144   3.849   8.515  12.240
21083SOL     OW65145   0.863   0.168   6.359
21083SOL    HW165146   0.850   0.100   6.292
21083SOL    HW265147   0.883   0.247   6.309
21084SOL     OW65148   2.463   2.497   1.130
21084SOL    HW165149   2.498   2.439   1.198
21084SOL    HW265150   2.433   2.438   1.061
21085SOL     OW65151   2.117   9.249   0.835
21085SOL    HW165152   2.207   9.228   0.861
21085SOL    HW265153   2.125   9.331   0.786
21086SOL     OW65154   9.015   1.976   7.079
21086SOL    HW165155   8.920   1.968   7.071
21086SOL    HW265156   9.039   2.042   7.014
21087SOL     OW65157   4.815   8.765   1.612
21087SOL    HW165158   4.815   8.691   1.674
21087SOL    HW265159   4.737   8.815   1.636
21088SOL     OW65160   5.448   3.084  11.325
21088SOL    HW165161   5.352   3.080  11.332
21088SOL    HW265162   5.477   2.997  11.352
21089SOL     OW65163  13.541   9.231  12.287
21089SOL    HW165164  13.599   9.296  12.247
21089SOL    HW265165  13.547   9.247  12.381
21090SOL     OW65166   3.200   4.968  10.761
21090SOL    HW165167   3.281   4.921  10.782
21090SOL    HW265168   3.219   5.059  10.783
21091SOL     OW65169  10.876   4.900  14.609
21091SOL    HW165170  10.809   4.852  14.559
21091SOL    HW265171  10.894   4.978  14.557
21092SOL     OW65172   5.704  14.104   1.570
21092SOL    HW165173   5.777  14.086   1.510
21092SOL    HW265174   5.741  14.164   1.635
21093SOL     OW65175  14.080   0.140   5.631
21093SOL    HW165176  14.034   0.215   5.595
21093SOL    HW265177  14.167   0.144   5.592
21094SOL     OW65178  13.028  11.863  12.648
21094SOL    HW165179  12.999  11.921  12.577
21094SOL    HW265180  12.964  11.792  12.647
21095SOL     OW65181   2.480   1.674   7.738
21095SOL    HW165182   2.468   1.715   7.824
21095SOL    HW265183   2.534   1.736   7.689
21096SOL     OW65184  14.778   2.149   4.807
21096SOL    HW165185  14.740   2.231   4.840
21096SOL    HW265186  14.736   2.136   4.722
21097SOL     OW65187   5.306  14.627   3.521
21097SOL    HW165188   5.392  14.585   3.518
21097SOL    HW265189   5.320  14.712   3.479
21098SOL     OW65190  12.275   6.573  13.667
21098SOL    HW165191  12.353   6.570  13.723
21098SOL    HW265192  12.260   6.667  13.652
21099SOL     OW65193   2.203  13.477  12.750
21099SOL    HW165194   2.232  13.390  12.721
21099SOL    HW265195   2.171  13.463  12.839
21100SOL     OW65196   8.569  12.830   8.471
21100SOL    HW165197   8.582  12.890   8.397
21100SOL    HW265198   8.503  12.872   8.525
21101SOL     OW65199  14.566   0.222   0.766
21101SOL    HW165200  14.626   0.251   0.697
21101SOL    HW265201  14.611   0.147   0.807
21102SOL     OW65202   5.325   9.470   5.915
21102SOL    HW165203   5.288   9.421   5.988
21102SOL    HW265204   5.248   9.498   5.864
21103SOL     OW65205   9.989   0.263   2.036
21103SOL    HW165206  10.031   0.282   1.952
21103SOL    HW265207   9.995   0.345   2.085
21104SOL     OW65208   1.355  10.931   0.364
21104SOL    HW165209   1.357  11.020   0.400
21104SOL    HW265210   1.315  10.878   0.433
21105SOL     OW65211   2.471  10.509   0.929
21105SOL    HW165212   2.549  10.490   0.981
21105SOL    HW265213   2.496  10.583   0.873
21106SOL     OW65214  10.003   8.925   6.603
21106SOL    HW165215  10.061   8.849   6.599
21106SOL    HW265216   9.932   8.898   6.661
21107SOL     OW65217   4.725   2.591   5.006
21107SOL    HW165218   4.816   2.574   4.983
21107SOL    HW265219   4.708   2.680   4.974
21108SOL     OW65220   6.679   4.125  12.349
21108SOL    HW165221   6.701   4.218  12.358
21108SOL    HW265222   6.655   4.115  12.257
21109SOL     OW65223   5.161  10.511   3.969
21109SOL    HW165224   5.224  10.557   3.915
21109SOL    HW265225   5.104  10.465   3.907
21110SOL     OW65226   9.095   6.058   7.299
21110SOL    HW165227   9.021   6.111   7.272
21110SOL    HW265228   9.170   6.116   7.295
21111SOL     OW65229   0.194   9.612   1.337
21111SOL    HW165230   0.238   9.695   1.320
21111SOL    HW265231   0.144   9.628   1.417
21112SOL     OW65232  10.925   9.892   8.812
21112SOL    HW165233  10.893   9.966   8.863
21112SOL    HW265234  10.847   9.855   8.771
21113SOL     OW65235   1.131   9.992  13.085
21113SOL    HW165236   1.179   9.909  13.094
21113SOL    HW265237   1.200  10.058  13.081
21114SOL     OW65238   0.286  11.141   1.385
21114SOL    HW165239   0.233  11.080   1.436
21114SOL    HW265240   0.376  11.114   1.402
21115SOL     OW65241   7.035   5.124  13.795
21115SOL    HW165242   7.105   5.103  13.857
21115SOL    HW265243   7.080   5.166  13.722
21116SOL     OW65244   9.517   3.239  10.329
21116SOL    HW165245   9.543   3.152  10.359
21116SOL    HW265246   9.599   3.281  10.303
21117SOL     OW65247  14.125  13.817   9.977
21117SOL    HW165248  14.082  13.893   9.935
21117SOL    HW265249  14.162  13.852  10.058
21118SOL     OW65250   7.508   0.744   1.598
21118SOL    HW165251   7.427   0.713   1.640
21118SOL    HW265252   7.530   0.824   1.646
21119SOL     OW65253   2.572  10.743   0.803
21119SOL    HW165254   2.508  10.778   0.739
21119SOL    HW265255   2.651  10.729   0.752
21120SOL     OW65256   5.422   9.745   1.284
21120SOL    HW165257   5.385   9.657   1.276
21120SOL    HW265258   5.485   9.738   1.355
21121SOL     OW65259   5.530  12.699   9.802
21121SOL    HW165260   5.613  12.700   9.849
21121SOL    HW265261   5.553  12.670   9.714
21122SOL     OW65262  11.373   5.306  10.155
21122SOL    HW165263  11.376   5.390  10.200
21122SOL    HW265264  11.429   5.248  10.208
21123SOL     OW65265   7.049  11.914  13.817
21123SOL    HW165266   7.132  11.941  13.777
21123SOL    HW265267   7.026  11.986  13.874
21124SOL     OW65268  11.001  11.456   5.475
21124SOL    HW165269  10.993  11.490   5.564
21124SOL    HW265270  11.039  11.369   5.487
21125SOL     OW65271   3.897  12.318   4.798
21125SOL    HW165272   3.842  12.351   4.728
21125SOL    HW265273   3.965  12.384   4.809
21126SOL     OW65274  11.253  12.052   7.145
21126SOL    HW165275  11.340  12.081   7.119
21126SOL    HW265276  11.268  11.997   7.223
21127SOL     OW65277   8.808  14.534  14.091
21127SOL    HW165278   8.784  14.442  14.104
21127SOL    HW265279   8.774  14.555  14.004
21128SOL     OW65280   2.285  13.115   3.835
21128SOL    HW165281   2.252  13.205   3.841
21128SOL    HW265282   2.378  13.122   3.856
21129SOL     OW65283   1.782   9.149   5.925
21129SOL    HW165284   1.857   9.208   5.922
21129SOL    HW265285   1.737   9.170   6.007
21130SOL     OW65286   3.371   0.207   1.531
21130SOL    HW165287   3.358   0.113   1.545
21130SOL    HW265288   3.454   0.226   1.573
21131SOL     OW65289   5.033   6.439   4.517
21131SOL    HW165290   4.985   6.520   4.497
21131SOL    HW265291   4.965   6.373   4.525
21132SOL     OW65292   7.801  10.848   5.013
21132SOL    HW165293   7.860  10.897   5.070
21132SOL    HW265294   7.730  10.909   4.994
21133SOL     OW65295   2.044   2.373   7.868
21133SOL    HW165296   2.000   2.289   7.875
21133SOL    HW265297   2.095   2.380   7.949
21134SOL     OW65298  10.977  12.182  11.380
21134SOL    HW165299  10.884  12.160  11.382
21134SOL    HW265300  11.022  12.098  11.386
21135SOL     OW65301   3.760  11.524  12.925
21135SOL    HW165302   3.804  11.510  13.009
21135SOL    HW265303   3.683  11.576  12.947
21136SOL     OW65304   6.369  10.549  12.321
21136SOL    HW165305   6.403  10.464  12.294
21136SOL    HW265306   6.276  10.547  12.299
21137SOL     OW65307   9.633   5.277   5.979
21137SOL    HW165308   9.668   5.216   5.914
21137SOL    HW265309   9.549   5.240   6.004
21138SOL     OW65310  10.532   1.041   3.675
21138SOL    HW165311  10.568   1.005   3.756
21138SOL    HW265312  10.606   1.088   3.635
21139SOL     OW65313   7.917   6.438  10.606
21139SOL    HW165314   7.999   6.472  10.569
21139SOL    HW265315   7.922   6.344  10.592
21140SOL     OW65316   6.863   1.428   5.621
21140SOL    HW165317   6.823   1.366   5.559
21140SOL    HW265318   6.858   1.512   5.577
21141SOL     OW65319  11.552   9.375  11.420
21141SOL    HW165320  11.520   9.462  11.400
21141SOL    HW265321  11.558   9.373  11.516
21142SOL     OW65322  13.358  10.020   2.560
21142SOL    HW165323  13.333  10.112   2.551
21142SOL    HW265324  13.373  10.008   2.653
21143SOL     OW65325   9.641  12.712  13.757
21143SOL    HW165326   9.552  12.706  13.792
21143SOL    HW265327   9.633  12.761  13.676
21144SOL     OW65328   8.546   5.098  12.514
21144SOL    HW165329   8.511   5.187  12.520
21144SOL    HW265330   8.469   5.042  12.501
21145SOL     OW65331  11.250   9.892   3.807
21145SOL    HW165332  11.269   9.807   3.767
21145SOL    HW265333  11.333   9.940   3.803
21146SOL     OW65334   4.188  11.325   8.462
21146SOL    HW165335   4.106  11.276   8.466
21146SOL    HW265336   4.246  11.279   8.522
21147SOL     OW65337  11.496  11.002   7.637
21147SOL    HW165338  11.481  10.911   7.663
21147SOL    HW265339  11.409  11.043   7.642
21148SOL     OW65340   5.337  13.377   3.952
21148SOL    HW165341   5.397  13.348   3.884
21148SOL    HW265342   5.321  13.298   4.005
21149SOL     OW65343  11.430  10.461   3.538
21149SOL    HW165344  11.496  10.466   3.468
21149SOL    HW265345  11.347  10.458   3.491
21150SOL     OW65346   5.701   9.659   2.188
21150SOL    HW165347   5.755   9.579   2.186
21150SOL    HW265348   5.760   9.728   2.158
21151SOL     OW65349   6.562  12.952   4.971
21151SOL    HW165350   6.510  12.954   5.051
21151SOL    HW265351   6.516  13.009   4.911
21152SOL     OW65352   1.356   9.376   6.955
21152SOL    HW165353   1.307   9.427   6.891
21152SOL    HW265354   1.378   9.295   6.909
21153SOL     OW65355   0.169   9.032   0.157
21153SOL    HW165356   0.122   8.956   0.123
21153SOL    HW265357   0.261   9.010   0.145
21154SOL     OW65358   2.567   0.422   6.467
21154SOL    HW165359   2.475   0.420   6.437
21154SOL    HW265360   2.572   0.352   6.532
21155SOL     OW65361   1.568  14.323   2.920
21155SOL    HW165362   1.538  14.281   2.839
21155SOL    HW265363   1.494  14.378   2.946
21156SOL     OW65364   3.057  11.413  14.288
21156SOL    HW165365   3.068  11.360  14.209
21156SOL    HW265366   3.002  11.360  14.346
21157SOL     OW65367  14.485   9.800  14.667
21157SOL    HW165368  14.559   9.792  14.606
21157SOL    HW265369  14.425   9.731  14.640
21158SOL     OW65370   6.938   8.560  10.540
21158SOL    HW165371   6.921   8.630  10.477
21158SOL    HW265372   6.996   8.600  10.604
21159SOL     OW65373   4.713   4.472   5.399
21159SOL    HW165374   4.627   4.495   5.363
21159SOL    HW265375   4.747   4.555   5.434
21160SOL     OW65376  13.248   1.698   9.988
21160SOL    HW165377  13.313   1.696   9.918
21160SOL    HW265378  13.167   1.669   9.946
21161SOL     OW65379   3.532   3.501   2.889
21161SOL    HW165380   3.593   3.472   2.957
21161SOL    HW265381   3.462   3.435   2.890
21162SOL     OW65382   2.150   0.499  11.856
21162SOL    HW165383   2.152   0.591  11.828
21162SOL    HW265384   2.200   0.453  11.789
21163SOL     OW65385   3.758   9.573  10.042
21163SOL    HW165386   3.836   9.544   9.995
21163SOL    HW265387   3.686   9.554   9.983
21164SOL     OW65388   5.385   7.080   3.756
21164SOL    HW165389   5.462   7.125   3.792
21164SOL    HW265390   5.312   7.140   3.772
21165SOL     OW65391   5.176   5.619  12.132
21165SOL    HW165392   5.269   5.599  12.142
21165SOL    HW265393   5.171   5.714  12.140
21166SOL     OW65394   3.272  11.877  14.625
21166SOL    HW165395   3.320  11.958  14.609
21166SOL    HW265396   3.180  11.901  14.613
21167SOL     OW65397  13.290  13.391   2.254
21167SOL    HW165398  13.288  13.405   2.159
21167SOL    HW265399  13.223  13.325   2.270
21168SOL     OW65400  12.981   4.514   5.116
21168SOL    HW165401  13.018   4.601   5.127
21168SOL    HW265402  12.941   4.516   5.029
21169SOL     OW65403  10.698  12.632   4.439
21169SOL    HW165404  10.683  12.625   4.533
21169SOL    HW265405  10.610  12.635   4.401
21170SOL     OW65406  12.738  11.546  12.393
21170SOL    HW165407  12.727  11.453  12.412
21170SOL    HW265408  12.770  11.584  12.475
21171SOL     OW65409   3.220   7.803   1.324
21171SOL    HW165410   3.243   7.871   1.387
21171SOL    HW265411   3.287   7.810   1.256
21172SOL     OW65412   6.113   5.619  13.247
21172SOL    HW165413   6.192   5.622  13.301
21172SOL    HW265414   6.133   5.675  13.172
21173SOL     OW65415   9.600   6.318   5.486
21173SOL    HW165416   9.627   6.385   5.548
21173SOL    HW265417   9.682   6.282   5.452
21174SOL     OW65418   6.914  10.254  14.494
21174SOL    HW165419   7.003  10.242  14.461
21174SOL    HW265420   6.925  10.275  14.587
21175SOL     OW65421   3.122  12.511   6.978
21175SOL    HW165422   3.050  12.514   6.915
21175SOL    HW265423   3.089  12.560   7.053
21176SOL     OW65424  11.970  13.203   7.280
21176SOL    HW165425  12.050  13.180   7.328
21176SOL    HW265426  11.994  13.189   7.188
21177SOL     OW65427  13.359   5.346   2.739
21177SOL    HW165428  13.345   5.315   2.649
21177SOL    HW265429  13.275   5.386   2.764
21178SOL     OW65430  12.244   0.879  10.508
21178SOL    HW165431  12.246   0.826  10.587
21178SOL    HW265432  12.165   0.931  10.516
21179SOL     OW65433  12.889   4.649   3.898
21179SOL    HW165434  12.967   4.667   3.845
21179SOL    HW265435  12.841   4.732   3.896
21180SOL     OW65436   0.864   3.952   6.120
21180SOL    HW165437   0.946   3.999   6.104
21180SOL    HW265438   0.814   4.008   6.179
21181SOL     OW65439  11.298   0.225   8.452
21181SOL    HW165440  11.270   0.137   8.427
21181SOL    HW265441  11.222   0.280   8.436
21182SOL     OW65442   8.240   1.643   1.915
21182SOL    HW165443   8.226   1.629   1.821
21182SOL    HW265444   8.156   1.673   1.948
21183SOL     OW65445  14.263   1.500  14.493
21183SOL    HW165446  14.251   1.473  14.584
21183SOL    HW265447  14.176   1.530  14.465
21184SOL     OW65448  10.701   0.542   8.337
21184SOL    HW165449  10.652   0.584   8.408
21184SOL    HW265450  10.771   0.495   8.381
21185SOL     OW65451   4.742   4.305   2.734
21185SOL    HW165452   4.774   4.388   2.769
21185SOL    HW265453   4.816   4.245   2.743
21186SOL     OW65454   0.538  10.060   3.516
21186SOL    HW165455   0.631  10.037   3.526
21186SOL    HW265456   0.526  10.136   3.573
21187SOL     OW65457   6.198  14.663  10.910
21187SOL    HW165458   6.203  14.743  10.858
21187SOL    HW265459   6.109  14.631  10.897
21188SOL     OW65460   3.209   6.896   1.515
21188SOL    HW165461   3.175   6.861   1.597
21188SOL    HW265462   3.221   6.989   1.532
21189SOL     OW65463   3.247   2.788   6.884
21189SOL    HW165464   3.267   2.871   6.841
21189SOL    HW265465   3.330   2.758   6.919
21190SOL     OW65466   0.728   5.824   4.963
21190SOL    HW165467   0.755   5.815   5.054
21190SOL    HW265468   0.807   5.807   4.913
21191SOL     OW65469  14.196   0.590   5.018
21191SOL    HW165470  14.267   0.526   5.023
21191SOL    HW265471  14.194   0.618   4.927
21192SOL     OW65472   2.636   3.541  14.613
21192SOL    HW165473   2.700   3.501  14.554
21192SOL    HW265474   2.669   3.629  14.629
21193SOL     OW65475  12.683   1.564   0.361
21193SOL    HW165476  12.683   1.660   0.371
21193SOL    HW265477  12.700   1.549   0.268
21194SOL     OW65478  13.094  11.200  13.271
21194SOL    HW165479  13.045  11.273  13.309
21194SOL    HW265480  13.062  11.194  13.181
21195SOL     OW65481  13.979  10.438   3.512
21195SOL    HW165482  13.902  10.491   3.493
21195SOL    HW265483  14.017  10.477   3.591
21196SOL     OW65484   2.288   4.317  14.332
21196SOL    HW165485   2.304   4.292  14.423
21196SOL    HW265486   2.205   4.365  14.335
21197SOL     OW65487   0.260  10.048  13.288
21197SOL    HW165488   0.239  10.062  13.380
21197SOL    HW265489   0.332   9.984  13.289
21198SOL     OW65490   5.261   1.062   4.371
21198SOL    HW165491   5.217   0.996   4.424
21198SOL    HW265492   5.195   1.091   4.308
21199SOL     OW65493   9.887  12.635   2.571
21199SOL    HW165494   9.863  12.705   2.632
21199SOL    HW265495   9.909  12.680   2.490
21200SOL     OW65496   8.900  11.278   8.829
21200SOL    HW165497   8.989  11.262   8.799
21200SOL    HW265498   8.845  11.222   8.773
21201SOL     OW65499  14.361  12.424   4.784
21201SOL    HW165500  14.404  12.341   4.763
21201SOL    HW265501  14.272  12.414   4.750
21202SOL     OW65502  10.387   9.863   4.060
21202SOL    HW165503  10.431   9.778   4.052
21202SOL    HW265504  10.336   9.856   4.141
21203SOL     OW65505   3.624  12.549  14.819
21203SOL    HW165506   3.578  12.581  14.741
21203SOL    HW265507   3.701  12.505  14.784
21204SOL     OW65508   8.669   9.574   7.360
21204SOL    HW165509   8.732   9.608   7.424
21204SOL    HW265510   8.583   9.600   7.396
21205SOL     OW65511   8.012  11.287   9.664
21205SOL    HW165512   8.073  11.231   9.616
21205SOL    HW265513   8.064  11.325   9.734
21206SOL     OW65514   2.473   9.667   4.276
21206SOL    HW165515   2.514   9.752   4.264
21206SOL    HW265516   2.395   9.684   4.328
21207SOL     OW65517  11.252  13.293   9.679
21207SOL    HW165518  11.238  13.200   9.697
21207SOL    HW265519  11.287  13.295   9.590
21208SOL     OW65520  11.323   2.849  13.086
21208SOL    HW165521  11.323   2.870  12.992
21208SOL    HW265522  11.238   2.808  13.101
21209SOL     OW65523   3.137   1.743  13.003
21209SOL    HW165524   3.186   1.814  13.044
21209SOL    HW265525   3.046   1.773  13.002
21210SOL     OW65526  12.154  13.877   6.490
21210SOL    HW165527  12.154  13.781   6.495
21210SOL    HW265528  12.137  13.905   6.580
21211SOL     OW65529   0.126   4.115  13.196
21211SOL    HW165530   0.118   4.176  13.123
21211SOL    HW265531   0.129   4.171  13.274
21212SOL     OW65532   2.657   4.489  12.586
21212SOL    HW165533   2.629   4.501  12.677
21212SOL    HW265534   2.606   4.415  12.555
21213SOL     OW65535   4.570   9.353   5.716
21213SOL    HW165536   4.546   9.445   5.710
21213SOL    HW265537   4.657   9.354   5.757
21214SOL     OW65538  12.367   0.391  11.205
21214SOL    HW165539  12.396   0.461  11.145
21214SOL    HW265540  12.300   0.432  11.259
21215SOL     OW65541   7.289   0.090  13.351
21215SOL    HW165542   7.200   0.073  13.382
21215SOL    HW265543   7.279   0.164  13.290
21216SOL     OW65544  10.583   0.145  12.772
21216SOL    HW165545  10.575   0.165  12.678
21216SOL    HW265546  10.567   0.229  12.815
21217SOL     OW65547   7.302  12.984   2.116
21217SOL    HW165548   7.382  13.006   2.165
21217SOL    HW265549   7.334  12.947   2.034
21218SOL     OW65550   2.721  10.531   7.774
21218SOL    HW165551   2.634  10.493   7.790
21218SOL    HW265552   2.704  10.611   7.724
21219SOL     OW65553   1.414  11.033   8.428
21219SOL    HW165554   1.476  10.994   8.490
21219SOL    HW265555   1.332  11.039   8.476
21220SOL     OW65556   4.965   4.506   7.281
21220SOL    HW165557   4.910   4.535   7.208
21220SOL    HW265558   5.033   4.573   7.288
21221SOL     OW65559   7.605  14.819   1.302
21221SOL    HW165560   7.690  14.783   1.275
21221SOL    HW265561   7.559  14.744   1.341
21222SOL     OW65562   4.005  14.607  10.894
21222SOL    HW165563   3.996  14.571  10.983
21222SOL    HW265564   3.952  14.687  10.896
21223SOL     OW65565   5.892   5.758   7.520
21223SOL    HW165566   5.861   5.843   7.552
21223SOL    HW265567   5.981   5.775   7.488
21224SOL     OW65568   5.575   8.131  13.168
21224SOL    HW165569   5.553   8.135  13.074
21224SOL    HW265570   5.539   8.212  13.204
21225SOL     OW65571   4.562   0.129  14.830
21225SOL    HW165572   4.505   0.186  14.779
21225SOL    HW265573   4.506   0.056  14.856
21226SOL     OW65574   5.655   7.435   3.867
21226SOL    HW165575   5.630   7.380   3.793
21226SOL    HW265576   5.586   7.420   3.932
21227SOL     OW65577   7.923  11.889   2.904
21227SOL    HW165578   7.934  11.982   2.885
21227SOL    HW265579   8.012  11.855   2.910
21228SOL     OW65580  12.170  13.028  13.434
21228SOL    HW165581  12.186  13.084  13.359
21228SOL    HW265582  12.094  13.067  13.478
21229SOL     OW65583   4.678   4.929   0.464
21229SOL    HW165584   4.599   4.913   0.515
21229SOL    HW265585   4.649   4.929   0.373
21230SOL     OW65586  14.148  10.525   0.583
21230SOL    HW165587  14.228  10.550   0.536
21230SOL    HW265588  14.157  10.567   0.668
21231SOL     OW65589   3.843   9.321   2.909
21231SOL    HW165590   3.749   9.338   2.911
21231SOL    HW265591   3.883   9.404   2.933
21232SOL     OW65592   6.336  13.399   9.692
21232SOL    HW165593   6.360  13.352   9.771
21232SOL    HW265594   6.247  13.370   9.672
21233SOL     OW65595   2.616   4.639   2.524
21233SOL    HW165596   2.606   4.548   2.499
21233SOL    HW265597   2.535   4.682   2.497
21234SOL     OW65598   6.035   8.972  13.361
21234SOL    HW165599   5.987   9.022  13.427
21234SOL    HW265600   5.978   8.898  13.341
21235SOL     OW65601   0.920   7.255  13.597
21235SOL    HW165602   0.905   7.282  13.688
21235SOL    HW265603   0.849   7.194  13.578
21236SOL     OW65604   7.407  11.869   0.479
21236SOL    HW165605   7.321  11.827   0.467
21236SOL    HW265606   7.393  11.960   0.454
21237SOL     OW65607  12.891  13.977   5.999
21237SOL    HW165608  12.954  14.046   5.978
21237SOL    HW265609  12.846  13.959   5.916
21238SOL     OW65610   8.495   9.950   7.414
21238SOL    HW165611   8.485   9.855   7.407
21238SOL    HW265612   8.407   9.984   7.400
21239SOL     OW65613   6.116  11.452   4.558
21239SOL    HW165614   6.032  11.430   4.518
21239SOL    HW265615   6.125  11.546   4.543
21240SOL     OW65616  14.838   9.071   8.562
21240SOL    HW165617  14.785   9.040   8.489
21240SOL    HW265618  14.774   9.103   8.626
21241SOL     OW65619   1.533   9.125   6.967
21241SOL    HW165620   1.483   9.048   6.993
21241SOL    HW265621   1.571   9.157   7.049
21242SOL     OW65622  13.074   7.173   8.737
21242SOL    HW165623  13.023   7.092   8.739
21242SOL    HW265624  13.166   7.144   8.738
21243SOL     OW65625  12.672   0.601   1.125
21243SOL    HW165626  12.750   0.617   1.071
21243SOL    HW265627  12.630   0.526   1.083
21244SOL     OW65628   3.256   4.160  14.015
21244SOL    HW165629   3.222   4.238  13.972
21244SOL    HW265630   3.225   4.087  13.961
21245SOL     OW65631  13.639   5.062   5.635
21245SOL    HW165632  13.662   5.152   5.612
21245SOL    HW265633  13.551   5.050   5.598
21246SOL     OW65634   5.742   6.638  10.023
21246SOL    HW165635   5.667   6.600  10.070
21246SOL    HW265636   5.783   6.695  10.087
21247SOL     OW65637  12.788  14.401   9.333
21247SOL    HW165638  12.765  14.309   9.345
21247SOL    HW265639  12.877  14.400   9.298
21248SOL     OW65640   6.909   5.323  10.523
21248SOL    HW165641   6.852   5.315  10.447
21248SOL    HW265642   6.851   5.351  10.594
21249SOL     OW65643  13.077   8.713   1.741
21249SOL    HW165644  13.019   8.648   1.780
21249SOL    HW265645  13.145   8.727   1.807
21250SOL     OW65646  13.070   8.320  10.318
21250SOL    HW165647  12.979   8.298  10.301
21250SOL    HW265648  13.071   8.415  10.325
21251SOL     OW65649  13.307   8.958   6.914
21251SOL    HW165650  13.302   9.024   6.983
21251SOL    HW265651  13.235   8.979   6.855
21252SOL     OW65652   1.795   0.972   4.482
21252SOL    HW165653   1.873   0.921   4.505
21252SOL    HW265654   1.829   1.055   4.450
21253SOL     OW65655   3.065   6.425  12.269
21253SOL    HW165656   3.008   6.348  12.259
21253SOL    HW265657   3.071   6.439  12.363
21254SOL     OW65658   7.709   1.152  10.625
21254SOL    HW165659   7.725   1.208  10.549
21254SOL    HW265660   7.760   1.073  10.608
21255SOL     OW65661  12.566   4.840  10.897
21255SOL    HW165662  12.506   4.818  10.968
21255SOL    HW265663  12.611   4.919  10.927
21256SOL     OW65664  11.507   4.506   7.436
21256SOL    HW165665  11.523   4.588   7.483
21256SOL    HW265666  11.535   4.525   7.346
21257SOL     OW65667   2.036   0.912   9.462
21257SOL    HW165668   2.024   0.833   9.514
21257SOL    HW265669   2.067   0.881   9.377
21258SOL     OW65670  11.802   9.163   1.353
21258SOL    HW165671  11.878   9.221   1.344
21258SOL    HW265672  11.785   9.160   1.447
21259SOL     OW65673  13.183  14.477   3.500
21259SOL    HW165674  13.254  14.497   3.440
21259SOL    HW265675  13.131  14.557   3.504
21260SOL     OW65676  14.759   7.267   3.019
21260SOL    HW165677  14.698   7.193   3.019
21260SOL    HW265678  14.753   7.303   3.107
21261SOL     OW65679   0.133   9.736   2.873
21261SOL    HW165680   0.215   9.712   2.917
21261SOL    HW265681   0.096   9.653   2.844
21262SOL     OW65682   0.031  12.467   7.665
21262SOL    HW165683   0.067  12.431   7.584
21262SOL    HW265684  14.866  12.393   7.706
21263SOL     OW65685   0.604  12.001   9.156
21263SOL    HW165686   0.632  11.997   9.248
21263SOL    HW265687   0.509  11.997   9.160
21264SOL     OW65688   0.503   8.743  14.676
21264SOL    HW165689   0.463   8.810  14.621
21264SOL    HW265690   0.591   8.731  14.639
21265SOL     OW65691   6.646   8.804   3.763
21265SOL    HW165692   6.626   8.812   3.856
21265SOL    HW265693   6.572   8.755   3.727
21266SOL     OW65694   0.456   0.397  10.908
21266SOL    HW165695   0.544   0.389  10.871
21266SOL    HW265696   0.439   0.310  10.946
21267SOL     OW65697   1.650   2.301   1.768
21267SOL    HW165698   1.564   2.343   1.761
21267SOL    HW265699   1.641   2.220   1.718
21268SOL     OW65700   9.350   5.800  12.861
21268SOL    HW165701   9.307   5.719  12.887
21268SOL    HW265702   9.423   5.772  12.806
21269SOL     OW65703   0.619  13.545  12.566
21269SOL    HW165704   0.626  13.536  12.661
21269SOL    HW265705   0.557  13.617  12.552
21270SOL     OW65706   8.545  13.003   3.096
21270SOL    HW165707   8.618  13.017   3.156
21270SOL    HW265708   8.578  12.942   3.031
21271SOL     OW65709  11.839  10.751   4.846
21271SOL    HW165710  11.835  10.781   4.755
21271SOL    HW265711  11.840  10.655   4.840
21272SOL     OW65712  13.450   6.038   2.859
21272SOL    HW165713  13.458   5.948   2.889
21272SOL    HW265714  13.362   6.065   2.885
21273SOL     OW65715   6.105   0.238   3.307
21273SOL    HW165716   6.111   0.263   3.399
21273SOL    HW265717   6.097   0.142   3.309
21274SOL     OW65718   8.178   8.781   8.525
21274SOL    HW165719   8.186   8.838   8.449
21274SOL    HW265720   8.269   8.767   8.553
21275SOL     OW65721   5.568  13.590   1.375
21275SOL    HW165722   5.590  13.617   1.286
21275SOL    HW265723   5.474  13.573   1.373
21276SOL     OW65724  13.480   5.278   0.481
21276SOL    HW165725  13.460   5.274   0.574
21276SOL    HW265726  13.568   5.316   0.476
21277SOL     OW65727   3.974  12.032   7.685
21277SOL    HW165728   3.922  11.980   7.624
21277SOL    HW265729   4.033  12.083   7.629
21278SOL     OW65730   6.890   6.859   9.231
21278SOL    HW165731   6.829   6.886   9.299
21278SOL    HW265732   6.836   6.814   9.167
21279SOL     OW65733  10.577   7.469   1.365
21279SOL    HW165734  10.500   7.413   1.376
21279SOL    HW265735  10.541   7.556   1.346
21280SOL     OW65736   5.123  10.793   5.376
21280SOL    HW165737   5.218  10.797   5.388
21280SOL    HW265738   5.089  10.868   5.425
21281SOL     OW65739   8.904   6.742   0.599
21281SOL    HW165740   8.981   6.789   0.632
21281SOL    HW265741   8.934   6.701   0.518
21282SOL     OW65742   1.736  10.598   5.618
21282SOL    HW165743   1.793  10.644   5.679
21282SOL    HW265744   1.665  10.563   5.672
21283SOL     OW65745  14.627  12.083   6.124
21283SOL    HW165746  14.549  12.036   6.095
21283SOL    HW265747  14.664  12.120   6.044
21284SOL     OW65748  11.642   4.939   2.878
21284SOL    HW165749  11.706   5.009   2.869
21284SOL    HW265750  11.592   4.940   2.796
21285SOL     OW65751  14.369   6.012   5.651
21285SOL    HW165752  14.363   5.958   5.572
21285SOL    HW265753  14.349   5.953   5.723
21286SOL     OW65754   6.438   0.510  11.761
21286SOL    HW165755   6.371   0.475  11.701
21286SOL    HW265756   6.389   0.531  11.840
21287SOL     OW65757   9.854   1.693  14.024
21287SOL    HW165758   9.857   1.757  14.095
21287SOL    HW265759   9.833   1.610  14.067
21288SOL     OW65760   4.906  12.055  13.178
21288SOL    HW165761   4.885  12.141  13.214
21288SOL    HW265762   4.995  12.064  13.144
21289SOL     OW65763   5.315   9.455   3.343
21289SOL    HW165764   5.305   9.549   3.326
21289SOL    HW265765   5.410   9.443   3.350
21290SOL     OW65766   8.628   2.460   1.145
21290SOL    HW165767   8.646   2.538   1.092
21290SOL    HW265768   8.652   2.486   1.234
21291SOL     OW65769   1.413   2.406   2.416
21291SOL    HW165770   1.376   2.318   2.417
21291SOL    HW265771   1.346   2.461   2.456
21292SOL     OW65772  13.883   3.974  11.978
21292SOL    HW165773  13.926   3.987  11.894
21292SOL    HW265774  13.886   4.061  12.020
21293SOL     OW65775  13.164   1.310   4.129
21293SOL    HW165776  13.153   1.396   4.170
21293SOL    HW265777  13.210   1.258   4.195
21294SOL     OW65778  13.087   4.942   0.695
21294SOL    HW165779  13.073   4.851   0.720
21294SOL    HW265780  13.124   4.938   0.606
21295SOL     OW65781  11.920   1.110  13.644
21295SOL    HW165782  11.963   1.088  13.726
21295SOL    HW265783  11.898   1.203  13.653
21296SOL     OW65784   8.371   8.600   0.526
21296SOL    HW165785   8.343   8.593   0.435
21296SOL    HW265786   8.442   8.537   0.535
21297SOL     OW65787   7.565   9.544   9.343
21297SOL    HW165788   7.652   9.559   9.379
21297SOL    HW265789   7.559   9.605   9.269
21298SOL     OW65790  10.462   5.681   1.593
21298SOL    HW165791  10.478   5.766   1.552
21298SOL    HW265792  10.521   5.621   1.547
21299SOL     OW65793   6.060   6.802  14.081
21299SOL    HW165794   6.029   6.733  14.022
21299SOL    HW265795   6.006   6.792  14.160
21300SOL     OW65796   3.839  13.215   1.604
21300SOL    HW165797   3.746  13.235   1.599
21300SOL    HW265798   3.882  13.300   1.607
21301SOL     OW65799  12.155   1.766   1.748
21301SOL    HW165800  12.105   1.716   1.683
21301SOL    HW265801  12.216   1.702   1.785
21302SOL     OW65802  14.426   1.897   1.523
21302SOL    HW165803  14.359   1.831   1.541
21302SOL    HW265804  14.466   1.868   1.441
21303SOL     OW65805   2.200   6.254  11.328
21303SOL    HW165806   2.136   6.253  11.399
21303SOL    HW265807   2.167   6.190  11.265
21304SOL     OW65808   6.114   8.774  10.623
21304SOL    HW165809   6.195   8.823  10.611
21304SOL    HW265810   6.082   8.758  10.535
21305SOL     OW65811   8.772   9.636   2.893
21305SOL    HW165812   8.745   9.727   2.904
21305SOL    HW265813   8.735   9.590   2.968
21306SOL     OW65814  11.086  12.441   9.975
21306SOL    HW165815  11.125  12.395  10.049
21306SOL    HW265816  11.161  12.477   9.927
21307SOL     OW65817   3.352   7.236   7.723
21307SOL    HW165818   3.406   7.207   7.797
21307SOL    HW265819   3.300   7.308   7.758
21308SOL     OW65820  11.810  14.129  13.642
21308SOL    HW165821  11.748  14.078  13.693
21308SOL    HW265822  11.762  14.209  13.618
21309SOL     OW65823  14.082   1.717  13.073
21309SOL    HW165824  14.011   1.771  13.107
21309SOL    HW265825  14.125   1.682  13.151
21310SOL     OW65826  11.664   4.676   9.525
21310SOL    HW165827  11.705   4.692   9.440
21310SOL    HW265828  11.735   4.641   9.579
21311SOL     OW65829  12.505  12.829   4.832
21311SOL    HW165830  12.456  12.775   4.770
21311SOL    HW265831  12.474  12.802   4.918
21312SOL     OW65832  10.601   8.799   7.632
21312SOL    HW165833  10.688   8.838   7.619
21312SOL    HW265834  10.597   8.728   7.567
21313SOL     OW65835   4.125  11.436   6.880
21313SOL    HW165836   4.086  11.486   6.952
21313SOL    HW265837   4.180  11.371   6.922
21314SOL     OW65838   2.082  14.426   5.830
21314SOL    HW165839   2.152  14.362   5.820
21314SOL    HW265840   2.077  14.470   5.745
21315SOL     OW65841   2.971   0.803   0.965
21315SOL    HW165842   2.911   0.795   0.891
21315SOL    HW265843   2.967   0.718   1.009
21316SOL     OW65844  12.987   0.203   5.280
21316SOL    HW165845  12.931   0.128   5.300
21316SOL    HW265846  12.943   0.277   5.322
21317SOL     OW65847   5.695   7.033  14.737
21317SOL    HW165848   5.771   7.086  14.716
21317SOL    HW265849   5.693   7.031  14.833
21318SOL     OW65850   2.261   4.821   4.090
21318SOL    HW165851   2.332   4.758   4.078
21318SOL    HW265852   2.283   4.868   4.170
21319SOL     OW65853   5.493   7.055  13.453
21319SOL    HW165854   5.583   7.034  13.428
21319SOL    HW265855   5.439   7.017  13.384
21320SOL     OW65856   6.724   3.684  13.435
21320SOL    HW165857   6.726   3.594  13.403
21320SOL    HW265858   6.798   3.726  13.393
21321SOL     OW65859   7.394   6.175   6.331
21321SOL    HW165860   7.454   6.145   6.263
21321SOL    HW265861   7.451   6.213   6.398
21322SOL     OW65862  10.922   8.198   4.308
21322SOL    HW165863  10.941   8.147   4.229
21322SOL    HW265864  10.855   8.148   4.354
21323SOL     OW65865   2.130  10.435   5.791
21323SOL    HW165866   2.108  10.355   5.839
21323SOL    HW265867   2.204  10.410   5.736
21324SOL     OW65868   8.002   2.367   0.349
21324SOL    HW165869   7.927   2.344   0.294
21324SOL    HW265870   8.059   2.417   0.291
21325SOL     OW65871   7.975   4.522  14.707
21325SOL    HW165872   8.035   4.539  14.779
21325SOL    HW265873   7.952   4.609  14.673
21326SOL     OW65874   1.742  12.263   7.131
21326SOL    HW165875   1.748  12.314   7.050
21326SOL    HW265876   1.774  12.176   7.106
21327SOL     OW65877   2.058   8.683  14.210
21327SOL    HW165878   2.110   8.733  14.272
21327SOL    HW265879   2.121   8.627  14.166
21328SOL     OW65880   2.444  10.424   7.398
21328SOL    HW165881   2.447  10.504   7.450
21328SOL    HW265882   2.491  10.445   7.318
21329SOL     OW65883   9.755  10.778   8.277
21329SOL    HW165884   9.709  10.839   8.219
21329SOL    HW265885   9.687  10.717   8.306
21330SOL     OW65886   1.754  10.026   5.477
21330SOL    HW165887   1.814   9.952   5.485
21330SOL    HW265888   1.680  10.003   5.533
21331SOL     OW65889   2.113  10.067  10.894
21331SOL    HW165890   2.189  10.009  10.895
21331SOL    HW265891   2.130  10.126  10.820
21332SOL     OW65892  11.273   4.019   2.628
21332SOL    HW165893  11.318   4.088   2.677
21332SOL    HW265894  11.344   3.964   2.595
21333SOL     OW65895   3.042  11.440   6.103
21333SOL    HW165896   3.081  11.389   6.031
21333SOL    HW265897   2.991  11.508   6.059
21334SOL     OW65898   0.061   0.258   9.593
21334SOL    HW165899   0.069   0.328   9.658
21334SOL    HW265900   0.136   0.270   9.535
21335SOL     OW65901   4.608   7.896  11.784
21335SOL    HW165902   4.696   7.930  11.796
21335SOL    HW265903   4.573   7.946  11.710
21336SOL     OW65904  11.775   0.151  10.311
21336SOL    HW165905  11.741   0.231  10.350
21336SOL    HW265906  11.697   0.097  10.295
21337SOL     OW65907   2.187   7.279  11.542
21337SOL    HW165908   2.261   7.294  11.601
21337SOL    HW265909   2.227   7.240  11.464
21338SOL     OW65910   7.071  14.622  12.689
21338SOL    HW165911   7.103  14.711  12.676
21338SOL    HW265912   7.127  14.568  12.634
21339SOL     OW65913   7.337   2.423   2.907
21339SOL    HW165914   7.320   2.498   2.964
21339SOL    HW265915   7.336   2.460   2.818
21340SOL     OW65916   1.702   8.968  10.445
21340SOL    HW165917   1.764   9.037  10.418
21340SOL    HW265918   1.752   8.915  10.507
21341SOL     OW65919   7.804   8.225   3.186
21341SOL    HW165920   7.759   8.309   3.197
21341SOL    HW265921   7.754   8.164   3.241
21342SOL     OW65922   5.685   4.106  14.160
21342SOL    HW165923   5.773   4.071  14.151
21342SOL    HW265924   5.685   4.152  14.244
21343SOL     OW65925   9.326  11.991   6.553
21343SOL    HW165926   9.396  12.006   6.490
21343SOL    HW265927   9.253  12.045   6.522
21344SOL     OW65928   6.160   0.910   0.978
21344SOL    HW165929   6.143   0.822   1.011
21344SOL    HW265930   6.248   0.931   1.010
21345SOL     OW65931   6.483   5.517   8.254
21345SOL    HW165932   6.388   5.514   8.242
21345SOL    HW265933   6.500   5.607   8.281
21346SOL     OW65934   3.127   0.609   7.190
21346SOL    HW165935   3.043   0.644   7.159
21346SOL    HW265936   3.131   0.521   7.152
21347SOL     OW65937   5.016   9.261   9.590
21347SOL    HW165938   5.082   9.193   9.607
21347SOL    HW265939   5.051   9.309   9.514
21348SOL     OW65940  11.499   0.985   8.932
21348SOL    HW165941  11.428   1.029   8.885
21348SOL    HW265942  11.559   0.956   8.863
21349SOL     OW65943   8.404   8.669  10.701
21349SOL    HW165944   8.359   8.738  10.651
21349SOL    HW265945   8.394   8.696  10.792
21350SOL     OW65946  12.362   7.208   5.217
21350SOL    HW165947  12.425   7.270   5.255
21350SOL    HW265948  12.384   7.124   5.258
21351SOL     OW65949  10.991   7.400   6.864
21351SOL    HW165950  11.037   7.421   6.945
21351SOL    HW265951  10.930   7.474   6.852
21352SOL     OW65952   1.488   5.626   2.706
21352SOL    HW165953   1.516   5.665   2.623
21352SOL    HW265954   1.550   5.554   2.720
21353SOL     OW65955   9.484   6.960  11.855
21353SOL    HW165956   9.504   7.046  11.818
21353SOL    HW265957   9.527   6.960  11.940
21354SOL     OW65958   2.425   5.077   1.832
21354SOL    HW165959   2.401   5.164   1.862
21354SOL    HW265960   2.405   5.077   1.739
21355SOL     OW65961   2.142   9.877  12.968
21355SOL    HW165962   2.161   9.961  13.011
21355SOL    HW265963   2.181   9.885  12.881
21356SOL     OW65964   3.617   3.784   6.365
21356SOL    HW165965   3.688   3.785   6.301
21356SOL    HW265966   3.541   3.815   6.317
21357SOL     OW65967   0.063   7.659   9.552
21357SOL    HW165968   0.156   7.679   9.562
21357SOL    HW265969   0.060   7.589   9.487
21358SOL     OW65970   7.634  10.798   1.873
21358SOL    HW165971   7.547  10.821   1.839
21358SOL    HW265972   7.691  10.869   1.844
21359SOL     OW65973   6.380   0.240   7.334
21359SOL    HW165974   6.373   0.145   7.324
21359SOL    HW265975   6.303   0.265   7.387
21360SOL     OW65976  13.208   7.498  14.748
21360SOL    HW165977  13.219   7.508  14.654
21360SOL    HW265978  13.201   7.404  14.762
21361SOL     OW65979   1.013  11.345   0.171
21361SOL    HW165980   0.971  11.383   0.094
21361SOL    HW265981   1.060  11.418   0.212
21362SOL     OW65982   3.044   5.610  13.905
21362SOL    HW165983   2.967   5.553  13.909
21362SOL    HW265984   3.075   5.615  13.995
21363SOL     OW65985  13.282   8.263   1.402
21363SOL    HW165986  13.200   8.313   1.405
21363SOL    HW265987  13.277   8.212   1.322
21364SOL     OW65988   4.008   4.956   3.987
21364SOL    HW165989   3.921   4.994   4.001
21364SOL    HW265990   4.057   4.977   4.066
21365SOL     OW65991   7.726   2.201   1.898
21365SOL    HW165992   7.652   2.259   1.877
21365SOL    HW265993   7.792   2.222   1.831
21366SOL     OW65994   9.278   8.162   0.005
21366SOL    HW165995   9.348   8.191  14.826
21366SOL    HW265996   9.260   8.238   0.061
21367SOL     OW65997   4.460   9.117  11.518
21367SOL    HW165998   4.518   9.130  11.593
21367SOL    HW265999   4.493   9.177  11.452
21368SOL     OW66000   4.405   2.412   3.865
21368SOL    HW166001   4.458   2.378   3.793
21368SOL    HW266002   4.348   2.477   3.824
21369SOL     OW66003  12.448  10.563   2.872
21369SOL    HW166004  12.401  10.497   2.820
21369SOL    HW266005  12.403  10.645   2.851
21370SOL     OW66006  10.914  14.205   9.177
21370SOL    HW166007  10.971  14.208   9.100
21370SOL    HW266008  10.973  14.187   9.250
21371SOL     OW66009   0.474  12.522   0.694
21371SOL    HW166010   0.479  12.570   0.611
21371SOL    HW266011   0.382  12.494   0.700
21372SOL     OW66012  12.611   2.594  14.259
21372SOL    HW166013  12.650   2.598  14.347
21372SOL    HW266014  12.680   2.558  14.204
21373SOL     OW66015   2.610  13.169  12.876
21373SOL    HW166016   2.661  13.089  12.863
21373SOL    HW266017   2.520  13.137  12.889
21374SOL     OW66018  13.359   6.094   9.028
21374SOL    HW166019  13.381   6.183   9.056
21374SOL    HW266020  13.429   6.039   9.062
21375SOL     OW66021   2.110   7.099   0.461
21375SOL    HW166022   2.121   7.118   0.554
21375SOL    HW266023   2.028   7.051   0.456
21376SOL     OW66024   8.983   8.233   8.692
21376SOL    HW166025   8.892   8.225   8.721
21376SOL    HW266026   9.005   8.146   8.660
21377SOL     OW66027   1.955  10.132   1.129
21377SOL    HW166028   1.925  10.049   1.165
21377SOL    HW266029   1.919  10.198   1.188
21378SOL     OW66030   8.018   5.007   6.112
21378SOL    HW166031   8.071   4.937   6.152
21378SOL    HW266032   7.992   4.971   6.027
21379SOL     OW66033  12.695  14.265  10.895
21379SOL    HW166034  12.662  14.300  10.813
21379SOL    HW266035  12.756  14.332  10.926
21380SOL     OW66036   1.489   9.602  13.390
21380SOL    HW166037   1.422   9.668  13.371
21380SOL    HW266038   1.562   9.624  13.332
21381SOL     OW66039   2.516  12.847  10.202
21381SOL    HW166040   2.513  12.762  10.246
21381SOL    HW266041   2.544  12.908  10.270
21382SOL     OW66042  10.129  10.309   9.365
21382SOL    HW166043  10.035  10.315   9.347
21382SOL    HW266044  10.151  10.217   9.348
21383SOL     OW66045  13.295  10.785   8.261
21383SOL    HW166046  13.321  10.693   8.262
21383SOL    HW266047  13.228  10.792   8.329
21384SOL     OW66048   0.530   3.199  12.181
21384SOL    HW166049   0.566   3.184  12.094
21384SOL    HW266050   0.567   3.128  12.234
21385SOL     OW66051   3.294   1.149   2.726
21385SOL    HW166052   3.259   1.229   2.686
21385SOL    HW266053   3.222   1.086   2.718
21386SOL     OW66054   9.027  14.353   4.358
21386SOL    HW166055   9.008  14.267   4.396
21386SOL    HW266056   9.045  14.336   4.266
21387SOL     OW66057   2.118   8.797   5.955
21387SOL    HW166058   2.040   8.784   6.007
21387SOL    HW266059   2.099   8.752   5.872
21388SOL     OW66060  11.535  14.164  12.441
21388SOL    HW166061  11.525  14.068  12.442
21388SOL    HW266062  11.475  14.193  12.372
21389SOL     OW66063   6.677  13.767   1.604
21389SOL    HW166064   6.757  13.742   1.650
21389SOL    HW266065   6.660  13.694   1.544
21390SOL     OW66066  14.304   6.065   3.669
21390SOL    HW166067  14.258   6.148   3.661
21390SOL    HW266068  14.266   6.025   3.748
21391SOL     OW66069  14.426   5.226  14.110
21391SOL    HW166070  14.339   5.188  14.103
21391SOL    HW266071  14.484   5.150  14.119
21392SOL     OW66072   1.403   9.036  11.573
21392SOL    HW166073   1.442   9.121  11.554
21392SOL    HW266074   1.391   9.036  11.668
21393SOL     OW66075  11.449   2.355  13.492
21393SOL    HW166076  11.431   2.264  13.467
21393SOL    HW266077  11.466   2.350  13.586
21394SOL     OW66078   5.725   4.650   1.199
21394SOL    HW166079   5.743   4.742   1.178
21394SOL    HW266080   5.636   4.651   1.236
21395SOL     OW66081  12.880   1.240   5.274
21395SOL    HW166082  12.851   1.177   5.208
21395SOL    HW266083  12.953   1.197   5.318
21396SOL     OW66084   4.818   1.098   4.493
21396SOL    HW166085   4.844   1.052   4.413
21396SOL    HW266086   4.733   1.060   4.516
21397SOL     OW66087  12.792   9.198   9.506
21397SOL    HW166088  12.847   9.169   9.433
21397SOL    HW266089  12.726   9.130   9.515
21398SOL     OW66090   7.091  11.788   2.783
21398SOL    HW166091   7.167  11.824   2.829
21398SOL    HW266092   7.021  11.791   2.847
21399SOL     OW66093   8.336  10.588   3.887
21399SOL    HW166094   8.372  10.542   3.963
21399SOL    HW266095   8.332  10.680   3.914
21400SOL     OW66096   9.546   1.266   4.534
21400SOL    HW166097   9.548   1.344   4.480
21400SOL    HW266098   9.599   1.202   4.487
21401SOL     OW66099   0.727   4.122   6.701
21401SOL    HW166100   0.678   4.058   6.649
21401SOL    HW266101   0.808   4.076   6.724
21402SOL     OW66102  14.402   8.700   6.323
21402SOL    HW166103  14.405   8.731   6.232
21402SOL    HW266104  14.349   8.620   6.319
21403SOL     OW66105   5.461   7.640   2.982
21403SOL    HW166106   5.491   7.562   2.935
21403SOL    HW266107   5.500   7.713   2.934
21404SOL     OW66108   9.098   4.752  14.845
21404SOL    HW166109   9.043   4.677  14.866
21404SOL    HW266110   9.163   4.718  14.784
21405SOL     OW66111  13.062  11.175   8.386
21405SOL    HW166112  12.977  11.130   8.377
21405SOL    HW266113  13.045  11.242   8.453
21406SOL     OW66114   6.080  11.012   7.328
21406SOL    HW166115   6.155  11.071   7.334
21406SOL    HW266116   6.005  11.070   7.313
21407SOL     OW66117  10.296  12.928   4.368
21407SOL    HW166118  10.271  12.954   4.457
21407SOL    HW266119  10.376  12.877   4.380
21408SOL     OW66120   6.048   7.895   0.996
21408SOL    HW166121   6.121   7.875   0.936
21408SOL    HW266122   5.981   7.933   0.940
21409SOL     OW66123   1.349   7.764   8.540
21409SOL    HW166124   1.309   7.685   8.503
21409SOL    HW266125   1.442   7.756   8.520
21410SOL     OW66126   6.016   5.141   7.561
21410SOL    HW166127   5.979   5.165   7.477
21410SOL    HW266128   6.093   5.089   7.540
21411SOL     OW66129  10.496   4.991   9.539
21411SOL    HW166130  10.471   5.084   9.539
21411SOL    HW266131  10.477   4.961   9.450
21412SOL     OW66132  11.267  12.481   5.926
21412SOL    HW166133  11.216  12.548   5.880
21412SOL    HW266134  11.216  12.462   6.004
21413SOL     OW66135  13.286   0.242   1.616
21413SOL    HW166136  13.263   0.232   1.708
21413SOL    HW266137  13.201   0.241   1.570
21414SOL     OW66138   3.335   1.916   0.410
21414SOL    HW166139   3.359   1.834   0.367
21414SOL    HW266140   3.417   1.965   0.415
21415SOL     OW66141  12.206   8.621  13.784
21415SOL    HW166142  12.222   8.528  13.797
21415SOL    HW266143  12.289   8.663  13.806
21416SOL     OW66144   5.489  14.653  10.004
21416SOL    HW166145   5.494  14.609  10.089
21416SOL    HW266146   5.413  14.614   9.960
21417SOL     OW66147   3.142   8.669   2.989
21417SOL    HW166148   3.200   8.740   3.016
21417SOL    HW266149   3.134   8.680   2.894
21418SOL     OW66150   5.078  11.973   5.328
21418SOL    HW166151   5.103  11.926   5.249
21418SOL    HW266152   5.113  11.920   5.400
21419SOL     OW66153   5.413  14.823   3.967
21419SOL    HW166154   5.381  14.818   4.057
21419SOL    HW266155   5.378  14.745   3.924
21420SOL     OW66156  11.588   4.367   3.888
21420SOL    HW166157  11.624   4.415   3.963
21420SOL    HW266158  11.509   4.326   3.922
21421SOL     OW66159   2.951  11.309   2.286
21421SOL    HW166160   2.967  11.267   2.371
21421SOL    HW266161   2.972  11.401   2.300
21422SOL     OW66162  12.237   6.823   4.103
21422SOL    HW166163  12.202   6.816   4.191
21422SOL    HW266164  12.299   6.750   4.096
21423SOL     OW66165   6.297  11.258   4.562
21423SOL    HW166166   6.233  11.329   4.563
21423SOL    HW266167   6.375  11.296   4.521
21424SOL     OW66168   8.645   1.317   7.287
21424SOL    HW166169   8.712   1.384   7.280
21424SOL    HW266170   8.607   1.329   7.374
21425SOL     OW66171   0.205   0.902   1.154
21425SOL    HW166172   0.181   0.952   1.076
21425SOL    HW266173   0.252   0.964   1.209
21426SOL     OW66174   7.736   0.739   1.060
21426SOL    HW166175   7.764   0.656   1.021
21426SOL    HW266176   7.753   0.729   1.153
21427SOL     OW66177  14.569   3.817  14.735
21427SOL    HW166178  14.632   3.759  14.693
21427SOL    HW266179  14.602   3.828  14.824
21428SOL     OW66180   5.678   5.651  14.601
21428SOL    HW166181   5.619   5.680  14.670
21428SOL    HW266182   5.761   5.695  14.620
21429SOL     OW66183   9.749   7.509   7.121
21429SOL    HW166184   9.831   7.549   7.149
21429SOL    HW266185   9.682   7.576   7.138
21430SOL     OW66186   0.083   2.226   3.959
21430SOL    HW166187   0.070   2.132   3.946
21430SOL    HW266188   0.018   2.267   3.901
21431SOL     OW66189   8.232   3.338  13.608
21431SOL    HW166190   8.315   3.314  13.650
21431SOL    HW266191   8.165   3.290  13.658
21432SOL     OW66192   3.414   8.221   8.420
21432SOL    HW166193   3.474   8.292   8.396
21432SOL    HW266194   3.426   8.155   8.352
21433SOL     OW66195   1.878   4.740   9.198
21433SOL    HW166196   1.938   4.779   9.261
21433SOL    HW266197   1.814   4.809   9.180
21434SOL     OW66198   7.629   2.927   4.152
21434SOL    HW166199   7.542   2.961   4.132
21434SOL    HW266200   7.671   2.918   4.066
21435SOL     OW66201  10.222  12.004  12.151
21435SOL    HW166202  10.244  12.089  12.189
21435SOL    HW266203  10.154  11.969  12.208
21436SOL     OW66204  11.676   8.504  12.401
21436SOL    HW166205  11.676   8.594  12.370
21436SOL    HW266206  11.661   8.511  12.496
21437SOL     OW66207   2.945   6.639   1.628
21437SOL    HW166208   2.912   6.639   1.718
21437SOL    HW266209   2.884   6.583   1.580
21438SOL     OW66210   4.014  13.763  12.310
21438SOL    HW166211   4.104  13.737  12.292
21438SOL    HW266212   4.012  13.778  12.405
21439SOL     OW66213  13.364   7.855   9.454
21439SOL    HW166214  13.451   7.840   9.490
21439SOL    HW266215  13.375   7.929   9.394
21440SOL     OW66216  12.509   5.764  10.916
21440SOL    HW166217  12.469   5.800  10.836
21440SOL    HW266218  12.508   5.837  10.978
21441SOL     OW66219  12.016   5.803  14.573
21441SOL    HW166220  11.930   5.787  14.611
21441SOL    HW266221  12.016   5.897  14.552
21442SOL     OW66222   4.001   4.120   1.225
21442SOL    HW166223   3.985   4.038   1.177
21442SOL    HW266224   4.060   4.094   1.296
21443SOL     OW66225   7.907   3.211  10.215
21443SOL    HW166226   7.908   3.130  10.266
21443SOL    HW266227   7.976   3.265  10.255
21444SOL     OW66228   2.102   0.753   8.349
21444SOL    HW166229   2.082   0.754   8.255
21444SOL    HW266230   2.197   0.746   8.354
21445SOL     OW66231   0.027  12.059  11.959
21445SOL    HW166232  14.878  12.023  11.875
21445SOL    HW266233   0.091  11.995  11.991
21446SOL     OW66234   6.113   6.134   6.916
21446SOL    HW166235   6.158   6.106   6.836
21446SOL    HW266236   6.108   6.229   6.909
21447SOL     OW66237   8.924  12.478   9.361
21447SOL    HW166238   8.851  12.424   9.330
21447SOL    HW266239   8.918  12.474   9.456
21448SOL     OW66240   1.760  12.416  14.014
21448SOL    HW166241   1.828  12.371  14.063
21448SOL    HW266242   1.771  12.509  14.038
21449SOL     OW66243   6.069   4.544   3.239
21449SOL    HW166244   6.134   4.613   3.253
21449SOL    HW266245   6.022   4.538   3.322
21450SOL     OW66246   9.244  13.997  14.027
21450SOL    HW166247   9.190  14.039  14.095
21450SOL    HW266248   9.237  13.904  14.046
21451SOL     OW66249  14.618   6.712  13.398
21451SOL    HW166250  14.680   6.656  13.443
21451SOL    HW266251  14.552   6.651  13.363
21452SOL     OW66252  14.035   3.922   5.643
21452SOL    HW166253  14.113   3.907   5.697
21452SOL    HW266254  13.963   3.922   5.706
21453SOL     OW66255  10.209  14.752  11.750
21453SOL    HW166256  10.276  14.702  11.797
21453SOL    HW266257  10.222  14.842  11.777
21454SOL     OW66258  10.908   3.412  12.306
21454SOL    HW166259  10.838   3.437  12.245
21454SOL    HW266260  10.974   3.371  12.251
21455SOL     OW66261  14.213   2.469   6.222
21455SOL    HW166262  14.184   2.438   6.137
21455SOL    HW266263  14.150   2.536   6.246
21456SOL     OW66264   1.297  14.556   5.895
21456SOL    HW166265   1.392  14.557   5.883
21456SOL    HW266266   1.269  14.643   5.865
21457SOL     OW66267   7.224  13.227   5.609
21457SOL    HW166268   7.209  13.193   5.521
21457SOL    HW266269   7.150  13.286   5.625
21458SOL     OW66270   0.956  12.717  10.005
21458SOL    HW166271   1.027  12.780   9.993
21458SOL    HW266272   0.941  12.680   9.918
21459SOL     OW66273   1.742  13.904  12.839
21459SOL    HW166274   1.834  13.930  12.845
21459SOL    HW266275   1.724  13.858  12.921
21460SOL     OW66276   9.788   5.276  10.474
21460SOL    HW166277   9.698   5.278  10.505
21460SOL    HW266278   9.798   5.189  10.436
21461SOL     OW66279   3.008   8.425  12.744
21461SOL    HW166280   2.929   8.409  12.796
21461SOL    HW266281   2.981   8.489  12.678
21462SOL     OW66282   9.052  13.243   8.213
21462SOL    HW166283   9.074  13.163   8.261
21462SOL    HW266284   9.061  13.313   8.277
21463SOL     OW66285  13.233   3.285   6.561
21463SOL    HW166286  13.197   3.338   6.490
21463SOL    HW266287  13.327   3.300   6.557
21464SOL     OW66288   0.994   7.163   3.943
21464SOL    HW166289   0.983   7.114   3.862
21464SOL    HW266290   0.933   7.123   4.005
21465SOL     OW66291  10.602   5.711   8.937
21465SOL    HW166292  10.578   5.742   8.849
21465SOL    HW266293  10.653   5.783   8.974
21466SOL     OW66294  12.773   1.614  14.532
21466SOL    HW166295  12.856   1.569  14.519
21466SOL    HW266296  12.709   1.559  14.487
21467SOL     OW66297   1.055   4.394  14.178
21467SOL    HW166298   0.990   4.358  14.239
21467SOL    HW266299   1.089   4.317  14.132
21468SOL     OW66300   4.315  11.301   9.713
21468SOL    HW166301   4.258  11.256   9.775
21468SOL    HW266302   4.281  11.277   9.627
21469SOL     OW66303   6.607   4.546   4.396
21469SOL    HW166304   6.573   4.586   4.476
21469SOL    HW266305   6.659   4.472   4.426
21470SOL     OW66306   6.260   0.785  10.352
21470SOL    HW166307   6.254   0.738  10.269
21470SOL    HW266308   6.259   0.878  10.328
21471SOL     OW66309   5.275  13.144   4.128
21471SOL    HW166310   5.313  13.145   4.216
21471SOL    HW266311   5.336  13.091   4.076
21472SOL     OW66312  13.530  11.469  10.889
21472SOL    HW166313  13.467  11.399  10.871
21472SOL    HW266314  13.496  11.544  10.840
21473SOL     OW66315   6.738  11.897   3.251
21473SOL    HW166316   6.699  11.812   3.231
21473SOL    HW266317   6.700  11.956   3.185
21474SOL     OW66318   6.500   6.737  13.136
21474SOL    HW166319   6.431   6.791  13.097
21474SOL    HW266320   6.549   6.705  13.060
21475SOL     OW66321  14.537  12.427   0.620
21475SOL    HW166322  14.583  12.405   0.539
21475SOL    HW266323  14.544  12.347   0.673
21476SOL     OW66324  12.882   0.322   5.935
21476SOL    HW166325  12.870   0.395   5.873
21476SOL    HW266326  12.802   0.270   5.926
21477SOL     OW66327   1.351  10.411  11.021
21477SOL    HW166328   1.347  10.369  11.107
21477SOL    HW266329   1.422  10.365  10.976
21478SOL     OW66330   4.100  10.121  13.688
21478SOL    HW166331   4.126  10.177  13.614
21478SOL    HW266332   4.011  10.093  13.666
21479SOL     OW66333  14.522  11.988   2.686
21479SOL    HW166334  14.589  12.049   2.715
21479SOL    HW266335  14.570  11.924   2.633
21480SOL     OW66336   4.386   0.033   4.065
21480SOL    HW166337   4.481   0.030   4.079
21480SOL    HW266338   4.373   0.110   4.010
21481SOL     OW66339   4.588   5.765   5.323
21481SOL    HW166340   4.594   5.792   5.231
21481SOL    HW266341   4.583   5.669   5.319
21482SOL     OW66342   1.842  12.821   9.657
21482SOL    HW166343   1.795  12.904   9.670
21482SOL    HW266344   1.774  12.759   9.632
21483SOL     OW66345   2.184   6.885   0.687
21483SOL    HW166346   2.175   6.894   0.782
21483SOL    HW266347   2.094   6.890   0.654
21484SOL     OW66348   9.428  12.613  13.428
21484SOL    HW166349   9.343  12.653  13.447
21484SOL    HW266350   9.492  12.678  13.458
21485SOL     OW66351   3.228   4.334   1.001
21485SOL    HW166352   3.277   4.387   1.064
21485SOL    HW266353   3.142   4.376   0.995
21486SOL     OW66354   4.313   1.579   0.002
21486SOL    HW166355   4.242   1.521   0.032
21486SOL    HW266356   4.269   1.661  14.860
21487SOL     OW66357  12.488   3.166  11.065
21487SOL    HW166358  12.539   3.094  11.102
21487SOL    HW266359  12.541   3.244  11.080
21488SOL     OW66360   3.406   1.140  10.993
21488SOL    HW166361   3.434   1.067  10.938
21488SOL    HW266362   3.382   1.099  11.076
21489SOL     OW66363   7.784   5.787  13.560
21489SOL    HW166364   7.776   5.845  13.484
21489SOL    HW266365   7.729   5.711  13.538
21490SOL     OW66366  13.439   0.361   6.882
21490SOL    HW166367  13.385   0.428   6.924
21490SOL    HW266368  13.529   0.391   6.895
21491SOL     OW66369   8.420   8.738   0.857
21491SOL    HW166370   8.475   8.704   0.786
21491SOL    HW266371   8.333   8.746   0.819
21492SOL     OW66372   1.081   5.213   8.327
21492SOL    HW166373   1.040   5.140   8.373
21492SOL    HW266374   1.150   5.243   8.386
21493SOL     OW66375   4.178  13.799   1.715
21493SOL    HW166376   4.240  13.862   1.752
21493SOL    HW266377   4.229  13.750   1.652
21494SOL     OW66378   7.862   8.392   7.753
21494SOL    HW166379   7.916   8.467   7.726
21494SOL    HW266380   7.859   8.397   7.848
21495SOL     OW66381   6.234   3.654   7.311
21495SOL    HW166382   6.165   3.680   7.249
21495SOL    HW266383   6.189   3.602   7.377
21496SOL     OW66384  11.506   3.775   3.244
21496SOL    HW166385  11.476   3.862   3.221
21496SOL    HW266386  11.429   3.719   3.232
21497SOL     OW66387  10.003   6.596   0.562
21497SOL    HW166388  10.016   6.690   0.554
21497SOL    HW266389  10.089   6.561   0.587
21498SOL     OW66390   0.463   1.366  10.944
21498SOL    HW166391   0.485   1.273  10.942
21498SOL    HW266392   0.451   1.386  11.037
21499SOL     OW66393   4.412  12.273  10.468
21499SOL    HW166394   4.430  12.367  10.471
21499SOL    HW266395   4.498  12.232  10.459
21500SOL     OW66396   3.298   4.812   6.373
21500SOL    HW166397   3.256   4.828   6.458
21500SOL    HW266398   3.227   4.816   6.310
21501SOL     OW66399   2.935   2.927   4.827
21501SOL    HW166400   2.903   2.950   4.915
21501SOL    HW266401   2.859   2.942   4.770
21502SOL     OW66402   1.235  10.881  11.574
21502SOL    HW166403   1.166  10.891  11.509
21502SOL    HW266404   1.216  10.798  11.618
21503SOL     OW66405   1.615  11.724   4.624
21503SOL    HW166406   1.547  11.691   4.683
21503SOL    HW266407   1.580  11.808   4.593
21504SOL     OW66408  14.218  12.894  13.542
21504SOL    HW166409  14.268  12.959  13.591
21504SOL    HW266410  14.129  12.901  13.576
21505SOL     OW66411  13.351   0.547  13.951
21505SOL    HW166412  13.333   0.584  13.865
21505SOL    HW266413  13.373   0.455  13.934
21506SOL     OW66414   8.603   1.936  13.478
21506SOL    HW166415   8.644   1.868  13.532
21506SOL    HW266416   8.550   1.888  13.414
21507SOL     OW66417  14.875   2.571   2.262
21507SOL    HW166418   0.069   2.531   2.215
21507SOL    HW266419   0.032   2.651   2.300
21508SOL     OW66420   3.130   4.538   9.443
21508SOL    HW166421   3.212   4.507   9.404
21508SOL    HW266422   3.115   4.623   9.403
21509SOL     OW66423  11.087  11.464  10.202
21509SOL    HW166424  11.155  11.500  10.146
21509SOL    HW266425  11.084  11.371  10.179
21510SOL     OW66426   2.955   1.926  12.218
21510SOL    HW166427   2.920   2.005  12.176
21510SOL    HW266428   3.047   1.923  12.190
21511SOL     OW66429   0.895   3.787  10.104
21511SOL    HW166430   0.966   3.827  10.053
21511SOL    HW266431   0.897   3.832  10.188
21512SOL     OW66432   7.017   1.350   1.646
21512SOL    HW166433   6.980   1.277   1.696
21512SOL    HW266434   6.947   1.376   1.586
21513SOL     OW66435   2.277  13.107   7.183
21513SOL    HW166436   2.316  13.189   7.211
21513SOL    HW266437   2.283  13.050   7.259
21514SOL     OW66438  11.869   6.790  14.284
21514SOL    HW166439  11.818   6.871  14.279
21514SOL    HW266440  11.890   6.782  14.377
21515SOL     OW66441  12.414   9.355   4.227
21515SOL    HW166442  12.449   9.316   4.307
21515SOL    HW266443  12.454   9.442   4.224
21516SOL     OW66444   5.051   5.114  13.956
21516SOL    HW166445   4.998   5.180  14.001
21516SOL    HW266446   5.027   5.123  13.864
21517SOL     OW66447   6.460  13.684   1.758
21517SOL    HW166448   6.428  13.613   1.702
21517SOL    HW266449   6.522  13.732   1.704
21518SOL     OW66450   4.297   0.151  13.247
21518SOL    HW166451   4.321   0.092  13.319
21518SOL    HW266452   4.255   0.094  13.182
21519SOL     OW66453   1.864  13.271   4.441
21519SOL    HW166454   1.958  13.256   4.448
21519SOL    HW266455   1.826  13.183   4.443
21520SOL     OW66456   1.781   8.753   5.268
21520SOL    HW166457   1.743   8.829   5.311
21520SOL    HW266458   1.845   8.789   5.207
21521SOL     OW66459   8.130  10.308   9.532
21521SOL    HW166460   8.111  10.334   9.622
21521SOL    HW266461   8.077  10.365   9.478
21522SOL     OW66462   9.888   5.821   2.901
21522SOL    HW166463   9.908   5.876   2.825
21522SOL    HW266464   9.869   5.735   2.863
21523SOL     OW66465  14.433   9.428   6.488
21523SOL    HW166466  14.427   9.495   6.555
21523SOL    HW266467  14.507   9.373   6.515
21524SOL     OW66468   2.252   9.533  12.271
21524SOL    HW166469   2.259   9.595  12.343
21524SOL    HW266470   2.200   9.461  12.306
21525SOL     OW66471   4.908   8.380   6.124
21525SOL    HW166472   4.850   8.391   6.199
21525SOL    HW266473   4.973   8.316   6.154
21526SOL     OW66474  14.572   5.297   3.275
21526SOL    HW166475  14.495   5.247   3.250
21526SOL    HW266476  14.634   5.231   3.306
21527SOL     OW66477   2.458   5.414   0.591
21527SOL    HW166478   2.501   5.359   0.525
21527SOL    HW266479   2.368   5.381   0.593
21528SOL     OW66480   8.165   6.760   7.167
21528SOL    HW166481   8.248   6.770   7.213
21528SOL    HW266482   8.186   6.777   7.075
21529SOL     OW66483  11.292   8.360   4.784
21529SOL    HW166484  11.315   8.289   4.725
21529SOL    HW266485  11.196   8.364   4.780
21530SOL     OW66486   5.164   4.669  12.154
21530SOL    HW166487   5.152   4.755  12.195
21530SOL    HW266488   5.258   4.663  12.139
21531SOL     OW66489  10.068   1.599   8.884
21531SOL    HW166490   9.999   1.565   8.941
21531SOL    HW266491  10.079   1.690   8.911
21532SOL     OW66492   3.723   2.971   9.124
21532SOL    HW166493   3.754   2.882   9.139
21532SOL    HW266494   3.680   2.995   9.206
21533SOL     OW66495   6.595   7.869  12.291
21533SOL    HW166496   6.641   7.952  12.304
21533SOL    HW266497   6.518   7.891  12.240
21534SOL     OW66498   0.762   6.902   7.111
21534SOL    HW166499   0.830   6.899   7.044
21534SOL    HW266500   0.800   6.857   7.186
21535SOL     OW66501  11.557   4.636   9.907
21535SOL    HW166502  11.631   4.685   9.871
21535SOL    HW266503  11.597   4.566   9.958
21536SOL     OW66504  11.528   1.944   3.038
21536SOL    HW166505  11.470   1.884   3.084
21536SOL    HW266506  11.503   2.031   3.071
21537SOL     OW66507   3.673   6.719  10.655
21537SOL    HW166508   3.664   6.687  10.565
21537SOL    HW266509   3.768   6.721  10.670
21538SOL     OW66510  14.541   2.307  13.822
21538SOL    HW166511  14.584   2.316  13.737
21538SOL    HW266512  14.447   2.307  13.801
21539SOL     OW66513  14.417   5.284  13.417
21539SOL    HW166514  14.484   5.232  13.461
21539SOL    HW266515  14.335   5.257  13.457
21540SOL     OW66516   8.811  12.488  10.555
21540SOL    HW166517   8.898  12.458  10.530
21540SOL    HW266518   8.790  12.439  10.635
21541SOL     OW66519   8.212   5.964  12.541
21541SOL    HW166520   8.261   6.044  12.558
21541SOL    HW266521   8.120   5.991  12.548
21542SOL     OW66522  12.410  11.340   1.402
21542SOL    HW166523  12.373  11.427   1.419
21542SOL    HW266524  12.461  11.320   1.480
21543SOL     OW66525   2.497  11.398  12.037
21543SOL    HW166526   2.407  11.378  12.063
21543SOL    HW266527   2.507  11.357  11.951
21544SOL     OW66528   3.238   1.469   7.346
21544SOL    HW166529   3.173   1.528   7.306
21544SOL    HW266530   3.309   1.464   7.281
21545SOL     OW66531  11.884  10.101   9.106
21545SOL    HW166532  11.975  10.128   9.119
21545SOL    HW266533  11.833  10.171   9.147
21546SOL     OW66534   6.645  12.154   8.352
21546SOL    HW166535   6.559  12.112   8.352
21546SOL    HW266536   6.701  12.094   8.400
21547SOL     OW66537   0.683   9.582   8.243
21547SOL    HW166538   0.662   9.536   8.161
21547SOL    HW266539   0.746   9.649   8.217
21548SOL     OW66540   5.760   9.111  14.570
21548SOL    HW166541   5.799   9.157  14.644
21548SOL    HW266542   5.747   9.022  14.602
21549SOL     OW66543   0.954  10.535   5.876
21549SOL    HW166544   0.900  10.602   5.834
21549SOL    HW266545   0.966  10.469   5.807
21550SOL     OW66546   6.638  10.081   5.614
21550SOL    HW166547   6.560  10.040   5.652
21550SOL    HW266548   6.696  10.007   5.594
21551SOL     OW66549   0.511   9.932  12.180
21551SOL    HW166550   0.478   9.855  12.227
21551SOL    HW266551   0.536   9.993  12.249
21552SOL     OW66552  13.521   6.700   4.101
21552SOL    HW166553  13.607   6.714   4.141
21552SOL    HW266554  13.466   6.669   4.172
21553SOL     OW66555   3.808   8.668   8.135
21553SOL    HW166556   3.816   8.763   8.121
21553SOL    HW266557   3.842   8.630   8.054
21554SOL     OW66558   1.648   9.116   2.812
21554SOL    HW166559   1.651   9.207   2.782
21554SOL    HW266560   1.715   9.072   2.760
21555SOL     OW66561   9.235  13.389   3.879
21555SOL    HW166562   9.208  13.399   3.788
21555SOL    HW266563   9.192  13.309   3.909
21556SOL     OW66564   4.195   8.338  10.116
21556SOL    HW166565   4.133   8.283  10.068
21556SOL    HW266566   4.246   8.383  10.049
21557SOL     OW66567   8.504   3.888   7.821
21557SOL    HW166568   8.500   3.967   7.768
21557SOL    HW266569   8.571   3.834   7.779
21558SOL     OW66570   7.568   0.658   3.156
21558SOL    HW166571   7.529   0.573   3.175
21558SOL    HW266572   7.493   0.716   3.143
21559SOL     OW66573  10.749   4.561   5.528
21559SOL    HW166574  10.701   4.541   5.447
21559SOL    HW266575  10.716   4.497   5.591
21560SOL     OW66576  11.947  12.107  11.201
21560SOL    HW166577  11.907  12.068  11.123
21560SOL    HW266578  11.908  12.193  11.208
21561SOL     OW66579  11.251   7.805   0.321
21561SOL    HW166580  11.299   7.862   0.261
21561SOL    HW266581  11.161   7.807   0.290
21562SOL     OW66582   6.842   0.056   0.332
21562SOL    HW166583   6.853  14.843   0.352
21562SOL    HW266584   6.772   0.085   0.390
21563SOL     OW66585   2.547   5.859   3.668
21563SOL    HW166586   2.479   5.921   3.641
21563SOL    HW266587   2.513   5.774   3.640
21564SOL     OW66588   9.687   1.765   8.519
21564SOL    HW166589   9.600   1.783   8.483
21564SOL    HW266590   9.686   1.672   8.538
21565SOL     OW66591   7.917   7.948   1.123
21565SOL    HW166592   7.894   7.972   1.213
21565SOL    HW266593   7.967   8.022   1.090
21566SOL     OW66594   3.341   2.806   9.836
21566SOL    HW166595   3.333   2.761   9.752
21566SOL    HW266596   3.427   2.779   9.870
21567SOL     OW66597   8.829   1.817   1.057
21567SOL    HW166598   8.793   1.864   1.132
21567SOL    HW266599   8.857   1.733   1.091
21568SOL     OW66600   2.560   3.680   6.123
21568SOL    HW166601   2.552   3.773   6.142
21568SOL    HW266602   2.609   3.676   6.041
21569SOL     OW66603   9.707   2.333   6.526
21569SOL    HW166604   9.640   2.266   6.540
21569SOL    HW266605   9.790   2.286   6.527
21570SOL     OW66606   3.079  11.229  14.097
21570SOL    HW166607   3.054  11.137  14.106
21570SOL    HW266608   3.032  11.259  14.019
21571SOL     OW66609   6.070   0.698   8.932
21571SOL    HW166610   6.036   0.662   8.849
21571SOL    HW266611   5.992   0.713   8.985
21572SOL     OW66612   2.580   8.810  12.800
21572SOL    HW166613   2.504   8.803  12.742
21572SOL    HW266614   2.588   8.904  12.817
21573SOL     OW66615  14.343   1.523   9.221
21573SOL    HW166616  14.406   1.528   9.292
21573SOL    HW266617  14.381   1.575   9.150
21574SOL     OW66618   9.273   3.392   0.732
21574SOL    HW166619   9.357   3.350   0.716
21574SOL    HW266620   9.211   3.319   0.736
21575SOL     OW66621  14.369   9.535   7.916
21575SOL    HW166622  14.438   9.469   7.915
21575SOL    HW266623  14.298   9.495   7.966
21576SOL     OW66624   4.258   6.253   0.214
21576SOL    HW166625   4.180   6.199   0.205
21576SOL    HW266626   4.331   6.194   0.193
21577SOL     OW66627  13.287   1.942  12.886
21577SOL    HW166628  13.203   1.985  12.902
21577SOL    HW266629  13.344   1.975  12.956
21578SOL     OW66630   9.546   6.285   1.223
21578SOL    HW166631   9.588   6.215   1.173
21578SOL    HW266632   9.560   6.364   1.171
21579SOL     OW66633   4.903   4.156   3.158
21579SOL    HW166634   4.843   4.081   3.163
21579SOL    HW266635   4.980   4.127   3.207
21580SOL     OW66636  11.679  12.215   2.997
21580SOL    HW166637  11.593  12.186   2.968
21580SOL    HW266638  11.711  12.271   2.926
21581SOL     OW66639   8.719  12.402   7.894
21581SOL    HW166640   8.665  12.329   7.925
21581SOL    HW266641   8.706  12.471   7.960
21582SOL     OW66642   9.994   0.121  11.630
21582SOL    HW166643   9.925   0.068  11.592
21582SOL    HW266644   9.983   0.111  11.725
21583SOL     OW66645  12.629   2.407   0.110
21583SOL    HW166646  12.547   2.454   0.127
21583SOL    HW266647  12.639   2.348   0.185
21584SOL     OW66648   0.324   0.647  10.203
21584SOL    HW166649   0.273   0.684  10.276
21584SOL    HW266650   0.369   0.722  10.166
21585SOL     OW66651   5.145   7.933   7.590
21585SOL    HW166652   5.086   8.007   7.579
21585SOL    HW266653   5.097   7.870   7.644
21586SOL     OW66654  10.779   5.231   3.508
21586SOL    HW166655  10.788   5.173   3.432
21586SOL    HW266656  10.804   5.177   3.583
21587SOL     OW66657   1.029   3.574   9.400
21587SOL    HW166658   0.996   3.490   9.432
21587SOL    HW266659   1.046   3.625   9.480
21588SOL     OW66660  14.818  11.471   9.206
21588SOL    HW166661  14.824  11.390   9.257
21588SOL    HW266662  14.782  11.535   9.268
21589SOL     OW66663   1.259  10.890   5.553
21589SOL    HW166664   1.170  10.913   5.526
21589SOL    HW266665   1.316  10.941   5.495
21590SOL     OW66666   4.886  11.589   5.364
21590SOL    HW166667   4.978  11.594   5.337
21590SOL    HW266668   4.889  11.552   5.452
21591SOL     OW66669   6.994   3.783   9.006
21591SOL    HW166670   6.939   3.712   9.040
21591SOL    HW266671   7.018   3.755   8.918
21592SOL     OW66672   1.040   7.772   8.053
21592SOL    HW166673   1.042   7.737   7.963
21592SOL    HW266674   0.957   7.739   8.089
21593SOL     OW66675   1.393   6.708  10.264
21593SOL    HW166676   1.316   6.753  10.228
21593SOL    HW266677   1.391   6.621  10.225
21594SOL     OW66678   8.270   8.614   2.237
21594SOL    HW166679   8.261   8.685   2.173
21594SOL    HW266680   8.226   8.647   2.316
21595SOL     OW66681   1.381   6.249   6.377
21595SOL    HW166682   1.304   6.200   6.346
21595SOL    HW266683   1.356   6.282   6.463
21596SOL     OW66684   4.218   5.897  14.229
21596SOL    HW166685   4.211   5.983  14.187
21596SOL    HW266686   4.194   5.913  14.320
21597SOL     OW66687   8.070   0.285   5.054
21597SOL    HW166688   8.163   0.274   5.075
21597SOL    HW266689   8.059   0.240   4.970
21598SOL     OW66690   4.693  12.403  10.867
21598SOL    HW166691   4.703  12.498  10.863
21598SOL    HW266692   4.660  12.386  10.955
21599SOL     OW66693  12.126   9.355   4.857
21599SOL    HW166694  12.189   9.339   4.787
21599SOL    HW266695  12.058   9.289   4.844
21600SOL     OW66696   0.593   0.747   2.962
21600SOL    HW166697   0.653   0.687   2.919
21600SOL    HW266698   0.530   0.772   2.894
21601SOL     OW66699  11.894   0.663  11.417
21601SOL    HW166700  11.801   0.650  11.398
21601SOL    HW266701  11.932   0.575  11.412
21602SOL     OW66702  13.268   8.023   9.805
21602SOL    HW166703  13.199   8.066   9.855
21602SOL    HW266704  13.254   7.929   9.821
21603SOL     OW66705  12.130   4.588   2.423
21603SOL    HW166706  12.149   4.580   2.329
21603SOL    HW266707  12.094   4.677   2.432
21604SOL     OW66708  11.517   0.544   9.735
21604SOL    HW166709  11.585   0.488   9.697
21604SOL    HW266710  11.565   0.617   9.774
21605SOL     OW66711  13.195   8.239   3.755
21605SOL    HW166712  13.173   8.259   3.664
21605SOL    HW266713  13.113   8.212   3.794
21606SOL     OW66714  13.357   0.861   0.777
21606SOL    HW166715  13.386   0.946   0.746
21606SOL    HW266716  13.265   0.856   0.754
21607SOL     OW66717   7.758   6.839  14.341
21607SOL    HW166718   7.686   6.812  14.397
21607SOL    HW266719   7.757   6.777  14.268
21608SOL     OW66720  10.952   9.231   4.546
21608SOL    HW166721  10.931   9.277   4.628
21608SOL    HW266722  10.933   9.139   4.565
21609SOL     OW66723  14.413   1.092   4.179
21609SOL    HW166724  14.427   1.119   4.270
21609SOL    HW266725  14.439   1.167   4.127
21610SOL     OW66726   6.076  11.902   3.761
21610SOL    HW166727   6.012  11.959   3.719
21610SOL    HW266728   6.161  11.936   3.733
21611SOL     OW66729   1.101  10.968  14.330
21611SOL    HW166730   1.006  10.973  14.334
21611SOL    HW266731   1.122  10.984  14.238
21612SOL     OW66732   8.317   3.459   1.613
21612SOL    HW166733   8.270   3.445   1.531
21612SOL    HW266734   8.410   3.452   1.589
21613SOL     OW66735   7.584   2.764  13.695
21613SOL    HW166736   7.528   2.690  13.719
21613SOL    HW266737   7.631   2.735  13.617
21614SOL     OW66738  11.388   0.934  13.829
21614SOL    HW166739  11.468   0.983  13.847
21614SOL    HW266740  11.318   0.989  13.863
21615SOL     OW66741   1.227  12.379  10.552
21615SOL    HW166742   1.156  12.432  10.589
21615SOL    HW266743   1.195  12.289  10.557
21616SOL     OW66744  10.904  13.259  10.254
21616SOL    HW166745  10.965  13.309  10.199
21616SOL    HW266746  10.932  13.168  10.245
21617SOL     OW66747   7.159   4.549   7.024
21617SOL    HW166748   7.131   4.630   7.067
21617SOL    HW266749   7.206   4.578   6.946
21618SOL     OW66750   3.504  14.144   9.544
21618SOL    HW166751   3.427  14.088   9.538
21618SOL    HW266752   3.476  14.227   9.504
21619SOL     OW66753  13.689   2.243   3.574
21619SOL    HW166754  13.654   2.249   3.485
21619SOL    HW266755  13.703   2.334   3.600
21620SOL     OW66756   3.845   6.200  13.668
21620SOL    HW166757   3.904   6.148  13.613
21620SOL    HW266758   3.898   6.274  13.697
21621SOL     OW66759   1.658  13.015   6.176
21621SOL    HW166760   1.629  12.924   6.168
21621SOL    HW266761   1.603  13.051   6.247
21622SOL     OW66762  11.045   1.199  10.008
21622SOL    HW166763  11.105   1.235   9.942
21622SOL    HW266764  10.969   1.256  10.005
21623SOL     OW66765   8.445   6.823   2.488
21623SOL    HW166766   8.408   6.886   2.551
21623SOL    HW266767   8.445   6.869   2.405
21624SOL     OW66768  10.756  14.854   3.063
21624SOL    HW166769  10.713  14.768   3.071
21624SOL    HW266770  10.849  14.834   3.068
21625SOL     OW66771   1.997   5.720   3.307
21625SOL    HW166772   2.050   5.725   3.227
21625SOL    HW266773   2.061   5.727   3.378
21626SOL     OW66774   0.062   3.223   2.771
21626SOL    HW166775   0.098   3.311   2.764
21626SOL    HW266776  14.877   3.218   2.701
21627SOL     OW66777  13.344   1.080   5.302
21627SOL    HW166778  13.295   1.149   5.348
21627SOL    HW266779  13.338   1.004   5.360
21628SOL     OW66780  14.558  11.499   3.042
21628SOL    HW166781  14.534  11.519   2.952
21628SOL    HW266782  14.651  11.476   3.037
21629SOL     OW66783   4.891   1.544   3.449
21629SOL    HW166784   4.975   1.548   3.403
21629SOL    HW266785   4.892   1.460   3.495
21630SOL     OW66786  11.927   3.541   2.584
21630SOL    HW166787  11.883   3.623   2.609
21630SOL    HW266788  11.972   3.513   2.664
21631SOL     OW66789  13.690   0.481  12.032
21631SOL    HW166790  13.629   0.472  11.960
21631SOL    HW266791  13.677   0.571  12.063
21632SOL     OW66792   4.171  11.109  10.677
21632SOL    HW166793   4.079  11.129  10.659
21632SOL    HW266794   4.179  11.120  10.772
21633SOL     OW66795  11.190   5.102  14.717
21633SOL    HW166796  11.271   5.093  14.666
21633SOL    HW266797  11.211   5.168  14.783
21634SOL     OW66798   7.038   9.846  11.038
21634SOL    HW166799   7.035   9.933  10.998
21634SOL    HW266800   7.103   9.854  11.108
21635SOL     OW66801   8.871   3.750   2.651
21635SOL    HW166802   8.835   3.834   2.620
21635SOL    HW266803   8.793   3.697   2.671
21636SOL     OW66804   0.056  12.115   3.015
21636SOL    HW166805   0.011  12.173   3.077
21636SOL    HW266806   0.045  12.157   2.930
21637SOL     OW66807   6.135  13.822  10.384
21637SOL    HW166808   6.224  13.789  10.372
21637SOL    HW266809   6.103  13.838  10.295
21638SOL     OW66810   3.774  12.407  12.319
21638SOL    HW166811   3.778  12.312  12.322
21638SOL    HW266812   3.683  12.428  12.339
21639SOL     OW66813  12.222   2.192   7.576
21639SOL    HW166814  12.284   2.226   7.511
21639SOL    HW266815  12.168   2.129   7.528
21640SOL     OW66816  11.636   7.982   0.973
21640SOL    HW166817  11.671   7.963   0.886
21640SOL    HW266818  11.557   8.033   0.956
21641SOL     OW66819   5.221   7.401   6.907
21641SOL    HW166820   5.205   7.323   6.854
21641SOL    HW266821   5.261   7.369   6.988
21642SOL     OW66822   1.591   8.401   8.035
21642SOL    HW166823   1.632   8.338   8.093
21642SOL    HW266824   1.536   8.348   7.977
21643SOL     OW66825  10.631   9.032   2.173
21643SOL    HW166826  10.666   9.116   2.205
21643SOL    HW266827  10.674   8.966   2.227
21644SOL     OW66828   2.446   0.789   7.889
21644SOL    HW166829   2.537   0.796   7.861
21644SOL    HW266830   2.409   0.876   7.872
21645SOL     OW66831   5.241   2.582  14.282
21645SOL    HW166832   5.165   2.574  14.225
21645SOL    HW266833   5.206   2.617  14.364
21646SOL     OW66834  12.269  14.312  12.436
21646SOL    HW166835  12.251  14.377  12.504
21646SOL    HW266836  12.204  14.243  12.451
21647SOL     OW66837   0.571   5.289   7.132
21647SOL    HW166838   0.590   5.284   7.039
21647SOL    HW266839   0.655   5.274   7.175
21648SOL     OW66840   4.713   8.977   9.709
21648SOL    HW166841   4.729   9.021   9.792
21648SOL    HW266842   4.618   8.960   9.709
21649SOL     OW66843  14.183   7.007  11.245
21649SOL    HW166844  14.271   6.996  11.281
21649SOL    HW266845  14.189   6.971  11.156
21650SOL     OW66846  12.524   2.690   8.230
21650SOL    HW166847  12.435   2.657   8.214
21650SOL    HW266848  12.516   2.785   8.223
21651SOL     OW66849  14.562  10.109  10.865
21651SOL    HW166850  14.515  10.041  10.818
21651SOL    HW266851  14.572  10.075  10.954
21652SOL     OW66852  13.280  12.372   0.871
21652SOL    HW166853  13.243  12.352   0.957
21652SOL    HW266854  13.204  12.374   0.812
21653SOL     OW66855   6.536  12.828  11.340
21653SOL    HW166856   6.624  12.807  11.307
21653SOL    HW266857   6.546  12.826  11.436
21654SOL     OW66858   7.796  11.701   8.331
21654SOL    HW166859   7.891  11.715   8.341
21654SOL    HW266860   7.781  11.615   8.371
21655SOL     OW66861   9.274   9.216  13.877
21655SOL    HW166862   9.224   9.200  13.957
21655SOL    HW266863   9.353   9.162  13.887
21656SOL     OW66864   5.256   4.656   8.951
21656SOL    HW166865   5.289   4.739   8.986
21656SOL    HW266866   5.268   4.663   8.856
21657SOL     OW66867   1.028   7.461  11.666
21657SOL    HW166868   1.026   7.369  11.640
21657SOL    HW266869   1.092   7.501  11.607
21658SOL     OW66870  10.360   0.315  13.385
21658SOL    HW166871  10.319   0.338  13.302
21658SOL    HW266872  10.446   0.358  13.382
21659SOL     OW66873  10.961   0.254   3.640
21659SOL    HW166874  10.905   0.222   3.712
21659SOL    HW266875  11.031   0.188   3.634
21660SOL     OW66876   9.816   6.916   9.917
21660SOL    HW166877   9.844   6.828   9.941
21660SOL    HW266878   9.854   6.972   9.985
21661SOL     OW66879   2.690   6.298   5.148
21661SOL    HW166880   2.756   6.366   5.135
21661SOL    HW266881   2.708   6.234   5.080
21662SOL     OW66882   5.093   7.965  10.002
21662SOL    HW166883   5.086   7.877   9.965
21662SOL    HW266884   5.145   8.014   9.938
21663SOL     OW66885  12.291  13.738   5.301
21663SOL    HW166886  12.212  13.685   5.310
21663SOL    HW266887  12.363  13.677   5.315
21664SOL     OW66888   4.559   9.316  11.334
21664SOL    HW166889   4.517   9.364  11.263
21664SOL    HW266890   4.550   9.374  11.410
21665SOL     OW66891   9.365   4.124  10.440
21665SOL    HW166892   9.443   4.149  10.390
21665SOL    HW266893   9.291   4.151  10.386
21666SOL     OW66894  10.477  10.592   3.939
21666SOL    HW166895  10.564  10.607   3.977
21666SOL    HW266896  10.430  10.543   4.006
21667SOL     OW66897  11.130  10.115   5.906
21667SOL    HW166898  11.072  10.190   5.921
21667SOL    HW266899  11.122  10.097   5.813
21668SOL     OW66900  12.421  11.884  10.219
21668SOL    HW166901  12.498  11.836  10.187
21668SOL    HW266902  12.350  11.821  10.215
21669SOL     OW66903   9.718  13.254  12.149
21669SOL    HW166904   9.814  13.247  12.150
21669SOL    HW266905   9.689  13.173  12.105
21670SOL     OW66906  12.408   9.885   1.464
21670SOL    HW166907  12.366   9.959   1.509
21670SOL    HW266908  12.370   9.887   1.376
21671SOL     OW66909   8.187   2.272  10.546
21671SOL    HW166910   8.135   2.205  10.501
21671SOL    HW266911   8.273   2.231  10.557
21672SOL     OW66912  14.266  12.432   6.346
21672SOL    HW166913  14.234  12.488   6.276
21672SOL    HW266914  14.353  12.405   6.316
21673SOL     OW66915  13.266   0.207   6.405
21673SOL    HW166916  13.320   0.162   6.470
21673SOL    HW266917  13.297   0.173   6.321
21674SOL     OW66918   1.860   9.442   4.028
21674SOL    HW166919   1.785   9.498   4.008
21674SOL    HW266920   1.936   9.490   3.993
21675SOL     OW66921  10.700   7.482   1.967
21675SOL    HW166922  10.622   7.538   1.964
21675SOL    HW266923  10.756   7.515   1.897
21676SOL     OW66924   0.076   1.359   1.203
21676SOL    HW166925   0.019   1.365   1.280
21676SOL    HW266926   0.030   1.299   1.144
21677SOL     OW66927   9.347   0.101   7.323
21677SOL    HW166928   9.375   0.099   7.415
21677SOL    HW266929   9.315   0.013   7.306
21678SOL     OW66930  13.854   2.322   9.547
21678SOL    HW166931  13.842   2.227   9.547
21678SOL    HW266932  13.766   2.358   9.541
21679SOL     OW66933  11.217  11.836   1.014
21679SOL    HW166934  11.283  11.775   0.984
21679SOL    HW266935  11.266  11.903   1.062
21680SOL     OW66936  12.016  14.630   6.174
21680SOL    HW166937  12.069  14.709   6.190
21680SOL    HW266938  12.067  14.559   6.212
21681SOL     OW66939  10.888  13.211   6.951
21681SOL    HW166940  10.868  13.265   6.874
21681SOL    HW266941  10.900  13.274   7.022
21682SOL     OW66942   8.608   3.598   5.374
21682SOL    HW166943   8.684   3.615   5.429
21682SOL    HW266944   8.535   3.639   5.420
21683SOL     OW66945   8.376  14.826  13.624
21683SOL    HW166946   8.318  14.829  13.548
21683SOL    HW266947   8.384   0.038  13.651
21684SOL     OW66948   8.528   5.612   7.808
21684SOL    HW166949   8.514   5.518   7.813
21684SOL    HW266950   8.621   5.622   7.787
21685SOL     OW66951   7.359   1.434   9.583
21685SOL    HW166952   7.299   1.470   9.518
21685SOL    HW266953   7.356   1.339   9.569
21686SOL     OW66954   6.481   1.510   9.206
21686SOL    HW166955   6.542   1.554   9.146
21686SOL    HW266956   6.397   1.555   9.191
21687SOL     OW66957   2.923   9.084   7.241
21687SOL    HW166958   2.852   9.023   7.257
21687SOL    HW266959   2.962   9.098   7.328
21688SOL     OW66960  10.903  11.450   3.352
21688SOL    HW166961  10.931  11.365   3.317
21688SOL    HW266962  10.841  11.427   3.422
21689SOL     OW66963  13.707   9.107   9.159
21689SOL    HW166964  13.645   9.055   9.209
21689SOL    HW266965  13.663   9.191   9.147
21690SOL     OW66966  13.526  11.500   3.275
21690SOL    HW166967  13.554  11.586   3.244
21690SOL    HW266968  13.567  11.492   3.361
21691SOL     OW66969   8.480  10.698   3.194
21691SOL    HW166970   8.537  10.691   3.271
21691SOL    HW266971   8.540  10.702   3.120
21692SOL     OW66972  13.053   0.585   7.873
21692SOL    HW166973  12.968   0.570   7.914
21692SOL    HW266974  13.043   0.548   7.785
21693SOL     OW66975   4.266   8.640   6.198
21693SOL    HW166976   4.188   8.602   6.159
21693SOL    HW266977   4.303   8.696   6.130
21694SOL     OW66978   5.900   5.765   9.378
21694SOL    HW166979   5.893   5.771   9.282
21694SOL    HW266980   5.988   5.732   9.393
21695SOL     OW66981   7.640   2.577   2.951
21695SOL    HW166982   7.637   2.507   2.885
21695SOL    HW266983   7.576   2.641   2.921
21696SOL     OW66984   6.042   3.307   5.919
21696SOL    HW166985   6.123   3.262   5.895
21696SOL    HW266986   6.068   3.371   5.985
21697SOL     OW66987   6.803  14.354   1.398
21697SOL    HW166988   6.747  14.412   1.346
21697SOL    HW266989   6.850  14.301   1.333
21698SOL     OW66990  12.747   4.414  13.869
21698SOL    HW166991  12.697   4.364  13.934
21698SOL    HW266992  12.698   4.495  13.859
21699SOL     OW66993   7.664  11.123  13.025
21699SOL    HW166994   7.708  11.150  12.944
21699SOL    HW266995   7.619  11.042  13.001
21700SOL     OW66996   0.937   2.028  12.920
21700SOL    HW166997   0.875   2.035  12.993
21700SOL    HW266998   0.881   2.018  12.843
21701SOL     OW66999   0.294  12.946   2.056
21701SOL    HW167000   0.301  13.009   1.984
21701SOL    HW267001   0.255  12.868   2.015
21702SOL     OW67002   7.818   7.520  14.691
21702SOL    HW167003   7.892   7.546  14.747
21702SOL    HW267004   7.765   7.463  14.747
21703SOL     OW67005   0.220  13.688   6.830
21703SOL    HW167006   0.265  13.615   6.874
21703SOL    HW267007   0.175  13.734   6.901
21704SOL     OW67008   0.596   6.414  10.779
21704SOL    HW167009   0.547   6.332  10.777
21704SOL    HW267010   0.671   6.398  10.722
21705SOL     OW67011   2.041   9.897   5.209
21705SOL    HW167012   1.968   9.902   5.147
21705SOL    HW267013   2.103   9.964   5.178
21706SOL     OW67014   2.097  11.628   2.697
21706SOL    HW167015   2.110  11.647   2.604
21706SOL    HW267016   2.186  11.622   2.733
21707SOL     OW67017  10.204   9.935   5.697
21707SOL    HW167018  10.224  10.015   5.648
21707SOL    HW267019  10.116   9.949   5.732
21708SOL     OW67020  14.845   3.702   1.272
21708SOL    HW167021   0.048   3.730   1.312
21708SOL    HW267022  14.843   3.607   1.285
21709SOL     OW67023  14.320   9.647   4.083
21709SOL    HW167024  14.237   9.675   4.123
21709SOL    HW267025  14.371   9.611   4.156
21710SOL     OW67026   0.149   9.121   2.859
21710SOL    HW167027   0.208   9.048   2.877
21710SOL    HW267028   0.061   9.084   2.864
21711SOL     OW67029   6.648   3.747   1.975
21711SOL    HW167030   6.701   3.774   1.900
21711SOL    HW267031   6.558   3.767   1.950
21712SOL     OW67032   9.139  14.860  14.507
21712SOL    HW167033   9.215  14.803  14.494
21712SOL    HW267034   9.065  14.809  14.475
21713SOL     OW67035  10.532   4.938   4.759
21713SOL    HW167036  10.575   4.854   4.748
21713SOL    HW267037  10.455   4.933   4.703
21714SOL     OW67038   5.618  12.204   2.624
21714SOL    HW167039   5.629  12.260   2.701
21714SOL    HW267040   5.529  12.222   2.594
21715SOL     OW67041   8.268   9.211  11.149
21715SOL    HW167042   8.240   9.193  11.239
21715SOL    HW267043   8.313   9.131  11.122
21716SOL     OW67044   8.478  10.061   0.728
21716SOL    HW167045   8.558  10.012   0.746
21716SOL    HW267046   8.408   9.996   0.735
21717SOL     OW67047  13.620   6.616   6.348
21717SOL    HW167048  13.540   6.669   6.351
21717SOL    HW267049  13.671   6.647   6.423
21718SOL     OW67050   3.462   3.388   0.916
21718SOL    HW167051   3.531   3.418   0.856
21718SOL    HW267052   3.501   3.315   0.963
21719SOL     OW67053   9.353   9.450   0.708
21719SOL    HW167054   9.419   9.382   0.726
21719SOL    HW267055   9.324   9.477   0.795
21720SOL     OW67056   6.836   9.384  13.577
21720SOL    HW167057   6.903   9.316  13.582
21720SOL    HW267058   6.789   9.377  13.660
21721SOL     OW67059   4.339   1.705   4.305
21721SOL    HW167060   4.267   1.732   4.249
21721SOL    HW267061   4.361   1.783   4.355
21722SOL     OW67062  14.444  13.053  10.189
21722SOL    HW167063  14.539  13.054  10.179
21722SOL    HW267064  14.411  13.022  10.105
21723SOL     OW67065   4.296   0.637   1.138
21723SOL    HW167066   4.315   0.664   1.048
21723SOL    HW267067   4.355   0.689   1.192
21724SOL     OW67068   5.105   0.418   6.814
21724SOL    HW167069   5.111   0.487   6.748
21724SOL    HW267070   5.177   0.438   6.875
21725SOL     OW67071   5.119  11.719   4.268
21725SOL    HW167072   5.134  11.642   4.322
21725SOL    HW267073   5.042  11.762   4.306
21726SOL     OW67074   6.711  12.199  10.827
21726SOL    HW167075   6.771  12.126  10.845
21726SOL    HW267076   6.679  12.182  10.738
21727SOL     OW67077   4.997  14.076  14.094
21727SOL    HW167078   4.955  14.160  14.110
21727SOL    HW267079   4.956  14.016  14.157
21728SOL     OW67080  14.530  13.908   0.042
21728SOL    HW167081  14.566  13.995   0.021
21728SOL    HW267082  14.435  13.920   0.037
21729SOL     OW67083  11.006   9.622  11.841
21729SOL    HW167084  11.037   9.608  11.751
21729SOL    HW267085  10.921   9.664  11.830
21730SOL     OW67086   9.307   8.810   0.509
21730SOL    HW167087   9.302   8.791   0.415
21730SOL    HW267088   9.267   8.897   0.517
21731SOL     OW67089   4.181   2.065   0.017
21731SOL    HW167090   4.135   2.142   0.052
21731SOL    HW267091   4.219   2.096  14.814
21732SOL     OW67092   0.564  14.204   8.488
21732SOL    HW167093   0.474  14.175   8.504
21732SOL    HW267094   0.597  14.228   8.574
21733SOL     OW67095  12.382   8.282  10.486
21733SOL    HW167096  12.421   8.195  10.479
21733SOL    HW267097  12.416   8.330  10.411
21734SOL     OW67098   8.061  13.457  11.036
21734SOL    HW167099   7.995  13.492  11.096
21734SOL    HW267100   8.084  13.532  10.980
21735SOL     OW67101  10.963   4.048   9.482
21735SOL    HW167102  10.994   3.964   9.449
21735SOL    HW267103  11.017   4.113   9.436
21736SOL     OW67104   9.139   9.238   0.126
21736SOL    HW167105   9.124   9.262   0.035
21736SOL    HW267106   9.212   9.293   0.153
21737SOL     OW67107   4.787   8.760  14.365
21737SOL    HW167108   4.881   8.757  14.344
21737SOL    HW267109   4.744   8.733  14.284
21738SOL     OW67110  12.559   7.418   1.122
21738SOL    HW167111  12.577   7.465   1.041
21738SOL    HW267112  12.612   7.339   1.116
21739SOL     OW67113   4.597   9.653  14.579
21739SOL    HW167114   4.576   9.746  14.585
21739SOL    HW267115   4.516   9.608  14.606
21740SOL     OW67116   6.249   7.591   7.090
21740SOL    HW167117   6.246   7.609   7.184
21740SOL    HW267118   6.328   7.539   7.079
21741SOL     OW67119   8.975   8.903  14.051
21741SOL    HW167120   9.004   8.980  14.101
21741SOL    HW267121   8.891   8.928  14.015
21742SOL     OW67122   3.373  10.036   1.381
21742SOL    HW167123   3.397   9.985   1.458
21742SOL    HW267124   3.281  10.059   1.394
21743SOL     OW67125  11.897   2.988   3.059
21743SOL    HW167126  11.835   2.925   3.096
21743SOL    HW267127  11.867   3.073   3.093
21744SOL     OW67128   1.668   7.913   0.009
21744SOL    HW167129   1.675   7.843  14.823
21744SOL    HW267130   1.574   7.926   0.021
21745SOL     OW67131  12.616  14.562  13.466
21745SOL    HW167132  12.638  14.580  13.557
21745SOL    HW267133  12.548  14.626  13.445
21746SOL     OW67134   7.707   8.500   0.623
21746SOL    HW167135   7.734   8.519   0.712
21746SOL    HW267136   7.630   8.443   0.633
21747SOL     OW67137  11.777   5.919   2.831
21747SOL    HW167138  11.743   5.901   2.919
21747SOL    HW267139  11.703   5.958   2.785
21748SOL     OW67140   0.969   3.476  13.913
21748SOL    HW167141   0.900   3.540  13.895
21748SOL    HW267142   0.922   3.398  13.942
21749SOL     OW67143   1.446   8.298   4.228
21749SOL    HW167144   1.483   8.358   4.294
21749SOL    HW267145   1.500   8.312   4.150
21750SOL     OW67146   8.623   9.963   0.061
21750SOL    HW167147   8.586   9.880   0.092
21750SOL    HW267148   8.589   9.972  14.851
21751SOL     OW67149  11.687  11.621   6.258
21751SOL    HW167150  11.745  11.618   6.182
21751SOL    HW267151  11.734  11.572   6.325
21752SOL     OW67152   7.442  13.943   3.039
21752SOL    HW167153   7.496  13.944   3.118
21752SOL    HW267154   7.421  13.850   3.025
21753SOL     OW67155   5.049   0.075   7.801
21753SOL    HW167156   5.136   0.051   7.769
21753SOL    HW267157   5.065   0.112   7.888
21754SOL     OW67158   4.975   8.005   1.206
21754SOL    HW167159   5.060   7.966   1.224
21754SOL    HW267160   4.955   7.981   1.116
21755SOL     OW67161  11.284  14.397   5.499
21755SOL    HW167162  11.336  14.452   5.557
21755SOL    HW267163  11.348  14.350   5.446
21756SOL     OW67164  10.663   8.234   9.435
21756SOL    HW167165  10.687   8.285   9.512
21756SOL    HW267166  10.668   8.143   9.462
21757SOL     OW67167  13.010   8.543  12.817
21757SOL    HW167168  12.966   8.600  12.880
21757SOL    HW267169  13.101   8.540  12.847
21758SOL     OW67170  12.752  11.772   7.515
21758SOL    HW167171  12.666  11.731   7.527
21758SOL    HW267172  12.796  11.757   7.599
21759SOL     OW67173   9.762   5.505   1.422
21759SOL    HW167174   9.856   5.500   1.401
21759SOL    HW267175   9.724   5.551   1.348
21760SOL     OW67176   9.047  12.562   5.136
21760SOL    HW167177   8.970  12.522   5.095
21760SOL    HW267178   9.040  12.539   5.229
21761SOL     OW67179   6.807  11.518   8.891
21761SOL    HW167180   6.763  11.438   8.865
21761SOL    HW267181   6.832  11.504   8.982
21762SOL     OW67182  11.184   0.694   4.139
21762SOL    HW167183  11.210   0.664   4.051
21762SOL    HW267184  11.097   0.657   4.151
21763SOL     OW67185   6.551   8.491   8.591
21763SOL    HW167186   6.485   8.422   8.583
21763SOL    HW267187   6.616   8.472   8.524
21764SOL     OW67188   5.858  14.761  10.596
21764SOL    HW167189   5.892  14.841  10.635
21764SOL    HW267190   5.860  14.778  10.501
21765SOL     OW67191   0.210  13.062  13.774
21765SOL    HW167192   0.156  13.083  13.850
21765SOL    HW267193   0.234  13.147  13.737
21766SOL     OW67194   2.384   0.763   9.372
21766SOL    HW167195   2.417   0.702   9.307
21766SOL    HW267196   2.321   0.712   9.424
21767SOL     OW67197   6.595   7.694   6.912
21767SOL    HW167198   6.664   7.757   6.888
21767SOL    HW267199   6.633   7.644   6.985
21768SOL     OW67200   8.151   4.650   5.870
21768SOL    HW167201   8.224   4.595   5.898
21768SOL    HW267202   8.184   4.697   5.793
21769SOL     OW67203   0.078   2.608   9.354
21769SOL    HW167204   0.065   2.580   9.263
21769SOL    HW267205   0.069   2.528   9.405
21770SOL     OW67206   1.372   0.799   6.695
21770SOL    HW167207   1.426   0.743   6.640
21770SOL    HW267208   1.303   0.831   6.636
21771SOL     OW67209   6.774   1.494   7.220
21771SOL    HW167210   6.786   1.470   7.312
21771SOL    HW267211   6.822   1.427   7.171
21772SOL     OW67212  10.135   1.821   8.377
21772SOL    HW167213  10.170   1.906   8.348
21772SOL    HW267214  10.070   1.844   8.444
21773SOL     OW67215   1.111  14.269   4.584
21773SOL    HW167216   1.051  14.315   4.642
21773SOL    HW267217   1.191  14.257   4.635
21774SOL     OW67218   2.660  12.634  12.697
21774SOL    HW167219   2.739  12.582  12.706
21774SOL    HW267220   2.597  12.593  12.756
21775SOL     OW67221  14.388   6.486  13.286
21775SOL    HW167222  14.457   6.465  13.224
21775SOL    HW267223  14.337   6.406  13.293
21776SOL     OW67224   3.385   4.027   1.606
21776SOL    HW167225   3.304   3.996   1.565
21776SOL    HW267226   3.422   3.950   1.649
21777SOL     OW67227   6.491  13.708  12.064
21777SOL    HW167228   6.405  13.667  12.050
21777SOL    HW267229   6.491  13.733  12.156
21778SOL     OW67230   4.796  14.781   7.473
21778SOL    HW167231   4.804  14.874   7.454
21778SOL    HW267232   4.725  14.751   7.416
21779SOL     OW67233   9.815   9.737  11.964
21779SOL    HW167234   9.852   9.672  12.023
21779SOL    HW267235   9.740   9.773  12.010
21780SOL     OW67236   3.719   2.547  14.559
21780SOL    HW167237   3.708   2.525  14.652
21780SOL    HW267238   3.635   2.527  14.520
21781SOL     OW67239   0.583   5.201  13.657
21781SOL    HW167240   0.630   5.159  13.729
21781SOL    HW267241   0.547   5.129  13.606
21782SOL     OW67242  10.481  11.056   8.667
21782SOL    HW167243  10.442  11.048   8.754
21782SOL    HW267244  10.446  11.138   8.632
21783SOL     OW67245   4.887   0.222   7.629
21783SOL    HW167246   4.912   0.149   7.686
21783SOL    HW267247   4.949   0.292   7.652
21784SOL     OW67248   7.814   7.609   6.260
21784SOL    HW167249   7.819   7.681   6.198
21784SOL    HW267250   7.899   7.564   6.252
21785SOL     OW67251  14.463  10.562  10.311
21785SOL    HW167252  14.480  10.470  10.290
21785SOL    HW267253  14.518  10.611  10.250
21786SOL     OW67254   6.281  13.384  13.050
21786SOL    HW167255   6.186  13.376  13.037
21786SOL    HW267256   6.290  13.455  13.114
21787SOL     OW67257   1.510  11.515   4.289
21787SOL    HW167258   1.462  11.593   4.261
21787SOL    HW267259   1.464  11.443   4.246
21788SOL     OW67260   8.082   4.406   9.983
21788SOL    HW167261   8.071   4.436   9.893
21788SOL    HW267262   8.000   4.361  10.003
21789SOL     OW67263  13.349   0.807   4.134
21789SOL    HW167264  13.400   0.833   4.211
21789SOL    HW267265  13.262   0.789   4.169
21790SOL     OW67266  13.435  13.768   4.329
21790SOL    HW167267  13.391  13.808   4.404
21790SOL    HW267268  13.512  13.822   4.314
21791SOL     OW67269   1.661   9.758  13.596
21791SOL    HW167270   1.677   9.719  13.510
21791SOL    HW267271   1.650   9.684  13.655
21792SOL     OW67272  12.359   3.188   8.069
21792SOL    HW167273  12.276   3.159   8.032
21792SOL    HW267274  12.343   3.279   8.095
21793SOL     OW67275   9.403  10.647   0.523
21793SOL    HW167276   9.361  10.711   0.582
21793SOL    HW267277   9.347  10.647   0.446
21794SOL     OW67278   8.044  10.920  10.603
21794SOL    HW167279   8.127  10.955  10.569
21794SOL    HW267280   7.977  10.961  10.549
21795SOL     OW67281   2.102  10.004  14.683
21795SOL    HW167282   2.068   9.950  14.755
21795SOL    HW267283   2.177  10.050  14.721
21796SOL     OW67284  11.662  13.055  14.543
21796SOL    HW167285  11.679  13.022  14.455
21796SOL    HW267286  11.738  13.110  14.562
21797SOL     OW67287  10.809   5.171  13.726
21797SOL    HW167288  10.833   5.212  13.643
21797SOL    HW267289  10.746   5.231  13.766
21798SOL     OW67290   8.475   3.683  11.653
21798SOL    HW167291   8.540   3.746  11.683
21798SOL    HW267292   8.526   3.618  11.604
21799SOL     OW67293   0.520   7.665   3.877
21799SOL    HW167294   0.583   7.594   3.887
21799SOL    HW267295   0.456   7.650   3.948
21800SOL     OW67296  13.539   6.359   1.115
21800SOL    HW167297  13.565   6.407   1.037
21800SOL    HW267298  13.569   6.413   1.188
21801SOL     OW67299   3.613  10.825  10.286
21801SOL    HW167300   3.577  10.866  10.207
21801SOL    HW267301   3.703  10.857  10.291
21802SOL     OW67302   2.912   6.137   7.676
21802SOL    HW167303   2.881   6.077   7.607
21802SOL    HW267304   2.883   6.223   7.647
21803SOL     OW67305  12.876   7.753   2.235
21803SOL    HW167306  12.914   7.832   2.198
21803SOL    HW267307  12.933   7.682   2.204
21804SOL     OW67308   0.354   2.271  13.913
21804SOL    HW167309   0.354   2.295  13.821
21804SOL    HW267310   0.266   2.293  13.944
21805SOL     OW67311   0.836   8.182  10.671
21805SOL    HW167312   0.922   8.146  10.650
21805SOL    HW267313   0.779   8.150  10.601
21806SOL     OW67314   6.298   0.717   7.932
21806SOL    HW167315   6.342   0.652   7.878
21806SOL    HW267316   6.317   0.801   7.890
21807SOL     OW67317  10.526  10.251   2.734
21807SOL    HW167318  10.531  10.265   2.639
21807SOL    HW267319  10.477  10.326   2.767
21808SOL     OW67320  10.992   5.109   7.957
21808SOL    HW167321  10.952   5.047   7.896
21808SOL    HW267322  11.043   5.168   7.901
21809SOL     OW67323   3.518   9.179   5.876
21809SOL    HW167324   3.519   9.099   5.823
21809SOL    HW267325   3.605   9.184   5.914
21810SOL     OW67326  10.329  12.529  13.181
21810SOL    HW167327  10.248  12.479  13.187
21810SOL    HW267328  10.369  12.523  13.268
21811SOL     OW67329  11.734   6.878   6.596
21811SOL    HW167330  11.641   6.879   6.578
21811SOL    HW267331  11.744   6.931   6.675
21812SOL     OW67332  10.772  12.589  14.477
21812SOL    HW167333  10.699  12.552  14.526
21812SOL    HW267334  10.754  12.567  14.386
21813SOL     OW67335  14.856   9.712   6.488
21813SOL    HW167336   0.055   9.676   6.528
21813SOL    HW267337   0.000   9.802   6.465
21814SOL     OW67338  11.711   7.040  10.802
21814SOL    HW167339  11.629   7.089  10.806
21814SOL    HW267340  11.700   6.971  10.867
21815SOL     OW67341   3.325  14.564   1.855
21815SOL    HW167342   3.287  14.538   1.771
21815SOL    HW267343   3.251  14.594   1.907
21816SOL     OW67344   8.671   6.495  14.131
21816SOL    HW167345   8.603   6.446  14.178
21816SOL    HW267346   8.732   6.522  14.200
21817SOL     OW67347  14.463   1.144  12.246
21817SOL    HW167348  14.541   1.191  12.217
21817SOL    HW267349  14.496   1.079  12.308
21818SOL     OW67350   3.398  11.169   2.811
21818SOL    HW167351   3.452  11.173   2.889
21818SOL    HW267352   3.426  11.244   2.758
21819SOL     OW67353   3.953   4.395   7.044
21819SOL    HW167354   3.897   4.335   7.092
21819SOL    HW267355   3.972   4.350   6.961
21820SOL     OW67356  13.919   8.083   0.315
21820SOL    HW167357  13.830   8.118   0.321
21820SOL    HW267358  13.910   7.990   0.338
21821SOL     OW67359   4.991   2.780  13.599
21821SOL    HW167360   4.924   2.779  13.531
21821SOL    HW267361   5.068   2.817  13.556
21822SOL     OW67362   2.117   2.025   1.402
21822SOL    HW167363   2.091   2.117   1.407
21822SOL    HW267364   2.117   2.006   1.308
21823SOL     OW67365   7.760   6.893  10.506
21823SOL    HW167366   7.671   6.924  10.495
21823SOL    HW267367   7.775   6.895  10.601
21824SOL     OW67368   2.290   6.202   1.748
21824SOL    HW167369   2.310   6.115   1.784
21824SOL    HW267370   2.296   6.190   1.653
21825SOL     OW67371   5.288   8.234   4.715
21825SOL    HW167372   5.204   8.207   4.677
21825SOL    HW267373   5.290   8.329   4.705
21826SOL     OW67374   3.003  13.435   4.225
21826SOL    HW167375   3.097  13.440   4.244
21826SOL    HW267376   2.975  13.526   4.219
21827SOL     OW67377  13.507  10.699  13.669
21827SOL    HW167378  13.473  10.621  13.625
21827SOL    HW267379  13.602  10.689  13.666
21828SOL     OW67380   1.026  10.718  11.446
21828SOL    HW167381   0.946  10.760  11.414
21828SOL    HW267382   1.064  10.677  11.369
21829SOL     OW67383  11.564   5.977   9.366
21829SOL    HW167384  11.597   5.991   9.277
21829SOL    HW267385  11.615   6.037   9.420
21830SOL     OW67386   3.458   0.177   8.074
21830SOL    HW167387   3.496   0.250   8.124
21830SOL    HW267388   3.365   0.196   8.072
21831SOL     OW67389   8.837   4.987  11.620
21831SOL    HW167390   8.922   5.028  11.600
21831SOL    HW267391   8.778   5.022  11.553
21832SOL     OW67392   0.613   7.931  10.154
21832SOL    HW167393   0.676   8.003  10.160
21832SOL    HW267394   0.594   7.923  10.060
21833SOL     OW67395  10.556   2.965   4.295
21833SOL    HW167396  10.636   2.913   4.286
21833SOL    HW267397  10.577   3.049   4.255
21834SOL     OW67398   8.998   4.733  11.636
21834SOL    HW167399   8.902   4.739  11.643
21834SOL    HW267400   9.012   4.687  11.553
21835SOL     OW67401  12.464  12.320   3.510
21835SOL    HW167402  12.450  12.331   3.416
21835SOL    HW267403  12.451  12.226   3.525
21836SOL     OW67404   8.329   2.249   2.857
21836SOL    HW167405   8.285   2.284   2.934
21836SOL    HW267406   8.419   2.233   2.886
21837SOL     OW67407   3.532   6.821   8.281
21837SOL    HW167408   3.467   6.772   8.230
21837SOL    HW267409   3.489   6.905   8.298
21838SOL     OW67410   6.262   0.314   0.346
21838SOL    HW167411   6.295   0.317   0.256
21838SOL    HW267412   6.339   0.333   0.400
21839SOL     OW67413   6.247   1.552   7.497
21839SOL    HW167414   6.298   1.608   7.439
21839SOL    HW267415   6.290   1.562   7.583
21840SOL     OW67416  13.536   5.435  10.309
21840SOL    HW167417  13.621   5.472  10.334
21840SOL    HW267418  13.541   5.343  10.335
21841SOL     OW67419  12.202   2.461   4.271
21841SOL    HW167420  12.162   2.441   4.186
21841SOL    HW267421  12.162   2.544   4.297
21842SOL     OW67422   6.800   6.923  14.148
21842SOL    HW167423   6.781   6.844  14.097
21842SOL    HW267424   6.832   6.986  14.083
21843SOL     OW67425  11.737   8.608  14.335
21843SOL    HW167426  11.768   8.692  14.367
21843SOL    HW267427  11.686   8.571  14.407
21844SOL     OW67428  12.446  10.216   4.310
21844SOL    HW167429  12.509  10.274   4.268
21844SOL    HW267430  12.388  10.188   4.240
21845SOL     OW67431   5.594   2.221   2.570
21845SOL    HW167432   5.592   2.275   2.491
21845SOL    HW267433   5.687   2.216   2.594
21846SOL     OW67434   4.166   3.030  14.436
21846SOL    HW167435   4.207   3.111  14.465
21846SOL    HW267436   4.074   3.040  14.459
21847SOL     OW67437   6.508  10.992  11.044
21847SOL    HW167438   6.558  10.929  10.992
21847SOL    HW267439   6.429  10.944  11.071
21848SOL     OW67440  12.784   4.213  12.495
21848SOL    HW167441  12.845   4.146  12.525
21848SOL    HW267442  12.820   4.295  12.529
21849SOL     OW67443  11.840   4.404  13.229
21849SOL    HW167444  11.783   4.329  13.216
21849SOL    HW267445  11.922   4.381  13.184
21850SOL     OW67446   6.351   4.320   4.869
21850SOL    HW167447   6.427   4.317   4.928
21850SOL    HW267448   6.359   4.240   4.816
21851SOL     OW67449   7.789   0.650   0.480
21851SOL    HW167450   7.821   0.698   0.404
21851SOL    HW267451   7.746   0.717   0.534
21852SOL     OW67452   2.362   8.480  14.038
21852SOL    HW167453   2.338   8.543  13.970
21852SOL    HW267454   2.392   8.403  13.990
21853SOL     OW67455   1.282   4.236   4.213
21853SOL    HW167456   1.237   4.151   4.223
21853SOL    HW267457   1.375   4.215   4.223
21854SOL     OW67458  14.843   1.380  14.833
21854SOL    HW167459   0.008   1.440   0.013
21854SOL    HW267460  14.780   1.435  14.785
21855SOL     OW67461   6.828  12.393   8.575
21855SOL    HW167462   6.839  12.430   8.487
21855SOL    HW267463   6.916  12.399   8.614
21856SOL     OW67464   2.412   5.272   4.842
21856SOL    HW167465   2.400   5.360   4.807
21856SOL    HW267466   2.487   5.279   4.901
21857SOL     OW67467  14.209   9.360   6.918
21857SOL    HW167468  14.279   9.425   6.913
21857SOL    HW267469  14.254   9.275   6.912
21858SOL     OW67470   1.633  13.932  12.571
21858SOL    HW167471   1.682  13.900  12.495
21858SOL    HW267472   1.669  13.885  12.645
21859SOL     OW67473  12.286  10.183   0.090
21859SOL    HW167474  12.252  10.240   0.021
21859SOL    HW267475  12.327  10.111   0.043
21860SOL     OW67476   0.081  13.046   9.432
21860SOL    HW167477   0.048  13.013   9.516
21860SOL    HW267478   0.167  13.083   9.453
21861SOL     OW67479   9.170  11.413   3.494
21861SOL    HW167480   9.240  11.478   3.482
21861SOL    HW267481   9.094  11.464   3.522
21862SOL     OW67482   9.977   7.938  12.414
21862SOL    HW167483   9.886   7.964  12.420
21862SOL    HW267484   9.980   7.875  12.343
21863SOL     OW67485  14.407   7.031   7.733
21863SOL    HW167486  14.380   7.010   7.643
21863SOL    HW267487  14.492   6.988   7.743
21864SOL     OW67488   3.670  12.954   6.406
21864SOL    HW167489   3.641  13.021   6.345
21864SOL    HW267490   3.626  12.976   6.489
21865SOL     OW67491   0.830   4.606  12.065
21865SOL    HW167492   0.857   4.543  11.998
21865SOL    HW267493   0.755   4.566  12.107
21866SOL     OW67494  13.487   8.825   4.491
21866SOL    HW167495  13.420   8.781   4.438
21866SOL    HW267496  13.446   8.905   4.521
21867SOL     OW67497   0.865   0.618   8.253
21867SOL    HW167498   0.780   0.592   8.287
21867SOL    HW267499   0.846   0.670   8.175
21868SOL     OW67500   1.973   7.136   6.559
21868SOL    HW167501   1.932   7.130   6.473
21868SOL    HW267502   1.966   7.228   6.583
21869SOL     OW67503   7.519  13.729   2.807
21869SOL    HW167504   7.435  13.685   2.820
21869SOL    HW267505   7.577  13.689   2.872
21870SOL     OW67506   6.438  13.314  11.760
21870SOL    HW167507   6.350  13.277  11.767
21870SOL    HW267508   6.453  13.354  11.846
21871SOL     OW67509   6.542  10.103   8.336
21871SOL    HW167510   6.534  10.114   8.431
21871SOL    HW267511   6.585  10.182   8.306
21872SOL     OW67512   4.768   3.777   4.365
21872SOL    HW167513   4.709   3.800   4.292
21872SOL    HW267514   4.856   3.781   4.327
21873SOL     OW67515   3.133  11.517   8.091
21873SOL    HW167516   3.188  11.551   8.162
21873SOL    HW267517   3.185  11.446   8.052
21874SOL     OW67518   8.128   5.990  11.218
21874SOL    HW167519   8.194   5.955  11.277
21874SOL    HW267520   8.168   5.987  11.132
21875SOL     OW67521  11.387   6.453  12.383
21875SOL    HW167522  11.431   6.519  12.331
21875SOL    HW267523  11.308   6.432  12.333
21876SOL     OW67524   4.258   3.157   0.214
21876SOL    HW167525   4.207   3.238   0.221
21876SOL    HW267526   4.198   3.095   0.172
21877SOL     OW67527   7.165   4.225   6.731
21877SOL    HW167528   7.135   4.239   6.821
21877SOL    HW267529   7.107   4.279   6.678
21878SOL     OW67530  14.425   8.271   9.714
21878SOL    HW167531  14.483   8.345   9.695
21878SOL    HW267532  14.451   8.244   9.803
21879SOL     OW67533  10.250   5.141  13.656
21879SOL    HW167534  10.281   5.120  13.744
21879SOL    HW267535  10.158   5.113  13.656
21880SOL     OW67536   4.858   2.145   5.818
21880SOL    HW167537   4.939   2.153   5.767
21880SOL    HW267538   4.879   2.186   5.903
21881SOL     OW67539  10.479   0.796  11.445
21881SOL    HW167540  10.438   0.862  11.389
21881SOL    HW267541  10.535   0.847  11.505
21882SOL     OW67542   1.380   6.901  11.520
21882SOL    HW167543   1.407   6.993  11.526
21882SOL    HW267544   1.371   6.885  11.426
21883SOL     OW67545   2.951   9.101   3.032
21883SOL    HW167546   2.987   9.190   3.033
21883SOL    HW267547   2.968   9.069   2.944
21884SOL     OW67548   7.542   0.291   6.551
21884SOL    HW167549   7.559   0.375   6.594
21884SOL    HW267550   7.543   0.312   6.457
21885SOL     OW67551  10.630  11.267   6.294
21885SOL    HW167552  10.662  11.285   6.206
21885SOL    HW267553  10.639  11.172   6.304
21886SOL     OW67554  13.911   5.976  10.336
21886SOL    HW167555  13.840   5.920  10.303
21886SOL    HW267556  13.988   5.919  10.336
21887SOL     OW67557  12.198  10.470  12.327
21887SOL    HW167558  12.129  10.467  12.393
21887SOL    HW267559  12.271  10.515  12.371
21888SOL     OW67560   5.721   4.174   4.707
21888SOL    HW167561   5.725   4.252   4.652
21888SOL    HW267562   5.709   4.101   4.645
21889SOL     OW67563   6.168   2.188   1.139
21889SOL    HW167564   6.263   2.187   1.144
21889SOL    HW267565   6.142   2.098   1.158
21890SOL     OW67566  11.931   2.607  10.531
21890SOL    HW167567  11.930   2.583  10.624
21890SOL    HW267568  11.843   2.641  10.514
21891SOL     OW67569   4.809   3.397   9.172
21891SOL    HW167570   4.729   3.418   9.125
21891SOL    HW267571   4.800   3.443   9.256
21892SOL     OW67572  12.538  13.277   3.052
21892SOL    HW167573  12.544  13.352   3.111
21892SOL    HW267574  12.524  13.316   2.966
21893SOL     OW67575  10.948  12.652   1.966
21893SOL    HW167576  11.040  12.628   1.966
21893SOL    HW267577  10.918  12.631   1.877
21894SOL     OW67578   0.921   8.523  14.048
21894SOL    HW167579   0.900   8.486  14.133
21894SOL    HW267580   0.838   8.524  14.001
21895SOL     OW67581  10.919  12.984   3.760
21895SOL    HW167582  10.825  12.965   3.764
21895SOL    HW267583  10.944  12.999   3.851
21896SOL     OW67584   4.665  11.920   0.244
21896SOL    HW167585   4.697  12.008   0.265
21896SOL    HW267586   4.693  11.866   0.319
21897SOL     OW67587   1.295   7.440  12.843
21897SOL    HW167588   1.339   7.382  12.782
21897SOL    HW267589   1.307   7.528  12.805
21898SOL     OW67590   1.365   1.528   3.209
21898SOL    HW167591   1.277   1.508   3.241
21898SOL    HW267592   1.354   1.605   3.153
21899SOL     OW67593  12.953   3.558   3.652
21899SOL    HW167594  13.012   3.564   3.577
21899SOL    HW267595  12.876   3.512   3.618
21900SOL     OW67596  12.603   6.899   3.883
21900SOL    HW167597  12.669   6.837   3.850
21900SOL    HW267598  12.607   6.973   3.823
21901SOL     OW67599   9.052   5.855   5.652
21901SOL    HW167600   9.140   5.875   5.622
21901SOL    HW267601   9.002   5.935   5.636
21902SOL     OW67602  13.723  11.788   7.853
21902SOL    HW167603  13.817  11.799   7.863
21902SOL    HW267604  13.711  11.695   7.837
21903SOL     OW67605   3.108  12.447   0.671
21903SOL    HW167606   3.040  12.405   0.618
21903SOL    HW267607   3.062  12.481   0.748
21904SOL     OW67608  12.538   0.381   1.051
21904SOL    HW167609  12.523   0.305   1.107
21904SOL    HW267610  12.459   0.387   0.997
21905SOL     OW67611  13.245   8.159  11.874
21905SOL    HW167612  13.182   8.219  11.913
21905SOL    HW267613  13.206   8.132  11.791
21906SOL     OW67614   6.722   0.837  10.242
21906SOL    HW167615   6.684   0.817  10.327
21906SOL    HW267616   6.648   0.836  10.181
21907SOL     OW67617   5.308  10.559   4.986
21907SOL    HW167618   5.349  10.583   5.069
21907SOL    HW267619   5.379  10.522   4.934
21908SOL     OW67620   1.804   0.736   1.095
21908SOL    HW167621   1.773   0.721   1.185
21908SOL    HW267622   1.765   0.820   1.070
21909SOL     OW67623   7.712  12.365  10.216
21909SOL    HW167624   7.741  12.403  10.133
21909SOL    HW267625   7.756  12.418  10.282
21910SOL     OW67626   1.621   7.542   6.925
21910SOL    HW167627   1.565   7.579   6.994
21910SOL    HW267628   1.561   7.496   6.867
21911SOL     OW67629   3.011   6.385   5.474
21911SOL    HW167630   2.923   6.357   5.452
21911SOL    HW267631   3.002   6.477   5.500
21912SOL     OW67632   8.646   5.022   3.691
21912SOL    HW167633   8.633   5.117   3.694
21912SOL    HW267634   8.649   4.995   3.782
21913SOL     OW67635   7.741  11.180   9.393
21913SOL    HW167636   7.736  11.144   9.481
21913SOL    HW267637   7.804  11.124   9.348
21914SOL     OW67638   9.064  11.893   4.919
21914SOL    HW167639   9.113  11.825   4.964
21914SOL    HW267640   9.124  11.925   4.852
21915SOL     OW67641   6.848  13.918   3.398
21915SOL    HW167642   6.853  13.933   3.303
21915SOL    HW267643   6.927  13.959   3.433
21916SOL     OW67644  10.812   7.359   2.186
21916SOL    HW167645  10.839   7.287   2.128
21916SOL    HW267646  10.766   7.420   2.128
21917SOL     OW67647   0.073   6.531   9.727
21917SOL    HW167648  14.859   6.547   9.738
21917SOL    HW267649   0.099   6.589   9.655
21918SOL     OW67650   3.860  11.355   2.064
21918SOL    HW167651   3.906  11.273   2.082
21918SOL    HW267652   3.903  11.420   2.120
21919SOL     OW67653  11.897   0.719  12.546
21919SOL    HW167654  11.879   0.639  12.595
21919SOL    HW267655  11.965   0.693  12.483
21920SOL     OW67656  11.952   3.996  14.705
21920SOL    HW167657  11.995   3.925  14.657
21920SOL    HW267658  11.955   4.071  14.645
21921SOL     OW67659  11.984   7.088   0.012
21921SOL    HW167660  12.057   7.147   0.030
21921SOL    HW267661  12.008   7.006   0.056
21922SOL     OW67662   0.185  11.426  12.323
21922SOL    HW167663   0.200  11.343  12.279
21922SOL    HW267664   0.272  11.455  12.350
21923SOL     OW67665   5.202  10.615  11.631
21923SOL    HW167666   5.223  10.523  11.621
21923SOL    HW267667   5.287  10.660  11.630
21924SOL     OW67668   9.283   4.267  13.754
21924SOL    HW167669   9.242   4.180  13.760
21924SOL    HW267670   9.252   4.314  13.831
21925SOL     OW67671   2.083   6.307  12.510
21925SOL    HW167672   2.113   6.319  12.600
21925SOL    HW267673   2.119   6.381  12.463
21926SOL     OW67674   5.076   1.424  14.517
21926SOL    HW167675   4.989   1.429  14.476
21926SOL    HW267676   5.071   1.487  14.590
21927SOL     OW67677   6.545   4.516   0.383
21927SOL    HW167678   6.558   4.511   0.288
21927SOL    HW267679   6.595   4.442   0.418
21928SOL     OW67680   8.634   8.979  12.111
21928SOL    HW167681   8.569   8.915  12.142
21928SOL    HW267682   8.709   8.926  12.085
21929SOL     OW67683   7.084  10.896   1.871
21929SOL    HW167684   7.064  10.969   1.813
21929SOL    HW267685   7.015  10.832   1.854
21930SOL     OW67686  14.863   7.980   9.397
21930SOL    HW167687  14.819   7.971   9.481
21930SOL    HW267688  14.792   7.997   9.335
21931SOL     OW67689   7.304   8.390   2.593
21931SOL    HW167690   7.372   8.353   2.536
21931SOL    HW267691   7.255   8.450   2.536
21932SOL     OW67692   7.019  10.327   7.951
21932SOL    HW167693   7.013  10.316   8.046
21932SOL    HW267694   7.111  10.310   7.931
21933SOL     OW67695   4.328  14.460  12.958
21933SOL    HW167696   4.329  14.555  12.950
21933SOL    HW267697   4.403  14.431  12.906
21934SOL     OW67698   0.715  11.067   6.887
21934SOL    HW167699   0.626  11.040   6.863
21934SOL    HW267700   0.765  11.061   6.806
21935SOL     OW67701   4.939  11.378   8.154
21935SOL    HW167702   5.025  11.389   8.113
21935SOL    HW267703   4.908  11.293   8.123
21936SOL     OW67704   3.413   4.616   6.119
21936SOL    HW167705   3.334   4.663   6.093
21936SOL    HW267706   3.433   4.560   6.044
21937SOL     OW67707  12.061   5.464  10.182
21937SOL    HW167708  12.007   5.386  10.173
21937SOL    HW267709  12.067   5.478  10.277
21938SOL     OW67710   8.586   1.421  12.259
21938SOL    HW167711   8.617   1.337  12.293
21938SOL    HW267712   8.514   1.396  12.200
21939SOL     OW67713   4.515  11.668   4.759
21939SOL    HW167714   4.528  11.612   4.836
21939SOL    HW267715   4.500  11.606   4.687
21940SOL     OW67716   7.068  14.713   6.672
21940SOL    HW167717   7.119  14.735   6.750
21940SOL    HW267718   7.134  14.688   6.607
21941SOL     OW67719   5.130  11.829   0.483
21941SOL    HW167720   5.212  11.794   0.449
21941SOL    HW267721   5.129  11.803   0.575
21942SOL     OW67722   9.306   8.785   0.104
21942SOL    HW167723   9.258   8.732   0.167
21942SOL    HW267724   9.340   8.859   0.156
21943SOL     OW67725   4.754   0.964   9.696
21943SOL    HW167726   4.707   1.013   9.629
21943SOL    HW267727   4.689   0.901   9.729
21944SOL     OW67728   7.196  13.791  11.630
21944SOL    HW167729   7.269  13.778  11.691
21944SOL    HW267730   7.121  13.750  11.673
21945SOL     OW67731  14.142   5.206   2.549
21945SOL    HW167732  14.211   5.165   2.602
21945SOL    HW267733  14.130   5.146   2.475
21946SOL     OW67734   0.635   0.705   4.251
21946SOL    HW167735   0.612   0.673   4.338
21946SOL    HW267736   0.682   0.632   4.211
21947SOL     OW67737  11.674  11.750   2.282
21947SOL    HW167738  11.734  11.676   2.287
21947SOL    HW267739  11.732  11.827   2.284
21948SOL     OW67740  14.502   2.539   9.678
21948SOL    HW167741  14.431   2.489   9.717
21948SOL    HW267742  14.566   2.473   9.650
21949SOL     OW67743   6.183  10.554  10.903
21949SOL    HW167744   6.252  10.605  10.945
21949SOL    HW267745   6.160  10.604  10.825
21950SOL     OW67746  14.490  10.774   1.374
21950SOL    HW167747  14.452  10.697   1.332
21950SOL    HW267748  14.442  10.848   1.335
21951SOL     OW67749   7.342  13.471  11.843
21951SOL    HW167750   7.344  13.392  11.897
21951SOL    HW267751   7.336  13.439  11.754
21952SOL     OW67752   3.799   5.821  11.734
21952SOL    HW167753   3.875   5.821  11.675
21952SOL    HW267754   3.807   5.903  11.783
21953SOL     OW67755   1.519   6.766  14.678
21953SOL    HW167756   1.554   6.677  14.683
21953SOL    HW267757   1.591   6.818  14.641
21954SOL     OW67758  10.040   5.383  12.113
21954SOL    HW167759  10.054   5.306  12.057
21954SOL    HW267760   9.947   5.401  12.105
21955SOL     OW67761  11.174  11.233   8.546
21955SOL    HW167762  11.179  11.306   8.484
21955SOL    HW267763  11.234  11.168   8.510
21956SOL     OW67764   8.537   2.324  10.146
21956SOL    HW167765   8.537   2.263  10.072
21956SOL    HW267766   8.629   2.348  10.157
21957SOL     OW67767  14.742   2.605  10.364
21957SOL    HW167768  14.803   2.646  10.302
21957SOL    HW267769  14.664   2.585  10.312
21958SOL     OW67770  13.583  14.232   6.478
21958SOL    HW167771  13.612  14.167   6.543
21958SOL    HW267772  13.493  14.253   6.504
21959SOL     OW67773  10.522  14.831   2.552
21959SOL    HW167774  10.522  14.820   2.647
21959SOL    HW267775  10.611  14.805   2.525
21960SOL     OW67776   7.283   9.654   1.461
21960SOL    HW167777   7.267   9.640   1.555
21960SOL    HW267778   7.233   9.733   1.440
21961SOL     OW67779   4.647   7.505   2.265
21961SOL    HW167780   4.626   7.487   2.357
21961SOL    HW267781   4.739   7.480   2.257
21962SOL     OW67782  10.058   8.446   4.871
21962SOL    HW167783  10.106   8.515   4.825
21962SOL    HW267784  10.039   8.483   4.957
21963SOL     OW67785   3.349   4.940   3.820
21963SOL    HW167786   3.425   4.892   3.786
21963SOL    HW267787   3.301   4.967   3.742
21964SOL     OW67788   1.001   6.586  12.208
21964SOL    HW167789   0.938   6.608  12.277
21964SOL    HW267790   1.086   6.589  12.252
21965SOL     OW67791   0.570   7.941   5.526
21965SOL    HW167792   0.522   7.937   5.443
21965SOL    HW267793   0.539   8.022   5.567
21966SOL     OW67794   4.729  13.815  12.087
21966SOL    HW167795   4.765  13.760  12.156
21966SOL    HW267796   4.777  13.898  12.095
21967SOL     OW67797  10.550  13.580  10.473
21967SOL    HW167798  10.596  13.550  10.551
21967SOL    HW267799  10.462  13.600  10.504
21968SOL     OW67800   0.263   1.223  14.294
21968SOL    HW167801   0.343   1.261  14.258
21968SOL    HW267802   0.281   1.213  14.388
21969SOL     OW67803   7.226   3.313   7.066
21969SOL    HW167804   7.187   3.253   7.002
21969SOL    HW267805   7.273   3.377   7.013
21970SOL     OW67806   3.212   3.723   8.547
21970SOL    HW167807   3.255   3.694   8.628
21970SOL    HW267808   3.262   3.680   8.477
21971SOL     OW67809   6.169   4.930  12.753
21971SOL    HW167810   6.245   4.967  12.709
21971SOL    HW267811   6.106   4.915  12.682
21972SOL     OW67812   7.132   6.772   7.337
21972SOL    HW167813   7.160   6.863   7.329
21972SOL    HW267814   7.148   6.750   7.429
21973SOL     OW67815   6.791   1.186   6.635
21973SOL    HW167816   6.870   1.163   6.685
21973SOL    HW267817   6.818   1.260   6.581
21974SOL     OW67818   7.289   9.040  11.120
21974SOL    HW167819   7.380   9.020  11.144
21974SOL    HW267820   7.236   8.988  11.181
21975SOL     OW67821   9.456  10.452   8.747
21975SOL    HW167822   9.479  10.359   8.747
21975SOL    HW267823   9.360  10.452   8.751
21976SOL     OW67824   6.131   1.022  12.834
21976SOL    HW167825   6.195   0.980  12.893
21976SOL    HW267826   6.057   0.961  12.833
21977SOL     OW67827  12.638  14.125   6.562
21977SOL    HW167828  12.571  14.188   6.534
21977SOL    HW267829  12.620  14.047   6.510
21978SOL     OW67830   6.804  14.258   2.754
21978SOL    HW167831   6.869  14.266   2.684
21978SOL    HW267832   6.854  14.228   2.830
21979SOL     OW67833   9.942   2.235   6.526
21979SOL    HW167834   9.950   2.156   6.474
21979SOL    HW267835  10.032   2.265   6.540
21980SOL     OW67836  14.121   9.664  13.703
21980SOL    HW167837  14.048   9.602  13.705
21980SOL    HW267838  14.100   9.724  13.632
21981SOL     OW67839   3.376   4.035  11.235
21981SOL    HW167840   3.338   4.119  11.211
21981SOL    HW267841   3.320   4.003  11.307
21982SOL     OW67842   3.770   0.990  10.427
21982SOL    HW167843   3.771   0.949  10.513
21982SOL    HW267844   3.696   0.949  10.382
21983SOL     OW67845   3.576  12.586  11.567
21983SOL    HW167846   3.578  12.525  11.641
21983SOL    HW267847   3.667  12.615  11.557
21984SOL     OW67848   8.951  13.023   0.658
21984SOL    HW167849   8.959  13.040   0.564
21984SOL    HW267850   8.894  12.946   0.663
21985SOL     OW67851  10.267   8.006  13.140
21985SOL    HW167852  10.360   8.015  13.121
21985SOL    HW267853  10.263   7.988  13.234
21986SOL     OW67854  12.929  14.277  10.010
21986SOL    HW167855  12.868  14.276  10.083
21986SOL    HW267856  13.016  14.271  10.052
21987SOL     OW67857   2.948   9.826  13.557
21987SOL    HW167858   2.879   9.887  13.532
21987SOL    HW267859   2.901   9.750  13.593
21988SOL     OW67860   6.719   1.689  12.082
21988SOL    HW167861   6.792   1.709  12.141
21988SOL    HW267862   6.646   1.740  12.118
21989SOL     OW67863   3.779   8.372   3.426
21989SOL    HW167864   3.729   8.302   3.385
21989SOL    HW267865   3.787   8.439   3.358
21990SOL     OW67866   0.996  11.074   1.637
21990SOL    HW167867   1.080  11.075   1.591
21990SOL    HW267868   0.942  11.012   1.587
21991SOL     OW67869   7.830   3.979   2.431
21991SOL    HW167870   7.886   3.926   2.374
21991SOL    HW267871   7.861   4.069   2.418
21992SOL     OW67872   5.310   4.240   8.475
21992SOL    HW167873   5.384   4.300   8.467
21992SOL    HW267874   5.341   4.171   8.534
21993SOL     OW67875   5.996   1.139  14.384
21993SOL    HW167876   6.034   1.079  14.320
21993SOL    HW267877   5.914   1.098  14.410
21994SOL     OW67878   3.710  10.777   3.372
21994SOL    HW167879   3.727  10.683   3.364
21994SOL    HW267880   3.674  10.787   3.460
21995SOL     OW67881  13.888   7.087  13.147
21995SOL    HW167882  13.908   7.138  13.069
21995SOL    HW267883  13.792   7.079  13.146
21996SOL     OW67884   7.484  14.801   1.891
21996SOL    HW167885   7.476  14.721   1.839
21996SOL    HW267886   7.523  14.773   1.973
21997SOL     OW67887  11.069   7.727   1.210
21997SOL    HW167888  11.047   7.748   1.300
21997SOL    HW267889  11.163   7.711   1.211
21998SOL     OW67890  11.217   8.548   0.836
21998SOL    HW167891  11.148   8.590   0.785
21998SOL    HW267892  11.257   8.485   0.777
21999SOL     OW67893   0.247   8.084  12.327
21999SOL    HW167894   0.264   8.169  12.368
21999SOL    HW267895   0.231   8.105  12.235
22000SOL     OW67896   4.899  10.276   4.919
22000SOL    HW167897   4.940  10.362   4.922
22000SOL    HW267898   4.806  10.293   4.936
22001SOL     OW67899  13.906   4.387   8.409
22001SOL    HW167900  13.977   4.380   8.346
22001SOL    HW267901  13.827   4.392   8.355
22002SOL     OW67902  13.930   0.023   5.394
22002SOL    HW167903  13.880   0.104   5.379
22002SOL    HW267904  13.972   0.037   5.479
22003SOL     OW67905  13.571   9.140   1.871
22003SOL    HW167906  13.524   9.130   1.788
22003SOL    HW267907  13.555   9.058   1.917
22004SOL     OW67908   6.915   0.326  11.660
22004SOL    HW167909   6.848   0.393  11.671
22004SOL    HW267910   6.998   0.373  11.673
22005SOL     OW67911  14.771  10.019   9.855
22005SOL    HW167912  14.835   9.957   9.820
22005SOL    HW267913  14.786  10.099   9.806
22006SOL     OW67914  10.576  11.428   5.386
22006SOL    HW167915  10.606  11.422   5.476
22006SOL    HW267916  10.656  11.431   5.333
22007SOL     OW67917   8.904  11.546   2.381
22007SOL    HW167918   8.809  11.543   2.382
22007SOL    HW267919   8.930  11.485   2.312
22008SOL     OW67920   4.354   6.115   3.419
22008SOL    HW167921   4.340   6.048   3.353
22008SOL    HW267922   4.394   6.188   3.372
22009SOL     OW67923   6.624   9.625   7.162
22009SOL    HW167924   6.672   9.684   7.104
22009SOL    HW267925   6.681   9.616   7.239
22010SOL     OW67926   0.147   2.305  14.877
22010SOL    HW167927   0.109   2.218   0.009
22010SOL    HW267928   0.231   2.302   0.044
22011SOL     OW67929  13.159   9.039   3.339
22011SOL    HW167930  13.172   8.994   3.423
22011SOL    HW267931  13.093   8.987   3.294
22012SOL     OW67932  12.825   3.443   4.252
22012SOL    HW167933  12.909   3.427   4.207
22012SOL    HW267934  12.770   3.485   4.185
22013SOL     OW67935   6.427  13.180   3.881
22013SOL    HW167936   6.499  13.121   3.903
22013SOL    HW267937   6.454  13.265   3.915
22014SOL     OW67938  14.389   7.703   1.125
22014SOL    HW167939  14.330   7.775   1.102
22014SOL    HW267940  14.334   7.626   1.126
22015SOL     OW67941   7.882   9.334   5.278
22015SOL    HW167942   7.901   9.389   5.354
22015SOL    HW267943   7.811   9.277   5.307
22016SOL     OW67944   8.100   2.885  13.442
22016SOL    HW167945   8.129   2.819  13.379
22016SOL    HW267946   8.147   2.965  13.416
22017SOL     OW67947   3.637  14.000  12.530
22017SOL    HW167948   3.715  14.035  12.572
22017SOL    HW267949   3.572  13.995  12.600
22018SOL     OW67950   8.455  13.094   9.796
22018SOL    HW167951   8.513  13.129   9.864
22018SOL    HW267952   8.434  13.169   9.741
22019SOL     OW67953  14.357  13.967   1.616
22019SOL    HW167954  14.285  14.010   1.569
22019SOL    HW267955  14.380  14.029   1.685
22020SOL     OW67956   0.154   4.368   7.765
22020SOL    HW167957   0.114   4.443   7.721
22020SOL    HW267958   0.188   4.314   7.694
22021SOL     OW67959   7.011   4.791   8.088
22021SOL    HW167960   7.081   4.844   8.051
22021SOL    HW267961   7.039   4.772   8.177
22022SOL     OW67962  12.352   7.446   7.464
22022SOL    HW167963  12.280   7.389   7.491
22022SOL    HW267964  12.356   7.514   7.532
22023SOL     OW67965  10.916   9.427   9.951
22023SOL    HW167966  10.951   9.402  10.037
22023SOL    HW267967  10.863   9.505   9.969
22024SOL     OW67968   4.697   5.376   5.006
22024SOL    HW167969   4.692   5.439   4.933
22024SOL    HW267970   4.605   5.360   5.029
22025SOL     OW67971   8.028   1.570   6.679
22025SOL    HW167972   8.029   1.644   6.617
22025SOL    HW267973   7.986   1.605   6.757
22026SOL     OW67974   4.306   9.352   7.146
22026SOL    HW167975   4.264   9.437   7.157
22026SOL    HW267976   4.311   9.317   7.235
22027SOL     OW67977   5.324   6.370   1.109
22027SOL    HW167978   5.300   6.344   1.198
22027SOL    HW267979   5.271   6.448   1.091
22028SOL     OW67980  10.508  13.404   2.936
22028SOL    HW167981  10.555  13.335   2.888
22028SOL    HW267982  10.502  13.476   2.874
22029SOL     OW67983  10.770  14.798   9.094
22029SOL    HW167984  10.815  14.714   9.084
22029SOL    HW267985  10.841  14.862   9.101
22030SOL     OW67986   3.067   3.898   1.281
22030SOL    HW167987   3.072   3.967   1.216
22030SOL    HW267988   3.077   3.817   1.231
22031SOL     OW67989   8.894   2.608   8.388
22031SOL    HW167990   8.862   2.530   8.434
22031SOL    HW267991   8.987   2.590   8.371
22032SOL     OW67992   8.433   1.590  14.400
22032SOL    HW167993   8.356   1.645  14.416
22032SOL    HW267994   8.461   1.614  14.312
22033SOL     OW67995   8.122   0.261   3.964
22033SOL    HW167996   8.107   0.209   4.043
22033SOL    HW267997   8.206   0.229   3.930
22034SOL     OW67998   5.004   4.024  12.887
22034SOL    HW167999   4.912   3.999  12.877
22034SOL    HW268000   5.047   3.943  12.914
22035SOL     OW68001   7.040   1.128   6.728
22035SOL    HW168002   7.080   1.138   6.642
22035SOL    HW268003   7.041   1.216   6.765
22036SOL     OW68004  11.555   8.331   9.750
22036SOL    HW168005  11.540   8.327   9.845
22036SOL    HW268006  11.645   8.361   9.741
22037SOL     OW68007   6.405   2.213  10.380
22037SOL    HW168008   6.437   2.267  10.452
22037SOL    HW268009   6.467   2.228  10.308
22038SOL     OW68010   2.604   3.930   6.171
22038SOL    HW168011   2.562   3.988   6.107
22038SOL    HW268012   2.663   3.988   6.220
22039SOL     OW68013   6.087  10.838   4.933
22039SOL    HW168014   6.181  10.828   4.948
22039SOL    HW268015   6.064  10.919   4.979
22040SOL     OW68016   7.529   2.916  10.197
22040SOL    HW168017   7.555   3.005  10.172
22040SOL    HW268018   7.512   2.872  10.114
22041SOL     OW68019   0.777   1.267   5.164
22041SOL    HW168020   0.813   1.353   5.186
22041SOL    HW268021   0.683   1.277   5.172
22042SOL     OW68022   5.060  14.619   0.008
22042SOL    HW168023   5.039  14.686  14.822
22042SOL    HW268024   5.134  14.572  14.851
22043SOL     OW68025   6.855  12.972  12.398
22043SOL    HW168026   6.793  12.983  12.326
22043SOL    HW268027   6.858  13.058  12.440
22044SOL     OW68028   3.995   1.609   6.618
22044SOL    HW168029   4.081   1.568   6.608
22044SOL    HW268030   3.939   1.539   6.653
22045SOL     OW68031   1.751   0.279   9.835
22045SOL    HW168032   1.698   0.352   9.868
22045SOL    HW268033   1.746   0.288   9.739
22046SOL     OW68034   5.370   7.859   6.405
22046SOL    HW168035   5.365   7.877   6.499
22046SOL    HW268036   5.454   7.897   6.378
22047SOL     OW68037   7.857  11.863   8.605
22047SOL    HW168038   7.832  11.901   8.689
22047SOL    HW268039   7.816  11.920   8.540
22048SOL     OW68040  13.735   8.812   8.121
22048SOL    HW168041  13.698   8.724   8.116
22048SOL    HW268042  13.695   8.851   8.199
22049SOL     OW68043   7.031  12.807  11.896
22049SOL    HW168044   7.012  12.785  11.805
22049SOL    HW268045   6.953  12.781  11.944
22050SOL     OW68046   3.553   7.716   6.272
22050SOL    HW168047   3.484   7.782   6.278
22050SOL    HW268048   3.514   7.638   6.312
22051SOL     OW68049  14.180  14.654   1.045
22051SOL    HW168050  14.098  14.694   1.076
22051SOL    HW268051  14.200  14.700   0.964
22052SOL     OW68052   3.879   7.863   5.639
22052SOL    HW168053   3.878   7.772   5.668
22052SOL    HW268054   3.971   7.886   5.632
22053SOL     OW68055  11.998   4.026   3.757
22053SOL    HW168056  11.956   4.079   3.824
22053SOL    HW268057  11.950   3.943   3.758
22054SOL     OW68058   0.665   5.191   8.760
22054SOL    HW168059   0.753   5.197   8.723
22054SOL    HW268060   0.615   5.260   8.716
22055SOL     OW68061   1.528   3.201   7.712
22055SOL    HW168062   1.448   3.186   7.661
22055SOL    HW268063   1.498   3.254   7.787
22056SOL     OW68064   9.851  10.285   9.340
22056SOL    HW168065   9.765  10.312   9.308
22056SOL    HW268066   9.851  10.190   9.331
22057SOL     OW68067  12.716  14.179  13.211
22057SOL    HW168068  12.797  14.214  13.249
22057SOL    HW268069  12.704  14.094  13.254
22058SOL     OW68070   4.566   0.511   6.282
22058SOL    HW168071   4.599   0.505   6.372
22058SOL    HW268072   4.619   0.580   6.243
22059SOL     OW68073   1.644  12.136   9.353
22059SOL    HW168074   1.638  12.139   9.448
22059SOL    HW268075   1.705  12.064   9.336
22060SOL     OW68076   4.127   8.970   9.949
22060SOL    HW168077   4.056   9.012   9.901
22060SOL    HW268078   4.198   8.965   9.886
22061SOL     OW68079   1.255   4.250  12.097
22061SOL    HW168080   1.193   4.240  12.169
22061SOL    HW268081   1.218   4.196  12.027
22062SOL     OW68082  11.719  11.021  13.073
22062SOL    HW168083  11.710  11.100  13.020
22062SOL    HW268084  11.633  11.009  13.114
22063SOL     OW68085  12.637   5.110   4.054
22063SOL    HW168086  12.722   5.094   4.096
22063SOL    HW268087  12.646   5.197   4.015
22064SOL     OW68088   8.033   2.766   0.476
22064SOL    HW168089   7.983   2.696   0.517
22064SOL    HW268090   8.049   2.736   0.386
22065SOL     OW68091   2.873  13.540   1.791
22065SOL    HW168092   2.815  13.603   1.748
22065SOL    HW268093   2.863  13.460   1.740
22066SOL     OW68094   8.749   6.061   2.126
22066SOL    HW168095   8.684   6.128   2.148
22066SOL    HW268096   8.804   6.101   2.058
22067SOL     OW68097   8.642  14.138  11.183
22067SOL    HW168098   8.692  14.131  11.264
22067SOL    HW268099   8.695  14.093  11.117
22068SOL     OW68100   8.816   5.306   0.593
22068SOL    HW168101   8.721   5.294   0.588
22068SOL    HW268102   8.840   5.269   0.678
22069SOL     OW68103   2.021  11.863   6.962
22069SOL    HW168104   2.058  11.936   6.912
22069SOL    HW268105   2.097  11.809   6.985
22070SOL     OW68106   5.857   3.976  14.597
22070SOL    HW168107   5.872   4.070  14.610
22070SOL    HW268108   5.763   3.969  14.580
22071SOL     OW68109   2.208   9.619   0.354
22071SOL    HW168110   2.258   9.538   0.345
22071SOL    HW268111   2.131   9.607   0.298
22072SOL     OW68112  10.692   7.397   5.977
22072SOL    HW168113  10.715   7.465   6.041
22072SOL    HW268114  10.708   7.438   5.892
22073SOL     OW68115  12.408   7.966  10.333
22073SOL    HW168116  12.347   7.969  10.259
22073SOL    HW268117  12.353   7.954  10.410
22074SOL     OW68118   1.683  13.855  14.757
22074SOL    HW168119   1.593  13.839  14.786
22074SOL    HW268120   1.677  13.927  14.695
22075SOL     OW68121  13.002  11.579   7.402
22075SOL    HW168122  12.991  11.554   7.310
22075SOL    HW268123  13.091  11.550   7.424
22076SOL     OW68124  13.533  12.179  14.501
22076SOL    HW168125  13.466  12.242  14.525
22076SOL    HW268126  13.600  12.231  14.457
22077SOL     OW68127   3.391   0.764   3.084
22077SOL    HW168128   3.399   0.758   2.989
22077SOL    HW268129   3.474   0.802   3.113
22078SOL     OW68130   4.068   6.583   9.870
22078SOL    HW168131   4.020   6.515   9.823
22078SOL    HW268132   4.025   6.665   9.843
22079SOL     OW68133   0.651   5.617   5.396
22079SOL    HW168134   0.633   5.594   5.305
22079SOL    HW268135   0.735   5.574   5.414
22080SOL     OW68136   5.626  14.810   1.137
22080SOL    HW168137   5.601   0.010   1.089
22080SOL    HW268138   5.542  14.772   1.163
22081SOL     OW68139  12.917   6.224   9.170
22081SOL    HW168140  12.955   6.137   9.164
22081SOL    HW268141  12.840   6.213   9.225
22082SOL     OW68142   6.371  10.935  11.426
22082SOL    HW168143   6.456  10.892  11.421
22082SOL    HW268144   6.354  10.944  11.519
22083SOL     OW68145   6.112  11.695  11.917
22083SOL    HW168146   6.031  11.677  11.869
22083SOL    HW268147   6.175  11.720  11.850
22084SOL     OW68148   6.697  10.854  10.358
22084SOL    HW168149   6.749  10.829  10.281
22084SOL    HW268150   6.667  10.942  10.338
22085SOL     OW68151  12.629   9.902   9.213
22085SOL    HW168152  12.675   9.986   9.208
22085SOL    HW268153  12.566   9.904   9.141
22086SOL     OW68154   4.917  13.702   9.951
22086SOL    HW168155   4.902  13.635   9.884
22086SOL    HW268156   4.829  13.721   9.985
22087SOL     OW68157  13.910   2.201   8.222
22087SOL    HW168158  13.911   2.292   8.193
22087SOL    HW268159  13.985   2.194   8.281
22088SOL     OW68160   9.103   9.287   0.824
22088SOL    HW168161   9.158   9.359   0.855
22088SOL    HW268162   9.073   9.315   0.738
22089SOL     OW68163   6.045   9.951  10.183
22089SOL    HW168164   6.045   9.877  10.123
22089SOL    HW268165   5.976  10.009  10.149
22090SOL     OW68166   9.532   2.548   8.656
22090SOL    HW168167   9.619   2.568   8.691
22090SOL    HW268168   9.473   2.604   8.707
22091SOL     OW68169   3.686   4.930   1.498
22091SOL    HW168170   3.674   4.841   1.532
22091SOL    HW268171   3.701   4.984   1.576
22092SOL     OW68172  13.582  12.283   6.644
22092SOL    HW168173  13.595  12.191   6.667
22092SOL    HW268174  13.659  12.306   6.592
22093SOL     OW68175   0.892   6.963   1.265
22093SOL    HW168176   0.847   7.014   1.333
22093SOL    HW268177   0.823   6.937   1.205
22094SOL     OW68178  14.810   9.434  10.858
22094SOL    HW168179  14.874   9.370  10.889
22094SOL    HW268180  14.749   9.443  10.932
22095SOL     OW68181   8.122  10.200  11.082
22095SOL    HW168182   8.043  10.247  11.057
22095SOL    HW268183   8.096  10.108  11.083
22096SOL     OW68184   5.498   1.224   3.823
22096SOL    HW168185   5.482   1.208   3.730
22096SOL    HW268186   5.431   1.173   3.868
22097SOL     OW68187  11.515   8.104   1.653
22097SOL    HW168188  11.544   8.167   1.719
22097SOL    HW268189  11.437   8.064   1.692
22098SOL     OW68190   2.021   8.651   5.753
22098SOL    HW168191   2.042   8.707   5.679
22098SOL    HW268192   2.001   8.566   5.715
22099SOL     OW68193   6.018  13.978   9.591
22099SOL    HW168194   6.027  13.981   9.686
22099SOL    HW268195   6.108  13.979   9.558
22100SOL     OW68196   4.719  12.058   7.749
22100SOL    HW168197   4.646  11.999   7.730
22100SOL    HW268198   4.794  12.000   7.761
22101SOL     OW68199   4.695  11.700  14.129
22101SOL    HW168200   4.770  11.669  14.180
22101SOL    HW268201   4.708  11.663  14.042
22102SOL     OW68202  12.799  12.089   4.517
22102SOL    HW168203  12.889  12.121   4.509
22102SOL    HW268204  12.748  12.168   4.536
22103SOL     OW68205   8.839   1.346   8.703
22103SOL    HW168206   8.767   1.398   8.738
22103SOL    HW268207   8.885   1.314   8.780
22104SOL     OW68208  12.249  12.027   2.844
22104SOL    HW168209  12.182  12.011   2.777
22104SOL    HW268210  12.235  11.957   2.908
22105SOL     OW68211   7.799  13.502   2.232
22105SOL    HW168212   7.860  13.499   2.158
22105SOL    HW268213   7.735  13.568   2.208
22106SOL     OW68214   8.653   5.694  11.729
22106SOL    HW168215   8.630   5.787  11.731
22106SOL    HW268216   8.749   5.692  11.737
22107SOL     OW68217   8.044   9.483   7.499
22107SOL    HW168218   7.955   9.509   7.475
22107SOL    HW268219   8.032   9.415   7.566
22108SOL     OW68220   2.730   6.435   1.602
22108SOL    HW168221   2.672   6.460   1.673
22108SOL    HW268222   2.713   6.342   1.588
22109SOL     OW68223   6.661   9.860   1.752
22109SOL    HW168224   6.748   9.826   1.772
22109SOL    HW268225   6.653   9.939   1.807
22110SOL     OW68226   5.138   3.004  13.881
22110SOL    HW168227   5.088   2.933  13.922
22110SOL    HW268228   5.128   3.078  13.941
22111SOL     OW68229   0.853   1.582  12.703
22111SOL    HW168230   0.914   1.651  12.732
22111SOL    HW268231   0.775   1.595  12.756
22112SOL     OW68232  14.703   2.481   1.531
22112SOL    HW168233  14.707   2.522   1.445
22112SOL    HW268234  14.664   2.547   1.588
22113SOL     OW68235  13.968   6.353   4.326
22113SOL    HW168236  14.049   6.365   4.375
22113SOL    HW268237  13.996   6.311   4.244
22114SOL     OW68238   8.372   1.149  13.176
22114SOL    HW168239   8.361   1.061  13.213
22114SOL    HW268240   8.361   1.136  13.081
22115SOL     OW68241   7.854   1.006   1.339
22115SOL    HW168242   7.876   1.078   1.280
22115SOL    HW268243   7.933   0.951   1.340
22116SOL     OW68244  12.561   6.729   7.927
22116SOL    HW168245  12.545   6.657   7.866
22116SOL    HW268246  12.475   6.766   7.943
22117SOL     OW68247   0.836  10.222   8.795
22117SOL    HW168248   0.845  10.298   8.738
22117SOL    HW268249   0.762  10.174   8.759
22118SOL     OW68250   4.560   1.504   9.170
22118SOL    HW168251   4.636   1.452   9.195
22118SOL    HW268252   4.543   1.480   9.079
22119SOL     OW68253   8.631   7.533  11.419
22119SOL    HW168254   8.692   7.473  11.461
22119SOL    HW268255   8.569   7.557  11.487
22120SOL     OW68256  13.913  13.213   9.072
22120SOL    HW168257  13.825  13.243   9.096
22120SOL    HW268258  13.920  13.126   9.110
22121SOL     OW68259   0.050   8.490   2.626
22121SOL    HW168260   0.049   8.457   2.715
22121SOL    HW268261   0.005   8.575   2.631
22122SOL     OW68262  12.591  14.615   4.569
22122SOL    HW168263  12.635  14.601   4.653
22122SOL    HW268264  12.610  14.706   4.547
22123SOL     OW68265  13.187  14.233   3.102
22123SOL    HW168266  13.184  14.232   3.198
22123SOL    HW268267  13.095  14.234   3.076
22124SOL     OW68268  14.615   5.713   9.890
22124SOL    HW168269  14.532   5.733   9.847
22124SOL    HW268270  14.604   5.623   9.923
22125SOL     OW68271  12.389   7.526   6.583
22125SOL    HW168272  12.473   7.539   6.540
22125SOL    HW268273  12.328   7.582   6.535
22126SOL     OW68274   4.664   8.254  13.000
22126SOL    HW168275   4.635   8.164  12.990
22126SOL    HW268276   4.759   8.247  13.012
22127SOL     OW68277   4.901   5.893   2.654
22127SOL    HW168278   4.896   5.923   2.745
22127SOL    HW268279   4.865   5.965   2.603
22128SOL     OW68280   6.147   3.148   0.500
22128SOL    HW168281   6.067   3.114   0.461
22128SOL    HW268282   6.195   3.187   0.426
22129SOL     OW68283   5.515  10.171   4.481
22129SOL    HW168284   5.552  10.098   4.532
22129SOL    HW268285   5.431  10.139   4.451
22130SOL     OW68286   6.128   4.077   3.291
22130SOL    HW168287   6.047   4.063   3.340
22130SOL    HW268288   6.113   4.158   3.242
22131SOL     OW68289   4.609   8.488   9.891
22131SOL    HW168290   4.650   8.573   9.911
22131SOL    HW268291   4.671   8.423   9.924
22132SOL     OW68292   9.908   6.741   8.494
22132SOL    HW168293   9.876   6.774   8.578
22132SOL    HW268294   9.856   6.788   8.428
22133SOL     OW68295  11.894  10.982   8.777
22133SOL    HW168296  11.866  11.073   8.777
22133SOL    HW268297  11.833  10.937   8.719
22134SOL     OW68298   5.801   4.208   2.235
22134SOL    HW168299   5.796   4.288   2.183
22134SOL    HW268300   5.767   4.140   2.177
22135SOL     OW68301  11.521   5.059   8.951
22135SOL    HW168302  11.454   5.027   8.891
22135SOL    HW268303  11.591   4.994   8.947
22136SOL     OW68304   0.471   6.167   8.334
22136SOL    HW168305   0.429   6.085   8.309
22136SOL    HW268306   0.406   6.234   8.312
22137SOL     OW68307  13.190  11.854   2.108
22137SOL    HW168308  13.182  11.881   2.017
22137SOL    HW268309  13.101  11.861   2.143
22138SOL     OW68310  10.536   2.291  13.849
22138SOL    HW168311  10.486   2.210  13.845
22138SOL    HW268312  10.614   2.274  13.797
22139SOL     OW68313  12.129  10.028   5.793
22139SOL    HW168314  12.152  10.120   5.809
22139SOL    HW268315  12.043  10.031   5.751
22140SOL     OW68316   2.389   0.775  13.368
22140SOL    HW168317   2.302   0.781  13.328
22140SOL    HW268318   2.372   0.770  13.462
22141SOL     OW68319  14.027   0.057  12.748
22141SOL    HW168320  13.959   0.122  12.730
22141SOL    HW268321  14.092   0.071  12.679
22142SOL     OW68322   8.988   9.978   2.445
22142SOL    HW168323   9.052   9.918   2.408
22142SOL    HW268324   8.903   9.945   2.416
22143SOL     OW68325   2.391   7.308   3.798
22143SOL    HW168326   2.426   7.316   3.887
22143SOL    HW268327   2.315   7.251   3.807
22144SOL     OW68328   4.656   3.337  11.031
22144SOL    HW168329   4.672   3.381  10.947
22144SOL    HW268330   4.596   3.395  11.078
22145SOL     OW68331  12.033  13.590   3.613
22145SOL    HW168332  12.054  13.679   3.587
22145SOL    HW268333  12.114  13.556   3.652
22146SOL     OW68334   0.237  13.427   4.515
22146SOL    HW168335   0.154  13.467   4.539
22146SOL    HW268336   0.223  13.393   4.426
22147SOL     OW68337  11.649  10.166  13.299
22147SOL    HW168338  11.564  10.137  13.267
22147SOL    HW268339  11.631  10.206  13.384
22148SOL     OW68340   3.146   7.047  12.309
22148SOL    HW168341   3.058   7.068  12.277
22148SOL    HW268342   3.142   7.065  12.402
22149SOL     OW68343  10.120  13.286   1.905
22149SOL    HW168344  10.026  13.292   1.888
22149SOL    HW268345  10.132  13.331   1.989
22150SOL     OW68346  10.413   6.424   4.933
22150SOL    HW168347  10.467   6.366   4.987
22150SOL    HW268348  10.398   6.501   4.988
22151SOL     OW68349   4.838   2.396  10.535
22151SOL    HW168350   4.849   2.332  10.607
22151SOL    HW268351   4.775   2.459  10.569
22152SOL     OW68352  10.037  12.754  13.876
22152SOL    HW168353  10.116  12.796  13.842
22152SOL    HW268354   9.970  12.822  13.870
22153SOL     OW68355   8.652   5.535   7.130
22153SOL    HW168356   8.742   5.513   7.104
22153SOL    HW268357   8.603   5.537   7.048
22154SOL     OW68358  11.462   8.917   2.275
22154SOL    HW168359  11.382   8.880   2.237
22154SOL    HW268360  11.453   9.011   2.263
22155SOL     OW68361  12.060   3.439   5.865
22155SOL    HW168362  11.969   3.455   5.842
22155SOL    HW268363  12.056   3.394   5.949
22156SOL     OW68364   6.963   4.060  13.208
22156SOL    HW168365   6.935   4.148  13.183
22156SOL    HW268366   7.006   4.025  13.129
22157SOL     OW68367   6.217  11.078  14.139
22157SOL    HW168368   6.303  11.118  14.154
22157SOL    HW268369   6.166  11.147  14.096
22158SOL     OW68370   4.742  11.821  11.076
22158SOL    HW168371   4.813  11.801  11.137
22158SOL    HW268372   4.781  11.808  10.990
22159SOL     OW68373   1.635   6.881   1.697
22159SOL    HW168374   1.631   6.972   1.726
22159SOL    HW268375   1.728   6.862   1.691
22160SOL     OW68376  11.304  12.866   6.501
22160SOL    HW168377  11.256  12.802   6.449
22160SOL    HW268378  11.287  12.950   6.459
22161SOL     OW68379  12.198   0.025  13.850
22161SOL    HW168380  12.198  14.836  13.918
22161SOL    HW268381  12.108   0.055  13.847
22162SOL     OW68382  11.152   0.181   9.343
22162SOL    HW168383  11.113   0.154   9.426
22162SOL    HW268384  11.088   0.240   9.304
22163SOL     OW68385  12.481  14.673  14.478
22163SOL    HW168386  12.510  14.636  14.395
22163SOL    HW268387  12.389  14.648  14.485
22164SOL     OW68388  10.084   6.322   7.953
22164SOL    HW168389  10.094   6.301   7.861
22164SOL    HW268390  10.024   6.397   7.955
22165SOL     OW68391   2.188   6.544  12.815
22165SOL    HW168392   2.132   6.604  12.864
22165SOL    HW268393   2.226   6.598  12.746
22166SOL     OW68394   9.665   9.257   7.143
22166SOL    HW168395   9.586   9.270   7.090
22166SOL    HW268396   9.675   9.339   7.191
22167SOL     OW68397   9.159   6.485   1.173
22167SOL    HW168398   9.109   6.500   1.252
22167SOL    HW268399   9.149   6.392   1.155
22168SOL     OW68400   1.761   4.546   7.954
22168SOL    HW168401   1.782   4.611   7.887
22168SOL    HW268402   1.689   4.495   7.916
22169SOL     OW68403   8.819  14.699   0.840
22169SOL    HW168404   8.751  14.745   0.790
22169SOL    HW268405   8.796  14.607   0.833
22170SOL     OW68406   2.157   6.594   1.161
22170SOL    HW168407   2.135   6.672   1.213
22170SOL    HW268408   2.250   6.604   1.142
22171SOL     OW68409  11.942   4.522  14.802
22171SOL    HW168410  11.959   4.582  14.729
22171SOL    HW268411  11.947   4.435  14.764
22172SOL     OW68412   6.291   1.470  14.184
22172SOL    HW168413   6.273   1.424  14.266
22172SOL    HW268414   6.253   1.557  14.197
22173SOL     OW68415   9.466  10.894  14.494
22173SOL    HW168416   9.393  10.954  14.509
22173SOL    HW268417   9.441  10.844  14.416
22174SOL     OW68418   5.710   4.206   5.924
22174SOL    HW168419   5.777   4.186   5.990
22174SOL    HW268420   5.754   4.266   5.864
22175SOL     OW68421   2.465   0.876   1.639
22175SOL    HW168422   2.422   0.819   1.703
22175SOL    HW268423   2.531   0.820   1.598
22176SOL     OW68424   5.784   2.745   6.209
22176SOL    HW168425   5.840   2.820   6.191
22176SOL    HW268426   5.804   2.683   6.139
22177SOL     OW68427   3.821   1.434   6.784
22177SOL    HW168428   3.778   1.489   6.849
22177SOL    HW268429   3.750   1.406   6.725
22178SOL     OW68430   9.930   3.481   8.041
22178SOL    HW168431   9.934   3.557   8.100
22178SOL    HW268432   9.905   3.409   8.098
22179SOL     OW68433   6.388  13.621   7.662
22179SOL    HW168434   6.309  13.593   7.616
22179SOL    HW268435   6.361  13.699   7.710
22180SOL     OW68436   7.530  12.869   5.456
22180SOL    HW168437   7.444  12.888   5.492
22180SOL    HW268438   7.562  12.953   5.424
22181SOL     OW68439   4.004  10.687  13.089
22181SOL    HW168440   4.007  10.629  13.165
22181SOL    HW268441   4.016  10.775  13.126
22182SOL     OW68442   9.348   0.454   2.851
22182SOL    HW168443   9.421   0.507   2.820
22182SOL    HW268444   9.365   0.367   2.816
22183SOL     OW68445  13.725   9.626   9.073
22183SOL    HW168446  13.815   9.595   9.087
22183SOL    HW268447  13.678   9.547   9.045
22184SOL     OW68448   0.236   9.313   8.154
22184SOL    HW168449   0.319   9.286   8.115
22184SOL    HW268450   0.250   9.405   8.178
22185SOL     OW68451   2.469   7.531   6.368
22185SOL    HW168452   2.396   7.538   6.307
22185SOL    HW268453   2.539   7.581   6.327
22186SOL     OW68454   3.763   5.046   4.099
22186SOL    HW168455   3.679   5.090   4.109
22186SOL    HW268456   3.746   4.955   4.122
22187SOL     OW68457  14.742  10.384  13.853
22187SOL    HW168458  14.801  10.350  13.786
22187SOL    HW268459  14.744  10.479  13.840
22188SOL     OW68460  12.759   4.060   0.753
22188SOL    HW168461  12.735   4.112   0.676
22188SOL    HW268462  12.845   4.025   0.733
22189SOL     OW68463  12.964   6.979  13.516
22189SOL    HW168464  12.964   6.931  13.433
22189SOL    HW268465  13.051   6.962  13.553
22190SOL     OW68466   6.626   9.995  10.069
22190SOL    HW168467   6.704   9.945  10.044
22190SOL    HW268468   6.563   9.929  10.098
22191SOL     OW68469   7.792  11.819   2.434
22191SOL    HW168470   7.880  11.789   2.457
22191SOL    HW268471   7.776  11.893   2.493
22192SOL     OW68472   7.250   1.227  10.947
22192SOL    HW168473   7.174   1.278  10.975
22192SOL    HW268474   7.301   1.214  11.027
22193SOL     OW68475   4.646  11.281  10.422
22193SOL    HW168476   4.642  11.366  10.378
22193SOL    HW268477   4.635  11.217  10.352
22194SOL     OW68478  14.564   5.144   5.725
22194SOL    HW168479  14.491   5.107   5.675
22194SOL    HW268480  14.523   5.211   5.780
22195SOL     OW68481  11.816  12.416   1.445
22195SOL    HW168482  11.725  12.435   1.468
22195SOL    HW268483  11.866  12.490   1.479
22196SOL     OW68484  14.238   8.839  14.463
22196SOL    HW168485  14.316   8.785  14.451
22196SOL    HW268486  14.269   8.929  14.453
22197SOL     OW68487  12.773   6.588   7.365
22197SOL    HW168488  12.754   6.498   7.390
22197SOL    HW268489  12.690   6.623   7.334
22198SOL     OW68490   6.152   3.347   3.435
22198SOL    HW168491   6.107   3.314   3.513
22198SOL    HW268492   6.082   3.364   3.372
22199SOL     OW68493   0.436  12.671  14.426
22199SOL    HW168494   0.346  12.661  14.394
22199SOL    HW268495   0.489  12.628  14.359
22200SOL     OW68496  13.644  12.040   5.624
22200SOL    HW168497  13.600  12.123   5.641
22200SOL    HW268498  13.617  12.016   5.535
22201SOL     OW68499   1.054   6.599   1.126
22201SOL    HW168500   0.963   6.578   1.146
22201SOL    HW268501   1.049   6.657   1.049
22202SOL     OW68502  11.701   3.056   8.114
22202SOL    HW168503  11.755   3.023   8.042
22202SOL    HW268504  11.674   3.143   8.086
22203SOL     OW68505   8.493  12.433   2.653
22203SOL    HW168506   8.501  12.410   2.561
22203SOL    HW268507   8.583  12.449   2.682
22204SOL     OW68508   5.020  13.664  11.957
22204SOL    HW168509   5.052  13.720  12.028
22204SOL    HW268510   5.094  13.657  11.897
22205SOL     OW68511   6.106   2.742   3.142
22205SOL    HW168512   6.151   2.813   3.096
22205SOL    HW268513   6.033   2.784   3.186
22206SOL     OW68514   7.425   6.706   8.381
22206SOL    HW168515   7.381   6.708   8.296
22206SOL    HW268516   7.517   6.688   8.360
22207SOL     OW68517   6.265   9.965  13.125
22207SOL    HW168518   6.327  10.005  13.064
22207SOL    HW268519   6.261  10.026  13.199
22208SOL     OW68520   7.158   3.703   7.962
22208SOL    HW168521   7.069   3.669   7.949
22208SOL    HW268522   7.215   3.629   7.940
22209SOL     OW68523  13.859  12.068   3.651
22209SOL    HW168524  13.851  12.075   3.746
22209SOL    HW268525  13.769  12.078   3.619
22210SOL     OW68526  11.471  12.148   5.356
22210SOL    HW168527  11.524  12.208   5.305
22210SOL    HW268528  11.442  12.082   5.293
22211SOL     OW68529  11.037   9.488   5.115
22211SOL    HW168530  11.116   9.505   5.166
22211SOL    HW268531  11.036   9.393   5.103
22212SOL     OW68532   6.917   7.257   1.767
22212SOL    HW168533   6.838   7.220   1.806
22212SOL    HW268534   6.979   7.265   1.839
22213SOL     OW68535   9.051   9.664  13.774
22213SOL    HW168536   9.096   9.634  13.853
22213SOL    HW268537   9.122   9.675  13.710
22214SOL     OW68538   6.010   9.126   8.344
22214SOL    HW168539   5.996   9.081   8.261
22214SOL    HW268540   5.942   9.193   8.348
22215SOL     OW68541   0.602   8.426   5.176
22215SOL    HW168542   0.692   8.459   5.168
22215SOL    HW268543   0.599   8.349   5.119
22216SOL     OW68544   2.637   5.807   2.850
22216SOL    HW168545   2.725   5.781   2.878
22216SOL    HW268546   2.636   5.902   2.860
22217SOL     OW68547  10.478   4.808  14.707
22217SOL    HW168548  10.482   4.713  14.717
22217SOL    HW268549  10.385   4.827  14.691
22218SOL     OW68550  13.921   9.066  12.141
22218SOL    HW168551  13.903   8.973  12.134
22218SOL    HW268552  13.995   9.072  12.202
22219SOL     OW68553   6.358   9.735  12.431
22219SOL    HW168554   6.393   9.727  12.342
22219SOL    HW268555   6.367   9.647  12.468
22220SOL     OW68556   7.027   0.337   8.085
22220SOL    HW168557   7.059   0.248   8.070
22220SOL    HW268558   6.935   0.335   8.057
22221SOL     OW68559  11.000  11.460   7.816
22221SOL    HW168560  10.908  11.476   7.838
22221SOL    HW268561  10.998  11.432   7.724
22222SOL     OW68562   1.400   8.420   8.416
22222SOL    HW168563   1.401   8.470   8.497
22222SOL    HW268564   1.308   8.393   8.405
22223SOL     OW68565   3.423   9.313   0.522
22223SOL    HW168566   3.413   9.228   0.480
22223SOL    HW268567   3.335   9.336   0.550
22224SOL     OW68568   8.722   6.266   6.741
22224SOL    HW168569   8.699   6.337   6.680
22224SOL    HW268570   8.741   6.310   6.823
22225SOL     OW68571   0.104   1.572   0.844
22225SOL    HW168572   0.012   1.596   0.843
22225SOL    HW268573   0.132   1.589   0.935
22226SOL     OW68574   1.177   1.186  13.795
22226SOL    HW168575   1.159   1.133  13.873
22226SOL    HW268576   1.097   1.181  13.743
22227SOL     OW68577   1.146  12.112   1.706
22227SOL    HW168578   1.118  12.140   1.619
22227SOL    HW268579   1.113  12.023   1.714
22228SOL     OW68580   7.519  13.539   3.931
22228SOL    HW168581   7.581  13.579   3.991
22228SOL    HW268582   7.521  13.445   3.953
22229SOL     OW68583   0.238  13.368  10.447
22229SOL    HW168584   0.200  13.286  10.479
22229SOL    HW268585   0.178  13.399  10.380
22230SOL     OW68586  14.244   3.204   6.473
22230SOL    HW168587  14.336   3.182   6.456
22230SOL    HW268588  14.202   3.120   6.489
22231SOL     OW68589   8.444  12.094   5.322
22231SOL    HW168590   8.403  12.145   5.393
22231SOL    HW268591   8.396  12.120   5.244
22232SOL     OW68592  11.480   9.649   5.921
22232SOL    HW168593  11.494   9.648   5.826
22232SOL    HW268594  11.457   9.559   5.943
22233SOL     OW68595   8.650  14.506   6.255
22233SOL    HW168596   8.663  14.412   6.268
22233SOL    HW268597   8.629  14.515   6.162
22234SOL     OW68598   3.599  14.788   3.918
22234SOL    HW168599   3.522  14.830   3.879
22234SOL    HW268600   3.613  14.709   3.867
22235SOL     OW68601  14.158  13.734  10.461
22235SOL    HW168602  14.135  13.644  10.484
22235SOL    HW268603  14.254  13.733  10.455
22236SOL     OW68604   0.417   2.421  10.800
22236SOL    HW168605   0.412   2.340  10.851
22236SOL    HW268606   0.325   2.448  10.789
22237SOL     OW68607   7.921   1.358   0.301
22237SOL    HW168608   7.900   1.291   0.236
22237SOL    HW268609   7.870   1.434   0.273
22238SOL     OW68610   1.661   2.097   9.436
22238SOL    HW168611   1.613   2.019   9.408
22238SOL    HW268612   1.701   2.130   9.355
22239SOL     OW68613  14.304   8.982   4.537
22239SOL    HW168614  14.341   8.936   4.612
22239SOL    HW268615  14.224   8.934   4.517
22240SOL     OW68616  11.965   0.339  11.028
22240SOL    HW168617  12.013   0.281  11.087
22240SOL    HW268618  11.893   0.373  11.082
22241SOL     OW68619  14.869   5.019   1.807
22241SOL    HW168620   0.021   5.098   1.852
22241SOL    HW268621  14.784   5.045   1.772
22242SOL     OW68622   6.644   3.902   9.139
22242SOL    HW168623   6.601   3.819   9.120
22242SOL    HW268624   6.591   3.942   9.209
22243SOL     OW68625   8.917  14.512   0.469
22243SOL    HW168626   8.836  14.467   0.496
22243SOL    HW268627   8.886  14.585   0.415
22244SOL     OW68628   1.814   8.162   0.192
22244SOL    HW168629   1.733   8.118   0.217
22244SOL    HW268630   1.794   8.204   0.108
22245SOL     OW68631  14.245   8.963  11.309
22245SOL    HW168632  14.198   8.965  11.392
22245SOL    HW268633  14.186   8.920  11.248
22246SOL     OW68634   2.785   7.208   4.633
22246SOL    HW168635   2.759   7.139   4.572
22246SOL    HW268636   2.853   7.167   4.687
22247SOL     OW68637  10.997   6.070  11.628
22247SOL    HW168638  10.918   6.028  11.594
22247SOL    HW268639  11.015   6.140  11.565
22248SOL     OW68640  10.613   1.674  11.971
22248SOL    HW168641  10.643   1.630  12.051
22248SOL    HW268642  10.609   1.605  11.905
22249SOL     OW68643   7.665  12.962  12.166
22249SOL    HW168644   7.718  13.017  12.108
22249SOL    HW268645   7.586  12.944  12.116
22250SOL     OW68646   4.610   7.006   8.502
22250SOL    HW168647   4.683   6.959   8.463
22250SOL    HW268648   4.536   6.945   8.498
22251SOL     OW68649   0.643   3.655   8.573
22251SOL    HW168650   0.672   3.693   8.656
22251SOL    HW268651   0.682   3.711   8.506
22252SOL     OW68652   4.606   9.371   0.636
22252SOL    HW168653   4.529   9.327   0.673
22252SOL    HW268654   4.590   9.369   0.541
22253SOL     OW68655   7.841   7.699   0.713
22253SOL    HW168656   7.753   7.662   0.704
22253SOL    HW268657   7.877   7.654   0.789
22254SOL     OW68658  14.863   2.702  14.206
22254SOL    HW168659  14.852   2.670  14.296
22254SOL    HW268660  14.774   2.719  14.176
22255SOL     OW68661  10.884  11.528   4.682
22255SOL    HW168662  10.909  11.458   4.621
22255SOL    HW268663  10.907  11.494   4.769
22256SOL     OW68664   7.369  10.839   1.778
22256SOL    HW168665   7.293  10.850   1.835
22256SOL    HW268666   7.334  10.800   1.698
22257SOL     OW68667   0.084   2.502   6.305
22257SOL    HW168668   0.054   2.490   6.215
22257SOL    HW268669   0.095   2.597   6.314
22258SOL     OW68670   1.474   7.071  12.113
22258SOL    HW168671   1.520   7.095  12.032
22258SOL    HW268672   1.408   7.008  12.085
22259SOL     OW68673  12.820  11.007  10.376
22259SOL    HW168674  12.847  10.928  10.330
22259SOL    HW268675  12.736  11.030  10.335
22260SOL     OW68676   2.676   5.598   1.860
22260SOL    HW168677   2.678   5.512   1.817
22260SOL    HW268678   2.726   5.585   1.941
22261SOL     OW68679   4.307   2.010   2.774
22261SOL    HW168680   4.363   1.957   2.829
22261SOL    HW268681   4.323   2.100   2.803
22262SOL     OW68682  10.151   5.259   1.900
22262SOL    HW168683  10.077   5.238   1.956
22262SOL    HW268684  10.189   5.337   1.940
22263SOL     OW68685   3.434   5.307  14.428
22263SOL    HW168686   3.354   5.254  14.436
22263SOL    HW268687   3.490   5.256  14.369
22264SOL     OW68688  11.302  10.372   6.517
22264SOL    HW168689  11.244  10.304   6.484
22264SOL    HW268690  11.292  10.445   6.456
22265SOL     OW68691  11.235  10.806   2.106
22265SOL    HW168692  11.257  10.863   2.180
22265SOL    HW268693  11.140  10.800   2.107
22266SOL     OW68694   4.365  13.326  11.803
22266SOL    HW168695   4.444  13.278  11.830
22266SOL    HW268696   4.293  13.278  11.843
22267SOL     OW68697  10.300   2.076  12.904
22267SOL    HW168698  10.314   2.116  12.818
22267SOL    HW268699  10.384   2.083  12.948
22268SOL     OW68700   9.576   6.242   1.792
22268SOL    HW168701   9.559   6.326   1.748
22268SOL    HW268702   9.491   6.216   1.828
22269SOL     OW68703  13.636   2.311   1.171
22269SOL    HW168704  13.569   2.353   1.224
22269SOL    HW268705  13.595   2.231   1.138
22270SOL     OW68706   0.370   0.145  14.513
22270SOL    HW168707   0.313   0.118  14.441
22270SOL    HW268708   0.419   0.219  14.479
22271SOL     OW68709  12.851   6.416   9.541
22271SOL    HW168710  12.788   6.438   9.472
22271SOL    HW268711  12.879   6.327   9.520
22272SOL     OW68712   7.151  13.119  12.852
22272SOL    HW168713   7.183  13.153  12.936
22272SOL    HW268714   7.146  13.195  12.795
22273SOL     OW68715   1.621   4.132   8.886
22273SOL    HW168716   1.586   4.071   8.951
22273SOL    HW268717   1.600   4.093   8.802
22274SOL     OW68718  11.067  14.844   9.885
22274SOL    HW168719  11.052   0.053   9.917
22274SOL    HW268720  11.053  14.787   9.961
22275SOL     OW68721   1.290   5.262   8.491
22275SOL    HW168722   1.297   5.222   8.577
22275SOL    HW268723   1.311   5.354   8.505
22276SOL     OW68724  14.302  14.298   4.601
22276SOL    HW168725  14.317  14.389   4.579
22276SOL    HW268726  14.239  14.267   4.536
22277SOL     OW68727   8.459  13.750   1.936
22277SOL    HW168728   8.487  13.827   1.886
22277SOL    HW268729   8.382  13.718   1.889
22278SOL     OW68730   8.713   4.022  10.964
22278SOL    HW168731   8.724   4.050  10.873
22278SOL    HW268732   8.644   3.955  10.961
22279SOL     OW68733   1.221   9.528   0.779
22279SOL    HW168734   1.223   9.613   0.737
22279SOL    HW268735   1.304   9.487   0.757
22280SOL     OW68736  12.885   4.267  11.702
22280SOL    HW168737  12.829   4.317  11.763
22280SOL    HW268738  12.963   4.246  11.753
22281SOL     OW68739   4.845  12.989   4.183
22281SOL    HW168740   4.778  12.998   4.115
22281SOL    HW268741   4.921  12.954   4.137
22282SOL     OW68742   1.285  12.388  11.559
22282SOL    HW168743   1.287  12.412  11.466
22282SOL    HW268744   1.195  12.407  11.586
22283SOL     OW68745   9.844  11.259   0.375
22283SOL    HW168746   9.894  11.263   0.293
22283SOL    HW268747   9.845  11.350   0.407
22284SOL     OW68748   1.336  10.373   5.945
22284SOL    HW168749   1.293  10.315   6.008
22284SOL    HW268750   1.290  10.457   5.954
22285SOL     OW68751   1.879  13.603   6.015
22285SOL    HW168752   1.906  13.661   6.086
22285SOL    HW268753   1.856  13.521   6.059
22286SOL     OW68754  10.317  13.647  13.860
22286SOL    HW168755  10.291  13.677  13.947
22286SOL    HW268756  10.285  13.557  13.855
22287SOL     OW68757   9.561   6.628   8.462
22287SOL    HW168758   9.575   6.673   8.545
22287SOL    HW268759   9.486   6.673   8.422
22288SOL     OW68760   4.984  14.239   1.585
22288SOL    HW168761   5.048  14.278   1.525
22288SOL    HW268762   4.973  14.305   1.654
22289SOL     OW68763   6.839   7.981  12.849
22289SOL    HW168764   6.864   8.005  12.760
22289SOL    HW268765   6.922   7.980  12.897
22290SOL     OW68766   1.208  10.934   2.598
22290SOL    HW168767   1.227  11.024   2.624
22290SOL    HW268768   1.114  10.934   2.582
22291SOL     OW68769  14.007   2.604  12.334
22291SOL    HW168770  14.085   2.550  12.318
22291SOL    HW268771  14.040   2.679  12.383
22292SOL     OW68772   9.863   4.853  13.946
22292SOL    HW168773   9.933   4.789  13.960
22292SOL    HW268774   9.901   4.936  13.975
22293SOL     OW68775  14.210  10.495   3.181
22293SOL    HW168776  14.136  10.550   3.156
22293SOL    HW268777  14.283  10.555   3.191
22294SOL     OW68778   1.568   0.324  14.223
22294SOL    HW168779   1.546   0.320  14.316
22294SOL    HW268780   1.644   0.383  14.219
22295SOL     OW68781   6.521  13.487  12.301
22295SOL    HW168782   6.598  13.512  12.250
22295SOL    HW268783   6.467  13.438  12.240
22296SOL     OW68784   8.740   1.874  13.884
22296SOL    HW168785   8.781   1.874  13.971
22296SOL    HW268786   8.688   1.955  13.882
22297SOL     OW68787   8.715  11.791   7.818
22297SOL    HW168788   8.686  11.710   7.860
22297SOL    HW268789   8.722  11.854   7.890
22298SOL     OW68790  13.473   4.750  13.991
22298SOL    HW168791  13.543   4.816  13.990
22298SOL    HW268792  13.427   4.762  13.908
22299SOL     OW68793   2.168   1.656   8.032
22299SOL    HW168794   2.200   1.637   7.944
22299SOL    HW268795   2.205   1.588   8.087
22300SOL     OW68796   4.689   8.363   8.380
22300SOL    HW168797   4.741   8.289   8.349
22300SOL    HW268798   4.599   8.332   8.377
22301SOL     OW68799  11.306  14.216   6.078
22301SOL    HW168800  11.341  14.191   6.164
22301SOL    HW268801  11.262  14.137   6.047
22302SOL     OW68802   9.036  13.106  10.716
22302SOL    HW168803   8.946  13.096  10.748
22302SOL    HW268804   9.077  13.168  10.777
22303SOL     OW68805   5.640   7.724  11.053
22303SOL    HW168806   5.553   7.764  11.044
22303SOL    HW268807   5.679   7.732  10.966
22304SOL     OW68808   4.070   0.364   3.037
22304SOL    HW168809   4.067   0.270   3.057
22304SOL    HW268810   3.990   0.398   3.076
22305SOL     OW68811   1.988   6.820   6.332
22305SOL    HW168812   2.048   6.866   6.273
22305SOL    HW268813   2.041   6.798   6.408
22306SOL     OW68814  11.505   8.160   0.253
22306SOL    HW168815  11.447   8.086   0.237
22306SOL    HW268816  11.556   8.169   0.173
22307SOL     OW68817   5.742   2.428   1.022
22307SOL    HW168818   5.728   2.337   0.996
22307SOL    HW268819   5.744   2.477   0.940
22308SOL     OW68820   0.105  11.524  14.700
22308SOL    HW168821   0.172  11.592  14.707
22308SOL    HW268822   0.097  11.489  14.789
22309SOL     OW68823   2.558   6.621   1.712
22309SOL    HW168824   2.604   6.593   1.791
22309SOL    HW268825   2.567   6.717   1.712
22310SOL     OW68826   7.366  13.486  10.014
22310SOL    HW168827   7.382  13.559   9.955
22310SOL    HW268828   7.271  13.474  10.012
22311SOL     OW68829   0.157  12.781   9.152
22311SOL    HW168830   0.083  12.720   9.145
22311SOL    HW268831   0.116  12.867   9.158
22312SOL     OW68832  12.367   8.194   1.975
22312SOL    HW168833  12.439   8.256   1.968
22312SOL    HW268834  12.320   8.220   2.054
22313SOL     OW68835  14.837   7.534  13.808
22313SOL    HW168836  14.756   7.531  13.858
22313SOL    HW268837  14.870   7.443  13.809
22314SOL     OW68838   5.039   8.296   8.013
22314SOL    HW168839   5.133   8.312   8.022
22314SOL    HW268840   5.007   8.290   8.103
22315SOL     OW68841   3.359   7.624   5.315
22315SOL    HW168842   3.362   7.654   5.224
22315SOL    HW268843   3.285   7.563   5.317
22316SOL     OW68844   8.685   7.565   2.699
22316SOL    HW168845   8.729   7.636   2.652
22316SOL    HW268846   8.724   7.485   2.664
22317SOL     OW68847   0.996   4.592   9.783
22317SOL    HW168848   0.919   4.628   9.740
22317SOL    HW268849   0.964   4.556   9.866
22318SOL     OW68850   5.530  10.643  11.366
22318SOL    HW168851   5.548  10.555  11.333
22318SOL    HW268852   5.616  10.684  11.376
22319SOL     OW68853  10.875  14.620  10.310
22319SOL    HW168854  10.825  14.697  10.282
22319SOL    HW268855  10.958  14.627  10.263
22320SOL     OW68856  11.630   6.947   3.010
22320SOL    HW168857  11.665   7.002   3.080
22320SOL    HW268858  11.542   6.923   3.039
22321SOL     OW68859   7.386   8.692   7.224
22321SOL    HW168860   7.361   8.639   7.299
22321SOL    HW268861   7.480   8.707   7.235
22322SOL     OW68862  11.998  11.960   6.267
22322SOL    HW168863  12.017  11.929   6.179
22322SOL    HW268864  11.915  11.919   6.291
22323SOL     OW68865   7.391   4.691   9.465
22323SOL    HW168866   7.464   4.629   9.473
22323SOL    HW268867   7.409   4.739   9.385
22324SOL     OW68868   7.304  11.187  14.787
22324SOL    HW168869   7.317  11.225  14.700
22324SOL    HW268870   7.379  11.127  14.798
22325SOL     OW68871  12.767   7.171   8.490
22325SOL    HW168872  12.683   7.140   8.522
22325SOL    HW268873  12.744   7.234   8.421
22326SOL     OW68874  12.594   6.820  12.411
22326SOL    HW168875  12.604   6.876  12.488
22326SOL    HW268876  12.663   6.754  12.421
22327SOL     OW68877   2.938   4.220  13.147
22327SOL    HW168878   2.886   4.262  13.216
22327SOL    HW268879   2.881   4.219  13.071
22328SOL     OW68880  14.055   7.146   0.090
22328SOL    HW168881  14.032   7.151   0.183
22328SOL    HW268882  14.060   7.237   0.061
22329SOL     OW68883   2.464   7.359   4.496
22329SOL    HW168884   2.456   7.297   4.423
22329SOL    HW268885   2.543   7.409   4.476
22330SOL     OW68886  11.061   2.984   8.123
22330SOL    HW168887  11.000   2.919   8.087
22330SOL    HW268888  11.146   2.960   8.087
22331SOL     OW68889   5.258   6.635   6.318
22331SOL    HW168890   5.347   6.650   6.286
22331SOL    HW268891   5.241   6.708   6.378
22332SOL     OW68892   9.677   6.405   2.412
22332SOL    HW168893   9.645   6.415   2.322
22332SOL    HW268894   9.704   6.494   2.437
22333SOL     OW68895   4.648   2.310   7.241
22333SOL    HW168896   4.673   2.221   7.266
22333SOL    HW268897   4.558   2.319   7.272
22334SOL     OW68898   3.850  13.343   3.016
22334SOL    HW168899   3.859  13.249   3.032
22334SOL    HW268900   3.757  13.355   2.996
22335SOL     OW68901   2.456   6.384   0.925
22335SOL    HW168902   2.487   6.421   1.008
22335SOL    HW268903   2.477   6.291   0.930
22336SOL     OW68904  13.637   0.055   4.477
22336SOL    HW168905  13.575   0.024   4.410
22336SOL    HW268906  13.583   0.070   4.554
22337SOL     OW68907  11.335  14.419   7.087
22337SOL    HW168908  11.292  14.333   7.082
22337SOL    HW268909  11.370  14.434   6.999
22338SOL     OW68910  14.839  11.296   3.816
22338SOL    HW168911  14.776  11.224   3.810
22338SOL    HW268912   0.010  11.276   3.895
22339SOL     OW68913   6.593  13.833  11.815
22339SOL    HW168914   6.565  13.777  11.887
22339SOL    HW268915   6.614  13.917  11.856
22340SOL     OW68916   3.581   3.379  11.131
22340SOL    HW168917   3.556   3.462  11.090
22340SOL    HW268918   3.507   3.321  11.115
22341SOL     OW68919   0.972  10.497  14.188
22341SOL    HW168920   0.995  10.435  14.119
22341SOL    HW268921   0.978  10.583  14.145
22342SOL     OW68922  13.825  12.125  14.722
22342SOL    HW168923  13.801  12.176  14.645
22342SOL    HW268924  13.838  12.036  14.689
22343SOL     OW68925   4.826  13.628  10.941
22343SOL    HW168926   4.785  13.593  11.020
22343SOL    HW268927   4.797  13.719  10.938
22344SOL     OW68928   8.994   4.381  12.261
22344SOL    HW168929   8.979   4.379  12.355
22344SOL    HW268930   8.966   4.295  12.230
22345SOL     OW68931  10.203  12.983  13.614
22345SOL    HW168932  10.178  12.929  13.540
22345SOL    HW268933  10.206  13.072  13.579
22346SOL     OW68934   9.361   6.494   4.286
22346SOL    HW168935   9.323   6.418   4.241
22346SOL    HW268936   9.420   6.532   4.221
22347SOL     OW68937   8.559   3.176  12.260
22347SOL    HW168938   8.502   3.233  12.207
22347SOL    HW268939   8.500   3.111  12.297
22348SOL     OW68940   6.238  13.602  12.357
22348SOL    HW168941   6.204  13.524  12.314
22348SOL    HW268942   6.201  13.676  12.308
22349SOL     OW68943   7.120  14.344   4.911
22349SOL    HW168944   7.149  14.426   4.950
22349SOL    HW268945   7.155  14.346   4.822
22350SOL     OW68946   2.033  13.176  14.165
22350SOL    HW168947   2.047  13.255  14.218
22350SOL    HW268948   1.943  13.149  14.185
22351SOL     OW68949  14.664  12.389  10.027
22351SOL    HW168950  14.621  12.317  10.074
22351SOL    HW268951  14.747  12.352   9.998
22352SOL     OW68952   2.795   2.399   8.591
22352SOL    HW168953   2.708   2.436   8.604
22352SOL    HW268954   2.815   2.354   8.673
22353SOL     OW68955   5.334  12.427  12.721
22353SOL    HW168956   5.400  12.359  12.718
22353SOL    HW268957   5.345  12.468  12.807
22354SOL     OW68958  12.272   6.299   3.703
22354SOL    HW168959  12.245   6.343   3.784
22354SOL    HW268960  12.319   6.221   3.733
22355SOL     OW68961   0.077  11.034   6.738
22355SOL    HW168962   0.088  10.978   6.815
22355SOL    HW268963   0.121  11.115   6.761
22356SOL     OW68964   5.225   5.319   9.475
22356SOL    HW168965   5.190   5.374   9.545
22356SOL    HW268966   5.192   5.357   9.394
22357SOL     OW68967   4.523   8.689   9.447
22357SOL    HW168968   4.519   8.757   9.379
22357SOL    HW268969   4.437   8.693   9.489
22358SOL     OW68970   0.489   9.115   0.603
22358SOL    HW168971   0.456   9.117   0.513
22358SOL    HW268972   0.419   9.156   0.654
22359SOL     OW68973  13.294   9.576  13.367
22359SOL    HW168974  13.243   9.656  13.378
22359SOL    HW268975  13.263   9.538  13.285
22360SOL     OW68976  14.588   9.296   7.107
22360SOL    HW168977  14.641   9.233   7.060
22360SOL    HW268978  14.526   9.243   7.157
22361SOL     OW68979   9.870   5.053  10.299
22361SOL    HW168980   9.908   4.982  10.351
22361SOL    HW268981   9.797   5.013  10.252
22362SOL     OW68982  14.768   2.379   2.639
22362SOL    HW168983  14.780   2.474   2.649
22362SOL    HW268984  14.775   2.364   2.544
22363SOL     OW68985  13.453   5.798  10.138
22363SOL    HW168986  13.439   5.775  10.230
22363SOL    HW268987  13.383   5.860  10.118
22364SOL     OW68988   8.884   0.453   4.216
22364SOL    HW168989   8.960   0.396   4.224
22364SOL    HW268990   8.839   0.423   4.137
22365SOL     OW68991   7.129   1.215  12.800
22365SOL    HW168992   7.047   1.260  12.820
22365SOL    HW268993   7.153   1.245  12.713
22366SOL     OW68994  11.888  11.561   6.736
22366SOL    HW168995  11.903  11.543   6.829
22366SOL    HW268996  11.969  11.603   6.707
22367SOL     OW68997   1.227   0.279   4.255
22367SOL    HW168998   1.191   0.213   4.315
22367SOL    HW268999   1.301   0.316   4.303
22368SOL     OW69000   3.569  14.166  14.499
22368SOL    HW169001   3.506  14.224  14.541
22368SOL    HW269002   3.551  14.175  14.405
22369SOL     OW69003   8.067   9.040   2.514
22369SOL    HW169004   8.003   8.972   2.494
22369SOL    HW269005   8.132   9.033   2.444
22370SOL     OW69006   4.931   4.362   9.423
22370SOL    HW169007   4.986   4.318   9.488
22370SOL    HW269008   4.993   4.409   9.367
22371SOL     OW69009  14.635   7.911  14.620
22371SOL    HW169010  14.654   7.823  14.654
22371SOL    HW269011  14.687   7.969  14.676
22372SOL     OW69012   5.805   7.229   2.581
22372SOL    HW169013   5.759   7.168   2.524
22372SOL    HW269014   5.896   7.227   2.550
22373SOL     OW69015   7.613   5.956   1.927
22373SOL    HW169016   7.550   5.889   1.953
22373SOL    HW269017   7.676   5.910   1.872
22374SOL     OW69018   7.027   7.778   6.943
22374SOL    HW169019   7.121   7.765   6.933
22374SOL    HW269020   6.996   7.699   6.987
22375SOL     OW69021   6.296   0.902   3.642
22375SOL    HW169022   6.203   0.901   3.665
22375SOL    HW269023   6.297   0.878   3.549
22376SOL     OW69024   4.203   4.322   0.105
22376SOL    HW169025   4.255   4.333   0.026
22376SOL    HW269026   4.264   4.339   0.177
22377SOL     OW69027   0.439   8.262   1.988
22377SOL    HW169028   0.419   8.211   2.067
22377SOL    HW269029   0.390   8.218   1.918
22378SOL     OW69030  14.502   8.896  10.196
22378SOL    HW169031  14.496   8.971  10.136
22378SOL    HW269032  14.522   8.935  10.281
22379SOL     OW69033   4.965   9.684   6.406
22379SOL    HW169034   4.879   9.677   6.447
22379SOL    HW269035   5.021   9.626   6.458
22380SOL     OW69036   2.979   3.803  13.788
22380SOL    HW169037   2.951   3.799  13.696
22380SOL    HW269038   2.942   3.724  13.827
22381SOL     OW69039   1.274   3.269  11.503
22381SOL    HW169040   1.291   3.219  11.582
22381SOL    HW269041   1.345   3.246  11.443
22382SOL     OW69042   7.929   7.396   4.480
22382SOL    HW169043   8.017   7.389   4.517
22382SOL    HW269044   7.894   7.307   4.483
22383SOL     OW69045   5.643   7.308   3.083
22383SOL    HW169046   5.669   7.397   3.105
22383SOL    HW269047   5.582   7.319   3.009
22384SOL     OW69048  10.437  10.896  11.736
22384SOL    HW169049  10.455  10.888  11.830
22384SOL    HW269050  10.522  10.918  11.697
22385SOL     OW69051   4.147   5.620  13.398
22385SOL    HW169052   4.067   5.609  13.347
22385SOL    HW269053   4.121   5.680  13.469
22386SOL     OW69054   9.892   8.714   9.111
22386SOL    HW169055   9.918   8.691   9.022
22386SOL    HW269056   9.825   8.782   9.100
22387SOL     OW69057  11.302  14.540   8.350
22387SOL    HW169058  11.395  14.523   8.366
22387SOL    HW269059  11.294  14.541   8.254
22388SOL     OW69060   0.165   7.659   7.751
22388SOL    HW169061   0.142   7.570   7.777
22388SOL    HW269062   0.204   7.648   7.664
22389SOL     OW69063   2.307   4.216   0.877
22389SOL    HW169064   2.264   4.132   0.864
22389SOL    HW269065   2.290   4.238   0.968
22390SOL     OW69066   8.204   9.827   9.984
22390SOL    HW169067   8.293   9.821   9.950
22390SOL    HW269068   8.150   9.843   9.907
22391SOL     OW69069   9.859   7.999  12.895
22391SOL    HW169070   9.923   8.061  12.859
22391SOL    HW269071   9.899   7.968  12.976
22392SOL     OW69072  10.233   5.733  12.294
22392SOL    HW169073  10.190   5.763  12.374
22392SOL    HW269074  10.224   5.807  12.234
22393SOL     OW69075   9.457  10.034   1.517
22393SOL    HW169076   9.370  10.029   1.556
22393SOL    HW269077   9.507  10.089   1.578
22394SOL     OW69078   7.068   5.535  10.354
22394SOL    HW169079   7.037   5.478  10.425
22394SOL    HW269080   7.139   5.486  10.313
22395SOL     OW69081   2.659   0.261   8.948
22395SOL    HW169082   2.700   0.214   9.021
22395SOL    HW269083   2.568   0.232   8.948
22396SOL     OW69084  12.530  13.973  11.292
22396SOL    HW169085  12.464  13.905  11.302
22396SOL    HW269086  12.481  14.055  11.292
22397SOL     OW69087   4.571   9.927   3.143
22397SOL    HW169088   4.568   9.833   3.126
22397SOL    HW269089   4.635   9.961   3.080
22398SOL     OW69090  10.802  11.857  13.780
22398SOL    HW169091  10.713  11.828  13.761
22398SOL    HW269092  10.834  11.795  13.846
22399SOL     OW69093  14.138  10.287   0.885
22399SOL    HW169094  14.127  10.372   0.843
22399SOL    HW269095  14.110  10.223   0.819
22400SOL     OW69096  13.702   4.312  11.287
22400SOL    HW169097  13.687   4.406  11.278
22400SOL    HW269098  13.624   4.272  11.249
22401SOL     OW69099  14.046   7.356   3.813
22401SOL    HW169100  14.104   7.296   3.767
22401SOL    HW269101  13.989   7.391   3.745
22402SOL     OW69102  13.854  12.227   1.034
22402SOL    HW169103  13.896  12.154   1.079
22402SOL    HW269104  13.906  12.239   0.954
22403SOL     OW69105   5.407   5.875   7.721
22403SOL    HW169106   5.480   5.833   7.764
22403SOL    HW269107   5.394   5.825   7.640
22404SOL     OW69108  14.270   7.077  13.209
22404SOL    HW169109  14.237   7.027  13.284
22404SOL    HW269110  14.194   7.088  13.152
22405SOL     OW69111   9.469   5.795   5.889
22405SOL    HW169112   9.453   5.799   5.794
22405SOL    HW269113   9.517   5.713   5.901
22406SOL     OW69114   0.575   4.906   2.157
22406SOL    HW169115   0.505   4.967   2.134
22406SOL    HW269116   0.534   4.820   2.155
22407SOL     OW69117  12.363  12.536   9.238
22407SOL    HW169118  12.312  12.455   9.249
22407SOL    HW269119  12.396  12.555   9.326
22408SOL     OW69120  13.878   4.935   0.899
22408SOL    HW169121  13.789   4.900   0.890
22408SOL    HW269122  13.929   4.863   0.936
22409SOL     OW69123   2.038   9.595  10.432
22409SOL    HW169124   2.030   9.646  10.513
22409SOL    HW269125   2.101   9.526  10.453
22410SOL     OW69126   4.397   7.280   6.261
22410SOL    HW169127   4.459   7.353   6.269
22410SOL    HW269128   4.408   7.230   6.341
22411SOL     OW69129   4.494   9.441  12.326
22411SOL    HW169130   4.560   9.373  12.338
22411SOL    HW269131   4.435   9.406  12.259
22412SOL     OW69132  11.404   2.725  14.332
22412SOL    HW169133  11.365   2.693  14.251
22412SOL    HW269134  11.360   2.674  14.401
22413SOL     OW69135  14.065  11.842  13.584
22413SOL    HW169136  14.003  11.831  13.656
22413SOL    HW269137  14.022  11.799  13.509
22414SOL     OW69138   3.679   0.044   6.038
22414SOL    HW169139   3.767   0.081   6.048
22414SOL    HW269140   3.649   0.078   5.954
22415SOL     OW69141   0.511   3.170  10.122
22415SOL    HW169142   0.594   3.166  10.075
22415SOL    HW269143   0.478   3.258  10.107
22416SOL     OW69144   8.534  10.185   8.000
22416SOL    HW169145   8.452  10.137   7.987
22416SOL    HW269146   8.592  10.121   8.044
22417SOL     OW69147   4.199   3.798   3.157
22417SOL    HW169148   4.189   3.808   3.251
22417SOL    HW269149   4.194   3.704   3.142
22418SOL     OW69150  12.819  12.838   6.467
22418SOL    HW169151  12.844  12.843   6.375
22418SOL    HW269152  12.898  12.862   6.515
22419SOL     OW69153  10.830   1.687   2.782
22419SOL    HW169154  10.778   1.636   2.844
22419SOL    HW269155  10.770   1.703   2.709
22420SOL     OW69156   0.455   5.222   5.358
22420SOL    HW169157   0.531   5.169   5.383
22420SOL    HW269158   0.381   5.161   5.363
22421SOL     OW69159   3.905   2.280  13.715
22421SOL    HW169160   3.917   2.250  13.625
22421SOL    HW269161   3.917   2.202  13.769
22422SOL     OW69162   0.791   0.034   9.048
22422SOL    HW169163   0.858   0.076   8.993
22422SOL    HW269164   0.767  14.834   9.002
22423SOL     OW69165  10.692   4.143   1.709
22423SOL    HW169166  10.650   4.073   1.659
22423SOL    HW269167  10.637   4.220   1.695
22424SOL     OW69168   8.293   6.886   8.140
22424SOL    HW169169   8.246   6.830   8.078
22424SOL    HW269170   8.303   6.831   8.219
22425SOL     OW69171   6.897  14.349   9.039
22425SOL    HW169172   6.810  14.317   9.020
22425SOL    HW269173   6.955  14.274   9.027
22426SOL     OW69174   5.039   3.466   5.380
22426SOL    HW169175   5.004   3.379   5.397
22426SOL    HW269176   4.973   3.508   5.324
22427SOL     OW69177   9.027  14.639  12.851
22427SOL    HW169178   9.071  14.574  12.795
22427SOL    HW269179   9.029  14.601  12.938
22428SOL     OW69180   4.830  14.049  11.601
22428SOL    HW169181   4.750  14.099  11.587
22428SOL    HW269182   4.821  14.014  11.690
22429SOL     OW69183   1.007   9.325   4.067
22429SOL    HW169184   1.030   9.308   3.975
22429SOL    HW269185   0.999   9.237   4.105
22430SOL     OW69186  10.383   0.026  12.062
22430SOL    HW169187  10.392  14.840  12.131
22430SOL    HW269188  10.468   0.023  12.016
22431SOL     OW69189   6.914   5.865   6.605
22431SOL    HW169190   6.893   5.776   6.632
22431SOL    HW269191   6.930   5.913   6.686
22432SOL     OW69192  10.933  13.168  11.611
22432SOL    HW169193  11.007  13.111  11.630
22432SOL    HW269194  10.969  13.237  11.555
22433SOL     OW69195   9.389   8.521   8.369
22433SOL    HW169196   9.473   8.476   8.374
22433SOL    HW269197   9.370   8.525   8.275
22434SOL     OW69198  10.698   4.558   9.695
22434SOL    HW169199  10.775   4.593   9.739
22434SOL    HW269200  10.677   4.478   9.742
22435SOL     OW69201   5.524   2.083  11.712
22435SOL    HW169202   5.490   2.159  11.759
22435SOL    HW269203   5.554   2.024  11.781
22436SOL     OW69204  12.435   8.788  14.789
22436SOL    HW169205  12.431   8.875  14.829
22436SOL    HW269206  12.472   8.733  14.858
22437SOL     OW69207   8.855  10.308   7.905
22437SOL    HW169208   8.876  10.398   7.882
22437SOL    HW269209   8.902  10.292   7.986
22438SOL     OW69210   1.172  14.829  13.493
22438SOL    HW169211   1.083  14.818  13.457
22438SOL    HW269212   1.215  14.745  13.475
22439SOL     OW69213  14.112  11.262   4.195
22439SOL    HW169214  14.143  11.204   4.126
22439SOL    HW269215  14.147  11.225   4.276
22440SOL     OW69216  10.439   7.338   6.607
22440SOL    HW169217  10.434   7.316   6.514
22440SOL    HW269218  10.488   7.266   6.646
22441SOL     OW69219   2.253   8.517   3.614
22441SOL    HW169220   2.323   8.580   3.595
22441SOL    HW269221   2.259   8.452   3.544
22442SOL     OW69222   0.542   8.477   6.225
22442SOL    HW169223   0.594   8.405   6.190
22442SOL    HW269224   0.451   8.451   6.210
22443SOL     OW69225  12.008  10.019  11.592
22443SOL    HW169226  11.966  10.101  11.567
22443SOL    HW269227  11.984   9.958  11.522
22444SOL     OW69228   9.189  11.515  14.495
22444SOL    HW169229   9.238  11.526  14.577
22444SOL    HW269230   9.231  11.441  14.451
22445SOL     OW69231   3.930   8.034   2.962
22445SOL    HW169232   4.025   8.033   2.973
22445SOL    HW269233   3.899   7.965   3.020
22446SOL     OW69234   6.874   7.123   0.875
22446SOL    HW169235   6.941   7.191   0.882
22446SOL    HW269236   6.900   7.071   0.799
22447SOL     OW69237   0.066   0.136   9.183
22447SOL    HW169238   0.144   0.162   9.134
22447SOL    HW269239   0.049   0.046   9.156
22448SOL     OW69240   9.748   8.030   2.238
22448SOL    HW169241   9.654   8.035   2.219
22448SOL    HW269242   9.753   8.005   2.330
22449SOL     OW69243   3.927   9.940   4.665
22449SOL    HW169244   3.832   9.938   4.681
22449SOL    HW269245   3.939  10.015   4.607
22450SOL     OW69246  12.616  14.019   8.345
22450SOL    HW169247  12.697  13.980   8.379
22450SOL    HW269248  12.645  14.085   8.282
22451SOL     OW69249   6.082   4.972  11.698
22451SOL    HW169250   6.088   4.962  11.603
22451SOL    HW269251   6.153   4.918  11.732
22452SOL     OW69252   3.878   0.675   5.168
22452SOL    HW169253   3.820   0.667   5.092
22452SOL    HW269254   3.842   0.613   5.231
22453SOL     OW69255   8.765  13.788   2.404
22453SOL    HW169256   8.802  13.809   2.318
22453SOL    HW269257   8.842  13.771   2.459
22454SOL     OW69258   1.598  10.549   0.685
22454SOL    HW169259   1.543  10.585   0.615
22454SOL    HW269260   1.687  10.566   0.657
22455SOL     OW69261  13.493  14.455   6.845
22455SOL    HW169262  13.556  14.385   6.827
22455SOL    HW269263  13.422  14.411   6.891
22456SOL     OW69264  11.088   2.296   2.858
22456SOL    HW169265  11.018   2.276   2.921
22456SOL    HW269266  11.055   2.263   2.775
22457SOL     OW69267   5.357   4.291  13.198
22457SOL    HW169268   5.425   4.305  13.131
22457SOL    HW269269   5.375   4.204  13.232
22458SOL     OW69270   0.092   1.705  10.023
22458SOL    HW169271   0.170   1.675  10.069
22458SOL    HW269272   0.022   1.700  10.089
22459SOL     OW69273   1.302  11.048   6.809
22459SOL    HW169274   1.308  10.952   6.805
22459SOL    HW269275   1.390  11.077   6.831
22460SOL     OW69276   2.930  14.727   5.806
22460SOL    HW169277   2.944  14.802   5.864
22460SOL    HW269278   2.998  14.664   5.831
22461SOL     OW69279   5.125  14.665   2.855
22461SOL    HW169280   5.213  14.650   2.888
22461SOL    HW269281   5.128  14.753   2.816
22462SOL     OW69282   6.459   2.581  14.159
22462SOL    HW169283   6.448   2.633  14.239
22462SOL    HW269284   6.554   2.575  14.148
22463SOL     OW69285   4.796   5.965   2.927
22463SOL    HW169286   4.848   5.890   2.954
22463SOL    HW269287   4.832   6.039   2.977
22464SOL     OW69288  14.737   2.140   0.716
22464SOL    HW169289  14.775   2.065   0.762
22464SOL    HW269290  14.804   2.208   0.724
22465SOL     OW69291   7.593   9.846   4.272
22465SOL    HW169292   7.544   9.926   4.294
22465SOL    HW269293   7.595   9.796   4.353
22466SOL     OW69294   6.823  13.153   6.809
22466SOL    HW169295   6.866  13.199   6.881
22466SOL    HW269296   6.804  13.065   6.844
22467SOL     OW69297   0.983   3.853  11.925
22467SOL    HW169298   0.945   3.776  11.882
22467SOL    HW269299   0.949   3.849  12.015
22468SOL     OW69300   7.226   5.889   6.538
22468SOL    HW169301   7.281   5.841   6.475
22468SOL    HW269302   7.285   5.907   6.612
22469SOL     OW69303  13.486  12.488   7.910
22469SOL    HW169304  13.557  12.516   7.967
22469SOL    HW269305  13.428  12.564   7.905
22470SOL     OW69306   9.441   4.777   8.181
22470SOL    HW169307   9.528   4.787   8.142
22470SOL    HW269308   9.451   4.704   8.242
22471SOL     OW69309  10.979  12.511   0.970
22471SOL    HW169310  11.055  12.568   0.955
22471SOL    HW269311  10.930  12.515   0.888
22472SOL     OW69312   3.032  11.789   9.191
22472SOL    HW169313   3.028  11.815   9.099
22472SOL    HW269314   3.077  11.705   9.191
22473SOL     OW69315   3.034   9.483  13.281
22473SOL    HW169316   3.078   9.568  13.292
22473SOL    HW269317   2.975   9.477  13.355
22474SOL     OW69318   0.449  12.834   4.525
22474SOL    HW169319   0.475  12.919   4.491
22474SOL    HW269320   0.493  12.827   4.609
22475SOL     OW69321  12.058   7.117  11.352
22475SOL    HW169322  12.029   7.079  11.268
22475SOL    HW269323  12.098   7.043  11.398
22476SOL     OW69324   2.758   1.544   2.134
22476SOL    HW169325   2.698   1.563   2.062
22476SOL    HW269326   2.740   1.612   2.199
22477SOL     OW69327   3.002   4.831   0.721
22477SOL    HW169328   3.066   4.901   0.709
22477SOL    HW269329   3.047   4.752   0.692
22478SOL     OW69330  14.223   0.080   2.801
22478SOL    HW169331  14.292   0.014   2.791
22478SOL    HW269332  14.156   0.037   2.854
22479SOL     OW69333   3.391   5.929   7.399
22479SOL    HW169334   3.322   5.886   7.449
22479SOL    HW269335   3.374   6.022   7.409
22480SOL     OW69336  13.462  12.621   0.239
22480SOL    HW169337  13.478  12.624   0.145
22480SOL    HW269338  13.532  12.566   0.274
22481SOL     OW69339   6.306   9.777   8.613
22481SOL    HW169340   6.336   9.808   8.527
22481SOL    HW269341   6.350   9.692   8.625
22482SOL     OW69342   3.457   6.941   1.645
22482SOL    HW169343   3.419   6.886   1.714
22482SOL    HW269344   3.388   6.947   1.579
22483SOL     OW69345   0.901   0.012  14.785
22483SOL    HW169346   0.952  14.816  14.813
22483SOL    HW269347   0.955   0.088  14.809
22484SOL     OW69348  12.008  14.271   4.083
22484SOL    HW169349  11.993  14.199   4.144
22484SOL    HW269350  11.922  14.310   4.070
22485SOL     OW69351  14.394  14.728   2.874
22485SOL    HW169352  14.366  14.636   2.874
22485SOL    HW269353  14.485  14.725   2.842
22486SOL     OW69354   3.565   8.410   9.573
22486SOL    HW169355   3.499   8.345   9.597
22486SOL    HW269356   3.648   8.367   9.593
22487SOL     OW69357   5.734   9.467  10.981
22487SOL    HW169358   5.800   9.497  10.919
22487SOL    HW269359   5.781   9.462  11.065
22488SOL     OW69360   3.124   1.695   9.393
22488SOL    HW169361   3.095   1.607   9.417
22488SOL    HW269362   3.138   1.739   9.476
22489SOL     OW69363  11.325  10.932   2.355
22489SOL    HW169364  11.414  10.956   2.328
22489SOL    HW269365  11.335  10.847   2.399
22490SOL     OW69366   1.812  14.582   7.565
22490SOL    HW169367   1.754  14.508   7.579
22490SOL    HW269368   1.765  14.657   7.600
22491SOL     OW69369  10.488  12.997   9.576
22491SOL    HW169370  10.518  12.946   9.501
22491SOL    HW269371  10.395  12.979   9.583
22492SOL     OW69372   3.217  14.328  10.117
22492SOL    HW169373   3.221  14.233  10.106
22492SOL    HW269374   3.227  14.363  10.028
22493SOL     OW69375   2.163   6.382   3.046
22493SOL    HW169376   2.093   6.409   2.985
22493SOL    HW269377   2.120   6.379   3.131
22494SOL     OW69378   6.440  11.190  14.321
22494SOL    HW169379   6.427  11.261  14.384
22494SOL    HW269380   6.504  11.224  14.259
22495SOL     OW69381   3.090   3.604   6.357
22495SOL    HW169382   3.110   3.528   6.413
22495SOL    HW269383   3.002   3.630   6.383
22496SOL     OW69384   3.991  10.129  12.707
22496SOL    HW169385   3.925  10.177  12.756
22496SOL    HW269386   3.990  10.169  12.620
22497SOL     OW69387   2.841   4.690   2.682
22497SOL    HW169388   2.809   4.780   2.694
22497SOL    HW269389   2.766   4.641   2.649
22498SOL     OW69390   5.714  11.620   9.521
22498SOL    HW169391   5.782  11.639   9.457
22498SOL    HW269392   5.663  11.701   9.527
22499SOL     OW69393   6.459   7.551   9.930
22499SOL    HW169394   6.545   7.527   9.895
22499SOL    HW269395   6.467   7.537  10.024
22500SOL     OW69396   8.646   2.367   9.297
22500SOL    HW169397   8.732   2.377   9.337
22500SOL    HW269398   8.617   2.279   9.322
22501SOL     OW69399   0.051   5.309  13.501
22501SOL    HW169400   0.003   5.355  13.432
22501SOL    HW269401   0.138   5.293  13.463
22502SOL     OW69402   6.272   5.361   8.477
22502SOL    HW169403   6.229   5.300   8.417
22502SOL    HW269404   6.364   5.363   8.448
22503SOL     OW69405   6.202  10.811   0.600
22503SOL    HW169406   6.193  10.777   0.689
22503SOL    HW269407   6.132  10.876   0.592
22504SOL     OW69408  10.274  14.462   0.570
22504SOL    HW169409  10.190  14.453   0.525
22504SOL    HW269410  10.293  14.375   0.605
22505SOL     OW69411  12.504  12.572   2.121
22505SOL    HW169412  12.578  12.544   2.174
22505SOL    HW269413  12.506  12.667   2.125
22506SOL     OW69414  10.210  13.416   0.572
22506SOL    HW169415  10.172  13.334   0.540
22506SOL    HW269416  10.189  13.418   0.665
22507SOL     OW69417   5.684   8.048   8.721
22507SOL    HW169418   5.642   8.090   8.796
22507SOL    HW269419   5.615   7.993   8.682
22508SOL     OW69420   6.546   4.699  12.869
22508SOL    HW169421   6.592   4.764  12.816
22508SOL    HW269422   6.614   4.638  12.897
22509SOL     OW69423   2.180   9.650  12.519
22509SOL    HW169424   2.149   9.621  12.605
22509SOL    HW269425   2.217   9.736  12.535
22510SOL     OW69426   2.299   5.820   0.938
22510SOL    HW169427   2.307   5.751   0.872
22510SOL    HW269428   2.226   5.874   0.907
22511SOL     OW69429   5.833   5.576   1.179
22511SOL    HW169430   5.772   5.522   1.229
22511SOL    HW269431   5.783   5.654   1.155
22512SOL     OW69432   7.771   1.878   6.991
22512SOL    HW169433   7.707   1.872   6.920
22512SOL    HW269434   7.764   1.969   7.022
22513SOL     OW69435  11.743  12.077  14.472
22513SOL    HW169436  11.708  12.164  14.453
22513SOL    HW269437  11.802  12.059  14.399
22514SOL     OW69438   8.989  10.574   2.902
22514SOL    HW169439   9.050  10.602   2.970
22514SOL    HW269440   9.041  10.573   2.822
22515SOL     OW69441   4.826   7.559   5.849
22515SOL    HW169442   4.895   7.575   5.784
22515SOL    HW269443   4.745   7.555   5.798
22516SOL     OW69444   7.433   3.149   1.554
22516SOL    HW169445   7.425   3.071   1.500
22516SOL    HW269446   7.444   3.220   1.492
22517SOL     OW69447  11.695   4.943  13.678
22517SOL    HW169448  11.602   4.928  13.696
22517SOL    HW269449  11.721   4.869  13.624
22518SOL     OW69450   5.218   0.419   4.055
22518SOL    HW169451   5.267   0.473   3.993
22518SOL    HW269452   5.250   0.330   4.039
22519SOL     OW69453   7.377  10.428  13.602
22519SOL    HW169454   7.351  10.505  13.653
22519SOL    HW269455   7.301  10.369  13.608
22520SOL     OW69456  14.753   5.618   1.865
22520SOL    HW169457  14.715   5.536   1.833
22520SOL    HW269458  14.760   5.673   1.787
22521SOL     OW69459   9.937   7.055  13.187
22521SOL    HW169460   9.946   7.020  13.098
22521SOL    HW269461  10.016   7.027  13.232
22522SOL     OW69462   4.773  10.336   0.390
22522SOL    HW169463   4.827  10.311   0.465
22522SOL    HW269464   4.835  10.373   0.327
22523SOL     OW69465   7.254  10.344   5.357
22523SOL    HW169466   7.274  10.251   5.362
22523SOL    HW269467   7.158  10.348   5.358
22524SOL     OW69468  14.090  12.725   1.322
22524SOL    HW169469  14.154  12.744   1.391
22524SOL    HW269470  14.143  12.709   1.244
22525SOL     OW69471  11.256   3.478  10.539
22525SOL    HW169472  11.327   3.498  10.600
22525SOL    HW269473  11.274   3.389  10.510
22526SOL     OW69474  13.696   0.550   2.702
22526SOL    HW169475  13.721   0.612   2.770
22526SOL    HW269476  13.776   0.499   2.685
22527SOL     OW69477   8.202   9.391  12.173
22527SOL    HW169478   8.171   9.300  12.174
22527SOL    HW269479   8.296   9.385  12.154
22528SOL     OW69480   2.300  12.202  13.694
22528SOL    HW169481   2.279  12.192  13.602
22528SOL    HW269482   2.310  12.112  13.726
22529SOL     OW69483   9.154   0.439   3.032
22529SOL    HW169484   9.232   0.457   2.978
22529SOL    HW269485   9.119   0.357   2.997
22530SOL     OW69486   9.980   9.228   8.937
22530SOL    HW169487  10.043   9.298   8.956
22530SOL    HW269488   9.955   9.195   9.023
22531SOL     OW69489  12.493   3.648  11.563
22531SOL    HW169490  12.444   3.699  11.497
22531SOL    HW269491  12.576   3.694  11.571
22532SOL     OW69492  13.233   4.858  11.856
22532SOL    HW169493  13.176   4.899  11.921
22532SOL    HW269494  13.320   4.862  11.894
22533SOL     OW69495   3.397   1.889   8.262
22533SOL    HW169496   3.375   1.978   8.235
22533SOL    HW269497   3.363   1.883   8.352
22534SOL     OW69498   4.224  10.182   2.134
22534SOL    HW169499   4.291  10.116   2.153
22534SOL    HW269500   4.149  10.131   2.102
22535SOL     OW69501   4.399   0.149  13.742
22535SOL    HW169502   4.391   0.226  13.799
22535SOL    HW269503   4.372   0.076  13.797
22536SOL     OW69504  13.892   7.529  10.333
22536SOL    HW169505  13.987   7.541  10.324
22536SOL    HW269506  13.864   7.500  10.246
22537SOL     OW69507  14.386   9.145   6.857
22537SOL    HW169508  14.461   9.198   6.829
22537SOL    HW269509  14.348   9.113   6.775
22538SOL     OW69510   7.553   8.997   2.943
22538SOL    HW169511   7.479   9.045   2.980
22538SOL    HW269512   7.522   8.907   2.936
22539SOL     OW69513   1.532   6.235   5.159
22539SOL    HW169514   1.476   6.312   5.144
22539SOL    HW269515   1.510   6.175   5.089
22540SOL     OW69516   0.256   1.660   0.482
22540SOL    HW169517   0.326   1.599   0.506
22540SOL    HW269518   0.192   1.606   0.435
22541SOL     OW69519   6.147  12.414  10.881
22541SOL    HW169520   6.157  12.320  10.868
22541SOL    HW269521   6.133  12.449  10.793
22542SOL     OW69522   9.150  12.212   1.048
22542SOL    HW169523   9.070  12.160   1.059
22542SOL    HW269524   9.157  12.225   0.954
22543SOL     OW69525   9.133  10.203   4.761
22543SOL    HW169526   9.221  10.178   4.786
22543SOL    HW269527   9.144  10.249   4.677
22544SOL     OW69528   8.898   4.247  14.500
22544SOL    HW169529   8.887   4.274  14.592
22544SOL    HW269530   8.826   4.290  14.454
22545SOL     OW69531   7.438   7.600   3.956
22545SOL    HW169532   7.493   7.654   4.013
22545SOL    HW269533   7.452   7.510   3.986
22546SOL     OW69534   0.279  13.574  14.820
22546SOL    HW169535   0.338  13.631  14.869
22546SOL    HW269536   0.267  13.619  14.736
22547SOL     OW69537   1.855  13.994   5.852
22547SOL    HW169538   1.900  13.936   5.790
22547SOL    HW269539   1.798  13.935   5.902
22548SOL     OW69540   2.481  10.627   8.504
22548SOL    HW169541   2.388  10.613   8.485
22548SOL    HW269542   2.507  10.548   8.551
22549SOL     OW69543  13.003   8.923  14.520
22549SOL    HW169544  13.017   9.012  14.487
22549SOL    HW269545  12.925   8.892  14.474
22550SOL     OW69546   8.521  10.055   6.869
22550SOL    HW169547   8.527  10.053   6.773
22550SOL    HW269548   8.459  10.126   6.887
22551SOL     OW69549   7.116   8.189  14.701
22551SOL    HW169550   7.081   8.274  14.676
22551SOL    HW269551   7.169   8.162  14.626
22552SOL     OW69552   1.953   8.068   1.711
22552SOL    HW169553   2.016   8.095   1.778
22552SOL    HW269554   1.873   8.051   1.760
22553SOL     OW69555  14.498   8.967   1.365
22553SOL    HW169556  14.572   8.940   1.310
22553SOL    HW269557  14.460   8.885   1.396
22554SOL     OW69558   6.136   9.121  12.401
22554SOL    HW169559   6.087   9.174  12.339
22554SOL    HW269560   6.069   9.068  12.445
22555SOL     OW69561   5.687  11.954   8.897
22555SOL    HW169562   5.759  11.891   8.896
22555SOL    HW269563   5.618  11.913   8.847
22556SOL     OW69564   4.417   6.912   7.624
22556SOL    HW169565   4.342   6.943   7.573
22556SOL    HW269566   4.466   6.856   7.563
22557SOL     OW69567   0.489   3.772   2.779
22557SOL    HW169568   0.519   3.744   2.693
22557SOL    HW269569   0.472   3.866   2.769
22558SOL     OW69570   7.496   4.536   9.069
22558SOL    HW169571   7.580   4.507   9.032
22558SOL    HW269572   7.515   4.553   9.161
22559SOL     OW69573   0.749   4.663  10.806
22559SOL    HW169574   0.767   4.650  10.713
22559SOL    HW269575   0.727   4.756  10.814
22560SOL     OW69576   6.043  12.711   0.338
22560SOL    HW169577   5.973  12.646   0.339
22560SOL    HW269578   6.092  12.692   0.258
22561SOL     OW69579   3.234   6.942   8.077
22561SOL    HW169580   3.175   6.876   8.114
22561SOL    HW269581   3.212   6.945   7.984
22562SOL     OW69582  13.298  14.356   0.312
22562SOL    HW169583  13.297  14.268   0.349
22562SOL    HW269584  13.293  14.414   0.388
22563SOL     OW69585   3.314  12.416   8.763
22563SOL    HW169586   3.279  12.365   8.690
22563SOL    HW269587   3.238  12.435   8.818
22564SOL     OW69588   1.878   2.381  12.212
22564SOL    HW169589   1.835   2.316  12.267
22564SOL    HW269590   1.951   2.333  12.171
22565SOL     OW69591  11.033   2.805   0.136
22565SOL    HW169592  10.963   2.801   0.201
22565SOL    HW269593  10.998   2.759   0.060
22566SOL     OW69594  14.158   5.565   8.478
22566SOL    HW169595  14.240   5.522   8.499
22566SOL    HW269596  14.183   5.649   8.442
22567SOL     OW69597   6.818   3.549  10.414
22567SOL    HW169598   6.756   3.485  10.377
22567SOL    HW269599   6.900   3.531  10.369
22568SOL     OW69600   3.591   2.636  13.665
22568SOL    HW169601   3.655   2.669  13.728
22568SOL    HW269602   3.553   2.559  13.707
22569SOL     OW69603   5.959   4.171   5.111
22569SOL    HW169604   6.002   4.112   5.173
22569SOL    HW269605   5.885   4.207   5.159
22570SOL     OW69606   6.010   7.826  12.090
22570SOL    HW169607   5.947   7.761  12.122
22570SOL    HW269608   6.095   7.781  12.094
22571SOL     OW69609   5.516   3.578  13.886
22571SOL    HW169610   5.532   3.546  13.975
22571SOL    HW269611   5.477   3.664  13.898
22572SOL     OW69612   6.160   4.549   2.035
22572SOL    HW169613   6.145   4.582   1.947
22572SOL    HW269614   6.085   4.492   2.053
22573SOL     OW69615  10.714   7.377   1.605
22573SOL    HW169616  10.658   7.437   1.654
22573SOL    HW269617  10.672   7.369   1.520
22574SOL     OW69618   4.243   0.035   9.512
22574SOL    HW169619   4.197  14.835   9.487
22574SOL    HW269620   4.175   0.090   9.550
22575SOL     OW69621  13.606   9.165   2.432
22575SOL    HW169622  13.701   9.164   2.428
22575SOL    HW269623  13.579   9.107   2.360
22576SOL     OW69624   5.086   1.308  11.694
22576SOL    HW169625   5.061   1.255  11.770
22576SOL    HW269626   5.145   1.374  11.730
22577SOL     OW69627   8.624   2.104  13.065
22577SOL    HW169628   8.588   2.082  12.979
22577SOL    HW269629   8.647   2.019  13.104
22578SOL     OW69630   4.610   1.562  11.235
22578SOL    HW169631   4.583   1.473  11.210
22578SOL    HW269632   4.704   1.564  11.218
22579SOL     OW69633  13.753   0.199   5.823
22579SOL    HW169634  13.826   0.151   5.864
22579SOL    HW269635  13.720   0.256   5.892
22580SOL     OW69636   4.486   6.587  13.027
22580SOL    HW169637   4.398   6.574  13.062
22580SOL    HW269638   4.542   6.531  13.080
22581SOL     OW69639   3.735   6.122  13.349
22581SOL    HW169640   3.821   6.079  13.355
22581SOL    HW269641   3.680   6.073  13.409
22582SOL     OW69642   5.499   3.602  11.941
22582SOL    HW169643   5.590   3.573  11.950
22582SOL    HW269644   5.474   3.629  12.030
22583SOL     OW69645   6.744  14.789  12.605
22583SOL    HW169646   6.790  14.716  12.563
22583SOL    HW269647   6.707  14.839  12.532
22584SOL     OW69648  10.448   6.972   1.535
22584SOL    HW169649  10.434   6.878   1.547
22584SOL    HW269650  10.499   6.998   1.612
22585SOL     OW69651  14.063   0.710   2.696
22585SOL    HW169652  14.119   0.667   2.632
22585SOL    HW269653  14.092   0.675   2.781
22586SOL     OW69654  14.184   9.261   6.481
22586SOL    HW169655  14.155   9.352   6.485
22586SOL    HW269656  14.267   9.264   6.432
22587SOL     OW69657  13.764   8.362   8.554
22587SOL    HW169658  13.794   8.278   8.520
22587SOL    HW269659  13.806   8.370   8.639
22588SOL     OW69660   4.925  14.054   0.292
22588SOL    HW169661   4.903  14.146   0.285
22588SOL    HW269662   4.852  14.008   0.250
22589SOL     OW69663   1.618   0.978  12.070
22589SOL    HW169664   1.673   0.935  12.135
22589SOL    HW269665   1.632   0.928  11.989
22590SOL     OW69666   5.785   2.897  10.554
22590SOL    HW169667   5.692   2.913  10.536
22590SOL    HW269668   5.796   2.803  10.539
22591SOL     OW69669   2.149  14.324   0.595
22591SOL    HW169670   2.103  14.246   0.565
22591SOL    HW269671   2.218  14.338   0.531
22592SOL     OW69672  11.545   2.529   8.270
22592SOL    HW169673  11.583   2.580   8.199
22592SOL    HW269674  11.453   2.554   8.270
22593SOL     OW69675   1.893   8.638   8.012
22593SOL    HW169676   1.929   8.696   7.945
22593SOL    HW269677   1.900   8.550   7.974
22594SOL     OW69678  10.358   1.104   3.480
22594SOL    HW169679  10.405   1.043   3.536
22594SOL    HW269680  10.414   1.181   3.475
22595SOL     OW69681   1.613   8.706   1.805
22595SOL    HW169682   1.687   8.712   1.744
22595SOL    HW269683   1.536   8.699   1.749
22596SOL     OW69684   8.629   0.241   7.371
22596SOL    HW169685   8.610   0.150   7.351
22596SOL    HW269686   8.607   0.251   7.464
22597SOL     OW69687   2.922   8.698   9.056
22597SOL    HW169688   2.883   8.637   8.993
22597SOL    HW269689   2.908   8.785   9.017
22598SOL     OW69690   5.902   3.789  12.434
22598SOL    HW169691   5.832   3.785  12.500
22598SOL    HW269692   5.862   3.752  12.355
22599SOL     OW69693  12.631   4.315   0.570
22599SOL    HW169694  12.634   4.284   0.480
22599SOL    HW269695  12.622   4.410   0.563
22600SOL     OW69696  11.605   8.838   8.550
22600SOL    HW169697  11.611   8.788   8.469
22600SOL    HW269698  11.521   8.812   8.588
22601SOL     OW69699  10.288   9.038   5.033
22601SOL    HW169700  10.314   8.946   5.030
22601SOL    HW269701  10.272   9.055   5.126
22602SOL     OW69702   3.355   3.699  13.851
22602SOL    HW169703   3.368   3.686  13.757
22602SOL    HW269704   3.323   3.615  13.882
22603SOL     OW69705   2.820  11.294   7.499
22603SOL    HW169706   2.915  11.294   7.501
22603SOL    HW269707   2.794  11.240   7.573
22604SOL     OW69708   9.178   2.369   6.813
22604SOL    HW169709   9.255   2.405   6.857
22604SOL    HW269710   9.211   2.340   6.728
22605SOL     OW69711  12.645   8.062  10.240
22605SOL    HW169712  12.555   8.034  10.252
22605SOL    HW269713  12.698   7.990  10.276
22606SOL     OW69714  13.445  11.531   9.207
22606SOL    HW169715  13.478  11.616   9.177
22606SOL    HW269716  13.351  11.544   9.219
22607SOL     OW69717   7.818   0.610  11.753
22607SOL    HW169718   7.749   0.676  11.744
22607SOL    HW269719   7.892   0.657  11.791
22608SOL     OW69720  13.512   9.452   2.252
22608SOL    HW169721  13.569   9.376   2.237
22608SOL    HW269722  13.540   9.516   2.186
22609SOL     OW69723   9.457   2.207   0.429
22609SOL    HW169724   9.542   2.228   0.391
22609SOL    HW269725   9.414   2.292   0.439
22610SOL     OW69726  10.013   2.415   7.587
22610SOL    HW169727  10.038   2.495   7.634
22610SOL    HW269728  10.052   2.425   7.500
22611SOL     OW69729   7.345  13.220  13.655
22611SOL    HW169730   7.339  13.181  13.742
22611SOL    HW269731   7.256  13.218  13.621
22612SOL     OW69732   9.230   6.744  11.682
22612SOL    HW169733   9.213   6.780  11.769
22612SOL    HW269734   9.150   6.695  11.661
22613SOL     OW69735   4.770  13.337  13.037
22613SOL    HW169736   4.824  13.341  13.116
22613SOL    HW269737   4.739  13.426  13.024
22614SOL     OW69738   7.529   2.173  11.706
22614SOL    HW169739   7.602   2.202  11.652
22614SOL    HW269740   7.457   2.160  11.644
22615SOL     OW69741   6.808   6.013   0.825
22615SOL    HW169742   6.807   6.045   0.735
22615SOL    HW269743   6.865   5.936   0.823
22616SOL     OW69744  13.225   0.867   3.553
22616SOL    HW169745  13.296   0.896   3.610
22616SOL    HW269746  13.164   0.822   3.611
22617SOL     OW69747   1.724   8.340   4.804
22617SOL    HW169748   1.811   8.304   4.789
22617SOL    HW269749   1.666   8.286   4.751
22618SOL     OW69750  14.675  10.577  11.925
22618SOL    HW169751  14.582  10.600  11.933
22618SOL    HW269752  14.685  10.498  11.978
22619SOL     OW69753   8.340   2.035  10.792
22619SOL    HW169754   8.251   2.031  10.826
22619SOL    HW269755   8.396   2.025  10.870
22620SOL     OW69756   1.436   0.988  11.458
22620SOL    HW169757   1.463   1.072  11.419
22620SOL    HW269758   1.445   1.001  11.552
22621SOL     OW69759   3.809   3.270   6.785
22621SOL    HW169760   3.890   3.263   6.835
22621SOL    HW269761   3.837   3.307   6.701
22622SOL     OW69762   1.716  14.399   7.191
22622SOL    HW169763   1.754  14.394   7.279
22622SOL    HW269764   1.789  14.427   7.135
22623SOL     OW69765  13.269  11.366   2.959
22623SOL    HW169766  13.238  11.394   3.045
22623SOL    HW269767  13.190  11.340   2.912
22624SOL     OW69768   8.107   7.635   9.360
22624SOL    HW169769   8.202   7.632   9.351
22624SOL    HW269770   8.090   7.707   9.420
22625SOL     OW69771  14.629  12.080  10.803
22625SOL    HW169772  14.644  12.153  10.743
22625SOL    HW269773  14.660  12.003  10.755
22626SOL     OW69774   8.718   1.658   7.278
22626SOL    HW169775   8.644   1.656   7.217
22626SOL    HW269776   8.678   1.645   7.364
22627SOL     OW69777   5.565   3.161  11.063
22627SOL    HW169778   5.535   3.247  11.032
22627SOL    HW269779   5.529   3.153  11.151
22628SOL     OW69780   5.708   5.414   4.148
22628SOL    HW169781   5.676   5.495   4.108
22628SOL    HW269782   5.800   5.432   4.168
22629SOL     OW69783  14.450   9.792   1.926
22629SOL    HW169784  14.470   9.885   1.916
22629SOL    HW269785  14.512   9.761   1.992
22630SOL     OW69786   7.115   2.255   0.428
22630SOL    HW169787   7.085   2.297   0.347
22630SOL    HW269788   7.196   2.210   0.403
22631SOL     OW69789  14.656  11.807   0.456
22631SOL    HW169790  14.566  11.827   0.430
22631SOL    HW269791  14.701  11.785   0.374
22632SOL     OW69792  10.002   1.219   4.303
22632SOL    HW169793   9.982   1.156   4.234
22632SOL    HW269794  10.081   1.185   4.345
22633SOL     OW69795  13.412  14.729  11.671
22633SOL    HW169796  13.323  14.748  11.639
22633SOL    HW269797  13.469  14.754  11.598
22634SOL     OW69798   6.289   7.237   0.675
22634SOL    HW169799   6.285   7.229   0.770
22634SOL    HW269800   6.202   7.267   0.650
22635SOL     OW69801   7.149   4.794   9.283
22635SOL    HW169802   7.171   4.805   9.191
22635SOL    HW269803   7.229   4.760   9.323
22636SOL     OW69804   4.610   1.300   3.920
22636SOL    HW169805   4.674   1.334   3.983
22636SOL    HW269806   4.569   1.226   3.965
22637SOL     OW69807   2.545  14.784   9.664
22637SOL    HW169808   2.615  14.730   9.701
22637SOL    HW269809   2.512  14.834   9.739
22638SOL     OW69810   6.387  13.680   0.180
22638SOL    HW169811   6.376  13.707   0.089
22638SOL    HW269812   6.306  13.706   0.222
22639SOL     OW69813  10.587   5.833   1.795
22639SOL    HW169814  10.530   5.775   1.744
22639SOL    HW269815  10.568   5.811   1.886
22640SOL     OW69816  13.770   5.928   7.164
22640SOL    HW169817  13.709   6.000   7.180
22640SOL    HW269818  13.807   5.908   7.250
22641SOL     OW69819  12.746   9.355   2.235
22641SOL    HW169820  12.836   9.377   2.258
22641SOL    HW269821  12.699   9.356   2.319
22642SOL     OW69822   2.469   2.761  10.260
22642SOL    HW169823   2.458   2.832  10.323
22642SOL    HW269824   2.389   2.763  10.208
22643SOL     OW69825   2.972   0.318   8.549
22643SOL    HW169826   2.933   0.391   8.599
22643SOL    HW269827   3.059   0.307   8.587
22644SOL     OW69828  12.210  13.254  14.086
22644SOL    HW169829  12.201  13.337  14.134
22644SOL    HW269830  12.168  13.189  14.141
22645SOL     OW69831   5.069   3.553   2.247
22645SOL    HW169832   5.149   3.578   2.294
22645SOL    HW269833   5.007   3.532   2.317
22646SOL     OW69834   1.970   1.815   3.044
22646SOL    HW169835   1.922   1.800   2.962
22646SOL    HW269836   2.054   1.770   3.031
22647SOL     OW69837   6.850   6.136  12.162
22647SOL    HW169838   6.882   6.115  12.075
22647SOL    HW269839   6.885   6.068  12.219
22648SOL     OW69840  11.339  10.320   0.592
22648SOL    HW169841  11.248  10.348   0.582
22648SOL    HW269842  11.377  10.333   0.506
22649SOL     OW69843   4.630   9.186  13.925
22649SOL    HW169844   4.536   9.172  13.919
22649SOL    HW269845   4.641   9.281  13.924
22650SOL     OW69846  11.904   0.571   6.131
22650SOL    HW169847  11.954   0.650   6.108
22650SOL    HW269848  11.952   0.500   6.089
22651SOL     OW69849   5.723  12.781   1.717
22651SOL    HW169850   5.761  12.795   1.804
22651SOL    HW269851   5.708  12.686   1.713
22652SOL     OW69852   4.429   2.408  13.359
22652SOL    HW169853   4.475   2.484  13.394
22652SOL    HW269854   4.498   2.341  13.349
22653SOL     OW69855   3.010  12.600  13.265
22653SOL    HW169856   3.092  12.645  13.282
22653SOL    HW269857   3.035  12.508  13.251
22654SOL     OW69858   9.681  12.562   5.082
22654SOL    HW169859   9.748  12.495   5.092
22654SOL    HW269860   9.625  12.530   5.011
22655SOL     OW69861   0.571   2.482  12.818
22655SOL    HW169862   0.657   2.485  12.777
22655SOL    HW269863   0.581   2.418  12.889
22656SOL     OW69864   9.970   3.542  11.179
22656SOL    HW169865   9.922   3.543  11.261
22656SOL    HW269866   9.961   3.631  11.144
22657SOL     OW69867   3.907   9.356   5.323
22657SOL    HW169868   3.986   9.402   5.293
22657SOL    HW269869   3.933   9.317   5.407
22658SOL     OW69870   6.601  11.316  14.125
22658SOL    HW169871   6.675  11.377  14.128
22658SOL    HW269872   6.615  11.265  14.044
22659SOL     OW69873  11.875  14.242  10.034
22659SOL    HW169874  11.820  14.314  10.003
22659SOL    HW269875  11.919  14.276  10.111
22660SOL     OW69876   9.250   6.115  11.411
22660SOL    HW169877   9.258   6.059  11.488
22660SOL    HW269878   9.293   6.066  11.341
22661SOL     OW69879   7.934   2.547   0.066
22661SOL    HW169880   8.018   2.513   0.035
22661SOL    HW269881   7.880   2.551  14.867
22662SOL     OW69882  14.598  13.938  11.367
22662SOL    HW169883  14.639  13.938  11.453
22662SOL    HW269884  14.651  13.879  11.314
22663SOL     OW69885   0.050  14.260  11.609
22663SOL    HW169886   0.057  14.235  11.701
22663SOL    HW269887  14.850  14.311  11.604
22664SOL     OW69888  12.412   2.893  13.846
22664SOL    HW169889  12.327   2.867  13.810
22664SOL    HW269890  12.414   2.854  13.933
22665SOL     OW69891  11.982   8.055   2.412
22665SOL    HW169892  12.061   8.005   2.434
22665SOL    HW269893  11.974   8.120   2.481
22666SOL     OW69894  14.378  13.531   2.504
22666SOL    HW169895  14.339  13.590   2.569
22666SOL    HW269896  14.303  13.492   2.459
22667SOL     OW69897   5.584   2.335  12.065
22667SOL    HW169898   5.531   2.304  12.138
22667SOL    HW269899   5.670   2.294  12.078
22668SOL     OW69900   0.819  12.699  13.748
22668SOL    HW169901   0.746  12.637  13.739
22668SOL    HW269902   0.887  12.648  13.791
22669SOL     OW69903   1.351  14.541   4.079
22669SOL    HW169904   1.442  14.539   4.050
22669SOL    HW269905   1.302  14.572   4.003
22670SOL     OW69906   2.517   8.282   2.877
22670SOL    HW169907   2.440   8.314   2.829
22670SOL    HW269908   2.590   8.331   2.841
22671SOL     OW69909   1.551  12.529  11.641
22671SOL    HW169910   1.528  12.621  11.630
22671SOL    HW269911   1.479  12.480  11.602
22672SOL     OW69912   1.355  12.239   5.016
22672SOL    HW169913   1.391  12.200   5.096
22672SOL    HW269914   1.262  12.215   5.018
22673SOL     OW69915   2.053   9.405   1.345
22673SOL    HW169916   2.140   9.378   1.316
22673SOL    HW269917   1.997   9.391   1.269
22674SOL     OW69918   0.193   1.190   6.262
22674SOL    HW169919   0.277   1.228   6.288
22674SOL    HW269920   0.138   1.266   6.242
22675SOL     OW69921  12.270   8.157   8.578
22675SOL    HW169922  12.226   8.096   8.636
22675SOL    HW269923  12.202   8.185   8.517
22676SOL     OW69924   2.416   7.911   3.918
22676SOL    HW169925   2.502   7.950   3.934
22676SOL    HW269926   2.365   7.981   3.877
22677SOL     OW69927   7.338   7.398   2.745
22677SOL    HW169928   7.251   7.440   2.747
22677SOL    HW269929   7.378   7.421   2.828
22678SOL     OW69930  10.433   7.898   4.414
22678SOL    HW169931  10.432   7.810   4.452
22678SOL    HW269932  10.382   7.951   4.475
22679SOL     OW69933   5.877  12.369   5.724
22679SOL    HW169934   5.907  12.289   5.767
22679SOL    HW269935   5.793  12.389   5.766
22680SOL     OW69936   1.192   6.045  13.376
22680SOL    HW169937   1.175   6.114  13.440
22680SOL    HW269938   1.285   6.054  13.356
22681SOL     OW69939   5.927   5.714  10.653
22681SOL    HW169940   5.900   5.782  10.715
22681SOL    HW269941   5.906   5.632  10.696
22682SOL     OW69942  10.058  12.271  14.250
22682SOL    HW169943  10.082  12.334  14.318
22682SOL    HW269944  10.138  12.221  14.235
22683SOL     OW69945   5.138  12.777  10.809
22683SOL    HW169946   5.092  12.693  10.810
22683SOL    HW269947   5.166  12.789  10.900
22684SOL     OW69948  13.372  14.359   1.287
22684SOL    HW169949  13.283  14.367   1.253
22684SOL    HW269950  13.369  14.281   1.343
22685SOL     OW69951   5.499   4.585   6.081
22685SOL    HW169952   5.435   4.640   6.038
22685SOL    HW269953   5.582   4.631   6.069
22686SOL     OW69954   0.807  13.885   2.876
22686SOL    HW169955   0.769  13.801   2.903
22686SOL    HW269956   0.799  13.886   2.781
22687SOL     OW69957   6.333  12.395  12.347
22687SOL    HW169958   6.423  12.430  12.348
22687SOL    HW269959   6.342  12.307  12.384
22688SOL     OW69960  11.509  12.948   5.458
22688SOL    HW169961  11.531  12.874   5.401
22688SOL    HW269962  11.477  13.016   5.398
22689SOL     OW69963   7.534  10.001   7.380
22689SOL    HW169964   7.500   9.915   7.356
22689SOL    HW269965   7.459  10.046   7.420
22690SOL     OW69966   0.018   0.581   5.512
22690SOL    HW169967   0.038   0.488   5.500
22690SOL    HW269968   0.077   0.627   5.451
22691SOL     OW69969   2.437  13.320   0.167
22691SOL    HW169970   2.435  13.350   0.258
22691SOL    HW269971   2.356  13.269   0.158
22692SOL     OW69972   5.223  11.961   1.803
22692SOL    HW169973   5.247  11.925   1.888
22692SOL    HW269974   5.209  12.054   1.819
22693SOL     OW69975   3.587   0.849   7.413
22693SOL    HW169976   3.533   0.831   7.490
22693SOL    HW269977   3.673   0.870   7.449
22694SOL     OW69978   8.527   8.272  11.409
22694SOL    HW169979   8.610   8.296  11.368
22694SOL    HW269980   8.499   8.193  11.363
22695SOL     OW69981   4.646   9.978  14.700
22695SOL    HW169982   4.597   9.927  14.765
22695SOL    HW269983   4.724  10.007  14.747
22696SOL     OW69984  10.897   7.194   1.624
22696SOL    HW169985  10.843   7.273   1.623
22696SOL    HW269986  10.942   7.195   1.540
22697SOL     OW69987  11.401   5.034  10.429
22697SOL    HW169988  11.370   5.125  10.429
22697SOL    HW269989  11.345   4.990  10.364
22698SOL     OW69990   8.095   6.931  13.519
22698SOL    HW169991   8.090   6.836  13.529
22698SOL    HW269992   8.187   6.949  13.504
22699SOL     OW69993  11.404  11.069  10.583
22699SOL    HW169994  11.378  11.107  10.499
22699SOL    HW269995  11.454  10.991  10.560
22700SOL     OW69996  12.522   1.465   7.207
22700SOL    HW169997  12.540   1.535   7.144
22700SOL    HW269998  12.443   1.422   7.174
22701SOL     OW69999   2.064   9.901   1.621
22701SOL    HW170000   2.157   9.911   1.603
22701SOL    HW270001   2.060   9.833   1.688
22702SOL     OW70002   4.931   2.484   2.789
22702SOL    HW170003   5.008   2.491   2.845
22702SOL    HW270004   4.897   2.573   2.782
22703SOL     OW70005   2.275  14.667   2.963
22703SOL    HW170006   2.258  14.695   3.053
22703SOL    HW270007   2.349  14.607   2.970
22704SOL     OW70008   0.642   7.483   3.327
22704SOL    HW170009   0.703   7.556   3.316
22704SOL    HW270010   0.585   7.509   3.399
22705SOL     OW70011   5.571  13.188  14.261
22705SOL    HW170012   5.580  13.150  14.174
22705SOL    HW270013   5.660  13.191  14.295
22706SOL     OW70014  12.147   0.859   5.228
22706SOL    HW170015  12.141   0.953   5.246
22706SOL    HW270016  12.242   0.842   5.223
22707SOL     OW70017   1.606  11.192  11.817
22707SOL    HW170018   1.627  11.099  11.812
22707SOL    HW270019   1.556  11.210  11.738
22708SOL     OW70020   4.120   8.062   3.198
22708SOL    HW170021   4.207   8.035   3.171
22708SOL    HW270022   4.114   8.154   3.173
22709SOL     OW70023   2.869  10.141  13.166
22709SOL    HW170024   2.962  10.146  13.145
22709SOL    HW270025   2.866  10.124  13.260
22710SOL     OW70026   5.535  14.186   5.917
22710SOL    HW170027   5.484  14.109   5.941
22710SOL    HW270028   5.607  14.188   5.980
22711SOL     OW70029   3.868  10.748   7.219
22711SOL    HW170030   3.902  10.660   7.233
22711SOL    HW270031   3.776  10.734   7.194
22712SOL     OW70032   2.890  14.460   2.325
22712SOL    HW170033   2.949  14.488   2.254
22712SOL    HW270034   2.820  14.525   2.324
22713SOL     OW70035  13.239   1.402   8.583
22713SOL    HW170036  13.297   1.457   8.636
22713SOL    HW270037  13.291   1.323   8.565
22714SOL     OW70038   0.699   4.448  12.775
22714SOL    HW170039   0.749   4.523  12.744
22714SOL    HW270040   0.617   4.485  12.808
22715SOL     OW70041  11.417   0.056   9.360
22715SOL    HW170042  11.360   0.129   9.385
22715SOL    HW270043  11.372  14.858   9.391
22716SOL     OW70044  14.277  11.047   3.489
22716SOL    HW170045  14.309  11.019   3.403
22716SOL    HW270046  14.353  11.086   3.532
22717SOL     OW70047   7.193  12.084   5.508
22717SOL    HW170048   7.264  12.112   5.449
22717SOL    HW270049   7.168  12.164   5.555
22718SOL     OW70050   7.975   4.705   4.185
22718SOL    HW170051   8.064   4.694   4.220
22718SOL    HW270052   7.920   4.708   4.263
22719SOL     OW70053   2.193   9.300  12.399
22719SOL    HW170054   2.274   9.296  12.349
22719SOL    HW270055   2.132   9.245  12.351
22720SOL     OW70056   1.668   5.029  12.653
22720SOL    HW170057   1.711   5.111  12.630
22720SOL    HW270058   1.635   5.043  12.742
22721SOL     OW70059  10.448   5.549   3.003
22721SOL    HW170060  10.510   5.621   3.003
22721SOL    HW270061  10.423   5.538   3.095
22722SOL     OW70062   2.797  10.168   4.020
22722SOL    HW170063   2.836  10.146   4.105
22722SOL    HW270064   2.714  10.120   4.020
22723SOL     OW70065   7.568   6.210   5.864
22723SOL    HW170066   7.629   6.263   5.814
22723SOL    HW270067   7.594   6.223   5.955
22724SOL     OW70068   9.293   7.546   4.988
22724SOL    HW170069   9.352   7.485   5.033
22724SOL    HW270070   9.208   7.502   4.988
22725SOL     OW70071   0.890   8.852   8.240
22725SOL    HW170072   0.975   8.855   8.285
22725SOL    HW270073   0.899   8.914   8.168
22726SOL     OW70074   2.477  12.313   7.001
22726SOL    HW170075   2.529  12.317   6.921
22726SOL    HW270076   2.400  12.262   6.978
22727SOL     OW70077   1.968   6.482   1.545
22727SOL    HW170078   2.005   6.521   1.624
22727SOL    HW270079   2.044   6.446   1.499
22728SOL     OW70080   8.601   0.662   2.076
22728SOL    HW170081   8.559   0.687   1.994
22728SOL    HW270082   8.598   0.741   2.129
22729SOL     OW70083   5.493  12.284   9.810
22729SOL    HW170084   5.489  12.331   9.892
22729SOL    HW270085   5.584  12.295   9.780
22730SOL     OW70086   3.068   7.391   3.583
22730SOL    HW170087   3.085   7.328   3.513
22730SOL    HW270088   2.972   7.396   3.588
22731SOL     OW70089  12.931   1.973   3.690
22731SOL    HW170090  12.854   2.029   3.689
22731SOL    HW270091  12.899   1.889   3.724
22732SOL     OW70092   4.157   7.696   1.103
22732SOL    HW170093   4.145   7.665   1.193
22732SOL    HW270094   4.077   7.747   1.085
22733SOL     OW70095   1.830  11.123   2.666
22733SOL    HW170096   1.806  11.047   2.718
22733SOL    HW270097   1.758  11.135   2.604
22734SOL     OW70098   7.956  14.046   5.730
22734SOL    HW170099   7.990  14.114   5.673
22734SOL    HW270100   7.992  13.965   5.695
22735SOL     OW70101  14.466   0.724  10.854
22735SOL    HW170102  14.462   0.738  10.760
22735SOL    HW270103  14.494   0.809  10.889
22736SOL     OW70104   8.110  11.373   6.998
22736SOL    HW170105   8.155  11.397   6.918
22736SOL    HW270106   8.178  11.334   7.053
22737SOL     OW70107   0.695  10.931   2.745
22737SOL    HW170108   0.777  10.932   2.794
22737SOL    HW270109   0.666  10.840   2.750
22738SOL     OW70110   8.501  10.925   3.766
22738SOL    HW170111   8.535  10.871   3.837
22738SOL    HW270112   8.575  10.936   3.707
22739SOL     OW70113  13.639   1.782  12.047
22739SOL    HW170114  13.623   1.690  12.068
22739SOL    HW270115  13.562   1.828  12.080
22740SOL     OW70116   4.075  14.110   9.945
22740SOL    HW170117   4.024  14.123  10.025
22740SOL    HW270118   4.033  14.037   9.900
22741SOL     OW70119  12.896   8.898  10.109
22741SOL    HW170120  12.955   8.972  10.123
22741SOL    HW270121  12.844   8.894  10.190
22742SOL     OW70122  13.022  12.732   5.546
22742SOL    HW170123  13.006  12.641   5.569
22742SOL    HW270124  13.039  12.776   5.630
22743SOL     OW70125   2.107  10.514   7.089
22743SOL    HW170126   2.165  10.546   7.021
22743SOL    HW270127   2.106  10.419   7.077
22744SOL     OW70128   8.806   6.017   8.817
22744SOL    HW170129   8.735   6.080   8.831
22744SOL    HW270130   8.806   5.963   8.896
22745SOL     OW70131   5.307  14.824   8.340
22745SOL    HW170132   5.238   0.010   8.335
22745SOL    HW270133   5.331  14.820   8.432
22746SOL     OW70134   1.176   7.895   6.633
22746SOL    HW170135   1.152   7.986   6.614
22746SOL    HW270136   1.096   7.845   6.617
22747SOL     OW70137  10.257   5.143  14.227
22747SOL    HW170138  10.224   5.231  14.248
22747SOL    HW270139  10.350   5.146  14.252
22748SOL     OW70140   8.582   5.901   0.064
22748SOL    HW170141   8.598   5.964   0.134
22748SOL    HW270142   8.667   5.891   0.021
22749SOL     OW70143   5.938  13.046   2.723
22749SOL    HW170144   6.015  13.001   2.758
22749SOL    HW270145   5.947  13.136   2.752
22750SOL     OW70146   2.461   4.841   2.959
22750SOL    HW170147   2.476   4.771   2.895
22750SOL    HW270148   2.435   4.917   2.907
22751SOL     OW70149   0.022  12.284   8.386
22751SOL    HW170150   0.115  12.283   8.411
22751SOL    HW270151   0.011  12.207   8.331
22752SOL     OW70152   4.655  11.728  13.693
22752SOL    HW170153   4.572  11.682  13.680
22752SOL    HW270154   4.630  11.819  13.709
22753SOL     OW70155  14.273   5.228   0.698
22753SOL    HW170156  14.226   5.156   0.655
22753SOL    HW270157  14.261   5.211   0.792
22754SOL     OW70158  14.371   2.205   3.015
22754SOL    HW170159  14.403   2.224   3.103
22754SOL    HW270160  14.393   2.113   3.000
22755SOL     OW70161  14.445   7.170   9.689
22755SOL    HW170162  14.394   7.096   9.723
22755SOL    HW270163  14.413   7.246   9.738
22756SOL     OW70164  12.410   8.661  12.622
22756SOL    HW170165  12.389   8.747  12.587
22756SOL    HW270166  12.481   8.629  12.566
22757SOL     OW70167  12.834   4.726   3.220
22757SOL    HW170168  12.879   4.643   3.207
22757SOL    HW270169  12.748   4.714   3.180
22758SOL     OW70170  13.321   6.630   1.487
22758SOL    HW170171  13.319   6.722   1.461
22758SOL    HW270172  13.234   6.612   1.522
22759SOL     OW70173   1.057  14.661   8.879
22759SOL    HW170174   1.007  14.612   8.814
22759SOL    HW270175   1.028  14.752   8.868
22760SOL     OW70176   6.879   5.228  12.153
22760SOL    HW170177   6.936   5.267  12.086
22760SOL    HW270178   6.809   5.187  12.102
22761SOL     OW70179   7.484   5.479  12.132
22761SOL    HW170180   7.501   5.456  12.224
22761SOL    HW270181   7.494   5.574  12.129
22762SOL     OW70182   6.278  14.371   8.047
22762SOL    HW170183   6.369  14.341   8.048
22762SOL    HW270184   6.261  14.392   7.955
22763SOL     OW70185   9.531   2.666   6.983
22763SOL    HW170186   9.478   2.729   7.031
22763SOL    HW270187   9.565   2.716   6.908
22764SOL     OW70188   3.375  11.661   1.474
22764SOL    HW170189   3.306  11.633   1.414
22764SOL    HW270190   3.338  11.647   1.561
22765SOL     OW70191   9.657   2.028   0.812
22765SOL    HW170192   9.636   2.112   0.771
22765SOL    HW270193   9.716   2.051   0.884
22766SOL     OW70194  12.581   7.960   0.464
22766SOL    HW170195  12.579   7.971   0.559
22766SOL    HW270196  12.536   7.877   0.449
22767SOL     OW70197   9.701  11.005   7.140
22767SOL    HW170198   9.639  11.078   7.141
22767SOL    HW270199   9.672  10.950   7.067
22768SOL     OW70200   6.948  11.929   6.569
22768SOL    HW170201   7.026  11.923   6.623
22768SOL    HW270202   6.888  11.985   6.620
22769SOL     OW70203  11.831   9.086   0.569
22769SOL    HW170204  11.746   9.066   0.609
22769SOL    HW270205  11.833   9.035   0.488
22770SOL     OW70206   1.441   3.736  13.466
22770SOL    HW170207   1.426   3.801  13.535
22770SOL    HW270208   1.536   3.735  13.454
22771SOL     OW70209   5.084   4.913  11.382
22771SOL    HW170210   5.179   4.914  11.378
22771SOL    HW270211   5.061   4.820  11.386
22772SOL     OW70212  14.120   9.199   0.260
22772SOL    HW170213  14.087   9.119   0.221
22772SOL    HW270214  14.203   9.174   0.301
22773SOL     OW70215   2.571  12.892   6.896
22773SOL    HW170216   2.665  12.893   6.878
22773SOL    HW270217   2.555  12.970   6.948
22774SOL     OW70218   2.331   1.395   8.479
22774SOL    HW170219   2.244   1.415   8.513
22774SOL    HW270220   2.390   1.414   8.552
22775SOL     OW70221   2.463   3.712  12.787
22775SOL    HW170222   2.556   3.689  12.778
22775SOL    HW270223   2.419   3.663  12.717
22776SOL     OW70224   9.212   2.200  13.387
22776SOL    HW170225   9.235   2.133  13.451
22776SOL    HW270226   9.124   2.177  13.359
22777SOL     OW70227  12.735   3.435   7.383
22777SOL    HW170228  12.804   3.427   7.448
22777SOL    HW270229  12.677   3.504   7.417
22778SOL     OW70230   4.265   6.034   1.738
22778SOL    HW170231   4.180   6.050   1.779
22778SOL    HW270232   4.248   5.964   1.674
22779SOL     OW70233  11.108  11.780   4.255
22779SOL    HW170234  11.134  11.736   4.336
22779SOL    HW270235  11.022  11.819   4.275
22780SOL     OW70236   8.998  10.163  12.111
22780SOL    HW170237   8.972  10.099  12.045
22780SOL    HW270238   9.019  10.111  12.189
22781SOL     OW70239   5.281  12.255   2.507
22781SOL    HW170240   5.276  12.180   2.566
22781SOL    HW270241   5.301  12.216   2.421
22782SOL     OW70242   1.155  12.540   1.678
22782SOL    HW170243   1.072  12.495   1.664
22782SOL    HW270244   1.144  12.625   1.636
22783SOL     OW70245  13.621   9.492  10.889
22783SOL    HW170246  13.586   9.470  10.976
22783SOL    HW270247  13.589   9.422  10.832
22784SOL     OW70248  11.370   2.249  11.089
22784SOL    HW170249  11.388   2.325  11.033
22784SOL    HW270250  11.356   2.177  11.028
22785SOL     OW70251   1.903   0.228   8.452
22785SOL    HW170252   1.955   0.148   8.447
22785SOL    HW270253   1.906   0.266   8.364
22786SOL     OW70254  12.525   2.635   2.495
22786SOL    HW170255  12.433   2.648   2.517
22786SOL    HW270256  12.533   2.541   2.481
22787SOL     OW70257   2.454   1.787   0.583
22787SOL    HW170258   2.452   1.771   0.488
22787SOL    HW270259   2.410   1.710   0.620
22788SOL     OW70260   5.414  14.772   5.183
22788SOL    HW170261   5.431  14.701   5.245
22788SOL    HW270262   5.321  14.791   5.192
22789SOL     OW70263  11.292   2.036  11.410
22789SOL    HW170264  11.293   2.009  11.318
22789SOL    HW270265  11.372   2.087  11.421
22790SOL     OW70266   8.919   3.175  10.852
22790SOL    HW170267   8.920   3.161  10.758
22790SOL    HW270268   8.964   3.099  10.888
22791SOL     OW70269   2.858   8.423   5.741
22791SOL    HW170270   2.809   8.344   5.764
22791SOL    HW270271   2.821   8.491   5.797
22792SOL     OW70272   9.104   3.372   1.126
22792SOL    HW170273   9.040   3.436   1.096
22792SOL    HW270274   9.175   3.425   1.164
22793SOL     OW70275   1.201   3.048   9.024
22793SOL    HW170276   1.264   3.073   8.956
22793SOL    HW270277   1.187   2.954   9.011
22794SOL     OW70278   0.787   1.222   7.852
22794SOL    HW170279   0.769   1.287   7.784
22794SOL    HW270280   0.870   1.250   7.891
22795SOL     OW70281  14.752   5.752   6.433
22795SOL    HW170282  14.825   5.727   6.376
22795SOL    HW270283  14.769   5.843   6.456
22796SOL     OW70284   8.000  13.772   5.598
22796SOL    HW170285   8.016  13.700   5.658
22796SOL    HW270286   7.953  13.733   5.525
22797SOL     OW70287  13.890   2.016  10.217
22797SOL    HW170288  13.841   1.945  10.258
22797SOL    HW270289  13.841   2.037  10.137
22798SOL     OW70290  12.570   0.070  13.289
22798SOL    HW170291  12.662   0.058  13.265
22798SOL    HW270292  12.552  14.878  13.350
22799SOL     OW70293  11.946   0.971  13.258
22799SOL    HW170294  12.033   1.003  13.281
22799SOL    HW270295  11.948   0.962  13.163
22800SOL     OW70296  14.720  10.871   5.430
22800SOL    HW170297  14.707  10.818   5.351
22800SOL    HW270298  14.633  10.905   5.451
22801SOL     OW70299   5.334   9.778   6.808
22801SOL    HW170300   5.388   9.803   6.733
22801SOL    HW270301   5.396   9.740   6.871
22802SOL     OW70302  12.797  12.755  13.551
22802SOL    HW170303  12.792  12.708  13.468
22802SOL    HW270304  12.746  12.834  13.537
22803SOL     OW70305  14.492   3.940   0.663
22803SOL    HW170306  14.456   4.006   0.603
22803SOL    HW270307  14.461   3.857   0.629
22804SOL     OW70308  14.617   6.097   6.012
22804SOL    HW170309  14.669   6.029   5.969
22804SOL    HW270310  14.588   6.154   5.940
22805SOL     OW70311   0.397   4.717   2.261
22805SOL    HW170312   0.389   4.621   2.264
22805SOL    HW270313   0.309   4.748   2.240
22806SOL     OW70314   5.379   6.951   2.475
22806SOL    HW170315   5.460   6.935   2.427
22806SOL    HW270316   5.407   6.967   2.565
22807SOL     OW70317   6.625  13.363   9.695
22807SOL    HW170318   6.609  13.279   9.652
22807SOL    HW270319   6.539  13.405   9.697
22808SOL     OW70320   9.775  12.549   9.270
22808SOL    HW170321   9.755  12.611   9.200
22808SOL    HW270322   9.699  12.491   9.273
22809SOL     OW70323  11.648  10.324   1.689
22809SOL    HW170324  11.667  10.355   1.777
22809SOL    HW270325  11.644  10.229   1.697
22810SOL     OW70326   3.886  12.665   0.480
22810SOL    HW170327   3.973  12.633   0.456
22810SOL    HW270328   3.859  12.610   0.554
22811SOL     OW70329   8.246  10.182  10.821
22811SOL    HW170330   8.336  10.208  10.839
22811SOL    HW270331   8.210  10.157  10.906
22812SOL     OW70332  10.150  14.482   9.492
22812SOL    HW170333  10.069  14.435   9.513
22812SOL    HW270334  10.218  14.415   9.494
22813SOL     OW70335  12.006   3.369   1.144
22813SOL    HW170336  11.931   3.380   1.084
22813SOL    HW270337  12.050   3.291   1.113
22814SOL     OW70338   8.918   1.772   9.036
22814SOL    HW170339   8.938   1.691   8.990
22814SOL    HW270340   8.855   1.746   9.104
22815SOL     OW70341   4.267  13.560  10.387
22815SOL    HW170342   4.351  13.538  10.428
22815SOL    HW270343   4.201  13.521  10.445
22816SOL     OW70344   8.492  12.512   0.979
22816SOL    HW170345   8.508  12.531   0.886
22816SOL    HW270346   8.425  12.445   0.979
22817SOL     OW70347  11.378   0.187   1.601
22817SOL    HW170348  11.344   0.179   1.512
22817SOL    HW270349  11.373   0.099   1.637
22818SOL     OW70350   8.894   0.608  11.608
22818SOL    HW170351   8.934   0.553  11.541
22818SOL    HW270352   8.879   0.692  11.565
22819SOL     OW70353  13.537  10.872   9.453
22819SOL    HW170354  13.593  10.942   9.488
22819SOL    HW270355  13.489  10.840   9.530
22820SOL     OW70356  14.151   1.734   7.334
22820SOL    HW170357  14.204   1.691   7.266
22820SOL    HW270358  14.198   1.717   7.415
22821SOL     OW70359  14.774   4.215   1.903
22821SOL    HW170360  14.705   4.175   1.955
22821SOL    HW270361  14.842   4.238   1.966
22822SOL     OW70362   0.072   6.090   3.232
22822SOL    HW170363   0.123   6.171   3.225
22822SOL    HW270364   0.013   6.093   3.157
22823SOL     OW70365   5.216  13.594   8.891
22823SOL    HW170366   5.299  13.548   8.877
22823SOL    HW270367   5.184  13.612   8.802
22824SOL     OW70368   5.598   8.506   3.949
22824SOL    HW170369   5.524   8.455   3.982
22824SOL    HW270370   5.565   8.546   3.868
22825SOL     OW70371   3.470   7.816  10.228
22825SOL    HW170372   3.475   7.908  10.202
22825SOL    HW270373   3.558   7.796  10.260
22826SOL     OW70374  10.825  12.019  10.407
22826SOL    HW170375  10.800  12.063  10.488
22826SOL    HW270376  10.758  11.953  10.393
22827SOL     OW70377   1.822  13.410   4.916
22827SOL    HW170378   1.855  13.494   4.947
22827SOL    HW270379   1.816  13.420   4.820
22828SOL     OW70380   9.563   0.052   4.357
22828SOL    HW170381   9.619   0.125   4.381
22828SOL    HW270382   9.583   0.035   4.265
22829SOL     OW70383   9.557  13.657  13.388
22829SOL    HW170384   9.576  13.708  13.467
22829SOL    HW270385   9.464  13.635  13.395
22830SOL     OW70386   6.824  14.293  13.584
22830SOL    HW170387   6.796  14.379  13.551
22830SOL    HW270388   6.919  14.300  13.592
22831SOL     OW70389   5.103   9.178   4.982
22831SOL    HW170390   5.077   9.088   5.004
22831SOL    HW270391   5.090   9.227   5.063
22832SOL     OW70392  11.071   5.859   0.497
22832SOL    HW170393  11.129   5.783   0.503
22832SOL    HW270394  10.983   5.821   0.501
22833SOL     OW70395   0.451   4.696  10.198
22833SOL    HW170396   0.393   4.638  10.247
22833SOL    HW270397   0.461   4.773  10.254
22834SOL     OW70398  14.682   8.490  10.068
22834SOL    HW170399  14.690   8.578  10.104
22834SOL    HW270400  14.728   8.493   9.985
22835SOL     OW70401   3.504   9.360   8.071
22835SOL    HW170402   3.505   9.269   8.043
22835SOL    HW270403   3.590   9.394   8.046
22836SOL     OW70404   9.264  14.799   2.689
22836SOL    HW170405   9.220  14.808   2.774
22836SOL    HW270406   9.239  14.713   2.658
22837SOL     OW70407  11.757  12.142  13.304
22837SOL    HW170408  11.670  12.153  13.266
22837SOL    HW270409  11.791  12.062  13.264
22838SOL     OW70410   3.608  10.943   7.439
22838SOL    HW170411   3.608  10.868   7.498
22838SOL    HW270412   3.534  10.927   7.380
22839SOL     OW70413   2.732   5.906   0.540
22839SOL    HW170414   2.801   5.883   0.603
22839SOL    HW270415   2.665   5.949   0.593
22840SOL     OW70416   0.606   6.928  14.038
22840SOL    HW170417   0.665   6.999  14.014
22840SOL    HW270418   0.530   6.940  13.980
22841SOL     OW70419   0.418   0.239   8.460
22841SOL    HW170420   0.438   0.160   8.509
22841SOL    HW270421   0.413   0.308   8.526
22842SOL     OW70422   3.528   5.310   3.172
22842SOL    HW170423   3.524   5.274   3.083
22842SOL    HW270424   3.439   5.340   3.190
22843SOL     OW70425  10.287   7.529   7.767
22843SOL    HW170426  10.362   7.510   7.710
22843SOL    HW270427  10.296   7.622   7.789
22844SOL     OW70428   8.876   1.944   8.815
22844SOL    HW170429   8.807   1.964   8.878
22844SOL    HW270430   8.952   1.920   8.868
22845SOL     OW70431   0.645   0.765  11.712
22845SOL    HW170432   0.626   0.674  11.733
22845SOL    HW270433   0.700   0.795  11.785
22846SOL     OW70434   4.836   0.634   4.963
22846SOL    HW170435   4.888   0.613   4.885
22846SOL    HW270436   4.759   0.579   4.956
22847SOL     OW70437   3.013   6.905  13.739
22847SOL    HW170438   3.060   6.986  13.759
22847SOL    HW270439   3.081   6.845  13.709
22848SOL     OW70440   7.191   4.372  10.218
22848SOL    HW170441   7.230   4.286  10.229
22848SOL    HW270442   7.192   4.410  10.306
22849SOL     OW70443   6.808   5.580   0.054
22849SOL    HW170444   6.899   5.560   0.079
22849SOL    HW270445   6.778   5.640   0.121
22850SOL     OW70446   7.966   2.128   4.498
22850SOL    HW170447   7.906   2.147   4.569
22850SOL    HW270448   8.044   2.180   4.518
22851SOL     OW70449  13.117   7.715   5.650
22851SOL    HW170450  13.057   7.674   5.588
22851SOL    HW270451  13.146   7.644   5.707
22852SOL     OW70452   7.179   6.538  11.969
22852SOL    HW170453   7.164   6.480  11.895
22852SOL    HW270454   7.136   6.494  12.043
22853SOL     OW70455  13.457   2.810  10.754
22853SOL    HW170456  13.379   2.811  10.699
22853SOL    HW270457  13.515   2.746  10.711
22854SOL     OW70458   0.650   3.665   4.379
22854SOL    HW170459   0.730   3.639   4.334
22854SOL    HW270460   0.663   3.635   4.470
22855SOL     OW70461  11.529  13.085   2.853
22855SOL    HW170462  11.466  13.156   2.864
22855SOL    HW270463  11.490  13.029   2.786
22856SOL     OW70464   7.192   1.208   9.831
22856SOL    HW170465   7.273   1.175   9.869
22856SOL    HW270466   7.126   1.143   9.855
22857SOL     OW70467   9.172  10.655   9.787
22857SOL    HW170468   9.110  10.594   9.747
22857SOL    HW270469   9.257  10.612   9.778
22858SOL     OW70470   2.069  10.701   7.282
22858SOL    HW170471   2.098  10.653   7.359
22858SOL    HW270472   2.102  10.649   7.208
22859SOL     OW70473   9.098   7.976  12.451
22859SOL    HW170474   9.031   7.984  12.518
22859SOL    HW270475   9.178   7.955  12.499
22860SOL     OW70476   9.425  10.987   9.394
22860SOL    HW170477   9.503  11.037   9.420
22860SOL    HW270478   9.376  10.976   9.476
22861SOL     OW70479  10.489  10.272   6.617
22861SOL    HW170480  10.395  10.287   6.602
22861SOL    HW270481  10.496  10.260   6.712
22862SOL     OW70482  12.069   4.466   1.739
22862SOL    HW170483  12.080   4.437   1.648
22862SOL    HW270484  11.976   4.459   1.755
22863SOL     OW70485   8.062  12.621   5.924
22863SOL    HW170486   8.049  12.704   5.969
22863SOL    HW270487   7.976  12.578   5.928
22864SOL     OW70488   4.252   3.963   1.115
22864SOL    HW170489   4.315   3.988   1.182
22864SOL    HW270490   4.261   4.030   1.047
22865SOL     OW70491   2.489   2.526  12.144
22865SOL    HW170492   2.403   2.560  12.120
22865SOL    HW270493   2.470   2.445  12.193
22866SOL     OW70494   0.798   9.836   6.675
22866SOL    HW170495   0.731   9.888   6.630
22866SOL    HW270496   0.811   9.760   6.618
22867SOL     OW70497  10.234   1.473   1.113
22867SOL    HW170498  10.179   1.407   1.155
22867SOL    HW270499  10.243   1.443   1.023
22868SOL     OW70500  14.735   9.411   8.929
22868SOL    HW170501  14.747   9.468   8.853
22868SOL    HW270502  14.812   9.427   8.984
22869SOL     OW70503  14.237   7.273   7.702
22869SOL    HW170504  14.311   7.213   7.697
22869SOL    HW270505  14.235   7.301   7.793
22870SOL     OW70506  10.559   2.734   0.065
22870SOL    HW170507  10.543   2.643   0.039
22870SOL    HW270508  10.494   2.751   0.133
22871SOL     OW70509   6.024  14.114   2.774
22871SOL    HW170510   5.942  14.164   2.770
22871SOL    HW270511   6.090  14.174   2.739
22872SOL     OW70512  11.050   8.129   3.645
22872SOL    HW170513  10.984   8.070   3.609
22872SOL    HW270514  11.082   8.084   3.723
22873SOL     OW70515   0.860  13.702   2.141
22873SOL    HW170516   0.921  13.774   2.158
22873SOL    HW270517   0.778  13.729   2.184
22874SOL     OW70518   2.949   8.365   0.237
22874SOL    HW170519   2.856   8.385   0.250
22874SOL    HW270520   2.951   8.271   0.221
22875SOL     OW70521  13.332  12.883  11.771
22875SOL    HW170522  13.383  12.843  11.701
22875SOL    HW270523  13.380  12.862  11.851
22876SOL     OW70524  12.498   5.339   7.848
22876SOL    HW170525  12.461   5.251   7.844
22876SOL    HW270526  12.588   5.327   7.879
22877SOL     OW70527   1.588   6.088  10.337
22877SOL    HW170528   1.637   6.055  10.413
22877SOL    HW270529   1.655   6.129  10.282
22878SOL     OW70530   5.735   7.509   6.381
22878SOL    HW170531   5.651   7.464   6.389
22878SOL    HW270532   5.726   7.563   6.303
22879SOL     OW70533   4.166   0.614   0.145
22879SOL    HW170534   4.124   0.555   0.208
22879SOL    HW270535   4.238   0.654   0.194
22880SOL     OW70536  13.869  12.063   6.485
22880SOL    HW170537  13.957  12.028   6.470
22880SOL    HW270538  13.881  12.132   6.550
22881SOL     OW70539  13.422   9.631   0.742
22881SOL    HW170540  13.355   9.584   0.694
22881SOL    HW270541  13.483   9.662   0.675
22882SOL     OW70542  11.110  11.635  11.257
22882SOL    HW170543  11.134  11.684  11.178
22882SOL    HW270544  11.136  11.545  11.238
22883SOL     OW70545   3.938  14.648  13.334
22883SOL    HW170546   3.852  14.688  13.352
22883SOL    HW270547   3.986  14.658  13.416
22884SOL     OW70548   1.647  11.982   8.151
22884SOL    HW170549   1.557  11.990   8.118
22884SOL    HW270550   1.639  11.931   8.232
22885SOL     OW70551   5.985   1.847  12.755
22885SOL    HW170552   5.966   1.800  12.836
22885SOL    HW270553   6.079   1.861  12.757
22886SOL     OW70554   4.261   6.349  13.406
22886SOL    HW170555   4.268   6.277  13.469
22886SOL    HW270556   4.181   6.395  13.431
22887SOL     OW70557   5.996   1.877   8.909
22887SOL    HW170558   6.057   1.949   8.926
22887SOL    HW270559   5.983   1.879   8.814
22888SOL     OW70560  11.245  10.017   4.133
22888SOL    HW170561  11.155   9.999   4.160
22888SOL    HW270562  11.269   9.941   4.080
22889SOL     OW70563   4.116  10.743   7.620
22889SOL    HW170564   4.160  10.823   7.592
22889SOL    HW270565   4.025  10.754   7.593
22890SOL     OW70566  11.477   3.221   8.432
22890SOL    HW170567  11.519   3.194   8.514
22890SOL    HW270568  11.384   3.217   8.450
22891SOL     OW70569  12.457   5.349  12.771
22891SOL    HW170570  12.460   5.444  12.756
22891SOL    HW270571  12.375   5.335  12.819
22892SOL     OW70572   7.754   1.600   1.433
22892SOL    HW170573   7.731   1.551   1.512
22892SOL    HW270574   7.762   1.533   1.365
22893SOL     OW70575   8.943   5.143   1.989
22893SOL    HW170576   8.873   5.205   2.010
22893SOL    HW270577   8.943   5.139   1.894
22894SOL     OW70578  13.349  11.054   1.207
22894SOL    HW170579  13.398  11.015   1.279
22894SOL    HW270580  13.262  11.069   1.243
22895SOL     OW70581   3.670   7.776   9.940
22895SOL    HW170582   3.692   7.765   9.847
22895SOL    HW270583   3.594   7.833   9.940
22896SOL     OW70584   6.114   4.430   8.431
22896SOL    HW170585   6.149   4.438   8.343
22896SOL    HW270586   6.096   4.336   8.441
22897SOL     OW70587  13.507   9.778   1.621
22897SOL    HW170588  13.573   9.845   1.640
22897SOL    HW270589  13.434   9.799   1.680
22898SOL     OW70590  14.366  14.065   5.028
22898SOL    HW170591  14.422  14.128   5.073
22898SOL    HW270592  14.389  14.072   4.936
22899SOL     OW70593  14.050   3.123   5.958
22899SOL    HW170594  13.992   3.176   5.904
22899SOL    HW270595  14.100   3.186   6.010
22900SOL     OW70596   5.558   8.584  11.863
22900SOL    HW170597   5.528   8.673  11.846
22900SOL    HW270598   5.600   8.556  11.782
22901SOL     OW70599  11.809   0.071   8.629
22901SOL    HW170600  11.831   0.139   8.692
22901SOL    HW270601  11.729   0.102   8.586
22902SOL     OW70602   3.338  14.167  12.401
22902SOL    HW170603   3.346  14.258  12.431
22902SOL    HW270604   3.427  14.142  12.377
22903SOL     OW70605   9.439   8.484  13.751
22903SOL    HW170606   9.516   8.471  13.696
22903SOL    HW270607   9.411   8.574  13.734
22904SOL     OW70608  12.784  13.082  12.604
22904SOL    HW170609  12.833  13.162  12.586
22904SOL    HW270610  12.729  13.103  12.679
22905SOL     OW70611   3.671  14.565  11.538
22905SOL    HW170612   3.579  14.555  11.562
22905SOL    HW270613   3.708  14.477  11.546
22906SOL     OW70614  10.050   6.762  10.536
22906SOL    HW170615  10.036   6.697  10.467
22906SOL    HW270616  10.136   6.799  10.517
22907SOL     OW70617   9.436  10.463   1.456
22907SOL    HW170618   9.426  10.507   1.371
22907SOL    HW270619   9.528  10.440   1.461
22908SOL     OW70620   1.794   7.903   4.233
22908SOL    HW170621   1.833   7.989   4.247
22908SOL    HW270622   1.773   7.901   4.139
22909SOL     OW70623   3.744  10.980   9.165
22909SOL    HW170624   3.717  10.966   9.074
22909SOL    HW270625   3.776  10.894   9.194
22910SOL     OW70626  11.468   0.249  10.429
22910SOL    HW170627  11.418   0.241  10.347
22910SOL    HW270628  11.525   0.325  10.415
22911SOL     OW70629   6.873   9.151   4.204
22911SOL    HW170630   6.948   9.200   4.171
22911SOL    HW270631   6.901   9.118   4.289
22912SOL     OW70632  11.402   0.054   5.413
22912SOL    HW170633  11.436  14.854   5.373
22912SOL    HW270634  11.400   0.117   5.341
22913SOL     OW70635   5.566  12.364   5.517
22913SOL    HW170636   5.618  12.394   5.592
22913SOL    HW270637   5.488  12.324   5.557
22914SOL     OW70638   6.599   5.133   5.026
22914SOL    HW170639   6.615   5.200   5.092
22914SOL    HW270640   6.512   5.099   5.047
22915SOL     OW70641  13.921   4.196   7.690
22915SOL    HW170642  13.973   4.156   7.620
22915SOL    HW270643  13.831   4.191   7.659
22916SOL     OW70644   6.584   1.146   0.270
22916SOL    HW170645   6.599   1.228   0.317
22916SOL    HW270646   6.617   1.162   0.182
22917SOL     OW70647   5.589  13.246  10.625
22917SOL    HW170648   5.609  13.291  10.543
22917SOL    HW270649   5.551  13.162  10.598
22918SOL     OW70650   1.864   4.004   2.167
22918SOL    HW170651   1.825   3.967   2.088
22918SOL    HW270652   1.830   4.093   2.171
22919SOL     OW70653   4.809   9.667   3.937
22919SOL    HW170654   4.881   9.716   3.897
22919SOL    HW270655   4.777   9.609   3.868
22920SOL     OW70656  10.035   2.018   5.102
22920SOL    HW170657   9.987   2.022   5.019
22920SOL    HW270658  10.083   2.101   5.107
22921SOL     OW70659   9.572  12.989   2.527
22921SOL    HW170660   9.654  12.942   2.513
22921SOL    HW270661   9.512  12.953   2.462
22922SOL     OW70662   0.328   9.700   0.571
22922SOL    HW170663   0.333   9.773   0.510
22922SOL    HW270664   0.323   9.622   0.515
22923SOL     OW70665   9.416   0.657   6.079
22923SOL    HW170666   9.338   0.661   6.134
22923SOL    HW270667   9.452   0.570   6.096
22924SOL     OW70668   7.342  13.241   2.472
22924SOL    HW170669   7.324  13.237   2.378
22924SOL    HW270670   7.438  13.248   2.478
22925SOL     OW70671   1.082  14.809  12.096
22925SOL    HW170672   1.002  14.795  12.148
22925SOL    HW270673   1.050  14.821  12.007
22926SOL     OW70674   9.191   7.443   6.387
22926SOL    HW170675   9.173   7.457   6.480
22926SOL    HW270676   9.199   7.348   6.378
22927SOL     OW70677  12.866   4.606  10.501
22927SOL    HW170678  12.782   4.622  10.459
22927SOL    HW270679  12.924   4.577  10.430
22928SOL     OW70680   5.087   6.516   4.775
22928SOL    HW170681   5.146   6.451   4.814
22928SOL    HW270682   5.071   6.483   4.687
22929SOL     OW70683   2.233  13.184   2.710
22929SOL    HW170684   2.254  13.238   2.786
22929SOL    HW270685   2.143  13.156   2.724
22930SOL     OW70686   2.264   3.025   0.284
22930SOL    HW170687   2.195   2.983   0.232
22930SOL    HW270688   2.248   3.118   0.275
22931SOL     OW70689   0.844   9.952   9.102
22931SOL    HW170690   0.773  10.010   9.073
22931SOL    HW270691   0.911   9.961   9.034
22932SOL     OW70692  10.321   0.352   6.761
22932SOL    HW170693  10.354   0.317   6.679
22932SOL    HW270694  10.230   0.376   6.741
22933SOL     OW70695   2.270  14.664   5.134
22933SOL    HW170696   2.175  14.653   5.132
22933SOL    HW270697   2.304  14.599   5.073
22934SOL     OW70698  13.914  10.882   9.350
22934SOL    HW170699  13.863  10.813   9.307
22934SOL    HW270700  13.873  10.964   9.320
22935SOL     OW70701   4.859  13.503   5.874
22935SOL    HW170702   4.838  13.506   5.780
22935SOL    HW270703   4.914  13.580   5.888
22936SOL     OW70704  13.656   3.916   5.418
22936SOL    HW170705  13.567   3.947   5.401
22936SOL    HW270706  13.677   3.861   5.342
22937SOL     OW70707   5.500  13.112   6.967
22937SOL    HW170708   5.457  13.194   6.991
22937SOL    HW270709   5.533  13.077   7.050
22938SOL     OW70710   6.446  10.740   6.163
22938SOL    HW170711   6.505  10.733   6.238
22938SOL    HW270712   6.437  10.650   6.132
22939SOL     OW70713   2.401   0.763   3.494
22939SOL    HW170714   2.359   0.846   3.517
22939SOL    HW270715   2.419   0.721   3.579
22940SOL     OW70716   7.178   8.742   8.386
22940SOL    HW170717   7.162   8.835   8.404
22940SOL    HW270718   7.092   8.701   8.399
22941SOL     OW70719   7.036   1.916  12.750
22941SOL    HW170720   7.114   1.924  12.805
22941SOL    HW270721   6.964   1.909  12.812
22942SOL     OW70722  14.701   5.791   7.055
22942SOL    HW170723  14.616   5.778   7.096
22942SOL    HW270724  14.755   5.718   7.086
22943SOL     OW70725  11.525   4.269  13.569
22943SOL    HW170726  11.567   4.211  13.505
22943SOL    HW270727  11.464   4.213  13.616
22944SOL     OW70728  12.265   3.164   4.857
22944SOL    HW170729  12.319   3.241   4.841
22944SOL    HW270730  12.256   3.160   4.953
22945SOL     OW70731   0.499   3.423   6.487
22945SOL    HW170732   0.568   3.356   6.489
22945SOL    HW270733   0.510   3.470   6.569
22946SOL     OW70734   3.523   6.090  10.940
22946SOL    HW170735   3.500   6.039  10.863
22946SOL    HW270736   3.556   6.173  10.905
22947SOL     OW70737   0.412   9.407   4.095
22947SOL    HW170738   0.449   9.495   4.103
22947SOL    HW270739   0.484   9.355   4.058
22948SOL     OW70740  14.104   5.758   2.427
22948SOL    HW170741  14.087   5.666   2.410
22948SOL    HW270742  14.137   5.761   2.517
22949SOL     OW70743   9.728  10.260   8.912
22949SOL    HW170744   9.687  10.198   8.852
22949SOL    HW270745   9.802  10.296   8.863
22950SOL     OW70746  14.200  11.796   6.139
22950SOL    HW170747  14.155  11.711   6.150
22950SOL    HW270748  14.227  11.819   6.228
22951SOL     OW70749  13.412  10.064   4.995
22951SOL    HW170750  13.477  10.106   4.939
22951SOL    HW270751  13.347  10.029   4.935
22952SOL     OW70752   9.644   3.068   0.929
22952SOL    HW170753   9.733   3.034   0.930
22952SOL    HW270754   9.595   3.009   0.987
22953SOL     OW70755   9.678   0.409  10.378
22953SOL    HW170756   9.684   0.315  10.362
22953SOL    HW270757   9.754   0.429  10.432
22954SOL     OW70758   3.325   6.915   7.440
22954SOL    HW170759   3.325   6.945   7.531
22954SOL    HW270760   3.277   6.982   7.392
22955SOL     OW70761   9.209   2.844   5.283
22955SOL    HW170762   9.134   2.889   5.242
22955SOL    HW270763   9.170   2.787   5.349
22956SOL     OW70764   1.722  11.759   5.468
22956SOL    HW170765   1.721  11.664   5.478
22956SOL    HW270766   1.763  11.790   5.549
22957SOL     OW70767  14.201   7.368  11.664
22957SOL    HW170768  14.252   7.414  11.731
22957SOL    HW270769  14.211   7.421  11.585
22958SOL     OW70770   1.076   5.819   5.862
22958SOL    HW170771   1.076   5.789   5.953
22958SOL    HW270772   1.028   5.902   5.864
22959SOL     OW70773  13.532  11.257   9.348
22959SOL    HW170774  13.550  11.278   9.440
22959SOL    HW270775  13.475  11.329   9.319
22960SOL     OW70776  14.058   9.942   0.382
22960SOL    HW170777  14.122   9.952   0.312
22960SOL    HW270778  13.999  10.017   0.372
22961SOL     OW70779  12.675   5.023   1.935
22961SOL    HW170780  12.597   4.986   1.976
22961SOL    HW270781  12.710   5.083   2.000
22962SOL     OW70782  12.619   5.413   2.387
22962SOL    HW170783  12.665   5.472   2.328
22962SOL    HW270784  12.564   5.469   2.441
22963SOL     OW70785  12.621   7.163  12.125
22963SOL    HW170786  12.633   7.257  12.118
22963SOL    HW270787  12.527   7.152  12.138
22964SOL     OW70788   5.038  10.462   9.775
22964SOL    HW170789   4.964  10.420   9.820
22964SOL    HW270790   5.113  10.406   9.795
22965SOL     OW70791   9.343   4.967   4.133
22965SOL    HW170792   9.279   5.038   4.127
22965SOL    HW270793   9.401   4.994   4.205
22966SOL     OW70794   3.065   2.651   7.477
22966SOL    HW170795   3.018   2.613   7.551
22966SOL    HW270796   3.091   2.576   7.424
22967SOL     OW70797   6.489   1.999   9.304
22967SOL    HW170798   6.488   1.992   9.209
22967SOL    HW270799   6.458   1.914   9.336
22968SOL     OW70800  10.346   0.182   2.088
22968SOL    HW170801  10.405   0.245   2.129
22968SOL    HW270802  10.383   0.167   2.001
22969SOL     OW70803   6.169   1.572   4.459
22969SOL    HW170804   6.155   1.483   4.489
22969SOL    HW270805   6.085   1.616   4.472
22970SOL     OW70806   8.504  14.220  14.536
22970SOL    HW170807   8.556  14.283  14.486
22970SOL    HW270808   8.553  14.138  14.528
22971SOL     OW70809  11.117  12.082   2.293
22971SOL    HW170810  11.149  12.157   2.343
22971SOL    HW270811  11.115  12.113   2.202
22972SOL     OW70812   6.806  12.833   7.636
22972SOL    HW170813   6.865  12.837   7.711
22972SOL    HW270814   6.810  12.742   7.607
22973SOL     OW70815  12.264   1.209   2.412
22973SOL    HW170816  12.175   1.227   2.441
22973SOL    HW270817  12.254   1.139   2.347
22974SOL     OW70818   7.414   3.407  10.624
22974SOL    HW170819   7.348   3.461  10.581
22974SOL    HW270820   7.404   3.426  10.717
22975SOL     OW70821   6.365   6.417  13.602
22975SOL    HW170822   6.385   6.392  13.512
22975SOL    HW270823   6.450   6.441  13.639
22976SOL     OW70824  12.746   2.147   3.789
22976SOL    HW170825  12.758   2.242   3.783
22976SOL    HW270826  12.688   2.135   3.865
22977SOL     OW70827  13.642   9.843   8.936
22977SOL    HW170828  13.693   9.922   8.957
22977SOL    HW270829  13.677   9.776   8.995
22978SOL     OW70830  13.046   0.696   3.694
22978SOL    HW170831  13.037   0.760   3.764
22978SOL    HW270832  13.001   0.618   3.726
22979SOL     OW70833  14.013   8.243   3.325
22979SOL    HW170834  13.939   8.186   3.310
22979SOL    HW270835  14.004   8.272   3.416
22980SOL     OW70836  11.658  10.678   8.672
22980SOL    HW170837  11.655  10.610   8.739
22980SOL    HW270838  11.709  10.640   8.601
22981SOL     OW70839   9.936   8.101  11.495
22981SOL    HW170840   9.934   8.014  11.455
22981SOL    HW270841   9.922   8.162  11.423
22982SOL     OW70842   0.313   5.421   3.003
22982SOL    HW170843   0.336   5.331   2.981
22982SOL    HW270844   0.260   5.451   2.930
22983SOL     OW70845   2.401   5.565   0.847
22983SOL    HW170846   2.445   5.547   0.930
22983SOL    HW270847   2.382   5.479   0.810
22984SOL     OW70848   4.740  11.532  10.322
22984SOL    HW170849   4.670  11.582  10.280
22984SOL    HW270850   4.818  11.550  10.269
22985SOL     OW70851   1.286  11.811  12.818
22985SOL    HW170852   1.282  11.874  12.745
22985SOL    HW270853   1.323  11.732  12.778
22986SOL     OW70854  12.726  12.444   9.328
22986SOL    HW170855  12.754  12.519   9.275
22986SOL    HW270856  12.800  12.426   9.385
22987SOL     OW70857   0.742   4.212   6.144
22987SOL    HW170858   0.770   4.303   6.138
22987SOL    HW270859   0.738   4.182   6.054
22988SOL     OW70860  14.454   5.314  14.447
22988SOL    HW170861  14.372   5.317  14.396
22988SOL    HW270862  14.523   5.313  14.381
22989SOL     OW70863   8.485   4.135   0.943
22989SOL    HW170864   8.454   4.208   0.889
22989SOL    HW270865   8.444   4.058   0.903
22990SOL     OW70866   6.328  10.258  10.053
22990SOL    HW170867   6.299  10.251  10.144
22990SOL    HW270868   6.255  10.299  10.007
22991SOL     OW70869   7.111   3.570   5.136
22991SOL    HW170870   7.162   3.494   5.106
22991SOL    HW270871   7.042   3.532   5.190
22992SOL     OW70872  14.540   7.896   5.998
22992SOL    HW170873  14.564   7.927   6.086
22992SOL    HW270874  14.511   7.806   6.011
22993SOL     OW70875   1.155  14.074  14.680
22993SOL    HW170876   1.183  14.022  14.605
22993SOL    HW270877   1.112  14.151  14.642
22994SOL     OW70878   1.772   9.995   2.670
22994SOL    HW170879   1.846   9.943   2.702
22994SOL    HW270880   1.804  10.035   2.589
22995SOL     OW70881   6.855   6.667   8.633
22995SOL    HW170882   6.777   6.707   8.670
22995SOL    HW270883   6.836   6.659   8.540
22996SOL     OW70884   1.992  12.502   5.374
22996SOL    HW170885   2.004  12.596   5.359
22996SOL    HW270886   1.934  12.496   5.449
22997SOL     OW70887   2.596  10.067   3.337
22997SOL    HW170888   2.681  10.061   3.382
22997SOL    HW270889   2.575  10.160   3.338
22998SOL     OW70890   1.703  14.828  10.870
22998SOL    HW170891   1.689  14.825  10.776
22998SOL    HW270892   1.789  14.868  10.881
22999SOL     OW70893   1.009  10.239   6.985
22999SOL    HW170894   1.103  10.218   6.980
22999SOL    HW270895   0.968  10.180   6.922
23000SOL     OW70896   3.029   1.377   1.324
23000SOL    HW170897   3.002   1.318   1.395
23000SOL    HW270898   2.974   1.454   1.334
23001SOL     OW70899  10.531   9.235   9.014
23001SOL    HW170900  10.452   9.247   8.961
23001SOL    HW270901  10.519   9.149   9.055
23002SOL     OW70902   8.378   4.221  13.568
23002SOL    HW170903   8.438   4.294  13.556
23002SOL    HW270904   8.387   4.168  13.489
23003SOL     OW70905   8.838   7.190   2.989
23003SOL    HW170906   8.891   7.110   2.987
23003SOL    HW270907   8.902   7.260   2.983
23004SOL     OW70908  11.403  13.019  14.103
23004SOL    HW170909  11.333  13.080  14.079
23004SOL    HW270910  11.427  13.043  14.192
23005SOL     OW70911   9.078   2.462  12.829
23005SOL    HW170912   9.014   2.530  12.810
23005SOL    HW270913   9.108   2.481  12.918
23006SOL     OW70914   2.704   0.171  11.442
23006SOL    HW170915   2.620   0.209  11.417
23006SOL    HW270916   2.734   0.125  11.363
23007SOL     OW70917   4.137  13.779   0.428
23007SOL    HW170918   4.181  13.862   0.445
23007SOL    HW270919   4.207  13.714   0.431
23008SOL     OW70920   7.193   9.041  10.270
23008SOL    HW170921   7.196   8.947  10.285
23008SOL    HW270922   7.209   9.080  10.356
23009SOL     OW70923  10.160  12.876   5.488
23009SOL    HW170924  10.133  12.785   5.475
23009SOL    HW270925  10.188  12.880   5.580
23010SOL     OW70926   8.079  11.848  11.347
23010SOL    HW170927   8.077  11.859  11.252
23010SOL    HW270928   8.041  11.929  11.382
23011SOL     OW70929   4.622   3.968   9.241
23011SOL    HW170930   4.671   4.049   9.223
23011SOL    HW270931   4.582   3.983   9.326
23012SOL     OW70932   6.017   1.339   3.177
23012SOL    HW170933   5.988   1.402   3.242
23012SOL    HW270934   6.097   1.377   3.141
23013SOL     OW70935   4.993  11.396   3.971
23013SOL    HW170936   4.968  11.312   4.010
23013SOL    HW270937   4.996  11.378   3.876
23014SOL     OW70938  13.678   0.271  11.113
23014SOL    HW170939  13.683   0.177  11.127
23014SOL    HW270940  13.736   0.309  11.178
23015SOL     OW70941   8.388   0.411   5.370
23015SOL    HW170942   8.434   0.448   5.295
23015SOL    HW270943   8.380   0.318   5.349
23016SOL     OW70944   3.776  12.733  13.046
23016SOL    HW170945   3.700  12.694  13.088
23016SOL    HW270946   3.767  12.827  13.062
23017SOL     OW70947   9.501   5.817   4.408
23017SOL    HW170948   9.530   5.834   4.497
23017SOL    HW270949   9.454   5.897   4.383
23018SOL     OW70950  13.877  12.036  14.258
23018SOL    HW170951  13.937  12.014  14.329
23018SOL    HW270952  13.884  12.132  14.250
23019SOL     OW70953   2.922   2.224   6.792
23019SOL    HW170954   2.979   2.243   6.867
23019SOL    HW270955   2.966   2.266   6.717
23020SOL     OW70956  13.922  14.192  14.519
23020SOL    HW170957  13.867  14.114  14.524
23020SOL    HW270958  14.006  14.166  14.556
23021SOL     OW70959   6.993   4.453   6.660
23021SOL    HW170960   7.037   4.514   6.601
23021SOL    HW270961   6.900   4.460   6.636
23022SOL     OW70962   7.092   0.571  12.800
23022SOL    HW170963   7.073   0.600  12.710
23022SOL    HW270964   7.178   0.530  12.794
23023SOL     OW70965   9.532  14.191   5.407
23023SOL    HW170966   9.488  14.122   5.359
23023SOL    HW270967   9.462  14.251   5.433
23024SOL     OW70968  10.897   4.097  14.155
23024SOL    HW170969  10.817   4.149  14.148
23024SOL    HW270970  10.961   4.157  14.193
23025SOL     OW70971  10.531  12.990  10.809
23025SOL    HW170972  10.482  12.998  10.727
23025SOL    HW270973  10.478  13.037  10.873
23026SOL     OW70974  13.088   8.455   8.195
23026SOL    HW170975  13.158   8.519   8.208
23026SOL    HW270976  13.066   8.425   8.283
23027SOL     OW70977  12.811  13.613   3.304
23027SOL    HW170978  12.824  13.601   3.398
23027SOL    HW270979  12.823  13.707   3.290
23028SOL     OW70980   4.789   6.944  13.965
23028SOL    HW170981   4.769   6.871  14.023
23028SOL    HW270982   4.814   6.904  13.882
23029SOL     OW70983  10.315   7.807  12.128
23029SOL    HW170984  10.317   7.883  12.187
23029SOL    HW270985  10.318   7.845  12.040
23030SOL     OW70986  12.142   3.159   6.179
23030SOL    HW170987  12.212   3.217   6.151
23030SOL    HW270988  12.115   3.112   6.100
23031SOL     OW70989  10.782   0.772   5.950
23031SOL    HW170990  10.816   0.796   6.036
23031SOL    HW270991  10.735   0.690   5.966
23032SOL     OW70992  13.189   7.879  10.226
23032SOL    HW170993  13.283   7.892  10.243
23032SOL    HW270994  13.187   7.814  10.156
23033SOL     OW70995   0.307  11.306   3.487
23033SOL    HW170996   0.342  11.283   3.573
23033SOL    HW270997   0.375  11.359   3.446
23034SOL     OW70998   4.651   6.040   9.109
23034SOL    HW170999   4.652   6.101   9.036
23034SOL    HW271000   4.564   6.049   9.148
23035SOL     OW71001  10.001   8.617   9.803
23035SOL    HW171002   9.981   8.572   9.885
23035SOL    HW271003   9.950   8.570   9.737
23036SOL     OW71004   0.719   8.359   8.268
23036SOL    HW171005   0.701   8.324   8.354
23036SOL    HW271006   0.668   8.305   8.208
23037SOL     OW71007  12.821  10.781   4.448
23037SOL    HW171008  12.747  10.800   4.506
23037SOL    HW271009  12.843  10.865   4.409
23038SOL     OW71010  11.679   0.111   6.940
23038SOL    HW171011  11.760   0.080   6.979
23038SOL    HW271012  11.652   0.184   6.996
23039SOL     OW71013   4.024   5.896   7.366
23039SOL    HW171014   4.045   5.982   7.402
23039SOL    HW271015   4.095   5.877   7.306
23040SOL     OW71016   0.846  10.180   1.793
23040SOL    HW171017   0.787  10.119   1.836
23040SOL    HW271018   0.842  10.259   1.847
23041SOL     OW71019   0.876   2.701   6.265
23041SOL    HW171020   0.869   2.620   6.315
23041SOL    HW271021   0.853   2.770   6.328
23042SOL     OW71022   3.888   7.641   1.205
23042SOL    HW171023   3.816   7.675   1.256
23042SOL    HW271024   3.886   7.690   1.123
23043SOL     OW71025  13.363   1.103   1.146
23043SOL    HW171026  13.317   1.024   1.118
23043SOL    HW271027  13.335   1.170   1.083
23044SOL     OW71028  11.431  14.326  13.849
23044SOL    HW171029  11.379  14.396  13.809
23044SOL    HW271030  11.479  14.369  13.919
23045SOL     OW71031   2.296   5.473  14.850
23045SOL    HW171032   2.300   5.514   0.057
23045SOL    HW271033   2.204   5.451  14.838
23046SOL     OW71034   8.154   2.905   2.433
23046SOL    HW171035   8.239   2.944   2.415
23046SOL    HW271036   8.161   2.871   2.522
23047SOL     OW71037  14.080   1.517   8.515
23047SOL    HW171038  14.031   1.596   8.496
23047SOL    HW271039  14.124   1.535   8.598
23048SOL     OW71040  11.157   6.892   6.239
23048SOL    HW171041  11.251   6.894   6.221
23048SOL    HW271042  11.120   6.838   6.169
23049SOL     OW71043  11.023   3.697   8.653
23049SOL    HW171044  11.059   3.635   8.716
23049SOL    HW271045  10.938   3.660   8.630
23050SOL     OW71046   9.000  12.732  13.749
23050SOL    HW171047   9.062  12.661  13.730
23050SOL    HW271048   8.964  12.709  13.834
23051SOL     OW71049   0.227  11.079   3.095
23051SOL    HW171050   0.237  10.985   3.104
23051SOL    HW271051   0.309  11.115   3.129
23052SOL     OW71052   2.739   8.060   7.957
23052SOL    HW171053   2.801   8.048   8.028
23052SOL    HW271054   2.750   8.151   7.930
23053SOL     OW71055   8.515  12.041  13.070
23053SOL    HW171056   8.546  12.042  12.979
23053SOL    HW271057   8.441  12.101  13.070
23054SOL     OW71058   2.727   9.822   2.076
23054SOL    HW171059   2.639   9.785   2.078
23054SOL    HW271060   2.784   9.747   2.061
23055SOL     OW71061   8.988   4.843   3.748
23055SOL    HW171062   8.960   4.769   3.694
23055SOL    HW271063   9.029   4.903   3.686
23056SOL     OW71064   0.253   2.064   3.572
23056SOL    HW171065   0.186   2.132   3.571
23056SOL    HW271066   0.236   2.015   3.652
23057SOL     OW71067  10.621   6.236   7.576
23057SOL    HW171068  10.651   6.317   7.536
23057SOL    HW271069  10.653   6.167   7.518
23058SOL     OW71070  10.040  10.068  14.351
23058SOL    HW171071  10.080   9.997  14.300
23058SOL    HW271072  10.113  10.110  14.395
23059SOL     OW71073  11.849  10.869   6.586
23059SOL    HW171074  11.775  10.921   6.617
23059SOL    HW271075  11.892  10.840   6.666
23060SOL     OW71076   3.569  11.154   7.185
23060SOL    HW171077   3.586  11.082   7.124
23060SOL    HW271078   3.621  11.132   7.263
23061SOL     OW71079   3.183   3.496  14.658
23061SOL    HW171080   3.134   3.573  14.630
23061SOL    HW271081   3.241   3.528  14.727
23062SOL     OW71082   8.876   4.741   0.265
23062SOL    HW171083   8.919   4.681   0.203
23062SOL    HW271084   8.853   4.817   0.213
23063SOL     OW71085   3.951   8.121  14.262
23063SOL    HW171086   3.988   8.169  14.337
23063SOL    HW271087   3.964   8.029  14.285
23064SOL     OW71088  14.497  13.279   6.193
23064SOL    HW171089  14.590  13.268   6.213
23064SOL    HW271090  14.495  13.343   6.122
23065SOL     OW71091   4.019  11.166   7.696
23065SOL    HW171092   3.955  11.237   7.690
23065SOL    HW271093   3.967  11.087   7.698
23066SOL     OW71094   4.677   4.167   2.206
23066SOL    HW171095   4.728   4.090   2.179
23066SOL    HW271096   4.742   4.237   2.213
23067SOL     OW71097   1.401   0.317   6.185
23067SOL    HW171098   1.491   0.298   6.158
23067SOL    HW271099   1.378   0.395   6.135
23068SOL     OW71100   7.593   7.938  13.733
23068SOL    HW171101   7.596   8.029  13.704
23068SOL    HW271102   7.680   7.903  13.710
23069SOL     OW71103   8.300  12.154  12.037
23069SOL    HW171104   8.216  12.175  11.997
23069SOL    HW271105   8.364  12.199  11.982
23070SOL     OW71106   2.124  13.943  10.849
23070SOL    HW171107   2.110  13.862  10.897
23070SOL    HW271108   2.206  13.929  10.802
23071SOL     OW71109  10.690  13.737   3.356
23071SOL    HW171110  10.686  13.822   3.311
23071SOL    HW271111  10.723  13.676   3.290
23072SOL     OW71112   3.438   1.716  10.066
23072SOL    HW171113   3.444   1.756   9.979
23072SOL    HW271114   3.347   1.728  10.091
23073SOL     OW71115   1.672   5.797  10.049
23073SOL    HW171116   1.627   5.717  10.022
23073SOL    HW271117   1.744   5.806   9.987
23074SOL     OW71118  10.753   3.510   5.487
23074SOL    HW171119  10.826   3.502   5.548
23074SOL    HW271120  10.675   3.517   5.542
23075SOL     OW71121   4.973   0.236  10.237
23075SOL    HW171122   4.938   0.167  10.292
23075SOL    HW271123   4.971   0.314  10.292
23076SOL     OW71124  11.826   5.006  14.812
23076SOL    HW171125  11.852   5.076  14.872
23076SOL    HW271126  11.883   5.017  14.736
23077SOL     OW71127   1.781  10.222  12.883
23077SOL    HW171128   1.837  10.281  12.934
23077SOL    HW271129   1.814  10.134  12.903
23078SOL     OW71130  10.216  14.014   5.418
23078SOL    HW171131  10.259  14.096   5.397
23078SOL    HW271132  10.207  14.016   5.514
23079SOL     OW71133  13.282   1.399  14.033
23079SOL    HW171134  13.222   1.392  13.959
23079SOL    HW271135  13.272   1.489  14.064
23080SOL     OW71136   1.975   6.147   8.924
23080SOL    HW171137   2.041   6.195   8.873
23080SOL    HW271138   1.996   6.167   9.015
23081SOL     OW71139  10.256   0.941   2.534
23081SOL    HW171140  10.165   0.958   2.509
23081SOL    HW271141  10.292   1.028   2.552
23082SOL     OW71142   1.479   0.695   4.990
23082SOL    HW171143   1.434   0.705   4.906
23082SOL    HW271144   1.570   0.679   4.966
23083SOL     OW71145  14.221  11.124  12.807
23083SOL    HW171146  14.313  11.116  12.783
23083SOL    HW271147  14.180  11.044  12.775
23084SOL     OW71148   7.761   4.091  10.351
23084SOL    HW171149   7.723   4.179  10.357
23084SOL    HW271150   7.690   4.032  10.377
23085SOL     OW71151   5.340   8.989   4.359
23085SOL    HW171152   5.332   8.972   4.265
23085SOL    HW271153   5.345   8.903   4.399
23086SOL     OW71154  12.248   2.478   6.155
23086SOL    HW171155  12.187   2.497   6.084
23086SOL    HW271156  12.327   2.528   6.134
23087SOL     OW71157  12.123   9.766   7.475
23087SOL    HW171158  12.173   9.720   7.542
23087SOL    HW271159  12.186   9.828   7.437
23088SOL     OW71160  11.109   1.442   4.331
23088SOL    HW171161  11.093   1.531   4.299
23088SOL    HW271162  11.022   1.406   4.346
23089SOL     OW71163   9.244   4.328   9.567
23089SOL    HW171164   9.273   4.316   9.657
23089SOL    HW271165   9.158   4.285   9.564
23090SOL     OW71166   4.398   8.862   7.209
23090SOL    HW171167   4.365   8.943   7.170
23090SOL    HW271168   4.328   8.834   7.269
23091SOL     OW71169   5.434   5.292   8.896
23091SOL    HW171170   5.448   5.248   8.812
23091SOL    HW271171   5.358   5.349   8.880
23092SOL     OW71172   0.840   7.813  14.176
23092SOL    HW171173   0.886   7.895  14.196
23092SOL    HW271174   0.771   7.808  14.242
23093SOL     OW71175   0.598   4.891   2.469
23093SOL    HW171176   0.594   4.986   2.483
23093SOL    HW271177   0.592   4.881   2.374
23094SOL     OW71178  13.570   4.731  13.537
23094SOL    HW171179  13.493   4.763  13.489
23094SOL    HW271180  13.537   4.713  13.625
23095SOL     OW71181   1.275  14.019   4.390
23095SOL    HW171182   1.245  14.090   4.333
23095SOL    HW271183   1.230  13.942   4.358
23096SOL     OW71184   5.266  14.646  14.107
23096SOL    HW171185   5.245  14.619  14.196
23096SOL    HW271186   5.339  14.707  14.117
23097SOL     OW71187   0.305  11.954   9.477
23097SOL    HW171188   0.250  11.989   9.547
23097SOL    HW271189   0.360  11.889   9.519
23098SOL     OW71190   4.439   5.774   2.056
23098SOL    HW171191   4.448   5.827   1.976
23098SOL    HW271192   4.383   5.827   2.113
23099SOL     OW71193   3.863   5.881  14.342
23099SOL    HW171194   3.897   5.970  14.336
23099SOL    HW271195   3.901   5.836  14.266
23100SOL     OW71196   3.526   3.489   6.096
23100SOL    HW171197   3.485   3.402   6.099
23100SOL    HW271198   3.456   3.548   6.070
23101SOL     OW71199   1.162  12.176   7.440
23101SOL    HW171200   1.169  12.093   7.393
23101SOL    HW271201   1.249  12.215   7.433
23102SOL     OW71202   3.953  12.129   2.312
23102SOL    HW171203   3.903  12.111   2.392
23102SOL    HW271204   3.923  12.216   2.285
23103SOL     OW71205   5.237  13.022  11.673
23103SOL    HW171206   5.204  13.026  11.763
23103SOL    HW271207   5.305  12.954  11.675
23104SOL     OW71208   9.382   8.501   3.483
23104SOL    HW171209   9.436   8.468   3.555
23104SOL    HW271210   9.292   8.483   3.510
23105SOL     OW71211   0.496   9.054   8.278
23105SOL    HW171212   0.523   9.046   8.187
23105SOL    HW271213   0.555   9.120   8.315
23106SOL     OW71214   3.833   2.471   4.984
23106SOL    HW171215   3.799   2.400   5.038
23106SOL    HW271216   3.876   2.530   5.046
23107SOL     OW71217   0.907   6.596  12.821
23107SOL    HW171218   0.827   6.586  12.873
23107SOL    HW271219   0.972   6.543  12.867
23108SOL     OW71220   2.631  14.277   5.009
23108SOL    HW171221   2.683  14.199   5.028
23108SOL    HW271222   2.579  14.253   4.932
23109SOL     OW71223   6.393   6.045  13.798
23109SOL    HW171224   6.298   6.050  13.789
23109SOL    HW271225   6.423   6.003  13.717
23110SOL     OW71226   7.022   6.501  12.878
23110SOL    HW171227   6.992   6.583  12.838
23110SOL    HW271228   6.977   6.432  12.829
23111SOL     OW71229  12.060   2.442  13.768
23111SOL    HW171230  11.980   2.470  13.725
23111SOL    HW271231  12.039   2.357  13.806
23112SOL     OW71232   3.053   0.984   2.821
23112SOL    HW171233   3.015   1.041   2.753
23112SOL    HW271234   2.978   0.942   2.861
23113SOL     OW71235   0.312  13.154   9.510
23113SOL    HW171236   0.328  13.089   9.578
23113SOL    HW271237   0.390  13.150   9.454
23114SOL     OW71238   1.165  10.091  14.507
23114SOL    HW171239   1.218  10.140  14.446
23114SOL    HW271240   1.124  10.157  14.563
23115SOL     OW71241  13.724  13.160   6.902
23115SOL    HW171242  13.810  13.129   6.875
23115SOL    HW271243  13.741  13.243   6.946
23116SOL     OW71244   0.789   8.298   2.990
23116SOL    HW171245   0.875   8.254   2.986
23116SOL    HW271246   0.759   8.299   2.900
23117SOL     OW71247   0.246  12.439   9.023
23117SOL    HW171248   0.251  12.424   9.117
23117SOL    HW271249   0.152  12.440   9.004
23118SOL     OW71250   3.009   2.122   4.005
23118SOL    HW171251   2.995   2.053   4.070
23118SOL    HW271252   3.022   2.075   3.922
23119SOL     OW71253  13.676   2.805  10.201
23119SOL    HW171254  13.692   2.899  10.200
23119SOL    HW271255  13.594   2.794  10.152
23120SOL     OW71256  10.406   0.035   3.540
23120SOL    HW171257  10.334   0.092   3.515
23120SOL    HW271258  10.372  14.864   3.614
23121SOL     OW71259   7.332   7.321  13.710
23121SOL    HW171260   7.398   7.263  13.748
23121SOL    HW271261   7.358   7.331  13.619
23122SOL     OW71262   8.448   8.800   7.202
23122SOL    HW171263   8.419   8.834   7.286
23122SOL    HW271264   8.475   8.878   7.153
23123SOL     OW71265  14.388  13.013   8.508
23123SOL    HW171266  14.338  13.026   8.588
23123SOL    HW271267  14.407  12.920   8.506
23124SOL     OW71268   7.638  12.143   1.813
23124SOL    HW171269   7.556  12.126   1.860
23124SOL    HW271270   7.617  12.124   1.722
23125SOL     OW71271   1.835   9.992  12.070
23125SOL    HW171272   1.837  10.042  11.988
23125SOL    HW271273   1.742   9.984  12.092
23126SOL     OW71274   0.987  11.625  14.123
23126SOL    HW171275   0.985  11.609  14.028
23126SOL    HW271276   0.916  11.571  14.157
23127SOL     OW71277   2.108   5.836   9.975
23127SOL    HW171278   2.066   5.903   9.922
23127SOL    HW271279   2.180   5.882  10.020
23128SOL     OW71280  13.805   2.734   3.740
23128SOL    HW171281  13.840   2.698   3.821
23128SOL    HW271282  13.795   2.659   3.682
23129SOL     OW71283   0.570   1.283   8.029
23129SOL    HW171284   0.513   1.229   7.974
23129SOL    HW271285   0.654   1.282   7.984
23130SOL     OW71286   1.687   6.199   8.894
23130SOL    HW171287   1.645   6.149   8.823
23130SOL    HW271288   1.776   6.165   8.897
23131SOL     OW71289   0.806  11.457  10.693
23131SOL    HW171290   0.865  11.389  10.659
23131SOL    HW271291   0.729  11.409  10.722
23132SOL     OW71292   7.786  13.759  14.519
23132SOL    HW171293   7.748  13.791  14.602
23132SOL    HW271294   7.720  13.699  14.484
23133SOL     OW71295   8.300   7.446  14.646
23133SOL    HW171296   8.316   7.433  14.739
23133SOL    HW271297   8.381   7.416  14.604
23134SOL     OW71298   6.800  13.767   7.588
23134SOL    HW171299   6.888  13.738   7.611
23134SOL    HW271300   6.764  13.800   7.671
23135SOL     OW71301   8.329  14.374   9.238
23135SOL    HW171302   8.269  14.368   9.312
23135SOL    HW271303   8.289  14.436   9.178
23136SOL     OW71304   4.727  10.254   8.515
23136SOL    HW171305   4.742  10.211   8.599
23136SOL    HW271306   4.638  10.232   8.491
23137SOL     OW71307   6.230   4.358   9.200
23137SOL    HW171308   6.207   4.268   9.177
23137SOL    HW271309   6.246   4.355   9.294
23138SOL     OW71310  10.331   1.010   8.741
23138SOL    HW171311  10.390   1.073   8.783
23138SOL    HW271312  10.373   0.990   8.658
23139SOL     OW71313  14.170   6.047   8.059
23139SOL    HW171314  14.096   6.045   7.998
23139SOL    HW271315  14.145   6.111   8.125
23140SOL     OW71316  12.196   6.428  13.951
23140SOL    HW171317  12.180   6.361  14.018
23140SOL    HW271318  12.195   6.379  13.869
23141SOL     OW71319   1.163   7.684   9.984
23141SOL    HW171320   1.202   7.709   9.901
23141SOL    HW271321   1.096   7.751  10.000
23142SOL     OW71322  10.576   9.653   4.332
23142SOL    HW171323  10.640   9.581   4.334
23142SOL    HW271324  10.520   9.633   4.258
23143SOL     OW71325   0.901   3.615   7.998
23143SOL    HW171326   0.835   3.573   7.943
23143SOL    HW271327   0.923   3.695   7.952
23144SOL     OW71328   3.657   2.906   0.355
23144SOL    HW171329   3.578   2.883   0.305
23144SOL    HW271330   3.640   2.872   0.442
23145SOL     OW71331   7.216   4.577  13.457
23145SOL    HW171332   7.260   4.642  13.402
23145SOL    HW271333   7.250   4.493  13.427
23146SOL     OW71334   2.272   0.664  11.312
23146SOL    HW171335   2.283   0.701  11.399
23146SOL    HW271336   2.231   0.579  11.327
23147SOL     OW71337   7.978   1.294   3.459
23147SOL    HW171338   7.998   1.208   3.496
23147SOL    HW271339   7.894   1.281   3.413
23148SOL     OW71340   0.472   5.175   0.233
23148SOL    HW171341   0.486   5.218   0.149
23148SOL    HW271342   0.434   5.090   0.211
23149SOL     OW71343   7.757  14.004   0.275
23149SOL    HW171344   7.844  14.035   0.300
23149SOL    HW271345   7.741  13.928   0.331
23150SOL     OW71346   5.210   8.312   4.352
23150SOL    HW171347   5.299   8.297   4.384
23150SOL    HW271348   5.209   8.404   4.326
23151SOL     OW71349  11.603  11.210   7.814
23151SOL    HW171350  11.672  11.143   7.820
23151SOL    HW271351  11.567  11.198   7.726
23152SOL     OW71352   4.048   3.156   2.391
23152SOL    HW171353   3.969   3.102   2.396
23152SOL    HW271354   4.015   3.246   2.384
23153SOL     OW71355  14.355   9.681  13.007
23153SOL    HW171356  14.357   9.676  12.912
23153SOL    HW271357  14.273   9.727  13.027
23154SOL     OW71358   8.812   1.903   4.930
23154SOL    HW171359   8.862   1.835   4.974
23154SOL    HW271360   8.877   1.953   4.881
23155SOL     OW71361   1.252   8.251   4.983
23155SOL    HW171362   1.265   8.203   5.066
23155SOL    HW271363   1.335   8.295   4.968
23156SOL     OW71364   4.970   1.325   2.776
23156SOL    HW171365   4.924   1.395   2.822
23156SOL    HW271366   4.900   1.269   2.742
23157SOL     OW71367  12.198   1.930  13.208
23157SOL    HW171368  12.138   1.992  13.168
23157SOL    HW271369  12.186   1.849  13.159
23158SOL     OW71370   9.654  14.580   7.278
23158SOL    HW171371   9.725  14.618   7.226
23158SOL    HW271372   9.646  14.637   7.354
23159SOL     OW71373   5.547   3.117   0.208
23159SOL    HW171374   5.612   3.100   0.277
23159SOL    HW271375   5.482   3.173   0.250
23160SOL     OW71376   1.512   0.682   0.807
23160SOL    HW171377   1.476   0.595   0.790
23160SOL    HW271378   1.442   0.742   0.778
23161SOL     OW71379  10.497   2.219   5.154
23161SOL    HW171380  10.473   2.183   5.069
23161SOL    HW271381  10.493   2.314   5.143
23162SOL     OW71382   7.518  14.874   3.360
23162SOL    HW171383   7.467   0.041   3.294
23162SOL    HW271384   7.454  14.850   3.427
23163SOL     OW71385  10.239   8.065   7.791
23163SOL    HW171386  10.274   8.093   7.875
23163SOL    HW271387  10.145   8.054   7.806
23164SOL     OW71388   3.573  13.843   9.804
23164SOL    HW171389   3.603  13.913   9.861
23164SOL    HW271390   3.654  13.801   9.773
23165SOL     OW71391   9.429   7.537  12.075
23165SOL    HW171392   9.452   7.609  12.134
23165SOL    HW271393   9.381   7.580  12.003
23166SOL     OW71394   6.446  14.523  10.381
23166SOL    HW171395   6.423  14.586  10.450
23166SOL    HW271396   6.491  14.576  10.315
23167SOL     OW71397   6.269   9.901   5.124
23167SOL    HW171398   6.290   9.839   5.055
23167SOL    HW271399   6.258   9.985   5.079
23168SOL     OW71400  10.727   6.430   8.015
23168SOL    HW171401  10.667   6.378   8.068
23168SOL    HW271402  10.764   6.494   8.075
23169SOL     OW71403   3.738   6.534  14.236
23169SOL    HW171404   3.779   6.530  14.323
23169SOL    HW271405   3.804   6.578  14.181
23170SOL     OW71406   7.936   4.004   2.820
23170SOL    HW171407   7.998   4.068   2.784
23170SOL    HW271408   7.886   3.974   2.745
23171SOL     OW71409  13.669   0.804   1.088
23171SOL    HW171410  13.730   0.759   1.030
23171SOL    HW271411  13.703   0.787   1.176
23172SOL     OW71412   5.727   4.640   5.482
23172SOL    HW171413   5.710   4.697   5.557
23172SOL    HW271414   5.822   4.630   5.481
23173SOL     OW71415  14.828  12.814   6.687
23173SOL    HW171416  14.853  12.770   6.768
23173SOL    HW271417  14.810  12.743   6.625
23174SOL     OW71418   5.857   8.620   3.629
23174SOL    HW171419   5.945   8.621   3.666
23174SOL    HW271420   5.869   8.588   3.540
23175SOL     OW71421   7.863   6.342   6.281
23175SOL    HW171422   7.892   6.319   6.193
23175SOL    HW271423   7.943   6.374   6.324
23176SOL     OW71424   5.410   4.287   3.909
23176SOL    HW171425   5.326   4.305   3.953
23176SOL    HW271426   5.476   4.311   3.974
23177SOL     OW71427   3.754  13.625   6.987
23177SOL    HW171428   3.787  13.544   6.948
23177SOL    HW271429   3.819  13.691   6.963
23178SOL     OW71430   5.618   9.547  12.404
23178SOL    HW171431   5.695   9.600  12.382
23178SOL    HW271432   5.635   9.462  12.364
23179SOL     OW71433  13.210   2.026   8.799
23179SOL    HW171434  13.237   1.968   8.727
23179SOL    HW271435  13.292   2.062   8.834
23180SOL     OW71436  13.889  13.320   0.692
23180SOL    HW171437  13.917  13.399   0.646
23180SOL    HW271438  13.952  13.310   0.764
23181SOL     OW71439   8.036   1.540   1.471
23181SOL    HW171440   7.947   1.546   1.435
23181SOL    HW271441   8.092   1.564   1.397
23182SOL     OW71442   9.034   8.157   4.256
23182SOL    HW171443   8.958   8.142   4.313
23182SOL    HW271444   9.065   8.070   4.233
23183SOL     OW71445  10.347  10.199   9.527
23183SOL    HW171446  10.358  10.149   9.446
23183SOL    HW271447  10.293  10.142   9.582
23184SOL     OW71448   4.988   9.371   6.558
23184SOL    HW171449   5.035   9.289   6.572
23184SOL    HW271450   4.961   9.398   6.646
23185SOL     OW71451   4.008  13.840   5.807
23185SOL    HW171452   4.065  13.867   5.734
23185SOL    HW271453   4.019  13.909   5.872
23186SOL     OW71454   5.790  14.254   2.812
23186SOL    HW171455   5.699  14.224   2.808
23186SOL    HW271456   5.807  14.268   2.905
23187SOL     OW71457   0.794   9.385  11.131
23187SOL    HW171458   0.881   9.360  11.161
23187SOL    HW271459   0.809   9.430  11.048
23188SOL     OW71460  12.487  10.609  11.193
23188SOL    HW171461  12.520  10.560  11.118
23188SOL    HW271462  12.538  10.690  11.193
23189SOL     OW71463   9.843  14.204  14.850
23189SOL    HW171464   9.934  14.216  14.877
23189SOL    HW271465   9.831  14.267  14.779
23190SOL     OW71466   7.329  10.481   8.143
23190SOL    HW171467   7.330  10.503   8.236
23190SOL    HW271468   7.251  10.426   8.132
23191SOL     OW71469  11.411   7.901  14.022
23191SOL    HW171470  11.483   7.961  14.007
23191SOL    HW271471  11.355   7.944  14.087
23192SOL     OW71472  13.598   1.291   9.895
23192SOL    HW171473  13.596   1.232   9.971
23192SOL    HW271474  13.514   1.276   9.851
23193SOL     OW71475  12.493   0.818  14.207
23193SOL    HW171476  12.544   0.786  14.282
23193SOL    HW271477  12.559   0.838  14.141
23194SOL     OW71478   8.301   9.566   9.391
23194SOL    HW171479   8.241   9.641   9.393
23194SOL    HW271480   8.274   9.513   9.466
23195SOL     OW71481   8.640   6.964   5.908
23195SOL    HW171482   8.651   7.057   5.926
23195SOL    HW271483   8.724   6.925   5.932
23196SOL     OW71484   9.861  13.973  13.751
23196SOL    HW171485   9.940  13.926  13.777
23196SOL    HW271486   9.810  13.982  13.832
23197SOL     OW71487  10.217   4.545  14.315
23197SOL    HW171488  10.129   4.555  14.353
23197SOL    HW271489  10.215   4.598  14.236
23198SOL     OW71490  10.146  12.152  14.831
23198SOL    HW171491  10.095  12.142   0.033
23198SOL    HW271492  10.227  12.105  14.848
23199SOL     OW71493   7.286  14.188   9.380
23199SOL    HW171494   7.295  14.274   9.340
23199SOL    HW271495   7.193  14.167   9.370
23200SOL     OW71496   6.041   2.928   0.224
23200SOL    HW171497   5.982   2.855   0.206
23200SOL    HW271498   6.100   2.895   0.291
23201SOL     OW71499   7.249   8.091   5.631
23201SOL    HW171500   7.316   8.148   5.668
23201SOL    HW271501   7.253   8.107   5.537
23202SOL     OW71502  10.958   3.077  10.447
23202SOL    HW171503  11.009   3.020  10.504
23202SOL    HW271504  10.881   3.026  10.424
23203SOL     OW71505   4.363   7.163   8.115
23203SOL    HW171506   4.284   7.132   8.159
23203SOL    HW271507   4.363   7.119   8.030
23204SOL     OW71508   9.943  12.999   6.994
23204SOL    HW171509   9.858  12.961   6.973
23204SOL    HW271510   9.953  12.985   7.088
23205SOL     OW71511  10.936  12.295   9.457
23205SOL    HW171512  10.891  12.255   9.531
23205SOL    HW271513  10.909  12.386   9.459
23206SOL     OW71514   4.362   1.567   3.233
23206SOL    HW171515   4.359   1.630   3.304
23206SOL    HW271516   4.434   1.508   3.256
23207SOL     OW71517   0.397   8.113  10.252
23207SOL    HW171518   0.460   8.065  10.199
23207SOL    HW271519   0.340   8.046  10.290
23208SOL     OW71520  11.686   6.845  12.962
23208SOL    HW171521  11.720   6.897  12.889
23208SOL    HW271522  11.678   6.908  13.034
23209SOL     OW71523   0.774   3.821  14.313
23209SOL    HW171524   0.700   3.813  14.374
23209SOL    HW271525   0.850   3.837  14.369
23210SOL     OW71526   0.936   1.069  14.070
23210SOL    HW171527   1.002   1.011  14.032
23210SOL    HW271528   0.872   1.010  14.110
23211SOL     OW71529  13.423  13.799  11.155
23211SOL    HW171530  13.433  13.705  11.170
23211SOL    HW271531  13.511  13.829  11.132
23212SOL     OW71532  14.661  14.418   5.757
23212SOL    HW171533  14.699  14.487   5.702
23212SOL    HW271534  14.607  14.367   5.696
23213SOL     OW71535   6.190   5.572   5.691
23213SOL    HW171536   6.217   5.495   5.741
23213SOL    HW271537   6.272   5.608   5.657
23214SOL     OW71538   1.878   4.757  14.028
23214SOL    HW171539   1.834   4.827  14.075
23214SOL    HW271540   1.850   4.768  13.937
23215SOL     OW71541   3.830   8.797   9.819
23215SOL    HW171542   3.839   8.871   9.879
23215SOL    HW271543   3.740   8.804   9.786
23216SOL     OW71544  12.831   5.930  12.926
23216SOL    HW171545  12.853   5.940  12.834
23216SOL    HW271546  12.915   5.935  12.972
23217SOL     OW71547   2.327  11.541   0.416
23217SOL    HW171548   2.271  11.573   0.345
23217SOL    HW271549   2.326  11.446   0.406
23218SOL     OW71550   8.972   7.936  13.753
23218SOL    HW171551   8.890   7.984  13.742
23218SOL    HW271552   9.040   8.001  13.736
23219SOL     OW71553   4.310   8.561   5.866
23219SOL    HW171554   4.247   8.510   5.918
23219SOL    HW271555   4.255   8.623   5.818
23220SOL     OW71556   0.857  12.239  13.692
23220SOL    HW171557   0.876  12.205  13.605
23220SOL    HW271558   0.778  12.193  13.720
23221SOL     OW71559   6.743  10.629  13.984
23221SOL    HW171560   6.775  10.567  13.918
23221SOL    HW271561   6.648  10.616  13.986
23222SOL     OW71562   2.508  14.179   1.737
23222SOL    HW171563   2.505  14.151   1.828
23222SOL    HW271564   2.416  14.181   1.710
23223SOL     OW71565   9.899   3.400   7.331
23223SOL    HW171566   9.929   3.355   7.252
23223SOL    HW271567   9.951   3.363   7.402
23224SOL     OW71568   3.847   7.020   1.154
23224SOL    HW171569   3.904   7.097   1.160
23224SOL    HW271570   3.877   6.974   1.075
23225SOL     OW71571   2.323   6.000   3.572
23225SOL    HW171572   2.235   5.969   3.592
23225SOL    HW271573   2.312   6.059   3.498
23226SOL     OW71574  14.002   7.463   5.607
23226SOL    HW171575  14.035   7.383   5.567
23226SOL    HW271576  14.079   7.500   5.652
23227SOL     OW71577   8.931   4.247   2.422
23227SOL    HW171578   8.912   4.329   2.467
23227SOL    HW271579   8.966   4.274   2.337
23228SOL     OW71580  13.024   5.657  12.119
23228SOL    HW171581  12.969   5.632  12.045
23228SOL    HW271582  13.105   5.607  12.108
23229SOL     OW71583   3.385   7.421   8.893
23229SOL    HW171584   3.447   7.488   8.864
23229SOL    HW271585   3.300   7.463   8.886
23230SOL     OW71586   5.275   0.629   3.678
23230SOL    HW171587   5.208   0.564   3.658
23230SOL    HW271588   5.235   0.713   3.654
23231SOL     OW71589  11.443  10.265   9.400
23231SOL    HW171590  11.525  10.217   9.384
23231SOL    HW271591  11.401  10.270   9.314
23232SOL     OW71592  12.428   2.656   6.565
23232SOL    HW171593  12.343   2.616   6.547
23232SOL    HW271594  12.408   2.728   6.624
23233SOL     OW71595   0.564   5.682   6.637
23233SOL    HW171596   0.560   5.590   6.611
23233SOL    HW271597   0.477   5.703   6.669
23234SOL     OW71598   2.945  13.962  14.041
23234SOL    HW171599   2.996  14.011  14.104
23234SOL    HW271600   2.910  13.888  14.091
23235SOL     OW71601   6.180   5.989  14.527
23235SOL    HW171602   6.195   5.896  14.510
23235SOL    HW271603   6.219   6.004  14.613
23236SOL     OW71604  13.966   4.294   0.046
23236SOL    HW171605  14.011   4.352   0.108
23236SOL    HW271606  14.028   4.283  14.854
23237SOL     OW71607   2.875   0.210   3.171
23237SOL    HW171608   2.957   0.241   3.210
23237SOL    HW271609   2.809   0.225   3.239
23238SOL     OW71610   7.544  14.128  12.102
23238SOL    HW171611   7.616  14.171  12.148
23238SOL    HW271612   7.515  14.193  12.037
23239SOL     OW71613   3.761   0.291  13.133
23239SOL    HW171614   3.736   0.234  13.205
23239SOL    HW271615   3.832   0.345  13.167
23240SOL     OW71616   4.468   1.856   9.870
23240SOL    HW171617   4.538   1.855   9.934
23240SOL    HW271618   4.391   1.887   9.918
23241SOL     OW71619   1.353   2.996   9.266
23241SOL    HW171620   1.415   3.068   9.273
23241SOL    HW271621   1.300   3.016   9.189
23242SOL     OW71622  11.665   9.825   7.711
23242SOL    HW171623  11.685   9.839   7.804
23242SOL    HW271624  11.748   9.836   7.666
23243SOL     OW71625  12.309  14.309   1.433
23243SOL    HW171626  12.370  14.285   1.363
23243SOL    HW271627  12.254  14.232   1.445
23244SOL     OW71628   9.646   5.318  14.831
23244SOL    HW171629   9.565   5.369  14.821
23244SOL    HW271630   9.637   5.247  14.767
23245SOL     OW71631  14.652   5.434  11.129
23245SOL    HW171632  14.628   5.520  11.162
23245SOL    HW271633  14.577   5.407  11.075
23246SOL     OW71634  10.199   1.627   3.219
23246SOL    HW171635  10.288   1.634   3.252
23246SOL    HW271636  10.184   1.534   3.207
23247SOL     OW71637  13.789  13.383   4.691
23247SOL    HW171638  13.806  13.476   4.677
23247SOL    HW271639  13.694  13.376   4.699
23248SOL     OW71640  11.936   9.416  10.459
23248SOL    HW171641  11.963   9.508  10.457
23248SOL    HW271642  11.867   9.413  10.525
23249SOL     OW71643  13.495  11.919   0.991
23249SOL    HW171644  13.491  12.009   1.024
23249SOL    HW271645  13.479  11.864   1.067
23250SOL     OW71646   0.644   6.141   1.613
23250SOL    HW171647   0.613   6.229   1.592
23250SOL    HW271648   0.576   6.104   1.669
23251SOL     OW71649   5.516   8.325   0.290
23251SOL    HW171650   5.544   8.330   0.382
23251SOL    HW271651   5.563   8.396   0.247
23252SOL     OW71652   6.259   7.607   7.639
23252SOL    HW171653   6.199   7.676   7.669
23252SOL    HW271654   6.312   7.586   7.716
23253SOL     OW71655  14.394   0.306   6.318
23253SOL    HW171656  14.407   0.295   6.412
23253SOL    HW271657  14.337   0.382   6.311
23254SOL     OW71658   3.448   4.536   6.717
23254SOL    HW171659   3.458   4.528   6.622
23254SOL    HW271660   3.382   4.470   6.739
23255SOL     OW71661   6.953   5.923  14.269
23255SOL    HW171662   7.002   5.900  14.349
23255SOL    HW271663   6.867   5.882  14.282
23256SOL     OW71664  14.378   4.465   3.360
23256SOL    HW171665  14.317   4.423   3.421
23256SOL    HW271666  14.417   4.537   3.411
23257SOL     OW71667   5.053   0.811   3.701
23257SOL    HW171668   5.010   0.873   3.642
23257SOL    HW271669   5.119   0.862   3.747
23258SOL     OW71670   7.977   0.448  13.566
23258SOL    HW171671   8.012   0.386  13.630
23258SOL    HW271672   7.951   0.524  13.618
23259SOL     OW71673   7.188  13.920   8.506
23259SOL    HW171674   7.148  13.972   8.437
23259SOL    HW271675   7.142  13.836   8.503
23260SOL     OW71676   2.262   1.033   5.988
23260SOL    HW171677   2.215   1.109   6.021
23260SOL    HW271678   2.355   1.055   5.998
23261SOL     OW71679   9.522   1.979   2.996
23261SOL    HW171680   9.614   1.960   3.010
23261SOL    HW271681   9.493   1.914   2.932
23262SOL     OW71682  14.589  12.885   1.359
23262SOL    HW171683  14.494  12.877   1.365
23262SOL    HW271684  14.620  12.871   1.448
23263SOL     OW71685  11.262  14.469  14.745
23263SOL    HW171686  11.353  14.494  14.734
23263SOL    HW271687  11.259  14.423  14.829
23264SOL     OW71688  13.000  11.644   8.471
23264SOL    HW171689  12.971  11.559   8.504
23264SOL    HW271690  12.923  11.700   8.478
23265SOL     OW71691   0.116   5.542  10.470
23265SOL    HW171692   0.095   5.502  10.386
23265SOL    HW271693   0.098   5.636  10.457
23266SOL     OW71694   0.681   5.743   7.620
23266SOL    HW171695   0.640   5.826   7.642
23266SOL    HW271696   0.643   5.680   7.681
23267SOL     OW71697  11.157   0.847  13.631
23267SOL    HW171698  11.079   0.901  13.615
23267SOL    HW271699  11.227   0.909  13.648
23268SOL     OW71700   8.543   4.332   7.325
23268SOL    HW171701   8.520   4.367   7.411
23268SOL    HW271702   8.458   4.307   7.287
23269SOL     OW71703  10.992  11.736   8.931
23269SOL    HW171704  10.961  11.796   9.000
23269SOL    HW271705  10.917  11.724   8.874
23270SOL     OW71706  12.749   4.327   7.357
23270SOL    HW171707  12.670   4.303   7.406
23270SOL    HW271708  12.717   4.380   7.284
23271SOL     OW71709   1.572  14.048  10.935
23271SOL    HW171710   1.557  14.023  10.844
23271SOL    HW271711   1.554  13.969  10.986
23272SOL     OW71712   2.928   6.550   1.276
23272SOL    HW171713   2.980   6.473   1.299
23272SOL    HW271714   2.837   6.523   1.288
23273SOL     OW71715   4.556  11.513   1.656
23273SOL    HW171716   4.486  11.578   1.670
23273SOL    HW271717   4.631  11.548   1.704
23274SOL     OW71718   2.631   5.870   6.557
23274SOL    HW171719   2.584   5.816   6.493
23274SOL    HW271720   2.716   5.886   6.518
23275SOL     OW71721   8.467   7.095  14.408
23275SOL    HW171722   8.384   7.052  14.429
23275SOL    HW271723   8.471   7.171  14.466
23276SOL     OW71724   8.353  11.717   0.624
23276SOL    HW171725   8.265  11.711   0.662
23276SOL    HW271726   8.388  11.800   0.657
23277SOL     OW71727   7.060   8.422   8.483
23277SOL    HW171728   7.123   8.352   8.501
23277SOL    HW271729   7.109   8.484   8.428
23278SOL     OW71730  11.198   7.251   9.397
23278SOL    HW171731  11.186   7.235   9.303
23278SOL    HW271732  11.124   7.306   9.421
23279SOL     OW71733  13.976   4.117   9.508
23279SOL    HW171734  13.949   4.202   9.474
23279SOL    HW271735  14.027   4.078   9.437
23280SOL     OW71736   6.200  12.034  12.783
23280SOL    HW171737   6.116  12.062  12.748
23280SOL    HW271738   6.186  11.944  12.812
23281SOL     OW71739   1.440   4.906   2.041
23281SOL    HW171740   1.461   4.814   2.023
23281SOL    HW271741   1.346   4.912   2.024
23282SOL     OW71742   8.901   3.234   8.511
23282SOL    HW171743   8.952   3.204   8.435
23282SOL    HW271744   8.827   3.174   8.515
23283SOL     OW71745   3.852   0.802   9.129
23283SOL    HW171746   3.848   0.826   9.221
23283SOL    HW271747   3.768   0.831   9.093
23284SOL     OW71748   2.360   7.395   0.806
23284SOL    HW171749   2.438   7.443   0.835
23284SOL    HW271750   2.318   7.453   0.742
23285SOL     OW71751   3.077  13.759   9.141
23285SOL    HW171752   3.094  13.749   9.235
23285SOL    HW271753   3.132  13.692   9.100
23286SOL     OW71754   8.312  14.207   1.393
23286SOL    HW171755   8.263  14.132   1.424
23286SOL    HW271756   8.399  14.173   1.373
23287SOL     OW71757   1.100   1.227  11.942
23287SOL    HW171758   1.059   1.302  11.899
23287SOL    HW271759   1.097   1.249  12.035
23288SOL     OW71760  12.337  10.471   6.899
23288SOL    HW171761  12.341  10.470   6.995
23288SOL    HW271762  12.425  10.495   6.872
23289SOL     OW71763  11.511  14.754   4.091
23289SOL    HW171764  11.606  14.770   4.090
23289SOL    HW271765  11.494  14.712   4.007
23290SOL     OW71766  12.561   6.062   9.072
23290SOL    HW171767  12.632   6.075   9.009
23290SOL    HW271768  12.482   6.089   9.024
23291SOL     OW71769   6.939  14.478   9.932
23291SOL    HW171770   6.861  14.526   9.904
23291SOL    HW271771   7.011  14.519   9.884
23292SOL     OW71772   9.108   2.183  11.555
23292SOL    HW171773   9.081   2.271  11.531
23292SOL    HW271774   9.060   2.125  11.496
23293SOL     OW71775   1.651  14.353   7.625
23293SOL    HW171776   1.674  14.283   7.563
23293SOL    HW271777   1.570  14.323   7.665
23294SOL     OW71778  11.976   0.007  11.539
23294SOL    HW171779  12.006   0.010  11.630
23294SOL    HW271780  11.881  14.877  11.546
23295SOL     OW71781  11.469   5.002  13.012
23295SOL    HW171782  11.433   5.050  13.087
23295SOL    HW271783  11.562   5.024  13.011
23296SOL     OW71784  14.715   3.542   5.347
23296SOL    HW171785  14.656   3.584   5.285
23296SOL    HW271786  14.766   3.614   5.384
23297SOL     OW71787   7.169   7.838   8.974
23297SOL    HW171788   7.178   7.781   9.050
23297SOL    HW271789   7.190   7.782   8.899
23298SOL     OW71790   6.035  14.556   7.009
23298SOL    HW171791   6.066  14.590   6.925
23298SOL    HW271792   6.091  14.598   7.074
23299SOL     OW71793   3.611   5.165   9.892
23299SOL    HW171794   3.690   5.212   9.919
23299SOL    HW271795   3.641   5.075   9.878
23300SOL     OW71796  10.007   3.304  10.824
23300SOL    HW171797  10.091   3.322  10.867
23300SOL    HW271798  10.003   3.369  10.753
23301SOL     OW71799   7.176   4.285   0.583
23301SOL    HW171800   7.204   4.366   0.626
23301SOL    HW271801   7.099   4.257   0.633
23302SOL     OW71802  12.846   6.245   8.546
23302SOL    HW171803  12.838   6.317   8.484
23302SOL    HW271804  12.769   6.191   8.529
23303SOL     OW71805  14.823  11.794   6.023
23303SOL    HW171806  14.785  11.814   5.937
23303SOL    HW271807  14.842  11.880   6.060
23304SOL     OW71808  10.315  10.367   2.932
23304SOL    HW171809  10.291  10.437   2.993
23304SOL    HW271810  10.299  10.286   2.981
23305SOL     OW71811   9.856  13.688   6.568
23305SOL    HW171812   9.807  13.697   6.649
23305SOL    HW271813   9.922  13.757   6.572
23306SOL     OW71814   1.502   9.953  14.393
23306SOL    HW171815   1.507   9.920  14.483
23306SOL    HW271816   1.591   9.944  14.359
23307SOL     OW71817   7.080  11.196   7.472
23307SOL    HW171818   7.170  11.224   7.453
23307SOL    HW271819   7.042  11.180   7.385
23308SOL     OW71820  12.443   6.969   5.301
23308SOL    HW171821  12.463   6.908   5.230
23308SOL    HW271822  12.528   7.005   5.326
23309SOL     OW71823  10.372   4.943  13.353
23309SOL    HW171824  10.422   4.989  13.420
23309SOL    HW271825  10.357   5.009  13.285
23310SOL     OW71826   9.022   1.140   4.599
23310SOL    HW171827   8.966   1.194   4.544
23310SOL    HW271828   9.023   1.054   4.556
23311SOL     OW71829   9.601   4.649   2.836
23311SOL    HW171830   9.611   4.720   2.900
23311SOL    HW271831   9.507   4.648   2.815
23312SOL     OW71832   1.829   2.061   3.507
23312SOL    HW171833   1.892   2.027   3.443
23312SOL    HW271834   1.745   2.058   3.461
23313SOL     OW71835   9.807  12.817   6.631
23313SOL    HW171836   9.813  12.779   6.719
23313SOL    HW271837   9.811  12.912   6.647
23314SOL     OW71838   1.710   0.296  13.092
23314SOL    HW171839   1.640   0.278  13.155
23314SOL    HW271840   1.786   0.316  13.147
23315SOL     OW71841  14.266  10.046   9.052
23315SOL    HW171842  14.220  10.018   8.973
23315SOL    HW271843  14.242   9.981   9.118
23316SOL     OW71844   1.056   3.899   8.618
23316SOL    HW171845   1.025   3.827   8.562
23316SOL    HW271846   0.976   3.941   8.649
23317SOL     OW71847   2.759   9.397   7.351
23317SOL    HW171848   2.761   9.321   7.409
23317SOL    HW271849   2.738   9.471   7.408
23318SOL     OW71850   7.656  13.598   7.375
23318SOL    HW171851   7.699  13.670   7.331
23318SOL    HW271852   7.647  13.530   7.308
23319SOL     OW71853   9.728   1.422  11.054
23319SOL    HW171854   9.820   1.441  11.034
23319SOL    HW271855   9.703   1.490  11.117
23320SOL     OW71856   5.745  14.655   7.498
23320SOL    HW171857   5.730  14.560   7.499
23320SOL    HW271858   5.795  14.671   7.578
23321SOL     OW71859  14.181   8.663   4.636
23321SOL    HW171860  14.227   8.655   4.719
23321SOL    HW271861  14.134   8.746   4.642
23322SOL     OW71862   7.547   5.119  11.710
23322SOL    HW171863   7.490   5.067  11.652
23322SOL    HW271864   7.546   5.207  11.672
23323SOL     OW71865   0.498   6.626   8.230
23323SOL    HW171866   0.567   6.560   8.235
23323SOL    HW271867   0.425   6.581   8.188
23324SOL     OW71868   8.762   7.920   1.180
23324SOL    HW171869   8.832   7.984   1.175
23324SOL    HW271870   8.790   7.858   1.247
23325SOL     OW71871  13.927   2.547   5.968
23325SOL    HW171872  13.885   2.596   5.898
23325SOL    HW271873  13.857   2.529   6.031
23326SOL     OW71874  11.326  14.794   0.193
23326SOL    HW171875  11.283  14.852   0.256
23326SOL    HW271876  11.262  14.726   0.174
23327SOL     OW71877   7.691  10.948   7.234
23327SOL    HW171878   7.689  10.999   7.315
23327SOL    HW271879   7.697  11.013   7.164
23328SOL     OW71880   3.663   6.505   4.758
23328SOL    HW171881   3.639   6.520   4.667
23328SOL    HW271882   3.629   6.417   4.777
23329SOL     OW71883  10.673   0.699  14.525
23329SOL    HW171884  10.730   0.719  14.450
23329SOL    HW271885  10.707   0.617  14.559
23330SOL     OW71886  12.805   6.932   3.536
23330SOL    HW171887  12.819   6.838   3.542
23330SOL    HW271888  12.731   6.949   3.594
23331SOL     OW71889   4.057   7.984   0.015
23331SOL    HW171890   4.001   8.013  14.823
23331SOL    HW271891   4.009   7.912   0.057
23332SOL     OW71892  13.390  13.157  11.903
23332SOL    HW171893  13.377  13.079  11.849
23332SOL    HW271894  13.483  13.157  11.924
23333SOL     OW71895   2.616  12.973   5.179
23333SOL    HW171896   2.591  13.051   5.228
23333SOL    HW271897   2.536  12.920   5.176
23334SOL     OW71898   9.692  13.040   9.059
23334SOL    HW171899   9.755  13.023   8.989
23334SOL    HW271900   9.636  12.962   9.061
23335SOL     OW71901   0.272   1.595   6.639
23335SOL    HW171902   0.209   1.653   6.682
23335SOL    HW271903   0.314   1.649   6.572
23336SOL     OW71904   8.221  12.727  12.113
23336SOL    HW171905   8.163  12.766  12.049
23336SOL    HW271906   8.294  12.788  12.121
23337SOL     OW71907   2.653  10.191  11.702
23337SOL    HW171908   2.704  10.268  11.676
23337SOL    HW271909   2.599  10.171  11.626
23338SOL     OW71910   5.752   7.423   1.451
23338SOL    HW171911   5.832   7.408   1.401
23338SOL    HW271912   5.707   7.493   1.404
23339SOL     OW71913  14.631   3.407   7.472
23339SOL    HW171914  14.681   3.461   7.411
23339SOL    HW271915  14.667   3.319   7.462
23340SOL     OW71916   3.406   3.199   1.921
23340SOL    HW171917   3.336   3.196   1.986
23340SOL    HW271918   3.370   3.154   1.844
23341SOL     OW71919   9.905  12.755   7.174
23341SOL    HW171920   9.836  12.715   7.227
23341SOL    HW271921   9.928  12.836   7.221
23342SOL     OW71922   1.388   0.667   9.920
23342SOL    HW171923   1.471   0.708   9.944
23342SOL    HW271924   1.413   0.585   9.877
23343SOL     OW71925   6.768   7.518   9.876
23343SOL    HW171926   6.833   7.449   9.890
23343SOL    HW271927   6.759   7.560   9.961
23344SOL     OW71928   3.072   1.728  11.559
23344SOL    HW171929   3.090   1.818  11.588
23344SOL    HW271930   3.151   1.702  11.512
23345SOL     OW71931   0.184  11.918   9.919
23345SOL    HW171932   0.214  11.871   9.840
23345SOL    HW271933   0.223  11.869   9.992
23346SOL     OW71934   9.678   5.139  11.346
23346SOL    HW171935   9.690   5.197  11.421
23346SOL    HW271936   9.712   5.189  11.272
23347SOL     OW71937  14.625  11.478  14.534
23347SOL    HW171938  14.667  11.563  14.544
23347SOL    HW271939  14.617  11.466  14.439
23348SOL     OW71940  12.981   7.498  11.540
23348SOL    HW171941  13.072   7.529  11.537
23348SOL    HW271942  12.931   7.566  11.494
23349SOL     OW71943   3.535   9.036  13.298
23349SOL    HW171944   3.511   8.971  13.232
23349SOL    HW271945   3.580   8.986  13.366
23350SOL     OW71946   3.446   2.019  11.955
23350SOL    HW171947   3.365   1.976  11.928
23350SOL    HW271948   3.506   2.003  11.882
23351SOL     OW71949  11.495   0.871   0.039
23351SOL    HW171950  11.421   0.876  14.858
23351SOL    HW271951  11.570   0.899  14.866
23352SOL     OW71952  12.011   1.422   4.017
23352SOL    HW171953  12.054   1.396   4.098
23352SOL    HW271954  12.003   1.341   3.967
23353SOL     OW71955   2.171   8.728   6.577
23353SOL    HW171956   2.256   8.771   6.588
23353SOL    HW271957   2.120   8.757   6.652
23354SOL     OW71958   3.659   8.135  14.051
23354SOL    HW171959   3.643   8.152  14.144
23354SOL    HW271960   3.618   8.209  14.006
23355SOL     OW71961   3.739   5.173   9.536
23355SOL    HW171962   3.724   5.105   9.601
23355SOL    HW271963   3.657   5.178   9.487
23356SOL     OW71964   2.905  10.851   3.822
23356SOL    HW171965   2.873  10.858   3.732
23356SOL    HW271966   2.983  10.907   3.825
23357SOL     OW71967  11.437   1.271   4.724
23357SOL    HW171968  11.435   1.338   4.656
23357SOL    HW271969  11.434   1.188   4.676
23358SOL     OW71970   2.699   0.136  14.841
23358SOL    HW171971   2.719   0.047  14.814
23358SOL    HW271972   2.640   0.125   0.037
23359SOL     OW71973  11.162   4.615   3.638
23359SOL    HW171974  11.157   4.523   3.613
23359SOL    HW271975  11.132   4.662   3.560
23360SOL     OW71976  12.099   5.837   4.809
23360SOL    HW171977  12.158   5.780   4.858
23360SOL    HW271978  12.035   5.867   4.874
23361SOL     OW71979   6.176   3.286   8.159
23361SOL    HW171980   6.126   3.310   8.081
23361SOL    HW271981   6.259   3.251   8.125
23362SOL     OW71982   7.334   7.363   5.352
23362SOL    HW171983   7.313   7.455   5.336
23362SOL    HW271984   7.355   7.358   5.445
23363SOL     OW71985   5.130  13.215  10.828
23363SOL    HW171986   5.217  13.178  10.843
23363SOL    HW271987   5.102  13.177  10.744
23364SOL     OW71988  12.250   8.627   9.547
23364SOL    HW171989  12.166   8.606   9.588
23364SOL    HW271990  12.228   8.650   9.457
23365SOL     OW71991  11.869   4.943   9.653
23365SOL    HW171992  11.818   5.020   9.676
23365SOL    HW271993  11.948   4.978   9.610
23366SOL     OW71994  13.124  14.847   7.213
23366SOL    HW171995  13.061  14.790   7.257
23366SOL    HW271996  13.077   0.050   7.200
23367SOL     OW71997   2.257  14.735   9.974
23367SOL    HW171998   2.181  14.770  10.022
23367SOL    HW271999   2.243  14.764   9.884
23368SOL     OW72000   9.028   6.110   5.813
23368SOL    HW172001   9.115   6.072   5.824
23368SOL    HW272002   9.037   6.170   5.739
23369SOL     OW72003   9.945  14.710   6.183
23369SOL    HW172004   9.905  14.623   6.171
23369SOL    HW272005  10.028  14.705   6.136
23370SOL     OW72006   4.784  14.325  10.032
23370SOL    HW172007   4.869  14.348   9.995
23370SOL    HW272008   4.727  14.315   9.955
23371SOL     OW72009   6.146   1.733   0.443
23371SOL    HW172010   6.224   1.784   0.420
23371SOL    HW272011   6.172   1.682   0.520
23372SOL     OW72012   9.185   0.100   9.130
23372SOL    HW172013   9.124   0.086   9.058
23372SOL    HW272014   9.133   0.088   9.209
23373SOL     OW72015   3.533  13.700   7.145
23373SOL    HW172016   3.601  13.660   7.090
23373SOL    HW272017   3.582  13.737   7.220
23374SOL     OW72018  12.101   8.542  14.717
23374SOL    HW172019  12.120   8.449  14.701
23374SOL    HW272020  12.120   8.555  14.810
23375SOL     OW72021   3.281   5.235   6.093
23375SOL    HW172022   3.297   5.288   6.014
23375SOL    HW272023   3.316   5.149   6.071
23376SOL     OW72024  10.842   8.619  11.649
23376SOL    HW172025  10.762   8.670  11.639
23376SOL    HW272026  10.895   8.641  11.572
23377SOL     OW72027   2.294   8.422   9.872
23377SOL    HW172028   2.331   8.335   9.885
23377SOL    HW272029   2.259   8.420   9.783
23378SOL     OW72030  11.866  11.159   3.351
23378SOL    HW172031  11.792  11.172   3.410
23378SOL    HW272032  11.863  11.236   3.293
23379SOL     OW72033   8.431   2.576   3.778
23379SOL    HW172034   8.375   2.576   3.855
23379SOL    HW272035   8.406   2.654   3.729
23380SOL     OW72036   5.697   7.840  10.623
23380SOL    HW172037   5.770   7.886  10.663
23380SOL    HW272038   5.713   7.747  10.642
23381SOL     OW72039   6.119  14.203   6.846
23381SOL    HW172040   6.183  14.270   6.819
23381SOL    HW272041   6.071  14.182   6.766
23382SOL     OW72042   9.742   1.396  13.400
23382SOL    HW172043   9.751   1.482  13.359
23382SOL    HW272044   9.790   1.336  13.343
23383SOL     OW72045   0.114  13.927  14.478
23383SOL    HW172046   0.090  13.985  14.550
23383SOL    HW272047   0.149  13.985  14.410
23384SOL     OW72048   6.044   3.288   1.399
23384SOL    HW172049   6.118   3.226   1.395
23384SOL    HW272050   5.997   3.274   1.317
23385SOL     OW72051   0.197   4.916   9.059
23385SOL    HW172052   0.131   4.882   8.998
23385SOL    HW272053   0.255   4.842   9.075
23386SOL     OW72054   0.739  11.728  11.922
23386SOL    HW172055   0.680  11.709  11.849
23386SOL    HW272056   0.757  11.822  11.914
23387SOL     OW72057   8.280   3.722  14.201
23387SOL    HW172058   8.254   3.796  14.147
23387SOL    HW272059   8.376   3.722  14.197
23388SOL     OW72060   6.030   9.576   7.313
23388SOL    HW172061   5.999   9.657   7.273
23388SOL    HW272062   5.964   9.511   7.289
23389SOL     OW72063  13.810  10.176   8.741
23389SOL    HW172064  13.846  10.250   8.692
23389SOL    HW272065  13.715  10.190   8.741
23390SOL     OW72066   4.298   1.349  12.954
23390SOL    HW172067   4.225   1.392  12.909
23390SOL    HW272068   4.376   1.382  12.910
23391SOL     OW72069  10.690  14.849   0.352
23391SOL    HW172070  10.626  14.862   0.282
23391SOL    HW272071  10.644  14.875   0.432
23392SOL     OW72072  10.000   8.357  12.254
23392SOL    HW172073  10.083   8.310  12.249
23392SOL    HW272074   9.947   8.320  12.184
23393SOL     OW72075   9.548  11.999  11.582
23393SOL    HW172076   9.510  11.991  11.670
23393SOL    HW272077   9.583  12.088  11.579
23394SOL     OW72078   4.189   9.644  12.675
23394SOL    HW172079   4.238   9.647  12.593
23394SOL    HW272080   4.098   9.648  12.648
23395SOL     OW72081  10.428   2.994   7.777
23395SOL    HW172082  10.486   3.041   7.718
23395SOL    HW272083  10.456   3.020   7.865
23396SOL     OW72084  12.642   1.697  12.709
23396SOL    HW172085  12.733   1.679  12.685
23396SOL    HW272086  12.611   1.760  12.643
23397SOL     OW72087   3.740   9.061   8.516
23397SOL    HW172088   3.785   8.992   8.468
23397SOL    HW272089   3.792   9.140   8.499
23398SOL     OW72090   1.228   8.607  10.775
23398SOL    HW172091   1.219   8.527  10.723
23398SOL    HW272092   1.321   8.610  10.799
23399SOL     OW72093   1.883   3.128   2.167
23399SOL    HW172094   1.925   3.172   2.093
23399SOL    HW272095   1.804   3.178   2.183
23400SOL     OW72096   0.722   0.877   3.334
23400SOL    HW172097   0.775   0.805   3.368
23400SOL    HW272098   0.654   0.890   3.401
23401SOL     OW72099  11.603  13.198   3.460
23401SOL    HW172100  11.578  13.259   3.530
23401SOL    HW272101  11.538  13.128   3.466
23402SOL     OW72102   9.649  13.037   7.727
23402SOL    HW172103   9.660  12.959   7.672
23402SOL    HW272104   9.737  13.072   7.737
23403SOL     OW72105   3.274  14.672  11.669
23403SOL    HW172106   3.303  14.604  11.608
23403SOL    HW272107   3.186  14.645  11.695
23404SOL     OW72108   3.126   8.594   4.689
23404SOL    HW172109   3.132   8.516   4.744
23404SOL    HW272110   3.184   8.658   4.731
23405SOL     OW72111   4.074   1.614   9.004
23405SOL    HW172112   3.985   1.595   8.975
23405SOL    HW272113   4.116   1.654   8.927
23406SOL     OW72114  14.722   5.041   5.935
23406SOL    HW172115  14.745   5.134   5.946
23406SOL    HW272116  14.655   5.040   5.868
23407SOL     OW72117   8.370  13.616  10.742
23407SOL    HW172118   8.389  13.690  10.685
23407SOL    HW272119   8.453  13.598  10.786
23408SOL     OW72120   2.624   4.474   0.920
23408SOL    HW172121   2.601   4.392   0.877
23408SOL    HW272122   2.710   4.458   0.958
23409SOL     OW72123   6.289  13.732   4.522
23409SOL    HW172124   6.234  13.697   4.452
23409SOL    HW272125   6.267  13.825   4.526
23410SOL     OW72126   1.869   3.868   6.374
23410SOL    HW172127   1.781   3.834   6.389
23410SOL    HW272128   1.913   3.863   6.459
23411SOL     OW72129  11.120   0.846   9.320
23411SOL    HW172130  11.180   0.916   9.294
23411SOL    HW272131  11.152   0.769   9.273
23412SOL     OW72132   2.135   1.025   2.843
23412SOL    HW172133   2.225   1.006   2.869
23412SOL    HW272134   2.086   0.946   2.865
23413SOL     OW72135   7.037  10.488  12.837
23413SOL    HW172136   6.983  10.558  12.799
23413SOL    HW272137   7.069  10.439  12.761
23414SOL     OW72138   3.470  13.987   7.708
23414SOL    HW172139   3.420  13.908   7.687
23414SOL    HW272140   3.561  13.959   7.709
23415SOL     OW72141   9.918   5.908   8.919
23415SOL    HW172142   9.991   5.885   8.977
23415SOL    HW272143   9.842   5.870   8.963
23416SOL     OW72144  12.979   9.837   4.238
23416SOL    HW172145  12.987   9.927   4.205
23416SOL    HW272146  12.900   9.839   4.292
23417SOL     OW72147  13.640   3.161  11.616
23417SOL    HW172148  13.597   3.199  11.692
23417SOL    HW272149  13.653   3.234  11.556
23418SOL     OW72150  11.472  11.975   5.576
23418SOL    HW172151  11.478  12.042   5.508
23418SOL    HW272152  11.457  12.024   5.657
23419SOL     OW72153   4.257   0.308   1.675
23419SOL    HW172154   4.183   0.368   1.674
23419SOL    HW272155   4.281   0.298   1.583
23420SOL     OW72156   8.647  12.382   3.317
23420SOL    HW172157   8.665  12.353   3.227
23420SOL    HW272158   8.711  12.451   3.333
23421SOL     OW72159   3.229   7.407  13.293
23421SOL    HW172160   3.146   7.402  13.341
23421SOL    HW272161   3.296   7.413  13.362
23422SOL     OW72162   7.075   5.185  14.585
23422SOL    HW172163   7.046   5.209  14.673
23422SOL    HW272164   7.067   5.089  14.583
23423SOL     OW72165   4.264   3.156   6.134
23423SOL    HW172166   4.202   3.086   6.112
23423SOL    HW272167   4.316   3.121   6.206
23424SOL     OW72168  14.624   1.913   5.076
23424SOL    HW172169  14.695   1.937   5.135
23424SOL    HW272170  14.633   1.972   5.002
23425SOL     OW72171  11.144  13.565   1.545
23425SOL    HW172172  11.103  13.485   1.511
23425SOL    HW272173  11.135  13.628   1.474
23426SOL     OW72174   8.340   2.739   1.398
23426SOL    HW172175   8.311   2.649   1.418
23426SOL    HW272176   8.332   2.746   1.303
23427SOL     OW72177   0.272  12.786   0.250
23427SOL    HW172178   0.337  12.850   0.222
23427SOL    HW272179   0.213  12.776   0.175
23428SOL     OW72180   6.725  11.503   3.998
23428SOL    HW172181   6.649  11.545   4.038
23428SOL    HW272182   6.691  11.423   3.958
23429SOL     OW72183   7.299   1.361   8.051
23429SOL    HW172184   7.318   1.443   8.096
23429SOL    HW272185   7.206   1.347   8.065
23430SOL     OW72186  13.091  10.658   3.859
23430SOL    HW172187  13.110  10.719   3.930
23430SOL    HW272188  13.015  10.696   3.815
23431SOL     OW72189   4.497   4.669   2.352
23431SOL    HW172190   4.549   4.703   2.280
23431SOL    HW272191   4.443   4.743   2.381
23432SOL     OW72192   3.306  11.859   2.095
23432SOL    HW172193   3.224  11.833   2.137
23432SOL    HW272194   3.366  11.874   2.167
23433SOL     OW72195  14.433  13.110   4.568
23433SOL    HW172196  14.462  13.199   4.585
23433SOL    HW272197  14.510  13.065   4.535
23434SOL     OW72198  11.634   8.075   3.126
23434SOL    HW172199  11.620   8.150   3.068
23434SOL    HW272200  11.557   8.020   3.113
23435SOL     OW72201  11.942  14.391   9.756
23435SOL    HW172202  11.853  14.371   9.728
23435SOL    HW272203  11.984  14.426   9.677
23436SOL     OW72204   7.592   4.547  10.367
23436SOL    HW172205   7.542   4.572  10.289
23436SOL    HW272206   7.626   4.630  10.401
23437SOL     OW72207   8.192   4.835   8.670
23437SOL    HW172208   8.219   4.745   8.688
23437SOL    HW272209   8.159   4.867   8.754
23438SOL     OW72210  12.231   5.326   2.938
23438SOL    HW172211  12.187   5.363   3.015
23438SOL    HW272212  12.239   5.233   2.958
23439SOL     OW72213   4.986  10.770   7.383
23439SOL    HW172214   4.975  10.859   7.351
23439SOL    HW272215   5.071  10.742   7.349
23440SOL     OW72216   7.352   4.213   4.542
23440SOL    HW172217   7.259   4.237   4.538
23440SOL    HW272218   7.352   4.118   4.536
23441SOL     OW72219   5.338   5.630   9.518
23441SOL    HW172220   5.361   5.670   9.601
23441SOL    HW272221   5.243   5.614   9.524
23442SOL     OW72222  12.930  10.524  13.721
23442SOL    HW172223  12.979  10.536  13.639
23442SOL    HW272224  12.979  10.574  13.785
23443SOL     OW72225   2.867   5.042  12.488
23443SOL    HW172226   2.813   4.968  12.461
23443SOL    HW272227   2.853   5.048  12.583
23444SOL     OW72228   7.695   7.470  13.590
23444SOL    HW172229   7.686   7.502  13.500
23444SOL    HW272230   7.665   7.542  13.644
23445SOL     OW72231   7.569   3.725   7.966
23445SOL    HW172232   7.618   3.704   8.045
23445SOL    HW272233   7.584   3.651   7.907
23446SOL     OW72234   3.902   1.539  11.228
23446SOL    HW172235   3.925   1.448  11.247
23446SOL    HW272236   3.958   1.563  11.154
23447SOL     OW72237   0.819   4.003  12.102
23447SOL    HW172238   0.814   3.961  12.188
23447SOL    HW272239   0.733   4.044  12.091
23448SOL     OW72240   9.454  12.025   6.115
23448SOL    HW172241   9.435  11.987   6.029
23448SOL    HW272242   9.550  12.033   6.117
23449SOL     OW72243  11.143  14.372  12.176
23449SOL    HW172244  11.129  14.464  12.197
23449SOL    HW272245  11.137  14.327  12.260
23450SOL     OW72246   1.759  14.837   9.186
23450SOL    HW172247   1.766  14.760   9.130
23450SOL    HW272248   1.746   0.030   9.124
23451SOL     OW72249  11.443   0.114   3.880
23451SOL    HW172250  11.472   0.098   3.969
23451SOL    HW272251  11.375   0.181   3.889
23452SOL     OW72252   1.476  11.142   9.694
23452SOL    HW172253   1.425  11.221   9.681
23452SOL    HW272254   1.550  11.151   9.633
23453SOL     OW72255  10.361   2.828   4.439
23453SOL    HW172256  10.426   2.877   4.389
23453SOL    HW272257  10.354   2.744   4.395
23454SOL     OW72258  14.054   9.160   5.273
23454SOL    HW172259  14.111   9.086   5.289
23454SOL    HW272260  14.092   9.232   5.324
23455SOL     OW72261  11.908   8.258  13.438
23455SOL    HW172262  11.883   8.183  13.383
23455SOL    HW272263  11.826   8.290  13.473
23456SOL     OW72264   9.276  12.187  10.519
23456SOL    HW172265   9.337  12.199  10.591
23456SOL    HW272266   9.193  12.164  10.561
23457SOL     OW72267   1.944   1.724   7.834
23457SOL    HW172268   2.016   1.696   7.890
23457SOL    HW272269   1.939   1.657   7.766
23458SOL     OW72270  12.766   1.517  11.485
23458SOL    HW172271  12.857   1.548  11.479
23458SOL    HW272272  12.720   1.566  11.417
23459SOL     OW72273  14.451   9.912  10.727
23459SOL    HW172274  14.428   9.824  10.697
23459SOL    HW272275  14.407   9.971  10.666
23460SOL     OW72276   5.985   6.771   4.973
23460SOL    HW172277   5.973   6.862   4.998
23460SOL    HW272278   6.003   6.774   4.879
23461SOL     OW72279   3.488   2.427   4.039
23461SOL    HW172280   3.484   2.406   4.132
23461SOL    HW272281   3.578   2.408   4.014
23462SOL     OW72282   5.164   8.989   3.047
23462SOL    HW172283   5.156   8.894   3.039
23462SOL    HW272284   5.095   9.024   2.991
23463SOL     OW72285   6.953   7.546   3.803
23463SOL    HW172286   7.018   7.477   3.815
23463SOL    HW272287   6.953   7.562   3.709
23464SOL     OW72288  12.925  13.445   3.118
23464SOL    HW172289  12.891  13.479   3.200
23464SOL    HW272290  12.856  13.461   3.054
23465SOL     OW72291  10.167   6.228   4.199
23465SOL    HW172292  10.262   6.236   4.199
23465SOL    HW272293  10.148   6.161   4.264
23466SOL     OW72294   6.524   3.414  12.630
23466SOL    HW172295   6.535   3.505  12.656
23466SOL    HW272296   6.467   3.418  12.553
23467SOL     OW72297  13.060   1.465   1.078
23467SOL    HW172298  13.030   1.396   1.137
23467SOL    HW272299  13.038   1.547   1.124
23468SOL     OW72300  14.578  12.664  12.521
23468SOL    HW172301  14.666  12.659  12.484
23468SOL    HW272302  14.581  12.740  12.580
23469SOL     OW72303  12.700   6.460  12.312
23469SOL    HW172304  12.640   6.524  12.274
23469SOL    HW272305  12.785   6.481  12.275
23470SOL     OW72306   6.362   9.076   5.426
23470SOL    HW172307   6.394   9.138   5.492
23470SOL    HW272308   6.283   9.038   5.465
23471SOL     OW72309   9.735   1.617   5.526
23471SOL    HW172310   9.784   1.610   5.608
23471SOL    HW272311   9.775   1.691   5.480
23472SOL     OW72312  14.409   0.323   9.300
23472SOL    HW172313  14.398   0.234   9.334
23472SOL    HW272314  14.329   0.339   9.249
23473SOL     OW72315  13.028   7.480  13.918
23473SOL    HW172316  13.067   7.493  13.831
23473SOL    HW272317  12.950   7.535  13.917
23474SOL     OW72318  11.645  13.722  14.637
23474SOL    HW172319  11.637  13.686  14.725
23474SOL    HW272320  11.731  13.691  14.606
23475SOL     OW72321   1.494  13.587  14.697
23475SOL    HW172322   1.451  13.670  14.718
23475SOL    HW272323   1.507  13.544  14.782
23476SOL     OW72324  14.818   9.590   8.415
23476SOL    HW172325  14.847   9.597   8.324
23476SOL    HW272326  14.794   9.679   8.439
23477SOL     OW72327   4.514   0.431   5.215
23477SOL    HW172328   4.566   0.499   5.258
23477SOL    HW272329   4.474   0.476   5.140
23478SOL     OW72330   9.915   6.028   8.414
23478SOL    HW172331   9.873   6.077   8.485
23478SOL    HW272332  10.000   6.001   8.451
23479SOL     OW72333   6.355   5.707  10.464
23479SOL    HW172334   6.260   5.701  10.472
23479SOL    HW272335   6.371   5.700  10.370
23480SOL     OW72336  11.695   4.771  10.949
23480SOL    HW172337  11.657   4.856  10.928
23480SOL    HW272338  11.760   4.789  11.017
23481SOL     OW72339   9.126   7.147  13.219
23481SOL    HW172340   9.137   7.228  13.170
23481SOL    HW272341   9.082   7.174  13.300
23482SOL     OW72342   1.677  14.837   6.008
23482SOL    HW172343   1.640  14.764   6.058
23482SOL    HW272344   1.729  14.796   5.939
23483SOL     OW72345   8.626   4.490   3.678
23483SOL    HW172346   8.690   4.424   3.706
23483SOL    HW272347   8.639   4.563   3.739
23484SOL     OW72348   0.199   8.705   0.862
23484SOL    HW172349   0.115   8.691   0.906
23484SOL    HW272350   0.194   8.651   0.783
23485SOL     OW72351   3.767  10.781   1.887
23485SOL    HW172352   3.680  10.791   1.847
23485SOL    HW272353   3.786  10.866   1.926
23486SOL     OW72354   2.595   9.356   3.735
23486SOL    HW172355   2.617   9.425   3.798
23486SOL    HW272356   2.627   9.389   3.651
23487SOL     OW72357  10.137  13.674  14.067
23487SOL    HW172358  10.166  13.604  14.125
23487SOL    HW272359  10.067  13.634  14.015
23488SOL     OW72360   1.712   1.299   4.131
23488SOL    HW172361   1.785   1.358   4.112
23488SOL    HW272362   1.700   1.305   4.226
23489SOL     OW72363   9.178   9.009   0.650
23489SOL    HW172364   9.212   9.095   0.675
23489SOL    HW272365   9.124   8.981   0.724
23490SOL     OW72366   7.222   3.902  10.459
23490SOL    HW172367   7.260   3.814  10.449
23490SOL    HW272368   7.272   3.957  10.398
23491SOL     OW72369  12.575   6.629   4.739
23491SOL    HW172370  12.508   6.566   4.712
23491SOL    HW272371  12.633   6.578   4.796
23492SOL     OW72372   1.383  11.600   2.265
23492SOL    HW172373   1.413  11.684   2.300
23492SOL    HW272374   1.291  11.614   2.243
23493SOL     OW72375   4.454  13.081   1.282
23493SOL    HW172376   4.360  13.093   1.295
23493SOL    HW272377   4.460  13.014   1.214
23494SOL     OW72378   0.651  10.188   6.255
23494SOL    HW172379   0.582  10.225   6.200
23494SOL    HW272380   0.732  10.202   6.206
23495SOL     OW72381   5.704   0.472  13.737
23495SOL    HW172382   5.613   0.500  13.728
23495SOL    HW272383   5.749   0.513  13.664
23496SOL     OW72384   7.635   3.120   1.285
23496SOL    HW172385   7.645   3.215   1.287
23496SOL    HW272386   7.554   3.106   1.235
23497SOL     OW72387   4.127  14.294   3.610
23497SOL    HW172388   4.077  14.302   3.691
23497SOL    HW272389   4.210  14.254   3.638
23498SOL     OW72390  12.958   2.171   0.221
23498SOL    HW172391  13.042   2.208   0.247
23498SOL    HW272392  12.961   2.168   0.125
23499SOL     OW72393   1.102   5.860   4.162
23499SOL    HW172394   1.117   5.943   4.207
23499SOL    HW272395   1.189   5.828   4.139
23500SOL     OW72396   1.106  12.462   9.412
23500SOL    HW172397   1.162  12.528   9.369
23500SOL    HW272398   1.051  12.429   9.341
23501SOL     OW72399   1.151  11.600  11.729
23501SOL    HW172400   1.111  11.554  11.803
23501SOL    HW272401   1.243  11.611  11.755
23502SOL     OW72402  14.821   0.794  10.164
23502SOL    HW172403  14.791   0.715  10.120
23502SOL    HW272404  14.815   0.862  10.098
23503SOL     OW72405   9.078   6.263  12.400
23503SOL    HW172406   9.002   6.251  12.457
23503SOL    HW272407   9.058   6.341  12.349
23504SOL     OW72408   3.258   0.768  11.862
23504SOL    HW172409   3.279   0.686  11.817
23504SOL    HW272410   3.338   0.820  11.857
23505SOL     OW72411   5.039  11.518  12.940
23505SOL    HW172412   5.025  11.611  12.925
23505SOL    HW272413   4.974  11.494  13.007
23506SOL     OW72414   4.573   6.123   7.954
23506SOL    HW172415   4.664   6.097   7.967
23506SOL    HW272416   4.528   6.042   7.928
23507SOL     OW72417  11.059   5.773  12.415
23507SOL    HW172418  11.134   5.728  12.376
23507SOL    HW272419  11.085   5.789  12.506
23508SOL     OW72420   8.003   9.782   7.908
23508SOL    HW172421   7.964   9.695   7.899
23508SOL    HW272422   7.956   9.836   7.845
23509SOL     OW72423  14.606   2.779  14.124
23509SOL    HW172424  14.541   2.717  14.157
23509SOL    HW272425  14.584   2.789  14.031
23510SOL     OW72426   9.635   0.179   2.303
23510SOL    HW172427   9.632   0.108   2.239
23510SOL    HW272428   9.712   0.159   2.357
23511SOL     OW72429   5.154   0.036   2.741
23511SOL    HW172430   5.094   0.110   2.730
23511SOL    HW272431   5.237   0.075   2.766
23512SOL     OW72432  11.003  14.123   3.945
23512SOL    HW172433  10.936  14.172   3.993
23512SOL    HW272434  11.011  14.041   3.994
23513SOL     OW72435  11.878   4.271   6.390
23513SOL    HW172436  11.942   4.335   6.359
23513SOL    HW272437  11.798   4.290   6.340
23514SOL     OW72438   4.317  12.144   3.524
23514SOL    HW172439   4.352  12.129   3.437
23514SOL    HW272440   4.386  12.115   3.584
23515SOL     OW72441   0.853  12.839   6.410
23515SOL    HW172442   0.930  12.808   6.458
23515SOL    HW272443   0.889  12.883   6.333
23516SOL     OW72444   3.889   2.209   6.231
23516SOL    HW172445   3.893   2.147   6.158
23516SOL    HW272446   3.825   2.170   6.292
23517SOL     OW72447  12.637   2.064   7.130
23517SOL    HW172448  12.604   2.056   7.219
23517SOL    HW272449  12.582   2.131   7.089
23518SOL     OW72450   7.107  11.909  10.044
23518SOL    HW172451   7.040  11.971  10.071
23518SOL    HW272452   7.119  11.852  10.121
23519SOL     OW72453  14.132   9.446   1.795
23519SOL    HW172454  14.223   9.464   1.775
23519SOL    HW272455  14.083   9.485   1.723
23520SOL     OW72456  12.617   6.798   6.385
23520SOL    HW172457  12.614   6.704   6.406
23520SOL    HW272458  12.559   6.839   6.449
23521SOL     OW72459   6.573   1.610   5.440
23521SOL    HW172460   6.535   1.529   5.474
23521SOL    HW272461   6.552   1.610   5.347
23522SOL     OW72462   3.944  13.080   6.509
23522SOL    HW172463   3.876  13.029   6.465
23522SOL    HW272464   3.916  13.084   6.600
23523SOL     OW72465  12.863   6.679   7.871
23523SOL    HW172466  12.889   6.684   7.963
23523SOL    HW272467  12.875   6.768   7.838
23524SOL     OW72468   3.349   4.589   3.332
23524SOL    HW172469   3.340   4.644   3.410
23524SOL    HW272470   3.354   4.651   3.259
23525SOL     OW72471  13.591   0.391  11.793
23525SOL    HW172472  13.622   0.342  11.717
23525SOL    HW272473  13.495   0.391  11.784
23526SOL     OW72474   1.540   7.633  10.457
23526SOL    HW172475   1.529   7.697  10.387
23526SOL    HW272476   1.608   7.670  10.513
23527SOL     OW72477   6.718   7.360  12.105
23527SOL    HW172478   6.714   7.436  12.047
23527SOL    HW272479   6.763   7.293  12.053
23528SOL     OW72480  13.822   1.796   2.514
23528SOL    HW172481  13.903   1.848   2.513
23528SOL    HW272482  13.754   1.856   2.484
23529SOL     OW72483  10.263   4.207  14.485
23529SOL    HW172484  10.327   4.149  14.445
23529SOL    HW272485  10.315   4.270  14.535
23530SOL     OW72486  14.211   9.877  13.916
23530SOL    HW172487  14.129   9.827  13.910
23530SOL    HW272488  14.214   9.928  13.835
23531SOL     OW72489   7.409  10.090  10.165
23531SOL    HW172490   7.457  10.144  10.228
23531SOL    HW272491   7.440  10.001  10.182
23532SOL     OW72492  10.023  12.765   4.229
23532SOL    HW172493  10.012  12.734   4.139
23532SOL    HW272494  10.107  12.728   4.257
23533SOL     OW72495   1.771   7.730   9.494
23533SOL    HW172496   1.746   7.704   9.582
23533SOL    HW272497   1.777   7.648   9.445
23534SOL     OW72498   9.375  14.710   6.771
23534SOL    HW172499   9.308  14.694   6.704
23534SOL    HW272500   9.327  14.753   6.842
23535SOL     OW72501   7.651  10.824  10.478
23535SOL    HW172502   7.693  10.777  10.551
23535SOL    HW272503   7.578  10.767  10.452
23536SOL     OW72504   9.323   9.633   4.380
23536SOL    HW172505   9.296   9.559   4.326
23536SOL    HW272506   9.263   9.632   4.454
23537SOL     OW72507   0.337   9.468  14.479
23537SOL    HW172508   0.329   9.549  14.428
23537SOL    HW272509   0.368   9.497  14.565
23538SOL     OW72510   9.280  10.290  12.019
23538SOL    HW172511   9.276  10.212  11.964
23538SOL    HW272512   9.191  10.326  12.016
23539SOL     OW72513   4.462   1.164   6.730
23539SOL    HW172514   4.495   1.079   6.700
23539SOL    HW272515   4.436   1.148   6.821
23540SOL     OW72516  11.086   2.977  12.016
23540SOL    HW172517  11.114   3.001  11.928
23540SOL    HW272518  10.993   2.999  12.018
23541SOL     OW72519  14.442  13.719   1.695
23541SOL    HW172520  14.534  13.718   1.671
23541SOL    HW272521  14.413  13.808   1.674
23542SOL     OW72522   1.942   1.432   6.089
23542SOL    HW172523   1.865   1.468   6.044
23542SOL    HW272524   1.917   1.430   6.181
23543SOL     OW72525   6.011  10.148  14.877
23543SOL    HW172526   6.006  10.061   0.036
23543SOL    HW272527   5.962  10.141  14.795
23544SOL     OW72528  11.211   7.758   6.937
23544SOL    HW172529  11.201   7.781   7.029
23544SOL    HW272530  11.206   7.842   6.891
23545SOL     OW72531  13.195  14.798   5.730
23545SOL    HW172532  13.149  14.737   5.788
23545SOL    HW272533  13.262  14.745   5.687
23546SOL     OW72534  13.607   6.610  12.761
23546SOL    HW172535  13.554   6.533  12.780
23546SOL    HW272536  13.697   6.580  12.768
23547SOL     OW72537   9.619  10.176  12.303
23547SOL    HW172538   9.699  10.224  12.321
23547SOL    HW272539   9.557  10.243  12.275
23548SOL     OW72540   8.261   3.483   7.151
23548SOL    HW172541   8.346   3.464   7.112
23548SOL    HW272542   8.278   3.553   7.214
23549SOL     OW72543   6.656   3.094   6.604
23549SOL    HW172544   6.682   3.186   6.606
23549SOL    HW272545   6.607   3.081   6.685
23550SOL     OW72546   4.296  14.550   4.800
23550SOL    HW172547   4.324  14.641   4.791
23550SOL    HW272548   4.367  14.508   4.849
23551SOL     OW72549   1.402   4.914   9.828
23551SOL    HW172550   1.315   4.940   9.857
23551SOL    HW272551   1.401   4.925   9.733
23552SOL     OW72552   0.355   5.362   7.663
23552SOL    HW172553   0.379   5.382   7.572
23552SOL    HW272554   0.297   5.433   7.689
23553SOL     OW72555  14.132  10.032   0.752
23553SOL    HW172556  14.150   9.939   0.767
23553SOL    HW272557  14.197  10.059   0.687
23554SOL     OW72558  11.879   2.199   6.110
23554SOL    HW172559  11.827   2.186   6.189
23554SOL    HW272560  11.962   2.153   6.128
23555SOL     OW72561   7.439  14.288  11.101
23555SOL    HW172562   7.517  14.232  11.100
23555SOL    HW272563   7.451  14.344  11.178
23556SOL     OW72564  14.144   3.244  10.760
23556SOL    HW172565  14.055   3.257  10.729
23556SOL    HW272566  14.174   3.163  10.717
23557SOL     OW72567  11.415   4.401  12.257
23557SOL    HW172568  11.359   4.424  12.182
23557SOL    HW272569  11.503   4.393  12.220
23558SOL     OW72570   1.705   7.292   4.990
23558SOL    HW172571   1.761   7.369   4.986
23558SOL    HW272572   1.730   7.247   5.071
23559SOL     OW72573   6.654  14.753   2.948
23559SOL    HW172574   6.563  14.729   2.969
23559SOL    HW272575   6.697  14.669   2.931
23560SOL     OW72576   3.713   7.498  11.974
23560SOL    HW172577   3.739   7.529  12.061
23560SOL    HW272578   3.625   7.535  11.962
23561SOL     OW72579   3.444  10.119  11.255
23561SOL    HW172580   3.472  10.110  11.346
23561SOL    HW272581   3.524  10.142  11.208
23562SOL     OW72582  14.834   6.413  10.908
23562SOL    HW172583   0.008   6.492  10.910
23562SOL    HW272584  14.795   6.412  10.821
23563SOL     OW72585  12.968   2.995   3.313
23563SOL    HW172586  13.020   3.072   3.337
23563SOL    HW272587  13.010   2.962   3.233
23564SOL     OW72588   3.697   7.503   5.039
23564SOL    HW172589   3.704   7.526   4.946
23564SOL    HW272590   3.687   7.407   5.039
23565SOL     OW72591  13.029   6.734   6.428
23565SOL    HW172592  12.962   6.668   6.412
23565SOL    HW272593  13.014   6.800   6.360
23566SOL     OW72594  14.753   4.104   0.970
23566SOL    HW172595  14.831   4.090   1.024
23566SOL    HW272596  14.691   4.038   1.002
23567SOL     OW72597   4.855   9.327  13.717
23567SOL    HW172598   4.932   9.376  13.744
23567SOL    HW272599   4.854   9.250  13.774
23568SOL     OW72600  11.672   9.466   1.400
23568SOL    HW172601  11.581   9.494   1.402
23568SOL    HW272602  11.671   9.382   1.354
23569SOL     OW72603   7.502  14.817   6.192
23569SOL    HW172604   7.471   0.028   6.184
23569SOL    HW272605   7.596  14.825   6.202
23570SOL     OW72606   3.926   0.384   1.941
23570SOL    HW172607   3.849   0.388   1.884
23570SOL    HW272608   3.895   0.418   2.025
23571SOL     OW72609   8.229   0.878   7.613
23571SOL    HW172610   8.311   0.864   7.661
23571SOL    HW272611   8.175   0.803   7.636
23572SOL     OW72612   9.837   3.905  14.507
23572SOL    HW172613   9.882   3.821  14.509
23572SOL    HW272614   9.792   3.910  14.592
23573SOL     OW72615   3.398   2.786   8.217
23573SOL    HW172616   3.336   2.751   8.280
23573SOL    HW272617   3.484   2.761   8.251
23574SOL     OW72618   1.380   1.254   3.705
23574SOL    HW172619   1.361   1.161   3.719
23574SOL    HW272620   1.356   1.270   3.614
23575SOL     OW72621   0.899   7.775  13.364
23575SOL    HW172622   0.945   7.703  13.408
23575SOL    HW272623   0.939   7.854  13.398
23576SOL     OW72624  10.317   2.197   3.096
23576SOL    HW172625  10.342   2.188   3.003
23576SOL    HW272626  10.223   2.215   3.094
23577SOL     OW72627   3.139   0.876   9.402
23577SOL    HW172628   3.076   0.912   9.465
23577SOL    HW272629   3.223   0.911   9.430
23578SOL     OW72630  13.953   4.977   6.475
23578SOL    HW172631  13.872   4.988   6.523
23578SOL    HW272632  13.963   4.882   6.466
23579SOL     OW72633  11.310   5.232   5.794
23579SOL    HW172634  11.266   5.260   5.714
23579SOL    HW272635  11.394   5.278   5.792
23580SOL     OW72636  13.424   0.299   2.544
23580SOL    HW172637  13.398   0.391   2.552
23580SOL    HW272638  13.356   0.250   2.591
23581SOL     OW72639  10.999  12.512   2.660
23581SOL    HW172640  10.991  12.563   2.579
23581SOL    HW272641  11.082  12.466   2.651
23582SOL     OW72642   9.409  10.730   0.215
23582SOL    HW172643   9.380  10.820   0.197
23582SOL    HW272644   9.337  10.675   0.185
23583SOL     OW72645  10.197  14.312   2.144
23583SOL    HW172646  10.164  14.285   2.058
23583SOL    HW272647  10.129  14.286   2.206
23584SOL     OW72648   0.706   0.985   4.824
23584SOL    HW172649   0.630   1.019   4.871
23584SOL    HW272650   0.685   0.893   4.807
23585SOL     OW72651   4.634   3.660  10.583
23585SOL    HW172652   4.565   3.725  10.575
23585SOL    HW272653   4.702   3.690  10.522
23586SOL     OW72654   8.265   5.950   1.682
23586SOL    HW172655   8.320   5.987   1.751
23586SOL    HW272656   8.245   6.024   1.624
23587SOL     OW72657   8.173   0.824   1.981
23587SOL    HW172658   8.084   0.842   2.010
23587SOL    HW272659   8.229   0.861   2.050
23588SOL     OW72660   5.746   2.388   7.713
23588SOL    HW172661   5.736   2.482   7.726
23588SOL    HW272662   5.716   2.349   7.796
23589SOL     OW72663  13.260   1.568   2.318
23589SOL    HW172664  13.182   1.520   2.289
23589SOL    HW272665  13.257   1.562   2.413
23590SOL     OW72666  12.499   4.681   6.604
23590SOL    HW172667  12.474   4.764   6.646
23590SOL    HW272668  12.470   4.690   6.514
23591SOL     OW72669  14.772   6.044   7.037
23591SOL    HW172670  14.745   5.952   7.044
23591SOL    HW272671  14.846   6.052   7.097
23592SOL     OW72672   0.383  11.562   0.114
23592SOL    HW172673   0.393  11.647   0.156
23592SOL    HW272674   0.467  11.547   0.070
23593SOL     OW72675   4.079   8.842   8.071
23593SOL    HW172676   4.073   8.777   8.001
23593SOL    HW272677   3.999   8.894   8.061
23594SOL     OW72678   1.195   9.159   0.160
23594SOL    HW172679   1.231   9.112   0.234
23594SOL    HW272680   1.228   9.248   0.169
23595SOL     OW72681   0.006   9.084   4.146
23595SOL    HW172682  14.854   9.165   4.187
23595SOL    HW272683   0.096   9.105   4.119
23596SOL     OW72684  12.694  12.118   3.939
23596SOL    HW172685  12.778  12.163   3.926
23596SOL    HW272686  12.630  12.175   3.896
23597SOL     OW72687   9.977  11.416   2.113
23597SOL    HW172688   9.918  11.491   2.119
23597SOL    HW272689  10.017  11.410   2.199
23598SOL     OW72690   1.853  14.179  11.222
23598SOL    HW172691   1.778  14.212  11.174
23598SOL    HW272692   1.923  14.173  11.157
23599SOL     OW72693  10.807   4.110   3.192
23599SOL    HW172694  10.858   4.189   3.176
23599SOL    HW272695  10.864   4.055   3.246
23600SOL     OW72696   1.452   0.309   2.824
23600SOL    HW172697   1.431   0.256   2.901
23600SOL    HW272698   1.544   0.291   2.807
23601SOL     OW72699   5.473  10.977   0.002
23601SOL    HW172700   5.407  10.944   0.063
23601SOL    HW272701   5.509  10.898  14.841
23602SOL     OW72702  14.686   1.616   8.698
23602SOL    HW172703  14.691   1.697   8.748
23602SOL    HW272704  14.694   1.546   8.763
23603SOL     OW72705  10.158  12.113   2.395
23603SOL    HW172706  10.201  12.158   2.468
23603SOL    HW272707  10.070  12.095   2.426
23604SOL     OW72708  10.283  10.470   6.910
23604SOL    HW172709  10.222  10.535   6.943
23604SOL    HW272710  10.299  10.496   6.819
23605SOL     OW72711   8.901  13.668   5.142
23605SOL    HW172712   8.962  13.669   5.216
23605SOL    HW272713   8.950  13.627   5.071
23606SOL     OW72714   7.578  10.614   8.459
23606SOL    HW172715   7.621  10.586   8.379
23606SOL    HW272716   7.545  10.533   8.499
23607SOL     OW72717   0.587   5.913   4.206
23607SOL    HW172718   0.650   5.855   4.163
23607SOL    HW272719   0.565   5.979   4.140
23608SOL     OW72720  11.898  12.795  13.741
23608SOL    HW172721  11.913  12.880  13.700
23608SOL    HW272722  11.931  12.731  13.678
23609SOL     OW72723   0.370   3.258   4.457
23609SOL    HW172724   0.425   3.184   4.484
23609SOL    HW272725   0.379   3.260   4.362
23610SOL     OW72726  10.382   1.320   0.917
23610SOL    HW172727  10.429   1.259   0.975
23610SOL    HW272728  10.451   1.360   0.863
23611SOL     OW72729   0.968   4.688   4.886
23611SOL    HW172730   0.892   4.665   4.832
23611SOL    HW272731   0.952   4.645   4.970
23612SOL     OW72732   4.629  11.550   6.229
23612SOL    HW172733   4.631  11.457   6.209
23612SOL    HW272734   4.721  11.577   6.226
23613SOL     OW72735   7.734   2.263  14.643
23613SOL    HW172736   7.707   2.189  14.589
23613SOL    HW272737   7.717   2.340  14.588
23614SOL     OW72738   1.257   4.586  12.341
23614SOL    HW172739   1.163   4.603  12.354
23614SOL    HW272740   1.301   4.649  12.398
23615SOL     OW72741   0.253  13.808   4.600
23615SOL    HW172742   0.158  13.811   4.611
23615SOL    HW272743   0.285  13.776   4.685
23616SOL     OW72744   9.023  13.038  13.318
23616SOL    HW172745   8.944  13.031  13.264
23616SOL    HW272746   9.065  12.952  13.311
23617SOL     OW72747  10.553   5.475   1.150
23617SOL    HW172748  10.593   5.514   1.073
23617SOL    HW272749  10.468   5.443   1.120
23618SOL     OW72750   9.557   2.384  13.870
23618SOL    HW172751   9.565   2.403  13.776
23618SOL    HW272752   9.591   2.295  13.880
23619SOL     OW72753   6.489  12.100  12.236
23619SOL    HW172754   6.424  12.105  12.306
23619SOL    HW272755   6.568  12.067  12.279
23620SOL     OW72756  13.582   4.807   4.943
23620SOL    HW172757  13.513   4.872   4.958
23620SOL    HW272758  13.633   4.842   4.870
23621SOL     OW72759  13.052   2.460   7.167
23621SOL    HW172760  13.081   2.402   7.237
23621SOL    HW272761  13.078   2.416   7.086
23622SOL     OW72762   8.469   9.926   4.114
23622SOL    HW172763   8.412   9.875   4.172
23622SOL    HW272764   8.524   9.977   4.174
23623SOL     OW72765  11.063   4.865   9.015
23623SOL    HW172766  11.041   4.932   8.950
23623SOL    HW272767  10.991   4.868   9.078
23624SOL     OW72768  10.374   6.523   2.404
23624SOL    HW172769  10.382   6.432   2.430
23624SOL    HW272770  10.405   6.526   2.313
23625SOL     OW72771  12.292   1.110   2.085
23625SOL    HW172772  12.205   1.083   2.117
23625SOL    HW272773  12.303   1.059   2.005
23626SOL     OW72774   5.049   7.297  10.575
23626SOL    HW172775   5.090   7.352  10.642
23626SOL    HW272776   5.060   7.346  10.494
23627SOL     OW72777   1.802  11.768   3.287
23627SOL    HW172778   1.815  11.676   3.265
23627SOL    HW272779   1.781  11.810   3.203
23628SOL     OW72780  11.393  14.314   5.843
23628SOL    HW172781  11.366  14.283   5.930
23628SOL    HW272782  11.340  14.393   5.829
23629SOL     OW72783  11.518   2.203  11.728
23629SOL    HW172784  11.458   2.152  11.782
23629SOL    HW272785  11.604   2.190  11.768
23630SOL     OW72786  12.755   8.592  14.799
23630SOL    HW172787  12.739   8.561  14.710
23630SOL    HW272788  12.832   8.543  14.828
23631SOL     OW72789   5.218   0.645   9.985
23631SOL    HW172790   5.124   0.637   9.966
23631SOL    HW272791   5.251   0.555   9.982
23632SOL     OW72792   9.931   4.214   9.696
23632SOL    HW172793   9.954   4.231   9.788
23632SOL    HW272794   9.907   4.121   9.695
23633SOL     OW72795   0.491   5.109  12.524
23633SOL    HW172796   0.576   5.122  12.482
23633SOL    HW272797   0.467   5.196  12.557
23634SOL     OW72798   9.597   5.614   8.050
23634SOL    HW172799   9.676   5.659   8.079
23634SOL    HW272800   9.629   5.535   8.007
23635SOL     OW72801  12.809   0.919   2.628
23635SOL    HW172802  12.756   0.938   2.706
23635SOL    HW272803  12.763   0.962   2.556
23636SOL     OW72804   6.632   5.673   2.566
23636SOL    HW172805   6.571   5.620   2.515
23636SOL    HW272806   6.716   5.665   2.519
23637SOL     OW72807   3.490   5.036   6.827
23637SOL    HW172808   3.420   5.015   6.889
23637SOL    HW272809   3.541   5.104   6.871
23638SOL     OW72810   2.759   6.628  12.880
23638SOL    HW172811   2.795   6.547  12.916
23638SOL    HW272812   2.665   6.611  12.873
23639SOL     OW72813   3.962   3.597   8.919
23639SOL    HW172814   3.873   3.565   8.934
23639SOL    HW272815   3.951   3.667   8.855
23640SOL     OW72816  11.131   2.559   2.857
23640SOL    HW172817  11.138   2.580   2.764
23640SOL    HW272818  11.124   2.464   2.859
23641SOL     OW72819  13.036   7.971   1.542
23641SOL    HW172820  13.015   8.049   1.593
23641SOL    HW272821  13.021   7.898   1.602
23642SOL     OW72822   1.659   4.634  11.497
23642SOL    HW172823   1.717   4.705  11.469
23642SOL    HW272824   1.628   4.595  11.415
23643SOL     OW72825  13.680  10.601   1.719
23643SOL    HW172826  13.661  10.642   1.803
23643SOL    HW272827  13.751  10.539   1.738
23644SOL     OW72828  11.977   6.017   3.002
23644SOL    HW172829  11.899   5.995   2.951
23644SOL    HW272830  12.013   6.095   2.959
23645SOL     OW72831  13.744   2.777  14.405
23645SOL    HW172832  13.747   2.831  14.484
23645SOL    HW272833  13.835   2.748  14.392
23646SOL     OW72834   5.652   2.259  13.176
23646SOL    HW172835   5.720   2.327  13.172
23646SOL    HW272836   5.610   2.272  13.261
23647SOL     OW72837  11.855   2.271  14.138
23647SOL    HW172838  11.779   2.317  14.175
23647SOL    HW272839  11.904   2.241  14.214
23648SOL     OW72840   9.839   3.271   8.229
23648SOL    HW172841   9.929   3.265   8.262
23648SOL    HW272842   9.785   3.239   8.302
23649SOL     OW72843   5.220   8.915   1.882
23649SOL    HW172844   5.150   8.896   1.944
23649SOL    HW272845   5.183   8.894   1.796
23650SOL     OW72846   0.395   3.167  13.279
23650SOL    HW172847   0.341   3.220  13.220
23650SOL    HW272848   0.479   3.213  13.284
23651SOL     OW72849   9.488   4.265  11.510
23651SOL    HW172850   9.438   4.347  11.506
23651SOL    HW272851   9.500   4.250  11.604
23652SOL     OW72852   5.007  11.853   0.224
23652SOL    HW172853   5.033  11.884   0.311
23652SOL    HW272854   4.964  11.769   0.240
23653SOL     OW72855   2.216   2.939   3.710
23653SOL    HW172856   2.169   2.999   3.767
23653SOL    HW272857   2.300   2.983   3.693
23654SOL     OW72858  12.304   2.921   0.242
23654SOL    HW172859  12.225   2.867   0.234
23654SOL    HW272860  12.345   2.890   0.323
23655SOL     OW72861  10.154  11.948   8.802
23655SOL    HW172862  10.164  11.856   8.779
23655SOL    HW272863  10.233  11.969   8.852
23656SOL     OW72864   9.027   2.178   2.896
23656SOL    HW172865   9.044   2.108   2.833
23656SOL    HW272866   9.099   2.172   2.959
23657SOL     OW72867  10.831   0.563  14.320
23657SOL    HW172868  10.848   0.557  14.226
23657SOL    HW272869  10.806   0.474  14.345
23658SOL     OW72870   1.549  12.907   0.062
23658SOL    HW172871   1.532  12.944   0.148
23658SOL    HW272872   1.508  12.967   0.001
23659SOL     OW72873   2.428  11.594   7.273
23659SOL    HW172874   2.501  11.539   7.300
23659SOL    HW272875   2.353  11.535   7.272
23660SOL     OW72876  10.691  13.048   8.596
23660SOL    HW172877  10.725  13.088   8.517
23660SOL    HW272878  10.769  13.019   8.644
23661SOL     OW72879   4.357   1.720  14.633
23661SOL    HW172880   4.278   1.748  14.679
23661SOL    HW272881   4.364   1.627  14.650
23662SOL     OW72882  10.612  12.272   9.432
23662SOL    HW172883  10.526  12.230   9.422
23662SOL    HW272884  10.632  12.265   9.525
23663SOL     OW72885   7.678  13.681   8.921
23663SOL    HW172886   7.593  13.715   8.894
23663SOL    HW272887   7.739  13.714   8.855
23664SOL     OW72888  13.014   7.801  11.015
23664SOL    HW172889  12.990   7.821  11.105
23664SOL    HW272890  13.037   7.885  10.976
23665SOL     OW72891   5.809   8.926   2.242
23665SOL    HW172892   5.761   8.844   2.242
23665SOL    HW272893   5.840   8.936   2.152
23666SOL     OW72894   3.863  10.619  10.441
23666SOL    HW172895   3.871  10.638  10.347
23666SOL    HW272896   3.953  10.604  10.470
23667SOL     OW72897   4.028   8.536   4.495
23667SOL    HW172898   4.036   8.543   4.590
23667SOL    HW272899   3.954   8.476   4.482
23668SOL     OW72900   7.909   5.922  11.361
23668SOL    HW172901   7.966   5.974  11.304
23668SOL    HW272902   7.949   5.930  11.448
23669SOL     OW72903   4.168   5.996   0.824
23669SOL    HW172904   4.084   6.012   0.866
23669SOL    HW272905   4.230   5.990   0.897
23670SOL     OW72906  10.334   8.537   7.455
23670SOL    HW172907  10.400   8.606   7.460
23670SOL    HW272908  10.384   8.456   7.445
23671SOL     OW72909  14.077   6.328  12.280
23671SOL    HW172910  14.050   6.419  12.273
23671SOL    HW272911  14.142   6.317  12.210
23672SOL     OW72912   6.462   8.910   6.995
23672SOL    HW172913   6.552   8.888   7.017
23672SOL    HW272914   6.410   8.861   7.058
23673SOL     OW72915   5.141   1.735  11.472
23673SOL    HW172916   5.101   1.649  11.488
23673SOL    HW272917   5.180   1.727  11.385
23674SOL     OW72918  12.959   2.654   4.615
23674SOL    HW172919  12.936   2.708   4.691
23674SOL    HW272920  13.050   2.628   4.631
23675SOL     OW72921  14.573   8.477   3.144
23675SOL    HW172922  14.554   8.471   3.237
23675SOL    HW272923  14.489   8.494   3.102
23676SOL     OW72924   5.029   1.186   0.582
23676SOL    HW172925   4.970   1.261   0.578
23676SOL    HW272926   5.030   1.160   0.674
23677SOL     OW72927   2.083  14.502   9.701
23677SOL    HW172928   2.051  14.448   9.628
23677SOL    HW272929   2.177  14.485   9.703
23678SOL     OW72930   8.562   3.548   9.177
23678SOL    HW172931   8.618   3.610   9.130
23678SOL    HW272932   8.514   3.602   9.241
23679SOL     OW72933   5.747  14.683   2.730
23679SOL    HW172934   5.714  14.692   2.820
23679SOL    HW272935   5.708  14.757   2.683
23680SOL     OW72936  12.725   8.697   2.209
23680SOL    HW172937  12.667   8.741   2.147
23680SOL    HW272938  12.673   8.690   2.290
23681SOL     OW72939   2.276   3.163   0.889
23681SOL    HW172940   2.343   3.107   0.927
23681SOL    HW272941   2.321   3.245   0.869
23682SOL     OW72942   3.513   9.733   6.523
23682SOL    HW172943   3.501   9.825   6.501
23682SOL    HW272944   3.584   9.733   6.587
23683SOL     OW72945   5.831  10.779   6.217
23683SOL    HW172946   5.916  10.745   6.190
23683SOL    HW272947   5.839  10.874   6.207
23684SOL     OW72948  11.137   8.848   8.233
23684SOL    HW172949  11.051   8.885   8.216
23684SOL    HW272950  11.128   8.755   8.210
23685SOL     OW72951  10.651  10.336  14.854
23685SOL    HW172952  10.693  10.253  14.874
23685SOL    HW272953  10.557  10.317  14.859
23686SOL     OW72954   6.792   8.054  14.070
23686SOL    HW172955   6.755   8.099  13.994
23686SOL    HW272956   6.833   7.976  14.034
23687SOL     OW72957   7.571   1.030  13.133
23687SOL    HW172958   7.484   1.035  13.092
23687SOL    HW272959   7.552   1.015  13.226
23688SOL     OW72960   6.229   5.019  13.027
23688SOL    HW172961   6.153   5.030  13.084
23688SOL    HW272962   6.192   5.014  12.939
23689SOL     OW72963   3.123  13.289   3.195
23689SOL    HW172964   3.063  13.215   3.186
23689SOL    HW272965   3.069  13.361   3.228
23690SOL     OW72966   4.641   1.981   5.311
23690SOL    HW172967   4.620   2.074   5.314
23690SOL    HW272968   4.662   1.963   5.219
23691SOL     OW72969   0.519  10.951   7.734
23691SOL    HW172970   0.434  10.921   7.705
23691SOL    HW272971   0.541  10.894   7.808
23692SOL     OW72972   6.743  13.190  12.556
23692SOL    HW172973   6.671  13.168  12.497
23692SOL    HW272974   6.754  13.285  12.545
23693SOL     OW72975  12.915  12.291   3.679
23693SOL    HW172976  12.935  12.381   3.654
23693SOL    HW272977  12.995  12.242   3.656
23694SOL     OW72978  14.115   0.151   1.902
23694SOL    HW172979  14.137   0.173   1.811
23694SOL    HW272980  14.041   0.208   1.924
23695SOL     OW72981   7.589  13.075  14.091
23695SOL    HW172982   7.552  12.987  14.091
23695SOL    HW272983   7.613  13.091  14.182
23696SOL     OW72984   0.167   5.819   1.252
23696SOL    HW172985   0.234   5.826   1.184
23696SOL    HW272986   0.158   5.725   1.267
23697SOL     OW72987   3.592  11.932   7.169
23697SOL    HW172988   3.517  11.917   7.227
23697SOL    HW272989   3.576  12.020   7.132
23698SOL     OW72990  11.639   8.705   2.277
23698SOL    HW172991  11.656   8.663   2.192
23698SOL    HW272992  11.605   8.791   2.254
23699SOL     OW72993   2.799   4.131  11.130
23699SOL    HW172994   2.856   4.064  11.167
23699SOL    HW272995   2.785   4.192  11.202
23700SOL     OW72996  13.391  12.794   1.926
23700SOL    HW172997  13.453  12.735   1.884
23700SOL    HW272998  13.411  12.789   2.019
23701SOL     OW72999  10.071   9.942   1.329
23701SOL    HW173000   9.980   9.950   1.301
23701SOL    HW273001  10.072   9.861   1.381
23702SOL     OW73002   2.273   0.100  14.720
23702SOL    HW173003   2.285   0.168  14.786
23702SOL    HW273004   2.282   0.146  14.636
23703SOL     OW73005   8.736   8.024  12.496
23703SOL    HW173006   8.739   8.100  12.438
23703SOL    HW273007   8.739   8.061  12.584
23704SOL     OW73008   4.679   4.983   9.416
23704SOL    HW173009   4.728   5.004   9.337
23704SOL    HW273010   4.616   5.055   9.426
23705SOL     OW73011   8.479   9.724   9.820
23705SOL    HW173012   8.539   9.747   9.891
23705SOL    HW273013   8.505   9.636   9.793
23706SOL     OW73014   1.330   1.005  13.232
23706SOL    HW173015   1.277   0.934  13.269
23706SOL    HW273016   1.362   1.053  13.309
23707SOL     OW73017  13.508  10.744   3.457
23707SOL    HW173018  13.561  10.797   3.517
23707SOL    HW273019  13.436  10.712   3.510
23708SOL     OW73020   8.415   1.194   9.641
23708SOL    HW173021   8.509   1.176   9.634
23708SOL    HW273022   8.373   1.118   9.599
23709SOL     OW73023   8.547   7.248   9.837
23709SOL    HW173024   8.631   7.291   9.818
23709SOL    HW273025   8.562   7.202   9.920
23710SOL     OW73026   1.326  10.687   2.513
23710SOL    HW173027   1.280  10.768   2.535
23710SOL    HW273028   1.260  10.631   2.473
23711SOL     OW73029   6.816   5.138   9.260
23711SOL    HW173030   6.725   5.111   9.274
23711SOL    HW273031   6.860   5.116   9.342
23712SOL     OW73032   6.411   5.578   4.256
23712SOL    HW173033   6.447   5.498   4.294
23712SOL    HW273034   6.403   5.560   4.163
23713SOL     OW73035   3.230  12.887   0.733
23713SOL    HW173036   3.295  12.841   0.786
23713SOL    HW273037   3.245  12.980   0.752
23714SOL     OW73038  13.325  11.757   2.533
23714SOL    HW173039  13.369  11.706   2.465
23714SOL    HW273040  13.241  11.782   2.494
23715SOL     OW73041   6.495  11.582   7.582
23715SOL    HW173042   6.447  11.545   7.508
23715SOL    HW273043   6.557  11.513   7.607
23716SOL     OW73044   0.138  11.212   6.306
23716SOL    HW173045   0.098  11.125   6.303
23716SOL    HW273046   0.117  11.245   6.393
23717SOL     OW73047   4.890  12.602   0.189
23717SOL    HW173048   4.963  12.664   0.182
23717SOL    HW273049   4.895  12.570   0.279
23718SOL     OW73050  12.629   1.325   6.347
23718SOL    HW173051  12.546   1.357   6.313
23718SOL    HW273052  12.655   1.390   6.413
23719SOL     OW73053   6.542   2.493   6.180
23719SOL    HW173054   6.581   2.408   6.200
23719SOL    HW273055   6.591   2.556   6.232
23720SOL     OW73056   0.011   4.369   2.391
23720SOL    HW173057  14.872   4.447   2.443
23720SOL    HW273058  14.805   4.330   2.373
23721SOL     OW73059   2.529  14.750   3.608
23721SOL    HW173060   2.549  14.767   3.700
23721SOL    HW273061   2.607  14.705   3.574
23722SOL     OW73062   3.921  10.518   8.994
23722SOL    HW173063   3.832  10.544   8.971
23722SOL    HW273064   3.911  10.428   9.026
23723SOL     OW73065   0.199   4.692   7.421
23723SOL    HW173066   0.188   4.659   7.331
23723SOL    HW273067   0.274   4.750   7.416
23724SOL     OW73068  11.808  12.643  12.642
23724SOL    HW173069  11.718  12.609  12.650
23724SOL    HW273070  11.857  12.570  12.605
23725SOL     OW73071   7.215   2.222  11.941
23725SOL    HW173072   7.128   2.186  11.958
23725SOL    HW273073   7.250   2.241  12.029
23726SOL     OW73074  13.249   3.214   5.825
23726SOL    HW173075  13.186   3.284   5.842
23726SOL    HW273076  13.269   3.178   5.912
23727SOL     OW73077   0.707  13.083   1.540
23727SOL    HW173078   0.641  13.036   1.489
23727SOL    HW273079   0.676  13.079   1.630
23728SOL     OW73080   0.062   1.922   2.873
23728SOL    HW173081   0.037   2.007   2.837
23728SOL    HW273082   0.095   1.942   2.960
23729SOL     OW73083  13.527   3.802  11.876
23729SOL    HW173084  13.464   3.867  11.907
23729SOL    HW273085  13.590   3.793  11.947
23730SOL     OW73086   4.119   0.192   8.125
23730SOL    HW173087   4.157   0.279   8.126
23730SOL    HW273088   4.044   0.199   8.067
23731SOL     OW73089   1.151  11.372  11.325
23731SOL    HW173090   1.246  11.376  11.316
23731SOL    HW273091   1.119  11.346  11.238
23732SOL     OW73092   1.722   1.883  11.617
23732SOL    HW173093   1.716   1.908  11.525
23732SOL    HW273094   1.806   1.917  11.646
23733SOL     OW73095  14.068   7.497  14.573
23733SOL    HW173096  14.160   7.471  14.563
23733SOL    HW273097  14.071   7.573  14.631
23734SOL     OW73098   3.596   3.238   7.256
23734SOL    HW173099   3.633   3.287   7.183
23734SOL    HW273100   3.665   3.176   7.281
23735SOL     OW73101   2.610   7.209  11.053
23735SOL    HW173102   2.686   7.152  11.040
23735SOL    HW273103   2.559   7.200  10.973
23736SOL     OW73104  11.698  13.147   6.733
23736SOL    HW173105  11.777  13.094   6.744
23736SOL    HW273106  11.647  13.101   6.666
23737SOL     OW73107   9.458   6.177  10.923
23737SOL    HW173108   9.496   6.251  10.876
23737SOL    HW273109   9.424   6.119  10.854
23738SOL     OW73110   8.154   4.651   9.107
23738SOL    HW173111   8.192   4.564   9.093
23738SOL    HW273112   8.059   4.637   9.102
23739SOL     OW73113  10.357   3.947  12.213
23739SOL    HW173114  10.380   3.891  12.287
23739SOL    HW273115  10.285   3.900  12.170
23740SOL     OW73116   7.513   0.190   4.691
23740SOL    HW173117   7.451   0.203   4.763
23740SOL    HW273118   7.551   0.277   4.677
23741SOL     OW73119  13.142   3.826  12.632
23741SOL    HW173120  13.182   3.747  12.595
23741SOL    HW273121  13.210   3.893  12.625
23742SOL     OW73122   8.141   9.396  12.858
23742SOL    HW173123   8.057   9.351  12.870
23742SOL    HW273124   8.122   9.487  12.879
23743SOL     OW73125  12.454   8.373   3.841
23743SOL    HW173126  12.512   8.442   3.811
23743SOL    HW273127  12.372   8.418   3.862
23744SOL     OW73128   6.711  10.608   0.255
23744SOL    HW173129   6.727  10.613   0.160
23744SOL    HW273130   6.718  10.699   0.285
23745SOL     OW73131  11.377  11.911  13.110
23745SOL    HW173132  11.413  11.894  13.023
23745SOL    HW273133  11.286  11.880  13.105
23746SOL     OW73134  10.445   2.653   3.250
23746SOL    HW173135  10.394   2.605   3.184
23746SOL    HW273136  10.382   2.674   3.319
23747SOL     OW73137   2.705   9.470  14.060
23747SOL    HW173138   2.624   9.487  14.108
23747SOL    HW273139   2.770   9.451  14.128
23748SOL     OW73140   8.830   3.013  11.419
23748SOL    HW173141   8.898   3.073  11.449
23748SOL    HW273142   8.765   3.013  11.490
23749SOL     OW73143   0.466  11.587   9.817
23749SOL    HW173144   0.504  11.542   9.892
23749SOL    HW273145   0.536  11.645   9.786
23750SOL     OW73146   3.058   9.770   7.863
23750SOL    HW173147   2.978   9.731   7.897
23750SOL    HW273148   3.029   9.848   7.816
23751SOL     OW73149   0.234   5.392  10.036
23751SOL    HW173150   0.273   5.321   9.985
23751SOL    HW273151   0.303   5.418  10.098
23752SOL     OW73152   7.523  10.241  10.356
23752SOL    HW173153   7.473  10.320  10.379
23752SOL    HW273154   7.501  10.179  10.426
23753SOL     OW73155   2.987   4.822   9.017
23753SOL    HW173156   2.979   4.907   8.974
23753SOL    HW273157   3.009   4.761   8.947
23754SOL     OW73158   8.722   0.856   0.851
23754SOL    HW173159   8.795   0.905   0.890
23754SOL    HW273160   8.651   0.864   0.915
23755SOL     OW73161   8.419  13.929  13.385
23755SOL    HW173162   8.509  13.960  13.396
23755SOL    HW273163   8.425  13.859  13.320
23756SOL     OW73164   5.887  10.075   2.485
23756SOL    HW173165   5.937  10.113   2.413
23756SOL    HW273166   5.807  10.044   2.445
23757SOL     OW73167   7.052   1.763   8.191
23757SOL    HW173168   7.003   1.766   8.273
23757SOL    HW273169   6.987   1.780   8.124
23758SOL     OW73170   2.252  13.801   4.754
23758SOL    HW173171   2.346  13.803   4.773
23758SOL    HW273172   2.215  13.742   4.819
23759SOL     OW73173   9.126  14.046   3.496
23759SOL    HW173174   9.213  14.056   3.535
23759SOL    HW273175   9.133  13.966   3.443
23760SOL     OW73176  10.469   8.488   4.850
23760SOL    HW173177  10.378   8.517   4.855
23760SOL    HW273178  10.473   8.436   4.770
23761SOL     OW73179   4.879   3.478   6.755
23761SOL    HW173180   4.827   3.525   6.690
23761SOL    HW273181   4.910   3.547   6.814
23762SOL     OW73182  14.564   1.117   9.964
23762SOL    HW173183  14.616   1.039   9.980
23762SOL    HW273184  14.476   1.084   9.947
23763SOL     OW73185   3.566   1.568  13.633
23763SOL    HW173186   3.552   1.473  13.632
23763SOL    HW273187   3.488   1.603  13.589
23764SOL     OW73188   3.494   5.414   2.518
23764SOL    HW173189   3.484   5.325   2.550
23764SOL    HW273190   3.405   5.447   2.509
23765SOL     OW73191  11.826  14.711  10.646
23765SOL    HW173192  11.792  14.666  10.723
23765SOL    HW273193  11.911  14.745  10.674
23766SOL     OW73194  12.008   6.090  11.611
23766SOL    HW173195  11.987   5.998  11.629
23766SOL    HW273196  11.937   6.139  11.651
23767SOL     OW73197   0.255   8.948  10.134
23767SOL    HW173198   0.192   8.911  10.196
23767SOL    HW273199   0.305   8.872  10.103
23768SOL     OW73200  12.857   7.991  11.539
23768SOL    HW173201  12.916   7.937  11.591
23768SOL    HW273202  12.812   8.046  11.603
23769SOL     OW73203   7.882   3.356  13.230
23769SOL    HW173204   7.950   3.327  13.168
23769SOL    HW273205   7.801   3.317  13.197
23770SOL     OW73206   6.903   9.802   7.641
23770SOL    HW173207   6.905   9.867   7.711
23770SOL    HW273208   6.836   9.740   7.668
23771SOL     OW73209  12.818   9.503   1.981
23771SOL    HW173210  12.895   9.454   1.955
23771SOL    HW273211  12.794   9.467   2.067
23772SOL     OW73212  14.871  10.329  10.951
23772SOL    HW173213  14.837  10.267  11.016
23772SOL    HW273214  14.814  10.318  10.875
23773SOL     OW73215  11.590   3.303  10.892
23773SOL    HW173216  11.659   3.258  10.843
23773SOL    HW273217  11.598   3.268  10.981
23774SOL     OW73218  14.388   0.674  11.759
23774SOL    HW173219  14.433   0.748  11.800
23774SOL    HW273220  14.300   0.674  11.799
23775SOL     OW73221   7.029  13.039   3.420
23775SOL    HW173222   7.011  13.017   3.329
23775SOL    HW273223   6.945  13.027   3.464
23776SOL     OW73224   6.020   7.454   5.828
23776SOL    HW173225   6.069   7.488   5.754
23776SOL    HW273226   6.033   7.518   5.898
23777SOL     OW73227  13.207  13.137   8.063
23777SOL    HW173228  13.243  13.226   8.070
23777SOL    HW273229  13.113  13.148   8.075
23778SOL     OW73230   9.884   4.249  13.699
23778SOL    HW173231   9.965   4.197  13.698
23778SOL    HW273232   9.848   4.238  13.611
23779SOL     OW73233   8.446   9.015  10.057
23779SOL    HW173234   8.378   8.948  10.051
23779SOL    HW273235   8.402   9.096  10.031
23780SOL     OW73236   3.262   7.734   8.911
23780SOL    HW173237   3.299   7.794   8.976
23780SOL    HW273238   3.169   7.728   8.933
23781SOL     OW73239   0.978   5.499   2.317
23781SOL    HW173240   0.936   5.538   2.240
23781SOL    HW273241   1.012   5.573   2.366
23782SOL     OW73242   2.576   4.861   1.936
23782SOL    HW173243   2.661   4.834   1.901
23782SOL    HW273244   2.551   4.937   1.882
23783SOL     OW73245  11.080   8.360   2.824
23783SOL    HW173246  10.998   8.382   2.779
23783SOL    HW273247  11.137   8.436   2.808
23784SOL     OW73248   3.354   7.840  12.573
23784SOL    HW173249   3.296   7.891  12.517
23784SOL    HW273250   3.295   7.787  12.627
23785SOL     OW73251   0.161  14.280   6.438
23785SOL    HW173252   0.162  14.356   6.496
23785SOL    HW273253   0.083  14.231   6.463
23786SOL     OW73254   7.591   0.977   1.371
23786SOL    HW173255   7.593   0.882   1.385
23786SOL    HW273256   7.680   0.999   1.344
23787SOL     OW73257   2.082   5.696   4.953
23787SOL    HW173258   1.989   5.685   4.969
23787SOL    HW273259   2.106   5.775   5.001
23788SOL     OW73260  12.816  14.617   5.050
23788SOL    HW173261  12.762  14.659   5.116
23788SOL    HW273262  12.867  14.551   5.098
23789SOL     OW73263   9.073   5.143   6.477
23789SOL    HW173264   9.091   5.214   6.415
23789SOL    HW273265   8.999   5.176   6.528
23790SOL     OW73266  10.898   6.055   9.281
23790SOL    HW173267  10.881   6.100   9.199
23790SOL    HW273268  10.953   6.116   9.331
23791SOL     OW73269   9.847   9.551   0.104
23791SOL    HW173270   9.825   9.548   0.011
23791SOL    HW273271   9.768   9.519   0.148
23792SOL     OW73272   9.222   9.193   4.623
23792SOL    HW173273   9.275   9.172   4.546
23792SOL    HW273274   9.145   9.238   4.588
23793SOL     OW73275  12.371   4.290   4.031
23793SOL    HW173276  12.436   4.337   4.083
23793SOL    HW273277  12.420   4.256   3.956
23794SOL     OW73278   5.078   6.790  13.485
23794SOL    HW173279   5.059   6.802  13.392
23794SOL    HW273280   5.167   6.755  13.487
23795SOL     OW73281  11.347  14.357   6.387
23795SOL    HW173282  11.327  14.263   6.390
23795SOL    HW273283  11.434  14.363   6.425
23796SOL     OW73284   8.369   9.073  11.809
23796SOL    HW173285   8.311   9.026  11.869
23796SOL    HW273286   8.419   9.132  11.865
23797SOL     OW73287  11.768   1.143   4.535
23797SOL    HW173288  11.828   1.168   4.464
23797SOL    HW273289  11.803   1.187   4.613
23798SOL     OW73290   1.944   7.535  10.903
23798SOL    HW173291   2.000   7.514  10.828
23798SOL    HW273292   1.920   7.450  10.940
23799SOL     OW73293  11.117   7.090   8.258
23799SOL    HW173294  11.157   7.109   8.343
23799SOL    HW273295  11.104   6.995   8.259
23800SOL     OW73296   0.770   2.883  10.844
23800SOL    HW173297   0.833   2.948  10.875
23800SOL    HW273298   0.815   2.837  10.773
23801SOL     OW73299  12.972  11.049   0.380
23801SOL    HW173300  13.021  11.130   0.367
23801SOL    HW273301  12.976  11.034   0.474
23802SOL     OW73302  11.755   2.282   7.409
23802SOL    HW173303  11.824   2.215   7.412
23802SOL    HW273304  11.727   2.291   7.500
23803SOL     OW73305  13.017  12.801   2.528
23803SOL    HW173306  13.048  12.848   2.451
23803SOL    HW273307  12.923  12.815   2.530
23804SOL     OW73308   4.215   1.215   0.648
23804SOL    HW173309   4.216   1.128   0.606
23804SOL    HW273310   4.241   1.198   0.739
23805SOL     OW73311   1.629  10.221   2.739
23805SOL    HW173312   1.568  10.205   2.668
23805SOL    HW273313   1.682  10.141   2.745
23806SOL     OW73314   6.247  14.317   8.718
23806SOL    HW173315   6.314  14.317   8.786
23806SOL    HW273316   6.218  14.408   8.714
23807SOL     OW73317  14.681   7.885   5.412
23807SOL    HW173318  14.678   7.978   5.435
23807SOL    HW273319  14.689   7.840   5.496
23808SOL     OW73320   2.123   9.136  11.322
23808SOL    HW173321   2.176   9.214  11.308
23808SOL    HW273322   2.059   9.162  11.389
23809SOL     OW73323  13.839  11.686   9.566
23809SOL    HW173324  13.894  11.626   9.617
23809SOL    HW273325  13.804  11.632   9.495
23810SOL     OW73326  12.092  13.880   1.173
23810SOL    HW173327  12.139  13.799   1.193
23810SOL    HW273328  12.001  13.853   1.162
23811SOL     OW73329   7.753   6.379   3.519
23811SOL    HW173330   7.736   6.334   3.602
23811SOL    HW273331   7.746   6.472   3.540
23812SOL     OW73332   8.447  13.326  10.926
23812SOL    HW173333   8.443  13.251  10.986
23812SOL    HW273334   8.364  13.324  10.879
23813SOL     OW73335   1.959   9.022   8.642
23813SOL    HW173336   1.913   8.987   8.718
23813SOL    HW273337   2.041   9.057   8.678
23814SOL     OW73338   8.247  13.486  11.293
23814SOL    HW173339   8.198  13.568  11.307
23814SOL    HW273340   8.183  13.427  11.252
23815SOL     OW73341  13.422   9.127  10.218
23815SOL    HW173342  13.407   9.082  10.134
23815SOL    HW273343  13.514   9.110  10.238
23816SOL     OW73344   3.705   4.426   9.108
23816SOL    HW173345   3.784   4.392   9.148
23816SOL    HW273346   3.682   4.503   9.160
23817SOL     OW73347   6.552   1.605   2.680
23817SOL    HW173348   6.565   1.521   2.724
23817SOL    HW273349   6.625   1.658   2.709
23818SOL     OW73350   9.369   1.466  10.959
23818SOL    HW173351   9.384   1.425  11.044
23818SOL    HW273352   9.400   1.556  10.970
23819SOL     OW73353   2.022  12.529   4.971
23819SOL    HW173354   2.016  12.617   5.007
23819SOL    HW273355   1.973  12.475   5.033
23820SOL     OW73356   6.156   9.860   7.371
23820SOL    HW173357   6.214   9.825   7.302
23820SOL    HW273358   6.127   9.782   7.419
23821SOL     OW73359   4.750   6.142   6.989
23821SOL    HW173360   4.701   6.181   6.915
23821SOL    HW273361   4.817   6.207   7.009
23822SOL     OW73362   7.912   0.941   5.867
23822SOL    HW173363   7.830   0.979   5.899
23822SOL    HW273364   7.889   0.901   5.783
23823SOL     OW73365   2.376   4.225  14.091
23823SOL    HW173366   2.414   4.298  14.043
23823SOL    HW273367   2.332   4.265  14.166
23824SOL     OW73368  14.702   8.094  10.875
23824SOL    HW173369  14.694   8.000  10.858
23824SOL    HW273370  14.743   8.129  10.796
23825SOL     OW73371   6.758   7.887   2.314
23825SOL    HW173372   6.840   7.872   2.361
23825SOL    HW273373   6.783   7.898   2.223
23826SOL     OW73374   6.737   2.777   2.722
23826SOL    HW173375   6.726   2.869   2.696
23826SOL    HW273376   6.752   2.731   2.640
23827SOL     OW73377   3.019  14.600   0.674
23827SOL    HW173378   3.006  14.516   0.631
23827SOL    HW273379   3.043  14.577   0.764
23828SOL     OW73380   5.256   7.733   6.191
23828SOL    HW173381   5.273   7.773   6.276
23828SOL    HW273382   5.281   7.800   6.127
23829SOL     OW73383   6.604   8.042   0.790
23829SOL    HW173384   6.545   8.070   0.861
23829SOL    HW273385   6.692   8.048   0.829
23830SOL     OW73386   7.104   1.024   4.234
23830SOL    HW173387   7.199   1.014   4.233
23830SOL    HW273388   7.089   1.112   4.270
23831SOL     OW73389  11.525   6.382   8.827
23831SOL    HW173390  11.517   6.446   8.898
23831SOL    HW273391  11.435   6.353   8.809
23832SOL     OW73392  11.143   3.882   9.368
23832SOL    HW173393  11.237   3.885   9.352
23832SOL    HW273394  11.103   3.903   9.284
23833SOL     OW73395  12.506   7.010  11.685
23833SOL    HW173396  12.417   7.000  11.719
23833SOL    HW273397  12.560   7.023  11.762
23834SOL     OW73398   5.689   9.797   8.331
23834SOL    HW173399   5.723   9.826   8.246
23834SOL    HW273400   5.715   9.866   8.392
23835SOL     OW73401   4.504   2.569   6.282
23835SOL    HW173402   4.533   2.517   6.207
23835SOL    HW273403   4.539   2.523   6.358
23836SOL     OW73404   1.634  13.567   1.465
23836SOL    HW173405   1.622  13.650   1.511
23836SOL    HW273406   1.580  13.575   1.386
23837SOL     OW73407  12.727   8.672   3.347
23837SOL    HW173408  12.813   8.697   3.312
23837SOL    HW273409  12.695   8.606   3.286
23838SOL     OW73410  11.643  12.022  11.874
23838SOL    HW173411  11.607  11.995  11.959
23838SOL    HW273412  11.568  12.055  11.826
23839SOL     OW73413   8.768   4.159  10.406
23839SOL    HW173414   8.805   4.221  10.343
23839SOL    HW273415   8.744   4.212  10.482
23840SOL     OW73416  10.163  13.994   0.020
23840SOL    HW173417  10.176  13.949   0.103
23840SOL    HW273418  10.191  13.930  14.834
23841SOL     OW73419   7.482   8.542   1.057
23841SOL    HW173420   7.421   8.511   0.991
23841SOL    HW273421   7.427   8.590   1.120
23842SOL     OW73422  12.020  13.882  11.822
23842SOL    HW173423  12.106  13.845  11.838
23842SOL    HW273424  11.966  13.851  11.895
23843SOL     OW73425   5.730   2.780   6.927
23843SOL    HW173426   5.740   2.803   7.019
23843SOL    HW273427   5.691   2.858   6.887
23844SOL     OW73428   7.550   3.817   1.219
23844SOL    HW173429   7.564   3.900   1.264
23844SOL    HW273430   7.592   3.752   1.275
23845SOL     OW73431   3.170   7.448   0.386
23845SOL    HW173432   3.149   7.530   0.342
23845SOL    HW273433   3.240   7.471   0.447
23846SOL     OW73434   6.076  11.035  12.457
23846SOL    HW173435   6.046  10.993  12.377
23846SOL    HW273436   5.996  11.054  12.506
23847SOL     OW73437   7.180   2.470   8.100
23847SOL    HW173438   7.259   2.475   8.154
23847SOL    HW273439   7.185   2.545   8.041
23848SOL     OW73440   3.726  11.922   1.285
23848SOL    HW173441   3.636  11.890   1.284
23848SOL    HW273442   3.726  11.996   1.225
23849SOL     OW73443  14.548  14.526   4.305
23849SOL    HW173444  14.549  14.617   4.333
23849SOL    HW273445  14.455  14.502   4.303
23850SOL     OW73446   7.910   3.975   0.737
23850SOL    HW173447   7.848   4.041   0.706
23850SOL    HW273448   7.873   3.892   0.706
23851SOL     OW73449   6.852   0.956   2.951
23851SOL    HW173450   6.922   0.930   2.891
23851SOL    HW273451   6.881   1.041   2.986
23852SOL     OW73452   3.638  14.855  11.216
23852SOL    HW173453   3.545  14.878  11.210
23852SOL    HW273454   3.655  14.851  11.310
23853SOL     OW73455   5.543  13.646  14.441
23853SOL    HW173456   5.615  13.709  14.438
23853SOL    HW273457   5.474  13.690  14.490
23854SOL     OW73458   9.174   9.385   7.864
23854SOL    HW173459   9.130   9.351   7.941
23854SOL    HW273460   9.175   9.480   7.876
23855SOL     OW73461  11.866   1.408  14.565
23855SOL    HW173462  11.892   1.336  14.622
23855SOL    HW273463  11.889   1.487  14.613
23856SOL     OW73464  10.301  11.750   4.826
23856SOL    HW173465  10.325  11.658   4.820
23856SOL    HW273466  10.298  11.768   4.920
23857SOL     OW73467   3.844   7.382  10.505
23857SOL    HW173468   3.824   7.455  10.564
23857SOL    HW273469   3.758   7.350  10.476
23858SOL     OW73470   2.138   6.969  14.255
23858SOL    HW173471   2.076   6.990  14.325
23858SOL    HW273472   2.179   7.053  14.233
23859SOL     OW73473   8.101   3.019   4.901
23859SOL    HW173474   8.012   3.051   4.915
23859SOL    HW273475   8.154   3.099   4.898
23860SOL     OW73476   6.666   1.759   7.489
23860SOL    HW173477   6.587   1.779   7.438
23860SOL    HW273478   6.668   1.663   7.492
23861SOL     OW73479   6.457  14.170   1.800
23861SOL    HW173480   6.432  14.262   1.804
23861SOL    HW273481   6.486  14.156   1.710
23862SOL     OW73482   8.325  13.184   5.406
23862SOL    HW173483   8.321  13.258   5.466
23862SOL    HW273484   8.418  13.178   5.381
23863SOL     OW73485   2.300   6.534  11.712
23863SOL    HW173486   2.282   6.569  11.624
23863SOL    HW273487   2.322   6.611  11.764
23864SOL     OW73488   6.941   1.347  10.693
23864SOL    HW173489   6.963   1.278  10.755
23864SOL    HW273490   7.021   1.398  10.684
23865SOL     OW73491   3.812  13.401  10.322
23865SOL    HW173492   3.865  13.331  10.359
23865SOL    HW273493   3.875  13.468  10.296
23866SOL     OW73494   0.311  13.021   2.591
23866SOL    HW173495   0.344  12.965   2.521
23866SOL    HW273496   0.217  13.028   2.573
23867SOL     OW73497   1.890  11.205   3.025
23867SOL    HW173498   1.952  11.244   2.964
23867SOL    HW273499   1.806  11.209   2.979
23868SOL     OW73500  13.301   0.229   8.324
23868SOL    HW173501  13.224   0.224   8.267
23868SOL    HW273502  13.296   0.149   8.377
23869SOL     OW73503  11.819  10.902  11.882
23869SOL    HW173504  11.868  10.821  11.898
23869SOL    HW273505  11.745  10.898  11.943
23870SOL     OW73506   6.184   1.571   9.640
23870SOL    HW173507   6.212   1.658   9.666
23870SOL    HW273508   6.262   1.531   9.600
23871SOL     OW73509   1.777   4.646   8.229
23871SOL    HW173510   1.752   4.573   8.286
23871SOL    HW273511   1.759   4.614   8.140
23872SOL     OW73512  13.442   6.340   3.073
23872SOL    HW173513  13.536   6.324   3.083
23872SOL    HW273514  13.422   6.309   2.985
23873SOL     OW73515   3.301   6.588  13.351
23873SOL    HW173516   3.236   6.659  13.356
23873SOL    HW273517   3.266   6.529  13.284
23874SOL     OW73518  12.519   8.241   8.028
23874SOL    HW173519  12.528   8.298   8.104
23874SOL    HW273520  12.590   8.177   8.036
23875SOL     OW73521   7.747   2.299   3.013
23875SOL    HW173522   7.724   2.389   3.035
23875SOL    HW273523   7.665   2.250   3.023
23876SOL     OW73524  14.709   0.918   6.602
23876SOL    HW173525  14.742   0.867   6.528
23876SOL    HW273526  14.614   0.920   6.590
23877SOL     OW73527  12.336  11.549   2.969
23877SOL    HW173528  12.331  11.458   3.001
23877SOL    HW273529  12.430  11.567   2.964
23878SOL     OW73530   4.369   1.023   1.790
23878SOL    HW173531   4.290   1.008   1.739
23878SOL    HW273532   4.439   0.984   1.738
23879SOL     OW73533  11.363   7.101  10.861
23879SOL    HW173534  11.387   7.176  10.807
23879SOL    HW273535  11.277   7.122  10.896
23880SOL     OW73536   7.712   3.959   9.786
23880SOL    HW173537   7.745   4.032   9.734
23880SOL    HW273538   7.628   3.937   9.747
23881SOL     OW73539   5.274   9.110  12.843
23881SOL    HW173540   5.294   9.192  12.890
23881SOL    HW273541   5.252   9.048  12.912
23882SOL     OW73542  11.738   2.035   8.182
23882SOL    HW173543  11.663   1.976   8.177
23882SOL    HW273544  11.702   2.122   8.162
23883SOL     OW73545   2.574  10.264   8.873
23883SOL    HW173546   2.542  10.177   8.849
23883SOL    HW273547   2.575  10.263   8.969
23884SOL     OW73548  11.966   2.311   0.462
23884SOL    HW173549  11.931   2.230   0.498
23884SOL    HW273550  11.912   2.380   0.501
23885SOL     OW73551   5.003  14.704  10.885
23885SOL    HW173552   4.978  14.795  10.897
23885SOL    HW273553   4.922  14.660  10.861
23886SOL     OW73554  10.326  10.376  14.648
23886SOL    HW173555  10.411  10.351  14.610
23886SOL    HW273556  10.334  10.354  14.741
23887SOL     OW73557   6.731   1.842   3.144
23887SOL    HW173558   6.665   1.811   3.206
23887SOL    HW273559   6.729   1.937   3.153
23888SOL     OW73560   1.227   7.008   2.559
23888SOL    HW173561   1.193   6.948   2.492
23888SOL    HW273562   1.151   7.060   2.586
23889SOL     OW73563   9.908  12.291  13.657
23889SOL    HW173564   9.815  12.282  13.677
23889SOL    HW273565   9.927  12.384  13.671
23890SOL     OW73566   3.487   7.010  13.640
23890SOL    HW173567   3.510   7.096  13.673
23890SOL    HW273568   3.502   7.016  13.546
23891SOL     OW73569  10.853   6.993   6.549
23891SOL    HW173570  10.797   7.005   6.472
23891SOL    HW273571  10.800   6.943   6.611
23892SOL     OW73572   3.558   6.254   6.898
23892SOL    HW173573   3.570   6.161   6.916
23892SOL    HW273574   3.580   6.298   6.980
23893SOL     OW73575   3.294   4.778   7.546
23893SOL    HW173576   3.303   4.872   7.564
23893SOL    HW273577   3.382   4.743   7.561
23894SOL     OW73578   1.089   4.246   6.921
23894SOL    HW173579   1.044   4.237   6.837
23894SOL    HW273580   1.069   4.165   6.968
23895SOL     OW73581  13.238  10.592  10.618
23895SOL    HW173582  13.177  10.640  10.561
23895SOL    HW273583  13.244  10.505  10.579
23896SOL     OW73584   2.247   3.516  13.113
23896SOL    HW173585   2.159   3.551  13.128
23896SOL    HW273586   2.305   3.590  13.131
23897SOL     OW73587   6.777   7.018   4.888
23897SOL    HW173588   6.838   6.961   4.935
23897SOL    HW273589   6.822   7.042   4.808
23898SOL     OW73590   9.375   0.723   2.653
23898SOL    HW173591   9.439   0.689   2.590
23898SOL    HW273592   9.421   0.796   2.696
23899SOL     OW73593   8.930  10.818  12.085
23899SOL    HW173594   8.880  10.738  12.066
23899SOL    HW273595   8.862  10.884  12.102
23900SOL     OW73596   0.876   5.958   6.796
23900SOL    HW173597   0.875   5.889   6.729
23900SOL    HW273598   0.859   6.039   6.748
23901SOL     OW73599   8.594  14.484   3.214
23901SOL    HW173600   8.652  14.447   3.148
23901SOL    HW273601   8.506  14.462   3.183
23902SOL     OW73602   1.242  10.285   8.371
23902SOL    HW173603   1.234  10.218   8.438
23902SOL    HW273604   1.218  10.367   8.415
23903SOL     OW73605   2.225   2.678   1.028
23903SOL    HW173606   2.236   2.599   0.974
23903SOL    HW273607   2.192   2.645   1.112
23904SOL     OW73608  12.509  12.848   2.087
23904SOL    HW173609  12.550  12.909   2.149
23904SOL    HW273610  12.495  12.901   2.008
23905SOL     OW73611   0.453   4.670   2.586
23905SOL    HW173612   0.471   4.587   2.541
23905SOL    HW273613   0.487   4.737   2.527
23906SOL     OW73614  11.105  11.099   4.702
23906SOL    HW173615  11.046  11.168   4.671
23906SOL    HW273616  11.063  11.018   4.674
23907SOL     OW73617   5.898   9.584  11.567
23907SOL    HW173618   5.989   9.612  11.573
23907SOL    HW273619   5.851   9.643  11.626
23908SOL     OW73620   2.528   7.091   5.274
23908SOL    HW173621   2.498   7.004   5.248
23908SOL    HW273622   2.623   7.080   5.286
23909SOL     OW73623   8.566   8.677   8.128
23909SOL    HW173624   8.573   8.590   8.168
23909SOL    HW273625   8.585   8.662   8.035
23910SOL     OW73626   5.223  11.261   8.153
23910SOL    HW173627   5.209  11.166   8.155
23910SOL    HW273628   5.201  11.290   8.241
23911SOL     OW73629   5.817  13.410   9.721
23911SOL    HW173630   5.906  13.374   9.719
23911SOL    HW273631   5.829  13.504   9.703
23912SOL     OW73632  14.752  14.720   4.410
23912SOL    HW173633  14.807  14.779   4.461
23912SOL    HW273634  14.716  14.659   4.473
23913SOL     OW73635   9.664   4.219  10.570
23913SOL    HW173636   9.644   4.194  10.480
23913SOL    HW273637   9.666   4.136  10.618
23914SOL     OW73638   0.139  14.735  11.267
23914SOL    HW173639   0.125  14.646  11.299
23914SOL    HW273640   0.059  14.782  11.290
23915SOL     OW73641   3.366   3.621   0.661
23915SOL    HW173642   3.383   3.529   0.643
23915SOL    HW273643   3.320   3.653   0.583
23916SOL     OW73644  13.400   5.123  10.936
23916SOL    HW173645  13.307   5.122  10.915
23916SOL    HW273646  13.422   5.215  10.945
23917SOL     OW73647   3.953   8.960  12.836
23917SOL    HW173648   3.972   9.028  12.901
23917SOL    HW273649   4.028   8.962  12.776
23918SOL     OW73650  11.913   6.076  10.823
23918SOL    HW173651  11.991   6.131  10.829
23918SOL    HW273652  11.841   6.138  10.808
23919SOL     OW73653   0.056   8.227  11.058
23919SOL    HW173654   0.065   8.316  11.025
23919SOL    HW273655  14.870   8.187  11.001
23920SOL     OW73656  13.042   0.638   6.896
23920SOL    HW173657  13.000   0.720   6.923
23920SOL    HW273658  13.125   0.637   6.943
23921SOL     OW73659  14.417   3.295   7.946
23921SOL    HW173660  14.323   3.283   7.954
23921SOL    HW273661  14.428   3.358   7.875
23922SOL     OW73662   6.173   6.595   1.434
23922SOL    HW173663   6.269   6.596   1.433
23922SOL    HW273664   6.150   6.663   1.498
23923SOL     OW73665   9.284   0.699  11.189
23923SOL    HW173666   9.348   0.639  11.150
23923SOL    HW273667   9.206   0.690  11.134
23924SOL     OW73668   7.168   1.396  10.512
23924SOL    HW173669   7.164   1.482  10.471
23924SOL    HW273670   7.261   1.377  10.520
23925SOL     OW73671   5.793  10.350   9.695
23925SOL    HW173672   5.866  10.312   9.646
23925SOL    HW273673   5.812  10.444   9.698
23926SOL     OW73674   7.351  13.753   5.527
23926SOL    HW173675   7.265  13.768   5.565
23926SOL    HW273676   7.362  13.822   5.462
23927SOL     OW73677   6.987  12.421  12.111
23927SOL    HW173678   7.009  12.445  12.021
23927SOL    HW273679   6.915  12.359  12.102
23928SOL     OW73680   7.065  14.671  14.573
23928SOL    HW173681   7.004  14.742  14.594
23928SOL    HW273682   7.047  14.651  14.481
23929SOL     OW73683   4.353   6.982   5.706
23929SOL    HW173684   4.358   6.942   5.793
23929SOL    HW273685   4.341   7.075   5.724
23930SOL     OW73686   4.162  13.359  13.206
23930SOL    HW173687   4.244  13.309  13.202
23930SOL    HW273688   4.181  13.432  13.265
23931SOL     OW73689   2.309   8.728  11.428
23931SOL    HW173690   2.288   8.652  11.483
23931SOL    HW273691   2.343   8.690  11.347
23932SOL     OW73692   7.215   7.252  10.489
23932SOL    HW173693   7.300   7.249  10.445
23932SOL    HW273694   7.208   7.168  10.534
23933SOL     OW73695   2.675   0.481   8.530
23933SOL    HW173696   2.721   0.506   8.611
23933SOL    HW273697   2.680   0.386   8.528
23934SOL     OW73698   1.268   0.060   8.191
23934SOL    HW173699   1.236   0.145   8.160
23934SOL    HW273700   1.308   0.019   8.114
23935SOL     OW73701   8.822   3.111  12.351
23935SOL    HW173702   8.826   3.020  12.380
23935SOL    HW273703   8.731   3.123  12.323
23936SOL     OW73704   9.613  11.976   6.421
23936SOL    HW173705   9.689  11.940   6.466
23936SOL    HW273706   9.561  11.900   6.397
23937SOL     OW73707   1.752   3.561  12.202
23937SOL    HW173708   1.799   3.537  12.282
23937SOL    HW273709   1.690   3.629  12.229
23938SOL     OW73710  14.124   0.639   6.533
23938SOL    HW173711  14.029   0.627   6.529
23938SOL    HW273712  14.159   0.551   6.543
23939SOL     OW73713   2.133  14.689  11.696
23939SOL    HW173714   2.084  14.647  11.766
23939SOL    HW273715   2.222  14.657  11.706
23940SOL     OW73716   6.128   6.453   1.999
23940SOL    HW173717   6.141   6.368   2.042
23940SOL    HW273718   6.180   6.447   1.919
23941SOL     OW73719   9.309   5.279   0.766
23941SOL    HW173720   9.364   5.226   0.709
23941SOL    HW273721   9.370   5.321   0.826
23942SOL     OW73722   9.791   4.319  12.623
23942SOL    HW173723   9.874   4.291  12.662
23942SOL    HW273724   9.814   4.398  12.574
23943SOL     OW73725   7.001  14.300  12.390
23943SOL    HW173726   6.906  14.300  12.407
23943SOL    HW273727   7.012  14.359  12.316
23944SOL     OW73728  12.144   8.078   3.601
23944SOL    HW173729  12.110   8.019   3.669
23944SOL    HW273730  12.068   8.132   3.577
23945SOL     OW73731   4.653   9.974   0.795
23945SOL    HW173732   4.560   9.979   0.813
23945SOL    HW273733   4.689  10.053   0.835
23946SOL     OW73734   6.940  13.800   8.959
23946SOL    HW173735   6.912  13.791   8.868
23946SOL    HW273736   7.035  13.790   8.956
23947SOL     OW73737  10.546   0.148   5.364
23947SOL    HW173738  10.592   0.162   5.447
23947SOL    HW273739  10.538   0.053   5.356
23948SOL     OW73740  12.877  10.451   2.186
23948SOL    HW173741  12.837  10.429   2.270
23948SOL    HW273742  12.957  10.499   2.209
23949SOL     OW73743   4.332   6.920   4.138
23949SOL    HW173744   4.300   7.010   4.129
23949SOL    HW273745   4.256   6.871   4.170
23950SOL     OW73746   3.059  10.241  11.007
23950SOL    HW173747   3.114  10.269  11.080
23950SOL    HW273748   2.971  10.233  11.045
23951SOL     OW73749   2.207   2.431   6.093
23951SOL    HW173750   2.206   2.388   6.008
23951SOL    HW273751   2.300   2.441   6.114
23952SOL     OW73752   1.712   2.251   1.425
23952SOL    HW173753   1.652   2.210   1.362
23952SOL    HW273754   1.749   2.178   1.474
23953SOL     OW73755   7.899  11.137  11.611
23953SOL    HW173756   7.869  11.218  11.571
23953SOL    HW273757   7.992  11.151  11.629
23954SOL     OW73758   5.958   0.178   5.810
23954SOL    HW173759   5.990   0.102   5.858
23954SOL    HW273760   5.870   0.154   5.782
23955SOL     OW73761   0.313   8.954   4.138
23955SOL    HW173762   0.317   8.972   4.232
23955SOL    HW273763   0.403   8.963   4.108
23956SOL     OW73764   7.317  12.098  14.717
23956SOL    HW173765   7.404  12.060  14.732
23956SOL    HW273766   7.322  12.186  14.754
23957SOL     OW73767  13.283   5.837   5.964
23957SOL    HW173768  13.281   5.819   6.058
23957SOL    HW273769  13.215   5.903   5.951
23958SOL     OW73770   8.863   8.266   1.611
23958SOL    HW173771   8.770   8.245   1.601
23958SOL    HW273772   8.907   8.217   1.542
23959SOL     OW73773   8.767  12.469   1.728
23959SOL    HW173774   8.805  12.554   1.705
23959SOL    HW273775   8.841  12.416   1.758
23960SOL     OW73776  10.620  11.656   7.462
23960SOL    HW173777  10.664  11.625   7.383
23960SOL    HW273778  10.560  11.723   7.432
23961SOL     OW73779  11.878   4.638   3.907
23961SOL    HW173780  11.946   4.704   3.923
23961SOL    HW273781  11.915   4.580   3.841
23962SOL     OW73782   3.799   2.084  14.173
23962SOL    HW173783   3.773   2.006  14.125
23962SOL    HW273784   3.893   2.094  14.155
23963SOL     OW73785   8.030   2.266   9.143
23963SOL    HW173786   8.121   2.236   9.134
23963SOL    HW273787   8.025   2.301   9.232
23964SOL     OW73788   8.423   0.750   1.872
23964SOL    HW173789   8.330   0.746   1.894
23964SOL    HW273790   8.427   0.808   1.796
23965SOL     OW73791   3.363   9.791   3.107
23965SOL    HW173792   3.310   9.866   3.133
23965SOL    HW273793   3.351   9.785   3.012
23966SOL     OW73794   9.315   2.987   5.677
23966SOL    HW173795   9.329   2.898   5.710
23966SOL    HW273796   9.379   3.040   5.725
23967SOL     OW73797   1.278   5.736   2.173
23967SOL    HW173798   1.332   5.815   2.163
23967SOL    HW273799   1.214   5.758   2.241
23968SOL     OW73800   4.608  11.395   6.594
23968SOL    HW173801   4.673  11.375   6.661
23968SOL    HW273802   4.524  11.391   6.641
23969SOL     OW73803   2.950   4.931   3.242
23969SOL    HW173804   2.898   4.852   3.223
23969SOL    HW273805   2.891   5.003   3.221
23970SOL     OW73806   6.497   2.891   3.351
23970SOL    HW173807   6.583   2.916   3.317
23970SOL    HW273808   6.460   2.835   3.282
23971SOL     OW73809   0.633  10.311  13.402
23971SOL    HW173810   0.698  10.380  13.405
23971SOL    HW273811   0.574  10.336  13.331
23972SOL     OW73812  11.535   8.023   7.719
23972SOL    HW173813  11.596   8.003   7.790
23972SOL    HW273814  11.575   8.098   7.673
23973SOL     OW73815   2.115  10.232  14.022
23973SOL    HW173816   2.176  10.233  14.095
23973SOL    HW273817   2.140  10.308  13.969
23974SOL     OW73818   9.526  10.723   9.331
23974SOL    HW173819   9.468  10.786   9.373
23974SOL    HW273820   9.475  10.642   9.327
23975SOL     OW73821   8.390   5.723   8.307
23975SOL    HW173822   8.325   5.753   8.243
23975SOL    HW273823   8.352   5.748   8.391
23976SOL     OW73824   7.526   3.082   3.378
23976SOL    HW173825   7.469   3.151   3.344
23976SOL    HW273826   7.549   3.110   3.466
23977SOL     OW73827   3.242  13.252  11.276
23977SOL    HW173828   3.205  13.166  11.257
23977SOL    HW273829   3.234  13.262  11.371
23978SOL     OW73830  13.991   0.342   9.440
23978SOL    HW173831  13.952   0.255   9.429
23978SOL    HW273832  14.007   0.372   9.351
23979SOL     OW73833   8.392  11.016   8.253
23979SOL    HW173834   8.480  10.993   8.223
23979SOL    HW273835   8.334  10.984   8.184
23980SOL     OW73836   1.149  11.395   2.212
23980SOL    HW173837   1.111  11.317   2.253
23980SOL    HW273838   1.180  11.365   2.127
23981SOL     OW73839  14.531  11.168  13.162
23981SOL    HW173840  14.545  11.105  13.091
23981SOL    HW273841  14.476  11.121  13.225
23982SOL     OW73842   0.134  14.479  14.552
23982SOL    HW173843   0.143  14.395  14.508
23982SOL    HW273844   0.177  14.467  14.637
23983SOL     OW73845   4.125   5.409   3.222
23983SOL    HW173846   4.040   5.447   3.239
23983SOL    HW273847   4.112   5.315   3.234
23984SOL     OW73848  13.198   3.938   5.858
23984SOL    HW173849  13.190   3.897   5.772
23984SOL    HW273850  13.108   3.953   5.887
23985SOL     OW73851  14.247   5.201  11.558
23985SOL    HW173852  14.330   5.159  11.581
23985SOL    HW273853  14.252   5.212  11.463
23986SOL     OW73854  12.277   7.074  10.969
23986SOL    HW173855  12.325   7.154  10.947
23986SOL    HW273856  12.301   7.055  11.060
23987SOL     OW73857   5.250  12.235   7.018
23987SOL    HW173858   5.304  12.254   6.942
23987SOL    HW273859   5.267  12.307   7.078
23988SOL     OW73860   5.097   0.860   0.589
23988SOL    HW173861   5.131   0.948   0.602
23988SOL    HW273862   5.152   0.823   0.520
23989SOL     OW73863   2.160  13.154  12.088
23989SOL    HW173864   2.067  13.140  12.070
23989SOL    HW273865   2.190  13.073  12.129
23990SOL     OW73866   4.210   5.776   0.681
23990SOL    HW173867   4.301   5.747   0.690
23990SOL    HW273868   4.203   5.852   0.739
23991SOL     OW73869  10.237   7.632   7.337
23991SOL    HW173870  10.178   7.648   7.411
23991SOL    HW273871  10.313   7.687   7.355
23992SOL     OW73872   6.872  11.444  11.990
23992SOL    HW173873   6.923  11.520  11.965
23992SOL    HW273874   6.913  11.412  12.070
23993SOL     OW73875  13.475  12.282   5.666
23993SOL    HW173876  13.476  12.377   5.679
23993SOL    HW273877  13.393  12.265   5.619
23994SOL     OW73878   7.681   5.599   8.389
23994SOL    HW173879   7.765   5.617   8.346
23994SOL    HW273880   7.704   5.585   8.481
23995SOL     OW73881  14.791   2.946   7.842
23995SOL    HW173882  14.835   2.974   7.923
23995SOL    HW273883  14.698   2.947   7.863
23996SOL     OW73884  12.907  12.574   3.619
23996SOL    HW173885  12.855  12.586   3.699
23996SOL    HW273886  12.842  12.575   3.548
23997SOL     OW73887  11.649   0.748   3.137
23997SOL    HW173888  11.713   0.702   3.191
23997SOL    HW273889  11.680   0.838   3.135
23998SOL     OW73890   7.986  11.567   7.441
23998SOL    HW173891   7.895  11.566   7.470
23998SOL    HW273892   8.031  11.621   7.506
23999SOL     OW73893  10.398   8.097   9.257
23999SOL    HW173894  10.374   8.093   9.350
23999SOL    HW273895  10.333   8.043   9.213
24000SOL     OW73896   5.277  11.068   6.496
24000SOL    HW173897   5.286  11.065   6.591
24000SOL    HW273898   5.197  11.019   6.478
24001SOL     OW73899   1.163   7.421  13.987
24001SOL    HW173900   1.205   7.493  13.941
24001SOL    HW273901   1.200   7.424  14.075
24002SOL     OW73902  11.166   6.968   3.296
24002SOL    HW173903  11.127   7.040   3.345
24002SOL    HW273904  11.102   6.949   3.227
24003SOL     OW73905  11.479   9.584   7.710
24003SOL    HW173906  11.469   9.523   7.784
24003SOL    HW273907  11.544   9.648   7.741
24004SOL     OW73908   4.809   2.584  13.234
24004SOL    HW173909   4.735   2.623  13.187
24004SOL    HW273910   4.846   2.656  13.285
24005SOL     OW73911   5.181   5.749  11.022
24005SOL    HW173912   5.185   5.834  10.980
24005SOL    HW273913   5.101   5.709  10.989
24006SOL     OW73914   6.331  10.394   4.790
24006SOL    HW173915   6.389  10.454   4.837
24006SOL    HW273916   6.268  10.452   4.746
24007SOL     OW73917   3.603   2.118   9.364
24007SOL    HW173918   3.545   2.159   9.300
24007SOL    HW273919   3.668   2.072   9.312
24008SOL     OW73920   0.381  14.664  10.879
24008SOL    HW173921   0.476  14.659  10.885
24008SOL    HW273922   0.358  14.615  10.800
24009SOL     OW73923  10.802   4.134   5.839
24009SOL    HW173924  10.839   4.057   5.882
24009SOL    HW273925  10.855   4.207   5.872
24010SOL     OW73926   4.351  11.646  11.866
24010SOL    HW173927   4.424  11.683  11.817
24010SOL    HW273928   4.276  11.698  11.840
24011SOL     OW73929  11.100   4.131   5.706
24011SOL    HW173930  11.158   4.116   5.780
24011SOL    HW273931  11.092   4.045   5.664
24012SOL     OW73932  10.107   9.967   3.089
24012SOL    HW173933  10.095   9.873   3.073
24012SOL    HW273934  10.027   9.994   3.134
24013SOL     OW73935   3.509   5.210   5.493
24013SOL    HW173936   3.572   5.233   5.425
24013SOL    HW273937   3.434   5.269   5.478
24014SOL     OW73938   1.858   8.840   7.167
24014SOL    HW173939   1.905   8.902   7.112
24014SOL    HW273940   1.766   8.865   7.159
24015SOL     OW73941   4.715   6.556   8.017
24015SOL    HW173942   4.735   6.606   7.938
24015SOL    HW273943   4.621   6.540   8.012
24016SOL     OW73944   9.640  12.764   1.980
24016SOL    HW173945   9.585  12.686   1.971
24016SOL    HW273946   9.697  12.745   2.054
24017SOL     OW73947   1.062   8.402   4.818
24017SOL    HW173948   1.138   8.354   4.851
24017SOL    HW273949   1.079   8.411   4.724
24018SOL     OW73950   2.739   4.512  13.038
24018SOL    HW173951   2.779   4.580  12.985
24018SOL    HW273952   2.650   4.543  13.055
24019SOL     OW73953  11.494   8.221  13.253
24019SOL    HW173954  11.526   8.295  13.201
24019SOL    HW273955  11.461   8.159  13.188
24020SOL     OW73956   4.641   3.982   0.153
24020SOL    HW173957   4.722   4.028   0.175
24020SOL    HW273958   4.647   3.966   0.059
24021SOL     OW73959  10.561  14.655   3.534
24021SOL    HW173960  10.520  14.613   3.610
24021SOL    HW273961  10.512  14.736   3.523
24022SOL     OW73962   4.460  14.723  14.617
24022SOL    HW173963   4.445  14.758  14.529
24022SOL    HW273964   4.554  14.737  14.632
24023SOL     OW73965   9.972   1.038   7.232
24023SOL    HW173966  10.001   1.081   7.312
24023SOL    HW273967  10.045   0.982   7.206
24024SOL     OW73968   9.215   7.264  14.468
24024SOL    HW173969   9.184   7.350  14.493
24024SOL    HW273970   9.158   7.236  14.397
24025SOL     OW73971  12.741  12.186  12.959
24025SOL    HW173972  12.717  12.270  12.998
24025SOL    HW273973  12.667  12.128  12.979
24026SOL     OW73974   1.759   7.825   3.959
24026SOL    HW173975   1.790   7.914   3.940
24026SOL    HW273976   1.838   7.771   3.958
24027SOL     OW73977   9.192   8.119   5.937
24027SOL    HW173978   9.183   8.029   5.966
24027SOL    HW273979   9.230   8.165   6.013
24028SOL     OW73980   1.108  13.472  13.369
24028SOL    HW173981   1.175  13.492  13.303
24028SOL    HW273982   1.148  13.406  13.426
24029SOL     OW73983   3.652   0.366  10.125
24029SOL    HW173984   3.610   0.450  10.143
24029SOL    HW273985   3.611   0.336  10.044
24030SOL     OW73986   9.797   4.021   1.418
24030SOL    HW173987   9.715   3.997   1.460
24030SOL    HW273988   9.771   4.056   1.333
24031SOL     OW73989  10.769  12.070  13.601
24031SOL    HW173990  10.782  11.998  13.663
24031SOL    HW273991  10.820  12.044  13.524
24032SOL     OW73992  14.533   7.562   2.919
24032SOL    HW173993  14.531   7.565   3.015
24032SOL    HW273994  14.580   7.642   2.894
24033SOL     OW73995   4.851   8.029   1.618
24033SOL    HW173996   4.802   8.066   1.692
24033SOL    HW273997   4.842   7.934   1.628
24034SOL     OW73998   9.381   4.605  14.114
24034SOL    HW173999   9.461   4.608  14.062
24034SOL    HW274000   9.335   4.686  14.091
24035SOL     OW74001   7.895   4.509  13.939
24035SOL    HW174002   7.810   4.470  13.958
24035SOL    HW274003   7.879   4.603  13.942
24036SOL     OW74004   7.540   7.641  12.878
24036SOL    HW174005   7.505   7.718  12.833
24036SOL    HW274006   7.605   7.605  12.818
24037SOL     OW74007   4.459   9.177   9.511
24037SOL    HW174008   4.460   9.226   9.593
24037SOL    HW274009   4.542   9.199   9.469
24038SOL     OW74010  14.204   4.314   4.234
24038SOL    HW174011  14.298   4.314   4.250
24038SOL    HW274012  14.196   4.332   4.140
24039SOL     OW74013   1.631  11.423   7.588
24039SOL    HW174014   1.722  11.448   7.571
24039SOL    HW274015   1.586  11.439   7.505
24040SOL     OW74016   7.234   9.459  13.614
24040SOL    HW174017   7.314   9.415  13.587
24040SOL    HW274018   7.205   9.508  13.537
24041SOL     OW74019  12.024   5.616   1.672
24041SOL    HW174020  12.060   5.531   1.646
24041SOL    HW274021  11.934   5.597   1.699
24042SOL     OW74022   4.010   0.561  13.809
24042SOL    HW174023   4.077   0.596  13.750
24042SOL    HW274024   3.927   0.578  13.764
24043SOL     OW74025   2.209   1.298  10.967
24043SOL    HW174026   2.162   1.264  11.043
24043SOL    HW274027   2.273   1.360  11.004
24044SOL     OW74028  10.177   0.703   6.953
24044SOL    HW174029  10.179   0.730   6.862
24044SOL    HW274030  10.101   0.644   6.959
24045SOL     OW74031   2.062   4.596  10.689
24045SOL    HW174032   2.124   4.525  10.704
24045SOL    HW274033   2.026   4.577  10.602
24046SOL     OW74034   4.636  11.317  12.656
24046SOL    HW174035   4.657  11.238  12.705
24046SOL    HW274036   4.617  11.383  12.722
24047SOL     OW74037  12.322   2.967   5.317
24047SOL    HW174038  12.298   2.877   5.340
24047SOL    HW274039  12.313   3.016   5.398
24048SOL     OW74040   9.558   5.368   1.721
24048SOL    HW174041   9.495   5.342   1.654
24048SOL    HW274042   9.508   5.365   1.803
24049SOL     OW74043  12.824   3.257  12.759
24049SOL    HW174044  12.836   3.203  12.681
24049SOL    HW274045  12.818   3.346  12.726
24050SOL     OW74046   1.930   6.331   4.384
24050SOL    HW174047   1.963   6.407   4.432
24050SOL    HW274048   1.940   6.258   4.445
24051SOL     OW74049   5.312   9.910   4.165
24051SOL    HW174050   5.336   9.866   4.083
24051SOL    HW274051   5.239   9.859   4.200
24052SOL     OW74052   6.876   5.839   1.737
24052SOL    HW174053   6.870   5.880   1.823
24052SOL    HW274054   6.825   5.759   1.745
24053SOL     OW74055   8.680   2.739  10.407
24053SOL    HW174056   8.763   2.755  10.451
24053SOL    HW274057   8.658   2.822  10.366
24054SOL     OW74058   0.084   5.412   7.282
24054SOL    HW174059   0.142   5.351   7.235
24054SOL    HW274060   0.051   5.361   7.356
24055SOL     OW74061   9.437   3.162   0.614
24055SOL    HW174062   9.528   3.150   0.641
24055SOL    HW274063   9.387   3.101   0.667
24056SOL     OW74064   9.391   5.108  11.718
24056SOL    HW174065   9.366   5.022  11.685
24056SOL    HW274066   9.369   5.168  11.648
24057SOL     OW74067  11.470  12.602  12.380
24057SOL    HW174068  11.440  12.512  12.368
24057SOL    HW274069  11.510  12.602  12.467
24058SOL     OW74070  13.371   2.702   4.083
24058SOL    HW174071  13.330   2.788   4.080
24058SOL    HW274072  13.454   2.714   4.037
24059SOL     OW74073   7.780  12.568   1.138
24059SOL    HW174074   7.808  12.492   1.188
24059SOL    HW274075   7.728  12.620   1.199
24060SOL     OW74076  13.362   0.703  10.325
24060SOL    HW174077  13.274   0.667  10.328
24060SOL    HW274078  13.393   0.699  10.416
24061SOL     OW74079   8.537  13.821  11.841
24061SOL    HW174080   8.619  13.783  11.808
24061SOL    HW274081   8.550  13.827  11.936
24062SOL     OW74082   8.648   5.685   4.675
24062SOL    HW174083   8.556   5.698   4.652
24062SOL    HW274084   8.662   5.744   4.750
24063SOL     OW74085   5.203   6.461   9.950
24063SOL    HW174086   5.222   6.367   9.948
24063SOL    HW274087   5.222   6.491   9.861
24064SOL     OW74088   5.817   5.358  10.198
24064SOL    HW174089   5.721   5.363  10.195
24064SOL    HW274090   5.835   5.279  10.248
24065SOL     OW74091   2.339  12.418  11.894
24065SOL    HW174092   2.277  12.361  11.848
24065SOL    HW274093   2.365  12.368  11.971
24066SOL     OW74094   2.047  13.270   0.343
24066SOL    HW174095   2.001  13.228   0.271
24066SOL    HW274096   2.074  13.198   0.400
24067SOL     OW74097   6.098   6.863   9.997
24067SOL    HW174098   6.117   6.939   9.941
24067SOL    HW274099   6.184   6.825  10.016
24068SOL     OW74100  13.093   7.669   4.393
24068SOL    HW174101  13.139   7.679   4.310
24068SOL    HW274102  13.154   7.620   4.448
24069SOL     OW74103   7.054   4.700   4.443
24069SOL    HW174104   6.993   4.767   4.474
24069SOL    HW274105   7.022   4.678   4.355
24070SOL     OW74106   1.098   4.431  11.547
24070SOL    HW174107   1.010   4.403  11.521
24070SOL    HW274108   1.148   4.432  11.465
24071SOL     OW74109  12.512   6.715   5.053
24071SOL    HW174110  12.598   6.700   5.091
24071SOL    HW274111  12.527   6.772   4.978
24072SOL     OW74112   0.809  13.825   1.464
24072SOL    HW174113   0.835  13.740   1.430
24072SOL    HW274114   0.754  13.805   1.539
24073SOL     OW74115   8.348   2.573   4.884
24073SOL    HW174116   8.384   2.644   4.936
24073SOL    HW274117   8.379   2.590   4.795
24074SOL     OW74118   8.675  10.305   0.815
24074SOL    HW174119   8.720  10.384   0.785
24074SOL    HW274120   8.582  10.320   0.794
24075SOL     OW74121   2.164  14.631   7.146
24075SOL    HW174122   2.143  14.644   7.239
24075SOL    HW274123   2.084  14.592   7.109
24076SOL     OW74124  11.966   7.701   3.751
24076SOL    HW174125  11.926   7.616   3.768
24076SOL    HW274126  12.005   7.692   3.664
24077SOL     OW74127  12.357   9.662   4.858
24077SOL    HW174128  12.372   9.596   4.790
24077SOL    HW274129  12.310   9.732   4.813
24078SOL     OW74130   4.139   6.222   3.576
24078SOL    HW174131   4.199   6.170   3.523
24078SOL    HW274132   4.193   6.254   3.649
24079SOL     OW74133   2.452   6.617   8.999
24079SOL    HW174134   2.371   6.620   9.051
24079SOL    HW274135   2.446   6.694   8.942
24080SOL     OW74136   2.010   9.865   2.779
24080SOL    HW174137   2.061   9.785   2.788
24080SOL    HW274138   2.067   9.924   2.730
24081SOL     OW74139   3.209   9.684   0.201
24081SOL    HW174140   3.240   9.775   0.198
24081SOL    HW274141   3.186   9.664   0.111
24082SOL     OW74142   3.343   9.427  12.473
24082SOL    HW174143   3.417   9.437  12.533
24082SOL    HW274144   3.303   9.514  12.470
24083SOL     OW74145  13.225   2.538  13.545
24083SOL    HW174146  13.171   2.459  13.544
24083SOL    HW274147  13.162   2.610  13.538
24084SOL     OW74148  14.639   3.499  10.455
24084SOL    HW174149  14.610   3.590  10.455
24084SOL    HW274150  14.615   3.465  10.541
24085SOL     OW74151   4.033   9.649   2.292
24085SOL    HW174152   4.073   9.589   2.355
24085SOL    HW274153   4.088   9.643   2.214
24086SOL     OW74154  14.096   0.111   5.148
24086SOL    HW174155  14.039   0.073   5.215
24086SOL    HW274156  14.161   0.161   5.197
24087SOL     OW74157   5.176   9.694  13.146
24087SOL    HW174158   5.221   9.656  13.221
24087SOL    HW274159   5.101   9.636  13.131
24088SOL     OW74160   7.136   3.145   9.039
24088SOL    HW174161   7.211   3.116   8.986
24088SOL    HW274162   7.120   3.073   9.100
24089SOL     OW74163  10.571  10.819  14.691
24089SOL    HW174164  10.478  10.814  14.713
24089SOL    HW274165  10.607  10.881  14.754
24090SOL     OW74166   4.433   3.146  13.803
24090SOL    HW174167   4.351   3.158  13.850
24090SOL    HW274168   4.446   3.051  13.800
24091SOL     OW74169  14.136  10.928  11.105
24091SOL    HW174170  14.091  10.960  11.027
24091SOL    HW274171  14.087  10.849  11.130
24092SOL     OW74172   3.394   2.014   2.125
24092SOL    HW174173   3.420   1.967   2.204
24092SOL    HW274174   3.469   2.005   2.066
24093SOL     OW74175  11.837  10.119   9.878
24093SOL    HW174176  11.894  10.056   9.922
24093SOL    HW274177  11.844  10.198   9.930
24094SOL     OW74178  12.731   6.779  12.786
24094SOL    HW174179  12.701   6.708  12.842
24094SOL    HW274180  12.811   6.811  12.828
24095SOL     OW74181   8.737   8.371  14.668
24095SOL    HW174182   8.692   8.427  14.605
24095SOL    HW274183   8.797   8.319  14.615
24096SOL     OW74184   4.488   4.018   9.488
24096SOL    HW174185   4.452   3.956   9.552
24096SOL    HW274186   4.477   4.103   9.529
24097SOL     OW74187   1.352   2.808   3.680
24097SOL    HW174188   1.433   2.785   3.633
24097SOL    HW274189   1.330   2.730   3.730
24098SOL     OW74190  12.228  10.390  11.047
24098SOL    HW174191  12.285  10.356  11.117
24098SOL    HW274192  12.251  10.337  10.970
24099SOL     OW74193  14.511   7.019   0.853
24099SOL    HW174194  14.504   6.952   0.921
24099SOL    HW274195  14.590   6.996   0.804
24100SOL     OW74196   0.539   7.188   3.930
24100SOL    HW174197   0.488   7.159   4.005
24100SOL    HW274198   0.619   7.135   3.933
24101SOL     OW74199  11.737   5.318   8.065
24101SOL    HW174200  11.701   5.236   8.100
24101SOL    HW274201  11.805   5.342   8.128
24102SOL     OW74202   8.955   7.317   2.291
24102SOL    HW174203   8.960   7.400   2.243
24102SOL    HW274204   9.042   7.280   2.284
24103SOL     OW74205  13.875   1.334   6.957
24103SOL    HW174206  13.967   1.344   6.979
24103SOL    HW274207  13.871   1.348   6.862
24104SOL     OW74208   6.177   9.692  11.560
24104SOL    HW174209   6.155   9.771  11.510
24104SOL    HW274210   6.271   9.681  11.547
24105SOL     OW74211   0.963   4.913   3.134
24105SOL    HW174212   0.956   4.845   3.067
24105SOL    HW274213   1.026   4.879   3.197
24106SOL     OW74214   5.591   5.942   5.386
24106SOL    HW174215   5.630   5.857   5.365
24106SOL    HW274216   5.590   5.989   5.303
24107SOL     OW74217  10.168   4.695  13.517
24107SOL    HW174218  10.150   4.618  13.464
24107SOL    HW274219  10.125   4.677  13.601
24108SOL     OW74220   0.306   7.822   9.657
24108SOL    HW174221   0.323   7.894   9.596
24108SOL    HW274222   0.278   7.865   9.738
24109SOL     OW74223   5.024   8.328   2.676
24109SOL    HW174224   5.082   8.353   2.748
24109SOL    HW274225   5.028   8.232   2.675
24110SOL     OW74226  10.189   6.921   4.053
24110SOL    HW174227  10.128   6.891   3.985
24110SOL    HW274228  10.229   7.000   4.017
24111SOL     OW74229   5.048   9.784   0.847
24111SOL    HW174230   5.083   9.781   0.935
24111SOL    HW274231   5.095   9.715   0.800
24112SOL     OW74232  12.864  12.749   1.177
24112SOL    HW174233  12.933  12.723   1.239
24112SOL    HW274234  12.905  12.815   1.122
24113SOL     OW74235   3.344  10.437   0.584
24113SOL    HW174236   3.391  10.386   0.650
24113SOL    HW274237   3.312  10.372   0.521
24114SOL     OW74238  13.957   0.209  10.976
24114SOL    HW174239  13.876   0.169  10.943
24114SOL    HW274240  13.984   0.152  11.048
24115SOL     OW74241   2.613   9.322   6.091
24115SOL    HW174242   2.631   9.228   6.096
24115SOL    HW274243   2.692   9.363   6.127
24116SOL     OW74244   3.664   6.115   3.708
24116SOL    HW174245   3.749   6.158   3.707
24116SOL    HW274246   3.617   6.156   3.781
24117SOL     OW74247   7.943   5.946  13.037
24117SOL    HW174248   7.902   6.032  13.029
24117SOL    HW274249   8.027   5.964  13.079
24118SOL     OW74250   0.626  12.336   9.886
24118SOL    HW174251   0.602  12.243   9.891
24118SOL    HW274252   0.689  12.348   9.957
24119SOL     OW74253   3.366   1.323   9.435
24119SOL    HW174254   3.370   1.371   9.518
24119SOL    HW274255   3.274   1.326   9.410
24120SOL     OW74256   3.570  14.154   1.655
24120SOL    HW174257   3.489  14.161   1.705
24120SOL    HW274258   3.610  14.241   1.660
24121SOL     OW74259  10.748   0.084   7.244
24121SOL    HW174260  10.800   0.106   7.167
24121SOL    HW274261  10.681   0.024   7.212
24122SOL     OW74262   8.866   0.091   3.481
24122SOL    HW174263   8.923   0.055   3.413
24122SOL    HW274264   8.792   0.030   3.484
24123SOL     OW74265   7.270   7.505   6.385
24123SOL    HW174266   7.284   7.595   6.354
24123SOL    HW274267   7.293   7.450   6.310
24124SOL     OW74268   7.058   0.836   3.234
24124SOL    HW174269   6.964   0.818   3.233
24124SOL    HW274270   7.064   0.931   3.242
24125SOL     OW74271  11.164  13.875  11.307
24125SOL    HW174272  11.101  13.942  11.280
24125SOL    HW274273  11.110  13.798  11.326
24126SOL     OW74274  12.032   4.883   7.703
24126SOL    HW174275  11.971   4.809   7.709
24126SOL    HW274276  11.984   4.949   7.653
24127SOL     OW74277   0.651   5.188   5.705
24127SOL    HW174278   0.623   5.181   5.614
24127SOL    HW274279   0.609   5.114   5.749
24128SOL     OW74280   7.823   0.907  10.600
24128SOL    HW174281   7.902   0.862  10.631
24128SOL    HW274282   7.821   0.891  10.506
24129SOL     OW74283   0.111   8.393   1.860
24129SOL    HW174284   0.033   8.406   1.806
24129SOL    HW274285   0.084   8.332   1.928
24130SOL     OW74286   9.625  11.554   9.118
24130SOL    HW174287   9.558  11.610   9.080
24130SOL    HW274288   9.587  11.466   9.119
24131SOL     OW74289   8.075   1.802   6.541
24131SOL    HW174290   8.048   1.768   6.455
24131SOL    HW274291   8.168   1.777   6.548
24132SOL     OW74292   5.530   9.752   4.950
24132SOL    HW174293   5.482   9.810   4.891
24132SOL    HW274294   5.477   9.672   4.953
24133SOL     OW74295   1.368   0.697   9.642
24133SOL    HW174296   1.314   0.623   9.614
24133SOL    HW274297   1.332   0.722   9.727
24134SOL     OW74298   2.896   6.171  14.606
24134SOL    HW174299   2.852   6.171  14.690
24134SOL    HW274300   2.960   6.100  14.612
24135SOL     OW74301   5.215   2.175  11.710
24135SOL    HW174302   5.133   2.192  11.756
24135SOL    HW274303   5.282   2.180  11.777
24136SOL     OW74304   2.374  11.893   3.046
24136SOL    HW174305   2.388  11.855   2.959
24136SOL    HW274306   2.282  11.873   3.066
24137SOL     OW74307  12.765   5.226   8.773
24137SOL    HW174308  12.856   5.200   8.786
24137SOL    HW274309  12.737   5.259   8.858
24138SOL     OW74310   8.526   5.643   1.070
24138SOL    HW174311   8.500   5.729   1.037
24138SOL    HW274312   8.542   5.656   1.163
24139SOL     OW74313   1.538   5.474   8.087
24139SOL    HW174314   1.528   5.380   8.101
24139SOL    HW274315   1.461   5.513   8.129
24140SOL     OW74316   5.598   4.337   6.187
24140SOL    HW174317   5.576   4.281   6.112
24140SOL    HW274318   5.548   4.417   6.172
24141SOL     OW74319   3.549   5.020   3.001
24141SOL    HW174320   3.644   5.035   3.004
24141SOL    HW274321   3.538   4.929   3.029
24142SOL     OW74322   8.510   9.643  10.463
24142SOL    HW174323   8.468   9.560  10.484
24142SOL    HW274324   8.601   9.631  10.489
24143SOL     OW74325   8.321   9.828   0.696
24143SOL    HW174326   8.332   9.867   0.609
24143SOL    HW274327   8.379   9.752   0.696
24144SOL     OW74328   2.717   8.071  13.705
24144SOL    HW174329   2.705   7.979  13.732
24144SOL    HW274330   2.628   8.103  13.691
24145SOL     OW74331  11.761   5.994   5.316
24145SOL    HW174332  11.672   5.993   5.351
24145SOL    HW274333  11.817   5.983   5.393
24146SOL     OW74334   6.532   7.637  14.600
24146SOL    HW174335   6.530   7.729  14.627
24146SOL    HW274336   6.497   7.589  14.674
24147SOL     OW74337   9.365   9.801   9.129
24147SOL    HW174338   9.353   9.722   9.077
24147SOL    HW274339   9.324   9.870   9.077
24148SOL     OW74340  11.380  12.530   8.494
24148SOL    HW174341  11.460  12.543   8.442
24148SOL    HW274342  11.388  12.441   8.529
24149SOL     OW74343   5.799   7.810  14.441
24149SOL    HW174344   5.865   7.861  14.488
24149SOL    HW274345   5.807   7.839  14.350
24150SOL     OW74346   5.741  14.340  12.463
24150SOL    HW174347   5.795  14.342  12.385
24150SOL    HW274348   5.789  14.390  12.528
24151SOL     OW74349   6.526   9.917  13.454
24151SOL    HW174350   6.466   9.865  13.507
24151SOL    HW274351   6.494  10.007  13.461
24152SOL     OW74352  13.618   9.286   3.165
24152SOL    HW174353  13.527   9.256   3.171
24152SOL    HW274354  13.666   9.212   3.127
24153SOL     OW74355   5.512   3.607   4.313
24153SOL    HW174356   5.506   3.683   4.256
24153SOL    HW274357   5.513   3.642   4.402
24154SOL     OW74358  13.979   2.577   1.110
24154SOL    HW174359  13.959   2.491   1.148
24154SOL    HW274360  14.070   2.593   1.135
24155SOL     OW74361   1.065   2.475   9.873
24155SOL    HW174362   1.119   2.398   9.854
24155SOL    HW274363   1.017   2.492   9.792
24156SOL     OW74364   4.562   5.272   7.464
24156SOL    HW174365   4.641   5.232   7.427
24156SOL    HW274366   4.494   5.206   7.452
24157SOL     OW74367   7.153   2.708  14.458
24157SOL    HW174368   7.232   2.656  14.455
24157SOL    HW274369   7.093   2.666  14.396
24158SOL     OW74370   1.025   3.569   5.452
24158SOL    HW174371   1.075   3.648   5.471
24158SOL    HW274372   1.076   3.524   5.384
24159SOL     OW74373   9.881  12.551  13.790
24159SOL    HW174374   9.795  12.590  13.809
24159SOL    HW274375   9.943  12.622  13.802
24160SOL     OW74376   3.853  12.931  11.248
24160SOL    HW174377   3.809  12.887  11.174
24160SOL    HW274378   3.800  13.009  11.264
24161SOL     OW74379  10.553   4.952   0.780
24161SOL    HW174380  10.577   5.035   0.738
24161SOL    HW274381  10.469   4.929   0.741
24162SOL     OW74382   1.107   6.836  10.478
24162SOL    HW174383   1.080   6.784  10.402
24162SOL    HW274384   1.029   6.887  10.501
24163SOL     OW74385  13.290  14.084   3.604
24163SOL    HW174386  13.218  14.075   3.667
24163SOL    HW274387  13.345  14.008   3.621
24164SOL     OW74388   3.520  10.558   0.889
24164SOL    HW174389   3.555  10.598   0.968
24164SOL    HW274390   3.587  10.572   0.823
24165SOL     OW74391   4.000   9.055  13.906
24165SOL    HW174392   3.978   9.032  13.997
24165SOL    HW274393   3.922   9.099  13.873
24166SOL     OW74394  14.241   1.073   2.207
24166SOL    HW174395  14.185   1.122   2.146
24166SOL    HW274396  14.226   0.981   2.183
24167SOL     OW74397   7.049   3.513   4.259
24167SOL    HW174398   7.104   3.458   4.314
24167SOL    HW274399   6.973   3.459   4.240
24168SOL     OW74400   4.017   3.576   3.265
24168SOL    HW174401   4.011   3.651   3.324
24168SOL    HW274402   3.958   3.597   3.192
24169SOL     OW74403   2.507   1.821  11.088
24169SOL    HW174404   2.602   1.811  11.089
24169SOL    HW274405   2.482   1.807  10.997
24170SOL     OW74406  14.283   1.825   9.676
24170SOL    HW174407  14.319   1.775   9.750
24170SOL    HW274408  14.190   1.804   9.676
24171SOL     OW74409   2.065   7.933  11.697
24171SOL    HW174410   1.991   7.994  11.694
24171SOL    HW274411   2.050   7.881  11.775
24172SOL     OW74412  10.019   1.383  13.055
24172SOL    HW174413  10.061   1.328  12.990
24172SOL    HW274414  10.041   1.472  13.029
24173SOL     OW74415   2.360  14.145  11.659
24173SOL    HW174416   2.433  14.206  11.667
24173SOL    HW274417   2.356  14.123  11.566
24174SOL     OW74418  11.605  11.682   5.960
24174SOL    HW174419  11.630  11.711   5.872
24174SOL    HW274420  11.683  11.639   5.994
24175SOL     OW74421   0.772  12.304  11.100
24175SOL    HW174422   0.693  12.338  11.142
24175SOL    HW274423   0.834  12.378  11.102
24176SOL     OW74424  14.005   5.817  11.804
24176SOL    HW174425  14.025   5.903  11.766
24176SOL    HW274426  14.000   5.833  11.899
24177SOL     OW74427   8.023  11.547   0.526
24177SOL    HW174428   8.100  11.578   0.479
24177SOL    HW274429   8.043  11.565   0.618
24178SOL     OW74430   6.307   9.970  10.042
24178SOL    HW174431   6.232  10.016  10.080
24178SOL    HW274432   6.372  10.039  10.028
24179SOL     OW74433   5.006   3.311  12.839
24179SOL    HW174434   4.966   3.328  12.925
24179SOL    HW274435   4.937   3.268  12.789
24180SOL     OW74436  12.749   9.221   0.442
24180SOL    HW174437  12.759   9.127   0.460
24180SOL    HW274438  12.823   9.262   0.487
24181SOL     OW74439   7.239   2.046  13.510
24181SOL    HW174440   7.295   2.027  13.585
24181SOL    HW274441   7.231   1.963  13.463
24182SOL     OW74442   4.221  11.168   1.239
24182SOL    HW174443   4.283  11.120   1.292
24182SOL    HW274444   4.200  11.246   1.291
24183SOL     OW74445   4.802  12.891   9.425
24183SOL    HW174446   4.775  12.973   9.466
24183SOL    HW274447   4.880  12.864   9.474
24184SOL     OW74448   7.302   9.554  11.065
24184SOL    HW174449   7.278   9.463  11.050
24184SOL    HW274450   7.384   9.565  11.016
24185SOL     OW74451   0.753   1.188  14.866
24185SOL    HW174452   0.777   1.113   0.040
24185SOL    HW274453   0.806   1.179  14.787
24186SOL     OW74454   5.230   3.703   9.639
24186SOL    HW174455   5.162   3.660   9.589
24186SOL    HW274456   5.183   3.764   9.696
24187SOL     OW74457  14.575   5.090  13.220
24187SOL    HW174458  14.648   5.107  13.160
24187SOL    HW274459  14.615   5.089  13.307
24188SOL     OW74460   7.350   8.745  11.022
24188SOL    HW174461   7.361   8.835  11.053
24188SOL    HW274462   7.376   8.690  11.096
24189SOL     OW74463   7.478   3.976  12.868
24189SOL    HW174464   7.497   3.884  12.846
24189SOL    HW274465   7.555   4.024  12.840
24190SOL     OW74466  10.953  13.331   9.920
24190SOL    HW174467  11.021  13.355   9.983
24190SOL    HW274468  10.890  13.403   9.924
24191SOL     OW74469   6.308  12.438   2.358
24191SOL    HW174470   6.326  12.345   2.362
24191SOL    HW274471   6.299  12.465   2.449
24192SOL     OW74472   9.366  13.612  11.022
24192SOL    HW174473   9.438  13.550  11.022
24192SOL    HW274474   9.288  13.559  11.007
24193SOL     OW74475   3.120   2.317   0.227
24193SOL    HW174476   3.210   2.295   0.249
24193SOL    HW274477   3.104   2.274   0.143
24194SOL     OW74478  11.788  13.024  10.280
24194SOL    HW174479  11.727  13.067  10.221
24194SOL    HW274480  11.874  13.061  10.258
24195SOL     OW74481   1.443   4.414  12.784
24195SOL    HW174482   1.516   4.450  12.734
24195SOL    HW274483   1.374   4.480  12.777
24196SOL     OW74484   5.453   5.204   8.628
24196SOL    HW174485   5.499   5.123   8.648
24196SOL    HW274486   5.518   5.258   8.583
24197SOL     OW74487   6.261  12.368   2.817
24197SOL    HW174488   6.167  12.386   2.820
24197SOL    HW274489   6.274  12.298   2.881
24198SOL     OW74490   0.359   2.699  11.017
24198SOL    HW174491   0.399   2.712  10.931
24198SOL    HW274492   0.270   2.669  10.998
24199SOL     OW74493   3.717   5.042  10.945
24199SOL    HW174494   3.778   4.971  10.965
24199SOL    HW274495   3.715   5.095  11.025
24200SOL     OW74496  10.807   6.102   1.208
24200SOL    HW174497  10.799   6.132   1.117
24200SOL    HW274498  10.887   6.049   1.209
24201SOL     OW74499  13.770   3.343   0.901
24201SOL    HW174500  13.727   3.407   0.844
24201SOL    HW274501  13.856   3.380   0.918
24202SOL     OW74502   2.280  13.568  14.312
24202SOL    HW174503   2.221  13.642  14.323
24202SOL    HW274504   2.254  13.506  14.381
24203SOL     OW74505   3.740   6.080   0.214
24203SOL    HW174506   3.664   6.026   0.235
24203SOL    HW274507   3.764   6.120   0.298
24204SOL     OW74508   2.893   3.844   4.289
24204SOL    HW174509   2.922   3.766   4.241
24204SOL    HW274510   2.821   3.812   4.345
24205SOL     OW74511  11.191   4.644  12.660
24205SOL    HW174512  11.174   4.675  12.749
24205SOL    HW274513  11.259   4.703  12.626
24206SOL     OW74514   8.275  13.076  13.944
24206SOL    HW174515   8.329  12.998  13.931
24206SOL    HW274516   8.331  13.137  13.993
24207SOL     OW74517   1.248   0.982   2.891
24207SOL    HW174518   1.183   0.927   2.848
24207SOL    HW274519   1.304   0.921   2.939
24208SOL     OW74520   4.980  12.663  13.722
24208SOL    HW174521   4.939  12.716  13.790
24208SOL    HW274522   5.067  12.642  13.758
24209SOL     OW74523   5.808   6.963  12.996
24209SOL    HW174524   5.842   7.053  12.991
24209SOL    HW274525   5.759   6.952  12.914
24210SOL     OW74526   3.831   8.474   9.599
24210SOL    HW174527   3.902   8.494   9.660
24210SOL    HW274528   3.803   8.559   9.566
24211SOL     OW74529   6.293   7.127  13.681
24211SOL    HW174530   6.299   7.139  13.776
24211SOL    HW274531   6.364   7.067  13.660
24212SOL     OW74532   3.796   5.713   9.642
24212SOL    HW174533   3.791   5.619   9.661
24212SOL    HW274534   3.861   5.720   9.572
24213SOL     OW74535  12.683   4.913  11.652
24213SOL    HW174536  12.729   4.955  11.579
24213SOL    HW274537  12.753   4.883  11.710
24214SOL     OW74538   8.760   3.662  14.485
24214SOL    HW174539   8.674   3.622  14.474
24214SOL    HW274540   8.752   3.750  14.449
24215SOL     OW74541  11.251  14.862   2.689
24215SOL    HW174542  11.212  14.779   2.662
24215SOL    HW274543  11.215   0.047   2.629
24216SOL     OW74544   9.022  13.338   5.372
24216SOL    HW174545   9.110  13.300   5.381
24216SOL    HW274546   8.965  13.262   5.362
24217SOL     OW74547   5.490   0.178   2.515
24217SOL    HW174548   5.482   0.170   2.610
24217SOL    HW274549   5.442   0.103   2.481
24218SOL     OW74550  13.826   8.130   8.421
24218SOL    HW174551  13.861   8.145   8.333
24218SOL    HW274552  13.898   8.091   8.470
24219SOL     OW74553  13.827   7.160   4.459
24219SOL    HW174554  13.737   7.132   4.450
24219SOL    HW274555  13.877   7.079   4.472
24220SOL     OW74556   0.080  11.668   8.613
24220SOL    HW174557   0.090  11.590   8.668
24220SOL    HW274558   0.121  11.738   8.664
24221SOL     OW74559   4.713   6.016   0.661
24221SOL    HW174560   4.802   6.009   0.625
24221SOL    HW274561   4.726   6.035   0.753
24222SOL     OW74562  13.141   3.507  13.737
24222SOL    HW174563  13.045   3.504  13.740
24222SOL    HW274564  13.167   3.532  13.826
24223SOL     OW74565   4.297   8.792   1.870
24223SOL    HW174566   4.240   8.789   1.947
24223SOL    HW274567   4.385   8.805   1.905
24224SOL     OW74568   9.054   0.081  13.923
24224SOL    HW174569   9.023   0.000  13.964
24224SOL    HW274570   9.103   0.052  13.846
24225SOL     OW74571   1.802  12.611   9.268
24225SOL    HW174572   1.890  12.624   9.303
24225SOL    HW274573   1.750  12.681   9.306
24226SOL     OW74574   8.391   4.940   7.360
24226SOL    HW174575   8.396   4.933   7.265
24226SOL    HW274576   8.406   5.033   7.378
24227SOL     OW74577   9.816   7.417   0.957
24227SOL    HW174578   9.833   7.324   0.946
24227SOL    HW274579   9.726   7.429   0.926
24228SOL     OW74580  14.476  13.097  14.265
24228SOL    HW174581  14.459  13.004  14.255
24228SOL    HW274582  14.555  13.103  14.318
24229SOL     OW74583   5.390   1.758  10.131
24229SOL    HW174584   5.399   1.707  10.051
24229SOL    HW274585   5.451   1.831  10.120
24230SOL     OW74586  10.331   9.873  13.594
24230SOL    HW174587  10.366   9.785  13.583
24230SOL    HW274588  10.248   9.861  13.641
24231SOL     OW74589   0.343   0.754  14.387
24231SOL    HW174590   0.252   0.781  14.374
24231SOL    HW274591   0.357   0.685  14.323
24232SOL     OW74592  10.406  10.569   8.092
24232SOL    HW174593  10.342  10.519   8.142
24232SOL    HW274594  10.484  10.514   8.091
24233SOL     OW74595  12.767  10.213   0.954
24233SOL    HW174596  12.699  10.276   0.928
24233SOL    HW274597  12.839  10.267   0.986
24234SOL     OW74598   8.356   9.192   1.072
24234SOL    HW174599   8.326   9.131   1.005
24234SOL    HW274600   8.451   9.180   1.076
24235SOL     OW74601   7.866  11.721  12.712
24235SOL    HW174602   7.823  11.638  12.692
24235SOL    HW274603   7.929  11.734  12.641
24236SOL     OW74604   8.557   8.203  11.952
24236SOL    HW174605   8.531   8.213  11.860
24236SOL    HW274606   8.621   8.132  11.951
24237SOL     OW74607  12.192   7.873   2.727
24237SOL    HW174608  12.171   7.845   2.638
24237SOL    HW274609  12.231   7.959   2.717
24238SOL     OW74610   8.655  13.184   6.721
24238SOL    HW174611   8.566  13.156   6.745
24238SOL    HW274612   8.644  13.271   6.683
24239SOL     OW74613   1.474   0.038   5.347
24239SOL    HW174614   1.550   0.041   5.288
24239SOL    HW274615   1.500  14.858   5.416
24240SOL     OW74616   7.753   1.892   3.448
24240SOL    HW174617   7.748   1.897   3.352
24240SOL    HW274618   7.825   1.831   3.465
24241SOL     OW74619  10.409   4.564   9.307
24241SOL    HW174620  10.431   4.478   9.343
24241SOL    HW274621  10.334   4.548   9.250
24242SOL     OW74622  13.486  11.996   5.404
24242SOL    HW174623  13.518  12.015   5.316
24242SOL    HW274624  13.395  12.026   5.403
24243SOL     OW74625   2.486   7.050  11.728
24243SOL    HW174626   2.573   7.029  11.693
24243SOL    HW274627   2.499   7.055  11.823
24244SOL     OW74628   1.794   4.360  12.483
24244SOL    HW174629   1.813   4.388  12.393
24244SOL    HW274630   1.776   4.266  12.475
24245SOL     OW74631   7.681  12.784   0.246
24245SOL    HW174632   7.758  12.757   0.297
24245SOL    HW274633   7.711  12.860   0.197
24246SOL     OW74634   0.694   7.216   7.417
24246SOL    HW174635   0.684   7.123   7.437
24246SOL    HW274636   0.615   7.239   7.369
24247SOL     OW74637   3.174   6.189   5.982
24247SOL    HW174638   3.234   6.171   5.910
24247SOL    HW274639   3.162   6.284   5.981
24248SOL     OW74640   8.247  10.440   5.472
24248SOL    HW174641   8.265  10.359   5.423
24248SOL    HW274642   8.322  10.496   5.453
24249SOL     OW74643   7.406   4.120   8.027
24249SOL    HW174644   7.391   4.062   7.953
24249SOL    HW274645   7.498   4.144   8.020
24250SOL     OW74646  11.201   7.468   2.775
24250SOL    HW174647  11.194   7.442   2.683
24250SOL    HW274648  11.212   7.563   2.772
24251SOL     OW74649  14.629   2.070   4.006
24251SOL    HW174650  14.547   2.021   4.002
24251SOL    HW274651  14.655   2.067   4.098
24252SOL     OW74652   5.697   6.058   0.217
24252SOL    HW174653   5.665   6.112   0.145
24252SOL    HW274654   5.792   6.060   0.208
24253SOL     OW74655   5.730  12.503   1.768
24253SOL    HW174656   5.710  12.444   1.695
24253SOL    HW274657   5.674  12.473   1.840
24254SOL     OW74658  12.994   7.120   4.135
24254SOL    HW174659  12.936   7.193   4.115
24254SOL    HW274660  12.987   7.062   4.059
24255SOL     OW74661   0.085   9.962   8.167
24255SOL    HW174662   0.086   9.884   8.112
24255SOL    HW274663   0.052   9.931   8.252
24256SOL     OW74664   5.277   9.565  11.357
24256SOL    HW174665   5.284   9.661  11.354
24256SOL    HW274666   5.324   9.541  11.437
24257SOL     OW74667   8.833  14.594   1.205
24257SOL    HW174668   8.773  14.663   1.178
24257SOL    HW274669   8.776  14.526   1.241
24258SOL     OW74670   6.623   0.859   5.536
24258SOL    HW174671   6.712   0.836   5.562
24258SOL    HW274672   6.585   0.777   5.506
24259SOL     OW74673  13.388   2.180   8.300
24259SOL    HW174674  13.434   2.127   8.236
24259SOL    HW274675  13.297   2.152   8.294
24260SOL     OW74676   3.547   8.516   4.955
24260SOL    HW174677   3.561   8.423   4.975
24260SOL    HW274678   3.589   8.528   4.869
24261SOL     OW74679  13.082   1.525   8.379
24261SOL    HW174680  13.086   1.467   8.303
24261SOL    HW274681  13.107   1.469   8.452
24262SOL     OW74682   7.460   6.692  11.628
24262SOL    HW174683   7.521   6.751  11.585
24262SOL    HW274684   7.428   6.741  11.704
24263SOL     OW74685   2.287   8.014   0.496
24263SOL    HW174686   2.229   8.004   0.421
24263SOL    HW274687   2.322   7.927   0.511
24264SOL     OW74688   5.567   9.535  14.532
24264SOL    HW174689   5.596   9.503  14.618
24264SOL    HW274690   5.606   9.622  14.525
24265SOL     OW74691  12.799   3.194   0.457
24265SOL    HW174692  12.873   3.232   0.410
24265SOL    HW274693  12.797   3.103   0.428
24266SOL     OW74694  12.236   4.329   7.447
24266SOL    HW174695  12.236   4.368   7.360
24266SOL    HW274696  12.224   4.404   7.506
24267SOL     OW74697   7.911   5.338  13.419
24267SOL    HW174698   7.968   5.261  13.415
24267SOL    HW274699   7.831   5.311  13.374
24268SOL     OW74700   1.818   0.957  14.365
24268SOL    HW174701   1.746   1.008  14.329
24268SOL    HW274702   1.828   0.883  14.305
24269SOL     OW74703   3.783   9.207   6.904
24269SOL    HW174704   3.759   9.268   6.834
24269SOL    HW274705   3.859   9.248   6.946
24270SOL     OW74706  14.294   9.104  14.518
24270SOL    HW174707  14.274   9.116  14.611
24270SOL    HW274708  14.382   9.140  14.507
24271SOL     OW74709   0.198  14.298   9.610
24271SOL    HW174710   0.196  14.394   9.612
24271SOL    HW274711   0.290  14.275   9.617
24272SOL     OW74712   7.956  10.650   1.060
24272SOL    HW174713   8.021  10.648   0.990
24272SOL    HW274714   7.888  10.710   1.028
24273SOL     OW74715   5.020  12.273   4.723
24273SOL    HW174716   5.114  12.264   4.710
24273SOL    HW274717   5.008  12.365   4.748
24274SOL     OW74718   3.283  13.480   4.250
24274SOL    HW174719   3.333  13.456   4.328
24274SOL    HW274720   3.316  13.566   4.225
24275SOL     OW74721  13.192   2.622   9.887
24275SOL    HW174722  13.239   2.596   9.807
24275SOL    HW274723  13.174   2.539   9.932
24276SOL     OW74724   6.477   1.766  14.358
24276SOL    HW174725   6.428   1.694  14.398
24276SOL    HW274726   6.521   1.726  14.283
24277SOL     OW74727   1.388   2.692   3.123
24277SOL    HW174728   1.416   2.601   3.112
24277SOL    HW274729   1.323   2.705   3.053
24278SOL     OW74730   2.112   2.064  11.513
24278SOL    HW174731   2.096   2.156  11.496
24278SOL    HW274732   2.056   2.017  11.451
24279SOL     OW74733  14.676   0.342   5.084
24279SOL    HW174734  14.703   0.390   5.162
24279SOL    HW274735  14.755   0.297   5.055
24280SOL     OW74736   3.550  11.491   8.187
24280SOL    HW174737   3.565  11.540   8.107
24280SOL    HW274738   3.634  11.446   8.203
24281SOL     OW74739  14.033   9.884   1.820
24281SOL    HW174740  14.040   9.813   1.884
24281SOL    HW274741  14.084   9.852   1.745
24282SOL     OW74742   2.372  12.188   2.894
24282SOL    HW174743   2.351  12.097   2.874
24282SOL    HW274744   2.385  12.190   2.988
24283SOL     OW74745  14.053   3.964   6.345
24283SOL    HW174746  14.051   4.033   6.279
24283SOL    HW274747  14.056   4.011   6.429
24284SOL     OW74748   4.722   4.782   2.889
24284SOL    HW174749   4.738   4.770   2.983
24284SOL    HW274750   4.792   4.839   2.860
24285SOL     OW74751  11.662  10.050   1.749
24285SOL    HW174752  11.589  10.006   1.706
24285SOL    HW274753  11.647  10.036   1.842
24286SOL     OW74754   9.145  13.547  11.537
24286SOL    HW174755   9.153  13.461  11.578
24286SOL    HW274756   9.180  13.535  11.449
24287SOL     OW74757   0.051  14.317   8.879
24287SOL    HW174758   0.021  14.376   8.809
24287SOL    HW274759   0.003  14.235   8.863
24288SOL     OW74760   5.958  12.534   8.921
24288SOL    HW174761   5.964  12.537   8.825
24288SOL    HW274762   5.988  12.446   8.944
24289SOL     OW74763   5.597   3.601  11.659
24289SOL    HW174764   5.666   3.667  11.669
24289SOL    HW274765   5.536   3.620  11.730
24290SOL     OW74766   5.020   6.722   4.954
24290SOL    HW174767   5.031   6.648   4.894
24290SOL    HW274768   5.107   6.736   4.990
24291SOL     OW74769   5.091   2.279   9.483
24291SOL    HW174770   5.096   2.238   9.396
24291SOL    HW274771   5.009   2.245   9.520
24292SOL     OW74772   3.544   9.619   5.287
24292SOL    HW174773   3.549   9.569   5.369
24292SOL    HW274774   3.456   9.601   5.254
24293SOL     OW74775   5.424  11.260   3.290
24293SOL    HW174776   5.455  11.319   3.359
24293SOL    HW274777   5.413  11.317   3.214
24294SOL     OW74778   5.321  10.900   3.913
24294SOL    HW174779   5.332  10.865   4.001
24294SOL    HW274780   5.228  10.890   3.894
24295SOL     OW74781   0.289  13.260  13.589
24295SOL    HW174782   0.350  13.191  13.564
24295SOL    HW274783   0.345  13.333  13.617
24296SOL     OW74784   3.381  11.125   9.811
24296SOL    HW174785   3.358  11.214   9.837
24296SOL    HW274786   3.476  11.125   9.805
24297SOL     OW74787   0.773   4.589   4.154
24297SOL    HW174788   0.718   4.590   4.076
24297SOL    HW274789   0.787   4.496   4.172
24298SOL     OW74790  10.737  12.768   7.000
24298SOL    HW174791  10.757  12.714   7.077
24298SOL    HW274792  10.719  12.855   7.036
24299SOL     OW74793  13.725   5.820   6.494
24299SOL    HW174794  13.703   5.886   6.428
24299SOL    HW274795  13.640   5.791   6.528
24300SOL     OW74796   1.055   9.696  12.133
24300SOL    HW174797   1.078   9.604  12.143
24300SOL    HW274798   0.961   9.699  12.150
24301SOL     OW74799   1.503   6.419  13.614
24301SOL    HW174800   1.544   6.344  13.658
24301SOL    HW274801   1.528   6.495  13.668
24302SOL     OW74802   4.614   8.760   5.204
24302SOL    HW174803   4.704   8.791   5.209
24302SOL    HW274804   4.600   8.713   5.287
24303SOL     OW74805   1.980  11.956  11.052
24303SOL    HW174806   1.928  12.024  11.008
24303SOL    HW274807   2.050  12.003  11.095
24304SOL     OW74808  11.170   2.493   8.609
24304SOL    HW174809  11.109   2.509   8.681
24304SOL    HW274810  11.216   2.577   8.598
24305SOL     OW74811   6.988   5.490   0.418
24305SOL    HW174812   7.007   5.577   0.453
24305SOL    HW274813   6.897   5.472   0.445
24306SOL     OW74814  12.416   2.414   1.896
24306SOL    HW174815  12.331   2.402   1.854
24306SOL    HW274816  12.396   2.456   1.979
24307SOL     OW74817   3.097  14.761   3.309
24307SOL    HW174818   3.097  14.675   3.351
24307SOL    HW274819   3.088  14.823   3.381
24308SOL     OW74820   2.867   1.425  10.585
24308SOL    HW174821   2.799   1.486  10.556
24308SOL    HW274822   2.859   1.424  10.680
24309SOL     OW74823  10.515   9.836  12.299
24309SOL    HW174824  10.606   9.813  12.286
24309SOL    HW274825  10.517   9.909  12.361
24310SOL     OW74826  14.204   0.801   7.907
24310SOL    HW174827  14.114   0.772   7.922
24310SOL    HW274828  14.256   0.720   7.910
24311SOL     OW74829   1.221   7.031   3.760
24311SOL    HW174830   1.261   7.096   3.818
24311SOL    HW274831   1.232   7.066   3.672
24312SOL     OW74832   6.767   0.802   7.129
24312SOL    HW174833   6.857   0.820   7.156
24312SOL    HW274834   6.752   0.711   7.155
24313SOL     OW74835  13.446   9.782   0.955
24313SOL    HW174836  13.443   9.715   0.887
24313SOL    HW274837  13.502   9.746   1.023
24314SOL     OW74838   7.916  14.416   3.414
24314SOL    HW174839   7.967  14.490   3.382
24314SOL    HW274840   7.848  14.404   3.348
24315SOL     OW74841   7.927  11.740   3.875
24315SOL    HW174842   7.923  11.659   3.925
24315SOL    HW274843   7.856  11.731   3.810
24316SOL     OW74844   0.246  11.047  13.298
24316SOL    HW174845   0.310  11.033  13.228
24316SOL    HW274846   0.189  11.117  13.264
24317SOL     OW74847  12.741  10.740  13.706
24317SOL    HW174848  12.829  10.766  13.681
24317SOL    HW274849  12.749  10.647  13.730
24318SOL     OW74850   2.994  10.654   8.400
24318SOL    HW174851   2.998  10.576   8.345
24318SOL    HW274852   2.973  10.621   8.487
24319SOL     OW74853   6.889   4.196   6.361
24319SOL    HW174854   6.930   4.112   6.384
24319SOL    HW274855   6.961   4.259   6.362
24320SOL     OW74856   3.184   3.716   9.878
24320SOL    HW174857   3.119   3.715   9.808
24320SOL    HW274858   3.264   3.682   9.837
24321SOL     OW74859  12.874   9.345  10.014
24321SOL    HW174860  12.928   9.408   9.966
24321SOL    HW274861  12.816   9.308   9.948
24322SOL     OW74862  14.650   2.108   8.817
24322SOL    HW174863  14.598   2.028   8.804
24322SOL    HW274864  14.604   2.155   8.886
24323SOL     OW74865   5.378  13.397  11.862
24323SOL    HW174866   5.312  13.341  11.820
24323SOL    HW274867   5.351  13.399  11.954
24324SOL     OW74868   9.276  11.038  12.677
24324SOL    HW174869   9.266  11.131  12.700
24324SOL    HW274870   9.250  11.033  12.585
24325SOL     OW74871   3.525  11.053  13.343
24325SOL    HW174872   3.538  11.146  13.325
24325SOL    HW274873   3.434  11.036  13.318
24326SOL     OW74874   3.884   0.282   8.404
24326SOL    HW174875   3.880   0.344   8.331
24326SOL    HW274876   3.977   0.277   8.426
24327SOL     OW74877   0.602  11.609  12.158
24327SOL    HW174878   0.646  11.658  12.089
24327SOL    HW274879   0.564  11.533  12.114
24328SOL     OW74880   3.231   2.976   9.093
24328SOL    HW174881   3.308   3.030   9.075
24328SOL    HW274882   3.259   2.918   9.164
24329SOL     OW74883  12.337  12.118  13.730
24329SOL    HW174884  12.301  12.029  13.731
24329SOL    HW274885  12.261  12.175  13.721
24330SOL     OW74886   0.328   3.770  13.251
24330SOL    HW174887   0.270   3.779  13.175
24330SOL    HW274888   0.274   3.795  13.325
24331SOL     OW74889   2.427   8.952   8.785
24331SOL    HW174890   2.467   8.894   8.720
24331SOL    HW274891   2.437   8.907   8.868
24332SOL     OW74892   6.155  11.348   7.633
24332SOL    HW174893   6.126  11.397   7.556
24332SOL    HW274894   6.086  11.363   7.698
24333SOL     OW74895   0.976   7.685   5.732
24333SOL    HW174896   0.980   7.779   5.715
24333SOL    HW274897   1.068   7.658   5.736
24334SOL     OW74898   0.810  14.330   0.072
24334SOL    HW174899   0.844  14.350   0.160
24334SOL    HW274900   0.836  14.239   0.056
24335SOL     OW74901   6.405  11.967  13.790
24335SOL    HW174902   6.366  11.892  13.746
24335SOL    HW274903   6.470  12.000  13.729
24336SOL     OW74904   6.561   8.507   0.979
24336SOL    HW174905   6.634   8.476   1.032
24336SOL    HW274906   6.548   8.598   1.006
24337SOL     OW74907  14.031   4.024  13.811
24337SOL    HW174908  14.086   3.995  13.738
24337SOL    HW274909  13.969   3.952  13.824
24338SOL     OW74910  11.899   1.615   9.700
24338SOL    HW174911  11.951   1.693   9.681
24338SOL    HW274912  11.945   1.544   9.656
24339SOL     OW74913  14.437  13.368   8.103
24339SOL    HW174914  14.525  13.385   8.070
24339SOL    HW274915  14.451  13.321   8.186
24340SOL     OW74916   0.111   7.590   6.860
24340SOL    HW174917   0.159   7.665   6.896
24340SOL    HW274918   0.180   7.530   6.830
24341SOL     OW74919   1.404   7.096   8.271
24341SOL    HW174920   1.380   7.149   8.195
24341SOL    HW274921   1.499   7.102   8.275
24342SOL     OW74922   2.443   5.528   6.803
24342SOL    HW174923   2.348   5.540   6.801
24342SOL    HW274924   2.470   5.559   6.890
24343SOL     OW74925  14.606   1.845   0.123
24343SOL    HW174926  14.514   1.871   0.112
24343SOL    HW274927  14.650   1.879   0.045
24344SOL     OW74928   5.199   7.101  11.126
24344SOL    HW174929   5.227   7.152  11.049
24344SOL    HW274930   5.104   7.105  11.124
24345SOL     OW74931   4.570   2.051   6.483
24345SOL    HW174932   4.492   2.079   6.434
24345SOL    HW274933   4.634   2.121   6.468
24346SOL     OW74934   3.297  12.282  11.704
24346SOL    HW174935   3.212  12.319  11.683
24346SOL    HW274936   3.314  12.309  11.795
24347SOL     OW74937  13.728   8.160   5.451
24347SOL    HW174938  13.674   8.120   5.519
24347SOL    HW274939  13.779   8.088   5.415
24348SOL     OW74940   2.339   3.631   2.973
24348SOL    HW174941   2.286   3.692   3.023
24348SOL    HW274942   2.416   3.682   2.947
24349SOL     OW74943  11.227   5.877   1.855
24349SOL    HW174944  11.294   5.940   1.878
24349SOL    HW274945  11.240   5.804   1.916
24350SOL     OW74946   9.465   1.282   0.097
24350SOL    HW174947   9.388   1.244   0.139
24350SOL    HW274948   9.438   1.371   0.073
24351SOL     OW74949   3.913   6.046   4.896
24351SOL    HW174950   3.939   5.998   4.975
24351SOL    HW274951   3.955   6.132   4.905
24352SOL     OW74952   5.542  13.055   6.536
24352SOL    HW174953   5.500  13.141   6.538
24352SOL    HW274954   5.606  13.057   6.607
24353SOL     OW74955   8.970   0.484   6.696
24353SOL    HW174956   9.004   0.554   6.641
24353SOL    HW274957   8.935   0.419   6.634
24354SOL     OW74958   6.853   6.082   6.316
24354SOL    HW174959   6.881   6.068   6.225
24354SOL    HW274960   6.818   6.171   6.316
24355SOL     OW74961  11.772   4.295  12.831
24355SOL    HW174962  11.700   4.232  12.835
24355SOL    HW274963  11.817   4.285  12.915
24356SOL     OW74964   5.168  10.968   8.213
24356SOL    HW174965   5.227  10.919   8.270
24356SOL    HW274966   5.095  10.992   8.269
24357SOL     OW74967   5.852   2.541   6.888
24357SOL    HW174968   5.806   2.623   6.907
24357SOL    HW274969   5.800   2.474   6.933
24358SOL     OW74970   0.622   6.188  10.234
24358SOL    HW174971   0.535   6.214  10.203
24358SOL    HW274972   0.610   6.171  10.327
24359SOL     OW74973   1.346  13.608   4.923
24359SOL    HW174974   1.331  13.563   4.840
24359SOL    HW274975   1.438  13.635   4.920
24360SOL     OW74976  14.277   1.231   5.408
24360SOL    HW174977  14.336   1.237   5.482
24360SOL    HW274978  14.192   1.258   5.442
24361SOL     OW74979  14.558  10.299  11.857
24361SOL    HW174980  14.466  10.323  11.848
24361SOL    HW274981  14.605  10.364  11.804
24362SOL     OW74982   8.827  14.049   3.953
24362SOL    HW174983   8.836  14.093   4.037
24362SOL    HW274984   8.870  14.108   3.890
24363SOL     OW74985   6.454   2.177   1.274
24363SOL    HW174986   6.534   2.198   1.321
24363SOL    HW274987   6.426   2.260   1.236
24364SOL     OW74988  10.357   9.793   5.104
24364SOL    HW174989  10.424   9.725   5.099
24364SOL    HW274990  10.395   9.860   5.161
24365SOL     OW74991  13.889  14.689   8.776
24365SOL    HW174992  13.794  14.699   8.764
24365SOL    HW274993  13.908  14.740   8.855
24366SOL     OW74994   9.162   0.172   3.645
24366SOL    HW174995   9.075   0.187   3.681
24366SOL    HW274996   9.220   0.229   3.696
24367SOL     OW74997   5.296  13.531  10.639
24367SOL    HW174998   5.278  13.494  10.552
24367SOL    HW274999   5.210  13.536  10.680
24368SOL     OW75000   5.709  13.225   4.029
24368SOL    HW175001   5.726  13.300   4.084
24368SOL    HW275002   5.787  13.170   4.037
24369SOL     OW75003  13.942  11.247  13.625
24369SOL    HW175004  14.006  11.318  13.628
24369SOL    HW275005  13.863  11.284  13.665
24370SOL     OW75006   1.206  10.532   7.367
24370SOL    HW175007   1.141  10.480   7.413
24370SOL    HW275008   1.164  10.557   7.285
24371SOL     OW75009  10.405  12.047   4.149
24371SOL    HW175010  10.361  12.043   4.234
24371SOL    HW275011  10.345  12.098   4.094
24372SOL     OW75012   2.739   3.377   0.834
24372SOL    HW175013   2.815   3.435   0.824
24372SOL    HW275014   2.773   3.300   0.878
24373SOL     OW75015   9.375  11.736  10.045
24373SOL    HW175016   9.342  11.804  10.103
24373SOL    HW275017   9.302  11.717   9.986
24374SOL     OW75018  13.274   1.621   7.334
24374SOL    HW175019  13.253   1.536   7.296
24374SOL    HW275020  13.189   1.663   7.347
24375SOL     OW75021   7.175   6.329   0.063
24375SOL    HW175022   7.249   6.270   0.075
24375SOL    HW275023   7.147   6.315  14.852
24376SOL     OW75024  14.224  10.657   0.120
24376SOL    HW175025  14.239  10.733   0.064
24376SOL    HW275026  14.306  10.607   0.114
24377SOL     OW75027   4.817  13.844   8.809
24377SOL    HW175028   4.781  13.795   8.735
24377SOL    HW275029   4.849  13.776   8.869
24378SOL     OW75030   8.436   0.159   4.828
24378SOL    HW175031   8.431   0.133   4.736
24378SOL    HW275032   8.529   0.178   4.842
24379SOL     OW75033   7.367   0.446   3.902
24379SOL    HW175034   7.353   0.510   3.972
24379SOL    HW275035   7.321   0.483   3.826
24380SOL     OW75036   2.468  11.977   8.455
24380SOL    HW175037   2.449  11.979   8.361
24380SOL    HW275038   2.394  11.930   8.494
24381SOL     OW75039   0.453   1.330   9.257
24381SOL    HW175040   0.442   1.243   9.218
24381SOL    HW275041   0.530   1.321   9.312
24382SOL     OW75042   6.031  14.595   1.936
24382SOL    HW175043   6.090  14.670   1.947
24382SOL    HW275044   6.052  14.560   1.849
24383SOL     OW75045   2.574   1.236   2.003
24383SOL    HW175046   2.504   1.289   1.966
24383SOL    HW275047   2.597   1.174   1.933
24384SOL     OW75048  14.123   1.531  14.172
24384SOL    HW175049  14.180   1.557  14.246
24384SOL    HW275050  14.036   1.526  14.210
24385SOL     OW75051   6.482   1.677   7.816
24385SOL    HW175052   6.526   1.597   7.788
24385SOL    HW275053   6.496   1.680   7.911
24386SOL     OW75054   3.496  12.367   0.109
24386SOL    HW175055   3.545  12.447   0.092
24386SOL    HW275056   3.545  12.298   0.063
24387SOL     OW75057  14.246  11.500   7.546
24387SOL    HW175058  14.330  11.542   7.564
24387SOL    HW275059  14.261  11.408   7.570
24388SOL     OW75060   7.936  11.707  13.680
24388SOL    HW175061   7.989  11.636  13.644
24388SOL    HW275062   7.847  11.688  13.651
24389SOL     OW75063   8.979   4.799   7.555
24389SOL    HW175064   8.997   4.716   7.600
24389SOL    HW275065   9.053   4.855   7.579
24390SOL     OW75066  12.961   1.778   8.414
24390SOL    HW175067  12.990   1.700   8.366
24390SOL    HW275068  12.875   1.797   8.378
24391SOL     OW75069  10.754  10.565   9.620
24391SOL    HW175070  10.750  10.649   9.667
24391SOL    HW275071  10.757  10.499   9.690
24392SOL     OW75072   1.412   2.534   8.306
24392SOL    HW175073   1.330   2.490   8.329
24392SOL    HW275074   1.386   2.609   8.254
24393SOL     OW75075   8.947   3.423  10.363
24393SOL    HW175076   8.946   3.346  10.307
24393SOL    HW275077   8.860   3.425  10.404
24394SOL     OW75078   9.566   9.530  11.672
24394SOL    HW175079   9.661   9.542  11.673
24394SOL    HW275080   9.537   9.578  11.595
24395SOL     OW75081  11.504   9.869   8.177
24395SOL    HW175082  11.454   9.788   8.188
24395SOL    HW275083  11.438   9.938   8.174
24396SOL     OW75084   0.833   2.165  13.768
24396SOL    HW175085   0.838   2.189  13.675
24396SOL    HW275086   0.776   2.232  13.806
24397SOL     OW75087   5.920  14.327  12.940
24397SOL    HW175088   6.001  14.290  12.903
24397SOL    HW275089   5.853  14.306  12.875
24398SOL     OW75090   4.025   6.864   9.186
24398SOL    HW175091   4.085   6.840   9.256
24398SOL    HW275092   4.040   6.957   9.171
24399SOL     OW75093   5.596   9.522   9.350
24399SOL    HW175094   5.682   9.564   9.345
24399SOL    HW275095   5.573   9.524   9.443
24400SOL     OW75096   6.541  10.868   5.925
24400SOL    HW175097   6.546  10.953   5.968
24400SOL    HW275098   6.521  10.806   5.995
24401SOL     OW75099  11.269  12.373   4.368
24401SOL    HW175100  11.334  12.411   4.309
24401SOL    HW275101  11.210  12.326   4.310
24402SOL     OW75102  12.483  13.474   1.082
24402SOL    HW175103  12.483  13.414   1.008
24402SOL    HW275104  12.481  13.416   1.159
24403SOL     OW75105   6.116  10.781  11.994
24403SOL    HW175106   6.093  10.690  12.013
24403SOL    HW275107   6.136  10.782  11.901
24404SOL     OW75108  13.046  10.824   6.123
24404SOL    HW175109  13.121  10.823   6.063
24404SOL    HW275110  13.073  10.766   6.195
24405SOL     OW75111   0.390   8.085   2.479
24405SOL    HW175112   0.429   8.108   2.564
24405SOL    HW275113   0.434   8.004   2.454
24406SOL     OW75114  10.221  12.281   5.363
24406SOL    HW175115  10.271  12.239   5.433
24406SOL    HW275116  10.130  12.262   5.385
24407SOL     OW75117   7.955   1.020  11.033
24407SOL    HW175118   7.940   0.946  10.976
24407SOL    HW275119   7.877   1.024  11.089
24408SOL     OW75120  12.860   8.398  10.769
24408SOL    HW175121  12.789   8.351  10.814
24408SOL    HW275122  12.899   8.452  10.838
24409SOL     OW75123  12.013   1.300   2.508
24409SOL    HW175124  11.945   1.239   2.478
24409SOL    HW275125  11.968   1.358   2.569
24410SOL     OW75126   6.711  11.040   3.212
24410SOL    HW175127   6.635  10.982   3.204
24410SOL    HW275128   6.706  11.074   3.301
24411SOL     OW75129   5.194   7.689  14.145
24411SOL    HW175130   5.186   7.593  14.139
24411SOL    HW275131   5.191   7.719  14.054
24412SOL     OW75132   6.223  10.927  13.750
24412SOL    HW175133   6.181  10.905  13.832
24412SOL    HW275134   6.176  11.004  13.718
24413SOL     OW75135  13.378   2.350  12.888
24413SOL    HW175136  13.382   2.291  12.963
24413SOL    HW275137  13.287   2.347  12.859
24414SOL     OW75138   1.091   5.098   5.177
24414SOL    HW175139   1.073   5.110   5.270
24414SOL    HW275140   1.072   5.005   5.161
24415SOL     OW75141   2.182   6.112   6.894
24415SOL    HW175142   2.109   6.112   6.957
24415SOL    HW275143   2.222   6.026   6.904
24416SOL     OW75144  12.230   2.723  14.045
24416SOL    HW175145  12.159   2.681  13.997
24416SOL    HW275146  12.305   2.666  14.033
24417SOL     OW75147   2.660   7.671   6.239
24417SOL    HW175148   2.744   7.715   6.224
24417SOL    HW275149   2.640   7.630   6.154
24418SOL     OW75150   2.914  12.215   8.860
24418SOL    HW175151   2.843  12.270   8.827
24418SOL    HW275152   2.912  12.228   8.955
24419SOL     OW75153  10.877   7.816   3.781
24419SOL    HW175154  10.950   7.770   3.738
24419SOL    HW275155  10.899   7.813   3.874
24420SOL     OW75156  13.523  14.159   5.417
24420SOL    HW175157  13.609  14.138   5.454
24420SOL    HW275158  13.462  14.145   5.489
24421SOL     OW75159   4.173  11.300  11.781
24421SOL    HW175160   4.209  11.349  11.854
24421SOL    HW275161   4.214  11.214  11.786
24422SOL     OW75162  12.021   8.028  10.050
24422SOL    HW175163  11.981   7.977  10.121
24422SOL    HW275164  12.114   8.007  10.055
24423SOL     OW75165  11.901   7.148   2.599
24423SOL    HW175166  11.839   7.199   2.547
24423SOL    HW275167  11.883   7.175   2.689
24424SOL     OW75168   7.351  12.047  10.955
24424SOL    HW175169   7.299  12.119  10.990
24424SOL    HW275170   7.359  12.067  10.861
24425SOL     OW75171   4.991   3.610  13.928
24425SOL    HW175172   5.039   3.574  14.002
24425SOL    HW275173   4.902   3.575  13.938
24426SOL     OW75174  10.714   2.578   7.285
24426SOL    HW175175  10.661   2.498   7.281
24426SOL    HW275176  10.760   2.581   7.201
24427SOL     OW75177  13.602   6.025  12.989
24427SOL    HW175178  13.682   5.979  12.964
24427SOL    HW275179  13.532   5.981  12.939
24428SOL     OW75180  13.726   0.975   3.041
24428SOL    HW175181  13.734   1.061   3.000
24428SOL    HW275182  13.813   0.937   3.034
24429SOL     OW75183  12.254   9.712  10.885
24429SOL    HW175184  12.312   9.708  10.960
24429SOL    HW275185  12.233   9.806  10.876
24430SOL     OW75186   5.378   2.258  11.512
24430SOL    HW175187   5.418   2.183  11.468
24430SOL    HW275188   5.328   2.218  11.584
24431SOL     OW75189  12.243  10.042   5.454
24431SOL    HW175190  12.249  10.106   5.525
24431SOL    HW275191  12.333  10.009   5.444
24432SOL     OW75192   3.341  12.283   7.925
24432SOL    HW175193   3.355  12.259   8.016
24432SOL    HW275194   3.428  12.303   7.891
24433SOL     OW75195   7.526   9.990   2.727
24433SOL    HW175196   7.603  10.003   2.782
24433SOL    HW275197   7.561   9.986   2.638
24434SOL     OW75198   8.086  11.202   6.647
24434SOL    HW175199   8.144  11.266   6.690
24434SOL    HW275200   7.998  11.236   6.662
24435SOL     OW75201  10.712  13.290   6.425
24435SOL    HW175202  10.711  13.240   6.344
24435SOL    HW275203  10.784  13.353   6.415
24436SOL     OW75204  13.034  11.987  12.226
24436SOL    HW175205  13.002  11.909  12.272
24436SOL    HW275206  13.112  12.013  12.275
24437SOL     OW75207   7.369   1.662  10.693
24437SOL    HW175208   7.395   1.722  10.623
24437SOL    HW275209   7.293   1.704  10.732
24438SOL     OW75210  10.243  13.229  10.179
24438SOL    HW175211  10.190  13.209  10.102
24438SOL    HW275212  10.262  13.144  10.218
24439SOL     OW75213  14.661  11.600   1.337
24439SOL    HW175214  14.657  11.513   1.298
24439SOL    HW275215  14.689  11.657   1.266
24440SOL     OW75216   2.038  11.118   9.322
24440SOL    HW175217   1.997  11.143   9.239
24440SOL    HW275218   2.081  11.198   9.352
24441SOL     OW75219   2.234  14.211   5.759
24441SOL    HW175220   2.206  14.121   5.775
24441SOL    HW275221   2.312  14.222   5.814
24442SOL     OW75222  10.361   1.599   4.544
24442SOL    HW175223  10.413   1.521   4.524
24442SOL    HW275224  10.369   1.609   4.639
24443SOL     OW75225   4.844   0.180   7.346
24443SOL    HW175226   4.793   0.252   7.309
24443SOL    HW275227   4.854   0.203   7.439
24444SOL     OW75228   5.545  12.314   9.137
24444SOL    HW175229   5.546  12.278   9.226
24444SOL    HW275230   5.452  12.312   9.112
24445SOL     OW75231  12.871  12.884  13.103
24445SOL    HW175232  12.836  12.969  13.079
24445SOL    HW275233  12.913  12.852  13.023
24446SOL     OW75234   2.204   6.022   7.501
24446SOL    HW175235   2.232   5.936   7.531
24446SOL    HW275236   2.213   6.079   7.577
24447SOL     OW75237   6.049   1.180   7.207
24447SOL    HW175238   6.071   1.242   7.277
24447SOL    HW275239   6.048   1.234   7.128
24448SOL     OW75240   6.280  12.041   5.283
24448SOL    HW175241   6.368  12.023   5.317
24448SOL    HW275242   6.292  12.045   5.188
24449SOL     OW75243  14.199  12.238   8.494
24449SOL    HW175244  14.290  12.255   8.471
24449SOL    HW275245  14.187  12.144   8.480
24450SOL     OW75246  11.857  12.513   4.276
24450SOL    HW175247  11.771  12.532   4.313
24450SOL    HW275248  11.916  12.515   4.351
24451SOL     OW75249   6.181   7.959   2.084
24451SOL    HW175250   6.113   7.922   2.028
24451SOL    HW275251   6.263   7.939   2.039
24452SOL     OW75252  14.686  14.376  11.620
24452SOL    HW175253  14.662  14.410  11.534
24452SOL    HW275254  14.637  14.294  11.628
24453SOL     OW75255   5.723   8.080   7.108
24453SOL    HW175256   5.711   8.148   7.175
24453SOL    HW275257   5.779   8.015   7.149
24454SOL     OW75258  11.474   7.585   6.047
24454SOL    HW175259  11.478   7.548   5.959
24454SOL    HW275260  11.565   7.596   6.073
24455SOL     OW75261   1.698   4.828   9.733
24455SOL    HW175262   1.760   4.864   9.669
24455SOL    HW275263   1.621   4.884   9.725
24456SOL     OW75264   0.252   1.928  13.712
24456SOL    HW175265   0.288   1.840  13.715
24456SOL    HW275266   0.225   1.947  13.802
24457SOL     OW75267   0.962   1.812  10.418
24457SOL    HW175268   0.975   1.841  10.508
24457SOL    HW275269   1.011   1.875  10.365
24458SOL     OW75270   6.551  12.494   0.307
24458SOL    HW175271   6.503  12.515   0.227
24458SOL    HW275272   6.505  12.542   0.376
24459SOL     OW75273   3.098   0.891  11.123
24459SOL    HW175274   3.177   0.938  11.149
24459SOL    HW275275   3.045   0.956  11.078
24460SOL     OW75276   8.760   7.052  14.445
24460SOL    HW175277   8.811   7.113  14.391
24460SOL    HW275278   8.669   7.073  14.426
24461SOL     OW75279   3.341   5.507   2.816
24461SOL    HW175280   3.434   5.505   2.839
24461SOL    HW275281   3.339   5.527   2.723
24462SOL     OW75282  12.896  13.450   2.242
24462SOL    HW175283  12.908  13.512   2.314
24462SOL    HW275284  12.835  13.494   2.182
24463SOL     OW75285  13.764   7.502   5.686
24463SOL    HW175286  13.725   7.561   5.621
24463SOL    HW275287  13.852   7.483   5.653
24464SOL     OW75288  13.786  10.215  10.464
24464SOL    HW175289  13.793  10.290  10.404
24464SOL    HW275290  13.874  10.178  10.466
24465SOL     OW75291   2.825   3.636  12.755
24465SOL    HW175292   2.784   3.660  12.671
24465SOL    HW275293   2.907   3.685  12.755
24466SOL     OW75294   9.505  12.364  12.642
24466SOL    HW175295   9.485  12.356  12.735
24466SOL    HW275296   9.514  12.458  12.626
24467SOL     OW75297   4.029   8.564   5.724
24467SOL    HW175298   3.947   8.594   5.765
24467SOL    HW275299   4.083   8.643   5.720
24468SOL     OW75300  12.456   7.878   3.087
24468SOL    HW175301  12.377   7.929   3.103
24468SOL    HW275302  12.426   7.787   3.081
24469SOL     OW75303  14.627   3.944  11.330
24469SOL    HW175304  14.585   3.863  11.301
24469SOL    HW275305  14.690   3.916  11.397
24470SOL     OW75306  13.076  13.050  13.438
24470SOL    HW175307  13.061  13.132  13.484
24470SOL    HW275308  13.101  13.075  13.349
24471SOL     OW75309   7.891   7.402  10.740
24471SOL    HW175310   7.907   7.467  10.808
24471SOL    HW275311   7.963   7.413  10.678
24472SOL     OW75312   3.453   3.770   4.778
24472SOL    HW175313   3.468   3.862   4.800
24472SOL    HW275314   3.378   3.744   4.833
24473SOL     OW75315   7.783   3.553   6.516
24473SOL    HW175316   7.772   3.495   6.591
24473SOL    HW275317   7.862   3.603   6.536
24474SOL     OW75318  12.764   5.158  10.283
24474SOL    HW175319  12.811   5.237  10.256
24474SOL    HW275320  12.769   5.160  10.379
24475SOL     OW75321   3.550   7.469   3.709
24475SOL    HW175322   3.618   7.492   3.772
24475SOL    HW275323   3.471   7.510   3.744
24476SOL     OW75324   7.108  12.691   3.451
24476SOL    HW175325   7.103  12.668   3.544
24476SOL    HW275326   7.136  12.783   3.451
24477SOL     OW75327   6.667   6.421   8.548
24477SOL    HW175328   6.723   6.346   8.566
24477SOL    HW275329   6.657   6.420   8.453
24478SOL     OW75330   4.242  14.209   9.302
24478SOL    HW175331   4.266  14.270   9.233
24478SOL    HW275332   4.148  14.224   9.315
24479SOL     OW75333   4.557   9.784  14.879
24479SOL    HW175334   4.551   9.786   0.095
24479SOL    HW275335   4.607   9.705  14.860
24480SOL     OW75336  12.648   4.670  13.874
24480SOL    HW175337  12.629   4.705  13.961
24480SOL    HW275338  12.562   4.664  13.831
24481SOL     OW75339   3.191  13.353   6.579
24481SOL    HW175340   3.257  13.310   6.524
24481SOL    HW275341   3.189  13.301   6.659
24482SOL     OW75342   0.985   0.410   4.359
24482SOL    HW175343   1.021   0.447   4.439
24482SOL    HW275344   1.061   0.400   4.301
24483SOL     OW75345  12.673   0.148  10.208
24483SOL    HW175346  12.643   0.062  10.178
24483SOL    HW275347  12.646   0.152  10.300
24484SOL     OW75348  10.286   5.155  13.188
24484SOL    HW175349  10.199   5.164  13.226
24484SOL    HW275350  10.271   5.152  13.094
24485SOL     OW75351  14.428   3.091   7.015
24485SOL    HW175352  14.471   3.038   6.947
24485SOL    HW275353  14.341   3.052   7.025
24486SOL     OW75354  13.090   7.337   7.746
24486SOL    HW175355  13.082   7.410   7.808
24486SOL    HW275356  13.002   7.326   7.711
24487SOL     OW75357   0.357   2.481   7.392
24487SOL    HW175358   0.399   2.550   7.341
24487SOL    HW275359   0.265   2.484   7.364
24488SOL     OW75360   7.751  11.659  14.490
24488SOL    HW175361   7.732  11.582  14.436
24488SOL    HW275362   7.736  11.733  14.432
24489SOL     OW75363   6.987   9.260   4.477
24489SOL    HW175364   7.056   9.324   4.459
24489SOL    HW275365   7.033   9.177   4.490
24490SOL     OW75366   1.880   4.949  12.850
24490SOL    HW175367   1.866   4.958  12.755
24490SOL    HW275368   1.794   4.964  12.889
24491SOL     OW75369   7.152   2.083  11.687
24491SOL    HW175370   7.194   2.146  11.628
24491SOL    HW275371   7.153   2.125  11.772
24492SOL     OW75372   0.698   0.619   1.495
24492SOL    HW175373   0.612   0.578   1.492
24492SOL    HW275374   0.699   0.667   1.578
24493SOL     OW75375  11.116   7.188  10.725
24493SOL    HW175376  11.120   7.134  10.645
24493SOL    HW275377  11.092   7.126  10.794
24494SOL     OW75378  13.469  11.066   3.534
24494SOL    HW175379  13.441  10.976   3.520
24494SOL    HW275380  13.473  11.076   3.629
24495SOL     OW75381  11.012   9.039   0.505
24495SOL    HW175382  10.947   8.971   0.485
24495SOL    HW275383  11.095   8.991   0.513
24496SOL     OW75384   0.590   8.983  13.254
24496SOL    HW175385   0.506   8.958  13.292
24496SOL    HW275386   0.629   8.901  13.225
24497SOL     OW75387   4.853   6.530   5.410
24497SOL    HW175388   4.888   6.565   5.328
24497SOL    HW275389   4.787   6.593   5.437
24498SOL     OW75390  13.635  13.075   2.197
24498SOL    HW175391  13.727  13.099   2.187
24498SOL    HW275392  13.591  13.158   2.218
24499SOL     OW75393  14.331  11.672   3.028
24499SOL    HW175394  14.249  11.706   3.063
24499SOL    HW275395  14.395  11.685   3.098
24500SOL     OW75396  12.925  13.242   8.146
24500SOL    HW175397  12.833  13.219   8.136
24500SOL    HW275398  12.947  13.215   8.235
24501SOL     OW75399   6.988  12.880  13.104
24501SOL    HW175400   6.969  12.908  13.015
24501SOL    HW275401   6.942  12.797  13.114
24502SOL     OW75402   8.827  11.921   9.326
24502SOL    HW175403   8.898  11.856   9.325
24502SOL    HW275404   8.868  12.000   9.290
24503SOL     OW75405   3.066   5.974  14.674
24503SOL    HW175406   3.136   5.982  14.609
24503SOL    HW275407   3.107   5.933  14.750
24504SOL     OW75408  12.677  10.238  10.632
24504SOL    HW175409  12.747  10.301  10.614
24504SOL    HW275410  12.718  10.171  10.687
24505SOL     OW75411  11.529  13.783  13.553
24505SOL    HW175412  11.436  13.803  13.567
24505SOL    HW275413  11.546  13.810  13.463
24506SOL     OW75414  11.621   9.724  13.665
24506SOL    HW175415  11.714   9.703  13.666
24506SOL    HW275416  11.602   9.743  13.573
24507SOL     OW75417   0.105  12.540   3.806
24507SOL    HW175418   0.059  12.600   3.747
24507SOL    HW275419   0.036  12.495   3.855
24508SOL     OW75420  10.002  12.730   8.484
24508SOL    HW175421   9.909  12.724   8.462
24508SOL    HW275422  10.004  12.734   8.580
24509SOL     OW75423   8.453  11.704   3.377
24509SOL    HW175424   8.446  11.799   3.387
24509SOL    HW275425   8.397  11.683   3.303
24510SOL     OW75426  10.631   1.139  13.316
24510SOL    HW175427  10.690   1.215  13.320
24510SOL    HW275428  10.679   1.075  13.264
24511SOL     OW75429  11.571  14.774   5.261
24511SOL    HW175430  11.522  14.791   5.181
24511SOL    HW275431  11.655  14.740   5.231
24512SOL     OW75432   2.153  11.394   1.757
24512SOL    HW175433   2.190  11.481   1.749
24512SOL    HW275434   2.065  11.408   1.791
24513SOL     OW75435   5.012  14.385   2.879
24513SOL    HW175436   4.962  14.394   2.960
24513SOL    HW275437   5.020  14.474   2.846
24514SOL     OW75438   7.738   7.198  14.004
24514SOL    HW175439   7.730   7.186  13.910
24514SOL    HW275440   7.774   7.286  14.015
24515SOL     OW75441   2.071   2.483   9.915
24515SOL    HW175442   2.126   2.440   9.980
24515SOL    HW275443   2.095   2.575   9.919
24516SOL     OW75444  12.073   6.381   8.448
24516SOL    HW175445  12.044   6.295   8.479
24516SOL    HW275446  11.994   6.422   8.414
24517SOL     OW75447   9.591   1.471  10.280
24517SOL    HW175448   9.609   1.558  10.244
24517SOL    HW275449   9.529   1.488  10.352
24518SOL     OW75450   4.221  13.164  10.181
24518SOL    HW175451   4.219  13.229  10.110
24518SOL    HW275452   4.289  13.195  10.240
24519SOL     OW75453   7.907   8.042   4.162
24519SOL    HW175454   7.999   8.018   4.166
24519SOL    HW275455   7.905   8.121   4.108
24520SOL     OW75456   7.037   9.003  14.231
24520SOL    HW175457   7.019   9.096  14.240
24520SOL    HW275458   6.997   8.978  14.148
24521SOL     OW75459   5.095   4.759   4.986
24521SOL    HW175460   5.132   4.846   4.981
24521SOL    HW275461   5.139   4.718   5.060
24522SOL     OW75462   4.860   8.555  10.270
24522SOL    HW175463   4.778   8.563  10.221
24522SOL    HW275464   4.844   8.483  10.332
24523SOL     OW75465   5.578   5.049  13.326
24523SOL    HW175466   5.578   5.144  13.324
24523SOL    HW275467   5.671   5.025  13.329
24524SOL     OW75468   8.992   0.944   0.872
24524SOL    HW175469   9.072   0.926   0.823
24524SOL    HW275470   8.993   0.881   0.944
24525SOL     OW75471   4.613  12.438   4.793
24525SOL    HW175472   4.641  12.476   4.877
24525SOL    HW275473   4.680  12.372   4.773
24526SOL     OW75474   3.652   0.016   9.109
24526SOL    HW175475   3.730  14.850   9.078
24526SOL    HW275476   3.586  14.878   9.042
24527SOL     OW75477  13.130   2.700  12.639
24527SOL    HW175478  13.048   2.701  12.689
24527SOL    HW275479  13.199   2.696  12.705
24528SOL     OW75480  14.579  10.271   3.046
24528SOL    HW175481  14.638  10.342   3.072
24528SOL    HW275482  14.511  10.270   3.114
24529SOL     OW75483  10.572  14.627   4.839
24529SOL    HW175484  10.527  14.688   4.781
24529SOL    HW275485  10.665  14.639   4.818
24530SOL     OW75486   4.081   1.876   6.257
24530SOL    HW175487   4.000   1.829   6.279
24530SOL    HW275488   4.149   1.828   6.303
24531SOL     OW75489  10.995   6.721   6.103
24531SOL    HW175490  10.915   6.773   6.096
24531SOL    HW275491  10.967   6.630   6.094
24532SOL     OW75492   2.628   5.785  12.316
24532SOL    HW175493   2.540   5.767  12.349
24532SOL    HW275494   2.670   5.698  12.313
24533SOL     OW75495  14.227   8.543   8.733
24533SOL    HW175496  14.255   8.530   8.823
24533SOL    HW275497  14.243   8.459   8.690
24534SOL     OW75498  14.232   4.244   7.105
24534SOL    HW175499  14.262   4.301   7.176
24534SOL    HW275500  14.154   4.288   7.071
24535SOL     OW75501   7.500   6.929   1.847
24535SOL    HW175502   7.486   6.991   1.775
24535SOL    HW275503   7.442   6.856   1.829
24536SOL     OW75504   4.713  11.328   7.778
24536SOL    HW175505   4.654  11.283   7.839
24536SOL    HW275506   4.654  11.363   7.710
24537SOL     OW75507   7.851  10.103   7.969
24537SOL    HW175508   7.864  10.016   7.930
24537SOL    HW275509   7.816  10.156   7.897
24538SOL     OW75510   1.889   8.810   2.806
24538SOL    HW175511   1.878   8.844   2.717
24538SOL    HW275512   1.920   8.884   2.857
24539SOL     OW75513   7.758  10.496   7.554
24539SOL    HW175514   7.769  10.415   7.505
24539SOL    HW275515   7.754  10.564   7.487
24540SOL     OW75516  14.296   5.667  14.108
24540SOL    HW175517  14.239   5.597  14.138
24540SOL    HW275518  14.348   5.690  14.185
24541SOL     OW75519   2.358   5.202  11.999
24541SOL    HW175520   2.284   5.254  12.030
24541SOL    HW275521   2.352   5.206  11.904
24542SOL     OW75522   9.781  10.174  14.613
24542SOL    HW175523   9.872  10.174  14.640
24542SOL    HW275524   9.731  10.186  14.694
24543SOL     OW75525   8.644  12.601   3.821
24543SOL    HW175526   8.561  12.633   3.785
24543SOL    HW275527   8.674  12.670   3.879
24544SOL     OW75528   7.770   7.484  11.129
24544SOL    HW175529   7.727   7.489  11.044
24544SOL    HW275530   7.861   7.506  11.112
24545SOL     OW75531   1.180   0.384  12.901
24545SOL    HW175532   1.275   0.380  12.886
24545SOL    HW275533   1.142   0.341  12.824
24546SOL     OW75534   4.647  10.465   2.712
24546SOL    HW175535   4.620  10.556   2.712
24546SOL    HW275536   4.624  10.433   2.625
24547SOL     OW75537  13.478   9.994   3.138
24547SOL    HW175538  13.539   9.966   3.206
24547SOL    HW275539  13.481   9.924   3.073
24548SOL     OW75540   3.972  10.731  11.391
24548SOL    HW175541   4.028  10.694  11.459
24548SOL    HW275542   4.013  10.814  11.368
24549SOL     OW75543   1.191   7.086  13.139
24549SOL    HW175544   1.175   7.131  13.222
24549SOL    HW275545   1.284   7.100  13.121
24550SOL     OW75546   6.720  10.832   6.577
24550SOL    HW175547   6.739  10.761   6.638
24550SOL    HW275548   6.789  10.825   6.511
24551SOL     OW75549   3.833   9.839   9.278
24551SOL    HW175550   3.830   9.815   9.371
24551SOL    HW275551   3.769   9.782   9.236
24552SOL     OW75552   6.765   0.661  11.101
24552SOL    HW175553   6.686   0.608  11.091
24552SOL    HW275554   6.736   0.751  11.087
24553SOL     OW75555   3.120  14.643   7.628
24553SOL    HW175556   3.215  14.659   7.634
24553SOL    HW275557   3.107  14.558   7.670
24554SOL     OW75558  11.503   4.289  10.635
24554SOL    HW175559  11.579   4.273  10.579
24554SOL    HW275560  11.454   4.207  10.634
24555SOL     OW75561  12.808   6.511   2.767
24555SOL    HW175562  12.879   6.496   2.705
24555SOL    HW275563  12.841   6.577   2.827
24556SOL     OW75564   7.573   3.521  13.950
24556SOL    HW175565   7.639   3.462  13.988
24556SOL    HW275566   7.565   3.493  13.859
24557SOL     OW75567  12.224  10.196  13.966
24557SOL    HW175568  12.216  10.145  14.047
24557SOL    HW275569  12.309  10.239  13.973
24558SOL     OW75570   1.960  13.443   2.807
24558SOL    HW175571   2.014  13.520   2.786
24558SOL    HW275572   1.891  13.477   2.863
24559SOL     OW75573   8.133  14.526   4.879
24559SOL    HW175574   8.139  14.456   4.814
24559SOL    HW275575   8.189  14.497   4.951
24560SOL     OW75576   5.889   7.875   5.967
24560SOL    HW175577   5.867   7.936   5.896
24560SOL    HW275578   5.863   7.921   6.046
24561SOL     OW75579   3.977  12.912  14.029
24561SOL    HW175580   4.055  12.889  13.978
24561SOL    HW275581   3.966  12.840  14.091
24562SOL     OW75582  13.207   5.567  10.571
24562SOL    HW175583  13.246   5.486  10.538
24562SOL    HW275584  13.135   5.538  10.626
24563SOL     OW75585  11.059   6.974   8.727
24563SOL    HW175586  11.142   6.929   8.708
24563SOL    HW275587  11.046   7.030   8.650
24564SOL     OW75588  10.914   7.618   2.413
24564SOL    HW175589  10.871   7.550   2.361
24564SOL    HW275590  10.914   7.696   2.356
24565SOL     OW75591   9.562   9.059   2.627
24565SOL    HW175592   9.499   9.070   2.557
24565SOL    HW275593   9.647   9.074   2.586
24566SOL     OW75594   0.369   6.668   6.004
24566SOL    HW175595   0.448   6.721   6.003
24566SOL    HW275596   0.394   6.585   5.962
24567SOL     OW75597   9.498  14.348   8.607
24567SOL    HW175598   9.452  14.270   8.578
24567SOL    HW275599   9.569  14.315   8.662
24568SOL     OW75600   5.971   1.480  12.849
24568SOL    HW175601   5.996   1.544  12.915
24568SOL    HW275602   5.959   1.398  12.897
24569SOL     OW75603   7.340  12.757   7.472
24569SOL    HW175604   7.385  12.824   7.523
24569SOL    HW275605   7.394  12.679   7.481
24570SOL     OW75606  11.252   7.665  14.276
24570SOL    HW175607  11.303   7.687  14.198
24570SOL    HW275608  11.316   7.669  14.348
24571SOL     OW75609  11.031   6.529   2.545
24571SOL    HW175610  11.087   6.569   2.612
24571SOL    HW275611  11.048   6.435   2.552
24572SOL     OW75612   0.854   8.326   9.529
24572SOL    HW175613   0.860   8.262   9.457
24572SOL    HW275614   0.812   8.402   9.490
24573SOL     OW75615  12.936   7.539   6.297
24573SOL    HW175616  12.902   7.621   6.260
24573SOL    HW275617  12.908   7.542   6.389
24574SOL     OW75618   7.158  11.901   1.023
24574SOL    HW175619   7.164  11.990   1.057
24574SOL    HW275620   7.241  11.860   1.048
24575SOL     OW75621  14.004   7.980   1.890
24575SOL    HW175622  14.068   7.930   1.941
24575SOL    HW275623  13.920   7.964   1.934
24576SOL     OW75624  10.604   4.507   7.472
24576SOL    HW175625  10.688   4.464   7.489
24576SOL    HW275626  10.566   4.456   7.400
24577SOL     OW75627   9.712  13.997   0.972
24577SOL    HW175628   9.679  14.035   1.053
24577SOL    HW275629   9.712  14.070   0.910
24578SOL     OW75630   0.271   4.819   5.000
24578SOL    HW175631   0.233   4.902   4.971
24578SOL    HW275632   0.336   4.844   5.065
24579SOL     OW75633  13.970   7.202  12.913
24579SOL    HW175634  14.036   7.185  12.846
24579SOL    HW275635  13.964   7.297  12.919
24580SOL     OW75636  13.908  10.013   3.681
24580SOL    HW175637  13.813  10.015   3.667
24580SOL    HW275638  13.945   9.997   3.594
24581SOL     OW75639   0.721   3.785   5.693
24581SOL    HW175640   0.734   3.860   5.636
24581SOL    HW275641   0.659   3.729   5.646
24582SOL     OW75642  11.445   2.927   0.162
24582SOL    HW175643  11.442   2.989   0.235
24582SOL    HW275644  11.393   2.969   0.093
24583SOL     OW75645   1.738   8.822   8.594
24583SOL    HW175646   1.673   8.836   8.525
24583SOL    HW275647   1.807   8.772   8.551
24584SOL     OW75648  10.626   5.360   0.862
24584SOL    HW175649  10.720   5.367   0.844
24584SOL    HW275650  10.618   5.288   0.924
24585SOL     OW75651  10.087   9.360   9.959
24585SOL    HW175652  10.157   9.368  10.024
24585SOL    HW275653  10.100   9.273   9.920
24586SOL     OW75654   9.284  13.727   7.670
24586SOL    HW175655   9.300  13.636   7.646
24586SOL    HW275656   9.369  13.760   7.698
24587SOL     OW75657   9.669  11.608   8.463
24587SOL    HW175658   9.751  11.642   8.500
24587SOL    HW275659   9.601  11.649   8.516
24588SOL     OW75660   2.041  11.434   0.714
24588SOL    HW175661   1.966  11.456   0.769
24588SOL    HW275662   2.006  11.374   0.648
24589SOL     OW75663   7.380  10.721  11.541
24589SOL    HW175664   7.324  10.769  11.480
24589SOL    HW275665   7.443  10.676  11.485
24590SOL     OW75666  11.897  13.707   5.465
24590SOL    HW175667  11.930  13.618   5.476
24590SOL    HW275668  11.882  13.738   5.554
24591SOL     OW75669  14.296  14.679   8.452
24591SOL    HW175670  14.236  14.678   8.526
24591SOL    HW275671  14.239  14.685   8.375
24592SOL     OW75672  10.735  12.065   0.092
24592SOL    HW175673  10.819  12.019   0.091
24592SOL    HW275674  10.693  12.036   0.173
24593SOL     OW75675   6.614  12.680  10.769
24593SOL    HW175676   6.633  12.695  10.677
24593SOL    HW275677   6.608  12.585  10.778
24594SOL     OW75678  13.118   0.515   6.140
24594SOL    HW175679  13.040   0.466   6.167
24594SOL    HW275680  13.114   0.596   6.190
24595SOL     OW75681   6.222   1.079   9.225
24595SOL    HW175682   6.194   1.162   9.186
24595SOL    HW275683   6.249   1.025   9.150
24596SOL     OW75684   6.673   0.978   1.505
24596SOL    HW175685   6.682   0.883   1.518
24596SOL    HW275686   6.723   1.017   1.577
24597SOL     OW75687  11.781  14.309   6.462
24597SOL    HW175688  11.793  14.219   6.431
24597SOL    HW275689  11.728  14.351   6.394
24598SOL     OW75690   9.987  12.386   9.267
24598SOL    HW175691  10.029  12.391   9.181
24598SOL    HW275692   9.913  12.446   9.262
24599SOL     OW75693  11.061   9.772   8.367
24599SOL    HW175694  11.063   9.678   8.385
24599SOL    HW275695  11.024   9.779   8.279
24600SOL     OW75696  13.422   7.102  13.897
24600SOL    HW175697  13.474   7.040  13.846
24600SOL    HW275698  13.334   7.094  13.860
24601SOL     OW75699   2.138   9.376   6.165
24601SOL    HW175700   2.061   9.347   6.116
24601SOL    HW275701   2.131   9.472   6.168
24602SOL     OW75702   8.055   7.863  11.679
24602SOL    HW175703   8.137   7.912  11.674
24602SOL    HW275704   8.076   7.776  11.645
24603SOL     OW75705  10.720   0.788   7.935
24603SOL    HW175706  10.719   0.883   7.944
24603SOL    HW275707  10.784   0.771   7.866
24604SOL     OW75708  13.750  13.162   8.686
24604SOL    HW175709  13.681  13.175   8.621
24604SOL    HW275710  13.740  13.070   8.714
24605SOL     OW75711   4.760   8.442   2.321
24605SOL    HW175712   4.835   8.479   2.273
24605SOL    HW275713   4.695   8.426   2.253
24606SOL     OW75714  12.264   8.930   2.366
24606SOL    HW175715  12.334   8.979   2.409
24606SOL    HW275716  12.307   8.852   2.331
24607SOL     OW75717  10.977   0.142   8.766
24607SOL    HW175718  11.044   0.084   8.730
24607SOL    HW275719  11.021   0.226   8.776
24608SOL     OW75720  10.929   0.681   8.259
24608SOL    HW175721  10.853   0.624   8.274
24608SOL    HW275722  10.971   0.644   8.181
24609SOL     OW75723  10.834   8.117  12.388
24609SOL    HW175724  10.835   8.167  12.470
24609SOL    HW275725  10.774   8.045  12.406
24610SOL     OW75726   4.997   6.711  14.037
24610SOL    HW175727   4.934   6.645  14.009
24610SOL    HW275728   4.988   6.715  14.132
24611SOL     OW75729   6.491   0.155   5.217
24611SOL    HW175730   6.417   0.118   5.170
24611SOL    HW275731   6.469   0.247   5.228
24612SOL     OW75732  11.677   9.750   3.436
24612SOL    HW175733  11.755   9.705   3.469
24612SOL    HW275734  11.710   9.802   3.362
24613SOL     OW75735  13.076   2.980  13.578
24613SOL    HW175736  13.023   2.978  13.658
24613SOL    HW275737  13.134   3.056  13.590
24614SOL     OW75738   4.525   2.663  11.365
24614SOL    HW175739   4.569   2.585  11.398
24614SOL    HW275740   4.596   2.718  11.332
24615SOL     OW75741   1.109   3.999   6.453
24615SOL    HW175742   1.018   4.028   6.449
24615SOL    HW275743   1.105   3.911   6.491
24616SOL     OW75744   6.397   8.920   3.535
24616SOL    HW175745   6.488   8.947   3.527
24616SOL    HW275746   6.401   8.827   3.558
24617SOL     OW75747  11.605   3.178   0.603
24617SOL    HW175748  11.554   3.153   0.680
24617SOL    HW275749  11.594   3.272   0.596
24618SOL     OW75750   3.761   6.815   3.914
24618SOL    HW175751   3.771   6.889   3.974
24618SOL    HW275752   3.723   6.746   3.967
24619SOL     OW75753  12.990   0.123   1.783
24619SOL    HW175754  13.070   0.112   1.835
24619SOL    HW275755  12.946   0.199   1.822
24620SOL     OW75756   7.463   2.818   3.395
24620SOL    HW175757   7.486   2.911   3.394
24620SOL    HW275758   7.514   2.779   3.324
24621SOL     OW75759  13.789   6.399  10.069
24621SOL    HW175760  13.788   6.307  10.092
24621SOL    HW275761  13.699   6.418  10.042
24622SOL     OW75762  12.533  12.788  14.597
24622SOL    HW175763  12.614  12.837  14.614
24622SOL    HW275764  12.563  12.704  14.561
24623SOL     OW75765  12.899  13.994  10.608
24623SOL    HW175766  12.949  14.007  10.528
24623SOL    HW275767  12.844  14.072  10.615
24624SOL     OW75768   7.926  14.759   3.746
24624SOL    HW175769   7.932  14.746   3.840
24624SOL    HW275770   7.915  14.853   3.735
24625SOL     OW75771   3.720  13.507   7.240
24625SOL    HW175772   3.808  13.540   7.262
24625SOL    HW275773   3.706  13.537   7.150
24626SOL     OW75774   2.990  11.680   7.941
24626SOL    HW175775   3.053  11.623   7.984
24626SOL    HW275776   2.978  11.753   8.003
24627SOL     OW75777   8.161   9.704  13.770
24627SOL    HW175778   8.209   9.703  13.854
24627SOL    HW275779   8.141   9.612  13.754
24628SOL     OW75780  10.598   4.826  13.708
24628SOL    HW175781  10.563   4.914  13.722
24628SOL    HW275782  10.688   4.831  13.741
24629SOL     OW75783  13.200   5.521   5.934
24629SOL    HW175784  13.174   5.546   6.023
24629SOL    HW275785  13.295   5.529   5.934
24630SOL     OW75786   0.260   7.863   6.559
24630SOL    HW175787   0.194   7.912   6.510
24630SOL    HW275788   0.236   7.771   6.546
24631SOL     OW75789  14.689   1.160   3.302
24631SOL    HW175790  14.700   1.248   3.337
24631SOL    HW275791  14.595   1.151   3.286
24632SOL     OW75792   0.573  14.772   0.497
24632SOL    HW175793   0.478  14.786   0.502
24632SOL    HW275794   0.603  14.780   0.587
24633SOL     OW75795  10.868   4.095  12.273
24633SOL    HW175796  10.806   4.022  12.276
24633SOL    HW275797  10.819   4.170  12.306
24634SOL     OW75798   7.336   6.365   0.981
24634SOL    HW175799   7.390   6.393   0.907
24634SOL    HW275800   7.308   6.277   0.958
24635SOL     OW75801   4.400   7.521  14.650
24635SOL    HW175802   4.465   7.590  14.664
24635SOL    HW275803   4.451   7.441  14.641
24636SOL     OW75804   0.526   3.269   9.622
24636SOL    HW175805   0.558   3.325   9.693
24636SOL    HW275806   0.452   3.318   9.585
24637SOL     OW75807   6.370   6.759   7.393
24637SOL    HW175808   6.327   6.836   7.431
24637SOL    HW275809   6.460   6.788   7.376
24638SOL     OW75810   1.035  12.802   0.101
24638SOL    HW175811   1.118  12.772   0.064
24638SOL    HW275812   0.971  12.739   0.069
24639SOL     OW75813   7.367  14.736  13.741
24639SOL    HW175814   7.423  14.813  13.728
24639SOL    HW275815   7.404  14.691  13.817
24640SOL     OW75816   3.230  13.336   5.923
24640SOL    HW175817   3.260  13.404   5.982
24640SOL    HW275818   3.232  13.256   5.975
24641SOL     OW75819  12.971  14.548  10.247
24641SOL    HW175820  12.952  14.642  10.253
24641SOL    HW275821  13.039  14.541  10.181
24642SOL     OW75822   4.055   6.817  12.259
24642SOL    HW175823   4.008   6.800  12.340
24642SOL    HW275824   4.089   6.906  12.268
24643SOL     OW75825   0.364   1.327   0.154
24643SOL    HW175826   0.388   1.333   0.061
24643SOL    HW275827   0.424   1.261   0.189
24644SOL     OW75828  12.059   8.129  14.496
24644SOL    HW175829  11.967   8.128  14.469
24644SOL    HW275830  12.071   8.212  14.542
24645SOL     OW75831   7.692  13.670   9.574
24645SOL    HW175832   7.750  13.744   9.556
24645SOL    HW275833   7.614  13.688   9.521
24646SOL     OW75834   5.949   0.757   2.882
24646SOL    HW175835   5.999   0.718   2.811
24646SOL    HW275836   5.926   0.845   2.850
24647SOL     OW75837  10.493  13.766   5.977
24647SOL    HW175838  10.408  13.721   5.976
24647SOL    HW275839  10.477  13.846   6.027
24648SOL     OW75840  14.604   1.219  13.316
24648SOL    HW175841  14.579   1.131  13.290
24648SOL    HW275842  14.562   1.233  13.401
24649SOL     OW75843   5.826   8.455  13.535
24649SOL    HW175844   5.819   8.451  13.630
24649SOL    HW275845   5.765   8.525  13.509
24650SOL     OW75846   4.324  13.758   6.637
24650SOL    HW175847   4.247  13.748   6.580
24650SOL    HW275848   4.379  13.683   6.615
24651SOL     OW75849   8.100   0.347  14.342
24651SOL    HW175850   8.113   0.263  14.387
24651SOL    HW275851   8.186   0.369  14.306
24652SOL     OW75852  12.589   1.404   8.748
24652SOL    HW175853  12.601   1.496   8.725
24652SOL    HW275854  12.579   1.360   8.664
24653SOL     OW75855   4.726  14.184   3.725
24653SOL    HW175856   4.685  14.098   3.715
24653SOL    HW275857   4.820  14.165   3.733
24654SOL     OW75858   2.181  14.464  11.115
24654SOL    HW175859   2.154  14.475  11.206
24654SOL    HW275860   2.131  14.530  11.067
24655SOL     OW75861   2.342   5.941   1.839
24655SOL    HW175862   2.407   5.951   1.909
24655SOL    HW275863   2.288   5.866   1.867
24656SOL     OW75864  12.685  12.637   7.754
24656SOL    HW175865  12.671  12.703   7.822
24656SOL    HW275866  12.597  12.615   7.723
24657SOL     OW75867  10.245   2.143   7.319
24657SOL    HW175868  10.166   2.169   7.271
24657SOL    HW275869  10.242   2.196   7.399
24658SOL     OW75870   6.206  13.450   3.814
24658SOL    HW175871   6.268  13.506   3.767
24658SOL    HW275872   6.143  13.511   3.853
24659SOL     OW75873  13.816   1.188  11.717
24659SOL    HW175874  13.823   1.225  11.629
24659SOL    HW275875  13.755   1.115  11.708
24660SOL     OW75876   7.236   7.396   3.824
24660SOL    HW175877   7.232   7.344   3.904
24660SOL    HW275878   7.231   7.487   3.853
24661SOL     OW75879   1.907   8.683  10.869
24661SOL    HW175880   1.896   8.588  10.872
24661SOL    HW275881   1.998   8.697  10.897
24662SOL     OW75882  14.537   0.615   6.452
24662SOL    HW175883  14.459   0.664   6.426
24662SOL    HW275884  14.608   0.680   6.451
24663SOL     OW75885   6.717   0.164  12.899
24663SOL    HW175886   6.631   0.182  12.861
24663SOL    HW275887   6.698   0.133  12.988
24664SOL     OW75888   5.959   1.365   0.032
24664SOL    HW175889   5.870   1.342   0.060
24664SOL    HW275890   6.006   1.383   0.113
24665SOL     OW75891   1.025   8.916   2.366
24665SOL    HW175892   0.995   8.915   2.457
24665SOL    HW275893   1.013   9.007   2.338
24666SOL     OW75894  12.581  13.884  13.243
24666SOL    HW175895  12.529  13.899  13.164
24666SOL    HW275896  12.581  13.789  13.255
24667SOL     OW75897   7.983   1.940   2.479
24667SOL    HW175898   8.050   1.980   2.533
24667SOL    HW275899   7.910   1.925   2.538
24668SOL     OW75900  10.984   7.690  14.879
24668SOL    HW175901  10.940   7.750   0.060
24668SOL    HW275902  10.930   7.693  14.800
24669SOL     OW75903   8.196   4.543   0.670
24669SOL    HW175904   8.116   4.589   0.643
24669SOL    HW275905   8.254   4.612   0.700
24670SOL     OW75906  14.104   2.458  12.817
24670SOL    HW175907  14.103   2.392  12.748
24670SOL    HW275908  14.018   2.500  12.812
24671SOL     OW75909   2.065  11.979  14.509
24671SOL    HW175910   2.007  11.939  14.573
24671SOL    HW275911   2.025  11.961  14.425
24672SOL     OW75912   5.529  11.270   8.572
24672SOL    HW175913   5.530  11.307   8.661
24672SOL    HW275914   5.475  11.331   8.522
24673SOL     OW75915   5.805  11.201   8.542
24673SOL    HW175916   5.728  11.254   8.561
24673SOL    HW275917   5.868  11.263   8.505
24674SOL     OW75918   9.282  11.636   7.286
24674SOL    HW175919   9.342  11.710   7.275
24674SOL    HW275920   9.321  11.584   7.356
24675SOL     OW75921   2.918   1.540   5.007
24675SOL    HW175922   2.825   1.562   5.009
24675SOL    HW275923   2.930   1.482   5.082
24676SOL     OW75924  12.154  11.899   6.538
24676SOL    HW175925  12.104  11.903   6.457
24676SOL    HW275926  12.244  11.918   6.511
24677SOL     OW75927  14.254   2.166   6.739
24677SOL    HW175928  14.318   2.104   6.704
24677SOL    HW275929  14.172   2.143   6.696
24678SOL     OW75930   6.191   9.198   7.574
24678SOL    HW175931   6.191   9.256   7.650
24678SOL    HW275932   6.284   9.191   7.550
24679SOL     OW75933  12.133  14.377   9.486
24679SOL    HW175934  12.165  14.304   9.431
24679SOL    HW275935  12.209  14.403   9.537
24680SOL     OW75936   8.900   0.729   0.451
24680SOL    HW175937   8.849   0.787   0.508
24680SOL    HW275938   8.880   0.759   0.363
24681SOL     OW75939  13.298  12.774  14.386
24681SOL    HW175940  13.290  12.752  14.293
24681SOL    HW275941  13.244  12.709  14.430
24682SOL     OW75942   6.948   4.429   8.971
24682SOL    HW175943   7.038   4.451   8.998
24682SOL    HW275944   6.912   4.512   8.939
24683SOL     OW75945  12.617   1.047  10.581
24683SOL    HW175946  12.701   1.084  10.609
24683SOL    HW275947  12.626   1.039  10.486
24684SOL     OW75948  12.662   9.585   3.452
24684SOL    HW175949  12.680   9.494   3.432
24684SOL    HW275950  12.637   9.624   3.368
24685SOL     OW75951  12.646   6.488  12.882
24685SOL    HW175952  12.607   6.454  12.801
24685SOL    HW275953  12.716   6.426  12.902
24686SOL     OW75954   6.564  11.349  13.493
24686SOL    HW175955   6.494  11.365  13.557
24686SOL    HW275956   6.585  11.256  13.503
24687SOL     OW75957   5.319  13.238   3.370
24687SOL    HW175958   5.389  13.188   3.412
24687SOL    HW275959   5.306  13.314   3.428
24688SOL     OW75960   3.641  11.107   9.785
24688SOL    HW175961   3.610  11.132   9.698
24688SOL    HW275962   3.697  11.031   9.769
24689SOL     OW75963   4.560   2.855   5.371
24689SOL    HW175964   4.478   2.903   5.361
24689SOL    HW275965   4.540   2.766   5.342
24690SOL     OW75966  11.529   2.006  13.764
24690SOL    HW175967  11.564   2.094  13.777
24690SOL    HW275968  11.547   1.986  13.672
24691SOL     OW75969  11.316  14.523  13.706
24691SOL    HW175970  11.256  14.565  13.768
24691SOL    HW275971  11.327  14.587  13.636
24692SOL     OW75972   3.378   7.612  14.313
24692SOL    HW175973   3.379   7.552  14.238
24692SOL    HW275974   3.406   7.559  14.387
24693SOL     OW75975   7.056   8.328  12.528
24693SOL    HW175976   7.065   8.386  12.604
24693SOL    HW275977   7.146   8.308  12.502
24694SOL     OW75978  13.243   5.533   5.492
24694SOL    HW175979  13.338   5.523   5.498
24694SOL    HW275980  13.212   5.516   5.581
24695SOL     OW75981   1.299   7.777   2.482
24695SOL    HW175982   1.348   7.698   2.459
24695SOL    HW275983   1.351   7.849   2.445
24696SOL     OW75984  13.344   5.726  13.418
24696SOL    HW175985  13.382   5.690  13.338
24696SOL    HW275986  13.395   5.805  13.436
24697SOL     OW75987   8.243   8.646  12.929
24697SOL    HW175988   8.196   8.590  12.990
24697SOL    HW275989   8.320   8.596  12.904
24698SOL     OW75990   0.184   1.889   3.357
24698SOL    HW175991   0.253   1.828   3.333
24698SOL    HW275992   0.229   1.954   3.413
24699SOL     OW75993   5.153  11.425   2.259
24699SOL    HW175994   5.189  11.342   2.230
24699SOL    HW275995   5.122  11.409   2.348
24700SOL     OW75996  11.791   5.585   3.570
24700SOL    HW175997  11.838   5.585   3.487
24700SOL    HW275998  11.810   5.499   3.608
24701SOL     OW75999   2.327   1.868   5.712
24701SOL    HW176000   2.342   1.830   5.798
24701SOL    HW276001   2.320   1.962   5.728
24702SOL     OW76002   3.648   5.401   4.487
24702SOL    HW176003   3.623   5.441   4.404
24702SOL    HW276004   3.565   5.385   4.532
24703SOL     OW76005   2.896   5.538  10.355
24703SOL    HW176006   2.928   5.550  10.444
24703SOL    HW276007   2.800   5.534  10.364
24704SOL     OW76008   3.655   4.357   1.663
24704SOL    HW176009   3.659   4.354   1.759
24704SOL    HW276010   3.725   4.418   1.639
24705SOL     OW76011   5.836   6.153   9.817
24705SOL    HW176012   5.875   6.068   9.838
24705SOL    HW276013   5.903   6.217   9.843
24706SOL     OW76014   4.810  14.167   2.144
24706SOL    HW176015   4.896  14.141   2.177
24706SOL    HW276016   4.774  14.223   2.213
24707SOL     OW76017   5.889  13.935   5.773
24707SOL    HW176018   5.863  13.871   5.706
24707SOL    HW276019   5.831  13.918   5.847
24708SOL     OW76020   4.711   1.843  11.471
24708SOL    HW176021   4.802   1.838  11.501
24708SOL    HW276022   4.718   1.857  11.376
24709SOL     OW76023   9.354   8.783   2.391
24709SOL    HW176024   9.327   8.817   2.306
24709SOL    HW276025   9.284   8.809   2.451
24710SOL     OW76026   4.489  14.768   9.512
24710SOL    HW176027   4.507  14.804   9.426
24710SOL    HW276028   4.405  14.807   9.537
24711SOL     OW76029   1.934   1.382  12.534
24711SOL    HW176030   1.937   1.371  12.439
24711SOL    HW276031   2.013   1.339  12.566
24712SOL     OW76032   9.839  12.980   6.257
24712SOL    HW176033   9.890  12.965   6.336
24712SOL    HW276034   9.856  12.903   6.202
24713SOL     OW76035   3.586   6.327  13.696
24713SOL    HW176036   3.550   6.353  13.611
24713SOL    HW276037   3.666   6.279  13.674
24714SOL     OW76038   7.578   2.112   4.133
24714SOL    HW176039   7.575   2.018   4.115
24714SOL    HW276040   7.660   2.125   4.181
24715SOL     OW76041  10.635  10.888   0.649
24715SOL    HW176042  10.607  10.977   0.670
24715SOL    HW276043  10.617  10.838   0.729
24716SOL     OW76044  14.362   4.956   2.433
24716SOL    HW176045  14.341   4.966   2.525
24716SOL    HW276046  14.288   4.996   2.387
24717SOL     OW76047  11.130   5.498   0.196
24717SOL    HW176048  11.085   5.469   0.275
24717SOL    HW276049  11.198   5.557   0.228
24718SOL     OW76050   0.192  11.705   5.905
24718SOL    HW176051   0.121  11.769   5.906
24718SOL    HW276052   0.224  11.706   5.815
24719SOL     OW76053   2.641  14.767  11.971
24719SOL    HW176054   2.732  14.786  11.952
24719SOL    HW276055   2.592  14.835  11.925
24720SOL     OW76056  10.257   8.807   3.600
24720SOL    HW176057  10.298   8.724   3.575
24720SOL    HW276058  10.246   8.854   3.518
24721SOL     OW76059   7.012   3.868   7.256
24721SOL    HW176060   6.932   3.825   7.225
24721SOL    HW276061   7.080   3.800   7.250
24722SOL     OW76062   2.391  11.031   2.018
24722SOL    HW176063   2.452  11.021   2.092
24722SOL    HW276064   2.397  10.947   1.972
24723SOL     OW76065  12.810   3.732   8.037
24723SOL    HW176066  12.836   3.775   8.118
24723SOL    HW276067  12.768   3.651   8.065
24724SOL     OW76068   0.075  11.326   4.905
24724SOL    HW176069   0.067  11.232   4.918
24724SOL    HW276070   0.042  11.364   4.987
24725SOL     OW76071   9.324   2.063   9.709
24725SOL    HW176072   9.350   1.971   9.704
24725SOL    HW276073   9.403   2.110   9.735
24726SOL     OW76074   4.719   7.398   2.535
24726SOL    HW176075   4.731   7.325   2.474
24726SOL    HW276076   4.774   7.376   2.610
24727SOL     OW76077   2.250   6.395   5.067
24727SOL    HW176078   2.325   6.335   5.070
24727SOL    HW276079   2.185   6.356   5.125
24728SOL     OW76080  14.831   0.050   1.625
24728SOL    HW176081   0.027  14.873   1.609
24728SOL    HW276082  14.759   0.008   1.579
24729SOL     OW76083   0.444  13.042  14.129
24729SOL    HW176084   0.525  12.992  14.121
24729SOL    HW276085   0.426  13.044  14.224
24730SOL     OW76086   6.341   7.423   2.765
24730SOL    HW176087   6.371   7.336   2.789
24730SOL    HW276088   6.265   7.407   2.709
24731SOL     OW76089  14.269   2.262   4.907
24731SOL    HW176090  14.323   2.243   4.983
24731SOL    HW276091  14.280   2.186   4.850
24732SOL     OW76092  13.527   0.582   1.631
24732SOL    HW176093  13.505   0.549   1.718
24732SOL    HW276094  13.529   0.677   1.642
24733SOL     OW76095  12.606   2.068   5.419
24733SOL    HW176096  12.672   2.097   5.356
24733SOL    HW276097  12.635   2.104   5.503
24734SOL     OW76098  14.493   8.720  12.089
24734SOL    HW176099  14.427   8.777  12.128
24734SOL    HW276100  14.548   8.779  12.038
24735SOL     OW76101   8.860  13.829   4.194
24735SOL    HW176102   8.823  13.875   4.118
24735SOL    HW276103   8.925  13.770   4.156
24736SOL     OW76104   2.297   8.209   4.612
24736SOL    HW176105   2.349   8.253   4.679
24736SOL    HW276106   2.263   8.131   4.655
24737SOL     OW76107   4.805   0.107  14.069
24737SOL    HW176108   4.752   0.078  13.995
24737SOL    HW276109   4.887   0.136  14.031
24738SOL     OW76110  12.634  10.184   4.930
24738SOL    HW176111  12.675  10.242   4.994
24738SOL    HW276112  12.554  10.230   4.903
24739SOL     OW76113   2.095   2.196   4.254
24739SOL    HW176114   2.157   2.192   4.326
24739SOL    HW276115   2.040   2.118   4.265
24740SOL     OW76116   1.333   9.362  12.058
24740SOL    HW176117   1.409   9.384  12.112
24740SOL    HW276118   1.356   9.394  11.971
24741SOL     OW76119   1.871  11.515  10.612
24741SOL    HW176120   1.921  11.443  10.576
24741SOL    HW276121   1.806  11.536  10.545
24742SOL     OW76122   3.147   4.522  12.421
24742SOL    HW176123   3.227   4.574  12.430
24742SOL    HW276124   3.159   4.448  12.481
24743SOL     OW76125   7.494   5.223   7.558
24743SOL    HW176126   7.484   5.256   7.468
24743SOL    HW276127   7.581   5.250   7.584
24744SOL     OW76128  14.821  12.095   1.403
24744SOL    HW176129  14.823  12.162   1.335
24744SOL    HW276130  14.808  12.013   1.356
24745SOL     OW76131  10.025  12.981   2.576
24745SOL    HW176132  10.109  12.941   2.554
24745SOL    HW276133  10.038  13.075   2.560
24746SOL     OW76134   6.585   0.974   7.297
24746SOL    HW176135   6.607   0.884   7.322
24746SOL    HW276136   6.609   0.980   7.205
24747SOL     OW76137   4.429   3.348   3.335
24747SOL    HW176138   4.495   3.355   3.404
24747SOL    HW276139   4.357   3.404   3.365
24748SOL     OW76140  11.723  14.294   2.321
24748SOL    HW176141  11.688  14.356   2.385
24748SOL    HW276142  11.810  14.327   2.300
24749SOL     OW76143   7.559   5.358  12.361
24749SOL    HW176144   7.644   5.368  12.404
24749SOL    HW276145   7.530   5.270  12.384
24750SOL     OW76146   6.704   6.663   3.176
24750SOL    HW176147   6.779   6.603   3.172
24750SOL    HW276148   6.652   6.630   3.249
24751SOL     OW76149  10.275  14.678   8.164
24751SOL    HW176150  10.286  14.615   8.235
24751SOL    HW276151  10.362  14.718   8.154
24752SOL     OW76152  13.578   6.366   6.713
24752SOL    HW176153  13.508   6.427   6.736
24752SOL    HW276154  13.575   6.361   6.617
24753SOL     OW76155  14.732   7.386   3.297
24753SOL    HW176156  14.651   7.337   3.313
24753SOL    HW276157  14.782   7.375   3.378
24754SOL     OW76158   4.810   3.101   9.668
24754SOL    HW176159   4.803   3.185   9.712
24754SOL    HW276160   4.744   3.046   9.710
24755SOL     OW76161   7.932   3.341   4.237
24755SOL    HW176162   7.907   3.432   4.254
24755SOL    HW276163   7.867   3.289   4.284
24756SOL     OW76164   7.156   6.952   1.592
24756SOL    HW176165   7.216   6.911   1.529
24756SOL    HW276166   7.095   7.001   1.537
24757SOL     OW76167   5.935   6.674   6.273
24757SOL    HW176168   6.014   6.727   6.267
24757SOL    HW276169   5.948   6.618   6.350
24758SOL     OW76170   2.047   9.661   6.171
24758SOL    HW176171   2.048   9.695   6.260
24758SOL    HW276172   2.116   9.709   6.126
24759SOL     OW76173   0.306   3.258   9.202
24759SOL    HW176174   0.360   3.331   9.233
24759SOL    HW276175   0.364   3.209   9.144
24760SOL     OW76176   8.287   2.720  14.535
24760SOL    HW176177   8.325   2.643  14.576
24760SOL    HW276178   8.202   2.730  14.578
24761SOL     OW76179   0.757   4.930  11.014
24761SOL    HW176180   0.757   4.837  11.035
24761SOL    HW276181   0.730   4.934  10.922
24762SOL     OW76182   7.167   2.042   4.393
24762SOL    HW176183   7.261   2.061   4.398
24762SOL    HW276184   7.159   1.981   4.320
24763SOL     OW76185  12.981   3.642   4.883
24763SOL    HW176186  12.967   3.555   4.846
24763SOL    HW276187  12.961   3.702   4.810
24764SOL     OW76188   0.090  10.886   5.461
24764SOL    HW176189  14.875  10.872   5.454
24764SOL    HW276190   0.106  10.967   5.413
24765SOL     OW76191  10.693   0.014   6.046
24765SOL    HW176192  10.774  14.843   6.041
24765SOL    HW276193  10.624  14.827   6.045
24766SOL     OW76194   9.767   2.319   7.519
24766SOL    HW176195   9.690   2.350   7.565
24766SOL    HW276196   9.839   2.332   7.581
24767SOL     OW76197  13.142   3.638   4.388
24767SOL    HW176198  13.237   3.640   4.402
24767SOL    HW276199  13.131   3.651   4.294
24768SOL     OW76200  12.043   6.321   0.151
24768SOL    HW176201  12.047   6.282   0.064
24768SOL    HW276202  12.133   6.316   0.183
24769SOL     OW76203   8.475  10.140  10.452
24769SOL    HW176204   8.537  10.099  10.391
24769SOL    HW276205   8.527  10.208  10.496
24770SOL     OW76206   3.251  13.008   9.802
24770SOL    HW176207   3.172  12.961   9.776
24770SOL    HW276208   3.245  13.093   9.758
24771SOL     OW76209   3.643  13.320   6.542
24771SOL    HW176210   3.674  13.276   6.621
24771SOL    HW276211   3.702  13.394   6.531
24772SOL     OW76212   7.052  12.257   7.511
24772SOL    HW176213   6.976  12.234   7.457
24772SOL    HW276214   7.061  12.183   7.571
24773SOL     OW76215   6.166  14.558   8.545
24773SOL    HW176216   6.144  14.639   8.590
24773SOL    HW276217   6.081  14.518   8.524
24774SOL     OW76218   7.839  14.077  11.298
24774SOL    HW176219   7.815  14.072  11.391
24774SOL    HW276220   7.905  14.146  11.294
24775SOL     OW76221   6.335   3.455  12.436
24775SOL    HW176222   6.255   3.506  12.425
24775SOL    HW276223   6.320   3.374  12.387
24776SOL     OW76224   8.922   7.383  10.342
24776SOL    HW176225   8.871   7.359  10.264
24776SOL    HW276226   9.013   7.364  10.318
24777SOL     OW76227   2.702   8.226   5.874
24777SOL    HW176228   2.630   8.286   5.891
24777SOL    HW276229   2.660   8.146   5.842
24778SOL     OW76230   0.229  14.360   4.366
24778SOL    HW176231   0.173  14.432   4.339
24778SOL    HW276232   0.269  14.389   4.447
24779SOL     OW76233   1.054  10.325   4.967
24779SOL    HW176234   1.130  10.307   4.911
24779SOL    HW276235   1.011  10.240   4.978
24780SOL     OW76236   8.597  13.383   2.981
24780SOL    HW176237   8.683  13.363   2.945
24780SOL    HW276238   8.556  13.297   2.995
24781SOL     OW76239  10.396   8.025   4.842
24781SOL    HW176240  10.426   8.092   4.903
24781SOL    HW276241  10.456   7.952   4.855
24782SOL     OW76242  14.306   5.799   4.551
24782SOL    HW176243  14.335   5.774   4.639
24782SOL    HW276244  14.241   5.733   4.527
24783SOL     OW76245  14.313   2.747  13.129
24783SOL    HW176246  14.265   2.795  13.196
24783SOL    HW276247  14.327   2.811  13.059
24784SOL     OW76248   5.220  11.635   8.470
24784SOL    HW176249   5.181  11.609   8.553
24784SOL    HW276250   5.188  11.724   8.455
24785SOL     OW76251   5.699   6.897   5.726
24785SOL    HW176252   5.769   6.955   5.697
24785SOL    HW276253   5.671   6.933   5.811
24786SOL     OW76254   3.158   7.130   4.433
24786SOL    HW176255   3.154   7.063   4.501
24786SOL    HW276256   3.072   7.126   4.391
24787SOL     OW76257   2.442   1.343   5.349
24787SOL    HW176258   2.442   1.248   5.333
24787SOL    HW276259   2.455   1.352   5.443
24788SOL     OW76260  12.811   6.777   4.186
24788SOL    HW176261  12.905   6.787   4.197
24788SOL    HW276262  12.774   6.861   4.214
24789SOL     OW76263   5.508   1.395   8.892
24789SOL    HW176264   5.527   1.488   8.886
24789SOL    HW276265   5.549   1.357   8.813
24790SOL     OW76266   6.040   7.688   8.242
24790SOL    HW176267   5.945   7.685   8.238
24790SOL    HW276268   6.068   7.597   8.238
24791SOL     OW76269   8.485   5.509   2.773
24791SOL    HW176270   8.574   5.510   2.806
24791SOL    HW276271   8.494   5.501   2.679
24792SOL     OW76272  11.518  10.144  10.125
24792SOL    HW176273  11.496  10.122  10.035
24792SOL    HW276274  11.575  10.221  10.118
24793SOL     OW76275   3.542   6.700   6.244
24793SOL    HW176276   3.559   6.750   6.164
24793SOL    HW276277   3.453   6.668   6.233
24794SOL     OW76278  10.092   9.622  13.012
24794SOL    HW176279  10.150   9.696  13.025
24794SOL    HW276280  10.024   9.654  12.953
24795SOL     OW76281   3.068   0.890   4.248
24795SOL    HW176282   3.052   0.900   4.341
24795SOL    HW276283   3.050   0.798   4.230
24796SOL     OW76284   0.366   0.061   2.565
24796SOL    HW176285   0.291   0.013   2.530
24796SOL    HW276286   0.328   0.132   2.616
24797SOL     OW76287  11.730  11.327   2.891
24797SOL    HW176288  11.664  11.299   2.828
24797SOL    HW276289  11.806  11.352   2.838
24798SOL     OW76290   7.679  14.733   4.374
24798SOL    HW176291   7.599  14.709   4.422
24798SOL    HW276292   7.674  14.682   4.293
24799SOL     OW76293   5.456   4.483  11.743
24799SOL    HW176294   5.486   4.432  11.818
24799SOL    HW276295   5.448   4.572  11.776
24800SOL     OW76296   4.944  10.920   2.108
24800SOL    HW176297   4.931  11.015   2.110
24800SOL    HW276298   4.858  10.885   2.085
24801SOL     OW76299  11.365  10.674   1.623
24801SOL    HW176300  11.355  10.586   1.585
24801SOL    HW276301  11.292  10.724   1.587
24802SOL     OW76302  14.763  10.289   4.751
24802SOL    HW176303  14.855  10.298   4.777
24802SOL    HW276304  14.764  10.286   4.656
24803SOL     OW76305   1.986   7.257   8.705
24803SOL    HW176306   2.035   7.218   8.777
24803SOL    HW276307   2.050   7.309   8.657
24804SOL     OW76308   5.250  12.593  11.951
24804SOL    HW176309   5.159  12.564  11.958
24804SOL    HW276310   5.259  12.663  12.017
24805SOL     OW76311   4.815   8.226  11.030
24805SOL    HW176312   4.873   8.156  11.003
24805SOL    HW276313   4.852   8.257  11.113
24806SOL     OW76314  11.416   5.013   0.393
24806SOL    HW176315  11.499   5.034   0.350
24806SOL    HW276316  11.428   5.043   0.483
24807SOL     OW76317   2.318   7.809  11.225
24807SOL    HW176318   2.369   7.854  11.294
24807SOL    HW276319   2.247   7.767  11.272
24808SOL     OW76320   7.113  13.739  12.289
24808SOL    HW176321   7.062  13.789  12.225
24808SOL    HW276322   7.201  13.775  12.283
24809SOL     OW76323   8.298  12.314   9.750
24809SOL    HW176324   8.252  12.246   9.799
24809SOL    HW276325   8.355  12.265   9.690
24810SOL     OW76326   9.625   5.350   9.164
24810SOL    HW176327   9.718   5.334   9.178
24810SOL    HW276328   9.599   5.407   9.236
24811SOL     OW76329   9.182  11.959   0.257
24811SOL    HW176330   9.225  11.932   0.338
24811SOL    HW276331   9.211  11.896   0.191
24812SOL     OW76332  14.288  13.990  13.465
24812SOL    HW176333  14.312  13.940  13.388
24812SOL    HW276334  14.370  14.024  13.499
24813SOL     OW76335   9.383   0.018   4.089
24813SOL    HW176336   9.307   0.005   4.032
24813SOL    HW276337   9.445  14.830   4.062
24814SOL     OW76338  12.632   2.892   4.878
24814SOL    HW176339  12.717   2.857   4.906
24814SOL    HW276340  12.582   2.902   4.959
24815SOL     OW76341  10.868  14.253  12.843
24815SOL    HW176342  10.781  14.271  12.808
24815SOL    HW276343  10.854  14.242  12.937
24816SOL     OW76344  13.973   3.721   5.452
24816SOL    HW176345  13.986   3.792   5.515
24816SOL    HW276346  13.952   3.765   5.370
24817SOL     OW76347  11.414  14.716   6.959
24817SOL    HW176348  11.326  14.706   6.924
24817SOL    HW276349  11.401  14.754   7.046
24818SOL     OW76350   5.038   0.676   3.124
24818SOL    HW176351   5.005   0.753   3.169
24818SOL    HW276352   5.117   0.707   3.078
24819SOL     OW76353   5.627  13.132   3.223
24819SOL    HW176354   5.586  13.055   3.183
24819SOL    HW276355   5.682  13.167   3.153
24820SOL     OW76356   8.629  13.035   8.890
24820SOL    HW176357   8.600  13.126   8.891
24820SOL    HW276358   8.722  13.038   8.912
24821SOL     OW76359  12.874   2.269   2.034
24821SOL    HW176360  12.882   2.188   1.984
24821SOL    HW276361  12.780   2.275   2.054
24822SOL     OW76362   7.357   8.958   7.144
24822SOL    HW176363   7.288   8.952   7.210
24822SOL    HW276364   7.381   8.867   7.127
24823SOL     OW76365   6.359   4.257  12.542
24823SOL    HW176366   6.370   4.178  12.595
24823SOL    HW276367   6.348   4.224  12.452
24824SOL     OW76368  10.485   4.355   4.732
24824SOL    HW176369  10.508   4.296   4.803
24824SOL    HW276370  10.412   4.312   4.687
24825SOL     OW76371  10.689   6.948   2.253
24825SOL    HW176372  10.640   7.017   2.297
24825SOL    HW276373  10.681   6.872   2.310
24826SOL     OW76374  13.003   9.974   3.146
24826SOL    HW176375  12.984   9.946   3.235
24826SOL    HW276376  13.099   9.973   3.141
24827SOL     OW76377   5.288   6.074   2.522
24827SOL    HW176378   5.213   6.070   2.463
24827SOL    HW276379   5.250   6.076   2.609
24828SOL     OW76380   6.174  11.541   2.293
24828SOL    HW176381   6.118  11.469   2.264
24828SOL    HW276382   6.207  11.514   2.378
24829SOL     OW76383   8.900  13.108   0.391
24829SOL    HW176384   8.883  13.070   0.305
24829SOL    HW276385   8.976  13.165   0.377
24830SOL     OW76386  11.322   0.009  12.341
24830SOL    HW176387  11.340  14.873  12.248
24830SOL    HW276388  11.402  14.861  12.386
24831SOL     OW76389   3.885   7.396   0.220
24831SOL    HW176390   3.804   7.420   0.174
24831SOL    HW276391   3.907   7.309   0.186
24832SOL     OW76392  14.515  10.649  10.752
24832SOL    HW176393  14.599  10.608  10.731
24832SOL    HW276394  14.460  10.576  10.781
24833SOL     OW76395   1.541   4.108   0.335
24833SOL    HW176396   1.578   4.023   0.358
24833SOL    HW276397   1.456   4.089   0.296
24834SOL     OW76398   1.619   6.581   6.024
24834SOL    HW176399   1.546   6.528   6.057
24834SOL    HW276400   1.613   6.664   6.072
24835SOL     OW76401   8.927   2.093   2.553
24835SOL    HW176402   8.890   2.014   2.514
24835SOL    HW276403   8.995   2.062   2.613
24836SOL     OW76404   1.193   8.741   0.710
24836SOL    HW176405   1.239   8.824   0.718
24836SOL    HW276406   1.243   8.693   0.644
24837SOL     OW76407  11.209   8.713  14.419
24837SOL    HW176408  11.259   8.631  14.416
24837SOL    HW276409  11.264   8.775  14.370
24838SOL     OW76410   8.217   9.790   7.236
24838SOL    HW176411   8.145   9.736   7.204
24838SOL    HW276412   8.294   9.758   7.189
24839SOL     OW76413   4.710  12.209   9.751
24839SOL    HW176414   4.635  12.150   9.742
24839SOL    HW276415   4.733  12.232   9.661
24840SOL     OW76416   0.487   1.209  11.230
24840SOL    HW176417   0.484   1.117  11.203
24840SOL    HW276418   0.395   1.234  11.240
24841SOL     OW76419  11.992   9.544   6.949
24841SOL    HW176420  12.062   9.533   6.885
24841SOL    HW276421  12.012   9.480   7.017
24842SOL     OW76422   8.165   2.690   2.092
24842SOL    HW176423   8.174   2.629   2.019
24842SOL    HW276424   8.224   2.763   2.069
24843SOL     OW76425  13.309   4.911  12.319
24843SOL    HW176426  13.396   4.895  12.282
24843SOL    HW276427  13.268   4.972  12.258
24844SOL     OW76428   5.625   3.525  14.106
24844SOL    HW176429   5.607   3.453  14.167
24844SOL    HW276430   5.721   3.529  14.101
24845SOL     OW76431   0.283   1.815  13.401
24845SOL    HW176432   0.354   1.873  13.376
24845SOL    HW276433   0.239   1.793  13.319
24846SOL     OW76434   0.301  13.524  12.210
24846SOL    HW176435   0.227  13.583  12.223
24846SOL    HW276436   0.282  13.448  12.265
24847SOL     OW76437   2.851   9.878   5.984
24847SOL    HW176438   2.934   9.831   5.993
24847SOL    HW276439   2.831   9.874   5.891
24848SOL     OW76440   4.357   9.327   4.419
24848SOL    HW176441   4.430   9.301   4.362
24848SOL    HW276442   4.347   9.420   4.403
24849SOL     OW76443   8.122  11.756  11.890
24849SOL    HW176444   8.207  11.729  11.855
24849SOL    HW276445   8.144  11.819  11.959
24850SOL     OW76446   0.813   3.590   2.100
24850SOL    HW176447   0.764   3.537   2.036
24850SOL    HW276448   0.770   3.675   2.097
24851SOL     OW76449   9.208   5.854  10.935
24851SOL    HW176450   9.212   5.877  10.842
24851SOL    HW276451   9.189   5.937  10.979
24852SOL     OW76452   3.874   7.777   0.961
24852SOL    HW176453   3.817   7.848   0.933
24852SOL    HW276454   3.943   7.774   0.894
24853SOL     OW76455   1.614  12.662   1.014
24853SOL    HW176456   1.657  12.699   0.937
24853SOL    HW276457   1.653  12.709   1.088
24854SOL     OW76458  13.184   7.385   1.357
24854SOL    HW176459  13.098   7.417   1.382
24854SOL    HW276460  13.170   7.345   1.270
24855SOL     OW76461   8.213   2.077   7.518
24855SOL    HW176462   8.216   2.049   7.426
24855SOL    HW276463   8.186   1.998   7.566
24856SOL     OW76464   5.368   1.378   9.869
24856SOL    HW176465   5.360   1.288   9.900
24856SOL    HW276466   5.320   1.379   9.786
24857SOL     OW76467   0.893   0.935   1.737
24857SOL    HW176468   0.800   0.933   1.715
24857SOL    HW276469   0.895   0.968   1.827
24858SOL     OW76470   7.384  12.368  14.729
24858SOL    HW176471   7.371  12.419  14.810
24858SOL    HW276472   7.366  12.430  14.659
24859SOL     OW76473  10.611   3.758   4.345
24859SOL    HW176474  10.612   3.830   4.407
24859SOL    HW276475  10.658   3.792   4.268
24860SOL     OW76476  12.610   7.084   3.695
24860SOL    HW176477  12.666   7.161   3.683
24860SOL    HW276478  12.525   7.111   3.660
24861SOL     OW76479   0.117  10.434   1.932
24861SOL    HW176480   0.102  10.465   2.021
24861SOL    HW276481   0.207  10.460   1.912
24862SOL     OW76482   6.005   7.356   5.412
24862SOL    HW176483   6.070   7.290   5.436
24862SOL    HW276484   5.927   7.332   5.462
24863SOL     OW76485  10.103   5.319   9.036
24863SOL    HW176486  10.087   5.394   8.979
24863SOL    HW276487  10.198   5.306   9.034
24864SOL     OW76488   9.118   6.032   8.468
24864SOL    HW176489   9.111   6.006   8.560
24864SOL    HW276490   9.176   6.108   8.470
24865SOL     OW76491  10.596   6.606   0.812
24865SOL    HW176492  10.500   6.599   0.818
24865SOL    HW276493  10.620   6.543   0.744
24866SOL     OW76494   6.064  12.093   4.759
24866SOL    HW176495   6.087  12.157   4.691
24866SOL    HW276496   6.030  12.018   4.711
24867SOL     OW76497   7.164   9.228   5.152
24867SOL    HW176498   7.072   9.217   5.178
24867SOL    HW276499   7.189   9.143   5.116
24868SOL     OW76500  14.626  10.197   2.595
24868SOL    HW176501  14.568  10.271   2.576
24868SOL    HW276502  14.587  10.155   2.672
24869SOL     OW76503   9.969  13.568   1.752
24869SOL    HW176504   9.938  13.480   1.775
24869SOL    HW276505  10.051  13.552   1.705
24870SOL     OW76506  11.514   5.368  11.732
24870SOL    HW176507  11.555   5.439  11.683
24870SOL    HW276508  11.422   5.395  11.740
24871SOL     OW76509   0.497   6.012   7.231
24871SOL    HW176510   0.429   5.944   7.224
24871SOL    HW276511   0.461   6.086   7.183
24872SOL     OW76512  13.658   5.761   4.324
24872SOL    HW176513  13.583   5.807   4.361
24872SOL    HW276514  13.727   5.827   4.319
24873SOL     OW76515   6.970  12.612   9.090
24873SOL    HW176516   7.050  12.655   9.118
24873SOL    HW276517   6.900  12.664   9.129
24874SOL     OW76518  13.901   7.299  14.697
24874SOL    HW176519  13.854   7.361  14.754
24874SOL    HW276520  13.961   7.354  14.646
24875SOL     OW76521   9.946   2.707  12.931
24875SOL    HW176522   9.985   2.620  12.941
24875SOL    HW276523   9.933   2.717  12.837
24876SOL     OW76524  11.619  10.925  11.057
24876SOL    HW176525  11.661  10.869  10.991
24876SOL    HW276526  11.681  10.997  11.070
24877SOL     OW76527  12.763   7.162   0.776
24877SOL    HW176528  12.832   7.170   0.710
24877SOL    HW276529  12.710   7.242   0.765
24878SOL     OW76530   2.606   2.057  12.963
24878SOL    HW176531   2.636   2.055  13.054
24878SOL    HW276532   2.650   1.983  12.922
24879SOL     OW76533   2.151  11.981   6.730
24879SOL    HW176534   2.074  11.993   6.675
24879SOL    HW276535   2.145  11.890   6.760
24880SOL     OW76536   2.882   0.080   4.404
24880SOL    HW176537   2.919   0.165   4.425
24880SOL    HW276538   2.928   0.019   4.462
24881SOL     OW76539   5.084   9.553   5.749
24881SOL    HW176540   5.033   9.484   5.793
24881SOL    HW276541   5.068   9.539   5.656
24882SOL     OW76542   5.222   5.999  11.276
24882SOL    HW176543   5.285   5.980  11.207
24882SOL    HW276544   5.197   5.914  11.310
24883SOL     OW76545   4.568  14.192  10.503
24883SOL    HW176546   4.634  14.194  10.433
24883SOL    HW276547   4.551  14.099  10.517
24884SOL     OW76548   1.228   3.329   6.486
24884SOL    HW176549   1.208   3.418   6.515
24884SOL    HW276550   1.143   3.286   6.477
24885SOL     OW76551  13.387   4.360  12.855
24885SOL    HW176552  13.376   4.380  12.948
24885SOL    HW276553  13.359   4.439  12.809
24886SOL     OW76554   4.007  13.534   6.576
24886SOL    HW176555   3.929  13.557   6.526
24886SOL    HW276556   4.031  13.447   6.544
24887SOL     OW76557   7.004   9.280  10.850
24887SOL    HW176558   6.922   9.260  10.895
24887SOL    HW276559   7.072   9.268  10.917
24888SOL     OW76560   1.846   8.433   3.327
24888SOL    HW176561   1.930   8.392   3.308
24888SOL    HW276562   1.832   8.494   3.255
24889SOL     OW76563   9.446  14.223   5.084
24889SOL    HW176564   9.380  14.213   5.152
24889SOL    HW276565   9.474  14.314   5.090
24890SOL     OW76566  13.662   5.512   4.510
24890SOL    HW176567  13.646   5.578   4.442
24890SOL    HW276568  13.678   5.431   4.462
24891SOL     OW76569   8.704   9.121   9.809
24891SOL    HW176570   8.651   9.047   9.779
24891SOL    HW276571   8.702   9.115   9.904
24892SOL     OW76572   8.920   1.143  10.629
24892SOL    HW176573   8.893   1.212  10.690
24892SOL    HW276574   9.004   1.113  10.664
24893SOL     OW76575  13.595  10.007  12.468
24893SOL    HW176576  13.526   9.954  12.427
24893SOL    HW276577  13.612   9.963  12.551
24894SOL     OW76578  14.753   9.075   2.223
24894SOL    HW176579  14.839   9.118   2.218
24894SOL    HW276580  14.690   9.143   2.201
24895SOL     OW76581  10.359  11.614   3.941
24895SOL    HW176582  10.394  11.665   4.014
24895SOL    HW276583  10.349  11.678   3.870
24896SOL     OW76584   3.307   8.984   6.618
24896SOL    HW176585   3.257   8.962   6.540
24896SOL    HW276586   3.367   8.911   6.630
24897SOL     OW76587   7.782   2.453   4.379
24897SOL    HW176588   7.859   2.504   4.352
24897SOL    HW276589   7.727   2.516   4.426
24898SOL     OW76590   6.421  10.441  13.823
24898SOL    HW176591   6.475  10.487  13.759
24898SOL    HW276592   6.436  10.489  13.905
24899SOL     OW76593   2.374  10.842  14.016
24899SOL    HW176594   2.348  10.934  14.013
24899SOL    HW276595   2.387  10.823  14.109
24900SOL     OW76596  14.230  10.796   0.706
24900SOL    HW176597  14.263  10.749   0.782
24900SOL    HW276598  14.175  10.865   0.742
24901SOL     OW76599  10.492   6.167   8.654
24901SOL    HW176600  10.398   6.161   8.673
24901SOL    HW276601  10.496   6.172   8.558
24902SOL     OW76602  12.715   5.026  11.121
24902SOL    HW176603  12.675   5.108  11.091
24902SOL    HW276604  12.809   5.039  11.108
24903SOL     OW76605   6.933  10.844   9.846
24903SOL    HW176606   7.021  10.865   9.879
24903SOL    HW276607   6.934  10.749   9.836
24904SOL     OW76608  11.650  14.766   8.843
24904SOL    HW176609  11.629  14.676   8.817
24904SOL    HW276610  11.725  14.790   8.788
24905SOL     OW76611  13.817  13.821   6.025
24905SOL    HW176612  13.837  13.760   6.096
24905SOL    HW276613  13.900  13.862   6.003
24906SOL     OW76614   6.143   5.687  11.254
24906SOL    HW176615   6.058   5.730  11.241
24906SOL    HW276616   6.144   5.664  11.347
24907SOL     OW76617   7.367   5.659  14.687
24907SOL    HW176618   7.427   5.624  14.621
24907SOL    HW276619   7.386   5.609  14.766
24908SOL     OW76620  13.124  10.792   4.078
24908SOL    HW176621  13.170  10.870   4.049
24908SOL    HW276622  13.160  10.773   4.165
24909SOL     OW76623   7.987   0.550   6.871
24909SOL    HW176624   8.006   0.469   6.919
24909SOL    HW276625   8.055   0.611   6.898
24910SOL     OW76626  11.487   6.656  12.190
24910SOL    HW176627  11.548   6.697  12.251
24910SOL    HW276628  11.472   6.722  12.122
24911SOL     OW76629  10.890   5.865  10.398
24911SOL    HW176630  10.964   5.900  10.349
24911SOL    HW276631  10.884   5.774  10.370
24912SOL     OW76632   0.656   0.893  11.010
24912SOL    HW176633   0.742   0.852  11.014
24912SOL    HW276634   0.626   0.895  11.101
24913SOL     OW76635  11.292   6.110   6.176
24913SOL    HW176636  11.255   6.022   6.163
24913SOL    HW276637  11.383   6.095   6.199
24914SOL     OW76638   8.757   0.204  11.321
24914SOL    HW176639   8.752   0.108  11.328
24914SOL    HW276640   8.726   0.223  11.233
24915SOL     OW76641   9.866   6.197   3.999
24915SOL    HW176642   9.799   6.234   4.056
24915SOL    HW276643   9.946   6.244   4.022
24916SOL     OW76644   9.816  14.409   7.529
24916SOL    HW176645   9.855  14.430   7.444
24916SOL    HW276646   9.766  14.487   7.553
24917SOL     OW76647  12.823   1.824  11.665
24917SOL    HW176648  12.886   1.787  11.603
24917SOL    HW276649  12.875   1.847  11.741
24918SOL     OW76650  14.257   7.088   0.452
24918SOL    HW176651  14.258   7.036   0.533
24918SOL    HW276652  14.295   7.030   0.386
24919SOL     OW76653   0.483  12.749   9.660
24919SOL    HW176654   0.571  12.786   9.649
24919SOL    HW276655   0.494  12.656   9.640
24920SOL     OW76656  14.271   8.390  13.452
24920SOL    HW176657  14.322   8.435  13.384
24920SOL    HW276658  14.336   8.358  13.514
24921SOL     OW76659   9.567   5.088   4.283
24921SOL    HW176660   9.657   5.067   4.306
24921SOL    HW276661   9.519   5.081   4.365
24922SOL     OW76662   5.743   9.411  12.033
24922SOL    HW176663   5.734   9.325  12.074
24922SOL    HW276664   5.654   9.447  12.034
24923SOL     OW76665   0.507  14.152   1.140
24923SOL    HW176666   0.476  14.242   1.131
24923SOL    HW276667   0.479  14.126   1.228
24924SOL     OW76668   3.412   0.105   9.785
24924SOL    HW176669   3.473   0.179   9.791
24924SOL    HW276670   3.461   0.030   9.819
24925SOL     OW76671  12.834  10.156   0.663
24925SOL    HW176672  12.861  10.068   0.637
24925SOL    HW276673  12.788  10.144   0.746
24926SOL     OW76674  10.966  14.036  11.899
24926SOL    HW176675  10.895  14.100  11.892
24926SOL    HW276676  10.956  13.982  11.820
24927SOL     OW76677   6.798   8.648   5.936
24927SOL    HW176678   6.809   8.563   5.893
24927SOL    HW276679   6.813   8.712   5.866
24928SOL     OW76680   8.885   1.129  14.691
24928SOL    HW176681   8.829   1.199  14.658
24928SOL    HW276682   8.937   1.101  14.616
24929SOL     OW76683  13.955  11.599  11.402
24929SOL    HW176684  14.025  11.607  11.466
24929SOL    HW276685  13.991  11.637  11.322
24930SOL     OW76686   3.833   8.407  12.092
24930SOL    HW176687   3.759   8.367  12.136
24930SOL    HW276688   3.833   8.368  12.004
24931SOL     OW76689   8.458   4.998   6.313
24931SOL    HW176690   8.526   4.931   6.308
24931SOL    HW276691   8.507   5.081   6.310
24932SOL     OW76692   9.798   9.820   5.928
24932SOL    HW176693   9.829   9.862   5.848
24932SOL    HW276694   9.811   9.727   5.914
24933SOL     OW76695  10.688   7.477   2.679
24933SOL    HW176696  10.756   7.452   2.742
24933SOL    HW276697  10.728   7.462   2.594
24934SOL     OW76698  14.835   4.442  12.033
24934SOL    HW176699  14.765   4.498  12.000
24934SOL    HW276700  14.793   4.389  12.101
24935SOL     OW76701  10.049   6.339   1.743
24935SOL    HW176702  10.068   6.419   1.792
24935SOL    HW276703   9.967   6.307   1.779
24936SOL     OW76704  11.979   4.909   5.291
24936SOL    HW176705  12.039   4.954   5.350
24936SOL    HW276706  12.009   4.933   5.203
24937SOL     OW76707   6.237   8.986  11.634
24937SOL    HW176708   6.203   9.056  11.690
24937SOL    HW276709   6.328   9.009  11.620
24938SOL     OW76710  13.418   5.670   3.785
24938SOL    HW176711  13.453   5.719   3.710
24938SOL    HW276712  13.479   5.687   3.856
24939SOL     OW76713   2.160  10.434   9.444
24939SOL    HW176714   2.130  10.477   9.524
24939SOL    HW276715   2.154  10.502   9.376
24940SOL     OW76716   5.780   1.015   7.454
24940SOL    HW176717   5.768   0.927   7.492
24940SOL    HW276718   5.871   1.037   7.474
24941SOL     OW76719  11.046  11.466  11.633
24941SOL    HW176720  11.013  11.505  11.552
24941SOL    HW276721  11.100  11.393  11.603
24942SOL     OW76722  13.706  12.891   8.145
24942SOL    HW176723  13.768  12.962   8.128
24942SOL    HW276724  13.620  12.930   8.132
24943SOL     OW76725   5.005   7.345  12.269
24943SOL    HW176726   5.070   7.311  12.207
24943SOL    HW276727   5.045   7.424  12.305
24944SOL     OW76728   0.638   7.272  14.707
24944SOL    HW176729   0.659   7.360  14.675
24944SOL    HW276730   0.706   7.216  14.671
24945SOL     OW76731  14.026   4.143  11.801
24945SOL    HW176732  14.100   4.163  11.859
24945SOL    HW276733  13.992   4.229  11.776
24946SOL     OW76734  13.967   8.148   6.851
24946SOL    HW176735  13.976   8.117   6.942
24946SOL    HW276736  13.958   8.068   6.799
24947SOL     OW76737   3.830   8.984  11.386
24947SOL    HW176738   3.741   9.019  11.390
24947SOL    HW276739   3.874   9.023  11.462
24948SOL     OW76740  13.974   8.414  10.514
24948SOL    HW176741  13.996   8.500  10.477
24948SOL    HW276742  13.900   8.432  10.573
24949SOL     OW76743  10.087   8.517   8.386
24949SOL    HW176744  10.028   8.526   8.460
24949SOL    HW276745  10.072   8.595   8.333
24950SOL     OW76746   4.038  14.045   5.987
24950SOL    HW176747   3.968  14.028   6.050
24950SOL    HW276748   4.066  14.134   6.006
24951SOL     OW76749  14.129   6.980   1.573
24951SOL    HW176750  14.216   6.951   1.547
24951SOL    HW276751  14.077   6.900   1.573
24952SOL     OW76752  10.053   6.574   1.892
24952SOL    HW176753   9.972   6.600   1.935
24952SOL    HW276754  10.123   6.602   1.951
24953SOL     OW76755   8.540  13.978  13.794
24953SOL    HW176756   8.493  13.926  13.728
24953SOL    HW276757   8.629  13.942  13.793
24954SOL     OW76758   4.820  14.388  13.172
24954SOL    HW176759   4.762  14.463  13.156
24954SOL    HW276760   4.814  14.337  13.091
24955SOL     OW76761   2.606   5.169   1.007
24955SOL    HW176762   2.547   5.105   0.968
24955SOL    HW276763   2.650   5.210   0.932
24956SOL     OW76764   1.534   7.778   1.086
24956SOL    HW176765   1.621   7.772   1.045
24956SOL    HW276766   1.552   7.803   1.176
24957SOL     OW76767   4.977   3.820   3.453
24957SOL    HW176768   4.948   3.816   3.362
24957SOL    HW276769   5.061   3.865   3.450
24958SOL     OW76770   4.492   8.477   3.618
24958SOL    HW176771   4.448   8.527   3.686
24958SOL    HW276772   4.584   8.479   3.642
24959SOL     OW76773   6.458   2.697   3.894
24959SOL    HW176774   6.382   2.640   3.878
24959SOL    HW276775   6.465   2.750   3.815
24960SOL     OW76776   8.732  10.685  13.555
24960SOL    HW176777   8.701  10.596  13.571
24960SOL    HW276778   8.772  10.681  13.468
24961SOL     OW76779   0.869  12.495   4.776
24961SOL    HW176780   0.832  12.578   4.807
24961SOL    HW276781   0.793  12.437   4.768
24962SOL     OW76782   0.650  10.836  11.757
24962SOL    HW176783   0.610  10.812  11.841
24962SOL    HW276784   0.739  10.801  11.763
24963SOL     OW76785  13.313   9.285   5.665
24963SOL    HW176786  13.244   9.264   5.728
24963SOL    HW276787  13.281   9.363   5.620
24964SOL     OW76788   0.247   7.138   0.052
24964SOL    HW176789   0.261   7.232   0.066
24964SOL    HW276790   0.331   7.098   0.075
24965SOL     OW76791  13.193  10.054  13.297
24965SOL    HW176792  13.152  10.128  13.252
24965SOL    HW276793  13.228  10.000  13.227
24966SOL     OW76794   9.551   0.076   7.075
24966SOL    HW176795   9.646   0.073   7.066
24966SOL    HW276796   9.536   0.090   7.169
24967SOL     OW76797   4.655   8.494   4.806
24967SOL    HW176798   4.581   8.537   4.762
24967SOL    HW276799   4.646   8.402   4.782
24968SOL     OW76800  11.596   0.831  12.108
24968SOL    HW176801  11.512   0.786  12.116
24968SOL    HW276802  11.575   0.913  12.064
24969SOL     OW76803   0.938  10.968   6.729
24969SOL    HW176804   0.978  11.032   6.788
24969SOL    HW276805   1.011  10.910   6.705
24970SOL     OW76806   8.571   2.087  14.327
24970SOL    HW176807   8.480   2.114  14.323
24970SOL    HW276808   8.612   2.129  14.251
24971SOL     OW76809  11.259  14.741   1.290
24971SOL    HW176810  11.336  14.797   1.297
24971SOL    HW276811  11.260  14.688   1.370
24972SOL     OW76812  12.916   3.218  13.763
24972SOL    HW176813  12.839   3.253  13.809
24972SOL    HW276814  12.903   3.244  13.672
24973SOL     OW76815   4.203  13.398   3.683
24973SOL    HW176816   4.290  13.434   3.700
24973SOL    HW276817   4.156  13.468   3.637
24974SOL     OW76818  11.649   0.173   5.129
24974SOL    HW176819  11.561   0.168   5.167
24974SOL    HW276820  11.684   0.085   5.138
24975SOL     OW76821  11.065   7.787   1.777
24975SOL    HW176822  11.045   7.872   1.738
24975SOL    HW276823  11.160   7.786   1.787
24976SOL     OW76824   7.333  13.875   7.180
24976SOL    HW176825   7.240  13.864   7.197
24976SOL    HW276826   7.377  13.825   7.249
24977SOL     OW76827   3.841  11.266  12.543
24977SOL    HW176828   3.760  11.299  12.504
24977SOL    HW276829   3.897  11.246  12.468
24978SOL     OW76830   8.123   6.903  14.847
24978SOL    HW176831   8.206   6.864  14.820
24978SOL    HW276832   8.111   6.874   0.058
24979SOL     OW76833   1.603  11.161   5.930
24979SOL    HW176834   1.689  11.127   5.955
24979SOL    HW276835   1.621  11.251   5.901
24980SOL     OW76836   1.696   0.094   6.261
24980SOL    HW176837   1.659   0.070   6.176
24980SOL    HW276838   1.732   0.012   6.295
24981SOL     OW76839  12.992   2.316   2.288
24981SOL    HW176840  12.984   2.270   2.204
24981SOL    HW276841  13.085   2.340   2.293
24982SOL     OW76842  11.227   7.952  14.368
24982SOL    HW176843  11.202   7.997  14.287
24982SOL    HW276844  11.297   7.893  14.342
24983SOL     OW76845   5.870   8.580   7.861
24983SOL    HW176846   5.891   8.555   7.771
24983SOL    HW276847   5.787   8.537   7.879
24984SOL     OW76848   6.631   8.182   0.149
24984SOL    HW176849   6.645   8.265   0.194
24984SOL    HW276850   6.652   8.116   0.215
24985SOL     OW76851   8.581  14.753   0.686
24985SOL    HW176852   8.523  14.688   0.647
24985SOL    HW276853   8.577  14.828   0.626
24986SOL     OW76854  11.418   1.589  12.849
24986SOL    HW176855  11.496   1.536  12.867
24986SOL    HW276856  11.438   1.675  12.886
24987SOL     OW76857  14.720  13.156  10.599
24987SOL    HW176858  14.749  13.130  10.512
24987SOL    HW276859  14.799  13.193  10.640
24988SOL     OW76860   3.073   1.700  12.005
24988SOL    HW176861   3.091   1.635  11.938
24988SOL    HW276862   3.003   1.661  12.058
24989SOL     OW76863   6.936   5.402   4.761
24989SOL    HW176864   7.023   5.369   4.785
24989SOL    HW276865   6.888   5.405   4.844
24990SOL     OW76866   5.147  12.664  11.608
24990SOL    HW176867   5.109  12.731  11.665
24990SOL    HW276868   5.239  12.689  11.600
24991SOL     OW76869  13.220  12.021   6.630
24991SOL    HW176870  13.183  11.933   6.622
24991SOL    HW276871  13.203  12.062   6.546
24992SOL     OW76872   6.266   7.112  12.644
24992SOL    HW176873   6.322   7.057  12.589
24992SOL    HW276874   6.300   7.201  12.629
24993SOL     OW76875   7.293   4.093   0.439
24993SOL    HW176876   7.276   4.157   0.508
24993SOL    HW276877   7.209   4.051   0.423
24994SOL     OW76878   3.350  14.432   8.735
24994SOL    HW176879   3.271  14.390   8.770
24994SOL    HW276880   3.390  14.366   8.679
24995SOL     OW76881   3.080  11.979   7.845
24995SOL    HW176882   3.044  11.891   7.834
24995SOL    HW276883   3.102  11.985   7.938
24996SOL     OW76884   1.137  13.543   3.828
24996SOL    HW176885   1.113  13.606   3.896
24996SOL    HW276886   1.068  13.476   3.833
24997SOL     OW76887   8.406   1.374   2.789
24997SOL    HW176888   8.340   1.384   2.720
24997SOL    HW276889   8.446   1.288   2.772
24998SOL     OW76890  11.814   6.586   3.611
24998SOL    HW176891  11.741   6.644   3.588
24998SOL    HW276892  11.777   6.525   3.675
24999SOL     OW76893   8.937   7.987  12.976
24999SOL    HW176894   8.924   8.069  12.927
24999SOL    HW276895   8.926   8.012  13.068
25000SOL     OW76896   1.166   2.441   0.158
25000SOL    HW176897   1.250   2.410   0.125
25000SOL    HW276898   1.179   2.535   0.172
25001SOL     OW76899   7.002   6.712  10.909
25001SOL    HW176900   7.086   6.709  10.955
25001SOL    HW276901   7.025   6.721  10.816
25002SOL     OW76902   3.909  13.097  14.284
25002SOL    HW176903   3.892  13.030  14.219
25002SOL    HW276904   3.966  13.054  14.348
25003SOL     OW76905   3.377   1.762  14.752
25003SOL    HW176906   3.471   1.744  14.755
25003SOL    HW276907   3.336   1.675  14.747
25004SOL     OW76908   6.432   8.592   7.073
25004SOL    HW176909   6.499   8.590   7.141
25004SOL    HW276910   6.442   8.508   7.027
25005SOL     OW76911   2.808   8.461  13.922
25005SOL    HW176912   2.766   8.541  13.891
25005SOL    HW276913   2.865   8.490  13.994
25006SOL     OW76914   6.356   8.654   3.394
25006SOL    HW176915   6.375   8.628   3.485
25006SOL    HW276916   6.403   8.736   3.383
25007SOL     OW76917   9.072   7.679  13.719
25007SOL    HW176918   9.034   7.767  13.723
25007SOL    HW276919   9.075   7.658  13.626
25008SOL     OW76920  12.031  14.502   7.370
25008SOL    HW176921  11.995  14.488   7.458
25008SOL    HW276922  12.045  14.597   7.365
25009SOL     OW76923   0.145   8.339   7.424
25009SOL    HW176924   0.069   8.298   7.465
25009SOL    HW276925   0.207   8.350   7.496
25010SOL     OW76926   0.694  12.051   0.900
25010SOL    HW176927   0.669  12.064   0.992
25010SOL    HW276928   0.753  11.976   0.902
25011SOL     OW76929  12.087   6.558   2.761
25011SOL    HW176930  12.165   6.502   2.762
25011SOL    HW276931  12.101   6.618   2.689
25012SOL     OW76932  10.286  13.087   7.952
25012SOL    HW176933  10.345  13.162   7.964
25012SOL    HW276934  10.339  13.022   7.907
25013SOL     OW76935  12.135   7.201   7.168
25013SOL    HW176936  12.162   7.257   7.241
25013SOL    HW276937  12.099   7.262   7.103
25014SOL     OW76938  10.987   2.174   3.268
25014SOL    HW176939  10.996   2.094   3.320
25014SOL    HW276940  10.905   2.213   3.298
25015SOL     OW76941  14.431  11.976  13.597
25015SOL    HW176942  14.347  11.980  13.644
25015SOL    HW276943  14.487  12.039  13.642
25016SOL     OW76944   9.818  11.890   5.243
25016SOL    HW176945   9.731  11.911   5.209
25016SOL    HW276946   9.835  11.801   5.214
25017SOL     OW76947   3.374   2.385   7.849
25017SOL    HW176948   3.379   2.400   7.944
25017SOL    HW276949   3.444   2.439   7.813
25018SOL     OW76950   8.174  10.854  13.034
25018SOL    HW176951   8.183  10.917  12.963
25018SOL    HW276952   8.257  10.861  13.083
25019SOL     OW76953  14.153  12.802  12.608
25019SOL    HW176954  14.153  12.811  12.513
25019SOL    HW276955  14.095  12.727  12.624
25020SOL     OW76956   4.848   8.186  13.443
25020SOL    HW176957   4.757   8.171  13.418
25020SOL    HW276958   4.860   8.281  13.436
25021SOL     OW76959  11.478   7.803   9.623
25021SOL    HW176960  11.508   7.877   9.676
25021SOL    HW276961  11.516   7.726   9.666
25022SOL     OW76962  14.864  12.340   3.223
25022SOL    HW176963   0.022  12.266   3.271
25022SOL    HW276964   0.051  12.408   3.229
25023SOL     OW76965   1.330   5.048  12.909
25023SOL    HW176966   1.348   5.137  12.881
25023SOL    HW276967   1.244   5.027  12.871
25024SOL     OW76968  14.186   8.985  11.612
25024SOL    HW176969  14.165   9.009  11.702
25024SOL    HW276970  14.276   8.953  11.617
25025SOL     OW76971   0.106   1.587  13.933
25025SOL    HW176972   0.024   1.542  13.915
25025SOL    HW276973   0.155   1.581  13.850
25026SOL     OW76974   6.938  14.778   8.547
25026SOL    HW176975   7.002  14.843   8.517
25026SOL    HW276976   6.894  14.820   8.621
25027SOL     OW76977   3.565   7.955  14.723
25027SOL    HW176978   3.482   8.002  14.720
25027SOL    HW276979   3.598   7.958  14.633
25028SOL     OW76980   6.331   3.994   2.598
25028SOL    HW176981   6.368   3.928   2.539
25028SOL    HW276982   6.368   4.077   2.568
25029SOL     OW76983   2.257   0.683   6.103
25029SOL    HW176984   2.234   0.755   6.163
25029SOL    HW276985   2.210   0.607   6.137
25030SOL     OW76986   6.773   5.997  12.895
25030SOL    HW176987   6.852   5.945  12.877
25030SOL    HW276988   6.803   6.067  12.952
25031SOL     OW76989   8.418   8.306   1.841
25031SOL    HW176990   8.372   8.315   1.757
25031SOL    HW276991   8.350   8.316   1.907
25032SOL     OW76992   9.193   2.253   8.293
25032SOL    HW176993   9.135   2.183   8.324
25032SOL    HW276994   9.270   2.247   8.350
25033SOL     OW76995  12.796  13.435   4.736
25033SOL    HW176996  12.747  13.404   4.813
25033SOL    HW276997  12.758  13.386   4.663
25034SOL     OW76998  12.863   5.714   1.687
25034SOL    HW176999  12.837   5.653   1.619
25034SOL    HW277000  12.803   5.788   1.677
25035SOL     OW77001  10.060   1.073   2.236
25035SOL    HW177002   9.995   1.040   2.299
25035SOL    HW277003  10.090   1.156   2.275
25036SOL     OW77004   7.096   7.523   2.663
25036SOL    HW177005   7.022   7.552   2.610
25036SOL    HW277006   7.058   7.464   2.728
25037SOL     OW77007   3.986  13.742   9.344
25037SOL    HW177008   4.024  13.787   9.268
25037SOL    HW277009   4.017  13.793   9.419
25038SOL     OW77010   1.001  11.175  12.692
25038SOL    HW177011   0.968  11.146  12.607
25038SOL    HW277012   1.050  11.100  12.725
25039SOL     OW77013   8.888   0.821   6.417
25039SOL    HW177014   8.926   0.877   6.350
25039SOL    HW277015   8.828   0.878   6.465
25040SOL     OW77016   4.114  11.168   9.851
25040SOL    HW177017   4.047  11.201   9.792
25040SOL    HW277018   4.113  11.073   9.838
25041SOL     OW77019   8.436   8.438  10.366
25041SOL    HW177020   8.379   8.461  10.440
25041SOL    HW277021   8.522   8.427  10.406
25042SOL     OW77022   7.493   2.637  12.840
25042SOL    HW177023   7.498   2.542  12.830
25042SOL    HW277024   7.568   2.670  12.790
25043SOL     OW77025  14.551   7.633   9.583
25043SOL    HW177026  14.563   7.618   9.677
25043SOL    HW277027  14.624   7.690   9.558
25044SOL     OW77028   7.670   0.358  14.088
25044SOL    HW177029   7.593   0.302  14.088
25044SOL    HW277030   7.646   0.431  14.145
25045SOL     OW77031   6.075   1.781   4.920
25045SOL    HW177032   6.121   1.748   4.997
25045SOL    HW277033   6.000   1.722   4.910
25046SOL     OW77034   6.922  11.224   9.981
25046SOL    HW177035   6.971  11.148  10.012
25046SOL    HW277036   6.932  11.223   9.886
25047SOL     OW77037   9.934   9.931   9.465
25047SOL    HW177038   9.988   9.949   9.388
25047SOL    HW277039   9.915   9.837   9.459
25048SOL     OW77040   1.463  11.696  10.298
25048SOL    HW177041   1.429  11.659  10.217
25048SOL    HW277042   1.497  11.782  10.273
25049SOL     OW77043   3.651   4.293  13.494
25049SOL    HW177044   3.720   4.240  13.534
25049SOL    HW277045   3.582   4.296  13.560
25050SOL     OW77046  11.870   2.856  14.309
25050SOL    HW177047  11.926   2.860  14.386
25050SOL    HW277048  11.929   2.867  14.234
25051SOL     OW77049   4.472  12.666   7.021
25051SOL    HW177050   4.523  12.682   6.942
25051SOL    HW277051   4.396  12.616   6.990
25052SOL     OW77052  10.204   8.987  14.265
25052SOL    HW177053  10.276   8.961  14.208
25052SOL    HW277054  10.241   8.989  14.352
25053SOL     OW77055   0.299  10.113  13.830
25053SOL    HW177056   0.374  10.073  13.875
25053SOL    HW277057   0.232  10.045  13.830
25054SOL     OW77058  11.206   3.804   4.758
25054SOL    HW177059  11.243   3.718   4.779
25054SOL    HW277060  11.112   3.793   4.769
25055SOL     OW77061  13.219   5.845  11.322
25055SOL    HW177062  13.284   5.776  11.305
25055SOL    HW277063  13.205   5.840  11.417
25056SOL     OW77064   5.492   1.591   6.892
25056SOL    HW177065   5.482   1.496   6.878
25056SOL    HW277066   5.585   1.603   6.906
25057SOL     OW77067   2.496   1.842   9.421
25057SOL    HW177068   2.460   1.921   9.460
25057SOL    HW277069   2.420   1.785   9.409
25058SOL     OW77070   6.951   1.770   0.681
25058SOL    HW177071   6.957   1.788   0.587
25058SOL    HW277072   6.918   1.852   0.718
25059SOL     OW77073   2.033  12.882   2.639
25059SOL    HW177074   2.113  12.898   2.589
25059SOL    HW277075   1.973  12.839   2.578
25060SOL     OW77076  14.564   8.022   2.593
25060SOL    HW177077  14.541   7.999   2.684
25060SOL    HW277078  14.655   7.994   2.584
25061SOL     OW77079  13.298  11.844   3.995
25061SOL    HW177080  13.239  11.899   3.943
25061SOL    HW277081  13.376  11.834   3.940
25062SOL     OW77082  13.014  12.148   5.276
25062SOL    HW177083  12.949  12.213   5.248
25062SOL    HW277084  13.044  12.107   5.195
25063SOL     OW77085   0.498   7.234   0.773
25063SOL    HW177086   0.496   7.325   0.802
25063SOL    HW277087   0.472   7.184   0.851
25064SOL     OW77088   4.408  11.608   2.875
25064SOL    HW177089   4.461  11.645   2.946
25064SOL    HW277090   4.463  11.541   2.836
25065SOL     OW77091  10.962   8.050  13.589
25065SOL    HW177092  10.976   8.091  13.674
25065SOL    HW277093  10.879   8.004  13.597
25066SOL     OW77094   4.266   6.196   7.582
25066SOL    HW177095   4.226   6.159   7.661
25066SOL    HW277096   4.192   6.226   7.529
25067SOL     OW77097  13.876   6.443   2.336
25067SOL    HW177098  13.942   6.483   2.393
25067SOL    HW277099  13.792   6.466   2.377
25068SOL     OW77100   7.032   6.005  13.519
25068SOL    HW177101   7.056   6.038  13.606
25068SOL    HW277102   6.969   5.935  13.536
25069SOL     OW77103   8.553   8.431   1.011
25069SOL    HW177104   8.494   8.373   0.963
25069SOL    HW277105   8.604   8.475   0.943
25070SOL     OW77106  10.616   2.354   9.542
25070SOL    HW177107  10.684   2.415   9.573
25070SOL    HW277108  10.645   2.329   9.455
25071SOL     OW77109   1.106  10.580   2.367
25071SOL    HW177110   1.082  10.499   2.321
25071SOL    HW277111   1.025  10.631   2.370
25072SOL     OW77112   0.202   5.745   4.447
25072SOL    HW177113   0.250   5.825   4.426
25072SOL    HW277114   0.250   5.706   4.520
25073SOL     OW77115   0.489  12.856   3.147
25073SOL    HW177116   0.496  12.767   3.111
25073SOL    HW277117   0.396  12.877   3.142
25074SOL     OW77118   3.134   8.459   3.404
25074SOL    HW177119   3.090   8.380   3.374
25074SOL    HW277120   3.064   8.523   3.416
25075SOL     OW77121   1.835   0.227  12.859
25075SOL    HW177122   1.792   0.245  12.942
25075SOL    HW277123   1.907   0.167  12.881
25076SOL     OW77124   4.017   2.970   6.154
25076SOL    HW177125   3.941   2.975   6.213
25076SOL    HW277126   3.996   2.898   6.094
25077SOL     OW77127   5.321  13.021   0.584
25077SOL    HW177128   5.348  13.065   0.665
25077SOL    HW277129   5.362  13.072   0.514
25078SOL     OW77130   3.830   0.709  10.254
25078SOL    HW177131   3.792   0.789  10.289
25078SOL    HW277132   3.850   0.656  10.331
25079SOL     OW77133   8.724   6.714   2.203
25079SOL    HW177134   8.638   6.675   2.216
25079SOL    HW277135   8.744   6.758   2.286
25080SOL     OW77136   6.680  12.336   8.028
25080SOL    HW177137   6.716  12.425   8.024
25080SOL    HW277138   6.724  12.289   7.957
25081SOL     OW77139   6.497   4.833  10.289
25081SOL    HW177140   6.431   4.831  10.220
25081SOL    HW277141   6.537   4.920  10.281
25082SOL     OW77142  12.263  10.718  12.672
25082SOL    HW177143  12.178  10.676  12.689
25082SOL    HW277144  12.254  10.753  12.583
25083SOL     OW77145   8.525   4.557  12.405
25083SOL    HW177146   8.582   4.608  12.463
25083SOL    HW277147   8.506   4.477  12.454
25084SOL     OW77148   1.387   0.372   1.539
25084SOL    HW177149   1.394   0.335   1.627
25084SOL    HW277150   1.358   0.462   1.553
25085SOL     OW77151  14.399   3.656   9.103
25085SOL    HW177152  14.447   3.644   9.021
25085SOL    HW277153  14.433   3.587   9.160
25086SOL     OW77154   8.001   3.614  10.113
25086SOL    HW177155   8.089   3.577  10.111
25086SOL    HW277156   7.954   3.561  10.177
25087SOL     OW77157  11.995   1.838  13.844
25087SOL    HW177158  11.972   1.775  13.776
25087SOL    HW277159  12.073   1.883  13.809
25088SOL     OW77160  13.308   7.490   2.410
25088SOL    HW177161  13.302   7.481   2.315
25088SOL    HW277162  13.391   7.535   2.425
25089SOL     OW77163   9.025  10.584   4.127
25089SOL    HW177164   9.106  10.582   4.076
25089SOL    HW277165   8.975  10.656   4.090
25090SOL     OW77166   2.093  14.756  11.434
25090SOL    HW177167   2.131  14.676  11.398
25090SOL    HW277168   2.103  14.746  11.529
25091SOL     OW77169   6.281   0.291  12.523
25091SOL    HW177170   6.194   0.329  12.517
25091SOL    HW277171   6.331   0.352  12.577
25092SOL     OW77172  10.366  10.713   9.726
25092SOL    HW177173  10.293  10.655   9.703
25092SOL    HW277174  10.436  10.654   9.753
25093SOL     OW77175   0.529  11.558   6.602
25093SOL    HW177176   0.516  11.521   6.515
25093SOL    HW277177   0.552  11.650   6.586
25094SOL     OW77178   8.409   9.972   5.679
25094SOL    HW177179   8.377   9.885   5.654
25094SOL    HW277180   8.336  10.012   5.727
25095SOL     OW77181   2.700   1.788   9.798
25095SOL    HW177182   2.675   1.718   9.857
25095SOL    HW277183   2.756   1.746   9.733
25096SOL     OW77184  14.679  12.372  12.015
25096SOL    HW177185  14.755  12.428  12.030
25096SOL    HW277186  14.686  12.346  11.923
25097SOL     OW77187  14.026   1.476  11.175
25097SOL    HW177188  14.069   1.391  11.178
25097SOL    HW277189  13.940   1.460  11.215
25098SOL     OW77190   6.818   5.945   3.839
25098SOL    HW177191   6.891   6.002   3.814
25098SOL    HW277192   6.808   5.959   3.933
25099SOL     OW77193  12.111  11.268   0.883
25099SOL    HW177194  12.071  11.199   0.936
25099SOL    HW277195  12.196  11.284   0.924
25100SOL     OW77196  12.747   4.913  12.611
25100SOL    HW177197  12.668   4.968  12.605
25100SOL    HW277198  12.772   4.896  12.520
25101SOL     OW77199  11.306  12.616   6.987
25101SOL    HW177200  11.363  12.554   6.942
25101SOL    HW277201  11.267  12.668   6.917
25102SOL     OW77202  10.006   3.156   1.399
25102SOL    HW177203  10.099   3.178   1.388
25102SOL    HW277204  10.001   3.062   1.383
25103SOL     OW77205   0.474   8.991   9.432
25103SOL    HW177206   0.479   9.085   9.448
25103SOL    HW277207   0.447   8.954   9.516
25104SOL     OW77208  10.591   3.372   9.018
25104SOL    HW177209  10.532   3.297   9.014
25104SOL    HW277210  10.559   3.423   9.093
25105SOL     OW77211  10.748  12.105  10.666
25105SOL    HW177212  10.805  12.035  10.698
25105SOL    HW277213  10.679  12.111  10.732
25106SOL     OW77214  11.577   8.097   4.382
25106SOL    HW177215  11.503   8.097   4.442
25106SOL    HW277216  11.538   8.114   4.296
25107SOL     OW77217   9.675  10.442   8.295
25107SOL    HW177218   9.637  10.529   8.279
25107SOL    HW277219   9.696  10.441   8.388
25108SOL     OW77220   4.603   5.834   4.178
25108SOL    HW177221   4.520   5.812   4.221
25108SOL    HW277222   4.604   5.930   4.176
25109SOL     OW77223   7.801   2.120   9.996
25109SOL    HW177224   7.728   2.160  10.043
25109SOL    HW277225   7.761   2.079   9.920
25110SOL     OW77226   4.400  10.008   9.363
25110SOL    HW177227   4.369  10.079   9.418
25110SOL    HW277228   4.377   9.928   9.411
25111SOL     OW77229  14.130  14.674  11.905
25111SOL    HW177230  14.199  14.653  11.968
25111SOL    HW277231  14.126  14.598  11.847
25112SOL     OW77232  10.148  10.051   9.225
25112SOL    HW177233  10.205  10.015   9.292
25112SOL    HW277234  10.174  10.006   9.144
25113SOL     OW77235   6.143   9.796   0.345
25113SOL    HW177236   6.164   9.848   0.423
25113SOL    HW277237   6.224   9.749   0.325
25114SOL     OW77238   7.212   7.216   0.557
25114SOL    HW177239   7.211   7.266   0.476
25114SOL    HW277240   7.253   7.133   0.534
25115SOL     OW77241  10.544   9.179   1.359
25115SOL    HW177242  10.523   9.119   1.431
25115SOL    HW277243  10.592   9.251   1.401
25116SOL     OW77244   4.945   0.592   4.206
25116SOL    HW177245   4.950   0.594   4.110
25116SOL    HW277246   5.032   0.566   4.234
25117SOL     OW77247   4.434  14.002  10.928
25117SOL    HW177248   4.459  13.914  10.901
25117SOL    HW277249   4.339  14.004  10.916
25118SOL     OW77250  12.002   5.725   6.364
25118SOL    HW177251  12.010   5.682   6.279
25118SOL    HW277252  12.027   5.816   6.349
25119SOL     OW77253   4.388   2.066  13.205
25119SOL    HW177254   4.314   2.020  13.165
25119SOL    HW277255   4.427   2.117  13.133
25120SOL     OW77256  10.100   7.811   5.003
25120SOL    HW177257  10.029   7.874   5.011
25120SOL    HW277258  10.130   7.796   5.093
25121SOL     OW77259   2.791   6.886  12.378
25121SOL    HW177260   2.796   6.933  12.462
25121SOL    HW277261   2.724   6.820  12.392
25122SOL     OW77262   2.919  11.907  11.280
25122SOL    HW177263   2.967  11.900  11.198
25122SOL    HW277264   2.973  11.963  11.335
25123SOL     OW77265   4.389   7.420   1.559
25123SOL    HW177266   4.329   7.442   1.630
25123SOL    HW277267   4.474   7.408   1.602
25124SOL     OW77268   7.746   8.647  14.022
25124SOL    HW177269   7.747   8.588  13.947
25124SOL    HW277270   7.767   8.591  14.097
25125SOL     OW77271   6.189   8.020   5.861
25125SOL    HW177272   6.119   7.957   5.845
25125SOL    HW277273   6.177   8.086   5.793
25126SOL     OW77274  14.711  10.700   1.755
25126SOL    HW177275  14.710  10.715   1.850
25126SOL    HW277276  14.637  10.640   1.740
25127SOL     OW77277   1.154   3.304   3.115
25127SOL    HW177278   1.216   3.318   3.043
25127SOL    HW277279   1.180   3.220   3.153
25128SOL     OW77280   1.245   9.105   9.284
25128SOL    HW177281   1.255   9.200   9.282
25128SOL    HW277282   1.282   9.075   9.201
25129SOL     OW77283  13.328   7.716  13.387
25129SOL    HW177284  13.258   7.773  13.355
25129SOL    HW277285  13.318   7.635  13.337
25130SOL     OW77286   3.707   4.090   9.842
25130SOL    HW177287   3.796   4.109   9.813
25130SOL    HW277288   3.702   3.995   9.841
25131SOL     OW77289   9.874   5.201   6.988
25131SOL    HW177290   9.784   5.193   6.954
25131SOL    HW277291   9.910   5.113   6.984
25132SOL     OW77292   7.170   2.104   8.370
25132SOL    HW177293   7.164   2.199   8.383
25132SOL    HW277294   7.218   2.094   8.287
25133SOL     OW77295  10.257  12.005   0.956
25133SOL    HW177296  10.291  12.094   0.968
25133SOL    HW277297  10.329  11.957   0.914
25134SOL     OW77298   2.994  13.553   5.831
25134SOL    HW177299   2.982  13.493   5.905
25134SOL    HW277300   3.039  13.500   5.765
25135SOL     OW77301   9.007  14.714   5.365
25135SOL    HW177302   9.035  14.756   5.446
25135SOL    HW277303   8.973  14.785   5.311
25136SOL     OW77304  10.332  13.492   4.773
25136SOL    HW177305  10.323  13.487   4.678
25136SOL    HW277306  10.246  13.523   4.803
25137SOL     OW77307   5.140   1.158   9.730
25137SOL    HW177308   5.119   1.251   9.719
25137SOL    HW277309   5.190   1.154   9.811
25138SOL     OW77310  13.731  10.774  14.077
25138SOL    HW177311  13.822  10.801  14.073
25138SOL    HW277312  13.732  10.689  14.120
25139SOL     OW77313   7.144   8.760   0.136
25139SOL    HW177314   7.151   8.669   0.165
25139SOL    HW277315   7.195   8.765   0.056
25140SOL     OW77316  14.610   0.899   9.599
25140SOL    HW177317  14.700   0.867   9.606
25140SOL    HW277318  14.557   0.819   9.596
25141SOL     OW77319   4.678   4.645   0.619
25141SOL    HW177320   4.681   4.677   0.529
25141SOL    HW277321   4.712   4.717   0.672
25142SOL     OW77322   0.110   8.870   2.057
25142SOL    HW177323   0.193   8.872   2.009
25142SOL    HW277324   0.116   8.944   2.118
25143SOL     OW77325   3.702  10.570   4.872
25143SOL    HW177326   3.644  10.611   4.936
25143SOL    HW277327   3.755  10.642   4.838
25144SOL     OW77328   5.931   1.016   6.084
25144SOL    HW177329   5.867   0.951   6.112
25144SOL    HW277330   6.000   1.013   6.150
25145SOL     OW77331   5.869  12.506  10.793
25145SOL    HW177332   5.825  12.585  10.761
25145SOL    HW277333   5.960  12.533  10.807
25146SOL     OW77334  14.745   5.933  11.906
25146SOL    HW177335  14.695   5.889  11.838
25146SOL    HW277336  14.832   5.946  11.868
25147SOL     OW77337  11.432   2.467  10.878
25147SOL    HW177338  11.499   2.416  10.832
25147SOL    HW277339  11.371   2.493  10.809
25148SOL     OW77340   4.353   0.985   3.417
25148SOL    HW177341   4.385   0.963   3.329
25148SOL    HW277342   4.428   0.968   3.474
25149SOL     OW77343  13.140  14.565  10.716
25149SOL    HW177344  13.186  14.487  10.686
25149SOL    HW277345  13.136  14.621  10.638
25150SOL     OW77346   3.466  11.783   2.503
25150SOL    HW177347   3.418  11.790   2.585
25150SOL    HW277348   3.453  11.692   2.476
25151SOL     OW77349   5.030   8.229  13.751
25151SOL    HW177350   5.054   8.154  13.698
25151SOL    HW277351   4.937   8.219  13.768
25152SOL     OW77352  14.818   0.999   5.154
25152SOL    HW177353  14.729   0.975   5.180
25152SOL    HW277354  14.816   1.094   5.144
25153SOL     OW77355  10.227  10.689   7.395
25153SOL    HW177356  10.231  10.720   7.304
25153SOL    HW277357  10.202  10.597   7.387
25154SOL     OW77358   5.156   6.661   5.312
25154SOL    HW177359   5.070   6.704   5.303
25154SOL    HW277360   5.202   6.684   5.231
25155SOL     OW77361   1.798   8.783  13.402
25155SOL    HW177362   1.883   8.746  13.375
25155SOL    HW277363   1.811   8.877  13.395
25156SOL     OW77364   5.003  10.472  10.052
25156SOL    HW177365   4.971  10.562  10.050
25156SOL    HW277366   5.079  10.472   9.993
25157SOL     OW77367   0.106   5.333   1.573
25157SOL    HW177368   0.162   5.288   1.636
25157SOL    HW277369   0.103   5.424   1.604
25158SOL     OW77370  10.369   0.346  13.909
25158SOL    HW177371  10.334   0.434  13.899
25158SOL    HW277372  10.296   0.289  13.885
25159SOL     OW77373   7.973   8.448  11.190
25159SOL    HW177374   8.024   8.449  11.109
25159SOL    HW277375   7.979   8.538  11.222
25160SOL     OW77376   7.583  12.318   5.480
25160SOL    HW177377   7.597  12.411   5.495
25160SOL    HW277378   7.573  12.281   5.568
25161SOL     OW77379   1.995   9.813  12.193
25161SOL    HW177380   2.061   9.771  12.138
25161SOL    HW277381   1.952   9.877  12.136
25162SOL     OW77382   3.650  13.383   3.318
25162SOL    HW177383   3.640  13.452   3.253
25162SOL    HW277384   3.561  13.364   3.348
25163SOL     OW77385   6.607   3.583   9.965
25163SOL    HW177386   6.637   3.671   9.987
25163SOL    HW277387   6.567   3.551  10.046
25164SOL     OW77388   5.408   9.718   9.256
25164SOL    HW177389   5.419   9.812   9.273
25164SOL    HW277390   5.456   9.675   9.326
25165SOL     OW77391   2.039   0.953  14.516
25165SOL    HW177392   1.960   0.965  14.462
25165SOL    HW277393   2.065   0.862  14.499
25166SOL     OW77394  10.171  11.623   6.726
25166SOL    HW177395  10.200  11.566   6.654
25166SOL    HW277396  10.116  11.568   6.780
25167SOL     OW77397  11.801   6.195   1.179
25167SOL    HW177398  11.824   6.116   1.130
25167SOL    HW277399  11.793   6.263   1.112
25168SOL     OW77400  11.408   0.566  11.089
25168SOL    HW177401  11.347   0.500  11.055
25168SOL    HW277402  11.427   0.622  11.014
25169SOL     OW77403   5.851   8.261   0.074
25169SOL    HW177404   5.943   8.238   0.069
25169SOL    HW277405   5.804   8.178   0.064
25170SOL     OW77406   8.563  11.832  10.237
25170SOL    HW177407   8.579  11.748  10.280
25170SOL    HW277408   8.551  11.893  10.309
25171SOL     OW77409   4.597  12.934  14.005
25171SOL    HW177410   4.541  12.967  13.934
25171SOL    HW277411   4.656  13.007  14.024
25172SOL     OW77412   9.390  11.233   0.002
25172SOL    HW177413   9.417  11.149  14.845
25172SOL    HW277414   9.300  11.245  14.850
25173SOL     OW77415  10.005   4.998   0.205
25173SOL    HW177416  10.050   5.035   0.281
25173SOL    HW277417  10.043   5.043   0.130
25174SOL     OW77418  10.831   9.820   0.966
25174SOL    HW177419  10.876   9.837   1.048
25174SOL    HW277420  10.844   9.726   0.950
25175SOL     OW77421  10.982   7.021   5.394
25175SOL    HW177422  11.026   6.949   5.438
25175SOL    HW277423  10.906   7.041   5.449
25176SOL     OW77424   4.268   2.242   9.291
25176SOL    HW177425   4.351   2.195   9.294
25176SOL    HW277426   4.223   2.216   9.371
25177SOL     OW77427   2.748  11.629  11.705
25177SOL    HW177428   2.735  11.583  11.788
25177SOL    HW277429   2.835  11.670  11.714
25178SOL     OW77430   3.429  11.739   0.101
25178SOL    HW177431   3.505  11.737   0.159
25178SOL    HW277432   3.467  11.749   0.014
25179SOL     OW77433   6.790  12.601   6.738
25179SOL    HW177434   6.828  12.523   6.697
25179SOL    HW277435   6.720  12.567   6.794
25180SOL     OW77436   0.239  13.298   9.251
25180SOL    HW177437   0.282  13.217   9.222
25180SOL    HW277438   0.255  13.360   9.181
25181SOL     OW77439   1.367   7.337   5.861
25181SOL    HW177440   1.273   7.350   5.852
25181SOL    HW277441   1.385   7.254   5.818
25182SOL     OW77442  12.422   4.520   3.775
25182SOL    HW177443  12.426   4.578   3.851
25182SOL    HW277444  12.512   4.494   3.759
25183SOL     OW77445   1.088   9.045  12.867
25183SOL    HW177446   1.136   8.963  12.874
25183SOL    HW277447   1.059   9.064  12.957
25184SOL     OW77448   7.010  13.839  11.376
25184SOL    HW177449   7.020  13.896  11.452
25184SOL    HW277450   7.058  13.760  11.399
25185SOL     OW77451  12.378  14.553   4.791
25185SOL    HW177452  12.427  14.501   4.727
25185SOL    HW277453  12.438  14.625   4.814
25186SOL     OW77454   2.542   0.586  13.227
25186SOL    HW177455   2.605   0.658  13.224
25186SOL    HW277456   2.481   0.611  13.297
25187SOL     OW77457   2.577  10.307   6.920
25187SOL    HW177458   2.536  10.390   6.899
25187SOL    HW277459   2.666  10.315   6.887
25188SOL     OW77460   9.947   4.681   8.832
25188SOL    HW177461   9.854   4.681   8.814
25188SOL    HW277462   9.989   4.672   8.747
25189SOL     OW77463  12.089   6.658   3.299
25189SOL    HW177464  12.126   6.630   3.216
25189SOL    HW277465  12.140   6.612   3.365
25190SOL     OW77466   8.124  13.768   9.117
25190SOL    HW177467   8.040  13.733   9.146
25190SOL    HW277468   8.188  13.724   9.173
25191SOL     OW77469   7.975   9.408  11.964
25191SOL    HW177470   7.912   9.448  11.904
25191SOL    HW277471   7.998   9.478  12.026
25192SOL     OW77472   1.081   3.750   8.889
25192SOL    HW177473   1.080   3.778   8.797
25192SOL    HW277474   1.063   3.831   8.937
25193SOL     OW77475   5.722   2.825   1.539
25193SOL    HW177476   5.792   2.868   1.588
25193SOL    HW277477   5.760   2.742   1.510
25194SOL     OW77478   2.092   2.111   7.623
25194SOL    HW177479   2.027   2.094   7.691
25194SOL    HW277480   2.143   2.030   7.617
25195SOL     OW77481   4.411  11.117  12.581
25195SOL    HW177482   4.379  11.090  12.495
25195SOL    HW277483   4.485  11.175  12.562
25196SOL     OW77484   4.933   2.451   1.325
25196SOL    HW177485   4.964   2.464   1.414
25196SOL    HW277486   4.967   2.366   1.299
25197SOL     OW77487  10.074   9.015  11.439
25197SOL    HW177488  10.018   9.027  11.362
25197SOL    HW277489  10.126   9.095  11.444
25198SOL     OW77490   8.244  12.759  13.946
25198SOL    HW177491   8.214  12.668  13.943
25198SOL    HW277492   8.239  12.788  13.855
25199SOL     OW77493  14.243  12.576   2.073
25199SOL    HW177494  14.207  12.492   2.099
25199SOL    HW277495  14.192  12.602   1.996
25200SOL     OW77496   7.279   5.626   7.703
25200SOL    HW177497   7.308   5.535   7.702
25200SOL    HW277498   7.217   5.631   7.777
25201SOL     OW77499   2.122   7.209   7.697
25201SOL    HW177500   2.045   7.211   7.640
25201SOL    HW277501   2.088   7.228   7.784
25202SOL     OW77502   0.525  13.026  10.378
25202SOL    HW177503   0.463  12.984  10.319
25202SOL    HW277504   0.568  12.954  10.424
25203SOL     OW77505   5.458  12.229   0.153
25203SOL    HW177506   5.374  12.191   0.128
25203SOL    HW277507   5.446  12.259   0.243
25204SOL     OW77508   0.056   0.389  13.964
25204SOL    HW177509   0.114   0.334  14.016
25204SOL    HW277510   0.095   0.390  13.876
25205SOL     OW77511   2.017   4.374   4.915
25205SOL    HW177512   2.104   4.378   4.955
25205SOL    HW277513   1.977   4.457   4.939
25206SOL     OW77514   9.211  11.529   6.748
25206SOL    HW177515   9.175  11.584   6.679
25206SOL    HW277516   9.136  11.504   6.801
25207SOL     OW77517  13.534   0.743   2.969
25207SOL    HW177518  13.563   0.688   3.042
25207SOL    HW277519  13.605   0.807   2.958
25208SOL     OW77520  12.242  13.799  13.892
25208SOL    HW177521  12.183  13.805  13.968
25208SOL    HW277522  12.189  13.827  13.818
25209SOL     OW77523   1.813   9.434   6.896
25209SOL    HW177524   1.899   9.413   6.860
25209SOL    HW277525   1.762   9.353   6.885
25210SOL     OW77526  11.223   7.764   2.763
25210SOL    HW177527  11.243   7.838   2.820
25210SOL    HW277528  11.129   7.769   2.748
25211SOL     OW77529   5.359   9.762   0.310
25211SOL    HW177530   5.380   9.814   0.388
25211SOL    HW277531   5.442   9.722   0.284
25212SOL     OW77532   6.700   1.089  13.624
25212SOL    HW177533   6.663   1.175  13.643
25212SOL    HW277534   6.756   1.103  13.548
25213SOL     OW77535   5.637   7.018  12.302
25213SOL    HW177536   5.599   6.940  12.260
25213SOL    HW277537   5.620   7.089  12.240
25214SOL     OW77538   4.542  12.682   1.568
25214SOL    HW177539   4.598  12.635   1.630
25214SOL    HW277540   4.463  12.702   1.618
25215SOL     OW77541  10.106   0.973  14.025
25215SOL    HW177542  10.148   0.900  14.071
25215SOL    HW277543  10.114   0.950  13.932
25216SOL     OW77544   9.873   2.432   7.833
25216SOL    HW177545   9.824   2.514   7.825
25216SOL    HW277546   9.896   2.409   7.743
25217SOL     OW77547   3.316   3.165   9.294
25217SOL    HW177548   3.272   3.187   9.212
25217SOL    HW277549   3.366   3.243   9.317
25218SOL     OW77550   9.367   7.600   4.732
25218SOL    HW177551   9.372   7.590   4.827
25218SOL    HW277552   9.458   7.614   4.705
25219SOL     OW77553   1.889   7.659  14.843
25219SOL    HW177554   1.869   7.675  14.751
25219SOL    HW277555   1.844   7.577  14.864
25220SOL     OW77556  10.171  11.925   2.940
25220SOL    HW177557  10.144  11.846   2.893
25220SOL    HW277558  10.155  11.996   2.877
25221SOL     OW77559   1.955   6.605  11.449
25221SOL    HW177560   1.983   6.695  11.433
25221SOL    HW277561   1.874   6.613  11.499
25222SOL     OW77562  14.776  11.405  12.343
25222SOL    HW177563  14.790  11.475  12.280
25222SOL    HW277564  14.858  11.400  12.393
25223SOL     OW77565  14.330   4.583   0.154
25223SOL    HW177566  14.236   4.573   0.141
25223SOL    HW277567  14.338   4.658   0.213
25224SOL     OW77568  11.691   8.430   4.463
25224SOL    HW177569  11.753   8.357   4.456
25224SOL    HW277570  11.707   8.466   4.550
25225SOL     OW77571   1.962   8.379  11.572
25225SOL    HW177572   2.053   8.351  11.582
25225SOL    HW277573   1.921   8.311  11.519
25226SOL     OW77574   2.446   9.689  13.666
25226SOL    HW177575   2.466   9.714  13.756
25226SOL    HW277576   2.437   9.773  13.620
25227SOL     OW77577   0.789   0.713   9.462
25227SOL    HW177578   0.767   0.788   9.518
25227SOL    HW277579   0.851   0.749   9.398
25228SOL     OW77580   1.055   3.489   0.042
25228SOL    HW177581   1.022   3.412   0.087
25228SOL    HW277582   0.999   3.499  14.845
25229SOL     OW77583   5.344   6.931   5.909
25229SOL    HW177584   5.261   6.956   5.949
25229SOL    HW277585   5.346   6.978   5.826
25230SOL     OW77586   6.245  10.990   9.685
25230SOL    HW177587   6.247  10.957   9.595
25230SOL    HW277588   6.206  11.077   9.677
25231SOL     OW77589   6.311   7.894   9.731
25231SOL    HW177590   6.285   7.934   9.814
25231SOL    HW277591   6.234   7.902   9.675
25232SOL     OW77592  11.914   6.224   9.726
25232SOL    HW177593  11.843   6.226   9.661
25232SOL    HW277594  11.967   6.149   9.702
25233SOL     OW77595   2.605   4.177   3.774
25233SOL    HW177596   2.678   4.178   3.836
25233SOL    HW277597   2.530   4.146   3.825
25234SOL     OW77598   3.286   3.309   1.191
25234SOL    HW177599   3.277   3.385   1.135
25234SOL    HW277600   3.379   3.302   1.210
25235SOL     OW77601   1.556  11.787  11.630
25235SOL    HW177602   1.648  11.764  11.621
25235SOL    HW277603   1.521  11.724  11.693
25236SOL     OW77604  11.173  11.415   6.157
25236SOL    HW177605  11.226  11.410   6.237
25236SOL    HW277606  11.237  11.432   6.087
25237SOL     OW77607   3.360   9.576   3.258
25237SOL    HW177608   3.346   9.650   3.199
25237SOL    HW277609   3.423   9.520   3.213
25238SOL     OW77610  12.379   3.226  12.579
25238SOL    HW177611  12.321   3.166  12.626
25238SOL    HW277612  12.404   3.179  12.500
25239SOL     OW77613   1.092   9.412   7.086
25239SOL    HW177614   1.175   9.405   7.040
25239SOL    HW277615   1.032   9.358   7.035
25240SOL     OW77616   1.550   0.162   0.075
25240SOL    HW177617   1.586   0.167  14.866
25240SOL    HW277618   1.598   0.228   0.124
25241SOL     OW77619   5.487   3.402  10.468
25241SOL    HW177620   5.501   3.487  10.427
25241SOL    HW277621   5.576   3.367  10.482
25242SOL     OW77622   6.136  13.212   7.620
25242SOL    HW177623   6.214  13.246   7.664
25242SOL    HW277624   6.134  13.258   7.536
25243SOL     OW77625   8.013   4.585   3.013
25243SOL    HW177626   7.977   4.619   3.095
25243SOL    HW277627   8.107   4.579   3.030
25244SOL     OW77628   5.040   1.779   5.937
25244SOL    HW177629   4.975   1.821   5.993
25244SOL    HW277630   5.008   1.690   5.926
25245SOL     OW77631  11.379   1.348  14.385
25245SOL    HW177632  11.454   1.289  14.390
25245SOL    HW277633  11.406   1.417  14.324
25246SOL     OW77634   7.809  12.479   6.004
25246SOL    HW177635   7.830  12.499   6.096
25246SOL    HW277636   7.723  12.437   6.008
25247SOL     OW77637   1.144  12.699  14.678
25247SOL    HW177638   1.190  12.669  14.756
25247SOL    HW277639   1.204  12.681  14.606
25248SOL     OW77640   8.725  10.644   3.821
25248SOL    HW177641   8.774  10.724   3.838
25248SOL    HW277642   8.770  10.577   3.872
25249SOL     OW77643   4.698   0.100  10.896
25249SOL    HW177644   4.719   0.095  10.990
25249SOL    HW277645   4.632   0.168  10.890
25250SOL     OW77646  11.091   5.447  10.895
25250SOL    HW177647  11.069   5.450  10.988
25250SOL    HW277648  11.061   5.532  10.861
25251SOL     OW77649   9.608  10.766   3.502
25251SOL    HW177650   9.620  10.694   3.441
25251SOL    HW277651   9.696  10.800   3.518
25252SOL     OW77652   0.749  10.628   0.308
25252SOL    HW177653   0.677  10.591   0.257
25252SOL    HW277654   0.742  10.585   0.393
25253SOL     OW77655  11.134   5.210  13.875
25253SOL    HW177656  11.098   5.296  13.851
25253SOL    HW277657  11.057   5.157  13.897
25254SOL     OW77658   2.170   3.246   7.125
25254SOL    HW177659   2.088   3.294   7.113
25254SOL    HW277660   2.234   3.312   7.150
25255SOL     OW77661   7.315  12.117  10.004
25255SOL    HW177662   7.268  12.052  10.056
25255SOL    HW277663   7.334  12.188  10.066
25256SOL     OW77664   7.637   5.374   9.202
25256SOL    HW177665   7.691   5.454   9.200
25256SOL    HW277666   7.572   5.391   9.269
25257SOL     OW77667   0.602  11.260   9.941
25257SOL    HW177668   0.679  11.211   9.913
25257SOL    HW277669   0.547  11.194   9.985
25258SOL     OW77670  12.497  11.432   1.167
25258SOL    HW177671  12.457  11.405   1.250
25258SOL    HW277672  12.431  11.411   1.100
25259SOL     OW77673   0.471   1.615  14.296
25259SOL    HW177674   0.537   1.578  14.354
25259SOL    HW277675   0.388   1.578  14.326
25260SOL     OW77676  11.775  11.966   4.107
25260SOL    HW177677  11.749  11.992   4.019
25260SOL    HW277678  11.831  11.890   4.094
25261SOL     OW77679  10.792   4.211  14.610
25261SOL    HW177680  10.728   4.140  14.600
25261SOL    HW277681  10.756   4.283  14.557
25262SOL     OW77682  14.382  10.267   3.327
25262SOL    HW177683  14.394  10.361   3.313
25262SOL    HW277684  14.294  10.259   3.364
25263SOL     OW77685  10.437   0.376   4.976
25263SOL    HW177686  10.426   0.422   5.059
25263SOL    HW277687  10.505   0.425   4.930
25264SOL     OW77688  14.684   6.732   0.325
25264SOL    HW177689  14.707   6.816   0.285
25264SOL    HW277690  14.589   6.735   0.336
25265SOL     OW77691   7.495   0.998   0.304
25265SOL    HW177692   7.411   1.045   0.302
25265SOL    HW277693   7.514   0.986   0.397
25266SOL     OW77694  10.959   5.206   0.376
25266SOL    HW177695  11.043   5.169   0.348
25266SOL    HW277696  10.911   5.220   0.294
25267SOL     OW77697   1.807   0.898  11.354
25267SOL    HW177698   1.818   0.864  11.265
25267SOL    HW277699   1.714   0.919  11.360
25268SOL     OW77700   5.585  12.009   4.382
25268SOL    HW177701   5.611  11.917   4.373
25268SOL    HW277702   5.662  12.053   4.417
25269SOL     OW77703   1.375  12.389   4.655
25269SOL    HW177704   1.364  12.374   4.561
25269SOL    HW277705   1.286  12.389   4.691
25270SOL     OW77706   2.848   8.857  13.490
25270SOL    HW177707   2.866   8.804  13.412
25270SOL    HW277708   2.846   8.947  13.457
25271SOL     OW77709  12.605   9.663   8.769
25271SOL    HW177710  12.697   9.680   8.789
25271SOL    HW277711  12.604   9.641   8.675
25272SOL     OW77712  10.461   6.371   1.015
25272SOL    HW177713  10.379   6.383   1.062
25272SOL    HW277714  10.506   6.301   1.062
25273SOL     OW77715   5.138   8.556  13.085
25273SOL    HW177716   5.141   8.481  13.144
25273SOL    HW277717   5.068   8.535  13.023
25274SOL     OW77718   1.441  14.730   8.359
25274SOL    HW177719   1.511  14.728   8.424
25274SOL    HW277720   1.475  14.784   8.289
25275SOL     OW77721  13.814   6.904   2.022
25275SOL    HW177722  13.849   6.966   2.086
25275SOL    HW277723  13.890   6.852   1.995
25276SOL     OW77724   0.284   5.511   6.153
25276SOL    HW177725   0.215   5.445   6.152
25276SOL    HW277726   0.306   5.523   6.060
25277SOL     OW77727   0.325   6.272  12.596
25277SOL    HW177728   0.359   6.345  12.648
25277SOL    HW277729   0.271   6.314  12.529
25278SOL     OW77730  10.841  14.224  14.258
25278SOL    HW177731  10.842  14.301  14.202
25278SOL    HW277732  10.782  14.248  14.330
25279SOL     OW77733   4.429  11.571  10.034
25279SOL    HW177734   4.335  11.584  10.033
25279SOL    HW277735   4.452  11.551   9.943
25280SOL     OW77736   0.176   3.120   9.407
25280SOL    HW177737   0.215   3.152   9.325
25280SOL    HW277738   0.183   3.025   9.401
25281SOL     OW77739   6.491   6.138   0.110
25281SOL    HW177740   6.537   6.167   0.189
25281SOL    HW277741   6.480   6.217   0.058
25282SOL     OW77742  13.418  13.830  13.765
25282SOL    HW177743  13.508  13.863  13.764
25282SOL    HW277744  13.380  13.867  13.845
25283SOL     OW77745   7.080   4.828   5.271
25283SOL    HW177746   7.060   4.777   5.349
25283SOL    HW277747   7.157   4.879   5.294
25284SOL     OW77748  11.965   5.841   6.765
25284SOL    HW177749  12.056   5.815   6.754
25284SOL    HW277750  11.957   5.865   6.857
25285SOL     OW77751   9.207  14.115   1.064
25285SOL    HW177752   9.202  14.041   1.004
25285SOL    HW277753   9.253  14.081   1.141
25286SOL     OW77754   4.784  10.345  14.287
25286SOL    HW177755   4.761  10.433  14.258
25286SOL    HW277756   4.700  10.306  14.313
25287SOL     OW77757   4.465  14.647  14.105
25287SOL    HW177758   4.479  14.706  14.179
25287SOL    HW277759   4.552  14.634  14.068
25288SOL     OW77760   7.814  11.030   0.401
25288SOL    HW177761   7.738  11.077   0.436
25288SOL    HW277762   7.789  10.937   0.407
25289SOL     OW77763   0.926   1.347   6.750
25289SOL    HW177764   0.985   1.296   6.696
25289SOL    HW277765   0.955   1.437   6.739
25290SOL     OW77766   4.315  10.164   4.067
25290SOL    HW177767   4.227  10.195   4.049
25290SOL    HW277768   4.330  10.184   4.159
25291SOL     OW77769   9.145  13.758   6.808
25291SOL    HW177770   9.132  13.673   6.850
25291SOL    HW277771   9.056  13.793   6.798
25292SOL     OW77772   0.893   6.679  13.704
25292SOL    HW177773   0.866   6.739  13.634
25292SOL    HW277774   0.869   6.592  13.672
25293SOL     OW77775   1.149   8.187  10.619
25293SOL    HW177776   1.239   8.210  10.597
25293SOL    HW277777   1.140   8.211  10.711
25294SOL     OW77778   7.234   9.765  11.573
25294SOL    HW177779   7.291   9.841  11.559
25294SOL    HW277780   7.289   9.702  11.618
25295SOL     OW77781   5.625   6.610   6.495
25295SOL    HW177782   5.575   6.633   6.416
25295SOL    HW277783   5.713   6.643   6.479
25296SOL     OW77784   1.884   3.343  13.306
25296SOL    HW177785   1.825   3.279  13.267
25296SOL    HW277786   1.965   3.294  13.322
25297SOL     OW77787   7.356  11.417   0.401
25297SOL    HW177788   7.414  11.373   0.338
25297SOL    HW277789   7.407  11.491   0.433
25298SOL     OW77790   8.235   2.459   7.670
25298SOL    HW177791   8.245   2.416   7.586
25298SOL    HW277792   8.146   2.439   7.698
25299SOL     OW77793   6.014   4.521   9.159
25299SOL    HW177794   6.087   4.464   9.183
25299SOL    HW277795   5.945   4.461   9.130
25300SOL     OW77796   3.830  12.563  13.744
25300SOL    HW177797   3.891  12.636  13.736
25300SOL    HW277798   3.744  12.604  13.752
25301SOL     OW77799   9.552  11.884  13.050
25301SOL    HW177800   9.636  11.930  13.051
25301SOL    HW277801   9.573  11.796  13.018
25302SOL     OW77802  12.930   8.076   2.610
25302SOL    HW177803  12.922   7.997   2.556
25302SOL    HW277804  12.854   8.072   2.669
25303SOL     OW77805   1.379  10.988   5.942
25303SOL    HW177806   1.332  11.040   5.878
25303SOL    HW277807   1.468  11.022   5.941
25304SOL     OW77808   9.593   4.938   5.546
25304SOL    HW177809   9.514   4.884   5.554
25304SOL    HW277810   9.579   4.988   5.465
25305SOL     OW77811   0.150  10.033   2.223
25305SOL    HW177812   0.069   9.982   2.217
25305SOL    HW277813   0.181  10.019   2.312
25306SOL     OW77814  14.749   6.829  14.649
25306SOL    HW177815  14.759   6.780  14.567
25306SOL    HW277816  14.794   6.775  14.714
25307SOL     OW77817   0.493  11.611   1.322
25307SOL    HW177818   0.510  11.588   1.414
25307SOL    HW277819   0.495  11.527   1.276
25308SOL     OW77820  11.731  13.274   7.719
25308SOL    HW177821  11.716  13.368   7.711
25308SOL    HW277822  11.745  13.244   7.629
25309SOL     OW77823   9.761   2.227  11.279
25309SOL    HW177824   9.747   2.253  11.188
25309SOL    HW277825   9.855   2.229  11.290
25310SOL     OW77826   8.503   5.349  13.720
25310SOL    HW177827   8.596   5.340  13.696
25310SOL    HW277828   8.501   5.333  13.814
25311SOL     OW77829   9.848  14.684  14.766
25311SOL    HW177830   9.936  14.707  14.796
25311SOL    HW277831   9.794  14.688  14.845
25312SOL     OW77832  11.777  12.392   7.813
25312SOL    HW177833  11.736  12.317   7.770
25312SOL    HW277834  11.803  12.450   7.742
25313SOL     OW77835   3.573   9.692  10.514
25313SOL    HW177836   3.616   9.685  10.429
25313SOL    HW277837   3.634   9.653  10.576
25314SOL     OW77838  10.647  12.607   2.531
25314SOL    HW177839  10.741  12.602   2.518
25314SOL    HW277840  10.637  12.629   2.624
25315SOL     OW77841   2.797   7.125   9.522
25315SOL    HW177842   2.805   7.201   9.579
25315SOL    HW277843   2.850   7.146   9.445
25316SOL     OW77844   8.649   3.272   7.668
25316SOL    HW177845   8.586   3.225   7.722
25316SOL    HW277846   8.606   3.279   7.582
25317SOL     OW77847  14.456   1.219   8.262
25317SOL    HW177848  14.545   1.190   8.239
25317SOL    HW277849  14.463   1.314   8.267
25318SOL     OW77850   1.486   3.145  13.304
25318SOL    HW177851   1.536   3.104  13.233
25318SOL    HW277852   1.399   3.106  13.296
25319SOL     OW77853   1.455   1.891  11.373
25319SOL    HW177854   1.430   1.982  11.358
25319SOL    HW277855   1.376   1.850  11.408
25320SOL     OW77856   9.163   1.472  11.305
25320SOL    HW177857   9.255   1.457  11.285
25320SOL    HW277858   9.139   1.546  11.249
25321SOL     OW77859   9.174  14.666   3.130
25321SOL    HW177860   9.109  14.688   3.196
25321SOL    HW277861   9.222  14.592   3.167
25322SOL     OW77862   6.590  13.783   8.630
25322SOL    HW177863   6.653  13.714   8.652
25322SOL    HW277864   6.562  13.762   8.541
25323SOL     OW77865   2.169  10.340   1.462
25323SOL    HW177866   2.103  10.279   1.494
25323SOL    HW277867   2.249  10.316   1.510
25324SOL     OW77868   4.568   7.355   7.654
25324SOL    HW177869   4.625   7.431   7.658
25324SOL    HW277870   4.602   7.295   7.721
25325SOL     OW77871   0.849  13.651   0.989
25325SOL    HW177872   0.929  13.665   1.040
25325SOL    HW277873   0.780  13.641   1.055
25326SOL     OW77874  13.890  12.985  11.088
25326SOL    HW177875  13.850  12.958  11.171
25326SOL    HW277876  13.859  13.075  11.075
25327SOL     OW77877  10.703   8.787  14.412
25327SOL    HW177878  10.671   8.755  14.328
25327SOL    HW277879  10.791   8.750  14.420
25328SOL     OW77880   9.303   5.342   0.008
25328SOL    HW177881   9.344   5.384  14.812
25328SOL    HW277882   9.315   5.249  14.872
25329SOL     OW77883  11.445  13.382  14.468
25329SOL    HW177884  11.433  13.477  14.475
25329SOL    HW277885  11.516  13.371  14.405
25330SOL     OW77886  14.352   9.727   3.000
25330SOL    HW177887  14.446   9.744   3.003
25330SOL    HW277888  14.325   9.725   3.092
25331SOL     OW77889   2.868  13.749  14.178
25331SOL    HW177890   2.783  13.741  14.135
25331SOL    HW277891   2.919  13.676  14.141
25332SOL     OW77892   8.475   3.950  14.377
25332SOL    HW177893   8.566   3.943  14.406
25332SOL    HW277894   8.477   4.016  14.308
25333SOL     OW77895   2.851   5.203  11.697
25333SOL    HW177896   2.810   5.149  11.629
25333SOL    HW277897   2.895   5.273  11.649
25334SOL     OW77898   0.488   0.996  14.390
25334SOL    HW177899   0.457   0.905  14.386
25334SOL    HW277900   0.513   1.016  14.299
25335SOL     OW77901   0.081   6.092   9.970
25335SOL    HW177902  14.877   6.049   9.989
25335SOL    HW277903   0.059   6.185   9.963
25336SOL     OW77904   3.684   3.371  11.372
25336SOL    HW177905   3.620   3.368  11.300
25336SOL    HW277906   3.708   3.280  11.387
25337SOL     OW77907   3.570   9.739   7.807
25337SOL    HW177908   3.552   9.822   7.851
25337SOL    HW277909   3.506   9.678   7.844
25338SOL     OW77910   1.820   7.829   8.515
25338SOL    HW177911   1.840   7.916   8.480
25338SOL    HW277912   1.744   7.843   8.571
25339SOL     OW77913  10.764  10.541  13.349
25339SOL    HW177914  10.782  10.498  13.432
25339SOL    HW277915  10.771  10.472  13.283
25340SOL     OW77916   9.381   1.624   5.934
25340SOL    HW177917   9.378   1.535   5.898
25340SOL    HW277918   9.471   1.634   5.965
25341SOL     OW77919   9.548  10.995   1.669
25341SOL    HW177920   9.574  11.015   1.759
25341SOL    HW277921   9.515  10.905   1.672
25342SOL     OW77922   8.833   7.757   2.562
25342SOL    HW177923   8.749   7.802   2.557
25342SOL    HW277924   8.851   7.729   2.473
25343SOL     OW77925  14.791  13.714   1.198
25343SOL    HW177926  14.740  13.665   1.262
25343SOL    HW277927  14.769  13.675   1.114
25344SOL     OW77928  13.179  10.770   7.037
25344SOL    HW177929  13.176  10.709   7.112
25344SOL    HW277930  13.150  10.853   7.074
25345SOL     OW77931   7.565   1.536  14.278
25345SOL    HW177932   7.558   1.586  14.359
25345SOL    HW277933   7.491   1.475  14.280
25346SOL     OW77934  14.706   8.127   6.070
25346SOL    HW177935  14.627   8.131   6.016
25346SOL    HW277936  14.727   8.218   6.089
25347SOL     OW77937   0.323   6.630   2.244
25347SOL    HW177938   0.418   6.630   2.228
25347SOL    HW277939   0.314   6.649   2.337
25348SOL     OW77940   6.581   4.566  10.785
25348SOL    HW177941   6.674   4.544  10.774
25348SOL    HW277942   6.576   4.659  10.763
25349SOL     OW77943   5.185   3.693  10.450
25349SOL    HW177944   5.198   3.618  10.392
25349SOL    HW277945   5.136   3.757  10.397
25350SOL     OW77946   7.237  10.488  14.626
25350SOL    HW177947   7.275  10.542  14.695
25350SOL    HW277948   7.198  10.552  14.565
25351SOL     OW77949   9.991   4.800  14.783
25351SOL    HW177950   9.965   4.727  14.727
25351SOL    HW277951   9.912   4.852  14.793
25352SOL     OW77952  14.644   3.922   9.813
25352SOL    HW177953  14.612   3.854   9.754
25352SOL    HW277954  14.694   3.875   9.880
25353SOL     OW77955   1.639   8.138   0.781
25353SOL    HW177956   1.623   8.185   0.700
25353SOL    HW277957   1.626   8.203   0.850
25354SOL     OW77958  13.287  10.658  10.033
25354SOL    HW177959  13.348  10.602   9.986
25354SOL    HW277960  13.243  10.710   9.965
25355SOL     OW77961   6.176   5.966   6.661
25355SOL    HW177962   6.168   5.895   6.724
25355SOL    HW277963   6.255   5.944   6.611
25356SOL     OW77964  10.151   9.564   1.934
25356SOL    HW177965  10.218   9.495   1.937
25356SOL    HW277966  10.111   9.554   1.848
25357SOL     OW77967  14.046   6.791   1.918
25357SOL    HW177968  14.089   6.762   1.999
25357SOL    HW277969  14.088   6.741   1.849
25358SOL     OW77970   1.250  11.351   1.948
25358SOL    HW177971   1.300  11.283   1.903
25358SOL    HW277972   1.316  11.410   1.984
25359SOL     OW77973  12.540   0.197   9.295
25359SOL    HW177974  12.555   0.144   9.217
25359SOL    HW277975  12.585   0.279   9.278
25360SOL     OW77976   6.228   0.278   8.634
25360SOL    HW177977   6.280   0.266   8.714
25360SOL    HW277978   6.137   0.274   8.663
25361SOL     OW77979  10.230  12.285   9.718
25361SOL    HW177980  10.186  12.370   9.716
25361SOL    HW277981  10.264  12.278   9.807
25362SOL     OW77982   4.612  13.797   4.248
25362SOL    HW177983   4.521  13.785   4.221
25362SOL    HW277984   4.658  13.820   4.168
25363SOL     OW77985   0.570   4.742  11.378
25363SOL    HW177986   0.584   4.718  11.470
25363SOL    HW277987   0.657   4.761  11.345
25364SOL     OW77988   9.544   3.831   4.185
25364SOL    HW177989   9.535   3.782   4.103
25364SOL    HW277990   9.477   3.899   4.179
25365SOL     OW77991  12.953   3.041   7.062
25365SOL    HW177992  12.930   2.962   7.110
25365SOL    HW277993  12.896   3.109   7.097
25366SOL     OW77994  14.014   3.028  10.377
25366SOL    HW177995  14.073   3.006  10.450
25366SOL    HW277996  13.933   3.055  10.419
25367SOL     OW77997   5.787   7.821   1.554
25367SOL    HW177998   5.772   7.886   1.485
25367SOL    HW277999   5.762   7.738   1.514
25368SOL     OW78000  13.248  13.808   2.997
25368SOL    HW178001  13.154  13.809   3.014
25368SOL    HW278002  13.270  13.899   2.975
25369SOL     OW78003   4.212  13.219  13.777
25369SOL    HW178004   4.187  13.291  13.835
25369SOL    HW278005   4.129  13.176  13.756
25370SOL     OW78006   5.184   2.822   6.625
25370SOL    HW178007   5.267   2.812   6.672
25370SOL    HW278008   5.204   2.799   6.535
25371SOL     OW78009   3.083   3.509   9.444
25371SOL    HW178010   3.032   3.451   9.501
25371SOL    HW278011   3.051   3.490   9.356
25372SOL     OW78012  11.885  13.334   9.214
25372SOL    HW178013  11.821  13.405   9.201
25372SOL    HW278014  11.968  13.372   9.185
25373SOL     OW78015   0.897   5.835   5.516
25373SOL    HW178016   0.850   5.866   5.593
25373SOL    HW278017   0.891   5.739   5.522
25374SOL     OW78018   2.296  11.080  10.887
25374SOL    HW178019   2.387  11.097  10.912
25374SOL    HW278020   2.245  11.126  10.953
25375SOL     OW78021  10.925  14.162   5.047
25375SOL    HW178022  10.992  14.140   5.112
25375SOL    HW278023  10.919  14.257   5.050
25376SOL     OW78024  10.435   2.080  10.004
25376SOL    HW178025  10.473   2.102  10.089
25376SOL    HW278026  10.511   2.074   9.945
25377SOL     OW78027   7.499   3.008   6.899
25377SOL    HW178028   7.488   2.913   6.894
25377SOL    HW278029   7.514   3.025   6.992
25378SOL     OW78030   0.459   5.312   1.718
25378SOL    HW178031   0.483   5.377   1.785
25378SOL    HW278032   0.393   5.357   1.664
25379SOL     OW78033  11.207   8.724   6.919
25379SOL    HW178034  11.200   8.803   6.972
25379SOL    HW278035  11.283   8.739   6.863
25380SOL     OW78036  10.750   4.408  10.698
25380SOL    HW178037  10.677   4.349  10.715
25380SOL    HW278038  10.824   4.370  10.746
25381SOL     OW78039  14.259  14.389   8.956
25381SOL    HW178040  14.348  14.363   8.981
25381SOL    HW278041  14.272  14.457   8.890
25382SOL     OW78042   2.320   1.705  14.622
25382SOL    HW178043   2.285   1.785  14.584
25382SOL    HW278044   2.415   1.721  14.627
25383SOL     OW78045   7.138   5.742   9.522
25383SOL    HW178046   7.213   5.770   9.576
25383SOL    HW278047   7.127   5.813   9.459
25384SOL     OW78048   2.937   2.974  12.191
25384SOL    HW178049   2.977   2.890  12.165
25384SOL    HW278050   2.965   3.035  12.123
25385SOL     OW78051   2.782   0.324   0.336
25385SOL    HW178052   2.708   0.376   0.303
25385SOL    HW278053   2.782   0.246   0.280
25386SOL     OW78054   8.759  10.803   1.363
25386SOL    HW178055   8.805  10.789   1.280
25386SOL    HW278056   8.701  10.727   1.372
25387SOL     OW78057  11.452   2.960  13.938
25387SOL    HW178058  11.481   2.869  13.943
25387SOL    HW278059  11.419   2.980  14.026
25388SOL     OW78060   0.697  11.233   8.643
25388SOL    HW178061   0.791  11.238   8.659
25388SOL    HW278062   0.680  11.300   8.576
25389SOL     OW78063   1.682   2.459   0.134
25389SOL    HW178064   1.724   2.516   0.069
25389SOL    HW278065   1.704   2.498   0.218
25390SOL     OW78066  10.680   5.376   3.015
25390SOL    HW178067  10.704   5.295   2.970
25390SOL    HW278068  10.603   5.408   2.968
25391SOL     OW78069   2.338   9.691   6.931
25391SOL    HW178070   2.342   9.752   7.005
25391SOL    HW278071   2.387   9.614   6.961
25392SOL     OW78072  10.497  13.142   2.527
25392SOL    HW178073  10.450  13.112   2.605
25392SOL    HW278074  10.589  13.140   2.553
25393SOL     OW78075  11.225  14.659   8.041
25393SOL    HW178076  11.215  14.748   8.007
25393SOL    HW278077  11.293  14.620   7.986
25394SOL     OW78078   2.907  13.341  14.320
25394SOL    HW178079   2.930  13.254  14.288
25394SOL    HW278080   2.948  13.401  14.258
25395SOL     OW78081  13.203   9.647   7.278
25395SOL    HW178082  13.197   9.726   7.330
25395SOL    HW278083  13.276   9.664   7.217
25396SOL     OW78084  10.254   9.787  10.751
25396SOL    HW178085  10.340   9.745  10.746
25396SOL    HW278086  10.226   9.796  10.660
25397SOL     OW78087   3.350   7.174   2.124
25397SOL    HW178088   3.435   7.135   2.146
25397SOL    HW278089   3.295   7.157   2.200
25398SOL     OW78090   1.781   3.141  13.156
25398SOL    HW178091   1.744   3.163  13.070
25398SOL    HW278092   1.858   3.088  13.136
25399SOL     OW78093   2.049   3.522   3.836
25399SOL    HW178094   2.000   3.596   3.871
25399SOL    HW278095   2.137   3.533   3.872
25400SOL     OW78096   3.438   8.132   4.744
25400SOL    HW178097   3.367   8.089   4.793
25400SOL    HW278098   3.499   8.162   4.811
25401SOL     OW78099   1.506  11.546   7.332
25401SOL    HW178100   1.537  11.633   7.355
25401SOL    HW278101   1.560  11.520   7.257
25402SOL     OW78102   4.617  10.924   8.697
25402SOL    HW178103   4.555  10.854   8.673
25402SOL    HW278104   4.694  10.877   8.730
25403SOL     OW78105  13.583  13.347   0.046
25403SOL    HW178106  13.624  13.388   0.123
25403SOL    HW278107  13.496  13.322   0.077
25404SOL     OW78108   4.583  13.122  11.863
25404SOL    HW178109   4.657  13.130  11.804
25404SOL    HW278110   4.614  13.159  11.946
25405SOL     OW78111  14.272   0.675   2.520
25405SOL    HW178112  14.323   0.751   2.549
25405SOL    HW278113  14.315   0.646   2.440
25406SOL     OW78114   0.110   4.897  13.190
25406SOL    HW178115   0.108   4.933  13.279
25406SOL    HW278116   0.037   4.836  13.186
25407SOL     OW78117   1.121   1.107   1.632
25407SOL    HW178118   1.110   1.127   1.725
25407SOL    HW278119   1.058   1.037   1.615
25408SOL     OW78120   6.063  14.159  13.545
25408SOL    HW178121   6.000  14.231  13.550
25408SOL    HW278122   6.148  14.202  13.539
25409SOL     OW78123   0.152   1.878   1.069
25409SOL    HW178124   0.218   1.886   1.138
25409SOL    HW278125   0.188   1.811   1.010
25410SOL     OW78126   4.529  14.811   1.998
25410SOL    HW178127   4.539  14.830   1.905
25410SOL    HW278128   4.582  14.733   2.012
25411SOL     OW78129   3.250   8.450   1.359
25411SOL    HW178130   3.319   8.393   1.326
25411SOL    HW278131   3.261   8.448   1.454
25412SOL     OW78132   9.556   0.853  14.209
25412SOL    HW178133   9.617   0.783  14.186
25412SOL    HW278134   9.526   0.887  14.125
25413SOL     OW78135  12.837   8.668  11.326
25413SOL    HW178136  12.849   8.611  11.250
25413SOL    HW278137  12.816   8.754  11.289
25414SOL     OW78138   9.954  11.558   0.490
25414SOL    HW178139   9.992  11.643   0.514
25414SOL    HW278140   9.868  11.579   0.455
25415SOL     OW78141  14.635   9.758  13.993
25415SOL    HW178142  14.604   9.778  13.905
25415SOL    HW278143  14.626   9.840  14.041
25416SOL     OW78144   1.306  14.848  11.102
25416SOL    HW178145   1.371   0.035  11.084
25416SOL    HW278146   1.233  14.869  11.044
25417SOL     OW78147   3.379  11.736  14.219
25417SOL    HW178148   3.290  11.706  14.238
25417SOL    HW278149   3.366  11.815  14.166
25418SOL     OW78150  12.794   5.154  13.978
25418SOL    HW178151  12.722   5.184  13.923
25418SOL    HW278152  12.864   5.218  13.962
25419SOL     OW78153  13.511   2.361  11.561
25419SOL    HW178154  13.576   2.425  11.591
25419SOL    HW278155  13.544   2.331  11.476
25420SOL     OW78156   2.540   4.095   3.117
25420SOL    HW178157   2.591   4.164   3.160
25420SOL    HW278158   2.604   4.024   3.102
25421SOL     OW78159   9.954   5.566  10.950
25421SOL    HW178160  10.018   5.498  10.969
25421SOL    HW278161  10.003   5.633  10.903
25422SOL     OW78162   7.444   8.180  13.439
25422SOL    HW178163   7.396   8.261  13.455
25422SOL    HW278164   7.516   8.182  13.501
25423SOL     OW78165   2.772  13.518   5.437
25423SOL    HW178166   2.751  13.502   5.529
25423SOL    HW278167   2.695  13.488   5.389
25424SOL     OW78168  12.674   9.591   6.068
25424SOL    HW178169  12.704   9.569   5.980
25424SOL    HW278170  12.602   9.653   6.054
25425SOL     OW78171   7.723   8.499   9.199
25425SOL    HW178172   7.752   8.438   9.131
25425SOL    HW278173   7.670   8.445   9.258
25426SOL     OW78174  12.238  11.375   0.160
25426SOL    HW178175  12.246  11.376   0.255
25426SOL    HW278176  12.327  11.360   0.128
25427SOL     OW78177  14.008   7.695  12.646
25427SOL    HW178178  13.970   7.608  12.636
25427SOL    HW278179  13.936   7.755  12.624
25428SOL     OW78180  11.293   3.042   7.591
25428SOL    HW178181  11.340   3.120   7.621
25428SOL    HW278182  11.307   2.978   7.661
25429SOL     OW78183   1.564   3.538   5.704
25429SOL    HW178184   1.487   3.522   5.758
25429SOL    HW278185   1.581   3.454   5.662
25430SOL     OW78186  10.194   5.196  11.483
25430SOL    HW178187  10.100   5.195  11.499
25430SOL    HW278188  10.204   5.156  11.397
25431SOL     OW78189  10.269  14.500   9.766
25431SOL    HW178190  10.346  14.508   9.709
25431SOL    HW278191  10.210  14.569   9.736
25432SOL     OW78192   1.015   0.598  14.439
25432SOL    HW178193   0.986   0.525  14.493
25432SOL    HW278194   1.107   0.579  14.419
25433SOL     OW78195  12.382  11.363  14.758
25433SOL    HW178196  12.296  11.320  14.757
25433SOL    HW278197  12.420  11.338  14.843
25434SOL     OW78198   2.606   1.349   7.007
25434SOL    HW178199   2.664   1.408   7.055
25434SOL    HW278200   2.596   1.390   6.921
25435SOL     OW78201   7.752   4.323  14.271
25435SOL    HW178202   7.712   4.255  14.218
25435SOL    HW278203   7.724   4.405  14.230
25436SOL     OW78204   9.517   7.480   9.206
25436SOL    HW178205   9.583   7.549   9.206
25436SOL    HW278206   9.490   7.472   9.114
25437SOL     OW78207   1.078  14.839   1.111
25437SOL    HW178208   1.083   0.040   1.162
25437SOL    HW278209   1.168  14.823   1.083
25438SOL     OW78210  12.469   5.984  14.558
25438SOL    HW178211  12.385   5.959  14.596
25438SOL    HW278212  12.480   5.925  14.483
25439SOL     OW78213   6.376  14.217   0.253
25439SOL    HW178214   6.349  14.293   0.305
25439SOL    HW278215   6.459  14.244   0.213
25440SOL     OW78216   0.406  10.295   3.694
25440SOL    HW178217   0.329  10.308   3.639
25440SOL    HW278218   0.408  10.372   3.751
25441SOL     OW78219   0.157   7.905   5.485
25441SOL    HW178220   0.222   7.904   5.556
25441SOL    HW278221   0.087   7.847   5.515
25442SOL     OW78222  14.056   4.388   2.218
25442SOL    HW178223  14.076   4.406   2.126
25442SOL    HW278224  14.120   4.441   2.266
25443SOL     OW78225   1.724   2.483   3.737
25443SOL    HW178226   1.809   2.525   3.725
25443SOL    HW278227   1.737   2.424   3.811
25444SOL     OW78228   2.941   3.023  12.782
25444SOL    HW178229   2.909   3.062  12.700
25444SOL    HW278230   2.874   2.961  12.808
25445SOL     OW78231   5.590  12.526   9.552
25445SOL    HW178232   5.622  12.446   9.594
25445SOL    HW278233   5.666  12.560   9.504
25446SOL     OW78234  11.979   0.190   5.024
25446SOL    HW178235  11.914   0.120   5.022
25446SOL    HW278236  11.959   0.239   5.104
25447SOL     OW78237   4.142   2.149   9.523
25447SOL    HW178238   4.226   2.103   9.529
25447SOL    HW278239   4.077   2.082   9.544
25448SOL     OW78240  14.228   2.840   0.755
25448SOL    HW178241  14.183   2.768   0.800
25448SOL    HW278242  14.320   2.829   0.778
25449SOL     OW78243   8.770  10.270  11.682
25449SOL    HW178244   8.718  10.291  11.604
25449SOL    HW278245   8.780  10.354  11.728
25450SOL     OW78246   1.597   1.772  12.982
25450SOL    HW178247   1.638   1.827  12.915
25450SOL    HW278248   1.648   1.692  12.981
25451SOL     OW78249  11.228   3.345  12.247
25451SOL    HW178250  11.237   3.357  12.152
25451SOL    HW278251  11.207   3.433  12.280
25452SOL     OW78252  10.305  12.852   0.837
25452SOL    HW178253  10.313  12.884   0.927
25452SOL    HW278254  10.290  12.758   0.846
25453SOL     OW78255   0.555   8.729   4.929
25453SOL    HW178256   0.618   8.665   4.893
25453SOL    HW278257   0.482   8.675   4.960
25454SOL     OW78258   0.268   3.663   3.415
25454SOL    HW178259   0.284   3.706   3.331
25454SOL    HW278260   0.352   3.626   3.439
25455SOL     OW78261   6.014  11.330  11.735
25455SOL    HW178262   6.050  11.354  11.820
25455SOL    HW278263   5.921  11.352  11.740
25456SOL     OW78264  14.112   1.100  10.255
25456SOL    HW178265  14.092   1.190  10.281
25456SOL    HW278266  14.026   1.060  10.241
25457SOL     OW78267   7.901   8.271  12.823
25457SOL    HW178268   7.901   8.367  12.822
25457SOL    HW278269   7.939   8.246  12.739
25458SOL     OW78270   7.811   8.970   7.127
25458SOL    HW178271   7.815   9.066   7.126
25458SOL    HW278272   7.861   8.944   7.204
25459SOL     OW78273   1.842  11.631  14.448
25459SOL    HW178274   1.816  11.559  14.391
25459SOL    HW278275   1.889  11.691  14.390
25460SOL     OW78276   1.635   6.479  10.541
25460SOL    HW178277   1.565   6.442  10.488
25460SOL    HW278278   1.712   6.428  10.518
25461SOL     OW78279   3.225  11.316   1.347
25461SOL    HW178280   3.232  11.236   1.295
25461SOL    HW278281   3.261  11.384   1.291
25462SOL     OW78282   0.451   6.108  12.183
25462SOL    HW178283   0.540   6.073  12.175
25462SOL    HW278284   0.462   6.202  12.192
25463SOL     OW78285  12.593  11.941   3.304
25463SOL    HW178286  12.534  12.003   3.347
25463SOL    HW278287  12.679  11.958   3.344
25464SOL     OW78288   7.580  12.599  11.702
25464SOL    HW178289   7.582  12.692  11.722
25464SOL    HW278290   7.636  12.559  11.769
25465SOL     OW78291   7.013  11.953  14.588
25465SOL    HW178292   7.086  11.892  14.582
25465SOL    HW278293   6.952  11.924  14.520
25466SOL     OW78294   4.553   1.920  11.188
25466SOL    HW178295   4.503   1.847  11.151
25466SOL    HW278296   4.488   1.972  11.235
25467SOL     OW78297   3.905   1.676   0.643
25467SOL    HW178298   3.954   1.700   0.565
25467SOL    HW278299   3.933   1.587   0.664
25468SOL     OW78300  12.984  13.766   6.380
25468SOL    HW178301  13.073  13.797   6.362
25468SOL    HW278302  12.943  13.836   6.430
25469SOL     OW78303   2.270   1.965  11.142
25469SOL    HW178304   2.296   1.898  11.079
25469SOL    HW278305   2.260   1.918  11.225
25470SOL     OW78306   7.950   1.143  14.840
25470SOL    HW178307   7.971   1.143  14.746
25470SOL    HW278308   7.963   1.052  14.867
25471SOL     OW78309  13.283   8.155  13.397
25471SOL    HW178310  13.274   8.224  13.463
25471SOL    HW278311  13.330   8.085  13.442
25472SOL     OW78312   3.796  13.741   9.666
25472SOL    HW178313   3.743  13.686   9.608
25472SOL    HW278314   3.886  13.711   9.652
25473SOL     OW78315  12.541   4.130   6.226
25473SOL    HW178316  12.603   4.191   6.186
25473SOL    HW278317  12.530   4.061   6.160
25474SOL     OW78318   5.836   8.761   7.161
25474SOL    HW178319   5.874   8.848   7.163
25474SOL    HW278320   5.867   8.722   7.079
25475SOL     OW78321  14.563   3.849   9.492
25475SOL    HW178322  14.559   3.800   9.575
25475SOL    HW278323  14.506   3.925   9.507
25476SOL     OW78324   1.249   0.079   5.625
25476SOL    HW178325   1.268   0.162   5.670
25476SOL    HW278326   1.318   0.071   5.559
25477SOL     OW78327  14.685   4.026   0.312
25477SOL    HW178328  14.698   4.114   0.346
25477SOL    HW278329  14.757   3.975   0.348
25478SOL     OW78330  11.320   1.050   3.112
25478SOL    HW178331  11.324   0.959   3.081
25478SOL    HW278332  11.364   1.100   3.043
25479SOL     OW78333  11.667   0.248   2.792
25479SOL    HW178334  11.714   0.199   2.725
25479SOL    HW278335  11.665   0.338   2.760
25480SOL     OW78336   1.419  11.720   5.894
25480SOL    HW178337   1.352  11.732   5.962
25480SOL    HW278338   1.389  11.644   5.844
25481SOL     OW78339   4.680  10.549   3.492
25481SOL    HW178340   4.760  10.499   3.474
25481SOL    HW278341   4.641  10.506   3.568
25482SOL     OW78342   2.761  10.700  11.249
25482SOL    HW178343   2.741  10.651  11.169
25482SOL    HW278344   2.724  10.646  11.319
25483SOL     OW78345   0.388  13.714  12.638
25483SOL    HW178346   0.454  13.773  12.672
25483SOL    HW278347   0.379  13.738  12.546
25484SOL     OW78348  12.572   5.207  13.420
25484SOL    HW178349  12.512   5.160  13.362
25484SOL    HW278350  12.596   5.286  13.371
25485SOL     OW78351   9.440   4.254   4.536
25485SOL    HW178352   9.361   4.297   4.569
25485SOL    HW278353   9.426   4.247   4.442
25486SOL     OW78354  13.868   8.880   0.369
25486SOL    HW178355  13.780   8.843   0.356
25486SOL    HW278356  13.892   8.854   0.457
25487SOL     OW78357   3.088   2.315   7.508
25487SOL    HW178358   3.141   2.239   7.532
25487SOL    HW278359   3.024   2.282   7.445
25488SOL     OW78360   5.264  14.469   4.983
25488SOL    HW178361   5.348  14.501   4.950
25488SOL    HW278362   5.283  14.382   5.016
25489SOL     OW78363   5.660   8.926   3.312
25489SOL    HW178364   5.620   8.854   3.360
25489SOL    HW278365   5.726   8.961   3.371
25490SOL     OW78366   5.267   3.567   3.546
25490SOL    HW178367   5.222   3.606   3.621
25490SOL    HW278368   5.210   3.494   3.520
25491SOL     OW78369   8.703   3.039   5.182
25491SOL    HW178370   8.680   3.097   5.254
25491SOL    HW278371   8.738   2.961   5.224
25492SOL     OW78372   1.472   9.773   0.325
25492SOL    HW178373   1.489   9.867   0.319
25492SOL    HW278374   1.559   9.733   0.329
25493SOL     OW78375  14.509   3.799   3.566
25493SOL    HW178376  14.570   3.852   3.618
25493SOL    HW278377  14.565   3.733   3.524
25494SOL     OW78378  14.468   1.470   2.958
25494SOL    HW178379  14.443   1.552   2.915
25494SOL    HW278380  14.438   1.401   2.898
25495SOL     OW78381   1.798   8.821  12.409
25495SOL    HW178382   1.891   8.821  12.428
25495SOL    HW278383   1.775   8.728  12.399
25496SOL     OW78384   8.870   4.747   0.956
25496SOL    HW178385   8.834   4.688   0.891
25496SOL    HW278386   8.907   4.820   0.905
25497SOL     OW78387   9.373   9.809   3.153
25497SOL    HW178388   9.310   9.834   3.085
25497SOL    HW278389   9.378   9.886   3.210
25498SOL     OW78390  14.846   1.445  11.944
25498SOL    HW178391  14.839   1.462  12.038
25498SOL    HW278392   0.052   1.403  11.933
25499SOL     OW78393   9.572   5.907   6.136
25499SOL    HW178394   9.528   5.863   6.064
25499SOL    HW278395   9.607   5.988   6.098
25500SOL     OW78396   4.966  14.110   8.846
25500SOL    HW178397   5.008  14.083   8.928
25500SOL    HW278398   4.924  14.030   8.814
25501SOL     OW78399  12.463  10.291   9.844
25501SOL    HW178400  12.414  10.219   9.883
25501SOL    HW278401  12.397  10.358   9.826
25502SOL     OW78402  13.009   2.668   8.173
25502SOL    HW178403  13.076   2.715   8.222
25502SOL    HW278404  12.930   2.721   8.182
25503SOL     OW78405   9.264   3.502   3.323
25503SOL    HW178406   9.274   3.597   3.321
25503SOL    HW278407   9.304   3.476   3.407
25504SOL     OW78408  13.764   3.838   4.220
25504SOL    HW178409  13.724   3.762   4.262
25504SOL    HW278410  13.804   3.887   4.292
25505SOL     OW78411   4.936  11.918   4.700
25505SOL    HW178412   4.987  11.939   4.778
25505SOL    HW278413   4.879  11.846   4.727
25506SOL     OW78414  13.727  13.814   7.611
25506SOL    HW178415  13.787  13.873   7.567
25506SOL    HW278416  13.734  13.836   7.704
25507SOL     OW78417   2.173   3.016   9.623
25507SOL    HW178418   2.166   2.951   9.553
25507SOL    HW278419   2.115   3.087   9.595
25508SOL     OW78420   9.303  13.965   5.666
25508SOL    HW178421   9.283  13.912   5.742
25508SOL    HW278422   9.394  13.944   5.645
25509SOL     OW78423   1.215   4.451  13.077
25509SOL    HW178424   1.199   4.493  13.162
25509SOL    HW278425   1.250   4.365  13.099
25510SOL     OW78426  13.750   2.999   3.851
25510SOL    HW178427  13.768   2.917   3.807
25510SOL    HW278428  13.828   3.053   3.835
25511SOL     OW78429   8.521  11.815   8.856
25511SOL    HW178430   8.571  11.858   8.787
25511SOL    HW278431   8.438  11.863   8.860
25512SOL     OW78432  11.451   9.305   1.834
25512SOL    HW178433  11.528   9.357   1.855
25512SOL    HW278434  11.486   9.223   1.799
25513SOL     OW78435   9.821   8.588   3.162
25513SOL    HW178436   9.738   8.613   3.120
25513SOL    HW278437   9.827   8.645   3.239
25514SOL     OW78438  13.998   7.086   4.827
25514SOL    HW178439  13.905   7.064   4.826
25514SOL    HW278440  14.038   7.020   4.883
25515SOL     OW78441   3.685   8.627  13.334
25515SOL    HW178442   3.701   8.609  13.241
25515SOL    HW278443   3.771   8.623  13.375
25516SOL     OW78444  12.990  13.902   3.046
25516SOL    HW178445  12.960  13.992   3.031
25516SOL    HW278446  12.967  13.884   3.137
25517SOL     OW78447   6.999   6.387  10.949
25517SOL    HW178448   6.925   6.357  10.895
25517SOL    HW278449   7.076   6.364  10.897
25518SOL     OW78450   4.209  14.822   8.722
25518SOL    HW178451   4.262  14.834   8.801
25518SOL    HW278452   4.270  14.790   8.656
25519SOL     OW78453  14.747  11.874   3.426
25519SOL    HW178454  14.770  11.852   3.517
25519SOL    HW278455  14.668  11.822   3.408
25520SOL     OW78456   7.591   8.822  10.381
25520SOL    HW178457   7.685   8.818  10.397
25520SOL    HW278458   7.581   8.886  10.311
25521SOL     OW78459   4.167   2.369   4.686
25521SOL    HW178460   4.258   2.398   4.684
25521SOL    HW278461   4.126   2.424   4.752
25522SOL     OW78462  14.553   0.918  13.357
25522SOL    HW178463  14.558   0.823  13.364
25522SOL    HW278464  14.469   0.941  13.398
25523SOL     OW78465   7.098  14.782  13.749
25523SOL    HW178466   7.100  14.877  13.739
25523SOL    HW278467   7.189  14.757  13.757
25524SOL     OW78468   8.119  10.899  10.867
25524SOL    HW178469   8.057  10.924  10.935
25524SOL    HW278470   8.080  10.931  10.786
25525SOL     OW78471   8.078   9.364  10.663
25525SOL    HW178472   8.060   9.317  10.581
25525SOL    HW278473   8.148   9.313  10.704
25526SOL     OW78474   8.558   7.504   3.730
25526SOL    HW178475   8.605   7.543   3.656
25526SOL    HW278476   8.476   7.472   3.691
25527SOL     OW78477   4.633  12.215  13.425
25527SOL    HW178478   4.676  12.243  13.344
25527SOL    HW278479   4.676  12.267  13.494
25528SOL     OW78480  13.962   4.509  10.589
25528SOL    HW178481  13.977   4.439  10.652
25528SOL    HW278482  13.868   4.505  10.570
25529SOL     OW78483   1.718   3.257   9.630
25529SOL    HW178484   1.722   3.207   9.548
25529SOL    HW278485   1.805   3.299   9.636
25530SOL     OW78486   9.365   9.405  11.819
25530SOL    HW178487   9.431   9.350  11.861
25530SOL    HW278488   9.414   9.458  11.756
25531SOL     OW78489   9.391   7.496  13.759
25531SOL    HW178490   9.402   7.538  13.845
25531SOL    HW278491   9.473   7.512  13.713
25532SOL     OW78492  14.264  13.408  13.740
25532SOL    HW178493  14.303  13.372  13.820
25532SOL    HW278494  14.339  13.420  13.681
25533SOL     OW78495  10.660   5.206   4.405
25533SOL    HW178496  10.697   5.293   4.420
25533SOL    HW278497  10.712   5.147   4.459
25534SOL     OW78498  12.972  14.319   9.697
25534SOL    HW178499  13.062  14.304   9.727
25534SOL    HW278500  12.924  14.242   9.727
25535SOL     OW78501   8.099  10.697  10.104
25535SOL    HW178502   8.060  10.666  10.023
25535SOL    HW278503   8.124  10.617  10.151
25536SOL     OW78504  14.454  13.531  11.391
25536SOL    HW178505  14.536  13.482  11.380
25536SOL    HW278506  14.413  13.530  11.305
25537SOL     OW78507   0.081   9.724   0.328
25537SOL    HW178508   0.158   9.773   0.357
25537SOL    HW278509   0.007   9.780   0.352
25538SOL     OW78510  13.238   4.081   7.151
25538SOL    HW178511  13.191   4.138   7.090
25538SOL    HW278512  13.223   3.993   7.117
25539SOL     OW78513  13.857  13.149  10.284
25539SOL    HW178514  13.932  13.142  10.225
25539SOL    HW278515  13.813  13.065  10.278
25540SOL     OW78516   0.409   7.014   0.423
25540SOL    HW178517   0.415   7.108   0.409
25540SOL    HW278518   0.491   6.990   0.465
25541SOL     OW78519  14.365  10.567   1.245
25541SOL    HW178520  14.277  10.599   1.224
25541SOL    HW278521  14.396  10.526   1.164
25542SOL     OW78522   9.220   3.514   2.874
25542SOL    HW178523   9.244   3.582   2.937
25542SOL    HW278524   9.151   3.464   2.917
25543SOL     OW78525   7.186   2.116  14.682
25543SOL    HW178526   7.278   2.103  14.658
25543SOL    HW278527   7.161   2.197  14.637
25544SOL     OW78528   8.267   5.853  11.811
25544SOL    HW178529   8.254   5.840  11.905
25544SOL    HW278530   8.273   5.764  11.775
25545SOL     OW78531   2.879   2.944   3.973
25545SOL    HW178532   2.858   2.921   3.883
25545SOL    HW278533   2.962   2.901   3.990
25546SOL     OW78534  10.360   4.729  13.164
25546SOL    HW178535  10.452   4.714  13.144
25546SOL    HW278536  10.360   4.787  13.240
25547SOL     OW78537  13.307   1.011  12.980
25547SOL    HW178538  13.353   1.047  13.056
25547SOL    HW278539  13.342   1.060  12.906
25548SOL     OW78540  11.191   0.607   2.805
25548SOL    HW178541  11.118   0.579   2.859
25548SOL    HW278542  11.156   0.680   2.753
25549SOL     OW78543   5.590   7.227  14.481
25549SOL    HW178544   5.644   7.153  14.454
25549SOL    HW278545   5.653   7.292  14.512
25550SOL     OW78546   2.902   3.124   0.979
25550SOL    HW178547   2.963   3.075   1.033
25550SOL    HW278548   2.918   3.093   0.890
25551SOL     OW78549   5.101   8.194  12.234
25551SOL    HW178550   5.089   8.247  12.313
25551SOL    HW278551   5.189   8.158  12.242
25552SOL     OW78552   0.441  14.674  13.742
25552SOL    HW178553   0.366  14.657  13.798
25552SOL    HW278554   0.490  14.591  13.742
25553SOL     OW78555   6.439   0.005   0.294
25553SOL    HW178556   6.510   0.066   0.271
25553SOL    HW278557   6.412  14.847   0.210
25554SOL     OW78558  13.257   1.669   0.773
25554SOL    HW178559  13.190   1.602   0.785
25554SOL    HW278560  13.236   1.710   0.690
25555SOL     OW78561   9.585   6.011   7.754
25555SOL    HW178562   9.631   6.044   7.831
25555SOL    HW278563   9.548   5.928   7.782
25556SOL     OW78564   1.488   0.002   0.276
25556SOL    HW178565   1.510  14.790   0.259
25556SOL    HW278566   1.535   0.051   0.209
25557SOL     OW78567  12.218  11.469  10.092
25557SOL    HW178568  12.151  11.409  10.061
25557SOL    HW278569  12.201  11.551  10.045
25558SOL     OW78570   2.515   0.327  14.706
25558SOL    HW178571   2.545   0.236  14.700
25558SOL    HW278572   2.493   0.339  14.799
25559SOL     OW78573  11.577   5.548   2.852
25559SOL    HW178574  11.578   5.455   2.828
25559SOL    HW278575  11.540   5.550   2.940
25560SOL     OW78576   6.700   8.619  13.983
25560SOL    HW178577   6.704   8.634  14.078
25560SOL    HW278578   6.608   8.628  13.961
25561SOL     OW78579   2.890  11.768   4.301
25561SOL    HW178580   2.952  11.826   4.256
25561SOL    HW278581   2.845  11.825   4.363
25562SOL     OW78582   0.125   9.220  10.999
25562SOL    HW178583   0.198   9.280  11.013
25562SOL    HW278584   0.112   9.179  11.085
25563SOL     OW78585   1.695   6.669   6.642
25563SOL    HW178586   1.756   6.648   6.712
25563SOL    HW278587   1.693   6.764   6.639
25564SOL     OW78588   2.247   6.997   4.797
25564SOL    HW178589   2.258   6.999   4.892
25564SOL    HW278590   2.332   6.968   4.764
25565SOL     OW78591   2.481   6.904  13.610
25565SOL    HW178592   2.525   6.919  13.694
25565SOL    HW278593   2.514   6.819  13.580
25566SOL     OW78594  11.199   3.457  11.446
25566SOL    HW178595  11.278   3.464  11.393
25566SOL    HW278596  11.130   3.493  11.392
25567SOL     OW78597  13.939   2.861   8.353
25567SOL    HW178598  13.986   2.823   8.279
25567SOL    HW278599  13.866   2.801   8.369
25568SOL     OW78600   5.773   3.394   9.364
25568SOL    HW178601   5.845   3.456   9.350
25568SOL    HW278602   5.723   3.432   9.436
25569SOL     OW78603   0.511  14.457   5.994
25569SOL    HW178604   0.433  14.495   6.036
25569SOL    HW278605   0.483  14.369   5.968
25570SOL     OW78606  14.458  10.841   5.348
25570SOL    HW178607  14.447  10.859   5.441
25570SOL    HW278608  14.398  10.768   5.330
25571SOL     OW78609  13.284   0.542   7.388
25571SOL    HW178610  13.221   0.502   7.448
25571SOL    HW278611  13.332   0.605   7.442
25572SOL     OW78612  10.104   9.307  14.300
25572SOL    HW178613  10.113   9.211  14.295
25572SOL    HW278614  10.112   9.327  14.393
25573SOL     OW78615   4.573   1.908   5.943
25573SOL    HW178616   4.598   1.823   5.905
25573SOL    HW278617   4.501   1.888   6.002
25574SOL     OW78618   4.752   9.085   1.541
25574SOL    HW178619   4.777   9.050   1.455
25574SOL    HW278620   4.658   9.101   1.534
25575SOL     OW78621   5.252   1.649  10.938
25575SOL    HW178622   5.239   1.739  10.909
25575SOL    HW278623   5.314   1.612  10.876
25576SOL     OW78624   0.389  11.084  11.193
25576SOL    HW178625   0.310  11.137  11.200
25576SOL    HW278626   0.368  11.003  11.239
25577SOL     OW78627   8.931   3.465   7.888
25577SOL    HW178628   8.846   3.509   7.896
25577SOL    HW278629   8.910   3.378   7.853
25578SOL     OW78630   3.314   1.800   6.082
25578SOL    HW178631   3.329   1.879   6.030
25578SOL    HW278632   3.225   1.772   6.060
25579SOL     OW78633   4.796  11.923   9.045
25579SOL    HW178634   4.827  12.004   9.086
25579SOL    HW278635   4.859  11.856   9.072
25580SOL     OW78636   5.331  10.368   8.128
25580SOL    HW178637   5.237  10.364   8.111
25580SOL    HW278638   5.371  10.373   8.041
25581SOL     OW78639  11.707  14.380   7.904
25581SOL    HW178640  11.689  14.470   7.879
25581SOL    HW278641  11.789  14.384   7.953
25582SOL     OW78642   6.382   5.584   3.982
25582SOL    HW178643   6.450   5.645   3.953
25582SOL    HW278644   6.357   5.536   3.902
25583SOL     OW78645   8.396   6.922  13.571
25583SOL    HW178646   8.468   6.875  13.614
25583SOL    HW278647   8.382   6.999  13.626
25584SOL     OW78648   6.315   7.509   9.688
25584SOL    HW178649   6.311   7.416   9.664
25584SOL    HW278650   6.366   7.510   9.768
25585SOL     OW78651   0.248  10.247   8.945
25585SOL    HW178652   0.161  10.261   8.982
25585SOL    HW278653   0.281  10.169   8.990
25586SOL     OW78654  13.855   9.682  11.012
25586SOL    HW178655  13.932   9.711  11.059
25586SOL    HW278656  13.785   9.683  11.077
25587SOL     OW78657  13.066   1.613   2.670
25587SOL    HW178658  12.981   1.623   2.627
25587SOL    HW278659  13.066   1.522   2.701
25588SOL     OW78660  10.778  11.037   4.759
25588SOL    HW178661  10.731  11.116   4.786
25588SOL    HW278662  10.812  11.058   4.672
25589SOL     OW78663  13.999  14.486   1.698
25589SOL    HW178664  13.983  14.555   1.633
25589SOL    HW278665  13.989  14.405   1.648
25590SOL     OW78666   8.461   2.063   6.370
25590SOL    HW178667   8.455   2.113   6.451
25590SOL    HW278668   8.372   2.031   6.356
25591SOL     OW78669   3.628   1.719   8.310
25591SOL    HW178670   3.555   1.775   8.283
25591SOL    HW278671   3.703   1.752   8.260
25592SOL     OW78672   8.915   5.472   7.077
25592SOL    HW178673   8.949   5.427   7.154
25592SOL    HW278674   8.952   5.560   7.082
25593SOL     OW78675  11.032   5.707   9.256
25593SOL    HW178676  11.074   5.747   9.180
25593SOL    HW278677  11.075   5.748   9.331
25594SOL     OW78678   7.096  11.881  10.993
25594SOL    HW178679   7.175  11.917  10.953
25594SOL    HW278680   7.123  11.797  11.029
25595SOL     OW78681  11.576   0.625   4.423
25595SOL    HW178682  11.511   0.611   4.492
25595SOL    HW278683  11.542   0.700   4.374
25596SOL     OW78684  12.704   3.977  13.515
25596SOL    HW178685  12.681   4.068  13.499
25596SOL    HW278686  12.763   3.980  13.591
25597SOL     OW78687   9.223  11.337  12.687
25597SOL    HW178688   9.167  11.400  12.733
25597SOL    HW278689   9.179  11.323  12.604
25598SOL     OW78690  10.607  11.886  11.401
25598SOL    HW178691  10.528  11.891  11.347
25598SOL    HW278692  10.605  11.797  11.437
25599SOL     OW78693  12.609  13.054   6.911
25599SOL    HW178694  12.653  13.139   6.904
25599SOL    HW278695  12.660  12.996   6.855
25600SOL     OW78696   6.051   1.962  11.138
25600SOL    HW178697   6.107   2.026  11.095
25600SOL    HW278698   5.966   2.006  11.145
25601SOL     OW78699   8.533   3.675  14.854
25601SOL    HW178700   8.524   3.730   0.052
25601SOL    HW278701   8.497   3.590   0.001
25602SOL     OW78702   7.156  10.229  11.364
25602SOL    HW178703   7.107  10.151  11.390
25602SOL    HW278704   7.105  10.266  11.291
25603SOL     OW78705   4.268   8.955  12.972
25603SOL    HW178706   4.298   8.865  12.984
25603SOL    HW278707   4.286   8.998  13.056
25604SOL     OW78708   5.543   0.211  14.818
25604SOL    HW178709   5.579   0.210   0.027
25604SOL    HW278710   5.615   0.242  14.763
25605SOL     OW78711   4.888   3.483  14.841
25605SOL    HW178712   4.820   3.416  14.842
25605SOL    HW278713   4.911   3.496   0.054
25606SOL     OW78714   2.407  13.300   8.715
25606SOL    HW178715   2.463  13.317   8.639
25606SOL    HW278716   2.434  13.214   8.746
25607SOL     OW78717   0.836  10.013   5.905
25607SOL    HW178718   0.863  10.104   5.915
25607SOL    HW278719   0.864   9.971   5.987
25608SOL     OW78720  10.250   7.547  12.082
25608SOL    HW178721  10.261   7.642  12.082
25608SOL    HW278722  10.250   7.523  11.989
25609SOL     OW78723   5.261   7.364  14.713
25609SOL    HW178724   5.194   7.356  14.780
25609SOL    HW278725   5.322   7.430  14.747
25610SOL     OW78726   0.020  13.026   3.679
25610SOL    HW178727   0.104  12.985   3.699
25610SOL    HW278728   0.043  13.115   3.652
25611SOL     OW78729  14.700  12.064   0.364
25611SOL    HW178730  14.675  11.976   0.394
25611SOL    HW278731  14.645  12.122   0.417
25612SOL     OW78732   7.809   6.962  14.103
25612SOL    HW178733   7.784   7.049  14.072
25612SOL    HW278734   7.798   6.966  14.198
25613SOL     OW78735  14.229   7.988   0.091
25613SOL    HW178736  14.212   7.966   0.183
25613SOL    HW278737  14.324   7.984   0.083
25614SOL     OW78738  14.085  13.650   8.567
25614SOL    HW178739  14.173  13.621   8.543
25614SOL    HW278740  14.029  13.616   8.496
25615SOL     OW78741   2.077  10.772  12.541
25615SOL    HW178742   2.155  10.727  12.512
25615SOL    HW278743   2.004  10.718  12.511
25616SOL     OW78744   0.751   1.472  10.060
25616SOL    HW178745   0.757   1.514  10.146
25616SOL    HW278746   0.796   1.388  10.071
25617SOL     OW78747   4.454   0.622  10.376
25617SOL    HW178748   4.401   0.574  10.440
25617SOL    HW278749   4.442   0.575  10.294
25618SOL     OW78750   8.787   4.114   2.817
25618SOL    HW178751   8.846   4.103   2.892
25618SOL    HW278752   8.707   4.069   2.843
25619SOL     OW78753   8.269   3.432  12.365
25619SOL    HW178754   8.247   3.360  12.306
25619SOL    HW278755   8.259   3.511  12.312
25620SOL     OW78756   5.404   8.445  12.815
25620SOL    HW178757   5.459   8.448  12.893
25620SOL    HW278758   5.455   8.490  12.747
25621SOL     OW78759  11.414   2.441   5.194
25621SOL    HW178760  11.324   2.445   5.163
25621SOL    HW278761  11.458   2.383   5.131
25622SOL     OW78762   9.124  11.394  11.633
25622SOL    HW178763   9.056  11.396  11.566
25622SOL    HW278764   9.192  11.337  11.597
25623SOL     OW78765  11.529  12.350   4.549
25623SOL    HW178766  11.443  12.387   4.570
25623SOL    HW278767  11.510  12.282   4.485
25624SOL     OW78768   1.138   2.653   2.185
25624SOL    HW178769   1.081   2.689   2.253
25624SOL    HW278770   1.086   2.583   2.146
25625SOL     OW78771  11.894   8.061   9.336
25625SOL    HW178772  11.811   8.103   9.315
25625SOL    HW278773  11.922   8.020   9.255
25626SOL     OW78774  14.178   3.526   9.348
25626SOL    HW178775  14.109   3.541   9.284
25626SOL    HW278776  14.227   3.452   9.313
25627SOL     OW78777   5.573   3.964   7.650
25627SOL    HW178778   5.562   4.059   7.644
25627SOL    HW278779   5.484   3.931   7.662
25628SOL     OW78780  12.880  11.938   4.014
25628SOL    HW178781  12.821  12.009   3.992
25628SOL    HW278782  12.824  11.871   4.054
25629SOL     OW78783   6.803   5.397   9.155
25629SOL    HW178784   6.789   5.320   9.210
25629SOL    HW278785   6.758   5.377   9.073
25630SOL     OW78786   0.512  12.295   7.122
25630SOL    HW178787   0.571  12.369   7.111
25630SOL    HW278788   0.526  12.240   7.044
25631SOL     OW78789   2.292   1.704  12.483
25631SOL    HW178790   2.368   1.761  12.496
25631SOL    HW278791   2.257   1.690  12.572
25632SOL     OW78792  12.028   2.508   6.898
25632SOL    HW178793  12.021   2.492   6.804
25632SOL    HW278794  11.938   2.498   6.930
25633SOL     OW78795   2.486  13.051   6.497
25633SOL    HW178796   2.437  13.128   6.466
25633SOL    HW278797   2.435  13.020   6.572
25634SOL     OW78798   5.719  14.695   7.935
25634SOL    HW178799   5.629  14.687   7.966
25634SOL    HW278800   5.765  14.623   7.977
25635SOL     OW78801  10.267  12.210  12.870
25635SOL    HW178802  10.304  12.198  12.958
25635SOL    HW278803  10.176  12.236  12.886
25636SOL     OW78804  10.423   0.564   5.174
25636SOL    HW178805  10.452   0.589   5.262
25636SOL    HW278806  10.338   0.523   5.187
25637SOL     OW78807  10.849   1.523   7.075
25637SOL    HW178808  10.810   1.439   7.051
25637SOL    HW278809  10.774   1.580   7.094
25638SOL     OW78810  10.971  11.498   2.877
25638SOL    HW178811  11.033  11.443   2.924
25638SOL    HW278812  10.942  11.444   2.803
25639SOL     OW78813   6.505   4.317   3.673
25639SOL    HW178814   6.455   4.332   3.754
25639SOL    HW278815   6.595   4.305   3.703
25640SOL     OW78816   5.093  10.265   2.371
25640SOL    HW178817   5.013  10.246   2.323
25640SOL    HW278818   5.133  10.179   2.385
25641SOL     OW78819  14.716   7.143  13.264
25641SOL    HW178820  14.645   7.207  13.257
25641SOL    HW278821  14.671   7.059  13.270
25642SOL     OW78822   4.191   1.692   2.551
25642SOL    HW178823   4.189   1.693   2.647
25642SOL    HW278824   4.251   1.763   2.528
25643SOL     OW78825   6.852   7.624   6.135
25643SOL    HW178826   6.838   7.623   6.040
25643SOL    HW278827   6.944   7.599   6.145
25644SOL     OW78828   5.717   2.761   8.070
25644SOL    HW178829   5.659   2.817   8.122
25644SOL    HW278830   5.803   2.770   8.111
25645SOL     OW78831   0.997   9.683   8.735
25645SOL    HW178832   1.084   9.668   8.773
25645SOL    HW278833   0.969   9.767   8.772
25646SOL     OW78834   4.202   4.114  11.060
25646SOL    HW178835   4.296   4.125  11.075
25646SOL    HW278836   4.197   4.051  10.987
25647SOL     OW78837  10.923   6.169  12.129
25647SOL    HW178838  10.955   6.137  12.045
25647SOL    HW278839  10.973   6.119  12.194
25648SOL     OW78840   2.933   6.315   5.848
25648SOL    HW178841   3.028   6.305   5.860
25648SOL    HW278842   2.897   6.231   5.876
25649SOL     OW78843   8.239   1.945   7.282
25649SOL    HW178844   8.146   1.926   7.276
25649SOL    HW278845   8.281   1.873   7.235
25650SOL     OW78846  10.261   1.986   9.407
25650SOL    HW178847  10.285   1.905   9.451
25650SOL    HW278848  10.212   2.036   9.472
25651SOL     OW78849   2.881  12.198   5.664
25651SOL    HW178850   2.821  12.239   5.601
25651SOL    HW278851   2.947  12.266   5.682
25652SOL     OW78852  14.777   0.948  12.297
25652SOL    HW178853  14.693   0.966  12.340
25652SOL    HW278854  14.828   1.028  12.312
25653SOL     OW78855   9.933   7.879   4.602
25653SOL    HW178856   9.851   7.854   4.561
25653SOL    HW278857   9.908   7.942   4.670
25654SOL     OW78858   1.735   2.896   1.056
25654SOL    HW178859   1.815   2.939   1.085
25654SOL    HW278860   1.763   2.808   1.033
25655SOL     OW78861   1.955   8.225  10.152
25655SOL    HW178862   2.022   8.287  10.122
25655SOL    HW278863   1.904   8.274  10.215
25656SOL     OW78864   2.390   9.582  10.794
25656SOL    HW178865   2.460   9.631  10.751
25656SOL    HW278866   2.401   9.602  10.887
25657SOL     OW78867  10.368  11.777  12.395
25657SOL    HW178868  10.306  11.819  12.454
25657SOL    HW278869  10.420  11.850  12.360
25658SOL     OW78870  13.420   5.015   8.636
25658SOL    HW178871  13.345   4.958   8.620
25658SOL    HW278872  13.470   4.970   8.704
25659SOL     OW78873   3.820   9.593   5.911
25659SOL    HW178874   3.843   9.555   5.996
25659SOL    HW278875   3.844   9.685   5.919
25660SOL     OW78876   4.817  12.027  14.619
25660SOL    HW178877   4.908  12.023  14.650
25660SOL    HW278878   4.780  12.103  14.663
25661SOL     OW78879   1.939   4.663  12.397
25661SOL    HW178880   2.023   4.699  12.369
25661SOL    HW278881   1.927   4.585  12.342
25662SOL     OW78882  11.109   2.805   7.342
25662SOL    HW178883  11.150   2.746   7.279
25662SOL    HW278884  11.062   2.869   7.290
25663SOL     OW78885   2.304   8.297  13.243
25663SOL    HW178886   2.236   8.260  13.299
25663SOL    HW278887   2.256   8.338  13.171
25664SOL     OW78888   3.473   5.630   5.908
25664SOL    HW178889   3.500   5.538   5.913
25664SOL    HW278890   3.547   5.678   5.943
25665SOL     OW78891  12.854   0.629   2.677
25665SOL    HW178892  12.840   0.601   2.768
25665SOL    HW278893  12.845   0.724   2.680
25666SOL     OW78894   4.819   2.531  10.928
25666SOL    HW178895   4.892   2.593  10.931
25666SOL    HW278896   4.857   2.452  10.889
25667SOL     OW78897   6.909  14.378   7.041
25667SOL    HW178898   6.917  14.311   7.109
25667SOL    HW278899   6.938  14.459   7.083
25668SOL     OW78900   5.951   2.742   4.198
25668SOL    HW178901   5.979   2.682   4.267
25668SOL    HW278902   6.030   2.791   4.175
25669SOL     OW78903  10.348  11.952   0.106
25669SOL    HW178904  10.420  11.922   0.162
25669SOL    HW278905  10.317  11.874   0.061
25670SOL     OW78906   9.521   3.768   5.677
25670SOL    HW178907   9.543   3.790   5.768
25670SOL    HW278908   9.449   3.706   5.685
25671SOL     OW78909   7.360   1.502   7.455
25671SOL    HW178910   7.371   1.427   7.513
25671SOL    HW278911   7.284   1.479   7.401
25672SOL     OW78912   4.537   8.166   7.159
25672SOL    HW178913   4.522   8.098   7.225
25672SOL    HW278914   4.453   8.174   7.115
25673SOL     OW78915   8.884  13.656   5.565
25673SOL    HW178916   8.969  13.649   5.608
25673SOL    HW278917   8.840  13.727   5.612
25674SOL     OW78918   0.834   7.501  10.705
25674SOL    HW178919   0.898   7.572  10.713
25674SOL    HW278920   0.887   7.422  10.695
25675SOL     OW78921  12.129  10.409   0.991
25675SOL    HW178922  12.218  10.378   1.007
25675SOL    HW278923  12.107  10.462   1.067
25676SOL     OW78924   6.049   8.132   2.848
25676SOL    HW178925   6.079   8.082   2.924
25676SOL    HW278926   5.993   8.200   2.884
25677SOL     OW78927  13.139  13.416  13.097
25677SOL    HW178928  13.165  13.369  13.017
25677SOL    HW278929  13.148  13.509  13.074
25678SOL     OW78930   0.641   1.988  13.926
25678SOL    HW178931   0.731   2.015  13.912
25678SOL    HW278932   0.638   1.960  14.018
25679SOL     OW78933   5.624   9.171  12.817
25679SOL    HW178934   5.613   9.168  12.722
25679SOL    HW278935   5.669   9.254  12.833
25680SOL     OW78936  11.309   0.329   6.769
25680SOL    HW178937  11.370   0.260   6.744
25680SOL    HW278938  11.352   0.375   6.840
25681SOL     OW78939   7.913  13.144  13.462
25681SOL    HW178940   7.914  13.238  13.480
25681SOL    HW278941   7.967  13.106  13.531
25682SOL     OW78942   0.215   5.689   3.039
25682SOL    HW178943   0.157   5.667   2.966
25682SOL    HW278944   0.257   5.606   3.062
25683SOL     OW78945   2.376   0.738   9.043
25683SOL    HW178946   2.298   0.731   8.987
25683SOL    HW278947   2.439   0.677   9.004
25684SOL     OW78948  10.948   2.637  10.329
25684SOL    HW178949  10.916   2.718  10.289
25684SOL    HW278950  11.042   2.637  10.313
25685SOL     OW78951  14.335  14.304   7.607
25685SOL    HW178952  14.392  14.229   7.623
25685SOL    HW278953  14.248  14.265   7.594
25686SOL     OW78954   9.674   4.203  13.338
25686SOL    HW178955   9.688   4.293  13.308
25686SOL    HW278956   9.609   4.211  13.408
25687SOL     OW78957   4.906   7.480  11.985
25687SOL    HW178958   4.928   7.446  11.898
25687SOL    HW278959   4.878   7.570  11.969
25688SOL     OW78960   7.538   1.741  13.418
25688SOL    HW178961   7.468   1.678  13.437
25688SOL    HW278962   7.521   1.813  13.479
25689SOL     OW78963  10.157   5.237   1.324
25689SOL    HW178964  10.137   5.205   1.412
25689SOL    HW278965  10.249   5.266   1.330
25690SOL     OW78966  10.891   2.498  13.403
25690SOL    HW178967  10.943   2.419  13.415
25690SOL    HW278968  10.802   2.467  13.385
25691SOL     OW78969   1.476   3.620   3.035
25691SOL    HW178970   1.413   3.577   2.977
25691SOL    HW278971   1.435   3.616   3.121
25692SOL     OW78972   5.846   5.379  13.526
25692SOL    HW178973   5.913   5.393  13.593
25692SOL    HW278974   5.794   5.307  13.560
25693SOL     OW78975   2.550   7.220   9.552
25693SOL    HW178976   2.637   7.196   9.518
25693SOL    HW278977   2.522   7.144   9.603
25694SOL     OW78978   4.366  10.134   3.730
25694SOL    HW178979   4.391  10.060   3.785
25694SOL    HW278980   4.318  10.192   3.790
25695SOL     OW78981   1.875   9.846   9.753
25695SOL    HW178982   1.964   9.846   9.718
25695SOL    HW278983   1.874   9.917   9.817
25696SOL     OW78984   1.845  11.324   4.238
25696SOL    HW178985   1.753  11.298   4.225
25696SOL    HW278986   1.840  11.411   4.277
25697SOL     OW78987   3.695  11.778   7.744
25697SOL    HW178988   3.773  11.724   7.732
25697SOL    HW278989   3.677  11.773   7.838
25698SOL     OW78990   0.900  13.975   8.461
25698SOL    HW178991   0.826  14.025   8.429
25698SOL    HW278992   0.862  13.913   8.524
25699SOL     OW78993   1.123   9.094   5.236
25699SOL    HW178994   1.073   9.074   5.315
25699SOL    HW278995   1.211   9.062   5.255
25700SOL     OW78996   1.219   0.095  12.971
25700SOL    HW178997   1.199   0.042  12.894
25700SOL    HW278998   1.293   0.149  12.944
25701SOL     OW78999   8.280   8.750  14.531
25701SOL    HW179000   8.217   8.737  14.460
25701SOL    HW279001   8.236   8.718  14.609
25702SOL     OW79002  11.359  14.020   5.139
25702SOL    HW179003  11.361  13.956   5.068
25702SOL    HW279004  11.268  14.051   5.140
25703SOL     OW79005  14.738  10.794   4.157
25703SOL    HW179006  14.818  10.804   4.208
25703SOL    HW279007  14.729  10.876   4.109
25704SOL     OW79008   0.186  14.022   1.298
25704SOL    HW179009   0.197  14.092   1.233
25704SOL    HW279010   0.201  14.066   1.382
25705SOL     OW79011   7.892  13.485   9.399
25705SOL    HW179012   7.879  13.571   9.359
25705SOL    HW279013   7.883  13.500   9.493
25706SOL     OW79014   3.877   0.786   3.399
25706SOL    HW179015   3.817   0.857   3.421
25706SOL    HW279016   3.823   0.707   3.400
25707SOL     OW79017   7.385   3.629   3.621
25707SOL    HW179018   7.340   3.545   3.624
25707SOL    HW279019   7.478   3.608   3.628
25708SOL     OW79020  11.019   8.431  12.512
25708SOL    HW179021  10.944   8.375  12.531
25708SOL    HW279022  11.018   8.497  12.581
25709SOL     OW79023   0.716   8.390   7.164
25709SOL    HW179024   0.692   8.338   7.087
25709SOL    HW279025   0.693   8.480   7.140
25710SOL     OW79026   9.624   6.398   5.153
25710SOL    HW179027   9.584   6.422   5.236
25710SOL    HW279028   9.694   6.337   5.177
25711SOL     OW79029   7.580   2.835  12.096
25711SOL    HW179030   7.487   2.832  12.074
25711SOL    HW279031   7.599   2.928  12.107
25712SOL     OW79032  10.958   6.887  13.597
25712SOL    HW179033  10.968   6.861  13.505
25712SOL    HW279034  10.867   6.867  13.618
25713SOL     OW79035  10.197   3.112   2.321
25713SOL    HW179036  10.197   3.139   2.413
25713SOL    HW279037  10.201   3.194   2.273
25714SOL     OW79038   9.693  12.953   1.541
25714SOL    HW179039   9.704  12.926   1.450
25714SOL    HW279040   9.750  13.028   1.552
25715SOL     OW79041   7.189   4.698   0.479
25715SOL    HW179042   7.110   4.723   0.431
25715SOL    HW279043   7.231   4.632   0.423
25716SOL     OW79044   9.337   5.763   9.535
25716SOL    HW179045   9.388   5.717   9.602
25716SOL    HW279046   9.394   5.835   9.507
25717SOL     OW79047   9.667   5.771   6.610
25717SOL    HW179048   9.628   5.708   6.672
25717SOL    HW279049   9.686   5.719   6.532
25718SOL     OW79050  14.418   6.441   2.769
25718SOL    HW179051  14.457   6.528   2.783
25718SOL    HW279052  14.371   6.423   2.850
25719SOL     OW79053   7.374   6.896   3.160
25719SOL    HW179054   7.305   6.859   3.105
25719SOL    HW279055   7.347   6.877   3.250
25720SOL     OW79056  14.404   0.113   5.790
25720SOL    HW179057  14.413   0.044   5.724
25720SOL    HW279058  14.484   0.109   5.841
25721SOL     OW79059   8.589   5.895  12.097
25721SOL    HW179060   8.503   5.885  12.055
25721SOL    HW279061   8.648   5.916  12.024
25722SOL     OW79062   6.296   7.138   8.077
25722SOL    HW179063   6.269   7.178   7.994
25722SOL    HW279064   6.341   7.209   8.124
25723SOL     OW79065   0.230  12.817   5.027
25723SOL    HW179066   0.232  12.764   4.947
25723SOL    HW279067   0.236  12.908   4.996
25724SOL     OW79068   9.855   1.001  13.097
25724SOL    HW179069   9.828   1.038  13.013
25724SOL    HW279070   9.933   0.949  13.076
25725SOL     OW79071   9.970  10.738   5.884
25725SOL    HW179072  10.058  10.737   5.923
25725SOL    HW279073   9.911  10.748   5.959
25726SOL     OW79074   2.661  10.453   4.868
25726SOL    HW179075   2.712  10.534   4.866
25726SOL    HW279076   2.636  10.438   4.777
25727SOL     OW79077   0.307  11.702  10.740
25727SOL    HW179078   0.343  11.625  10.695
25727SOL    HW279079   0.374  11.726  10.804
25728SOL     OW79080  10.137   2.646  13.281
25728SOL    HW179081  10.118   2.708  13.351
25728SOL    HW279082  10.067   2.659  13.217
25729SOL     OW79083   1.827   1.418   6.338
25729SOL    HW179084   1.824   1.472   6.417
25729SOL    HW279085   1.821   1.328   6.370
25730SOL     OW79086   5.147  14.617  13.079
25730SOL    HW179087   5.071  14.672  13.063
25730SOL    HW279088   5.214  14.650  13.019
25731SOL     OW79089   3.157   4.762  13.404
25731SOL    HW179090   3.098   4.830  13.438
25731SOL    HW279091   3.245   4.798  13.414
25732SOL     OW79092   0.771   1.396  13.267
25732SOL    HW179093   0.824   1.396  13.347
25732SOL    HW279094   0.682   1.378  13.298
25733SOL     OW79095  14.653   4.756   4.220
25733SOL    HW179096  14.731   4.713   4.257
25733SOL    HW279097  14.614   4.690   4.163
25734SOL     OW79098   9.864   1.796  10.075
25734SOL    HW179099   9.850   1.889  10.090
25734SOL    HW279100   9.959   1.786  10.070
25735SOL     OW79101  13.048   0.825  12.719
25735SOL    HW179102  12.967   0.774  12.729
25735SOL    HW279103  13.092   0.786  12.644
25736SOL     OW79104   6.536  10.294  12.651
25736SOL    HW179105   6.540  10.215  12.596
25736SOL    HW279106   6.619  10.295  12.698
25737SOL     OW79107   2.073   8.934   1.584
25737SOL    HW179108   2.044   8.910   1.496
25737SOL    HW279109   2.086   9.029   1.580
25738SOL     OW79110  11.571   3.960   6.960
25738SOL    HW179111  11.485   3.922   6.977
25738SOL    HW279112  11.555   4.055   6.959
25739SOL     OW79113  13.766   4.806   0.020
25739SOL    HW179114  13.792   4.715   0.006
25739SOL    HW279115  13.815   4.834   0.097
25740SOL     OW79116   3.187   4.847  13.778
25740SOL    HW179117   3.207   4.920  13.719
25740SOL    HW279118   3.273   4.816  13.807
25741SOL     OW79119   8.712   6.407   8.254
25741SOL    HW179120   8.747   6.446   8.173
25741SOL    HW279121   8.733   6.314   8.247
25742SOL     OW79122   1.549   5.560  10.668
25742SOL    HW179123   1.596   5.478  10.653
25742SOL    HW279124   1.488   5.540  10.740
25743SOL     OW79125   4.420  13.572   3.766
25743SOL    HW179126   4.462  13.577   3.852
25743SOL    HW279127   4.493  13.579   3.704
25744SOL     OW79128   5.830   3.203   5.760
25744SOL    HW179129   5.832   3.120   5.808
25744SOL    HW279130   5.911   3.247   5.786
25745SOL     OW79131   5.406  10.922   5.250
25745SOL    HW179132   5.359  10.893   5.172
25745SOL    HW279133   5.437  11.010   5.229
25746SOL     OW79134  14.303   7.219   8.894
25746SOL    HW179135  14.296   7.125   8.874
25746SOL    HW279136  14.275   7.262   8.813
25747SOL     OW79137   6.129  11.238   9.694
25747SOL    HW179138   6.146  11.314   9.639
25747SOL    HW279139   6.036  11.218   9.679
25748SOL     OW79140  10.445   6.286   1.437
25748SOL    HW179141  10.354   6.270   1.462
25748SOL    HW279142  10.491   6.299   1.520
25749SOL     OW79143   7.929   6.834   1.732
25749SOL    HW179144   8.019   6.801   1.726
25749SOL    HW279145   7.934   6.906   1.794
25750SOL     OW79146   2.161   4.830  12.604
25750SOL    HW179147   2.202   4.809  12.520
25750SOL    HW279148   2.223   4.798  12.670
25751SOL     OW79149   5.654  11.072   3.014
25751SOL    HW179150   5.630  11.164   3.000
25751SOL    HW279151   5.749  11.070   3.003
25752SOL     OW79152   2.634   9.934  14.081
25752SOL    HW179153   2.654   9.908  14.171
25752SOL    HW279154   2.599  10.023  14.089
25753SOL     OW79155   6.772  12.875   1.219
25753SOL    HW179156   6.697  12.845   1.270
25753SOL    HW279157   6.743  12.870   1.128
25754SOL     OW79158   0.572   4.146  11.547
25754SOL    HW179159   0.525   4.117  11.469
25754SOL    HW279160   0.507   4.144  11.617
25755SOL     OW79161  10.541   4.466   2.431
25755SOL    HW179162  10.594   4.412   2.490
25755SOL    HW279163  10.488   4.404   2.381
25756SOL     OW79164   1.805  13.845   4.712
25756SOL    HW179165   1.722  13.876   4.676
25756SOL    HW279166   1.784  13.761   4.752
25757SOL     OW79167  10.292   5.477   6.546
25757SOL    HW179168  10.387   5.473   6.547
25757SOL    HW279169  10.267   5.482   6.639
25758SOL     OW79170   9.996  14.143  11.546
25758SOL    HW179171  10.066  14.099  11.594
25758SOL    HW279172  10.038  14.219  11.506
25759SOL     OW79173   2.807  11.747  12.484
25759SOL    HW179174   2.813  11.653  12.465
25759SOL    HW279175   2.769  11.785  12.405
25760SOL     OW79176   3.374   5.723   5.680
25760SOL    HW179177   3.406   5.690   5.764
25760SOL    HW279178   3.415   5.808   5.670
25761SOL     OW79179   0.040  12.436   2.597
25761SOL    HW179180   0.060  12.345   2.620
25761SOL    HW279181  14.843  12.458   2.650
25762SOL     OW79182   0.138  13.017   0.417
25762SOL    HW179183   0.069  13.016   0.483
25762SOL    HW279184   0.138  12.929   0.381
25763SOL     OW79185  14.701   1.546   2.406
25763SOL    HW179186  14.628   1.607   2.417
25763SOL    HW279187  14.688   1.480   2.474
25764SOL     OW79188   6.519   6.155   3.976
25764SOL    HW179189   6.573   6.181   4.050
25764SOL    HW279190   6.524   6.229   3.916
25765SOL     OW79191   8.556   4.256   5.062
25765SOL    HW179192   8.521   4.344   5.075
25765SOL    HW279193   8.514   4.226   4.981
25766SOL     OW79194   2.327   3.822   8.276
25766SOL    HW179195   2.418   3.832   8.303
25766SOL    HW279196   2.278   3.813   8.357
25767SOL     OW79197   4.617  12.193   5.145
25767SOL    HW179198   4.617  12.110   5.097
25767SOL    HW279199   4.654  12.172   5.230
25768SOL     OW79200   4.301   6.507   9.267
25768SOL    HW179201   4.302   6.598   9.295
25768SOL    HW279202   4.250   6.508   9.186
25769SOL     OW79203  10.924   5.300   3.864
25769SOL    HW179204  10.886   5.228   3.814
25769SOL    HW279205  10.923   5.374   3.803
25770SOL     OW79206   9.767   9.920   5.534
25770SOL    HW179207   9.695   9.978   5.556
25770SOL    HW279208   9.745   9.888   5.446
25771SOL     OW79209   6.292   2.744   6.440
25771SOL    HW179210   6.200   2.767   6.447
25771SOL    HW279211   6.328   2.806   6.377
25772SOL     OW79212  13.475  10.115  11.459
25772SOL    HW179213  13.436  10.079  11.539
25772SOL    HW279214  13.434  10.065  11.388
25773SOL     OW79215   2.506   2.532   7.174
25773SOL    HW179216   2.525   2.621   7.144
25773SOL    HW279217   2.431   2.542   7.232
25774SOL     OW79218  13.479   8.288   9.000
25774SOL    HW179219  13.391   8.313   8.972
25774SOL    HW279220  13.505   8.218   8.939
25775SOL     OW79221   4.038   5.295   6.789
25775SOL    HW179222   3.954   5.309   6.832
25775SOL    HW279223   4.087   5.239   6.850
25776SOL     OW79224   0.962   7.303   2.299
25776SOL    HW179225   0.913   7.271   2.223
25776SOL    HW279226   0.981   7.395   2.279
25777SOL     OW79227   1.429   4.944  11.834
25777SOL    HW179228   1.512   4.912  11.797
25777SOL    HW279229   1.453   4.978  11.920
25778SOL     OW79230  10.514   1.873  10.504
25778SOL    HW179231  10.465   1.816  10.444
25778SOL    HW279232  10.446   1.928  10.545
25779SOL     OW79233   9.637  12.672   7.806
25779SOL    HW179234   9.678  12.588   7.784
25779SOL    HW279235   9.640  12.722   7.724
25780SOL     OW79236  13.927   2.782   0.630
25780SOL    HW179237  13.926   2.722   0.555
25780SOL    HW279238  13.893   2.865   0.594
25781SOL     OW79239   5.891   7.353  10.942
25781SOL    HW179240   5.848   7.347  11.027
25781SOL    HW279241   5.887   7.264  10.906
25782SOL     OW79242   3.413  13.095   4.793
25782SOL    HW179243   3.438  13.106   4.702
25782SOL    HW279244   3.354  13.168   4.811
25783SOL     OW79245   3.217   8.024  11.487
25783SOL    HW179246   3.186   7.938  11.514
25783SOL    HW279247   3.156   8.051  11.418
25784SOL     OW79248   3.777  14.188   5.623
25784SOL    HW179249   3.873  14.187   5.628
25784SOL    HW279250   3.753  14.096   5.621
25785SOL     OW79251   3.872   4.637   1.063
25785SOL    HW179252   3.790   4.613   1.021
25785SOL    HW279253   3.860   4.614   1.155
25786SOL     OW79254   2.499   4.704  12.344
25786SOL    HW179255   2.556   4.764  12.296
25786SOL    HW279256   2.554   4.668  12.414
25787SOL     OW79257   4.108   5.617   9.602
25787SOL    HW179258   4.139   5.693   9.651
25787SOL    HW279259   4.161   5.617   9.522
25788SOL     OW79260  11.215  13.755   9.236
25788SOL    HW179261  11.222  13.663   9.211
25788SOL    HW279262  11.296  13.773   9.284
25789SOL     OW79263   3.503  14.326   6.626
25789SOL    HW179264   3.532  14.280   6.548
25789SOL    HW279265   3.454  14.261   6.676
25790SOL     OW79266   6.018   1.643   9.073
25790SOL    HW179267   5.984   1.723   9.031
25790SOL    HW279268   6.111   1.662   9.088
25791SOL     OW79269   2.589   7.042  10.493
25791SOL    HW179270   2.504   7.001  10.509
25791SOL    HW279271   2.653   6.978  10.523
25792SOL     OW79272   9.568  11.281   9.121
25792SOL    HW179273   9.522  11.229   9.055
25792SOL    HW279274   9.629  11.219   9.161
25793SOL     OW79275   1.528   1.033   8.471
25793SOL    HW179276   1.610   1.082   8.465
25793SOL    HW279277   1.531   0.973   8.397
25794SOL     OW79278   7.035  11.105   4.110
25794SOL    HW179279   7.021  11.198   4.128
25794SOL    HW279280   7.127  11.090   4.132
25795SOL     OW79281  12.831  13.509  12.784
25795SOL    HW179282  12.804  13.594  12.748
25795SOL    HW279283  12.883  13.469  12.714
25796SOL     OW79284   7.816  10.377   5.248
25796SOL    HW179285   7.885  10.347   5.188
25796SOL    HW279286   7.808  10.471   5.231
25797SOL     OW79287  12.692  12.185   2.367
25797SOL    HW179288  12.723  12.094   2.371
25797SOL    HW279289  12.751  12.232   2.426
25798SOL     OW79290  11.506   1.001   0.274
25798SOL    HW179291  11.434   0.950   0.310
25798SOL    HW279292  11.520   0.964   0.187
25799SOL     OW79293   5.749  12.928  14.862
25799SOL    HW179294   5.814  12.925  14.792
25799SOL    HW279295   5.696  12.850  14.848
25800SOL     OW79296  12.861   7.541   2.864
25800SOL    HW179297  12.769   7.515   2.867
25800SOL    HW279298  12.888   7.521   2.774
25801SOL     OW79299   4.354   2.419   0.069
25801SOL    HW179300   4.402   2.493   0.032
25801SOL    HW279301   4.420   2.352   0.083
25802SOL     OW79302  14.116  13.763  11.317
25802SOL    HW179303  14.173  13.838  11.337
25802SOL    HW279304  14.177  13.694  11.290
25803SOL     OW79305  10.692   5.231  12.962
25803SOL    HW179306  10.679   5.326  12.961
25803SOL    HW279307  10.640   5.199  12.888
25804SOL     OW79308   5.931  11.711   0.206
25804SOL    HW179309   5.905  11.755   0.125
25804SOL    HW279310   5.991  11.642   0.177
25805SOL     OW79311  13.926   4.189   4.964
25805SOL    HW179312  14.007   4.231   4.993
25805SOL    HW279313  13.922   4.207   4.870
25806SOL     OW79314   7.907   2.026   0.294
25806SOL    HW179315   7.849   2.033   0.218
25806SOL    HW279316   7.849   2.038   0.370
25807SOL     OW79317   6.532   8.538  12.360
25807SOL    HW179318   6.490   8.618  12.390
25807SOL    HW279319   6.612   8.567  12.317
25808SOL     OW79320   5.403   9.811   7.217
25808SOL    HW179321   5.436   9.893   7.179
25808SOL    HW279322   5.472   9.747   7.198
25809SOL     OW79323  11.315   4.090  10.608
25809SOL    HW179324  11.353   4.020  10.554
25809SOL    HW279325  11.303   4.049  10.694
25810SOL     OW79326   9.280   3.722   7.709
25810SOL    HW179327   9.340   3.704   7.637
25810SOL    HW279328   9.196   3.686   7.679
25811SOL     OW79329  10.341   7.746  13.314
25811SOL    HW179330  10.300   7.826  13.347
25811SOL    HW279331  10.275   7.707  13.257
25812SOL     OW79332  11.898  12.159  10.839
25812SOL    HW179333  11.836  12.168  10.767
25812SOL    HW279334  11.872  12.077  10.883
25813SOL     OW79335   4.696  13.258  14.168
25813SOL    HW179336   4.623  13.244  14.228
25813SOL    HW279337   4.773  13.233  14.218
25814SOL     OW79338   4.543   1.363   4.819
25814SOL    HW179339   4.631   1.349   4.785
25814SOL    HW279340   4.547   1.449   4.862
25815SOL     OW79341   2.532   9.350   1.346
25815SOL    HW179342   2.581   9.269   1.332
25815SOL    HW279343   2.474   9.331   1.419
25816SOL     OW79344  14.238   4.585   8.363
25816SOL    HW179345  14.153   4.625   8.345
25816SOL    HW279346  14.276   4.570   8.276
25817SOL     OW79347   5.666  10.241   4.269
25817SOL    HW179348   5.629  10.215   4.353
25817SOL    HW279349   5.656  10.164   4.213
25818SOL     OW79350   0.707   6.094  10.770
25818SOL    HW179351   0.768   6.163  10.744
25818SOL    HW279352   0.709   6.094  10.865
25819SOL     OW79353  14.809   6.023   4.553
25819SOL    HW179354  14.790   5.929   4.547
25819SOL    HW279355  14.790   6.057   4.466
25820SOL     OW79356   3.844   4.554  10.243
25820SOL    HW179357   3.851   4.640  10.201
25820SOL    HW279358   3.755   4.552  10.278
25821SOL     OW79359  12.961  11.116   2.297
25821SOL    HW179360  12.928  11.170   2.369
25821SOL    HW279361  12.911  11.146   2.220
25822SOL     OW79362  10.593  13.984   3.234
25822SOL    HW179363  10.505  14.020   3.222
25822SOL    HW279364  10.644  14.023   3.162
25823SOL     OW79365   0.880   3.792   1.613
25823SOL    HW179366   0.943   3.823   1.548
25823SOL    HW279367   0.929   3.792   1.696
25824SOL     OW79368  10.111  10.037  10.953
25824SOL    HW179369  10.071   9.950  10.962
25824SOL    HW279370  10.104  10.057  10.859
25825SOL     OW79371   0.577  14.857   2.167
25825SOL    HW179372   0.539  14.800   2.100
25825SOL    HW279373   0.600  14.797   2.239
25826SOL     OW79374   2.086   6.277   5.603
25826SOL    HW179375   2.058   6.194   5.563
25826SOL    HW279376   2.144   6.317   5.538
25827SOL     OW79377  14.057   1.899   5.684
25827SOL    HW179378  13.969   1.881   5.650
25827SOL    HW279379  14.116   1.859   5.621
25828SOL     OW79380   0.752   6.913   4.747
25828SOL    HW179381   0.829   6.965   4.770
25828SOL    HW279382   0.754   6.839   4.807
25829SOL     OW79383  13.030   1.570   0.352
25829SOL    HW179384  13.119   1.550   0.378
25829SOL    HW279385  12.997   1.629   0.420
25830SOL     OW79386   0.710   9.627   4.297
25830SOL    HW179387   0.671   9.714   4.289
25830SOL    HW279388   0.792   9.632   4.248
25831SOL     OW79389   5.243   0.765  12.980
25831SOL    HW179390   5.338   0.776  12.981
25831SOL    HW279391   5.214   0.802  13.064
25832SOL     OW79392   6.102   6.657   4.345
25832SOL    HW179393   6.169   6.603   4.304
25832SOL    HW279394   6.148   6.736   4.373
25833SOL     OW79395   7.578  13.894   0.086
25833SOL    HW179396   7.520  13.970   0.090
25833SOL    HW279397   7.662  13.926   0.119
25834SOL     OW79398  14.783   5.751   3.682
25834SOL    HW179399  14.858   5.754   3.623
25834SOL    HW279400  14.821   5.738   3.769
25835SOL     OW79401   5.695   1.500  13.066
25835SOL    HW179402   5.659   1.463  12.986
25835SOL    HW279403   5.655   1.587  13.073
25836SOL     OW79404   7.004   8.050   0.293
25836SOL    HW179405   6.987   8.127   0.240
25836SOL    HW279406   6.918   8.024   0.325
25837SOL     OW79407  13.271   7.375   9.122
25837SOL    HW179408  13.216   7.445   9.156
25837SOL    HW279409  13.227   7.294   9.148
25838SOL     OW79410   9.206   2.321  13.118
25838SOL    HW179411   9.227   2.281  13.202
25838SOL    HW279412   9.135   2.267  13.082
25839SOL     OW79413   8.182   0.068   4.184
25839SOL    HW179414   8.276   0.050   4.193
25839SOL    HW279415   8.153   0.088   4.272
25840SOL     OW79416  12.856  14.243   0.170
25840SOL    HW179417  12.829  14.284   0.087
25840SOL    HW279418  12.946  14.272   0.182
25841SOL     OW79419   4.802   3.853  13.088
25841SOL    HW179420   4.815   3.946  13.072
25841SOL    HW279421   4.707   3.841  13.082
25842SOL     OW79422  11.209   6.491   0.340
25842SOL    HW179423  11.168   6.559   0.288
25842SOL    HW279424  11.247   6.431   0.276
25843SOL     OW79425   8.513   8.020   4.843
25843SOL    HW179426   8.591   7.978   4.877
25843SOL    HW279427   8.498   7.979   4.758
25844SOL     OW79428  12.808   1.400  12.525
25844SOL    HW179429  12.831   1.333  12.461
25844SOL    HW279430  12.815   1.356  12.610
25845SOL     OW79431   3.358  14.853   9.150
25845SOL    HW179432   3.349   0.066   9.174
25845SOL    HW279433   3.268  14.822   9.142
25846SOL     OW79434  14.669   6.022  13.596
25846SOL    HW179435  14.698   5.945  13.645
25846SOL    HW279436  14.746   6.050  13.548
25847SOL     OW79437   8.039   9.948  12.796
25847SOL    HW179438   8.017   9.981  12.709
25847SOL    HW279439   8.126   9.982  12.814
25848SOL     OW79440   4.267   6.939  11.600
25848SOL    HW179441   4.309   7.011  11.648
25848SOL    HW279442   4.321   6.863  11.621
25849SOL     OW79443   1.604   7.229   6.170
25849SOL    HW179444   1.675   7.288   6.194
25849SOL    HW279445   1.538   7.241   6.238
25850SOL     OW79446   5.150   3.026  13.606
25850SOL    HW179447   5.126   3.007  13.697
25850SOL    HW279448   5.246   3.026  13.607
25851SOL     OW79449   9.066  14.431   8.602
25851SOL    HW179450   9.136  14.442   8.666
25851SOL    HW279451   8.993  14.482   8.636
25852SOL     OW79452  13.682   7.032   9.146
25852SOL    HW179453  13.737   7.072   9.079
25852SOL    HW279454  13.602   7.006   9.100
25853SOL     OW79455   0.562   5.950   6.885
25853SOL    HW179456   0.538   5.889   6.955
25853SOL    HW279457   0.601   5.895   6.818
25854SOL     OW79458  10.909   3.577  14.207
25854SOL    HW179459  10.815   3.577  14.223
25854SOL    HW279460  10.936   3.668  14.220
25855SOL     OW79461   5.167   0.264   1.991
25855SOL    HW179462   5.210   0.282   1.908
25855SOL    HW279463   5.136   0.349   2.022
25856SOL     OW79464   6.054   5.650   0.960
25856SOL    HW179465   6.089   5.648   1.049
25856SOL    HW279466   6.088   5.731   0.923
25857SOL     OW79467   9.679   3.388   9.849
25857SOL    HW179468   9.625   3.462   9.820
25857SOL    HW279469   9.750   3.384   9.785
25858SOL     OW79470   5.968  13.900   8.981
25858SOL    HW179471   5.971  13.918   8.887
25858SOL    HW279472   5.992  13.808   8.990
25859SOL     OW79473   9.095   7.389  13.113
25859SOL    HW179474   9.161   7.459  13.111
25859SOL    HW279475   9.054   7.392  13.027
25860SOL     OW79476   4.120  14.143   2.069
25860SOL    HW179477   4.170  14.168   1.992
25860SOL    HW279478   4.183  14.148   2.141
25861SOL     OW79479  12.410   2.473  10.887
25861SOL    HW179480  12.401   2.499  10.978
25861SOL    HW279481  12.375   2.384  10.883
25862SOL     OW79482  12.754   5.663  13.480
25862SOL    HW179483  12.719   5.605  13.549
25862SOL    HW279484  12.677   5.703  13.441
25863SOL     OW79485   6.279   0.780   6.280
25863SOL    HW179486   6.279   0.706   6.340
25863SOL    HW279487   6.187   0.798   6.263
25864SOL     OW79488   8.989  11.794  10.757
25864SOL    HW179489   8.984  11.714  10.705
25864SOL    HW279490   8.921  11.784  10.824
25865SOL     OW79491   4.484  12.659  11.871
25865SOL    HW179492   4.505  12.741  11.827
25865SOL    HW279493   4.405  12.628  11.828
25866SOL     OW79494   1.614  10.446   8.265
25866SOL    HW179495   1.584  10.498   8.191
25866SOL    HW279496   1.567  10.363   8.257
25867SOL     OW79497   9.333  10.299  12.659
25867SOL    HW179498   9.294  10.346  12.585
25867SOL    HW279499   9.426  10.296  12.638
25868SOL     OW79500  11.371   5.290  10.689
25868SOL    HW179501  11.387   5.381  10.715
25868SOL    HW279502  11.330   5.297  10.602
25869SOL     OW79503  10.626   3.702   0.651
25869SOL    HW179504  10.677   3.635   0.605
25869SOL    HW279505  10.569   3.652   0.710
25870SOL     OW79506  12.681  12.430   7.981
25870SOL    HW179507  12.720  12.386   7.905
25870SOL    HW279508  12.612  12.370   8.010
25871SOL     OW79509   8.189  14.040   4.761
25871SOL    HW179510   8.145  14.036   4.846
25871SOL    HW279511   8.177  14.132   4.734
25872SOL     OW79512   7.328   8.872   6.774
25872SOL    HW179513   7.291   8.957   6.749
25872SOL    HW279514   7.284   8.850   6.856
25873SOL     OW79515   4.118   0.155  12.528
25873SOL    HW179516   4.104   0.182  12.438
25873SOL    HW279517   4.187   0.088  12.524
25874SOL     OW79518   8.447  13.163   7.440
25874SOL    HW179519   8.460  13.238   7.498
25874SOL    HW279520   8.465  13.197   7.353
25875SOL     OW79521  13.070  10.298   3.329
25875SOL    HW179522  13.151  10.255   3.301
25875SOL    HW279523  13.020  10.308   3.248
25876SOL     OW79524   8.075   2.485   5.970
25876SOL    HW179525   8.104   2.576   5.968
25876SOL    HW279526   8.032   2.475   6.054
25877SOL     OW79527   9.791  13.668   2.479
25877SOL    HW179528   9.877  13.701   2.453
25877SOL    HW279529   9.747  13.647   2.397
25878SOL     OW79530   6.387   7.548   3.530
25878SOL    HW179531   6.307   7.496   3.525
25878SOL    HW279532   6.406   7.570   3.438
25879SOL     OW79533  13.731   0.664   3.454
25879SOL    HW179534  13.809   0.690   3.502
25879SOL    HW279535  13.702   0.583   3.496
25880SOL     OW79536   3.478  13.932  10.698
25880SOL    HW179537   3.490  13.916  10.791
25880SOL    HW279538   3.417  13.864  10.670
25881SOL     OW79539   2.549   5.208   6.235
25881SOL    HW179540   2.616   5.143   6.258
25881SOL    HW279541   2.505   5.171   6.159
25882SOL     OW79542   1.770   2.490   8.788
25882SOL    HW179543   1.732   2.557   8.732
25882SOL    HW279544   1.864   2.507   8.786
25883SOL     OW79545   5.884  11.473   0.034
25883SOL    HW179546   5.793  11.445   0.027
25883SOL    HW279547   5.900  11.524  14.835
25884SOL     OW79548   8.503  12.745  10.210
25884SOL    HW179549   8.587  12.702  10.196
25884SOL    HW279550   8.524  12.822  10.264
25885SOL     OW79551   6.669   0.889  10.971
25885SOL    HW179552   6.595   0.928  10.925
25885SOL    HW279553   6.682   0.944  11.048
25886SOL     OW79554  14.308  10.635   2.729
25886SOL    HW179555  14.315  10.695   2.654
25886SOL    HW279556  14.347  10.683   2.802
25887SOL     OW79557   2.884  14.171  13.873
25887SOL    HW179558   2.964  14.223  13.876
25887SOL    HW279559   2.908  14.087  13.913
25888SOL     OW79560   3.290   5.077   5.713
25888SOL    HW179561   3.292   5.078   5.617
25888SOL    HW279562   3.344   5.152   5.738
25889SOL     OW79563  14.720  10.776   0.459
25889SOL    HW179564  14.788  10.763   0.525
25889SOL    HW279565  14.727  10.868   0.436
25890SOL     OW79566   6.016   4.747   3.755
25890SOL    HW179567   6.094   4.707   3.717
25890SOL    HW279568   6.045   4.781   3.840
25891SOL     OW79569  13.337   5.269   5.648
25891SOL    HW179570  13.281   5.286   5.724
25891SOL    HW279571  13.406   5.335   5.654
25892SOL     OW79572  14.579   2.375   8.254
25892SOL    HW179573  14.665   2.414   8.269
25892SOL    HW279574  14.541   2.367   8.342
25893SOL     OW79575   6.858  13.264  12.196
25893SOL    HW179576   6.912  13.342  12.184
25893SOL    HW279577   6.768  13.293  12.180
25894SOL     OW79578   0.255   2.235   4.174
25894SOL    HW179579   0.182   2.220   4.114
25894SOL    HW279580   0.298   2.313   4.141
25895SOL     OW79581   9.556   8.640  11.251
25895SOL    HW179582   9.508   8.709  11.205
25895SOL    HW279583   9.629   8.686  11.292
25896SOL     OW79584   7.140   8.296   5.921
25896SOL    HW179585   7.228   8.284   5.886
25896SOL    HW279586   7.140   8.385   5.957
25897SOL     OW79587   3.065  12.581   2.949
25897SOL    HW179588   3.048  12.492   2.918
25897SOL    HW279589   3.000  12.595   3.018
25898SOL     OW79590   3.763   6.950   1.874
25898SOL    HW179591   3.808   6.916   1.796
25898SOL    HW279592   3.707   7.020   1.842
25899SOL     OW79593  11.962   0.478   2.629
25899SOL    HW179594  11.954   0.563   2.587
25899SOL    HW279595  11.967   0.416   2.556
25900SOL     OW79596  12.152   8.837  12.328
25900SOL    HW179597  12.127   8.910  12.272
25900SOL    HW279598  12.104   8.761  12.293
25901SOL     OW79599  13.429   9.609  11.523
25901SOL    HW179600  13.512   9.652  11.541
25901SOL    HW279601  13.393   9.655  11.447
25902SOL     OW79602  12.876  10.130   5.835
25902SOL    HW179603  12.812  10.201   5.829
25902SOL    HW279604  12.932  10.154   5.909
25903SOL     OW79605   3.166   9.029  14.538
25903SOL    HW179606   3.171   9.112  14.491
25903SOL    HW279607   3.180   9.052  14.630
25904SOL     OW79608  10.638   7.179  12.687
25904SOL    HW179609  10.662   7.167  12.778
25904SOL    HW279610  10.545   7.203  12.689
25905SOL     OW79611  12.385  10.265   1.051
25905SOL    HW179612  12.339  10.182   1.039
25905SOL    HW279613  12.426  10.258   1.137
25906SOL     OW79614  13.423  10.650   7.781
25906SOL    HW179615  13.355  10.649   7.849
25906SOL    HW279616  13.395  10.718   7.720
25907SOL     OW79617  13.381   6.571   5.990
25907SOL    HW179618  13.333   6.646   6.026
25907SOL    HW279619  13.449   6.552   6.054
25908SOL     OW79620   0.756   4.578   4.628
25908SOL    HW179621   0.666   4.554   4.652
25908SOL    HW279622   0.803   4.494   4.623
25909SOL     OW79623  12.660  13.872  14.217
25909SOL    HW179624  12.692  13.826  14.295
25909SOL    HW279625  12.598  13.811  14.178
25910SOL     OW79626   2.850   8.565  13.058
25910SOL    HW179627   2.837   8.628  12.987
25910SOL    HW279628   2.942   8.576  13.084
25911SOL     OW79629   6.128  12.833   3.781
25911SOL    HW179630   6.160  12.884   3.855
25911SOL    HW279631   6.038  12.864   3.767
25912SOL     OW79632  13.278   9.779  13.660
25912SOL    HW179633  13.259   9.707  13.720
25912SOL    HW279634  13.299   9.853  13.718
25913SOL     OW79635   7.404   6.317   7.024
25913SOL    HW179636   7.431   6.388   7.083
25913SOL    HW279637   7.432   6.346   6.937
25914SOL     OW79638   5.764   7.670   0.230
25914SOL    HW179639   5.793   7.721   0.306
25914SOL    HW279640   5.843   7.625   0.200
25915SOL     OW79641  10.827   1.621  13.151
25915SOL    HW179642  10.822   1.620  13.056
25915SOL    HW279643  10.784   1.703  13.176
25916SOL     OW79644   3.302  12.952   0.138
25916SOL    HW179645   3.311  12.908   0.222
25916SOL    HW279646   3.208  12.969   0.129
25917SOL     OW79647   3.959   2.216   0.987
25917SOL    HW179648   4.021   2.201   0.916
25917SOL    HW279649   3.883   2.162   0.964
25918SOL     OW79650   0.668   0.527   0.919
25918SOL    HW179651   0.702   0.440   0.899
25918SOL    HW279652   0.739   0.587   0.896
25919SOL     OW79653   7.327  14.581  14.435
25919SOL    HW179654   7.301  14.672  14.419
25919SOL    HW279655   7.381  14.585  14.513
25920SOL     OW79656   6.935  11.160  12.747
25920SOL    HW179657   6.885  11.092  12.701
25920SOL    HW279658   6.889  11.173  12.829
25921SOL     OW79659   7.326  13.747   2.546
25921SOL    HW179660   7.316  13.663   2.592
25921SOL    HW279661   7.344  13.810   2.616
25922SOL     OW79662  11.508   9.774   3.641
25922SOL    HW179663  11.513   9.703   3.706
25922SOL    HW279664  11.581   9.758   3.582
25923SOL     OW79665   2.454   8.968   2.882
25923SOL    HW179666   2.376   9.021   2.897
25923SOL    HW279667   2.455   8.907   2.956
25924SOL     OW79668   4.896   4.137   1.083
25924SOL    HW179669   4.975   4.094   1.049
25924SOL    HW279670   4.878   4.092   1.165
25925SOL     OW79671  14.795   0.722  11.162
25925SOL    HW179672   0.010   0.727  11.179
25925SOL    HW279673  14.759   0.684  11.242
25926SOL     OW79674   0.737   8.961   4.845
25926SOL    HW179675   0.679   8.887   4.827
25926SOL    HW279676   0.787   8.934   4.922
25927SOL     OW79677  12.107   3.529   0.558
25927SOL    HW179678  12.070   3.464   0.499
25927SOL    HW279679  12.201   3.529   0.537
25928SOL     OW79680   0.063  13.357   8.791
25928SOL    HW179681  14.858  13.367   8.747
25928SOL    HW279682   0.098  13.446   8.795
25929SOL     OW79683   0.436   7.936  14.052
25929SOL    HW179684   0.462   7.853  14.013
25929SOL    HW279685   0.452   7.925  14.146
25930SOL     OW79686   6.626  13.979   3.926
25930SOL    HW179687   6.542  13.935   3.911
25930SOL    HW279688   6.688  13.933   3.870
25931SOL     OW79689  12.013   5.571  12.824
25931SOL    HW179690  12.005   5.631  12.898
25931SOL    HW279691  11.923   5.550  12.800
25932SOL     OW79692   7.226  13.649   7.393
25932SOL    HW179693   7.292  13.600   7.442
25932SOL    HW279694   7.159  13.670   7.458
25933SOL     OW79695   5.372   4.357   3.224
25933SOL    HW179696   5.396   4.294   3.156
25933SOL    HW279697   5.424   4.332   3.300
25934SOL     OW79698  14.575   5.179   4.545
25934SOL    HW179699  14.610   5.116   4.482
25934SOL    HW279700  14.612   5.263   4.517
25935SOL     OW79701   7.661   0.523   8.809
25935SOL    HW179702   7.728   0.483   8.865
25935SOL    HW279703   7.590   0.458   8.807
25936SOL     OW79704   1.870   9.416   7.626
25936SOL    HW179705   1.788   9.427   7.673
25936SOL    HW279706   1.845   9.378   7.542
25937SOL     OW79707   8.448   2.197   5.530
25937SOL    HW179708   8.443   2.106   5.559
25937SOL    HW279709   8.525   2.232   5.574
25938SOL     OW79710   1.986   9.828  14.346
25938SOL    HW179711   1.901   9.872  14.345
25938SOL    HW279712   2.050   9.899  14.348
25939SOL     OW79713   4.377   0.942   1.464
25939SOL    HW179714   4.287   0.972   1.458
25939SOL    HW279715   4.370   0.849   1.486
25940SOL     OW79716   0.449   4.495  10.947
25940SOL    HW179717   0.465   4.572  11.000
25940SOL    HW279718   0.386   4.524  10.880
25941SOL     OW79719  14.051   4.214  12.617
25941SOL    HW179720  13.997   4.136  12.625
25941SOL    HW279721  14.000   4.273  12.561
25942SOL     OW79722  11.894   4.403   2.174
25942SOL    HW179723  11.975   4.352   2.167
25942SOL    HW279724  11.824   4.342   2.150
25943SOL     OW79725   8.369   8.330   5.304
25943SOL    HW179726   8.408   8.273   5.370
25943SOL    HW279727   8.324   8.270   5.245
25944SOL     OW79728   9.312   1.581   5.311
25944SOL    HW179729   9.366   1.641   5.363
25944SOL    HW279730   9.318   1.614   5.222
25945SOL     OW79731   6.069   9.768   4.069
25945SOL    HW179732   6.157   9.805   4.055
25945SOL    HW279733   6.081   9.674   4.056
25946SOL     OW79734  14.879   2.392  10.469
25946SOL    HW179735   0.016   2.405  10.562
25946SOL    HW279736  14.838   2.473  10.440
25947SOL     OW79737   0.128   7.490   0.609
25947SOL    HW179738   0.037   7.506   0.583
25947SOL    HW279739   0.138   7.395   0.605
25948SOL     OW79740   0.512   0.950   1.078
25948SOL    HW179741   0.544   0.944   0.989
25948SOL    HW279742   0.427   0.905   1.077
25949SOL     OW79743   3.461   2.109   1.067
25949SOL    HW179744   3.405   2.159   1.007
25949SOL    HW279745   3.457   2.158   1.149
25950SOL     OW79746   2.204  14.387   2.279
25950SOL    HW179747   2.203  14.438   2.197
25950SOL    HW279748   2.297  14.378   2.300
25951SOL     OW79749   3.117  13.990   4.529
25951SOL    HW179750   3.044  14.041   4.493
25951SOL    HW279751   3.126  14.022   4.619
25952SOL     OW79752  14.225   8.026  13.949
25952SOL    HW179753  14.192   8.115  13.954
25952SOL    HW279754  14.154   7.976  13.908
25953SOL     OW79755  11.070   6.113   0.417
25953SOL    HW179756  11.152   6.154   0.443
25953SOL    HW279757  11.074   6.025   0.455
25954SOL     OW79758   0.547  12.251   1.081
25954SOL    HW179759   0.611  12.260   1.152
25954SOL    HW279760   0.466  12.223   1.125
25955SOL     OW79761  10.302   9.449   9.731
25955SOL    HW179762  10.342   9.397   9.800
25955SOL    HW279763  10.210   9.421   9.730
25956SOL     OW79764   7.172   0.201   4.649
25956SOL    HW179765   7.158   0.295   4.638
25956SOL    HW279766   7.213   0.173   4.567
25957SOL     OW79767  11.740  13.560   7.731
25957SOL    HW179768  11.788  13.571   7.649
25957SOL    HW279769  11.805  13.575   7.800
25958SOL     OW79770   7.826  14.535   8.888
25958SOL    HW179771   7.794  14.483   8.961
25958SOL    HW279772   7.887  14.478   8.842
25959SOL     OW79773   0.324  10.490   0.520
25959SOL    HW179774   0.405  10.525   0.557
25959SOL    HW279775   0.278  10.452   0.596
25960SOL     OW79776   1.097   4.038   0.742
25960SOL    HW179777   1.044   4.046   0.821
25960SOL    HW279778   1.182   4.076   0.766
25961SOL     OW79779   5.832  12.511   4.637
25961SOL    HW179780   5.903  12.518   4.700
25961SOL    HW279781   5.782  12.593   4.648
25962SOL     OW79782  12.559  11.547   6.478
25962SOL    HW179783  12.511  11.622   6.445
25962SOL    HW279784  12.582  11.570   6.568
25963SOL     OW79785  13.630   4.424   3.853
25963SOL    HW179786  13.627   4.474   3.934
25963SOL    HW279787  13.583   4.343   3.873
25964SOL     OW79788   7.033   7.971   9.701
25964SOL    HW179789   6.974   7.896   9.690
25964SOL    HW279790   7.118   7.931   9.722
25965SOL     OW79791   6.074   8.046   4.968
25965SOL    HW179792   6.103   8.003   4.888
25965SOL    HW279793   5.982   8.066   4.952
25966SOL     OW79794  10.862   4.242   5.383
25966SOL    HW179795  10.909   4.302   5.325
25966SOL    HW279796  10.861   4.159   5.335
25967SOL     OW79797   0.415   8.823   7.022
25967SOL    HW179798   0.396   8.766   6.947
25967SOL    HW279799   0.500   8.793   7.054
25968SOL     OW79800   9.940  13.846   6.934
25968SOL    HW179801   9.984  13.896   6.865
25968SOL    HW279802   9.881  13.787   6.887
25969SOL     OW79803  13.484   9.086   6.117
25969SOL    HW179804  13.575   9.098   6.093
25969SOL    HW279805  13.487   9.037   6.199
25970SOL     OW79806  12.915   7.078   4.942
25970SOL    HW179807  12.926   6.983   4.946
25970SOL    HW279808  12.820   7.092   4.951
25971SOL     OW79809   0.704  12.126   5.670
25971SOL    HW179810   0.707  12.133   5.766
25971SOL    HW279811   0.744  12.041   5.651
25972SOL     OW79812   3.725  14.705  13.686
25972SOL    HW179813   3.671  14.754  13.748
25972SOL    HW279814   3.815  14.722  13.714
25973SOL     OW79815   0.825   2.588   6.971
25973SOL    HW179816   0.771   2.629   6.904
25973SOL    HW279817   0.915   2.601   6.941
25974SOL     OW79818  13.333   2.966   3.099
25974SOL    HW179819  13.414   2.989   3.052
25974SOL    HW279820  13.363   2.936   3.184
25975SOL     OW79821   2.251   0.611   0.014
25975SOL    HW179822   2.156   0.600   0.024
25975SOL    HW279823   2.288   0.526   0.038
25976SOL     OW79824  11.608   9.033   1.183
25976SOL    HW179825  11.674   9.035   1.252
25976SOL    HW279826  11.633   9.103   1.123
25977SOL     OW79827  10.546   5.036  12.487
25977SOL    HW179828  10.507   4.951  12.466
25977SOL    HW279829  10.641   5.021  12.481
25978SOL     OW79830  11.849   8.659  10.948
25978SOL    HW179831  11.767   8.639  10.993
25978SOL    HW279832  11.916   8.611  10.997
25979SOL     OW79833  12.645  12.421   7.075
25979SOL    HW179834  12.560  12.400   7.111
25979SOL    HW279835  12.626  12.459   6.989
25980SOL     OW79836  12.750  13.857   0.698
25980SOL    HW179837  12.759  13.951   0.683
25980SOL    HW279838  12.832  13.819   0.666
25981SOL     OW79839   9.048   3.856  12.328
25981SOL    HW179840   9.088   3.769  12.327
25981SOL    HW279841   8.970   3.846  12.383
25982SOL     OW79842   3.012   9.397   3.046
25982SOL    HW179843   3.048   9.390   3.134
25982SOL    HW279844   3.037   9.485   3.017
25983SOL     OW79845  14.308   5.518   6.035
25983SOL    HW179846  14.229   5.568   6.055
25983SOL    HW279847  14.368   5.540   6.105
25984SOL     OW79848   9.019  12.899   3.245
25984SOL    HW179849   9.062  12.948   3.316
25984SOL    HW279850   8.926  12.917   3.257
25985SOL     OW79851  13.445  11.861   2.063
25985SOL    HW179852  13.357  11.841   2.097
25985SOL    HW279853  13.501  11.863   2.140
25986SOL     OW79854   0.673  10.759   1.461
25986SOL    HW179855   0.657  10.705   1.383
25986SOL    HW279856   0.604  10.733   1.522
25987SOL     OW79857   2.098   1.256   1.867
25987SOL    HW179858   2.019   1.309   1.854
25987SOL    HW279859   2.095   1.191   1.797
25988SOL     OW79860  12.942  10.417   8.841
25988SOL    HW179861  12.848  10.418   8.862
25988SOL    HW279862  12.979  10.490   8.890
25989SOL     OW79863   2.675   5.997  11.206
25989SOL    HW179864   2.723   6.064  11.158
25989SOL    HW279865   2.584   6.007  11.176
25990SOL     OW79866   6.958   4.217  14.033
25990SOL    HW179867   6.899   4.255  13.967
25990SOL    HW279868   7.040   4.201  13.986
25991SOL     OW79869   0.741  12.066   9.583
25991SOL    HW179870   0.661  12.117   9.600
25991SOL    HW279871   0.794  12.078   9.662
25992SOL     OW79872   0.365   2.462  10.330
25992SOL    HW179873   0.309   2.527  10.373
25992SOL    HW279874   0.314   2.432  10.255
25993SOL     OW79875   1.820  14.728   6.361
25993SOL    HW179876   1.881  14.725   6.435
25993SOL    HW279877   1.875  14.715   6.284
25994SOL     OW79878   3.126   9.288  12.556
25994SOL    HW179879   3.081   9.365  12.590
25994SOL    HW279880   3.210   9.321  12.524
25995SOL     OW79881   6.326   8.197   9.413
25995SOL    HW179882   6.344   8.266   9.350
25995SOL    HW279883   6.371   8.120   9.377
25996SOL     OW79884  10.905   2.480   2.406
25996SOL    HW179885  10.895   2.463   2.312
25996SOL    HW279886  10.978   2.424   2.432
25997SOL     OW79887   2.342   0.598  14.050
25997SOL    HW179888   2.368   0.567  14.136
25997SOL    HW279889   2.270   0.660  14.067
25998SOL     OW79890   1.745   8.215   1.183
25998SOL    HW179891   1.681   8.212   1.253
25998SOL    HW279892   1.701   8.264   1.113
25999SOL     OW79893   7.535   0.138  12.012
25999SOL    HW179894   7.559   0.151  11.921
25999SOL    HW279895   7.542   0.043  12.026
26000SOL     OW79896  11.186   6.600   6.982
26000SOL    HW179897  11.145   6.605   6.896
26000SOL    HW279898  11.214   6.690   7.001
26001SOL     OW79899   1.048   0.640   0.580
26001SOL    HW179900   1.098   0.628   0.500
26001SOL    HW279901   0.997   0.719   0.566
26002SOL     OW79902  14.448   6.076   7.483
26002SOL    HW179903  14.487   6.098   7.398
26002SOL    HW279904  14.481   5.989   7.503
26003SOL     OW79905   7.746   4.546   5.981
26003SOL    HW179906   7.776   4.459   6.006
26003SOL    HW279907   7.671   4.530   5.924
26004SOL     OW79908   6.136   4.873  13.639
26004SOL    HW179909   6.073   4.814  13.681
26004SOL    HW279910   6.100   4.960  13.652
26005SOL     OW79911   4.938  14.155   8.467
26005SOL    HW179912   4.965  14.083   8.525
26005SOL    HW279913   4.989  14.141   8.387
26006SOL     OW79914  11.790   0.600   6.374
26006SOL    HW179915  11.882   0.577   6.366
26006SOL    HW279916  11.748   0.560   6.298
26007SOL     OW79917   0.087  12.776  12.749
26007SOL    HW179918   0.072  12.850  12.689
26007SOL    HW279919   0.150  12.720  12.703
26008SOL     OW79920  13.727  14.247   1.757
26008SOL    HW179921  13.746  14.338   1.779
26008SOL    HW279922  13.633  14.245   1.743
26009SOL     OW79923   8.042  10.513   7.964
26009SOL    HW179924   8.093  10.579   8.010
26009SOL    HW279925   8.010  10.558   7.885
26010SOL     OW79926  10.516   6.325   1.715
26010SOL    HW179927  10.484   6.235   1.721
26010SOL    HW279928  10.611   6.317   1.722
26011SOL     OW79929   8.132   7.373   0.075
26011SOL    HW179930   8.147   7.305   0.009
26011SOL    HW279931   8.107   7.325   0.153
26012SOL     OW79932   1.892  11.928   3.009
26012SOL    HW179933   1.875  11.879   2.928
26012SOL    HW279934   1.837  12.006   3.002
26013SOL     OW79935   2.087   1.465   8.598
26013SOL    HW179936   2.011   1.440   8.545
26013SOL    HW279937   2.102   1.557   8.576
26014SOL     OW79938  13.637   4.185  10.140
26014SOL    HW179939  13.611   4.236  10.216
26014SOL    HW279940  13.594   4.100  10.152
26015SOL     OW79941  11.470   3.960  11.923
26015SOL    HW179942  11.507   4.030  11.978
26015SOL    HW279943  11.390   3.935  11.968
26016SOL     OW79944   9.006   4.045   6.198
26016SOL    HW179945   8.961   3.983   6.255
26016SOL    HW279946   9.077   3.995   6.159
26017SOL     OW79947   7.974   2.853   6.343
26017SOL    HW179948   7.949   2.826   6.255
26017SOL    HW279949   7.908   2.814   6.400
26018SOL     OW79950   7.915   4.174   1.379
26018SOL    HW179951   7.999   4.174   1.426
26018SOL    HW279952   7.852   4.210   1.441
26019SOL     OW79953   0.308   5.005   3.489
26019SOL    HW179954   0.334   5.014   3.397
26019SOL    HW279955   0.257   4.924   3.492
26020SOL     OW79956   3.284  12.535   6.328
26020SOL    HW179957   3.274  12.453   6.376
26020SOL    HW279958   3.298  12.601   6.395
26021SOL     OW79959  10.581   2.463  14.858
26021SOL    HW179960  10.657   2.425   0.022
26021SOL    HW279961  10.513   2.396  14.865
26022SOL     OW79962   3.042   6.796   9.292
26022SOL    HW179963   2.978   6.805   9.362
26022SOL    HW279964   3.102   6.870   9.304
26023SOL     OW79965  13.347  11.841   0.751
26023SOL    HW179966  13.252  11.846   0.748
26023SOL    HW279967  13.372  11.905   0.818
26024SOL     OW79968   6.855   2.657   9.798
26024SOL    HW179969   6.821   2.642   9.709
26024SOL    HW279970   6.780   2.640   9.855
26025SOL     OW79971   2.782   6.479   4.078
26025SOL    HW179972   2.754   6.562   4.117
26025SOL    HW279973   2.701   6.438   4.049
26026SOL     OW79974   4.131   2.693  11.491
26026SOL    HW179975   4.183   2.733  11.421
26026SOL    HW279976   4.046   2.675  11.451
26027SOL     OW79977   0.840   5.733  10.028
26027SOL    HW179978   0.788   5.772  10.098
26027SOL    HW279979   0.792   5.654  10.003
26028SOL     OW79980   4.380   0.766   0.249
26028SOL    HW179981   4.453   0.705   0.257
26028SOL    HW279982   4.365   0.796   0.339
26029SOL     OW79983   4.299   9.912  11.189
26029SOL    HW179984   4.320   9.995  11.230
26029SOL    HW279985   4.384   9.871  11.171
26030SOL     OW79986   4.595   5.296   3.496
26030SOL    HW179987   4.566   5.224   3.441
26030SOL    HW279988   4.608   5.369   3.435
26031SOL     OW79989  11.396  13.375   9.909
26031SOL    HW179990  11.338  13.362   9.834
26031SOL    HW279991  11.484  13.372   9.871
26032SOL     OW79992   9.685   2.545   8.341
26032SOL    HW179993   9.614   2.508   8.394
26032SOL    HW279994   9.655   2.537   8.251
26033SOL     OW79995   5.861   8.307   1.686
26033SOL    HW179996   5.936   8.252   1.665
26033SOL    HW279997   5.817   8.321   1.602
26034SOL     OW79998  12.999   1.371   3.005
26034SOL    HW179999  12.917   1.420   2.995
26034SOL    HW280000  12.988   1.323   3.087
26035SOL     OW80001   5.865   7.849  10.894
26035SOL    HW180002   5.925   7.792  10.942
26035SOL    HW280003   5.919   7.922  10.864
26036SOL     OW80004  14.600   5.563   8.422
26036SOL    HW180005  14.591   5.658   8.421
26036SOL    HW280006  14.518   5.530   8.384
26037SOL     OW80007  10.677  12.922  14.752
26037SOL    HW180008  10.604  12.868  14.785
26037SOL    HW280009  10.737  12.859  14.712
26038SOL     OW80010  12.740   2.229   5.664
26038SOL    HW180011  12.710   2.315   5.692
26038SOL    HW280012  12.787   2.246   5.582
26039SOL     OW80013   4.236   4.175   7.714
26039SOL    HW180014   4.235   4.088   7.673
26039SOL    HW280015   4.169   4.170   7.782
26040SOL     OW80016   4.289   6.011  12.180
26040SOL    HW180017   4.310   5.952  12.252
26040SOL    HW280018   4.206   6.052  12.205
26041SOL     OW80019   4.050  13.605  13.888
26041SOL    HW180020   4.024  13.595  13.797
26041SOL    HW280021   4.020  13.525  13.931
26042SOL     OW80022   1.394  12.328   1.659
26042SOL    HW180023   1.419  12.235   1.661
26042SOL    HW280024   1.334  12.338   1.733
26043SOL     OW80025  11.412   4.860   5.649
26043SOL    HW180026  11.352   4.912   5.595
26043SOL    HW280027  11.436   4.786   5.593
26044SOL     OW80028  13.654   0.296  12.226
26044SOL    HW180029  13.733   0.242  12.228
26044SOL    HW280030  13.661   0.347  12.145
26045SOL     OW80031  12.434  14.300   8.812
26045SOL    HW180032  12.497  14.262   8.751
26045SOL    HW280033  12.438  14.394   8.796
26046SOL     OW80034  11.803   1.125   2.401
26046SOL    HW180035  11.753   1.055   2.358
26046SOL    HW280036  11.736   1.182   2.439
26047SOL     OW80037   3.756   0.764   5.675
26047SOL    HW180038   3.792   0.799   5.594
26047SOL    HW280039   3.833   0.745   5.729
26048SOL     OW80040   8.991   8.971   4.325
26048SOL    HW180041   8.940   8.937   4.398
26048SOL    HW280042   9.016   8.893   4.275
26049SOL     OW80043  13.924  10.408  10.293
26049SOL    HW180044  13.962  10.487  10.331
26049SOL    HW280045  13.999  10.358  10.261
26050SOL     OW80046  10.096   0.617   7.996
26050SOL    HW180047  10.055   0.531   7.984
26050SOL    HW280048  10.184   0.606   7.959
26051SOL     OW80049  13.306   2.462  14.547
26051SOL    HW180050  13.369   2.489  14.613
26051SOL    HW280051  13.240   2.530  14.547
26052SOL     OW80052   8.239  11.564   5.425
26052SOL    HW180053   8.223  11.628   5.356
26052SOL    HW280054   8.334  11.563   5.436
26053SOL     OW80055   1.202  13.236   5.271
26053SOL    HW180056   1.133  13.215   5.334
26053SOL    HW280057   1.265  13.287   5.322
26054SOL     OW80058   5.283  13.308   1.917
26054SOL    HW180059   5.368  13.350   1.929
26054SOL    HW280060   5.287  13.229   1.972
26055SOL     OW80061   5.502   7.848   4.561
26055SOL    HW180062   5.568   7.792   4.520
26055SOL    HW280063   5.545   7.933   4.569
26056SOL     OW80064   0.402   4.551   3.574
26056SOL    HW180065   0.399   4.457   3.586
26056SOL    HW280066   0.495   4.574   3.577
26057SOL     OW80067  13.178   0.921   9.174
26057SOL    HW180068  13.268   0.945   9.199
26057SOL    HW280069  13.141   0.883   9.253
26058SOL     OW80070  14.382   7.685  10.171
26058SOL    HW180071  14.463   7.645  10.138
26058SOL    HW280072  14.359   7.750  10.105
26059SOL     OW80073   1.700  12.132   6.064
26059SOL    HW180074   1.666  12.132   6.154
26059SOL    HW280075   1.621  12.138   6.010
26060SOL     OW80076   2.435   0.295   9.604
26060SOL    HW180077   2.484   0.312   9.524
26060SOL    HW280078   2.501   0.269   9.668
26061SOL     OW80079  13.264   4.647   5.871
26061SOL    HW180080  13.206   4.640   5.795
26061SOL    HW280081  13.342   4.691   5.837
26062SOL     OW80082  10.899   6.412   0.888
26062SOL    HW180083  10.837   6.463   0.940
26062SOL    HW280084  10.897   6.325   0.927
26063SOL     OW80085   0.282   7.359   8.850
26063SOL    HW180086   0.316   7.391   8.934
26063SOL    HW280087   0.189   7.383   8.851
26064SOL     OW80088   1.102   5.975   8.236
26064SOL    HW180089   1.159   6.014   8.169
26064SOL    HW280090   1.162   5.936   8.299
26065SOL     OW80091  10.883  14.452   0.853
26065SOL    HW180092  10.918  14.464   0.764
26065SOL    HW280093  10.892  14.358   0.869
26066SOL     OW80094   8.033   8.364  14.052
26066SOL    HW180095   7.958   8.311  14.024
26066SOL    HW280096   8.000   8.416  14.126
26067SOL     OW80097   5.356   6.212  12.285
26067SOL    HW180098   5.429   6.272  12.298
26067SOL    HW280099   5.279   6.261  12.314
26068SOL     OW80100   3.856  14.866   8.366
26068SOL    HW180101   3.877   0.075   8.394
26068SOL    HW280102   3.761  14.864   8.361
26069SOL     OW80103   5.294   4.637   5.648
26069SOL    HW180104   5.225   4.688   5.606
26069SOL    HW280105   5.376   4.671   5.612
26070SOL     OW80106   4.744   9.002   5.693
26070SOL    HW180107   4.803   8.933   5.724
26070SOL    HW280108   4.794   9.049   5.627
26071SOL     OW80109   6.167   3.363   7.039
26071SOL    HW180110   6.155   3.291   6.977
26071SOL    HW280111   6.078   3.396   7.055
26072SOL     OW80112   4.946   2.206   2.816
26072SOL    HW180113   5.036   2.209   2.848
26072SOL    HW280114   4.929   2.294   2.782
26073SOL     OW80115  13.013   6.777  14.400
26073SOL    HW180116  12.972   6.794  14.485
26073SOL    HW280117  12.941   6.775  14.338
26074SOL     OW80118  11.346   0.633   8.213
26074SOL    HW180119  11.277   0.579   8.176
26074SOL    HW280120  11.427   0.595   8.179
26075SOL     OW80121   8.812  11.706   3.347
26075SOL    HW180122   8.840  11.761   3.274
26075SOL    HW280123   8.745  11.758   3.392
26076SOL     OW80124   1.209   2.642  13.545
26076SOL    HW180125   1.174   2.611  13.462
26076SOL    HW280126   1.294   2.681  13.523
26077SOL     OW80127  10.570  12.980   1.736
26077SOL    HW180128  10.574  13.002   1.829
26077SOL    HW280129  10.486  13.016   1.706
26078SOL     OW80130   2.005   8.220   7.648
26078SOL    HW180131   1.917   8.202   7.616
26078SOL    HW280132   1.993   8.248   7.738
26079SOL     OW80133  10.512  13.272   9.524
26079SOL    HW180134  10.507  13.178   9.545
26079SOL    HW280135  10.429  13.308   9.557
26080SOL     OW80136   8.424   5.414   8.053
26080SOL    HW180137   8.491   5.483   8.051
26080SOL    HW280138   8.417   5.390   8.146
26081SOL     OW80139  14.393  10.535  12.004
26081SOL    HW180140  14.376  10.443  12.026
26081SOL    HW280141  14.426  10.573  12.085
26082SOL     OW80142  10.455   5.957   4.446
26082SOL    HW180143  10.496   6.043   4.458
26082SOL    HW280144  10.367   5.968   4.482
26083SOL     OW80145   3.895  11.417   9.557
26083SOL    HW180146   3.897  11.511   9.574
26083SOL    HW280147   3.875  11.377   9.641
26084SOL     OW80148  11.228   5.270   2.100
26084SOL    HW180149  11.279   5.230   2.171
26084SOL    HW280150  11.227   5.364   2.122
26085SOL     OW80151   9.493   1.777  12.560
26085SOL    HW180152   9.442   1.857  12.548
26085SOL    HW280153   9.461   1.742  12.643
26086SOL     OW80154   9.414  11.416  12.049
26086SOL    HW180155   9.426  11.508  12.073
26086SOL    HW280156   9.501  11.386  12.024
26087SOL     OW80157   6.698   4.344  10.108
26087SOL    HW180158   6.647   4.317  10.185
26087SOL    HW280159   6.670   4.434  10.091
26088SOL     OW80160  10.601  11.624   9.259
26088SOL    HW180161  10.545  11.587   9.327
26088SOL    HW280162  10.680  11.569   9.261
26089SOL     OW80163  13.040  14.517   5.184
26089SOL    HW180164  13.064  14.549   5.271
26089SOL    HW280165  13.123  14.519   5.135
26090SOL     OW80166   0.215  11.533  12.053
26090SOL    HW180167   0.139  11.520  12.110
26090SOL    HW280168   0.268  11.454  12.065
26091SOL     OW80169   7.276   8.821   1.857
26091SOL    HW180170   7.263   8.726   1.853
26091SOL    HW280171   7.370   8.833   1.851
26092SOL     OW80172   2.204  14.398   5.296
26092SOL    HW180173   2.270  14.338   5.262
26092SOL    HW280174   2.179  14.450   5.219
26093SOL     OW80175  11.599   6.395  12.544
26093SOL    HW180176  11.590   6.303  12.521
26093SOL    HW280177  11.534   6.440  12.490
26094SOL     OW80178   8.355  13.081   8.034
26094SOL    HW180179   8.315  13.024   7.968
26094SOL    HW280180   8.448  13.058   8.032
26095SOL     OW80181   5.034  10.587  14.205
26095SOL    HW180182   5.101  10.580  14.137
26095SOL    HW280183   4.964  10.639  14.166
26096SOL     OW80184  11.019  12.646  14.581
26096SOL    HW180185  11.016  12.609  14.670
26096SOL    HW280186  10.932  12.630  14.545
26097SOL     OW80187  11.819   3.959  11.485
26097SOL    HW180188  11.902   3.956  11.532
26097SOL    HW280189  11.757   3.913  11.543
26098SOL     OW80190   9.075  10.412   9.718
26098SOL    HW180191   8.982  10.418   9.696
26098SOL    HW280192   9.106  10.336   9.669
26099SOL     OW80193  13.354  10.652   0.906
26099SOL    HW180194  13.389  10.727   0.952
26099SOL    HW280195  13.407  10.578   0.936
26100SOL     OW80196   0.627   3.971   1.572
26100SOL    HW180197   0.709   3.924   1.590
26100SOL    HW280198   0.619   4.034   1.644
26101SOL     OW80199  14.105  12.133   2.323
26101SOL    HW180200  14.178  12.111   2.381
26101SOL    HW280201  14.134  12.104   2.236
26102SOL     OW80202  13.775   4.539   6.815
26102SOL    HW180203  13.701   4.592   6.786
26102SOL    HW280204  13.831   4.532   6.737
26103SOL     OW80205  14.070   0.511   2.301
26103SOL    HW180206  14.129   0.463   2.243
26103SOL    HW280207  14.048   0.591   2.254
26104SOL     OW80208   3.916   0.377  11.614
26104SOL    HW180209   3.903   0.290  11.576
26104SOL    HW280210   4.008   0.379  11.641
26105SOL     OW80211  11.633   7.023   0.510
26105SOL    HW180212  11.695   7.034   0.582
26105SOL    HW280213  11.553   6.991   0.553
26106SOL     OW80214  11.280  14.547  10.938
26106SOL    HW180215  11.295  14.475  10.876
26106SOL    HW280216  11.355  14.605  10.927
26107SOL     OW80217   3.076  10.454   1.666
26107SOL    HW180218   3.043  10.365   1.674
26107SOL    HW280219   3.165  10.451   1.702
26108SOL     OW80220   8.779   8.935  10.358
26108SOL    HW180221   8.858   8.980  10.389
26108SOL    HW280222   8.811   8.856  10.315
26109SOL     OW80223   6.177  12.800   6.631
26109SOL    HW180224   6.117  12.741   6.586
26109SOL    HW280225   6.225  12.843   6.560
26110SOL     OW80226   5.556  12.084  12.082
26110SOL    HW180227   5.511  12.155  12.036
26110SOL    HW280228   5.560  12.012  12.020
26111SOL     OW80229   0.617  10.446  13.696
26111SOL    HW180230   0.685  10.490  13.644
26111SOL    HW280231   0.575  10.386  13.635
26112SOL     OW80232  10.720  10.617   4.067
26112SOL    HW180233  10.723  10.649   4.157
26112SOL    HW280234  10.741  10.524   4.074
26113SOL     OW80235   4.439   1.446  14.250
26113SOL    HW180236   4.367   1.496  14.212
26113SOL    HW280237   4.471   1.392  14.177
26114SOL     OW80238   8.021   9.502  13.518
26114SOL    HW180239   7.951   9.501  13.584
26114SOL    HW280240   7.986   9.453  13.445
26115SOL     OW80241  13.881  10.035   8.976
26115SOL    HW180242  13.893  10.089   9.054
26115SOL    HW280243  13.873  10.098   8.905
26116SOL     OW80244  13.053   3.912   6.553
26116SOL    HW180245  13.047   3.919   6.648
26116SOL    HW280246  13.143   3.886   6.537
26117SOL     OW80247   4.479   1.938   4.550
26117SOL    HW180248   4.459   1.911   4.639
26117SOL    HW280249   4.459   2.032   4.548
26118SOL     OW80250   4.729   6.444   9.532
26118SOL    HW180251   4.692   6.376   9.590
26118SOL    HW280252   4.816   6.461   9.568
26119SOL     OW80253  12.252   1.510   4.684
26119SOL    HW180254  12.194   1.472   4.750
26119SOL    HW280255  12.261   1.602   4.709
26120SOL     OW80256  11.175  13.954  10.413
26120SOL    HW180257  11.236  13.987  10.478
26120SOL    HW280258  11.191  13.860  10.410
26121SOL     OW80259  14.070   0.228   3.269
26121SOL    HW180260  14.135   0.198   3.206
26121SOL    HW280261  14.096   0.187   3.352
26122SOL     OW80262  10.239   3.225   3.403
26122SOL    HW180263  10.264   3.186   3.319
26122SOL    HW280264  10.321   3.234   3.451
26123SOL     OW80265  14.003   9.025   6.764
26123SOL    HW180266  14.033   9.069   6.844
26123SOL    HW280267  14.083   9.013   6.712
26124SOL     OW80268   4.948   0.651  12.200
26124SOL    HW180269   5.037   0.686  12.197
26124SOL    HW280270   4.904   0.702  12.268
26125SOL     OW80271  13.602   3.996   1.069
26125SOL    HW180272  13.623   4.014   1.160
26125SOL    HW280273  13.509   4.016   1.061
26126SOL     OW80274  14.540  12.248   3.937
26126SOL    HW180275  14.569  12.188   3.868
26126SOL    HW280276  14.502  12.191   4.004
26127SOL     OW80277   4.924   7.057  10.990
26127SOL    HW180278   4.974   7.052  10.909
26127SOL    HW280279   4.855   7.121  10.972
26128SOL     OW80280   8.912   7.440  11.766
26128SOL    HW180281   8.874   7.528  11.769
26128SOL    HW280282   8.994   7.448  11.814
26129SOL     OW80283  10.072  11.136  12.505
26129SOL    HW180284  10.142  11.198  12.486
26129SOL    HW280285  10.013  11.184  12.562
26130SOL     OW80286   1.773   0.581   5.037
26130SOL    HW180287   1.824   0.659   5.055
26130SOL    HW280288   1.751   0.546   5.123
26131SOL     OW80289   1.925   3.926  10.121
26131SOL    HW180290   1.951   3.960  10.206
26131SOL    HW280291   1.942   3.998  10.060
26132SOL     OW80292   2.787   9.566   7.581
26132SOL    HW180293   2.873   9.543   7.618
26132SOL    HW280294   2.751   9.629   7.642
26133SOL     OW80295   5.251   1.287   2.801
26133SOL    HW180296   5.159   1.314   2.809
26133SOL    HW280297   5.248   1.191   2.803
26134SOL     OW80298   5.355   2.346   4.893
26134SOL    HW180299   5.263   2.347   4.865
26134SOL    HW280300   5.356   2.284   4.966
26135SOL     OW80301  10.927   1.281   1.458
26135SOL    HW180302  10.833   1.268   1.471
26135SOL    HW280303  10.938   1.376   1.450
26136SOL     OW80304   8.173   2.041   0.379
26136SOL    HW180305   8.086   2.043   0.340
26136SOL    HW280306   8.227   2.094   0.321
26137SOL     OW80307   8.730   1.361  14.707
26137SOL    HW180308   8.650   1.383  14.755
26137SOL    HW280309   8.701   1.347  14.617
26138SOL     OW80310  14.328   8.397  10.118
26138SOL    HW180311  14.275   8.455  10.173
26138SOL    HW280312  14.303   8.309  10.146
26139SOL     OW80313   9.346  10.605   5.794
26139SOL    HW180314   9.337  10.634   5.885
26139SOL    HW280315   9.375  10.684   5.747
26140SOL     OW80316  13.178   7.239  14.714
26140SOL    HW180317  13.127   7.160  14.697
26140SOL    HW280318  13.265   7.220  14.678
26141SOL     OW80319   9.077   5.662   4.226
26141SOL    HW180320   9.054   5.606   4.152
26141SOL    HW280321   9.095   5.747   4.187
26142SOL     OW80322  12.617   7.748  12.172
26142SOL    HW180323  12.532   7.793  12.176
26142SOL    HW280324  12.652   7.771  12.086
26143SOL     OW80325   9.861   5.164   8.893
26143SOL    HW180326   9.861   5.099   8.823
26143SOL    HW280327   9.952   5.167   8.923
26144SOL     OW80328   0.553   8.543   7.745
26144SOL    HW180329   0.611   8.508   7.678
26144SOL    HW280330   0.541   8.635   7.722
26145SOL     OW80331   4.499  12.644   0.715
26145SOL    HW180332   4.520  12.714   0.653
26145SOL    HW280333   4.447  12.687   0.782
26146SOL     OW80334   5.044  13.400   4.408
26146SOL    HW180335   4.965  13.424   4.360
26146SOL    HW280336   5.078  13.483   4.442
26147SOL     OW80337   3.746  14.796  11.455
26147SOL    HW180338   3.832  14.769  11.423
26147SOL    HW280339   3.712  14.718  11.500
26148SOL     OW80340  12.429  14.014   3.805
26148SOL    HW180341  12.417  14.033   3.712
26148SOL    HW280342  12.341  14.015   3.841
26149SOL     OW80343  13.460   8.978  13.220
26149SOL    HW180344  13.398   8.989  13.148
26149SOL    HW280345  13.519   9.053  13.213
26150SOL     OW80346   2.619   4.894   2.426
26150SOL    HW180347   2.639   4.844   2.346
26150SOL    HW280348   2.635   4.833   2.497
26151SOL     OW80349   3.606  12.640   4.825
26151SOL    HW180350   3.556  12.721   4.815
26151SOL    HW280351   3.676  12.647   4.760
26152SOL     OW80352   4.431  12.718   2.972
26152SOL    HW180353   4.402  12.784   3.035
26152SOL    HW280354   4.357  12.657   2.967
26153SOL     OW80355   2.484  11.365   3.443
26153SOL    HW180356   2.535  11.444   3.429
26153SOL    HW280357   2.397  11.396   3.465
26154SOL     OW80358  13.717  12.807   5.410
26154SOL    HW180359  13.718  12.729   5.465
26154SOL    HW280360  13.712  12.773   5.321
26155SOL     OW80361  14.286  13.701   3.411
26155SOL    HW180362  14.235  13.620   3.403
26155SOL    HW280363  14.220  13.770   3.411
26156SOL     OW80364   4.841  14.011   8.157
26156SOL    HW180365   4.897  14.088   8.147
26156SOL    HW280366   4.896  13.937   8.129
26157SOL     OW80367   4.671   9.488  13.004
26157SOL    HW180368   4.579   9.516  13.004
26157SOL    HW280369   4.668   9.395  12.985
26158SOL     OW80370   7.918  14.777   6.897
26158SOL    HW180371   7.909  14.866   6.862
26158SOL    HW280372   7.874  14.780   6.982
26159SOL     OW80373   3.626  11.614   4.684
26159SOL    HW180374   3.623  11.633   4.778
26159SOL    HW280375   3.534  11.598   4.661
26160SOL     OW80376   7.914  12.434   8.120
26160SOL    HW180377   7.917  12.445   8.215
26160SOL    HW280378   7.983  12.491   8.087
26161SOL     OW80379   9.738   8.645  14.167
26161SOL    HW180380   9.693   8.563  14.148
26161SOL    HW280381   9.740   8.692  14.084
26162SOL     OW80382   5.468   5.223   0.241
26162SOL    HW180383   5.541   5.256   0.294
26162SOL    HW280384   5.482   5.128   0.239
26163SOL     OW80385  11.851   2.031  13.097
26163SOL    HW180386  11.816   2.103  13.044
26163SOL    HW280387  11.802   2.035  13.179
26164SOL     OW80388   0.191   8.188   4.232
26164SOL    HW180389   0.266   8.184   4.172
26164SOL    HW280390   0.182   8.280   4.254
26165SOL     OW80391   0.436   9.449   0.946
26165SOL    HW180392   0.513   9.479   0.994
26165SOL    HW280393   0.369   9.436   1.013
26166SOL     OW80394  14.516   5.472  13.670
26166SOL    HW180395  14.520   5.424  13.587
26166SOL    HW280396  14.425   5.462  13.699
26167SOL     OW80397  12.592  12.783   1.290
26167SOL    HW180398  12.558  12.712   1.236
26167SOL    HW280399  12.685  12.789   1.267
26168SOL     OW80400   2.174   6.375  13.827
26168SOL    HW180401   2.192   6.462  13.793
26168SOL    HW280402   2.259   6.333  13.833
26169SOL     OW80403  14.339  13.611  11.153
26169SOL    HW180404  14.341  13.706  11.140
26169SOL    HW280405  14.377  13.575  11.072
26170SOL     OW80406   9.780   2.571   8.718
26170SOL    HW180407   9.826   2.621   8.785
26170SOL    HW280408   9.841   2.501   8.694
26171SOL     OW80409   5.656   4.474   7.135
26171SOL    HW180410   5.578   4.431   7.098
26171SOL    HW280411   5.627   4.504   7.222
26172SOL     OW80412   6.731  13.879   2.583
26172SOL    HW180413   6.724  13.804   2.525
26172SOL    HW280414   6.821  13.910   2.571
26173SOL     OW80415   7.214   5.353   4.723
26173SOL    HW180416   7.210   5.383   4.632
26173SOL    HW280417   7.305   5.367   4.749
26174SOL     OW80418   3.086   7.449   8.837
26174SOL    HW180419   3.049   7.363   8.818
26174SOL    HW280420   3.085   7.494   8.753
26175SOL     OW80421   3.453  14.130  14.819
26175SOL    HW180422   3.435  14.041  14.846
26175SOL    HW280423   3.538  14.151  14.858
26176SOL     OW80424   6.967  10.803   8.229
26176SOL    HW180425   6.893  10.750   8.260
26176SOL    HW280426   6.990  10.764   8.144
26177SOL     OW80427   4.345   7.086   8.863
26177SOL    HW180428   4.428   7.125   8.834
26177SOL    HW280429   4.287   7.094   8.787
26178SOL     OW80430   1.688  13.160  14.583
26178SOL    HW180431   1.610  13.208  14.612
26178SOL    HW280432   1.710  13.103  14.657
26179SOL     OW80433   7.576   3.783  14.044
26179SOL    HW180434   7.546   3.704  14.000
26179SOL    HW280435   7.609   3.839  13.974
26180SOL     OW80436   7.546   0.653  10.306
26180SOL    HW180437   7.500   0.734  10.327
26180SOL    HW280438   7.511   0.627  10.220
26181SOL     OW80439   1.491  13.499   0.947
26181SOL    HW180440   1.396  13.485   0.946
26181SOL    HW280441   1.525  13.429   0.891
26182SOL     OW80442   6.880   5.316   5.042
26182SOL    HW180443   6.929   5.236   5.060
26182SOL    HW280444   6.793   5.300   5.077
26183SOL     OW80445  10.333   3.448   2.866
26183SOL    HW180446  10.425   3.421   2.866
26183SOL    HW280447  10.330   3.524   2.808
26184SOL     OW80448   4.499   5.211   0.865
26184SOL    HW180449   4.576   5.153   0.859
26184SOL    HW280450   4.429   5.162   0.822
26185SOL     OW80451   5.311   2.183  13.739
26185SOL    HW180452   5.301   2.277  13.726
26185SOL    HW280453   5.316   2.147  13.651
26186SOL     OW80454   2.996   1.178   7.747
26186SOL    HW180455   3.058   1.247   7.768
26186SOL    HW280456   3.050   1.102   7.727
26187SOL     OW80457   1.449  12.354  12.505
26187SOL    HW180458   1.402  12.345  12.588
26187SOL    HW280459   1.439  12.269  12.462
26188SOL     OW80460  11.036  11.867   0.754
26188SOL    HW180461  10.971  11.817   0.804
26188SOL    HW280462  11.068  11.932   0.816
26189SOL     OW80463   4.178   7.792   3.434
26189SOL    HW180464   4.113   7.762   3.370
26189SOL    HW280465   4.132   7.787   3.518
26190SOL     OW80466   6.908  14.599   2.459
26190SOL    HW180467   6.847  14.627   2.392
26190SOL    HW280468   6.900  14.503   2.460
26191SOL     OW80469  10.164   5.909  13.095
26191SOL    HW180470  10.197   5.939  13.010
26191SOL    HW280471  10.094   5.847  13.073
26192SOL     OW80472   8.765  14.600  11.766
26192SOL    HW180473   8.795  14.537  11.831
26192SOL    HW280474   8.678  14.627  11.796
26193SOL     OW80475  11.142  13.673  10.132
26193SOL    HW180476  11.152  13.668  10.037
26193SOL    HW280477  11.137  13.582  10.161
26194SOL     OW80478  10.349   3.116  13.634
26194SOL    HW180479  10.379   3.044  13.579
26194SOL    HW280480  10.380   3.195  13.589
26195SOL     OW80481   5.841  10.121   3.503
26195SOL    HW180482   5.821  10.029   3.484
26195SOL    HW280483   5.928  10.135   3.465
26196SOL     OW80484  13.445  12.735   3.563
26196SOL    HW180485  13.432  12.750   3.657
26196SOL    HW280486  13.504  12.660   3.558
26197SOL     OW80487   7.974   0.059  14.211
26197SOL    HW180488   7.999  14.856  14.169
26197SOL    HW280489   8.008   0.053  14.300
26198SOL     OW80490   0.246  13.901  11.198
26198SOL    HW180491   0.187  13.952  11.254
26198SOL    HW280492   0.278  13.964  11.133
26199SOL     OW80493   9.004   4.768  12.286
26199SOL    HW180494   8.916   4.800  12.268
26199SOL    HW280495   9.018   4.698  12.221
26200SOL     OW80496  12.134  11.032   3.291
26200SOL    HW180497  12.047  11.070   3.302
26200SOL    HW280498  12.193  11.107   3.286
26201SOL     OW80499  14.632   7.069   3.742
26201SOL    HW180500  14.702   7.127   3.713
26201SOL    HW280501  14.676   6.988   3.767
26202SOL     OW80502   3.770   3.231   6.008
26202SOL    HW180503   3.706   3.216   6.078
26202SOL    HW280504   3.788   3.143   5.974
26203SOL     OW80505  11.704  13.678   8.073
26203SOL    HW180506  11.612  13.651   8.073
26203SOL    HW280507  11.738  13.646   8.156
26204SOL     OW80508   3.929  13.994   8.164
26204SOL    HW180509   4.012  13.959   8.195
26204SOL    HW280510   3.863  13.948   8.216
26205SOL     OW80511   6.382   0.744  12.671
26205SOL    HW180512   6.426   0.766  12.754
26205SOL    HW280513   6.426   0.798  12.606
26206SOL     OW80514  14.594  12.380  11.090
26206SOL    HW180515  14.539  12.442  11.042
26206SOL    HW280516  14.588  12.299  11.040
26207SOL     OW80517  10.170  13.343   6.852
26207SOL    HW180518  10.105  13.406   6.820
26207SOL    HW280519  10.177  13.278   6.781
26208SOL     OW80520   2.579   9.328  13.850
26208SOL    HW180521   2.489   9.357  13.867
26208SOL    HW280522   2.631   9.367  13.920
26209SOL     OW80523   0.915  11.712   9.480
26209SOL    HW180524   0.923  11.640   9.417
26209SOL    HW280525   0.888  11.670   9.561
26210SOL     OW80526   3.035  10.048   7.407
26210SOL    HW180527   3.004  10.127   7.362
26210SOL    HW280528   3.017   9.977   7.346
26211SOL     OW80529   7.560   0.187   2.771
26211SOL    HW180530   7.503   0.164   2.698
26211SOL    HW280531   7.500   0.215   2.840
26212SOL     OW80532  10.155   2.970   6.695
26212SOL    HW180533  10.170   2.999   6.785
26212SOL    HW280534  10.063   2.993   6.678
26213SOL     OW80535   8.986   1.565  11.791
26213SOL    HW180536   9.055   1.621  11.827
26213SOL    HW280537   9.013   1.550  11.700
26214SOL     OW80538  12.646   3.465   5.413
26214SOL    HW180539  12.603   3.446   5.496
26214SOL    HW280540  12.574   3.482   5.352
26215SOL     OW80541   3.537   0.798   5.849
26215SOL    HW180542   3.507   0.888   5.847
26215SOL    HW280543   3.610   0.795   5.788
26216SOL     OW80544   2.969   5.904  14.189
26216SOL    HW180545   2.945   5.955  14.112
26216SOL    HW280546   2.893   5.908  14.246
26217SOL     OW80547   0.471  12.454   5.774
26217SOL    HW180548   0.383  12.480   5.803
26217SOL    HW280549   0.526  12.469   5.851
26218SOL     OW80550   7.255  10.024   1.521
26218SOL    HW180551   7.240   9.961   1.450
26218SOL    HW280552   7.254  10.109   1.477
26219SOL     OW80553   2.357   7.967  12.685
26219SOL    HW180554   2.426   7.918  12.730
26219SOL    HW280555   2.344   8.045  12.739
26220SOL     OW80556   9.311   9.069   5.990
26220SOL    HW180557   9.243   9.026   6.042
26220SOL    HW280558   9.267   9.144   5.951
26221SOL     OW80559   1.541   3.541   9.578
26221SOL    HW180560   1.531   3.547   9.673
26221SOL    HW280561   1.453   3.524   9.545
26222SOL     OW80562   4.797   0.736  12.452
26222SOL    HW180563   4.858   0.807  12.472
26222SOL    HW280564   4.730   0.741  12.521
26223SOL     OW80565   4.706   8.046   3.731
26223SOL    HW180566   4.629   8.097   3.707
26223SOL    HW280567   4.678   7.955   3.724
26224SOL     OW80568  11.664   0.864  10.056
26224SOL    HW180569  11.654   0.885  10.148
26224SOL    HW280570  11.682   0.770  10.054
26225SOL     OW80571   6.757   2.753  11.959
26225SOL    HW180572   6.770   2.834  12.008
26225SOL    HW280573   6.666   2.729  11.976
26226SOL     OW80574   9.814   9.026   7.075
26226SOL    HW180575   9.725   9.000   7.100
26226SOL    HW280576   9.819   9.118   7.099
26227SOL     OW80577   2.526   5.355   8.992
26227SOL    HW180578   2.458   5.421   9.009
26227SOL    HW280579   2.541   5.314   9.077
26228SOL     OW80580   5.768   7.262  13.649
26228SOL    HW180581   5.702   7.196  13.670
26228SOL    HW280582   5.717   7.336  13.615
26229SOL     OW80583   0.324  12.519   6.804
26229SOL    HW180584   0.313  12.426   6.786
26229SOL    HW280585   0.306  12.528   6.898
26230SOL     OW80586  10.229   8.757  12.412
26230SOL    HW180587  10.145   8.803  12.410
26230SOL    HW280588  10.209   8.672  12.450
26231SOL     OW80589  10.223  14.855   4.305
26231SOL    HW180590  10.259  14.775   4.343
26231SOL    HW280591  10.158   0.006   4.369
26232SOL     OW80592   4.154   2.422  11.823
26232SOL    HW180593   4.067   2.419  11.783
26232SOL    HW280594   4.187   2.333  11.816
26233SOL     OW80595   1.938  12.550  12.416
26233SOL    HW180596   1.897  12.636  12.415
26233SOL    HW280597   2.030  12.566  12.397
26234SOL     OW80598   4.321  12.728   0.926
26234SOL    HW180599   4.260  12.791   0.964
26234SOL    HW280600   4.287  12.642   0.951
26235SOL     OW80601  14.461   0.929   6.543
26235SOL    HW180602  14.405   0.883   6.479
26235SOL    HW280603  14.402   0.992   6.585
26236SOL     OW80604   8.321   8.748   4.939
26236SOL    HW180605   8.317   8.831   4.986
26236SOL    HW280606   8.315   8.681   5.008
26237SOL     OW80607   2.495  12.759   2.009
26237SOL    HW180608   2.500  12.851   1.983
26237SOL    HW280609   2.418  12.725   1.963
26238SOL     OW80610   1.139  14.277   3.627
26238SOL    HW180611   1.149  14.199   3.573
26238SOL    HW280612   1.108  14.344   3.567
26239SOL     OW80613   3.000  11.127  12.900
26239SOL    HW180614   2.949  11.087  12.970
26239SOL    HW280615   3.018  11.216  12.930
26240SOL     OW80616   5.797   7.655   6.171
26240SOL    HW180617   5.840   7.719   6.227
26240SOL    HW280618   5.868   7.603   6.135
26241SOL     OW80619  10.294   6.482  12.097
26241SOL    HW180620  10.315   6.536  12.173
26241SOL    HW280621  10.203   6.505  12.075
26242SOL     OW80622  12.491   4.760  14.546
26242SOL    HW180623  12.467   4.800  14.630
26242SOL    HW280624  12.424   4.790  14.485
26243SOL     OW80625   1.166   3.051   5.957
26243SOL    HW180626   1.187   2.964   5.992
26243SOL    HW280627   1.078   3.069   5.990
26244SOL     OW80628   1.365   3.548   8.747
26244SOL    HW180629   1.417   3.625   8.770
26244SOL    HW280630   1.345   3.507   8.831
26245SOL     OW80631   8.821   9.557  10.789
26245SOL    HW180632   8.823   9.640  10.836
26245SOL    HW280633   8.770   9.499  10.846
26246SOL     OW80634   2.569   2.211   8.832
26246SOL    HW180635   2.477   2.195   8.811
26246SOL    HW280636   2.617   2.143   8.785
26247SOL     OW80637   8.924  12.243   2.417
26247SOL    HW180638   8.916  12.337   2.403
26247SOL    HW280639   9.017  12.229   2.432
26248SOL     OW80640  11.544   5.677  13.980
26248SOL    HW180641  11.550   5.645  13.890
26248SOL    HW280642  11.470   5.630  14.017
26249SOL     OW80643  13.138   9.323   6.108
26249SOL    HW180644  13.180   9.338   6.192
26249SOL    HW280645  13.073   9.393   6.100
26250SOL     OW80646   3.263   7.864   8.218
26250SOL    HW180647   3.299   7.952   8.208
26250SOL    HW280648   3.231   7.861   8.308
26251SOL     OW80649   1.692   1.373   1.690
26251SOL    HW180650   1.625   1.439   1.709
26251SOL    HW280651   1.741   1.410   1.616
26252SOL     OW80652   2.520  13.902  13.580
26252SOL    HW180653   2.450  13.849  13.618
26252SOL    HW280654   2.483  13.990  13.575
26253SOL     OW80655   6.280   6.120   2.333
26253SOL    HW180656   6.218   6.066   2.382
26253SOL    HW280657   6.356   6.127   2.390
26254SOL     OW80658   3.152  11.802   6.715
26254SOL    HW180659   3.109  11.735   6.663
26254SOL    HW280660   3.081  11.848   6.759
26255SOL     OW80661   1.110   1.952   1.193
26255SOL    HW180662   1.072   2.025   1.144
26255SOL    HW280663   1.037   1.890   1.203
26256SOL     OW80664  11.841  11.972   6.843
26256SOL    HW180665  11.816  11.907   6.909
26256SOL    HW280666  11.783  11.954   6.768
26257SOL     OW80667  12.013   1.153  11.656
26257SOL    HW180668  12.075   1.098  11.608
26257SOL    HW280669  11.993   1.104  11.735
26258SOL     OW80670   3.529  14.633   4.263
26258SOL    HW180671   3.462  14.682   4.215
26258SOL    HW280672   3.574  14.582   4.195
26259SOL     OW80673  12.746   8.090  12.669
26259SOL    HW180674  12.797   8.088  12.750
26259SOL    HW280675  12.723   7.998  12.653
26260SOL     OW80676   4.037  12.941   8.307
26260SOL    HW180677   4.006  12.854   8.281
26260SOL    HW280678   3.958  12.995   8.307
26261SOL     OW80679  12.536  11.820   2.887
26261SOL    HW180680  12.444  11.817   2.914
26261SOL    HW280681  12.576  11.746   2.932
26262SOL     OW80682   4.549  10.767   2.230
26262SOL    HW180683   4.601  10.687   2.235
26262SOL    HW280684   4.487  10.751   2.160
26263SOL     OW80685   0.778   7.228   5.748
26263SOL    HW180686   0.753   7.320   5.737
26263SOL    HW280687   0.869   7.224   5.721
26264SOL     OW80688  13.009  11.018   3.033
26264SOL    HW180689  13.037  11.053   3.118
26264SOL    HW280690  13.090  10.985   2.993
26265SOL     OW80691  12.972   9.882   5.809
26265SOL    HW180692  12.913   9.955   5.829
26265SOL    HW280693  13.048   9.924   5.767
26266SOL     OW80694   6.605   2.088   1.029
26266SOL    HW180695   6.691   2.121   1.059
26266SOL    HW280696   6.577   2.030   1.100
26267SOL     OW80697   6.240   4.783   7.537
26267SOL    HW180698   6.153   4.753   7.508
26267SOL    HW280699   6.248   4.749   7.626
26268SOL     OW80700   5.737   0.072   7.715
26268SOL    HW180701   5.677   0.032   7.653
26268SOL    HW280702   5.786  14.878   7.752
26269SOL     OW80703  11.932   7.253  13.440
26269SOL    HW180704  11.879   7.211  13.508
26269SOL    HW280705  11.878   7.248  13.361
26270SOL     OW80706   1.758  11.500  12.272
26270SOL    HW180707   1.837  11.450  12.250
26270SOL    HW280708   1.780  11.543  12.355
26271SOL     OW80709   3.908  13.980  12.905
26271SOL    HW180710   3.967  14.003  12.976
26271SOL    HW280711   3.891  13.887  12.917
26272SOL     OW80712  14.178   7.833   0.329
26272SOL    HW180713  14.137   7.747   0.330
26272SOL    HW280714  14.182   7.860   0.420
26273SOL     OW80715   8.303   5.878   0.309
26273SOL    HW180716   8.284   5.925   0.228
26273SOL    HW280717   8.354   5.802   0.281
26274SOL     OW80718   0.033   3.352   5.394
26274SOL    HW180719  14.870   3.436   5.379
26274SOL    HW280720  14.840   3.290   5.407
26275SOL     OW80721   7.913   0.213   1.305
26275SOL    HW180722   7.886   0.292   1.258
26275SOL    HW280723   7.877   0.224   1.393
26276SOL     OW80724   5.171   3.460  10.245
26276SOL    HW180725   5.189   3.455  10.151
26276SOL    HW280726   5.202   3.376  10.280
26277SOL     OW80727   7.495   5.836   0.582
26277SOL    HW180728   7.531   5.880   0.659
26277SOL    HW280729   7.490   5.744   0.606
26278SOL     OW80730  10.119   8.575   1.190
26278SOL    HW180731  10.140   8.616   1.274
26278SOL    HW280732  10.198   8.526   1.167
26279SOL     OW80733   7.387   6.083  10.552
26279SOL    HW180734   7.452   6.129  10.605
26279SOL    HW280735   7.310   6.139  10.553
26280SOL     OW80736   9.630   5.129   8.383
26280SOL    HW180737   9.551   5.094   8.423
26280SOL    HW280738   9.619   5.224   8.385
26281SOL     OW80739  14.021  11.349   9.376
26281SOL    HW180740  13.945  11.345   9.318
26281SOL    HW280741  13.997  11.296   9.451
26282SOL     OW80742   4.823   1.844  11.194
26282SOL    HW180743   4.733   1.829  11.163
26282SOL    HW280744   4.853   1.758  11.222
26283SOL     OW80745   9.770   4.702   0.512
26283SOL    HW180746   9.718   4.782   0.512
26283SOL    HW280747   9.730   4.647   0.444
26284SOL     OW80748   3.575   1.915   2.342
26284SOL    HW180749   3.578   1.998   2.390
26284SOL    HW280750   3.663   1.906   2.304
26285SOL     OW80751   3.853   5.807   8.525
26285SOL    HW180752   3.791   5.831   8.457
26285SOL    HW280753   3.855   5.883   8.584
26286SOL     OW80754   0.310   1.858   9.899
26286SOL    HW180755   0.228   1.809   9.907
26286SOL    HW280756   0.376   1.801   9.938
26287SOL     OW80757  10.030  14.113   6.639
26287SOL    HW180758  10.035  14.159   6.555
26287SOL    HW280759   9.937  14.113   6.661
26288SOL     OW80760  10.666   2.379   5.895
26288SOL    HW180761  10.648   2.287   5.879
26288SOL    HW280762  10.622   2.398   5.978
26289SOL     OW80763  11.755   3.664  12.743
26289SOL    HW180764  11.821   3.730  12.761
26289SOL    HW280765  11.672   3.712  12.742
26290SOL     OW80766   5.744   2.743  13.451
26290SOL    HW180767   5.734   2.806  13.380
26290SOL    HW280768   5.674   2.680  13.437
26291SOL     OW80769   2.604   1.222  13.173
26291SOL    HW180770   2.609   1.315  13.194
26291SOL    HW280771   2.685   1.185  13.207
26292SOL     OW80772  11.090  10.404   0.592
26292SOL    HW180773  11.022  10.365   0.537
26292SOL    HW280774  11.058  10.492   0.610
26293SOL     OW80775  12.658   1.880   9.737
26293SOL    HW180776  12.612   1.798   9.719
26293SOL    HW280777  12.629   1.905   9.825
26294SOL     OW80778  12.911   8.345   1.239
26294SOL    HW180779  12.938   8.289   1.166
26294SOL    HW280780  12.891   8.430   1.199
26295SOL     OW80781   5.262  14.115  13.195
26295SOL    HW180782   5.290  14.043  13.138
26295SOL    HW280783   5.166  14.110  13.194
26296SOL     OW80784   3.452   6.498   0.147
26296SOL    HW180785   3.422   6.468   0.061
26296SOL    HW280786   3.547   6.509   0.136
26297SOL     OW80787   0.462   3.230   0.840
26297SOL    HW180788   0.514   3.308   0.860
26297SOL    HW280789   0.375   3.250   0.874
26298SOL     OW80790  11.819   4.749   8.077
26298SOL    HW180791  11.872   4.816   8.033
26298SOL    HW280792  11.863   4.736   8.161
26299SOL     OW80793  11.379   8.039   6.039
26299SOL    HW180794  11.337   8.006   5.959
26299SOL    HW280795  11.374   7.966   6.101
26300SOL     OW80796  12.315   0.809   2.591
26300SOL    HW180797  12.375   0.840   2.523
26300SOL    HW280798  12.359   0.830   2.674
26301SOL     OW80799   6.514  12.529   2.934
26301SOL    HW180800   6.581  12.477   2.889
26301SOL    HW280801   6.443  12.466   2.952
26302SOL     OW80802   9.375   5.830   8.619
26302SOL    HW180803   9.392   5.892   8.548
26302SOL    HW280804   9.402   5.877   8.699
26303SOL     OW80805   7.134  10.729  14.398
26303SOL    HW180806   7.057  10.782  14.381
26303SOL    HW280807   7.182  10.729  14.315
26304SOL     OW80808   6.837   6.823   3.392
26304SOL    HW180809   6.898   6.816   3.319
26304SOL    HW280810   6.880   6.882   3.454
26305SOL     OW80811  11.433   1.751  10.855
26305SOL    HW180812  11.462   1.712  10.773
26305SOL    HW280813  11.373   1.686  10.892
26306SOL     OW80814   7.298   6.868  12.318
26306SOL    HW180815   7.237   6.828  12.380
26306SOL    HW280816   7.258   6.854  12.232
26307SOL     OW80817   9.312   1.927   6.433
26307SOL    HW180818   9.280   1.956   6.519
26307SOL    HW280819   9.396   1.885   6.452
26308SOL     OW80820   6.967   9.698   8.248
26308SOL    HW180821   6.901   9.665   8.187
26308SOL    HW280822   7.042   9.720   8.193
26309SOL     OW80823  14.042   6.047  11.657
26309SOL    HW180824  14.018   6.140  11.666
26309SOL    HW280825  14.078   6.041  11.568
26310SOL     OW80826  14.293   4.778  10.460
26310SOL    HW180827  14.291   4.742  10.371
26310SOL    HW280828  14.385   4.778  10.485
26311SOL     OW80829   3.964  12.953  13.372
26311SOL    HW180830   4.043  13.006  13.382
26311SOL    HW280831   3.921  12.989  13.294
26312SOL     OW80832   7.484   8.845   0.691
26312SOL    HW180833   7.416   8.805   0.636
26312SOL    HW280834   7.436   8.880   0.766
26313SOL     OW80835  13.864   5.546  13.922
26313SOL    HW180836  13.781   5.593  13.914
26313SOL    HW280837  13.931   5.613  13.910
26314SOL     OW80838   1.665   5.995   0.120
26314SOL    HW180839   1.574   5.998   0.150
26314SOL    HW280840   1.678   5.906   0.090
26315SOL     OW80841   5.640   0.988   1.965
26315SOL    HW180842   5.559   1.025   1.931
26315SOL    HW280843   5.708   1.049   1.937
26316SOL     OW80844   8.574   8.639  10.220
26316SOL    HW180845   8.669   8.645  10.228
26316SOL    HW280846   8.550   8.566  10.276
26317SOL     OW80847  14.177   5.152   7.732
26317SOL    HW180848  14.163   5.087   7.801
26317SOL    HW280849  14.221   5.225   7.776
26318SOL     OW80850   8.452   1.320   5.969
26318SOL    HW180851   8.405   1.401   5.952
26318SOL    HW280852   8.538   1.334   5.929
26319SOL     OW80853  14.848  11.004   7.208
26319SOL    HW180854  14.846  10.950   7.287
26319SOL    HW280855  14.875  11.091   7.238
26320SOL     OW80856   1.475   8.532   1.411
26320SOL    HW180857   1.503   8.542   1.502
26320SOL    HW280858   1.383   8.560   1.411
26321SOL     OW80859  13.827  11.869   2.623
26321SOL    HW180860  13.841  11.909   2.537
26321SOL    HW280861  13.850  11.777   2.610
26322SOL     OW80862   5.417  13.849  13.125
26322SOL    HW180863   5.440  13.760  13.149
26322SOL    HW280864   5.475  13.904  13.178
26323SOL     OW80865  11.484   2.712   5.236
26323SOL    HW180866  11.499   2.768   5.160
26323SOL    HW280867  11.433   2.638   5.203
26324SOL     OW80868  10.358   8.423   1.986
26324SOL    HW180869  10.423   8.463   1.929
26324SOL    HW280870  10.277   8.426   1.934
26325SOL     OW80871   9.034   6.128   4.767
26325SOL    HW180872   9.016   6.142   4.860
26325SOL    HW280873   8.950   6.101   4.730
26326SOL     OW80874   0.405  13.595   1.843
26326SOL    HW180875   0.316  13.627   1.830
26326SOL    HW280876   0.396  13.500   1.854
26327SOL     OW80877   4.573   4.433   9.680
26327SOL    HW180878   4.539   4.502   9.624
26327SOL    HW280879   4.635   4.477   9.738
26328SOL     OW80880  13.474  14.315  10.926
26328SOL    HW180881  13.402  14.297  10.987
26328SOL    HW280882  13.501  14.229  10.895
26329SOL     OW80883  12.976   5.905  14.777
26329SOL    HW180884  12.959   5.969  14.846
26329SOL    HW280885  12.916   5.930  14.706
26330SOL     OW80886   9.930  14.085  13.261
26330SOL    HW180887   9.854  14.140  13.243
26330SOL    HW280888   9.978  14.132  13.329
26331SOL     OW80889   1.876   5.999   0.307
26331SOL    HW180890   1.939   5.943   0.262
26331SOL    HW280891   1.798   5.997   0.252
26332SOL     OW80892  11.668   7.736   0.571
26332SOL    HW180893  11.627   7.667   0.622
26332SOL    HW280894  11.674   7.811   0.631
26333SOL     OW80895   5.165   8.274   0.363
26333SOL    HW180896   5.123   8.237   0.440
26333SOL    HW280897   5.206   8.355   0.394
26334SOL     OW80898  14.393  13.818   9.314
26334SOL    HW180899  14.447  13.841   9.390
26334SOL    HW280900  14.427  13.873   9.244
26335SOL     OW80901   1.396  12.156  14.733
26335SOL    HW180902   1.356  12.072  14.712
26335SOL    HW280903   1.326  12.220  14.716
26336SOL     OW80904  11.367  14.795   7.444
26336SOL    HW180905  11.352   0.006   7.471
26336SOL    HW280906  11.427  14.802   7.370
26337SOL     OW80907  11.190  14.797   2.204
26337SOL    HW180908  11.111  14.791   2.257
26337SOL    HW280909  11.166  14.856   2.133
26338SOL     OW80910   3.269   1.803   8.021
26338SOL    HW180911   3.313   1.840   8.097
26338SOL    HW280912   3.192   1.858   8.009
26339SOL     OW80913   0.263  13.538   8.287
26339SOL    HW180914   0.239  13.589   8.209
26339SOL    HW280915   0.279  13.450   8.253
26340SOL     OW80916   0.513   0.731  14.638
26340SOL    HW180917   0.562   0.650  14.649
26340SOL    HW280918   0.465   0.720  14.556
26341SOL     OW80919   8.308   9.200   5.658
26341SOL    HW180920   8.376   9.163   5.602
26341SOL    HW280921   8.226   9.166   5.622
26342SOL     OW80922  13.636   3.520   2.974
26342SOL    HW180923  13.639   3.474   2.890
26342SOL    HW280924  13.728   3.541   2.993
26343SOL     OW80925   0.882  14.330   7.598
26343SOL    HW180926   0.804  14.293   7.555
26343SOL    HW280927   0.952  14.267   7.579
26344SOL     OW80928   7.921   0.225   9.103
26344SOL    HW180929   7.987   0.252   9.166
26344SOL    HW280930   7.902   0.134   9.125
26345SOL     OW80931   2.958   3.645   4.118
26345SOL    HW180932   2.918   3.696   4.048
26345SOL    HW280933   3.052   3.654   4.104
26346SOL     OW80934   2.761   3.887   3.392
26346SOL    HW180935   2.746   3.920   3.304
26346SOL    HW280936   2.674   3.886   3.433
26347SOL     OW80937  10.506   6.515  13.596
26347SOL    HW180938  10.502   6.558  13.681
26347SOL    HW280939  10.598   6.490  13.586
26348SOL     OW80940  12.877  13.056   5.437
26348SOL    HW180941  12.867  13.056   5.532
26348SOL    HW280942  12.790  13.074   5.403
26349SOL     OW80943   2.064   8.633  12.029
26349SOL    HW180944   1.997   8.691  11.994
26349SOL    HW280945   2.030   8.545  12.016
26350SOL     OW80946  14.709   5.790  10.191
26350SOL    HW180947  14.713   5.863  10.129
26350SOL    HW280948  14.789   5.741  10.175
26351SOL     OW80949  14.734   0.783  14.333
26351SOL    HW180950  14.710   0.874  14.352
26351SOL    HW280951  14.651   0.740  14.312
26352SOL     OW80952   0.621   2.749   7.109
26352SOL    HW180953   0.681   2.682   7.077
26352SOL    HW280954   0.576   2.707   7.182
26353SOL     OW80955   4.884   2.951   9.144
26353SOL    HW180956   4.855   2.978   9.231
26353SOL    HW280957   4.926   2.866   9.158
26354SOL     OW80958   5.013   1.362   3.150
26354SOL    HW180959   5.064   1.432   3.193
26354SOL    HW280960   4.948   1.337   3.216
26355SOL     OW80961   1.644   0.039   3.807
26355SOL    HW180962   1.624   0.053   3.714
26355SOL    HW280963   1.585  14.849   3.834
26356SOL     OW80964  13.921   0.475   2.941
26356SOL    HW180965  13.856   0.416   2.904
26356SOL    HW280966  13.952   0.431   3.020
26357SOL     OW80967   9.361  14.409   9.021
26357SOL    HW180968   9.344  14.319   9.049
26357SOL    HW280969   9.304  14.463   9.075
26358SOL     OW80970  13.285   4.138   1.403
26358SOL    HW180971  13.257   4.151   1.494
26358SOL    HW280972  13.377   4.113   1.409
26359SOL     OW80973   1.678   0.169  14.692
26359SOL    HW180974   1.657   0.230  14.620
26359SOL    HW280975   1.764   0.134  14.669
26360SOL     OW80976   2.024   3.128  10.359
26360SOL    HW180977   2.043   3.154  10.269
26360SOL    HW280978   2.074   3.189  10.413
26361SOL     OW80979   7.014   7.447   2.916
26361SOL    HW180980   7.078   7.512   2.947
26361SOL    HW280981   6.930   7.493   2.920
26362SOL     OW80982   2.166  13.684   1.432
26362SOL    HW180983   2.175  13.731   1.516
26362SOL    HW280984   2.078  13.706   1.402
26363SOL     OW80985   2.064  13.447   5.408
26363SOL    HW180986   2.033  13.532   5.376
26363SOL    HW280987   2.136  13.424   5.348
26364SOL     OW80988   8.276   4.583  14.660
26364SOL    HW180989   8.272   4.520  14.732
26364SOL    HW280990   8.186   4.614  14.651
26365SOL     OW80991   8.908   5.093  13.206
26365SOL    HW180992   8.967   5.034  13.253
26365SOL    HW280993   8.962   5.133  13.138
26366SOL     OW80994   3.526   7.621  13.574
26366SOL    HW180995   3.505   7.655  13.661
26366SOL    HW280996   3.451   7.645  13.520
26367SOL     OW80997   9.760   9.136  10.383
26367SOL    HW180998   9.808   9.057  10.405
26367SOL    HW280999   9.757   9.186  10.465
26368SOL     OW81000  11.158   6.424   9.060
26368SOL    HW181001  11.071   6.400   9.090
26368SOL    HW281002  11.211   6.345   9.074
26369SOL     OW81003   3.179   4.225   4.396
26369SOL    HW181004   3.182   4.290   4.466
26369SOL    HW281005   3.237   4.261   4.328
26370SOL     OW81006  10.186   5.216  10.507
26370SOL    HW181007  10.278   5.216  10.482
26370SOL    HW281008  10.141   5.177  10.432
26371SOL     OW81009   4.517   2.633   9.601
26371SOL    HW181010   4.520   2.609   9.694
26371SOL    HW281011   4.467   2.562   9.560
26372SOL     OW81012   3.916   5.809   1.920
26372SOL    HW181013   3.961   5.874   1.866
26372SOL    HW281014   3.927   5.726   1.873
26373SOL     OW81015   8.574   1.532  13.154
26373SOL    HW181016   8.490   1.554  13.195
26373SOL    HW281017   8.638   1.540  13.226
26374SOL     OW81018   1.768  14.614   5.596
26374SOL    HW181019   1.808  14.527   5.587
26374SOL    HW281020   1.695  14.614   5.534
26375SOL     OW81021  13.183   7.548   8.049
26375SOL    HW181022  13.188   7.465   8.097
26375SOL    HW281023  13.103   7.541   7.998
26376SOL     OW81024  13.169  11.782   5.625
26376SOL    HW181025  13.263  11.792   5.642
26376SOL    HW281026  13.155  11.687   5.628
26377SOL     OW81027  13.378   9.614   8.512
26377SOL    HW181028  13.428   9.670   8.571
26377SOL    HW281029  13.444   9.560   8.468
26378SOL     OW81030  14.384   0.213  10.891
26378SOL    HW181031  14.395   0.207  10.986
26378SOL    HW281032  14.472   0.198  10.856
26379SOL     OW81033   6.538   3.834   3.093
26379SOL    HW181034   6.512   3.879   3.174
26379SOL    HW281035   6.482   3.756   3.090
26380SOL     OW81036  11.711   6.295   2.980
26380SOL    HW181037  11.751   6.363   2.925
26380SOL    HW281038  11.716   6.331   3.069
26381SOL     OW81039  12.862  12.298   5.699
26381SOL    HW181040  12.896  12.296   5.788
26381SOL    HW281041  12.853  12.206   5.674
26382SOL     OW81042   9.293   5.449   8.661
26382SOL    HW181043   9.341   5.529   8.639
26382SOL    HW281044   9.214   5.480   8.706
26383SOL     OW81045   6.894  10.886  12.453
26383SOL    HW181046   6.855  10.953  12.397
26383SOL    HW281047   6.825  10.820  12.464
26384SOL     OW81048   7.050   8.355   8.785
26384SOL    HW181049   7.036   8.416   8.713
26384SOL    HW281050   6.963   8.335   8.818
26385SOL     OW81051   4.812   4.603   6.309
26385SOL    HW181052   4.863   4.527   6.335
26385SOL    HW281053   4.743   4.568   6.253
26386SOL     OW81054  11.455   3.976   3.488
26386SOL    HW181055  11.458   3.881   3.500
26386SOL    HW281056  11.507   4.011   3.561
26387SOL     OW81057   9.751   7.013   3.266
26387SOL    HW181058   9.805   7.072   3.319
26387SOL    HW281059   9.661   7.039   3.284
26388SOL     OW81060  12.547   9.135  12.437
26388SOL    HW181061  12.633   9.101  12.412
26388SOL    HW281062  12.556   9.154  12.531
26389SOL     OW81063   7.097   4.358   2.907
26389SOL    HW181064   7.063   4.436   2.865
26389SOL    HW281065   7.082   4.371   3.000
26390SOL     OW81066   7.115   4.923  14.555
26390SOL    HW181067   7.187   4.924  14.491
26390SOL    HW281068   7.136   4.850  14.613
26391SOL     OW81069   9.230   8.946  14.522
26391SOL    HW181070   9.183   8.900  14.592
26391SOL    HW281071   9.204   8.900  14.442
26392SOL     OW81072   0.323   0.120   5.071
26392SOL    HW181073   0.316   0.051   5.137
26392SOL    HW281074   0.343   0.199   5.121
26393SOL     OW81075   6.289   5.048   7.453
26393SOL    HW181076   6.298   5.009   7.366
26393SOL    HW281077   6.317   4.979   7.513
26394SOL     OW81078   9.938   4.732  13.664
26394SOL    HW181079   9.881   4.779  13.725
26394SOL    HW281080   9.960   4.651  13.708
26395SOL     OW81081   5.270  12.843   4.720
26395SOL    HW181082   5.258  12.834   4.626
26395SOL    HW281083   5.204  12.906   4.747
26396SOL     OW81084   0.231   0.234  14.736
26396SOL    HW181085   0.247   0.182  14.657
26396SOL    HW281086   0.156   0.289  14.714
26397SOL     OW81087   2.488   1.960  10.600
26397SOL    HW181088   2.469   1.870  10.624
26397SOL    HW281089   2.533   1.997  10.676
26398SOL     OW81090   8.703   1.337   5.276
26398SOL    HW181091   8.694   1.393   5.198
26398SOL    HW281092   8.720   1.250   5.241
26399SOL     OW81093   7.043   6.581   9.828
26399SOL    HW181094   7.008   6.669   9.839
26399SOL    HW281095   7.000   6.548   9.749
26400SOL     OW81096   1.925   7.405  11.647
26400SOL    HW181097   1.998   7.346  11.626
26400SOL    HW281098   1.848   7.348  11.646
26401SOL     OW81099  10.499  11.489   3.053
26401SOL    HW181100  10.568  11.538   3.009
26401SOL    HW281101  10.472  11.546   3.125
26402SOL     OW81102   6.343   9.110   0.995
26402SOL    HW181103   6.416   9.057   1.029
26402SOL    HW281104   6.384   9.192   0.970
26403SOL     OW81105   9.704   5.546   9.799
26403SOL    HW181106   9.720   5.594   9.881
26403SOL    HW281107   9.695   5.455   9.826
26404SOL     OW81108   8.957   4.876   1.999
26404SOL    HW181109   8.966   4.969   1.979
26404SOL    HW281110   8.879   4.872   2.056
26405SOL     OW81111  11.574   7.804   5.049
26405SOL    HW181112  11.554   7.890   5.012
26405SOL    HW281113  11.666   7.790   5.026
26406SOL     OW81114   8.623   9.271   5.928
26406SOL    HW181115   8.641   9.177   5.923
26406SOL    HW281116   8.536   9.277   5.968
26407SOL     OW81117  11.334   4.315   4.145
26407SOL    HW181118  11.421   4.354   4.147
26407SOL    HW281119  11.274   4.390   4.144
26408SOL     OW81120   2.129   7.166   9.246
26408SOL    HW181121   2.173   7.098   9.196
26408SOL    HW281122   2.092   7.225   9.179
26409SOL     OW81123  14.762   1.846  11.682
26409SOL    HW181124  14.684   1.846  11.625
26409SOL    HW281125  14.787   1.754  11.688
26410SOL     OW81126  10.885   4.561  11.511
26410SOL    HW181127  10.920   4.650  11.517
26410SOL    HW281128  10.847   4.545  11.597
26411SOL     OW81129  14.375   1.071   7.380
26411SOL    HW181130  14.374   0.993   7.324
26411SOL    HW281131  14.466   1.101   7.377
26412SOL     OW81132  14.360   2.507   3.338
26412SOL    HW181133  14.332   2.552   3.418
26412SOL    HW281134  14.455   2.520   3.336
26413SOL     OW81135   3.449   3.363   4.941
26413SOL    HW181136   3.372   3.361   4.883
26413SOL    HW281137   3.512   3.418   4.895
26414SOL     OW81138   6.003   2.308  10.630
26414SOL    HW181139   6.064   2.371  10.592
26414SOL    HW281140   6.050   2.224  10.625
26415SOL     OW81141  13.742   1.030   6.820
26415SOL    HW181142  13.785   0.945   6.810
26415SOL    HW281143  13.681   1.018   6.892
26416SOL     OW81144   0.719   6.724   0.280
26416SOL    HW181145   0.797   6.769   0.247
26416SOL    HW281146   0.674   6.791   0.332
26417SOL     OW81147   5.955  11.844  11.256
26417SOL    HW181148   5.862  11.859  11.271
26417SOL    HW281149   5.998  11.920  11.294
26418SOL     OW81150  10.621  14.068   0.215
26418SOL    HW181151  10.626  14.031   0.303
26418SOL    HW281152  10.654  13.999   0.158
26419SOL     OW81153   7.673  10.291   1.173
26419SOL    HW181154   7.673  10.271   1.267
26419SOL    HW281155   7.632  10.377   1.167
26420SOL     OW81156  10.447   3.106   0.181
26420SOL    HW181157  10.414   3.113   0.270
26420SOL    HW281158  10.434   3.014   0.158
26421SOL     OW81159   7.799   0.659  10.917
26421SOL    HW181160   7.888   0.693  10.902
26421SOL    HW281161   7.760   0.658  10.829
26422SOL     OW81162   6.746   2.251   8.514
26422SOL    HW181163   6.681   2.252   8.443
26422SOL    HW281164   6.807   2.182   8.490
26423SOL     OW81165   6.732   6.275   6.946
26423SOL    HW181166   6.748   6.191   6.903
26423SOL    HW281167   6.807   6.329   6.922
26424SOL     OW81168   4.577   9.752   8.481
26424SOL    HW181169   4.530   9.707   8.410
26424SOL    HW281170   4.508   9.780   8.541
26425SOL     OW81171  10.285   5.896   0.868
26425SOL    HW181172  10.329   5.966   0.916
26425SOL    HW281173  10.341   5.879   0.792
26426SOL     OW81174   2.526   9.589  12.302
26426SOL    HW181175   2.463   9.622  12.237
26426SOL    HW281176   2.518   9.494  12.296
26427SOL     OW81177   5.291   3.703   0.308
26427SOL    HW181178   5.351   3.665   0.372
26427SOL    HW281179   5.282   3.635   0.241
26428SOL     OW81180   9.277   4.543   1.132
26428SOL    HW181181   9.191   4.520   1.097
26428SOL    HW281182   9.338   4.513   1.065
26429SOL     OW81183   7.287  11.722  11.496
26429SOL    HW181184   7.340  11.719  11.416
26429SOL    HW281185   7.212  11.666  11.477
26430SOL     OW81186  11.997   4.237  11.860
26430SOL    HW181187  11.910   4.201  11.871
26430SOL    HW281188  12.039   4.224  11.945
26431SOL     OW81189   7.901  11.578   1.317
26431SOL    HW181190   7.875  11.531   1.238
26431SOL    HW281191   7.965  11.521   1.359
26432SOL     OW81192   3.937  14.016  12.181
26432SOL    HW181193   3.944  13.957  12.256
26432SOL    HW281194   3.861  14.070  12.200
26433SOL     OW81195  10.212  14.174   9.824
26433SOL    HW181196  10.267  14.245   9.792
26433SOL    HW281197  10.165  14.142   9.747
26434SOL     OW81198   6.497   5.974   5.966
26434SOL    HW181199   6.450   6.018   5.895
26434SOL    HW281200   6.565   6.036   5.992
26435SOL     OW81201  10.799  11.109  11.846
26435SOL    HW181202  10.807  11.188  11.792
26435SOL    HW281203  10.889  11.085  11.866
26436SOL     OW81204  12.112  14.191   7.764
26436SOL    HW181205  12.138  14.196   7.855
26436SOL    HW281206  12.020  14.164   7.766
26437SOL     OW81207  13.025   9.230   0.543
26437SOL    HW181208  13.084   9.294   0.503
26437SOL    HW281209  12.994   9.272   0.623
26438SOL     OW81210   8.780   1.306  10.113
26438SOL    HW181211   8.818   1.259  10.187
26438SOL    HW281212   8.843   1.375  10.093
26439SOL     OW81213   3.942   5.270   7.942
26439SOL    HW181214   3.965   5.230   7.858
26439SOL    HW281215   3.928   5.363   7.920
26440SOL     OW81216  12.753   4.584  11.321
26440SOL    HW181217  12.775   4.603  11.230
26440SOL    HW281218  12.742   4.489  11.325
26441SOL     OW81219   6.872   0.912   0.032
26441SOL    HW181220   6.930   0.924   0.106
26441SOL    HW281221   6.922   0.860  14.849
26442SOL     OW81222   2.979  13.983   7.392
26442SOL    HW181223   2.974  13.943   7.306
26442SOL    HW281224   3.051  13.938   7.436
26443SOL     OW81225   6.075   9.117  13.715
26443SOL    HW181226   5.992   9.129  13.670
26443SOL    HW281227   6.139   9.107  13.644
26444SOL     OW81228   2.818   5.443  13.847
26444SOL    HW181229   2.765   5.520  13.826
26444SOL    HW281230   2.765   5.369  13.818
26445SOL     OW81231   0.831   8.991  10.304
26445SOL    HW181232   0.839   9.085  10.324
26445SOL    HW281233   0.739   8.971  10.321
26446SOL     OW81234   1.693   7.603   0.199
26446SOL    HW181235   1.599   7.587   0.191
26446SOL    HW281236   1.706   7.692   0.166
26447SOL     OW81237   0.983  10.628   1.543
26447SOL    HW181238   0.932  10.575   1.482
26447SOL    HW281239   1.072  10.594   1.536
26448SOL     OW81240   5.952   4.882  10.547
26448SOL    HW181241   5.946   4.851  10.637
26448SOL    HW281242   6.002   4.814  10.501
26449SOL     OW81243   1.233   2.352   1.171
26449SOL    HW181244   1.139   2.369   1.177
26449SOL    HW281245   1.243   2.262   1.202
26450SOL     OW81246   5.868   5.843   7.141
26450SOL    HW181247   5.950   5.861   7.188
26450SOL    HW281248   5.846   5.927   7.101
26451SOL     OW81249  10.043  12.125   5.190
26451SOL    HW181250  10.129  12.166   5.202
26451SOL    HW281251  10.008  12.114   5.278
26452SOL     OW81252  11.045   1.324   0.517
26452SOL    HW181253  11.135   1.324   0.483
26452SOL    HW281254  11.053   1.287   0.605
26453SOL     OW81255  11.917   2.655   2.233
26453SOL    HW181256  11.932   2.640   2.140
26453SOL    HW281257  11.825   2.681   2.239
26454SOL     OW81258   6.774   9.215   6.136
26454SOL    HW181259   6.823   9.137   6.160
26454SOL    HW281260   6.684   9.197   6.164
26455SOL     OW81261   0.212   0.631   7.649
26455SOL    HW181262   0.195   0.665   7.736
26455SOL    HW281263   0.166   0.547   7.646
26456SOL     OW81264  14.663  10.567   8.687
26456SOL    HW181265  14.706  10.552   8.771
26456SOL    HW281266  14.694  10.654   8.660
26457SOL     OW81267   2.027   0.443  12.800
26457SOL    HW181268   1.967   0.374  12.773
26457SOL    HW281269   2.103   0.396  12.835
26458SOL     OW81270  13.220  10.446   5.664
26458SOL    HW181271  13.261  10.484   5.586
26458SOL    HW281272  13.143  10.400   5.630
26459SOL     OW81273  10.590   8.694  12.701
26459SOL    HW181274  10.668   8.689  12.645
26459SOL    HW281275  10.611   8.763  12.764
26460SOL     OW81276   9.818  12.602  12.614
26460SOL    HW181277   9.724  12.604  12.634
26460SOL    HW281278   9.823  12.616  12.520
26461SOL     OW81279   5.189   0.948   1.324
26461SOL    HW181280   5.249   1.021   1.340
26461SOL    HW281281   5.105   0.988   1.304
26462SOL     OW81282   2.190   3.233  14.565
26462SOL    HW181283   2.264   3.293  14.581
26462SOL    HW281284   2.231   3.155  14.528
26463SOL     OW81285   9.464  11.662   5.300
26463SOL    HW181286   9.518  11.676   5.378
26463SOL    HW281287   9.454  11.567   5.294
26464SOL     OW81288  10.215  10.060   7.332
26464SOL    HW181289  10.155  10.132   7.353
26464SOL    HW281290  10.212  10.004   7.410
26465SOL     OW81291  13.901   7.570  10.026
26465SOL    HW181292  13.978   7.613  10.062
26465SOL    HW281293  13.854   7.639   9.978
26466SOL     OW81294   5.135   8.515   6.003
26466SOL    HW181295   5.044   8.487   6.007
26466SOL    HW281296   5.167   8.504   6.093
26467SOL     OW81297  14.465  13.205  12.732
26467SOL    HW181298  14.455  13.171  12.643
26467SOL    HW281299  14.534  13.271  12.724
26468SOL     OW81300   4.369   4.830  12.894
26468SOL    HW181301   4.391   4.918  12.862
26468SOL    HW281302   4.405   4.828  12.983
26469SOL     OW81303   9.548   0.485   4.840
26469SOL    HW181304   9.627   0.516   4.795
26469SOL    HW281305   9.500   0.565   4.861
26470SOL     OW81306   0.407  12.566  12.092
26470SOL    HW181307   0.363  12.481  12.090
26470SOL    HW281308   0.389  12.600  12.180
26471SOL     OW81309   5.265   0.008   8.882
26471SOL    HW181310   5.192   0.037   8.936
26471SOL    HW281311   5.305   0.089   8.850
26472SOL     OW81312  14.086   6.242  12.554
26472SOL    HW181313  14.077   6.249  12.459
26472SOL    HW281314  14.094   6.332  12.585
26473SOL     OW81315   1.766   1.979  14.493
26473SOL    HW181316   1.756   1.889  14.460
26473SOL    HW281317   1.757   2.034  14.415
26474SOL     OW81318   9.699   4.289   5.145
26474SOL    HW181319   9.654   4.374   5.148
26474SOL    HW281320   9.764   4.300   5.076
26475SOL     OW81321   7.506   5.532  14.873
26475SOL    HW181322   7.492   5.441  14.846
26475SOL    HW281323   7.542   5.526   0.082
26476SOL     OW81324   9.642   1.287   0.712
26476SOL    HW181325   9.590   1.244   0.781
26476SOL    HW281326   9.732   1.257   0.729
26477SOL     OW81327   7.532  10.682   2.326
26477SOL    HW181328   7.571  10.759   2.367
26477SOL    HW281329   7.476  10.645   2.395
26478SOL     OW81330   5.425   1.416  12.471
26478SOL    HW181331   5.435   1.327  12.437
26478SOL    HW281332   5.504   1.432  12.522
26479SOL     OW81333   9.632   2.201  13.036
26479SOL    HW181334   9.537   2.203  13.044
26479SOL    HW281335   9.655   2.109  13.050
26480SOL     OW81336  10.457  12.981   7.713
26480SOL    HW181337  10.526  13.047   7.719
26480SOL    HW281338  10.503  12.898   7.726
26481SOL     OW81339   3.119   3.206   2.738
26481SOL    HW181340   3.119   3.193   2.643
26481SOL    HW281341   3.071   3.131   2.772
26482SOL     OW81342   3.206   4.929  12.410
26482SOL    HW181343   3.112   4.931  12.425
26482SOL    HW281344   3.231   4.839  12.432
26483SOL     OW81345  11.262   5.401   2.561
26483SOL    HW181346  11.337   5.349   2.533
26483SOL    HW281347  11.224   5.351   2.634
26484SOL     OW81348  11.438   6.108   0.823
26484SOL    HW181349  11.385   6.179   0.861
26484SOL    HW281350  11.374   6.051   0.780
26485SOL     OW81351  11.780   7.270   9.128
26485SOL    HW181352  11.867   7.305   9.144
26485SOL    HW281353  11.775   7.192   9.184
26486SOL     OW81354   9.168   8.468  14.687
26486SOL    HW181355   9.191   8.483  14.595
26486SOL    HW281356   9.089   8.520  14.701
26487SOL     OW81357   2.509  13.878   3.367
26487SOL    HW181358   2.438  13.829   3.408
26487SOL    HW281359   2.584  13.818   3.371
26488SOL     OW81360  14.462   7.306   3.349
26488SOL    HW181361  14.400   7.240   3.319
26488SOL    HW281362  14.419   7.390   3.329
26489SOL     OW81363   3.362   9.871  13.406
26489SOL    HW181364   3.402   9.915  13.332
26489SOL    HW281365   3.392   9.780  13.401
26490SOL     OW81366   1.229   9.104  13.875
26490SOL    HW181367   1.239   9.134  13.784
26490SOL    HW281368   1.200   9.181  13.923
26491SOL     OW81369   8.486   1.427  13.553
26491SOL    HW181370   8.546   1.475  13.496
26491SOL    HW281371   8.490   1.475  13.636
26492SOL     OW81372   0.948  14.074   7.527
26492SOL    HW181373   0.884  14.026   7.580
26492SOL    HW281374   0.916  14.065   7.438
26493SOL     OW81375   5.340   7.101   7.722
26493SOL    HW181376   5.280   7.104   7.797
26493SOL    HW281377   5.344   7.008   7.698
26494SOL     OW81378   7.264   5.060  11.329
26494SOL    HW181379   7.347   5.023  11.297
26494SOL    HW281380   7.204   5.051  11.255
26495SOL     OW81381  12.422  12.526   7.701
26495SOL    HW181382  12.444  12.446   7.749
26495SOL    HW281383  12.358  12.497   7.636
26496SOL     OW81384  14.028   1.138  13.276
26496SOL    HW181385  13.960   1.101  13.219
26496SOL    HW281386  14.040   1.227  13.244
26497SOL     OW81387   9.976  13.894  14.633
26497SOL    HW181388   9.937  13.813  14.664
26497SOL    HW281389  10.070  13.874  14.627
26498SOL     OW81390   9.886   6.329   5.793
26498SOL    HW181391   9.842   6.246   5.775
26498SOL    HW281392   9.945   6.309   5.866
26499SOL     OW81393  10.479   6.688   5.056
26499SOL    HW181394  10.566   6.667   5.023
26499SOL    HW281395  10.492   6.699   5.151
26500SOL     OW81396  10.495  11.881  12.902
26500SOL    HW181397  10.585  11.859  12.877
26500SOL    HW281398  10.470  11.814  12.966
26501SOL     OW81399   5.662  11.887   0.695
26501SOL    HW181400   5.610  11.939   0.755
26501SOL    HW281401   5.749  11.927   0.697
26502SOL     OW81402  10.388   7.694  10.730
26502SOL    HW181403  10.343   7.694  10.645
26502SOL    HW281404  10.327   7.735  10.790
26503SOL     OW81405   0.860   4.689   0.187
26503SOL    HW181406   0.865   4.715   0.095
26503SOL    HW281407   0.952   4.679   0.213
26504SOL     OW81408  13.745   8.098  10.457
26504SOL    HW181409  13.828   8.113  10.502
26504SOL    HW281410  13.716   8.012  10.487
26505SOL     OW81411   6.244  11.442   9.909
26505SOL    HW181412   6.260  11.354   9.874
26505SOL    HW281413   6.288  11.443   9.994
26506SOL     OW81414   3.616   1.838   3.284
26506SOL    HW181415   3.694   1.788   3.260
26506SOL    HW281416   3.580   1.869   3.201
26507SOL     OW81417  10.055  10.060   4.981
26507SOL    HW181418  10.138  10.100   5.008
26507SOL    HW281419  10.026  10.112   4.906
26508SOL     OW81420   5.341  14.064  10.675
26508SOL    HW181421   5.412  14.125  10.695
26508SOL    HW281422   5.265  14.099  10.722
26509SOL     OW81423   2.189   0.146   7.317
26509SOL    HW181424   2.216   0.214   7.379
26509SOL    HW281425   2.183   0.192   7.233
26510SOL     OW81426   6.808   3.924  14.782
26510SOL    HW181427   6.843   3.955  14.866
26510SOL    HW281428   6.832   3.831  14.779
26511SOL     OW81429   5.387   8.631   5.344
26511SOL    HW181430   5.386   8.567   5.416
26511SOL    HW281431   5.430   8.708   5.381
26512SOL     OW81432   9.833  11.127   6.020
26512SOL    HW181433   9.823  11.192   5.950
26512SOL    HW281434   9.746  11.087   6.028
26513SOL     OW81435   2.983  13.046  12.398
26513SOL    HW181436   3.010  13.133  12.429
26513SOL    HW281437   2.978  12.993  12.477
26514SOL     OW81438  10.907   2.114   6.002
26514SOL    HW181439  10.947   2.148   5.922
26514SOL    HW281440  10.969   2.134   6.071
26515SOL     OW81441   0.914   6.342   4.858
26515SOL    HW181442   0.923   6.247   4.857
26515SOL    HW281443   0.884   6.364   4.770
26516SOL     OW81444  10.103  10.845   2.795
26516SOL    HW181445  10.020  10.799   2.801
26516SOL    HW281446  10.146  10.807   2.718
26517SOL     OW81447  13.372   7.378   0.193
26517SOL    HW181448  13.301   7.325   0.157
26517SOL    HW281449  13.331   7.461   0.217
26518SOL     OW81450   6.871   9.491  13.317
26518SOL    HW181451   6.867   9.494  13.412
26518SOL    HW281452   6.960   9.521  13.295
26519SOL     OW81453   6.869  12.792   8.795
26519SOL    HW181454   6.776  12.770   8.796
26519SOL    HW281455   6.906  12.748   8.872
26520SOL     OW81456   1.617   1.653   1.247
26520SOL    HW181457   1.587   1.691   1.164
26520SOL    HW281458   1.668   1.577   1.221
26521SOL     OW81459  11.104   1.299  10.599
26521SOL    HW181460  11.068   1.248  10.671
26521SOL    HW281461  11.182   1.342  10.637
26522SOL     OW81462   0.174   4.527   0.321
26522SOL    HW181463   0.079   4.516   0.320
26522SOL    HW281464   0.208   4.448   0.280
26523SOL     OW81465  13.562  13.694   0.228
26523SOL    HW181466  13.468  13.676   0.220
26523SOL    HW281467  13.599  13.612   0.258
26524SOL     OW81468  13.168  13.783  11.174
26524SOL    HW181469  13.141  13.862  11.221
26524SOL    HW281470  13.261  13.797  11.156
26525SOL     OW81471   6.214   2.358  12.185
26525SOL    HW181472   6.167   2.325  12.109
26525SOL    HW281473   6.306   2.356  12.160
26526SOL     OW81474   1.715   6.736  13.480
26526SOL    HW181475   1.707   6.679  13.556
26526SOL    HW281476   1.755   6.816  13.515
26527SOL     OW81477  14.203   3.096   3.194
26527SOL    HW181478  14.247   3.167   3.148
26527SOL    HW281479  14.258   3.019   3.176
26528SOL     OW81480   9.600   8.933   2.128
26528SOL    HW181481   9.512   8.963   2.105
26528SOL    HW281482   9.595   8.916   2.222
26529SOL     OW81483   2.842   6.486  14.789
26529SOL    HW181484   2.761   6.480  14.739
26529SOL    HW281485   2.842   6.576  14.824
26530SOL     OW81486   9.307   2.968   3.653
26530SOL    HW181487   9.222   2.985   3.611
26530SOL    HW281488   9.332   2.881   3.621
26531SOL     OW81489  11.948  13.307  10.173
26531SOL    HW181490  12.038  13.315  10.205
26531SOL    HW281491  11.954  13.247  10.099
26532SOL     OW81492   9.176   9.418   8.381
26532SOL    HW181493   9.182   9.364   8.302
26532SOL    HW281494   9.168   9.355   8.452
26533SOL     OW81495  11.013  11.677   3.691
26533SOL    HW181496  11.077  11.717   3.750
26533SOL    HW281497  11.001  11.741   3.621
26534SOL     OW81498   6.250  10.921   6.129
26534SOL    HW181499   6.280  10.983   6.195
26534SOL    HW281500   6.298  10.840   6.149
26535SOL     OW81501   3.555  14.203   6.414
26535SOL    HW181502   3.585  14.217   6.324
26535SOL    HW281503   3.532  14.111   6.418
26536SOL     OW81504   9.371  10.981   9.115
26536SOL    HW181505   9.382  10.989   9.209
26536SOL    HW281506   9.453  10.941   9.085
26537SOL     OW81507  10.888   7.677  11.841
26537SOL    HW181508  10.811   7.635  11.880
26537SOL    HW281509  10.916   7.617  11.772
26538SOL     OW81510   6.115   3.340   7.898
26538SOL    HW181511   6.042   3.285   7.869
26538SOL    HW281512   6.187   3.319   7.838
26539SOL     OW81513  10.610   5.993   8.851
26539SOL    HW181514  10.592   6.067   8.794
26539SOL    HW281515  10.684   5.948   8.810
26540SOL     OW81516   8.601   3.787   6.938
26540SOL    HW181517   8.561   3.865   6.899
26540SOL    HW281518   8.687   3.817   6.968
26541SOL     OW81519  11.264   3.724   9.956
26541SOL    HW181520  11.355   3.713   9.982
26541SOL    HW281521  11.215   3.664  10.013
26542SOL     OW81522   8.677  12.606  12.148
26542SOL    HW181523   8.747  12.649  12.098
26542SOL    HW281524   8.645  12.537  12.089
26543SOL     OW81525   0.443   4.263   0.275
26543SOL    HW181526   0.475   4.351   0.296
26543SOL    HW281527   0.419   4.268   0.182
26544SOL     OW81528   2.605   8.729  14.427
26544SOL    HW181529   2.547   8.803  14.446
26544SOL    HW281530   2.643   8.750  14.342
26545SOL     OW81531   5.208  10.871   1.165
26545SOL    HW181532   5.273  10.900   1.229
26545SOL    HW281533   5.123  10.883   1.209
26546SOL     OW81534  10.598   0.678   6.412
26546SOL    HW181535  10.518   0.690   6.360
26546SOL    HW281536  10.629   0.767   6.429
26547SOL     OW81537   3.908   1.148   2.436
26547SOL    HW181538   3.907   1.059   2.470
26547SOL    HW281539   3.971   1.145   2.363
26548SOL     OW81540  10.916   2.205  14.307
26548SOL    HW181541  10.914   2.263  14.383
26548SOL    HW281542  10.941   2.119  14.342
26549SOL     OW81543   3.026   8.446   6.618
26549SOL    HW181544   2.945   8.492   6.640
26549SOL    HW281545   3.016   8.422   6.526
26550SOL     OW81546   5.837   6.575  13.560
26550SOL    HW181547   5.825   6.549  13.651
26550SOL    HW281548   5.818   6.669  13.558
26551SOL     OW81549  10.033   9.318   8.358
26551SOL    HW181550  10.106   9.347   8.304
26551SOL    HW281551   9.955   9.340   8.307
26552SOL     OW81552  12.064   2.911  10.778
26552SOL    HW181553  12.142   2.965  10.763
26552SOL    HW281554  12.084   2.862  10.858
26553SOL     OW81555   6.335  13.924   7.721
26553SOL    HW181556   6.393  13.980   7.772
26553SOL    HW281557   6.287  13.984   7.663
26554SOL     OW81558   3.742  12.435  10.322
26554SOL    HW181559   3.814  12.482  10.279
26554SOL    HW281560   3.668  12.496  10.319
26555SOL     OW81561   4.157   8.079   4.649
26555SOL    HW181562   4.079   8.133   4.634
26555SOL    HW281563   4.123   8.000   4.691
26556SOL     OW81564   0.654   1.603  14.103
26556SOL    HW181565   0.582   1.606  14.167
26556SOL    HW281566   0.719   1.547  14.143
26557SOL     OW81567   7.148  11.967   1.533
26557SOL    HW181568   7.221  11.985   1.475
26557SOL    HW281569   7.113  11.883   1.502
26558SOL     OW81570   1.694   6.903   4.817
26558SOL    HW181571   1.726   6.940   4.735
26558SOL    HW281572   1.757   6.835   4.840
26559SOL     OW81573  12.241   7.787   4.403
26559SOL    HW181574  12.218   7.789   4.310
26559SOL    HW281575  12.229   7.696   4.429
26560SOL     OW81576   3.170  12.379   5.669
26560SOL    HW181577   3.195  12.382   5.761
26560SOL    HW281578   3.253  12.378   5.622
26561SOL     OW81579   0.081   0.571   9.557
26561SOL    HW181580   0.172   0.589   9.534
26561SOL    HW281581   0.032   0.583   9.475
26562SOL     OW81582   0.489  10.535   3.304
26562SOL    HW181583   0.427  10.487   3.248
26562SOL    HW281584   0.571  10.486   3.296
26563SOL     OW81585   6.033  10.061   5.925
26563SOL    HW181586   5.978  10.092   5.997
26563SOL    HW281587   6.007  10.115   5.850
26564SOL     OW81588   6.065   6.549   9.173
26564SOL    HW181589   6.101   6.609   9.239
26564SOL    HW281590   6.095   6.463   9.200
26565SOL     OW81591   3.613  14.503   3.775
26565SOL    HW181592   3.537  14.490   3.718
26565SOL    HW281593   3.686  14.461   3.728
26566SOL     OW81594   0.319  14.193   2.081
26566SOL    HW181595   0.302  14.104   2.113
26566SOL    HW281596   0.234  14.224   2.050
26567SOL     OW81597   5.853   3.267   8.309
26567SOL    HW181598   5.819   3.254   8.221
26567SOL    HW281599   5.878   3.179   8.338
26568SOL     OW81600   4.919  10.686   3.695
26568SOL    HW181601   4.901  10.603   3.651
26568SOL    HW281602   4.842  10.702   3.749
26569SOL     OW81603  11.136   3.959  13.911
26569SOL    HW181604  11.182   3.948  13.828
26569SOL    HW281605  11.043   3.947  13.888
26570SOL     OW81606  13.417  11.494  11.986
26570SOL    HW181607  13.331  11.535  11.990
26570SOL    HW281608  13.479  11.567  11.983
26571SOL     OW81609  12.977   1.729  13.517
26571SOL    HW181610  13.063   1.704  13.552
26571SOL    HW281611  12.938   1.784  13.585
26572SOL     OW81612  14.024   1.283  12.063
26572SOL    HW181613  13.976   1.248  12.139
26572SOL    HW281614  14.116   1.274  12.088
26573SOL     OW81615   9.191   0.480  12.669
26573SOL    HW181616   9.132   0.438  12.732
26573SOL    HW281617   9.221   0.559  12.713
26574SOL     OW81618   5.326   6.279   9.137
26574SOL    HW181619   5.310   6.232   9.219
26574SOL    HW281620   5.421   6.276   9.125
26575SOL     OW81621   3.597   0.711   4.669
26575SOL    HW181622   3.619   0.801   4.692
26575SOL    HW281623   3.654   0.691   4.594
26576SOL     OW81624  11.182  10.964   6.825
26576SOL    HW181625  11.265  11.013   6.831
26576SOL    HW281626  11.115  11.032   6.823
26577SOL     OW81627   2.838  13.621   0.229
26577SOL    HW181628   2.901  13.671   0.281
26577SOL    HW281629   2.792  13.687   0.178
26578SOL     OW81630   8.877  14.771  14.167
26578SOL    HW181631   8.837  14.694  14.127
26578SOL    HW281632   8.864  14.760  14.261
26579SOL     OW81633   2.338  14.801   7.268
26579SOL    HW181634   2.305   0.009   7.289
26579SOL    HW281635   2.270  14.762   7.213
26580SOL     OW81636  11.535  12.507  12.619
26580SOL    HW181637  11.531  12.411  12.619
26580SOL    HW281638  11.459  12.534  12.672
26581SOL     OW81639   8.805   9.691  13.888
26581SOL    HW181640   8.838   9.690  13.978
26581SOL    HW281641   8.883   9.696  13.834
26582SOL     OW81642   5.801   3.746  11.744
26582SOL    HW181643   5.852   3.768  11.667
26582SOL    HW281644   5.864   3.747  11.816
26583SOL     OW81645   8.103   9.993   4.470
26583SOL    HW181646   8.042   9.924   4.440
26583SOL    HW281647   8.135  10.033   4.390
26584SOL     OW81648   9.623   6.036  12.801
26584SOL    HW181649   9.699   6.083  12.834
26584SOL    HW281650   9.567   6.025  12.878
26585SOL     OW81651   2.647   9.757   3.016
26585SOL    HW181652   2.598   9.772   3.097
26585SOL    HW281653   2.736   9.784   3.037
26586SOL     OW81654   2.218   0.903   4.761
26586SOL    HW181655   2.275   0.969   4.800
26586SOL    HW281656   2.241   0.821   4.806
26587SOL     OW81657   0.005  14.265   8.181
26587SOL    HW181658  14.873  14.290   8.089
26587SOL    HW281659  14.802  14.289   8.223
26588SOL     OW81660   1.184   8.514   9.493
26588SOL    HW181661   1.181   8.543   9.402
26588SOL    HW281662   1.127   8.575   9.539
26589SOL     OW81663  10.039  12.743   7.483
26589SOL    HW181664  10.088  12.825   7.489
26589SOL    HW281665  10.034  12.712   7.573
26590SOL     OW81666  10.680   4.483   4.600
26590SOL    HW181667  10.762   4.447   4.632
26590SOL    HW281668  10.613   4.443   4.655
26591SOL     OW81669  11.873   9.387  10.967
26591SOL    HW181670  11.916   9.442  10.902
26591SOL    HW281671  11.847   9.309  10.919
26592SOL     OW81672   5.439   6.551  12.143
26592SOL    HW181673   5.438   6.622  12.208
26592SOL    HW281674   5.374   6.578  12.078
26593SOL     OW81675   1.168  13.868   3.771
26593SOL    HW181676   1.215  13.791   3.804
26593SOL    HW281677   1.097  13.882   3.834
26594SOL     OW81678   3.687   8.149   2.853
26594SOL    HW181679   3.766   8.105   2.885
26594SOL    HW281680   3.653   8.090   2.785
26595SOL     OW81681  13.291   2.310   5.252
26595SOL    HW181682  13.363   2.301   5.314
26595SOL    HW281683  13.326   2.363   5.181
26596SOL     OW81684   7.708  11.101   1.540
26596SOL    HW181685   7.793  11.127   1.576
26596SOL    HW281686   7.647  11.112   1.613
26597SOL     OW81687   4.186   6.775   8.735
26597SOL    HW181688   4.103   6.806   8.699
26597SOL    HW281689   4.161   6.719   8.808
26598SOL     OW81690  14.288   1.710   2.100
26598SOL    HW181691  14.254   1.624   2.078
26598SOL    HW281692  14.304   1.752   2.016
26599SOL     OW81693  11.031   5.007  13.692
26599SOL    HW181694  10.945   5.040  13.715
26599SOL    HW281695  11.023   4.912  13.701
26600SOL     OW81696   6.111  11.743  10.454
26600SOL    HW181697   6.095  11.793  10.533
26600SOL    HW281698   6.107  11.652  10.482
26601SOL     OW81699   0.528   9.714   8.812
26601SOL    HW181700   0.568   9.729   8.727
26601SOL    HW281701   0.600   9.727   8.875
26602SOL     OW81702   3.266   8.892   4.444
26602SOL    HW181703   3.286   8.870   4.534
26602SOL    HW281704   3.337   8.951   4.418
26603SOL     OW81705  10.711   7.710   7.628
26603SOL    HW181706  10.763   7.790   7.633
26603SOL    HW281707  10.687   7.690   7.719
26604SOL     OW81708   6.256   9.487   8.639
26604SOL    HW181709   6.204   9.406   8.637
26604SOL    HW281710   6.231   9.530   8.721
26605SOL     OW81711   9.089   0.805  10.422
26605SOL    HW181712   9.133   0.775  10.502
26605SOL    HW281713   9.002   0.833  10.452
26606SOL     OW81714   5.477  11.556   1.915
26606SOL    HW181715   5.464  11.550   2.010
26606SOL    HW281716   5.527  11.637   1.902
26607SOL     OW81717  11.429   1.348   1.049
26607SOL    HW181718  11.508   1.348   1.105
26607SOL    HW281719  11.454   1.398   0.972
26608SOL     OW81720  12.641   4.616  12.015
26608SOL    HW181721  12.664   4.664  12.095
26608SOL    HW281722  12.546   4.607  12.019
26609SOL     OW81723   3.416  14.718  13.313
26609SOL    HW181724   3.420  14.631  13.274
26609SOL    HW281725   3.342  14.761  13.269
26610SOL     OW81726   1.739   9.677   8.325
26610SOL    HW181727   1.801   9.653   8.394
26610SOL    HW281728   1.757   9.617   8.253
26611SOL     OW81729  14.539  13.392   7.342
26611SOL    HW181730  14.625  13.374   7.380
26611SOL    HW281731  14.555  13.459   7.276
26612SOL     OW81732   8.072   2.441   8.806
26612SOL    HW181733   8.027   2.498   8.868
26612SOL    HW281734   8.045   2.353   8.829
26613SOL     OW81735   8.108   0.799   1.715
26613SOL    HW181736   8.117   0.836   1.803
26613SOL    HW281737   8.172   0.728   1.712
26614SOL     OW81738   6.982  13.241   6.089
26614SOL    HW181739   6.935  13.205   6.164
26614SOL    HW281740   7.071  13.210   6.099
26615SOL     OW81741  13.611  14.509  11.118
26615SOL    HW181742  13.635  14.461  11.038
26615SOL    HW281743  13.601  14.441  11.185
26616SOL     OW81744   3.489  10.330   4.129
26616SOL    HW181745   3.412  10.387   4.127
26616SOL    HW281746   3.461  10.249   4.088
26617SOL     OW81747   1.438   1.073  11.715
26617SOL    HW181748   1.403   1.011  11.780
26617SOL    HW281749   1.399   1.157  11.739
26618SOL     OW81750  12.831  12.327  12.150
26618SOL    HW181751  12.818  12.395  12.216
26618SOL    HW281752  12.793  12.248  12.189
26619SOL     OW81753   0.819   9.544   2.488
26619SOL    HW181754   0.793   9.636   2.485
26619SOL    HW281755   0.789   9.507   2.405
26620SOL     OW81756   0.525   7.491   0.874
26620SOL    HW181757   0.441   7.479   0.917
26620SOL    HW281758   0.583   7.525   0.942
26621SOL     OW81759   7.514   8.738  13.480
26621SOL    HW181760   7.592   8.794  13.476
26621SOL    HW281761   7.472   8.761  13.563
26622SOL     OW81762   8.138   0.085   7.014
26622SOL    HW181763   8.084   0.031   6.957
26622SOL    HW281764   8.184   0.145   6.955
26623SOL     OW81765  13.565   8.196   6.097
26623SOL    HW181766  13.496   8.131   6.113
26623SOL    HW281767  13.519   8.277   6.079
26624SOL     OW81768   1.134  12.840  10.899
26624SOL    HW181769   1.159  12.915  10.844
26624SOL    HW281770   1.126  12.877  10.987
26625SOL     OW81771   4.216   9.086   2.804
26625SOL    HW181772   4.237   9.048   2.719
26625SOL    HW281773   4.222   9.012   2.865
26626SOL     OW81774  14.529  10.345  14.006
26626SOL    HW181775  14.599  10.349  13.940
26626SOL    HW281776  14.448  10.357  13.955
26627SOL     OW81777   6.480  11.386   8.764
26627SOL    HW181778   6.563  11.338   8.761
26627SOL    HW281779   6.490  11.444   8.840
26628SOL     OW81780   0.217  12.807   8.671
26628SOL    HW181781   0.311  12.801   8.686
26628SOL    HW281782   0.209  12.844   8.583
26629SOL     OW81783   5.322   0.302   8.378
26629SOL    HW181784   5.334   0.320   8.284
26629SOL    HW281785   5.239   0.255   8.383
26630SOL     OW81786   5.256  12.090   2.952
26630SOL    HW181787   5.164  12.109   2.969
26630SOL    HW281788   5.303  12.168   2.982
26631SOL     OW81789   0.029  10.010   2.900
26631SOL    HW181790   0.051   9.917   2.901
26631SOL    HW281791   0.024  10.034   2.992
26632SOL     OW81792   2.184   8.906  12.221
26632SOL    HW181793   2.164   8.830  12.165
26632SOL    HW281794   2.105   8.960  12.216
26633SOL     OW81795   4.966   2.816   8.557
26633SOL    HW181796   4.933   2.872   8.487
26633SOL    HW281797   5.039   2.769   8.517
26634SOL     OW81798  10.683   8.927   6.944
26634SOL    HW181799  10.608   8.877   6.910
26634SOL    HW281800  10.743   8.933   6.870
26635SOL     OW81801   6.819  12.815   6.547
26635SOL    HW181802   6.789  12.752   6.613
26635SOL    HW281803   6.739  12.859   6.517
26636SOL     OW81804  13.442  11.386   9.826
26636SOL    HW181805  13.365  11.443   9.821
26636SOL    HW281806  13.405  11.298   9.835
26637SOL     OW81807   9.384   6.178   8.690
26637SOL    HW181808   9.376   6.101   8.746
26637SOL    HW281809   9.296   6.215   8.686
26638SOL     OW81810   0.485   4.730   5.872
26638SOL    HW181811   0.490   4.635   5.870
26638SOL    HW281812   0.395   4.751   5.850
26639SOL     OW81813   2.078   3.230   9.454
26639SOL    HW181814   2.025   3.213   9.376
26639SOL    HW281815   2.020   3.280   9.512
26640SOL     OW81816   5.981  12.126   1.851
26640SOL    HW181817   5.986  12.066   1.777
26640SOL    HW281818   6.011  12.210   1.816
26641SOL     OW81819   2.146  10.834   2.341
26641SOL    HW181820   2.125  10.926   2.360
26641SOL    HW281821   2.109  10.786   2.415
26642SOL     OW81822  10.468   1.899   4.460
26642SOL    HW181823  10.542   1.858   4.415
26642SOL    HW281824  10.425   1.827   4.506
26643SOL     OW81825   9.860   1.603   9.421
26643SOL    HW181826   9.772   1.611   9.382
26643SOL    HW281827   9.877   1.509   9.422
26644SOL     OW81828   4.421   2.338   1.869
26644SOL    HW181829   4.405   2.424   1.829
26644SOL    HW281830   4.368   2.338   1.948
26645SOL     OW81831  11.542  14.323  14.185
26645SOL    HW181832  11.530  14.360  14.273
26645SOL    HW281833  11.529  14.229  14.197
26646SOL     OW81834   4.880  13.958   4.334
26646SOL    HW181835   4.963  13.931   4.293
26646SOL    HW281836   4.832  14.002   4.264
26647SOL     OW81837  13.553   3.218   3.052
26647SOL    HW181838  13.575   3.225   3.145
26647SOL    HW281839  13.563   3.125   3.031
26648SOL     OW81840   0.605  10.425  14.374
26648SOL    HW181841   0.596  10.504  14.321
26648SOL    HW281842   0.657  10.365  14.320
26649SOL     OW81843   9.730   0.974   6.572
26649SOL    HW181844   9.723   1.067   6.596
26649SOL    HW281845   9.790   0.973   6.497
26650SOL     OW81846   3.369  13.008   8.300
26650SOL    HW181847   3.352  13.102   8.294
26650SOL    HW281848   3.462  12.999   8.278
26651SOL     OW81849   8.658   2.861  10.009
26651SOL    HW181850   8.592   2.929  10.020
26651SOL    HW281851   8.630   2.813   9.931
26652SOL     OW81852   6.262   0.706   2.231
26652SOL    HW181853   6.166   0.701   2.232
26652SOL    HW281854   6.291   0.616   2.223
26653SOL     OW81855  10.741   9.143   0.496
26653SOL    HW181856  10.820   9.116   0.448
26653SOL    HW281857  10.704   9.061   0.529
26654SOL     OW81858   6.816   8.814   8.104
26654SOL    HW181859   6.873   8.874   8.057
26654SOL    HW281860   6.732   8.858   8.108
26655SOL     OW81861   7.774   8.471  14.238
26655SOL    HW181862   7.693   8.422  14.251
26655SOL    HW281863   7.814   8.474  14.324
26656SOL     OW81864  14.816   3.820   8.397
26656SOL    HW181865  14.722   3.817   8.413
26656SOL    HW281866  14.852   3.864   8.474
26657SOL     OW81867  12.135   3.136   0.149
26657SOL    HW181868  12.204   3.090   0.196
26657SOL    HW281869  12.079   3.067   0.115
26658SOL     OW81870  13.323   7.945  13.592
26658SOL    HW181871  13.335   7.855  13.561
26658SOL    HW281872  13.247   7.941  13.650
26659SOL     OW81873  14.633   9.939   7.712
26659SOL    HW181874  14.648   9.910   7.622
26659SOL    HW281875  14.616  10.033   7.704
26660SOL     OW81876  10.964  14.812   5.829
26660SOL    HW181877  10.976  14.838   5.921
26660SOL    HW281878  10.935  14.721   5.833
26661SOL     OW81879   3.806   6.800   7.924
26661SOL    HW181880   3.742   6.833   7.860
26661SOL    HW281881   3.856   6.878   7.948
26662SOL     OW81882   0.348  12.116  12.680
26662SOL    HW181883   0.440  12.140  12.678
26662SOL    HW281884   0.328  12.106  12.773
26663SOL     OW81885  10.230   6.397   5.510
26663SOL    HW181886  10.153   6.445   5.541
26663SOL    HW281887  10.207   6.305   5.520
26664SOL     OW81888   4.220  14.420  10.135
26664SOL    HW181889   4.174  14.386  10.212
26664SOL    HW281890   4.153  14.460  10.081
26665SOL     OW81891  12.929  14.565   4.455
26665SOL    HW181892  12.908  14.648   4.498
26665SOL    HW281893  13.021  14.549   4.479
26666SOL     OW81894   2.484  11.649   7.893
26666SOL    HW181895   2.496  11.738   7.925
26666SOL    HW281896   2.572  11.619   7.871
26667SOL     OW81897  13.021   7.383   3.868
26667SOL    HW181898  12.988   7.385   3.778
26667SOL    HW281899  13.116   7.370   3.858
26668SOL     OW81900   7.423   1.798   6.542
26668SOL    HW181901   7.329   1.791   6.527
26668SOL    HW281902   7.441   1.892   6.538
26669SOL     OW81903  12.645   7.846   3.320
26669SOL    HW181904  12.603   7.823   3.237
26669SOL    HW281905  12.573   7.873   3.377
26670SOL     OW81906  14.668   5.228  12.696
26670SOL    HW181907  14.630   5.226  12.608
26670SOL    HW281908  14.597   5.258  12.752
26671SOL     OW81909   2.423  13.441  13.546
26671SOL    HW181910   2.337  13.424  13.506
26671SOL    HW281911   2.481  13.376  13.505
26672SOL     OW81912  12.397   7.099   3.294
26672SOL    HW181913  12.467   7.133   3.240
26672SOL    HW281914  12.378   7.169   3.356
26673SOL     OW81915  11.767   7.533  14.299
26673SOL    HW181916  11.804   7.473  14.235
26673SOL    HW281917  11.672   7.526  14.286
26674SOL     OW81918  14.569   6.843   6.571
26674SOL    HW181919  14.566   6.936   6.548
26674SOL    HW281920  14.563   6.842   6.666
26675SOL     OW81921   5.802   8.835  13.237
26675SOL    HW181922   5.805   8.921  13.194
26675SOL    HW281923   5.877   8.788  13.200
26676SOL     OW81924   7.578   1.642   6.951
26676SOL    HW181925   7.487   1.649   6.980
26676SOL    HW281926   7.615   1.728   6.970
26677SOL     OW81927  12.238   7.479  14.148
26677SOL    HW181928  12.273   7.433  14.224
26677SOL    HW281929  12.314   7.492  14.090
26678SOL     OW81930   0.178   8.530   9.629
26678SOL    HW181931   0.128   8.497   9.704
26678SOL    HW281932   0.212   8.452   9.586
26679SOL     OW81933   9.740  14.139   2.340
26679SOL    HW181934   9.751  14.103   2.252
26679SOL    HW281935   9.716  14.064   2.394
26680SOL     OW81936   1.515   7.945   7.297
26680SOL    HW181937   1.432   7.899   7.294
26680SOL    HW281938   1.493   8.034   7.322
26681SOL     OW81939   5.347  14.339   7.856
26681SOL    HW181940   5.278  14.389   7.812
26681SOL    HW281941   5.416  14.330   7.790
26682SOL     OW81942   7.719   7.769   4.774
26682SOL    HW181943   7.781   7.788   4.703
26682SOL    HW281944   7.746   7.826   4.845
26683SOL     OW81945  13.896   2.016   0.158
26683SOL    HW181946  13.896   1.931   0.113
26683SOL    HW281947  13.986   2.047   0.150
26684SOL     OW81948  11.616   9.258  13.820
26684SOL    HW181949  11.593   9.349  13.800
26684SOL    HW281950  11.705   9.249  13.786
26685SOL     OW81951  14.722   3.684   4.372
26685SOL    HW181952  14.635   3.716   4.344
26685SOL    HW281953  14.746   3.619   4.306
26686SOL     OW81954   4.283   3.647  11.179
26686SOL    HW181955   4.275   3.628  11.273
26686SOL    HW281956   4.210   3.601  11.139
26687SOL     OW81957  13.180  10.857   3.416
26687SOL    HW181958  13.214  10.797   3.351
26687SOL    HW281959  13.193  10.944   3.378
26688SOL     OW81960   5.540   0.466   7.783
26688SOL    HW181961   5.595   0.461   7.861
26688SOL    HW281962   5.598   0.441   7.711
26689SOL     OW81963   5.775   1.889   9.727
26689SOL    HW181964   5.853   1.899   9.780
26689SOL    HW281965   5.798   1.927   9.642
26690SOL     OW81966  12.660   1.400  13.160
26690SOL    HW181967  12.650   1.348  13.240
26690SOL    HW281968  12.572   1.433  13.142
26691SOL     OW81969   5.525   0.508   5.350
26691SOL    HW181970   5.450   0.470   5.396
26691SOL    HW281971   5.587   0.436   5.343
26692SOL     OW81972   0.230   1.501  12.828
26692SOL    HW181973   0.253   1.410  12.845
26692SOL    HW281974   0.261   1.517  12.738
26693SOL     OW81975   1.805   9.349   8.405
26693SOL    HW181976   1.748   9.316   8.336
26693SOL    HW281977   1.791   9.444   8.404
26694SOL     OW81978   6.886  14.862   8.817
26694SOL    HW181979   6.920  14.773   8.819
26694SOL    HW281980   6.823  14.867   8.889
26695SOL     OW81981   1.958   6.952   5.441
26695SOL    HW181982   1.984   6.860   5.435
26695SOL    HW281983   1.872   6.951   5.482
26696SOL     OW81984   3.438   9.805  13.740
26696SOL    HW181985   3.431   9.899  13.725
26696SOL    HW281986   3.476   9.797  13.827
26697SOL     OW81987   9.902   0.112  10.242
26697SOL    HW181988   9.968   0.122  10.310
26697SOL    HW281989   9.819   0.128  10.287
26698SOL     OW81990   0.682   9.720  12.998
26698SOL    HW181991   0.700   9.627  13.015
26698SOL    HW281992   0.745   9.767  13.052
26699SOL     OW81993   1.720  14.139   0.773
26699SOL    HW181994   1.650  14.075   0.760
26699SOL    HW281995   1.797  14.087   0.796
26700SOL     OW81996  12.628   8.398   2.575
26700SOL    HW181997  12.719   8.376   2.595
26700SOL    HW281998  12.580   8.371   2.653
26701SOL     OW81999   0.843  14.546  10.857
26701SOL    HW182000   0.913  14.596  10.815
26701SOL    HW282001   0.763  14.578  10.815
26702SOL     OW82002  12.153   7.609  13.235
26702SOL    HW182003  12.232   7.578  13.191
26702SOL    HW282004  12.174   7.697  13.265
26703SOL     OW82005   9.258   7.429   0.900
26703SOL    HW182006   9.256   7.410   0.806
26703SOL    HW282007   9.168   7.451   0.923
26704SOL     OW82008  10.207   7.422   4.596
26704SOL    HW182009  10.245   7.430   4.684
26704SOL    HW282010  10.150   7.499   4.587
26705SOL     OW82011   3.314  10.236   0.372
26705SOL    HW182012   3.407  10.247   0.353
26705SOL    HW282013   3.308  10.147   0.408
26706SOL     OW82014  14.664   1.659  14.392
26706SOL    HW182015  14.702   1.703  14.316
26706SOL    HW282016  14.594   1.718  14.420
26707SOL     OW82017   4.259  11.745   7.854
26707SOL    HW182018   4.307  11.665   7.876
26707SOL    HW282019   4.279  11.761   7.762
26708SOL     OW82020  14.310  10.390  14.187
26708SOL    HW182021  14.357  10.309  14.210
26708SOL    HW282022  14.256  10.366  14.111
26709SOL     OW82023  11.090   1.975  14.406
26709SOL    HW182024  11.049   1.905  14.355
26709SOL    HW282025  11.160   1.932  14.454
26710SOL     OW82026   9.200   4.274   1.196
26710SOL    HW182027   9.277   4.319   1.162
26710SOL    HW282028   9.233   4.188   1.222
26711SOL     OW82029   0.267  12.229   5.114
26711SOL    HW182030   0.323  12.285   5.060
26711SOL    HW282031   0.267  12.144   5.069
26712SOL     OW82032  11.204   5.597   8.005
26712SOL    HW182033  11.182   5.581   7.913
26712SOL    HW282034  11.131   5.560   8.054
26713SOL     OW82035   8.951  10.283  10.499
26713SOL    HW182036   8.884  10.301  10.434
26713SOL    HW282037   8.909  10.303  10.583
26714SOL     OW82038  10.677   3.728  12.748
26714SOL    HW182039  10.634   3.795  12.695
26714SOL    HW282040  10.718   3.776  12.820
26715SOL     OW82041   6.680   2.823   8.012
26715SOL    HW182042   6.743   2.859   8.075
26715SOL    HW282043   6.595   2.845   8.050
26716SOL     OW82044   3.429  10.838  11.478
26716SOL    HW182045   3.507  10.837  11.422
26716SOL    HW282046   3.413  10.931  11.494
26717SOL     OW82047   9.258   3.562   1.297
26717SOL    HW182048   9.173   3.576   1.340
26717SOL    HW282049   9.296   3.488   1.344
26718SOL     OW82050   0.800   9.101  10.602
26718SOL    HW182051   0.782   9.052  10.682
26718SOL    HW282052   0.893   9.123  10.608
26719SOL     OW82053  10.453   4.672   1.741
26719SOL    HW182054  10.385   4.738   1.758
26719SOL    HW282055  10.532   4.709   1.781
26720SOL     OW82056  12.732  14.452  11.237
26720SOL    HW182057  12.762  14.488  11.320
26720SOL    HW282058  12.672  14.517  11.202
26721SOL     OW82059   3.559  12.180   2.472
26721SOL    HW182060   3.511  12.148   2.548
26721SOL    HW282061   3.650  12.181   2.499
26722SOL     OW82062  14.291   2.209   9.143
26722SOL    HW182063  14.199   2.185   9.140
26722SOL    HW282064  14.337   2.125   9.147
26723SOL     OW82065   0.929   7.525  12.158
26723SOL    HW182066   0.866   7.461  12.192
26723SOL    HW282067   0.906   7.533  12.065
26724SOL     OW82068  11.873   8.774   1.732
26724SOL    HW182069  11.956   8.767   1.779
26724SOL    HW282070  11.824   8.841   1.779
26725SOL     OW82071  10.226   6.212   1.555
26725SOL    HW182072  10.205   6.121   1.579
26725SOL    HW282073  10.169   6.265   1.611
26726SOL     OW82074   8.245   6.751  10.519
26726SOL    HW182075   8.213   6.668  10.553
26726SOL    HW282076   8.339   6.739  10.510
26727SOL     OW82077  10.259  13.181   2.731
26727SOL    HW182078  10.227  13.208   2.645
26727SOL    HW282079  10.195  13.216   2.793
26728SOL     OW82080   3.338  12.872   9.343
26728SOL    HW182081   3.270  12.834   9.400
26728SOL    HW282082   3.389  12.796   9.313
26729SOL     OW82083   9.680   5.862   3.360
26729SOL    HW182084   9.657   5.857   3.267
26729SOL    HW282085   9.618   5.803   3.403
26730SOL     OW82086   0.231   5.547  13.119
26730SOL    HW182087   0.320   5.525  13.149
26730SOL    HW282088   0.193   5.596  13.192
26731SOL     OW82089  13.436   0.586   3.990
26731SOL    HW182090  13.424   0.651   4.059
26731SOL    HW282091  13.350   0.578   3.948
26732SOL     OW82092   5.230  11.358   5.665
26732SOL    HW182093   5.218  11.281   5.721
26732SOL    HW282094   5.221  11.325   5.576
26733SOL     OW82095  14.324   1.789  12.435
26733SOL    HW182096  14.260   1.813  12.368
26733SOL    HW282097  14.408   1.814  12.397
26734SOL     OW82098   4.928   6.621  13.624
26734SOL    HW182099   4.952   6.542  13.575
26734SOL    HW282100   4.978   6.691  13.582
26735SOL     OW82101   9.467   2.525  12.641
26735SOL    HW182102   9.510   2.570  12.713
26735SOL    HW282103   9.537   2.507  12.578
26736SOL     OW82104  13.028  13.828  13.219
26736SOL    HW182105  13.113  13.821  13.262
26736SOL    HW282106  12.964  13.818  13.290
26737SOL     OW82107  10.647  13.758   2.458
26737SOL    HW182108  10.638  13.666   2.484
26737SOL    HW282109  10.609  13.762   2.370
26738SOL     OW82110  13.206  14.429   6.222
26738SOL    HW182111  13.292  14.445   6.262
26738SOL    HW282112  13.149  14.409   6.296
26739SOL     OW82113   4.746   2.450   4.033
26739SOL    HW182114   4.705   2.377   4.080
26739SOL    HW282115   4.827   2.412   3.997
26740SOL     OW82116   6.456   5.553  12.298
26740SOL    HW182117   6.430   5.472  12.342
26740SOL    HW282118   6.376   5.586  12.258
26741SOL     OW82119   9.372   1.095   7.450
26741SOL    HW182120   9.430   1.076   7.524
26741SOL    HW282121   9.430   1.093   7.374
26742SOL     OW82122  13.584   0.409   7.635
26742SOL    HW182123  13.646   0.394   7.563
26742SOL    HW282124  13.636   0.450   7.704
26743SOL     OW82125  12.309  13.074   6.508
26743SOL    HW182126  12.357  12.992   6.502
26743SOL    HW282127  12.252  13.064   6.584
26744SOL     OW82128   8.120   0.720   6.494
26744SOL    HW182129   8.169   0.662   6.552
26744SOL    HW282130   8.135   0.685   6.406
26745SOL     OW82131   8.104   5.631   7.991
26745SOL    HW182132   8.145   5.715   8.010
26745SOL    HW282133   8.095   5.630   7.896
26746SOL     OW82134   0.216   0.172   4.829
26746SOL    HW182135   0.277   0.228   4.781
26746SOL    HW282136   0.265   0.143   4.906
26747SOL     OW82137   8.315   1.946   8.890
26747SOL    HW182138   8.388   1.900   8.931
26747SOL    HW282139   8.249   1.878   8.873
26748SOL     OW82140   0.481   7.999   8.950
26748SOL    HW182141   0.561   7.999   8.896
26748SOL    HW282142   0.416   8.044   8.896
26749SOL     OW82143  13.055  12.454   5.562
26749SOL    HW182144  13.034  12.449   5.469
26749SOL    HW282145  12.984  12.405   5.604
26750SOL     OW82146   8.690  13.310   4.494
26750SOL    HW182147   8.701  13.246   4.563
26750SOL    HW282148   8.624  13.371   4.527
26751SOL     OW82149   0.459  13.016  14.575
26751SOL    HW182150   0.508  13.063  14.506
26751SOL    HW282151   0.515  12.941  14.597
26752SOL     OW82152  12.937   8.464  14.036
26752SOL    HW182153  13.028   8.434  14.026
26752SOL    HW282154  12.921   8.518  13.958
26753SOL     OW82155  11.151   6.136   9.827
26753SOL    HW182156  11.164   6.229   9.805
26753SOL    HW282157  11.081   6.108   9.768
26754SOL     OW82158   3.105   9.392  13.052
26754SOL    HW182159   3.073   9.415  13.139
26754SOL    HW282160   3.126   9.299  13.059
26755SOL     OW82161  10.809  14.612   8.190
26755SOL    HW182162  10.760  14.629   8.271
26755SOL    HW282163  10.772  14.673   8.126
26756SOL     OW82164   6.844   8.250  10.935
26756SOL    HW182165   6.928   8.296  10.943
26756SOL    HW282166   6.784   8.301  10.989
26757SOL     OW82167   7.335  12.950   3.770
26757SOL    HW182168   7.295  12.866   3.792
26757SOL    HW282169   7.423  12.944   3.808
26758SOL     OW82170   3.553  11.365   4.426
26758SOL    HW182171   3.609  11.333   4.356
26758SOL    HW282172   3.516  11.446   4.393
26759SOL     OW82173   9.580  11.349   6.075
26759SOL    HW182174   9.506  11.386   6.123
26759SOL    HW282175   9.571  11.255   6.087
26760SOL     OW82176   3.891   9.412   1.584
26760SOL    HW182177   3.910   9.346   1.651
26760SOL    HW282178   3.949   9.391   1.511
26761SOL     OW82179  10.508  14.521   1.525
26761SOL    HW182180  10.443  14.587   1.502
26761SOL    HW282181  10.459  14.440   1.532
26762SOL     OW82182   6.397   9.182  13.602
26762SOL    HW182183   6.455   9.227  13.664
26762SOL    HW282184   6.329   9.246  13.582
26763SOL     OW82185   4.267   2.509   2.872
26763SOL    HW182186   4.263   2.604   2.865
26763SOL    HW282187   4.184   2.478   2.836
26764SOL     OW82188   0.028   3.772   3.478
26764SOL    HW182189   0.116   3.742   3.501
26764SOL    HW282190  14.875   3.813   3.558
26765SOL     OW82191   7.827   9.957  11.770
26765SOL    HW182192   7.783  10.042  11.777
26765SOL    HW282193   7.874   9.961  11.686
26766SOL     OW82194   3.183   4.241   6.169
26766SOL    HW182195   3.185   4.149   6.193
26766SOL    HW282196   3.221   4.244   6.081
26767SOL     OW82197   4.112   7.338   2.258
26767SOL    HW182198   4.050   7.351   2.331
26767SOL    HW282199   4.198   7.357   2.295
26768SOL     OW82200   3.678   2.383  10.323
26768SOL    HW182201   3.754   2.428  10.286
26768SOL    HW282202   3.716   2.315  10.379
26769SOL     OW82203   8.981  13.490  13.508
26769SOL    HW182204   8.953  13.432  13.437
26769SOL    HW282205   9.062  13.449  13.541
26770SOL     OW82206  10.447   5.474   4.592
26770SOL    HW182207  10.425   5.439   4.678
26770SOL    HW282208  10.435   5.569   4.601
26771SOL     OW82209  13.307   9.207   1.977
26771SOL    HW182210  13.265   9.202   1.891
26771SOL    HW282211  13.396   9.174   1.962
26772SOL     OW82212  14.733   7.537   0.251
26772SOL    HW182213  14.721   7.547   0.346
26772SOL    HW282214  14.750   7.444   0.239
26773SOL     OW82215  10.895  13.845   2.062
26773SOL    HW182216  10.817  13.858   2.009
26773SOL    HW282217  10.895  13.918   2.124
26774SOL     OW82218   5.825   0.734   4.766
26774SOL    HW182219   5.772   0.813   4.759
26774SOL    HW282220   5.779   0.680   4.830
26775SOL     OW82221   1.162   6.744   0.634
26775SOL    HW182222   1.232   6.682   0.615
26775SOL    HW282223   1.123   6.763   0.548
26776SOL     OW82224   2.805  12.483  14.329
26776SOL    HW182225   2.834  12.511  14.415
26776SOL    HW282226   2.777  12.392  14.342
26777SOL     OW82227  14.192   5.580   6.722
26777SOL    HW182228  14.104   5.567   6.686
26777SOL    HW282229  14.251   5.561   6.650
26778SOL     OW82230   6.627   0.636   3.588
26778SOL    HW182231   6.598   0.691   3.661
26778SOL    HW282232   6.690   0.576   3.628
26779SOL     OW82233   4.118   7.454   3.004
26779SOL    HW182234   4.211   7.465   3.021
26779SOL    HW282235   4.077   7.532   3.042
26780SOL     OW82236   4.007  13.274   6.060
26780SOL    HW182237   3.989  13.346   6.000
26780SOL    HW282238   3.975  13.196   6.014
26781SOL     OW82239   5.909   6.521   0.401
26781SOL    HW182240   5.813   6.520   0.408
26781SOL    HW282241   5.926   6.590   0.337
26782SOL     OW82242  12.212  13.957  12.699
26782SOL    HW182243  12.170  13.948  12.614
26782SOL    HW282244  12.304  13.939  12.683
26783SOL     OW82245   3.368   2.631   6.085
26783SOL    HW182246   3.404   2.572   6.018
26783SOL    HW282247   3.277   2.605   6.094
26784SOL     OW82248   5.451   1.159  11.574
26784SOL    HW182249   5.510   1.215  11.623
26784SOL    HW282250   5.479   1.070  11.594
26785SOL     OW82251   5.673  12.052  11.770
26785SOL    HW182252   5.629  12.002  11.839
26785SOL    HW282253   5.727  11.987  11.725
26786SOL     OW82254  10.494   7.953   1.423
26786SOL    HW182255  10.561   7.924   1.361
26786SOL    HW282256  10.541   8.009   1.484
26787SOL     OW82257   6.982  14.280   2.203
26787SOL    HW182258   6.967  14.222   2.128
26787SOL    HW282259   7.058  14.332   2.177
26788SOL     OW82260  13.558   1.141  10.095
26788SOL    HW182261  13.554   1.070  10.159
26788SOL    HW282262  13.468   1.171  10.086
26789SOL     OW82263  11.263   6.367  11.789
26789SOL    HW182264  11.167   6.365  11.792
26789SOL    HW282265  11.284   6.388  11.698
26790SOL     OW82266   3.553  10.969   2.691
26790SOL    HW182267   3.601  10.910   2.748
26790SOL    HW282268   3.527  11.042   2.747
26791SOL     OW82269  13.528   6.976  13.656
26791SOL    HW182270  13.531   6.881  13.667
26791SOL    HW282271  13.575   6.992  13.574
26792SOL     OW82272   4.914   4.041  10.593
26792SOL    HW182273   5.009   4.054  10.584
26792SOL    HW282274   4.876   4.127  10.571
26793SOL     OW82275  14.296   6.072  14.303
26793SOL    HW182276  14.223   6.122  14.266
26793SOL    HW282277  14.356   6.139  14.337
26794SOL     OW82278  10.812   5.418   4.105
26794SOL    HW182279  10.858   5.445   4.025
26794SOL    HW282280  10.804   5.323   4.097
26795SOL     OW82281  12.608   5.727  10.123
26795SOL    HW182282  12.656   5.693  10.198
26795SOL    HW282283  12.529   5.766  10.160
26796SOL     OW82284  12.928  10.179   8.404
26796SOL    HW182285  13.009  10.189   8.353
26796SOL    HW282286  12.909  10.267   8.436
26797SOL     OW82287   0.693   6.935  10.168
26797SOL    HW182288   0.664   6.921  10.078
26797SOL    HW282289   0.613   6.932  10.221
26798SOL     OW82290   9.959   4.354  14.878
26798SOL    HW182291   9.985   4.268   0.032
26798SOL    HW282292   9.976   4.348  14.784
26799SOL     OW82293   1.231   9.707   8.511
26799SOL    HW182294   1.280   9.675   8.587
26799SOL    HW282295   1.164   9.640   8.497
26800SOL     OW82296  14.798   1.806  10.792
26800SOL    HW182297  14.767   1.883  10.840
26800SOL    HW282298   0.007   1.792  10.825
26801SOL     OW82299   9.571   3.771   3.626
26801SOL    HW182300   9.642   3.707   3.629
26801SOL    HW282301   9.526   3.761   3.710
26802SOL     OW82302   2.923   3.229   7.717
26802SOL    HW182303   2.940   3.146   7.762
26802SOL    HW282304   2.900   3.290   7.787
26803SOL     OW82305   0.127   1.298   3.258
26803SOL    HW182306   0.216   1.264   3.270
26803SOL    HW282307   0.081   1.276   3.338
26804SOL     OW82308   8.646  14.334   1.922
26804SOL    HW182309   8.702  14.401   1.961
26804SOL    HW282310   8.557  14.364   1.938
26805SOL     OW82311   2.355   4.999  14.177
26805SOL    HW182312   2.296   4.925  14.170
26805SOL    HW282313   2.298   5.076  14.179
26806SOL     OW82314   8.831   3.367  13.657
26806SOL    HW182315   8.797   3.442  13.608
26806SOL    HW282316   8.805   3.291  13.604
26807SOL     OW82317  14.855   7.841  11.024
26807SOL    HW182318   0.003   7.892  11.101
26807SOL    HW282319  14.779   7.792  11.054
26808SOL     OW82320   6.623  11.165  13.889
26808SOL    HW182321   6.559  11.095  13.877
26808SOL    HW282322   6.706  11.119  13.901
26809SOL     OW82323  13.165   4.930   0.433
26809SOL    HW182324  13.140   4.879   0.356
26809SOL    HW282325  13.253   4.898   0.455
26810SOL     OW82326   1.951   0.322   4.569
26810SOL    HW182327   1.858   0.322   4.592
26810SOL    HW282328   1.952   0.329   4.474
26811SOL     OW82329   2.269   0.924   0.308
26811SOL    HW182330   2.323   0.881   0.374
26811SOL    HW282331   2.234   1.002   0.352
26812SOL     OW82332   4.964   3.151   3.157
26812SOL    HW182333   4.893   3.132   3.220
26812SOL    HW282334   4.999   3.065   3.135
26813SOL     OW82335   0.751  13.123   4.331
26813SOL    HW182336   0.678  13.075   4.372
26813SOL    HW282337   0.825  13.107   4.389
26814SOL     OW82338  12.253   1.340   9.598
26814SOL    HW182339  12.295   1.264   9.638
26814SOL    HW282340  12.159   1.325   9.611
26815SOL     OW82341   0.679   9.070   1.705
26815SOL    HW182342   0.769   9.037   1.700
26815SOL    HW282343   0.678   9.124   1.784
26816SOL     OW82344   0.812  11.457   3.676
26816SOL    HW182345   0.814  11.426   3.766
26816SOL    HW282346   0.850  11.545   3.679
26817SOL     OW82347   9.774  13.452   5.517
26817SOL    HW182348   9.743  13.409   5.437
26817SOL    HW282349   9.858  13.491   5.492
26818SOL     OW82350   5.939   8.227  13.921
26818SOL    HW182351   5.983   8.142  13.917
26818SOL    HW282352   6.011   8.291  13.915
26819SOL     OW82353   4.764  12.131  10.839
26819SOL    HW182354   4.670  12.113  10.834
26819SOL    HW282355   4.769  12.227  10.846
26820SOL     OW82356   1.152   5.075   6.264
26820SOL    HW182357   1.160   4.984   6.294
26820SOL    HW282358   1.058   5.087   6.249
26821SOL     OW82359  11.898   8.536   3.596
26821SOL    HW182360  11.954   8.564   3.668
26821SOL    HW282361  11.830   8.603   3.592
26822SOL     OW82362   6.505   0.828   1.127
26822SOL    HW182363   6.527   0.888   1.056
26822SOL    HW282364   6.429   0.869   1.169
26823SOL     OW82365   6.479  12.106   1.261
26823SOL    HW182366   6.529  12.027   1.245
26823SOL    HW282367   6.453  12.137   1.175
26824SOL     OW82368   4.462   2.232   8.505
26824SOL    HW182369   4.397   2.302   8.505
26824SOL    HW282370   4.536   2.268   8.554
26825SOL     OW82371  11.545  10.135   7.295
26825SOL    HW182372  11.461  10.091   7.282
26825SOL    HW282373  11.578  10.098   7.377
26826SOL     OW82374  13.357  13.018   2.989
26826SOL    HW182375  13.389  12.940   3.034
26826SOL    HW282376  13.426  13.083   3.001
26827SOL     OW82377  10.147  11.746  10.184
26827SOL    HW182378  10.208  11.773  10.115
26827SOL    HW282379  10.064  11.787  10.161
26828SOL     OW82380   9.182  11.729   5.214
26828SOL    HW182381   9.141  11.643   5.222
26828SOL    HW282382   9.276  11.711   5.217
26829SOL     OW82383   7.156   7.234  13.483
26829SOL    HW182384   7.075   7.278  13.455
26829SOL    HW282385   7.176   7.274  13.568
26830SOL     OW82386  14.794  10.373   9.260
26830SOL    HW182387  14.793  10.292   9.311
26830SOL    HW282388  14.854  10.355   9.188
26831SOL     OW82389  10.559   8.419  14.080
26831SOL    HW182390  10.615   8.375  14.143
26831SOL    HW282391  10.606   8.412  13.997
26832SOL     OW82392   9.242   9.124   3.710
26832SOL    HW182393   9.323   9.174   3.697
26832SOL    HW282394   9.178   9.167   3.653
26833SOL     OW82395   6.575  14.138   2.657
26833SOL    HW182396   6.665  14.135   2.688
26833SOL    HW282397   6.548  14.046   2.655
26834SOL     OW82398   3.691  11.598   8.899
26834SOL    HW182399   3.741  11.557   8.970
26834SOL    HW282400   3.711  11.544   8.822
26835SOL     OW82401  14.397   3.262  10.175
26835SOL    HW182402  14.362   3.264  10.264
26835SOL    HW282403  14.474   3.206  10.181
26836SOL     OW82404   7.107  10.994  11.137
26836SOL    HW182405   7.032  11.053  11.144
26836SOL    HW282406   7.174  11.046  11.094
26837SOL     OW82407  14.088   1.050   0.481
26837SOL    HW182408  14.084   0.960   0.448
26837SOL    HW282409  14.161   1.090   0.434
26838SOL     OW82410   7.871  14.218   8.042
26838SOL    HW182411   7.895  14.277   7.971
26838SOL    HW282412   7.839  14.139   7.998
26839SOL     OW82413   3.312   1.818   9.134
26839SOL    HW182414   3.231   1.786   9.174
26839SOL    HW282415   3.379   1.799   9.200
26840SOL     OW82416  14.546  11.708   1.054
26840SOL    HW182417  14.488  11.632   1.059
26840SOL    HW282418  14.574  11.710   0.962
26841SOL     OW82419   6.653   8.827   4.594
26841SOL    HW182420   6.632   8.912   4.557
26841SOL    HW282421   6.570   8.795   4.629
26842SOL     OW82422   7.901  12.385  12.957
26842SOL    HW182423   7.926  12.459  12.903
26842SOL    HW282424   7.949  12.310  12.920
26843SOL     OW82425   0.775   3.136   4.196
26843SOL    HW182426   0.710   3.068   4.212
26843SOL    HW282427   0.844   3.093   4.146
26844SOL     OW82428  12.682  10.655   4.244
26844SOL    HW182429  12.738  10.694   4.312
26844SOL    HW282430  12.742  10.632   4.174
26845SOL     OW82431   3.405   4.757  14.353
26845SOL    HW182432   3.452   4.835  14.383
26845SOL    HW282433   3.413   4.694  14.424
26846SOL     OW82434   6.143  14.473   6.169
26846SOL    HW182435   6.217  14.417   6.193
26846SOL    HW282436   6.177  14.562   6.176
26847SOL     OW82437   2.474  10.184  10.007
26847SOL    HW182438   2.553  10.131   9.998
26847SOL    HW282439   2.404  10.120  10.022
26848SOL     OW82440   6.666  12.798   0.107
26848SOL    HW182441   6.578  12.800   0.072
26848SOL    HW282442   6.715  12.742   0.047
26849SOL     OW82443   6.430   5.672  13.180
26849SOL    HW182444   6.502   5.708  13.128
26849SOL    HW282445   6.351   5.692  13.129
26850SOL     OW82446   3.526  10.304   2.579
26850SOL    HW182447   3.497  10.352   2.502
26850SOL    HW282448   3.447  10.292   2.632
26851SOL     OW82449   9.365  12.975   2.705
26851SOL    HW182450   9.349  13.063   2.740
26851SOL    HW282451   9.431  12.987   2.637
26852SOL     OW82452   4.371   5.933   8.857
26852SOL    HW182453   4.386   5.933   8.951
26852SOL    HW282454   4.401   5.847   8.828
26853SOL     OW82455  12.715  10.332  11.287
26853SOL    HW182456  12.688  10.335  11.378
26853SOL    HW282457  12.634  10.349  11.237
26854SOL     OW82458   7.143   3.110   5.846
26854SOL    HW182459   7.106   3.100   5.759
26854SOL    HW282460   7.080   3.164   5.893
26855SOL     OW82461   7.699  14.238  14.365
26855SOL    HW182462   7.676  14.192  14.446
26855SOL    HW282463   7.623  14.294  14.348
26856SOL     OW82464  10.472   3.398   8.278
26856SOL    HW182465  10.477   3.493   8.289
26856SOL    HW282466  10.386   3.383   8.239
26857SOL     OW82467   4.355   5.047   1.599
26857SOL    HW182468   4.384   4.990   1.670
26857SOL    HW282469   4.344   4.989   1.524
26858SOL     OW82470   8.977  11.677   8.778
26858SOL    HW182471   8.889  11.685   8.814
26858SOL    HW282472   9.029  11.642   8.849
26859SOL     OW82473  14.249   8.087   3.446
26859SOL    HW182474  14.206   8.172   3.433
26859SOL    HW282475  14.338   8.108   3.472
26860SOL     OW82476  12.592   1.783   3.379
26860SOL    HW182477  12.662   1.839   3.346
26860SOL    HW282478  12.589   1.709   3.318
26861SOL     OW82479   8.270  11.435   2.256
26861SOL    HW182480   8.352  11.432   2.207
26861SOL    HW282481   8.255  11.344   2.282
26862SOL     OW82482  14.377   2.073  14.136
26862SOL    HW182483  14.465   2.104  14.158
26862SOL    HW282484  14.390   2.012  14.064
26863SOL     OW82485  13.175   5.129  12.785
26863SOL    HW182486  13.089   5.153  12.748
26863SOL    HW282487  13.155   5.064  12.852
26864SOL     OW82488   3.959  11.819  10.382
26864SOL    HW182489   3.951  11.724  10.374
26864SOL    HW282490   3.955  11.851  10.291
26865SOL     OW82491   7.643   6.882  14.863
26865SOL    HW182492   7.722   6.881  14.809
26865SOL    HW282493   7.582   6.825  14.816
26866SOL     OW82494  13.496   6.655   1.730
26866SOL    HW182495  13.569   6.709   1.699
26866SOL    HW282496  13.428   6.666   1.663
26867SOL     OW82497  14.513   1.892   8.835
26867SOL    HW182498  14.435   1.872   8.783
26867SOL    HW282499  14.520   1.820   8.898
26868SOL     OW82500  10.780   2.019   4.196
26868SOL    HW182501  10.842   1.965   4.245
26868SOL    HW282502  10.726   2.062   4.262
26869SOL     OW82503  14.280   0.899   1.796
26869SOL    HW182504  14.270   0.835   1.866
26869SOL    HW282505  14.361   0.945   1.817
26870SOL     OW82506  10.846  10.491  10.201
26870SOL    HW182507  10.823  10.540  10.281
26870SOL    HW282508  10.882  10.558  10.142
26871SOL     OW82509  14.055   8.339  10.072
26871SOL    HW182510  13.975   8.300  10.038
26871SOL    HW282511  14.112   8.264  10.092
26872SOL     OW82512   6.190   4.506   1.403
26872SOL    HW182513   6.128   4.516   1.476
26872SOL    HW282514   6.148   4.547   1.329
26873SOL     OW82515  10.323   8.680  14.327
26873SOL    HW182516  10.322   8.596  14.280
26873SOL    HW282517  10.245   8.726  14.297
26874SOL     OW82518   6.909  10.914   5.605
26874SOL    HW182519   6.934  10.993   5.558
26874SOL    HW282520   6.847  10.943   5.671
26875SOL     OW82521   7.705   1.823  10.830
26875SOL    HW182522   7.723   1.792  10.919
26875SOL    HW282523   7.639   1.892  10.841
26876SOL     OW82524   6.101  11.949   2.119
26876SOL    HW182525   6.061  11.883   2.063
26876SOL    HW282526   6.083  12.032   2.075
26877SOL     OW82527   2.260   2.210   9.806
26877SOL    HW182528   2.275   2.187   9.714
26877SOL    HW282529   2.225   2.130   9.845
26878SOL     OW82530   3.875  13.252   5.219
26878SOL    HW182531   3.860  13.180   5.280
26878SOL    HW282532   3.844  13.330   5.265
26879SOL     OW82533   5.700   8.651   8.978
26879SOL    HW182534   5.652   8.725   8.942
26879SOL    HW282535   5.671   8.576   8.925
26880SOL     OW82536  10.827   2.184   8.624
26880SOL    HW182537  10.833   2.154   8.533
26880SOL    HW282538  10.764   2.256   8.621
26881SOL     OW82539   7.004  10.092   3.868
26881SOL    HW182540   7.048  10.020   3.912
26881SOL    HW282541   6.943  10.050   3.807
26882SOL     OW82542   2.264   1.480  11.864
26882SOL    HW182543   2.208   1.556  11.877
26882SOL    HW282544   2.302   1.493  11.777
26883SOL     OW82545  10.426   3.873  10.980
26883SOL    HW182546  10.475   3.796  10.953
26883SOL    HW282547  10.487   3.922  11.035
26884SOL     OW82548  12.438   9.310  14.733
26884SOL    HW182549  12.439   9.338  14.825
26884SOL    HW282550  12.345   9.309  14.710
26885SOL     OW82551   9.671   1.151  14.043
26885SOL    HW182552   9.720   1.072  14.021
26885SOL    HW282553   9.738   1.217  14.061
26886SOL     OW82554   9.774  11.857   1.775
26886SOL    HW182555   9.765  11.945   1.810
26886SOL    HW282556   9.848  11.862   1.715
26887SOL     OW82557   1.894   8.217   7.895
26887SOL    HW182558   1.927   8.236   7.983
26887SOL    HW282559   1.864   8.302   7.863
26888SOL     OW82560   2.094  14.709  14.756
26888SOL    HW182561   2.137  14.794  14.766
26888SOL    HW282562   2.008  14.721  14.796
26889SOL     OW82563  12.038  12.450   5.249
26889SOL    HW182564  11.948  12.472   5.274
26889SOL    HW282565  12.084  12.533   5.247
26890SOL     OW82566  10.702   9.032  12.357
26890SOL    HW182567  10.635   8.968  12.381
26890SOL    HW282568  10.736   9.063  12.441
26891SOL     OW82569  11.824  12.155   3.242
26891SOL    HW182570  11.829  12.060   3.226
26891SOL    HW282571  11.791  12.191   3.159
26892SOL     OW82572  13.499  10.695   7.247
26892SOL    HW182573  13.565  10.758   7.276
26892SOL    HW282574  13.529  10.666   7.161
26893SOL     OW82575   8.755   9.305   4.331
26893SOL    HW182576   8.843   9.301   4.293
26893SOL    HW282577   8.731   9.214   4.348
26894SOL     OW82578  10.350   6.820  12.489
26894SOL    HW182579  10.340   6.905  12.532
26894SOL    HW282580  10.442   6.798  12.502
26895SOL     OW82581   2.833  12.850  12.107
26895SOL    HW182582   2.753  12.803  12.081
26895SOL    HW282583   2.877  12.790  12.168
26896SOL     OW82584  14.366   5.735   4.889
26896SOL    HW182585  14.393   5.826   4.897
26896SOL    HW282586  14.301   5.723   4.958
26897SOL     OW82587   2.345  12.382   9.262
26897SOL    HW182588   2.354  12.388   9.357
26897SOL    HW282589   2.366  12.470   9.231
26898SOL     OW82590   2.636   5.168  12.818
26898SOL    HW182591   2.568   5.186  12.752
26898SOL    HW282592   2.701   5.237  12.804
26899SOL     OW82593  10.260   1.291  14.366
26899SOL    HW182594  10.166   1.310  14.362
26899SOL    HW282595  10.302   1.377  14.361
26900SOL     OW82596   0.816  11.268   4.927
26900SOL    HW182597   0.874  11.344   4.938
26900SOL    HW282598   0.728  11.305   4.931
26901SOL     OW82599   9.164   3.282  11.722
26901SOL    HW182600   9.233   3.325  11.671
26901SOL    HW282601   9.120   3.353  11.768
26902SOL     OW82602   4.391   0.433   2.636
26902SOL    HW182603   4.393   0.403   2.727
26902SOL    HW282604   4.481   0.422   2.605
26903SOL     OW82605   2.818   5.508   6.759
26903SOL    HW182606   2.899   5.511   6.708
26903SOL    HW282607   2.780   5.422   6.738
26904SOL     OW82608   8.682   8.403   0.205
26904SOL    HW182609   8.667   8.426   0.297
26904SOL    HW282610   8.618   8.334   0.188
26905SOL     OW82611   0.672  12.199   1.905
26905SOL    HW182612   0.684  12.126   1.967
26905SOL    HW282613   0.586  12.235   1.927
26906SOL     OW82614   2.910   8.758   1.138
26906SOL    HW182615   2.965   8.737   1.063
26906SOL    HW282616   2.848   8.685   1.144
26907SOL     OW82617   5.003  12.904   1.021
26907SOL    HW182618   5.025  12.896   1.113
26907SOL    HW282619   4.943  12.979   1.017
26908SOL     OW82620   4.769   1.568  13.762
26908SOL    HW182621   4.717   1.497  13.799
26908SOL    HW282622   4.744   1.645  13.813
26909SOL     OW82623   9.481  13.979   2.659
26909SOL    HW182624   9.398  14.024   2.673
26909SOL    HW282625   9.502  13.939   2.743
26910SOL     OW82626   6.361  11.555  10.412
26910SOL    HW182627   6.326  11.615  10.347
26910SOL    HW282628   6.440  11.519  10.372
26911SOL     OW82629   1.145  13.334  11.754
26911SOL    HW182630   1.085  13.323  11.681
26911SOL    HW282631   1.181  13.422  11.743
26912SOL     OW82632   0.295   2.261   9.735
26912SOL    HW182633   0.379   2.296   9.706
26912SOL    HW282634   0.295   2.276   9.830
26913SOL     OW82635   8.954   0.624   1.821
26913SOL    HW182636   9.020   0.556   1.824
26913SOL    HW282637   8.903   0.606   1.742
26914SOL     OW82638   6.761   7.917   7.114
26914SOL    HW182639   6.836   7.952   7.064
26914SOL    HW282640   6.708   7.994   7.133
26915SOL     OW82641  12.913   9.274  14.037
26915SOL    HW182642  12.987   9.315  14.082
26915SOL    HW282643  12.919   9.307  13.947
26916SOL     OW82644   9.662   7.910   6.763
26916SOL    HW182645   9.658   7.925   6.669
26916SOL    HW282646   9.572   7.889   6.788
26917SOL     OW82647  14.059  12.239  14.059
26917SOL    HW182648  13.995  12.254  13.990
26917SOL    HW282649  14.017  12.270  14.139
26918SOL     OW82650   3.124  13.202   8.545
26918SOL    HW182651   3.116  13.128   8.604
26918SOL    HW282652   3.036  13.214   8.510
26919SOL     OW82653   6.396  12.349   7.429
26919SOL    HW182654   6.450  12.388   7.498
26919SOL    HW282655   6.364  12.423   7.378
26920SOL     OW82656   7.451   0.224  13.564
26920SOL    HW182657   7.455   0.294  13.629
26920SOL    HW282658   7.373   0.245  13.511
26921SOL     OW82659   7.450  13.953  12.496
26921SOL    HW182660   7.390  13.948  12.571
26921SOL    HW282661   7.430  13.874  12.445
26922SOL     OW82662  13.761  11.464  14.709
26922SOL    HW182663  13.678  11.493  14.748
26922SOL    HW282664  13.737  11.430  14.623
26923SOL     OW82665  11.021   4.386   0.186
26923SOL    HW182666  11.091   4.333   0.149
26923SOL    HW282667  10.963   4.406   0.112
26924SOL     OW82668   2.841   5.388  10.671
26924SOL    HW182669   2.766   5.383  10.731
26924SOL    HW282670   2.864   5.481  10.669
26925SOL     OW82671   6.835   6.552   2.279
26925SOL    HW182672   6.927   6.572   2.262
26925SOL    HW282673   6.835   6.510   2.365
26926SOL     OW82674  11.089   2.176  14.647
26926SOL    HW182675  11.053   2.136  14.726
26926SOL    HW282676  11.093   2.105  14.584
26927SOL     OW82677   2.053  11.525  14.575
26927SOL    HW182678   2.116  11.589  14.606
26927SOL    HW282679   1.975  11.576  14.552
26928SOL     OW82680   9.515   8.164  11.974
26928SOL    HW182681   9.525   8.145  11.881
26928SOL    HW282682   9.500   8.259  11.978
26929SOL     OW82683   0.106   6.803   2.892
26929SOL    HW182684   0.157   6.752   2.955
26929SOL    HW282685   0.170   6.858   2.847
26930SOL     OW82686  12.525   4.289   7.479
26930SOL    HW182687  12.468   4.249   7.413
26930SOL    HW282688  12.476   4.364   7.511
26931SOL     OW82689   8.537   3.461   4.627
26931SOL    HW182690   8.451   3.505   4.622
26931SOL    HW282691   8.516   3.370   4.646
26932SOL     OW82692   9.875   5.764   8.682
26932SOL    HW182693   9.781   5.753   8.698
26932SOL    HW282694   9.902   5.834   8.742
26933SOL     OW82695   1.163  13.731   8.952
26933SOL    HW182696   1.093  13.775   8.904
26933SOL    HW282697   1.119  13.663   9.002
26934SOL     OW82698   4.793  11.770   2.798
26934SOL    HW182699   4.869  11.774   2.739
26934SOL    HW282700   4.723  11.734   2.744
26935SOL     OW82701   2.475   5.218   2.167
26935SOL    HW182702   2.388   5.255   2.150
26935SOL    HW282703   2.462   5.160   2.241
26936SOL     OW82704  10.879   1.033  11.937
26936SOL    HW182705  10.942   0.986  11.991
26936SOL    HW282706  10.923   1.044  11.853
26937SOL     OW82707   8.688   8.937   3.215
26937SOL    HW182708   8.649   8.855   3.186
26937SOL    HW282709   8.734   8.971   3.138
26938SOL     OW82710   8.803   1.948  13.276
26938SOL    HW182711   8.731   1.975  13.332
26938SOL    HW282712   8.769   1.872  13.229
26939SOL     OW82713   8.559   8.468  11.665
26939SOL    HW182714   8.634   8.471  11.606
26939SOL    HW282715   8.538   8.375  11.673
26940SOL     OW82716   5.440  12.659  10.134
26940SOL    HW182717   5.369  12.721  10.152
26940SOL    HW282718   5.514  12.714  10.108
26941SOL     OW82719  14.264  13.475   5.485
26941SOL    HW182720  14.296  13.450   5.398
26941SOL    HW282721  14.173  13.446   5.486
26942SOL     OW82722   3.471   5.996   5.684
26942SOL    HW182723   3.561   5.980   5.712
26942SOL    HW282724   3.452   6.085   5.714
26943SOL     OW82725   7.261   3.781   9.350
26943SOL    HW182726   7.332   3.774   9.414
26943SOL    HW282727   7.191   3.826   9.397
26944SOL     OW82728   9.980   9.916   9.920
26944SOL    HW182729   9.962   9.969   9.843
26944SOL    HW282730   9.943   9.830   9.900
26945SOL     OW82731  13.169   2.394  10.075
26945SOL    HW182732  13.229   2.329  10.039
26945SOL    HW282733  13.206   2.416  10.161
26946SOL     OW82734   3.754  10.920   7.760
26946SOL    HW182735   3.813  10.874   7.820
26946SOL    HW282736   3.736  10.857   7.691
26947SOL     OW82737   9.864   1.684   5.285
26947SOL    HW182738   9.902   1.675   5.197
26947SOL    HW282739   9.773   1.657   5.274
26948SOL     OW82740   7.589   1.313   5.259
26948SOL    HW182741   7.521   1.255   5.294
26948SOL    HW282742   7.561   1.330   5.169
26949SOL     OW82743   6.387  11.532  13.775
26949SOL    HW182744   6.350  11.444  13.762
26949SOL    HW282745   6.480  11.523  13.755
26950SOL     OW82746   2.151   0.684  14.434
26950SOL    HW182747   2.184   0.600  14.467
26950SOL    HW282748   2.229   0.734  14.411
26951SOL     OW82749  11.382   0.745   6.781
26951SOL    HW182750  11.376   0.702   6.696
26951SOL    HW282751  11.475   0.741   6.804
26952SOL     OW82752   3.131  11.341   9.036
26952SOL    HW182753   3.053  11.286   9.038
26952SOL    HW282754   3.191  11.297   8.976
26953SOL     OW82755   8.641  10.643   2.986
26953SOL    HW182756   8.616  10.552   2.973
26953SOL    HW282757   8.683  10.668   2.904
26954SOL     OW82758  12.973  11.924   9.150
26954SOL    HW182759  12.881  11.900   9.133
26954SOL    HW282760  12.995  11.985   9.081
26955SOL     OW82761   1.666  12.686  14.869
26955SOL    HW182762   1.631  12.775  14.863
26955SOL    HW282763   1.671  12.668   0.083
26956SOL     OW82764   3.461   5.556  10.505
26956SOL    HW182765   3.409   5.538  10.583
26956SOL    HW282766   3.535   5.495  10.510
26957SOL     OW82767  14.120  11.166   5.606
26957SOL    HW182768  14.088  11.113   5.680
26957SOL    HW282769  14.050  11.229   5.589
26958SOL     OW82770   3.841  14.877   2.100
26958SOL    HW182771   3.917  14.837   2.142
26958SOL    HW282772   3.771  14.813   2.110
26959SOL     OW82773  10.252  13.870   9.658
26959SOL    HW182774  10.228  13.802   9.595
26959SOL    HW282775  10.206  13.949   9.628
26960SOL     OW82776   8.092   3.872   7.936
26960SOL    HW182777   8.032   3.892   8.008
26960SOL    HW282778   8.095   3.952   7.884
26961SOL     OW82779  12.035  14.140  14.820
26961SOL    HW182780  12.126  14.118  14.799
26961SOL    HW282781  12.016  14.218  14.768
26962SOL     OW82782   9.589  12.264   1.362
26962SOL    HW182783   9.505  12.268   1.316
26962SOL    HW282784   9.638  12.339   1.329
26963SOL     OW82785  11.845   7.159  13.695
26963SOL    HW182786  11.892   7.131  13.774
26963SOL    HW282787  11.755   7.129  13.709
26964SOL     OW82788   1.382   6.589   6.703
26964SOL    HW182789   1.313   6.642   6.743
26964SOL    HW282790   1.462   6.617   6.747
26965SOL     OW82791   2.491   0.507  12.820
26965SOL    HW182792   2.572   0.460  12.840
26965SOL    HW282793   2.422   0.447  12.847
26966SOL     OW82794   8.795   9.302   1.516
26966SOL    HW182795   8.889   9.305   1.496
26966SOL    HW282796   8.788   9.241   1.590
26967SOL     OW82797   9.102   5.196   6.166
26967SOL    HW182798   9.153   5.278   6.161
26967SOL    HW282799   9.168   5.128   6.178
26968SOL     OW82800  13.335   3.820   3.949
26968SOL    HW182801  13.352   3.735   3.990
26968SOL    HW282802  13.240   3.820   3.933
26969SOL     OW82803   2.231   8.855  10.734
26969SOL    HW182804   2.152   8.892  10.773
26969SOL    HW282805   2.287   8.930  10.717
26970SOL     OW82806  13.489   0.104   1.779
26970SOL    HW182807  13.453   0.071   1.697
26970SOL    HW282808  13.426   0.170   1.808
26971SOL     OW82809   0.627  13.245   6.940
26971SOL    HW182810   0.600  13.337   6.944
26971SOL    HW282811   0.719  13.249   6.913
26972SOL     OW82812  14.695   2.913  12.764
26972SOL    HW182813  14.667   2.987  12.818
26972SOL    HW282814  14.622   2.851  12.768
26973SOL     OW82815   0.191   7.856   5.227
26973SOL    HW182816   0.207   7.897   5.312
26973SOL    HW282817   0.129   7.785   5.246
26974SOL     OW82818  10.125   8.496  12.487
26974SOL    HW182819  10.202   8.440  12.492
26974SOL    HW282820  10.078   8.467  12.409
26975SOL     OW82821   7.787   2.434   9.616
26975SOL    HW182822   7.749   2.452   9.530
26975SOL    HW282823   7.861   2.376   9.597
26976SOL     OW82824   7.276   9.015   2.128
26976SOL    HW182825   7.268   9.006   2.033
26976SOL    HW282826   7.337   8.947   2.154
26977SOL     OW82827   3.169   1.351   4.065
26977SOL    HW182828   3.195   1.292   4.135
26977SOL    HW282829   3.103   1.302   4.015
26978SOL     OW82830  10.171   4.992  10.134
26978SOL    HW182831  10.112   4.954  10.068
26978SOL    HW282832  10.150   4.944  10.214
26979SOL     OW82833   6.089   9.954   2.673
26979SOL    HW182834   6.080   9.874   2.725
26979SOL    HW282835   5.999   9.983   2.659
26980SOL     OW82836  14.139  13.962   7.935
26980SOL    HW182837  14.190  13.989   7.859
26980SOL    HW282838  14.189  13.891   7.974
26981SOL     OW82839   5.092   2.604   3.913
26981SOL    HW182840   5.072   2.618   3.820
26981SOL    HW282841   5.055   2.517   3.932
26982SOL     OW82842   7.199   8.417   9.144
26982SOL    HW182843   7.261   8.373   9.202
26982SOL    HW282844   7.189   8.356   9.070
26983SOL     OW82845  10.538   1.398  10.437
26983SOL    HW182846  10.549   1.309  10.404
26983SOL    HW282847  10.600   1.404  10.510
26984SOL     OW82848   2.387   4.574   6.881
26984SOL    HW182849   2.403   4.484   6.911
26984SOL    HW282850   2.455   4.626   6.924
26985SOL     OW82851   8.789   4.064   0.512
26985SOL    HW182852   8.844   4.142   0.518
26985SOL    HW282853   8.701   4.098   0.496
26986SOL     OW82854   9.306  11.692   3.189
26986SOL    HW182855   9.294  11.651   3.103
26986SOL    HW282856   9.340  11.779   3.169
26987SOL     OW82857  12.747  10.353   1.976
26987SOL    HW182858  12.786  10.388   2.056
26987SOL    HW282859  12.666  10.311   2.006
26988SOL     OW82860   0.373   1.246   6.672
26988SOL    HW182861   0.345   1.251   6.764
26988SOL    HW282862   0.299   1.205   6.627
26989SOL     OW82863   3.345   1.529   8.023
26989SOL    HW182864   3.438   1.525   8.003
26989SOL    HW282865   3.322   1.621   8.017
26990SOL     OW82866   4.848   6.886   2.471
26990SOL    HW182867   4.933   6.930   2.478
26990SOL    HW282868   4.787   6.947   2.513
26991SOL     OW82869   6.307   7.517  11.412
26991SOL    HW182870   6.323   7.468  11.331
26991SOL    HW282871   6.381   7.495  11.468
26992SOL     OW82872   1.149   1.799   8.768
26992SOL    HW182873   1.232   1.832   8.803
26992SOL    HW282874   1.161   1.800   8.673
26993SOL     OW82875   1.555   4.817  10.797
26993SOL    HW182876   1.637   4.785  10.759
26993SOL    HW282877   1.494   4.819  10.724
26994SOL     OW82878   4.832  13.917   0.008
26994SOL    HW182879   4.808  13.903   0.099
26994SOL    HW282880   4.767  13.978  14.854
26995SOL     OW82881   0.934   0.605   0.818
26995SOL    HW182882   0.947   0.697   0.843
26995SOL    HW282883   0.970   0.598   0.730
26996SOL     OW82884   0.219   8.441  10.019
26996SOL    HW182885   0.258   8.421  10.104
26996SOL    HW282886   0.260   8.379   9.958
26997SOL     OW82887   3.419   2.396   4.319
26997SOL    HW182888   3.445   2.348   4.398
26997SOL    HW282889   3.354   2.341   4.276
26998SOL     OW82890  14.025   9.508  11.983
26998SOL    HW182891  13.985   9.421  11.993
26998SOL    HW282892  14.098   9.508  12.046
26999SOL     OW82893   1.322  11.218   7.209
26999SOL    HW182894   1.386  11.152   7.234
26999SOL    HW282895   1.343  11.238   7.118
27000SOL     OW82896   8.742   7.871   4.955
27000SOL    HW182897   8.699   7.806   5.011
27000SOL    HW282898   8.819   7.825   4.921
27001SOL     OW82899   1.682   4.145  14.696
27001SOL    HW182900   1.711   4.235  14.711
27001SOL    HW282901   1.647   4.116  14.780
27002SOL     OW82902   1.582   5.306   5.676
27002SOL    HW182903   1.498   5.268   5.654
27002SOL    HW282904   1.644   5.265   5.615
27003SOL     OW82905  11.497  11.550   7.926
27003SOL    HW182906  11.496  11.466   7.971
27003SOL    HW282907  11.407  11.564   7.898
27004SOL     OW82908   9.222   3.644   0.868
27004SOL    HW182909   9.247   3.555   0.841
27004SOL    HW282910   9.266   3.657   0.952
27005SOL     OW82911   2.051   3.245  10.125
27005SOL    HW182912   2.002   3.326  10.113
27005SOL    HW282913   2.104   3.237  10.046
27006SOL     OW82914  12.395   7.303   2.387
27006SOL    HW182915  12.307   7.313   2.350
27006SOL    HW282916  12.425   7.218   2.356
27007SOL     OW82917  13.702   5.773   5.905
27007SOL    HW182918  13.630   5.712   5.889
27007SOL    HW282919  13.728   5.803   5.818
27008SOL     OW82920   9.356  13.788   2.409
27008SOL    HW182921   9.313  13.703   2.420
27008SOL    HW282922   9.381  13.814   2.497
27009SOL     OW82923   8.757   5.033   0.358
27009SOL    HW182924   8.838   5.038   0.307
27009SOL    HW282925   8.786   5.026   0.449
27010SOL     OW82926   3.270  14.657  12.118
27010SOL    HW182927   3.335  14.626  12.056
27010SOL    HW282928   3.245  14.579  12.168
27011SOL     OW82929   5.633   9.708   4.484
27011SOL    HW182930   5.701   9.773   4.467
27011SOL    HW282931   5.644   9.686   4.577
27012SOL     OW82932   7.868   8.497   3.535
27012SOL    HW182933   7.888   8.525   3.624
27012SOL    HW282934   7.789   8.444   3.543
27013SOL     OW82935   3.748   1.599   5.632
27013SOL    HW182936   3.654   1.621   5.630
27013SOL    HW282937   3.781   1.627   5.547
27014SOL     OW82938   6.623  10.108   0.137
27014SOL    HW182939   6.605  10.026   0.184
27014SOL    HW282940   6.664  10.164   0.203
27015SOL     OW82941  11.995   6.291   2.645
27015SOL    HW182942  12.030   6.235   2.575
27015SOL    HW282943  11.901   6.290   2.632
27016SOL     OW82944   6.652   4.357   7.559
27016SOL    HW182945   6.684   4.441   7.525
27016SOL    HW282946   6.721   4.328   7.620
27017SOL     OW82947  10.934   8.176   8.356
27017SOL    HW182948  10.978   8.198   8.274
27017SOL    HW282949  10.932   8.080   8.357
27018SOL     OW82950   2.173   5.733  13.343
27018SOL    HW182951   2.090   5.712  13.300
27018SOL    HW282952   2.148   5.772  13.427
27019SOL     OW82953   3.881   1.062   1.100
27019SOL    HW182954   3.824   1.116   1.154
27019SOL    HW282955   3.878   0.975   1.141
27020SOL     OW82956  10.931   9.707   5.024
27020SOL    HW182957  10.936   9.768   5.098
27020SOL    HW282958  10.955   9.622   5.062
27021SOL     OW82959  10.504   9.710  10.235
27021SOL    HW182960  10.457   9.662  10.167
27021SOL    HW282961  10.455   9.792  10.245
27022SOL     OW82962  14.557   1.692   5.439
27022SOL    HW182963  14.562   1.694   5.343
27022SOL    HW282964  14.476   1.644   5.458
27023SOL     OW82965   9.346   0.962   9.545
27023SOL    HW182966   9.355   1.022   9.471
27023SOL    HW282967   9.357   0.875   9.507
27024SOL     OW82968   5.793   0.059   9.110
27024SOL    HW182969   5.768   0.103   9.192
27024SOL    HW282970   5.744   0.106   9.042
27025SOL     OW82971   7.760  11.207   5.303
27025SOL    HW182972   7.731  11.278   5.360
27025SOL    HW282973   7.812  11.150   5.361
27026SOL     OW82974   6.856  10.480  13.727
27026SOL    HW182975   6.860  10.513  13.637
27026SOL    HW282976   6.804  10.400  13.721
27027SOL     OW82977   9.256   4.594   4.805
27027SOL    HW182978   9.260   4.659   4.875
27027SOL    HW282979   9.336   4.542   4.816
27028SOL     OW82980   7.470   3.021  11.157
27028SOL    HW182981   7.375   3.012  11.161
27028SOL    HW282982   7.489   3.100  11.209
27029SOL     OW82983  11.561  11.845   7.273
27029SOL    HW182984  11.606  11.762   7.257
27029SOL    HW282985  11.612  11.910   7.223
27030SOL     OW82986   3.097   2.960   2.069
27030SOL    HW182987   3.002   2.953   2.068
27030SOL    HW282988   3.125   2.896   2.135
27031SOL     OW82989   4.632  10.689   8.970
27031SOL    HW182990   4.563  10.665   9.032
27031SOL    HW282991   4.620  10.629   8.896
27032SOL     OW82992  11.338   7.328  11.102
27032SOL    HW182993  11.348   7.389  11.029
27032SOL    HW282994  11.392   7.253  11.077
27033SOL     OW82995  11.802  10.770  12.621
27033SOL    HW182996  11.741  10.786  12.693
27033SOL    HW282997  11.881  10.738  12.665
27034SOL     OW82998  11.678   4.241  10.433
27034SOL    HW182999  11.763   4.284  10.427
27034SOL    HW283000  11.632   4.269  10.354
27035SOL     OW83001  11.550   2.944   3.294
27035SOL    HW183002  11.566   3.025   3.245
27035SOL    HW283003  11.637   2.918   3.326
27036SOL     OW83004   0.242  13.026  14.717
27036SOL    HW183005   0.325  12.996  14.682
27036SOL    HW283006   0.253  13.120  14.731
27037SOL     OW83007  14.122   4.504   9.926
27037SOL    HW183008  14.139   4.481   9.835
27037SOL    HW283009  14.178   4.445   9.977
27038SOL     OW83010   6.861  13.174   1.057
27038SOL    HW183011   6.782  13.201   1.011
27038SOL    HW283012   6.834  13.165   1.149
27039SOL     OW83013   5.703  10.607   1.218
27039SOL    HW183014   5.651  10.650   1.287
27039SOL    HW283015   5.639  10.553   1.171
27040SOL     OW83016   6.987   1.026   4.593
27040SOL    HW183017   7.016   1.096   4.534
27040SOL    HW283018   6.918   1.066   4.645
27041SOL     OW83019   9.326  10.632   3.061
27041SOL    HW183020   9.272  10.575   3.116
27041SOL    HW283021   9.398  10.658   3.118
27042SOL     OW83022  11.957   4.046   5.790
27042SOL    HW183023  12.006   4.095   5.725
27042SOL    HW283024  11.927   4.112   5.853
27043SOL     OW83025  11.207   1.087  11.325
27043SOL    HW183026  11.178   1.163  11.375
27043SOL    HW283027  11.281   1.053  11.374
27044SOL     OW83028  12.073   8.527   2.274
27044SOL    HW183029  11.989   8.483   2.284
27044SOL    HW283030  12.068   8.601   2.335
27045SOL     OW83031  14.211   5.774   2.872
27045SOL    HW183032  14.244   5.855   2.833
27045SOL    HW283033  14.116   5.780   2.863
27046SOL     OW83034  12.547   2.354   2.494
27046SOL    HW183035  12.471   2.325   2.443
27046SOL    HW283036  12.573   2.278   2.545
27047SOL     OW83037   6.838   4.982  13.108
27047SOL    HW183038   6.916   4.929  13.124
27047SOL    HW283039   6.819   5.023  13.192
27048SOL     OW83040  11.878   7.434  11.878
27048SOL    HW183041  11.849   7.492  11.807
27048SOL    HW283042  11.808   7.441  11.944
27049SOL     OW83043  13.781  10.164   2.104
27049SOL    HW183044  13.716  10.211   2.053
27049SOL    HW283045  13.733  10.093   2.146
27050SOL     OW83046  11.511   2.298   3.018
27050SOL    HW183047  11.421   2.284   3.047
27050SOL    HW283048  11.507   2.294   2.922
27051SOL     OW83049   9.813   1.315   4.858
27051SOL    HW183050   9.860   1.314   4.774
27051SOL    HW283051   9.850   1.390   4.905
27052SOL     OW83052   0.739   4.662   6.344
27052SOL    HW183053   0.741   4.755   6.320
27052SOL    HW283054   0.674   4.624   6.286
27053SOL     OW83055   6.802  14.846  12.281
27053SOL    HW183056   6.875  14.872  12.338
27053SOL    HW283057   6.844  14.809  12.204
27054SOL     OW83058   4.273   0.700  14.798
27054SOL    HW183059   4.236   0.623  14.755
27054SOL    HW283060   4.267   0.681   0.012
27055SOL     OW83061  13.427  11.307  13.981
27055SOL    HW183062  13.353  11.257  14.015
27055SOL    HW283063  13.500  11.284  14.039
27056SOL     OW83064  10.175   3.596   9.527
27056SOL    HW183065  10.266   3.615   9.551
27056SOL    HW283066  10.178   3.507   9.493
27057SOL     OW83067   7.964  10.811   1.530
27057SOL    HW183068   8.046  10.761   1.523
27057SOL    HW283069   7.895  10.744   1.529
27058SOL     OW83070   1.996  13.588   6.953
27058SOL    HW183071   2.030  13.662   6.902
27058SOL    HW283072   2.074  13.546   6.989
27059SOL     OW83073   6.334   7.467   5.272
27059SOL    HW183074   6.265   7.523   5.307
27059SOL    HW283075   6.398   7.461   5.343
27060SOL     OW83076   7.421  12.987  11.101
27060SOL    HW183077   7.374  13.063  11.066
27060SOL    HW283078   7.403  12.917  11.039
27061SOL     OW83079   1.059  11.459  10.742
27061SOL    HW183080   1.097  11.512  10.812
27061SOL    HW283081   0.965  11.475  10.749
27062SOL     OW83082  10.472   2.960   6.674
27062SOL    HW183083  10.410   2.978   6.745
27062SOL    HW283084  10.419   2.918   6.606
27063SOL     OW83085   3.972  11.542   5.650
27063SOL    HW183086   3.936  11.468   5.698
27063SOL    HW283087   4.008  11.600   5.717
27064SOL     OW83088  14.095  13.116   6.134
27064SOL    HW183089  14.181  13.074   6.130
27064SOL    HW283090  14.107  13.190   6.193
27065SOL     OW83091  13.195   0.947   8.743
27065SOL    HW183092  13.287   0.948   8.769
27065SOL    HW283093  13.178   1.035   8.711
27066SOL     OW83094   9.857   5.647  14.563
27066SOL    HW183095   9.770   5.685  14.574
27066SOL    HW283096   9.864   5.632  14.468
27067SOL     OW83097   9.303   1.454  14.419
27067SOL    HW183098   9.257   1.414  14.492
27067SOL    HW283099   9.263   1.417  14.341
27068SOL     OW83100  13.911   3.369  13.925
27068SOL    HW183101  13.995   3.410  13.945
27068SOL    HW283102  13.934   3.297  13.866
27069SOL     OW83103  10.036   9.757  10.933
27069SOL    HW183104  10.011   9.667  10.910
27069SOL    HW283105  10.116   9.772  10.883
27070SOL     OW83106  14.805   0.447   4.638
27070SOL    HW183107  14.858   0.386   4.587
27070SOL    HW283108  14.856   0.528   4.641
27071SOL     OW83109   7.565  10.584   6.956
27071SOL    HW183110   7.477  10.622   6.952
27071SOL    HW283111   7.567  10.521   6.885
27072SOL     OW83112   2.682   5.467   7.446
27072SOL    HW183113   2.676   5.379   7.409
27072SOL    HW283114   2.620   5.519   7.395
27073SOL     OW83115  14.085   2.188   8.459
27073SOL    HW183116  14.132   2.248   8.517
27073SOL    HW283117  14.010   2.158   8.511
27074SOL     OW83118   8.861   0.583   2.124
27074SOL    HW183119   8.769   0.577   2.097
27074SOL    HW283120   8.908   0.607   2.044
27075SOL     OW83121  10.148   1.049   5.873
27075SOL    HW183122  10.172   0.988   5.943
27075SOL    HW283123  10.140   1.134   5.916
27076SOL     OW83124   8.415   3.167  11.678
27076SOL    HW183125   8.467   3.145  11.756
27076SOL    HW283126   8.434   3.096  11.617
27077SOL     OW83127   8.589  11.700   3.010
27077SOL    HW183128   8.680  11.712   2.983
27077SOL    HW283129   8.578  11.605   3.014
27078SOL     OW83130   3.881   1.976  12.755
27078SOL    HW183131   3.896   1.979  12.850
27078SOL    HW283132   3.969   1.983  12.717
27079SOL     OW83133   4.491   2.394  14.473
27079SOL    HW183134   4.417   2.438  14.514
27079SOL    HW283135   4.451   2.332  14.412
27080SOL     OW83136   3.764   9.285  11.126
27080SOL    HW183137   3.727   9.217  11.182
27080SOL    HW283138   3.688   9.328  11.087
27081SOL     OW83139  13.922   5.337   8.770
27081SOL    HW183140  13.960   5.413   8.726
27081SOL    HW283141  13.996   5.278   8.786
27082SOL     OW83142   8.655   9.177   1.080
27082SOL    HW183143   8.694   9.091   1.092
27082SOL    HW283144   8.712   9.236   1.129
27083SOL     OW83145   6.868   9.443   0.129
27083SOL    HW183146   6.927   9.464   0.202
27083SOL    HW283147   6.803   9.514   0.130
27084SOL     OW83148  11.965   2.492   8.942
27084SOL    HW183149  11.901   2.553   8.980
27084SOL    HW283150  11.912   2.434   8.887
27085SOL     OW83151   2.384  11.258  14.224
27085SOL    HW183152   2.292  11.259  14.250
27085SOL    HW283153   2.400  11.346  14.188
27086SOL     OW83154   5.743   5.063   8.766
27086SOL    HW183155   5.784   5.144   8.797
27086SOL    HW283156   5.797   5.036   8.692
27087SOL     OW83157   2.164   4.284  12.437
27087SOL    HW183158   2.123   4.309  12.520
27087SOL    HW283159   2.109   4.213  12.403
27088SOL     OW83160   5.106   5.509   6.432
27088SOL    HW183161   5.057   5.427   6.439
27088SOL    HW283162   5.194   5.482   6.403
27089SOL     OW83163   2.773   3.641   6.292
27089SOL    HW183164   2.733   3.587   6.360
27089SOL    HW283165   2.708   3.642   6.221
27090SOL     OW83166  12.635   1.435   2.235
27090SOL    HW183167  12.713   1.435   2.291
27090SOL    HW283168  12.578   1.501   2.275
27091SOL     OW83169   5.728   5.858  12.572
27091SOL    HW183170   5.682   5.898  12.498
27091SOL    HW283171   5.664   5.859  12.644
27092SOL     OW83172   8.527  14.060   4.388
27092SOL    HW183173   8.530  14.007   4.468
27092SOL    HW283174   8.520  14.150   4.419
27093SOL     OW83175   7.878   2.109  13.432
27093SOL    HW183176   7.820   2.183  13.413
27093SOL    HW283177   7.960   2.131  13.389
27094SOL     OW83178   0.334   3.187   1.190
27094SOL    HW183179   0.261   3.218   1.245
27094SOL    HW283180   0.305   3.203   1.101
27095SOL     OW83181   1.915   6.142   0.964
27095SOL    HW183182   1.929   6.092   0.884
27095SOL    HW283183   1.994   6.196   0.972
27096SOL     OW83184   9.191   1.052   2.048
27096SOL    HW183185   9.217   1.144   2.050
27096SOL    HW283186   9.159   1.038   1.959
27097SOL     OW83187   4.847   5.003   3.468
27097SOL    HW183188   4.934   5.043   3.462
27097SOL    HW283189   4.825   4.980   3.377
27098SOL     OW83190   3.358   1.360   0.672
27098SOL    HW183191   3.285   1.326   0.723
27098SOL    HW283192   3.357   1.455   0.688
27099SOL     OW83193   0.119  11.928  14.748
27099SOL    HW183194   0.182  11.856  14.748
27099SOL    HW283195   0.101  11.945  14.656
27100SOL     OW83196   3.871   1.415  14.262
27100SOL    HW183197   3.918   1.338  14.293
27100SOL    HW283198   3.911   1.435  14.177
27101SOL     OW83199   1.156  12.179   5.521
27101SOL    HW183200   1.158  12.273   5.501
27101SOL    HW283201   1.126  12.139   5.439
27102SOL     OW83202  14.262   5.105   3.485
27102SOL    HW183203  14.324   5.079   3.553
27102SOL    HW283204  14.177   5.110   3.530
27103SOL     OW83205   4.085  12.386   7.264
27103SOL    HW183206   4.178  12.376   7.246
27103SOL    HW283207   4.041  12.334   7.196
27104SOL     OW83208   6.846   3.642  14.706
27104SOL    HW183209   6.914   3.574  14.703
27104SOL    HW283210   6.813   3.639  14.796
27105SOL     OW83211   9.403  14.079  13.439
27105SOL    HW183212   9.427  14.045  13.525
27105SOL    HW283213   9.308  14.089  13.443
27106SOL     OW83214   8.822   6.481   2.925
27106SOL    HW183215   8.866   6.444   2.849
27106SOL    HW283216   8.753   6.418   2.947
27107SOL     OW83217   8.150   3.433   0.973
27107SOL    HW183218   8.165   3.522   1.004
27107SOL    HW283219   8.179   3.377   1.045
27108SOL     OW83220   1.963   6.037   3.956
27108SOL    HW183221   2.032   5.971   3.960
27108SOL    HW283222   2.008   6.119   3.977
27109SOL     OW83223  10.427   2.354  12.273
27109SOL    HW183224  10.429   2.439  12.316
27109SOL    HW283225  10.354   2.308  12.313
27110SOL     OW83226  14.089   7.718  10.183
27110SOL    HW183227  14.116   7.803  10.149
27110SOL    HW283228  14.138   7.708  10.265
27111SOL     OW83229  13.612   1.222   0.231
27111SOL    HW183230  13.679   1.212   0.164
27111SOL    HW283231  13.656   1.198   0.313
27112SOL     OW83232   5.173  14.309  11.079
27112SOL    HW183233   5.231  14.368  11.125
27112SOL    HW283234   5.086  14.329  11.113
27113SOL     OW83235   6.248  14.639   9.523
27113SOL    HW183236   6.239  14.645   9.428
27113SOL    HW283237   6.159  14.620   9.554
27114SOL     OW83238   6.824   2.454   3.024
27114SOL    HW183239   6.902   2.443   2.969
27114SOL    HW283240   6.798   2.545   3.012
27115SOL     OW83241   7.793  11.398   4.892
27115SOL    HW183242   7.828  11.431   4.810
27115SOL    HW283243   7.725  11.460   4.917
27116SOL     OW83244   7.852   4.285   6.057
27116SOL    HW183245   7.936   4.328   6.043
27116SOL    HW283246   7.861   4.240   6.141
27117SOL     OW83247  10.977  14.524   5.794
27117SOL    HW183248  10.953  14.525   5.701
27117SOL    HW283249  10.997  14.432   5.812
27118SOL     OW83250   3.757   6.580   5.796
27118SOL    HW183251   3.850   6.600   5.800
27118SOL    HW283252   3.725   6.596   5.885
27119SOL     OW83253  11.373   7.094   7.670
27119SOL    HW183254  11.375   7.162   7.738
27119SOL    HW283255  11.451   7.111   7.617
27120SOL     OW83256  14.073  14.380   5.554
27120SOL    HW183257  14.055  14.403   5.646
27120SOL    HW283258  13.988  14.388   5.511
27121SOL     OW83259  12.995   8.148   9.519
27121SOL    HW183260  12.979   8.181   9.607
27121SOL    HW283261  13.090   8.135   9.515
27122SOL     OW83262  11.647   0.133  14.485
27122SOL    HW183263  11.657   0.084  14.567
27122SOL    HW283264  11.716   0.200  14.488
27123SOL     OW83265  13.440   2.165  14.668
27123SOL    HW183266  13.363   2.160  14.611
27123SOL    HW283267  13.514   2.154  14.608
27124SOL     OW83268   9.573  11.922  10.057
27124SOL    HW183269   9.606  11.956   9.974
27124SOL    HW283270   9.507  11.857  10.032
27125SOL     OW83271  12.403  12.161  10.039
27125SOL    HW183272  12.329  12.220  10.026
27125SOL    HW283273  12.370  12.093  10.097
27126SOL     OW83274   6.625  13.223   7.148
27126SOL    HW183275   6.577  13.273   7.213
27126SOL    HW283276   6.717  13.240   7.168
27127SOL     OW83277  14.385  11.820   4.740
27127SOL    HW183278  14.303  11.847   4.697
27127SOL    HW283279  14.440  11.788   4.669
27128SOL     OW83280  10.478  10.222   6.198
27128SOL    HW183281  10.520  10.136   6.205
27128SOL    HW283282  10.434  10.220   6.113
27129SOL     OW83283   3.355   8.296   5.919
27129SOL    HW183284   3.389   8.206   5.925
27129SOL    HW283285   3.260   8.285   5.912
27130SOL     OW83286   4.832  11.438  13.123
27130SOL    HW183287   4.791  11.524  13.133
27130SOL    HW283288   4.758  11.377  13.120
27131SOL     OW83289   9.196  13.834   3.302
27131SOL    HW183290   9.254  13.903   3.271
27131SOL    HW283291   9.170  13.787   3.223
27132SOL     OW83292   8.923   6.958   2.821
27132SOL    HW183293   8.877   6.900   2.882
27132SOL    HW283294   8.968   6.898   2.761
27133SOL     OW83295   6.032   7.179   1.467
27133SOL    HW183296   6.088   7.122   1.414
27133SOL    HW283297   5.945   7.139   1.462
27134SOL     OW83298   5.313   8.224   1.761
27134SOL    HW183299   5.343   8.135   1.745
27134SOL    HW283300   5.366   8.254   1.836
27135SOL     OW83301   9.980   0.252  10.028
27135SOL    HW183302   9.986   0.348  10.031
27135SOL    HW283303   9.953   0.227  10.116
27136SOL     OW83304   9.895   6.762   1.060
27136SOL    HW183305   9.802   6.783   1.071
27136SOL    HW283306   9.915   6.705   1.134
27137SOL     OW83307  12.640   3.158   4.786
27137SOL    HW183308  12.629   3.077   4.837
27137SOL    HW283309  12.551   3.178   4.755
27138SOL     OW83310   5.604  12.430  11.566
27138SOL    HW183311   5.642  12.508  11.525
27138SOL    HW283312   5.523  12.462  11.606
27139SOL     OW83313   0.635   9.827  11.362
27139SOL    HW183314   0.643   9.812  11.267
27139SOL    HW283315   0.718   9.796  11.398
27140SOL     OW83316   1.745  11.949   1.712
27140SOL    HW183317   1.825  11.943   1.764
27140SOL    HW283318   1.700  11.866   1.729
27141SOL     OW83319  12.777  13.521  10.407
27141SOL    HW183320  12.688  13.513  10.442
27141SOL    HW283321  12.777  13.466  10.329
27142SOL     OW83322   7.529   6.229   7.890
27142SOL    HW183323   7.563   6.281   7.817
27142SOL    HW283324   7.566   6.271   7.968
27143SOL     OW83325   3.887   7.285   8.801
27143SOL    HW183326   3.939   7.207   8.821
27143SOL    HW283327   3.796   7.257   8.815
27144SOL     OW83328   2.564   6.646   4.143
27144SOL    HW183329   2.476   6.612   4.132
27144SOL    HW283330   2.555   6.719   4.204
27145SOL     OW83331  10.207   3.426  10.974
27145SOL    HW183332  10.231   3.366  11.045
27145SOL    HW283333  10.140   3.482  11.012
27146SOL     OW83334  11.717   3.323   1.479
27146SOL    HW183335  11.719   3.418   1.490
27146SOL    HW283336  11.628   3.298   1.503
27147SOL     OW83337   5.019   3.879  14.052
27147SOL    HW183338   5.038   3.792  14.017
27147SOL    HW283339   5.023   3.937  13.975
27148SOL     OW83340  12.856  14.841  13.340
27148SOL    HW183341  12.904   0.040  13.312
27148SOL    HW283342  12.903  14.769  13.298
27149SOL     OW83343  10.302   0.044   5.957
27149SOL    HW183344  10.283   0.078   5.870
27149SOL    HW283345  10.293  14.829   5.948
27150SOL     OW83346   1.292   3.572  14.797
27150SOL    HW183347   1.284   3.593  14.704
27150SOL    HW283348   1.206   3.540  14.823
27151SOL     OW83349  10.346   9.612  10.057
27151SOL    HW183350  10.366   9.519  10.055
27151SOL    HW283351  10.251   9.616  10.071
27152SOL     OW83352   0.589   0.681   6.541
27152SOL    HW183353   0.629   0.614   6.485
27152SOL    HW283354   0.654   0.697   6.609
27153SOL     OW83355  12.487   2.632   4.820
27153SOL    HW183356  12.460   2.646   4.729
27153SOL    HW283357  12.552   2.701   4.836
27154SOL     OW83358  12.846  11.366   2.181
27154SOL    HW183359  12.780  11.319   2.131
27154SOL    HW283360  12.797  11.423   2.240
27155SOL     OW83361   1.361   8.247  13.836
27155SOL    HW183362   1.439   8.273  13.885
27155SOL    HW283363   1.395   8.196  13.763
27156SOL     OW83364  12.913   3.728   4.473
27156SOL    HW183365  13.000   3.701   4.443
27156SOL    HW283366  12.853   3.674   4.423
27157SOL     OW83367   6.310  10.725   6.524
27157SOL    HW183368   6.387  10.695   6.474
27157SOL    HW283369   6.342  10.735   6.614
27158SOL     OW83370   0.341   8.931  13.411
27158SOL    HW183371   0.287   8.930  13.490
27158SOL    HW283372   0.279   8.928  13.339
27159SOL     OW83373  11.574   0.259   7.184
27159SOL    HW183374  11.633   0.249   7.259
27159SOL    HW283375  11.602   0.340   7.142
27160SOL     OW83376  14.193   6.555  11.991
27160SOL    HW183377  14.170   6.585  11.903
27160SOL    HW283378  14.214   6.462  11.980
27161SOL     OW83379   7.735   4.536  13.636
27161SOL    HW183380   7.815   4.493  13.605
27161SOL    HW283381   7.726   4.507  13.727
27162SOL     OW83382  12.629   8.625   2.809
27162SOL    HW183383  12.716   8.620   2.769
27162SOL    HW283384  12.573   8.660   2.739
27163SOL     OW83385   2.859   5.196   0.450
27163SOL    HW183386   2.911   5.239   0.518
27163SOL    HW283387   2.892   5.106   0.448
27164SOL     OW83388   3.450  13.003   5.704
27164SOL    HW183389   3.409  12.933   5.755
27164SOL    HW283390   3.462  13.074   5.767
27165SOL     OW83391   9.242   3.846  13.494
27165SOL    HW183392   9.155   3.855  13.533
27165SOL    HW283393   9.232   3.776  13.429
27166SOL     OW83394   6.879   4.578   7.991
27166SOL    HW183395   6.791   4.598   7.961
27166SOL    HW283396   6.910   4.660   8.030
27167SOL     OW83397   9.566   1.053   3.919
27167SOL    HW183398   9.586   1.080   3.830
27167SOL    HW283399   9.584   1.130   3.973
27168SOL     OW83400   8.566   9.312   1.386
27168SOL    HW183401   8.529   9.223   1.384
27168SOL    HW283402   8.646   9.303   1.437
27169SOL     OW83403   6.116  10.447   1.211
27169SOL    HW183404   6.180  10.404   1.155
27169SOL    HW283405   6.033  10.403   1.191
27170SOL     OW83406   7.541   8.882  12.694
27170SOL    HW183407   7.526   8.788  12.680
27170SOL    HW283408   7.594   8.909  12.619
27171SOL     OW83409   5.601   7.654   8.481
27171SOL    HW183410   5.512   7.638   8.450
27171SOL    HW283411   5.615   7.588   8.549
27172SOL     OW83412   7.897   2.363   3.456
27172SOL    HW183413   7.955   2.375   3.531
27172SOL    HW283414   7.816   2.329   3.493
27173SOL     OW83415   7.824  13.455  12.674
27173SOL    HW183416   7.841  13.490  12.761
27173SOL    HW283417   7.741  13.494  12.648
27174SOL     OW83418   8.199   3.328   3.688
27174SOL    HW183419   8.286   3.316   3.725
27174SOL    HW283420   8.145   3.355   3.762
27175SOL     OW83421   8.091   1.301   0.617
27175SOL    HW183422   8.101   1.323   0.524
27175SOL    HW283423   8.121   1.379   0.663
27176SOL     OW83424  13.725  11.077   9.543
27176SOL    HW183425  13.716  11.172   9.547
27176SOL    HW283426  13.814  11.059   9.575
27177SOL     OW83427  13.669  10.778   9.962
27177SOL    HW183428  13.648  10.822  10.044
27177SOL    HW283429  13.619  10.696   9.965
27178SOL     OW83430   3.490  10.885   4.100
27178SOL    HW183431   3.562  10.826   4.078
27178SOL    HW283432   3.493  10.893   4.196
27179SOL     OW83433   2.657   8.712   5.356
27179SOL    HW183434   2.726   8.764   5.397
27179SOL    HW283435   2.669   8.624   5.392
27180SOL     OW83436   2.603  13.644  13.462
27180SOL    HW183437   2.561  13.571  13.505
27180SOL    HW283438   2.544  13.718  13.476
27181SOL     OW83439   9.395  11.058  12.909
27181SOL    HW183440   9.378  10.975  12.953
27181SOL    HW283441   9.367  11.043  12.819
27182SOL     OW83442   1.842   0.281   6.121
27182SOL    HW183443   1.811   0.203   6.168
27182SOL    HW283444   1.847   0.349   6.188
27183SOL     OW83445   8.466   7.890   3.654
27183SOL    HW183446   8.507   7.820   3.604
27183SOL    HW283447   8.379   7.900   3.615
27184SOL     OW83448   0.309   2.701   4.413
27184SOL    HW183449   0.254   2.628   4.383
27184SOL    HW283450   0.329   2.680   4.505
27185SOL     OW83451   1.390  14.115   8.270
27185SOL    HW183452   1.355  14.120   8.181
27185SOL    HW283453   1.472  14.165   8.266
27186SOL     OW83454   2.790   7.476  11.588
27186SOL    HW183455   2.785   7.533  11.665
27186SOL    HW283456   2.837   7.399  11.618
27187SOL     OW83457   5.145   8.300  10.556
27187SOL    HW183458   5.061   8.338  10.533
27187SOL    HW283459   5.204   8.326  10.485
27188SOL     OW83460   1.314  10.548  14.114
27188SOL    HW183461   1.220  10.564  14.113
27188SOL    HW283462   1.345  10.591  14.193
27189SOL     OW83463  10.061   4.351   7.292
27189SOL    HW183464  10.137   4.392   7.250
27189SOL    HW283465  10.092   4.324   7.378
27190SOL     OW83466  11.280   6.311   5.530
27190SOL    HW183467  11.319   6.258   5.600
27190SOL    HW283468  11.258   6.394   5.573
27191SOL     OW83469   4.379   3.184   1.043
27191SOL    HW183470   4.310   3.200   1.106
27191SOL    HW283471   4.405   3.272   1.013
27192SOL     OW83472  13.208   8.687   5.433
27192SOL    HW183473  13.137   8.701   5.371
27192SOL    HW283474  13.271   8.632   5.386
27193SOL     OW83475   6.372  10.352   7.934
27193SOL    HW183476   6.345  10.416   7.999
27193SOL    HW283477   6.393  10.273   7.984
27194SOL     OW83478   4.205  10.489   0.329
27194SOL    HW183479   4.252  10.414   0.367
27194SOL    HW283480   4.121  10.452   0.300
27195SOL     OW83481   2.188  12.496   3.227
27195SOL    HW183482   2.218  12.547   3.302
27195SOL    HW283483   2.093  12.491   3.238
27196SOL     OW83484   6.469   5.940  14.478
27196SOL    HW183485   6.432   6.022  14.444
27196SOL    HW283486   6.393   5.888  14.503
27197SOL     OW83487   8.148   2.853   9.060
27197SOL    HW183488   8.159   2.945   9.082
27197SOL    HW283489   8.196   2.805   9.127
27198SOL     OW83490   2.693   2.468  14.668
27198SOL    HW183491   2.667   2.514  14.748
27198SOL    HW283492   2.615   2.472  14.612
27199SOL     OW83493   1.067  13.175   0.499
27199SOL    HW183494   1.084  13.171   0.405
27199SOL    HW283495   1.001  13.108   0.514
27200SOL     OW83496   5.424   2.151   0.163
27200SOL    HW183497   5.340   2.127   0.126
27200SOL    HW283498   5.437   2.089   0.235
27201SOL     OW83499  14.739   8.502   9.509
27201SOL    HW183500  14.822   8.465   9.541
27201SOL    HW283501  14.706   8.437   9.447
27202SOL     OW83502  12.896   2.439   6.787
27202SOL    HW183503  12.940   2.394   6.860
27202SOL    HW283504  12.968   2.466   6.729
27203SOL     OW83505   2.992   2.296   6.113
27203SOL    HW183506   3.035   2.252   6.039
27203SOL    HW283507   3.046   2.274   6.189
27204SOL     OW83508   9.785   6.205   9.317
27204SOL    HW183509   9.793   6.237   9.407
27204SOL    HW283510   9.871   6.221   9.278
27205SOL     OW83511   4.509  10.786  10.208
27205SOL    HW183512   4.554  10.704  10.187
27205SOL    HW283513   4.472  10.816  10.125
27206SOL     OW83514   8.812  12.053  11.673
27206SOL    HW183515   8.832  12.128  11.729
27206SOL    HW283516   8.819  12.087  11.584
27207SOL     OW83517   4.240   1.260   0.924
27207SOL    HW183518   4.317   1.312   0.900
27207SOL    HW283519   4.273   1.196   0.987
27208SOL     OW83520   6.828  14.468   9.524
27208SOL    HW183521   6.781  14.425   9.595
27208SOL    HW283522   6.901  14.512   9.567
27209SOL     OW83523  13.752   2.097   1.462
27209SOL    HW183524  13.664   2.122   1.491
27209SOL    HW283525  13.739   2.015   1.415
27210SOL     OW83526   4.904   0.779   5.830
27210SOL    HW183527   4.934   0.736   5.750
27210SOL    HW283528   4.905   0.710   5.896
27211SOL     OW83529   1.630   3.384   9.016
27211SOL    HW183530   1.702   3.423   9.067
27211SOL    HW283531   1.673   3.339   8.944
27212SOL     OW83532  11.813   1.431  13.736
27212SOL    HW183533  11.860   1.513  13.723
27212SOL    HW283534  11.832   1.407  13.827
27213SOL     OW83535  13.334   4.542  13.398
27213SOL    HW183536  13.248   4.531  13.439
27213SOL    HW283537  13.379   4.460  13.416
27214SOL     OW83538   2.301   9.701   1.872
27214SOL    HW183539   2.251   9.683   1.792
27214SOL    HW283540   2.296   9.796   1.882
27215SOL     OW83541   0.926  14.610   1.315
27215SOL    HW183542   0.992  14.609   1.245
27215SOL    HW283543   0.947  14.534   1.369
27216SOL     OW83544  14.345  14.544  10.035
27216SOL    HW183545  14.307  14.632  10.036
27216SOL    HW283546  14.364  14.526  10.127
27217SOL     OW83547   4.099   0.983   8.596
27217SOL    HW183548   4.085   1.070   8.632
27217SOL    HW283549   4.188   0.985   8.560
27218SOL     OW83550   5.362   4.079   9.819
27218SOL    HW183551   5.435   4.129   9.856
27218SOL    HW283552   5.288   4.099   9.876
27219SOL     OW83553  14.141  11.961   4.409
27219SOL    HW183554  14.065  12.014   4.430
27219SOL    HW283555  14.165  11.919   4.491
27220SOL     OW83556  10.092   5.787   6.086
27220SOL    HW183557  10.101   5.804   5.993
27220SOL    HW283558  10.112   5.870   6.129
27221SOL     OW83559  12.746   2.699   0.929
27221SOL    HW183560  12.655   2.723   0.912
27221SOL    HW283561  12.790   2.782   0.950
27222SOL     OW83562  14.474  11.388   8.890
27222SOL    HW183563  14.413  11.400   8.963
27222SOL    HW283564  14.488  11.477   8.857
27223SOL     OW83565  14.211   8.455   6.782
27223SOL    HW183566  14.276   8.396   6.819
27223SOL    HW283567  14.257   8.538   6.769
27224SOL     OW83568   5.787   9.451   3.936
27224SOL    HW183569   5.765   9.482   4.024
27224SOL    HW283570   5.798   9.357   3.945
27225SOL     OW83571   9.634   6.752   1.130
27225SOL    HW183572   9.544   6.740   1.161
27225SOL    HW283573   9.660   6.665   1.097
27226SOL     OW83574   4.965   0.634  10.589
27226SOL    HW183575   4.971   0.726  10.614
27226SOL    HW283576   4.899   0.632  10.521
27227SOL     OW83577  10.177  11.049   4.617
27227SOL    HW183578  10.124  11.042   4.697
27227SOL    HW283579  10.112  11.049   4.546
27228SOL     OW83580   9.094  13.869  13.275
27228SOL    HW183581   9.143  13.831  13.202
27228SOL    HW283582   9.021  13.914  13.234
27229SOL     OW83583   2.546   9.362   8.341
27229SOL    HW183584   2.538   9.414   8.261
27229SOL    HW283585   2.583   9.279   8.312
27230SOL     OW83586   0.275   4.208  11.687
27230SOL    HW183587   0.251   4.123  11.650
27230SOL    HW283588   0.216   4.271  11.646
27231SOL     OW83589  10.666   8.540   5.751
27231SOL    HW183590  10.717   8.618   5.730
27231SOL    HW283591  10.581   8.573   5.779
27232SOL     OW83592   3.429  13.772  10.352
27232SOL    HW183593   3.431  13.826  10.273
27232SOL    HW283594   3.498  13.810  10.407
27233SOL     OW83595   4.631   1.628   1.720
27233SOL    HW183596   4.691   1.564   1.759
27233SOL    HW283597   4.633   1.702   1.781
27234SOL     OW83598   9.733  13.478  11.999
27234SOL    HW183599   9.816  13.525  12.010
27234SOL    HW283600   9.732  13.414  12.070
27235SOL     OW83601  12.905  11.453   8.049
27235SOL    HW183602  12.958  11.525   8.083
27235SOL    HW283603  12.926  11.449   7.956
27236SOL     OW83604   3.098   5.475  12.202
27236SOL    HW183605   3.027   5.477  12.137
27236SOL    HW283606   3.178   5.470  12.149
27237SOL     OW83607   4.753  12.858   3.434
27237SOL    HW183608   4.751  12.764   3.416
27237SOL    HW283609   4.822  12.869   3.500
27238SOL     OW83610  11.859  12.193   9.051
27238SOL    HW183611  11.881  12.227   9.138
27238SOL    HW283612  11.864  12.270   8.994
27239SOL     OW83613  12.143  13.128   0.677
27239SOL    HW183614  12.087  13.177   0.617
27239SOL    HW283615  12.223  13.110   0.628
27240SOL     OW83616  14.434   5.150   8.585
27240SOL    HW183617  14.416   5.089   8.514
27240SOL    HW283618  14.526   5.134   8.607
27241SOL     OW83619  10.590   6.453  10.647
27241SOL    HW183620  10.634   6.428  10.727
27241SOL    HW283621  10.661   6.470  10.584
27242SOL     OW83622   1.275   0.444  11.832
27242SOL    HW183623   1.260   0.388  11.756
27242SOL    HW283624   1.359   0.414  11.867
27243SOL     OW83625  14.258  14.438  13.617
27243SOL    HW183626  14.195  14.508  13.597
27243SOL    HW283627  14.208  14.374  13.666
27244SOL     OW83628   0.511  10.849   4.851
27244SOL    HW183629   0.436  10.845   4.791
27244SOL    HW283630   0.534  10.757   4.865
27245SOL     OW83631   1.749   0.882   6.703
27245SOL    HW183632   1.679   0.906   6.642
27245SOL    HW283633   1.757   0.958   6.761
27246SOL     OW83634   9.539   7.685   3.137
27246SOL    HW183635   9.462   7.712   3.187
27246SOL    HW283636   9.506   7.623   3.073
27247SOL     OW83637   8.803  12.986  10.781
27247SOL    HW183638   8.789  12.924  10.709
27247SOL    HW283639   8.839  12.932  10.852
27248SOL     OW83640  12.014  11.619   9.370
27248SOL    HW183641  12.019  11.578   9.457
27248SOL    HW283642  12.035  11.549   9.309
27249SOL     OW83643   2.981   2.164   0.729
27249SOL    HW183644   2.963   2.119   0.812
27249SOL    HW283645   2.917   2.236   0.727
27250SOL     OW83646  13.339  12.747   7.952
27250SOL    HW183647  13.306  12.766   7.865
27250SOL    HW283648  13.384  12.827   7.979
27251SOL     OW83649  10.310  10.717  13.146
27251SOL    HW183650  10.235  10.777  13.149
27251SOL    HW283651  10.293  10.662  13.070
27252SOL     OW83652  11.191   4.174   1.954
27252SOL    HW183653  11.106   4.209   1.928
27252SOL    HW283654  11.252   4.210   1.889
27253SOL     OW83655   4.548   1.199   3.195
27253SOL    HW183656   4.564   1.261   3.265
27253SOL    HW283657   4.609   1.224   3.126
27254SOL     OW83658  13.309   6.130   9.440
27254SOL    HW183659  13.309   6.045   9.397
27254SOL    HW283660  13.393   6.169   9.415
27255SOL     OW83661  13.967  13.124  13.496
27255SOL    HW183662  14.023  13.096  13.569
27255SOL    HW283663  13.978  13.219  13.493
27256SOL     OW83664  12.707  12.063   7.671
27256SOL    HW183665  12.696  12.156   7.655
27256SOL    HW283666  12.693  12.022   7.586
27257SOL     OW83667   6.432   7.888   2.811
27257SOL    HW183668   6.510   7.891   2.755
27257SOL    HW283669   6.364   7.931   2.760
27258SOL     OW83670  14.647   2.617  10.860
27258SOL    HW183671  14.636   2.557  10.786
27258SOL    HW283672  14.652   2.560  10.937
27259SOL     OW83673   3.846   7.134   4.821
27259SOL    HW183674   3.843   7.166   4.912
27259SOL    HW283675   3.772   7.176   4.778
27260SOL     OW83676  13.198   3.487   6.090
27260SOL    HW183677  13.110   3.517   6.065
27260SOL    HW283678  13.249   3.567   6.097
27261SOL     OW83679   2.211   9.067   6.770
27261SOL    HW183680   2.262   9.032   6.697
27261SOL    HW283681   2.158   9.137   6.731
27262SOL     OW83682   2.410   2.694  14.406
27262SOL    HW183683   2.344   2.761  14.393
27262SOL    HW283684   2.476   2.712  14.339
27263SOL     OW83685  12.696   6.182   5.339
27263SOL    HW183686  12.680   6.149   5.251
27263SOL    HW283687  12.715   6.103   5.391
27264SOL     OW83688   9.271   7.766   7.770
27264SOL    HW183689   9.188   7.781   7.815
27264SOL    HW283690   9.246   7.746   7.680
27265SOL     OW83691   1.378   6.490   5.601
27265SOL    HW183692   1.397   6.574   5.558
27265SOL    HW283693   1.437   6.428   5.557
27266SOL     OW83694   3.923   1.273   3.703
27266SOL    HW183695   3.961   1.342   3.757
27266SOL    HW283696   3.947   1.192   3.748
27267SOL     OW83697   4.904   5.735   4.927
27267SOL    HW183698   4.820   5.730   4.972
27267SOL    HW283699   4.969   5.728   4.997
27268SOL     OW83700  10.916  11.391  13.148
27268SOL    HW183701  10.928  11.391  13.242
27268SOL    HW283702  10.895  11.301  13.125
27269SOL     OW83703   6.886   3.795   0.686
27269SOL    HW183704   6.850   3.878   0.656
27269SOL    HW283705   6.980   3.802   0.668
27270SOL     OW83706  13.589   4.758  10.419
27270SOL    HW183707  13.550   4.834  10.374
27270SOL    HW283708  13.681   4.782  10.431
27271SOL     OW83709   7.572   4.620   6.836
27271SOL    HW183710   7.582   4.597   6.743
27271SOL    HW283711   7.646   4.677   6.854
27272SOL     OW83712   6.692   8.583  11.356
27272SOL    HW183713   6.721   8.673  11.370
27272SOL    HW283714   6.748   8.551  11.285
27273SOL     OW83715   1.229  12.852   0.555
27273SOL    HW183716   1.173  12.854   0.477
27273SOL    HW283717   1.168  12.859   0.629
27274SOL     OW83718  13.636   0.042  14.312
27274SOL    HW183719  13.579  14.854  14.349
27274SOL    HW283720  13.663   0.007  14.227
27275SOL     OW83721   9.220   0.500   3.496
27275SOL    HW183722   9.168   0.579   3.481
27275SOL    HW283723   9.156   0.432   3.517
27276SOL     OW83724   0.356   8.476   5.267
27276SOL    HW183725   0.445   8.449   5.245
27276SOL    HW283726   0.303   8.398   5.253
27277SOL     OW83727  13.617   2.914   0.255
27277SOL    HW183728  13.593   2.835   0.208
27277SOL    HW283729  13.685   2.886   0.316
27278SOL     OW83730   6.839   4.441  13.767
27278SOL    HW183731   6.771   4.443  13.699
27278SOL    HW283732   6.898   4.372  13.740
27279SOL     OW83733   1.195  13.582   8.096
27279SOL    HW183734   1.101  13.568   8.101
27279SOL    HW283735   1.233  13.514   8.151
27280SOL     OW83736  11.402   1.515  10.357
27280SOL    HW183737  11.495   1.508  10.379
27280SOL    HW283738  11.362   1.440  10.400
27281SOL     OW83739   0.027   8.995  12.934
27281SOL    HW183740  14.865   9.056  12.873
27281SOL    HW283741  14.866   9.013  13.019
27282SOL     OW83742  11.906   2.397   5.862
27282SOL    HW183743  11.867   2.381   5.948
27282SOL    HW283744  11.838   2.445   5.814
27283SOL     OW83745   5.447   0.929   1.118
27283SOL    HW183746   5.502   1.006   1.106
27283SOL    HW283747   5.489   0.882   1.191
27284SOL     OW83748   2.664   2.584   4.540
27284SOL    HW183749   2.647   2.625   4.455
27284SOL    HW283750   2.663   2.490   4.521
27285SOL     OW83751   3.975   9.014  10.210
27285SOL    HW183752   4.033   8.969  10.148
27285SOL    HW283753   3.978   9.105  10.184
27286SOL     OW83754  13.965   7.340   4.309
27286SOL    HW183755  13.886   7.311   4.355
27286SOL    HW283756  14.030   7.272   4.327
27287SOL     OW83757  12.427  12.143   4.282
27287SOL    HW183758  12.393  12.201   4.213
27287SOL    HW283759  12.414  12.193   4.363
27288SOL     OW83760   5.395  11.420   9.127
27288SOL    HW183761   5.488  11.402   9.138
27288SOL    HW283762   5.351  11.341   9.159
27289SOL     OW83763  14.353   0.916   5.570
27289SOL    HW183764  14.379   0.844   5.629
27289SOL    HW283765  14.340   0.874   5.485
27290SOL     OW83766   3.335  11.910   7.986
27290SOL    HW183767   3.427  11.937   7.989
27290SOL    HW283768   3.329  11.854   7.909
27291SOL     OW83769   1.630  13.632   4.024
27291SOL    HW183770   1.537  13.648   4.009
27291SOL    HW283771   1.641  13.539   4.007
27292SOL     OW83772  12.558   5.443  11.964
27292SOL    HW183773  12.647   5.470  11.986
27292SOL    HW283774  12.506   5.523  11.971
27293SOL     OW83775   0.798   5.757   0.939
27293SOL    HW183776   0.837   5.749   0.852
27293SOL    HW283777   0.872   5.769   0.998
27294SOL     OW83778   2.313   3.600   7.712
27294SOL    HW183779   2.327   3.685   7.754
27294SOL    HW283780   2.382   3.544   7.747
27295SOL     OW83781   7.361  11.148   2.484
27295SOL    HW183782   7.300  11.088   2.441
27295SOL    HW283783   7.304  11.209   2.531
27296SOL     OW83784  10.540   7.456   3.028
27296SOL    HW183785  10.555   7.381   2.971
27296SOL    HW283786  10.624   7.471   3.072
27297SOL     OW83787   5.345   2.291   7.823
27297SOL    HW183788   5.269   2.248   7.863
27297SOL    HW283789   5.414   2.225   7.825
27298SOL     OW83790  12.172   2.974   2.698
27298SOL    HW183791  12.129   3.058   2.712
27298SOL    HW283792  12.159   2.926   2.780
27299SOL     OW83793   2.311   0.666   5.720
27299SOL    HW183794   2.281   0.725   5.790
27299SOL    HW283795   2.388   0.623   5.756
27300SOL     OW83796   8.456  13.818  14.015
27300SOL    HW183797   8.477  13.877  14.088
27300SOL    HW283798   8.435  13.877  13.942
27301SOL     OW83799  13.034   0.345   6.698
27301SOL    HW183800  13.016   0.310   6.611
27301SOL    HW283801  13.090   0.279   6.739
27302SOL     OW83802   2.337   2.646   8.458
27302SOL    HW183803   2.351   2.671   8.367
27302SOL    HW283804   2.357   2.725   8.508
27303SOL     OW83805   1.799  11.227  11.159
27303SOL    HW183806   1.812  11.314  11.197
27303SOL    HW283807   1.711  11.230  11.122
27304SOL     OW83808   4.208   4.901  11.677
27304SOL    HW183809   4.236   4.846  11.604
27304SOL    HW283810   4.113   4.908  11.666
27305SOL     OW83811   7.192  11.696  12.520
27305SOL    HW183812   7.197  11.611  12.563
27305SOL    HW283813   7.274  11.703  12.470
27306SOL     OW83814   7.280   0.527   7.706
27306SOL    HW183815   7.288   0.581   7.784
27306SOL    HW283816   7.206   0.469   7.725
27307SOL     OW83817  12.248   2.309  12.095
27307SOL    HW183818  12.248   2.214  12.093
27307SOL    HW283819  12.306   2.335  12.023
27308SOL     OW83820  14.421   9.601   2.400
27308SOL    HW183821  14.384   9.666   2.460
27308SOL    HW283822  14.394   9.517   2.435
27309SOL     OW83823  13.308   0.578   6.995
27309SOL    HW183824  13.345   0.569   7.083
27309SOL    HW283825  13.339   0.664   6.966
27310SOL     OW83826  11.668   6.214  14.267
27310SOL    HW183827  11.607   6.267  14.216
27310SOL    HW283828  11.751   6.261  14.260
27311SOL     OW83829   3.030   9.433   4.201
27311SOL    HW183830   2.961   9.409   4.262
27311SOL    HW283831   3.094   9.362   4.208
27312SOL     OW83832  12.844   3.082   4.521
27312SOL    HW183833  12.868   3.060   4.611
27312SOL    HW283834  12.907   3.151   4.496
27313SOL     OW83835  11.187  11.222  13.339
27313SOL    HW183836  11.096  11.240  13.363
27313SOL    HW283837  11.236  11.298  13.371
27314SOL     OW83838   8.587   2.446  14.288
27314SOL    HW183839   8.544   2.422  14.370
27314SOL    HW283840   8.680   2.447  14.310
27315SOL     OW83841   0.589   6.792  11.859
27315SOL    HW183842   0.551   6.705  11.871
27315SOL    HW283843   0.517   6.853  11.878
27316SOL     OW83844   7.402   3.366   2.640
27316SOL    HW183845   7.335   3.333   2.580
27316SOL    HW283846   7.482   3.320   2.614
27317SOL     OW83847   2.393  12.798   7.275
27317SOL    HW183848   2.403  12.704   7.288
27317SOL    HW283849   2.299  12.811   7.263
27318SOL     OW83850   6.477   9.838  11.323
27318SOL    HW183851   6.564   9.843  11.363
27318SOL    HW283852   6.428   9.780  11.380
27319SOL     OW83853  11.853  13.794  10.840
27319SOL    HW183854  11.779  13.738  10.815
27319SOL    HW283855  11.928  13.754  10.796
27320SOL     OW83856   5.498  11.842  11.578
27320SOL    HW183857   5.453  11.808  11.500
27320SOL    HW283858   5.446  11.918  11.604
27321SOL     OW83859   7.281   2.690   9.106
27321SOL    HW183860   7.276   2.732   9.021
27321SOL    HW283861   7.217   2.736   9.160
27322SOL     OW83862   3.892   6.358   0.001
27322SOL    HW183863   3.832   6.367   0.075
27322SOL    HW283864   3.973   6.400   0.030
27323SOL     OW83865   8.738   0.903   3.361
27323SOL    HW183866   8.740   0.808   3.363
27323SOL    HW283867   8.828   0.928   3.338
27324SOL     OW83868  14.612   1.611   6.370
27324SOL    HW183869  14.661   1.675   6.320
27324SOL    HW283870  14.547   1.577   6.309
27325SOL     OW83871  11.404   9.396   5.518
27325SOL    HW183872  11.420   9.342   5.596
27325SOL    HW283873  11.491   9.420   5.488
27326SOL     OW83874   3.401   8.295  14.201
27326SOL    HW183875   3.405   8.390  14.188
27326SOL    HW283876   3.354   8.262  14.125
27327SOL     OW83877  13.539  13.307   7.860
27327SOL    HW183878  13.446  13.318   7.880
27327SOL    HW283879  13.565  13.229   7.908
27328SOL     OW83880   6.049   2.951   2.540
27328SOL    HW183881   6.011   2.966   2.626
27328SOL    HW283882   5.974   2.935   2.483
27329SOL     OW83883   6.845   6.920  11.572
27329SOL    HW183884   6.786   6.971  11.628
27329SOL    HW283885   6.931   6.962  11.584
27330SOL     OW83886   0.910  11.049   1.940
27330SOL    HW183887   0.960  11.079   1.864
27330SOL    HW283888   0.831  11.104   1.939
27331SOL     OW83889   9.213   4.768  11.095
27331SOL    HW183890   9.192   4.803  11.182
27331SOL    HW283891   9.191   4.675  11.102
27332SOL     OW83892   5.714   3.183  14.018
27332SOL    HW183893   5.623   3.194  13.989
27332SOL    HW283894   5.766   3.211  13.943
27333SOL     OW83895   1.585   3.850   0.418
27333SOL    HW183896   1.546   3.872   0.503
27333SOL    HW283897   1.655   3.788   0.439
27334SOL     OW83898   3.513   9.421  14.867
27334SOL    HW183899   3.602   9.453  14.855
27334SOL    HW283900   3.493   9.440   0.079
27335SOL     OW83901   8.032   4.739  14.314
27335SOL    HW183902   8.116   4.785  14.305
27335SOL    HW283903   7.989   4.751  14.229
27336SOL     OW83904   4.688   5.928  12.038
27336SOL    HW183905   4.765   5.942  11.983
27336SOL    HW283906   4.715   5.956  12.125
27337SOL     OW83907   0.567  10.176   3.240
27337SOL    HW183908   0.615  10.243   3.289
27337SOL    HW283909   0.629  10.103   3.232
27338SOL     OW83910   0.813   8.661   7.407
27338SOL    HW183911   0.889   8.655   7.349
27338SOL    HW283912   0.761   8.734   7.372
27339SOL     OW83913   7.369   8.126   9.563
27339SOL    HW183914   7.416   8.059   9.514
27339SOL    HW283915   7.384   8.103   9.655
27340SOL     OW83916  12.918  13.548   2.690
27340SOL    HW183917  12.904  13.633   2.732
27340SOL    HW283918  12.910  13.484   2.760
27341SOL     OW83919   3.187  13.385  13.631
27341SOL    HW183920   3.160  13.475  13.613
27341SOL    HW283921   3.142  13.332  13.566
27342SOL     OW83922  11.425   3.255   7.628
27342SOL    HW183923  11.481   3.283   7.556
27342SOL    HW283924  11.361   3.325   7.638
27343SOL     OW83925  11.229   3.357   4.511
27343SOL    HW183926  11.183   3.295   4.455
27343SOL    HW283927  11.170   3.372   4.584
27344SOL     OW83928   5.675   2.650   7.785
27344SOL    HW183929   5.623   2.650   7.705
27344SOL    HW283930   5.612   2.629   7.854
27345SOL     OW83931   4.885  13.612   7.185
27345SOL    HW183932   4.980  13.617   7.180
27345SOL    HW283933   4.865  13.518   7.178
27346SOL     OW83934   6.102   3.829   3.126
27346SOL    HW183935   6.181   3.804   3.077
27346SOL    HW283936   6.126   3.910   3.170
27347SOL     OW83937   3.683   3.230   5.153
27347SOL    HW183938   3.600   3.182   5.153
27347SOL    HW283939   3.745   3.172   5.109
27348SOL     OW83940   4.410   0.023   5.552
27348SOL    HW183941   4.316   0.039   5.545
27348SOL    HW283942   4.444   0.040   5.464
27349SOL     OW83943   0.429  14.373   9.351
27349SOL    HW183944   0.469  14.349   9.434
27349SOL    HW283945   0.470  14.456   9.328
27350SOL     OW83946  14.433   7.636   6.781
27350SOL    HW183947  14.338   7.644   6.790
27350SOL    HW283948  14.468   7.716   6.820
27351SOL     OW83949   4.818  13.469  14.829
27351SOL    HW183950   4.777  13.543  14.784
27351SOL    HW283951   4.822  13.496   0.041
27352SOL     OW83952   3.451   3.604   7.508
27352SOL    HW183953   3.463   3.638   7.596
27352SOL    HW283954   3.359   3.620   7.487
27353SOL     OW83955   7.311   1.574   8.700
27353SOL    HW183956   7.363   1.508   8.746
27353SOL    HW283957   7.375   1.631   8.658
27354SOL     OW83958   3.541   2.255   7.557
27354SOL    HW183959   3.521   2.241   7.464
27354SOL    HW283960   3.593   2.179   7.582
27355SOL     OW83961   9.187   0.995   9.172
27355SOL    HW183962   9.108   1.023   9.125
27355SOL    HW283963   9.164   0.910   9.208
27356SOL     OW83964   3.998  12.277  11.291
27356SOL    HW183965   4.085  12.240  11.280
27356SOL    HW283966   3.942  12.225  11.233
27357SOL     OW83967   5.558   0.566   0.440
27357SOL    HW183968   5.610   0.488   0.460
27357SOL    HW283969   5.621   0.628   0.402
27358SOL     OW83970   2.117  13.702   2.376
27358SOL    HW183971   2.202  13.744   2.390
27358SOL    HW283972   2.137  13.609   2.370
27359SOL     OW83973   2.378  10.749  10.760
27359SOL    HW183974   2.470  10.778  10.756
27359SOL    HW283975   2.375  10.690  10.835
27360SOL     OW83976   0.195  12.199   5.387
27360SOL    HW183977   0.193  12.235   5.299
27360SOL    HW283978   0.277  12.149   5.390
27361SOL     OW83979   6.812   9.930   9.343
27361SOL    HW183980   6.794   9.885   9.426
27361SOL    HW283981   6.902   9.906   9.322
27362SOL     OW83982  13.332  14.015   1.612
27362SOL    HW183983  13.383  14.072   1.669
27362SOL    HW283984  13.397  13.968   1.560
27363SOL     OW83985   6.383   5.494   2.710
27363SOL    HW183986   6.306   5.550   2.710
27363SOL    HW283987   6.438   5.529   2.780
27364SOL     OW83988   4.892   7.150   1.353
27364SOL    HW183989   4.879   7.243   1.371
27364SOL    HW283990   4.824   7.128   1.289
27365SOL     OW83991   5.428   6.572   0.388
27365SOL    HW183992   5.440   6.497   0.446
27365SOL    HW283993   5.334   6.581   0.379
27366SOL     OW83994   3.250   3.661  11.715
27366SOL    HW183995   3.297   3.584  11.748
27366SOL    HW283996   3.269   3.662  11.621
27367SOL     OW83997  10.809   0.048   8.475
27367SOL    HW183998  10.830   0.065   8.567
27367SOL    HW283999  10.729   0.097   8.459
27368SOL     OW84000  14.078   3.034  14.650
27368SOL    HW184001  14.098   3.106  14.589
27368SOL    HW284002  14.135   2.963  14.621
27369SOL     OW84003  12.605   0.857   7.287
27369SOL    HW184004  12.603   0.933   7.229
27369SOL    HW284005  12.581   0.891   7.373
27370SOL     OW84006   5.592   5.382   0.419
27370SOL    HW184007   5.534   5.436   0.365
27370SOL    HW284008   5.536   5.351   0.490
27371SOL     OW84009   9.250   3.607   1.946
27371SOL    HW184010   9.234   3.534   2.005
27371SOL    HW284011   9.177   3.667   1.960
27372SOL     OW84012   1.992   7.667   3.940
27372SOL    HW184013   1.980   7.628   4.027
27372SOL    HW284014   2.086   7.670   3.927
27373SOL     OW84015   9.810  11.627  11.714
27373SOL    HW184016   9.727  11.580  11.720
27373SOL    HW284017   9.825  11.660  11.803
27374SOL     OW84018   6.374  10.804   6.751
27374SOL    HW184019   6.289  10.776   6.785
27374SOL    HW284020   6.429  10.812   6.829
27375SOL     OW84021  11.635  11.079  10.306
27375SOL    HW184022  11.693  11.012  10.342
27375SOL    HW284023  11.665  11.161  10.345
27376SOL     OW84024   7.854   9.282   1.954
27376SOL    HW184025   7.892   9.360   1.913
27376SOL    HW284026   7.761   9.302   1.963
27377SOL     OW84027  11.218   9.110   6.017
27377SOL    HW184028  11.163   9.188   6.020
27377SOL    HW284029  11.205   9.074   5.929
27378SOL     OW84030  11.793   5.694  11.483
27378SOL    HW184031  11.826   5.614  11.523
27378SOL    HW284032  11.770   5.750  11.558
27379SOL     OW84033   3.199   6.063   1.410
27379SOL    HW184034   3.118   6.113   1.400
27379SOL    HW284035   3.202   6.042   1.504
27380SOL     OW84036   8.170   0.707  14.675
27380SOL    HW184037   8.215   0.685  14.594
27380SOL    HW284038   8.164   0.624  14.722
27381SOL     OW84039   1.664  13.850   9.221
27381SOL    HW184040   1.597  13.909   9.185
27381SOL    HW284041   1.662  13.774   9.164
27382SOL     OW84042  11.031  11.050  13.773
27382SOL    HW184043  10.936  11.057  13.783
27382SOL    HW284044  11.049  10.956  13.776
27383SOL     OW84045  11.132   6.041   8.741
27383SOL    HW184046  11.063   6.035   8.674
27383SOL    HW284047  11.182   5.960   8.730
27384SOL     OW84048   0.000  14.333   2.284
27384SOL    HW184049   0.007  14.243   2.314
27384SOL    HW284050  14.786  14.348   2.274
27385SOL     OW84051   6.289  14.419   7.796
27385SOL    HW184052   6.298  14.378   7.710
27385SOL    HW284053   6.253  14.506   7.777
27386SOL     OW84054   9.633  14.606   4.194
27386SOL    HW184055   9.635  14.693   4.155
27386SOL    HW284056   9.552  14.604   4.245
27387SOL     OW84057   0.365  14.544  10.620
27387SOL    HW184058   0.344  14.579  10.533
27387SOL    HW284059   0.461  14.542  10.622
27388SOL     OW84060   1.414   7.205   5.287
27388SOL    HW184061   1.489   7.231   5.340
27388SOL    HW284062   1.385   7.286   5.246
27389SOL     OW84063   5.432   1.616  13.782
27389SOL    HW184064   5.495   1.589  13.849
27389SOL    HW284065   5.440   1.711  13.778
27390SOL     OW84066   0.536  11.964  11.126
27390SOL    HW184067   0.619  11.987  11.086
27390SOL    HW284068   0.470  11.985  11.060
27391SOL     OW84069   0.152   2.076  13.502
27391SOL    HW184070   0.180   2.014  13.569
27391SOL    HW284071   0.066   2.107  13.532
27392SOL     OW84072   2.315   2.945  13.693
27392SOL    HW184073   2.249   2.877  13.679
27392SOL    HW284074   2.361   2.950  13.610
27393SOL     OW84075   1.801   0.645   8.388
27393SOL    HW184076   1.879   0.691   8.416
27393SOL    HW284077   1.731   0.679   8.444
27394SOL     OW84078   6.757  13.791   8.044
27394SOL    HW184079   6.739  13.722   7.981
27394SOL    HW284080   6.674  13.804   8.090
27395SOL     OW84081   2.836   9.798  11.302
27395SOL    HW184082   2.866   9.708  11.316
27395SOL    HW284083   2.912   9.852  11.325
27396SOL     OW84084   8.387  12.411   8.183
27396SOL    HW184085   8.357  12.373   8.266
27396SOL    HW284086   8.429  12.494   8.208
27397SOL     OW84087   5.006   2.325  14.434
27397SOL    HW184088   5.058   2.391  14.479
27397SOL    HW284089   5.037   2.241  14.469
27398SOL     OW84090   9.689   1.924   7.507
27398SOL    HW184091   9.697   1.833   7.477
27398SOL    HW284092   9.599   1.931   7.540
27399SOL     OW84093   0.035   9.045   9.495
27399SOL    HW184094  14.821   9.063   9.504
27399SOL    HW284095   0.044   8.953   9.521
27400SOL     OW84096   1.278  14.053   0.577
27400SOL    HW184097   1.336  14.045   0.653
27400SOL    HW284098   1.208  14.110   0.607
27401SOL     OW84099   8.853   4.922   3.336
27401SOL    HW184100   8.766   4.951   3.308
27401SOL    HW284101   8.862   4.956   3.425
27402SOL     OW84102  12.319   8.641   1.367
27402SOL    HW184103  12.274   8.689   1.437
27402SOL    HW284104  12.298   8.550   1.383
27403SOL     OW84105  10.836  12.351   5.175
27403SOL    HW184106  10.844  12.317   5.264
27403SOL    HW284107  10.872  12.283   5.120
27404SOL     OW84108   0.844   1.505   1.171
27404SOL    HW184109   0.798   1.483   1.090
27404SOL    HW284110   0.853   1.422   1.217
27405SOL     OW84111  13.603   0.138   5.223
27405SOL    HW184112  13.657   0.192   5.280
27405SOL    HW284113  13.662   0.109   5.154
27406SOL     OW84114   2.367   6.593   5.717
27406SOL    HW184115   2.451   6.638   5.704
27406SOL    HW284116   2.341   6.617   5.806
27407SOL     OW84117  11.082   0.592  13.692
27407SOL    HW184118  11.154   0.532  13.711
27407SOL    HW284119  11.124   0.678  13.686
27408SOL     OW84120   2.691  10.390   0.007
27408SOL    HW184121   2.599  10.364   0.014
27408SOL    HW284122   2.740  10.309   0.017
27409SOL     OW84123   1.418  11.805   6.821
27409SOL    HW184124   1.369  11.776   6.898
27409SOL    HW284125   1.507  11.818   6.852
27410SOL     OW84126   7.934   0.689  14.148
27410SOL    HW184127   7.985   0.610  14.128
27410SOL    HW284128   7.872   0.661  14.214
27411SOL     OW84129   5.585   4.530  12.897
27411SOL    HW184130   5.565   4.441  12.928
27411SOL    HW284131   5.681   4.532  12.894
27412SOL     OW84132   0.527   8.499   9.610
27412SOL    HW184133   0.500   8.445   9.536
27412SOL    HW284134   0.613   8.532   9.585
27413SOL     OW84135  14.360   7.607   7.906
27413SOL    HW184136  14.317   7.626   7.990
27413SOL    HW284137  14.365   7.692   7.862
27414SOL     OW84138   1.896   1.965   4.340
27414SOL    HW184139   1.881   1.888   4.396
27414SOL    HW284140   1.843   1.949   4.263
27415SOL     OW84141  13.099   9.520   4.363
27415SOL    HW184142  13.092   9.584   4.434
27415SOL    HW284143  13.064   9.439   4.400
27416SOL     OW84144   2.099   3.985   2.341
27416SOL    HW184145   2.018   3.980   2.291
27416SOL    HW284146   2.117   3.894   2.366
27417SOL     OW84147   5.002   6.139   2.809
27417SOL    HW184148   5.013   6.225   2.849
27417SOL    HW284149   4.936   6.153   2.740
27418SOL     OW84150  11.735  10.259  10.893
27418SOL    HW184151  11.653  10.287  10.932
27418SOL    HW284152  11.710  10.196  10.825
27419SOL     OW84153   9.678  11.028  13.559
27419SOL    HW184154   9.614  11.098  13.569
27419SOL    HW284155   9.739  11.042  13.631
27420SOL     OW84156  13.819   8.630   5.110
27420SOL    HW184157  13.735   8.599   5.142
27420SOL    HW284158  13.833   8.581   5.029
27421SOL     OW84159   5.890   2.575  13.611
27421SOL    HW184160   5.924   2.519  13.542
27421SOL    HW284161   5.861   2.654  13.565
27422SOL     OW84162  12.397   5.643  11.141
27422SOL    HW184163  12.347   5.717  11.176
27422SOL    HW284164  12.412   5.666  11.049
27423SOL     OW84165  11.459   1.525   2.945
27423SOL    HW184166  11.541   1.475   2.934
27423SOL    HW284167  11.415   1.482   3.018
27424SOL     OW84168   1.567   5.447  13.400
27424SOL    HW184169   1.656   5.415  13.408
27424SOL    HW284170   1.575   5.531  13.354
27425SOL     OW84171   0.874  10.810  13.243
27425SOL    HW184172   0.909  10.801  13.331
27425SOL    HW284173   0.947  10.787  13.185
27426SOL     OW84174   5.587  11.209   6.853
27426SOL    HW184175   5.661  11.161   6.891
27426SOL    HW284176   5.573  11.168   6.768
27427SOL     OW84177  14.130   6.071   1.711
27427SOL    HW184178  14.201   6.033   1.659
27427SOL    HW284179  14.145   6.039   1.800
27428SOL     OW84180   2.384   9.680   0.148
27428SOL    HW184181   2.319   9.637   0.204
27428SOL    HW284182   2.458   9.620   0.145
27429SOL     OW84183   8.240   3.627  12.200
27429SOL    HW184184   8.268   3.705  12.152
27429SOL    HW284185   8.155   3.651  12.238
27430SOL     OW84186  12.244   6.743   5.909
27430SOL    HW184187  12.326   6.755   5.956
27430SOL    HW284188  12.263   6.675   5.844
27431SOL     OW84189   9.991   3.346   4.581
27431SOL    HW184190   9.919   3.300   4.539
27431SOL    HW284191   9.957   3.434   4.597
27432SOL     OW84192  12.513  11.520   4.545
27432SOL    HW184193  12.600  11.559   4.545
27432SOL    HW284194  12.529  11.426   4.551
27433SOL     OW84195   4.191   5.559   6.158
27433SOL    HW184196   4.276   5.517   6.153
27433SOL    HW284197   4.175   5.573   6.251
27434SOL     OW84198   8.146  14.077  11.497
27434SOL    HW184199   8.114  14.166  11.480
27434SOL    HW284200   8.172  14.044  11.412
27435SOL     OW84201   5.924   2.495   8.541
27435SOL    HW184202   5.839   2.538   8.530
27435SOL    HW284203   5.943   2.457   8.455
27436SOL     OW84204   6.881  14.703   8.234
27436SOL    HW184205   6.900  14.698   8.328
27436SOL    HW284206   6.816  14.634   8.220
27437SOL     OW84207   9.900  13.205  14.086
27437SOL    HW184208   9.967  13.185  14.151
27437SOL    HW284209   9.817  13.182  14.129
27438SOL     OW84210  13.841   6.218   0.924
27438SOL    HW184211  13.766   6.257   0.879
27438SOL    HW284212  13.848   6.130   0.885
27439SOL     OW84213   4.989   2.627   6.897
27439SOL    HW184214   5.052   2.571   6.852
27439SOL    HW284215   4.939   2.567   6.952
27440SOL     OW84216   0.153  10.710  12.060
27440SOL    HW184217   0.137  10.746  11.973
27440SOL    HW284218   0.185  10.622  12.044
27441SOL     OW84219   6.406   2.344   3.727
27441SOL    HW184220   6.358   2.414   3.770
27441SOL    HW284221   6.374   2.345   3.637
27442SOL     OW84222   2.240  13.846  12.277
27442SOL    HW184223   2.309  13.888  12.328
27442SOL    HW284224   2.274  13.759  12.257
27443SOL     OW84225   4.614   6.943  12.751
27443SOL    HW184226   4.570   6.939  12.836
27443SOL    HW284227   4.561   7.003  12.699
27444SOL     OW84228   2.424   6.797   0.223
27444SOL    HW184229   2.431   6.813   0.317
27444SOL    HW284230   2.354   6.856   0.194
27445SOL     OW84231   9.743   0.488   0.560
27445SOL    HW184232   9.684   0.526   0.495
27445SOL    HW284233   9.794   0.423   0.511
27446SOL     OW84234   8.635   7.047  13.876
27446SOL    HW184235   8.577   7.114  13.912
27446SOL    HW284236   8.579   6.971  13.862
27447SOL     OW84237  13.713  10.679   9.379
27447SOL    HW184238  13.666  10.600   9.352
27447SOL    HW284239  13.645  10.743   9.395
27448SOL     OW84240   2.183   7.353   0.355
27448SOL    HW184241   2.089   7.369   0.347
27448SOL    HW284242   2.189   7.263   0.386
27449SOL     OW84243   0.944  14.122   0.899
27449SOL    HW184244   0.872  14.088   0.952
27449SOL    HW284245   0.981  14.045   0.857
27450SOL     OW84246  14.403   4.451   0.794
27450SOL    HW184247  14.491   4.450   0.831
27450SOL    HW284248  14.374   4.360   0.799
27451SOL     OW84249  14.787   2.018  14.471
27451SOL    HW184250  14.728   2.094  14.470
27451SOL    HW284251  14.766   1.970  14.391
27452SOL     OW84252   0.624   2.780   2.282
27452SOL    HW184253   0.677   2.722   2.227
27452SOL    HW284254   0.656   2.765   2.370
27453SOL     OW84255   0.712   1.451   7.634
27453SOL    HW184256   0.686   1.543   7.624
27453SOL    HW284257   0.797   1.445   7.591
27454SOL     OW84258   4.833  10.709   1.578
27454SOL    HW184259   4.836  10.717   1.483
27454SOL    HW284260   4.921  10.734   1.607
27455SOL     OW84261   7.032   7.406   9.015
27455SOL    HW184262   7.104   7.345   9.027
27455SOL    HW284263   6.958   7.352   8.987
27456SOL     OW84264   1.768   2.615   0.988
27456SOL    HW184265   1.813   2.559   1.051
27456SOL    HW284266   1.707   2.557   0.943
27457SOL     OW84267  10.927   7.844   6.239
27457SOL    HW184268  10.965   7.927   6.269
27457SOL    HW284269  10.838   7.867   6.212
27458SOL     OW84270   3.168   0.207  13.322
27458SOL    HW184271   3.087   0.165  13.350
27458SOL    HW284272   3.150   0.238  13.233
27459SOL     OW84273   2.045  11.456  11.161
27459SOL    HW184274   2.109  11.505  11.211
27459SOL    HW284275   1.964  11.506  11.169
27460SOL     OW84276  12.800  10.150  13.968
27460SOL    HW184277  12.808  10.087  14.040
27460SOL    HW284278  12.889  10.184  13.956
27461SOL     OW84279   6.939   9.870  10.111
27461SOL    HW184280   6.906   9.831  10.192
27461SOL    HW284281   7.012   9.814  10.085
27462SOL     OW84282   7.177   9.380   1.406
27462SOL    HW184283   7.240   9.452   1.413
27462SOL    HW284284   7.134   9.394   1.322
27463SOL     OW84285  11.079   2.254   6.895
27463SOL    HW184286  11.012   2.290   6.838
27463SOL    HW284287  11.031   2.212   6.966
27464SOL     OW84288   1.617   0.564  10.497
27464SOL    HW184289   1.705   0.543  10.528
27464SOL    HW284290   1.563   0.565  10.576
27465SOL     OW84291   0.385   5.803  13.714
27465SOL    HW184292   0.307   5.824  13.765
27465SOL    HW284293   0.452   5.864  13.746
27466SOL     OW84294   9.340  13.213  13.454
27466SOL    HW184295   9.316  13.303  13.475
27466SOL    HW284296   9.270  13.160  13.492
27467SOL     OW84297   1.944  10.261   9.773
27467SOL    HW184298   1.894  10.313   9.836
27467SOL    HW284299   1.999  10.325   9.727
27468SOL     OW84300  12.603  10.536   8.313
27468SOL    HW184301  12.590  10.469   8.380
27468SOL    HW284302  12.695  10.528   8.289
27469SOL     OW84303   4.840  12.336   2.637
27469SOL    HW184304   4.869  12.422   2.605
27469SOL    HW284305   4.752  12.326   2.601
27470SOL     OW84306   0.904   8.297  12.942
27470SOL    HW184307   0.941   8.312  12.855
27470SOL    HW284308   0.975   8.318  13.003
27471SOL     OW84309   0.508  12.566  11.324
27471SOL    HW184310   0.543  12.614  11.399
27471SOL    HW284311   0.550  12.607  11.248
27472SOL     OW84312  10.013   8.514   0.507
27472SOL    HW184313   9.940   8.516   0.569
27472SOL    HW284314  10.007   8.427   0.466
27473SOL     OW84315   5.426   5.575  14.236
27473SOL    HW184316   5.505   5.629  14.236
27473SOL    HW284317   5.354   5.637  14.225
27474SOL     OW84318   3.277  13.706   7.046
27474SOL    HW184319   3.364  13.714   7.084
27474SOL    HW284320   3.287  13.739   6.956
27475SOL     OW84321  14.624  12.385  13.265
27475SOL    HW184322  14.538  12.371  13.302
27475SOL    HW284323  14.616  12.359  13.173
27476SOL     OW84324   3.112   1.569   0.369
27476SOL    HW184325   3.100   1.604   0.281
27476SOL    HW284326   3.200   1.596   0.394
27477SOL     OW84327   9.773  13.026   8.573
27477SOL    HW184328   9.827  12.972   8.630
27477SOL    HW284329   9.830  13.049   8.500
27478SOL     OW84330   0.296   2.480   1.023
27478SOL    HW184331   0.321   2.504   0.934
27478SOL    HW284332   0.376   2.487   1.074
27479SOL     OW84333   7.691  12.094   4.458
27479SOL    HW184334   7.777  12.050   4.458
27479SOL    HW284335   7.636  12.038   4.512
27480SOL     OW84336   1.397  14.275   7.706
27480SOL    HW184337   1.368  14.199   7.655
27480SOL    HW284338   1.316  14.316   7.736
27481SOL     OW84339   8.442   3.903   8.706
27481SOL    HW184340   8.462   3.974   8.767
27481SOL    HW284341   8.527   3.864   8.686
27482SOL     OW84342  12.088  10.735  11.515
27482SOL    HW184343  12.172  10.781  11.521
27482SOL    HW284344  12.023  10.804  11.506
27483SOL     OW84345   5.396   1.038   5.074
27483SOL    HW184346   5.384   1.129   5.049
27483SOL    HW284347   5.399   0.990   4.992
27484SOL     OW84348   2.884  14.617  12.165
27484SOL    HW184349   2.880  14.678  12.091
27484SOL    HW284350   2.819  14.650  12.226
27485SOL     OW84351   1.465   1.553  14.753
27485SOL    HW184352   1.377   1.535  14.720
27485SOL    HW284353   1.505   1.608  14.686
27486SOL     OW84354   2.687   6.382  12.123
27486SOL    HW184355   2.595   6.356  12.131
27486SOL    HW284356   2.734   6.320  12.178
27487SOL     OW84357   3.182   6.453   6.003
27487SOL    HW184358   3.124   6.453   6.080
27487SOL    HW284359   3.224   6.538   6.004
27488SOL     OW84360  13.282   9.871   7.808
27488SOL    HW184361  13.312   9.955   7.774
27488SOL    HW284362  13.358   9.814   7.802
27489SOL     OW84363   1.319   0.912   0.423
27489SOL    HW184364   1.389   0.897   0.360
27489SOL    HW284365   1.247   0.857   0.392
27490SOL     OW84366   7.082  12.381   6.882
27490SOL    HW184367   7.105  12.457   6.829
27490SOL    HW284368   7.164  12.356   6.925
27491SOL     OW84369   0.497  13.311   3.245
27491SOL    HW184370   0.419  13.262   3.269
27491SOL    HW284371   0.513  13.370   3.319
27492SOL     OW84372   2.745  14.553   6.016
27492SOL    HW184373   2.696  14.587   5.942
27492SOL    HW284374   2.690  14.570   6.092
27493SOL     OW84375  12.209   9.271   6.568
27493SOL    HW184376  12.126   9.227   6.586
27493SOL    HW284377  12.274   9.201   6.573
27494SOL     OW84378   3.017  11.658   6.544
27494SOL    HW184379   3.024  11.589   6.478
27494SOL    HW284380   2.933  11.640   6.587
27495SOL     OW84381  14.375  10.454   9.875
27495SOL    HW184382  14.421  10.533   9.847
27495SOL    HW284383  14.284  10.481   9.884
27496SOL     OW84384   0.526  12.280  10.186
27496SOL    HW184385   0.456  12.340  10.213
27496SOL    HW284386   0.604  12.335  10.182
27497SOL     OW84387  14.572   5.880   8.083
27497SOL    HW184388  14.640   5.849   8.143
27497SOL    HW284389  14.596   5.970   8.063
27498SOL     OW84390  11.272   9.740   6.517
27498SOL    HW184391  11.303   9.814   6.569
27498SOL    HW284392  11.209   9.695   6.572
27499SOL     OW84393   9.517   0.921  14.850
27499SOL    HW184394   9.435   0.916  14.802
27499SOL    HW284395   9.556   1.004  14.822
27500SOL     OW84396   6.035   6.570  10.144
27500SOL    HW184397   5.978   6.643  10.167
27500SOL    HW284398   6.030   6.511  10.219
27501SOL     OW84399  13.523  12.831   2.170
27501SOL    HW184400  13.550  12.922   2.159
27501SOL    HW284401  13.449  12.835   2.231
27502SOL     OW84402  10.367   8.832   7.225
27502SOL    HW184403  10.296   8.771   7.247
27502SOL    HW284404  10.355   8.905   7.285
27503SOL     OW84405   3.555   4.910  11.174
27503SOL    HW184406   3.478   4.855  11.189
27503SOL    HW284407   3.592   4.876  11.092
27504SOL     OW84408   4.275  12.639   9.306
27504SOL    HW184409   4.301  12.727   9.280
27504SOL    HW284410   4.297  12.634   9.399
27505SOL     OW84411   2.126   3.617   0.350
27505SOL    HW184412   2.210   3.571   0.345
27505SOL    HW284413   2.150   3.708   0.364
27506SOL     OW84414   9.770   3.010  12.574
27506SOL    HW184415   9.849   3.055  12.603
27506SOL    HW284416   9.781   3.000  12.480
27507SOL     OW84417   9.261  11.294  14.302
27507SOL    HW184418   9.337  11.236  14.300
27507SOL    HW284419   9.186  11.235  14.289
27508SOL     OW84420  13.189   5.573  13.104
27508SOL    HW184421  13.279   5.600  13.117
27508SOL    HW284422  13.172   5.509  13.173
27509SOL     OW84423   2.155   8.969   9.645
27509SOL    HW184424   2.099   9.043   9.621
27509SOL    HW284425   2.242   9.008   9.658
27510SOL     OW84426   6.407   1.772   7.356
27510SOL    HW184427   6.431   1.733   7.272
27510SOL    HW284428   6.377   1.860   7.333
27511SOL     OW84429   4.973  12.851   2.315
27511SOL    HW184430   4.922  12.867   2.394
27511SOL    HW284431   4.910  12.859   2.243
27512SOL     OW84432  10.563  14.778   6.650
27512SOL    HW184433  10.470  14.800   6.640
27512SOL    HW284434  10.591  14.753   6.562
27513SOL     OW84435   5.083   8.433  14.409
27513SOL    HW184436   5.082   8.529  14.404
27513SOL    HW284437   5.150   8.413  14.474
27514SOL     OW84438  10.743  10.263   7.470
27514SOL    HW184439  10.765  10.281   7.378
27514SOL    HW284440  10.716  10.171   7.470
27515SOL     OW84441   7.226   1.588   9.359
27515SOL    HW184442   7.201   1.652   9.292
27515SOL    HW284443   7.230   1.505   9.313
27516SOL     OW84444  12.155   6.574   1.261
27516SOL    HW184445  12.187   6.503   1.316
27516SOL    HW284446  12.166   6.543   1.172
27517SOL     OW84447   4.708  12.579   1.759
27517SOL    HW184448   4.750  12.665   1.755
27517SOL    HW284449   4.779  12.519   1.783
27518SOL     OW84450  12.380  13.631   0.465
27518SOL    HW184451  12.373  13.719   0.427
27518SOL    HW284452  12.419  13.645   0.551
27519SOL     OW84453   2.831   6.843   9.476
27519SOL    HW184454   2.794   6.931   9.482
27519SOL    HW284455   2.858   6.822   9.565
27520SOL     OW84456   7.822   8.605   8.296
27520SOL    HW184457   7.768   8.529   8.273
27520SOL    HW284458   7.847   8.590   8.387
27521SOL     OW84459   0.492   8.183  11.800
27521SOL    HW184460   0.456   8.134  11.726
27521SOL    HW284461   0.487   8.123  11.874
27522SOL     OW84462   2.415   5.570   7.636
27522SOL    HW184463   2.499   5.549   7.677
27522SOL    HW284464   2.362   5.491   7.648
27523SOL     OW84465  10.558   0.125   6.453
27523SOL    HW184466  10.638   0.144   6.501
27523SOL    HW284467  10.566   0.175   6.372
27524SOL     OW84468  12.344   4.708   8.768
27524SOL    HW184469  12.295   4.632   8.737
27524SOL    HW284470  12.417   4.670   8.818
27525SOL     OW84471   5.113   5.920   9.558
27525SOL    HW184472   5.206   5.919   9.581
27525SOL    HW284473   5.109   5.884   9.470
27526SOL     OW84474  11.466   3.311   8.088
27526SOL    HW184475  11.381   3.331   8.127
27526SOL    HW284476  11.529   3.335   8.156
27527SOL     OW84477  13.169   6.036   2.588
27527SOL    HW184478  13.225   6.114   2.588
27527SOL    HW284479  13.090   6.063   2.635
27528SOL     OW84480   6.729  12.074   9.571
27528SOL    HW184481   6.770  12.130   9.505
27528SOL    HW284482   6.638  12.065   9.542
27529SOL     OW84483  13.012   7.764  14.615
27529SOL    HW184484  12.936   7.719  14.652
27529SOL    HW284485  13.084   7.701  14.623
27530SOL     OW84486  14.534   1.769   3.355
27530SOL    HW184487  14.475   1.819   3.411
27530SOL    HW284488  14.621   1.802   3.377
27531SOL     OW84489  13.574   8.609  13.088
27531SOL    HW184490  13.622   8.549  13.145
27531SOL    HW284491  13.542   8.677  13.147
27532SOL     OW84492  12.130  10.474   7.211
27532SOL    HW184493  12.104  10.523   7.288
27532SOL    HW284494  12.225  10.487   7.205
27533SOL     OW84495  10.709   1.353   5.607
27533SOL    HW184496  10.637   1.388   5.554
27533SOL    HW284497  10.727   1.267   5.568
27534SOL     OW84498  14.095   7.974  13.478
27534SOL    HW184499  14.024   7.909  13.474
27534SOL    HW284500  14.094   8.004  13.569
27535SOL     OW84501  10.237  10.074  10.500
27535SOL    HW184502  10.156  10.075  10.551
27535SOL    HW284503  10.300  10.121  10.555
27536SOL     OW84504   4.571   3.821   6.694
27536SOL    HW184505   4.542   3.891   6.752
27536SOL    HW284506   4.536   3.845   6.608
27537SOL     OW84507   4.765   2.388   5.823
27537SOL    HW184508   4.781   2.442   5.745
27537SOL    HW284509   4.811   2.306   5.805
27538SOL     OW84510  11.400   7.545   7.456
27538SOL    HW184511  11.444   7.509   7.380
27538SOL    HW284512  11.442   7.503   7.531
27539SOL     OW84513   3.026  11.465   1.494
27539SOL    HW184514   3.112  11.438   1.462
27539SOL    HW284515   3.046  11.525   1.567
27540SOL     OW84516   8.875   1.456   7.338
27540SOL    HW184517   8.919   1.429   7.257
27540SOL    HW284518   8.829   1.536   7.314
27541SOL     OW84519  12.528  13.151   2.686
27541SOL    HW184520  12.521  13.227   2.743
27541SOL    HW284521  12.585  13.180   2.614
27542SOL     OW84522   6.004  12.405  12.644
27542SOL    HW184523   5.981  12.415  12.552
27542SOL    HW284524   6.069  12.474  12.660
27543SOL     OW84525   1.559   2.186   6.956
27543SOL    HW184526   1.473   2.165   6.918
27543SOL    HW284527   1.595   2.252   6.897
27544SOL     OW84528   5.325   6.693   8.020
27544SOL    HW184529   5.387   6.685   8.093
27544SOL    HW284530   5.354   6.628   7.957
27545SOL     OW84531   4.091  10.404  13.878
27545SOL    HW184532   4.178  10.438  13.856
27545SOL    HW284533   4.059  10.365  13.797
27546SOL     OW84534  10.011  14.016   3.815
27546SOL    HW184535  10.085  14.066   3.848
27546SOL    HW284536   9.964  14.076   3.758
27547SOL     OW84537  11.674   1.887   9.324
27547SOL    HW184538  11.737   1.826   9.285
27547SOL    HW284539  11.713   1.974   9.312
27548SOL     OW84540   9.111  13.815   7.490
27548SOL    HW184541   9.195  13.788   7.527
27548SOL    HW284542   9.114  13.784   7.399
27549SOL     OW84543  10.631   8.589   6.054
27549SOL    HW184544  10.583   8.559   6.132
27549SOL    HW284545  10.586   8.670   6.028
27550SOL     OW84546   5.780   0.953  13.805
27550SOL    HW184547   5.780   0.859  13.824
27550SOL    HW284548   5.700   0.967  13.754
27551SOL     OW84549  14.845  14.672   0.009
27551SOL    HW184550  14.826  14.766   0.014
27551SOL    HW284551  14.840  14.652  14.796
27552SOL     OW84552   8.397  14.325  11.702
27552SOL    HW184553   8.474  14.305  11.648
27552SOL    HW284554   8.403  14.264  11.775
27553SOL     OW84555   2.784   3.466  14.401
27553SOL    HW184556   2.835   3.510  14.333
27553SOL    HW284557   2.849   3.426  14.458
27554SOL     OW84558   5.075  13.157   8.799
27554SOL    HW184559   5.012  13.127   8.864
27554SOL    HW284560   5.158  13.163   8.847
27555SOL     OW84561   4.588  11.028   5.443
27555SOL    HW184562   4.604  11.100   5.503
27555SOL    HW284563   4.516  10.979   5.483
27556SOL     OW84564   6.984  11.998   1.885
27556SOL    HW184565   6.905  11.968   1.840
27556SOL    HW284566   6.997  11.935   1.956
27557SOL     OW84567   6.715  11.238   8.804
27557SOL    HW184568   6.697  11.151   8.840
27557SOL    HW284569   6.758  11.221   8.720
27558SOL     OW84570   4.895  11.617  14.285
27558SOL    HW184571   4.908  11.667  14.365
27558SOL    HW284572   4.979  11.574  14.270
27559SOL     OW84573  11.602   4.942   9.904
27559SOL    HW184574  11.650   4.941   9.822
27559SOL    HW284575  11.666   4.915   9.970
27560SOL     OW84576   7.159   9.986  13.790
27560SOL    HW184577   7.079   9.986  13.737
27560SOL    HW284578   7.191   9.896  13.785
27561SOL     OW84579   7.837  11.901   8.911
27561SOL    HW184580   7.874  11.813   8.914
27561SOL    HW284581   7.747  11.891   8.941
27562SOL     OW84582   8.392   1.846  10.460
27562SOL    HW184583   8.342   1.770  10.491
27562SOL    HW284584   8.484   1.819  10.469
27563SOL     OW84585   4.010   3.531   6.631
27563SOL    HW184586   3.942   3.494   6.575
27563SOL    HW284587   3.961   3.583   6.696
27564SOL     OW84588  13.567   1.967   7.388
27564SOL    HW184589  13.554   1.876   7.414
27564SOL    HW284590  13.661   1.982   7.398
27565SOL     OW84591   5.176  10.913   4.766
27565SOL    HW184592   5.152  10.946   4.680
27565SOL    HW284593   5.219  10.829   4.748
27566SOL     OW84594  10.680   6.860  14.740
27566SOL    HW184595  10.623   6.794  14.701
27566SOL    HW284596  10.755   6.864  14.682
27567SOL     OW84597  12.035  12.043  12.684
27567SOL    HW184598  12.001  11.958  12.653
27567SOL    HW284599  11.971  12.073  12.748
27568SOL     OW84600  11.348  12.995  10.639
27568SOL    HW184601  11.271  13.032  10.683
27568SOL    HW284602  11.369  13.058  10.570
27569SOL     OW84603   5.143   2.462   2.986
27569SOL    HW184604   5.166   2.371   2.968
27569SOL    HW284605   5.219   2.512   2.957
27570SOL     OW84606  14.528   5.001  12.909
27570SOL    HW184607  14.567   4.939  12.848
27570SOL    HW284608  14.577   4.990  12.990
27571SOL     OW84609  10.066  12.235   7.025
27571SOL    HW184610  10.075  12.314   7.078
27571SOL    HW284611  10.138  12.179   7.052
27572SOL     OW84612   9.020   0.339   0.811
27572SOL    HW184613   9.043   0.430   0.793
27572SOL    HW284614   9.101   0.299   0.843
27573SOL     OW84615   3.437   3.485  11.797
27573SOL    HW184616   3.452   3.407  11.850
27573SOL    HW284617   3.500   3.479  11.725
27574SOL     OW84618   0.079  11.900  13.725
27574SOL    HW184619   0.053  11.963  13.658
27574SOL    HW284620   0.146  11.846  13.682
27575SOL     OW84621   3.578   1.187   5.219
27575SOL    HW184622   3.490   1.153   5.230
27575SOL    HW284623   3.634   1.125   5.265
27576SOL     OW84624   4.688  14.487  11.530
27576SOL    HW184625   4.623  14.428  11.492
27576SOL    HW284626   4.763  14.481  11.471
27577SOL     OW84627   5.849   7.518   4.304
27577SOL    HW184628   5.888   7.596   4.264
27577SOL    HW284629   5.887   7.445   4.255
27578SOL     OW84630   3.246  12.073   4.478
27578SOL    HW184631   3.228  11.991   4.524
27578SOL    HW284632   3.318  12.052   4.418
27579SOL     OW84633  10.472  12.476   4.675
27579SOL    HW184634  10.551  12.515   4.711
27579SOL    HW284635  10.418  12.456   4.751
27580SOL     OW84636   5.904  11.199   7.215
27580SOL    HW184637   5.914  11.277   7.271
27580SOL    HW284638   5.817  11.209   7.175
27581SOL     OW84639   1.752   6.178  14.128
27581SOL    HW184640   1.826   6.136  14.171
27581SOL    HW284641   1.777   6.183  14.035
27582SOL     OW84642   0.970   3.093  12.995
27582SOL    HW184643   0.957   3.083  12.900
27582SOL    HW284644   0.927   3.016  13.033
27583SOL     OW84645   4.071  12.590  11.204
27583SOL    HW184646   4.122  12.543  11.138
27583SOL    HW284647   3.995  12.534  11.220
27584SOL     OW84648   7.977   5.486  12.700
27584SOL    HW184649   8.030   5.563  12.684
27584SOL    HW284650   7.901   5.518  12.749
27585SOL     OW84651   9.977  13.027   4.328
27585SOL    HW184652   9.977  12.955   4.264
27585SOL    HW284653  10.054  13.079   4.305
27586SOL     OW84654   3.880  12.673  12.340
27586SOL    HW184655   3.797  12.714  12.362
27586SOL    HW284656   3.861  12.579  12.339
27587SOL     OW84657  13.837   9.342   0.141
27587SOL    HW184658  13.851   9.249   0.126
27587SOL    HW284659  13.834   9.351   0.236
27588SOL     OW84660   2.142   9.068   9.915
27588SOL    HW184661   2.074   9.069   9.982
27588SOL    HW284662   2.101   9.026   9.840
27589SOL     OW84663   9.684   4.888  13.745
27589SOL    HW184664   9.621   4.815  13.751
27589SOL    HW284665   9.731   4.885  13.828
27590SOL     OW84666   2.255   5.277  10.055
27590SOL    HW184667   2.258   5.362  10.012
27590SOL    HW284668   2.346   5.248  10.056
27591SOL     OW84669   1.784   4.996  14.111
27591SOL    HW184670   1.836   5.062  14.066
27591SOL    HW284671   1.797   5.015  14.204
27592SOL     OW84672   5.845   1.796   1.494
27592SOL    HW184673   5.888   1.748   1.565
27592SOL    HW284674   5.911   1.859   1.464
27593SOL     OW84675   8.503   3.379  11.394
27593SOL    HW184676   8.556   3.313  11.439
27593SOL    HW284677   8.452   3.329  11.330
27594SOL     OW84678   0.031   4.389   1.220
27594SOL    HW184679   0.111   4.337   1.222
27594SOL    HW284680  14.867   4.369   1.303
27595SOL     OW84681   3.950   3.132   8.976
27595SOL    HW184682   3.913   3.158   8.892
27595SOL    HW284683   3.909   3.048   8.996
27596SOL     OW84684   1.776   0.610   2.744
27596SOL    HW184685   1.747   0.584   2.656
27596SOL    HW284686   1.800   0.702   2.734
27597SOL     OW84687  14.522   8.261   5.087
27597SOL    HW184688  14.615   8.283   5.081
27597SOL    HW284689  14.499   8.281   5.178
27598SOL     OW84690   9.428   4.001   9.824
27598SOL    HW184691   9.521   3.976   9.821
27598SOL    HW284692   9.382   3.924   9.792
27599SOL     OW84693   8.454   7.684   2.742
27599SOL    HW184694   8.435   7.733   2.662
27599SOL    HW284695   8.532   7.633   2.721
27600SOL     OW84696  13.998   2.096  13.398
27600SOL    HW184697  13.958   2.182  13.385
27600SOL    HW284698  14.092   2.111  13.384
27601SOL     OW84699  10.525   5.120  13.836
27601SOL    HW184700  10.439   5.107  13.877
27601SOL    HW284701  10.576   5.168  13.901
27602SOL     OW84702   2.471   2.401   0.746
27602SOL    HW184703   2.481   2.402   0.651
27602SOL    HW284704   2.393   2.455   0.762
27603SOL     OW84705   3.442  11.247   5.717
27603SOL    HW184706   3.459  11.292   5.800
27603SOL    HW284707   3.428  11.317   5.654
27604SOL     OW84708   5.104  13.976   5.809
27604SOL    HW184709   5.065  14.063   5.807
27604SOL    HW284710   5.140  13.963   5.722
27605SOL     OW84711   5.484   8.141  12.898
27605SOL    HW184712   5.460   8.187  12.818
27605SOL    HW284713   5.401   8.125  12.942
27606SOL     OW84714  11.037   0.627   1.523
27606SOL    HW184715  11.115   0.681   1.516
27606SOL    HW284716  11.019   0.622   1.617
27607SOL     OW84717   1.710   3.801   2.985
27607SOL    HW184718   1.689   3.853   2.908
27607SOL    HW284719   1.644   3.731   2.986
27608SOL     OW84720  12.529   3.724   3.379
27608SOL    HW184721  12.544   3.817   3.359
27608SOL    HW284722  12.434   3.717   3.386
27609SOL     OW84723   5.287   6.490  11.519
27609SOL    HW184724   5.298   6.396  11.504
27609SOL    HW284725   5.243   6.521  11.440
27610SOL     OW84726  12.158   5.677   5.394
27610SOL    HW184727  12.172   5.682   5.300
27610SOL    HW284728  12.065   5.698   5.405
27611SOL     OW84729   8.091   7.312   4.146
27611SOL    HW184730   8.125   7.385   4.094
27611SOL    HW284731   8.136   7.320   4.230
27612SOL     OW84732   3.763  11.436  14.836
27612SOL    HW184733   3.796  11.492   0.027
27612SOL    HW284734   3.669  11.452  14.835
27613SOL     OW84735   0.678  13.715  13.839
27613SOL    HW184736   0.627  13.796  13.847
27613SOL    HW284737   0.667  13.671  13.923
27614SOL     OW84738   4.212   1.037   6.472
27614SOL    HW184739   4.206   0.996   6.558
27614SOL    HW284740   4.132   1.088   6.464
27615SOL     OW84741   8.389   5.006   1.570
27615SOL    HW184742   8.360   5.085   1.525
27615SOL    HW284743   8.485   5.012   1.569
27616SOL     OW84744   0.548  11.554   2.059
27616SOL    HW184745   0.569  11.519   2.146
27616SOL    HW284746   0.527  11.478   2.006
27617SOL     OW84747   4.792   8.966   3.240
27617SOL    HW184748   4.701   8.940   3.254
27617SOL    HW284749   4.815   8.929   3.154
27618SOL     OW84750   9.013  12.459   1.093
27618SOL    HW184751   9.052  12.532   1.046
27618SOL    HW284752   9.072  12.385   1.076
27619SOL     OW84753  12.990   6.298   0.369
27619SOL    HW184754  13.004   6.207   0.345
27619SOL    HW284755  12.997   6.299   0.464
27620SOL     OW84756   6.234   2.541   3.841
27620SOL    HW184757   6.154   2.552   3.789
27620SOL    HW284758   6.205   2.492   3.919
27621SOL     OW84759   5.750  12.174  11.187
27621SOL    HW184760   5.766  12.267  11.205
27621SOL    HW284761   5.799  12.156  11.107
27622SOL     OW84762   4.403   7.856   6.306
27622SOL    HW184763   4.337   7.924   6.293
27622SOL    HW284764   4.378   7.814   6.389
27623SOL     OW84765   2.958   2.355  11.352
27623SOL    HW184766   2.873   2.314  11.370
27623SOL    HW284767   2.937   2.434  11.302
27624SOL     OW84768   6.709   5.678   1.104
27624SOL    HW184769   6.743   5.764   1.129
27624SOL    HW284770   6.620   5.696   1.073
27625SOL     OW84771   1.733  13.027  12.863
27625SOL    HW184772   1.826  13.003  12.863
27625SOL    HW284773   1.709  13.027  12.956
27626SOL     OW84774  13.324  13.982  13.525
27626SOL    HW184775  13.372  14.057  13.559
27626SOL    HW284776  13.365  13.906  13.566
27627SOL     OW84777   4.154   2.559  10.794
27627SOL    HW184778   4.210   2.539  10.869
27627SOL    HW284779   4.199   2.631  10.750
27628SOL     OW84780  11.165  12.095   1.815
27628SOL    HW184781  11.172  12.002   1.839
27628SOL    HW284782  11.119  12.135   1.889
27629SOL     OW84783  12.721   4.786   2.334
27629SOL    HW184784  12.793   4.849   2.335
27629SOL    HW284785  12.750   4.718   2.273
27630SOL     OW84786   9.103   1.285  12.894
27630SOL    HW184787   9.146   1.370  12.880
27630SOL    HW284788   9.016   1.308  12.928
27631SOL     OW84789   5.005   2.329  12.996
27631SOL    HW184790   5.045   2.345  12.911
27631SOL    HW284791   4.911   2.339  12.981
27632SOL     OW84792   8.378   4.635  11.096
27632SOL    HW184793   8.285   4.619  11.082
27632SOL    HW284794   8.386   4.731  11.099
27633SOL     OW84795   6.378  10.975  12.481
27633SOL    HW184796   6.289  11.006  12.462
27633SOL    HW284797   6.372  10.880  12.475
27634SOL     OW84798   3.324   7.361  12.150
27634SOL    HW184799   3.287   7.431  12.205
27634SOL    HW284800   3.418   7.370  12.161
27635SOL     OW84801  11.938   0.112   7.044
27635SOL    HW184802  12.026   0.126   7.010
27635SOL    HW284803  11.939   0.021   7.075
27636SOL     OW84804   0.062  14.213  13.474
27636SOL    HW184805  14.867  14.200  13.414
27636SOL    HW284806   0.022  14.235  13.558
27637SOL     OW84807  13.690   9.689  13.790
27637SOL    HW184808  13.642   9.641  13.858
27637SOL    HW284809  13.780   9.692  13.823
27638SOL     OW84810  11.669   9.531   1.822
27638SOL    HW184811  11.690   9.544   1.915
27638SOL    HW284812  11.751   9.498   1.784
27639SOL     OW84813  14.058   8.752   6.399
27639SOL    HW184814  14.074   8.843   6.373
27639SOL    HW284815  13.971   8.754   6.440
27640SOL     OW84816  11.324   0.240  10.826
27640SOL    HW184817  11.313   0.191  10.907
27640SOL    HW284818  11.403   0.292  10.840
27641SOL     OW84819  14.269   0.489   6.802
27641SOL    HW184820  14.285   0.583   6.813
27641SOL    HW284821  14.355   0.452   6.783
27642SOL     OW84822  11.645   6.646   4.321
27642SOL    HW184823  11.701   6.589   4.375
27642SOL    HW284824  11.683   6.640   4.233
27643SOL     OW84825   2.638   9.334  12.798
27643SOL    HW184826   2.634   9.242  12.823
27643SOL    HW284827   2.720   9.366  12.835
27644SOL     OW84828   1.594  12.621   5.246
27644SOL    HW184829   1.681  12.589   5.270
27644SOL    HW284830   1.587  12.604   5.152
27645SOL     OW84831   7.820  10.111   8.950
27645SOL    HW184832   7.810  10.126   8.856
27645SOL    HW284833   7.915  10.106   8.963
27646SOL     OW84834   9.070  13.258   1.808
27646SOL    HW184835   9.023  13.341   1.800
27646SOL    HW284836   9.138  13.262   1.741
27647SOL     OW84837   0.625   5.451   8.990
27647SOL    HW184838   0.637   5.403   9.072
27647SOL    HW284839   0.605   5.383   8.925
27648SOL     OW84840  11.792   7.922   3.710
27648SOL    HW184841  11.812   7.938   3.617
27648SOL    HW284842  11.841   7.842   3.731
27649SOL     OW84843   4.725   4.404   4.465
27649SOL    HW184844   4.703   4.436   4.378
27649SOL    HW284845   4.726   4.309   4.457
27650SOL     OW84846  13.059  12.387   4.458
27650SOL    HW184847  13.010  12.433   4.527
27650SOL    HW284848  13.008  12.400   4.379
27651SOL     OW84849   6.798   4.302  11.933
27651SOL    HW184850   6.800   4.209  11.910
27651SOL    HW284851   6.881   4.337  11.900
27652SOL     OW84852   0.317   6.182   6.791
27652SOL    HW184853   0.408   6.199   6.769
27652SOL    HW284854   0.315   6.174   6.886
27653SOL     OW84855   6.291  10.429   2.513
27653SOL    HW184856   6.378  10.439   2.475
27653SOL    HW284857   6.293  10.343   2.555
27654SOL     OW84858  13.687   5.679   2.733
27654SOL    HW184859  13.757   5.622   2.703
27654SOL    HW284860  13.714   5.767   2.707
27655SOL     OW84861   1.558  13.449  11.616
27655SOL    HW184862   1.582  13.539  11.636
27655SOL    HW284863   1.607  13.428  11.537
27656SOL     OW84864   0.158  13.406   9.520
27656SOL    HW184865   0.180  13.342   9.587
27656SOL    HW284866   0.159  13.357   9.438
27657SOL     OW84867   8.994   9.660   2.410
27657SOL    HW184868   9.049   9.588   2.379
27657SOL    HW284869   8.997   9.653   2.506
27658SOL     OW84870  13.326  10.315  12.048
27658SOL    HW184871  13.400  10.264  12.080
27658SOL    HW284872  13.259  10.250  12.029
27659SOL     OW84873   2.150   2.190  14.218
27659SOL    HW184874   2.071   2.230  14.183
27659SOL    HW284875   2.125   2.099  14.237
27660SOL     OW84876  13.253  10.988  13.190
27660SOL    HW184877  13.197  11.059  13.222
27660SOL    HW284878  13.235  10.983  13.096
27661SOL     OW84879   5.815   7.586  14.065
27661SOL    HW184880   5.807   7.556  14.155
27661SOL    HW284881   5.780   7.514  14.012
27662SOL     OW84882   7.924   4.772   5.355
27662SOL    HW184883   8.012   4.809   5.362
27662SOL    HW284884   7.888   4.811   5.275
27663SOL     OW84885  10.435  11.080   4.900
27663SOL    HW184886  10.381  11.145   4.944
27663SOL    HW284887  10.513  11.128   4.872
27664SOL     OW84888  13.384   0.450   6.047
27664SOL    HW184889  13.304   0.485   6.089
27664SOL    HW284890  13.368   0.461   5.954
27665SOL     OW84891   2.467  10.179   2.633
27665SOL    HW184892   2.419  10.099   2.612
27665SOL    HW284893   2.487  10.172   2.726
27666SOL     OW84894  11.994   1.897  14.120
27666SOL    HW184895  12.042   1.979  14.132
27666SOL    HW284896  12.020   1.868  14.032
27667SOL     OW84897   6.223  12.803   4.459
27667SOL    HW184898   6.135  12.805   4.497
27667SOL    HW284899   6.220  12.868   4.389
27668SOL     OW84900   5.124   4.310   2.617
27668SOL    HW184901   5.127   4.377   2.685
27668SOL    HW284902   5.039   4.323   2.574
27669SOL     OW84903   8.621  13.152   0.415
27669SOL    HW184904   8.717  13.160   0.419
27669SOL    HW284905   8.591  13.183   0.500
27670SOL     OW84906   2.647   5.587   3.611
27670SOL    HW184907   2.615   5.584   3.701
27670SOL    HW284908   2.583   5.536   3.561
27671SOL     OW84909   1.880  12.022   7.128
27671SOL    HW184910   1.894  11.961   7.056
27671SOL    HW284911   1.817  11.979   7.185
27672SOL     OW84912   0.645   2.290   6.166
27672SOL    HW184913   0.562   2.333   6.190
27672SOL    HW284914   0.635   2.200   6.195
27673SOL     OW84915  12.160   3.025  10.484
27673SOL    HW184916  12.080   3.067  10.517
27673SOL    HW284917  12.131   2.941  10.448
27674SOL     OW84918  13.849   2.486   9.067
27674SOL    HW184919  13.822   2.397   9.046
27674SOL    HW284920  13.783   2.517   9.129
27675SOL     OW84921   9.002  13.549   3.243
27675SOL    HW184922   9.057  13.472   3.256
27675SOL    HW284923   9.032  13.588   3.161
27676SOL     OW84924   9.425   5.967   0.956
27676SOL    HW184925   9.479   6.019   1.016
27676SOL    HW284926   9.436   6.010   0.871
27677SOL     OW84927   9.314   0.366   3.768
27677SOL    HW184928   9.275   0.422   3.836
27677SOL    HW284929   9.307   0.418   3.688
27678SOL     OW84930   7.700  13.407   5.437
27678SOL    HW184931   7.738  13.329   5.478
27678SOL    HW284932   7.607  13.402   5.460
27679SOL     OW84933  11.057   1.033   0.422
27679SOL    HW184934  11.084   1.023   0.513
27679SOL    HW284935  11.116   1.099   0.387
27680SOL     OW84936   5.183   7.519  11.475
27680SOL    HW184937   5.229   7.594  11.436
27680SOL    HW284938   5.181   7.454  11.404
27681SOL     OW84939   3.254   6.094   6.222
27681SOL    HW184940   3.216   6.170   6.265
27681SOL    HW284941   3.231   6.105   6.130
27682SOL     OW84942  14.501  11.637  12.486
27682SOL    HW184943  14.452  11.620  12.406
27682SOL    HW284944  14.586  11.671  12.456
27683SOL     OW84945   6.237   3.711   2.864
27683SOL    HW184946   6.208   3.799   2.838
27683SOL    HW284947   6.196   3.653   2.801
27684SOL     OW84948   7.352   8.440   9.832
27684SOL    HW184949   7.298   8.361   9.839
27684SOL    HW284950   7.289   8.510   9.813
27685SOL     OW84951   6.131  12.605   0.115
27685SOL    HW184952   6.214  12.561   0.096
27685SOL    HW284953   6.067  12.561   0.059
27686SOL     OW84954   6.419   5.018  12.620
27686SOL    HW184955   6.412   5.095  12.677
27686SOL    HW284956   6.503   5.029  12.576
27687SOL     OW84957   3.388  13.134  12.630
27687SOL    HW184958   3.409  13.089  12.548
27687SOL    HW284959   3.393  13.227  12.608
27688SOL     OW84960  10.763   7.101   8.590
27688SOL    HW184961  10.778   7.135   8.502
27688SOL    HW284962  10.755   7.179   8.645
27689SOL     OW84963   7.514   4.372   5.446
27689SOL    HW184964   7.437   4.321   5.472
27689SOL    HW284965   7.479   4.459   5.427
27690SOL     OW84966   5.726  11.438   0.770
27690SOL    HW184967   5.802  11.467   0.820
27690SOL    HW284968   5.652  11.448   0.830
27691SOL     OW84969  12.146   5.503   1.245
27691SOL    HW184970  12.129   5.416   1.208
27691SOL    HW284971  12.058   5.539   1.259
27692SOL     OW84972   7.448  13.933   6.528
27692SOL    HW184973   7.423  14.004   6.470
27692SOL    HW284974   7.390  13.861   6.504
27693SOL     OW84975   9.386   8.219   4.201
27693SOL    HW184976   9.451   8.163   4.158
27693SOL    HW284977   9.398   8.305   4.162
27694SOL     OW84978   1.486  11.250   6.171
27694SOL    HW184979   1.429  11.241   6.095
27694SOL    HW284980   1.435  11.215   6.244
27695SOL     OW84981   6.142  12.424   5.479
27695SOL    HW184982   6.066  12.481   5.485
27695SOL    HW284983   6.192  12.443   5.559
27696SOL     OW84984   8.084  12.970   0.273
27696SOL    HW184985   7.990  12.982   0.287
27696SOL    HW284986   8.125  13.045   0.315
27697SOL     OW84987   9.821   2.856  13.119
27697SOL    HW184988   9.851   2.946  13.108
27697SOL    HW284989   9.842   2.814  13.036
27698SOL     OW84990   3.743   1.536   1.651
27698SOL    HW184991   3.812   1.485   1.693
27698SOL    HW284992   3.693   1.471   1.600
27699SOL     OW84993   3.258  11.120  10.297
27699SOL    HW184994   3.304  11.176  10.359
27699SOL    HW284995   3.165  11.134  10.317
27700SOL     OW84996  13.727  14.872   3.459
27700SOL    HW184997  13.644  14.852   3.416
27700SOL    HW284998  13.784  14.798   3.438
27701SOL     OW84999   6.429   4.088   5.959
27701SOL    HW185000   6.510   4.104   5.912
27701SOL    HW285001   6.378   4.032   5.902
27702SOL     OW85002   5.025   8.599   7.766
27702SOL    HW185003   4.933   8.620   7.780
27702SOL    HW285004   5.072   8.655   7.828
27703SOL     OW85005   2.283  11.084  11.796
27703SOL    HW185006   2.292  11.177  11.775
27703SOL    HW285007   2.349  11.068  11.863
27704SOL     OW85008   7.759   9.300  10.805
27704SOL    HW185009   7.838   9.297  10.859
27704SOL    HW285010   7.772   9.374  10.747
27705SOL     OW85011   0.969  10.044   4.980
27705SOL    HW185012   1.005  10.040   4.891
27705SOL    HW285013   1.019   9.978   5.029
27706SOL     OW85014   9.238  13.873   9.838
27706SOL    HW185015   9.294  13.844   9.910
27706SOL    HW285016   9.164  13.811   9.839
27707SOL     OW85017  11.840   5.155   9.407
27707SOL    HW185018  11.867   5.154   9.499
27707SOL    HW285019  11.766   5.094   9.403
27708SOL     OW85020   1.380  12.724  10.798
27708SOL    HW185021   1.397  12.631  10.782
27708SOL    HW285022   1.286  12.729  10.816
27709SOL     OW85023   6.430  14.494  11.454
27709SOL    HW185024   6.432  14.542  11.372
27709SOL    HW285025   6.356  14.434  11.446
27710SOL     OW85026   3.234   9.780  10.759
27710SOL    HW185027   3.263   9.861  10.800
27710SOL    HW285028   3.266   9.784  10.669
27711SOL     OW85029   7.473   6.389   9.093
27711SOL    HW185030   7.432   6.455   9.148
27711SOL    HW285031   7.405   6.367   9.028
27712SOL     OW85032   8.312   8.794   6.229
27712SOL    HW185033   8.229   8.820   6.190
27712SOL    HW285034   8.371   8.781   6.154
27713SOL     OW85035  12.775   0.666  11.564
27713SOL    HW185036  12.800   0.690  11.475
27713SOL    HW285037  12.726   0.741  11.597
27714SOL     OW85038  12.273   4.140   6.832
27714SOL    HW185039  12.203   4.203   6.847
27714SOL    HW285040  12.302   4.157   6.742
27715SOL     OW85041   7.425   5.958  11.591
27715SOL    HW185042   7.461   5.959  11.502
27715SOL    HW285043   7.432   5.866  11.618
27716SOL     OW85044   1.630   2.107  10.107
27716SOL    HW185045   1.663   2.137  10.022
27716SOL    HW285046   1.540   2.140  10.110
27717SOL     OW85047   1.419  10.592   8.120
27717SOL    HW185048   1.402  10.543   8.039
27717SOL    HW285049   1.377  10.677   8.106
27718SOL     OW85050   3.688   8.532   5.271
27718SOL    HW185051   3.607   8.582   5.256
27718SOL    HW285052   3.750   8.595   5.307
27719SOL     OW85053   4.078   3.687   2.357
27719SOL    HW185054   4.107   3.634   2.283
27719SOL    HW285055   4.154   3.688   2.416
27720SOL     OW85056   1.273   4.886  13.457
27720SOL    HW185057   1.270   4.891  13.362
27720SOL    HW285058   1.212   4.953  13.487
27721SOL     OW85059  13.807   2.125  11.632
27721SOL    HW185060  13.737   2.105  11.570
27721SOL    HW285061  13.779   2.084  11.713
27722SOL     OW85062   0.172  13.772   1.675
27722SOL    HW185063   0.135  13.688   1.699
27722SOL    HW285064   0.145  13.785   1.584
27723SOL     OW85065  13.231   0.449  10.522
27723SOL    HW185066  13.160   0.393  10.552
27723SOL    HW285067  13.296   0.388  10.487
27724SOL     OW85068   2.949   1.033   4.040
27724SOL    HW185069   2.893   0.972   3.992
27724SOL    HW285070   2.984   0.981   4.113
27725SOL     OW85071   5.671  13.775   4.650
27725SOL    HW185072   5.764  13.784   4.672
27725SOL    HW285073   5.651  13.853   4.599
27726SOL     OW85074  12.005   1.354   9.335
27726SOL    HW185075  12.025   1.285   9.272
27726SOL    HW285076  11.952   1.416   9.286
27727SOL     OW85077   0.992   6.522  10.502
27727SOL    HW185078   0.941   6.558  10.428
27727SOL    HW285079   0.997   6.594  10.565
27728SOL     OW85080   1.564  10.035   2.117
27728SOL    HW185081   1.560   9.940   2.102
27728SOL    HW285082   1.529  10.073   2.036
27729SOL     OW85083   9.515  13.668   4.322
27729SOL    HW185084   9.436  13.674   4.268
27729SOL    HW285085   9.490  13.710   4.405
27730SOL     OW85086   3.934   0.733  14.587
27730SOL    HW185087   3.960   0.646  14.618
27730SOL    HW285088   4.014   0.769  14.549
27731SOL     OW85089   1.117  12.820   5.954
27731SOL    HW185090   1.189  12.868   5.996
27731SOL    HW285091   1.153  12.733   5.937
27732SOL     OW85092   5.125   1.202   8.482
27732SOL    HW185093   5.031   1.199   8.500
27732SOL    HW285094   5.166   1.171   8.562
27733SOL     OW85095  14.293   5.566   8.840
27733SOL    HW185096  14.355   5.567   8.913
27733SOL    HW285097  14.332   5.506   8.776
27734SOL     OW85098  12.108   1.301  14.138
27734SOL    HW185099  12.115   1.236  14.068
27734SOL    HW285100  12.097   1.250  14.218
27735SOL     OW85101   6.172   7.907   0.158
27735SOL    HW185102   6.181   7.815   0.134
27735SOL    HW285103   6.244   7.924   0.218
27736SOL     OW85104   9.719  11.313  12.030
27736SOL    HW185105   9.702  11.356  11.946
27736SOL    HW285106   9.798  11.261  12.014
27737SOL     OW85107   3.971   4.169   4.195
27737SOL    HW185108   3.951   4.076   4.210
27737SOL    HW285109   4.032   4.169   4.121
27738SOL     OW85110   7.821   8.704   5.273
27738SOL    HW185111   7.867   8.678   5.352
27738SOL    HW285112   7.875   8.670   5.201
27739SOL     OW85113  12.016  12.180   4.424
27739SOL    HW185114  11.969  12.174   4.508
27739SOL    HW285115  12.004  12.094   4.384
27740SOL     OW85116   4.862   3.741   6.883
27740SOL    HW185117   4.815   3.824   6.870
27740SOL    HW285118   4.954   3.767   6.892
27741SOL     OW85119  10.653   6.371   1.980
27741SOL    HW185120  10.731   6.419   1.952
27741SOL    HW285121  10.655   6.290   1.929
27742SOL     OW85122   2.703   4.185   2.460
27742SOL    HW185123   2.631   4.248   2.465
27742SOL    HW285124   2.672   4.110   2.511
27743SOL     OW85125   7.554  12.024   1.583
27743SOL    HW185126   7.495  12.033   1.508
27743SOL    HW285127   7.605  11.945   1.564
27744SOL     OW85128   1.967  10.277  10.545
27744SOL    HW185129   2.028  10.268  10.472
27744SOL    HW285130   1.980  10.197  10.597
27745SOL     OW85131   5.150   6.455  11.861
27745SOL    HW185132   5.082   6.447  11.794
27745SOL    HW285133   5.187   6.367  11.868
27746SOL     OW85134   5.707  13.161  10.015
27746SOL    HW185135   5.653  13.220  10.068
27746SOL    HW285136   5.788  13.152  10.065
27747SOL     OW85137   7.787  13.206  13.795
27747SOL    HW185138   7.728  13.271  13.757
27747SOL    HW285139   7.867  13.254  13.815
27748SOL     OW85140  12.631   6.586   3.459
27748SOL    HW185141  12.586   6.546   3.384
27748SOL    HW285142  12.588   6.671   3.469
27749SOL     OW85143  13.072   9.203  11.533
27749SOL    HW185144  13.013   9.207  11.458
27749SOL    HW285145  13.139   9.269  11.515
27750SOL     OW85146  13.135   3.636  10.323
27750SOL    HW185147  13.207   3.573  10.321
27750SOL    HW285148  13.109   3.641  10.415
27751SOL     OW85149   6.482   9.337   7.859
27751SOL    HW185150   6.502   9.272   7.925
27751SOL    HW285151   6.476   9.288   7.777
27752SOL     OW85152   7.881   0.659   6.624
27752SOL    HW185153   7.917   0.650   6.713
27752SOL    HW285154   7.954   0.693   6.572
27753SOL     OW85155   6.267   1.529   5.287
27753SOL    HW185156   6.322   1.603   5.261
27753SOL    HW285157   6.309   1.493   5.365
27754SOL     OW85158   8.100   9.144  12.505
27754SOL    HW185159   8.127   9.231  12.475
27754SOL    HW285160   8.007   9.140  12.486
27755SOL     OW85161  12.830   3.118   6.701
27755SOL    HW185162  12.897   3.059   6.735
27755SOL    HW285163  12.865   3.206   6.718
27756SOL     OW85164   0.999   0.053   4.807
27756SOL    HW185165   1.013   0.006   4.890
27756SOL    HW285166   0.960  14.867   4.749
27757SOL     OW85167   3.063  12.230  10.522
27757SOL    HW185168   3.000  12.301  10.534
27757SOL    HW285169   3.143  12.261  10.566
27758SOL     OW85170   8.857   6.466   2.498
27758SOL    HW185171   8.782   6.526   2.502
27758SOL    HW285172   8.824   6.390   2.449
27759SOL     OW85173   1.608  13.555   4.494
27759SOL    HW185174   1.680  13.546   4.556
27759SOL    HW285175   1.636  13.623   4.433
27760SOL     OW85176  13.978  13.854   5.628
27760SOL    HW185177  14.031  13.827   5.702
27760SOL    HW285178  14.030  13.830   5.551
27761SOL     OW85179   1.996  11.398  12.133
27761SOL    HW185180   1.921  11.368  12.081
27761SOL    HW285181   2.027  11.476  12.087
27762SOL     OW85182   0.789  12.632   0.154
27762SOL    HW185183   0.753  12.660   0.239
27762SOL    HW285184   0.749  12.692   0.091
27763SOL     OW85185   9.755   4.913   6.433
27763SOL    HW185186   9.828   4.937   6.376
27763SOL    HW285187   9.685   4.973   6.408
27764SOL     OW85188   4.586   0.979   4.583
27764SOL    HW185189   4.500   1.005   4.551
27764SOL    HW285190   4.579   0.886   4.602
27765SOL     OW85191  14.444   9.808   0.981
27765SOL    HW185192  14.351   9.787   0.990
27765SOL    HW285193  14.462   9.872   1.050
27766SOL     OW85194   9.594   3.299   3.132
27766SOL    HW185195   9.642   3.240   3.189
27766SOL    HW285196   9.510   3.255   3.117
27767SOL     OW85197   3.587   1.216  12.425
27767SOL    HW185198   3.496   1.244  12.413
27767SOL    HW285199   3.581   1.138  12.480
27768SOL     OW85200  10.973   7.489  10.057
27768SOL    HW185201  10.884   7.453  10.061
27768SOL    HW285202  10.967   7.564   9.999
27769SOL     OW85203   9.961   9.914  13.393
27769SOL    HW185204   9.926   9.985  13.448
27769SOL    HW285205   9.920   9.835  13.428
27770SOL     OW85206   5.572  14.368   7.665
27770SOL    HW185207   5.646  14.390   7.721
27770SOL    HW285208   5.581  14.274   7.650
27771SOL     OW85209   3.903   8.461   7.334
27771SOL    HW185210   3.945   8.530   7.384
27771SOL    HW285211   3.821   8.444   7.380
27772SOL     OW85212  11.210  14.193   0.533
27772SOL    HW185213  11.119  14.164   0.521
27772SOL    HW285214  11.230  14.173   0.624
27773SOL     OW85215  10.126   2.449   9.250
27773SOL    HW185216  10.085   2.372   9.290
27773SOL    HW285217  10.188   2.481   9.316
27774SOL     OW85218  11.379   7.136   6.634
27774SOL    HW185219  11.346   7.059   6.680
27774SOL    HW285220  11.322   7.144   6.557
27775SOL     OW85221   2.449   8.769   3.085
27775SOL    HW185222   2.500   8.689   3.094
27775SOL    HW285223   2.429   8.795   3.175
27776SOL     OW85224   7.908   7.562   0.262
27776SOL    HW185225   7.820   7.579   0.296
27776SOL    HW285226   7.966   7.613   0.318
27777SOL     OW85227   6.888   1.215  10.266
27777SOL    HW185228   6.966   1.202  10.320
27777SOL    HW285229   6.819   1.234  10.329
27778SOL     OW85230   4.325   5.558  13.675
27778SOL    HW185231   4.379   5.521  13.745
27778SOL    HW285232   4.310   5.484  13.615
27779SOL     OW85233  13.598  11.010   7.913
27779SOL    HW185234  13.589  11.039   8.004
27779SOL    HW285235  13.513  10.972   7.890
27780SOL     OW85236   0.306   0.471  14.297
27780SOL    HW185237   0.287   0.497  14.207
27780SOL    HW285238   0.225   0.428  14.326
27781SOL     OW85239   3.993   4.527   6.180
27781SOL    HW185240   3.907   4.498   6.150
27781SOL    HW285241   3.984   4.622   6.189
27782SOL     OW85242   7.519   3.479   1.604
27782SOL    HW185243   7.559   3.397   1.633
27782SOL    HW285244   7.432   3.479   1.644
27783SOL     OW85245   8.898  11.090   9.892
27783SOL    HW185246   8.957  11.018   9.874
27783SOL    HW285247   8.920  11.118   9.981
27784SOL     OW85248  12.747   2.379  10.544
27784SOL    HW185249  12.691   2.380  10.622
27784SOL    HW285250  12.833   2.354  10.578
27785SOL     OW85251   1.396  13.056  11.097
27785SOL    HW185252   1.308  13.019  11.091
27785SOL    HW285253   1.402  13.118  11.024
27786SOL     OW85254   7.698   4.414  10.054
27786SOL    HW185255   7.685   4.354   9.981
27786SOL    HW285256   7.612   4.417  10.098
27787SOL     OW85257   9.906   5.046   5.448
27787SOL    HW185258   9.890   4.992   5.526
27787SOL    HW285259   9.899   4.986   5.375
27788SOL     OW85260   9.251   8.903   1.059
27788SOL    HW185261   9.236   8.885   1.152
27788SOL    HW285262   9.168   8.939   1.028
27789SOL     OW85263   4.227   0.959  12.796
27789SOL    HW185264   4.273   0.931  12.717
27789SOL    HW285265   4.289   1.016  12.841
27790SOL     OW85266   9.013   7.108  12.336
27790SOL    HW185267   9.007   7.195  12.377
27790SOL    HW285268   8.985   7.122  12.246
27791SOL     OW85269   7.435   9.919   7.881
27791SOL    HW185270   7.381   9.860   7.934
27791SOL    HW285271   7.463   9.866   7.806
27792SOL     OW85272   1.861   5.814   6.900
27792SOL    HW185273   1.929   5.872   6.934
27792SOL    HW285274   1.858   5.833   6.806
27793SOL     OW85275   8.764   3.539   7.657
27793SOL    HW185276   8.749   3.450   7.688
27793SOL    HW285277   8.740   3.537   7.565
27794SOL     OW85278   8.573  13.857   6.352
27794SOL    HW185279   8.480  13.877   6.350
27794SOL    HW285280   8.613  13.932   6.395
27795SOL     OW85281   9.315   5.933  11.698
27795SOL    HW185282   9.379   5.908  11.632
27795SOL    HW285283   9.348   5.896  11.780
27796SOL     OW85284   9.959   8.148   5.060
27796SOL    HW185285   9.908   8.228   5.075
27796SOL    HW285286   9.910   8.080   5.107
27797SOL     OW85287   6.445  12.967   5.528
27797SOL    HW185288   6.437  12.984   5.621
27797SOL    HW285289   6.414  12.878   5.516
27798SOL     OW85290   1.824  13.759  12.407
27798SOL    HW185291   1.799  13.689  12.346
27798SOL    HW285292   1.881  13.816  12.356
27799SOL     OW85293  13.876  14.636  10.598
27799SOL    HW185294  13.784  14.662  10.605
27799SOL    HW285295  13.924  14.719  10.593
27800SOL     OW85296   4.312   0.633   6.271
27800SOL    HW185297   4.389   0.586   6.239
27800SOL    HW285298   4.326   0.641   6.365
27801SOL     OW85299   0.037  11.402  14.472
27801SOL    HW185300   0.070  11.444  14.551
27801SOL    HW285301  14.829  11.372  14.496
27802SOL     OW85302   2.154   6.941   3.038
27802SOL    HW185303   2.140   6.935   3.133
27802SOL    HW285304   2.160   7.035   3.021
27803SOL     OW85305   1.780  10.958   5.574
27803SOL    HW185306   1.742  10.888   5.521
27803SOL    HW285307   1.865  10.975   5.533
27804SOL     OW85308  12.593  14.438  10.489
27804SOL    HW185309  12.636  14.519  10.464
27804SOL    HW285310  12.512  14.436  10.437
27805SOL     OW85311   3.994  12.804   2.108
27805SOL    HW185312   3.943  12.822   2.029
27805SOL    HW285313   4.081  12.839   2.088
27806SOL     OW85314   2.698   2.995  12.305
27806SOL    HW185315   2.672   2.909  12.272
27806SOL    HW285316   2.778   3.016  12.257
27807SOL     OW85317   2.181   0.767  11.821
27807SOL    HW185318   2.114   0.836  11.823
27807SOL    HW285319   2.223   0.772  11.907
27808SOL     OW85320  13.503  11.940   8.935
27808SOL    HW185321  13.514  12.032   8.914
27808SOL    HW285322  13.408  11.926   8.932
27809SOL     OW85323   4.873   6.063   5.702
27809SOL    HW185324   4.850   5.974   5.673
27809SOL    HW285325   4.848   6.119   5.628
27810SOL     OW85326   2.300   6.480   2.026
27810SOL    HW185327   2.217   6.525   2.039
27810SOL    HW285328   2.354   6.508   2.099
27811SOL     OW85329  13.245  10.019   3.931
27811SOL    HW185330  13.336  10.030   3.960
27811SOL    HW285331  13.203   9.969   4.001
27812SOL     OW85332   7.459   0.348   8.801
27812SOL    HW185333   7.488   0.274   8.855
27812SOL    HW285334   7.395   0.310   8.742
27813SOL     OW85335   9.434  12.417  10.866
27813SOL    HW185336   9.375  12.488  10.892
27813SOL    HW285337   9.434  12.420  10.770
27814SOL     OW85338  11.514   6.177   3.878
27814SOL    HW185339  11.567   6.127   3.816
27814SOL    HW285340  11.464   6.112   3.926
27815SOL     OW85341   1.450  10.204   3.018
27815SOL    HW185342   1.415  10.144   2.953
27815SOL    HW285343   1.482  10.279   2.966
27816SOL     OW85344  14.223  11.206  10.344
27816SOL    HW185345  14.179  11.126  10.371
27816SOL    HW285346  14.185  11.274  10.400
27817SOL     OW85347  12.360   1.118   9.849
27817SOL    HW185348  12.391   1.095   9.761
27817SOL    HW285349  12.433   1.168   9.887
27818SOL     OW85350  12.616   3.565   7.588
27818SOL    HW185351  12.610   3.656   7.617
27818SOL    HW285352  12.663   3.521   7.659
27819SOL     OW85353   9.959  14.310   4.334
27819SOL    HW185354   9.907  14.335   4.258
27819SOL    HW285355  10.044  14.351   4.321
27820SOL     OW85356   8.845   1.687  11.313
27820SOL    HW185357   8.928   1.686  11.265
27820SOL    HW285358   8.839   1.600  11.352
27821SOL     OW85359  13.007   1.654   6.117
27821SOL    HW185360  13.030   1.665   6.209
27821SOL    HW285361  12.994   1.743   6.085
27822SOL     OW85362  13.904   6.682  11.433
27822SOL    HW185363  13.834   6.746  11.420
27822SOL    HW285364  13.980   6.733  11.459
27823SOL     OW85365   1.978  14.142   4.594
27823SOL    HW185366   1.925  14.207   4.640
27823SOL    HW285367   1.939  14.136   4.507
27824SOL     OW85368   7.010   5.230   2.764
27824SOL    HW185369   7.056   5.307   2.797
27824SOL    HW285370   6.941   5.214   2.828
27825SOL     OW85371   3.062   6.552  11.827
27825SOL    HW185372   3.014   6.471  11.809
27825SOL    HW285373   3.153   6.525  11.834
27826SOL     OW85374  12.063   1.795   9.615
27826SOL    HW185375  12.136   1.734   9.623
27826SOL    HW285376  12.105   1.880   9.600
27827SOL     OW85377   6.775   7.124   1.957
27827SOL    HW185378   6.751   7.034   1.979
27827SOL    HW285379   6.818   7.157   2.036
27828SOL     OW85380   3.828   7.260  12.927
27828SOL    HW185381   3.803   7.311  13.004
27828SOL    HW285382   3.810   7.318  12.853
27829SOL     OW85383   2.105   4.552   3.550
27829SOL    HW185384   2.021   4.552   3.595
27829SOL    HW285385   2.083   4.545   3.457
27830SOL     OW85386   5.619  10.094  14.214
27830SOL    HW185387   5.552  10.102  14.146
27830SOL    HW285388   5.578  10.132  14.292
27831SOL     OW85389   6.925   7.485  11.880
27831SOL    HW185390   7.001   7.443  11.839
27831SOL    HW285391   6.944   7.481  11.974
27832SOL     OW85392  10.870  13.503   8.160
27832SOL    HW185393  10.865  13.416   8.120
27832SOL    HW285394  10.853  13.488   8.253
27833SOL     OW85395   9.684   9.856   6.171
27833SOL    HW185396   9.688   9.934   6.226
27833SOL    HW285397   9.710   9.887   6.084
27834SOL     OW85398   6.832   9.176   6.999
27834SOL    HW185399   6.772   9.229   6.947
27834SOL    HW285400   6.917   9.191   6.959
27835SOL     OW85401   7.504   4.228   7.248
27835SOL    HW185402   7.555   4.271   7.179
27835SOL    HW285403   7.496   4.137   7.219
27836SOL     OW85404   4.476   2.764   2.574
27836SOL    HW185405   4.458   2.833   2.637
27836SOL    HW285406   4.442   2.684   2.614
27837SOL     OW85407   7.414   3.563   7.650
27837SOL    HW185408   7.447   3.642   7.607
27837SOL    HW285409   7.331   3.545   7.604
27838SOL     OW85410   1.144   5.342   9.321
27838SOL    HW185411   1.066   5.394   9.303
27838SOL    HW285412   1.163   5.298   9.238
27839SOL     OW85413  12.237   7.388   5.726
27839SOL    HW185414  12.168   7.335   5.687
27839SOL    HW285415  12.210   7.399   5.817
27840SOL     OW85416   2.738  12.567   4.646
27840SOL    HW185417   2.793  12.513   4.589
27840SOL    HW285418   2.773  12.656   4.635
27841SOL     OW85419   8.738  12.804   6.926
27841SOL    HW185420   8.789  12.724   6.909
27841SOL    HW285421   8.654  12.788   6.882
27842SOL     OW85422   6.241   1.047   6.676
27842SOL    HW185423   6.249   0.953   6.659
27842SOL    HW285424   6.320   1.085   6.637
27843SOL     OW85425   2.581  14.470   3.665
27843SOL    HW185426   2.491  14.492   3.692
27843SOL    HW285427   2.612  14.410   3.733
27844SOL     OW85428   4.057  12.295   5.484
27844SOL    HW185429   4.067  12.214   5.434
27844SOL    HW285430   3.966  12.294   5.513
27845SOL     OW85431   0.708   1.510   5.267
27845SOL    HW185432   0.705   1.599   5.302
27845SOL    HW285433   0.619   1.477   5.277
27846SOL     OW85434   8.053   1.935   4.133
27846SOL    HW185435   8.046   2.030   4.131
27846SOL    HW285436   8.028   1.911   4.222
27847SOL     OW85437  11.889   0.452  13.248
27847SOL    HW185438  11.944   0.422  13.320
27847SOL    HW285439  11.875   0.545  13.265
27848SOL     OW85440   2.084  14.324   4.212
27848SOL    HW185441   2.104  14.351   4.123
27848SOL    HW285442   2.113  14.233   4.218
27849SOL     OW85443  13.120   9.609  10.194
27849SOL    HW185444  13.089   9.609  10.103
27849SOL    HW285445  13.046   9.578  10.245
27850SOL     OW85446   4.999   5.789  10.336
27850SOL    HW185447   4.968   5.755  10.252
27850SOL    HW285448   5.081   5.741  10.353
27851SOL     OW85449   2.664   0.679   6.564
27851SOL    HW185450   2.641   0.739   6.493
27851SOL    HW285451   2.638   0.593   6.531
27852SOL     OW85452   8.267  10.853   3.241
27852SOL    HW185453   8.244  10.810   3.323
27852SOL    HW285454   8.356  10.823   3.221
27853SOL     OW85455  12.018  11.824   6.027
27853SOL    HW185456  12.096  11.777   6.058
27853SOL    HW285457  12.019  11.812   5.932
27854SOL     OW85458  10.795   0.311   4.938
27854SOL    HW185459  10.753   0.265   5.011
27854SOL    HW285460  10.803   0.244   4.870
27855SOL     OW85461   7.183   7.574  14.121
27855SOL    HW185462   7.133   7.519  14.061
27855SOL    HW285463   7.231   7.512  14.176
27856SOL     OW85464  11.975   1.966   8.045
27856SOL    HW185465  11.921   2.014   8.107
27856SOL    HW285466  11.937   1.987   7.959
27857SOL     OW85467   3.234   6.959   0.228
27857SOL    HW185468   3.205   6.994   0.143
27857SOL    HW285469   3.308   6.902   0.206
27858SOL     OW85470  11.186   3.582   9.491
27858SOL    HW185471  11.183   3.677   9.496
27858SOL    HW285472  11.223   3.554   9.575
27859SOL     OW85473  10.423  12.923   5.677
27859SOL    HW185474  10.468  12.889   5.754
27859SOL    HW285475  10.479  12.993   5.646
27860SOL     OW85476  14.704   4.881   0.056
27860SOL    HW185477  14.686   4.817   0.124
27860SOL    HW285478  14.635   4.867  14.870
27861SOL     OW85479   8.860  10.143   4.642
27861SOL    HW185480   8.818  10.057   4.645
27861SOL    HW285481   8.940  10.132   4.695
27862SOL     OW85482   0.230   1.479   6.271
27862SOL    HW185483   0.321   1.464   6.296
27862SOL    HW285484   0.216   1.573   6.286
27863SOL     OW85485  14.613   6.922  12.216
27863SOL    HW185486  14.705   6.942  12.234
27863SOL    HW285487  14.613   6.835  12.177
27864SOL     OW85488   0.630  12.331   6.233
27864SOL    HW185489   0.621  12.332   6.328
27864SOL    HW285490   0.542  12.312   6.201
27865SOL     OW85491   7.865   0.813   7.724
27865SOL    HW185492   7.778   0.842   7.696
27865SOL    HW285493   7.868   0.834   7.817
27866SOL     OW85494  11.242   8.598   5.111
27866SOL    HW185495  11.217   8.589   5.203
27866SOL    HW285496  11.173   8.653   5.073
27867SOL     OW85497   8.664  12.729   4.468
27867SOL    HW185498   8.709  12.673   4.405
27867SOL    HW285499   8.591  12.767   4.420
27868SOL     OW85500  10.877   5.457  10.052
27868SOL    HW185501  10.898   5.385   9.993
27868SOL    HW285502  10.809   5.422  10.110
27869SOL     OW85503   1.869   2.776   9.823
27869SOL    HW185504   1.939   2.840   9.813
27869SOL    HW285505   1.830   2.796   9.908
27870SOL     OW85506  11.299   5.972  10.221
27870SOL    HW185507  11.230   5.909  10.202
27870SOL    HW285508  11.318   6.013  10.136
27871SOL     OW85509   4.267  14.562   8.006
27871SOL    HW185510   4.305  14.476   8.019
27871SOL    HW285511   4.339  14.623   8.021
27872SOL     OW85512  13.585   0.381  12.754
27872SOL    HW185513  13.523   0.377  12.682
27872SOL    HW285514  13.618   0.471  12.753
27873SOL     OW85515   6.436  12.096   7.812
27873SOL    HW185516   6.423  12.026   7.748
27873SOL    HW285517   6.529  12.089   7.837
27874SOL     OW85518  12.066   8.733   4.042
27874SOL    HW185519  11.998   8.668   4.061
27874SOL    HW285520  12.019   8.807   4.004
27875SOL     OW85521   1.887   0.668   6.559
27875SOL    HW185522   1.981   0.672   6.545
27875SOL    HW285523   1.869   0.740   6.619
27876SOL     OW85524   7.153  11.352   5.105
27876SOL    HW185525   7.186  11.269   5.071
27876SOL    HW285526   7.221  11.383   5.165
27877SOL     OW85527   7.868  13.167   3.083
27877SOL    HW185528   7.881  13.076   3.057
27877SOL    HW285529   7.834  13.210   3.004
27878SOL     OW85530   2.968   2.993   2.767
27878SOL    HW185531   2.912   2.924   2.732
27878SOL    HW285532   2.926   3.017   2.850
27879SOL     OW85533   5.949   0.253  14.539
27879SOL    HW185534   5.874   0.211  14.497
27879SOL    HW285535   5.932   0.347  14.529
27880SOL     OW85536  12.432   5.705  11.969
27880SOL    HW185537  12.423   5.749  11.885
27880SOL    HW285538  12.511   5.741  12.008
27881SOL     OW85539  12.098   2.149  12.579
27881SOL    HW185540  12.086   2.217  12.646
27881SOL    HW285541  12.071   2.190  12.497
27882SOL     OW85542   5.888   9.732  14.500
27882SOL    HW185543   5.948   9.762  14.432
27882SOL    HW285544   5.871   9.641  14.478
27883SOL     OW85545   6.650  12.679   6.262
27883SOL    HW185546   6.712  12.607   6.253
27883SOL    HW285547   6.689  12.737   6.327
27884SOL     OW85548   3.582   8.341  14.587
27884SOL    HW185549   3.653   8.330  14.650
27884SOL    HW285550   3.613   8.410  14.528
27885SOL     OW85551  10.923   4.747   6.816
27885SOL    HW185552  10.942   4.710   6.730
27885SOL    HW285553  10.862   4.818   6.799
27886SOL     OW85554   3.126   4.983   2.900
27886SOL    HW185555   3.138   4.908   2.842
27886SOL    HW285556   3.031   4.991   2.910
27887SOL     OW85557  10.246  13.230   6.202
27887SOL    HW185558  10.295  13.151   6.223
27887SOL    HW285559  10.160  13.217   6.241
27888SOL     OW85560   0.898   4.143   4.489
27888SOL    HW185561   0.963   4.074   4.499
27888SOL    HW285562   0.831   4.123   4.555
27889SOL     OW85563   0.645  12.516   7.149
27889SOL    HW185564   0.726  12.514   7.201
27889SOL    HW285565   0.592  12.584   7.190
27890SOL     OW85566  12.831   4.506   2.166
27890SOL    HW185567  12.754   4.450   2.179
27890SOL    HW285568  12.876   4.469   2.090
27891SOL     OW85569  12.747   8.240   2.163
27891SOL    HW185570  12.839   8.215   2.178
27891SOL    HW285571  12.750   8.295   2.085
27892SOL     OW85572   0.138  12.620  14.389
27892SOL    HW185573   0.065  12.573  14.428
27892SOL    HW285574   0.122  12.712  14.408
27893SOL     OW85575   8.517   2.199   2.529
27893SOL    HW185576   8.539   2.166   2.616
27893SOL    HW285577   8.592   2.254   2.505
27894SOL     OW85578  14.538   5.034   0.867
27894SOL    HW185579  14.577   4.950   0.894
27894SOL    HW285580  14.444   5.015   0.859
27895SOL     OW85581   2.382   9.491   6.114
27895SOL    HW185582   2.462   9.440   6.098
27895SOL    HW285583   2.319   9.427   6.146
27896SOL     OW85584   1.661  13.031   4.384
27896SOL    HW185585   1.648  12.949   4.336
27896SOL    HW285586   1.622  13.015   4.470
27897SOL     OW85587   5.050   7.444   5.277
27897SOL    HW185588   5.019   7.490   5.199
27897SOL    HW285589   4.987   7.372   5.289
27898SOL     OW85590   7.032   0.005  13.200
27898SOL    HW185591   7.091  14.851  13.132
27898SOL    HW285592   7.057  14.837  13.279
27899SOL     OW85593   1.078   7.004   7.253
27899SOL    HW185594   1.081   7.017   7.158
27899SOL    HW285595   1.135   6.929   7.269
27900SOL     OW85596   7.376   7.605  13.131
27900SOL    HW185597   7.428   7.539  13.177
27900SOL    HW285598   7.434   7.637  13.061
27901SOL     OW85599   2.660   1.058   8.151
27901SOL    HW185600   2.748   1.083   8.125
27901SOL    HW285601   2.625   1.137   8.195
27902SOL     OW85602  10.385  13.056   2.936
27902SOL    HW185603  10.398  13.136   2.986
27902SOL    HW285604  10.321  13.079   2.868
27903SOL     OW85605   3.993  10.282   0.291
27903SOL    HW185606   3.923  10.231   0.332
27903SOL    HW285607   4.016  10.233   0.212
27904SOL     OW85608   5.134  11.857  13.071
27904SOL    HW185609   5.127  11.795  13.144
27904SOL    HW285610   5.095  11.811  12.997
27905SOL     OW85611   9.660   3.526   1.356
27905SOL    HW185612   9.698   3.440   1.375
27905SOL    HW285613   9.573   3.523   1.396
27906SOL     OW85614   7.573  14.311  11.614
27906SOL    HW185615   7.513  14.273  11.549
27906SOL    HW285616   7.646  14.249  11.619
27907SOL     OW85617   1.631   2.296  11.014
27907SOL    HW185618   1.637   2.202  11.000
27907SOL    HW285619   1.539   2.317  10.996
27908SOL     OW85620  14.037   4.922   3.105
27908SOL    HW185621  13.991   4.965   3.178
27908SOL    HW285622  14.081   4.994   3.059
27909SOL     OW85623   4.314   4.144   4.928
27909SOL    HW185624   4.366   4.183   4.999
27909SOL    HW285625   4.360   4.170   4.848
27910SOL     OW85626   3.578   4.628  10.739
27910SOL    HW185627   3.668   4.654  10.719
27910SOL    HW285628   3.587   4.548  10.791
27911SOL     OW85629   6.745   8.270   2.792
27911SOL    HW185630   6.652   8.253   2.779
27911SOL    HW285631   6.770   8.217   2.867
27912SOL     OW85632  13.686  12.452  10.752
27912SOL    HW185633  13.647  12.442  10.665
27912SOL    HW285634  13.776  12.478  10.736
27913SOL     OW85635   3.236  10.903   8.003
27913SOL    HW185636   3.196  10.822   7.970
27913SOL    HW285637   3.330  10.891   7.989
27914SOL     OW85638   6.467   6.809   4.162
27914SOL    HW185639   6.404   6.743   4.192
27914SOL    HW285640   6.532   6.814   4.232
27915SOL     OW85641   2.697  14.242  14.319
27915SOL    HW185642   2.683  14.148  14.330
27915SOL    HW285643   2.744  14.249  14.236
27916SOL     OW85644  12.681   3.066   1.819
27916SOL    HW185645  12.644   3.150   1.846
27916SOL    HW285646  12.608   3.019   1.780
27917SOL     OW85647   0.624  11.661  13.773
27917SOL    HW185648   0.541  11.705  13.790
27917SOL    HW285649   0.602  11.591  13.712
27918SOL     OW85650   7.859   9.903   5.713
27918SOL    HW185651   7.776   9.866   5.744
27918SOL    HW285652   7.911   9.916   5.792
27919SOL     OW85653   7.748   3.137  11.481
27919SOL    HW185654   7.723   3.045  11.468
27919SOL    HW285655   7.840   3.141  11.457
27920SOL     OW85656   1.627   7.386   9.493
27920SOL    HW185657   1.646   7.293   9.502
27920SOL    HW285658   1.696   7.419   9.435
27921SOL     OW85659  13.588   9.615   6.055
27921SOL    HW185660  13.534   9.607   6.133
27921SOL    HW285661  13.534   9.665   5.994
27922SOL     OW85662   6.244   6.718   7.923
27922SOL    HW185663   6.243   6.717   7.827
27922SOL    HW285664   6.274   6.630   7.947
27923SOL     OW85665   2.233  14.822   9.131
27923SOL    HW185666   2.170  14.755   9.157
27923SOL    HW285667   2.221   0.012   9.195
27924SOL     OW85668   4.692  11.848   4.127
27924SOL    HW185669   4.763  11.866   4.065
27924SOL    HW285670   4.736  11.848   4.213
27925SOL     OW85671   8.291   8.126  14.736
27925SOL    HW185672   8.374   8.079  14.729
27925SOL    HW285673   8.306   8.208  14.688
27926SOL     OW85674   7.033  14.384  11.112
27926SOL    HW185675   7.107  14.403  11.170
27926SOL    HW285676   7.015  14.467  11.068
27927SOL     OW85677   1.598  14.336  13.862
27927SOL    HW185678   1.600  14.294  13.776
27927SOL    HW285679   1.514  14.381  13.866
27928SOL     OW85680  13.782  12.810   9.970
27928SOL    HW185681  13.839  12.733   9.974
27928SOL    HW285682  13.695  12.777   9.990
27929SOL     OW85683   8.464   7.867   3.363
27929SOL    HW185684   8.552   7.895   3.390
27929SOL    HW285685   8.410   7.945   3.375
27930SOL     OW85686   3.936   7.479   6.822
27930SOL    HW185687   4.001   7.491   6.753
27930SOL    HW285688   3.936   7.385   6.838
27931SOL     OW85689   1.085   7.137   6.967
27931SOL    HW185690   1.040   7.191   7.032
27931SOL    HW285691   1.058   7.173   6.883
27932SOL     OW85692  10.347  10.427   0.790
27932SOL    HW185693  10.378  10.362   0.853
27932SOL    HW285694  10.258  10.400   0.769
27933SOL     OW85695  14.028  12.156   4.695
27933SOL    HW185696  14.048  12.219   4.626
27933SOL    HW285697  14.038  12.205   4.776
27934SOL     OW85698   3.104   2.703   8.882
27934SOL    HW185699   3.179   2.761   8.899
27934SOL    HW285700   3.144   2.618   8.865
27935SOL     OW85701   6.005   1.049   2.892
27935SOL    HW185702   5.954   1.057   2.972
27935SOL    HW285703   5.980   1.125   2.840
27936SOL     OW85704   5.955   4.118   4.849
27936SOL    HW185705   5.959   4.126   4.944
27936SOL    HW285706   5.864   4.137   4.827
27937SOL     OW85707  11.993   6.724   1.000
27937SOL    HW185708  11.988   6.730   0.905
27937SOL    HW285709  12.087   6.726   1.019
27938SOL     OW85710   4.328   6.572   2.679
27938SOL    HW185711   4.298   6.539   2.595
27938SOL    HW285712   4.253   6.621   2.714
27939SOL     OW85713   2.251   6.701   4.934
27939SOL    HW185714   2.211   6.634   4.990
27939SOL    HW285715   2.248   6.781   4.987
27940SOL     OW85716  13.713   2.639  10.951
27940SOL    HW185717  13.641   2.692  10.919
27940SOL    HW285718  13.706   2.556  10.902
27941SOL     OW85719   5.639   9.811  11.030
27941SOL    HW185720   5.573   9.846  10.971
27941SOL    HW285721   5.589   9.761  11.096
27942SOL     OW85722   4.079   2.243   2.908
27942SOL    HW185723   4.016   2.301   2.951
27942SOL    HW285724   4.033   2.210   2.831
27943SOL     OW85725   5.744   8.945  11.497
27943SOL    HW185726   5.725   8.926  11.405
27943SOL    HW285727   5.825   8.897  11.515
27944SOL     OW85728   0.052   6.115   0.881
27944SOL    HW185729  14.845   6.076   0.883
27944SOL    HW285730   0.092   6.082   0.800
27945SOL     OW85731   3.733  13.877  14.174
27945SOL    HW185732   3.702  13.854  14.262
27945SOL    HW285733   3.800  13.812  14.154
27946SOL     OW85734   8.067   3.687  10.499
27946SOL    HW185735   8.070   3.603  10.452
27946SOL    HW285736   8.026   3.747  10.437
27947SOL     OW85737  11.835  11.814  12.893
27947SOL    HW185738  11.843  11.840  12.801
27947SOL    HW285739  11.741  11.797  12.905
27948SOL     OW85740  14.246   3.134   1.014
27948SOL    HW185741  14.257   3.183   0.932
27948SOL    HW285742  14.325   3.080   1.020
27949SOL     OW85743   9.045  12.865   1.066
27949SOL    HW185744   9.011  12.954   1.051
27949SOL    HW285745   9.108  12.875   1.137
27950SOL     OW85746  14.355   2.314   8.090
27950SOL    HW185747  14.423   2.352   8.145
27950SOL    HW285748  14.354   2.221   8.115
27951SOL     OW85749  10.332   3.536   9.154
27951SOL    HW185750  10.295   3.472   9.094
27951SOL    HW285751  10.285   3.522   9.237
27952SOL     OW85752  10.688   5.110   4.135
27952SOL    HW185753  10.756   5.048   4.110
27952SOL    HW285754  10.704   5.128   4.227
27953SOL     OW85755   6.101   1.930   2.561
27953SOL    HW185756   6.045   1.865   2.604
27953SOL    HW285757   6.107   2.002   2.625
27954SOL     OW85758   6.425   3.949   5.533
27954SOL    HW185759   6.366   3.877   5.554
27954SOL    HW285760   6.493   3.909   5.479
27955SOL     OW85761  10.527  10.827   3.269
27955SOL    HW185762  10.435  10.801   3.273
27955SOL    HW285763  10.528  10.900   3.208
27956SOL     OW85764  11.700   2.005  10.768
27956SOL    HW185765  11.747   2.026  10.849
27956SOL    HW285766  11.755   1.941  10.724
27957SOL     OW85767  11.209  10.879  14.808
27957SOL    HW185768  11.199  10.785  14.793
27957SOL    HW285769  11.301  10.897  14.791
27958SOL     OW85770   7.238   2.810   4.405
27958SOL    HW185771   7.240   2.905   4.411
27958SOL    HW285772   7.160   2.784   4.455
27959SOL     OW85773   5.251  14.291   9.108
27959SOL    HW185774   5.202  14.373   9.107
27959SOL    HW285775   5.238  14.256   9.196
27960SOL     OW85776   2.215  10.511   0.327
27960SOL    HW185777   2.141  10.487   0.382
27960SOL    HW285778   2.228  10.605   0.343
27961SOL     OW85779   2.416   4.177  12.625
27961SOL    HW185780   2.355   4.225  12.568
27961SOL    HW285781   2.501   4.187  12.583
27962SOL     OW85782   6.472   3.879   9.528
27962SOL    HW185783   6.438   3.789   9.525
27962SOL    HW285784   6.546   3.874   9.589
27963SOL     OW85785   3.648  14.080  12.264
27963SOL    HW185786   3.617  14.005  12.214
27963SOL    HW285787   3.648  14.050  12.355
27964SOL     OW85788  13.531   0.690  10.550
27964SOL    HW185789  13.481   0.668  10.628
27964SOL    HW285790  13.583   0.612  10.531
27965SOL     OW85791   4.695   5.097   6.785
27965SOL    HW185792   4.721   5.009   6.812
27965SOL    HW285793   4.603   5.089   6.761
27966SOL     OW85794  10.514   7.920   1.803
27966SOL    HW185795  10.450   7.856   1.772
27966SOL    HW285796  10.466   8.003   1.808
27967SOL     OW85797   3.757   8.589   0.278
27967SOL    HW185798   3.694   8.529   0.320
27967SOL    HW285799   3.703   8.646   0.224
27968SOL     OW85800  10.066   4.005  12.771
27968SOL    HW185801   9.978   4.018  12.735
27968SOL    HW285802  10.052   3.951  12.848
27969SOL     OW85803   5.838   3.510   7.013
27969SOL    HW185804   5.884   3.587   7.048
27969SOL    HW285805   5.859   3.440   7.074
27970SOL     OW85806  10.027   8.075   0.671
27970SOL    HW185807  10.055   8.165   0.690
27970SOL    HW285808  10.108   8.026   0.659
27971SOL     OW85809   7.991   5.713   7.214
27971SOL    HW185810   8.038   5.791   7.183
27971SOL    HW285811   8.058   5.663   7.261
27972SOL     OW85812   6.659  11.876   4.763
27972SOL    HW185813   6.699  11.939   4.703
27972SOL    HW285814   6.565  11.881   4.744
27973SOL     OW85815  10.864  10.705   9.999
27973SOL    HW185816  10.940  10.722   9.943
27973SOL    HW285817  10.794  10.759   9.962
27974SOL     OW85818  10.938   7.666   6.946
27974SOL    HW185819  11.030   7.682   6.929
27974SOL    HW285820  10.919   7.713   7.026
27975SOL     OW85821   5.594  11.164   3.578
27975SOL    HW185822   5.516  11.146   3.632
27975SOL    HW285823   5.575  11.122   3.494
27976SOL     OW85824   9.477   3.881   4.659
27976SOL    HW185825   9.396   3.835   4.636
27976SOL    HW285826   9.448   3.957   4.710
27977SOL     OW85827   4.647   0.312  10.127
27977SOL    HW185828   4.626   0.228  10.169
27977SOL    HW285829   4.646   0.375  10.199
27978SOL     OW85830   1.273   3.182   4.764
27978SOL    HW185831   1.244   3.144   4.681
27978SOL    HW285832   1.297   3.106   4.817
27979SOL     OW85833   7.932  10.931   2.040
27979SOL    HW185834   8.024  10.948   2.060
27979SOL    HW285835   7.929  10.925   1.944
27980SOL     OW85836   3.532  12.620  13.088
27980SOL    HW185837   3.519  12.635  12.994
27980SOL    HW285838   3.490  12.696  13.130
27981SOL     OW85839   8.070   3.829   0.155
27981SOL    HW185840   8.138   3.867   0.210
27981SOL    HW285841   8.112   3.755   0.112
27982SOL     OW85842   8.749  14.037  11.930
27982SOL    HW185843   8.691  13.979  11.979
27982SOL    HW285844   8.837  14.017  11.962
27983SOL     OW85845   6.856  14.518   0.268
27983SOL    HW185846   6.880  14.558   0.185
27983SOL    HW285847   6.805  14.584   0.314
27984SOL     OW85848   1.322   8.016   7.603
27984SOL    HW185849   1.365   7.947   7.654
27984SOL    HW285850   1.234   8.024   7.641
27985SOL     OW85851  11.648   7.330   1.073
27985SOL    HW185852  11.700   7.274   1.015
27985SOL    HW285853  11.713   7.373   1.129
27986SOL     OW85854   4.762  11.689  13.200
27986SOL    HW185855   4.747  11.666  13.292
27986SOL    HW285856   4.855  11.713  13.197
27987SOL     OW85857  11.203  12.558   2.064
27987SOL    HW185858  11.260  12.634   2.056
27987SOL    HW285859  11.261  12.487   2.089
27988SOL     OW85860   6.680   6.602   4.800
27988SOL    HW185861   6.613   6.647   4.851
27988SOL    HW285862   6.745   6.575   4.865
27989SOL     OW85863   9.526  12.023   2.917
27989SOL    HW185864   9.574  12.030   2.999
27989SOL    HW285865   9.446  12.073   2.931
27990SOL     OW85866   5.902   4.241  14.670
27990SOL    HW185867   5.867   4.263  14.756
27990SOL    HW285868   5.984   4.290  14.664
27991SOL     OW85869  10.163   9.321  11.303
27991SOL    HW185870  10.246   9.290  11.267
27991SOL    HW285871  10.107   9.335  11.226
27992SOL     OW85872  12.723  10.817   7.734
27992SOL    HW185873  12.789  10.796   7.801
27992SOL    HW285874  12.715  10.737   7.683
27993SOL     OW85875  13.679   0.808   5.503
27993SOL    HW185876  13.718   0.882   5.456
27993SOL    HW285877  13.748   0.779   5.563
27994SOL     OW85878   4.605  11.966  13.795
27994SOL    HW185879   4.650  12.048  13.776
27994SOL    HW285880   4.607  11.959  13.891
27995SOL     OW85881  12.809  12.933   8.308
27995SOL    HW185882  12.785  12.998   8.242
27995SOL    HW285883  12.882  12.885   8.269
27996SOL     OW85884   7.313   2.927   1.048
27996SOL    HW185885   7.309   2.971   1.133
27996SOL    HW285886   7.406   2.907   1.035
27997SOL     OW85887  12.568  12.510   3.696
27997SOL    HW185888  12.509  12.579   3.665
27997SOL    HW285889  12.590  12.461   3.617
27998SOL     OW85890   4.930   0.726   6.472
27998SOL    HW185891   5.001   0.686   6.523
27998SOL    HW285892   4.940   0.820   6.487
27999SOL     OW85893   7.947   5.211   6.505
27999SOL    HW185894   7.999   5.284   6.471
27999SOL    HW285895   8.011   5.142   6.524
28000SOL     OW85896   7.023  10.979   6.756
28000SOL    HW185897   7.027  11.011   6.846
28000SOL    HW285898   6.989  10.890   6.764
28001SOL     OW85899  13.279   4.294  14.566
28001SOL    HW185900  13.241   4.230  14.506
28001SOL    HW285901  13.206   4.350  14.592
28002SOL     OW85902   7.906  10.161   1.155
28002SOL    HW185903   7.825  10.212   1.158
28002SOL    HW285904   7.892  10.092   1.221
28003SOL     OW85905  11.774   8.631  13.611
28003SOL    HW185906  11.728   8.625  13.527
28003SOL    HW285907  11.856   8.676  13.590
28004SOL     OW85908  13.559   6.234   4.587
28004SOL    HW185909  13.639   6.204   4.543
28004SOL    HW285910  13.509   6.154   4.601
28005SOL     OW85911  11.737  11.905   8.731
28005SOL    HW185912  11.709  11.958   8.805
28005SOL    HW285913  11.788  11.965   8.677
28006SOL     OW85914   0.668   2.917   8.828
28006SOL    HW185915   0.594   2.857   8.834
28006SOL    HW285916   0.659   2.974   8.905
28007SOL     OW85917  12.115  14.531   4.635
28007SOL    HW185918  12.139  14.453   4.585
28007SOL    HW285919  12.185  14.540   4.700
28008SOL     OW85920  10.828   1.598  12.648
28008SOL    HW185921  10.764   1.625  12.713
28008SOL    HW285922  10.802   1.642  12.567
28009SOL     OW85923   4.488  12.347  13.797
28009SOL    HW185924   4.537  12.392  13.728
28009SOL    HW285925   4.535  12.367  13.878
28010SOL     OW85926  12.523  12.051   3.038
28010SOL    HW185927  12.560  11.993   3.105
28010SOL    HW285928  12.514  11.996   2.961
28011SOL     OW85929   0.800  10.833  11.307
28011SOL    HW185930   0.746  10.904  11.271
28011SOL    HW285931   0.796  10.763  11.242
28012SOL     OW85932  14.443   3.082   0.760
28012SOL    HW185933  14.415   2.992   0.780
28012SOL    HW285934  14.447   3.084   0.664
28013SOL     OW85935  13.079   9.609   0.914
28013SOL    HW185936  12.999   9.598   0.966
28013SOL    HW285937  13.138   9.658   0.971
28014SOL     OW85938  11.565  13.490   2.846
28014SOL    HW185939  11.498  13.422   2.853
28014SOL    HW285940  11.523  13.568   2.884
28015SOL     OW85941   6.718   2.437  14.482
28015SOL    HW185942   6.656   2.377  14.523
28015SOL    HW285943   6.719   2.411  14.390
28016SOL     OW85944   9.403  11.767   6.382
28016SOL    HW185945   9.418  11.711   6.458
28016SOL    HW285946   9.327  11.728   6.339
28017SOL     OW85947   8.959   1.645  14.711
28017SOL    HW185948   8.927   1.579  14.772
28017SOL    HW285949   9.025   1.694  14.760
28018SOL     OW85950   5.402   8.633  10.167
28018SOL    HW185951   5.360   8.645  10.252
28018SOL    HW285952   5.389   8.540  10.147
28019SOL     OW85953   0.968  14.477   0.636
28019SOL    HW185954   0.893  14.493   0.694
28019SOL    HW285955   0.933  14.422   0.566
28020SOL     OW85956   8.880  13.153   5.657
28020SOL    HW185957   8.908  13.245   5.667
28020SOL    HW285958   8.941  13.104   5.712
28021SOL     OW85959   7.974   9.603  14.732
28021SOL    HW185960   8.061   9.633  14.756
28021SOL    HW285961   7.919   9.682  14.738
28022SOL     OW85962   2.092   5.955  13.463
28022SOL    HW185963   2.159   6.016  13.433
28022SOL    HW285964   2.033   6.008  13.517
28023SOL     OW85965   3.415  13.671  12.030
28023SOL    HW185966   3.368  13.588  12.027
28023SOL    HW285967   3.350  13.735  12.060
28024SOL     OW85968   2.619   6.711  11.439
28024SOL    HW185969   2.640   6.634  11.385
28024SOL    HW285970   2.655   6.691  11.525
28025SOL     OW85971  14.862  12.416   8.954
28025SOL    HW185972  14.791  12.370   8.999
28025SOL    HW285973  14.837  12.509   8.959
28026SOL     OW85974  11.793  14.568   1.461
28026SOL    HW185975  11.727  14.565   1.392
28026SOL    HW285976  11.743  14.566   1.542
28027SOL     OW85977  11.045   1.425   8.031
28027SOL    HW185978  11.063   1.519   8.038
28027SOL    HW285979  11.126   1.383   8.060
28028SOL     OW85980   6.312   7.996   6.112
28028SOL    HW185981   6.406   7.994   6.092
28028SOL    HW285982   6.269   7.995   6.026
28029SOL     OW85983  10.359  13.606   6.637
28029SOL    HW185984  10.279  13.565   6.667
28029SOL    HW285985  10.371  13.680   6.697
28030SOL     OW85986  11.146   0.288   7.612
28030SOL    HW185987  11.177   0.241   7.534
28030SOL    HW285988  11.227   0.318   7.655
28031SOL     OW85989   1.736   9.765   7.731
28031SOL    HW185990   1.679   9.689   7.728
28031SOL    HW285991   1.686   9.832   7.776
28032SOL     OW85992   0.358   0.857   9.735
28032SOL    HW185993   0.264   0.836   9.737
28032SOL    HW285994   0.361   0.953   9.740
28033SOL     OW85995   6.124   2.918   7.076
28033SOL    HW185996   6.068   2.846   7.105
28033SOL    HW285997   6.205   2.875   7.049
28034SOL     OW85998   5.368   7.030   3.126
28034SOL    HW185999   5.374   7.107   3.183
28034SOL    HW286000   5.459   7.009   3.103
28035SOL     OW86001  11.461  11.995  14.242
28035SOL    HW186002  11.487  12.080  14.206
28035SOL    HW286003  11.520  11.932  14.199
28036SOL     OW86004   6.057   7.413   0.777
28036SOL    HW186005   6.032   7.407   0.684
28036SOL    HW286006   6.053   7.506   0.796
28037SOL     OW86007   9.867   9.419  11.705
28037SOL    HW186008   9.937   9.412  11.640
28037SOL    HW286009   9.818   9.337  11.697
28038SOL     OW86010  10.917   1.558   3.573
28038SOL    HW186011  10.877   1.604   3.647
28038SOL    HW286012  10.981   1.620   3.538
28039SOL     OW86013   7.747   6.234  12.003
28039SOL    HW186014   7.770   6.327  12.001
28039SOL    HW286015   7.799   6.195  11.933
28040SOL     OW86016   6.936  12.918  14.459
28040SOL    HW186017   6.911  12.836  14.416
28040SOL    HW286018   7.030  12.909  14.473
28041SOL     OW86019   9.725   1.049   4.314
28041SOL    HW186020   9.651   1.084   4.264
28041SOL    HW286021   9.770   0.992   4.252
28042SOL     OW86022  10.009  10.338  14.679
28042SOL    HW186023  10.085  10.281  14.687
28042SOL    HW286024  10.029  10.395  14.605
28043SOL     OW86025   9.544   3.792  14.531
28043SOL    HW186026   9.595   3.810  14.610
28043SOL    HW286027   9.460   3.835  14.545
28044SOL     OW86028   6.008   3.032  13.152
28044SOL    HW186029   6.046   3.061  13.069
28044SOL    HW286030   5.944   3.099  13.174
28045SOL     OW86031   7.713   0.077   3.585
28045SOL    HW186032   7.787   0.125   3.547
28045SOL    HW286033   7.645   0.082   3.518
28046SOL     OW86034  14.205   1.369   6.282
28046SOL    HW186035  14.267   1.442   6.283
28046SOL    HW286036  14.207   1.334   6.371
28047SOL     OW86037   3.587   4.433  11.160
28047SOL    HW186038   3.602   4.528  11.161
28047SOL    HW286039   3.610   4.405  11.249
28048SOL     OW86040   1.735   2.285   3.926
28048SOL    HW186041   1.793   2.226   3.878
28048SOL    HW286042   1.649   2.272   3.886
28049SOL     OW86043   5.703   8.779   3.793
28049SOL    HW186044   5.718   8.745   3.881
28049SOL    HW286045   5.752   8.720   3.735
28050SOL     OW86046   5.837   2.957   5.888
28050SOL    HW186047   5.841   2.870   5.849
28050SOL    HW286048   5.825   2.942   5.982
28051SOL     OW86049  11.067   5.406   2.840
28051SOL    HW186050  11.063   5.318   2.802
28051SOL    HW286051  11.040   5.394   2.931
28052SOL     OW86052   1.842   9.474  12.715
28052SOL    HW186053   1.851   9.400  12.775
28052SOL    HW286054   1.876   9.442  12.631
28053SOL     OW86055   0.542   0.366   8.245
28053SOL    HW186056   0.468   0.328   8.293
28053SOL    HW286057   0.614   0.367   8.309
28054SOL     OW86058   6.374   8.011   7.260
28054SOL    HW186059   6.448   7.958   7.291
28054SOL    HW286060   6.414   8.075   7.201
28055SOL     OW86061  13.990   1.605   7.744
28055SOL    HW186062  13.904   1.626   7.779
28055SOL    HW286063  14.010   1.676   7.683
28056SOL     OW86064   3.722   5.129  11.657
28056SOL    HW186065   3.656   5.116  11.725
28056SOL    HW286066   3.750   5.220  11.668
28057SOL     OW86067   7.566   4.432   1.371
28057SOL    HW186068   7.587   4.443   1.463
28057SOL    HW286069   7.651   4.432   1.327
28058SOL     OW86070   7.968   8.578   8.549
28058SOL    HW186071   8.025   8.521   8.601
28058SOL    HW286072   8.017   8.660   8.540
28059SOL     OW86073   4.232   0.197   6.127
28059SOL    HW186074   4.239   0.260   6.055
28059SOL    HW286075   4.159   0.140   6.103
28060SOL     OW86076   2.619   3.584   2.888
28060SOL    HW186077   2.708   3.602   2.917
28060SOL    HW286078   2.615   3.618   2.799
28061SOL     OW86079   9.523   3.417  12.770
28061SOL    HW186080   9.616   3.406  12.751
28061SOL    HW286081   9.494   3.331  12.799
28062SOL     OW86082   4.253   3.293   1.378
28062SOL    HW186083   4.295   3.218   1.421
28062SOL    HW286084   4.160   3.274   1.383
28063SOL     OW86085   9.521   7.509  12.904
28063SOL    HW186086   9.512   7.555  12.821
28063SOL    HW286087   9.438   7.525  12.949
28064SOL     OW86088   1.426   8.820   7.858
28064SOL    HW186089   1.357   8.755   7.868
28064SOL    HW286090   1.395   8.878   7.788
28065SOL     OW86091   8.313  14.220   0.126
28065SOL    HW186092   8.264  14.297   0.154
28065SOL    HW286093   8.246  14.156   0.100
28066SOL     OW86094   1.966  12.832   8.043
28066SOL    HW186095   1.873  12.821   8.026
28066SOL    HW286096   1.982  12.788   8.126
28067SOL     OW86097  10.311   0.226   7.329
28067SOL    HW186098  10.387   0.188   7.373
28067SOL    HW286099  10.259   0.150   7.302
28068SOL     OW86100   5.694   0.546   7.533
28068SOL    HW186101   5.639   0.467   7.524
28068SOL    HW286102   5.776   0.513   7.570
28069SOL     OW86103   2.246  13.548   1.970
28069SOL    HW186104   2.271  13.545   2.063
28069SOL    HW286105   2.306  13.487   1.927
28070SOL     OW86106  12.213   4.650   1.867
28070SOL    HW186107  12.159   4.589   1.816
28070SOL    HW286108  12.177   4.737   1.847
28071SOL     OW86109  13.808   7.804   4.552
28071SOL    HW186110  13.781   7.895   4.566
28071SOL    HW286111  13.742   7.752   4.596
28072SOL     OW86112   6.628  13.729   7.189
28072SOL    HW186113   6.614  13.685   7.274
28072SOL    HW286114   6.544  13.769   7.169
28073SOL     OW86115  12.102   7.262   2.972
28073SOL    HW186116  12.040   7.309   2.917
28073SOL    HW286117  12.057   7.181   2.997
28074SOL     OW86118   3.551   9.898   0.048
28074SOL    HW186119   3.586   9.811   0.071
28074SOL    HW286120   3.624   9.958   0.063
28075SOL     OW86121   2.864   3.875  11.982
28075SOL    HW186122   2.950   3.884  11.941
28075SOL    HW286123   2.860   3.946  12.046
28076SOL     OW86124  12.404  10.700   5.934
28076SOL    HW186125  12.426  10.749   5.855
28076SOL    HW286126  12.404  10.765   6.004
28077SOL     OW86127   7.322   1.607  11.866
28077SOL    HW186128   7.270   1.688  11.874
28077SOL    HW286129   7.288   1.550  11.935
28078SOL     OW86130   3.196   1.060   3.055
28078SOL    HW186131   3.167   1.031   2.969
28078SOL    HW286132   3.212   1.154   3.044
28079SOL     OW86133   0.680   7.215  11.379
28079SOL    HW186134   0.758   7.270  11.391
28079SOL    HW286135   0.623   7.267  11.322
28080SOL     OW86136   5.315   6.006   3.059
28080SOL    HW186137   5.232   6.003   3.107
28080SOL    HW286138   5.382   6.009   3.127
28081SOL     OW86139  14.513  10.116  11.148
28081SOL    HW186140  14.425  10.146  11.166
28081SOL    HW286141  14.536  10.060  11.223
28082SOL     OW86142   8.969  12.544   8.549
28082SOL    HW186143   8.968  12.573   8.641
28082SOL    HW286144   8.938  12.619   8.500
28083SOL     OW86145   6.528  13.454   5.758
28083SOL    HW186146   6.533  13.382   5.821
28083SOL    HW286147   6.594  13.434   5.692
28084SOL     OW86148  12.729   6.918   7.924
28084SOL    HW186149  12.675   6.839   7.921
28084SOL    HW286150  12.686   6.974   7.988
28085SOL     OW86151   4.851   0.979   1.704
28085SOL    HW186152   4.815   0.892   1.686
28085SOL    HW286153   4.866   1.017   1.618
28086SOL     OW86154   1.089   0.809   2.746
28086SOL    HW186155   0.995   0.808   2.727
28086SOL    HW286156   1.130   0.816   2.660
28087SOL     OW86157   1.981   2.507   3.582
28087SOL    HW186158   2.047   2.577   3.575
28087SOL    HW286159   2.017   2.434   3.532
28088SOL     OW86160   3.431  13.380   2.731
28088SOL    HW186161   3.406  13.344   2.816
28088SOL    HW286162   3.512  13.336   2.709
28089SOL     OW86163  13.357  13.379  12.505
28089SOL    HW186164  13.394  13.352  12.421
28089SOL    HW286165  13.340  13.297  12.551
28090SOL     OW86166   0.145   9.490   7.784
28090SOL    HW186167   0.130   9.578   7.749
28090SOL    HW286168   0.214   9.502   7.850
28091SOL     OW86169   4.410   4.811   0.987
28091SOL    HW186170   4.317   4.826   0.967
28091SOL    HW286171   4.408   4.751   1.062
28092SOL     OW86172   3.641   2.671  11.062
28092SOL    HW186173   3.694   2.592  11.071
28092SOL    HW286174   3.584   2.653  10.987
28093SOL     OW86175  13.577   4.584  12.799
28093SOL    HW186176  13.602   4.674  12.776
28093SOL    HW286177  13.483   4.582  12.786
28094SOL     OW86178   5.856   4.576  12.870
28094SOL    HW186179   5.845   4.650  12.810
28094SOL    HW286180   5.946   4.584  12.901
28095SOL     OW86181  11.654   3.640   0.830
28095SOL    HW186182  11.624   3.706   0.767
28095SOL    HW286183  11.714   3.688   0.887
28096SOL     OW86184  14.202   4.874   9.459
28096SOL    HW186185  14.145   4.805   9.427
28096SOL    HW286186  14.244   4.909   9.380
28097SOL     OW86187   9.049   2.986   5.713
28097SOL    HW186188   9.031   2.896   5.688
28097SOL    HW286189   9.142   2.999   5.692
28098SOL     OW86190  13.225   6.870   8.857
28098SOL    HW186191  13.164   6.920   8.912
28098SOL    HW286192  13.191   6.781   8.859
28099SOL     OW86193   0.580  12.583   3.259
28099SOL    HW186194   0.567  12.525   3.333
28099SOL    HW286195   0.675  12.590   3.249
28100SOL     OW86196  11.488   9.934  12.372
28100SOL    HW186197  11.495  10.009  12.313
28100SOL    HW286198  11.420   9.879  12.333
28101SOL     OW86199   5.851  10.517   4.138
28101SOL    HW186200   5.888  10.429   4.144
28101SOL    HW286201   5.921  10.574   4.171
28102SOL     OW86202  11.297   0.255   7.089
28102SOL    HW186203  11.238   0.218   7.023
28102SOL    HW286204  11.385   0.232   7.058
28103SOL     OW86205  14.117   1.814   9.982
28103SOL    HW186206  14.212   1.819   9.989
28103SOL    HW286207  14.088   1.799  10.072
28104SOL     OW86208  10.134  13.727  12.115
28104SOL    HW186209  10.091  13.649  12.081
28104SOL    HW286210  10.095  13.799  12.067
28105SOL     OW86211   8.742  10.071   7.099
28105SOL    HW186212   8.705  10.072   7.011
28105SOL    HW286213   8.831  10.104   7.088
28106SOL     OW86214  12.825  11.516  12.918
28106SOL    HW186215  12.800  11.603  12.946
28106SOL    HW286216  12.916  11.525  12.889
28107SOL     OW86217  13.689   3.963   3.825
28107SOL    HW186218  13.717   4.034   3.883
28107SOL    HW286219  13.600   3.987   3.800
28108SOL     OW86220  11.188  13.431  14.292
28108SOL    HW186221  11.268  13.406  14.337
28108SOL    HW286222  11.168  13.519  14.325
28109SOL     OW86223   9.141  10.869  12.201
28109SOL    HW186224   9.196  10.864  12.124
28109SOL    HW286225   9.051  10.864  12.167
28110SOL     OW86226   7.224   4.060   3.724
28110SOL    HW186227   7.294   4.052   3.790
28110SOL    HW286228   7.175   3.978   3.732
28111SOL     OW86229   2.206  11.342   9.356
28111SOL    HW186230   2.231  11.360   9.446
28111SOL    HW286231   2.276  11.382   9.303
28112SOL     OW86232  12.312   0.551   5.309
28112SOL    HW186233  12.305   0.577   5.401
28112SOL    HW286234  12.222   0.558   5.275
28113SOL     OW86235  10.212   9.689   0.285
28113SOL    HW186236  10.204   9.620   0.352
28113SOL    HW286237  10.165   9.763   0.323
28114SOL     OW86238  14.324   1.574  12.221
28114SOL    HW186239  14.346   1.630  12.146
28114SOL    HW286240  14.231   1.591  12.237
28115SOL     OW86241   0.295  11.664   5.208
28115SOL    HW186242   0.253  11.748   5.228
28115SOL    HW286243   0.293  11.659   5.113
28116SOL     OW86244  11.907   5.297   9.187
28116SOL    HW186245  11.944   5.225   9.135
28116SOL    HW286246  11.886   5.258   9.271
28117SOL     OW86247  11.689   9.697  11.799
28117SOL    HW186248  11.678   9.756  11.874
28117SOL    HW286249  11.688   9.609  11.837
28118SOL     OW86250  10.782   7.122  10.013
28118SOL    HW186251  10.725   7.056   9.975
28118SOL    HW286252  10.723   7.182  10.058
28119SOL     OW86253  12.703  13.038   4.800
28119SOL    HW186254  12.636  12.976   4.826
28119SOL    HW286255  12.666  13.085   4.726
28120SOL     OW86256   9.183   6.981   3.184
28120SOL    HW186257   9.245   6.912   3.209
28120SOL    HW286258   9.098   6.936   3.179
28121SOL     OW86259  13.449   0.317  10.343
28121SOL    HW186260  13.518   0.383  10.342
28121SOL    HW286261  13.396   0.336  10.265
28122SOL     OW86262   2.738  10.479   9.498
28122SOL    HW186263   2.725  10.498   9.591
28122SOL    HW286264   2.650  10.478   9.461
28123SOL     OW86265   8.654  11.440   3.314
28123SOL    HW186266   8.625  11.459   3.225
28123SOL    HW286267   8.676  11.526   3.351
28124SOL     OW86268  11.094   1.986   5.805
28124SOL    HW186269  11.112   1.969   5.897
28124SOL    HW286270  11.163   1.939   5.758
28125SOL     OW86271   3.392  13.803   3.647
28125SOL    HW186272   3.304  13.840   3.649
28125SOL    HW286273   3.424  13.824   3.559
28126SOL     OW86274   5.392  10.556  12.045
28126SOL    HW186275   5.326  10.551  12.115
28126SOL    HW286276   5.344  10.586  11.968
28127SOL     OW86277   7.574  12.923  12.582
28127SOL    HW186278   7.489  12.880  12.578
28127SOL    HW286279   7.567  12.983  12.656
28128SOL     OW86280   3.390   1.131   7.828
28128SOL    HW186281   3.388   1.104   7.736
28128SOL    HW286282   3.323   1.199   7.835
28129SOL     OW86283   6.676   5.351   9.558
28129SOL    HW186284   6.754   5.297   9.544
28129SOL    HW286285   6.703   5.415   9.624
28130SOL     OW86286   1.961   7.127  10.449
28130SOL    HW186287   1.984   7.037  10.471
28130SOL    HW286288   1.881   7.120  10.397
28131SOL     OW86289  11.056   4.653   1.180
28131SOL    HW186290  11.135   4.637   1.232
28131SOL    HW286291  10.985   4.614   1.232
28132SOL     OW86292   8.089  10.883   2.596
28132SOL    HW186293   8.160  10.821   2.616
28132SOL    HW286294   8.091  10.946   2.668
28133SOL     OW86295   2.231  13.762   4.485
28133SOL    HW186296   2.239  13.779   4.579
28133SOL    HW286297   2.304  13.703   4.465
28134SOL     OW86298  14.597   7.188   2.168
28134SOL    HW186299  14.508   7.220   2.183
28134SOL    HW286300  14.626   7.157   2.254
28135SOL     OW86301   7.818  13.709   9.185
28135SOL    HW186302   7.761  13.757   9.245
28135SOL    HW286303   7.768  13.704   9.104
28136SOL     OW86304  11.109   8.305   7.851
28136SOL    HW186305  11.101   8.272   7.762
28136SOL    HW286306  11.181   8.368   7.847
28137SOL     OW86307   3.274  14.009   4.280
28137SOL    HW186308   3.234  13.980   4.362
28137SOL    HW286309   3.350  14.060   4.307
28138SOL     OW86310   9.416   8.310   5.535
28138SOL    HW186311   9.486   8.298   5.600
28138SOL    HW286312   9.379   8.223   5.523
28139SOL     OW86313  13.295   8.323   1.818
28139SOL    HW186314  13.361   8.337   1.886
28139SOL    HW286315  13.342   8.335   1.736
28140SOL     OW86316   2.233   4.432  14.714
28140SOL    HW186317   2.203   4.522  14.701
28140SOL    HW286318   2.265   4.429  14.803
28141SOL     OW86319  13.587   9.827   9.797
28141SOL    HW186320  13.591   9.810   9.891
28141SOL    HW286321  13.496   9.809   9.773
28142SOL     OW86322  10.688   2.391   8.516
28142SOL    HW186323  10.639   2.405   8.435
28142SOL    HW286324  10.779   2.406   8.492
28143SOL     OW86325   9.974  11.998   6.254
28143SOL    HW186326   9.941  11.974   6.168
28143SOL    HW286327   9.942  11.928   6.312
28144SOL     OW86328   2.764   6.187  13.597
28144SOL    HW186329   2.691   6.224  13.646
28144SOL    HW286330   2.812   6.263  13.564
28145SOL     OW86331  14.248  10.320  10.531
28145SOL    HW186332  14.224  10.409  10.505
28145SOL    HW286333  14.164  10.276  10.546
28146SOL     OW86334   7.806  13.579   1.182
28146SOL    HW186335   7.895  13.584   1.148
28146SOL    HW286336   7.753  13.627   1.118
28147SOL     OW86337  11.215   3.836  12.539
28147SOL    HW186338  11.196   3.910  12.482
28147SOL    HW286339  11.242   3.766  12.480
28148SOL     OW86340  12.752   9.002   0.994
28148SOL    HW186341  12.707   9.020   1.077
28148SOL    HW286342  12.838   9.043   1.003
28149SOL     OW86343  10.734   6.220  11.010
28149SOL    HW186344  10.741   6.128  10.987
28149SOL    HW286345  10.646   6.245  10.983
28150SOL     OW86346  12.470  11.308  11.109
28150SOL    HW186347  12.509  11.251  11.176
28150SOL    HW286348  12.544  11.343  11.060
28151SOL     OW86349   8.924   4.918  13.674
28151SOL    HW186350   9.018   4.902  13.686
28151SOL    HW286351   8.920   4.980  13.602
28152SOL     OW86352   5.047   8.818   3.948
28152SOL    HW186353   5.108   8.891   3.958
28152SOL    HW286354   5.095   8.742   3.981
28153SOL     OW86355   2.708   4.933   2.705
28153SOL    HW186356   2.740   5.021   2.688
28153SOL    HW286357   2.615   4.936   2.679
28154SOL     OW86358  13.448   1.543   2.894
28154SOL    HW186359  13.502   1.567   2.818
28154SOL    HW286360  13.471   1.609   2.961
28155SOL     OW86361   6.140   6.730   5.562
28155SOL    HW186362   6.225   6.764   5.535
28155SOL    HW286363   6.086   6.735   5.483
28156SOL     OW86364   8.313   5.192   0.804
28156SOL    HW186365   8.266   5.124   0.854
28156SOL    HW286366   8.296   5.272   0.853
28157SOL     OW86367   7.410  10.559  10.974
28157SOL    HW186368   7.357  10.598  11.043
28157SOL    HW286369   7.372  10.593  10.893
28158SOL     OW86370  10.762   5.595   1.759
28158SOL    HW186371  10.782   5.589   1.853
28158SOL    HW286372  10.736   5.686   1.746
28159SOL     OW86373   3.802  13.557   6.013
28159SOL    HW186374   3.893  13.581   5.999
28159SOL    HW286375   3.768  13.623   6.073
28160SOL     OW86376  11.471   9.365   7.881
28160SOL    HW186377  11.527   9.363   7.959
28160SOL    HW286378  11.443   9.274   7.870
28161SOL     OW86379  10.206  11.035  12.212
28161SOL    HW186380  10.116  11.063  12.232
28161SOL    HW286381  10.258  11.071  12.284
28162SOL     OW86382   0.257  13.394   3.884
28162SOL    HW186383   0.337  13.353   3.918
28162SOL    HW286384   0.255  13.481   3.923
28163SOL     OW86385  13.958  12.641  11.188
28163SOL    HW186386  13.863  12.631  11.189
28163SOL    HW286387  13.982  12.648  11.281
28164SOL     OW86388   0.474   4.611   7.781
28164SOL    HW186389   0.467   4.521   7.748
28164SOL    HW286390   0.509   4.601   7.870
28165SOL     OW86391  12.933   2.432   3.977
28165SOL    HW186392  12.908   2.520   4.004
28165SOL    HW286393  12.877   2.374   4.030
28166SOL     OW86394   6.257   2.439   3.535
28166SOL    HW186395   6.177   2.405   3.495
28166SOL    HW286396   6.252   2.533   3.521
28167SOL     OW86397   1.544   8.879  14.771
28167SOL    HW186398   1.472   8.895  14.711
28167SOL    HW286399   1.592   8.962  14.774
28168SOL     OW86400   9.213   3.130  13.887
28168SOL    HW186401   9.280   3.198  13.875
28168SOL    HW286402   9.250   3.053  13.844
28169SOL     OW86403   5.580  13.424   5.222
28169SOL    HW186404   5.616  13.349   5.270
28169SOL    HW286405   5.610  13.413   5.132
28170SOL     OW86406   0.332  10.724  14.472
28170SOL    HW186407   0.276  10.664  14.422
28170SOL    HW286408   0.421  10.695  14.452
28171SOL     OW86409   5.726  12.839   6.682
28171SOL    HW186410   5.778  12.760   6.701
28171SOL    HW286411   5.669  12.812   6.609
28172SOL     OW86412   5.805  13.101  13.291
28172SOL    HW186413   5.866  13.075  13.360
28172SOL    HW286414   5.859  13.112  13.213
28173SOL     OW86415   7.973   8.683   3.787
28173SOL    HW186416   7.922   8.607   3.814
28173SOL    HW286417   8.055   8.647   3.754
28174SOL     OW86418   0.318  12.634   3.654
28174SOL    HW186419   0.301  12.608   3.564
28174SOL    HW286420   0.258  12.581   3.706
28175SOL     OW86421   2.836  10.825   5.575
28175SOL    HW186422   2.779  10.901   5.587
28175SOL    HW286423   2.791  10.771   5.511
28176SOL     OW86424  10.875   9.611   6.085
28176SOL    HW186425  10.786   9.593   6.056
28176SOL    HW286426  10.866   9.630   6.178
28177SOL     OW86427   8.805   3.245   6.931
28177SOL    HW186428   8.762   3.328   6.953
28177SOL    HW286429   8.740   3.178   6.952
28178SOL     OW86430   6.734   6.606   2.031
28178SOL    HW186431   6.677   6.531   2.016
28178SOL    HW286432   6.774   6.589   2.116
28179SOL     OW86433  10.716   9.219   8.423
28179SOL    HW186434  10.670   9.148   8.468
28179SOL    HW286435  10.716   9.194   8.331
28180SOL     OW86436  11.733  12.811   5.640
28180SOL    HW186437  11.714  12.788   5.549
28180SOL    HW286438  11.650  12.846   5.674
28181SOL     OW86439  10.655   7.604   9.336
28181SOL    HW186440  10.569   7.607   9.377
28181SOL    HW286441  10.653   7.673   9.270
28182SOL     OW86442  12.954   7.211   3.624
28182SOL    HW186443  12.864   7.243   3.627
28182SOL    HW286444  12.949   7.131   3.573
28183SOL     OW86445   3.032   5.576  10.115
28183SOL    HW186446   2.987   5.563  10.198
28183SOL    HW286447   3.054   5.669  10.113
28184SOL     OW86448   9.411   2.870   3.892
28184SOL    HW186449   9.367   2.909   3.967
28184SOL    HW286450   9.377   2.919   3.817
28185SOL     OW86451   1.829  10.460   1.496
28185SOL    HW186452   1.803  10.411   1.575
28185SOL    HW286453   1.794  10.408   1.424
28186SOL     OW86454   4.729  12.511  11.844
28186SOL    HW186455   4.744  12.525  11.938
28186SOL    HW286456   4.639  12.540  11.830
28187SOL     OW86457   9.862   2.160   0.991
28187SOL    HW186458   9.845   2.254   0.997
28187SOL    HW286459   9.849   2.128   1.081
28188SOL     OW86460  13.782   7.990   7.928
28188SOL    HW186461  13.776   8.073   7.976
28188SOL    HW286462  13.691   7.970   7.905
28189SOL     OW86463   7.924   4.675  10.621
28189SOL    HW186464   8.001   4.665  10.678
28189SOL    HW286465   7.926   4.599  10.564
28190SOL     OW86466   7.889   4.402   2.694
28190SOL    HW186467   7.815   4.372   2.642
28190SOL    HW286468   7.946   4.326   2.703
28191SOL     OW86469   8.648   1.820   0.843
28191SOL    HW186470   8.707   1.844   0.772
28191SOL    HW286471   8.707   1.795   0.915
28192SOL     OW86472  10.943   9.726  10.021
28192SOL    HW186473  10.970   9.724   9.929
28192SOL    HW286474  11.003   9.788  10.062
28193SOL     OW86475   3.004  10.572  12.148
28193SOL    HW186476   3.003  10.567  12.052
28193SOL    HW286477   3.091  10.604  12.169
28194SOL     OW86478   7.762  11.315   4.374
28194SOL    HW186479   7.742  11.296   4.283
28194SOL    HW286480   7.677  11.339   4.412
28195SOL     OW86481   9.880  10.456   4.280
28195SOL    HW186482   9.876  10.517   4.205
28195SOL    HW286483   9.973  10.446   4.297
28196SOL     OW86484   8.554   8.047  10.863
28196SOL    HW186485   8.640   8.005  10.862
28196SOL    HW286486   8.493   7.976  10.840
28197SOL     OW86487   1.911   8.190   2.896
28197SOL    HW186488   1.872   8.182   2.983
28197SOL    HW286489   2.003   8.165   2.909
28198SOL     OW86490  14.452   1.310   9.458
28198SOL    HW186491  14.399   1.297   9.537
28198SOL    HW286492  14.542   1.304   9.489
28199SOL     OW86493   9.008  10.670  10.561
28199SOL    HW186494   9.039  10.608  10.496
28199SOL    HW286495   8.983  10.615  10.636
28200SOL     OW86496  13.898   7.992   7.660
28200SOL    HW186497  13.870   7.905   7.630
28200SOL    HW286498  13.843   8.010   7.735
28201SOL     OW86499   3.650  11.267  11.071
28201SOL    HW186500   3.601  11.223  11.002
28201SOL    HW286501   3.605  11.351  11.081
28202SOL     OW86502   9.396   6.723  12.575
28202SOL    HW186503   9.380   6.817  12.577
28202SOL    HW286504   9.366   6.695  12.489
28203SOL     OW86505  14.517   3.100  12.196
28203SOL    HW186506  14.493   3.107  12.104
28203SOL    HW286507  14.509   3.190  12.230
28204SOL     OW86508  12.544   6.915  13.080
28204SOL    HW186509  12.556   6.823  13.104
28204SOL    HW286510  12.476   6.913  13.012
28205SOL     OW86511   3.792   4.105   3.909
28205SOL    HW186512   3.824   4.193   3.925
28205SOL    HW286513   3.756   4.107   3.821
28206SOL     OW86514   9.039   0.337  12.483
28206SOL    HW186515   9.077   0.259  12.524
28206SOL    HW286516   9.108   0.403  12.489
28207SOL     OW86517  11.850   6.251   0.301
28207SOL    HW186518  11.922   6.272   0.242
28207SOL    HW286519  11.892   6.235   0.386
28208SOL     OW86520   3.074   6.719   1.989
28208SOL    HW186521   3.065   6.648   2.053
28208SOL    HW286522   3.126   6.785   2.034
28209SOL     OW86523   2.299  12.617   4.553
28209SOL    HW186524   2.204  12.602   4.551
28209SOL    HW286525   2.319  12.627   4.646
28210SOL     OW86526  14.079  12.927   6.466
28210SOL    HW186527  14.162  12.956   6.427
28210SOL    HW286528  14.021  13.002   6.457
28211SOL     OW86529  11.810   2.420  10.214
28211SOL    HW186530  11.800   2.506  10.255
28211SOL    HW286531  11.900   2.394  10.235
28212SOL     OW86532   3.464  11.427   0.387
28212SOL    HW186533   3.438  11.514   0.417
28212SOL    HW286534   3.539  11.404   0.441
28213SOL     OW86535   7.172   4.008   5.550
28213SOL    HW186536   7.137   4.087   5.510
28213SOL    HW286537   7.224   4.040   5.624
28214SOL     OW86538   7.220  12.502  14.137
28214SOL    HW186539   7.254  12.508  14.048
28214SOL    HW286540   7.290  12.458  14.186
28215SOL     OW86541   0.021   7.142   5.001
28215SOL    HW186542  14.842   7.176   4.933
28215SOL    HW286543   0.065   7.220   5.036
28216SOL     OW86544  10.590   7.019   9.234
28216SOL    HW186545  10.501   7.052   9.244
28216SOL    HW286546  10.637   7.090   9.192
28217SOL     OW86547   3.523   3.630   9.222
28217SOL    HW186548   3.603   3.612   9.273
28217SOL    HW286549   3.519   3.726   9.219
28218SOL     OW86550   7.859   3.784   1.191
28218SOL    HW186551   7.837   3.698   1.228
28218SOL    HW286552   7.861   3.843   1.266
28219SOL     OW86553  12.075   4.610   2.164
28219SOL    HW186554  11.996   4.558   2.149
28219SOL    HW286555  12.114   4.620   2.077
28220SOL     OW86556   6.286   2.418   5.391
28220SOL    HW186557   6.260   2.378   5.308
28220SOL    HW286558   6.316   2.506   5.368
28221SOL     OW86559   8.264   9.270   7.591
28221SOL    HW186560   8.240   9.336   7.657
28221SOL    HW286561   8.339   9.225   7.629
28222SOL     OW86562   5.004  11.423   5.852
28222SOL    HW186563   5.042  11.504   5.887
28222SOL    HW286564   5.078  11.366   5.835
28223SOL     OW86565  11.290  13.921   5.421
28223SOL    HW186566  11.302  13.984   5.492
28223SOL    HW286567  11.341  13.955   5.348
28224SOL     OW86568   7.499  10.461   0.551
28224SOL    HW186569   7.534  10.549   0.563
28224SOL    HW286570   7.573  10.403   0.573
28225SOL     OW86571   1.291   4.539  12.089
28225SOL    HW186572   1.281   4.558  12.182
28225SOL    HW286573   1.272   4.445  12.081
28226SOL     OW86574  10.844   3.258   3.659
28226SOL    HW186575  10.807   3.342   3.634
28226SOL    HW286576  10.844   3.207   3.578
28227SOL     OW86577   3.407  13.739   2.599
28227SOL    HW186578   3.446  13.683   2.532
28227SOL    HW286579   3.313  13.738   2.577
28228SOL     OW86580   5.851   0.888  13.107
28228SOL    HW186581   5.923   0.886  13.171
28228SOL    HW286582   5.811   0.974  13.119
28229SOL     OW86583   4.454   8.207  10.535
28229SOL    HW186584   4.444   8.133  10.475
28229SOL    HW286585   4.478   8.280  10.478
28230SOL     OW86586  14.064  14.756   9.611
28230SOL    HW186587  14.101  14.841   9.635
28230SOL    HW286588  14.006  14.775   9.537
28231SOL     OW86589   8.308  10.494   8.574
28231SOL    HW186590   8.352  10.577   8.557
28231SOL    HW286591   8.216  10.517   8.581
28232SOL     OW86592   5.625  12.561  13.026
28232SOL    HW186593   5.691  12.595  12.966
28232SOL    HW286594   5.674  12.537  13.104
28233SOL     OW86595   8.856   4.078   9.130
28233SOL    HW186596   8.865   3.983   9.121
28233SOL    HW286597   8.807   4.104   9.052
28234SOL     OW86598   1.771  13.609  12.113
28234SOL    HW186599   1.815  13.597  12.028
28234SOL    HW286600   1.821  13.554  12.173
28235SOL     OW86601  10.189   8.335   6.649
28235SOL    HW186602  10.172   8.292   6.565
28235SOL    HW286603  10.177   8.266   6.714
28236SOL     OW86604  13.540  10.698  12.498
28236SOL    HW186605  13.513  10.786  12.525
28236SOL    HW286606  13.469  10.641  12.527
28237SOL     OW86607   9.002  10.183   9.597
28237SOL    HW186608   8.949  10.241   9.542
28237SOL    HW286609   9.017  10.106   9.542
28238SOL     OW86610   5.381  11.261   7.706
28238SOL    HW186611   5.410  11.351   7.721
28238SOL    HW286612   5.359  11.257   7.613
28239SOL     OW86613   7.929  11.970   0.034
28239SOL    HW186614   7.856  11.987   0.094
28239SOL    HW286615   7.978  12.053   0.033
28240SOL     OW86616  14.748  10.546   8.954
28240SOL    HW186617  14.821  10.564   9.013
28240SOL    HW286618  14.670  10.558   9.007
28241SOL     OW86619   7.613  10.872   4.089
28241SOL    HW186620   7.653  10.950   4.052
28241SOL    HW286621   7.528  10.901   4.120
28242SOL     OW86622  10.246   0.343   4.133
28242SOL    HW186623  10.294   0.263   4.111
28242SOL    HW286624  10.310   0.399   4.177
28243SOL     OW86625   5.313  12.949   8.017
28243SOL    HW186626   5.348  12.860   8.023
28243SOL    HW286627   5.219  12.940   8.035
28244SOL     OW86628   9.778   2.227   1.756
28244SOL    HW186629   9.800   2.214   1.848
28244SOL    HW286630   9.802   2.145   1.713
28245SOL     OW86631   0.867  12.789   5.826
28245SOL    HW186632   0.953  12.832   5.822
28245SOL    HW286633   0.868  12.729   5.751
28246SOL     OW86634   0.938   4.190   1.756
28246SOL    HW186635   0.884   4.234   1.691
28246SOL    HW286636   0.996   4.134   1.704
28247SOL     OW86637   2.961   5.649  10.744
28247SOL    HW186638   2.941   5.738  10.773
28247SOL    HW286639   3.057   5.644  10.745
28248SOL     OW86640  10.713  13.241  12.178
28248SOL    HW186641  10.702  13.146  12.184
28248SOL    HW286642  10.672  13.275  12.258
28249SOL     OW86643   6.888  13.262  14.107
28249SOL    HW186644   6.859  13.177  14.140
28249SOL    HW286645   6.963  13.242  14.051
28250SOL     OW86646   5.747  10.607  10.548
28250SOL    HW186647   5.796  10.526  10.534
28250SOL    HW286648   5.663  10.591  10.503
28251SOL     OW86649   9.418   9.002   0.229
28251SOL    HW186650   9.464   9.034   0.152
28251SOL    HW286651   9.423   9.073   0.292
28252SOL     OW86652  12.346   1.801   2.794
28252SOL    HW186653  12.349   1.788   2.888
28252SOL    HW286654  12.433   1.774   2.763
28253SOL     OW86655   2.107   7.404   4.871
28253SOL    HW186656   2.151   7.355   4.802
28253SOL    HW286657   2.173   7.467   4.901
28254SOL     OW86658  10.300   8.506   7.108
28254SOL    HW186659  10.221   8.547   7.143
28254SOL    HW286660  10.267   8.442   7.044
28255SOL     OW86661   5.104   2.868   7.827
28255SOL    HW186662   5.061   2.854   7.743
28255SOL    HW286663   5.178   2.925   7.807
28256SOL     OW86664   6.456  13.379   6.712
28256SOL    HW186665   6.394  13.305   6.712
28256SOL    HW286666   6.402  13.456   6.695
28257SOL     OW86667   8.114   4.268   7.067
28257SOL    HW186668   8.083   4.189   7.023
28257SOL    HW286669   8.034   4.311   7.099
28258SOL     OW86670   0.790   8.156  14.132
28258SOL    HW186671   0.720   8.092  14.145
28258SOL    HW286672   0.744   8.240  14.124
28259SOL     OW86673  14.868  12.885  13.480
28259SOL    HW186674   0.009  12.976  13.504
28259SOL    HW286675   0.004  12.881  13.386
28260SOL     OW86676  13.181   0.215  12.392
28260SOL    HW186677  13.221   0.129  12.396
28260SOL    HW286678  13.091   0.199  12.363
28261SOL     OW86679  13.365   8.824   1.525
28261SOL    HW186680  13.274   8.795   1.536
28261SOL    HW286681  13.412   8.745   1.499
28262SOL     OW86682   4.358   4.680  10.374
28262SOL    HW186683   4.387   4.678  10.282
28262SOL    HW286684   4.263   4.692  10.369
28263SOL     OW86685  13.401  10.578   4.410
28263SOL    HW186686  13.349  10.498   4.410
28263SOL    HW286687  13.457  10.570   4.333
28264SOL     OW86688  12.888   9.837   6.257
28264SOL    HW186689  12.867   9.930   6.254
28264SOL    HW286690  12.905   9.813   6.165
28265SOL     OW86691   4.229  12.501   3.771
28265SOL    HW186692   4.230  12.542   3.857
28265SOL    HW286693   4.136  12.487   3.752
28266SOL     OW86694  14.618   4.598  14.558
28266SOL    HW186695  14.664   4.619  14.639
28266SOL    HW286696  14.596   4.506  14.565
28267SOL     OW86697  12.634   4.147   2.757
28267SOL    HW186698  12.572   4.169   2.827
28267SOL    HW286699  12.629   4.221   2.697
28268SOL     OW86700  10.463   9.452  10.474
28268SOL    HW186701  10.510   9.369  10.464
28268SOL    HW286702  10.465   9.491  10.387
28269SOL     OW86703   5.782   6.515  14.495
28269SOL    HW186704   5.840   6.486  14.564
28269SOL    HW286705   5.702   6.463  14.507
28270SOL     OW86706   5.440   4.268   0.322
28270SOL    HW186707   5.460   4.352   0.280
28270SOL    HW286708   5.508   4.257   0.388
28271SOL     OW86709   8.055   2.971   2.971
28271SOL    HW186710   8.101   2.894   3.002
28271SOL    HW286711   8.082   2.981   2.880
28272SOL     OW86712  12.484   2.698   8.802
28272SOL    HW186713  12.421   2.745   8.857
28272SOL    HW286714  12.435   2.623   8.769
28273SOL     OW86715   8.796   7.297   0.966
28273SOL    HW186716   8.757   7.236   0.904
28273SOL    HW286717   8.813   7.244   1.044
28274SOL     OW86718  11.947   8.578  11.987
28274SOL    HW186719  11.920   8.495  11.949
28274SOL    HW286720  12.007   8.616  11.922
28275SOL     OW86721   2.853  10.908   9.831
28275SOL    HW186722   2.875  10.925   9.739
28275SOL    HW286723   2.928  10.940   9.880
28276SOL     OW86724   0.567   4.188   1.730
28276SOL    HW186725   0.638   4.223   1.784
28276SOL    HW286726   0.557   4.252   1.659
28277SOL     OW86727   5.997   8.965   3.677
28277SOL    HW186728   6.070   8.997   3.623
28277SOL    HW286729   6.005   9.014   3.759
28278SOL     OW86730  14.102   8.750  14.840
28278SOL    HW186731  14.102   8.657  14.861
28278SOL    HW286732  14.141   8.755  14.752
28279SOL     OW86733   8.638   4.480  14.118
28279SOL    HW186734   8.548   4.505  14.134
28279SOL    HW286735   8.661   4.422  14.192
28280SOL     OW86736  14.070   5.329   3.487
28280SOL    HW186737  14.148   5.385   3.485
28280SOL    HW286738  14.048   5.321   3.579
28281SOL     OW86739  11.590   7.461   3.631
28281SOL    HW186740  11.496   7.452   3.645
28281SOL    HW286741  11.598   7.488   3.539
28282SOL     OW86742   1.714   7.927  13.330
28282SOL    HW186743   1.759   8.009  13.349
28282SOL    HW286744   1.646   7.951  13.267
28283SOL     OW86745   0.624  13.878   3.867
28283SOL    HW186746   0.572  13.877   3.948
28283SOL    HW286747   0.710  13.911   3.895
28284SOL     OW86748  11.942   3.179   1.456
28284SOL    HW186749  11.870   3.242   1.462
28284SOL    HW286750  11.920   3.112   1.521
28285SOL     OW86751   3.951  13.119  10.232
28285SOL    HW186752   4.039  13.119  10.196
28285SOL    HW286753   3.956  13.177  10.307
28286SOL     OW86754   7.797  12.420  10.537
28286SOL    HW186755   7.818  12.345  10.593
28286SOL    HW286756   7.703  12.413  10.521
28287SOL     OW86757  11.551  13.007   4.574
28287SOL    HW186758  11.509  12.958   4.503
28287SOL    HW286759  11.644  12.985   4.566
28288SOL     OW86760  14.135   4.037   9.308
28288SOL    HW186761  14.101   4.035   9.219
28288SOL    HW286762  14.167   3.948   9.323
28289SOL     OW86763   0.616  12.706   1.320
28289SOL    HW186764   0.639  12.682   1.409
28289SOL    HW286765   0.661  12.642   1.265
28290SOL     OW86766   3.316   6.447  14.804
28290SOL    HW186767   3.313   6.542  14.788
28290SOL    HW286768   3.228   6.417  14.785
28291SOL     OW86769  10.894   2.254   0.767
28291SOL    HW186770  10.833   2.210   0.708
28291SOL    HW286771  10.931   2.183   0.820
28292SOL     OW86772  12.254   5.715   0.515
28292SOL    HW186773  12.292   5.699   0.429
28292SOL    HW286774  12.323   5.759   0.565
28293SOL     OW86775  10.334  13.469   5.972
28293SOL    HW186776  10.267  13.483   6.039
28293SOL    HW286777  10.401  13.416   6.016
28294SOL     OW86778   4.029  10.973   1.188
28294SOL    HW186779   4.064  10.886   1.170
28294SOL    HW286780   4.107  11.027   1.202
28295SOL     OW86781  12.036   2.547   2.717
28295SOL    HW186782  12.095   2.602   2.665
28295SOL    HW286783  11.961   2.604   2.735
28296SOL     OW86784   5.571   8.680   1.210
28296SOL    HW186785   5.576   8.699   1.117
28296SOL    HW286786   5.617   8.752   1.253
28297SOL     OW86787   7.374   1.231  11.870
28297SOL    HW186788   7.310   1.292  11.833
28297SOL    HW286789   7.459   1.269  11.848
28298SOL     OW86790  14.332   2.473   2.023
28298SOL    HW186791  14.370   2.387   2.007
28298SOL    HW286792  14.353   2.492   2.114
28299SOL     OW86793  11.776  13.540   3.544
28299SOL    HW186794  11.859  13.540   3.593
28299SOL    HW286795  11.788  13.472   3.477
28300SOL     OW86796  14.000   0.732   1.193
28300SOL    HW186797  14.039   0.818   1.173
28300SOL    HW286798  13.965   0.703   1.109
28301SOL     OW86799   8.486   4.522  12.764
28301SOL    HW186800   8.531   4.605  12.748
28301SOL    HW286801   8.490   4.511  12.859
28302SOL     OW86802   3.229  11.930   7.607
28302SOL    HW186803   3.164  11.894   7.547
28302SOL    HW286804   3.178  11.973   7.676
28303SOL     OW86805   3.046   4.888  11.989
28303SOL    HW186806   3.027   4.888  11.896
28303SOL    HW286807   2.960   4.884  12.031
28304SOL     OW86808   7.945   1.497   1.825
28304SOL    HW186809   7.899   1.447   1.892
28304SOL    HW286810   7.933   1.589   1.851
28305SOL     OW86811  11.706  10.449  11.373
28305SOL    HW186812  11.767  10.484  11.309
28305SOL    HW286813  11.711  10.509  11.447
28306SOL     OW86814   0.504   2.075   2.276
28306SOL    HW186815   0.474   1.985   2.289
28306SOL    HW286816   0.600   2.068   2.274
28307SOL     OW86817   8.879   8.177   4.723
28307SOL    HW186818   8.935   8.162   4.799
28307SOL    HW286819   8.794   8.200   4.761
28308SOL     OW86820  14.383   3.325   5.279
28308SOL    HW186821  14.462   3.296   5.233
28308SOL    HW286822  14.363   3.410   5.239
28309SOL     OW86823  13.582   3.745  11.598
28309SOL    HW186824  13.563   3.761  11.690
28309SOL    HW286825  13.667   3.701  11.598
28310SOL     OW86826   4.089  12.265  10.087
28310SOL    HW186827   4.020  12.280  10.152
28310SOL    HW286828   4.105  12.351  10.049
28311SOL     OW86829   7.480   3.516  11.852
28311SOL    HW186830   7.385   3.499  11.857
28311SOL    HW286831   7.511   3.451  11.788
28312SOL     OW86832   0.694   4.408   9.285
28312SOL    HW186833   0.661   4.490   9.323
28312SOL    HW286834   0.617   4.352   9.279
28313SOL     OW86835   9.744   4.101   5.882
28313SOL    HW186836   9.796   4.096   5.802
28313SOL    HW286837   9.796   4.156   5.941
28314SOL     OW86838   5.652  14.265   5.472
28314SOL    HW186839   5.662  14.355   5.502
28314SOL    HW286840   5.691  14.213   5.542
28315SOL     OW86841   5.389  11.881   5.337
28315SOL    HW186842   5.376  11.810   5.400
28315SOL    HW286843   5.480  11.906   5.348
28316SOL     OW86844  11.045   4.421   6.409
28316SOL    HW186845  11.129   4.467   6.417
28316SOL    HW286846  11.029   4.418   6.315
28317SOL     OW86847   8.183  11.716   1.673
28317SOL    HW186848   8.261  11.698   1.620
28317SOL    HW286849   8.187  11.810   1.690
28318SOL     OW86850   6.010   2.173   4.140
28318SOL    HW186851   6.046   2.117   4.071
28318SOL    HW286852   6.073   2.167   4.211
28319SOL     OW86853  12.081  10.932  10.094
28319SOL    HW186854  12.166  10.975  10.104
28319SOL    HW286855  12.045  10.927  10.182
28320SOL     OW86856  10.410  14.379  11.398
28320SOL    HW186857  10.467  14.378  11.321
28320SOL    HW286858  10.460  14.336  11.466
28321SOL     OW86859  11.378   1.839   6.889
28321SOL    HW186860  11.337   1.914   6.846
28321SOL    HW286861  11.311   1.807   6.949
28322SOL     OW86862   4.264   1.955   2.512
28322SOL    HW186863   4.275   2.037   2.465
28322SOL    HW286864   4.291   1.974   2.602
28323SOL     OW86865   5.693   2.688   9.599
28323SOL    HW186866   5.610   2.733   9.584
28323SOL    HW286867   5.701   2.628   9.524
28324SOL     OW86868  10.565   5.767   2.842
28324SOL    HW186869  10.639   5.805   2.794
28324SOL    HW286870  10.497   5.834   2.838
28325SOL     OW86871   1.232   6.972   3.269
28325SOL    HW186872   1.166   7.040   3.256
28325SOL    HW286873   1.198   6.896   3.221
28326SOL     OW86874  14.233  11.009   4.072
28326SOL    HW186875  14.301  10.942   4.063
28326SOL    HW286876  14.205  11.027   3.982
28327SOL     OW86877   2.084   5.215  13.703
28327SOL    HW186878   2.095   5.309  13.690
28327SOL    HW286879   2.173   5.180  13.706
28328SOL     OW86880   6.110   7.274   8.608
28328SOL    HW186881   6.044   7.290   8.541
28328SOL    HW286882   6.133   7.361   8.641
28329SOL     OW86883   5.552   4.042   8.047
28329SOL    HW186884   5.472   4.059   7.998
28329SOL    HW286885   5.566   4.120   8.099
28330SOL     OW86886   7.595   0.828   6.180
28330SOL    HW186887   7.600   0.899   6.245
28330SOL    HW286888   7.546   0.866   6.107
28331SOL     OW86889  14.119  11.497  13.592
28331SOL    HW186890  14.200  11.487  13.642
28331SOL    HW286891  14.129  11.581  13.547
28332SOL     OW86892   7.932   4.722  11.519
28332SOL    HW186893   7.936   4.726  11.615
28332SOL    HW286894   8.011   4.675  11.494
28333SOL     OW86895   6.278   0.415   9.973
28333SOL    HW186896   6.242   0.443   9.889
28333SOL    HW286897   6.243   0.327   9.987
28334SOL     OW86898   1.953   1.308  14.402
28334SOL    HW186899   1.908   1.364  14.465
28334SOL    HW286900   2.013   1.255  14.455
28335SOL     OW86901   6.337   0.750   1.489
28335SOL    HW186902   6.245   0.737   1.512
28335SOL    HW286903   6.335   0.806   1.411
28336SOL     OW86904   8.370   6.268   3.649
28336SOL    HW186905   8.294   6.315   3.615
28336SOL    HW286906   8.433   6.337   3.671
28337SOL     OW86907  11.188   3.394   7.643
28337SOL    HW186908  11.136   3.317   7.616
28337SOL    HW286909  11.163   3.408   7.734
28338SOL     OW86910   5.451   4.935   6.761
28338SOL    HW186911   5.461   4.925   6.666
28338SOL    HW286912   5.507   5.009   6.783
28339SOL     OW86913   7.018   4.045  10.865
28339SOL    HW186914   7.051   4.061  10.777
28339SOL    HW286915   7.038   3.953  10.882
28340SOL     OW86916   5.309   7.623   0.346
28340SOL    HW186917   5.318   7.615   0.441
28340SOL    HW286918   5.216   7.641   0.332
28341SOL     OW86919  14.310   6.315  13.970
28341SOL    HW186920  14.298   6.408  13.950
28341SOL    HW286921  14.222   6.284  13.992
28342SOL     OW86922   2.299  11.800   0.957
28342SOL    HW186923   2.359  11.760   1.021
28342SOL    HW286924   2.353  11.813   0.879
28343SOL     OW86925  14.825  11.401   1.895
28343SOL    HW186926  14.844  11.486   1.934
28343SOL    HW286927  14.737  11.410   1.858
28344SOL     OW86928   2.805   1.026   8.953
28344SOL    HW186929   2.793   0.947   8.900
28344SOL    HW286930   2.755   1.094   8.906
28345SOL     OW86931   2.885   1.937  12.477
28345SOL    HW186932   2.904   1.935  12.383
28345SOL    HW286933   2.806   1.992  12.485
28346SOL     OW86934   7.166   9.077   6.643
28346SOL    HW186935   7.127   9.055   6.559
28346SOL    HW286936   7.178   9.172   6.640
28347SOL     OW86937  13.049   9.854  11.228
28347SOL    HW186938  12.968   9.806  11.210
28347SOL    HW286939  13.091   9.863  11.142
28348SOL     OW86940  10.935   3.500   9.891
28348SOL    HW186941  10.909   3.580   9.936
28348SOL    HW286942  10.853   3.450   9.881
28349SOL     OW86943   8.409  13.585  12.847
28349SOL    HW186944   8.322  13.586  12.807
28349SOL    HW286945   8.397  13.538  12.929
28350SOL     OW86946  13.678   0.828   1.392
28350SOL    HW186947  13.648   0.738   1.377
28350SOL    HW286948  13.597   0.878   1.400
28351SOL     OW86949   0.722  11.148   0.407
28351SOL    HW186950   0.633  11.179   0.423
28351SOL    HW286951   0.713  11.085   0.335
28352SOL     OW86952   3.340   0.073  11.650
28352SOL    HW186953   3.394   0.092  11.727
28352SOL    HW286954   3.325  14.858  11.654
28353SOL     OW86955   9.682   6.922   6.950
28353SOL    HW186956   9.588   6.938   6.954
28353SOL    HW286957   9.692   6.846   6.891
28354SOL     OW86958   9.906   3.311   2.981
28354SOL    HW186959   9.944   3.398   2.973
28354SOL    HW286960   9.812   3.324   2.965
28355SOL     OW86961   9.907   6.164   8.154
28355SOL    HW186962   9.946   6.121   8.230
28355SOL    HW286963   9.976   6.219   8.119
28356SOL     OW86964   6.410  14.801   6.440
28356SOL    HW186965   6.378  14.793   6.350
28356SOL    HW286966   6.468  14.877   6.438
28357SOL     OW86967   9.749   8.188   8.072
28357SOL    HW186968   9.693   8.213   7.999
28357SOL    HW286969   9.738   8.093   8.079
28358SOL     OW86970   1.762  10.505  11.888
28358SOL    HW186971   1.794  10.591  11.915
28358SOL    HW286972   1.668  10.517  11.878
28359SOL     OW86973   4.363  11.336   6.659
28359SOL    HW186974   4.274  11.324   6.625
28359SOL    HW286975   4.352  11.357   6.751
28360SOL     OW86976  13.784  10.149  13.114
28360SOL    HW186977  13.757  10.160  13.205
28360SOL    HW286978  13.712  10.101  13.073
28361SOL     OW86979   3.291   0.579   3.328
28361SOL    HW186980   3.308   0.657   3.274
28361SOL    HW286981   3.249   0.518   3.268
28362SOL     OW86982  12.748  10.646   2.750
28362SOL    HW186983  12.654  10.634   2.738
28362SOL    HW286984  12.772  10.583   2.818
28363SOL     OW86985   1.674  10.920  11.757
28363SOL    HW186986   1.619  10.863  11.704
28363SOL    HW286987   1.722  10.861  11.815
28364SOL     OW86988   8.137   4.957   9.201
28364SOL    HW186989   8.052   4.923   9.173
28364SOL    HW286990   8.200   4.920   9.139
28365SOL     OW86991   5.313  14.302   0.278
28365SOL    HW186992   5.311  14.225   0.335
28365SOL    HW286993   5.311  14.266   0.190
28366SOL     OW86994  10.832   6.384   5.657
28366SOL    HW186995  10.804   6.376   5.566
28366SOL    HW286996  10.854   6.476   5.668
28367SOL     OW86997  13.509   0.847   1.737
28367SOL    HW186998  13.506   0.830   1.831
28367SOL    HW286999  13.422   0.880   1.716
28368SOL     OW87000  10.472   9.560   7.323
28368SOL    HW187001  10.434   9.642   7.355
28368SOL    HW287002  10.565   9.567   7.344
28369SOL     OW87003  13.864   4.685   1.373
28369SOL    HW187004  13.907   4.629   1.437
28369SOL    HW287005  13.816   4.749   1.425
28370SOL     OW87006   3.894  14.840   8.079
28370SOL    HW187007   3.865  14.847   8.170
28370SOL    HW287008   3.922   0.049   8.056
28371SOL     OW87009  14.307   5.910   0.507
28371SOL    HW187010  14.239   5.974   0.529
28371SOL    HW287011  14.375   5.923   0.574
28372SOL     OW87012   3.321   9.016   5.588
28372SOL    HW187013   3.262   9.007   5.514
28372SOL    HW287014   3.351   9.107   5.585
28373SOL     OW87015  14.622   0.694  12.890
28373SOL    HW187016  14.602   0.765  12.951
28373SOL    HW287017  14.562   0.623  12.914
28374SOL     OW87018  10.986   6.728   0.576
28374SOL    HW187019  10.961   6.647   0.531
28374SOL    HW287020  11.035   6.777   0.510
28375SOL     OW87021   1.410   3.252  13.928
28375SOL    HW187022   1.485   3.265  13.987
28375SOL    HW287023   1.448   3.208  13.852
28376SOL     OW87024   1.627   2.655  12.536
28376SOL    HW187025   1.600   2.743  12.561
28376SOL    HW287026   1.630   2.606  12.618
28377SOL     OW87027   9.477  13.039   9.688
28377SOL    HW187028   9.428  13.102   9.741
28377SOL    HW287029   9.501  13.087   9.609
28378SOL     OW87030  12.886   1.310   0.728
28378SOL    HW187031  12.879   1.220   0.759
28378SOL    HW287032  12.843   1.310   0.643
28379SOL     OW87033   8.549   8.683   1.765
28379SOL    HW187034   8.575   8.613   1.704
28379SOL    HW287035   8.531   8.758   1.709
28380SOL     OW87036   4.879   0.364   7.917
28380SOL    HW187037   4.928   0.431   7.868
28380SOL    HW287038   4.802   0.347   7.863
28381SOL     OW87039   4.882   2.092  14.720
28381SOL    HW187040   4.834   2.130  14.646
28381SOL    HW287041   4.827   2.019  14.749
28382SOL     OW87042   1.812   8.406  11.123
28382SOL    HW187043   1.863   8.453  11.189
28382SOL    HW287044   1.819   8.314  11.148
28383SOL     OW87045   5.842   2.372  12.900
28383SOL    HW187046   5.873   2.283  12.883
28383SOL    HW287047   5.756   2.375  12.857
28384SOL     OW87048  11.660  12.447  13.907
28384SOL    HW187049  11.622  12.514  13.964
28384SOL    HW287050  11.750  12.475  13.893
28385SOL     OW87051   3.653  13.864   1.622
28385SOL    HW187052   3.633  13.957   1.634
28385SOL    HW287053   3.734  13.851   1.670
28386SOL     OW87054   4.466   1.483   4.125
28386SOL    HW187055   4.399   1.542   4.158
28386SOL    HW287056   4.498   1.525   4.046
28387SOL     OW87057  12.475   8.124  12.289
28387SOL    HW187058  12.499   8.088  12.375
28387SOL    HW287059  12.445   8.048  12.239
28388SOL     OW87060  10.961   9.815   7.099
28388SOL    HW187061  10.999   9.750   7.158
28388SOL    HW287062  10.996   9.794   7.013
28389SOL     OW87063   3.831   0.421   4.540
28389SOL    HW187064   3.892   0.487   4.574
28389SOL    HW287065   3.770   0.470   4.486
28390SOL     OW87066  11.823   4.120   4.653
28390SOL    HW187067  11.795   4.042   4.701
28390SOL    HW287068  11.757   4.186   4.676
28391SOL     OW87069   1.049   2.642   7.366
28391SOL    HW187070   1.012   2.592   7.439
28391SOL    HW287071   1.072   2.575   7.301
28392SOL     OW87072   9.167   8.303  12.626
28392SOL    HW187073   9.232   8.238  12.599
28392SOL    HW287074   9.130   8.335  12.544
28393SOL     OW87075   3.854   6.227   4.002
28393SOL    HW187076   3.901   6.279   4.068
28393SOL    HW287077   3.774   6.198   4.046
28394SOL     OW87078   9.266   7.927   1.752
28394SOL    HW187079   9.216   7.845   1.749
28394SOL    HW287080   9.225   7.977   1.823
28395SOL     OW87081  12.294   7.723  11.039
28395SOL    HW187082  12.245   7.646  11.012
28395SOL    HW287083  12.233   7.796  11.030
28396SOL     OW87084  12.360  10.098   2.379
28396SOL    HW187085  12.284  10.059   2.422
28396SOL    HW287086  12.399  10.154   2.446
28397SOL     OW87087   1.371   9.569  12.880
28397SOL    HW187088   1.364   9.559  12.975
28397SOL    HW287089   1.442   9.511  12.855
28398SOL     OW87090   7.316   9.701   3.915
28398SOL    HW187091   7.281   9.788   3.936
28398SOL    HW287092   7.343   9.708   3.824
28399SOL     OW87093   6.209  13.681   8.689
28399SOL    HW187094   6.260  13.715   8.762
28399SOL    HW287095   6.225  13.743   8.618
28400SOL     OW87096   1.652  12.825   8.617
28400SOL    HW187097   1.632  12.811   8.525
28400SOL    HW287098   1.567  12.821   8.661
28401SOL     OW87099   1.253  13.509  13.035
28401SOL    HW187100   1.305  13.577  13.077
28401SOL    HW287101   1.169  13.551  13.016
28402SOL     OW87102  11.456   4.833   1.922
28402SOL    HW187103  11.500   4.821   1.838
28402SOL    HW287104  11.384   4.893   1.904
28403SOL     OW87105  13.392   2.921  12.073
28403SOL    HW187106  13.343   2.843  12.099
28403SOL    HW287107  13.454   2.889  12.007
28404SOL     OW87108  13.863   2.785  12.562
28404SOL    HW187109  13.792   2.769  12.501
28404SOL    HW287110  13.932   2.826  12.509
28405SOL     OW87111   1.398   8.135   9.940
28405SOL    HW187112   1.435   8.149  10.027
28405SOL    HW287113   1.387   8.223   9.904
28406SOL     OW87114   2.892  10.831   0.352
28406SOL    HW187115   2.903  10.904   0.413
28406SOL    HW287116   2.932  10.757   0.397
28407SOL     OW87117   2.421  10.442  11.855
28407SOL    HW187118   2.389  10.512  11.799
28407SOL    HW287119   2.483  10.393  11.800
28408SOL     OW87120  11.233  10.642   9.279
28408SOL    HW187121  11.226  10.685   9.194
28408SOL    HW287122  11.158  10.582   9.281
28409SOL     OW87123   9.464   7.370   8.912
28409SOL    HW187124   9.527   7.314   8.867
28409SOL    HW287125   9.440   7.321   8.991
28410SOL     OW87126   4.935   0.135  11.789
28410SOL    HW187127   4.983   0.091  11.719
28410SOL    HW287128   4.887   0.065  11.832
28411SOL     OW87129  10.523  12.381   4.437
28411SOL    HW187130  10.521  12.396   4.532
28411SOL    HW287131  10.613  12.352   4.419
28412SOL     OW87132   3.117  10.741   7.265
28412SOL    HW187133   3.055  10.739   7.191
28412SOL    HW287134   3.104  10.657   7.309
28413SOL     OW87135   8.729  14.465  13.280
28413SOL    HW187136   8.672  14.539  13.302
28413SOL    HW287137   8.672  14.388  13.286
28414SOL     OW87138   5.551   5.384  13.377
28414SOL    HW187139   5.569   5.354  13.466
28414SOL    HW287140   5.635   5.415  13.344
28415SOL     OW87141   9.044   0.723   3.511
28415SOL    HW187142   9.032   0.771   3.592
28415SOL    HW287143   8.958   0.682   3.495
28416SOL     OW87144   1.096   3.185  11.035
28416SOL    HW187145   1.078   3.261  11.090
28416SOL    HW287146   1.010   3.156  11.004
28417SOL     OW87147   9.249   3.163  13.536
28417SOL    HW187148   9.236   3.250  13.498
28417SOL    HW287149   9.342   3.160  13.557
28418SOL     OW87150   2.363   8.474   1.194
28418SOL    HW187151   2.454   8.457   1.172
28418SOL    HW287152   2.350   8.428   1.277
28419SOL     OW87153   1.232   6.942   5.046
28419SOL    HW187154   1.144   6.909   5.027
28419SOL    HW287155   1.232   6.957   5.141
28420SOL     OW87156   3.759   1.734   5.894
28420SOL    HW187157   3.749   1.669   5.825
28420SOL    HW287158   3.691   1.712   5.958
28421SOL     OW87159  10.213   5.446   4.222
28421SOL    HW187160  10.268   5.508   4.173
28421SOL    HW287161  10.273   5.375   4.246
28422SOL     OW87162   1.623   2.502  13.158
28422SOL    HW187163   1.555   2.522  13.094
28422SOL    HW287164   1.607   2.411  13.183
28423SOL     OW87165   8.841  13.066   6.889
28423SOL    HW187166   8.804  12.989   6.932
28423SOL    HW287167   8.765  13.110   6.849
28424SOL     OW87168   5.126   9.152   6.654
28424SOL    HW187169   5.198   9.095   6.626
28424SOL    HW287170   5.067   9.094   6.702
28425SOL     OW87171   3.832   7.592   6.579
28425SOL    HW187172   3.913   7.629   6.613
28425SOL    HW287173   3.785   7.561   6.657
28426SOL     OW87174   5.972   6.095   0.188
28426SOL    HW187175   5.963   6.184   0.155
28426SOL    HW287176   6.002   6.106   0.278
28427SOL     OW87177   8.531  11.794  14.232
28427SOL    HW187178   8.609  11.846  14.249
28427SOL    HW287179   8.555  11.738  14.157
28428SOL     OW87180  13.875   2.674   7.935
28428SOL    HW187181  13.879   2.725   7.853
28428SOL    HW287182  13.783   2.679   7.961
28429SOL     OW87183   0.503   0.749   9.424
28429SOL    HW187184   0.581   0.769   9.477
28429SOL    HW287185   0.457   0.682   9.474
28430SOL     OW87186  10.684   3.061   0.740
28430SOL    HW187187  10.723   3.072   0.827
28430SOL    HW287188  10.612   3.000   0.754
28431SOL     OW87189   9.658  11.909  10.638
28431SOL    HW187190   9.699  11.950  10.714
28431SOL    HW287191   9.585  11.967  10.615
28432SOL     OW87192   9.739  13.272  11.779
28432SOL    HW187193   9.738  13.201  11.843
28432SOL    HW287194   9.681  13.338  11.816
28433SOL     OW87195   3.029  12.846   5.399
28433SOL    HW187196   3.070  12.761   5.415
28433SOL    HW287197   2.961  12.829   5.334
28434SOL     OW87198   1.129   4.226   0.315
28434SOL    HW187199   1.196   4.291   0.335
28434SOL    HW287200   1.177   4.146   0.296
28435SOL     OW87201   0.927   4.003   7.110
28435SOL    HW187202   0.842   4.046   7.113
28435SOL    HW287203   0.968   4.023   7.193
28436SOL     OW87204  10.804   6.841   8.486
28436SOL    HW187205  10.712   6.814   8.488
28436SOL    HW287206  10.803   6.929   8.524
28437SOL     OW87207  13.462   3.759   4.756
28437SOL    HW187208  13.548   3.752   4.715
28437SOL    HW287209  13.417   3.678   4.733
28438SOL     OW87210  13.901   3.390   8.683
28438SOL    HW187211  13.819   3.355   8.717
28438SOL    HW287212  13.964   3.378   8.754
28439SOL     OW87213   5.584   8.421  13.107
28439SOL    HW187214   5.622   8.399  13.022
28439SOL    HW287215   5.615   8.509  13.125
28440SOL     OW87216   9.040   3.385  11.017
28440SOL    HW187217   9.029   3.314  11.080
28440SOL    HW287218   9.019   3.346  10.933
28441SOL     OW87219   5.466  14.074   9.983
28441SOL    HW187220   5.503  14.163   9.981
28441SOL    HW287221   5.439  14.062  10.074
28442SOL     OW87222   6.763   7.212   6.582
28442SOL    HW187223   6.724   7.206   6.495
28442SOL    HW287224   6.856   7.230   6.566
28443SOL     OW87225   2.721   2.543   7.968
28443SOL    HW187226   2.762   2.483   8.031
28443SOL    HW287227   2.679   2.486   7.904
28444SOL     OW87228   4.793   5.480   2.956
28444SOL    HW187229   4.715   5.509   2.909
28444SOL    HW287230   4.834   5.560   2.987
28445SOL     OW87231  11.160   9.699   4.916
28445SOL    HW187232  11.205   9.704   5.001
28445SOL    HW287233  11.068   9.713   4.938
28446SOL     OW87234   2.912   4.954  14.414
28446SOL    HW187235   2.909   5.040  14.373
28446SOL    HW287236   2.974   4.963  14.486
28447SOL     OW87237   5.450  14.272   6.589
28447SOL    HW187238   5.414  14.184   6.575
28447SOL    HW287239   5.438  14.288   6.682
28448SOL     OW87240   6.407   0.649  13.003
28448SOL    HW187241   6.453   0.600  12.934
28448SOL    HW287242   6.464   0.642  13.080
28449SOL     OW87243   0.351  12.658  11.840
28449SOL    HW187244   0.408  12.733  11.821
28449SOL    HW287245   0.364  12.640  11.933
28450SOL     OW87246   5.589   6.570   8.188
28450SOL    HW187247   5.673   6.527   8.173
28450SOL    HW287248   5.524   6.500   8.182
28451SOL     OW87249  11.617   3.233  11.232
28451SOL    HW187250  11.691   3.293  11.224
28451SOL    HW287251  11.545   3.289  11.262
28452SOL     OW87252   9.463   4.675   1.860
28452SOL    HW187253   9.409   4.647   1.934
28452SOL    HW287254   9.542   4.710   1.901
28453SOL     OW87255   3.884  13.236   3.381
28453SOL    HW187256   3.843  13.313   3.340
28453SOL    HW287257   3.885  13.256   3.474
28454SOL     OW87258   4.313  12.793   2.455
28454SOL    HW187259   4.288  12.719   2.512
28454SOL    HW287260   4.311  12.756   2.367
28455SOL     OW87261   8.935   0.449   3.762
28455SOL    HW187262   8.870   0.519   3.762
28455SOL    HW287263   8.931   0.413   3.673
28456SOL     OW87264  14.150   2.354   6.469
28456SOL    HW187265  14.151   2.404   6.387
28456SOL    HW287266  14.242   2.354   6.498
28457SOL     OW87267   7.641   6.913   7.245
28457SOL    HW187268   7.735   6.927   7.248
28457SOL    HW287269   7.625   6.872   7.160
28458SOL     OW87270  13.601  14.238   9.511
28458SOL    HW187271  13.688  14.259   9.477
28458SOL    HW287272  13.599  14.143   9.517
28459SOL     OW87273   8.448   3.495   9.951
28459SOL    HW187274   8.370   3.537   9.914
28459SOL    HW287275   8.517   3.560   9.939
28460SOL     OW87276  11.785  10.178   2.979
28460SOL    HW187277  11.714  10.160   2.917
28460SOL    HW287278  11.746  10.160   3.065
28461SOL     OW87279  13.303  11.995   7.972
28461SOL    HW187280  13.300  11.911   8.019
28461SOL    HW287281  13.368  12.047   8.020
28462SOL     OW87282  11.935   3.543   3.059
28462SOL    HW187283  11.924   3.580   2.971
28462SOL    HW287284  11.995   3.603   3.103
28463SOL     OW87285   6.891   5.373   3.596
28463SOL    HW187286   6.869   5.377   3.503
28463SOL    HW287287   6.978   5.334   3.598
28464SOL     OW87288   2.394  14.806  12.388
28464SOL    HW187289   2.316  14.846  12.426
28464SOL    HW287290   2.441  14.879  12.349
28465SOL     OW87291   7.281   1.713   2.236
28465SOL    HW187292   7.323   1.798   2.246
28465SOL    HW287293   7.211   1.728   2.173
28466SOL     OW87294   2.631   8.299  12.519
28466SOL    HW187295   2.638   8.204  12.517
28466SOL    HW287296   2.587   8.322  12.437
28467SOL     OW87297   7.267  12.968  10.675
28467SOL    HW187298   7.352  12.956  10.634
28467SOL    HW287299   7.268  12.912  10.752
28468SOL     OW87300   4.388   1.636   1.871
28468SOL    HW187301   4.461   1.633   1.809
28468SOL    HW287302   4.310   1.644   1.816
28469SOL     OW87303   1.116   3.682   6.264
28469SOL    HW187304   1.132   3.621   6.191
28469SOL    HW287305   1.050   3.742   6.231
28470SOL     OW87306  11.803  14.342  10.973
28470SOL    HW187307  11.749  14.277  10.927
28470SOL    HW287308  11.886  14.343  10.925
28471SOL     OW87309  13.166  11.196  14.031
28471SOL    HW187310  13.171  11.157  14.118
28471SOL    HW287311  13.122  11.129  13.978
28472SOL     OW87312   0.692  10.363  13.970
28472SOL    HW187313   0.662  10.449  14.000
28472SOL    HW287314   0.670  10.361  13.877
28473SOL     OW87315  10.937   1.853  11.438
28473SOL    HW187316  10.993   1.831  11.512
28473SOL    HW287317  10.957   1.945  11.420
28474SOL     OW87318   5.071  11.181   7.653
28474SOL    HW187319   5.126  11.131   7.593
28474SOL    HW287320   5.123  11.187   7.734
28475SOL     OW87321   8.841   8.598   2.742
28475SOL    HW187322   8.793   8.522   2.708
28475SOL    HW287323   8.778   8.669   2.737
28476SOL     OW87324   7.174   1.593  11.628
28476SOL    HW187325   7.094   1.645  11.632
28476SOL    HW287326   7.200   1.582  11.720
28477SOL     OW87327   0.572  13.735  12.181
28477SOL    HW187328   0.642  13.734  12.116
28477SOL    HW287329   0.504  13.679  12.143
28478SOL     OW87330   9.970   3.795   1.389
28478SOL    HW187331  10.056   3.776   1.352
28478SOL    HW287332   9.972   3.889   1.407
28479SOL     OW87333   5.566   4.533   3.581
28479SOL    HW187334   5.552   4.450   3.534
28479SOL    HW287335   5.658   4.529   3.609
28480SOL     OW87336   0.867  12.356  11.877
28480SOL    HW187337   0.944  12.333  11.824
28480SOL    HW287338   0.900  12.420  11.940
28481SOL     OW87339   6.220   5.215   9.872
28481SOL    HW187340   6.196   5.125   9.851
28481SOL    HW287341   6.186   5.267   9.799
28482SOL     OW87342   7.086   4.752   0.740
28482SOL    HW187343   7.151   4.800   0.791
28482SOL    HW287344   7.129   4.732   0.657
28483SOL     OW87345  12.722  11.292  14.287
28483SOL    HW187346  12.799  11.250  14.325
28483SOL    HW287347  12.689  11.348  14.357
28484SOL     OW87348   0.217  13.443   4.995
28484SOL    HW187349   0.173  13.358   4.989
28484SOL    HW287350   0.268  13.450   4.914
28485SOL     OW87351   9.763  14.022  14.012
28485SOL    HW187352   9.686  13.968  13.996
28485SOL    HW287353   9.734  14.087  14.077
28486SOL     OW87354   3.446   2.432   8.702
28486SOL    HW187355   3.419   2.340   8.707
28486SOL    HW287356   3.370   2.480   8.737
28487SOL     OW87357   8.513   0.929  10.994
28487SOL    HW187358   8.517   0.833  10.997
28487SOL    HW287359   8.445   0.951  11.058
28488SOL     OW87360   7.517   6.568   0.837
28488SOL    HW187361   7.512   6.622   0.916
28488SOL    HW287362   7.610   6.547   0.829
28489SOL     OW87363   8.906   3.058   6.417
28489SOL    HW187364   8.994   3.024   6.432
28489SOL    HW287365   8.881   3.100   6.499
28490SOL     OW87366   3.434  10.521   7.964
28490SOL    HW187367   3.486  10.478   8.032
28490SOL    HW287368   3.352  10.545   8.008
28491SOL     OW87369  14.292  12.022   4.926
28491SOL    HW187370  14.309  12.036   4.833
28491SOL    HW287371  14.311  11.929   4.940
28492SOL     OW87372   0.884   6.052  14.724
28492SOL    HW187373   0.801   6.039  14.677
28492SOL    HW287374   0.932   6.116  14.671
28493SOL     OW87375   4.379   0.604  11.552
28493SOL    HW187376   4.375   0.680  11.494
28493SOL    HW287377   4.430   0.634  11.627
28494SOL     OW87378   9.576  11.454  14.410
28494SOL    HW187379   9.534  11.483  14.329
28494SOL    HW287380   9.568  11.359  14.409
28495SOL     OW87381   0.879   7.068   1.567
28495SOL    HW187382   0.848   7.016   1.641
28495SOL    HW287383   0.799   7.103   1.528
28496SOL     OW87384  10.682   3.012   9.106
28496SOL    HW187385  10.684   3.087   9.167
28496SOL    HW287386  10.626   3.042   9.034
28497SOL     OW87387   0.718  12.298   1.313
28497SOL    HW187388   0.736  12.278   1.405
28497SOL    HW287389   0.804  12.298   1.271
28498SOL     OW87390   2.997  10.728   8.839
28498SOL    HW187391   3.046  10.753   8.917
28498SOL    HW287392   2.924  10.790   8.835
28499SOL     OW87393   5.125   6.828  13.803
28499SOL    HW187394   5.078   6.790  13.877
28499SOL    HW287395   5.057   6.868  13.749
28500SOL     OW87396   5.771  14.653   9.086
28500SOL    HW187397   5.684  14.639   9.049
28500SOL    HW287398   5.780  14.748   9.093
28501SOL     OW87399   0.626   3.968   5.457
28501SOL    HW187400   0.686   4.042   5.457
28501SOL    HW287401   0.643   3.923   5.374
28502SOL     OW87402   7.919   6.923   7.198
28502SOL    HW187403   7.956   6.983   7.263
28502SOL    HW287404   7.975   6.845   7.204
28503SOL     OW87405   7.163  11.544   3.615
28503SOL    HW187406   7.095  11.507   3.672
28503SOL    HW287407   7.134  11.634   3.600
28504SOL     OW87408  10.768   0.501   6.553
28504SOL    HW187409  10.704   0.530   6.488
28504SOL    HW287410  10.748   0.553   6.631
28505SOL     OW87411   6.738   2.392   2.063
28505SOL    HW187412   6.654   2.359   2.095
28505SOL    HW287413   6.769   2.325   2.003
28506SOL     OW87414  11.543   4.851  10.270
28506SOL    HW187415  11.503   4.931  10.236
28506SOL    HW287416  11.493   4.831  10.349
28507SOL     OW87417  11.422  11.705   9.370
28507SOL    HW187418  11.355  11.738   9.310
28507SOL    HW287419  11.458  11.783   9.411
28508SOL     OW87420   4.538   3.318  14.740
28508SOL    HW187421   4.592   3.378  14.688
28508SOL    HW287422   4.600   3.276  14.800
28509SOL     OW87423  12.916   4.783   7.502
28509SOL    HW187424  12.867   4.707   7.531
28509SOL    HW287425  13.008   4.761   7.519
28510SOL     OW87426   7.015  10.001   2.000
28510SOL    HW187427   6.985  10.089   1.980
28510SOL    HW287428   7.051   9.969   1.917
28511SOL     OW87429  11.239  10.412   5.284
28511SOL    HW187430  11.180  10.352   5.238
28511SOL    HW287431  11.253  10.371   5.369
28512SOL     OW87432   4.659   3.594   5.828
28512SOL    HW187433   4.582   3.632   5.785
28512SOL    HW287434   4.722   3.581   5.757
28513SOL     OW87435   1.345   2.959   0.638
28513SOL    HW187436   1.378   2.871   0.659
28513SOL    HW287437   1.326   2.955   0.544
28514SOL     OW87438   8.348   4.107  11.359
28514SOL    HW187439   8.411   4.056  11.308
28514SOL    HW287440   8.272   4.050  11.368
28515SOL     OW87441   7.950  11.902   3.555
28515SOL    HW187442   8.028  11.856   3.523
28515SOL    HW287443   7.977  11.938   3.640
28516SOL     OW87444  13.140  11.383   3.975
28516SOL    HW187445  13.212  11.446   3.967
28516SOL    HW287446  13.131  11.346   3.888
28517SOL     OW87447   5.999  12.567   2.499
28517SOL    HW187448   6.086  12.609   2.499
28517SOL    HW287449   5.976  12.561   2.406
28518SOL     OW87450   4.792   6.350  10.776
28518SOL    HW187451   4.754   6.403  10.847
28518SOL    HW287452   4.886   6.364  10.784
28519SOL     OW87453   6.344   2.894   5.556
28519SOL    HW187454   6.253   2.885   5.585
28519SOL    HW287455   6.381   2.960   5.615
28520SOL     OW87456   8.177  10.704   6.644
28520SOL    HW187457   8.228  10.766   6.696
28520SOL    HW287458   8.086  10.721   6.669
28521SOL     OW87459  10.418   0.968  13.360
28521SOL    HW187460  10.479   1.033  13.326
28521SOL    HW287461  10.392   1.002  13.446
28522SOL     OW87462   4.523   1.499  10.871
28522SOL    HW187463   4.439   1.471  10.833
28522SOL    HW287464   4.584   1.428  10.849
28523SOL     OW87465   4.323   8.110  11.444
28523SOL    HW187466   4.410   8.084  11.474
28523SOL    HW287467   4.337   8.193  11.399
28524SOL     OW87468  10.139   0.047   2.238
28524SOL    HW187469  10.185  14.878   2.307
28524SOL    HW287470  10.208   0.079   2.180
28525SOL     OW87471   5.303   3.260   4.685
28525SOL    HW187472   5.366   3.189   4.696
28525SOL    HW287473   5.224   3.229   4.730
28526SOL     OW87474  10.717   3.134   5.627
28526SOL    HW187475  10.705   3.229   5.627
28526SOL    HW287476  10.797   3.120   5.678
28527SOL     OW87477   1.490  12.089  13.729
28527SOL    HW187478   1.446  12.064  13.648
28527SOL    HW287479   1.428  12.146  13.774
28528SOL     OW87480  12.421  10.242   5.300
28528SOL    HW187481  12.449  10.152   5.318
28528SOL    HW287482  12.360  10.262   5.371
28529SOL     OW87483   2.504  13.144  14.461
28529SOL    HW187484   2.538  13.213  14.405
28529SOL    HW287485   2.411  13.138  14.439
28530SOL     OW87486  11.944   2.664   4.168
28530SOL    HW187487  11.954   2.756   4.144
28530SOL    HW287488  12.010   2.618   4.117
28531SOL     OW87489   6.116   5.847  10.986
28531SOL    HW187490   6.210   5.861  11.000
28531SOL    HW287491   6.098   5.764  11.030
28532SOL     OW87492  10.670   7.733   7.902
28532SOL    HW187493  10.639   7.818   7.869
28532SOL    HW287494  10.654   7.737   7.996
28533SOL     OW87495   0.963  10.542   3.363
28533SOL    HW187496   0.949  10.620   3.417
28533SOL    HW287497   1.047  10.508   3.391
28534SOL     OW87498   1.301  13.121   1.201
28534SOL    HW187499   1.269  13.129   1.290
28534SOL    HW287500   1.283  13.030   1.177
28535SOL     OW87501  12.891   1.850   9.577
28535SOL    HW187502  12.970   1.883   9.620
28535SOL    HW287503  12.821   1.867   9.640
28536SOL     OW87504   9.117   9.790  11.663
28536SOL    HW187505   9.102   9.727  11.593
28536SOL    HW287506   9.194   9.839  11.635
28537SOL     OW87507   4.132   6.410   3.061
28537SOL    HW187508   4.111   6.377   3.148
28537SOL    HW287509   4.140   6.332   3.006
28538SOL     OW87510   0.918  12.879   7.245
28538SOL    HW187511   1.007  12.890   7.279
28538SOL    HW287512   0.930  12.872   7.150
28539SOL     OW87513   5.177  13.907   5.540
28539SOL    HW187514   5.252  13.938   5.488
28539SOL    HW287515   5.210  13.829   5.585
28540SOL     OW87516   1.576   1.343   5.431
28540SOL    HW187517   1.531   1.267   5.394
28540SOL    HW287518   1.645   1.306   5.486
28541SOL     OW87519   8.011   0.385   6.618
28541SOL    HW187520   7.953   0.456   6.591
28541SOL    HW287521   8.097   0.425   6.625
28542SOL     OW87522  10.947   9.755   4.312
28542SOL    HW187523  10.913   9.666   4.325
28542SOL    HW287524  11.010   9.746   4.241
28543SOL     OW87525   3.537   1.239   6.841
28543SOL    HW187526   3.549   1.239   6.746
28543SOL    HW287527   3.470   1.172   6.856
28544SOL     OW87528  12.425   6.590   1.392
28544SOL    HW187529  12.405   6.542   1.311
28544SOL    HW287530  12.339   6.605   1.432
28545SOL     OW87531   8.020  10.525   8.681
28545SOL    HW187532   7.950  10.589   8.695
28545SOL    HW287533   7.979  10.456   8.629
28546SOL     OW87534   1.980  11.673  11.717
28546SOL    HW187535   1.970  11.659  11.812
28546SOL    HW287536   1.983  11.584  11.680
28547SOL     OW87537   0.065  12.800   5.609
28547SOL    HW187538   0.114  12.719   5.625
28547SOL    HW287539   0.076  12.852   5.688
28548SOL     OW87540  13.213   9.139   2.957
28548SOL    HW187541  13.298   9.182   2.955
28548SOL    HW287542  13.233   9.048   2.980
28549SOL     OW87543   3.541   4.812   3.696
28549SOL    HW187544   3.602   4.881   3.670
28549SOL    HW287545   3.531   4.758   3.617
28550SOL     OW87546   4.297   4.740  10.651
28550SOL    HW187547   4.312   4.725  10.558
28550SOL    HW287548   4.274   4.653  10.685
28551SOL     OW87549   1.496  11.618   3.924
28551SOL    HW187550   1.401  11.619   3.907
28551SOL    HW287551   1.534  11.656   3.845
28552SOL     OW87552   7.960   8.290   1.180
28552SOL    HW187553   7.974   8.243   1.098
28552SOL    HW287554   7.958   8.222   1.247
28553SOL     OW87555   2.426   8.266   3.497
28553SOL    HW187556   2.422   8.321   3.419
28553SOL    HW287557   2.514   8.280   3.532
28554SOL     OW87558  10.905   4.750   4.322
28554SOL    HW187559  10.918   4.656   4.306
28554SOL    HW287560  10.811   4.762   4.322
28555SOL     OW87561  13.463   1.012  10.868
28555SOL    HW187562  13.390   0.979  10.815
28555SOL    HW287563  13.536   0.954  10.845
28556SOL     OW87564   6.633  13.822   9.729
28556SOL    HW187565   6.681  13.742   9.752
28556SOL    HW287566   6.542  13.796   9.728
28557SOL     OW87567   2.244  12.094   4.526
28557SOL    HW187568   2.188  12.069   4.599
28557SOL    HW287569   2.206  12.176   4.494
28558SOL     OW87570   4.714  10.929   5.209
28558SOL    HW187571   4.688  10.977   5.287
28558SOL    HW287572   4.651  10.857   5.203
28559SOL     OW87573  14.276   8.477  12.254
28559SOL    HW187574  14.259   8.463  12.347
28559SOL    HW287575  14.280   8.389  12.217
28560SOL     OW87576   2.839  12.897   6.822
28560SOL    HW187577   2.890  12.907   6.902
28560SOL    HW287578   2.879  12.957   6.760
28561SOL     OW87579  12.303   7.292   4.220
28561SOL    HW187580  12.307   7.213   4.166
28561SOL    HW287581  12.257   7.356   4.165
28562SOL     OW87582  11.422   6.541   3.574
28562SOL    HW187583  11.452   6.463   3.527
28562SOL    HW287584  11.333   6.555   3.543
28563SOL     OW87585   4.141  12.718  10.847
28563SOL    HW187586   4.132  12.812  10.860
28563SOL    HW287587   4.052  12.687  10.830
28564SOL     OW87588  12.243   1.463   1.254
28564SOL    HW187589  12.206   1.378   1.279
28564SOL    HW287590  12.336   1.456   1.275
28565SOL     OW87591   1.691  14.503   4.918
28565SOL    HW187592   1.782  14.483   4.937
28565SOL    HW287593   1.689  14.515   4.823
28566SOL     OW87594   0.191   0.861   0.508
28566SOL    HW187595   0.147   0.946   0.498
28566SOL    HW287596   0.266   0.879   0.564
28567SOL     OW87597  14.331   3.749   4.740
28567SOL    HW187598  14.322   3.769   4.647
28567SOL    HW287599  14.247   3.710   4.765
28568SOL     OW87600   3.246   1.443  10.199
28568SOL    HW187601   3.265   1.465  10.108
28568SOL    HW287602   3.316   1.486  10.248
28569SOL     OW87603   5.398   2.591   6.823
28569SOL    HW187604   5.365   2.542   6.748
28569SOL    HW287605   5.445   2.665   6.785
28570SOL     OW87606  10.079   0.694   6.029
28570SOL    HW187607  10.126   0.687   5.945
28570SOL    HW287608  10.141   0.738   6.087
28571SOL     OW87609   1.228   6.784  10.804
28571SOL    HW187610   1.168   6.790  10.730
28571SOL    HW287611   1.248   6.690  10.811
28572SOL     OW87612  12.074  13.530  12.456
28572SOL    HW187613  12.158  13.574  12.446
28572SOL    HW287614  12.041  13.560  12.541
28573SOL     OW87615   5.605  12.469   7.285
28573SOL    HW187616   5.594  12.563   7.271
28573SOL    HW287617   5.689  12.461   7.331
28574SOL     OW87618   3.334  10.092   9.662
28574SOL    HW187619   3.279  10.069   9.737
28574SOL    HW287620   3.353  10.185   9.675
28575SOL     OW87621   7.678   1.530  13.824
28575SOL    HW187622   7.688   1.513  13.918
28575SOL    HW287623   7.662   1.624  13.818
28576SOL     OW87624   2.228   7.318   1.491
28576SOL    HW187625   2.239   7.376   1.416
28576SOL    HW287626   2.313   7.275   1.501
28577SOL     OW87627  13.541  13.381   5.367
28577SOL    HW187628  13.525  13.452   5.305
28577SOL    HW287629  13.480  13.313   5.342
28578SOL     OW87630   1.488  13.133  11.730
28578SOL    HW187631   1.570  13.156  11.686
28578SOL    HW287632   1.424  13.126  11.660
28579SOL     OW87633   4.612   3.096  12.969
28579SOL    HW187634   4.620   3.104  12.874
28579SOL    HW287635   4.530   3.050  12.983
28580SOL     OW87636  13.869  12.273  13.876
28580SOL    HW187637  13.888  12.210  13.807
28580SOL    HW287638  13.901  12.356  13.843
28581SOL     OW87639   7.248   4.755   3.875
28581SOL    HW187640   7.184   4.690   3.905
28581SOL    HW287641   7.272   4.803   3.954
28582SOL     OW87642  13.438   2.848   1.555
28582SOL    HW187643  13.534   2.845   1.559
28582SOL    HW287644  13.417   2.941   1.560
28583SOL     OW87645   7.145  13.839   8.775
28583SOL    HW187646   7.140  13.747   8.750
28583SOL    HW287647   7.205  13.879   8.712
28584SOL     OW87648   7.413   3.834   9.126
28584SOL    HW187649   7.356   3.795   9.192
28584SOL    HW287650   7.500   3.800   9.147
28585SOL     OW87651  10.808   5.195   2.183
28585SOL    HW187652  10.769   5.187   2.269
28585SOL    HW287653  10.739   5.232   2.128
28586SOL     OW87654   6.806  11.330   1.329
28586SOL    HW187655   6.773  11.271   1.261
28586SOL    HW287656   6.749  11.313   1.405
28587SOL     OW87657  13.657   3.632   6.347
28587SOL    HW187658  13.583   3.689   6.330
28587SOL    HW287659  13.734   3.683   6.320
28588SOL     OW87660   1.501   1.236  13.094
28588SOL    HW187661   1.481   1.145  13.071
28588SOL    HW287662   1.477   1.244  13.186
28589SOL     OW87663   6.407  11.220   4.170
28589SOL    HW187664   6.415  11.298   4.115
28589SOL    HW287665   6.316  11.221   4.199
28590SOL     OW87666   9.953   1.032   9.260
28590SOL    HW187667   9.939   0.979   9.339
28590SOL    HW287668  10.047   1.031   9.246
28591SOL     OW87669   6.952  10.684  12.673
28591SOL    HW187670   6.913  10.770  12.658
28591SOL    HW287671   7.012  10.672  12.600
28592SOL     OW87672  12.607  13.619   6.976
28592SOL    HW187673  12.560  13.681   7.031
28592SOL    HW287674  12.548  13.599   6.904
28593SOL     OW87675   0.915   6.507   1.866
28593SOL    HW187676   0.967   6.587   1.870
28593SOL    HW287677   0.953   6.456   1.794
28594SOL     OW87678  12.080  13.352   7.774
28594SOL    HW187679  12.147  13.310   7.720
28594SOL    HW287680  12.061  13.434   7.729
28595SOL     OW87681  10.194  10.320  13.698
28595SOL    HW187682  10.217  10.235  13.661
28595SOL    HW287683  10.274  10.372  13.691
28596SOL     OW87684   8.838   4.560   4.504
28596SOL    HW187685   8.873   4.506   4.434
28596SOL    HW287686   8.884   4.530   4.583
28597SOL     OW87687   9.733  14.693   9.420
28597SOL    HW187688   9.747  14.622   9.358
28597SOL    HW287689   9.654  14.737   9.389
28598SOL     OW87690   8.881   5.235   7.668
28598SOL    HW187691   8.797   5.243   7.622
28598SOL    HW287692   8.905   5.324   7.691
28599SOL     OW87693   4.277  11.279   9.444
28599SOL    HW187694   4.188  11.280   9.409
28599SOL    HW287695   4.333  11.288   9.367
28600SOL     OW87696   2.815   8.417   1.066
28600SOL    HW187697   2.834   8.353   0.998
28600SOL    HW287698   2.873   8.392   1.139
28601SOL     OW87699   9.960   3.043   9.785
28601SOL    HW187700   9.963   3.127   9.830
28601SOL    HW287701  10.050   3.011   9.789
28602SOL     OW87702  14.546   9.493  13.642
28602SOL    HW187703  14.504   9.407  13.645
28602SOL    HW287704  14.631   9.479  13.682
28603SOL     OW87705  10.961  11.369  12.107
28603SOL    HW187706  10.998  11.453  12.133
28603SOL    HW287707  10.908  11.389  12.029
28604SOL     OW87708  13.224  12.863   6.021
28604SOL    HW187709  13.271  12.780   6.010
28604SOL    HW287710  13.188  12.858   6.110
28605SOL     OW87711  11.124   9.772  14.850
28605SOL    HW187712  11.046   9.756  14.797
28605SOL    HW287713  11.149   9.685   0.003
28606SOL     OW87714   8.086   4.957   2.171
28606SOL    HW187715   8.121   4.868   2.172
28606SOL    HW287716   8.164   5.013   2.177
28607SOL     OW87717   5.081  11.200   0.803
28607SOL    HW187718   4.993  11.167   0.786
28607SOL    HW287719   5.085  11.209   0.899
28608SOL     OW87720  11.508  13.817   3.856
28608SOL    HW187721  11.417  13.844   3.866
28608SOL    HW287722  11.532  13.845   3.768
28609SOL     OW87723   1.748   1.521   5.704
28609SOL    HW187724   1.730   1.609   5.670
28609SOL    HW287725   1.843   1.517   5.710
28610SOL     OW87726  10.709   8.160   2.749
28610SOL    HW187727  10.686   8.092   2.812
28610SOL    HW287728  10.635   8.162   2.688
28611SOL     OW87729   5.461   1.637   9.894
28611SOL    HW187730   5.440   1.544   9.904
28611SOL    HW287731   5.538   1.638   9.838
28612SOL     OW87732   1.850   8.944   4.593
28612SOL    HW187733   1.931   8.924   4.546
28612SOL    HW287734   1.793   8.869   4.577
28613SOL     OW87735   6.035   8.958   9.206
28613SOL    HW187736   6.121   8.960   9.165
28613SOL    HW287737   5.993   8.880   9.170
28614SOL     OW87738   9.398   8.438   1.831
28614SOL    HW187739   9.389   8.348   1.862
28614SOL    HW287740   9.458   8.479   1.894
28615SOL     OW87741   6.985  14.596  14.290
28615SOL    HW187742   6.889  14.602  14.289
28615SOL    HW287743   7.008  14.561  14.204
28616SOL     OW87744  12.433   8.384  12.352
28616SOL    HW187745  12.403   8.439  12.280
28616SOL    HW287746  12.432   8.295  12.316
28617SOL     OW87747   3.136   8.145  14.452
28617SOL    HW187748   3.226   8.129  14.422
28617SOL    HW287749   3.091   8.180  14.375
28618SOL     OW87750   4.443   4.702   4.866
28618SOL    HW187751   4.387   4.661   4.800
28618SOL    HW287752   4.483   4.628   4.911
28619SOL     OW87753   9.806  12.639  10.798
28619SOL    HW187754   9.787  12.648  10.891
28619SOL    HW287755   9.733  12.683  10.754
28620SOL     OW87756  11.360   1.576   1.334
28620SOL    HW187757  11.282   1.536   1.295
28620SOL    HW287758  11.403   1.503   1.379
28621SOL     OW87759   2.908   6.068   2.489
28621SOL    HW187760   2.932   6.154   2.455
28621SOL    HW287761   2.867   6.023   2.415
28622SOL     OW87762   1.889  14.196  13.534
28622SOL    HW187763   1.951  14.248  13.584
28622SOL    HW287764   1.803  14.229  13.561
28623SOL     OW87765  12.134   5.269  10.668
28623SOL    HW187766  12.059   5.210  10.662
28623SOL    HW287767  12.127   5.325  10.591
28624SOL     OW87768  13.722   4.611   7.640
28624SOL    HW187769  13.701   4.547   7.572
28624SOL    HW287770  13.805   4.649   7.612
28625SOL     OW87771   9.020  14.799   7.785
28625SOL    HW187772   8.982  14.738   7.722
28625SOL    HW287773   9.041  14.745   7.861
28626SOL     OW87774   3.778  10.365  14.388
28626SOL    HW187775   3.849  10.310  14.354
28626SOL    HW287776   3.729  10.307  14.447
28627SOL     OW87777  10.133   9.243   3.758
28627SOL    HW187778  10.221   9.237   3.794
28627SOL    HW287779  10.102   9.330   3.783
28628SOL     OW87780   5.380   0.792  13.667
28628SOL    HW187781   5.425   0.708  13.662
28628SOL    HW287782   5.352   0.798  13.759
28629SOL     OW87783   4.635   0.378   3.787
28629SOL    HW187784   4.640   0.305   3.725
28629SOL    HW287785   4.676   0.346   3.866
28630SOL     OW87786  11.692   3.719  13.967
28630SOL    HW187787  11.735   3.802  13.986
28630SOL    HW287788  11.604   3.728  14.003
28631SOL     OW87789  11.248   5.964   3.368
28631SOL    HW187790  11.250   5.872   3.343
28631SOL    HW287791  11.335   5.997   3.343
28632SOL     OW87792   3.530   8.980   4.320
28632SOL    HW187793   3.487   9.042   4.261
28632SOL    HW287794   3.541   8.901   4.267
28633SOL     OW87795   7.687  12.353   7.968
28633SOL    HW187796   7.749  12.364   8.039
28633SOL    HW287797   7.689  12.437   7.921
28634SOL     OW87798   9.902  13.922   5.825
28634SOL    HW187799   9.832  13.911   5.889
28634SOL    HW287800   9.875  13.869   5.750
28635SOL     OW87801  14.330   2.203  11.582
28635SOL    HW187802  14.396   2.207  11.513
28635SOL    HW287803  14.302   2.294  11.592
28636SOL     OW87804   1.468   0.975   1.878
28636SOL    HW187805   1.479   1.032   1.954
28636SOL    HW287806   1.457   0.888   1.915
28637SOL     OW87807  12.738   1.537   3.585
28637SOL    HW187808  12.652   1.576   3.603
28637SOL    HW287809  12.786   1.606   3.539
28638SOL     OW87810   5.439   6.756   1.256
28638SOL    HW187811   5.492   6.835   1.263
28638SOL    HW287812   5.359   6.775   1.304
28639SOL     OW87813  12.571   2.892  11.964
28639SOL    HW187814  12.649   2.939  11.993
28639SOL    HW287815  12.498   2.945  11.997
28640SOL     OW87816  13.748  12.275   8.129
28640SOL    HW187817  13.819  12.313   8.078
28640SOL    HW287818  13.729  12.341   8.196
28641SOL     OW87819   3.972   6.039   9.866
28641SOL    HW187820   3.887   5.998   9.851
28641SOL    HW287821   3.964   6.081   9.952
28642SOL     OW87822   1.495   0.169   3.058
28642SOL    HW187823   1.419   0.110   3.062
28642SOL    HW287824   1.566   0.115   3.024
28643SOL     OW87825  13.531   6.818  14.068
28643SOL    HW187826  13.449   6.774  14.046
28643SOL    HW287827  13.512   6.865  14.149
28644SOL     OW87828   7.336   2.007  14.071
28644SOL    HW187829   7.403   1.971  14.013
28644SOL    HW287830   7.253   1.982  14.030
28645SOL     OW87831   7.766   9.902   9.964
28645SOL    HW187832   7.768   9.865  10.052
28645SOL    HW287833   7.806   9.834   9.909
28646SOL     OW87834   4.849  10.829   8.784
28646SOL    HW187835   4.910  10.783   8.726
28646SOL    HW287836   4.874  10.800   8.872
28647SOL     OW87837   2.780   8.694   0.475
28647SOL    HW187838   2.805   8.699   0.567
28647SOL    HW287839   2.694   8.736   0.471
28648SOL     OW87840  13.258   3.691  14.840
28648SOL    HW187841  13.331   3.661  14.786
28648SOL    HW287842  13.180   3.665  14.790
28649SOL     OW87843   2.083   8.841   1.317
28649SOL    HW187844   1.988   8.847   1.325
28649SOL    HW287845   2.099   8.758   1.273
28650SOL     OW87846   2.031   9.512   7.080
28650SOL    HW187847   2.105   9.494   7.022
28650SOL    HW287848   1.954   9.507   7.023
28651SOL     OW87849   9.928   2.086   9.926
28651SOL    HW187850   9.871   2.105  10.000
28651SOL    HW287851   9.874   2.036   9.865
28652SOL     OW87852  13.348  13.436  12.863
28652SOL    HW187853  13.365  13.528  12.884
28652SOL    HW287854  13.287  13.439  12.789
28653SOL     OW87855   7.903   3.930  14.335
28653SOL    HW187856   7.958   3.993  14.290
28653SOL    HW287857   7.947   3.846  14.323
28654SOL     OW87858  13.223  14.772  10.550
28654SOL    HW187859  13.288  14.803  10.612
28654SOL    HW287860  13.238  14.823  10.471
28655SOL     OW87861  10.026  14.309   5.042
28655SOL    HW187862   9.975  14.235   5.010
28655SOL    HW287863   9.990  14.385   4.996
28656SOL     OW87864   3.120  13.605   4.886
28656SOL    HW187865   3.074  13.568   4.961
28656SOL    HW287866   3.058  13.669   4.849
28657SOL     OW87867   5.213   3.309   3.223
28657SOL    HW187868   5.150   3.250   3.182
28657SOL    HW287869   5.273   3.333   3.153
28658SOL     OW87870   1.233   0.967   4.095
28658SOL    HW187871   1.198   1.028   4.159
28658SOL    HW287872   1.328   0.973   4.104
28659SOL     OW87873   2.204  12.475   2.566
28659SOL    HW187874   2.296  12.451   2.554
28659SOL    HW287875   2.183  12.446   2.655
28660SOL     OW87876  12.193  13.260  10.297
28660SOL    HW187877  12.206  13.167  10.276
28660SOL    HW287878  12.234  13.270  10.383
28661SOL     OW87879   7.733   7.682   8.163
28661SOL    HW187880   7.796   7.738   8.209
28661SOL    HW287881   7.767   7.676   8.073
28662SOL     OW87882   0.314   0.435   6.041
28662SOL    HW187883   0.301   0.490   6.118
28662SOL    HW287884   0.237   0.450   5.987
28663SOL     OW87885  12.374   4.896   5.849
28663SOL    HW187886  12.403   4.806   5.863
28663SOL    HW287887  12.282   4.887   5.823
28664SOL     OW87888  13.586   8.903   8.315
28664SOL    HW187889  13.628   8.989   8.320
28664SOL    HW287890  13.556   8.887   8.405
28665SOL     OW87891   1.912   5.474  10.723
28665SOL    HW187892   1.846   5.406  10.741
28665SOL    HW287893   1.930   5.465  10.630
28666SOL     OW87894  14.404   6.278   3.281
28666SOL    HW187895  14.440   6.214   3.343
28666SOL    HW287896  14.338   6.326   3.331
28667SOL     OW87897   7.159   0.496   5.302
28667SOL    HW187898   7.210   0.560   5.252
28667SOL    HW287899   7.069   0.506   5.269
28668SOL     OW87900   7.812   5.008   6.367
28668SOL    HW187901   7.856   5.063   6.432
28668SOL    HW287902   7.876   4.940   6.345
28669SOL     OW87903   7.147   7.327   6.743
28669SOL    HW187904   7.096   7.246   6.741
28669SOL    HW287905   7.089   7.391   6.784
28670SOL     OW87906  14.392   5.823   5.461
28670SOL    HW187907  14.411   5.865   5.377
28670SOL    HW287908  14.477   5.792   5.492
28671SOL     OW87909  13.147  12.396  11.003
28671SOL    HW187910  13.098  12.420  10.925
28671SOL    HW287911  13.117  12.457  11.070
28672SOL     OW87912  14.672   2.542   2.084
28672SOL    HW187913  14.712   2.492   2.155
28672SOL    HW287914  14.651   2.476   2.018
28673SOL     OW87915   5.976   7.161   0.866
28673SOL    HW187916   5.989   7.245   0.822
28673SOL    HW287917   5.916   7.113   0.809
28674SOL     OW87918   7.871   5.475   8.232
28674SOL    HW187919   7.859   5.425   8.151
28674SOL    HW287920   7.906   5.559   8.203
28675SOL     OW87921  10.298  14.358   3.689
28675SOL    HW187922  10.328  14.447   3.706
28675SOL    HW287923  10.242  14.365   3.612
28676SOL     OW87924   0.990  10.589  10.215
28676SOL    HW187925   0.937  10.616  10.291
28676SOL    HW287926   1.080  10.603  10.242
28677SOL     OW87927   0.481   6.290   4.945
28677SOL    HW187928   0.464   6.204   4.984
28677SOL    HW287929   0.546   6.274   4.877
28678SOL     OW87930   4.171  14.792   7.374
28678SOL    HW187931   4.229  14.782   7.298
28678SOL    HW287932   4.109  14.719   7.367
28679SOL     OW87933  14.297   3.360   5.544
28679SOL    HW187934  14.355   3.406   5.605
28679SOL    HW287935  14.349   3.350   5.465
28680SOL     OW87936   9.672   6.798  12.607
28680SOL    HW187937   9.580   6.776  12.621
28680SOL    HW287938   9.690   6.868  12.670
28681SOL     OW87939   1.836  12.770   5.429
28681SOL    HW187940   1.852  12.722   5.510
28681SOL    HW287941   1.743  12.794   5.433
28682SOL     OW87942   6.969  10.016   5.480
28682SOL    HW187943   6.984  10.099   5.435
28682SOL    HW287944   6.919   9.964   5.417
28683SOL     OW87945   9.830   1.541   9.078
28683SOL    HW187946   9.742   1.558   9.111
28683SOL    HW287947   9.847   1.449   9.099
28684SOL     OW87948   1.031   7.222  11.196
28684SOL    HW187949   1.053   7.164  11.123
28684SOL    HW287950   1.101   7.208  11.259
28685SOL     OW87951  10.362   2.661  10.895
28685SOL    HW187952  10.299   2.632  10.828
28685SOL    HW287953  10.308   2.674  10.973
28686SOL     OW87954  13.935   3.366  14.258
28686SOL    HW187955  13.926   3.314  14.178
28686SOL    HW287956  13.855   3.420  14.261
28687SOL     OW87957  10.784  14.769   7.746
28687SOL    HW187958  10.793  14.686   7.699
28687SOL    HW287959  10.697  14.800   7.721
28688SOL     OW87960  14.231   7.141   5.152
28688SOL    HW187961  14.179   7.205   5.201
28688SOL    HW287962  14.322   7.167   5.166
28689SOL     OW87963   1.469   8.843   3.424
28689SOL    HW187964   1.508   8.798   3.349
28689SOL    HW287965   1.412   8.778   3.464
28690SOL     OW87966   5.589  10.014  10.339
28690SOL    HW187967   5.649  10.088  10.333
28690SOL    HW287968   5.533  10.023  10.262
28691SOL     OW87969   6.897  12.703  10.616
28691SOL    HW187970   6.830  12.741  10.560
28691SOL    HW287971   6.900  12.760  10.693
28692SOL     OW87972   7.969   7.519   8.799
28692SOL    HW187973   8.046   7.464   8.813
28692SOL    HW287974   7.959   7.524   8.704
28693SOL     OW87975  11.499  12.227   4.149
28693SOL    HW187976  11.464  12.139   4.135
28693SOL    HW287977  11.430  12.285   4.117
28694SOL     OW87978  13.217   8.158   2.702
28694SOL    HW187979  13.128   8.164   2.668
28694SOL    HW287980  13.247   8.071   2.676
28695SOL     OW87981   1.799  12.800   4.983
28695SOL    HW187982   1.720  12.853   4.985
28695SOL    HW287983   1.780  12.730   4.920
28696SOL     OW87984   8.263  10.067  12.826
28696SOL    HW187985   8.265  10.160  12.848
28696SOL    HW287986   8.355  10.043  12.815
28697SOL     OW87987  11.431   3.147   0.853
28697SOL    HW187988  11.341   3.141   0.821
28697SOL    HW287989  11.443   3.239   0.875
28698SOL     OW87990  11.927   4.851   3.685
28698SOL    HW187991  11.962   4.904   3.756
28698SOL    HW287992  11.958   4.762   3.703
28699SOL     OW87993   7.961  11.303  14.419
28699SOL    HW187994   7.922  11.258  14.344
28699SOL    HW287995   8.037  11.348  14.383
28700SOL     OW87996  11.278  12.440   0.079
28700SOL    HW187997  11.183  12.435   0.083
28700SOL    HW287998  11.306  12.352   0.053
28701SOL     OW87999   4.290  11.539   5.908
28701SOL    HW188000   4.312  11.539   6.001
28701SOL    HW288001   4.205  11.494   5.903
28702SOL     OW88002   1.740   5.871   3.338
28702SOL    HW188003   1.818   5.826   3.305
28702SOL    HW288004   1.773   5.925   3.410
28703SOL     OW88005  14.059  10.832   9.076
28703SOL    HW188006  14.084  10.803   8.988
28703SOL    HW288007  13.994  10.900   9.060
28704SOL     OW88008  10.302   8.873   4.065
28704SOL    HW188009  10.237   8.928   4.022
28704SOL    HW288010  10.266   8.784   4.058
28705SOL     OW88011  12.472   4.535  12.903
28705SOL    HW188012  12.538   4.476  12.939
28705SOL    HW288013  12.519   4.584  12.835
28706SOL     OW88014   1.187  10.096   7.245
28706SOL    HW188015   1.242  10.072   7.320
28706SOL    HW288016   1.244  10.146   7.188
28707SOL     OW88017   0.658  13.485  14.356
28707SOL    HW188018   0.731  13.436  14.392
28707SOL    HW288019   0.580  13.436  14.383
28708SOL     OW88020  12.788  14.082   8.883
28708SOL    HW188021  12.775  14.092   8.789
28708SOL    HW288022  12.709  14.039   8.914
28709SOL     OW88023   7.375  10.865   7.868
28709SOL    HW188024   7.327  10.850   7.787
28709SOL    HW288025   7.332  10.809   7.932
28710SOL     OW88026   0.787   9.141   5.759
28710SOL    HW188027   0.773   9.116   5.851
28710SOL    HW288028   0.825   9.229   5.764
28711SOL     OW88029   7.555   4.811  13.556
28711SOL    HW188030   7.529   4.891  13.510
28711SOL    HW288031   7.486   4.797  13.620
28712SOL     OW88032   7.065  11.754   7.501
28712SOL    HW188033   7.147  11.705   7.491
28712SOL    HW288034   7.074  11.800   7.584
28713SOL     OW88035  14.107   0.918   6.569
28713SOL    HW188036  14.118   0.824   6.585
28713SOL    HW288037  14.095   0.956   6.656
28714SOL     OW88038   4.581   8.844  13.059
28714SOL    HW188039   4.579   8.871  12.968
28714SOL    HW288040   4.638   8.908  13.102
28715SOL     OW88041   1.503  10.189   5.885
28715SOL    HW188042   1.515  10.142   5.967
28715SOL    HW288043   1.429  10.247   5.901
28716SOL     OW88044   4.764   7.752  13.408
28716SOL    HW188045   4.734   7.779  13.494
28716SOL    HW288046   4.703   7.792  13.347
28717SOL     OW88047   1.782   4.604   4.800
28717SOL    HW188048   1.690   4.582   4.813
28717SOL    HW288049   1.792   4.689   4.843
28718SOL     OW88050  13.089   0.934  11.360
28718SOL    HW188051  13.113   1.018  11.322
28718SOL    HW288052  13.087   0.949  11.454
28719SOL     OW88053   7.910  12.322  11.498
28719SOL    HW188054   7.852  12.296  11.570
28719SOL    HW288055   7.858  12.381  11.444
28720SOL     OW88056   5.831   4.658   4.534
28720SOL    HW188057   5.835   4.720   4.461
28720SOL    HW288058   5.917   4.664   4.575
28721SOL     OW88059   0.606  13.670   6.660
28721SOL    HW188060   0.659  13.742   6.626
28721SOL    HW288061   0.539  13.713   6.714
28722SOL     OW88062   4.592   4.899   4.734
28722SOL    HW188063   4.543   4.821   4.760
28722SOL    HW288064   4.682   4.881   4.763
28723SOL     OW88065   5.298   5.686   1.012
28723SOL    HW188066   5.314   5.613   0.952
28723SOL    HW288067   5.326   5.653   1.098
28724SOL     OW88068   5.224   4.862   9.831
28724SOL    HW188069   5.210   4.956   9.819
28724SOL    HW288070   5.293   4.840   9.768
28725SOL     OW88071  10.309  12.898   2.461
28725SOL    HW188072  10.401  12.878   2.447
28725SOL    HW288073  10.284  12.849   2.539
28726SOL     OW88074  11.271   8.642   1.876
28726SOL    HW188075  11.195   8.665   1.822
28726SOL    HW288076  11.253   8.553   1.906
28727SOL     OW88077   7.464   1.918   1.909
28727SOL    HW188078   7.372   1.945   1.914
28727SOL    HW288079   7.491   1.942   1.820
28728SOL     OW88080   0.892   7.328   0.623
28728SOL    HW188081   0.897   7.388   0.697
28728SOL    HW288082   0.982   7.323   0.589
28729SOL     OW88083   3.049  12.913   7.007
28729SOL    HW188084   3.139  12.885   7.023
28729SOL    HW288085   3.001  12.883   7.085
28730SOL     OW88086   2.290   2.452  13.442
28730SOL    HW188087   2.256   2.432  13.529
28730SOL    HW288088   2.244   2.391  13.384
28731SOL     OW88089   9.033   5.087   7.853
28731SOL    HW188090   8.953   5.136   7.830
28731SOL    HW288091   9.100   5.155   7.865
28732SOL     OW88092  11.315   4.918   1.278
28732SOL    HW188093  11.348   4.849   1.221
28732SOL    HW288094  11.384   4.931   1.342
28733SOL     OW88095  12.474   4.796  13.481
28733SOL    HW188096  12.386   4.759  13.478
28733SOL    HW288097  12.464   4.878  13.530
28734SOL     OW88098  12.425  13.730   7.788
28734SOL    HW188099  12.485  13.721   7.862
28734SOL    HW288100  12.409  13.825   7.782
28735SOL     OW88101   3.151   4.217  11.337
28735SOL    HW188102   3.128   4.234  11.246
28735SOL    HW288103   3.088   4.152  11.366
28736SOL     OW88104  12.268   8.425   6.200
28736SOL    HW188105  12.259   8.440   6.294
28736SOL    HW288106  12.187   8.382   6.175
28737SOL     OW88107  12.687  10.023   1.677
28737SOL    HW188108  12.726  10.022   1.764
28737SOL    HW288109  12.664  10.114   1.661
28738SOL     OW88110   7.208  12.900   3.023
28738SOL    HW188111   7.235  12.813   2.994
28738SOL    HW288112   7.281  12.932   3.075
28739SOL     OW88113   8.203   5.432   3.946
28739SOL    HW188114   8.145   5.502   3.915
28739SOL    HW288115   8.291   5.468   3.936
28740SOL     OW88116  14.190  11.950  12.841
28740SOL    HW188117  14.112  11.959  12.895
28740SOL    HW288118  14.181  11.864  12.800
28741SOL     OW88119  12.286  11.906   0.915
28741SOL    HW188120  12.314  11.815   0.922
28741SOL    HW288121  12.325  11.937   0.833
28742SOL     OW88122   0.596   9.782  14.832
28742SOL    HW188123   0.665   9.736   0.000
28742SOL    HW288124   0.584   9.731  14.752
28743SOL     OW88125   6.731  14.728   0.464
28743SOL    HW188126   6.744  14.768   0.550
28743SOL    HW288127   6.637  14.713   0.458
28744SOL     OW88128   4.147   9.494  10.579
28744SOL    HW188129   4.099   9.447  10.647
28744SOL    HW288130   4.125   9.449  10.498
28745SOL     OW88131   7.105   1.009  11.363
28745SOL    HW188132   7.163   0.987  11.290
28745SOL    HW288133   7.163   1.044  11.430
28746SOL     OW88134  11.281  13.285   1.373
28746SOL    HW188135  11.332  13.364   1.390
28746SOL    HW288136  11.332  13.214   1.413
28747SOL     OW88137   9.759  12.069   9.606
28747SOL    HW188138   9.822  12.114   9.661
28747SOL    HW288139   9.811  12.005   9.557
28748SOL     OW88140   2.428  10.882   0.623
28748SOL    HW188141   2.431  10.974   0.649
28748SOL    HW288142   2.461  10.882   0.533
28749SOL     OW88143   2.495   1.058  13.492
28749SOL    HW188144   2.428   1.116  13.528
28749SOL    HW288145   2.457   1.025  13.410
28750SOL     OW88146   0.233   4.969   8.513
28750SOL    HW188147   0.173   4.908   8.469
28750SOL    HW288148   0.295   4.912   8.558
28751SOL     OW88149  10.879   6.150   3.374
28751SOL    HW188150  10.804   6.208   3.364
28751SOL    HW288151  10.889   6.109   3.288
28752SOL     OW88152  11.933   6.559   8.824
28752SOL    HW188153  12.014   6.603   8.846
28752SOL    HW288154  11.953   6.466   8.834
28753SOL     OW88155   8.559   5.524   6.886
28753SOL    HW188156   8.465   5.543   6.878
28753SOL    HW288157   8.601   5.588   6.828
28754SOL     OW88158  10.484  11.123  13.015
28754SOL    HW188159  10.527  11.072  13.084
28754SOL    HW288160  10.395  11.137  13.048
28755SOL     OW88161  10.730   9.348   0.675
28755SOL    HW188162  10.728   9.283   0.605
28755SOL    HW288163  10.799   9.409   0.650
28756SOL     OW88164  13.002   8.511   4.033
28756SOL    HW188165  12.920   8.466   4.052
28756SOL    HW288166  12.995   8.535   3.940
28757SOL     OW88167   1.419   1.244   4.225
28757SOL    HW188168   1.437   1.301   4.151
28757SOL    HW288169   1.469   1.282   4.297
28758SOL     OW88170   9.572   2.220   7.821
28758SOL    HW188171   9.655   2.217   7.868
28758SOL    HW288172   9.509   2.252   7.885
28759SOL     OW88173   9.576  12.217   8.608
28759SOL    HW188174   9.606  12.159   8.537
28759SOL    HW288175   9.566  12.302   8.566
28760SOL     OW88176   6.194  10.223   5.484
28760SOL    HW188177   6.181  10.134   5.515
28760SOL    HW288178   6.163  10.279   5.555
28761SOL     OW88179   3.551   5.505  11.347
28761SOL    HW188180   3.495   5.580  11.363
28761SOL    HW288181   3.543   5.488  11.253
28762SOL     OW88182   1.786   1.468  14.555
28762SOL    HW188183   1.787   1.491  14.648
28762SOL    HW288184   1.707   1.510  14.521
28763SOL     OW88185  13.474   1.351   8.188
28763SOL    HW188186  13.551   1.294   8.180
28763SOL    HW288187  13.479   1.408   8.112
28764SOL     OW88188   0.902   3.601   0.700
28764SOL    HW188189   0.904   3.642   0.614
28764SOL    HW288190   0.906   3.507   0.682
28765SOL     OW88191   1.371  10.647  12.118
28765SOL    HW188192   1.456  10.664  12.158
28765SOL    HW288193   1.309  10.692  12.174
28766SOL     OW88194  14.133   6.248   7.257
28766SOL    HW188195  14.108   6.209   7.340
28766SOL    HW288196  14.125   6.343   7.272
28767SOL     OW88197   4.429   6.622  13.464
28767SOL    HW188198   4.455   6.651  13.551
28767SOL    HW288199   4.337   6.599  13.472
28768SOL     OW88200  11.133  12.683   5.789
28768SOL    HW188201  11.115  12.764   5.835
28768SOL    HW288202  11.203  12.705   5.727
28769SOL     OW88203  14.532   6.769   2.814
28769SOL    HW188204  14.508   6.782   2.906
28769SOL    HW288205  14.450   6.747   2.771
28770SOL     OW88206   3.125  14.162   8.891
28770SOL    HW188207   3.191  14.209   8.943
28770SOL    HW288208   3.058  14.136   8.954
28771SOL     OW88209   9.462  13.734   5.147
28771SOL    HW188210   9.376  13.774   5.138
28771SOL    HW288211   9.470  13.677   5.070
28772SOL     OW88212   9.105   9.780   9.284
28772SOL    HW188213   9.171   9.848   9.275
28772SOL    HW288214   9.124   9.719   9.213
28773SOL     OW88215  11.515   5.448   9.197
28773SOL    HW188216  11.424   5.440   9.224
28773SOL    HW288217  11.566   5.439   9.277
28774SOL     OW88218   1.166  13.002   8.071
28774SOL    HW188219   1.121  13.085   8.087
28774SOL    HW288220   1.219  12.988   8.150
28775SOL     OW88221  11.836   5.260  12.531
28775SOL    HW188222  11.777   5.187  12.512
28775SOL    HW288223  11.841   5.308  12.448
28776SOL     OW88224  11.734   1.642  10.018
28776SOL    HW188225  11.667   1.623  10.084
28776SOL    HW288226  11.686   1.687   9.948
28777SOL     OW88227  13.246   3.965  13.579
28777SOL    HW188228  13.181   3.997  13.516
28777SOL    HW288229  13.229   4.016  13.659
28778SOL     OW88230  11.411   3.539   6.313
28778SOL    HW188231  11.392   3.575   6.400
28778SOL    HW288232  11.470   3.466   6.330
28779SOL     OW88233   5.551   6.544   0.872
28779SOL    HW188234   5.643   6.562   0.856
28779SOL    HW288235   5.504   6.616   0.829
28780SOL     OW88236   0.772   6.812  13.465
28780SOL    HW188237   0.818   6.801  13.382
28780SOL    HW288238   0.683   6.780  13.448
28781SOL     OW88239  14.075   9.379  12.541
28781SOL    HW188240  14.029   9.308  12.584
28781SOL    HW288241  14.043   9.458  12.585
28782SOL     OW88242   6.029   5.618   4.641
28782SOL    HW188243   6.002   5.533   4.605
28782SOL    HW288244   5.976   5.682   4.595
28783SOL     OW88245   8.878  11.242   4.941
28783SOL    HW188246   8.949  11.209   4.886
28783SOL    HW288247   8.804  11.252   4.882
28784SOL     OW88248   2.083   4.891   9.333
28784SOL    HW188249   2.148   4.957   9.357
28784SOL    HW288250   2.129   4.808   9.344
28785SOL     OW88251  14.582   2.592   1.294
28785SOL    HW188252  14.553   2.511   1.251
28785SOL    HW288253  14.502   2.631   1.329
28786SOL     OW88254   1.888  13.337   5.844
28786SOL    HW188255   1.795  13.330   5.825
28786SOL    HW288256   1.919  13.407   5.787
28787SOL     OW88257   6.900  13.632   1.681
28787SOL    HW188258   6.951  13.558   1.649
28787SOL    HW288259   6.929  13.645   1.771
28788SOL     OW88260  10.962   9.160   8.023
28788SOL    HW188261  11.034   9.162   8.086
28788SOL    HW288262  10.943   9.252   8.005
28789SOL     OW88263   1.502   2.453   4.385
28789SOL    HW188264   1.430   2.397   4.414
28789SOL    HW288265   1.559   2.395   4.334
28790SOL     OW88266  14.302   1.012  11.164
28790SOL    HW188267  14.292   1.049  11.076
28790SOL    HW288268  14.299   0.917  11.150
28791SOL     OW88269  11.641   8.032  13.890
28791SOL    HW188270  11.678   8.120  13.886
28791SOL    HW288271  11.691   7.988  13.959
28792SOL     OW88272   2.627  14.518  12.962
28792SOL    HW188273   2.614  14.492  12.870
28792SOL    HW288274   2.589  14.445  13.012
28793SOL     OW88275   6.012  13.406   1.814
28793SOL    HW188276   6.014  13.482   1.873
28793SOL    HW288277   6.100  13.369   1.819
28794SOL     OW88278  14.356   2.750   4.646
28794SOL    HW188279  14.442   2.729   4.684
28794SOL    HW288280  14.295   2.746   4.719
28795SOL     OW88281   0.105  14.771   7.593
28795SOL    HW188282   0.026  14.821   7.614
28795SOL    HW288283   0.167  14.795   7.662
28796SOL     OW88284   3.050   8.726  10.657
28796SOL    HW188285   3.021   8.691  10.573
28796SOL    HW288286   3.007   8.672  10.722
28797SOL     OW88287   5.277   3.955   2.372
28797SOL    HW188288   5.282   4.001   2.455
28797SOL    HW288289   5.237   4.018   2.312
28798SOL     OW88290   5.671   0.752   4.013
28798SOL    HW188291   5.620   0.704   4.079
28798SOL    HW288292   5.762   0.735   4.036
28799SOL     OW88293  12.999  13.837   8.610
28799SOL    HW188294  12.957  13.914   8.571
28799SOL    HW288295  12.932  13.768   8.604
28800SOL     OW88296   1.431   5.538  10.943
28800SOL    HW188297   1.461   5.511  11.030
28800SOL    HW288298   1.346   5.495  10.932
28801SOL     OW88299   3.825   4.462   6.701
28801SOL    HW188300   3.811   4.367   6.697
28801SOL    HW288301   3.802   4.485   6.791
28802SOL     OW88302  12.391   0.637   0.777
28802SOL    HW188303  12.426   0.672   0.695
28802SOL    HW288304  12.425   0.695   0.845
28803SOL     OW88305   8.714  13.120   4.710
28803SOL    HW188306   8.778  13.063   4.753
28803SOL    HW288307   8.638  13.118   4.768
28804SOL     OW88308  10.325  12.051  13.543
28804SOL    HW188309  10.363  12.077  13.626
28804SOL    HW288310  10.239  12.094  13.540
28805SOL     OW88311   6.357  13.679   3.465
28805SOL    HW188312   6.450  13.702   3.471
28805SOL    HW288313   6.318  13.747   3.411
28806SOL     OW88314   1.675  12.739  12.972
28806SOL    HW188315   1.738  12.759  12.903
28806SOL    HW288316   1.598  12.793  12.951
28807SOL     OW88317  10.726   5.206   5.273
28807SOL    HW188318  10.736   5.131   5.214
28807SOL    HW288319  10.807   5.255   5.264
28808SOL     OW88320   2.041   6.590   6.773
28808SOL    HW188321   2.089   6.554   6.847
28808SOL    HW288322   1.965   6.532   6.764
28809SOL     OW88323   2.044   3.861   7.651
28809SOL    HW188324   1.953   3.851   7.626
28809SOL    HW288325   2.078   3.929   7.591
28810SOL     OW88326  13.915  14.387  10.673
28810SOL    HW188327  13.899  14.473  10.634
28810SOL    HW288328  13.992  14.353  10.626
28811SOL     OW88329   9.213   5.585  12.995
28811SOL    HW188330   9.244   5.494  12.994
28811SOL    HW288331   9.126   5.581  12.954
28812SOL     OW88332   5.673  11.407   2.502
28812SOL    HW188333   5.652  11.324   2.462
28812SOL    HW288334   5.761  11.395   2.538
28813SOL     OW88335   1.928  14.737   5.408
28813SOL    HW188336   1.850  14.734   5.463
28813SOL    HW288337   1.910  14.806   5.344
28814SOL     OW88338   5.185   8.690  12.578
28814SOL    HW188339   5.249   8.629  12.615
28814SOL    HW288340   5.104   8.671  12.626
28815SOL     OW88341  14.325  14.044  14.248
28815SOL    HW188342  14.336  14.116  14.311
28815SOL    HW288343  14.344  13.965  14.300
28816SOL     OW88344   5.892  12.132   0.497
28816SOL    HW188345   5.963  12.135   0.432
28816SOL    HW288346   5.812  12.132   0.445
28817SOL     OW88347   9.429   4.268   2.849
28817SOL    HW188348   9.369   4.205   2.809
28817SOL    HW288349   9.374   4.318   2.909
28818SOL     OW88350  14.791  13.830   5.629
28818SOL    HW188351  14.746  13.793   5.553
28818SOL    HW288352  14.788  13.760   5.695
28819SOL     OW88353   4.721   8.665  13.194
28819SOL    HW188354   4.801   8.712  13.219
28819SOL    HW288355   4.674   8.725  13.137
28820SOL     OW88356   8.460   9.248   6.601
28820SOL    HW188357   8.530   9.185   6.621
28820SOL    HW288358   8.502   9.334   6.611
28821SOL     OW88359   6.012   0.553  10.318
28821SOL    HW188360   5.919   0.530  10.322
28821SOL    HW288361   6.051   0.486  10.263
28822SOL     OW88362  11.989   0.467  11.862
28822SOL    HW188363  12.081   0.488  11.879
28822SOL    HW288364  11.955   0.544  11.816
28823SOL     OW88365   1.701   7.722   2.693
28823SOL    HW188366   1.708   7.806   2.740
28823SOL    HW288367   1.646   7.742   2.618
28824SOL     OW88368   1.843   0.517  10.775
28824SOL    HW188369   1.891   0.475  10.846
28824SOL    HW288370   1.791   0.585  10.817
28825SOL     OW88371   1.112   0.746   9.986
28825SOL    HW188372   1.199   0.707   9.975
28825SOL    HW288373   1.129   0.832  10.025
28826SOL     OW88374   8.266  12.293   5.416
28826SOL    HW188375   8.178  12.258   5.431
28826SOL    HW288376   8.257  12.387   5.430
28827SOL     OW88377  11.833   2.206   6.609
28827SOL    HW188378  11.924   2.185   6.588
28827SOL    HW288379  11.796   2.124   6.641
28828SOL     OW88380   3.606   3.880   4.166
28828SOL    HW188381   3.644   3.871   4.078
28828SOL    HW288382   3.512   3.887   4.151
28829SOL     OW88383   0.423   2.615   4.961
28829SOL    HW188384   0.491   2.570   5.012
28829SOL    HW288385   0.348   2.620   5.021
28830SOL     OW88386   8.686   1.200  13.709
28830SOL    HW188387   8.639   1.231  13.632
28830SOL    HW288388   8.732   1.122  13.679
28831SOL     OW88389   9.544   9.207   6.536
28831SOL    HW188390   9.496   9.269   6.482
28831SOL    HW288391   9.476   9.150   6.572
28832SOL     OW88392   4.583   0.125   8.831
28832SOL    HW188393   4.563   0.087   8.745
28832SOL    HW288394   4.551   0.215   8.825
28833SOL     OW88395   1.687   7.467   0.890
28833SOL    HW188396   1.750   7.397   0.906
28833SOL    HW288397   1.734   7.547   0.911
28834SOL     OW88398   8.015  11.968   9.681
28834SOL    HW188399   8.057  11.972   9.595
28834SOL    HW288400   7.951  11.898   9.674
28835SOL     OW88401   3.415  13.868   6.163
28835SOL    HW188402   3.322  13.848   6.176
28835SOL    HW288403   3.440  13.915   6.243
28836SOL     OW88404   3.574   1.529   5.350
28836SOL    HW188405   3.491   1.504   5.391
28836SOL    HW288406   3.548   1.582   5.275
28837SOL     OW88407   9.645   0.797   5.972
28837SOL    HW188408   9.572   0.742   6.000
28837SOL    HW288409   9.723   0.748   5.996
28838SOL     OW88410   5.098   2.277  10.865
28838SOL    HW188411   5.050   2.299  10.944
28838SOL    HW288412   5.059   2.196  10.834
28839SOL     OW88413   9.688   9.134   3.091
28839SOL    HW188414   9.718   9.148   3.001
28839SOL    HW288415   9.619   9.199   3.104
28840SOL     OW88416   6.693   3.642   5.975
28840SOL    HW188417   6.705   3.700   5.900
28840SOL    HW288418   6.719   3.695   6.050
28841SOL     OW88419   1.287   1.767  12.589
28841SOL    HW188420   1.255   1.679  12.572
28841SOL    HW288421   1.209   1.822  12.593
28842SOL     OW88422  12.385   3.145   0.832
28842SOL    HW188423  12.381   3.239   0.845
28842SOL    HW288424  12.377   3.133   0.738
28843SOL     OW88425   6.180   2.883   4.266
28843SOL    HW188426   6.253   2.841   4.219
28843SOL    HW288427   6.161   2.962   4.216
28844SOL     OW88428  12.271  10.289  12.131
28844SOL    HW188429  12.255  10.365  12.187
28844SOL    HW288430  12.257  10.213  12.188
28845SOL     OW88431  11.766  11.569  11.605
28845SOL    HW188432  11.795  11.479  11.590
28845SOL    HW288433  11.705  11.563  11.679
28846SOL     OW88434  13.392  11.723   2.790
28846SOL    HW188435  13.384  11.727   2.695
28846SOL    HW288436  13.478  11.684   2.806
28847SOL     OW88437   8.505   1.067   3.402
28847SOL    HW188438   8.584   1.016   3.382
28847SOL    HW288439   8.504   1.137   3.336
28848SOL     OW88440   9.034   5.901  11.649
28848SOL    HW188441   9.128   5.912  11.661
28848SOL    HW288442   9.026   5.846  11.572
28849SOL     OW88443  11.454  10.701   7.693
28849SOL    HW188444  11.517  10.657   7.751
28849SOL    HW288445  11.370  10.661   7.715
28850SOL     OW88446   2.983  10.286   8.775
28850SOL    HW188447   3.065  10.238   8.765
28850SOL    HW288448   2.927  10.255   8.703
28851SOL     OW88449  11.676   7.298   1.597
28851SOL    HW188450  11.616   7.255   1.658
28851SOL    HW288451  11.762   7.290   1.638
28852SOL     OW88452  10.541   0.831  11.788
28852SOL    HW188453  10.572   0.837  11.878
28852SOL    HW288454  10.492   0.748  11.786
28853SOL     OW88455  10.101   6.284   5.965
28853SOL    HW188456  10.170   6.345   5.936
28853SOL    HW288457  10.064   6.325   6.043
28854SOL     OW88458   7.968   5.354   5.959
28854SOL    HW188459   8.058   5.346   5.989
28854SOL    HW288460   7.924   5.278   5.997
28855SOL     OW88461   0.878   0.155   5.938
28855SOL    HW188462   0.874   0.231   5.996
28855SOL    HW288463   0.968   0.125   5.942
28856SOL     OW88464   8.499   0.691  11.215
28856SOL    HW188465   8.555   0.619  11.243
28856SOL    HW288466   8.498   0.751  11.290
28857SOL     OW88467   0.247  13.183  11.285
28857SOL    HW188468   0.284  13.188  11.197
28857SOL    HW288469   0.160  13.146  11.272
28858SOL     OW88470   0.907  10.094  12.834
28858SOL    HW188471   0.821  10.105  12.873
28858SOL    HW288472   0.959  10.166  12.870
28859SOL     OW88473   8.011   0.939   9.251
28859SOL    HW188474   8.020   1.021   9.300
28859SOL    HW288475   7.947   0.888   9.301
28860SOL     OW88476  11.813   4.427   3.512
28860SOL    HW188477  11.837   4.412   3.604
28860SOL    HW288478  11.851   4.512   3.491
28861SOL     OW88479   5.158  11.935  11.389
28861SOL    HW188480   5.163  12.019  11.344
28861SOL    HW288481   5.132  11.958  11.479
28862SOL     OW88482  14.482   6.258   2.516
28862SOL    HW188483  14.450   6.329   2.572
28862SOL    HW288484  14.432   6.181   2.544
28863SOL     OW88485  13.536   7.118  11.644
28863SOL    HW188486  13.546   7.060  11.719
28863SOL    HW288487  13.456   7.090  11.601
28864SOL     OW88488  10.534  12.293  11.899
28864SOL    HW188489  10.528  12.198  11.889
28864SOL    HW288490  10.445  12.324  11.885
28865SOL     OW88491  12.745  11.260  13.558
28865SOL    HW188492  12.801  11.242  13.634
28865SOL    HW288493  12.718  11.173  13.527
28866SOL     OW88494  13.356   5.490   4.239
28866SOL    HW188495  13.356   5.423   4.170
28866SOL    HW288496  13.375   5.572   4.194
28867SOL     OW88497   1.147  12.301  13.724
28867SOL    HW188498   1.058  12.292  13.757
28867SOL    HW288499   1.203  12.278  13.799
28868SOL     OW88500   4.754  11.580  11.447
28868SOL    HW188501   4.848  11.583  11.461
28868SOL    HW288502   4.744  11.541  11.360
28869SOL     OW88503   8.165   6.004   7.644
28869SOL    HW188504   8.086   6.016   7.590
28869SOL    HW288505   8.183   6.091   7.679
28870SOL     OW88506   6.380   3.927   3.339
28870SOL    HW188507   6.431   3.961   3.413
28870SOL    HW288508   6.296   3.973   3.344
28871SOL     OW88509   2.187   1.018   5.214
28871SOL    HW188510   2.100   1.055   5.225
28871SOL    HW288511   2.173   0.931   5.178
28872SOL     OW88512   7.256   6.282  10.258
28872SOL    HW188513   7.335   6.330  10.283
28872SOL    HW288514   7.288   6.200  10.221
28873SOL     OW88515   6.788   3.799   8.320
28873SOL    HW188516   6.741   3.797   8.236
28873SOL    HW288517   6.720   3.788   8.386
28874SOL     OW88518   4.546   2.950   8.521
28874SOL    HW188519   4.616   2.971   8.459
28874SOL    HW288520   4.537   3.028   8.575
28875SOL     OW88521   0.090   4.724   8.164
28875SOL    HW188522   0.119   4.656   8.104
28875SOL    HW288523   0.105   4.806   8.117
28876SOL     OW88524   7.392   6.858   8.630
28876SOL    HW188525   7.410   6.799   8.556
28876SOL    HW288526   7.341   6.929   8.592
28877SOL     OW88527   5.442  14.767   2.634
28877SOL    HW188528   5.479  14.708   2.700
28877SOL    HW288529   5.420  14.710   2.560
28878SOL     OW88530   9.260   2.829  12.115
28878SOL    HW188531   9.310   2.850  12.036
28878SOL    HW288532   9.186   2.777  12.084
28879SOL     OW88533   8.443   3.469   4.302
28879SOL    HW188534   8.504   3.395   4.301
28879SOL    HW288535   8.489   3.538   4.254
28880SOL     OW88536  10.590   7.564  12.772
28880SOL    HW188537  10.542   7.480  12.776
28880SOL    HW288538  10.569   7.599  12.685
28881SOL     OW88539   9.551   2.304  13.312
28881SOL    HW188540   9.507   2.222  13.289
28881SOL    HW288541   9.615   2.318  13.243
28882SOL     OW88542  10.094   7.666   4.551
28882SOL    HW188543  10.173   7.715   4.572
28882SOL    HW288544  10.030   7.732   4.524
28883SOL     OW88545   2.430  14.458   0.843
28883SOL    HW188546   2.490  14.415   0.783
28883SOL    HW288547   2.406  14.390   0.906
28884SOL     OW88548   9.412   3.956   2.726
28884SOL    HW188549   9.450   3.958   2.638
28884SOL    HW288550   9.380   3.867   2.736
28885SOL     OW88551   6.356  11.041   2.561
28885SOL    HW188552   6.349  11.106   2.630
28885SOL    HW288553   6.273  10.992   2.566
28886SOL     OW88554   8.371   4.594   2.601
28886SOL    HW188555   8.334   4.663   2.656
28886SOL    HW288556   8.463   4.618   2.591
28887SOL     OW88557   5.437   7.149   9.351
28887SOL    HW188558   5.359   7.103   9.383
28887SOL    HW288559   5.464   7.099   9.274
28888SOL     OW88560  13.358   4.937  12.909
28888SOL    HW188561  13.367   5.033  12.910
28888SOL    HW288562  13.368   4.913  12.817
28889SOL     OW88563   7.439   8.220   5.751
28889SOL    HW188564   7.507   8.287   5.753
28889SOL    HW288565   7.480   8.144   5.793
28890SOL     OW88566  12.799   6.892   9.142
28890SOL    HW188567  12.799   6.832   9.217
28890SOL    HW288568  12.741   6.963   9.168
28891SOL     OW88569   2.805  13.235   3.100
28891SOL    HW188570   2.823  13.313   3.152
28891SOL    HW288571   2.827  13.259   3.010
28892SOL     OW88572  13.088   4.727   3.725
28892SOL    HW188573  13.080   4.728   3.629
28892SOL    HW288574  13.167   4.676   3.741
28893SOL     OW88575   8.107   7.269  11.286
28893SOL    HW188576   8.024   7.223  11.272
28893SOL    HW288577   8.101   7.303  11.375
28894SOL     OW88578  13.632   8.942   7.330
28894SOL    HW188579  13.537   8.947   7.339
28894SOL    HW288580  13.647   8.856   7.291
28895SOL     OW88581   2.212   7.013   1.662
28895SOL    HW188582   2.244   6.937   1.612
28895SOL    HW288583   2.234   6.992   1.753
28896SOL     OW88584  14.627   3.120  12.930
28896SOL    HW188585  14.542   3.130  12.974
28896SOL    HW288586  14.684   3.084  12.998
28897SOL     OW88587   4.807   4.301   0.097
28897SOL    HW188588   4.849   4.216   0.083
28897SOL    HW288589   4.767   4.293   0.183
28898SOL     OW88590  11.257   5.312   4.246
28898SOL    HW188591  11.276   5.405   4.233
28898SOL    HW288592  11.201   5.289   4.172
28899SOL     OW88593   4.619   1.235   7.426
28899SOL    HW188594   4.661   1.264   7.507
28899SOL    HW288595   4.613   1.140   7.435
28900SOL     OW88596   9.816  10.887  12.586
28900SOL    HW188597   9.867  10.867  12.665
28900SOL    HW288598   9.784  10.976  12.600
28901SOL     OW88599   5.796  13.742   0.733
28901SOL    HW188600   5.708  13.765   0.704
28901SOL    HW288601   5.804  13.781   0.820
28902SOL     OW88602  13.151   0.014   1.468
28902SOL    HW188603  13.102   0.095   1.482
28902SOL    HW288604  13.134  14.870   1.377
28903SOL     OW88605   1.982  10.088   9.517
28903SOL    HW188606   2.077  10.074   9.509
28903SOL    HW288607   1.968  10.101   9.611
28904SOL     OW88608   2.336   9.966   7.514
28904SOL    HW188609   2.388   9.919   7.449
28904SOL    HW288610   2.371  10.055   7.513
28905SOL     OW88611   4.706  12.896  11.435
28905SOL    HW188612   4.731  12.972  11.487
28905SOL    HW288613   4.719  12.923  11.345
28906SOL     OW88614   9.225   9.338   6.853
28906SOL    HW188615   9.186   9.318   6.768
28906SOL    HW288616   9.161   9.305   6.916
28907SOL     OW88617   4.606   8.871   9.240
28907SOL    HW188618   4.691   8.850   9.278
28907SOL    HW288619   4.607   8.966   9.229
28908SOL     OW88620   2.113   5.786  11.913
28908SOL    HW188621   2.056   5.799  11.989
28908SOL    HW288622   2.120   5.872  11.873
28909SOL     OW88623   3.892   0.080  12.685
28909SOL    HW188624   3.890  14.873  12.645
28909SOL    HW288625   3.964   0.125  12.643
28910SOL     OW88626   3.952  12.702   3.201
28910SOL    HW188627   3.886  12.744   3.256
28910SOL    HW288628   4.016  12.771   3.185
28911SOL     OW88629   0.192  11.052   2.396
28911SOL    HW188630   0.180  11.134   2.349
28911SOL    HW288631   0.267  11.069   2.455
28912SOL     OW88632  12.171  12.604   7.462
28912SOL    HW188633  12.253  12.643   7.433
28912SOL    HW288634  12.136  12.560   7.384
28913SOL     OW88635  12.696   5.942   1.570
28913SOL    HW188636  12.640   5.952   1.647
28913SOL    HW288637  12.653   5.993   1.501
28914SOL     OW88638   3.916   8.010   3.393
28914SOL    HW188639   3.968   8.035   3.470
28914SOL    HW288640   3.980   8.001   3.323
28915SOL     OW88641  13.276   2.452   5.917
28915SOL    HW188642  13.350   2.507   5.892
28915SOL    HW288643  13.293   2.369   5.872
28916SOL     OW88644   0.111   4.932   3.043
28916SOL    HW188645   0.186   4.936   2.984
28916SOL    HW288646   0.067   5.016   3.031
28917SOL     OW88647  11.855  13.651  10.465
28917SOL    HW188648  11.775  13.700  10.486
28917SOL    HW288649  11.830  13.559  10.479
28918SOL     OW88650   3.284   4.505   5.044
28918SOL    HW188651   3.329   4.567   5.101
28918SOL    HW288652   3.191   4.523   5.058
28919SOL     OW88653   8.322   3.535   6.284
28919SOL    HW188654   8.284   3.447   6.285
28919SOL    HW288655   8.313   3.564   6.193
28920SOL     OW88656   0.112   7.096   2.310
28920SOL    HW188657   0.181   7.142   2.261
28920SOL    HW288658   0.040   7.159   2.313
28921SOL     OW88659  11.259   0.659  13.982
28921SOL    HW188660  11.290   0.733  13.929
28921SOL    HW288661  11.164   0.661  13.973
28922SOL     OW88662   0.298   2.920   0.324
28922SOL    HW188663   0.209   2.951   0.342
28922SOL    HW288664   0.352   2.962   0.391
28923SOL     OW88665  14.006  14.459   2.733
28923SOL    HW188666  14.045  14.474   2.647
28923SOL    HW288667  13.963  14.542   2.755
28924SOL     OW88668  11.149  13.292   0.241
28924SOL    HW188669  11.180  13.296   0.150
28924SOL    HW288670  11.176  13.376   0.279
28925SOL     OW88671   1.815   4.570   3.442
28925SOL    HW188672   1.740   4.527   3.483
28925SOL    HW288673   1.811   4.543   3.351
28926SOL     OW88674   4.593  14.648   3.769
28926SOL    HW188675   4.591  14.578   3.834
28926SOL    HW288676   4.556  14.610   3.690
28927SOL     OW88677  11.248  11.990   2.741
28927SOL    HW188678  11.234  12.021   2.652
28927SOL    HW288679  11.176  12.027   2.791
28928SOL     OW88680   0.437  11.045   2.831
28928SOL    HW188681   0.437  10.994   2.912
28928SOL    HW288682   0.432  10.979   2.762
28929SOL     OW88683   9.280  11.707   0.209
28929SOL    HW188684   9.336  11.640   0.170
28929SOL    HW288685   9.327  11.735   0.288
28930SOL     OW88686   7.025   6.074   5.367
28930SOL    HW188687   7.069   6.101   5.287
28930SOL    HW288688   6.963   6.006   5.340
28931SOL     OW88689   5.838   7.869   9.793
28931SOL    HW188690   5.907   7.859   9.859
28931SOL    HW288691   5.845   7.960   9.764
28932SOL     OW88692  10.894  14.195   0.207
28932SOL    HW188693  10.903  14.237   0.122
28932SOL    HW288694  10.864  14.106   0.186
28933SOL     OW88695   0.800   1.498   8.728
28933SOL    HW188696   0.795   1.422   8.670
28933SOL    HW288697   0.842   1.465   8.807
28934SOL     OW88698  11.960  10.378   3.157
28934SOL    HW188699  11.896  10.337   3.215
28934SOL    HW288700  11.908  10.435   3.100
28935SOL     OW88701   9.773   4.169  12.958
28935SOL    HW188702   9.813   4.097  13.007
28935SOL    HW288703   9.823   4.246  12.983
28936SOL     OW88704   3.534  12.520   6.193
28936SOL    HW188705   3.447  12.550   6.219
28936SOL    HW288706   3.580  12.505   6.276
28937SOL     OW88707   4.930   1.861  11.833
28937SOL    HW188708   4.842   1.879  11.867
28937SOL    HW288709   4.983   1.934  11.864
28938SOL     OW88710   0.963   9.617   3.647
28938SOL    HW188711   1.046   9.579   3.616
28938SOL    HW288712   0.897   9.550   3.627
28939SOL     OW88713   9.373   8.560   3.869
28939SOL    HW188714   9.296   8.612   3.895
28939SOL    HW288715   9.427   8.621   3.819
28940SOL     OW88716  11.745   7.918   4.251
28940SOL    HW188717  11.665   7.967   4.271
28940SOL    HW288718  11.796   7.923   4.332
28941SOL     OW88719   2.391   7.761   7.265
28941SOL    HW188720   2.385   7.682   7.319
28941SOL    HW288721   2.348   7.737   7.183
28942SOL     OW88722   8.184   6.679  13.585
28942SOL    HW188723   8.272   6.670  13.548
28942SOL    HW288724   8.134   6.608  13.544
28943SOL     OW88725   5.507   3.810  12.369
28943SOL    HW188726   5.562   3.872  12.417
28943SOL    HW288727   5.477   3.858  12.292
28944SOL     OW88728   3.751   5.545  11.782
28944SOL    HW188729   3.829   5.515  11.735
28944SOL    HW288730   3.755   5.640  11.778
28945SOL     OW88731  10.278   2.900   9.269
28945SOL    HW188732  10.361   2.851   9.275
28945SOL    HW288733  10.218   2.852   9.326
28946SOL     OW88734  11.338  10.683   2.452
28946SOL    HW188735  11.391  10.644   2.382
28946SOL    HW288736  11.299  10.608   2.497
28947SOL     OW88737   6.029  11.055  10.901
28947SOL    HW188738   5.976  11.090  10.973
28947SOL    HW288739   5.965  11.032  10.834
28948SOL     OW88740   5.075   9.082   9.208
28948SOL    HW188741   5.145   9.059   9.147
28948SOL    HW288742   5.069   9.007   9.267
28949SOL     OW88743   2.072  13.280   9.489
28949SOL    HW188744   2.098  13.226   9.563
28949SOL    HW288745   1.996  13.235   9.451
28950SOL     OW88746   8.102   4.572   0.146
28950SOL    HW188747   8.160   4.623   0.202
28950SOL    HW288748   8.028   4.550   0.202
28951SOL     OW88749  12.761   7.744   6.869
28951SOL    HW188750  12.732   7.771   6.782
28951SOL    HW288751  12.854   7.767   6.871
28952SOL     OW88752   4.078   3.009  14.135
28952SOL    HW188753   4.118   2.923  14.119
28952SOL    HW288754   4.106   3.031  14.224
28953SOL     OW88755   3.403   8.423  10.699
28953SOL    HW188756   3.379   8.514  10.679
28953SOL    HW288757   3.494   8.429  10.730
28954SOL     OW88758  12.377  12.728   2.486
28954SOL    HW188759  12.419  12.807   2.454
28954SOL    HW288760  12.284  12.744   2.476
28955SOL     OW88761   6.363   7.260   0.238
28955SOL    HW188762   6.394   7.337   0.190
28955SOL    HW288763   6.435   7.198   0.232
28956SOL     OW88764   7.201   3.586   9.910
28956SOL    HW188765   7.225   3.624   9.825
28956SOL    HW288766   7.106   3.585   9.910
28957SOL     OW88767   9.203   6.379   3.017
28957SOL    HW188768   9.112   6.398   2.997
28957SOL    HW288769   9.202   6.290   3.053
28958SOL     OW88770   5.082  13.574   5.082
28958SOL    HW188771   5.074  13.596   5.175
28958SOL    HW288772   5.125  13.489   5.082
28959SOL     OW88773  14.608   4.404   1.019
28959SOL    HW188774  14.635   4.313   1.030
28959SOL    HW288775  14.689   4.454   1.024
28960SOL     OW88776   9.420  14.658  14.159
28960SOL    HW188777   9.463  14.574  14.141
28960SOL    HW288778   9.333  14.649  14.122
28961SOL     OW88779   3.180   5.730   0.651
28961SOL    HW188780   3.244   5.665   0.620
28961SOL    HW288781   3.095   5.694   0.624
28962SOL     OW88782   0.324   4.789   3.779
28962SOL    HW188783   0.245   4.746   3.810
28962SOL    HW288784   0.320   4.783   3.684
28963SOL     OW88785   7.876   2.161   0.940
28963SOL    HW188786   7.840   2.247   0.921
28963SOL    HW288787   7.829   2.132   1.018
28964SOL     OW88788  11.186   7.079   9.998
28964SOL    HW188789  11.252   7.106   9.935
28964SOL    HW288790  11.111   7.053   9.945
28965SOL     OW88791   4.119   1.587   5.333
28965SOL    HW188792   4.205   1.574   5.294
28965SOL    HW288793   4.135   1.592   5.427
28966SOL     OW88794   9.016   9.088   0.957
28966SOL    HW188795   8.944   9.058   0.902
28966SOL    HW288796   9.058   9.157   0.905
28967SOL     OW88797   4.898   7.846   5.907
28967SOL    HW188798   4.922   7.874   5.995
28967SOL    HW288799   4.890   7.751   5.913
28968SOL     OW88800  10.201   0.956   3.354
28968SOL    HW188801  10.169   0.898   3.423
28968SOL    HW288802  10.251   1.023   3.401
28969SOL     OW88803   3.467  11.293   6.659
28969SOL    HW188804   3.557  11.304   6.627
28969SOL    HW288805   3.414  11.347   6.600
28970SOL     OW88806   3.216   3.542  13.595
28970SOL    HW188807   3.155   3.506  13.660
28970SOL    HW288808   3.171   3.620  13.562
28971SOL     OW88809   6.084  11.489   6.063
28971SOL    HW188810   6.091  11.464   5.971
28971SOL    HW288811   6.114  11.412   6.111
28972SOL     OW88812   0.109   5.744   9.691
28972SOL    HW188813   0.064   5.673   9.646
28972SOL    HW288814   0.184   5.702   9.734
28973SOL     OW88815   0.133   6.789   5.956
28973SOL    HW188816   0.213   6.740   5.975
28973SOL    HW288817   0.146   6.874   5.998
28974SOL     OW88818   2.065   3.323   3.079
28974SOL    HW188819   1.986   3.272   3.096
28974SOL    HW288820   2.033   3.411   3.060
28975SOL     OW88821   1.462   6.687   9.829
28975SOL    HW188822   1.462   6.726   9.741
28975SOL    HW288823   1.509   6.604   9.817
28976SOL     OW88824   3.919  13.486   0.914
28976SOL    HW188825   3.936  13.395   0.891
28976SOL    HW288826   4.001  13.517   0.953
28977SOL     OW88827  10.135   6.071  10.227
28977SOL    HW188828  10.195   6.038  10.294
28977SOL    HW288829  10.189   6.081  10.149
28978SOL     OW88830   8.136   3.451   4.815
28978SOL    HW188831   8.141   3.546   4.816
28978SOL    HW288832   8.103   3.430   4.727
28979SOL     OW88833  13.496  13.768   6.445
28979SOL    HW188834  13.564  13.801   6.385
28979SOL    HW288835  13.414  13.794   6.404
28980SOL     OW88836  12.590   5.799   3.692
28980SOL    HW188837  12.637   5.761   3.618
28980SOL    HW288838  12.658   5.839   3.746
28981SOL     OW88839   0.279   4.720   1.035
28981SOL    HW188840   0.348   4.727   0.969
28981SOL    HW288841   0.300   4.788   1.099
28982SOL     OW88842  10.238   6.227   6.605
28982SOL    HW188843  10.228   6.145   6.558
28982SOL    HW288844  10.186   6.290   6.555
28983SOL     OW88845   0.840  10.307  10.312
28983SOL    HW188846   0.827  10.323  10.406
28983SOL    HW288847   0.795  10.379  10.269
28984SOL     OW88848   8.683   2.325  12.505
28984SOL    HW188849   8.616   2.344  12.439
28984SOL    HW288850   8.735   2.404  12.510
28985SOL     OW88851   0.114  14.066   9.120
28985SOL    HW188852   0.029  14.032   9.149
28985SOL    HW288853   0.131  14.141   9.177
28986SOL     OW88854  14.693  10.200   3.908
28986SOL    HW188855  14.705  10.135   3.839
28986SOL    HW288856  14.659  10.277   3.862
28987SOL     OW88857  10.197   3.575  14.172
28987SOL    HW188858  10.233   3.661  14.195
28987SOL    HW288859  10.130   3.593  14.107
28988SOL     OW88860   0.771  14.135  11.072
28988SOL    HW188861   0.685  14.127  11.113
28988SOL    HW288862   0.767  14.078  10.995
28989SOL     OW88863   1.445   7.049   4.897
28989SOL    HW188864   1.370   7.000   4.932
28989SOL    HW288865   1.521   6.995   4.916
28990SOL     OW88866  14.022  14.096   6.797
28990SOL    HW188867  14.026  14.191   6.784
28990SOL    HW288868  14.002  14.061   6.711
28991SOL     OW88869   4.242  10.789  12.541
28991SOL    HW188870   4.249  10.862  12.480
28991SOL    HW288871   4.312  10.729  12.515
28992SOL     OW88872   6.306   4.735   0.070
28992SOL    HW188873   6.374   4.798   0.094
28992SOL    HW288874   6.348   4.678   0.005
28993SOL     OW88875   8.950   5.963   6.836
28993SOL    HW188876   8.902   6.022   6.778
28993SOL    HW288877   9.029   6.011   6.860
28994SOL     OW88878   4.339   6.413   0.747
28994SOL    HW188879   4.312   6.471   0.676
28994SOL    HW288880   4.274   6.428   0.816
28995SOL     OW88881   3.191   2.792   5.326
28995SOL    HW188882   3.250   2.831   5.262
28995SOL    HW288883   3.184   2.856   5.396
28996SOL     OW88884   5.819   1.377   0.325
28996SOL    HW188885   5.842   1.463   0.290
28996SOL    HW288886   5.755   1.343   0.263
28997SOL     OW88887   6.719  10.285  13.617
28997SOL    HW188888   6.693  10.227  13.688
28997SOL    HW288889   6.755  10.227  13.550
28998SOL     OW88890   9.563   5.355   4.535
28998SOL    HW188891   9.559   5.420   4.465
28998SOL    HW288892   9.522   5.399   4.610
28999SOL     OW88893  14.148  13.045  14.033
28999SOL    HW188894  14.058  13.063  14.060
28999SOL    HW288895  14.140  12.978  13.964
29000SOL     OW88896   9.421  12.035   1.866
29000SOL    HW188897   9.416  12.063   1.774
29000SOL    HW288898   9.332  12.004   1.886
29001SOL     OW88899   4.375  12.551   6.677
29001SOL    HW188900   4.318  12.516   6.609
29001SOL    HW288901   4.336  12.521   6.759
29002SOL     OW88902   5.726   1.869   6.058
29002SOL    HW188903   5.643   1.859   6.106
29002SOL    HW288904   5.752   1.960   6.074
29003SOL     OW88905   9.631   5.251   4.965
29003SOL    HW188906   9.699   5.219   4.905
29003SOL    HW288907   9.668   5.237   5.052
29004SOL     OW88908  10.996   8.234   0.010
29004SOL    HW188909  11.015   8.158   0.066
29004SOL    HW288910  11.023   8.309   0.062
29005SOL     OW88911   2.612   3.105   6.308
29005SOL    HW188912   2.698   3.107   6.268
29005SOL    HW288913   2.553   3.141   6.241
29006SOL     OW88914   4.635   4.194   7.152
29006SOL    HW188915   4.685   4.240   7.086
29006SOL    HW288916   4.696   4.183   7.225
29007SOL     OW88917  13.771   7.944   5.065
29007SOL    HW188918  13.709   7.894   5.118
29007SOL    HW288919  13.835   7.879   5.035
29008SOL     OW88920   9.754   1.846  14.224
29008SOL    HW188921   9.770   1.930  14.268
29008SOL    HW288922   9.726   1.787  14.293
29009SOL     OW88923   9.567   7.302   1.715
29009SOL    HW188924   9.657   7.326   1.693
29009SOL    HW288925   9.522   7.386   1.728
29010SOL     OW88926  11.404   6.970  14.660
29010SOL    HW188927  11.351   7.036  14.616
29010SOL    HW288928  11.484   6.964  14.607
29011SOL     OW88929  12.189   8.046   5.695
29011SOL    HW188930  12.099   8.028   5.667
29011SOL    HW288931  12.211   7.975   5.754
29012SOL     OW88932   4.582   4.210   2.967
29012SOL    HW188933   4.542   4.297   2.973
29012SOL    HW288934   4.613   4.203   2.876
29013SOL     OW88935   1.777   2.439   3.433
29013SOL    HW188936   1.701   2.420   3.489
29013SOL    HW288937   1.849   2.452   3.495
29014SOL     OW88938  11.903   7.646  10.807
29014SOL    HW188939  11.828   7.685  10.762
29014SOL    HW288940  11.941   7.586  10.742
29015SOL     OW88941   6.092   9.162  11.785
29015SOL    HW188942   6.021   9.225  11.792
29015SOL    HW288943   6.067   9.091  11.845
29016SOL     OW88944   5.490   8.816   7.207
29016SOL    HW188945   5.489   8.895   7.260
29016SOL    HW288946   5.557   8.760   7.247
29017SOL     OW88947   2.638   8.508  11.575
29017SOL    HW188948   2.560   8.516  11.520
29017SOL    HW288949   2.677   8.424  11.551
29018SOL     OW88950   8.191   4.267   2.313
29018SOL    HW188951   8.230   4.314   2.387
29018SOL    HW288952   8.226   4.310   2.235
29019SOL     OW88953   8.861   5.779   3.990
29019SOL    HW188954   8.798   5.754   4.058
29019SOL    HW288955   8.807   5.809   3.917
29020SOL     OW88956  10.052   3.087  12.582
29020SOL    HW188957  10.056   3.009  12.527
29020SOL    HW288958  10.135   3.087  12.630
29021SOL     OW88959   3.490  11.145  10.629
29021SOL    HW188960   3.526  11.056  10.631
29021SOL    HW288961   3.538  11.188  10.557
29022SOL     OW88962   5.187  11.445   0.729
29022SOL    HW188963   5.235  11.483   0.802
29022SOL    HW288964   5.146  11.367   0.765
29023SOL     OW88965   3.235   9.712   1.494
29023SOL    HW188966   3.205   9.627   1.462
29023SOL    HW288967   3.312   9.693   1.547
29024SOL     OW88968   4.437   2.968  10.742
29024SOL    HW188969   4.526   2.968  10.777
29024SOL    HW288970   4.382   2.985  10.819
29025SOL     OW88971  12.415  12.236  14.194
29025SOL    HW188972  12.460  12.286  14.262
29025SOL    HW288973  12.485  12.191  14.147
29026SOL     OW88974  11.931  10.609  14.693
29026SOL    HW188975  11.981  10.666  14.634
29026SOL    HW288976  11.888  10.670  14.753
29027SOL     OW88977   1.666   7.170  11.336
29027SOL    HW188978   1.587   7.205  11.296
29027SOL    HW288979   1.679   7.085  11.293
29028SOL     OW88980   7.357   3.488   6.901
29028SOL    HW188981   7.370   3.444   6.816
29028SOL    HW288982   7.396   3.575   6.889
29029SOL     OW88983   7.922   7.051  11.821
29029SOL    HW188984   7.880   7.125  11.777
29029SOL    HW288985   7.878   7.046  11.906
29030SOL     OW88986   9.717   7.346   2.582
29030SOL    HW188987   9.667   7.400   2.644
29030SOL    HW288988   9.711   7.257   2.618
29031SOL     OW88989   1.415   6.484  11.599
29031SOL    HW188990   1.482   6.549  11.581
29031SOL    HW288991   1.370   6.517  11.677
29032SOL     OW88992   1.242   9.518  11.179
29032SOL    HW188993   1.245   9.441  11.122
29032SOL    HW288994   1.154   9.553  11.167
29033SOL     OW88995   5.909   3.997   3.472
29033SOL    HW188996   5.937   3.905   3.468
29033SOL    HW288997   5.939   4.028   3.557
29034SOL     OW88998  11.019  13.394   8.482
29034SOL    HW188999  11.055  13.457   8.544
29034SOL    HW289000  10.940  13.436   8.447
29035SOL     OW89001   1.147  13.016  12.156
29035SOL    HW189002   1.218  13.021  12.093
29035SOL    HW289003   1.176  13.070  12.229
29036SOL     OW89004  13.587   1.206  14.612
29036SOL    HW189005  13.583   1.165  14.525
29036SOL    HW289006  13.495   1.222  14.635
29037SOL     OW89007   3.998  10.757  10.195
29037SOL    HW189008   4.044  10.776  10.114
29037SOL    HW289009   3.941  10.682  10.173
29038SOL     OW89010   5.257   9.555   8.563
29038SOL    HW189011   5.228   9.629   8.615
29038SOL    HW289012   5.352   9.552   8.576
29039SOL     OW89013   2.546   6.293  13.340
29039SOL    HW189014   2.569   6.259  13.426
29039SOL    HW289015   2.611   6.362  13.323
29040SOL     OW89016   3.820   0.606  10.004
29040SOL    HW189017   3.821   0.644  10.092
29040SOL    HW289018   3.886   0.537  10.008
29041SOL     OW89019   2.658   9.336   3.087
29041SOL    HW189020   2.713   9.346   3.164
29041SOL    HW289021   2.710   9.283   3.027
29042SOL     OW89022   2.709  11.968  14.569
29042SOL    HW189023   2.615  11.955  14.560
29042SOL    HW289024   2.746  11.935  14.487
29043SOL     OW89025  10.415   5.591   9.935
29043SOL    HW189026  10.416   5.498   9.953
29043SOL    HW289027  10.348   5.601   9.867
29044SOL     OW89028  14.367  12.928   0.845
29044SOL    HW189029  14.286  12.919   0.795
29044SOL    HW289030  14.403  12.840   0.847
29045SOL     OW89031   0.728   8.243  14.843
29045SOL    HW189032   0.772   8.327  14.852
29045SOL    HW289033   0.798   8.178  14.850
29046SOL     OW89034   0.054   1.988   7.740
29046SOL    HW189035   0.041   2.067   7.792
29046SOL    HW289036  14.864   1.929   7.769
29047SOL     OW89037  12.228   7.212   7.530
29047SOL    HW189038  12.246   7.124   7.496
29047SOL    HW289039  12.202   7.199   7.621
29048SOL     OW89040  11.934  13.740  13.137
29048SOL    HW189041  11.968  13.770  13.053
29048SOL    HW289042  11.915  13.647  13.123
29049SOL     OW89043   8.229   5.408   1.947
29049SOL    HW189044   8.267   5.492   1.922
29049SOL    HW289045   8.288   5.343   1.910
29050SOL     OW89046  12.376   9.238  11.719
29050SOL    HW189047  12.381   9.158  11.771
29050SOL    HW289048  12.405   9.212  11.631
29051SOL     OW89049   4.332  14.388   9.108
29051SOL    HW189050   4.339  14.352   9.020
29051SOL    HW289051   4.341  14.482   9.097
29052SOL     OW89052   0.746   9.809   2.459
29052SOL    HW189053   0.809   9.875   2.487
29052SOL    HW289054   0.688   9.797   2.534
29053SOL     OW89055   6.699  10.999   3.494
29053SOL    HW189056   6.722  10.907   3.508
29053SOL    HW289057   6.605  10.999   3.481
29054SOL     OW89058   0.541  13.129   4.962
29054SOL    HW189059   0.563  13.222   4.964
29054SOL    HW289060   0.621  13.085   4.990
29055SOL     OW89061   8.158   4.989   0.082
29055SOL    HW189062   8.224   5.052   0.113
29055SOL    HW289063   8.155   4.922   0.151
29056SOL     OW89064  12.006   5.578   1.999
29056SOL    HW189065  11.969   5.517   2.062
29056SOL    HW289066  11.932   5.606   1.945
29057SOL     OW89067   5.214   1.513   2.101
29057SOL    HW189068   5.229   1.508   2.007
29057SOL    HW289069   5.147   1.447   2.118
29058SOL     OW89070  10.287  14.683  12.952
29058SOL    HW189071  10.354  14.625  12.989
29058SOL    HW289072  10.330  14.723  12.875
29059SOL     OW89073   7.041   7.135   6.413
29059SOL    HW189074   7.024   7.158   6.321
29059SOL    HW289075   7.136   7.138   6.421
29060SOL     OW89076   2.765   3.534   3.268
29060SOL    HW189077   2.832   3.498   3.209
29060SOL    HW289078   2.813   3.594   3.325
29061SOL     OW89079   6.021   7.197  14.320
29061SOL    HW189080   6.062   7.283  14.335
29061SOL    HW289081   5.955   7.214  14.253
29062SOL     OW89082   0.928   3.141  10.668
29062SOL    HW189083   0.919   3.046  10.681
29062SOL    HW289084   0.854   3.178  10.716
29063SOL     OW89085  13.692   0.493  10.411
29063SOL    HW189086  13.675   0.520  10.321
29063SOL    HW289087  13.784   0.468  10.412
29064SOL     OW89088  14.833   5.314   2.940
29064SOL    HW189089  14.778   5.235   2.936
29064SOL    HW289090  14.832   5.339   3.033
29065SOL     OW89091   5.247   8.342  12.613
29065SOL    HW189092   5.282   8.383  12.692
29065SOL    HW289093   5.258   8.248  12.629
29066SOL     OW89094  10.103  10.680   7.011
29066SOL    HW189095  10.059  10.661   7.094
29066SOL    HW289096  10.177  10.736   7.035
29067SOL     OW89097  12.184  11.022   3.607
29067SOL    HW189098  12.091  11.007   3.618
29067SOL    HW289099  12.226  10.958   3.665
29068SOL     OW89100   6.290  14.138  10.464
29068SOL    HW189101   6.310  14.094  10.547
29068SOL    HW289102   6.299  14.070  10.398
29069SOL     OW89103  10.679  14.273   8.463
29069SOL    HW189104  10.765  14.313   8.449
29069SOL    HW289105  10.621  14.347   8.479
29070SOL     OW89106  14.769  13.952  13.687
29070SOL    HW189107  14.689  13.927  13.733
29070SOL    HW289108  14.838  13.900  13.730
29071SOL     OW89109   0.930   8.851  11.250
29071SOL    HW189110   1.001   8.789  11.269
29071SOL    HW289111   0.935   8.916  11.320
29072SOL     OW89112   9.484  10.940   9.967
29072SOL    HW189113   9.469  10.883   9.891
29072SOL    HW289114   9.486  10.880  10.042
29073SOL     OW89115   4.354   8.447  10.752
29073SOL    HW189116   4.387   8.357  10.742
29073SOL    HW289117   4.335   8.476  10.663
29074SOL     OW89118  14.211   8.336  10.413
29074SOL    HW189119  14.126   8.369  10.442
29074SOL    HW289120  14.190   8.282  10.337
29075SOL     OW89121   8.054   8.931  10.708
29075SOL    HW189122   8.098   8.873  10.771
29075SOL    HW289123   8.123   8.991  10.679
29076SOL     OW89124   8.961  14.477   6.170
29076SOL    HW189125   9.050  14.512   6.173
29076SOL    HW289126   8.959  14.410   6.239
29077SOL     OW89127   4.594   0.236   1.883
29077SOL    HW189128   4.671   0.241   1.939
29077SOL    HW289129   4.602   0.310   1.823
29078SOL     OW89130   0.337   6.158  13.113
29078SOL    HW189131   0.427   6.177  13.137
29078SOL    HW289132   0.340   6.142  13.018
29079SOL     OW89133   7.331   0.348   0.736
29079SOL    HW189134   7.243   0.385   0.748
29079SOL    HW289135   7.390   0.416   0.771
29080SOL     OW89136   3.230   2.544   4.595
29080SOL    HW189137   3.276   2.627   4.582
29080SOL    HW289138   3.288   2.493   4.651
29081SOL     OW89139  11.722   3.953  10.468
29081SOL    HW189140  11.797   3.959  10.528
29081SOL    HW289141  11.697   4.044  10.451
29082SOL     OW89142   7.541  10.395  14.424
29082SOL    HW189143   7.625  10.370  14.384
29082SOL    HW289144   7.534  10.339  14.502
29083SOL     OW89145  12.937   9.099   6.637
29083SOL    HW189146  12.858   9.101   6.583
29083SOL    HW289147  12.953   9.191   6.658
29084SOL     OW89148   1.373   8.738   1.634
29084SOL    HW189149   1.332   8.774   1.712
29084SOL    HW289150   1.308   8.751   1.564
29085SOL     OW89151  10.957  11.274   4.566
29085SOL    HW189152  11.025  11.331   4.529
29085SOL    HW289153  10.893  11.265   4.496
29086SOL     OW89154   2.793  14.327  12.266
29086SOL    HW189155   2.851  14.333  12.190
29086SOL    HW289156   2.851  14.304  12.339
29087SOL     OW89157   0.915  13.356   8.824
29087SOL    HW189158   0.956  13.377   8.739
29087SOL    HW289159   0.883  13.267   8.813
29088SOL     OW89160   9.560  13.515   5.280
29088SOL    HW189161   9.617  13.473   5.216
29088SOL    HW289162   9.512  13.580   5.229
29089SOL     OW89163   0.204   8.054   0.656
29089SOL    HW189164   0.177   7.987   0.593
29089SOL    HW289165   0.167   8.136   0.621
29090SOL     OW89166   3.742   3.355   5.385
29090SOL    HW189167   3.723   3.274   5.337
29090SOL    HW289168   3.668   3.412   5.366
29091SOL     OW89169  13.721   9.896   0.338
29091SOL    HW189170  13.790   9.959   0.318
29091SOL    HW289171  13.647   9.950   0.365
29092SOL     OW89172   2.057  10.585  13.149
29092SOL    HW189173   2.107  10.558  13.227
29092SOL    HW289174   2.019  10.504  13.116
29093SOL     OW89175  14.366   4.064   9.510
29093SOL    HW189176  14.366   4.153   9.544
29093SOL    HW289177  14.277   4.050   9.479
29094SOL     OW89178  12.146  13.509   0.549
29094SOL    HW189179  12.208  13.545   0.486
29094SOL    HW289180  12.199  13.454   0.606
29095SOL     OW89181   1.633   9.869  13.076
29095SOL    HW189182   1.573   9.870  13.001
29095SOL    HW289183   1.593   9.808  13.138
29096SOL     OW89184  14.375   8.859  13.857
29096SOL    HW189185  14.300   8.845  13.799
29096SOL    HW289186  14.440   8.796  13.827
29097SOL     OW89187   4.500   6.806   9.328
29097SOL    HW189188   4.537   6.882   9.283
29097SOL    HW289189   4.553   6.732   9.297
29098SOL     OW89190   8.681   2.338  13.481
29098SOL    HW189191   8.764   2.334  13.527
29098SOL    HW289192   8.645   2.424  13.501
29099SOL     OW89193   0.989   4.254   8.168
29099SOL    HW189194   0.938   4.217   8.096
29099SOL    HW289195   1.039   4.326   8.129
29100SOL     OW89196  13.808   2.380  10.871
29100SOL    HW189197  13.834   2.299  10.915
29100SOL    HW289198  13.786   2.352  10.782
29101SOL     OW89199   1.657   3.013  13.490
29101SOL    HW189200   1.710   2.970  13.423
29101SOL    HW289201   1.587   3.057  13.440
29102SOL     OW89202   3.824   9.898   3.973
29102SOL    HW189203   3.830   9.930   4.064
29102SOL    HW289204   3.879   9.959   3.923
29103SOL     OW89205  12.023   6.202   1.368
29103SOL    HW189206  12.085   6.200   1.295
29103SOL    HW289207  11.937   6.209   1.327
29104SOL     OW89208   6.053  13.760  13.805
29104SOL    HW189209   5.982  13.757  13.869
29104SOL    HW289210   6.029  13.832  13.746
29105SOL     OW89211   3.136   3.050   5.141
29105SOL    HW189212   3.133   3.125   5.201
29105SOL    HW289213   3.072   2.988   5.175
29106SOL     OW89214   4.695   0.066  11.435
29106SOL    HW189215   4.771   0.010  11.421
29106SOL    HW289216   4.622   0.004  11.443
29107SOL     OW89217  13.711  14.272   9.836
29107SOL    HW189218  13.762  14.206   9.788
29107SOL    HW289219  13.745  14.356   9.806
29108SOL     OW89220   9.207  11.799  11.692
29108SOL    HW189221   9.199  11.713  11.733
29108SOL    HW289222   9.130  11.847  11.723
29109SOL     OW89223   4.901   4.233   6.887
29109SOL    HW189224   4.952   4.254   6.809
29109SOL    HW289225   4.963   4.243   6.960
29110SOL     OW89226   6.270  14.772   2.641
29110SOL    HW189227   6.353  14.792   2.598
29110SOL    HW289228   6.208  14.834   2.602
29111SOL     OW89229   2.499  13.780  12.524
29111SOL    HW189230   2.484  13.695  12.482
29111SOL    HW289231   2.478  13.765  12.616
29112SOL     OW89232   6.700  13.538  12.121
29112SOL    HW189233   6.692  13.466  12.058
29112SOL    HW289234   6.639  13.605  12.089
29113SOL     OW89235   3.522  12.623  14.071
29113SOL    HW189236   3.601  12.635  14.125
29113SOL    HW289237   3.555  12.619  13.981
29114SOL     OW89238   2.978   7.122   7.576
29114SOL    HW189239   2.918   7.056   7.543
29114SOL    HW289240   3.048   7.126   7.510
29115SOL     OW89241   2.241   6.236   6.668
29115SOL    HW189242   2.217   6.197   6.752
29115SOL    HW289243   2.268   6.161   6.614
29116SOL     OW89244   0.816   7.717   6.099
29116SOL    HW189245   0.864   7.634   6.097
29116SOL    HW289246   0.741   7.700   6.155
29117SOL     OW89247   7.868  13.227   2.004
29117SOL    HW189248   7.903  13.160   1.944
29117SOL    HW289249   7.882  13.190   2.091
29118SOL     OW89250   2.689  14.784   4.560
29118SOL    HW189251   2.749  14.709   4.552
29118SOL    HW289252   2.682  14.820   4.472
29119SOL     OW89253   8.913   5.641  11.741
29119SOL    HW189254   8.943   5.551  11.751
29119SOL    HW289255   8.930   5.662  11.650
29120SOL     OW89256   1.972  10.352  14.423
29120SOL    HW189257   1.942  10.261  14.428
29120SOL    HW289258   2.062  10.349  14.457
29121SOL     OW89259  14.050  13.632  12.807
29121SOL    HW189260  14.088  13.545  12.813
29121SOL    HW289261  14.124  13.689  12.785
29122SOL     OW89262   6.249   7.331   6.473
29122SOL    HW189263   6.222   7.423   6.470
29122SOL    HW289264   6.286   7.320   6.561
29123SOL     OW89265   6.371   1.255   9.737
29123SOL    HW189266   6.400   1.189   9.801
29123SOL    HW289267   6.280   1.273   9.761
29124SOL     OW89268   7.911   7.730   3.207
29124SOL    HW189269   7.929   7.780   3.127
29124SOL    HW289270   7.816   7.726   3.212
29125SOL     OW89271  14.405   2.736   5.485
29125SOL    HW189272  14.393   2.649   5.523
29125SOL    HW289273  14.450   2.786   5.553
29126SOL     OW89274  10.668  10.479   2.036
29126SOL    HW189275  10.733  10.518   1.978
29126SOL    HW289276  10.689  10.385   2.036
29127SOL     OW89277  12.634  13.383  13.285
29127SOL    HW189278  12.643  13.289  13.299
29127SOL    HW289279  12.696  13.404  13.215
29128SOL     OW89280   5.195   1.811   2.671
29128SOL    HW189281   5.203   1.884   2.610
29128SOL    HW289282   5.125   1.756   2.635
29129SOL     OW89283  13.015  12.146  13.167
29129SOL    HW189284  13.012  12.064  13.216
29129SOL    HW289285  12.977  12.125  13.081
29130SOL     OW89286  13.694  12.352   2.216
29130SOL    HW189287  13.609  12.354   2.261
29130SOL    HW289288  13.715  12.445   2.202
29131SOL     OW89289   3.264   3.005   4.055
29131SOL    HW189290   3.318   2.978   4.129
29131SOL    HW289291   3.179   2.964   4.071
29132SOL     OW89292  10.248   7.917   0.652
29132SOL    HW189293  10.270   7.884   0.565
29132SOL    HW289294  10.287   7.853   0.712
29133SOL     OW89295  13.051   4.533   8.499
29133SOL    HW189296  12.966   4.500   8.526
29133SOL    HW289297  13.088   4.572   8.579
29134SOL     OW89298  10.202   1.075   1.977
29134SOL    HW189299  10.108   1.059   1.966
29134SOL    HW289300  10.222   1.039   2.063
29135SOL     OW89301   0.494   4.966   1.238
29135SOL    HW189302   0.494   4.941   1.330
29135SOL    HW289303   0.444   5.048   1.235
29136SOL     OW89304  11.246   6.698   8.142
29136SOL    HW189305  11.268   6.621   8.195
29136SOL    HW289306  11.190   6.751   8.198
29137SOL     OW89307   5.017  12.682  13.458
29137SOL    HW189308   4.991  12.709  13.547
29137SOL    HW289309   4.937  12.649  13.419
29138SOL     OW89310   8.200  13.588   0.399
29138SOL    HW189311   8.144  13.510   0.398
29138SOL    HW289312   8.228  13.598   0.308
29139SOL     OW89313  11.112  12.671   8.047
29139SOL    HW189314  11.158  12.644   8.126
29139SOL    HW289315  11.181  12.677   7.980
29140SOL     OW89316   6.189  12.050   3.271
29140SOL    HW189317   6.181  12.071   3.178
29140SOL    HW289318   6.219  12.131   3.312
29141SOL     OW89319   0.838   3.410   6.375
29141SOL    HW189320   0.777   3.478   6.346
29141SOL    HW289321   0.895   3.396   6.300
29142SOL     OW89322   7.598   1.570   7.966
29142SOL    HW189323   7.637   1.539   8.048
29142SOL    HW289324   7.567   1.491   7.923
29143SOL     OW89325  13.988  14.261   2.497
29143SOL    HW189326  13.939  14.286   2.575
29143SOL    HW289327  13.921  14.238   2.433
29144SOL     OW89328  11.933  13.636   4.830
29144SOL    HW189329  11.882  13.565   4.870
29144SOL    HW289330  12.020  13.626   4.869
29145SOL     OW89331   0.535   9.743   9.973
29145SOL    HW189332   0.441   9.740   9.988
29145SOL    HW289333   0.565   9.653   9.991
29146SOL     OW89334   6.139   8.070   9.581
29146SOL    HW189335   6.216   8.119   9.552
29146SOL    HW289336   6.091   8.052   9.500
29147SOL     OW89337  14.565   1.343  14.543
29147SOL    HW189338  14.536   1.376  14.458
29147SOL    HW289339  14.651   1.383  14.556
29148SOL     OW89340   6.343   0.690   2.795
29148SOL    HW189341   6.329   0.643   2.878
29148SOL    HW289342   6.306   0.776   2.811
29149SOL     OW89343   0.443   4.214   7.057
29149SOL    HW189344   0.416   4.296   7.015
29149SOL    HW289345   0.361   4.165   7.068
29150SOL     OW89346   5.392   7.371  13.379
29150SOL    HW189347   5.373   7.390  13.471
29150SOL    HW289348   5.473   7.321  13.381
29151SOL     OW89349  11.634  11.826  14.467
29151SOL    HW189350  11.540  11.827  14.450
29151SOL    HW289351  11.656  11.917  14.487
29152SOL     OW89352   0.410   9.560   9.036
29152SOL    HW189353   0.379   9.568   8.946
29152SOL    HW289354   0.397   9.647   9.074
29153SOL     OW89355   9.277  10.704  12.431
29153SOL    HW189356   9.284  10.707  12.335
29153SOL    HW289357   9.219  10.776  12.453
29154SOL     OW89358   3.140  12.292   8.315
29154SOL    HW189359   3.142  12.298   8.411
29154SOL    HW289360   3.213  12.347   8.287
29155SOL     OW89361  14.064   5.261   5.026
29155SOL    HW189362  14.098   5.261   5.116
29155SOL    HW289363  14.142   5.254   4.971
29156SOL     OW89364   1.372  11.705   0.665
29156SOL    HW189365   1.352  11.796   0.687
29156SOL    HW289366   1.461  11.691   0.698
29157SOL     OW89367   2.572   7.125   2.915
29157SOL    HW189368   2.598   7.154   2.827
29157SOL    HW289369   2.476   7.126   2.912
29158SOL     OW89370   7.390   8.439   4.178
29158SOL    HW189371   7.367   8.362   4.125
29158SOL    HW289372   7.485   8.447   4.170
29159SOL     OW89373  10.538   6.414   4.674
29159SOL    HW189374  10.496   6.410   4.760
29159SOL    HW289375  10.478   6.465   4.620
29160SOL     OW89376   1.356   5.428   4.588
29160SOL    HW189377   1.345   5.338   4.558
29160SOL    HW289378   1.363   5.479   4.508
29161SOL     OW89379   9.118   1.271  13.901
29161SOL    HW189380   9.118   1.297  13.809
29161SOL    HW289381   9.131   1.176  13.900
29162SOL     OW89382   2.267   1.289   0.172
29162SOL    HW189383   2.361   1.275   0.185
29162SOL    HW289384   2.243   1.227   0.103
29163SOL     OW89385   8.068   5.533  10.981
29163SOL    HW189386   8.057   5.625  10.956
29163SOL    HW289387   7.980   5.496  10.977
29164SOL     OW89388  13.538   7.711  11.929
29164SOL    HW189389  13.447   7.680  11.934
29164SOL    HW289390  13.586   7.652  11.987
29165SOL     OW89391   3.174  11.631   1.270
29165SOL    HW189392   3.160  11.716   1.229
29165SOL    HW289393   3.094  11.582   1.252
29166SOL     OW89394  12.555   4.938   2.479
29166SOL    HW189395  12.624   4.900   2.425
29166SOL    HW289396  12.547   5.029   2.448
29167SOL     OW89397  13.945   4.542   3.527
29167SOL    HW189398  13.947   4.551   3.432
29167SOL    HW289399  13.855   4.563   3.552
29168SOL     OW89400   0.260   8.719   8.897
29168SOL    HW189401   0.209   8.754   8.824
29168SOL    HW289402   0.217   8.754   8.975
29169SOL     OW89403   5.409   0.609  13.270
29169SOL    HW189404   5.365   0.688  13.240
29169SOL    HW289405   5.337   0.551  13.298
29170SOL     OW89406   3.998   6.636   5.178
29170SOL    HW189407   3.936   6.570   5.210
29170SOL    HW289408   3.970   6.652   5.088
29171SOL     OW89409  11.621   3.502   0.079
29171SOL    HW189410  11.626   3.422   0.132
29171SOL    HW289411  11.527   3.517   0.067
29172SOL     OW89412   6.520   4.679  11.878
29172SOL    HW189413   6.479   4.601  11.842
29172SOL    HW289414   6.588   4.646  11.936
29173SOL     OW89415  13.783   6.595   8.555
29173SOL    HW189416  13.848   6.613   8.487
29173SOL    HW289417  13.835   6.584   8.635
29174SOL     OW89418  14.740   6.290   2.367
29174SOL    HW189419  14.710   6.354   2.431
29174SOL    HW289420  14.677   6.218   2.373
29175SOL     OW89421  13.507   1.848   4.719
29175SOL    HW189422  13.417   1.878   4.729
29175SOL    HW289423  13.558   1.928   4.708
29176SOL     OW89424  10.758   4.404   6.247
29176SOL    HW189425  10.838   4.432   6.203
29176SOL    HW289426  10.687   4.450   6.201
29177SOL     OW89427   4.671  11.751   5.868
29177SOL    HW189428   4.585  11.754   5.826
29177SOL    HW289429   4.658  11.795   5.952
29178SOL     OW89430  11.401  10.216   7.666
29178SOL    HW189431  11.414  10.121   7.670
29178SOL    HW289432  11.306  10.226   7.656
29179SOL     OW89433  12.321   3.861   7.921
29179SOL    HW189434  12.408   3.843   7.886
29179SOL    HW289435  12.261   3.825   7.856
29180SOL     OW89436   0.518   6.829   5.790
29180SOL    HW189437   0.526   6.920   5.764
29180SOL    HW289438   0.441   6.827   5.847
29181SOL     OW89439  12.538  12.810   1.767
29181SOL    HW189440  12.512  12.892   1.810
29181SOL    HW289441  12.483  12.807   1.688
29182SOL     OW89442  11.938  13.607   2.199
29182SOL    HW189443  11.900  13.523   2.172
29182SOL    HW289444  11.989  13.585   2.277
29183SOL     OW89445   3.321   8.022   3.058
29183SOL    HW189446   3.332   8.116   3.042
29183SOL    HW289447   3.251   7.996   2.998
29184SOL     OW89448  14.791   5.479   9.029
29184SOL    HW189449  14.879   5.503   9.059
29184SOL    HW289450  14.770   5.400   9.078
29185SOL     OW89451  14.136  12.482   1.619
29185SOL    HW189452  14.232  12.484   1.614
29185SOL    HW289453  14.108  12.437   1.539
29186SOL     OW89454  10.480   4.510   8.112
29186SOL    HW189455  10.476   4.600   8.080
29186SOL    HW289456  10.429   4.511   8.193
29187SOL     OW89457   3.866   4.286   2.663
29187SOL    HW189458   3.841   4.239   2.584
29187SOL    HW289459   3.878   4.218   2.729
29188SOL     OW89460   8.701   6.240   6.369
29188SOL    HW189461   8.757   6.164   6.376
29188SOL    HW289462   8.705   6.265   6.276
29189SOL     OW89463  12.245   5.909  12.548
29189SOL    HW189464  12.256   5.831  12.493
29189SOL    HW289465  12.205   5.974  12.489
29190SOL     OW89466  11.742   5.170   5.338
29190SOL    HW189467  11.811   5.190   5.275
29190SOL    HW289468  11.718   5.079   5.319
29191SOL     OW89469  10.000  11.425  10.839
29191SOL    HW189470  10.068  11.393  10.898
29191SOL    HW289471   9.971  11.507  10.878
29192SOL     OW89472   0.257  12.853   6.200
29192SOL    HW189473   0.162  12.848   6.187
29192SOL    HW289474   0.280  12.768   6.238
29193SOL     OW89475  13.788  13.809   1.431
29193SOL    HW189476  13.829  13.830   1.347
29193SOL    HW289477  13.848  13.846   1.497
29194SOL     OW89478   0.131   8.810   7.422
29194SOL    HW189479   0.119   8.821   7.516
29194SOL    HW289480   0.071   8.873   7.382
29195SOL     OW89481   3.247   9.241   9.970
29195SOL    HW189482   3.175   9.200   9.923
29195SOL    HW289483   3.205   9.295  10.037
29196SOL     OW89484   7.037  14.556   6.334
29196SOL    HW189485   7.050  14.645   6.366
29196SOL    HW289486   7.033  14.502   6.413
29197SOL     OW89487   7.921   4.581   5.008
29197SOL    HW189488   7.945   4.503   5.058
29197SOL    HW289489   7.871   4.548   4.934
29198SOL     OW89490  14.691  10.380  14.723
29198SOL    HW189491  14.680  10.285  14.727
29198SOL    HW289492  14.667  10.404  14.634
29199SOL     OW89493   5.252   1.485  13.119
29199SOL    HW189494   5.166   1.444  13.108
29199SOL    HW289495   5.255   1.553  13.052
29200SOL     OW89496   0.216   7.932   9.928
29200SOL    HW189497   0.150   7.872   9.894
29200SOL    HW289498   0.208   7.926  10.023
29201SOL     OW89499   7.399  11.186   7.567
29201SOL    HW189500   7.446  11.107   7.593
29201SOL    HW289501   7.339  11.203   7.640
29202SOL     OW89502   6.803   8.512   0.043
29202SOL    HW189503   6.801   8.453   0.119
29202SOL    HW289504   6.892   8.547   0.042
29203SOL     OW89505  12.647   3.956   9.382
29203SOL    HW189506  12.682   3.897   9.316
29203SOL    HW289507  12.552   3.941   9.380
29204SOL     OW89508   6.750  12.981   1.590
29204SOL    HW189509   6.826  12.965   1.535
29204SOL    HW289510   6.785  13.021   1.669
29205SOL     OW89511   2.875   2.736   8.455
29205SOL    HW189512   2.908   2.746   8.544
29205SOL    HW289513   2.782   2.760   8.461
29206SOL     OW89514  14.767   9.707   4.227
29206SOL    HW189515  14.776   9.787   4.174
29206SOL    HW289516  14.743   9.739   4.314
29207SOL     OW89517  13.012   6.128  13.811
29207SOL    HW189518  12.996   6.216  13.777
29207SOL    HW289519  13.107   6.125  13.826
29208SOL     OW89520   3.504  14.187  11.591
29208SOL    HW189521   3.567  14.117  11.608
29208SOL    HW289522   3.462  14.161  11.509
29209SOL     OW89523   7.721   6.971   8.695
29209SOL    HW189524   7.789   6.909   8.668
29209SOL    HW289525   7.664   6.978   8.618
29210SOL     OW89526  12.413   7.110  10.184
29210SOL    HW189527  12.472   7.127  10.110
29210SOL    HW289528  12.354   7.042  10.151
29211SOL     OW89529   3.489   7.523  12.682
29211SOL    HW189530   3.580   7.551  12.695
29211SOL    HW289531   3.496   7.447  12.624
29212SOL     OW89532   8.745   7.106   0.766
29212SOL    HW189533   8.739   7.160   0.687
29212SOL    HW289534   8.656   7.105   0.801
29213SOL     OW89535   8.217  11.143   1.823
29213SOL    HW189536   8.311  11.139   1.805
29213SOL    HW289537   8.207  11.222   1.877
29214SOL     OW89538   8.348  10.028   2.506
29214SOL    HW189539   8.404  10.104   2.494
29214SOL    HW289540   8.260  10.060   2.485
29215SOL     OW89541   1.131   0.914  11.472
29215SOL    HW189542   1.220   0.892  11.498
29215SOL    HW289543   1.131   1.009  11.464
29216SOL     OW89544  11.617  10.472   2.955
29216SOL    HW189545  11.649  10.459   2.865
29216SOL    HW289546  11.675  10.539   2.991
29217SOL     OW89547   4.520  10.344   0.438
29217SOL    HW189548   4.611  10.326   0.417
29217SOL    HW289549   4.512  10.439   0.432
29218SOL     OW89550  13.272   2.360  14.065
29218SOL    HW189551  13.269   2.333  13.973
29218SOL    HW289552  13.336   2.432  14.066
29219SOL     OW89553   8.441   0.533   8.234
29219SOL    HW189554   8.438   0.441   8.262
29219SOL    HW289555   8.434   0.529   8.138
29220SOL     OW89556  11.576   4.161   5.556
29220SOL    HW189557  11.586   4.069   5.533
29220SOL    HW289558  11.664   4.198   5.546
29221SOL     OW89559  10.668   3.246   0.235
29221SOL    HW189560  10.582   3.206   0.223
29221SOL    HW289561  10.730   3.177   0.209
29222SOL     OW89562  12.658  14.756   9.647
29222SOL    HW189563  12.616  14.781   9.565
29222SOL    HW289564  12.706  14.676   9.626
29223SOL     OW89565   6.099   2.241   3.188
29223SOL    HW189566   6.074   2.151   3.166
29223SOL    HW289567   6.195   2.241   3.184
29224SOL     OW89568   5.552   4.844   5.342
29224SOL    HW189569   5.607   4.769   5.319
29224SOL    HW289570   5.589   4.876   5.424
29225SOL     OW89571   0.422   1.395  13.903
29225SOL    HW189572   0.462   1.365  13.984
29225SOL    HW289573   0.426   1.490  13.908
29226SOL     OW89574  11.398   3.764   8.390
29226SOL    HW189575  11.355   3.701   8.449
29226SOL    HW289576  11.330   3.785   8.325
29227SOL     OW89577  11.492   6.512   5.390
29227SOL    HW189578  11.451   6.498   5.305
29227SOL    HW289579  11.539   6.431   5.408
29228SOL     OW89580   3.380   7.448  10.290
29228SOL    HW189581   3.442   7.468  10.360
29228SOL    HW289582   3.422   7.483  10.211
29229SOL     OW89583   4.024   9.670   1.819
29229SOL    HW189584   3.987   9.757   1.800
29229SOL    HW289585   4.117   9.686   1.832
29230SOL     OW89586   4.494   1.847   1.438
29230SOL    HW189587   4.451   1.847   1.524
29230SOL    HW289588   4.446   1.782   1.387
29231SOL     OW89589   4.013  12.590   7.061
29231SOL    HW189590   4.041  12.558   7.147
29231SOL    HW289591   4.050  12.678   7.054
29232SOL     OW89592   9.442   5.702  13.163
29232SOL    HW189593   9.451   5.792  13.193
29232SOL    HW289594   9.361   5.702  13.112
29233SOL     OW89595   4.315   0.107   7.146
29233SOL    HW189596   4.359   0.076   7.225
29233SOL    HW289597   4.386   0.137   7.089
29234SOL     OW89598   7.675   3.730   2.757
29234SOL    HW189599   7.583   3.707   2.764
29234SOL    HW289600   7.676   3.823   2.738
29235SOL     OW89601   4.783   5.845   1.911
29235SOL    HW189602   4.708   5.898   1.939
29235SOL    HW289603   4.766   5.827   1.818
29236SOL     OW89604   3.041   6.251   3.372
29236SOL    HW189605   3.118   6.230   3.319
29236SOL    HW289606   3.025   6.344   3.355
29237SOL     OW89607   4.607   5.060  11.625
29237SOL    HW189608   4.601   5.059  11.720
29237SOL    HW289609   4.628   4.970  11.601
29238SOL     OW89610   4.665  13.266  11.288
29238SOL    HW189611   4.579  13.246  11.326
29238SOL    HW289612   4.728  13.222  11.345
29239SOL     OW89613   3.210  10.938   6.914
29239SOL    HW189614   3.294  10.979   6.896
29239SOL    HW289615   3.228  10.872   6.981
29240SOL     OW89616   2.034  10.468   8.923
29240SOL    HW189617   2.054  10.398   8.986
29240SOL    HW289618   2.044  10.548   8.974
29241SOL     OW89619   9.182   0.132  12.543
29241SOL    HW189620   9.208   0.050  12.586
29241SOL    HW289621   9.261   0.163  12.500
29242SOL     OW89622   7.891  12.570   4.293
29242SOL    HW189623   7.826  12.606   4.232
29242SOL    HW289624   7.849  12.493   4.331
29243SOL     OW89625   6.482   0.122   0.733
29243SOL    HW189626   6.431   0.196   0.763
29243SOL    HW289627   6.422   0.072   0.678
29244SOL     OW89628   4.786   2.004  13.308
29244SOL    HW189629   4.727   2.078  13.325
29244SOL    HW289630   4.757   1.969  13.224
29245SOL     OW89631  14.152  14.270   2.162
29245SOL    HW189632  14.190  14.258   2.249
29245SOL    HW289633  14.227  14.292   2.106
29246SOL     OW89634   2.798  11.365   0.062
29246SOL    HW189635   2.847  11.349   0.143
29246SOL    HW289636   2.717  11.408   0.091
29247SOL     OW89637  10.127  12.468   2.669
29247SOL    HW189638  10.093  12.455   2.758
29247SOL    HW289639  10.062  12.525   2.627
29248SOL     OW89640  11.760   1.096  14.516
29248SOL    HW189641  11.843   1.128  14.549
29248SOL    HW289642  11.783   1.028  14.452
29249SOL     OW89643   8.889   4.560   8.012
29249SOL    HW189644   8.966   4.569   8.068
29249SOL    HW289645   8.893   4.470   7.979
29250SOL     OW89646  11.789   3.118   0.994
29250SOL    HW189647  11.794   3.212   0.977
29250SOL    HW289648  11.800   3.111   1.089
29251SOL     OW89649  11.963   2.737   5.379
29251SOL    HW189650  11.999   2.736   5.468
29251SOL    HW289651  11.905   2.662   5.376
29252SOL     OW89652   6.767   6.940  10.468
29252SOL    HW189653   6.854   6.900  10.468
29252SOL    HW289654   6.711   6.874  10.509
29253SOL     OW89655   6.792  12.564   7.565
29253SOL    HW189656   6.862  12.522   7.615
29253SOL    HW289657   6.787  12.513   7.484
29254SOL     OW89658   7.433   4.347  13.389
29254SOL    HW189659   7.452   4.282  13.457
29254SOL    HW289660   7.487   4.422  13.412
29255SOL     OW89661  10.395  13.025   8.473
29255SOL    HW189662  10.343  13.026   8.392
29255SOL    HW289663  10.422  12.934   8.482
29256SOL     OW89664   3.612   1.552   7.949
29256SOL    HW189665   3.614   1.619   7.880
29256SOL    HW289666   3.645   1.473   7.906
29257SOL     OW89667   6.174   1.411   4.873
29257SOL    HW189668   6.140   1.353   4.804
29257SOL    HW289669   6.257   1.443   4.839
29258SOL     OW89670  14.219   3.509   2.493
29258SOL    HW189671  14.184   3.597   2.482
29258SOL    HW289672  14.213   3.470   2.405
29259SOL     OW89673   1.386  13.579  14.053
29259SOL    HW189674   1.376  13.495  14.008
29259SOL    HW289675   1.296  13.606  14.072
29260SOL     OW89676  14.768   5.373  11.957
29260SOL    HW189677  14.787   5.281  11.972
29260SOL    HW289678  14.680   5.373  11.917
29261SOL     OW89679   5.429   3.162   5.706
29261SOL    HW189680   5.472   3.078   5.715
29261SOL    HW289681   5.383   3.157   5.622
29262SOL     OW89682   3.757  11.342   8.265
29262SOL    HW189683   3.734  11.285   8.338
29262SOL    HW289684   3.837  11.386   8.294
29263SOL     OW89685   7.369  13.408   3.640
29263SOL    HW189686   7.414  13.403   3.724
29263SOL    HW289687   7.371  13.501   3.617
29264SOL     OW89688  10.132   0.013  12.762
29264SOL    HW189689  10.157   0.028  12.854
29264SOL    HW289690  10.037   0.016  12.762
29265SOL     OW89691  14.198   5.323  14.322
29265SOL    HW189692  14.142   5.336  14.246
29265SOL    HW289693  14.166   5.386  14.387
29266SOL     OW89694   7.699   3.457   5.002
29266SOL    HW189695   7.677   3.432   5.092
29266SOL    HW289696   7.615   3.455   4.956
29267SOL     OW89697  14.700   0.384   6.384
29267SOL    HW189698  14.658   0.459   6.427
29267SOL    HW289699  14.769   0.422   6.330
29268SOL     OW89700   8.329  11.086   1.366
29268SOL    HW189701   8.384  11.052   1.436
29268SOL    HW289702   8.307  11.008   1.314
29269SOL     OW89703  10.821   3.304   4.363
29269SOL    HW189704  10.745   3.362   4.359
29269SOL    HW289705  10.810   3.245   4.288
29270SOL     OW89706  12.800   3.345   6.437
29270SOL    HW189707  12.834   3.347   6.526
29270SOL    HW289708  12.725   3.286   6.441
29271SOL     OW89709   3.559   7.123   5.276
29271SOL    HW189710   3.550   7.044   5.328
29271SOL    HW289711   3.623   7.100   5.208
29272SOL     OW89712  13.162  11.776  14.298
29272SOL    HW189713  13.153  11.702  14.359
29272SOL    HW289714  13.133  11.741  14.214
29273SOL     OW89715   4.264   6.909  11.163
29273SOL    HW189716   4.284   6.835  11.220
29273SOL    HW289717   4.186   6.949  11.203
29274SOL     OW89718   8.287  10.766   1.130
29274SOL    HW189719   8.306  10.764   1.036
29274SOL    HW289720   8.284  10.674   1.155
29275SOL     OW89721   4.539   2.157  11.000
29275SOL    HW189722   4.460   2.190  11.041
29275SOL    HW289723   4.510   2.079  10.953
29276SOL     OW89724   7.495   8.814  10.785
29276SOL    HW189725   7.578   8.768  10.769
29276SOL    HW289726   7.461   8.774  10.865
29277SOL     OW89727   0.305  10.129   2.006
29277SOL    HW189728   0.237  10.090   2.060
29277SOL    HW289729   0.386  10.111   2.054
29278SOL     OW89730  12.269   8.310   4.511
29278SOL    HW189731  12.255   8.349   4.597
29278SOL    HW289732  12.314   8.227   4.530
29279SOL     OW89733   0.879   4.517   7.077
29279SOL    HW189734   0.890   4.422   7.076
29279SOL    HW289735   0.826   4.536   7.000
29280SOL     OW89736   8.832   2.742   3.222
29280SOL    HW189737   8.825   2.698   3.138
29280SOL    HW289738   8.748   2.789   3.231
29281SOL     OW89739   0.253   9.299  14.054
29281SOL    HW189740   0.178   9.240  14.059
29281SOL    HW289741   0.283   9.292  13.963
29282SOL     OW89742   5.042   1.585  11.754
29282SOL    HW189743   5.009   1.669  11.785
29282SOL    HW289744   5.136   1.589  11.770
29283SOL     OW89745   3.102   7.542   3.920
29283SOL    HW189746   3.064   7.630   3.927
29283SOL    HW289747   3.029   7.483   3.940
29284SOL     OW89748  13.197   1.093  13.682
29284SOL    HW189749  13.236   1.180  13.689
29284SOL    HW289750  13.231   1.045  13.757
29285SOL     OW89751   8.419   1.502   8.771
29285SOL    HW189752   8.469   1.422   8.752
29285SOL    HW289753   8.333   1.470   8.799
29286SOL     OW89754   6.448   6.454   2.455
29286SOL    HW189755   6.496   6.372   2.466
29286SOL    HW289756   6.515   6.522   2.462
29287SOL     OW89757   1.057   6.825  11.329
29287SOL    HW189758   1.108   6.810  11.249
29287SOL    HW289759   0.975   6.864  11.297
29288SOL     OW89760   3.296   6.158   6.726
29288SOL    HW189761   3.237   6.227   6.697
29288SOL    HW289762   3.377   6.173   6.677
29289SOL     OW89763  11.952   8.295   6.713
29289SOL    HW189764  11.915   8.219   6.758
29289SOL    HW289765  12.046   8.289   6.728
29290SOL     OW89766  14.577  10.588   6.870
29290SOL    HW189767  14.563  10.534   6.947
29290SOL    HW289768  14.514  10.660   6.879
29291SOL     OW89769   5.250   8.475  12.365
29291SOL    HW189770   5.261   8.433  12.450
29291SOL    HW289771   5.166   8.520  12.372
29292SOL     OW89772   3.354   7.121   0.420
29292SOL    HW189773   3.298   7.081   0.354
29292SOL    HW289774   3.304   7.117   0.501
29293SOL     OW89775   2.296   2.145  11.921
29293SOL    HW189776   2.288   2.240  11.911
29293SOL    HW289777   2.370   2.121  11.864
29294SOL     OW89778   9.138  14.455  10.104
29294SOL    HW189779   9.109  14.458  10.195
29294SOL    HW289780   9.226  14.491  10.105
29295SOL     OW89781   7.643  11.324  12.460
29295SOL    HW189782   7.567  11.268  12.447
29295SOL    HW289783   7.718  11.264  12.458
29296SOL     OW89784   3.830  11.911   0.618
29296SOL    HW189785   3.878  11.834   0.650
29296SOL    HW289786   3.839  11.907   0.523
29297SOL     OW89787   6.252   8.020   9.974
29297SOL    HW189788   6.332   8.067  10.000
29297SOL    HW289789   6.203   8.010  10.055
29298SOL     OW89790  10.033   6.888   1.945
29298SOL    HW189791  10.120   6.849   1.939
29298SOL    HW289792  10.009   6.905   1.854
29299SOL     OW89793  12.730   6.464   4.903
29299SOL    HW189794  12.724   6.466   4.999
29299SOL    HW289795  12.702   6.375   4.880
29300SOL     OW89796   5.273   3.805  10.700
29300SOL    HW189797   5.368   3.816  10.713
29300SOL    HW289798   5.265   3.780  10.608
29301SOL     OW89799   1.622   3.218   4.208
29301SOL    HW189800   1.587   3.171   4.133
29301SOL    HW289801   1.594   3.166   4.284
29302SOL     OW89802   5.229  12.597   9.909
29302SOL    HW189803   5.177  12.616   9.987
29302SOL    HW289804   5.319  12.611   9.935
29303SOL     OW89805  10.320  10.795   8.321
29303SOL    HW189806  10.241  10.824   8.367
29303SOL    HW289807  10.288  10.730   8.258
29304SOL     OW89808   8.368   8.923   1.836
29304SOL    HW189809   8.448   8.926   1.783
29304SOL    HW289810   8.321   9.003   1.813
29305SOL     OW89811   2.967   7.230  11.688
29305SOL    HW189812   2.926   7.160  11.638
29305SOL    HW289813   3.061   7.217  11.674
29306SOL     OW89814   7.160   3.464  10.435
29306SOL    HW189815   7.165   3.379  10.392
29306SOL    HW289816   7.095   3.452  10.504
29307SOL     OW89817   5.625  11.345   9.008
29307SOL    HW189818   5.622  11.256   8.971
29307SOL    HW289819   5.692  11.340   9.076
29308SOL     OW89820  12.642  13.532   0.837
29308SOL    HW189821  12.610  13.462   0.781
29308SOL    HW289822  12.667  13.488   0.918
29309SOL     OW89823   4.429  13.632   8.852
29309SOL    HW189824   4.384  13.553   8.880
29309SOL    HW289825   4.431  13.687   8.930
29310SOL     OW89826  11.205  10.624   7.041
29310SOL    HW189827  11.210  10.575   7.123
29310SOL    HW289828  11.293  10.615   7.003
29311SOL     OW89829  11.693   3.582  12.983
29311SOL    HW189830  11.777   3.550  13.017
29311SOL    HW289831  11.711   3.602  12.891
29312SOL     OW89832   5.865  11.195   7.588
29312SOL    HW189833   5.821  11.231   7.665
29312SOL    HW289834   5.935  11.141   7.624
29313SOL     OW89835  11.897   4.124   4.391
29313SOL    HW189836  11.826   4.160   4.339
29313SOL    HW289837  11.866   4.130   4.481
29314SOL     OW89838   5.245   3.609  12.185
29314SOL    HW189839   5.196   3.577  12.261
29314SOL    HW289840   5.336   3.608  12.214
29315SOL     OW89841   8.184   3.871   0.621
29315SOL    HW189842   8.119   3.934   0.593
29315SOL    HW289843   8.134   3.792   0.644
29316SOL     OW89844   2.583   9.024  10.356
29316SOL    HW189845   2.661   9.004  10.304
29316SOL    HW289846   2.520   8.955  10.333
29317SOL     OW89847   4.746   8.356   0.590
29317SOL    HW189848   4.711   8.267   0.604
29317SOL    HW289849   4.776   8.383   0.677
29318SOL     OW89850   7.081  11.003  10.530
29318SOL    HW189851   7.070  11.064  10.457
29318SOL    HW289852   7.154  11.040  10.580
29319SOL     OW89853   8.397  13.953  13.005
29319SOL    HW189854   8.311  13.912  12.994
29319SOL    HW289855   8.389  14.038  12.961
29320SOL     OW89856   5.132   9.455  14.842
29320SOL    HW189857   5.118   9.486  14.752
29320SOL    HW289858   5.083   9.517   0.017
29321SOL     OW89859   1.976   1.964   9.414
29321SOL    HW189860   2.033   1.986   9.488
29321SOL    HW289861   1.948   1.874   9.431
29322SOL     OW89862   7.163  10.079   8.169
29322SOL    HW189863   7.207  10.129   8.100
29322SOL    HW289864   7.072  10.110   8.166
29323SOL     OW89865   7.610   2.980   6.457
29323SOL    HW189866   7.690   2.929   6.448
29323SOL    HW289867   7.551   2.944   6.391
29324SOL     OW89868   0.190   3.219  13.869
29324SOL    HW189869   0.241   3.294  13.836
29324SOL    HW289870   0.134   3.195  13.795
29325SOL     OW89871   9.139   8.693   3.922
29325SOL    HW189872   9.074   8.673   3.854
29325SOL    HW289873   9.175   8.778   3.897
29326SOL     OW89874  14.328  11.947   3.166
29326SOL    HW189875  14.298  11.995   3.244
29326SOL    HW289876  14.253  11.892   3.143
29327SOL     OW89877  12.392   1.498   6.868
29327SOL    HW189878  12.333   1.493   6.943
29327SOL    HW289879  12.466   1.551   6.899
29328SOL     OW89880   3.270   9.681   7.666
29328SOL    HW189881   3.218   9.700   7.744
29328SOL    HW289882   3.249   9.752   7.605
29329SOL     OW89883  14.713  11.192   8.070
29329SOL    HW189884  14.765  11.202   8.150
29329SOL    HW289885  14.778  11.192   8.000
29330SOL     OW89886  12.586   8.965   7.604
29330SOL    HW189887  12.604   9.034   7.668
29330SOL    HW289888  12.629   8.888   7.640
29331SOL     OW89889   6.701   6.378  12.238
29331SOL    HW189890   6.754   6.411  12.165
29331SOL    HW289891   6.740   6.293  12.260
29332SOL     OW89892   0.848   0.066  10.809
29332SOL    HW189893   0.824   0.095  10.897
29332SOL    HW289894   0.785   0.109  10.751
29333SOL     OW89895  12.384   0.909   3.776
29333SOL    HW189896  12.365   0.828   3.730
29333SOL    HW289897  12.306   0.963   3.764
29334SOL     OW89898   8.096   3.538  13.770
29334SOL    HW189899   8.124   3.466  13.714
29334SOL    HW289900   8.134   3.518  13.855
29335SOL     OW89901   7.491   5.860   0.110
29335SOL    HW189902   7.413   5.806   0.095
29335SOL    HW289903   7.552   5.833   0.041
29336SOL     OW89904  13.076   4.602   9.294
29336SOL    HW189905  13.069   4.689   9.334
29336SOL    HW289906  13.089   4.620   9.201
29337SOL     OW89907   6.080  13.208   1.202
29337SOL    HW189908   6.073  13.145   1.274
29337SOL    HW289909   6.082  13.154   1.123
29338SOL     OW89910   8.367   3.345   5.377
29338SOL    HW189911   8.295   3.368   5.436
29338SOL    HW289912   8.383   3.424   5.327
29339SOL     OW89913  14.631  10.599   9.350
29339SOL    HW189914  14.608  10.620   9.259
29339SOL    HW289915  14.672  10.513   9.345
29340SOL     OW89916   4.605  13.943   8.026
29340SOL    HW189917   4.558  14.026   8.039
29340SOL    HW289918   4.688  13.955   8.071
29341SOL     OW89919   0.154  11.780  14.091
29341SOL    HW189920   0.077  11.749  14.044
29341SOL    HW289921   0.153  11.732  14.174
29342SOL     OW89922   9.861   9.283  10.173
29342SOL    HW189923   9.825   9.223  10.240
29342SOL    HW289924   9.790   9.346  10.158
29343SOL     OW89925   2.298   6.434   2.831
29343SOL    HW189926   2.258   6.412   2.915
29343SOL    HW289927   2.229   6.418   2.766
29344SOL     OW89928   5.290   7.741  11.277
29344SOL    HW189929   5.197   7.756  11.291
29344SOL    HW289930   5.333   7.811  11.326
29345SOL     OW89931   3.415   5.377  12.297
29345SOL    HW189932   3.423   5.417  12.210
29345SOL    HW289933   3.369   5.294  12.281
29346SOL     OW89934   4.827   2.654  11.589
29346SOL    HW189935   4.851   2.650  11.497
29346SOL    HW289936   4.839   2.565  11.621
29347SOL     OW89937   2.574  11.292   6.781
29347SOL    HW189938   2.664  11.310   6.806
29347SOL    HW289939   2.522  11.352   6.835
29348SOL     OW89940   5.164   7.576  12.033
29348SOL    HW189941   5.077   7.541  12.013
29348SOL    HW289942   5.155   7.618  12.118
29349SOL     OW89943  13.948   3.480   3.599
29349SOL    HW189944  13.897   3.410   3.639
29349SOL    HW289945  13.966   3.541   3.671
29350SOL     OW89946   9.638  12.523   7.010
29350SOL    HW189947   9.643  12.452   6.946
29350SOL    HW289948   9.651  12.480   7.095
29351SOL     OW89949  12.294   8.919  13.077
29351SOL    HW189950  12.321   8.996  13.027
29351SOL    HW289951  12.232   8.952  13.141
29352SOL     OW89952  12.903   3.223   1.149
29352SOL    HW189953  12.925   3.277   1.225
29352SOL    HW289954  12.896   3.134   1.185
29353SOL     OW89955  14.606  13.114   9.514
29353SOL    HW189956  14.651  13.097   9.432
29353SOL    HW289957  14.599  13.209   9.519
29354SOL     OW89958  13.470   0.205   6.192
29354SOL    HW189959  13.396   0.152   6.163
29354SOL    HW289960  13.464   0.285   6.140
29355SOL     OW89961   2.629   7.865   6.457
29355SOL    HW189962   2.652   7.799   6.523
29355SOL    HW289963   2.619   7.815   6.376
29356SOL     OW89964   5.441   4.749   9.707
29356SOL    HW189965   5.527   4.730   9.744
29356SOL    HW289966   5.434   4.693   9.630
29357SOL     OW89967   5.227   3.426   9.702
29357SOL    HW189968   5.249   3.519   9.711
29357SOL    HW289969   5.172   3.422   9.623
29358SOL     OW89970  13.471   0.927  13.654
29358SOL    HW189971  13.538   0.873  13.694
29358SOL    HW289972  13.405   0.939  13.723
29359SOL     OW89973   9.012   0.828   3.223
29359SOL    HW189974   9.050   0.743   3.248
29359SOL    HW289975   9.066   0.893   3.268
29360SOL     OW89976  14.612   4.285   9.073
29360SOL    HW189977  14.667   4.361   9.056
29360SOL    HW289978  14.630   4.226   8.999
29361SOL     OW89979  10.060   7.830  12.671
29361SOL    HW189980   9.986   7.842  12.612
29361SOL    HW289981  10.025   7.844  12.759
29362SOL     OW89982   0.079  12.375  11.696
29362SOL    HW189983   0.145  12.383  11.627
29362SOL    HW289984   0.071  12.463  11.732
29363SOL     OW89985  13.037   2.383  14.200
29363SOL    HW189986  13.115   2.376  14.146
29363SOL    HW289987  13.057   2.451  14.264
29364SOL     OW89988   5.115   3.318  13.671
29364SOL    HW189989   5.182   3.251  13.676
29364SOL    HW289990   5.058   3.302  13.747
29365SOL     OW89991  11.219   5.551  13.931
29365SOL    HW189992  11.287   5.495  13.970
29365SOL    HW289993  11.245   5.559  13.839
29366SOL     OW89994   4.604   3.051   8.123
29366SOL    HW189995   4.585   3.136   8.083
29366SOL    HW289996   4.698   3.055   8.144
29367SOL     OW89997   9.215   3.612  12.286
29367SOL    HW189998   9.191   3.559  12.209
29367SOL    HW289999   9.261   3.550  12.343
29368SOL     OW90000   7.666   3.204  10.125
29368SOL    HW190001   7.747   3.214  10.176
29368SOL    HW290002   7.696   3.196  10.034
29369SOL     OW90003   5.944   6.423   9.893
29369SOL    HW190004   5.851   6.444   9.896
29369SOL    HW290005   5.982   6.473   9.966
29370SOL     OW90006   8.535  11.169  12.752
29370SOL    HW190007   8.615  11.148  12.801
29370SOL    HW290008   8.505  11.085  12.718
29371SOL     OW90009   8.964  13.755   2.606
29371SOL    HW190010   9.034  13.719   2.661
29371SOL    HW290011   9.010  13.807   2.540
29372SOL     OW90012  13.454   7.326   8.691
29372SOL    HW190013  13.395   7.264   8.649
29372SOL    HW290014  13.408   7.410   8.685
29373SOL     OW90015   9.323   6.327  11.249
29373SOL    HW190016   9.308   6.264  11.319
29373SOL    HW290017   9.276   6.291  11.174
29374SOL     OW90018  14.839  11.351   4.337
29374SOL    HW190019  14.749  11.349   4.305
29374SOL    HW290020  14.858  11.444   4.351
29375SOL     OW90021  14.444  11.698   0.069
29375SOL    HW190022  14.521  11.701   0.127
29375SOL    HW290023  14.454  11.616   0.020
29376SOL     OW90024  13.728   8.495   6.297
29376SOL    HW190025  13.758   8.410   6.331
29376SOL    HW290026  13.719   8.481   6.202
29377SOL     OW90027   4.622   2.695  10.877
29377SOL    HW190028   4.536   2.671  10.912
29377SOL    HW290029   4.678   2.621  10.900
29378SOL     OW90030   8.581   5.483   5.009
29378SOL    HW190031   8.617   5.566   5.040
29378SOL    HW290032   8.593   5.485   4.915
29379SOL     OW90033   9.327  14.389   5.489
29379SOL    HW190034   9.278  14.445   5.429
29379SOL    HW290035   9.412  14.431   5.498
29380SOL     OW90036   4.858   7.253  10.285
29380SOL    HW190037   4.763   7.259  10.293
29380SOL    HW290038   4.890   7.338  10.314
29381SOL     OW90039   3.144   2.671   0.099
29381SOL    HW190040   3.220   2.643   0.048
29381SOL    HW290041   3.177   2.740   0.156
29382SOL     OW90042   4.759   8.862  11.402
29382SOL    HW190043   4.686   8.899  11.352
29382SOL    HW290044   4.737   8.770  11.411
29383SOL     OW90045   1.132  12.447   6.371
29383SOL    HW190046   1.058  12.387   6.367
29383SOL    HW290047   1.112  12.515   6.307
29384SOL     OW90048  14.626  10.081  13.812
29384SOL    HW190049  14.691  10.123  13.869
29384SOL    HW290050  14.553  10.059  13.870
29385SOL     OW90051  10.196   0.418  13.094
29385SOL    HW190052  10.147   0.378  13.167
29385SOL    HW290053  10.228   0.501  13.129
29386SOL     OW90054   6.088  13.871   5.542
29386SOL    HW190055   6.167  13.818   5.548
29386SOL    HW290056   6.072  13.901   5.632
29387SOL     OW90057   9.203  12.420   6.227
29387SOL    HW190058   9.182  12.331   6.201
29387SOL    HW290059   9.154  12.475   6.166
29388SOL     OW90060   7.322   3.992   0.026
29388SOL    HW190061   7.412   4.023   0.015
29388SOL    HW290062   7.332   3.904   0.063
29389SOL     OW90063   5.325   6.647   2.679
29389SOL    HW190064   5.361   6.621   2.764
29389SOL    HW290065   5.348   6.740   2.671
29390SOL     OW90066   6.509  10.263   2.561
29390SOL    HW190067   6.468  10.210   2.629
29390SOL    HW290068   6.544  10.339   2.607
29391SOL     OW90069  11.049   0.016   7.780
29391SOL    HW190070  10.964  14.855   7.764
29391SOL    HW290071  11.098   0.003   7.699
29392SOL     OW90072  14.268   2.137   2.544
29392SOL    HW190073  14.269   2.172   2.633
29392SOL    HW290074  14.345   2.176   2.502
29393SOL     OW90075  11.949  10.662   1.936
29393SOL    HW190076  11.919  10.714   1.862
29393SOL    HW290077  11.873  10.655   1.994
29394SOL     OW90078   4.898   5.201   4.390
29394SOL    HW190079   4.834   5.225   4.322
29394SOL    HW290080   4.857   5.127   4.435
29395SOL     OW90081  13.428   2.827   0.795
29395SOL    HW190082  13.519   2.823   0.825
29395SOL    HW290083  13.427   2.774   0.715
29396SOL     OW90084  13.042   9.596   9.283
29396SOL    HW190085  13.098   9.518   9.282
29396SOL    HW290086  12.953   9.562   9.290
29397SOL     OW90087  14.126   6.624   9.013
29397SOL    HW190088  14.216   6.595   9.018
29397SOL    HW290089  14.124   6.706   9.064
29398SOL     OW90090   4.465  13.820   5.754
29398SOL    HW190091   4.402  13.753   5.729
29398SOL    HW290092   4.425  13.866   5.828
29399SOL     OW90093   2.515   9.029   4.200
29399SOL    HW190094   2.459   8.995   4.131
29399SOL    HW290095   2.472   9.001   4.281
29400SOL     OW90096   8.036   3.215  13.787
29400SOL    HW190097   7.947   3.243  13.765
29400SOL    HW290098   8.029   3.184  13.878
29401SOL     OW90099  13.037   1.530   0.819
29401SOL    HW190100  13.042   1.508   0.912
29401SOL    HW290101  12.958   1.486   0.788
29402SOL     OW90102   4.435  12.057   5.364
29402SOL    HW190103   4.428  12.017   5.450
29402SOL    HW290104   4.521  12.099   5.364
29403SOL     OW90105   9.183  13.550  13.002
29403SOL    HW190106   9.172  13.645  12.989
29403SOL    HW290107   9.216  13.518  12.918
29404SOL     OW90108   2.513   0.214   7.462
29404SOL    HW190109   2.557   0.299   7.467
29404SOL    HW290110   2.489   0.194   7.553
29405SOL     OW90111   4.727  14.711  10.820
29405SOL    HW190112   4.637  14.688  10.794
29405SOL    HW290113   4.724  14.805  10.838
29406SOL     OW90114   8.517   7.512  12.165
29406SOL    HW190115   8.532   7.424  12.199
29406SOL    HW290116   8.504   7.566  12.242
29407SOL     OW90117   2.687   7.301   0.377
29407SOL    HW190118   2.616   7.253   0.418
29407SOL    HW290119   2.648   7.339   0.298
29408SOL     OW90120   2.859   9.526   2.562
29408SOL    HW190121   2.900   9.523   2.649
29408SOL    HW290122   2.767   9.541   2.580
29409SOL     OW90123   3.958   1.436   5.576
29409SOL    HW190124   4.035   1.491   5.590
29409SOL    HW290125   3.884   1.493   5.595
29410SOL     OW90126   8.359   1.310   6.476
29410SOL    HW190127   8.285   1.259   6.511
29410SOL    HW290128   8.328   1.400   6.477
29411SOL     OW90129   3.441  12.130   8.326
29411SOL    HW190130   3.509  12.068   8.300
29411SOL    HW290131   3.363  12.077   8.338
29412SOL     OW90132   3.807   2.084   3.455
29412SOL    HW190133   3.826   2.087   3.361
29412SOL    HW290134   3.775   2.172   3.476
29413SOL     OW90135  11.708   8.749   5.322
29413SOL    HW190136  11.793   8.782   5.291
29413SOL    HW290137  11.667   8.712   5.243
29414SOL     OW90138   6.030   4.071   4.334
29414SOL    HW190139   6.029   4.165   4.348
29414SOL    HW290140   5.943   4.050   4.299
29415SOL     OW90141   8.545   6.639  12.400
29415SOL    HW190142   8.482   6.621  12.330
29415SOL    HW290143   8.549   6.559  12.452
29416SOL     OW90144   0.245   5.406   0.165
29416SOL    HW190145   0.276   5.422   0.254
29416SOL    HW290146   0.318   5.433   0.109
29417SOL     OW90147   1.349  11.359  14.415
29417SOL    HW190148   1.277  11.404  14.371
29417SOL    HW290149   1.327  11.363  14.508
29418SOL     OW90150   1.922   5.938  11.474
29418SOL    HW190151   1.933   6.020  11.523
29418SOL    HW290152   1.892   5.966  11.388
29419SOL     OW90153  13.734   6.937  13.925
29419SOL    HW190154  13.646   6.924  13.960
29419SOL    HW290155  13.753   7.029  13.941
29420SOL     OW90156  14.393  11.672   9.273
29420SOL    HW190157  14.408  11.627   9.190
29420SOL    HW290158  14.299  11.664   9.288
29421SOL     OW90159   9.905   3.495   1.106
29421SOL    HW190160   9.858   3.578   1.099
29421SOL    HW290161   9.975   3.501   1.041
29422SOL     OW90162   5.512   4.432   8.403
29422SOL    HW190163   5.449   4.484   8.453
29422SOL    HW290164   5.523   4.480   8.321
29423SOL     OW90165   1.181   0.269   0.673
29423SOL    HW190166   1.166   0.176   0.653
29423SOL    HW290167   1.093   0.306   0.678
29424SOL     OW90168  11.727   3.475   7.423
29424SOL    HW190169  11.657   3.493   7.485
29424SOL    HW290170  11.691   3.406   7.366
29425SOL     OW90171   2.503   5.540  14.413
29425SOL    HW190172   2.592   5.505  14.424
29425SOL    HW290173   2.483   5.526  14.321
29426SOL     OW90174  13.029  10.231   9.863
29426SOL    HW190175  13.086  10.223   9.787
29426SOL    HW290176  12.974  10.152   9.860
29427SOL     OW90177   3.107   2.536   3.409
29427SOL    HW190178   3.085   2.600   3.477
29427SOL    HW290179   3.076   2.453   3.443
29428SOL     OW90180   4.117   1.652  10.871
29428SOL    HW190181   4.115   1.686  10.961
29428SOL    HW290182   4.184   1.704  10.827
29429SOL     OW90183  12.535  10.120   9.431
29429SOL    HW190184  12.523  10.193   9.370
29429SOL    HW290185  12.598  10.151   9.496
29430SOL     OW90186  12.994   7.643  13.146
29430SOL    HW190187  13.083   7.675  13.164
29430SOL    HW290188  12.959   7.704  13.082
29431SOL     OW90189  13.464   5.708   2.882
29431SOL    HW190190  13.558   5.718   2.867
29431SOL    HW290191  13.454   5.618   2.912
29432SOL     OW90192   9.967   5.014  12.611
29432SOL    HW190193   9.952   5.039  12.702
29432SOL    HW290194   9.938   5.090  12.560
29433SOL     OW90195   2.674   1.060   1.806
29433SOL    HW190196   2.688   1.054   1.711
29433SOL    HW290197   2.595   1.010   1.821
29434SOL     OW90198   3.550   5.914  12.347
29434SOL    HW190199   3.474   5.972  12.339
29434SOL    HW290200   3.514   5.833  12.382
29435SOL     OW90201  10.135  11.360   0.341
29435SOL    HW190202  10.081  11.419   0.394
29435SOL    HW290203  10.081  11.341   0.264
29436SOL     OW90204  10.626   7.295   9.081
29436SOL    HW190205  10.698   7.314   9.140
29436SOL    HW290206  10.549   7.333   9.123
29437SOL     OW90207   8.446   8.350  12.861
29437SOL    HW190208   8.520   8.408  12.882
29437SOL    HW290209   8.474   8.304  12.782
29438SOL     OW90210   5.305   2.057   4.674
29438SOL    HW190211   5.288   1.999   4.748
29438SOL    HW290212   5.348   2.001   4.610
29439SOL     OW90213   0.804  10.272   0.610
29439SOL    HW190214   0.740  10.254   0.679
29439SOL    HW290215   0.860  10.341   0.647
29440SOL     OW90216  14.640   5.383   0.543
29440SOL    HW190217  14.640   5.383   0.447
29440SOL    HW290218  14.672   5.297   0.568
29441SOL     OW90219   1.982  14.002  11.380
29441SOL    HW190220   1.958  14.064  11.311
29441SOL    HW290221   2.017  14.056  11.451
29442SOL     OW90222   3.974  13.309   9.082
29442SOL    HW190223   3.889  13.353   9.085
29442SOL    HW290224   3.965  13.245   9.011
29443SOL     OW90225   1.621   0.322   6.412
29443SOL    HW190226   1.553   0.256   6.427
29443SOL    HW290227   1.695   0.272   6.378
29444SOL     OW90228   4.120  14.833  14.603
29444SOL    HW190229   4.146  14.780  14.678
29444SOL    HW290230   4.107  14.770  14.532
29445SOL     OW90231   7.275  10.453   0.404
29445SOL    HW190232   7.349  10.464   0.464
29445SOL    HW290233   7.315  10.453   0.317
29446SOL     OW90234   8.260  11.281   8.571
29446SOL    HW190235   8.281  11.318   8.485
29446SOL    HW290236   8.328  11.215   8.586
29447SOL     OW90237   5.877   6.306   3.728
29447SOL    HW190238   5.960   6.331   3.770
29447SOL    HW290239   5.875   6.357   3.647
29448SOL     OW90240  14.072   6.850  13.054
29448SOL    HW190241  14.037   6.939  13.060
29448SOL    HW290242  14.006   6.801  13.005
29449SOL     OW90243   0.626   1.009  12.592
29449SOL    HW190244   0.628   1.052  12.677
29449SOL    HW290245   0.642   0.917  12.611
29450SOL     OW90246   3.814   5.652   0.581
29450SOL    HW190247   3.855   5.702   0.652
29450SOL    HW290248   3.728   5.627   0.616
29451SOL     OW90249   5.687   5.282   7.237
29451SOL    HW190250   5.727   5.315   7.318
29451SOL    HW290251   5.637   5.356   7.203
29452SOL     OW90252   0.243  10.971   2.047
29452SOL    HW190253   0.255  10.940   1.957
29452SOL    HW290254   0.193  11.053   2.037
29453SOL     OW90255   4.587   2.630   1.321
29453SOL    HW190256   4.528   2.647   1.247
29453SOL    HW290257   4.541   2.565   1.374
29454SOL     OW90258   9.029   8.410  13.630
29454SOL    HW190259   9.122   8.432  13.630
29454SOL    HW290260   8.985   8.495  13.629
29455SOL     OW90261  11.491   7.506   7.209
29455SOL    HW190262  11.525   7.596   7.210
29455SOL    HW290263  11.406   7.513   7.165
29456SOL     OW90264   3.544   1.640   6.059
29456SOL    HW190265   3.470   1.701   6.048
29456SOL    HW290266   3.502   1.556   6.075
29457SOL     OW90267   3.760  12.387   1.930
29457SOL    HW190268   3.729  12.475   1.951
29457SOL    HW290269   3.697  12.329   1.972
29458SOL     OW90270  12.833  10.903   0.835
29458SOL    HW190271  12.889  10.979   0.849
29458SOL    HW290272  12.779  10.927   0.759
29459SOL     OW90273   5.789  11.611   1.797
29459SOL    HW190274   5.741  11.530   1.811
29459SOL    HW290275   5.742  11.676   1.850
29460SOL     OW90276  12.701   6.236   4.405
29460SOL    HW190277  12.612   6.201   4.402
29460SOL    HW290278  12.720   6.243   4.499
29461SOL     OW90279  12.309   0.613   5.673
29461SOL    HW190280  12.360   0.667   5.734
29461SOL    HW290281  12.219   0.621   5.703
29462SOL     OW90282   9.737  11.760  12.012
29462SOL    HW190283   9.808  11.698  11.996
29462SOL    HW290284   9.741  11.777  12.107
29463SOL     OW90285   4.601   8.130  13.363
29463SOL    HW190286   4.534   8.174  13.310
29463SOL    HW290287   4.581   8.037  13.353
29464SOL     OW90288  10.018   0.332   8.859
29464SOL    HW190289   9.974   0.249   8.877
29464SOL    HW290290  10.107   0.319   8.893
29465SOL     OW90291   9.235   6.337   2.753
29465SOL    HW190292   9.246   6.329   2.848
29465SOL    HW290293   9.140   6.329   2.740
29466SOL     OW90294   3.482  10.004   6.589
29466SOL    HW190295   3.522   9.974   6.670
29466SOL    HW290296   3.520  10.090   6.573
29467SOL     OW90297  11.380   4.857   2.976
29467SOL    HW190298  11.334   4.932   2.936
29467SOL    HW290299  11.471   4.869   2.952
29468SOL     OW90300  12.357   3.663   6.119
29468SOL    HW190301  12.265   3.637   6.130
29468SOL    HW290302  12.392   3.665   6.208
29469SOL     OW90303   5.116  11.211  12.221
29469SOL    HW190304   5.096  11.119  12.202
29469SOL    HW290305   5.173  11.208  12.298
29470SOL     OW90306   7.537   1.453   2.349
29470SOL    HW190307   7.512   1.373   2.396
29470SOL    HW290308   7.471   1.462   2.280
29471SOL     OW90309   6.424   7.632   3.790
29471SOL    HW190310   6.398   7.616   3.700
29471SOL    HW290311   6.503   7.686   3.783
29472SOL     OW90312   0.579   3.933   4.360
29472SOL    HW190313   0.616   3.844   4.360
29472SOL    HW290314   0.544   3.944   4.448
29473SOL     OW90315   2.484   8.487   8.883
29473SOL    HW190316   2.413   8.483   8.947
29473SOL    HW290317   2.443   8.464   8.799
29474SOL     OW90318   8.571   3.197   5.011
29474SOL    HW190319   8.613   3.136   5.071
29474SOL    HW290320   8.491   3.153   4.983
29475SOL     OW90321   3.651   5.972   0.563
29475SOL    HW190322   3.736   5.928   0.564
29475SOL    HW290323   3.668   6.057   0.521
29476SOL     OW90324  12.819  13.444  13.702
29476SOL    HW190325  12.749  13.396  13.658
29476SOL    HW290326  12.787  13.456  13.792
29477SOL     OW90327   4.372   4.627  12.009
29477SOL    HW190328   4.386   4.541  11.970
29477SOL    HW290329   4.457   4.670  12.003
29478SOL     OW90330   3.148   9.758   0.769
29478SOL    HW190331   3.228   9.735   0.722
29478SOL    HW290332   3.178   9.811   0.843
29479SOL     OW90333  13.031  12.324   8.636
29479SOL    HW190334  12.948  12.371   8.640
29479SOL    HW290335  13.097  12.389   8.657
29480SOL     OW90336   2.495   3.650  13.843
29480SOL    HW190337   2.467   3.568  13.884
29480SOL    HW290338   2.549   3.693  13.909
29481SOL     OW90339   5.964   4.957   8.655
29481SOL    HW190340   5.978   4.881   8.598
29481SOL    HW290341   5.961   5.032   8.595
29482SOL     OW90342   3.771   0.475   9.739
29482SOL    HW190343   3.806   0.490   9.827
29482SOL    HW290344   3.830   0.525   9.682
29483SOL     OW90345   2.744   5.499   2.995
29483SOL    HW190346   2.684   5.501   3.070
29483SOL    HW290347   2.790   5.583   2.998
29484SOL     OW90348   4.624   1.759   4.112
29484SOL    HW190349   4.604   1.696   4.181
29484SOL    HW290350   4.555   1.748   4.047
29485SOL     OW90351   2.178  13.367   3.188
29485SOL    HW190352   2.120  13.331   3.121
29485SOL    HW290353   2.181  13.300   3.256
29486SOL     OW90354   7.141   0.021   7.227
29486SOL    HW190355   7.196   0.090   7.189
29486SOL    HW290356   7.178  14.820   7.193
29487SOL     OW90357  13.257   3.210   6.105
29487SOL    HW190358  13.200   3.227   6.180
29487SOL    HW290359  13.256   3.292   6.055
29488SOL     OW90360   5.480   1.022   6.595
29488SOL    HW190361   5.429   1.035   6.515
29488SOL    HW290362   5.527   0.940   6.580
29489SOL     OW90363   2.300   0.393   3.705
29489SOL    HW190364   2.251   0.350   3.635
29489SOL    HW290365   2.372   0.438   3.661
29490SOL     OW90366   0.086  14.717   3.668
29490SOL    HW190367   0.052  14.749   3.752
29490SOL    HW290368   0.008  14.685   3.622
29491SOL     OW90369  12.787  10.046  12.751
29491SOL    HW190370  12.706  10.041  12.701
29491SOL    HW290371  12.850  10.086  12.691
29492SOL     OW90372  10.367  12.145  12.620
29492SOL    HW190373  10.340  12.160  12.711
29492SOL    HW290374  10.302  12.084  12.586
29493SOL     OW90375   7.663   5.934  13.118
29493SOL    HW190376   7.750   5.921  13.082
29493SOL    HW290377   7.669   5.905  13.209
29494SOL     OW90378   4.910   5.746   2.308
29494SOL    HW190379   4.914   5.691   2.386
29494SOL    HW290380   4.924   5.685   2.235
29495SOL     OW90381   4.457  14.733   4.442
29495SOL    HW190382   4.530  14.712   4.384
29495SOL    HW290383   4.405  14.798   4.394
29496SOL     OW90384  11.263  13.677  10.940
29496SOL    HW190385  11.301  13.751  10.988
29496SOL    HW290386  11.239  13.614  11.009
29497SOL     OW90387   8.273  12.730   9.699
29497SOL    HW190388   8.323  12.790   9.644
29497SOL    HW290389   8.244  12.784   9.773
29498SOL     OW90390  12.833  13.589   7.449
29498SOL    HW190391  12.760  13.642   7.482
29498SOL    HW290392  12.874  13.553   7.527
29499SOL     OW90393   9.677   2.122  11.926
29499SOL    HW190394   9.697   2.199  11.872
29499SOL    HW290395   9.687   2.048  11.867
29500SOL     OW90396   4.196   8.423   1.248
29500SOL    HW190397   4.225   8.373   1.324
29500SOL    HW290398   4.151   8.499   1.285
29501SOL     OW90399   6.458   0.246   2.605
29501SOL    HW190400   6.443   0.213   2.694
29501SOL    HW290401   6.456   0.341   2.614
29502SOL     OW90402   0.623   8.396  10.864
29502SOL    HW190403   0.598   8.479  10.822
29502SOL    HW290404   0.717   8.404  10.880
29503SOL     OW90405   7.822   9.757   5.091
29503SOL    HW190406   7.789   9.729   5.177
29503SOL    HW290407   7.772   9.706   5.028
29504SOL     OW90408   0.811   6.677   8.036
29504SOL    HW190409   0.774   6.711   8.117
29504SOL    HW290410   0.827   6.584   8.054
29505SOL     OW90411  13.953  10.413  10.737
29505SOL    HW190412  13.867  10.402  10.777
29505SOL    HW290413  13.950  10.359  10.658
29506SOL     OW90414  14.847   4.761  14.001
29506SOL    HW190415  14.851   4.719  13.915
29506SOL    HW290416   0.031   4.832  13.995
29507SOL     OW90417   6.392   5.055   2.226
29507SOL    HW190418   6.372   5.000   2.150
29507SOL    HW290419   6.478   5.026   2.255
29508SOL     OW90420   3.596   6.491  12.132
29508SOL    HW190421   3.507   6.516  12.158
29508SOL    HW290422   3.589   6.475  12.038
29509SOL     OW90423   8.748   7.805   4.043
29509SOL    HW190424   8.652   7.795   4.039
29509SOL    HW290425   8.779   7.718   4.069
29510SOL     OW90426   5.218   9.227   6.069
29510SOL    HW190427   5.230   9.132   6.072
29510SOL    HW290428   5.185   9.250   6.156
29511SOL     OW90429  14.247   8.810   7.553
29511SOL    HW190430  14.248   8.790   7.647
29511SOL    HW290431  14.251   8.905   7.549
29512SOL     OW90432  10.255   9.189  13.884
29512SOL    HW190433  10.225   9.112  13.931
29512SOL    HW290434  10.301   9.154  13.808
29513SOL     OW90435   6.978   5.476  14.131
29513SOL    HW190436   6.983   5.437  14.218
29513SOL    HW290437   6.889   5.510  14.126
29514SOL     OW90438   6.324   0.849  11.397
29514SOL    HW190439   6.237   0.888  11.402
29514SOL    HW290440   6.357   0.853  11.487
29515SOL     OW90441   6.789   3.777  13.696
29515SOL    HW190442   6.883   3.780  13.712
29515SOL    HW290443   6.779   3.719  13.621
29516SOL     OW90444  10.632   4.471   1.205
29516SOL    HW190445  10.654   4.409   1.134
29516SOL    HW290446  10.620   4.415   1.282
29517SOL     OW90447   6.671   3.291   6.157
29517SOL    HW190448   6.620   3.367   6.184
29517SOL    HW290449   6.724   3.270   6.234
29518SOL     OW90450   1.362   9.959   9.921
29518SOL    HW190451   1.436   9.900   9.930
29518SOL    HW290452   1.299   9.911   9.867
29519SOL     OW90453   7.072   9.336   1.708
29519SOL    HW190454   7.147   9.382   1.746
29519SOL    HW290455   7.109   9.285   1.637
29520SOL     OW90456   2.056   5.684   1.271
29520SOL    HW190457   1.990   5.657   1.334
29520SOL    HW290458   2.139   5.661   1.313
29521SOL     OW90459   4.087  13.453   0.163
29521SOL    HW190460   4.039  13.412   0.091
29521SOL    HW290461   4.175  13.416   0.158
29522SOL     OW90462  13.471   3.534  10.216
29522SOL    HW190463  13.394   3.477  10.214
29522SOL    HW290464  13.453   3.595  10.287
29523SOL     OW90465   6.165   5.968   0.904
29523SOL    HW190466   6.231   6.027   0.939
29523SOL    HW290467   6.106   5.952   0.977
29524SOL     OW90468   0.611  10.938   4.299
29524SOL    HW190469   0.695  10.921   4.342
29524SOL    HW290470   0.592  11.030   4.320
29525SOL     OW90471   7.795  13.777   5.026
29525SOL    HW190472   7.823  13.769   4.934
29525SOL    HW290473   7.794  13.872   5.042
29526SOL     OW90474   8.200   0.016   5.115
29526SOL    HW190475   8.184  14.862   5.203
29526SOL    HW290476   8.129  14.859   5.062
29527SOL     OW90477   1.385   3.761   6.300
29527SOL    HW190478   1.378   3.852   6.270
29527SOL    HW290479   1.294   3.731   6.305
29528SOL     OW90480   7.851   0.643  10.268
29528SOL    HW190481   7.880   0.734  10.280
29528SOL    HW290482   7.771   0.637  10.321
29529SOL     OW90483   6.144   8.516   4.398
29529SOL    HW190484   6.097   8.567   4.465
29529SOL    HW290485   6.235   8.543   4.406
29530SOL     OW90486   4.242  13.335   5.645
29530SOL    HW190487   4.226  13.316   5.553
29530SOL    HW290488   4.160  13.374   5.676
29531SOL     OW90489   3.702   3.928   6.585
29531SOL    HW190490   3.673   3.872   6.513
29531SOL    HW290491   3.676   3.881   6.664
29532SOL     OW90492  13.691   8.040  14.770
29532SOL    HW190493  13.641   7.959  14.757
29532SOL    HW290494  13.781   8.017  14.748
29533SOL     OW90495   3.335  14.147  11.412
29533SOL    HW190496   3.252  14.164  11.366
29533SOL    HW290497   3.352  14.054  11.395
29534SOL     OW90498   6.048  13.364  10.226
29534SOL    HW190499   5.964  13.320  10.240
29534SOL    HW290500   6.066  13.408  10.309
29535SOL     OW90501   4.769  11.451   2.880
29535SOL    HW190502   4.705  11.484   2.817
29535SOL    HW290503   4.807  11.374   2.837
29536SOL     OW90504   3.512   6.297   1.941
29536SOL    HW190505   3.525   6.347   1.860
29536SOL    HW290506   3.578   6.332   2.001
29537SOL     OW90507   2.814  13.750   1.316
29537SOL    HW190508   2.900  13.791   1.310
29537SOL    HW290509   2.819  13.673   1.259
29538SOL     OW90510   0.920   3.995   8.327
29538SOL    HW190511   0.971   3.914   8.317
29538SOL    HW290512   0.982   4.058   8.364
29539SOL     OW90513  13.414   7.433   1.476
29539SOL    HW190514  13.450   7.353   1.437
29539SOL    HW290515  13.321   7.431   1.453
29540SOL     OW90516  14.079   6.095  10.912
29540SOL    HW190517  14.073   6.186  10.884
29540SOL    HW290518  14.166   6.067  10.886
29541SOL     OW90519   8.415  13.919   2.171
29541SOL    HW190520   8.378  13.842   2.128
29541SOL    HW290521   8.366  13.927   2.253
29542SOL     OW90522  13.201   3.087   1.794
29542SOL    HW190523  13.225   3.008   1.843
29542SOL    HW290524  13.105   3.085   1.790
29543SOL     OW90525   9.214  13.034   5.889
29543SOL    HW190526   9.295  13.004   5.930
29543SOL    HW290527   9.243  13.090   5.817
29544SOL     OW90528   3.639  14.514   9.867
29544SOL    HW190529   3.625  14.431   9.821
29544SOL    HW290530   3.652  14.489   9.959
29545SOL     OW90531  12.421   0.673  14.692
29545SOL    HW190532  12.357   0.626  14.745
29545SOL    HW290533  12.455   0.608  14.631
29546SOL     OW90534   7.793   9.776   4.609
29546SOL    HW190535   7.753   9.690   4.595
29546SOL    HW290536   7.718   9.834   4.625
29547SOL     OW90537  11.633   7.038   0.031
29547SOL    HW190538  11.563   7.094   0.064
29547SOL    HW290539  11.707   7.056   0.089
29548SOL     OW90540   9.388   9.046  11.613
29548SOL    HW190541   9.354   9.084  11.532
29548SOL    HW290542   9.461   8.991  11.584
29549SOL     OW90543   6.170   3.623   0.208
29549SOL    HW190544   6.172   3.694   0.273
29549SOL    HW290545   6.191   3.665   0.125
29550SOL     OW90546   4.847  12.917  10.774
29550SOL    HW190547   4.880  12.988  10.720
29550SOL    HW290548   4.925  12.877  10.812
29551SOL     OW90549   6.248  11.612   1.965
29551SOL    HW190550   6.158  11.639   1.984
29551SOL    HW290551   6.303  11.678   2.006
29552SOL     OW90552   9.811   8.110  14.572
29552SOL    HW190553   9.834   8.187  14.624
29552SOL    HW290554   9.737   8.139  14.518
29553SOL     OW90555   4.146  10.878   9.227
29553SOL    HW190556   4.169  10.877   9.135
29553SOL    HW290557   4.051  10.869   9.229
29554SOL     OW90558   2.073   1.759   5.672
29554SOL    HW190559   2.150   1.816   5.673
29554SOL    HW290560   2.107   1.672   5.650
29555SOL     OW90561   9.987   7.778   6.283
29555SOL    HW190562   9.936   7.713   6.332
29555SOL    HW290563   9.956   7.770   6.193
29556SOL     OW90564   2.021  12.422   0.847
29556SOL    HW190565   2.112  12.449   0.835
29556SOL    HW290566   1.973  12.463   0.774
29557SOL     OW90567   5.233   8.794   2.803
29557SOL    HW190568   5.290   8.869   2.789
29557SOL    HW290569   5.280   8.721   2.762
29558SOL     OW90570   4.688  12.217   2.253
29558SOL    HW190571   4.750  12.145   2.260
29558SOL    HW290572   4.684  12.237   2.159
29559SOL     OW90573   3.682   0.683   2.093
29559SOL    HW190574   3.765   0.713   2.056
29559SOL    HW290575   3.652   0.756   2.147
29560SOL     OW90576   1.796  11.463   8.763
29560SOL    HW190577   1.855  11.529   8.800
29560SOL    HW290578   1.736  11.442   8.835
29561SOL     OW90579   1.830  10.116   4.765
29561SOL    HW190580   1.735  10.131   4.765
29561SOL    HW290581   1.841  10.034   4.814
29562SOL     OW90582   8.201   5.246   2.580
29562SOL    HW190583   8.191   5.152   2.566
29562SOL    HW290584   8.274   5.254   2.642
29563SOL     OW90585   7.561  10.086   7.685
29563SOL    HW190586   7.546  10.050   7.773
29563SOL    HW290587   7.476  10.119   7.658
29564SOL     OW90588   8.744   9.812   9.542
29564SOL    HW190589   8.662   9.804   9.591
29564SOL    HW290590   8.715   9.817   9.450
29565SOL     OW90591  10.398   9.360   2.169
29565SOL    HW190592  10.410   9.455   2.174
29565SOL    HW290593  10.402   9.331   2.260
29566SOL     OW90594  13.608  12.548  12.152
29566SOL    HW190595  13.657  12.600  12.089
29566SOL    HW290596  13.611  12.459  12.118
29567SOL     OW90597  14.703   5.548   5.761
29567SOL    HW190598  14.608   5.545   5.775
29567SOL    HW290599  14.714   5.608   5.687
29568SOL     OW90600  11.548   7.081   3.741
29568SOL    HW190601  11.455   7.084   3.716
29568SOL    HW290602  11.595   7.096   3.658
29569SOL     OW90603   7.456   4.687   1.429
29569SOL    HW190604   7.550   4.697   1.411
29569SOL    HW290605   7.432   4.605   1.386
29570SOL     OW90606   1.368  13.402   0.533
29570SOL    HW190607   1.347  13.353   0.613
29570SOL    HW290608   1.351  13.340   0.462
29571SOL     OW90609   3.841  11.742   2.248
29571SOL    HW190610   3.763  11.766   2.199
29571SOL    HW290611   3.832  11.787   2.332
29572SOL     OW90612   1.737   6.425   1.705
29572SOL    HW190613   1.710   6.334   1.709
29572SOL    HW290614   1.810   6.426   1.643
29573SOL     OW90615  10.917   9.550   1.008
29573SOL    HW190616  10.897   9.542   1.102
29573SOL    HW290617  10.967   9.470   0.988
29574SOL     OW90618   8.557   5.372   6.676
29574SOL    HW190619   8.567   5.409   6.764
29574SOL    HW290620   8.468   5.335   6.676
29575SOL     OW90621   1.594  13.673   8.946
29575SOL    HW190622   1.528  13.717   8.893
29575SOL    HW290623   1.547  13.604   8.992
29576SOL     OW90624  11.649  10.801  10.790
29576SOL    HW190625  11.588  10.732  10.815
29576SOL    HW290626  11.695  10.766  10.714
29577SOL     OW90627  13.433  13.377   0.886
29577SOL    HW190628  13.353  13.382   0.938
29577SOL    HW290629  13.491  13.442   0.926
29578SOL     OW90630  13.781  12.596   9.727
29578SOL    HW190631  13.736  12.661   9.673
29578SOL    HW290632  13.710  12.540   9.759
29579SOL     OW90633   4.028   3.650   4.357
29579SOL    HW190634   3.953   3.598   4.387
29579SOL    HW290635   4.102   3.619   4.409
29580SOL     OW90636   7.342   1.088   8.639
29580SOL    HW190637   7.304   1.152   8.579
29580SOL    HW290638   7.430   1.073   8.606
29581SOL     OW90639   0.316  11.299   0.219
29581SOL    HW190640   0.375  11.256   0.157
29581SOL    HW290641   0.311  11.389   0.188
29582SOL     OW90642   3.757   6.313  11.581
29582SOL    HW190643   3.712   6.392  11.552
29582SOL    HW290644   3.830   6.345  11.634
29583SOL     OW90645   0.540   7.060  12.966
29583SOL    HW190646   0.474   7.002  12.929
29583SOL    HW290647   0.491   7.134  13.001
29584SOL     OW90648   7.388   6.353   5.475
29584SOL    HW190649   7.329   6.391   5.410
29584SOL    HW290650   7.473   6.392   5.455
29585SOL     OW90651  11.332   8.689   9.783
29585SOL    HW190652  11.411   8.729   9.818
29585SOL    HW290653  11.262   8.722   9.838
29586SOL     OW90654   9.031   2.559   6.258
29586SOL    HW190655   8.994   2.567   6.346
29586SOL    HW290656   8.997   2.635   6.211
29587SOL     OW90657  13.533   5.118   6.128
29587SOL    HW190658  13.494   5.067   6.056
29587SOL    HW290659  13.611   5.158   6.090
29588SOL     OW90660  11.125   7.758   5.987
29588SOL    HW190661  11.060   7.788   6.050
29588SOL    HW290662  11.171   7.686   6.031
29589SOL     OW90663   4.763   9.654  13.972
29589SOL    HW190664   4.768   9.584  14.037
29589SOL    HW290665   4.700   9.623  13.907
29590SOL     OW90666   2.055   2.703   5.084
29590SOL    HW190667   2.058   2.701   4.989
29590SOL    HW290668   2.044   2.612   5.110
29591SOL     OW90669   1.508   5.871   9.496
29591SOL    HW190670   1.499   5.958   9.534
29591SOL    HW290671   1.455   5.814   9.552
29592SOL     OW90672   3.093   2.365   7.786
29592SOL    HW190673   3.083   2.381   7.692
29592SOL    HW290674   3.186   2.382   7.803
29593SOL     OW90675  10.809   9.324   1.158
29593SOL    HW190676  10.770   9.346   1.243
29593SOL    HW290677  10.864   9.248   1.176
29594SOL     OW90678   6.237  13.005  11.415
29594SOL    HW190679   6.328  12.991  11.389
29594SOL    HW290680   6.189  13.007  11.332
29595SOL     OW90681  14.221   6.035  11.990
29595SOL    HW190682  14.134   6.017  12.026
29595SOL    HW290683  14.259   5.949  11.974
29596SOL     OW90684   0.985   9.170   2.704
29596SOL    HW190685   1.008   9.231   2.634
29596SOL    HW290686   0.894   9.190   2.725
29597SOL     OW90687   5.793   9.777   6.350
29597SOL    HW190688   5.743   9.737   6.279
29597SOL    HW290689   5.869   9.816   6.306
29598SOL     OW90690   3.795   9.331   8.422
29598SOL    HW190691   3.846   9.300   8.347
29598SOL    HW290692   3.710   9.354   8.384
29599SOL     OW90693   2.287   9.573   2.422
29599SOL    HW190694   2.330   9.495   2.459
29599SOL    HW290695   2.204   9.579   2.469
29600SOL     OW90696   2.008   9.286   0.291
29600SOL    HW190697   2.019   9.237   0.210
29600SOL    HW290698   2.097   9.306   0.319
29601SOL     OW90699   8.170   0.152   1.381
29601SOL    HW190700   8.077   0.144   1.358
29601SOL    HW290701   8.216   0.151   1.297
29602SOL     OW90702  12.209   6.645   6.292
29602SOL    HW190703  12.209   6.573   6.228
29602SOL    HW290704  12.119   6.650   6.323
29603SOL     OW90705  12.707   8.672   0.443
29603SOL    HW190706  12.692   8.644   0.352
29603SOL    HW290707  12.716   8.590   0.492
29604SOL     OW90708   8.170  13.381  13.562
29604SOL    HW190709   8.080  13.405  13.543
29604SOL    HW290710   8.220  13.462  13.550
29605SOL     OW90711  14.136   7.221   9.390
29605SOL    HW190712  14.045   7.251   9.396
29605SOL    HW290713  14.159   7.231   9.298
29606SOL     OW90714   5.707   0.554  14.426
29606SOL    HW190715   5.642   0.560  14.496
29606SOL    HW290716   5.791   0.546  14.472
29607SOL     OW90717   0.750  11.603  13.017
29607SOL    HW190718   0.747  11.676  13.079
29607SOL    HW290719   0.843  11.592  12.997
29608SOL     OW90720   0.410  13.558   7.409
29608SOL    HW190721   0.465  13.518   7.342
29608SOL    HW290722   0.471  13.582   7.479
29609SOL     OW90723   6.891   3.672   9.857
29609SOL    HW190724   6.825   3.741   9.847
29609SOL    HW290725   6.843   3.590   9.843
29610SOL     OW90726  14.752   9.589   8.094
29610SOL    HW190727  14.663   9.589   8.129
29610SOL    HW290728  14.771   9.496   8.079
29611SOL     OW90729   8.073   0.134  13.973
29611SOL    HW190730   8.163   0.165  13.983
29611SOL    HW290731   8.040   0.128  14.063
29612SOL     OW90732   0.141  12.620   7.949
29612SOL    HW190733   0.206  12.664   8.003
29612SOL    HW290734   0.192  12.580   7.878
29613SOL     OW90735  14.712   9.318   9.606
29613SOL    HW190736  14.807   9.316   9.597
29613SOL    HW290737  14.683   9.238   9.563
29614SOL     OW90738  10.728   1.430   7.934
29614SOL    HW190739  10.673   1.364   7.891
29614SOL    HW290740  10.789   1.379   7.987
29615SOL     OW90741  13.234   2.546   5.451
29615SOL    HW190742  13.202   2.554   5.361
29615SOL    HW290743  13.175   2.602   5.503
29616SOL     OW90744   9.044   0.622  10.950
29616SOL    HW190745   9.084   0.593  10.867
29616SOL    HW290746   8.996   0.545  10.981
29617SOL     OW90747   1.609   9.524   7.692
29617SOL    HW190748   1.578   9.499   7.605
29617SOL    HW290749   1.535   9.505   7.750
29618SOL     OW90750   8.410  12.277   4.219
29618SOL    HW190751   8.325  12.274   4.174
29618SOL    HW290752   8.397  12.339   4.291
29619SOL     OW90753   5.828  11.827   9.767
29619SOL    HW190754   5.780  11.881   9.705
29619SOL    HW290755   5.836  11.742   9.724
29620SOL     OW90756  12.624   9.617   2.364
29620SOL    HW190757  12.715   9.645   2.378
29620SOL    HW290758  12.573   9.698   2.369
29621SOL     OW90759  13.867   8.955  13.349
29621SOL    HW190760  13.842   8.904  13.426
29621SOL    HW290761  13.846   9.046  13.372
29622SOL     OW90762  13.088   5.634   2.284
29622SOL    HW190763  13.073   5.575   2.358
29622SOL    HW290764  13.175   5.671   2.300
29623SOL     OW90765   2.589   0.008  13.773
29623SOL    HW190766   2.568   0.076  13.708
29623SOL    HW290767   2.683  14.875  13.765
29624SOL     OW90768   9.079   2.018   0.537
29624SOL    HW190769   9.107   2.109   0.543
29624SOL    HW290770   9.157   1.970   0.509
29625SOL     OW90771  12.325   4.989   5.497
29625SOL    HW190772  12.235   5.022   5.491
29625SOL    HW290773  12.380   5.066   5.478
29626SOL     OW90774   4.456   0.455   3.476
29626SOL    HW190775   4.471   0.444   3.570
29626SOL    HW290776   4.533   0.414   3.435
29627SOL     OW90777  10.063  12.566   0.291
29627SOL    HW190778   9.983  12.574   0.239
29627SOL    HW290779  10.043  12.612   0.373
29628SOL     OW90780   2.729  12.911  14.662
29628SOL    HW190781   2.649  12.900  14.713
29628SOL    HW290782   2.786  12.839  14.690
29629SOL     OW90783   5.096   4.725   4.569
29629SOL    HW190784   5.133   4.668   4.637
29629SOL    HW290785   5.104   4.674   4.488
29630SOL     OW90786   2.079   0.487   6.159
29630SOL    HW190787   2.033   0.510   6.078
29630SOL    HW290788   2.013   0.499   6.227
29631SOL     OW90789  13.464   9.041   2.671
29631SOL    HW190790  13.418   9.115   2.711
29631SOL    HW290791  13.467   9.062   2.578
29632SOL     OW90792  13.700   2.796   1.514
29632SOL    HW190793  13.728   2.756   1.431
29632SOL    HW290794  13.760   2.760   1.579
29633SOL     OW90795  14.257  10.573   4.674
29633SOL    HW190796  14.214  10.490   4.693
29633SOL    HW290797  14.335  10.550   4.624
29634SOL     OW90798   0.156  14.728   5.619
29634SOL    HW190799   0.172  14.790   5.690
29634SOL    HW290800   0.230  14.740   5.559
29635SOL     OW90801  14.042  13.933   8.309
29635SOL    HW190802  13.992  14.013   8.327
29635SOL    HW290803  14.130  13.952   8.340
29636SOL     OW90804   1.630   6.370  13.869
29636SOL    HW190805   1.725   6.364  13.878
29636SOL    HW290806   1.608   6.459  13.898
29637SOL     OW90807  10.986   1.303   2.453
29637SOL    HW190808  10.999   1.397   2.445
29637SOL    HW290809  10.921   1.282   2.386
29638SOL     OW90810   5.967   0.132   2.149
29638SOL    HW190811   5.928   0.046   2.168
29638SOL    HW290812   6.050   0.111   2.106
29639SOL     OW90813   5.506  12.079   0.853
29639SOL    HW190814   5.427  12.037   0.887
29639SOL    HW290815   5.543  12.126   0.928
29640SOL     OW90816   1.461  11.055  12.551
29640SOL    HW190817   1.554  11.047  12.532
29640SOL    HW290818   1.425  11.103  12.477
29641SOL     OW90819   8.643   4.683   3.407
29641SOL    HW190820   8.686   4.602   3.433
29641SOL    HW290821   8.682   4.706   3.323
29642SOL     OW90822  10.355   7.006   1.115
29642SOL    HW190823  10.403   6.936   1.071
29642SOL    HW290824  10.423   7.067   1.145
29643SOL     OW90825  12.514  12.733  10.870
29643SOL    HW190826  12.458  12.738  10.948
29643SOL    HW290827  12.474  12.664  10.817
29644SOL     OW90828   6.804  13.173   0.633
29644SOL    HW190829   6.818  13.241   0.699
29644SOL    HW290830   6.862  13.101   0.660
29645SOL     OW90831   7.725  11.041  10.820
29645SOL    HW190832   7.653  11.035  10.757
29645SOL    HW290833   7.789  11.097  10.777
29646SOL     OW90834   7.559  11.765   3.576
29646SOL    HW190835   7.499  11.759   3.502
29646SOL    HW290836   7.609  11.845   3.560
29647SOL     OW90837  14.305  10.091   8.010
29647SOL    HW190838  14.369  10.020   8.002
29647SOL    HW290839  14.351  10.168   7.978
29648SOL     OW90840   1.652   4.397   1.671
29648SOL    HW190841   1.694   4.483   1.677
29648SOL    HW290842   1.565   4.416   1.638
29649SOL     OW90843   3.858   0.907   5.472
29649SOL    HW190844   3.876   0.960   5.394
29649SOL    HW290845   3.940   0.906   5.520
29650SOL     OW90846   4.467  13.848   8.286
29650SOL    HW190847   4.542  13.802   8.324
29650SOL    HW290848   4.472  13.936   8.324
29651SOL     OW90849   3.638   6.826  14.710
29651SOL    HW190850   3.615   6.776  14.632
29651SOL    HW290851   3.556   6.866  14.739
29652SOL     OW90852   4.218   8.774   6.728
29652SOL    HW190853   4.140   8.820   6.760
29652SOL    HW290854   4.183   8.693   6.689
29653SOL     OW90855   1.428  11.875  11.020
29653SOL    HW190856   1.450  11.825  10.941
29653SOL    HW290857   1.509  11.873  11.072
29654SOL     OW90858   4.793   2.223   0.149
29654SOL    HW190859   4.776   2.166   0.074
29654SOL    HW290860   4.844   2.169   0.209
29655SOL     OW90861   0.744  10.075  10.167
29655SOL    HW190862   0.747  10.141  10.237
29655SOL    HW290863   0.834  10.071  10.134
29656SOL     OW90864  11.487  14.174   8.335
29656SOL    HW190865  11.528  14.087   8.328
29656SOL    HW290866  11.528  14.226   8.266
29657SOL     OW90867   0.301  10.510   8.022
29657SOL    HW190868   0.303  10.589   8.076
29657SOL    HW290869   0.345  10.536   7.941
29658SOL     OW90870   6.297   5.828  14.154
29658SOL    HW190871   6.319   5.740  14.185
29658SOL    HW290872   6.205   5.822  14.128
29659SOL     OW90873   0.619  11.420   2.548
29659SOL    HW190874   0.682  11.492   2.540
29659SOL    HW290875   0.665  11.352   2.597
29660SOL     OW90876   5.325   5.230  13.716
29660SOL    HW190877   5.255   5.277  13.669
29660SOL    HW290878   5.317   5.140  13.686
29661SOL     OW90879   4.617   7.141   8.203
29661SOL    HW190880   4.635   7.079   8.274
29661SOL    HW290881   4.521   7.149   8.203
29662SOL     OW90882   1.200  14.273   4.321
29662SOL    HW190883   1.184  14.281   4.415
29662SOL    HW290884   1.150  14.346   4.282
29663SOL     OW90885   5.718   7.512  13.296
29663SOL    HW190886   5.786   7.467  13.347
29663SOL    HW290887   5.663   7.442  13.262
29664SOL     OW90888   4.892   6.283  13.083
29664SOL    HW190889   4.896   6.229  13.162
29664SOL    HW290890   4.946   6.236  13.019
29665SOL     OW90891   4.251   1.979  12.472
29665SOL    HW190892   4.226   2.038  12.543
29665SOL    HW290893   4.294   2.035  12.409
29666SOL     OW90894   5.933   8.279  12.930
29666SOL    HW190895   5.944   8.240  12.844
29666SOL    HW290896   5.851   8.328  12.925
29667SOL     OW90897   0.620  10.625   9.019
29667SOL    HW190898   0.682  10.553   9.007
29667SOL    HW290899   0.641  10.660   9.106
29668SOL     OW90900   2.241   0.760   4.377
29668SOL    HW190901   2.258   0.694   4.445
29668SOL    HW290902   2.327   0.794   4.354
29669SOL     OW90903   1.735  10.762   5.373
29669SOL    HW190904   1.737  10.689   5.435
29669SOL    HW290905   1.815  10.752   5.323
29670SOL     OW90906   5.712   2.353   7.047
29670SOL    HW190907   5.805   2.344   7.067
29670SOL    HW290908   5.668   2.340   7.131
29671SOL     OW90909   9.610   8.052   1.204
29671SOL    HW190910   9.672   7.980   1.193
29671SOL    HW290911   9.641   8.099   1.281
29672SOL     OW90912   7.965   6.220   6.029
29672SOL    HW190913   8.040   6.279   6.038
29672SOL    HW290914   7.973   6.184   5.941
29673SOL     OW90915   1.987   0.922   7.447
29673SOL    HW190916   2.045   0.966   7.510
29673SOL    HW290917   1.959   0.843   7.492
29674SOL     OW90918  10.484  11.167   3.671
29674SOL    HW190919  10.534  11.122   3.603
29674SOL    HW290920  10.479  11.103   3.742
29675SOL     OW90921  14.721  12.641   1.527
29675SOL    HW190922  14.659  12.641   1.600
29675SOL    HW290923  14.764  12.556   1.533
29676SOL     OW90924   8.149   6.939  11.744
29676SOL    HW190925   8.084   6.992  11.790
29676SOL    HW290926   8.098   6.889  11.680
29677SOL     OW90927  11.773   3.612   2.207
29677SOL    HW190928  11.791   3.526   2.169
29677SOL    HW290929  11.859   3.654   2.212
29678SOL     OW90930   8.777  13.743  12.253
29678SOL    HW190931   8.762  13.693  12.173
29678SOL    HW290932   8.783  13.677  12.323
29679SOL     OW90933   8.195   6.584   5.302
29679SOL    HW190934   8.259   6.655   5.296
29679SOL    HW290935   8.226   6.518   5.240
29680SOL     OW90936  10.337   6.542  13.998
29680SOL    HW190937  10.315   6.636  14.001
29680SOL    HW290938  10.417   6.538  13.946
29681SOL     OW90939  10.224   6.321  11.547
29681SOL    HW190940  10.134   6.332  11.577
29681SOL    HW290941  10.277   6.339  11.624
29682SOL     OW90942   5.520   3.435   6.798
29682SOL    HW190943   5.493   3.527   6.800
29682SOL    HW290944   5.485   3.399   6.880
29683SOL     OW90945   7.342  11.190   3.197
29683SOL    HW190946   7.275  11.254   3.223
29683SOL    HW290947   7.296  11.106   3.198
29684SOL     OW90948   0.373  11.816   7.489
29684SOL    HW190949   0.321  11.827   7.568
29684SOL    HW290950   0.418  11.732   7.500
29685SOL     OW90951   7.543   1.224   4.143
29685SOL    HW190952   7.622   1.171   4.152
29685SOL    HW290953   7.480   1.183   4.202
29686SOL     OW90954   3.782   4.524   2.547
29686SOL    HW190955   3.821   4.509   2.461
29686SOL    HW290956   3.804   4.446   2.597
29687SOL     OW90957   3.947  10.228  14.676
29687SOL    HW190958   3.984  10.232  14.588
29687SOL    HW290959   3.995  10.158  14.719
29688SOL     OW90960   8.187  14.533  10.409
29688SOL    HW190961   8.244  14.474  10.456
29688SOL    HW290962   8.188  14.502  10.318
29689SOL     OW90963  11.510   9.123  11.869
29689SOL    HW190964  11.496   9.194  11.807
29689SOL    HW290965  11.428   9.074  11.870
29690SOL     OW90966   7.356   8.791   6.476
29690SOL    HW190967   7.439   8.834   6.453
29690SOL    HW290968   7.320   8.846   6.546
29691SOL     OW90969   7.323   0.423   9.624
29691SOL    HW190970   7.262   0.417   9.698
29691SOL    HW290971   7.349   0.515   9.622
29692SOL     OW90972   0.790  12.393  13.358
29692SOL    HW190973   0.705  12.350  13.356
29692SOL    HW290974   0.853  12.322  13.367
29693SOL     OW90975   5.093   2.224   1.203
29693SOL    HW190976   5.042   2.196   1.127
29693SOL    HW290977   5.134   2.143   1.235
29694SOL     OW90978   1.990  12.723   8.303
29694SOL    HW190979   1.903  12.699   8.334
29694SOL    HW290980   2.023  12.783   8.370
29695SOL     OW90981   8.861  12.714  11.987
29695SOL    HW190982   8.861  12.664  11.905
29695SOL    HW290983   8.896  12.799  11.964
29696SOL     OW90984   8.387   2.576   9.934
29696SOL    HW190985   8.478   2.551   9.950
29696SOL    HW290986   8.353   2.509   9.875
29697SOL     OW90987   1.435  12.689   5.446
29697SOL    HW190988   1.404  12.603   5.476
29697SOL    HW290989   1.476  12.670   5.361
29698SOL     OW90990  14.671  14.802   6.941
29698SOL    HW190991  14.726  14.732   6.976
29698SOL    HW290992  14.670  14.787   6.846
29699SOL     OW90993  12.901   7.007   1.036
29699SOL    HW190994  12.907   6.937   1.102
29699SOL    HW290995  12.820   6.988   0.989
29700SOL     OW90996  10.473   9.018  12.669
29700SOL    HW190997  10.378   9.008  12.673
29700SOL    HW290998  10.502   8.956  12.602
29701SOL     OW90999  12.627   2.267   6.764
29701SOL    HW191000  12.705   2.315   6.789
29701SOL    HW291001  12.607   2.298   6.676
29702SOL     OW91002  12.460   7.899   8.496
29702SOL    HW191003  12.421   7.968   8.549
29702SOL    HW291004  12.426   7.818   8.533
29703SOL     OW91005  10.383  10.980   6.447
29703SOL    HW191006  10.380  10.964   6.542
29703SOL    HW291007  10.349  10.899   6.408
29704SOL     OW91008   9.352   0.101  14.211
29704SOL    HW191009   9.421   0.067  14.155
29704SOL    HW291010   9.395   0.122  14.293
29705SOL     OW91011   2.410   8.594   8.442
29705SOL    HW191012   2.381   8.538   8.514
29705SOL    HW291013   2.404   8.538   8.364
29706SOL     OW91014   9.574   9.711   4.479
29706SOL    HW191015   9.483   9.694   4.453
29706SOL    HW291016   9.607   9.627   4.510
29707SOL     OW91017  11.506  12.556   7.787
29707SOL    HW191018  11.548  12.486   7.837
29707SOL    HW291019  11.574  12.587   7.727
29708SOL     OW91020  12.484   6.276   3.921
29708SOL    HW191021  12.481   6.315   3.833
29708SOL    HW291022  12.392   6.267   3.946
29709SOL     OW91023   5.194  13.677   6.168
29709SOL    HW191024   5.221  13.735   6.239
29709SOL    HW291025   5.114  13.636   6.200
29710SOL     OW91026   6.736   7.614  11.684
29710SOL    HW191027   6.764   7.577  11.767
29710SOL    HW291028   6.797   7.579  11.620
29711SOL     OW91029   1.574   2.918   3.171
29711SOL    HW191030   1.497   2.877   3.132
29711SOL    HW291031   1.648   2.881   3.123
29712SOL     OW91032   2.691   8.016   5.688
29712SOL    HW191033   2.738   8.000   5.770
29712SOL    HW291034   2.728   7.953   5.626
29713SOL     OW91035   0.251   4.675   0.033
29713SOL    HW191036   0.221   4.612   0.099
29713SOL    HW291037   0.171   4.717   0.002
29714SOL     OW91038   6.691   5.941   0.002
29714SOL    HW191039   6.727   5.913   0.086
29714SOL    HW291040   6.627   6.009   0.024
29715SOL     OW91041   4.133  10.394   4.850
29715SOL    HW191042   4.115  10.433   4.935
29715SOL    HW291043   4.208  10.337   4.865
29716SOL     OW91044  10.637  14.678   4.308
29716SOL    HW191045  10.693  14.736   4.359
29716SOL    HW291046  10.650  14.591   4.347
29717SOL     OW91047   6.980   9.555   9.961
29717SOL    HW191048   6.903   9.511   9.925
29717SOL    HW291049   6.973   9.645   9.929
29718SOL     OW91050   5.835   8.299   2.866
29718SOL    HW191051   5.789   8.241   2.805
29718SOL    HW291052   5.766   8.337   2.920
29719SOL     OW91053   9.967   0.769   3.059
29719SOL    HW191054   9.880   0.755   3.098
29719SOL    HW291055  10.010   0.684   3.065
29720SOL     OW91056  13.587   5.563   0.506
29720SOL    HW191057  13.590   5.515   0.423
29720SOL    HW291058  13.673   5.546   0.546
29721SOL     OW91059   5.936   9.055   1.386
29721SOL    HW191060   5.914   9.139   1.347
29721SOL    HW291061   6.025   9.037   1.356
29722SOL     OW91062  10.703   0.776   4.733
29722SOL    HW191063  10.765   0.841   4.700
29722SOL    HW291064  10.630   0.779   4.671
29723SOL     OW91065   5.097  10.953  12.150
29723SOL    HW191066   5.156  10.886  12.182
29723SOL    HW291067   5.124  10.969  12.060
29724SOL     OW91068   7.374  12.477   7.552
29724SOL    HW191069   7.408  12.486   7.463
29724SOL    HW291070   7.451  12.458   7.606
29725SOL     OW91071   3.238   9.063   7.337
29725SOL    HW191072   3.227   8.974   7.304
29725SOL    HW291073   3.161   9.078   7.392
29726SOL     OW91074   4.052  13.199  12.787
29726SOL    HW191075   4.069  13.229  12.697
29726SOL    HW291076   4.027  13.108  12.778
29727SOL     OW91077  11.995  12.175   2.138
29727SOL    HW191078  12.063  12.117   2.103
29727SOL    HW291079  11.986  12.243   2.072
29728SOL     OW91080  11.784  13.572   1.033
29728SOL    HW191081  11.749  13.482   1.028
29728SOL    HW291082  11.858  13.572   0.973
29729SOL     OW91083  10.360   2.838  10.596
29729SOL    HW191084  10.389   2.876  10.513
29729SOL    HW291085  10.441   2.826  10.646
29730SOL     OW91086   0.671   1.936  10.521
29730SOL    HW191087   0.676   2.011  10.463
29730SOL    HW291088   0.756   1.893  10.514
29731SOL     OW91089   9.491   6.016   4.132
29731SOL    HW191090   9.464   6.031   4.222
29731SOL    HW291091   9.422   6.057   4.079
29732SOL     OW91092  12.905   8.850   3.683
29732SOL    HW191093  12.854   8.869   3.762
29732SOL    HW291094  12.935   8.760   3.695
29733SOL     OW91095  10.817   9.232  13.364
29733SOL    HW191096  10.779   9.145  13.369
29733SOL    HW291097  10.797   9.263  13.276
29734SOL     OW91098  12.412   0.641   7.563
29734SOL    HW191099  12.380   0.730   7.574
29734SOL    HW291100  12.487   0.648   7.505
29735SOL     OW91101   7.375  14.383   2.162
29735SOL    HW191102   7.291  14.410   2.125
29735SOL    HW291103   7.420  14.338   2.090
29736SOL     OW91104  11.224   0.431   7.892
29736SOL    HW191105  11.290   0.390   7.836
29736SOL    HW291106  11.203   0.365   7.958
29737SOL     OW91107   7.972  13.126   3.505
29737SOL    HW191108   7.923  13.113   3.587
29737SOL    HW291109   8.004  13.038   3.483
29738SOL     OW91110  13.469   8.566   5.873
29738SOL    HW191111  13.414   8.510   5.927
29738SOL    HW291112  13.434   8.557   5.784
29739SOL     OW91113   1.346   9.538   0.484
29739SOL    HW191114   1.373   9.623   0.449
29739SOL    HW291115   1.251   9.547   0.496
29740SOL     OW91116  11.122   3.610   3.702
29740SOL    HW191117  11.156   3.543   3.642
29740SOL    HW291118  11.027   3.597   3.701
29741SOL     OW91119  11.429   1.233   7.816
29741SOL    HW191120  11.404   1.319   7.782
29741SOL    HW291121  11.348   1.199   7.856
29742SOL     OW91122  11.669   7.420   4.166
29742SOL    HW191123  11.726   7.346   4.188
29742SOL    HW291124  11.621   7.391   4.089
29743SOL     OW91125   2.718   1.940  13.793
29743SOL    HW191126   2.759   2.025  13.808
29743SOL    HW291127   2.708   1.902  13.880
29744SOL     OW91128  11.146   6.131   0.932
29744SOL    HW191129  11.170   6.213   0.888
29744SOL    HW291130  11.187   6.136   1.018
29745SOL     OW91131   3.718   1.850   0.430
29745SOL    HW191132   3.703   1.803   0.348
29745SOL    HW291133   3.706   1.784   0.498
29746SOL     OW91134   2.790   8.564   8.872
29746SOL    HW191135   2.850   8.495   8.843
29746SOL    HW291136   2.710   8.517   8.897
29747SOL     OW91137  10.181   8.212   8.729
29747SOL    HW191138  10.104   8.268   8.724
29747SOL    HW291139  10.222   8.236   8.812
29748SOL     OW91140   9.129   5.797   3.982
29748SOL    HW191141   9.148   5.845   3.902
29748SOL    HW291142   9.033   5.797   3.988
29749SOL     OW91143   2.332  12.215   3.173
29749SOL    HW191144   2.284  12.144   3.215
29749SOL    HW291145   2.284  12.294   3.195
29750SOL     OW91146  10.902  14.685   8.689
29750SOL    HW191147  10.914  14.625   8.763
29750SOL    HW291148  10.989  14.723   8.675
29751SOL     OW91149   8.346  14.832   6.474
29751SOL    HW191150   8.284  14.859   6.406
29751SOL    HW291151   8.360   0.031   6.526
29752SOL     OW91152   3.382  12.765   5.900
29752SOL    HW191153   3.337  12.709   5.964
29752SOL    HW291154   3.454  12.711   5.868
29753SOL     OW91155   4.574   4.928   0.210
29753SOL    HW191156   4.653   4.926   0.155
29753SOL    HW291157   4.502   4.938   0.147
29754SOL     OW91158   0.789   9.963   3.540
29754SOL    HW191159   0.809   9.873   3.514
29754SOL    HW291160   0.777   9.959   3.635
29755SOL     OW91161   7.420  12.255   2.800
29755SOL    HW191162   7.349  12.301   2.847
29755SOL    HW291163   7.470  12.325   2.759
29756SOL     OW91164   6.637   8.796  14.736
29756SOL    HW191165   6.733   8.794  14.738
29756SOL    HW291166   6.610   8.789  14.827
29757SOL     OW91167  14.243   2.478  10.706
29757SOL    HW191168  14.272   2.551  10.760
29757SOL    HW291169  14.285   2.494  10.621
29758SOL     OW91170  10.202   4.080   3.002
29758SOL    HW191171  10.185   4.003   3.056
29758SOL    HW291172  10.118   4.127   3.000
29759SOL     OW91173   3.536   8.285  12.689
29759SOL    HW191174   3.517   8.333  12.609
29759SOL    HW291175   3.451   8.269  12.729
29760SOL     OW91176   3.854   3.207   8.733
29760SOL    HW191177   3.884   3.153   8.660
29760SOL    HW291178   3.767   3.237   8.706
29761SOL     OW91179  11.367  14.793  11.484
29761SOL    HW191180  11.351  14.868  11.541
29761SOL    HW291181  11.453  14.811  11.445
29762SOL     OW91182  12.277   7.545  13.765
29762SOL    HW191183  12.295   7.493  13.686
29762SOL    HW291184  12.351   7.525  13.823
29763SOL     OW91185  13.689  10.731   0.332
29763SOL    HW191186  13.770  10.712   0.378
29763SOL    HW291187  13.654  10.645   0.310
29764SOL     OW91188  14.373   7.839   8.837
29764SOL    HW191189  14.338   7.901   8.901
29764SOL    HW291190  14.328   7.757   8.857
29765SOL     OW91191   7.718   5.087   1.679
29765SOL    HW191192   7.623   5.097   1.685
29765SOL    HW291193   7.752   5.125   1.760
29766SOL     OW91194   3.825   2.666   6.946
29766SOL    HW191195   3.877   2.599   6.901
29766SOL    HW291196   3.884   2.702   7.012
29767SOL     OW91197   2.956   2.987  11.086
29767SOL    HW191198   2.896   2.915  11.070
29767SOL    HW291199   2.926   3.057  11.028
29768SOL     OW91200  10.005  12.161   7.736
29768SOL    HW191201  10.053  12.204   7.806
29768SOL    HW291202   9.956  12.091   7.779
29769SOL     OW91203  14.368   2.371  14.522
29769SOL    HW191204  14.331   2.292  14.560
29769SOL    HW291205  14.392   2.425  14.598
29770SOL     OW91206   8.725   3.020  14.080
29770SOL    HW191207   8.708   3.028  14.173
29770SOL    HW291208   8.819   3.033  14.071
29771SOL     OW91209   8.733   2.797  10.762
29771SOL    HW191210   8.788   2.827  10.690
29771SOL    HW291211   8.687   2.720  10.727
29772SOL     OW91212  11.156   5.800  14.115
29772SOL    HW191213  11.064   5.775  14.109
29772SOL    HW291214  11.200   5.744  14.051
29773SOL     OW91215   4.397   1.400  14.678
29773SOL    HW191216   4.393   1.460  14.752
29773SOL    HW291217   4.387   1.313  14.717
29774SOL     OW91218   5.568   5.034   7.894
29774SOL    HW191219   5.483   5.072   7.916
29774SOL    HW291220   5.620   5.109   7.865
29775SOL     OW91221   8.263   8.101  12.854
29775SOL    HW191222   8.341   8.157  12.855
29775SOL    HW291223   8.192   8.158  12.826
29776SOL     OW91224   5.423   3.517   4.628
29776SOL    HW191225   5.381   3.431   4.633
29776SOL    HW291226   5.510   3.499   4.592
29777SOL     OW91227   3.662  12.133   4.553
29777SOL    HW191228   3.626  12.061   4.502
29777SOL    HW291229   3.689  12.198   4.488
29778SOL     OW91230   6.959   8.188  12.136
29778SOL    HW191231   7.041   8.233  12.153
29778SOL    HW291232   6.892   8.257  12.139
29779SOL     OW91233   0.084   2.646   1.072
29779SOL    HW191234   0.161   2.698   1.051
29779SOL    HW291235   0.117   2.557   1.083
29780SOL     OW91236  13.156  12.605   9.146
29780SOL    HW191237  13.252  12.604   9.150
29780SOL    HW291238  13.131  12.513   9.158
29781SOL     OW91239   8.987   0.453   5.197
29781SOL    HW191240   8.991   0.377   5.138
29781SOL    HW291241   8.935   0.423   5.271
29782SOL     OW91242   5.336   0.071  13.835
29782SOL    HW191243   5.381   0.074  13.751
29782SOL    HW291244   5.309  14.859  13.845
29783SOL     OW91245  10.430  13.878   9.088
29783SOL    HW191246  10.407  13.971   9.079
29783SOL    HW291247  10.523  13.874   9.063
29784SOL     OW91248  11.036   6.867  10.736
29784SOL    HW191249  10.973   6.821  10.679
29784SOL    HW291250  11.063   6.800  10.799
29785SOL     OW91251   7.692   1.751  11.120
29785SOL    HW191252   7.647   1.667  11.123
29785SOL    HW291253   7.651   1.802  11.190
29786SOL     OW91254  13.303   4.436   4.640
29786SOL    HW191255  13.283   4.506   4.702
29786SOL    HW291256  13.369   4.383   4.685
29787SOL     OW91257  13.695   8.031  11.020
29787SOL    HW191258  13.612   8.035  11.068
29787SOL    HW291259  13.747   7.966  11.068
29788SOL     OW91260  12.742   0.989   1.433
29788SOL    HW191261  12.679   1.060   1.445
29788SOL    HW291262  12.726   0.957   1.345
29789SOL     OW91263   1.634   7.708  13.473
29789SOL    HW191264   1.696   7.643  13.439
29789SOL    HW291265   1.644   7.784  13.416
29790SOL     OW91266  10.167  11.528  14.278
29790SOL    HW191267  10.107  11.532  14.353
29790SOL    HW291268  10.251  11.555  14.314
29791SOL     OW91269  11.773  11.969   5.706
29791SOL    HW191270  11.852  12.017   5.680
29791SOL    HW291271  11.718  12.035   5.749
29792SOL     OW91272   1.174   0.740  10.731
29792SOL    HW191273   1.107   0.789  10.778
29792SOL    HW291274   1.194   0.666  10.788
29793SOL     OW91275   0.295   6.276   0.079
29793SOL    HW191276   0.257   6.255   0.164
29793SOL    HW291277   0.224   6.321   0.032
29794SOL     OW91278   5.320   1.021   0.591
29794SOL    HW191279   5.375   0.956   0.546
29794SOL    HW291280   5.360   1.029   0.678
29795SOL     OW91281   0.174   2.319   2.462
29795SOL    HW191282   0.166   2.399   2.514
29795SOL    HW291283   0.263   2.322   2.427
29796SOL     OW91284   3.768   7.238  14.679
29796SOL    HW191285   3.832   7.306  14.701
29796SOL    HW291286   3.817   7.156  14.684
29797SOL     OW91287   7.628   9.961   5.398
29797SOL    HW191288   7.621   9.876   5.355
29797SOL    HW291289   7.637   9.940   5.491
29798SOL     OW91290  10.892  13.340  13.367
29798SOL    HW191291  10.949  13.416  13.362
29798SOL    HW291292  10.810  13.373  13.405
29799SOL     OW91293   2.432   2.630   8.046
29799SOL    HW191294   2.526   2.623   8.032
29799SOL    HW291295   2.399   2.673   7.967
29800SOL     OW91296   9.629   2.286   3.675
29800SOL    HW191297   9.655   2.358   3.731
29800SOL    HW291298   9.559   2.322   3.620
29801SOL     OW91299  11.915   3.504  11.203
29801SOL    HW191300  11.909   3.452  11.123
29801SOL    HW291301  11.950   3.589  11.173
29802SOL     OW91302   7.292  14.618   7.121
29802SOL    HW191303   7.331  14.531   7.116
29802SOL    HW291304   7.286  14.648   7.030
29803SOL     OW91305   7.607  10.220   7.114
29803SOL    HW191306   7.590  10.307   7.080
29803SOL    HW291307   7.691  10.195   7.076
29804SOL     OW91308   9.511  12.112   2.531
29804SOL    HW191309   9.562  12.051   2.584
29804SOL    HW291310   9.505  12.191   2.586
29805SOL     OW91311  14.188   9.909  11.600
29805SOL    HW191312  14.153   9.886  11.686
29805SOL    HW291313  14.111   9.914  11.543
29806SOL     OW91314   0.106   2.149   8.253
29806SOL    HW191315   0.078   2.094   8.181
29806SOL    HW291316   0.108   2.238   8.216
29807SOL     OW91317  14.395  14.773  11.503
29807SOL    HW191318  14.488  14.762  11.527
29807SOL    HW291319  14.397  14.811  11.416
29808SOL     OW91320  14.782   7.193  13.674
29808SOL    HW191321  14.721   7.240  13.617
29808SOL    HW291322  14.725   7.148  13.737
29809SOL     OW91323  10.237   1.492  12.203
29809SOL    HW191324  10.250   1.508  12.297
29809SOL    HW291325  10.248   1.397  12.193
29810SOL     OW91326   2.237   6.736  12.597
29810SOL    HW191327   2.192   6.814  12.627
29810SOL    HW291328   2.330   6.756  12.609
29811SOL     OW91329  10.263  13.685  12.346
29811SOL    HW191330  10.253  13.722  12.258
29811SOL    HW291331  10.198  13.614  12.349
29812SOL     OW91332  10.182   0.856  13.257
29812SOL    HW191333  10.267   0.887  13.288
29812SOL    HW291334  10.135   0.831  13.337
29813SOL     OW91335  10.187   3.264   9.595
29813SOL    HW191336  10.263   3.271   9.652
29813SOL    HW291337  10.184   3.171   9.570
29814SOL     OW91338   4.744   5.099  11.139
29814SOL    HW191339   4.725   5.132  11.227
29814SOL    HW291340   4.839   5.098  11.134
29815SOL     OW91341   7.733   9.463   5.080
29815SOL    HW191342   7.782   9.421   5.150
29815SOL    HW291343   7.645   9.477   5.116
29816SOL     OW91344  13.511   1.444   6.305
29816SOL    HW191345  13.596   1.430   6.345
29816SOL    HW291346  13.459   1.368   6.333
29817SOL     OW91347  10.650   4.982   3.022
29817SOL    HW191348  10.721   5.029   2.979
29817SOL    HW291349  10.585   5.050   3.041
29818SOL     OW91350  14.517   4.895   3.350
29818SOL    HW191351  14.483   4.819   3.397
29818SOL    HW291352  14.463   4.969   3.380
29819SOL     OW91353  11.473  13.710  14.034
29819SOL    HW191354  11.482  13.658  14.113
29819SOL    HW291355  11.471  13.645  13.963
29820SOL     OW91356  10.301   3.296  12.167
29820SOL    HW191357  10.228   3.357  12.178
29820SOL    HW291358  10.302   3.278  12.073
29821SOL     OW91359   1.894   8.078   9.853
29821SOL    HW191360   1.901   8.018   9.927
29821SOL    HW291361   1.985   8.105   9.836
29822SOL     OW91362   4.564   7.625   9.516
29822SOL    HW191363   4.635   7.680   9.483
29822SOL    HW291364   4.485   7.674   9.495
29823SOL     OW91365   5.448   2.965   6.325
29823SOL    HW191366   5.408   3.022   6.391
29823SOL    HW291367   5.417   3.000   6.241
29824SOL     OW91368   1.818   9.152   0.994
29824SOL    HW191369   1.849   9.113   0.912
29824SOL    HW291370   1.893   9.144   1.054
29825SOL     OW91371   0.864  12.562  11.074
29825SOL    HW191372   0.803  12.635  11.087
29825SOL    HW291373   0.923  12.592  11.005
29826SOL     OW91374  11.282   5.358  13.364
29826SOL    HW191375  11.325   5.369  13.448
29826SOL    HW291376  11.200   5.313  13.384
29827SOL     OW91377  14.400   4.968   8.308
29827SOL    HW191378  14.323   5.024   8.294
29827SOL    HW291379  14.396   4.904   8.236
29828SOL     OW91380  10.950   4.784  12.846
29828SOL    HW191381  10.872   4.818  12.890
29828SOL    HW291382  10.922   4.771  12.755
29829SOL     OW91383   6.493   1.646   5.179
29829SOL    HW191384   6.524   1.629   5.090
29829SOL    HW291385   6.501   1.741   5.189
29830SOL     OW91386   4.097  10.279   4.266
29830SOL    HW191387   4.118  10.237   4.349
29830SOL    HW291388   4.173  10.334   4.248
29831SOL     OW91389   6.122   9.971  14.497
29831SOL    HW191390   6.034   9.935  14.489
29831SOL    HW291391   6.117  10.058  14.459
29832SOL     OW91392   9.706  11.034   1.911
29832SOL    HW191393   9.666  10.982   1.981
29832SOL    HW291394   9.782  11.075   1.951
29833SOL     OW91395   2.475  14.638  13.584
29833SOL    HW191396   2.565  14.611  13.566
29833SOL    HW291397   2.482  14.699  13.657
29834SOL     OW91398   9.819   1.721   1.011
29834SOL    HW191399   9.859   1.800   0.974
29834SOL    HW291400   9.738   1.710   0.962
29835SOL     OW91401   8.665  11.422   0.274
29835SOL    HW191402   8.728  11.487   0.306
29835SOL    HW291403   8.594  11.475   0.236
29836SOL     OW91404  14.685  14.551   2.153
29836SOL    HW191405  14.604  14.524   2.194
29836SOL    HW291406  14.693  14.644   2.175
29837SOL     OW91407   1.031   9.105   5.505
29837SOL    HW191408   0.995   9.061   5.582
29837SOL    HW291409   1.119   9.068   5.495
29838SOL     OW91410   1.664  14.264   9.519
29838SOL    HW191411   1.604  14.282   9.592
29838SOL    HW291412   1.628  14.185   9.477
29839SOL     OW91413  11.009  13.274   0.761
29839SOL    HW191414  10.991  13.269   0.855
29839SOL    HW291415  10.955  13.348   0.730
29840SOL     OW91416   8.245  12.408   4.988
29840SOL    HW191417   8.154  12.409   5.016
29840SOL    HW291418   8.261  12.496   4.955
29841SOL     OW91419   6.335   4.938   4.057
29841SOL    HW191420   6.325   4.851   4.020
29841SOL    HW291421   6.429   4.952   4.061
29842SOL     OW91422  13.706   7.318   1.739
29842SOL    HW191423  13.779   7.320   1.800
29842SOL    HW291424  13.635   7.277   1.788
29843SOL     OW91425   1.075   7.132  12.545
29843SOL    HW191426   1.006   7.068  12.527
29843SOL    HW291427   1.097   7.168  12.460
29844SOL     OW91428   4.849   9.108   4.666
29844SOL    HW191429   4.772   9.080   4.616
29844SOL    HW291430   4.892   9.027   4.691
29845SOL     OW91431   9.438   6.941   9.147
29845SOL    HW191432   9.530   6.968   9.141
29845SOL    HW291433   9.389   7.021   9.129
29846SOL     OW91434   7.502   4.848  14.600
29846SOL    HW191435   7.485   4.760  14.564
29846SOL    HW291436   7.541   4.896  14.527
29847SOL     OW91437   1.118   8.988  11.634
29847SOL    HW191438   1.127   8.894  11.642
29847SOL    HW291439   1.205   9.023  11.654
29848SOL     OW91440   8.456   8.852   7.481
29848SOL    HW191441   8.427   8.840   7.572
29848SOL    HW291442   8.542   8.810   7.478
29849SOL     OW91443   3.807   3.576   2.777
29849SOL    HW191444   3.814   3.481   2.789
29849SOL    HW291445   3.712   3.593   2.777
29850SOL     OW91446   3.942  10.700   2.431
29850SOL    HW191447   3.932  10.622   2.376
29850SOL    HW291448   4.036  10.712   2.440
29851SOL     OW91449   4.790  13.413   4.870
29851SOL    HW191450   4.712  13.376   4.830
29851SOL    HW291451   4.861  13.393   4.809
29852SOL     OW91452   9.957  10.503   8.412
29852SOL    HW191453   9.893  10.560   8.454
29852SOL    HW291454   9.951  10.421   8.461
29853SOL     OW91455  12.329   3.183  10.246
29853SOL    HW191456  12.235   3.178  10.230
29853SOL    HW291457  12.337   3.224  10.332
29854SOL     OW91458   8.409  13.026   8.620
29854SOL    HW191459   8.355  13.061   8.690
29854SOL    HW291460   8.489  13.079   8.621
29855SOL     OW91461   4.719   3.271   4.114
29855SOL    HW191462   4.726   3.176   4.110
29855SOL    HW291463   4.770   3.303   4.040
29856SOL     OW91464  10.281  12.125  14.225
29856SOL    HW191465  10.282  12.030  14.234
29856SOL    HW291466  10.363  12.153  14.265
29857SOL     OW91467   7.339   3.643   0.662
29857SOL    HW191468   7.327   3.673   0.752
29857SOL    HW291469   7.309   3.553   0.662
29858SOL     OW91470   0.137   7.023  13.487
29858SOL    HW191471   0.119   7.084  13.415
29858SOL    HW291472   0.076   7.048  13.556
29859SOL     OW91473   5.555   5.857  10.345
29859SOL    HW191474   5.640   5.873  10.385
29859SOL    HW291475   5.493   5.859  10.417
29860SOL     OW91476   2.754  10.631   5.357
29860SOL    HW191477   2.764  10.556   5.298
29860SOL    HW291478   2.677  10.677   5.326
29861SOL     OW91479   8.150   5.416   8.199
29861SOL    HW191480   8.165   5.482   8.131
29861SOL    HW291481   8.094   5.351   8.157
29862SOL     OW91482   1.355  10.633  12.504
29862SOL    HW191483   1.390  10.711  12.461
29862SOL    HW291484   1.409  10.561  12.469
29863SOL     OW91485   4.572   8.412   0.854
29863SOL    HW191486   4.555   8.365   0.935
29863SOL    HW291487   4.607   8.497   0.882
29864SOL     OW91488  14.185  13.842   5.419
29864SOL    HW191489  14.242  13.864   5.346
29864SOL    HW291490  14.231  13.773   5.467
29865SOL     OW91491   8.063  11.656   4.192
29865SOL    HW191492   8.140  11.604   4.171
29865SOL    HW291493   8.007  11.649   4.115
29866SOL     OW91494  10.767   2.438   3.563
29866SOL    HW191495  10.788   2.457   3.655
29866SOL    HW291496  10.849   2.450   3.516
29867SOL     OW91497   5.555   3.549   6.154
29867SOL    HW191498   5.522   3.492   6.223
29867SOL    HW291499   5.476   3.590   6.117
29868SOL     OW91500   6.414  14.038  14.358
29868SOL    HW191501   6.401  14.087  14.439
29868SOL    HW291502   6.350  13.967  14.362
29869SOL     OW91503   8.516   2.926   6.195
29869SOL    HW191504   8.602   2.959   6.167
29869SOL    HW291505   8.530   2.898   6.286
29870SOL     OW91506  11.514   0.806   7.306
29870SOL    HW191507  11.574   0.739   7.275
29870SOL    HW291508  11.448   0.813   7.238
29871SOL     OW91509   8.657  10.827   8.020
29871SOL    HW191510   8.641  10.921   8.011
29871SOL    HW291511   8.745  10.814   7.986
29872SOL     OW91512  13.268   6.807   8.115
29872SOL    HW191513  13.353   6.846   8.096
29872SOL    HW291514  13.212   6.881   8.136
29873SOL     OW91515  11.730   7.944   1.608
29873SOL    HW191516  11.649   7.990   1.627
29873SOL    HW291517  11.786   8.009   1.565
29874SOL     OW91518   4.784  13.338   2.142
29874SOL    HW191519   4.833  13.388   2.207
29874SOL    HW291520   4.850  13.303   2.082
29875SOL     OW91521   3.132  13.709   3.978
29875SOL    HW191522   3.148  13.783   3.918
29875SOL    HW291523   3.207  13.651   3.963
29876SOL     OW91524   7.523   7.056   4.870
29876SOL    HW191525   7.605   7.027   4.910
29876SOL    HW291526   7.497   7.132   4.922
29877SOL     OW91527  14.803  13.968   5.050
29877SOL    HW191528  14.816  14.062   5.064
29877SOL    HW291529  14.720  13.949   5.093
29878SOL     OW91530  12.811  12.893  10.087
29878SOL    HW191531  12.786  12.866  10.176
29878SOL    HW291532  12.729  12.921  10.047
29879SOL     OW91533   5.210   2.571  11.792
29879SOL    HW191534   5.299   2.567  11.756
29879SOL    HW291535   5.194   2.664  11.807
29880SOL     OW91536  13.077   6.351   2.312
29880SOL    HW191537  13.172   6.366   2.309
29880SOL    HW291538  13.053   6.340   2.220
29881SOL     OW91539   3.404  11.193   9.164
29881SOL    HW191540   3.414  11.099   9.154
29881SOL    HW291541   3.387  11.225   9.075
29882SOL     OW91542   5.594   1.627   0.125
29882SOL    HW191543   5.544   1.701   0.091
29882SOL    HW291544   5.608   1.649   0.217
29883SOL     OW91545   4.885   0.536   4.713
29883SOL    HW191546   4.864   0.447   4.739
29883SOL    HW291547   4.980   0.537   4.703
29884SOL     OW91548   2.772   1.058  13.452
29884SOL    HW191549   2.809   1.090  13.370
29884SOL    HW291550   2.677   1.066  13.441
29885SOL     OW91551  13.900  11.156  13.362
29885SOL    HW191552  13.805  11.169  13.354
29885SOL    HW291553  13.921  11.187  13.450
29886SOL     OW91554   9.955   6.058   4.270
29886SOL    HW191555   9.931   6.098   4.186
29886SOL    HW291556   9.875   6.062   4.322
29887SOL     OW91557   9.447   4.475   3.838
29887SOL    HW191558   9.424   4.553   3.787
29887SOL    HW291559   9.515   4.506   3.899
29888SOL     OW91560  11.913   0.266   7.684
29888SOL    HW191561  11.845   0.204   7.708
29888SOL    HW291562  11.874   0.320   7.616
29889SOL     OW91563   0.494   6.611  13.103
29889SOL    HW191564   0.461   6.659  13.179
29889SOL    HW291565   0.431   6.540  13.090
29890SOL     OW91566   6.856   5.779  12.527
29890SOL    HW191567   6.806   5.803  12.605
29890SOL    HW291568   6.931   5.729  12.561
29891SOL     OW91569   3.199  13.236   6.848
29891SOL    HW191570   3.227  13.283   6.926
29891SOL    HW291571   3.116  13.276   6.823
29892SOL     OW91572   9.652   7.834  12.863
29892SOL    HW191573   9.616   7.875  12.941
29892SOL    HW291574   9.731   7.885  12.844
29893SOL     OW91575   1.201  13.135   8.780
29893SOL    HW191576   1.251  13.161   8.703
29893SOL    HW291577   1.178  13.218   8.823
29894SOL     OW91578   9.360   6.173   1.974
29894SOL    HW191579   9.344   6.081   1.998
29894SOL    HW291580   9.322   6.223   2.047
29895SOL     OW91581   5.336   4.687   3.288
29895SOL    HW191582   5.430   4.703   3.288
29895SOL    HW291583   5.327   4.595   3.264
29896SOL     OW91584   8.229   6.667   6.104
29896SOL    HW191585   8.178   6.709   6.173
29896SOL    HW291586   8.296   6.731   6.081
29897SOL     OW91587   2.098   0.071  12.922
29897SOL    HW191588   2.089   0.014  12.845
29897SOL    HW291589   2.181   0.044  12.961
29898SOL     OW91590  14.069   5.160   8.903
29898SOL    HW191591  14.058   5.111   8.984
29898SOL    HW291592  14.163   5.180   8.900
29899SOL     OW91593   6.328  10.668   7.194
29899SOL    HW191594   6.376  10.635   7.270
29899SOL    HW291595   6.253  10.609   7.186
29900SOL     OW91596   5.602  13.591   0.417
29900SOL    HW191597   5.550  13.584   0.498
29900SOL    HW291598   5.549  13.646   0.359
29901SOL     OW91599   3.635  10.048  10.170
29901SOL    HW191600   3.687   9.978  10.209
29901SOL    HW291601   3.695  10.123  10.165
29902SOL     OW91602   6.013   9.134   3.886
29902SOL    HW191603   5.948   9.169   3.947
29902SOL    HW291604   6.043   9.210   3.836
29903SOL     OW91605  10.257   2.687   8.800
29903SOL    HW191606  10.237   2.600   8.835
29903SOL    HW291607  10.195   2.699   8.728
29904SOL     OW91608  12.131  11.886   3.718
29904SOL    HW191609  12.176  11.831   3.654
29904SOL    HW291610  12.196  11.949   3.747
29905SOL     OW91611   2.768  10.265   9.878
29905SOL    HW191612   2.687  10.271   9.827
29905SOL    HW291613   2.838  10.276   9.813
29906SOL     OW91614  12.522   0.241   0.105
29906SOL    HW191615  12.449   0.181   0.121
29906SOL    HW291616  12.600   0.188   0.118
29907SOL     OW91617   7.057  13.009   6.434
29907SOL    HW191618   6.987  12.964   6.482
29907SOL    HW291619   7.051  12.975   6.345
29908SOL     OW91620   4.246   2.246   1.274
29908SOL    HW191621   4.333   2.232   1.238
29908SOL    HW291622   4.240   2.183   1.346
29909SOL     OW91623  11.016   0.609   8.011
29909SOL    HW191624  10.965   0.642   7.938
29909SOL    HW291625  11.083   0.553   7.970
29910SOL     OW91626   6.957   0.668   6.591
29910SOL    HW191627   6.909   0.726   6.650
29910SOL    HW291628   6.918   0.581   6.606
29911SOL     OW91629  11.676  13.597  10.792
29911SOL    HW191630  11.739  13.531  10.765
29911SOL    HW291631  11.614  13.550  10.847
29912SOL     OW91632   4.377   4.852   9.722
29912SOL    HW191633   4.336   4.938   9.723
29912SOL    HW291634   4.339   4.806   9.797
29913SOL     OW91635  13.356  12.385  14.032
29913SOL    HW191636  13.331  12.428  13.950
29913SOL    HW291637  13.449  12.369  14.023
29914SOL     OW91638  10.382   5.098   8.451
29914SOL    HW191639  10.373   5.124   8.543
29914SOL    HW291640  10.327   5.161   8.404
29915SOL     OW91641  10.037   2.107  11.984
29915SOL    HW191642  10.094   2.183  11.974
29915SOL    HW291643   9.976   2.113  11.911
29916SOL     OW91644   0.438  13.598   0.480
29916SOL    HW191645   0.518  13.580   0.431
29916SOL    HW291646   0.451  13.686   0.516
29917SOL     OW91647  11.959   5.375   2.601
29917SOL    HW191648  12.043   5.368   2.556
29917SOL    HW291649  11.913   5.446   2.556
29918SOL     OW91650   3.216   6.413   9.313
29918SOL    HW191651   3.183   6.347   9.252
29918SOL    HW291652   3.310   6.399   9.315
29919SOL     OW91653   2.198   2.247  13.286
29919SOL    HW191654   2.190   2.198  13.204
29919SOL    HW291655   2.262   2.197  13.337
29920SOL     OW91656  14.288  14.849  12.109
29920SOL    HW191657  14.342  14.772  12.093
29920SOL    HW291658  14.233  14.825  12.183
29921SOL     OW91659  13.708   8.630   8.493
29921SOL    HW191660  13.777   8.696   8.480
29921SOL    HW291661  13.756   8.552   8.520
29922SOL     OW91662   3.678   4.047  11.553
29922SOL    HW191663   3.751   4.095  11.591
29922SOL    HW291664   3.718   3.991  11.486
29923SOL     OW91665   5.583   2.632   0.621
29923SOL    HW191666   5.491   2.623   0.594
29923SOL    HW291667   5.633   2.598   0.547
29924SOL     OW91668  11.932  12.167   5.639
29924SOL    HW191669  11.849  12.212   5.621
29924SOL    HW291670  11.996  12.237   5.646
29925SOL     OW91671   5.383  12.811   2.697
29925SOL    HW191672   5.461  12.837   2.647
29925SOL    HW291673   5.393  12.716   2.710
29926SOL     OW91674   0.058   2.875   4.008
29926SOL    HW191675  14.848   2.852   4.034
29926SOL    HW291676   0.052   2.966   3.979
29927SOL     OW91677   4.646   6.762   3.446
29927SOL    HW191678   4.598   6.818   3.385
29927SOL    HW291679   4.592   6.684   3.455
29928SOL     OW91680  10.076   6.466   2.839
29928SOL    HW191681  10.027   6.432   2.914
29928SOL    HW291682  10.021   6.444   2.763
29929SOL     OW91683   6.454   0.115   9.332
29929SOL    HW191684   6.479   0.094   9.422
29929SOL    HW291685   6.529   0.087   9.279
29930SOL     OW91686   0.205   2.743  12.611
29930SOL    HW191687   0.163   2.827  12.593
29930SOL    HW291688   0.161   2.681  12.553
29931SOL     OW91689   9.456   4.908   0.266
29931SOL    HW191690   9.550   4.922   0.279
29931SOL    HW291691   9.436   4.830   0.318
29932SOL     OW91692  13.495   4.262   8.083
29932SOL    HW191693  13.483   4.170   8.062
29932SOL    HW291694  13.437   4.308   8.022
29933SOL     OW91695   6.973   9.004  11.067
29933SOL    HW191696   7.043   9.066  11.088
29933SOL    HW291697   7.018   8.927  11.032
29934SOL     OW91698   9.099  12.710   7.351
29934SOL    HW191699   9.181  12.747   7.384
29934SOL    HW291700   9.047  12.693   7.430
29935SOL     OW91701  11.600   3.379   3.965
29935SOL    HW191702  11.615   3.295   3.921
29935SOL    HW291703  11.547   3.429   3.903
29936SOL     OW91704   7.881   3.011   8.867
29936SOL    HW191705   7.881   3.054   8.952
29936SOL    HW291706   7.901   2.920   8.886
29937SOL     OW91707  10.138   5.752   1.915
29937SOL    HW191708  10.135   5.843   1.946
29937SOL    HW291709  10.047   5.730   1.896
29938SOL     OW91710   4.309   4.388   8.132
29938SOL    HW191711   4.342   4.336   8.059
29938SOL    HW291712   4.380   4.386   8.197
29939SOL     OW91713  12.251  14.547   5.368
29939SOL    HW191714  12.197  14.488   5.420
29939SOL    HW291715  12.305  14.593   5.432
29940SOL     OW91716   7.836   1.632   9.927
29940SOL    HW191717   7.778   1.704   9.903
29940SOL    HW291718   7.803   1.601  10.011
29941SOL     OW91719  11.778   5.564   1.817
29941SOL    HW191720  11.749   5.475   1.836
29941SOL    HW291721  11.698   5.617   1.819
29942SOL     OW91722   8.833  11.702   3.746
29942SOL    HW191723   8.872  11.786   3.721
29942SOL    HW291724   8.748  11.702   3.703
29943SOL     OW91725   2.449   4.783  10.063
29943SOL    HW191726   2.457   4.713  10.127
29943SOL    HW291727   2.538   4.799  10.032
29944SOL     OW91728   0.105   5.435  10.730
29944SOL    HW191729   0.020   5.466  10.761
29944SOL    HW291730   0.123   5.490  10.654
29945SOL     OW91731   8.119   4.077   9.664
29945SOL    HW191732   8.052   4.014   9.637
29945SOL    HW291733   8.147   4.048   9.751
29946SOL     OW91734   1.224  10.207   0.082
29946SOL    HW191735   1.134  10.180   0.101
29946SOL    HW291736   1.267  10.207   0.168
29947SOL     OW91737   4.108  11.867   1.251
29947SOL    HW191738   4.059  11.944   1.280
29947SOL    HW291739   4.042  11.811   1.210
29948SOL     OW91740   7.953   4.793  12.810
29948SOL    HW191741   7.970   4.870  12.757
29948SOL    HW291742   7.952   4.720  12.747
29949SOL     OW91743   9.484   7.867   0.999
29949SOL    HW191744   9.496   7.948   1.048
29949SOL    HW291745   9.441   7.808   1.060
29950SOL     OW91746  10.373  10.283   7.889
29950SOL    HW191747  10.393  10.322   7.804
29950SOL    HW291748  10.450  10.301   7.943
29951SOL     OW91749  14.705   1.801   6.834
29951SOL    HW191750  14.798   1.814   6.817
29951SOL    HW291751  14.663   1.821   6.750
29952SOL     OW91752  14.815   6.036   7.410
29952SOL    HW191753  14.731   6.072   7.381
29952SOL    HW291754  14.800   6.006   7.499
29953SOL     OW91755   8.721  14.763   9.037
29953SOL    HW191756   8.763  14.794   9.117
29953SOL    HW291757   8.668  14.688   9.065
29954SOL     OW91758   3.946   3.441   9.538
29954SOL    HW191759   4.013   3.390   9.583
29954SOL    HW291760   3.887   3.376   9.499
29955SOL     OW91761   4.064   8.211   8.640
29955SOL    HW191762   3.975   8.233   8.666
29955SOL    HW291763   4.056   8.126   8.598
29956SOL     OW91764   1.007   4.890   4.152
29956SOL    HW191765   1.094   4.856   4.172
29956SOL    HW291766   0.952   4.858   4.224
29957SOL     OW91767   0.431   1.683   1.783
29957SOL    HW191768   0.439   1.725   1.868
29957SOL    HW291769   0.357   1.623   1.792
29958SOL     OW91770   5.540   0.214  10.269
29958SOL    HW191771   5.542   0.185  10.178
29958SOL    HW291772   5.559   0.136  10.320
29959SOL     OW91773   3.725  14.000   9.156
29959SOL    HW191774   3.710  14.010   9.250
29959SOL    HW291775   3.818  13.979   9.149
29960SOL     OW91776  11.188   0.376   6.315
29960SOL    HW191777  11.102   0.334   6.311
29960SOL    HW291778  11.172   0.459   6.361
29961SOL     OW91779  11.826  14.682   0.431
29961SOL    HW191780  11.839  14.601   0.479
29961SOL    HW291781  11.824  14.750   0.498
29962SOL     OW91782   0.339   0.812  13.146
29962SOL    HW191783   0.394   0.760  13.088
29962SOL    HW291784   0.391   0.890  13.167
29963SOL     OW91785  14.621   5.880   0.043
29963SOL    HW191786  14.673   5.957   0.069
29963SOL    HW291787  14.637   5.816   0.111
29964SOL     OW91788  14.494   3.028  14.741
29964SOL    HW191789  14.568   2.973  14.717
29964SOL    HW291790  14.418   2.970  14.736
29965SOL     OW91791   4.723   5.454  14.694
29965SOL    HW191792   4.735   5.389  14.764
29965SOL    HW291793   4.630   5.448  14.671
29966SOL     OW91794   1.718   9.432  14.107
29966SOL    HW191795   1.633   9.389  14.097
29966SOL    HW291796   1.752   9.399  14.190
29967SOL     OW91797   9.762   3.632   8.674
29967SOL    HW191798   9.827   3.613   8.742
29967SOL    HW291799   9.707   3.701   8.712
29968SOL     OW91800   3.827   2.199   7.145
29968SOL    HW191801   3.870   2.284   7.149
29968SOL    HW291802   3.769   2.197   7.221
29969SOL     OW91803  12.093  13.258   5.159
29969SOL    HW191804  12.034  13.184   5.172
29969SOL    HW291805  12.131  13.243   5.073
29970SOL     OW91806  11.900   8.833   2.704
29970SOL    HW191807  11.942   8.748   2.719
29970SOL    HW291808  11.813   8.824   2.744
29971SOL     OW91809  12.819   7.585   7.142
29971SOL    HW191810  12.852   7.623   7.060
29971SOL    HW291811  12.766   7.656   7.181
29972SOL     OW91812   6.567  11.545   9.305
29972SOL    HW191813   6.571  11.636   9.334
29972SOL    HW291814   6.476  11.519   9.318
29973SOL     OW91815  14.424   7.681   7.141
29973SOL    HW191816  14.419   7.671   7.236
29973SOL    HW291817  14.340   7.718   7.115
29974SOL     OW91818   9.809  13.675  10.857
29974SOL    HW191819   9.754  13.623  10.798
29974SOL    HW291820   9.749  13.738  10.896
29975SOL     OW91821   5.277  13.029  12.857
29975SOL    HW191822   5.328  12.960  12.898
29975SOL    HW291823   5.273  13.003  12.765
29976SOL     OW91824   5.905   5.667   6.770
29976SOL    HW191825   5.874   5.614   6.696
29976SOL    HW291826   5.845   5.742   6.773
29977SOL     OW91827   5.787   3.803   4.189
29977SOL    HW191828   5.767   3.716   4.153
29977SOL    HW291829   5.823   3.852   4.115
29978SOL     OW91830   1.983   7.371  12.090
29978SOL    HW191831   1.917   7.400  12.028
29978SOL    HW291832   2.064   7.368  12.040
29979SOL     OW91833  13.948  12.301   8.591
29979SOL    HW191834  13.890  12.227   8.571
29979SOL    HW291835  14.019  12.292   8.528
29980SOL     OW91836   5.671  14.691  12.080
29980SOL    HW191837   5.729  14.624  12.116
29980SOL    HW291838   5.668  14.671  11.986
29981SOL     OW91839   9.836   0.796   6.773
29981SOL    HW191840   9.789   0.873   6.741
29981SOL    HW291841   9.778   0.722   6.752
29982SOL     OW91842   9.074   8.659  11.235
29982SOL    HW191843   9.033   8.620  11.313
29982SOL    HW291844   9.061   8.594  11.166
29983SOL     OW91845   9.066   9.871   7.232
29983SOL    HW191846   9.004   9.798   7.225
29983SOL    HW291847   9.146   9.838   7.190
29984SOL     OW91848  10.323   6.635   0.812
29984SOL    HW191849  10.285   6.571   0.751
29984SOL    HW291850  10.257   6.647   0.880
29985SOL     OW91851   8.426   1.466  10.735
29985SOL    HW191852   8.396   1.397  10.677
29985SOL    HW291853   8.509   1.433  10.771
29986SOL     OW91854   5.381  14.613   2.411
29986SOL    HW191855   5.440  14.561   2.357
29986SOL    HW291856   5.366  14.693   2.361
29987SOL     OW91857   8.676  10.883   6.126
29987SOL    HW191858   8.770  10.867   6.124
29987SOL    HW291859   8.637  10.797   6.138
29988SOL     OW91860   6.776   4.699  13.677
29988SOL    HW191861   6.814   4.633  13.735
29988SOL    HW291862   6.832   4.698  13.600
29989SOL     OW91863   8.310   0.424   0.698
29989SOL    HW191864   8.344   0.397   0.612
29989SOL    HW291865   8.228   0.468   0.678
29990SOL     OW91866   0.852  13.810   5.165
29990SOL    HW191867   0.779  13.873   5.165
29990SOL    HW291868   0.816  13.732   5.208
29991SOL     OW91869  14.562   7.597  10.565
29991SOL    HW191870  14.519   7.524  10.520
29991SOL    HW291871  14.630   7.556  10.618
29992SOL     OW91872   8.514   4.675  13.268
29992SOL    HW191873   8.428   4.717  13.278
29992SOL    HW291874   8.556   4.686  13.354
29993SOL     OW91875   7.397   8.011   9.154
29993SOL    HW191876   7.421   8.011   9.061
29993SOL    HW291877   7.307   7.977   9.155
29994SOL     OW91878   2.578  14.302  11.625
29994SOL    HW191879   2.618  14.339  11.546
29994SOL    HW291880   2.650  14.296  11.687
29995SOL     OW91881   6.178  10.746   8.136
29995SOL    HW191882   6.096  10.780   8.173
29995SOL    HW291883   6.227  10.824   8.113
29996SOL     OW91884   1.785   2.605   9.076
29996SOL    HW191885   1.828   2.663   9.139
29996SOL    HW291886   1.813   2.639   8.990
29997SOL     OW91887   2.496   2.571   7.693
29997SOL    HW191888   2.476   2.517   7.770
29997SOL    HW291889   2.432   2.643   7.697
29998SOL     OW91890   0.892   3.750  11.225
29998SOL    HW191891   0.812   3.751  11.277
29998SOL    HW291892   0.961   3.773  11.287
29999SOL     OW91893   7.605  14.082  13.910
29999SOL    HW191894   7.514  14.101  13.935
29999SOL    HW291895   7.635  14.019  13.976
30000SOL     OW91896   2.740   3.037   2.958
30000SOL    HW191897   2.675   2.967   2.946
30000SOL    HW291898   2.698   3.114   2.919
30001SOL     OW91899   0.770  12.926   9.865
30001SOL    HW191900   0.855  12.884   9.881
30001SOL    HW291901   0.708  12.853   9.864
30002SOL     OW91902   9.825   7.049   2.626
30002SOL    HW191903   9.845   6.961   2.657
30002SOL    HW291904   9.834   7.044   2.531
30003SOL     OW91905   0.282   9.578  12.190
30003SOL    HW191906   0.305   9.633  12.265
30003SOL    HW291907   0.224   9.632  12.137
30004SOL     OW91908   8.837   6.955  12.597
30004SOL    HW191909   8.873   6.867  12.583
30004SOL    HW291910   8.743   6.945  12.583
30005SOL     OW91911  13.531   6.492   2.585
30005SOL    HW191912  13.461   6.546   2.620
30005SOL    HW291913  13.544   6.524   2.495
30006SOL     OW91914   2.412   3.498   3.584
30006SOL    HW191915   2.358   3.499   3.505
30006SOL    HW291916   2.462   3.417   3.577
30007SOL     OW91917  13.910   4.864   4.545
30007SOL    HW191918  13.888   4.787   4.597
30007SOL    HW291919  13.839   4.925   4.562
30008SOL     OW91920   6.463   4.253   7.726
30008SOL    HW191921   6.525   4.268   7.654
30008SOL    HW291922   6.496   4.174   7.769
30009SOL     OW91923   5.163  13.547  11.112
30009SOL    HW191924   5.108  13.624  11.128
30009SOL    HW291925   5.222  13.573  11.042
30010SOL     OW91926  10.537   9.014   0.226
30010SOL    HW191927  10.466   9.047   0.281
30010SOL    HW291928  10.512   8.923   0.208
30011SOL     OW91929  13.412   0.156   0.021
30011SOL    HW191930  13.380   0.245   0.008
30011SOL    HW291931  13.476   0.143  14.831
30012SOL     OW91932   9.461   5.845   2.284
30012SOL    HW191933   9.467   5.868   2.191
30012SOL    HW291934   9.368   5.826   2.298
30013SOL     OW91935  13.970   8.670   6.146
30013SOL    HW191936  14.021   8.713   6.214
30013SOL    HW291937  13.900   8.624   6.193
30014SOL     OW91938   6.129   8.782   0.832
30014SOL    HW191939   6.107   8.845   0.901
30014SOL    HW291940   6.221   8.762   0.847
30015SOL     OW91941   1.729   1.007   7.313
30015SOL    HW191942   1.692   1.071   7.373
30015SOL    HW291943   1.809   0.978   7.355
30016SOL     OW91944   4.406   0.751   7.505
30016SOL    HW191945   4.469   0.823   7.495
30016SOL    HW291946   4.353   0.755   7.425
30017SOL     OW91947  10.828   8.422   1.036
30017SOL    HW191948  10.833   8.333   1.002
30017SOL    HW291949  10.894   8.425   1.106
30018SOL     OW91950   6.316   4.485   7.782
30018SOL    HW191951   6.300   4.507   7.873
30018SOL    HW291952   6.356   4.398   7.784
30019SOL     OW91953   3.193   4.207   7.970
30019SOL    HW191954   3.135   4.269   8.014
30019SOL    HW291955   3.206   4.244   7.883
30020SOL     OW91956   4.032   5.653   2.315
30020SOL    HW191957   3.964   5.618   2.258
30020SOL    HW291958   3.993   5.654   2.402
30021SOL     OW91959  11.481   3.364  11.508
30021SOL    HW191960  11.543   3.406  11.448
30021SOL    HW291961  11.502   3.270  11.501
30022SOL     OW91962  11.487   3.890   7.338
30022SOL    HW191963  11.563   3.932   7.297
30022SOL    HW291964  11.476   3.808   7.290
30023SOL     OW91965  10.773  11.845   1.426
30023SOL    HW191966  10.684  11.813   1.411
30023SOL    HW291967  10.791  11.824   1.518
30024SOL     OW91968  10.759   4.011   0.299
30024SOL    HW191969  10.814   3.984   0.226
30024SOL    HW291970  10.806   4.085   0.337
30025SOL     OW91971   1.980  13.069  11.061
30025SOL    HW191972   1.984  13.012  11.138
30025SOL    HW291973   1.901  13.042  11.014
30026SOL     OW91974   4.132  10.105  10.973
30026SOL    HW191975   4.162  10.053  10.898
30026SOL    HW291976   4.131  10.195  10.941
30027SOL     OW91977   1.563   3.094  10.345
30027SOL    HW191978   1.473   3.117  10.371
30027SOL    HW291979   1.552   3.039  10.268
30028SOL     OW91980   4.959   2.238   1.517
30028SOL    HW191981   4.944   2.324   1.557
30028SOL    HW291982   5.049   2.215   1.541
30029SOL     OW91983   0.772   9.169  10.949
30029SOL    HW191984   0.757   9.260  10.924
30029SOL    HW291985   0.780   9.172  11.045
30030SOL     OW91986   9.219   3.148  14.206
30030SOL    HW191987   9.211   3.194  14.123
30030SOL    HW291988   9.247   3.215  14.269
30031SOL     OW91989  10.197  12.708   4.803
30031SOL    HW191990  10.267  12.647   4.826
30031SOL    HW291991  10.179  12.756   4.883
30032SOL     OW91992   6.947   2.733   6.803
30032SOL    HW191993   7.036   2.710   6.833
30032SOL    HW291994   6.892   2.719   6.880
30033SOL     OW91995   9.576   6.688   3.227
30033SOL    HW191996   9.568   6.603   3.270
30033SOL    HW291997   9.495   6.697   3.177
30034SOL     OW91998   3.190  10.440   1.939
30034SOL    HW191999   3.202  10.530   1.910
30034SOL    HW292000   3.250  10.389   1.884
30035SOL     OW92001   7.114  13.065   7.642
30035SOL    HW192002   7.039  13.115   7.609
30035SOL    HW292003   7.181  13.130   7.660
30036SOL     OW92004  14.812  11.011   7.673
30036SOL    HW192005  14.835  10.995   7.581
30036SOL    HW292006  14.813  10.924   7.713
30037SOL     OW92007   1.434   6.362   8.735
30037SOL    HW192008   1.466   6.276   8.707
30037SOL    HW292009   1.385   6.395   8.660
30038SOL     OW92010   0.254  10.316   6.685
30038SOL    HW192011   0.322  10.287   6.625
30038SOL    HW292012   0.300  10.367   6.752
30039SOL     OW92013   4.042   1.530   4.376
30039SOL    HW192014   4.117   1.498   4.426
30039SOL    HW292015   3.979   1.558   4.442
30040SOL     OW92016  13.764   0.091  10.410
30040SOL    HW192017  13.710   0.137  10.346
30040SOL    HW292018  13.717   0.009  10.426
30041SOL     OW92019   4.167  14.775  12.789
30041SOL    HW192020   4.177  14.771  12.694
30041SOL    HW292021   4.241  14.826  12.819
30042SOL     OW92022   8.824   0.128   0.100
30042SOL    HW192023   8.776   0.114   0.182
30042SOL    HW292024   8.907   0.083   0.113
30043SOL     OW92025  13.601  13.663  12.324
30043SOL    HW192026  13.673  13.625  12.273
30043SOL    HW292027  13.525  13.655  12.267
30044SOL     OW92028  10.223   7.846   4.253
30044SOL    HW192029  10.269   7.785   4.195
30044SOL    HW292030  10.283   7.860   4.326
30045SOL     OW92031  11.448  10.172   4.052
30045SOL    HW192032  11.361  10.140   4.074
30045SOL    HW292033  11.486  10.104   3.998
30046SOL     OW92034  12.691  13.179   7.214
30046SOL    HW192035  12.638  13.110   7.174
30046SOL    HW292036  12.749  13.209   7.144
30047SOL     OW92037  14.229   1.487   4.438
30047SOL    HW192038  14.211   1.473   4.345
30047SOL    HW292039  14.190   1.411   4.482
30048SOL     OW92040  10.650  13.652   6.521
30048SOL    HW192041  10.653  13.676   6.429
30048SOL    HW292042  10.572  13.597   6.529
30049SOL     OW92043   3.601   1.993   8.061
30049SOL    HW192044   3.550   1.975   7.983
30049SOL    HW292045   3.539   2.032   8.123
30050SOL     OW92046   3.902   5.112   8.735
30050SOL    HW192047   3.899   5.179   8.804
30050SOL    HW292048   3.858   5.037   8.774
30051SOL     OW92049   4.237   8.494   1.791
30051SOL    HW192050   4.158   8.543   1.767
30051SOL    HW292051   4.286   8.554   1.847
30052SOL     OW92052   0.978   5.151   7.087
30052SOL    HW192053   1.031   5.151   7.007
30052SOL    HW292054   0.948   5.060   7.096
30053SOL     OW92055  11.640   9.113   3.654
30053SOL    HW192056  11.674   9.072   3.574
30053SOL    HW292057  11.715   9.120   3.712
30054SOL     OW92058   8.912   2.920   8.029
30054SOL    HW192059   8.847   2.990   8.031
30054SOL    HW292060   8.874   2.850   8.082
30055SOL     OW92061   4.214   9.922   7.200
30055SOL    HW192062   4.295   9.871   7.188
30055SOL    HW292063   4.177   9.888   7.282
30056SOL     OW92064  11.667  12.791  11.581
30056SOL    HW192065  11.745  12.807  11.528
30056SOL    HW292066  11.609  12.742  11.523
30057SOL     OW92067   1.581   4.260  13.925
30057SOL    HW192068   1.602   4.168  13.910
30057SOL    HW292069   1.613   4.278  14.013
30058SOL     OW92070   7.350  11.413   1.507
30058SOL    HW192071   7.339  11.325   1.544
30058SOL    HW292072   7.294  11.414   1.429
30059SOL     OW92073  13.733   4.580  11.552
30059SOL    HW192074  13.662   4.596  11.614
30059SOL    HW292075  13.723   4.648  11.486
30060SOL     OW92076  12.031   6.332  11.885
30060SOL    HW192077  11.975   6.319  11.961
30060SOL    HW292078  12.098   6.265  11.892
30061SOL     OW92079  10.057   2.301   9.837
30061SOL    HW192080  10.008   2.366   9.888
30061SOL    HW292081  10.023   2.216   9.867
30062SOL     OW92082   1.753  12.189   8.693
30062SOL    HW192083   1.666  12.223   8.672
30062SOL    HW292084   1.783  12.243   8.767
30063SOL     OW92085   7.820   2.636   7.465
30063SOL    HW192086   7.727   2.654   7.482
30063SOL    HW292087   7.863   2.649   7.549
30064SOL     OW92088  14.797   8.257   0.653
30064SOL    HW192089  14.755   8.308   0.722
30064SOL    HW292090  14.731   8.193   0.628
30065SOL     OW92091   4.579  12.713   5.294
30065SOL    HW192092   4.514  12.735   5.360
30065SOL    HW292093   4.640  12.654   5.338
30066SOL     OW92094   5.149   4.815   9.321
30066SOL    HW192095   5.116   4.852   9.239
30066SOL    HW292096   5.244   4.823   9.315
30067SOL     OW92097   4.838   7.661   0.881
30067SOL    HW192098   4.763   7.689   0.829
30067SOL    HW292099   4.911   7.660   0.820
30068SOL     OW92100  10.430  14.543  12.174
30068SOL    HW192101  10.419  14.621  12.228
30068SOL    HW292102  10.519  14.513  12.192
30069SOL     OW92103  13.830   9.567   3.654
30069SOL    HW192104  13.851   9.489   3.705
30069SOL    HW292105  13.915   9.607   3.634
30070SOL     OW92106  14.811   6.803   1.519
30070SOL    HW192107  14.843   6.714   1.529
30070SOL    HW292108  14.817   6.821   1.425
30071SOL     OW92109   7.522   0.120   1.699
30071SOL    HW192110   7.568   0.191   1.743
30071SOL    HW292111   7.498   0.060   1.769
30072SOL     OW92112   5.371   9.025  13.131
30072SOL    HW192113   5.286   9.015  13.175
30072SOL    HW292114   5.396   8.935  13.110
30073SOL     OW92115  10.046   3.354   7.610
30073SOL    HW192116  10.103   3.383   7.680
30073SOL    HW292117  10.034   3.260   7.626
30074SOL     OW92118   3.793  14.472   6.184
30074SOL    HW192119   3.754  14.390   6.215
30074SOL    HW292120   3.884  14.449   6.165
30075SOL     OW92121   8.107  11.224   1.120
30075SOL    HW192122   8.135  11.228   1.028
30075SOL    HW292123   8.127  11.135   1.147
30076SOL     OW92124  14.449  13.788   7.713
30076SOL    HW192125  14.453  13.712   7.771
30076SOL    HW292126  14.494  13.761   7.634
30077SOL     OW92127  12.876   1.666   6.863
30077SOL    HW192128  12.887   1.637   6.772
30077SOL    HW292129  12.902   1.758   6.862
30078SOL     OW92130   4.757   8.651   7.851
30078SOL    HW192131   4.699   8.606   7.789
30078SOL    HW292132   4.730   8.620   7.937
30079SOL     OW92133   3.215   3.723   9.584
30079SOL    HW192134   3.160   3.647   9.566
30079SOL    HW292135   3.239   3.757   9.498
30080SOL     OW92136  13.588   6.044   0.456
30080SOL    HW192137  13.510   6.052   0.402
30080SOL    HW292138  13.635   5.970   0.419
30081SOL     OW92139   1.241  11.664   8.570
30081SOL    HW192140   1.244  11.757   8.594
30081SOL    HW292141   1.256  11.664   8.475
30082SOL     OW92142  14.594   8.887   8.276
30082SOL    HW192143  14.516   8.891   8.220
30082SOL    HW292144  14.565   8.919   8.361
30083SOL     OW92145  13.700   9.787   2.668
30083SOL    HW192146  13.730   9.878   2.667
30083SOL    HW292147  13.726   9.754   2.754
30084SOL     OW92148   6.388   2.899   4.760
30084SOL    HW192149   6.340   2.833   4.710
30084SOL    HW292150   6.419   2.852   4.837
30085SOL     OW92151   6.341   0.020  14.152
30085SOL    HW192152   6.342   0.078  14.076
30085SOL    HW292153   6.293  14.822  14.121
30086SOL     OW92154  13.776   0.288   3.354
30086SOL    HW192155  13.869   0.302   3.335
30086SOL    HW292156  13.776   0.223   3.425
30087SOL     OW92157  14.190   3.918   7.783
30087SOL    HW192158  14.240   3.956   7.711
30087SOL    HW292159  14.106   3.892   7.744
30088SOL     OW92160   8.913  13.074  11.601
30088SOL    HW192161   8.952  12.989  11.582
30088SOL    HW292162   8.903  13.075  11.696
30089SOL     OW92163   5.158  11.041  13.235
30089SOL    HW192164   5.163  11.119  13.180
30089SOL    HW292165   5.070  11.006  13.220
30090SOL     OW92166   8.299   3.911   0.321
30090SOL    HW192167   8.309   3.989   0.376
30090SOL    HW292168   8.389   3.885   0.300
30091SOL     OW92169   6.749   8.623   3.225
30091SOL    HW192170   6.702   8.655   3.302
30091SOL    HW292171   6.826   8.578   3.261
30092SOL     OW92172  10.561  13.258   8.834
30092SOL    HW192173  10.646  13.220   8.859
30092SOL    HW292174  10.538  13.315   8.907
30093SOL     OW92175   1.155   4.600   6.844
30093SOL    HW192176   1.141   4.576   6.752
30093SOL    HW292177   1.102   4.538   6.894
30094SOL     OW92178  14.517   5.843   6.642
30094SOL    HW192179  14.422   5.837   6.635
30094SOL    HW292180  14.547   5.854   6.552
30095SOL     OW92181   5.791   6.074   6.078
30095SOL    HW192182   5.808   6.141   6.143
30095SOL    HW292183   5.876   6.030   6.066
30096SOL     OW92184   2.122   2.098   5.448
30096SOL    HW192185   2.074   2.173   5.411
30096SOL    HW292186   2.161   2.133   5.528
30097SOL     OW92187   8.437   1.734   4.811
30097SOL    HW192188   8.358   1.779   4.840
30097SOL    HW292189   8.413   1.694   4.728
30098SOL     OW92190   3.638   4.334   8.623
30098SOL    HW192191   3.731   4.319   8.606
30098SOL    HW292192   3.597   4.326   8.537
30099SOL     OW92193   4.088   8.418  10.837
30099SOL    HW192194   4.106   8.348  10.899
30099SOL    HW292195   4.173   8.435  10.795
30100SOL     OW92196   6.809   0.453   3.753
30100SOL    HW192197   6.831   0.395   3.826
30100SOL    HW292198   6.874   0.524   3.759
30101SOL     OW92199   5.307  10.639   2.038
30101SOL    HW192200   5.376  10.572   2.039
30101SOL    HW292201   5.233  10.597   1.996
30102SOL     OW92202  10.340   6.169  11.988
30102SOL    HW192203  10.291   6.219  11.923
30102SOL    HW292204  10.336   6.222  12.067
30103SOL     OW92205  12.516   6.559  13.823
30103SOL    HW192206  12.560   6.618  13.884
30103SOL    HW292207  12.584   6.535  13.760
30104SOL     OW92208  10.828  11.118  12.423
30104SOL    HW192209  10.774  11.196  12.440
30104SOL    HW292210  10.799  11.054  12.488
30105SOL     OW92211   9.409   0.842   1.235
30105SOL    HW192212   9.378   0.767   1.286
30105SOL    HW292213   9.464   0.803   1.167
30106SOL     OW92214   4.761   1.290  13.846
30106SOL    HW192215   4.769   1.312  13.938
30106SOL    HW292216   4.810   1.208  13.836
30107SOL     OW92217  10.351  10.373   4.062
30107SOL    HW192218  10.409  10.409   4.129
30107SOL    HW292219  10.320  10.290   4.099
30108SOL     OW92220  11.085   2.739   5.545
30108SOL    HW192221  11.130   2.770   5.467
30108SOL    HW292222  11.072   2.818   5.599
30109SOL     OW92223  13.609  10.441  10.558
30109SOL    HW192224  13.525  10.411  10.524
30109SOL    HW292225  13.637  10.510  10.498
30110SOL     OW92226   2.659   0.483   1.226
30110SOL    HW192227   2.688   0.421   1.159
30110SOL    HW292228   2.568   0.460   1.243
30111SOL     OW92229  14.323   5.081   3.217
30111SOL    HW192230  14.279   5.158   3.182
30111SOL    HW292231  14.291   5.074   3.307
30112SOL     OW92232   8.778  10.747   5.189
30112SOL    HW192233   8.834  10.796   5.129
30112SOL    HW292234   8.780  10.657   5.155
30113SOL     OW92235   0.333  13.910   9.874
30113SOL    HW192236   0.310  13.832   9.823
30113SOL    HW292237   0.378  13.876   9.951
30114SOL     OW92238   2.377   8.950   6.933
30114SOL    HW192239   2.332   8.916   7.010
30114SOL    HW292240   2.307   8.966   6.869
30115SOL     OW92241  13.225   8.245  14.701
30115SOL    HW192242  13.282   8.315  14.667
30115SOL    HW292243  13.252   8.235  14.792
30116SOL     OW92244   0.244  10.234   3.976
30116SOL    HW192245   0.265  10.241   4.069
30116SOL    HW292246   0.250  10.324   3.943
30117SOL     OW92247  13.920   8.271  12.083
30117SOL    HW192248  13.981   8.198  12.082
30117SOL    HW292249  13.976   8.349  12.088
30118SOL     OW92250   1.908   0.306   9.144
30118SOL    HW192251   1.863   0.386   9.170
30118SOL    HW292252   1.838   0.244   9.123
30119SOL     OW92253   6.867   7.497   5.346
30119SOL    HW192254   6.806   7.478   5.417
30119SOL    HW292255   6.915   7.415   5.333
30120SOL     OW92256  13.667   8.051   6.898
30120SOL    HW192257  13.705   7.973   6.856
30120SOL    HW292258  13.652   8.024   6.989
30121SOL     OW92259  14.101   5.911   4.217
30121SOL    HW192260  14.092   5.817   4.201
30121SOL    HW292261  14.072   5.923   4.307
30122SOL     OW92262   7.848  12.505   6.271
30122SOL    HW192263   7.792  12.571   6.313
30122SOL    HW292264   7.814  12.421   6.303
30123SOL     OW92265  10.216  11.653   3.339
30123SOL    HW192266  10.180  11.617   3.421
30123SOL    HW292267  10.144  11.647   3.276
30124SOL     OW92268   6.822  10.214   6.617
30124SOL    HW192269   6.832  10.295   6.567
30124SOL    HW292270   6.809  10.146   6.551
30125SOL     OW92271  14.735  12.072   6.670
30125SOL    HW192272  14.708  12.050   6.581
30125SOL    HW292273  14.750  12.167   6.668
30126SOL     OW92274   2.834   1.243   9.703
30126SOL    HW192275   2.777   1.239   9.780
30126SOL    HW292276   2.777   1.220   9.630
30127SOL     OW92277   0.541  10.164   3.898
30127SOL    HW192278   0.517  10.161   3.991
30127SOL    HW292279   0.458  10.172   3.852
30128SOL     OW92280   3.153   7.839   6.795
30128SOL    HW192281   3.075   7.826   6.849
30128SOL    HW292282   3.218   7.876   6.856
30129SOL     OW92283   6.944   8.660   5.087
30129SOL    HW192284   7.000   8.738   5.087
30129SOL    HW292285   6.893   8.668   5.006
30130SOL     OW92286   8.741   0.582  13.082
30130SOL    HW192287   8.712   0.664  13.042
30130SOL    HW292288   8.685   0.515  13.043
30131SOL     OW92289  11.668  11.692   0.361
30131SOL    HW192290  11.759  11.674   0.384
30131SOL    HW292291  11.669  11.704   0.266
30132SOL     OW92292   1.130   4.527  11.067
30132SOL    HW192293   1.040   4.494  11.068
30132SOL    HW292294   1.147   4.547  10.975
30133SOL     OW92295   0.337   4.855   9.879
30133SOL    HW192296   0.326   4.764   9.908
30133SOL    HW292297   0.318   4.908   9.956
30134SOL     OW92298   9.176   9.285  12.146
30134SOL    HW192299   9.215   9.370  12.166
30134SOL    HW292300   9.221   9.256  12.067
30135SOL     OW92301   2.422  14.056   6.500
30135SOL    HW192302   2.434  14.119   6.428
30135SOL    HW292303   2.409  14.111   6.578
30136SOL     OW92304   0.599  14.281   4.162
30136SOL    HW192305   0.611  14.187   4.156
30136SOL    HW292306   0.610  14.301   4.255
30137SOL     OW92307  11.490   4.191  12.802
30137SOL    HW192308  11.440   4.210  12.881
30137SOL    HW292309  11.424   4.188  12.733
30138SOL     OW92310  10.363   2.409   4.369
30138SOL    HW192311  10.291   2.461   4.405
30138SOL    HW292312  10.398   2.462   4.298
30139SOL     OW92313   7.920   2.093  13.728
30139SOL    HW192314   7.876   2.177  13.735
30139SOL    HW292315   7.961   2.094  13.642
30140SOL     OW92316  14.759   9.036   2.891
30140SOL    HW192317  14.706   9.093   2.835
30140SOL    HW292318  14.701   9.010   2.962
30141SOL     OW92319  14.354   6.190   8.280
30141SOL    HW192320  14.262   6.178   8.304
30141SOL    HW292321  14.375   6.278   8.311
30142SOL     OW92322   0.497   0.913   0.692
30142SOL    HW192323   0.482   1.007   0.692
30142SOL    HW292324   0.549   0.897   0.613
30143SOL     OW92325  14.577   6.323   5.560
30143SOL    HW192326  14.602   6.287   5.475
30143SOL    HW292327  14.657   6.361   5.596
30144SOL     OW92328  11.899  10.192   5.767
30144SOL    HW192329  11.845  10.185   5.846
30144SOL    HW292330  11.974  10.245   5.794
30145SOL     OW92331   9.549   6.835   7.434
30145SOL    HW192332   9.484   6.790   7.488
30145SOL    HW292333   9.508   6.844   7.349
30146SOL     OW92334   3.969   3.119   4.761
30146SOL    HW192335   3.977   3.149   4.670
30146SOL    HW292336   4.006   3.189   4.814
30147SOL     OW92337   6.360   7.191   9.659
30147SOL    HW192338   6.428   7.155   9.602
30147SOL    HW292339   6.279   7.179   9.610
30148SOL     OW92340  12.342   6.085   8.891
30148SOL    HW192341  12.298   6.108   8.972
30148SOL    HW292342  12.331   5.991   8.883
30149SOL     OW92343   5.916  11.330   4.153
30149SOL    HW192344   5.912  11.306   4.060
30149SOL    HW292345   5.832  11.300   4.189
30150SOL     OW92346   0.803   1.939   4.564
30150SOL    HW192347   0.870   1.903   4.623
30150SOL    HW292348   0.815   2.034   4.570
30151SOL     OW92349   0.323   0.249   7.472
30151SOL    HW192350   0.385   0.278   7.539
30151SOL    HW292351   0.350   0.296   7.393
30152SOL     OW92352   2.886  13.549  10.100
30152SOL    HW192353   2.885  13.552  10.195
30152SOL    HW292354   2.837  13.626  10.072
30153SOL     OW92355  11.814   7.876   3.446
30153SOL    HW192356  11.898   7.901   3.408
30153SOL    HW292357  11.801   7.785   3.419
30154SOL     OW92358   6.628   6.770   4.394
30154SOL    HW192359   6.688   6.698   4.374
30154SOL    HW292360   6.673   6.821   4.461
30155SOL     OW92361  12.183   3.922   4.454
30155SOL    HW192362  12.118   3.992   4.460
30155SOL    HW292363  12.236   3.944   4.377
30156SOL     OW92364   1.093  11.162   9.841
30156SOL    HW192365   1.138  11.140   9.922
30156SOL    HW292366   1.117  11.092   9.781
30157SOL     OW92367   3.697   2.848   8.339
30157SOL    HW192368   3.666   2.938   8.331
30157SOL    HW292369   3.743   2.831   8.258
30158SOL     OW92370   4.326   8.650  12.967
30158SOL    HW192371   4.419   8.656  12.988
30158SOL    HW292372   4.323   8.636  12.873
30159SOL     OW92373   6.405  10.241   4.456
30159SOL    HW192374   6.313  10.263   4.439
30159SOL    HW292375   6.453  10.321   4.434
30160SOL     OW92376   5.534  11.490   3.798
30160SOL    HW192377   5.535  11.578   3.836
30160SOL    HW292378   5.550  11.431   3.871
30161SOL     OW92379   0.241   4.347  10.743
30161SOL    HW192380   0.165   4.344  10.801
30161SOL    HW292381   0.267   4.255  10.734
30162SOL     OW92382   5.895  12.903   3.109
30162SOL    HW192383   5.839  12.846   3.162
30162SOL    HW292384   5.968  12.925   3.167
30163SOL     OW92385  11.928  10.811   0.189
30163SOL    HW192386  11.959  10.721   0.199
30163SOL    HW292387  11.906  10.818   0.096
30164SOL     OW92388  10.423  10.141  11.629
30164SOL    HW192389  10.399  10.077  11.561
30164SOL    HW292390  10.441  10.221  11.581
30165SOL     OW92391   3.600  13.133  12.941
30165SOL    HW192392   3.571  13.126  12.850
30165SOL    HW292393   3.551  13.208  12.975
30166SOL     OW92394   2.302   2.319   7.761
30166SOL    HW192395   2.308   2.307   7.666
30166SOL    HW292396   2.208   2.321   7.779
30167SOL     OW92397   2.850   8.187   6.735
30167SOL    HW192398   2.908   8.182   6.659
30167SOL    HW292399   2.765   8.212   6.698
30168SOL     OW92400   2.715  12.988   4.914
30168SOL    HW192401   2.695  12.907   4.868
30168SOL    HW292402   2.669  12.981   4.998
30169SOL     OW92403   6.155   0.731  14.472
30169SOL    HW192404   6.171   0.796  14.540
30169SOL    HW292405   6.061   0.715  14.475
30170SOL     OW92406   2.005   3.117   0.972
30170SOL    HW192407   1.966   3.200   0.942
30170SOL    HW292408   2.098   3.126   0.954
30171SOL     OW92409   5.110   4.705   7.129
30171SOL    HW192410   5.159   4.651   7.067
30171SOL    HW292411   5.108   4.792   7.089
30172SOL     OW92412  11.312   1.896   5.649
30172SOL    HW192413  11.302   1.984   5.612
30172SOL    HW292414  11.329   1.840   5.574
30173SOL     OW92415  12.016  12.492   6.749
30173SOL    HW192416  11.980  12.457   6.668
30173SOL    HW292417  11.944  12.486   6.813
30174SOL     OW92418   2.349  13.970   5.098
30174SOL    HW192419   2.281  13.905   5.111
30174SOL    HW292420   2.399  13.970   5.180
30175SOL     OW92421   9.007   9.905  14.437
30175SOL    HW192422   9.033   9.983  14.388
30175SOL    HW292423   8.938   9.935  14.495
30176SOL     OW92424  12.438   6.893   5.572
30176SOL    HW192425  12.348   6.861   5.576
30176SOL    HW292426  12.450   6.918   5.481
30177SOL     OW92427   7.287  14.805   5.294
30177SOL    HW192428   7.344  14.794   5.371
30177SOL    HW292429   7.293   0.019   5.273
30178SOL     OW92430   3.719   9.355  14.420
30178SOL    HW192431   3.773   9.286  14.458
30178SOL    HW292432   3.752   9.436  14.461
30179SOL     OW92433   2.225   1.809   4.897
30179SOL    HW192434   2.276   1.888   4.918
30179SOL    HW292435   2.174   1.793   4.976
30180SOL     OW92436  14.624  13.549   4.816
30180SOL    HW192437  14.560  13.616   4.838
30180SOL    HW292438  14.687  13.593   4.759
30181SOL     OW92439   5.655   6.517   5.734
30181SOL    HW192440   5.636   6.570   5.812
30181SOL    HW292441   5.681   6.432   5.769
30182SOL     OW92442   3.180   7.903   7.781
30182SOL    HW192443   3.248   7.891   7.714
30182SOL    HW292444   3.098   7.884   7.736
30183SOL     OW92445  12.757   8.490   4.735
30183SOL    HW192446  12.793   8.495   4.824
30183SOL    HW292447  12.806   8.420   4.693
30184SOL     OW92448  11.830   9.543  10.040
30184SOL    HW192449  11.860   9.614  10.096
30184SOL    HW292450  11.894   9.540   9.969
30185SOL     OW92451  13.213   6.635  13.457
30185SOL    HW192452  13.265   6.570  13.410
30185SOL    HW292453  13.140   6.586  13.493
30186SOL     OW92454   4.403   4.589   0.275
30186SOL    HW192455   4.328   4.628   0.230
30186SOL    HW292456   4.378   4.498   0.289
30187SOL     OW92457  13.595  12.345  11.948
30187SOL    HW192458  13.574  12.253  11.959
30187SOL    HW292459  13.512  12.386  11.925
30188SOL     OW92460   6.057  10.369   5.724
30188SOL    HW192461   6.001  10.364   5.646
30188SOL    HW292462   6.009  10.425   5.784
30189SOL     OW92463  14.298  10.841   9.460
30189SOL    HW192464  14.212  10.876   9.483
30189SOL    HW292465  14.286  10.799   9.375
30190SOL     OW92466   9.648   1.756  12.342
30190SOL    HW192467   9.726   1.704  12.363
30190SOL    HW292468   9.585   1.732  12.411
30191SOL     OW92469   4.389   3.288   3.796
30191SOL    HW192470   4.346   3.374   3.791
30191SOL    HW292471   4.325   3.232   3.840
30192SOL     OW92472   4.313   7.119  10.121
30192SOL    HW192473   4.329   7.043  10.176
30192SOL    HW292474   4.389   7.122  10.062
30193SOL     OW92475   5.613  13.795   2.761
30193SOL    HW192476   5.620  13.888   2.740
30193SOL    HW292477   5.602  13.792   2.856
30194SOL     OW92478   0.583  14.828  14.338
30194SOL    HW192479   0.634   0.004  14.279
30194SOL    HW292480   0.614  14.851  14.426
30195SOL     OW92481   6.250  12.007   2.772
30195SOL    HW192482   6.190  11.934   2.756
30195SOL    HW292483   6.235  12.067   2.700
30196SOL     OW92484   9.275   7.920  11.844
30196SOL    HW192485   9.274   7.901  11.938
30196SOL    HW292486   9.205   7.865  11.808
30197SOL     OW92487   8.392   4.855   8.458
30197SOL    HW192488   8.361   4.853   8.549
30197SOL    HW292489   8.356   4.936   8.422
30198SOL     OW92490  11.165   4.809   5.170
30198SOL    HW192491  11.186   4.721   5.138
30198SOL    HW292492  11.197   4.809   5.261
30199SOL     OW92493  11.002  13.263   5.525
30199SOL    HW192494  10.960  13.182   5.496
30199SOL    HW292495  10.950  13.332   5.486
30200SOL     OW92496  10.512   3.415   0.428
30200SOL    HW192497  10.547   3.335   0.389
30200SOL    HW292498  10.458   3.385   0.500
30201SOL     OW92499   6.144  13.247  12.765
30201SOL    HW192500   6.167  13.309  12.695
30201SOL    HW292501   6.228  13.225  12.806
30202SOL     OW92502   0.404  14.173   6.460
30202SOL    HW192503   0.456  14.244   6.422
30202SOL    HW292504   0.313  14.202   6.450
30203SOL     OW92505   1.701   5.292   4.158
30203SOL    HW192506   1.688   5.205   4.122
30203SOL    HW292507   1.621   5.339   4.137
30204SOL     OW92508   8.606   9.122  10.468
30204SOL    HW192509   8.614   9.040  10.420
30204SOL    HW292510   8.637   9.189  10.407
30205SOL     OW92511  12.296   9.610  13.096
30205SOL    HW192512  12.342   9.689  13.125
30205SOL    HW292513  12.323   9.543  13.158
30206SOL     OW92514  13.084   1.080   3.461
30206SOL    HW192515  13.054   1.108   3.548
30206SOL    HW292516  13.111   0.989   3.473
30207SOL     OW92517   8.760   5.799   7.746
30207SOL    HW192518   8.733   5.890   7.759
30207SOL    HW292519   8.784   5.794   7.653
30208SOL     OW92520   7.681   9.822   7.989
30208SOL    HW192521   7.597   9.857   7.960
30208SOL    HW292522   7.684   9.839   8.083
30209SOL     OW92523  11.993   3.776   1.315
30209SOL    HW192524  12.029   3.715   1.380
30209SOL    HW292525  12.062   3.840   1.301
30210SOL     OW92526   1.016   0.515   7.306
30210SOL    HW192527   1.082   0.489   7.241
30210SOL    HW292528   1.059   0.583   7.358
30211SOL     OW92529   8.393   2.007   6.878
30211SOL    HW192530   8.347   1.940   6.929
30211SOL    HW292531   8.466   1.961   6.838
30212SOL     OW92532  13.682   5.634  10.519
30212SOL    HW192533  13.692   5.547  10.556
30212SOL    HW292534  13.723   5.693  10.583
30213SOL     OW92535  12.772  11.018   2.805
30213SOL    HW192536  12.790  10.968   2.725
30213SOL    HW292537  12.840  10.991   2.866
30214SOL     OW92538  11.945  14.033  10.888
30214SOL    HW192539  11.946  14.043  10.983
30214SOL    HW292540  11.913  13.944  10.874
30215SOL     OW92541   1.902   7.020  10.801
30215SOL    HW192542   1.986   7.063  10.818
30215SOL    HW292543   1.926   6.931  10.774
30216SOL     OW92544   5.662  13.501   7.608
30216SOL    HW192545   5.737  13.559   7.596
30216SOL    HW292546   5.673  13.433   7.541
30217SOL     OW92547   7.193   7.830  13.158
30217SOL    HW192548   7.202   7.735  13.149
30217SOL    HW292549   7.278   7.864  13.129
30218SOL     OW92550   2.559   7.822  12.797
30218SOL    HW192551   2.623   7.769  12.749
30218SOL    HW292552   2.608   7.855  12.872
30219SOL     OW92553   0.349   7.621   4.084
30219SOL    HW192554   0.292   7.544   4.078
30219SOL    HW292555   0.316   7.669   4.160
30220SOL     OW92556   1.590  10.456   2.948
30220SOL    HW192557   1.534  10.504   2.888
30220SOL    HW292558   1.662  10.425   2.894
30221SOL     OW92559   3.339  13.073   6.129
30221SOL    HW192560   3.286  13.002   6.164
30221SOL    HW292561   3.383  13.035   6.053
30222SOL     OW92562  10.209  14.308   1.650
30222SOL    HW192563  10.177  14.356   1.574
30222SOL    HW292564  10.297  14.280   1.625
30223SOL     OW92565  11.205   3.877   5.758
30223SOL    HW192566  11.133   3.816   5.748
30223SOL    HW292567  11.234   3.865   5.849
30224SOL     OW92568   4.993   5.019   6.800
30224SOL    HW192569   5.040   4.954   6.850
30224SOL    HW292570   4.915   4.973   6.767
30225SOL     OW92571   9.975   0.660   4.407
30225SOL    HW192572  10.017   0.703   4.333
30225SOL    HW292573  10.036   0.672   4.479
30226SOL     OW92574  10.491   4.495  14.355
30226SOL    HW192575  10.401   4.529  14.346
30226SOL    HW292576  10.499   4.429  14.287
30227SOL     OW92577  14.728  11.855   1.254
30227SOL    HW192578  14.807  11.807   1.227
30227SOL    HW292579  14.660  11.827   1.192
30228SOL     OW92580   5.226   7.368   2.804
30228SOL    HW192581   5.196   7.394   2.891
30228SOL    HW292582   5.192   7.435   2.745
30229SOL     OW92583   5.816  13.356   9.158
30229SOL    HW192584   5.879  13.347   9.086
30229SOL    HW292585   5.732  13.332   9.119
30230SOL     OW92586   6.386   0.950   9.439
30230SOL    HW192587   6.349   1.030   9.401
30230SOL    HW292588   6.457   0.981   9.495
30231SOL     OW92589  12.801  13.919  10.860
30231SOL    HW192590  12.788  14.012  10.876
30231SOL    HW292591  12.836  13.914  10.771
30232SOL     OW92592   4.230   4.682  13.674
30232SOL    HW192593   4.299   4.736  13.636
30232SOL    HW292594   4.225   4.710  13.765
30233SOL     OW92595   4.697   3.076  13.455
30233SOL    HW192596   4.650   3.057  13.536
30233SOL    HW292597   4.650   3.150  13.417
30234SOL     OW92598   8.902   4.215  11.073
30234SOL    HW192599   8.837   4.145  11.066
30234SOL    HW292600   8.971   4.189  11.012
30235SOL     OW92601   3.505   3.597  11.014
30235SOL    HW192602   3.467   3.641  11.090
30235SOL    HW292603   3.467   3.642  10.939
30236SOL     OW92604   7.004   7.856  10.070
30236SOL    HW192605   6.956   7.939  10.079
30236SOL    HW292606   7.082   7.879  10.020
30237SOL     OW92607   3.337  13.387  11.987
30237SOL    HW192608   3.246  13.380  11.960
30237SOL    HW292609   3.346  13.324  12.059
30238SOL     OW92610   2.888  13.933   2.590
30238SOL    HW192611   2.926  13.983   2.662
30238SOL    HW292612   2.851  13.998   2.531
30239SOL     OW92613   1.212   4.000  11.955
30239SOL    HW192614   1.190   4.038  11.870
30239SOL    HW292615   1.132   3.956  11.983
30240SOL     OW92616  14.328   0.902   5.107
30240SOL    HW192617  14.423   0.893   5.114
30240SOL    HW292618  14.299   0.819   5.069
30241SOL     OW92619  11.946   8.040   5.336
30241SOL    HW192620  11.901   8.117   5.371
30241SOL    HW292621  11.899   8.018   5.256
30242SOL     OW92622   5.153   8.355  13.481
30242SOL    HW192623   5.238   8.384  13.512
30242SOL    HW292624   5.111   8.316  13.558
30243SOL     OW92625   5.642   7.072  10.276
30243SOL    HW192626   5.605   6.984  10.271
30243SOL    HW292627   5.566   7.130  10.277
30244SOL     OW92628  11.478   7.088   5.805
30244SOL    HW192629  11.543   7.028   5.842
30244SOL    HW292630  11.506   7.100   5.714
30245SOL     OW92631  12.126  14.037   2.168
30245SOL    HW192632  12.140  14.129   2.189
30245SOL    HW292633  12.103  14.037   2.075
30246SOL     OW92634   3.942   9.003   7.461
30246SOL    HW192635   3.903   8.926   7.420
30246SOL    HW292636   3.966   8.974   7.550
30247SOL     OW92637   0.479   4.257  13.136
30247SOL    HW192638   0.542   4.299  13.194
30247SOL    HW292639   0.411   4.323  13.124
30248SOL     OW92640   9.569   5.523  10.137
30248SOL    HW192641   9.648   5.575  10.120
30248SOL    HW292642   9.583   5.443  10.086
30249SOL     OW92643  10.638   5.099   6.239
30249SOL    HW192644  10.723   5.061   6.218
30249SOL    HW292645  10.579   5.066   6.171
30250SOL     OW92646   1.824  10.637   8.505
30250SOL    HW192647   1.821  10.726   8.469
30250SOL    HW292648   1.854  10.583   8.432
30251SOL     OW92649  13.465   8.461   6.423
30251SOL    HW192650  13.472   8.512   6.503
30251SOL    HW292651  13.551   8.470   6.381
30252SOL     OW92652   0.202   0.398  10.781
30252SOL    HW192653   0.245   0.396  10.695
30252SOL    HW292654   0.274   0.410  10.843
30253SOL     OW92655   7.032   2.421   2.845
30253SOL    HW192656   7.042   2.411   2.751
30253SOL    HW292657   7.101   2.367   2.883
30254SOL     OW92658  13.677   6.396   2.119
30254SOL    HW192659  13.760   6.376   2.076
30254SOL    HW292660  13.661   6.321   2.177
30255SOL     OW92661   4.197   1.151   8.057
30255SOL    HW192662   4.241   1.068   8.076
30255SOL    HW292663   4.172   1.144   7.965
30256SOL     OW92664   3.927   3.548   1.946
30256SOL    HW192665   3.896   3.554   1.856
30256SOL    HW292666   3.980   3.468   1.948
30257SOL     OW92667   9.798  12.278  11.451
30257SOL    HW192668   9.748  12.252  11.374
30257SOL    HW292669   9.755  12.359  11.480
30258SOL     OW92670   4.947   5.273  14.381
30258SOL    HW192671   4.935   5.184  14.348
30258SOL    HW292672   4.858   5.304  14.398
30259SOL     OW92673   5.225   7.527   9.156
30259SOL    HW192674   5.245   7.488   9.241
30259SOL    HW292675   5.155   7.589   9.174
30260SOL     OW92676   6.211   2.652   1.168
30260SOL    HW192677   6.180   2.633   1.256
30260SOL    HW292678   6.212   2.747   1.162
30261SOL     OW92679  14.577  11.283  12.176
30261SOL    HW192680  14.639  11.245  12.115
30261SOL    HW292681  14.630  11.314  12.249
30262SOL     OW92682   1.441   2.698  10.468
30262SOL    HW192683   1.492   2.622  10.495
30262SOL    HW292684   1.441   2.756  10.544
30263SOL     OW92685   5.930   3.338   9.875
30263SOL    HW192686   5.909   3.432   9.874
30263SOL    HW292687   5.868   3.300   9.937
30264SOL     OW92688  14.306   9.595   5.985
30264SOL    HW192689  14.263   9.603   6.070
30264SOL    HW292690  14.256   9.527   5.939
30265SOL     OW92691   1.059  12.141  12.801
30265SOL    HW192692   1.030  12.111  12.888
30265SOL    HW292693   0.979  12.141  12.748
30266SOL     OW92694  14.079   6.363   4.749
30266SOL    HW192695  13.999   6.361   4.696
30266SOL    HW292696  14.052   6.403   4.832
30267SOL     OW92697  11.086   5.632  11.671
30267SOL    HW192698  11.100   5.594  11.757
30267SOL    HW292699  11.085   5.557  11.611
30268SOL     OW92700   6.329   0.896   8.287
30268SOL    HW192701   6.394   0.967   8.292
30268SOL    HW292702   6.284   0.899   8.371
30269SOL     OW92703   5.976   4.975   8.151
30269SOL    HW192704   5.967   5.049   8.091
30269SOL    HW292705   5.994   5.015   8.236
30270SOL     OW92706   5.647  11.099   4.394
30270SOL    HW192707   5.729  11.052   4.377
30270SOL    HW292708   5.636  11.093   4.489
30271SOL     OW92709   1.176   6.871   3.971
30271SOL    HW192710   1.206   6.922   4.046
30271SOL    HW292711   1.201   6.923   3.894
30272SOL     OW92712   7.370  13.232   8.127
30272SOL    HW192713   7.329  13.291   8.064
30272SOL    HW292714   7.302  13.168   8.147
30273SOL     OW92715  10.569  12.864   8.749
30273SOL    HW192716  10.627  12.914   8.691
30273SOL    HW292717  10.512  12.929   8.788
30274SOL     OW92718  14.238  11.440   2.583
30274SOL    HW192719  14.174  11.371   2.602
30274SOL    HW292720  14.298  11.439   2.657
30275SOL     OW92721  12.523   3.107   6.873
30275SOL    HW192722  12.487   3.084   6.958
30275SOL    HW292723  12.601   3.159   6.892
30276SOL     OW92724  13.152   7.455  10.909
30276SOL    HW192725  13.145   7.544  10.942
30276SOL    HW292726  13.241   7.450  10.872
30277SOL     OW92727  10.434   1.761   6.959
30277SOL    HW192728  10.369   1.794   7.022
30277SOL    HW292729  10.508   1.821   6.967
30278SOL     OW92730   0.877   2.324  14.739
30278SOL    HW192731   0.869   2.418  14.755
30278SOL    HW292732   0.799   2.301  14.689
30279SOL     OW92733   9.985   0.732   9.194
30279SOL    HW192734  10.024   0.817   9.213
30279SOL    HW292735   9.911   0.725   9.255
30280SOL     OW92736   9.338   3.910   8.774
30280SOL    HW192737   9.317   3.900   8.867
30280SOL    HW292738   9.331   3.822   8.738
30281SOL     OW92739   9.145   3.725  14.111
30281SOL    HW192740   9.050   3.711  14.114
30281SOL    HW292741   9.180   3.648  14.068
30282SOL     OW92742  10.167   6.053   6.104
30282SOL    HW192743  10.251   6.072   6.063
30282SOL    HW292744  10.108   6.122   6.073
30283SOL     OW92745  10.208   5.107  12.923
30283SOL    HW192746  10.252   5.033  12.881
30283SOL    HW292747  10.114   5.090  12.908
30284SOL     OW92748   2.376   2.780   3.307
30284SOL    HW192749   2.370   2.875   3.310
30284SOL    HW292750   2.466   2.760   3.334
30285SOL     OW92751  12.238   6.732   5.072
30285SOL    HW192752  12.333   6.744   5.064
30285SOL    HW292753  12.202   6.821   5.065
30286SOL     OW92754   8.343  13.986   9.733
30286SOL    HW192755   8.300  13.983   9.819
30286SOL    HW292756   8.393  14.068   9.733
30287SOL     OW92757   7.259  14.535  13.519
30287SOL    HW192758   7.343  14.579  13.526
30287SOL    HW292759   7.198  14.604  13.491
30288SOL     OW92760   8.053   9.087   8.804
30288SOL    HW192761   8.102   9.158   8.764
30288SOL    HW292762   8.017   9.037   8.731
30289SOL     OW92763   5.129  10.991   4.511
30289SOL    HW192764   5.151  10.902   4.483
30289SOL    HW292765   5.108  11.037   4.430
30290SOL     OW92766  11.628  10.609  11.584
30290SOL    HW192767  11.712  10.627  11.627
30290SOL    HW292768  11.583  10.693  11.582
30291SOL     OW92769   5.321   6.927   9.634
30291SOL    HW192770   5.402   6.915   9.684
30291SOL    HW292771   5.256   6.874   9.681
30292SOL     OW92772   8.265   1.223  12.405
30292SOL    HW192773   8.173   1.236  12.380
30292SOL    HW292774   8.315   1.270  12.339
30293SOL     OW92775   5.192  11.343   7.887
30293SOL    HW192776   5.253  11.312   7.821
30293SOL    HW292777   5.178  11.268   7.945
30294SOL     OW92778   1.971  14.093   3.116
30294SOL    HW192779   1.947  14.159   3.181
30294SOL    HW292780   2.065  14.077   3.132
30295SOL     OW92781   4.238  13.613   2.816
30295SOL    HW192782   4.185  13.535   2.831
30295SOL    HW292783   4.327  13.587   2.840
30296SOL     OW92784   6.681  13.446   3.659
30296SOL    HW192785   6.728  13.530   3.657
30296SOL    HW292786   6.591  13.470   3.682
30297SOL     OW92787   7.454   9.645   8.416
30297SOL    HW192788   7.455   9.691   8.500
30297SOL    HW292789   7.396   9.697   8.361
30298SOL     OW92790  14.190   0.881   2.993
30298SOL    HW192791  14.190   0.787   2.971
30298SOL    HW292792  14.221   0.884   3.084
30299SOL     OW92793   9.962   8.610   6.870
30299SOL    HW192794  10.022   8.619   6.797
30299SOL    HW292795   9.979   8.686   6.925
30300SOL     OW92796   4.117   2.463   2.556
30300SOL    HW192797   4.087   2.537   2.609
30300SOL    HW292798   4.037   2.415   2.535
30301SOL     OW92799   3.634   3.525   1.812
30301SOL    HW192800   3.708   3.517   1.751
30301SOL    HW292801   3.570   3.578   1.765
30302SOL     OW92802  12.109  11.819  14.376
30302SOL    HW192803  12.140  11.883  14.439
30302SOL    HW292804  12.175  11.821  14.306
30303SOL     OW92805  11.262   0.574  13.394
30303SOL    HW192806  11.257   0.668  13.376
30303SOL    HW292807  11.171   0.544  13.393
30304SOL     OW92808   8.811  11.228  14.598
30304SOL    HW192809   8.836  11.210  14.689
30304SOL    HW292810   8.834  11.319  14.584
30305SOL     OW92811   8.306   0.889  10.807
30305SOL    HW192812   8.388   0.918  10.846
30305SOL    HW292813   8.330   0.814  10.752
30306SOL     OW92814  11.246  11.945  10.804
30306SOL    HW192815  11.334  11.973  10.779
30306SOL    HW292816  11.203  12.025  10.833
30307SOL     OW92817   1.120   0.867  12.474
30307SOL    HW192818   1.113   0.804  12.545
30307SOL    HW292819   1.149   0.816  12.399
30308SOL     OW92820   9.140   7.054  12.643
30308SOL    HW192821   9.056   7.054  12.595
30308SOL    HW292822   9.117   7.083  12.731
30309SOL     OW92823  12.814   0.440   4.345
30309SOL    HW192824  12.719   0.437   4.333
30309SOL    HW292825  12.832   0.529   4.373
30310SOL     OW92826  11.417   1.558   3.414
30310SOL    HW192827  11.342   1.499   3.426
30310SOL    HW292828  11.409   1.622   3.484
30311SOL     OW92829  11.144  11.386   8.300
30311SOL    HW192830  11.073  11.448   8.313
30311SOL    HW292831  11.173  11.400   8.210
30312SOL     OW92832   5.445  12.440   7.702
30312SOL    HW192833   5.356  12.421   7.729
30312SOL    HW292834   5.456  12.534   7.719
30313SOL     OW92835  14.239   1.576  13.561
30313SOL    HW192836  14.169   1.522  13.597
30313SOL    HW292837  14.311   1.567  13.623
30314SOL     OW92838   8.912   9.537   8.400
30314SOL    HW192839   8.904   9.617   8.348
30314SOL    HW292840   9.003   9.511   8.390
30315SOL     OW92841   1.969  14.509   4.607
30315SOL    HW192842   1.904  14.448   4.643
30315SOL    HW292843   1.938  14.595   4.634
30316SOL     OW92844   3.223   8.641   5.291
30316SOL    HW192845   3.213   8.598   5.376
30316SOL    HW292846   3.220   8.569   5.228
30317SOL     OW92847   8.866  14.417   4.991
30317SOL    HW192848   8.875  14.400   4.898
30317SOL    HW292849   8.917  14.497   5.006
30318SOL     OW92850   9.798  14.316   8.317
30318SOL    HW192851   9.870  14.377   8.299
30318SOL    HW292852   9.732  14.369   8.361
30319SOL     OW92853  12.126  10.904   4.943
30319SOL    HW192854  12.057  10.840   4.932
30319SOL    HW292855  12.092  10.984   4.902
30320SOL     OW92856   0.566  11.677  14.163
30320SOL    HW192857   0.548  11.585  14.144
30320SOL    HW292858   0.498  11.724  14.115
30321SOL     OW92859  11.523   9.186  10.907
30321SOL    HW192860  11.565   9.183  10.993
30321SOL    HW292861  11.526   9.096  10.874
30322SOL     OW92862   4.934   1.205  14.339
30322SOL    HW192863   5.001   1.154  14.293
30322SOL    HW292864   4.960   1.201  14.431
30323SOL     OW92865   9.961  11.197  11.183
30323SOL    HW192866  10.005  11.131  11.238
30323SOL    HW292867  10.009  11.195  11.100
30324SOL     OW92868  10.848   1.463   4.557
30324SOL    HW192869  10.850   1.436   4.648
30324SOL    HW292870  10.883   1.552   4.558
30325SOL     OW92871   1.891   3.456  11.428
30325SOL    HW192872   1.942   3.375  11.424
30325SOL    HW292873   1.836   3.454  11.350
30326SOL     OW92874  12.441   0.350   8.543
30326SOL    HW192875  12.535   0.329   8.548
30326SOL    HW292876  12.411   0.309   8.462
30327SOL     OW92877   7.536  12.603   5.314
30327SOL    HW192878   7.457  12.558   5.345
30327SOL    HW292879   7.536  12.687   5.360
30328SOL     OW92880   2.129   3.325   2.445
30328SOL    HW192881   2.149   3.363   2.531
30328SOL    HW292882   2.189   3.369   2.385
30329SOL     OW92883   1.072   0.433   8.636
30329SOL    HW192884   1.096   0.458   8.547
30329SOL    HW292885   0.976   0.440   8.637
30330SOL     OW92886   3.469   3.056   2.881
30330SOL    HW192887   3.424   3.141   2.886
30330SOL    HW292888   3.410   2.995   2.925
30331SOL     OW92889   4.096   1.531   3.909
30331SOL    HW192890   4.110   1.621   3.879
30331SOL    HW292891   4.002   1.516   3.900
30332SOL     OW92892   9.506  14.726  11.852
30332SOL    HW192893   9.596  14.739  11.822
30332SOL    HW292894   9.512  14.662  11.922
30333SOL     OW92895   8.971   6.597   0.357
30333SOL    HW192896   9.003   6.524   0.304
30333SOL    HW292897   8.878   6.604   0.335
30334SOL     OW92898   5.393   0.956   3.494
30334SOL    HW192899   5.353   0.970   3.408
30334SOL    HW292900   5.475   0.909   3.475
30335SOL     OW92901  11.436   5.164   2.571
30335SOL    HW192902  11.424   5.082   2.619
30335SOL    HW292903  11.501   5.213   2.622
30336SOL     OW92904  11.137   2.170  13.643
30336SOL    HW192905  11.212   2.159  13.585
30336SOL    HW292906  11.116   2.082  13.673
30337SOL     OW92907   4.351  10.612   2.012
30337SOL    HW192908   4.278  10.650   1.964
30337SOL    HW292909   4.420  10.603   1.947
30338SOL     OW92910   2.586   1.141  14.610
30338SOL    HW192911   2.515   1.085  14.580
30338SOL    HW292912   2.609   1.107  14.696
30339SOL     OW92913   6.390   1.162  11.298
30339SOL    HW192914   6.463   1.132  11.353
30339SOL    HW292915   6.318   1.175  11.360
30340SOL     OW92916   5.044  14.662   5.913
30340SOL    HW192917   5.093  14.604   5.855
30340SOL    HW292918   4.963  14.681   5.865
30341SOL     OW92919   9.489  12.326  13.342
30341SOL    HW192920   9.426  12.294  13.279
30341SOL    HW292921   9.444  12.398  13.387
30342SOL     OW92922  11.855   2.451  11.831
30342SOL    HW192923  11.891   2.492  11.752
30342SOL    HW292924  11.823   2.524  11.883
30343SOL     OW92925  10.622   1.357   8.643
30343SOL    HW192926  10.636   1.329   8.553
30343SOL    HW292927  10.709   1.383   8.674
30344SOL     OW92928  10.613  14.736   2.830
30344SOL    HW192929  10.561  14.702   2.902
30344SOL    HW292930  10.634  14.659   2.777
30345SOL     OW92931   6.902   4.606  11.038
30345SOL    HW192932   6.975   4.577  10.984
30345SOL    HW292933   6.900   4.545  11.112
30346SOL     OW92934   6.931   9.350   3.372
30346SOL    HW192935   6.953   9.434   3.411
30346SOL    HW292936   7.009   9.296   3.384
30347SOL     OW92937   2.012   0.164   3.976
30347SOL    HW192938   2.054   0.103   4.037
30347SOL    HW292939   2.070   0.240   3.975
30348SOL     OW92940   6.263  11.252   1.328
30348SOL    HW192941   6.230  11.320   1.270
30348SOL    HW292942   6.317  11.298   1.392
30349SOL     OW92943  10.406   9.383   1.664
30349SOL    HW192944  10.328   9.411   1.712
30349SOL    HW292945  10.372   9.335   1.589
30350SOL     OW92946   6.553   3.020  13.068
30350SOL    HW192947   6.612   2.954  13.031
30350SOL    HW292948   6.469   2.975  13.076
30351SOL     OW92949   3.400  14.725   2.268
30351SOL    HW192950   3.359  14.780   2.202
30351SOL    HW292951   3.336  14.720   2.339
30352SOL     OW92952  14.150   2.086   9.838
30352SOL    HW192953  14.177   2.124   9.922
30352SOL    HW292954  14.165   1.992   9.848
30353SOL     OW92955   8.506  11.480   3.954
30353SOL    HW192956   8.432  11.500   4.012
30353SOL    HW292957   8.465  11.453   3.872
30354SOL     OW92958   5.537   0.692   5.561
30354SOL    HW192959   5.462   0.662   5.612
30354SOL    HW292960   5.540   0.633   5.486
30355SOL     OW92961   4.233   2.615   6.282
30355SOL    HW192962   4.212   2.522   6.267
30355SOL    HW292963   4.327   2.621   6.264
30356SOL     OW92964   5.352   8.722   8.441
30356SOL    HW192965   5.408   8.746   8.367
30356SOL    HW292966   5.312   8.639   8.415
30357SOL     OW92967   5.234   4.188   8.791
30357SOL    HW192968   5.271   4.125   8.730
30357SOL    HW292969   5.265   4.160   8.877
30358SOL     OW92970   3.437   6.902   2.761
30358SOL    HW192971   3.355   6.922   2.715
30358SOL    HW292972   3.425   6.812   2.791
30359SOL     OW92973   8.724   5.894  13.863
30359SOL    HW192974   8.730   5.959  13.933
30359SOL    HW292975   8.739   5.810  13.906
30360SOL     OW92976   4.016   9.586   8.595
30360SOL    HW192977   4.021   9.634   8.512
30360SOL    HW292978   4.047   9.498   8.574
30361SOL     OW92979  10.464   9.672   1.334
30361SOL    HW192980  10.476   9.602   1.271
30361SOL    HW292981  10.500   9.750   1.291
30362SOL     OW92982  12.318   6.682  11.003
30362SOL    HW192983  12.314   6.740  10.926
30362SOL    HW292984  12.227   6.667  11.026
30363SOL     OW92985   3.445   5.777  11.865
30363SOL    HW192986   3.526   5.783  11.814
30363SOL    HW292987   3.473   5.750  11.952
30364SOL     OW92988   1.843   4.400   4.636
30364SOL    HW192989   1.834   4.484   4.681
30364SOL    HW292990   1.928   4.367   4.663
30365SOL     OW92991  11.568   3.135  13.733
30365SOL    HW192992  11.516   3.094  13.802
30365SOL    HW292993  11.575   3.068  13.666
30366SOL     OW92994   0.660  11.191   4.045
30366SOL    HW192995   0.718  11.155   4.113
30366SOL    HW292996   0.691  11.280   4.033
30367SOL     OW92997   4.724   6.291   0.248
30367SOL    HW192998   4.690   6.225   0.188
30367SOL    HW292999   4.650   6.311   0.306
30368SOL     OW93000  13.629   7.720  13.798
30368SOL    HW193001  13.553   7.687  13.846
30368SOL    HW293002  13.595   7.794  13.748
30369SOL     OW93003   3.604  12.523   9.464
30369SOL    HW193004   3.689  12.484   9.443
30369SOL    HW293005   3.618  12.617   9.458
30370SOL     OW93006   0.644  10.672   1.031
30370SOL    HW193007   0.648  10.634   1.119
30370SOL    HW293008   0.609  10.601   0.977
30371SOL     OW93009   3.490  10.580   1.370
30371SOL    HW193010   3.472  10.631   1.291
30371SOL    HW293011   3.564  10.525   1.346
30372SOL     OW93012  11.394   8.621  14.843
30372SOL    HW193013  11.448   8.591   0.037
30372SOL    HW293014  11.350   8.542  14.811
30373SOL     OW93015   4.129   8.644   3.911
30373SOL    HW193016   4.087   8.706   3.970
30373SOL    HW293017   4.153   8.570   3.966
30374SOL     OW93018   0.100   7.458   1.263
30374SOL    HW193019   0.039   7.530   1.253
30374SOL    HW293020   0.167   7.491   1.322
30375SOL     OW93021   2.252  13.810  11.361
30375SOL    HW193022   2.228  13.827  11.269
30375SOL    HW293023   2.327  13.752  11.356
30376SOL     OW93024   2.231   4.338   3.698
30376SOL    HW193025   2.236   4.424   3.656
30376SOL    HW293026   2.149   4.341   3.748
30377SOL     OW93027  14.538   4.147   9.936
30377SOL    HW193028  14.626   4.179   9.916
30377SOL    HW293029  14.535   4.060   9.895
30378SOL     OW93030   0.033   2.048  14.163
30378SOL    HW193031   0.085   1.972  14.138
30378SOL    HW293032   0.094   2.104  14.211
30379SOL     OW93033   3.399   8.149   5.447
30379SOL    HW193034   3.319   8.170   5.496
30379SOL    HW293035   3.369   8.100   5.371
30380SOL     OW93036   0.563   1.669   1.111
30380SOL    HW193037   0.617   1.599   1.075
30380SOL    HW293038   0.591   1.747   1.064
30381SOL     OW93039   9.761  12.351   4.622
30381SOL    HW193040   9.765  12.446   4.632
30381SOL    HW293041   9.690  12.337   4.559
30382SOL     OW93042   2.562  10.071   6.372
30382SOL    HW193043   2.629  10.007   6.350
30382SOL    HW293044   2.573  10.087   6.465
30383SOL     OW93045   8.000   1.535   7.472
30383SOL    HW193046   7.965   1.623   7.482
30383SOL    HW293047   7.923   1.479   7.462
30384SOL     OW93048  10.366   6.487   6.447
30384SOL    HW193049  10.346   6.534   6.367
30384SOL    HW293050  10.426   6.417   6.419
30385SOL     OW93051   4.931  13.069   7.292
30385SOL    HW193052   4.855  13.062   7.351
30385SOL    HW293053   4.988  12.997   7.318
30386SOL     OW93054  10.842   5.499   4.664
30386SOL    HW193055  10.915   5.554   4.693
30386SOL    HW293056  10.856   5.415   4.707
30387SOL     OW93057   1.145   7.269   4.610
30387SOL    HW193058   1.077   7.246   4.672
30387SOL    HW293059   1.207   7.196   4.613
30388SOL     OW93060  11.127   9.788  10.918
30388SOL    HW193061  11.127   9.817  10.827
30388SOL    HW293062  11.147   9.868  10.968
30389SOL     OW93063  11.500   0.590   3.882
30389SOL    HW193064  11.527   0.682   3.881
30389SOL    HW293065  11.576   0.543   3.846
30390SOL     OW93066   4.218   9.499   8.067
30390SOL    HW193067   4.266   9.453   8.135
30390SOL    HW293068   4.272   9.576   8.048
30391SOL     OW93069   8.965   0.450  13.386
30391SOL    HW193070   8.993   0.384  13.449
30391SOL    HW293071   8.988   0.533  13.428
30392SOL     OW93072   2.571   0.877   9.594
30392SOL    HW193073   2.545   0.839   9.510
30392SOL    HW293074   2.498   0.860   9.653
30393SOL     OW93075  14.202  11.522   6.395
30393SOL    HW193076  14.162  11.560   6.316
30393SOL    HW293077  14.279  11.476   6.363
30394SOL     OW93078  12.692  10.034   2.788
30394SOL    HW193079  12.732   9.995   2.710
30394SOL    HW293080  12.604   9.996   2.791
30395SOL     OW93081   1.285  11.749   0.986
30395SOL    HW193082   1.269  11.842   1.003
30395SOL    HW293083   1.380  11.742   0.979
30396SOL     OW93084   7.951   7.995   5.717
30396SOL    HW193085   7.937   8.049   5.795
30396SOL    HW293086   7.893   7.920   5.728
30397SOL     OW93087  10.888  10.367   5.054
30397SOL    HW193088  10.976  10.342   5.081
30397SOL    HW293089  10.840  10.381   5.136
30398SOL     OW93090   7.703   5.206   4.210
30398SOL    HW193091   7.670   5.295   4.211
30398SOL    HW293092   7.640   5.157   4.158
30399SOL     OW93093   1.618   5.011  13.884
30399SOL    HW193094   1.680   4.961  13.832
30399SOL    HW293095   1.659   5.017  13.970
30400SOL     OW93096  12.730  12.767  10.706
30400SOL    HW193097  12.664  12.756  10.774
30400SOL    HW293098  12.814  12.759  10.752
30401SOL     OW93099   4.131   1.467  13.605
30401SOL    HW193100   4.158   1.544  13.656
30401SOL    HW293101   4.035   1.470  13.606
30402SOL     OW93102   7.643   0.672   9.482
30402SOL    HW193103   7.656   0.754   9.530
30402SOL    HW293104   7.697   0.682   9.403
30403SOL     OW93105   4.921   5.960   3.375
30403SOL    HW193106   4.998   5.926   3.420
30403SOL    HW293107   4.886   5.885   3.328
30404SOL     OW93108   3.293   1.707   2.039
30404SOL    HW193109   3.307   1.801   2.047
30404SOL    HW293110   3.278   1.692   1.945
30405SOL     OW93111   8.801   0.933  10.505
30405SOL    HW193112   8.797   0.965  10.415
30405SOL    HW293113   8.828   1.009  10.556
30406SOL     OW93114   3.395   9.961   1.659
30406SOL    HW193115   3.319   9.994   1.706
30406SOL    HW293116   3.425   9.887   1.712
30407SOL     OW93117   2.385   3.496   0.482
30407SOL    HW193118   2.474   3.458   0.486
30407SOL    HW293119   2.328   3.423   0.505
30408SOL     OW93120   8.567   4.267   2.353
30408SOL    HW193121   8.559   4.176   2.326
30408SOL    HW293122   8.654   4.293   2.325
30409SOL     OW93123   0.665  13.669   2.933
30409SOL    HW193124   0.587  13.710   2.969
30409SOL    HW293125   0.631  13.597   2.879
30410SOL     OW93126   8.615  11.209   8.574
30410SOL    HW193127   8.547  11.148   8.546
30410SOL    HW293128   8.695  11.157   8.573
30411SOL     OW93129  10.502   2.474   3.943
30411SOL    HW193130  10.432   2.423   3.984
30411SOL    HW293131  10.459   2.518   3.870
30412SOL     OW93132  10.472   8.411   8.624
30412SOL    HW193133  10.534   8.349   8.663
30412SOL    HW293134  10.458   8.380   8.535
30413SOL     OW93135   6.653   0.632   6.102
30413SOL    HW193136   6.664   0.557   6.159
30413SOL    HW293137   6.715   0.617   6.030
30414SOL     OW93138   1.348   8.290  14.455
30414SOL    HW193139   1.435   8.313  14.488
30414SOL    HW293140   1.288   8.333  14.516
30415SOL     OW93141   2.159   8.735  10.968
30415SOL    HW193142   2.200   8.767  10.888
30415SOL    HW293143   2.132   8.815  11.015
30416SOL     OW93144   8.779   4.811   7.186
30416SOL    HW193145   8.766   4.888   7.242
30416SOL    HW293146   8.711   4.750   7.213
30417SOL     OW93147  13.610   7.550   1.604
30417SOL    HW193148  13.541   7.512   1.549
30417SOL    HW293149  13.649   7.474   1.649
30418SOL     OW93150   1.672   8.072   9.119
30418SOL    HW193151   1.676   8.023   9.201
30418SOL    HW293152   1.665   8.164   9.147
30419SOL     OW93153   3.072   6.026   9.834
30419SOL    HW193154   3.006   6.077   9.788
30419SOL    HW293155   3.114   5.974   9.765
30420SOL     OW93156   2.229   2.635  12.078
30420SOL    HW193157   2.152   2.630  12.134
30420SOL    HW293158   2.208   2.701  12.013
30421SOL     OW93159  13.758   0.315  13.361
30421SOL    HW193160  13.674   0.361  13.370
30421SOL    HW293161  13.758   0.284  13.270
30422SOL     OW93162   2.734  14.040   3.801
30422SOL    HW193163   2.696  13.961   3.840
30422SOL    HW293164   2.704  14.038   3.710
30423SOL     OW93165   7.250   3.172  11.575
30423SOL    HW193166   7.280   3.259  11.599
30423SOL    HW293167   7.316   3.113  11.612
30424SOL     OW93168   3.171   1.892   3.097
30424SOL    HW193169   3.153   1.946   3.174
30424SOL    HW293170   3.109   1.819   3.104
30425SOL     OW93171  14.625   7.320   1.159
30425SOL    HW193172  14.640   7.316   1.253
30425SOL    HW293173  14.574   7.242   1.139
30426SOL     OW93174  11.629   6.977  14.038
30426SOL    HW193175  11.665   6.901  13.992
30426SOL    HW293176  11.673   6.978  14.123
30427SOL     OW93177   4.474   5.486  14.603
30427SOL    HW193178   4.481   5.526  14.516
30427SOL    HW293179   4.436   5.554  14.658
30428SOL     OW93180   2.897  11.367  13.561
30428SOL    HW193181   2.847  11.341  13.639
30428SOL    HW293182   2.954  11.438  13.591
30429SOL     OW93183   9.480   5.538   9.629
30429SOL    HW193184   9.550   5.561   9.690
30429SOL    HW293185   9.408   5.508   9.685
30430SOL     OW93186   4.649   2.976   0.135
30430SOL    HW193187   4.692   2.970   0.220
30430SOL    HW293188   4.579   2.911   0.139
30431SOL     OW93189   5.429  13.405  14.385
30431SOL    HW193190   5.506  13.362  14.348
30431SOL    HW293191   5.460  13.492  14.411
30432SOL     OW93192   3.704  14.357   4.532
30432SOL    HW193193   3.780  14.347   4.475
30432SOL    HW293194   3.647  14.419   4.486
30433SOL     OW93195   0.030   9.787  10.303
30433SOL    HW193196   0.113   9.749  10.332
30433SOL    HW293197   0.053   9.841  10.228
30434SOL     OW93198   9.380   1.885   3.518
30434SOL    HW193199   9.372   1.814   3.582
30434SOL    HW293200   9.473   1.910   3.523
30435SOL     OW93201   2.530  11.805   4.224
30435SOL    HW193202   2.584  11.795   4.303
30435SOL    HW293203   2.570  11.878   4.178
30436SOL     OW93204   2.027   2.050  11.802
30436SOL    HW193205   2.112   2.087  11.827
30436SOL    HW293206   2.025   2.057  11.706
30437SOL     OW93207   4.542   1.906  11.710
30437SOL    HW193208   4.539   2.001  11.693
30437SOL    HW293209   4.589   1.870  11.635
30438SOL     OW93210   2.408  11.609   8.171
30438SOL    HW193211   2.452  11.677   8.119
30438SOL    HW293212   2.458  11.529   8.152
30439SOL     OW93213  10.533  14.670   2.050
30439SOL    HW193214  10.588  14.744   2.074
30439SOL    HW293215  10.592  14.594   2.054
30440SOL     OW93216  14.754   9.374   5.701
30440SOL    HW193217  14.660   9.384   5.715
30440SOL    HW293218  14.771   9.281   5.716
30441SOL     OW93219   4.014   5.622   0.818
30441SOL    HW193220   4.084   5.646   0.879
30441SOL    HW293221   3.954   5.696   0.821
30442SOL     OW93222  13.029   6.986   9.009
30442SOL    HW193223  13.029   7.068   9.059
30442SOL    HW293224  12.960   6.934   9.051
30443SOL     OW93225  12.725  11.884  13.706
30443SOL    HW193226  12.643  11.837  13.721
30443SOL    HW293227  12.719  11.914  13.615
30444SOL     OW93228  10.630   9.998  14.706
30444SOL    HW193229  10.620   9.903  14.698
30444SOL    HW293230  10.724  10.013  14.709
30445SOL     OW93231  12.777  10.660  10.931
30445SOL    HW193232  12.850  10.653  10.870
30445SOL    HW293233  12.737  10.745  10.912
30446SOL     OW93234  12.017   5.099   3.281
30446SOL    HW193235  11.968   5.165   3.233
30446SOL    HW293236  11.990   5.016   3.243
30447SOL     OW93237   0.475   3.300   5.154
30447SOL    HW193238   0.461   3.320   5.061
30447SOL    HW293239   0.398   3.248   5.179
30448SOL     OW93240   3.964  10.120   4.962
30448SOL    HW193241   4.053  10.086   4.966
30448SOL    HW293242   3.927  10.102   5.049
30449SOL     OW93243   3.843   6.762   0.664
30449SOL    HW193244   3.907   6.701   0.627
30449SOL    HW293245   3.762   6.745   0.615
30450SOL     OW93246   4.989  10.869   1.347
30450SOL    HW193247   5.046  10.862   1.424
30450SOL    HW293248   4.968  10.962   1.341
30451SOL     OW93249   6.923   9.727   4.185
30451SOL    HW193250   7.013   9.760   4.188
30451SOL    HW293251   6.889   9.758   4.101
30452SOL     OW93252  13.842  13.649   3.002
30452SOL    HW193253  13.902  13.611   2.938
30452SOL    HW293254  13.761  13.663   2.954
30453SOL     OW93255   0.963  12.883   1.902
30453SOL    HW193256   1.057  12.898   1.901
30453SOL    HW293257   0.925  12.963   1.866
30454SOL     OW93258   2.248   6.247   4.243
30454SOL    HW193259   2.223   6.205   4.326
30454SOL    HW293260   2.305   6.320   4.270
30455SOL     OW93261  13.804   5.453  14.524
30455SOL    HW193262  13.867   5.477  14.456
30455SOL    HW293263  13.761   5.535  14.547
30456SOL     OW93264   8.268   9.441   7.812
30456SOL    HW193265   8.213   9.456   7.889
30456SOL    HW293266   8.345   9.395   7.846
30457SOL     OW93267  10.930   4.383   4.724
30457SOL    HW193268  10.959   4.292   4.723
30457SOL    HW293269  11.008   4.434   4.704
30458SOL     OW93270   4.267   6.349  10.923
30458SOL    HW193271   4.228   6.387  11.002
30458SOL    HW293272   4.340   6.295  10.956
30459SOL     OW93273   3.739  11.380   5.284
30459SOL    HW193274   3.789  11.448   5.330
30459SOL    HW293275   3.738  11.409   5.193
30460SOL     OW93276   9.685   1.734   6.521
30460SOL    HW193277   9.765   1.694   6.552
30460SOL    HW293278   9.614   1.680   6.557
30461SOL     OW93279   1.626  14.654   0.950
30461SOL    HW193280   1.556  14.664   1.015
30461SOL    HW293281   1.603  14.574   0.903
30462SOL     OW93282   4.474   6.285  10.544
30462SOL    HW193283   4.424   6.213  10.508
30462SOL    HW293284   4.485   6.263  10.637
30463SOL     OW93285   0.044   9.475   0.931
30463SOL    HW193286   0.107   9.491   1.000
30463SOL    HW293287  14.859   9.544   0.940
30464SOL     OW93288   0.755   6.498   2.800
30464SOL    HW193289   0.833   6.455   2.765
30464SOL    HW293290   0.685   6.434   2.788
30465SOL     OW93291   9.970   8.842   5.484
30465SOL    HW193292   9.997   8.796   5.564
30465SOL    HW293293  10.002   8.931   5.496
30466SOL     OW93294  14.638  13.294  14.639
30466SOL    HW193295  14.570  13.345  14.684
30466SOL    HW293296  14.712  13.354  14.631
30467SOL     OW93297   6.665   9.425   6.976
30467SOL    HW193298   6.611   9.468   6.909
30467SOL    HW293299   6.646   9.474   7.056
30468SOL     OW93300   1.519   3.792   4.492
30468SOL    HW193301   1.464   3.724   4.452
30468SOL    HW293302   1.576   3.821   4.421
30469SOL     OW93303  14.046   3.465  11.576
30469SOL    HW193304  14.071   3.473  11.484
30469SOL    HW293305  14.129   3.471  11.624
30470SOL     OW93306  14.219   3.231   7.616
30470SOL    HW193307  14.301   3.256   7.659
30470SOL    HW293308  14.151   3.281   7.662
30471SOL     OW93309   0.407   3.107   8.302
30471SOL    HW193310   0.432   3.191   8.341
30471SOL    HW293311   0.389   3.127   8.210
30472SOL     OW93312   1.146  12.162   4.317
30472SOL    HW193313   1.211  12.097   4.345
30472SOL    HW293314   1.097  12.118   4.247
30473SOL     OW93315   4.802   1.076   0.390
30473SOL    HW193316   4.880   1.084   0.446
30473SOL    HW293317   4.837   1.063   0.302
30474SOL     OW93318   0.000  14.346  11.205
30474SOL    HW193319   0.028  14.255  11.197
30474SOL    HW293320   0.041  14.377  11.286
30475SOL     OW93321   5.300   2.642   0.682
30475SOL    HW193322   5.292   2.546   0.681
30475SOL    HW293323   5.222   2.671   0.730
30476SOL     OW93324   5.584   7.639  11.584
30476SOL    HW193325   5.561   7.548  11.563
30476SOL    HW293326   5.673   7.633  11.619
30477SOL     OW93327   8.284  12.906  13.699
30477SOL    HW193328   8.257  12.985  13.651
30477SOL    HW293329   8.377  12.919  13.717
30478SOL     OW93330  13.213   7.356   3.225
30478SOL    HW193331  13.284   7.391   3.171
30478SOL    HW293332  13.242   7.268   3.247
30479SOL     OW93333   3.915  12.942   0.761
30479SOL    HW193334   3.962  12.924   0.679
30479SOL    HW293335   3.928  12.863   0.813
30480SOL     OW93336  10.268   1.333   8.286
30480SOL    HW193337  10.235   1.400   8.346
30480SOL    HW293338  10.191   1.308   8.234
30481SOL     OW93339  10.596   1.972   3.199
30481SOL    HW193340  10.682   1.939   3.173
30481SOL    HW293341  10.534   1.924   3.144
30482SOL     OW93342   7.201   9.434  10.048
30482SOL    HW193343   7.125   9.484  10.019
30482SOL    HW293344   7.218   9.466  10.137
30483SOL     OW93345  10.771   7.371   7.844
30483SOL    HW193346  10.761   7.349   7.936
30483SOL    HW293347  10.815   7.295   7.806
30484SOL     OW93348  11.670  12.837   3.723
30484SOL    HW193349  11.593  12.796   3.685
30484SOL    HW293350  11.639  12.921   3.758
30485SOL     OW93351   1.249   4.699   0.766
30485SOL    HW193352   1.225   4.725   0.855
30485SOL    HW293353   1.171   4.717   0.714
30486SOL     OW93354   9.547  11.893  11.854
30486SOL    HW193355   9.550  11.814  11.800
30486SOL    HW293356   9.618  11.882  11.917
30487SOL     OW93357   9.892   0.162   3.269
30487SOL    HW193358   9.806   0.165   3.226
30487SOL    HW293359   9.905   0.251   3.302
30488SOL     OW93360   8.330   9.829   3.411
30488SOL    HW193361   8.295   9.891   3.475
30488SOL    HW293362   8.300   9.744   3.442
30489SOL     OW93363   9.443   2.423   1.240
30489SOL    HW193364   9.361   2.428   1.289
30489SOL    HW293365   9.474   2.513   1.235
30490SOL     OW93366   6.794   4.784   7.164
30490SOL    HW193367   6.857   4.723   7.124
30490SOL    HW293368   6.838   4.869   7.159
30491SOL     OW93369   3.765   4.808   0.465
30491SOL    HW193370   3.797   4.886   0.419
30491SOL    HW293371   3.843   4.754   0.476
30492SOL     OW93372   0.030  10.049   0.982
30492SOL    HW193373  14.872   9.980   1.037
30492SOL    HW293374   0.118  10.063   1.018
30493SOL     OW93375   3.286   5.376   0.824
30493SOL    HW193376   3.376   5.379   0.857
30493SOL    HW293377   3.238   5.434   0.882
30494SOL     OW93378   1.670  14.526   4.221
30494SOL    HW193379   1.750  14.505   4.269
30494SOL    HW293380   1.697  14.536   4.130
30495SOL     OW93381   0.346   5.082  11.639
30495SOL    HW193382   0.285   5.127  11.698
30495SOL    HW293383   0.297   5.004  11.610
30496SOL     OW93384   4.761   1.880  13.881
30496SOL    HW193385   4.795   1.926  13.804
30496SOL    HW293386   4.666   1.878  13.868
30497SOL     OW93387   8.767  14.572   6.932
30497SOL    HW193388   8.699  14.508   6.910
30497SOL    HW293389   8.797  14.605   6.847
30498SOL     OW93390   6.113   7.328   6.074
30498SOL    HW193391   6.132   7.326   5.980
30498SOL    HW293392   6.019   7.339   6.080
30499SOL     OW93393  14.738   2.664   2.653
30499SOL    HW193394  14.791   2.740   2.630
30499SOL    HW293395  14.709   2.681   2.743
30500SOL     OW93396   2.112  13.201  13.256
30500SOL    HW193397   2.152  13.114  13.249
30500SOL    HW293398   2.119  13.237  13.167
30501SOL     OW93399   4.258   1.797   6.454
30501SOL    HW193400   4.244   1.847   6.534
30501SOL    HW293401   4.243   1.706   6.479
30502SOL     OW93402   1.129   6.371   3.043
30502SOL    HW193403   1.090   6.451   3.079
30502SOL    HW293404   1.198   6.348   3.106
30503SOL     OW93405   9.519   2.479  11.506
30503SOL    HW193406   9.543   2.451  11.595
30503SOL    HW293407   9.501   2.572  11.514
30504SOL     OW93408  12.144   9.318   9.841
30504SOL    HW193409  12.065   9.278   9.804
30504SOL    HW293410  12.139   9.297   9.934
30505SOL     OW93411   2.157   2.665  11.007
30505SOL    HW193412   2.145   2.607  11.082
30505SOL    HW293413   2.108   2.624  10.936
30506SOL     OW93414   3.578  10.866   6.748
30506SOL    HW193415   3.670  10.865   6.721
30506SOL    HW293416   3.565  10.781   6.790
30507SOL     OW93417   5.954  13.582   5.042
30507SOL    HW193418   5.992  13.497   5.066
30507SOL    HW293419   5.981  13.641   5.112
30508SOL     OW93420   2.052   6.038  12.429
30508SOL    HW193421   2.071   6.122  12.470
30508SOL    HW293422   1.975   6.055  12.374
30509SOL     OW93423   4.428  11.234   3.857
30509SOL    HW193424   4.466  11.299   3.917
30509SOL    HW293425   4.504  11.195   3.814
30510SOL     OW93426   8.550  10.823   7.655
30510SOL    HW193427   8.491  10.868   7.716
30510SOL    HW293428   8.502  10.744   7.629
30511SOL     OW93429  11.208   0.120   0.352
30511SOL    HW193430  11.123   0.085   0.326
30511SOL    HW293431  11.194   0.214   0.358
30512SOL     OW93432  14.281   0.978  12.453
30512SOL    HW193433  14.255   0.995  12.362
30512SOL    HW293434  14.305   1.063  12.487
30513SOL     OW93435   0.573   4.698  12.658
30513SOL    HW193436   0.521   4.774  12.630
30513SOL    HW293437   0.548   4.685  12.750
30514SOL     OW93438   6.761   3.007  10.665
30514SOL    HW193439   6.695   2.955  10.620
30514SOL    HW293440   6.723   3.095  10.670
30515SOL     OW93441   1.666   5.134  12.923
30515SOL    HW193442   1.592   5.192  12.906
30515SOL    HW293443   1.743   5.188  12.906
30516SOL     OW93444   5.118   2.275   6.251
30516SOL    HW193445   5.211   2.256   6.246
30516SOL    HW293446   5.112   2.370   6.252
30517SOL     OW93447   3.411  13.179   3.565
30517SOL    HW193448   3.336  13.174   3.624
30517SOL    HW293449   3.373  13.199   3.480
30518SOL     OW93450  11.089   8.418  13.006
30518SOL    HW193451  11.176   8.377  13.009
30518SOL    HW293452  11.104   8.503  12.964
30519SOL     OW93453   2.955  13.548  14.678
30519SOL    HW193454   2.909  13.532  14.595
30519SOL    HW293455   3.008  13.626  14.662
30520SOL     OW93456   2.335   8.911   3.317
30520SOL    HW193457   2.398   8.912   3.389
30520SOL    HW293458   2.336   9.001   3.283
30521SOL     OW93459   3.186   7.590   0.898
30521SOL    HW193460   3.198   7.664   0.957
30521SOL    HW293461   3.156   7.628   0.816
30522SOL     OW93462   2.614  14.778  12.818
30522SOL    HW193463   2.660  14.806  12.739
30522SOL    HW293464   2.683  14.770  12.884
30523SOL     OW93465  13.373   4.073   3.153
30523SOL    HW193466  13.418   3.990   3.167
30523SOL    HW293467  13.393   4.096   3.062
30524SOL     OW93468   5.376   6.897   3.566
30524SOL    HW193469   5.447   6.836   3.581
30524SOL    HW293470   5.380   6.958   3.641
30525SOL     OW93471   9.567   1.894  13.045
30525SOL    HW193472   9.518   1.825  13.090
30525SOL    HW293473   9.582   1.859  12.957
30526SOL     OW93474   9.919  13.812  13.232
30526SOL    HW193475   9.908  13.902  13.263
30526SOL    HW293476   9.889  13.814  13.141
30527SOL     OW93477  12.854   7.436  13.621
30527SOL    HW193478  12.814   7.441  13.534
30527SOL    HW293479  12.914   7.511  13.623
30528SOL     OW93480  12.558  14.149   3.309
30528SOL    HW193481  12.635  14.205   3.320
30528SOL    HW293482  12.534  14.161   3.217
30529SOL     OW93483  10.563   4.530   3.923
30529SOL    HW193484  10.527   4.452   3.964
30529SOL    HW293485  10.538   4.522   3.830
30530SOL     OW93486  13.440   6.130   4.341
30530SOL    HW193487  13.507   6.198   4.348
30530SOL    HW293488  13.409   6.136   4.250
30531SOL     OW93489   8.331   2.558  10.541
30531SOL    HW193490   8.392   2.506  10.489
30531SOL    HW293491   8.261   2.498  10.563
30532SOL     OW93492  12.744   7.114  11.314
30532SOL    HW193493  12.769   7.059  11.388
30532SOL    HW293494  12.675   7.065  11.269
30533SOL     OW93495  12.513   8.190   4.950
30533SOL    HW193496  12.545   8.220   4.865
30533SOL    HW293497  12.445   8.126   4.929
30534SOL     OW93498  10.424   1.605   5.096
30534SOL    HW193499  10.444   1.676   5.157
30534SOL    HW293500  10.354   1.556   5.140
30535SOL     OW93501   3.307   2.338   6.874
30535SOL    HW193502   3.330   2.307   6.787
30535SOL    HW293503   3.348   2.424   6.881
30536SOL     OW93504  12.439   4.890   2.046
30536SOL    HW193505  12.382   4.957   2.007
30536SOL    HW293506  12.400   4.873   2.132
30537SOL     OW93507  10.245   6.679  13.155
30537SOL    HW193508  10.169   6.695  13.099
30537SOL    HW293509  10.309   6.637  13.097
30538SOL     OW93510  13.910   1.548   7.208
30538SOL    HW193511  13.914   1.559   7.303
30538SOL    HW293512  13.816   1.556   7.188
30539SOL     OW93513  12.898   7.471   6.041
30539SOL    HW193514  12.901   7.500   6.133
30539SOL    HW293515  12.924   7.548   5.991
30540SOL     OW93516   6.212   6.089   3.465
30540SOL    HW193517   6.227   6.053   3.378
30540SOL    HW293518   6.117   6.104   3.470
30541SOL     OW93519   8.564   5.251   3.804
30541SOL    HW193520   8.614   5.264   3.885
30541SOL    HW293521   8.512   5.331   3.796
30542SOL     OW93522   5.871   6.780  12.100
30542SOL    HW193523   5.941   6.775  12.035
30542SOL    HW293524   5.882   6.866  12.140
30543SOL     OW93525   0.631  11.144  12.967
30543SOL    HW193526   0.696  11.130  13.036
30543SOL    HW293527   0.683  11.154  12.887
30544SOL     OW93528  11.003   7.466   5.398
30544SOL    HW193529  10.986   7.482   5.305
30544SOL    HW293530  11.093   7.495   5.412
30545SOL     OW93531  12.982  12.904   7.215
30545SOL    HW193532  13.066  12.872   7.249
30545SOL    HW293533  12.997  12.919   7.122
30546SOL     OW93534   9.697   6.591   1.452
30546SOL    HW193535   9.776   6.628   1.491
30546SOL    HW293536   9.627   6.651   1.478
30547SOL     OW93537   7.152  10.329  13.505
30547SOL    HW193538   7.185  10.404  13.455
30547SOL    HW293539   7.078  10.297  13.454
30548SOL     OW93540   5.669  10.322   7.439
30548SOL    HW193541   5.700  10.370   7.515
30548SOL    HW293542   5.749  10.306   7.388
30549SOL     OW93543  13.210   8.446   6.886
30549SOL    HW193544  13.287   8.400   6.918
30549SOL    HW293545  13.244   8.521   6.837
30550SOL     OW93546   4.293   1.875   6.076
30550SOL    HW193547   4.214   1.892   6.128
30550SOL    HW293548   4.278   1.922   5.994
30551SOL     OW93549   1.171   9.320  14.017
30551SOL    HW193550   1.116   9.398  14.018
30551SOL    HW293551   1.260   9.353  14.012
30552SOL     OW93552   7.588   6.189  10.709
30552SOL    HW193553   7.579   6.221  10.799
30552SOL    HW293554   7.674   6.149  10.706
30553SOL     OW93555   1.534   1.747   5.925
30553SOL    HW193556   1.481   1.687   5.871
30553SOL    HW293557   1.471   1.786   5.985
30554SOL     OW93558  11.118  14.800   4.790
30554SOL    HW193559  11.210  14.808   4.764
30554SOL    HW293560  11.107  14.709   4.815
30555SOL     OW93561   0.203  11.581   4.951
30555SOL    HW193562   0.125  11.626   4.917
30555SOL    HW293563   0.169  11.497   4.982
30556SOL     OW93564  12.757   9.482   0.695
30556SOL    HW193565  12.748   9.387   0.701
30556SOL    HW293566  12.795   9.508   0.778
30557SOL     OW93567  13.888   8.794   6.838
30557SOL    HW193568  13.933   8.877   6.826
30557SOL    HW293569  13.929   8.755   6.915
30558SOL     OW93570  11.206   5.163   9.738
30558SOL    HW193571  11.235   5.179   9.648
30558SOL    HW293572  11.242   5.077   9.759
30559SOL     OW93573   8.142  10.602  13.083
30559SOL    HW193574   8.189  10.583  13.002
30559SOL    HW293575   8.157  10.695  13.098
30560SOL     OW93576  12.013  13.567   7.605
30560SOL    HW193577  12.080  13.631   7.579
30560SOL    HW293578  11.987  13.526   7.524
30561SOL     OW93579   0.279  10.983  13.850
30561SOL    HW193580   0.341  11.013  13.916
30561SOL    HW293581   0.298  11.037  13.773
30562SOL     OW93582   7.592  12.009   7.671
30562SOL    HW193583   7.649  11.964   7.609
30562SOL    HW293584   7.619  11.977   7.757
30563SOL     OW93585   7.618   1.642   5.503
30563SOL    HW193586   7.546   1.612   5.559
30563SOL    HW293587   7.694   1.592   5.533
30564SOL     OW93588   0.605   0.812   9.195
30564SOL    HW193589   0.556   0.805   9.277
30564SOL    HW293590   0.551   0.765   9.131
30565SOL     OW93591   5.473  12.759   2.975
30565SOL    HW193592   5.418  12.722   2.905
30565SOL    HW293593   5.560  12.722   2.959
30566SOL     OW93594   5.490   0.622   4.189
30566SOL    HW193595   5.455   0.592   4.105
30566SOL    HW293596   5.501   0.542   4.240
30567SOL     OW93597  10.723  14.444   2.173
30567SOL    HW193598  10.672  14.389   2.233
30567SOL    HW293599  10.727  14.529   2.217
30568SOL     OW93600   5.699   2.702   2.010
30568SOL    HW193601   5.677   2.754   2.088
30568SOL    HW293602   5.719   2.767   1.943
30569SOL     OW93603  14.044  10.729   8.804
30569SOL    HW193604  13.997  10.730   8.720
30569SOL    HW293605  14.099  10.651   8.801
30570SOL     OW93606   7.307  10.586   6.306
30570SOL    HW193607   7.265  10.670   6.322
30570SOL    HW293608   7.397  10.607   6.282
30571SOL     OW93609   3.632  10.343   7.497
30571SOL    HW193610   3.613  10.366   7.589
30571SOL    HW293611   3.545  10.328   7.459
30572SOL     OW93612   6.507   7.468   6.428
30572SOL    HW193613   6.596   7.494   6.405
30572SOL    HW293614   6.463   7.550   6.451
30573SOL     OW93615   2.039   8.237  10.730
30573SOL    HW193616   2.073   8.183  10.659
30573SOL    HW293617   2.110   8.241  10.794
30574SOL     OW93618   9.183   0.803  11.432
30574SOL    HW193619   9.146   0.717  11.452
30574SOL    HW293620   9.229   0.791  11.349
30575SOL     OW93621   5.111   5.434   8.362
30575SOL    HW193622   5.096   5.392   8.277
30575SOL    HW293623   5.090   5.366   8.426
30576SOL     OW93624   0.258  14.570   8.957
30576SOL    HW193625   0.177  14.582   8.907
30576SOL    HW293626   0.235  14.506   9.025
30577SOL     OW93627   6.655   4.489  11.585
30577SOL    HW193628   6.630   4.407  11.628
30577SOL    HW293629   6.720   4.528  11.644
30578SOL     OW93630   6.334   1.075   7.536
30578SOL    HW193631   6.312   1.124   7.616
30578SOL    HW293632   6.350   1.143   7.470
30579SOL     OW93633  10.065  14.343   4.764
30579SOL    HW193634  10.095  14.417   4.816
30579SOL    HW293635  10.142  14.287   4.756
30580SOL     OW93636  11.641   8.515  12.690
30580SOL    HW193637  11.681   8.575  12.752
30580SOL    HW293638  11.574   8.468  12.740
30581SOL     OW93639   5.040   8.821   7.340
30581SOL    HW193640   5.125   8.815   7.383
30581SOL    HW293641   5.037   8.745   7.283
30582SOL     OW93642   7.548   3.641  10.238
30582SOL    HW193643   7.625   3.585  10.244
30582SOL    HW293644   7.557   3.686  10.154
30583SOL     OW93645   1.862   7.625   1.570
30583SOL    HW193646   1.882   7.718   1.560
30583SOL    HW293647   1.831   7.616   1.659
30584SOL     OW93648  10.752   4.944  12.994
30584SOL    HW193649  10.757   5.037  12.973
30584SOL    HW293650  10.687   4.910  12.933
30585SOL     OW93651   1.473   1.991   1.698
30585SOL    HW193652   1.439   2.062   1.644
30585SOL    HW293653   1.485   1.918   1.637
30586SOL     OW93654  13.298   3.587   7.898
30586SOL    HW193655  13.295   3.651   7.827
30586SOL    HW293656  13.208   3.559   7.910
30587SOL     OW93657   7.288  10.705  14.859
30587SOL    HW193658   7.213  10.745  14.815
30587SOL    HW293659   7.275  10.723   0.072
30588SOL     OW93660   5.890   6.234  12.056
30588SOL    HW193661   5.817   6.283  12.092
30588SOL    HW293662   5.952   6.301  12.027
30589SOL     OW93663   9.547   4.554  11.209
30589SOL    HW193664   9.509   4.553  11.121
30589SOL    HW293665   9.639   4.531  11.195
30590SOL     OW93666   2.904   8.973   7.911
30590SOL    HW193667   2.999   8.960   7.907
30590SOL    HW293668   2.880   8.943   7.998
30591SOL     OW93669   1.741   0.949   3.384
30591SOL    HW193670   1.687   0.873   3.361
30591SOL    HW293671   1.736   1.006   3.307
30592SOL     OW93672   2.102   6.279   9.851
30592SOL    HW193673   2.196   6.269   9.862
30592SOL    HW293674   2.068   6.189   9.852
30593SOL     OW93675  12.897   3.922   9.490
30593SOL    HW193676  12.902   3.851   9.553
30593SOL    HW293677  12.805   3.948   9.490
30594SOL     OW93678   1.443  13.199   6.585
30594SOL    HW193679   1.515  13.135   6.577
30594SOL    HW293680   1.375  13.165   6.527
30595SOL     OW93681   4.107  11.888  14.147
30595SOL    HW193682   4.061  11.970  14.128
30595SOL    HW293683   4.053  11.845  14.213
30596SOL     OW93684   8.709   9.119   4.653
30596SOL    HW193685   8.696   9.075   4.569
30596SOL    HW293686   8.770   9.062   4.701
30597SOL     OW93687   2.752   2.347   0.458
30597SOL    HW193688   2.778   2.283   0.391
30597SOL    HW293689   2.681   2.303   0.506
30598SOL     OW93690   4.158  14.123   0.067
30598SOL    HW193691   4.092  14.168   0.014
30598SOL    HW293692   4.108  14.057   0.115
30599SOL     OW93693   1.536  14.747   1.973
30599SOL    HW193694   1.550  14.659   1.940
30599SOL    HW293695   1.543  14.803   1.896
30600SOL     OW93696   9.761   3.090   3.899
30600SOL    HW193697   9.779   3.090   3.805
30600SOL    HW293698   9.705   3.166   3.912
30601SOL     OW93699   1.964   3.698   0.134
30601SOL    HW193700   2.023   3.637   0.090
30601SOL    HW293701   1.987   3.691   0.226
30602SOL     OW93702   5.399   4.165  14.151
30602SOL    HW193703   5.471   4.106  14.174
30602SOL    HW293704   5.442   4.244  14.118
30603SOL     OW93705  10.645   1.264   0.108
30603SOL    HW193706  10.694   1.196   0.061
30603SOL    HW293707  10.685   1.265   0.195
30604SOL     OW93708  14.711  11.534  11.200
30604SOL    HW193709  14.657  11.458  11.178
30604SOL    HW293710  14.671  11.569  11.280
30605SOL     OW93711   7.634   9.555   3.480
30605SOL    HW193712   7.622   9.461   3.479
30605SOL    HW293713   7.639   9.580   3.388
30606SOL     OW93714  11.931   6.743  13.171
30606SOL    HW193715  11.944   6.707  13.083
30606SOL    HW293716  11.916   6.837  13.156
30607SOL     OW93717  14.785   9.168   5.226
30607SOL    HW193718  14.790   9.158   5.322
30607SOL    HW293719  14.799   9.079   5.193
30608SOL     OW93720  11.429   8.496   6.872
30608SOL    HW193721  11.515   8.489   6.831
30608SOL    HW293722  11.381   8.557   6.817
30609SOL     OW93723  12.110   1.092  11.118
30609SOL    HW193724  12.164   1.020  11.149
30609SOL    HW293725  12.114   1.158  11.187
30610SOL     OW93726   2.762   7.953   2.110
30610SOL    HW193727   2.727   8.036   2.142
30610SOL    HW293728   2.695   7.888   2.131
30611SOL     OW93729   4.209   6.496   1.204
30611SOL    HW193730   4.118   6.472   1.218
30611SOL    HW293731   4.250   6.416   1.170
30612SOL     OW93732  12.528   2.365  11.589
30612SOL    HW193733  12.524   2.452  11.630
30612SOL    HW293734  12.582   2.313  11.648
30613SOL     OW93735   5.308  13.768   3.967
30613SOL    HW193736   5.238  13.708   3.940
30613SOL    HW293737   5.333  13.813   3.886
30614SOL     OW93738   0.675   3.860   5.227
30614SOL    HW193739   0.767   3.838   5.237
30614SOL    HW293740   0.663   3.870   5.132
30615SOL     OW93741   0.685  13.976  13.573
30615SOL    HW193742   0.737  14.050  13.604
30615SOL    HW293743   0.678  13.918  13.649
30616SOL     OW93744  11.512   9.050   1.728
30616SOL    HW193745  11.455   9.012   1.661
30616SOL    HW293746  11.534   8.976   1.785
30617SOL     OW93747   6.110   0.990  14.874
30617SOL    HW193748   6.019   0.960  14.871
30617SOL    HW293749   6.104   1.084   0.009
30618SOL     OW93750   3.471   8.726  12.589
30618SOL    HW193751   3.432   8.722  12.677
30618SOL    HW293752   3.523   8.806  12.590
30619SOL     OW93753   1.375   1.550   7.874
30619SOL    HW193754   1.348   1.518   7.961
30619SOL    HW293755   1.419   1.476   7.833
30620SOL     OW93756  12.126   5.825  13.289
30620SOL    HW193757  12.080   5.832  13.373
30620SOL    HW293758  12.219   5.822  13.313
30621SOL     OW93759  12.366   8.596   2.338
30621SOL    HW193760  12.352   8.646   2.257
30621SOL    HW293761  12.423   8.523   2.312
30622SOL     OW93762   6.652  13.866  12.267
30622SOL    HW193763   6.582  13.919  12.229
30622SOL    HW293764   6.728  13.885  12.212
30623SOL     OW93765   7.817  12.210  12.622
30623SOL    HW193766   7.858  12.142  12.676
30623SOL    HW293767   7.878  12.222  12.549
30624SOL     OW93768  11.769   1.317  11.904
30624SOL    HW193769  11.833   1.357  11.845
30624SOL    HW293770  11.691   1.306  11.851
30625SOL     OW93771  14.577   4.636   0.086
30625SOL    HW193772  14.552   4.620  14.875
30625SOL    HW293773  14.503   4.605   0.138
30626SOL     OW93774   8.588  13.877  12.100
30626SOL    HW193775   8.503  13.842  12.128
30626SOL    HW293776   8.649  13.847  12.167
30627SOL     OW93777  14.468   4.387  13.936
30627SOL    HW193778  14.491   4.396  13.843
30627SOL    HW293779  14.536   4.435  13.983
30628SOL     OW93780   9.639   5.863   1.792
30628SOL    HW193781   9.658   5.778   1.752
30628SOL    HW293782   9.725   5.902   1.807
30629SOL     OW93783   7.546   6.442   9.931
30629SOL    HW193784   7.629   6.487   9.946
30629SOL    HW293785   7.488   6.511   9.898
30630SOL     OW93786   9.442   0.683   4.200
30630SOL    HW193787   9.440   0.593   4.166
30630SOL    HW293788   9.535   0.702   4.212
30631SOL     OW93789  11.706   6.057   3.708
30631SOL    HW193790  11.769   5.995   3.744
30631SOL    HW293791  11.757   6.110   3.646
30632SOL     OW93792  11.427  13.870  11.388
30632SOL    HW193793  11.333  13.873  11.371
30632SOL    HW293794  11.453  13.961  11.399
30633SOL     OW93795  12.270   9.256  11.022
30633SOL    HW193796  12.323   9.306  11.084
30633SOL    HW293797  12.279   9.165  11.051
30634SOL     OW93798  13.544   8.569   1.184
30634SOL    HW193799  13.450   8.585   1.174
30634SOL    HW293800  13.561   8.494   1.127
30635SOL     OW93801   6.208   2.510  13.605
30635SOL    HW193802   6.234   2.422  13.634
30635SOL    HW293803   6.195   2.500  13.511
30636SOL     OW93804   9.185  10.064  11.809
30636SOL    HW193805   9.221  10.139  11.762
30636SOL    HW293806   9.125  10.024  11.746
30637SOL     OW93807  12.860  10.844   2.608
30637SOL    HW193808  12.824  10.778   2.667
30637SOL    HW293809  12.788  10.863   2.547
30638SOL     OW93810   4.805  10.192   8.759
30638SOL    HW193811   4.900  10.180   8.759
30638SOL    HW293812   4.780  10.186   8.852
30639SOL     OW93813   0.291   3.053  11.101
30639SOL    HW193814   0.226   2.985  11.085
30639SOL    HW293815   0.374   3.013  11.077
30640SOL     OW93816   9.981   7.290   6.994
30640SOL    HW193817   9.922   7.304   7.068
30640SOL    HW293818   9.926   7.252   6.926
30641SOL     OW93819  13.787   0.386   0.060
30641SOL    HW193820  13.821   0.416  14.855
30641SOL    HW293821  13.856   0.331   0.096
30642SOL     OW93822   5.719  14.873   4.548
30642SOL    HW193823   5.684  14.784   4.555
30642SOL    HW293824   5.790  14.866   4.484
30643SOL     OW93825   1.718   4.454  13.028
30643SOL    HW193826   1.699   4.371  13.073
30643SOL    HW293827   1.681   4.442  12.940
30644SOL     OW93828   0.444   6.464   1.792
30644SOL    HW193829   0.516   6.515   1.755
30644SOL    HW293830   0.391   6.528   1.839
30645SOL     OW93831   6.437  14.168  13.849
30645SOL    HW193832   6.481  14.148  13.766
30645SOL    HW293833   6.451  14.090  13.902
30646SOL     OW93834   6.246  14.560  14.563
30646SOL    HW193835   6.208  14.614  14.634
30646SOL    HW293836   6.259  14.622  14.491
30647SOL     OW93837   7.039   2.057   9.647
30647SOL    HW193838   6.990   1.975   9.659
30647SOL    HW293839   7.024   2.106   9.727
30648SOL     OW93840   2.833   4.385   7.066
30648SOL    HW193841   2.864   4.475   7.078
30648SOL    HW293842   2.913   4.335   7.049
30649SOL     OW93843  14.522  12.387  13.644
30649SOL    HW193844  14.508  12.328  13.569
30649SOL    HW293845  14.457  12.456  13.632
30650SOL     OW93846  11.231   2.215   0.555
30650SOL    HW193847  11.146   2.259   0.558
30650SOL    HW293848  11.261   2.215   0.646
30651SOL     OW93849   7.186  12.936  11.567
30651SOL    HW193850   7.267  12.886  11.567
30651SOL    HW293851   7.207  13.017  11.520
30652SOL     OW93852   7.797   8.111   8.826
30652SOL    HW193853   7.878   8.128   8.778
30652SOL    HW293854   7.786   8.188   8.882
30653SOL     OW93855   1.512   5.558   7.692
30653SOL    HW193856   1.523   5.607   7.610
30653SOL    HW293857   1.424   5.520   7.685
30654SOL     OW93858  10.820  14.093   3.343
30654SOL    HW193859  10.757  14.021   3.337
30654SOL    HW293860  10.778  14.156   3.403
30655SOL     OW93861  10.620  13.064   2.269
30655SOL    HW193862  10.578  12.980   2.288
30655SOL    HW293863  10.608  13.115   2.348
30656SOL     OW93864   6.985  11.808   7.231
30656SOL    HW193865   6.976  11.793   7.325
30656SOL    HW293866   6.900  11.845   7.205
30657SOL     OW93867  10.200   5.690   3.519
30657SOL    HW193868  10.122   5.742   3.533
30657SOL    HW293869  10.188   5.613   3.575
30658SOL     OW93870   5.093   5.070   8.912
30658SOL    HW193871   5.148   5.036   8.842
30658SOL    HW293872   5.014   5.102   8.867
30659SOL     OW93873  11.321   6.957  11.758
30659SOL    HW193874  11.293   6.883  11.705
30659SOL    HW293875  11.322   7.031  11.698
30660SOL     OW93876   3.946   8.909  14.123
30660SOL    HW193877   4.009   8.844  14.092
30660SOL    HW293878   3.865   8.888  14.077
30661SOL     OW93879  10.315  14.101  13.793
30661SOL    HW193880  10.332  14.071  13.882
30661SOL    HW293881  10.377  14.053  13.739
30662SOL     OW93882   4.140  12.602   0.464
30662SOL    HW193883   4.179  12.547   0.532
30662SOL    HW293884   4.201  12.676   0.456
30663SOL     OW93885   7.426   1.739   3.361
30663SOL    HW193886   7.414   1.804   3.292
30663SOL    HW293887   7.493   1.776   3.417
30664SOL     OW93888   9.479   7.780   3.668
30664SOL    HW193889   9.441   7.830   3.740
30664SOL    HW293890   9.561   7.827   3.648
30665SOL     OW93891   5.357   0.351  10.421
30665SOL    HW193892   5.396   0.297  10.353
30665SOL    HW293893   5.426   0.359  10.488
30666SOL     OW93894   8.151   5.157  13.417
30666SOL    HW193895   8.170   5.155  13.324
30666SOL    HW293896   8.217   5.216  13.454
30667SOL     OW93897   8.031   5.220   7.995
30667SOL    HW193898   7.943   5.258   7.996
30667SOL    HW293899   8.078   5.270   7.929
30668SOL     OW93900   6.605  10.550  12.634
30668SOL    HW193901   6.589  10.462  12.601
30668SOL    HW293902   6.655  10.593  12.565
30669SOL     OW93903  13.540  12.447  11.668
30669SOL    HW193904  13.494  12.482  11.744
30669SOL    HW293905  13.619  12.406  11.704
30670SOL     OW93906   8.291   9.477   7.342
30670SOL    HW193907   8.251   9.433   7.417
30670SOL    HW293908   8.217   9.501   7.287
30671SOL     OW93909   0.148  12.882  12.445
30671SOL    HW193910   0.235  12.855  12.475
30671SOL    HW293911   0.106  12.800  12.417
30672SOL     OW93912  13.533   1.662   6.925
30672SOL    HW193913  13.557   1.657   7.018
30672SOL    HW293914  13.576   1.586   6.885
30673SOL     OW93915   3.684  13.699  13.840
30673SOL    HW193916   3.747  13.640  13.881
30673SOL    HW293917   3.735  13.746  13.774
30674SOL     OW93918   6.436  10.820   1.849
30674SOL    HW193919   6.401  10.778   1.927
30674SOL    HW293920   6.370  10.803   1.781
30675SOL     OW93921   7.422   2.110  10.377
30675SOL    HW193922   7.361   2.183  10.383
30675SOL    HW293923   7.502   2.148  10.341
30676SOL     OW93924   8.477   2.289   8.173
30676SOL    HW193925   8.532   2.211   8.170
30676SOL    HW293926   8.426   2.285   8.092
30677SOL     OW93927  12.525  12.615   3.037
30677SOL    HW193928  12.605  12.574   3.006
30677SOL    HW293929  12.539  12.709   3.024
30678SOL     OW93930  11.499   1.576   8.792
30678SOL    HW193931  11.431   1.513   8.815
30678SOL    HW293932  11.547   1.534   8.720
30679SOL     OW93933  11.441   8.778  13.083
30679SOL    HW193934  11.372   8.781  13.150
30679SOL    HW293935  11.472   8.868  13.077
30680SOL     OW93936   6.499   9.244  14.080
30680SOL    HW193937   6.465   9.331  14.103
30680SOL    HW293938   6.563   9.225  14.148
30681SOL     OW93939   2.435   2.048   1.843
30681SOL    HW193940   2.393   2.106   1.907
30681SOL    HW293941   2.461   1.971   1.894
30682SOL     OW93942   1.949  10.805   6.912
30682SOL    HW193943   1.897  10.754   6.973
30682SOL    HW293944   1.896  10.883   6.894
30683SOL     OW93945   6.994   3.987   7.515
30683SOL    HW193946   6.991   3.961   7.422
30683SOL    HW293947   6.946   4.069   7.518
30684SOL     OW93948  12.135   8.702   8.717
30684SOL    HW193949  12.164   8.717   8.807
30684SOL    HW293950  12.041   8.718   8.720
30685SOL     OW93951  11.784  10.592   0.777
30685SOL    HW193952  11.769  10.498   0.762
30685SOL    HW293953  11.873  10.608   0.746
30686SOL     OW93954   2.980  12.216   4.174
30686SOL    HW193955   2.944  12.204   4.086
30686SOL    HW293956   3.040  12.290   4.167
30687SOL     OW93957   5.222   5.167   7.634
30687SOL    HW193958   5.257   5.192   7.720
30687SOL    HW293959   5.133   5.137   7.652
30688SOL     OW93960  11.707   0.444   3.039
30688SOL    HW193961  11.641   0.407   2.980
30688SOL    HW293962  11.668   0.439   3.126
30689SOL     OW93963  11.265  11.128  11.742
30689SOL    HW193964  11.243  11.221  11.752
30689SOL    HW293965  11.202  11.083  11.798
30690SOL     OW93966  12.800   5.967   6.540
30690SOL    HW193967  12.835   6.040   6.489
30690SOL    HW293968  12.804   5.996   6.631
30691SOL     OW93969   3.737   4.346   0.252
30691SOL    HW193970   3.738   4.252   0.271
30691SOL    HW293971   3.675   4.355   0.180
30692SOL     OW93972   3.499   0.441   8.142
30692SOL    HW193973   3.592   0.429   8.121
30692SOL    HW293974   3.499   0.460   8.236
30693SOL     OW93975   1.817   9.786   4.411
30693SOL    HW193976   1.863   9.737   4.343
30693SOL    HW293977   1.887   9.817   4.469
30694SOL     OW93978  12.833   3.682   1.516
30694SOL    HW193979  12.748   3.659   1.553
30694SOL    HW293980  12.813   3.719   1.430
30695SOL     OW93981   4.504  13.479   2.130
30695SOL    HW193982   4.563  13.482   2.206
30695SOL    HW293983   4.558  13.442   2.060
30696SOL     OW93984   3.691   1.871   1.246
30696SOL    HW193985   3.653   1.924   1.316
30696SOL    HW293986   3.767   1.829   1.287
30697SOL     OW93987  13.804   7.436   0.449
30697SOL    HW193988  13.742   7.451   0.378
30697SOL    HW293989  13.751   7.401   0.521
30698SOL     OW93990   9.663  14.211  13.371
30698SOL    HW193991   9.705  14.210  13.457
30698SOL    HW293992   9.577  14.172  13.386
30699SOL     OW93993  10.675  13.865   7.449
30699SOL    HW193994  10.616  13.836   7.519
30699SOL    HW293995  10.758  13.822   7.469
30700SOL     OW93996   6.895   6.953  12.152
30700SOL    HW193997   6.914   6.949  12.246
30700SOL    HW293998   6.884   6.862  12.126
30701SOL     OW93999   5.895  10.638   7.804
30701SOL    HW194000   5.975  10.602   7.843
30701SOL    HW294001   5.868  10.707   7.865
30702SOL     OW94002  13.675   4.150  10.850
30702SOL    HW194003  13.713   4.194  10.926
30702SOL    HW294004  13.694   4.057  10.864
30703SOL     OW94005   1.777   1.189   8.484
30703SOL    HW194006   1.845   1.152   8.427
30703SOL    HW294007   1.805   1.279   8.500
30704SOL     OW94008   7.428  13.941  10.675
30704SOL    HW194009   7.497  13.998  10.709
30704SOL    HW294010   7.356  14.000  10.653
30705SOL     OW94011   1.229   8.888  12.144
30705SOL    HW194012   1.295   8.956  12.159
30705SOL    HW294013   1.146   8.936  12.138
30706SOL     OW94014   9.031   9.825  14.800
30706SOL    HW194015   8.996   9.813   0.008
30706SOL    HW294016   9.124   9.846  14.813
30707SOL     OW94017  11.356  11.331   2.492
30707SOL    HW194018  11.266  11.299   2.485
30707SOL    HW294019  11.371  11.380   2.411
30708SOL     OW94020  14.338   2.166   1.911
30708SOL    HW194021  14.362   2.179   1.820
30708SOL    HW294022  14.249   2.131   1.908
30709SOL     OW94023   1.035   7.937  11.359
30709SOL    HW194024   1.060   8.005  11.421
30709SOL    HW294025   0.942   7.921  11.378
30710SOL     OW94026  10.920   5.720   7.720
30710SOL    HW194027  10.890   5.806   7.750
30710SOL    HW294028  10.841   5.666   7.718
30711SOL     OW94029   1.562   3.968   9.120
30711SOL    HW194030   1.532   3.894   9.066
30711SOL    HW294031   1.502   3.970   9.194
30712SOL     OW94032   9.911   6.848  14.790
30712SOL    HW194033   9.905   6.927  14.736
30712SOL    HW294034  10.004   6.837  14.807
30713SOL     OW94035   5.024  11.604  11.590
30713SOL    HW194036   5.074  11.684  11.607
30713SOL    HW294037   5.085  11.533  11.613
30714SOL     OW94038   4.699   2.143   2.941
30714SOL    HW194039   4.784   2.157   2.900
30714SOL    HW294040   4.649   2.095   2.875
30715SOL     OW94041   4.343  13.653   4.300
30715SOL    HW194042   4.346  13.607   4.384
30715SOL    HW294043   4.253  13.685   4.293
30716SOL     OW94044   7.045   1.070   7.760
30716SOL    HW194045   6.952   1.078   7.780
30716SOL    HW294046   7.088   1.066   7.845
30717SOL     OW94047   6.979   6.765  13.063
30717SOL    HW194048   6.941   6.795  12.981
30717SOL    HW294049   6.903   6.743  13.118
30718SOL     OW94050  10.621  11.204  14.726
30718SOL    HW194051  10.681  11.277  14.712
30718SOL    HW294052  10.579  11.191  14.641
30719SOL     OW94053   6.815  14.277  11.587
30719SOL    HW194054   6.788  14.287  11.495
30719SOL    HW294055   6.812  14.183  11.603
30720SOL     OW94056  11.254   2.063   6.763
30720SOL    HW194057  11.261   2.100   6.675
30720SOL    HW294058  11.187   2.116   6.806
30721SOL     OW94059  10.430   7.701   7.022
30721SOL    HW194060  10.512   7.724   6.979
30721SOL    HW294061  10.382   7.650   6.957
30722SOL     OW94062   0.872   7.438   1.146
30722SOL    HW194063   0.793   7.490   1.130
30722SOL    HW294064   0.875   7.426   1.240
30723SOL     OW94065  14.024   8.269  11.125
30723SOL    HW194066  13.944   8.319  11.143
30723SOL    HW294067  14.069   8.321  11.059
30724SOL     OW94068  12.602   8.970   9.080
30724SOL    HW194069  12.647   8.918   9.146
30724SOL    HW294070  12.643   9.056   9.085
30725SOL     OW94071  10.557  12.094   7.568
30725SOL    HW194072  10.587  12.182   7.588
30725SOL    HW294073  10.626  12.058   7.511
30726SOL     OW94074  12.771   3.922   7.419
30726SOL    HW194075  12.709   3.980   7.375
30726SOL    HW294076  12.825   3.886   7.349
30727SOL     OW94077   6.981  12.222   6.101
30727SOL    HW194078   6.974  12.153   6.167
30727SOL    HW294079   7.018  12.179   6.024
30728SOL     OW94080   4.969   1.286  14.046
30728SOL    HW194081   4.939   1.327  14.127
30728SOL    HW294082   4.999   1.199  14.073
30729SOL     OW94083  10.620  11.840   5.697
30729SOL    HW194084  10.602  11.825   5.790
30729SOL    HW294085  10.533  11.846   5.657
30730SOL     OW94086  10.853  10.157   7.772
30730SOL    HW194087  10.770  10.119   7.745
30730SOL    HW294088  10.840  10.252   7.766
30731SOL     OW94089   4.582   0.714   7.218
30731SOL    HW194090   4.642   0.702   7.144
30731SOL    HW294091   4.518   0.644   7.208
30732SOL     OW94092   8.535   1.901  14.085
30732SOL    HW194093   8.507   1.909  14.176
30732SOL    HW294094   8.599   1.831  14.085
30733SOL     OW94095  10.093   4.469  13.342
30733SOL    HW194096  10.098   4.381  13.381
30733SOL    HW294097  10.158   4.468  13.272
30734SOL     OW94098  11.424  11.378   3.947
30734SOL    HW194099  11.334  11.348   3.961
30734SOL    HW294100  11.476  11.330   4.011
30735SOL     OW94101   3.783   5.606   9.965
30735SOL    HW194102   3.805   5.525   9.921
30735SOL    HW294103   3.850   5.668   9.937
30736SOL     OW94104   9.643  12.359   3.395
30736SOL    HW194105   9.697  12.283   3.416
30736SOL    HW294106   9.703  12.434   3.404
30737SOL     OW94107  11.410   6.633   7.558
30737SOL    HW194108  11.336   6.686   7.530
30737SOL    HW294109  11.467   6.694   7.606
30738SOL     OW94110  10.728   6.743   9.553
30738SOL    HW194111  10.808   6.699   9.583
30738SOL    HW294112  10.685   6.772   9.633
30739SOL     OW94113   8.611  11.410   9.826
30739SOL    HW194114   8.646  11.479   9.770
30739SOL    HW294115   8.640  11.329   9.784
30740SOL     OW94116  11.713   8.963   8.054
30740SOL    HW194117  11.619   8.983   8.047
30740SOL    HW294118  11.750   8.993   7.971
30741SOL     OW94119   8.946  13.564   7.892
30741SOL    HW194120   9.019  13.567   7.955
30741SOL    HW294121   8.899  13.484   7.914
30742SOL     OW94122  10.969   0.433  11.835
30742SOL    HW194123  10.979   0.352  11.885
30742SOL    HW294124  10.918   0.490  11.893
30743SOL     OW94125   6.688   0.048   9.210
30743SOL    HW194126   6.697   0.017   9.300
30743SOL    HW294127   6.758   0.113   9.201
30744SOL     OW94128  12.672   6.216  11.544
30744SOL    HW194129  12.609   6.217  11.472
30744SOL    HW294130  12.625   6.259  11.616
30745SOL     OW94131  14.678   4.829  12.675
30745SOL    HW194132  14.709   4.879  12.600
30745SOL    HW294133  14.734   4.858  12.748
30746SOL     OW94134  11.655   6.571   7.348
30746SOL    HW194135  11.575   6.610   7.313
30746SOL    HW294136  11.680   6.629   7.420
30747SOL     OW94137   6.824  10.313  10.910
30747SOL    HW194138   6.914  10.320  10.878
30747SOL    HW294139   6.810  10.219  10.921
30748SOL     OW94140  11.444   4.611  14.478
30748SOL    HW194141  11.410   4.565  14.401
30748SOL    HW294142  11.501   4.547  14.521
30749SOL     OW94143  11.842  10.978   2.416
30749SOL    HW194144  11.867  11.055   2.467
30749SOL    HW294145  11.924  10.950   2.375
30750SOL     OW94146  13.662   2.045  11.011
30750SOL    HW194147  13.635   1.963  10.970
30750SOL    HW294148  13.606   2.052  11.089
30751SOL     OW94149  11.599  11.185   3.466
30751SOL    HW194150  11.552  11.188   3.382
30751SOL    HW294151  11.546  11.238   3.525
30752SOL     OW94152   2.363   4.030  14.692
30752SOL    HW194153   2.379   4.122  14.714
30752SOL    HW294154   2.268   4.023  14.688
30753SOL     OW94155  10.320   3.084   6.907
30753SOL    HW194156  10.341   3.067   6.999
30753SOL    HW294157  10.319   3.180   6.901
30754SOL     OW94158  14.246   4.134   2.807
30754SOL    HW194159  14.194   4.065   2.849
30754SOL    HW294160  14.288   4.180   2.879
30755SOL     OW94161   1.161  13.795  10.991
30755SOL    HW194162   1.243  13.800  11.040
30755SOL    HW294163   1.159  13.876  10.940
30756SOL     OW94164  10.857   3.130   4.620
30756SOL    HW194165  10.779   3.073   4.618
30756SOL    HW294166  10.843   3.192   4.550
30757SOL     OW94167  13.816   5.360   7.983
30757SOL    HW194168  13.785   5.306   8.056
30757SOL    HW294169  13.769   5.326   7.907
30758SOL     OW94170   3.382   9.561   7.954
30758SOL    HW194171   3.307   9.502   7.949
30758SOL    HW294172   3.432   9.531   8.029
30759SOL     OW94173   1.137   9.132   9.740
30759SOL    HW194174   1.110   9.166   9.825
30759SOL    HW294175   1.104   9.195   9.677
30760SOL     OW94176  12.238   0.600  11.370
30760SOL    HW194177  12.164   0.541  11.389
30760SOL    HW294178  12.198   0.676  11.328
30761SOL     OW94179   8.972  12.390   7.006
30761SOL    HW194180   9.055  12.386   6.958
30761SOL    HW294181   8.926  12.311   6.981
30762SOL     OW94182   9.394   3.846   7.959
30762SOL    HW194183   9.454   3.793   8.011
30762SOL    HW294184   9.384   3.798   7.877
30763SOL     OW94185  12.375  14.002   9.899
30763SOL    HW194186  12.362  13.940   9.827
30763SOL    HW294187  12.467  13.992   9.923
30764SOL     OW94188   7.090  12.188   1.711
30764SOL    HW194189   7.123  12.129   1.644
30764SOL    HW294190   7.055  12.131   1.779
30765SOL     OW94191   7.797  11.880  11.150
30765SOL    HW194192   7.861  11.933  11.199
30765SOL    HW294193   7.724  11.869  11.210
30766SOL     OW94194  12.147   3.083   3.909
30766SOL    HW194195  12.238   3.093   3.935
30766SOL    HW294196  12.099   3.146   3.964
30767SOL     OW94197   2.022  14.463  10.165
30767SOL    HW194198   2.116  14.450  10.153
30767SOL    HW294199   2.010  14.460  10.260
30768SOL     OW94200   0.453  12.171  11.531
30768SOL    HW194201   0.517  12.194  11.598
30768SOL    HW294202   0.368  12.181  11.575
30769SOL     OW94203   3.551   3.927   5.057
30769SOL    HW194204   3.590   3.893   5.137
30769SOL    HW294205   3.476   3.979   5.086
30770SOL     OW94206   2.621  12.198  12.275
30770SOL    HW194207   2.693  12.257  12.254
30770SOL    HW294208   2.599  12.217  12.366
30771SOL     OW94209   9.179   0.335   9.432
30771SOL    HW194210   9.235   0.395   9.482
30771SOL    HW294211   9.233   0.309   9.357
30772SOL     OW94212   7.742  11.554  13.366
30772SOL    HW194213   7.655  11.585  13.343
30772SOL    HW294214   7.737  11.459  13.358
30773SOL     OW94215   3.522   6.044   6.023
30773SOL    HW194216   3.586   5.973   6.022
30773SOL    HW294217   3.548   6.099   6.097
30774SOL     OW94218  13.181   5.186   3.030
30774SOL    HW194219  13.146   5.156   2.946
30774SOL    HW294220  13.230   5.112   3.064
30775SOL     OW94221   6.425   2.461  12.407
30775SOL    HW194222   6.483   2.498  12.474
30775SOL    HW294223   6.481   2.450  12.330
30776SOL     OW94224  14.136  10.378  12.976
30776SOL    HW194225  14.194  10.364  12.901
30776SOL    HW294226  14.072  10.442  12.946
30777SOL     OW94227   5.866   5.018  12.058
30777SOL    HW194228   5.875   5.010  11.963
30777SOL    HW294229   5.820   5.101  12.071
30778SOL     OW94230   1.477  13.870   9.593
30778SOL    HW194231   1.457  13.793   9.647
30778SOL    HW294232   1.548  13.914   9.640
30779SOL     OW94233   8.293   2.639  10.910
30779SOL    HW194234   8.327   2.682  10.832
30779SOL    HW294235   8.361   2.652  10.976
30780SOL     OW94236   7.998  14.417   2.707
30780SOL    HW194237   7.965  14.499   2.669
30780SOL    HW294238   7.954  14.411   2.792
30781SOL     OW94239  11.228  10.872   5.194
30781SOL    HW194240  11.303  10.925   5.170
30781SOL    HW294241  11.158  10.900   5.136
30782SOL     OW94242   8.342   0.721   2.281
30782SOL    HW194243   8.246   0.724   2.272
30782SOL    HW294244   8.371   0.810   2.262
30783SOL     OW94245  10.159   3.979  11.452
30783SOL    HW194246  10.102   4.056  11.463
30783SOL    HW294247  10.214   4.001  11.377
30784SOL     OW94248   2.573   7.111  13.450
30784SOL    HW194249   2.569   7.019  13.477
30784SOL    HW294250   2.531   7.112  13.364
30785SOL     OW94251   0.224  12.196  10.557
30785SOL    HW194252   0.185  12.109  10.562
30785SOL    HW294253   0.212  12.222  10.465
30786SOL     OW94254   0.697  14.364   3.909
30786SOL    HW194255   0.666  14.319   3.988
30786SOL    HW294256   0.747  14.298   3.861
30787SOL     OW94257   3.748   4.231  10.078
30787SOL    HW194258   3.671   4.279  10.110
30787SOL    HW294259   3.720   4.194   9.994
30788SOL     OW94260   1.001   2.451   4.041
30788SOL    HW194261   0.996   2.515   3.970
30788SOL    HW294262   0.915   2.454   4.082
30789SOL     OW94263   1.572   2.133   2.296
30789SOL    HW194264   1.477   2.124   2.297
30789SOL    HW294265   1.588   2.219   2.334
30790SOL     OW94266  12.293   6.166   2.348
30790SOL    HW194267  12.263   6.076   2.356
30790SOL    HW294268  12.323   6.190   2.435
30791SOL     OW94269  12.699  12.261   1.953
30791SOL    HW194270  12.722  12.336   1.899
30791SOL    HW294271  12.613  12.283   1.989
30792SOL     OW94272   8.569   8.051  13.274
30792SOL    HW194273   8.492   8.100  13.243
30792SOL    HW294274   8.532   7.973  13.315
30793SOL     OW94275   1.083  11.566   8.903
30793SOL    HW194276   1.060  11.474   8.914
30793SOL    HW294277   1.062  11.586   8.812
30794SOL     OW94278   1.269  13.035   2.667
30794SOL    HW194279   1.302  13.064   2.582
30794SOL    HW294280   1.203  13.100   2.691
30795SOL     OW94281   5.099   5.526   4.259
30795SOL    HW194282   5.030   5.591   4.249
30795SOL    HW294283   5.073   5.454   4.203
30796SOL     OW94284   1.287  10.891   6.330
30796SOL    HW194285   1.291  10.799   6.358
30796SOL    HW294286   1.370  10.928   6.359
30797SOL     OW94287   2.953  14.167   4.375
30797SOL    HW194288   2.861  14.182   4.356
30797SOL    HW294289   2.988  14.127   4.295
30798SOL     OW94290  11.924  13.766   1.928
30798SOL    HW194291  11.918  13.765   2.023
30798SOL    HW294292  11.990  13.700   1.907
30799SOL     OW94293   5.872  10.138   3.198
30799SOL    HW194294   5.817  10.131   3.120
30799SOL    HW294295   5.866  10.051   3.239
30800SOL     OW94296   1.315  14.649   4.325
30800SOL    HW194297   1.369  14.727   4.328
30800SOL    HW294298   1.324  14.617   4.235
30801SOL     OW94299   3.200   1.723   9.759
30801SOL    HW194300   3.275   1.781   9.745
30801SOL    HW294301   3.124   1.781   9.759
30802SOL     OW94302   0.709   9.570   6.171
30802SOL    HW194303   0.732   9.479   6.151
30802SOL    HW294304   0.666   9.566   6.257
30803SOL     OW94305   4.748   3.528   9.393
30803SOL    HW194306   4.714   3.604   9.439
30803SOL    HW294307   4.679   3.462   9.402
30804SOL     OW94308   2.833   5.106  10.488
30804SOL    HW194309   2.803   5.151  10.567
30804SOL    HW294310   2.876   5.027  10.521
30805SOL     OW94311   9.006   8.121   6.440
30805SOL    HW194312   9.043   8.175   6.370
30805SOL    HW294313   9.075   8.117   6.506
30806SOL     OW94314   7.244  14.749  11.467
30806SOL    HW194315   7.150  14.742  11.448
30806SOL    HW294316   7.287  14.706  11.393
30807SOL     OW94317   3.038   9.990   8.321
30807SOL    HW194318   3.093  10.063   8.291
30807SOL    HW294319   3.077   9.964   8.405
30808SOL     OW94320  12.922  13.265  14.815
30808SOL    HW194321  12.937  13.284  14.722
30808SOL    HW294322  12.827  13.254  14.822
30809SOL     OW94323   6.531   5.962   8.878
30809SOL    HW194324   6.547   6.028   8.810
30809SOL    HW294325   6.618   5.940   8.911
30810SOL     OW94326   4.934   4.007   1.325
30810SOL    HW194327   5.018   4.037   1.360
30810SOL    HW294328   4.951   3.917   1.297
30811SOL     OW94329  13.861   0.315  13.976
30811SOL    HW194330  13.785   0.324  13.918
30811SOL    HW294331  13.831   0.255  14.044
30812SOL     OW94332   8.721  10.319   8.896
30812SOL    HW194333   8.658  10.248   8.889
30812SOL    HW294334   8.717  10.345   8.988
30813SOL     OW94335   5.953   4.609   5.964
30813SOL    HW194336   6.047   4.601   5.982
30813SOL    HW294337   5.914   4.531   6.003
30814SOL     OW94338   3.099   7.013   0.551
30814SOL    HW194339   3.139   6.927   0.564
30814SOL    HW294340   3.029   7.016   0.617
30815SOL     OW94341  11.598   5.719   6.414
30815SOL    HW194342  11.508   5.739   6.438
30815SOL    HW294343  11.652   5.762   6.480
30816SOL     OW94344  11.495  12.560   0.210
30816SOL    HW194345  11.460  12.524   0.291
30816SOL    HW294346  11.421  12.558   0.149
30817SOL     OW94347  13.909  11.768   1.032
30817SOL    HW194348  13.843  11.786   0.965
30817SOL    HW294349  13.964  11.846   1.032
30818SOL     OW94350   6.578   0.463  10.937
30818SOL    HW194351   6.558   0.527  10.868
30818SOL    HW294352   6.495   0.419  10.954
30819SOL     OW94353   1.557  10.804   6.630
30819SOL    HW194354   1.598  10.839   6.709
30819SOL    HW294355   1.550  10.710   6.647
30820SOL     OW94356  11.661   1.836  11.019
30820SOL    HW194357  11.593   1.850  10.953
30820SOL    HW294358  11.679   1.924  11.054
30821SOL     OW94359  10.061  13.963   5.025
30821SOL    HW194360   9.979  13.980   5.070
30821SOL    HW294361  10.037  13.960   4.932
30822SOL     OW94362  11.890   0.468   8.975
30822SOL    HW194363  11.806   0.513   8.965
30822SOL    HW294364  11.888   0.430   9.062
30823SOL     OW94365  13.884   3.161   6.740
30823SOL    HW194366  13.888   3.091   6.805
30823SOL    HW294367  13.841   3.121   6.664
30824SOL     OW94368  10.961   6.143  10.574
30824SOL    HW194369  10.872   6.113  10.554
30824SOL    HW294370  11.011   6.127  10.495
30825SOL     OW94371   5.301   6.179   9.427
30825SOL    HW194372   5.354   6.108   9.463
30825SOL    HW294373   5.229   6.189   9.490
30826SOL     OW94374   2.056   0.345   8.667
30826SOL    HW194375   2.019   0.386   8.745
30826SOL    HW294376   1.980   0.312   8.619
30827SOL     OW94377   4.060  13.581   3.539
30827SOL    HW194378   4.080  13.556   3.448
30827SOL    HW294379   4.085  13.673   3.544
30828SOL     OW94380  10.097  13.872   1.183
30828SOL    HW194381  10.002  13.864   1.190
30828SOL    HW294382  10.116  13.963   1.205
30829SOL     OW94383  12.833   3.654   5.390
30829SOL    HW194384  12.907   3.615   5.437
30829SOL    HW294385  12.759   3.596   5.411
30830SOL     OW94386   5.363   3.368   3.894
30830SOL    HW194387   5.428   3.301   3.913
30830SOL    HW294388   5.390   3.443   3.946
30831SOL     OW94389  12.986   4.749   0.947
30831SOL    HW194390  13.023   4.684   0.887
30831SOL    HW294391  13.062   4.795   0.981
30832SOL     OW94392  14.249  13.998   0.107
30832SOL    HW194393  14.166  14.031   0.072
30832SOL    HW294394  14.271  14.059   0.178
30833SOL     OW94395  13.970  11.889   6.728
30833SOL    HW194396  13.901  11.822   6.727
30833SOL    HW294397  14.031  11.862   6.660
30834SOL     OW94398   4.471   1.441   9.894
30834SOL    HW194399   4.544   1.389   9.862
30834SOL    HW294400   4.498   1.469   9.982
30835SOL     OW94401   8.501   2.653   5.984
30835SOL    HW194402   8.473   2.671   6.074
30835SOL    HW294403   8.461   2.568   5.963
30836SOL     OW94404   6.719   0.135   2.869
30836SOL    HW194405   6.636   0.179   2.850
30836SOL    HW294406   6.693   0.051   2.906
30837SOL     OW94407   3.707   0.113   1.805
30837SOL    HW194408   3.649   0.041   1.781
30837SOL    HW294409   3.795   0.077   1.796
30838SOL     OW94410  11.297   0.479   5.539
30838SOL    HW194411  11.246   0.402   5.562
30838SOL    HW294412  11.384   0.445   5.517
30839SOL     OW94413   4.543  11.283  11.651
30839SOL    HW194414   4.508  11.267  11.738
30839SOL    HW294415   4.480  11.342  11.610
30840SOL     OW94416   9.307   2.055   5.873
30840SOL    HW194417   9.400   2.074   5.878
30840SOL    HW294418   9.289   2.044   5.780
30841SOL     OW94419   1.291   0.835  12.244
30841SOL    HW194420   1.350   0.908  12.261
30841SOL    HW294421   1.226   0.870  12.184
30842SOL     OW94422   4.191   1.974  14.062
30842SOL    HW194423   4.272   1.975  14.113
30842SOL    HW294424   4.136   1.908  14.105
30843SOL     OW94425   9.545  10.502   1.804
30843SOL    HW194426   9.638  10.489   1.785
30843SOL    HW294427   9.545  10.557   1.882
30844SOL     OW94428   7.625   1.440   8.245
30844SOL    HW194429   7.695   1.486   8.292
30844SOL    HW294430   7.551   1.440   8.304
30845SOL     OW94431  11.845   3.768   1.008
30845SOL    HW194432  11.934   3.746   1.037
30845SOL    HW294433  11.840   3.864   1.017
30846SOL     OW94434   0.615   3.964  10.533
30846SOL    HW194435   0.670   4.022  10.481
30846SOL    HW294436   0.636   3.876  10.502
30847SOL     OW94437   0.068  10.453  11.623
30847SOL    HW194438   0.146  10.462  11.568
30847SOL    HW294439   0.008  10.520  11.590
30848SOL     OW94440  11.303  14.126   4.865
30848SOL    HW194441  11.290  14.185   4.940
30848SOL    HW294442  11.364  14.060   4.896
30849SOL     OW94443   4.877   0.091  14.485
30849SOL    HW194444   4.880   0.017  14.425
30849SOL    HW294445   4.829   0.057  14.561
30850SOL     OW94446   9.085   3.312  12.743
30850SOL    HW194447   8.996   3.299  12.711
30850SOL    HW294448   9.084   3.278  12.832
30851SOL     OW94449   5.804  12.386   0.567
30851SOL    HW194450   5.718  12.346   0.582
30851SOL    HW294451   5.865  12.313   0.562
30852SOL     OW94452   1.121   6.838  11.592
30852SOL    HW194453   1.101   6.829  11.499
30852SOL    HW294454   1.216   6.845  11.596
30853SOL     OW94455   3.956  13.918   1.285
30853SOL    HW194456   3.976  13.860   1.212
30853SOL    HW294457   3.949  13.861   1.361
30854SOL     OW94458   2.443   5.077   1.552
30854SOL    HW194459   2.482   4.995   1.522
30854SOL    HW294460   2.503   5.145   1.522
30855SOL     OW94461   9.520   9.436  13.962
30855SOL    HW194462   9.575   9.402  14.033
30855SOL    HW294463   9.430   9.422  13.992
30856SOL     OW94464   8.248   0.381   3.532
30856SOL    HW194465   8.212   0.376   3.443
30856SOL    HW294466   8.317   0.447   3.526
30857SOL     OW94467   4.072  14.778  10.279
30857SOL    HW194468   4.113  14.807  10.197
30857SOL    HW294469   4.140  14.726  10.322
30858SOL     OW94470  10.606   5.283   9.485
30858SOL    HW194471  10.539   5.352   9.479
30858SOL    HW294472  10.675   5.321   9.539
30859SOL     OW94473   2.739   9.826   7.710
30859SOL    HW194474   2.750   9.889   7.639
30859SOL    HW294475   2.656   9.851   7.751
30860SOL     OW94476  13.061   4.828  12.410
30860SOL    HW194477  13.151   4.842  12.381
30860SOL    HW294478  13.020   4.777  12.340
30861SOL     OW94479   7.309  13.410   9.529
30861SOL    HW194480   7.299  13.360   9.448
30861SOL    HW294481   7.404  13.414   9.543
30862SOL     OW94482   0.812  10.239   5.324
30862SOL    HW194483   0.773  10.268   5.407
30862SOL    HW294484   0.898  10.204   5.350
30863SOL     OW94485  12.650  10.087   8.495
30863SOL    HW194486  12.610  10.006   8.464
30863SOL    HW294487  12.729  10.096   8.442
30864SOL     OW94488   3.354   0.439  12.419
30864SOL    HW194489   3.435   0.483  12.445
30864SOL    HW294490   3.300   0.509  12.381
30865SOL     OW94491   1.357   5.234   7.954
30865SOL    HW194492   1.295   5.185   8.008
30865SOL    HW294493   1.320   5.322   7.950
30866SOL     OW94494  11.108   7.603   6.245
30866SOL    HW194495  11.055   7.528   6.217
30866SOL    HW294496  11.053   7.649   6.309
30867SOL     OW94497   8.427   4.608  11.465
30867SOL    HW194498   8.472   4.524  11.472
30867SOL    HW294499   8.476   4.656  11.397
30868SOL     OW94500   9.349   2.015  14.411
30868SOL    HW194501   9.359   2.002  14.505
30868SOL    HW294502   9.341   2.110  14.401
30869SOL     OW94503   6.459   4.060  10.121
30869SOL    HW194504   6.539   4.099  10.156
30869SOL    HW294505   6.395   4.070  10.192
30870SOL     OW94506   2.660   5.163  14.139
30870SOL    HW194507   2.737   5.160  14.196
30870SOL    HW294508   2.639   5.071  14.123
30871SOL     OW94509   3.850   0.603  14.180
30871SOL    HW194510   3.828   0.672  14.243
30871SOL    HW294511   3.793   0.530  14.204
30872SOL     OW94512   2.691  12.746   8.609
30872SOL    HW194513   2.641  12.718   8.686
30872SOL    HW294514   2.783  12.741   8.637
30873SOL     OW94515   6.010   2.503   3.091
30873SOL    HW194516   6.071   2.575   3.078
30873SOL    HW294517   6.066   2.427   3.111
30874SOL     OW94518   9.113   9.918   3.636
30874SOL    HW194519   9.174   9.874   3.577
30874SOL    HW294520   9.054   9.848   3.665
30875SOL     OW94521  12.521   2.117   8.463
30875SOL    HW194522  12.595   2.065   8.434
30875SOL    HW294523  12.514   2.187   8.398
30876SOL     OW94524  10.544   2.987   8.401
30876SOL    HW194525  10.455   3.021   8.395
30876SOL    HW294526  10.533   2.894   8.422
30877SOL     OW94527  14.088   0.541  14.504
30877SOL    HW194528  14.046   0.511  14.423
30877SOL    HW294529  14.117   0.630  14.484
30878SOL     OW94530  10.688   6.554   2.372
30878SOL    HW194531  10.763   6.612   2.387
30878SOL    HW294532  10.612   6.610   2.386
30879SOL     OW94533   6.155   8.425   1.204
30879SOL    HW194534   6.153   8.364   1.278
30879SOL    HW294535   6.222   8.390   1.146
30880SOL     OW94536  11.187   0.219   5.494
30880SOL    HW194537  11.261   0.162   5.512
30880SOL    HW294538  11.116   0.185   5.548
30881SOL     OW94539   3.348  13.999   5.622
30881SOL    HW194540   3.396  14.040   5.694
30881SOL    HW294541   3.290  14.069   5.590
30882SOL     OW94542  12.064  12.358  13.569
30882SOL    HW194543  12.044  12.302  13.494
30882SOL    HW294544  12.138  12.411  13.540
30883SOL     OW94545   2.604   7.333   2.177
30883SOL    HW194546   2.549   7.397   2.133
30883SOL    HW294547   2.682   7.327   2.122
30884SOL     OW94548  11.725  14.653   7.926
30884SOL    HW194549  11.803  14.673   7.978
30884SOL    HW294550  11.662  14.722   7.950
30885SOL     OW94551  11.445   2.901   7.358
30885SOL    HW194552  11.365   2.910   7.408
30885SOL    HW294553  11.425   2.834   7.292
30886SOL     OW94554   6.305   1.338  13.463
30886SOL    HW194555   6.268   1.398  13.528
30886SOL    HW294556   6.260   1.255  13.480
30887SOL     OW94557   1.835   0.345  11.957
30887SOL    HW194558   1.877   0.382  11.880
30887SOL    HW294559   1.867   0.255  11.961
30888SOL     OW94560   6.252   9.980  11.705
30888SOL    HW194561   6.208   9.909  11.752
30888SOL    HW294562   6.222   9.972  11.614
30889SOL     OW94563   6.572   6.126   4.588
30889SOL    HW194564   6.568   6.035   4.617
30889SOL    HW294565   6.581   6.177   4.668
30890SOL     OW94566  14.307  12.171   6.793
30890SOL    HW194567  14.299  12.266   6.783
30890SOL    HW294568  14.338  12.141   6.708
30891SOL     OW94569   8.213  10.206   7.054
30891SOL    HW194570   8.254  10.211   6.968
30891SOL    HW294571   8.223  10.295   7.090
30892SOL     OW94572   0.365  12.878  13.923
30892SOL    HW194573   0.375  12.949  13.986
30892SOL    HW294574   0.322  12.919  13.848
30893SOL     OW94575   6.835   5.178   6.697
30893SOL    HW194576   6.791   5.118   6.758
30893SOL    HW294577   6.867   5.122   6.626
30894SOL     OW94578   3.022  13.592   0.847
30894SOL    HW194579   2.937  13.564   0.882
30894SOL    HW294580   3.081  13.519   0.869
30895SOL     OW94581   9.916   9.066  14.458
30895SOL    HW194582   9.890   8.976  14.478
30895SOL    HW294583  10.011   9.066  14.471
30896SOL     OW94584   8.699   3.290   4.799
30896SOL    HW194585   8.683   3.384   4.792
30896SOL    HW294586   8.651   3.263   4.878
30897SOL     OW94587   4.731   1.179   3.697
30897SOL    HW194588   4.686   1.256   3.732
30897SOL    HW294589   4.669   1.107   3.711
30898SOL     OW94590   0.237   8.427   4.346
30898SOL    HW194591   0.165   8.467   4.394
30898SOL    HW294592   0.287   8.501   4.312
30899SOL     OW94593   3.363   0.993   8.479
30899SOL    HW194594   3.357   0.907   8.521
30899SOL    HW294595   3.455   1.002   8.455
30900SOL     OW94596   2.638   3.578   8.623
30900SOL    HW194597   2.713   3.566   8.565
30900SOL    HW294598   2.610   3.668   8.608
30901SOL     OW94599   8.881  14.223   7.767
30901SOL    HW194600   8.832  14.223   7.850
30901SOL    HW294601   8.895  14.131   7.748
30902SOL     OW94602   6.207   2.154   0.548
30902SOL    HW194603   6.259   2.074   0.555
30902SOL    HW294604   6.272   2.224   0.543
30903SOL     OW94605   4.335   2.782   2.884
30903SOL    HW194606   4.308   2.781   2.976
30903SOL    HW294607   4.334   2.875   2.860
30904SOL     OW94608   5.017   9.380  11.410
30904SOL    HW194609   4.954   9.364  11.340
30904SOL    HW294610   5.093   9.419  11.365
30905SOL     OW94611   3.051   3.514  12.027
30905SOL    HW194612   3.061   3.597  12.072
30905SOL    HW294613   2.986   3.466  12.079
30906SOL     OW94614   3.571  14.158   3.667
30906SOL    HW194615   3.578  14.250   3.694
30906SOL    HW294616   3.528  14.115   3.741
30907SOL     OW94617   6.930  13.299  14.657
30907SOL    HW194618   7.013  13.268  14.620
30907SOL    HW294619   6.931  13.269  14.747
30908SOL     OW94620   7.019   6.352   7.703
30908SOL    HW194621   7.109   6.318   7.700
30908SOL    HW294622   6.964   6.274   7.701
30909SOL     OW94623  13.627   2.920   9.381
30909SOL    HW194624  13.557   2.892   9.439
30909SOL    HW294625  13.699   2.859   9.398
30910SOL     OW94626  14.491   3.038   7.918
30910SOL    HW194627  14.488   3.008   8.009
30910SOL    HW294628  14.468   3.131   7.923
30911SOL     OW94629   9.170  12.716   0.332
30911SOL    HW194630   9.173  12.811   0.317
30911SOL    HW294631   9.195  12.705   0.424
30912SOL     OW94632  12.729   0.248   3.037
30912SOL    HW194633  12.696   0.303   3.108
30912SOL    HW294634  12.824   0.253   3.045
30913SOL     OW94635  12.665  10.903   6.229
30913SOL    HW194636  12.612  10.827   6.205
30913SOL    HW294637  12.603  10.967   6.264
30914SOL     OW94638  13.970   4.428   7.009
30914SOL    HW194639  13.919   4.471   6.941
30914SOL    HW294640  13.945   4.473   7.090
30915SOL     OW94641   1.568  12.701   6.979
30915SOL    HW194642   1.650  12.693   7.027
30915SOL    HW294643   1.570  12.790   6.942
30916SOL     OW94644   1.107  11.203   4.358
30916SOL    HW194645   1.096  11.168   4.446
30916SOL    HW294646   1.022  11.190   4.316
30917SOL     OW94647   2.995  13.838   4.802
30917SOL    HW194648   2.911  13.878   4.780
30917SOL    HW294649   3.044  13.908   4.844
30918SOL     OW94650   2.684   5.770   7.880
30918SOL    HW194651   2.712   5.808   7.797
30918SOL    HW294652   2.706   5.677   7.872
30919SOL     OW94653   0.477   4.871   0.170
30919SOL    HW194654   0.392   4.833   0.192
30919SOL    HW294655   0.479   4.871   0.074
30920SOL     OW94656   1.849   4.821   1.869
30920SOL    HW194657   1.850   4.895   1.930
30920SOL    HW294658   1.923   4.767   1.897
30921SOL     OW94659   4.789  14.834  11.948
30921SOL    HW194660   4.804  14.742  11.927
30921SOL    HW294661   4.743  14.832  12.031
30922SOL     OW94662   8.952  11.702   7.573
30922SOL    HW194663   8.912  11.712   7.659
30922SOL    HW294664   8.937  11.611   7.550
30923SOL     OW94665   5.458   2.787   7.022
30923SOL    HW194666   5.376   2.814   7.063
30923SOL    HW294667   5.434   2.711   6.969
30924SOL     OW94668   3.182   3.494  13.936
30924SOL    HW194669   3.199   3.411  13.891
30924SOL    HW294670   3.103   3.479  13.986
30925SOL     OW94671   7.313   2.638  10.993
30925SOL    HW194672   7.321   2.707  10.928
30925SOL    HW294673   7.282   2.684  11.072
30926SOL     OW94674  14.623   3.531  13.583
30926SOL    HW194675  14.656   3.487  13.661
30926SOL    HW294676  14.629   3.465  13.514
30927SOL     OW94677   7.756   0.650   6.317
30927SOL    HW194678   7.714   0.710   6.255
30927SOL    HW294679   7.820   0.602   6.265
30928SOL     OW94680   0.261  14.533   6.133
30928SOL    HW194681   0.185  14.553   6.077
30928SOL    HW294682   0.227  14.472   6.198
30929SOL     OW94683  14.033  11.694   0.481
30929SOL    HW194684  13.993  11.613   0.511
30929SOL    HW294685  14.091  11.667   0.410
30930SOL     OW94686  12.334   4.247   4.911
30930SOL    HW194687  12.352   4.336   4.880
30930SOL    HW294688  12.285   4.206   4.839
30931SOL     OW94689  11.448   4.723   1.537
30931SOL    HW194690  11.383   4.721   1.608
30931SOL    HW294691  11.479   4.813   1.535
30932SOL     OW94692   4.558   1.478   8.900
30932SOL    HW194693   4.508   1.492   8.819
30932SOL    HW294694   4.617   1.553   8.905
30933SOL     OW94695   5.269   5.099  11.682
30933SOL    HW194696   5.223   5.031  11.635
30933SOL    HW294697   5.283   5.063  11.770
30934SOL     OW94698   7.829  12.102   1.099
30934SOL    HW194699   7.838  12.031   1.163
30934SOL    HW294700   7.897  12.085   1.034
30935SOL     OW94701   6.558   2.642   1.226
30935SOL    HW194702   6.463   2.627   1.230
30935SOL    HW294703   6.575   2.656   1.132
30936SOL     OW94704  10.291  11.458   4.310
30936SOL    HW194705  10.269  11.380   4.361
30936SOL    HW294706  10.210  11.484   4.268
30937SOL     OW94707  11.885   4.244   5.949
30937SOL    HW194708  11.802   4.262   5.904
30937SOL    HW294709  11.859   4.199   6.029
30938SOL     OW94710   4.926   6.980  14.411
30938SOL    HW194711   4.927   7.060  14.358
30938SOL    HW294712   4.990   6.997  14.480
30939SOL     OW94713   5.261   9.754   3.903
30939SOL    HW194714   5.243   9.698   3.827
30939SOL    HW294715   5.355   9.771   3.899
30940SOL     OW94716   4.877   1.007   9.929
30940SOL    HW194717   4.933   1.084   9.937
30940SOL    HW294718   4.864   0.997   9.835
30941SOL     OW94719  14.325  10.199   6.301
30941SOL    HW194720  14.379  10.191   6.380
30941SOL    HW294721  14.382  10.242   6.237
30942SOL     OW94722  11.504   4.717   4.119
30942SOL    HW194723  11.575   4.663   4.155
30942SOL    HW294724  11.449   4.737   4.194
30943SOL     OW94725  11.405   2.968   5.975
30943SOL    HW194726  11.327   2.923   5.943
30943SOL    HW294727  11.372   3.026   6.044
30944SOL     OW94728   8.968  10.898   5.513
30944SOL    HW194729   9.000  10.814   5.480
30944SOL    HW294730   8.999  10.963   5.449
30945SOL     OW94731   5.092  11.933  12.068
30945SOL    HW194732   5.131  11.851  12.035
30945SOL    HW294733   5.148  11.957  12.142
30946SOL     OW94734   3.679   1.035   8.453
30946SOL    HW194735   3.758   0.981   8.445
30946SOL    HW294736   3.685   1.098   8.381
30947SOL     OW94737   5.545  12.997  12.702
30947SOL    HW194738   5.626  13.034  12.738
30947SOL    HW294739   5.527  12.920  12.756
30948SOL     OW94740  12.761  14.213   4.383
30948SOL    HW194741  12.803  14.249   4.461
30948SOL    HW294742  12.801  14.259   4.310
30949SOL     OW94743   6.042  10.680   3.870
30949SOL    HW194744   6.049  10.618   3.797
30949SOL    HW294745   6.107  10.649   3.933
30950SOL     OW94746   3.726  10.932  13.169
30950SOL    HW194747   3.669  10.987  13.222
30950SOL    HW294748   3.784  10.993  13.124
30951SOL     OW94749   4.025  12.716   7.764
30951SOL    HW194750   3.970  12.788   7.735
30951SOL    HW294751   4.098  12.757   7.810
30952SOL     OW94752   7.444   3.074  11.735
30952SOL    HW194753   7.504   3.001  11.723
30952SOL    HW294754   7.386   3.047  11.806
30953SOL     OW94755  13.695   5.129  13.731
30953SOL    HW194756  13.654   5.174  13.657
30953SOL    HW294757  13.623   5.117  13.794
30954SOL     OW94758  10.389   5.395  11.163
30954SOL    HW194759  10.388   5.447  11.082
30954SOL    HW294760  10.473   5.349  11.160
30955SOL     OW94761   5.732   8.299   1.922
30955SOL    HW194762   5.817   8.268   1.954
30955SOL    HW294763   5.748   8.322   1.831
30956SOL     OW94764  11.829  13.017   7.767
30956SOL    HW194765  11.901  13.007   7.705
30956SOL    HW294766  11.760  13.061   7.717
30957SOL     OW94767  11.295  10.638  13.241
30957SOL    HW194768  11.326  10.618  13.330
30957SOL    HW294769  11.206  10.670  13.254
30958SOL     OW94770   4.526  10.115   1.907
30958SOL    HW194771   4.571  10.199   1.913
30958SOL    HW294772   4.509  10.091   1.998
30959SOL     OW94773   8.978   9.657   2.687
30959SOL    HW194774   8.904   9.642   2.745
30959SOL    HW294775   8.983   9.752   2.679
30960SOL     OW94776   0.112   0.732   3.115
30960SOL    HW194777   0.070   0.814   3.087
30960SOL    HW294778   0.159   0.756   3.196
30961SOL     OW94779   3.891   5.307   3.472
30961SOL    HW194780   3.812   5.264   3.440
30961SOL    HW294781   3.940   5.238   3.517
30962SOL     OW94782   7.215  13.519   5.316
30962SOL    HW194783   7.237  13.610   5.294
30962SOL    HW294784   7.296  13.483   5.353
30963SOL     OW94785  10.322  10.511  10.119
30963SOL    HW194786  10.406  10.465  10.122
30963SOL    HW294787  10.302  10.530  10.210
30964SOL     OW94788  11.632  12.503   8.413
30964SOL    HW194789  11.717  12.461   8.403
30964SOL    HW294790  11.650  12.597   8.406
30965SOL     OW94791   1.720   0.859   0.751
30965SOL    HW194792   1.694   0.894   0.836
30965SOL    HW294793   1.659   0.787   0.734
30966SOL     OW94794   0.592   8.163  14.340
30966SOL    HW194795   0.535   8.236  14.314
30966SOL    HW294796   0.553   8.130  14.421
30967SOL     OW94797  13.072   6.463   7.009
30967SOL    HW194798  13.026   6.504   6.936
30967SOL    HW294799  13.004   6.412   7.054
30968SOL     OW94800   6.233  14.559   0.639
30968SOL    HW194801   6.221  14.648   0.671
30968SOL    HW294802   6.259  14.509   0.716
30969SOL     OW94803   7.560   7.308   6.834
30969SOL    HW194804   7.616   7.281   6.906
30969SOL    HW294805   7.506   7.378   6.870
30970SOL     OW94806   3.349   1.144  12.074
30970SOL    HW194807   3.300   1.221  12.045
30970SOL    HW294808   3.433   1.178  12.103
30971SOL     OW94809  12.355   4.021  10.055
30971SOL    HW194810  12.281   3.996  10.000
30971SOL    HW294811  12.389   3.938  10.089
30972SOL     OW94812   7.502   1.750   1.485
30972SOL    HW194813   7.551   1.822   1.523
30972SOL    HW294814   7.568   1.683   1.466
30973SOL     OW94815   4.385   1.190  14.822
30973SOL    HW194816   4.343   1.221   0.022
30973SOL    HW294817   4.383   1.095  14.829
30974SOL     OW94818   6.288  11.409   8.453
30974SOL    HW194819   6.227  11.452   8.393
30974SOL    HW294820   6.364  11.467   8.455
30975SOL     OW94821   5.643   5.196   1.936
30975SOL    HW194822   5.698   5.274   1.928
30975SOL    HW294823   5.691   5.128   1.888
30976SOL     OW94824  10.802   4.590   3.702
30976SOL    HW194825  10.802   4.538   3.621
30976SOL    HW294826  10.713   4.626   3.706
30977SOL     OW94827  13.579   2.072  13.336
30977SOL    HW194828  13.510   2.099  13.397
30977SOL    HW294829  13.648   2.037  13.392
30978SOL     OW94830  14.293   8.576  10.774
30978SOL    HW194831  14.198   8.576  10.771
30978SOL    HW294832  14.315   8.612  10.860
30979SOL     OW94833   4.817   5.974  11.126
30979SOL    HW194834   4.757   5.926  11.183
30979SOL    HW294835   4.792   6.065  11.136
30980SOL     OW94836   4.595  14.025  13.747
30980SOL    HW194837   4.519  14.070  13.785
30980SOL    HW294838   4.611  13.952  13.807
30981SOL     OW94839  11.959   2.204   3.566
30981SOL    HW194840  11.975   2.255   3.645
30981SOL    HW294841  12.025   2.235   3.504
30982SOL     OW94842  13.231   4.886   4.057
30982SOL    HW194843  13.266   4.865   3.971
30982SOL    HW294844  13.208   4.802   4.095
30983SOL     OW94845   4.021   2.668   0.436
30983SOL    HW194846   4.087   2.616   0.482
30983SOL    HW294847   4.035   2.649   0.344
30984SOL     OW94848   4.240  12.744   8.108
30984SOL    HW194849   4.150  12.736   8.140
30984SOL    HW294850   4.232  12.785   8.022
30985SOL     OW94851  10.173   9.625   7.132
30985SOL    HW194852  10.146   9.715   7.148
30985SOL    HW294853  10.189   9.621   7.038
30986SOL     OW94854   2.721  13.399   5.734
30986SOL    HW194855   2.676  13.373   5.814
30986SOL    HW294856   2.802  13.442   5.765
30987SOL     OW94857   8.337   3.707   8.005
30987SOL    HW194858   8.381   3.763   7.942
30987SOL    HW294859   8.286   3.768   8.060
30988SOL     OW94860   8.779  11.935  10.048
30988SOL    HW194861   8.739  12.018  10.021
30988SOL    HW294862   8.715  11.896  10.108
30989SOL     OW94863   7.287  11.026   6.642
30989SOL    HW194864   7.305  11.080   6.719
30989SOL    HW294865   7.197  10.995   6.654
30990SOL     OW94866   6.387   0.209   1.610
30990SOL    HW194867   6.420   0.241   1.526
30990SOL    HW294868   6.324   0.276   1.638
30991SOL     OW94869   3.699  12.881   8.576
30991SOL    HW194870   3.604  12.894   8.576
30991SOL    HW294871   3.713  12.802   8.627
30992SOL     OW94872   2.033   0.072  11.899
30992SOL    HW194873   1.968   0.004  11.912
30992SOL    HW294874   2.041   0.080  11.804
30993SOL     OW94875   7.942   7.669   2.004
30993SOL    HW194876   7.966   7.722   1.928
30993SOL    HW294877   7.960   7.579   1.977
30994SOL     OW94878  14.359   1.869   2.683
30994SOL    HW194879  14.328   1.922   2.610
30994SOL    HW294880  14.279   1.835   2.724
30995SOL     OW94881   7.978   4.789   9.625
30995SOL    HW194882   8.015   4.844   9.556
30995SOL    HW294883   7.963   4.704   9.583
30996SOL     OW94884   4.756   9.537  11.214
30996SOL    HW194885   4.692   9.475  11.179
30996SOL    HW294886   4.747   9.615  11.160
30997SOL     OW94887  13.039   0.936   8.153
30997SOL    HW194888  13.126   0.961   8.122
30997SOL    HW294889  12.980   0.960   8.081
30998SOL     OW94890   1.522   4.855   2.766
30998SOL    HW194891   1.534   4.884   2.675
30998SOL    HW294892   1.440   4.896   2.794
30999SOL     OW94893  11.943   3.296  12.331
30999SOL    HW194894  11.960   3.383  12.367
30999SOL    HW294895  11.892   3.252  12.399
31000SOL     OW94896  10.023   4.271  14.617
31000SOL    HW194897  10.113   4.247  14.594
31000SOL    HW294898   9.970   4.242  14.543
31001SOL     OW94899  10.871  13.306  12.441
31001SOL    HW194900  10.899  13.293  12.350
31001SOL    HW294901  10.823  13.389  12.440
31002SOL     OW94902   7.309   8.115   7.416
31002SOL    HW194903   7.320   8.192   7.361
31002SOL    HW294904   7.364   8.048   7.375
31003SOL     OW94905   5.004  11.782  13.541
31003SOL    HW194906   5.057  11.822  13.611
31003SOL    HW294907   4.968  11.857  13.493
31004SOL     OW94908   5.930   9.725   5.572
31004SOL    HW194909   5.891   9.645   5.606
31004SOL    HW294910   6.009   9.738   5.626
31005SOL     OW94911   4.882  11.860   7.860
31005SOL    HW194912   4.835  11.782   7.832
31005SOL    HW294913   4.974  11.839   7.843
31006SOL     OW94914   7.444   5.337   7.321
31006SOL    HW194915   7.501   5.289   7.261
31006SOL    HW294916   7.444   5.426   7.287
31007SOL     OW94917   1.650   1.412   8.671
31007SOL    HW194918   1.707   1.482   8.637
31007SOL    HW294919   1.658   1.419   8.766
31008SOL     OW94920   7.456   0.555   6.179
31008SOL    HW194921   7.496   0.637   6.208
31008SOL    HW294922   7.492   0.489   6.238
31009SOL     OW94923   7.732   9.470   4.109
31009SOL    HW194924   7.772   9.398   4.156
31009SOL    HW294925   7.661   9.429   4.059
31010SOL     OW94926  13.524  10.321  13.090
31010SOL    HW194927  13.506  10.231  13.064
31010SOL    HW294928  13.583  10.313  13.165
31011SOL     OW94929  14.372   1.036   2.875
31011SOL    HW194930  14.437   0.989   2.823
31011SOL    HW294931  14.313   0.968   2.906
31012SOL     OW94932   6.384   0.955   7.835
31012SOL    HW194933   6.439   0.918   7.766
31012SOL    HW294934   6.335   1.024   7.792
31013SOL     OW94935   7.657   6.071   3.240
31013SOL    HW194936   7.591   6.003   3.247
31013SOL    HW294937   7.734   6.026   3.204
31014SOL     OW94938   3.739  14.642   3.315
31014SOL    HW194939   3.729  14.555   3.275
31014SOL    HW294940   3.679  14.640   3.389
31015SOL     OW94941  14.724   5.330   3.957
31015SOL    HW194942  14.768   5.337   3.872
31015SOL    HW294943  14.762   5.399   4.010
31016SOL     OW94944   2.852  10.898   1.191
31016SOL    HW194945   2.785  10.914   1.124
31016SOL    HW294946   2.927  10.950   1.163
31017SOL     OW94947   7.302   7.486  11.672
31017SOL    HW194948   7.371   7.527  11.724
31017SOL    HW294949   7.252   7.560  11.637
31018SOL     OW94950  10.417   9.127   8.608
31018SOL    HW194951  10.488   9.084   8.560
31018SOL    HW294952  10.455   9.150   8.692
31019SOL     OW94953  10.260  12.382   8.507
31019SOL    HW194954  10.355  12.383   8.517
31019SOL    HW294955  10.239  12.466   8.467
31020SOL     OW94956   1.386  13.308  14.627
31020SOL    HW194957   1.401  13.396  14.663
31020SOL    HW294958   1.298  13.313  14.588
31021SOL     OW94959  11.864  11.968   1.511
31021SOL    HW194960  11.833  11.955   1.600
31021SOL    HW294961  11.850  11.883   1.468
31022SOL     OW94962  11.340   4.743  10.026
31022SOL    HW194963  11.428   4.706  10.025
31022SOL    HW294964  11.335   4.795   9.946
31023SOL     OW94965   0.135   6.052   7.225
31023SOL    HW194966   0.172   5.972   7.188
31023SOL    HW294967   0.071   6.021   7.289
31024SOL     OW94968  10.223   5.674   3.846
31024SOL    HW194969  10.265   5.656   3.930
31024SOL    HW294970  10.131   5.687   3.868
31025SOL     OW94971   1.688  14.252   5.647
31025SOL    HW194972   1.764  14.300   5.614
31025SOL    HW294973   1.685  14.274   5.740
31026SOL     OW94974   5.102  12.896  10.012
31026SOL    HW194975   5.109  12.824  10.075
31026SOL    HW294976   5.191  12.933  10.008
31027SOL     OW94977   3.905  10.274  14.183
31027SOL    HW194978   3.913  10.363  14.149
31027SOL    HW294979   3.994  10.241  14.186
31028SOL     OW94980  12.214   5.368  13.973
31028SOL    HW194981  12.176   5.390  13.888
31028SOL    HW294982  12.138   5.349  14.029
31029SOL     OW94983  11.558   4.290   6.488
31029SOL    HW194984  11.574   4.311   6.396
31029SOL    HW294985  11.572   4.373   6.534
31030SOL     OW94986   5.328   6.191  10.702
31030SOL    HW194987   5.415   6.231  10.697
31030SOL    HW294988   5.300   6.183  10.611
31031SOL     OW94989   3.370   0.338  13.830
31031SOL    HW194990   3.447   0.324  13.774
31031SOL    HW294991   3.296   0.337  13.769
31032SOL     OW94992   1.212   1.241   7.071
31032SOL    HW194993   1.174   1.207   7.152
31032SOL    HW294994   1.142   1.231   7.006
31033SOL     OW94995   7.702   4.129   0.647
31033SOL    HW194996   7.676   4.203   0.701
31033SOL    HW294997   7.641   4.059   0.669
31034SOL     OW94998  12.909  11.930   2.927
31034SOL    HW194999  12.969  11.914   2.854
31034SOL    HW295000  12.826  11.953   2.885
31035SOL     OW95001   0.461   5.593   1.346
31035SOL    HW195002   0.424   5.633   1.267
31035SOL    HW295003   0.427   5.646   1.418
31036SOL     OW95004  11.922   2.537  14.665
31036SOL    HW195005  11.876   2.475  14.723
31036SOL    HW295006  11.869   2.539  14.586
31037SOL     OW95007   2.774   2.511  12.686
31037SOL    HW195008   2.861   2.482  12.712
31037SOL    HW295009   2.766   2.487  12.594
31038SOL     OW95010  13.931  12.381  11.452
31038SOL    HW195011  13.841  12.388  11.422
31038SOL    HW295012  13.983  12.376  11.372
31039SOL     OW95013  10.199  14.461   8.003
31039SOL    HW195014  10.223  14.537   8.055
31039SOL    HW295015  10.283  14.417   7.985
31040SOL     OW95016  13.161   0.229   6.924
31040SOL    HW195017  13.229   0.289   6.895
31040SOL    HW295018  13.165   0.231   7.020
31041SOL     OW95019   2.242   4.946  10.582
31041SOL    HW195020   2.150   4.974  10.587
31041SOL    HW295021   2.251   4.883  10.653
31042SOL     OW95022   8.942   3.595  12.849
31042SOL    HW195023   8.890   3.523  12.813
31042SOL    HW295024   9.008   3.552  12.903
31043SOL     OW95025   2.507   0.820   6.161
31043SOL    HW195026   2.547   0.733   6.161
31043SOL    HW295027   2.437   0.815   6.097
31044SOL     OW95028   7.891  10.900   1.782
31044SOL    HW195029   7.914  10.883   1.690
31044SOL    HW295030   7.881  10.995   1.787
31045SOL     OW95031   5.255  12.213   5.319
31045SOL    HW195032   5.169  12.255   5.327
31045SOL    HW295033   5.236  12.122   5.296
31046SOL     OW95034   6.559  11.589  14.702
31046SOL    HW195035   6.648  11.616  14.679
31046SOL    HW295036   6.514  11.579  14.618
31047SOL     OW95037   4.426  10.880   9.951
31047SOL    HW195038   4.489  10.845   9.888
31047SOL    HW295039   4.400  10.965   9.915
31048SOL     OW95040  11.564   8.660   6.002
31048SOL    HW195041  11.501   8.602   6.045
31048SOL    HW295042  11.511   8.711   5.941
31049SOL     OW95043   7.056  14.808   6.148
31049SOL    HW195044   7.077   0.003   6.204
31049SOL    HW295045   7.015  14.745   6.207
31050SOL     OW95046  11.233  14.797   4.173
31050SOL    HW195047  11.318  14.833   4.146
31050SOL    HW295048  11.225  14.715   4.125
31051SOL     OW95049   9.266   9.521   2.272
31051SOL    HW195050   9.269   9.524   2.367
31051SOL    HW295051   9.256   9.428   2.250
31052SOL     OW95052   4.551   5.317   1.126
31052SOL    HW195053   4.548   5.302   1.031
31052SOL    HW295054   4.601   5.243   1.161
31053SOL     OW95055   9.395   5.893   7.523
31053SOL    HW195056   9.480   5.875   7.564
31053SOL    HW295057   9.416   5.948   7.448
31054SOL     OW95058   8.373  12.282   3.398
31054SOL    HW195059   8.343  12.334   3.323
31054SOL    HW295060   8.467  12.303   3.405
31055SOL     OW95061  10.668   6.929  13.612
31055SOL    HW195062  10.669   6.912  13.706
31055SOL    HW295063  10.575   6.941  13.591
31056SOL     OW95064   6.028  13.827   2.650
31056SOL    HW195065   6.079  13.822   2.569
31056SOL    HW295066   5.957  13.888   2.630
31057SOL     OW95067   2.051  10.608  13.703
31057SOL    HW195068   2.096  10.653  13.774
31057SOL    HW295069   2.072  10.516  13.716
31058SOL     OW95070   6.737   7.374   7.346
31058SOL    HW195071   6.809   7.320   7.378
31058SOL    HW295072   6.743   7.368   7.251
31059SOL     OW95073   4.167   4.921   3.762
31059SOL    HW195074   4.152   4.927   3.856
31059SOL    HW295075   4.216   4.839   3.751
31060SOL     OW95076   0.309   0.272   2.746
31060SOL    HW195077   0.405   0.273   2.749
31060SOL    HW295078   0.284   0.205   2.810
31061SOL     OW95079  11.982   5.849  13.045
31061SOL    HW195080  12.023   5.823  13.128
31061SOL    HW295081  11.917   5.915  13.070
31062SOL     OW95082  13.331   5.424   1.984
31062SOL    HW195083  13.339   5.367   1.908
31062SOL    HW295084  13.243   5.461   1.977
31063SOL     OW95085   8.760   2.762   2.251
31063SOL    HW195086   8.725   2.675   2.236
31063SOL    HW295087   8.846   2.748   2.291
31064SOL     OW95088   5.976   7.468   7.822
31064SOL    HW195089   6.010   7.556   7.833
31064SOL    HW295090   5.928   7.450   7.903
31065SOL     OW95091   4.585  11.976   6.327
31065SOL    HW195092   4.492  11.959   6.320
31065SOL    HW295093   4.591  12.062   6.370
31066SOL     OW95094   8.356   5.859   6.686
31066SOL    HW195095   8.405   5.940   6.701
31066SOL    HW295096   8.265   5.881   6.707
31067SOL     OW95097   0.887   4.518   0.487
31067SOL    HW195098   0.847   4.513   0.400
31067SOL    HW295099   0.906   4.427   0.510
31068SOL     OW95100   2.061   3.034   3.495
31068SOL    HW195101   2.042   3.126   3.508
31068SOL    HW295102   2.106   3.006   3.575
31069SOL     OW95103   9.910  13.167   7.770
31069SOL    HW195104   9.951  13.112   7.836
31069SOL    HW295105   9.972  13.166   7.697
31070SOL     OW95106   8.374  11.435   5.764
31070SOL    HW195107   8.451  11.474   5.724
31070SOL    HW295108   8.300  11.476   5.719
31071SOL     OW95109   0.155  11.246  11.240
31071SOL    HW195110   0.216  11.280  11.305
31071SOL    HW295111   0.160  11.308  11.167
31072SOL     OW95112  12.081   1.577  11.895
31072SOL    HW195113  12.045   1.532  11.819
31072SOL    HW295114  12.174   1.587  11.875
31073SOL     OW95115  14.162  14.115   6.113
31073SOL    HW195116  14.253  14.098   6.089
31073SOL    HW295117  14.164  14.199   6.158
31074SOL     OW95118   5.918   5.398   4.553
31074SOL    HW195119   5.969   5.372   4.476
31074SOL    HW295120   5.828   5.406   4.520
31075SOL     OW95121  12.724  13.114   0.192
31075SOL    HW195122  12.699  13.187   0.135
31075SOL    HW295123  12.682  13.038   0.152
31076SOL     OW95124   4.748   9.194   5.092
31076SOL    HW195125   4.691   9.119   5.073
31076SOL    HW295126   4.832   9.154   5.116
31077SOL     OW95127   7.851  12.473   2.507
31077SOL    HW195128   7.831  12.552   2.457
31077SOL    HW295129   7.940  12.486   2.539
31078SOL     OW95130   5.823   8.774  11.822
31078SOL    HW195131   5.878   8.705  11.858
31078SOL    HW295132   5.859   8.791  11.735
31079SOL     OW95133   0.778  10.454   8.672
31079SOL    HW195134   0.683  10.444   8.665
31079SOL    HW295135   0.791  10.549   8.680
31080SOL     OW95136   2.945  13.580  12.122
31080SOL    HW195137   2.969  13.629  12.200
31080SOL    HW295138   2.859  13.614  12.097
31081SOL     OW95139  10.786   3.541  13.831
31081SOL    HW195140  10.879   3.541  13.810
31081SOL    HW295141  10.775   3.468  13.892
31082SOL     OW95142   6.873  10.386  10.053
31082SOL    HW195143   6.778  10.387  10.069
31082SOL    HW295144   6.889  10.303  10.008
31083SOL     OW95145   6.784  12.899   6.930
31083SOL    HW195146   6.860  12.898   6.988
31083SOL    HW295147   6.802  12.830   6.866
31084SOL     OW95148   8.437   6.243   5.240
31084SOL    HW195149   8.344   6.256   5.253
31084SOL    HW295150   8.444   6.192   5.159
31085SOL     OW95151   8.226   1.014   0.202
31085SOL    HW195152   8.139   0.994   0.236
31085SOL    HW295153   8.285   0.998   0.275
31086SOL     OW95154   8.508  10.621   6.695
31086SOL    HW195155   8.506  10.654   6.605
31086SOL    HW295156   8.495  10.698   6.750
31087SOL     OW95157  10.677   9.987   6.776
31087SOL    HW195158  10.726  10.033   6.708
31087SOL    HW295159  10.625   9.922   6.729
31088SOL     OW95160   0.494   5.748  14.591
31088SOL    HW195161   0.403   5.774  14.576
31088SOL    HW295162   0.538   5.764  14.508
31089SOL     OW95163   9.309   8.018   3.096
31089SOL    HW195164   9.357   7.995   3.016
31089SOL    HW295165   9.236   8.071   3.065
31090SOL     OW95166  13.759  11.813  11.804
31090SOL    HW195167  13.682  11.831  11.858
31090SOL    HW295168  13.731  11.743  11.745
31091SOL     OW95169   9.777   0.746   5.043
31091SOL    HW195170   9.733   0.743   4.958
31091SOL    HW295171   9.749   0.666   5.087
31092SOL     OW95172  11.998  14.715   8.650
31092SOL    HW195173  11.977  14.807   8.640
31092SOL    HW295174  11.983  14.677   8.563
31093SOL     OW95175   7.409  12.692   0.542
31093SOL    HW195176   7.340  12.734   0.594
31093SOL    HW295177   7.393  12.598   0.551
31094SOL     OW95178   5.298  12.954   6.478
31094SOL    HW195179   5.271  12.973   6.568
31094SOL    HW295180   5.393  12.945   6.482
31095SOL     OW95181   5.126   1.231   1.007
31095SOL    HW195182   5.102   1.318   0.975
31095SOL    HW295183   5.119   1.175   0.930
31096SOL     OW95184   5.905   5.803  14.649
31096SOL    HW195185   5.964   5.830  14.720
31096SOL    HW295186   5.898   5.880  14.593
31097SOL     OW95187  14.043   0.561  13.638
31097SOL    HW195188  14.097   0.620  13.691
31097SOL    HW295189  14.096   0.482  13.629
31098SOL     OW95190   7.263  10.658   4.810
31098SOL    HW195191   7.258  10.704   4.894
31098SOL    HW295192   7.258  10.728   4.745
31099SOL     OW95193   3.573  10.250   7.015
31099SOL    HW195194   3.613  10.230   7.099
31099SOL    HW295195   3.486  10.210   7.020
31100SOL     OW95196   0.078  11.940  10.461
31100SOL    HW195197   0.041  12.006  10.403
31100SOL    HW295198   0.030  11.860  10.439
31101SOL     OW95199   1.901   1.787   0.833
31101SOL    HW195200   1.854   1.864   0.799
31101SOL    HW295201   1.833   1.721   0.846
31102SOL     OW95202   4.410  11.730  11.319
31102SOL    HW195203   4.431  11.777  11.238
31102SOL    HW295204   4.487  11.744  11.375
31103SOL     OW95205  14.190  12.772   2.243
31103SOL    HW195206  14.217  12.702   2.184
31103SOL    HW295207  14.147  12.727   2.316
31104SOL     OW95208   5.959  12.531   7.090
31104SOL    HW195209   5.872  12.494   7.077
31104SOL    HW295210   5.959  12.557   7.182
31105SOL     OW95211   9.968  11.085   2.792
31105SOL    HW195212  10.014  11.004   2.815
31105SOL    HW295213   9.975  11.140   2.870
31106SOL     OW95214   6.193   2.625  11.302
31106SOL    HW195215   6.106   2.598  11.330
31106SOL    HW295216   6.177   2.688  11.231
31107SOL     OW95217   7.413  10.241   6.580
31107SOL    HW195218   7.396  10.204   6.493
31107SOL    HW295219   7.427  10.165   6.636
31108SOL     OW95220  13.658   0.514   5.473
31108SOL    HW195221  13.630   0.493   5.384
31108SOL    HW295222  13.664   0.610   5.474
31109SOL     OW95223   2.816   9.754   0.518
31109SOL    HW195224   2.723   9.776   0.533
31109SOL    HW295225   2.838   9.692   0.587
31110SOL     OW95226   7.935   3.174   4.547
31110SOL    HW195227   7.856   3.139   4.506
31110SOL    HW295228   7.913   3.179   4.641
31111SOL     OW95229   0.445   9.540   5.935
31111SOL    HW195230   0.485   9.624   5.961
31111SOL    HW295231   0.484   9.476   5.994
31112SOL     OW95232   7.756   4.619   9.326
31112SOL    HW195233   7.674   4.573   9.345
31112SOL    HW295234   7.743   4.707   9.361
31113SOL     OW95235  10.915   3.684  14.791
31113SOL    HW195236  10.957   3.599  14.800
31113SOL    HW295237  10.871   3.680  14.706
31114SOL     OW95238  11.556  10.039   2.629
31114SOL    HW195239  11.530  10.074   2.714
31114SOL    HW295240  11.537   9.945   2.635
31115SOL     OW95241   8.395   0.984  10.256
31115SOL    HW195242   8.311   1.025  10.235
31115SOL    HW295243   8.460   1.045  10.221
31116SOL     OW95244   6.017  11.668  14.521
31116SOL    HW195245   5.943  11.648  14.578
31116SOL    HW295246   6.079  11.596  14.536
31117SOL     OW95247   9.066   4.602  14.200
31117SOL    HW195248   9.060   4.557  14.115
31117SOL    HW295249   9.001   4.673  14.193
31118SOL     OW95250  10.833  11.093   5.281
31118SOL    HW195251  10.740  11.073   5.265
31118SOL    HW295252  10.854  11.047   5.362
31119SOL     OW95253   1.984  11.207  13.587
31119SOL    HW195254   1.948  11.287  13.626
31119SOL    HW295255   2.049  11.239  13.524
31120SOL     OW95256   8.618   1.100   1.985
31120SOL    HW195257   8.676   1.031   2.018
31120SOL    HW295258   8.593   1.149   2.063
31121SOL     OW95259  12.214   2.001   8.242
31121SOL    HW195260  12.193   2.061   8.170
31121SOL    HW295261  12.282   2.046   8.292
31122SOL     OW95262   2.074  13.535   9.604
31122SOL    HW195263   2.076  13.443   9.579
31122SOL    HW295264   1.983  13.551   9.631
31123SOL     OW95265   5.010  10.069   9.951
31123SOL    HW195266   5.060  10.084  10.031
31123SOL    HW295267   4.985  10.157   9.922
31124SOL     OW95268  13.545   6.085   6.364
31124SOL    HW195269  13.594   6.165   6.382
31124SOL    HW295270  13.579   6.054   6.280
31125SOL     OW95271   4.307  14.541  11.643
31125SOL    HW195272   4.318  14.575  11.732
31125SOL    HW295273   4.230  14.484  11.649
31126SOL     OW95274   3.315   0.660  12.242
31126SOL    HW195275   3.307   0.588  12.180
31126SOL    HW295276   3.244   0.720  12.220
31127SOL     OW95277   1.162  13.093   2.301
31127SOL    HW195278   1.169  13.188   2.306
31127SOL    HW295279   1.251  13.061   2.313
31128SOL     OW95280  13.719   0.190   1.956
31128SOL    HW195281  13.671   0.173   1.875
31128SOL    HW295282  13.797   0.239   1.927
31129SOL     OW95283   9.962   1.851  14.588
31129SOL    HW195284   9.881   1.807  14.613
31129SOL    HW295285  10.014   1.854  14.668
31130SOL     OW95286   8.935   0.221  11.812
31130SOL    HW195287   8.925   0.128  11.833
31130SOL    HW295288   8.939   0.224  11.717
31131SOL     OW95289   1.493   5.419  11.206
31131SOL    HW195290   1.401   5.435  11.225
31131SOL    HW295291   1.538   5.438  11.289
31132SOL     OW95292   5.484   8.957   3.836
31132SOL    HW195293   5.558   8.898   3.822
31132SOL    HW295294   5.443   8.965   3.750
31133SOL     OW95295   1.343  11.042  14.807
31133SOL    HW195296   1.295  11.080  14.733
31133SOL    HW295297   1.298  11.076   0.005
31134SOL     OW95298   6.113  12.931   3.277
31134SOL    HW195299   6.110  12.884   3.360
31134SOL    HW295300   6.166  13.008   3.295
31135SOL     OW95301  11.378  13.836  11.935
31135SOL    HW195302  11.465  13.829  11.974
31135SOL    HW295303  11.319  13.798  12.000
31136SOL     OW95304   5.530  13.781  13.480
31136SOL    HW195305   5.434  13.785  13.481
31136SOL    HW295306   5.551  13.719  13.411
31137SOL     OW95307   3.576   7.928   4.402
31137SOL    HW195308   3.545   7.903   4.315
31137SOL    HW295309   3.500   7.970   4.443
31138SOL     OW95310   8.866   1.683   3.793
31138SOL    HW195311   8.933   1.638   3.742
31138SOL    HW295312   8.867   1.639   3.878
31139SOL     OW95313  11.379   9.072   8.545
31139SOL    HW195314  11.374   8.979   8.523
31139SOL    HW295315  11.405   9.074   8.637
31140SOL     OW95316   0.696   0.198   4.984
31140SOL    HW195317   0.690   0.272   5.044
31140SOL    HW295318   0.725   0.125   5.038
31141SOL     OW95319   7.686  13.483  11.453
31141SOL    HW195320   7.758  13.428  11.485
31141SOL    HW295321   7.663  13.538  11.527
31142SOL     OW95322   2.569   5.218   2.952
31142SOL    HW195323   2.664   5.225   2.952
31142SOL    HW295324   2.550   5.149   2.888
31143SOL     OW95325   6.584   8.049   6.033
31143SOL    HW195326   6.549   8.131   6.069
31143SOL    HW295327   6.661   8.031   6.087
31144SOL     OW95328   9.363   0.006   9.387
31144SOL    HW195329   9.269   0.018   9.374
31144SOL    HW295330   9.388   0.076   9.446
31145SOL     OW95331  10.042   2.439  10.144
31145SOL    HW195332  10.029   2.453  10.050
31145SOL    HW295333   9.961   2.470  10.184
31146SOL     OW95334   5.704  12.580   3.102
31146SOL    HW195335   5.720  12.615   3.189
31146SOL    HW295336   5.703  12.657   3.045
31147SOL     OW95337   2.579   4.701   9.624
31147SOL    HW195338   2.592   4.611   9.655
31147SOL    HW295339   2.524   4.742   9.692
31148SOL     OW95340   1.396   7.384  13.143
31148SOL    HW195341   1.394   7.418  13.053
31148SOL    HW295342   1.309   7.404  13.178
31149SOL     OW95343  11.916   7.102   1.699
31149SOL    HW195344  11.914   7.165   1.771
31149SOL    HW295345  12.009   7.085   1.684
31150SOL     OW95346  12.656   7.553   3.831
31150SOL    HW195347  12.738   7.590   3.800
31150SOL    HW295348  12.625   7.613   3.898
31151SOL     OW95349  11.325   2.182  12.774
31151SOL    HW195350  11.242   2.141  12.796
31151SOL    HW295351  11.322   2.268  12.816
31152SOL     OW95352   1.505  10.670   5.250
31152SOL    HW195353   1.547  10.612   5.186
31152SOL    HW295354   1.576  10.726   5.282
31153SOL     OW95355  14.559   7.917  11.369
31153SOL    HW195356  14.494   7.927  11.299
31153SOL    HW295357  14.620   7.851  11.335
31154SOL     OW95358  12.449  10.453   3.315
31154SOL    HW195359  12.411  10.478   3.231
31154SOL    HW295360  12.403  10.507   3.379
31155SOL     OW95361  13.525   5.467   2.193
31155SOL    HW195362  13.466   5.451   2.119
31155SOL    HW295363  13.560   5.555   2.177
31156SOL     OW95364  13.603   4.424   0.357
31156SOL    HW195365  13.544   4.481   0.308
31156SOL    HW295366  13.678   4.480   0.379
31157SOL     OW95367   6.108   9.266   6.571
31157SOL    HW195368   6.165   9.192   6.552
31157SOL    HW295369   6.035   9.257   6.509
31158SOL     OW95370   9.855   2.516   0.254
31158SOL    HW195371   9.792   2.588   0.267
31158SOL    HW295372   9.935   2.547   0.296
31159SOL     OW95373   1.474  13.186   9.650
31159SOL    HW195374   1.417  13.237   9.592
31159SOL    HW295375   1.415  13.151   9.716
31160SOL     OW95376   5.782   8.584   5.813
31160SOL    HW195377   5.846   8.546   5.752
31160SOL    HW295378   5.706   8.604   5.758
31161SOL     OW95379  11.874  12.354  11.243
31161SOL    HW195380  11.955  12.401  11.224
31161SOL    HW295381  11.856  12.372  11.335
31162SOL     OW95382  12.482   1.496   1.626
31162SOL    HW195383  12.546   1.459   1.687
31162SOL    HW295384  12.407   1.519   1.680
31163SOL     OW95385   0.176   4.602   1.383
31163SOL    HW195386   0.108   4.599   1.450
31163SOL    HW295387   0.195   4.696   1.372
31164SOL     OW95388  11.360   6.447   5.930
31164SOL    HW195389  11.314   6.383   5.874
31164SOL    HW295390  11.353   6.530   5.882
31165SOL     OW95391  10.481   1.186  10.664
31165SOL    HW195392  10.451   1.267  10.705
31165SOL    HW295393  10.555   1.212  10.610
31166SOL     OW95394  12.516  10.254   1.329
31166SOL    HW195395  12.465  10.205   1.394
31166SOL    HW295396  12.510  10.345   1.358
31167SOL     OW95397  13.542   3.855   7.117
31167SOL    HW195398  13.504   3.795   7.181
31167SOL    HW295399  13.633   3.865   7.145
31168SOL     OW95400  13.662   7.617  11.189
31168SOL    HW195401  13.748   7.645  11.158
31168SOL    HW295402  13.678   7.531  11.228
31169SOL     OW95403  13.337  11.820  10.104
31169SOL    HW195404  13.424  11.818  10.063
31169SOL    HW295405  13.352  11.852  10.192
31170SOL     OW95406   9.916   8.010   2.865
31170SOL    HW195407   9.890   7.920   2.886
31170SOL    HW295408   9.834   8.052   2.839
31171SOL     OW95409   3.467   8.889   0.269
31171SOL    HW195410   3.562   8.883   0.272
31171SOL    HW295411   3.443   8.937   0.349
31172SOL     OW95412   0.478  12.091   0.395
31172SOL    HW195413   0.513  12.023   0.453
31172SOL    HW295414   0.522  12.077   0.312
31173SOL     OW95415   1.656   5.266   1.812
31173SOL    HW195416   1.566   5.232   1.809
31173SOL    HW295417   1.702   5.206   1.870
31174SOL     OW95418   2.557   9.286   4.861
31174SOL    HW195419   2.483   9.228   4.882
31174SOL    HW295420   2.519   9.374   4.863
31175SOL     OW95421  12.752   7.441   9.450
31175SOL    HW195422  12.743   7.536   9.460
31175SOL    HW295423  12.669   7.414   9.409
31176SOL     OW95424   4.478   4.865   0.665
31176SOL    HW195425   4.432   4.876   0.748
31176SOL    HW295426   4.445   4.783   0.629
31177SOL     OW95427   6.426  10.142   8.089
31177SOL    HW195428   6.479  10.087   8.031
31177SOL    HW295429   6.457  10.122   8.177
31178SOL     OW95430   9.363   3.376  13.918
31178SOL    HW195431   9.451   3.354  13.950
31178SOL    HW295432   9.364   3.471  13.909
31179SOL     OW95433   4.650   7.087  10.549
31179SOL    HW195434   4.611   7.148  10.486
31179SOL    HW295435   4.715   7.139  10.596
31180SOL     OW95436   9.207   5.514   7.853
31180SOL    HW195437   9.219   5.583   7.917
31180SOL    HW295438   9.271   5.534   7.784
31181SOL     OW95439   2.763   2.780  13.373
31181SOL    HW195440   2.832   2.760  13.436
31181SOL    HW295441   2.682   2.771  13.424
31182SOL     OW95442   2.784   9.923  10.171
31182SOL    HW195443   2.775   9.984  10.244
31182SOL    HW295444   2.846   9.964  10.111
31183SOL     OW95445   7.269   5.426  13.727
31183SOL    HW195446   7.226   5.394  13.807
31183SOL    HW295447   7.323   5.499  13.757
31184SOL     OW95448   2.903   6.764  14.528
31184SOL    HW195449   2.881   6.673  14.508
31184SOL    HW295450   2.954   6.759  14.609
31185SOL     OW95451   0.079  11.986   1.792
31185SOL    HW195452  14.868  11.987   1.823
31185SOL    HW295453   0.102  11.894   1.788
31186SOL     OW95454   1.696   8.284  11.431
31186SOL    HW195455   1.604   8.261  11.439
31186SOL    HW295456   1.698   8.379  11.443
31187SOL     OW95457   9.900   4.557   9.213
31187SOL    HW195458   9.872   4.643   9.182
31187SOL    HW295459   9.917   4.569   9.306
31188SOL     OW95460  13.509   1.588  11.524
31188SOL    HW195461  13.446   1.626  11.463
31188SOL    HW295462  13.528   1.659  11.586
31189SOL     OW95463   3.132  10.232   1.218
31189SOL    HW195464   3.105  10.162   1.278
31189SOL    HW295465   3.190  10.287   1.270
31190SOL     OW95466  10.344   6.615   6.202
31190SOL    HW195467  10.410   6.574   6.146
31190SOL    HW295468  10.295   6.672   6.144
31191SOL     OW95469   8.029   6.030   7.395
31191SOL    HW195470   7.999   6.088   7.325
31191SOL    HW295471   8.081   5.963   7.350
31192SOL     OW95472  14.298   6.709   5.099
31192SOL    HW195473  14.311   6.628   5.149
31192SOL    HW295474  14.386   6.736   5.073
31193SOL     OW95475  12.278  13.190   6.264
31193SOL    HW195476  12.266  13.283   6.282
31193SOL    HW295477  12.291  13.150   6.350
31194SOL     OW95478   7.803   4.992   5.896
31194SOL    HW195479   7.839   5.047   5.826
31194SOL    HW295480   7.860   4.915   5.897
31195SOL     OW95481   5.808   5.268   3.768
31195SOL    HW195482   5.740   5.223   3.819
31195SOL    HW295483   5.888   5.256   3.819
31196SOL     OW95484  13.445   5.827   2.579
31196SOL    HW195485  13.452   5.921   2.593
31196SOL    HW295486  13.474   5.788   2.661
31197SOL     OW95487  13.467   1.658   2.168
31197SOL    HW195488  13.393   1.672   2.227
31197SOL    HW295489  13.543   1.654   2.226
31198SOL     OW95490  14.567  13.615   3.213
31198SOL    HW195491  14.566  13.520   3.218
31198SOL    HW295492  14.646  13.636   3.164
31199SOL     OW95493   0.493   7.466   3.600
31199SOL    HW195494   0.453   7.386   3.567
31199SOL    HW295495   0.488   7.459   3.695
31200SOL     OW95496  11.086  14.639   0.251
31200SOL    HW195497  11.047  14.660   0.336
31200SOL    HW295498  11.089  14.544   0.249
31201SOL     OW95499   7.868  11.873  13.120
31201SOL    HW195500   7.796  11.815  13.094
31201SOL    HW295501   7.916  11.824  13.187
31202SOL     OW95502   4.013   8.922  12.207
31202SOL    HW195503   4.050   8.988  12.265
31202SOL    HW295504   4.065   8.844  12.223
31203SOL     OW95505   1.828   9.815   3.999
31203SOL    HW195506   1.838   9.894   3.946
31203SOL    HW295507   1.808   9.746   3.936
31204SOL     OW95508  12.547   8.425   4.198
31204SOL    HW195509  12.513   8.503   4.241
31204SOL    HW295510  12.567   8.365   4.271
31205SOL     OW95511   5.005   2.328   4.970
31205SOL    HW195512   5.020   2.279   4.889
31205SOL    HW295513   4.931   2.283   5.012
31206SOL     OW95514   4.602   9.397   0.993
31206SOL    HW195515   4.634   9.463   1.054
31206SOL    HW295516   4.681   9.356   0.958
31207SOL     OW95517   4.401  10.899   3.755
31207SOL    HW195518   4.386  10.987   3.722
31207SOL    HW295519   4.322  10.850   3.730
31208SOL     OW95520   9.107   5.730   2.842
31208SOL    HW195521   9.071   5.755   2.756
31208SOL    HW295522   9.197   5.703   2.823
31209SOL     OW95523   4.985   2.086   7.462
31209SOL    HW195524   5.021   2.062   7.547
31209SOL    HW295525   4.969   2.181   7.468
31210SOL     OW95526   7.269  10.211  10.630
31210SOL    HW195527   7.314  10.128  10.612
31210SOL    HW295528   7.329  10.258  10.689
31211SOL     OW95529   2.316   8.579   7.166
31211SOL    HW195530   2.409   8.583   7.190
31211SOL    HW295531   2.280   8.511   7.221
31212SOL     OW95532   2.878  12.587  10.845
31212SOL    HW195533   2.860  12.678  10.870
31212SOL    HW295534   2.799  12.539  10.871
31213SOL     OW95535  10.765  14.715   2.274
31213SOL    HW195536  10.771  14.793   2.219
31213SOL    HW295537  10.767  14.749   2.364
31214SOL     OW95538   1.916   7.548   3.202
31214SOL    HW195539   1.850   7.601   3.158
31214SOL    HW295540   1.932   7.593   3.285
31215SOL     OW95541  10.569  13.046   0.445
31215SOL    HW195542  10.505  13.040   0.374
31215SOL    HW295543  10.518  13.029   0.525
31216SOL     OW95544   6.633  10.574   7.681
31216SOL    HW195545   6.678  10.649   7.721
31216SOL    HW295546   6.672  10.566   7.594
31217SOL     OW95547   3.858   2.557   4.706
31217SOL    HW195548   3.778   2.608   4.720
31217SOL    HW295549   3.879   2.521   4.793
31218SOL     OW95550   2.409   0.851   5.534
31218SOL    HW195551   2.371   0.786   5.592
31218SOL    HW295552   2.479   0.804   5.488
31219SOL     OW95553  11.927   2.179   5.234
31219SOL    HW195554  12.018   2.209   5.231
31219SOL    HW295555  11.876   2.256   5.209
31220SOL     OW95556   2.701   3.423   8.850
31220SOL    HW195557   2.617   3.415   8.895
31220SOL    HW295558   2.679   3.451   8.761
31221SOL     OW95559   6.236   8.154   8.428
31221SOL    HW195560   6.205   8.154   8.518
31221SOL    HW295561   6.243   8.061   8.405
31222SOL     OW95562  12.083  11.344   3.022
31222SOL    HW195563  12.154  11.332   3.084
31222SOL    HW295564  12.006  11.363   3.076
31223SOL     OW95565   0.580  10.584   7.463
31223SOL    HW195566   0.607  10.517   7.401
31223SOL    HW295567   0.654  10.594   7.522
31224SOL     OW95568   5.358   0.744   7.865
31224SOL    HW195569   5.405   0.698   7.935
31224SOL    HW295570   5.374   0.691   7.787
31225SOL     OW95571   8.967  13.033   0.091
31225SOL    HW195572   8.940  12.942   0.080
31225SOL    HW295573   9.003  13.058   0.005
31226SOL     OW95574   1.508   3.237   9.218
31226SOL    HW195575   1.553   3.259   9.137
31226SOL    HW295576   1.457   3.315   9.240
31227SOL     OW95577   9.686   3.795   9.333
31227SOL    HW195578   9.758   3.755   9.381
31227SOL    HW295579   9.608   3.750   9.366
31228SOL     OW95580   8.028  14.650  11.189
31228SOL    HW195581   8.023  14.692  11.275
31228SOL    HW295582   8.024  14.722  11.126
31229SOL     OW95583  11.907   6.808  14.537
31229SOL    HW195584  11.873   6.890  14.571
31229SOL    HW295585  11.853   6.741  14.578
31230SOL     OW95586   3.411   4.750   5.207
31230SOL    HW195587   3.500   4.727   5.181
31230SOL    HW295588   3.422   4.802   5.287
31231SOL     OW95589   7.470   6.431   1.943
31231SOL    HW195590   7.514   6.368   2.001
31231SOL    HW295591   7.398   6.466   1.996
31232SOL     OW95592   3.826  12.248  11.047
31232SOL    HW195593   3.738  12.216  11.028
31232SOL    HW295594   3.817  12.343  11.048
31233SOL     OW95595   1.603   5.622  12.643
31233SOL    HW195596   1.554   5.656  12.718
31233SOL    HW295597   1.649   5.545  12.678
31234SOL     OW95598   1.903  11.132   4.003
31234SOL    HW195599   1.963  11.102   4.072
31234SOL    HW295600   1.889  11.224   4.022
31235SOL     OW95601   4.635   2.470  13.746
31235SOL    HW195602   4.701   2.442  13.683
31235SOL    HW295603   4.593   2.388  13.774
31236SOL     OW95604   1.141  14.427   1.822
31236SOL    HW195605   1.096  14.344   1.840
31236SOL    HW295606   1.099  14.491   1.879
31237SOL     OW95607   5.979  14.693   3.122
31237SOL    HW195608   6.017  14.644   3.195
31237SOL    HW295609   6.006  14.784   3.137
31238SOL     OW95610   1.151  13.511   5.076
31238SOL    HW195611   1.214  13.549   5.014
31238SOL    HW295612   1.203  13.491   5.154
31239SOL     OW95613  11.881  11.177  12.156
31239SOL    HW195614  11.894  11.272  12.153
31239SOL    HW295615  11.841  11.161  12.242
31240SOL     OW95616   6.456   9.619   9.225
31240SOL    HW195617   6.375   9.583   9.261
31240SOL    HW295618   6.495   9.666   9.298
31241SOL     OW95619   1.997  12.854  13.693
31241SOL    HW195620   2.028  12.938  13.658
31241SOL    HW295621   1.922  12.876  13.747
31242SOL     OW95622  13.059  10.059   7.552
31242SOL    HW195623  13.022   9.976   7.523
31242SOL    HW295624  13.133  10.073   7.493
31243SOL     OW95625   6.287  12.310   0.197
31243SOL    HW195626   6.337  12.382   0.158
31243SOL    HW295627   6.198  12.324   0.166
31244SOL     OW95628  13.128   8.077  11.627
31244SOL    HW195629  13.074   8.085  11.548
31244SOL    HW295630  13.090   8.002  11.673
31245SOL     OW95631   7.722  14.372  10.007
31245SOL    HW195632   7.812  14.394   9.982
31245SOL    HW295633   7.677  14.359   9.923
31246SOL     OW95634  11.732  10.994  12.398
31246SOL    HW195635  11.756  10.948  12.479
31246SOL    HW295636  11.664  11.055  12.425
31247SOL     OW95637   8.087   4.403  11.658
31247SOL    HW195638   8.048   4.364  11.581
31247SOL    HW295639   8.181   4.388  11.648
31248SOL     OW95640   1.281   4.503   4.286
31248SOL    HW195641   1.245   4.417   4.264
31248SOL    HW295642   1.330   4.488   4.367
31249SOL     OW95643  11.132  14.824  14.145
31249SOL    HW195644  11.177  14.757  14.196
31249SOL    HW295645  11.075  14.868  14.208
31250SOL     OW95646   4.885  10.939   3.211
31250SOL    HW195647   4.812  10.885   3.241
31250SOL    HW295648   4.907  10.905   3.124
31251SOL     OW95649  14.562  11.991   2.139
31251SOL    HW195650  14.573  12.085   2.155
31251SOL    HW295651  14.493  11.964   2.199
31252SOL     OW95652   0.322   8.464   7.601
31252SOL    HW195653   0.319   8.528   7.529
31252SOL    HW295654   0.381   8.502   7.665
31253SOL     OW95655   0.454   6.673   0.384
31253SOL    HW195656   0.524   6.655   0.321
31253SOL    HW295657   0.474   6.759   0.419
31254SOL     OW95658  11.077   8.455   0.192
31254SOL    HW195659  11.156   8.440   0.245
31254SOL    HW295660  11.076   8.549   0.177
31255SOL     OW95661   4.945  12.416   1.717
31255SOL    HW195662   4.932  12.324   1.691
31255SOL    HW295663   5.038  12.433   1.699
31256SOL     OW95664  10.993  11.908   0.066
31256SOL    HW195665  10.985  11.813   0.054
31256SOL    HW295666  11.009  11.919   0.160
31257SOL     OW95667  12.299   7.928   9.789
31257SOL    HW195668  12.206   7.908   9.781
31257SOL    HW295669  12.303   8.024   9.794
31258SOL     OW95670  13.264   3.811   9.698
31258SOL    HW195671  13.191   3.808   9.760
31258SOL    HW295672  13.341   3.829   9.752
31259SOL     OW95673   2.248   7.810   8.454
31259SOL    HW195674   2.291   7.774   8.377
31259SOL    HW295675   2.181   7.869   8.418
31260SOL     OW95676   1.188   7.344   0.448
31260SOL    HW195677   1.157   7.433   0.462
31260SOL    HW295678   1.189   7.334   0.353
31261SOL     OW95679  12.725  10.120  12.238
31261SOL    HW195680  12.695  10.038  12.199
31261SOL    HW295681  12.763  10.169  12.165
31262SOL     OW95682   1.293   4.757   8.414
31262SOL    HW195683   1.221   4.819   8.404
31262SOL    HW295684   1.253   4.680   8.454
31263SOL     OW95685   6.425   1.950  10.450
31263SOL    HW195686   6.405   2.030  10.401
31263SOL    HW295687   6.362   1.951  10.522
31264SOL     OW95688  11.288   7.226  13.906
31264SOL    HW195689  11.383   7.237  13.907
31264SOL    HW295690  11.257   7.278  13.980
31265SOL     OW95691  10.459   8.538   1.181
31265SOL    HW195692  10.474   8.491   1.263
31265SOL    HW295693  10.498   8.624   1.195
31266SOL     OW95694   0.468   1.415   8.252
31266SOL    HW195695   0.518   1.375   8.181
31266SOL    HW295696   0.380   1.428   8.215
31267SOL     OW95697   9.900  11.806  10.605
31267SOL    HW195698   9.809  11.823  10.582
31267SOL    HW295699   9.950  11.851  10.537
31268SOL     OW95700  10.937  11.978  13.394
31268SOL    HW195701  10.996  11.912  13.431
31268SOL    HW295702  10.994  12.038  13.347
31269SOL     OW95703   4.387   2.041   8.801
31269SOL    HW195704   4.448   2.004   8.865
31269SOL    HW295705   4.368   1.968   8.741
31270SOL     OW95706   3.612   3.430  10.501
31270SOL    HW195707   3.572   3.442  10.415
31270SOL    HW295708   3.540   3.403  10.558
31271SOL     OW95709  14.782  14.539   0.725
31271SOL    HW195710  14.788  14.633   0.711
31271SOL    HW295711  14.871  14.507   0.715
31272SOL     OW95712   7.260   5.860   3.816
31272SOL    HW195713   7.349   5.890   3.800
31272SOL    HW295714   7.215   5.873   3.732
31273SOL     OW95715  14.015   9.985   1.321
31273SOL    HW195716  14.059  10.056   1.274
31273SOL    HW295717  14.051   9.905   1.283
31274SOL     OW95718  11.858   3.753   4.571
31274SOL    HW195719  11.899   3.670   4.597
31274SOL    HW295720  11.764   3.735   4.572
31275SOL     OW95721   3.114   1.112   8.592
31275SOL    HW195722   3.209   1.110   8.584
31275SOL    HW295723   3.089   1.020   8.607
31276SOL     OW95724   0.417  14.186  10.482
31276SOL    HW195725   0.466  14.236  10.417
31276SOL    HW295726   0.326  14.188  10.451
31277SOL     OW95727   1.605  11.701  10.000
31277SOL    HW195728   1.510  11.708  10.007
31277SOL    HW295729   1.619  11.631   9.936
31278SOL     OW95730   2.286   5.575   9.996
31278SOL    HW195731   2.368   5.593   9.950
31278SOL    HW295732   2.220   5.579   9.927
31279SOL     OW95733   9.487   0.904   3.506
31279SOL    HW195734   9.536   0.822   3.516
31279SOL    HW295735   9.532   0.950   3.436
31280SOL     OW95736   3.747   4.206   3.381
31280SOL    HW195737   3.839   4.220   3.402
31280SOL    HW295738   3.715   4.293   3.357
31281SOL     OW95739   7.748  14.825  10.864
31281SOL    HW195740   7.763  14.743  10.817
31281SOL    HW295741   7.674  14.806  10.922
31282SOL     OW95742   5.018   4.342   0.383
31282SOL    HW195743   4.932   4.301   0.386
31282SOL    HW295744   5.024   4.379   0.295
31283SOL     OW95745   4.110   0.053   9.209
31283SOL    HW195746   4.134   0.143   9.231
31283SOL    HW295747   4.097   0.010   9.294
31284SOL     OW95748   8.594   7.453  11.159
31284SOL    HW195749   8.617   7.536  11.118
31284SOL    HW295750   8.601   7.470  11.253
31285SOL     OW95751   6.170   8.303   5.053
31285SOL    HW195752   6.205   8.352   4.978
31285SOL    HW295753   6.138   8.221   5.014
31286SOL     OW95754   2.966  13.203   5.803
31286SOL    HW195755   2.982  13.191   5.897
31286SOL    HW295756   3.045  13.245   5.770
31287SOL     OW95757  10.660   3.074   1.634
31287SOL    HW195758  10.702   3.149   1.676
31287SOL    HW295759  10.572   3.105   1.612
31288SOL     OW95760   3.955  12.292   0.553
31288SOL    HW195761   3.949  12.361   0.619
31288SOL    HW295762   3.866  12.284   0.519
31289SOL     OW95763   2.073   8.642  12.486
31289SOL    HW195764   2.095   8.731  12.514
31289SOL    HW295765   1.985   8.628  12.520
31290SOL     OW95766   9.536   3.188   4.371
31290SOL    HW195767   9.525   3.284   4.369
31290SOL    HW295768   9.462   3.157   4.423
31291SOL     OW95769   0.409   4.936   5.431
31291SOL    HW195770   0.376   4.853   5.397
31291SOL    HW295771   0.360   4.950   5.512
31292SOL     OW95772   6.691   8.301   3.337
31292SOL    HW195773   6.618   8.317   3.396
31292SOL    HW295774   6.659   8.327   3.250
31293SOL     OW95775  11.883  14.676  11.863
31293SOL    HW195776  11.934  14.757  11.862
31293SOL    HW295777  11.844  14.673  11.950
31294SOL     OW95778   2.545  14.031   5.634
31294SOL    HW195779   2.637  14.038   5.658
31294SOL    HW295780   2.522  14.117   5.599
31295SOL     OW95781   4.084   4.549  13.043
31295SOL    HW195782   4.103   4.633  13.001
31295SOL    HW295783   4.004   4.519  13.000
31296SOL     OW95784  14.836   3.305  12.925
31296SOL    HW195785  14.780   3.228  12.917
31296SOL    HW295786  14.866   3.322  12.835
31297SOL     OW95787   6.370   1.651   4.284
31297SOL    HW195788   6.387   1.562   4.254
31297SOL    HW295789   6.308   1.641   4.356
31298SOL     OW95790   2.076   4.311   4.496
31298SOL    HW195791   2.021   4.239   4.464
31298SOL    HW295792   2.098   4.361   4.417
31299SOL     OW95793   2.031  11.758   0.786
31299SOL    HW195794   2.117  11.716   0.797
31299SOL    HW295795   2.043  11.845   0.823
31300SOL     OW95796  14.689   0.061   1.073
31300SOL    HW195797  14.753   0.130   1.058
31300SOL    HW295798  14.621   0.102   1.126
31301SOL     OW95799   1.405   2.387   3.169
31301SOL    HW195800   1.426   2.392   3.262
31301SOL    HW295801   1.312   2.365   3.167
31302SOL     OW95802  13.815   5.785  10.736
31302SOL    HW195803  13.821   5.868  10.688
31302SOL    HW295804  13.904   5.750  10.734
31303SOL     OW95805   5.707   2.391  13.666
31303SOL    HW195806   5.763   2.314  13.675
31303SOL    HW295807   5.767   2.462  13.642
31304SOL     OW95808   0.609   6.099   0.027
31304SOL    HW195809   0.570   6.011   0.031
31304SOL    HW295810   0.609   6.120  14.813
31305SOL     OW95811   6.053   7.966   8.264
31305SOL    HW195812   6.042   7.876   8.234
31305SOL    HW295813   6.023   7.965   8.354
31306SOL     OW95814   3.675  14.345   4.799
31306SOL    HW195815   3.680  14.366   4.706
31306SOL    HW295816   3.624  14.264   4.803
31307SOL     OW95817   4.446   6.060  14.437
31307SOL    HW195818   4.437   6.093  14.526
31307SOL    HW295819   4.357   6.036  14.411
31308SOL     OW95820   5.332   2.072   4.224
31308SOL    HW195821   5.341   2.108   4.136
31308SOL    HW295822   5.349   1.979   4.214
31309SOL     OW95823  10.815  12.318   9.002
31309SOL    HW195824  10.787  12.261   9.074
31309SOL    HW295825  10.834  12.257   8.930
31310SOL     OW95826   2.841   8.883   5.934
31310SOL    HW195827   2.907   8.922   5.876
31310SOL    HW295828   2.885   8.875   6.019
31311SOL     OW95829   7.319   3.760   1.404
31311SOL    HW195830   7.300   3.670   1.432
31311SOL    HW295831   7.409   3.756   1.372
31312SOL     OW95832   6.573  12.779   8.556
31312SOL    HW195833   6.512  12.824   8.497
31312SOL    HW295834   6.653  12.770   8.504
31313SOL     OW95835  11.240   3.277   2.057
31313SOL    HW195836  11.154   3.303   2.092
31313SOL    HW295837  11.281   3.360   2.032
31314SOL     OW95838   9.897   1.422  12.767
31314SOL    HW195839   9.931   1.335  12.786
31314SOL    HW295840   9.975   1.477  12.756
31315SOL     OW95841   3.550  10.892   1.784
31315SOL    HW195842   3.598  10.969   1.815
31315SOL    HW295843   3.512  10.920   1.701
31316SOL     OW95844  10.287   4.655  12.150
31316SOL    HW195845  10.232   4.699  12.085
31316SOL    HW295846  10.225   4.622  12.215
31317SOL     OW95847   1.723   9.138  14.820
31317SOL    HW195848   1.672   9.162  14.742
31317SOL    HW295849   1.693   9.200   0.007
31318SOL     OW95850  12.892   0.627   4.975
31318SOL    HW195851  12.945   0.558   5.014
31318SOL    HW295852  12.842   0.663   5.048
31319SOL     OW95853   4.913  14.705   3.899
31319SOL    HW195854   4.835  14.753   3.872
31319SOL    HW295855   4.982  14.737   3.841
31320SOL     OW95856   2.542   7.363   5.170
31320SOL    HW195857   2.462   7.406   5.201
31320SOL    HW295858   2.526   7.270   5.186
31321SOL     OW95859   2.231   6.971   6.570
31321SOL    HW195860   2.157   7.028   6.549
31321SOL    HW295861   2.197   6.883   6.561
31322SOL     OW95862  12.169   9.164  13.664
31322SOL    HW195863  12.201   9.192  13.578
31322SOL    HW295864  12.141   9.074  13.652
31323SOL     OW95865   7.091   5.103   3.271
31323SOL    HW195866   7.025   5.101   3.339
31323SOL    HW295867   7.049   5.149   3.198
31324SOL     OW95868   2.838   0.823   7.312
31324SOL    HW195869   2.790   0.905   7.324
31324SOL    HW295870   2.823   0.800   7.220
31325SOL     OW95871   4.690   1.756   7.752
31325SOL    HW195872   4.779   1.769   7.718
31325SOL    HW295873   4.633   1.784   7.680
31326SOL     OW95874   5.036   1.568  12.849
31326SOL    HW195875   5.046   1.625  12.772
31326SOL    HW295876   4.993   1.490  12.815
31327SOL     OW95877   9.832   9.633   1.804
31327SOL    HW195878   9.874   9.560   1.849
31327SOL    HW295879   9.749   9.597   1.772
31328SOL     OW95880   2.424   3.259   1.194
31328SOL    HW195881   2.489   3.189   1.202
31328SOL    HW295882   2.430   3.286   1.102
31329SOL     OW95883  11.013   8.732   0.784
31329SOL    HW195884  10.932   8.706   0.827
31329SOL    HW295885  11.020   8.826   0.800
31330SOL     OW95886  12.234   1.889  13.601
31330SOL    HW195887  12.243   1.838  13.520
31330SOL    HW295888  12.314   1.870  13.650
31331SOL     OW95889  12.689   7.817  13.615
31331SOL    HW195890  12.679   7.844  13.707
31331SOL    HW295891  12.718   7.896  13.570
31332SOL     OW95892   1.463   1.106  10.081
31332SOL    HW195893   1.517   1.091  10.004
31332SOL    HW295894   1.426   1.193  10.068
31333SOL     OW95895   9.625   6.102  11.763
31333SOL    HW195896   9.605   6.023  11.712
31333SOL    HW295897   9.554   6.107  11.828
31334SOL     OW95898  12.038  12.804   1.010
31334SOL    HW195899  11.960  12.853   0.985
31334SOL    HW295900  12.102  12.825   0.942
31335SOL     OW95901   3.604  11.899   8.265
31335SOL    HW195902   3.618  11.830   8.330
31335SOL    HW295903   3.618  11.856   8.181
31336SOL     OW95904   5.018   0.660  12.616
31336SOL    HW195905   4.926   0.635  12.613
31336SOL    HW295906   5.066   0.578  12.601
31337SOL     OW95907   9.940  11.506   0.160
31337SOL    HW195908   9.867  11.567   0.150
31337SOL    HW295909  10.013  11.549   0.115
31338SOL     OW95910   2.117   2.674   3.327
31338SOL    HW195911   2.198   2.690   3.280
31338SOL    HW295912   2.140   2.685   3.419
31339SOL     OW95913  14.276   5.219   4.815
31339SOL    HW195914  14.297   5.136   4.859
31339SOL    HW295915  14.238   5.192   4.731
31340SOL     OW95916   4.773  14.516  14.310
31340SOL    HW195917   4.762  14.611  14.306
31340SOL    HW295918   4.786  14.496  14.402
31341SOL     OW95919   7.676   4.218   7.475
31341SOL    HW195920   7.727   4.287   7.432
31341SOL    HW295921   7.611   4.193   7.410
31342SOL     OW95922   6.654   5.676   6.277
31342SOL    HW195923   6.573   5.721   6.255
31342SOL    HW295924   6.626   5.597   6.324
31343SOL     OW95925  14.774   0.984   8.826
31343SOL    HW195926  14.803   1.008   8.914
31343SOL    HW295927  14.834   0.915   8.798
31344SOL     OW95928  14.534   4.038   3.295
31344SOL    HW195929  14.616   4.087   3.285
31344SOL    HW295930  14.560   3.946   3.294
31345SOL     OW95931   0.283   9.877  11.274
31345SOL    HW195932   0.354   9.828  11.315
31345SOL    HW295933   0.217   9.811  11.255
31346SOL     OW95934  12.137   6.861   0.450
31346SOL    HW195935  12.050   6.822   0.443
31346SOL    HW295936  12.126   6.951   0.421
31347SOL     OW95937   6.057   4.773   4.095
31347SOL    HW195938   6.150   4.751   4.086
31347SOL    HW295939   6.049   4.809   4.184
31348SOL     OW95940   1.398  12.011   8.039
31348SOL    HW195941   1.375  12.077   7.973
31348SOL    HW295942   1.324  12.009   8.099
31349SOL     OW95943   1.675  10.436   7.348
31349SOL    HW195944   1.705  10.525   7.369
31349SOL    HW295945   1.745  10.379   7.378
31350SOL     OW95946   6.674  12.989  12.178
31350SOL    HW195947   6.741  13.026  12.121
31350SOL    HW295948   6.597  13.045  12.166
31351SOL     OW95949  12.814   1.536  10.402
31351SOL    HW195950  12.892   1.521  10.348
31351SOL    HW295951  12.815   1.631  10.418
31352SOL     OW95952   8.229   4.320   9.194
31352SOL    HW195953   8.209   4.244   9.249
31352SOL    HW295954   8.304   4.361   9.237
31353SOL     OW95955  11.293   8.967   9.940
31353SOL    HW195956  11.224   8.902   9.957
31353SOL    HW295957  11.284   8.986   9.846
31354SOL     OW95958   4.385  11.079  11.375
31354SOL    HW195959   4.413  11.011  11.437
31354SOL    HW295960   4.467  11.109  11.334
31355SOL     OW95961   7.813  12.630   2.777
31355SOL    HW195962   7.804  12.720   2.745
31355SOL    HW295963   7.845  12.580   2.702
31356SOL     OW95964  10.857  13.524   7.737
31356SOL    HW195965  10.872  13.482   7.652
31356SOL    HW295966  10.768  13.500   7.761
31357SOL     OW95967   7.591  11.323   0.284
31357SOL    HW195968   7.657  11.380   0.323
31357SOL    HW295969   7.553  11.375   0.213
31358SOL     OW95970   4.762   1.443   2.252
31358SOL    HW195971   4.762   1.522   2.306
31358SOL    HW295972   4.672   1.436   2.220
31359SOL     OW95973  12.585   6.655  10.870
31359SOL    HW195974  12.510   6.678  10.925
31359SOL    HW295975  12.629   6.738  10.852
31360SOL     OW95976  13.273   4.576   4.862
31360SOL    HW195977  13.302   4.642   4.799
31360SOL    HW295978  13.188   4.609   4.893
31361SOL     OW95979   4.039   0.709   6.289
31361SOL    HW195980   4.030   0.686   6.382
31361SOL    HW295981   4.072   0.630   6.247
31362SOL     OW95982  12.944   3.881   2.650
31362SOL    HW195983  13.010   3.948   2.634
31362SOL    HW295984  12.880   3.893   2.579
31363SOL     OW95985   9.075  14.452   7.764
31363SOL    HW195986   9.025  14.375   7.788
31363SOL    HW295987   9.033  14.484   7.684
31364SOL     OW95988   6.428  13.147   4.835
31364SOL    HW195989   6.339  13.115   4.819
31364SOL    HW295990   6.463  13.166   4.748
31365SOL     OW95991   3.674  12.580   2.242
31365SOL    HW195992   3.604  12.529   2.282
31365SOL    HW295993   3.659  12.669   2.273
31366SOL     OW95994   7.637   0.589   5.019
31366SOL    HW195995   7.664   0.591   5.111
31366SOL    HW295996   7.571   0.520   5.015
31367SOL     OW95997   5.189  14.044   0.868
31367SOL    HW195998   5.148  14.121   0.908
31367SOL    HW295999   5.122  13.976   0.876
31368SOL     OW96000  10.054  10.182   7.754
31368SOL    HW196001   9.962  10.198   7.775
31368SOL    HW296002  10.103  10.229   7.822
31369SOL     OW96003  14.776   7.500   4.187
31369SOL    HW196004  14.851   7.454   4.225
31369SOL    HW296005  14.756   7.570   4.250
31370SOL     OW96006   3.694  14.301  14.857
31370SOL    HW196007   3.724  14.222   0.022
31370SOL    HW296008   3.722  14.373   0.034
31371SOL     OW96009  11.245   3.216  13.996
31371SOL    HW196010  11.297   3.220  14.076
31371SOL    HW296011  11.181   3.287  14.006
31372SOL     OW96012   4.399   7.510   0.450
31372SOL    HW196013   4.423   7.417   0.443
31372SOL    HW296014   4.416   7.545   0.362
31373SOL     OW96015   2.440   4.885   4.989
31373SOL    HW196016   2.534   4.899   4.977
31373SOL    HW296017   2.434   4.840   5.073
31374SOL     OW96018   3.461   9.090  12.671
31374SOL    HW196019   3.475   9.184  12.660
31374SOL    HW296020   3.540   9.050  12.635
31375SOL     OW96021  13.292  14.558   5.988
31375SOL    HW196022  13.250  14.503   6.055
31375SOL    HW296023  13.334  14.628   6.038
31376SOL     OW96024  12.707  14.032   0.285
31376SOL    HW196025  12.661  14.058   0.365
31376SOL    HW296026  12.773  14.100   0.273
31377SOL     OW96027   0.090  10.749   0.602
31377SOL    HW196028   0.082  10.656   0.620
31377SOL    HW296029   0.176  10.758   0.561
31378SOL     OW96030  13.473  11.580   1.993
31378SOL    HW196031  13.416  11.657   2.001
31378SOL    HW296032  13.548  11.610   1.944
31379SOL     OW96033   6.490   4.644  13.581
31379SOL    HW196034   6.411   4.593  13.565
31379SOL    HW296035   6.554   4.580  13.613
31380SOL     OW96036   4.168   7.098  11.390
31380SOL    HW196037   4.169   7.186  11.428
31380SOL    HW296038   4.192   7.041  11.463
31381SOL     OW96039  12.740   9.496   6.970
31381SOL    HW196040  12.736   9.426   7.035
31381SOL    HW296041  12.690   9.462   6.895
31382SOL     OW96042  14.145   0.469   6.241
31382SOL    HW196043  14.123   0.562   6.253
31382SOL    HW296044  14.072   0.435   6.189
31383SOL     OW96045   7.647   8.111   0.045
31383SOL    HW196046   7.657   8.019   0.070
31383SOL    HW296047   7.726   8.154   0.077
31384SOL     OW96048   8.641   4.217  12.365
31384SOL    HW196049   8.576   4.254  12.423
31384SOL    HW296050   8.724   4.224  12.413
31385SOL     OW96051   5.516  11.948   1.723
31385SOL    HW196052   5.423  11.929   1.736
31385SOL    HW296053   5.518  12.036   1.687
31386SOL     OW96054   2.194  13.436  14.566
31386SOL    HW196055   2.246  13.400  14.637
31386SOL    HW296056   2.136  13.500  14.609
31387SOL     OW96057  12.582   6.487   2.942
31387SOL    HW196058  12.646   6.499   2.871
31387SOL    HW296059  12.556   6.575   2.967
31388SOL     OW96060   3.071   7.078   7.834
31388SOL    HW196061   3.064   7.131   7.755
31388SOL    HW296062   2.989   7.029   7.838
31389SOL     OW96063   7.391  13.347   4.593
31389SOL    HW196064   7.474  13.390   4.613
31389SOL    HW296065   7.415  13.255   4.576
31390SOL     OW96066   8.346  12.963   4.693
31390SOL    HW196067   8.258  12.929   4.677
31390SOL    HW296068   8.380  12.983   4.605
31391SOL     OW96069   4.587   3.816   1.011
31391SOL    HW196070   4.558   3.885   1.070
31391SOL    HW296071   4.643   3.760   1.066
31392SOL     OW96072  12.006   1.019   6.678
31392SOL    HW196073  12.084   1.017   6.622
31392SOL    HW296074  11.940   0.969   6.629
31393SOL     OW96075   5.632  13.348  11.356
31393SOL    HW196076   5.647  13.351  11.262
31393SOL    HW296077   5.560  13.409  11.372
31394SOL     OW96078   7.289  10.227  11.593
31394SOL    HW196079   7.258  10.227  11.503
31394SOL    HW296080   7.301  10.319  11.615
31395SOL     OW96081   9.755   5.789   2.616
31395SOL    HW196082   9.780   5.716   2.673
31395SOL    HW296083   9.664   5.769   2.591
31396SOL     OW96084  11.897  13.809   5.174
31396SOL    HW196085  11.979  13.843   5.138
31396SOL    HW296086  11.831  13.873   5.146
31397SOL     OW96087   6.376  14.314   6.783
31397SOL    HW196088   6.454  14.309   6.838
31397SOL    HW296089   6.367  14.407   6.762
31398SOL     OW96090  14.640   1.752   9.094
31398SOL    HW196091  14.716   1.754   9.035
31398SOL    HW296092  14.679   1.738   9.181
31399SOL     OW96093   0.736  12.580   8.635
31399SOL    HW196094   0.696  12.606   8.551
31399SOL    HW296095   0.673  12.518   8.673
31400SOL     OW96096   2.579   2.414   2.652
31400SOL    HW196097   2.552   2.441   2.739
31400SOL    HW296098   2.675   2.413   2.655
31401SOL     OW96099  12.988  11.212  14.414
31401SOL    HW196100  13.027  11.213  14.502
31401SOL    HW296101  13.038  11.146  14.367
31402SOL     OW96102   0.156   9.629   3.279
31402SOL    HW196103   0.078   9.674   3.311
31402SOL    HW296104   0.123   9.548   3.241
31403SOL     OW96105  12.245  14.243   2.622
31403SOL    HW196106  12.256  14.155   2.659
31403SOL    HW296107  12.268  14.302   2.695
31404SOL     OW96108  13.670   8.748   9.530
31404SOL    HW196109  13.696   8.721   9.619
31404SOL    HW296110  13.688   8.671   9.476
31405SOL     OW96111  10.775   1.375   5.880
31405SOL    HW196112  10.689   1.404   5.908
31405SOL    HW296113  10.766   1.362   5.785
31406SOL     OW96114   6.351   1.312   7.107
31406SOL    HW196115   6.350   1.286   7.015
31406SOL    HW296116   6.270   1.360   7.120
31407SOL     OW96117  11.094   3.945  11.133
31407SOL    HW196118  11.158   4.007  11.098
31407SOL    HW296119  11.125   3.860  11.105
31408SOL     OW96120   4.256   9.214   3.368
31408SOL    HW196121   4.224   9.185   3.453
31408SOL    HW296122   4.243   9.309   3.369
31409SOL     OW96123   6.317   3.320   7.523
31409SOL    HW196124   6.399   3.369   7.526
31409SOL    HW296125   6.308   3.293   7.431
31410SOL     OW96126  14.747  10.139  13.377
31410SOL    HW196127  14.698  10.107  13.302
31410SOL    HW296128  14.830  10.091  13.375
31411SOL     OW96129  11.000  10.423  14.651
31411SOL    HW196130  10.971  10.439  14.741
31411SOL    HW296131  11.035  10.508  14.622
31412SOL     OW96132   9.752  11.445   4.949
31412SOL    HW196133   9.702  11.411   4.875
31412SOL    HW296134   9.830  11.483   4.909
31413SOL     OW96135   4.970  13.321   3.771
31413SOL    HW196136   4.914  13.244   3.763
31413SOL    HW296137   4.978  13.335   3.865
31414SOL     OW96138  10.320  14.541   2.204
31414SOL    HW196139  10.278  14.461   2.170
31414SOL    HW296140  10.387  14.561   2.139
31415SOL     OW96141   8.723  14.858  11.548
31415SOL    HW196142   8.663   0.053  11.552
31415SOL    HW296143   8.790  14.876  11.614
31416SOL     OW96144  13.121   2.405  11.433
31416SOL    HW196145  13.205   2.434  11.468
31416SOL    HW296146  13.106   2.459  11.356
31417SOL     OW96147   5.965  13.175   9.291
31417SOL    HW196148   5.900  13.244   9.276
31417SOL    HW296149   5.973  13.169   9.386
31418SOL     OW96150  14.166   2.835   9.702
31418SOL    HW196151  14.258   2.834   9.673
31418SOL    HW296152  14.169   2.802   9.791
31419SOL     OW96153  12.712   9.725   8.401
31419SOL    HW196154  12.695   9.680   8.317
31419SOL    HW296155  12.805   9.746   8.398
31420SOL     OW96156   9.910   6.405  12.335
31420SOL    HW196157   9.900   6.324  12.384
31420SOL    HW296158   9.980   6.452  12.380
31421SOL     OW96159   8.247   8.148   5.145
31421SOL    HW196160   8.311   8.078   5.154
31421SOL    HW296161   8.189   8.119   5.075
31422SOL     OW96162   5.739   1.646  12.812
31422SOL    HW196163   5.697   1.603  12.738
31422SOL    HW296164   5.804   1.583  12.843
31423SOL     OW96165   8.218   1.448   2.108
31423SOL    HW196166   8.128   1.460   2.138
31423SOL    HW296167   8.235   1.524   2.053
31424SOL     OW96168  13.202   0.098   3.101
31424SOL    HW196169  13.177   0.191   3.099
31424SOL    HW296170  13.268   0.090   3.031
31425SOL     OW96171   7.957   2.978  14.539
31425SOL    HW196172   8.025   2.996  14.473
31425SOL    HW296173   7.897   3.052  14.531
31426SOL     OW96174  12.779   8.606   7.358
31426SOL    HW196175  12.718   8.674   7.329
31426SOL    HW296176  12.746   8.580   7.443
31427SOL     OW96177  12.460  11.880  11.592
31427SOL    HW196178  12.424  11.792  11.608
31427SOL    HW296179  12.393  11.924  11.539
31428SOL     OW96180   7.555   6.980   6.826
31428SOL    HW196181   7.569   7.073   6.808
31428SOL    HW296182   7.635   6.953   6.872
31429SOL     OW96183  10.670  11.048   2.087
31429SOL    HW196184  10.628  10.965   2.066
31429SOL    HW296185  10.605  11.096   2.138
31430SOL     OW96186  11.205   1.165   9.492
31430SOL    HW196187  11.142   1.131   9.556
31430SOL    HW296188  11.277   1.199   9.545
31431SOL     OW96189   1.884   0.459   1.065
31431SOL    HW196190   1.819   0.400   1.104
31431SOL    HW296191   1.833   0.521   1.015
31432SOL     OW96192   9.417   5.901  11.269
31432SOL    HW196193   9.369   5.819  11.259
31432SOL    HW296194   9.480   5.901  11.197
31433SOL     OW96195   0.910   2.909   1.314
31433SOL    HW196196   0.915   2.915   1.218
31433SOL    HW296197   0.896   2.816   1.332
31434SOL     OW96198  10.815   5.159   0.614
31434SOL    HW196199  10.866   5.190   0.539
31434SOL    HW296200  10.844   5.069   0.627
31435SOL     OW96201   9.103  13.138  12.983
31435SOL    HW196202   9.123  13.052  12.946
31435SOL    HW296203   9.168  13.150  13.053
31436SOL     OW96204   2.529   9.381   5.846
31436SOL    HW196205   2.455   9.338   5.890
31436SOL    HW296206   2.582   9.416   5.918
31437SOL     OW96207   8.917   8.224  14.463
31437SOL    HW196208   8.993   8.204  14.518
31437SOL    HW296209   8.954   8.269  14.387
31438SOL     OW96210   4.926   3.625   2.940
31438SOL    HW196211   4.905   3.531   2.940
31438SOL    HW296212   4.843   3.668   2.920
31439SOL     OW96213  14.445   8.180   6.095
31439SOL    HW196214  14.405   8.092   6.094
31439SOL    HW296215  14.439   8.207   6.187
31440SOL     OW96216  11.090  12.202   9.768
31440SOL    HW196217  11.118  12.181   9.857
31440SOL    HW296218  11.165  12.247   9.730
31441SOL     OW96219   0.953   6.886   9.858
31441SOL    HW196220   1.036   6.932   9.869
31441SOL    HW296221   0.888   6.955   9.849
31442SOL     OW96222   8.958   6.383  13.700
31442SOL    HW196223   8.895   6.319  13.732
31442SOL    HW296224   8.933   6.465  13.743
31443SOL     OW96225  10.076   8.362   4.166
31443SOL    HW196226  10.020   8.342   4.241
31443SOL    HW296227  10.126   8.282   4.151
31444SOL     OW96228  13.832   7.108   0.934
31444SOL    HW196229  13.868   7.058   0.860
31444SOL    HW296230  13.737   7.106   0.920
31445SOL     OW96231   3.369   7.033   8.296
31445SOL    HW196232   3.316   7.006   8.221
31445SOL    HW296233   3.331   7.116   8.324
31446SOL     OW96234   4.837   9.808   8.399
31446SOL    HW196235   4.746   9.784   8.417
31446SOL    HW296236   4.887   9.764   8.467
31447SOL     OW96237  14.404   0.293   0.448
31447SOL    HW196238  14.459   0.358   0.493
31447SOL    HW296239  14.410   0.316   0.356
31448SOL     OW96240   5.066   8.238   9.749
31448SOL    HW196241   5.015   8.318   9.747
31448SOL    HW296242   5.002   8.168   9.743
31449SOL     OW96243   1.656   0.670  10.250
31449SOL    HW196244   1.632   0.588  10.207
31449SOL    HW296245   1.645   0.652  10.344
31450SOL     OW96246   6.686  13.494  12.795
31450SOL    HW196247   6.765  13.487  12.742
31450SOL    HW296248   6.616  13.511  12.732
31451SOL     OW96249   3.231  10.461   2.202
31451SOL    HW196250   3.208  10.553   2.206
31451SOL    HW296251   3.213  10.435   2.111
31452SOL     OW96252  13.434   6.975   7.684
31452SOL    HW196253  13.487   7.054   7.697
31452SOL    HW296254  13.344   7.004   7.701
31453SOL     OW96255   4.021   0.041   1.020
31453SOL    HW196256   3.959   0.109   1.046
31453SOL    HW296257   3.970  14.839   1.023
31454SOL     OW96258   4.196   2.115   6.430
31454SOL    HW196259   4.284   2.095   6.397
31454SOL    HW296260   4.140   2.051   6.386
31455SOL     OW96261   3.297   3.565   8.757
31455SOL    HW196262   3.303   3.569   8.853
31455SOL    HW296263   3.250   3.483   8.739
31456SOL     OW96264   6.978   2.875   6.289
31456SOL    HW196265   6.962   2.881   6.383
31456SOL    HW296266   7.070   2.847   6.282
31457SOL     OW96267   4.354  11.565   7.246
31457SOL    HW196268   4.292  11.629   7.281
31457SOL    HW296269   4.382  11.603   7.162
31458SOL     OW96270  14.869   3.904   8.151
31458SOL    HW196271  14.848   3.877   8.240
31458SOL    HW296272   0.050   3.977   8.161
31459SOL     OW96273   6.373  11.331  12.485
31459SOL    HW196274   6.281  11.337  12.511
31459SOL    HW296275   6.373  11.280  12.405
31460SOL     OW96276   6.016   9.244   7.900
31460SOL    HW196277   6.052   9.329   7.873
31460SOL    HW296278   6.091   9.185   7.899
31461SOL     OW96279   8.828  13.648   6.801
31461SOL    HW196280   8.815  13.615   6.712
31461SOL    HW296281   8.881  13.580   6.843
31462SOL     OW96282   1.766   3.484  11.175
31462SOL    HW196283   1.844   3.455  11.127
31462SOL    HW296284   1.698   3.421  11.150
31463SOL     OW96285   0.438   9.122   1.326
31463SOL    HW196286   0.421   9.072   1.245
31463SOL    HW296287   0.470   9.056   1.388
31464SOL     OW96288  14.429   3.285  11.600
31464SOL    HW196289  14.366   3.228  11.644
31464SOL    HW296290  14.453   3.350  11.666
31465SOL     OW96291   1.659   6.463   0.032
31465SOL    HW196292   1.655   6.550   0.071
31465SOL    HW296293   1.686   6.406   0.103
31466SOL     OW96294  13.623  13.277   7.604
31466SOL    HW196295  13.671  13.358   7.588
31466SOL    HW296296  13.585  13.287   7.691
31467SOL     OW96297  12.655   5.216  14.232
31467SOL    HW196298  12.660   5.125  14.260
31467SOL    HW296299  12.704   5.219  14.150
31468SOL     OW96300   2.545   2.019   4.637
31468SOL    HW196301   2.603   1.945   4.656
31468SOL    HW296302   2.458   1.981   4.632
31469SOL     OW96303  13.639   9.730   4.010
31469SOL    HW196304  13.709   9.665   4.008
31469SOL    HW296305  13.684   9.814   4.006
31470SOL     OW96306  12.379   5.342   4.438
31470SOL    HW196307  12.359   5.432   4.462
31470SOL    HW296308  12.474   5.342   4.423
31471SOL     OW96309   8.828   2.311   7.817
31471SOL    HW196310   8.755   2.275   7.868
31471SOL    HW296311   8.905   2.264   7.849
31472SOL     OW96312  13.776  14.370  10.911
31472SOL    HW196313  13.754  14.277  10.915
31472SOL    HW296314  13.817  14.381  10.825
31473SOL     OW96315   8.720  13.805   3.783
31473SOL    HW196316   8.769  13.877   3.821
31473SOL    HW296317   8.745  13.729   3.836
31474SOL     OW96318  11.110   4.662  13.779
31474SOL    HW196319  11.149   4.661  13.692
31474SOL    HW296320  11.124   4.574  13.813
31475SOL     OW96321   7.486   9.936  14.007
31475SOL    HW196322   7.399   9.919  14.044
31475SOL    HW296323   7.485  10.029  13.985
31476SOL     OW96324   9.120  11.146   0.895
31476SOL    HW196325   9.188  11.091   0.855
31476SOL    HW296326   9.051  11.085   0.920
31477SOL     OW96327   6.090   8.875   5.221
31477SOL    HW196328   6.072   8.867   5.315
31477SOL    HW296329   6.175   8.917   5.216
31478SOL     OW96330   6.179   7.195   1.739
31478SOL    HW196331   6.227   7.117   1.710
31478SOL    HW296332   6.104   7.201   1.680
31479SOL     OW96333  11.879   9.987   1.212
31479SOL    HW196334  11.845   9.952   1.130
31479SOL    HW296335  11.801  10.013   1.260
31480SOL     OW96336  14.491   4.445  11.131
31480SOL    HW196337  14.497   4.381  11.060
31480SOL    HW296338  14.402   4.479  11.125
31481SOL     OW96339   7.430   6.631  10.263
31481SOL    HW196340   7.491   6.575  10.310
31481SOL    HW296341   7.386   6.572  10.202
31482SOL     OW96342   5.366   1.785   0.737
31482SOL    HW196343   5.363   1.751   0.647
31482SOL    HW296344   5.399   1.712   0.789
31483SOL     OW96345   0.300   2.128  10.656
31483SOL    HW196346   0.230   2.120  10.591
31483SOL    HW296347   0.257   2.110  10.740
31484SOL     OW96348  10.309  10.758   5.641
31484SOL    HW196349  10.344  10.842   5.613
31484SOL    HW296350  10.214  10.768   5.634
31485SOL     OW96351   9.675   5.528   4.043
31485SOL    HW196352   9.754   5.555   4.092
31485SOL    HW296353   9.690   5.559   3.954
31486SOL     OW96354  12.665   2.156  12.112
31486SOL    HW196355  12.607   2.220  12.154
31486SOL    HW296356  12.637   2.154  12.021
31487SOL     OW96357  12.417   1.525   3.999
31487SOL    HW196358  12.362   1.603   4.008
31487SOL    HW296359  12.492   1.542   4.056
31488SOL     OW96360   5.058   7.395   4.546
31488SOL    HW196361   5.142   7.349   4.541
31488SOL    HW296362   5.025   7.376   4.633
31489SOL     OW96363   6.303  13.698   1.051
31489SOL    HW196364   6.306  13.747   0.969
31489SOL    HW296365   6.214  13.663   1.054
31490SOL     OW96366   6.377   0.700   6.871
31490SOL    HW196367   6.323   0.740   6.803
31490SOL    HW296368   6.326   0.709   6.951
31491SOL     OW96369  10.100  14.641   4.475
31491SOL    HW196370  10.009  14.649   4.444
31491SOL    HW296371  10.140  14.577   4.415
31492SOL     OW96372  11.357  13.988  10.685
31492SOL    HW196373  11.388  13.907  10.724
31492SOL    HW296374  11.436  14.029  10.649
31493SOL     OW96375   6.104   7.449   2.647
31493SOL    HW196376   6.089   7.508   2.721
31493SOL    HW296377   6.028   7.462   2.591
31494SOL     OW96378   9.549  12.437   0.578
31494SOL    HW196379   9.560  12.347   0.545
31494SOL    HW296380   9.455  12.446   0.591
31495SOL     OW96381   9.882   4.500   7.888
31495SOL    HW196382   9.958   4.499   7.946
31495SOL    HW296383   9.811   4.461   7.939
31496SOL     OW96384   6.508   3.745  10.252
31496SOL    HW196385   6.437   3.784  10.302
31496SOL    HW296386   6.588   3.774  10.297
31497SOL     OW96387   8.330   5.649   5.032
31497SOL    HW196388   8.270   5.654   4.957
31497SOL    HW296389   8.293   5.580   5.087
31498SOL     OW96390   3.010   7.179  11.333
31498SOL    HW196391   3.027   7.270  11.358
31498SOL    HW296392   2.956   7.145  11.405
31499SOL     OW96393   3.549   3.637   9.562
31499SOL    HW196394   3.464   3.679   9.575
31499SOL    HW296395   3.529   3.545   9.546
31500SOL     OW96396   3.530   4.370   5.082
31500SOL    HW196397   3.586   4.361   5.005
31500SOL    HW296398   3.445   4.396   5.047
31501SOL     OW96399   8.834   8.906   6.003
31501SOL    HW196400   8.831   9.000   5.990
31501SOL    HW296401   8.856   8.896   6.096
31502SOL     OW96402   5.756  11.330  11.857
31502SOL    HW196403   5.707  11.333  11.939
31502SOL    HW296404   5.722  11.252  11.813
31503SOL     OW96405   8.342  14.190  12.892
31503SOL    HW196406   8.357  14.283  12.873
31503SOL    HW296407   8.351  14.146  12.808
31504SOL     OW96408   1.790   4.667  10.741
31504SOL    HW196409   1.778   4.580  10.779
31504SOL    HW296410   1.885   4.674  10.727
31505SOL     OW96411  14.674  10.830   1.005
31505SOL    HW196412  14.625  10.892   1.059
31505SOL    HW296413  14.740  10.884   0.961
31506SOL     OW96414   3.930  11.666  11.065
31506SOL    HW196415   3.974  11.679  10.981
31506SOL    HW296416   3.878  11.587  11.053
31507SOL     OW96417   1.924  13.744   5.774
31507SOL    HW196418   1.931  13.706   5.862
31507SOL    HW296419   1.922  13.668   5.716
31508SOL     OW96420   7.229  11.808  10.561
31508SOL    HW196421   7.282  11.780  10.486
31508SOL    HW296422   7.277  11.882  10.598
31509SOL     OW96423  12.812  14.307   3.274
31509SOL    HW196424  12.850  14.232   3.321
31509SOL    HW296425  12.871  14.379   3.295
31510SOL     OW96426   3.655  10.530  12.343
31510SOL    HW196427   3.577  10.568  12.302
31510SOL    HW296428   3.719  10.526  12.271
31511SOL     OW96429   8.117  12.746  12.527
31511SOL    HW196430   8.071  12.830  12.524
31511SOL    HW296431   8.048  12.680  12.517
31512SOL     OW96432   8.343  11.582  13.340
31512SOL    HW196433   8.303  11.610  13.257
31512SOL    HW296434   8.352  11.663  13.390
31513SOL     OW96435  14.812  13.360   7.066
31513SOL    HW196436  14.726  13.357   7.109
31513SOL    HW296437  14.856  13.435   7.106
31514SOL     OW96438   8.913  14.816  11.771
31514SOL    HW196439   9.008  14.803  11.766
31514SOL    HW296440   8.876  14.731  11.748
31515SOL     OW96441   5.698   7.633  11.929
31515SOL    HW196442   5.613   7.624  11.887
31515SOL    HW296443   5.757   7.578  11.877
31516SOL     OW96444   6.827   6.511  12.047
31516SOL    HW196445   6.858   6.481  11.961
31516SOL    HW296446   6.771   6.586  12.027
31517SOL     OW96447   9.267  14.772  12.659
31517SOL    HW196448   9.301  14.737  12.576
31517SOL    HW296449   9.221  14.699  12.699
31518SOL     OW96450   4.336   3.376  10.952
31518SOL    HW196451   4.255   3.336  10.983
31518SOL    HW296452   4.406   3.320  10.987
31519SOL     OW96453  12.323   8.633  10.262
31519SOL    HW196454  12.263   8.663  10.194
31519SOL    HW296455  12.369   8.559  10.223
31520SOL     OW96456   2.459   6.335  11.815
31520SOL    HW196457   2.405   6.360  11.739
31520SOL    HW296458   2.544   6.376  11.798
31521SOL     OW96459  11.199   4.344   9.659
31521SOL    HW196460  11.187   4.439   9.649
31521SOL    HW296461  11.293   4.334   9.675
31522SOL     OW96462   7.137   8.976   1.585
31522SOL    HW196463   7.189   8.897   1.573
31522SOL    HW296464   7.199   9.041   1.619
31523SOL     OW96465   0.325  13.370   6.387
31523SOL    HW196466   0.240  13.408   6.408
31523SOL    HW296467   0.309  13.275   6.388
31524SOL     OW96468   1.010   0.068   7.437
31524SOL    HW196469   1.021   0.054   7.343
31524SOL    HW296470   1.062  14.879   7.478
31525SOL     OW96471  10.980   6.780   2.853
31525SOL    HW196472  10.912   6.723   2.817
31525SOL    HW296473  11.046   6.787   2.784
31526SOL     OW96474   8.627   2.314   5.932
31526SOL    HW196475   8.709   2.349   5.967
31526SOL    HW296476   8.569   2.307   6.008
31527SOL     OW96477  13.907   6.710   8.291
31527SOL    HW196478  13.900   6.783   8.353
31527SOL    HW296479  13.928   6.752   8.207
31528SOL     OW96480   4.101  14.199   4.465
31528SOL    HW196481   4.160  14.274   4.468
31528SOL    HW296482   4.158  14.124   4.484
31529SOL     OW96483   2.024   4.174   6.372
31529SOL    HW196484   2.007   4.210   6.285
31529SOL    HW296485   1.954   4.109   6.385
31530SOL     OW96486   6.223   2.926  11.670
31530SOL    HW196487   6.181   2.926  11.584
31530SOL    HW296488   6.206   2.838  11.705
31531SOL     OW96489  13.853   2.305  13.775
31531SOL    HW196490  13.845   2.226  13.828
31531SOL    HW296491  13.778   2.300  13.714
31532SOL     OW96492  10.602  11.905  14.254
31532SOL    HW196493  10.686  11.865  14.233
31532SOL    HW296494  10.594  11.979  14.194
31533SOL     OW96495   9.419   1.386  11.212
31533SOL    HW196496   9.448   1.295  11.207
31533SOL    HW296497   9.490   1.432  11.256
31534SOL     OW96498   6.686  14.316  14.011
31534SOL    HW196499   6.704  14.236  14.061
31534SOL    HW296500   6.627  14.287  13.941
31535SOL     OW96501   8.693   4.732  14.011
31535SOL    HW196502   8.628   4.768  13.951
31535SOL    HW296503   8.682   4.637  14.005
31536SOL     OW96504   9.231   5.430  14.214
31536SOL    HW196505   9.227   5.444  14.119
31536SOL    HW296506   9.259   5.338  14.223
31537SOL     OW96507   7.798   0.233   0.304
31537SOL    HW196508   7.718   0.203   0.261
31537SOL    HW296509   7.787   0.211   0.396
31538SOL     OW96510   2.540   9.710  10.260
31538SOL    HW196511   2.608   9.719  10.326
31538SOL    HW296512   2.559   9.780  10.197
31539SOL     OW96513   0.321   5.632   4.648
31539SOL    HW196514   0.411   5.600   4.647
31539SOL    HW296515   0.286   5.601   4.732
31540SOL     OW96516   1.101  13.959   5.772
31540SOL    HW196517   1.128  13.997   5.689
31540SOL    HW296518   1.024  14.010   5.798
31541SOL     OW96519  13.002   2.807   3.680
31541SOL    HW196520  12.907   2.796   3.678
31541SOL    HW296521  13.020   2.854   3.761
31542SOL     OW96522  12.311   5.006  12.794
31542SOL    HW196523  12.265   4.930  12.757
31542SOL    HW296524  12.376   5.029  12.728
31543SOL     OW96525   7.505   4.481   4.475
31543SOL    HW196526   7.575   4.420   4.500
31543SOL    HW296527   7.437   4.425   4.438
31544SOL     OW96528   7.241  10.768   9.384
31544SOL    HW196529   7.276  10.850   9.350
31544SOL    HW296530   7.219  10.717   9.306
31545SOL     OW96531   3.727  10.241   0.400
31545SOL    HW196532   3.644  10.198   0.383
31545SOL    HW296533   3.719  10.276   0.489
31546SOL     OW96534   7.085   1.105  13.198
31546SOL    HW196535   7.111   1.151  13.278
31546SOL    HW296536   7.006   1.057  13.224
31547SOL     OW96537   3.262   8.792   4.933
31547SOL    HW196538   3.181   8.783   4.984
31547SOL    HW296539   3.323   8.835   4.992
31548SOL     OW96540   8.411  10.822   1.403
31548SOL    HW196541   8.405  10.740   1.453
31548SOL    HW296542   8.436  10.795   1.315
31549SOL     OW96543  10.931   4.242   1.365
31549SOL    HW196544  10.913   4.330   1.397
31549SOL    HW296545  10.988   4.255   1.289
31550SOL     OW96546   3.039   0.154  10.495
31550SOL    HW196547   3.075   0.170  10.408
31550SOL    HW296548   3.113   0.161  10.554
31551SOL     OW96549   2.423   5.889   8.133
31551SOL    HW196550   2.356   5.956   8.145
31551SOL    HW296551   2.505   5.938   8.128
31552SOL     OW96552  10.239  13.876  13.108
31552SOL    HW196553  10.205  13.898  13.194
31552SOL    HW296554  10.172  13.906  13.047
31553SOL     OW96555   2.528   3.125   7.041
31553SOL    HW196556   2.590   3.059   7.010
31553SOL    HW296557   2.471   3.142   6.966
31554SOL     OW96558   7.797   0.162   8.794
31554SOL    HW196559   7.734   0.162   8.866
31554SOL    HW296560   7.826   0.072   8.787
31555SOL     OW96561  10.996   0.665   4.784
31555SOL    HW196562  11.015   0.754   4.813
31555SOL    HW296563  10.950   0.624   4.857
31556SOL     OW96564   8.981   7.095  10.402
31556SOL    HW196565   9.066   7.137  10.410
31556SOL    HW296566   8.958   7.070  10.491
31557SOL     OW96567   5.837   2.698   1.144
31557SOL    HW196568   5.791   2.633   1.091
31557SOL    HW296569   5.928   2.670   1.143
31558SOL     OW96570  14.627   8.426  10.439
31558SOL    HW196571  14.553   8.425  10.499
31558SOL    HW296572  14.592   8.388  10.358
31559SOL     OW96573   9.851   5.880   7.524
31559SOL    HW196574   9.790   5.838   7.464
31559SOL    HW296575   9.889   5.952   7.474
31560SOL     OW96576   3.221   9.789   9.733
31560SOL    HW196577   3.179   9.835   9.660
31560SOL    HW296578   3.244   9.703   9.696
31561SOL     OW96579   1.972   0.201   4.803
31561SOL    HW196580   2.001   0.234   4.718
31561SOL    HW296581   1.909   0.266   4.834
31562SOL     OW96582   7.350  11.504  14.205
31562SOL    HW196583   7.287  11.450  14.159
31562SOL    HW296584   7.297  11.572  14.248
31563SOL     OW96585  14.184  10.310   4.157
31563SOL    HW196586  14.093  10.284   4.145
31563SOL    HW296587  14.181  10.375   4.228
31564SOL     OW96588   5.982  12.496  13.365
31564SOL    HW196589   6.021  12.521  13.281
31564SOL    HW296590   6.055  12.458  13.415
31565SOL     OW96591  12.839  13.032  11.585
31565SOL    HW196592  12.934  13.033  11.590
31565SOL    HW296593  12.815  12.940  11.592
31566SOL     OW96594   0.210   6.203   7.626
31566SOL    HW196595   0.163   6.278   7.589
31566SOL    HW296596   0.142   6.139   7.644
31567SOL     OW96597   4.985   6.220   4.791
31567SOL    HW196598   5.010   6.127   4.791
31567SOL    HW296599   5.067   6.267   4.811
31568SOL     OW96600   6.502   8.598  14.254
31568SOL    HW196601   6.576   8.609  14.314
31568SOL    HW296602   6.501   8.504  14.235
31569SOL     OW96603   6.385  11.352   0.484
31569SOL    HW196604   6.376  11.447   0.493
31569SOL    HW296605   6.431  11.324   0.563
31570SOL     OW96606  11.822   5.557   6.969
31570SOL    HW196607  11.850   5.645   6.994
31570SOL    HW296608  11.767   5.570   6.892
31571SOL     OW96609   6.813   0.461   6.645
31571SOL    HW196610   6.735   0.407   6.633
31571SOL    HW296611   6.842   0.442   6.734
31572SOL     OW96612   9.433   0.024   8.945
31572SOL    HW196613   9.345   0.030   8.985
31572SOL    HW296614   9.434   0.092   8.878
31573SOL     OW96615   2.756   3.170  10.952
31573SOL    HW196616   2.700   3.130  10.886
31573SOL    HW296617   2.770   3.259  10.921
31574SOL     OW96618   2.393  13.110   4.466
31574SOL    HW196619   2.445  13.042   4.510
31574SOL    HW296620   2.457  13.178   4.445
31575SOL     OW96621   2.645   3.431  10.500
31575SOL    HW196622   2.685   3.368  10.560
31575SOL    HW296623   2.571   3.466  10.549
31576SOL     OW96624   4.086   3.412  11.253
31576SOL    HW196625   4.017   3.358  11.215
31576SOL    HW296626   4.167   3.362  11.239
31577SOL     OW96627  10.306  13.124   2.319
31577SOL    HW196628  10.302  13.047   2.375
31577SOL    HW296629  10.391  13.163   2.337
31578SOL     OW96630   2.403   6.792   0.874
31578SOL    HW196631   2.347   6.792   0.796
31578SOL    HW296632   2.365   6.860   0.930
31579SOL     OW96633   9.781   6.727   9.003
31579SOL    HW196634   9.781   6.707   9.097
31579SOL    HW296635   9.788   6.822   8.998
31580SOL     OW96636   4.293   4.399   0.799
31580SOL    HW196637   4.371   4.440   0.761
31580SOL    HW296638   4.231   4.394   0.727
31581SOL     OW96639   2.917  11.627   5.924
31581SOL    HW196640   2.823  11.621   5.909
31581SOL    HW296641   2.954  11.655   5.840
31582SOL     OW96642  13.298  12.676  14.130
31582SOL    HW196643  13.236  12.682  14.058
31582SOL    HW296644  13.329  12.585  14.126
31583SOL     OW96645  13.475   0.730  11.222
31583SOL    HW196646  13.557   0.711  11.267
31583SOL    HW296647  13.484   0.820  11.192
31584SOL     OW96648   5.890   4.467   2.040
31584SOL    HW196649   5.843   4.455   1.958
31584SOL    HW296650   5.826   4.504   2.100
31585SOL     OW96651   3.600   3.939  14.835
31585SOL    HW196652   3.686   3.981  14.830
31585SOL    HW296653   3.606   3.864  14.775
31586SOL     OW96654   4.780  11.473  13.823
31586SOL    HW196655   4.758  11.565  13.808
31586SOL    HW296656   4.723  11.425  13.763
31587SOL     OW96657   7.187   5.311  11.199
31587SOL    HW196658   7.100   5.350  11.195
31587SOL    HW296659   7.176   5.225  11.157
31588SOL     OW96660   3.309   3.119  14.794
31588SOL    HW196661   3.251   3.129  14.870
31588SOL    HW296662   3.378   3.184  14.808
31589SOL     OW96663  13.365   9.928  12.809
31589SOL    HW196664  13.308   9.869  12.758
31589SOL    HW296665  13.450   9.920  12.767
31590SOL     OW96666  11.790   5.129   5.023
31590SOL    HW196667  11.740   5.210   5.024
31590SOL    HW296668  11.727   5.062   5.050
31591SOL     OW96669   0.579   7.384   1.364
31591SOL    HW196670   0.608   7.454   1.306
31591SOL    HW296671   0.489   7.365   1.337
31592SOL     OW96672  10.422   0.741  14.596
31592SOL    HW196673  10.421   0.703  14.683
31592SOL    HW296674  10.510   0.723  14.562
31593SOL     OW96675   7.993   6.657   9.317
31593SOL    HW196676   8.026   6.707   9.391
31593SOL    HW296677   8.010   6.565   9.341
31594SOL     OW96678   9.990  11.072  10.491
31594SOL    HW196679   9.980  10.977  10.485
31594SOL    HW296680  10.044  11.095  10.414
31595SOL     OW96681   1.442   1.159   1.658
31595SOL    HW196682   1.348   1.160   1.640
31595SOL    HW296683   1.455   1.078   1.708
31596SOL     OW96684   9.001   8.444  14.283
31596SOL    HW196685   8.942   8.514  14.312
31596SOL    HW296686   8.996   8.447  14.187
31597SOL     OW96687   0.527   4.529   0.305
31597SOL    HW196688   0.557   4.528   0.215
31597SOL    HW296689   0.574   4.601   0.346
31598SOL     OW96690  13.170   8.992   0.666
31598SOL    HW196691  13.123   9.072   0.643
31598SOL    HW296692  13.116   8.921   0.633
31599SOL     OW96693   4.022   8.220   3.822
31599SOL    HW196694   4.061   8.266   3.896
31599SOL    HW296695   4.042   8.275   3.746
31600SOL     OW96696  11.508  13.055  14.754
31600SOL    HW196697  11.498  12.965  14.784
31600SOL    HW296698  11.575  13.050  14.686
31601SOL     OW96699  14.386   2.691  11.935
31601SOL    HW196700  14.332   2.671  12.011
31601SOL    HW296701  14.401   2.606  11.893
31602SOL     OW96702   6.184  10.893  14.637
31602SOL    HW196703   6.193  10.906  14.732
31602SOL    HW296704   6.150  10.804  14.628
31603SOL     OW96705  11.820  13.141   7.513
31603SOL    HW196706  11.758  13.100   7.453
31603SOL    HW296707  11.891  13.171   7.456
31604SOL     OW96708  11.685   0.419  14.431
31604SOL    HW196709  11.619   0.469  14.382
31604SOL    HW296710  11.768   0.457  14.403
31605SOL     OW96711   3.597  11.448   2.030
31605SOL    HW196712   3.620  11.518   2.091
31605SOL    HW296713   3.674  11.392   2.027
31606SOL     OW96714   5.336   4.905  13.370
31606SOL    HW196715   5.423   4.941  13.353
31606SOL    HW296716   5.288   4.916  13.288
31607SOL     OW96717  12.148   0.670   1.615
31607SOL    HW196718  12.176   0.762   1.611
31607SOL    HW296719  12.230   0.621   1.616
31608SOL     OW96720   7.726  10.393   4.676
31608SOL    HW196721   7.704  10.457   4.608
31608SOL    HW296722   7.788  10.439   4.733
31609SOL     OW96723   7.746   8.439  11.667
31609SOL    HW196724   7.828   8.418  11.624
31609SOL    HW296725   7.712   8.355  11.697
31610SOL     OW96726   9.270   6.466   8.025
31610SOL    HW196727   9.312   6.547   8.053
31610SOL    HW296728   9.243   6.424   8.107
31611SOL     OW96729  11.090  11.368  10.929
31611SOL    HW196730  11.146  11.290  10.925
31611SOL    HW296731  11.066  11.385  10.839
31612SOL     OW96732  10.250  13.257  12.977
31612SOL    HW196733  10.281  13.328  13.033
31612SOL    HW296734  10.264  13.178  13.030
31613SOL     OW96735  14.589   9.814   9.382
31613SOL    HW196736  14.638   9.760   9.444
31613SOL    HW296737  14.514   9.846   9.432
31614SOL     OW96738   7.558   1.406  13.260
31614SOL    HW196739   7.619   1.366  13.198
31614SOL    HW296740   7.531   1.487  13.217
31615SOL     OW96741   3.603  12.148   1.136
31615SOL    HW196742   3.562  12.156   1.222
31615SOL    HW296743   3.603  12.237   1.100
31616SOL     OW96744  12.436   5.657   3.863
31616SOL    HW196745  12.495   5.704   3.804
31616SOL    HW296746  12.352   5.702   3.855
31617SOL     OW96747   6.876   9.102   8.081
31617SOL    HW196748   6.831   9.134   8.003
31617SOL    HW296749   6.956   9.061   8.047
31618SOL     OW96750   0.715   2.504   2.793
31618SOL    HW196751   0.745   2.424   2.836
31618SOL    HW296752   0.686   2.476   2.706
31619SOL     OW96753  11.506   1.681   6.661
31619SOL    HW196754  11.483   1.744   6.729
31619SOL    HW296755  11.424   1.637   6.640
31620SOL     OW96756  12.795  11.931   7.327
31620SOL    HW196757  12.703  11.953   7.311
31620SOL    HW296758  12.792  11.864   7.396
31621SOL     OW96759  14.363  13.295  10.818
31621SOL    HW196760  14.390  13.203  10.817
31621SOL    HW296761  14.302  13.301  10.891
31622SOL     OW96762   2.473   7.309  14.862
31622SOL    HW196763   2.478   7.245   0.054
31622SOL    HW296764   2.381   7.309  14.837
31623SOL     OW96765   8.586   5.770   4.932
31623SOL    HW196766   8.498   5.751   4.966
31623SOL    HW296767   8.576   5.854   4.887
31624SOL     OW96768  11.735   9.215   2.684
31624SOL    HW196769  11.760   9.152   2.752
31624SOL    HW296770  11.641   9.205   2.675
31625SOL     OW96771   3.089   0.021  10.878
31625SOL    HW196772   3.117  14.829  10.935
31625SOL    HW296773   3.112   0.100  10.926
31626SOL     OW96774  13.875  14.806   0.802
31626SOL    HW196775  13.901  14.821   0.893
31626SOL    HW296776  13.932  14.735   0.773
31627SOL     OW96777   7.755   1.158   8.966
31627SOL    HW196778   7.752   1.226   9.034
31627SOL    HW296779   7.780   1.078   9.012
31628SOL     OW96780   2.433  14.470   1.605
31628SOL    HW196781   2.381  14.462   1.685
31628SOL    HW296782   2.523  14.453   1.633
31629SOL     OW96783   2.684   3.004  11.962
31629SOL    HW196784   2.591   3.024  11.953
31629SOL    HW296785   2.728   3.089  11.959
31630SOL     OW96786   5.191   8.396   0.792
31630SOL    HW196787   5.205   8.469   0.852
31630SOL    HW296788   5.149   8.436   0.716
31631SOL     OW96789   0.589   9.346   0.217
31631SOL    HW196790   0.603   9.432   0.257
31631SOL    HW296791   0.676   9.321   0.185
31632SOL     OW96792  13.520   2.076   1.088
31632SOL    HW196793  13.589   2.012   1.107
31632SOL    HW296794  13.459   2.030   1.031
31633SOL     OW96795   4.223  10.037   3.506
31633SOL    HW196796   4.290  10.070   3.566
31633SOL    HW296797   4.247   9.946   3.490
31634SOL     OW96798   2.829   1.595   7.983
31634SOL    HW196799   2.877   1.659   7.930
31634SOL    HW296800   2.778   1.544   7.920
31635SOL     OW96801   9.289   2.697  14.019
31635SOL    HW196802   9.224   2.705  13.950
31635SOL    HW296803   9.254   2.749  14.092
31636SOL     OW96804  13.835  13.306   6.299
31636SOL    HW196805  13.795  13.392   6.311
31636SOL    HW296806  13.832  13.292   6.204
31637SOL     OW96807  14.366   2.160   4.260
31637SOL    HW196808  14.433   2.223   4.233
31637SOL    HW296809  14.402   2.120   4.340
31638SOL     OW96810   4.698   2.620  10.629
31638SOL    HW196811   4.626   2.644  10.570
31638SOL    HW296812   4.672   2.656  10.714
31639SOL     OW96813   7.709  14.305   5.568
31639SOL    HW196814   7.803  14.311   5.584
31639SOL    HW296815   7.672  14.280   5.652
31640SOL     OW96816   5.223   7.006   7.251
31640SOL    HW196817   5.289   7.031   7.316
31640SOL    HW296818   5.172   6.937   7.293
31641SOL     OW96819   5.375  14.778   5.673
31641SOL    HW196820   5.351  14.856   5.723
31641SOL    HW296821   5.374  14.707   5.738
31642SOL     OW96822   6.765   4.263   9.854
31642SOL    HW196823   6.731   4.332   9.798
31642SOL    HW296824   6.724   4.278   9.939
31643SOL     OW96825   4.476   5.754  11.511
31643SOL    HW196826   4.483   5.659  11.503
31643SOL    HW296827   4.543   5.788  11.451
31644SOL     OW96828  11.754   4.074  14.258
31644SOL    HW196829  11.793   3.989  14.280
31644SOL    HW296830  11.814   4.111  14.193
31645SOL     OW96831   1.654   2.561   4.596
31645SOL    HW196832   1.742   2.569   4.559
31645SOL    HW296833   1.598   2.537   4.522
31646SOL     OW96834   1.856   5.858  12.526
31646SOL    HW196835   1.936   5.897  12.491
31646SOL    HW296836   1.886   5.803  12.599
31647SOL     OW96837   4.862   4.241   5.353
31647SOL    HW196838   4.830   4.189   5.279
31647SOL    HW296839   4.808   4.320   5.352
31648SOL     OW96840   0.610   1.126   5.495
31648SOL    HW196841   0.552   1.064   5.540
31648SOL    HW296842   0.675   1.151   5.560
31649SOL     OW96843  11.787   3.941   8.749
31649SOL    HW196844  11.836   3.869   8.789
31649SOL    HW296845  11.704   3.944   8.798
31650SOL     OW96846  10.751   9.962   2.619
31650SOL    HW196847  10.806   9.999   2.550
31650SOL    HW296848  10.766  10.019   2.694
31651SOL     OW96849   5.349  11.832  14.286
31651SOL    HW196850   5.369  11.756  14.341
31651SOL    HW296851   5.265  11.864  14.320
31652SOL     OW96852  11.090   6.020  12.292
31652SOL    HW196853  11.089   5.941  12.345
31652SOL    HW296854  11.174   6.062  12.314
31653SOL     OW96855  11.682  13.995   9.720
31653SOL    HW196856  11.695  14.015   9.627
31653SOL    HW296857  11.753  14.042   9.764
31654SOL     OW96858   5.061  10.322  14.222
31654SOL    HW196859   4.987  10.271  14.256
31654SOL    HW296860   5.036  10.413  14.236
31655SOL     OW96861   5.031  13.769   2.014
31655SOL    HW196862   5.107  13.801   2.062
31655SOL    HW296863   5.044  13.674   2.010
31656SOL     OW96864   6.047   6.166   6.519
31656SOL    HW196865   6.101   6.243   6.541
31656SOL    HW296866   6.064   6.105   6.591
31657SOL     OW96867  11.233   0.831   1.417
31657SOL    HW196868  11.199   0.887   1.348
31657SOL    HW296869  11.312   0.791   1.379
31658SOL     OW96870  12.746   4.262   6.716
31658SOL    HW196871  12.723   4.236   6.805
31658SOL    HW296872  12.841   4.257   6.714
31659SOL     OW96873   9.173   7.225   8.826
31659SOL    HW196874   9.208   7.253   8.910
31659SOL    HW296875   9.245   7.238   8.764
31660SOL     OW96876  12.088   7.255  14.157
31660SOL    HW196877  12.131   7.336  14.128
31660SOL    HW296878  12.151   7.186  14.137
31661SOL     OW96879   4.025   9.349  13.894
31661SOL    HW196880   3.963   9.295  13.846
31661SOL    HW296881   3.976   9.383  13.969
31662SOL     OW96882   1.436   0.077  10.185
31662SOL    HW196883   1.527   0.086  10.215
31662SOL    HW296884   1.417  14.864  10.194
31663SOL     OW96885  13.069   4.113   4.505
31663SOL    HW196886  13.043   4.045   4.442
31663SOL    HW296887  13.108   4.065   4.577
31664SOL     OW96888   9.739   3.419   6.470
31664SOL    HW196889   9.753   3.329   6.441
31664SOL    HW296890   9.701   3.410   6.558
31665SOL     OW96891   2.773   9.222   7.553
31665SOL    HW196892   2.687   9.202   7.591
31665SOL    HW296893   2.825   9.255   7.627
31666SOL     OW96894   4.620   3.534  14.219
31666SOL    HW196895   4.577   3.608  14.262
31666SOL    HW296896   4.593   3.458  14.270
31667SOL     OW96897   6.192   6.000   8.803
31667SOL    HW196898   6.148   5.938   8.861
31667SOL    HW296899   6.270   6.027   8.852
31668SOL     OW96900   2.580   5.594   9.919
31668SOL    HW196901   2.606   5.608  10.010
31668SOL    HW296902   2.662   5.600   9.869
31669SOL     OW96903   9.961   1.193  11.683
31669SOL    HW196904   9.892   1.129  11.666
31669SOL    HW296905  10.038   1.158  11.638
31670SOL     OW96906   7.482   6.232   1.186
31670SOL    HW196907   7.419   6.239   1.258
31670SOL    HW296908   7.443   6.282   1.115
31671SOL     OW96909  10.319  10.025   8.804
31671SOL    HW196910  10.320  10.001   8.711
31671SOL    HW296911  10.247   9.974   8.842
31672SOL     OW96912   9.096  11.637   2.880
31672SOL    HW196913   9.167  11.677   2.828
31672SOL    HW296914   9.056  11.574   2.820
31673SOL     OW96915   3.128   9.963  11.897
31673SOL    HW196916   3.138   9.871  11.872
31673SOL    HW296917   3.196   9.977  11.962
31674SOL     OW96918   2.914   2.079   1.539
31674SOL    HW196919   2.887   1.994   1.505
31674SOL    HW296920   2.835   2.133   1.534
31675SOL     OW96921  10.291   1.960   5.732
31675SOL    HW196922  10.262   2.031   5.788
31675SOL    HW296923  10.363   1.998   5.680
31676SOL     OW96924   1.471   7.443   1.317
31676SOL    HW196925   1.378   7.464   1.329
31676SOL    HW296926   1.472   7.350   1.294
31677SOL     OW96927  13.908   2.328   0.662
31677SOL    HW196928  14.000   2.350   0.650
31677SOL    HW296929  13.871   2.403   0.709
31678SOL     OW96930   1.101   2.852   7.004
31678SOL    HW196931   1.077   2.769   6.962
31678SOL    HW296932   1.126   2.909   6.932
31679SOL     OW96933   8.446   9.662   7.470
31679SOL    HW196934   8.383   9.613   7.419
31679SOL    HW296935   8.396   9.695   7.545
31680SOL     OW96936   0.234  10.791   8.086
31680SOL    HW196937   0.281  10.873   8.069
31680SOL    HW296938   0.157  10.818   8.137
31681SOL     OW96939   9.594   9.022  11.844
31681SOL    HW196940   9.521   9.001  11.786
31681SOL    HW296941   9.671   9.022  11.787
31682SOL     OW96942  11.434   7.375  11.350
31682SOL    HW196943  11.371   7.437  11.387
31682SOL    HW296944  11.399   7.354  11.264
31683SOL     OW96945  12.174   3.879   2.402
31683SOL    HW196946  12.087   3.841   2.416
31683SOL    HW296947  12.233   3.804   2.409
31684SOL     OW96948   1.974   7.985   9.357
31684SOL    HW196949   1.880   8.002   9.351
31684SOL    HW296950   1.984   7.892   9.338
31685SOL     OW96951   7.054  13.830  13.063
31685SOL    HW196952   7.013  13.910  13.032
31685SOL    HW296953   7.009  13.810  13.146
31686SOL     OW96954   5.702   5.846   1.674
31686SOL    HW196955   5.704   5.935   1.709
31686SOL    HW296956   5.624   5.807   1.713
31687SOL     OW96957   8.516   4.807  10.717
31687SOL    HW196958   8.463   4.874  10.761
31687SOL    HW296959   8.566   4.766  10.787
31688SOL     OW96960  12.398  12.233   2.305
31688SOL    HW196961  12.350  12.243   2.387
31688SOL    HW296962  12.473  12.178   2.328
31689SOL     OW96963   4.467  13.450  12.161
31689SOL    HW196964   4.391  13.508  12.167
31689SOL    HW296965   4.520  13.486  12.090
31690SOL     OW96966  11.914  14.489   4.326
31690SOL    HW196967  11.907  14.579   4.357
31690SOL    HW296968  11.895  14.494   4.233
31691SOL     OW96969   8.621   8.283   5.477
31691SOL    HW196970   8.648   8.209   5.422
31691SOL    HW296971   8.608   8.245   5.564
31692SOL     OW96972   4.286   0.695   3.563
31692SOL    HW196973   4.283   0.599   3.561
31692SOL    HW296974   4.379   0.717   3.557
31693SOL     OW96975   4.578   0.691   9.927
31693SOL    HW196976   4.486   0.716   9.925
31693SOL    HW296977   4.625   0.772   9.906
31694SOL     OW96978   3.077   7.056   0.001
31694SOL    HW196979   3.073   7.147   0.030
31694SOL    HW296980   3.052   7.059  14.788
31695SOL     OW96981   5.106  11.221   1.864
31695SOL    HW196982   5.178  11.170   1.829
31695SOL    HW296983   5.067  11.263   1.787
31696SOL     OW96984   8.113   0.074  10.678
31696SOL    HW196985   8.104   0.114  10.765
31696SOL    HW296986   8.177   0.003  10.691
31697SOL     OW96987  11.868   0.250  14.747
31697SOL    HW196988  11.855   0.339  14.712
31697SOL    HW296989  11.913   0.204  14.677
31698SOL     OW96990  11.157  12.924   8.998
31698SOL    HW196991  11.094  12.912   9.069
31698SOL    HW296992  11.236  12.880   9.028
31699SOL     OW96993  11.930  13.000   0.389
31699SOL    HW196994  11.933  13.067   0.458
31699SOL    HW296995  12.003  13.023   0.331
31700SOL     OW96996  10.775   5.236   4.778
31700SOL    HW196997  10.709   5.179   4.738
31700SOL    HW296998  10.858   5.192   4.760
31701SOL     OW96999  11.370  13.189  13.817
31701SOL    HW197000  11.288  13.143  13.800
31701SOL    HW297001  11.408  13.202  13.730
31702SOL     OW97002  11.761  12.476   4.017
31702SOL    HW197003  11.797  12.467   4.106
31702SOL    HW297004  11.837  12.468   3.960
31703SOL     OW97005   1.701   7.244  11.606
31703SOL    HW197006   1.726   7.182  11.675
31703SOL    HW297007   1.713   7.195  11.524
31704SOL     OW97008   9.893   6.066   7.294
31704SOL    HW197009   9.904   6.159   7.271
31704SOL    HW297010   9.865   6.025   7.213
31705SOL     OW97011   0.951   1.583   0.770
31705SOL    HW197012   0.987   1.616   0.853
31705SOL    HW297013   0.898   1.654   0.736
31706SOL     OW97014  13.755  13.565  10.487
31706SOL    HW197015  13.740  13.500  10.419
31706SOL    HW297016  13.850  13.578  10.488
31707SOL     OW97017   3.635   7.552   9.015
31707SOL    HW197018   3.599   7.609   9.082
31707SOL    HW297019   3.627   7.464   9.052
31708SOL     OW97020   1.813  12.673  14.513
31708SOL    HW197021   1.749  12.602  14.509
31708SOL    HW297022   1.856  12.662  14.598
31709SOL     OW97023   7.559   7.665  13.731
31709SOL    HW197024   7.475   7.619  13.744
31709SOL    HW297025   7.534   7.752  13.701
31710SOL     OW97026   0.712   3.317  11.112
31710SOL    HW197027   0.629   3.337  11.154
31710SOL    HW297028   0.778   3.337  11.178
31711SOL     OW97029   6.153   6.295   9.242
31711SOL    HW197030   6.097   6.218   9.231
31711SOL    HW297031   6.242   6.262   9.230
31712SOL     OW97032   6.402  11.295  10.530
31712SOL    HW197033   6.380  11.388  10.534
31712SOL    HW297034   6.365  11.265  10.447
31713SOL     OW97035   9.152   2.510   8.254
31713SOL    HW197036   9.170   2.419   8.278
31713SOL    HW297037   9.214   2.561   8.306
31714SOL     OW97038  13.989  12.896  13.714
31714SOL    HW197039  14.013  12.848  13.794
31714SOL    HW297040  13.899  12.923  13.730
31715SOL     OW97041   1.444   0.359   9.486
31715SOL    HW197042   1.521   0.406   9.519
31715SOL    HW297043   1.464   0.342   9.394
31716SOL     OW97044   6.557   1.031   0.924
31716SOL    HW197045   6.634   1.061   0.971
31716SOL    HW297046   6.584   1.028   0.832
31717SOL     OW97047   0.059   8.910  13.797
31717SOL    HW197048   0.076   8.961  13.876
31717SOL    HW297049  14.868   8.851  13.822
31718SOL     OW97050   8.542   1.744   7.038
31718SOL    HW197051   8.453   1.709   7.040
31718SOL    HW297052   8.555   1.774   6.948
31719SOL     OW97053   0.505   3.077   6.627
31719SOL    HW197054   0.546   3.161   6.608
31719SOL    HW297055   0.438   3.097   6.693
31720SOL     OW97056   5.945   1.039  11.128
31720SOL    HW197057   5.945   1.098  11.052
31720SOL    HW297058   5.921   1.096  11.201
31721SOL     OW97059  13.192  14.203  10.074
31721SOL    HW197060  13.271  14.236  10.118
31721SOL    HW297061  13.226  14.150  10.001
31722SOL     OW97062   6.175   0.136  13.455
31722SOL    HW197063   6.185   0.096  13.368
31722SOL    HW297064   6.129   0.069  13.506
31723SOL     OW97065  10.200   5.691   1.504
31723SOL    HW197066  10.260   5.653   1.569
31723SOL    HW297067  10.153   5.616   1.469
31724SOL     OW97068  11.009   9.725   8.105
31724SOL    HW197069  11.049   9.638   8.109
31724SOL    HW297070  11.062   9.772   8.040
31725SOL     OW97071  12.400  12.071   0.696
31725SOL    HW197072  12.306  12.057   0.682
31725SOL    HW297073  12.423  12.140   0.634
31726SOL     OW97074   2.126   0.197   3.061
31726SOL    HW197075   2.135   0.292   3.074
31726SOL    HW297076   2.169   0.180   2.977
31727SOL     OW97077  12.533   5.272   0.935
31727SOL    HW197078  12.449   5.244   0.898
31727SOL    HW297079  12.509   5.319   1.015
31728SOL     OW97080  11.766   0.392   8.150
31728SOL    HW197081  11.801   0.481   8.155
31728SOL    HW297082  11.840   0.338   8.123
31729SOL     OW97083  11.820   8.593   7.552
31729SOL    HW197084  11.887   8.648   7.513
31729SOL    HW297085  11.758   8.576   7.481
31730SOL     OW97086   9.686  10.095   7.522
31730SOL    HW197087   9.649  10.056   7.601
31730SOL    HW297088   9.778  10.070   7.523
31731SOL     OW97089   9.853   3.356   1.516
31731SOL    HW197090   9.911   3.426   1.489
31731SOL    HW297091   9.875   3.282   1.459
31732SOL     OW97092   3.738   8.430   4.729
31732SOL    HW197093   3.686   8.350   4.741
31732SOL    HW297094   3.712   8.462   4.643
31733SOL     OW97095  14.151   6.812   3.943
31733SOL    HW197096  14.090   6.841   3.875
31733SOL    HW297097  14.156   6.886   4.003
31734SOL     OW97098  12.516   3.272   9.089
31734SOL    HW197099  12.545   3.207   9.025
31734SOL    HW297100  12.595   3.298   9.136
31735SOL     OW97101   4.190   8.033  10.845
31735SOL    HW197102   4.167   8.031  10.752
31735SOL    HW297103   4.175   7.944  10.876
31736SOL     OW97104   4.672  11.060   6.741
31736SOL    HW197105   4.764  11.073   6.718
31736SOL    HW297106   4.664  10.966   6.758
31737SOL     OW97107  11.223   6.782  10.107
31737SOL    HW197108  11.189   6.853  10.053
31737SOL    HW297109  11.149   6.754  10.160
31738SOL     OW97110   6.923   2.783   7.877
31738SOL    HW197111   6.968   2.851   7.928
31738SOL    HW297112   6.830   2.797   7.896
31739SOL     OW97113   6.049   1.694   8.234
31739SOL    HW197114   5.994   1.762   8.195
31739SOL    HW297115   6.070   1.727   8.321
31740SOL     OW97116  10.496   2.650  14.667
31740SOL    HW197117  10.539   2.572  14.702
31740SOL    HW297118  10.425   2.616  14.612
31741SOL     OW97119   9.702   2.860   6.483
31741SOL    HW197120   9.694   2.765   6.468
31741SOL    HW297121   9.674   2.900   6.401
31742SOL     OW97122  14.478  11.157  14.735
31742SOL    HW197123  14.462  11.249  14.758
31742SOL    HW297124  14.568  11.142  14.763
31743SOL     OW97125   5.062  14.830  10.619
31743SOL    HW197126   5.044  14.785  10.536
31743SOL    HW297127   5.054  14.762  10.685
31744SOL     OW97128  13.146  13.134   8.844
31744SOL    HW197129  13.234  13.105   8.871
31744SOL    HW297130  13.135  13.218   8.888
31745SOL     OW97131   1.749   5.143   2.764
31745SOL    HW197132   1.774   5.059   2.803
31745SOL    HW297133   1.700   5.187   2.833
31746SOL     OW97134   1.159  10.523  10.874
31746SOL    HW197135   1.159  10.489  10.785
31746SOL    HW297136   1.232  10.478  10.917
31747SOL     OW97137   2.454  14.757   4.155
31747SOL    HW197138   2.545  14.775   4.131
31747SOL    HW297139   2.422  14.839   4.194
31748SOL     OW97140  13.178   4.280   1.101
31748SOL    HW197141  13.251   4.340   1.086
31748SOL    HW297142  13.128   4.283   1.019
31749SOL     OW97143   6.970  14.536  11.465
31749SOL    HW197144   6.952  14.588  11.544
31749SOL    HW297145   6.888  14.489  11.449
31750SOL     OW97146  12.701   2.015   5.917
31750SOL    HW197147  12.695   2.052   5.829
31750SOL    HW297148  12.633   1.948   5.919
31751SOL     OW97149   8.220   7.940  14.369
31751SOL    HW197150   8.178   7.873  14.423
31751SOL    HW297151   8.313   7.915  14.369
31752SOL     OW97152  11.767   4.981   2.298
31752SOL    HW197153  11.775   4.888   2.318
31752SOL    HW297154  11.736   4.983   2.207
31753SOL     OW97155  14.375   1.745   4.879
31753SOL    HW197156  14.334   1.700   4.953
31753SOL    HW297157  14.321   1.722   4.803
31754SOL     OW97158  12.234   3.915   9.811
31754SOL    HW197159  12.186   3.832   9.814
31754SOL    HW297160  12.167   3.981   9.792
31755SOL     OW97161  13.039   3.641   9.763
31755SOL    HW197162  13.086   3.582   9.704
31755SOL    HW297163  12.965   3.672   9.711
31756SOL     OW97164   9.897  13.066   0.022
31756SOL    HW197165   9.830  13.010   0.062
31756SOL    HW297166   9.965  13.005  14.871
31757SOL     OW97167   0.334   9.081  11.692
31757SOL    HW197168   0.372   9.020  11.755
31757SOL    HW297169   0.406   9.139  11.667
31758SOL     OW97170  12.268   4.005   5.720
31758SOL    HW197171  12.326   4.069   5.761
31758SOL    HW297172  12.309   3.986   5.636
31759SOL     OW97173   3.405   4.873  14.716
31759SOL    HW197174   3.459   4.890  14.639
31759SOL    HW297175   3.389   4.779  14.715
31760SOL     OW97176   6.826  11.313  13.796
31760SOL    HW197177   6.823  11.251  13.723
31760SOL    HW297178   6.749  11.292  13.849
31761SOL     OW97179   6.861   9.812  11.930
31761SOL    HW197180   6.920   9.743  11.959
31761SOL    HW297181   6.778   9.767  11.912
31762SOL     OW97182   1.519   7.520   8.080
31762SOL    HW197183   1.578   7.595   8.077
31762SOL    HW297184   1.433   7.558   8.101
31763SOL     OW97185  14.284  14.879   0.238
31763SOL    HW197186  14.282   0.009   0.334
31763SOL    HW297187  14.212  14.819   0.219
31764SOL     OW97188   9.362  12.350   7.146
31764SOL    HW197189   9.325  12.438   7.134
31764SOL    HW297190   9.286  12.292   7.148
31765SOL     OW97191   3.172   9.696   4.573
31765SOL    HW197192   3.133   9.626   4.626
31765SOL    HW297193   3.132   9.686   4.487
31766SOL     OW97194   7.407  11.749  10.317
31766SOL    HW197195   7.429  11.680  10.380
31766SOL    HW297196   7.468  11.737  10.245
31767SOL     OW97197   7.199   8.437   5.032
31767SOL    HW197198   7.221   8.405   5.119
31767SOL    HW297199   7.130   8.502   5.046
31768SOL     OW97200   8.475  11.258  13.828
31768SOL    HW197201   8.466  11.166  13.803
31768SOL    HW297202   8.484  11.256  13.923
31769SOL     OW97203   9.891   3.404   9.347
31769SOL    HW197204   9.847   3.353   9.280
31769SOL    HW297205   9.957   3.454   9.299
31770SOL     OW97206   3.711  14.212   8.437
31770SOL    HW197207   3.691  14.160   8.359
31770SOL    HW297208   3.633  14.266   8.450
31771SOL     OW97209   0.600   0.002  13.966
31771SOL    HW197210   0.669   0.050  13.919
31771SOL    HW297211   0.646  14.810  14.009
31772SOL     OW97212   2.794   0.767   9.964
31772SOL    HW197213   2.773   0.742   9.874
31772SOL    HW297214   2.849   0.845   9.955
31773SOL     OW97215   7.566   3.222   9.052
31773SOL    HW197216   7.642   3.208   9.109
31773SOL    HW297217   7.502   3.158   9.081
31774SOL     OW97218   5.975   2.458   8.013
31774SOL    HW197219   6.007   2.522   7.949
31774SOL    HW297220   5.881   2.476   8.019
31775SOL     OW97221   0.031  14.109   6.038
31775SOL    HW197222   0.110  14.129   6.088
31775SOL    HW297223   0.049  14.144   5.951
31776SOL     OW97224   0.063   6.925   2.505
31776SOL    HW197225   0.093   6.994   2.447
31776SOL    HW297226  14.856   6.900   2.472
31777SOL     OW97227   1.431   1.699  10.837
31777SOL    HW197228   1.493   1.738  10.899
31777SOL    HW297229   1.486   1.659  10.770
31778SOL     OW97230   1.149  11.802   2.903
31778SOL    HW197231   1.138  11.896   2.889
31778SOL    HW297232   1.233  11.781   2.861
31779SOL     OW97233  14.380  12.589   3.613
31779SOL    HW197234  14.333  12.507   3.603
31779SOL    HW297235  14.453  12.569   3.672
31780SOL     OW97236  14.384   9.900   0.512
31780SOL    HW197237  14.361   9.831   0.450
31780SOL    HW297238  14.429   9.854   0.583
31781SOL     OW97239  14.153  11.781   0.001
31781SOL    HW197240  14.193  11.857   0.043
31781SOL    HW297241  14.210  11.761  14.806
31782SOL     OW97242   7.892   2.608  11.397
31782SOL    HW197243   7.887   2.688  11.346
31782SOL    HW297244   7.985   2.599  11.419
31783SOL     OW97245   1.990  11.834   9.968
31783SOL    HW197246   2.064  11.789   9.927
31783SOL    HW297247   2.030  11.888  10.037
31784SOL     OW97248   4.802   9.592   7.435
31784SOL    HW197249   4.790   9.687   7.426
31784SOL    HW297250   4.895   9.581   7.454
31785SOL     OW97251   8.334   1.581   4.582
31785SOL    HW197252   8.266   1.516   4.565
31785SOL    HW297253   8.415   1.531   4.583
31786SOL     OW97254   9.802   3.413   2.361
31786SOL    HW197255   9.880   3.468   2.352
31786SOL    HW297256   9.787   3.379   2.273
31787SOL     OW97257  12.149  12.460   2.203
31787SOL    HW197258  12.158  12.555   2.191
31787SOL    HW297259  12.148  12.425   2.114
31788SOL     OW97260  13.782  10.456   9.101
31788SOL    HW197261  13.729  10.409   9.037
31788SOL    HW297262  13.741  10.436   9.185
31789SOL     OW97263   9.545   7.748   8.100
31789SOL    HW197264   9.469   7.690   8.092
31789SOL    HW297265   9.577   7.732   8.189
31790SOL     OW97266   0.283   2.527  11.283
31790SOL    HW197267   0.267   2.507  11.190
31790SOL    HW297268   0.238   2.610  11.298
31791SOL     OW97269   8.263  12.324   1.501
31791SOL    HW197270   8.189  12.382   1.519
31791SOL    HW297271   8.318  12.373   1.441
31792SOL     OW97272   6.940   5.825   1.389
31792SOL    HW197273   7.028   5.829   1.426
31792SOL    HW297274   6.903   5.744   1.423
31793SOL     OW97275   9.646  12.609   1.478
31793SOL    HW197276   9.730  12.596   1.524
31793SOL    HW297277   9.610  12.689   1.516
31794SOL     OW97278   7.048  14.766  13.443
31794SOL    HW197279   6.985  14.701  13.475
31794SOL    HW297280   7.038  14.841  13.501
31795SOL     OW97281   1.294   1.983   7.186
31795SOL    HW197282   1.271   1.894   7.213
31795SOL    HW297283   1.286   2.035   7.266
31796SOL     OW97284   6.919   9.323   8.252
31796SOL    HW197285   6.897   9.243   8.204
31796SOL    HW297286   6.960   9.380   8.187
31797SOL     OW97287   3.842   8.529   6.663
31797SOL    HW197288   3.821   8.561   6.751
31797SOL    HW297289   3.799   8.443   6.659
31798SOL     OW97290   8.613   9.440   0.338
31798SOL    HW197291   8.577   9.361   0.298
31798SOL    HW297292   8.704   9.419   0.356
31799SOL     OW97293   3.486   3.007  10.948
31799SOL    HW197294   3.470   3.014  10.854
31799SOL    HW297295   3.434   3.077  10.987
31800SOL     OW97296   6.237   6.786   6.627
31800SOL    HW197297   6.224   6.848   6.555
31800SOL    HW297298   6.155   6.736   6.631
31801SOL     OW97299   6.235   0.320   6.909
31801SOL    HW197300   6.302   0.295   6.972
31801SOL    HW297301   6.273   0.296   6.824
31802SOL     OW97302   3.574   3.930  14.087
31802SOL    HW197303   3.584   3.941  14.181
31802SOL    HW297304   3.574   3.835  14.073
31803SOL     OW97305   9.346   2.397   4.346
31803SOL    HW197306   9.310   2.308   4.346
31803SOL    HW297307   9.270   2.453   4.331
31804SOL     OW97308  10.342   4.757   0.847
31804SOL    HW197309  10.423   4.708   0.862
31804SOL    HW297310  10.274   4.690   0.845
31805SOL     OW97311   7.609   8.764   5.535
31805SOL    HW197312   7.667   8.836   5.562
31805SOL    HW297313   7.588   8.719   5.616
31806SOL     OW97314   7.952   1.334  10.917
31806SOL    HW197315   7.859   1.354  10.927
31806SOL    HW297316   7.973   1.358  10.827
31807SOL     OW97317   4.861   5.367   8.696
31807SOL    HW197318   4.860   5.459   8.671
31807SOL    HW297319   4.773   5.350   8.729
31808SOL     OW97320   9.441   1.520   3.469
31808SOL    HW197321   9.376   1.589   3.452
31808SOL    HW297322   9.392   1.452   3.515
31809SOL     OW97323   1.695   0.752  13.465
31809SOL    HW197324   1.773   0.734  13.517
31809SOL    HW297325   1.726   0.758  13.375
31810SOL     OW97326  12.952  11.007  13.401
31810SOL    HW197327  12.868  11.031  13.439
31810SOL    HW297328  12.966  11.071  13.332
31811SOL     OW97329   8.612   6.313   9.659
31811SOL    HW197330   8.641   6.352   9.576
31811SOL    HW297331   8.673   6.241   9.675
31812SOL     OW97332  13.270  13.636   5.325
31812SOL    HW197333  13.220  13.689   5.262
31812SOL    HW297334  13.337  13.594   5.272
31813SOL     OW97335  10.417  14.601  11.880
31813SOL    HW197336  10.399  14.589  11.973
31813SOL    HW297337  10.486  14.667  11.877
31814SOL     OW97338   0.595   1.783   5.402
31814SOL    HW197339   0.594   1.815   5.493
31814SOL    HW297340   0.620   1.859   5.350
31815SOL     OW97341   2.217  12.791  12.755
31815SOL    HW197342   2.207  12.718  12.816
31815SOL    HW297343   2.133  12.797  12.710
31816SOL     OW97344   5.951   1.966   8.664
31816SOL    HW197345   6.019   2.014   8.617
31816SOL    HW297346   5.885   2.033   8.686
31817SOL     OW97347   5.726   6.181  10.931
31817SOL    HW197348   5.790   6.122  10.972
31817SOL    HW297349   5.654   6.124  10.905
31818SOL     OW97350   3.863   1.681   3.578
31818SOL    HW197351   3.801   1.748   3.606
31818SOL    HW297352   3.811   1.621   3.526
31819SOL     OW97353   2.890   5.439   3.606
31819SOL    HW197354   2.818   5.484   3.562
31819SOL    HW297355   2.886   5.470   3.697
31820SOL     OW97356   1.013  13.371   8.579
31820SOL    HW197357   0.939  13.360   8.519
31820SOL    HW297358   1.090  13.374   8.522
31821SOL     OW97359   4.735  12.027  12.955
31821SOL    HW197360   4.771  11.942  12.979
31821SOL    HW297361   4.786  12.090  13.005
31822SOL     OW97362   4.841  13.905   4.745
31822SOL    HW197363   4.910  13.849   4.779
31822SOL    HW297364   4.771  13.900   4.810
31823SOL     OW97365  11.462   2.865   8.742
31823SOL    HW197366  11.514   2.794   8.779
31823SOL    HW297367  11.406   2.893   8.814
31824SOL     OW97368   3.108   8.063  11.821
31824SOL    HW197369   3.181   8.006  11.845
31824SOL    HW297370   3.133   8.099  11.736
31825SOL     OW97371  10.407   4.383   5.162
31825SOL    HW197372  10.401   4.450   5.093
31825SOL    HW297373  10.323   4.338   5.158
31826SOL     OW97374   5.371   2.358   8.960
31826SOL    HW197375   5.429   2.423   8.920
31826SOL    HW297376   5.283   2.386   8.935
31827SOL     OW97377   5.763   7.235   5.496
31827SOL    HW197378   5.733   7.191   5.417
31827SOL    HW297379   5.787   7.164   5.556
31828SOL     OW97380  13.131   1.397   0.001
31828SOL    HW197381  13.214   1.404   0.047
31828SOL    HW297382  13.155   1.402  14.788
31829SOL     OW97383  12.713   3.695   9.336
31829SOL    HW197384  12.715   3.690   9.240
31829SOL    HW297385  12.634   3.648   9.362
31830SOL     OW97386   2.029  10.368   4.180
31830SOL    HW197387   2.017  10.442   4.239
31830SOL    HW297388   2.119  10.339   4.196
31831SOL     OW97389   9.094   0.658  11.799
31831SOL    HW197390   9.068   0.638  11.709
31831SOL    HW297391   9.149   0.736  11.791
31832SOL     OW97392   6.017  14.601  11.485
31832SOL    HW197393   6.056  14.535  11.427
31832SOL    HW297394   6.050  14.685  11.452
31833SOL     OW97395   0.524  10.896   9.021
31833SOL    HW197396   0.582  10.928   8.953
31833SOL    HW297397   0.544  10.803   9.028
31834SOL     OW97398   6.485   3.186  14.055
31834SOL    HW197399   6.577   3.173  14.076
31834SOL    HW297400   6.441   3.108  14.088
31835SOL     OW97401   3.995   4.345  10.156
31835SOL    HW197402   3.944   4.405  10.210
31835SOL    HW297403   3.930   4.286  10.118
31836SOL     OW97404  10.896   9.630  13.246
31836SOL    HW197405  10.804   9.602  13.250
31836SOL    HW297406  10.892   9.724  13.234
31837SOL     OW97407   6.764  10.426   8.541
31837SOL    HW197408   6.817  10.348   8.559
31837SOL    HW297409   6.787  10.487   8.611
31838SOL     OW97410  13.578   2.467   8.057
31838SOL    HW197411  13.630   2.456   8.137
31838SOL    HW297412  13.559   2.561   8.053
31839SOL     OW97413   7.970   3.310   0.481
31839SOL    HW197414   7.947   3.298   0.389
31839SOL    HW297415   7.982   3.222   0.515
31840SOL     OW97416   0.795  11.675   6.402
31840SOL    HW197417   0.771  11.615   6.331
31840SOL    HW297418   0.806  11.760   6.360
31841SOL     OW97419   6.638  14.528   0.999
31841SOL    HW197420   6.728  14.513   1.027
31841SOL    HW297421   6.646  14.564   0.910
31842SOL     OW97422   9.599  14.313  13.859
31842SOL    HW197423   9.585  14.387  13.918
31842SOL    HW297424   9.514  14.269  13.856
31843SOL     OW97425  14.605  14.834   4.207
31843SOL    HW197426  14.660   0.016   4.161
31843SOL    HW297427  14.665  14.786   4.264
31844SOL     OW97428   3.235  11.217   2.207
31844SOL    HW197429   3.153  11.211   2.157
31844SOL    HW297430   3.217  11.168   2.288
31845SOL     OW97431  11.299   1.625   4.942
31845SOL    HW197432  11.267   1.705   4.900
31845SOL    HW297433  11.383   1.608   4.901
31846SOL     OW97434   4.856   9.001   7.260
31846SOL    HW197435   4.925   8.943   7.293
31846SOL    HW297436   4.784   8.943   7.238
31847SOL     OW97437   4.144   6.648  12.550
31847SOL    HW197438   4.235   6.650  12.522
31847SOL    HW297439   4.131   6.731  12.596
31848SOL     OW97440   6.112   8.814   3.065
31848SOL    HW197441   6.038   8.768   3.025
31848SOL    HW297442   6.171   8.745   3.094
31849SOL     OW97443   1.416  13.017  14.390
31849SOL    HW197444   1.363  13.093  14.366
31849SOL    HW297445   1.403  13.008  14.485
31850SOL     OW97446   2.149  13.250   8.715
31850SOL    HW197447   2.133  13.334   8.759
31850SOL    HW297448   2.241  13.252   8.690
31851SOL     OW97449   9.982  13.134  13.829
31851SOL    HW197450   9.921  13.135  13.903
31851SOL    HW297451   9.950  13.064  13.772
31852SOL     OW97452  14.721  12.212  11.759
31852SOL    HW197453  14.811  12.234  11.734
31852SOL    HW297454  14.708  12.124  11.725
31853SOL     OW97455   5.526  14.275   2.875
31853SOL    HW197456   5.463  14.311   2.812
31853SOL    HW297457   5.484  14.197   2.910
31854SOL     OW97458  12.055   0.895  14.351
31854SOL    HW197459  12.079   0.816  14.400
31854SOL    HW297460  11.960   0.892  14.346
31855SOL     OW97461   4.886   1.028   7.409
31855SOL    HW197462   4.917   1.101   7.463
31855SOL    HW297463   4.965   0.996   7.364
31856SOL     OW97464   2.759   9.831  12.811
31856SOL    HW197465   2.671   9.813  12.845
31856SOL    HW297466   2.759   9.924  12.790
31857SOL     OW97467   1.953   6.657   3.745
31857SOL    HW197468   2.007   6.635   3.669
31857SOL    HW297469   1.863   6.642   3.716
31858SOL     OW97470   3.451   1.835   7.807
31858SOL    HW197471   3.375   1.813   7.862
31858SOL    HW297472   3.415   1.891   7.738
31859SOL     OW97473   1.172   0.491   4.013
31859SOL    HW197474   1.161   0.560   4.078
31859SOL    HW297475   1.202   0.415   4.063
31860SOL     OW97476   5.310   8.320   5.960
31860SOL    HW197477   5.236   8.380   5.969
31860SOL    HW297478   5.387   8.376   5.973
31861SOL     OW97479  13.500   4.325   2.288
31861SOL    HW197480  13.438   4.255   2.309
31861SOL    HW297481  13.545   4.343   2.370
31862SOL     OW97482   4.474   1.850  12.899
31862SOL    HW197483   4.553   1.856  12.953
31862SOL    HW297484   4.423   1.928  12.921
31863SOL     OW97485   9.667  13.376  10.025
31863SOL    HW197486   9.673  13.282  10.043
31863SOL    HW297487   9.628  13.413  10.104
31864SOL     OW97488   0.708  11.911   8.461
31864SOL    HW197489   0.652  11.901   8.539
31864SOL    HW297490   0.666  11.857   8.394
31865SOL     OW97491  13.802  14.190  10.106
31865SOL    HW197492  13.761  14.245  10.039
31865SOL    HW297493  13.772  14.101  10.086
31866SOL     OW97494   6.509   4.770  10.589
31866SOL    HW197495   6.524   4.787  10.496
31866SOL    HW297496   6.416   4.790  10.603
31867SOL     OW97497  14.818   7.243   0.142
31867SOL    HW197498  14.874   7.220   0.216
31867SOL    HW297499  14.741   7.187   0.153
31868SOL     OW97500   8.449  14.244   0.457
31868SOL    HW197501   8.469  14.182   0.387
31868SOL    HW297502   8.479  14.328   0.423
31869SOL     OW97503  13.697   5.245   1.856
31869SOL    HW197504  13.613   5.200   1.868
31869SOL    HW297505  13.763   5.180   1.878
31870SOL     OW97506  11.713  12.131   8.449
31870SOL    HW197507  11.724  12.081   8.367
31870SOL    HW297508  11.798  12.172   8.464
31871SOL     OW97509   0.791  12.182  12.626
31871SOL    HW197510   0.719  12.193  12.689
31871SOL    HW297511   0.761  12.112  12.568
31872SOL     OW97512  10.949   0.942  10.081
31872SOL    HW197513  10.976   1.028  10.049
31872SOL    HW297514  10.918   0.896  10.003
31873SOL     OW97515   4.134   5.274  14.237
31873SOL    HW197516   4.076   5.198  14.251
31873SOL    HW297517   4.170   5.292  14.324
31874SOL     OW97518  12.484  14.788   8.123
31874SOL    HW197519  12.511  14.707   8.166
31874SOL    HW297520  12.565  14.839   8.116
31875SOL     OW97521   3.819   8.402  14.166
31875SOL    HW197522   3.899   8.408  14.114
31875SOL    HW297523   3.833   8.326  14.223
31876SOL     OW97524   4.362  10.970  11.106
31876SOL    HW197525   4.437  10.975  11.165
31876SOL    HW297526   4.313  10.893  11.136
31877SOL     OW97527  11.985   2.670   0.501
31877SOL    HW197528  11.957   2.748   0.453
31877SOL    HW297529  12.034   2.619   0.436
31878SOL     OW97530   6.469   7.162  14.857
31878SOL    HW197531   6.560   7.136  14.874
31878SOL    HW297532   6.456   7.146  14.764
31879SOL     OW97533  14.008  12.361  11.204
31879SOL    HW197534  13.987  12.330  11.116
31879SOL    HW297535  14.008  12.456  11.197
31880SOL     OW97536   7.479   3.366   2.944
31880SOL    HW197537   7.562   3.414   2.937
31880SOL    HW297538   7.412   3.431   2.922
31881SOL     OW97539  14.014  12.779   9.462
31881SOL    HW197540  14.032  12.740   9.547
31881SOL    HW297541  13.923  12.809   9.469
31882SOL     OW97542  13.743   4.622  11.150
31882SOL    HW197543  13.658   4.591  11.181
31882SOL    HW297544  13.731   4.637  11.057
31883SOL     OW97545   2.192  10.923   9.158
31883SOL    HW197546   2.176  10.979   9.235
31883SOL    HW297547   2.287  10.926   9.147
31884SOL     OW97548   5.302  14.039   5.992
31884SOL    HW197549   5.251  14.085   6.059
31884SOL    HW297550   5.238  14.020   5.923
31885SOL     OW97551  13.911   4.518   1.606
31885SOL    HW197552  13.819   4.516   1.632
31885SOL    HW297553  13.943   4.429   1.623
31886SOL     OW97554  11.028   4.844  10.527
31886SOL    HW197555  11.019   4.749  10.528
31886SOL    HW297556  11.015   4.869  10.435
31887SOL     OW97557   4.666  11.679   8.766
31887SOL    HW197558   4.590  11.682   8.708
31887SOL    HW297559   4.646  11.741   8.836
31888SOL     OW97560  11.487   3.870   0.308
31888SOL    HW197561  11.465   3.962   0.322
31888SOL    HW297562  11.486   3.859   0.213
31889SOL     OW97563  14.005  11.582   6.176
31889SOL    HW197564  14.000  11.647   6.246
31889SOL    HW297565  13.915  11.551   6.166
31890SOL     OW97566  13.969   6.272   3.888
31890SOL    HW197567  13.986   6.362   3.916
31890SOL    HW297568  13.992   6.271   3.795
31891SOL     OW97569  12.898   1.035   7.127
31891SOL    HW197570  12.807   1.063   7.115
31891SOL    HW297571  12.896   0.980   7.206
31892SOL     OW97572   4.891   8.974   7.611
31892SOL    HW197573   4.829   8.914   7.571
31892SOL    HW297574   4.903   8.940   7.700
31893SOL     OW97575   6.437   6.380  11.626
31893SOL    HW197576   6.363   6.438  11.606
31893SOL    HW297577   6.475   6.358  11.541
31894SOL     OW97578  12.969  12.845   3.136
31894SOL    HW197579  12.968  12.827   3.230
31894SOL    HW297580  12.898  12.908   3.123
31895SOL     OW97581  10.267   4.513   9.941
31895SOL    HW197582  10.209   4.556   9.878
31895SOL    HW297583  10.337   4.576   9.955
31896SOL     OW97584  10.250  11.099   4.186
31896SOL    HW197585  10.223  11.147   4.107
31896SOL    HW297586  10.329  11.052   4.160
31897SOL     OW97587   8.337  10.189   3.909
31897SOL    HW197588   8.421  10.147   3.929
31897SOL    HW297589   8.309  10.226   3.993
31898SOL     OW97590  14.738   5.761  12.309
31898SOL    HW197591  14.781   5.742  12.226
31898SOL    HW297592  14.649   5.788  12.285
31899SOL     OW97593   9.950  11.140   3.933
31899SOL    HW197594  10.045  11.134   3.943
31899SOL    HW297595   9.936  11.149   3.839
31900SOL     OW97596   1.772  12.130  10.732
31900SOL    HW197597   1.825  12.050  10.735
31900SOL    HW297598   1.723  12.129  10.814
31901SOL     OW97599   2.147   4.918  12.062
31901SOL    HW197600   2.055   4.889  12.057
31901SOL    HW297601   2.180   4.908  11.973
31902SOL     OW97602  14.623  14.113   2.975
31902SOL    HW197603  14.705  14.068   2.996
31902SOL    HW297604  14.648  14.183   2.916
31903SOL     OW97605   3.435   6.049   3.880
31903SOL    HW197606   3.399   5.995   3.950
31903SOL    HW297607   3.382   6.129   3.880
31904SOL     OW97608   1.323  13.731   6.891
31904SOL    HW197609   1.260  13.664   6.918
31904SOL    HW297610   1.407  13.685   6.892
31905SOL     OW97611   0.653   1.723   4.481
31905SOL    HW197612   0.671   1.814   4.456
31905SOL    HW297613   0.653   1.725   4.577
31906SOL     OW97614   0.579   2.896  11.221
31906SOL    HW197615   0.652   2.838  11.201
31906SOL    HW297616   0.549   2.928  11.136
31907SOL     OW97617   7.612   4.126  14.123
31907SOL    HW197618   7.547   4.120  14.053
31907SOL    HW297619   7.566   4.094  14.201
31908SOL     OW97620   5.883   9.435   2.876
31908SOL    HW197621   5.855   9.344   2.870
31908SOL    HW297622   5.821   9.475   2.938
31909SOL     OW97623   4.429   1.704  11.096
31909SOL    HW197624   4.456   1.657  11.175
31909SOL    HW297625   4.487   1.671  11.027
31910SOL     OW97626  10.975   2.071   1.046
31910SOL    HW197627  11.019   2.015   0.982
31910SOL    HW297628  11.041   2.091   1.112
31911SOL     OW97629   4.144   2.956   8.811
31911SOL    HW197630   4.190   2.892   8.756
31911SOL    HW297631   4.125   2.909   8.892
31912SOL     OW97632  12.901  10.563   3.362
31912SOL    HW197633  12.868  10.612   3.286
31912SOL    HW297634  12.941  10.485   3.325
31913SOL     OW97635   0.824  14.824   9.566
31913SOL    HW197636   0.897   0.004   9.580
31913SOL    HW297637   0.858  14.758   9.506
31914SOL     OW97638   1.966   2.314   5.382
31914SOL    HW197639   1.886   2.333   5.431
31914SOL    HW297640   2.019   2.393   5.392
31915SOL     OW97641   8.122   2.880   5.512
31915SOL    HW197642   8.037   2.905   5.548
31915SOL    HW297643   8.185   2.939   5.554
31916SOL     OW97644  10.392   8.798   8.169
31916SOL    HW197645  10.399   8.756   8.255
31916SOL    HW297646  10.302   8.830   8.166
31917SOL     OW97647  10.849  14.521   2.558
31917SOL    HW197648  10.881  14.437   2.591
31917SOL    HW297649  10.755  14.519   2.577
31918SOL     OW97650   3.139   0.997   7.336
31918SOL    HW197651   3.076   0.941   7.382
31918SOL    HW297652   3.086   1.068   7.300
31919SOL     OW97653   0.744  13.327   2.558
31919SOL    HW197654   0.764  13.238   2.587
31919SOL    HW297655   0.689  13.316   2.481
31920SOL     OW97656  13.358   4.010  11.936
31920SOL    HW197657  13.263   4.015  11.923
31920SOL    HW297658  13.395   4.051  11.858
31921SOL     OW97659   0.865  13.732   7.385
31921SOL    HW197660   0.934  13.713   7.449
31921SOL    HW297661   0.912  13.765   7.308
31922SOL     OW97662   4.775   8.554   2.994
31922SOL    HW197663   4.721   8.544   2.916
31922SOL    HW297664   4.732   8.499   3.060
31923SOL     OW97665   3.711   3.506   8.988
31923SOL    HW197666   3.675   3.545   9.067
31923SOL    HW297667   3.653   3.431   8.970
31924SOL     OW97668   2.394   4.093   1.814
31924SOL    HW197669   2.307   4.111   1.776
31924SOL    HW297670   2.396   3.998   1.826
31925SOL     OW97671  10.272   4.231   7.030
31925SOL    HW197672  10.271   4.245   6.935
31925SOL    HW297673  10.213   4.157   7.044
31926SOL     OW97674   2.887   7.881  10.978
31926SOL    HW197675   2.920   7.969  10.960
31926SOL    HW297676   2.794   7.894  10.995
31927SOL     OW97677   6.472  10.896  14.687
31927SOL    HW197678   6.423  10.896  14.605
31927SOL    HW297679   6.465  10.986  14.719
31928SOL     OW97680   2.565   7.561   8.685
31928SOL    HW197681   2.486   7.614   8.677
31928SOL    HW297682   2.631   7.620   8.722
31929SOL     OW97683   5.742   2.901   1.852
31929SOL    HW197684   5.765   2.957   1.926
31929SOL    HW297685   5.746   2.960   1.776
31930SOL     OW97686   7.725  13.652   0.325
31930SOL    HW197687   7.665  13.620   0.393
31930SOL    HW297688   7.791  13.702   0.373
31931SOL     OW97689  10.947   8.675  14.392
31931SOL    HW197690  10.933   8.587  14.428
31931SOL    HW297691  11.035   8.699  14.420
31932SOL     OW97692   8.584  11.340  14.797
31932SOL    HW197693   8.559  11.327   0.008
31932SOL    HW297694   8.526  11.283  14.747
31933SOL     OW97695   0.141   2.916  11.594
31933SOL    HW197696   0.209   2.871  11.544
31933SOL    HW297697   0.188   2.955  11.668
31934SOL     OW97698   2.024   6.718  12.947
31934SOL    HW197699   1.943   6.731  12.898
31934SOL    HW297700   2.038   6.802  12.992
31935SOL     OW97701   3.225   1.876  11.888
31935SOL    HW197702   3.164   1.840  11.952
31935SOL    HW297703   3.171   1.894  11.811
31936SOL     OW97704  14.286   2.940  14.312
31936SOL    HW197705  14.379   2.926  14.329
31936SOL    HW297706  14.283   3.026  14.270
31937SOL     OW97707   2.145   9.603   1.671
31937SOL    HW197708   2.172   9.514   1.696
31937SOL    HW297709   2.064   9.590   1.621
31938SOL     OW97710  10.697   0.199   5.599
31938SOL    HW197711  10.777   0.147   5.588
31938SOL    HW297712  10.677   0.193   5.693
31939SOL     OW97713   3.011  10.527   3.289
31939SOL    HW197714   2.956  10.582   3.233
31939SOL    HW297715   3.049  10.462   3.229
31940SOL     OW97716  11.707   8.096  12.055
31940SOL    HW197717  11.742   8.058  11.975
31940SOL    HW297718  11.613   8.106  12.038
31941SOL     OW97719   5.275  12.368  13.648
31941SOL    HW197720   5.268  12.399  13.739
31941SOL    HW297721   5.292  12.274  13.656
31942SOL     OW97722   4.034   0.822  13.209
31942SOL    HW197723   4.099   0.755  13.227
31942SOL    HW297724   4.039   0.835  13.114
31943SOL     OW97725  13.111  12.566  10.000
31943SOL    HW197726  13.099  12.642   9.941
31943SOL    HW297727  13.031  12.515   9.989
31944SOL     OW97728   5.424   5.246   5.387
31944SOL    HW197729   5.516   5.269   5.370
31944SOL    HW297730   5.417   5.155   5.359
31945SOL     OW97731  13.389  13.614  12.146
31945SOL    HW197732  13.328  13.572  12.208
31945SOL    HW297733  13.343  13.609  12.062
31946SOL     OW97734   2.713   2.134   7.733
31946SOL    HW197735   2.801   2.099   7.746
31946SOL    HW297736   2.707   2.149   7.638
31947SOL     OW97737   1.618  10.812  12.759
31947SOL    HW197738   1.664  10.807  12.843
31947SOL    HW297739   1.675  10.863  12.703
31948SOL     OW97740  14.431   1.679  11.949
31948SOL    HW197741  14.485   1.653  11.875
31948SOL    HW297742  14.358   1.616  11.949
31949SOL     OW97743   9.802   5.017   7.979
31949SOL    HW197744   9.820   5.094   8.033
31949SOL    HW297745   9.887   4.987   7.949
31950SOL     OW97746   5.754   3.802   0.271
31950SOL    HW197747   5.768   3.873   0.208
31950SOL    HW297748   5.718   3.731   0.219
31951SOL     OW97749   2.031   8.142  14.836
31951SOL    HW197750   2.030   8.237  14.839
31951SOL    HW297751   2.091   8.116   0.026
31952SOL     OW97752  12.871   2.903   4.267
31952SOL    HW197753  12.856   2.997   4.258
31952SOL    HW297754  12.801   2.873   4.326
31953SOL     OW97755  13.326  10.492  10.856
31953SOL    HW197756  13.321  10.530  10.768
31953SOL    HW297757  13.403  10.533  10.896
31954SOL     OW97758   7.437  14.210  10.493
31954SOL    HW197759   7.388  14.268  10.552
31954SOL    HW297760   7.401  14.228  10.406
31955SOL     OW97761   0.749   8.963   0.366
31955SOL    HW197762   0.762   9.054   0.339
31955SOL    HW297763   0.815   8.913   0.318
31956SOL     OW97764   2.889   9.809  12.460
31956SOL    HW197765   2.876   9.715  12.461
31956SOL    HW297766   2.800   9.846  12.457
31957SOL     OW97767   9.630   2.326  14.781
31957SOL    HW197768   9.569   2.306  14.851
31957SOL    HW297769   9.664   2.241  14.753
31958SOL     OW97770   0.167   2.995   6.461
31958SOL    HW197771   0.201   2.966   6.546
31958SOL    HW297772   0.072   2.983   6.467
31959SOL     OW97773  13.638   1.913   9.814
31959SOL    HW197774  13.611   1.891   9.725
31959SOL    HW297775  13.569   1.971   9.846
31960SOL     OW97776  11.687   5.695   9.875
31960SOL    HW197777  11.661   5.785   9.896
31960SOL    HW297778  11.611   5.641   9.896
31961SOL     OW97779  10.647   2.142   0.381
31961SOL    HW197780  10.614   2.107   0.299
31961SOL    HW297781  10.662   2.235   0.363
31962SOL     OW97782  13.089   6.832   7.655
31962SOL    HW197783  13.115   6.769   7.722
31962SOL    HW297784  13.054   6.906   7.704
31963SOL     OW97785   4.123   1.822  12.247
31963SOL    HW197786   4.172   1.887  12.298
31963SOL    HW297787   4.153   1.737  12.280
31964SOL     OW97788   3.620   2.513   5.704
31964SOL    HW197789   3.546   2.453   5.716
31964SOL    HW297790   3.669   2.508   5.787
31965SOL     OW97791   2.123   3.646  11.892
31965SOL    HW197792   2.116   3.734  11.855
31965SOL    HW297793   2.036   3.626  11.925
31966SOL     OW97794   5.627  10.436  11.868
31966SOL    HW197795   5.531  10.445  11.869
31966SOL    HW297796   5.641  10.341  11.863
31967SOL     OW97797   9.483   1.744   8.344
31967SOL    HW197798   9.567   1.748   8.298
31967SOL    HW297799   9.439   1.667   8.310
31968SOL     OW97800   6.487   4.893   5.592
31968SOL    HW197801   6.440   4.942   5.525
31968SOL    HW297802   6.566   4.861   5.547
31969SOL     OW97803   9.107   8.182   3.008
31969SOL    HW197804   9.017   8.158   3.033
31969SOL    HW297805   9.098   8.270   2.970
31970SOL     OW97806   5.945   1.555  13.709
31970SOL    HW197807   5.888   1.480  13.721
31970SOL    HW297808   5.927   1.612  13.783
31971SOL     OW97809   1.500   0.005   4.950
31971SOL    HW197810   1.412   0.028   4.981
31971SOL    HW297811   1.489  14.799   4.908
31972SOL     OW97812   1.706   1.922   2.217
31972SOL    HW197813   1.674   1.904   2.128
31972SOL    HW297814   1.655   1.998   2.245
31973SOL     OW97815   4.892   5.883   8.211
31973SOL    HW197816   4.957   5.941   8.172
31973SOL    HW297817   4.816   5.891   8.153
31974SOL     OW97818   8.514   9.701   6.099
31974SOL    HW197819   8.544   9.738   6.016
31974SOL    HW297820   8.592   9.656   6.134
31975SOL     OW97821   3.117   5.219  11.912
31975SOL    HW197822   3.108   5.199  11.819
31975SOL    HW297823   3.073   5.146  11.956
31976SOL     OW97824  11.303   3.747  12.847
31976SOL    HW197825  11.229   3.805  12.864
31976SOL    HW297826  11.332   3.719  12.934
31977SOL     OW97827   1.786  11.885   2.579
31977SOL    HW197828   1.780  11.957   2.517
31977SOL    HW297829   1.706  11.892   2.632
31978SOL     OW97830   0.431   7.329  12.526
31978SOL    HW197831   0.483   7.310  12.604
31978SOL    HW297832   0.386   7.411  12.546
31979SOL     OW97833   4.710   3.762   7.690
31979SOL    HW197834   4.670   3.723   7.613
31979SOL    HW297835   4.786   3.810   7.655
31980SOL     OW97836   3.813   8.034  13.589
31980SOL    HW197837   3.768   7.972  13.646
31980SOL    HW297838   3.902   8.037  13.623
31981SOL     OW97839  13.815  10.465   2.154
31981SOL    HW197840  13.820  10.476   2.059
31981SOL    HW297841  13.892  10.512   2.187
31982SOL     OW97842   2.837   9.631  13.731
31982SOL    HW197843   2.916   9.631  13.784
31982SOL    HW297844   2.773   9.680  13.783
31983SOL     OW97845  12.622   6.851  13.458
31983SOL    HW197846  12.618   6.940  13.493
31983SOL    HW297847  12.534   6.835  13.423
31984SOL     OW97848   0.491   5.392  13.862
31984SOL    HW197849   0.537   5.362  13.940
31984SOL    HW297850   0.517   5.331  13.793
31985SOL     OW97851   0.232  12.020  11.229
31985SOL    HW197852   0.321  12.014  11.195
31985SOL    HW297853   0.200  12.104  11.198
31986SOL     OW97854   0.512   1.483   8.538
31986SOL    HW197855   0.594   1.526   8.565
31986SOL    HW297856   0.530   1.452   8.449
31987SOL     OW97857  13.479   1.181  11.526
31987SOL    HW197858  13.511   1.111  11.583
31987SOL    HW297859  13.467   1.139  11.441
31988SOL     OW97860  13.029   3.630  14.693
31988SOL    HW197861  12.950   3.588  14.659
31988SOL    HW297862  12.998   3.711  14.733
31989SOL     OW97863   2.092   4.826   8.985
31989SOL    HW197864   2.184   4.800   8.990
31989SOL    HW297865   2.046   4.745   8.962
31990SOL     OW97866   8.298   0.199   8.597
31990SOL    HW197867   8.340   0.285   8.595
31990SOL    HW297868   8.217   0.212   8.645
31991SOL     OW97869  13.929   5.106  11.266
31991SOL    HW197870  13.848   5.156  11.269
31991SOL    HW297871  13.912   5.036  11.203
31992SOL     OW97872  14.814  11.559  11.800
31992SOL    HW197873   0.022  11.588  11.827
31992SOL    HW297874  14.808  11.584  11.708
31993SOL     OW97875   0.308   7.379  10.466
31993SOL    HW197876   0.240   7.349  10.526
31993SOL    HW297877   0.387   7.332  10.493
31994SOL     OW97878  13.398   8.003  11.263
31994SOL    HW197879  13.379   8.061  11.337
31994SOL    HW297880  13.441   7.927  11.301
31995SOL     OW97881  12.298   0.755   8.211
31995SOL    HW197882  12.385   0.788   8.190
31995SOL    HW297883  12.285   0.779   8.303
31996SOL     OW97884   6.110   9.791  12.862
31996SOL    HW197885   6.204   9.812  12.860
31996SOL    HW297886   6.067   9.871  12.832
31997SOL     OW97887   8.656   1.836   7.664
31997SOL    HW197888   8.689   1.854   7.752
31997SOL    HW297889   8.576   1.888   7.657
31998SOL     OW97890  13.361   9.586  12.941
31998SOL    HW197891  13.436   9.527  12.937
31998SOL    HW297892  13.363   9.633  12.857
31999SOL     OW97893   2.242  12.557   8.837
31999SOL    HW197894   2.241  12.513   8.751
31999SOL    HW297895   2.307  12.509   8.888
32000SOL     OW97896   5.371   5.201   5.971
32000SOL    HW197897   5.326   5.148   6.037
32000SOL    HW297898   5.343   5.291   5.989
32001SOL     OW97899   9.779   1.956   6.363
32001SOL    HW197900   9.734   1.880   6.397
32001SOL    HW297901   9.733   1.978   6.282
32002SOL     OW97902   9.205   8.704   5.558
32002SOL    HW197903   9.134   8.761   5.589
32002SOL    HW297904   9.263   8.762   5.509
32003SOL     OW97905   9.986  13.514   6.187
32003SOL    HW197906   9.961  13.422   6.183
32003SOL    HW297907   9.951  13.552   6.107
32004SOL     OW97908   0.562   9.086   8.015
32004SOL    HW197909   0.537   9.146   7.945
32004SOL    HW297910   0.531   9.000   7.985
32005SOL     OW97911  10.891  12.654  10.309
32005SOL    HW197912  10.986  12.653  10.320
32005SOL    HW297913  10.877  12.693  10.223
32006SOL     OW97914  14.649   7.258   2.740
32006SOL    HW197915  14.712   7.188   2.725
32006SOL    HW297916  14.675   7.296   2.823
32007SOL     OW97917   8.323  12.069   6.551
32007SOL    HW197918   8.403  12.043   6.596
32007SOL    HW297919   8.267  12.105   6.620
32008SOL     OW97920   0.990   5.280  13.051
32008SOL    HW197921   1.021   5.328  12.974
32008SOL    HW297922   0.895   5.281  13.044
32009SOL     OW97923   3.104   6.336   3.051
32009SOL    HW197924   3.171   6.287   3.100
32009SOL    HW297925   3.141   6.348   2.964
32010SOL     OW97926   4.014  13.983  13.778
32010SOL    HW197927   3.968  13.925  13.717
32010SOL    HW297928   4.075  14.032  13.722
32011SOL     OW97929  12.532   2.386   4.611
32011SOL    HW197930  12.596   2.329   4.570
32011SOL    HW297931  12.488   2.330   4.676
32012SOL     OW97932  13.555   2.924  13.562
32012SOL    HW197933  13.569   2.965  13.477
32012SOL    HW297934  13.463   2.942  13.583
32013SOL     OW97935   5.873  13.742   9.357
32013SOL    HW197936   5.849  13.834   9.371
32013SOL    HW297937   5.967  13.744   9.344
32014SOL     OW97938   2.225   6.808  10.692
32014SOL    HW197939   2.316   6.828  10.671
32014SOL    HW297940   2.230   6.748  10.766
32015SOL     OW97941   2.982  13.513  14.109
32015SOL    HW197942   2.986  13.469  14.024
32015SOL    HW297943   3.074  13.525  14.134
32016SOL     OW97944   8.689   4.879   2.105
32016SOL    HW197945   8.658   4.877   2.015
32016SOL    HW297946   8.623   4.930   2.153
32017SOL     OW97947   2.921  12.259  11.875
32017SOL    HW197948   2.941  12.306  11.794
32017SOL    HW297949   2.979  12.182  11.872
32018SOL     OW97950   5.251  10.707   3.008
32018SOL    HW197951   5.275  10.785   3.057
32018SOL    HW297952   5.334  10.659   2.997
32019SOL     OW97953   9.302   2.202  11.768
32019SOL    HW197954   9.255   2.178  11.848
32019SOL    HW297955   9.236   2.191  11.699
32020SOL     OW97956  11.186  12.800   6.793
32020SOL    HW197957  11.098  12.831   6.770
32020SOL    HW297958  11.204  12.731   6.729
32021SOL     OW97959   5.505  10.688   1.417
32021SOL    HW197960   5.487  10.724   1.504
32021SOL    HW297961   5.463  10.603   1.417
32022SOL     OW97962   4.370   8.578  11.083
32022SOL    HW197963   4.444   8.584  11.023
32022SOL    HW297964   4.298   8.620  11.037
32023SOL     OW97965   2.507   7.105   3.399
32023SOL    HW197966   2.538   7.137   3.314
32023SOL    HW297967   2.517   7.010   3.394
32024SOL     OW97968   0.746   7.770  14.728
32024SOL    HW197969   0.804   7.824  14.674
32024SOL    HW297970   0.780   7.781  14.817
32025SOL     OW97971   6.716   8.711  13.569
32025SOL    HW197972   6.651   8.781  13.572
32025SOL    HW297973   6.674   8.641  13.519
32026SOL     OW97974   1.111   0.278   8.093
32026SOL    HW197975   1.162   0.353   8.065
32026SOL    HW297976   1.035   0.277   8.034
32027SOL     OW97977   4.962   3.013   0.782
32027SOL    HW197978   5.036   3.031   0.841
32027SOL    HW297979   4.959   3.088   0.723
32028SOL     OW97980   4.883   5.093   8.743
32028SOL    HW197981   4.841   5.176   8.721
32028SOL    HW297982   4.829   5.027   8.701
32029SOL     OW97983   2.199   3.886   0.399
32029SOL    HW197984   2.120   3.935   0.374
32029SOL    HW297985   2.240   3.940   0.466
32030SOL     OW97986   6.879  13.829   3.968
32030SOL    HW197987   6.890  13.780   4.050
32030SOL    HW297988   6.955  13.804   3.915
32031SOL     OW97989   1.814   4.362  10.867
32031SOL    HW197990   1.858   4.413  10.935
32031SOL    HW297991   1.828   4.271  10.893
32032SOL     OW97992   4.261   4.971   4.907
32032SOL    HW197993   4.335   5.031   4.913
32032SOL    HW297994   4.288   4.907   4.841
32033SOL     OW97995  12.479   3.027   2.136
32033SOL    HW197996  12.573   3.021   2.123
32033SOL    HW297997  12.467   3.008   2.229
32034SOL     OW97998  13.743   9.031   1.356
32034SOL    HW197999  13.703   8.952   1.319
32034SOL    HW298000  13.837   9.019   1.342
32035SOL     OW98001   8.476  14.501   8.187
32035SOL    HW198002   8.473  14.514   8.281
32035SOL    HW298003   8.472  14.589   8.150
32036SOL     OW98004   0.828   9.610   5.526
32036SOL    HW198005   0.914   9.649   5.541
32036SOL    HW298006   0.797   9.651   5.445
32037SOL     OW98007  11.696   8.218  10.816
32037SOL    HW198008  11.792   8.219  10.819
32037SOL    HW298009  11.669   8.215  10.908
32038SOL     OW98010   3.775   5.525   0.012
32038SOL    HW198011   3.826   5.498  14.815
32038SOL    HW298012   3.756   5.617  14.876
32039SOL     OW98013  10.455   2.280  10.344
32039SOL    HW198014  10.541   2.268  10.305
32039SOL    HW298015  10.459   2.366  10.387
32040SOL     OW98016   7.160   9.698   5.369
32040SOL    HW198017   7.176   9.775   5.314
32040SOL    HW298018   7.129   9.631   5.308
32041SOL     OW98019   0.588   9.946   4.389
32041SOL    HW198020   0.510   9.975   4.436
32041SOL    HW298021   0.636   9.892   4.452
32042SOL     OW98022  11.550  10.492  13.091
32042SOL    HW198023  11.480  10.436  13.057
32042SOL    HW298024  11.544  10.572  13.039
32043SOL     OW98025  10.942   1.346  14.112
32043SOL    HW198026  11.009   1.401  14.071
32043SOL    HW298027  10.986   1.308  14.188
32044SOL     OW98028   8.165  10.633   5.142
32044SOL    HW198029   8.158  10.538   5.149
32044SOL    HW298030   8.142  10.665   5.229
32045SOL     OW98031  10.609   6.717   4.183
32045SOL    HW198032  10.689   6.735   4.134
32045SOL    HW298033  10.554   6.794   4.167
32046SOL     OW98034  13.023   7.052  14.601
32046SOL    HW198035  13.063   7.019  14.520
32046SOL    HW298036  13.020   6.975  14.659
32047SOL     OW98037  11.730   5.800  10.297
32047SOL    HW198038  11.773   5.717  10.281
32047SOL    HW298039  11.637   5.782  10.281
32048SOL     OW98040   2.372   4.181   4.942
32048SOL    HW198041   2.456   4.150   4.908
32048SOL    HW298042   2.346   4.250   4.881
32049SOL     OW98043  14.053   0.519  10.174
32049SOL    HW198044  13.977   0.503  10.230
32049SOL    HW298045  14.096   0.433  10.167
32050SOL     OW98046   7.483   7.520   8.130
32050SOL    HW198047   7.572   7.550   8.149
32050SOL    HW298048   7.444   7.592   8.080
32051SOL     OW98049  10.060   6.579  11.222
32051SOL    HW198050  10.148   6.607  11.197
32051SOL    HW298051  10.041   6.505  11.165
32052SOL     OW98052   0.869  14.398   5.472
32052SOL    HW198053   0.833  14.334   5.533
32052SOL    HW298054   0.902  14.469   5.527
32053SOL     OW98055   2.996   4.056   8.639
32053SOL    HW198056   2.946   4.061   8.720
32053SOL    HW298057   3.029   4.145   8.625
32054SOL     OW98058   0.837   7.892   4.411
32054SOL    HW198059   0.843   7.857   4.499
32054SOL    HW298060   0.762   7.846   4.372
32055SOL     OW98061  13.133   5.685  14.341
32055SOL    HW198062  13.081   5.682  14.260
32055SOL    HW298063  13.069   5.669  14.411
32056SOL     OW98064   2.390   2.885   1.987
32056SOL    HW198065   2.448   2.810   1.970
32056SOL    HW298066   2.343   2.899   1.905
32057SOL     OW98067  12.286  11.565   6.873
32057SOL    HW198068  12.365  11.574   6.821
32057SOL    HW298069  12.232  11.641   6.849
32058SOL     OW98070   0.458   5.867  14.070
32058SOL    HW198071   0.392   5.908  14.125
32058SOL    HW298072   0.409   5.808  14.013
32059SOL     OW98073   4.076   9.925   6.773
32059SOL    HW198074   4.038   9.963   6.694
32059SOL    HW298075   4.170   9.933   6.761
32060SOL     OW98076   1.183   1.249   7.756
32060SOL    HW198077   1.208   1.340   7.742
32060SOL    HW298078   1.111   1.253   7.818
32061SOL     OW98079   6.931   5.620   2.935
32061SOL    HW198080   6.961   5.678   2.864
32061SOL    HW298081   6.925   5.677   3.011
32062SOL     OW98082  10.775  10.375  14.470
32062SOL    HW198083  10.800  10.343  14.383
32062SOL    HW298084  10.858  10.401  14.510
32063SOL     OW98085   1.295  14.544   5.063
32063SOL    HW198086   1.370  14.532   5.121
32063SOL    HW298087   1.220  14.554   5.122
32064SOL     OW98088  10.710  13.753   8.164
32064SOL    HW198089  10.781  13.814   8.184
32064SOL    HW298090  10.754  13.675   8.131
32065SOL     OW98091  12.648   0.711   3.183
32065SOL    HW198092  12.731   0.740   3.221
32065SOL    HW298093  12.601   0.792   3.163
32066SOL     OW98094   9.718   8.542  12.024
32066SOL    HW198095   9.734   8.553  12.118
32066SOL    HW298096   9.752   8.455  12.004
32067SOL     OW98097   2.558  13.848   7.309
32067SOL    HW198098   2.607  13.887   7.237
32067SOL    HW298099   2.467  13.853   7.282
32068SOL     OW98100  12.948   5.029   7.319
32068SOL    HW198101  12.882   4.992   7.260
32068SOL    HW298102  12.960   4.962   7.386
32069SOL     OW98103  11.752   9.267   0.020
32069SOL    HW198104  11.697   9.334  14.860
32069SOL    HW298105  11.834   9.271  14.851
32070SOL     OW98106   4.752   2.777   9.609
32070SOL    HW198107   4.667   2.733   9.599
32070SOL    HW298108   4.752   2.809   9.699
32071SOL     OW98109   6.131   8.062   4.178
32071SOL    HW198110   6.161   8.153   4.184
32071SOL    HW298111   6.177   8.027   4.102
32072SOL     OW98112   5.847  11.968   4.017
32072SOL    HW198113   5.861  11.891   3.962
32072SOL    HW298114   5.752  11.979   4.018
32073SOL     OW98115  13.472   0.029   8.646
32073SOL    HW198116  13.531  14.841   8.681
32073SOL    HW298117  13.412   0.048   8.717
32074SOL     OW98118   7.263   6.842  14.639
32074SOL    HW198119   7.183   6.792  14.630
32074SOL    HW298120   7.242   6.929  14.604
32075SOL     OW98121  14.529   7.108   6.960
32075SOL    HW198122  14.461   7.167   6.992
32075SOL    HW298123  14.599   7.165   6.930
32076SOL     OW98124  12.539   4.021  12.268
32076SOL    HW198125  12.451   4.026  12.305
32076SOL    HW298126  12.595   3.994  12.341
32077SOL     OW98127   4.310  10.006   5.724
32077SOL    HW198128   4.405  10.004   5.715
32077SOL    HW298129   4.295  10.005   5.818
32078SOL     OW98130   0.308   5.204   2.458
32078SOL    HW198131   0.282   5.115   2.479
32078SOL    HW298132   0.231   5.257   2.479
32079SOL     OW98133   2.557   7.236  13.886
32079SOL    HW198134   2.575   7.213  13.977
32079SOL    HW298135   2.639   7.272  13.853
32080SOL     OW98136   7.068  11.592   9.168
32080SOL    HW198137   7.041  11.658   9.104
32080SOL    HW298138   7.163  11.600   9.172
32081SOL     OW98139   7.880   8.473  14.486
32081SOL    HW198140   7.881   8.380  14.511
32081SOL    HW298141   7.860   8.519  14.567
32082SOL     OW98142  11.057   6.775   4.497
32082SOL    HW198143  11.021   6.692   4.464
32082SOL    HW298144  10.983   6.819   4.538
32083SOL     OW98145   5.495   5.102  14.675
32083SOL    HW198146   5.566   5.040  14.691
32083SOL    HW298147   5.531   5.187  14.702
32084SOL     OW98148   7.098   9.860   5.784
32084SOL    HW198149   7.171   9.819   5.831
32084SOL    HW298150   7.136   9.939   5.746
32085SOL     OW98151  12.467  13.993   7.218
32085SOL    HW198152  12.468  14.088   7.226
32085SOL    HW298153  12.560  13.969   7.209
32086SOL     OW98154   4.873   8.846   9.287
32086SOL    HW198155   4.915   8.838   9.202
32086SOL    HW298156   4.863   8.756   9.318
32087SOL     OW98157   2.646   6.220   4.426
32087SOL    HW198158   2.731   6.203   4.385
32087SOL    HW298159   2.664   6.220   4.520
32088SOL     OW98160  14.282  11.106   8.812
32088SOL    HW198161  14.354  11.167   8.797
32088SOL    HW298162  14.303  11.064   8.895
32089SOL     OW98163   8.912   1.683  14.432
32089SOL    HW198164   8.853   1.759  14.430
32089SOL    HW298165   8.929   1.668  14.525
32090SOL     OW98166  12.332   3.184   4.518
32090SOL    HW198167  12.338   3.203   4.612
32090SOL    HW298168  12.358   3.266   4.476
32091SOL     OW98169   7.725  12.190  11.214
32091SOL    HW198170   7.728  12.279  11.248
32091SOL    HW298171   7.639  12.157  11.240
32092SOL     OW98172  13.391  12.157  12.636
32092SOL    HW198173  13.481  12.144  12.606
32092SOL    HW298174  13.353  12.216  12.571
32093SOL     OW98175   0.662   3.463   1.912
32093SOL    HW198176   0.585   3.408   1.901
32093SOL    HW298177   0.691   3.482   1.823
32094SOL     OW98178  10.807   3.653  14.545
32094SOL    HW198179  10.805   3.557  14.548
32094SOL    HW298180  10.884   3.674  14.493
32095SOL     OW98181  10.527  12.455   6.090
32095SOL    HW198182  10.485  12.370   6.074
32095SOL    HW298183  10.543  12.490   6.002
32096SOL     OW98184   3.913  13.746   2.413
32096SOL    HW198185   3.849  13.804   2.370
32096SOL    HW298186   3.882  13.658   2.392
32097SOL     OW98187   3.138  14.012   4.955
32097SOL    HW198188   3.168  14.103   4.963
32097SOL    HW298189   3.165  13.971   5.037
32098SOL     OW98190   2.724   5.460   5.191
32098SOL    HW198191   2.666   5.414   5.253
32098SOL    HW298192   2.809   5.459   5.234
32099SOL     OW98193   6.166   2.284   4.404
32099SOL    HW198194   6.255   2.311   4.427
32099SOL    HW298195   6.140   2.223   4.473
32100SOL     OW98196  11.484   4.233   8.950
32100SOL    HW198197  11.429   4.292   8.899
32100SOL    HW298198  11.540   4.190   8.884
32101SOL     OW98199   6.126  10.147   3.502
32101SOL    HW198200   6.174  10.112   3.427
32101SOL    HW298201   6.187  10.208   3.543
32102SOL     OW98202  12.134   3.586  12.869
32102SOL    HW198203  12.218   3.539  12.875
32102SOL    HW298204  12.159   3.676  12.850
32103SOL     OW98205   7.163   1.873   5.124
32103SOL    HW198206   7.089   1.818   5.100
32103SOL    HW298207   7.234   1.847   5.064
32104SOL     OW98208  11.668  11.248  11.939
32104SOL    HW198209  11.644  11.163  11.976
32104SOL    HW298210  11.758  11.237  11.910
32105SOL     OW98211   7.598   2.693   2.476
32105SOL    HW198212   7.564   2.777   2.509
32105SOL    HW298213   7.663   2.667   2.541
32106SOL     OW98214   0.328   1.981   5.991
32106SOL    HW198215   0.286   2.009   6.071
32106SOL    HW298216   0.386   1.910   6.018
32107SOL     OW98217   5.485   4.165  13.513
32107SOL    HW198218   5.393   4.154  13.490
32107SOL    HW298219   5.531   4.095  13.466
32108SOL     OW98220   5.975   7.949  12.507
32108SOL    HW198221   5.879   7.954  12.508
32108SOL    HW298222   5.997   7.940  12.414
32109SOL     OW98223   1.234   0.542   9.071
32109SOL    HW198224   1.311   0.527   9.126
32109SOL    HW298225   1.168   0.578   9.132
32110SOL     OW98226   6.942  11.777   7.732
32110SOL    HW198227   6.883  11.822   7.793
32110SOL    HW298228   6.884  11.747   7.662
32111SOL     OW98229  12.446   9.101   6.601
32111SOL    HW198230  12.509   9.108   6.530
32111SOL    HW298231  12.499   9.073   6.676
32112SOL     OW98232   7.825   0.118  10.578
32112SOL    HW198233   7.809   0.107  10.671
32112SOL    HW298234   7.920   0.114  10.569
32113SOL     OW98235  12.449  13.221   5.103
32113SOL    HW198236  12.454  13.129   5.129
32113SOL    HW298237  12.399  13.263   5.174
32114SOL     OW98238   6.283  11.471   0.847
32114SOL    HW198239   6.246  11.448   0.932
32114SOL    HW298240   6.324  11.556   0.862
32115SOL     OW98241   3.245   0.700   2.529
32115SOL    HW198242   3.216   0.653   2.607
32115SOL    HW298243   3.204   0.786   2.535
32116SOL     OW98244  11.262   5.689  12.194
32116SOL    HW198245  11.202   5.616  12.209
32116SOL    HW298246  11.265   5.698  12.098
32117SOL     OW98247   7.833   6.720   0.163
32117SOL    HW198248   7.832   6.813   0.140
32117SOL    HW298249   7.919   6.689   0.134
32118SOL     OW98250   4.566  12.176  11.668
32118SOL    HW198251   4.644  12.231  11.657
32118SOL    HW298252   4.599  12.094  11.706
32119SOL     OW98253   6.895  13.362   2.868
32119SOL    HW198254   6.852  13.411   2.938
32119SOL    HW298255   6.833  13.293   2.844
32120SOL     OW98256   4.440   0.586  12.943
32120SOL    HW198257   4.485   0.643  13.005
32120SOL    HW298258   4.347   0.592  12.967
32121SOL     OW98259   9.965  10.105   3.287
32121SOL    HW198260  10.038  10.146   3.334
32121SOL    HW298261   9.907  10.178   3.265
32122SOL     OW98262   4.217   9.937   8.510
32122SOL    HW198263   4.289   9.978   8.463
32122SOL    HW298264   4.260   9.881   8.576
32123SOL     OW98265   9.783  11.137   5.346
32123SOL    HW198266   9.806  11.193   5.272
32123SOL    HW298267   9.696  11.103   5.325
32124SOL     OW98268   9.058   7.643  10.930
32124SOL    HW198269   9.125   7.576  10.934
32124SOL    HW298270   9.059   7.684  11.017
32125SOL     OW98271   9.063   9.926   3.150
32125SOL    HW198272   9.143   9.972   3.175
32125SOL    HW298273   9.018   9.986   3.091
32126SOL     OW98274  11.094   5.933   1.476
32126SOL    HW198275  11.076   5.851   1.521
32126SOL    HW298276  11.131   5.990   1.543
32127SOL     OW98277   4.685   6.419  14.418
32127SOL    HW198278   4.709   6.331  14.389
32127SOL    HW298279   4.751   6.441  14.484
32128SOL     OW98280   3.396   8.984   7.891
32128SOL    HW198281   3.396   8.891   7.869
32128SOL    HW298282   3.445   9.025   7.820
32129SOL     OW98283  13.311   7.377   7.613
32129SOL    HW198284  13.224   7.391   7.650
32129SOL    HW298285  13.307   7.289   7.575
32130SOL     OW98286   2.507  12.014   0.103
32130SOL    HW198287   2.467  12.099   0.120
32130SOL    HW298288   2.598  12.034   0.083
32131SOL     OW98289   4.929   0.528   9.964
32131SOL    HW198290   4.894   0.528   9.875
32131SOL    HW298291   4.861   0.569  10.017
32132SOL     OW98292   2.159   2.434   8.524
32132SOL    HW198293   2.165   2.343   8.495
32132SOL    HW298294   2.231   2.479   8.480
32133SOL     OW98295   9.125  11.381  12.423
32133SOL    HW198296   9.163  11.349  12.341
32133SOL    HW298297   9.131  11.476  12.416
32134SOL     OW98298  10.277   3.094   3.137
32134SOL    HW198299  10.333   3.016   3.143
32134SOL    HW298300  10.301   3.135   3.054
32135SOL     OW98301   8.291  10.511  13.315
32135SOL    HW198302   8.295  10.541  13.224
32135SOL    HW298303   8.238  10.431  13.310
32136SOL     OW98304  11.285  12.719   1.782
32136SOL    HW198305  11.346  12.784   1.748
32136SOL    HW298306  11.295  12.643   1.725
32137SOL     OW98307  10.256   7.399  14.195
32137SOL    HW198308  10.272   7.488  14.164
32137SOL    HW298309  10.198   7.410  14.271
32138SOL     OW98310  12.394   3.229  10.819
32138SOL    HW198311  12.387   3.147  10.770
32138SOL    HW298312  12.401   3.202  10.910
32139SOL     OW98313   4.820   4.637   2.405
32139SOL    HW198314   4.871   4.670   2.331
32139SOL    HW298315   4.750   4.702   2.416
32140SOL     OW98316  13.708  13.045   0.312
32140SOL    HW198317  13.786  13.017   0.265
32140SOL    HW298318  13.635  13.009   0.261
32141SOL     OW98319  13.965   7.784   4.991
32141SOL    HW198320  14.058   7.802   5.002
32141SOL    HW298321  13.961   7.720   4.920
32142SOL     OW98322   4.710   5.554   0.237
32142SOL    HW198323   4.652   5.531   0.310
32142SOL    HW298324   4.798   5.543   0.272
32143SOL     OW98325   3.377  10.495  10.669
32143SOL    HW198326   3.297  10.475  10.717
32143SOL    HW298327   3.357  10.575  10.621
32144SOL     OW98328  13.905  10.700   0.555
32144SOL    HW198329  13.981  10.730   0.505
32144SOL    HW298330  13.870  10.779   0.595
32145SOL     OW98331   8.353   6.256  14.501
32145SOL    HW198332   8.398   6.172  14.504
32145SOL    HW298333   8.397   6.305  14.431
32146SOL     OW98334   7.054   8.296   3.002
32146SOL    HW198335   7.086   8.329   3.086
32146SOL    HW298336   6.974   8.347   2.986
32147SOL     OW98337  12.082   0.759   0.535
32147SOL    HW198338  11.991   0.783   0.519
32147SOL    HW298339  12.078   0.688   0.599
32148SOL     OW98340  12.301   1.059  13.118
32148SOL    HW198341  12.396   1.059  13.133
32148SOL    HW298342  12.263   1.057  13.206
32149SOL     OW98343  11.317   4.295   6.656
32149SOL    HW198344  11.403   4.281   6.616
32149SOL    HW298345  11.271   4.353   6.596
32150SOL     OW98346   9.565   6.602   7.908
32150SOL    HW198347   9.583   6.694   7.891
32150SOL    HW298348   9.485   6.602   7.961
32151SOL     OW98349   7.977   1.818  11.022
32151SOL    HW198350   7.891   1.799  11.060
32151SOL    HW298351   8.019   1.732  11.015
32152SOL     OW98352   9.680  11.447   4.507
32152SOL    HW198353   9.673  11.368   4.453
32152SOL    HW298354   9.697  11.414   4.595
32153SOL     OW98355   1.461   3.820   9.552
32153SOL    HW198356   1.444   3.856   9.465
32153SOL    HW298357   1.488   3.730   9.536
32154SOL     OW98358   7.158   1.019   5.709
32154SOL    HW198359   7.156   1.094   5.649
32154SOL    HW298360   7.209   1.049   5.784
32155SOL     OW98361  14.269   3.036   1.828
32155SOL    HW198362  14.329   3.109   1.845
32155SOL    HW298363  14.320   2.976   1.773
32156SOL     OW98364   1.911   3.438   0.662
32156SOL    HW198365   1.879   3.411   0.576
32156SOL    HW298366   1.832   3.441   0.717
32157SOL     OW98367  14.259   4.994   2.683
32157SOL    HW198368  14.285   5.029   2.768
32157SOL    HW298369  14.188   4.932   2.703
32158SOL     OW98370  11.969   8.893   9.442
32158SOL    HW198371  11.945   8.983   9.421
32158SOL    HW298372  12.062   8.887   9.421
32159SOL     OW98373  12.262   1.358  12.590
32159SOL    HW198374  12.231   1.267  12.584
32159SOL    HW298375  12.315   1.371  12.512
32160SOL     OW98376   0.117   5.882  11.796
32160SOL    HW198377   0.127   5.813  11.731
32160SOL    HW298378   0.165   5.849  11.873
32161SOL     OW98379   5.935   2.612  14.736
32161SOL    HW198380   6.020   2.595  14.775
32161SOL    HW298381   5.956   2.649  14.650
32162SOL     OW98382  11.907   3.236   4.253
32162SOL    HW198383  11.875   3.325   4.260
32162SOL    HW298384  11.828   3.182   4.244
32163SOL     OW98385   1.234   0.242   7.242
32163SOL    HW198386   1.174   0.289   7.185
32163SOL    HW298387   1.244   0.298   7.319
32164SOL     OW98388   6.285  10.995   1.331
32164SOL    HW198389   6.263  11.088   1.322
32164SOL    HW298390   6.206  10.949   1.301
32165SOL     OW98391  10.228   9.737  10.458
32165SOL    HW198392  10.211   9.659  10.406
32165SOL    HW298393  10.275   9.796  10.399
32166SOL     OW98394   5.545   4.275   1.837
32166SOL    HW198395   5.529   4.207   1.771
32166SOL    HW298396   5.639   4.293   1.831
32167SOL     OW98397   7.433   8.855   9.803
32167SOL    HW198398   7.513   8.820   9.763
32167SOL    HW298399   7.465   8.903   9.880
32168SOL     OW98400  12.487  10.538  11.819
32168SOL    HW198401  12.418  10.475  11.839
32168SOL    HW298402  12.459  10.579  11.737
32169SOL     OW98403  10.488  11.093   1.522
32169SOL    HW198404  10.485  11.184   1.493
32169SOL    HW298405  10.521  11.044   1.446
32170SOL     OW98406   3.745   3.013   5.585
32170SOL    HW198407   3.785   2.946   5.528
32170SOL    HW298408   3.668   3.042   5.537
32171SOL     OW98409  10.665  12.889   9.773
32171SOL    HW198410  10.747  12.937   9.765
32171SOL    HW298411  10.606  12.931   9.710
32172SOL     OW98412   2.215  13.347  11.264
32172SOL    HW198413   2.277  13.379  11.329
32172SOL    HW298414   2.208  13.253  11.281
32173SOL     OW98415   3.377  10.087   4.014
32173SOL    HW198416   3.434  10.012   3.996
32173SOL    HW298417   3.350  10.074   4.105
32174SOL     OW98418   7.976   6.447   2.141
32174SOL    HW198419   8.055   6.435   2.193
32174SOL    HW298420   7.995   6.523   2.086
32175SOL     OW98421   9.757   0.653  11.111
32175SOL    HW198422   9.680   0.615  11.153
32175SOL    HW298423   9.825   0.586  11.121
32176SOL     OW98424  10.222  10.627   8.936
32176SOL    HW198425  10.299  10.589   8.978
32176SOL    HW298426  10.189  10.691   8.998
32177SOL     OW98427  14.462  13.091   3.287
32177SOL    HW198428  14.503  13.066   3.370
32177SOL    HW298429  14.372  13.059   3.294
32178SOL     OW98430   5.012  10.313   0.142
32178SOL    HW198431   4.982  10.333   0.054
32178SOL    HW298432   5.096  10.268   0.129
32179SOL     OW98433   2.595   3.578  11.695
32179SOL    HW198434   2.540   3.580  11.773
32179SOL    HW298435   2.559   3.646  11.639
32180SOL     OW98436  11.810  10.383   4.614
32180SOL    HW198437  11.717  10.361   4.609
32180SOL    HW298438  11.852  10.302   4.639
32181SOL     OW98439  12.040   6.675   7.079
32181SOL    HW198440  12.076   6.674   6.991
32181SOL    HW298441  12.035   6.768   7.103
32182SOL     OW98442   7.449  14.150   9.606
32182SOL    HW198443   7.384  14.192   9.662
32182SOL    HW298444   7.406  14.143   9.521
32183SOL     OW98445   2.824   3.202   0.435
32183SOL    HW198446   2.841   3.108   0.429
32183SOL    HW298447   2.845   3.237   0.348
32184SOL     OW98448   1.129  12.694  10.267
32184SOL    HW198449   1.056  12.650  10.310
32184SOL    HW298450   1.099  12.708  10.177
32185SOL     OW98451   2.800   0.776   3.407
32185SOL    HW198452   2.725   0.835   3.413
32185SOL    HW298453   2.872   0.826   3.445
32186SOL     OW98454   1.472  11.304   0.289
32186SOL    HW198455   1.502  11.233   0.232
32186SOL    HW298456   1.459  11.378   0.230
32187SOL     OW98457   1.950   9.808  10.867
32187SOL    HW198458   1.979   9.889  10.909
32187SOL    HW298459   1.883   9.773  10.925
32188SOL     OW98460   1.359   3.700  13.205
32188SOL    HW198461   1.359   3.718  13.299
32188SOL    HW298462   1.416   3.624  13.194
32189SOL     OW98463  10.499   4.953   8.773
32189SOL    HW198464  10.561   4.959   8.701
32189SOL    HW298465  10.445   5.031   8.766
32190SOL     OW98466  10.376   1.757   8.112
32190SOL    HW198467  10.430   1.766   8.191
32190SOL    HW298468  10.374   1.663   8.094
32191SOL     OW98469   0.712   8.558  13.865
32191SOL    HW198470   0.737   8.645  13.835
32191SOL    HW298471   0.691   8.510  13.785
32192SOL     OW98472  12.021   7.448   3.302
32192SOL    HW198473  12.016   7.356   3.277
32192SOL    HW298474  12.111   7.474   3.281
32193SOL     OW98475   4.835   7.715   3.541
32193SOL    HW198476   4.744   7.739   3.557
32193SOL    HW298477   4.883   7.747   3.618
32194SOL     OW98478   4.841   7.898  10.611
32194SOL    HW198479   4.887   7.960  10.555
32194SOL    HW298480   4.783   7.952  10.665
32195SOL     OW98481  10.936   6.466  13.066
32195SOL    HW198482  11.002   6.495  13.003
32195SOL    HW298483  10.987   6.442  13.144
32196SOL     OW98484  14.172   9.642   0.112
32196SOL    HW198485  14.086   9.682   0.109
32196SOL    HW298486  14.169   9.573   0.045
32197SOL     OW98487   8.093  11.026  11.377
32197SOL    HW198488   8.078  10.968  11.451
32197SOL    HW298489   8.010  11.025  11.329
32198SOL     OW98490  14.183   7.799   9.817
32198SOL    HW198491  14.214   7.870   9.761
32198SOL    HW298492  14.089   7.793   9.800
32199SOL     OW98493   1.009  12.687   5.394
32199SOL    HW198494   1.041  12.683   5.303
32199SOL    HW298495   0.960  12.769   5.397
32200SOL     OW98496   1.726   0.923   2.995
32200SOL    HW198497   1.653   0.981   3.018
32200SOL    HW298498   1.758   0.958   2.911
32201SOL     OW98499   9.952   6.189  13.285
32201SOL    HW198500   9.944   6.276  13.246
32201SOL    HW298501   9.883   6.138  13.244
32202SOL     OW98502   5.315   2.268   7.279
32202SOL    HW198503   5.272   2.183   7.284
32202SOL    HW298504   5.331   2.282   7.186
32203SOL     OW98505  12.153   2.518   5.896
32203SOL    HW198506  12.111   2.604   5.890
32203SOL    HW298507  12.080   2.456   5.894
32204SOL     OW98508  11.869   2.004   1.623
32204SOL    HW198509  11.917   1.956   1.556
32204SOL    HW298510  11.864   2.093   1.589
32205SOL     OW98511  13.635   8.062  12.995
32205SOL    HW198512  13.723   8.024  12.990
32205SOL    HW298513  13.583   8.009  12.934
32206SOL     OW98514   3.009  10.086  14.675
32206SOL    HW198515   2.922  10.053  14.697
32206SOL    HW298516   2.993  10.158  14.614
32207SOL     OW98517   1.418  13.930   4.080
32207SOL    HW198518   1.416  13.881   4.162
32207SOL    HW298519   1.426  14.022   4.108
32208SOL     OW98520  11.171   4.288   2.460
32208SOL    HW198521  11.205   4.242   2.537
32208SOL    HW298522  11.149   4.218   2.399
32209SOL     OW98523   4.357   0.248   5.336
32209SOL    HW198524   4.300   0.301   5.391
32209SOL    HW298525   4.405   0.311   5.283
32210SOL     OW98526   6.779   9.582   4.710
32210SOL    HW198527   6.783   9.671   4.745
32210SOL    HW298528   6.866   9.567   4.673
32211SOL     OW98529   5.463   5.175  12.713
32211SOL    HW198530   5.428   5.128  12.638
32211SOL    HW298531   5.556   5.153  12.715
32212SOL     OW98532   9.461   4.700   8.628
32212SOL    HW198533   9.461   4.653   8.545
32212SOL    HW298534   9.369   4.722   8.644
32213SOL     OW98535   7.143   9.116   4.785
32213SOL    HW198536   7.131   9.114   4.690
32213SOL    HW298537   7.140   9.024   4.811
32214SOL     OW98538   3.840   9.218   5.883
32214SOL    HW198539   3.923   9.261   5.862
32214SOL    HW298540   3.816   9.172   5.803
32215SOL     OW98541  13.182   6.274   4.152
32215SOL    HW198542  13.096   6.235   4.134
32215SOL    HW298543  13.190   6.273   4.247
32216SOL     OW98544   7.507   8.137  11.329
32216SOL    HW198545   7.420   8.169  11.305
32216SOL    HW298546   7.500   8.042  11.323
32217SOL     OW98547   5.224  12.237   1.901
32217SOL    HW198548   5.206  12.319   1.855
32217SOL    HW298549   5.312  12.248   1.937
32218SOL     OW98550   4.512   5.007   5.420
32218SOL    HW198551   4.576   4.980   5.354
32218SOL    HW298552   4.563   5.015   5.500
32219SOL     OW98553   7.135   8.458  10.065
32219SOL    HW198554   7.193   8.534  10.068
32219SOL    HW298555   7.184   8.389  10.110
32220SOL     OW98556  13.754   0.469   1.522
32220SOL    HW198557  13.679   0.516   1.558
32220SOL    HW298558  13.784   0.524   1.449
32221SOL     OW98559   4.715   6.401   9.268
32221SOL    HW198560   4.665   6.324   9.295
32221SOL    HW298561   4.728   6.451   9.350
32222SOL     OW98562  12.315   1.195  10.451
32222SOL    HW198563  12.270   1.150  10.522
32222SOL    HW298564  12.296   1.142  10.374
32223SOL     OW98565   6.977   8.324   8.163
32223SOL    HW198566   7.008   8.369   8.085
32223SOL    HW298567   7.049   8.334   8.226
32224SOL     OW98568  11.370  13.503   0.070
32224SOL    HW198569  11.380  13.437   0.138
32224SOL    HW298570  11.431  13.477   0.001
32225SOL     OW98571  10.397   2.320   1.572
32225SOL    HW198572  10.450   2.289   1.499
32225SOL    HW298573  10.391   2.415   1.559
32226SOL     OW98574  14.825  12.965  11.773
32226SOL    HW198575  14.860  12.987  11.860
32226SOL    HW298576   0.019  12.978  11.713
32227SOL     OW98577   1.056   5.531  14.648
32227SOL    HW198578   1.143   5.503  14.676
32227SOL    HW298579   1.010   5.449  14.627
32228SOL     OW98580   3.697   0.124  10.247
32228SOL    HW198581   3.748   0.086  10.176
32228SOL    HW298582   3.680   0.214  10.218
32229SOL     OW98583   7.229  10.420   6.764
32229SOL    HW198584   7.265  10.332   6.767
32229SOL    HW298585   7.289  10.470   6.709
32230SOL     OW98586   1.862   6.582   9.152
32230SOL    HW198587   1.873   6.613   9.242
32230SOL    HW298588   1.840   6.661   9.102
32231SOL     OW98589   7.511   6.260   4.354
32231SOL    HW198590   7.536   6.320   4.284
32231SOL    HW298591   7.495   6.177   4.310
32232SOL     OW98592   3.049   2.103  11.080
32232SOL    HW198593   3.046   2.007  11.086
32232SOL    HW298594   3.105   2.129  11.154
32233SOL     OW98595  13.125   6.464  10.682
32233SOL    HW198596  13.050   6.422  10.724
32233SOL    HW298597  13.146   6.407  10.608
32234SOL     OW98598  14.685   9.909   4.474
32234SOL    HW198599  14.659  10.000   4.491
32234SOL    HW298600  14.680   9.867   4.560
32235SOL     OW98601   2.081   3.188  11.563
32235SOL    HW198602   2.070   3.258  11.627
32235SOL    HW298603   2.156   3.138  11.594
32236SOL     OW98604   1.234   6.428   1.187
32236SOL    HW198605   1.195   6.391   1.266
32236SOL    HW298606   1.172   6.494   1.157
32237SOL     OW98607  12.906  11.200   9.444
32237SOL    HW198608  12.893  11.278   9.498
32237SOL    HW298609  12.840  11.207   9.375
32238SOL     OW98610   3.754   6.442   3.827
32238SOL    HW198611   3.740   6.417   3.919
32238SOL    HW298612   3.823   6.383   3.797
32239SOL     OW98613   8.605  11.577  10.323
32239SOL    HW198614   8.591  11.500  10.268
32239SOL    HW298615   8.611  11.542  10.412
32240SOL     OW98616   5.497   9.865   3.899
32240SOL    HW198617   5.581   9.818   3.907
32240SOL    HW298618   5.514   9.933   3.833
32241SOL     OW98619  13.715  10.470   0.237
32241SOL    HW198620  13.766  10.487   0.158
32241SOL    HW298621  13.780  10.455   0.305
32242SOL     OW98622   3.910  13.283   8.495
32242SOL    HW198623   3.920  13.191   8.520
32242SOL    HW298624   3.977  13.329   8.545
32243SOL     OW98625   8.367   0.148   3.921
32243SOL    HW198626   8.438   0.196   3.964
32243SOL    HW298627   8.399   0.133   3.832
32244SOL     OW98628   2.606   4.058   7.247
32244SOL    HW198629   2.693   4.029   7.220
32244SOL    HW298630   2.561   4.076   7.164
32245SOL     OW98631   7.172   6.407   3.958
32245SOL    HW198632   7.120   6.488   3.957
32245SOL    HW298633   7.180   6.384   3.865
32246SOL     OW98634  12.276   2.797   7.776
32246SOL    HW198635  12.266   2.796   7.871
32246SOL    HW298636  12.274   2.705   7.750
32247SOL     OW98637   2.700   5.813   6.212
32247SOL    HW198638   2.659   5.762   6.143
32247SOL    HW298639   2.741   5.748   6.269
32248SOL     OW98640   0.976  13.501   4.462
32248SOL    HW198641   0.891  13.458   4.466
32248SOL    HW298642   0.988  13.540   4.549
32249SOL     OW98643   9.047   2.264   7.145
32249SOL    HW198644   9.062   2.200   7.076
32249SOL    HW298645   9.126   2.319   7.146
32250SOL     OW98646  14.063   2.162  11.773
32250SOL    HW198647  14.004   2.144  11.700
32250SOL    HW298648  14.037   2.100  11.842
32251SOL     OW98649   9.288  14.016  14.319
32251SOL    HW198650   9.353  14.000  14.252
32251SOL    HW298651   9.285  14.112  14.328
32252SOL     OW98652   9.355   6.942   4.842
32252SOL    HW198653   9.283   6.883   4.820
32252SOL    HW298654   9.426   6.916   4.783
32253SOL     OW98655   8.785   4.504   1.324
32253SOL    HW198656   8.822   4.592   1.317
32253SOL    HW298657   8.839   4.460   1.389
32254SOL     OW98658   6.593   6.854   6.399
32254SOL    HW198659   6.542   6.935   6.400
32254SOL    HW298660   6.616   6.841   6.308
32255SOL     OW98661   2.424  10.539  10.944
32255SOL    HW198662   2.385  10.453  10.931
32255SOL    HW298663   2.377  10.576  11.019
32256SOL     OW98664  11.192  12.195   8.302
32256SOL    HW198665  11.263  12.162   8.247
32256SOL    HW298666  11.114  12.150   8.270
32257SOL     OW98667   4.624   4.169  12.331
32257SOL    HW198668   4.539   4.142  12.297
32257SOL    HW298669   4.687   4.111  12.288
32258SOL     OW98670   2.790   7.257  14.441
32258SOL    HW198671   2.757   7.183  14.492
32258SOL    HW298672   2.716   7.317  14.433
32259SOL     OW98673   4.516  13.731   9.439
32259SOL    HW198674   4.550  13.812   9.478
32259SOL    HW298675   4.593  13.686   9.405
32260SOL     OW98676  13.993  10.358   6.394
32260SOL    HW198677  13.928  10.424   6.417
32260SOL    HW298678  14.043  10.344   6.474
32261SOL     OW98679  10.873  14.867   6.623
32261SOL    HW198680  10.931  14.859   6.699
32261SOL    HW298681  10.820   0.064   6.642
32262SOL     OW98682   1.603  11.162   4.200
32262SOL    HW198683   1.562  11.135   4.117
32262SOL    HW298684   1.532  11.159   4.264
32263SOL     OW98685   0.154   8.877   4.451
32263SOL    HW198686   0.130   8.969   4.462
32263SOL    HW298687   0.250   8.876   4.458
32264SOL     OW98688   7.007   5.612   5.734
32264SOL    HW198689   7.024   5.694   5.688
32264SOL    HW298690   7.058   5.619   5.815
32265SOL     OW98691   9.868   1.172   6.054
32265SOL    HW198692   9.839   1.102   5.995
32265SOL    HW298693   9.943   1.211   6.009
32266SOL     OW98694  13.089  14.049   3.803
32266SOL    HW198695  13.008  14.002   3.822
32266SOL    HW298696  13.067  14.141   3.820
32267SOL     OW98697   4.198   7.451   7.160
32267SOL    HW198698   4.177   7.541   7.187
32267SOL    HW298699   4.138   7.397   7.210
32268SOL     OW98700   4.296   2.578   0.484
32268SOL    HW198701   4.270   2.518   0.555
32268SOL    HW298702   4.374   2.622   0.517
32269SOL     OW98703   6.169   9.713   9.040
32269SOL    HW198704   6.260   9.740   9.038
32269SOL    HW298705   6.121   9.791   9.067
32270SOL     OW98706   9.587   1.730  14.012
32270SOL    HW198707   9.670   1.703  13.972
32270SOL    HW298708   9.613   1.793  14.080
32271SOL     OW98709   6.706  10.841  12.689
32271SOL    HW198710   6.636  10.777  12.695
32271SOL    HW298711   6.685  10.907  12.755
32272SOL     OW98712   8.459   3.629  10.868
32272SOL    HW198713   8.372   3.625  10.829
32272SOL    HW298714   8.484   3.721  10.863
32273SOL     OW98715   7.685   2.746  14.513
32273SOL    HW198716   7.713   2.794  14.435
32273SOL    HW298717   7.602   2.787  14.538
32274SOL     OW98718  12.263   8.902  13.529
32274SOL    HW198719  12.302   8.989  13.517
32274SOL    HW298720  12.227   8.880  13.444
32275SOL     OW98721   1.627   9.014   4.760
32275SOL    HW198722   1.707   9.009   4.708
32275SOL    HW298723   1.612   8.924   4.790
32276SOL     OW98724   8.560   0.926   2.275
32276SOL    HW198725   8.570   0.934   2.370
32276SOL    HW298726   8.647   0.946   2.240
32277SOL     OW98727   7.193  10.600  12.547
32277SOL    HW198728   7.191  10.508  12.573
32277SOL    HW298729   7.271  10.635  12.590
32278SOL     OW98730   9.910   8.429   6.611
32278SOL    HW198731   9.839   8.370   6.638
32278SOL    HW298732   9.989   8.378   6.625
32279SOL     OW98733   4.512   1.260   1.219
32279SOL    HW198734   4.525   1.227   1.308
32279SOL    HW298735   4.467   1.344   1.231
32280SOL     OW98736   1.891  11.523   7.614
32280SOL    HW198737   1.929  11.597   7.660
32280SOL    HW298738   1.945  11.514   7.535
32281SOL     OW98739   8.530   7.524   0.930
32281SOL    HW198740   8.506   7.528   1.023
32281SOL    HW298741   8.600   7.589   0.921
32282SOL     OW98742  14.315   1.599   5.490
32282SOL    HW198743  14.321   1.574   5.583
32282SOL    HW298744  14.224   1.624   5.478
32283SOL     OW98745  12.979   0.139  13.788
32283SOL    HW198746  12.920   0.111  13.718
32283SOL    HW298747  12.993   0.232  13.772
32284SOL     OW98748  10.944  11.349   9.772
32284SOL    HW198749  10.933  11.290   9.846
32284SOL    HW298750  10.904  11.431   9.799
32285SOL     OW98751   3.266   5.439  13.583
32285SOL    HW198752   3.201   5.509  13.593
32285SOL    HW298753   3.347   5.485  13.564
32286SOL     OW98754  14.442  13.981   5.559
32286SOL    HW198755  14.386  14.051   5.524
32286SOL    HW298756  14.504  14.026   5.616
32287SOL     OW98757   0.995   7.063  12.956
32287SOL    HW198758   1.058   7.077  13.026
32287SOL    HW298759   1.042   7.009  12.892
32288SOL     OW98760   6.617   7.202   3.769
32288SOL    HW198761   6.704   7.212   3.807
32288SOL    HW298762   6.608   7.278   3.711
32289SOL     OW98763   2.715   5.277  12.469
32289SOL    HW198764   2.624   5.289  12.497
32289SOL    HW298765   2.736   5.187  12.493
32290SOL     OW98766   9.771   0.751  12.764
32290SOL    HW198767   9.701   0.687  12.775
32290SOL    HW298768   9.834   0.708  12.706
32291SOL     OW98769   3.504  10.271   8.355
32291SOL    HW198770   3.460  10.187   8.364
32291SOL    HW298771   3.433  10.335   8.356
32292SOL     OW98772  14.740   1.466   3.003
32292SOL    HW198773  14.647   1.456   2.983
32292SOL    HW298774  14.779   1.497   2.921
32293SOL     OW98775   1.907  12.674  14.035
32293SOL    HW198776   1.917  12.705  14.125
32293SOL    HW298777   1.963  12.732  13.983
32294SOL     OW98778   2.396   0.953   1.297
32294SOL    HW198779   2.336   0.982   1.365
32294SOL    HW298780   2.405   0.859   1.311
32295SOL     OW98781   4.019   5.210  13.751
32295SOL    HW198782   3.990   5.252  13.832
32295SOL    HW298783   4.113   5.194  13.765
32296SOL     OW98784   8.844   9.012   2.996
32296SOL    HW198785   8.853   8.916   3.001
32296SOL    HW298786   8.910   9.039   2.932
32297SOL     OW98787   1.756   1.003   5.498
32297SOL    HW198788   1.689   1.065   5.529
32297SOL    HW298789   1.839   1.043   5.524
32298SOL     OW98790   0.868   7.228   8.592
32298SOL    HW198791   0.920   7.285   8.535
32298SOL    HW298792   0.904   7.241   8.680
32299SOL     OW98793   4.173   8.318   6.740
32299SOL    HW198794   4.119   8.309   6.661
32299SOL    HW298795   4.148   8.404   6.775
32300SOL     OW98796   1.283  13.182  12.336
32300SOL    HW198797   1.277  13.273  12.306
32300SOL    HW298798   1.362  13.180  12.390
32301SOL     OW98799   7.738  10.193  12.392
32301SOL    HW198800   7.736  10.139  12.313
32301SOL    HW298801   7.650  10.231  12.398
32302SOL     OW98802   7.584  10.897   5.613
32302SOL    HW198803   7.505  10.948   5.627
32302SOL    HW298804   7.582  10.830   5.681
32303SOL     OW98805   1.507  13.087   0.982
32303SOL    HW198806   1.464  13.019   0.930
32303SOL    HW298807   1.436  13.129   1.031
32304SOL     OW98808  10.024  13.851   7.896
32304SOL    HW198809  10.043  13.944   7.886
32304SOL    HW298810   9.989  13.843   7.985
32305SOL     OW98811   5.691  10.670   5.068
32305SOL    HW198812   5.642  10.597   5.031
32305SOL    HW298813   5.782  10.651   5.046
32306SOL     OW98814  13.674   0.847   7.405
32306SOL    HW198815  13.666   0.828   7.499
32306SOL    HW298816  13.744   0.789   7.376
32307SOL     OW98817   0.538   9.135  13.622
32307SOL    HW198818   0.527   9.211  13.565
32307SOL    HW298819   0.451   9.095  13.625
32308SOL     OW98820   0.816   5.816   4.058
32308SOL    HW198821   0.836   5.866   3.978
32308SOL    HW298822   0.902   5.791   4.093
32309SOL     OW98823  14.708  13.713  13.470
32309SOL    HW198824  14.787  13.750  13.430
32309SOL    HW298825  14.738  13.671  13.550
32310SOL     OW98826  14.023   8.182   0.061
32310SOL    HW198827  14.099   8.124   0.050
32310SOL    HW298828  13.977   8.147   0.138
32311SOL     OW98829   2.722   5.812  13.167
32311SOL    HW198830   2.737   5.889  13.221
32311SOL    HW298831   2.657   5.761  13.215
32312SOL     OW98832   3.137   5.227  13.440
32312SOL    HW198833   3.182   5.303  13.476
32312SOL    HW298834   3.171   5.152  13.489
32313SOL     OW98835   9.459   5.747  10.215
32313SOL    HW198836   9.490   5.663  10.181
32313SOL    HW298837   9.508   5.813  10.166
32314SOL     OW98838   0.027   3.701   1.595
32314SOL    HW198839   0.114   3.662   1.590
32314SOL    HW298840  14.848   3.627   1.615
32315SOL     OW98841  12.456   9.987   4.745
32315SOL    HW198842  12.550   9.971   4.747
32315SOL    HW298843  12.444  10.054   4.678
32316SOL     OW98844   1.010  14.291  14.575
32316SOL    HW198845   0.926  14.254  14.602
32316SOL    HW298846   0.994  14.325  14.487
32317SOL     OW98847  13.803   5.228   4.963
32317SOL    HW198848  13.799   5.269   4.877
32317SOL    HW298849  13.891   5.246   4.994
32318SOL     OW98850   1.664  11.135   8.384
32318SOL    HW198851   1.577  11.141   8.347
32318SOL    HW298852   1.682  11.041   8.389
32319SOL     OW98853   1.023   7.196   5.646
32319SOL    HW198854   1.109   7.202   5.605
32319SOL    HW298855   1.031   7.124   5.709
32320SOL     OW98856   4.532  10.582  12.980
32320SOL    HW198857   4.577  10.651  12.932
32320SOL    HW298858   4.602  10.529  13.018
32321SOL     OW98859   3.234   3.677  14.146
32321SOL    HW198860   3.191   3.681  14.061
32321SOL    HW298861   3.323   3.645  14.126
32322SOL     OW98862  13.488   8.051   4.393
32322SOL    HW198863  13.403   8.093   4.404
32322SOL    HW298864  13.485   7.975   4.452
32323SOL     OW98865  14.402   4.114   3.571
32323SOL    HW198866  14.312   4.138   3.548
32323SOL    HW298867  14.432   4.059   3.498
32324SOL     OW98868   2.407   8.023   1.649
32324SOL    HW198869   2.353   7.944   1.646
32324SOL    HW298870   2.381   8.067   1.730
32325SOL     OW98871  11.414   8.253   8.626
32325SOL    HW198872  11.379   8.165   8.613
32325SOL    HW298873  11.351   8.294   8.685
32326SOL     OW98874  13.828  13.523   8.730
32326SOL    HW198875  13.874  13.515   8.647
32326SOL    HW298876  13.737  13.501   8.710
32327SOL     OW98877  10.772   9.329   2.644
32327SOL    HW198878  10.680   9.350   2.664
32327SOL    HW298879  10.820   9.407   2.671
32328SOL     OW98880  14.122  10.107   8.522
32328SOL    HW198881  14.164  10.050   8.586
32328SOL    HW298882  14.161  10.193   8.537
32329SOL     OW98883   4.912  10.112  11.837
32329SOL    HW198884   4.848  10.071  11.895
32329SOL    HW298885   4.970  10.041  11.811
32330SOL     OW98886   7.724  12.086  10.194
32330SOL    HW198887   7.638  12.047  10.185
32330SOL    HW298888   7.708  12.180  10.196
32331SOL     OW98889   8.855   7.852   0.512
32331SOL    HW198890   8.903   7.777   0.548
32331SOL    HW298891   8.822   7.899   0.589
32332SOL     OW98892   0.428   9.215  13.190
32332SOL    HW198893   0.484   9.143  13.219
32332SOL    HW298894   0.342   9.196  13.228
32333SOL     OW98895   8.311  14.361   5.990
32333SOL    HW198896   8.256  14.364   6.069
32333SOL    HW298897   8.281  14.435   5.937
32334SOL     OW98898  14.219  12.708   1.086
32334SOL    HW198899  14.216  12.630   1.031
32334SOL    HW298900  14.310  12.714   1.114
32335SOL     OW98901   7.718   0.477  11.088
32335SOL    HW198902   7.722   0.395  11.038
32335SOL    HW298903   7.755   0.543  11.030
32336SOL     OW98904   1.772   3.055  13.727
32336SOL    HW198905   1.739   3.042  13.638
32336SOL    HW298906   1.861   3.086  13.716
32337SOL     OW98907  14.680   6.483   9.743
32337SOL    HW198908  14.643   6.528   9.667
32337SOL    HW298909  14.670   6.545   9.815
32338SOL     OW98910   7.258   1.296   1.756
32338SOL    HW198911   7.183   1.319   1.702
32338SOL    HW298912   7.325   1.268   1.695
32339SOL     OW98913  12.627   7.544   1.583
32339SOL    HW198914  12.557   7.535   1.519
32339SOL    HW298915  12.629   7.637   1.604
32340SOL     OW98916  10.313   2.610   6.978
32340SOL    HW198917  10.352   2.686   7.021
32340SOL    HW298918  10.386   2.553   6.957
32341SOL     OW98919   6.323  11.815   0.453
32341SOL    HW198920   6.253  11.763   0.494
32341SOL    HW298921   6.336  11.889   0.511
32342SOL     OW98922   8.073   8.920   6.135
32342SOL    HW198923   8.018   8.868   6.195
32342SOL    HW298924   8.063   9.010   6.166
32343SOL     OW98925   0.023  14.825   5.208
32343SOL    HW198926   0.094  14.762   5.204
32343SOL    HW298927  14.824  14.772   5.224
32344SOL     OW98928   7.796   8.205   8.513
32344SOL    HW198929   7.853   8.214   8.436
32344SOL    HW298930   7.782   8.111   8.522
32345SOL     OW98931   0.019   6.981   9.213
32345SOL    HW198932  14.858   7.055   9.167
32345SOL    HW298933   0.109   6.979   9.180
32346SOL     OW98934   0.522   1.815   6.102
32346SOL    HW198935   0.614   1.839   6.086
32346SOL    HW298936   0.507   1.840   6.193
32347SOL     OW98937  11.720   7.788  14.242
32347SOL    HW198938  11.745   7.822  14.156
32347SOL    HW298939  11.761   7.702  14.248
32348SOL     OW98940  12.774   3.432   1.719
32348SOL    HW198941  12.798   3.351   1.672
32348SOL    HW298942  12.709   3.474   1.662
32349SOL     OW98943   8.322   1.827   2.177
32349SOL    HW198944   8.240   1.796   2.215
32349SOL    HW298945   8.347   1.902   2.231
32350SOL     OW98946  11.033   0.797   4.414
32350SOL    HW198947  11.072   0.826   4.496
32350SOL    HW298948  11.080   0.847   4.347
32351SOL     OW98949  11.696  12.292   5.597
32351SOL    HW198950  11.630  12.362   5.600
32351SOL    HW298951  11.677  12.238   5.674
32352SOL     OW98952   5.311  11.519  13.620
32352SOL    HW198953   5.392  11.551  13.660
32352SOL    HW298954   5.265  11.475  13.692
32353SOL     OW98955   9.902   4.893  11.577
32353SOL    HW198956   9.935   4.982  11.588
32353SOL    HW298957   9.945   4.843  11.646
32354SOL     OW98958   9.738  10.035   0.033
32354SOL    HW198959   9.777  10.077   0.109
32354SOL    HW298960   9.811   9.991  14.869
32355SOL     OW98961   2.610   5.108  11.619
32355SOL    HW198962   2.594   5.088  11.712
32355SOL    HW298963   2.615   5.022  11.577
32356SOL     OW98964  13.112  10.523  14.283
32356SOL    HW198965  13.157  10.441  14.301
32356SOL    HW298966  13.046  10.501  14.217
32357SOL     OW98967   5.653   8.470   0.105
32357SOL    HW198968   5.606   8.471   0.022
32357SOL    HW298969   5.718   8.400   0.095
32358SOL     OW98970   4.961   7.371  11.761
32358SOL    HW198971   4.873   7.380  11.722
32358SOL    HW298972   4.968   7.279  11.783
32359SOL     OW98973  13.311   1.819   6.858
32359SOL    HW198974  13.263   1.833   6.940
32359SOL    HW298975  13.369   1.745   6.877
32360SOL     OW98976   2.222  12.733  14.678
32360SOL    HW198977   2.183  12.649  14.654
32360SOL    HW298978   2.218  12.735  14.774
32361SOL     OW98979   0.901   6.220  10.157
32361SOL    HW198980   0.914   6.276  10.080
32361SOL    HW298981   0.810   6.234  10.182
32362SOL     OW98982   4.960  11.271   5.287
32362SOL    HW198983   4.875  11.272   5.244
32362SOL    HW298984   4.946  11.319   5.368
32363SOL     OW98985  14.565  10.026   8.344
32363SOL    HW198986  14.474   9.994   8.346
32363SOL    HW298987  14.581  10.046   8.252
32364SOL     OW98988  13.458   3.025  12.312
32364SOL    HW198989  13.395   2.970  12.358
32364SOL    HW298990  13.457   2.993  12.222
32365SOL     OW98991  11.955  14.703   0.843
32365SOL    HW198992  12.012  14.634   0.810
32365SOL    HW298993  11.912  14.738   0.765
32366SOL     OW98994  13.976   4.250   6.385
32366SOL    HW198995  13.971   4.341   6.414
32366SOL    HW298996  13.987   4.255   6.290
32367SOL     OW98997  10.425   3.940  14.866
32367SOL    HW198998  10.463   3.853  14.878
32367SOL    HW298999  10.459   3.991   0.060
32368SOL     OW99000  10.123   3.716  13.044
32368SOL    HW199001  10.042   3.752  13.008
32368SOL    HW299002  10.172   3.792  13.075
32369SOL     OW99003   0.246  11.653   8.361
32369SOL    HW199004   0.162  11.619   8.392
32369SOL    HW299005   0.286  11.691   8.439
32370SOL     OW99006   5.267   8.629   0.230
32370SOL    HW199007   5.286   8.591   0.316
32370SOL    HW299008   5.209   8.566   0.188
32371SOL     OW99009   0.880   7.666   9.747
32371SOL    HW199010   0.875   7.570   9.747
32371SOL    HW299011   0.939   7.686   9.674
32372SOL     OW99012   0.105  12.645   0.606
32372SOL    HW199013   0.098  12.560   0.563
32372SOL    HW299014   0.020  12.657   0.648
32373SOL     OW99015   4.845   3.109   9.976
32373SOL    HW199016   4.765   3.133  10.023
32373SOL    HW299017   4.824   3.028   9.931
32374SOL     OW99018  13.368   8.039   3.847
32374SOL    HW199019  13.332   8.034   3.935
32374SOL    HW299020  13.317   8.107   3.803
32375SOL     OW99021  12.722   0.632   2.395
32375SOL    HW199022  12.764   0.627   2.480
32375SOL    HW299023  12.636   0.592   2.408
32376SOL     OW99024   5.579  10.235  14.439
32376SOL    HW199025   5.567  10.246  14.533
32376SOL    HW299026   5.509  10.287  14.400
32377SOL     OW99027  10.812   2.222   1.837
32377SOL    HW199028  10.873   2.189   1.771
32377SOL    HW299029  10.726   2.212   1.798
32378SOL     OW99030   2.809   1.466  10.877
32378SOL    HW199031   2.834   1.399  10.941
32378SOL    HW299032   2.880   1.530  10.880
32379SOL     OW99033   4.948   8.788  12.080
32379SOL    HW199034   5.030   8.824  12.047
32379SOL    HW299035   4.924   8.721  12.015
32380SOL     OW99036   7.156   5.954  12.932
32380SOL    HW199037   7.161   6.023  12.998
32380SOL    HW299038   7.210   5.986  12.860
32381SOL     OW99039   4.281   4.459   2.387
32381SOL    HW199040   4.342   4.532   2.373
32381SOL    HW299041   4.318   4.387   2.336
32382SOL     OW99042   7.575   1.898   8.423
32382SOL    HW199043   7.611   1.985   8.443
32382SOL    HW299044   7.530   1.910   8.339
32383SOL     OW99045  11.812   5.504   4.181
32383SOL    HW199046  11.842   5.414   4.167
32383SOL    HW299047  11.733   5.512   4.126
32384SOL     OW99048  14.320  14.177   3.500
32384SOL    HW199049  14.279  14.237   3.563
32384SOL    HW299050  14.411  14.206   3.495
32385SOL     OW99051   3.028  12.224   1.130
32385SOL    HW199052   2.963  12.171   1.177
32385SOL    HW299053   3.060  12.285   1.196
32386SOL     OW99054  11.777   6.876   4.734
32386SOL    HW199055  11.734   6.903   4.653
32386SOL    HW299056  11.791   6.782   4.723
32387SOL     OW99057   6.536  11.179   7.140
32387SOL    HW199058   6.609  11.155   7.197
32387SOL    HW299059   6.478  11.102   7.141
32388SOL     OW99060   5.223   1.461  13.683
32388SOL    HW199061   5.139   1.461  13.728
32388SOL    HW299062   5.278   1.519  13.735
32389SOL     OW99063   4.691  12.493   0.412
32389SOL    HW199064   4.653  12.511   0.326
32389SOL    HW299065   4.720  12.402   0.407
32390SOL     OW99066  10.976  11.949   6.125
32390SOL    HW199067  10.913  11.971   6.194
32390SOL    HW299068  10.961  12.015   6.057
32391SOL     OW99069   3.851   4.967   8.084
32391SOL    HW199070   3.925   4.966   8.024
32391SOL    HW299071   3.841   4.876   8.113
32392SOL     OW99072   4.671   4.305   3.945
32392SOL    HW199073   4.724   4.316   3.867
32392SOL    HW299074   4.615   4.382   3.948
32393SOL     OW99075   8.805  10.531  11.807
32393SOL    HW199076   8.865  10.565  11.741
32393SOL    HW299077   8.721  10.574  11.787
32394SOL     OW99078  10.963  11.793   6.569
32394SOL    HW199079  11.004  11.870   6.529
32394SOL    HW299080  10.879  11.825   6.600
32395SOL     OW99081  11.531   8.670   5.107
32395SOL    HW199082  11.550   8.759   5.078
32395SOL    HW299083  11.435   8.666   5.112
32396SOL     OW99084   2.265   8.520   2.615
32396SOL    HW199085   2.230   8.452   2.674
32396SOL    HW299086   2.344   8.551   2.660
32397SOL     OW99087   5.518   9.285   5.295
32397SOL    HW199088   5.431   9.326   5.303
32397SOL    HW299089   5.499   9.193   5.274
32398SOL     OW99090   1.521   9.751   5.504
32398SOL    HW199091   1.515   9.837   5.546
32398SOL    HW299092   1.490   9.690   5.571
32399SOL     OW99093   8.006   4.283   3.624
32399SOL    HW199094   7.972   4.280   3.535
32399SOL    HW299095   8.083   4.340   3.620
32400SOL     OW99096   9.263  10.043   2.188
32400SOL    HW199097   9.213   9.983   2.132
32400SOL    HW299098   9.258  10.004   2.275
32401SOL     OW99099   9.192   3.662  14.786
32401SOL    HW199100   9.255   3.711  14.733
32401SOL    HW299101   9.107   3.681  14.746
32402SOL     OW99102   3.118   4.856   5.716
32402SOL    HW199103   3.033   4.883   5.752
32402SOL    HW299104   3.177   4.928   5.737
32403SOL     OW99105  14.667   8.319   7.318
32403SOL    HW199106  14.737   8.268   7.278
32403SOL    HW299107  14.710   8.399   7.348
32404SOL     OW99108   6.068   7.149   2.004
32404SOL    HW199109   6.119   7.074   2.034
32404SOL    HW299110   6.114   7.180   1.926
32405SOL     OW99111   9.350   0.634   9.164
32405SOL    HW199112   9.374   0.549   9.199
32405SOL    HW299113   9.430   0.669   9.126
32406SOL     OW99114  13.268   7.007  13.534
32406SOL    HW199115  13.283   6.941  13.466
32406SOL    HW299116  13.353   7.019  13.575
32407SOL     OW99117  11.413   3.041   0.405
32407SOL    HW199118  11.486   3.055   0.465
32407SOL    HW299119  11.362   2.971   0.446
32408SOL     OW99120   6.152  12.342   1.361
32408SOL    HW199121   6.143  12.399   1.285
32408SOL    HW299122   6.243  12.352   1.389
32409SOL     OW99123   6.106  12.651   2.945
32409SOL    HW199124   6.127  12.563   2.912
32409SOL    HW299125   6.046  12.688   2.880
32410SOL     OW99126   5.751   3.453   0.316
32410SOL    HW199127   5.833   3.463   0.269
32410SOL    HW299128   5.776   3.424   0.404
32411SOL     OW99129   6.897   9.228   5.184
32411SOL    HW199130   6.882   9.274   5.102
32411SOL    HW299131   6.810   9.208   5.217
32412SOL     OW99132   2.975   0.784   2.158
32412SOL    HW199133   2.945   0.812   2.244
32412SOL    HW299134   3.066   0.758   2.171
32413SOL     OW99135   1.633  10.564   5.047
32413SOL    HW199136   1.579  10.564   4.968
32413SOL    HW299137   1.667  10.475   5.054
32414SOL     OW99138   1.772   5.668  10.283
32414SOL    HW199139   1.773   5.702  10.194
32414SOL    HW299140   1.685   5.692  10.316
32415SOL     OW99141   3.274   6.519  11.148
32415SOL    HW199142   3.230   6.434  11.148
32415SOL    HW299143   3.361   6.501  11.185
32416SOL     OW99144   8.351   6.583  14.836
32416SOL    HW199145   8.330   6.667  14.797
32416SOL    HW299146   8.425   6.601   0.014
32417SOL     OW99147   0.252   0.931   3.988
32417SOL    HW199148   0.307   1.007   4.006
32417SOL    HW299149   0.266   0.873   4.062
32418SOL     OW99150  10.637   3.161   4.122
32418SOL    HW199151  10.595   3.239   4.087
32418SOL    HW299152  10.679   3.119   4.047
32419SOL     OW99153   9.207   6.979   6.795
32419SOL    HW199154   9.189   7.072   6.784
32419SOL    HW299155   9.278   6.976   6.860
32420SOL     OW99156  11.252   3.417   5.672
32420SOL    HW199157  11.321   3.352   5.680
32420SOL    HW299158  11.292   3.488   5.621
32421SOL     OW99159  11.486   1.013  11.836
32421SOL    HW199160  11.532   1.026  11.753
32421SOL    HW299161  11.435   1.092  11.848
32422SOL     OW99162  14.220   7.873   3.606
32422SOL    HW199163  14.248   7.900   3.693
32422SOL    HW299164  14.239   7.948   3.550
32423SOL     OW99165  10.547   0.600   3.212
32423SOL    HW199166  10.453   0.614   3.202
32423SOL    HW299167  10.573   0.664   3.279
32424SOL     OW99168   4.179  12.392   8.878
32424SOL    HW199169   4.259  12.384   8.931
32424SOL    HW299170   4.130  12.311   8.896
32425SOL     OW99171   8.151   9.117   4.355
32425SOL    HW199172   8.104   9.073   4.285
32425SOL    HW299173   8.241   9.084   4.348
32426SOL     OW99174   9.524  12.565  12.042
32426SOL    HW199175   9.597  12.605  11.993
32426SOL    HW299176   9.537  12.470  12.029
32427SOL     OW99177   3.982   2.821   9.749
32427SOL    HW199178   3.919   2.809   9.678
32427SOL    HW299179   4.048   2.753   9.734
32428SOL     OW99180   8.313   4.034  13.352
32428SOL    HW199181   8.346   3.946  13.368
32428SOL    HW299182   8.387   4.081  13.313
32429SOL     OW99183   7.355   2.241   3.607
32429SOL    HW199184   7.370   2.177   3.538
32429SOL    HW299185   7.393   2.201   3.686
32430SOL     OW99186   2.642   8.997   0.084
32430SOL    HW199187   2.636   8.982   0.178
32430SOL    HW299188   2.696   9.076   0.076
32431SOL     OW99189   9.474   2.623   7.376
32431SOL    HW199190   9.451   2.639   7.468
32431SOL    HW299191   9.391   2.604   7.334
32432SOL     OW99192   1.173   1.828   0.785
32432SOL    HW199193   1.260   1.796   0.761
32432SOL    HW299194   1.132   1.754   0.831
32433SOL     OW99195  11.584   7.091   5.555
32433SOL    HW199196  11.605   7.181   5.531
32433SOL    HW299197  11.645   7.038   5.505
32434SOL     OW99198  13.212   3.941   8.409
32434SOL    HW199199  13.239   3.935   8.317
32434SOL    HW299200  13.293   3.950   8.458
32435SOL     OW99201   2.900  10.704   3.048
32435SOL    HW199202   2.892  10.657   2.965
32435SOL    HW299203   2.965  10.773   3.031
32436SOL     OW99204  10.885   7.212   9.246
32436SOL    HW199205  10.955   7.201   9.182
32436SOL    HW299206  10.876   7.126   9.287
32437SOL     OW99207   9.327  11.960   9.133
32437SOL    HW199208   9.263  11.933   9.068
32437SOL    HW299209   9.278  11.965   9.215
32438SOL     OW99210   9.387  10.716  10.541
32438SOL    HW199211   9.321  10.771  10.583
32438SOL    HW299212   9.369  10.726  10.447
32439SOL     OW99213   9.576  11.755  11.319
32439SOL    HW199214   9.510  11.737  11.385
32439SOL    HW299215   9.584  11.851  11.319
32440SOL     OW99216  14.484  10.258  12.919
32440SOL    HW199217  14.392  10.259  12.895
32440SOL    HW299218  14.497  10.173  12.961
32441SOL     OW99219   4.336   3.912  10.570
32441SOL    HW199220   4.329   3.998  10.528
32441SOL    HW299221   4.397   3.926  10.643
32442SOL     OW99222  14.871   1.247   8.667
32442SOL    HW199223   0.021   1.268   8.756
32442SOL    HW299224  14.792   1.300   8.656
32443SOL     OW99225  10.376   7.323  14.826
32443SOL    HW199226  10.386   7.338   0.041
32443SOL    HW299227  10.452   7.366  14.787
32444SOL     OW99228  13.638   1.900  12.909
32444SOL    HW199229  13.674   1.816  12.938
32444SOL    HW299230  13.544   1.885  12.902
32445SOL     OW99231  14.851   3.948   4.365
32445SOL    HW199232  14.817   3.867   4.329
32445SOL    HW299233  14.780   3.983   4.419
32446SOL     OW99234   4.910   5.474  11.028
32446SOL    HW199235   4.922   5.567  11.008
32446SOL    HW299236   4.993   5.434  11.002
32447SOL     OW99237  14.478   5.439   0.758
32447SOL    HW199238  14.389   5.407   0.773
32447SOL    HW299239  14.496   5.419   0.666
32448SOL     OW99240   2.378  10.158   0.476
32448SOL    HW199241   2.334  10.108   0.544
32448SOL    HW299242   2.378  10.248   0.508
32449SOL     OW99243   8.470   1.947   9.710
32449SOL    HW199244   8.518   2.028   9.696
32449SOL    HW299245   8.521   1.880   9.664
32450SOL     OW99246  10.228   4.161   3.363
32450SOL    HW199247  10.281   4.133   3.288
32450SOL    HW299248  10.137   4.150   3.334
32451SOL     OW99249   4.661   7.036   7.149
32451SOL    HW199250   4.677   6.942   7.135
32451SOL    HW299251   4.616   7.041   7.233
32452SOL     OW99252  10.662   9.077   9.809
32452SOL    HW199253  10.593   9.076   9.875
32452SOL    HW299254  10.728   9.016   9.843
32453SOL     OW99255   2.517   6.846  12.631
32453SOL    HW199256   2.562   6.790  12.568
32453SOL    HW299257   2.497   6.926  12.581
32454SOL     OW99258   5.626   6.909   3.767
32454SOL    HW199259   5.679   6.975   3.812
32454SOL    HW299260   5.683   6.872   3.700
32455SOL     OW99261  12.052  11.305   3.649
32455SOL    HW199262  12.074  11.214   3.633
32455SOL    HW299263  11.961  11.303   3.677
32456SOL     OW99264  14.454   9.433   8.913
32456SOL    HW199265  14.548   9.425   8.928
32456SOL    HW299266  14.446   9.482   8.831
32457SOL     OW99267   9.031   4.063   7.376
32457SOL    HW199268   9.037   4.140   7.432
32457SOL    HW299269   8.952   4.018   7.404
32458SOL     OW99270  10.750   6.355  13.554
32458SOL    HW199271  10.744   6.344  13.459
32458SOL    HW299272  10.768   6.267  13.586
32459SOL     OW99273   5.737   5.895   6.782
32459SOL    HW199274   5.709   5.946   6.706
32459SOL    HW299275   5.773   5.960   6.843
32460SOL     OW99276   3.861   0.118   0.712
32460SOL    HW199277   3.837   0.148   0.800
32460SOL    HW299278   3.780   0.080   0.677
32461SOL     OW99279  12.618   3.084   0.963
32461SOL    HW199280  12.692   3.134   0.929
32461SOL    HW299281  12.560   3.073   0.888
32462SOL     OW99282   6.786  13.895   3.693
32462SOL    HW199283   6.872  13.932   3.672
32462SOL    HW299284   6.801  13.801   3.699
32463SOL     OW99285  12.042  12.620  12.949
32463SOL    HW199286  12.129  12.606  12.987
32463SOL    HW299287  11.982  12.612  13.023
32464SOL     OW99288   0.670   4.726   8.789
32464SOL    HW199289   0.748   4.711   8.735
32464SOL    HW299290   0.703   4.723   8.879
32465SOL     OW99291   0.463  14.309  10.931
32465SOL    HW199292   0.473  14.306  10.836
32465SOL    HW299293   0.544  14.348  10.963
32466SOL     OW99294  14.427  11.510   5.428
32466SOL    HW199295  14.377  11.565   5.489
32466SOL    HW299296  14.376  11.429   5.422
32467SOL     OW99297   3.034   1.236  10.514
32467SOL    HW199298   2.965   1.302  10.526
32467SOL    HW299299   3.090   1.272  10.446
32468SOL     OW99300   4.208  14.061  12.128
32468SOL    HW199301   4.113  14.048  12.130
32468SOL    HW299302   4.237  14.038  12.217
32469SOL     OW99303   9.330  14.047   4.777
32469SOL    HW199304   9.408  14.001   4.805
32469SOL    HW299305   9.337  14.051   4.682
32470SOL     OW99306   9.950   3.262  12.772
32470SOL    HW199307   9.882   3.316  12.731
32470SOL    HW299308   9.980   3.204  12.703
32471SOL     OW99309   3.548   5.477   0.998
32471SOL    HW199310   3.555   5.552   1.057
32471SOL    HW299311   3.616   5.417   1.027
32472SOL     OW99312   4.800   7.004  14.776
32472SOL    HW199313   4.779   6.937  14.711
32472SOL    HW299314   4.820   6.953  14.855
32473SOL     OW99315   5.254   3.794  14.878
32473SOL    HW199316   5.322   3.840   0.047
32473SOL    HW299317   5.231   3.719   0.053
32474SOL     OW99318   6.430  11.008   8.507
32474SOL    HW199319   6.499  11.063   8.545
32474SOL    HW299320   6.383  11.066   8.448
32475SOL     OW99321  10.005   6.332   7.274
32475SOL    HW199322  10.072   6.348   7.341
32475SOL    HW299323   9.925   6.372   7.310
32476SOL     OW99324  14.566  11.418  13.436
32476SOL    HW199325  14.611  11.487  13.485
32476SOL    HW299326  14.635  11.378  13.383
32477SOL     OW99327  14.457  14.106   9.416
32477SOL    HW199328  14.424  14.167   9.482
32477SOL    HW299329  14.488  14.031   9.467
32478SOL     OW99330   3.965   9.265  13.092
32478SOL    HW199331   3.875   9.235  13.100
32478SOL    HW299332   3.977   9.326  13.165
32479SOL     OW99333   5.291   7.361   4.989
32479SOL    HW199334   5.282   7.361   4.894
32479SOL    HW299335   5.286   7.454   5.014
32480SOL     OW99336   5.479   1.774  14.132
32480SOL    HW199337   5.527   1.846  14.174
32480SOL    HW299338   5.401   1.816  14.096
32481SOL     OW99339   2.365   1.114   5.658
32481SOL    HW199340   2.350   1.022   5.637
32481SOL    HW299341   2.448   1.136   5.615
32482SOL     OW99342   0.110  12.353   8.023
32482SOL    HW199343   0.189  12.348   8.077
32482SOL    HW299344   0.096  12.447   8.011
32483SOL     OW99345   5.085   2.194   7.073
32483SOL    HW199346   5.150   2.157   7.012
32483SOL    HW299347   5.085   2.133   7.147
32484SOL     OW99348   4.306   1.363   1.766
32484SOL    HW199349   4.292   1.433   1.829
32484SOL    HW299350   4.319   1.285   1.819
32485SOL     OW99351   6.160  14.204   3.073
32485SOL    HW199352   6.227  14.254   3.119
32485SOL    HW299353   6.197  14.186   2.987
32486SOL     OW99354   7.541  13.133   8.358
32486SOL    HW199355   7.637  13.134   8.355
32486SOL    HW299356   7.514  13.175   8.277
32487SOL     OW99357  14.172  14.764   3.849
32487SOL    HW199358  14.085  14.726   3.862
32487SOL    HW299359  14.225  14.728   3.920
32488SOL     OW99360   3.479  14.490  12.807
32488SOL    HW199361   3.512  14.517  12.893
32488SOL    HW299362   3.558  14.471  12.757
32489SOL     OW99363   3.507  12.290   2.003
32489SOL    HW199364   3.429  12.238   2.025
32489SOL    HW299365   3.476  12.357   1.942
32490SOL     OW99366   4.206  11.070   8.102
32490SOL    HW199367   4.268  11.024   8.158
32490SOL    HW299368   4.244  11.064   8.014
32491SOL     OW99369   7.243   0.592   3.694
32491SOL    HW199370   7.183   0.626   3.627
32491SOL    HW299371   7.325   0.640   3.679
32492SOL     OW99372   0.580   6.465   6.762
32492SOL    HW199373   0.566   6.390   6.820
32492SOL    HW299374   0.674   6.484   6.768
32493SOL     OW99375  12.954   2.080   2.433
32493SOL    HW199376  12.938   2.034   2.350
32493SOL    HW299377  12.974   2.170   2.407
32494SOL     OW99378   3.931   3.459   5.980
32494SOL    HW199379   3.886   3.381   6.014
32494SOL    HW299380   3.860   3.518   5.953
32495SOL     OW99381   6.258   3.121   8.689
32495SOL    HW199382   6.256   3.065   8.611
32495SOL    HW299383   6.302   3.201   8.659
32496SOL     OW99384  13.741   9.772   5.300
32496SOL    HW199385  13.760   9.796   5.391
32496SOL    HW299386  13.715   9.680   5.305
32497SOL     OW99387  13.101  12.829  11.051
32497SOL    HW199388  13.105  12.762  11.119
32497SOL    HW299389  13.190  12.865  11.048
32498SOL     OW99390   4.479   0.849   3.203
32498SOL    HW199391   4.416   0.783   3.232
32498SOL    HW299392   4.556   0.798   3.176
32499SOL     OW99393  11.638   2.672   8.056
32499SOL    HW199394  11.726   2.711   8.056
32499SOL    HW299395  11.582   2.740   8.018
32500SOL     OW99396   3.625   0.129   4.462
32500SOL    HW199397   3.592   0.162   4.379
32500SOL    HW299398   3.556   0.148   4.525
32501SOL     OW99399   0.445   2.327  11.840
32501SOL    HW199400   0.412   2.351  11.754
32501SOL    HW299401   0.370   2.336  11.899
32502SOL     OW99402  14.734   5.967   9.346
32502SOL    HW199403  14.722   5.918   9.428
32502SOL    HW299404  14.672   6.040   9.352
32503SOL     OW99405   7.481   4.721  14.342
32503SOL    HW199406   7.574   4.699  14.346
32503SOL    HW299407   7.436   4.637  14.328
32504SOL     OW99408   9.918   1.316   9.999
32504SOL    HW199409   9.986   1.295  10.063
32504SOL    HW299410   9.929   1.250   9.930
32505SOL     OW99411   1.478   4.877   3.367
32505SOL    HW199412   1.416   4.892   3.438
32505SOL    HW299413   1.425   4.878   3.287
32506SOL     OW99414   3.852   2.643  11.993
32506SOL    HW199415   3.899   2.660  12.074
32506SOL    HW299416   3.857   2.548  11.981
32507SOL     OW99417  10.695   1.390   8.354
32507SOL    HW199418  10.638   1.332   8.304
32507SOL    HW299419  10.675   1.477   8.320
32508SOL     OW99420  12.977   5.035  10.087
32508SOL    HW199421  12.957   5.068   9.999
32508SOL    HW299422  12.899   5.056  10.139
32509SOL     OW99423   6.914   7.940  13.578
32509SOL    HW199424   6.850   8.000  13.540
32509SOL    HW299425   6.944   7.887  13.503
32510SOL     OW99426  12.972   8.268  13.743
32510SOL    HW199427  13.035   8.257  13.814
32510SOL    HW299428  13.000   8.348  13.699
32511SOL     OW99429   4.249   8.966  13.997
32511SOL    HW199430   4.156   8.977  13.979
32511SOL    HW299431   4.289   9.050  13.973
32512SOL     OW99432  10.582   8.222   7.691
32512SOL    HW199433  10.587   8.173   7.774
32512SOL    HW299434  10.630   8.303   7.708
32513SOL     OW99435   7.392   8.058   8.872
32513SOL    HW199436   7.372   7.966   8.860
32513SOL    HW299437   7.398   8.094   8.784
32514SOL     OW99438   2.648   6.740   7.585
32514SOL    HW199439   2.591   6.701   7.519
32514SOL    HW299440   2.664   6.670   7.648
32515SOL     OW99441   8.206   4.942  10.208
32515SOL    HW199442   8.212   4.867  10.148
32515SOL    HW299443   8.254   5.012  10.164
32516SOL     OW99444   3.862   4.264   8.868
32516SOL    HW199445   3.866   4.326   8.795
32516SOL    HW299446   3.908   4.308   8.940
32517SOL     OW99447   9.629   8.154   4.141
32517SOL    HW199448   9.638   8.059   4.139
32517SOL    HW299449   9.675   8.181   4.221
32518SOL     OW99450  12.178   8.940   2.740
32518SOL    HW199451  12.083   8.932   2.734
32518SOL    HW299452  12.201   8.901   2.824
32519SOL     OW99453   4.579   6.674   6.330
32519SOL    HW199454   4.656   6.618   6.317
32519SOL    HW299455   4.507   6.612   6.344
32520SOL     OW99456   3.362   0.042  11.286
32520SOL    HW199457   3.342   0.113  11.225
32520SOL    HW299458   3.322   0.069  11.368
32521SOL     OW99459   5.598   0.966   5.227
32521SOL    HW199460   5.514   0.985   5.186
32521SOL    HW299461   5.582   0.977   5.321
32522SOL     OW99462   7.179   8.550   1.849
32522SOL    HW199463   7.128   8.479   1.809
32522SOL    HW299464   7.131   8.572   1.929
32523SOL     OW99465   2.083   8.848   5.582
32523SOL    HW199466   2.178   8.838   5.591
32523SOL    HW299467   2.066   8.938   5.611
32524SOL     OW99468   8.954   3.251   3.897
32524SOL    HW199469   9.004   3.277   3.819
32524SOL    HW299470   8.958   3.328   3.954
32525SOL     OW99471  12.359   2.979  10.704
32525SOL    HW199472  12.397   2.897  10.736
32525SOL    HW299473  12.323   2.956  10.618
32526SOL     OW99474   3.429   4.575  14.545
32526SOL    HW199475   3.383   4.607  14.622
32526SOL    HW299476   3.507   4.532  14.580
32527SOL     OW99477   4.773   3.040   7.533
32527SOL    HW199478   4.702   3.078   7.481
32527SOL    HW299479   4.842   3.106   7.532
32528SOL     OW99480   1.180  10.051   5.913
32528SOL    HW199481   1.212   9.978   5.967
32528SOL    HW299482   1.185  10.127   5.971
32529SOL     OW99483   0.713   5.236   0.395
32529SOL    HW199484   0.643   5.170   0.392
32529SOL    HW299485   0.693   5.296   0.323
32530SOL     OW99486  12.111   6.643   5.322
32530SOL    HW199487  12.071   6.565   5.285
32530SOL    HW299488  12.164   6.679   5.251
32531SOL     OW99489   5.680  13.798  11.038
32531SOL    HW199490   5.747  13.774  10.974
32531SOL    HW299491   5.727  13.849  11.104
32532SOL     OW99492   1.405   8.919  11.318
32532SOL    HW199493   1.417   9.006  11.283
32532SOL    HW299494   1.392   8.932  11.412
32533SOL     OW99495   2.709   4.737  11.737
32533SOL    HW199496   2.697   4.812  11.795
32533SOL    HW299497   2.796   4.703  11.759
32534SOL     OW99498  14.761   9.338   7.593
32534SOL    HW199499  14.722   9.357   7.508
32534SOL    HW299500  14.751   9.420   7.642
32535SOL     OW99501  11.631   8.598   7.330
32535SOL    HW199502  11.656   8.609   7.238
32535SOL    HW299503  11.574   8.673   7.349
32536SOL     OW99504   4.635   4.870   5.202
32536SOL    HW199505   4.678   4.789   5.174
32536SOL    HW299506   4.676   4.938   5.147
32537SOL     OW99507  12.537   0.266  13.485
32537SOL    HW199508  12.547   0.340  13.424
32537SOL    HW299509  12.528   0.190  13.428
32538SOL     OW99510   3.049   8.479   7.679
32538SOL    HW199511   2.974   8.509   7.629
32538SOL    HW299512   3.045   8.528   7.761
32539SOL     OW99513   8.941   9.043  11.493
32539SOL    HW199514   9.003   8.972  11.482
32539SOL    HW299515   8.910   9.062  11.405
32540SOL     OW99516   1.092  10.467   6.496
32540SOL    HW199517   1.070  10.396   6.436
32540SOL    HW299518   1.116  10.540   6.439
32541SOL     OW99519  14.466  14.423  12.865
32541SOL    HW199520  14.555  14.410  12.896
32541SOL    HW299521  14.425  14.337  12.873
32542SOL     OW99522   3.694   0.796   3.839
32542SOL    HW199523   3.699   0.717   3.786
32542SOL    HW299524   3.675   0.765   3.928
32543SOL     OW99525   9.948  13.131   4.033
32543SOL    HW199526   9.875  13.150   4.092
32543SOL    HW299527  10.021  13.110   4.091
32544SOL     OW99528   0.182  10.947  11.530
32544SOL    HW199529   0.126  10.974  11.457
32544SOL    HW299530   0.269  10.938  11.492
32545SOL     OW99531  14.091  14.401   3.000
32545SOL    HW199532  14.168  14.356   2.965
32545SOL    HW299533  14.037  14.419   2.923
32546SOL     OW99534   3.672   5.677  14.091
32546SOL    HW199535   3.689   5.636  14.176
32546SOL    HW299536   3.619   5.755  14.111
32547SOL     OW99537  11.949  13.559   4.546
32547SOL    HW199538  11.935  13.639   4.597
32547SOL    HW299539  11.955  13.589   4.455
32548SOL     OW99540  10.602  12.792   0.674
32548SOL    HW199541  10.515  12.827   0.694
32548SOL    HW299542  10.656  12.819   0.749
32549SOL     OW99543   9.842   0.437  10.616
32549SOL    HW199544   9.884   0.407  10.696
32549SOL    HW299545   9.821   0.529  10.634
32550SOL     OW99546   0.825   5.780  12.897
32550SOL    HW199547   0.775   5.763  12.817
32550SOL    HW299548   0.916   5.765  12.871
32551SOL     OW99549  10.597  12.314   5.417
32551SOL    HW199550  10.584  12.224   5.388
32551SOL    HW299551  10.566  12.315   5.507
32552SOL     OW99552   2.596   3.446   7.024
32552SOL    HW199553   2.652   3.381   7.066
32552SOL    HW299554   2.508   3.427   7.057
32553SOL     OW99555  14.531   0.769  13.776
32553SOL    HW199556  14.626   0.773  13.765
32553SOL    HW299557  14.512   0.831  13.847
32554SOL     OW99558   2.539   6.225  13.759
32554SOL    HW199559   2.529   6.222  13.854
32554SOL    HW299560   2.474   6.163  13.726
32555SOL     OW99561  12.402   1.943   2.437
32555SOL    HW199562  12.426   1.965   2.347
32555SOL    HW299563  12.310   1.968   2.445
32556SOL     OW99564   6.850  11.802  13.424
32556SOL    HW199565   6.775  11.750  13.454
32556SOL    HW299566   6.824  11.834  13.338
32557SOL     OW99567  11.597   5.851  12.882
32557SOL    HW199568  11.649   5.877  12.958
32557SOL    HW299569  11.524   5.802  12.920
32558SOL     OW99570   5.871  11.594   0.943
32558SOL    HW199571   5.835  11.677   0.972
32558SOL    HW299572   5.908  11.554   1.022
32559SOL     OW99573   8.949  12.352   4.750
32559SOL    HW199574   9.001  12.324   4.825
32559SOL    HW299575   8.955  12.448   4.752
32560SOL     OW99576   7.906  12.474   3.373
32560SOL    HW199577   7.816  12.455   3.345
32560SOL    HW299578   7.950  12.389   3.366
32561SOL     OW99579   4.011   8.925   6.793
32561SOL    HW199580   4.021   9.020   6.793
32561SOL    HW299581   3.944   8.907   6.727
32562SOL     OW99582  11.170   9.296   3.670
32562SOL    HW199583  11.261   9.298   3.639
32562SOL    HW299584  11.177   9.266   3.761
32563SOL     OW99585   7.228  11.291  12.875
32563SOL    HW199586   7.229  11.197  12.857
32563SOL    HW299587   7.180  11.300  12.957
32564SOL     OW99588  13.178   7.269   5.956
32564SOL    HW199589  13.208   7.181   5.937
32564SOL    HW299590  13.153   7.267   6.048
32565SOL     OW99591   5.702   6.098   7.357
32565SOL    HW199592   5.671   6.110   7.267
32565SOL    HW299593   5.789   6.137   7.358
32566SOL     OW99594   0.739   3.369   0.549
32566SOL    HW199595   0.814   3.309   0.555
32566SOL    HW299596   0.664   3.313   0.529
32567SOL     OW99597   0.574   8.046   0.324
32567SOL    HW199598   0.653   8.008   0.286
32567SOL    HW299599   0.553   7.989   0.398
32568SOL     OW99600   1.934  14.427   4.955
32568SOL    HW199601   2.014  14.374   4.962
32568SOL    HW299602   1.958  14.511   4.995
32569SOL     OW99603  10.928  11.938  12.158
32569SOL    HW199604  10.885  11.886  12.225
32569SOL    HW299605  10.886  12.024  12.164
32570SOL     OW99606  13.853   6.539   5.971
32570SOL    HW199607  13.853   6.628   6.007
32570SOL    HW299608  13.945   6.514   5.971
32571SOL     OW99609   3.010   5.199  13.926
32571SOL    HW199610   3.077   5.180  13.860
32571SOL    HW299611   3.054   5.260  13.986
32572SOL     OW99612  13.610  11.246   8.790
32572SOL    HW199613  13.634  11.328   8.746
32572SOL    HW299614  13.630  11.262   8.882
32573SOL     OW99615   8.477   8.993   3.882
32573SOL    HW199616   8.426   8.946   3.948
32573SOL    HW299617   8.421   8.991   3.804
32574SOL     OW99618   3.423   7.310   5.061
32574SOL    HW199619   3.443   7.235   5.005
32574SOL    HW299620   3.450   7.283   5.149
32575SOL     OW99621   3.686   5.421  10.879
32575SOL    HW199622   3.725   5.506  10.899
32575SOL    HW299623   3.741   5.358  10.925
32576SOL     OW99624  14.080   0.141   6.778
32576SOL    HW199625  14.135   0.078   6.731
32576SOL    HW299626  14.005   0.154   6.721
32577SOL     OW99627   2.282   5.817  14.581
32577SOL    HW199628   2.313   5.806  14.491
32577SOL    HW299629   2.345   5.770  14.635
32578SOL     OW99630  14.363   0.675  13.406
32578SOL    HW199631  14.303   0.716  13.345
32578SOL    HW299632  14.329   0.697  13.493
32579SOL     OW99633  14.196   5.203   9.864
32579SOL    HW199634  14.288   5.184   9.848
32579SOL    HW299635  14.196   5.271   9.931
32580SOL     OW99636   2.599  11.278   2.335
32580SOL    HW199637   2.650  11.342   2.287
32580SOL    HW299638   2.660  11.239   2.398
32581SOL     OW99639   9.735   3.449  10.892
32581SOL    HW199640   9.818   3.419  10.929
32581SOL    HW299641   9.740   3.426  10.799
32582SOL     OW99642  14.102   8.592   5.941
32582SOL    HW199643  14.036   8.622   6.004
32582SOL    HW299644  14.069   8.507   5.912
32583SOL     OW99645   9.823   6.428   2.087
32583SOL    HW199646   9.867   6.493   2.141
32583SOL    HW299647   9.730   6.449   2.095
32584SOL     OW99648   0.916   1.371  14.675
32584SOL    HW199649   0.878   1.406  14.756
32584SOL    HW299650   0.970   1.442  14.641
32585SOL     OW99651   1.619   2.045   7.878
32585SOL    HW199652   1.678   1.996   7.822
32585SOL    HW299653   1.532   2.012   7.855
32586SOL     OW99654   3.658  11.761  11.713
32586SOL    HW199655   3.698  11.824  11.773
32586SOL    HW299656   3.729  11.737  11.653
32587SOL     OW99657  10.149   3.856   3.154
32587SOL    HW199658  10.196   3.841   3.236
32587SOL    HW299659  10.183   3.789   3.094
32588SOL     OW99660  12.748   6.250   4.679
32588SOL    HW199661  12.826   6.195   4.671
32588SOL    HW299662  12.705   6.219   4.759
32589SOL     OW99663  12.685   4.488  13.592
32589SOL    HW199664  12.694   4.444  13.508
32589SOL    HW299665  12.748   4.444  13.649
32590SOL     OW99666   1.910   6.079   3.109
32590SOL    HW199667   1.900   5.985   3.098
32590SOL    HW299668   2.002   6.096   3.089
32591SOL     OW99669  12.936   3.881  10.074
32591SOL    HW199670  12.903   3.791  10.076
32591SOL    HW299671  12.929   3.910  10.165
32592SOL     OW99672   4.839   6.766   6.969
32592SOL    HW199673   4.828   6.791   6.878
32592SOL    HW299674   4.784   6.689   6.981
32593SOL     OW99675  13.979   4.073   3.732
32593SOL    HW199676  13.922   4.111   3.799
32593SOL    HW299677  14.061   4.055   3.778
32594SOL     OW99678   2.394   5.089   2.417
32594SOL    HW199679   2.462   5.022   2.431
32594SOL    HW299680   2.433   5.170   2.450
32595SOL     OW99681   6.114   1.990  10.580
32595SOL    HW199682   6.146   1.900  10.572
32595SOL    HW299683   6.186   2.038  10.620
32596SOL     OW99684  12.728   4.493   7.103
32596SOL    HW199685  12.709   4.572   7.154
32596SOL    HW299686  12.655   4.484   7.043
32597SOL     OW99687   6.416   8.341   3.206
32597SOL    HW199688   6.419   8.272   3.272
32597SOL    HW299689   6.391   8.297   3.125
32598SOL     OW99690   8.427   8.532  14.766
32598SOL    HW199691   8.514   8.498  14.746
32598SOL    HW299692   8.370   8.490  14.701
32599SOL     OW99693   9.773  10.290   5.262
32599SOL    HW199694   9.850  10.234   5.249
32599SOL    HW299695   9.793  10.340   5.341
32600SOL     OW99696  11.395   1.027  10.123
32600SOL    HW199697  11.320   1.005  10.180
32600SOL    HW299698  11.399   0.955  10.060
32601SOL     OW99699   2.676  12.183  10.954
32601SOL    HW199700   2.592  12.229  10.957
32601SOL    HW299701   2.653  12.091  10.959
32602SOL     OW99702   5.860   6.748  10.243
32602SOL    HW199703   5.793   6.809  10.274
32602SOL    HW299704   5.924   6.744  10.314
32603SOL     OW99705   5.465   3.277  12.427
32603SOL    HW199706   5.537   3.275  12.490
32603SOL    HW299707   5.386   3.270  12.480
32604SOL     OW99708   6.136   3.425  14.677
32604SOL    HW199709   6.133   3.374  14.596
32604SOL    HW299710   6.044   3.434  14.702
32605SOL     OW99711   4.608   7.523  10.157
32605SOL    HW199712   4.516   7.531  10.134
32605SOL    HW299713   4.608   7.507  10.252
32606SOL     OW99714  10.136   8.603   3.379
32606SOL    HW199715  10.117   8.686   3.422
32606SOL    HW299716  10.066   8.545   3.409
32607SOL     OW99717   9.991  14.490   0.203
32607SOL    HW199718  10.001  14.571   0.152
32607SOL    HW299719  10.012  14.420   0.141
32608SOL     OW99720   1.881   1.558   7.193
32608SOL    HW199721   1.966   1.573   7.234
32608SOL    HW299722   1.840   1.645   7.189
32609SOL     OW99723   8.213   0.684   3.578
32609SOL    HW199724   8.145   0.651   3.519
32609SOL    HW299725   8.265   0.743   3.523
32610SOL     OW99726   7.780   4.073   6.999
32610SOL    HW199727   7.855   4.059   6.940
32610SOL    HW299728   7.819   4.080   7.086
32611SOL     OW99729   5.403   8.134   1.319
32611SOL    HW199730   5.491   8.128   1.282
32611SOL    HW299731   5.408   8.205   1.383
32612SOL     OW99732   2.942   3.905  13.117
32612SOL    HW199733   3.016   3.952  13.157
32612SOL    HW299734   2.932   3.946  13.031
32613SOL     OW99735   6.177  10.771  10.036
32613SOL    HW199736   6.211  10.735   9.955
32613SOL    HW299737   6.082  10.774  10.023
32614SOL     OW99738   5.614   8.433   7.197
32614SOL    HW199739   5.679   8.380   7.241
32614SOL    HW299740   5.634   8.523   7.223
32615SOL     OW99741   5.241   1.476   9.618
32615SOL    HW199742   5.193   1.474   9.535
32615SOL    HW299743   5.328   1.508   9.594
32616SOL     OW99744  12.733   8.812   0.767
32616SOL    HW199745  12.734   8.869   0.844
32616SOL    HW299746  12.709   8.726   0.801
32617SOL     OW99747   1.620   4.641   3.127
32617SOL    HW199748   1.680   4.566   3.127
32617SOL    HW299749   1.672   4.713   3.163
32618SOL     OW99750   2.902   7.473   1.368
32618SOL    HW199751   2.899   7.423   1.286
32618SOL    HW299752   2.995   7.480   1.389
32619SOL     OW99753   4.842  11.940  10.526
32619SOL    HW199754   4.916  11.897  10.483
32619SOL    HW299755   4.773  11.874  10.524
32620SOL     OW99756   4.320   9.172   4.841
32620SOL    HW199757   4.393   9.110   4.837
32620SOL    HW299758   4.246   9.124   4.803
32621SOL     OW99759  10.438   6.398  10.208
32621SOL    HW199760  10.481   6.473  10.250
32621SOL    HW299761  10.499   6.326  10.222
32622SOL     OW99762  13.989   7.856   7.361
32622SOL    HW199763  14.024   7.895   7.441
32622SOL    HW299764  13.896   7.845   7.379
32623SOL     OW99765  11.482   3.486   3.730
32623SOL    HW199766  11.452   3.459   3.644
32623SOL    HW299767  11.402   3.496   3.782
32624SOL     OW99768  12.633  14.868   3.061
32624SOL    HW199769  12.705  14.823   3.105
32624SOL    HW299770  12.660   0.080   3.058
32625SOL     OW99771  11.716  11.331   7.544
32625SOL    HW199772  11.773  11.278   7.488
32625SOL    HW299773  11.754  11.324   7.631
32626SOL     OW99774   4.677   9.228  13.265
32626SOL    HW199775   4.651   9.274  13.345
32626SOL    HW299776   4.604   9.242  13.205
32627SOL     OW99777   2.463   7.218   0.517
32627SOL    HW199778   2.382   7.229   0.566
32627SOL    HW299779   2.525   7.185   0.582
32628SOL     OW99780   6.798   8.282  13.661
32628SOL    HW199781   6.886   8.247  13.667
32628SOL    HW299782   6.794   8.321  13.573
32629SOL     OW99783   8.418   3.759   0.537
32629SOL    HW199784   8.331   3.790   0.563
32629SOL    HW299785   8.458   3.730   0.619
32630SOL     OW99786  13.088   9.307  12.926
32630SOL    HW199787  13.047   9.226  12.955
32630SOL    HW299788  13.030   9.376  12.958
32631SOL     OW99789   7.720   4.645   6.230
32631SOL    HW199790   7.724   4.609   6.142
32631SOL    HW299791   7.628   4.670   6.241
32632SOL     OW99792  10.357  10.815  10.727
32632SOL    HW199793  10.307  10.775  10.656
32632SOL    HW299794  10.328  10.769  10.806
32633SOL     OW99795   2.768  12.814  12.513
32633SOL    HW199796   2.690  12.866  12.495
32633SOL    HW299797   2.739  12.747  12.575
32634SOL     OW99798   2.488  12.338   8.157
32634SOL    HW199799   2.531  12.346   8.243
32634SOL    HW299800   2.445  12.422   8.143
32635SOL     OW99801  11.249  14.781  13.278
32635SOL    HW199802  11.274  14.818  13.194
32635SOL    HW299803  11.157  14.805  13.288
32636SOL     OW99804   0.318   3.210   8.075
32636SOL    HW199805   0.249   3.268   8.042
32636SOL    HW299806   0.379   3.201   8.002
32637SOL     OW99807  10.040   2.132   0.005
32637SOL    HW199808   9.967   2.073   0.021
32637SOL    HW299809  10.009   2.219   0.031
32638SOL     OW99810   3.249   1.048  12.574
32638SOL    HW199811   3.298   1.091  12.504
32638SOL    HW299812   3.218   0.966  12.535
32639SOL     OW99813   3.181   6.395   7.177
32639SOL    HW199814   3.229   6.421   7.099
32639SOL    HW299815   3.189   6.300   7.180
32640SOL     OW99816   6.195   7.172  14.855
32640SOL    HW199817   6.287   7.170   0.003
32640SOL    HW299818   6.194   7.230  14.779
32641SOL     OW99819   1.009  14.817   8.081
32641SOL    HW199820   1.102  14.799   8.093
32641SOL    HW299821   0.993   0.016   8.133
32642SOL     OW99822  12.629   4.209   0.296
32642SOL    HW199823  12.534   4.213   0.303
32642SOL    HW299824  12.646   4.139   0.233
32643SOL     OW99825   5.432   8.069  10.205
32643SOL    HW199826   5.503   8.023  10.160
32643SOL    HW299827   5.478   8.129  10.264
32644SOL     OW99828  12.713   5.630  11.694
32644SOL    HW199829  12.730   5.609  11.603
32644SOL    HW299830  12.624   5.666  11.694
32645SOL     OW99831   3.989   3.844   3.409
32645SOL    HW199832   3.953   3.918   3.359
32645SOL    HW299833   4.072   3.876   3.443
32646SOL     OW99834   7.784   5.661  13.146
32646SOL    HW199835   7.723   5.611  13.091
32646SOL    HW299836   7.863   5.669  13.093
32647SOL     OW99837   4.130   8.420   7.753
32647SOL    HW199838   4.126   8.338   7.704
32647SOL    HW299839   4.078   8.404   7.832
32648SOL     OW99840   8.525   1.402   4.622
32648SOL    HW199841   8.566   1.330   4.574
32648SOL    HW299842   8.465   1.359   4.683
32649SOL     OW99843   7.966   9.300  10.957
32649SOL    HW199844   7.987   9.351  11.036
32649SOL    HW299845   8.046   9.306  10.904
32650SOL     OW99846   4.419   3.561   9.534
32650SOL    HW199847   4.376   3.584   9.617
32650SOL    HW299848   4.428   3.466   9.537
32651SOL     OW99849  13.555   8.115   8.119
32651SOL    HW199850  13.525   8.135   8.208
32651SOL    HW299851  13.623   8.048   8.131
32652SOL     OW99852   5.300   4.328  14.602
32652SOL    HW199853   5.367   4.360  14.541
32652SOL    HW299854   5.219   4.329  14.551
32653SOL     OW99855  14.225   2.440  11.383
32653SOL    HW199856  14.208   2.476  11.470
32653SOL    HW299857  14.203   2.347  11.390
32654SOL     OW99858   6.186   2.062   5.467
32654SOL    HW199859   6.106   2.015   5.487
32654SOL    HW299860   6.216   2.096   5.552
32655SOL     OW99861   7.368  11.110  14.109
32655SOL    HW199862   7.320  11.038  14.151
32655SOL    HW299863   7.326  11.119  14.024
32656SOL     OW99864   7.401   7.676   8.571
32656SOL    HW199865   7.439   7.713   8.651
32656SOL    HW299866   7.452   7.597   8.555
32657SOL     OW99867  10.659   7.664  10.828
32657SOL    HW199868  10.571   7.691  10.801
32657SOL    HW299869  10.709   7.664  10.746
32658SOL     OW99870   5.566  14.358   0.751
32658SOL    HW199871   5.588  14.273   0.790
32658SOL    HW299872   5.648  14.408   0.755
32659SOL     OW99873   6.586   0.519  13.449
32659SOL    HW199874   6.604   0.450  13.513
32659SOL    HW299875   6.587   0.475  13.364
32660SOL     OW99876   1.439   6.301   8.112
32660SOL    HW199877   1.392   6.238   8.058
32660SOL    HW299878   1.475   6.249   8.184
32661SOL     OW99879   4.852   0.763   0.519
32661SOL    HW199880   4.941   0.791   0.541
32661SOL    HW299881   4.853   0.752   0.424
32662SOL     OW99882  13.667   2.371  11.319
32662SOL    HW199883  13.755   2.397  11.290
32662SOL    HW299884  13.626   2.454  11.345
32663SOL     OW99885  13.998   1.998   2.957
32663SOL    HW199886  13.928   2.027   2.899
32663SOL    HW299887  13.959   2.005   3.045
32664SOL     OW99888  14.235   1.305   4.688
32664SOL    HW199889  14.173   1.357   4.739
32664SOL    HW299890  14.256   1.231   4.745
32665SOL     OW99891  10.788   8.885  11.104
32665SOL    HW199892  10.869   8.839  11.081
32665SOL    HW299893  10.725   8.856  11.038
32666SOL     OW99894   8.262  10.051   8.011
32666SOL    HW199895   8.227   9.962   8.006
32666SOL    HW299896   8.195  10.106   7.970
32667SOL     OW99897  11.137  11.349  12.602
32667SOL    HW199898  11.091  11.430  12.625
32667SOL    HW299899  11.101  11.283  12.661
32668SOL     OW99900   9.596   7.189  12.478
32668SOL    HW199901   9.620   7.191  12.570
32668SOL    HW299902   9.676   7.161  12.433
32669SOL     OW99903   0.238  14.233   6.813
32669SOL    HW199904   0.313  14.201   6.863
32669SOL    HW299905   0.251  14.197   6.725
32670SOL     OW99906   4.156  13.496   8.256
32670SOL    HW199907   4.143  13.404   8.277
32670SOL    HW299908   4.240  13.518   8.296
32671SOL     OW99909   8.433   7.010   8.598
32671SOL    HW199910   8.369   7.012   8.527
32671SOL    HW299911   8.507   6.960   8.563
32672SOL     OW99912   5.880  10.218   8.912
32672SOL    HW199913   5.800  10.174   8.940
32672SOL    HW299914   5.864  10.311   8.927
32673SOL     OW99915   6.638   6.614  12.901
32673SOL    HW199916   6.567   6.625  12.837
32673SOL    HW299917   6.657   6.520  12.899
32674SOL     OW99918   8.991  14.727   3.316
32674SOL    HW199919   9.062  14.763   3.370
32674SOL    HW299920   8.953  14.658   3.370
32675SOL     OW99921   5.173   6.017  12.610
32675SOL    HW199922   5.158   6.101  12.653
32675SOL    HW299923   5.125   5.954  12.664
32676SOL     OW99924   2.900   8.307  13.011
32676SOL    HW199925   2.829   8.264  13.058
32676SOL    HW299926   2.865   8.394  12.989
32677SOL     OW99927  14.029   5.264   5.422
32677SOL    HW199928  13.993   5.177   5.403
32677SOL    HW299929  13.968   5.324   5.380
32678SOL     OW99930   0.382  12.186   1.269
32678SOL    HW199931   0.413  12.258   1.324
32678SOL    HW299932   0.329  12.133   1.329
32679SOL     OW99933   5.432   5.160  10.336
32679SOL    HW199934   5.447   5.158  10.430
32679SOL    HW299935   5.517   5.137  10.298
32680SOL     OW99936   7.405   6.210   2.944
32680SOL    HW199937   7.354   6.217   3.025
32680SOL    HW299938   7.390   6.293   2.899
32681SOL     OW99939   6.279   1.892  12.871
32681SOL    HW199940   6.217   1.945  12.920
32681SOL    HW299941   6.359   1.893  12.924
32682SOL     OW99942   4.734   4.513   3.499
32682SOL    HW199943   4.733   4.498   3.404
32682SOL    HW299944   4.656   4.565   3.516
32683SOL     OW99945  11.909   0.048  13.749
32683SOL    HW199946  11.926   0.088  13.664
32683SOL    HW299947  11.814   0.056  13.762
32684SOL     OW99948  14.452  13.717   5.611
32684SOL    HW199949  14.522  13.670   5.566
32684SOL    HW299950  14.434  13.793   5.555
32685SOL     OW99951   1.501  10.502   4.524
32685SOL    HW199952   1.556  10.460   4.458
32685SOL    HW299953   1.475  10.585   4.484
32686SOL     OW99954   2.874   3.650   2.943
32686SOL    HW199955   2.916   3.577   2.898
32686SOL    HW299956   2.936   3.675   3.012
32687SOL     OW99957   7.656  12.072   3.738
32687SOL    HW199958   7.737  12.110   3.774
32687SOL    HW299959   7.678  12.053   3.647
32688SOL     OW99960   7.328  11.808   8.410
32688SOL    HW199961   7.422  11.821   8.401
32688SOL    HW299962   7.308  11.735   8.351
32689SOL     OW99963   4.824   6.891   8.355
32689SOL    HW199964   4.863   6.976   8.332
32689SOL    HW299965   4.871   6.828   8.301
32690SOL     OW99966   0.100   3.340   7.934
32690SOL    HW199967   0.012   3.320   7.966
32690SOL    HW299968   0.105   3.435   7.933
32691SOL     OW99969  13.018   2.021  10.584
32691SOL    HW199970  12.960   2.052  10.514
32691SOL    HW299971  12.975   2.050  10.665
32692SOL     OW99972   3.965   4.779   6.236
32692SOL    HW199973   3.885   4.823   6.209
32692SOL    HW299974   4.010   4.844   6.291
32693SOL     OW99975  14.023   1.134   5.003
32693SOL    HW199976  14.090   1.092   4.950
32693SOL    HW299977  14.033   1.097   5.091
32694SOL     OW99978  14.099   2.916   5.046
32694SOL    HW199979  14.009   2.946   5.060
32694SOL    HW299980  14.143   2.934   5.128
32695SOL     OW99981   1.943   5.480  10.419
32695SOL    HW199982   2.031   5.518  10.428
32695SOL    HW299983   1.899   5.537  10.356
32696SOL     OW99984   2.846   6.216  12.271
32696SOL    HW199985   2.785   6.160  12.319
32696SOL    HW299986   2.871   6.164  12.195
32697SOL     OW99987   3.696  13.221  13.383
32697SOL    HW199988   3.624  13.237  13.322
32697SOL    HW299989   3.663  13.251  13.468
32698SOL     OW99990   0.883   5.885   7.437
32698SOL    HW199991   0.839   5.893   7.352
32698SOL    HW299992   0.821   5.836   7.491
32699SOL     OW99993   9.202   6.700   5.438
32699SOL    HW199994   9.218   6.792   5.458
32699SOL    HW299995   9.284   6.656   5.460
32700SOL     OW99996  12.768  13.134   9.196
32700SOL    HW199997  12.853  13.167   9.224
32700SOL    HW299998  12.716  13.130   9.276
32701SOL     OW99999  10.571   2.709   5.747
32701SOL    HW1    0  10.518   2.632   5.726
32701SOL    HW2    1  10.658   2.687   5.714
32702SOL     OW    2   4.442   3.488   1.006
32702SOL    HW1    3   4.445   3.564   0.947
32702SOL    HW2    4   4.416   3.524   1.090
32703SOL     OW    5   2.450   2.953   9.346
32703SOL    HW1    6   2.534   2.960   9.301
32703SOL    HW2    7   2.455   2.871   9.395
32704SOL     OW    8   2.402   0.805  12.201
32704SOL    HW1    9   2.490   0.831  12.228
32704SOL    HW2   10   2.347   0.822  12.277
32705SOL     OW   11   8.243   0.257  10.471
32705SOL    HW1   12   8.206   0.238  10.385
32705SOL    HW2   13   8.183   0.215  10.533
32706SOL     OW   14   1.918   5.295  12.996
32706SOL    HW1   15   1.904   5.245  13.077
32706SOL    HW2   16   2.009   5.276  12.972
32707SOL     OW   17  10.950  11.103   1.661
32707SOL    HW1   18  10.901  11.147   1.592
32707SOL    HW2   19  11.041  11.132   1.648
32708SOL     OW   20  13.135  14.840   8.999
32708SOL    HW1   21  13.182   0.029   8.952
32708SOL    HW2   22  13.199  14.808   9.063
32709SOL     OW   23   0.476  12.422   4.968
32709SOL    HW1   24   0.521  12.483   4.910
32709SOL    HW2   25   0.424  12.479   5.026
32710SOL     OW   26   9.304   9.388   1.606
32710SOL    HW1   27   9.278   9.371   1.697
32710SOL    HW2   28   9.296   9.483   1.596
32711SOL     OW   29   0.341   8.630   2.706
32711SOL    HW1   30   0.328   8.635   2.801
32711SOL    HW2   31   0.270   8.683   2.669
32712SOL     OW   32   0.918   7.067   8.384
32712SOL    HW1   33   0.911   7.106   8.471
32712SOL    HW2   34   1.005   7.026   8.383
32713SOL     OW   35   9.889   9.658  12.464
32713SOL    HW1   36   9.796   9.662  12.484
32713SOL    HW2   37   9.906   9.565  12.444
32714SOL     OW   38   0.438  13.228  12.986
32714SOL    HW1   39   0.393  13.168  13.046
32714SOL    HW2   40   0.504  13.174  12.943
32715SOL     OW   41   3.049   0.767   8.646
32715SOL    HW1   42   3.111   0.741   8.714
32715SOL    HW2   43   2.963   0.742   8.681
32716SOL     OW   44   1.268   9.769  11.755
32716SOL    HW1   45   1.259   9.827  11.831
32716SOL    HW2   46   1.212   9.694  11.775
32717SOL     OW   47   9.682   4.940   9.569
32717SOL    HW1   48   9.600   4.969   9.529
32717SOL    HW2   49   9.745   4.941   9.497
32718SOL     OW   50   5.722   2.961   6.677
32718SOL    HW1   51   5.649   2.996   6.729
32718SOL    HW2   52   5.723   3.016   6.598
32719SOL     OW   53  10.042   1.531   5.983
32719SOL    HW1   54  10.021   1.589   6.056
32719SOL    HW2   55  10.090   1.586   5.921
32720SOL     OW   56   9.074   6.814  11.011
32720SOL    HW1   57   9.013   6.864  10.958
32720SOL    HW2   58   9.063   6.848  11.100
32721SOL     OW   59   0.297   9.348   6.999
32721SOL    HW1   60   0.213   9.342   7.044
32721SOL    HW2   61   0.362   9.330   7.067
32722SOL     OW   62   0.433  13.015  12.135
32722SOL    HW1   63   0.486  12.947  12.177
32722SOL    HW2   64   0.382  13.053  12.206
32723SOL     OW   65   9.173   2.664   4.487
32723SOL    HW1   66   9.202   2.620   4.567
32723SOL    HW2   67   9.172   2.757   4.509
32724SOL     OW   68   0.547   2.514  12.168
32724SOL    HW1   69   0.588   2.512  12.255
32724SOL    HW2   70   0.467   2.462  12.178
32725SOL     OW   71  11.068   1.509   8.957
32725SOL    HW1   72  11.085   1.597   8.922
32725SOL    HW2   73  11.058   1.523   9.051
32726SOL     OW   74  14.735  12.095   3.276
32726SOL    HW1   75  14.747  12.031   3.345
32726SOL    HW2   76  14.707  12.044   3.200
32727SOL     OW   77   6.029   0.647   4.409
32727SOL    HW1   78   6.073   0.592   4.473
32727SOL    HW2   79   6.003   0.586   4.340
32728SOL     OW   80  10.425   6.366  14.566
32728SOL    HW1   81  10.487   6.293  14.562
32728SOL    HW2   82  10.412   6.381  14.660
32729SOL     OW   83   5.776   3.099   7.189
32729SOL    HW1   84   5.827   3.121   7.111
32729SOL    HW2   85   5.688   3.129   7.169
32730SOL     OW   86  14.799   5.185   7.709
32730SOL    HW1   87  14.773   5.270   7.742
32730SOL    HW2   88  14.724   5.128   7.727
32731SOL     OW   89  10.318  12.798  11.022
32731SOL    HW1   90  10.227  12.779  11.000
32731SOL    HW2   91  10.366  12.720  10.992
32732SOL     OW   92  12.003   9.712  10.223
32732SOL    HW1   93  12.039   9.623  10.222
32732SOL    HW2   94  11.986   9.730  10.316
32733SOL     OW   95   0.683   6.583   1.718
32733SOL    HW1   96   0.745   6.580   1.645
32733SOL    HW2   97   0.731   6.546   1.792
32734SOL     OW   98   2.402   7.661   2.451
32734SOL    HW1   99   2.417   7.582   2.502
32734SOL    HW2  100   2.345   7.715   2.507
32735SOL     OW  101   9.878   7.321  13.226
32735SOL    HW1  102   9.803   7.325  13.166
32735SOL    HW2  103   9.919   7.237  13.208
32736SOL     OW  104  14.463   8.768   1.775
32736SOL    HW1  105  14.496   8.680   1.794
32736SOL    HW2  106  14.461   8.812   1.860
32737SOL     OW  107   3.218   6.274   8.126
32737SOL    HW1  108   3.179   6.301   8.043
32737SOL    HW2  109   3.204   6.348   8.185
32738SOL     OW  110   0.638  13.077   1.110
32738SOL    HW1  111   0.704  13.075   1.040
32738SOL    HW2  112   0.589  13.157   1.095
32739SOL     OW  113   6.244   8.405  12.097
32739SOL    HW1  114   6.279   8.377  12.182
32739SOL    HW2  115   6.149   8.399  12.107
32740SOL     OW  116   4.285  13.527   4.524
32740SOL    HW1  117   4.211  13.473   4.496
32740SOL    HW2  118   4.245  13.609   4.553
32741SOL     OW  119   9.761   4.984   2.415
32741SOL    HW1  120   9.700   5.019   2.349
32741SOL    HW2  121   9.706   4.964   2.490
32742SOL     OW  122  11.463  12.463   2.768
32742SOL    HW1  123  11.550  12.459   2.729
32742SOL    HW2  124  11.454  12.552   2.800
32743SOL     OW  125   3.339   8.906  11.364
32743SOL    HW1  126   3.379   8.854  11.433
32743SOL    HW2  127   3.249   8.920  11.394
32744SOL     OW  128   5.436  12.504  10.474
32744SOL    HW1  129   5.386  12.424  10.491
32744SOL    HW2  130   5.371  12.574  10.476
32745SOL     OW  131   3.339   2.555   8.972
32745SOL    HW1  132   3.333   2.615   9.046
32745SOL    HW2  133   3.268   2.492   8.987
32746SOL     OW  134   8.232   1.572   9.558
32746SOL    HW1  135   8.240   1.648   9.615
32746SOL    HW2  136   8.192   1.505   9.614
32747SOL     OW  137   3.639   0.924   2.755
32747SOL    HW1  138   3.713   0.893   2.703
32747SOL    HW2  139   3.570   0.859   2.741
32748SOL     OW  140  10.293  11.140  11.967
32748SOL    HW1  141  10.386  11.161  11.960
32748SOL    HW2  142  10.284  11.104  12.055
32749SOL     OW  143   4.534  10.580   4.103
32749SOL    HW1  144   4.551  10.522   4.028
32749SOL    HW2  145   4.613  10.572   4.157
32750SOL     OW  146   9.692   5.599   6.979
32750SOL    HW1  147   9.747   5.539   6.929
32750SOL    HW2  148   9.617   5.546   7.007
32751SOL     OW  149   8.665   5.981   0.330
32751SOL    HW1  150   8.725   6.011   0.398
32751SOL    HW2  151   8.675   5.886   0.329
32752SOL     OW  152  13.711   9.407   8.011
32752SOL    HW1  153  13.668   9.322   8.002
32752SOL    HW2  154  13.803   9.386   8.028
32753SOL     OW  155  13.457   7.305   3.486
32753SOL    HW1  156  13.394   7.264   3.426
32753SOL    HW2  157  13.464   7.244   3.559
32754SOL     OW  158   3.985   7.995   7.875
32754SOL    HW1  159   4.048   7.929   7.848
32754SOL    HW2  160   3.912   7.945   7.913
32755SOL     OW  161   8.215  14.317  13.445
32755SOL    HW1  162   8.158  14.386  13.478
32755SOL    HW2  163   8.229  14.340  13.353
32756SOL     OW  164   1.614  14.509   1.849
32756SOL    HW1  165   1.638  14.439   1.909
32756SOL    HW2  166   1.685  14.511   1.786
32757SOL     OW  167   9.253   3.336  14.378
32757SOL    HW1  168   9.226   3.422  14.412
32757SOL    HW2  169   9.282   3.288  14.455
32758SOL     OW  170  10.419   5.004   9.082
32758SOL    HW1  171  10.503   4.959   9.082
32758SOL    HW2  172  10.355   4.935   9.098
32759SOL     OW  173  10.570   2.752   8.538
32759SOL    HW1  174  10.650   2.788   8.577
32759SOL    HW2  175  10.535   2.694   8.605
32760SOL     OW  176   3.827   7.115   6.204
32760SOL    HW1  177   3.788   7.054   6.141
32760SOL    HW2  178   3.921   7.098   6.198
32761SOL     OW  179   3.196   9.377   0.629
32761SOL    HW1  180   3.190   9.431   0.550
32761SOL    HW2  181   3.108   9.381   0.667
32762SOL     OW  182  11.770   3.104  10.982
32762SOL    HW1  183  11.792   3.035  10.920
32762SOL    HW2  184  11.794   3.068  11.068
32763SOL     OW  185   3.950  11.534   8.694
32763SOL    HW1  186   3.912  11.496   8.773
32763SOL    HW2  187   3.989  11.616   8.723
32764SOL     OW  188   5.078   8.327   3.317
32764SOL    HW1  189   5.020   8.392   3.277
32764SOL    HW2  190   5.046   8.243   3.285
32765SOL     OW  191   5.009  13.372  14.652
32765SOL    HW1  192   4.952  13.383  14.729
32765SOL    HW2  193   5.040  13.460  14.632
32766SOL     OW  194   5.952   4.124  14.080
32766SOL    HW1  195   5.972   4.215  14.103
32766SOL    HW2  196   6.028   4.096  14.028
32767SOL     OW  197   6.081   1.703  11.642
32767SOL    HW1  198   6.113   1.649  11.714
32767SOL    HW2  199   6.119   1.663  11.563
32768SOL     OW  200   6.467  12.326   4.027
32768SOL    HW1  201   6.425  12.244   4.003
32768SOL    HW2  202   6.420  12.393   3.977
32769SOL     OW  203   0.121  13.624   8.827
32769SOL    HW1  204   0.075  13.623   8.911
32769SOL    HW2  205   0.175  13.703   8.830
32770SOL     OW  206   6.996  14.592   1.691
32770SOL    HW1  207   6.931  14.524   1.670
32770SOL    HW2  208   6.969  14.667   1.637
32771SOL     OW  209  11.605   7.332  12.581
32771SOL    HW1  210  11.568   7.274  12.648
32771SOL    HW2  211  11.637   7.273  12.513
32772SOL     OW  212   0.871   8.904   5.911
32772SOL    HW1  213   0.883   8.930   6.002
32772SOL    HW2  214   0.877   8.808   5.912
32773SOL     OW  215   8.420   2.397  12.676
32773SOL    HW1  216   8.424   2.446  12.594
32773SOL    HW2  217   8.396   2.308  12.651
32774SOL     OW  218   6.338   1.060  11.833
32774SOL    HW1  219   6.353   1.116  11.909
32774SOL    HW2  220   6.417   1.007  11.826
32775SOL     OW  221  12.365  10.494  10.442
32775SOL    HW1  222  12.445  10.536  10.409
32775SOL    HW2  223  12.316  10.473  10.363
32776SOL     OW  224  14.846   3.532   0.945
32776SOL    HW1  225   0.044   3.553   0.996
32776SOL    HW2  226  14.807   3.458   0.991
32777SOL     OW  227  11.221   4.904  12.024
32777SOL    HW1  228  11.235   4.834  12.087
32777SOL    HW2  229  11.183   4.976  12.075
32778SOL     OW  230  10.864   7.801   7.411
32778SOL    HW1  231  10.917   7.729   7.377
32778SOL    HW2  232  10.821   7.765   7.489
32779SOL     OW  233   4.435  11.082   8.433
32779SOL    HW1  234   4.498  11.010   8.442
32779SOL    HW2  235   4.459  11.125   8.351
32780SOL     OW  236   9.156   0.747  10.152
32780SOL    HW1  237   9.142   0.752  10.246
32780SOL    HW2  238   9.188   0.657  10.138
32781SOL     OW  239   9.800   5.661  10.040
32781SOL    HW1  240   9.844   5.746  10.043
32781SOL    HW2  241   9.864   5.599  10.074
32782SOL     OW  242   8.200   2.632  14.258
32782SOL    HW1  243   8.179   2.718  14.296
32782SOL    HW2  244   8.272   2.649  14.198
32783SOL     OW  245   8.129   2.781   4.087
32783SOL    HW1  246   8.186   2.717   4.043
32783SOL    HW2  247   8.190   2.840   4.131
32784SOL     OW  248  12.806  13.231  10.930
32784SOL    HW1  249  12.817  13.223  10.836
32784SOL    HW2  250  12.833  13.146  10.965
32785SOL     OW  251  14.770   9.687   3.370
32785SOL    HW1  252  14.749   9.594   3.360
32785SOL    HW2  253  14.769   9.701   3.464
32786SOL     OW  254  12.607   7.168   3.127
32786SOL    HW1  255  12.687   7.141   3.172
32786SOL    HW2  256  12.627   7.155   3.034
32787SOL     OW  257  12.265   2.152   7.240
32787SOL    HW1  258  12.294   2.161   7.149
32787SOL    HW2  259  12.281   2.238   7.279
32788SOL     OW  260  11.535   9.335  13.064
32788SOL    HW1  261  11.500   9.346  13.152
32788SOL    HW2  262  11.470   9.375  13.007
32789SOL     OW  263   6.210   7.644  13.626
32789SOL    HW1  264   6.142   7.701  13.591
32789SOL    HW2  265   6.224   7.676  13.715
32790SOL     OW  266   6.197  13.974  11.968
32790SOL    HW1  267   6.106  13.948  11.966
32790SOL    HW2  268   6.196  14.062  12.006
32791SOL     OW  269   9.204  10.859  13.265
32791SOL    HW1  270   9.170  10.796  13.328
32791SOL    HW2  271   9.239  10.931  13.318
32792SOL     OW  272  12.246  12.558   0.996
32792SOL    HW1  273  12.165  12.603   0.973
32792SOL    HW2  274  12.270  12.510   0.917
32793SOL     OW  275   2.611   7.322   4.776
32793SOL    HW1  276   2.663   7.359   4.848
32793SOL    HW2  277   2.670   7.260   4.733
32794SOL     OW  278  13.407   3.666  10.884
32794SOL    HW1  279  13.359   3.741  10.849
32794SOL    HW2  280  13.446   3.697  10.965
32795SOL     OW  281   8.412   6.338   9.848
32795SOL    HW1  282   8.493   6.345   9.799
32795SOL    HW2  283   8.425   6.262   9.906
32796SOL     OW  284   4.526   7.837   3.781
32796SOL    HW1  285   4.439   7.808   3.755
32796SOL    HW2  286   4.515   7.869   3.871
32797SOL     OW  287   3.604   2.560   1.312
32797SOL    HW1  288   3.671   2.617   1.350
32797SOL    HW2  289   3.625   2.558   1.219
32798SOL     OW  290  13.656   8.158   0.343
32798SOL    HW1  291  13.646   8.249   0.314
32798SOL    HW2  292  13.581   8.143   0.400
32799SOL     OW  293   8.225   9.590   6.790
32799SOL    HW1  294   8.249   9.559   6.703
32799SOL    HW2  295   8.256   9.522   6.850
32800SOL     OW  296  12.134   4.284   1.060
32800SOL    HW1  297  12.216   4.332   1.058
32800SOL    HW2  298  12.078   4.328   0.995
32801SOL     OW  299   2.972  13.621  13.842
32801SOL    HW1  300   2.992  13.641  13.750
32801SOL    HW2  301   2.880  13.593  13.840
32802SOL     OW  302   7.206  10.648   5.404
32802SOL    HW1  303   7.247  10.575   5.450
32802SOL    HW2  304   7.172  10.609   5.323
32803SOL     OW  305  13.450   1.095   3.057
32803SOL    HW1  306  13.460   1.140   3.142
32803SOL    HW2  307  13.526   1.038   3.051
32804SOL     OW  308   8.383  11.227   0.212
32804SOL    HW1  309   8.291  11.201   0.206
32804SOL    HW2  310   8.431  11.153   0.173
32805SOL     OW  311   1.579   8.018   5.002
32805SOL    HW1  312   1.576   8.113   5.011
32805SOL    HW2  313   1.507   7.998   4.943
32806SOL     OW  314   3.660   5.346   1.650
32806SOL    HW1  315   3.572   5.360   1.613
32806SOL    HW2  316   3.711   5.421   1.618
32807SOL     OW  317  10.477  11.639  11.240
32807SOL    HW1  318  10.569  11.624  11.263
32807SOL    HW2  319  10.481  11.685  11.156
32808SOL     OW  320   6.544  11.754  11.093
32808SOL    HW1  321   6.594  11.835  11.100
32808SOL    HW2  322   6.610  11.685  11.093
32809SOL     OW  323  12.377   5.805  10.208
32809SOL    HW1  324  12.364   5.717  10.242
32809SOL    HW2  325  12.291   5.847  10.218
32810SOL     OW  326  12.371  13.936  10.249
32810SOL    HW1  327  12.379  14.013  10.306
32810SOL    HW2  328  12.461  13.920  10.219
32811SOL     OW  329  14.382   3.930   7.568
32811SOL    HW1  330  14.472   3.950   7.543
32811SOL    HW2  331  14.342   3.899   7.487
32812SOL     OW  332   8.927   4.797   6.048
32812SOL    HW1  333   9.014   4.827   6.073
32812SOL    HW2  334   8.924   4.706   6.076
32813SOL     OW  335  13.395  12.523  11.043
32813SOL    HW1  336  13.324  12.460  11.032
32813SOL    HW2  337  13.474  12.469  11.043
32814SOL     OW  338   5.747   0.139  13.190
32814SOL    HW1  339   5.772   0.132  13.097
32814SOL    HW2  340   5.651   0.140  13.188
32815SOL     OW  341   4.277   4.475   3.705
32815SOL    HW1  342   4.339   4.407   3.679
32815SOL    HW2  343   4.266   4.463   3.799
32816SOL     OW  344  10.828   1.933   1.974
32816SOL    HW1  345  10.798   1.894   1.892
32816SOL    HW2  346  10.802   2.025   1.969
32817SOL     OW  347   4.365  11.131  14.204
32817SOL    HW1  348   4.400  11.072  14.270
32817SOL    HW2  349   4.291  11.173  14.246
32818SOL     OW  350   3.844   1.283  10.102
32818SOL    HW1  351   3.925   1.315  10.142
32818SOL    HW2  352   3.782   1.279  10.175
32819SOL     OW  353  13.735   8.593   1.676
32819SOL    HW1  354  13.690   8.594   1.760
32819SOL    HW2  355  13.809   8.653   1.688
32820SOL     OW  356   8.966  14.093  10.461
32820SOL    HW1  357   8.925  14.006  10.460
32820SOL    HW2  358   8.941  14.132  10.377
32821SOL     OW  359   2.435  12.038   5.307
32821SOL    HW1  360   2.353  12.086   5.308
32821SOL    HW2  361   2.449  12.016   5.215
32822SOL     OW  362  10.224   8.760   2.705
32822SOL    HW1  363  10.198   8.673   2.734
32822SOL    HW2  364  10.141   8.804   2.686
32823SOL     OW  365   0.807   6.821   1.805
32823SOL    HW1  366   0.894   6.787   1.787
32823SOL    HW2  367   0.756   6.800   1.727
32824SOL     OW  368   2.629  14.193   6.108
32824SOL    HW1  369   2.717  14.162   6.128
32824SOL    HW2  370   2.578  14.112   6.097
32825SOL     OW  371   9.273   9.657   7.840
32825SOL    HW1  372   9.366   9.637   7.828
32825SOL    HW2  373   9.261   9.742   7.798
32826SOL     OW  374  12.137   2.835   6.312
32826SOL    HW1  375  12.047   2.859   6.290
32826SOL    HW2  376  12.183   2.832   6.228
32827SOL     OW  377  12.288   4.469   8.365
32827SOL    HW1  378  12.223   4.539   8.361
32827SOL    HW2  379  12.298   4.440   8.274
32828SOL     OW  380   8.137   2.324  13.930
32828SOL    HW1  381   8.215   2.332  13.985
32828SOL    HW2  382   8.126   2.229  13.918
32829SOL     OW  383   5.583   1.305  10.217
32829SOL    HW1  384   5.657   1.365  10.226
32829SOL    HW2  385   5.574   1.294  10.122
32830SOL     OW  386   4.386   1.799   8.619
32830SOL    HW1  387   4.346   1.759   8.697
32830SOL    HW2  388   4.467   1.751   8.606
32831SOL     OW  389  10.068   0.130  13.415
32831SOL    HW1  390  10.007   0.059  13.398
32831SOL    HW2  391  10.130   0.093  13.478
32832SOL     OW  392  11.786   9.498  13.436
32832SOL    HW1  393  11.799   9.508  13.531
32832SOL    HW2  394  11.717   9.432  13.428
32833SOL     OW  395  12.712  12.733  11.058
32833SOL    HW1  396  12.732  12.640  11.070
32833SOL    HW2  397  12.654  12.735  10.982
32834SOL     OW  398   3.845   6.437   7.543
32834SOL    HW1  399   3.890   6.406   7.622
32834SOL    HW2  400   3.880   6.525   7.529
32835SOL     OW  401   7.947   4.137  10.543
32835SOL    HW1  402   7.978   4.053  10.575
32835SOL    HW2  403   7.889   4.116  10.471
32836SOL     OW  404   1.612  14.256  10.038
32836SOL    HW1  405   1.537  14.313  10.016
32836SOL    HW2  406   1.671  14.266   9.964
32837SOL     OW  407  11.649   6.437  10.372
32837SOL    HW1  408  11.714   6.381  10.329
32837SOL    HW2  409  11.667   6.525  10.338
32838SOL     OW  410   7.088   6.003   0.019
32838SOL    HW1  411   7.145   6.068  14.859
32838SOL    HW2  412   7.132   5.979   0.101
32839SOL     OW  413   4.446  10.906  13.147
32839SOL    HW1  414   4.428  10.822  13.190
32839SOL    HW2  415   4.447  10.885  13.053
32840SOL     OW  416  12.801  14.062   1.208
32840SOL    HW1  417  12.826  14.119   1.281
32840SOL    HW2  418  12.815  13.974   1.240
32841SOL     OW  419   4.861  11.674  12.674
32841SOL    HW1  420   4.824  11.741  12.617
32841SOL    HW2  421   4.788  11.617  12.696
32842SOL     OW  422   9.465  12.392  12.938
32842SOL    HW1  423   9.427  12.322  12.992
32842SOL    HW2  424   9.545  12.416  12.983
32843SOL     OW  425  14.715   9.636  10.390
32843SOL    HW1  426  14.790   9.692  10.371
32843SOL    HW2  427  14.729   9.608  10.481
32844SOL     OW  428   9.079   2.999  10.984
32844SOL    HW1  429   9.172   3.022  10.990
32844SOL    HW2  430   9.069   2.926  11.045
32845SOL     OW  431   4.190   8.601   2.144
32845SOL    HW1  432   4.229   8.570   2.226
32845SOL    HW2  433   4.188   8.523   2.088
32846SOL     OW  434  12.786  10.720   5.821
32846SOL    HW1  435  12.771  10.707   5.915
32846SOL    HW2  436  12.855  10.657   5.799
32847SOL     OW  437   6.448   0.482   4.762
32847SOL    HW1  438   6.492   0.560   4.795
32847SOL    HW2  439   6.439   0.425   4.839
32848SOL     OW  440   9.305  14.632  10.716
32848SOL    HW1  441   9.220  14.600  10.748
32848SOL    HW2  442   9.361  14.554  10.715
32849SOL     OW  443  12.479   5.358   9.255
32849SOL    HW1  444  12.421   5.405   9.195
32849SOL    HW2  445  12.521   5.426   9.307
32850SOL     OW  446   2.030   4.130   9.113
32850SOL    HW1  447   1.948   4.101   9.153
32850SOL    HW2  448   2.025   4.099   9.023
32851SOL     OW  449  10.132   5.178  10.777
32851SOL    HW1  450  10.164   5.195  10.688
32851SOL    HW2  451  10.167   5.092  10.800
32852SOL     OW  452   4.606   7.369   1.772
32852SOL    HW1  453   4.575   7.438   1.830
32852SOL    HW2  454   4.544   7.297   1.787
32853SOL     OW  455   5.728   8.636  14.111
32853SOL    HW1  456   5.698   8.690  14.183
32853SOL    HW2  457   5.785   8.571  14.151
32854SOL     OW  458   8.828  12.801   7.359
32854SOL    HW1  459   8.767  12.811   7.286
32854SOL    HW2  460   8.892  12.738   7.327
32855SOL     OW  461  14.591  11.717  14.326
32855SOL    HW1  462  14.635  11.662  14.262
32855SOL    HW2  463  14.662  11.752  14.381
32856SOL     OW  464  13.388   7.130   9.832
32856SOL    HW1  465  13.470   7.135   9.782
32856SOL    HW2  466  13.381   7.215   9.876
32857SOL     OW  467  11.598   7.657   4.267
32857SOL    HW1  468  11.626   7.576   4.224
32857SOL    HW2  469  11.657   7.724   4.232
32858SOL     OW  470  14.035   8.912   4.505
32858SOL    HW1  471  14.050   8.895   4.412
32858SOL    HW2  472  13.952   8.868   4.524
32859SOL     OW  473   0.905   9.248   6.962
32859SOL    HW1  474   0.882   9.249   6.869
32859SOL    HW2  475   0.821   9.239   7.007
32860SOL     OW  476   4.955  13.055  12.525
32860SOL    HW1  477   5.027  12.992  12.520
32860SOL    HW2  478   4.926  13.052  12.616
32861SOL     OW  479   3.111  10.301   0.803
32861SOL    HW1  480   3.089  10.329   0.714
32861SOL    HW2  481   3.136  10.382   0.848
32862SOL     OW  482  14.672   7.615   3.579
32862SOL    HW1  483  14.596   7.669   3.558
32862SOL    HW2  484  14.635   7.531   3.607
32863SOL     OW  485   6.586   1.287   6.838
32863SOL    HW1  486   6.654   1.261   6.776
32863SOL    HW2  487   6.507   1.297   6.785
32864SOL     OW  488   5.003   6.087   7.372
32864SOL    HW1  489   5.056   6.144   7.317
32864SOL    HW2  490   4.917   6.130   7.376
32865SOL     OW  491   4.443   4.667   6.834
32865SOL    HW1  492   4.412   4.595   6.780
32865SOL    HW2  493   4.364   4.717   6.855
32866SOL     OW  494   0.863   4.652   8.601
32866SOL    HW1  495   0.920   4.598   8.655
32866SOL    HW2  496   0.890   4.634   8.511
32867SOL     OW  497   6.450  10.610  10.926
32867SOL    HW1  498   6.485  10.673  10.863
32867SOL    HW2  499   6.480  10.525  10.894
32868SOL     OW  500   2.486  10.240   8.366
32868SOL    HW1  501   2.445  10.280   8.443
32868SOL    HW2  502   2.485  10.146   8.385
32869SOL     OW  503   7.481   8.098   1.635
32869SOL    HW1  504   7.462   8.068   1.547
32869SOL    HW2  505   7.477   8.019   1.689
32870SOL     OW  506  14.416  14.656   9.359
32870SOL    HW1  507  14.446  14.743   9.384
32870SOL    HW2  508  14.458  14.639   9.275
32871SOL     OW  509  12.877  10.266   7.519
32871SOL    HW1  510  12.935  10.197   7.551
32871SOL    HW2  511  12.841  10.231   7.437
32872SOL     OW  512   8.622  14.664   1.835
32872SOL    HW1  513   8.605  14.675   1.741
32872SOL    HW2  514   8.716  14.682   1.845
32873SOL     OW  515  12.574  12.933   7.145
32873SOL    HW1  516  12.594  12.840   7.151
32873SOL    HW2  517  12.606  12.959   7.059
32874SOL     OW  518   6.285   1.221   7.756
32874SOL    HW1  519   6.200   1.195   7.793
32874SOL    HW2  520   6.283   1.316   7.755
32875SOL     OW  521   5.031   7.143  14.861
32875SOL    HW1  522   5.011   7.236  14.870
32875SOL    HW2  523   4.948   7.103  14.834
32876SOL     OW  524   5.822   0.142   0.974
32876SOL    HW1  525   5.861   0.172   1.056
32876SOL    HW2  526   5.854   0.053   0.963
32877SOL     OW  527   7.233   7.434   1.580
32877SOL    HW1  528   7.221   7.352   1.628
32877SOL    HW2  529   7.317   7.425   1.535
32878SOL     OW  530  14.119   0.535  11.503
32878SOL    HW1  531  14.208   0.529  11.537
32878SOL    HW2  532  14.126   0.595  11.429
32879SOL     OW  533   9.475   3.367  11.896
32879SOL    HW1  534   9.426   3.285  11.888
32879SOL    HW2  535   9.562   3.340  11.925
32880SOL     OW  536   0.647   0.568  13.959
32880SOL    HW1  537   0.626   0.510  14.032
32880SOL    HW2  538   0.633   0.514  13.881
32881SOL     OW  539  13.484   7.015   5.761
32881SOL    HW1  540  13.475   6.947   5.694
32881SOL    HW2  541  13.402   7.013   5.809
32882SOL     OW  542  13.620  11.595   2.826
32882SOL    HW1  543  13.697  11.590   2.769
32882SOL    HW2  544  13.619  11.511   2.871
32883SOL     OW  545   4.188   5.113  11.183
32883SOL    HW1  546   4.275   5.104  11.223
32883SOL    HW2  547   4.127   5.109  11.257
32884SOL     OW  548   2.300  10.203   3.102
32884SOL    HW1  549   2.321  10.138   3.169
32884SOL    HW2  550   2.219  10.245   3.133
32885SOL     OW  551  12.336  13.462  13.022
32885SOL    HW1  552  12.384  13.498  12.946
32885SOL    HW2  553  12.300  13.380  12.990
32886SOL     OW  554   0.788   8.954   1.250
32886SOL    HW1  555   0.813   8.952   1.158
32886SOL    HW2  556   0.694   8.940   1.250
32887SOL     OW  557   9.735   8.202   0.696
32887SOL    HW1  558   9.823   8.204   0.733
32887SOL    HW2  559   9.747   8.224   0.603
32888SOL     OW  560   2.107   9.894   7.631
32888SOL    HW1  561   2.119   9.816   7.685
32888SOL    HW2  562   2.193   9.910   7.591
32889SOL     OW  563   2.155  13.327  11.626
32889SOL    HW1  564   2.205  13.271  11.686
32889SOL    HW2  565   2.221  13.368  11.571
32890SOL     OW  566   1.521   3.855  10.034
32890SOL    HW1  567   1.505   3.937   9.986
32890SOL    HW2  568   1.550   3.794   9.967
32891SOL     OW  569   1.410   5.196  10.610
32891SOL    HW1  570   1.453   5.152  10.683
32891SOL    HW2  571   1.350   5.130  10.575
32892SOL     OW  572   0.988   2.065   0.481
32892SOL    HW1  573   0.933   2.049   0.557
32892SOL    HW2  574   0.952   2.143   0.440
32893SOL     OW  575   5.434  13.257   9.889
32893SOL    HW1  576   5.453  13.349   9.906
32893SOL    HW2  577   5.518  13.218   9.867
32894SOL     OW  578   3.253   1.181   8.295
32894SOL    HW1  579   3.260   1.156   8.387
32894SOL    HW2  580   3.302   1.114   8.248
32895SOL     OW  581  13.567   1.540   1.564
32895SOL    HW1  582  13.513   1.465   1.588
32895SOL    HW2  583  13.648   1.528   1.613
32896SOL     OW  584  10.292   2.880   4.705
32896SOL    HW1  585  10.289   2.855   4.612
32896SOL    HW2  586  10.290   2.976   4.704
32897SOL     OW  587  10.456   1.868   2.626
32897SOL    HW1  588  10.385   1.902   2.680
32897SOL    HW2  589  10.513   1.943   2.610
32898SOL     OW  590   3.660  13.277   7.388
32898SOL    HW1  591   3.684  13.358   7.342
32898SOL    HW2  592   3.613  13.308   7.466
32899SOL     OW  593   1.897   7.592   5.468
32899SOL    HW1  594   1.904   7.630   5.380
32899SOL    HW2  595   1.848   7.657   5.518
32900SOL     OW  596   7.550  11.786   9.256
32900SOL    HW1  597   7.505  11.702   9.261
32900SOL    HW2  598   7.642  11.765   9.272
32901SOL     OW  599  11.193  11.348  14.570
32901SOL    HW1  600  11.184  11.442  14.550
32901SOL    HW2  601  11.258  11.345  14.640
32902SOL     OW  602   2.438   4.790  11.240
32902SOL    HW1  603   2.435   4.759  11.331
32902SOL    HW2  604   2.448   4.885  11.248
32903SOL     OW  605  11.683  10.089   4.850
32903SOL    HW1  606  11.727  10.070   4.767
32903SOL    HW2  607  11.747  10.066   4.917
32904SOL     OW  608  14.732   4.940   6.917
32904SOL    HW1  609  14.717   5.021   6.966
32904SOL    HW2  610  14.645   4.913   6.889
32905SOL     OW  611   2.160   4.852   2.157
32905SOL    HW1  612   2.231   4.790   2.148
32905SOL    HW2  613   2.150   4.864   2.252
32906SOL     OW  614  10.119   1.501   1.828
32906SOL    HW1  615  10.049   1.504   1.892
32906SOL    HW2  616  10.150   1.410   1.829
32907SOL     OW  617   3.484   9.207   6.614
32907SOL    HW1  618   3.396   9.170   6.613
32907SOL    HW2  619   3.471   9.300   6.599
32908SOL     OW  620   2.820   3.567   3.622
32908SOL    HW1  621   2.886   3.517   3.670
32908SOL    HW2  622   2.761   3.600   3.690
32909SOL     OW  623   9.864   0.158   6.761
32909SOL    HW1  624   9.772   0.158   6.787
32909SOL    HW2  625   9.881   0.069   6.730
32910SOL     OW  626   7.075  14.592   3.412
32910SOL    HW1  627   7.018  14.601   3.335
32910SOL    HW2  628   7.029  14.528   3.467
32911SOL     OW  629   1.807   2.093   9.697
32911SOL    HW1  630   1.743   2.135   9.754
32911SOL    HW2  631   1.776   2.112   9.609
32912SOL     OW  632   7.411  10.363   3.749
32912SOL    HW1  633   7.352  10.421   3.797
32912SOL    HW2  634   7.485  10.419   3.724
32913SOL     OW  635   7.633   5.968   7.906
32913SOL    HW1  636   7.676   5.967   7.821
32913SOL    HW2  637   7.583   6.050   7.907
32914SOL     OW  638   6.475  14.217   2.182
32914SOL    HW1  639   6.536  14.265   2.238
32914SOL    HW2  640   6.528  14.148   2.143
32915SOL     OW  641   1.624   1.017   9.860
32915SOL    HW1  642   1.658   0.945   9.912
32915SOL    HW2  643   1.654   0.999   9.771
32916SOL     OW  644   5.141   0.244   7.440
32916SOL    HW1  645   5.059   0.198   7.419
32916SOL    HW2  646   5.131   0.269   7.532
32917SOL     OW  647   8.522   4.831  10.446
32917SOL    HW1  648   8.471   4.906  10.416
32917SOL    HW2  649   8.532   4.846  10.541
32918SOL     OW  650   7.112   1.284   5.670
32918SOL    HW1  651   7.126   1.362   5.724
32918SOL    HW2  652   7.026   1.299   5.629
32919SOL     OW  653  14.288  14.750   7.909
32919SOL    HW1  654  14.379  14.730   7.886
32919SOL    HW2  655  14.252  14.666   7.938
32920SOL     OW  656   2.063   0.539  12.212
32920SOL    HW1  657   1.996   0.606  12.196
32920SOL    HW2  658   2.091   0.511  12.125
32921SOL     OW  659   3.803   3.580  14.316
32921SOL    HW1  660   3.822   3.628  14.396
32921SOL    HW2  661   3.792   3.489  14.344
32922SOL     OW  662  11.867   7.931   8.253
32922SOL    HW1  663  11.908   8.009   8.216
32922SOL    HW2  664  11.781   7.961   8.283
32923SOL     OW  665   8.072   3.147  12.293
32923SOL    HW1  666   8.038   3.104  12.214
32923SOL    HW2  667   8.013   3.221  12.307
32924SOL     OW  668  14.306  11.067  11.800
32924SOL    HW1  669  14.254  10.988  11.814
32924SOL    HW2  670  14.308  11.110  11.886
32925SOL     OW  671   2.014  13.624  14.625
32925SOL    HW1  672   2.026  13.706  14.673
32925SOL    HW2  673   1.936  13.585  14.663
32926SOL     OW  674   3.114   7.311   6.062
32926SOL    HW1  675   3.068   7.344   6.138
32926SOL    HW2  676   3.207   7.322   6.083
32927SOL     OW  677  13.051   5.530   2.055
32927SOL    HW1  678  13.069   5.556   2.145
32927SOL    HW2  679  12.974   5.472   2.061
32928SOL     OW  680  14.660   3.333   4.639
32928SOL    HW1  681  14.590   3.379   4.687
32928SOL    HW2  682  14.740   3.356   4.688
32929SOL     OW  683   3.496   3.052   8.958
32929SOL    HW1  684   3.555   3.055   9.033
32929SOL    HW2  685   3.548   3.011   8.889
32930SOL     OW  686  10.792  11.895  12.623
32930SOL    HW1  687  10.748  11.974  12.590
32930SOL    HW2  688  10.793  11.906  12.718
32931SOL     OW  689   1.000   7.529   7.313
32931SOL    HW1  690   0.991   7.447   7.361
32931SOL    HW2  691   1.043   7.588   7.375
32932SOL     OW  692  12.051  10.489  12.063
32932SOL    HW1  693  12.077  10.474  12.154
32932SOL    HW2  694  12.059  10.404  12.021
32933SOL     OW  695   1.387   1.301   3.427
32933SOL    HW1  696   1.371   1.208   3.415
32933SOL    HW2  697   1.336   1.343   3.358
32934SOL     OW  698   1.836   6.328  10.452
32934SOL    HW1  699   1.818   6.318  10.358
32934SOL    HW2  700   1.838   6.239  10.485
32935SOL     OW  701   8.003   5.370   8.733
32935SOL    HW1  702   7.938   5.331   8.674
32935SOL    HW2  703   8.067   5.410   8.674
32936SOL     OW  704   6.586   4.854   8.129
32936SOL    HW1  705   6.661   4.913   8.141
32936SOL    HW2  706   6.553   4.838   8.217
32937SOL     OW  707  11.541   9.576  14.414
32937SOL    HW1  708  11.630   9.612  14.418
32937SOL    HW2  709  11.489   9.634  14.469
32938SOL     OW  710   3.463   3.018  11.552
32938SOL    HW1  711   3.385   2.962  11.553
32938SOL    HW2  712   3.467   3.053  11.463
32939SOL     OW  713  10.708   8.711   2.401
32939SOL    HW1  714  10.676   8.659   2.327
32939SOL    HW2  715  10.686   8.658   2.478
32940SOL     OW  716   2.961  10.280   2.026
32940SOL    HW1  717   2.949  10.305   2.118
32940SOL    HW2  718   3.021  10.346   1.991
32941SOL     OW  719  10.734   1.518   3.382
32941SOL    HW1  720  10.781   1.536   3.464
32941SOL    HW2  721  10.731   1.603   3.337
32942SOL     OW  722   9.628  12.452  10.402
32942SOL    HW1  723   9.598  12.506  10.329
32942SOL    HW2  724   9.723  12.450  10.392
32943SOL     OW  725  13.459   7.791   8.822
32943SOL    HW1  726  13.523   7.800   8.751
32943SOL    HW2  727  13.415   7.708   8.804
32944SOL     OW  728   2.409  11.175   5.325
32944SOL    HW1  729   2.450  11.253   5.287
32944SOL    HW2  730   2.320  11.175   5.290
32945SOL     OW  731   6.587   5.181   1.971
32945SOL    HW1  732   6.643   5.231   2.030
32945SOL    HW2  733   6.566   5.101   2.019
32946SOL     OW  734   6.164   9.503   4.010
32946SOL    HW1  735   6.199   9.487   4.097
32946SOL    HW2  736   6.206   9.437   3.954
32947SOL     OW  737  13.749   4.883   1.555
32947SOL    HW1  738  13.762   4.965   1.507
32947SOL    HW2  739  13.659   4.886   1.586
32948SOL     OW  740   0.855   1.026   9.709
32948SOL    HW1  741   0.806   0.992   9.784
32948SOL    HW2  742   0.921   0.960   9.692
32949SOL     OW  743  11.273   8.103  11.526
32949SOL    HW1  744  11.316   8.019  11.508
32949SOL    HW2  745  11.253   8.100  11.620
32950SOL     OW  746   9.118  14.436   2.253
32950SOL    HW1  747   9.076  14.435   2.339
32950SOL    HW2  748   9.205  14.473   2.270
32951SOL     OW  749  13.286  11.915  12.557
32951SOL    HW1  750  13.309  11.991  12.611
32951SOL    HW2  751  13.210  11.877  12.600
32952SOL     OW  752  10.642   4.284  11.103
32952SOL    HW1  753  10.718   4.315  11.153
32952SOL    HW2  754  10.590   4.363  11.089
32953SOL     OW  755   3.547   4.211  14.450
32953SOL    HW1  756   3.520   4.196  14.359
32953SOL    HW2  757   3.529   4.304  14.465
32954SOL     OW  758  11.033  11.992   0.328
32954SOL    HW1  759  10.964  12.027   0.384
32954SOL    HW2  760  11.071  11.920   0.379
32955SOL     OW  761   5.537   7.180   6.581
32955SOL    HW1  762   5.533   7.255   6.640
32955SOL    HW2  763   5.447   7.163   6.556
32956SOL     OW  764   9.285  11.993   4.739
32956SOL    HW1  765   9.249  12.079   4.714
32956SOL    HW2  766   9.286  11.943   4.657
32957SOL     OW  767  11.642  14.337  13.479
32957SOL    HW1  768  11.571  14.275  13.465
32957SOL    HW2  769  11.627  14.406  13.414
32958SOL     OW  770  13.423   9.365  11.634
32958SOL    HW1  771  13.436   9.441  11.578
32958SOL    HW2  772  13.408   9.292  11.574
32959SOL     OW  773   3.752  12.319  13.653
32959SOL    HW1  774   3.807  12.391  13.682
32959SOL    HW2  775   3.756  12.255  13.724
32960SOL     OW  776   1.120  12.230  11.922
32960SOL    HW1  777   1.190  12.202  11.864
32960SOL    HW2  778   1.120  12.164  11.992
32961SOL     OW  779   0.544   9.311   8.708
32961SOL    HW1  780   0.582   9.389   8.668
32961SOL    HW2  781   0.610   9.243   8.697
32962SOL     OW  782  13.347  10.537  12.184
32962SOL    HW1  783  13.261  10.574  12.166
32962SOL    HW2  784  13.343  10.449  12.147
32963SOL     OW  785  13.700   0.816   2.046
32963SOL    HW1  786  13.617   0.795   2.087
32963SOL    HW2  787  13.764   0.807   2.117
32964SOL     OW  788  12.018   4.221  11.330
32964SOL    HW1  789  11.986   4.182  11.248
32964SOL    HW2  790  11.949   4.281  11.357
32965SOL     OW  791   0.877   2.861   0.735
32965SOL    HW1  792   0.843   2.779   0.772
32965SOL    HW2  793   0.800   2.915   0.722
32966SOL     OW  794   6.028  13.078   0.956
32966SOL    HW1  795   5.989  13.108   0.874
32966SOL    HW2  796   6.120  13.103   0.950
32967SOL     OW  797  11.588  14.832   0.182
32967SOL    HW1  798  11.493  14.831   0.175
32967SOL    HW2  799  11.611  14.744   0.209
32968SOL     OW  800   9.828   2.568   9.212
32968SOL    HW1  801   9.835   2.474   9.197
32968SOL    HW2  802   9.755   2.578   9.272
32969SOL     OW  803   5.183  14.181   8.682
32969SOL    HW1  804   5.126  14.146   8.613
32969SOL    HW2  805   5.139  14.260   8.713
32970SOL     OW  806   5.857  13.478   8.432
32970SOL    HW1  807   5.827  13.419   8.362
32970SOL    HW2  808   5.902  13.420   8.493
32971SOL     OW  809   8.366   1.570   8.346
32971SOL    HW1  810   8.402   1.586   8.258
32971SOL    HW2  811   8.432   1.514   8.388
32972SOL     OW  812   1.889   5.108   0.133
32972SOL    HW1  813   1.797   5.082   0.134
32972SOL    HW2  814   1.922   5.084   0.219
32973SOL     OW  815  12.546   2.149   2.251
32973SOL    HW1  816  12.563   2.182   2.163
32973SOL    HW2  817  12.607   2.075   2.260
32974SOL     OW  818   4.325   7.961   6.649
32974SOL    HW1  819   4.291   7.974   6.737
32974SOL    HW2  820   4.320   7.867   6.634
32975SOL     OW  821   3.778   5.392   1.134
32975SOL    HW1  822   3.850   5.392   1.071
32975SOL    HW2  823   3.803   5.457   1.199
32976SOL     OW  824   1.279   0.888   9.363
32976SOL    HW1  825   1.360   0.839   9.372
32976SOL    HW2  826   1.290   0.963   9.422
32977SOL     OW  827   8.728   6.625  13.344
32977SOL    HW1  828   8.761   6.535  13.351
32977SOL    HW2  829   8.803   6.680  13.366
32978SOL     OW  830  10.130  13.997   0.774
32978SOL    HW1  831  10.195  13.928   0.790
32978SOL    HW2  832  10.061  13.953   0.725
32979SOL     OW  833   0.608  11.873   6.124
32979SOL    HW1  834   0.635  11.782   6.129
32979SOL    HW2  835   0.625  11.909   6.211
32980SOL     OW  836   0.395  14.820  11.217
32980SOL    HW1  837   0.456  14.748  11.232
32980SOL    HW2  838   0.311  14.787  11.249
32981SOL     OW  839   6.201   1.685   0.041
32981SOL    HW1  840   6.181   1.752  14.856
32981SOL    HW2  841   6.295   1.694   0.057
32982SOL     OW  842   7.095   2.500   9.760
32982SOL    HW1  843   7.035   2.567   9.794
32982SOL    HW2  844   7.182   2.534   9.780
32983SOL     OW  845   0.278   8.614  10.392
32983SOL    HW1  846   0.293   8.664  10.312
32983SOL    HW2  847   0.348   8.548  10.392
32984SOL     OW  848  14.400   1.261   3.259
32984SOL    HW1  849  14.457   1.338   3.264
32984SOL    HW2  850  14.332   1.285   3.197
32985SOL     OW  851  14.609   5.125  14.568
32985SOL    HW1  852  14.609   5.127  14.663
32985SOL    HW2  853  14.542   5.187  14.542
32986SOL     OW  854   2.644   9.800   0.769
32986SOL    HW1  855   2.734   9.829   0.781
32986SOL    HW2  856   2.620   9.762   0.854
32987SOL     OW  857   0.895   9.822   8.474
32987SOL    HW1  858   0.977   9.801   8.518
32987SOL    HW2  859   0.896   9.917   8.465
32988SOL     OW  860   7.144   8.863   5.123
32988SOL    HW1  861   7.169   8.848   5.032
32988SOL    HW2  862   7.227   8.864   5.171
32989SOL     OW  863   2.851  11.470   3.313
32989SOL    HW1  864   2.780  11.430   3.264
32989SOL    HW2  865   2.871  11.406   3.382
32990SOL     OW  866   1.596   9.204  14.513
32990SOL    HW1  867   1.618   9.124  14.466
32990SOL    HW2  868   1.547   9.257  14.450
32991SOL     OW  869  12.146   0.155   4.794
32991SOL    HW1  870  12.208   0.227   4.811
32991SOL    HW2  871  12.086   0.158   4.868
32992SOL     OW  872   8.313  11.722   3.731
32992SOL    HW1  873   8.365  11.741   3.810
32992SOL    HW2  874   8.269  11.640   3.750
32993SOL     OW  875  12.732  11.308   8.205
32993SOL    HW1  876  12.754  11.220   8.235
32993SOL    HW2  877  12.810  11.338   8.159
32994SOL     OW  878   0.489   5.038  10.176
32994SOL    HW1  879   0.508   5.115  10.230
32994SOL    HW2  880   0.575   5.004  10.152
32995SOL     OW  881   3.020  12.608   7.977
32995SOL    HW1  882   2.925  12.609   7.983
32995SOL    HW2  883   3.042  12.519   7.951
32996SOL     OW  884   7.612  11.513   2.483
32996SOL    HW1  885   7.636  11.457   2.409
32996SOL    HW2  886   7.517  11.519   2.478
32997SOL     OW  887   2.441   6.928   8.531
32997SOL    HW1  888   2.460   7.021   8.519
32997SOL    HW2  889   2.526   6.885   8.529
32998SOL     OW  890   2.766   4.237   5.668
32998SOL    HW1  891   2.758   4.306   5.602
32998SOL    HW2  892   2.728   4.277   5.747
32999SOL     OW  893   0.493   7.724   1.769
32999SOL    HW1  894   0.556   7.708   1.699
32999SOL    HW2  895   0.517   7.661   1.838
33000SOL     OW  896   0.168  10.515   4.671
33000SOL    HW1  897   0.157  10.437   4.724
33000SOL    HW2  898   0.262  10.534   4.674
33001SOL     OW  899   6.126   9.703   0.827
33001SOL    HW1  900   6.147   9.614   0.854
33001SOL    HW2  901   6.042   9.695   0.780
33002SOL     OW  902   4.339   4.313   0.357
33002SOL    HW1  903   4.406   4.247   0.372
33002SOL    HW2  904   4.298   4.325   0.443
33003SOL     OW  905  10.260   7.371   1.437
33003SOL    HW1  906  10.218   7.300   1.388
33003SOL    HW2  907  10.265   7.339   1.527
33004SOL     OW  908   6.715   7.354   1.236
33004SOL    HW1  909   6.726   7.380   1.145
33004SOL    HW2  910   6.765   7.419   1.286
33005SOL     OW  911   0.165   9.858   1.872
33005SOL    HW1  912   0.072   9.860   1.851
33005SOL    HW2  913   0.183   9.944   1.908
33006SOL     OW  914   2.022   7.213   9.484
33006SOL    HW1  915   2.069   7.135   9.513
33006SOL    HW2  916   2.054   7.229   9.395
33007SOL     OW  917  10.333   7.922   7.136
33007SOL    HW1  918  10.362   7.843   7.090
33007SOL    HW2  919  10.241   7.931   7.111
33008SOL     OW  920   3.268   4.945   1.172
33008SOL    HW1  921   3.239   5.023   1.125
33008SOL    HW2  922   3.363   4.942   1.159
33009SOL     OW  923   5.094   5.445   0.006
33009SOL    HW1  924   5.098   5.349  14.878
33009SOL    HW2  925   5.185   5.473   0.002
33010SOL     OW  926   7.776   0.194   0.567
33010SOL    HW1  927   7.772   0.150   0.652
33010SOL    HW2  928   7.730   0.277   0.581
33011SOL     OW  929   0.803   5.813   6.264
33011SOL    HW1  930   0.720   5.774   6.288
33011SOL    HW2  931   0.824   5.872   6.336
33012SOL     OW  932   3.418   4.569  13.363
33012SOL    HW1  933   3.464   4.525  13.435
33012SOL    HW2  934   3.420   4.506  13.291
33013SOL     OW  935   3.938   7.476   2.430
33013SOL    HW1  936   3.894   7.405   2.477
33013SOL    HW2  937   3.875   7.503   2.363
33014SOL     OW  938   2.990   4.053   4.535
33014SOL    HW1  939   2.963   3.994   4.465
33014SOL    HW2  940   3.039   4.123   4.491
33015SOL     OW  941  14.544   6.966   5.783
33015SOL    HW1  942  14.516   6.939   5.870
33015SOL    HW2  943  14.472   7.019   5.749
33016SOL     OW  944   7.692   6.294   7.397
33016SOL    HW1  945   7.634   6.240   7.342
33016SOL    HW2  946   7.749   6.338   7.334
33017SOL     OW  947   9.726   9.779  13.048
33017SOL    HW1  948   9.750   9.687  13.048
33017SOL    HW2  949   9.643   9.783  13.001
33018SOL     OW  950   0.012   7.178   1.260
33018SOL    HW1  951   0.029   7.272   1.263
33018SOL    HW2  952  14.801   7.170   1.232
33019SOL     OW  953   6.794   9.805  13.344
33019SOL    HW1  954   6.711   9.790  13.389
33019SOL    HW2  955   6.794   9.743  13.272
33020SOL     OW  956   3.047  14.349   5.768
33020SOL    HW1  957   3.077  14.357   5.859
33020SOL    HW2  958   3.062  14.257   5.746
33021SOL     OW  959  13.687   3.330   5.156
33021SOL    HW1  960  13.779   3.356   5.163
33021SOL    HW2  961  13.639   3.408   5.183
33022SOL     OW  962   7.781   2.822  10.524
33022SOL    HW1  963   7.771   2.730  10.502
33022SOL    HW2  964   7.738   2.831  10.609
33023SOL     OW  965   2.532  11.431   8.703
33023SOL    HW1  966   2.471  11.493   8.744
33023SOL    HW2  967   2.497  11.418   8.616
33024SOL     OW  968   6.570   7.725   7.958
33024SOL    HW1  969   6.633   7.761   7.896
33024SOL    HW2  970   6.559   7.793   8.024
33025SOL     OW  971  11.693   9.100   2.137
33025SOL    HW1  972  11.729   9.189   2.141
33025SOL    HW2  973  11.598   9.113   2.127
33026SOL     OW  974   1.979   6.958   7.111
33026SOL    HW1  975   1.936   7.044   7.110
33026SOL    HW2  976   1.987   6.934   7.018
33027SOL     OW  977  12.189   1.180  12.901
33027SOL    HW1  978  12.102   1.203  12.932
33027SOL    HW2  979  12.232   1.139  12.976
33028SOL     OW  980   2.691   2.638  11.741
33028SOL    HW1  981   2.604   2.677  11.732
33028SOL    HW2  982   2.737   2.696  11.800
33029SOL     OW  983   4.553  10.395   5.613
33029SOL    HW1  984   4.560  10.335   5.539
33029SOL    HW2  985   4.611  10.468   5.591
33030SOL     OW  986   1.591   1.425   3.643
33030SOL    HW1  987   1.670   1.408   3.696
33030SOL    HW2  988   1.538   1.346   3.654
33031SOL     OW  989  14.705  14.678   8.058
33031SOL    HW1  990  14.661  14.657   7.976
33031SOL    HW2  991  14.634  14.690   8.121
33032SOL     OW  992   0.074   4.022   1.154
33032SOL    HW1  993   0.111   3.940   1.187
33032SOL    HW2  994   0.140   4.088   1.174
33033SOL     OW  995   4.621  11.857   9.270
33033SOL    HW1  996   4.675  11.887   9.197
33033SOL    HW2  997   4.657  11.772   9.294
33034SOL     OW  998   0.972  12.067  12.373
33034SOL    HW1  999   0.938  12.119  12.446
33034SOL    HW2 1000   1.030  12.128  12.326
33035SOL     OW 1001   2.937   0.801   6.878
33035SOL    HW1 1002   3.017   0.840   6.844
33035SOL    HW2 1003   2.894   0.871   6.928
33036SOL     OW 1004   1.409   0.709  10.907
33036SOL    HW1 1005   1.400   0.792  10.954
33036SOL    HW2 1006   1.329   0.661  10.927
33037SOL     OW 1007   6.113  11.249   3.249
33037SOL    HW1 1008   6.171  11.271   3.322
33037SOL    HW2 1009   6.029  11.290   3.272
33038SOL     OW 1010   1.640   1.667   2.988
33038SOL    HW1 1011   1.713   1.729   2.978
33038SOL    HW2 1012   1.678   1.594   3.037
33039SOL     OW 1013  10.568   5.085   3.690
33039SOL    HW1 1014  10.649   5.034   3.701
33039SOL    HW2 1015  10.556   5.091   3.595
33040SOL     OW 1016  14.869  10.035  12.911
33040SOL    HW1 1017   0.020   9.949  12.941
33040SOL    HW2 1018   0.056  10.096  12.942
33041SOL     OW 1019   1.982   7.368   9.132
33041SOL    HW1 1020   1.954   7.394   9.044
33041SOL    HW2 1021   2.067   7.409   9.143
33042SOL     OW 1022   4.497  13.128   6.385
33042SOL    HW1 1023   4.540  13.043   6.396
33042SOL    HW2 1024   4.474  13.132   6.293
33043SOL     OW 1025   1.911   2.299   7.132
33043SOL    HW1 1026   1.928   2.349   7.212
33043SOL    HW2 1027   1.818   2.311   7.115
33044SOL     OW 1028  14.315   2.842  14.612
33044SOL    HW1 1029  14.348   2.835  14.522
33044SOL    HW2 1030  14.312   2.752  14.643
33045SOL     OW 1031  11.804   1.980   3.066
33045SOL    HW1 1032  11.814   2.062   3.114
33045SOL    HW2 1033  11.711   1.979   3.040
33046SOL     OW 1034   9.877   2.150   2.279
33046SOL    HW1 1035   9.921   2.065   2.283
33046SOL    HW2 1036   9.804   2.142   2.340
33047SOL     OW 1037  12.680   7.605   9.179
33047SOL    HW1 1038  12.715   7.603   9.090
33047SOL    HW2 1039  12.756   7.616   9.235
33048SOL     OW 1040   5.072  11.174   9.781
33048SOL    HW1 1041   5.030  11.088   9.786
33048SOL    HW2 1042   5.092  11.196   9.872
33049SOL     OW 1043  12.515  13.788   1.712
33049SOL    HW1 1044  12.487  13.767   1.801
33049SOL    HW2 1045  12.455  13.741   1.655
33050SOL     OW 1046   3.259   1.449   4.380
33050SOL    HW1 1047   3.233   1.369   4.425
33050SOL    HW2 1048   3.304   1.500   4.447
33051SOL     OW 1049  10.117   0.973   8.583
33051SOL    HW1 1050  10.092   0.882   8.600
33051SOL    HW2 1051  10.191   0.988   8.642
33052SOL     OW 1052   6.695   2.891   8.394
33052SOL    HW1 1053   6.748   2.936   8.329
33052SOL    HW2 1054   6.676   2.958   8.460
33053SOL     OW 1055  13.288  11.742  12.039
33053SOL    HW1 1056  13.271  11.808  12.106
33053SOL    HW2 1057  13.264  11.785  11.957
33054SOL     OW 1058   2.411   2.225  10.868
33054SOL    HW1 1059   2.487   2.215  10.810
33054SOL    HW2 1060   2.337   2.192  10.817
33055SOL     OW 1061   6.307  13.877   9.182
33055SOL    HW1 1062   6.240  13.927   9.137
33055SOL    HW2 1063   6.261  13.803   9.220
33056SOL     OW 1064   5.563  12.217  12.657
33056SOL    HW1 1065   5.572  12.123  12.669
33056SOL    HW2 1066   5.649  12.253  12.678
33057SOL     OW 1067   4.043  14.378   8.904
33057SOL    HW1 1068   3.964  14.367   8.852
33057SOL    HW2 1069   4.011  14.397   8.993
33058SOL     OW 1070   7.366   8.558   4.808
33058SOL    HW1 1071   7.355   8.473   4.765
33058SOL    HW2 1072   7.343   8.541   4.899
33059SOL     OW 1073  13.655   9.222   0.500
33059SOL    HW1 1074  13.725   9.198   0.440
33059SOL    HW2 1075  13.620   9.139   0.531
33060SOL     OW 1076  14.764   8.986  14.229
33060SOL    HW1 1077  14.719   8.920  14.176
33060SOL    HW2 1078  14.696   9.021  14.287
33061SOL     OW 1079  12.717   2.609   6.941
33061SOL    HW1 1080  12.764   2.542   6.891
33061SOL    HW2 1081  12.678   2.665   6.874
33062SOL     OW 1082   7.727   4.778   8.678
33062SOL    HW1 1083   7.771   4.780   8.593
33062SOL    HW2 1084   7.723   4.685   8.700
33063SOL     OW 1085   4.630   3.891  14.145
33063SOL    HW1 1086   4.718   3.889  14.109
33063SOL    HW2 1087   4.573   3.873  14.070
33064SOL     OW 1088   9.843   2.473  11.627
33064SOL    HW1 1089   9.760   2.477  11.580
33064SOL    HW2 1090   9.841   2.549  11.685
33065SOL     OW 1091   9.908   5.640   4.372
33065SOL    HW1 1092   9.848   5.700   4.328
33065SOL    HW2 1093   9.856   5.599   4.441
33066SOL     OW 1094  10.944   0.786   3.112
33066SOL    HW1 1095  10.935   0.708   3.167
33066SOL    HW2 1096  10.884   0.850   3.151
33067SOL     OW 1097   9.309   6.189   1.356
33067SOL    HW1 1098   9.243   6.151   1.297
33067SOL    HW2 1099   9.382   6.211   1.298
33068SOL     OW 1100   0.506   3.031  10.659
33068SOL    HW1 1101   0.564   2.997  10.591
33068SOL    HW2 1102   0.565   3.068  10.725
33069SOL     OW 1103   1.911   6.103  11.022
33069SOL    HW1 1104   1.967   6.173  10.989
33069SOL    HW2 1105   1.909   6.117  11.117
33070SOL     OW 1106   3.443   8.839   4.028
33070SOL    HW1 1107   3.403   8.777   3.966
33070SOL    HW2 1108   3.477   8.783   4.098
33071SOL     OW 1109   4.281  11.426   7.452
33071SOL    HW1 1110   4.358  11.447   7.505
33071SOL    HW2 1111   4.306  11.451   7.363
33072SOL     OW 1112  13.130  11.830  10.691
33072SOL    HW1 1113  13.066  11.865  10.628
33072SOL    HW2 1114  13.104  11.869  10.775
33073SOL     OW 1115   8.729   3.419   6.580
33073SOL    HW1 1116   8.728   3.493   6.640
33073SOL    HW2 1117   8.682   3.450   6.502
33074SOL     OW 1118   0.027  14.093   2.392
33074SOL    HW1 1119   0.110  14.132   2.420
33074SOL    HW2 1120  14.864  14.065   2.473
33075SOL     OW 1121   8.191   1.536   8.556
33075SOL    HW1 1122   8.110   1.487   8.543
33075SOL    HW2 1123   8.223   1.553   8.468
33076SOL     OW 1124  14.532  11.151   8.368
33076SOL    HW1 1125  14.548  11.102   8.448
33076SOL    HW2 1126  14.594  11.116   8.305
33077SOL     OW 1127   4.475   6.268   4.559
33077SOL    HW1 1128   4.538   6.340   4.555
33077SOL    HW2 1129   4.520   6.195   4.517
33078SOL     OW 1130   3.390   6.068  10.002
33078SOL    HW1 1131   3.349   6.054   9.917
33078SOL    HW2 1132   3.325   6.114  10.054
33079SOL     OW 1133   8.344   6.416   1.687
33079SOL    HW1 1134   8.273   6.463   1.643
33079SOL    HW2 1135   8.421   6.471   1.674
33080SOL     OW 1136   8.401   5.792   9.048
33080SOL    HW1 1137   8.448   5.822   8.970
33080SOL    HW2 1138   8.325   5.851   9.054
33081SOL     OW 1139   1.687  11.410   3.855
33081SOL    HW1 1140   1.645  11.328   3.879
33081SOL    HW2 1141   1.629  11.478   3.891
33082SOL     OW 1142   4.444  10.041   6.998
33082SOL    HW1 1143   4.497   9.999   6.930
33082SOL    HW2 1144   4.463   9.991   7.077
33083SOL     OW 1145   5.330   4.963   7.124
33083SOL    HW1 1146   5.250   5.009   7.148
33083SOL    HW2 1147   5.307   4.912   7.046
33084SOL     OW 1148  13.610  12.720   7.610
33084SOL    HW1 1149  13.635  12.628   7.621
33084SOL    HW2 1150  13.692  12.768   7.610
33085SOL     OW 1151   4.418   2.261   7.838
33085SOL    HW1 1152   4.457   2.261   7.750
33085SOL    HW2 1153   4.332   2.222   7.826
33086SOL     OW 1154   5.677   0.226  12.707
33086SOL    HW1 1155   5.692   0.220  12.613
33086SOL    HW2 1156   5.597   0.277  12.715
33087SOL     OW 1157  10.934  12.173   5.930
33087SOL    HW1 1158  10.888  12.140   5.853
33087SOL    HW2 1159  11.016  12.208   5.896
33088SOL     OW 1160   4.685  11.199   7.307
33088SOL    HW1 1161   4.738  11.277   7.293
33088SOL    HW2 1162   4.604  11.216   7.258
33089SOL     OW 1163   8.507   4.118  13.893
33089SOL    HW1 1164   8.564   4.068  13.835
33089SOL    HW2 1165   8.437   4.150  13.837
33090SOL     OW 1166   2.879   4.140   9.323
33090SOL    HW1 1167   2.806   4.155   9.263
33090SOL    HW2 1168   2.912   4.227   9.343
33091SOL     OW 1169   9.545  14.093   5.880
33091SOL    HW1 1170   9.636  14.119   5.863
33091SOL    HW2 1171   9.537  14.006   5.841
33092SOL     OW 1172   9.594   8.458   2.847
33092SOL    HW1 1173   9.631   8.508   2.774
33092SOL    HW2 1174   9.518   8.414   2.810
33093SOL     OW 1175  14.846   4.995   8.660
33093SOL    HW1 1176  14.856   4.940   8.738
33093SOL    HW2 1177  14.858   4.934   8.587
33094SOL     OW 1178   2.456  13.425  10.895
33094SOL    HW1 1179   2.464  13.331  10.911
33094SOL    HW2 1180   2.542  13.451  10.862
33095SOL     OW 1181   2.216  10.284   0.754
33095SOL    HW1 1182   2.263  10.261   0.834
33095SOL    HW2 1183   2.183  10.200   0.721
33096SOL     OW 1184  13.700   3.816  14.238
33096SOL    HW1 1185  13.636   3.887  14.249
33096SOL    HW2 1186  13.709   3.807  14.143
33097SOL     OW 1187   8.579  11.237   6.974
33097SOL    HW1 1188   8.620  11.187   6.903
33097SOL    HW2 1189   8.566  11.173   7.044
33098SOL     OW 1190  10.923  11.263   2.712
33098SOL    HW1 1191  10.955  11.309   2.635
33098SOL    HW2 1192  10.874  11.189   2.677
33099SOL     OW 1193  10.556  11.022   3.099
33099SOL    HW1 1194  10.551  11.113   3.129
33099SOL    HW2 1195  10.482  11.012   3.040
33100SOL     OW 1196   9.807  12.494   6.002
33100SOL    HW1 1197   9.855  12.423   6.044
33100SOL    HW2 1198   9.776  12.456   5.920
33101SOL     OW 1199   6.198   0.450   2.780
33101SOL    HW1 1200   6.242   0.498   2.709
33101SOL    HW2 1201   6.262   0.447   2.850
33102SOL     OW 1202  14.669  13.295   5.496
33102SOL    HW1 1203  14.608  13.339   5.555
33102SOL    HW2 1204  14.617  13.226   5.455
33103SOL     OW 1205   2.010  11.186   4.728
33103SOL    HW1 1206   1.973  11.153   4.810
33103SOL    HW2 1207   2.032  11.277   4.747
33104SOL     OW 1208  10.621   0.673   2.956
33104SOL    HW1 1209  10.587   0.586   2.934
33104SOL    HW2 1210  10.634   0.670   3.051
33105SOL     OW 1211  14.067  13.037   7.445
33105SOL    HW1 1212  13.975  13.046   7.420
33105SOL    HW2 1213  14.113  13.020   7.363
33106SOL     OW 1214   2.383   2.860  12.331
33106SOL    HW1 1215   2.469   2.832  12.302
33106SOL    HW2 1216   2.330   2.780  12.330
33107SOL     OW 1217   5.540  14.485   6.250
33107SOL    HW1 1218   5.608  14.418   6.245
33107SOL    HW2 1219   5.458  14.436   6.245
33108SOL     OW 1220   2.331   1.238   8.913
33108SOL    HW1 1221   2.271   1.183   8.863
33108SOL    HW2 1222   2.280   1.316   8.934
33109SOL     OW 1223   5.824   6.629   0.797
33109SOL    HW1 1224   5.910   6.616   0.758
33109SOL    HW2 1225   5.832   6.591   0.885
33110SOL     OW 1226  10.158  14.707   7.654
33110SOL    HW1 1227  10.201  14.633   7.612
33110SOL    HW2 1228  10.099  14.666   7.719
33111SOL     OW 1229   6.766   4.471   8.259
33111SOL    HW1 1230   6.796   4.560   8.240
33111SOL    HW2 1231   6.789   4.421   8.180
33112SOL     OW 1232  11.590   0.739   5.307
33112SOL    HW1 1233  11.636   0.690   5.239
33112SOL    HW2 1234  11.497   0.729   5.285
33113SOL     OW 1235   2.221  14.826   1.893
33113SOL    HW1 1236   2.253   0.036   1.887
33113SOL    HW2 1237   2.270  14.788   1.966
33114SOL     OW 1238  10.492   0.376   4.294
33114SOL    HW1 1239  10.440   0.345   4.368
33114SOL    HW2 1240  10.528   0.460   4.323
33115SOL     OW 1241  11.895   8.353  14.389
33115SOL    HW1 1242  11.846   8.433  14.369
33115SOL    HW2 1243  11.947   8.337  14.311
33116SOL     OW 1244   1.183   1.514   1.437
33116SOL    HW1 1245   1.088   1.522   1.447
33116SOL    HW2 1246   1.203   1.571   1.362
33117SOL     OW 1247  10.620  12.797   6.347
33117SOL    HW1 1248  10.716  12.793   6.348
33117SOL    HW2 1249  10.600  12.891   6.355
33118SOL     OW 1250  12.660  13.878   9.901
33118SOL    HW1 1251  12.718  13.837   9.837
33118SOL    HW2 1252  12.673  13.828   9.981
33119SOL     OW 1253   3.320  10.365   1.380
33119SOL    HW1 1254   3.353  10.322   1.459
33119SOL    HW2 1255   3.370  10.446   1.373
33120SOL     OW 1256   6.321   3.621  14.774
33120SOL    HW1 1257   6.370   3.649  14.696
33120SOL    HW2 1258   6.259   3.556  14.741
33121SOL     OW 1259  12.038   2.144   5.850
33121SOL    HW1 1260  11.998   2.224   5.818
33121SOL    HW2 1261  12.031   2.150   5.946
33122SOL     OW 1262  14.295   7.344   1.929
33122SOL    HW1 1263  14.349   7.327   1.852
33122SOL    HW2 1264  14.217   7.388   1.894
33123SOL     OW 1265   6.778   0.806   1.897
33123SOL    HW1 1266   6.837   0.805   1.821
33123SOL    HW2 1267   6.708   0.746   1.874
33124SOL     OW 1268  12.736  12.894   7.635
33124SOL    HW1 1269  12.739  12.800   7.651
33124SOL    HW2 1270  12.775  12.905   7.548
33125SOL     OW 1271   3.503   3.902   2.414
33125SOL    HW1 1272   3.528   3.991   2.390
33125SOL    HW2 1273   3.487   3.906   2.508
33126SOL     OW 1274  13.329  10.375   0.606
33126SOL    HW1 1275  13.287  10.451   0.647
33126SOL    HW2 1276  13.266  10.304   0.615
33127SOL     OW 1277   4.068  11.087   8.604
33127SOL    HW1 1278   4.107  11.010   8.646
33127SOL    HW2 1279   3.981  11.093   8.641
33128SOL     OW 1280   3.983  14.249   1.705
33128SOL    HW1 1281   3.991  14.159   1.737
33128SOL    HW2 1282   4.062  14.292   1.737
33129SOL     OW 1283  14.402  12.861  14.168
33129SOL    HW1 1284  14.320  12.877  14.122
33129SOL    HW2 1285  14.458  12.818  14.104
33130SOL     OW 1286   2.227  10.596  12.357
33130SOL    HW1 1287   2.185  10.514  12.331
33130SOL    HW2 1288   2.321  10.578  12.350
33131SOL     OW 1289   2.221   7.476   9.148
33131SOL    HW1 1290   2.289   7.539   9.125
33131SOL    HW2 1291   2.267   7.406   9.195
33132SOL     OW 1292   6.985  11.378   4.196
33132SOL    HW1 1293   6.914  11.436   4.171
33132SOL    HW2 1294   6.990  11.385   4.291
33133SOL     OW 1295   6.830   2.337   4.131
33133SOL    HW1 1296   6.908   2.307   4.178
33133SOL    HW2 1297   6.852   2.326   4.039
33134SOL     OW 1298   9.716  10.300  14.345
33134SOL    HW1 1299   9.717  10.395  14.356
33134SOL    HW2 1300   9.752  10.267  14.427
33135SOL     OW 1301  12.754  14.400   6.333
33135SOL    HW1 1302  12.847  14.392   6.356
33135SOL    HW2 1303  12.738  14.494   6.331
33136SOL     OW 1304   9.969   5.776   6.358
33136SOL    HW1 1305  10.025   5.784   6.436
33136SOL    HW2 1306  10.024   5.730   6.294
33137SOL     OW 1307   2.851   4.694  12.873
33137SOL    HW1 1308   2.891   4.771  12.915
33137SOL    HW2 1309   2.831   4.723  12.784
33138SOL     OW 1310   7.107   3.914   4.684
33138SOL    HW1 1311   7.151   3.932   4.600
33138SOL    HW2 1312   7.074   3.825   4.675
33139SOL     OW 1313   9.377   2.890   7.086
33139SOL    HW1 1314   9.374   2.927   7.174
33139SOL    HW2 1315   9.377   2.967   7.028
33140SOL     OW 1316   1.417  13.092  14.801
33140SOL    HW1 1317   1.427  13.167  14.743
33140SOL    HW2 1318   1.349  13.119  14.863
33141SOL     OW 1319  10.028  10.944   5.151
33141SOL    HW1 1320  10.059  10.991   5.228
33141SOL    HW2 1321  10.077  10.862   5.152
33142SOL     OW 1322   5.651  11.545  12.916
33142SOL    HW1 1323   5.556  11.554  12.917
33142SOL    HW2 1324   5.678  11.563  13.006
33143SOL     OW 1325   8.861  10.125  11.288
33143SOL    HW1 1326   8.900  10.054  11.340
33143SOL    HW2 1327   8.895  10.205  11.327
33144SOL     OW 1328   5.678  11.334  10.084
33144SOL    HW1 1329   5.732  11.358  10.009
33144SOL    HW2 1330   5.632  11.415  10.108
33145SOL     OW 1331   0.714   0.913   5.310
33145SOL    HW1 1332   0.784   0.867   5.358
33145SOL    HW2 1333   0.702   0.995   5.358
33146SOL     OW 1334   3.147   2.914   3.364
33146SOL    HW1 1335   3.105   2.879   3.443
33146SOL    HW2 1336   3.240   2.914   3.384
33147SOL     OW 1337   2.729   5.898   0.167
33147SOL    HW1 1338   2.670   5.830   0.136
33147SOL    HW2 1339   2.815   5.856   0.169
33148SOL     OW 1340   1.169  12.094   2.901
33148SOL    HW1 1341   1.174  12.118   2.808
33148SOL    HW2 1342   1.224  12.158   2.945
33149SOL     OW 1343   1.221  14.367  11.669
33149SOL    HW1 1344   1.308  14.342  11.639
33149SOL    HW2 1345   1.206  14.454  11.630
33150SOL     OW 1346  12.835   2.937  10.871
33150SOL    HW1 1347  12.930   2.935  10.884
33150SOL    HW2 1348  12.809   3.024  10.901
33151SOL     OW 1349   1.488  11.578  13.537
33151SOL    HW1 1350   1.508  11.643  13.604
33151SOL    HW2 1351   1.508  11.623  13.454
33152SOL     OW 1352   2.924  12.942  13.166
33152SOL    HW1 1353   2.923  12.864  13.110
33152SOL    HW2 1354   2.835  12.975  13.163
33153SOL     OW 1355   1.052   4.767   6.292
33153SOL    HW1 1356   0.960   4.795   6.292
33153SOL    HW2 1357   1.053   4.690   6.348
33154SOL     OW 1358  12.278   4.960   9.594
33154SOL    HW1 1359  12.318   5.000   9.516
33154SOL    HW2 1360  12.270   5.032   9.656
33155SOL     OW 1361   3.273  11.798   4.576
33155SOL    HW1 1362   3.220  11.756   4.643
33155SOL    HW2 1363   3.292  11.728   4.514
33156SOL     OW 1364   5.231   8.176   2.479
33156SOL    HW1 1365   5.194   8.161   2.392
33156SOL    HW2 1366   5.203   8.265   2.502
33157SOL     OW 1367   4.021   7.649   7.525
33157SOL    HW1 1368   4.008   7.599   7.605
33157SOL    HW2 1369   3.977   7.598   7.456
33158SOL     OW 1370  10.815   7.416   3.667
33158SOL    HW1 1371  10.827   7.411   3.572
33158SOL    HW2 1372  10.760   7.493   3.681
33159SOL     OW 1373   7.172   9.259   8.627
33159SOL    HW1 1374   7.205   9.170   8.629
33159SOL    HW2 1375   7.224   9.303   8.559
33160SOL     OW 1376  11.020   2.167  11.388
33160SOL    HW1 1377  11.115   2.176  11.402
33160SOL    HW2 1378  11.005   2.205  11.301
33161SOL     OW 1379  13.250  14.410  14.738
33161SOL    HW1 1380  13.240  14.374  14.650
33161SOL    HW2 1381  13.318  14.357  14.778
33162SOL     OW 1382   0.250   5.737  10.967
33162SOL    HW1 1383   0.342   5.732  10.992
33162SOL    HW2 1384   0.207   5.778  11.042
33163SOL     OW 1385   6.842  11.170   7.822
33163SOL    HW1 1386   6.835  11.099   7.758
33163SOL    HW2 1387   6.889  11.239   7.775
33164SOL     OW 1388   5.573   0.579   1.626
33164SOL    HW1 1389   5.578   0.537   1.712
33164SOL    HW2 1390   5.479   0.585   1.607
33165SOL     OW 1391   0.627   6.027  11.027
33165SOL    HW1 1392   0.593   5.938  11.017
33165SOL    HW2 1393   0.712   6.015  11.069
33166SOL     OW 1394   6.491   1.953   2.878
33166SOL    HW1 1395   6.546   1.877   2.896
33166SOL    HW2 1396   6.435   1.960   2.955
33167SOL     OW 1397  12.353  10.053   6.198
33167SOL    HW1 1398  12.262  10.033   6.176
33167SOL    HW2 1399  12.380   9.981   6.256
33168SOL     OW 1400   0.766   2.040  13.154
33168SOL    HW1 1401   0.681   2.007  13.183
33168SOL    HW2 1402   0.820   2.038  13.233
33169SOL     OW 1403   9.685   0.925   1.581
33169SOL    HW1 1404   9.757   0.946   1.641
33169SOL    HW2 1405   9.667   0.832   1.597
33170SOL     OW 1406   3.958   0.935  12.071
33170SOL    HW1 1407   3.928   1.024  12.054
33170SOL    HW2 1408   3.916   0.911  12.154
33171SOL     OW 1409  14.170   6.138  10.624
33171SOL    HW1 1410  14.207   6.223  10.602
33171SOL    HW2 1411  14.203   6.079  10.557
33172SOL     OW 1412   3.202   8.672  12.193
33172SOL    HW1 1413   3.282   8.664  12.141
33172SOL    HW2 1414   3.220   8.744  12.253
33173SOL     OW 1415   0.482   9.584  12.579
33173SOL    HW1 1416   0.503   9.631  12.660
33173SOL    HW2 1417   0.566   9.574  12.534
33174SOL     OW 1418   8.919   0.471   9.330
33174SOL    HW1 1419   8.906   0.462   9.235
33174SOL    HW2 1420   8.992   0.412   9.350
33175SOL     OW 1421   2.236  14.103   4.673
33175SOL    HW1 1422   2.144  14.110   4.649
33175SOL    HW2 1423   2.244  14.016   4.712
33176SOL     OW 1424   2.236   2.054   6.370
33176SOL    HW1 1425   2.253   2.148   6.364
33176SOL    HW2 1426   2.291   2.025   6.443
33177SOL     OW 1427   3.001  14.808   9.453
33177SOL    HW1 1428   3.042  14.800   9.540
33177SOL    HW2 1429   2.925  14.748   9.458
33178SOL     OW 1430   1.934  11.374  11.629
33178SOL    HW1 1431   1.912  11.288  11.665
33178SOL    HW2 1432   2.001  11.356  11.563
33179SOL     OW 1433  14.401   1.565   1.602
33179SOL    HW1 1434  14.334   1.500   1.621
33179SOL    HW2 1435  14.483   1.515   1.599
33180SOL     OW 1436   5.224   9.915   2.046
33180SOL    HW1 1437   5.237   9.888   1.956
33180SOL    HW2 1438   5.250  10.007   2.048
33181SOL     OW 1439   1.496   0.462   8.015
33181SOL    HW1 1440   1.577   0.502   7.982
33181SOL    HW2 1441   1.511   0.367   8.006
33182SOL     OW 1442   4.112  12.845  10.202
33182SOL    HW1 1443   4.163  12.817  10.277
33182SOL    HW2 1444   4.091  12.937  10.220
33183SOL     OW 1445   8.727  13.487   2.374
33183SOL    HW1 1446   8.695  13.426   2.440
33183SOL    HW2 1447   8.651  13.541   2.352
33184SOL     OW 1448   1.834   8.141  11.227
33184SOL    HW1 1449   1.779   8.179  11.295
33184SOL    HW2 1450   1.807   8.049  11.223
33185SOL     OW 1451  13.074  14.836   7.622
33185SOL    HW1 1452  13.001  14.778   7.599
33185SOL    HW2 1453  13.145  14.808   7.565
33186SOL     OW 1454  14.427  14.669   6.492
33186SOL    HW1 1455  14.504  14.623   6.460
33186SOL    HW2 1456  14.370  14.678   6.416
33187SOL     OW 1457  12.529  12.322  13.715
33187SOL    HW1 1458  12.459  12.258  13.719
33187SOL    HW2 1459  12.606  12.272  13.689
33188SOL     OW 1460   6.329   3.605  11.562
33188SOL    HW1 1461   6.328   3.516  11.596
33188SOL    HW2 1462   6.259   3.608  11.497
33189SOL     OW 1463   5.890   8.649   4.831
33189SOL    HW1 1464   5.828   8.706   4.878
33189SOL    HW2 1465   5.951   8.619   4.898
33190SOL     OW 1466   2.415  13.016   7.744
33190SOL    HW1 1467   2.350  13.085   7.737
33190SOL    HW2 1468   2.479  13.049   7.807
33191SOL     OW 1469   9.722   4.387  14.201
33191SOL    HW1 1470   9.726   4.425  14.113
33191SOL    HW2 1471   9.787   4.316  14.198
33192SOL     OW 1472  12.668   0.081   5.198
33192SOL    HW1 1473  12.614   0.151   5.236
33192SOL    HW2 1474  12.641   0.002   5.245
33193SOL     OW 1475   9.867   6.819   7.513
33193SOL    HW1 1476   9.800   6.865   7.462
33193SOL    HW2 1477   9.830   6.732   7.527
33194SOL     OW 1478   0.044   7.632  14.406
33194SOL    HW1 1479  14.835   7.614  14.374
33194SOL    HW2 1480   0.079   7.545  14.429
33195SOL     OW 1481  13.563  13.353   0.473
33195SOL    HW1 1482  13.582  13.333   0.565
33195SOL    HW2 1483  13.477  13.314   0.457
33196SOL     OW 1484   1.156   8.216  12.470
33196SOL    HW1 1485   1.239   8.190  12.510
33196SOL    HW2 1486   1.175   8.225  12.377
33197SOL     OW 1487   8.596   1.064   9.239
33197SOL    HW1 1488   8.587   1.158   9.256
33197SOL    HW2 1489   8.522   1.042   9.182
33198SOL     OW 1490   7.515   6.650   7.819
33198SOL    HW1 1491   7.546   6.735   7.787
33198SOL    HW2 1492   7.585   6.619   7.877
33199SOL     OW 1493   1.101   9.940   1.184
33199SOL    HW1 1494   1.123   9.983   1.101
33199SOL    HW2 1495   1.006   9.934   1.182
33200SOL     OW 1496  12.461  11.198  10.642
33200SOL    HW1 1497  12.388  11.259  10.645
33200SOL    HW2 1498  12.500  11.210  10.555
33201SOL     OW 1499  12.143  14.551   9.909
33201SOL    HW1 1500  12.092  14.478   9.874
33201SOL    HW2 1501  12.216  14.509   9.955
33202SOL     OW 1502   2.459   1.736  10.837
33202SOL    HW1 1503   2.480   1.645  10.816
33202SOL    HW2 1504   2.364   1.739  10.841
33203SOL     OW 1505   5.171  14.369   8.368
33203SOL    HW1 1506   5.246  14.312   8.384
33203SOL    HW2 1507   5.189  14.447   8.421
33204SOL     OW 1508   2.038  13.242   5.058
33204SOL    HW1 1509   2.015  13.161   5.013
33204SOL    HW2 1510   1.967  13.302   5.037
33205SOL     OW 1511   3.099   0.733   1.258
33205SOL    HW1 1512   3.033   0.692   1.201
33205SOL    HW2 1513   3.181   0.691   1.233
33206SOL     OW 1514   5.362   9.305  13.282
33206SOL    HW1 1515   5.316   9.243  13.339
33206SOL    HW2 1516   5.372   9.384  13.336
33207SOL     OW 1517   2.178   1.962   9.912
33207SOL    HW1 1518   2.174   1.987  10.004
33207SOL    HW2 1519   2.231   1.883   9.910
33208SOL     OW 1520  11.472   5.247   4.644
33208SOL    HW1 1521  11.557   5.288   4.662
33208SOL    HW2 1522  11.422   5.314   4.598
33209SOL     OW 1523   9.601  10.498  13.586
33209SOL    HW1 1524   9.603  10.581  13.538
33209SOL    HW2 1525   9.560  10.436  13.527
33210SOL     OW 1526   8.482   4.317  12.581
33210SOL    HW1 1527   8.495   4.356  12.667
33210SOL    HW2 1528   8.470   4.224  12.599
33211SOL     OW 1529   3.071   5.859   2.744
33211SOL    HW1 1530   3.082   5.862   2.649
33211SOL    HW2 1531   3.042   5.947   2.769
33212SOL     OW 1532   0.569   9.730   2.668
33212SOL    HW1 1533   0.588   9.644   2.704
33212SOL    HW2 1534   0.600   9.792   2.734
33213SOL     OW 1535  11.506  13.565   0.795
33213SOL    HW1 1536  11.543  13.569   0.707
33213SOL    HW2 1537  11.500  13.471   0.814
33214SOL     OW 1538   9.722   1.943   9.792
33214SOL    HW1 1539   9.684   1.855   9.797
33214SOL    HW2 1540   9.706   1.971   9.702
33215SOL     OW 1541   5.381   8.222   0.729
33215SOL    HW1 1542   5.426   8.253   0.651
33215SOL    HW2 1543   5.304   8.279   0.736
33216SOL     OW 1544   3.540   5.561   9.063
33216SOL    HW1 1545   3.611   5.621   9.041
33216SOL    HW2 1546   3.578   5.500   9.125
33217SOL     OW 1547   8.951   1.337   0.833
33217SOL    HW1 1548   9.008   1.413   0.820
33217SOL    HW2 1549   8.896   1.360   0.908
33218SOL     OW 1550   6.363  12.733   5.092
33218SOL    HW1 1551   6.322  12.816   5.118
33218SOL    HW2 1552   6.412  12.705   5.169
33219SOL     OW 1553   5.762  10.344   8.380
33219SOL    HW1 1554   5.833  10.372   8.322
33219SOL    HW2 1555   5.789  10.257   8.410
33220SOL     OW 1556   9.605  11.251   2.424
33220SOL    HW1 1557   9.662  11.211   2.490
33220SOL    HW2 1558   9.651  11.330   2.398
33221SOL     OW 1559   3.496   1.068   5.870
33221SOL    HW1 1560   3.573   1.100   5.916
33221SOL    HW2 1561   3.519   1.072   5.778
33222SOL     OW 1562   2.665   4.504  10.776
33222SOL    HW1 1563   2.685   4.522  10.684
33222SOL    HW2 1564   2.605   4.429  10.773
33223SOL     OW 1565   9.479   4.556   8.368
33223SOL    HW1 1566   9.565   4.517   8.352
33223SOL    HW2 1567   9.418   4.482   8.363
33224SOL     OW 1568   7.306   1.508   6.948
33224SOL    HW1 1569   7.255   1.568   7.003
33224SOL    HW2 1570   7.342   1.444   7.009
33225SOL     OW 1571   1.531  10.812   0.869
33225SOL    HW1 1572   1.523  10.733   0.816
33225SOL    HW2 1573   1.625  10.832   0.869
33226SOL     OW 1574   9.844   3.288   8.678
33226SOL    HW1 1575   9.833   3.249   8.592
33226SOL    HW2 1576   9.824   3.381   8.664
33227SOL     OW 1577  13.270   9.506  12.458
33227SOL    HW1 1578  13.277   9.490  12.364
33227SOL    HW2 1579  13.295   9.423  12.499
33228SOL     OW 1580  11.608   5.579   3.817
33228SOL    HW1 1581  11.632   5.506   3.874
33228SOL    HW2 1582  11.670   5.573   3.744
33229SOL     OW 1583   5.012  13.279   8.358
33229SOL    HW1 1584   5.058  13.200   8.387
33229SOL    HW2 1585   4.919  13.255   8.363
33230SOL     OW 1586   3.331  12.506   7.559
33230SOL    HW1 1587   3.400  12.499   7.494
33230SOL    HW2 1588   3.283  12.586   7.536
33231SOL     OW 1589   0.855   7.776   9.978
33231SOL    HW1 1590   0.892   7.852   9.933
33231SOL    HW2 1591   0.833   7.715   9.907
33232SOL     OW 1592   9.284   8.257  10.924
33232SOL    HW1 1593   9.336   8.263  10.843
33232SOL    HW2 1594   9.194   8.271  10.895
33233SOL     OW 1595  11.740   1.962   6.704
33233SOL    HW1 1596  11.674   1.962   6.772
33233SOL    HW2 1597  11.818   1.924   6.745
33234SOL     OW 1598   4.021   6.303   4.942
33234SOL    HW1 1599   4.066   6.326   5.023
33234SOL    HW2 1600   4.047   6.371   4.879
33235SOL     OW 1601   4.781   4.879  10.265
33235SOL    HW1 1602   4.848   4.931  10.310
33235SOL    HW2 1603   4.735   4.834  10.335
33236SOL     OW 1604   3.128   7.979  13.751
33236SOL    HW1 1605   3.072   8.039  13.802
33236SOL    HW2 1606   3.197   7.954  13.812
33237SOL     OW 1607  13.776  11.187   9.949
33237SOL    HW1 1608  13.698  11.145   9.912
33237SOL    HW2 1609  13.787  11.147  10.035
33238SOL     OW 1610   8.074   6.584   0.074
33238SOL    HW1 1611   8.049   6.564  14.863
33238SOL    HW2 1612   8.167   6.608   0.069
33239SOL     OW 1613   6.376   7.309   3.108
33239SOL    HW1 1614   6.296   7.361   3.099
33239SOL    HW2 1615   6.385   7.295   3.202
33240SOL     OW 1616   0.295  14.346  13.567
33240SOL    HW1 1617   0.228  14.316  13.506
33240SOL    HW2 1618   0.369  14.369  13.512
33241SOL     OW 1619   2.040  11.341  10.011
33241SOL    HW1 1620   1.996  11.338   9.926
33241SOL    HW2 1621   2.093  11.420  10.008
33242SOL     OW 1622   1.086   3.432   3.823
33242SOL    HW1 1623   1.123   3.470   3.743
33242SOL    HW2 1624   1.160   3.390   3.866
33243SOL     OW 1625   2.188   2.808  11.861
33243SOL    HW1 1626   2.186   2.759  11.779
33243SOL    HW2 1627   2.223   2.894  11.837
33244SOL     OW 1628   1.342   2.661   1.959
33244SOL    HW1 1629   1.259   2.646   1.913
33244SOL    HW2 1630   1.343   2.595   2.027
33245SOL     OW 1631  12.735  11.988   1.984
33245SOL    HW1 1632  12.644  11.957   1.981
33245SOL    HW2 1633  12.728  12.083   1.982
33246SOL     OW 1634   6.302   3.851   6.500
33246SOL    HW1 1635   6.297   3.838   6.594
33246SOL    HW2 1636   6.230   3.910   6.480
33247SOL     OW 1637   2.208   8.980   8.007
33247SOL    HW1 1638   2.245   9.036   8.075
33247SOL    HW2 1639   2.152   9.038   7.956
33248SOL     OW 1640   8.891  14.142   1.974
33248SOL    HW1 1641   8.802  14.179   1.969
33248SOL    HW2 1642   8.946  14.216   2.002
33249SOL     OW 1643   0.907  12.597   5.630
33249SOL    HW1 1644   0.852  12.521   5.612
33249SOL    HW2 1645   0.926  12.634   5.544
33250SOL     OW 1646   4.072   4.429   1.441
33250SOL    HW1 1647   4.090   4.376   1.364
33250SOL    HW2 1648   4.074   4.519   1.409
33251SOL     OW 1649   7.385   0.008   0.768
33251SOL    HW1 1650   7.362   0.033   0.679
33251SOL    HW2 1651   7.372  14.792   0.771
33252SOL     OW 1652  13.635   9.513  14.867
33252SOL    HW1 1653  13.616   9.434  14.817
33252SOL    HW2 1654  13.707   9.487   0.046
33253SOL     OW 1655   8.870   3.029   2.543
33253SOL    HW1 1656   8.952   3.052   2.586
33253SOL    HW2 1657   8.845   2.945   2.581
33254SOL     OW 1658  11.407   5.390  12.447
33254SOL    HW1 1659  11.439   5.382  12.357
33254SOL    HW2 1660  11.387   5.301  12.474
33255SOL     OW 1661   4.241   3.171   8.656
33255SOL    HW1 1662   4.182   3.242   8.679
33255SOL    HW2 1663   4.189   3.091   8.668
33256SOL     OW 1664   8.856   2.838   2.785
33256SOL    HW1 1665   8.796   2.780   2.832
33256SOL    HW2 1666   8.923   2.780   2.750
33257SOL     OW 1667   1.433   2.535   7.069
33257SOL    HW1 1668   1.442   2.629   7.081
33257SOL    HW2 1669   1.522   2.503   7.056
33258SOL     OW 1670  14.596   3.177  11.041
33258SOL    HW1 1671  14.629   3.125  11.114
33258SOL    HW2 1672  14.616   3.124  10.964
33259SOL     OW 1673  11.374   5.098   0.671
33259SOL    HW1 1674  11.286   5.084   0.707
33259SOL    HW2 1675  11.378   5.192   0.652
33260SOL     OW 1676   6.425   0.953   2.656
33260SOL    HW1 1677   6.463   0.876   2.614
33260SOL    HW2 1678   6.358   0.984   2.595
33261SOL     OW 1679   8.588  12.853  13.116
33261SOL    HW1 1680   8.514  12.912  13.109
33261SOL    HW2 1681   8.553  12.774  13.157
33262SOL     OW 1682  10.428   2.167   7.088
33262SOL    HW1 1683  10.486   2.096   7.116
33262SOL    HW2 1684  10.364   2.174   7.158
33263SOL     OW 1685   6.419   6.064  14.071
33263SOL    HW1 1686   6.379   6.077  13.985
33263SOL    HW2 1687   6.397   5.973  14.094
33264SOL     OW 1688   7.992   9.562   0.937
33264SOL    HW1 1689   8.064   9.619   0.964
33264SOL    HW2 1690   7.961   9.522   1.018
33265SOL     OW 1691  14.242   9.776   9.809
33265SOL    HW1 1692  14.251   9.691   9.851
33265SOL    HW2 1693  14.231   9.756   9.716
33266SOL     OW 1694   9.151  13.613   8.062
33266SOL    HW1 1695   9.191  13.669   7.995
33266SOL    HW2 1696   9.225  13.572   8.106
33267SOL     OW 1697  13.860   7.599   1.088
33267SOL    HW1 1698  13.863   7.548   1.007
33267SOL    HW2 1699  13.802   7.672   1.068
33268SOL     OW 1700  13.585   4.037   7.893
33268SOL    HW1 1701  13.602   4.085   7.811
33268SOL    HW2 1702  13.665   4.047   7.943
33269SOL     OW 1703   7.915  12.841   6.083
33269SOL    HW1 1704   7.940  12.934   6.077
33269SOL    HW2 1705   7.878  12.832   6.171
33270SOL     OW 1706   3.035   2.235   1.353
33270SOL    HW1 1707   2.975   2.197   1.417
33270SOL    HW2 1708   3.053   2.323   1.388
33271SOL     OW 1709   0.472   1.723   2.931
33271SOL    HW1 1710   0.535   1.782   2.971
33271SOL    HW2 1711   0.483   1.640   2.978
33272SOL     OW 1712   1.117  12.616   2.641
33272SOL    HW1 1713   1.127  12.543   2.580
33272SOL    HW2 1714   1.201  12.661   2.639
33273SOL     OW 1715   7.400   2.301   9.413
33273SOL    HW1 1716   7.454   2.374   9.442
33273SOL    HW2 1717   7.328   2.298   9.476
33274SOL     OW 1718   7.186   3.108   3.601
33274SOL    HW1 1719   7.147   3.104   3.688
33274SOL    HW2 1720   7.229   3.023   3.590
33275SOL     OW 1721   3.638   7.220   9.167
33275SOL    HW1 1722   3.573   7.270   9.217
33275SOL    HW2 1723   3.664   7.149   9.226
33276SOL     OW 1724   4.337   8.469   9.939
33276SOL    HW1 1725   4.427   8.467   9.906
33276SOL    HW2 1726   4.326   8.558   9.973
33277SOL     OW 1727   9.323   2.187   8.520
33277SOL    HW1 1728   9.355   2.099   8.504
33277SOL    HW2 1729   9.308   2.190   8.615
33278SOL     OW 1730  14.557  10.780   4.422
33278SOL    HW1 1731  14.612  10.763   4.498
33278SOL    HW2 1732  14.567  10.703   4.366
33279SOL     OW 1733   3.282   9.817   2.842
33279SOL    HW1 1734   3.198   9.859   2.825
33279SOL    HW2 1735   3.295   9.758   2.767
33280SOL     OW 1736   0.466   9.109  10.703
33280SOL    HW1 1737   0.462   9.182  10.764
33280SOL    HW2 1738   0.536   9.052  10.736
33281SOL     OW 1739  10.170  10.994  11.790
33281SOL    HW1 1740  10.228  10.933  11.743
33281SOL    HW2 1741  10.228  11.038  11.853
33282SOL     OW 1742  12.350   0.126   9.753
33282SOL    HW1 1743  12.342   0.192   9.823
33282SOL    HW2 1744  12.263   0.122   9.714
33283SOL     OW 1745   9.666   0.895   2.653
33283SOL    HW1 1746   9.650   0.946   2.574
33283SOL    HW2 1747   9.730   0.828   2.626
33284SOL     OW 1748   0.675   5.992   9.695
33284SOL    HW1 1749   0.669   6.033   9.782
33284SOL    HW2 1750   0.608   6.037   9.643
33285SOL     OW 1751  14.342   3.629   3.304
33285SOL    HW1 1752  14.399   3.643   3.380
33285SOL    HW2 1753  14.274   3.571   3.337
33286SOL     OW 1754  11.984  13.468  13.056
33286SOL    HW1 1755  12.054  13.434  13.113
33286SOL    HW2 1756  11.990  13.415  12.977
33287SOL     OW 1757  12.457   1.716   3.036
33287SOL    HW1 1758  12.446   1.658   3.112
33287SOL    HW2 1759  12.551   1.712   3.017
33288SOL     OW 1760  10.499   7.414   1.056
33288SOL    HW1 1761  10.557   7.384   0.986
33288SOL    HW2 1762  10.494   7.339   1.116
33289SOL     OW 1763  10.562   2.069  13.013
33289SOL    HW1 1764  10.578   2.016  13.090
33289SOL    HW2 1765  10.644   2.066  12.964
33290SOL     OW 1766   4.513   4.239   5.093
33290SOL    HW1 1767   4.512   4.296   5.169
33290SOL    HW2 1768   4.578   4.279   5.034
33291SOL     OW 1769  11.501   8.594   2.516
33291SOL    HW1 1770  11.409   8.608   2.495
33291SOL    HW2 1771  11.547   8.609   2.433
33292SOL     OW 1772   5.508   3.513  12.244
33292SOL    HW1 1773   5.593   3.473  12.224
33292SOL    HW2 1774   5.472   3.460  12.315
33293SOL     OW 1775   0.819   6.268   0.361
33293SOL    HW1 1776   0.897   6.321   0.382
33293SOL    HW2 1777   0.848   6.211   0.290
33294SOL     OW 1778   0.631   4.427  13.589
33294SOL    HW1 1779   0.564   4.380  13.639
33294SOL    HW2 1780   0.615   4.519  13.609
33295SOL     OW 1781  10.328  11.822   6.813
33295SOL    HW1 1782  10.395  11.830   6.745
33295SOL    HW2 1783  10.273  11.750   6.784
33296SOL     OW 1784   7.506  12.712   9.453
33296SOL    HW1 1785   7.469  12.639   9.403
33296SOL    HW2 1786   7.473  12.698   9.542
33297SOL     OW 1787   2.568  10.076  13.787
33297SOL    HW1 1788   2.618  10.015  13.841
33297SOL    HW2 1789   2.594  10.163  13.817
33298SOL     OW 1790   4.174  13.292   4.790
33298SOL    HW1 1791   4.117  13.251   4.855
33298SOL    HW2 1792   4.153  13.385   4.794
33299SOL     OW 1793  13.980   1.686  12.837
33299SOL    HW1 1794  14.056   1.699  12.780
33299SOL    HW2 1795  14.016   1.677  12.925
33300SOL     OW 1796   8.262   3.225   6.422
33300SOL    HW1 1797   8.259   3.284   6.498
33300SOL    HW2 1798   8.170   3.212   6.399
33301SOL     OW 1799   3.223   4.542  10.109
33301SOL    HW1 1800   3.209   4.457  10.149
33301SOL    HW2 1801   3.140   4.563  10.067
33302SOL     OW 1802  12.919  11.063   7.971
33302SOL    HW1 1803  12.912  11.072   8.066
33302SOL    HW2 1804  12.916  10.968   7.956
33303SOL     OW 1805   7.706  10.354   3.178
33303SOL    HW1 1806   7.681  10.265   3.152
33303SOL    HW2 1807   7.798  10.347   3.204
33304SOL     OW 1808  11.407   3.320   6.716
33304SOL    HW1 1809  11.429   3.404   6.675
33304SOL    HW2 1810  11.489   3.291   6.757
33305SOL     OW 1811   5.790   4.570   2.589
33305SOL    HW1 1812   5.765   4.520   2.667
33305SOL    HW2 1813   5.719   4.633   2.577
33306SOL     OW 1814   8.900   3.497   8.633
33306SOL    HW1 1815   8.880   3.405   8.613
33306SOL    HW2 1816   8.907   3.539   8.547
33307SOL     OW 1817   8.274  13.943   8.631
33307SOL    HW1 1818   8.327  13.955   8.710
33307SOL    HW2 1819   8.335  13.958   8.559
33308SOL     OW 1820   9.341   9.546   8.965
33308SOL    HW1 1821   9.252   9.534   8.999
33308SOL    HW2 1822   9.351   9.476   8.900
33309SOL     OW 1823   8.971  10.126  11.574
33309SOL    HW1 1824   8.911  10.188  11.616
33309SOL    HW2 1825   8.918  10.049  11.556
33310SOL     OW 1826   9.958  11.814   6.714
33310SOL    HW1 1827   9.989  11.894   6.756
33310SOL    HW2 1828  10.033  11.755   6.716
33311SOL     OW 1829   1.892   5.858   6.449
33311SOL    HW1 1830   1.916   5.937   6.498
33311SOL    HW2 1831   1.825   5.887   6.387
33312SOL     OW 1832   7.814   8.347   2.685
33312SOL    HW1 1833   7.720   8.354   2.698
33312SOL    HW2 1834   7.850   8.331   2.772
33313SOL     OW 1835   8.674   9.643   4.109
33313SOL    HW1 1836   8.628   9.563   4.135
33313SOL    HW2 1837   8.639   9.664   4.022
33314SOL     OW 1838   1.924   0.558   5.552
33314SOL    HW1 1839   1.887   0.627   5.607
33314SOL    HW2 1840   1.853   0.496   5.540
33315SOL     OW 1841  12.331   1.989  10.658
33315SOL    HW1 1842  12.351   2.001  10.565
33315SOL    HW2 1843  12.382   1.912  10.685
33316SOL     OW 1844   7.329  11.484   2.471
33316SOL    HW1 1845   7.282  11.411   2.512
33316SOL    HW2 1846   7.272  11.512   2.400
33317SOL     OW 1847   4.676   8.002   7.371
33317SOL    HW1 1848   4.603   7.954   7.331
33317SOL    HW2 1849   4.657   8.000   7.465
33318SOL     OW 1850  12.073   5.476   3.793
33318SOL    HW1 1851  11.985   5.439   3.798
33318SOL    HW2 1852  12.087   5.494   3.700
33319SOL     OW 1853   5.990   8.014   1.234
33319SOL    HW1 1854   6.021   7.978   1.151
33319SOL    HW2 1855   6.027   7.954   1.300
33320SOL     OW 1856   9.018   5.617  12.781
33320SOL    HW1 1857   9.031   5.610  12.687
33320SOL    HW2 1858   8.954   5.687  12.792
33321SOL     OW 1859   5.696  12.763   7.957
33321SOL    HW1 1860   5.767  12.824   7.974
33321SOL    HW2 1861   5.739  12.685   7.921
33322SOL     OW 1862   6.660   4.315   3.155
33322SOL    HW1 1863   6.662   4.351   3.066
33322SOL    HW2 1864   6.568   4.318   3.181
33323SOL     OW 1865   6.897   9.888   4.827
33323SOL    HW1 1866   6.970   9.932   4.784
33323SOL    HW2 1867   6.821   9.910   4.775
33324SOL     OW 1868  14.791   3.941  13.662
33324SOL    HW1 1869  14.703   3.906  13.675
33324SOL    HW2 1870  14.776   4.029  13.626
33325SOL     OW 1871  13.678   3.310   8.816
33325SOL    HW1 1872  13.602   3.337   8.765
33325SOL    HW2 1873  13.649   3.232   8.864
33326SOL     OW 1874   4.389   3.457   6.332
33326SOL    HW1 1875   4.467   3.488   6.286
33326SOL    HW2 1876   4.320   3.457   6.265
33327SOL     OW 1877  13.230   0.735  12.930
33327SOL    HW1 1878  13.166   0.753  12.860
33327SOL    HW2 1879  13.273   0.819  12.944
33328SOL     OW 1880  11.662  12.754  14.823
33328SOL    HW1 1881  11.656  12.816   0.017
33328SOL    HW2 1882  11.733  12.789  14.769
33329SOL     OW 1883   7.063   2.791   3.852
33329SOL    HW1 1884   6.993   2.781   3.787
33329SOL    HW2 1885   7.076   2.885   3.859
33330SOL     OW 1886   1.412   3.355   8.011
33330SOL    HW1 1887   1.436   3.446   7.992
33330SOL    HW2 1888   1.337   3.362   8.071
33331SOL     OW 1889   8.782   8.343   9.790
33331SOL    HW1 1890   8.756   8.407   9.856
33331SOL    HW2 1891   8.739   8.373   9.710
33332SOL     OW 1892  12.181   5.476   9.220
33332SOL    HW1 1893  12.166   5.384   9.201
33332SOL    HW2 1894  12.194   5.518   9.135
33333SOL     OW 1895  11.840   8.283   5.320
33333SOL    HW1 1896  11.760   8.314   5.363
33333SOL    HW2 1897  11.841   8.329   5.236
33334SOL     OW 1898  12.729  13.531  13.952
33334SOL    HW1 1899  12.760  13.560  14.038
33334SOL    HW2 1900  12.657  13.472  13.972
33335SOL     OW 1901   6.296   4.937   1.431
33335SOL    HW1 1902   6.353   5.014   1.433
33335SOL    HW2 1903   6.208   4.973   1.433
33336SOL     OW 1904   0.876  13.275   4.819
33336SOL    HW1 1905   0.885  13.290   4.913
33336SOL    HW2 1906   0.956  13.230   4.794
33337SOL     OW 1907   4.800   3.284   1.684
33337SOL    HW1 1908   4.763   3.314   1.768
33337SOL    HW2 1909   4.865   3.219   1.709
33338SOL     OW 1910  14.164  14.623  10.702
33338SOL    HW1 1911  14.198  14.589  10.620
33338SOL    HW2 1912  14.069  14.608  10.696
33339SOL     OW 1913   6.371   8.117  14.445
33339SOL    HW1 1914   6.439   8.050  14.434
33339SOL    HW2 1915   6.398   8.188  14.387
33340SOL     OW 1916   3.919   9.930   1.377
33340SOL    HW1 1917   3.986   9.932   1.445
33340SOL    HW2 1918   3.963   9.963   1.299
33341SOL     OW 1919  11.364   5.835  13.322
33341SOL    HW1 1920  11.363   5.915  13.271
33341SOL    HW2 1921  11.290   5.784  13.289
33342SOL     OW 1922  11.693  14.158   9.088
33342SOL    HW1 1923  11.785  14.151   9.112
33342SOL    HW2 1924  11.646  14.160   9.171
33343SOL     OW 1925   5.021  14.639  11.810
33343SOL    HW1 1926   5.034  14.555  11.767
33343SOL    HW2 1927   5.086  14.641  11.881
33344SOL     OW 1928  11.020   1.163   7.366
33344SOL    HW1 1929  10.950   1.115   7.321
33344SOL    HW2 1930  10.995   1.255   7.356
33345SOL     OW 1931   1.804   6.529   5.324
33345SOL    HW1 1932   1.717   6.569   5.313
33345SOL    HW2 1933   1.846   6.542   5.239
33346SOL     OW 1934  11.470   1.745   4.455
33346SOL    HW1 1935  11.537   1.810   4.434
33346SOL    HW2 1936  11.493   1.668   4.402
33347SOL     OW 1937   8.830   6.280   7.480
33347SOL    HW1 1938   8.843   6.364   7.524
33347SOL    HW2 1939   8.880   6.286   7.399
33348SOL     OW 1940   2.997   1.206   6.691
33348SOL    HW1 1941   2.903   1.195   6.674
33348SOL    HW2 1942   3.031   1.245   6.611
33349SOL     OW 1943   2.376   3.734   1.504
33349SOL    HW1 1944   2.288   3.750   1.471
33349SOL    HW2 1945   2.396   3.644   1.477
33350SOL     OW 1946   5.361   1.333   1.115
33350SOL    HW1 1947   5.285   1.281   1.088
33350SOL    HW2 1948   5.419   1.269   1.157
33351SOL     OW 1949  13.290   6.056   6.273
33351SOL    HW1 1950  13.281   6.102   6.189
33351SOL    HW2 1951  13.374   6.085   6.308
33352SOL     OW 1952   0.600  10.544   1.309
33352SOL    HW1 1953   0.655  10.472   1.341
33352SOL    HW2 1954   0.513  10.505   1.298
33353SOL     OW 1955  12.063   5.103   1.327
33353SOL    HW1 1956  12.027   5.179   1.374
33353SOL    HW2 1957  11.987   5.057   1.294
33354SOL     OW 1958  13.592   9.806  12.696
33354SOL    HW1 1959  13.580   9.723  12.650
33354SOL    HW2 1960  13.640   9.783  12.776
33355SOL     OW 1961  11.394  11.007  13.671
33355SOL    HW1 1962  11.382  11.101  13.662
33355SOL    HW2 1963  11.488  10.994  13.656
33356SOL     OW 1964  14.218   5.222   0.095
33356SOL    HW1 1965  14.201   5.181   0.010
33356SOL    HW2 1966  14.207   5.316   0.079
33357SOL     OW 1967   8.945   1.826   7.568
33357SOL    HW1 1968   8.952   1.732   7.585
33357SOL    HW2 1969   8.850   1.843   7.570
33358SOL     OW 1970   1.808  14.786   1.915
33358SOL    HW1 1971   1.872  14.723   1.882
33358SOL    HW2 1972   1.730  14.733   1.934
33359SOL     OW 1973  11.509  13.808   4.697
33359SOL    HW1 1974  11.554  13.737   4.651
33359SOL    HW2 1975  11.500  13.877   4.631
33360SOL     OW 1976   4.188  11.181  12.735
33360SOL    HW1 1977   4.259  11.137  12.690
33360SOL    HW2 1978   4.151  11.241  12.670
33361SOL     OW 1979   3.186  12.125   0.473
33361SOL    HW1 1980   3.108  12.175   0.495
33361SOL    HW2 1981   3.188  12.122   0.377
33362SOL     OW 1982   9.883  11.149   2.065
33362SOL    HW1 1983   9.918  11.237   2.052
33362SOL    HW2 1984   9.872  11.143   2.160
33363SOL     OW 1985  14.349   0.741   0.049
33363SOL    HW1 1986  14.400   0.716  14.852
33363SOL    HW2 1987  14.290   0.667   0.064
33364SOL     OW 1988   1.735  12.393   0.469
33364SOL    HW1 1989   1.687  12.460   0.517
33364SOL    HW2 1990   1.679  12.371   0.395
33365SOL     OW 1991   7.004   4.798   1.095
33365SOL    HW1 1992   6.935   4.744   1.056
33365SOL    HW2 1993   7.016   4.762   1.183
33366SOL     OW 1994   7.058  13.469  12.239
33366SOL    HW1 1995   7.105  13.413  12.301
33366SOL    HW2 1996   7.088  13.557  12.258
33367SOL     OW 1997  12.334   9.365   3.729
33367SOL    HW1 1998  12.308   9.323   3.647
33367SOL    HW2 1999  12.393   9.302   3.771
33368SOL     OW 2000  12.071  10.407  12.579
33368SOL    HW1 2001  12.083  10.328  12.631
33368SOL    HW2 2002  11.995  10.389  12.524
33369SOL     OW 2003   7.585  10.413  12.764
33369SOL    HW1 2004   7.519  10.347  12.787
33369SOL    HW2 2005   7.629  10.431  12.847
33370SOL     OW 2006   6.796   0.778   8.548
33370SOL    HW1 2007   6.842   0.736   8.621
33370SOL    HW2 2008   6.814   0.721   8.473
33371SOL     OW 2009   1.651   9.361   0.951
33371SOL    HW1 2010   1.733   9.408   0.940
33371SOL    HW2 2011   1.675   9.280   0.996
33372SOL     OW 2012  11.539   1.068   7.143
33372SOL    HW1 2013  11.448   1.042   7.135
33372SOL    HW2 2014  11.571   1.021   7.220
33373SOL     OW 2015   6.408   5.097   4.384
33373SOL    HW1 2016   6.455   5.083   4.466
33373SOL    HW2 2017   6.344   5.027   4.381
33374SOL     OW 2018  14.575   8.428   7.075
33374SOL    HW1 2019  14.607   8.422   7.165
33374SOL    HW2 2020  14.499   8.486   7.080
33375SOL     OW 2021   4.276  13.499   1.994
33375SOL    HW1 2022   4.356  13.496   2.048
33375SOL    HW2 2023   4.233  13.580   2.019
33376SOL     OW 2024   6.206   5.356  14.763
33376SOL    HW1 2025   6.118   5.391  14.774
33376SOL    HW2 2026   6.192   5.266  14.732
33377SOL     OW 2027   6.065  13.017   0.610
33377SOL    HW1 2028   6.002  13.088   0.601
33377SOL    HW2 2029   6.012  12.937   0.612
33378SOL     OW 2030   4.702   6.899   1.564
33378SOL    HW1 2031   4.654   6.977   1.537
33378SOL    HW2 2032   4.789   6.931   1.587
33379SOL     OW 2033   4.000   8.800  13.237
33379SOL    HW1 2034   4.093   8.810  13.259
33379SOL    HW2 2035   3.955   8.862  13.294
33380SOL     OW 2036  11.887  12.905  10.795
33380SOL    HW1 2037  11.980  12.911  10.777
33380SOL    HW2 2038  11.866  12.986  10.841
33381SOL     OW 2039  10.881   2.435   9.151
33381SOL    HW1 2040  10.826   2.366   9.188
33381SOL    HW2 2041  10.819   2.504   9.125
33382SOL     OW 2042   0.467   2.742   7.329
33382SOL    HW1 2043   0.385   2.787   7.352
33382SOL    HW2 2044   0.535   2.792   7.375
33383SOL     OW 2045   5.742   0.456  10.347
33383SOL    HW1 2046   5.715   0.365  10.339
33383SOL    HW2 2047   5.660   0.505  10.347
33384SOL     OW 2048   1.565   0.097   1.406
33384SOL    HW1 2049   1.481   0.072   1.366
33384SOL    HW2 2050   1.557   0.191   1.420
33385SOL     OW 2051   0.979  10.639   9.231
33385SOL    HW1 2052   1.012  10.676   9.149
33385SOL    HW2 2053   1.039  10.567   9.251
33386SOL     OW 2054  12.799  13.697  13.009
33386SOL    HW1 2055  12.790  13.670  13.100
33386SOL    HW2 2056  12.764  13.624  12.958
33387SOL     OW 2057   0.169   3.278   6.564
33387SOL    HW1 2058   0.224   3.288   6.486
33387SOL    HW2 2059   0.100   3.343   6.554
33388SOL     OW 2060   5.613   1.085  14.312
33388SOL    HW1 2061   5.639   1.171  14.344
33388SOL    HW2 2062   5.617   1.093  14.216
33389SOL     OW 2063  14.621   0.859   9.089
33389SOL    HW1 2064  14.560   0.875   9.161
33389SOL    HW2 2065  14.683   0.932   9.093
33390SOL     OW 2066  10.977   6.036   9.639
33390SOL    HW1 2067  10.888   6.035   9.674
33390SOL    HW2 2068  10.971   6.090   9.560
33391SOL     OW 2069   8.649   8.263   1.195
33391SOL    HW1 2070   8.615   8.310   1.118
33391SOL    HW2 2071   8.626   8.171   1.179
33392SOL     OW 2072   9.455   2.051   1.864
33392SOL    HW1 2073   9.468   2.145   1.856
33392SOL    HW2 2074   9.517   2.012   1.802
33393SOL     OW 2075   8.247   2.803   6.468
33393SOL    HW1 2076   8.248   2.716   6.507
33393SOL    HW2 2077   8.164   2.807   6.419
33394SOL     OW 2078   5.441   7.123  14.682
33394SOL    HW1 2079   5.472   7.178  14.610
33394SOL    HW2 2080   5.511   7.060  14.696
33395SOL     OW 2081  11.854  12.733  13.458
33395SOL    HW1 2082  11.843  12.804  13.521
33395SOL    HW2 2083  11.788  12.669  13.482
33396SOL     OW 2084   1.181   6.315  13.491
33396SOL    HW1 2085   1.136   6.396  13.465
33396SOL    HW2 2086   1.242   6.342  13.559
33397SOL     OW 2087   7.176   2.006   3.310
33397SOL    HW1 2088   7.229   1.972   3.239
33397SOL    HW2 2089   7.232   2.071   3.353
33398SOL     OW 2090  12.087  10.372  11.727
33398SOL    HW1 2091  12.177  10.344  11.745
33398SOL    HW2 2092  12.041  10.291  11.704
33399SOL     OW 2093   6.510  12.194   1.674
33399SOL    HW1 2094   6.552  12.241   1.746
33399SOL    HW2 2095   6.485  12.109   1.712
33400SOL     OW 2096   4.426   7.141  10.735
33400SOL    HW1 2097   4.516   7.134  10.701
33400SOL    HW2 2098   4.402   7.051  10.756
33401SOL     OW 2099   2.582   9.651   9.620
33401SOL    HW1 2100   2.492   9.623   9.635
33401SOL    HW2 2101   2.631   9.569   9.610
33402SOL     OW 2102   3.520  12.562  10.344
33402SOL    HW1 2103   3.464  12.627  10.387
33402SOL    HW2 2104   3.468  12.532  10.269
33403SOL     OW 2105   8.905   3.955   3.292
33403SOL    HW1 2106   8.901   3.878   3.235
33403SOL    HW2 2107   8.989   3.996   3.270
33404SOL     OW 2108   6.372  10.538   8.517
33404SOL    HW1 2109   6.294  10.592   8.526
33404SOL    HW2 2110   6.343  10.461   8.468
33405SOL     OW 2111  13.653  14.523   1.720
33405SOL    HW1 2112  13.679  14.611   1.748
33405SOL    HW2 2113  13.661  14.525   1.625
33406SOL     OW 2114   6.203  10.328   1.539
33406SOL    HW1 2115   6.154  10.410   1.534
33406SOL    HW2 2116   6.164  10.273   1.471
33407SOL     OW 2117   5.569  12.929  13.601
33407SOL    HW1 2118   5.647  12.902  13.651
33407SOL    HW2 2119   5.603  12.984  13.531
33408SOL     OW 2120   3.928   4.094  13.286
33408SOL    HW1 2121   3.935   4.123  13.377
33408SOL    HW2 2122   3.957   4.168  13.234
33409SOL     OW 2123  10.998   9.570   4.614
33409SOL    HW1 2124  10.944   9.646   4.635
33409SOL    HW2 2125  11.017   9.529   4.698
33410SOL     OW 2126  11.774  12.046   3.837
33410SOL    HW1 2127  11.727  12.127   3.817
33410SOL    HW2 2128  11.857  12.054   3.792
33411SOL     OW 2129   8.872   4.551   5.715
33411SOL    HW1 2130   8.834   4.636   5.736
33411SOL    HW2 2131   8.805   4.507   5.663
33412SOL     OW 2132   9.306   7.083   0.568
33412SOL    HW1 2133   9.350   7.124   0.494
33412SOL    HW2 2134   9.362   7.009   0.592
33413SOL     OW 2135   1.977   7.122   1.628
33413SOL    HW1 2136   2.070   7.114   1.649
33413SOL    HW2 2137   1.960   7.216   1.629
33414SOL     OW 2138   6.467   5.481  12.909
33414SOL    HW1 2139   6.449   5.395  12.872
33414SOL    HW2 2140   6.439   5.474  13.001
33415SOL     OW 2141   6.286   2.012   7.388
33415SOL    HW1 2142   6.293   2.069   7.311
33415SOL    HW2 2143   6.353   2.044   7.448
33416SOL     OW 2144  12.461   1.913   1.882
33416SOL    HW1 2145  12.493   1.825   1.902
33416SOL    HW2 2146  12.388   1.926   1.942
33417SOL     OW 2147   7.032   6.728  14.129
33417SOL    HW1 2148   6.960   6.788  14.145
33417SOL    HW2 2149   7.098   6.780  14.084
33418SOL     OW 2150  14.681  12.739  11.871
33418SOL    HW1 2151  14.708  12.815  11.819
33418SOL    HW2 2152  14.592  12.720  11.840
33419SOL     OW 2153   7.160   8.095  12.732
33419SOL    HW1 2154   7.077   8.137  12.710
33419SOL    HW2 2155   7.151   8.069  12.823
33420SOL     OW 2156   3.764   8.988  12.260
33420SOL    HW1 2157   3.775   9.073  12.218
33420SOL    HW2 2158   3.847   8.942  12.246
33421SOL     OW 2159  11.435   7.235  12.133
33421SOL    HW1 2160  11.459   7.225  12.041
33421SOL    HW2 2161  11.340   7.250  12.131
33422SOL     OW 2162  13.648   9.952   2.220
33422SOL    HW1 2163  13.619   9.926   2.133
33422SOL    HW2 2164  13.656   9.869   2.268
33423SOL     OW 2165   1.138  11.009   8.243
33423SOL    HW1 2166   1.063  10.949   8.241
33423SOL    HW2 2167   1.144  11.035   8.335
33424SOL     OW 2168   8.813   6.115   3.935
33424SOL    HW1 2169   8.732   6.156   3.903
33424SOL    HW2 2170   8.870   6.112   3.858
33425SOL     OW 2171  14.163   9.860   1.540
33425SOL    HW1 2172  14.152   9.941   1.491
33425SOL    HW2 2173  14.243   9.872   1.590
33426SOL     OW 2174  14.376   7.753  14.831
33426SOL    HW1 2175  14.442   7.684  14.842
33426SOL    HW2 2176  14.415   7.831  14.871
33427SOL     OW 2177   4.798   7.567  12.631
33427SOL    HW1 2178   4.707   7.537  12.636
33427SOL    HW2 2179   4.817   7.568  12.537
33428SOL     OW 2180   1.058   1.044  11.048
33428SOL    HW1 2181   1.015   0.998  11.120
33428SOL    HW2 2182   1.060   1.136  11.075
33429SOL     OW 2183   4.298  13.577   5.066
33429SOL    HW1 2184   4.235  13.645   5.089
33429SOL    HW2 2185   4.249  13.496   5.068
33430SOL     OW 2186   2.386   8.922   6.589
33430SOL    HW1 2187   2.397   8.964   6.504
33430SOL    HW2 2188   2.472   8.884   6.608
33431SOL     OW 2189  13.422  12.541  13.804
33431SOL    HW1 2190  13.504  12.494  13.791
33431SOL    HW2 2191  13.446  12.633  13.803
33432SOL     OW 2192   7.126  13.854   7.556
33432SOL    HW1 2193   7.069  13.916   7.602
33432SOL    HW2 2194   7.213  13.894   7.561
33433SOL     OW 2195   9.473   1.973   8.077
33433SOL    HW1 2196   9.523   2.040   8.124
33433SOL    HW2 2197   9.382   2.001   8.085
33434SOL     OW 2198   3.509   9.420  12.700
33434SOL    HW1 2199   3.454   9.438  12.776
33434SOL    HW2 2200   3.592   9.389  12.736
33435SOL     OW 2201  14.110   3.984   7.052
33435SOL    HW1 2202  14.163   4.054   7.013
33435SOL    HW2 2203  14.084   4.018   7.137
33436SOL     OW 2204   1.004  14.773   0.642
33436SOL    HW1 2205   1.046  14.785   0.727
33436SOL    HW2 2206   0.992  14.678   0.634
33437SOL     OW 2207   8.210   1.514   5.069
33437SOL    HW1 2208   8.222   1.493   5.161
33437SOL    HW2 2209   8.174   1.435   5.030
33438SOL     OW 2210   8.941   0.575  14.710
33438SOL    HW1 2211   8.864   0.546  14.661
33438SOL    HW2 2212   8.926   0.542  14.799
33439SOL     OW 2213   3.837  11.278  11.442
33439SOL    HW1 2214   3.838  11.246  11.352
33439SOL    HW2 2215   3.929  11.284  11.467
33440SOL     OW 2216   7.413  13.185  12.606
33440SOL    HW1 2217   7.447  13.182  12.695
33440SOL    HW2 2218   7.480  13.233  12.556
33441SOL     OW 2219  14.527  10.482   5.589
33441SOL    HW1 2220  14.558  10.544   5.654
33441SOL    HW2 2221  14.489  10.410   5.641
33442SOL     OW 2222  12.068   0.584   5.794
33442SOL    HW1 2223  12.094   0.635   5.871
33442SOL    HW2 2224  12.010   0.643   5.745
33443SOL     OW 2225   7.781   4.560  11.820
33443SOL    HW1 2226   7.852   4.623  11.829
33443SOL    HW2 2227   7.824   4.479  11.792
33444SOL     OW 2228   4.913   1.897   3.492
33444SOL    HW1 2229   4.954   1.844   3.560
33444SOL    HW2 2230   4.834   1.848   3.468
33445SOL     OW 2231   7.346   6.392  13.233
33445SOL    HW1 2232   7.401   6.380  13.155
33445SOL    HW2 2233   7.260   6.414  13.199
33446SOL     OW 2234   7.129   5.055  11.116
33446SOL    HW1 2235   7.054   4.996  11.124
33446SOL    HW2 2236   7.152   5.053  11.023
33447SOL     OW 2237   3.057   9.065   0.762
33447SOL    HW1 2238   3.128   9.036   0.820
33447SOL    HW2 2239   3.055   8.998   0.693
33448SOL     OW 2240  12.311   8.701   2.103
33448SOL    HW1 2241  12.334   8.782   2.059
33448SOL    HW2 2242  12.240   8.664   2.051
33449SOL     OW 2243   7.258   8.252  11.956
33449SOL    HW1 2244   7.341   8.213  11.984
33449SOL    HW2 2245   7.216   8.182  11.906
33450SOL     OW 2246   2.768  14.652  11.514
33450SOL    HW1 2247   2.690  14.689  11.556
33450SOL    HW2 2248   2.739  14.630  11.426
33451SOL     OW 2249  14.364   1.069  10.362
33451SOL    HW1 2250  14.399   1.158  10.367
33451SOL    HW2 2251  14.283   1.078  10.311
33452SOL     OW 2252   3.614   1.312   7.847
33452SOL    HW1 2253   3.685   1.248   7.860
33452SOL    HW2 2254   3.534   1.261   7.859
33453SOL     OW 2255   9.413   8.904   9.866
33453SOL    HW1 2256   9.399   8.911   9.772
33453SOL    HW2 2257   9.329   8.929   9.905
33454SOL     OW 2258  11.245  13.151   7.878
33454SOL    HW1 2259  11.217  13.235   7.914
33454SOL    HW2 2260  11.338  13.147   7.898
33455SOL     OW 2261   1.905  10.824   7.735
33455SOL    HW1 2262   1.853  10.797   7.810
33455SOL    HW2 2263   1.867  10.778   7.660
33456SOL     OW 2264  12.709  13.408   6.367
33456SOL    HW1 2265  12.735  13.473   6.303
33456SOL    HW2 2266  12.685  13.331   6.315
33457SOL     OW 2267  14.684  11.939   4.797
33457SOL    HW1 2268  14.696  12.032   4.780
33457SOL    HW2 2269  14.600  11.934   4.843
33458SOL     OW 2270  11.894  11.726   3.401
33458SOL    HW1 2271  11.893  11.709   3.495
33458SOL    HW2 2272  11.987  11.725   3.378
33459SOL     OW 2273   9.400  13.315  12.104
33459SOL    HW1 2274   9.482  13.363  12.113
33459SOL    HW2 2275   9.403  13.279  12.015
33460SOL     OW 2276  13.786  14.712  10.996
33460SOL    HW1 2277  13.737  14.630  11.003
33460SOL    HW2 2278  13.873  14.686  10.967
33461SOL     OW 2279   2.517   0.934  11.989
33461SOL    HW1 2280   2.592   0.876  11.999
33461SOL    HW2 2281   2.450   0.895  12.046
33462SOL     OW 2282   6.554  11.689   3.754
33462SOL    HW1 2283   6.490  11.710   3.822
33462SOL    HW2 2284   6.502  11.658   3.680
33463SOL     OW 2285   6.643   3.237  14.305
33463SOL    HW1 2286   6.548   3.232  14.316
33463SOL    HW2 2287   6.662   3.331  14.310
33464SOL     OW 2288   0.764   0.735  12.218
33464SOL    HW1 2289   0.850   0.693  12.213
33464SOL    HW2 2290   0.782   0.820  12.259
33465SOL     OW 2291   2.257   0.667   7.735
33465SOL    HW1 2292   2.262   0.709   7.649
33465SOL    HW2 2293   2.325   0.710   7.787
33466SOL     OW 2294   9.788  11.623  10.325
33466SOL    HW1 2295   9.820  11.533  10.318
33466SOL    HW2 2296   9.742  11.626  10.408
33467SOL     OW 2297   8.279   2.390  12.394
33467SOL    HW1 2298   8.185   2.411  12.402
33467SOL    HW2 2299   8.285   2.298  12.417
33468SOL     OW 2300   9.483   2.950   9.196
33468SOL    HW1 2301   9.453   2.859   9.198
33468SOL    HW2 2302   9.474   2.976   9.105
33469SOL     OW 2303  14.375  13.990  10.385
33469SOL    HW1 2304  14.433  14.063  10.364
33469SOL    HW2 2305  14.307  14.029  10.442
33470SOL     OW 2306   4.462   8.643   6.835
33470SOL    HW1 2307   4.420   8.722   6.800
33470SOL    HW2 2308   4.472   8.586   6.759
33471SOL     OW 2309   1.759  11.333   6.261
33471SOL    HW1 2310   1.712  11.387   6.325
33471SOL    HW2 2311   1.694  11.268   6.232
33472SOL     OW 2312   8.366   4.341   0.827
33472SOL    HW1 2313   8.387   4.393   0.749
33472SOL    HW2 2314   8.274   4.362   0.844
33473SOL     OW 2315   6.286   9.205   8.136
33473SOL    HW1 2316   6.306   9.274   8.198
33473SOL    HW2 2317   6.205   9.165   8.170
33474SOL     OW 2318   6.515   2.636   6.633
33474SOL    HW1 2319   6.521   2.693   6.709
33474SOL    HW2 2320   6.509   2.695   6.558
33475SOL     OW 2321   0.618  11.468   8.808
33475SOL    HW1 2322   0.580  11.405   8.746
33475SOL    HW2 2323   0.605  11.554   8.766
33476SOL     OW 2324  12.546  14.166  12.953
33476SOL    HW1 2325  12.593  14.145  13.034
33476SOL    HW2 2326  12.556  14.087  12.899
33477SOL     OW 2327   4.738  12.192  10.222
33477SOL    HW1 2328   4.702  12.160  10.305
33477SOL    HW2 2329   4.823  12.228  10.244
33478SOL     OW 2330   8.624   1.165   7.715
33478SOL    HW1 2331   8.612   1.103   7.643
33478SOL    HW2 2332   8.669   1.240   7.675
33479SOL     OW 2333   5.174  11.587   9.106
33479SOL    HW1 2334   5.111  11.527   9.067
33479SOL    HW2 2335   5.248  11.531   9.131
33480SOL     OW 2336   6.701  12.794   2.818
33480SOL    HW1 2337   6.731  12.797   2.909
33480SOL    HW2 2338   6.745  12.717   2.781
33481SOL     OW 2339   8.445   9.865  10.193
33481SOL    HW1 2340   8.440   9.847  10.287
33481SOL    HW2 2341   8.440   9.961  10.186
33482SOL     OW 2342   2.882   9.537   0.291
33482SOL    HW1 2343   2.844   9.455   0.323
33482SOL    HW2 2344   2.835   9.605   0.339
33483SOL     OW 2345  11.248   9.459   9.190
33483SOL    HW1 2346  11.163   9.422   9.166
33483SOL    HW2 2347  11.281   9.403   9.260
33484SOL     OW 2348   6.119  10.596   9.513
33484SOL    HW1 2349   6.064  10.546   9.453
33484SOL    HW2 2350   6.204  10.601   9.469
33485SOL     OW 2351  11.862  10.328  13.608
33485SOL    HW1 2352  11.875  10.292  13.696
33485SOL    HW2 2353  11.913  10.272  13.551
33486SOL     OW 2354   3.307   2.565  11.490
33486SOL    HW1 2355   3.251   2.528  11.558
33486SOL    HW2 2356   3.303   2.659  11.503
33487SOL     OW 2357  10.623   9.644   3.656
33487SOL    HW1 2358  10.542   9.604   3.623
33487SOL    HW2 2359  10.692   9.606   3.602
33488SOL     OW 2360  12.118   4.767  11.181
33488SOL    HW1 2361  12.081   4.679  11.169
33488SOL    HW2 2362  12.199   4.765  11.129
33489SOL     OW 2363   1.734  13.805   7.349
33489SOL    HW1 2364   1.788  13.770   7.420
33489SOL    HW2 2365   1.745  13.742   7.277
33490SOL     OW 2366  10.843   1.269   8.130
33490SOL    HW1 2367  10.926   1.316   8.127
33490SOL    HW2 2368  10.798   1.306   8.206
33491SOL     OW 2369   6.002  13.782   7.115
33491SOL    HW1 2370   5.939  13.850   7.138
33491SOL    HW2 2371   6.045  13.760   7.197
33492SOL     OW 2372   9.443   4.148   6.325
33492SOL    HW1 2373   9.435   4.060   6.288
33492SOL    HW2 2374   9.533   4.174   6.304
33493SOL     OW 2375   4.180   2.616   0.204
33493SOL    HW1 2376   4.215   2.533   0.234
33493SOL    HW2 2377   4.219   2.682   0.262
33494SOL     OW 2378   4.378   8.981   5.803
33494SOL    HW1 2379   4.446   9.042   5.829
33494SOL    HW2 2380   4.334   9.024   5.729
33495SOL     OW 2381   0.125  10.613  10.334
33495SOL    HW1 2382   0.144  10.600  10.241
33495SOL    HW2 2383   0.040  10.657  10.336
33496SOL     OW 2384   0.522   8.571   2.416
33496SOL    HW1 2385   0.491   8.618   2.338
33496SOL    HW2 2386   0.443   8.553   2.466
33497SOL     OW 2387   0.965   7.517   6.014
33497SOL    HW1 2388   0.902   7.446   6.029
33497SOL    HW2 2389   1.030   7.479   5.956
33498SOL     OW 2390  11.559  12.143   0.149
33498SOL    HW1 2391  11.625  12.137   0.080
33498SOL    HW2 2392  11.605  12.120   0.229
33499SOL     OW 2393   0.220   1.950  10.871
33499SOL    HW1 2394   0.207   1.994  10.955
33499SOL    HW2 2395   0.190   1.860  10.887
33500SOL     OW 2396  12.281   3.216   8.336
33500SOL    HW1 2397  12.318   3.151   8.395
33500SOL    HW2 2398  12.357   3.260   8.298
33501SOL     OW 2399  11.211   5.921   0.768
33501SOL    HW1 2400  11.157   5.977   0.823
33501SOL    HW2 2401  11.178   5.934   0.679
33502SOL     OW 2402  12.590  11.740   6.059
33502SOL    HW1 2403  12.535  11.692   5.997
33502SOL    HW2 2404  12.667  11.684   6.070
33503SOL     OW 2405  14.808  12.379   1.570
33503SOL    HW1 2406  14.728  12.327   1.573
33503SOL    HW2 2407  14.861  12.348   1.644
33504SOL     OW 2408   2.524   6.589   7.994
33504SOL    HW1 2409   2.522   6.679   7.962
33504SOL    HW2 2410   2.473   6.592   8.075
33505SOL     OW 2411  10.958   7.027  12.939
33505SOL    HW1 2412  10.875   7.047  12.982
33505SOL    HW2 2413  11.011   7.106  12.949
33506SOL     OW 2414   9.175   1.164  12.191
33506SOL    HW1 2415   9.229   1.143  12.267
33506SOL    HW2 2416   9.088   1.182  12.227
33507SOL     OW 2417  10.860   3.959   3.677
33507SOL    HW1 2418  10.787   3.898   3.675
33507SOL    HW2 2419  10.937   3.904   3.664
33508SOL     OW 2420   6.688  11.894   3.877
33508SOL    HW1 2421   6.659  11.818   3.826
33508SOL    HW2 2422   6.774  11.916   3.842
33509SOL     OW 2423   9.465   4.316  10.739
33509SOL    HW1 2424   9.401   4.338  10.672
33509SOL    HW2 2425   9.522   4.251  10.699
33510SOL     OW 2426   4.105   1.252   3.348
33510SOL    HW1 2427   4.178   1.313   3.342
33510SOL    HW2 2428   4.034   1.303   3.386
33511SOL     OW 2429   0.431   4.066   2.739
33511SOL    HW1 2430   0.437   4.156   2.771
33511SOL    HW2 2431   0.463   4.070   2.649
33512SOL     OW 2432  12.652  14.144  14.187
33512SOL    HW1 2433  12.744  14.153  14.164
33512SOL    HW2 2434  12.642  14.051  14.209
33513SOL     OW 2435  12.060  10.762  14.518
33513SOL    HW1 2436  12.147  10.793  14.541
33513SOL    HW2 2437  12.033  10.817  14.444
33514SOL     OW 2438   5.239   7.854   3.866
33514SOL    HW1 2439   5.321   7.885   3.828
33514SOL    HW2 2440   5.217   7.919   3.932
33515SOL     OW 2441  12.631   2.117  10.476
33515SOL    HW1 2442  12.657   2.200  10.517
33515SOL    HW2 2443  12.549   2.138  10.431
33516SOL     OW 2444   5.451  10.864   5.655
33516SOL    HW1 2445   5.514  10.862   5.727
33516SOL    HW2 2446   5.377  10.812   5.686
33517SOL     OW 2447   1.520  12.956   6.842
33517SOL    HW1 2448   1.560  13.042   6.836
33517SOL    HW2 2449   1.445  12.969   6.900
33518SOL     OW 2450  13.412  14.493   3.331
33518SOL    HW1 2451  13.459  14.409   3.334
33518SOL    HW2 2452  13.373  14.495   3.244
33519SOL     OW 2453   8.321   0.118  14.090
33519SOL    HW1 2454   8.291   0.057  14.157
33519SOL    HW2 2455   8.371   0.184  14.139
33520SOL     OW 2456   6.355  11.421   5.445
33520SOL    HW1 2457   6.341  11.516   5.449
33520SOL    HW2 2458   6.320  11.396   5.360
33521SOL     OW 2459   0.066  14.201   0.014
33521SOL    HW1 2460   0.111  14.269   0.065
33521SOL    HW2 2461   0.119  14.123   0.026
33522SOL     OW 2462   5.916  13.279   8.639
33522SOL    HW1 2463   5.980  13.215   8.608
33522SOL    HW2 2464   5.951  13.309   8.723
33523SOL     OW 2465  14.774  13.232  11.556
33523SOL    HW1 2466  14.737  13.143  11.559
33523SOL    HW2 2467  14.723  13.281  11.620
33524SOL     OW 2468   1.799   9.714   5.490
33524SOL    HW1 2469   1.710   9.735   5.461
33524SOL    HW2 2470   1.803   9.618   5.486
33525SOL     OW 2471  11.734   7.027  10.152
33525SOL    HW1 2472  11.672   7.002  10.083
33525SOL    HW2 2473  11.680   7.033  10.231
33526SOL     OW 2474  12.268   6.043   4.685
33526SOL    HW1 2475  12.210   6.119   4.686
33526SOL    HW2 2476  12.215   5.972   4.723
33527SOL     OW 2477   3.918   3.176   4.359
33527SOL    HW1 2478   3.861   3.118   4.308
33527SOL    HW2 2479   3.952   3.120   4.429
33528SOL     OW 2480   8.860   5.269   6.657
33528SOL    HW1 2481   8.893   5.290   6.744
33528SOL    HW2 2482   8.777   5.315   6.651
33529SOL     OW 2483   3.418  12.238  10.372
33529SOL    HW1 2484   3.450  12.275  10.454
33529SOL    HW2 2485   3.386  12.313  10.323
33530SOL     OW 2486   3.267   6.172   3.215
33530SOL    HW1 2487   3.232   6.086   3.192
33530SOL    HW2 2488   3.362   6.162   3.211
33531SOL     OW 2489   6.314   6.709   2.388
33531SOL    HW1 2490   6.380   6.640   2.397
33531SOL    HW2 2491   6.365   6.790   2.388
33532SOL     OW 2492   1.441   1.672   8.451
33532SOL    HW1 2493   1.431   1.602   8.516
33532SOL    HW2 2494   1.391   1.745   8.487
33533SOL     OW 2495   0.467   1.926  10.267
33533SOL    HW1 2496   0.506   1.896  10.350
33533SOL    HW2 2497   0.493   2.018  10.261
33534SOL     OW 2498  12.468   8.234  12.675
33534SOL    HW1 2499  12.515   8.221  12.593
33534SOL    HW2 2500  12.376   8.242  12.648
33535SOL     OW 2501   2.882   1.580  12.814
33535SOL    HW1 2502   2.954   1.620  12.766
33535SOL    HW2 2503   2.821   1.652  12.831
33536SOL     OW 2504  13.550  11.587   8.856
33536SOL    HW1 2505  13.626  11.574   8.798
33536SOL    HW2 2506  13.475  11.564   8.801
33537SOL     OW 2507  13.620   9.545   9.604
33537SOL    HW1 2508  13.658   9.625   9.641
33537SOL    HW2 2509  13.550   9.522   9.664
33538SOL     OW 2510   0.251  12.034  14.316
33538SOL    HW1 2511   0.198  12.111  14.338
33538SOL    HW2 2512   0.335  12.070  14.288
33539SOL     OW 2513   9.284   0.470   6.905
33539SOL    HW1 2514   9.270   0.512   6.990
33539SOL    HW2 2515   9.196   0.453   6.872
33540SOL     OW 2516   0.921  13.714  10.396
33540SOL    HW1 2517   0.864  13.678  10.465
33540SOL    HW2 2518   0.865  13.777  10.350
33541SOL     OW 2519   0.772   3.117   8.305
33541SOL    HW1 2520   0.745   3.070   8.384
33541SOL    HW2 2521   0.694   3.163   8.276
33542SOL     OW 2522   2.284   2.748   4.518
33542SOL    HW1 2523   2.201   2.788   4.544
33542SOL    HW2 2524   2.260   2.660   4.488
33543SOL     OW 2525   7.841   6.748   5.503
33543SOL    HW1 2526   7.761   6.791   5.475
33543SOL    HW2 2527   7.820   6.711   5.588
33544SOL     OW 2528   9.389   0.579  11.823
33544SOL    HW1 2529   9.317   0.638  11.802
33544SOL    HW2 2530   9.433   0.620  11.898
33545SOL     OW 2531  12.307   0.768   3.469
33545SOL    HW1 2532  12.287   0.731   3.555
33545SOL    HW2 2533  12.372   0.709   3.431
33546SOL     OW 2534   1.289  11.511   3.190
33546SOL    HW1 2535   1.271  11.464   3.271
33546SOL    HW2 2536   1.215  11.489   3.133
33547SOL     OW 2537   3.467   5.960  10.695
33547SOL    HW1 2538   3.438   6.004  10.616
33547SOL    HW2 2539   3.510   5.881  10.664
33548SOL     OW 2540   7.661   3.597   0.793
33548SOL    HW1 2541   7.650   3.509   0.827
33548SOL    HW2 2542   7.626   3.654   0.862
33549SOL     OW 2543  14.079  12.692  11.444
33549SOL    HW1 2544  14.043  12.637  11.513
33549SOL    HW2 2545  14.056  12.781  11.470
33550SOL     OW 2546  11.713   1.911   2.196
33550SOL    HW1 2547  11.784   1.963   2.159
33550SOL    HW2 2548  11.689   1.955   2.277
33551SOL     OW 2549  13.550   7.068   6.307
33551SOL    HW1 2550  13.510   7.150   6.335
33551SOL    HW2 2551  13.603   7.040   6.382
33552SOL     OW 2552   4.343  11.750   5.505
33552SOL    HW1 2553   4.380  11.781   5.422
33552SOL    HW2 2554   4.249  11.768   5.497
33553SOL     OW 2555   1.504   7.615   2.042
33553SOL    HW1 2556   1.590   7.608   2.084
33553SOL    HW2 2557   1.455   7.539   2.073
33554SOL     OW 2558   8.822   1.176   3.665
33554SOL    HW1 2559   8.872   1.189   3.746
33554SOL    HW2 2560   8.874   1.113   3.615
33555SOL     OW 2561  11.972   6.792   2.854
33555SOL    HW1 2562  11.880   6.776   2.834
33555SOL    HW2 2563  12.016   6.708   2.834
33556SOL     OW 2564  10.587   3.314   7.447
33556SOL    HW1 2565  10.571   3.370   7.522
33556SOL    HW2 2566  10.536   3.354   7.376
33557SOL     OW 2567   0.639   0.312  13.798
33557SOL    HW1 2568   0.604   0.252  13.731
33557SOL    HW2 2569   0.733   0.295  13.798
33558SOL     OW 2570   0.971  13.718   6.692
33558SOL    HW1 2571   0.944  13.684   6.777
33558SOL    HW2 2572   0.947  13.650   6.629
33559SOL     OW 2573  12.725  12.175  11.570
33559SOL    HW1 2574  12.788  12.247  11.578
33559SOL    HW2 2575  12.682  12.190  11.485
33560SOL     OW 2576   6.637   8.008   4.401
33560SOL    HW1 2577   6.565   7.988   4.460
33560SOL    HW2 2578   6.629   7.945   4.330
33561SOL     OW 2579  14.771   9.081   5.750
33561SOL    HW1 2580  14.686   9.057   5.788
33561SOL    HW2 2581  14.825   9.003   5.761
33562SOL     OW 2582   7.345   0.645   1.102
33562SOL    HW1 2583   7.382   0.587   1.036
33562SOL    HW2 2584   7.324   0.725   1.055
33563SOL     OW 2585   2.136  10.240   7.048
33563SOL    HW1 2586   2.146  10.186   6.970
33563SOL    HW2 2587   2.221  10.233   7.092
33564SOL     OW 2588   4.385   8.418  10.321
33564SOL    HW1 2589   4.311   8.415  10.261
33564SOL    HW2 2590   4.353   8.471  10.395
33565SOL     OW 2591   0.513  12.873  11.793
33565SOL    HW1 2592   0.545  12.934  11.859
33565SOL    HW2 2593   0.544  12.909  11.710
33566SOL     OW 2594  12.827   9.932  14.146
33566SOL    HW1 2595  12.760   9.874  14.182
33566SOL    HW2 2596  12.865   9.883  14.073
33567SOL     OW 2597   7.794   0.445   4.135
33567SOL    HW1 2598   7.864   0.489   4.088
33567SOL    HW2 2599   7.740   0.405   4.067
33568SOL     OW 2600   7.809  12.493   0.656
33568SOL    HW1 2601   7.761  12.570   0.623
33568SOL    HW2 2602   7.765  12.471   0.738
33569SOL     OW 2603   5.387  14.866   2.311
33569SOL    HW1 2604   5.332  14.857   2.233
33569SOL    HW2 2605   5.473   0.014   2.277
33570SOL     OW 2606  12.367   3.626  14.815
33570SOL    HW1 2607  12.279   3.656  14.836
33570SOL    HW2 2608  12.377   3.646  14.722
33571SOL     OW 2609   0.002   9.412   5.147
33571SOL    HW1 2610  14.863   9.332   5.195
33571SOL    HW2 2611  14.795   9.448   5.126
33572SOL     OW 2612   3.569   8.854  13.021
33572SOL    HW1 2613   3.615   8.834  12.940
33572SOL    HW2 2614   3.574   8.774  13.073
33573SOL     OW 2615  10.866  14.539  10.571
33573SOL    HW1 2616  10.853  14.558  10.478
33573SOL    HW2 2617  10.942  14.481  10.572
33574SOL     OW 2618   6.631   4.421   9.657
33574SOL    HW1 2619   6.544   4.385   9.646
33574SOL    HW2 2620   6.668   4.424   9.569
33575SOL     OW 2621   8.376   2.442   5.903
33575SOL    HW1 2622   8.416   2.357   5.884
33575SOL    HW2 2623   8.281   2.425   5.900
33576SOL     OW 2624   4.043   0.047   4.861
33576SOL    HW1 2625   4.040  14.836   4.892
33576SOL    HW2 2626   4.034   0.039   4.766
33577SOL     OW 2627   7.154  11.279   9.822
33577SOL    HW1 2628   7.113  11.283   9.908
33577SOL    HW2 2629   7.086  11.241   9.766
33578SOL     OW 2630   8.064  13.094   4.350
33578SOL    HW1 2631   8.009  13.018   4.365
33578SOL    HW2 2632   8.151  13.058   4.330
33579SOL     OW 2633   2.623   6.604   3.525
33579SOL    HW1 2634   2.615   6.584   3.619
33579SOL    HW2 2635   2.647   6.521   3.485
33580SOL     OW 2636   4.771   7.988   4.703
33580SOL    HW1 2637   4.726   7.990   4.618
33580SOL    HW2 2638   4.791   7.895   4.717
33581SOL     OW 2639  10.547  11.743  13.703
33581SOL    HW1 2640  10.468  11.738  13.758
33581SOL    HW2 2641  10.581  11.653  13.701
33582SOL     OW 2642  12.314   1.761   0.586
33582SOL    HW1 2643  12.350   1.756   0.497
33582SOL    HW2 2644  12.390   1.780   0.641
33583SOL     OW 2645   1.285   8.458  11.274
33583SOL    HW1 2646   1.357   8.453  11.210
33583SOL    HW2 2647   1.210   8.486  11.222
33584SOL     OW 2648  11.026   5.934   1.215
33584SOL    HW1 2649  11.053   5.952   1.305
33584SOL    HW2 2650  11.038   5.840   1.205
33585SOL     OW 2651  11.654   7.356   5.484
33585SOL    HW1 2652  11.739   7.381   5.521
33585SOL    HW2 2653  11.644   7.412   5.407
33586SOL     OW 2654  11.410   0.554  11.405
33586SOL    HW1 2655  11.422   0.486  11.338
33586SOL    HW2 2656  11.316   0.575  11.400
33587SOL     OW 2657   3.486   6.327   9.255
33587SOL    HW1 2658   3.529   6.245   9.229
33587SOL    HW2 2659   3.553   6.375   9.303
33588SOL     OW 2660   7.329  14.780  11.719
33588SOL    HW1 2661   7.304  14.745  11.633
33588SOL    HW2 2662   7.283  14.864  11.724
33589SOL     OW 2663  12.297   0.866   7.599
33589SOL    HW1 2664  12.341   0.947   7.624
33589SOL    HW2 2665  12.212   0.871   7.643
33590SOL     OW 2666   7.927   9.597   2.137
33590SOL    HW1 2667   7.979   9.535   2.087
33590SOL    HW2 2668   7.845   9.607   2.088
33591SOL     OW 2669  13.206   0.177  11.465
33591SOL    HW1 2670  13.290   0.210  11.498
33591SOL    HW2 2671  13.155   0.256  11.448
33592SOL     OW 2672   0.646  11.979   6.947
33592SOL    HW1 2673   0.555  11.968   6.975
33592SOL    HW2 2674   0.676  11.889   6.931
33593SOL     OW 2675   1.042   8.708   6.602
33593SOL    HW1 2676   0.977   8.778   6.596
33593SOL    HW2 2677   0.990   8.628   6.615
33594SOL     OW 2678  11.710   0.303   2.361
33594SOL    HW1 2679  11.709   0.254   2.279
33594SOL    HW2 2680  11.643   0.261   2.415
33595SOL     OW 2681   8.866   8.023  13.296
33595SOL    HW1 2682   8.907   8.105  13.325
33595SOL    HW2 2683   8.776   8.048  13.274
33596SOL     OW 2684   3.073   2.784   4.082
33596SOL    HW1 2685   3.117   2.707   4.046
33596SOL    HW2 2686   3.051   2.759   4.172
33597SOL     OW 2687   1.827   7.239  13.872
33597SOL    HW1 2688   1.799   7.153  13.903
33597SOL    HW2 2689   1.890   7.220  13.803
33598SOL     OW 2690  11.714   0.151  11.307
33598SOL    HW1 2691  11.810   0.149  11.309
33598SOL    HW2 2692  11.692   0.115  11.221
33599SOL     OW 2693   0.874  11.612   4.893
33599SOL    HW1 2694   0.925  11.556   4.951
33599SOL    HW2 2695   0.893  11.701   4.921
33600SOL     OW 2696   1.909  11.575   5.533
33600SOL    HW1 2697   1.835  11.568   5.592
33600SOL    HW2 2698   1.984  11.593   5.591
33601SOL     OW 2699   2.870   5.715  14.814
33601SOL    HW1 2700   2.791   5.715  14.867
33601SOL    HW2 2701   2.930   5.773  14.861
33602SOL     OW 2702   6.550  10.349  10.894
33602SOL    HW1 2703   6.641  10.323  10.878
33602SOL    HW2 2704   6.506  10.334  10.811
33603SOL     OW 2705   9.709   8.516   7.182
33603SOL    HW1 2706   9.638   8.471   7.227
33603SOL    HW2 2707   9.742   8.451   7.119
33604SOL     OW 2708   1.080  14.441   8.037
33604SOL    HW1 2709   1.149  14.499   8.069
33604SOL    HW2 2710   0.999  14.482   8.066
33605SOL     OW 2711  12.141   1.584   7.048
33605SOL    HW1 2712  12.193   1.516   7.090
33605SOL    HW2 2713  12.186   1.666   7.069
33606SOL     OW 2714  10.752  12.354  10.527
33606SOL    HW1 2715  10.686  12.408  10.569
33606SOL    HW2 2716  10.750  12.271  10.576
33607SOL     OW 2717   6.325  11.365   9.093
33607SOL    HW1 2718   6.351  11.454   9.068
33607SOL    HW2 2719   6.234  11.375   9.124
33608SOL     OW 2720  10.537   6.629  14.665
33608SOL    HW1 2721  10.533   6.546  14.712
33608SOL    HW2 2722  10.500   6.610  14.579
33609SOL     OW 2723  10.568   8.505   6.312
33609SOL    HW1 2724  10.569   8.597   6.336
33609SOL    HW2 2725  10.543   8.459   6.392
33610SOL     OW 2726   5.209   1.358   9.319
33610SOL    HW1 2727   5.227   1.452   9.315
33610SOL    HW2 2728   5.199   1.332   9.227
33611SOL     OW 2729   4.659   2.212   3.193
33611SOL    HW1 2730   4.718   2.287   3.191
33611SOL    HW2 2731   4.676   2.165   3.111
33612SOL     OW 2732   2.767   4.180   1.299
33612SOL    HW1 2733   2.821   4.259   1.299
33612SOL    HW2 2734   2.677   4.212   1.298
33613SOL     OW 2735   2.450   3.031   8.361
33613SOL    HW1 2736   2.426   3.117   8.327
33613SOL    HW2 2737   2.416   2.969   8.296
33614SOL     OW 2738   7.293   6.646   0.716
33614SOL    HW1 2739   7.378   6.618   0.751
33614SOL    HW2 2740   7.315   6.690   0.634
33615SOL     OW 2741   9.498  13.216  13.953
33615SOL    HW1 2742   9.552  13.163  14.012
33615SOL    HW2 2743   9.553  13.227  13.875
33616SOL     OW 2744   8.383  14.260   4.964
33616SOL    HW1 2745   8.396  14.353   4.983
33616SOL    HW2 2746   8.434  14.244   4.885
33617SOL     OW 2747  10.974   4.664   6.287
33617SOL    HW1 2748  11.068   4.656   6.271
33617SOL    HW2 2749  10.955   4.592   6.347
33618SOL     OW 2750   0.985  12.548  10.531
33618SOL    HW1 2751   0.930  12.620  10.499
33618SOL    HW2 2752   0.996  12.567  10.624
33619SOL     OW 2753   6.416   8.470  14.001
33619SOL    HW1 2754   6.474   8.441  13.931
33619SOL    HW2 2755   6.403   8.564  13.984
33620SOL     OW 2756  14.413   1.761   8.618
33620SOL    HW1 2757  14.345   1.694   8.627
33620SOL    HW2 2758  14.494   1.715   8.638
33621SOL     OW 2759   2.171  11.868   3.406
33621SOL    HW1 2760   2.255  11.828   3.385
33621SOL    HW2 2761   2.131  11.886   3.321
33622SOL     OW 2762  13.931  10.817   1.909
33622SOL    HW1 2763  14.019  10.791   1.880
33622SOL    HW2 2764  13.923  10.908   1.882
33623SOL     OW 2765   3.723   5.942  10.126
33623SOL    HW1 2766   3.670   5.920  10.202
33623SOL    HW2 2767   3.812   5.949  10.159
33624SOL     OW 2768   2.890   4.049  13.995
33624SOL    HW1 2769   2.944   3.996  13.937
33624SOL    HW2 2770   2.803   4.045  13.956
33625SOL     OW 2771  14.025   3.989   9.071
33625SOL    HW1 2772  13.957   4.055   9.083
33625SOL    HW2 2773  13.978   3.906   9.074
33626SOL     OW 2774  14.560   4.672   1.729
33626SOL    HW1 2775  14.546   4.619   1.651
33626SOL    HW2 2776  14.532   4.616   1.801
33627SOL     OW 2777  12.795   0.421  12.634
33627SOL    HW1 2778  12.774   0.420  12.540
33627SOL    HW2 2779  12.850   0.344  12.647
33628SOL     OW 2780   7.756  12.691  13.081
33628SOL    HW1 2781   7.746  12.776  13.038
33628SOL    HW2 2782   7.850  12.674  13.079
33629SOL     OW 2783  14.428  12.305   5.450
33629SOL    HW1 2784  14.482  12.226   5.451
33629SOL    HW2 2785  14.491  12.376   5.443
33630SOL     OW 2786   0.422   3.433  10.024
33630SOL    HW1 2787   0.430   3.509  10.081
33630SOL    HW2 2788   0.330   3.429  10.001
33631SOL     OW 2789   1.740   9.473   9.122
33631SOL    HW1 2790   1.795   9.415   9.069
33631SOL    HW2 2791   1.735   9.553   9.071
33632SOL     OW 2792   8.488   5.578   8.677
33632SOL    HW1 2793   8.524   5.577   8.766
33632SOL    HW2 2794   8.523   5.498   8.636
33633SOL     OW 2795  11.101   2.960   5.691
33633SOL    HW1 2796  11.185   2.970   5.646
33633SOL    HW2 2797  11.114   2.888   5.752
33634SOL     OW 2798  12.070   0.355  13.065
33634SOL    HW1 2799  12.019   0.407  13.127
33634SOL    HW2 2800  12.052   0.394  12.980
33635SOL     OW 2801  12.530   3.077   5.544
33635SOL    HW1 2802  12.448   3.047   5.585
33635SOL    HW2 2803  12.582   3.111   5.617
33636SOL     OW 2804   1.136   7.377  10.701
33636SOL    HW1 2805   1.159   7.470  10.710
33636SOL    HW2 2806   1.202   7.342  10.641
33637SOL     OW 2807  12.883   3.935  12.551
33637SOL    HW1 2808  12.943   3.892  12.491
33637SOL    HW2 2809  12.935   3.954  12.629
33638SOL     OW 2810   6.286   7.024   4.660
33638SOL    HW1 2811   6.342   7.080   4.713
33638SOL    HW2 2812   6.288   6.939   4.704
33639SOL     OW 2813   4.160   5.284   2.591
33639SOL    HW1 2814   4.097   5.277   2.520
33639SOL    HW2 2815   4.117   5.242   2.665
33640SOL     OW 2816   5.367   9.069   0.067
33640SOL    HW1 2817   5.407   9.047   0.151
33640SOL    HW2 2818   5.438   9.060   0.003
33641SOL     OW 2819   5.518   8.424   5.754
33641SOL    HW1 2820   5.429   8.395   5.735
33641SOL    HW2 2821   5.527   8.507   5.707
33642SOL     OW 2822  12.562   5.467   0.583
33642SOL    HW1 2823  12.474   5.468   0.620
33642SOL    HW2 2824  12.603   5.547   0.617
33643SOL     OW 2825  12.990   4.095   8.394
33643SOL    HW1 2826  13.020   4.185   8.401
33643SOL    HW2 2827  13.067   4.042   8.413
33644SOL     OW 2828  13.584   7.014   2.348
33644SOL    HW1 2829  13.672   6.984   2.372
33644SOL    HW2 2830  13.558   7.072   2.420
33645SOL     OW 2831  14.736   5.674   7.371
33645SOL    HW1 2832  14.778   5.632   7.446
33645SOL    HW2 2833  14.655   5.624   7.359
33646SOL     OW 2834  14.376   2.441   0.106
33646SOL    HW1 2835  14.323   2.407   0.178
33646SOL    HW2 2836  14.408   2.525   0.137
33647SOL     OW 2837  14.459   4.210  14.284
33647SOL    HW1 2838  14.399   4.253  14.222
33647SOL    HW2 2839  14.491   4.133  14.237
33648SOL     OW 2840   9.513   1.130  13.755
33648SOL    HW1 2841   9.531   1.200  13.694
33648SOL    HW2 2842   9.568   1.149  13.831
33649SOL     OW 2843   8.210  11.337  12.803
33649SOL    HW1 2844   8.269  11.401  12.763
33649SOL    HW2 2845   8.129  11.344  12.753
33650SOL     OW 2846   7.865   9.385  11.486
33650SOL    HW1 2847   7.954   9.415  11.472
33650SOL    HW2 2848   7.871   9.289  11.488
33651SOL     OW 2849  13.830   9.737   9.732
33651SOL    HW1 2850  13.899   9.796   9.763
33651SOL    HW2 2851  13.748   9.781   9.755
33652SOL     OW 2852  13.486  12.556   0.840
33652SOL    HW1 2853  13.415  12.492   0.843
33652SOL    HW2 2854  13.557  12.516   0.891
33653SOL     OW 2855   1.593   8.913   7.143
33653SOL    HW1 2856   1.546   8.873   7.070
33653SOL    HW2 2857   1.538   8.898   7.219
33654SOL     OW 2858  12.068   6.608  11.022
33654SOL    HW1 2859  12.009   6.562  10.962
33654SOL    HW2 2860  12.023   6.605  11.107
33655SOL     OW 2861   8.752   9.090   5.085
33655SOL    HW1 2862   8.777   9.168   5.035
33655SOL    HW2 2863   8.672   9.116   5.131
33656SOL     OW 2864  13.300  12.502   7.442
33656SOL    HW1 2865  13.333  12.592   7.438
33656SOL    HW2 2866  13.212  12.510   7.478
33657SOL     OW 2867   0.121   6.377   1.646
33657SOL    HW1 2868   0.210   6.344   1.659
33657SOL    HW2 2869   0.088   6.393   1.734
33658SOL     OW 2870  11.919   6.192  12.141
33658SOL    HW1 2871  11.864   6.203  12.219
33658SOL    HW2 2872  12.004   6.228  12.165
33659SOL     OW 2873  11.041   6.437  14.104
33659SOL    HW1 2874  11.010   6.503  14.042
33659SOL    HW2 2875  11.078   6.487  14.177
33660SOL     OW 2876   6.164   4.052  13.332
33660SOL    HW1 2877   6.187   3.989  13.399
33660SOL    HW2 2878   6.124   4.125  13.380
33661SOL     OW 2879   4.579   3.177  10.030
33661SOL    HW1 2880   4.531   3.167   9.948
33661SOL    HW2 2881   4.522   3.138  10.096
33662SOL     OW 2882   0.121   4.501  14.093
33662SOL    HW1 2883   0.139   4.459  14.178
33662SOL    HW2 2884   0.094   4.590  14.115
33663SOL     OW 2885   7.300   9.765   2.624
33663SOL    HW1 2886   7.267   9.848   2.591
33663SOL    HW2 2887   7.395   9.769   2.609
33664SOL     OW 2888   2.913   3.797   7.787
33664SOL    HW1 2889   2.854   3.873   7.790
33664SOL    HW2 2890   2.872   3.736   7.727
33665SOL     OW 2891   4.188  14.503   2.804
33665SOL    HW1 2892   4.184  14.413   2.836
33665SOL    HW2 2893   4.267  14.540   2.844
33666SOL     OW 2894   3.155   1.926   3.669
33666SOL    HW1 2895   3.241   1.942   3.707
33666SOL    HW2 2896   3.169   1.857   3.604
33667SOL     OW 2897   1.916   2.404  13.776
33667SOL    HW1 2898   1.860   2.404  13.853
33667SOL    HW2 2899   1.899   2.321  13.733
33668SOL     OW 2900   9.165   3.349   5.299
33668SOL    HW1 2901   9.245   3.389   5.266
33668SOL    HW2 2902   9.194   3.264   5.334
33669SOL     OW 2903   6.039   9.337  13.872
33669SOL    HW1 2904   6.039   9.256  13.821
33669SOL    HW2 2905   5.954   9.338  13.915
33670SOL     OW 2906  10.159   5.521  13.659
33670SOL    HW1 2907  10.109   5.602  13.649
33670SOL    HW2 2908  10.202   5.509  13.574
33671SOL     OW 2909   6.325   3.271  14.782
33671SOL    HW1 2910   6.271   3.331  14.731
33671SOL    HW2 2911   6.265   3.232  14.845
33672SOL     OW 2912   3.935  10.542  11.710
33672SOL    HW1 2913   3.877  10.602  11.664
33672SOL    HW2 2914   3.885  10.461  11.718
33673SOL     OW 2915   0.591   1.964   3.073
33673SOL    HW1 2916   0.639   2.011   3.141
33673SOL    HW2 2917   0.552   2.032   3.019
33674SOL     OW 2918   2.365   8.383  12.076
33674SOL    HW1 2919   2.308   8.405  12.150
33674SOL    HW2 2920   2.435   8.331  12.114
33675SOL     OW 2921  14.630   6.267   2.847
33675SOL    HW1 2922  14.561   6.329   2.821
33675SOL    HW2 2923  14.693   6.270   2.776
33676SOL     OW 2924  13.437   3.688   9.997
33676SOL    HW1 2925  13.456   3.637  10.076
33676SOL    HW2 2926  13.344   3.672   9.980
33677SOL     OW 2927   7.347  10.090   5.378
33677SOL    HW1 2928   7.442  10.093   5.391
33677SOL    HW2 2929   7.330  10.002   5.346
33678SOL     OW 2930  11.065   6.449   4.379
33678SOL    HW1 2931  10.982   6.496   4.388
33678SOL    HW2 2932  11.049   6.386   4.308
33679SOL     OW 2933   8.846   2.755  11.393
33679SOL    HW1 2934   8.836   2.849  11.409
33679SOL    HW2 2935   8.899   2.749  11.313
33680SOL     OW 2936   9.430  13.172  10.607
33680SOL    HW1 2937   9.382  13.212  10.534
33680SOL    HW2 2938   9.440  13.081  10.582
33681SOL     OW 2939   0.914  12.150  13.400
33681SOL    HW1 2940   0.884  12.059  13.405
33681SOL    HW2 2941   1.006  12.146  13.428
33682SOL     OW 2942   1.163  14.770   7.548
33682SOL    HW1 2943   1.201  14.701   7.493
33682SOL    HW2 2944   1.135  14.724   7.628
33683SOL     OW 2945   4.512  11.732  10.245
33683SOL    HW1 2946   4.488  11.674  10.172
33683SOL    HW2 2947   4.552  11.808  10.203
33684SOL     OW 2948   4.981   2.900   2.356
33684SOL    HW1 2949   4.921   2.832   2.325
33684SOL    HW2 2950   5.032   2.924   2.279
33685SOL     OW 2951  11.803   7.256   0.130
33685SOL    HW1 2952  11.734   7.312   0.093
33685SOL    HW2 2953  11.848   7.220   0.054
33686SOL     OW 2954   6.769   1.015   4.934
33686SOL    HW1 2955   6.845   1.042   4.985
33686SOL    HW2 2956   6.707   0.980   4.998
33687SOL     OW 2957   1.146   1.198   0.858
33687SOL    HW1 2958   1.061   1.236   0.834
33687SOL    HW2 2959   1.140   1.182   0.952
33688SOL     OW 2960   6.857   7.207  14.251
33688SOL    HW1 2961   6.828   7.116  14.244
33688SOL    HW2 2962   6.789   7.249  14.304
33689SOL     OW 2963  10.098   9.219  10.571
33689SOL    HW1 2964  10.170   9.176  10.525
33689SOL    HW2 2965  10.121   9.312  10.572
33690SOL     OW 2966   5.623   5.993   2.328
33690SOL    HW1 2967   5.553   5.929   2.342
33690SOL    HW2 2968   5.619   6.050   2.404
33691SOL     OW 2969  13.031   6.456   0.900
33691SOL    HW1 2970  13.120   6.450   0.934
33691SOL    HW2 2971  12.975   6.424   0.971
33692SOL     OW 2972   5.134   0.612   6.587
33692SOL    HW1 2973   5.211   0.628   6.642
33692SOL    HW2 2974   5.171   0.586   6.503
33693SOL     OW 2975  14.836   7.341   6.972
33693SOL    HW1 2976  14.798   7.394   6.902
33693SOL    HW2 2977   0.016   7.281   6.928
33694SOL     OW 2978  11.595   9.809   2.844
33694SOL    HW1 2979  11.602   9.731   2.900
33694SOL    HW2 2980  11.509   9.846   2.866
33695SOL     OW 2981   2.815   2.774  12.718
33695SOL    HW1 2982   2.777   2.688  12.703
33695SOL    HW2 2983   2.773   2.830  12.652
33696SOL     OW 2984  13.766   1.609   5.064
33696SOL    HW1 2985  13.704   1.554   5.111
33696SOL    HW2 2986  13.840   1.551   5.044
33697SOL     OW 2987  13.497   4.188   3.934
33697SOL    HW1 2988  13.546   4.161   4.012
33697SOL    HW2 2989  13.416   4.138   3.937
33698SOL     OW 2990   9.216   6.207  13.640
33698SOL    HW1 2991   9.128   6.236  13.662
33698SOL    HW2 2992   9.252   6.276  13.585
33699SOL     OW 2993   6.192   1.423  12.045
33699SOL    HW1 2994   6.101   1.436  12.071
33699SOL    HW2 2995   6.188   1.399  11.952
33700SOL     OW 2996  12.498   0.637   3.376
33700SOL    HW1 2997  12.517   0.548   3.405
33700SOL    HW2 2998  12.563   0.655   3.308
33701SOL     OW 2999  11.898  10.495   4.853
33701SOL    HW1 3000  11.858  10.460   4.773
33701SOL    HW2 3001  11.888  10.424   4.917
33702SOL     OW 3002  11.711  14.327   3.037
33702SOL    HW1 3003  11.743  14.292   2.954
33702SOL    HW2 3004  11.681  14.415   3.016
33703SOL     OW 3005   4.050  14.543   2.563
33703SOL    HW1 3006   4.045  14.456   2.525
33703SOL    HW2 3007   4.078  14.528   2.653
33704SOL     OW 3008  13.962   8.207   4.654
33704SOL    HW1 3009  14.015   8.204   4.574
33704SOL    HW2 3010  13.885   8.155   4.634
33705SOL     OW 3011   0.603   2.033   9.525
33705SOL    HW1 3012   0.648   2.062   9.445
33705SOL    HW2 3013   0.585   2.113   9.573
33706SOL     OW 3014   0.782   0.663  13.619
33706SOL    HW1 3015   0.709   0.720  13.646
33706SOL    HW2 3016   0.794   0.682  13.526
33707SOL     OW 3017   4.212   0.412  13.321
33707SOL    HW1 3018   4.217   0.361  13.402
33707SOL    HW2 3019   4.240   0.351  13.253
33708SOL     OW 3020  10.946   4.725   9.346
33708SOL    HW1 3021  10.892   4.716   9.425
33708SOL    HW2 3022  10.892   4.775   9.285
33709SOL     OW 3023  12.369   7.464   3.772
33709SOL    HW1 3024  12.456   7.500   3.756
33709SOL    HW2 3025  12.386   7.375   3.805
33710SOL     OW 3026  13.949   9.337   3.818
33710SOL    HW1 3027  13.916   9.255   3.855
33710SOL    HW2 3028  14.033   9.350   3.862
33711SOL     OW 3029   6.834   2.783   8.961
33711SOL    HW1 3030   6.806   2.832   8.883
33711SOL    HW2 3031   6.795   2.831   9.034
33712SOL     OW 3032  12.974  11.775  10.236
33712SOL    HW1 3033  12.973  11.686  10.199
33712SOL    HW2 3034  13.022  11.827  10.170
33713SOL     OW 3035   0.062   6.010  11.041
33713SOL    HW1 3036   0.079   6.004  11.135
33713SOL    HW2 3037  14.848   5.989  11.032
33714SOL     OW 3038  11.730  14.267   1.679
33714SOL    HW1 3039  11.664  14.200   1.660
33714SOL    HW2 3040  11.800  14.250   1.616
33715SOL     OW 3041   5.054   6.149  12.939
33715SOL    HW1 3042   5.126   6.177  12.883
33715SOL    HW2 3043   5.034   6.060  12.909
33716SOL     OW 3044   1.285   0.321   0.038
33716SOL    HW1 3045   1.352   0.253   0.050
33716SOL    HW2 3046   1.333   0.394  14.879
33717SOL     OW 3047   1.993  14.497   3.396
33717SOL    HW1 3048   1.903  14.463   3.389
33717SOL    HW2 3049   1.982  14.591   3.410
33718SOL     OW 3050   2.764  14.116   9.759
33718SOL    HW1 3051   2.788  14.112   9.852
33718SOL    HW2 3052   2.802  14.038   9.721
33719SOL     OW 3053  11.423   3.912   1.580
33719SOL    HW1 3054  11.337   3.897   1.617
33719SOL    HW2 3055  11.453   3.994   1.620
33720SOL     OW 3056  14.631  11.184   2.951
33720SOL    HW1 3057  14.697  11.253   2.959
33720SOL    HW2 3058  14.670  11.119   2.894
33721SOL     OW 3059   5.884   1.583  10.543
33721SOL    HW1 3060   5.969   1.554  10.577
33721SOL    HW2 3061   5.905   1.634  10.466
33722SOL     OW 3062  14.404   6.647   9.792
33722SOL    HW1 3063  14.469   6.666   9.860
33722SOL    HW2 3064  14.455   6.614   9.719
33723SOL     OW 3065   4.799   2.944  14.027
33723SOL    HW1 3066   4.798   3.021  14.083
33723SOL    HW2 3067   4.824   2.872  14.086
33724SOL     OW 3068  11.828  11.932  13.164
33724SOL    HW1 3069  11.834  11.893  13.077
33724SOL    HW2 3070  11.839  11.859  13.224
33725SOL     OW 3071  12.198  13.306  14.784
33725SOL    HW1 3072  12.229  13.327  14.696
33725SOL    HW2 3073  12.260  13.350  14.842
33726SOL     OW 3074  13.041  11.755   1.390
33726SOL    HW1 3075  13.082  11.693   1.329
33726SOL    HW2 3076  13.014  11.702   1.465
33727SOL     OW 3077  11.199   1.388   6.754
33727SOL    HW1 3078  11.232   1.459   6.699
33727SOL    HW2 3079  11.153   1.432   6.826
33728SOL     OW 3080   6.983   9.018   0.604
33728SOL    HW1 3081   6.999   8.938   0.653
33728SOL    HW2 3082   7.006   8.996   0.513
33729SOL     OW 3083   6.148  14.641  11.179
33729SOL    HW1 3084   6.063  14.685  11.186
33729SOL    HW2 3085   6.177  14.660  11.089
33730SOL     OW 3086  12.333  14.831   1.006
33730SOL    HW1 3087  12.272  14.761   1.027
33730SOL    HW2 3088  12.280   0.031   1.006
33731SOL     OW 3089   0.874   4.438   3.874
33731SOL    HW1 3090   0.954   4.490   3.864
33731SOL    HW2 3091   0.902   4.347   3.861
33732SOL     OW 3092  10.802   2.401   0.368
33732SOL    HW1 3093  10.814   2.400   0.273
33732SOL    HW2 3094  10.758   2.484   0.386
33733SOL     OW 3095   4.031   2.603   8.291
33733SOL    HW1 3096   3.980   2.666   8.240
33733SOL    HW2 3097   4.121   2.614   8.259
33734SOL     OW 3098  10.088  11.009   0.965
33734SOL    HW1 3099  10.012  10.990   0.911
33734SOL    HW2 3100  10.163  10.984   0.910
33735SOL     OW 3101  10.143  10.079   6.334
33735SOL    HW1 3102  10.190  10.007   6.375
33735SOL    HW2 3103  10.088  10.037   6.268
33736SOL     OW 3104   5.306   2.977  12.783
33736SOL    HW1 3105   5.290   3.066  12.751
33736SOL    HW2 3106   5.301   2.985  12.879
33737SOL     OW 3107   4.597  13.582  11.963
33737SOL    HW1 3108   4.658  13.631  12.018
33737SOL    HW2 3109   4.592  13.631  11.882
33738SOL     OW 3110   8.415   8.843  12.183
33738SOL    HW1 3111   8.359   8.891  12.244
33738SOL    HW2 3112   8.377   8.756  12.179
33739SOL     OW 3113   5.639  12.072   5.069
33739SOL    HW1 3114   5.631  12.017   4.990
33739SOL    HW2 3115   5.608  12.158   5.041
33740SOL     OW 3116   1.736  13.068  10.414
33740SOL    HW1 3117   1.665  13.089  10.353
33740SOL    HW2 3118   1.764  12.980  10.388
33741SOL     OW 3119   8.380  12.867   4.059
33741SOL    HW1 3120   8.410  12.790   4.107
33741SOL    HW2 3121   8.331  12.832   3.985
33742SOL     OW 3122  10.519   8.787   1.271
33742SOL    HW1 3123  10.475   8.867   1.244
33742SOL    HW2 3124  10.606   8.815   1.298
33743SOL     OW 3125  10.060   5.553  14.053
33743SOL    HW1 3126  10.047   5.610  13.977
33743SOL    HW2 3127  10.149   5.571  14.082
33744SOL     OW 3128  14.823  11.573   6.161
33744SOL    HW1 3129  14.844  11.637   6.093
33744SOL    HW2 3130   0.027  11.531   6.181
33745SOL     OW 3131   9.275   0.660   8.520
33745SOL    HW1 3132   9.330   0.721   8.569
33745SOL    HW2 3133   9.328   0.633   8.446
33746SOL     OW 3134   9.158   4.701  12.543
33746SOL    HW1 3135   9.244   4.681  12.506
33746SOL    HW2 3136   9.112   4.748  12.473
33747SOL     OW 3137   3.543   8.817   2.910
33747SOL    HW1 3138   3.467   8.817   2.969
33747SOL    HW2 3139   3.506   8.794   2.825
33748SOL     OW 3140   4.192   2.389  13.238
33748SOL    HW1 3141   4.111   2.348  13.268
33748SOL    HW2 3142   4.249   2.390  13.316
33749SOL     OW 3143   6.851   3.966   4.407
33749SOL    HW1 3144   6.846   3.974   4.502
33749SOL    HW2 3145   6.859   3.872   4.392
33750SOL     OW 3146  10.962   7.842   7.882
33750SOL    HW1 3147  10.892   7.893   7.841
33750SOL    HW2 3148  11.033   7.841   7.818
33751SOL     OW 3149   3.007   1.645   7.605
33751SOL    HW1 3150   3.006   1.667   7.698
33751SOL    HW2 3151   3.020   1.729   7.561
33752SOL     OW 3152   1.670   0.302   0.265
33752SOL    HW1 3153   1.700   0.381   0.310
33752SOL    HW2 3154   1.657   0.238   0.336
33753SOL     OW 3155   5.267  10.870   5.039
33753SOL    HW1 3156   5.274  10.784   4.999
33753SOL    HW2 3157   5.233  10.926   4.970
33754SOL     OW 3158  10.128   2.167   3.879
33754SOL    HW1 3159  10.214   2.148   3.843
33754SOL    HW2 3160  10.128   2.127   3.965
33755SOL     OW 3161  13.851  12.396  13.241
33755SOL    HW1 3162  13.937  12.405  13.282
33755SOL    HW2 3163  13.834  12.482  13.202
33756SOL     OW 3164   4.094   0.049   2.788
33756SOL    HW1 3165   4.022  14.865   2.791
33756SOL    HW2 3166   4.076   0.102   2.711
33757SOL     OW 3167  10.015   2.755  13.905
33757SOL    HW1 3168  10.075   2.822  13.939
33757SOL    HW2 3169   9.931   2.776  13.947
33758SOL     OW 3170  13.626   8.186   9.336
33758SOL    HW1 3171  13.620   8.274   9.374
33758SOL    HW2 3172  13.672   8.134   9.401
33759SOL     OW 3173  13.513  10.408   7.692
33759SOL    HW1 3174  13.532  10.420   7.599
33759SOL    HW2 3175  13.460  10.485   7.715
33760SOL     OW 3176  12.649  14.553   8.548
33760SOL    HW1 3177  12.645  14.646   8.573
33760SOL    HW2 3178  12.736  14.525   8.574
33761SOL     OW 3179   0.031   7.580  11.860
33761SOL    HW1 3180  14.820   7.549  11.855
33761SOL    HW2 3181   0.047   7.592  11.954
33762SOL     OW 3182   7.020   3.967   8.285
33762SOL    HW1 3183   7.053   3.932   8.202
33762SOL    HW2 3184   6.948   3.909   8.309
33763SOL     OW 3185   3.625  13.761   5.012
33763SOL    HW1 3186   3.531  13.745   5.021
33763SOL    HW2 3187   3.661  13.747   5.100
33764SOL     OW 3188   9.425  12.867   3.628
33764SOL    HW1 3189   9.516  12.837   3.632
33764SOL    HW2 3190   9.394  12.838   3.542
33765SOL     OW 3191   2.475   2.395   2.314
33765SOL    HW1 3192   2.468   2.318   2.371
33765SOL    HW2 3193   2.455   2.469   2.371
33766SOL     OW 3194  14.680   7.176   7.621
33766SOL    HW1 3195  14.616   7.239   7.653
33766SOL    HW2 3196  14.647   7.091   7.651
33767SOL     OW 3197  11.684   1.238   4.068
33767SOL    HW1 3198  11.628   1.214   3.994
33767SOL    HW2 3199  11.773   1.230   4.034
33768SOL     OW 3200   1.416  13.058   2.447
33768SOL    HW1 3201   1.442  13.141   2.407
33768SOL    HW2 3202   1.425  12.994   2.377
33769SOL     OW 3203   1.973   7.608   8.611
33769SOL    HW1 3204   1.937   7.689   8.575
33769SOL    HW2 3205   1.978   7.548   8.536
33770SOL     OW 3206  13.955   2.467  10.341
33770SOL    HW1 3207  13.973   2.483  10.434
33770SOL    HW2 3208  14.013   2.394  10.318
33771SOL     OW 3209   1.232   8.597  13.733
33771SOL    HW1 3210   1.207   8.664  13.796
33771SOL    HW2 3211   1.160   8.595  13.670
33772SOL     OW 3212   4.779   5.063   7.096
33772SOL    HW1 3213   4.707   5.015   7.137
33772SOL    HW2 3214   4.741   5.101   7.018
33773SOL     OW 3215   6.914   4.867   2.593
33773SOL    HW1 3216   6.927   4.908   2.678
33773SOL    HW2 3217   7.002   4.856   2.558
33774SOL     OW 3218   9.445  14.036  13.702
33774SOL    HW1 3219   9.483  13.997  13.781
33774SOL    HW2 3220   9.388  14.105  13.735
33775SOL     OW 3221  13.720  10.903   3.603
33775SOL    HW1 3222  13.745  10.901   3.695
33775SOL    HW2 3223  13.705  10.996   3.584
33776SOL     OW 3224   9.188  10.026  14.201
33776SOL    HW1 3225   9.146  10.097  14.249
33776SOL    HW2 3226   9.245  10.071  14.138
33777SOL     OW 3227   3.496   8.578  12.095
33777SOL    HW1 3228   3.487   8.593  12.189
33777SOL    HW2 3229   3.516   8.485  12.087
33778SOL     OW 3230   4.143   8.074   0.602
33778SOL    HW1 3231   4.168   8.152   0.652
33778SOL    HW2 3232   4.048   8.070   0.609
33779SOL     OW 3233   3.549   0.981  12.585
33779SOL    HW1 3234   3.469   0.930  12.570
33779SOL    HW2 3235   3.557   0.985  12.680
33780SOL     OW 3236   7.196  10.822   6.445
33780SOL    HW1 3237   7.218  10.891   6.507
33780SOL    HW2 3238   7.139  10.864   6.381
33781SOL     OW 3239  13.957  13.263   4.526
33781SOL    HW1 3240  13.914  13.305   4.601
33781SOL    HW2 3241  13.912  13.298   4.449
33782SOL     OW 3242   1.847   8.430  10.833
33782SOL    HW1 3243   1.898   8.364  10.786
33782SOL    HW2 3244   1.847   8.401  10.924
33783SOL     OW 3245  14.178   2.646  14.771
33783SOL    HW1 3246  14.137   2.559  14.765
33783SOL    HW2 3247  14.104   2.706  14.780
33784SOL     OW 3248  10.142  14.302   3.157
33784SOL    HW1 3249  10.219  14.335   3.110
33784SOL    HW2 3250  10.133  14.212   3.125
33785SOL     OW 3251   3.951  12.579  13.176
33785SOL    HW1 3252   3.883  12.631  13.133
33785SOL    HW2 3253   3.984  12.521  13.107
33786SOL     OW 3254  14.313  10.413  13.858
33786SOL    HW1 3255  14.340  10.372  13.775
33786SOL    HW2 3256  14.312  10.507  13.839
33787SOL     OW 3257   8.456  10.987   7.045
33787SOL    HW1 3258   8.494  10.957   6.963
33787SOL    HW2 3259   8.503  10.939   7.113
33788SOL     OW 3260   6.873  11.549   4.830
33788SOL    HW1 3261   6.872  11.531   4.925
33788SOL    HW2 3262   6.915  11.634   4.822
33789SOL     OW 3263   3.227  14.110   7.094
33789SOL    HW1 3264   3.182  14.181   7.139
33789SOL    HW2 3265   3.250  14.048   7.164
33790SOL     OW 3266   1.060   5.968   0.037
33790SOL    HW1 3267   1.119   5.900   0.002
33790SOL    HW2 3268   0.992   5.975  14.850
33791SOL     OW 3269   3.479   1.361  14.709
33791SOL    HW1 3270   3.466   1.306  14.632
33791SOL    HW2 3271   3.406   1.423  14.707
33792SOL     OW 3272   1.349   4.593   6.440
33792SOL    HW1 3273   1.377   4.681   6.415
33792SOL    HW2 3274   1.423   4.557   6.488
33793SOL     OW 3275   7.305   2.107   8.954
33793SOL    HW1 3276   7.381   2.165   8.943
33793SOL    HW2 3277   7.279   2.119   9.045
33794SOL     OW 3278  12.335   9.336  13.278
33794SOL    HW1 3279  12.420   9.343  13.236
33794SOL    HW2 3280  12.337   9.253  13.326
33795SOL     OW 3281   2.734   7.643   1.636
33795SOL    HW1 3282   2.797   7.715   1.626
33795SOL    HW2 3283   2.787   7.568   1.664
33796SOL     OW 3284   4.321   9.284  12.140
33796SOL    HW1 3285   4.337   9.202  12.094
33796SOL    HW2 3286   4.298   9.347  12.072
33797SOL     OW 3287   6.091   0.720   7.420
33797SOL    HW1 3288   6.064   0.810   7.401
33797SOL    HW2 3289   6.045   0.667   7.355
33798SOL     OW 3290   1.046   4.655   7.254
33798SOL    HW1 3291   1.078   4.566   7.271
33798SOL    HW2 3292   0.968   4.643   7.200
33799SOL     OW 3293  14.829   9.915  10.980
33799SOL    HW1 3294  14.819  10.005  11.009
33799SOL    HW2 3295   0.041   9.894  10.995
33800SOL     OW 3296  10.618   6.841  10.362
33800SOL    HW1 3297  10.594   6.931  10.339
33800SOL    HW2 3298  10.636   6.846  10.456
33801SOL     OW 3299   3.496   6.830   4.307
33801SOL    HW1 3300   3.413   6.790   4.283
33801SOL    HW2 3301   3.477   6.924   4.312
33802SOL     OW 3302   1.208   0.528   6.644
33802SOL    HW1 3303   1.271   0.566   6.705
33802SOL    HW2 3304   1.246   0.543   6.557
33803SOL     OW 3305   3.545  11.370   6.357
33803SOL    HW1 3306   3.472  11.424   6.385
33803SOL    HW2 3307   3.617  11.431   6.344
33804SOL     OW 3308  13.427   5.260   8.404
33804SOL    HW1 3309  13.334   5.279   8.415
33804SOL    HW2 3310  13.453   5.221   8.487
33805SOL     OW 3311   0.839   9.567  13.700
33805SOL    HW1 3312   0.762   9.621  13.719
33805SOL    HW2 3313   0.894   9.622  13.645
33806SOL     OW 3314   0.311   6.498   8.051
33806SOL    HW1 3315   0.232   6.458   8.013
33806SOL    HW2 3316   0.370   6.507   7.976
33807SOL     OW 3317   9.261   4.753   2.090
33807SOL    HW1 3318   9.187   4.813   2.103
33807SOL    HW2 3319   9.225   4.683   2.036
33808SOL     OW 3320   1.737  11.229   1.018
33808SOL    HW1 3321   1.653  11.193   1.047
33808SOL    HW2 3322   1.800  11.195   1.082
33809SOL     OW 3323   8.376   9.236   9.911
33809SOL    HW1 3324   8.330   9.316   9.884
33809SOL    HW2 3325   8.386   9.186   9.830
33810SOL     OW 3326  12.247  14.812   4.438
33810SOL    HW1 3327  12.205  14.728   4.422
33810SOL    HW2 3328  12.298  14.799   4.519
33811SOL     OW 3329   5.641  13.135   5.200
33811SOL    HW1 3330   5.647  13.043   5.175
33811SOL    HW2 3331   5.727  13.156   5.237
33812SOL     OW 3332  11.895   1.376   1.694
33812SOL    HW1 3333  11.858   1.444   1.750
33812SOL    HW2 3334  11.910   1.420   1.610
33813SOL     OW 3335   2.911   5.556  12.038
33813SOL    HW1 3336   2.900   5.592  11.951
33813SOL    HW2 3337   2.826   5.519  12.060
33814SOL     OW 3338   1.224   9.219   2.847
33814SOL    HW1 3339   1.163   9.184   2.782
33814SOL    HW2 3340   1.252   9.142   2.897
33815SOL     OW 3341   4.718  10.191  14.068
33815SOL    HW1 3342   4.787  10.125  14.063
33815SOL    HW2 3343   4.751  10.256  14.131
33816SOL     OW 3344   4.994   1.143   5.628
33816SOL    HW1 3345   5.027   1.176   5.545
33816SOL    HW2 3346   5.005   1.048   5.623
33817SOL     OW 3347   9.418   1.929  14.127
33817SOL    HW1 3348   9.434   1.924  14.222
33817SOL    HW2 3349   9.396   2.020  14.111
33818SOL     OW 3350   8.378   1.357   1.576
33818SOL    HW1 3351   8.382   1.280   1.633
33818SOL    HW2 3352   8.304   1.407   1.608
33819SOL     OW 3353  12.303  11.204   8.208
33819SOL    HW1 3354  12.284  11.278   8.265
33819SOL    HW2 3355  12.220  11.157   8.199
33820SOL     OW 3356  14.629   2.658   1.708
33820SOL    HW1 3357  14.636   2.632   1.800
33820SOL    HW2 3358  14.634   2.754   1.710
33821SOL     OW 3359   6.870   9.831   5.937
33821SOL    HW1 3360   6.832   9.744   5.927
33821SOL    HW2 3361   6.944   9.832   5.877
33822SOL     OW 3362   6.121   8.269   7.364
33822SOL    HW1 3363   6.196   8.296   7.417
33822SOL    HW2 3364   6.083   8.350   7.331
33823SOL     OW 3365   5.235   0.942  12.585
33823SOL    HW1 3366   5.275   0.885  12.519
33823SOL    HW2 3367   5.148   0.905  12.599
33824SOL     OW 3368   3.472   1.669   9.340
33824SOL    HW1 3369   3.556   1.634   9.311
33824SOL    HW2 3370   3.495   1.733   9.407
33825SOL     OW 3371   4.018  12.801   2.803
33825SOL    HW1 3372   3.931  12.794   2.841
33825SOL    HW2 3373   4.003  12.815   2.710
33826SOL     OW 3374   3.916   5.438  12.100
33826SOL    HW1 3375   3.924   5.476  12.012
33826SOL    HW2 3376   3.825   5.452  12.125
33827SOL     OW 3377  10.444  10.710   1.087
33827SOL    HW1 3378  10.483  10.623   1.095
33827SOL    HW2 3379  10.375  10.700   1.022
33828SOL     OW 3380  12.032   8.574   5.189
33828SOL    HW1 3381  11.950   8.537   5.155
33828SOL    HW2 3382  12.007   8.661   5.222
33829SOL     OW 3383   8.488   1.248   8.690
33829SOL    HW1 3384   8.543   1.171   8.702
33829SOL    HW2 3385   8.401   1.213   8.671
33830SOL     OW 3386   9.163   4.028  12.728
33830SOL    HW1 3387   9.071   4.053  12.715
33830SOL    HW2 3388   9.164   3.933  12.713
33831SOL     OW 3389   8.970   8.144   7.244
33831SOL    HW1 3390   9.053   8.175   7.279
33831SOL    HW2 3391   8.921   8.224   7.223
33832SOL     OW 3392   1.536   3.109   1.604
33832SOL    HW1 3393   1.597   3.177   1.632
33832SOL    HW2 3394   1.533   3.048   1.678
33833SOL     OW 3395   2.060   9.482  11.091
33833SOL    HW1 3396   2.028   9.428  11.163
33833SOL    HW2 3397   1.988   9.541  11.071
33834SOL     OW 3398  10.741   2.223   9.233
33834SOL    HW1 3399  10.682   2.218   9.158
33834SOL    HW2 3400  10.709   2.155   9.292
33835SOL     OW 3401  10.586  13.222   8.269
33835SOL    HW1 3402  10.655  13.165   8.305
33835SOL    HW2 3403  10.544  13.259   8.347
33836SOL     OW 3404   9.630   0.525  12.679
33836SOL    HW1 3405   9.566   0.475  12.628
33836SOL    HW2 3406   9.698   0.462  12.700
33837SOL     OW 3407   8.298  11.744  11.475
33837SOL    HW1 3408   8.215  11.765  11.432
33837SOL    HW2 3409   8.329  11.828  11.509
33838SOL     OW 3410   8.674  11.440  13.728
33838SOL    HW1 3411   8.680  11.435  13.632
33838SOL    HW2 3412   8.607  11.375  13.751
33839SOL     OW 3413   0.364  10.793   1.271
33839SOL    HW1 3414   0.428  10.739   1.318
33839SOL    HW2 3415   0.279  10.757   1.295
33840SOL     OW 3416   1.073   9.793  12.733
33840SOL    HW1 3417   1.089   9.877  12.776
33840SOL    HW2 3418   0.979   9.790  12.719
33841SOL     OW 3419   0.195   8.836  12.270
33841SOL    HW1 3420   0.159   8.924  12.258
33841SOL    HW2 3421   0.251   8.844  12.347
33842SOL     OW 3422   9.071  13.073   5.257
33842SOL    HW1 3423   9.166  13.088   5.258
33842SOL    HW2 3424   9.062  12.978   5.260
33843SOL     OW 3425   9.970   6.481   5.319
33843SOL    HW1 3426   9.955   6.499   5.226
33843SOL    HW2 3427   9.977   6.567   5.359
33844SOL     OW 3428   0.798   8.912   0.635
33844SOL    HW1 3429   0.791   8.964   0.556
33844SOL    HW2 3430   0.848   8.967   0.696
33845SOL     OW 3431  13.248   1.700   4.456
33845SOL    HW1 3432  13.306   1.658   4.520
33845SOL    HW2 3433  13.159   1.677   4.485
33846SOL     OW 3434  12.848   1.743   2.474
33846SOL    HW1 3435  12.907   1.800   2.424
33846SOL    HW2 3436  12.865   1.655   2.441
33847SOL     OW 3437  12.392   5.916   9.918
33847SOL    HW1 3438  12.416   6.009   9.919
33847SOL    HW2 3439  12.443   5.878   9.990
33848SOL     OW 3440   4.033  12.332   6.279
33848SOL    HW1 3441   3.951  12.284   6.267
33848SOL    HW2 3442   4.051  12.372   6.194
33849SOL     OW 3443   8.435   6.581  14.009
33849SOL    HW1 3444   8.520   6.540  13.993
33849SOL    HW2 3445   8.425   6.580  14.104
33850SOL     OW 3446   0.809   6.261  11.545
33850SOL    HW1 3447   0.866   6.304  11.610
33850SOL    HW2 3448   0.781   6.332  11.488
33851SOL     OW 3449  13.427  10.871   4.928
33851SOL    HW1 3450  13.455  10.955   4.892
33851SOL    HW2 3451  13.387  10.825   4.854
33852SOL     OW 3452  14.171   4.520   1.370
33852SOL    HW1 3453  14.088   4.494   1.331
33852SOL    HW2 3454  14.238   4.483   1.313
33853SOL     OW 3455  13.545   1.728   8.861
33853SOL    HW1 3456  13.472   1.725   8.799
33853SOL    HW2 3457  13.576   1.638   8.867
33854SOL     OW 3458  13.806   3.989   7.182
33854SOL    HW1 3459  13.817   3.894   7.182
33854SOL    HW2 3460  13.800   4.012   7.274
33855SOL     OW 3461   6.712  10.892  13.458
33855SOL    HW1 3462   6.645  10.913  13.393
33855SOL    HW2 3463   6.665  10.844  13.527
33856SOL     OW 3464   3.598   3.665  11.398
33856SOL    HW1 3465   3.650   3.744  11.410
33856SOL    HW2 3466   3.631   3.604  11.465
33857SOL     OW 3467   9.945   2.495   2.586
33857SOL    HW1 3468   9.893   2.546   2.649
33857SOL    HW2 3469  10.023   2.469   2.636
33858SOL     OW 3470   8.206   0.271   6.204
33858SOL    HW1 3471   8.268   0.322   6.256
33858SOL    HW2 3472   8.216   0.306   6.115
33859SOL     OW 3473   9.013  12.069  10.125
33859SOL    HW1 3474   8.980  12.104  10.208
33859SOL    HW2 3475   8.955  11.995  10.106
33860SOL     OW 3476  14.592   7.264  13.909
33860SOL    HW1 3477  14.576   7.336  13.847
33860SOL    HW2 3478  14.527   7.198  13.885
33861SOL     OW 3479  13.408   8.480  11.199
33861SOL    HW1 3480  13.381   8.426  11.125
33861SOL    HW2 3481  13.498   8.451  11.217
33862SOL     OW 3482  13.990  11.993  12.013
33862SOL    HW1 3483  14.086  11.996  12.021
33862SOL    HW2 3484  13.973  11.909  11.972
33863SOL     OW 3485  11.629   3.883   8.012
33863SOL    HW1 3486  11.698   3.949   8.002
33863SOL    HW2 3487  11.570   3.919   8.078
33864SOL     OW 3488   4.515  10.795   1.533
33864SOL    HW1 3489   4.591  10.806   1.476
33864SOL    HW2 3490   4.499  10.882   1.570
33865SOL     OW 3491   9.330   2.636   3.709
33865SOL    HW1 3492   9.240   2.609   3.727
33865SOL    HW2 3493   9.350   2.700   3.777
33866SOL     OW 3494   3.130  10.692   7.665
33866SOL    HW1 3495   3.174  10.629   7.608
33866SOL    HW2 3496   3.181  10.773   7.656
33867SOL     OW 3497  13.207  11.246   2.302
33867SOL    HW1 3498  13.129  11.201   2.334
33867SOL    HW2 3499  13.269  11.175   2.282
33868SOL     OW 3500  13.541   7.550   5.833
33868SOL    HW1 3501  13.608   7.558   5.765
33868SOL    HW2 3502  13.532   7.456   5.847
33869SOL     OW 3503   6.921   4.313  13.131
33869SOL    HW1 3504   7.013   4.323  13.156
33869SOL    HW2 3505   6.895   4.400  13.101
33870SOL     OW 3506   8.493   9.416   6.861
33870SOL    HW1 3507   8.539   9.332   6.867
33870SOL    HW2 3508   8.405   9.397   6.894
33871SOL     OW 3509   9.536  13.602   6.405
33871SOL    HW1 3510   9.493  13.621   6.489
33871SOL    HW2 3511   9.625  13.636   6.416
33872SOL     OW 3512   9.369   3.838   6.489
33872SOL    HW1 3513   9.398   3.749   6.505
33872SOL    HW2 3514   9.437   3.893   6.527
33873SOL     OW 3515   9.503   5.859   3.754
33873SOL    HW1 3516   9.531   5.943   3.717
33873SOL    HW2 3517   9.508   5.797   3.681
33874SOL     OW 3518   0.284   4.761  13.452
33874SOL    HW1 3519   0.240   4.822  13.511
33874SOL    HW2 3520   0.335   4.704  13.510
33875SOL     OW 3521  13.109   7.886  11.277
33875SOL    HW1 3522  13.143   7.809  11.324
33875SOL    HW2 3523  13.187   7.929  11.242
33876SOL     OW 3524   3.836   2.061  13.550
33876SOL    HW1 3525   3.871   1.980  13.587
33876SOL    HW2 3526   3.895   2.082  13.477
33877SOL     OW 3527  12.421   0.035   8.351
33877SOL    HW1 3528  12.423  14.874   8.264
33877SOL    HW2 3529  12.460   0.121   8.338
33878SOL     OW 3530   0.507   3.922  11.070
33878SOL    HW1 3531   0.568   3.947  11.139
33878SOL    HW2 3532   0.497   4.001  11.017
33879SOL     OW 3533   8.026   6.886  12.049
33879SOL    HW1 3534   7.940   6.927  12.060
33879SOL    HW2 3535   8.024   6.852  11.959
33880SOL     OW 3536  10.823   1.206  14.520
33880SOL    HW1 3537  10.751   1.235  14.464
33880SOL    HW2 3538  10.791   1.123  14.558
33881SOL     OW 3539   9.775  12.737   6.907
33881SOL    HW1 3540   9.809  12.766   6.992
33881SOL    HW2 3541   9.722  12.661   6.926
33882SOL     OW 3542   5.826   2.218   2.663
33882SOL    HW1 3543   5.832   2.177   2.749
33882SOL    HW2 3544   5.911   2.259   2.650
33883SOL     OW 3545   8.550   5.267  13.987
33883SOL    HW1 3546   8.527   5.340  14.045
33883SOL    HW2 3547   8.590   5.202  14.044
33884SOL     OW 3548  10.343   2.171  12.658
33884SOL    HW1 3549  10.414   2.165  12.594
33884SOL    HW2 3550  10.264   2.152  12.607
33885SOL     OW 3551  13.154   5.670   9.236
33885SOL    HW1 3552  13.103   5.744   9.204
33885SOL    HW2 3553  13.243   5.688   9.205
33886SOL     OW 3554   5.843  13.563  13.005
33886SOL    HW1 3555   5.747  13.559  13.001
33886SOL    HW2 3556   5.868  13.609  12.924
33887SOL     OW 3557  11.669  13.329   1.007
33887SOL    HW1 3558  11.577  13.330   0.980
33887SOL    HW2 3559  11.685  13.238   1.032
33888SOL     OW 3560  13.706   2.335   4.597
33888SOL    HW1 3561  13.706   2.248   4.557
33888SOL    HW2 3562  13.746   2.321   4.683
33889SOL     OW 3563  11.686  11.920   6.323
33889SOL    HW1 3564  11.662  11.827   6.317
33889SOL    HW2 3565  11.718  11.941   6.235
33890SOL     OW 3566   5.040   7.465  13.179
33890SOL    HW1 3567   5.131   7.434  13.177
33890SOL    HW2 3568   5.021   7.478  13.272
33891SOL     OW 3569   9.425   5.947   8.256
33891SOL    HW1 3570   9.434   6.020   8.318
33891SOL    HW2 3571   9.512   5.908   8.252
33892SOL     OW 3572  13.440   2.670   6.147
33892SOL    HW1 3573  13.471   2.644   6.060
33892SOL    HW2 3574  13.399   2.755   6.133
33893SOL     OW 3575   1.775   8.513   9.337
33893SOL    HW1 3576   1.853   8.565   9.317
33893SOL    HW2 3577   1.785   8.488   9.429
33894SOL     OW 3578  10.581   7.460   6.291
33894SOL    HW1 3579  10.551   7.528   6.351
33894SOL    HW2 3580  10.523   7.386   6.307
33895SOL     OW 3581   0.030  10.340   3.215
33895SOL    HW1 3582  14.869  10.386   3.141
33895SOL    HW2 3583   0.019  10.401   3.289
33896SOL     OW 3584   7.870  13.063   8.884
33896SOL    HW1 3585   7.786  13.047   8.928
33896SOL    HW2 3586   7.933  13.014   8.936
33897SOL     OW 3587  12.537   7.337   0.710
33897SOL    HW1 3588  12.540   7.343   0.615
33897SOL    HW2 3589  12.455   7.290   0.729
33898SOL     OW 3590   2.335   4.690  14.527
33898SOL    HW1 3591   2.272   4.648  14.468
33898SOL    HW2 3592   2.316   4.653  14.613
33899SOL     OW 3593  14.107  10.837  10.673
33899SOL    HW1 3594  14.094  10.764  10.733
33899SOL    HW2 3595  14.185  10.882  10.705
33900SOL     OW 3596   4.257   1.473  11.306
33900SOL    HW1 3597   4.263   1.568  11.319
33900SOL    HW2 3598   4.189   1.445  11.367
33901SOL     OW 3599   2.978  14.828   2.371
33901SOL    HW1 3600   2.989  14.780   2.453
33901SOL    HW2 3601   2.978   0.040   2.397
33902SOL     OW 3602   9.037   3.889   5.712
33902SOL    HW1 3603   9.023   3.958   5.647
33902SOL    HW2 3604   9.044   3.936   5.795
33903SOL     OW 3605  14.655  13.063   0.505
33903SOL    HW1 3606  14.691  13.140   0.461
33903SOL    HW2 3607  14.720  13.041   0.572
33904SOL     OW 3608   9.909   9.262  12.855
33904SOL    HW1 3609   9.833   9.269  12.797
33904SOL    HW2 3610   9.977   9.314  12.812
33905SOL     OW 3611   4.918  12.506   1.209
33905SOL    HW1 3612   4.825  12.511   1.188
33905SOL    HW2 3613   4.929  12.563   1.285
33906SOL     OW 3614   7.258   7.383  12.373
33906SOL    HW1 3615   7.292   7.330  12.301
33906SOL    HW2 3616   7.191   7.328  12.414
33907SOL     OW 3617  13.306   6.244   8.187
33907SOL    HW1 3618  13.321   6.280   8.274
33907SOL    HW2 3619  13.335   6.312   8.127
33908SOL     OW 3620   5.294   5.249   9.897
33908SOL    HW1 3621   5.303   5.344   9.902
33908SOL    HW2 3622   5.341   5.225   9.817
33909SOL     OW 3623  10.891   5.782   4.925
33909SOL    HW1 3624  10.822   5.741   4.977
33909SOL    HW2 3625  10.855   5.867   4.900
33910SOL     OW 3626  12.438  11.736   7.837
33910SOL    HW1 3627  12.480  11.650   7.843
33910SOL    HW2 3628  12.433  11.768   7.927
33911SOL     OW 3629   5.444   7.974   2.411
33911SOL    HW1 3630   5.388   8.047   2.437
33911SOL    HW2 3631   5.389   7.921   2.353
33912SOL     OW 3632   0.592   6.754   9.900
33912SOL    HW1 3633   0.587   6.658   9.901
33912SOL    HW2 3634   0.586   6.778   9.808
33913SOL     OW 3635   6.658   7.915  13.027
33913SOL    HW1 3636   6.675   7.822  13.013
33913SOL    HW2 3637   6.719   7.960  12.969
33914SOL     OW 3638  11.608   2.572  13.442
33914SOL    HW1 3639  11.529   2.617  13.472
33914SOL    HW2 3640  11.586   2.479  13.450
33915SOL     OW 3641   7.747  10.021   4.998
33915SOL    HW1 3642   7.816   9.959   5.020
33915SOL    HW2 3643   7.731  10.069   5.079
33916SOL     OW 3644   2.985  12.252  13.008
33916SOL    HW1 3645   2.977  12.157  13.014
33916SOL    HW2 3646   2.989  12.282  13.099
33917SOL     OW 3647   3.640   1.134   9.087
33917SOL    HW1 3648   3.674   1.173   9.007
33917SOL    HW2 3649   3.545   1.141   9.079
33918SOL     OW 3650   6.147   9.950   5.581
33918SOL    HW1 3651   6.162   9.887   5.511
33918SOL    HW2 3652   6.129   9.897   5.658
33919SOL     OW 3653   3.921   9.204   3.520
33919SOL    HW1 3654   4.012   9.175   3.515
33919SOL    HW2 3655   3.872   9.139   3.469
33920SOL     OW 3656  13.896   1.063   4.705
33920SOL    HW1 3657  13.921   1.050   4.613
33920SOL    HW2 3658  13.912   1.155   4.722
33921SOL     OW 3659   4.801  12.922   2.084
33921SOL    HW1 3660   4.802  13.018   2.090
33921SOL    HW2 3661   4.851  12.903   2.004
33922SOL     OW 3662   3.311   4.967   6.075
33922SOL    HW1 3663   3.246   4.908   6.038
33922SOL    HW2 3664   3.390   4.914   6.083
33923SOL     OW 3665   4.542  13.165  14.367
33923SOL    HW1 3666   4.607  13.157  14.437
33923SOL    HW2 3667   4.472  13.105  14.392
33924SOL     OW 3668   5.367   1.006  11.041
33924SOL    HW1 3669   5.383   0.971  11.129
33924SOL    HW2 3670   5.451   1.001  10.996
33925SOL     OW 3671   7.583   8.945   4.027
33925SOL    HW1 3672   7.587   8.851   4.014
33925SOL    HW2 3673   7.674   8.975   4.022
33926SOL     OW 3674   8.534   3.511   3.540
33926SOL    HW1 3675   8.627   3.526   3.526
33926SOL    HW2 3676   8.503   3.590   3.584
33927SOL     OW 3677   2.804  13.329   4.591
33927SOL    HW1 3678   2.778  13.292   4.675
33927SOL    HW2 3679   2.874  13.272   4.560
33928SOL     OW 3680   9.357   6.002  14.509
33928SOL    HW1 3681   9.327   5.922  14.553
33928SOL    HW2 3682   9.367   5.977  14.418
33929SOL     OW 3683  10.369   5.925   7.824
33929SOL    HW1 3684  10.284   5.905   7.783
33929SOL    HW2 3685  10.395   6.009   7.786
33930SOL     OW 3686  11.769   7.047   2.242
33930SOL    HW1 3687  11.825   7.011   2.175
33930SOL    HW2 3688  11.779   7.142   2.234
33931SOL     OW 3689   1.324   2.390   8.037
33931SOL    HW1 3690   1.265   2.326   8.077
33931SOL    HW2 3691   1.411   2.352   8.047
33932SOL     OW 3692  13.529  10.671   3.780
33932SOL    HW1 3693  13.494  10.752   3.744
33932SOL    HW2 3694  13.453  10.616   3.796
33933SOL     OW 3695   0.362   5.227   7.921
33933SOL    HW1 3696   0.341   5.231   7.828
33933SOL    HW2 3697   0.328   5.142   7.950
33934SOL     OW 3698  14.331  13.876  11.052
33934SOL    HW1 3699  14.332  13.903  11.144
33934SOL    HW2 3700  14.256  13.923  11.014
33935SOL     OW 3701   5.189   8.971   0.580
33935SOL    HW1 3702   5.178   8.966   0.675
33935SOL    HW2 3703   5.273   9.016   0.568
33936SOL     OW 3704   5.871   2.192   7.975
33936SOL    HW1 3705   5.885   2.287   7.969
33936SOL    HW2 3706   5.867   2.164   7.883
33937SOL     OW 3707   5.704   6.441   7.818
33937SOL    HW1 3708   5.780   6.474   7.866
33937SOL    HW2 3709   5.737   6.424   7.730
33938SOL     OW 3710   9.905  13.426  12.637
33938SOL    HW1 3711   9.836  13.384  12.585
33938SOL    HW2 3712   9.984  13.417  12.583
33939SOL     OW 3713  10.596   0.989   8.634
33939SOL    HW1 3714  10.684   0.993   8.595
33939SOL    HW2 3715  10.607   1.027   8.721
33940SOL     OW 3716   8.714   8.022   3.420
33940SOL    HW1 3717   8.771   8.025   3.497
33940SOL    HW2 3718   8.752   7.953   3.366
33941SOL     OW 3719  10.251   5.348   2.651
33941SOL    HW1 3720  10.189   5.419   2.635
33941SOL    HW2 3721  10.337   5.390   2.645
33942SOL     OW 3722  11.583  11.390  10.859
33942SOL    HW1 3723  11.548  11.403  10.947
33942SOL    HW2 3724  11.515  11.424  10.801
33943SOL     OW 3725   9.587  13.779  10.984
33943SOL    HW1 3726   9.544  13.833  10.918
33943SOL    HW2 3727   9.517  13.726  11.021
33944SOL     OW 3728  11.386   6.952   0.632
33944SOL    HW1 3729  11.402   6.994   0.716
33944SOL    HW2 3730  11.315   6.890   0.649
33945SOL     OW 3731   3.747   2.075  10.044
33945SOL    HW1 3732   3.703   2.020  10.109
33945SOL    HW2 3733   3.804   2.132  10.096
33946SOL     OW 3734  10.262   7.368  11.559
33946SOL    HW1 3735  10.219   7.327  11.485
33946SOL    HW2 3736  10.304   7.446  11.523
33947SOL     OW 3737  11.847   4.942   1.253
33947SOL    HW1 3738  11.796   4.878   1.204
33947SOL    HW2 3739  11.932   4.900   1.265
33948SOL     OW 3740   0.222   2.372   6.522
33948SOL    HW1 3741   0.186   2.426   6.452
33948SOL    HW2 3742   0.149   2.359   6.583
33949SOL     OW 3743   3.441   7.311  10.663
33949SOL    HW1 3744   3.381   7.284  10.732
33949SOL    HW2 3745   3.443   7.407  10.668
33950SOL     OW 3746   6.269   0.101  11.211
33950SOL    HW1 3747   6.282   0.084  11.304
33950SOL    HW2 3748   6.346   0.065  11.169
33951SOL     OW 3749  12.276  14.085   0.263
33951SOL    HW1 3750  12.301  14.075   0.355
33951SOL    HW2 3751  12.192  14.130   0.266
33952SOL     OW 3752   3.919  12.410   6.604
33952SOL    HW1 3753   3.895  12.489   6.652
33952SOL    HW2 3754   3.891  12.428   6.514
33953SOL     OW 3755   8.873  11.483  10.786
33953SOL    HW1 3756   8.843  11.441  10.705
33953SOL    HW2 3757   8.955  11.438  10.807
33954SOL     OW 3758   1.099  14.476   2.150
33954SOL    HW1 3759   1.078  14.487   2.243
33954SOL    HW2 3760   1.051  14.547   2.107
33955SOL     OW 3761  13.827   4.058  12.680
33955SOL    HW1 3762  13.744   4.011  12.686
33955SOL    HW2 3763  13.835   4.103  12.764
33956SOL     OW 3764   8.233   7.010  14.525
33956SOL    HW1 3765   8.198   7.080  14.580
33956SOL    HW2 3766   8.163   6.992  14.462
33957SOL     OW 3767  14.269   5.594  13.419
33957SOL    HW1 3768  14.347   5.539  13.430
33957SOL    HW2 3769  14.286   5.643  13.338
33958SOL     OW 3770   7.335   0.186   3.223
33958SOL    HW1 3771   7.312   0.228   3.140
33958SOL    HW2 3772   7.347   0.258   3.284
33959SOL     OW 3773   0.902  12.403   0.289
33959SOL    HW1 3774   0.872  12.464   0.222
33959SOL    HW2 3775   0.822  12.370   0.329
33960SOL     OW 3776  13.368   1.619   0.142
33960SOL    HW1 3777  13.444   1.652   0.190
33960SOL    HW2 3778  13.358   1.528   0.170
33961SOL     OW 3779   1.127   4.751  11.983
33961SOL    HW1 3780   1.059   4.733  12.048
33961SOL    HW2 3781   1.194   4.686  12.001
33962SOL     OW 3782   8.749   5.702   0.327
33962SOL    HW1 3783   8.759   5.651   0.407
33962SOL    HW2 3784   8.838   5.709   0.292
33963SOL     OW 3785   0.884  13.519   6.857
33963SOL    HW1 3786   0.878  13.497   6.950
33963SOL    HW2 3787   0.816  13.466   6.816
33964SOL     OW 3788   3.328   1.466   9.204
33964SOL    HW1 3789   3.360   1.390   9.253
33964SOL    HW2 3790   3.381   1.539   9.236
33965SOL     OW 3791   9.918   6.665   9.426
33965SOL    HW1 3792   9.866   6.617   9.361
33965SOL    HW2 3793   9.942   6.747   9.382
33966SOL     OW 3794   9.954  12.644   5.234
33966SOL    HW1 3795   9.914  12.676   5.316
33966SOL    HW2 3796   9.899  12.570   5.209
33967SOL     OW 3797  12.952   5.769  11.027
33967SOL    HW1 3798  12.869   5.748  11.072
33967SOL    HW2 3799  12.925   5.826  10.955
33968SOL     OW 3800   5.709   2.179   8.202
33968SOL    HW1 3801   5.762   2.170   8.282
33968SOL    HW2 3802   5.773   2.193   8.133
33969SOL     OW 3803  11.856  12.266   9.594
33969SOL    HW1 3804  11.866  12.309   9.679
33969SOL    HW2 3805  11.946  12.244   9.568
33970SOL     OW 3806   3.620   0.156   9.476
33970SOL    HW1 3807   3.543   0.099   9.478
33970SOL    HW2 3808   3.693   0.099   9.498
33971SOL     OW 3809   5.727   4.956   0.264
33971SOL    HW1 3810   5.738   4.864   0.290
33971SOL    HW2 3811   5.814   4.982   0.232
33972SOL     OW 3812   1.391  10.856  11.899
33972SOL    HW1 3813   1.333  10.784  11.870
33972SOL    HW2 3814   1.331  10.928  11.919
33973SOL     OW 3815   1.154  13.062  10.744
33973SOL    HW1 3816   1.136  13.083  10.652
33973SOL    HW2 3817   1.085  13.106  10.793
33974SOL     OW 3818  12.214   8.318   0.234
33974SOL    HW1 3819  12.137   8.313   0.177
33974SOL    HW2 3820  12.240   8.227   0.247
33975SOL     OW 3821   5.011  13.985   1.698
33975SOL    HW1 3822   5.012  14.072   1.658
33975SOL    HW2 3823   4.968  13.999   1.783
33976SOL     OW 3824   2.271  11.123   0.116
33976SOL    HW1 3825   2.349  11.149   0.067
33976SOL    HW2 3826   2.206  11.102   0.049
33977SOL     OW 3827   1.463   1.647   5.248
33977SOL    HW1 3828   1.498   1.574   5.197
33977SOL    HW2 3829   1.498   1.725   5.205
33978SOL     OW 3830  10.820   9.533   4.381
33978SOL    HW1 3831  10.770   9.454   4.401
33978SOL    HW2 3832  10.842   9.569   4.467
33979SOL     OW 3833   4.944  10.508  12.129
33979SOL    HW1 3834   4.876  10.456  12.085
33979SOL    HW2 3835   5.015  10.513  12.065
33980SOL     OW 3836  11.677  14.555   2.112
33980SOL    HW1 3837  11.754  14.545   2.169
33980SOL    HW2 3838  11.683  14.480   2.052
33981SOL     OW 3839   9.767   7.113  14.872
33981SOL    HW1 3840   9.856   7.117   0.026
33981SOL    HW2 3841   9.748   7.202  14.843
33982SOL     OW 3842   9.764   8.533   3.811
33982SOL    HW1 3843   9.848   8.575   3.831
33982SOL    HW2 3844   9.753   8.467   3.880
33983SOL     OW 3845   6.998  10.020   3.490
33983SOL    HW1 3846   6.999   9.977   3.404
33983SOL    HW2 3847   7.090  10.027   3.515
33984SOL     OW 3848  14.872   7.115   5.280
33984SOL    HW1 3849  14.871   7.115   5.184
33984SOL    HW2 3850  14.868   7.023   5.305
33985SOL     OW 3851   0.424  10.114   9.731
33985SOL    HW1 3852   0.446  10.065   9.652
33985SOL    HW2 3853   0.480  10.075   9.799
33986SOL     OW 3854  10.852   9.385   3.792
33986SOL    HW1 3855  10.941   9.371   3.826
33986SOL    HW2 3856  10.861   9.378   3.697
33987SOL     OW 3857   7.530   7.162   3.859
33987SOL    HW1 3858   7.612   7.198   3.825
33987SOL    HW2 3859   7.473   7.157   3.783
33988SOL     OW 3860  10.988   4.905  11.702
33988SOL    HW1 3861  10.949   4.943  11.623
33988SOL    HW2 3862  11.080   4.928  11.697
33989SOL     OW 3863   7.437   9.970  11.632
33989SOL    HW1 3864   7.507  10.000  11.574
33989SOL    HW2 3865   7.380  10.046  11.643
33990SOL     OW 3866  11.031   9.027   9.555
33990SOL    HW1 3867  10.960   9.044   9.617
33990SOL    HW2 3868  11.110   9.049   9.603
33991SOL     OW 3869   6.971  10.847   9.563
33991SOL    HW1 3870   6.997  10.818   9.650
33991SOL    HW2 3871   6.929  10.932   9.577
33992SOL     OW 3872   9.402  10.351  13.866
33992SOL    HW1 3873   9.410  10.329  13.773
33992SOL    HW2 3874   9.386  10.446  13.866
33993SOL     OW 3875   3.319   0.083   3.362
33993SOL    HW1 3876   3.317   0.041   3.276
33993SOL    HW2 3877   3.398   0.138   3.359
33994SOL     OW 3878   2.011   7.844   2.940
33994SOL    HW1 3879   2.031   7.911   2.875
33994SOL    HW2 3880   2.085   7.784   2.937
33995SOL     OW 3881  10.018   7.077  10.472
33995SOL    HW1 3882   9.991   7.040  10.388
33995SOL    HW2 3883  10.096   7.128  10.452
33996SOL     OW 3884   7.789   3.724   3.188
33996SOL    HW1 3885   7.790   3.812   3.151
33996SOL    HW2 3886   7.873   3.685   3.161
33997SOL     OW 3887   0.882   7.361   9.696
33997SOL    HW1 3888   0.965   7.398   9.728
33997SOL    HW2 3889   0.908   7.303   9.625
33998SOL     OW 3890  11.892   4.541   7.057
33998SOL    HW1 3891  11.810   4.584   7.031
33998SOL    HW2 3892  11.959   4.609   7.045
33999SOL     OW 3893   9.410   9.804   1.374
33999SOL    HW1 3894   9.435   9.896   1.384
33999SOL    HW2 3895   9.477   9.756   1.424
34000SOL     OW 3896   8.099   4.399   6.104
34000SOL    HW1 3897   8.137   4.411   6.017
34000SOL    HW2 3898   8.122   4.479   6.151
34001SOL     OW 3899   9.533   7.035   3.712
34001SOL    HW1 3900   9.445   7.062   3.685
34001SOL    HW2 3901   9.530   7.034   3.807
34002SOL     OW 3902   0.555  14.205   5.033
34002SOL    HW1 3903   0.647  14.221   5.009
34002SOL    HW2 3904   0.525  14.288   5.070
34003SOL     OW 3905   6.897   5.344  11.183
34003SOL    HW1 3906   6.849   5.273  11.140
34003SOL    HW2 3907   6.833   5.387  11.239
34004SOL     OW 3908   2.295   3.665   7.446
34004SOL    HW1 3909   2.276   3.759   7.449
34004SOL    HW2 3910   2.303   3.640   7.538
34005SOL     OW 3911   4.839   9.758   9.537
34005SOL    HW1 3912   4.820   9.828   9.475
34005SOL    HW2 3913   4.910   9.708   9.496
34006SOL     OW 3914   6.829   9.428  11.869
34006SOL    HW1 3915   6.784   9.509  11.893
34006SOL    HW2 3916   6.854   9.389  11.953
34007SOL     OW 3917   7.964   6.038   8.926
34007SOL    HW1 3918   7.990   5.968   8.866
34007SOL    HW2 3919   7.875   6.061   8.898
34008SOL     OW 3920  11.080   0.053  13.053
34008SOL    HW1 3921  11.164   0.099  13.047
34008SOL    HW2 3922  11.054   0.063  13.145
34009SOL     OW 3923  10.197  13.072   5.321
34009SOL    HW1 3924  10.174  13.004   5.384
34009SOL    HW2 3925  10.209  13.026   5.238
34010SOL     OW 3926   1.858   4.799   3.149
34010SOL    HW1 3927   1.883   4.796   3.056
34010SOL    HW2 3928   1.884   4.887   3.177
34011SOL     OW 3929  14.744  10.505   3.050
34011SOL    HW1 3930  14.761  10.478   2.960
34011SOL    HW2 3931  14.806  10.577   3.066
34012SOL     OW 3932   3.918   0.654   0.558
34012SOL    HW1 3933   3.986   0.625   0.618
34012SOL    HW2 3934   3.861   0.709   0.611
34013SOL     OW 3935   9.274  13.697   4.203
34013SOL    HW1 3936   9.209  13.691   4.133
34013SOL    HW2 3937   9.224  13.679   4.283
34014SOL     OW 3938   0.609   1.720   0.398
34014SOL    HW1 3939   0.648   1.764   0.474
34014SOL    HW2 3940   0.559   1.647   0.435
34015SOL     OW 3941   3.273  11.788   5.933
34015SOL    HW1 3942   3.329  11.821   6.003
34015SOL    HW2 3943   3.310  11.703   5.911
34016SOL     OW 3944   4.047   4.178  13.722
34016SOL    HW1 3945   4.092   4.262  13.722
34016SOL    HW2 3946   4.052   4.149  13.813
34017SOL     OW 3947   5.956   0.544  14.542
34017SOL    HW1 3948   6.051   0.538  14.554
34017SOL    HW2 3949   5.923   0.577  14.626
34018SOL     OW 3950  10.003  10.805   6.309
34018SOL    HW1 3951   9.926  10.754   6.287
34018SOL    HW2 3952  10.014  10.793   6.403
34019SOL     OW 3953   9.139   7.444   6.646
34019SOL    HW1 3954   9.105   7.480   6.727
34019SOL    HW2 3955   9.201   7.376   6.674
34020SOL     OW 3956   1.610   9.996   9.643
34020SOL    HW1 3957   1.589  10.073   9.696
34020SOL    HW2 3958   1.678   9.950   9.692
34021SOL     OW 3959   3.009   1.374   8.575
34021SOL    HW1 3960   2.993   1.382   8.669
34021SOL    HW2 3961   3.029   1.281   8.562
34022SOL     OW 3962   5.447   8.762   4.709
34022SOL    HW1 3963   5.470   8.671   4.727
34022SOL    HW2 3964   5.407   8.761   4.622
34023SOL     OW 3965  11.117   1.650  12.503
34023SOL    HW1 3966  11.021   1.655  12.503
34023SOL    HW2 3967  11.144   1.714  12.569
34024SOL     OW 3968   0.209   9.812   2.601
34024SOL    HW1 3969   0.147   9.806   2.674
34024SOL    HW2 3970   0.270   9.882   2.627
34025SOL     OW 3971   6.515  10.940   1.202
34025SOL    HW1 3972   6.425  10.946   1.233
34025SOL    HW2 3973   6.568  10.940   1.281
34026SOL     OW 3974   0.566   2.165   5.367
34026SOL    HW1 3975   0.472   2.178   5.378
34026SOL    HW2 3976   0.600   2.155   5.456
34027SOL     OW 3977  12.849  10.950  14.732
34027SOL    HW1 3978  12.884  10.943  14.821
34027SOL    HW2 3979  12.819  10.861  14.711
34028SOL     OW 3980   7.409  13.780   0.952
34028SOL    HW1 3981   7.432  13.867   0.984
34028SOL    HW2 3982   7.315  13.772   0.968
34029SOL     OW 3983   7.045   1.058   0.585
34029SOL    HW1 3984   7.005   1.098   0.507
34029SOL    HW2 3985   7.117   1.117   0.607
34030SOL     OW 3986   3.115   9.743  13.356
34030SOL    HW1 3987   3.180   9.813  13.356
34030SOL    HW2 3988   3.053   9.768  13.424
34031SOL     OW 3989   9.722   2.967   7.794
34031SOL    HW1 3990   9.714   3.036   7.860
34031SOL    HW2 3991   9.767   3.010   7.721
34032SOL     OW 3992   7.914   8.157  10.669
34032SOL    HW1 3993   7.847   8.123  10.609
34032SOL    HW2 3994   7.873   8.155  10.755
34033SOL     OW 3995   4.645   2.850  10.127
34033SOL    HW1 3996   4.582   2.920  10.141
34033SOL    HW2 3997   4.696   2.848  10.208
34034SOL     OW 3998   4.258   5.963   3.895
34034SOL    HW1 3999   4.310   5.884   3.910
34034SOL    HW2 4000   4.191   5.936   3.832
34035SOL     OW 4001  11.465   2.662  14.836
34035SOL    HW1 4002  11.397   2.645   0.022
34035SOL    HW2 4003  11.420   2.650  14.752
34036SOL     OW 4004  11.497  14.393   9.990
34036SOL    HW1 4005  11.451  14.369  10.071
34036SOL    HW2 4006  11.512  14.310   9.946
34037SOL     OW 4007   5.425  12.042   7.359
34037SOL    HW1 4008   5.519  12.045   7.376
34037SOL    HW2 4009   5.396  12.133   7.370
34038SOL     OW 4010   3.502   6.590  14.149
34038SOL    HW1 4011   3.579   6.550  14.190
34038SOL    HW2 4012   3.511   6.571  14.056
34039SOL     OW 4013   6.371   2.203   9.764
34039SOL    HW1 4014   6.451   2.233   9.722
34039SOL    HW2 4015   6.400   2.155   9.841
34040SOL     OW 4016   9.349   5.642   7.668
34040SOL    HW1 4017   9.368   5.716   7.726
34040SOL    HW2 4018   9.360   5.678   7.580
34041SOL     OW 4019   4.748  10.196  10.465
34041SOL    HW1 4020   4.818  10.141  10.432
34041SOL    HW2 4021   4.790  10.281  10.481
34042SOL     OW 4022   0.434   9.337  14.837
34042SOL    HW1 4023   0.347   9.302  14.819
34042SOL    HW2 4024   0.469   9.279   0.025
34043SOL     OW 4025   2.145   1.092   4.337
34043SOL    HW1 4026   2.220   1.138   4.374
34043SOL    HW2 4027   2.107   1.045   4.412
34044SOL     OW 4028  14.332   1.005   8.389
34044SOL    HW1 4029  14.362   1.078   8.335
34044SOL    HW2 4030  14.412   0.968   8.426
34045SOL     OW 4031  12.867  10.563   4.060
34045SOL    HW1 4032  12.962  10.572   4.053
34045SOL    HW2 4033  12.836  10.561   3.969
34046SOL     OW 4034   9.054   6.591  10.795
34046SOL    HW1 4035   8.974   6.617  10.841
34046SOL    HW2 4036   9.118   6.658  10.818
34047SOL     OW 4037  12.666   6.551   8.132
34047SOL    HW1 4038  12.577   6.552   8.167
34047SOL    HW2 4039  12.659   6.600   8.049
34048SOL     OW 4040   5.918   4.160  13.474
34048SOL    HW1 4041   5.886   4.184  13.561
34048SOL    HW2 4042   5.903   4.065  13.468
34049SOL     OW 4043  13.389  12.048   6.228
34049SOL    HW1 4044  13.417  11.980   6.167
34049SOL    HW2 4045  13.459  12.054   6.293
34050SOL     OW 4046  12.462  13.898   4.225
34050SOL    HW1 4047  12.373  13.872   4.202
34050SOL    HW2 4048  12.495  13.826   4.279
34051SOL     OW 4049  11.092  13.645   3.259
34051SOL    HW1 4050  11.126  13.556   3.264
34051SOL    HW2 4051  11.127  13.689   3.337
34052SOL     OW 4052   6.657   3.847   3.498
34052SOL    HW1 4053   6.642   3.906   3.425
34052SOL    HW2 4054   6.612   3.766   3.475
34053SOL     OW 4055   3.276   6.074  14.287
34053SOL    HW1 4056   3.308   6.076  14.377
34053SOL    HW2 4057   3.199   6.131  14.288
34054SOL     OW 4058   2.965   0.939   1.371
34054SOL    HW1 4059   3.017   1.018   1.384
34054SOL    HW2 4060   3.028   0.874   1.339
34055SOL     OW 4061   9.160   1.001  13.941
34055SOL    HW1 4062   9.237   0.960  13.901
34055SOL    HW2 4063   9.088   0.940  13.924
34056SOL     OW 4064   6.162   2.098   2.197
34056SOL    HW1 4065   6.196   2.080   2.285
34056SOL    HW2 4066   6.141   2.191   2.198
34057SOL     OW 4067   0.250   8.396  12.998
34057SOL    HW1 4068   0.314   8.332  13.029
34057SOL    HW2 4069   0.297   8.446  12.931
34058SOL     OW 4070   0.022   4.757  14.791
34058SOL    HW1 4071  14.830   4.813  14.820
34058SOL    HW2 4072   0.063   4.806  14.719
34059SOL     OW 4073   5.903   4.583   7.141
34059SOL    HW1 4074   5.818   4.547   7.117
34059SOL    HW2 4075   5.926   4.539   7.223
34060SOL     OW 4076   4.284   5.170   8.047
34060SOL    HW1 4077   4.212   5.159   8.110
34060SOL    HW2 4078   4.266   5.255   8.006
34061SOL     OW 4079  13.763   7.778   7.560
34061SOL    HW1 4080  13.678   7.816   7.542
34061SOL    HW2 4081  13.746   7.711   7.626
34062SOL     OW 4082   7.341   8.568  13.760
34062SOL    HW1 4083   7.263   8.533  13.803
34062SOL    HW2 4084   7.328   8.663  13.760
34063SOL     OW 4085  13.209  14.073  13.242
34063SOL    HW1 4086  13.267  14.144  13.214
34063SOL    HW2 4087  13.225  14.065  13.336
34064SOL     OW 4088   5.018  14.435  12.824
34064SOL    HW1 4089   5.093  14.402  12.775
34064SOL    HW2 4090   4.964  14.480  12.759
34065SOL     OW 4091   8.202   8.903  10.021
34065SOL    HW1 4092   8.137   8.952   9.972
34065SOL    HW2 4093   8.159   8.820  10.043
34066SOL     OW 4094   6.158   6.022   5.206
34066SOL    HW1 4095   6.091   6.065   5.154
34066SOL    HW2 4096   6.132   6.037   5.297
34067SOL     OW 4097   6.117  11.542   8.845
34067SOL    HW1 4098   6.160  11.458   8.824
34067SOL    HW2 4099   6.045  11.548   8.782
34068SOL     OW 4100   5.157   8.585   4.017
34068SOL    HW1 4101   5.141   8.560   4.108
34068SOL    HW2 4102   5.152   8.503   3.968
34069SOL     OW 4103   9.414  12.350   6.009
34069SOL    HW1 4104   9.371  12.265   6.018
34069SOL    HW2 4105   9.382  12.401   6.082
34070SOL     OW 4106   1.711  11.576  10.408
34070SOL    HW1 4107   1.770  11.608  10.340
34070SOL    HW2 4108   1.625  11.608  10.381
34071SOL     OW 4109   2.445   0.189   7.981
34071SOL    HW1 4110   2.383   0.203   8.053
34071SOL    HW2 4111   2.531   0.195   8.023
34072SOL     OW 4112  10.660   4.635   6.117
34072SOL    HW1 4113  10.584   4.676   6.077
34072SOL    HW2 4114  10.731   4.651   6.055
34073SOL     OW 4115  11.649   8.422  10.652
34073SOL    HW1 4116  11.741   8.443  10.638
34073SOL    HW2 4117  11.650   8.344  10.707
34074SOL     OW 4118   3.974   9.849   5.779
34074SOL    HW1 4119   4.016   9.909   5.840
34074SOL    HW2 4120   4.039   9.781   5.763
34075SOL     OW 4121   0.485   9.426  14.165
34075SOL    HW1 4122   0.555   9.363  14.148
34075SOL    HW2 4123   0.404   9.377  14.151
34076SOL     OW 4124   0.626   1.002   1.704
34076SOL    HW1 4125   0.628   1.009   1.609
34076SOL    HW2 4126   0.556   1.062   1.732
34077SOL     OW 4127   4.410   8.784   2.454
34077SOL    HW1 4128   4.445   8.780   2.542
34077SOL    HW2 4129   4.419   8.695   2.420
34078SOL     OW 4130   3.742  14.730   7.423
34078SOL    HW1 4131   3.770  14.697   7.508
34078SOL    HW2 4132   3.791  14.678   7.360
34079SOL     OW 4133  12.720   8.006   5.824
34079SOL    HW1 4134  12.664   7.932   5.848
34079SOL    HW2 4135  12.673   8.050   5.754
34080SOL     OW 4136   6.243   6.088  12.055
34080SOL    HW1 4137   6.219   6.181  12.050
34080SOL    HW2 4138   6.316   6.079  11.993
34081SOL     OW 4139  13.395   8.102   7.633
34081SOL    HW1 4140  13.440   8.139   7.709
34081SOL    HW2 4141  13.382   8.177   7.574
34082SOL     OW 4142   3.046   6.071   4.727
34082SOL    HW1 4143   3.134   6.098   4.704
34082SOL    HW2 4144   3.053   6.040   4.818
34083SOL     OW 4145  11.553   1.060   9.196
34083SOL    HW1 4146  11.601   0.995   9.248
34083SOL    HW2 4147  11.538   1.016   9.112
34084SOL     OW 4148   0.890   4.211  14.825
34084SOL    HW1 4149   0.816   4.196   0.004
34084SOL    HW2 4150   0.928   4.294  14.855
34085SOL     OW 4151   5.047   3.587  11.860
34085SOL    HW1 4152   5.096   3.658  11.902
34085SOL    HW2 4153   4.998   3.630  11.790
34086SOL     OW 4154  11.892   2.345   9.920
34086SOL    HW1 4155  11.937   2.341   9.836
34086SOL    HW2 4156  11.961   2.331   9.985
34087SOL     OW 4157  12.406   8.119   6.525
34087SOL    HW1 4158  12.317   8.093   6.501
34087SOL    HW2 4159  12.438   8.168   6.449
34088SOL     OW 4160  11.763   3.342   0.262
34088SOL    HW1 4161  11.846   3.369   0.301
34088SOL    HW2 4162  11.776   3.250   0.238
34089SOL     OW 4163   5.067   3.108   6.081
34089SOL    HW1 4164   5.055   3.013   6.076
34089SOL    HW2 4165   4.980   3.144   6.061
34090SOL     OW 4166   7.096   6.327  11.715
34090SOL    HW1 4167   7.163   6.263  11.739
34090SOL    HW2 4168   7.125   6.361  11.630
34091SOL     OW 4169  10.978  13.901   5.352
34091SOL    HW1 4170  10.899  13.848   5.360
34091SOL    HW2 4171  11.038  13.866   5.417
34092SOL     OW 4172   6.466   2.770  11.629
34092SOL    HW1 4173   6.551   2.768  11.674
34092SOL    HW2 4174   6.406   2.808  11.694
34093SOL     OW 4175  13.047  12.574   1.729
34093SOL    HW1 4176  12.957  12.595   1.755
34093SOL    HW2 4177  13.079  12.655   1.688
34094SOL     OW 4178   0.471  12.694   7.266
34094SOL    HW1 4179   0.427  12.778   7.252
34094SOL    HW2 4180   0.437  12.663   7.350
34095SOL     OW 4181   5.490   7.278   8.751
34095SOL    HW1 4182   5.508   7.302   8.842
34095SOL    HW2 4183   5.553   7.208   8.732
34096SOL     OW 4184   9.556  10.630   8.927
34096SOL    HW1 4185   9.502  10.583   8.990
34096SOL    HW2 4186   9.519  10.606   8.842
34097SOL     OW 4187  13.930  10.167   4.141
34097SOL    HW1 4188  13.997  10.099   4.150
34097SOL    HW2 4189  13.878  10.139   4.065
34098SOL     OW 4190   4.845  13.671   3.402
34098SOL    HW1 4191   4.758  13.666   3.442
34098SOL    HW2 4192   4.898  13.610   3.454
34099SOL     OW 4193   3.442  13.393  12.617
34099SOL    HW1 4194   3.531  13.397  12.649
34099SOL    HW2 4195   3.434  13.467  12.557
34100SOL     OW 4196  10.144  13.165   0.494
34100SOL    HW1 4197  10.181  13.100   0.434
34100SOL    HW2 4198  10.054  13.177   0.463
34101SOL     OW 4199   9.391  12.668   5.679
34101SOL    HW1 4200   9.311  12.668   5.731
34101SOL    HW2 4201   9.381  12.744   5.621
34102SOL     OW 4202  13.052   7.010  14.024
34102SOL    HW1 4203  12.996   7.088  14.016
34102SOL    HW2 4204  13.104   7.011  13.944
34103SOL     OW 4205   8.979   7.475   0.145
34103SOL    HW1 4206   9.049   7.540   0.139
34103SOL    HW2 4207   8.905   7.522   0.182
34104SOL     OW 4208   4.766  13.678   7.478
34104SOL    HW1 4209   4.804  13.641   7.398
34104SOL    HW2 4210   4.683  13.632   7.488
34105SOL     OW 4211  11.625  14.473   2.491
34105SOL    HW1 4212  11.536  14.498   2.468
34105SOL    HW2 4213  11.620  14.445   2.583
34106SOL     OW 4214   8.843   6.848  13.934
34106SOL    HW1 4215   8.906   6.895  13.880
34106SOL    HW2 4216   8.765   6.904  13.935
34107SOL     OW 4217  11.951   1.496   1.142
34107SOL    HW1 4218  12.020   1.563   1.142
34107SOL    HW2 4219  11.992   1.419   1.105
34108SOL     OW 4220   0.713  14.638   7.573
34108SOL    HW1 4221   0.623  14.611   7.553
34108SOL    HW2 4222   0.704  14.721   7.619
34109SOL     OW 4223   4.526   0.321  10.959
34109SOL    HW1 4224   4.565   0.385  11.020
34109SOL    HW2 4225   4.477   0.261  11.015
34110SOL     OW 4226  10.162   5.868   6.612
34110SOL    HW1 4227  10.081   5.893   6.656
34110SOL    HW2 4228  10.175   5.934   6.545
34111SOL     OW 4229   1.197   5.841   5.581
34111SOL    HW1 4230   1.210   5.897   5.657
34111SOL    HW2 4231   1.118   5.875   5.539
34112SOL     OW 4232  13.205   9.643   4.996
34112SOL    HW1 4233  13.287   9.688   4.975
34112SOL    HW2 4234  13.140   9.713   5.002
34113SOL     OW 4235   8.052   2.778  14.692
34113SOL    HW1 4236   8.100   2.845  14.741
34113SOL    HW2 4237   8.010   2.826  14.621
34114SOL     OW 4238  11.418   3.727  14.052
34114SOL    HW1 4239  11.451   3.776  14.128
34114SOL    HW2 4240  11.334   3.693  14.081
34115SOL     OW 4241   8.647  11.560  14.656
34115SOL    HW1 4242   8.663  11.645  14.698
34115SOL    HW2 4243   8.625  11.501  14.728
34116SOL     OW 4244  10.070   5.572  14.714
34116SOL    HW1 4245  10.038   5.485  14.741
34116SOL    HW2 4246   9.994   5.613  14.672
34117SOL     OW 4247   8.216   5.751   0.586
34117SOL    HW1 4248   8.280   5.741   0.516
34117SOL    HW2 4249   8.268   5.754   0.666
34118SOL     OW 4250  10.779  10.841   3.410
34118SOL    HW1 4251  10.841  10.871   3.344
34118SOL    HW2 4252  10.694  10.844   3.366
34119SOL     OW 4253  11.480   9.940   5.101
34119SOL    HW1 4254  11.439   9.975   5.021
34119SOL    HW2 4255  11.492  10.017   5.157
34120SOL     OW 4256   4.834  10.218   2.976
34120SOL    HW1 4257   4.833  10.270   3.057
34120SOL    HW2 4258   4.894  10.146   2.996
34121SOL     OW 4259  12.356  13.052   4.738
34121SOL    HW1 4260  12.317  13.034   4.653
34121SOL    HW2 4261  12.440  13.006   4.736
34122SOL     OW 4262   5.152   5.446  14.442
34122SOL    HW1 4263   5.083   5.381  14.430
34122SOL    HW2 4264   5.105   5.528  14.460
34123SOL     OW 4265  10.713   3.422   2.048
34123SOL    HW1 4266  10.638   3.376   2.010
34123SOL    HW2 4267  10.676   3.502   2.085
34124SOL     OW 4268   3.549  10.754   4.995
34124SOL    HW1 4269   3.499  10.829   5.028
34124SOL    HW2 4270   3.523  10.681   5.052
34125SOL     OW 4271  11.515   2.953   2.934
34125SOL    HW1 4272  11.463   3.031   2.953
34125SOL    HW2 4273  11.494   2.932   2.843
34126SOL     OW 4274   0.157   9.071   0.428
34126SOL    HW1 4275   0.159   9.067   0.332
34126SOL    HW2 4276   0.236   9.024   0.456
34127SOL     OW 4277   3.459   1.983  12.835
34127SOL    HW1 4278   3.367   2.007  12.843
34127SOL    HW2 4279   3.501   2.060  12.799
34128SOL     OW 4280  14.095   7.458  12.852
34128SOL    HW1 4281  14.174   7.508  12.834
34128SOL    HW2 4282  14.049   7.455  12.768
34129SOL     OW 4283   8.390   1.113   1.411
34129SOL    HW1 4284   8.374   1.096   1.504
34129SOL    HW2 4285   8.425   1.202   1.409
34130SOL     OW 4286  11.383  11.678   9.013
34130SOL    HW1 4287  11.377  11.653   9.105
34130SOL    HW2 4288  11.439  11.755   9.013
34131SOL     OW 4289   2.474  14.484  12.668
34131SOL    HW1 4290   2.473  14.542  12.593
34131SOL    HW2 4291   2.567  14.463  12.681
34132SOL     OW 4292  10.398  10.262   0.016
34132SOL    HW1 4293  10.338  10.305   0.077
34132SOL    HW2 4294  10.370  10.170   0.015
34133SOL     OW 4295   1.786  13.983   9.409
34133SOL    HW1 4296   1.737  13.952   9.486
34133SOL    HW2 4297   1.742  13.943   9.335
34134SOL     OW 4298   6.910   2.159   3.220
34134SOL    HW1 4299   6.868   2.136   3.303
34134SOL    HW2 4300   7.004   2.148   3.236
34135SOL     OW 4301   2.526   8.515  10.659
34135SOL    HW1 4302   2.568   8.568  10.727
34135SOL    HW2 4303   2.541   8.425  10.687
34136SOL     OW 4304   0.086   8.620   4.507
34136SOL    HW1 4305   0.014   8.617   4.445
34136SOL    HW2 4306   0.129   8.704   4.491
34137SOL     OW 4307  11.343   0.728  12.085
34137SOL    HW1 4308  11.284   0.652  12.080
34137SOL    HW2 4309  11.315   0.785  12.013
34138SOL     OW 4310  11.266  12.637   8.857
34138SOL    HW1 4311  11.305  12.683   8.931
34138SOL    HW2 4312  11.185  12.599   8.892
34139SOL     OW 4313  12.505  12.469   0.021
34139SOL    HW1 4314  12.559  12.423  14.836
34139SOL    HW2 4315  12.422  12.421   0.023
34140SOL     OW 4316   2.468   3.796   4.811
34140SOL    HW1 4317   2.491   3.711   4.771
34140SOL    HW2 4318   2.522   3.860   4.764
34141SOL     OW 4319  12.094   9.481   8.250
34141SOL    HW1 4320  12.033   9.538   8.202
34141SOL    HW2 4321  12.151   9.542   8.296
34142SOL     OW 4322  12.195   4.555   3.451
34142SOL    HW1 4323  12.196   4.560   3.355
34142SOL    HW2 4324  12.276   4.511   3.474
34143SOL     OW 4325   3.461  11.551   1.823
34143SOL    HW1 4326   3.536  11.509   1.867
34143SOL    HW2 4327   3.393  11.484   1.823
34144SOL     OW 4328   0.260   8.912   1.451
34144SOL    HW1 4329   0.352   8.888   1.441
34144SOL    HW2 4330   0.219   8.837   1.493
34145SOL     OW 4331  11.872   9.359  11.364
34145SOL    HW1 4332  11.953   9.377  11.316
34145SOL    HW2 4333  11.842   9.275  11.329
34146SOL     OW 4334   1.470  10.322   0.706
34146SOL    HW1 4335   1.550  10.275   0.684
34146SOL    HW2 4336   1.499  10.411   0.726
34147SOL     OW 4337   1.415   6.654  14.422
34147SOL    HW1 4338   1.353   6.671  14.351
34147SOL    HW2 4339   1.377   6.698  14.498
34148SOL     OW 4340   6.717  11.492  13.161
34148SOL    HW1 4341   6.677  11.540  13.088
34148SOL    HW2 4342   6.811  11.500  13.147
34149SOL     OW 4343   1.183   5.512  11.915
34149SOL    HW1 4344   1.226   5.556  11.842
34149SOL    HW2 4345   1.213   5.421  11.909
34150SOL     OW 4346  11.603   8.341   3.674
34150SOL    HW1 4347  11.582   8.265   3.728
34150SOL    HW2 4348  11.520   8.389   3.667
34151SOL     OW 4349   2.247   0.084   9.355
34151SOL    HW1 4350   2.228  14.873   9.378
34151SOL    HW2 4351   2.163   0.130   9.367
34152SOL     OW 4352   9.138   5.827   3.111
34152SOL    HW1 4353   9.043   5.833   3.108
34152SOL    HW2 4354   9.163   5.791   3.025
34153SOL     OW 4355   8.129   9.395   5.145
34153SOL    HW1 4356   8.050   9.347   5.169
34153SOL    HW2 4357   8.099   9.465   5.087
34154SOL     OW 4358   2.858   2.613  12.319
34154SOL    HW1 4359   2.851   2.543  12.384
34154SOL    HW2 4360   2.952   2.629  12.311
34155SOL     OW 4361   2.059   6.913   7.999
34155SOL    HW1 4362   2.110   6.936   7.920
34155SOL    HW2 4363   2.082   6.981   8.062
34156SOL     OW 4364   0.382  11.959   7.033
34156SOL    HW1 4365   0.317  11.898   7.067
34156SOL    HW2 4366   0.346  11.989   6.950
34157SOL     OW 4367  10.489   7.559   1.701
34157SOL    HW1 4368  10.543   7.629   1.665
34157SOL    HW2 4369  10.399   7.588   1.689
34158SOL     OW 4370   4.388  10.433   7.090
34158SOL    HW1 4371   4.420  10.351   7.129
34158SOL    HW2 4372   4.296  10.416   7.073
34159SOL     OW 4373   3.031  12.239  14.348
34159SOL    HW1 4374   2.937  12.226  14.362
34159SOL    HW2 4375   3.063  12.275  14.430
34160SOL     OW 4376   1.142   2.825   1.853
34160SOL    HW1 4377   1.126   2.919   1.849
34160SOL    HW2 4378   1.235   2.817   1.875
34161SOL     OW 4379  13.697   7.401   3.415
34161SOL    HW1 4380  13.614   7.373   3.453
34161SOL    HW2 4381  13.672   7.456   3.341
34162SOL     OW 4382   4.535   8.753  12.461
34162SOL    HW1 4383   4.544   8.658  12.468
34162SOL    HW2 4384   4.594   8.778  12.391
34163SOL     OW 4385   3.813   2.187   0.222
34163SOL    HW1 4386   3.889   2.237   0.193
34163SOL    HW2 4387   3.842   2.141   0.301
34164SOL     OW 4388   3.260   4.741   8.190
34164SOL    HW1 4389   3.318   4.674   8.153
34164SOL    HW2 4390   3.276   4.737   8.285
34165SOL     OW 4391   5.012  12.456   0.409
34165SOL    HW1 4392   4.930  12.473   0.454
34165SOL    HW2 4393   5.031  12.364   0.428
34166SOL     OW 4394  10.345  11.511   9.599
34166SOL    HW1 4395  10.295  11.478   9.524
34166SOL    HW2 4396  10.321  11.453   9.671
34167SOL     OW 4397   5.591   5.797  13.521
34167SOL    HW1 4398   5.559   5.728  13.579
34167SOL    HW2 4399   5.686   5.797  13.534
34168SOL     OW 4400   9.506   9.226  14.565
34168SOL    HW1 4401   9.511   9.132  14.550
34168SOL    HW2 4402   9.597   9.254  14.576
34169SOL     OW 4403   5.530   3.696   9.213
34169SOL    HW1 4404   5.490   3.610   9.203
34169SOL    HW2 4405   5.470   3.743   9.272
34170SOL     OW 4406   5.083   8.998  10.737
34170SOL    HW1 4407   5.040   8.915  10.758
34170SOL    HW2 4408   5.088   9.045  10.821
34171SOL     OW 4409  12.979  12.675   8.928
34171SOL    HW1 4410  13.062  12.634   8.951
34171SOL    HW2 4411  12.997  12.769   8.928
34172SOL     OW 4412   6.234  14.102   2.367
34172SOL    HW1 4413   6.326  14.127   2.366
34172SOL    HW2 4414   6.187  14.182   2.390
34173SOL     OW 4415  13.480   8.662  14.175
34173SOL    HW1 4416  13.443   8.733  14.123
34173SOL    HW2 4417  13.514   8.600  14.110
34174SOL     OW 4418  13.657  12.386  11.418
34174SOL    HW1 4419  13.616  12.406  11.501
34174SOL    HW2 4420  13.654  12.291  11.412
34175SOL     OW 4421  14.312   1.271   2.804
34175SOL    HW1 4422  14.228   1.301   2.839
34175SOL    HW2 4423  14.328   1.188   2.849
34176SOL     OW 4424   9.840   3.079   7.119
34176SOL    HW1 4425   9.834   3.060   7.025
34176SOL    HW2 4426   9.749   3.085   7.148
34177SOL     OW 4427   4.030   8.233  14.532
34177SOL    HW1 4428   3.964   8.254  14.597
34177SOL    HW2 4429   4.091   8.306  14.534
34178SOL     OW 4430   8.080   0.635  13.372
34178SOL    HW1 4431   8.050   0.562  13.426
34178SOL    HW2 4432   8.147   0.677  13.425
34179SOL     OW 4433   9.242   1.032  11.969
34179SOL    HW1 4434   9.238   1.094  12.042
34179SOL    HW2 4435   9.151   1.026  11.939
34180SOL     OW 4436  10.589  12.445   7.911
34180SOL    HW1 4437  10.669  12.462   7.960
34180SOL    HW2 4438  10.519  12.451   7.976
34181SOL     OW 4439   2.388  11.821  14.041
34181SOL    HW1 4440   2.416  11.900  14.089
34181SOL    HW2 4441   2.304  11.845  14.002
34182SOL     OW 4442   0.155  14.543   4.811
34182SOL    HW1 4443   0.076  14.595   4.796
34182SOL    HW2 4444   0.196  14.536   4.725
34183SOL     OW 4445   3.207   2.557   5.409
34183SOL    HW1 4446   3.207   2.512   5.325
34183SOL    HW2 4447   3.199   2.650   5.387
34184SOL     OW 4448   1.772   3.881  14.835
34184SOL    HW1 4449   1.814   3.920  14.758
34184SOL    HW2 4450   1.752   3.955   0.012
34185SOL     OW 4451  12.070   8.035   2.132
34185SOL    HW1 4452  12.044   8.116   2.088
34185SOL    HW2 4453  12.019   8.035   2.213
34186SOL     OW 4454  14.076   0.274   0.147
34186SOL    HW1 4455  14.112   0.360   0.125
34186SOL    HW2 4456  14.047   0.283   0.238
34187SOL     OW 4457   0.986   5.981  10.002
34187SOL    HW1 4458   0.942   6.042  10.062
34187SOL    HW2 4459   0.930   5.903  10.003
34188SOL     OW 4460   5.530   4.408   2.302
34188SOL    HW1 4461   5.482   4.491   2.306
34188SOL    HW2 4462   5.492   4.362   2.227
34189SOL     OW 4463   9.822  11.561  14.425
34189SOL    HW1 4464   9.731  11.534  14.415
34189SOL    HW2 4465   9.845  11.534  14.514
34190SOL     OW 4466   2.328   9.195   4.524
34190SOL    HW1 4467   2.291   9.265   4.578
34190SOL    HW2 4468   2.359   9.239   4.445
34191SOL     OW 4469   1.536   4.299   5.647
34191SOL    HW1 4470   1.534   4.290   5.552
34191SOL    HW2 4471   1.627   4.280   5.671
34192SOL     OW 4472  10.539   6.173   7.208
34192SOL    HW1 4473  10.456   6.161   7.162
34192SOL    HW2 4474  10.527   6.254   7.259
34193SOL     OW 4475  12.884   0.899   7.353
34193SOL    HW1 4476  12.920   0.850   7.428
34193SOL    HW2 4477  12.790   0.878   7.354
34194SOL     OW 4478  11.544   7.761   9.146
34194SOL    HW1 4479  11.566   7.817   9.221
34194SOL    HW2 4480  11.622   7.707   9.134
34195SOL     OW 4481   8.435  11.427  10.949
34195SOL    HW1 4482   8.473  11.353  10.902
34195SOL    HW2 4483   8.345  11.401  10.966
34196SOL     OW 4484   4.964   1.927  11.548
34196SOL    HW1 4485   4.979   1.913  11.641
34196SOL    HW2 4486   5.028   1.870  11.505
34197SOL     OW 4487   5.624  10.732  14.297
34197SOL    HW1 4488   5.711  10.748  14.335
34197SOL    HW2 4489   5.637  10.740  14.203
34198SOL     OW 4490   4.172   6.593  12.886
34198SOL    HW1 4491   4.153   6.582  12.979
34198SOL    HW2 4492   4.087   6.600  12.844
34199SOL     OW 4493   9.739   2.397  10.148
34199SOL    HW1 4494   9.706   2.437  10.228
34199SOL    HW2 4495   9.685   2.434  10.078
34200SOL     OW 4496  12.442  12.842  12.227
34200SOL    HW1 4497  12.417  12.803  12.311
34200SOL    HW2 4498  12.500  12.915  12.251
34201SOL     OW 4499   9.029   0.916   5.227
34201SOL    HW1 4500   9.066   0.866   5.300
34201SOL    HW2 4501   9.077   0.999   5.228
34202SOL     OW 4502  14.647   9.318   7.851
34202SOL    HW1 4503  14.673   9.353   7.936
34202SOL    HW2 4504  14.712   9.250   7.832
34203SOL     OW 4505   0.539   8.271   6.998
34203SOL    HW1 4506   0.515   8.195   7.051
34203SOL    HW2 4507   0.467   8.281   6.936
34204SOL     OW 4508   2.382   7.256   1.780
34204SOL    HW1 4509   2.305   7.201   1.766
34204SOL    HW2 4510   2.423   7.263   1.694
34205SOL     OW 4511  10.992   3.282   3.060
34205SOL    HW1 4512  11.062   3.280   3.125
34205SOL    HW2 4513  10.954   3.194   3.063
34206SOL     OW 4514   4.495   0.779   1.243
34206SOL    HW1 4515   4.526   0.843   1.307
34206SOL    HW2 4516   4.574   0.750   1.198
34207SOL     OW 4517   6.423   7.119  14.600
34207SOL    HW1 4518   6.468   7.110  14.516
34207SOL    HW2 4519   6.332   7.095  14.582
34208SOL     OW 4520   2.242   7.420  11.077
34208SOL    HW1 4521   2.309   7.409  11.145
34208SOL    HW2 4522   2.214   7.511  11.086
34209SOL     OW 4523   2.060   3.770  14.153
34209SOL    HW1 4524   2.144   3.785  14.196
34209SOL    HW2 4525   2.083   3.726  14.071
34210SOL     OW 4526   4.602   1.523   7.286
34210SOL    HW1 4527   4.528   1.510   7.226
34210SOL    HW2 4528   4.621   1.435   7.320
34211SOL     OW 4529   9.734  11.560   6.374
34211SOL    HW1 4530   9.821  11.541   6.410
34211SOL    HW2 4531   9.693  11.474   6.366
34212SOL     OW 4532   4.291  14.792  12.552
34212SOL    HW1 4533   4.347  14.840  12.491
34212SOL    HW2 4534   4.280  14.706  12.510
34213SOL     OW 4535   5.126   0.169   6.926
34213SOL    HW1 4536   5.116   0.263   6.911
34213SOL    HW2 4537   5.161   0.135   6.843
34214SOL     OW 4538   0.368   6.394   2.604
34214SOL    HW1 4539   0.409   6.371   2.687
34214SOL    HW2 4540   0.404   6.479   2.582
34215SOL     OW 4541   3.503   6.684  13.181
34215SOL    HW1 4542   3.449   6.657  13.255
34215SOL    HW2 4543   3.503   6.608  13.122
34216SOL     OW 4544  10.034   4.169   6.562
34216SOL    HW1 4545  10.091   4.225   6.615
34216SOL    HW2 4546  10.017   4.221   6.483
34217SOL     OW 4547   7.417   9.910   0.090
34217SOL    HW1 4548   7.385   9.850   0.157
34217SOL    HW2 4549   7.509   9.886   0.078
34218SOL     OW 4550   2.146  11.644  14.139
34218SOL    HW1 4551   2.063  11.618  14.098
34218SOL    HW2 4552   2.143  11.739  14.141
34219SOL     OW 4553   4.425   7.397   0.112
34219SOL    HW1 4554   4.422   7.330   0.180
34219SOL    HW2 4555   4.376   7.359   0.039
34220SOL     OW 4556   5.108  10.880   6.712
34220SOL    HW1 4557   5.030  10.827   6.722
34220SOL    HW2 4558   5.149  10.848   6.632
34221SOL     OW 4559  14.727   2.528  11.635
34221SOL    HW1 4560  14.688   2.515  11.549
34221SOL    HW2 4561  14.744   2.622  11.640
34222SOL     OW 4562   3.361   9.461   7.034
34222SOL    HW1 4563   3.367   9.556   7.035
34222SOL    HW2 4564   3.278   9.442   6.992
34223SOL     OW 4565   1.381   6.829   8.259
34223SOL    HW1 4566   1.312   6.888   8.229
34223SOL    HW2 4567   1.445   6.886   8.301
34224SOL     OW 4568   8.280   5.125   4.520
34224SOL    HW1 4569   8.201   5.075   4.498
34224SOL    HW2 4570   8.341   5.106   4.449
34225SOL     OW 4571  11.407   5.322   7.757
34225SOL    HW1 4572  11.433   5.401   7.805
34225SOL    HW2 4573  11.457   5.325   7.676
34226SOL     OW 4574  11.639  12.923  13.185
34226SOL    HW1 4575  11.641  12.992  13.119
34226SOL    HW2 4576  11.629  12.842  13.135
34227SOL     OW 4577   7.096   5.183   7.847
34227SOL    HW1 4578   7.029   5.131   7.802
34227SOL    HW2 4579   7.124   5.128   7.920
34228SOL     OW 4580   4.473   4.457   2.969
34228SOL    HW1 4581   4.403   4.477   3.031
34228SOL    HW2 4582   4.478   4.534   2.913
34229SOL     OW 4583   2.736   0.808   7.675
34229SOL    HW1 4584   2.678   0.834   7.603
34229SOL    HW2 4585   2.811   0.768   7.631
34230SOL     OW 4586   5.016   9.411   1.831
34230SOL    HW1 4587   4.926   9.433   1.856
34230SOL    HW2 4588   5.011   9.322   1.798
34231SOL     OW 4589   6.592   3.503  11.462
34231SOL    HW1 4590   6.523   3.550  11.510
34231SOL    HW2 4591   6.649   3.572  11.430
34232SOL     OW 4592   5.813   0.661   5.426
34232SOL    HW1 4593   5.774   0.681   5.340
34232SOL    HW2 4594   5.819   0.745   5.470
34233SOL     OW 4595  14.664   1.839  11.960
34233SOL    HW1 4596  14.684   1.832  11.867
34233SOL    HW2 4597  14.591   1.779  11.974
34234SOL     OW 4598   0.583  10.223   1.708
34234SOL    HW1 4599   0.671  10.257   1.694
34234SOL    HW2 4600   0.594  10.128   1.706
34235SOL     OW 4601   7.787   6.941   6.965
34235SOL    HW1 4602   7.827   6.925   7.050
34235SOL    HW2 4603   7.784   7.036   6.957
34236SOL     OW 4604   3.726   2.017  11.472
34236SOL    HW1 4605   3.821   2.017  11.481
34236SOL    HW2 4606   3.698   2.102  11.508
34237SOL     OW 4607   6.854   8.775   8.399
34237SOL    HW1 4608   6.853   8.792   8.304
34237SOL    HW2 4609   6.792   8.840   8.435
34238SOL     OW 4610  13.521   0.466   0.114
34238SOL    HW1 4611  13.612   0.441   0.097
34238SOL    HW2 4612  13.513   0.466   0.209
34239SOL     OW 4613   1.519   3.667   9.290
34239SOL    HW1 4614   1.554   3.608   9.224
34239SOL    HW2 4615   1.574   3.745   9.284
34240SOL     OW 4616   4.445   1.447   8.539
34240SOL    HW1 4617   4.377   1.491   8.487
34240SOL    HW2 4618   4.518   1.508   8.540
34241SOL     OW 4619  12.385   4.234   2.006
34241SOL    HW1 4620  12.439   4.300   2.049
34241SOL    HW2 4621  12.437   4.154   2.008
34242SOL     OW 4622   0.247   6.414  11.768
34242SOL    HW1 4623   0.218   6.323  11.763
34242SOL    HW2 4624   0.272   6.437  11.679
34243SOL     OW 4625   3.717   8.283   0.509
34243SOL    HW1 4626   3.761   8.338   0.575
34243SOL    HW2 4627   3.662   8.344   0.461
34244SOL     OW 4628   8.009   1.751   6.902
34244SOL    HW1 4629   7.948   1.734   6.973
34244SOL    HW2 4630   7.989   1.840   6.873
34245SOL     OW 4631   0.114   9.720   8.036
34245SOL    HW1 4632   0.026   9.684   8.045
34245SOL    HW2 4633   0.129   9.727   7.942
34246SOL     OW 4634   3.923   2.973   8.566
34246SOL    HW1 4635   3.829   2.956   8.571
34246SOL    HW2 4636   3.964   2.893   8.600
34247SOL     OW 4637  12.021   5.391  11.993
34247SOL    HW1 4638  11.988   5.364  12.078
34247SOL    HW2 4639  11.942   5.406  11.940
34248SOL     OW 4640   2.946   2.730  14.257
34248SOL    HW1 4641   2.970   2.673  14.183
34248SOL    HW2 4642   2.882   2.679  14.306
34249SOL     OW 4643  12.925   5.267   7.457
34249SOL    HW1 4644  12.946   5.183   7.417
34249SOL    HW2 4645  12.868   5.245   7.531
34250SOL     OW 4646   9.674   5.207   6.360
34250SOL    HW1 4647   9.719   5.268   6.419
34250SOL    HW2 4648   9.740   5.184   6.295
34251SOL     OW 4649   1.374   5.297  12.536
34251SOL    HW1 4650   1.429   5.224  12.564
34251SOL    HW2 4651   1.296   5.256  12.498
34252SOL     OW 4652   6.496   0.886   1.815
34252SOL    HW1 4653   6.464   0.958   1.869
34252SOL    HW2 4654   6.590   0.902   1.806
34253SOL     OW 4655   4.538   8.972  12.812
34253SOL    HW1 4656   4.454   8.978  12.765
34253SOL    HW2 4657   4.549   9.058  12.852
34254SOL     OW 4658   5.433  10.778  14.002
34254SOL    HW1 4659   5.368  10.718  13.966
34254SOL    HW2 4660   5.383  10.833  14.063
34255SOL     OW 4661   8.147   2.472  10.230
34255SOL    HW1 4662   8.073   2.426  10.189
34255SOL    HW2 4663   8.166   2.544  10.171
34256SOL     OW 4664  10.965   8.596   7.689
34256SOL    HW1 4665  10.997   8.684   7.669
34256SOL    HW2 4666  11.005   8.574   7.773
34257SOL     OW 4667   4.819   8.843   0.712
34257SOL    HW1 4668   4.847   8.882   0.629
34257SOL    HW2 4669   4.776   8.761   0.688
34258SOL     OW 4670   3.178   1.421   8.225
34258SOL    HW1 4671   3.243   1.443   8.158
34258SOL    HW2 4672   3.209   1.338   8.262
34259SOL     OW 4673  12.655  10.328   2.757
34259SOL    HW1 4674  12.658  10.345   2.851
34259SOL    HW2 4675  12.676  10.235   2.749
34260SOL     OW 4676   1.007  13.311  11.991
34260SOL    HW1 4677   1.024  13.220  12.015
34260SOL    HW2 4678   1.077  13.332  11.929
34261SOL     OW 4679   2.028  11.232  12.663
34261SOL    HW1 4680   2.071  11.168  12.607
34261SOL    HW2 4681   2.063  11.316  12.635
34262SOL     OW 4682  12.703   8.805   7.791
34262SOL    HW1 4683  12.661   8.728   7.753
34262SOL    HW2 4684  12.662   8.815   7.877
34263SOL     OW 4685   3.256  12.122   9.494
34263SOL    HW1 4686   3.196  12.103   9.566
34263SOL    HW2 4687   3.229  12.208   9.462
34264SOL     OW 4688   4.485   2.655   4.011
34264SOL    HW1 4689   4.487   2.575   3.959
34264SOL    HW2 4690   4.559   2.707   3.979
34265SOL     OW 4691   7.186   1.205   8.430
34265SOL    HW1 4692   7.099   1.241   8.450
34265SOL    HW2 4693   7.171   1.142   8.360
34266SOL     OW 4694   2.057   5.247   5.850
34266SOL    HW1 4695   2.133   5.201   5.814
34266SOL    HW2 4696   2.094   5.315   5.905
34267SOL     OW 4697   8.607   0.686   9.703
34267SOL    HW1 4698   8.601   0.666   9.609
34267SOL    HW2 4699   8.665   0.618   9.738
34268SOL     OW 4700   3.647   4.585   6.911
34268SOL    HW1 4701   3.653   4.679   6.928
34268SOL    HW2 4702   3.573   4.576   6.851
34269SOL     OW 4703   9.011   9.277  12.694
34269SOL    HW1 4704   9.025   9.183  12.706
34269SOL    HW2 4705   9.016   9.290  12.599
34270SOL     OW 4706   7.512   4.105   1.610
34270SOL    HW1 4707   7.533   4.150   1.692
34270SOL    HW2 4708   7.473   4.022   1.639
34271SOL     OW 4709   4.686   3.600   1.223
34271SOL    HW1 4710   4.724   3.541   1.158
34271SOL    HW2 4711   4.747   3.597   1.297
34272SOL     OW 4712   9.163   2.974   6.518
34272SOL    HW1 4713   9.176   2.881   6.500
34272SOL    HW2 4714   9.170   2.981   6.613
34273SOL     OW 4715   4.167  10.089  12.919
34273SOL    HW1 4716   4.095  10.089  12.856
34273SOL    HW2 4717   4.182  10.182  12.938
34274SOL     OW 4718   0.523   9.517  11.916
34274SOL    HW1 4719   0.457   9.586  11.909
34274SOL    HW2 4720   0.479   9.446  11.962
34275SOL     OW 4721  12.470   3.578   1.315
34275SOL    HW1 4722  12.521   3.626   1.250
34275SOL    HW2 4723  12.384   3.566   1.274
34276SOL     OW 4724   1.100  12.965  11.141
34276SOL    HW1 4725   1.044  13.040  11.160
34276SOL    HW2 4726   1.094  12.910  11.219
34277SOL     OW 4727   8.217   7.785   3.077
34277SOL    HW1 4728   8.286   7.816   3.019
34277SOL    HW2 4729   8.136   7.800   3.028
34278SOL     OW 4730   0.073   9.067  14.051
34278SOL    HW1 4731   0.018   9.034  14.122
34278SOL    HW2 4732   0.161   9.038  14.074
34279SOL     OW 4733   5.105   4.876   1.601
34279SOL    HW1 4734   5.132   4.800   1.550
34279SOL    HW2 4735   5.033   4.843   1.656
34280SOL     OW 4736   2.379   2.904   6.358
34280SOL    HW1 4737   2.447   2.971   6.364
34280SOL    HW2 4738   2.412   2.833   6.413
34281SOL     OW 4739   5.172  10.238  10.493
34281SOL    HW1 4740   5.158  10.190  10.575
34281SOL    HW2 4741   5.158  10.330  10.517
34282SOL     OW 4742   5.031   7.097   8.935
34282SOL    HW1 4743   5.021   7.015   8.984
34282SOL    HW2 4744   5.070   7.158   8.997
34283SOL     OW 4745  12.756   7.079   9.519
34283SOL    HW1 4746  12.691   7.019   9.482
34283SOL    HW2 4747  12.704   7.148   9.560
34284SOL     OW 4748  10.637  13.110   9.146
34284SOL    HW1 4749  10.680  13.095   9.061
34284SOL    HW2 4750  10.544  13.117   9.125
34285SOL     OW 4751   0.683  13.747   4.291
34285SOL    HW1 4752   0.726  13.676   4.244
34285SOL    HW2 4753   0.603  13.707   4.326
34286SOL     OW 4754   2.480   6.055  14.293
34286SOL    HW1 4755   2.394   6.080  14.259
34286SOL    HW2 4756   2.502   5.976  14.244
34287SOL     OW 4757  10.515  10.524   9.269
34287SOL    HW1 4758  10.610  10.528   9.268
34287SOL    HW2 4759  10.493  10.511   9.362
34288SOL     OW 4760   5.520   9.275   1.244
34288SOL    HW1 4761   5.545   9.252   1.155
34288SOL    HW2 4762   5.465   9.202   1.274
34289SOL     OW 4763   9.260   9.837   2.431
34289SOL    HW1 4764   9.344   9.816   2.391
34289SOL    HW2 4765   9.266   9.803   2.520
34290SOL     OW 4766  10.362   2.582  10.471
34290SOL    HW1 4767  10.360   2.668  10.512
34290SOL    HW2 4768  10.444   2.542  10.502
34291SOL     OW 4769   8.282   1.777   9.793
34291SOL    HW1 4770   8.355   1.824   9.753
34291SOL    HW2 4771   8.297   1.785   9.887
34292SOL     OW 4772  10.987   7.520   7.573
34292SOL    HW1 4773  10.979   7.550   7.663
34292SOL    HW2 4774  10.937   7.438   7.570
34293SOL     OW 4775   6.284   9.844   8.315
34293SOL    HW1 4776   6.258   9.825   8.225
34293SOL    HW2 4777   6.366   9.796   8.328
34294SOL     OW 4778   0.203   9.611   1.993
34294SOL    HW1 4779   0.183   9.692   1.948
34294SOL    HW2 4780   0.135   9.602   2.060
34295SOL     OW 4781  12.621   6.980   5.763
34295SOL    HW1 4782  12.560   6.973   5.690
34295SOL    HW2 4783  12.603   7.066   5.801
34296SOL     OW 4784   2.613   6.705  12.443
34296SOL    HW1 4785   2.630   6.631  12.501
34296SOL    HW2 4786   2.581   6.665  12.362
34297SOL     OW 4787  11.520   3.060   6.290
34297SOL    HW1 4788  11.505   3.069   6.384
34297SOL    HW2 4789  11.555   2.972   6.279
34298SOL     OW 4790   9.878   8.105   6.407
34298SOL    HW1 4791   9.942   8.106   6.335
34298SOL    HW2 4792   9.921   8.054   6.476
34299SOL     OW 4793   0.710  14.635  14.053
34299SOL    HW1 4794   0.671  14.552  14.027
34299SOL    HW2 4795   0.707  14.634  14.149
34300SOL     OW 4796   7.494   9.812  10.303
34300SOL    HW1 4797   7.488   9.762  10.221
34300SOL    HW2 4798   7.585   9.805  10.329
34301SOL     OW 4799   7.918   3.476  12.778
34301SOL    HW1 4800   7.939   3.453  12.687
34301SOL    HW2 4801   7.911   3.572  12.777
34302SOL     OW 4802   0.186   8.972   5.771
34302SOL    HW1 4803   0.190   8.879   5.751
34302SOL    HW2 4804   0.258   9.010   5.721
34303SOL     OW 4805  11.895   8.370  13.752
34303SOL    HW1 4806  11.853   8.437  13.698
34303SOL    HW2 4807  11.828   8.346  13.816
34304SOL     OW 4808   9.670  11.411  12.584
34304SOL    HW1 4809   9.664  11.407  12.488
34304SOL    HW2 4810   9.584  11.382  12.615
34305SOL     OW 4811   7.815   8.609  14.713
34305SOL    HW1 4812   7.724   8.601  14.684
34305SOL    HW2 4813   7.808   8.628  14.807
34306SOL     OW 4814  10.940   4.726  12.552
34306SOL    HW1 4815  10.927   4.692  12.463
34306SOL    HW2 4816  11.034   4.712  12.569
34307SOL     OW 4817   2.823  12.595   3.991
34307SOL    HW1 4818   2.885  12.594   4.064
34307SOL    HW2 4819   2.738  12.575   4.031
34308SOL     OW 4820  14.386   2.118   7.736
34308SOL    HW1 4821  14.442   2.196   7.744
34308SOL    HW2 4822  14.419   2.058   7.803
34309SOL     OW 4823   3.144   2.302   5.897
34309SOL    HW1 4824   3.204   2.360   5.850
34309SOL    HW2 4825   3.139   2.224   5.842
34310SOL     OW 4826   6.445   5.228  13.558
34310SOL    HW1 4827   6.446   5.196  13.468
34310SOL    HW2 4828   6.417   5.152  13.610
34311SOL     OW 4829   3.474   9.849  11.217
34311SOL    HW1 4830   3.563   9.860  11.185
34311SOL    HW2 4831   3.439   9.938  11.221
34312SOL     OW 4832   7.946   4.775  11.094
34312SOL    HW1 4833   7.854   4.797  11.113
34312SOL    HW2 4834   7.956   4.797  11.002
34313SOL     OW 4835   3.026   2.242  10.688
34313SOL    HW1 4836   3.074   2.160  10.700
34313SOL    HW2 4837   3.012   2.275  10.777
34314SOL     OW 4838   1.252   3.145   7.035
34314SOL    HW1 4839   1.292   3.231   7.033
34314SOL    HW2 4840   1.216   3.134   6.947
34315SOL     OW 4841   1.646  10.591  12.193
34315SOL    HW1 4842   1.674  10.674  12.231
34315SOL    HW2 4843   1.727  10.548  12.167
34316SOL     OW 4844   3.135   4.964  11.074
34316SOL    HW1 4845   3.111   4.986  10.984
34316SOL    HW2 4846   3.118   4.870  11.081
34317SOL     OW 4847   5.133  11.634   7.609
34317SOL    HW1 4848   5.113  11.671   7.695
34317SOL    HW2 4849   5.094  11.546   7.611
34318SOL     OW 4850  12.401   2.384   9.364
34318SOL    HW1 4851  12.410   2.441   9.440
34318SOL    HW2 4852  12.438   2.300   9.392
34319SOL     OW 4853  10.808   6.196   4.387
34319SOL    HW1 4854  10.866   6.119   4.394
34319SOL    HW2 4855  10.778   6.195   4.297
34320SOL     OW 4856   5.006   8.162   1.460
34320SOL    HW1 4857   4.975   8.106   1.531
34320SOL    HW2 4858   5.010   8.104   1.384
34321SOL     OW 4859   0.399  12.199   0.830
34321SOL    HW1 4860   0.476  12.202   0.887
34321SOL    HW2 4861   0.371  12.291   0.823
34322SOL     OW 4862   5.937   6.560  10.890
34322SOL    HW1 4863   5.946   6.477  10.842
34322SOL    HW2 4864   5.931   6.626  10.821
34323SOL     OW 4865  10.002  10.258   9.059
34323SOL    HW1 4866   9.947  10.187   9.026
34323SOL    HW2 4867  10.067  10.214   9.115
34324SOL     OW 4868   9.935  12.561  13.223
34324SOL    HW1 4869  10.015  12.510  13.232
34324SOL    HW2 4870   9.875  12.524  13.288
34325SOL     OW 4871   9.641  11.092  12.358
34325SOL    HW1 4872   9.601  11.005  12.364
34325SOL    HW2 4873   9.700  11.086  12.283
34326SOL     OW 4874  13.871   2.919   6.905
34326SOL    HW1 4875  13.930   2.911   6.830
34326SOL    HW2 4876  13.840   2.830   6.921
34327SOL     OW 4877  13.623   6.151  13.570
34327SOL    HW1 4878  13.684   6.133  13.641
34327SOL    HW2 4879  13.595   6.065  13.540
34328SOL     OW 4880   7.502  14.571  11.756
34328SOL    HW1 4881   7.485  14.490  11.709
34328SOL    HW2 4882   7.424  14.624  11.742
34329SOL     OW 4883  12.212   4.096   1.827
34329SOL    HW1 4884  12.255   4.153   1.891
34329SOL    HW2 4885  12.277   4.083   1.758
34330SOL     OW 4886   5.193   6.854   1.913
34330SOL    HW1 4887   5.199   6.929   1.854
34330SOL    HW2 4888   5.279   6.851   1.956
34331SOL     OW 4889  12.146   3.631  11.794
34331SOL    HW1 4890  12.075   3.566  11.799
34331SOL    HW2 4891  12.187   3.629  11.880
34332SOL     OW 4892  13.003   2.659   1.115
34332SOL    HW1 4893  13.055   2.680   1.038
34332SOL    HW2 4894  12.932   2.603   1.082
34333SOL     OW 4895  14.439   7.051  11.388
34333SOL    HW1 4896  14.429   7.146  11.392
34333SOL    HW2 4897  14.398   7.019  11.468
34334SOL     OW 4898   3.631   9.584   2.002
34334SOL    HW1 4899   3.700   9.539   2.050
34334SOL    HW2 4900   3.671   9.605   1.917
34335SOL     OW 4901  12.223  10.995   4.433
34335SOL    HW1 4902  12.314  10.968   4.452
34335SOL    HW2 4903  12.231  11.054   4.358
34336SOL     OW 4904   9.982   4.409   4.948
34336SOL    HW1 4905  10.037   4.411   4.869
34336SOL    HW2 4906   9.902   4.454   4.922
34337SOL     OW 4907  11.216  12.482  10.662
34337SOL    HW1 4908  11.177  12.563  10.696
34337SOL    HW2 4909  11.204  12.488  10.567
34338SOL     OW 4910   7.433   0.263   6.851
34338SOL    HW1 4911   7.489   0.272   6.774
34338SOL    HW2 4912   7.437   0.170   6.874
34339SOL     OW 4913  12.476  12.131  11.693
34339SOL    HW1 4914  12.470  12.045  11.652
34339SOL    HW2 4915  12.565  12.160  11.675
34340SOL     OW 4916  13.002  14.283   4.951
34340SOL    HW1 4917  13.081  14.232   4.966
34340SOL    HW2 4918  13.032  14.374   4.950
34341SOL     OW 4919  10.552  11.889   7.835
34341SOL    HW1 4920  10.477  11.942   7.807
34341SOL    HW2 4921  10.622  11.952   7.848
34342SOL     OW 4922  14.373   5.410   8.576
34342SOL    HW1 4923  14.413   5.324   8.589
34342SOL    HW2 4924  14.411   5.442   8.494
34343SOL     OW 4925   9.432   2.995   8.052
34343SOL    HW1 4926   9.436   2.937   7.976
34343SOL    HW2 4927   9.512   2.975   8.101
34344SOL     OW 4928   9.390   9.068  10.627
34344SOL    HW1 4929   9.475   9.048  10.588
34344SOL    HW2 4930   9.350   8.983  10.643
34345SOL     OW 4931   7.335  13.424   0.280
34345SOL    HW1 4932   7.341  13.506   0.230
34345SOL    HW2 4933   7.406  13.429   0.343
34346SOL     OW 4934  13.052  12.008   7.567
34346SOL    HW1 4935  12.969  12.052   7.549
34346SOL    HW2 4936  13.094  12.062   7.634
34347SOL     OW 4937   6.396   3.761   8.602
34347SOL    HW1 4938   6.400   3.765   8.697
34347SOL    HW2 4939   6.416   3.850   8.573
34348SOL     OW 4940   9.751   3.267   5.111
34348SOL    HW1 4941   9.683   3.276   5.045
34348SOL    HW2 4942   9.758   3.354   5.150
34349SOL     OW 4943   1.906  11.012  11.425
34349SOL    HW1 4944   1.919  11.054  11.510
34349SOL    HW2 4945   1.859  10.931  11.445
34350SOL     OW 4946   6.416  11.327   5.691
34350SOL    HW1 4947   6.421  11.411   5.736
34350SOL    HW2 4948   6.369  11.346   5.610
34351SOL     OW 4949   6.953  10.377  14.059
34351SOL    HW1 4950   6.954  10.281  14.061
34351SOL    HW2 4951   6.970  10.399  13.967
34352SOL     OW 4952  12.318   4.797  10.414
34352SOL    HW1 4953  12.282   4.739  10.481
34352SOL    HW2 4954  12.398   4.833  10.453
34353SOL     OW 4955   5.295   4.099   7.941
34353SOL    HW1 4956   5.229   4.130   7.878
34353SOL    HW2 4957   5.262   4.127   8.026
34354SOL     OW 4958  11.885  13.336   8.005
34354SOL    HW1 4959  11.884  13.432   8.005
34354SOL    HW2 4960  11.933  13.313   7.925
34355SOL     OW 4961  10.366   3.323   6.171
34355SOL    HW1 4962  10.292   3.285   6.218
34355SOL    HW2 4963  10.331   3.344   6.084
34356SOL     OW 4964   5.257  11.019  12.426
34356SOL    HW1 4965   5.267  10.936  12.381
34356SOL    HW2 4966   5.345  11.057  12.428
34357SOL     OW 4967  11.949   0.341   6.790
34357SOL    HW1 4968  11.901   0.297   6.720
34357SOL    HW2 4969  12.023   0.282   6.808
34358SOL     OW 4970  11.744  11.766   6.998
34358SOL    HW1 4971  11.771  11.677   7.020
34358SOL    HW2 4972  11.651  11.759   6.975
34359SOL     OW 4973   9.019  11.174   5.933
34359SOL    HW1 4974   9.038  11.080   5.943
34359SOL    HW2 4975   8.924  11.179   5.931
34360SOL     OW 4976   6.128  10.182   0.334
34360SOL    HW1 4977   6.205  10.129   0.313
34360SOL    HW2 4978   6.135  10.258   0.275
34361SOL     OW 4979   1.089  11.316   1.747
34361SOL    HW1 4980   1.088  11.230   1.705
34361SOL    HW2 4981   1.165  11.315   1.805
34362SOL     OW 4982   3.673   2.804   7.709
34362SOL    HW1 4983   3.757   2.822   7.665
34362SOL    HW2 4984   3.646   2.719   7.674
34363SOL     OW 4985  10.160  14.331  12.583
34363SOL    HW1 4986  10.226  14.277  12.540
34363SOL    HW2 4987  10.119  14.381  12.512
34364SOL     OW 4988   1.388   4.793   4.794
34364SOL    HW1 4989   1.355   4.707   4.821
34364SOL    HW2 4990   1.389   4.844   4.875
34365SOL     OW 4991  14.413   7.152  10.839
34365SOL    HW1 4992  14.485   7.145  10.902
34365SOL    HW2 4993  14.448   7.115  10.758
34366SOL     OW 4994   6.896  12.435   4.226
34366SOL    HW1 4995   6.828  12.373   4.201
34366SOL    HW2 4996   6.968  12.380   4.258
34367SOL     OW 4997   6.578   3.215  13.562
34367SOL    HW1 4998   6.667   3.181  13.563
34367SOL    HW2 4999   6.548   3.200  13.472
34368SOL     OW 5000  13.180   4.349  10.007
34368SOL    HW1 5001  13.129   4.395   9.941
34368SOL    HW2 5002  13.220   4.276   9.960
34369SOL     OW 5003  14.249  10.423   5.036
34369SOL    HW1 5004  14.301  10.356   5.081
34369SOL    HW2 5005  14.209  10.377   4.962
34370SOL     OW 5006   5.635   7.744  14.839
34370SOL    HW1 5007   5.675   7.691   0.029
34370SOL    HW2 5008   5.671   7.708  14.758
34371SOL     OW 5009   3.609   4.892  11.425
34371SOL    HW1 5010   3.595   4.883  11.330
34371SOL    HW2 5011   3.584   4.983  11.443
34372SOL     OW 5012  13.736   9.814   7.655
34372SOL    HW1 5013  13.738   9.839   7.747
34372SOL    HW2 5014  13.826   9.827   7.625
34373SOL     OW 5015  11.945   0.943  11.842
34373SOL    HW1 5016  11.919   0.967  11.931
34373SOL    HW2 5017  12.038   0.922  11.849
34374SOL     OW 5018   3.917  14.248   6.844
34374SOL    HW1 5019   3.856  14.186   6.804
34374SOL    HW2 5020   3.928  14.316   6.778
34375SOL     OW 5021   8.004   0.489  12.955
34375SOL    HW1 5022   7.912   0.515  12.947
34375SOL    HW2 5023   8.030   0.465  12.866
34376SOL     OW 5024   0.166  12.204   5.916
34376SOL    HW1 5025   0.136  12.122   5.957
34376SOL    HW2 5026   0.147  12.192   5.823
34377SOL     OW 5027   6.185   3.663   7.859
34377SOL    HW1 5028   6.152   3.574   7.846
34377SOL    HW2 5029   6.120   3.719   7.815
34378SOL     OW 5030   9.660   4.514   1.680
34378SOL    HW1 5031   9.601   4.588   1.662
34378SOL    HW2 5032   9.639   4.488   1.769
34379SOL     OW 5033   4.912   9.576  11.752
34379SOL    HW1 5034   4.906   9.505  11.688
34379SOL    HW2 5035   4.935   9.653  11.700
34380SOL     OW 5036  12.400   4.803   6.360
34380SOL    HW1 5037  12.435   4.890   6.342
34380SOL    HW2 5038  12.392   4.762   6.274
34381SOL     OW 5039   7.229   3.241  14.374
34381SOL    HW1 5040   7.190   3.326  14.354
34381SOL    HW2 5041   7.283   3.257  14.451
34382SOL     OW 5042   9.633  13.270  13.104
34382SOL    HW1 5043   9.636  13.366  13.105
34382SOL    HW2 5044   9.540  13.250  13.111
34383SOL     OW 5045  13.836   8.744  10.240
34383SOL    HW1 5046  13.910   8.689  10.267
34383SOL    HW2 5047  13.850   8.827  10.285
34384SOL     OW 5048  10.105   9.886   2.669
34384SOL    HW1 5049  10.102   9.846   2.582
34384SOL    HW2 5050  10.192   9.864   2.702
34385SOL     OW 5051   1.205   1.656   5.360
34385SOL    HW1 5052   1.278   1.651   5.298
34385SOL    HW2 5053   1.128   1.636   5.308
34386SOL     OW 5054  11.179   0.003  12.566
34386SOL    HW1 5055  11.213   0.000  12.477
34386SOL    HW2 5056  11.206   0.089  12.599
34387SOL     OW 5057  12.828   6.162   3.400
34387SOL    HW1 5058  12.919   6.175   3.376
34387SOL    HW2 5059  12.778   6.220   3.343
34388SOL     OW 5060   0.009   5.500   0.234
34388SOL    HW1 5061  14.874   5.441   0.308
34388SOL    HW2 5062   0.083   5.463   0.188
34389SOL     OW 5063  14.812   2.152  12.320
34389SOL    HW1 5064  14.784   2.152  12.229
34389SOL    HW2 5065  14.746   2.202  12.366
34390SOL     OW 5066   0.555   6.315   9.496
34390SOL    HW1 5067   0.614   6.316   9.420
34390SOL    HW2 5068   0.508   6.231   9.489
34391SOL     OW 5069   8.223  10.460   4.307
34391SOL    HW1 5070   8.293  10.453   4.372
34391SOL    HW2 5071   8.231  10.548   4.272
34392SOL     OW 5072   6.973  11.661   9.776
34392SOL    HW1 5073   7.005  11.609   9.851
34392SOL    HW2 5074   6.931  11.737   9.816
34393SOL     OW 5075  14.025   4.804   8.327
34393SOL    HW1 5076  13.965   4.781   8.398
34393SOL    HW2 5077  14.008   4.897   8.310
34394SOL     OW 5078   6.230   2.144   5.738
34394SOL    HW1 5079   6.148   2.104   5.765
34394SOL    HW2 5080   6.289   2.131   5.813
34395SOL     OW 5081   0.210   9.656   3.599
34395SOL    HW1 5082   0.251   9.570   3.604
34395SOL    HW2 5083   0.280   9.717   3.625
34396SOL     OW 5084   5.459   1.654   8.373
34396SOL    HW1 5085   5.534   1.608   8.411
34396SOL    HW2 5086   5.383   1.603   8.400
34397SOL     OW 5087  12.576   0.095   8.746
34397SOL    HW1 5088  12.649   0.143   8.706
34397SOL    HW2 5089  12.564   0.019   8.689
34398SOL     OW 5090  14.594  12.533   4.210
34398SOL    HW1 5091  14.557  12.583   4.283
34398SOL    HW2 5092  14.603  12.598   4.139
34399SOL     OW 5093   8.770  11.015   9.422
34399SOL    HW1 5094   8.860  11.029   9.451
34399SOL    HW2 5095   8.764  11.062   9.339
34400SOL     OW 5096  14.088   8.403  13.713
34400SOL    HW1 5097  14.159   8.344  13.688
34400SOL    HW2 5098  14.018   8.383  13.652
34401SOL     OW 5099   8.263   5.405   8.930
34401SOL    HW1 5100   8.264   5.337   8.862
34401SOL    HW2 5101   8.232   5.360   9.009
34402SOL     OW 5102   0.654   1.133   2.401
34402SOL    HW1 5103   0.559   1.142   2.399
34402SOL    HW2 5104   0.685   1.192   2.333
34403SOL     OW 5105   0.855  10.462   8.126
34403SOL    HW1 5106   0.870  10.423   8.212
34403SOL    HW2 5107   0.795  10.402   8.082
34404SOL     OW 5108  13.773   3.219  11.039
34404SOL    HW1 5109  13.856   3.266  11.045
34404SOL    HW2 5110  13.792   3.132  11.074
34405SOL     OW 5111   7.726  14.850  14.148
34405SOL    HW1 5112   7.795  14.870  14.212
34405SOL    HW2 5113   7.720  14.755  14.148
34406SOL     OW 5114   1.868   3.999   1.533
34406SOL    HW1 5115   1.956   3.975   1.562
34406SOL    HW2 5116   1.837   3.924   1.483
34407SOL     OW 5117  10.367  11.512   0.495
34407SOL    HW1 5118  10.339  11.435   0.445
34407SOL    HW2 5119  10.461  11.498   0.509
34408SOL     OW 5120   7.735  11.284  13.373
34408SOL    HW1 5121   7.655  11.232  13.386
34408SOL    HW2 5122   7.785  11.234  13.308
34409SOL     OW 5123  12.551   3.822   4.130
34409SOL    HW1 5124  12.528   3.842   4.039
34409SOL    HW2 5125  12.640   3.856   4.140
34410SOL     OW 5126  10.900  14.798  10.656
34410SOL    HW1 5127  10.990  14.800  10.622
34410SOL    HW2 5128  10.873  14.707  10.648
34411SOL     OW 5129   0.109   3.285   5.812
34411SOL    HW1 5130   0.139   3.354   5.754
34411SOL    HW2 5131   0.130   3.204   5.767
34412SOL     OW 5132   7.952  10.486  10.295
34412SOL    HW1 5133   8.040  10.480  10.331
34412SOL    HW2 5134   7.914  10.400  10.309
34413SOL     OW 5135   4.664   8.991  12.013
34413SOL    HW1 5136   4.689   9.051  12.083
34413SOL    HW2 5137   4.635   8.911  12.058
34414SOL     OW 5138   0.062  10.175  11.566
34414SOL    HW1 5139   0.061  10.138  11.478
34414SOL    HW2 5140   0.009  10.253  11.560
34415SOL     OW 5141   0.058   2.198   2.774
34415SOL    HW1 5142   0.142   2.243   2.779
34415SOL    HW2 5143   0.000   2.259   2.728
34416SOL     OW 5144  12.550   3.282  12.789
34416SOL    HW1 5145  12.509   3.230  12.720
34416SOL    HW2 5146  12.640   3.248  12.794
34417SOL     OW 5147   1.447   0.690  11.987
34417SOL    HW1 5148   1.424   0.602  12.016
34417SOL    HW2 5149   1.542   0.689  11.982
34418SOL     OW 5150   0.404  12.922   7.578
34418SOL    HW1 5151   0.378  12.964   7.497
34418SOL    HW2 5152   0.343  12.956   7.644
34419SOL     OW 5153   0.719   7.423  14.209
34419SOL    HW1 5154   0.750   7.477  14.281
34419SOL    HW2 5155   0.774   7.447  14.135
34420SOL     OW 5156  10.690  14.051   2.976
34420SOL    HW1 5157  10.692  14.147   2.981
34420SOL    HW2 5158  10.672  14.032   2.884
34421SOL     OW 5159   2.442   3.841   2.580
34421SOL    HW1 5160   2.483   3.790   2.650
34421SOL    HW2 5161   2.466   3.795   2.500
34422SOL     OW 5162  10.035   8.870  13.287
34422SOL    HW1 5163   9.970   8.890  13.220
34422SOL    HW2 5164   9.994   8.896  13.369
34423SOL     OW 5165   6.790  11.010   1.653
34423SOL    HW1 5166   6.724  11.055   1.601
34423SOL    HW2 5167   6.754  11.008   1.742
34424SOL     OW 5168  13.937  12.963   0.160
34424SOL    HW1 5169  13.884  12.993   0.087
34424SOL    HW2 5170  14.027  12.982   0.134
34425SOL     OW 5171   0.558   7.103   8.231
34425SOL    HW1 5172   0.578   7.095   8.324
34425SOL    HW2 5173   0.519   7.190   8.223
34426SOL     OW 5174   4.261   1.595  12.351
34426SOL    HW1 5175   4.249   1.501  12.336
34426SOL    HW2 5176   4.346   1.601  12.395
34427SOL     OW 5177   5.743  13.042   6.878
34427SOL    HW1 5178   5.652  13.041   6.906
34427SOL    HW2 5179   5.752  12.963   6.825
34428SOL     OW 5180  12.008   5.500  11.235
34428SOL    HW1 5181  12.046   5.537  11.156
34428SOL    HW2 5182  11.914   5.495  11.216
34429SOL     OW 5183   2.554   3.439   9.403
34429SOL    HW1 5184   2.500   3.375   9.356
34429SOL    HW2 5185   2.643   3.423   9.372
34430SOL     OW 5186   7.891   4.247   5.385
34430SOL    HW1 5187   7.971   4.197   5.375
34430SOL    HW2 5188   7.920   4.334   5.412
34431SOL     OW 5189   9.632   0.558  11.335
34431SOL    HW1 5190   9.568   0.627  11.353
34431SOL    HW2 5191   9.714   0.594  11.368
34432SOL     OW 5192   3.428   8.219  11.834
34432SOL    HW1 5193   3.369   8.257  11.769
34432SOL    HW2 5194   3.391   8.245  11.919
34433SOL     OW 5195  13.481   2.739   1.140
34433SOL    HW1 5196  13.433   2.736   1.222
34433SOL    HW2 5197  13.440   2.672   1.086
34434SOL     OW 5198  14.151   5.972   9.849
34434SOL    HW1 5199  14.220   6.026   9.889
34434SOL    HW2 5200  14.069   6.014   9.878
34435SOL     OW 5201   8.677  14.597   7.461
34435SOL    HW1 5202   8.666  14.587   7.367
34435SOL    HW2 5203   8.695  14.508   7.493
34436SOL     OW 5204   4.023   3.555   4.802
34436SOL    HW1 5205   3.979   3.640   4.812
34436SOL    HW2 5206   3.952   3.492   4.789
34437SOL     OW 5207   7.209   1.278   6.553
34437SOL    HW1 5208   7.148   1.310   6.487
34437SOL    HW2 5209   7.244   1.358   6.594
34438SOL     OW 5210  13.729   9.218   3.654
34438SOL    HW1 5211  13.731   9.277   3.579
34438SOL    HW2 5212  13.805   9.160   3.640
34439SOL     OW 5213   1.153   3.307  13.742
34439SOL    HW1 5214   1.106   3.372  13.794
34439SOL    HW2 5215   1.152   3.228  13.796
34440SOL     OW 5216  10.455   3.280   4.454
34440SOL    HW1 5217  10.514   3.342   4.411
34440SOL    HW2 5218  10.392   3.256   4.387
34441SOL     OW 5219  10.517  13.503  14.530
34441SOL    HW1 5220  10.490  13.476  14.442
34441SOL    HW2 5221  10.607  13.471  14.538
34442SOL     OW 5222   4.795   3.353   7.811
34442SOL    HW1 5223   4.759   3.369   7.724
34442SOL    HW2 5224   4.753   3.271   7.839
34443SOL     OW 5225  10.930   8.689  12.943
34443SOL    HW1 5226  10.942   8.633  13.020
34443SOL    HW2 5227  10.858   8.748  12.967
34444SOL     OW 5228  12.900   5.103   4.952
34444SOL    HW1 5229  12.839   5.175   4.966
34444SOL    HW2 5230  12.967   5.140   4.894
34445SOL     OW 5231   0.061  10.545   1.685
34445SOL    HW1 5232   0.070  10.499   1.769
34445SOL    HW2 5233  14.858  10.592   1.693
34446SOL     OW 5234   9.921   5.182   4.127
34446SOL    HW1 5235   9.904   5.240   4.201
34446SOL    HW2 5236   9.917   5.240   4.050
34447SOL     OW 5237  12.503  11.730   2.638
34447SOL    HW1 5238  12.522  11.772   2.722
34447SOL    HW2 5239  12.589  11.714   2.599
34448SOL     OW 5240   5.639  14.608   1.727
34448SOL    HW1 5241   5.604  14.519   1.734
34448SOL    HW2 5242   5.712  14.601   1.666
34449SOL     OW 5243   5.323   5.936   5.093
34449SOL    HW1 5244   5.400   5.923   5.038
34449SOL    HW2 5245   5.339   5.881   5.169
34450SOL     OW 5246  13.864   5.631  14.229
34450SOL    HW1 5247  13.937   5.575  14.254
34450SOL    HW2 5248  13.788   5.572  14.226
34451SOL     OW 5249  11.142   9.326   3.940
34451SOL    HW1 5250  11.097   9.382   4.003
34451SOL    HW2 5251  11.230   9.317   3.974
34452SOL     OW 5252   3.409   2.205  14.121
34452SOL    HW1 5253   3.469   2.279  14.110
34452SOL    HW2 5254   3.379   2.185  14.032
34453SOL     OW 5255  11.870  14.308   8.598
34453SOL    HW1 5256  11.834  14.312   8.509
34453SOL    HW2 5257  11.804  14.259   8.648
34454SOL     OW 5258   6.843  10.339   6.309
34454SOL    HW1 5259   6.844  10.427   6.347
34454SOL    HW2 5260   6.767  10.296   6.348
34455SOL     OW 5261   8.534  11.983   3.107
34455SOL    HW1 5262   8.476  11.973   3.182
34455SOL    HW2 5263   8.550  11.894   3.076
34456SOL     OW 5264   0.194   4.847   7.075
34456SOL    HW1 5265   0.289   4.854   7.071
34456SOL    HW2 5266   0.169   4.897   7.153
34457SOL     OW 5267   8.903  10.473   5.174
34457SOL    HW1 5268   8.928  10.388   5.137
34457SOL    HW2 5269   8.807  10.473   5.172
34458SOL     OW 5270   0.300   3.572   9.001
34458SOL    HW1 5271   0.393   3.581   8.978
34458SOL    HW2 5272   0.297   3.587   9.095
34459SOL     OW 5273   6.478  14.110   7.870
34459SOL    HW1 5274   6.488  14.191   7.819
34459SOL    HW2 5275   6.504  14.134   7.959
34460SOL     OW 5276   4.305  10.436   6.076
34460SOL    HW1 5277   4.362  10.403   6.007
34460SOL    HW2 5278   4.236  10.484   6.030
34461SOL     OW 5279  10.515   6.091  13.328
34461SOL    HW1 5280  10.529   6.009  13.374
34461SOL    HW2 5281  10.420   6.102  13.328
34462SOL     OW 5282   9.001   8.278  11.604
34462SOL    HW1 5283   8.981   8.271  11.510
34462SOL    HW2 5284   9.082   8.229  11.614
34463SOL     OW 5285  12.395  13.482  12.374
34463SOL    HW1 5286  12.424  13.512  12.288
34463SOL    HW2 5287  12.341  13.405  12.356
34464SOL     OW 5288  11.376   4.254  13.075
34464SOL    HW1 5289  11.316   4.201  13.127
34464SOL    HW2 5290  11.345   4.344  13.087
34465SOL     OW 5291  11.188  11.957  11.812
34465SOL    HW1 5292  11.201  11.881  11.754
34465SOL    HW2 5293  11.114  12.004  11.773
34466SOL     OW 5294   7.018  10.417   2.541
34466SOL    HW1 5295   7.064  10.399   2.459
34466SOL    HW2 5296   6.970  10.498   2.524
34467SOL     OW 5297  10.451   6.516   5.658
34467SOL    HW1 5298  10.439   6.611   5.666
34467SOL    HW2 5299  10.392   6.491   5.586
34468SOL     OW 5300  12.059   3.902   6.200
34468SOL    HW1 5301  12.085   3.879   6.110
34468SOL    HW2 5302  12.134   3.951   6.234
34469SOL     OW 5303   9.217   6.869   8.510
34469SOL    HW1 5304   9.273   6.933   8.553
34469SOL    HW2 5305   9.274   6.827   8.446
34470SOL     OW 5306  13.753  11.489   6.127
34470SOL    HW1 5307  13.702  11.424   6.176
34470SOL    HW2 5308  13.738  11.466   6.035
34471SOL     OW 5309  12.696   0.289   8.486
34471SOL    HW1 5310  12.768   0.333   8.530
34471SOL    HW2 5311  12.679   0.342   8.408
34472SOL     OW 5312   2.982  13.711  12.350
34472SOL    HW1 5313   2.921  13.780  12.375
34472SOL    HW2 5314   3.017  13.678  12.432
34473SOL     OW 5315   6.350   4.833   2.002
34473SOL    HW1 5316   6.438   4.800   1.981
34473SOL    HW2 5317   6.296   4.754   2.006
34474SOL     OW 5318   6.838   0.796  12.954
34474SOL    HW1 5319   6.807   0.771  12.867
34474SOL    HW2 5320   6.840   0.891  12.952
34475SOL     OW 5321  13.847   2.895   0.119
34475SOL    HW1 5322  13.760   2.897   0.159
34475SOL    HW2 5323  13.892   2.971   0.157
34476SOL     OW 5324   6.902   4.654   5.478
34476SOL    HW1 5325   6.974   4.594   5.459
34476SOL    HW2 5326   6.827   4.617   5.431
34477SOL     OW 5327   1.543   3.792  11.318
34477SOL    HW1 5328   1.599   3.857  11.275
34477SOL    HW2 5329   1.579   3.785  11.407
34478SOL     OW 5330   9.506   9.780  12.899
34478SOL    HW1 5331   9.441   9.715  12.874
34478SOL    HW2 5332   9.456   9.857  12.927
34479SOL     OW 5333   3.514   3.996   2.748
34479SOL    HW1 5334   3.591   3.979   2.694
34479SOL    HW2 5335   3.508   3.921   2.806
34480SOL     OW 5336  13.556   0.860   6.533
34480SOL    HW1 5337  13.534   0.812   6.613
34480SOL    HW2 5338  13.478   0.913   6.515
34481SOL     OW 5339   8.604   3.379   7.404
34481SOL    HW1 5340   8.676   3.343   7.352
34481SOL    HW2 5341   8.624   3.472   7.412
34482SOL     OW 5342   3.306   3.063   0.829
34482SOL    HW1 5343   3.277   3.010   0.903
34482SOL    HW2 5344   3.402   3.057   0.831
34483SOL     OW 5345   7.124   5.431  13.461
34483SOL    HW1 5346   7.211   5.461  13.436
34483SOL    HW2 5347   7.132   5.407  13.553
34484SOL     OW 5348  12.858  12.600   8.564
34484SOL    HW1 5349  12.904  12.553   8.494
34484SOL    HW2 5350  12.824  12.531   8.620
34485SOL     OW 5351  14.869   4.168  13.987
34485SOL    HW1 5352  14.878   4.228  13.913
34485SOL    HW2 5353   0.004   4.223  14.064
34486SOL     OW 5354  10.075  12.349   2.264
34486SOL    HW1 5355  10.147  12.402   2.231
34486SOL    HW2 5356  10.117  12.271   2.300
34487SOL     OW 5357   8.188   1.929  11.567
34487SOL    HW1 5358   8.123   1.902  11.502
34487SOL    HW2 5359   8.271   1.932  11.520
34488SOL     OW 5360   5.720   7.961   8.079
34488SOL    HW1 5361   5.778   8.038   8.080
34488SOL    HW2 5362   5.753   7.908   8.007
34489SOL     OW 5363   2.817   1.443   5.847
34489SOL    HW1 5364   2.776   1.358   5.832
34489SOL    HW2 5365   2.805   1.459   5.940
34490SOL     OW 5366   7.139   6.747   0.919
34490SOL    HW1 5367   7.190   6.705   0.849
34490SOL    HW2 5368   7.146   6.841   0.900
34491SOL     OW 5369   4.486   7.726  11.501
34491SOL    HW1 5370   4.494   7.656  11.436
34491SOL    HW2 5371   4.395   7.721  11.532
34492SOL     OW 5372  12.095   3.137  13.464
34492SOL    HW1 5373  12.127   3.048  13.455
34492SOL    HW2 5374  12.170   3.192  13.443
34493SOL     OW 5375  12.474   7.094  11.430
34493SOL    HW1 5376  12.509   7.183  11.439
34493SOL    HW2 5377  12.486   7.055  11.516
34494SOL     OW 5378   0.075   6.648  13.752
34494SOL    HW1 5379   0.020   6.677  13.824
34494SOL    HW2 5380   0.016   6.640  13.677
34495SOL     OW 5381  10.305   0.648   2.861
34495SOL    HW1 5382  10.365   0.575   2.848
34495SOL    HW2 5383  10.303   0.660   2.956
34496SOL     OW 5384   9.666   5.347   2.139
34496SOL    HW1 5385   9.654   5.262   2.180
34496SOL    HW2 5386   9.617   5.342   2.057
34497SOL     OW 5387   6.594   8.636   1.276
34497SOL    HW1 5388   6.546   8.559   1.308
34497SOL    HW2 5389   6.621   8.681   1.356
34498SOL     OW 5390   5.049  11.429  12.073
34498SOL    HW1 5391   5.083  11.357  12.125
34498SOL    HW2 5392   4.961  11.401  12.048
34499SOL     OW 5393  12.338   6.266   5.216
34499SOL    HW1 5394  12.415   6.321   5.204
34499SOL    HW2 5395  12.303   6.254   5.128
34500SOL     OW 5396   9.657   1.048   9.248
34500SOL    HW1 5397   9.623   1.130   9.284
34500SOL    HW2 5398   9.748   1.067   9.225
34501SOL     OW 5399  13.213  14.596   4.598
34501SOL    HW1 5400  13.205  14.515   4.650
34501SOL    HW2 5401  13.183  14.665   4.658
34502SOL     OW 5402   8.189   9.838   5.953
34502SOL    HW1 5403   8.210   9.921   5.996
34502SOL    HW2 5404   8.121   9.798   6.007
34503SOL     OW 5405   9.511   1.056   3.102
34503SOL    HW1 5406   9.509   1.138   3.053
34503SOL    HW2 5407   9.517   0.988   3.034
34504SOL     OW 5408   7.528   4.338   0.419
34504SOL    HW1 5409   7.488   4.253   0.432
34504SOL    HW2 5410   7.580   4.329   0.339
34505SOL     OW 5411   1.043   1.919  14.203
34505SOL    HW1 5412   0.974   1.942  14.266
34505SOL    HW2 5413   1.078   2.003  14.175
34506SOL     OW 5414  11.215   2.493   2.112
34506SOL    HW1 5415  11.158   2.532   2.046
34506SOL    HW2 5416  11.247   2.412   2.072
34507SOL     OW 5417   9.139  12.520   3.369
34507SOL    HW1 5418   9.045  12.531   3.354
34507SOL    HW2 5419   9.179  12.549   3.288
34508SOL     OW 5420   1.016  13.854   1.655
34508SOL    HW1 5421   0.946  13.844   1.591
34508SOL    HW2 5422   1.039  13.947   1.651
34509SOL     OW 5423  12.017  11.915  10.691
34509SOL    HW1 5424  11.973  11.834  10.717
34509SOL    HW2 5425  12.086  11.926  10.757
34510SOL     OW 5426  11.696   0.564   9.436
34510SOL    HW1 5427  11.640   0.631   9.475
34510SOL    HW2 5428  11.704   0.497   9.504
34511SOL     OW 5429  11.531   7.129  11.884
34511SOL    HW1 5430  11.569   7.160  11.802
34511SOL    HW2 5431  11.461   7.070  11.857
34512SOL     OW 5432   0.132  10.344  12.522
34512SOL    HW1 5433   0.104  10.431  12.550
34512SOL    HW2 5434   0.204  10.321  12.582
34513SOL     OW 5435   3.870   0.995   4.070
34513SOL    HW1 5436   3.825   0.910   4.077
34513SOL    HW2 5437   3.832   1.035   3.991
34514SOL     OW 5438   4.130   3.871   0.139
34514SOL    HW1 5439   4.072   3.902   0.209
34514SOL    HW2 5440   4.208   3.841   0.183
34515SOL     OW 5441   4.059  12.104  11.031
34515SOL    HW1 5442   3.975  12.149  11.037
34515SOL    HW2 5443   4.049  12.028  11.089
34516SOL     OW 5444   7.426   3.283  14.576
34516SOL    HW1 5445   7.417   3.263  14.669
34516SOL    HW2 5446   7.502   3.341  14.571
34517SOL     OW 5447  12.225  10.051   0.842
34517SOL    HW1 5448  12.271  10.107   0.779
34517SOL    HW2 5449  12.187  10.112   0.905
34518SOL     OW 5450   8.399   9.474   5.798
34518SOL    HW1 5451   8.478   9.484   5.851
34518SOL    HW2 5452   8.390   9.380   5.786
34519SOL     OW 5453   2.202   9.107   8.727
34519SOL    HW1 5454   2.285   9.060   8.734
34519SOL    HW2 5455   2.227   9.194   8.696
34520SOL     OW 5456   6.489   0.440   1.432
34520SOL    HW1 5457   6.578   0.414   1.454
34520SOL    HW2 5458   6.493   0.535   1.421
34521SOL     OW 5459  11.281  10.441  14.492
34521SOL    HW1 5460  11.256  10.403  14.408
34521SOL    HW2 5461  11.201  10.480  14.525
34522SOL     OW 5462   7.440   2.553  14.712
34522SOL    HW1 5463   7.355   2.511  14.697
34522SOL    HW2 5464   7.451   2.611  14.636
34523SOL     OW 5465  11.222   5.530  10.440
34523SOL    HW1 5466  11.212   5.606  10.496
34523SOL    HW2 5467  11.214   5.564  10.351
34524SOL     OW 5468   2.750  13.489   0.889
34524SOL    HW1 5469   2.773  13.404   0.851
34524SOL    HW2 5470   2.708  13.537   0.818
34525SOL     OW 5471  14.185  12.358   9.376
34525SOL    HW1 5472  14.248  12.310   9.323
34525SOL    HW2 5473  14.136  12.289   9.422
34526SOL     OW 5474  11.712   5.870  12.376
34526SOL    HW1 5475  11.653   5.946  12.371
34526SOL    HW2 5476  11.655   5.795  12.357
34527SOL     OW 5477   4.367  12.325  12.084
34527SOL    HW1 5478   4.302  12.319  12.154
34527SOL    HW2 5479   4.451  12.322  12.130
34528SOL     OW 5480   7.382   3.062   7.971
34528SOL    HW1 5481   7.347   3.040   8.056
34528SOL    HW2 5482   7.439   3.138   7.988
34529SOL     OW 5483   3.325   6.698  14.740
34529SOL    HW1 5484   3.354   6.785  14.767
34529SOL    HW2 5485   3.231   6.699  14.754
34530SOL     OW 5486   7.219   8.548   6.508
34530SOL    HW1 5487   7.252   8.629   6.469
34530SOL    HW2 5488   7.150   8.520   6.448
34531SOL     OW 5489   6.192   5.588   6.213
34531SOL    HW1 5490   6.156   5.573   6.125
34531SOL    HW2 5491   6.282   5.617   6.198
34532SOL     OW 5492  14.809   9.471  12.901
34532SOL    HW1 5493  14.811   9.440  12.811
34532SOL    HW2 5494   0.020   9.468  12.930
34533SOL     OW 5495   5.988  12.653   7.654
34533SOL    HW1 5496   5.963  12.745   7.650
34533SOL    HW2 5497   6.083  12.655   7.661
34534SOL     OW 5498  11.779  11.242   9.361
34534SOL    HW1 5499  11.735  11.158   9.366
34534SOL    HW2 5500  11.715  11.301   9.321
34535SOL     OW 5501  12.586  12.503   8.264
34535SOL    HW1 5502  12.670  12.543   8.240
34535SOL    HW2 5503  12.610  12.432   8.323
34536SOL     OW 5504  10.128  11.621   9.319
34536SOL    HW1 5505  10.119  11.574   9.236
34536SOL    HW2 5506  10.097  11.560   9.386
34537SOL     OW 5507   9.972  10.043   8.698
34537SOL    HW1 5508   9.903  10.020   8.760
34537SOL    HW2 5509  10.020   9.961   8.684
34538SOL     OW 5510   1.445   5.941  10.076
34538SOL    HW1 5511   1.515   5.897  10.124
34538SOL    HW2 5512   1.392   5.983  10.143
34539SOL     OW 5513  11.356   6.714   5.795
34539SOL    HW1 5514  11.421   6.765   5.844
34539SOL    HW2 5515  11.393   6.706   5.707
34540SOL     OW 5516   1.710   8.553   9.056
34540SOL    HW1 5517   1.706   8.528   9.148
34540SOL    HW2 5518   1.794   8.599   9.047
34541SOL     OW 5519   3.023  13.283  14.775
34541SOL    HW1 5520   3.002  13.299  14.867
34541SOL    HW2 5521   3.003  13.365  14.731
34542SOL     OW 5522  14.041  11.243   3.171
34542SOL    HW1 5523  14.069  11.282   3.089
34542SOL    HW2 5524  14.016  11.153   3.148
34543SOL     OW 5525  10.297  13.359  13.770
34543SOL    HW1 5526  10.237  13.356  13.696
34543SOL    HW2 5527  10.243  13.332  13.845
34544SOL     OW 5528   5.243   8.747  11.351
34544SOL    HW1 5529   5.169   8.788  11.395
34544SOL    HW2 5530   5.320   8.794  11.385
34545SOL     OW 5531   1.419   5.454   5.407
34545SOL    HW1 5532   1.431   5.441   5.502
34545SOL    HW2 5533   1.360   5.528   5.400
34546SOL     OW 5534   1.428   7.726   0.156
34546SOL    HW1 5535   1.391   7.785   0.091
34546SOL    HW2 5536   1.397   7.760   0.240
34547SOL     OW 5537   8.310   1.538  12.670
34547SOL    HW1 5538   8.340   1.538  12.761
34547SOL    HW2 5539   8.301   1.446  12.646
34548SOL     OW 5540   9.755   0.995  13.382
34548SOL    HW1 5541   9.784   0.972  13.294
34548SOL    HW2 5542   9.690   1.064  13.369
34549SOL     OW 5543  10.469  11.464  12.009
34549SOL    HW1 5544  10.522  11.518  11.951
34549SOL    HW2 5545  10.496  11.374  11.989
34550SOL     OW 5546  11.719   7.775  12.029
34550SOL    HW1 5547  11.658   7.821  12.086
34550SOL    HW2 5548  11.773   7.845  11.990
34551SOL     OW 5549  11.127   0.784  11.244
34551SOL    HW1 5550  11.110   0.873  11.212
34551SOL    HW2 5551  11.054   0.732  11.211
34552SOL     OW 5552   5.146  10.143  14.458
34552SOL    HW1 5553   5.166  10.222  14.407
34552SOL    HW2 5554   5.059  10.161  14.495
34553SOL     OW 5555  14.315   0.496   9.824
34553SOL    HW1 5556  14.337   0.421   9.879
34553SOL    HW2 5557  14.298   0.459   9.738
34554SOL     OW 5558   2.464   1.988   0.931
34554SOL    HW1 5559   2.404   2.004   0.857
34554SOL    HW2 5560   2.543   1.953   0.890
34555SOL     OW 5561   5.784  11.317   5.548
34555SOL    HW1 5562   5.733  11.237   5.538
34555SOL    HW2 5563   5.722  11.388   5.531
34556SOL     OW 5564   9.481   8.940  14.623
34556SOL    HW1 5565   9.522   8.893  14.550
34556SOL    HW2 5566   9.387   8.936  14.605
34557SOL     OW 5567   6.951  12.891  13.403
34557SOL    HW1 5568   6.975  12.801  13.381
34557SOL    HW2 5569   6.880  12.913  13.342
34558SOL     OW 5570  14.566  12.361   5.156
34558SOL    HW1 5571  14.504  12.295   5.186
34558SOL    HW2 5572  14.533  12.389   5.070
34559SOL     OW 5573  12.119   0.126  12.550
34559SOL    HW1 5574  12.105   0.195  12.485
34559SOL    HW2 5575  12.032   0.092  12.569
34560SOL     OW 5576   6.195   4.162  12.845
34560SOL    HW1 5577   6.129   4.213  12.799
34560SOL    HW2 5578   6.187   4.074  12.808
34561SOL     OW 5579   8.250   5.134   4.188
34561SOL    HW1 5580   8.296   5.071   4.133
34561SOL    HW2 5581   8.193   5.082   4.244
34562SOL     OW 5582   1.658   2.938  11.883
34562SOL    HW1 5583   1.619   2.886  11.813
34562SOL    HW2 5584   1.683   3.020  11.841
34563SOL     OW 5585   3.321  10.877   7.529
34563SOL    HW1 5586   3.366  10.861   7.612
34563SOL    HW2 5587   3.251  10.938   7.551
34564SOL     OW 5588   4.057  13.303   0.661
34564SOL    HW1 5589   4.092  13.386   0.628
34564SOL    HW2 5590   4.060  13.244   0.586
34565SOL     OW 5591   6.907   2.020   0.855
34565SOL    HW1 5592   6.977   2.045   0.794
34565SOL    HW2 5593   6.849   2.097   0.858
34566SOL     OW 5594   1.772   0.755   5.648
34566SOL    HW1 5595   1.804   0.835   5.690
34566SOL    HW2 5596   1.684   0.777   5.618
34567SOL     OW 5597   1.927   5.598   8.901
34567SOL    HW1 5598   1.836   5.629   8.896
34567SOL    HW2 5599   1.979   5.677   8.915
34568SOL     OW 5600   2.394   3.548   5.034
34568SOL    HW1 5601   2.399   3.466   5.081
34568SOL    HW2 5602   2.315   3.591   5.068
34569SOL     OW 5603   3.380   5.203   9.200
34569SOL    HW1 5604   3.309   5.162   9.152
34569SOL    HW2 5605   3.460   5.172   9.156
34570SOL     OW 5606  10.274   4.290  10.524
34570SOL    HW1 5607  10.228   4.242  10.455
34570SOL    HW2 5608  10.209   4.350  10.559
34571SOL     OW 5609   3.586   4.766  12.599
34571SOL    HW1 5610   3.517   4.830  12.616
34571SOL    HW2 5611   3.667   4.810  12.626
34572SOL     OW 5612  10.761  10.738   6.338
34572SOL    HW1 5613  10.730  10.696   6.259
34572SOL    HW2 5614  10.720  10.690   6.410
34573SOL     OW 5615   1.179   6.237   0.994
34573SOL    HW1 5616   1.196   6.306   1.058
34573SOL    HW2 5617   1.258   6.183   0.995
34574SOL     OW 5618   0.547   5.741   6.289
34574SOL    HW1 5619   0.499   5.680   6.345
34574SOL    HW2 5620   0.486   5.761   6.218
34575SOL     OW 5621  14.131  11.548   7.281
34575SOL    HW1 5622  14.116  11.473   7.223
34575SOL    HW2 5623  14.164  11.509   7.362
34576SOL     OW 5624   9.885   4.404   0.612
34576SOL    HW1 5625   9.846   4.490   0.593
34576SOL    HW2 5626   9.939   4.384   0.535
34577SOL     OW 5627  14.709  13.009  13.906
34577SOL    HW1 5628  14.732  13.100  13.887
34577SOL    HW2 5629  14.613  13.010  13.913
34578SOL     OW 5630  12.807   7.990  14.222
34578SOL    HW1 5631  12.795   8.079  14.189
34578SOL    HW2 5632  12.896   7.989  14.256
34579SOL     OW 5633  10.707  10.952  10.512
34579SOL    HW1 5634  10.671  10.897  10.442
34579SOL    HW2 5635  10.675  10.913  10.593
34580SOL     OW 5636   4.034  11.531  11.537
34580SOL    HW1 5637   4.012  11.469  11.606
34580SOL    HW2 5638   3.955  11.584  11.525
34581SOL     OW 5639   5.145   2.046   3.452
34581SOL    HW1 5640   5.059   2.003   3.446
34581SOL    HW2 5641   5.141   2.116   3.387
34582SOL     OW 5642  10.521  10.564  12.075
34582SOL    HW1 5643  10.537  10.595  12.164
34582SOL    HW2 5644  10.534  10.642  12.021
34583SOL     OW 5645   1.094   9.514   7.717
34583SOL    HW1 5646   1.054   9.576   7.778
34583SOL    HW2 5647   1.185   9.543   7.709
34584SOL     OW 5648  14.082   2.635  11.848
34584SOL    HW1 5649  14.017   2.640  11.919
34584SOL    HW2 5650  14.150   2.697  11.874
34585SOL     OW 5651   4.959   7.587   4.063
34585SOL    HW1 5652   4.964   7.492   4.057
34585SOL    HW2 5653   5.042   7.618   4.027
34586SOL     OW 5654  10.996   6.895  12.121
34586SOL    HW1 5655  10.970   6.967  12.178
34586SOL    HW2 5656  11.075   6.859  12.162
34587SOL     OW 5657   0.306   0.670   5.655
34587SOL    HW1 5658   0.281   0.728   5.583
34587SOL    HW2 5659   0.372   0.720   5.703
34588SOL     OW 5660  14.639   9.532   1.525
34588SOL    HW1 5661  14.690   9.462   1.484
34588SOL    HW2 5662  14.697   9.568   1.592
34589SOL     OW 5663   7.613  13.265   3.968
34589SOL    HW1 5664   7.534  13.224   3.933
34589SOL    HW2 5665   7.619  13.232   4.058
34590SOL     OW 5666   4.019  14.006   9.512
34590SOL    HW1 5667   4.096  13.950   9.522
34590SOL    HW2 5668   4.031  14.050   9.428
34591SOL     OW 5669   8.111   7.631  11.561
34591SOL    HW1 5670   8.203   7.605  11.555
34591SOL    HW2 5671   8.065   7.549  11.581
34592SOL     OW 5672  10.180   9.620   8.524
34592SOL    HW1 5673  10.165   9.654   8.436
34592SOL    HW2 5674  10.242   9.549   8.513
34593SOL     OW 5675   1.206  10.137   6.742
34593SOL    HW1 5676   1.206  10.201   6.813
34593SOL    HW2 5677   1.293  10.144   6.703
34594SOL     OW 5678  13.252   1.989   5.793
34594SOL    HW1 5679  13.278   1.936   5.868
34594SOL    HW2 5680  13.238   1.925   5.723
34595SOL     OW 5681   3.030   7.177   7.013
34595SOL    HW1 5682   2.974   7.252   7.036
34595SOL    HW2 5683   3.036   7.180   6.918
34596SOL     OW 5684   6.507  13.579  12.588
34596SOL    HW1 5685   6.481  13.559  12.498
34596SOL    HW2 5686   6.451  13.652  12.614
34597SOL     OW 5687   0.681   3.325   7.274
34597SOL    HW1 5688   0.607   3.269   7.251
34597SOL    HW2 5689   0.755   3.265   7.278
34598SOL     OW 5690  12.040  10.189   6.260
34598SOL    HW1 5691  12.050  10.113   6.203
34598SOL    HW2 5692  12.045  10.154   6.349
34599SOL     OW 5693   8.223   4.753   9.783
34599SOL    HW1 5694   8.148   4.779   9.731
34599SOL    HW2 5695   8.276   4.832   9.792
34600SOL     OW 5696  13.903   6.836  12.107
34600SOL    HW1 5697  13.988   6.864  12.074
34600SOL    HW2 5698  13.905   6.857  12.200
34601SOL     OW 5699   2.799   1.077  10.123
34601SOL    HW1 5700   2.799   1.051  10.215
34601SOL    HW2 5701   2.882   1.044  10.088
34602SOL     OW 5702  10.499   3.857   3.024
34602SOL    HW1 5703  10.460   3.856   3.111
34602SOL    HW2 5704  10.543   3.772   3.017
34603SOL     OW 5705   1.592   1.569   3.390
34603SOL    HW1 5706   1.530   1.557   3.318
34603SOL    HW2 5707   1.550   1.527   3.465
34604SOL     OW 5708   2.692   0.613   4.925
34604SOL    HW1 5709   2.640   0.534   4.938
34604SOL    HW2 5710   2.656   0.653   4.846
34605SOL     OW 5711   7.155   4.946   3.633
34605SOL    HW1 5712   7.188   4.867   3.590
34605SOL    HW2 5713   7.151   4.923   3.726
34606SOL     OW 5714  11.793   1.350  10.707
34606SOL    HW1 5715  11.712   1.332  10.754
34606SOL    HW2 5716  11.861   1.354  10.775
34607SOL     OW 5717   6.963   1.343  13.385
34607SOL    HW1 5718   7.036   1.283  13.404
34607SOL    HW2 5719   6.889   1.285  13.366
34608SOL     OW 5720   5.158   1.471   0.530
34608SOL    HW1 5721   5.072   1.446   0.497
34608SOL    HW2 5722   5.201   1.513   0.456
34609SOL     OW 5723   7.491   7.745   2.385
34609SOL    HW1 5724   7.438   7.693   2.325
34609SOL    HW2 5725   7.432   7.765   2.458
34610SOL     OW 5726   1.275   8.979   0.381
34610SOL    HW1 5727   1.207   8.915   0.396
34610SOL    HW2 5728   1.325   8.945   0.306
34611SOL     OW 5729  12.262   9.133   7.164
34611SOL    HW1 5730  12.286   9.101   7.251
34611SOL    HW2 5731  12.183   9.083   7.141
34612SOL     OW 5732   0.033  12.657   6.927
34612SOL    HW1 5733   0.037  12.631   7.019
34612SOL    HW2 5734   0.110  12.712   6.914
34613SOL     OW 5735   3.765   4.853   8.568
34613SOL    HW1 5736   3.775   4.759   8.554
34613SOL    HW2 5737   3.747   4.861   8.662
34614SOL     OW 5738   0.351   1.278   7.336
34614SOL    HW1 5739   0.369   1.249   7.425
34614SOL    HW2 5740   0.431   1.323   7.308
34615SOL     OW 5741   0.749   3.458  10.590
34615SOL    HW1 5742   0.738   3.432  10.498
34615SOL    HW2 5743   0.701   3.392  10.640
34616SOL     OW 5744   3.928   6.146  14.161
34616SOL    HW1 5745   3.853   6.141  14.102
34616SOL    HW2 5746   3.945   6.239  14.172
34617SOL     OW 5747   9.119  14.022   2.520
34617SOL    HW1 5748   9.149  14.031   2.611
34617SOL    HW2 5749   9.194  14.047   2.467
34618SOL     OW 5750   2.918   5.746  12.743
34618SOL    HW1 5751   2.852   5.796  12.695
34618SOL    HW2 5752   2.927   5.665  12.693
34619SOL     OW 5753   0.699   4.882   1.060
34619SOL    HW1 5754   0.634   4.889   1.129
34619SOL    HW2 5755   0.672   4.946   0.994
34620SOL     OW 5756   7.642   3.768   0.074
34620SOL    HW1 5757   7.693   3.735   0.148
34620SOL    HW2 5758   7.644   3.863   0.084
34621SOL     OW 5759   3.127  12.471   5.052
34621SOL    HW1 5760   3.211  12.440   5.020
34621SOL    HW2 5761   3.118  12.432   5.139
34622SOL     OW 5762  14.072   5.570  14.435
34622SOL    HW1 5763  14.093   5.659  14.463
34622SOL    HW2 5764  14.116   5.514  14.499
34623SOL     OW 5765   9.489   2.940  14.338
34623SOL    HW1 5766   9.485   3.009  14.405
34623SOL    HW2 5767   9.508   2.860  14.387
34624SOL     OW 5768   7.377   0.902  11.221
34624SOL    HW1 5769   7.364   0.981  11.167
34624SOL    HW2 5770   7.447   0.854  11.177
34625SOL     OW 5771   9.006  10.146   7.083
34625SOL    HW1 5772   9.093  10.186   7.077
34625SOL    HW2 5773   9.016  10.077   7.148
34626SOL     OW 5774  10.971   5.465   7.952
34626SOL    HW1 5775  10.918   5.411   8.010
34626SOL    HW2 5776  10.987   5.409   7.875
34627SOL     OW 5777  12.457   7.387  12.320
34627SOL    HW1 5778  12.507   7.417  12.244
34627SOL    HW2 5779  12.373   7.359  12.283
34628SOL     OW 5780   7.606   0.843   7.673
34628SOL    HW1 5781   7.557   0.856   7.591
34628SOL    HW2 5782   7.573   0.910   7.732
34629SOL     OW 5783  14.096   3.409  13.101
34629SOL    HW1 5784  14.167   3.468  13.127
34629SOL    HW2 5785  14.068   3.367  13.182
34630SOL     OW 5786   5.357  11.668   0.861
34630SOL    HW1 5787   5.435  11.669   0.805
34630SOL    HW2 5788   5.292  11.718   0.812
34631SOL     OW 5789   8.250  12.009   0.571
34631SOL    HW1 5790   8.336  12.011   0.529
34631SOL    HW2 5791   8.246  12.090   0.621
34632SOL     OW 5792   0.963   1.039   3.431
34632SOL    HW1 5793   0.990   1.005   3.516
34632SOL    HW2 5794   0.918   1.121   3.450
34633SOL     OW 5795  13.584   7.798  14.718
34633SOL    HW1 5796  13.500   7.801  14.672
34633SOL    HW2 5797  13.646   7.766  14.652
34634SOL     OW 5798   3.623   9.439   5.469
34634SOL    HW1 5799   3.640   9.354   5.430
34634SOL    HW2 5800   3.677   9.441   5.548
34635SOL     OW 5801  10.843  14.655   4.836
34635SOL    HW1 5802  10.889  14.591   4.782
34635SOL    HW2 5803  10.904  14.677   4.906
34636SOL     OW 5804  13.110   0.564   4.612
34636SOL    HW1 5805  13.100   0.653   4.646
34636SOL    HW2 5806  13.201   0.540   4.634
34637SOL     OW 5807   1.291   7.311  14.626
34637SOL    HW1 5808   1.257   7.232  14.667
34637SOL    HW2 5809   1.216   7.350  14.582
34638SOL     OW 5810  10.859   6.790  11.552
34638SOL    HW1 5811  10.946   6.773  11.589
34638SOL    HW2 5812  10.803   6.803  11.629
34639SOL     OW 5813   2.684  11.033  10.018
34639SOL    HW1 5814   2.742  10.965   9.984
34639SOL    HW2 5815   2.631  11.059   9.942
34640SOL     OW 5816  10.408  12.662   6.236
34640SOL    HW1 5817  10.490  12.707   6.260
34640SOL    HW2 5818  10.437  12.584   6.189
34641SOL     OW 5819   0.574  11.018  14.214
34641SOL    HW1 5820   0.488  10.983  14.236
34641SOL    HW2 5821   0.589  11.087  14.279
34642SOL     OW 5822   9.753  14.580   1.259
34642SOL    HW1 5823   9.807  14.658   1.245
34642SOL    HW2 5824   9.663  14.611   1.248
34643SOL     OW 5825   7.167   7.607  11.049
34643SOL    HW1 5826   7.262   7.616  11.062
34643SOL    HW2 5827   7.144   7.678  10.989
34644SOL     OW 5828   5.572  14.572   3.505
34644SOL    HW1 5829   5.618  14.495   3.537
34644SOL    HW2 5830   5.615  14.646   3.548
34645SOL     OW 5831   8.383   6.025  13.269
34645SOL    HW1 5832   8.375   5.938  13.308
34645SOL    HW2 5833   8.459   6.063  13.312
34646SOL     OW 5834   9.866   5.616   6.072
34646SOL    HW1 5835   9.827   5.576   6.150
34646SOL    HW2 5836   9.861   5.710   6.089
34647SOL     OW 5837  13.126  10.198  14.096
34647SOL    HW1 5838  13.172  10.240  14.168
34647SOL    HW2 5839  13.186  10.130  14.066
34648SOL     OW 5840   6.253   0.530   9.444
34648SOL    HW1 5841   6.274   0.607   9.392
34648SOL    HW2 5842   6.164   0.506   9.416
34649SOL     OW 5843   6.821   3.064   3.036
34649SOL    HW1 5844   6.789   3.069   3.126
34649SOL    HW2 5845   6.747   3.093   2.982
34650SOL     OW 5846   0.879   8.678   9.892
34650SOL    HW1 5847   0.860   8.606   9.953
34650SOL    HW2 5848   0.866   8.757   9.944
34651SOL     OW 5849   3.233  10.127  12.812
34651SOL    HW1 5850   3.150  10.171  12.832
34651SOL    HW2 5851   3.212  10.065  12.742
34652SOL     OW 5852   8.909   1.102   5.463
34652SOL    HW1 5853   8.893   1.089   5.370
34652SOL    HW2 5854   8.828   1.141   5.496
34653SOL     OW 5855   7.326   0.654  13.147
34653SOL    HW1 5856   7.370   0.686  13.069
34653SOL    HW2 5857   7.236   0.686  13.139
34654SOL     OW 5858   2.042  13.088  12.464
34654SOL    HW1 5859   1.951  13.073  12.438
34654SOL    HW2 5860   2.037  13.161  12.526
34655SOL     OW 5861  14.546   5.029   7.699
34655SOL    HW1 5862  14.491   5.104   7.721
34655SOL    HW2 5863  14.484   4.961   7.674
34656SOL     OW 5864   4.770   1.652  12.504
34656SOL    HW1 5865   4.842   1.713  12.492
34656SOL    HW2 5866   4.795   1.574  12.453
34657SOL     OW 5867   9.282   6.928  13.102
34657SOL    HW1 5868   9.212   6.981  13.140
34657SOL    HW2 5869   9.238   6.847  13.075
34658SOL     OW 5870   8.036   3.563   3.153
34658SOL    HW1 5871   8.111   3.585   3.099
34658SOL    HW2 5872   8.007   3.478   3.120
34659SOL     OW 5873   3.345  12.495  11.928
34659SOL    HW1 5874   3.331  12.511  12.021
34659SOL    HW2 5875   3.413  12.558  11.903
34660SOL     OW 5876  10.272  11.362   3.347
34660SOL    HW1 5877  10.228  11.446   3.338
34660SOL    HW2 5878  10.201  11.299   3.363
34661SOL     OW 5879   5.508   4.217  12.741
34661SOL    HW1 5880   5.501   4.217  12.645
34661SOL    HW2 5881   5.434   4.270  12.770
34662SOL     OW 5882   8.214  11.717  12.319
34662SOL    HW1 5883   8.305  11.745  12.310
34662SOL    HW2 5884   8.163  11.797  12.316
34663SOL     OW 5885   3.990   4.309   9.112
34663SOL    HW1 5886   4.013   4.372   9.180
34663SOL    HW2 5887   3.965   4.230   9.160
34664SOL     OW 5888   5.758  13.349   5.420
34664SOL    HW1 5889   5.804  13.282   5.471
34664SOL    HW2 5890   5.820  13.421   5.411
34665SOL     OW 5891   9.103   1.028  13.591
34665SOL    HW1 5892   9.181   0.989  13.631
34665SOL    HW2 5893   9.129   1.119  13.573
34666SOL     OW 5894   0.605   8.055  12.822
34666SOL    HW1 5895   0.665   8.093  12.886
34666SOL    HW2 5896   0.539   8.123  12.808
34667SOL     OW 5897   4.282  13.646  11.825
34667SOL    HW1 5898   4.275  13.655  11.920
34667SOL    HW2 5899   4.300  13.553  11.811
34668SOL     OW 5900   9.467  11.172   5.007
34668SOL    HW1 5901   9.442  11.082   5.030
34668SOL    HW2 5902   9.384  11.218   4.998
34669SOL     OW 5903  11.263  14.498   8.628
34669SOL    HW1 5904  11.199  14.553   8.672
34669SOL    HW2 5905  11.263  14.528   8.537
34670SOL     OW 5906   3.319  14.616   5.810
34670SOL    HW1 5907   3.282  14.634   5.896
34670SOL    HW2 5908   3.361  14.698   5.784
34671SOL     OW 5909   9.005  13.016  13.961
34671SOL    HW1 5910   8.966  13.089  14.008
34671SOL    HW2 5911   8.946  12.942  13.977
34672SOL     OW 5912   8.927  13.989   6.866
34672SOL    HW1 5913   8.851  13.933   6.878
34672SOL    HW2 5914   8.969  13.992   6.952
34673SOL     OW 5915   4.872   1.504  14.854
34673SOL    HW1 5916   4.830   1.547  14.780
34673SOL    HW2 5917   4.839   1.414  14.851
34674SOL     OW 5918   6.305   4.675   7.276
34674SOL    HW1 5919   6.357   4.599   7.303
34674SOL    HW2 5920   6.293   4.725   7.356
34675SOL     OW 5921  11.823   2.831   0.686
34675SOL    HW1 5922  11.734   2.862   0.704
34675SOL    HW2 5923  11.831   2.835   0.591
34676SOL     OW 5924   4.818   4.515   7.054
34676SOL    HW1 5925   4.732   4.486   7.024
34676SOL    HW2 5926   4.861   4.548   6.975
34677SOL     OW 5927   0.871  13.429   2.145
34677SOL    HW1 5928   0.873  13.523   2.165
34677SOL    HW2 5929   0.925  13.389   2.213
34678SOL     OW 5930   5.119  13.494   2.056
34678SOL    HW1 5931   5.109  13.443   2.136
34678SOL    HW2 5932   5.151  13.432   1.991
34679SOL     OW 5933   9.577  12.196  10.533
34679SOL    HW1 5934   9.570  12.274  10.477
34679SOL    HW2 5935   9.640  12.140  10.488
34680SOL     OW 5936  12.692   9.266   7.652
34680SOL    HW1 5937  12.640   9.230   7.579
34680SOL    HW2 5938  12.757   9.322   7.609
34681SOL     OW 5939   7.133   6.779   9.175
34681SOL    HW1 5940   7.114   6.788   9.082
34681SOL    HW2 5941   7.050   6.797   9.219
34682SOL     OW 5942   7.190   1.839  11.910
34682SOL    HW1 5943   7.142   1.874  11.834
34682SOL    HW2 5944   7.158   1.891  11.984
34683SOL     OW 5945   0.470  13.151   5.875
34683SOL    HW1 5946   0.437  13.115   5.957
34683SOL    HW2 5947   0.427  13.236   5.866
34684SOL     OW 5948   7.631   3.157   1.767
34684SOL    HW1 5949   7.693   3.105   1.715
34684SOL    HW2 5950   7.547   3.144   1.723
34685SOL     OW 5951   9.266  10.225  10.842
34685SOL    HW1 5952   9.347  10.241  10.794
34685SOL    HW2 5953   9.224  10.153  10.796
34686SOL     OW 5954  13.040   8.988   4.529
34686SOL    HW1 5955  13.134   9.008   4.525
34686SOL    HW2 5956  13.036   8.892   4.527
34687SOL     OW 5957   7.337  12.702  14.711
34687SOL    HW1 5958   7.288  12.707  14.793
34687SOL    HW2 5959   7.426  12.681  14.737
34688SOL     OW 5960   0.149   1.759   6.259
34688SOL    HW1 5961   0.057   1.784   6.269
34688SOL    HW2 5962   0.198   1.840   6.278
34689SOL     OW 5963   3.538   0.867   4.369
34689SOL    HW1 5964   3.631   0.887   4.380
34689SOL    HW2 5965   3.499   0.948   4.338
34690SOL     OW 5966   2.353  10.202  13.294
34690SOL    HW1 5967   2.292  10.171  13.360
34690SOL    HW2 5968   2.431  10.228  13.343
34691SOL     OW 5969   9.522   7.435   7.594
34691SOL    HW1 5970   9.427   7.449   7.592
34691SOL    HW2 5971   9.548   7.463   7.682
34692SOL     OW 5972   2.079   6.210  13.125
34692SOL    HW1 5973   2.150   6.262  13.162
34692SOL    HW2 5974   2.010   6.274  13.105
34693SOL     OW 5975   8.709  10.001   2.686
34693SOL    HW1 5976   8.734  10.093   2.671
34693SOL    HW2 5977   8.629  10.007   2.738
34694SOL     OW 5978  11.926   3.903  12.548
34694SOL    HW1 5979  12.013   3.877  12.516
34694SOL    HW2 5980  11.935   3.903  12.643
34695SOL     OW 5981   3.953   5.273  14.839
34695SOL    HW1 5982   4.001   5.254   0.040
34695SOL    HW2 5983   3.866   5.302  14.869
34696SOL     OW 5984   0.460  14.286   3.139
34696SOL    HW1 5985   0.517  14.293   3.216
34696SOL    HW2 5986   0.393  14.353   3.152
34697SOL     OW 5987  13.735   9.739  12.937
34697SOL    HW1 5988  13.780   9.658  12.961
34697SOL    HW2 5989  13.666   9.748  13.002
34698SOL     OW 5990   5.734  10.164   5.358
34698SOL    HW1 5991   5.653  10.117   5.377
34698SOL    HW2 5992   5.801  10.096   5.354
34699SOL     OW 5993  12.505   4.672  11.611
34699SOL    HW1 5994  12.584   4.711  11.647
34699SOL    HW2 5995  12.438   4.740  11.619
34700SOL     OW 5996   7.464   2.613  11.602
34700SOL    HW1 5997   7.401   2.565  11.655
34700SOL    HW2 5998   7.536   2.551  11.588
34701SOL     OW 5999   6.505  12.637  12.579
34701SOL    HW1 6000   6.487  12.547  12.605
34701SOL    HW2 6001   6.600  12.643  12.577
34702SOL     OW 6002   5.505   2.763   9.436
34702SOL    HW1 6003   5.554   2.822   9.379
34702SOL    HW2 6004   5.420   2.804   9.446
34703SOL     OW 6005   2.641   5.716   0.392
34703SOL    HW1 6006   2.648   5.810   0.411
34703SOL    HW2 6007   2.731   5.689   0.375
34704SOL     OW 6008   0.103   2.015   8.488
34704SOL    HW1 6009   0.116   2.046   8.398
34704SOL    HW2 6010   0.036   2.073   8.524
34705SOL     OW 6011   2.317  14.777   2.163
34705SOL    HW1 6012   2.393  14.768   2.220
34705SOL    HW2 6013   2.286  14.866   2.177
34706SOL     OW 6014  14.843  10.536   3.981
34706SOL    HW1 6015   0.032  10.570   3.923
34706SOL    HW2 6016  14.773  10.509   3.922
34707SOL     OW 6017  10.563   6.059   3.063
34707SOL    HW1 6018  10.553   5.965   3.078
34707SOL    HW2 6019  10.649   6.081   3.098
34708SOL     OW 6020   3.325   4.110  10.334
34708SOL    HW1 6021   3.357   4.164  10.406
34708SOL    HW2 6022   3.297   4.028  10.376
34709SOL     OW 6023  12.677   2.594   0.618
34709SOL    HW1 6024  12.603   2.621   0.673
34709SOL    HW2 6025  12.641   2.588   0.530
34710SOL     OW 6026   9.868  14.501  13.283
34710SOL    HW1 6027   9.890  14.434  13.349
34710SOL    HW2 6028   9.783  14.535  13.312
34711SOL     OW 6029  12.415  11.969   2.404
34711SOL    HW1 6030  12.408  11.990   2.497
34711SOL    HW2 6031  12.508  11.951   2.390
34712SOL     OW 6032   3.310  11.598   6.139
34712SOL    HW1 6033   3.295  11.505   6.154
34712SOL    HW2 6034   3.369  11.602   6.064
34713SOL     OW 6035   8.590   5.047   0.795
34713SOL    HW1 6036   8.497   5.053   0.815
34713SOL    HW2 6037   8.612   5.131   0.756
34714SOL     OW 6038  11.875   2.933   4.396
34714SOL    HW1 6039  11.919   2.898   4.318
34714SOL    HW2 6040  11.936   2.998   4.431
34715SOL     OW 6041   0.807  11.905   1.328
34715SOL    HW1 6042   0.819  11.811   1.314
34715SOL    HW2 6043   0.712  11.917   1.329
34716SOL     OW 6044  10.878   8.901   2.292
34716SOL    HW1 6045  10.925   8.857   2.222
34716SOL    HW2 6046  10.818   8.835   2.326
34717SOL     OW 6047   6.826   3.205  11.654
34717SOL    HW1 6048   6.768   3.170  11.586
34717SOL    HW2 6049   6.909   3.220  11.609
34718SOL     OW 6050  11.236   9.537  14.666
34718SOL    HW1 6051  11.227   9.632  14.667
34718SOL    HW2 6052  11.289   9.517  14.743
34719SOL     OW 6053   1.202  10.264  14.176
34719SOL    HW1 6054   1.194  10.336  14.113
34719SOL    HW2 6055   1.240  10.305  14.254
34720SOL     OW 6056   6.004   7.634   7.371
34720SOL    HW1 6057   6.090   7.611   7.334
34720SOL    HW2 6058   5.995   7.577   7.447
34721SOL     OW 6059  10.687   5.006   7.447
34721SOL    HW1 6060  10.624   4.934   7.449
34721SOL    HW2 6061  10.762   4.971   7.398
34722SOL     OW 6062  11.853   2.239   4.044
34722SOL    HW1 6063  11.800   2.254   4.122
34722SOL    HW2 6064  11.789   2.220   3.975
34723SOL     OW 6065   9.679  10.672  10.911
34723SOL    HW1 6066   9.628  10.731  10.857
34723SOL    HW2 6067   9.767  10.709  10.911
34724SOL     OW 6068  12.150   2.941   6.604
34724SOL    HW1 6069  12.122   2.851   6.621
34724SOL    HW2 6070  12.241   2.944   6.633
34725SOL     OW 6071   3.965   2.005   5.675
34725SOL    HW1 6072   3.891   1.980   5.620
34725SOL    HW2 6073   3.934   2.081   5.725
34726SOL     OW 6074   9.528   2.133   3.339
34726SOL    HW1 6075   9.460   2.186   3.297
34726SOL    HW2 6076   9.508   2.137   3.432
34727SOL     OW 6077   4.358   4.892   1.871
34727SOL    HW1 6078   4.281   4.947   1.881
34727SOL    HW2 6079   4.352   4.828   1.942
34728SOL     OW 6080  12.410   2.411  11.886
34728SOL    HW1 6081  12.461   2.492  11.890
34728SOL    HW2 6082  12.474   2.341  11.898
34729SOL     OW 6083   1.115  11.821   1.820
34729SOL    HW1 6084   1.080  11.887   1.880
34729SOL    HW2 6085   1.093  11.738   1.862
34730SOL     OW 6086   3.664  14.212   3.378
34730SOL    HW1 6087   3.729  14.148   3.407
34730SOL    HW2 6088   3.600  14.215   3.448
34731SOL     OW 6089   8.619   4.832   9.460
34731SOL    HW1 6090   8.672   4.911   9.448
34731SOL    HW2 6091   8.681   4.766   9.492
34732SOL     OW 6092  12.784   9.759   5.673
34732SOL    HW1 6093  12.816   9.775   5.584
34732SOL    HW2 6094  12.854   9.791   5.729
34733SOL     OW 6095   6.738   6.104  11.075
34733SOL    HW1 6096   6.647   6.114  11.102
34733SOL    HW2 6097   6.784   6.176  11.117
34734SOL     OW 6098   5.385  10.029  13.383
34734SOL    HW1 6099   5.472  10.033  13.423
34734SOL    HW2 6100   5.402  10.012  13.290
34735SOL     OW 6101   1.878   9.996  10.657
34735SOL    HW1 6102   1.931   9.974  10.581
34735SOL    HW2 6103   1.910   9.939  10.727
34736SOL     OW 6104   2.208   4.793  11.097
34736SOL    HW1 6105   2.174   4.871  11.142
34736SOL    HW2 6106   2.290   4.774  11.142
34737SOL     OW 6107  14.214   7.835   4.057
34737SOL    HW1 6108  14.194   7.743   4.039
34737SOL    HW2 6109  14.268   7.862   3.983
34738SOL     OW 6110   5.674   6.944  12.736
34738SOL    HW1 6111   5.738   6.881  12.702
34738SOL    HW2 6112   5.602   6.941  12.672
34739SOL     OW 6113   8.960  14.869  13.316
34739SOL    HW1 6114   8.900  14.846  13.387
34739SOL    HW2 6115   9.000  14.785  13.291
34740SOL     OW 6116   1.343  14.379   2.227
34740SOL    HW1 6117   1.362  14.322   2.153
34740SOL    HW2 6118   1.253  14.407   2.214
34741SOL     OW 6119   8.100   4.955  12.418
34741SOL    HW1 6120   8.084   4.955  12.324
34741SOL    HW2 6121   8.019   4.991  12.456
34742SOL     OW 6122   7.879   8.853  10.506
34742SOL    HW1 6123   7.894   8.881  10.596
34742SOL    HW2 6124   7.930   8.914  10.453
34743SOL     OW 6125  14.801   8.834   0.106
34743SOL    HW1 6126  14.779   8.850   0.197
34743SOL    HW2 6127  14.742   8.763   0.079
34744SOL     OW 6128   3.596  10.009   6.822
34744SOL    HW1 6129   3.615   9.990   6.914
34744SOL    HW2 6130   3.609  10.103   6.813
34745SOL     OW 6131  12.070   0.067   2.514
34745SOL    HW1 6132  12.051   0.080   2.607
34745SOL    HW2 6133  12.035   0.146   2.472
34746SOL     OW 6134  13.244  13.883   8.510
34746SOL    HW1 6135  13.159  13.849   8.538
34746SOL    HW2 6136  13.308  13.836   8.564
34747SOL     OW 6137   5.953   3.085  10.637
34747SOL    HW1 6138   5.900   3.007  10.618
34747SOL    HW2 6139   6.038   3.065  10.598
34748SOL     OW 6140   9.235  14.684   4.908
34748SOL    HW1 6141   9.293  14.653   4.838
34748SOL    HW2 6142   9.273  14.768   4.934
34749SOL     OW 6143   8.069   0.872  11.960
34749SOL    HW1 6144   8.033   0.952  11.922
34749SOL    HW2 6145   8.144   0.850  11.904
34750SOL     OW 6146  14.735  10.832   8.625
34750SOL    HW1 6147  14.785  10.842   8.706
34750SOL    HW2 6148  14.800  10.804   8.560
34751SOL     OW 6149   8.388   8.157   0.138
34751SOL    HW1 6150   8.351   8.235   0.177
34751SOL    HW2 6151   8.369   8.165   0.044
34752SOL     OW 6152   7.295   2.787  10.750
34752SOL    HW1 6153   7.281   2.882  10.750
34752SOL    HW2 6154   7.379   2.776  10.705
34753SOL     OW 6155   5.931  12.849   5.832
34753SOL    HW1 6156   5.967  12.811   5.912
34753SOL    HW2 6157   5.987  12.924   5.813
34754SOL     OW 6158  13.956  13.758  10.257
34754SOL    HW1 6159  14.024  13.749  10.323
34754SOL    HW2 6160  13.879  13.787  10.306
34755SOL     OW 6161  12.904  12.810   1.992
34755SOL    HW1 6162  12.996  12.820   1.970
34755SOL    HW2 6163  12.904  12.760   2.074
34756SOL     OW 6164   0.240   3.750   2.866
34756SOL    HW1 6165   0.334   3.766   2.855
34756SOL    HW2 6166   0.200   3.784   2.787
34757SOL     OW 6167   8.219  13.255   2.829
34757SOL    HW1 6168   8.135  13.299   2.835
34757SOL    HW2 6169   8.209  13.176   2.883
34758SOL     OW 6170   9.585  11.231  11.135
34758SOL    HW1 6171   9.616  11.313  11.173
34758SOL    HW2 6172   9.548  11.183  11.209
34759SOL     OW 6173   0.765   9.877  11.681
34759SOL    HW1 6174   0.778   9.796  11.632
34759SOL    HW2 6175   0.798   9.857  11.769
34760SOL     OW 6176   8.692  11.023   9.079
34760SOL    HW1 6177   8.773  11.001   9.125
34760SOL    HW2 6178   8.654  10.938   9.055
34761SOL     OW 6179   5.980   9.332   9.261
34761SOL    HW1 6180   5.906   9.274   9.277
34761SOL    HW2 6181   6.055   9.285   9.297
34762SOL     OW 6182  12.327   4.899  14.039
34762SOL    HW1 6183  12.368   4.985  14.031
34762SOL    HW2 6184  12.289   4.882  13.952
34763SOL     OW 6185   3.093   1.739   4.214
34763SOL    HW1 6186   3.054   1.658   4.244
34763SOL    HW2 6187   3.127   1.719   4.126
34764SOL     OW 6188   3.240   3.312  12.029
34764SOL    HW1 6189   3.333   3.302  12.007
34764SOL    HW2 6190   3.221   3.404  12.010
34765SOL     OW 6191   7.774   4.527   4.769
34765SOL    HW1 6192   7.773   4.467   4.694
34765SOL    HW2 6193   7.712   4.488   4.832
34766SOL     OW 6194   6.186  14.416   1.612
34766SOL    HW1 6195   6.129  14.357   1.662
34766SOL    HW2 6196   6.129  14.485   1.582
34767SOL     OW 6197   7.199   5.399   7.014
34767SOL    HW1 6198   7.204   5.487   6.977
34767SOL    HW2 6199   7.120   5.361   6.977
34768SOL     OW 6200  11.263   5.256   1.003
34768SOL    HW1 6201  11.233   5.189   0.942
34768SOL    HW2 6202  11.214   5.239   1.083
34769SOL     OW 6203   5.352  12.830   3.984
34769SOL    HW1 6204   5.364  12.809   4.076
34769SOL    HW2 6205   5.415  12.900   3.966
34770SOL     OW 6206   6.549   3.098   6.008
34770SOL    HW1 6207   6.575   3.148   6.086
34770SOL    HW2 6208   6.567   3.007   6.030
34771SOL     OW 6209  14.839   0.431   6.136
34771SOL    HW1 6210  14.838   0.412   6.042
34771SOL    HW2 6211  14.856   0.346   6.177
34772SOL     OW 6212   4.556   2.555   3.226
34772SOL    HW1 6213   4.605   2.636   3.217
34772SOL    HW2 6214   4.525   2.535   3.137
34773SOL     OW 6215   3.815  10.847   5.904
34773SOL    HW1 6216   3.809  10.942   5.898
34773SOL    HW2 6217   3.836  10.830   5.996
34774SOL     OW 6218   3.173  11.470   2.708
34774SOL    HW1 6219   3.257  11.465   2.754
34774SOL    HW2 6220   3.139  11.557   2.730
34775SOL     OW 6221   1.578   3.407   6.378
34775SOL    HW1 6222   1.645   3.352   6.418
34775SOL    HW2 6223   1.538   3.453   6.452
34776SOL     OW 6224   4.429   4.162   9.013
34776SOL    HW1 6225   4.454   4.236   8.958
34776SOL    HW2 6226   4.334   4.153   9.000
34777SOL     OW 6227   2.285   7.747  13.854
34777SOL    HW1 6228   2.302   7.787  13.939
34777SOL    HW2 6229   2.320   7.658  13.862
34778SOL     OW 6230   9.829   1.738   0.684
34778SOL    HW1 6231   9.890   1.693   0.625
34778SOL    HW2 6232   9.763   1.672   0.705
34779SOL     OW 6233  10.654  13.184  14.250
34779SOL    HW1 6234  10.633  13.106  14.200
34779SOL    HW2 6235  10.728  13.158  14.305
34780SOL     OW 6236   6.050   6.583   8.581
34780SOL    HW1 6237   6.057   6.603   8.675
34780SOL    HW2 6238   6.137   6.553   8.556
34781SOL     OW 6239  11.397  13.049  11.964
34781SOL    HW1 6240  11.381  13.089  11.879
34781SOL    HW2 6241  11.467  12.985  11.949
34782SOL     OW 6242   7.517  10.958  14.430
34782SOL    HW1 6243   7.432  10.949  14.388
34782SOL    HW2 6244   7.537  10.870  14.463
34783SOL     OW 6245  11.195   3.172  14.578
34783SOL    HW1 6246  11.163   3.124  14.502
34783SOL    HW2 6247  11.222   3.105  14.640
34784SOL     OW 6248   6.614  10.530   9.553
34784SOL    HW1 6249   6.666  10.510   9.475
34784SOL    HW2 6250   6.644  10.466   9.618
34785SOL     OW 6251   6.238   3.128   2.147
34785SOL    HW1 6252   6.302   3.064   2.178
34785SOL    HW2 6253   6.163   3.076   2.118
34786SOL     OW 6254   5.180   4.934   0.222
34786SOL    HW1 6255   5.156   4.984   0.300
34786SOL    HW2 6256   5.270   4.959   0.204
34787SOL     OW 6257  11.135   9.905   1.510
34787SOL    HW1 6258  11.112   9.821   1.471
34787SOL    HW2 6259  11.173   9.955   1.437
34788SOL     OW 6260   0.957   7.711   5.439
34788SOL    HW1 6261   0.937   7.765   5.516
34788SOL    HW2 6262   0.874   7.666   5.419
34789SOL     OW 6263   0.607   2.955   7.406
34789SOL    HW1 6264   0.613   3.003   7.489
34789SOL    HW2 6265   0.691   2.972   7.363
34790SOL     OW 6266  14.436   7.012   3.576
34790SOL    HW1 6267  14.462   7.041   3.489
34790SOL    HW2 6268  14.515   7.020   3.629
34791SOL     OW 6269  14.643  11.153   4.589
34791SOL    HW1 6270  14.674  11.244   4.592
34791SOL    HW2 6271  14.556  11.156   4.630
34792SOL     OW 6272  10.207   9.824   6.410
34792SOL    HW1 6273  10.211   9.809   6.505
34792SOL    HW2 6274  10.121   9.790   6.385
34793SOL     OW 6275   5.552   9.641   6.901
34793SOL    HW1 6276   5.542   9.551   6.869
34793SOL    HW2 6277   5.570   9.631   6.995
34794SOL     OW 6278  13.314  12.561   8.388
34794SOL    HW1 6279  13.322  12.478   8.341
34794SOL    HW2 6280  13.305  12.626   8.319
34795SOL     OW 6281  11.291   7.798  13.234
34795SOL    HW1 6282  11.276   7.747  13.154
34795SOL    HW2 6283  11.303   7.733  13.303
34796SOL     OW 6284  11.872  12.748   4.530
34796SOL    HW1 6285  11.839  12.812   4.468
34796SOL    HW2 6286  11.818  12.670   4.516
34797SOL     OW 6287  12.920   7.066   3.874
34797SOL    HW1 6288  12.925   7.125   3.799
34797SOL    HW2 6289  12.831   7.031   3.873
34798SOL     OW 6290  10.133   2.639  11.820
34798SOL    HW1 6291  10.228   2.644  11.806
34798SOL    HW2 6292  10.113   2.546  11.814
34799SOL     OW 6293   8.022   3.238   1.246
34799SOL    HW1 6294   7.979   3.184   1.312
34799SOL    HW2 6295   8.014   3.188   1.165
34800SOL     OW 6296   5.876   5.283  14.536
34800SOL    HW1 6297   5.918   5.201  14.562
34800SOL    HW2 6298   5.917   5.306  14.452
34801SOL     OW 6299   7.081   6.623  13.769
34801SOL    HW1 6300   7.165   6.613  13.723
34801SOL    HW2 6301   7.079   6.715  13.795
34802SOL     OW 6302  11.155  12.408   0.369
34802SOL    HW1 6303  11.104  12.468   0.314
34802SOL    HW2 6304  11.172  12.332   0.312
34803SOL     OW 6305   7.267  11.157   3.510
34803SOL    HW1 6306   7.178  11.190   3.502
34803SOL    HW2 6307   7.302  11.199   3.589
34804SOL     OW 6308  13.174   5.741   6.799
34804SOL    HW1 6309  13.221   5.820   6.827
34804SOL    HW2 6310  13.179   5.744   6.703
34805SOL     OW 6311   2.147   8.592   3.026
34805SOL    HW1 6312   2.075   8.617   3.084
34805SOL    HW2 6313   2.186   8.675   2.999
34806SOL     OW 6314  10.928   7.131   1.897
34806SOL    HW1 6315  10.913   7.154   1.805
34806SOL    HW2 6316  10.945   7.215   1.940
34807SOL     OW 6317   0.977   8.107   4.048
34807SOL    HW1 6318   0.934   8.052   4.114
34807SOL    HW2 6319   1.039   8.161   4.098
34808SOL     OW 6320   8.603  11.297  12.516
34808SOL    HW1 6321   8.697  11.298  12.530
34808SOL    HW2 6322   8.567  11.268  12.600
34809SOL     OW 6323   7.909   8.457   4.741
34809SOL    HW1 6324   7.914   8.417   4.828
34809SOL    HW2 6325   7.945   8.391   4.682
34810SOL     OW 6326   5.845   0.162  13.618
34810SOL    HW1 6327   5.806   0.238  13.575
34810SOL    HW2 6328   5.927   0.195  13.656
34811SOL     OW 6329  11.617   5.294   2.735
34811SOL    HW1 6330  11.698   5.278   2.783
34811SOL    HW2 6331  11.643   5.348   2.660
34812SOL     OW 6332   9.491   6.379   0.561
34812SOL    HW1 6333   9.425   6.399   0.628
34812SOL    HW2 6334   9.569   6.427   0.589
34813SOL     OW 6335   7.495   9.099   5.164
34813SOL    HW1 6336   7.479   9.060   5.078
34813SOL    HW2 6337   7.531   9.027   5.216
34814SOL     OW 6338   3.376   8.809   1.967
34814SOL    HW1 6339   3.440   8.797   2.037
34814SOL    HW2 6340   3.293   8.780   2.005
34815SOL     OW 6341  14.214  12.687  11.060
34815SOL    HW1 6342  14.159  12.634  11.116
34815SOL    HW2 6343  14.154  12.726  10.997
34816SOL     OW 6344   2.498   7.225   1.541
34816SOL    HW1 6345   2.580   7.271   1.524
34816SOL    HW2 6346   2.522   7.132   1.542
34817SOL     OW 6347  13.642  10.696  13.341
34817SOL    HW1 6348  13.673  10.659  13.423
34817SOL    HW2 6349  13.632  10.789  13.358
34818SOL     OW 6350   6.585  13.411  11.152
34818SOL    HW1 6351   6.549  13.500  11.145
34818SOL    HW2 6352   6.523  13.356  11.104
34819SOL     OW 6353  13.264  12.394   7.744
34819SOL    HW1 6354  13.358  12.377   7.752
34819SOL    HW2 6355  13.257  12.489   7.739
34820SOL     OW 6356  10.129   6.533   1.464
34820SOL    HW1 6357  10.204   6.520   1.523
34820SOL    HW2 6358  10.056   6.554   1.522
34821SOL     OW 6359   1.291   4.913   2.611
34821SOL    HW1 6360   1.316   4.866   2.532
34821SOL    HW2 6361   1.201   4.884   2.628
34822SOL     OW 6362   1.556   6.134  13.678
34822SOL    HW1 6363   1.569   6.146  13.772
34822SOL    HW2 6364   1.469   6.095  13.671
34823SOL     OW 6365   9.943   6.489  14.866
34823SOL    HW1 6366   9.864   6.497   0.040
34823SOL    HW2 6367   9.915   6.517  14.778
34824SOL     OW 6368   3.397  13.202   6.456
34824SOL    HW1 6369   3.438  13.162   6.380
34824SOL    HW2 6370   3.470  13.241   6.504
34825SOL     OW 6371  12.109   8.345  13.966
34825SOL    HW1 6372  12.050   8.370  13.894
34825SOL    HW2 6373  12.188   8.313  13.922
34826SOL     OW 6374   4.531   3.188  11.979
34826SOL    HW1 6375   4.624   3.210  11.990
34826SOL    HW2 6376   4.484   3.266  12.007
34827SOL     OW 6377   1.720   9.050  14.314
34827SOL    HW1 6378   1.706   8.959  14.343
34827SOL    HW2 6379   1.767   9.041  14.231
34828SOL     OW 6380   7.893   2.220   2.222
34828SOL    HW1 6381   7.923   2.309   2.205
34828SOL    HW2 6382   7.808   2.231   2.264
34829SOL     OW 6383  13.451  11.439  13.742
34829SOL    HW1 6384  13.424  11.384  13.816
34829SOL    HW2 6385  13.442  11.529  13.773
34830SOL     OW 6386  13.882   1.758   8.716
34830SOL    HW1 6387  13.790   1.782   8.730
34830SOL    HW2 6388  13.906   1.805   8.636
34831SOL     OW 6389   4.016   7.567   5.388
34831SOL    HW1 6390   3.938   7.615   5.359
34831SOL    HW2 6391   4.083   7.634   5.398
34832SOL     OW 6392  12.709  12.369  13.319
34832SOL    HW1 6393  12.740  12.279  13.331
34832SOL    HW2 6394  12.780  12.413  13.273
34833SOL     OW 6395  10.055  12.652   4.573
34833SOL    HW1 6396  10.094  12.568   4.550
34833SOL    HW2 6397  10.102  12.681   4.651
34834SOL     OW 6398  14.454   9.409  12.261
34834SOL    HW1 6399  14.492   9.494  12.280
34834SOL    HW2 6400  14.527   9.356  12.228
34835SOL     OW 6401   3.140   7.048   3.012
34835SOL    HW1 6402   3.208   7.075   2.950
34835SOL    HW2 6403   3.137   7.119   3.077
34836SOL     OW 6404   2.205   8.852  11.700
34836SOL    HW1 6405   2.233   8.866  11.610
34836SOL    HW2 6406   2.251   8.772  11.727
34837SOL     OW 6407   8.839  12.484  11.118
34837SOL    HW1 6408   8.757  12.447  11.151
34837SOL    HW2 6409   8.869  12.420  11.053
34838SOL     OW 6410   4.789  11.194   9.379
34838SOL    HW1 6411   4.754  11.190   9.468
34838SOL    HW2 6412   4.747  11.271   9.340
34839SOL     OW 6413   4.679   4.401  12.458
34839SOL    HW1 6414   4.644   4.315  12.434
34839SOL    HW2 6415   4.770   4.399  12.429
34840SOL     OW 6416  12.571   3.704   8.824
34840SOL    HW1 6417  12.532   3.738   8.743
34840SOL    HW2 6418  12.651   3.660   8.795
34841SOL     OW 6419  13.769  14.489   0.261
34841SOL    HW1 6420  13.705  14.491   0.190
34841SOL    HW2 6421  13.807  14.401   0.257
34842SOL     OW 6422   8.744   8.206  12.270
34842SOL    HW1 6423   8.835   8.223  12.292
34842SOL    HW2 6424   8.736   8.231  12.178
34843SOL     OW 6425   2.457   1.591   5.209
34843SOL    HW1 6426   2.363   1.597   5.229
34843SOL    HW2 6427   2.488   1.517   5.261
34844SOL     OW 6428   8.177   9.130  13.507
34844SOL    HW1 6429   8.200   9.219  13.533
34844SOL    HW2 6430   8.220   9.074  13.571
34845SOL     OW 6431   9.447   9.333   8.073
34845SOL    HW1 6432   9.470   9.407   8.017
34845SOL    HW2 6433   9.527   9.312   8.121
34846SOL     OW 6434   8.898   2.510  11.546
34846SOL    HW1 6435   8.977   2.542  11.590
34846SOL    HW2 6436   8.879   2.576  11.480
34847SOL     OW 6437  14.503   2.821   5.254
34847SOL    HW1 6438  14.461   2.907   5.256
34847SOL    HW2 6439  14.474   2.779   5.335
34848SOL     OW 6440   2.000   1.179  14.650
34848SOL    HW1 6441   2.003   1.089  14.617
34848SOL    HW2 6442   2.077   1.187  14.706
34849SOL     OW 6443   2.829   4.342  11.340
34849SOL    HW1 6444   2.915   4.384  11.349
34849SOL    HW2 6445   2.797   4.332  11.430
34850SOL     OW 6446   6.614   2.671   0.752
34850SOL    HW1 6447   6.603   2.584   0.792
34850SOL    HW2 6448   6.646   2.726   0.823
34851SOL     OW 6449   3.211  11.081   9.608
34851SOL    HW1 6450   3.254  11.143   9.548
34851SOL    HW2 6451   3.252  11.098   9.693
34852SOL     OW 6452   7.177   7.751   4.774
34852SOL    HW1 6453   7.254   7.771   4.721
34852SOL    HW2 6454   7.204   7.680   4.831
34853SOL     OW 6455   3.806   6.776   9.302
34853SOL    HW1 6456   3.879   6.781   9.241
34853SOL    HW2 6457   3.832   6.711   9.367
34854SOL     OW 6458   3.535   5.525  13.896
34854SOL    HW1 6459   3.455   5.574  13.876
34854SOL    HW2 6460   3.568   5.564  13.976
34855SOL     OW 6461   1.130   7.974   2.546
34855SOL    HW1 6462   1.188   7.910   2.506
34855SOL    HW2 6463   1.186   8.049   2.566
34856SOL     OW 6464  14.528   3.635   8.229
34856SOL    HW1 6465  14.519   3.540   8.238
34856SOL    HW2 6466  14.466   3.658   8.160
34857SOL     OW 6467  11.116  13.351  10.976
34857SOL    HW1 6468  11.140  13.404  11.053
34857SOL    HW2 6469  11.182  13.281  10.974
34858SOL     OW 6470   4.967   1.537  10.204
34858SOL    HW1 6471   5.040   1.588  10.239
34858SOL    HW2 6472   4.915   1.600  10.154
34859SOL     OW 6473   6.900  12.199   6.954
34859SOL    HW1 6474   6.970  12.255   6.919
34859SOL    HW2 6475   6.836  12.260   6.990
34860SOL     OW 6476   0.491   8.421   3.601
34860SOL    HW1 6477   0.500   8.355   3.670
34860SOL    HW2 6478   0.561   8.400   3.538
34861SOL     OW 6479  10.347  13.091   1.599
34861SOL    HW1 6480  10.303  13.042   1.530
34861SOL    HW2 6481  10.280  13.108   1.664
34862SOL     OW 6482   2.959   7.393  12.177
34862SOL    HW1 6483   2.986   7.303  12.193
34862SOL    HW2 6484   2.943   7.397  12.083
34863SOL     OW 6485   6.930  11.518   5.102
34863SOL    HW1 6486   6.940  11.612   5.119
34863SOL    HW2 6487   7.017  11.482   5.117
34864SOL     OW 6488   7.213   2.630   4.030
34864SOL    HW1 6489   7.147   2.610   4.097
34864SOL    HW2 6490   7.170   2.691   3.971
34865SOL     OW 6491  14.735   8.010   5.783
34865SOL    HW1 6492  14.777   7.924   5.778
34865SOL    HW2 6493  14.672   8.002   5.854
34866SOL     OW 6494  14.204  12.373  13.006
34866SOL    HW1 6495  14.267  12.304  12.988
34866SOL    HW2 6496  14.227  12.406  13.093
34867SOL     OW 6497   7.778   9.154  12.020
34867SOL    HW1 6498   7.828   9.236  12.029
34867SOL    HW2 6499   7.788   9.111  12.105
34868SOL     OW 6500   5.558   2.248   4.709
34868SOL    HW1 6501   5.486   2.292   4.755
34868SOL    HW2 6502   5.516   2.202   4.637
34869SOL     OW 6503  11.061  12.491  13.089
34869SOL    HW1 6504  11.055  12.584  13.111
34869SOL    HW2 6505  11.019  12.484  13.004
34870SOL     OW 6506   1.751  14.222   6.180
34870SOL    HW1 6507   1.760  14.214   6.275
34870SOL    HW2 6508   1.656  14.224   6.166
34871SOL     OW 6509  10.577   1.715   0.996
34871SOL    HW1 6510  10.641   1.667   1.048
34871SOL    HW2 6511  10.610   1.709   0.906
34872SOL     OW 6512   6.167  12.998  13.231
34872SOL    HW1 6513   6.255  13.021  13.260
34872SOL    HW2 6514   6.114  13.001  13.311
34873SOL     OW 6515  10.523   3.450   0.008
34873SOL    HW1 6516  10.591   3.434   0.074
34873SOL    HW2 6517  10.561   3.418  14.806
34874SOL     OW 6518   8.422  10.554   7.613
34874SOL    HW1 6519   8.362  10.513   7.675
34874SOL    HW2 6520   8.436  10.487   7.546
34875SOL     OW 6521   8.558  13.674  13.442
34875SOL    HW1 6522   8.569  13.579  13.442
34875SOL    HW2 6523   8.558  13.698  13.349
34876SOL     OW 6524  12.986   6.330  13.282
34876SOL    HW1 6525  13.056   6.337  13.347
34876SOL    HW2 6526  12.928   6.262  13.316
34877SOL     OW 6527   9.625   6.325   9.760
34877SOL    HW1 6528   9.667   6.248   9.721
34877SOL    HW2 6529   9.607   6.300   9.850
34878SOL     OW 6530   2.914  12.904   6.281
34878SOL    HW1 6531   2.828  12.902   6.321
34878SOL    HW2 6532   2.897  12.925   6.189
34879SOL     OW 6533  12.641  14.099  13.737
34879SOL    HW1 6534  12.556  14.058  13.720
34879SOL    HW2 6535  12.656  14.155  13.661
34880SOL     OW 6536   0.439   7.251   7.958
34880SOL    HW1 6537   0.471   7.312   8.024
34880SOL    HW2 6538   0.514   7.236   7.900
34881SOL     OW 6539  12.795   7.804   4.957
34881SOL    HW1 6540  12.715   7.753   4.942
34881SOL    HW2 6541  12.775   7.859   5.033
34882SOL     OW 6542  14.633  11.373   0.491
34882SOL    HW1 6543  14.726  11.376   0.511
34882SOL    HW2 6544  14.619  11.287   0.452
34883SOL     OW 6545   8.843  10.486   3.541
34883SOL    HW1 6546   8.750  10.464   3.554
34883SOL    HW2 6547   8.857  10.563   3.597
34884SOL     OW 6548   1.531   6.912   0.403
34884SOL    HW1 6549   1.483   6.849   0.348
34884SOL    HW2 6550   1.464   6.971   0.436
34885SOL     OW 6551   8.143   0.973  13.072
34885SOL    HW1 6552   8.179   0.963  13.160
34885SOL    HW2 6553   8.097   0.891  13.055
34886SOL     OW 6554   5.241  10.705   5.769
34886SOL    HW1 6555   5.225  10.638   5.703
34886SOL    HW2 6556   5.156  10.745   5.784
34887SOL     OW 6557  11.823   2.340  14.853
34887SOL    HW1 6558  11.852   2.276   0.038
34887SOL    HW2 6559  11.730   2.352  14.870
34888SOL     OW 6560   6.032   9.771   2.878
34888SOL    HW1 6561   6.045   9.803   2.967
34888SOL    HW2 6562   6.072   9.684   2.878
34889SOL     OW 6563   0.938   9.677   6.901
34889SOL    HW1 6564   0.972   9.683   6.990
34889SOL    HW2 6565   0.865   9.739   6.900
34890SOL     OW 6566   1.098   5.029   9.251
34890SOL    HW1 6567   1.075   4.942   9.285
34890SOL    HW2 6568   1.049   5.090   9.307
34891SOL     OW 6569   0.024   0.819   5.331
34891SOL    HW1 6570  14.848   0.835   5.407
34891SOL    HW2 6571  14.858   0.863   5.259
34892SOL     OW 6572   3.588  10.254   8.705
34892SOL    HW1 6573   3.675  10.286   8.730
34892SOL    HW2 6574   3.563  10.309   8.631
34893SOL     OW 6575   2.661   2.573   2.195
34893SOL    HW1 6576   2.606   2.650   2.179
34893SOL    HW2 6577   2.600   2.506   2.225
34894SOL     OW 6578   7.689  11.643  11.306
34894SOL    HW1 6579   7.605  11.659  11.349
34894SOL    HW2 6580   7.670  11.651  11.212
34895SOL     OW 6581   7.961   2.533   2.935
34895SOL    HW1 6582   7.968   2.628   2.943
34895SOL    HW2 6583   7.885   2.510   2.989
34896SOL     OW 6584  10.836   2.753   2.282
34896SOL    HW1 6585  10.931   2.747   2.297
34896SOL    HW2 6586  10.811   2.667   2.250
34897SOL     OW 6587   5.898   4.346   3.390
34897SOL    HW1 6588   5.877   4.263   3.348
34897SOL    HW2 6589   5.986   4.332   3.427
34898SOL     OW 6590   4.507  14.029   6.963
34898SOL    HW1 6591   4.546  14.089   7.026
34898SOL    HW2 6592   4.544  14.057   6.879
34899SOL     OW 6593  12.787   4.948   8.392
34899SOL    HW1 6594  12.790   5.043   8.401
34899SOL    HW2 6595  12.780   4.916   8.482
34900SOL     OW 6596  12.807  12.239  10.250
34900SOL    HW1 6597  12.790  12.329  10.279
34900SOL    HW2 6598  12.900  12.225  10.267
34901SOL     OW 6599  11.916  10.128   7.347
34901SOL    HW1 6600  11.892  10.220   7.332
34901SOL    HW2 6601  12.011  10.130   7.358
34902SOL     OW 6602   6.789   6.993   1.120
34902SOL    HW1 6603   6.800   7.051   1.045
34902SOL    HW2 6604   6.822   6.908   1.090
34903SOL     OW 6605  13.709   7.309  12.796
34903SOL    HW1 6606  13.654   7.231  12.790
34903SOL    HW2 6607  13.689   7.346  12.883
34904SOL     OW 6608   1.734   4.143   0.107
34904SOL    HW1 6609   1.807   4.205   0.106
34904SOL    HW2 6610   1.685   4.166   0.186
34905SOL     OW 6611   6.847   7.602   0.467
34905SOL    HW1 6612   6.857   7.569   0.378
34905SOL    HW2 6613   6.921   7.662   0.480
34906SOL     OW 6614   1.886   3.762  11.340
34906SOL    HW1 6615   1.972   3.746  11.377
34906SOL    HW2 6616   1.861   3.679  11.299
34907SOL     OW 6617   8.124  13.062   6.487
34907SOL    HW1 6618   8.208  13.107   6.499
34907SOL    HW2 6619   8.069  13.096   6.558
34908SOL     OW 6620   0.229   6.951   5.066
34908SOL    HW1 6621   0.199   6.915   4.983
34908SOL    HW2 6622   0.166   6.919   5.131
34909SOL     OW 6623   0.480   0.173  12.151
34909SOL    HW1 6624   0.457   0.236  12.219
34909SOL    HW2 6625   0.410   0.181  12.086
34910SOL     OW 6626   7.618   2.704   3.210
34910SOL    HW1 6627   7.608   2.628   3.152
34910SOL    HW2 6628   7.625   2.779   3.151
34911SOL     OW 6629   2.894  11.582   1.839
34911SOL    HW1 6630   2.924  11.578   1.930
34911SOL    HW2 6631   2.843  11.502   1.827
34912SOL     OW 6632   9.095  11.352   1.956
34912SOL    HW1 6633   9.123  11.384   1.870
34912SOL    HW2 6634   9.000  11.365   1.956
34913SOL     OW 6635  12.176  11.905  12.129
34913SOL    HW1 6636  12.240  11.952  12.183
34913SOL    HW2 6637  12.110  11.875  12.191
34914SOL     OW 6638   5.662   5.044  10.228
34914SOL    HW1 6639   5.737   4.985  10.232
34914SOL    HW2 6640   5.638   5.047  10.135
34915SOL     OW 6641   4.273   2.330   5.344
34915SOL    HW1 6642   4.351   2.376   5.374
34915SOL    HW2 6643   4.207   2.349   5.411
34916SOL     OW 6644   3.809  12.358   7.738
34916SOL    HW1 6645   3.768  12.272   7.725
34916SOL    HW2 6646   3.892  12.353   7.692
34917SOL     OW 6647   5.846   2.732   7.485
34917SOL    HW1 6648   5.914   2.755   7.548
34917SOL    HW2 6649   5.775   2.696   7.538
34918SOL     OW 6650  14.795   4.045  14.465
34918SOL    HW1 6651  14.704   4.065  14.488
34918SOL    HW2 6652  14.805   4.081  14.377
34919SOL     OW 6653   2.326   1.969   0.726
34919SOL    HW1 6654   2.392   1.926   0.671
34919SOL    HW2 6655   2.244   1.955   0.680
34920SOL     OW 6656  12.465  11.393   6.685
34920SOL    HW1 6657  12.452  11.449   6.609
34920SOL    HW2 6658  12.455  11.304   6.651
34921SOL     OW 6659  10.739   8.043  10.949
34921SOL    HW1 6660  10.781   8.090  11.021
34921SOL    HW2 6661  10.646   8.042  10.971
34922SOL     OW 6662  13.895   6.430   9.013
34922SOL    HW1 6663  13.887   6.374   8.935
34922SOL    HW2 6664  13.981   6.471   9.004
34923SOL     OW 6665  11.159   0.644   7.450
34923SOL    HW1 6666  11.151   0.650   7.354
34923SOL    HW2 6667  11.101   0.571   7.474
34924SOL     OW 6668   2.931  11.520  10.772
34924SOL    HW1 6669   2.927  11.586  10.703
34924SOL    HW2 6670   2.925  11.571  10.853
34925SOL     OW 6671  10.597   6.766   5.898
34925SOL    HW1 6672  10.672   6.782   5.841
34925SOL    HW2 6673  10.521   6.766   5.839
34926SOL     OW 6674   7.124  13.028  10.231
34926SOL    HW1 6675   7.128  13.010  10.137
34926SOL    HW2 6676   7.083  13.114  10.238
34927SOL     OW 6677   4.254   5.747  10.993
34927SOL    HW1 6678   4.166   5.722  10.967
34927SOL    HW2 6679   4.273   5.694  11.070
34928SOL     OW 6680   6.984   3.299  11.217
34928SOL    HW1 6681   7.062   3.262  11.175
34928SOL    HW2 6682   6.914   3.236  11.198
34929SOL     OW 6683   4.505   1.726   0.162
34929SOL    HW1 6684   4.450   1.663   0.116
34929SOL    HW2 6685   4.496   1.702   0.254
34930SOL     OW 6686   3.586   4.844   1.197
34930SOL    HW1 6687   3.634   4.900   1.257
34930SOL    HW2 6688   3.636   4.762   1.195
34931SOL     OW 6689   5.590  10.027   5.750
34931SOL    HW1 6690   5.502  10.011   5.784
34931SOL    HW2 6691   5.649   9.998   5.820
34932SOL     OW 6692   7.939   6.419   7.974
34932SOL    HW1 6693   8.017   6.443   7.925
34932SOL    HW2 6694   7.909   6.501   8.013
34933SOL     OW 6695   2.564   2.423  13.446
34933SOL    HW1 6696   2.584   2.362  13.517
34933SOL    HW2 6697   2.470   2.438  13.453
34934SOL     OW 6698   9.813   4.110   1.155
34934SOL    HW1 6699   9.755   4.108   1.079
34934SOL    HW2 6700   9.886   4.052   1.132
34935SOL     OW 6701  12.287   1.030   3.337
34935SOL    HW1 6702  12.240   1.020   3.255
34935SOL    HW2 6703  12.288   0.942   3.375
34936SOL     OW 6704   7.603   9.125  13.203
34936SOL    HW1 6705   7.688   9.094  13.234
34936SOL    HW2 6706   7.622   9.167  13.119
34937SOL     OW 6707  13.574   5.908   7.526
34937SOL    HW1 6708  13.549   5.819   7.552
34937SOL    HW2 6709  13.491   5.956   7.521
34938SOL     OW 6710   7.532   2.286   4.509
34938SOL    HW1 6711   7.618   2.261   4.540
34938SOL    HW2 6712   7.532   2.381   4.510
34939SOL     OW 6713  10.406   1.614  10.763
34939SOL    HW1 6714  10.355   1.610  10.682
34939SOL    HW2 6715  10.479   1.553  10.748
34940SOL     OW 6716   4.518   7.332   4.173
34940SOL    HW1 6717   4.603   7.288   4.179
34940SOL    HW2 6718   4.511   7.356   4.081
34941SOL     OW 6719   3.804   5.092   1.283
34941SOL    HW1 6720   3.723   5.143   1.280
34941SOL    HW2 6721   3.791   5.028   1.352
34942SOL     OW 6722   6.881  11.129   2.434
34942SOL    HW1 6723   6.801  11.141   2.484
34942SOL    HW2 6724   6.912  11.042   2.459
34943SOL     OW 6725   5.245   2.387   5.290
34943SOL    HW1 6726   5.214   2.457   5.233
34943SOL    HW2 6727   5.180   2.383   5.361
34944SOL     OW 6728  14.165   5.194   1.468
34944SOL    HW1 6729  14.249   5.147   1.471
34944SOL    HW2 6730  14.120   5.157   1.392
34945SOL     OW 6731   6.159   2.251   6.895
34945SOL    HW1 6732   6.238   2.285   6.937
34945SOL    HW2 6733   6.093   2.250   6.964
34946SOL     OW 6734  13.073   8.131  13.196
34946SOL    HW1 6735  13.142   8.129  13.263
34946SOL    HW2 6736  13.067   8.222  13.169
34947SOL     OW 6737   6.751   9.336   1.335
34947SOL    HW1 6738   6.697   9.298   1.405
34947SOL    HW2 6739   6.827   9.278   1.330
34948SOL     OW 6740  14.192   8.441  14.512
34948SOL    HW1 6741  14.204   8.484  14.597
34948SOL    HW2 6742  14.103   8.407  14.516
34949SOL     OW 6743   1.111   6.984   5.819
34949SOL    HW1 6744   1.198   6.970   5.855
34949SOL    HW2 6745   1.052   6.948   5.886
34950SOL     OW 6746   2.666  11.587   1.304
34950SOL    HW1 6747   2.704  11.558   1.387
34950SOL    HW2 6748   2.595  11.524   1.288
34951SOL     OW 6749   5.307  10.589   9.998
34951SOL    HW1 6750   5.372  10.594   9.928
34951SOL    HW2 6751   5.235  10.645   9.968
34952SOL     OW 6752   2.751   6.532   0.727
34952SOL    HW1 6753   2.708   6.617   0.731
34952SOL    HW2 6754   2.696   6.480   0.668
34953SOL     OW 6755   3.462  12.263  13.764
34953SOL    HW1 6756   3.517  12.305  13.698
34953SOL    HW2 6757   3.372  12.283  13.737
34954SOL     OW 6758  11.823   9.148  10.773
34954SOL    HW1 6759  11.884   9.074  10.764
34954SOL    HW2 6760  11.797   9.145  10.865
34955SOL     OW 6761   8.667   3.169   9.000
34955SOL    HW1 6762   8.619   3.209   8.927
34955SOL    HW2 6763   8.601   3.119   9.048
34956SOL     OW 6764   8.283   6.485  12.940
34956SOL    HW1 6765   8.187   6.482  12.931
34956SOL    HW2 6766   8.302   6.577  12.958
34957SOL     OW 6767  11.515   4.906   0.824
34957SOL    HW1 6768  11.596   4.952   0.801
34957SOL    HW2 6769  11.446   4.968   0.801
34958SOL     OW 6770  11.919  11.634   2.399
34958SOL    HW1 6771  11.890  11.555   2.353
34958SOL    HW2 6772  12.013  11.637   2.385
34959SOL     OW 6773   8.858   0.394   5.424
34959SOL    HW1 6774   8.850   0.362   5.514
34959SOL    HW2 6775   8.876   0.487   5.433
34960SOL     OW 6776   0.937  12.893   6.977
34960SOL    HW1 6777   0.866  12.903   6.915
34960SOL    HW2 6778   0.990  12.821   6.943
34961SOL     OW 6779   8.932   0.068   4.319
34961SOL    HW1 6780   8.842   0.056   4.288
34961SOL    HW2 6781   8.969   0.133   4.260
34962SOL     OW 6782   6.829   7.406  12.957
34962SOL    HW1 6783   6.796   7.326  12.918
34962SOL    HW2 6784   6.753   7.444  13.002
34963SOL     OW 6785   0.682  11.336  14.029
34963SOL    HW1 6786   0.588  11.340  14.046
34963SOL    HW2 6787   0.722  11.359  14.113
34964SOL     OW 6788   3.524   7.549  10.077
34964SOL    HW1 6789   3.458   7.586  10.018
34964SOL    HW2 6790   3.587   7.619  10.091
34965SOL     OW 6791  11.371  10.332   2.902
34965SOL    HW1 6792  11.296  10.371   2.857
34965SOL    HW2 6793  11.442  10.395   2.889
34966SOL     OW 6794   3.281   4.232   4.848
34966SOL    HW1 6795   3.318   4.320   4.860
34966SOL    HW2 6796   3.188   4.248   4.833
34967SOL     OW 6797   3.998  10.129  11.361
34967SOL    HW1 6798   3.992  10.078  11.441
34967SOL    HW2 6799   4.064  10.196  11.381
34968SOL     OW 6800  14.401  13.797   9.786
34968SOL    HW1 6801  14.334  13.848   9.741
34968SOL    HW2 6802  14.353  13.730   9.835
34969SOL     OW 6803  13.632   6.976   3.875
34969SOL    HW1 6804  13.587   6.996   3.957
34969SOL    HW2 6805  13.609   6.885   3.856
34970SOL     OW 6806   0.711   3.043   2.823
34970SOL    HW1 6807   0.784   3.040   2.760
34970SOL    HW2 6808   0.649   2.978   2.791
34971SOL     OW 6809   5.583   0.795   3.355
34971SOL    HW1 6810   5.609   0.710   3.391
34971SOL    HW2 6811   5.650   0.856   3.386
34972SOL     OW 6812   5.078   4.787   2.011
34972SOL    HW1 6813   5.141   4.852   2.045
34972SOL    HW2 6814   5.133   4.718   1.974
34973SOL     OW 6815   3.662   0.080  14.512
34973SOL    HW1 6816   3.720   0.006  14.491
34973SOL    HW2 6817   3.587   0.039  14.555
34974SOL     OW 6818  13.295  11.924   2.947
34974SOL    HW1 6819  13.295  11.993   2.880
34974SOL    HW2 6820  13.326  11.846   2.902
34975SOL     OW 6821   3.122   8.824   4.225
34975SOL    HW1 6822   3.191   8.830   4.159
34975SOL    HW2 6823   3.167   8.841   4.308
34976SOL     OW 6824  10.224   1.430   3.637
34976SOL    HW1 6825  10.256   1.349   3.676
34976SOL    HW2 6826  10.302   1.470   3.598
34977SOL     OW 6827   1.720   1.138  12.582
34977SOL    HW1 6828   1.658   1.149  12.653
34977SOL    HW2 6829   1.750   1.047  12.590
34978SOL     OW 6830   6.611   7.139   0.778
34978SOL    HW1 6831   6.694   7.139   0.826
34978SOL    HW2 6832   6.559   7.207   0.821
34979SOL     OW 6833   3.328   3.905   3.846
34979SOL    HW1 6834   3.308   3.858   3.765
34979SOL    HW2 6835   3.312   3.997   3.825
34980SOL     OW 6836  13.358   4.806  13.750
34980SOL    HW1 6837  13.368   4.901  13.741
34980SOL    HW2 6838  13.264   4.791  13.747
34981SOL     OW 6839   5.623   2.849  12.069
34981SOL    HW1 6840   5.542   2.893  12.095
34981SOL    HW2 6841   5.660   2.816  12.152
34982SOL     OW 6842   7.818   3.462   8.095
34982SOL    HW1 6843   7.909   3.490   8.086
34982SOL    HW2 6844   7.782   3.470   8.006
34983SOL     OW 6845   2.758  10.567   9.764
34983SOL    HW1 6846   2.834  10.550   9.820
34983SOL    HW2 6847   2.689  10.593   9.825
34984SOL     OW 6848   1.293   2.203  13.290
34984SOL    HW1 6849   1.357   2.161  13.233
34984SOL    HW2 6850   1.320   2.178  13.379
34985SOL     OW 6851   2.484   0.159  12.243
34985SOL    HW1 6852   2.470   0.251  12.266
34985SOL    HW2 6853   2.425   0.143  12.169
34986SOL     OW 6854   9.953   7.610   9.379
34986SOL    HW1 6855   9.898   7.532   9.377
34986SOL    HW2 6856  10.039   7.578   9.404
34987SOL     OW 6857   4.083   2.334   3.206
34987SOL    HW1 6858   4.027   2.259   3.185
34987SOL    HW2 6859   4.159   2.295   3.250
34988SOL     OW 6860   6.150   6.661   8.884
34988SOL    HW1 6861   6.134   6.626   8.972
34988SOL    HW2 6862   6.126   6.753   8.891
34989SOL     OW 6863  11.383   5.199   1.860
34989SOL    HW1 6864  11.326   5.137   1.814
34989SOL    HW2 6865  11.332   5.227   1.936
34990SOL     OW 6866  14.266   7.747   4.905
34990SOL    HW1 6867  14.274   7.652   4.917
34990SOL    HW2 6868  14.278   7.760   4.811
34991SOL     OW 6869   3.788   9.059   5.673
34991SOL    HW1 6870   3.706   9.022   5.707
34991SOL    HW2 6871   3.816   8.998   5.605
34992SOL     OW 6872  14.545   9.723   2.198
34992SOL    HW1 6873  14.522   9.651   2.257
34992SOL    HW2 6874  14.553   9.799   2.255
34993SOL     OW 6875   0.740   9.071  11.897
34993SOL    HW1 6876   0.780   8.985  11.909
34993SOL    HW2 6877   0.715   9.098  11.986
34994SOL     OW 6878  12.750   1.902   0.711
34994SOL    HW1 6879  12.780   1.829   0.657
34994SOL    HW2 6880  12.660   1.879   0.736
34995SOL     OW 6881   8.727  13.899   5.284
34995SOL    HW1 6882   8.785  13.974   5.297
34995SOL    HW2 6883   8.786  13.824   5.278
34996SOL     OW 6884   1.462  13.587  12.826
34996SOL    HW1 6885   1.468  13.499  12.863
34996SOL    HW2 6886   1.548  13.603  12.787
34997SOL     OW 6887   0.143   1.240  11.087
34997SOL    HW1 6888   0.049   1.236  11.102
34997SOL    HW2 6889   0.182   1.237  11.175
34998SOL     OW 6890   8.424   2.665  13.710
34998SOL    HW1 6891   8.344   2.624  13.742
34998SOL    HW2 6892   8.409   2.759  13.718
34999SOL     OW 6893   7.861   1.572   8.870
34999SOL    HW1 6894   7.780   1.588   8.918
34999SOL    HW2 6895   7.832   1.550   8.781
35000SOL     OW 6896  11.848   7.395  14.088
35000SOL    HW1 6897  11.930   7.355  14.114
35000SOL    HW2 6898  11.858   7.412  13.994
35001SOL     OW 6899   1.380  12.101  12.391
35001SOL    HW1 6900   1.444  12.056  12.336
35001SOL    HW2 6901   1.366  12.042  12.465
35002SOL     OW 6902   0.844  11.264   3.154
35002SOL    HW1 6903   0.934  11.245   3.178
35002SOL    HW2 6904   0.791  11.206   3.209
35003SOL     OW 6905  10.131   9.888  14.126
35003SOL    HW1 6906  10.093   9.911  14.041
35003SOL    HW2 6907  10.150   9.794  14.120
35004SOL     OW 6908  13.828  12.495   2.610
35004SOL    HW1 6909  13.877  12.577   2.621
35004SOL    HW2 6910  13.748  12.522   2.564
35005SOL     OW 6911   8.786   9.710   6.518
35005SOL    HW1 6912   8.748   9.691   6.603
35005SOL    HW2 6913   8.879   9.721   6.535
35006SOL     OW 6914   6.292   4.287   1.588
35006SOL    HW1 6915   6.294   4.367   1.536
35006SOL    HW2 6916   6.375   4.243   1.567
35007SOL     OW 6917  14.086   9.053   9.947
35007SOL    HW1 6918  14.023   9.095   9.888
35007SOL    HW2 6919  14.033   8.992   9.999
35008SOL     OW 6920   3.160   0.370   7.071
35008SOL    HW1 6921   3.166   0.349   6.978
35008SOL    HW2 6922   3.150   0.285   7.114
35009SOL     OW 6923   2.371   6.078   4.920
35009SOL    HW1 6924   2.277   6.076   4.936
35009SOL    HW2 6925   2.411   6.067   5.006
35010SOL     OW 6926  10.827  11.150   1.395
35010SOL    HW1 6927  10.758  11.203   1.436
35010SOL    HW2 6928  10.859  11.204   1.323
35011SOL     OW 6929   2.350  11.068   8.185
35011SOL    HW1 6930   2.321  10.980   8.162
35011SOL    HW2 6931   2.290  11.094   8.255
35012SOL     OW 6932  14.577   2.175  14.375
35012SOL    HW1 6933  14.568   2.267  14.398
35012SOL    HW2 6934  14.610   2.175  14.285
35013SOL     OW 6935  14.426   1.969   6.636
35013SOL    HW1 6936  14.423   1.976   6.540
35013SOL    HW2 6937  14.392   1.881   6.655
35014SOL     OW 6938  13.788   2.716   0.383
35014SOL    HW1 6939  13.862   2.718   0.324
35014SOL    HW2 6940  13.773   2.622   0.399
35015SOL     OW 6941  13.729   1.569   1.319
35015SOL    HW1 6942  13.684   1.544   1.400
35015SOL    HW2 6943  13.659   1.579   1.254
35016SOL     OW 6944   1.618  12.489   3.014
35016SOL    HW1 6945   1.563  12.550   2.965
35016SOL    HW2 6946   1.577  12.403   3.000
35017SOL     OW 6947  14.523   9.937   7.056
35017SOL    HW1 6948  14.584  10.010   7.041
35017SOL    HW2 6949  14.440   9.966   7.019
35018SOL     OW 6950   8.784   6.029   2.892
35018SOL    HW1 6951   8.839   5.972   2.946
35018SOL    HW2 6952   8.743   6.088   2.955
35019SOL     OW 6953   0.111  14.616   4.296
35019SOL    HW1 6954   0.031  14.600   4.346
35019SOL    HW2 6955   0.088  14.595   4.206
35020SOL     OW 6956   3.128  13.820   6.226
35020SOL    HW1 6957   3.090  13.879   6.291
35020SOL    HW2 6958   3.144  13.738   6.273
35021SOL     OW 6959  14.543   7.947   8.440
35021SOL    HW1 6960  14.511   7.902   8.362
35021SOL    HW2 6961  14.636   7.928   8.442
35022SOL     OW 6962   6.284   7.738   4.696
35022SOL    HW1 6963   6.218   7.673   4.672
35022SOL    HW2 6964   6.278   7.744   4.792
35023SOL     OW 6965   0.328  14.423   5.276
35023SOL    HW1 6966   0.287  14.339   5.255
35023SOL    HW2 6967   0.421  14.409   5.258
35024SOL     OW 6968   1.236  13.938   3.029
35024SOL    HW1 6969   1.247  13.867   2.966
35024SOL    HW2 6970   1.191  14.007   2.979
35025SOL     OW 6971   1.565   8.864  12.681
35025SOL    HW1 6972   1.507   8.833  12.611
35025SOL    HW2 6973   1.623   8.790  12.699
35026SOL     OW 6974   8.294  13.164  11.826
35026SOL    HW1 6975   8.348  13.087  11.811
35026SOL    HW2 6976   8.354  13.238  11.816
35027SOL     OW 6977   2.055  10.261   9.094
35027SOL    HW1 6978   2.056  10.303   9.180
35027SOL    HW2 6979   1.989  10.192   9.103
35028SOL     OW 6980   9.370   6.124   5.509
35028SOL    HW1 6981   9.436   6.188   5.533
35028SOL    HW2 6982   9.292   6.176   5.489
35029SOL     OW 6983   5.750   1.634   5.680
35029SOL    HW1 6984   5.822   1.611   5.739
35029SOL    HW2 6985   5.737   1.728   5.694
35030SOL     OW 6986   4.963  12.233   5.061
35030SOL    HW1 6987   4.986  12.290   5.133
35030SOL    HW2 6988   4.917  12.290   4.999
35031SOL     OW 6989   7.328   4.541   3.625
35031SOL    HW1 6990   7.258   4.478   3.644
35031SOL    HW2 6991   7.407   4.500   3.660
35032SOL     OW 6992   7.275   8.982  13.527
35032SOL    HW1 6993   7.185   8.958  13.507
35032SOL    HW2 6994   7.325   8.950  13.452
35033SOL     OW 6995  10.233   2.275   0.946
35033SOL    HW1 6996  10.198   2.196   0.987
35033SOL    HW2 6997  10.322   2.283   0.981
35034SOL     OW 6998   7.726   7.461   8.400
35034SOL    HW1 6999   7.794   7.483   8.465
35034SOL    HW2 7000   7.710   7.544   8.354
35035SOL     OW 7001   8.349   7.563  11.966
35035SOL    HW1 7002   8.305   7.478  11.959
35035SOL    HW2 7003   8.400   7.557  12.047
35036SOL     OW 7004  13.753   6.591   3.305
35036SOL    HW1 7005  13.761   6.618   3.213
35036SOL    HW2 7006  13.671   6.630   3.335
35037SOL     OW 7007   5.343   8.967   7.848
35037SOL    HW1 7008   5.367   9.056   7.873
35037SOL    HW2 7009   5.263   8.977   7.796
35038SOL     OW 7010   9.633  13.238   6.575
35038SOL    HW1 7011   9.547  13.269   6.547
35038SOL    HW2 7012   9.695  13.302   6.539
35039SOL     OW 7013   8.182  14.325  14.731
35039SOL    HW1 7014   8.180  14.231  14.746
35039SOL    HW2 7015   8.267  14.353  14.765
35040SOL     OW 7016  13.334   2.272   8.646
35040SOL    HW1 7017  13.275   2.279   8.721
35040SOL    HW2 7018  13.276   2.268   8.570
35041SOL     OW 7019  10.855   1.225   7.753
35041SOL    HW1 7020  10.784   1.240   7.689
35041SOL    HW2 7021  10.823   1.154   7.808
35042SOL     OW 7022   4.148   3.699   8.156
35042SOL    HW1 7023   4.180   3.618   8.196
35042SOL    HW2 7024   4.086   3.670   8.089
35043SOL     OW 7025   4.613  10.718   0.157
35043SOL    HW1 7026   4.566  10.754   0.082
35043SOL    HW2 7027   4.663  10.792   0.193
35044SOL     OW 7028   5.875   0.580   8.259
35044SOL    HW1 7029   5.875   0.652   8.322
35044SOL    HW2 7030   5.963   0.544   8.263
35045SOL     OW 7031  14.039   6.092   5.965
35045SOL    HW1 7032  14.080   6.094   5.878
35045SOL    HW2 7033  13.980   6.167   5.965
35046SOL     OW 7034   7.135   0.575   7.980
35046SOL    HW1 7035   7.082   0.613   7.909
35046SOL    HW2 7036   7.094   0.490   7.998
35047SOL     OW 7037  14.132  13.801   2.509
35047SOL    HW1 7038  14.169  13.736   2.569
35047SOL    HW2 7039  14.185  13.879   2.522
35048SOL     OW 7040   2.817   4.924   0.889
35048SOL    HW1 7041   2.883   4.862   0.859
35048SOL    HW2 7042   2.846   5.009   0.856
35049SOL     OW 7043   2.191   5.323   0.646
35049SOL    HW1 7044   2.141   5.391   0.693
35049SOL    HW2 7045   2.124   5.272   0.601
35050SOL     OW 7046   4.233  12.792   4.382
35050SOL    HW1 7047   4.176  12.859   4.421
35050SOL    HW2 7048   4.247  12.822   4.292
35051SOL     OW 7049  12.403   5.967   3.395
35051SOL    HW1 7050  12.324   5.915   3.411
35051SOL    HW2 7051  12.398   5.989   3.302
35052SOL     OW 7052  11.412   6.161  13.012
35052SOL    HW1 7053  11.368   6.244  13.029
35052SOL    HW2 7054  11.428   6.161  12.918
35053SOL     OW 7055  14.776  14.030   4.250
35053SOL    HW1 7056  14.870  14.042   4.237
35053SOL    HW2 7057  14.737  14.044   4.164
35054SOL     OW 7058   5.674   2.476  10.880
35054SOL    HW1 7059   5.613   2.439  10.943
35054SOL    HW2 7060   5.754   2.425  10.890
35055SOL     OW 7061   2.348  13.801  10.345
35055SOL    HW1 7062   2.349  13.757  10.430
35055SOL    HW2 7063   2.432  13.777  10.305
35056SOL     OW 7064   5.090  10.139   8.785
35056SOL    HW1 7065   5.145  10.181   8.718
35056SOL    HW2 7066   5.152  10.106   8.850
35057SOL     OW 7067   9.235  11.170   2.101
35057SOL    HW1 7068   9.324  11.178   2.068
35057SOL    HW2 7069   9.180  11.215   2.036
35058SOL     OW 7070  10.279   9.575  12.600
35058SOL    HW1 7071  10.370   9.597  12.617
35058SOL    HW2 7072  10.237   9.659  12.579
35059SOL     OW 7073   8.425   9.359  10.324
35059SOL    HW1 7074   8.501   9.378  10.270
35059SOL    HW2 7075   8.461   9.320  10.404
35060SOL     OW 7076   3.914   8.766   1.617
35060SOL    HW1 7077   4.005   8.789   1.639
35060SOL    HW2 7078   3.869   8.766   1.701
35061SOL     OW 7079   6.859   5.869   8.541
35061SOL    HW1 7080   6.795   5.823   8.595
35061SOL    HW2 7081   6.831   5.961   8.544
35062SOL     OW 7082   3.822   7.278  12.298
35062SOL    HW1 7083   3.899   7.336  12.298
35062SOL    HW2 7084   3.833   7.225  12.378
35063SOL     OW 7085  14.092   0.178   3.528
35063SOL    HW1 7086  14.035   0.220   3.592
35063SOL    HW2 7087  14.154   0.127   3.581
35064SOL     OW 7088   0.554   7.824  11.357
35064SOL    HW1 7089   0.526   7.853  11.271
35064SOL    HW2 7090   0.479   7.838  11.414
35065SOL     OW 7091   7.650   1.484   4.080
35065SOL    HW1 7092   7.610   1.400   4.103
35065SOL    HW2 7093   7.706   1.505   4.155
35066SOL     OW 7094  13.934   9.679   8.870
35066SOL    HW1 7095  13.934   9.673   8.775
35066SOL    HW2 7096  13.845   9.654   8.896
35067SOL     OW 7097   3.082  12.047  11.859
35067SOL    HW1 7098   3.092  11.992  11.782
35067SOL    HW2 7099   3.095  11.988  11.933
35068SOL     OW 7100   7.973   3.240   7.683
35068SOL    HW1 7101   8.034   3.273   7.748
35068SOL    HW2 7102   7.891   3.287   7.701
35069SOL     OW 7103   9.543   1.603   2.645
35069SOL    HW1 7104   9.557   1.634   2.555
35069SOL    HW2 7105   9.575   1.513   2.645
35070SOL     OW 7106   7.529   8.729   6.178
35070SOL    HW1 7107   7.585   8.662   6.219
35070SOL    HW2 7108   7.570   8.744   6.093
35071SOL     OW 7109   9.817   4.645  14.616
35071SOL    HW1 7110   9.763   4.567  14.609
35071SOL    HW2 7111   9.779   4.706  14.552
35072SOL     OW 7112   2.041  12.062   3.178
35072SOL    HW1 7113   2.045  12.146   3.132
35072SOL    HW2 7114   1.985  12.007   3.123
35073SOL     OW 7115  14.838   8.056  14.723
35073SOL    HW1 7116   0.022   7.985  14.728
35073SOL    HW2 7117   0.011   8.135  14.712
35074SOL     OW 7118  14.681   3.877   8.803
35074SOL    HW1 7119  14.723   3.910   8.724
35074SOL    HW2 7120  14.611   3.940   8.821
35075SOL     OW 7121   5.108   0.290   9.075
35075SOL    HW1 7122   5.196   0.268   9.045
35075SOL    HW2 7123   5.121   0.361   9.138
35076SOL     OW 7124   2.902   3.344   9.986
35076SOL    HW1 7125   2.964   3.281   9.950
35076SOL    HW2 7126   2.885   3.406   9.915
35077SOL     OW 7127   6.804   7.272   2.181
35077SOL    HW1 7128   6.865   7.343   2.158
35077SOL    HW2 7129   6.718   7.305   2.154
35078SOL     OW 7130  10.004  11.286  10.042
35078SOL    HW1 7131   9.999  11.227   9.966
35078SOL    HW2 7132  10.082  11.340  10.025
35079SOL     OW 7133   5.254   2.828   0.481
35079SOL    HW1 7134   5.292   2.789   0.560
35079SOL    HW2 7135   5.272   2.763   0.412
35080SOL     OW 7136   8.832   9.493  12.071
35080SOL    HW1 7137   8.919   9.532  12.061
35080SOL    HW2 7138   8.837   9.410  12.023
35081SOL     OW 7139   8.618   8.432   0.466
35081SOL    HW1 7140   8.712   8.415   0.480
35081SOL    HW2 7141   8.574   8.380   0.533
35082SOL     OW 7142  11.374   8.488   6.100
35082SOL    HW1 7143  11.286   8.520   6.115
35082SOL    HW2 7144  11.411   8.478   6.188
35083SOL     OW 7145   6.461   9.743   7.684
35083SOL    HW1 7146   6.382   9.713   7.638
35083SOL    HW2 7147   6.435   9.749   7.776
35084SOL     OW 7148   6.236   8.328   4.202
35084SOL    HW1 7149   6.207   8.395   4.142
35084SOL    HW2 7150   6.218   8.364   4.289
35085SOL     OW 7151  14.303   5.389   6.527
35085SOL    HW1 7152  14.274   5.303   6.496
35085SOL    HW2 7153  14.396   5.392   6.503
35086SOL     OW 7154   3.995  13.777   4.902
35086SOL    HW1 7155   4.075  13.730   4.879
35086SOL    HW2 7156   4.015  13.818   4.986
35087SOL     OW 7157   6.090   7.747   0.667
35087SOL    HW1 7158   6.150   7.694   0.615
35087SOL    HW2 7159   6.148   7.806   0.716
35088SOL     OW 7160   4.564   0.427   6.894
35088SOL    HW1 7161   4.562   0.332   6.906
35088SOL    HW2 7162   4.638   0.442   6.835
35089SOL     OW 7163   7.538   5.092   6.314
35089SOL    HW1 7164   7.506   5.080   6.224
35089SOL    HW2 7165   7.627   5.057   6.312
35090SOL     OW 7166   0.938  11.670   3.921
35090SOL    HW1 7167   0.979  11.604   3.975
35090SOL    HW2 7168   0.861  11.697   3.971
35091SOL     OW 7169  10.487  10.749   4.567
35091SOL    HW1 7170  10.412  10.785   4.614
35091SOL    HW2 7171  10.475  10.654   4.572
35092SOL     OW 7172  11.164   5.571   7.718
35092SOL    HW1 7173  11.172   5.603   7.628
35092SOL    HW2 7174  11.075   5.595   7.744
35093SOL     OW 7175   2.119  10.805  13.505
35093SOL    HW1 7176   2.054  10.782  13.440
35093SOL    HW2 7177   2.092  10.759  13.584
35094SOL     OW 7178   7.317   3.393  10.040
35094SOL    HW1 7179   7.232   3.432  10.021
35094SOL    HW2 7180   7.379   3.438   9.982
35095SOL     OW 7181   0.383  14.123   2.923
35095SOL    HW1 7182   0.415  14.168   3.000
35095SOL    HW2 7183   0.401  14.030   2.939
35096SOL     OW 7184   9.000   9.252  13.415
35096SOL    HW1 7185   9.001   9.185  13.483
35096SOL    HW2 7186   9.016   9.334  13.461
35097SOL     OW 7187   2.960   1.159   3.654
35097SOL    HW1 7188   2.878   1.137   3.699
35097SOL    HW2 7189   3.025   1.162   3.724
35098SOL     OW 7190   3.020  14.137   7.758
35098SOL    HW1 7191   3.112  14.153   7.778
35098SOL    HW2 7192   3.000  14.054   7.801
35099SOL     OW 7193   8.291   6.227   0.893
35099SOL    HW1 7194   8.325   6.160   0.834
35099SOL    HW2 7195   8.198   6.232   0.872
35100SOL     OW 7196  10.580   1.990   1.098
35100SOL    HW1 7197  10.594   1.897   1.083
35100SOL    HW2 7198  10.488   2.005   1.076
35101SOL     OW 7199   4.226   3.879   4.520
35101SOL    HW1 7200   4.160   3.906   4.585
35101SOL    HW2 7201   4.248   3.789   4.544
35102SOL     OW 7202   8.642  12.193   3.544
35102SOL    HW1 7203   8.640  12.264   3.480
35102SOL    HW2 7204   8.657  12.237   3.628
35103SOL     OW 7205  14.629  13.024   3.487
35103SOL    HW1 7206  14.717  13.046   3.516
35103SOL    HW2 7207  14.613  12.936   3.522
35104SOL     OW 7208   8.408   5.290  11.299
35104SOL    HW1 7209   8.471   5.247  11.241
35104SOL    HW2 7210   8.350   5.338  11.240
35105SOL     OW 7211   4.070   7.181   3.196
35105SOL    HW1 7212   4.105   7.164   3.109
35105SOL    HW2 7213   4.139   7.150   3.256
35106SOL     OW 7214  12.826  11.628   9.172
35106SOL    HW1 7215  12.800  11.712   9.134
35106SOL    HW2 7216  12.764  11.565   9.135
35107SOL     OW 7217   2.928   8.008   7.460
35107SOL    HW1 7218   2.888   7.921   7.467
35107SOL    HW2 7219   2.866   8.058   7.407
35108SOL     OW 7220  13.327   0.277  13.300
35108SOL    HW1 7221  13.362   0.191  13.323
35108SOL    HW2 7222  13.268   0.260  13.227
35109SOL     OW 7223   9.175   5.786  14.539
35109SOL    HW1 7224   9.124   5.771  14.619
35109SOL    HW2 7225   9.111   5.783  14.468
35110SOL     OW 7226   7.485   0.294  11.539
35110SOL    HW1 7227   7.537   0.278  11.460
35110SOL    HW2 7228   7.395   0.278  11.511
35111SOL     OW 7229   5.196  12.322  10.814
35111SOL    HW1 7230   5.213  12.308  10.721
35111SOL    HW2 7231   5.188  12.234  10.851
35112SOL     OW 7232  10.078   7.122  11.679
35112SOL    HW1 7233  10.122   7.038  11.664
35112SOL    HW2 7234  10.077   7.164  11.593
35113SOL     OW 7235   7.337   8.816  14.828
35113SOL    HW1 7236   7.297   8.791  14.745
35113SOL    HW2 7237   7.368   8.905  14.814
35114SOL     OW 7238   4.186   8.854   5.405
35114SOL    HW1 7239   4.170   8.780   5.347
35114SOL    HW2 7240   4.221   8.922   5.348
35115SOL     OW 7241   5.082   2.139   9.184
35115SOL    HW1 7242   5.004   2.096   9.219
35115SOL    HW2 7243   5.047   2.212   9.133
35116SOL     OW 7244   4.075   0.835   5.638
35116SOL    HW1 7245   4.100   0.787   5.717
35116SOL    HW2 7246   4.127   0.915   5.641
35117SOL     OW 7247   8.730   0.647  11.871
35117SOL    HW1 7248   8.802   0.587  11.889
35117SOL    HW2 7249   8.770   0.734  11.872
35118SOL     OW 7250  12.277   9.395   9.467
35118SOL    HW1 7251  12.229   9.319   9.432
35118SOL    HW2 7252  12.227   9.471   9.437
35119SOL     OW 7253  11.489   9.038   4.854
35119SOL    HW1 7254  11.551   9.067   4.787
35119SOL    HW2 7255  11.438   8.969   4.811
35120SOL     OW 7256  12.531   0.701   2.034
35120SOL    HW1 7257  12.520   0.611   2.006
35120SOL    HW2 7258  12.442   0.735   2.042
35121SOL     OW 7259  14.489  13.146   6.673
35121SOL    HW1 7260  14.506  13.065   6.625
35121SOL    HW2 7261  14.575  13.173   6.705
35122SOL     OW 7262  11.788   0.882  14.289
35122SOL    HW1 7263  11.806   0.788  14.286
35122SOL    HW2 7264  11.755   0.903  14.201
35123SOL     OW 7265  10.268   6.226   7.119
35123SOL    HW1 7266  10.235   6.270   7.198
35123SOL    HW2 7267  10.245   6.286   7.048
35124SOL     OW 7268   0.740   7.046   9.054
35124SOL    HW1 7269   0.818   7.056   9.109
35124SOL    HW2 7270   0.672   7.096   9.100
35125SOL     OW 7271   7.871  13.443  13.441
35125SOL    HW1 7272   7.844  13.480  13.524
35125SOL    HW2 7273   7.813  13.484  13.376
35126SOL     OW 7274   1.762  10.235   6.880
35126SOL    HW1 7275   1.814  10.235   6.961
35126SOL    HW2 7276   1.720  10.321   6.879
35127SOL     OW 7277   4.579   3.123   0.623
35127SOL    HW1 7278   4.545   3.090   0.706
35127SOL    HW2 7279   4.507   3.174   0.586
35128SOL     OW 7280   7.994  13.030  12.839
35128SOL    HW1 7281   8.039  13.005  12.919
35128SOL    HW2 7282   8.029  12.971  12.772
35129SOL     OW 7283  11.389   3.726   9.705
35129SOL    HW1 7284  11.316   3.744   9.765
35129SOL    HW2 7285  11.422   3.813   9.681
35130SOL     OW 7286   3.330   1.409  12.700
35130SOL    HW1 7287   3.258   1.381  12.757
35130SOL    HW2 7288   3.409   1.390  12.750
35131SOL     OW 7289   8.678  10.054   2.193
35131SOL    HW1 7290   8.683  10.012   2.279
35131SOL    HW2 7291   8.721   9.993   2.133
35132SOL     OW 7292   4.590   9.346   3.091
35132SOL    HW1 7293   4.563   9.319   3.179
35132SOL    HW2 7294   4.520   9.313   3.034
35133SOL     OW 7295  14.305   2.796   3.390
35133SOL    HW1 7296  14.340   2.848   3.463
35133SOL    HW2 7297  14.379   2.786   3.331
35134SOL     OW 7298   0.177  14.308   3.635
35134SOL    HW1 7299   0.170  14.236   3.571
35134SOL    HW2 7300   0.199  14.385   3.582
35135SOL     OW 7301   1.398   3.211   8.408
35135SOL    HW1 7302   1.317   3.250   8.374
35135SOL    HW2 7303   1.406   3.247   8.496
35136SOL     OW 7304  12.110   5.423   9.503
35136SOL    HW1 7305  12.145   5.429   9.414
35136SOL    HW2 7306  12.128   5.508   9.541
35137SOL     OW 7307   2.934  11.895   8.100
35137SOL    HW1 7308   2.881  11.948   8.040
35137SOL    HW2 7309   2.943  11.950   8.178
35138SOL     OW 7310   4.156   1.981   6.958
35138SOL    HW1 7311   4.069   1.955   6.987
35138SOL    HW2 7312   4.213   1.963   7.033
35139SOL     OW 7313   8.804   2.617   3.969
35139SOL    HW1 7314   8.739   2.547   3.964
35139SOL    HW2 7315   8.849   2.602   4.052
35140SOL     OW 7316   8.998   3.113   2.317
35140SOL    HW1 7317   8.937   3.089   2.386
35140SOL    HW2 7318   8.944   3.124   2.239
35141SOL     OW 7319   1.615   8.384   0.028
35141SOL    HW1 7320   1.559   8.453  14.871
35141SOL    HW2 7321   1.643   8.333  14.832
35142SOL     OW 7322  13.529  12.852  12.982
35142SOL    HW1 7323  13.576  12.804  13.050
35142SOL    HW2 7324  13.543  12.800  12.902
35143SOL     OW 7325   1.149   8.637   9.207
35143SOL    HW1 7326   1.120   8.728   9.198
35143SOL    HW2 7327   1.127   8.596   9.123
35144SOL     OW 7328  13.763  14.451   4.444
35144SOL    HW1 7329  13.669  14.464   4.428
35144SOL    HW2 7330  13.797  14.417   4.361
35145SOL     OW 7331   3.319   8.461   2.920
35145SOL    HW1 7332   3.292   8.547   2.951
35145SOL    HW2 7333   3.351   8.415   2.998
35146SOL     OW 7334   0.133   8.746  14.088
35146SOL    HW1 7335   0.211   8.786  14.049
35146SOL    HW2 7336   0.086   8.707  14.013
35147SOL     OW 7337  10.787   2.449   6.318
35147SOL    HW1 7338  10.711   2.424   6.266
35147SOL    HW2 7339  10.856   2.465   6.254
35148SOL     OW 7340   4.249  13.192   0.855
35148SOL    HW1 7341   4.306  13.214   0.929
35148SOL    HW2 7342   4.204  13.273   0.834
35149SOL     OW 7343   6.864  12.975   5.623
35149SOL    HW1 7344   6.842  13.059   5.582
35149SOL    HW2 7345   6.949  12.952   5.586
35150SOL     OW 7346   2.995   6.149   0.080
35150SOL    HW1 7347   2.917   6.165   0.027
35150SOL    HW2 7348   2.969   6.175   0.169
35151SOL     OW 7349  12.027   1.625  13.665
35151SOL    HW1 7350  12.086   1.581  13.727
35151SOL    HW2 7351  12.079   1.634  13.585
35152SOL     OW 7352   5.298   0.535   6.378
35152SOL    HW1 7353   5.375   0.520   6.434
35152SOL    HW2 7354   5.336   0.551   6.291
35153SOL     OW 7355  13.959  14.691   1.537
35153SOL    HW1 7356  13.894  14.760   1.551
35153SOL    HW2 7357  14.043  14.734   1.552
35154SOL     OW 7358   7.348   1.532   1.840
35154SOL    HW1 7359   7.307   1.577   1.766
35154SOL    HW2 7360   7.321   1.441   1.830
35155SOL     OW 7361   5.204   9.184  13.462
35155SOL    HW1 7362   5.223   9.122  13.532
35155SOL    HW2 7363   5.109   9.177  13.449
35156SOL     OW 7364   1.743  10.473   2.441
35156SOL    HW1 7365   1.784  10.422   2.510
35156SOL    HW2 7366   1.737  10.412   2.367
35157SOL     OW 7367  11.032   9.981  14.149
35157SOL    HW1 7368  10.992  10.067  14.163
35157SOL    HW2 7369  11.002   9.928  14.223
35158SOL     OW 7370   8.333   1.578  13.335
35158SOL    HW1 7371   8.373   1.562  13.421
35158SOL    HW2 7372   8.245   1.610  13.354
35159SOL     OW 7373   7.922   6.783   0.864
35159SOL    HW1 7374   7.935   6.700   0.819
35159SOL    HW2 7375   7.925   6.761   0.957
35160SOL     OW 7376   7.651   4.472   2.039
35160SOL    HW1 7377   7.567   4.516   2.054
35160SOL    HW2 7378   7.684   4.451   2.127
35161SOL     OW 7379   7.918  11.767   5.594
35161SOL    HW1 7380   7.984  11.710   5.633
35161SOL    HW2 7381   7.837  11.743   5.638
35162SOL     OW 7382  13.248   0.598   1.830
35162SOL    HW1 7383  13.173   0.614   1.887
35162SOL    HW2 7384  13.322   0.589   1.890
35163SOL     OW 7385  14.096  12.515  14.847
35163SOL    HW1 7386  14.027  12.514  14.781
35163SOL    HW2 7387  14.109  12.423  14.869
35164SOL     OW 7388  10.600   4.867   9.791
35164SOL    HW1 7389  10.543   4.909   9.726
35164SOL    HW2 7390  10.688   4.877   9.755
35165SOL     OW 7391   4.083   0.109   3.075
35165SOL    HW1 7392   4.105   0.080   2.986
35165SOL    HW2 7393   4.046   0.031   3.117
35166SOL     OW 7394   9.153  11.884   5.829
35166SOL    HW1 7395   9.140  11.805   5.880
35166SOL    HW2 7396   9.200  11.855   5.751
35167SOL     OW 7397   0.865   8.407  12.236
35167SOL    HW1 7398   0.847   8.355  12.315
35167SOL    HW2 7399   0.943   8.366  12.198
35168SOL     OW 7400  11.335  10.455   5.776
35168SOL    HW1 7401  11.269  10.513   5.814
35168SOL    HW2 7402  11.287  10.403   5.712
35169SOL     OW 7403   4.583   6.904   8.012
35169SOL    HW1 7404   4.574   6.919   7.918
35169SOL    HW2 7405   4.604   6.991   8.048
35170SOL     OW 7406  12.784   7.747   7.902
35170SOL    HW1 7407  12.784   7.738   7.997
35170SOL    HW2 7408  12.703   7.793   7.882
35171SOL     OW 7409   6.792   6.266  10.802
35171SOL    HW1 7410   6.697   6.269  10.801
35171SOL    HW2 7411   6.815   6.194  10.744
35172SOL     OW 7412   0.511   6.026   1.854
35172SOL    HW1 7413   0.440   6.048   1.793
35172SOL    HW2 7414   0.470   5.972   1.921
35173SOL     OW 7415   9.177   0.478   6.006
35173SOL    HW1 7416   9.233   0.413   6.048
35173SOL    HW2 7417   9.154   0.539   6.077
35174SOL     OW 7418   5.748  14.484   7.046
35174SOL    HW1 7419   5.842  14.496   7.050
35174SOL    HW2 7420   5.729  14.471   6.953
35175SOL     OW 7421   1.313   0.855  11.818
35175SOL    HW1 7422   1.354   0.816  11.895
35175SOL    HW2 7423   1.226   0.814  11.814
35176SOL     OW 7424   0.627  10.065   1.039
35176SOL    HW1 7425   0.691   9.995   1.046
35176SOL    HW2 7426   0.636  10.114   1.120
35177SOL     OW 7427  12.833  12.009  14.500
35177SOL    HW1 7428  12.903  12.045  14.445
35177SOL    HW2 7429  12.763  12.075  14.495
35178SOL     OW 7430  14.262   1.951   8.507
35178SOL    HW1 7431  14.317   1.879   8.537
35178SOL    HW2 7432  14.224   1.988   8.587
35179SOL     OW 7433  14.775  14.590   9.313
35179SOL    HW1 7434  14.755  14.638   9.393
35179SOL    HW2 7435  14.699  14.605   9.256
35180SOL     OW 7436  10.071  12.477   7.163
35180SOL    HW1 7437  10.005  12.539   7.132
35180SOL    HW2 7438  10.060  12.476   7.258
35181SOL     OW 7439   5.801   4.949   6.550
35181SOL    HW1 7440   5.723   4.905   6.583
35181SOL    HW2 7441   5.859   4.957   6.625
35182SOL     OW 7442  14.218   1.768   8.111
35182SOL    HW1 7443  14.239   1.728   8.027
35182SOL    HW2 7444  14.133   1.810   8.096
35183SOL     OW 7445  12.446  14.221   7.430
35183SOL    HW1 7446  12.403  14.237   7.346
35183SOL    HW2 7447  12.376  14.191   7.488
35184SOL     OW 7448   9.371  12.211  13.137
35184SOL    HW1 7449   9.287  12.190  13.096
35184SOL    HW2 7450   9.426  12.134  13.121
35185SOL     OW 7451   0.771   5.689  11.469
35185SOL    HW1 7452   0.856   5.729  11.448
35185SOL    HW2 7453   0.775   5.602  11.429
35186SOL     OW 7454  10.220   0.567   9.775
35186SOL    HW1 7455  10.224   0.472   9.785
35186SOL    HW2 7456  10.173   0.581   9.693
35187SOL     OW 7457   9.668   9.025   3.359
35187SOL    HW1 7458   9.673   9.043   3.265
35187SOL    HW2 7459   9.617   8.945   3.366
35188SOL     OW 7460   1.867   0.606  12.986
35188SOL    HW1 7461   1.932   0.571  12.925
35188SOL    HW2 7462   1.848   0.534  13.045
35189SOL     OW 7463   5.277  14.398  13.957
35189SOL    HW1 7464   5.266  14.493  13.952
35189SOL    HW2 7465   5.198  14.368  14.002
35190SOL     OW 7466   0.593   3.443   9.812
35190SOL    HW1 7467   0.636   3.528   9.823
35190SOL    HW2 7468   0.541   3.432   9.891
35191SOL     OW 7469   1.441   1.518   1.940
35191SOL    HW1 7470   1.516   1.565   1.903
35191SOL    HW2 7471   1.406   1.468   1.866
35192SOL     OW 7472  13.093   5.301   9.645
35192SOL    HW1 7473  13.184   5.304   9.615
35192SOL    HW2 7474  13.053   5.380   9.610
35193SOL     OW 7475   1.978  14.839   4.936
35193SOL    HW1 7476   1.952   0.035   4.883
35193SOL    HW2 7477   2.038  14.790   4.880
35194SOL     OW 7478  14.106   4.759   8.037
35194SOL    HW1 7479  14.091   4.765   8.131
35194SOL    HW2 7480  14.018   4.744   8.000
35195SOL     OW 7481   3.172   3.438   6.534
35195SOL    HW1 7482   3.156   3.355   6.579
35195SOL    HW2 7483   3.251   3.473   6.575
35196SOL     OW 7484   8.165  11.692   8.701
35196SOL    HW1 7485   8.256  11.668   8.719
35196SOL    HW2 7486   8.125  11.702   8.787
35197SOL     OW 7487  10.736  12.703   0.450
35197SOL    HW1 7488  10.824  12.732   0.470
35197SOL    HW2 7489  10.680  12.747   0.514
35198SOL     OW 7490  11.522   5.334  12.212
35198SOL    HW1 7491  11.523   5.427  12.189
35198SOL    HW2 7492  11.539   5.289  12.129
35199SOL     OW 7493  12.455   5.497  13.294
35199SOL    HW1 7494  12.508   5.459  13.224
35199SOL    HW2 7495  12.382   5.436  13.304
35200SOL     OW 7496   9.672   2.343   9.692
35200SOL    HW1 7497   9.724   2.309   9.619
35200SOL    HW2 7498   9.663   2.437   9.674
35201SOL     OW 7499   2.718   4.038  14.660
35201SOL    HW1 7500   2.730   4.120  14.613
35201SOL    HW2 7501   2.632   4.047  14.702
35202SOL     OW 7502  12.321  10.696   9.006
35202SOL    HW1 7503  12.416  10.701   8.999
35202SOL    HW2 7504  12.288  10.747   8.932
35203SOL     OW 7505   5.777   5.740   2.189
35203SOL    HW1 7506   5.810   5.829   2.178
35203SOL    HW2 7507   5.751   5.735   2.281
35204SOL     OW 7508   5.830   3.493   5.432
35204SOL    HW1 7509   5.785   3.438   5.368
35204SOL    HW2 7510   5.788   3.472   5.515
35205SOL     OW 7511  11.751   4.958  12.123
35205SOL    HW1 7512  11.815   4.887  12.129
35205SOL    HW2 7513  11.691   4.930  12.055
35206SOL     OW 7514   2.455  11.952   4.603
35206SOL    HW1 7515   2.378  11.995   4.566
35206SOL    HW2 7516   2.487  12.014   4.669
35207SOL     OW 7517   5.724   1.043   7.823
35207SOL    HW1 7518   5.815   1.035   7.794
35207SOL    HW2 7519   5.726   1.113   7.889
35208SOL     OW 7520   1.489  14.419   3.601
35208SOL    HW1 7521   1.523  14.352   3.660
35208SOL    HW2 7522   1.499  14.381   3.514
35209SOL     OW 7523   4.017   8.705   0.552
35209SOL    HW1 7524   3.975   8.789   0.537
35209SOL    HW2 7525   4.074   8.692   0.476
35210SOL     OW 7526   1.703   2.772   1.383
35210SOL    HW1 7527   1.614   2.807   1.387
35210SOL    HW2 7528   1.696   2.692   1.333
35211SOL     OW 7529   9.168   6.322   0.465
35211SOL    HW1 7530   9.181   6.413   0.490
35211SOL    HW2 7531   9.250   6.297   0.424
35212SOL     OW 7532  11.923   6.025   1.572
35212SOL    HW1 7533  11.934   5.932   1.550
35212SOL    HW2 7534  11.957   6.072   1.496
35213SOL     OW 7535   0.686   2.992  14.762
35213SOL    HW1 7536   0.683   3.030  14.675
35213SOL    HW2 7537   0.769   3.022  14.799
35214SOL     OW 7538   3.965  10.989   7.092
35214SOL    HW1 7539   3.948  11.062   7.151
35214SOL    HW2 7540   3.920  10.914   7.131
35215SOL     OW 7541   9.965   9.818  12.863
35215SOL    HW1 7542   9.869   9.816  12.866
35215SOL    HW2 7543   9.986   9.809  12.771
35216SOL     OW 7544  12.736   3.746  11.592
35216SOL    HW1 7545  12.778   3.811  11.648
35216SOL    HW2 7546  12.806   3.713  11.537
35217SOL     OW 7547  14.200   7.023   7.964
35217SOL    HW1 7548  14.259   7.083   7.919
35217SOL    HW2 7549  14.225   6.936   7.934
35218SOL     OW 7550   3.856  13.039  11.992
35218SOL    HW1 7551   3.854  13.060  12.085
35218SOL    HW2 7552   3.863  12.944  11.988
35219SOL     OW 7553   9.202   0.733   1.490
35219SOL    HW1 7554   9.205   0.638   1.480
35219SOL    HW2 7555   9.132   0.761   1.431
35220SOL     OW 7556  14.753   6.682  12.159
35220SOL    HW1 7557  14.800   6.604  12.190
35220SOL    HW2 7558  14.723   6.658  12.071
35221SOL     OW 7559   5.470   8.588   7.702
35221SOL    HW1 7560   5.463   8.519   7.637
35221SOL    HW2 7561   5.526   8.551   7.770
35222SOL     OW 7562   8.399   8.857   5.719
35222SOL    HW1 7563   8.354   8.913   5.782
35222SOL    HW2 7564   8.355   8.772   5.726
35223SOL     OW 7565   7.218   1.619   9.775
35223SOL    HW1 7566   7.225   1.710   9.746
35223SOL    HW2 7567   7.301   1.579   9.748
35224SOL     OW 7568  13.970  12.434   8.063
35224SOL    HW1 7569  14.005  12.487   7.991
35224SOL    HW2 7570  14.032  12.361   8.070
35225SOL     OW 7571  12.257  12.049   4.907
35225SOL    HW1 7572  12.257  12.144   4.903
35225SOL    HW2 7573  12.182  12.027   4.963
35226SOL     OW 7574   9.644   6.090  14.112
35226SOL    HW1 7575   9.712   6.153  14.137
35226SOL    HW2 7576   9.691   6.023  14.061
35227SOL     OW 7577  14.666   2.272   1.959
35227SOL    HW1 7578  14.761   2.276   1.946
35227SOL    HW2 7579  14.632   2.244   1.874
35228SOL     OW 7580  10.962  13.601   0.311
35228SOL    HW1 7581  11.001  13.682   0.277
35228SOL    HW2 7582  11.035  13.553   0.350
35229SOL     OW 7583   4.675   7.947   0.350
35229SOL    HW1 7584   4.608   7.952   0.282
35229SOL    HW2 7585   4.720   7.865   0.333
35230SOL     OW 7586  14.641  12.466   0.987
35230SOL    HW1 7587  14.726  12.479   1.029
35230SOL    HW2 7588  14.605  12.554   0.978
35231SOL     OW 7589   2.886   6.640  11.602
35231SOL    HW1 7590   2.828   6.670  11.672
35231SOL    HW2 7591   2.973   6.668  11.630
35232SOL     OW 7592   4.504   9.966   4.657
35232SOL    HW1 7593   4.507   9.870   4.657
35232SOL    HW2 7594   4.571   9.992   4.721
35233SOL     OW 7595   5.876   6.159   5.745
35233SOL    HW1 7596   5.917   6.088   5.795
35233SOL    HW2 7597   5.850   6.223   5.811
35234SOL     OW 7598   1.476  13.051   7.637
35234SOL    HW1 7599   1.451  13.140   7.664
35234SOL    HW2 7600   1.497  13.007   7.720
35235SOL     OW 7601   1.142  12.045   5.805
35235SOL    HW1 7602   1.132  12.108   5.733
35235SOL    HW2 7603   1.060  12.050   5.853
35236SOL     OW 7604  11.407  13.835   9.022
35236SOL    HW1 7605  11.442  13.750   8.997
35236SOL    HW2 7606  11.341  13.815   9.088
35237SOL     OW 7607   2.200   5.736   1.949
35237SOL    HW1 7608   2.233   5.650   1.974
35237SOL    HW2 7609   2.115   5.719   1.908
35238SOL     OW 7610  10.335   1.546   7.705
35238SOL    HW1 7611  10.426   1.575   7.703
35238SOL    HW2 7612  10.330   1.488   7.780
35239SOL     OW 7613   3.497   2.643   1.791
35239SOL    HW1 7614   3.421   2.657   1.735
35239SOL    HW2 7615   3.566   2.614   1.731
35240SOL     OW 7616   7.734   9.990   9.304
35240SOL    HW1 7617   7.676  10.065   9.299
35240SOL    HW2 7618   7.798  10.004   9.234
35241SOL     OW 7619  11.436   8.115   7.013
35241SOL    HW1 7620  11.455   8.110   7.106
35241SOL    HW2 7621  11.382   8.038   6.995
35242SOL     OW 7622   6.324   1.042   5.170
35242SOL    HW1 7623   6.323   1.134   5.144
35242SOL    HW2 7624   6.290   0.996   5.094
35243SOL     OW 7625   1.076  13.443   7.344
35243SOL    HW1 7626   1.136  13.517   7.354
35243SOL    HW2 7627   1.079  13.398   7.428
35244SOL     OW 7628   8.546   9.340   7.257
35244SOL    HW1 7629   8.590   9.422   7.282
35244SOL    HW2 7630   8.457   9.367   7.236
35245SOL     OW 7631  10.868   0.711   1.323
35245SOL    HW1 7632  10.920   0.727   1.403
35245SOL    HW2 7633  10.858   0.616   1.320
35246SOL     OW 7634  10.520   2.179   9.722
35246SOL    HW1 7635  10.452   2.226   9.769
35246SOL    HW2 7636  10.544   2.238   9.650
35247SOL     OW 7637   0.020  13.300  13.134
35247SOL    HW1 7638   0.089  13.308  13.200
35247SOL    HW2 7639  14.860  13.215  13.151
35248SOL     OW 7640   2.501  12.499  10.988
35248SOL    HW1 7641   2.580  12.491  11.041
35248SOL    HW2 7642   2.526  12.466  10.902
35249SOL     OW 7643  11.245  11.922   3.849
35249SOL    HW1 7644  11.153  11.897   3.857
35249SOL    HW2 7645  11.286  11.888   3.928
35250SOL     OW 7646   2.367  14.280   1.036
35250SOL    HW1 7647   2.451  14.264   1.078
35250SOL    HW2 7648   2.313  14.318   1.105
35251SOL     OW 7649   2.233  11.971   2.784
35251SOL    HW1 7650   2.297  11.954   2.714
35251SOL    HW2 7651   2.151  11.935   2.750
35252SOL     OW 7652   7.249   6.675  11.048
35252SOL    HW1 7653   7.312   6.605  11.064
35252SOL    HW2 7654   7.265   6.738  11.119
35253SOL     OW 7655  10.024   1.298   3.054
35253SOL    HW1 7656   9.969   1.363   3.010
35253SOL    HW2 7657  10.043   1.336   3.139
35254SOL     OW 7658  14.413  11.268   0.107
35254SOL    HW1 7659  14.442  11.352   0.072
35254SOL    HW2 7660  14.465  11.257   0.187
35255SOL     OW 7661   5.691   1.646   9.766
35255SOL    HW1 7662   5.715   1.734   9.739
35255SOL    HW2 7663   5.773   1.598   9.768
35256SOL     OW 7664   8.208  11.621   9.186
35256SOL    HW1 7665   8.151  11.697   9.177
35256SOL    HW2 7666   8.168  11.568   9.254
35257SOL     OW 7667  10.860  13.173   8.383
35257SOL    HW1 7668  10.917  13.160   8.308
35257SOL    HW2 7669  10.901  13.244   8.432
35258SOL     OW 7670  12.363   5.952   7.368
35258SOL    HW1 7671  12.396   6.007   7.297
35258SOL    HW2 7672  12.274   5.929   7.341
35259SOL     OW 7673   5.365   8.920   4.084
35259SOL    HW1 7674   5.420   8.848   4.115
35259SOL    HW2 7675   5.401   8.942   3.998
35260SOL     OW 7676  13.776   0.079  10.820
35260SOL    HW1 7677  13.846   0.059  10.758
35260SOL    HW2 7678  13.782   0.010  10.886
35261SOL     OW 7679  13.639   9.740   9.345
35261SOL    HW1 7680  13.640   9.660   9.397
35261SOL    HW2 7681  13.639   9.709   9.254
35262SOL     OW 7682   8.553   6.710   9.884
35262SOL    HW1 7683   8.467   6.670   9.878
35262SOL    HW2 7684   8.613   6.637   9.897
35263SOL     OW 7685   8.463  12.134   1.562
35263SOL    HW1 7686   8.505  12.077   1.498
35263SOL    HW2 7687   8.404  12.188   1.510
35264SOL     OW 7688   9.194   7.168  11.450
35264SOL    HW1 7689   9.229   7.079  11.437
35264SOL    HW2 7690   9.146   7.163  11.533
35265SOL     OW 7691   4.335   0.403  14.870
35265SOL    HW1 7692   4.347   0.358   0.075
35265SOL    HW2 7693   4.257   0.456   0.002
35266SOL     OW 7694   7.850   6.339  13.062
35266SOL    HW1 7695   7.944   6.324  13.063
35266SOL    HW2 7696   7.841   6.434  13.070
35267SOL     OW 7697   2.129   1.070   0.837
35267SOL    HW1 7698   2.058   1.134   0.848
35267SOL    HW2 7699   2.092   1.004   0.779
35268SOL     OW 7700   4.055  12.877   3.583
35268SOL    HW1 7701   3.975  12.859   3.631
35268SOL    HW2 7702   4.025  12.910   3.498
35269SOL     OW 7703   5.930   3.210   9.598
35269SOL    HW1 7704   5.924   3.244   9.688
35269SOL    HW2 7705   5.841   3.186   9.575
35270SOL     OW 7706   4.397   5.690  12.651
35270SOL    HW1 7707   4.405   5.605  12.694
35270SOL    HW2 7708   4.472   5.740  12.682
35271SOL     OW 7709   3.234   7.509   6.820
35271SOL    HW1 7710   3.315   7.473   6.783
35271SOL    HW2 7711   3.257   7.530   6.910
35272SOL     OW 7712   7.096   9.492   5.138
35272SOL    HW1 7713   7.141   9.407   5.138
35272SOL    HW2 7714   7.121   9.533   5.055
35273SOL     OW 7715   6.662   7.755   3.773
35273SOL    HW1 7716   6.669   7.805   3.855
35273SOL    HW2 7717   6.744   7.706   3.768
35274SOL     OW 7718  11.327   0.341  11.904
35274SOL    HW1 7719  11.274   0.264  11.884
35274SOL    HW2 7720  11.358   0.372  11.818
35275SOL     OW 7721   2.631   0.316  11.900
35275SOL    HW1 7722   2.691   0.270  11.958
35275SOL    HW2 7723   2.594   0.386  11.954
35276SOL     OW 7724   4.873   0.605   3.671
35276SOL    HW1 7725   4.860   0.603   3.577
35276SOL    HW2 7726   4.932   0.680   3.685
35277SOL     OW 7727   8.995  11.508  12.111
35277SOL    HW1 7728   9.015  11.567  12.038
35277SOL    HW2 7729   9.014  11.420  12.077
35278SOL     OW 7730   6.895  10.831  13.712
35278SOL    HW1 7731   6.927  10.787  13.634
35278SOL    HW2 7732   6.800  10.835  13.700
35279SOL     OW 7733   2.219  10.952   7.749
35279SOL    HW1 7734   2.141  11.007   7.760
35279SOL    HW2 7735   2.185  10.862   7.749
35280SOL     OW 7736   0.490   2.324   2.378
35280SOL    HW1 7737   0.477   2.232   2.357
35280SOL    HW2 7738   0.570   2.349   2.331
35281SOL     OW 7739  13.317  10.892   9.101
35281SOL    HW1 7740  13.389  10.949   9.126
35281SOL    HW2 7741  13.245  10.918   9.157
35282SOL     OW 7742   1.622  10.530   9.375
35282SOL    HW1 7743   1.553  10.594   9.358
35282SOL    HW2 7744   1.638  10.488   9.291
35283SOL     OW 7745   8.046   9.380   2.761
35283SOL    HW1 7746   8.090   9.366   2.845
35283SOL    HW2 7747   7.988   9.454   2.777
35284SOL     OW 7748  11.929   7.592  13.081
35284SOL    HW1 7749  11.958   7.526  13.017
35284SOL    HW2 7750  12.008   7.612  13.132
35285SOL     OW 7751  10.601   6.873  10.646
35285SOL    HW1 7752  10.601   6.845  10.738
35285SOL    HW2 7753  10.633   6.963  10.649
35286SOL     OW 7754   5.387   6.229   8.409
35286SOL    HW1 7755   5.377   6.272   8.324
35286SOL    HW2 7756   5.475   6.190   8.405
35287SOL     OW 7757   3.006   6.312   1.032
35287SOL    HW1 7758   2.912   6.325   1.020
35287SOL    HW2 7759   3.046   6.384   0.984
35288SOL     OW 7760   8.358   7.571   0.042
35288SOL    HW1 7761   8.322   7.496   0.089
35288SOL    HW2 7762   8.403   7.622   0.109
35289SOL     OW 7763   6.982   8.220   9.374
35289SOL    HW1 7764   6.959   8.262   9.456
35289SOL    HW2 7765   7.062   8.171   9.394
35290SOL     OW 7766   6.316   0.794   4.734
35290SOL    HW1 7767   6.272   0.717   4.697
35290SOL    HW2 7768   6.409   0.771   4.731
35291SOL     OW 7769   4.067   3.043   2.028
35291SOL    HW1 7770   3.996   3.093   2.067
35291SOL    HW2 7771   4.064   2.958   2.072
35292SOL     OW 7772   5.229  13.919  14.048
35292SOL    HW1 7773   5.305  13.975  14.066
35292SOL    HW2 7774   5.156  13.981  14.044
35293SOL     OW 7775   2.516   0.170  13.269
35293SOL    HW1 7776   2.470   0.166  13.352
35293SOL    HW2 7777   2.582   0.100  13.275
35294SOL     OW 7778   4.045   0.762  11.446
35294SOL    HW1 7779   4.081   0.838  11.399
35294SOL    HW2 7780   4.105   0.748  11.520
35295SOL     OW 7781   9.688   9.071   8.291
35295SOL    HW1 7782   9.694   8.977   8.307
35295SOL    HW2 7783   9.615   9.100   8.346
35296SOL     OW 7784   0.956  13.864  12.514
35296SOL    HW1 7785   0.953  13.769  12.530
35296SOL    HW2 7786   0.871  13.885  12.476
35297SOL     OW 7787  10.745   4.053   0.778
35297SOL    HW1 7788  10.726   3.964   0.808
35297SOL    HW2 7789  10.838   4.064   0.795
35298SOL     OW 7790  13.529   0.825   0.346
35298SOL    HW1 7791  13.527   0.841   0.251
35298SOL    HW2 7792  13.623   0.814   0.365
35299SOL     OW 7793  14.171  12.088   3.668
35299SOL    HW1 7794  14.182  12.036   3.747
35299SOL    HW2 7795  14.091  12.139   3.683
35300SOL     OW 7796   9.143  13.230  11.567
35300SOL    HW1 7797   9.193  13.159  11.526
35300SOL    HW2 7798   9.051  13.207  11.549
35301SOL     OW 7799   7.752   6.256   1.507
35301SOL    HW1 7800   7.703   6.255   1.590
35301SOL    HW2 7801   7.734   6.171   1.468
35302SOL     OW 7802  10.809  13.234   0.070
35302SOL    HW1 7803  10.861  13.187   0.005
35302SOL    HW2 7804  10.855  13.219   0.153
35303SOL     OW 7805  12.800  10.316   7.816
35303SOL    HW1 7806  12.752  10.250   7.866
35303SOL    HW2 7807  12.869  10.267   7.772
35304SOL     OW 7808   7.988   8.363   1.694
35304SOL    HW1 7809   8.042   8.307   1.751
35304SOL    HW2 7810   7.965   8.438   1.749
35305SOL     OW 7811   4.431   2.739   1.110
35305SOL    HW1 7812   4.355   2.794   1.127
35305SOL    HW2 7813   4.395   2.652   1.093
35306SOL     OW 7814  12.320   3.420   4.079
35306SOL    HW1 7815  12.298   3.512   4.095
35306SOL    HW2 7816  12.237   3.380   4.053
35307SOL     OW 7817  14.095   5.078   4.635
35307SOL    HW1 7818  14.045   5.159   4.636
35307SOL    HW2 7819  14.033   5.011   4.665
35308SOL     OW 7820  10.198   4.498   4.018
35308SOL    HW1 7821  10.159   4.525   3.935
35308SOL    HW2 7822  10.242   4.415   3.999
35309SOL     OW 7823  14.519  13.107  11.292
35309SOL    HW1 7824  14.577  13.157  11.234
35309SOL    HW2 7825  14.454  13.068  11.233
35310SOL     OW 7826  10.154  11.407  10.412
35310SOL    HW1 7827  10.222  11.351  10.449
35310SOL    HW2 7828  10.115  11.451  10.488
35311SOL     OW 7829   1.287   4.323   8.049
35311SOL    HW1 7830   1.373   4.349   8.081
35311SOL    HW2 7831   1.290   4.227   8.050
35312SOL     OW 7832   9.454   8.702  14.162
35312SOL    HW1 7833   9.478   8.625  14.213
35312SOL    HW2 7834   9.516   8.770  14.190
35313SOL     OW 7835   5.520   8.659   5.648
35313SOL    HW1 7836   5.550   8.701   5.567
35313SOL    HW2 7837   5.487   8.731   5.701
35314SOL     OW 7838   9.947  13.617   7.101
35314SOL    HW1 7839   9.968  13.673   7.027
35314SOL    HW2 7840  10.024  13.621   7.158
35315SOL     OW 7841   1.439   8.878   2.136
35315SOL    HW1 7842   1.463   8.961   2.094
35315SOL    HW2 7843   1.514   8.857   2.192
35316SOL     OW 7844   5.111   7.602   6.746
35316SOL    HW1 7845   5.134   7.537   6.813
35316SOL    HW2 7846   5.131   7.686   6.786
35317SOL     OW 7847  11.437  10.457   8.621
35317SOL    HW1 7848  11.391  10.536   8.650
35317SOL    HW2 7849  11.512  10.449   8.681
35318SOL     OW 7850   1.345  14.095  13.713
35318SOL    HW1 7851   1.384  14.171  13.670
35318SOL    HW2 7852   1.311  14.041  13.642
35319SOL     OW 7853  11.057   4.689   8.147
35319SOL    HW1 7854  11.098   4.775   8.155
35319SOL    HW2 7855  10.964   4.705   8.165
35320SOL     OW 7856   4.160  11.138  14.719
35320SOL    HW1 7857   4.124  11.059  14.759
35320SOL    HW2 7858   4.082  11.189  14.694
35321SOL     OW 7859   0.379   0.707   4.638
35321SOL    HW1 7860   0.462   0.709   4.685
35321SOL    HW2 7861   0.393   0.643   4.568
35322SOL     OW 7862   9.624  12.989  11.287
35322SOL    HW1 7863   9.677  12.910  11.275
35322SOL    HW2 7864   9.682  13.050  11.333
35323SOL     OW 7865   5.596   4.840  12.589
35323SOL    HW1 7866   5.583   4.829  12.683
35323SOL    HW2 7867   5.639   4.926  12.581
35324SOL     OW 7868   8.918   2.240   5.739
35324SOL    HW1 7869   8.984   2.256   5.671
35324SOL    HW2 7870   8.966   2.245   5.821
35325SOL     OW 7871   7.636  12.869   8.560
35325SOL    HW1 7872   7.659  12.960   8.540
35325SOL    HW2 7873   7.619  12.829   8.475
35326SOL     OW 7874   5.245   5.805   6.193
35326SOL    HW1 7875   5.156   5.780   6.216
35326SOL    HW2 7876   5.244   5.816   6.098
35327SOL     OW 7877  14.423   1.435   5.112
35327SOL    HW1 7878  14.481   1.511   5.104
35327SOL    HW2 7879  14.483   1.360   5.110
35328SOL     OW 7880  10.088  13.578   0.156
35328SOL    HW1 7881  10.155  13.532   0.106
35328SOL    HW2 7882  10.123  13.667   0.168
35329SOL     OW 7883   3.688   2.162   4.078
35329SOL    HW1 7884   3.782   2.173   4.068
35329SOL    HW2 7885   3.653   2.166   3.989
35330SOL     OW 7886   0.517  12.041   8.155
35330SOL    HW1 7887   0.578  12.107   8.186
35330SOL    HW2 7888   0.431  12.083   8.161
35331SOL     OW 7889  11.027  10.652   1.197
35331SOL    HW1 7890  11.008  10.701   1.117
35331SOL    HW2 7891  11.105  10.600   1.176
35332SOL     OW 7892   6.951   7.805   2.990
35332SOL    HW1 7893   7.038   7.765   2.994
35332SOL    HW2 7894   6.957   7.882   3.046
35333SOL     OW 7895   8.411  12.491  14.668
35333SOL    HW1 7896   8.421  12.566  14.726
35333SOL    HW2 7897   8.375  12.421  14.723
35334SOL     OW 7898   0.038  12.880   1.647
35334SOL    HW1 7899   0.010  12.824   1.575
35334SOL    HW2 7900   0.133  12.887   1.636
35335SOL     OW 7901   0.217   3.548   2.339
35335SOL    HW1 7902   0.305   3.538   2.301
35335SOL    HW2 7903   0.160   3.502   2.277
35336SOL     OW 7904  14.497   5.044  11.435
35336SOL    HW1 7905  14.561   4.976  11.457
35336SOL    HW2 7906  14.547   5.109  11.385
35337SOL     OW 7907   8.625  12.214   4.997
35337SOL    HW1 7908   8.543  12.218   4.947
35337SOL    HW2 7909   8.604  12.257   5.080
35338SOL     OW 7910  12.610  12.924   0.803
35338SOL    HW1 7911  12.683  12.874   0.767
35338SOL    HW2 7912  12.645  13.012   0.818
35339SOL     OW 7913   3.981   8.565   9.168
35339SOL    HW1 7914   3.922   8.490   9.181
35339SOL    HW2 7915   4.068   8.526   9.158
35340SOL     OW 7916   4.615   9.404   5.235
35340SOL    HW1 7917   4.542   9.361   5.279
35340SOL    HW2 7918   4.668   9.332   5.200
35341SOL     OW 7919   2.454   5.768   2.218
35341SOL    HW1 7920   2.506   5.804   2.289
35341SOL    HW2 7921   2.508   5.780   2.140
35342SOL     OW 7922   1.969   0.064  11.637
35342SOL    HW1 7923   2.007   0.040  11.553
35342SOL    HW2 7924   1.884   0.020  11.638
35343SOL     OW 7925  11.288   0.781  14.723
35343SOL    HW1 7926  11.331   0.802  14.640
35343SOL    HW2 7927  11.267   0.688  14.716
35344SOL     OW 7928   4.922   9.922   7.114
35344SOL    HW1 7929   5.005   9.881   7.090
35344SOL    HW2 7930   4.936  10.015   7.099
35345SOL     OW 7931  13.956   3.573  10.627
35345SOL    HW1 7932  13.919   3.595  10.542
35345SOL    HW2 7933  13.947   3.478  10.633
35346SOL     OW 7934  12.840   1.807   4.954
35346SOL    HW1 7935  12.866   1.771   5.038
35346SOL    HW2 7936  12.771   1.747   4.923
35347SOL     OW 7937   3.244   8.336   4.767
35347SOL    HW1 7938   3.220   8.248   4.796
35347SOL    HW2 7939   3.338   8.331   4.753
35348SOL     OW 7940   7.386   3.718   8.604
35348SOL    HW1 7941   7.368   3.768   8.684
35348SOL    HW2 7942   7.332   3.760   8.537
35349SOL     OW 7943   5.674   8.288   7.678
35349SOL    HW1 7944   5.609   8.322   7.617
35349SOL    HW2 7945   5.730   8.231   7.624
35350SOL     OW 7946   8.514  13.801   8.134
35350SOL    HW1 7947   8.530  13.746   8.211
35350SOL    HW2 7948   8.576  13.874   8.143
35351SOL     OW 7949   9.386   5.840   6.399
35351SOL    HW1 7950   9.451   5.851   6.468
35351SOL    HW2 7951   9.427   5.877   6.321
35352SOL     OW 7952   9.471   2.882   0.431
35352SOL    HW1 7953   9.399   2.877   0.368
35352SOL    HW2 7954   9.505   2.971   0.421
35353SOL     OW 7955   8.170  13.940  12.216
35353SOL    HW1 7956   8.174  13.987  12.299
35353SOL    HW2 7957   8.092  13.886  12.222
35354SOL     OW 7958  10.003  14.454  11.167
35354SOL    HW1 7959   9.965  14.393  11.103
35354SOL    HW2 7960  10.046  14.521  11.114
35355SOL     OW 7961   9.663   2.960   8.210
35355SOL    HW1 7962   9.609   2.930   8.283
35355SOL    HW2 7963   9.741   2.997   8.252
35356SOL     OW 7964   7.526   6.256   9.423
35356SOL    HW1 7965   7.549   6.223   9.337
35356SOL    HW2 7966   7.469   6.331   9.406
35357SOL     OW 7967   5.972  11.766   1.984
35357SOL    HW1 7968   5.947  11.675   2.004
35357SOL    HW2 7969   5.926  11.786   1.902
35358SOL     OW 7970   3.940   1.908   1.875
35358SOL    HW1 7971   3.993   1.856   1.935
35358SOL    HW2 7972   3.857   1.860   1.867
35359SOL     OW 7973  12.923   6.149   2.648
35359SOL    HW1 7974  12.916   6.212   2.576
35359SOL    HW2 7975  12.896   6.198   2.726
35360SOL     OW 7976   6.028  14.879  12.789
35360SOL    HW1 7977   6.082  14.844  12.718
35360SOL    HW2 7978   6.083   0.067  12.830
35361SOL     OW 7979  11.186  11.149   4.334
35361SOL    HW1 7980  11.206  11.172   4.424
35361SOL    HW2 7981  11.163  11.232   4.292
35362SOL     OW 7982   9.765   5.212   1.711
35362SOL    HW1 7983   9.687   5.257   1.742
35362SOL    HW2 7984   9.747   5.192   1.620
35363SOL     OW 7985   4.580   0.165   8.312
35363SOL    HW1 7986   4.635   0.127   8.243
35363SOL    HW2 7987   4.591   0.260   8.301
35364SOL     OW 7988  11.669   5.652   1.410
35364SOL    HW1 7989  11.612   5.646   1.487
35364SOL    HW2 7990  11.624   5.713   1.352
35365SOL     OW 7991   8.809   5.574  10.397
35365SOL    HW1 7992   8.810   5.496  10.343
35365SOL    HW2 7993   8.716   5.591  10.414
35366SOL     OW 7994   2.570   7.675   3.688
35366SOL    HW1 7995   2.572   7.761   3.644
35366SOL    HW2 7996   2.482   7.641   3.669
35367SOL     OW 7997   9.447  13.570   0.924
35367SOL    HW1 7998   9.533  13.532   0.939
35367SOL    HW2 7999   9.399  13.505   0.874
35368SOL     OW 8000  10.212  12.074   6.626
35368SOL    HW1 8001  10.196  12.142   6.561
35368SOL    HW2 8002  10.307  12.073   6.636
35369SOL     OW 8003   9.978  10.559   3.689
35369SOL    HW1 8004  10.024  10.530   3.610
35369SOL    HW2 8005  10.047  10.566   3.756
35370SOL     OW 8006   9.945   7.847   5.534
35370SOL    HW1 8007   9.997   7.846   5.453
35370SOL    HW2 8008   9.897   7.930   5.531
35371SOL     OW 8009   1.515   5.237   5.955
35371SOL    HW1 8010   1.432   5.232   6.003
35371SOL    HW2 8011   1.489   5.260   5.865
35372SOL     OW 8012   4.855   4.942   4.514
35372SOL    HW1 8013   4.876   4.860   4.469
35372SOL    HW2 8014   4.897   4.933   4.600
35373SOL     OW 8015   7.460   2.398   5.653
35373SOL    HW1 8016   7.402   2.343   5.706
35373SOL    HW2 8017   7.536   2.414   5.708
35374SOL     OW 8018   7.324   4.293   7.016
35374SOL    HW1 8019   7.282   4.208   7.014
35374SOL    HW2 8020   7.263   4.349   7.064
35375SOL     OW 8021  11.506  12.822   4.859
35375SOL    HW1 8022  11.501  12.774   4.777
35375SOL    HW2 8023  11.566  12.894   4.841
35376SOL     OW 8024   4.000   3.296   4.099
35376SOL    HW1 8025   4.050   3.375   4.118
35376SOL    HW2 8026   3.949   3.281   4.179
35377SOL     OW 8027   2.342   6.302   9.142
35377SOL    HW1 8028   2.417   6.262   9.099
35377SOL    HW2 8029   2.327   6.384   9.094
35378SOL     OW 8030   5.129   4.161   1.446
35378SOL    HW1 8031   5.067   4.225   1.412
35378SOL    HW2 8032   5.199   4.157   1.380
35379SOL     OW 8033   7.427   7.623  11.325
35379SOL    HW1 8034   7.426   7.640  11.231
35379SOL    HW2 8035   7.476   7.696  11.363
35380SOL     OW 8036   8.569  11.174  11.277
35380SOL    HW1 8037   8.563  11.257  11.325
35380SOL    HW2 8038   8.662  11.155  11.272
35381SOL     OW 8039   2.788   5.553   5.886
35381SOL    HW1 8040   2.715   5.591   5.837
35381SOL    HW2 8041   2.769   5.575   5.977
35382SOL     OW 8042  12.733  11.524   5.553
35382SOL    HW1 8043  12.725  11.429   5.541
35382SOL    HW2 8044  12.770  11.556   5.471
35383SOL     OW 8045   9.722   6.900  10.241
35383SOL    HW1 8046   9.649   6.937  10.290
35383SOL    HW2 8047   9.785   6.972  10.233
35384SOL     OW 8048   6.077  14.608   8.076
35384SOL    HW1 8049   6.133  14.554   8.131
35384SOL    HW2 8050   6.138  14.664   8.028
35385SOL     OW 8051  14.217  10.654  10.207
35385SOL    HW1 8052  14.264  10.616  10.281
35385SOL    HW2 8053  14.168  10.727  10.245
35386SOL     OW 8054  13.138  13.457  14.829
35386SOL    HW1 8055  13.111  13.366  14.839
35386SOL    HW2 8056  13.062  13.508  14.857
35387SOL     OW 8057   4.809  12.140   1.991
35387SOL    HW1 8058   4.802  12.069   1.927
35387SOL    HW2 8059   4.739  12.201   1.968
35388SOL     OW 8060   3.627  11.737   2.054
35388SOL    HW1 8061   3.536  11.726   2.079
35388SOL    HW2 8062   3.633  11.827   2.021
35389SOL     OW 8063   4.118   5.741   5.307
35389SOL    HW1 8064   4.056   5.668   5.308
35389SOL    HW2 8065   4.186   5.714   5.245
35390SOL     OW 8066   7.962  13.918   3.445
35390SOL    HW1 8067   7.950  14.009   3.471
35390SOL    HW2 8068   8.001  13.876   3.522
35391SOL     OW 8069   1.166   1.673   7.237
35391SOL    HW1 8070   1.121   1.606   7.185
35391SOL    HW2 8071   1.095   1.722   7.279
35392SOL     OW 8072  13.263  11.482   7.145
35392SOL    HW1 8073  13.207  11.540   7.198
35392SOL    HW2 8074  13.314  11.542   7.091
35393SOL     OW 8075  14.777   5.633   9.360
35393SOL    HW1 8076  14.786   5.619   9.454
35393SOL    HW2 8077  14.744   5.723   9.352
35394SOL     OW 8078   2.159   5.553   4.271
35394SOL    HW1 8079   2.207   5.588   4.346
35394SOL    HW2 8080   2.101   5.487   4.308
35395SOL     OW 8081  10.768   4.721   8.100
35395SOL    HW1 8082  10.805   4.670   8.027
35395SOL    HW2 8083  10.727   4.796   8.058
35396SOL     OW 8084  14.001   5.569  12.436
35396SOL    HW1 8085  13.933   5.636  12.427
35396SOL    HW2 8086  14.067   5.609  12.492
35397SOL     OW 8087  11.815  11.319   1.143
35397SOL    HW1 8088  11.738  11.329   1.199
35397SOL    HW2 8089  11.782  11.332   1.054
35398SOL     OW 8090   4.134   0.918   3.939
35398SOL    HW1 8091   4.039   0.920   3.927
35398SOL    HW2 8092   4.160   0.829   3.916
35399SOL     OW 8093  14.321  14.505   2.588
35399SOL    HW1 8094  14.324  14.577   2.525
35399SOL    HW2 8095  14.350  14.545   2.670
35400SOL     OW 8096   9.538  13.346   7.835
35400SOL    HW1 8097   9.463  13.287   7.832
35400SOL    HW2 8098   9.589  13.323   7.757
35401SOL     OW 8099   9.975   9.929  14.769
35401SOL    HW1 8100  10.038   9.984  14.722
35401SOL    HW2 8101  10.028   9.881  14.833
35402SOL     OW 8102   4.149  11.483   3.489
35402SOL    HW1 8103   4.185  11.521   3.569
35402SOL    HW2 8104   4.059  11.515   3.486
35403SOL     OW 8105   9.071   6.224   1.473
35403SOL    HW1 8106   9.050   6.316   1.456
35403SOL    HW2 8107   9.164   6.216   1.450
35404SOL     OW 8108   5.515  14.361   9.214
35404SOL    HW1 8109   5.421  14.344   9.206
35404SOL    HW2 8110   5.556  14.286   9.171
35405SOL     OW 8111   1.614   1.362   4.418
35405SOL    HW1 8112   1.594   1.325   4.504
35405SOL    HW2 8113   1.624   1.456   4.434
35406SOL     OW 8114  13.393  12.702   4.312
35406SOL    HW1 8115  13.435  12.654   4.241
35406SOL    HW2 8116  13.316  12.651   4.334
35407SOL     OW 8117  13.303   8.983  12.695
35407SOL    HW1 8118  13.378   8.964  12.639
35407SOL    HW2 8119  13.247   8.906  12.688
35408SOL     OW 8120  10.849   6.288   7.840
35408SOL    HW1 8121  10.935   6.327   7.850
35408SOL    HW2 8122  10.798   6.323   7.913
35409SOL     OW 8123  10.623  12.148  12.114
35409SOL    HW1 8124  10.701  12.170  12.165
35409SOL    HW2 8125  10.610  12.222  12.055
35410SOL     OW 8126   3.288  10.126   9.359
35410SOL    HW1 8127   3.228  10.134   9.433
35410SOL    HW2 8128   3.374  10.119   9.399
35411SOL     OW 8129   2.266   5.975   8.730
35411SOL    HW1 8130   2.261   5.949   8.638
35411SOL    HW2 8131   2.244   6.068   8.731
35412SOL     OW 8132   4.434   3.063   5.694
35412SOL    HW1 8133   4.444   3.002   5.767
35412SOL    HW2 8134   4.399   3.143   5.734
35413SOL     OW 8135   3.088   4.366  14.404
35413SOL    HW1 8136   3.158   4.411  14.356
35413SOL    HW2 8137   3.055   4.300  14.343
35414SOL     OW 8138   1.453  11.144   8.179
35414SOL    HW1 8139   1.381  11.197   8.145
35414SOL    HW2 8140   1.413  11.092   8.249
35415SOL     OW 8141   6.617   7.007   5.167
35415SOL    HW1 8142   6.559   7.054   5.227
35415SOL    HW2 8143   6.676   6.958   5.224
35416SOL     OW 8144   7.139  10.928  12.310
35416SOL    HW1 8145   7.070  10.907  12.373
35416SOL    HW2 8146   7.183  10.844  12.294
35417SOL     OW 8147  10.793   9.832  12.254
35417SOL    HW1 8148  10.830   9.786  12.179
35417SOL    HW2 8149  10.762   9.915  12.218
35418SOL     OW 8150   8.611  12.141   7.962
35418SOL    HW1 8151   8.588  12.053   7.991
35418SOL    HW2 8152   8.707  12.142   7.964
35419SOL     OW 8153   1.452   6.292   7.308
35419SOL    HW1 8154   1.523   6.269   7.247
35419SOL    HW2 8155   1.493   6.290   7.394
35420SOL     OW 8156   7.342   2.651   9.807
35420SOL    HW1 8157   7.428   2.620   9.835
35420SOL    HW2 8158   7.327   2.729   9.861
35421SOL     OW 8159   8.629   8.966   6.342
35421SOL    HW1 8160   8.591   8.969   6.430
35421SOL    HW2 8161   8.716   9.003   6.353
35422SOL     OW 8162   4.202   9.837   8.114
35422SOL    HW1 8163   4.133   9.903   8.121
35422SOL    HW2 8164   4.273   9.870   8.169
35423SOL     OW 8165   1.138   1.068   0.587
35423SOL    HW1 8166   1.219   1.024   0.562
35423SOL    HW2 8167   1.154   1.101   0.676
35424SOL     OW 8168   8.686   2.854   4.057
35424SOL    HW1 8169   8.726   2.770   4.037
35424SOL    HW2 8170   8.685   2.901   3.974
35425SOL     OW 8171   0.395   4.593  13.627
35425SOL    HW1 8172   0.364   4.590  13.718
35425SOL    HW2 8173   0.390   4.502  13.597
35426SOL     OW 8174   7.651   3.430   7.873
35426SOL    HW1 8175   7.643   3.395   7.785
35426SOL    HW2 8176   7.598   3.371   7.927
35427SOL     OW 8177  11.246   5.011   1.653
35427SOL    HW1 8178  11.218   4.921   1.669
35427SOL    HW2 8179  11.194   5.038   1.577
35428SOL     OW 8180  10.600   4.942   2.647
35428SOL    HW1 8181  10.522   4.989   2.676
35428SOL    HW2 8182  10.567   4.870   2.593
35429SOL     OW 8183  12.032   9.737  14.517
35429SOL    HW1 8184  12.094   9.795  14.561
35429SOL    HW2 8185  12.082   9.697  14.446
35430SOL     OW 8186   1.067   3.520   2.644
35430SOL    HW1 8187   1.161   3.528   2.658
35430SOL    HW2 8188   1.057   3.444   2.587
35431SOL     OW 8189   7.833   6.921   8.370
35431SOL    HW1 8190   7.800   6.833   8.388
35431SOL    HW2 8191   7.770   6.959   8.309
35432SOL     OW 8192  13.609   6.913  10.133
35432SOL    HW1 8193  13.587   6.838  10.078
35432SOL    HW2 8194  13.609   6.879  10.222
35433SOL     OW 8195  13.728  14.759   9.858
35433SOL    HW1 8196  13.697  14.705   9.786
35433SOL    HW2 8197  13.819  14.734   9.870
35434SOL     OW 8198   3.122  10.633   3.986
35434SOL    HW1 8199   3.049  10.581   3.955
35434SOL    HW2 8200   3.129  10.706   3.924
35435SOL     OW 8201  12.814  13.426   4.372
35435SOL    HW1 8202  12.821  13.467   4.286
35435SOL    HW2 8203  12.861  13.485   4.431
35436SOL     OW 8204  10.626  11.556   7.201
35436SOL    HW1 8205  10.605  11.476   7.250
35436SOL    HW2 8206  10.672  11.525   7.123
35437SOL     OW 8207   2.951   9.301  13.987
35437SOL    HW1 8208   2.905   9.280  13.905
35437SOL    HW2 8209   2.935   9.394  14.001
35438SOL     OW 8210  10.162   3.709  11.439
35438SOL    HW1 8211  10.208   3.703  11.355
35438SOL    HW2 8212  10.137   3.801  11.447
35439SOL     OW 8213  13.902   5.468  11.355
35439SOL    HW1 8214  13.979   5.459  11.299
35439SOL    HW2 8215  13.904   5.560  11.384
35440SOL     OW 8216   0.007  14.608   2.626
35440SOL    HW1 8217  14.824  14.680   2.633
35440SOL    HW2 8218   0.092  14.651   2.621
35441SOL     OW 8219   8.693   9.961   4.411
35441SOL    HW1 8220   8.627  10.029   4.406
35441SOL    HW2 8221   8.732   9.959   4.323
35442SOL     OW 8222   3.336   5.519   0.552
35442SOL    HW1 8223   3.417   5.544   0.596
35442SOL    HW2 8224   3.347   5.425   0.534
35443SOL     OW 8225   1.984   0.452   2.856
35443SOL    HW1 8226   1.926   0.516   2.814
35443SOL    HW2 8227   1.993   0.382   2.791
35444SOL     OW 8228   9.330   4.961   6.998
35444SOL    HW1 8229   9.355   4.948   6.906
35444SOL    HW2 8230   9.413   4.958   7.046
35445SOL     OW 8231  11.721   0.533  11.952
35445SOL    HW1 8232  11.798   0.496  11.909
35445SOL    HW2 8233  11.709   0.619  11.912
35446SOL     OW 8234  10.654  10.283   6.405
35446SOL    HW1 8235  10.593  10.276   6.332
35446SOL    HW2 8236  10.598  10.283   6.483
35447SOL     OW 8237  10.741   3.454   1.488
35447SOL    HW1 8238  10.804   3.479   1.421
35447SOL    HW2 8239  10.784   3.382   1.535
35448SOL     OW 8240   8.952  12.597  11.422
35448SOL    HW1 8241   8.856  12.600  11.415
35448SOL    HW2 8242   8.983  12.608  11.332
35449SOL     OW 8243  10.287  11.082  11.061
35449SOL    HW1 8244  10.331  11.108  11.143
35449SOL    HW2 8245  10.251  10.995  11.080
35450SOL     OW 8246  10.742  13.233   9.694
35450SOL    HW1 8247  10.694  13.219   9.775
35450SOL    HW2 8248  10.674  13.255   9.630
35451SOL     OW 8249  14.148   9.878   3.890
35451SOL    HW1 8250  14.208   9.826   3.837
35451SOL    HW2 8251  14.204   9.926   3.951
35452SOL     OW 8252   1.937   3.670   4.889
35452SOL    HW1 8253   1.909   3.755   4.922
35452SOL    HW2 8254   1.862   3.635   4.843
35453SOL     OW 8255  11.408  10.299   8.402
35453SOL    HW1 8256  11.426  10.348   8.482
35453SOL    HW2 8257  11.412  10.207   8.429
35454SOL     OW 8258   8.092   5.681   3.871
35454SOL    HW1 8259   8.112   5.713   3.783
35454SOL    HW2 8260   8.137   5.742   3.930
35455SOL     OW 8261   7.504   0.439   3.536
35455SOL    HW1 8262   7.600   0.433   3.539
35455SOL    HW2 8263   7.483   0.506   3.602
35456SOL     OW 8264   6.489   9.283  13.348
35456SOL    HW1 8265   6.446   9.198  13.344
35456SOL    HW2 8266   6.578   9.264  13.377
35457SOL     OW 8267  11.454   6.289  14.106
35457SOL    HW1 8268  11.423   6.259  14.021
35457SOL    HW2 8269  11.446   6.384  14.103
35458SOL     OW 8270   0.922   4.130   5.332
35458SOL    HW1 8271   0.899   4.143   5.423
35458SOL    HW2 8272   0.951   4.216   5.301
35459SOL     OW 8273  13.004  13.659   1.850
35459SOL    HW1 8274  13.016  13.735   1.907
35459SOL    HW2 8275  12.923  13.678   1.803
35460SOL     OW 8276   3.593  10.036   7.671
35460SOL    HW1 8277   3.579  10.008   7.762
35460SOL    HW2 8278   3.595   9.955   7.621
35461SOL     OW 8279   6.598   0.833   9.302
35461SOL    HW1 8280   6.514   0.875   9.318
35461SOL    HW2 8281   6.581   0.770   9.232
35462SOL     OW 8282  11.323   2.956   8.083
35462SOL    HW1 8283  11.389   2.928   8.019
35462SOL    HW2 8284  11.367   3.023   8.135
35463SOL     OW 8285   7.786  13.870   1.821
35463SOL    HW1 8286   7.793  13.848   1.914
35463SOL    HW2 8287   7.814  13.791   1.775
35464SOL     OW 8288   6.935   2.259  10.497
35464SOL    HW1 8289   6.891   2.233  10.578
35464SOL    HW2 8290   6.865   2.267  10.432
35465SOL     OW 8291  10.987  14.669   0.488
35465SOL    HW1 8292  11.017  14.589   0.531
35465SOL    HW2 8293  10.907  14.693   0.535
35466SOL     OW 8294   3.432  11.881   4.790
35466SOL    HW1 8295   3.403  11.894   4.700
35466SOL    HW2 8296   3.505  11.943   4.801
35467SOL     OW 8297   2.518  11.112  12.980
35467SOL    HW1 8298   2.435  11.095  12.935
35467SOL    HW2 8299   2.559  11.026  12.989
35468SOL     OW 8300   0.220   3.761   1.383
35468SOL    HW1 8301   0.275   3.800   1.450
35468SOL    HW2 8302   0.269   3.770   1.302
35469SOL     OW 8303   9.947   7.754   4.254
35469SOL    HW1 8304  10.028   7.802   4.271
35469SOL    HW2 8305   9.951   7.732   4.161
35470SOL     OW 8306   0.870  10.008   9.743
35470SOL    HW1 8307   0.774  10.010   9.748
35470SOL    HW2 8308   0.899  10.031   9.831
35471SOL     OW 8309   7.564   0.771   5.795
35471SOL    HW1 8310   7.485   0.759   5.848
35471SOL    HW2 8311   7.541   0.838   5.732
35472SOL     OW 8312   7.298  10.167   7.932
35472SOL    HW1 8313   7.297  10.077   7.900
35472SOL    HW2 8314   7.354  10.214   7.871
35473SOL     OW 8315   3.093   7.639   0.652
35473SOL    HW1 8316   3.119   7.729   0.635
35473SOL    HW2 8317   3.046   7.613   0.572
35474SOL     OW 8318   5.820  10.781   3.739
35474SOL    HW1 8319   5.900  10.760   3.787
35474SOL    HW2 8320   5.757  10.715   3.767
35475SOL     OW 8321   0.716   0.576   2.703
35475SOL    HW1 8322   0.654   0.508   2.728
35475SOL    HW2 8323   0.801   0.544   2.735
35476SOL     OW 8324   2.087   6.593   0.236
35476SOL    HW1 8325   2.051   6.504   0.233
35476SOL    HW2 8326   2.151   6.596   0.165
35477SOL     OW 8327   0.935   7.039  10.141
35477SOL    HW1 8328   0.855   6.998  10.175
35477SOL    HW2 8329   0.908   7.077  10.057
35478SOL     OW 8330  10.244  10.215   1.128
35478SOL    HW1 8331  10.175  10.279   1.110
35478SOL    HW2 8332  10.323  10.253   1.090
35479SOL     OW 8333  12.302  13.379   0.697
35479SOL    HW1 8334  12.285  13.295   0.740
35479SOL    HW2 8335  12.397  13.384   0.691
35480SOL     OW 8336   7.101  12.668  11.657
35480SOL    HW1 8337   7.143  12.754  11.647
35480SOL    HW2 8338   7.171  12.606  11.637
35481SOL     OW 8339   7.451   6.915   2.609
35481SOL    HW1 8340   7.436   6.962   2.527
35481SOL    HW2 8341   7.535   6.870   2.596
35482SOL     OW 8342   6.389  13.598  11.591
35482SOL    HW1 8343   6.339  13.606  11.672
35482SOL    HW2 8344   6.349  13.523  11.546
35483SOL     OW 8345   0.658   7.610   1.121
35483SOL    HW1 8346   0.669   7.700   1.092
35483SOL    HW2 8347   0.578   7.611   1.173
35484SOL     OW 8348   0.992   7.722   3.645
35484SOL    HW1 8349   0.983   7.678   3.730
35484SOL    HW2 8350   1.067   7.780   3.656
35485SOL     OW 8351   2.474  14.724  10.126
35485SOL    HW1 8352   2.528  14.687  10.057
35485SOL    HW2 8353   2.396  14.757  10.081
35486SOL     OW 8354   2.250   4.645   1.295
35486SOL    HW1 8355   2.314   4.624   1.227
35486SOL    HW2 8356   2.238   4.740   1.289
35487SOL     OW 8357   6.260  10.605   4.051
35487SOL    HW1 8358   6.302  10.524   4.022
35487SOL    HW2 8359   6.311  10.675   4.010
35488SOL     OW 8360   9.278   6.732  11.179
35488SOL    HW1 8361   9.224   6.760  11.104
35488SOL    HW2 8362   9.307   6.644  11.156
35489SOL     OW 8363   5.767   9.447   6.172
35489SOL    HW1 8364   5.741   9.512   6.108
35489SOL    HW2 8365   5.689   9.394   6.187
35490SOL     OW 8366   2.338   6.379   6.903
35490SOL    HW1 8367   2.292   6.299   6.879
35490SOL    HW2 8368   2.401   6.393   6.833
35491SOL     OW 8369  11.936   1.898  11.685
35491SOL    HW1 8370  11.928   1.928  11.776
35491SOL    HW2 8371  12.028   1.872  11.676
35492SOL     OW 8372  13.846  14.106  12.045
35492SOL    HW1 8373  13.758  14.113  12.008
35492SOL    HW2 8374  13.870  14.197  12.066
35493SOL     OW 8375   3.323  10.974  10.086
35493SOL    HW1 8376   3.381  11.024  10.028
35493SOL    HW2 8377   3.310  11.031  10.161
35494SOL     OW 8378   9.549   8.763   6.485
35494SOL    HW1 8379   9.500   8.798   6.411
35494SOL    HW2 8380   9.640   8.763   6.456
35495SOL     OW 8381  13.174  14.183   8.823
35495SOL    HW1 8382  13.108  14.122   8.857
35495SOL    HW2 8383  13.209  14.225   8.902
35496SOL     OW 8384  10.109  10.165  11.597
35496SOL    HW1 8385  10.180  10.185  11.658
35496SOL    HW2 8386  10.033  10.151  11.653
35497SOL     OW 8387   5.112   1.199   7.191
35497SOL    HW1 8388   5.162   1.280   7.192
35497SOL    HW2 8389   5.063   1.202   7.108
35498SOL     OW 8390  11.608   7.346   2.021
35498SOL    HW1 8391  11.641   7.410   2.084
35498SOL    HW2 8392  11.524   7.318   2.058
35499SOL     OW 8393   7.036   8.401   2.378
35499SOL    HW1 8394   6.990   8.317   2.377
35499SOL    HW2 8395   7.118   8.384   2.331
35500SOL     OW 8396  12.879   2.868  10.564
35500SOL    HW1 8397  12.872   2.902  10.476
35500SOL    HW2 8398  12.842   2.936  10.620
35501SOL     OW 8399  10.702   8.987  13.181
35501SOL    HW1 8400  10.741   9.043  13.114
35501SOL    HW2 8401  10.696   8.900  13.140
35502SOL     OW 8402  12.644   9.632   5.109
35502SOL    HW1 8403  12.704   9.604   5.040
35502SOL    HW2 8404  12.665   9.725   5.122
35503SOL     OW 8405   7.294   5.556  14.307
35503SOL    HW1 8406   7.359   5.625  14.296
35503SOL    HW2 8407   7.213   5.592  14.269
35504SOL     OW 8408   8.064  10.677   3.840
35504SOL    HW1 8409   8.022  10.657   3.924
35504SOL    HW2 8410   8.156  10.654   3.853
35505SOL     OW 8411  13.064   3.726  10.988
35505SOL    HW1 8412  12.970   3.732  10.971
35505SOL    HW2 8413  13.079   3.786  11.061
35506SOL     OW 8414   6.606   9.232   6.781
35506SOL    HW1 8415   6.590   9.324   6.759
35506SOL    HW2 8416   6.693   9.214   6.748
35507SOL     OW 8417   4.559   9.184   2.203
35507SOL    HW1 8418   4.570   9.112   2.266
35507SOL    HW2 8419   4.470   9.173   2.169
35508SOL     OW 8420   5.607   9.835  13.352
35508SOL    HW1 8421   5.673   9.845  13.283
35508SOL    HW2 8422   5.637   9.892  13.422
35509SOL     OW 8423  12.087   4.011   7.934
35509SOL    HW1 8424  12.178   3.985   7.926
35509SOL    HW2 8425  12.087   4.078   8.003
35510SOL     OW 8426   8.466  12.609   2.117
35510SOL    HW1 8427   8.533  12.628   2.051
35510SOL    HW2 8428   8.452  12.514   2.110
35511SOL     OW 8429  11.506   7.797   6.924
35511SOL    HW1 8430  11.541   7.819   6.838
35511SOL    HW2 8431  11.414   7.777   6.907
35512SOL     OW 8432  12.435  14.309   8.162
35512SOL    HW1 8433  12.525  14.277   8.169
35512SOL    HW2 8434  12.397  14.295   8.249
35513SOL     OW 8435   3.033  11.130   4.866
35513SOL    HW1 8436   3.058  11.133   4.773
35513SOL    HW2 8437   2.941  11.159   4.867
35514SOL     OW 8438   5.763   8.903  13.641
35514SOL    HW1 8439   5.791   8.914  13.732
35514SOL    HW2 8440   5.798   8.980  13.596
35515SOL     OW 8441   3.077   3.195   6.615
35515SOL    HW1 8442   2.989   3.193   6.653
35515SOL    HW2 8443   3.116   3.111   6.638
35516SOL     OW 8444  13.285  10.243   7.868
35516SOL    HW1 8445  13.358  10.229   7.808
35516SOL    HW2 8446  13.323  10.231   7.955
35517SOL     OW 8447   3.852  14.494  13.083
35517SOL    HW1 8448   3.909  14.548  13.138
35517SOL    HW2 8449   3.807  14.556  13.026
35518SOL     OW 8450   8.251  12.758   2.079
35518SOL    HW1 8451   8.260  12.845   2.117
35518SOL    HW2 8452   8.335  12.716   2.093
35519SOL     OW 8453  14.221  12.231  11.776
35519SOL    HW1 8454  14.282  12.190  11.714
35519SOL    HW2 8455  14.274  12.295  11.823
35520SOL     OW 8456   3.117   0.102   4.660
35520SOL    HW1 8457   3.096   0.174   4.720
35520SOL    HW2 8458   3.056   0.032   4.684
35521SOL     OW 8459  13.979   6.720  10.136
35521SOL    HW1 8460  13.952   6.796  10.187
35521SOL    HW2 8461  13.940   6.645  10.181
35522SOL     OW 8462   4.275   6.189   1.064
35522SOL    HW1 8463   4.358   6.225   1.096
35522SOL    HW2 8464   4.237   6.258   1.010
35523SOL     OW 8465  11.457   0.590   2.838
35523SOL    HW1 8466  11.452   0.538   2.919
35523SOL    HW2 8467  11.367   0.601   2.811
35524SOL     OW 8468  12.721  14.170   7.454
35524SOL    HW1 8469  12.625  14.173   7.453
35524SOL    HW2 8470  12.747  14.242   7.396
35525SOL     OW 8471  12.822   0.520   7.348
35525SOL    HW1 8472  12.781   0.559   7.425
35525SOL    HW2 8473  12.775   0.557   7.273
35526SOL     OW 8474  13.341   9.999  13.847
35526SOL    HW1 8475  13.428   9.979  13.814
35526SOL    HW2 8476  13.346   9.981  13.941
35527SOL     OW 8477  14.861  12.803   5.130
35527SOL    HW1 8478   0.072  12.818   5.107
35527SOL    HW2 8479  14.863  12.724   5.184
35528SOL     OW 8480   8.661   6.778  11.729
35528SOL    HW1 8481   8.741   6.726  11.715
35528SOL    HW2 8482   8.667   6.806  11.820
35529SOL     OW 8483   6.635   4.504   0.120
35529SOL    HW1 8484   6.684   4.584   0.101
35529SOL    HW2 8485   6.698   4.433   0.107
35530SOL     OW 8486  12.661   4.349   5.492
35530SOL    HW1 8487  12.698   4.266   5.463
35530SOL    HW2 8488  12.679   4.410   5.420
35531SOL     OW 8489  11.488   5.323   0.301
35531SOL    HW1 8490  11.554   5.265   0.339
35531SOL    HW2 8491  11.473   5.390   0.367
35532SOL     OW 8492  12.187  11.931  14.826
35532SOL    HW1 8493  12.248  11.890  14.765
35532SOL    HW2 8494  12.232  11.929   0.030
35533SOL     OW 8495   4.203   5.387  12.020
35533SOL    HW1 8496   4.199   5.363  11.927
35533SOL    HW2 8497   4.194   5.304  12.067
35534SOL     OW 8498  14.194   9.316   1.401
35534SOL    HW1 8499  14.199   9.305   1.306
35534SOL    HW2 8500  14.182   9.410   1.414
35535SOL     OW 8501   6.368  10.908  12.069
35535SOL    HW1 8502   6.285  10.861  12.076
35535SOL    HW2 8503   6.407  10.876  11.988
35536SOL     OW 8504   5.088   9.004   8.848
35536SOL    HW1 8505   5.065   9.015   8.755
35536SOL    HW2 8506   5.178   9.034   8.854
35537SOL     OW 8507  12.860   9.098   2.318
35537SOL    HW1 8508  12.925   9.041   2.276
35537SOL    HW2 8509  12.898   9.185   2.313
35538SOL     OW 8510  11.669   2.153  10.340
35538SOL    HW1 8511  11.675   2.232  10.286
35538SOL    HW2 8512  11.577   2.148  10.365
35539SOL     OW 8513   4.727   4.352   3.233
35539SOL    HW1 8514   4.796   4.298   3.197
35539SOL    HW2 8515   4.678   4.383   3.157
35540SOL     OW 8516  12.129   0.405  10.345
35540SOL    HW1 8517  12.114   0.432  10.436
35540SOL    HW2 8518  12.047   0.424  10.301
35541SOL     OW 8519  11.015  13.979  12.179
35541SOL    HW1 8520  11.005  14.005  12.088
35541SOL    HW2 8521  10.936  14.010  12.222
35542SOL     OW 8522  10.570   1.714   2.276
35542SOL    HW1 8523  10.520   1.795   2.270
35542SOL    HW2 8524  10.656   1.735   2.240
35543SOL     OW 8525  11.575   5.747   6.129
35543SOL    HW1 8526  11.514   5.674   6.132
35543SOL    HW2 8527  11.608   5.754   6.219
35544SOL     OW 8528   2.277   1.657  13.646
35544SOL    HW1 8529   2.202   1.695  13.692
35544SOL    HW2 8530   2.285   1.569  13.682
35545SOL     OW 8531   3.956   5.134   9.801
35545SOL    HW1 8532   3.886   5.082   9.839
35545SOL    HW2 8533   3.960   5.212   9.856
35546SOL     OW 8534   7.796   9.391  14.654
35546SOL    HW1 8535   7.831   9.403  14.566
35546SOL    HW2 8536   7.826   9.468  14.702
35547SOL     OW 8537  11.435  12.714   0.756
35547SOL    HW1 8538  11.380  12.676   0.824
35547SOL    HW2 8539  11.386  12.700   0.675
35548SOL     OW 8540   1.551   8.105   1.675
35548SOL    HW1 8541   1.618   8.069   1.733
35548SOL    HW2 8542   1.493   8.155   1.732
35549SOL     OW 8543  14.002   6.278   0.086
35549SOL    HW1 8544  14.084   6.276   0.036
35549SOL    HW2 8545  14.004   6.197   0.138
35550SOL     OW 8546  13.380   1.489  12.411
35550SOL    HW1 8547  13.408   1.578  12.390
35550SOL    HW2 8548  13.298   1.501  12.459
35551SOL     OW 8549  10.342   0.045   4.075
35551SOL    HW1 8550  10.306   0.018   4.159
35551SOL    HW2 8551  10.433   0.068   4.095
35552SOL     OW 8552  11.887   2.036   3.801
35552SOL    HW1 8553  11.869   1.985   3.722
35552SOL    HW2 8554  11.802   2.043   3.845
35553SOL     OW 8555   2.638   8.868  12.263
35553SOL    HW1 8556   2.622   8.959  12.288
35553SOL    HW2 8557   2.552   8.825  12.272
35554SOL     OW 8558  13.219  14.420   4.353
35554SOL    HW1 8559  13.234  14.339   4.402
35554SOL    HW2 8560  13.140  14.404   4.302
35555SOL     OW 8561  14.279  13.358   8.486
35555SOL    HW1 8562  14.343  13.292   8.459
35555SOL    HW2 8563  14.198  13.333   8.442
35556SOL     OW 8564   9.862   0.969  14.109
35556SOL    HW1 8565   9.952   0.948  14.087
35556SOL    HW2 8566   9.822   0.885  14.132
35557SOL     OW 8567   1.243  10.967   1.018
35557SOL    HW1 8568   1.254  10.895   0.956
35557SOL    HW2 8569   1.173  11.020   0.981
35558SOL     OW 8570   9.220  10.856  10.112
35558SOL    HW1 8571   9.297  10.853  10.168
35558SOL    HW2 8572   9.154  10.901  10.164
35559SOL     OW 8573   6.838  11.050   6.374
35559SOL    HW1 8574   6.759  11.054   6.429
35559SOL    HW2 8575   6.893  11.121   6.406
35560SOL     OW 8576   3.050   1.394   5.688
35560SOL    HW1 8577   2.970   1.422   5.731
35560SOL    HW2 8578   3.100   1.474   5.674
35561SOL     OW 8579  10.553  10.380  10.153
35561SOL    HW1 8580  10.546  10.317  10.224
35561SOL    HW2 8581  10.629  10.433  10.175
35562SOL     OW 8582   4.524  11.164  13.500
35562SOL    HW1 8583   4.548  11.230  13.435
35562SOL    HW2 8584   4.555  11.200  13.583
35563SOL     OW 8585   5.451   9.107  11.246
35563SOL    HW1 8586   5.477   9.090  11.337
35563SOL    HW2 8587   5.527   9.080  11.194
35564SOL     OW 8588  13.228  11.947  11.312
35564SOL    HW1 8589  13.263  12.036  11.305
35564SOL    HW2 8590  13.269  11.900  11.240
35565SOL     OW 8591   8.105  11.029  13.744
35565SOL    HW1 8592   8.123  11.123  13.755
35565SOL    HW2 8593   8.026  11.026  13.690
35566SOL     OW 8594   3.784  12.818   9.184
35566SOL    HW1 8595   3.739  12.860   9.110
35566SOL    HW2 8596   3.813  12.733   9.149
35567SOL     OW 8597  11.802   7.507   6.579
35567SOL    HW1 8598  11.729   7.458   6.542
35567SOL    HW2 8599  11.880   7.457   6.553
35568SOL     OW 8600  14.447  11.365  12.534
35568SOL    HW1 8601  14.464  11.458  12.520
35568SOL    HW2 8602  14.499  11.342  12.611
35569SOL     OW 8603   9.223  12.289   4.734
35569SOL    HW1 8604   9.153  12.336   4.688
35569SOL    HW2 8605   9.290  12.355   4.750
35570SOL     OW 8606   6.511   1.499   8.049
35570SOL    HW1 8607   6.558   1.504   8.132
35570SOL    HW2 8608   6.471   1.412   8.048
35571SOL     OW 8609   9.735   5.444   3.117
35571SOL    HW1 8610   9.797   5.496   3.167
35571SOL    HW2 8611   9.649   5.469   3.152
35572SOL     OW 8612   9.235  11.579   9.213
35572SOL    HW1 8613   9.235  11.633   9.291
35572SOL    HW2 8614   9.276  11.497   9.240
35573SOL     OW 8615   8.520   6.650  10.993
35573SOL    HW1 8616   8.615   6.655  10.980
35573SOL    HW2 8617   8.509   6.597  11.072
35574SOL     OW 8618  13.066  10.249   3.952
35574SOL    HW1 8619  13.103  10.214   3.870
35574SOL    HW2 8620  13.031  10.335   3.927
35575SOL     OW 8621   1.263   2.244  11.812
35575SOL    HW1 8622   1.218   2.234  11.896
35575SOL    HW2 8623   1.354   2.260  11.835
35576SOL     OW 8624   1.806   2.590   6.227
35576SOL    HW1 8625   1.881   2.632   6.185
35576SOL    HW2 8626   1.782   2.649   6.298
35577SOL     OW 8627   9.087   1.247   9.771
35577SOL    HW1 8628   9.003   1.261   9.815
35577SOL    HW2 8629   9.079   1.161   9.730
35578SOL     OW 8630   0.439   4.756   6.585
35578SOL    HW1 8631   0.463   4.820   6.517
35578SOL    HW2 8632   0.352   4.785   6.615
35579SOL     OW 8633   1.931   5.061   8.910
35579SOL    HW1 8634   1.969   4.979   8.941
35579SOL    HW2 8635   1.836   5.044   8.908
35580SOL     OW 8636   1.633   7.399   3.023
35580SOL    HW1 8637   1.609   7.442   3.105
35580SOL    HW2 8638   1.582   7.445   2.956
35581SOL     OW 8639   1.988  14.340   7.776
35581SOL    HW1 8640   1.944  14.372   7.697
35581SOL    HW2 8641   1.927  14.276   7.813
35582SOL     OW 8642  11.719   2.779   4.719
35582SOL    HW1 8643  11.790   2.790   4.783
35582SOL    HW2 8644  11.663   2.855   4.733
35583SOL     OW 8645  11.770   9.341   0.482
35583SOL    HW1 8646  11.706   9.306   0.420
35583SOL    HW2 8647  11.814   9.263   0.516
35584SOL     OW 8648   2.847   0.369  10.526
35584SOL    HW1 8649   2.928   0.319  10.540
35584SOL    HW2 8650   2.835   0.366  10.431
35585SOL     OW 8651   8.583   2.382   3.894
35585SOL    HW1 8652   8.511   2.365   3.955
35585SOL    HW2 8653   8.545   2.443   3.830
35586SOL     OW 8654   1.133   7.471  11.387
35586SOL    HW1 8655   1.153   7.378  11.398
35586SOL    HW2 8656   1.161   7.491  11.298
35587SOL     OW 8657  10.259  13.350   5.303
35587SOL    HW1 8658  10.238  13.258   5.312
35587SOL    HW2 8659  10.308  13.357   5.221
35588SOL     OW 8660  14.293   3.854   6.309
35588SOL    HW1 8661  14.197   3.859   6.311
35588SOL    HW2 8662  14.315   3.786   6.373
35589SOL     OW 8663   1.810  11.455   0.894
35589SOL    HW1 8664   1.792  11.365   0.924
35589SOL    HW2 8665   1.848  11.498   0.970
35590SOL     OW 8666   1.698   7.308   3.682
35590SOL    HW1 8667   1.605   7.334   3.688
35590SOL    HW2 8668   1.737   7.344   3.762
35591SOL     OW 8669   6.733   0.389  12.378
35591SOL    HW1 8670   6.784   0.414  12.455
35591SOL    HW2 8671   6.787   0.414  12.303
35592SOL     OW 8672  11.508   9.504   0.663
35592SOL    HW1 8673  11.470   9.549   0.738
35592SOL    HW2 8674  11.584   9.457   0.698
35593SOL     OW 8675   4.231   2.112   7.308
35593SOL    HW1 8676   4.272   2.054   7.245
35593SOL    HW2 8677   4.299   2.176   7.330
35594SOL     OW 8678   6.299   5.199   0.878
35594SOL    HW1 8679   6.377   5.245   0.909
35594SOL    HW2 8680   6.244   5.267   0.841
35595SOL     OW 8681   3.627   5.199  12.723
35595SOL    HW1 8682   3.574   5.212  12.644
35595SOL    HW2 8683   3.654   5.287  12.749
35596SOL     OW 8684   2.172   0.157  10.519
35596SOL    HW1 8685   2.214   0.189  10.599
35596SOL    HW2 8686   2.229   0.088  10.488
35597SOL     OW 8687  12.714  11.308   9.235
35597SOL    HW1 8688  12.669  11.295   9.151
35597SOL    HW2 8689  12.790  11.361   9.213
35598SOL     OW 8690   1.442   4.495   2.386
35598SOL    HW1 8691   1.495   4.504   2.465
35598SOL    HW2 8692   1.498   4.527   2.316
35599SOL     OW 8693  12.170   0.861   0.995
35599SOL    HW1 8694  12.091   0.841   1.044
35599SOL    HW2 8695  12.239   0.810   1.039
35600SOL     OW 8696  12.487   5.948   2.446
35600SOL    HW1 8697  12.396   5.949   2.416
35600SOL    HW2 8698  12.539   5.946   2.366
35601SOL     OW 8699   1.664   6.400  11.765
35601SOL    HW1 8700   1.671   6.318  11.814
35601SOL    HW2 8701   1.576   6.433  11.786
35602SOL     OW 8702   1.955  13.141   0.092
35602SOL    HW1 8703   2.050  13.129   0.098
35602SOL    HW2 8704   1.943  13.213   0.030
35603SOL     OW 8705   9.118   7.721   1.609
35603SOL    HW1 8706   9.138   7.649   1.550
35603SOL    HW2 8707   9.072   7.784   1.554
35604SOL     OW 8708   7.372   9.513  14.601
35604SOL    HW1 8709   7.312   9.487  14.670
35604SOL    HW2 8710   7.328   9.487  14.520
35605SOL     OW 8711   0.497  12.431   4.212
35605SOL    HW1 8712   0.430  12.379   4.256
35605SOL    HW2 8713   0.505  12.510   4.266
35606SOL     OW 8714   5.093   3.959   7.130
35606SOL    HW1 8715   5.077   3.946   7.037
35606SOL    HW2 8716   5.037   4.033   7.154
35607SOL     OW 8717   0.908  12.946   6.152
35607SOL    HW1 8718   0.862  12.867   6.125
35607SOL    HW2 8719   0.997  12.935   6.120
35608SOL     OW 8720   4.599  12.928   5.115
35608SOL    HW1 8721   4.620  12.847   5.162
35608SOL    HW2 8722   4.504  12.923   5.101
35609SOL     OW 8723   8.785   6.092   2.434
35609SOL    HW1 8724   8.839   6.067   2.509
35609SOL    HW2 8725   8.769   6.010   2.387
35610SOL     OW 8726   2.797  12.342   7.326
35610SOL    HW1 8727   2.790  12.274   7.259
35610SOL    HW2 8728   2.856  12.306   7.392
35611SOL     OW 8729   7.468   1.977   5.210
35611SOL    HW1 8730   7.439   1.892   5.241
35611SOL    HW2 8731   7.474   2.030   5.290
35612SOL     OW 8732  12.333  14.334   4.974
35612SOL    HW1 8733  12.279  14.286   4.911
35612SOL    HW2 8734  12.358  14.414   4.927
35613SOL     OW 8735  12.882   6.315   7.130
35613SOL    HW1 8736  12.868   6.293   7.222
35613SOL    HW2 8737  12.799   6.292   7.088
35614SOL     OW 8738  14.598   9.774  12.702
35614SOL    HW1 8739  14.554   9.695  12.672
35614SOL    HW2 8740  14.683   9.772  12.657
35615SOL     OW 8741   7.180   8.440  11.752
35615SOL    HW1 8742   7.195   8.524  11.794
35615SOL    HW2 8743   7.205   8.375  11.818
35616SOL     OW 8744   9.115  12.016  13.332
35616SOL    HW1 8745   9.045  12.013  13.398
35616SOL    HW2 8746   9.139  11.925  13.318
35617SOL     OW 8747  12.759   9.947   9.459
35617SOL    HW1 8748  12.723  10.028   9.495
35617SOL    HW2 8749  12.717   9.937   9.374
35618SOL     OW 8750   6.855  14.079  12.136
35618SOL    HW1 8751   6.904  14.159  12.118
35618SOL    HW2 8752   6.922  14.010  12.137
35619SOL     OW 8753   6.067   9.676  14.292
35619SOL    HW1 8754   6.011   9.728  14.235
35619SOL    HW2 8755   6.103   9.608  14.235
35620SOL     OW 8756   3.010   2.984   3.058
35620SOL    HW1 8757   3.000   2.939   3.142
35620SOL    HW2 8758   2.920   2.998   3.027
35621SOL     OW 8759  13.451   0.868   7.242
35621SOL    HW1 8760  13.367   0.871   7.289
35621SOL    HW2 8761  13.516   0.852   7.311
35622SOL     OW 8762  11.358   4.021   3.768
35622SOL    HW1 8763  11.276   4.023   3.718
35622SOL    HW2 8764  11.385   4.112   3.774
35623SOL     OW 8765   4.268  11.916   3.971
35623SOL    HW1 8766   4.230  11.986   4.024
35623SOL    HW2 8767   4.304  11.960   3.895
35624SOL     OW 8768   4.453   1.811  13.351
35624SOL    HW1 8769   4.420   1.747  13.288
35624SOL    HW2 8770   4.442   1.896  13.308
35625SOL     OW 8771   4.855  11.773  11.883
35625SOL    HW1 8772   4.832  11.692  11.838
35625SOL    HW2 8773   4.892  11.744  11.967
35626SOL     OW 8774   5.657   4.808   4.707
35626SOL    HW1 8775   5.655   4.896   4.671
35626SOL    HW2 8776   5.715   4.759   4.649
35627SOL     OW 8777   5.422   8.878  14.044
35627SOL    HW1 8778   5.329   8.869  14.066
35627SOL    HW2 8779   5.444   8.795  14.000
35628SOL     OW 8780   7.128  13.360   9.920
35628SOL    HW1 8781   7.161  13.281   9.878
35628SOL    HW2 8782   7.046  13.380   9.875
35629SOL     OW 8783   5.806   9.413  10.477
35629SOL    HW1 8784   5.742   9.372  10.535
35629SOL    HW2 8785   5.889   9.369  10.499
35630SOL     OW 8786   8.214   2.988   2.753
35630SOL    HW1 8787   8.287   2.942   2.795
35630SOL    HW2 8788   8.253   3.065   2.714
35631SOL     OW 8789   1.493   9.082  13.928
35631SOL    HW1 8790   1.521   8.995  13.900
35631SOL    HW2 8791   1.399   9.085  13.908
35632SOL     OW 8792   1.731   7.558  12.290
35632SOL    HW1 8793   1.821   7.590  12.295
35632SOL    HW2 8794   1.733   7.493  12.220
35633SOL     OW 8795   6.553  10.065   2.829
35633SOL    HW1 8796   6.466  10.104   2.827
35633SOL    HW2 8797   6.550  10.006   2.904
35634SOL     OW 8798   3.291   3.705   1.872
35634SOL    HW1 8799   3.331   3.713   1.785
35634SOL    HW2 8800   3.364   3.685   1.930
35635SOL     OW 8801  13.574   3.456   6.541
35635SOL    HW1 8802  13.590   3.523   6.474
35635SOL    HW2 8803  13.660   3.437   6.578
35636SOL     OW 8804   7.481   2.335  11.355
35636SOL    HW1 8805   7.530   2.270  11.305
35636SOL    HW2 8806   7.546   2.371  11.417
35637SOL     OW 8807   9.331   3.184   6.433
35637SOL    HW1 8808   9.274   3.257   6.409
35637SOL    HW2 8809   9.271   3.112   6.453
35638SOL     OW 8810   5.988   0.240   7.667
35638SOL    HW1 8811   5.916   0.178   7.654
35638SOL    HW2 8812   6.045   0.197   7.731
35639SOL     OW 8813   3.134  12.125   0.200
35639SOL    HW1 8814   3.221  12.088   0.188
35639SOL    HW2 8815   3.076  12.066   0.151
35640SOL     OW 8816  12.726  14.465  13.204
35640SOL    HW1 8817  12.692  14.532  13.263
35640SOL    HW2 8818  12.658  14.397  13.203
35641SOL     OW 8819   1.931   2.106   2.992
35641SOL    HW1 8820   1.928   2.027   3.047
35641SOL    HW2 8821   1.957   2.074   2.906
35642SOL     OW 8822   4.244  10.710  14.468
35642SOL    HW1 8823   4.156  10.693  14.434
35642SOL    HW2 8824   4.236  10.793  14.516
35643SOL     OW 8825   1.602  13.702   4.922
35643SOL    HW1 8826   1.606  13.783   4.973
35643SOL    HW2 8827   1.687  13.660   4.938
35644SOL     OW 8828  13.392   3.950  12.663
35644SOL    HW1 8829  13.469   3.946  12.720
35644SOL    HW2 8830  13.356   4.038  12.678
35645SOL     OW 8831  14.431   4.469   5.676
35645SOL    HW1 8832  14.380   4.388   5.682
35645SOL    HW2 8833  14.396   4.513   5.598
35646SOL     OW 8834  14.485   5.185   5.340
35646SOL    HW1 8835  14.405   5.216   5.299
35646SOL    HW2 8836  14.550   5.184   5.270
35647SOL     OW 8837   9.011   4.150  13.896
35647SOL    HW1 8838   9.023   4.064  13.938
35647SOL    HW2 8839   8.940   4.190  13.946
35648SOL     OW 8840   0.126   8.497  11.007
35648SOL    HW1 8841   0.096   8.561  11.071
35648SOL    HW2 8842   0.126   8.544  10.923
35649SOL     OW 8843   0.657   8.952  10.815
35649SOL    HW1 8844   0.683   9.002  10.893
35649SOL    HW2 8845   0.607   8.878  10.849
35650SOL     OW 8846   3.830  10.431   6.192
35650SOL    HW1 8847   3.771  10.401   6.123
35650SOL    HW2 8848   3.847  10.353   6.244
35651SOL     OW 8849  10.692   6.807  12.067
35651SOL    HW1 8850  10.612   6.839  12.024
35651SOL    HW2 8851  10.679   6.829  12.159
35652SOL     OW 8852   6.899   6.387   9.056
35652SOL    HW1 8853   6.821   6.335   9.036
35652SOL    HW2 8854   6.959   6.325   9.098
35653SOL     OW 8855   5.755   4.345   5.189
35653SOL    HW1 8856   5.669   4.317   5.219
35653SOL    HW2 8857   5.753   4.441   5.195
35654SOL     OW 8858  12.386   6.760  11.552
35654SOL    HW1 8859  12.447   6.759  11.478
35654SOL    HW2 8860  12.441   6.755  11.629
35655SOL     OW 8861  13.601   4.021   6.664
35655SOL    HW1 8862  13.656   3.954   6.623
35655SOL    HW2 8863  13.633   4.103   6.628
35656SOL     OW 8864   2.242   4.661   8.628
35656SOL    HW1 8865   2.279   4.575   8.649
35656SOL    HW2 8866   2.275   4.680   8.540
35657SOL     OW 8867  10.815   0.185   4.011
35657SOL    HW1 8868  10.863   0.119   4.061
35657SOL    HW2 8869  10.807   0.148   3.923
35658SOL     OW 8870  14.287   4.958  10.084
35658SOL    HW1 8871  14.192   4.967  10.072
35658SOL    HW2 8872  14.318   5.048  10.092
35659SOL     OW 8873   9.316   5.709   4.689
35659SOL    HW1 8874   9.290   5.723   4.597
35659SOL    HW2 8875   9.319   5.797   4.726
35660SOL     OW 8876   0.092  10.231   6.889
35660SOL    HW1 8877   0.141  10.261   6.812
35660SOL    HW2 8878   0.157  10.223   6.958
35661SOL     OW 8879   6.598  14.469   6.143
35661SOL    HW1 8880   6.514  14.486   6.186
35661SOL    HW2 8881   6.585  14.384   6.100
35662SOL     OW 8882  10.852   3.846  11.254
35662SOL    HW1 8883  10.931   3.863  11.203
35662SOL    HW2 8884  10.839   3.924  11.307
35663SOL     OW 8885   5.528  14.547  10.898
35663SOL    HW1 8886   5.575  14.544  10.815
35663SOL    HW2 8887   5.549  14.633  10.934
35664SOL     OW 8888   0.543  14.641   7.965
35664SOL    HW1 8889   0.535  14.568   7.903
35664SOL    HW2 8890   0.454  14.674   7.974
35665SOL     OW 8891   6.900   9.291   6.723
35665SOL    HW1 8892   6.896   9.196   6.719
35665SOL    HW2 8893   6.989   9.312   6.693
35666SOL     OW 8894  12.741   4.144   2.173
35666SOL    HW1 8895  12.671   4.206   2.153
35666SOL    HW2 8896  12.729   4.073   2.110
35667SOL     OW 8897  14.641   0.518   5.861
35667SOL    HW1 8898  14.586   0.472   5.797
35667SOL    HW2 8899  14.698   0.573   5.808
35668SOL     OW 8900  12.136  12.863  12.164
35668SOL    HW1 8901  12.222  12.905  12.155
35668SOL    HW2 8902  12.117  12.869  12.258
35669SOL     OW 8903   3.720   3.978   6.147
35669SOL    HW1 8904   3.746   3.923   6.073
35669SOL    HW2 8905   3.769   4.059   6.135
35670SOL     OW 8906   8.223  13.326   4.279
35670SOL    HW1 8907   8.240  13.371   4.363
35670SOL    HW2 8908   8.195  13.238   4.304
35671SOL     OW 8909   5.101   8.541   2.933
35671SOL    HW1 8910   5.128   8.624   2.894
35671SOL    HW2 8911   5.005   8.547   2.937
35672SOL     OW 8912   2.097  14.597  14.501
35672SOL    HW1 8913   2.005  14.621  14.488
35672SOL    HW2 8914   2.114  14.621  14.592
35673SOL     OW 8915   3.688   2.442   8.538
35673SOL    HW1 8916   3.605   2.409   8.574
35673SOL    HW2 8917   3.720   2.371   8.483
35674SOL     OW 8918  13.756   5.307   1.041
35674SOL    HW1 8919  13.747   5.400   1.022
35674SOL    HW2 8920  13.689   5.288   1.107
35675SOL     OW 8921   9.068   9.855   1.507
35675SOL    HW1 8922   9.049   9.930   1.451
35675SOL    HW2 8923   9.073   9.780   1.448
35676SOL     OW 8924   5.094  14.789  12.308
35676SOL    HW1 8925   5.156  14.747  12.367
35676SOL    HW2 8926   5.094  14.735  12.229
35677SOL     OW 8927   9.200   5.736   1.526
35677SOL    HW1 8928   9.207   5.806   1.591
35677SOL    HW2 8929   9.130   5.680   1.558
35678SOL     OW 8930   2.309   5.312   1.863
35678SOL    HW1 8931   2.258   5.285   1.939
35678SOL    HW2 8932   2.273   5.397   1.838
35679SOL     OW 8933   3.763   0.833   8.035
35679SOL    HW1 8934   3.728   0.771   7.971
35679SOL    HW2 8935   3.686   0.865   8.081
35680SOL     OW 8936   4.457  12.028   8.205
35680SOL    HW1 8937   4.408  12.091   8.257
35680SOL    HW2 8938   4.451  11.946   8.253
35681SOL     OW 8939  12.096  10.994   6.623
35681SOL    HW1 8940  12.070  11.083   6.598
35681SOL    HW2 8941  12.014  10.953   6.652
35682SOL     OW 8942   5.014  14.788  10.045
35682SOL    HW1 8943   4.937  14.736  10.066
35682SOL    HW2 8944   4.986  14.879  10.053
35683SOL     OW 8945   8.341  13.731   7.863
35683SOL    HW1 8946   8.427  13.713   7.825
35683SOL    HW2 8947   8.349  13.819   7.899
35684SOL     OW 8948   4.825  10.845   5.570
35684SOL    HW1 8949   4.832  10.820   5.478
35684SOL    HW2 8950   4.764  10.918   5.570
35685SOL     OW 8951   1.985   9.860   1.888
35685SOL    HW1 8952   1.982   9.826   1.977
35685SOL    HW2 8953   2.026   9.946   1.896
35686SOL     OW 8954  12.780   5.811   1.051
35686SOL    HW1 8955  12.838   5.848   1.117
35686SOL    HW2 8956  12.810   5.721   1.041
35687SOL     OW 8957  10.983   2.496   3.408
35687SOL    HW1 8958  10.994   2.538   3.323
35687SOL    HW2 8959  11.057   2.437   3.416
35688SOL     OW 8960  14.539  14.614   9.136
35688SOL    HW1 8961  14.564  14.531   9.097
35688SOL    HW2 8962  14.505  14.665   9.063
35689SOL     OW 8963  11.737   9.695  13.231
35689SOL    HW1 8964  11.741   9.624  13.295
35689SOL    HW2 8965  11.829   9.709  13.206
35690SOL     OW 8966   1.556  11.466   8.358
35690SOL    HW1 8967   1.491  11.492   8.293
35690SOL    HW2 8968   1.601  11.391   8.318
35691SOL     OW 8969  11.679   5.027  10.847
35691SOL    HW1 8970  11.613   5.032  10.777
35691SOL    HW2 8971  11.630   5.046  10.927
35692SOL     OW 8972   8.339   2.513  12.156
35692SOL    HW1 8973   8.285   2.461  12.215
35692SOL    HW2 8974   8.302   2.601  12.161
35693SOL     OW 8975   2.896   7.955   1.214
35693SOL    HW1 8976   2.833   7.889   1.244
35693SOL    HW2 8977   2.941   7.914   1.140
35694SOL     OW 8978   7.331   2.105   0.334
35694SOL    HW1 8979   7.407   2.089   0.391
35694SOL    HW2 8980   7.369   2.134   0.251
35695SOL     OW 8981   6.812   0.380  11.020
35695SOL    HW1 8982   6.726   0.411  10.991
35695SOL    HW2 8983   6.814   0.288  10.995
35696SOL     OW 8984   3.604   5.182   7.041
35696SOL    HW1 8985   3.653   5.226   7.111
35696SOL    HW2 8986   3.512   5.189   7.068
35697SOL     OW 8987   9.623   4.261   9.628
35697SOL    HW1 8988   9.580   4.188   9.584
35697SOL    HW2 8989   9.716   4.243   9.620
35698SOL     OW 8990   6.827   1.910  12.944
35698SOL    HW1 8991   6.810   2.001  12.967
35698SOL    HW2 8992   6.834   1.865  13.028
35699SOL     OW 8993  12.987   6.082   5.335
35699SOL    HW1 8994  12.952   6.051   5.419
35699SOL    HW2 8995  12.959   6.016   5.272
35700SOL     OW 8996   3.254  14.232   4.705
35700SOL    HW1 8997   3.216  14.260   4.788
35700SOL    HW2 8998   3.342  14.202   4.728
35701SOL     OW 8999  11.520   6.372   8.289
35701SOL    HW1 9000  11.438   6.378   8.239
35701SOL    HW2 9001  11.494   6.391   8.379
35702SOL     OW 9002   5.744  13.554   1.148
35702SOL    HW1 9003   5.769  13.553   1.240
35702SOL    HW2 9004   5.780  13.473   1.112
35703SOL     OW 9005  11.028   4.128   4.171
35703SOL    HW1 9006  10.996   4.158   4.086
35703SOL    HW2 9007  10.953   4.136   4.229
35704SOL     OW 9008   4.511   5.329  11.196
35704SOL    HW1 9009   4.548   5.261  11.252
35704SOL    HW2 9010   4.424   5.296  11.171
35705SOL     OW 9011   4.080   9.314   7.937
35705SOL    HW1 9012   4.141   9.243   7.915
35705SOL    HW2 9013   4.133   9.377   7.986
35706SOL     OW 9014  13.818  10.166   7.206
35706SOL    HW1 9015  13.814  10.261   7.192
35706SOL    HW2 9016  13.810  10.155   7.300
35707SOL     OW 9017   9.010  10.217  14.343
35707SOL    HW1 9018   9.069  10.199  14.416
35707SOL    HW2 9019   9.004  10.313  14.341
35708SOL     OW 9020   3.540   3.509  13.127
35708SOL    HW1 9021   3.614   3.570  13.132
35708SOL    HW2 9022   3.502   3.525  13.040
35709SOL     OW 9023  11.606   3.182   5.966
35709SOL    HW1 9024  11.517   3.151   5.981
35709SOL    HW2 9025  11.655   3.104   5.941
35710SOL     OW 9026   4.970   1.399   3.744
35710SOL    HW1 9027   5.032   1.417   3.815
35710SOL    HW2 9028   4.893   1.364   3.788
35711SOL     OW 9029   5.211  13.791   3.592
35711SOL    HW1 9030   5.151  13.852   3.549
35711SOL    HW2 9031   5.276  13.847   3.635
35712SOL     OW 9032   6.210  10.211   9.599
35712SOL    HW1 9033   6.273  10.141   9.619
35712SOL    HW2 9034   6.252  10.291   9.630
35713SOL     OW 9035  13.286   5.389   3.285
35713SOL    HW1 9036  13.294   5.458   3.352
35713SOL    HW2 9037  13.221   5.329   3.320
35714SOL     OW 9038   3.348   2.646   9.616
35714SOL    HW1 9039   3.257   2.651   9.587
35714SOL    HW2 9040   3.400   2.659   9.537
35715SOL     OW 9041   3.919  11.752   1.928
35715SOL    HW1 9042   3.939  11.690   1.998
35715SOL    HW2 9043   3.900  11.834   1.974
35716SOL     OW 9044  14.233   0.113   9.382
35716SOL    HW1 9045  14.194   0.145   9.463
35716SOL    HW2 9046  14.310   0.063   9.411
35717SOL     OW 9047   9.288   1.408  14.748
35717SOL    HW1 9048   9.314   1.322  14.715
35717SOL    HW2 9049   9.207   1.392  14.796
35718SOL     OW 9050  13.072  10.746   4.855
35718SOL    HW1 9051  13.122  10.808   4.803
35718SOL    HW2 9052  13.063  10.787   4.941
35719SOL     OW 9053   4.706   9.901   1.980
35719SOL    HW1 9054   4.659   9.970   1.932
35719SOL    HW2 9055   4.776   9.947   2.025
35720SOL     OW 9056   7.330   0.100   8.150
35720SOL    HW1 9057   7.410   0.048   8.140
35720SOL    HW2 9058   7.360   0.186   8.177
35721SOL     OW 9059  12.986  12.521   0.916
35721SOL    HW1 9060  12.970  12.431   0.888
35721SOL    HW2 9061  13.029  12.562   0.841
35722SOL     OW 9062  13.778   9.830  13.291
35722SOL    HW1 9063  13.792   9.910  13.241
35722SOL    HW2 9064  13.702   9.850  13.347
35723SOL     OW 9065   8.422   0.199   0.796
35723SOL    HW1 9066   8.347   0.143   0.775
35723SOL    HW2 9067   8.396   0.286   0.767
35724SOL     OW 9068   3.884   5.372   6.576
35724SOL    HW1 9069   3.935   5.453   6.567
35724SOL    HW2 9070   3.918   5.331   6.655
35725SOL     OW 9071   8.054  12.214   7.523
35725SOL    HW1 9072   8.081  12.275   7.455
35725SOL    HW2 9073   8.014  12.270   7.590
35726SOL     OW 9074   5.862   3.118   4.927
35726SOL    HW1 9075   5.957   3.121   4.922
35726SOL    HW2 9076   5.844   3.103   5.020
35727SOL     OW 9077  14.091   7.356  13.242
35727SOL    HW1 9078  14.159   7.341  13.176
35727SOL    HW2 9079  14.011   7.368  13.192
35728SOL     OW 9080  13.488   5.519   8.003
35728SOL    HW1 9081  13.566   5.522   7.947
35728SOL    HW2 9082  13.425   5.576   7.959
35729SOL     OW 9083   4.781   7.579   9.280
35729SOL    HW1 9084   4.766   7.667   9.316
35729SOL    HW2 9085   4.703   7.529   9.305
35730SOL     OW 9086   5.136  11.741  14.506
35730SOL    HW1 9087   5.152  11.801  14.579
35730SOL    HW2 9088   5.087  11.792  14.443
35731SOL     OW 9089   5.138  13.918  12.974
35731SOL    HW1 9090   5.226  13.925  12.935
35731SOL    HW2 9091   5.079  13.914  12.899
35732SOL     OW 9092  14.381  12.133  12.869
35732SOL    HW1 9093  14.326  12.056  12.856
35732SOL    HW2 9094  14.465  12.098  12.899
35733SOL     OW 9095   4.589   7.166  14.691
35733SOL    HW1 9096   4.639   7.109  14.748
35733SOL    HW2 9097   4.612   7.255  14.719
35734SOL     OW 9098   2.665  10.837   2.930
35734SOL    HW1 9099   2.740  10.779   2.948
35734SOL    HW2 9100   2.591  10.777   2.919
35735SOL     OW 9101  12.659  11.416  13.168
35735SOL    HW1 9102  12.594  11.352  13.199
35735SOL    HW2 9103  12.614  11.463  13.098
35736SOL     OW 9104   9.728   8.332  11.620
35736SOL    HW1 9105   9.755   8.413  11.664
35736SOL    HW2 9106   9.750   8.348  11.528
35737SOL     OW 9107   5.889   8.021  11.700
35737SOL    HW1 9108   5.804   7.988  11.729
35737SOL    HW2 9109   5.915   7.962  11.629
35738SOL     OW 9110   8.603  10.475   5.882
35738SOL    HW1 9111   8.538  10.536   5.846
35738SOL    HW2 9112   8.641  10.433   5.806
35739SOL     OW 9113   4.764   2.375  11.673
35739SOL    HW1 9114   4.788   2.306  11.611
35739SOL    HW2 9115   4.730   2.327  11.749
35740SOL     OW 9116   7.935   8.924   8.586
35740SOL    HW1 9117   8.016   8.893   8.548
35740SOL    HW2 9118   7.925   8.873   8.667
35741SOL     OW 9119   5.458  10.395   2.338
35741SOL    HW1 9120   5.370  10.431   2.346
35741SOL    HW2 9121   5.488  10.425   2.252
35742SOL     OW 9122   0.971   4.276   1.077
35742SOL    HW1 9123   0.931   4.356   1.111
35742SOL    HW2 9124   1.012   4.304   0.995
35743SOL     OW 9125   4.869   9.064  10.143
35743SOL    HW1 9126   4.812   9.006  10.193
35743SOL    HW2 9127   4.957   9.027  10.154
35744SOL     OW 9128   1.802   1.067   7.986
35744SOL    HW1 9129   1.881   1.045   7.938
35744SOL    HW2 9130   1.786   0.991   8.042
35745SOL     OW 9131   2.002   3.925   7.350
35745SOL    HW1 9132   1.954   3.855   7.305
35745SOL    HW2 9133   1.943   4.000   7.345
35746SOL     OW 9134   8.820   1.801   5.624
35746SOL    HW1 9135   8.788   1.744   5.693
35746SOL    HW2 9136   8.796   1.889   5.652
35747SOL     OW 9137   0.723   4.069  13.516
35747SOL    HW1 9138   0.712   4.153  13.471
35747SOL    HW2 9139   0.801   4.081  13.570
35748SOL     OW 9140  12.393   5.439   8.984
35748SOL    HW1 9141  12.349   5.520   8.959
35748SOL    HW2 9142  12.327   5.371   8.968
35749SOL     OW 9143  11.714   6.989   6.856
35749SOL    HW1 9144  11.788   7.047   6.841
35749SOL    HW2 9145  11.638   7.047   6.856
35750SOL     OW 9146   2.881   0.593   6.684
35750SOL    HW1 9147   2.924   0.672   6.717
35750SOL    HW2 9148   2.810   0.626   6.629
35751SOL     OW 9149   5.639  14.100   2.641
35751SOL    HW1 9150   5.730  14.122   2.624
35751SOL    HW2 9151   5.589  14.157   2.583
35752SOL     OW 9152  11.585  14.723   4.680
35752SOL    HW1 9153  11.620  14.692   4.763
35752SOL    HW2 9154  11.633  14.673   4.614
35753SOL     OW 9155   3.980   1.184   5.766
35753SOL    HW1 9156   3.963   1.275   5.741
35753SOL    HW2 9157   4.047   1.189   5.833
35754SOL     OW 9158  12.602   9.013   0.619
35754SOL    HW1 9159  12.514   8.988   0.594
35754SOL    HW2 9160  12.640   8.935   0.658
35755SOL     OW 9161  12.726  11.269   9.961
35755SOL    HW1 9162  12.646  11.318   9.944
35755SOL    HW2 9163  12.699  11.198  10.019
35756SOL     OW 9164   1.255  10.308   3.672
35756SOL    HW1 9165   1.257  10.379   3.607
35756SOL    HW2 9166   1.239  10.229   3.620
35757SOL     OW 9167   2.389   9.719   8.951
35757SOL    HW1 9168   2.296   9.699   8.954
35757SOL    HW2 9169   2.407   9.734   8.858
35758SOL     OW 9170   2.874   2.112   4.951
35758SOL    HW1 9171   2.873   2.074   5.039
35758SOL    HW2 9172   2.889   2.037   4.893
35759SOL     OW 9173  11.055   9.173  12.101
35759SOL    HW1 9174  11.018   9.242  12.046
35759SOL    HW2 9175  10.979   9.123  12.130
35760SOL     OW 9176   4.453   8.597   0.016
35760SOL    HW1 9177   4.508   8.605  14.818
35760SOL    HW2 9178   4.478   8.672   0.071
35761SOL     OW 9179  11.184   6.664   7.798
35761SOL    HW1 9180  11.258   6.691   7.853
35761SOL    HW2 9181  11.157   6.744   7.754
35762SOL     OW 9182   4.025   3.409  14.680
35762SOL    HW1 9183   4.081   3.359  14.621
35762SOL    HW2 9184   4.086   3.463  14.731
35763SOL     OW 9185   7.909   3.053   9.566
35763SOL    HW1 9186   7.947   2.988   9.625
35763SOL    HW2 9187   7.875   3.002   9.493
35764SOL     OW 9188  11.307   9.164   5.277
35764SOL    HW1 9189  11.284   9.128   5.192
35764SOL    HW2 9190  11.401   9.146   5.286
35765SOL     OW 9191   7.304  12.763  13.328
35765SOL    HW1 9192   7.297  12.673  13.293
35765SOL    HW2 9193   7.259  12.817  13.262
35766SOL     OW 9194  11.674  12.179   7.648
35766SOL    HW1 9195  11.762  12.161   7.614
35766SOL    HW2 9196  11.621  12.193   7.570
35767SOL     OW 9197   2.413   2.631   6.486
35767SOL    HW1 9198   2.501   2.606   6.460
35767SOL    HW2 9199   2.407   2.608   6.579
35768SOL     OW 9200   3.980   0.451  13.206
35768SOL    HW1 9201   4.060   0.429  13.254
35768SOL    HW2 9202   3.918   0.478  13.274
35769SOL     OW 9203   0.244  10.273  14.520
35769SOL    HW1 9204   0.205  10.246  14.603
35769SOL    HW2 9205   0.248  10.192  14.468
35770SOL     OW 9206   5.306   2.051   1.203
35770SOL    HW1 9207   5.364   1.981   1.235
35770SOL    HW2 9208   5.326   2.057   1.110
35771SOL     OW 9209  10.167  10.118  14.642
35771SOL    HW1 9210  10.212  10.135  14.560
35771SOL    HW2 9211  10.217  10.049  14.685
35772SOL     OW 9212   8.101   9.167   1.405
35772SOL    HW1 9213   8.098   9.113   1.326
35772SOL    HW2 9214   8.187   9.210   1.402
35773SOL     OW 9215   2.232  13.004   2.983
35773SOL    HW1 9216   2.220  13.009   3.078
35773SOL    HW2 9217   2.172  13.069   2.948
35774SOL     OW 9218   6.976   5.264   0.964
35774SOL    HW1 9219   6.899   5.208   0.950
35774SOL    HW2 9220   6.970   5.289   1.056
35775SOL     OW 9221   5.331   6.377   4.462
35775SOL    HW1 9222   5.239   6.387   4.486
35775SOL    HW2 9223   5.372   6.461   4.486
35776SOL     OW 9224  13.052   6.717  11.736
35776SOL    HW1 9225  13.100   6.785  11.689
35776SOL    HW2 9226  13.100   6.636  11.717
35777SOL     OW 9227  10.654   9.530   3.927
35777SOL    HW1 9228  10.631   9.589   3.855
35777SOL    HW2 9229  10.722   9.474   3.890
35778SOL     OW 9230   0.517   2.480   7.744
35778SOL    HW1 9231   0.530   2.558   7.689
35778SOL    HW2 9232   0.594   2.479   7.801
35779SOL     OW 9233   1.237   9.870  12.003
35779SOL    HW1 9234   1.217   9.945  12.060
35779SOL    HW2 9235   1.168   9.807  12.022
35780SOL     OW 9236   5.662   1.169   0.504
35780SOL    HW1 9237   5.616   1.162   0.420
35780SOL    HW2 9238   5.737   1.111   0.494
35781SOL     OW 9239   7.242   8.048   3.782
35781SOL    HW1 9240   7.224   7.978   3.845
35781SOL    HW2 9241   7.160   8.059   3.735
35782SOL     OW 9242   0.920  12.130  13.070
35782SOL    HW1 9243   0.880  12.122  13.157
35782SOL    HW2 9244   0.893  12.050  13.025
35783SOL     OW 9245   3.128  13.146  13.104
35783SOL    HW1 9246   3.195  13.135  13.172
35783SOL    HW2 9247   3.055  13.093  13.133
35784SOL     OW 9248  12.697   6.161   6.182
35784SOL    HW1 9249  12.641   6.135   6.109
35784SOL    HW2 9250  12.786   6.158   6.147
35785SOL     OW 9251   5.694  12.753   4.205
35785SOL    HW1 9252   5.663  12.734   4.116
35785SOL    HW2 9253   5.614  12.767   4.255
35786SOL     OW 9254   8.460   4.440   1.839
35786SOL    HW1 9255   8.549   4.440   1.804
35786SOL    HW2 9256   8.410   4.495   1.779
35787SOL     OW 9257   1.489  11.078   0.935
35787SOL    HW1 9258   1.510  10.988   0.910
35787SOL    HW2 9259   1.395  11.076   0.954
35788SOL     OW 9260   1.896   1.533  12.069
35788SOL    HW1 9261   1.801   1.524  12.073
35788SOL    HW2 9262   1.911   1.623  12.040
35789SOL     OW 9263   4.513  14.002   2.499
35789SOL    HW1 9264   4.577  14.052   2.549
35789SOL    HW2 9265   4.464  13.952   2.565
35790SOL     OW 9266   0.901   4.719  14.627
35790SOL    HW1 9267   0.858   4.791  14.675
35790SOL    HW2 9268   0.840   4.646  14.637
35791SOL     OW 9269   9.835   8.145  12.636
35791SOL    HW1 9270   9.819   8.239  12.633
35791SOL    HW2 9271   9.819   8.114  12.547
35792SOL     OW 9272   8.549  13.787   9.816
35792SOL    HW1 9273   8.605  13.847   9.766
35792SOL    HW2 9274   8.462  13.798   9.778
35793SOL     OW 9275   9.320   8.207   2.601
35793SOL    HW1 9276   9.254   8.274   2.585
35793SOL    HW2 9277   9.287   8.158   2.677
35794SOL     OW 9278  13.975   2.437   2.792
35794SOL    HW1 9279  13.934   2.407   2.711
35794SOL    HW2 9280  13.903   2.444   2.855
35795SOL     OW 9281  13.668   6.861   0.732
35795SOL    HW1 9282  13.640   6.932   0.789
35795SOL    HW2 9283  13.624   6.783   0.766
35796SOL     OW 9284   2.153  10.826   8.127
35796SOL    HW1 9285   2.186  10.770   8.057
35796SOL    HW2 9286   2.132  10.765   8.198
35797SOL     OW 9287  14.453   4.328  10.560
35797SOL    HW1 9288  14.479   4.361  10.646
35797SOL    HW2 9289  14.513   4.255  10.544
35798SOL     OW 9290   2.045   6.521  14.643
35798SOL    HW1 9291   1.971   6.471  14.677
35798SOL    HW2 9292   2.123   6.475  14.675
35799SOL     OW 9293   6.751  12.566   5.065
35799SOL    HW1 9294   6.778  12.650   5.029
35799SOL    HW2 9295   6.676  12.540   5.010
35800SOL     OW 9296  11.546  12.438   3.179
35800SOL    HW1 9297  11.575  12.348   3.163
35800SOL    HW2 9298  11.592  12.490   3.114
35801SOL     OW 9299   0.715   3.607   4.625
35801SOL    HW1 9300   0.734   3.526   4.672
35801SOL    HW2 9301   0.782   3.669   4.657
35802SOL     OW 9302   8.242  14.667   1.771
35802SOL    HW1 9303   8.305  14.667   1.699
35802SOL    HW2 9304   8.159  14.693   1.730
35803SOL     OW 9305  11.708   9.394  10.248
35803SOL    HW1 9306  11.733   9.459  10.183
35803SOL    HW2 9307  11.735   9.432  10.332
35804SOL     OW 9308   1.143  12.160   6.905
35804SOL    HW1 9309   1.161  12.075   6.865
35804SOL    HW2 9310   1.059  12.149   6.949
35805SOL     OW 9311   1.753  14.739   9.787
35805SOL    HW1 9312   1.824  14.684   9.821
35805SOL    HW2 9313   1.689  14.676   9.753
35806SOL     OW 9314   4.441   1.554  10.145
35806SOL    HW1 9315   4.369   1.607  10.178
35806SOL    HW2 9316   4.508   1.618  10.121
35807SOL     OW 9317  13.440   1.511  10.428
35807SOL    HW1 9318  13.382   1.587  10.416
35807SOL    HW2 9319  13.402   1.443  10.373
35808SOL     OW 9320   7.332  13.720   1.624
35808SOL    HW1 9321   7.403  13.680   1.674
35808SOL    HW2 9322   7.368  13.730   1.536
35809SOL     OW 9323   0.234  11.729   8.830
35809SOL    HW1 9324   0.287  11.716   8.909
35809SOL    HW2 9325   0.289  11.696   8.759
35810SOL     OW 9326   2.497   4.038   5.530
35810SOL    HW1 9327   2.561   3.984   5.576
35810SOL    HW2 9328   2.545   4.077   5.458
35811SOL     OW 9329   7.694  12.871   7.233
35811SOL    HW1 9330   7.621  12.849   7.175
35811SOL    HW2 9331   7.691  12.805   7.301
35812SOL     OW 9332   0.664   7.569   2.272
35812SOL    HW1 9333   0.572   7.548   2.288
35812SOL    HW2 9334   0.662   7.655   2.230
35813SOL     OW 9335   3.882   6.426  10.562
35813SOL    HW1 9336   3.897   6.421  10.657
35813SOL    HW2 9337   3.921   6.509  10.536
35814SOL     OW 9338   1.615   0.929   9.608
35814SOL    HW1 9339   1.555   0.854   9.608
35814SOL    HW2 9340   1.566   0.999   9.565
35815SOL     OW 9341   3.309   1.510   2.535
35815SOL    HW1 9342   3.393   1.552   2.514
35815SOL    HW2 9343   3.255   1.525   2.457
35816SOL     OW 9344   5.770   4.838  14.513
35816SOL    HW1 9345   5.747   4.760  14.562
35816SOL    HW2 9346   5.713   4.836  14.436
35817SOL     OW 9347  12.820   5.212   8.439
35817SOL    HW1 9348  12.733   5.249   8.455
35817SOL    HW2 9349  12.872   5.286   8.408
35818SOL     OW 9350   8.919   6.708  12.536
35818SOL    HW1 9351   8.991   6.665  12.583
35818SOL    HW2 9352   8.884   6.641  12.478
35819SOL     OW 9353   8.745   9.648  14.741
35819SOL    HW1 9354   8.811   9.580  14.748
35819SOL    HW2 9355   8.686   9.632  14.814
35820SOL     OW 9356   1.191   0.845   1.293
35820SOL    HW1 9357   1.165   0.843   1.201
35820SOL    HW2 9358   1.269   0.789   1.296
35821SOL     OW 9359   6.909   7.596   2.505
35821SOL    HW1 9360   6.962   7.625   2.431
35821SOL    HW2 9361   6.865   7.676   2.534
35822SOL     OW 9362  14.056   2.783   6.035
35822SOL    HW1 9363  14.080   2.829   5.954
35822SOL    HW2 9364  14.037   2.693   6.006
35823SOL     OW 9365   1.149   8.076  14.655
35823SOL    HW1 9366   1.148   8.065  14.560
35823SOL    HW2 9367   1.198   8.157  14.669
35824SOL     OW 9368   8.331  10.548   1.448
35824SOL    HW1 9369   8.355  10.461   1.481
35824SOL    HW2 9370   8.297  10.531   1.360
35825SOL     OW 9371   3.975   1.866   6.616
35825SOL    HW1 9372   4.047   1.892   6.674
35825SOL    HW2 9373   3.968   1.771   6.626
35826SOL     OW 9374   2.480   7.978   8.552
35826SOL    HW1 9375   2.404   7.924   8.528
35826SOL    HW2 9376   2.520   8.000   8.468
35827SOL     OW 9377  12.309   7.715   3.324
35827SOL    HW1 9378  12.307   7.654   3.251
35827SOL    HW2 9379  12.393   7.698   3.368
35828SOL     OW 9380   5.220   4.115   0.099
35828SOL    HW1 9381   5.240   4.162   0.181
35828SOL    HW2 9382   5.296   4.058   0.086
35829SOL     OW 9383   8.341   0.933   8.826
35829SOL    HW1 9384   8.253   0.968   8.807
35829SOL    HW2 9385   8.391   0.949   8.746
35830SOL     OW 9386   1.693   1.253   0.824
35830SOL    HW1 9387   1.719   1.234   0.735
35830SOL    HW2 9388   1.623   1.318   0.816
35831SOL     OW 9389   2.941   0.077  13.467
35831SOL    HW1 9390   2.956  14.862  13.464
35831SOL    HW2 9391   2.857   0.086  13.513
35832SOL     OW 9392  10.439  11.623   0.003
35832SOL    HW1 9393  10.462  11.539   0.042
35832SOL    HW2 9394  10.520  11.655  14.844
35833SOL     OW 9395  10.768   7.254   3.358
35833SOL    HW1 9396  10.682   7.232   3.322
35833SOL    HW2 9397  10.776   7.348   3.343
35834SOL     OW 9398   3.535  14.020  13.294
35834SOL    HW1 9399   3.577  14.095  13.336
35834SOL    HW2 9400   3.582  13.944  13.328
35835SOL     OW 9401   8.487  10.270  13.776
35835SOL    HW1 9402   8.473  10.268  13.681
35835SOL    HW2 9403   8.481  10.362  13.799
35836SOL     OW 9404   8.876   7.422   6.413
35836SOL    HW1 9405   8.835   7.380   6.338
35836SOL    HW2 9406   8.962   7.451   6.381
35837SOL     OW 9407   7.493   1.972   4.681
35837SOL    HW1 9408   7.410   2.020   4.688
35837SOL    HW2 9409   7.561   2.038   4.693
35838SOL     OW 9410   2.670  11.492  13.485
35838SOL    HW1 9411   2.762  11.465  13.478
35838SOL    HW2 9412   2.626  11.416  13.523
35839SOL     OW 9413   0.585   2.684   3.770
35839SOL    HW1 9414   0.599   2.686   3.864
35839SOL    HW2 9415   0.530   2.760   3.752
35840SOL     OW 9416   7.915   4.255  14.705
35840SOL    HW1 9417   7.919   4.351  14.706
35840SOL    HW2 9418   7.877   4.234  14.620
35841SOL     OW 9419  12.225   0.150  10.377
35841SOL    HW1 9420  12.205   0.243  10.366
35841SOL    HW2 9421  12.236   0.117  10.288
35842SOL     OW 9422  10.196   9.622   2.374
35842SOL    HW1 9423  10.152   9.537   2.370
35842SOL    HW2 9424  10.289   9.601   2.384
35843SOL     OW 9425  13.041   8.828   8.630
35843SOL    HW1 9426  12.978   8.874   8.574
35843SOL    HW2 9427  13.000   8.827   8.716
35844SOL     OW 9428   6.054   3.156   4.159
35844SOL    HW1 9429   5.961   3.168   4.179
35844SOL    HW2 9430   6.063   3.182   4.068
35845SOL     OW 9431  12.611   3.313  10.661
35845SOL    HW1 9432  12.615   3.232  10.610
35845SOL    HW2 9433  12.564   3.289  10.740
35846SOL     OW 9434  11.442  12.488  10.304
35846SOL    HW1 9435  11.508  12.500  10.236
35846SOL    HW2 9436  11.467  12.549  10.373
35847SOL     OW 9437  14.265  12.362   7.224
35847SOL    HW1 9438  14.208  12.419   7.275
35847SOL    HW2 9439  14.343  12.416   7.206
35848SOL     OW 9440   1.538  12.528   5.005
35848SOL    HW1 9441   1.488  12.447   4.993
35848SOL    HW2 9442   1.602  12.528   4.934
35849SOL     OW 9443   2.902   7.355   1.101
35849SOL    HW1 9444   2.918   7.397   1.017
35849SOL    HW2 9445   2.975   7.293   1.112
35850SOL     OW 9446   6.984   7.641  13.816
35850SOL    HW1 9447   7.055   7.701  13.792
35850SOL    HW2 9448   7.028   7.557  13.829
35851SOL     OW 9449   5.160   7.572   2.144
35851SOL    HW1 9450   5.178   7.499   2.085
35851SOL    HW2 9451   5.246   7.612   2.159
35852SOL     OW 9452   4.304  13.329   0.214
35852SOL    HW1 9453   4.377  13.310   0.273
35852SOL    HW2 9454   4.292  13.249   0.163
35853SOL     OW 9455  14.473  11.473  10.450
35853SOL    HW1 9456  14.415  11.407  10.411
35853SOL    HW2 9457  14.504  11.433  10.531
35854SOL     OW 9458   0.331   0.218   9.480
35854SOL    HW1 9459   0.414   0.251   9.446
35854SOL    HW2 9460   0.337   0.123   9.472
35855SOL     OW 9461   7.953   4.105  14.084
35855SOL    HW1 9462   7.901   4.177  14.119
35855SOL    HW2 9463   7.898   4.064  14.018
35856SOL     OW 9464   9.448   6.126   8.452
35856SOL    HW1 9465   9.423   6.139   8.544
35856SOL    HW2 9466   9.484   6.210   8.424
35857SOL     OW 9467  10.242  12.926   9.683
35857SOL    HW1 9468  10.237  12.886   9.769
35857SOL    HW2 9469  10.157  12.910   9.643
35858SOL     OW 9470   3.974   4.127   3.584
35858SOL    HW1 9471   3.993   4.210   3.627
35858SOL    HW2 9472   4.037   4.065   3.620
35859SOL     OW 9473  13.386   6.012   5.191
35859SOL    HW1 9474  13.430   5.932   5.160
35859SOL    HW2 9475  13.355   5.990   5.279
35860SOL     OW 9476  14.493  10.251  12.590
35860SOL    HW1 9477  14.452  10.182  12.538
35860SOL    HW2 9478  14.561  10.207  12.640
35861SOL     OW 9479   0.646   3.011   9.686
35861SOL    HW1 9480   0.613   3.098   9.665
35861SOL    HW2 9481   0.707   2.991   9.614
35862SOL     OW 9482   3.449   5.264  13.352
35862SOL    HW1 9483   3.483   5.235  13.437
35862SOL    HW2 9484   3.380   5.201  13.332
35863SOL     OW 9485   3.558   3.088   6.231
35863SOL    HW1 9486   3.518   3.022   6.174
35863SOL    HW2 9487   3.495   3.160   6.232
35864SOL     OW 9488  13.907   5.367  13.522
35864SOL    HW1 9489  13.925   5.373  13.615
35864SOL    HW2 9490  13.931   5.453  13.487
35865SOL     OW 9491  12.788   0.300  10.819
35865SOL    HW1 9492  12.880   0.296  10.794
35865SOL    HW2 9493  12.788   0.280  10.912
35866SOL     OW 9494  14.216  14.631   0.156
35866SOL    HW1 9495  14.191  14.571   0.086
35866SOL    HW2 9496  14.312  14.625   0.160
35867SOL     OW 9497  13.211   8.754  11.753
35867SOL    HW1 9498  13.192   8.691  11.682
35867SOL    HW2 9499  13.217   8.838  11.709
35868SOL     OW 9500   6.418  12.443  13.824
35868SOL    HW1 9501   6.363  12.397  13.760
35868SOL    HW2 9502   6.435  12.528  13.783
35869SOL     OW 9503  10.039   8.245   9.303
35869SOL    HW1 9504  10.032   8.257   9.397
35869SOL    HW2 9505  10.028   8.332   9.266
35870SOL     OW 9506   3.505   1.859   9.822
35870SOL    HW1 9507   3.523   1.945   9.861
35870SOL    HW2 9508   3.592   1.822   9.805
35871SOL     OW 9509   8.945   9.537  11.128
35871SOL    HW1 9510   8.874   9.512  11.068
35871SOL    HW2 9511   8.936   9.478  11.203
35872SOL     OW 9512  13.507   4.888  11.941
35872SOL    HW1 9513  13.527   4.886  12.035
35872SOL    HW2 9514  13.569   4.827  11.902
35873SOL     OW 9515   5.566  10.809   3.101
35873SOL    HW1 9516   5.484  10.844   3.136
35873SOL    HW2 9517   5.624  10.885   3.094
35874SOL     OW 9518   4.311   6.282   2.752
35874SOL    HW1 9519   4.326   6.366   2.795
35874SOL    HW2 9520   4.361   6.287   2.671
35875SOL     OW 9521   8.687   9.755  11.400
35875SOL    HW1 9522   8.648   9.705  11.472
35875SOL    HW2 9523   8.616   9.812  11.369
35876SOL     OW 9524   7.749   3.467  10.258
35876SOL    HW1 9525   7.735   3.439  10.348
35876SOL    HW2 9526   7.805   3.400  10.219
35877SOL     OW 9527   4.407   5.386   3.204
35877SOL    HW1 9528   4.428   5.318   3.268
35877SOL    HW2 9529   4.311   5.392   3.206
35878SOL     OW 9530   5.263  14.029   7.093
35878SOL    HW1 9531   5.245  13.940   7.125
35878SOL    HW2 9532   5.330  14.062   7.153
35879SOL     OW 9533   4.127   6.581   7.717
35879SOL    HW1 9534   4.076   6.501   7.727
35879SOL    HW2 9535   4.218   6.551   7.714
35880SOL     OW 9536   7.334  11.845   5.989
35880SOL    HW1 9537   7.353  11.788   6.063
35880SOL    HW2 9538   7.402  11.912   5.993
35881SOL     OW 9539   6.612   2.576   3.448
35881SOL    HW1 9540   6.623   2.503   3.387
35881SOL    HW2 9541   6.684   2.635   3.428
35882SOL     OW 9542   8.761   0.061   5.756
35882SOL    HW1 9543   8.851   0.094   5.746
35882SOL    HW2 9544   8.735   0.088   5.844
35883SOL     OW 9545  12.035   7.970   0.180
35883SOL    HW1 9546  11.976   7.910   0.226
35883SOL    HW2 9547  12.021   7.951   0.087
35884SOL     OW 9548   5.865   8.112  13.236
35884SOL    HW1 9549   5.774   8.124  13.208
35884SOL    HW2 9550   5.908   8.072  13.161
35885SOL     OW 9551   7.937   7.553   0.921
35885SOL    HW1 9552   7.912   7.481   0.863
35885SOL    HW2 9553   8.013   7.520   0.969
35886SOL     OW 9554  12.878   3.709   3.076
35886SOL    HW1 9555  12.925   3.648   3.134
35886SOL    HW2 9556  12.786   3.695   3.096
35887SOL     OW 9557  10.083  14.154  12.254
35887SOL    HW1 9558  10.060  14.062  12.270
35887SOL    HW2 9559  10.177  14.154  12.240
35888SOL     OW 9560   0.630   4.579   7.420
35888SOL    HW1 9561   0.605   4.661   7.463
35888SOL    HW2 9562   0.606   4.592   7.328
35889SOL     OW 9563   8.898  12.213  14.251
35889SOL    HW1 9564   8.820  12.193  14.302
35889SOL    HW2 9565   8.971  12.179  14.304
35890SOL     OW 9566  13.140  13.242   1.310
35890SOL    HW1 9567  13.198  13.301   1.359
35890SOL    HW2 9568  13.200  13.184   1.263
35891SOL     OW 9569  10.931  12.558   8.403
35891SOL    HW1 9570  10.961  12.559   8.494
35891SOL    HW2 9571  11.012  12.567   8.351
35892SOL     OW 9572   7.123  14.113   0.155
35892SOL    HW1 9573   7.208  14.071   0.161
35892SOL    HW2 9574   7.131  14.191   0.210
35893SOL     OW 9575   3.465   2.593  10.877
35893SOL    HW1 9576   3.398   2.525  10.864
35893SOL    HW2 9577   3.472   2.636  10.791
35894SOL     OW 9578   2.758   1.642  11.422
35894SOL    HW1 9579   2.706   1.711  11.380
35894SOL    HW2 9580   2.798   1.685  11.497
35895SOL     OW 9581   3.850  11.682   1.235
35895SOL    HW1 9582   3.804  11.649   1.157
35895SOL    HW2 9583   3.807  11.765   1.255
35896SOL     OW 9584   6.667   3.725   2.538
35896SOL    HW1 9585   6.642   3.724   2.630
35896SOL    HW2 9586   6.763   3.722   2.538
35897SOL     OW 9587   1.584   4.826  12.915
35897SOL    HW1 9588   1.513   4.771  12.949
35897SOL    HW2 9589   1.549   4.915  12.916
35898SOL     OW 9590   4.637   8.069   1.046
35898SOL    HW1 9591   4.565   8.007   1.056
35898SOL    HW2 9592   4.703   8.021   0.996
35899SOL     OW 9593   9.589  13.416  12.843
35899SOL    HW1 9594   9.629  13.501  12.829
35899SOL    HW2 9595   9.644  13.373  12.908
35900SOL     OW 9596  14.619   3.785   2.968
35900SOL    HW1 9597  14.665   3.702   2.981
35900SOL    HW2 9598  14.526   3.761   2.969
35901SOL     OW 9599  11.732   0.850  14.042
35901SOL    HW1 9600  11.712   0.773  13.988
35901SOL    HW2 9601  11.674   0.918  14.008
35902SOL     OW 9602  12.320  13.251   7.222
35902SOL    HW1 9603  12.359  13.293   7.146
35902SOL    HW2 9604  12.294  13.322   7.280
35903SOL     OW 9605   8.969   2.314   4.662
35903SOL    HW1 9606   8.899   2.375   4.641
35903SOL    HW2 9607   9.043   2.369   4.685
35904SOL     OW 9608  14.401   9.069   2.540
35904SOL    HW1 9609  14.371   9.093   2.453
35904SOL    HW2 9610  14.326   9.085   2.597
35905SOL     OW 9611   3.158  11.072   1.533
35905SOL    HW1 9612   3.190  11.147   1.483
35905SOL    HW2 9613   3.199  11.081   1.619
35906SOL     OW 9614   9.048  12.946   7.954
35906SOL    HW1 9615   9.106  13.021   7.960
35906SOL    HW2 9616   8.993  12.963   7.877
35907SOL     OW 9617   5.693   9.166   5.788
35907SOL    HW1 9618   5.757   9.179   5.858
35907SOL    HW2 9619   5.651   9.252   5.778
35908SOL     OW 9620   8.666   8.644   5.767
35908SOL    HW1 9621   8.751   8.615   5.733
35908SOL    HW2 9622   8.612   8.565   5.771
35909SOL     OW 9623   0.843   7.013   2.549
35909SOL    HW1 9624   0.838   7.007   2.454
35909SOL    HW2 9625   0.877   6.928   2.576
35910SOL     OW 9626   5.573   3.614   8.689
35910SOL    HW1 9627   5.593   3.530   8.729
35910SOL    HW2 9628   5.655   3.643   8.649
35911SOL     OW 9629   0.445  11.379   8.516
35911SOL    HW1 9630   0.391  11.319   8.465
35911SOL    HW2 9631   0.506  11.417   8.452
35912SOL     OW 9632   1.631  13.959  10.007
35912SOL    HW1 9633   1.556  13.950  10.066
35912SOL    HW2 9634   1.645  14.054  10.001
35913SOL     OW 9635   3.861   4.022   7.145
35913SOL    HW1 9636   3.930   4.037   7.080
35913SOL    HW2 9637   3.898   3.958   7.205
35914SOL     OW 9638   3.229  13.588   7.503
35914SOL    HW1 9639   3.304  13.642   7.525
35914SOL    HW2 9640   3.263  13.523   7.441
35915SOL     OW 9641   8.914  11.109   3.418
35915SOL    HW1 9642   8.914  11.200   3.388
35915SOL    HW2 9643   8.861  11.110   3.498
35916SOL     OW 9644  10.336   6.620  11.187
35916SOL    HW1 9645  10.398   6.587  11.251
35916SOL    HW2 9646  10.387   6.630  11.107
35917SOL     OW 9647   2.130   7.122   8.874
35917SOL    HW1 9648   2.104   7.047   8.928
35917SOL    HW2 9649   2.209   7.156   8.916
35918SOL     OW 9650   5.590  13.065  11.120
35918SOL    HW1 9651   5.511  13.070  11.175
35918SOL    HW2 9652   5.561  13.094  11.034
35919SOL     OW 9653   3.625   6.744   4.931
35919SOL    HW1 9654   3.664   6.795   4.860
35919SOL    HW2 9655   3.616   6.655   4.894
35920SOL     OW 9656   7.232   8.778  10.321
35920SOL    HW1 9657   7.287   8.738  10.388
35920SOL    HW2 9658   7.255   8.732  10.240
35921SOL     OW 9659   3.493  10.637   6.434
35921SOL    HW1 9660   3.501  10.642   6.339
35921SOL    HW2 9661   3.439  10.712   6.458
35922SOL     OW 9662   6.368  12.312  12.087
35922SOL    HW1 9663   6.348  12.323  12.180
35922SOL    HW2 9664   6.428  12.237  12.083
35923SOL     OW 9665  10.567   1.235   2.484
35923SOL    HW1 9666  10.616   1.279   2.553
35923SOL    HW2 9667  10.483   1.213   2.524
35924SOL     OW 9668   5.458  11.791   7.205
35924SOL    HW1 9669   5.415  11.823   7.126
35924SOL    HW2 9670   5.386  11.775   7.267
35925SOL     OW 9671   9.441   5.056   6.285
35925SOL    HW1 9672   9.417   5.087   6.197
35925SOL    HW2 9673   9.522   5.104   6.305
35926SOL     OW 9674   7.447  12.267  13.248
35926SOL    HW1 9675   7.484  12.217  13.176
35926SOL    HW2 9676   7.355  12.280  13.224
35927SOL     OW 9677  13.958   6.891   7.366
35927SOL    HW1 9678  13.883   6.847   7.407
35927SOL    HW2 9679  13.950   6.870   7.273
35928SOL     OW 9680  12.323   3.099   9.825
35928SOL    HW1 9681  12.235   3.094   9.861
35928SOL    HW2 9682  12.335   3.192   9.804
35929SOL     OW 9683   5.361   7.796   7.141
35929SOL    HW1 9684   5.318   7.794   7.227
35929SOL    HW2 9685   5.424   7.724   7.144
35930SOL     OW 9686   4.055  12.485   9.655
35930SOL    HW1 9687   4.123  12.426   9.623
35930SOL    HW2 9688   3.976  12.459   9.608
35931SOL     OW 9689   8.975  13.004  10.345
35931SOL    HW1 9690   8.979  13.091  10.385
35931SOL    HW2 9691   8.956  13.021  10.253
35932SOL     OW 9692   4.655  12.149   4.389
35932SOL    HW1 9693   4.741  12.160   4.430
35932SOL    HW2 9694   4.658  12.204   4.311
35933SOL     OW 9695   4.723  13.821   7.183
35933SOL    HW1 9696   4.694  13.824   7.274
35933SOL    HW2 9697   4.782  13.746   7.179
35934SOL     OW 9698   1.475   1.324   7.805
35934SOL    HW1 9699   1.462   1.231   7.786
35934SOL    HW2 9700   1.570   1.334   7.811
35935SOL     OW 9701  13.377   9.734   7.022
35935SOL    HW1 9702  13.470   9.710   7.022
35935SOL    HW2 9703  13.351   9.727   6.930
35936SOL     OW 9704  14.422  12.492   8.708
35936SOL    HW1 9705  14.416  12.575   8.754
35936SOL    HW2 9706  14.484  12.509   8.636
35937SOL     OW 9707   2.733   7.321  11.322
35937SOL    HW1 9708   2.740   7.348  11.413
35937SOL    HW2 9709   2.741   7.226  11.324
35938SOL     OW 9710  14.773   9.295  11.816
35938SOL    HW1 9711  14.794   9.372  11.762
35938SOL    HW2 9712  14.771   9.222  11.754
35939SOL     OW 9713  13.227   1.773   6.618
35939SOL    HW1 9714  13.167   1.847   6.606
35939SOL    HW2 9715  13.258   1.782   6.709
35940SOL     OW 9716   5.635   2.122  14.607
35940SOL    HW1 9717   5.588   2.175  14.671
35940SOL    HW2 9718   5.635   2.176  14.527
35941SOL     OW 9719   6.636   2.930  10.908
35941SOL    HW1 9720   6.591   3.011  10.934
35941SOL    HW2 9721   6.701   2.959  10.844
35942SOL     OW 9722   1.415   9.272   7.207
35942SOL    HW1 9723   1.407   9.325   7.129
35942SOL    HW2 9724   1.364   9.193   7.188
35943SOL     OW 9725   0.861   9.093   8.434
35943SOL    HW1 9726   0.794   9.145   8.389
35943SOL    HW2 9727   0.941   9.106   8.383
35944SOL     OW 9728  13.192  13.147   3.354
35944SOL    HW1 9729  13.219  13.056   3.342
35944SOL    HW2 9730  13.119  13.159   3.293
35945SOL     OW 9731   2.606   5.384  11.635
35945SOL    HW1 9732   2.634   5.295  11.614
35945SOL    HW2 9733   2.651   5.439  11.572
35946SOL     OW 9734  12.623   0.981   0.311
35946SOL    HW1 9735  12.578   1.059   0.343
35946SOL    HW2 9736  12.555   0.913   0.307
35947SOL     OW 9737   8.446  14.813   3.049
35947SOL    HW1 9738   8.428  14.765   2.968
35947SOL    HW2 9739   8.378  14.783   3.109
35948SOL     OW 9740   5.059   5.495   3.568
35948SOL    HW1 9741   5.091   5.554   3.637
35948SOL    HW2 9742   5.036   5.415   3.614
35949SOL     OW 9743   7.540   7.328   4.072
35949SOL    HW1 9744   7.539   7.283   3.987
35949SOL    HW2 9745   7.460   7.300   4.115
35950SOL     OW 9746   8.781  11.795   9.025
35950SOL    HW1 9747   8.703  11.851   9.022
35950SOL    HW2 9748   8.768  11.741   9.102
35951SOL     OW 9749   2.730  10.841   1.544
35951SOL    HW1 9750   2.784  10.916   1.566
35951SOL    HW2 9751   2.787  10.765   1.557
35952SOL     OW 9752  13.958   6.730   3.395
35952SOL    HW1 9753  13.881   6.683   3.362
35952SOL    HW2 9754  14.033   6.684   3.358
35953SOL     OW 9755   5.524  11.012   3.351
35953SOL    HW1 9756   5.458  10.948   3.327
35953SOL    HW2 9757   5.484  11.097   3.330
35954SOL     OW 9758  11.224   1.830   2.817
35954SOL    HW1 9759  11.261   1.757   2.768
35954SOL    HW2 9760  11.222   1.903   2.755
35955SOL     OW 9761   0.433   0.955   8.383
35955SOL    HW1 9762   0.409   0.867   8.352
35955SOL    HW2 9763   0.520   0.970   8.346
35956SOL     OW 9764   9.746   5.863  13.411
35956SOL    HW1 9765   9.808   5.791  13.423
35956SOL    HW2 9766   9.772   5.905  13.330
35957SOL     OW 9767   4.796  13.465   0.248
35957SOL    HW1 9768   4.867  13.411   0.282
35957SOL    HW2 9769   4.717  13.426   0.285
35958SOL     OW 9770   0.432   0.527   9.665
35958SOL    HW1 9771   0.478   0.451   9.700
35958SOL    HW2 9772   0.448   0.596   9.729
35959SOL     OW 9773   0.304   7.633   2.993
35959SOL    HW1 9774   0.278   7.672   2.909
35959SOL    HW2 9775   0.234   7.571   3.012
35960SOL     OW 9776  11.322   3.315  10.907
35960SOL    HW1 9777  11.417   3.318  10.915
35960SOL    HW2 9778  11.305   3.245  10.844
35961SOL     OW 9779  13.023  14.414   6.447
35961SOL    HW1 9780  13.081  14.461   6.507
35961SOL    HW2 9781  13.032  14.322   6.473
35962SOL     OW 9782   3.342   7.154   6.824
35962SOL    HW1 9783   3.347   7.099   6.903
35962SOL    HW2 9784   3.251   7.184   6.823
35963SOL     OW 9785   4.823  12.807   2.601
35963SOL    HW1 9786   4.777  12.789   2.683
35963SOL    HW2 9787   4.754  12.816   2.536
35964SOL     OW 9788   6.778  10.725   4.329
35964SOL    HW1 9789   6.721  10.754   4.257
35964SOL    HW2 9790   6.809  10.806   4.369
35965SOL     OW 9791  11.840   2.149   4.858
35965SOL    HW1 9792  11.760   2.108   4.891
35965SOL    HW2 9793  11.886   2.178   4.937
35966SOL     OW 9794   1.484   6.003   3.814
35966SOL    HW1 9795   1.487   6.002   3.718
35966SOL    HW2 9796   1.571   6.033   3.840
35967SOL     OW 9797   8.575  12.040  10.475
35967SOL    HW1 9798   8.524  11.960  10.484
35967SOL    HW2 9799   8.510  12.109  10.461
35968SOL     OW 9800   4.314   4.087  12.906
35968SOL    HW1 9801   4.350   4.068  12.992
35968SOL    HW2 9802   4.284   4.177  12.911
35969SOL     OW 9803   8.002  14.707   1.669
35969SOL    HW1 9804   7.949  14.682   1.745
35969SOL    HW2 9805   7.992  14.633   1.608
35970SOL     OW 9806  13.505   6.002  11.503
35970SOL    HW1 9807  13.502   6.067  11.433
35970SOL    HW2 9808  13.597   6.000  11.530
35971SOL     OW 9809   1.710   4.103   8.571
35971SOL    HW1 9810   1.634   4.127   8.518
35971SOL    HW2 9811   1.783   4.150   8.530
35972SOL     OW 9812  10.789   5.788   4.628
35972SOL    HW1 9813  10.783   5.696   4.602
35972SOL    HW2 9814  10.811   5.834   4.547
35973SOL     OW 9815   1.302   6.467   8.510
35973SOL    HW1 9816   1.296   6.373   8.492
35973SOL    HW2 9817   1.359   6.501   8.442
35974SOL     OW 9818  14.702   4.695  10.280
35974SOL    HW1 9819  14.677   4.669  10.192
35974SOL    HW2 9820  14.785   4.649  10.296
35975SOL     OW 9821  10.760   0.227   6.702
35975SOL    HW1 9822  10.726   0.316   6.695
35975SOL    HW2 9823  10.748   0.204   6.794
35976SOL     OW 9824   9.930   9.998   4.682
35976SOL    HW1 9825   9.897  10.086   4.666
35976SOL    HW2 9826   9.904   9.948   4.604
35977SOL     OW 9827   3.125   3.883  11.810
35977SOL    HW1 9828   3.172   3.950  11.860
35977SOL    HW2 9829   3.192   3.819  11.786
35978SOL     OW 9830   9.632  10.301   9.630
35978SOL    HW1 9831   9.686  10.259   9.564
35978SOL    HW2 9832   9.542  10.281   9.603
35979SOL     OW 9833   1.482  14.819   4.152
35979SOL    HW1 9834   1.524   0.026   4.149
35979SOL    HW2 9835   1.544  14.761   4.108
35980SOL     OW 9836   7.128  10.032   9.301
35980SOL    HW1 9837   7.147   9.946   9.264
35980SOL    HW2 9838   7.198  10.088   9.267
35981SOL     OW 9839   6.598   7.831   1.510
35981SOL    HW1 9840   6.674   7.814   1.565
35981SOL    HW2 9841   6.530   7.862   1.571
35982SOL     OW 9842   7.420  14.653   2.593
35982SOL    HW1 9843   7.405  14.738   2.550
35982SOL    HW2 9844   7.365  14.592   2.544
35983SOL     OW 9845   8.329  14.639   1.503
35983SOL    HW1 9846   8.338  14.699   1.428
35983SOL    HW2 9847   8.269  14.571   1.471
35984SOL     OW 9848  11.253   7.364  14.360
35984SOL    HW1 9849  11.161   7.340  14.350
35984SOL    HW2 9850  11.250   7.457  14.386
35985SOL     OW 9851   9.452   9.106   7.338
35985SOL    HW1 9852   9.529   9.133   7.288
35985SOL    HW2 9853   9.404   9.048   7.279
35986SOL     OW 9854   6.452   2.743   3.146
35986SOL    HW1 9855   6.511   2.699   3.084
35986SOL    HW2 9856   6.387   2.785   3.090
35987SOL     OW 9857   9.003   3.829   2.888
35987SOL    HW1 9858   8.963   3.786   2.813
35987SOL    HW2 9859   8.963   3.787   2.964
35988SOL     OW 9860   5.964  13.448   9.433
35988SOL    HW1 9861   5.922  13.451   9.347
35988SOL    HW2 9862   5.964  13.539   9.463
35989SOL     OW 9863   8.801   6.059  11.660
35989SOL    HW1 9864   8.873   5.996  11.661
35989SOL    HW2 9865   8.843   6.143  11.642
35990SOL     OW 9866   9.645  14.580  14.027
35990SOL    HW1 9867   9.627  14.669  14.058
35990SOL    HW2 9868   9.726  14.588  13.976
35991SOL     OW 9869   2.520  11.992   1.351
35991SOL    HW1 9870   2.524  12.087   1.359
35991SOL    HW2 9871   2.521  11.976   1.257
35992SOL     OW 9872   4.950  13.973   7.013
35992SOL    HW1 9873   4.918  13.946   7.099
35992SOL    HW2 9874   5.045  13.983   7.025
35993SOL     OW 9875  11.532   4.596   8.859
35993SOL    HW1 9876  11.489   4.518   8.825
35993SOL    HW2 9877  11.548   4.650   8.782
35994SOL     OW 9878  10.471   3.604   4.573
35994SOL    HW1 9879  10.515   3.613   4.488
35994SOL    HW2 9880  10.380   3.586   4.551
35995SOL     OW 9881  11.913   3.055   7.865
35995SOL    HW1 9882  12.008   3.058   7.853
35995SOL    HW2 9883  11.879   3.120   7.803
35996SOL     OW 9884   7.731  10.589   3.435
35996SOL    HW1 9885   7.809  10.597   3.490
35996SOL    HW2 9886   7.704  10.497   3.445
35997SOL     OW 9887  12.470   1.889   5.882
35997SOL    HW1 9888  12.423   1.807   5.863
35997SOL    HW2 9889  12.409   1.958   5.855
35998SOL     OW 9890   5.367   3.355   2.993
35998SOL    HW1 9891   5.312   3.351   2.914
35998SOL    HW2 9892   5.456   3.361   2.960
35999SOL     OW 9893   3.801   8.432   2.720
35999SOL    HW1 9894   3.750   8.419   2.800
35999SOL    HW2 9895   3.890   8.450   2.751
36000SOL     OW 9896   4.770   5.106   5.140
36000SOL    HW1 9897   4.733   5.186   5.104
36000SOL    HW2 9898   4.786   5.125   5.232
36001SOL     OW 9899  11.434   4.007  11.313
36001SOL    HW1 9900  11.389   3.924  11.329
36001SOL    HW2 9901  11.367   4.074  11.325
36002SOL     OW 9902   6.472   0.773   3.792
36002SOL    HW1 9903   6.502   0.858   3.824
36002SOL    HW2 9904   6.397   0.793   3.736
36003SOL     OW 9905  13.256   0.956  12.238
36003SOL    HW1 9906  13.220   1.040  12.209
36003SOL    HW2 9907  13.248   0.958  12.333
36004SOL     OW 9908   5.278   5.160   9.086
36004SOL    HW1 9909   5.334   5.219   9.035
36004SOL    HW2 9910   5.208   5.135   9.026
36005SOL     OW 9911   2.983   4.678  13.176
36005SOL    HW1 9912   3.056   4.651  13.233
36005SOL    HW2 9913   2.967   4.602  13.121
36006SOL     OW 9914   4.899   3.721   2.032
36006SOL    HW1 9915   4.972   3.670   2.068
36006SOL    HW2 9916   4.899   3.700   1.939
36007SOL     OW 9917   8.565   8.408   4.305
36007SOL    HW1 9918   8.505   8.481   4.312
36007SOL    HW2 9919   8.524   8.337   4.355
36008SOL     OW 9920  14.361   4.797   8.622
36008SOL    HW1 9921  14.329   4.783   8.533
36008SOL    HW2 9922  14.292   4.849   8.664
36009SOL     OW 9923   1.854  11.432   1.437
36009SOL    HW1 9924   1.779  11.450   1.494
36009SOL    HW2 9925   1.878  11.341   1.457
36010SOL     OW 9926  12.206  14.125   7.527
36010SOL    HW1 9927  12.171  14.145   7.614
36010SOL    HW2 9928  12.140  14.159   7.466
36011SOL     OW 9929  13.231   3.540   6.360
36011SOL    HW1 9930  13.234   3.505   6.270
36011SOL    HW2 9931  13.144   3.579   6.367
36012SOL     OW 9932   5.043   5.200   1.805
36012SOL    HW1 9933   4.980   5.135   1.775
36012SOL    HW2 9934   5.126   5.173   1.765
36013SOL     OW 9935   3.906   9.315   7.709
36013SOL    HW1 9936   3.961   9.336   7.785
36013SOL    HW2 9937   3.969   9.294   7.640
36014SOL     OW 9938  11.673   6.402   3.216
36014SOL    HW1 9939  11.747   6.391   3.275
36014SOL    HW2 9940  11.666   6.496   3.203
36015SOL     OW 9941   3.759   6.179   1.166
36015SOL    HW1 9942   3.740   6.155   1.257
36015SOL    HW2 9943   3.673   6.202   1.129
36016SOL     OW 9944   7.451   1.297   4.735
36016SOL    HW1 9945   7.422   1.373   4.685
36016SOL    HW2 9946   7.468   1.331   4.823
36017SOL     OW 9947   2.722   3.750   4.497
36017SOL    HW1 9948   2.727   3.829   4.552
36017SOL    HW2 9949   2.642   3.761   4.446
36018SOL     OW 9950  14.186   4.044   4.258
36018SOL    HW1 9951  14.228   4.022   4.174
36018SOL    HW2 9952  14.197   4.139   4.266
36019SOL     OW 9953   5.230   7.601   3.444
36019SOL    HW1 9954   5.258   7.515   3.474
36019SOL    HW2 9955   5.184   7.640   3.519
36020SOL     OW 9956   5.867  10.815   1.206
36020SOL    HW1 9957   5.884  10.794   1.298
36020SOL    HW2 9958   5.804  10.749   1.177
36021SOL     OW 9959   2.469   8.744   0.789
36021SOL    HW1 9960   2.408   8.672   0.773
36021SOL    HW2 9961   2.521   8.715   0.864
36022SOL     OW 9962  14.029   9.033   2.259
36022SOL    HW1 9963  14.006   8.963   2.198
36022SOL    HW2 9964  14.053   9.107   2.204
36023SOL     OW 9965   4.864  14.452   1.060
36023SOL    HW1 9966   4.947  14.490   1.092
36023SOL    HW2 9967   4.806  14.458   1.136
36024SOL     OW 9968  14.310  14.007  11.321
36024SOL    HW1 9969  14.332  13.972  11.407
36024SOL    HW2 9970  14.388  14.057  11.295
36025SOL     OW 9971   6.348  10.745  14.201
36025SOL    HW1 9972   6.397  10.803  14.260
36025SOL    HW2 9973   6.264  10.788  14.189
36026SOL     OW 9974   6.609   1.026   0.652
36026SOL    HW1 9975   6.632   1.093   0.587
36026SOL    HW2 9976   6.607   0.944   0.603
36027SOL     OW 9977  14.647   1.028   0.327
36027SOL    HW1 9978  14.619   1.063   0.243
36027SOL    HW2 9979  14.622   0.936   0.324
36028SOL     OW 9980   5.398   2.629   6.158
36028SOL    HW1 9981   5.456   2.658   6.229
36028SOL    HW2 9982   5.447   2.558   6.115
36029SOL     OW 9983   2.802  13.216  11.478
36029SOL    HW1 9984   2.810  13.143  11.416
36029SOL    HW2 9985   2.708  13.235  11.480
36030SOL     OW 9986  14.240   7.924  10.045
36030SOL    HW1 9987  14.326   7.956  10.018
36030SOL    HW2 9988  14.197   7.899   9.963
36031SOL     OW 9989   2.913  12.696   1.132
36031SOL    HW1 9990   2.882  12.642   1.204
36031SOL    HW2 9991   2.872  12.781   1.147
36032SOL     OW 9992   4.621   5.387  10.960
36032SOL    HW1 9993   4.709   5.421  10.975
36032SOL    HW2 9994   4.581   5.385  11.047
36033SOL     OW 9995   4.405   3.594   7.633
36033SOL    HW1 9996   4.400   3.532   7.560
36033SOL    HW2 9997   4.318   3.635   7.635
36034SOL     OW 9998  13.016  11.715   7.609
36034SOL    HW1 9999  13.002  11.809   7.599
36034SOL    HW210000  13.001  11.679   7.521
36035SOL     OW10001   6.101   5.175   5.321
36035SOL    HW110002   6.089   5.159   5.414
36035SOL    HW210003   6.099   5.270   5.312
36036SOL     OW10004   5.336  14.076  11.565
36036SOL    HW110005   5.422  14.088  11.526
36036SOL    HW210006   5.345  13.998  11.621
36037SOL     OW10007  13.178  14.140   8.392
36037SOL    HW110008  13.202  14.060   8.438
36037SOL    HW210009  13.172  14.206   8.461
36038SOL     OW10010   9.919   5.515   3.584
36038SOL    HW110011   9.935   5.431   3.628
36038SOL    HW210012   9.882   5.571   3.652
36039SOL     OW10013   0.544   4.449   0.667
36039SOL    HW110014   0.611   4.511   0.696
36039SOL    HW210015   0.591   4.366   0.659
36040SOL     OW10016   9.395   6.214   4.733
36040SOL    HW110017   9.447   6.286   4.769
36040SOL    HW210018   9.322   6.257   4.689
36041SOL     OW10019  14.801  11.126   9.823
36041SOL    HW110020  14.706  11.119   9.811
36041SOL    HW210021  14.826  11.203   9.773
36042SOL     OW10022   2.164   5.702   5.626
36042SOL    HW110023   2.075   5.734   5.635
36042SOL    HW210024   2.216   5.757   5.683
36043SOL     OW10025  12.094   7.889  14.366
36043SOL    HW110026  12.070   7.970  14.411
36043SOL    HW210027  12.034   7.823  14.401
36044SOL     OW10028  12.135   7.879  11.703
36044SOL    HW110029  12.187   7.845  11.776
36044SOL    HW210030  12.125   7.972  11.723
36045SOL     OW10031   6.493  10.102  11.608
36045SOL    HW110032   6.454  10.110  11.520
36045SOL    HW210033   6.419  10.077  11.664
36046SOL     OW10034   2.043  14.123   5.222
36046SOL    HW110035   2.043  14.034   5.258
36046SOL    HW210036   2.066  14.178   5.296
36047SOL     OW10037  10.913   0.687  13.053
36047SOL    HW110038  10.847   0.664  12.988
36047SOL    HW210039  10.995   0.694  13.003
36048SOL     OW10040  11.588   6.678  14.192
36048SOL    HW110041  11.566   6.704  14.103
36048SOL    HW210042  11.664   6.621  14.183
36049SOL     OW10043   4.947  12.807   7.416
36049SOL    HW110044   4.893  12.830   7.340
36049SOL    HW210045   4.959  12.712   7.409
36050SOL     OW10046   6.836   0.781  12.657
36050SOL    HW110047   6.775   0.850  12.684
36050SOL    HW210048   6.922   0.822  12.659
36051SOL     OW10049  10.540  11.317   1.783
36051SOL    HW110050  10.497  11.347   1.863
36051SOL    HW210051  10.528  11.222   1.782
36052SOL     OW10052   6.267  12.750   1.683
36052SOL    HW110053   6.213  12.786   1.754
36052SOL    HW210054   6.330  12.820   1.664
36053SOL     OW10055   4.527   7.222  11.563
36053SOL    HW110056   4.490   7.191  11.645
36053SOL    HW210057   4.541   7.143  11.511
36054SOL     OW10058   7.381   5.505   2.018
36054SOL    HW110059   7.388   5.500   1.923
36054SOL    HW210060   7.320   5.435   2.041
36055SOL     OW10061  10.701   8.451   0.647
36055SOL    HW110062  10.740   8.445   0.559
36055SOL    HW210063  10.754   8.517   0.692
36056SOL     OW10064   7.379   7.572   9.862
36056SOL    HW110065   7.368   7.612   9.949
36056SOL    HW210066   7.407   7.483   9.881
36057SOL     OW10067   4.781   3.067   4.451
36057SOL    HW110068   4.794   2.975   4.428
36057SOL    HW210069   4.781   3.068   4.546
36058SOL     OW10070   4.067   2.386   5.546
36058SOL    HW110071   4.037   2.304   5.586
36058SOL    HW210072   3.989   2.422   5.504
36059SOL     OW10073   2.499   5.675  12.051
36059SOL    HW110074   2.527   5.668  12.142
36059SOL    HW210075   2.534   5.759  12.021
36060SOL     OW10076  12.137  10.920  10.867
36060SOL    HW110077  12.168  10.833  10.894
36060SOL    HW210078  12.073  10.945  10.934
36061SOL     OW10079  11.068  14.670   3.687
36061SOL    HW110080  10.982  14.659   3.648
36061SOL    HW210081  11.053  14.668   3.781
36062SOL     OW10082   6.445  11.936   5.517
36062SOL    HW110083   6.486  12.003   5.572
36062SOL    HW210084   6.510  11.919   5.448
36063SOL     OW10085   6.509  14.478   4.489
36063SOL    HW110086   6.543  14.566   4.476
36063SOL    HW210087   6.521  14.461   4.582
36064SOL     OW10088   3.647   6.084   4.113
36064SOL    HW110089   3.561   6.114   4.141
36064SOL    HW210090   3.629   6.014   4.050
36065SOL     OW10091  10.644   1.724   4.318
36065SOL    HW110092  10.643   1.628   4.328
36065SOL    HW210093  10.737   1.747   4.318
36066SOL     OW10094  11.931   9.181   4.832
36066SOL    HW110095  11.895   9.147   4.751
36066SOL    HW210096  11.857   9.223   4.876
36067SOL     OW10097  14.412   0.170   8.126
36067SOL    HW110098  14.483   0.122   8.082
36067SOL    HW210099  14.334   0.152   8.073
36068SOL     OW10100   7.442   9.361   8.899
36068SOL    HW110101   7.415   9.272   8.878
36068SOL    HW210102   7.533   9.366   8.871
36069SOL     OW10103  13.465   5.298   3.823
36069SOL    HW110104  13.518   5.323   3.748
36069SOL    HW210105  13.420   5.218   3.796
36070SOL     OW10106  10.043   8.727   4.591
36070SOL    HW110107  10.040   8.641   4.634
36070SOL    HW210108   9.965   8.773   4.624
36071SOL     OW10109   5.629   4.383   6.869
36071SOL    HW110110   5.581   4.339   6.799
36071SOL    HW210111   5.577   4.460   6.889
36072SOL     OW10112  12.491   4.568   7.492
36072SOL    HW110113  12.572   4.596   7.536
36072SOL    HW210114  12.501   4.598   7.402
36073SOL     OW10115  12.480   5.573   5.669
36073SOL    HW110116  12.415   5.636   5.700
36073SOL    HW210117  12.527   5.546   5.747
36074SOL     OW10118  10.877   5.937  11.227
36074SOL    HW110119  10.960   5.940  11.180
36074SOL    HW210120  10.813   5.910  11.162
36075SOL     OW10121  13.879   0.634  12.311
36075SOL    HW110122  13.833   0.665  12.233
36075SOL    HW210123  13.809   0.621  12.375
36076SOL     OW10124   5.891  14.294   3.315
36076SOL    HW110125   5.961  14.246   3.360
36076SOL    HW210126   5.926  14.309   3.227
36077SOL     OW10127   3.594   7.688   4.520
36077SOL    HW110128   3.589   7.770   4.472
36077SOL    HW210129   3.551   7.624   4.464
36078SOL     OW10130   7.621   0.821   2.259
36078SOL    HW110131   7.636   0.914   2.276
36078SOL    HW210132   7.694   0.777   2.302
36079SOL     OW10133  13.312  13.001   3.631
36079SOL    HW110134  13.309  12.985   3.536
36079SOL    HW210135  13.222  13.026   3.653
36080SOL     OW10136   9.188   2.598   0.180
36080SOL    HW110137   9.115   2.582   0.120
36080SOL    HW210138   9.262   2.551   0.141
36081SOL     OW10139   2.916  14.419   5.101
36081SOL    HW110140   2.910  14.431   5.196
36081SOL    HW210141   2.826  14.406   5.072
36082SOL     OW10142  12.363   2.361   1.246
36082SOL    HW110143  12.299   2.364   1.175
36082SOL    HW210144  12.345   2.438   1.299
36083SOL     OW10145   4.029   9.752  13.859
36083SOL    HW110146   3.959   9.705  13.813
36083SOL    HW210147   4.053   9.824  13.801
36084SOL     OW10148  14.427   9.369   3.080
36084SOL    HW110149  14.408   9.305   3.012
36084SOL    HW210150  14.505   9.415   3.049
36085SOL     OW10151   1.430   7.876  13.696
36085SOL    HW110152   1.390   7.892  13.781
36085SOL    HW210153   1.383   7.801  13.661
36086SOL     OW10154   9.076   6.860   0.250
36086SOL    HW110155   8.992   6.892   0.218
36086SOL    HW210156   9.055   6.780   0.297
36087SOL     OW10157  10.036   9.724   4.305
36087SOL    HW110158   9.994   9.712   4.390
36087SOL    HW210159   9.963   9.727   4.242
36088SOL     OW10160   4.169  10.407   6.842
36088SOL    HW110161   4.172  10.314   6.865
36088SOL    HW210162   4.251  10.422   6.795
36089SOL     OW10163   3.927  12.342   1.305
36089SOL    HW110164   3.957  12.252   1.293
36089SOL    HW210165   3.911  12.349   1.399
36090SOL     OW10166   0.817   7.630   5.119
36090SOL    HW110167   0.888   7.572   5.146
36090SOL    HW210168   0.744   7.570   5.099
36091SOL     OW10169   3.166   7.369   2.596
36091SOL    HW110170   3.159   7.463   2.617
36091SOL    HW210171   3.258   7.348   2.611
36092SOL     OW10172  10.568  12.541   3.151
36092SOL    HW110173  10.587  12.456   3.192
36092SOL    HW210174  10.474  12.540   3.136
36093SOL     OW10175   3.145   4.533   4.466
36093SOL    HW110176   3.232   4.529   4.427
36093SOL    HW210177   3.156   4.586   4.545
36094SOL     OW10178   4.281  14.357  11.353
36094SOL    HW110179   4.235  14.359  11.437
36094SOL    HW210180   4.220  14.313  11.294
36095SOL     OW10181   1.202   3.816   5.419
36095SOL    HW110182   1.278   3.845   5.468
36095SOL    HW210183   1.223   3.833   5.327
36096SOL     OW10184   9.370   5.105   3.004
36096SOL    HW110185   9.431   5.166   3.045
36096SOL    HW210186   9.286   5.124   3.046
36097SOL     OW10187   8.984   3.553   5.251
36097SOL    HW110188   9.041   3.477   5.262
36097SOL    HW210189   9.041   3.628   5.268
36098SOL     OW10190  12.709   4.398   3.730
36098SOL    HW110191  12.716   4.351   3.647
36098SOL    HW210192  12.799   4.401   3.763
36099SOL     OW10193   3.670  13.783  10.123
36099SOL    HW110194   3.576  13.767  10.112
36099SOL    HW210195   3.693  13.839  10.049
36100SOL     OW10196  12.610   2.420   4.977
36100SOL    HW110197  12.569   2.496   4.937
36100SOL    HW210198  12.677   2.393   4.914
36101SOL     OW10199   4.810   7.528   7.648
36101SOL    HW110200   4.793   7.593   7.580
36101SOL    HW210201   4.816   7.578   7.729
36102SOL     OW10202   5.104   4.481   9.251
36102SOL    HW110203   5.158   4.512   9.324
36102SOL    HW210204   5.054   4.558   9.224
36103SOL     OW10205   9.017  14.058   5.508
36103SOL    HW110206   9.082  13.993   5.482
36103SOL    HW210207   9.065  14.120   5.563
36104SOL     OW10208   7.263   6.645   4.594
36104SOL    HW110209   7.328   6.708   4.623
36104SOL    HW210210   7.314   6.567   4.572
36105SOL     OW10211   0.009  14.091  11.107
36105SOL    HW110212  14.871  14.033  11.181
36105SOL    HW210213   0.015  14.032  11.032
36106SOL     OW10214   9.508   1.954   7.693
36106SOL    HW110215   9.536   2.038   7.729
36106SOL    HW210216   9.501   1.896   7.769
36107SOL     OW10217  14.014   1.535   9.893
36107SOL    HW110218  14.025   1.440   9.898
36107SOL    HW210219  14.054   1.568   9.973
36108SOL     OW10220   3.144   4.299  10.192
36108SOL    HW110221   3.187   4.214  10.196
36108SOL    HW210222   3.055   4.280  10.161
36109SOL     OW10223  10.132   3.779  13.544
36109SOL    HW110224  10.200   3.711  13.546
36109SOL    HW210225  10.162   3.842  13.478
36110SOL     OW10226   3.514   8.455   0.358
36110SOL    HW110227   3.480   8.465   0.269
36110SOL    HW210228   3.459   8.511   0.412
36111SOL     OW10229   4.226   6.534   2.400
36111SOL    HW110230   4.160   6.603   2.409
36111SOL    HW210231   4.300   6.576   2.356
36112SOL     OW10232  14.159   4.290   7.499
36112SOL    HW110233  14.203   4.332   7.425
36112SOL    HW210234  14.213   4.310   7.575
36113SOL     OW10235  14.077   4.388   8.984
36113SOL    HW110236  14.003   4.398   9.043
36113SOL    HW210237  14.148   4.355   9.039
36114SOL     OW10238  11.495   0.331  12.330
36114SOL    HW110239  11.493   0.324  12.234
36114SOL    HW210240  11.587   0.320  12.353
36115SOL     OW10241   0.566  12.579   6.699
36115SOL    HW110242   0.567  12.673   6.681
36115SOL    HW210243   0.497  12.568   6.765
36116SOL     OW10244   1.317  11.207   7.792
36116SOL    HW110245   1.238  11.243   7.834
36116SOL    HW210246   1.359  11.283   7.751
36117SOL     OW10247   0.566   2.456  10.571
36117SOL    HW110248   0.487   2.452  10.517
36117SOL    HW210249   0.536   2.439  10.660
36118SOL     OW10250   6.586   1.278   3.753
36118SOL    HW110251   6.663   1.290   3.698
36118SOL    HW210252   6.553   1.367   3.769
36119SOL     OW10253   2.270   3.761   8.521
36119SOL    HW110254   2.202   3.759   8.588
36119SOL    HW210255   2.350   3.735   8.567
36120SOL     OW10256   4.033   6.173   7.450
36120SOL    HW110257   4.011   6.204   7.362
36120SOL    HW210258   3.975   6.223   7.508
36121SOL     OW10259  14.602  13.779  11.962
36121SOL    HW110260  14.520  13.755  11.919
36121SOL    HW210261  14.602  13.728  12.043
36122SOL     OW10262   2.858  11.282   5.899
36122SOL    HW110263   2.816  11.303   5.982
36122SOL    HW210264   2.890  11.192   5.911
36123SOL     OW10265  11.831  11.663   5.346
36123SOL    HW110266  11.799  11.603   5.414
36123SOL    HW210267  11.753  11.687   5.296
36124SOL     OW10268   5.693  12.770   7.533
36124SOL    HW110269   5.657  12.729   7.611
36124SOL    HW210270   5.622  12.765   7.468
36125SOL     OW10271   4.782   1.474   0.967
36125SOL    HW110272   4.791   1.383   0.995
36125SOL    HW210273   4.713   1.510   1.023
36126SOL     OW10274   9.425   7.590   6.711
36126SOL    HW110275   9.373   7.633   6.779
36126SOL    HW210276   9.456   7.509   6.753
36127SOL     OW10277  14.393  14.632  12.325
36127SOL    HW110278  14.338  14.597  12.254
36127SOL    HW210279  14.331  14.659  12.392
36128SOL     OW10280   9.867   5.358  13.715
36128SOL    HW110281   9.878   5.451  13.731
36128SOL    HW210282   9.793   5.332  13.769
36129SOL     OW10283   7.070   6.006   7.647
36129SOL    HW110284   7.019   5.936   7.606
36129SOL    HW210285   7.065   6.078   7.585
36130SOL     OW10286   9.614   7.062  10.789
36130SOL    HW110287   9.643   7.089  10.702
36130SOL    HW210288   9.526   7.099  10.797
36131SOL     OW10289   8.137  10.321  11.364
36131SOL    HW110290   8.127  10.226  11.354
36131SOL    HW210291   8.050  10.350  11.392
36132SOL     OW10292   1.573   7.987   5.427
36132SOL    HW110293   1.625   7.929   5.372
36132SOL    HW210294   1.487   7.945   5.430
36133SOL     OW10295   2.429  13.788   0.019
36133SOL    HW110296   2.355  13.848   0.024
36133SOL    HW210297   2.441  13.773  14.805
36134SOL     OW10298   7.238   1.025   2.349
36134SOL    HW110299   7.318   0.989   2.387
36134SOL    HW210300   7.253   1.120   2.350
36135SOL     OW10301  10.270   2.055   8.321
36135SOL    HW110302  10.257   2.107   8.401
36135SOL    HW210303  10.363   2.062   8.302
36136SOL     OW10304  12.427  10.142   7.980
36136SOL    HW110305  12.381  10.119   8.061
36136SOL    HW210306  12.395  10.079   7.916
36137SOL     OW10307  11.627  12.289   5.194
36137SOL    HW110308  11.693  12.265   5.129
36137SOL    HW210309  11.571  12.353   5.149
36138SOL     OW10310   4.915   3.742   8.807
36138SOL    HW110311   4.866   3.667   8.774
36138SOL    HW210312   4.991   3.748   8.749
36139SOL     OW10313   2.103   0.501   5.040
36139SOL    HW110314   2.040   0.459   4.982
36139SOL    HW210315   2.083   0.468   5.127
36140SOL     OW10316   2.464   1.595  13.069
36140SOL    HW110317   2.377   1.629  13.092
36140SOL    HW210318   2.446   1.532  12.999
36141SOL     OW10319  10.373  13.108   3.262
36141SOL    HW110320  10.292  13.091   3.311
36141SOL    HW210321  10.397  13.197   3.284
36142SOL     OW10322   5.661   5.418   4.427
36142SOL    HW110323   5.573   5.380   4.437
36142SOL    HW210324   5.674   5.424   4.333
36143SOL     OW10325  14.584   9.828   1.339
36143SOL    HW110326  14.656   9.772   1.310
36143SOL    HW210327  14.516   9.766   1.367
36144SOL     OW10328   4.642   4.801   3.549
36144SOL    HW110329   4.678   4.848   3.625
36144SOL    HW210330   4.677   4.848   3.474
36145SOL     OW10331  13.198   1.583   1.893
36145SOL    HW110332  13.202   1.488   1.903
36145SOL    HW210333  13.288   1.610   1.878
36146SOL     OW10334  12.351   4.691   5.359
36146SOL    HW110335  12.321   4.774   5.396
36146SOL    HW210336  12.418   4.717   5.295
36147SOL     OW10337  13.365   9.355   7.201
36147SOL    HW110338  13.380   9.419   7.270
36147SOL    HW210339  13.271   9.336   7.205
36148SOL     OW10340   9.861  14.452   4.572
36148SOL    HW110341   9.949  14.460   4.609
36148SOL    HW210342   9.874  14.402   4.491
36149SOL     OW10343   2.067   7.074  13.961
36149SOL    HW110344   1.982   7.058  14.003
36149SOL    HW210345   2.118   7.121  14.026
36150SOL     OW10346   2.635  12.261  11.873
36150SOL    HW110347   2.620  12.254  11.779
36150SOL    HW210348   2.729  12.272  11.882
36151SOL     OW10349  12.365   6.309   8.725
36151SOL    HW110350  12.347   6.234   8.782
36151SOL    HW210351  12.461   6.317   8.726
36152SOL     OW10352   8.416   1.196   6.206
36152SOL    HW110353   8.421   1.245   6.124
36152SOL    HW210354   8.394   1.263   6.272
36153SOL     OW10355  11.095   5.165  13.123
36153SOL    HW110356  11.085   5.128  13.035
36153SOL    HW210357  11.168   5.116  13.160
36154SOL     OW10358  12.704   5.340   0.374
36154SOL    HW110359  12.786   5.388   0.357
36154SOL    HW210360  12.669   5.380   0.453
36155SOL     OW10361   0.629  11.306  12.486
36155SOL    HW110362   0.582  11.388  12.469
36155SOL    HW210363   0.562  11.238  12.480
36156SOL     OW10364   1.594   2.835   3.984
36156SOL    HW110365   1.591   2.806   3.893
36156SOL    HW210366   1.650   2.771   4.028
36157SOL     OW10367   3.182  11.279   6.768
36157SOL    HW110368   3.188  11.231   6.686
36157SOL    HW210369   3.245  11.351   6.759
36158SOL     OW10370   6.849  12.480   6.232
36158SOL    HW110371   6.895  12.399   6.209
36158SOL    HW210372   6.891  12.509   6.313
36159SOL     OW10373   3.866   2.370  14.779
36159SOL    HW110374   3.904   2.456  14.799
36159SOL    HW210375   3.909   2.310  14.839
36160SOL     OW10376   9.801   9.562   4.976
36160SOL    HW110377   9.711   9.579   5.004
36160SOL    HW210378   9.818   9.472   5.005
36161SOL     OW10379   6.090  12.147   2.363
36161SOL    HW110380   6.078  12.099   2.281
36161SOL    HW210381   6.054  12.234   2.345
36162SOL     OW10382   0.200   4.482   5.667
36162SOL    HW110383   0.221   4.425   5.594
36162SOL    HW210384   0.215   4.429   5.745
36163SOL     OW10385   7.383   4.562   3.298
36163SOL    HW110386   7.398   4.564   3.392
36163SOL    HW210387   7.325   4.486   3.285
36164SOL     OW10388  14.547  12.317   1.777
36164SOL    HW110389  14.546  12.275   1.692
36164SOL    HW210390  14.628  12.288   1.818
36165SOL     OW10391   3.492   1.506   5.741
36165SOL    HW110392   3.459   1.494   5.652
36165SOL    HW210393   3.537   1.424   5.761
36166SOL     OW10394   9.487   4.117   7.910
36166SOL    HW110395   9.501   4.176   7.984
36166SOL    HW210396   9.448   4.039   7.949
36167SOL     OW10397   8.571   2.177   2.929
36167SOL    HW110398   8.548   2.088   2.956
36167SOL    HW210399   8.649   2.198   2.982
36168SOL     OW10400  13.673   2.265   5.154
36168SOL    HW110401  13.764   2.281   5.180
36168SOL    HW210402  13.630   2.232   5.232
36169SOL     OW10403  10.325  11.210  14.591
36169SOL    HW110404  10.269  11.211  14.514
36169SOL    HW210405  10.350  11.302  14.604
36170SOL     OW10406   8.597  13.861  11.056
36170SOL    HW110407   8.684  13.874  11.017
36170SOL    HW210408   8.615  13.840  11.148
36171SOL     OW10409   7.979   2.182  14.793
36171SOL    HW110410   7.914   2.135  14.845
36171SOL    HW210411   7.927   2.234  14.731
36172SOL     OW10412   0.746   0.850  11.973
36172SOL    HW110413   0.744   0.788  12.047
36172SOL    HW210414   0.832   0.890  11.977
36173SOL     OW10415  13.122   7.077   0.450
36173SOL    HW110416  13.098   7.022   0.375
36173SOL    HW210417  13.077   7.037   0.524
36174SOL     OW10418   0.111   9.737  12.066
36174SOL    HW110419   0.109   9.829  12.091
36174SOL    HW210420   0.033   9.725  12.012
36175SOL     OW10421   2.627  11.055  12.706
36175SOL    HW110422   2.550  11.056  12.650
36175SOL    HW210423   2.593  11.065  12.795
36176SOL     OW10424   2.700   5.115   8.600
36176SOL    HW110425   2.752   5.036   8.615
36176SOL    HW210426   2.659   5.101   8.515
36177SOL     OW10427   2.131   1.486   2.253
36177SOL    HW110428   2.122   1.403   2.299
36177SOL    HW210429   2.046   1.500   2.211
36178SOL     OW10430   9.819   3.567  13.287
36178SOL    HW110431   9.901   3.544  13.243
36178SOL    HW210432   9.762   3.492  13.270
36179SOL     OW10433   3.911  13.719   1.462
36179SOL    HW110434   3.911  13.624   1.447
36179SOL    HW210435   3.888  13.728   1.555
36180SOL     OW10436  13.260   8.326  10.987
36180SOL    HW110437  13.286   8.374  10.908
36180SOL    HW210438  13.167   8.309  10.976
36181SOL     OW10439   6.090  13.596   6.884
36181SOL    HW110440   6.034  13.642   6.946
36181SOL    HW210441   6.115  13.515   6.929
36182SOL     OW10442   2.458   5.738   0.622
36182SOL    HW110443   2.507   5.709   0.545
36182SOL    HW210444   2.476   5.672   0.689
36183SOL     OW10445   7.219   9.010   8.379
36183SOL    HW110446   7.225   9.011   8.474
36183SOL    HW210447   7.308   8.987   8.350
36184SOL     OW10448   0.082   1.206   3.784
36184SOL    HW110449   0.113   1.139   3.722
36184SOL    HW210450   0.008   1.165   3.829
36185SOL     OW10451   5.237   9.752  10.703
36185SOL    HW110452   5.193   9.673  10.672
36185SOL    HW210453   5.323   9.750  10.661
36186SOL     OW10454  11.290  10.103  14.165
36186SOL    HW110455  11.213  10.049  14.184
36186SOL    HW210456  11.339  10.053  14.100
36187SOL     OW10457  11.421  10.388   0.339
36187SOL    HW110458  11.504  10.346   0.314
36187SOL    HW210459  11.373  10.396   0.257
36188SOL     OW10460  10.822   8.880   3.936
36188SOL    HW110461  10.777   8.962   3.913
36188SOL    HW210462  10.913   8.895   3.912
36189SOL     OW10463   9.809   5.302   8.074
36189SOL    HW110464   9.809   5.371   8.140
36189SOL    HW210465   9.774   5.343   7.995
36190SOL     OW10466   2.922  13.223   5.348
36190SOL    HW110467   2.996  13.282   5.329
36190SOL    HW210468   2.878  13.214   5.263
36191SOL     OW10469  13.926   7.919  14.700
36191SOL    HW110470  14.014   7.955  14.694
36191SOL    HW210471  13.924   7.847  14.638
36192SOL     OW10472   9.621   8.194   6.450
36192SOL    HW110473   9.706   8.156   6.427
36192SOL    HW210474   9.557   8.136   6.407
36193SOL     OW10475  14.025  10.658  10.854
36193SOL    HW110476  14.041  10.642  10.947
36193SOL    HW210477  14.034  10.573  10.812
36194SOL     OW10478   6.384   3.081   9.560
36194SOL    HW110479   6.381   3.116   9.471
36194SOL    HW210480   6.292   3.065   9.581
36195SOL     OW10481  10.202  14.777  14.683
36195SOL    HW110482  10.265  14.720  14.640
36195SOL    HW210483  10.125  14.776  14.627
36196SOL     OW10484  13.640  10.249   4.988
36196SOL    HW110485  13.679  10.334   5.006
36196SOL    HW210486  13.682  10.190   5.051
36197SOL     OW10487   3.326   3.729   6.312
36197SOL    HW110488   3.345   3.772   6.396
36197SOL    HW210489   3.256   3.667   6.332
36198SOL     OW10490  13.829  13.070   3.754
36198SOL    HW110491  13.925  13.080   3.751
36198SOL    HW210492  13.813  12.985   3.714
36199SOL     OW10493  10.328   9.107  10.418
36199SOL    HW110494  10.331   9.092  10.323
36199SOL    HW210495  10.417   9.130  10.442
36200SOL     OW10496  10.626   5.442   2.237
36200SOL    HW110497  10.562   5.383   2.275
36200SOL    HW210498  10.643   5.406   2.149
36201SOL     OW10499   5.914   1.269   0.842
36201SOL    HW110500   5.886   1.310   0.760
36201SOL    HW210501   5.997   1.311   0.863
36202SOL     OW10502   1.561  11.766  14.438
36202SOL    HW110503   1.568  11.765  14.343
36202SOL    HW210504   1.635  11.714  14.468
36203SOL     OW10505  13.954  10.295   5.751
36203SOL    HW110506  13.966  10.310   5.657
36203SOL    HW210507  13.971  10.202   5.763
36204SOL     OW10508   3.562  12.085   9.278
36204SOL    HW110509   3.474  12.046   9.281
36204SOL    HW210510   3.562  12.136   9.197
36205SOL     OW10511   4.607   0.293   0.160
36205SOL    HW110512   4.599   0.296   0.064
36205SOL    HW210513   4.550   0.221   0.187
36206SOL     OW10514   4.449  11.532   9.767
36206SOL    HW110515   4.391  11.457   9.751
36206SOL    HW210516   4.469  11.566   9.680
36207SOL     OW10517   8.239   2.416   4.278
36207SOL    HW110518   8.249   2.377   4.365
36207SOL    HW210519   8.175   2.485   4.290
36208SOL     OW10520  11.914   3.389   6.275
36208SOL    HW110521  12.002   3.424   6.261
36208SOL    HW210522  11.916   3.304   6.231
36209SOL     OW10523  14.492   7.216   4.478
36209SOL    HW110524  14.473   7.187   4.567
36209SOL    HW210525  14.453   7.149   4.422
36210SOL     OW10526   0.843   7.453  11.404
36210SOL    HW110527   0.832   7.476  11.497
36210SOL    HW210528   0.935   7.474  11.386
36211SOL     OW10529   3.238   7.155  11.578
36211SOL    HW110530   3.243   7.061  11.558
36211SOL    HW210531   3.292   7.165  11.656
36212SOL     OW10532   7.268  12.946  11.974
36212SOL    HW110533   7.223  13.004  12.036
36212SOL    HW210534   7.205  12.877  11.956
36213SOL     OW10535  11.983  13.392   8.504
36213SOL    HW110536  12.028  13.338   8.439
36213SOL    HW210537  12.050  13.454   8.534
36214SOL     OW10538  12.603  11.202  11.797
36214SOL    HW110539  12.518  11.217  11.839
36214SOL    HW210540  12.581  11.182  11.706
36215SOL     OW10541   6.186   2.846   8.842
36215SOL    HW110542   6.213   2.911   8.777
36215SOL    HW210543   6.199   2.762   8.798
36216SOL     OW10544  10.995   2.262   8.817
36216SOL    HW110545  10.948   2.217   8.748
36216SOL    HW210546  10.970   2.216   8.898
36217SOL     OW10547  10.655  14.224   3.528
36217SOL    HW110548  10.568  14.186   3.516
36217SOL    HW210549  10.681  14.199   3.616
36218SOL     OW10550  12.200   4.732   0.344
36218SOL    HW110551  12.205   4.828   0.351
36218SOL    HW210552  12.125   4.708   0.398
36219SOL     OW10553   3.681   1.155  14.054
36219SOL    HW110554   3.686   1.068  14.015
36219SOL    HW210555   3.766   1.169  14.094
36220SOL     OW10556  10.420   5.325   4.347
36220SOL    HW110557  10.417   5.372   4.430
36220SOL    HW210558  10.492   5.263   4.356
36221SOL     OW10559  10.875   0.767   0.514
36221SOL    HW110560  10.812   0.835   0.492
36221SOL    HW210561  10.822   0.696   0.551
36222SOL     OW10562   0.186   4.519   7.999
36222SOL    HW110563   0.178   4.491   7.908
36222SOL    HW210564   0.224   4.443   8.044
36223SOL     OW10565   8.613   9.942  14.025
36223SOL    HW110566   8.621   9.990  13.943
36223SOL    HW210567   8.697   9.956  14.069
36224SOL     OW10568   4.122  13.297   6.503
36224SOL    HW110569   4.146  13.279   6.413
36224SOL    HW210570   4.066  13.223   6.528
36225SOL     OW10571   0.076   2.752  12.270
36225SOL    HW110572   0.071   2.678  12.330
36225SOL    HW210573   0.011   2.814  12.304
36226SOL     OW10574   7.148  14.369   8.832
36226SOL    HW110575   7.090  14.431   8.788
36226SOL    HW210576   7.154  14.296   8.771
36227SOL     OW10577  13.238  12.339  13.123
36227SOL    HW110578  13.182  12.266  13.152
36227SOL    HW210579  13.262  12.316  13.034
36228SOL     OW10580   9.320  13.468   2.105
36228SOL    HW110581   9.282  13.385   2.132
36228SOL    HW210582   9.250  13.532   2.122
36229SOL     OW10583  14.371   0.337  14.092
36229SOL    HW110584  14.369   0.243  14.073
36229SOL    HW210585  14.282   0.367  14.073
36230SOL     OW10586   9.702   6.246  14.720
36230SOL    HW110587   9.675   6.283  14.804
36230SOL    HW210588   9.766   6.178  14.744
36231SOL     OW10589   6.717   0.030   5.231
36231SOL    HW110590   6.624   0.049   5.221
36231SOL    HW210591   6.757   0.114   5.251
36232SOL     OW10592   8.792   5.774   8.321
36232SOL    HW110593   8.785   5.828   8.242
36232SOL    HW210594   8.852   5.704   8.298
36233SOL     OW10595  11.786  10.351  10.008
36233SOL    HW110596  11.766  10.425  10.064
36233SOL    HW210597  11.790  10.388   9.920
36234SOL     OW10598  14.174   1.757  12.671
36234SOL    HW110599  14.249   1.749  12.612
36234SOL    HW210600  14.184   1.844  12.711
36235SOL     OW10601  11.799   5.194  11.548
36235SOL    HW110602  11.782   5.118  11.603
36235SOL    HW210603  11.886   5.223  11.574
36236SOL     OW10604   1.076   2.670   0.530
36236SOL    HW110605   1.141   2.607   0.562
36236SOL    HW210606   1.021   2.689   0.606
36237SOL     OW10607  11.932  13.917  13.451
36237SOL    HW110608  12.003  13.970  13.414
36237SOL    HW210609  11.869  13.980  13.485
36238SOL     OW10610  11.799  13.267   1.966
36238SOL    HW110611  11.746  13.215   2.026
36238SOL    HW210612  11.759  13.354   1.968
36239SOL     OW10613  11.115  10.419  10.048
36239SOL    HW110614  11.065  10.439   9.968
36239SOL    HW210615  11.155  10.333  10.030
36240SOL     OW10616   0.400   0.279   3.584
36240SOL    HW110617   0.312   0.312   3.602
36240SOL    HW210618   0.433   0.250   3.669
36241SOL     OW10619   5.793   6.384   1.888
36241SOL    HW110620   5.766   6.429   1.968
36241SOL    HW210621   5.842   6.450   1.839
36242SOL     OW10622  11.981  11.125   4.869
36242SOL    HW110623  11.933  11.171   4.937
36242SOL    HW210624  11.917  11.111   4.799
36243SOL     OW10625  12.051   1.266   6.784
36243SOL    HW110626  12.029   1.338   6.724
36243SOL    HW210627  12.039   1.187   6.732
36244SOL     OW10628   3.711   7.596  14.293
36244SOL    HW110629   3.730   7.508  14.263
36244SOL    HW210630   3.756   7.603  14.378
36245SOL     OW10631   2.791  13.414  12.344
36245SOL    HW110632   2.844  13.415  12.423
36245SOL    HW210633   2.835  13.476  12.285
36246SOL     OW10634   6.781   4.073  13.632
36246SOL    HW110635   6.853   4.130  13.660
36246SOL    HW210636   6.799   3.989  13.674
36247SOL     OW10637   1.074   0.000   7.115
36247SOL    HW110638   1.148   0.061   7.105
36247SOL    HW210639   1.004   0.040   7.063
36248SOL     OW10640   7.189   9.749  12.564
36248SOL    HW110641   7.256   9.767  12.629
36248SOL    HW210642   7.139   9.675  12.600
36249SOL     OW10643   5.697   6.550   3.102
36249SOL    HW110644   5.666   6.464   3.077
36249SOL    HW210645   5.769   6.569   3.041
36250SOL     OW10646  14.102   6.667   6.383
36250SOL    HW110647  14.191   6.638   6.402
36250SOL    HW210648  14.097   6.667   6.287
36251SOL     OW10649  12.951   8.684   3.168
36251SOL    HW110650  12.940   8.766   3.121
36251SOL    HW210651  12.886   8.625   3.130
36252SOL     OW10652   7.678   0.146   8.512
36252SOL    HW110653   7.763   0.140   8.470
36252SOL    HW210654   7.697   0.178   8.600
36253SOL     OW10655   9.472   2.122  12.139
36253SOL    HW110656   9.520   2.117  12.222
36253SOL    HW210657   9.535   2.156  12.076
36254SOL     OW10658   5.772   1.035   4.717
36254SOL    HW110659   5.827   1.057   4.642
36254SOL    HW210660   5.688   1.078   4.698
36255SOL     OW10661   0.817   6.368  12.135
36255SOL    HW110662   0.888   6.417  12.176
36255SOL    HW210663   0.756   6.435  12.105
36256SOL     OW10664   9.991   9.448  13.437
36256SOL    HW110665  10.025   9.439  13.349
36256SOL    HW210666  10.065   9.478  13.489
36257SOL     OW10667   6.143  10.752   1.196
36257SOL    HW110668   6.075  10.818   1.187
36257SOL    HW210669   6.106  10.673   1.156
36258SOL     OW10670   2.216   9.428   5.124
36258SOL    HW110671   2.176   9.353   5.168
36258SOL    HW210672   2.291   9.391   5.077
36259SOL     OW10673  11.187  10.135   5.614
36259SOL    HW110674  11.246  10.207   5.589
36259SOL    HW210675  11.227  10.057   5.575
36260SOL     OW10676  12.889   9.418   3.255
36260SOL    HW110677  12.983   9.433   3.255
36260SOL    HW210678  12.856   9.470   3.181
36261SOL     OW10679   7.484   1.527   1.083
36261SOL    HW110680   7.439   1.578   1.150
36261SOL    HW210681   7.452   1.561   1.000
36262SOL     OW10682   3.896  10.941   0.501
36262SOL    HW110683   3.825  10.905   0.554
36262SOL    HW210684   3.943  10.864   0.468
36263SOL     OW10685  11.419  13.956   2.127
36263SOL    HW110686  11.475  14.003   2.190
36263SOL    HW210687  11.367  14.025   2.085
36264SOL     OW10688   2.577   2.846   7.255
36264SOL    HW110689   2.501   2.829   7.311
36264SOL    HW210690   2.540   2.855   7.167
36265SOL     OW10691   4.866   5.607  13.179
36265SOL    HW110692   4.827   5.530  13.221
36265SOL    HW210693   4.880   5.580  13.088
36266SOL     OW10694  14.700   0.170   4.048
36266SOL    HW110695  14.696   0.227   3.971
36266SOL    HW210696  14.725   0.228   4.120
36267SOL     OW10697   5.605  10.650  10.298
36267SOL    HW110698   5.583  10.739  10.270
36267SOL    HW210699   5.521  10.612  10.323
36268SOL     OW10700   3.110  12.262  10.854
36268SOL    HW110701   3.029  12.234  10.811
36268SOL    HW210702   3.169  12.283  10.781
36269SOL     OW10703  12.758   1.600   8.220
36269SOL    HW110704  12.678   1.615   8.168
36269SOL    HW210705  12.824   1.655   8.178
36270SOL     OW10706   1.448   7.093   5.728
36270SOL    HW110707   1.508   7.072   5.799
36270SOL    HW210708   1.408   7.010   5.704
36271SOL     OW10709   2.936   6.484  12.690
36271SOL    HW110710   2.846   6.488  12.659
36271SOL    HW210711   2.937   6.414  12.755
36272SOL     OW10712   1.717   6.655  13.039
36272SOL    HW110713   1.718   6.651  12.944
36272SOL    HW210714   1.625   6.645  13.064
36273SOL     OW10715   6.377   3.131   3.422
36273SOL    HW110716   6.312   3.153   3.355
36273SOL    HW210717   6.424   3.056   3.387
36274SOL     OW10718  13.217   9.739   1.122
36274SOL    HW110719  13.297   9.784   1.097
36274SOL    HW210720  13.246   9.664   1.174
36275SOL     OW10721  14.141   3.517   7.963
36275SOL    HW110722  14.150   3.422   7.956
36275SOL    HW210723  14.047   3.530   7.981
36276SOL     OW10724   8.946  10.873  12.840
36276SOL    HW110725   9.028  10.908  12.874
36276SOL    HW210726   8.883  10.945  12.849
36277SOL     OW10727   5.493   8.236   6.486
36277SOL    HW110728   5.553   8.247   6.413
36277SOL    HW210729   5.412   8.202   6.447
36278SOL     OW10730  13.854   1.696  11.075
36278SOL    HW110731  13.865   1.722  10.984
36278SOL    HW210732  13.916   1.625  11.088
36279SOL     OW10733   6.045   8.322   5.283
36279SOL    HW110734   6.072   8.404   5.324
36279SOL    HW210735   6.100   8.315   5.205
36280SOL     OW10736   2.765   2.519  14.319
36280SOL    HW110737   2.741   2.521  14.411
36280SOL    HW210738   2.802   2.431  14.306
36281SOL     OW10739   3.910  10.274   3.979
36281SOL    HW110740   3.834  10.287   4.036
36281SOL    HW210741   3.882  10.204   3.919
36282SOL     OW10742   5.892   7.864  12.992
36282SOL    HW110743   5.878   7.811  13.071
36282SOL    HW210744   5.870   7.806  12.919
36283SOL     OW10745   2.264   2.575   1.853
36283SOL    HW110746   2.219   2.524   1.785
36283SOL    HW210747   2.327   2.629   1.805
36284SOL     OW10748   3.029   5.775  12.285
36284SOL    HW110749   2.990   5.690  12.309
36284SOL    HW210750   3.085   5.755  12.210
36285SOL     OW10751   9.371  13.883   0.789
36285SOL    HW110752   9.427  13.805   0.794
36285SOL    HW210753   9.292  13.852   0.744
36286SOL     OW10754  12.851   5.801  10.520
36286SOL    HW110755  12.818   5.876  10.470
36286SOL    HW210756  12.946   5.809  10.515
36287SOL     OW10757  12.369   8.607   4.321
36287SOL    HW110758  12.397   8.582   4.409
36287SOL    HW210759  12.273   8.596   4.323
36288SOL     OW10760   1.895   2.522  13.260
36288SOL    HW110761   1.898   2.550  13.352
36288SOL    HW210762   1.801   2.513  13.242
36289SOL     OW10763  11.637   8.853   9.610
36289SOL    HW110764  11.731   8.857   9.595
36289SOL    HW210765  11.628   8.839   9.704
36290SOL     OW10766   7.795  14.201   0.880
36290SOL    HW110767   7.701  14.198   0.862
36290SOL    HW210768   7.803  14.258   0.956
36291SOL     OW10769  14.572  10.234   4.142
36291SOL    HW110770  14.624  10.234   4.061
36291SOL    HW210771  14.485  10.260   4.114
36292SOL     OW10772   3.486   4.530   8.366
36292SOL    HW110773   3.578   4.505   8.351
36292SOL    HW210774   3.439   4.494   8.290
36293SOL     OW10775   4.353   9.235   7.388
36293SOL    HW110776   4.377   9.310   7.443
36293SOL    HW210777   4.430   9.179   7.390
36294SOL     OW10778   3.295   6.954  11.391
36294SOL    HW110779   3.354   6.942  11.317
36294SOL    HW210780   3.251   7.037  11.373
36295SOL     OW10781  10.301  10.105   7.645
36295SOL    HW110782  10.305  10.038   7.713
36295SOL    HW210783  10.212  10.139   7.651
36296SOL     OW10784   7.843   7.523  10.127
36296SOL    HW110785   7.894   7.529  10.208
36296SOL    HW210786   7.909   7.524  10.057
36297SOL     OW10787   6.419  11.717  14.006
36297SOL    HW110788   6.405  11.671  13.923
36297SOL    HW210789   6.483  11.786  13.984
36298SOL     OW10790   6.729   4.105   8.445
36298SOL    HW110791   6.742   4.082   8.353
36298SOL    HW210792   6.786   4.045   8.493
36299SOL     OW10793   0.626  14.396  12.047
36299SOL    HW110794   0.609  14.318  11.994
36299SOL    HW210795   0.717  14.388  12.075
36300SOL     OW10796   4.850   7.546   8.148
36300SOL    HW110797   4.831   7.549   8.242
36300SOL    HW210798   4.790   7.480   8.114
36301SOL     OW10799  11.487   1.786  12.042
36301SOL    HW110800  11.563   1.746  12.085
36301SOL    HW210801  11.419   1.718  12.045
36302SOL     OW10802   0.550  14.568  14.723
36302SOL    HW110803   0.539  14.663  14.730
36302SOL    HW210804   0.642  14.553  14.747
36303SOL     OW10805   7.560   8.241   6.530
36303SOL    HW110806   7.591   8.215   6.617
36303SOL    HW210807   7.566   8.160   6.478
36304SOL     OW10808  12.480   0.041  14.578
36304SOL    HW110809  12.388   0.065  14.589
36304SOL    HW210810  12.478  14.837  14.532
36305SOL     OW10811   5.397   2.597  14.698
36305SOL    HW110812   5.404   2.511  14.656
36305SOL    HW210813   5.487   2.629  14.703
36306SOL     OW10814   9.702   9.844  11.486
36306SOL    HW110815   9.676   9.760  11.447
36306SOL    HW210816   9.775   9.821  11.543
36307SOL     OW10817   1.035   1.022   3.172
36307SOL    HW110818   1.014   1.017   3.265
36307SOL    HW210819   0.952   1.006   3.128
36308SOL     OW10820   4.656   3.240   2.394
36308SOL    HW110821   4.660   3.230   2.299
36308SOL    HW210822   4.638   3.152   2.427
36309SOL     OW10823  11.696  14.437   9.025
36309SOL    HW110824  11.759  14.447   8.954
36309SOL    HW210825  11.687  14.342   9.036
36310SOL     OW10826   9.033   5.015   0.268
36310SOL    HW110827   9.062   4.983   0.182
36310SOL    HW210828   9.048   5.109   0.264
36311SOL     OW10829   9.072   3.388   7.493
36311SOL    HW110830   9.037   3.471   7.526
36311SOL    HW210831   9.151   3.414   7.444
36312SOL     OW10832  14.332  12.428   7.806
36312SOL    HW110833  14.294  12.458   7.724
36312SOL    HW210834  14.345  12.507   7.858
36313SOL     OW10835   9.124   9.918   5.696
36313SOL    HW110836   9.149   9.950   5.783
36313SOL    HW210837   9.163   9.981   5.635
36314SOL     OW10838   6.737  10.673  12.405
36314SOL    HW110839   6.730  10.590  12.359
36314SOL    HW210840   6.672  10.729  12.364
36315SOL     OW10841   4.883   0.357  14.383
36315SOL    HW110842   4.856   0.276  14.427
36315SOL    HW210843   4.803   0.409  14.377
36316SOL     OW10844  11.977  13.901   4.247
36316SOL    HW110845  11.936  13.948   4.320
36316SOL    HW210846  11.976  13.809   4.275
36317SOL     OW10847   5.833   8.704  14.546
36317SOL    HW110848   5.789   8.737  14.468
36317SOL    HW210849   5.926   8.726  14.533
36318SOL     OW10850   5.522   0.493   8.556
36318SOL    HW110851   5.430   0.500   8.531
36318SOL    HW210852   5.569   0.491   8.473
36319SOL     OW10853   4.977   3.710   9.301
36319SOL    HW110854   4.903   3.736   9.246
36319SOL    HW210855   4.988   3.783   9.362
36320SOL     OW10856  11.698  14.589   0.237
36320SOL    HW110857  11.747  14.641   0.301
36320SOL    HW210858  11.649  14.526   0.290
36321SOL     OW10859   2.230   5.346   7.653
36321SOL    HW110860   2.160   5.323   7.715
36321SOL    HW210861   2.195   5.322   7.568
36322SOL     OW10862   0.609   3.015   5.010
36322SOL    HW110863   0.611   2.920   5.018
36322SOL    HW210864   0.671   3.046   5.077
36323SOL     OW10865  10.161   7.416   9.412
36323SOL    HW110866  10.170   7.400   9.505
36323SOL    HW210867  10.099   7.350   9.382
36324SOL     OW10868   6.427  13.056   5.184
36324SOL    HW110869   6.399  13.144   5.158
36324SOL    HW210870   6.346  13.010   5.206
36325SOL     OW10871   9.100   9.515  14.352
36325SOL    HW110872   9.126   9.449  14.416
36325SOL    HW210873   9.010   9.492  14.329
36326SOL     OW10874  14.864   6.437   8.278
36326SOL    HW110875  14.790   6.473   8.327
36326SOL    HW210876   0.033   6.513   8.247
36327SOL     OW10877   7.981   0.123   1.034
36327SOL    HW110878   7.971   0.136   1.128
36327SOL    HW210879   7.984   0.028   1.023
36328SOL     OW10880   7.062   2.075   2.635
36328SOL    HW110881   7.036   1.987   2.606
36328SOL    HW210882   7.042   2.076   2.729
36329SOL     OW10883   8.932   2.662   1.049
36329SOL    HW110884   8.862   2.699   1.103
36329SOL    HW210885   8.887   2.631   0.970
36330SOL     OW10886  11.874   8.335   6.392
36330SOL    HW110887  11.867   8.243   6.366
36330SOL    HW210888  11.960   8.342   6.433
36331SOL     OW10889   1.064   5.900   0.743
36331SOL    HW110890   1.041   5.967   0.679
36331SOL    HW210891   1.033   5.935   0.827
36332SOL     OW10892   4.017   2.992   4.509
36332SOL    HW110893   4.108   3.005   4.537
36332SOL    HW210894   4.021   2.919   4.448
36333SOL     OW10895   9.824  14.635   7.072
36333SOL    HW110896   9.907  14.642   7.025
36333SOL    HW210897   9.764  14.597   7.008
36334SOL     OW10898   1.634   7.514  13.254
36334SOL    HW110899   1.692   7.444  13.222
36334SOL    HW210900   1.554   7.468  13.280
36335SOL     OW10901  10.844  13.918   2.563
36335SOL    HW110902  10.796  13.851   2.515
36335SOL    HW210903  10.925  13.875   2.591
36336SOL     OW10904   7.038   9.308   2.075
36336SOL    HW110905   7.017   9.224   2.035
36336SOL    HW210906   7.022   9.295   2.168
36337SOL     OW10907   7.557  10.821  11.987
36337SOL    HW110908   7.642  10.825  11.943
36337SOL    HW210909   7.568  10.874  12.066
36338SOL     OW10910   4.356   1.219   2.455
36338SOL    HW110911   4.289   1.274   2.495
36338SOL    HW210912   4.342   1.230   2.361
36339SOL     OW10913  13.104   0.126  13.178
36339SOL    HW110914  13.098   0.030  13.170
36339SOL    HW210915  13.053   0.159  13.105
36340SOL     OW10916  12.468   8.048   9.476
36340SOL    HW110917  12.374   8.033   9.490
36340SOL    HW210918  12.494   7.978   9.417
36341SOL     OW10919  11.881   3.662   7.296
36341SOL    HW110920  11.855   3.682   7.206
36341SOL    HW210921  11.811   3.606   7.329
36342SOL     OW10922   6.404   4.532   1.814
36342SOL    HW110923   6.341   4.590   1.771
36342SOL    HW210924   6.485   4.543   1.766
36343SOL     OW10925   2.055   0.411   8.927
36343SOL    HW110926   2.146   0.403   8.955
36343SOL    HW210927   2.004   0.376   9.000
36344SOL     OW10928  12.252   1.612   9.641
36344SOL    HW110929  12.267   1.620   9.735
36344SOL    HW210930  12.253   1.518   9.624
36345SOL     OW10931   2.379   8.443   5.016
36345SOL    HW110932   2.409   8.369   5.070
36345SOL    HW210933   2.446   8.450   4.948
36346SOL     OW10934   4.853   7.641   0.056
36346SOL    HW110935   4.941   7.672   0.080
36346SOL    HW210936   4.805   7.721   0.036
36347SOL     OW10937  10.877   3.784   0.766
36347SOL    HW110938  10.936   3.749   0.699
36347SOL    HW210939  10.790   3.778   0.726
36348SOL     OW10940   7.241   9.177   8.132
36348SOL    HW110941   7.328   9.142   8.115
36348SOL    HW210942   7.218   9.144   8.219
36349SOL     OW10943   7.186   7.777   3.926
36349SOL    HW110944   7.165   7.769   4.019
36349SOL    HW210945   7.259   7.717   3.913
36350SOL     OW10946  11.727   6.261  10.664
36350SOL    HW110947  11.780   6.338  10.641
36350SOL    HW210948  11.666   6.293  10.731
36351SOL     OW10949  10.603   0.743   9.243
36351SOL    HW110950  10.591   0.833   9.212
36351SOL    HW210951  10.675   0.748   9.305
36352SOL     OW10952   9.227   3.931  14.314
36352SOL    HW110953   9.268   3.986  14.248
36352SOL    HW210954   9.193   3.856  14.264
36353SOL     OW10955   7.576  12.674   8.728
36353SOL    HW110956   7.573  12.753   8.673
36353SOL    HW210957   7.576  12.707   8.818
36354SOL     OW10958   7.444  11.114   8.671
36354SOL    HW110959   7.412  11.092   8.759
36354SOL    HW210960   7.466  11.030   8.631
36355SOL     OW10961  11.507  12.886   2.637
36355SOL    HW110962  11.506  12.947   2.564
36355SOL    HW210963  11.487  12.801   2.597
36356SOL     OW10964   5.093   9.218  10.304
36356SOL    HW110965   5.085   9.312  10.284
36356SOL    HW210966   5.013   9.197  10.352
36357SOL     OW10967   3.276   9.949   0.154
36357SOL    HW110968   3.362   9.946   0.112
36357SOL    HW210969   3.292   9.987   0.240
36358SOL     OW10970   9.462   1.746   2.868
36358SOL    HW110971   9.496   1.679   2.927
36358SOL    HW210972   9.471   1.709   2.781
36359SOL     OW10973   6.214  10.952   0.068
36359SOL    HW110974   6.208  11.047   0.059
36359SOL    HW210975   6.140  10.930   0.125
36360SOL     OW10976   1.139   7.786  13.781
36360SOL    HW110977   1.048   7.795  13.810
36360SOL    HW210978   1.189   7.840  13.843
36361SOL     OW10979  12.571   3.156   8.851
36361SOL    HW110980  12.588   3.074   8.806
36361SOL    HW210981  12.534   3.213   8.783
36362SOL     OW10982   1.553   0.671   7.804
36362SOL    HW110983   1.628   0.617   7.828
36362SOL    HW210984   1.496   0.668   7.881
36363SOL     OW10985  13.990   8.014   1.475
36363SOL    HW110986  14.013   7.934   1.522
36363SOL    HW210987  14.039   8.083   1.519
36364SOL     OW10988   8.463   5.775   2.553
36364SOL    HW110989   8.488   5.824   2.631
36364SOL    HW210990   8.370   5.795   2.541
36365SOL     OW10991   4.209  13.559  11.545
36365SOL    HW110992   4.135  13.519  11.590
36365SOL    HW210993   4.253  13.610  11.613
36366SOL     OW10994   3.537   0.831  12.267
36366SOL    HW110995   3.460   0.777  12.284
36366SOL    HW210996   3.516   0.916  12.305
36367SOL     OW10997   9.710   7.812   3.908
36367SOL    HW110998   9.625   7.768   3.914
36367SOL    HW210999   9.694   7.890   3.856
36368SOL     OW11000   0.870   7.720   8.375
36368SOL    HW111001   0.834   7.704   8.462
36368SOL    HW211002   0.925   7.798   8.386
36369SOL     OW11003   7.760   6.203   7.034
36369SOL    HW111004   7.684   6.163   7.077
36369SOL    HW211005   7.759   6.167   6.945
36370SOL     OW11006   6.568   3.139   2.915
36370SOL    HW111007   6.482   3.135   2.872
36370SOL    HW211008   6.575   3.230   2.946
36371SOL     OW11009  14.662  13.457   0.015
36371SOL    HW111010  14.742  13.452   0.067
36371SOL    HW211011  14.667  13.541  14.850
36372SOL     OW11012   2.866   1.613   0.839
36372SOL    HW111013   2.930   1.643   0.904
36372SOL    HW211014   2.836   1.694   0.796
36373SOL     OW11015  11.523  10.351   1.400
36373SOL    HW111016  11.568  10.345   1.316
36373SOL    HW211017  11.590  10.380   1.461
36374SOL     OW11018   9.780  14.504   9.227
36374SOL    HW111019   9.859  14.470   9.186
36374SOL    HW211020   9.722  14.428   9.236
36375SOL     OW11021  11.235  14.384  14.507
36375SOL    HW111022  11.141  14.369  14.497
36375SOL    HW211023  11.247  14.404  14.600
36376SOL     OW11024  13.715   5.504   4.786
36376SOL    HW111025  13.778   5.575   4.767
36376SOL    HW211026  13.684   5.477   4.699
36377SOL     OW11027  12.654  14.239   2.730
36377SOL    HW111028  12.636  14.261   2.638
36377SOL    HW211029  12.634  14.318   2.778
36378SOL     OW11030   9.954   2.374  10.788
36378SOL    HW111031   9.953   2.300  10.728
36378SOL    HW211032   9.997   2.445  10.739
36379SOL     OW11033   7.701   4.702   7.834
36379SOL    HW111034   7.712   4.663   7.921
36379SOL    HW211035   7.750   4.784   7.838
36380SOL     OW11036  13.346  10.488  12.464
36380SOL    HW111037  13.322  10.526  12.379
36380SOL    HW211038  13.408  10.418  12.442
36381SOL     OW11039   9.010   1.838  13.093
36381SOL    HW111040   8.959   1.757  13.101
36381SOL    HW211041   8.965   1.901  13.149
36382SOL     OW11042   5.663   1.687   5.125
36382SOL    HW111043   5.649   1.641   5.208
36382SOL    HW211044   5.752   1.661   5.099
36383SOL     OW11045  13.006   2.259   0.611
36383SOL    HW111046  13.080   2.201   0.627
36383SOL    HW211047  12.930   2.201   0.609
36384SOL     OW11048  11.611   1.862   1.613
36384SOL    HW111049  11.704   1.882   1.599
36384SOL    HW211050  11.587   1.917   1.688
36385SOL     OW11051   2.277   7.470   6.161
36385SOL    HW111052   2.205   7.461   6.100
36385SOL    HW211053   2.322   7.550   6.135
36386SOL     OW11054   7.126   5.584  11.706
36386SOL    HW111055   7.035   5.582  11.675
36386SOL    HW211056   7.132   5.513  11.770
36387SOL     OW11057   8.632   5.549   9.293
36387SOL    HW111058   8.581   5.596   9.358
36387SOL    HW211059   8.719   5.541   9.332
36388SOL     OW11060  13.548   1.756  11.129
36388SOL    HW111061  13.617   1.793  11.185
36388SOL    HW211062  13.582   1.764  11.040
36389SOL     OW11063   6.248   4.160   5.702
36389SOL    HW111064   6.293   4.094   5.650
36389SOL    HW211065   6.220   4.226   5.638
36390SOL     OW11066   1.477  10.322   9.486
36390SOL    HW111067   1.522  10.391   9.437
36390SOL    HW211068   1.462  10.361   9.573
36391SOL     OW11069   6.944   0.107   6.572
36391SOL    HW111070   6.949   0.181   6.633
36391SOL    HW211071   6.996   0.039   6.613
36392SOL     OW11072  10.110   0.987  14.730
36392SOL    HW111073  10.178   0.995  14.663
36392SOL    HW211074  10.107   0.894  14.750
36393SOL     OW11075   5.099  10.488   3.122
36393SOL    HW111076   5.127  10.562   3.068
36393SOL    HW211077   5.160  10.418   3.100
36394SOL     OW11078   4.050   1.870   8.371
36394SOL    HW111079   4.124   1.929   8.353
36394SOL    HW211080   3.974   1.919   8.341
36395SOL     OW11081  12.964   2.214   3.012
36395SOL    HW111082  13.048   2.209   2.965
36395SOL    HW211083  12.989   2.211   3.104
36396SOL     OW11084  12.853   0.600   6.674
36396SOL    HW111085  12.914   0.529   6.693
36396SOL    HW211086  12.869   0.665   6.743
36397SOL     OW11087   7.467  14.603   4.961
36397SOL    HW111088   7.551  14.561   4.979
36397SOL    HW211089   7.483  14.655   4.882
36398SOL     OW11090   4.174   3.984   1.391
36398SOL    HW111091   4.193   3.986   1.485
36398SOL    HW211092   4.196   3.895   1.365
36399SOL     OW11093   5.879  14.339   8.802
36399SOL    HW111094   5.911  14.428   8.818
36399SOL    HW211095   5.784  14.349   8.793
36400SOL     OW11096   3.101  12.861   5.860
36400SOL    HW111097   3.121  12.897   5.774
36400SOL    HW211098   3.183  12.822   5.890
36401SOL     OW11099   2.408   9.194   3.578
36401SOL    HW111100   2.445   9.106   3.574
36401SOL    HW211101   2.464   9.242   3.639
36402SOL     OW11102   9.566   1.708   0.004
36402SOL    HW111103   9.586   1.771   0.073
36402SOL    HW211104   9.506   1.646   0.044
36403SOL     OW11105   8.869  12.282  14.601
36403SOL    HW111106   8.919  12.301  14.681
36403SOL    HW211107   8.923  12.220  14.553
36404SOL     OW11108   0.075   3.413   8.923
36404SOL    HW111109   0.161   3.455   8.930
36404SOL    HW211110   0.061   3.371   9.008
36405SOL     OW11111   3.465   2.552   6.790
36405SOL    HW111112   3.472   2.620   6.856
36405SOL    HW211113   3.551   2.549   6.749
36406SOL     OW11114   1.490   6.532   1.071
36406SOL    HW111115   1.416   6.474   1.088
36406SOL    HW211116   1.548   6.480   1.015
36407SOL     OW11117   9.592   1.183   8.932
36407SOL    HW111118   9.570   1.197   8.840
36407SOL    HW211119   9.678   1.140   8.930
36408SOL     OW11120   4.130   4.410   3.059
36408SOL    HW111121   4.072   4.467   3.010
36408SOL    HW211122   4.075   4.337   3.086
36409SOL     OW11123   5.196   5.410   6.018
36409SOL    HW111124   5.122   5.470   6.014
36409SOL    HW211125   5.240   5.431   6.100
36410SOL     OW11126   8.408   8.663   5.970
36410SOL    HW111127   8.478   8.604   5.996
36410SOL    HW211128   8.366   8.618   5.896
36411SOL     OW11129   8.087  12.175   1.338
36411SOL    HW111130   8.180  12.193   1.345
36411SOL    HW211131   8.073  12.159   1.245
36412SOL     OW11132  14.524   4.539   1.499
36412SOL    HW111133  14.609   4.494   1.492
36412SOL    HW211134  14.460   4.468   1.506
36413SOL     OW11135   7.152   9.168  12.911
36413SOL    HW111136   7.205   9.228  12.859
36413SOL    HW211137   7.184   9.080  12.888
36414SOL     OW11138   6.941   9.238   2.704
36414SOL    HW111139   6.951   9.220   2.610
36414SOL    HW211140   6.936   9.152   2.745
36415SOL     OW11141  13.997   8.181   9.032
36415SOL    HW111142  14.060   8.190   9.104
36415SOL    HW211143  13.922   8.138   9.073
36416SOL     OW11144   2.070   3.115   4.905
36416SOL    HW111145   1.985   3.076   4.924
36416SOL    HW211146   2.130   3.073   4.967
36417SOL     OW11147   2.138   6.426   6.360
36417SOL    HW111148   2.052   6.459   6.335
36417SOL    HW211149   2.167   6.374   6.285
36418SOL     OW11150   2.706  11.155   3.876
36418SOL    HW111151   2.766  11.229   3.877
36418SOL    HW211152   2.719  11.114   3.790
36419SOL     OW11153  14.490   6.267  14.151
36419SOL    HW111154  14.517   6.180  14.121
36419SOL    HW211155  14.424   6.295  14.087
36420SOL     OW11156  12.656   9.326  14.593
36420SOL    HW111157  12.718   9.308  14.663
36420SOL    HW211158  12.570   9.308  14.631
36421SOL     OW11159   3.375   6.848  14.037
36421SOL    HW111160   3.320   6.789  13.985
36421SOL    HW211161   3.454   6.859  13.985
36422SOL     OW11162   9.399   6.536  11.065
36422SOL    HW111163   9.388   6.469  10.999
36422SOL    HW211164   9.410   6.488  11.147
36423SOL     OW11165  14.420   7.490   0.790
36423SOL    HW111166  14.334   7.495   0.832
36423SOL    HW211167  14.482   7.497   0.863
36424SOL     OW11168   0.155  11.133   5.418
36424SOL    HW111169   0.209  11.114   5.494
36424SOL    HW211170   0.086  11.190   5.451
36425SOL     OW11171   5.389   5.298   0.958
36425SOL    HW111172   5.347   5.371   0.913
36425SOL    HW211173   5.443   5.339   1.026
36426SOL     OW11174  13.978   3.791   6.903
36426SOL    HW111175  13.904   3.785   6.963
36426SOL    HW211176  14.043   3.844   6.951
36427SOL     OW11177   5.532   3.012   9.327
36427SOL    HW111178   5.449   3.060   9.323
36427SOL    HW211179   5.590   3.061   9.268
36428SOL     OW11180  11.626   1.183   8.603
36428SOL    HW111181  11.648   1.194   8.696
36428SOL    HW211182  11.620   1.273   8.570
36429SOL     OW11183   6.751   9.571  10.781
36429SOL    HW111184   6.755   9.515  10.703
36429SOL    HW211185   6.702   9.520  10.845
36430SOL     OW11186   8.201   9.002   6.943
36430SOL    HW111187   8.170   9.064   7.009
36430SOL    HW211188   8.127   8.942   6.930
36431SOL     OW11189   4.792   2.107   3.876
36431SOL    HW111190   4.867   2.093   3.933
36431SOL    HW211191   4.716   2.096   3.933
36432SOL     OW11192  10.035  11.619   9.891
36432SOL    HW111193   9.953  11.610   9.940
36432SOL    HW211194  10.094  11.555   9.933
36433SOL     OW11195   5.873   7.239  14.095
36433SOL    HW111196   5.905   7.164  14.045
36433SOL    HW211197   5.793   7.266  14.050
36434SOL     OW11198  11.046   8.055   6.419
36434SOL    HW111199  11.139   8.063   6.439
36434SOL    HW211200  11.015   8.145   6.415
36435SOL     OW11201  10.457   7.662   6.408
36435SOL    HW111202  10.426   7.684   6.320
36435SOL    HW211203  10.377   7.649   6.459
36436SOL     OW11204   5.959   5.609   5.560
36436SOL    HW111205   6.036   5.600   5.616
36436SOL    HW211206   5.994   5.626   5.473
36437SOL     OW11207   4.723   0.750  11.320
36437SOL    HW111208   4.758   0.693  11.389
36437SOL    HW211209   4.786   0.822  11.315
36438SOL     OW11210   4.683  11.605   2.123
36438SOL    HW111211   4.663  11.698   2.110
36438SOL    HW211212   4.774  11.595   2.097
36439SOL     OW11213   6.286   1.327  12.845
36439SOL    HW111214   6.262   1.390  12.777
36439SOL    HW211215   6.346   1.375  12.902
36440SOL     OW11216   6.560   1.407  14.029
36440SOL    HW111217   6.482   1.452  14.062
36440SOL    HW211218   6.549   1.316  14.058
36441SOL     OW11219   7.095   9.947  14.629
36441SOL    HW111220   7.187   9.947  14.656
36441SOL    HW211221   7.083  10.032  14.587
36442SOL     OW11222   9.769  14.038   1.847
36442SOL    HW111223   9.710  14.064   1.918
36442SOL    HW211224   9.742  13.950   1.824
36443SOL     OW11225  10.690  11.140   3.424
36443SOL    HW111226  10.775  11.134   3.379
36443SOL    HW211227  10.627  11.156   3.354
36444SOL     OW11228  12.139   3.213   5.503
36444SOL    HW111229  12.081   3.155   5.454
36444SOL    HW211230  12.093   3.298   5.504
36445SOL     OW11231   6.192   0.552   4.613
36445SOL    HW111232   6.260   0.492   4.642
36445SOL    HW211233   6.146   0.577   4.693
36446SOL     OW11234  12.927   9.500   6.138
36446SOL    HW111235  12.968   9.576   6.096
36446SOL    HW211236  12.833   9.521   6.137
36447SOL     OW11237   0.144   0.608   4.116
36447SOL    HW111238   0.118   0.537   4.175
36447SOL    HW211239   0.210   0.657   4.166
36448SOL     OW11240  10.860  12.878   3.313
36448SOL    HW111241  10.841  12.838   3.228
36448SOL    HW211242  10.788  12.939   3.327
36449SOL     OW11243   0.786   0.159   7.649
36449SOL    HW111244   0.768   0.080   7.699
36449SOL    HW211245   0.861   0.137   7.594
36450SOL     OW11246   7.606   4.400   5.000
36450SOL    HW111247   7.584   4.322   4.949
36450SOL    HW211248   7.642   4.367   5.082
36451SOL     OW11249   9.188  13.113   3.946
36451SOL    HW111250   9.171  13.126   4.039
36451SOL    HW211251   9.224  13.025   3.940
36452SOL     OW11252   0.256   9.240   3.537
36452SOL    HW111253   0.269   9.148   3.561
36452SOL    HW211254   0.233   9.283   3.619
36453SOL     OW11255  11.030  10.666   4.904
36453SOL    HW111256  10.955  10.607   4.905
36453SOL    HW211257  10.991  10.753   4.915
36454SOL     OW11258   5.206   1.613  12.189
36454SOL    HW111259   5.216   1.673  12.115
36454SOL    HW211260   5.293   1.610  12.229
36455SOL     OW11261   3.923   2.114   3.172
36455SOL    HW111262   3.836   2.118   3.131
36455SOL    HW211263   3.962   2.034   3.138
36456SOL     OW11264   4.350   0.342   8.542
36456SOL    HW111265   4.410   0.272   8.519
36456SOL    HW211266   4.373   0.365   8.632
36457SOL     OW11267  13.425  11.390   1.319
36457SOL    HW111268  13.521  11.397   1.313
36457SOL    HW211269  13.411  11.327   1.390
36458SOL     OW11270   8.459   2.994  12.437
36458SOL    HW111271   8.372   2.973  12.403
36458SOL    HW211272   8.489   2.912  12.476
36459SOL     OW11273   2.711  14.011   1.236
36459SOL    HW111274   2.801  14.040   1.229
36459SOL    HW211275   2.717  13.920   1.267
36460SOL     OW11276   9.135   5.673   2.325
36460SOL    HW111277   9.191   5.637   2.256
36460SOL    HW211278   9.140   5.768   2.313
36461SOL     OW11279   1.621   2.902   6.052
36461SOL    HW111280   1.713   2.885   6.032
36461SOL    HW211281   1.609   2.995   6.034
36462SOL     OW11282   9.671   3.513   5.535
36462SOL    HW111283   9.649   3.562   5.456
36462SOL    HW211284   9.593   3.461   5.554
36463SOL     OW11285   3.033   0.262  11.730
36463SOL    HW111286   3.077   0.200  11.788
36463SOL    HW211287   2.981   0.206  11.672
36464SOL     OW11288   0.905  14.079   6.041
36464SOL    HW111289   0.816  14.068   6.076
36464SOL    HW211290   0.921  13.998   5.992
36465SOL     OW11291   2.716   3.205  12.627
36465SOL    HW111292   2.655   3.271  12.660
36465SOL    HW211293   2.800   3.229  12.665
36466SOL     OW11294   2.561   1.045  12.707
36466SOL    HW111295   2.593   1.059  12.618
36466SOL    HW211296   2.601   1.115  12.759
36467SOL     OW11297  14.477   6.013   4.485
36467SOL    HW111298  14.500   6.066   4.562
36467SOL    HW211299  14.416   5.947   4.518
36468SOL     OW11300   4.528   6.877   8.971
36468SOL    HW111301   4.611   6.923   8.961
36468SOL    HW211302   4.466   6.930   8.920
36469SOL     OW11303   8.947   0.468  11.950
36469SOL    HW111304   9.007   0.510  11.889
36469SOL    HW211305   8.938   0.379  11.918
36470SOL     OW11306  13.342   7.418  13.548
36470SOL    HW111307  13.362   7.444  13.458
36470SOL    HW211308  13.406   7.350  13.568
36471SOL     OW11309  12.579  11.901   9.498
36471SOL    HW111310  12.629  11.823   9.524
36471SOL    HW211311  12.601  11.966   9.565
36472SOL     OW11312   4.952   2.943   6.739
36472SOL    HW111313   4.997   2.976   6.817
36472SOL    HW211314   5.017   2.888   6.696
36473SOL     OW11315   3.324  13.429   1.618
36473SOL    HW111316   3.287  13.471   1.540
36473SOL    HW211317   3.366  13.349   1.585
36474SOL     OW11318   2.981   5.124   9.216
36474SOL    HW111319   3.067   5.111   9.254
36474SOL    HW211320   2.997   5.140   9.123
36475SOL     OW11321   0.651   0.720   1.764
36475SOL    HW111322   0.713   0.717   1.837
36475SOL    HW211323   0.626   0.812   1.758
36476SOL     OW11324   6.748  11.694  13.992
36476SOL    HW111325   6.821  11.634  14.007
36476SOL    HW211326   6.719  11.720  14.079
36477SOL     OW11327   8.651   1.612  10.653
36477SOL    HW111328   8.739   1.617  10.688
36477SOL    HW211329   8.603   1.681  10.699
36478SOL     OW11330   2.408  10.771   1.960
36478SOL    HW111331   2.433  10.723   1.881
36478SOL    HW211332   2.317  10.746   1.976
36479SOL     OW11333   5.224   3.562  13.083
36479SOL    HW111334   5.215   3.545  12.989
36479SOL    HW211335   5.314   3.538  13.103
36480SOL     OW11336   5.064  14.082   2.254
36480SOL    HW111337   5.078  14.147   2.323
36480SOL    HW211338   5.135  14.097   2.192
36481SOL     OW11339   3.508   5.196  12.477
36481SOL    HW111340   3.505   5.279  12.430
36481SOL    HW211341   3.476   5.132  12.413
36482SOL     OW11342   0.043   8.528   3.978
36482SOL    HW111343   0.095   8.461   3.933
36482SOL    HW211344   0.105   8.598   3.997
36483SOL     OW11345   8.952   8.656  14.698
36483SOL    HW111346   8.888   8.710  14.651
36483SOL    HW211347   8.903   8.620  14.772
36484SOL     OW11348  13.622   1.619  14.690
36484SOL    HW111349  13.647   1.540  14.738
36484SOL    HW211350  13.527   1.623  14.700
36485SOL     OW11351   1.347   1.152  14.237
36485SOL    HW111352   1.343   1.099  14.158
36485SOL    HW211353   1.260   1.142  14.278
36486SOL     OW11354   1.881   0.470  10.106
36486SOL    HW111355   1.800   0.430  10.076
36486SOL    HW211356   1.941   0.397  10.120
36487SOL     OW11357   2.583   1.093   3.090
36487SOL    HW111358   2.524   1.053   3.153
36487SOL    HW211359   2.670   1.063   3.115
36488SOL     OW11360   7.153   5.258   3.875
36488SOL    HW111361   7.112   5.254   3.788
36488SOL    HW211362   7.235   5.211   3.865
36489SOL     OW11363   6.297  10.469   9.693
36489SOL    HW111364   6.337  10.535   9.749
36489SOL    HW211365   6.251  10.519   9.625
36490SOL     OW11366  14.839  14.061  10.210
36490SOL    HW111367  14.813  14.153  10.208
36490SOL    HW211368  14.758  14.015  10.233
36491SOL     OW11369   1.029   1.628   9.714
36491SOL    HW111370   0.972   1.569   9.665
36491SOL    HW211371   1.069   1.573   9.781
36492SOL     OW11372  14.579   5.468   7.319
36492SOL    HW111373  14.502   5.417   7.296
36492SOL    HW211374  14.632   5.410   7.374
36493SOL     OW11375   4.918   8.285  11.785
36493SOL    HW111376   4.981   8.291  11.858
36493SOL    HW211377   4.841   8.331  11.816
36494SOL     OW11378   5.368   1.082   0.868
36494SOL    HW111379   5.367   1.035   0.952
36494SOL    HW211380   5.443   1.140   0.874
36495SOL     OW11381   5.820  14.774   8.422
36495SOL    HW111382   5.854  14.777   8.333
36495SOL    HW211383   5.863  14.698   8.462
36496SOL     OW11384  11.491  12.666   8.714
36496SOL    HW111385  11.407  12.678   8.759
36496SOL    HW211386  11.468  12.655   8.622
36497SOL     OW11387   0.279   9.688  10.079
36497SOL    HW111388   0.262   9.600  10.045
36497SOL    HW211389   0.196   9.734  10.071
36498SOL     OW11390   7.058   7.916  12.416
36498SOL    HW111391   7.128   7.857  12.388
36498SOL    HW211392   6.995   7.914  12.344
36499SOL     OW11393   9.299  12.513  14.791
36499SOL    HW111394   9.241  12.565  14.846
36499SOL    HW211395   9.325  12.439  14.845
36500SOL     OW11396  13.093   9.081  12.351
36500SOL    HW111397  13.083   9.091  12.256
36500SOL    HW211398  13.122   8.991  12.362
36501SOL     OW11399   2.783  12.322   0.810
36501SOL    HW111400   2.788  12.235   0.847
36501SOL    HW211401   2.794  12.381   0.885
36502SOL     OW11402  11.222   1.882   9.629
36502SOL    HW111403  11.168   1.929   9.566
36502SOL    HW211404  11.289   1.840   9.575
36503SOL     OW11405   8.481   5.766   7.100
36503SOL    HW111406   8.544   5.697   7.120
36503SOL    HW211407   8.494   5.831   7.168
36504SOL     OW11408   1.383   4.222  14.211
36504SOL    HW111409   1.426   4.137  14.207
36504SOL    HW211410   1.289   4.202  14.203
36505SOL     OW11411   1.849  12.016  12.961
36505SOL    HW111412   1.812  11.976  12.882
36505SOL    HW211413   1.801  11.976  13.033
36506SOL     OW11414   3.417   0.679   6.386
36506SOL    HW111415   3.361   0.654   6.313
36506SOL    HW211416   3.366   0.657   6.464
36507SOL     OW11417   7.377   6.238  12.230
36507SOL    HW111418   7.299   6.192  12.199
36507SOL    HW211419   7.419   6.270  12.150
36508SOL     OW11420  12.928   7.419   1.474
36508SOL    HW111421  12.912   7.375   1.391
36508SOL    HW211422  12.840   7.443   1.505
36509SOL     OW11423   6.606  10.685   4.743
36509SOL    HW111424   6.581  10.593   4.750
36509SOL    HW211425   6.646  10.706   4.827
36510SOL     OW11426  14.505   7.228   5.256
36510SOL    HW111427  14.544   7.206   5.171
36510SOL    HW211428  14.471   7.317   5.245
36511SOL     OW11429   4.743   1.309  13.541
36511SOL    HW111430   4.729   1.221  13.505
36511SOL    HW211431   4.745   1.296  13.636
36512SOL     OW11432   2.170   8.834  13.549
36512SOL    HW111433   2.212   8.860  13.467
36512SOL    HW211434   2.160   8.915  13.598
36513SOL     OW11435   8.589   7.937   6.699
36513SOL    HW111436   8.639   7.916   6.620
36513SOL    HW211437   8.505   7.970   6.667
36514SOL     OW11438  12.704   3.835  11.928
36514SOL    HW111439  12.734   3.851  12.018
36514SOL    HW211440  12.775   3.785  11.888
36515SOL     OW11441   7.055   3.302   5.588
36515SOL    HW111442   7.014   3.285   5.503
36515SOL    HW211443   7.014   3.383   5.619
36516SOL     OW11444  10.262  14.738   9.952
36516SOL    HW111445  10.283  14.815  10.006
36516SOL    HW211446  10.295  14.761   9.865
36517SOL     OW11447   8.016   7.990   2.080
36517SOL    HW111448   7.986   7.900   2.097
36517SOL    HW211449   8.111   7.985   2.092
36518SOL     OW11450  12.199   1.043  13.375
36518SOL    HW111451  12.234   0.989  13.446
36518SOL    HW211452  12.235   1.130  13.392
36519SOL     OW11453   8.061   4.926   7.106
36519SOL    HW111454   8.127   4.869   7.067
36519SOL    HW211455   8.014   4.964   7.031
36520SOL     OW11456  11.051   5.842   6.527
36520SOL    HW111457  11.114   5.915   6.520
36520SOL    HW211458  10.985   5.863   6.461
36521SOL     OW11459   2.791   7.241   7.738
36521SOL    HW111460   2.868   7.246   7.682
36521SOL    HW211461   2.773   7.147   7.746
36522SOL     OW11462   5.096   7.541  14.549
36522SOL    HW111463   5.088   7.446  14.547
36522SOL    HW211464   5.187   7.557  14.575
36523SOL     OW11465   7.549  10.857   1.504
36523SOL    HW111466   7.604  10.791   1.545
36523SOL    HW211467   7.589  10.940   1.529
36524SOL     OW11468   6.183  12.085  10.930
36524SOL    HW111469   6.268  12.083  10.974
36524SOL    HW211470   6.198  12.044  10.846
36525SOL     OW11471   9.465  10.998   4.498
36525SOL    HW111472   9.526  11.044   4.555
36525SOL    HW211473   9.486  10.905   4.511
36526SOL     OW11474  13.884   2.873  13.775
36526SOL    HW111475  13.890   2.967  13.790
36526SOL    HW211476  13.883   2.835  13.862
36527SOL     OW11477   4.123   4.752  14.769
36527SOL    HW111478   4.132   4.688  14.840
36527SOL    HW211479   4.034   4.786  14.779
36528SOL     OW11480  12.183  10.043   4.799
36528SOL    HW111481  12.156  10.082   4.883
36528SOL    HW211482  12.278  10.043   4.802
36529SOL     OW11483   5.770   6.179   8.807
36529SOL    HW111484   5.848   6.147   8.761
36529SOL    HW211485   5.798   6.261   8.848
36530SOL     OW11486   3.800   4.269   7.227
36530SOL    HW111487   3.709   4.297   7.222
36530SOL    HW211488   3.797   4.174   7.212
36531SOL     OW11489   7.732   3.563  10.745
36531SOL    HW111490   7.698   3.523  10.824
36531SOL    HW211491   7.812   3.514  10.725
36532SOL     OW11492   6.502   3.915   2.386
36532SOL    HW111493   6.541   3.974   2.322
36532SOL    HW211494   6.575   3.883   2.438
36533SOL     OW11495  11.793   0.651   9.825
36533SOL    HW111496  11.818   0.572   9.873
36533SOL    HW211497  11.876   0.695   9.806
36534SOL     OW11498   1.794   3.692   5.707
36534SOL    HW111499   1.715   3.644   5.729
36534SOL    HW211500   1.791   3.770   5.764
36535SOL     OW11501   0.262  13.624   8.547
36535SOL    HW111502   0.293  13.630   8.456
36535SOL    HW211503   0.170  13.598   8.539
36536SOL     OW11504   3.892   5.904   3.139
36536SOL    HW111505   3.848   5.882   3.221
36536SOL    HW211506   3.825   5.892   3.071
36537SOL     OW11507   7.309   4.463   5.183
36537SOL    HW111508   7.386   4.512   5.211
36537SOL    HW211509   7.301   4.393   5.248
36538SOL     OW11510   9.949   9.067   8.425
36538SOL    HW111511   9.987   9.153   8.408
36538SOL    HW211512   9.876   9.061   8.364
36539SOL     OW11513   4.831   0.834  11.732
36539SOL    HW111514   4.926   0.820  11.735
36539SOL    HW211515   4.801   0.778  11.661
36540SOL     OW11516  14.642   2.796   3.196
36540SOL    HW111517  14.694   2.806   3.116
36540SOL    HW211518  14.681   2.857   3.258
36541SOL     OW11519   9.745  13.887   6.079
36541SOL    HW111520   9.661  13.931   6.094
36541SOL    HW211521   9.803  13.922   6.147
36542SOL     OW11522   6.645  10.397   2.048
36542SOL    HW111523   6.639  10.318   2.102
36542SOL    HW211524   6.583  10.382   1.977
36543SOL     OW11525   3.338  13.061   9.138
36543SOL    HW111526   3.425  13.099   9.119
36543SOL    HW211527   3.357  12.980   9.185
36544SOL     OW11528   5.862  12.247  10.731
36544SOL    HW111529   5.776  12.260  10.691
36544SOL    HW211530   5.885  12.332  10.768
36545SOL     OW11531   2.785   9.805  11.717
36545SOL    HW111532   2.821   9.887  11.685
36545SOL    HW211533   2.847   9.776  11.784
36546SOL     OW11534   9.954   9.316   8.617
36546SOL    HW111535   9.978   9.395   8.666
36546SOL    HW211536   9.996   9.327   8.532
36547SOL     OW11537   2.652   3.694   9.482
36547SOL    HW111538   2.646   3.606   9.444
36547SOL    HW211539   2.593   3.747   9.429
36548SOL     OW11540   6.127  12.878   6.049
36548SOL    HW111541   6.130  12.784   6.032
36548SOL    HW211542   6.107  12.886   6.142
36549SOL     OW11543   8.608   3.640   5.935
36549SOL    HW111544   8.620   3.735   5.945
36549SOL    HW211545   8.625   3.604   6.023
36550SOL     OW11546   0.587   6.862  12.176
36550SOL    HW111547   0.593   6.860  12.271
36550SOL    HW211548   0.550   6.948  12.157
36551SOL     OW11549   8.885   3.727  10.445
36551SOL    HW111550   8.895   3.741  10.539
36551SOL    HW211551   8.809   3.668  10.438
36552SOL     OW11552   7.599   5.816   7.009
36552SOL    HW111553   7.638   5.736   6.976
36552SOL    HW211554   7.620   5.816   7.103
36553SOL     OW11555   7.015   9.588  10.433
36553SOL    HW111556   7.069   9.648  10.382
36553SOL    HW211557   7.076   9.545  10.493
36554SOL     OW11558   9.719   3.456   0.342
36554SOL    HW111559   9.623   3.453   0.348
36554SOL    HW211560   9.749   3.435   0.430
36555SOL     OW11561   6.803   7.431  10.324
36555SOL    HW111562   6.727   7.458  10.272
36555SOL    HW211563   6.775   7.350  10.367
36556SOL     OW11564   4.769   7.491   9.042
36556SOL    HW111565   4.766   7.518   9.134
36556SOL    HW211566   4.697   7.428   9.033
36557SOL     OW11567  12.628   8.911   5.433
36557SOL    HW111568  12.609   8.975   5.364
36557SOL    HW211569  12.717   8.931   5.461
36558SOL     OW11570   9.064   4.852   5.759
36558SOL    HW111571   8.983   4.821   5.800
36558SOL    HW211572   9.074   4.942   5.789
36559SOL     OW11573  13.820   4.669   4.728
36559SOL    HW111574  13.824   4.712   4.814
36559SOL    HW211575  13.873   4.590   4.739
36560SOL     OW11576   7.480   9.253   7.773
36560SOL    HW111577   7.552   9.208   7.817
36560SOL    HW211578   7.478   9.340   7.813
36561SOL     OW11579  11.219  14.796  11.262
36561SOL    HW111580  11.288  14.802  11.329
36561SOL    HW211581  11.139  14.776  11.311
36562SOL     OW11582   8.351  12.476   8.709
36562SOL    HW111583   8.330  12.485   8.616
36562SOL    HW211584   8.377  12.564   8.736
36563SOL     OW11585  14.750   9.301   2.024
36563SOL    HW111586  14.792   9.375   2.069
36563SOL    HW211587  14.820   9.262   1.972
36564SOL     OW11588  12.274   6.575   8.579
36564SOL    HW111589  12.306   6.503   8.634
36564SOL    HW211590  12.204   6.536   8.526
36565SOL     OW11591   7.881   4.592   1.078
36565SOL    HW111592   7.972   4.588   1.107
36565SOL    HW211593   7.867   4.684   1.055
36566SOL     OW11594  13.488   1.018   0.552
36566SOL    HW111595  13.568   1.029   0.603
36566SOL    HW211596  13.512   0.959   0.481
36567SOL     OW11597  11.529   3.809  10.626
36567SOL    HW111598  11.603   3.812  10.565
36567SOL    HW211599  11.451   3.813  10.570
36568SOL     OW11600   6.548   4.425  12.663
36568SOL    HW111601   6.503   4.346  12.634
36568SOL    HW211602   6.500   4.452  12.742
36569SOL     OW11603   4.097  14.852  11.068
36569SOL    HW111604   4.138  14.766  11.075
36569SOL    HW211605   4.003  14.835  11.066
36570SOL     OW11606   4.260   0.645   7.750
36570SOL    HW111607   4.260   0.552   7.724
36570SOL    HW211608   4.292   0.691   7.672
36571SOL     OW11609   0.471  10.335  12.430
36571SOL    HW111610   0.431  10.409  12.476
36571SOL    HW211611   0.444  10.259  12.481
36572SOL     OW11612   2.176   4.045  12.770
36572SOL    HW111613   2.210   3.993  12.843
36572SOL    HW211614   2.254   4.069  12.719
36573SOL     OW11615   8.414   1.976   7.741
36573SOL    HW111616   8.348   1.924   7.695
36573SOL    HW211617   8.451   2.034   7.674
36574SOL     OW11618   4.820   8.660   2.008
36574SOL    HW111619   4.784   8.607   1.937
36574SOL    HW211620   4.888   8.605   2.047
36575SOL     OW11621   7.110   6.247  12.491
36575SOL    HW111622   7.166   6.171  12.474
36575SOL    HW211623   7.119   6.302  12.414
36576SOL     OW11624  10.368   8.844   6.480
36576SOL    HW111625  10.343   8.850   6.572
36576SOL    HW211626  10.314   8.773   6.445
36577SOL     OW11627  14.563   7.088  10.620
36577SOL    HW111628  14.603   7.008  10.584
36577SOL    HW211629  14.607   7.159  10.574
36578SOL     OW11630   0.197   7.054  12.424
36578SOL    HW111631   0.200   6.994  12.499
36578SOL    HW211632   0.183   7.140  12.463
36579SOL     OW11633   7.732   5.886   6.797
36579SOL    HW111634   7.691   5.868   6.881
36579SOL    HW211635   7.733   5.982   6.791
36580SOL     OW11636   2.497   6.924   4.706
36580SOL    HW111637   2.549   6.857   4.751
36580SOL    HW211638   2.528   7.007   4.744
36581SOL     OW11639  11.809   7.636  11.687
36581SOL    HW111640  11.759   7.704  11.732
36581SOL    HW211641  11.804   7.659  11.594
36582SOL     OW11642  11.017   6.036  11.912
36582SOL    HW111643  11.010   6.073  11.824
36582SOL    HW211644  11.003   5.942  11.899
36583SOL     OW11645   0.133   3.255   2.464
36583SOL    HW111646   0.209   3.305   2.436
36583SOL    HW211647   0.154   3.164   2.443
36584SOL     OW11648   9.534   4.751   2.441
36584SOL    HW111649   9.483   4.706   2.508
36584SOL    HW211650   9.591   4.810   2.489
36585SOL     OW11651   2.000   8.511   7.577
36585SOL    HW111652   2.074   8.471   7.532
36585SOL    HW211653   1.945   8.547   7.507
36586SOL     OW11654   6.998   3.372   1.176
36586SOL    HW111655   7.038   3.451   1.140
36586SOL    HW211656   6.907   3.397   1.192
36587SOL     OW11657   5.058  14.092   3.285
36587SOL    HW111658   5.080  14.002   3.264
36587SOL    HW211659   5.134  14.143   3.256
36588SOL     OW11660  12.061  12.615   8.227
36588SOL    HW111661  12.112  12.622   8.307
36588SOL    HW211662  11.997  12.686   8.232
36589SOL     OW11663  12.384  12.333   2.695
36589SOL    HW111664  12.324  12.309   2.624
36589SOL    HW211665  12.342  12.407   2.738
36590SOL     OW11666   4.703  10.017   4.826
36590SOL    HW111667   4.707   9.923   4.840
36590SOL    HW211668   4.771  10.053   4.884
36591SOL     OW11669  12.948   4.200   9.426
36591SOL    HW111670  12.935   4.232   9.336
36591SOL    HW211671  12.962   4.106   9.416
36592SOL     OW11672   9.860   5.477   2.426
36592SOL    HW111673   9.912   5.557   2.425
36592SOL    HW211674   9.776   5.502   2.387
36593SOL     OW11675   1.296   1.559  11.993
36593SOL    HW111676   1.310   1.654  11.997
36593SOL    HW211677   1.299   1.531  12.085
36594SOL     OW11678   0.188   7.310   6.519
36594SOL    HW111679   0.092   7.305   6.522
36594SOL    HW211680   0.211   7.280   6.431
36595SOL     OW11681   4.222   1.681   4.753
36595SOL    HW111682   4.223   1.606   4.694
36595SOL    HW211683   4.163   1.743   4.710
36596SOL     OW11684   1.614   6.483   4.684
36596SOL    HW111685   1.561   6.550   4.727
36596SOL    HW211686   1.578   6.400   4.717
36597SOL     OW11687  10.097   2.405  11.026
36597SOL    HW111688  10.163   2.426  10.961
36597SOL    HW211689  10.027   2.363  10.977
36598SOL     OW11690   5.497   8.498   9.844
36598SOL    HW111691   5.413   8.541   9.827
36598SOL    HW211692   5.561   8.554   9.801
36599SOL     OW11693   2.600  14.034  11.288
36599SOL    HW111694   2.582  13.996  11.373
36599SOL    HW211695   2.523  14.014  11.235
36600SOL     OW11696  14.567   3.752   4.109
36600SOL    HW111697  14.480   3.791   4.116
36600SOL    HW211698  14.620   3.818   4.064
36601SOL     OW11699   3.531   2.457  12.996
36601SOL    HW111700   3.552   2.366  13.015
36601SOL    HW211701   3.611   2.505  13.018
36602SOL     OW11702   9.636  11.263   4.294
36602SOL    HW111703   9.721  11.222   4.276
36602SOL    HW211704   9.572  11.194   4.274
36603SOL     OW11705  12.337  12.668   9.940
36603SOL    HW111706  12.295  12.752   9.922
36603SOL    HW211707  12.286  12.604   9.891
36604SOL     OW11708   9.282   1.423  12.092
36604SOL    HW111709   9.293   1.482  12.167
36604SOL    HW211710   9.246   1.343  12.130
36605SOL     OW11711  10.304   9.582   2.897
36605SOL    HW111712  10.339   9.668   2.875
36605SOL    HW211713  10.381   9.527   2.912
36606SOL     OW11714   8.260   4.632   1.775
36606SOL    HW111715   8.231   4.683   1.851
36606SOL    HW211716   8.228   4.682   1.699
36607SOL     OW11717  12.443   3.321   2.004
36607SOL    HW111718  12.402   3.237   2.026
36607SOL    HW211719  12.535   3.309   2.028
36608SOL     OW11720  14.673  12.595  14.152
36608SOL    HW111721  14.760  12.566  14.125
36608SOL    HW211722  14.644  12.529  14.214
36609SOL     OW11723   9.954   0.694   7.247
36609SOL    HW111724  10.038   0.649   7.231
36609SOL    HW211725   9.972   0.786   7.225
36610SOL     OW11726  12.003  12.437   8.642
36610SOL    HW111727  11.988  12.420   8.735
36610SOL    HW211728  12.043  12.524   8.640
36611SOL     OW11729  14.668  12.010   9.947
36611SOL    HW111730  14.610  11.944   9.909
36611SOL    HW211731  14.697  12.062   9.872
36612SOL     OW11732   8.909  13.917   9.396
36612SOL    HW111733   8.824  13.921   9.439
36612SOL    HW211734   8.951  13.838   9.430
36613SOL     OW11735   1.232   7.819  14.879
36613SOL    HW111736   1.228   7.776  14.793
36613SOL    HW211737   1.168   7.772   0.052
36614SOL     OW11738   9.154   1.938   6.676
36614SOL    HW111739   9.068   1.901   6.695
36614SOL    HW211740   9.212   1.862   6.670
36615SOL     OW11741  11.350   7.027   4.421
36615SOL    HW111742  11.262   7.063   4.414
36615SOL    HW211743  11.351   6.951   4.362
36616SOL     OW11744   7.824   1.026   6.837
36616SOL    HW111745   7.758   0.961   6.815
36616SOL    HW211746   7.862   1.052   6.753
36617SOL     OW11747   3.646  13.415  14.679
36617SOL    HW111748   3.687  13.483  14.733
36617SOL    HW211749   3.603  13.357  14.743
36618SOL     OW11750   5.857   7.666   9.310
36618SOL    HW111751   5.860   7.753   9.349
36618SOL    HW211752   5.852   7.606   9.385
36619SOL     OW11753   5.109   6.331   7.999
36619SOL    HW111754   5.096   6.349   7.906
36619SOL    HW211755   5.026   6.356   8.040
36620SOL     OW11756  14.027  11.855   9.458
36620SOL    HW111757  14.040  11.804   9.378
36620SOL    HW211758  13.960  11.807   9.507
36621SOL     OW11759   4.742   8.877   8.463
36621SOL    HW111760   4.671   8.887   8.399
36621SOL    HW211761   4.811   8.830   8.416
36622SOL     OW11762   9.082   6.024   8.755
36622SOL    HW111763   8.993   6.022   8.790
36622SOL    HW211764   9.126   5.952   8.799
36623SOL     OW11765   0.745  11.842   0.270
36623SOL    HW111766   0.802  11.764   0.267
36623SOL    HW211767   0.657  11.808   0.254
36624SOL     OW11768   1.094  14.100  12.901
36624SOL    HW111769   1.077  14.185  12.942
36624SOL    HW211770   1.163  14.061  12.955
36625SOL     OW11771   5.969  13.647  14.067
36625SOL    HW111772   5.947  13.733  14.102
36625SOL    HW211773   5.917  13.585  14.119
36626SOL     OW11774   2.120   4.208   4.131
36626SOL    HW111775   2.139   4.302   4.132
36626SOL    HW211776   2.054   4.197   4.199
36627SOL     OW11777   3.805   8.786   1.878
36627SOL    HW111778   3.844   8.709   1.920
36627SOL    HW211779   3.832   8.860   1.933
36628SOL     OW11780   9.367   9.777   6.648
36628SOL    HW111781   9.305   9.754   6.717
36628SOL    HW211782   9.398   9.692   6.614
36629SOL     OW11783  10.938   8.452   3.776
36629SOL    HW111784  10.961   8.371   3.730
36629SOL    HW211785  10.912   8.512   3.707
36630SOL     OW11786  12.185   5.004   5.096
36630SOL    HW111787  12.164   5.058   5.020
36630SOL    HW211788  12.281   5.004   5.099
36631SOL     OW11789   4.602   3.594   4.690
36631SOL    HW111790   4.561   3.679   4.671
36631SOL    HW211791   4.677   3.590   4.631
36632SOL     OW11792   6.465   9.737   6.349
36632SOL    HW111793   6.558   9.718   6.337
36632SOL    HW211794   6.421   9.653   6.338
36633SOL     OW11795   5.442   8.590   3.716
36633SOL    HW111796   5.347   8.583   3.727
36633SOL    HW211797   5.456   8.676   3.676
36634SOL     OW11798  11.570   7.445   9.981
36634SOL    HW111799  11.658   7.411  10.002
36634SOL    HW211800  11.522   7.439  10.063
36635SOL     OW11801   9.264   3.096   5.417
36635SOL    HW111802   9.330   3.073   5.482
36635SOL    HW211803   9.263   3.021   5.357
36636SOL     OW11804  12.115   3.207   3.184
36636SOL    HW111805  12.173   3.132   3.173
36636SOL    HW211806  12.123   3.230   3.276
36637SOL     OW11807   7.852   0.819  12.879
36637SOL    HW111808   7.809   0.733  12.878
36637SOL    HW211809   7.945   0.799  12.867
36638SOL     OW11810   4.239   8.900   1.621
36638SOL    HW111811   4.216   8.992   1.626
36638SOL    HW211812   4.239   8.869   1.712
36639SOL     OW11813  13.824   5.387  12.293
36639SOL    HW111814  13.848   5.308  12.340
36639SOL    HW211815  13.880   5.455  12.330
36640SOL     OW11816   3.587   6.395   1.444
36640SOL    HW111817   3.613   6.456   1.375
36640SOL    HW211818   3.503   6.360   1.415
36641SOL     OW11819   2.407  11.933  14.548
36641SOL    HW111820   2.346  11.952  14.619
36641SOL    HW211821   2.425  11.840  14.556
36642SOL     OW11822   0.806   3.838  13.411
36642SOL    HW111823   0.899   3.833  13.434
36642SOL    HW211824   0.783   3.930  13.426
36643SOL     OW11825  12.812  14.493  12.946
36643SOL    HW111826  12.762  14.443  13.010
36643SOL    HW211827  12.755  14.568  12.925
36644SOL     OW11828   2.097   8.202  13.356
36644SOL    HW111829   2.081   8.117  13.398
36644SOL    HW211830   2.012   8.227  13.321
36645SOL     OW11831   3.341  14.300  14.084
36645SOL    HW111832   3.327  14.255  14.167
36645SOL    HW211833   3.435  14.290  14.066
36646SOL     OW11834  13.715  13.439   0.272
36646SOL    HW111835  13.683  13.387   0.347
36646SOL    HW211836  13.809  13.448   0.287
36647SOL     OW11837   3.802  12.172  12.716
36647SOL    HW111838   3.766  12.105  12.658
36647SOL    HW211839   3.845  12.122  12.786
36648SOL     OW11840  12.445   4.564  13.705
36648SOL    HW111841  12.392   4.540  13.629
36648SOL    HW211842  12.536   4.552  13.676
36649SOL     OW11843   3.392   4.366  13.168
36649SOL    HW111844   3.420   4.306  13.099
36649SOL    HW211845   3.317   4.413  13.132
36650SOL     OW11846   4.721   7.402   4.410
36650SOL    HW111847   4.727   7.315   4.370
36650SOL    HW211848   4.777   7.396   4.487
36651SOL     OW11849  14.006   7.050  11.894
36651SOL    HW111850  14.017   7.073  11.802
36651SOL    HW211851  14.081   6.995  11.915
36652SOL     OW11852   4.758   9.302   9.715
36652SOL    HW111853   4.840   9.291   9.666
36652SOL    HW211854   4.770   9.249   9.794
36653SOL     OW11855   5.609   0.053   9.352
36653SOL    HW111856   5.524   0.013   9.335
36653SOL    HW211857   5.669  14.859   9.360
36654SOL     OW11858  12.193  11.780   6.798
36654SOL    HW111859  12.266  11.841   6.800
36654SOL    HW211860  12.140  11.808   6.723
36655SOL     OW11861  13.732   7.488  14.802
36655SOL    HW111862  13.637   7.487  14.810
36655SOL    HW211863  13.750   7.560  14.742
36656SOL     OW11864   9.593   1.135   3.663
36656SOL    HW111865   9.577   1.076   3.589
36656SOL    HW211866   9.627   1.215   3.623
36657SOL     OW11867  12.151   0.081   9.346
36657SOL    HW111868  12.116   0.129   9.271
36657SOL    HW211869  12.221   0.137   9.380
36658SOL     OW11870  13.135   3.298   9.767
36658SOL    HW111871  13.046   3.306   9.733
36658SOL    HW211872  13.134   3.348   9.848
36659SOL     OW11873  14.255  11.440   4.716
36659SOL    HW111874  14.332  11.383   4.713
36659SOL    HW211875  14.184  11.386   4.682
36660SOL     OW11876   2.717   2.823   8.001
36660SOL    HW111877   2.717   2.728   7.986
36660SOL    HW211878   2.696   2.861   7.916
36661SOL     OW11879   2.208   8.412   9.379
36661SOL    HW111880   2.252   8.477   9.433
36661SOL    HW211881   2.160   8.357   9.441
36662SOL     OW11882   5.398   7.099   0.864
36662SOL    HW111883   5.325   7.161   0.870
36662SOL    HW211884   5.381   7.036   0.934
36663SOL     OW11885   6.072  12.011   1.392
36663SOL    HW111886   6.149  12.000   1.448
36663SOL    HW211887   6.105  12.053   1.312
36664SOL     OW11888   4.187  10.898   9.716
36664SOL    HW111889   4.226  10.928   9.634
36664SOL    HW211890   4.197  10.803   9.714
36665SOL     OW11891   9.075   8.406   2.844
36665SOL    HW111892   9.092   8.401   2.750
36665SOL    HW211893   8.982   8.427   2.851
36666SOL     OW11894   1.422   0.969   1.101
36666SOL    HW111895   1.344   0.926   1.066
36666SOL    HW211896   1.449   0.913   1.174
36667SOL     OW11897  13.386   1.138  14.864
36667SOL    HW111898  13.320   1.115   0.049
36667SOL    HW211899  13.340   1.136  14.780
36668SOL     OW11900   2.351  13.466   4.861
36668SOL    HW111901   2.379  13.450   4.770
36668SOL    HW211902   2.419  13.425   4.914
36669SOL     OW11903  13.242   2.434   2.311
36669SOL    HW111904  13.241   2.489   2.233
36669SOL    HW211905  13.281   2.489   2.379
36670SOL     OW11906   8.012  14.875  12.725
36670SOL    HW111907   8.104   0.003  12.750
36670SOL    HW211908   8.013  14.856  12.632
36671SOL     OW11909   8.660   9.852   0.675
36671SOL    HW111910   8.742   9.887   0.641
36671SOL    HW211911   8.634   9.785   0.612
36672SOL     OW11912   7.100  10.022   1.732
36672SOL    HW111913   7.049  10.102   1.720
36672SOL    HW211914   7.153  10.016   1.653
36673SOL     OW11915  14.603   6.004  14.185
36673SOL    HW111916  14.562   5.921  14.209
36673SOL    HW211917  14.692   5.980  14.159
36674SOL     OW11918  13.867   4.246  13.290
36674SOL    HW111919  13.931   4.261  13.359
36674SOL    HW211920  13.832   4.158  13.307
36675SOL     OW11921   7.775   2.386   7.708
36675SOL    HW111922   7.849   2.337   7.671
36675SOL    HW211923   7.811   2.473   7.727
36676SOL     OW11924   5.428   4.877   1.502
36676SOL    HW111925   5.501   4.938   1.497
36676SOL    HW211926   5.368   4.905   1.433
36677SOL     OW11927   0.295   7.340   7.081
36677SOL    HW111928   0.330   7.394   7.010
36677SOL    HW211929   0.200   7.337   7.063
36678SOL     OW11930  14.844   5.474   4.475
36678SOL    HW111931  14.852   5.382   4.450
36678SOL    HW211932   0.051   5.511   4.455
36679SOL     OW11933   0.786  12.962   9.309
36679SOL    HW111934   0.862  12.973   9.250
36679SOL    HW211935   0.818  12.905   9.379
36680SOL     OW11936   8.865   3.306   9.969
36680SOL    HW111937   8.866   3.217  10.004
36680SOL    HW211938   8.948   3.345   9.998
36681SOL     OW11939   6.431   8.016   1.997
36681SOL    HW111940   6.413   8.024   2.091
36681SOL    HW211941   6.463   8.102   1.971
36682SOL     OW11942  11.089   3.882   6.841
36682SOL    HW111943  11.050   3.854   6.758
36682SOL    HW211944  11.047   3.827   6.907
36683SOL     OW11945   9.224   7.878  13.422
36683SOL    HW111946   9.193   7.886  13.332
36683SOL    HW211947   9.202   7.788  13.448
36684SOL     OW11948   5.575  14.501   5.678
36684SOL    HW111949   5.592  14.522   5.770
36684SOL    HW211950   5.557  14.585   5.637
36685SOL     OW11951   9.704   9.459   6.584
36685SOL    HW111952   9.786   9.447   6.631
36685SOL    HW211953   9.656   9.377   6.598
36686SOL     OW11954   2.595   5.565   8.513
36686SOL    HW111955   2.566   5.570   8.423
36686SOL    HW211956   2.656   5.491   8.514
36687SOL     OW11957   8.276  10.425   9.827
36687SOL    HW111958   8.260  10.331   9.843
36687SOL    HW211959   8.191  10.459   9.801
36688SOL     OW11960  12.541   0.359  14.736
36688SOL    HW111961  12.525   0.331  14.827
36688SOL    HW211962  12.485   0.302  14.684
36689SOL     OW11963   2.848   0.751  12.456
36689SOL    HW111964   2.763   0.721  12.488
36689SOL    HW211965   2.857   0.840  12.491
36690SOL     OW11966  14.204   4.118   1.392
36690SOL    HW111967  14.232   4.128   1.301
36690SOL    HW211968  14.204   4.023   1.407
36691SOL     OW11969   9.618  12.813  13.483
36691SOL    HW111970   9.662  12.812  13.399
36691SOL    HW211971   9.603  12.905  13.502
36692SOL     OW11972  12.995   8.564   5.668
36692SOL    HW111973  12.988   8.555   5.573
36692SOL    HW211974  13.081   8.604   5.682
36693SOL     OW11975  13.047   8.487  13.572
36693SOL    HW111976  13.074   8.496  13.481
36693SOL    HW211977  13.029   8.576  13.601
36694SOL     OW11978   5.171   8.462   1.949
36694SOL    HW111979   5.195   8.528   1.883
36694SOL    HW211980   5.252   8.416   1.967
36695SOL     OW11981   7.286   3.686   9.665
36695SOL    HW111982   7.327   3.600   9.669
36695SOL    HW211983   7.202   3.671   9.621
36696SOL     OW11984   2.065   9.581   7.678
36696SOL    HW111985   2.012   9.505   7.654
36696SOL    HW211986   2.048   9.645   7.609
36697SOL     OW11987   6.953  10.020  12.098
36697SOL    HW111988   7.023  10.085  12.094
36697SOL    HW211989   6.995   9.938  12.073
36698SOL     OW11990  11.266   8.997   6.603
36698SOL    HW111991  11.341   9.026   6.551
36698SOL    HW211992  11.299   8.922   6.652
36699SOL     OW11993  11.023   3.976  11.904
36699SOL    HW111994  10.953   3.912  11.890
36699SOL    HW211995  10.981   4.047  11.951
36700SOL     OW11996  11.625   9.471   5.123
36700SOL    HW111997  11.617   9.455   5.217
36700SOL    HW211998  11.648   9.564   5.117
36701SOL     OW11999   1.311   5.006   0.782
36701SOL    HW112000   1.248   4.954   0.832
36701SOL    HW212001   1.389   5.008   0.837
36702SOL     OW12002   8.572   3.904   2.596
36702SOL    HW112003   8.541   3.994   2.609
36702SOL    HW212004   8.507   3.850   2.641
36703SOL     OW12005   0.845  13.658  13.171
36703SOL    HW112006   0.872  13.596  13.238
36703SOL    HW212007   0.754  13.680  13.193
36704SOL     OW12008   3.096   9.941   1.362
36704SOL    HW112009   3.145   9.860   1.374
36704SOL    HW212010   3.011   9.913   1.327
36705SOL     OW12011  13.277   2.033  10.485
36705SOL    HW112012  13.293   2.064  10.396
36705SOL    HW212013  13.182   2.040  10.496
36706SOL     OW12014   7.622  11.954   7.966
36706SOL    HW112015   7.598  11.997   8.048
36706SOL    HW212016   7.717  11.968   7.959
36707SOL     OW12017   5.667   3.567   4.826
36707SOL    HW112018   5.623   3.482   4.830
36707SOL    HW212019   5.643   3.609   4.908
36708SOL     OW12020   4.444   7.821   4.260
36708SOL    HW112021   4.376   7.835   4.326
36708SOL    HW212022   4.443   7.727   4.245
36709SOL     OW12023   5.263  10.557   1.585
36709SOL    HW112024   5.326  10.493   1.618
36709SOL    HW212025   5.237  10.524   1.499
36710SOL     OW12026  13.587  14.718  10.636
36710SOL    HW112027  13.550  14.633  10.656
36710SOL    HW212028  13.533  14.780  10.685
36711SOL     OW12029   6.230   5.931  12.509
36711SOL    HW112030   6.216   5.842  12.540
36711SOL    HW212031   6.169   5.940  12.435
36712SOL     OW12032   4.041   3.216  13.011
36712SOL    HW112033   4.031   3.130  12.969
36712SOL    HW212034   3.952   3.250  13.017
36713SOL     OW12035   6.633   8.795   7.451
36713SOL    HW112036   6.553   8.847   7.445
36713SOL    HW212037   6.649   8.786   7.545
36714SOL     OW12038  11.762   8.852   5.677
36714SOL    HW112039  11.846   8.828   5.639
36714SOL    HW212040  11.784   8.903   5.755
36715SOL     OW12041  14.625   8.497  14.541
36715SOL    HW112042  14.679   8.474  14.465
36715SOL    HW212043  14.666   8.577  14.576
36716SOL     OW12044   8.354   5.795  12.322
36716SOL    HW112045   8.323   5.838  12.402
36716SOL    HW212046   8.450   5.797  12.330
36717SOL     OW12047   6.474   7.370   0.501
36717SOL    HW112048   6.434   7.335   0.421
36717SOL    HW212049   6.431   7.323   0.572
36718SOL     OW12050   1.593   0.935   4.731
36718SOL    HW112051   1.654   0.947   4.658
36718SOL    HW212052   1.524   0.878   4.696
36719SOL     OW12053   4.687   0.933   2.309
36719SOL    HW112054   4.600   0.898   2.287
36719SOL    HW212055   4.748   0.872   2.268
36720SOL     OW12056   8.473   1.620   0.969
36720SOL    HW112057   8.471   1.701   0.917
36720SOL    HW212058   8.484   1.650   1.059
36721SOL     OW12059  14.517   1.176   0.531
36721SOL    HW112060  14.539   1.132   0.448
36721SOL    HW212061  14.423   1.164   0.540
36722SOL     OW12062  12.545   5.349   4.234
36722SOL    HW112063  12.552   5.431   4.185
36722SOL    HW212064  12.487   5.294   4.182
36723SOL     OW12065   9.254   0.493  10.052
36723SOL    HW112066   9.291   0.411  10.083
36723SOL    HW212067   9.291   0.505   9.964
36724SOL     OW12068   4.342   1.864   1.664
36724SOL    HW112069   4.351   1.935   1.727
36724SOL    HW212070   4.289   1.798   1.709
36725SOL     OW12071  11.166   1.853   7.878
36725SOL    HW112072  11.096   1.917   7.891
36725SOL    HW212073  11.184   1.818   7.965
36726SOL     OW12074   3.134   8.752   9.465
36726SOL    HW112075   3.152   8.834   9.419
36726SOL    HW212076   3.137   8.685   9.397
36727SOL     OW12077  12.053   8.701  14.462
36727SOL    HW112078  12.059   8.606  14.468
36727SOL    HW212079  11.965   8.721  14.494
36728SOL     OW12080  10.089   9.865   2.399
36728SOL    HW112081  10.077   9.770   2.398
36728SOL    HW212082  10.176   9.878   2.361
36729SOL     OW12083   3.035   9.822  13.063
36729SOL    HW112084   3.062   9.906  13.100
36729SOL    HW212085   3.037   9.762  13.137
36730SOL     OW12086   1.235   5.814   0.393
36730SOL    HW112087   1.244   5.720   0.407
36730SOL    HW212088   1.193   5.846   0.472
36731SOL     OW12089   9.068   4.570  11.831
36731SOL    HW112090   9.157   4.539  11.813
36731SOL    HW212091   9.051   4.634  11.761
36732SOL     OW12092   9.971   4.731  11.778
36732SOL    HW112093  10.002   4.731  11.869
36732SOL    HW212094   9.905   4.662  11.776
36733SOL     OW12095   2.991   8.891   4.565
36733SOL    HW112096   2.999   8.956   4.635
36733SOL    HW212097   3.074   8.898   4.518
36734SOL     OW12098   1.382  13.726   1.906
36734SOL    HW112099   1.297  13.760   1.936
36734SOL    HW212100   1.438  13.732   1.983
36735SOL     OW12101  13.970   4.461   8.653
36735SOL    HW112102  13.941   4.431   8.567
36735SOL    HW212103  14.065   4.471   8.645
36736SOL     OW12104   8.815  13.307   1.211
36736SOL    HW112105   8.841  13.377   1.272
36736SOL    HW212106   8.852  13.335   1.127
36737SOL     OW12107   2.345   4.423   1.449
36737SOL    HW112108   2.344   4.513   1.418
36737SOL    HW212109   2.436   4.396   1.442
36738SOL     OW12110   3.557  13.415   0.723
36738SOL    HW112111   3.463  13.400   0.723
36738SOL    HW212112   3.579  13.431   0.631
36739SOL     OW12113   5.891   8.925   4.339
36739SOL    HW112114   5.807   8.970   4.330
36739SOL    HW212115   5.911   8.892   4.252
36740SOL     OW12116   8.943   8.449   6.706
36740SOL    HW112117   8.924   8.369   6.755
36740SOL    HW212118   9.015   8.490   6.755
36741SOL     OW12119   2.631   9.509   4.118
36741SOL    HW112120   2.679   9.573   4.065
36741SOL    HW212121   2.590   9.561   4.187
36742SOL     OW12122   6.871   0.421  12.830
36742SOL    HW112123   6.829   0.358  12.889
36742SOL    HW212124   6.942   0.459  12.882
36743SOL     OW12125   0.688   5.208   4.559
36743SOL    HW112126   0.700   5.197   4.464
36743SOL    HW212127   0.775   5.233   4.591
36744SOL     OW12128   7.220   6.940   9.672
36744SOL    HW112129   7.301   6.985   9.699
36744SOL    HW212130   7.226   6.935   9.577
36745SOL     OW12131   3.650  10.073   9.369
36745SOL    HW112132   3.742  10.076   9.342
36745SOL    HW212133   3.612  10.001   9.317
36746SOL     OW12134   0.699  14.043   9.470
36746SOL    HW112135   0.679  13.979   9.538
36746SOL    HW212136   0.793  14.034   9.455
36747SOL     OW12137   2.321   9.569   9.652
36747SOL    HW112138   2.288   9.480   9.648
36747SOL    HW212139   2.362   9.576   9.739
36748SOL     OW12140   5.804  11.057   2.741
36748SOL    HW112141   5.839  11.070   2.829
36748SOL    HW212142   5.818  10.964   2.723
36749SOL     OW12143   4.149  11.306   4.483
36749SOL    HW112144   4.175  11.367   4.414
36749SOL    HW212145   4.175  11.349   4.565
36750SOL     OW12146   3.184  14.007   0.719
36750SOL    HW112147   3.092  14.030   0.735
36750SOL    HW212148   3.182  13.915   0.696
36751SOL     OW12149   3.046   4.658   8.819
36751SOL    HW112150   3.141   4.650   8.830
36751SOL    HW212151   3.032   4.653   8.725
36752SOL     OW12152   9.286  11.551   8.731
36752SOL    HW112153   9.247  11.597   8.805
36752SOL    HW212154   9.320  11.621   8.675
36753SOL     OW12155  12.593   5.517   7.397
36753SOL    HW112156  12.644   5.507   7.316
36753SOL    HW212157  12.503   5.499   7.371
36754SOL     OW12158  10.750   0.097  11.830
36754SOL    HW112159  10.719   0.145  11.754
36754SOL    HW212160  10.824   0.045  11.797
36755SOL     OW12161  10.799   0.958   5.751
36755SOL    HW112162  10.791   0.876   5.801
36755SOL    HW212163  10.888   0.988   5.770
36756SOL     OW12164   0.359   7.377   8.451
36756SOL    HW112165   0.369   7.331   8.535
36756SOL    HW212166   0.285   7.334   8.409
36757SOL     OW12167  10.403   7.219   5.142
36757SOL    HW112168  10.335   7.152   5.138
36757SOL    HW212169  10.428   7.223   5.234
36758SOL     OW12170   8.955   9.297   4.585
36758SOL    HW112171   8.876   9.249   4.561
36758SOL    HW212172   8.974   9.352   4.508
36759SOL     OW12173  10.841   2.990  12.303
36759SOL    HW112174  10.912   2.929  12.281
36759SOL    HW212175  10.856   3.011  12.395
36760SOL     OW12176  13.617  13.115   9.720
36760SOL    HW112177  13.654  13.058   9.652
36760SOL    HW212178  13.523  13.113   9.705
36761SOL     OW12179  13.241   1.315   1.916
36761SOL    HW112180  13.327   1.279   1.894
36761SOL    HW212181  13.179   1.256   1.874
36762SOL     OW12182   6.407   0.397   5.009
36762SOL    HW112183   6.346   0.325   4.999
36762SOL    HW212184   6.352   0.475   5.015
36763SOL     OW12185   3.179   6.803   2.913
36763SOL    HW112186   3.182   6.890   2.954
36763SOL    HW212187   3.106   6.809   2.851
36764SOL     OW12188  11.002   7.842   3.461
36764SOL    HW112189  11.095   7.822   3.475
36764SOL    HW212190  11.002   7.913   3.397
36765SOL     OW12191   9.461   6.858   1.730
36765SOL    HW112192   9.386   6.821   1.775
36765SOL    HW212193   9.479   6.796   1.659
36766SOL     OW12194  10.140   5.057   6.355
36766SOL    HW112195  10.148   5.016   6.441
36766SOL    HW212196  10.198   5.007   6.298
36767SOL     OW12197   3.924   9.454   9.384
36767SOL    HW112198   4.011   9.492   9.370
36767SOL    HW212199   3.935   9.361   9.363
36768SOL     OW12200   9.748  12.787  13.227
36768SOL    HW112201   9.779  12.873  13.200
36768SOL    HW212202   9.815  12.726  13.196
36769SOL     OW12203  11.224   9.169   2.356
36769SOL    HW112204  11.299   9.226   2.370
36769SOL    HW212205  11.177   9.171   2.440
36770SOL     OW12206   3.889  10.724   4.509
36770SOL    HW112207   3.948  10.663   4.553
36770SOL    HW212208   3.834  10.759   4.579
36771SOL     OW12209   4.327   3.708  13.403
36771SOL    HW112210   4.248   3.761  13.407
36771SOL    HW212211   4.377   3.734  13.480
36772SOL     OW12212   5.952   6.088  13.037
36772SOL    HW112213   5.957   6.027  12.963
36772SOL    HW212214   5.863   6.078  13.070
36773SOL     OW12215  10.120   5.309   0.347
36773SOL    HW112216  10.207   5.317   0.386
36773SOL    HW212217  10.077   5.242   0.400
36774SOL     OW12218   7.542  10.509  13.391
36774SOL    HW112219   7.604  10.533  13.460
36774SOL    HW212220   7.474  10.458  13.435
36775SOL     OW12221   1.077  10.550   3.907
36775SOL    HW112222   1.001  10.521   3.857
36775SOL    HW212223   1.078  10.493   3.984
36776SOL     OW12224   9.395   1.528  13.827
36776SOL    HW112225   9.473   1.534  13.883
36776SOL    HW212226   9.376   1.434  13.824
36777SOL     OW12227  13.970  12.719   4.399
36777SOL    HW112228  13.916  12.796   4.383
36777SOL    HW212229  13.909  12.652   4.431
36778SOL     OW12230  10.889   1.320   3.285
36778SOL    HW112231  10.830   1.297   3.213
36778SOL    HW212232  10.841   1.387   3.334
36779SOL     OW12233  13.081  13.155   7.592
36779SOL    HW112234  13.122  13.220   7.650
36779SOL    HW212235  12.999  13.133   7.635
36780SOL     OW12236   4.214  14.336   3.103
36780SOL    HW112237   4.234  14.425   3.132
36780SOL    HW212238   4.223  14.282   3.182
36781SOL     OW12239   2.630   5.907  11.978
36781SOL    HW112240   2.591   5.973  11.921
36781SOL    HW212241   2.724   5.921  11.970
36782SOL     OW12242  13.388   4.548   0.210
36782SOL    HW112243  13.430   4.630   0.184
36782SOL    HW212244  13.334   4.572   0.285
36783SOL     OW12245   0.864   2.034   3.164
36783SOL    HW112246   0.870   1.939   3.176
36783SOL    HW212247   0.946   2.057   3.120
36784SOL     OW12248   8.377   0.097  12.226
36784SOL    HW112249   8.397   0.153  12.301
36784SOL    HW212250   8.332   0.022  12.264
36785SOL     OW12251   2.073   2.790   1.887
36785SOL    HW112252   2.047   2.815   1.798
36785SOL    HW212253   2.137   2.721   1.875
36786SOL     OW12254   9.716   0.602   7.355
36786SOL    HW112255   9.788   0.644   7.309
36786SOL    HW212256   9.747   0.513   7.373
36787SOL     OW12257  10.426   2.922  10.110
36787SOL    HW112258  10.482   2.869  10.167
36787SOL    HW212259  10.453   3.012  10.127
36788SOL     OW12260   0.076   4.923   1.566
36788SOL    HW112261   0.095   5.005   1.519
36788SOL    HW212262   0.048   4.951   1.653
36789SOL     OW12263   6.902   4.016   2.305
36789SOL    HW112264   6.887   4.062   2.387
36789SOL    HW212265   6.997   4.014   2.296
36790SOL     OW12266  13.423   3.807   3.129
36790SOL    HW112267  13.440   3.740   3.196
36790SOL    HW212268  13.377   3.759   3.060
36791SOL     OW12269   1.444  14.229   3.398
36791SOL    HW112270   1.458  14.164   3.329
36791SOL    HW212271   1.396  14.181   3.466
36792SOL     OW12272  11.001   8.968   6.119
36792SOL    HW112273  10.971   9.056   6.093
36792SOL    HW212274  11.096   8.976   6.123
36793SOL     OW12275  13.356   4.704   1.754
36793SOL    HW112276  13.286   4.661   1.706
36793SOL    HW212277  13.424   4.637   1.761
36794SOL     OW12278   3.609   4.465   5.351
36794SOL    HW112279   3.593   4.559   5.351
36794SOL    HW212280   3.586   4.437   5.262
36795SOL     OW12281  11.725  13.615   7.139
36795SOL    HW112282  11.741  13.570   7.222
36795SOL    HW212283  11.757  13.704   7.153
36796SOL     OW12284  11.657   6.419   3.759
36796SOL    HW112285  11.642   6.326   3.771
36796SOL    HW212286  11.603   6.443   3.683
36797SOL     OW12287   0.701   0.032  12.789
36797SOL    HW112288   0.681   0.103  12.728
36797SOL    HW212289   0.770  14.861  12.746
36798SOL     OW12290  10.755   2.577   1.193
36798SOL    HW112291  10.843   2.608   1.216
36798SOL    HW212292  10.770   2.512   1.124
36799SOL     OW12293   4.342   4.859   3.460
36799SOL    HW112294   4.346   4.864   3.556
36799SOL    HW212295   4.251   4.835   3.441
36800SOL     OW12296   4.717   7.568  12.346
36800SOL    HW112297   4.647   7.509  12.319
36800SOL    HW212298   4.784   7.558  12.278
36801SOL     OW12299  10.813   2.433   0.968
36801SOL    HW112300  10.786   2.357   1.020
36801SOL    HW212301  10.826   2.398   0.880
36802SOL     OW12302  11.687   9.995   1.408
36802SOL    HW112303  11.600   9.999   1.449
36802SOL    HW212304  11.748  10.006   1.481
36803SOL     OW12305   7.959   3.281   0.183
36803SOL    HW112306   7.954   3.209   0.120
36803SOL    HW212307   7.966   3.359   0.129
36804SOL     OW12308   2.841   1.128   0.914
36804SOL    HW112309   2.804   1.120   1.002
36804SOL    HW212310   2.822   1.044   0.873
36805SOL     OW12311   3.197  12.204   8.609
36805SOL    HW112312   3.117  12.157   8.582
36805SOL    HW212313   3.258  12.134   8.634
36806SOL     OW12314  10.673  14.840  10.842
36806SOL    HW112315  10.702  14.825  10.752
36806SOL    HW212316  10.598   0.020  10.833
36807SOL     OW12317   9.992   9.651   6.615
36807SOL    HW112318  10.010   9.569   6.662
36807SOL    HW212319   9.988   9.625   6.523
36808SOL     OW12320   7.349   2.026   2.252
36808SOL    HW112321   7.360   2.052   2.343
36808SOL    HW212322   7.423   2.066   2.206
36809SOL     OW12323   6.045   7.244   7.370
36809SOL    HW112324   6.125   7.289   7.399
36809SOL    HW212325   6.065   7.214   7.282
36810SOL     OW12326   9.227   0.637  13.921
36810SOL    HW112327   9.288   0.566  13.944
36810SOL    HW212328   9.148   0.592  13.891
36811SOL     OW12329   5.795  12.254   3.998
36811SOL    HW112330   5.876  12.203   3.995
36811SOL    HW212331   5.726  12.190   4.016
36812SOL     OW12332   5.794  14.441   4.588
36812SOL    HW112333   5.710  14.487   4.591
36812SOL    HW212334   5.792  14.382   4.663
36813SOL     OW12335   6.626  10.023  14.243
36813SOL    HW112336   6.690  10.043  14.311
36813SOL    HW212337   6.546  10.067  14.272
36814SOL     OW12338   1.557  10.227  14.434
36814SOL    HW112339   1.516  10.153  14.389
36814SOL    HW212340   1.517  10.305  14.395
36815SOL     OW12341   0.603   5.271  10.318
36815SOL    HW112342   0.650   5.253  10.400
36815SOL    HW212343   0.663   5.328  10.269
36816SOL     OW12344  13.705   3.922   6.084
36816SOL    HW112345  13.620   3.903   6.123
36816SOL    HW212346  13.714   4.017   6.091
36817SOL     OW12347  14.142   8.879  10.890
36817SOL    HW112348  14.080   8.945  10.856
36817SOL    HW212349  14.211   8.876  10.825
36818SOL     OW12350   9.657   9.617   5.716
36818SOL    HW112351   9.655   9.540   5.772
36818SOL    HW212352   9.738   9.608   5.665
36819SOL     OW12353  11.900  12.314   0.097
36819SOL    HW112354  11.864  12.359   0.174
36819SOL    HW212355  11.847  12.346   0.024
36820SOL     OW12356  12.648   6.105  13.056
36820SOL    HW112357  12.721   6.046  13.041
36820SOL    HW212358  12.680   6.191  13.029
36821SOL     OW12359  12.433  11.691  13.047
36821SOL    HW112360  12.363  11.735  13.000
36821SOL    HW212361  12.394  11.609  13.077
36822SOL     OW12362   3.121   9.290   8.520
36822SOL    HW112363   3.134   9.260   8.610
36822SOL    HW212364   3.082   9.377   8.529
36823SOL     OW12365   6.165  12.036   0.573
36823SOL    HW112366   6.196  12.122   0.604
36823SOL    HW212367   6.089  12.016   0.628
36824SOL     OW12368   7.547   4.849   0.151
36824SOL    HW112369   7.469   4.880   0.106
36824SOL    HW212370   7.556   4.907   0.226
36825SOL     OW12371   3.554  11.117   8.863
36825SOL    HW112372   3.574  11.210   8.875
36825SOL    HW212373   3.500  11.114   8.784
36826SOL     OW12374  14.420   5.459   2.507
36826SOL    HW112375  14.386   5.484   2.594
36826SOL    HW212376  14.515   5.456   2.519
36827SOL     OW12377   8.052  12.133  10.474
36827SOL    HW112378   8.011  12.194  10.412
36827SOL    HW212379   8.081  12.060  10.420
36828SOL     OW12380  14.120   2.527   3.910
36828SOL    HW112381  14.072   2.447   3.929
36828SOL    HW212382  14.198   2.498   3.862
36829SOL     OW12383   5.390   6.510   8.520
36829SOL    HW112384   5.319   6.478   8.464
36829SOL    HW212385   5.417   6.433   8.570
36830SOL     OW12386  12.700   0.403   9.755
36830SOL    HW112387  12.667   0.384   9.843
36830SOL    HW212388  12.794   0.415   9.767
36831SOL     OW12389   7.311   2.597   5.055
36831SOL    HW112390   7.326   2.687   5.025
36831SOL    HW212391   7.296   2.547   4.975
36832SOL     OW12392   8.582   8.969   1.647
36832SOL    HW112393   8.662   9.018   1.666
36832SOL    HW212394   8.598   8.931   1.561
36833SOL     OW12395  13.021   1.499   4.971
36833SOL    HW112396  13.039   1.574   5.028
36833SOL    HW212397  12.927   1.485   4.978
36834SOL     OW12398   7.017   5.095   0.013
36834SOL    HW112399   6.954   5.086  14.821
36834SOL    HW212400   6.986   5.170   0.063
36835SOL     OW12401  14.635   8.620  12.317
36835SOL    HW112402  14.619   8.530  12.289
36835SOL    HW212403  14.591   8.674  12.252
36836SOL     OW12404   3.274  11.683   3.579
36836SOL    HW112405   3.353  11.718   3.538
36836SOL    HW212406   3.224  11.761   3.604
36837SOL     OW12407  10.916  11.668   9.339
36837SOL    HW112408  10.876  11.739   9.289
36837SOL    HW212409  10.915  11.698   9.430
36838SOL     OW12410  10.710  13.894  13.075
36838SOL    HW112411  10.736  13.818  13.024
36838SOL    HW212412  10.614  13.891  13.075
36839SOL     OW12413   9.327  14.243  11.207
36839SOL    HW112414   9.258  14.266  11.145
36839SOL    HW212415   9.279  14.219  11.287
36840SOL     OW12416   5.253   5.383  13.988
36840SOL    HW112417   5.295   5.328  13.923
36840SOL    HW212418   5.178   5.332  14.019
36841SOL     OW12419   4.023   6.611   3.974
36841SOL    HW112420   3.975   6.693   3.963
36841SOL    HW212421   4.031   6.577   3.885
36842SOL     OW12422  13.508   9.465   9.917
36842SOL    HW112423  13.537   9.552   9.944
36842SOL    HW212424  13.575   9.405   9.952
36843SOL     OW12425  11.084   1.700   3.223
36843SOL    HW112426  11.136   1.736   3.151
36843SOL    HW212427  11.032   1.631   3.182
36844SOL     OW12428  11.731   2.578  14.053
36844SOL    HW112429  11.825   2.582  14.037
36844SOL    HW212430  11.718   2.498  14.104
36845SOL     OW12431   9.743  14.230   9.679
36845SOL    HW112432   9.697  14.172   9.618
36845SOL    HW212433   9.766  14.173   9.753
36846SOL     OW12434   6.222   5.429   1.757
36846SOL    HW112435   6.277   5.490   1.709
36846SOL    HW212436   6.252   5.436   1.848
36847SOL     OW12437   9.844   6.292   3.750
36847SOL    HW112438   9.893   6.313   3.830
36847SOL    HW212439   9.755   6.274   3.780
36848SOL     OW12440  12.453  11.429   5.196
36848SOL    HW112441  12.547  11.419   5.183
36848SOL    HW212442  12.416  11.421   5.108
36849SOL     OW12443  13.531   5.180  10.446
36849SOL    HW112444  13.516   5.096  10.403
36849SOL    HW212445  13.572   5.157  10.530
36850SOL     OW12446   4.026   2.470   4.320
36850SOL    HW112447   3.995   2.532   4.386
36850SOL    HW212448   3.962   2.400   4.322
36851SOL     OW12449   9.384  14.371   8.097
36851SOL    HW112450   9.414  14.444   8.043
36851SOL    HW212451   9.389  14.404   8.187
36852SOL     OW12452   7.203   8.675  11.874
36852SOL    HW112453   7.288   8.719  11.876
36852SOL    HW212454   7.162   8.699  11.957
36853SOL     OW12455   8.884  12.165  10.338
36853SOL    HW112456   8.873  12.116  10.419
36853SOL    HW212457   8.799  12.207  10.324
36854SOL     OW12458   3.921   0.662   5.862
36854SOL    HW112459   4.006   0.697   5.891
36854SOL    HW212460   3.863   0.674   5.937
36855SOL     OW12461   4.374   3.430   8.800
36855SOL    HW112462   4.299   3.378   8.829
36855SOL    HW212463   4.362   3.515   8.842
36856SOL     OW12464  14.529   3.920   6.787
36856SOL    HW112465  14.529   4.013   6.808
36856SOL    HW212466  14.447   3.907   6.739
36857SOL     OW12467   5.576   9.165  12.552
36857SOL    HW112468   5.630   9.086  12.554
36857SOL    HW212469   5.576   9.192  12.460
36858SOL     OW12470  12.828   9.627  14.478
36858SOL    HW112471  12.754   9.581  14.437
36858SOL    HW212472  12.903   9.569  14.463
36859SOL     OW12473   9.901   7.872  11.349
36859SOL    HW112474   9.833   7.865  11.282
36859SOL    HW212475   9.918   7.782  11.375
36860SOL     OW12476   6.868   6.339   2.483
36860SOL    HW112477   6.861   6.294   2.399
36860SOL    HW212478   6.819   6.284   2.544
36861SOL     OW12479   0.260  13.002  11.789
36861SOL    HW112480   0.232  13.005  11.697
36861SOL    HW212481   0.328  12.934  11.791
36862SOL     OW12482   7.841  14.624   2.688
36862SOL    HW112483   7.846  14.718   2.669
36862SOL    HW212484   7.844  14.619   2.784
36863SOL     OW12485   9.627  10.548  13.262
36863SOL    HW112486   9.637  10.625  13.206
36863SOL    HW212487   9.712  10.504  13.258
36864SOL     OW12488   4.182   2.135   0.774
36864SOL    HW112489   4.121   2.062   0.784
36864SOL    HW212490   4.268   2.097   0.792
36865SOL     OW12491   8.376   9.999   8.589
36865SOL    HW112492   8.465   9.971   8.609
36865SOL    HW212493   8.368   9.988   8.494
36866SOL     OW12494   6.571   5.108   6.439
36866SOL    HW112495   6.516   5.122   6.362
36866SOL    HW212496   6.639   5.175   6.434
36867SOL     OW12497   9.204   5.173   4.342
36867SOL    HW112498   9.226   5.264   4.323
36867SOL    HW212499   9.108   5.171   4.344
36868SOL     OW12500   3.101   7.074   4.061
36868SOL    HW112501   3.072   6.988   4.091
36868SOL    HW212502   3.137   7.057   3.973
36869SOL     OW12503   1.290   9.211  12.456
36869SOL    HW112504   1.329   9.285  12.502
36869SOL    HW212505   1.207   9.196  12.501
36870SOL     OW12506   4.231  14.179  13.650
36870SOL    HW112507   4.258  14.157  13.561
36870SOL    HW212508   4.140  14.209  13.641
36871SOL     OW12509   2.912   4.720   5.148
36871SOL    HW112510   2.925   4.626   5.139
36871SOL    HW212511   2.998   4.758   5.131
36872SOL     OW12512   7.932   2.679  13.225
36872SOL    HW112513   7.880   2.647  13.298
36872SOL    HW212514   7.872   2.676  13.150
36873SOL     OW12515   8.881  13.340   7.998
36873SOL    HW112516   8.851  13.268   7.943
36873SOL    HW212517   8.933  13.298   8.066
36874SOL     OW12518   2.294   4.051   3.455
36874SOL    HW112519   2.355   4.118   3.485
36874SOL    HW212520   2.345   3.970   3.456
36875SOL     OW12521   7.219   4.941  13.981
36875SOL    HW112522   7.136   4.953  14.028
36875SOL    HW212523   7.282   4.992  14.031
36876SOL     OW12524  10.182  12.731   8.844
36876SOL    HW112525  10.112  12.670   8.821
36876SOL    HW212526  10.178  12.737   8.940
36877SOL     OW12527   9.546  12.137   8.325
36877SOL    HW112528   9.570  12.229   8.337
36877SOL    HW212529   9.452  12.140   8.305
36878SOL     OW12530   4.776  14.599   6.589
36878SOL    HW112531   4.748  14.558   6.508
36878SOL    HW212532   4.846  14.659   6.563
36879SOL     OW12533   1.219   4.814   1.532
36879SOL    HW112534   1.170   4.751   1.478
36879SOL    HW212535   1.308   4.781   1.533
36880SOL     OW12536  14.449   4.651   1.123
36880SOL    HW112537  14.457   4.671   1.030
36880SOL    HW212538  14.474   4.559   1.131
36881SOL     OW12539   3.242   4.665  11.936
36881SOL    HW112540   3.186   4.588  11.939
36881SOL    HW212541   3.181   4.738  11.921
36882SOL     OW12542  13.065   5.383   8.075
36882SOL    HW112543  13.143   5.336   8.046
36882SOL    HW212544  12.996   5.352   8.016
36883SOL     OW12545   0.167  11.718   3.735
36883SOL    HW112546   0.235  11.698   3.671
36883SOL    HW212547   0.210  11.778   3.796
36884SOL     OW12548   9.941  14.489   7.270
36884SOL    HW112549   9.929  14.548   7.196
36884SOL    HW212550   9.979  14.410   7.232
36885SOL     OW12551  11.803   6.121   7.534
36885SOL    HW112552  11.751   6.196   7.504
36885SOL    HW212553  11.854   6.095   7.458
36886SOL     OW12554   2.952   7.000  10.235
36886SOL    HW112555   2.938   7.077  10.180
36886SOL    HW212556   2.864   6.969  10.255
36887SOL     OW12557   0.726  14.798  14.572
36887SOL    HW112558   0.771  14.718  14.543
36887SOL    HW212559   0.773  14.824  14.651
36888SOL     OW12560  12.616   8.310   1.090
36888SOL    HW112561  12.645   8.399   1.109
36888SOL    HW212562  12.635   8.261   1.171
36889SOL     OW12563  14.682   0.403   6.871
36889SOL    HW112564  14.637   0.319   6.868
36889SOL    HW212565  14.625   0.462   6.821
36890SOL     OW12566  12.317   9.632   2.482
36890SOL    HW112567  12.395   9.586   2.515
36890SOL    HW212568  12.338   9.654   2.392
36891SOL     OW12569   5.876  12.160   6.921
36891SOL    HW112570   5.945  12.224   6.903
36891SOL    HW212571   5.858  12.119   6.837
36892SOL     OW12572   6.716   1.533  14.275
36892SOL    HW112573   6.774   1.609  14.283
36892SOL    HW212574   6.698   1.527  14.181
36893SOL     OW12575   7.543   9.531  13.013
36893SOL    HW112576   7.460   9.539  13.060
36893SOL    HW212577   7.606   9.581  13.067
36894SOL     OW12578   3.745   2.378   0.408
36894SOL    HW112579   3.662   2.372   0.455
36894SOL    HW212580   3.747   2.299   0.353
36895SOL     OW12581   5.473   2.848  13.027
36895SOL    HW112582   5.530   2.919  12.999
36895SOL    HW212583   5.421   2.886  13.098
36896SOL     OW12584   4.213  10.205   6.179
36896SOL    HW112585   4.250  10.289   6.152
36896SOL    HW212586   4.285  10.161   6.225
36897SOL     OW12587   6.009  12.688  13.678
36897SOL    HW112588   5.977  12.742  13.751
36897SOL    HW212589   5.937  12.688  13.615
36898SOL     OW12590  12.501  11.433   8.122
36898SOL    HW112591  12.572  11.369   8.124
36898SOL    HW212592  12.423  11.383   8.145
36899SOL     OW12593   8.348  13.017   4.296
36899SOL    HW112594   8.437  13.045   4.316
36899SOL    HW212595   8.359  12.949   4.229
36900SOL     OW12596   4.800   8.173  13.829
36900SOL    HW112597   4.797   8.130  13.914
36900SOL    HW212598   4.709   8.172  13.798
36901SOL     OW12599   7.742   8.006  12.906
36901SOL    HW112600   7.756   8.095  12.874
36901SOL    HW212601   7.767   7.950  12.832
36902SOL     OW12602  12.371   9.824   0.160
36902SOL    HW112603  12.280   9.795   0.162
36902SOL    HW212604  12.420   9.752   0.200
36903SOL     OW12605  14.873   4.839   8.885
36903SOL    HW112606  14.782   4.858   8.910
36903SOL    HW212607  14.872   4.748   8.858
36904SOL     OW12608   5.103   1.233  13.075
36904SOL    HW112609   5.177   1.179  13.102
36904SOL    HW212610   5.073   1.194  12.993
36905SOL     OW12611   6.184   6.609   5.998
36905SOL    HW112612   6.091   6.593   5.983
36905SOL    HW212613   6.219   6.626   5.911
36906SOL     OW12614  12.994  13.266   9.239
36906SOL    HW112615  13.086  13.272   9.262
36906SOL    HW212616  12.988  13.304   9.151
36907SOL     OW12617   7.881  14.762   8.743
36907SOL    HW112618   7.866  14.743   8.650
36907SOL    HW212619   7.856  14.681   8.788
36908SOL     OW12620   8.116   4.276  12.359
36908SOL    HW112621   8.177   4.348  12.342
36908SOL    HW212622   8.061   4.271  12.281
36909SOL     OW12623  10.909  11.094   9.887
36909SOL    HW112624  10.893  11.055   9.801
36909SOL    HW212625  11.003  11.112   9.889
36910SOL     OW12626  14.433   6.444   4.035
36910SOL    HW112627  14.463   6.504   4.104
36910SOL    HW212628  14.429   6.498   3.956
36911SOL     OW12629   6.802  14.526   8.556
36911SOL    HW112630   6.838  14.555   8.640
36911SOL    HW212631   6.746  14.598   8.528
36912SOL     OW12632   5.054   7.697   3.184
36912SOL    HW112633   5.137   7.700   3.233
36912SOL    HW212634   4.986   7.704   3.251
36913SOL     OW12635  11.767   5.366  10.019
36913SOL    HW112636  11.849   5.353   9.972
36913SOL    HW212637  11.738   5.278  10.043
36914SOL     OW12638   6.604   5.276   8.275
36914SOL    HW112639   6.540   5.222   8.228
36914SOL    HW212640   6.569   5.365   8.270
36915SOL     OW12641   5.795  14.762   6.895
36915SOL    HW112642   5.737  14.827   6.856
36915SOL    HW212643   5.832  14.806   6.972
36916SOL     OW12644   4.577  13.859   1.283
36916SOL    HW112645   4.613  13.908   1.209
36916SOL    HW212646   4.547  13.927   1.344
36917SOL     OW12647   1.602   1.848  14.060
36917SOL    HW112648   1.558   1.763  14.050
36917SOL    HW212649   1.546   1.898  14.119
36918SOL     OW12650   7.756   5.327  12.978
36918SOL    HW112651   7.689   5.288  12.922
36918SOL    HW212652   7.742   5.421  12.971
36919SOL     OW12653   5.472  14.128   4.242
36919SOL    HW112654   5.450  14.054   4.185
36919SOL    HW212655   5.567  14.136   4.235
36920SOL     OW12656   2.293   4.971  12.888
36920SOL    HW112657   2.364   5.023  12.926
36920SOL    HW212658   2.329   4.935  12.808
36921SOL     OW12659  13.726   9.657   4.270
36921SOL    HW112660  13.670   9.671   4.194
36921SOL    HW212661  13.756   9.566   4.261
36922SOL     OW12662  10.144   1.191   1.701
36922SOL    HW112663  10.053   1.162   1.702
36922SOL    HW212664  10.189   1.131   1.761
36923SOL     OW12665   6.609   0.381   3.028
36923SOL    HW112666   6.593   0.433   3.106
36923SOL    HW212667   6.640   0.297   3.061
36924SOL     OW12668   0.943   8.517   6.950
36924SOL    HW112669   0.950   8.426   6.977
36924SOL    HW212670   0.915   8.514   6.859
36925SOL     OW12671   5.442  13.261  12.835
36925SOL    HW112672   5.393  13.193  12.882
36925SOL    HW212673   5.534  13.241  12.854
36926SOL     OW12674   7.078  11.568  11.430
36926SOL    HW112675   7.053  11.493  11.484
36926SOL    HW212676   7.018  11.563  11.355
36927SOL     OW12677   3.139  13.516   3.744
36927SOL    HW112678   3.226  13.549   3.722
36927SOL    HW212679   3.154  13.457   3.818
36928SOL     OW12680   9.773   1.399   8.767
36928SOL    HW112681   9.850   1.343   8.775
36928SOL    HW212682   9.726   1.386   8.850
36929SOL     OW12683   0.643   7.808  14.382
36929SOL    HW112684   0.564   7.755  14.379
36929SOL    HW212685   0.638   7.854  14.467
36930SOL     OW12686   0.052   5.969   5.067
36930SOL    HW112687   0.030   6.007   4.981
36930SOL    HW212688   0.107   5.893   5.046
36931SOL     OW12689   6.864   0.660   4.233
36931SOL    HW112690   6.900   0.658   4.144
36931SOL    HW212691   6.921   0.720   4.281
36932SOL     OW12692   7.580  13.269   1.943
36932SOL    HW112693   7.515  13.307   2.002
36932SOL    HW212694   7.662  13.272   1.992
36933SOL     OW12695  10.984  13.613   6.788
36933SOL    HW112696  10.901  13.630   6.832
36933SOL    HW212697  10.981  13.520   6.766
36934SOL     OW12698  10.044  11.847   8.117
36934SOL    HW112699   9.988  11.800   8.055
36934SOL    HW212700  10.105  11.896   8.062
36935SOL     OW12701   4.119   0.933   0.459
36935SOL    HW112702   4.067   0.896   0.388
36935SOL    HW212703   4.055   0.973   0.518
36936SOL     OW12704   8.685   4.714  12.672
36936SOL    HW112705   8.740   4.705  12.750
36936SOL    HW212706   8.689   4.807  12.650
36937SOL     OW12707   5.055  10.489   4.921
36937SOL    HW112708   5.143  10.499   4.956
36937SOL    HW212709   5.062  10.519   4.830
36938SOL     OW12710  10.572   4.264   7.652
36938SOL    HW112711  10.648   4.275   7.708
36938SOL    HW212712  10.598   4.301   7.568
36939SOL     OW12713   1.347   1.349   9.427
36939SOL    HW112714   1.367   1.381   9.339
36939SOL    HW212715   1.273   1.404   9.455
36940SOL     OW12716   6.697   9.962   0.644
36940SOL    HW112717   6.792   9.965   0.630
36940SOL    HW212718   6.669  10.052   0.628
36941SOL     OW12719   4.897  13.575   9.347
36941SOL    HW112720   4.949  13.653   9.363
36941SOL    HW212721   4.820  13.606   9.299
36942SOL     OW12722   4.228   3.235  13.969
36942SOL    HW112723   4.238   3.324  14.005
36942SOL    HW212724   4.148   3.202  14.011
36943SOL     OW12725   3.869   7.612   8.150
36943SOL    HW112726   3.912   7.537   8.189
36943SOL    HW212727   3.935   7.681   8.150
36944SOL     OW12728  12.261   8.581  13.318
36944SOL    HW112729  12.204   8.657  13.329
36944SOL    HW212730  12.200   8.507  13.315
36945SOL     OW12731  11.194  14.828   8.385
36945SOL    HW112732  11.113  14.839   8.336
36945SOL    HW212733  11.223  14.739   8.364
36946SOL     OW12734   5.790   5.519   6.565
36946SOL    HW112735   5.723   5.583   6.588
36946SOL    HW212736   5.773   5.498   6.473
36947SOL     OW12737   6.350   5.523  11.033
36947SOL    HW112738   6.421   5.468  10.999
36947SOL    HW212739   6.382   5.554  11.118
36948SOL     OW12740   7.435   6.208  10.009
36948SOL    HW112741   7.475   6.295   9.998
36948SOL    HW212742   7.484   6.168  10.081
36949SOL     OW12743   8.620  12.413  10.340
36949SOL    HW112744   8.579  12.485  10.292
36949SOL    HW212745   8.672  12.456  10.408
36950SOL     OW12746  13.384   6.037   0.310
36950SOL    HW112747  13.392   6.093   0.233
36950SOL    HW212748  13.348   5.955   0.277
36951SOL     OW12749   8.914   0.880   1.930
36951SOL    HW112750   8.988   0.920   1.886
36951SOL    HW212751   8.919   0.787   1.906
36952SOL     OW12752   7.296   2.808   2.764
36952SOL    HW112753   7.213   2.856   2.768
36952SOL    HW212754   7.270   2.717   2.750
36953SOL     OW12755   5.560   2.421   6.370
36953SOL    HW112756   5.536   2.512   6.356
36953SOL    HW212757   5.523   2.399   6.456
36954SOL     OW12758   3.852  11.260  10.662
36954SOL    HW112759   3.831  11.192  10.599
36954SOL    HW212760   3.875  11.213  10.742
36955SOL     OW12761  14.025  13.453   2.090
36955SOL    HW112762  14.036  13.424   2.180
36955SOL    HW212763  14.054  13.544   2.090
36956SOL     OW12764  12.514  10.286   6.437
36956SOL    HW112765  12.448  10.338   6.483
36956SOL    HW212766  12.503  10.310   6.345
36957SOL     OW12767   5.849   4.409   8.352
36957SOL    HW112768   5.936   4.434   8.380
36957SOL    HW212769   5.795   4.412   8.431
36958SOL     OW12770   9.802  10.527  11.186
36958SOL    HW112771   9.811  10.518  11.091
36958SOL    HW212772   9.708  10.525  11.202
36959SOL     OW12773   6.358  10.608   5.203
36959SOL    HW112774   6.382  10.653   5.284
36959SOL    HW212775   6.263  10.617   5.197
36960SOL     OW12776  12.124  11.606   6.498
36960SOL    HW112777  12.178  11.684   6.513
36960SOL    HW212778  12.177  11.552   6.438
36961SOL     OW12779  11.869  13.369  10.731
36961SOL    HW112780  11.847  13.397  10.642
36961SOL    HW212781  11.829  13.283  10.740
36962SOL     OW12782   6.420   6.784  14.484
36962SOL    HW112783   6.469   6.856  14.442
36962SOL    HW212784   6.443   6.707  14.433
36963SOL     OW12785   8.652  13.189   3.452
36963SOL    HW112786   8.603  13.108   3.434
36963SOL    HW212787   8.599  13.235   3.517
36964SOL     OW12788   0.193   6.600  10.129
36964SOL    HW112789   0.287   6.602  10.111
36964SOL    HW212790   0.154   6.655  10.060
36965SOL     OW12791   3.714   4.058   3.640
36965SOL    HW112792   3.796   4.072   3.592
36965SOL    HW212793   3.652   4.120   3.602
36966SOL     OW12794   3.701  13.785   0.706
36966SOL    HW112795   3.751  13.707   0.683
36966SOL    HW212796   3.610  13.756   0.705
36967SOL     OW12797   9.569   1.673   4.939
36967SOL    HW112798   9.498   1.642   4.882
36967SOL    HW212799   9.582   1.602   5.002
36968SOL     OW12800  10.831  10.581   3.293
36968SOL    HW112801  10.827  10.546   3.382
36968SOL    HW212802  10.746  10.624   3.280
36969SOL     OW12803  12.009  12.129   9.822
36969SOL    HW112804  12.078  12.176   9.777
36969SOL    HW212805  12.033  12.036   9.812
36970SOL     OW12806   9.318  14.456   1.365
36970SOL    HW112807   9.286  14.396   1.298
36970SOL    HW212808   9.270  14.432   1.444
36971SOL     OW12809   1.992   3.060   7.805
36971SOL    HW112810   1.926   3.068   7.737
36971SOL    HW212811   1.942   3.043   7.885
36972SOL     OW12812   1.276   4.493   8.509
36972SOL    HW112813   1.339   4.483   8.438
36972SOL    HW212814   1.296   4.421   8.570
36973SOL     OW12815   9.668  11.372   9.758
36973SOL    HW112816   9.653  11.420   9.840
36973SOL    HW212817   9.580  11.358   9.722
36974SOL     OW12818   7.481   5.733   9.115
36974SOL    HW112819   7.532   5.813   9.131
36974SOL    HW212820   7.419   5.758   9.046
36975SOL     OW12821  11.680   0.676   8.854
36975SOL    HW112822  11.650   0.757   8.813
36975SOL    HW212823  11.619   0.609   8.821
36976SOL     OW12824   6.410   9.158   6.985
36976SOL    HW112825   6.484   9.179   6.927
36976SOL    HW212826   6.419   9.064   7.002
36977SOL     OW12827   7.849   4.643   4.427
36977SOL    HW112828   7.858   4.549   4.439
36977SOL    HW212829   7.811   4.675   4.509
36978SOL     OW12830   8.647   1.592  11.608
36978SOL    HW112831   8.682   1.523  11.551
36978SOL    HW212832   8.699   1.585  11.688
36979SOL     OW12833   4.548   1.883   2.863
36979SOL    HW112834   4.502   1.841   2.936
36979SOL    HW212835   4.613   1.818   2.835
36980SOL     OW12836   4.480  11.311   7.155
36980SOL    HW112837   4.493  11.405   7.167
36980SOL    HW212838   4.385  11.300   7.152
36981SOL     OW12839   8.704   7.277   0.531
36981SOL    HW112840   8.704   7.299   0.438
36981SOL    HW212841   8.679   7.359   0.575
36982SOL     OW12842   4.174   3.957  13.614
36982SOL    HW112843   4.141   3.896  13.680
36982SOL    HW212844   4.150   4.043  13.647
36983SOL     OW12845   2.943  13.407   0.134
36983SOL    HW112846   2.931  13.496   0.166
36983SOL    HW212847   2.854  13.371   0.128
36984SOL     OW12848   2.165  10.011   6.851
36984SOL    HW112849   2.190   9.941   6.791
36984SOL    HW212850   2.118   9.965   6.921
36985SOL     OW12851   0.726  13.948   3.188
36985SOL    HW112852   0.800  13.927   3.130
36985SOL    HW212853   0.721  14.043   3.188
36986SOL     OW12854   8.089   9.319  14.791
36986SOL    HW112855   8.119   9.362  14.711
36986SOL    HW212856   8.023   9.378  14.827
36987SOL     OW12857  14.346  12.823   3.900
36987SOL    HW112858  14.333  12.917   3.910
36987SOL    HW212859  14.265  12.784   3.933
36988SOL     OW12860  12.248  12.347  13.030
36988SOL    HW112861  12.317  12.376  13.090
36988SOL    HW212862  12.196  12.286  13.082
36989SOL     OW12863  10.701  10.198   0.567
36989SOL    HW112864  10.717  10.172   0.658
36989SOL    HW212865  10.771  10.260   0.548
36990SOL     OW12866  14.634   4.062   4.508
36990SOL    HW112867  14.631   4.085   4.600
36990SOL    HW212868  14.573   4.122   4.465
36991SOL     OW12869   2.615   8.381   1.318
36991SOL    HW112870   2.608   8.342   1.405
36991SOL    HW212871   2.704   8.418   1.315
36992SOL     OW12872   8.178   8.750   5.215
36992SOL    HW112873   8.095   8.732   5.171
36992SOL    HW212874   8.185   8.845   5.215
36993SOL     OW12875  13.333  13.737  14.779
36993SOL    HW112876  13.294  13.659  14.739
36993SOL    HW212877  13.319  13.724  14.873
36994SOL     OW12878   8.322  13.058  10.635
36994SOL    HW112879   8.307  13.046  10.729
36994SOL    HW212880   8.243  13.026  10.593
36995SOL     OW12881  14.166   2.782  13.908
36995SOL    HW112882  14.205   2.735  13.981
36995SOL    HW212883  14.208   2.745  13.830
36996SOL     OW12884  12.763   6.609   5.433
36996SOL    HW112885  12.815   6.538   5.472
36996SOL    HW212886  12.677   6.570   5.418
36997SOL     OW12887   7.907   1.616   7.161
36997SOL    HW112888   7.836   1.570   7.207
36997SOL    HW212889   7.978   1.552   7.157
36998SOL     OW12890   5.417   6.033   3.977
36998SOL    HW112891   5.404   5.942   4.002
36998SOL    HW212892   5.512   6.044   3.973
36999SOL     OW12893   4.968   1.025   0.819
36999SOL    HW112894   4.909   0.951   0.811
36999SOL    HW212895   5.048   0.989   0.857
37000SOL     OW12896  11.688   9.856   9.920
37000SOL    HW112897  11.750   9.913   9.874
37000SOL    HW212898  11.704   9.873  10.013
37001SOL     OW12899   9.465  14.267   6.864
37001SOL    HW112900   9.432  14.244   6.777
37001SOL    HW212901   9.424  14.203   6.923
37002SOL     OW12902  11.646  14.541  13.682
37002SOL    HW112903  11.591  14.482  13.734
37002SOL    HW212904  11.654  14.497  13.597
37003SOL     OW12905   1.752  13.767  10.192
37003SOL    HW112906   1.848  13.767  10.187
37003SOL    HW212907   1.724  13.822  10.119
37004SOL     OW12908   0.607  14.710   3.270
37004SOL    HW112909   0.516  14.700   3.242
37004SOL    HW212910   0.634  14.794   3.234
37005SOL     OW12911  14.446   2.335   8.482
37005SOL    HW112912  14.371   2.390   8.460
37005SOL    HW212913  14.466   2.356   8.573
37006SOL     OW12914  13.457   6.810  12.904
37006SOL    HW112915  13.375   6.806  12.855
37006SOL    HW212916  13.522   6.773  12.844
37007SOL     OW12917   0.098   9.266   6.672
37007SOL    HW112918   0.060   9.337   6.724
37007SOL    HW212919   0.186   9.297   6.650
37008SOL     OW12920   6.096  11.031   3.663
37008SOL    HW112921   6.103  10.960   3.600
37008SOL    HW212922   6.017  11.079   3.637
37009SOL     OW12923   7.976   1.328   8.557
37009SOL    HW112924   7.920   1.383   8.503
37009SOL    HW212925   7.920   1.256   8.586
37010SOL     OW12926   8.955  13.049   8.946
37010SOL    HW112927   8.911  13.004   9.019
37010SOL    HW212928   8.986  13.131   8.984
37011SOL     OW12929   9.331   2.676   9.752
37011SOL    HW112930   9.327   2.669   9.848
37011SOL    HW212931   9.256   2.626   9.721
37012SOL     OW12932   2.483   3.089   2.131
37012SOL    HW112933   2.421   3.040   2.077
37012SOL    HW212934   2.494   3.172   2.085
37013SOL     OW12935   8.568   5.828  13.116
37013SOL    HW112936   8.605   5.826  13.205
37013SOL    HW212937   8.612   5.756  13.070
37014SOL     OW12938   0.766  12.360   6.953
37014SOL    HW112939   0.755  12.439   7.006
37014SOL    HW212940   0.812  12.298   7.010
37015SOL     OW12941  13.323   3.297   7.546
37015SOL    HW112942  13.245   3.337   7.506
37015SOL    HW212943  13.301   3.204   7.551
37016SOL     OW12944  14.592   1.389  10.077
37016SOL    HW112945  14.667   1.407  10.133
37016SOL    HW212946  14.614   1.306  10.034
37017SOL     OW12947   9.544  12.220  13.955
37017SOL    HW112948   9.515  12.211  14.045
37017SOL    HW212949   9.639  12.204  13.959
37018SOL     OW12950  10.645   0.062   2.122
37018SOL    HW112951  10.667   0.123   2.052
37018SOL    HW212952  10.555   0.084   2.146
37019SOL     OW12953   9.128   2.024   0.004
37019SOL    HW112954   9.084   2.108   0.014
37019SOL    HW212955   9.087   1.967   0.068
37020SOL     OW12956  10.341   6.251   7.994
37020SOL    HW112957  10.371   6.257   7.903
37020SOL    HW212958  10.253   6.286   7.994
37021SOL     OW12959  13.897   4.765  13.635
37021SOL    HW112960  13.900   4.857  13.610
37021SOL    HW212961  13.817   4.732  13.595
37022SOL     OW12962  10.083   1.074   3.759
37022SOL    HW112963  10.162   1.115   3.725
37022SOL    HW212964  10.012   1.131   3.728
37023SOL     OW12965   5.876  10.035   3.965
37023SOL    HW112966   5.915   9.948   3.970
37023SOL    HW212967   5.782  10.019   3.971
37024SOL     OW12968   1.206   3.907   4.200
37024SOL    HW112969   1.280   3.897   4.140
37024SOL    HW212970   1.131   3.918   4.142
37025SOL     OW12971   7.892   4.223   2.307
37025SOL    HW112972   7.894   4.203   2.213
37025SOL    HW212973   7.978   4.261   2.325
37026SOL     OW12974  12.589  13.180   6.247
37026SOL    HW112975  12.637  13.124   6.308
37026SOL    HW212976  12.501  13.185   6.283
37027SOL     OW12977   3.151   2.688  10.554
37027SOL    HW112978   3.170   2.649  10.639
37027SOL    HW212979   3.137   2.612  10.496
37028SOL     OW12980   6.783   6.180   7.751
37028SOL    HW112981   6.786   6.092   7.713
37028SOL    HW212982   6.753   6.236   7.679
37029SOL     OW12983   3.044   8.031  12.978
37029SOL    HW112984   3.009   8.118  12.996
37029SOL    HW212985   3.138   8.040  12.993
37030SOL     OW12986  13.808   6.407  12.620
37030SOL    HW112987  13.886   6.393  12.674
37030SOL    HW212988  13.781   6.319  12.594
37031SOL     OW12989   0.288  12.267  12.287
37031SOL    HW112990   0.201  12.304  12.271
37031SOL    HW212991   0.306  12.214  12.209
37032SOL     OW12992   7.939   5.607   9.489
37032SOL    HW112993   8.011   5.563   9.443
37032SOL    HW212994   7.975   5.693   9.512
37033SOL     OW12995  10.601  11.045   5.152
37033SOL    HW112996  10.653  10.978   5.108
37033SOL    HW212997  10.611  11.122   5.095
37034SOL     OW12998   3.030   1.774  10.383
37034SOL    HW112999   3.001   1.733  10.301
37034SOL    HW213000   3.036   1.701  10.445
37035SOL     OW13001   6.675  13.328   1.832
37035SOL    HW113002   6.737  13.257   1.850
37035SOL    HW213003   6.714  13.405   1.875
37036SOL     OW13004   2.442   3.827   9.359
37036SOL    HW113005   2.479   3.914   9.346
37036SOL    HW213006   2.383   3.836   9.434
37037SOL     OW13007   5.246  13.706   0.029
37037SOL    HW113008   5.193  13.638   0.072
37037SOL    HW213009   5.252  13.776   0.095
37038SOL     OW13010   4.478   2.841  13.269
37038SOL    HW113011   4.544   2.905  13.243
37038SOL    HW213012   4.397   2.872  13.228
37039SOL     OW13013   4.835  12.151   3.479
37039SOL    HW113014   4.834  12.056   3.487
37039SOL    HW213015   4.904  12.169   3.415
37040SOL     OW13016   8.710   1.797   1.747
37040SOL    HW113017   8.795   1.797   1.792
37040SOL    HW213018   8.681   1.888   1.751
37041SOL     OW13019  11.857   4.474   9.606
37041SOL    HW113020  11.886   4.385   9.588
37041SOL    HW213021  11.937   4.526   9.606
37042SOL     OW13022   9.949  11.522   1.667
37042SOL    HW113023   9.988  11.572   1.596
37042SOL    HW213024  10.010  11.450   1.682
37043SOL     OW13025   3.630  12.097  12.127
37043SOL    HW113026   3.538  12.123  12.129
37043SOL    HW213027   3.673  12.153  12.192
37044SOL     OW13028   4.583   5.562  11.299
37044SOL    HW113029   4.660   5.549  11.354
37044SOL    HW213030   4.562   5.475  11.267
37045SOL     OW13031   4.758   3.134   1.096
37045SOL    HW113032   4.719   3.055   1.057
37045SOL    HW213033   4.710   3.146   1.178
37046SOL     OW13034   2.855  10.796  13.281
37046SOL    HW113035   2.901  10.718  13.250
37046SOL    HW213036   2.807  10.766  13.358
37047SOL     OW13037   1.130  14.716   6.133
37047SOL    HW113038   1.180  14.677   6.061
37047SOL    HW213039   1.165  14.804   6.141
37048SOL     OW13040  12.043  12.393  10.861
37048SOL    HW113041  11.992  12.468  10.830
37048SOL    HW213042  11.980  12.321  10.863
37049SOL     OW13043   2.400   1.491  11.032
37049SOL    HW113044   2.455   1.434  11.087
37049SOL    HW213045   2.443   1.490  10.947
37050SOL     OW13046   0.330   6.147  11.928
37050SOL    HW113047   0.395   6.156  11.858
37050SOL    HW213048   0.382   6.146  12.009
37051SOL     OW13049  14.211  12.988   0.068
37051SOL    HW113050  14.252  12.996   0.155
37051SOL    HW213051  14.199  13.079   0.040
37052SOL     OW13052   0.583   7.509   1.903
37052SOL    HW113053   0.519   7.479   1.967
37052SOL    HW213054   0.568   7.453   1.827
37053SOL     OW13055   9.677  10.116  14.173
37053SOL    HW113056   9.677  10.203  14.213
37053SOL    HW213057   9.650  10.057  14.243
37054SOL     OW13058  11.081   8.029   1.022
37054SOL    HW113059  11.145   7.989   0.963
37054SOL    HW213060  11.092   8.123   1.010
37055SOL     OW13061  13.921  14.170   7.298
37055SOL    HW113062  13.885  14.131   7.218
37055SOL    HW213063  14.012  14.189   7.276
37056SOL     OW13064   3.299  14.557   0.077
37056SOL    HW113065   3.335  14.518  14.876
37056SOL    HW213066   3.363  14.535   0.145
37057SOL     OW13067   9.077   1.841  12.763
37057SOL    HW113068   9.148   1.869  12.820
37057SOL    HW213069   9.003   1.897  12.787
37058SOL     OW13070  10.531  12.762   9.104
37058SOL    HW113071  10.470  12.813   9.051
37058SOL    HW213072  10.524  12.673   9.070
37059SOL     OW13073   7.991   3.797   3.952
37059SOL    HW113074   8.064   3.836   4.001
37059SOL    HW213075   7.995   3.839   3.866
37060SOL     OW13076  10.541   8.066  13.149
37060SOL    HW113077  10.630   8.038  13.170
37060SOL    HW213078  10.531   8.151  13.193
37061SOL     OW13079   3.989  13.376   2.157
37061SOL    HW113080   3.972  13.456   2.107
37061SOL    HW213081   4.079  13.386   2.187
37062SOL     OW13082  11.440   3.783   5.649
37062SOL    HW113083  11.363   3.807   5.702
37062SOL    HW213084  11.411   3.708   5.597
37063SOL     OW13085   6.513  10.224  11.999
37063SOL    HW113086   6.505  10.275  11.918
37063SOL    HW213087   6.591  10.170  11.987
37064SOL     OW13088   5.910   3.838   0.876
37064SOL    HW113089   5.930   3.745   0.892
37064SOL    HW213090   5.821   3.838   0.843
37065SOL     OW13091   3.947   4.687   6.961
37065SOL    HW113092   3.913   4.734   7.037
37065SOL    HW213093   3.929   4.595   6.979
37066SOL     OW13094  13.108   8.358   3.527
37066SOL    HW113095  13.133   8.449   3.514
37066SOL    HW213096  13.027   8.362   3.579
37067SOL     OW13097   3.197   7.468   1.740
37067SOL    HW113098   3.241   7.424   1.813
37067SOL    HW213099   3.233   7.557   1.741
37068SOL     OW13100  10.327  13.734   7.823
37068SOL    HW113101  10.291  13.771   7.904
37068SOL    HW213102  10.260  13.752   7.757
37069SOL     OW13103   7.439   8.533  13.315
37069SOL    HW113104   7.398   8.477  13.381
37069SOL    HW213105   7.462   8.612  13.362
37070SOL     OW13106   0.640   9.920   0.679
37070SOL    HW113107   0.635   9.939   0.585
37070SOL    HW213108   0.677   9.999   0.718
37071SOL     OW13109   3.608   9.647   4.376
37071SOL    HW113110   3.531   9.704   4.374
37071SOL    HW213111   3.571   9.558   4.376
37072SOL     OW13112  10.898  13.513   6.022
37072SOL    HW113113  10.807  13.543   6.031
37072SOL    HW213114  10.896  13.453   5.947
37073SOL     OW13115  10.658   0.947   2.933
37073SOL    HW113116  10.573   0.989   2.916
37073SOL    HW213117  10.645   0.855   2.911
37074SOL     OW13118  14.522   0.902  13.044
37074SOL    HW113119  14.499   0.860  13.127
37074SOL    HW213120  14.472   0.984  13.043
37075SOL     OW13121  14.779   0.106   0.075
37075SOL    HW113122  14.697   0.061   0.097
37075SOL    HW213123  14.757   0.164   0.003
37076SOL     OW13124   0.465   4.543   4.227
37076SOL    HW113125   0.450   4.540   4.322
37076SOL    HW213126   0.378   4.551   4.189
37077SOL     OW13127   9.489   8.856  12.089
37077SOL    HW113128   9.549   8.797  12.135
37077SOL    HW213129   9.544   8.901  12.025
37078SOL     OW13130   9.252   7.030   5.831
37078SOL    HW113131   9.332   7.046   5.880
37078SOL    HW213132   9.206   7.114   5.830
37079SOL     OW13133   6.638   0.651  12.078
37079SOL    HW113134   6.634   0.643  12.173
37079SOL    HW213135   6.711   0.712  12.062
37080SOL     OW13136   3.858   4.141  12.948
37080SOL    HW113137   3.838   4.102  13.032
37080SOL    HW213138   3.875   4.067  12.890
37081SOL     OW13139  11.236   4.664   3.291
37081SOL    HW113140  11.307   4.606   3.317
37081SOL    HW213141  11.214   4.638   3.202
37082SOL     OW13142   5.387   3.847  10.323
37082SOL    HW113143   5.296   3.829  10.298
37082SOL    HW213144   5.393   3.943  10.322
37083SOL     OW13145   1.648   7.041   8.394
37083SOL    HW113146   1.614   7.068   8.479
37083SOL    HW213147   1.655   6.946   8.401
37084SOL     OW13148   1.212  11.022  12.747
37084SOL    HW113149   1.253  10.961  12.808
37084SOL    HW213150   1.282  11.044  12.685
37085SOL     OW13151  12.668   4.357  14.305
37085SOL    HW113152  12.605   4.392  14.242
37085SOL    HW213153  12.753   4.388  14.274
37086SOL     OW13154  12.115   7.782   9.408
37086SOL    HW113155  12.032   7.790   9.456
37086SOL    HW213156  12.090   7.745   9.324
37087SOL     OW13157   8.796   7.706  13.971
37087SOL    HW113158   8.763   7.768  13.905
37087SOL    HW213159   8.755   7.734  14.053
37088SOL     OW13160   3.130   5.380   0.113
37088SOL    HW113161   3.221   5.404   0.098
37088SOL    HW213162   3.111   5.316   0.044
37089SOL     OW13163  11.586   9.033   5.280
37089SOL    HW113164  11.622   9.018   5.192
37089SOL    HW213165  11.554   8.948   5.308
37090SOL     OW13166   9.427   4.353  14.199
37090SOL    HW113167   9.520   4.364  14.216
37090SOL    HW213168   9.398   4.439  14.168
37091SOL     OW13169   6.242   0.027  10.727
37091SOL    HW113170   6.188   0.078  10.667
37091SOL    HW213171   6.256   0.086  10.801
37092SOL     OW13172  14.554  10.436   7.088
37092SOL    HW113173  14.501  10.370   7.133
37092SOL    HW213174  14.583  10.495   7.157
37093SOL     OW13175   5.466   1.878   2.964
37093SOL    HW113176   5.484   1.915   2.877
37093SOL    HW213177   5.399   1.812   2.948
37094SOL     OW13178   1.463   0.117   6.535
37094SOL    HW113179   1.483   0.028   6.506
37094SOL    HW213180   1.371   0.129   6.512
37095SOL     OW13181   3.896   2.278   7.627
37095SOL    HW113182   3.991   2.281   7.619
37095SOL    HW213183   3.879   2.316   7.713
37096SOL     OW13184  13.631   6.135   8.028
37096SOL    HW113185  13.549   6.087   8.024
37096SOL    HW213186  13.647   6.147   8.122
37097SOL     OW13187   8.937   3.062   4.301
37097SOL    HW113188   8.960   3.150   4.331
37097SOL    HW213189   8.933   3.069   4.206
37098SOL     OW13190   9.368   1.108   9.315
37098SOL    HW113191   9.448   1.059   9.294
37098SOL    HW213192   9.306   1.083   9.247
37099SOL     OW13193   1.903   4.360   2.808
37099SOL    HW113194   1.921   4.440   2.759
37099SOL    HW213195   1.978   4.350   2.866
37100SOL     OW13196   6.651   7.736   1.941
37100SOL    HW113197   6.574   7.790   1.956
37100SOL    HW213198   6.665   7.692   2.025
37101SOL     OW13199   2.797   5.637   6.434
37101SOL    HW113200   2.744   5.639   6.514
37101SOL    HW213201   2.876   5.588   6.458
37102SOL     OW13202   9.608   9.529   0.397
37102SOL    HW113203   9.531   9.579   0.369
37102SOL    HW213204   9.680   9.592   0.392
37103SOL     OW13205   4.648   6.292   5.224
37103SOL    HW113206   4.714   6.308   5.157
37103SOL    HW213207   4.605   6.377   5.236
37104SOL     OW13208  13.416   3.387  13.764
37104SOL    HW113209  13.366   3.418  13.839
37104SOL    HW213210  13.502   3.429  13.774
37105SOL     OW13211   3.003  10.728   4.382
37105SOL    HW113212   3.014  10.692   4.471
37105SOL    HW213213   2.936  10.672   4.342
37106SOL     OW13214   2.202   3.559  14.517
37106SOL    HW113215   2.111   3.533  14.523
37106SOL    HW213216   2.200   3.654  14.511
37107SOL     OW13217  13.520   2.137  11.222
37107SOL    HW113218  13.535   2.105  11.311
37107SOL    HW213219  13.537   2.231  11.228
37108SOL     OW13220  14.407   7.583   1.624
37108SOL    HW113221  14.390   7.489   1.619
37108SOL    HW213222  14.357   7.620   1.551
37109SOL     OW13223   0.820   4.804   5.740
37109SOL    HW113224   0.810   4.726   5.685
37109SOL    HW213225   0.860   4.869   5.682
37110SOL     OW13226  13.003   3.559  12.458
37110SOL    HW113227  12.942   3.526  12.523
37110SOL    HW213228  13.086   3.514  12.477
37111SOL     OW13229   0.361   0.164  10.762
37111SOL    HW113230   0.442   0.112  10.765
37111SOL    HW213231   0.320   0.149  10.847
37112SOL     OW13232  13.349   1.999   0.903
37112SOL    HW113233  13.305   1.951   0.832
37112SOL    HW213234  13.321   2.090   0.891
37113SOL     OW13235   7.609  11.961   9.039
37113SOL    HW113236   7.550  11.930   8.970
37113SOL    HW213237   7.578  11.918   9.119
37114SOL     OW13238  12.817   6.033   5.911
37114SOL    HW113239  12.765   6.045   5.831
37114SOL    HW213240  12.771   5.965   5.960
37115SOL     OW13241   0.880   1.679   4.255
37115SOL    HW113242   0.892   1.713   4.166
37115SOL    HW213243   0.802   1.623   4.248
37116SOL     OW13244   8.534  13.297   8.923
37116SOL    HW113245   8.550  13.382   8.964
37116SOL    HW213246   8.510  13.318   8.832
37117SOL     OW13247  14.727   9.501  14.810
37117SOL    HW113248  14.789   9.570  14.786
37117SOL    HW213249  14.713   9.453  14.728
37118SOL     OW13250   2.275  14.604   5.920
37118SOL    HW113251   2.271  14.667   5.992
37118SOL    HW213252   2.222  14.530   5.950
37119SOL     OW13253   4.032   1.775   0.187
37119SOL    HW113254   3.939   1.790   0.169
37119SOL    HW213255   4.076   1.794   0.104
37120SOL     OW13256  10.584  14.314  11.174
37120SOL    HW113257  10.528  14.302  11.097
37120SOL    HW213258  10.669  14.338  11.138
37121SOL     OW13259   5.607   0.474   8.319
37121SOL    HW113260   5.701   0.491   8.312
37121SOL    HW213261   5.590   0.405   8.255
37122SOL     OW13262   7.922   0.891  12.546
37122SOL    HW113263   7.944   0.908  12.638
37122SOL    HW213264   7.882   0.804  12.547
37123SOL     OW13265   6.339   0.211   6.196
37123SOL    HW113266   6.343   0.176   6.107
37123SOL    HW213267   6.414   0.172   6.240
37124SOL     OW13268   4.706   8.896   2.417
37124SOL    HW113269   4.790   8.851   2.412
37124SOL    HW213270   4.656   8.846   2.482
37125SOL     OW13271   9.138  14.068  12.064
37125SOL    HW113272   9.217  14.102  12.108
37125SOL    HW213273   9.109  14.141  12.009
37126SOL     OW13274  11.674  10.451   5.454
37126SOL    HW113275  11.616  10.528   5.459
37126SOL    HW213276  11.685  10.436   5.360
37127SOL     OW13277   2.937   4.384   1.362
37127SOL    HW113278   2.919   4.444   1.435
37127SOL    HW213279   3.033   4.376   1.362
37128SOL     OW13280   5.100  14.659   1.746
37128SOL    HW113281   5.012  14.622   1.751
37128SOL    HW213282   5.131  14.662   1.836
37129SOL     OW13283   0.386   1.248   1.714
37129SOL    HW113284   0.376   1.271   1.806
37129SOL    HW213285   0.359   1.156   1.709
37130SOL     OW13286  11.015   7.601   0.974
37130SOL    HW113287  10.954   7.539   1.014
37130SOL    HW213288  11.046   7.654   1.048
37131SOL     OW13289   3.284   7.394   4.565
37131SOL    HW113290   3.255   7.322   4.508
37131SOL    HW213291   3.219   7.397   4.635
37132SOL     OW13292  13.469   7.411  10.246
37132SOL    HW113293  13.442   7.344  10.309
37132SOL    HW213294  13.517   7.364  10.179
37133SOL     OW13295  13.556   7.409   7.186
37133SOL    HW113296  13.509   7.489   7.165
37133SOL    HW213297  13.637   7.439   7.228
37134SOL     OW13298   2.067  11.030  14.849
37134SOL    HW113299   1.988  11.017  14.796
37134SOL    HW213300   2.138  10.997  14.795
37135SOL     OW13301   1.924  14.202   9.293
37135SOL    HW113302   1.892  14.121   9.333
37135SOL    HW213303   1.883  14.204   9.206
37136SOL     OW13304  14.642   6.368  13.866
37136SOL    HW113305  14.706   6.328  13.807
37136SOL    HW213306  14.576   6.405  13.808
37137SOL     OW13307  14.615   0.772   3.038
37137SOL    HW113308  14.590   0.770   3.131
37137SOL    HW213309  14.707   0.797   3.039
37138SOL     OW13310  10.384  11.323   4.055
37138SOL    HW113311  10.396  11.406   4.008
37138SOL    HW213312  10.368  11.349   4.146
37139SOL     OW13313  10.280  14.045  10.997
37139SOL    HW113314  10.295  13.951  11.005
37139SOL    HW213315  10.229  14.055  10.917
37140SOL     OW13316  10.139   4.636   3.782
37140SOL    HW113317  10.214   4.684   3.817
37140SOL    HW213318  10.063   4.691   3.805
37141SOL     OW13319   3.358   3.196  11.087
37141SOL    HW113320   3.288   3.251  11.122
37141SOL    HW213321   3.374   3.131  11.156
37142SOL     OW13322   2.868   5.748   2.997
37142SOL    HW113323   2.949   5.709   2.963
37142SOL    HW213324   2.895   5.793   3.077
37143SOL     OW13325   7.660   8.223   9.624
37143SOL    HW113326   7.742   8.242   9.670
37143SOL    HW213327   7.609   8.304   9.631
37144SOL     OW13328  13.438   1.742   3.965
37144SOL    HW113329  13.469   1.655   3.943
37144SOL    HW213330  13.440   1.745   4.061
37145SOL     OW13331   0.772  11.647  11.521
37145SOL    HW113332   0.859  11.659  11.558
37145SOL    HW213333   0.732  11.579  11.575
37146SOL     OW13334   0.372  10.060   9.115
37146SOL    HW113335   0.379  10.069   9.210
37146SOL    HW213336   0.453  10.097   9.081
37147SOL     OW13337  13.249  14.164  12.562
37147SOL    HW113338  13.194  14.119  12.498
37147SOL    HW213339  13.337  14.129  12.547
37148SOL     OW13340   5.777  13.232   1.865
37148SOL    HW113341   5.840  13.273   1.806
37148SOL    HW213342   5.824  13.224   1.948
37149SOL     OW13343  12.057  12.098   8.415
37149SOL    HW113344  12.058  12.106   8.511
37149SOL    HW213345  12.061  12.189   8.384
37150SOL     OW13346  14.032   1.937   3.940
37150SOL    HW113347  13.937   1.927   3.949
37150SOL    HW213348  14.069   1.870   3.997
37151SOL     OW13349   1.936   5.424   9.334
37151SOL    HW113350   1.897   5.368   9.402
37151SOL    HW213351   1.864   5.441   9.273
37152SOL     OW13352  10.106  13.341   7.317
37152SOL    HW113353  10.076  13.339   7.227
37152SOL    HW213354  10.200  13.325   7.311
37153SOL     OW13355  12.149  11.769   2.243
37153SOL    HW113356  12.171  11.850   2.198
37153SOL    HW213357  12.212  11.705   2.212
37154SOL     OW13358   9.509   7.079   4.061
37154SOL    HW113359   9.530   7.005   4.117
37154SOL    HW213360   9.585   7.137   4.068
37155SOL     OW13361   2.992   0.929   3.496
37155SOL    HW113362   2.997   0.985   3.573
37155SOL    HW213363   2.966   0.988   3.425
37156SOL     OW13364   4.037   8.034   5.342
37156SOL    HW113365   4.062   7.975   5.413
37156SOL    HW213366   3.989   8.105   5.385
37157SOL     OW13367  14.130   8.492  11.042
37157SOL    HW113368  14.216   8.531  11.058
37157SOL    HW213369  14.068   8.564  11.058
37158SOL     OW13370  14.097   0.138   8.379
37158SOL    HW113371  14.166   0.192   8.340
37158SOL    HW213372  14.129   0.048   8.369
37159SOL     OW13373  11.024   0.702   0.288
37159SOL    HW113374  10.960   0.689   0.219
37159SOL    HW213375  10.974   0.738   0.361
37160SOL     OW13376  14.167  14.247   3.714
37160SOL    HW113377  14.217  14.307   3.770
37160SOL    HW213378  14.099  14.212   3.772
37161SOL     OW13379  12.265   1.868   5.277
37161SOL    HW113380  12.215   1.801   5.322
37161SOL    HW213381  12.263   1.944   5.335
37162SOL     OW13382   0.363   7.161   2.233
37162SOL    HW113383   0.381   7.073   2.267
37162SOL    HW213384   0.398   7.219   2.301
37163SOL     OW13385   7.224   4.613  14.660
37163SOL    HW113386   7.187   4.576  14.580
37163SOL    HW213387   7.260   4.538  14.707
37164SOL     OW13388  10.428  12.302   1.772
37164SOL    HW113389  10.396  12.288   1.861
37164SOL    HW213390  10.408  12.221   1.726
37165SOL     OW13391  11.410  11.957   3.633
37165SOL    HW113392  11.362  11.947   3.715
37165SOL    HW213393  11.497  11.920   3.652
37166SOL     OW13394   4.137  11.573  12.389
37166SOL    HW113395   4.144  11.562  12.294
37166SOL    HW213396   4.169  11.662  12.404
37167SOL     OW13397   1.345   1.369  10.266
37167SOL    HW113398   1.393   1.335  10.342
37167SOL    HW213399   1.380   1.457  10.254
37168SOL     OW13400   8.046   8.195   8.754
37168SOL    HW113401   8.089   8.263   8.702
37168SOL    HW213402   8.114   8.164   8.814
37169SOL     OW13403   3.720   6.870   0.232
37169SOL    HW113404   3.767   6.799   0.188
37169SOL    HW213405   3.743   6.948   0.182
37170SOL     OW13406   5.894   6.399   8.922
37170SOL    HW113407   5.861   6.485   8.896
37170SOL    HW213408   5.918   6.410   9.014
37171SOL     OW13409  10.622  14.389   9.325
37171SOL    HW113410  10.665  14.327   9.266
37171SOL    HW213411  10.547  14.341   9.360
37172SOL     OW13412   6.722   1.517   6.191
37172SOL    HW113413   6.781   1.578   6.146
37172SOL    HW213414   6.648   1.507   6.132
37173SOL     OW13415  12.599   4.609   9.231
37173SOL    HW113416  12.604   4.536   9.170
37173SOL    HW213417  12.548   4.577   9.305
37174SOL     OW13418   4.493   2.025  12.669
37174SOL    HW113419   4.403   2.055  12.657
37174SOL    HW213420   4.487   1.956  12.735
37175SOL     OW13421   6.508   8.691   9.461
37175SOL    HW113422   6.421   8.657   9.480
37175SOL    HW213423   6.569   8.630   9.502
37176SOL     OW13424  12.982   4.280   0.136
37176SOL    HW113425  13.057   4.220   0.129
37176SOL    HW213426  12.906   4.224   0.119
37177SOL     OW13427   8.239  14.357  11.262
37177SOL    HW113428   8.269  14.433  11.211
37177SOL    HW213429   8.236  14.389  11.352
37178SOL     OW13430   6.199   2.397   2.232
37178SOL    HW113431   6.117   2.430   2.267
37178SOL    HW213432   6.251   2.373   2.308
37179SOL     OW13433   6.636  14.123  10.333
37179SOL    HW113434   6.676  14.104  10.248
37179SOL    HW213435   6.570  14.189  10.314
37180SOL     OW13436  14.554   0.356   2.245
37180SOL    HW113437  14.558   0.404   2.161
37180SOL    HW213438  14.624   0.394   2.297
37181SOL     OW13439   0.420  14.467   8.566
37181SOL    HW113440   0.360  14.399   8.597
37181SOL    HW213441   0.363  14.533   8.527
37182SOL     OW13442   0.370  12.773   0.776
37182SOL    HW113443   0.306  12.757   0.845
37182SOL    HW213444   0.385  12.687   0.737
37183SOL     OW13445   5.102   0.444   0.731
37183SOL    HW113446   5.086   0.350   0.742
37183SOL    HW213447   5.017   0.481   0.709
37184SOL     OW13448   4.029   5.127  11.387
37184SOL    HW113449   3.987   5.210  11.364
37184SOL    HW213450   3.966   5.060  11.359
37185SOL     OW13451  13.019   5.627  11.294
37185SOL    HW113452  12.973   5.680  11.228
37185SOL    HW213453  13.053   5.691  11.356
37186SOL     OW13454   4.242  13.559  13.377
37186SOL    HW113455   4.263  13.582  13.467
37186SOL    HW213456   4.302  13.611  13.324
37187SOL     OW13457  11.480   1.510   7.131
37187SOL    HW113458  11.439   1.518   7.217
37187SOL    HW213459  11.466   1.595   7.089
37188SOL     OW13460  14.469  13.356   4.666
37188SOL    HW113461  14.534  13.398   4.722
37188SOL    HW213462  14.395  13.339   4.724
37189SOL     OW13463  14.576  14.132   0.259
37189SOL    HW113464  14.579  14.130   0.164
37189SOL    HW213465  14.601  14.043   0.286
37190SOL     OW13466  10.755  13.574  12.476
37190SOL    HW113467  10.680  13.580  12.535
37190SOL    HW213468  10.814  13.643  12.505
37191SOL     OW13469   5.488  10.970  10.189
37191SOL    HW113470   5.467  11.043  10.248
37191SOL    HW213471   5.462  10.892  10.238
37192SOL     OW13472  14.439  10.934   9.933
37192SOL    HW113473  14.454  11.006   9.870
37192SOL    HW213474  14.356  10.956   9.975
37193SOL     OW13475   6.718   5.417   6.628
37193SOL    HW113476   6.737   5.396   6.536
37193SOL    HW213477   6.767   5.351   6.678
37194SOL     OW13478   8.713  13.515   0.544
37194SOL    HW113479   8.715  13.606   0.573
37194SOL    HW213480   8.627  13.505   0.503
37195SOL     OW13481   8.610   3.894   4.362
37195SOL    HW113482   8.587   3.831   4.430
37195SOL    HW213483   8.658   3.843   4.297
37196SOL     OW13484   7.388  10.559   1.013
37196SOL    HW113485   7.331  10.599   1.079
37196SOL    HW213486   7.331  10.546   0.937
37197SOL     OW13487  11.861  11.323   5.540
37197SOL    HW113488  11.787  11.382   5.528
37197SOL    HW213489  11.914  11.363   5.609
37198SOL     OW13490  13.675   1.109  13.318
37198SOL    HW113491  13.698   1.165  13.244
37198SOL    HW213492  13.760   1.086  13.358
37199SOL     OW13493   4.127   6.063  11.673
37199SOL    HW113494   4.139   6.130  11.740
37199SOL    HW213495   4.212   6.019  11.667
37200SOL     OW13496   2.127   0.660   6.439
37200SOL    HW113497   2.205   0.714   6.442
37200SOL    HW213498   2.078   0.692   6.363
37201SOL     OW13499  11.675   8.295  13.910
37201SOL    HW113500  11.633   8.352  13.846
37201SOL    HW213501  11.691   8.351  13.986
37202SOL     OW13502   9.767   9.039   7.509
37202SOL    HW113503   9.825   9.013   7.581
37202SOL    HW213504   9.825   9.044   7.433
37203SOL     OW13505   7.863   6.131  11.786
37203SOL    HW113506   7.936   6.079  11.750
37203SOL    HW213507   7.788   6.105  11.732
37204SOL     OW13508  12.492  14.757   5.837
37204SOL    HW113509  12.506  14.693   5.907
37204SOL    HW213510  12.516  14.841   5.876
37205SOL     OW13511   6.647   5.530  14.711
37205SOL    HW113512   6.624   5.614  14.672
37205SOL    HW213513   6.708   5.552  14.781
37206SOL     OW13514   7.123  14.584   8.545
37206SOL    HW113515   7.051  14.645   8.527
37206SOL    HW213516   7.160  14.565   8.459
37207SOL     OW13517   6.602  14.063   6.163
37207SOL    HW113518   6.669  14.045   6.098
37207SOL    HW213519   6.547  13.984   6.163
37208SOL     OW13520   2.253   6.169   1.178
37208SOL    HW113521   2.192   6.234   1.212
37208SOL    HW213522   2.198   6.096   1.149
37209SOL     OW13523  11.292   1.799  13.078
37209SOL    HW113524  11.331   1.715  13.102
37209SOL    HW213525  11.323   1.816  12.989
37210SOL     OW13526   0.974   9.515  14.132
37210SOL    HW113527   1.012   9.580  14.191
37210SOL    HW213528   0.907   9.471  14.184
37211SOL     OW13529   5.963   0.062   7.092
37211SOL    HW113530   5.915   0.134   7.133
37211SOL    HW213531   5.966  14.873   7.158
37212SOL     OW13532   5.291   5.699   0.645
37212SOL    HW113533   5.260   5.789   0.631
37212SOL    HW213534   5.386   5.704   0.632
37213SOL     OW13535   7.769  12.007   2.620
37213SOL    HW113536   7.835  12.027   2.687
37213SOL    HW213537   7.693  11.977   2.669
37214SOL     OW13538   7.056   5.629   3.935
37214SOL    HW113539   7.010   5.682   3.999
37214SOL    HW213540   6.998   5.626   3.859
37215SOL     OW13541   5.910   9.669   0.374
37215SOL    HW113542   5.993   9.710   0.349
37215SOL    HW213543   5.929   9.575   0.375
37216SOL     OW13544   6.786  11.233   4.490
37216SOL    HW113545   6.767  11.240   4.584
37216SOL    HW213546   6.863  11.289   4.477
37217SOL     OW13547  11.421   2.268  12.101
37217SOL    HW113548  11.413   2.221  12.185
37217SOL    HW213549  11.441   2.199  12.037
37218SOL     OW13550  14.674   8.841  13.208
37218SOL    HW113551  14.581   8.837  13.231
37218SOL    HW213552  14.695   8.935  13.209
37219SOL     OW13553  11.197   2.825  14.760
37219SOL    HW113554  11.102   2.838  14.759
37219SOL    HW213555  11.230   2.894  14.817
37220SOL     OW13556   1.212   1.378   8.084
37220SOL    HW113557   1.219   1.284   8.068
37220SOL    HW213558   1.278   1.396   8.151
37221SOL     OW13559   3.407  14.582   6.602
37221SOL    HW113560   3.495  14.603   6.633
37221SOL    HW213561   3.411  14.488   6.581
37222SOL     OW13562   0.501  12.030  14.709
37222SOL    HW113563   0.492  12.021  14.614
37222SOL    HW213564   0.583  11.986  14.729
37223SOL     OW13565   9.729   2.738   7.963
37223SOL    HW113566   9.801   2.775   8.014
37223SOL    HW213567   9.703   2.809   7.904
37224SOL     OW13568   9.461   7.601  13.324
37224SOL    HW113569   9.437   7.519  13.367
37224SOL    HW213570   9.445   7.668  13.389
37225SOL     OW13571   2.095   6.307   5.869
37225SOL    HW113572   2.189   6.327   5.876
37225SOL    HW213573   2.081   6.292   5.776
37226SOL     OW13574   8.101  12.207  11.046
37226SOL    HW113575   8.169  12.268  11.075
37226SOL    HW213576   8.070  12.165  11.126
37227SOL     OW13577   1.980   2.000  12.418
37227SOL    HW113578   2.030   2.045  12.486
37227SOL    HW213579   2.030   1.921  12.399
37228SOL     OW13580   4.452  11.452   2.119
37228SOL    HW113581   4.487  11.387   2.179
37228SOL    HW213582   4.517  11.522   2.119
37229SOL     OW13583  13.684  12.355   1.722
37229SOL    HW113584  13.773  12.388   1.727
37229SOL    HW213585  13.693  12.260   1.722
37230SOL     OW13586  12.418  12.907  13.445
37230SOL    HW113587  12.404  12.838  13.510
37230SOL    HW213588  12.336  12.956  13.443
37231SOL     OW13589   8.512   6.710  10.478
37231SOL    HW113590   8.554   6.726  10.563
37231SOL    HW213591   8.558   6.768  10.418
37232SOL     OW13592  12.189   8.003   7.353
37232SOL    HW113593  12.183   7.950   7.432
37232SOL    HW213594  12.283   8.019   7.342
37233SOL     OW13595  12.222  12.270   8.941
37233SOL    HW113596  12.317  12.277   8.947
37233SOL    HW213597  12.203  12.181   8.972
37234SOL     OW13598   2.583   2.260  13.924
37234SOL    HW113599   2.524   2.185  13.924
37234SOL    HW213600   2.555   2.312  14.000
37235SOL     OW13601   4.046   1.310   5.365
37235SOL    HW113602   3.969   1.298   5.309
37235SOL    HW213603   4.013   1.361   5.439
37236SOL     OW13604  14.850  11.651   2.006
37236SOL    HW113605  14.798  11.729   1.991
37236SOL    HW213606   0.045  11.660   1.946
37237SOL     OW13607   9.368  14.535   2.320
37237SOL    HW113608   9.403  14.595   2.385
37237SOL    HW213609   9.406  14.450   2.343
37238SOL     OW13610   1.191   6.972  12.735
37238SOL    HW113611   1.149   6.900  12.688
37238SOL    HW213612   1.179   7.048  12.677
37239SOL     OW13613   1.574  11.321  14.229
37239SOL    HW113614   1.553  11.270  14.152
37239SOL    HW213615   1.489  11.343  14.268
37240SOL     OW13616   3.174  13.840   6.701
37240SOL    HW113617   3.091  13.794   6.700
37240SOL    HW213618   3.231  13.791   6.642
37241SOL     OW13619  11.676  14.616   3.055
37241SOL    HW113620  11.590  14.655   3.039
37241SOL    HW213621  11.687  14.620   3.150
37242SOL     OW13622   3.543   7.942   4.073
37242SOL    HW113623   3.485   8.016   4.090
37242SOL    HW213624   3.571   7.953   3.982
37243SOL     OW13625  14.358  12.596  14.808
37243SOL    HW113626  14.267  12.570  14.823
37243SOL    HW213627  14.410  12.520  14.836
37244SOL     OW13628   8.369  14.574  14.682
37244SOL    HW113629   8.297  14.579  14.745
37244SOL    HW213630   8.415  14.658  14.690
37245SOL     OW13631  14.066   8.530   0.512
37245SOL    HW113632  13.973   8.511   0.528
37245SOL    HW213633  14.113   8.479   0.577
37246SOL     OW13634   2.979  11.880   2.471
37246SOL    HW113635   3.016  11.945   2.531
37246SOL    HW213636   2.885  11.881   2.491
37247SOL     OW13637   0.165   5.550   7.740
37247SOL    HW113638   0.138   5.582   7.826
37247SOL    HW213639   0.216   5.622   7.702
37248SOL     OW13640  11.910   4.578   1.398
37248SOL    HW113641  11.985   4.531   1.435
37248SOL    HW213642  11.835   4.546   1.448
37249SOL     OW13643  10.172  14.446   1.417
37249SOL    HW113644  10.085  14.480   1.438
37249SOL    HW213645  10.164  14.415   1.327
37250SOL     OW13646   7.540  14.431   8.745
37250SOL    HW113647   7.455  14.469   8.721
37250SOL    HW213648   7.604  14.496   8.715
37251SOL     OW13649   7.473   0.271   2.376
37251SOL    HW113650   7.473   0.296   2.283
37251SOL    HW213651   7.414   0.334   2.418
37252SOL     OW13652   1.434   7.864   9.967
37252SOL    HW113653   1.377   7.938   9.946
37252SOL    HW213654   1.522   7.902   9.969
37253SOL     OW13655   0.264  10.378   8.301
37253SOL    HW113656   0.276  10.287   8.273
37253SOL    HW213657   0.210  10.372   8.380
37254SOL     OW13658   2.749   0.488  13.445
37254SOL    HW113659   2.734   0.437  13.366
37254SOL    HW213660   2.722   0.577  13.421
37255SOL     OW13661   5.508  11.641  12.082
37255SOL    HW113662   5.417  11.670  12.082
37255SOL    HW213663   5.503  11.546  12.074
37256SOL     OW13664   5.562  11.993  12.352
37256SOL    HW113665   5.547  12.032  12.265
37256SOL    HW213666   5.624  11.923  12.336
37257SOL     OW13667   1.084   9.273  14.719
37257SOL    HW113668   1.155   9.285  14.656
37257SOL    HW213669   1.122   9.217  14.787
37258SOL     OW13670  11.737   4.129   9.988
37258SOL    HW113671  11.816   4.168  10.024
37258SOL    HW213672  11.668   4.193  10.006
37259SOL     OW13673   4.127   0.214  10.306
37259SOL    HW113674   4.111   0.143  10.368
37259SOL    HW213675   4.067   0.283  10.333
37260SOL     OW13676  14.371  14.066   8.790
37260SOL    HW113677  14.439  14.048   8.855
37260SOL    HW213678  14.290  14.065   8.840
37261SOL     OW13679  11.255  12.960   8.744
37261SOL    HW113680  11.245  12.879   8.694
37261SOL    HW213681  11.213  12.942   8.828
37262SOL     OW13682   6.459   1.092  13.983
37262SOL    HW113683   6.405   1.021  13.950
37262SOL    HW213684   6.534   1.095  13.923
37263SOL     OW13685  14.452  11.919   6.889
37263SOL    HW113686  14.432  11.911   6.982
37263SOL    HW213687  14.404  11.997   6.861
37264SOL     OW13688   3.395  10.841   7.285
37264SOL    HW113689   3.327  10.804   7.229
37264SOL    HW213690   3.356  10.844   7.372
37265SOL     OW13691   3.717  14.176   8.121
37265SOL    HW113692   3.805  14.139   8.115
37265SOL    HW213693   3.722  14.258   8.073
37266SOL     OW13694   7.244  10.037   2.531
37266SOL    HW113695   7.158  10.058   2.567
37266SOL    HW213696   7.232  10.037   2.436
37267SOL     OW13697   5.668  13.314   5.914
37267SOL    HW113698   5.676  13.336   5.821
37267SOL    HW213699   5.679  13.219   5.917
37268SOL     OW13700  13.168   6.586  12.013
37268SOL    HW113701  13.199   6.638  12.088
37268SOL    HW213702  13.208   6.629  11.937
37269SOL     OW13703  14.051   2.011   7.312
37269SOL    HW113704  14.075   1.933   7.363
37269SOL    HW213705  14.093   2.083   7.357
37270SOL     OW13706   8.940   1.406  14.349
37270SOL    HW113707   9.033   1.409  14.325
37270SOL    HW213708   8.923   1.492  14.388
37271SOL     OW13709  14.791   5.247   0.332
37271SOL    HW113710  14.811   5.198   0.251
37271SOL    HW213711  14.777   5.179   0.398
37272SOL     OW13712   3.416   4.113  13.015
37272SOL    HW113713   3.508   4.093  13.036
37272SOL    HW213714   3.418   4.137  12.922
37273SOL     OW13715   1.976   5.004  10.678
37273SOL    HW113716   1.944   5.037  10.762
37273SOL    HW213717   1.969   5.079  10.618
37274SOL     OW13718   3.053  12.872  12.806
37274SOL    HW113719   3.086  12.786  12.781
37274SOL    HW213720   3.120  12.908  12.864
37275SOL     OW13721   6.763   3.423  13.351
37275SOL    HW113722   6.722   3.339  13.369
37275SOL    HW213723   6.855   3.401  13.335
37276SOL     OW13724  11.094  10.655   5.892
37276SOL    HW113725  11.020  10.632   5.836
37276SOL    HW213726  11.054  10.673   5.977
37277SOL     OW13727  12.904  14.371   0.966
37277SOL    HW113728  12.971  14.304   0.979
37277SOL    HW213729  12.895  14.379   0.871
37278SOL     OW13730  12.032  10.735   7.246
37278SOL    HW113731  11.975  10.710   7.172
37278SOL    HW213732  12.047  10.829   7.234
37279SOL     OW13733  10.436   1.030  11.040
37279SOL    HW113734  10.495   0.991  10.975
37279SOL    HW213735  10.348   1.011  11.005
37280SOL     OW13736   2.059   9.352  11.750
37280SOL    HW113737   1.970   9.385  11.764
37280SOL    HW213738   2.095   9.343  11.838
37281SOL     OW13739   8.375  10.799  13.195
37281SOL    HW113740   8.395  10.797  13.288
37281SOL    HW213741   8.458  10.778  13.152
37282SOL     OW13742   9.789   5.962  11.178
37282SOL    HW113743   9.825   6.016  11.249
37282SOL    HW213744   9.838   5.880  11.185
37283SOL     OW13745  13.627   9.189  13.178
37283SOL    HW113746  13.616   9.252  13.249
37283SOL    HW213747  13.722   9.186  13.163
37284SOL     OW13748   2.292   6.876  14.573
37284SOL    HW113749   2.284   6.832  14.489
37284SOL    HW213750   2.386   6.869  14.594
37285SOL     OW13751   5.376   0.292   7.158
37285SOL    HW113752   5.325   0.233   7.102
37285SOL    HW213753   5.338   0.378   7.141
37286SOL     OW13754  13.580   9.920  13.846
37286SOL    HW113755  13.626   9.840  13.821
37286SOL    HW213756  13.642   9.969  13.899
37287SOL     OW13757   0.591  10.258   8.194
37287SOL    HW113758   0.557  10.220   8.113
37287SOL    HW213759   0.626  10.184   8.243
37288SOL     OW13760   9.465   9.235   6.971
37288SOL    HW113761   9.385   9.275   6.938
37288SOL    HW213762   9.438   9.150   7.006
37289SOL     OW13763   6.709   7.346  12.362
37289SOL    HW113764   6.722   7.345  12.267
37289SOL    HW213765   6.679   7.434  12.382
37290SOL     OW13766  13.990  13.389  13.633
37290SOL    HW113767  13.950  13.377  13.719
37290SOL    HW213768  14.084  13.396  13.651
37291SOL     OW13769   6.868   2.621   0.538
37291SOL    HW113770   6.777   2.647   0.521
37291SOL    HW213771   6.868   2.596   0.630
37292SOL     OW13772   9.106   8.763   1.248
37292SOL    HW113773   9.073   8.827   1.311
37292SOL    HW213774   9.044   8.691   1.251
37293SOL     OW13775   0.414  11.736   0.412
37293SOL    HW113776   0.454  11.777   0.336
37293SOL    HW213777   0.482  11.740   0.479
37294SOL     OW13778   1.417   1.091   9.498
37294SOL    HW113779   1.387   1.174   9.462
37294SOL    HW213780   1.394   1.095   9.591
37295SOL     OW13781   0.016   0.824  13.316
37295SOL    HW113782   0.057   0.868  13.390
37295SOL    HW213783  14.803   0.846  13.324
37296SOL     OW13784   7.247  11.695   2.199
37296SOL    HW113785   7.337  11.702   2.232
37296SOL    HW213786   7.257  11.670   2.107
37297SOL     OW13787   9.873  11.594   9.657
37297SOL    HW113788   9.926  11.637   9.724
37297SOL    HW213789   9.914  11.508   9.647
37298SOL     OW13790  12.971  12.723   7.751
37298SOL    HW113791  12.908  12.658   7.783
37298SOL    HW213792  12.936  12.807   7.780
37299SOL     OW13793   9.221   0.728   4.313
37299SOL    HW113794   9.246   0.802   4.367
37299SOL    HW213795   9.298   0.711   4.258
37300SOL     OW13796   0.142   0.016   8.822
37300SOL    HW113797   0.080   0.043   8.890
37300SOL    HW213798   0.224   0.001   8.869
37301SOL     OW13799  11.661   2.505   0.776
37301SOL    HW113800  11.627   2.531   0.862
37301SOL    HW213801  11.704   2.421   0.792
37302SOL     OW13802  12.920   6.930   8.751
37302SOL    HW113803  12.954   6.916   8.840
37302SOL    HW213804  12.827   6.950   8.765
37303SOL     OW13805   0.312  11.242  14.406
37303SOL    HW113806   0.261  11.233  14.487
37303SOL    HW213807   0.247  11.235  14.336
37304SOL     OW13808  12.437  14.742  12.479
37304SOL    HW113809  12.486  14.822  12.462
37304SOL    HW213810  12.394  14.722  12.395
37305SOL     OW13811   1.154   2.204  11.119
37305SOL    HW113812   1.077   2.256  11.095
37305SOL    HW213813   1.129   2.161  11.201
37306SOL     OW13814   6.439   3.223   1.226
37306SOL    HW113815   6.354   3.247   1.190
37306SOL    HW213816   6.476   3.162   1.162
37307SOL     OW13817   1.041   1.444  12.836
37307SOL    HW113818   0.999   1.399  12.909
37307SOL    HW213819   0.980   1.512  12.810
37308SOL     OW13820  13.908  13.156  12.290
37308SOL    HW113821  13.940  13.246  12.299
37308SOL    HW213822  13.963  13.117  12.222
37309SOL     OW13823   6.101   9.683   3.527
37309SOL    HW113824   6.129   9.772   3.548
37309SOL    HW213825   6.033   9.664   3.591
37310SOL     OW13826  10.386   0.036  14.013
37310SOL    HW113827  10.379  14.822  13.991
37310SOL    HW213828  10.320   0.078  13.957
37311SOL     OW13829   4.476   0.901   9.031
37311SOL    HW113830   4.544   0.956   9.071
37311SOL    HW213831   4.441   0.954   8.960
37312SOL     OW13832   4.205   9.406  11.103
37312SOL    HW113833   4.228   9.350  11.177
37312SOL    HW213834   4.128   9.456  11.133
37313SOL     OW13835   4.325   9.450   4.911
37313SOL    HW113836   4.316   9.357   4.886
37313SOL    HW213837   4.418   9.469   4.900
37314SOL     OW13838  10.680   8.563   4.227
37314SOL    HW113839  10.638   8.490   4.181
37314SOL    HW213840  10.621   8.584   4.299
37315SOL     OW13841   5.400   2.615   9.874
37315SOL    HW113842   5.474   2.606   9.935
37315SOL    HW213843   5.423   2.558   9.800
37316SOL     OW13844  10.554  14.349   7.112
37316SOL    HW113845  10.582  14.409   7.181
37316SOL    HW213846  10.627  14.348   7.050
37317SOL     OW13847   7.498   0.156   0.426
37317SOL    HW113848   7.440   0.228   0.401
37317SOL    HW213849   7.440   0.087   0.456
37318SOL     OW13850  13.136  12.704  11.795
37318SOL    HW113851  13.198  12.775  11.779
37318SOL    HW213852  13.052  12.738  11.765
37319SOL     OW13853   2.564   5.344   9.257
37319SOL    HW113854   2.486   5.389   9.289
37319SOL    HW213855   2.625   5.348   9.331
37320SOL     OW13856  11.083   5.023   1.450
37320SOL    HW113857  11.144   4.963   1.406
37320SOL    HW213858  11.007   4.969   1.470
37321SOL     OW13859   9.816  13.043  14.415
37321SOL    HW113860   9.721  13.036  14.427
37321SOL    HW213861   9.848  12.954  14.432
37322SOL     OW13862   2.840  11.407   6.763
37322SOL    HW113863   2.935  11.392   6.768
37322SOL    HW213864   2.813  11.426   6.852
37323SOL     OW13865   0.383   0.253   1.549
37323SOL    HW113866   0.383   0.258   1.454
37323SOL    HW213867   0.301   0.208   1.571
37324SOL     OW13868  11.373  13.799   1.832
37324SOL    HW113869  11.454  13.794   1.883
37324SOL    HW213870  11.373  13.719   1.779
37325SOL     OW13871  10.554   1.701   7.658
37325SOL    HW113872  10.647   1.724   7.658
37325SOL    HW213873  10.508   1.784   7.673
37326SOL     OW13874  12.223   2.934   0.918
37326SOL    HW113875  12.277   3.014   0.917
37326SOL    HW213876  12.144   2.958   0.871
37327SOL     OW13877   2.913   6.624   9.663
37327SOL    HW113878   2.921   6.560   9.733
37327SOL    HW213879   3.003   6.633   9.629
37328SOL     OW13880   2.156   9.346   4.716
37328SOL    HW113881   2.134   9.278   4.780
37328SOL    HW213882   2.072   9.378   4.685
37329SOL     OW13883   7.338   3.407   8.282
37329SOL    HW113884   7.323   3.443   8.195
37329SOL    HW213885   7.253   3.371   8.308
37330SOL     OW13886  11.584   7.151   2.817
37330SOL    HW113887  11.525   7.118   2.749
37330SOL    HW213888  11.593   7.078   2.879
37331SOL     OW13889   6.643  11.101  11.910
37331SOL    HW113890   6.603  11.030  11.859
37331SOL    HW213891   6.678  11.058  11.988
37332SOL     OW13892   9.556   3.085   9.450
37332SOL    HW113893   9.533   3.050   9.364
37332SOL    HW213894   9.511   3.027   9.512
37333SOL     OW13895  11.996  11.843   7.345
37333SOL    HW113896  11.955  11.765   7.382
37333SOL    HW213897  11.933  11.874   7.279
37334SOL     OW13898   1.484   7.981   4.090
37334SOL    HW113899   1.401   8.012   4.055
37334SOL    HW213900   1.461   7.942   4.175
37335SOL     OW13901   2.679   6.505  11.303
37335SOL    HW113902   2.749   6.489  11.240
37335SOL    HW213903   2.622   6.429  11.296
37336SOL     OW13904   4.171   8.943   4.239
37336SOL    HW113905   4.162   9.038   4.239
37336SOL    HW213906   4.098   8.912   4.294
37337SOL     OW13907   7.766   2.192   8.166
37337SOL    HW113908   7.806   2.243   8.097
37337SOL    HW213909   7.820   2.208   8.243
37338SOL     OW13910  10.007   8.218   9.572
37338SOL    HW113911   9.951   8.289   9.602
37338SOL    HW213912  10.035   8.173   9.652
37339SOL     OW13913   0.692  12.738  11.172
37339SOL    HW113914   0.722  12.804  11.234
37339SOL    HW213915   0.656  12.788  11.099
37340SOL     OW13916   7.609  12.189  12.074
37340SOL    HW113917   7.613  12.161  11.982
37340SOL    HW213918   7.541  12.135  12.113
37341SOL     OW13919   1.579   2.978   5.088
37341SOL    HW113920   1.504   2.952   5.141
37341SOL    HW213921   1.642   2.906   5.100
37342SOL     OW13922   4.769   9.907   8.088
37342SOL    HW113923   4.811   9.984   8.125
37342SOL    HW213924   4.680   9.935   8.067
37343SOL     OW13925  13.935   0.179   1.194
37343SOL    HW113926  13.969   0.268   1.198
37343SOL    HW213927  13.876   0.179   1.118
37344SOL     OW13928  10.033   2.929   7.251
37344SOL    HW113929   9.962   2.991   7.234
37344SOL    HW213930  10.060   2.900   7.163
37345SOL     OW13931  11.407   6.663   1.880
37345SOL    HW113932  11.445   6.751   1.889
37345SOL    HW213933  11.325   6.667   1.930
37346SOL     OW13934   9.773   8.321   3.989
37346SOL    HW113935   9.818   8.359   4.065
37346SOL    HW213936   9.695   8.279   4.026
37347SOL     OW13937  10.461  10.302   3.804
37347SOL    HW113938  10.545  10.277   3.840
37347SOL    HW213939  10.402  10.304   3.879
37348SOL     OW13940  14.588   7.618   3.177
37348SOL    HW113941  14.653   7.559   3.215
37348SOL    HW213942  14.622   7.706   3.195
37349SOL     OW13943  11.621   2.813  14.137
37349SOL    HW113944  11.656   2.730  14.103
37349SOL    HW213945  11.546   2.787  14.190
37350SOL     OW13946  12.278  11.761   4.899
37350SOL    HW113947  12.277  11.857   4.899
37350SOL    HW213948  12.193  11.736   4.935
37351SOL     OW13949   3.101   5.673   4.584
37351SOL    HW113950   3.158   5.600   4.561
37351SOL    HW213951   3.085   5.719   4.502
37352SOL     OW13952   3.565   0.745   0.405
37352SOL    HW113953   3.631   0.699   0.353
37352SOL    HW213954   3.502   0.677   0.429
37353SOL     OW13955  11.459   0.789  12.543
37353SOL    HW113956  11.463   0.698  12.570
37353SOL    HW213957  11.527   0.798  12.477
37354SOL     OW13958  11.415   0.326  13.260
37354SOL    HW113959  11.479   0.255  13.261
37354SOL    HW213960  11.467   0.404  13.243
37355SOL     OW13961   6.442   0.368   9.572
37355SOL    HW113962   6.393   0.303   9.522
37355SOL    HW213963   6.385   0.445   9.573
37356SOL     OW13964  12.267  14.827   3.386
37356SOL    HW113965  12.209   0.022   3.400
37356SOL    HW213966  12.210  14.751   3.397
37357SOL     OW13967   6.204   5.979  11.444
37357SOL    HW113968   6.219   6.029  11.524
37357SOL    HW213969   6.291   5.961  11.410
37358SOL     OW13970  13.781  10.423   7.200
37358SOL    HW113971  13.845  10.472   7.148
37358SOL    HW213972  13.697  10.446   7.163
37359SOL     OW13973   4.793  14.384   5.691
37359SOL    HW113974   4.853  14.376   5.617
37359SOL    HW213975   4.848  14.368   5.768
37360SOL     OW13976   6.170  12.928   5.193
37360SOL    HW113977   6.093  12.967   5.153
37360SOL    HW213978   6.156  12.937   5.288
37361SOL     OW13979  10.466  10.516   2.517
37361SOL    HW113980  10.423  10.441   2.476
37361SOL    HW213981  10.493  10.572   2.444
37362SOL     OW13982   3.114  11.687   3.930
37362SOL    HW113983   3.133  11.640   4.011
37362SOL    HW213984   3.021  11.709   3.937
37363SOL     OW13985   6.786   9.193   1.680
37363SOL    HW113986   6.786   9.129   1.752
37363SOL    HW213987   6.878   9.216   1.668
37364SOL     OW13988   4.757   7.792  13.017
37364SOL    HW113989   4.759   7.700  13.041
37364SOL    HW213990   4.674   7.802  12.969
37365SOL     OW13991  14.464  13.635   2.938
37365SOL    HW113992  14.535  13.639   3.003
37365SOL    HW213993  14.504  13.594   2.862
37366SOL     OW13994   9.953  12.198   9.750
37366SOL    HW113995  10.021  12.142   9.712
37366SOL    HW213996   9.949  12.172   9.842
37367SOL     OW13997   9.288   3.011   4.112
37367SOL    HW113998   9.264   3.083   4.054
37367SOL    HW213999   9.214   2.950   4.106
37368SOL     OW14000   1.088   0.211   2.289
37368SOL    HW114001   1.021   0.181   2.228
37368SOL    HW214002   1.044   0.215   2.374
37369SOL     OW14003  14.630   8.019   2.964
37369SOL    HW114004  14.538   8.047   2.965
37369SOL    HW214005  14.676   8.089   2.918
37370SOL     OW14006   1.383   4.978   8.270
37370SOL    HW114007   1.468   4.936   8.254
37370SOL    HW214008   1.405   5.069   8.291
37371SOL     OW14009   1.634  11.499   5.623
37371SOL    HW114010   1.610  11.412   5.591
37371SOL    HW214011   1.618  11.494   5.718
37372SOL     OW14012   5.451   5.303   2.976
37372SOL    HW114013   5.358   5.280   2.972
37372SOL    HW214014   5.490   5.237   3.034
37373SOL     OW14015   0.701  13.178  10.238
37373SOL    HW114016   0.632  13.144  10.295
37373SOL    HW214017   0.779  13.181  10.294
37374SOL     OW14018   0.110   2.872   1.676
37374SOL    HW114019   0.158   2.824   1.743
37374SOL    HW214020   0.092   2.808   1.607
37375SOL     OW14021  14.529   9.391  13.330
37375SOL    HW114022  14.476   9.460  13.371
37375SOL    HW214023  14.537   9.418  13.239
37376SOL     OW14024   0.518   1.357  14.818
37376SOL    HW114025   0.547   1.438  14.776
37376SOL    HW214026   0.596   1.300  14.817
37377SOL     OW14027   5.077   8.411   2.427
37377SOL    HW114028   5.034   8.420   2.512
37377SOL    HW214029   5.024   8.347   2.379
37378SOL     OW14030  12.961  12.243  11.395
37378SOL    HW114031  12.985  12.160  11.437
37378SOL    HW214032  12.936  12.300  11.467
37379SOL     OW14033   8.308   3.696   6.910
37379SOL    HW114034   8.251   3.744   6.970
37379SOL    HW214035   8.394   3.702   6.949
37380SOL     OW14036   1.277   1.604   2.959
37380SOL    HW114037   1.197   1.551   2.956
37380SOL    HW214038   1.338   1.559   2.900
37381SOL     OW14039  10.837   0.019   2.779
37381SOL    HW114040  10.755  14.875   2.822
37381SOL    HW214041  10.851   0.111   2.804
37382SOL     OW14042   7.896  13.072   2.561
37382SOL    HW114043   7.984  13.086   2.595
37382SOL    HW214044   7.870  13.157   2.526
37383SOL     OW14045   2.021  10.558  14.219
37383SOL    HW114046   1.988  10.487  14.273
37383SOL    HW214047   1.952  10.572  14.154
37384SOL     OW14048   3.843  13.183   7.830
37384SOL    HW114049   3.800  13.098   7.824
37384SOL    HW214050   3.854  13.210   7.738
37385SOL     OW14051  11.018   6.888   0.814
37385SOL    HW114052  11.080   6.857   0.881
37385SOL    HW214053  11.039   6.835   0.737
37386SOL     OW14054   4.352   5.733   4.922
37386SOL    HW114055   4.329   5.811   4.972
37386SOL    HW214056   4.352   5.662   4.987
37387SOL     OW14057   2.427   5.063  10.133
37387SOL    HW114058   2.433   4.976  10.094
37387SOL    HW214059   2.470   5.054  10.218
37388SOL     OW14060   7.235  11.806  14.561
37388SOL    HW114061   7.272  11.734  14.612
37388SOL    HW214062   7.310  11.858  14.535
37389SOL     OW14063   3.926   2.105   0.479
37389SOL    HW114064   3.979   2.025   0.483
37389SOL    HW214065   3.858   2.093   0.545
37390SOL     OW14066   7.695   3.345   3.191
37390SOL    HW114067   7.699   3.423   3.135
37390SOL    HW214068   7.737   3.276   3.140
37391SOL     OW14069   2.956   7.851   2.620
37391SOL    HW114070   2.928   7.783   2.681
37391SOL    HW214071   2.916   7.931   2.654
37392SOL     OW14072   5.635   8.553   0.784
37392SOL    HW114073   5.717   8.603   0.778
37392SOL    HW214074   5.655   8.481   0.843
37393SOL     OW14075   7.905   6.794   8.842
37393SOL    HW114076   7.981   6.810   8.786
37393SOL    HW214077   7.942   6.776   8.928
37394SOL     OW14078   8.500   7.338  12.602
37394SOL    HW114079   8.481   7.246  12.615
37394SOL    HW214080   8.486   7.378  12.688
37395SOL     OW14081   1.558   7.058   3.648
37395SOL    HW114082   1.487   7.095   3.594
37395SOL    HW214083   1.630   7.121   3.640
37396SOL     OW14084   6.548   1.952  11.131
37396SOL    HW114085   6.637   1.931  11.158
37396SOL    HW214086   6.558   1.996  11.046
37397SOL     OW14087  10.058   2.052  13.340
37397SOL    HW114088  10.130   2.014  13.289
37397SOL    HW214089  10.030   2.128  13.289
37398SOL     OW14090   2.230   2.673   3.617
37398SOL    HW114091   2.324   2.657   3.627
37398SOL    HW214092   2.216   2.761   3.653
37399SOL     OW14093   0.289   6.170   5.871
37399SOL    HW114094   0.353   6.146   5.938
37399SOL    HW214095   0.206   6.174   5.917
37400SOL     OW14096  12.762  10.951   3.596
37400SOL    HW114097  12.833  10.894   3.624
37400SOL    HW214098  12.702  10.893   3.550
37401SOL     OW14099   3.976   3.317   2.781
37401SOL    HW114100   3.929   3.246   2.737
37401SOL    HW214101   4.052   3.333   2.724
37402SOL     OW14102   9.813  14.514   5.422
37402SOL    HW114103   9.856  14.571   5.357
37402SOL    HW214104   9.792  14.435   5.373
37403SOL     OW14105   0.922  10.121   5.587
37403SOL    HW114106   0.956  10.036   5.560
37403SOL    HW214107   0.876  10.103   5.669
37404SOL     OW14108  13.485  14.355   2.280
37404SOL    HW114109  13.556  14.345   2.343
37404SOL    HW214110  13.527  14.383   2.199
37405SOL     OW14111   8.998   6.034   5.339
37405SOL    HW114112   8.911   6.040   5.378
37405SOL    HW214113   9.037   6.120   5.353
37406SOL     OW14114   1.275   6.709   5.317
37406SOL    HW114115   1.201   6.680   5.265
37406SOL    HW214116   1.244   6.788   5.362
37407SOL     OW14117   3.164   7.991  12.434
37407SOL    HW114118   3.208   8.075  12.418
37407SOL    HW214119   3.099   8.010  12.501
37408SOL     OW14120   6.265   8.983  13.901
37408SOL    HW114121   6.218   9.046  13.846
37408SOL    HW214122   6.220   8.988  13.986
37409SOL     OW14123   5.944   6.345  10.717
37409SOL    HW114124   6.034   6.367  10.691
37409SOL    HW214125   5.937   6.251  10.701
37410SOL     OW14126  11.237   7.203  14.639
37410SOL    HW114127  11.156   7.242  14.671
37410SOL    HW214128  11.306   7.257  14.678
37411SOL     OW14129   7.848   0.186   7.661
37411SOL    HW114130   7.915   0.220   7.602
37411SOL    HW214131   7.791   0.134   7.606
37412SOL     OW14132   2.832  11.009   2.459
37412SOL    HW114133   2.872  11.022   2.372
37412SOL    HW214134   2.740  11.032   2.446
37413SOL     OW14135  10.439   8.077   3.016
37413SOL    HW114136  10.395   8.039   3.092
37413SOL    HW214137  10.432   8.171   3.028
37414SOL     OW14138   8.113   3.504   6.832
37414SOL    HW114139   8.144   3.418   6.862
37414SOL    HW214140   8.190   3.561   6.838
37415SOL     OW14141   2.249   4.161  13.159
37415SOL    HW114142   2.156   4.137  13.155
37415SOL    HW214143   2.252   4.248  13.120
37416SOL     OW14144   5.260   1.145   8.727
37416SOL    HW114145   5.213   1.164   8.808
37416SOL    HW214146   5.349   1.122   8.756
37417SOL     OW14147   3.338  14.205   6.040
37417SOL    HW114148   3.367  14.294   6.063
37417SOL    HW214149   3.280  14.180   6.112
37418SOL     OW14150   6.527   0.732  13.254
37418SOL    HW114151   6.495   0.730  13.344
37418SOL    HW214152   6.623   0.727  13.263
37419SOL     OW14153   9.869   6.164   8.854
37419SOL    HW114154   9.876   6.153   8.759
37419SOL    HW214155   9.876   6.075   8.889
37420SOL     OW14156  14.435   6.788   0.429
37420SOL    HW114157  14.449   6.694   0.443
37420SOL    HW214158  14.404   6.821   0.513
37421SOL     OW14159   6.511  13.105  11.289
37421SOL    HW114160   6.524  13.154  11.370
37421SOL    HW214161   6.548  13.019  11.307
37422SOL     OW14162   1.710   1.686  12.663
37422SOL    HW114163   1.629   1.683  12.613
37422SOL    HW214164   1.738   1.595  12.670
37423SOL     OW14165   9.666   1.896  11.219
37423SOL    HW114166   9.659   1.991  11.210
37423SOL    HW214167   9.602   1.873  11.287
37424SOL     OW14168   6.507   4.400  12.234
37424SOL    HW114169   6.434   4.417  12.175
37424SOL    HW214170   6.515   4.480  12.286
37425SOL     OW14171  10.909  11.464   1.527
37425SOL    HW114172  10.911  11.429   1.438
37425SOL    HW214173  10.817  11.458   1.553
37426SOL     OW14174   4.701   6.056   3.939
37426SOL    HW114175   4.650   5.987   3.897
37426SOL    HW214176   4.791   6.037   3.915
37427SOL     OW14177   6.740   4.308   4.540
37427SOL    HW114178   6.697   4.257   4.471
37427SOL    HW214179   6.822   4.262   4.556
37428SOL     OW14180   6.861  11.919   9.783
37428SOL    HW114181   6.806  11.932   9.861
37428SOL    HW214182   6.830  11.986   9.722
37429SOL     OW14183   0.215   3.184  12.160
37429SOL    HW114184   0.305   3.205  12.184
37429SOL    HW214185   0.182   3.132  12.233
37430SOL     OW14186   6.059   7.078  10.591
37430SOL    HW114187   6.093   6.996  10.554
37430SOL    HW214188   6.137   7.123  10.624
37431SOL     OW14189   8.122  12.944   9.412
37431SOL    HW114190   8.107  12.921   9.320
37431SOL    HW214191   8.217  12.938   9.423
37432SOL     OW14192  11.353   7.971   0.126
37432SOL    HW114193  11.385   7.965   0.036
37432SOL    HW214194  11.261   7.996   0.117
37433SOL     OW14195   0.591   2.238  12.267
37433SOL    HW114196   0.521   2.187  12.308
37433SOL    HW214197   0.583   2.220  12.174
37434SOL     OW14198   7.303   2.909   7.220
37434SOL    HW114199   7.321   2.899   7.314
37434SOL    HW214200   7.309   3.003   7.204
37435SOL     OW14201   4.013   9.580   6.745
37435SOL    HW114202   4.013   9.671   6.714
37435SOL    HW214203   4.097   9.570   6.790
37436SOL     OW14204   2.517   5.319   5.688
37436SOL    HW114205   2.465   5.395   5.661
37436SOL    HW214206   2.454   5.261   5.732
37437SOL     OW14207   0.414   5.527  10.523
37437SOL    HW114208   0.397   5.486  10.608
37437SOL    HW214209   0.344   5.591  10.513
37438SOL     OW14210   9.399   9.924   8.548
37438SOL    HW114211   9.486   9.960   8.533
37438SOL    HW214212   9.343   9.969   8.484
37439SOL     OW14213   2.819   2.734   0.312
37439SOL    HW114214   2.725   2.715   0.317
37439SOL    HW214215   2.857   2.656   0.272
37440SOL     OW14216   3.642   7.719   1.312
37440SOL    HW114217   3.594   7.648   1.268
37440SOL    HW214218   3.597   7.799   1.285
37441SOL     OW14219   6.676  11.792   8.411
37441SOL    HW114220   6.722  11.849   8.472
37441SOL    HW214221   6.729  11.795   8.331
37442SOL     OW14222   9.924  12.930   4.590
37442SOL    HW114223   9.965  12.849   4.561
37442SOL    HW214224   9.924  12.986   4.512
37443SOL     OW14225  12.443   2.954   8.214
37443SOL    HW114226  12.513   2.985   8.272
37443SOL    HW214227  12.412   3.033   8.170
37444SOL     OW14228   4.369   1.941   7.124
37444SOL    HW114229   4.422   1.876   7.170
37444SOL    HW214230   4.422   1.966   7.048
37445SOL     OW14231   7.914  13.344  11.508
37445SOL    HW114232   7.991  13.313  11.460
37445SOL    HW214233   7.951  13.392  11.583
37446SOL     OW14234   8.673  14.048   1.584
37446SOL    HW114235   8.599  14.087   1.631
37446SOL    HW214236   8.745  14.051   1.646
37447SOL     OW14237   5.239   8.692   7.133
37447SOL    HW114238   5.316   8.733   7.172
37447SOL    HW214239   5.240   8.602   7.167
37448SOL     OW14240   7.128  11.831   0.411
37448SOL    HW114241   7.078  11.887   0.470
37448SOL    HW214242   7.068  11.762   0.386
37449SOL     OW14243  10.632   0.378  10.725
37449SOL    HW114244  10.718   0.343  10.750
37449SOL    HW214245  10.652   0.457  10.675
37450SOL     OW14246  10.847   4.691   2.585
37450SOL    HW114247  10.861   4.626   2.515
37450SOL    HW214248  10.808   4.766   2.541
37451SOL     OW14249   9.456  12.474   8.864
37451SOL    HW114250   9.483  12.383   8.850
37451SOL    HW214251   9.481  12.493   8.955
37452SOL     OW14252   8.076  11.153   2.684
37452SOL    HW114253   8.144  11.177   2.622
37452SOL    HW214254   7.995  11.150   2.632
37453SOL     OW14255  14.703  13.310   4.998
37453SOL    HW114256  14.746  13.333   5.081
37453SOL    HW214257  14.707  13.390   4.946
37454SOL     OW14258  11.818  10.755   9.388
37454SOL    HW114259  11.789  10.834   9.434
37454SOL    HW214260  11.741  10.724   9.341
37455SOL     OW14261   3.209  12.623   9.974
37455SOL    HW114262   3.184  12.707  10.013
37455SOL    HW214263   3.287  12.597  10.023
37456SOL     OW14264  11.447   3.845   0.030
37456SOL    HW114265  11.361   3.882   0.012
37456SOL    HW214266  11.478   3.812  14.825
37457SOL     OW14267   4.327  11.925   0.942
37457SOL    HW114268   4.394  11.992   0.932
37457SOL    HW214269   4.251  11.973   0.975
37458SOL     OW14270   7.986   4.244   8.738
37458SOL    HW114271   7.967   4.306   8.668
37458SOL    HW214272   8.031   4.172   8.695
37459SOL     OW14273  10.310  13.731   3.417
37459SOL    HW114274  10.361  13.779   3.482
37459SOL    HW214275  10.345  13.641   3.420
37460SOL     OW14276  12.923  14.033  10.201
37460SOL    HW114277  12.998  14.092  10.191
37460SOL    HW214278  12.961  13.946  10.199
37461SOL     OW14279   8.049  10.023  11.351
37461SOL    HW114280   8.074   9.944  11.302
37461SOL    HW214281   8.042   9.993  11.442
37462SOL     OW14282  14.789  11.663  12.970
37462SOL    HW114283  14.727  11.736  12.964
37462SOL    HW214284  14.804  11.637  12.879
37463SOL     OW14285   9.408   9.545   3.739
37463SOL    HW114286   9.433   9.453   3.729
37463SOL    HW214287   9.410   9.561   3.833
37464SOL     OW14288   2.324  10.067   6.028
37464SOL    HW114289   2.401  10.089   5.976
37464SOL    HW214290   2.276  10.004   5.975
37465SOL     OW14291  13.229   9.739   2.826
37465SOL    HW114292  13.169   9.666   2.840
37465SOL    HW214293  13.309   9.697   2.793
37466SOL     OW14294  10.219  14.445   3.422
37466SOL    HW114295  10.229  14.371   3.361
37466SOL    HW214296  10.153  14.501   3.381
37467SOL     OW14297  10.434   5.913  10.196
37467SOL    HW114298  10.462   5.884  10.109
37467SOL    HW214299  10.436   5.834  10.249
37468SOL     OW14300   6.175   9.098   0.052
37468SOL    HW114301   6.197   9.134   0.138
37468SOL    HW214302   6.134   9.171   0.005
37469SOL     OW14303   2.479  13.579   1.585
37469SOL    HW114304   2.488  13.486   1.609
37469SOL    HW214305   2.527  13.626   1.653
37470SOL     OW14306   6.127  11.634   8.034
37470SOL    HW114307   6.155  11.678   7.954
37470SOL    HW214308   6.033  11.620   8.022
37471SOL     OW14309   4.914  12.167   5.987
37471SOL    HW114310   4.906  12.262   5.992
37471SOL    HW214311   4.998  12.152   5.944
37472SOL     OW14312   0.579   9.475   2.712
37472SOL    HW114313   0.620   9.432   2.638
37472SOL    HW214314   0.489   9.442   2.713
37473SOL     OW14315   2.516  10.849   4.845
37473SOL    HW114316   2.598  10.867   4.799
37473SOL    HW214317   2.531  10.881   4.934
37474SOL     OW14318   4.573   1.376  14.476
37474SOL    HW114319   4.502   1.374  14.539
37474SOL    HW214320   4.532   1.405  14.394
37475SOL     OW14321   5.167   0.484   7.262
37475SOL    HW114322   5.087   0.535   7.275
37475SOL    HW214323   5.146   0.397   7.293
37476SOL     OW14324   6.304   4.061  14.785
37476SOL    HW114325   6.308   4.105  14.870
37476SOL    HW214326   6.275   3.972  14.806
37477SOL     OW14327  12.613   7.355  11.431
37477SOL    HW114328  12.654   7.381  11.513
37477SOL    HW214329  12.684   7.359  11.367
37478SOL     OW14330   5.113   1.492  13.435
37478SOL    HW114331   5.175   1.486  13.508
37478SOL    HW214332   5.155   1.554  13.374
37479SOL     OW14333  11.796   1.622   8.806
37479SOL    HW114334  11.821   1.537   8.841
37479SOL    HW214335  11.879   1.669   8.794
37480SOL     OW14336   9.079  10.785   3.067
37480SOL    HW114337   9.059  10.840   2.991
37480SOL    HW214338   9.173  10.773   3.065
37481SOL     OW14339  10.876  11.334  11.103
37481SOL    HW114340  10.786  11.326  11.070
37481SOL    HW214341  10.929  11.351  11.026
37482SOL     OW14342   8.750   4.948   7.704
37482SOL    HW114343   8.834   4.918   7.737
37482SOL    HW214344   8.759   5.043   7.699
37483SOL     OW14345   4.310   2.670   5.801
37483SOL    HW114346   4.264   2.702   5.723
37483SOL    HW214347   4.358   2.593   5.771
37484SOL     OW14348  12.057  10.396   7.532
37484SOL    HW114349  11.978  10.426   7.486
37484SOL    HW214350  12.026  10.363   7.616
37485SOL     OW14351   9.800  12.835  14.651
37485SOL    HW114352   9.822  12.754  14.697
37485SOL    HW214353   9.878  12.889  14.658
37486SOL     OW14354   7.083   4.859  13.164
37486SOL    HW114355   7.108   4.949  13.143
37486SOL    HW214356   7.164   4.818  13.195
37487SOL     OW14357   7.873   8.367   8.987
37487SOL    HW114358   7.915   8.452   9.000
37487SOL    HW214359   7.830   8.373   8.902
37488SOL     OW14360  13.132  13.309   5.541
37488SOL    HW114361  13.047  13.332   5.501
37488SOL    HW214362  13.184  13.388   5.533
37489SOL     OW14363   0.045  12.708   4.158
37489SOL    HW114364   0.010  12.796   4.168
37489SOL    HW214365   0.106  12.714   4.084
37490SOL     OW14366   0.597   1.202  11.495
37490SOL    HW114367   0.660   1.131  11.481
37490SOL    HW214368   0.537   1.196  11.421
37491SOL     OW14369   1.068  10.854   4.118
37491SOL    HW114370   1.004  10.906   4.068
37491SOL    HW214371   1.152  10.897   4.101
37492SOL     OW14372   6.599   2.162   5.595
37492SOL    HW114373   6.565   2.084   5.551
37492SOL    HW214374   6.580   2.148   5.687
37493SOL     OW14375  14.864   9.428   6.855
37493SOL    HW114376  14.869   9.520   6.882
37493SOL    HW214377  14.849   9.380   6.937
37494SOL     OW14378   0.096  12.369   1.345
37494SOL    HW114379   0.047  12.359   1.427
37494SOL    HW214380   0.165  12.302   1.351
37495SOL     OW14381  13.779   9.148   2.784
37495SOL    HW114382  13.743   9.227   2.744
37495SOL    HW214383  13.871   9.169   2.798
37496SOL     OW14384   9.752   3.821   4.750
37496SOL    HW114385   9.661   3.838   4.725
37496SOL    HW214386   9.785   3.906   4.779
37497SOL     OW14387   7.756   1.647   4.536
37497SOL    HW114388   7.829   1.695   4.575
37497SOL    HW214389   7.725   1.704   4.466
37498SOL     OW14390  13.102  11.438   5.432
37498SOL    HW114391  13.179  11.399   5.390
37498SOL    HW214392  13.100  11.400   5.520
37499SOL     OW14393   3.367   3.598   1.391
37499SOL    HW114394   3.335   3.569   1.306
37499SOL    HW214395   3.457   3.625   1.376
37500SOL     OW14396   5.095  12.105   7.183
37500SOL    HW114397   5.009  12.111   7.142
37500SOL    HW214398   5.155  12.142   7.119
37501SOL     OW14399   8.620   8.263   6.533
37501SOL    HW114400   8.664   8.190   6.578
37501SOL    HW214401   8.594   8.322   6.603
37502SOL     OW14402   1.225  12.913   1.866
37502SOL    HW114403   1.271  12.992   1.837
37502SOL    HW214404   1.289  12.842   1.855
37503SOL     OW14405  13.311   3.810  14.280
37503SOL    HW114406  13.293   3.721  14.312
37503SOL    HW214407  13.391   3.836  14.325
37504SOL     OW14408   7.443   7.060   1.618
37504SOL    HW114409   7.369   7.120   1.628
37504SOL    HW214410   7.419   7.004   1.544
37505SOL     OW14411   8.969  12.097   5.798
37505SOL    HW114412   8.944  12.088   5.890
37505SOL    HW214413   9.037  12.032   5.784
37506SOL     OW14414   4.715   2.649  12.546
37506SOL    HW114415   4.738   2.727  12.494
37506SOL    HW214416   4.619   2.644  12.540
37507SOL     OW14417  11.638   4.574   8.415
37507SOL    HW114418  11.690   4.550   8.338
37507SOL    HW214419  11.686   4.537   8.489
37508SOL     OW14420   2.732   5.044   7.439
37508SOL    HW114421   2.703   4.956   7.413
37508SOL    HW214422   2.775   5.030   7.524
37509SOL     OW14423   8.561   2.417  12.284
37509SOL    HW114424   8.636   2.454  12.239
37509SOL    HW214425   8.485   2.462  12.247
37510SOL     OW14426  14.245   6.932   4.686
37510SOL    HW114427  14.174   6.941   4.749
37510SOL    HW214428  14.211   6.871   4.621
37511SOL     OW14429   0.254   2.276   1.867
37511SOL    HW114430   0.162   2.255   1.850
37511SOL    HW214431   0.275   2.345   1.804
37512SOL     OW14432   1.394   6.347  10.455
37512SOL    HW114433   1.373   6.369  10.364
37512SOL    HW214434   1.418   6.255  10.453
37513SOL     OW14435   0.588   8.751   1.290
37513SOL    HW114436   0.576   8.822   1.353
37513SOL    HW214437   0.641   8.686   1.337
37514SOL     OW14438   9.996   3.211  14.613
37514SOL    HW114439   9.956   3.145  14.557
37514SOL    HW214440   9.995   3.291  14.561
37515SOL     OW14441   3.464   5.455  11.063
37515SOL    HW114442   3.389   5.504  11.028
37515SOL    HW214443   3.528   5.456  10.992
37516SOL     OW14444   8.968   7.654  10.415
37516SOL    HW114445   8.941   7.655  10.507
37516SOL    HW214446   9.014   7.571  10.405
37517SOL     OW14447   6.958  10.285   1.703
37517SOL    HW114448   6.974  10.378   1.689
37517SOL    HW214449   6.934  10.278   1.796
37518SOL     OW14450  10.909   7.588   0.711
37518SOL    HW114451  10.892   7.495   0.696
37518SOL    HW214452  10.944   7.592   0.800
37519SOL     OW14453   3.748   4.426  10.542
37519SOL    HW114454   3.764   4.506  10.592
37519SOL    HW214455   3.803   4.435  10.464
37520SOL     OW14456  13.395   5.164  11.470
37520SOL    HW114457  13.422   5.148  11.379
37520SOL    HW214458  13.357   5.251  11.469
37521SOL     OW14459   1.515   8.423  13.510
37521SOL    HW114460   1.421   8.424  13.525
37521SOL    HW214461   1.544   8.337  13.542
37522SOL     OW14462   4.316   8.697  14.494
37522SOL    HW114463   4.349   8.764  14.554
37522SOL    HW214464   4.336   8.730  14.407
37523SOL     OW14465   3.503   7.420  11.645
37523SOL    HW114466   3.525   7.340  11.693
37523SOL    HW214467   3.582   7.440  11.594
37524SOL     OW14468   6.553   0.252   5.667
37524SOL    HW114469   6.619   0.213   5.725
37524SOL    HW214470   6.602   0.317   5.616
37525SOL     OW14471   2.765  14.762   6.307
37525SOL    HW114472   2.736  14.854   6.310
37525SOL    HW214473   2.688  14.715   6.274
37526SOL     OW14474  11.213  12.827  14.601
37526SOL    HW114475  11.255  12.794  14.680
37526SOL    HW214476  11.157  12.755  14.571
37527SOL     OW14477   5.061   8.975   5.585
37527SOL    HW114478   5.070   8.897   5.641
37527SOL    HW214479   5.115   8.955   5.508
37528SOL     OW14480  11.985   0.207   8.089
37528SOL    HW114481  12.045   0.225   8.162
37528SOL    HW214482  11.973   0.112   8.090
37529SOL     OW14483  12.516  13.706  14.084
37529SOL    HW114484  12.491  13.615  14.068
37529SOL    HW214485  12.561  13.734  14.005
37530SOL     OW14486  12.700   5.910   3.380
37530SOL    HW114487  12.746   5.994   3.380
37530SOL    HW214488  12.613   5.931   3.416
37531SOL     OW14489   9.278   2.989   0.787
37531SOL    HW114490   9.309   2.956   0.872
37531SOL    HW214491   9.183   2.996   0.797
37532SOL     OW14492   0.474   8.019  12.007
37532SOL    HW114493   0.420   7.940  12.016
37532SOL    HW214494   0.456   8.070  12.086
37533SOL     OW14495   6.325   0.256  13.980
37533SOL    HW114496   6.345   0.200  13.905
37533SOL    HW214497   6.295   0.339  13.941
37534SOL     OW14498   4.955  12.867   5.831
37534SOL    HW114499   4.933  12.781   5.794
37534SOL    HW214500   5.031  12.850   5.887
37535SOL     OW14501   7.954   5.284   4.067
37535SOL    HW114502   7.949   5.216   3.999
37535SOL    HW214503   7.875   5.271   4.120
37536SOL     OW14504  13.691   1.639   9.741
37536SOL    HW114505  13.780   1.671   9.726
37536SOL    HW214506  13.691   1.607   9.831
37537SOL     OW14507   6.457   2.734   8.408
37537SOL    HW114508   6.477   2.665   8.344
37537SOL    HW214509   6.494   2.813   8.370
37538SOL     OW14510  13.043   7.960  14.817
37538SOL    HW114511  13.047   7.901  14.741
37538SOL    HW214512  13.067   7.904   0.012
37539SOL     OW14513  13.048   3.110  11.568
37539SOL    HW114514  13.119   3.164  11.603
37539SOL    HW214515  13.004   3.167  11.506
37540SOL     OW14516   1.641   9.729   3.143
37540SOL    HW114517   1.624   9.641   3.177
37540SOL    HW214518   1.686   9.715   3.060
37541SOL     OW14519   8.794   2.454   8.096
37541SOL    HW114520   8.810   2.368   8.135
37541SOL    HW214521   8.721   2.490   8.147
37542SOL     OW14522   1.498   3.277   1.026
37542SOL    HW114523   1.463   3.213   1.088
37542SOL    HW214524   1.443   3.268   0.948
37543SOL     OW14525   9.206   5.595   5.938
37543SOL    HW114526   9.274   5.661   5.927
37543SOL    HW214527   9.133   5.642   5.978
37544SOL     OW14528   2.967   5.229   6.611
37544SOL    HW114529   3.017   5.301   6.650
37544SOL    HW214530   2.876   5.253   6.623
37545SOL     OW14531   1.212   3.639   3.644
37545SOL    HW114532   1.281   3.672   3.702
37545SOL    HW214533   1.168   3.718   3.612
37546SOL     OW14534  13.175   5.103   7.716
37546SOL    HW114535  13.083   5.082   7.706
37546SOL    HW214536  13.221   5.023   7.693
37547SOL     OW14537   9.090  11.056  13.644
37547SOL    HW114538   9.028  10.983  13.644
37547SOL    HW214539   9.166  11.024  13.597
37548SOL     OW14540   9.021  14.368  13.464
37548SOL    HW114541   8.927  14.364  13.480
37548SOL    HW214542   9.045  14.280  13.436
37549SOL     OW14543   7.138   3.281   0.284
37549SOL    HW114544   7.174   3.368   0.266
37549SOL    HW214545   7.087   3.259   0.206
37550SOL     OW14546   4.506   0.892  10.289
37550SOL    HW114547   4.597   0.897  10.260
37550SOL    HW214548   4.493   0.800  10.310
37551SOL     OW14549  12.519  10.415  12.202
37551SOL    HW114550  12.568  10.396  12.122
37551SOL    HW214551  12.447  10.351  12.202
37552SOL     OW14552   9.008   9.902  12.695
37552SOL    HW114553   8.928   9.954  12.701
37552SOL    HW214554   9.054   9.920  12.777
37553SOL     OW14555   4.470   8.635   5.004
37553SOL    HW114556   4.494   8.662   5.092
37553SOL    HW214557   4.541   8.578   4.976
37554SOL     OW14558   1.699   9.687   8.785
37554SOL    HW114559   1.626   9.707   8.844
37554SOL    HW214560   1.728   9.600   8.812
37555SOL     OW14561   6.040   9.516   8.877
37555SOL    HW114562   6.096   9.541   8.950
37555SOL    HW214563   6.032   9.421   8.884
37556SOL     OW14564   1.030   3.333   7.907
37556SOL    HW114565   0.999   3.422   7.892
37556SOL    HW214566   1.030   3.323   8.002
37557SOL     OW14567   4.441  13.651  14.848
37557SOL    HW114568   4.494  13.722  14.812
37557SOL    HW214569   4.351  13.679  14.834
37558SOL     OW14570   2.044   0.005   8.402
37558SOL    HW114571   2.037   0.005   8.306
37558SOL    HW214572   2.138  14.874   8.419
37559SOL     OW14573   3.429   8.968   8.309
37559SOL    HW114574   3.472   8.965   8.394
37559SOL    HW214575   3.346   9.012   8.325
37560SOL     OW14576   6.468   2.928   2.539
37560SOL    HW114577   6.409   3.002   2.552
37560SOL    HW214578   6.551   2.957   2.575
37561SOL     OW14579  11.120  14.842   1.073
37561SOL    HW114580  11.182  14.810   1.139
37561SOL    HW214581  11.157  14.812   0.990
37562SOL     OW14582   4.741   3.715  14.782
37562SOL    HW114583   4.818   3.773  14.789
37562SOL    HW214584   4.774   3.629  14.808
37563SOL     OW14585   1.274   2.312   2.017
37563SOL    HW114586   1.356   2.323   2.064
37563SOL    HW214587   1.237   2.230   2.051
37564SOL     OW14588   1.858  10.645   1.144
37564SOL    HW114589   1.907  10.621   1.223
37564SOL    HW214590   1.768  10.656   1.175
37565SOL     OW14591   6.145   3.946  12.729
37565SOL    HW114592   6.214   3.884  12.704
37565SOL    HW214593   6.089   3.952  12.652
37566SOL     OW14594  14.060  11.864   8.963
37566SOL    HW114595  14.106  11.879   9.046
37566SOL    HW214596  13.977  11.911   8.972
37567SOL     OW14597   7.319   5.716   0.377
37567SOL    HW114598   7.356   5.631   0.353
37567SOL    HW214599   7.377   5.749   0.446
37568SOL     OW14600  14.829  11.765  10.256
37568SOL    HW114601  14.863  11.767  10.167
37568SOL    HW214602  14.817  11.672  10.276
37569SOL     OW14603   1.890   3.033   8.038
37569SOL    HW114604   1.815   3.002   8.089
37569SOL    HW214605   1.883   3.129   8.042
37570SOL     OW14606   9.791  10.938   5.531
37570SOL    HW114607   9.714  10.969   5.579
37570SOL    HW214608   9.797  10.998   5.456
37571SOL     OW14609   6.852   1.804   8.368
37571SOL    HW114610   6.791   1.779   8.298
37571SOL    HW214611   6.808   1.779   8.449
37572SOL     OW14612   6.998   7.605   1.864
37572SOL    HW114613   7.012   7.523   1.911
37572SOL    HW214614   7.084   7.628   1.829
37573SOL     OW14615   7.495   9.105   7.336
37573SOL    HW114616   7.578   9.113   7.289
37573SOL    HW214617   7.436   9.063   7.273
37574SOL     OW14618   3.381  14.759   7.676
37574SOL    HW114619   3.443  14.814   7.725
37574SOL    HW214620   3.437  14.699   7.628
37575SOL     OW14621  13.504  11.493   0.594
37575SOL    HW114622  13.528  11.586   0.601
37575SOL    HW214623  13.454  11.488   0.513
37576SOL     OW14624  11.251   6.779  13.921
37576SOL    HW114625  11.279   6.834  13.993
37576SOL    HW214626  11.282   6.825  13.842
37577SOL     OW14627  14.157  12.601   8.546
37577SOL    HW114628  14.130  12.602   8.454
37577SOL    HW214629  14.137  12.512   8.575
37578SOL     OW14630  13.658  13.193  11.947
37578SOL    HW114631  13.669  13.273  11.897
37578SOL    HW214632  13.661  13.221  12.039
37579SOL     OW14633   7.233  11.087   6.045
37579SOL    HW114634   7.304  11.146   6.018
37579SOL    HW214635   7.197  11.053   5.964
37580SOL     OW14636   7.069  10.944   8.461
37580SOL    HW114637   7.028  10.904   8.384
37580SOL    HW214638   7.015  11.021   8.479
37581SOL     OW14639  11.121   1.887   0.950
37581SOL    HW114640  11.179   1.948   0.905
37581SOL    HW214641  11.147   1.801   0.917
37582SOL     OW14642   0.005   4.343   2.752
37582SOL    HW114643   0.017   4.261   2.702
37582SOL    HW214644  14.840   4.401   2.691
37583SOL     OW14645   2.835   7.987  14.381
37583SOL    HW114646   2.824   8.028  14.467
37583SOL    HW214647   2.920   8.019  14.350
37584SOL     OW14648   3.125   8.374  10.616
37584SOL    HW114649   3.215   8.379  10.649
37584SOL    HW214650   3.131   8.402  10.525
37585SOL     OW14651   9.980   7.310   2.332
37585SOL    HW114652   9.925   7.389   2.330
37585SOL    HW214653   9.957   7.267   2.414
37586SOL     OW14654   5.538  13.873   7.724
37586SOL    HW114655   5.563  13.847   7.812
37586SOL    HW214656   5.446  13.851   7.717
37587SOL     OW14657   2.073   4.964  13.066
37587SOL    HW114658   1.992   4.928  13.028
37587SOL    HW214659   2.137   4.957  12.996
37588SOL     OW14660   1.024  10.055   4.715
37588SOL    HW114661   1.047   9.979   4.661
37588SOL    HW214662   0.959  10.102   4.663
37589SOL     OW14663   4.998   3.657  10.117
37589SOL    HW114664   4.979   3.569  10.149
37589SOL    HW214665   4.938   3.669  10.043
37590SOL     OW14666   8.069   1.356   9.640
37590SOL    HW114667   7.990   1.397   9.606
37590SOL    HW214668   8.039   1.277   9.685
37591SOL     OW14669   6.000   0.412  14.155
37591SOL    HW114670   5.985   0.394  14.062
37591SOL    HW214671   6.067   0.349  14.181
37592SOL     OW14672   2.159   3.875  11.684
37592SOL    HW114673   2.126   3.789  11.659
37592SOL    HW214674   2.195   3.912  11.603
37593SOL     OW14675  12.218   1.878   9.088
37593SOL    HW114676  12.187   1.815   9.152
37593SOL    HW214677  12.279   1.934   9.136
37594SOL     OW14678   9.012  12.121   9.241
37594SOL    HW114679   9.026  12.172   9.322
37594SOL    HW214680   9.024  12.185   9.171
37595SOL     OW14681  12.543   2.199   1.338
37595SOL    HW114682  12.593   2.261   1.391
37595SOL    HW214683  12.465   2.248   1.310
37596SOL     OW14684  10.513   1.800   1.845
37596SOL    HW114685  10.422   1.776   1.829
37596SOL    HW214686  10.511   1.846   1.930
37597SOL     OW14687  12.399   9.342   8.013
37597SOL    HW114688  12.359   9.288   8.081
37597SOL    HW214689  12.380   9.432   8.039
37598SOL     OW14690  11.483  11.762   6.923
37598SOL    HW114691  11.417  11.712   6.971
37598SOL    HW214692  11.433  11.827   6.874
37599SOL     OW14693  12.969  14.314   3.589
37599SOL    HW114694  12.946  14.351   3.674
37599SOL    HW214695  13.015  14.384   3.543
37600SOL     OW14696   0.576  10.757  10.605
37600SOL    HW114697   0.601  10.837  10.558
37600SOL    HW214698   0.516  10.787  10.673
37601SOL     OW14699   3.198   5.200   8.927
37601SOL    HW114700   3.157   5.286   8.934
37601SOL    HW214701   3.125   5.139   8.919
37602SOL     OW14702  10.267   0.678  12.828
37602SOL    HW114703  10.208   0.696  12.755
37602SOL    HW214704  10.281   0.583  12.825
37603SOL     OW14705  14.700  12.811   0.998
37603SOL    HW114706  14.642  12.883   1.021
37603SOL    HW214707  14.782  12.829   1.045
37604SOL     OW14708   6.315   8.794   7.177
37604SOL    HW114709   6.355   8.722   7.128
37604SOL    HW214710   6.235   8.757   7.214
37605SOL     OW14711  14.191   3.101   8.705
37605SOL    HW114712  14.105   3.140   8.716
37605SOL    HW214713  14.183   3.014   8.744
37606SOL     OW14714  14.415  13.437   6.824
37606SOL    HW114715  14.454  13.524   6.813
37606SOL    HW214716  14.324  13.456   6.848
37607SOL     OW14717   9.912   6.874   6.125
37607SOL    HW114718   9.833   6.874   6.180
37607SOL    HW214719   9.984   6.891   6.186
37608SOL     OW14720   4.137   2.696  13.832
37608SOL    HW114721   4.124   2.749  13.752
37608SOL    HW214722   4.063   2.636  13.833
37609SOL     OW14723  11.634   2.238   4.229
37609SOL    HW114724  11.636   2.320   4.278
37609SOL    HW214725  11.542   2.226   4.206
37610SOL     OW14726  12.223   7.129   1.705
37610SOL    HW114727  12.284   7.160   1.638
37610SOL    HW214728  12.225   7.197   1.772
37611SOL     OW14729  12.481   2.214   3.961
37611SOL    HW114730  12.456   2.252   3.877
37611SOL    HW214731  12.399   2.179   3.997
37612SOL     OW14732  13.584   2.954   2.646
37612SOL    HW114733  13.547   2.873   2.681
37612SOL    HW214734  13.678   2.947   2.664
37613SOL     OW14735  10.488   2.153  14.741
37613SOL    HW114736  10.407   2.167  14.692
37613SOL    HW214737  10.553   2.132  14.673
37614SOL     OW14738   7.659   3.474  14.402
37614SOL    HW114739   7.698   3.548  14.356
37614SOL    HW214740   7.664   3.402  14.339
37615SOL     OW14741  13.298   8.044   1.552
37615SOL    HW114742  13.205   8.022   1.557
37615SOL    HW214743  13.302   8.116   1.489
37616SOL     OW14744  13.925   2.532   4.997
37616SOL    HW114745  13.907   2.486   5.079
37616SOL    HW214746  14.020   2.523   4.985
37617SOL     OW14747  13.258   6.399   6.732
37617SOL    HW114748  13.298   6.383   6.647
37617SOL    HW214749  13.227   6.490   6.728
37618SOL     OW14750  14.668  12.274   7.066
37618SOL    HW114751  14.673  12.231   7.151
37618SOL    HW214752  14.575  12.272   7.043
37619SOL     OW14753   3.719   1.399  13.156
37619SOL    HW114754   3.663   1.352  13.217
37619SOL    HW214755   3.778   1.332  13.121
37620SOL     OW14756   0.728   7.035  13.624
37620SOL    HW114757   0.766   7.004  13.706
37620SOL    HW214758   0.739   6.963  13.563
37621SOL     OW14759   7.653   2.459   4.835
37621SOL    HW114760   7.663   2.488   4.925
37621SOL    HW214761   7.576   2.506   4.803
37622SOL     OW14762   0.263   6.438   7.243
37622SOL    HW114763   0.184   6.384   7.249
37622SOL    HW214764   0.230   6.527   7.230
37623SOL     OW14765   7.766   2.772   2.757
37623SOL    HW114766   7.773   2.857   2.715
37623SOL    HW214767   7.705   2.786   2.830
37624SOL     OW14768   7.556   2.373  12.814
37624SOL    HW114769   7.533   2.341  12.727
37624SOL    HW214770   7.646   2.344  12.828
37625SOL     OW14771   8.517   4.122   9.328
37625SOL    HW114772   8.483   4.206   9.357
37625SOL    HW214773   8.602   4.114   9.371
37626SOL     OW14774  11.077  14.228   5.851
37626SOL    HW114775  11.036  14.213   5.767
37626SOL    HW214776  11.125  14.146   5.869
37627SOL     OW14777   1.804  13.988   6.652
37627SOL    HW114778   1.720  13.943   6.657
37627SOL    HW214779   1.834  13.993   6.743
37628SOL     OW14780   3.756   4.032   7.803
37628SOL    HW114781   3.805   4.069   7.877
37628SOL    HW214782   3.688   3.979   7.844
37629SOL     OW14783   2.157   5.490  12.020
37629SOL    HW114784   2.137   5.516  12.110
37629SOL    HW214785   2.186   5.571  11.978
37630SOL     OW14786   0.646  14.471  13.698
37630SOL    HW114787   0.670  14.563  13.688
37630SOL    HW214788   0.727  14.423  13.676
37631SOL     OW14789   3.824   2.786   6.521
37631SOL    HW114790   3.875   2.711   6.491
37631SOL    HW214791   3.775   2.754   6.597
37632SOL     OW14792   1.140   6.115   6.826
37632SOL    HW114793   1.049   6.087   6.841
37632SOL    HW214794   1.190   6.033   6.830
37633SOL     OW14795   1.526   5.452  11.779
37633SOL    HW114796   1.608   5.405  11.794
37633SOL    HW214797   1.458   5.396  11.817
37634SOL     OW14798   2.280   9.975   9.273
37634SOL    HW114799   2.247  10.039   9.337
37634SOL    HW214800   2.224   9.898   9.285
37635SOL     OW14801   1.970   7.107  11.620
37635SOL    HW114802   2.021   7.149  11.550
37635SOL    HW214803   2.035   7.063  11.674
37636SOL     OW14804  11.626   7.396   6.401
37636SOL    HW114805  11.704   7.407   6.347
37636SOL    HW214806  11.557   7.443   6.355
37637SOL     OW14807  13.923  14.463  11.184
37637SOL    HW114808  13.863  14.427  11.118
37637SOL    HW214809  13.956  14.386  11.231
37638SOL     OW14810   4.757  14.770   4.530
37638SOL    HW114811   4.801  14.685   4.528
37638SOL    HW214812   4.670  14.752   4.566
37639SOL     OW14813   8.067  14.118  14.446
37639SOL    HW114814   8.021  14.070  14.377
37639SOL    HW214815   8.077  14.207  14.411
37640SOL     OW14816   1.770   7.302   7.789
37640SOL    HW114817   1.677   7.307   7.769
37640SOL    HW214818   1.804   7.390   7.770
37641SOL     OW14819   2.405  10.743   2.393
37641SOL    HW114820   2.407  10.732   2.488
37641SOL    HW214821   2.312  10.753   2.372
37642SOL     OW14822  10.583   1.613   5.447
37642SOL    HW114823  10.531   1.534   5.433
37642SOL    HW214824  10.532   1.684   5.409
37643SOL     OW14825   3.811   3.300   0.284
37643SOL    HW114826   3.740   3.236   0.280
37643SOL    HW214827   3.790   3.364   0.217
37644SOL     OW14828   5.358   9.285   9.264
37644SOL    HW114829   5.447   9.307   9.235
37644SOL    HW214830   5.324   9.226   9.197
37645SOL     OW14831  11.618   7.019  13.683
37645SOL    HW114832  11.561   6.985  13.613
37645SOL    HW214833  11.583   6.980  13.763
37646SOL     OW14834  14.660   5.454  14.849
37646SOL    HW114835  14.691   5.482   0.056
37646SOL    HW214836  14.677   5.360  14.847
37647SOL     OW14837  14.062   1.163   8.770
37647SOL    HW114838  14.102   1.101   8.709
37647SOL    HW214839  14.080   1.249   8.732
37648SOL     OW14840  11.279  11.940   9.869
37648SOL    HW114841  11.229  11.991   9.933
37648SOL    HW214842  11.354  11.996   9.848
37649SOL     OW14843   8.352   0.756   3.827
37649SOL    HW114844   8.427   0.770   3.769
37649SOL    HW214845   8.336   0.662   3.824
37650SOL     OW14846  11.709   7.988   0.100
37650SOL    HW114847  11.768   7.938   0.045
37650SOL    HW214848  11.703   7.938   0.181
37651SOL     OW14849  11.528   4.354   8.130
37651SOL    HW114850  11.569   4.440   8.121
37651SOL    HW214851  11.584   4.307   8.192
37652SOL     OW14852   2.830   1.412   3.510
37652SOL    HW114853   2.808   1.429   3.601
37652SOL    HW214854   2.760   1.355   3.479
37653SOL     OW14855  12.952   2.104   7.110
37653SOL    HW114856  12.856   2.102   7.107
37653SOL    HW214857  12.979   2.148   7.030
37654SOL     OW14858   8.750   4.858   5.433
37654SOL    HW114859   8.713   4.898   5.355
37654SOL    HW214860   8.759   4.930   5.495
37655SOL     OW14861   3.552  10.245   6.448
37655SOL    HW114862   3.476  10.303   6.457
37655SOL    HW214863   3.523  10.177   6.389
37656SOL     OW14864   1.121   7.577   6.814
37656SOL    HW114865   1.190   7.642   6.802
37656SOL    HW214866   1.052   7.624   6.861
37657SOL     OW14867   8.245  10.770   0.312
37657SOL    HW114868   8.214  10.826   0.240
37657SOL    HW214869   8.260  10.685   0.271
37658SOL     OW14870   0.021  13.202   4.100
37658SOL    HW114871  14.829  13.230   4.043
37658SOL    HW214872   0.100  13.230   4.055
37659SOL     OW14873   8.699   0.771   7.230
37659SOL    HW114874   8.633   0.734   7.289
37659SOL    HW214875   8.676   0.864   7.224
37660SOL     OW14876   9.222   7.518   1.464
37660SOL    HW114877   9.266   7.435   1.482
37660SOL    HW214878   9.281   7.564   1.404
37661SOL     OW14879   2.659  14.664  13.278
37661SOL    HW114880   2.574  14.704  13.298
37661SOL    HW214881   2.710  14.675  13.358
37662SOL     OW14882   2.104   9.618   2.667
37662SOL    HW114883   2.132   9.555   2.734
37662SOL    HW214884   2.025   9.580   2.630
37663SOL     OW14885   4.813  12.775   8.724
37663SOL    HW114886   4.790  12.740   8.638
37663SOL    HW214887   4.869  12.851   8.705
37664SOL     OW14888   0.969  13.519   2.632
37664SOL    HW114889   0.885  13.495   2.592
37664SOL    HW214890   0.954  13.514   2.726
37665SOL     OW14891   1.891  14.140   2.558
37665SOL    HW114892   1.865  14.055   2.592
37665SOL    HW214893   1.963  14.122   2.497
37666SOL     OW14894  11.154   2.725   7.610
37666SOL    HW114895  11.117   2.799   7.659
37666SOL    HW214896  11.131   2.744   7.519
37667SOL     OW14897   8.039  11.505   5.987
37667SOL    HW114898   8.065  11.415   6.004
37667SOL    HW214899   8.049  11.515   5.892
37668SOL     OW14900  10.676   2.068   6.187
37668SOL    HW114901  10.732   2.075   6.109
37668SOL    HW214902  10.588   2.086   6.154
37669SOL     OW14903   4.034   3.912   1.965
37669SOL    HW114904   4.104   3.918   2.031
37669SOL    HW214905   4.033   3.819   1.940
37670SOL     OW14906   0.273  13.295  12.734
37670SOL    HW114907   0.277  13.378  12.781
37670SOL    HW214908   0.222  13.237  12.791
37671SOL     OW14909   4.538   0.910  14.594
37671SOL    HW114910   4.546   0.871  14.507
37671SOL    HW214911   4.481   0.850  14.642
37672SOL     OW14912  12.404   9.378  11.237
37672SOL    HW114913  12.433   9.456  11.285
37672SOL    HW214914  12.371   9.320  11.306
37673SOL     OW14915  12.551   3.926   0.576
37673SOL    HW114916  12.633   3.877   0.583
37673SOL    HW214917  12.516   3.902   0.490
37674SOL     OW14918   2.555   3.307   3.306
37674SOL    HW114919   2.611   3.341   3.236
37674SOL    HW214920   2.468   3.300   3.266
37675SOL     OW14921  10.646   6.795  12.587
37675SOL    HW114922  10.664   6.718  12.639
37675SOL    HW214923  10.687   6.867  12.635
37676SOL     OW14924   1.549   2.007  13.840
37676SOL    HW114925   1.586   1.947  13.904
37676SOL    HW214926   1.542   2.091  13.886
37677SOL     OW14927  12.897  13.967   6.537
37677SOL    HW114928  12.810  13.997   6.513
37677SOL    HW214929  12.903  13.982   6.632
37678SOL     OW14930  10.147   5.225   5.959
37678SOL    HW114931  10.200   5.207   6.036
37678SOL    HW214932  10.123   5.317   5.967
37679SOL     OW14933  14.519   8.562  14.146
37679SOL    HW114934  14.455   8.494  14.167
37679SOL    HW214935  14.587   8.516  14.096
37680SOL     OW14936  10.737  12.507   1.165
37680SOL    HW114937  10.753  12.453   1.243
37680SOL    HW214938  10.821  12.511   1.121
37681SOL     OW14939   4.796   0.193   4.485
37681SOL    HW114940   4.861   0.234   4.428
37681SOL    HW214941   4.822   0.101   4.490
37682SOL     OW14942   0.619  11.707   5.759
37682SOL    HW114943   0.587  11.617   5.764
37682SOL    HW214944   0.541  11.759   5.739
37683SOL     OW14945   3.738   7.722  13.443
37683SOL    HW114946   3.742   7.811  13.480
37683SOL    HW214947   3.679   7.675  13.500
37684SOL     OW14948  14.024   1.322   8.077
37684SOL    HW114949  14.005   1.234   8.110
37684SOL    HW214950  14.110   1.314   8.036
37685SOL     OW14951  10.988   9.331  11.560
37685SOL    HW114952  11.009   9.240  11.580
37685SOL    HW214953  11.063   9.363  11.510
37686SOL     OW14954   0.083  13.798  11.500
37686SOL    HW114955   0.171  13.811  11.535
37686SOL    HW214956   0.031  13.775  11.577
37687SOL     OW14957   9.269   4.459   8.692
37687SOL    HW114958   9.256   4.552   8.712
37687SOL    HW214959   9.347   4.435   8.740
37688SOL     OW14960   0.655   8.555   0.216
37688SOL    HW114961   0.621   8.467   0.232
37688SOL    HW214962   0.576   8.609   0.206
37689SOL     OW14963   9.150   8.221  11.961
37689SOL    HW114964   9.200   8.140  11.949
37689SOL    HW214965   9.117   8.242  11.873
37690SOL     OW14966  13.775   1.763   7.422
37690SOL    HW114967  13.842   1.700   7.447
37690SOL    HW214968  13.757   1.812   7.502
37691SOL     OW14969   1.293   5.896  14.780
37691SOL    HW114970   1.333   5.823  14.733
37691SOL    HW214971   1.321   5.974  14.731
37692SOL     OW14972   5.643  13.815  10.448
37692SOL    HW114973   5.601  13.763  10.516
37692SOL    HW214974   5.700  13.875  10.495
37693SOL     OW14975   6.473   7.597   1.756
37693SOL    HW114976   6.542   7.626   1.815
37693SOL    HW214977   6.437   7.518   1.798
37694SOL     OW14978   2.079   8.292   3.219
37694SOL    HW114979   2.013   8.229   3.191
37694SOL    HW214980   2.157   8.269   3.167
37695SOL     OW14981  11.159   0.396   0.339
37695SOL    HW114982  11.068   0.391   0.368
37695SOL    HW214983  11.196   0.470   0.386
37696SOL     OW14984   8.776   0.280   0.716
37696SOL    HW114985   8.862   0.306   0.751
37696SOL    HW214986   8.736   0.363   0.688
37697SOL     OW14987  11.788   8.800   7.137
37697SOL    HW114988  11.752   8.813   7.050
37697SOL    HW214989  11.851   8.729   7.128
37698SOL     OW14990  10.228   8.179   5.948
37698SOL    HW114991  10.282   8.258   5.951
37698SOL    HW214992  10.200   8.172   5.857
37699SOL     OW14993   9.060  14.238   8.341
37699SOL    HW114994   9.074  14.328   8.313
37699SOL    HW214995   8.979  14.240   8.392
37700SOL     OW14996  12.757   7.590   4.506
37700SOL    HW114997  12.808   7.511   4.486
37700SOL    HW214998  12.815   7.643   4.561
37701SOL     OW14999   3.028  11.292   8.740
37701SOL    HW115000   3.117  11.302   8.772
37701SOL    HW215001   3.038  11.277   8.646
37702SOL     OW15002   2.958   5.592   7.404
37702SOL    HW115003   2.873   5.577   7.363
37702SOL    HW215004   3.012   5.518   7.376
37703SOL     OW15005   2.247  14.675  14.303
37703SOL    HW115006   2.208  14.652  14.387
37703SOL    HW215007   2.202  14.619  14.239
37704SOL     OW15008   0.920   4.162  13.238
37704SOL    HW115009   0.902   4.193  13.149
37704SOL    HW215010   0.943   4.241  13.287
37705SOL     OW15011  13.649   6.637   9.912
37705SOL    HW115012  13.630   6.561   9.857
37705SOL    HW215013  13.739   6.661   9.890
37706SOL     OW15014  14.626   5.324   5.543
37706SOL    HW115015  14.645   5.268   5.618
37706SOL    HW215016  14.598   5.264   5.474
37707SOL     OW15017   4.533   7.467   9.221
37707SOL    HW115018   4.467   7.529   9.254
37707SOL    HW215019   4.515   7.386   9.269
37708SOL     OW15020   4.224  14.823  13.873
37708SOL    HW115021   4.199  14.856  13.959
37708SOL    HW215022   4.202  14.729  13.875
37709SOL     OW15023  14.240   1.888   4.356
37709SOL    HW115024  14.214   1.813   4.409
37709SOL    HW215025  14.175   1.892   4.286
37710SOL     OW15026  13.398  11.636   9.605
37710SOL    HW115027  13.391  11.625   9.700
37710SOL    HW215028  13.334  11.704   9.584
37711SOL     OW15029  11.925  12.658   9.005
37711SOL    HW115030  11.863  12.692   9.070
37711SOL    HW215031  11.871  12.642   8.927
37712SOL     OW15032   0.671  11.474   0.440
37712SOL    HW115033   0.594  11.419   0.456
37712SOL    HW215034   0.686  11.519   0.522
37713SOL     OW15035  13.580   7.616   7.740
37713SOL    HW115036  13.490   7.624   7.771
37713SOL    HW215037  13.575   7.555   7.666
37714SOL     OW15038   9.646   7.342  14.772
37714SOL    HW115039   9.676   7.321  14.684
37714SOL    HW215040   9.553   7.320  14.772
37715SOL     OW15041  13.028   3.971  14.631
37715SOL    HW115042  12.961   3.908  14.603
37715SOL    HW215043  13.034   4.034  14.559
37716SOL     OW15044  12.440   0.774   1.106
37716SOL    HW115045  12.396   0.755   1.189
37716SOL    HW215046  12.521   0.722   1.108
37717SOL     OW15047   0.265   8.334   0.251
37717SOL    HW115048   0.342   8.309   0.303
37717SOL    HW215049   0.193   8.335   0.314
37718SOL     OW15050   1.343  11.414   8.146
37718SOL    HW115051   1.248  11.423   8.146
37718SOL    HW215052   1.373  11.473   8.077
37719SOL     OW15053   5.128   1.562  14.771
37719SOL    HW115054   5.180   1.499  14.822
37719SOL    HW215055   5.037   1.543  14.794
37720SOL     OW15056   3.600   7.192   7.609
37720SOL    HW115057   3.651   7.267   7.640
37720SOL    HW215058   3.515   7.201   7.653
37721SOL     OW15059  12.101   2.141   2.300
37721SOL    HW115060  12.019   2.092   2.299
37721SOL    HW215061  12.104   2.184   2.214
37722SOL     OW15062  12.059  14.787  10.394
37722SOL    HW115063  12.092  14.734  10.321
37722SOL    HW215064  12.010  14.858  10.353
37723SOL     OW15065  10.748   2.125  14.617
37723SOL    HW115066  10.748   2.073  14.697
37723SOL    HW215067  10.807   2.198  14.636
37724SOL     OW15068   5.271   6.568   9.693
37724SOL    HW115069   5.311   6.510   9.628
37724SOL    HW215070   5.341   6.627   9.720
37725SOL     OW15071  12.055  10.616   2.282
37725SOL    HW115072  12.137  10.609   2.332
37725SOL    HW215073  12.046  10.532   2.237
37726SOL     OW15074   6.388   0.616   3.489
37726SOL    HW115075   6.475   0.630   3.526
37726SOL    HW215076   6.369   0.697   3.442
37727SOL     OW15077   1.596   2.099   0.601
37727SOL    HW115078   1.504   2.091   0.625
37727SOL    HW215079   1.595   2.098   0.505
37728SOL     OW15080   5.993   3.569   9.330
37728SOL    HW115081   6.048   3.613   9.265
37728SOL    HW215082   5.924   3.633   9.348
37729SOL     OW15083   6.738   1.629   6.798
37729SOL    HW115084   6.801   1.664   6.861
37729SOL    HW215085   6.672   1.586   6.851
37730SOL     OW15086   8.492   6.022  10.597
37730SOL    HW115087   8.487   5.932  10.564
37730SOL    HW215088   8.570   6.058  10.555
37731SOL     OW15089   6.692   3.200   6.947
37731SOL    HW115090   6.709   3.120   6.997
37731SOL    HW215091   6.776   3.222   6.906
37732SOL     OW15092   8.238   9.663   8.652
37732SOL    HW115093   8.268   9.620   8.732
37732SOL    HW215094   8.309   9.723   8.629
37733SOL     OW15095   1.016   7.152  11.895
37733SOL    HW115096   0.963   7.223  11.930
37733SOL    HW215097   1.020   7.088  11.966
37734SOL     OW15098   6.078  11.804  10.969
37734SOL    HW115099   6.060  11.862  11.043
37734SOL    HW215100   6.160  11.761  10.992
37735SOL     OW15101   2.891   4.437   4.436
37735SOL    HW115102   2.977   4.479   4.442
37735SOL    HW215103   2.884   4.385   4.516
37736SOL     OW15104   1.106   8.144   9.742
37736SOL    HW115105   1.199   8.147   9.767
37736SOL    HW215106   1.078   8.235   9.741
37737SOL     OW15107   6.388  10.983   4.524
37737SOL    HW115108   6.412  10.972   4.616
37737SOL    HW215109   6.323  11.054   4.525
37738SOL     OW15110   5.169   0.181  11.561
37738SOL    HW115111   5.240   0.221  11.612
37738SOL    HW215112   5.186   0.087  11.565
37739SOL     OW15113  13.281   8.941   5.216
37739SOL    HW115114  13.344   9.004   5.251
37739SOL    HW215115  13.320   8.911   5.134
37740SOL     OW15116   0.890   8.581  10.612
37740SOL    HW115117   0.968   8.588  10.557
37740SOL    HW215118   0.920   8.611  10.698
37741SOL     OW15119   5.721  14.039   8.232
37741SOL    HW115120   5.673  14.122   8.231
37741SOL    HW215121   5.702  14.001   8.317
37742SOL     OW15122   2.429   0.374   1.300
37742SOL    HW115123   2.440   0.292   1.253
37742SOL    HW215124   2.348   0.411   1.266
37743SOL     OW15125   6.781   8.364  13.932
37743SOL    HW115126   6.729   8.444  13.947
37743SOL    HW215127   6.769   8.346  13.839
37744SOL     OW15128  11.292   0.674  14.427
37744SOL    HW115129  11.251   0.735  14.365
37744SOL    HW215130  11.327   0.604  14.372
37745SOL     OW15131  13.904  11.711  13.427
37745SOL    HW115132  13.820  11.755  13.412
37745SOL    HW215133  13.883  11.618  13.427
37746SOL     OW15134   8.582   7.719   0.134
37746SOL    HW115135   8.665   7.689   0.171
37746SOL    HW215136   8.581   7.813   0.150
37747SOL     OW15137  13.566   6.131  12.281
37747SOL    HW115138  13.510   6.137  12.204
37747SOL    HW215139  13.595   6.221  12.295
37748SOL     OW15140  10.453   9.049  10.054
37748SOL    HW115141  10.530   9.051  10.110
37748SOL    HW215142  10.385   9.010  10.108
37749SOL     OW15143   7.679   6.734   1.757
37749SOL    HW115144   7.768   6.767   1.768
37749SOL    HW215145   7.625   6.794   1.808
37750SOL     OW15146   7.945  10.583   2.625
37750SOL    HW115147   7.959  10.678   2.619
37750SOL    HW215148   7.879  10.564   2.558
37751SOL     OW15149  11.291  12.590  13.318
37751SOL    HW115150  11.298  12.613  13.225
37751SOL    HW215151  11.271  12.673  13.362
37752SOL     OW15152   6.344   4.635  10.929
37752SOL    HW115153   6.418   4.577  10.911
37752SOL    HW215154   6.372   4.686  11.005
37753SOL     OW15155  11.308   2.197   2.057
37753SOL    HW115156  11.225   2.152   2.042
37753SOL    HW215157  11.343   2.157   2.136
37754SOL     OW15158   7.895   6.738  12.266
37754SOL    HW115159   7.963   6.797  12.232
37754SOL    HW215160   7.839   6.720  12.192
37755SOL     OW15161   4.143  13.778   4.583
37755SOL    HW115162   4.182  13.792   4.669
37755SOL    HW215163   4.171  13.854   4.532
37756SOL     OW15164   7.455  13.954   9.232
37756SOL    HW115165   7.368  13.974   9.266
37756SOL    HW215166   7.467  14.013   9.158
37757SOL     OW15167   8.114   5.798   2.424
37757SOL    HW115168   8.057   5.816   2.498
37757SOL    HW215169   8.126   5.883   2.382
37758SOL     OW15170   8.036  13.819  14.603
37758SOL    HW115171   7.952  13.806  14.558
37758SOL    HW215172   8.040  13.913  14.619
37759SOL     OW15173  10.889  13.403  10.505
37759SOL    HW115174  10.887  13.338  10.435
37759SOL    HW215175  10.808  13.390  10.553
37760SOL     OW15176  14.550   6.490   8.123
37760SOL    HW115177  14.533   6.580   8.095
37760SOL    HW215178  14.540   6.438   8.043
37761SOL     OW15179  10.654   3.855   9.166
37761SOL    HW115180  10.667   3.813   9.251
37761SOL    HW215181  10.561   3.842   9.146
37762SOL     OW15182  12.837  14.326  10.249
37762SOL    HW115183  12.843  14.272  10.328
37762SOL    HW215184  12.862  14.414  10.278
37763SOL     OW15185   4.394   6.548   6.511
37763SOL    HW115186   4.393   6.525   6.604
37763SOL    HW215187   4.442   6.631   6.508
37764SOL     OW15188   2.834   0.560   2.401
37764SOL    HW115189   2.796   0.565   2.489
37764SOL    HW215190   2.917   0.516   2.413
37765SOL     OW15191  11.447  13.001   3.557
37765SOL    HW115192  11.458  12.907   3.571
37765SOL    HW215193  11.362  13.021   3.596
37766SOL     OW15194   5.848   0.322   7.128
37766SOL    HW115195   5.770   0.348   7.078
37766SOL    HW215196   5.917   0.380   7.098
37767SOL     OW15197  14.010  13.837  14.750
37767SOL    HW115198  13.937  13.852  14.810
37767SOL    HW215199  14.066  13.774  14.795
37768SOL     OW15200   2.680  14.090  12.661
37768SOL    HW115201   2.661  13.999  12.685
37768SOL    HW215202   2.696  14.133  12.745
37769SOL     OW15203   3.589   2.762   4.315
37769SOL    HW115204   3.520   2.746   4.250
37769SOL    HW215205   3.541   2.772   4.397
37770SOL     OW15206  11.462  12.130   6.282
37770SOL    HW115207  11.430  12.209   6.327
37770SOL    HW215208  11.547  12.113   6.322
37771SOL     OW15209   9.100   7.766  12.814
37771SOL    HW115210   9.064   7.843  12.769
37771SOL    HW215211   9.117   7.796  12.903
37772SOL     OW15212   5.942  13.871   3.807
37772SOL    HW115213   5.889  13.932   3.857
37772SOL    HW215214   5.885  13.844   3.735
37773SOL     OW15215   2.836  14.571  10.490
37773SOL    HW115216   2.784  14.648  10.514
37773SOL    HW215217   2.861  14.587  10.398
37774SOL     OW15218   7.297   9.725  12.303
37774SOL    HW115219   7.281   9.657  12.369
37774SOL    HW215220   7.285   9.807  12.351
37775SOL     OW15221   3.836   1.522  13.605
37775SOL    HW115222   3.836   1.584  13.531
37775SOL    HW215223   3.743   1.510  13.625
37776SOL     OW15224  11.246   0.614   8.657
37776SOL    HW115225  11.249   0.690   8.599
37776SOL    HW215226  11.157   0.580   8.647
37777SOL     OW15227   2.621   2.806   2.850
37777SOL    HW115228   2.674   2.732   2.820
37777SOL    HW215229   2.586   2.777   2.935
37778SOL     OW15230   8.192  13.095   7.596
37778SOL    HW115231   8.282  13.094   7.563
37778SOL    HW215232   8.172  13.188   7.609
37779SOL     OW15233   4.423   5.155   9.367
37779SOL    HW115234   4.377   5.238   9.368
37779SOL    HW215235   4.472   5.156   9.285
37780SOL     OW15236  10.260  10.938  14.569
37780SOL    HW115237  10.250  10.916  14.661
37780SOL    HW215238  10.287  11.030  14.569
37781SOL     OW15239   9.467   9.997  11.088
37781SOL    HW115240   9.502   9.925  11.036
37781SOL    HW215241   9.530  10.068  11.074
37782SOL     OW15242  11.667   3.120  10.109
37782SOL    HW115243  11.612   3.103  10.186
37782SOL    HW215244  11.733   3.182  10.140
37783SOL     OW15245   8.072  14.778  11.418
37783SOL    HW115246   8.094  14.759  11.509
37783SOL    HW215247   8.000  14.841  11.423
37784SOL     OW15248   3.620   7.232  10.470
37784SOL    HW115249   3.544   7.253  10.525
37784SOL    HW215250   3.655   7.150  10.507
37785SOL     OW15251   8.095   0.660   7.677
37785SOL    HW115252   8.031   0.731   7.680
37785SOL    HW215253   8.049   0.584   7.712
37786SOL     OW15254   5.054   5.756   6.586
37786SOL    HW115255   5.131   5.797   6.548
37786SOL    HW215256   5.048   5.671   6.541
37787SOL     OW15257  11.085  10.442  13.836
37787SOL    HW115258  11.033  10.436  13.755
37787SOL    HW215259  11.133  10.524  13.827
37788SOL     OW15260  11.468   9.695  11.080
37788SOL    HW115261  11.519   9.617  11.101
37788SOL    HW215262  11.380   9.676  11.113
37789SOL     OW15263   6.651   4.317   0.519
37789SOL    HW115264   6.732   4.289   0.476
37789SOL    HW215265   6.677   4.335   0.609
37790SOL     OW15266   7.785  10.253   7.719
37790SOL    HW115267   7.747  10.338   7.697
37790SOL    HW215268   7.710  10.193   7.718
37791SOL     OW15269  11.160  11.285   5.693
37791SOL    HW115270  11.127  11.286   5.783
37791SOL    HW215271  11.206  11.202   5.685
37792SOL     OW15272   2.665  14.371   1.058
37792SOL    HW115273   2.694  14.448   1.010
37792SOL    HW215274   2.625  14.406   1.138
37793SOL     OW15275  14.862   0.297   0.313
37793SOL    HW115276   0.051   0.354   0.347
37793SOL    HW215277   0.027   0.237   0.254
37794SOL     OW15278  11.723   4.850   5.370
37794SOL    HW115279  11.815   4.866   5.353
37794SOL    HW215280  11.681   4.851   5.284
37795SOL     OW15281   6.704   4.686   8.557
37795SOL    HW115282   6.701   4.593   8.580
37795SOL    HW215283   6.793   4.714   8.581
37796SOL     OW15284   0.264   2.011   6.282
37796SOL    HW115285   0.180   2.057   6.276
37796SOL    HW215286   0.306   2.047   6.360
37797SOL     OW15287  14.167   9.536   3.666
37797SOL    HW115288  14.201   9.616   3.626
37797SOL    HW215289  14.199   9.539   3.756
37798SOL     OW15290   8.174   1.399   2.636
37798SOL    HW115291   8.135   1.456   2.701
37798SOL    HW215292   8.104   1.382   2.573
37799SOL     OW15293   4.803  13.672   8.574
37799SOL    HW115294   4.898  13.664   8.574
37799SOL    HW215295   4.782  13.710   8.489
37800SOL     OW15296  12.881  13.849  14.865
37800SOL    HW115297  12.933  13.866  14.787
37800SOL    HW215298  12.817  13.921  14.867
37801SOL     OW15299   9.791   1.031  12.828
37801SOL    HW115300   9.743   1.067  12.753
37801SOL    HW215301   9.797   0.937  12.809
37802SOL     OW15302   3.825  14.108  13.224
37802SOL    HW115303   3.906  14.126  13.273
37802SOL    HW215304   3.788  14.031  13.266
37803SOL     OW15305  13.093   5.223  11.689
37803SOL    HW115306  12.999   5.230  11.671
37803SOL    HW215307  13.132   5.296  11.641
37804SOL     OW15308  13.668   0.184   2.549
37804SOL    HW115309  13.593   0.244   2.542
37804SOL    HW215310  13.744   0.241   2.547
37805SOL     OW15311   3.881   0.632   0.289
37805SOL    HW115312   3.917   0.699   0.232
37805SOL    HW215313   3.893   0.666   0.378
37806SOL     OW15314   7.193   1.113   3.388
37806SOL    HW115315   7.232   1.196   3.360
37806SOL    HW215316   7.194   1.117   3.483
37807SOL     OW15317   7.701   4.338  11.153
37807SOL    HW115318   7.686   4.432  11.160
37807SOL    HW215319   7.665   4.314  11.068
37808SOL     OW15320   6.720   6.132   8.484
37808SOL    HW115321   6.793   6.193   8.476
37808SOL    HW215322   6.675   6.159   8.564
37809SOL     OW15323  14.507   2.452  12.749
37809SOL    HW115324  14.435   2.392  12.730
37809SOL    HW215325  14.471   2.513  12.814
37810SOL     OW15326  10.966   8.714  11.398
37810SOL    HW115327  10.992   8.636  11.350
37810SOL    HW215328  10.883   8.739  11.359
37811SOL     OW15329   3.608   2.799  13.425
37811SOL    HW115330   3.608   2.758  13.511
37811SOL    HW215331   3.572   2.731  13.367
37812SOL     OW15332   0.465   9.763   3.008
37812SOL    HW115333   0.436   9.674   2.990
37812SOL    HW215334   0.402   9.796   3.073
37813SOL     OW15335   0.034  10.874   8.927
37813SOL    HW115336   0.052  10.795   8.977
37813SOL    HW215337   0.095  10.939   8.962
37814SOL     OW15338   8.158   2.226   1.931
37814SOL    HW115339   8.083   2.203   1.875
37814SOL    HW215340   8.180   2.144   1.974
37815SOL     OW15341  10.050   9.022   1.506
37815SOL    HW115342  10.069   8.928   1.505
37815SOL    HW215343   9.999   9.035   1.586
37816SOL     OW15344  12.754   8.784   9.265
37816SOL    HW115345  12.829   8.730   9.240
37816SOL    HW215346  12.681   8.723   9.267
37817SOL     OW15347   2.665  11.465  12.372
37817SOL    HW115348   2.578  11.435  12.345
37817SOL    HW215349   2.726  11.415  12.318
37818SOL     OW15350   1.902   4.235   8.408
37818SOL    HW115351   1.959   4.163   8.381
37818SOL    HW215352   1.956   4.313   8.396
37819SOL     OW15353  12.166   0.592  10.992
37819SOL    HW115354  12.174   0.611  10.898
37819SOL    HW215355  12.083   0.545  10.999
37820SOL     OW15356   5.145   5.115   9.652
37820SOL    HW115357   5.184   5.102   9.565
37820SOL    HW215358   5.188   5.193   9.686
37821SOL     OW15359   0.261   4.384   4.897
37821SOL    HW115360   0.323   4.434   4.950
37821SOL    HW215361   0.221   4.322   4.958
37822SOL     OW15362   5.575   4.816   8.722
37822SOL    HW115363   5.552   4.909   8.730
37822SOL    HW215364   5.664   4.817   8.686
37823SOL     OW15365   4.966   9.525  14.421
37823SOL    HW115366   5.039   9.587  14.427
37823SOL    HW215367   4.995   9.459  14.359
37824SOL     OW15368  12.744  14.076   7.897
37824SOL    HW115369  12.827  14.066   7.850
37824SOL    HW215370  12.693  14.137   7.843
37825SOL     OW15371   3.579   1.252   4.397
37825SOL    HW115372   3.671   1.226   4.395
37825SOL    HW215373   3.542   1.202   4.470
37826SOL     OW15374  12.480   2.921   1.134
37826SOL    HW115375  12.523   2.987   1.079
37826SOL    HW215376  12.553   2.871   1.171
37827SOL     OW15377   1.663   0.709   9.114
37827SOL    HW115378   1.627   0.676   9.032
37827SOL    HW215379   1.735   0.649   9.134
37828SOL     OW15380   1.408   4.470   3.772
37828SOL    HW115381   1.342   4.408   3.802
37828SOL    HW215382   1.424   4.528   3.847
37829SOL     OW15383  14.685   1.440   7.474
37829SOL    HW115384  14.642   1.383   7.538
37829SOL    HW215385  14.778   1.436   7.498
37830SOL     OW15386  11.389  11.430  11.074
37830SOL    HW115387  11.339  11.495  11.024
37830SOL    HW215388  11.322  11.378  11.119
37831SOL     OW15389   0.694  11.833   2.714
37831SOL    HW115390   0.669  11.916   2.675
37831SOL    HW215391   0.612  11.789   2.734
37832SOL     OW15392   8.792  14.080   1.135
37832SOL    HW115393   8.855  14.149   1.156
37832SOL    HW215394   8.847  14.004   1.115
37833SOL     OW15395  12.310   0.018  11.811
37833SOL    HW115396  12.388   0.065  11.842
37833SOL    HW215397  12.293  14.832  11.878
37834SOL     OW15398   7.850   8.385   4.096
37834SOL    HW115399   7.943   8.381   4.074
37834SOL    HW215400   7.845   8.444   4.171
37835SOL     OW15401  10.995   9.455   4.137
37835SOL    HW115402  11.048   9.444   4.216
37835SOL    HW215403  10.956   9.542   4.146
37836SOL     OW15404   9.018   4.453   1.045
37836SOL    HW115405   8.926   4.479   1.047
37836SOL    HW215406   9.021   4.370   1.093
37837SOL     OW15407   0.212   6.018   2.413
37837SOL    HW115408   0.221   5.934   2.367
37837SOL    HW215409   0.233   5.998   2.504
37838SOL     OW15410   0.320   4.790  13.035
37838SOL    HW115411   0.292   4.784  12.944
37838SOL    HW215412   0.244   4.829  13.080
37839SOL     OW15413   8.001   6.947   8.091
37839SOL    HW115414   8.036   6.914   8.174
37839SOL    HW215415   7.995   6.869   8.035
37840SOL     OW15416   2.437   0.623   7.469
37840SOL    HW115417   2.411   0.562   7.400
37840SOL    HW215418   2.514   0.583   7.509
37841SOL     OW15419   9.442  10.097   9.196
37841SOL    HW115420   9.365  10.057   9.156
37841SOL    HW215421   9.406  10.147   9.270
37842SOL     OW15422  11.806  14.245   9.350
37842SOL    HW115423  11.816  14.322   9.406
37842SOL    HW215424  11.842  14.173   9.401
37843SOL     OW15425   9.783  11.844  11.527
37843SOL    HW115426   9.770  11.770  11.588
37843SOL    HW215427   9.702  11.895  11.535
37844SOL     OW15428   1.688  14.846   3.331
37844SOL    HW115429   1.677  14.780   3.399
37844SOL    HW215430   1.604  14.848   3.285
37845SOL     OW15431   2.023   4.872   6.855
37845SOL    HW115432   2.098   4.932   6.859
37845SOL    HW215433   2.060   4.789   6.825
37846SOL     OW15434  10.028  10.886  10.713
37846SOL    HW115435  10.115  10.917  10.690
37846SOL    HW215436   9.973  10.964  10.709
37847SOL     OW15437   9.874   7.781   7.222
37847SOL    HW115438   9.884   7.781   7.318
37847SOL    HW215439   9.941   7.720   7.191
37848SOL     OW15440   0.679   4.840   1.817
37848SOL    HW115441   0.649   4.931   1.827
37848SOL    HW215442   0.731   4.823   1.895
37849SOL     OW15443   9.253   3.125  12.679
37849SOL    HW115444   9.204   3.200  12.714
37849SOL    HW215445   9.238   3.130  12.584
37850SOL     OW15446  10.420   0.746   4.624
37850SOL    HW115447  10.419   0.651   4.635
37850SOL    HW215448  10.402   0.760   4.531
37851SOL     OW15449  10.716   0.692  13.403
37851SOL    HW115450  10.786   0.648  13.451
37851SOL    HW215451  10.758   0.768  13.364
37852SOL     OW15452   6.506   8.012   1.228
37852SOL    HW115453   6.468   8.006   1.316
37852SOL    HW215454   6.598   8.035   1.243
37853SOL     OW15455   8.138   9.993   3.980
37853SOL    HW115456   8.148  10.066   4.041
37853SOL    HW215457   8.214   9.998   3.923
37854SOL     OW15458   3.356   2.423   9.326
37854SOL    HW115459   3.392   2.378   9.250
37854SOL    HW215460   3.278   2.468   9.293
37855SOL     OW15461  13.084   7.963   7.505
37855SOL    HW115462  13.135   7.961   7.585
37855SOL    HW215463  13.112   8.043   7.461
37856SOL     OW15464   0.027   6.438   1.902
37856SOL    HW115465   0.008   6.528   1.928
37856SOL    HW215466   0.087   6.405   1.969
37857SOL     OW15467   0.435   8.785   2.197
37857SOL    HW115468   0.528   8.770   2.210
37857SOL    HW215469   0.398   8.699   2.177
37858SOL     OW15470  13.716   9.859   4.889
37858SOL    HW115471  13.659   9.784   4.908
37858SOL    HW215472  13.805   9.823   4.890
37859SOL     OW15473   9.184   5.937   1.059
37859SOL    HW115474   9.210   5.893   1.140
37859SOL    HW215475   9.266   5.957   1.015
37860SOL     OW15476  10.821   9.857   1.740
37860SOL    HW115477  10.845   9.767   1.717
37860SOL    HW215478  10.896   9.891   1.787
37861SOL     OW15479   7.491  13.448   8.313
37861SOL    HW115480   7.496  13.414   8.224
37861SOL    HW215481   7.582  13.467   8.337
37862SOL     OW15482   5.088   6.948   4.681
37862SOL    HW115483   5.065   6.979   4.769
37862SOL    HW215484   5.110   7.028   4.633
37863SOL     OW15485   2.858  11.575   5.361
37863SOL    HW115486   2.831  11.666   5.347
37863SOL    HW215487   2.804  11.545   5.435
37864SOL     OW15488   0.588   9.327   3.031
37864SOL    HW115489   0.570   9.233   3.034
37864SOL    HW215490   0.555   9.355   2.945
37865SOL     OW15491   8.500  11.303   0.447
37865SOL    HW115492   8.573  11.340   0.397
37865SOL    HW215493   8.438  11.273   0.381
37866SOL     OW15494  13.666   2.548   9.288
37866SOL    HW115495  13.717   2.626   9.308
37866SOL    HW215496  13.638   2.515   9.374
37867SOL     OW15497   0.708   9.458   3.987
37867SOL    HW115498   0.676   9.541   3.953
37867SOL    HW215499   0.763   9.482   4.062
37868SOL     OW15500   8.880  13.751   6.097
37868SOL    HW115501   8.937  13.828   6.093
37868SOL    HW215502   8.801  13.778   6.051
37869SOL     OW15503   2.925   4.926  10.663
37869SOL    HW115504   2.902   4.850  10.717
37869SOL    HW215505   3.018   4.940  10.681
37870SOL     OW15506   2.568   9.882  11.263
37870SOL    HW115507   2.659   9.855  11.279
37870SOL    HW215508   2.562   9.892  11.169
37871SOL     OW15509   6.795   0.873   2.646
37871SOL    HW115510   6.854   0.864   2.572
37871SOL    HW215511   6.852   0.890   2.721
37872SOL     OW15512   3.195  12.992  10.278
37872SOL    HW115513   3.167  12.926  10.215
37872SOL    HW215514   3.290  12.995  10.270
37873SOL     OW15515  12.255   9.317   4.600
37873SOL    HW115516  12.342   9.286   4.577
37873SOL    HW215517  12.259   9.412   4.590
37874SOL     OW15518   1.423  12.505   1.100
37874SOL    HW115519   1.384  12.532   1.183
37874SOL    HW215520   1.486  12.575   1.080
37875SOL     OW15521  10.326  11.824  14.734
37875SOL    HW115522  10.378  11.905  14.734
37875SOL    HW215523  10.368  11.768  14.798
37876SOL     OW15524   1.797   1.930  12.608
37876SOL    HW115525   1.740   1.854  12.596
37876SOL    HW215526   1.868   1.917  12.545
37877SOL     OW15527   8.089  12.654   0.011
37877SOL    HW115528   8.009  12.613   0.043
37877SOL    HW215529   8.147  12.659   0.088
37878SOL     OW15530   0.997   1.112   6.950
37878SOL    HW115531   0.927   1.047   6.950
37878SOL    HW215532   1.028   1.115   6.860
37879SOL     OW15533   7.177  14.438   8.035
37879SOL    HW115534   7.249  14.384   8.067
37879SOL    HW215535   7.098  14.389   8.058
37880SOL     OW15536  13.645  12.781  13.447
37880SOL    HW115537  13.731  12.821  13.433
37880SOL    HW215538  13.620  12.747  13.361
37881SOL     OW15539  13.629   0.031   0.765
37881SOL    HW115540  13.557  14.866   0.809
37881SOL    HW215541  13.706  14.856   0.780
37882SOL     OW15542   3.413   2.006   1.660
37882SOL    HW115543   3.330   2.015   1.614
37882SOL    HW215544   3.405   2.064   1.736
37883SOL     OW15545  11.013  14.090  10.593
37883SOL    HW115546  11.052  14.023  10.537
37883SOL    HW215547  10.928  14.110  10.553
37884SOL     OW15548   4.155   9.340   0.460
37884SOL    HW115549   4.230   9.349   0.401
37884SOL    HW215550   4.079   9.362   0.405
37885SOL     OW15551   8.367  13.784   0.797
37885SOL    HW115552   8.300  13.815   0.858
37885SOL    HW215553   8.334  13.810   0.711
37886SOL     OW15554   8.839   0.974  13.610
37886SOL    HW115555   8.863   0.932  13.692
37886SOL    HW215556   8.917   1.025  13.585
37887SOL     OW15557  13.034   7.331   8.474
37887SOL    HW115558  13.001   7.394   8.537
37887SOL    HW215559  12.965   7.265   8.467
37888SOL     OW15560   3.217   6.001   5.441
37888SOL    HW115561   3.163   6.036   5.512
37888SOL    HW215562   3.231   5.910   5.464
37889SOL     OW15563   1.327  10.721  13.169
37889SOL    HW115564   1.367  10.640  13.200
37889SOL    HW215565   1.321  10.776  13.247
37890SOL     OW15566   2.357  13.405  13.092
37890SOL    HW115567   2.273  13.359  13.083
37890SOL    HW215568   2.333  13.497  13.106
37891SOL     OW15569   0.341  10.268  11.924
37891SOL    HW115570   0.408  10.304  11.867
37891SOL    HW215571   0.286  10.215  11.867
37892SOL     OW15572  10.000  11.055  11.566
37892SOL    HW115573  10.054  11.018  11.637
37892SOL    HW215574  10.063  11.076  11.497
37893SOL     OW15575   1.669  11.473  11.578
37893SOL    HW115576   1.723  11.431  11.645
37893SOL    HW215577   1.669  11.411  11.505
37894SOL     OW15578  12.158  11.613  14.598
37894SOL    HW115579  12.112  11.696  14.583
37894SOL    HW215580  12.119  11.578  14.678
37895SOL     OW15581   6.776   4.573   7.466
37895SOL    HW115582   6.717   4.646   7.449
37895SOL    HW215583   6.864   4.611   7.460
37896SOL     OW15584  10.624   9.141   6.051
37896SOL    HW115585  10.549   9.134   5.991
37896SOL    HW215586  10.586   9.131   6.138
37897SOL     OW15587   0.711   8.708   4.680
37897SOL    HW115588   0.627   8.701   4.635
37897SOL    HW215589   0.729   8.619   4.711
37898SOL     OW15590  13.163   7.693   8.339
37898SOL    HW115591  13.133   7.654   8.257
37898SOL    HW215592  13.083   7.722   8.383
37899SOL     OW15593  14.409   0.683   2.268
37899SOL    HW115594  14.470   0.660   2.199
37899SOL    HW215595  14.458   0.743   2.325
37900SOL     OW15596   2.770  12.248   9.514
37900SOL    HW115597   2.725  12.307   9.453
37900SOL    HW215598   2.810  12.306   9.579
37901SOL     OW15599   7.905   2.324   7.975
37901SOL    HW115600   7.938   2.391   7.915
37901SOL    HW215601   7.904   2.244   7.924
37902SOL     OW15602   9.271   7.074   0.954
37902SOL    HW115603   9.336   7.098   1.021
37902SOL    HW215604   9.265   7.152   0.898
37903SOL     OW15605   9.150   6.026   3.426
37903SOL    HW115606   9.082   6.063   3.369
37903SOL    HW215607   9.161   6.090   3.495
37904SOL     OW15608   5.828   1.274  13.138
37904SOL    HW115609   5.872   1.260  13.054
37904SOL    HW215610   5.791   1.362  13.131
37905SOL     OW15611   5.439  14.229   8.485
37905SOL    HW115612   5.429  14.139   8.516
37905SOL    HW215613   5.403  14.283   8.555
37906SOL     OW15614   6.669   4.663   5.885
37906SOL    HW115615   6.598   4.727   5.878
37906SOL    HW215616   6.672   4.621   5.799
37907SOL     OW15617   0.505   1.042   6.490
37907SOL    HW115618   0.463   1.013   6.571
37907SOL    HW215619   0.454   1.118   6.462
37908SOL     OW15620   8.249   6.973  12.884
37908SOL    HW115621   8.203   7.043  12.931
37908SOL    HW215622   8.213   6.893  12.921
37909SOL     OW15623   0.915  11.178   9.223
37909SOL    HW115624   0.939  11.217   9.307
37909SOL    HW215625   0.856  11.241   9.183
37910SOL     OW15626   3.770  11.822   4.543
37910SOL    HW115627   3.725  11.772   4.475
37910SOL    HW215628   3.737  11.785   4.625
37911SOL     OW15629   5.885   9.166  14.849
37911SOL    HW115630   5.900   9.072  14.846
37911SOL    HW215631   5.888   9.188   0.063
37912SOL     OW15632  10.337  13.910   3.217
37912SOL    HW115633  10.342  13.833   3.160
37912SOL    HW215634  10.332  13.875   3.306
37913SOL     OW15635  14.794   3.135   2.985
37913SOL    HW115636  14.833   3.176   2.908
37913SOL    HW215637  14.778   3.208   3.045
37914SOL     OW15638  13.217   8.744   7.095
37914SOL    HW115639  13.297   8.726   7.046
37914SOL    HW215640  13.190   8.832   7.067
37915SOL     OW15641  13.627   4.080   4.150
37915SOL    HW115642  13.593   4.089   4.239
37915SOL    HW215643  13.696   4.014   4.158
37916SOL     OW15644  12.335   8.237  13.871
37916SOL    HW115645  12.291   8.152  13.876
37916SOL    HW215646  12.415   8.220  13.821
37917SOL     OW15647   8.598   6.398   0.451
37917SOL    HW115648   8.583   6.314   0.408
37917SOL    HW215649   8.534   6.401   0.522
37918SOL     OW15650   4.942   6.238  10.007
37918SOL    HW115651   4.966   6.274  10.093
37918SOL    HW215652   4.915   6.314   9.956
37919SOL     OW15653  12.738   5.315   4.420
37919SOL    HW115654  12.675   5.306   4.348
37919SOL    HW215655  12.685   5.307   4.499
37920SOL     OW15656   4.348   7.036   2.141
37920SOL    HW115657   4.365   7.122   2.180
37920SOL    HW215658   4.259   7.042   2.108
37921SOL     OW15659   7.258  12.688  13.598
37921SOL    HW115660   7.265  12.691  13.502
37921SOL    HW215661   7.333  12.739  13.629
37922SOL     OW15662  13.642   2.957   1.975
37922SOL    HW115663  13.599   2.887   1.926
37922SOL    HW215664  13.587   3.034   1.959
37923SOL     OW15665   5.809   3.195   4.254
37923SOL    HW115666   5.727   3.239   4.231
37923SOL    HW215667   5.784   3.104   4.266
37924SOL     OW15668  10.132  11.862  10.452
37924SOL    HW115669  10.126  11.797  10.381
37924SOL    HW215670  10.099  11.943  10.413
37925SOL     OW15671   9.191   5.939   2.287
37925SOL    HW115672   9.136   5.970   2.215
37925SOL    HW215673   9.165   5.992   2.362
37926SOL     OW15674  13.920  10.245  11.577
37926SOL    HW115675  13.983  10.183  11.613
37926SOL    HW215676  13.840  10.194  11.565
37927SOL     OW15677   1.408   9.419   2.886
37927SOL    HW115678   1.464   9.462   2.822
37927SOL    HW215679   1.395   9.331   2.852
37928SOL     OW15680  12.634  13.166  14.029
37928SOL    HW115681  12.595  13.134  13.948
37928SOL    HW215682  12.669  13.252  14.006
37929SOL     OW15683   5.391   3.330   6.550
37929SOL    HW115684   5.459   3.367   6.606
37929SOL    HW215685   5.309   3.359   6.590
37930SOL     OW15686   5.374  11.571  10.364
37930SOL    HW115687   5.453  11.555  10.312
37930SOL    HW215688   5.318  11.624  10.307
37931SOL     OW15689   3.412  14.263   6.978
37931SOL    HW115690   3.368  14.346   6.996
37931SOL    HW215691   3.357  14.197   7.020
37932SOL     OW15692   0.688  12.505   0.874
37932SOL    HW115693   0.727  12.590   0.854
37932SOL    HW215694   0.604  12.505   0.828
37933SOL     OW15695   4.314   5.469   4.225
37933SOL    HW115696   4.332   5.468   4.319
37933SOL    HW215697   4.390   5.512   4.186
37934SOL     OW15698   1.325   4.442   0.741
37934SOL    HW115699   1.311   4.537   0.736
37934SOL    HW215700   1.376   4.422   0.662
37935SOL     OW15701  12.930   7.161  14.283
37935SOL    HW115702  12.900   7.220  14.352
37935SOL    HW215703  12.926   7.213  14.203
37936SOL     OW15704   4.843   7.746   8.925
37936SOL    HW115705   4.831   7.656   8.956
37936SOL    HW215706   4.832   7.740   8.830
37937SOL     OW15707  11.273   2.670   0.175
37937SOL    HW115708  11.179   2.690   0.177
37937SOL    HW215709  11.315   2.756   0.185
37938SOL     OW15710  12.987   4.885   2.293
37938SOL    HW115711  13.034   4.902   2.374
37938SOL    HW215712  13.038   4.817   2.249
37939SOL     OW15713   0.273   3.971   4.849
37939SOL    HW115714   0.197   4.029   4.844
37939SOL    HW215715   0.237   3.884   4.863
37940SOL     OW15716   2.583   9.071   5.581
37940SOL    HW115717   2.658   9.118   5.544
37940SOL    HW215718   2.623   8.998   5.629
37941SOL     OW15719  13.378   1.458  11.241
37941SOL    HW115720  13.314   1.475  11.172
37941SOL    HW215721  13.403   1.545  11.273
37942SOL     OW15722   9.533  10.186   5.142
37942SOL    HW115723   9.595  10.242   5.189
37942SOL    HW215724   9.487  10.138   5.212
37943SOL     OW15725   6.756  14.219  13.097
37943SOL    HW115726   6.714  14.231  13.012
37943SOL    HW215727   6.777  14.308  13.127
37944SOL     OW15728   1.152   6.448  11.578
37944SOL    HW115729   1.152   6.379  11.645
37944SOL    HW215730   1.244   6.463  11.559
37945SOL     OW15731   6.470   1.066   4.761
37945SOL    HW115732   6.531   1.015   4.709
37945SOL    HW215733   6.414   1.000   4.804
37946SOL     OW15734   0.737   6.509  13.038
37946SOL    HW115735   0.653   6.534  13.076
37946SOL    HW215736   0.766   6.434  13.090
37947SOL     OW15737  12.828   6.547   6.334
37947SOL    HW115738  12.832   6.510   6.246
37947SOL    HW215739  12.747   6.511   6.372
37948SOL     OW15740   5.540  10.166  11.068
37948SOL    HW115741   5.521  10.156  10.975
37948SOL    HW215742   5.490  10.096  11.111
37949SOL     OW15743   8.995  14.300  12.074
37949SOL    HW115744   9.052  14.377  12.068
37949SOL    HW215745   8.926  14.317  12.009
37950SOL     OW15746  10.256  14.767   5.413
37950SOL    HW115747  10.333  14.817   5.386
37950SOL    HW215748  10.230  14.719   5.334
37951SOL     OW15749   3.717   8.996   8.788
37951SOL    HW115750   3.754   9.031   8.708
37951SOL    HW215751   3.764   9.042   8.858
37952SOL     OW15752  11.630   2.853  12.349
37952SOL    HW115753  11.592   2.940  12.339
37952SOL    HW215754  11.686   2.859  12.426
37953SOL     OW15755  11.310   4.868  11.039
37953SOL    HW115756  11.218   4.843  11.034
37953SOL    HW215757  11.341   4.832  11.122
37954SOL     OW15758   2.523   9.882   9.881
37954SOL    HW115759   2.556   9.889   9.792
37954SOL    HW215760   2.585   9.826   9.926
37955SOL     OW15761   5.589  11.428   1.044
37955SOL    HW115762   5.519  11.481   1.082
37955SOL    HW215763   5.667  11.454   1.093
37956SOL     OW15764  10.772  12.782  14.076
37956SOL    HW115765  10.721  12.859  14.102
37956SOL    HW215766  10.843  12.817  14.023
37957SOL     OW15767  11.808  12.501   6.947
37957SOL    HW115768  11.729  12.529   6.903
37957SOL    HW215769  11.816  12.560   7.022
37958SOL     OW15770   3.077   0.952   6.510
37958SOL    HW115771   3.074   1.032   6.564
37958SOL    HW215772   3.103   0.883   6.571
37959SOL     OW15773   8.220  12.950   8.452
37959SOL    HW115774   8.289  12.976   8.514
37959SOL    HW215775   8.189  12.866   8.485
37960SOL     OW15776  10.704  10.996   5.503
37960SOL    HW115777  10.705  10.905   5.476
37960SOL    HW215778  10.617  11.008   5.543
37961SOL     OW15779   0.844   2.898   6.443
37961SOL    HW115780   0.757   2.936   6.453
37961SOL    HW215781   0.903   2.973   6.437
37962SOL     OW15782   2.482  13.617  12.767
37962SOL    HW115783   2.536  13.588  12.841
37962SOL    HW215784   2.414  13.550  12.759
37963SOL     OW15785   8.966  14.140  12.292
37963SOL    HW115786   8.878  14.170  12.267
37963SOL    HW215787   9.017  14.146  12.211
37964SOL     OW15788   3.666   8.229  10.129
37964SOL    HW115789   3.579   8.231  10.167
37964SOL    HW215790   3.705   8.148  10.161
37965SOL     OW15791   1.120   0.142   3.774
37965SOL    HW115792   1.122   0.047   3.785
37965SOL    HW215793   1.048   0.158   3.714
37966SOL     OW15794   6.119   5.334   6.297
37966SOL    HW115795   6.162   5.413   6.264
37966SOL    HW215796   6.047   5.319   6.235
37967SOL     OW15797   0.201   1.603   1.093
37967SOL    HW115798   0.296   1.596   1.100
37967SOL    HW215799   0.167   1.538   1.156
37968SOL     OW15800  12.685   1.408   1.791
37968SOL    HW115801  12.775   1.441   1.790
37968SOL    HW215802  12.675   1.366   1.876
37969SOL     OW15803  12.923  13.722  13.771
37969SOL    HW115804  12.885  13.641  13.805
37969SOL    HW215805  13.004  13.695  13.728
37970SOL     OW15806   1.165  10.046   0.615
37970SOL    HW115807   1.167  10.120   0.675
37970SOL    HW215808   1.225  10.071   0.544
37971SOL     OW15809   7.346   4.242   1.899
37971SOL    HW115810   7.302   4.313   1.946
37971SOL    HW215811   7.274   4.187   1.868
37972SOL     OW15812  12.810   7.296   6.339
37972SOL    HW115813  12.779   7.247   6.263
37972SOL    HW215814  12.840   7.380   6.304
37973SOL     OW15815  10.756   0.397   2.217
37973SOL    HW115816  10.750   0.468   2.281
37973SOL    HW215817  10.666   0.382   2.189
37974SOL     OW15818   7.315  12.360   7.014
37974SOL    HW115819   7.404  12.364   6.981
37974SOL    HW215820   7.288  12.451   7.026
37975SOL     OW15821   6.802   7.612   5.870
37975SOL    HW115822   6.770   7.678   5.809
37975SOL    HW215823   6.777   7.529   5.831
37976SOL     OW15824  10.554   9.361  12.915
37976SOL    HW115825  10.485   9.352  12.980
37976SOL    HW215826  10.521   9.427  12.854
37977SOL     OW15827   2.425  10.635   7.804
37977SOL    HW115828   2.378  10.555   7.783
37977SOL    HW215829   2.432  10.635   7.900
37978SOL     OW15830   9.627   8.162   0.102
37978SOL    HW115831   9.587   8.088   0.055
37978SOL    HW215832   9.693   8.196   0.041
37979SOL     OW15833  12.426   1.621   5.391
37979SOL    HW115834  12.446   1.581   5.476
37979SOL    HW215835  12.421   1.548   5.330
37980SOL     OW15836  11.471  14.474   4.370
37980SOL    HW115837  11.439  14.563   4.354
37980SOL    HW215838  11.552  14.487   4.419
37981SOL     OW15839   6.659  13.849   4.198
37981SOL    HW115840   6.705  13.894   4.269
37981SOL    HW215841   6.679  13.901   4.120
37982SOL     OW15842   3.538   9.896   9.598
37982SOL    HW115843   3.474   9.955   9.638
37982SOL    HW215844   3.574   9.945   9.525
37983SOL     OW15845   6.294   0.188  10.950
37983SOL    HW115846   6.256   0.167  11.036
37983SOL    HW215847   6.281   0.282  10.941
37984SOL     OW15848   6.226   4.867   2.546
37984SOL    HW115849   6.180   4.950   2.558
37984SOL    HW215850   6.189   4.832   2.465
37985SOL     OW15851   3.251  12.563  12.866
37985SOL    HW115852   3.262  12.468  12.870
37985SOL    HW215853   3.193  12.577  12.791
37986SOL     OW15854   3.432  14.203   5.785
37986SOL    HW115855   3.488  14.281   5.783
37986SOL    HW215856   3.388  14.207   5.870
37987SOL     OW15857   4.475   6.744   2.537
37987SOL    HW115858   4.489   6.804   2.611
37987SOL    HW215859   4.426   6.671   2.574
37988SOL     OW15860   5.661   3.105   6.448
37988SOL    HW115861   5.659   3.201   6.454
37988SOL    HW215862   5.576   3.082   6.410
37989SOL     OW15863   3.960   1.207  13.537
37989SOL    HW115864   3.966   1.115  13.512
37989SOL    HW215865   3.898   1.246  13.475
37990SOL     OW15866  14.341   3.585   9.610
37990SOL    HW115867  14.300   3.671   9.619
37990SOL    HW215868  14.321   3.557   9.521
37991SOL     OW15869  11.633  13.929  13.320
37991SOL    HW115870  11.684  13.982  13.259
37991SOL    HW215871  11.671  13.841  13.314
37992SOL     OW15872  11.235  14.642   1.869
37992SOL    HW115873  11.241  14.551   1.842
37992SOL    HW215874  11.176  14.641   1.945
37993SOL     OW15875  12.326   4.896   1.604
37993SOL    HW115876  12.412   4.892   1.646
37993SOL    HW215877  12.341   4.944   1.523
37994SOL     OW15878  12.234   4.114  14.540
37994SOL    HW115879  12.158   4.173  14.546
37994SOL    HW215880  12.309   4.171  14.560
37995SOL     OW15881   4.650   9.332  13.521
37995SOL    HW115882   4.668   9.424  13.503
37995SOL    HW215883   4.695   9.314  13.603
37996SOL     OW15884   5.114   3.795  12.683
37996SOL    HW115885   5.174   3.868  12.695
37996SOL    HW215886   5.038   3.817  12.737
37997SOL     OW15887   2.045  11.023  10.006
37997SOL    HW115888   2.132  10.993   9.982
37997SOL    HW215889   2.060  11.104  10.054
37998SOL     OW15890   3.691   3.437   2.247
37998SOL    HW115891   3.716   3.524   2.217
37998SOL    HW215892   3.666   3.390   2.168
37999SOL     OW15893   8.374   7.413   9.664
37999SOL    HW115894   8.412   7.395   9.750
37999SOL    HW215895   8.372   7.508   9.657
38000SOL     OW15896   4.325   6.582  10.031
38000SOL    HW115897   4.336   6.645   9.960
38000SOL    HW215898   4.410   6.582  10.076
38001SOL     OW15899   9.263   7.357   6.118
38001SOL    HW115900   9.202   7.424   6.149
38001SOL    HW215901   9.273   7.297   6.191
38002SOL     OW15902  14.649   9.215  13.581
38002SOL    HW115903  14.624   9.123  13.578
38002SOL    HW215904  14.627   9.249  13.495
38003SOL     OW15905   0.566   6.267   4.439
38003SOL    HW115906   0.549   6.344   4.495
38003SOL    HW215907   0.486   6.258   4.388
38004SOL     OW15908  14.278   8.206   0.792
38004SOL    HW115909  14.203   8.147   0.777
38004SOL    HW215910  14.322   8.210   0.707
38005SOL     OW15911  13.163   2.609   9.228
38005SOL    HW115912  13.098   2.539   9.220
38005SOL    HW215913  13.167   2.648   9.140
38006SOL     OW15914   7.566   3.245  12.782
38006SOL    HW115915   7.642   3.221  12.729
38006SOL    HW215916   7.505   3.173  12.771
38007SOL     OW15917   3.102  14.112  13.286
38007SOL    HW115918   3.155  14.058  13.345
38007SOL    HW215919   3.155  14.117  13.206
38008SOL     OW15920   8.488   9.611  14.319
38008SOL    HW115921   8.567   9.630  14.370
38008SOL    HW215922   8.433   9.689  14.330
38009SOL     OW15923   0.272  12.346   9.478
38009SOL    HW115924   0.298  12.437   9.466
38009SOL    HW215925   0.191  12.337   9.426
38010SOL     OW15926   0.983   3.233   6.895
38010SOL    HW115927   1.018   3.215   6.982
38010SOL    HW215928   1.054   3.276   6.848
38011SOL     OW15929  12.767  11.940   6.614
38011SOL    HW115930  12.805  11.900   6.536
38011SOL    HW215931  12.841  11.976   6.661
38012SOL     OW15932   9.354   1.871  13.336
38012SOL    HW115933   9.276   1.884  13.391
38012SOL    HW215934   9.411   1.815  13.389
38013SOL     OW15935   9.493  14.249   0.433
38013SOL    HW115936   9.410  14.297   0.434
38013SOL    HW215937   9.493  14.199   0.514
38014SOL     OW15938   2.224   0.606   0.494
38014SOL    HW115939   2.146   0.649   0.529
38014SOL    HW215940   2.290   0.675   0.491
38015SOL     OW15941   1.167   3.359   9.705
38015SOL    HW115942   1.260   3.336   9.703
38015SOL    HW215943   1.124   3.281   9.741
38016SOL     OW15944   8.740  11.466   6.041
38016SOL    HW115945   8.801  11.493   5.972
38016SOL    HW215946   8.753  11.372   6.050
38017SOL     OW15947   1.769   2.089   6.732
38017SOL    HW115948   1.733   2.034   6.802
38017SOL    HW215949   1.743   2.178   6.755
38018SOL     OW15950  11.222   8.940  11.326
38018SOL    HW115951  11.199   8.881  11.398
38018SOL    HW215952  11.270   9.011  11.368
38019SOL     OW15953   7.366  14.650   5.849
38019SOL    HW115954   7.297  14.612   5.903
38019SOL    HW215955   7.445  14.642   5.903
38020SOL     OW15956  10.810  10.334  13.173
38020SOL    HW115957  10.890  10.289  13.201
38020SOL    HW215958  10.831  10.368  13.086
38021SOL     OW15959  14.683   4.316  13.280
38021SOL    HW115960  14.653   4.399  13.241
38021SOL    HW215961  14.682   4.254  13.208
38022SOL     OW15962   5.661  12.250   1.687
38022SOL    HW115963   5.662  12.217   1.777
38022SOL    HW215964   5.744  12.221   1.649
38023SOL     OW15965  13.421   6.374   4.054
38023SOL    HW115966  13.338   6.331   4.075
38023SOL    HW215967  13.455   6.404   4.138
38024SOL     OW15968   9.901  13.756   9.068
38024SOL    HW115969   9.942  13.673   9.093
38024SOL    HW215970   9.972  13.820   9.074
38025SOL     OW15971   6.887   7.896  12.186
38025SOL    HW115972   6.794   7.879  12.203
38025SOL    HW215973   6.891   7.990  12.169
38026SOL     OW15974   8.360   4.788   3.977
38026SOL    HW115975   8.395   4.763   4.062
38026SOL    HW215976   8.274   4.825   3.995
38027SOL     OW15977   8.414  13.576  14.756
38027SOL    HW115978   8.398  13.669  14.744
38027SOL    HW215979   8.492  13.571  14.812
38028SOL     OW15980   0.848   4.581   6.578
38028SOL    HW115981   0.934   4.621   6.564
38028SOL    HW215982   0.799   4.603   6.499
38029SOL     OW15983   6.312   8.193   2.975
38029SOL    HW115984   6.232   8.242   2.994
38029SOL    HW215985   6.304   8.113   3.027
38030SOL     OW15986  10.877   8.874   6.352
38030SOL    HW115987  10.908   8.945   6.408
38030SOL    HW215988  10.923   8.887   6.269
38031SOL     OW15989   2.183   2.069   1.771
38031SOL    HW115990   2.273   2.050   1.795
38031SOL    HW215991   2.166   2.014   1.694
38032SOL     OW15992  12.752   6.162  12.707
38032SOL    HW115993  12.770   6.089  12.646
38032SOL    HW215994  12.666   6.141  12.744
38033SOL     OW15995   6.377   3.865   0.585
38033SOL    HW115996   6.357   3.788   0.639
38033SOL    HW215997   6.399   3.933   0.648
38034SOL     OW15998   4.656   6.771   1.832
38034SOL    HW115999   4.656   6.679   1.807
38034SOL    HW216000   4.736   6.806   1.791
38035SOL     OW16001   7.352  14.351  12.296
38035SOL    HW116002   7.440  14.329  12.326
38035SOL    HW216003   7.308  14.267  12.284
38036SOL     OW16004   9.863   6.437   4.799
38036SOL    HW116005   9.955   6.426   4.825
38036SOL    HW216006   9.848   6.365   4.737
38037SOL     OW16007  11.509   4.525   1.187
38037SOL    HW116008  11.494   4.430   1.189
38037SOL    HW216009  11.478   4.553   1.101
38038SOL     OW16010  13.854   1.376  14.590
38038SOL    HW116011  13.791   1.312  14.558
38038SOL    HW216012  13.940   1.341  14.567
38039SOL     OW16013   3.893  14.214   1.447
38039SOL    HW116014   3.925  14.213   1.537
38039SOL    HW216015   3.936  14.139   1.406
38040SOL     OW16016  10.377   9.839   1.988
38040SOL    HW116017  10.308   9.906   1.985
38040SOL    HW216018  10.388   9.813   1.896
38041SOL     OW16019   5.253   2.383   3.347
38041SOL    HW116020   5.348   2.390   3.353
38041SOL    HW216021   5.222   2.473   3.349
38042SOL     OW16022   1.679   8.692  13.623
38042SOL    HW116023   1.726   8.723  13.546
38042SOL    HW216024   1.638   8.610  13.595
38043SOL     OW16025   4.248  12.408   6.489
38043SOL    HW116026   4.155  12.387   6.499
38043SOL    HW216027   4.274  12.365   6.407
38044SOL     OW16028   9.668  13.328   0.101
38044SOL    HW116029   9.718  13.334   0.019
38044SOL    HW216030   9.658  13.419   0.129
38045SOL     OW16031   5.888   8.792  12.737
38045SOL    HW116032   5.912   8.872  12.784
38045SOL    HW216033   5.876   8.819  12.646
38046SOL     OW16034   8.756   0.990   0.027
38046SOL    HW116035   8.791   1.045  14.837
38046SOL    HW216036   8.751   1.048   0.103
38047SOL     OW16037   5.607   2.928   2.160
38047SOL    HW116038   5.585   3.009   2.113
38047SOL    HW216039   5.532   2.913   2.217
38048SOL     OW16040   5.237  14.375  11.977
38048SOL    HW116041   5.274  14.364  11.890
38048SOL    HW216042   5.200  14.289  11.999
38049SOL     OW16043   5.790  10.804   9.479
38049SOL    HW116044   5.766  10.870   9.544
38049SOL    HW216045   5.886  10.810   9.474
38050SOL     OW16046  10.341  12.506   7.113
38050SOL    HW116047  10.247  12.507   7.131
38050SOL    HW216048  10.374  12.431   7.164
38051SOL     OW16049   6.686   4.850   5.374
38051SOL    HW116050   6.719   4.940   5.363
38051SOL    HW216051   6.765   4.798   5.392
38052SOL     OW16052  10.596  14.350   6.389
38052SOL    HW116053  10.627  14.361   6.299
38052SOL    HW216054  10.666  14.303   6.433
38053SOL     OW16055   2.294  13.327  10.542
38053SOL    HW116056   2.323  13.343  10.452
38053SOL    HW216057   2.342  13.391  10.594
38054SOL     OW16058   2.477   3.946  10.509
38054SOL    HW116059   2.568   3.922  10.495
38054SOL    HW216060   2.464   3.937  10.604
38055SOL     OW16061  10.460   9.069   8.115
38055SOL    HW116062  10.456   9.058   8.020
38055SOL    HW216063  10.433   8.984   8.150
38056SOL     OW16064   5.493  13.616   2.579
38056SOL    HW116065   5.531  13.679   2.640
38056SOL    HW216066   5.456  13.548   2.635
38057SOL     OW16067   0.324  11.502   1.706
38057SOL    HW116068   0.399  11.546   1.667
38057SOL    HW216069   0.353  11.478   1.794
38058SOL     OW16070   8.658   4.005  11.484
38058SOL    HW116071   8.717   3.930  11.475
38058SOL    HW216072   8.647   4.037  11.394
38059SOL     OW16073  12.026  11.742  13.521
38059SOL    HW116074  12.019  11.713  13.613
38059SOL    HW216075  11.978  11.675  13.472
38060SOL     OW16076   7.583  11.688  11.819
38060SOL    HW116077   7.671  11.667  11.850
38060SOL    HW216078   7.589  11.778  11.789
38061SOL     OW16079   8.407   1.386   7.787
38061SOL    HW116080   8.467   1.346   7.849
38061SOL    HW216081   8.366   1.312   7.742
38062SOL     OW16082   0.121   3.736   4.825
38062SOL    HW116083   0.138   3.723   4.732
38062SOL    HW216084   0.036   3.780   4.828
38063SOL     OW16085  10.662   6.735   7.539
38063SOL    HW116086  10.720   6.683   7.596
38063SOL    HW216087  10.707   6.820   7.532
38064SOL     OW16088  10.514  10.283  13.773
38064SOL    HW116089  10.459  10.311  13.846
38064SOL    HW216090  10.531  10.190  13.789
38065SOL     OW16091   1.545   1.089   3.090
38065SOL    HW116092   1.467   1.080   3.145
38065SOL    HW216093   1.540   1.178   3.056
38066SOL     OW16094   1.855   1.963   7.729
38066SOL    HW116095   1.899   1.883   7.760
38066SOL    HW216096   1.825   1.941   7.641
38067SOL     OW16097   9.942   7.247   9.261
38067SOL    HW116098   9.935   7.251   9.165
38067SOL    HW216099   9.856   7.274   9.292
38068SOL     OW16100  11.449   6.525   6.257
38068SOL    HW116101  11.459   6.618   6.239
38068SOL    HW216102  11.483   6.482   6.178
38069SOL     OW16103   9.102  12.692   8.049
38069SOL    HW116104   9.096  12.630   7.976
38069SOL    HW216105   9.083  12.777   8.011
38070SOL     OW16106   8.341   8.333   0.849
38070SOL    HW116107   8.286   8.393   0.800
38070SOL    HW216108   8.346   8.254   0.795
38071SOL     OW16109   6.879   5.929   1.157
38071SOL    HW116110   6.905   5.902   1.245
38071SOL    HW216111   6.856   6.022   1.167
38072SOL     OW16112   6.639  13.912  13.511
38072SOL    HW116113   6.638  13.894  13.417
38072SOL    HW216114   6.729  13.937  13.530
38073SOL     OW16115   7.230  10.414   4.391
38073SOL    HW116116   7.295  10.423   4.461
38073SOL    HW216117   7.282  10.413   4.310
38074SOL     OW16118   9.344   9.221  12.432
38074SOL    HW116119   9.389   9.273  12.365
38074SOL    HW216120   9.252   9.248  12.424
38075SOL     OW16121   9.639  11.692   4.334
38075SOL    HW116122   9.559  11.660   4.292
38075SOL    HW216123   9.671  11.617   4.385
38076SOL     OW16124  13.226  11.165   4.253
38076SOL    HW116125  13.213  11.088   4.309
38076SOL    HW216126  13.172  11.233   4.293
38077SOL     OW16127   0.475  11.031   6.784
38077SOL    HW116128   0.452  10.949   6.739
38077SOL    HW216129   0.424  11.098   6.738
38078SOL     OW16130   3.286   3.736  13.383
38078SOL    HW116131   3.318   3.795  13.452
38078SOL    HW216132   3.365   3.702  13.342
38079SOL     OW16133  12.006   0.080   9.108
38079SOL    HW116134  11.915   0.105   9.092
38079SOL    HW216135  12.036   0.045   9.024
38080SOL     OW16136   3.060   9.036  12.137
38080SOL    HW116137   3.059   9.049  12.232
38080SOL    HW216138   2.978   8.989  12.119
38081SOL     OW16139   4.540   5.810  14.203
38081SOL    HW116140   4.544   5.882  14.266
38081SOL    HW216141   4.448   5.785  14.201
38082SOL     OW16142   3.675   7.653   7.409
38082SOL    HW116143   3.606   7.598   7.446
38082SOL    HW216144   3.628   7.718   7.357
38083SOL     OW16145  11.073   1.026  12.879
38083SOL    HW116146  11.086   0.937  12.909
38083SOL    HW216147  11.038   1.017  12.791
38084SOL     OW16148  10.305  12.231   5.629
38084SOL    HW116149  10.298  12.135   5.630
38084SOL    HW216150  10.322  12.255   5.720
38085SOL     OW16151   2.146   7.536   2.351
38085SOL    HW116152   2.235   7.569   2.363
38085SOL    HW216153   2.150   7.488   2.268
38086SOL     OW16154  11.456   9.659  13.870
38086SOL    HW116155  11.386   9.699  13.818
38086SOL    HW216156  11.536   9.685  13.826
38087SOL     OW16157  11.288   8.532  12.692
38087SOL    HW116158  11.283   8.585  12.771
38087SOL    HW216159  11.257   8.445  12.718
38088SOL     OW16160   7.211   5.103  13.145
38088SOL    HW116161   7.286   5.104  13.086
38088SOL    HW216162   7.162   5.181  13.123
38089SOL     OW16163   8.375  10.302   0.815
38089SOL    HW116164   8.287  10.311   0.779
38089SOL    HW216165   8.406  10.216   0.786
38090SOL     OW16166   7.966  10.741   5.788
38090SOL    HW116167   7.903  10.705   5.726
38090SOL    HW216168   7.953  10.691   5.868
38091SOL     OW16169   4.720   8.590   2.563
38091SOL    HW116170   4.798   8.624   2.606
38091SOL    HW216171   4.740   8.594   2.470
38092SOL     OW16172   2.935   7.243  10.587
38092SOL    HW116173   2.955   7.151  10.568
38092SOL    HW216174   2.841   7.245  10.600
38093SOL     OW16175   4.602   3.045   3.621
38093SOL    HW116176   4.607   3.072   3.713
38093SOL    HW216177   4.693   3.049   3.591
38094SOL     OW16178   7.523  13.011   8.976
38094SOL    HW116179   7.515  12.916   8.976
38094SOL    HW216180   7.432  13.042   8.967
38095SOL     OW16181  14.830   4.272  12.263
38095SOL    HW116182  14.823   4.177  12.256
38095SOL    HW216183   0.044   4.290  12.256
38096SOL     OW16184   6.690   9.621   7.578
38096SOL    HW116185   6.643   9.680   7.637
38096SOL    HW216186   6.621   9.567   7.538
38097SOL     OW16187   2.358   0.394   9.030
38097SOL    HW116188   2.399   0.459   8.972
38097SOL    HW216189   2.367   0.432   9.118
38098SOL     OW16190   9.473  11.295  12.763
38098SOL    HW116191   9.460  11.234  12.836
38098SOL    HW216192   9.387  11.302  12.722
38099SOL     OW16193   5.837   2.327  14.794
38099SOL    HW116194   5.863   2.418  14.785
38099SOL    HW216195   5.745   2.331  14.822
38100SOL     OW16196  10.747   8.020   9.963
38100SOL    HW116197  10.812   7.971  10.012
38100SOL    HW216198  10.779   8.110   9.963
38101SOL     OW16199  12.438   4.059   4.590
38101SOL    HW116200  12.362   4.012   4.556
38101SOL    HW216201  12.418   4.151   4.572
38102SOL     OW16202   0.656  10.351   6.652
38102SOL    HW116203   0.740  10.393   6.670
38102SOL    HW216204   0.626  10.319   6.737
38103SOL     OW16205  13.432   5.670   9.831
38103SOL    HW116206  13.471   5.757   9.825
38103SOL    HW216207  13.447   5.644   9.922
38104SOL     OW16208  11.587   1.296   5.056
38104SOL    HW116209  11.494   1.307   5.037
38104SOL    HW216210  11.605   1.359   5.126
38105SOL     OW16211   5.387  12.629  12.508
38105SOL    HW116212   5.474  12.651  12.541
38105SOL    HW216213   5.347  12.579  12.579
38106SOL     OW16214  10.534  12.116   9.211
38106SOL    HW116215  10.557  12.039   9.263
38106SOL    HW216216  10.618  12.152   9.183
38107SOL     OW16217  10.702   8.433   9.639
38107SOL    HW116218  10.668   8.522   9.650
38107SOL    HW216219  10.776   8.428   9.699
38108SOL     OW16220   5.325   0.786  10.641
38108SOL    HW116221   5.271   0.788  10.720
38108SOL    HW216222   5.365   0.873  10.637
38109SOL     OW16223   5.299   6.191   6.993
38109SOL    HW116224   5.257   6.141   6.923
38109SOL    HW216225   5.374   6.137   7.020
38110SOL     OW16226   7.760   3.209  12.600
38110SOL    HW116227   7.722   3.188  12.514
38110SOL    HW216228   7.838   3.261  12.580
38111SOL     OW16229   3.643  14.582   2.476
38111SOL    HW116230   3.721  14.623   2.516
38111SOL    HW216231   3.627  14.634   2.398
38112SOL     OW16232   4.101   3.889   6.086
38112SOL    HW116233   4.018   3.847   6.063
38112SOL    HW216234   4.139   3.914   6.002
38113SOL     OW16235   1.250   5.067  11.359
38113SOL    HW116236   1.247   4.986  11.308
38113SOL    HW216237   1.198   5.129  11.308
38114SOL     OW16238  13.746  10.607   0.868
38114SOL    HW116239  13.753  10.522   0.823
38114SOL    HW216240  13.684  10.656   0.815
38115SOL     OW16241  10.842   5.355   1.160
38115SOL    HW116242  10.748   5.368   1.175
38115SOL    HW216243  10.869   5.432   1.110
38116SOL     OW16244  12.269  13.731  11.841
38116SOL    HW116245  12.279  13.803  11.903
38116SOL    HW216246  12.325  13.754  11.767
38117SOL     OW16247   6.588   4.652   4.681
38117SOL    HW116248   6.624   4.568   4.708
38117SOL    HW216249   6.579   4.702   4.762
38118SOL     OW16250   4.204  14.537  14.580
38118SOL    HW116251   4.294  14.558  14.608
38118SOL    HW216252   4.216  14.482  14.502
38119SOL     OW16253   3.897   8.252   5.451
38119SOL    HW116254   3.809   8.260   5.486
38119SOL    HW216255   3.954   8.278   5.523
38120SOL     OW16256  11.716  13.649   6.653
38120SOL    HW116257  11.758  13.562   6.649
38120SOL    HW216258  11.636  13.635   6.702
38121SOL     OW16259  10.597   2.057  11.442
38121SOL    HW116260  10.537   2.128  11.464
38121SOL    HW216261  10.646   2.089  11.366
38122SOL     OW16262   3.031  10.509   7.850
38122SOL    HW116263   2.938  10.523   7.866
38122SOL    HW216264   3.064  10.594   7.821
38123SOL     OW16265  14.567   9.403   1.158
38123SOL    HW116266  14.494   9.374   1.104
38123SOL    HW216267  14.554   9.358   1.242
38124SOL     OW16268   5.179   5.791   4.423
38124SOL    HW116269   5.163   5.883   4.400
38124SOL    HW216270   5.231   5.758   4.350
38125SOL     OW16271   0.604   2.186  12.621
38125SOL    HW116272   0.607   2.145  12.708
38125SOL    HW216273   0.528   2.145  12.578
38126SOL     OW16274   5.528   3.775   1.962
38126SOL    HW116275   5.474   3.699   1.938
38126SOL    HW216276   5.495   3.847   1.909
38127SOL     OW16277   1.268   4.500   7.116
38127SOL    HW116278   1.234   4.456   7.194
38127SOL    HW216279   1.236   4.447   7.043
38128SOL     OW16280   8.411   2.083  12.892
38128SOL    HW116281   8.323   2.061  12.858
38128SOL    HW216282   8.464   2.095  12.813
38129SOL     OW16283   3.022   5.872   0.075
38129SOL    HW116284   3.040   5.966   0.070
38129SOL    HW216285   3.083   5.839   0.141
38130SOL     OW16286   7.637   0.361   3.930
38130SOL    HW116287   7.634   0.268   3.910
38130SOL    HW216288   7.545   0.390   3.924
38131SOL     OW16289   5.649   7.041   6.089
38131SOL    HW116290   5.683   6.955   6.115
38131SOL    HW216291   5.597   7.070   6.164
38132SOL     OW16292   7.541   6.855   8.144
38132SOL    HW116293   7.548   6.881   8.236
38132SOL    HW216294   7.606   6.909   8.099
38133SOL     OW16295  12.184   6.679   1.704
38133SOL    HW116296  12.228   6.757   1.736
38133SOL    HW216297  12.242   6.606   1.727
38134SOL     OW16298   9.774   9.343   5.590
38134SOL    HW116299   9.837   9.272   5.600
38134SOL    HW216300   9.796   9.406   5.659
38135SOL     OW16301   5.421   7.232  10.296
38135SOL    HW116302   5.369   7.168  10.346
38135SOL    HW216303   5.375   7.240  10.212
38136SOL     OW16304   2.169  12.012   9.296
38136SOL    HW116305   2.151  12.090   9.243
38136SOL    HW216306   2.152  12.039   9.386
38137SOL     OW16307   0.576  11.543   6.891
38137SOL    HW116308   0.499  11.559   6.945
38137SOL    HW216309   0.550  11.569   6.802
38138SOL     OW16310  13.445   9.227   6.436
38138SOL    HW116311  13.471   9.249   6.526
38138SOL    HW216312  13.525   9.240   6.385
38139SOL     OW16313   2.489  10.082   2.892
38139SOL    HW116314   2.420  10.122   2.945
38139SOL    HW216315   2.558  10.060   2.955
38140SOL     OW16316   4.861   2.371  13.950
38140SOL    HW116317   4.907   2.318  13.886
38140SOL    HW216318   4.869   2.461  13.918
38141SOL     OW16319  11.482   0.049   5.683
38141SOL    HW116320  11.499  14.836   5.696
38141SOL    HW216321  11.469   0.058   5.588
38142SOL     OW16322  14.311   3.783  12.499
38142SOL    HW116323  14.384   3.727  12.526
38142SOL    HW216324  14.303   3.848  12.568
38143SOL     OW16325   5.137   4.520   6.393
38143SOL    HW116326   5.114   4.609   6.418
38143SOL    HW216327   5.233   4.519   6.388
38144SOL     OW16328  11.547   1.798  12.318
38144SOL    HW116329  11.509   1.855  12.252
38144SOL    HW216330  11.473   1.745  12.349
38145SOL     OW16331   5.656   7.394   8.945
38145SOL    HW116332   5.654   7.460   9.015
38145SOL    HW216333   5.736   7.345   8.961
38146SOL     OW16334  10.564  12.673   3.680
38146SOL    HW116335  10.604  12.614   3.616
38146SOL    HW216336  10.471  12.675   3.655
38147SOL     OW16337   9.134   0.493  11.474
38147SOL    HW116338   9.202   0.441  11.516
38147SOL    HW216339   9.097   0.436  11.407
38148SOL     OW16340   9.696   6.137   1.045
38148SOL    HW116341   9.723   6.214   0.995
38148SOL    HW216342   9.733   6.063   0.998
38149SOL     OW16343  13.612   2.790  13.022
38149SOL    HW116344  13.640   2.722  13.084
38149SOL    HW216345  13.554   2.745  12.962
38150SOL     OW16346   1.468   2.715   7.901
38150SOL    HW116347   1.389   2.662   7.893
38150SOL    HW216348   1.506   2.689   7.984
38151SOL     OW16349  11.084  10.793  12.017
38151SOL    HW116350  11.109  10.722  11.958
38151SOL    HW216351  11.014  10.756  12.071
38152SOL     OW16352   8.454   0.309   9.228
38152SOL    HW116353   8.439   0.390   9.277
38152SOL    HW216354   8.506   0.254   9.287
38153SOL     OW16355   2.088   4.605  11.959
38153SOL    HW116356   2.059   4.688  11.997
38153SOL    HW216357   2.094   4.545  12.033
38154SOL     OW16358  10.304   3.893   9.620
38154SOL    HW116359  10.394   3.884   9.650
38154SOL    HW216360  10.310   3.952   9.544
38155SOL     OW16361   1.353  14.578  11.174
38155SOL    HW116362   1.337  14.672  11.164
38155SOL    HW216363   1.291  14.537  11.114
38156SOL     OW16364   2.758   3.464  11.014
38156SOL    HW116365   2.704   3.410  11.072
38156SOL    HW216366   2.800   3.527  11.072
38157SOL     OW16367   8.267   0.371  10.057
38157SOL    HW116368   8.279   0.299   9.995
38157SOL    HW216369   8.349   0.420  10.053
38158SOL     OW16370  10.361  13.356  11.882
38158SOL    HW116371  10.443  13.306  11.886
38158SOL    HW216372  10.364  13.412  11.960
38159SOL     OW16373  11.542   2.688   4.172
38159SOL    HW116374  11.581   2.684   4.259
38159SOL    HW216375  11.495   2.772   4.171
38160SOL     OW16376  12.382   9.146  13.473
38160SOL    HW116377  12.449   9.081  13.454
38160SOL    HW216378  12.430   9.219  13.513
38161SOL     OW16379   7.648   8.434   3.207
38161SOL    HW116380   7.651   8.530   3.206
38161SOL    HW216381   7.570   8.412   3.156
38162SOL     OW16382  12.410  10.422   7.440
38162SOL    HW116383  12.370  10.355   7.496
38162SOL    HW216384  12.379  10.505   7.476
38163SOL     OW16385   0.614   5.724   0.578
38163SOL    HW116386   0.621   5.819   0.589
38163SOL    HW216387   0.520   5.708   0.569
38164SOL     OW16388   3.826   5.286  13.941
38164SOL    HW116389   3.813   5.220  14.009
38164SOL    HW216390   3.739   5.297  13.902
38165SOL     OW16391   3.623  14.447   6.933
38165SOL    HW116392   3.657  14.473   6.847
38165SOL    HW216393   3.554  14.384   6.913
38166SOL     OW16394  14.728   6.997  10.323
38166SOL    HW116395  14.734   6.969  10.415
38166SOL    HW216396  14.640   6.973  10.296
38167SOL     OW16397   8.213  13.305   5.661
38167SOL    HW116398   8.191  13.221   5.701
38167SOL    HW216399   8.306  13.317   5.679
38168SOL     OW16400   0.420  13.643   6.396
38168SOL    HW116401   0.455  13.563   6.356
38168SOL    HW216402   0.453  13.714   6.340
38169SOL     OW16403   8.343   7.414  10.097
38169SOL    HW116404   8.256   7.386  10.070
38169SOL    HW216405   8.330   7.498  10.140
38170SOL     OW16406   8.989   6.704  14.806
38170SOL    HW116407   9.044   6.720  14.730
38170SOL    HW216408   8.952   6.790  14.828
38171SOL     OW16409   7.703  12.858   4.502
38171SOL    HW116410   7.658  12.818   4.576
38171SOL    HW216411   7.668  12.947   4.497
38172SOL     OW16412   1.147   7.623  12.298
38172SOL    HW116413   1.203   7.678  12.244
38172SOL    HW216414   1.069   7.609  12.244
38173SOL     OW16415   4.011   6.896   5.275
38173SOL    HW116416   4.003   6.813   5.229
38173SOL    HW216417   4.006   6.872   5.368
38174SOL     OW16418   4.323  13.979   1.861
38174SOL    HW116419   4.368  14.004   1.942
38174SOL    HW216420   4.391  13.941   1.806
38175SOL     OW16421   1.600  14.226  14.113
38175SOL    HW116422   1.560  14.287  14.175
38175SOL    HW216423   1.590  14.268  14.027
38176SOL     OW16424   0.158   0.906   7.036
38176SOL    HW116425   0.207   0.853   7.098
38176SOL    HW216426   0.154   0.993   7.076
38177SOL     OW16427   4.320   6.677   5.836
38177SOL    HW116428   4.386   6.608   5.832
38177SOL    HW216429   4.282   6.680   5.749
38178SOL     OW16430   6.838   4.863   3.248
38178SOL    HW116431   6.837   4.948   3.292
38178SOL    HW216432   6.746   4.845   3.230
38179SOL     OW16433   2.357  11.409   6.158
38179SOL    HW116434   2.383  11.478   6.218
38179SOL    HW216435   2.394  11.329   6.196
38180SOL     OW16436   6.457   6.696   1.444
38180SOL    HW116437   6.463   6.788   1.421
38180SOL    HW216438   6.521   6.652   1.388
38181SOL     OW16439   6.304   4.611   4.747
38181SOL    HW116440   6.385   4.624   4.698
38181SOL    HW216441   6.321   4.536   4.803
38182SOL     OW16442   3.423   1.018  10.562
38182SOL    HW116443   3.336   1.041  10.597
38182SOL    HW216444   3.436   1.080  10.490
38183SOL     OW16445   4.693  13.260   3.273
38183SOL    HW116446   4.712  13.333   3.215
38183SOL    HW216447   4.613  13.286   3.319
38184SOL     OW16448   0.174  10.150  14.755
38184SOL    HW116449   0.114  10.097  14.703
38184SOL    HW216450   0.230  10.086  14.800
38185SOL     OW16451  14.733  13.098   6.255
38185SOL    HW116452  14.805  13.137   6.206
38185SOL    HW216453  14.751  13.004   6.254
38186SOL     OW16454   7.671   1.594  10.682
38186SOL    HW116455   7.685   1.682  10.719
38186SOL    HW216456   7.584   1.569  10.712
38187SOL     OW16457   3.416   8.167   1.036
38187SOL    HW116458   3.465   8.227   1.093
38187SOL    HW216459   3.333   8.153   1.081
38188SOL     OW16460  11.308  13.912  13.912
38188SOL    HW116461  11.252  13.855  13.860
38188SOL    HW216462  11.357  13.853  13.969
38189SOL     OW16463  11.248   4.129   5.280
38189SOL    HW116464  11.263   4.036   5.297
38189SOL    HW216465  11.291   4.175   5.352
38190SOL     OW16466   5.171   9.954  11.527
38190SOL    HW116467   5.147  10.035  11.482
38190SOL    HW216468   5.224   9.906  11.463
38191SOL     OW16469   0.645  10.164  12.953
38191SOL    HW116470   0.652  10.135  13.044
38191SOL    HW216471   0.632  10.259  12.959
38192SOL     OW16472   0.709   0.390   2.272
38192SOL    HW116473   0.682   0.338   2.196
38192SOL    HW216474   0.660   0.353   2.346
38193SOL     OW16475   9.332   0.588   8.234
38193SOL    HW116476   9.252   0.630   8.202
38193SOL    HW216477   9.399   0.611   8.170
38194SOL     OW16478   1.273  10.007   8.787
38194SOL    HW116479   1.302   9.956   8.863
38194SOL    HW216480   1.278  10.098   8.815
38195SOL     OW16481  11.822   5.347   0.567
38195SOL    HW116482  11.881   5.422   0.566
38195SOL    HW216483  11.812   5.326   0.660
38196SOL     OW16484   6.497  14.626   8.937
38196SOL    HW116485   6.448  14.592   9.012
38196SOL    HW216486   6.503  14.552   8.877
38197SOL     OW16487   5.138   0.139   9.448
38197SOL    HW116488   5.159   0.171   9.536
38197SOL    HW216489   5.045   0.118   9.453
38198SOL     OW16490  10.583   0.993   9.379
38198SOL    HW116491  10.551   1.011   9.290
38198SOL    HW216492  10.518   1.033   9.437
38199SOL     OW16493   7.572  12.802   4.752
38199SOL    HW116494   7.536  12.785   4.840
38199SOL    HW216495   7.529  12.883   4.724
38200SOL     OW16496   2.603   8.882   7.164
38200SOL    HW116497   2.510   8.906   7.163
38200SOL    HW216498   2.634   8.904   7.077
38201SOL     OW16499   0.652   6.113   3.347
38201SOL    HW116500   0.702   6.191   3.327
38201SOL    HW216501   0.669   6.097   3.440
38202SOL     OW16502   0.981   2.506   7.582
38202SOL    HW116503   0.914   2.469   7.525
38202SOL    HW216504   0.933   2.562   7.643
38203SOL     OW16505  13.570  14.545   8.539
38203SOL    HW116506  13.476  14.525   8.547
38203SOL    HW216507  13.604  14.473   8.486
38204SOL     OW16508   1.366   6.345   6.629
38204SOL    HW116509   1.361   6.428   6.675
38204SOL    HW216510   1.283   6.302   6.649
38205SOL     OW16511   0.129  11.211   6.015
38205SOL    HW116512   0.145  11.117   6.014
38205SOL    HW216513   0.146  11.237   6.105
38206SOL     OW16514  10.789  11.829   8.480
38206SOL    HW116515  10.882  11.842   8.463
38206SOL    HW216516  10.747  11.845   8.396
38207SOL     OW16517  11.183   0.496  12.078
38207SOL    HW116518  11.219   0.445  12.150
38207SOL    HW216519  11.217   0.455  11.999
38208SOL     OW16520  12.942  12.487   5.309
38208SOL    HW116521  13.011  12.460   5.249
38208SOL    HW216522  12.933  12.582   5.295
38209SOL     OW16523   8.307  11.581   4.765
38209SOL    HW116524   8.287  11.600   4.673
38209SOL    HW216525   8.401  11.598   4.773
38210SOL     OW16526   5.451  10.153   0.452
38210SOL    HW116527   5.388  10.123   0.387
38210SOL    HW216528   5.432  10.102   0.530
38211SOL     OW16529   8.892  13.735   1.775
38211SOL    HW116530   8.906  13.826   1.750
38211SOL    HW216531   8.913  13.734   1.869
38212SOL     OW16532   6.022   5.040   6.186
38212SOL    HW116533   5.972   4.961   6.204
38212SOL    HW216534   5.989   5.072   6.103
38213SOL     OW16535  12.028   2.216  13.920
38213SOL    HW116536  12.114   2.185  13.948
38213SOL    HW216537  11.993   2.263  13.996
38214SOL     OW16538   5.359   6.350   8.150
38214SOL    HW116539   5.283   6.369   8.094
38214SOL    HW216540   5.390   6.265   8.119
38215SOL     OW16541  10.611   2.068   0.118
38215SOL    HW116542  10.658   2.005   0.064
38215SOL    HW216543  10.553   2.114   0.058
38216SOL     OW16544  14.713  11.499   9.803
38216SOL    HW116545  14.743  11.444   9.731
38216SOL    HW216546  14.766  11.579   9.795
38217SOL     OW16547   2.404  10.915  13.274
38217SOL    HW116548   2.495  10.930  13.300
38217SOL    HW216549   2.398  10.821  13.259
38218SOL     OW16550   3.887  14.050   6.198
38218SOL    HW116551   3.894  14.025   6.290
38218SOL    HW216552   3.806  14.101   6.194
38219SOL     OW16553   7.679   2.588  13.458
38219SOL    HW116554   7.703   2.537  13.536
38219SOL    HW216555   7.734   2.666  13.462
38220SOL     OW16556   3.858  14.663   7.720
38220SOL    HW116557   3.942  14.709   7.716
38220SOL    HW216558   3.818  14.694   7.802
38221SOL     OW16559   2.707   3.351   5.612
38221SOL    HW116560   2.673   3.393   5.533
38221SOL    HW216561   2.638   3.290   5.638
38222SOL     OW16562  11.166  10.841   1.834
38222SOL    HW116563  11.244  10.855   1.888
38222SOL    HW216564  11.130  10.758   1.866
38223SOL     OW16565   7.687  13.958  13.508
38223SOL    HW116566   7.617  13.915  13.558
38223SOL    HW216567   7.657  14.049  13.500
38224SOL     OW16568  11.847  11.957   2.252
38224SOL    HW116569  11.913  11.953   2.321
38224SOL    HW216570  11.885  12.014   2.185
38225SOL     OW16571   9.861   8.904   1.981
38225SOL    HW116572   9.775   8.926   2.017
38225SOL    HW216573   9.918   8.897   2.058
38226SOL     OW16574  10.556   5.186  11.266
38226SOL    HW116575  10.545   5.244  11.341
38226SOL    HW216576  10.651   5.182  11.253
38227SOL     OW16577  13.960  12.305   3.206
38227SOL    HW116578  13.977  12.270   3.294
38227SOL    HW216579  13.865  12.305   3.199
38228SOL     OW16580  11.853   1.137   9.633
38228SOL    HW116581  11.821   1.135   9.723
38228SOL    HW216582  11.873   1.045   9.612
38229SOL     OW16583   4.121   0.952   1.698
38229SOL    HW116584   4.076   1.017   1.753
38229SOL    HW216585   4.050   0.899   1.661
38230SOL     OW16586   4.736   8.477  14.775
38230SOL    HW116587   4.719   8.569  14.754
38230SOL    HW216588   4.710   8.429  14.696
38231SOL     OW16589  13.840  13.479   1.057
38231SOL    HW116590  13.917  13.533   1.043
38231SOL    HW216591  13.873  13.399   1.099
38232SOL     OW16592   6.205  11.239   6.104
38232SOL    HW116593   6.289  11.234   6.058
38232SOL    HW216594   6.217  11.187   6.184
38233SOL     OW16595   6.504   3.281  11.937
38233SOL    HW116596   6.541   3.309  11.853
38233SOL    HW216597   6.576   3.289  11.999
38234SOL     OW16598   4.268  12.248   8.281
38234SOL    HW116599   4.196  12.186   8.282
38234SOL    HW216600   4.236  12.324   8.330
38235SOL     OW16601   1.830   9.885   4.970
38235SOL    HW116602   1.764   9.901   5.037
38235SOL    HW216603   1.782   9.843   4.898
38236SOL     OW16604   2.821   6.487   6.973
38236SOL    HW116605   2.726   6.479   6.979
38236SOL    HW216606   2.852   6.398   6.953
38237SOL     OW16607   7.762   6.996   8.991
38237SOL    HW116608   7.681   6.955   8.962
38237SOL    HW216609   7.831   6.952   8.941
38238SOL     OW16610   2.131   3.607   0.684
38238SOL    HW116611   2.070   3.570   0.620
38238SOL    HW216612   2.214   3.615   0.637
38239SOL     OW16613  13.130   8.715  14.609
38239SOL    HW116614  13.114   8.803  14.574
38239SOL    HW216615  13.064   8.660  14.568
38240SOL     OW16616   6.367  11.178   8.300
38240SOL    HW116617   6.430  11.229   8.249
38240SOL    HW216618   6.316  11.244   8.347
38241SOL     OW16619   6.294  12.109   9.160
38241SOL    HW116620   6.309  12.165   9.084
38241SOL    HW216621   6.207  12.135   9.191
38242SOL     OW16622   1.641  14.780   2.259
38242SOL    HW116623   1.612  14.767   2.168
38242SOL    HW216624   1.729  14.815   2.251
38243SOL     OW16625  11.489   9.692   4.366
38243SOL    HW116626  11.434   9.618   4.340
38243SOL    HW216627  11.560   9.653   4.416
38244SOL     OW16628   3.510   6.391  10.923
38244SOL    HW116629   3.422   6.427  10.913
38244SOL    HW216630   3.556   6.456  10.975
38245SOL     OW16631  12.260   8.936   5.130
38245SOL    HW116632  12.192   8.989   5.170
38245SOL    HW216633  12.244   8.944   5.036
38246SOL     OW16634   4.780   3.119  11.361
38246SOL    HW116635   4.732   3.041  11.389
38246SOL    HW216636   4.856   3.122  11.419
38247SOL     OW16637  10.199   1.127   1.029
38247SOL    HW116638  10.185   1.107   1.122
38247SOL    HW216639  10.287   1.094   1.011
38248SOL     OW16640   2.552   1.964   6.163
38248SOL    HW116641   2.477   1.912   6.193
38248SOL    HW216642   2.515   2.024   6.098
38249SOL     OW16643   7.804  14.855   2.014
38249SOL    HW116644   7.812  14.799   1.937
38249SOL    HW216645   7.719  14.833   2.052
38250SOL     OW16646   1.875   8.087   8.411
38250SOL    HW116647   1.883   8.179   8.439
38250SOL    HW216648   1.791   8.083   8.366
38251SOL     OW16649   9.560   9.081   0.672
38251SOL    HW116650   9.593   9.156   0.622
38251SOL    HW216651   9.563   9.109   0.763
38252SOL     OW16652   3.824   2.165   8.614
38252SOL    HW116653   3.778   2.160   8.698
38252SOL    HW216654   3.816   2.077   8.577
38253SOL     OW16655   3.907   8.853  11.116
38253SOL    HW116656   3.864   8.887  11.037
38253SOL    HW216657   3.838   8.851  11.182
38254SOL     OW16658   1.803   5.452   6.478
38254SOL    HW116659   1.821   5.359   6.467
38254SOL    HW216660   1.836   5.493   6.398
38255SOL     OW16661  14.723   2.999   5.252
38255SOL    HW116662  14.650   2.938   5.252
38255SOL    HW216663  14.798   2.949   5.219
38256SOL     OW16664   1.875   9.251   0.623
38256SOL    HW116665   1.907   9.336   0.655
38256SOL    HW216666   1.933   9.230   0.550
38257SOL     OW16667  13.268  13.289   2.713
38257SOL    HW116668  13.282  13.196   2.695
38257SOL    HW216669  13.189  13.311   2.663
38258SOL     OW16670   4.008   3.990  12.160
38258SOL    HW116671   3.914   3.974  12.150
38258SOL    HW216672   4.014   4.076  12.202
38259SOL     OW16673   6.389   2.234   4.730
38259SOL    HW116674   6.380   2.168   4.661
38259SOL    HW216675   6.433   2.187   4.802
38260SOL     OW16676   6.824  14.034  13.885
38260SOL    HW116677   6.794  14.085  13.960
38260SOL    HW216678   6.903  13.990  13.915
38261SOL     OW16679  11.036  14.297   6.621
38261SOL    HW116680  11.108  14.358   6.640
38261SOL    HW216681  10.970  14.350   6.577
38262SOL     OW16682   4.670   5.144  14.763
38262SOL    HW116683   4.678   5.215  14.826
38262SOL    HW216684   4.712   5.069  14.805
38263SOL     OW16685   7.642  10.275  13.708
38263SOL    HW116686   7.582  10.315  13.645
38263SOL    HW216687   7.610  10.185  13.717
38264SOL     OW16688   0.492   5.559  13.240
38264SOL    HW116689   0.519   5.648  13.262
38264SOL    HW216690   0.460   5.522  13.323
38265SOL     OW16691   3.548   9.992  13.250
38265SOL    HW116692   3.573  10.035  13.168
38265SOL    HW216693   3.533  10.064  13.311
38266SOL     OW16694   7.437  11.412   5.553
38266SOL    HW116695   7.502  11.416   5.623
38266SOL    HW216696   7.465  11.337   5.499
38267SOL     OW16697   4.687  14.043   1.063
38267SOL    HW116698   4.714  13.957   1.032
38267SOL    HW216699   4.689  14.098   0.984
38268SOL     OW16700   3.266  13.119   7.574
38268SOL    HW116701   3.271  13.086   7.485
38268SOL    HW216702   3.178  13.096   7.604
38269SOL     OW16703  14.371  12.501  10.434
38269SOL    HW116704  14.358  12.459  10.349
38269SOL    HW216705  14.414  12.584  10.414
38270SOL     OW16706  12.500  14.258  11.221
38270SOL    HW116707  12.578  14.311  11.204
38270SOL    HW216708  12.446  14.313  11.277
38271SOL     OW16709  11.484  13.231   5.336
38271SOL    HW116710  11.455  13.255   5.424
38271SOL    HW216711  11.532  13.308   5.305
38272SOL     OW16712  13.383  11.600  12.772
38272SOL    HW116713  13.322  11.664  12.737
38272SOL    HW216714  13.384  11.530  12.707
38273SOL     OW16715   5.584   0.775   9.640
38273SOL    HW116716   5.640   0.845   9.674
38273SOL    HW216717   5.503   0.782   9.692
38274SOL     OW16718   2.466  11.163   6.277
38274SOL    HW116719   2.389  11.151   6.333
38274SOL    HW216720   2.462  11.090   6.215
38275SOL     OW16721   0.692   5.970  13.518
38275SOL    HW116722   0.779   5.974  13.478
38275SOL    HW216723   0.648   5.900  13.470
38276SOL     OW16724   6.800  10.420   4.703
38276SOL    HW116725   6.804  10.458   4.790
38276SOL    HW216726   6.854  10.477   4.648
38277SOL     OW16727  14.406   0.904   8.911
38277SOL    HW116728  14.338   0.963   8.945
38277SOL    HW216729  14.461   0.885   8.987
38278SOL     OW16730   5.326   3.983  12.680
38278SOL    HW116731   5.282   4.049  12.733
38278SOL    HW216732   5.400   4.028  12.641
38279SOL     OW16733   2.662   5.511   7.798
38279SOL    HW116734   2.741   5.460   7.776
38279SOL    HW216735   2.610   5.452   7.853
38280SOL     OW16736   7.551  12.012  14.853
38280SOL    HW116737   7.611  11.968  14.792
38280SOL    HW216738   7.554  11.959   0.053
38281SOL     OW16739   5.759   0.418  14.746
38281SOL    HW116740   5.819   0.469  14.800
38281SOL    HW216741   5.816   0.374  14.683
38282SOL     OW16742  13.513   8.384   9.827
38282SOL    HW116743  13.604   8.382   9.797
38282SOL    HW216744  13.462   8.383   9.746
38283SOL     OW16745  14.279   0.732  13.655
38283SOL    HW116746  14.254   0.822  13.633
38283SOL    HW216747  14.362   0.741  13.701
38284SOL     OW16748   4.631   7.532  11.316
38284SOL    HW116749   4.700   7.487  11.365
38284SOL    HW216750   4.558   7.470  11.316
38285SOL     OW16751   2.059  12.989   2.007
38285SOL    HW116752   2.076  12.899   1.982
38285SOL    HW216753   2.108  13.002   2.088
38286SOL     OW16754   6.343  13.082   3.350
38286SOL    HW116755   6.398  13.041   3.418
38286SOL    HW216756   6.381  13.168   3.338
38287SOL     OW16757  13.107  10.835  12.885
38287SOL    HW116758  13.092  10.806  12.975
38287SOL    HW216759  13.128  10.754  12.838
38288SOL     OW16760   9.768   3.098  11.747
38288SOL    HW116761   9.758   3.034  11.676
38288SOL    HW216762   9.778   3.182  11.703
38289SOL     OW16763   9.639   6.070   1.556
38289SOL    HW116764   9.656   6.068   1.650
38289SOL    HW216765   9.662   6.159   1.529
38290SOL     OW16766   2.303  10.694  12.045
38290SOL    HW116767   2.371  10.684  12.112
38290SOL    HW216768   2.223  10.712  12.094
38291SOL     OW16769   2.693  11.197   5.472
38291SOL    HW116770   2.613  11.243   5.498
38291SOL    HW216771   2.741  11.184   5.554
38292SOL     OW16772   6.490   6.542  14.325
38292SOL    HW116773   6.439   6.587  14.257
38292SOL    HW216774   6.581   6.556  14.299
38293SOL     OW16775  13.333   7.122   2.212
38293SOL    HW116776  13.351   7.063   2.139
38293SOL    HW216777  13.279   7.071   2.272
38294SOL     OW16778  12.432   2.074   1.114
38294SOL    HW116779  12.515   2.080   1.066
38294SOL    HW216780  12.455   2.101   1.203
38295SOL     OW16781  10.767   2.879  12.980
38295SOL    HW116782  10.753   2.964  13.023
38295SOL    HW216783  10.696   2.824  13.012
38296SOL     OW16784   9.822   0.553   9.408
38296SOL    HW116785   9.761   0.623   9.385
38296SOL    HW216786   9.845   0.513   9.324
38297SOL     OW16787   9.244   1.205  10.007
38297SOL    HW116788   9.205   1.225   9.922
38297SOL    HW216789   9.216   1.116  10.027
38298SOL     OW16790   7.709   3.832   8.915
38298SOL    HW116791   7.636   3.812   8.857
38298SOL    HW216792   7.785   3.794   8.873
38299SOL     OW16793   9.132   0.795   5.450
38299SOL    HW116794   9.160   0.736   5.519
38299SOL    HW216795   9.138   0.883   5.489
38300SOL     OW16796   1.223  10.151  11.553
38300SOL    HW116797   1.217  10.245  11.537
38300SOL    HW216798   1.256  10.144  11.643
38301SOL     OW16799  11.351  10.095   8.596
38301SOL    HW116800  11.264  10.104   8.634
38301SOL    HW216801  11.410  10.087   8.671
38302SOL     OW16802  12.705   0.126   6.462
38302SOL    HW116803  12.785   0.160   6.503
38302SOL    HW216804  12.731   0.107   6.371
38303SOL     OW16805  14.362   3.791  10.204
38303SOL    HW116806  14.359   3.733  10.280
38303SOL    HW216807  14.276   3.782  10.163
38304SOL     OW16808   1.037   1.394   4.739
38304SOL    HW116809   0.992   1.450   4.675
38304SOL    HW216810   0.967   1.345   4.781
38305SOL     OW16811   2.248   6.990   1.918
38305SOL    HW116812   2.325   7.031   1.956
38305SOL    HW216813   2.179   7.003   1.983
38306SOL     OW16814   5.981  13.676   1.308
38306SOL    HW116815   6.007  13.652   1.398
38306SOL    HW216816   5.984  13.772   1.307
38307SOL     OW16817   6.117  10.097   2.018
38307SOL    HW116818   6.032  10.118   1.980
38307SOL    HW216819   6.161  10.045   1.951
38308SOL     OW16820   8.929  11.689   6.342
38308SOL    HW116821   8.882  11.620   6.390
38308SOL    HW216822   8.950  11.649   6.258
38309SOL     OW16823   3.980   5.274   2.342
38309SOL    HW116824   3.889   5.265   2.314
38309SOL    HW216825   4.031   5.229   2.275
38310SOL     OW16826   8.886  10.502   1.205
38310SOL    HW116827   8.858  10.475   1.293
38310SOL    HW216828   8.961  10.559   1.221
38311SOL     OW16829   2.756   4.907  11.055
38311SOL    HW116830   2.667   4.890  11.024
38311SOL    HW216831   2.808   4.836  11.018
38312SOL     OW16832   6.388   0.400   0.085
38312SOL    HW116833   6.313   0.447   0.047
38312SOL    HW216834   6.455   0.467   0.095
38313SOL     OW16835   2.751  12.270   6.877
38313SOL    HW116836   2.764  12.186   6.920
38313SOL    HW216837   2.838  12.307   6.870
38314SOL     OW16838  11.052   9.178   4.293
38314SOL    HW116839  11.099   9.240   4.237
38314SOL    HW216840  11.010   9.233   4.359
38315SOL     OW16841  11.714   7.726  10.427
38315SOL    HW116842  11.626   7.736  10.391
38315SOL    HW216843  11.773   7.755  10.358
38316SOL     OW16844   4.738   4.099   1.506
38316SOL    HW116845   4.662   4.042   1.508
38316SOL    HW216846   4.780   4.081   1.421
38317SOL     OW16847  14.307   7.222   0.894
38317SOL    HW116848  14.392   7.182   0.912
38317SOL    HW216849  14.244   7.151   0.907
38318SOL     OW16850   7.399  12.532   4.453
38318SOL    HW116851   7.355  12.503   4.373
38318SOL    HW216852   7.478  12.577   4.422
38319SOL     OW16853  10.710  11.444   6.953
38319SOL    HW116854  10.757  11.476   6.876
38319SOL    HW216855  10.735  11.352   6.959
38320SOL     OW16856   2.001   0.377   1.536
38320SOL    HW116857   1.980   0.450   1.477
38320SOL    HW216858   1.916   0.349   1.571
38321SOL     OW16859   8.008   5.246  11.092
38321SOL    HW116860   8.062   5.174  11.125
38321SOL    HW216861   8.071   5.310  11.059
38322SOL     OW16862   4.635   6.899   5.155
38322SOL    HW116863   4.649   6.991   5.133
38322SOL    HW216864   4.647   6.853   5.072
38323SOL     OW16865   8.241  11.177   9.497
38323SOL    HW116866   8.287  11.155   9.415
38323SOL    HW216867   8.301  11.148   9.566
38324SOL     OW16868  13.793  10.105   3.077
38324SOL    HW116869  13.872  10.142   3.116
38324SOL    HW216870  13.764  10.038   3.140
38325SOL     OW16871  13.285   0.087  11.202
38325SOL    HW116872  13.340   0.010  11.214
38325SOL    HW216873  13.269   0.119  11.290
38326SOL     OW16874   3.747   7.391   1.517
38326SOL    HW116875   3.778   7.346   1.438
38326SOL    HW216876   3.723   7.320   1.577
38327SOL     OW16877   9.358   9.590   3.326
38327SOL    HW116878   9.329   9.643   3.400
38327SOL    HW216879   9.385   9.654   3.260
38328SOL     OW16880   3.809  12.224   2.557
38328SOL    HW116881   3.798  12.270   2.640
38328SOL    HW216882   3.825  12.294   2.493
38329SOL     OW16883   7.280  14.291   2.781
38329SOL    HW116884   7.236  14.334   2.708
38329SOL    HW216885   7.366  14.268   2.746
38330SOL     OW16886   6.049   0.966  12.388
38330SOL    HW116887   6.076   0.885  12.431
38330SOL    HW216888   6.038   1.028  12.460
38331SOL     OW16889   4.900   2.274   6.080
38331SOL    HW116890   4.881   2.350   6.135
38331SOL    HW216891   4.977   2.235   6.121
38332SOL     OW16892   9.562   3.646   8.032
38332SOL    HW116893   9.518   3.564   8.008
38332SOL    HW216894   9.605   3.626   8.115
38333SOL     OW16895   3.400   7.646  13.182
38333SOL    HW116896   3.466   7.708  13.151
38333SOL    HW216897   3.344   7.631  13.106
38334SOL     OW16898   2.711   9.134   6.522
38334SOL    HW116899   2.802   9.158   6.538
38334SOL    HW216900   2.662   9.172   6.595
38335SOL     OW16901   4.907   7.875  13.236
38335SOL    HW116902   4.866   7.855  13.152
38335SOL    HW216903   4.867   7.812  13.297
38336SOL     OW16904   3.592  13.042   6.700
38336SOL    HW116905   3.618  12.964   6.749
38336SOL    HW216906   3.496  13.041   6.703
38337SOL     OW16907   6.421  14.683  11.890
38337SOL    HW116908   6.388  14.687  11.801
38337SOL    HW216909   6.413  14.772  11.923
38338SOL     OW16910   1.317  13.154   6.342
38338SOL    HW116911   1.353  13.068   6.321
38338SOL    HW216912   1.256  13.173   6.271
38339SOL     OW16913   7.415   7.044   5.449
38339SOL    HW116914   7.367   7.086   5.521
38339SOL    HW216915   7.424   7.112   5.383
38340SOL     OW16916  10.727   1.893   3.633
38340SOL    HW116917  10.653   1.919   3.578
38340SOL    HW216918  10.710   1.801   3.654
38341SOL     OW16919  11.475   4.710   7.653
38341SOL    HW116920  11.527   4.637   7.687
38341SOL    HW216921  11.491   4.782   7.714
38342SOL     OW16922   8.867  12.265   8.528
38342SOL    HW116923   8.955  12.257   8.565
38342SOL    HW216924   8.857  12.359   8.509
38343SOL     OW16925   0.593   5.183   9.562
38343SOL    HW116926   0.611   5.138   9.644
38343SOL    HW216927   0.674   5.174   9.512
38344SOL     OW16928   2.142   6.963   9.578
38344SOL    HW116929   2.221   6.911   9.565
38344SOL    HW216930   2.072   6.913   9.535
38345SOL     OW16931  13.797  13.642   6.636
38345SOL    HW116932  13.734  13.709   6.665
38345SOL    HW216933  13.852  13.687   6.571
38346SOL     OW16934   2.217   3.256  13.097
38346SOL    HW116935   2.300   3.211  13.111
38346SOL    HW216936   2.235   3.347  13.120
38347SOL     OW16937  12.108   7.922   4.132
38347SOL    HW116938  12.202   7.910   4.146
38347SOL    HW216939  12.081   7.983   4.201
38348SOL     OW16940   3.188   0.072   9.958
38348SOL    HW116941   3.254   0.075   9.889
38348SOL    HW216942   3.145   0.157   9.954
38349SOL     OW16943   3.781   1.992  11.896
38349SOL    HW116944   3.862   1.947  11.922
38349SOL    HW216945   3.718   1.921  11.881
38350SOL     OW16946   4.049   6.169  12.278
38350SOL    HW116947   4.090   6.168  12.365
38350SOL    HW216948   3.958   6.146  12.295
38351SOL     OW16949   1.546   4.373   6.446
38351SOL    HW116950   1.534   4.441   6.380
38351SOL    HW216951   1.585   4.417   6.520
38352SOL     OW16952   7.172   2.608  11.301
38352SOL    HW116953   7.231   2.661  11.355
38352SOL    HW216954   7.101   2.668  11.278
38353SOL     OW16955   1.989   2.956   0.472
38353SOL    HW116956   1.980   2.943   0.378
38353SOL    HW216957   2.077   2.991   0.483
38354SOL     OW16958   2.293   5.637   5.224
38354SOL    HW116959   2.368   5.652   5.167
38354SOL    HW216960   2.240   5.571   5.177
38355SOL     OW16961  11.356  11.946   7.420
38355SOL    HW116962  11.432  11.904   7.379
38355SOL    HW216963  11.360  11.918   7.512
38356SOL     OW16964   8.005  12.953  13.991
38356SOL    HW116965   8.101  12.949  13.993
38356SOL    HW216966   7.977  12.879  14.045
38357SOL     OW16967  14.744   3.494   1.644
38357SOL    HW116968  14.674   3.488   1.579
38357SOL    HW216969  14.767   3.403   1.663
38358SOL     OW16970  11.536   5.780  13.584
38358SOL    HW116971  11.610   5.837  13.604
38358SOL    HW216972  11.460   5.838  13.582
38359SOL     OW16973  12.290  10.909   2.481
38359SOL    HW116974  12.368  10.926   2.532
38359SOL    HW216975  12.310  10.828   2.433
38360SOL     OW16976  12.718  14.151   8.624
38360SOL    HW116977  12.759  14.145   8.538
38360SOL    HW216978  12.636  14.198   8.609
38361SOL     OW16979  14.029   1.778  10.820
38361SOL    HW116980  13.950   1.737  10.785
38361SOL    HW216981  14.098   1.712  10.808
38362SOL     OW16982   4.980  11.366   3.698
38362SOL    HW116983   4.929  11.299   3.652
38362SOL    HW216984   5.070  11.352   3.669
38363SOL     OW16985   1.465   6.526  14.087
38363SOL    HW116986   1.528   6.469  14.131
38363SOL    HW216987   1.511   6.608  14.073
38364SOL     OW16988   6.992   1.052   9.362
38364SOL    HW116989   7.040   1.097   9.293
38364SOL    HW216990   6.966   1.121   9.423
38365SOL     OW16991   3.394   4.286  11.800
38365SOL    HW116992   3.463   4.351  11.787
38365SOL    HW216993   3.355   4.275  11.714
38366SOL     OW16994   6.147  11.125   4.736
38366SOL    HW116995   6.216  11.084   4.788
38366SOL    HW216996   6.195  11.175   4.670
38367SOL     OW16997   0.230  13.756   5.594
38367SOL    HW116998   0.159  13.789   5.649
38367SOL    HW216999   0.307  13.758   5.650
38368SOL     OW17000  13.491   6.507   7.110
38368SOL    HW117001  13.399   6.522   7.132
38368SOL    HW217002  13.492   6.421   7.069
38369SOL     OW17003  12.276   2.716   5.378
38369SOL    HW117004  12.220   2.642   5.403
38369SOL    HW217005  12.359   2.675   5.354
38370SOL     OW17006   7.702   6.222   9.164
38370SOL    HW117007   7.636   6.288   9.143
38370SOL    HW217008   7.719   6.178   9.081
38371SOL     OW17009   7.025  11.668  14.848
38371SOL    HW117010   7.088  11.738  14.865
38371SOL    HW217011   7.004  11.633   0.054
38372SOL     OW17012   7.063   2.735   9.540
38372SOL    HW117013   7.066   2.652   9.587
38372SOL    HW217014   7.132   2.788   9.582
38373SOL     OW17015   4.906   2.052   6.797
38373SOL    HW117016   4.911   1.983   6.731
38373SOL    HW217017   4.955   2.017   6.871
38374SOL     OW17018   0.037  12.402  12.360
38374SOL    HW117019   0.001  12.322  12.323
38374SOL    HW217020   0.083  12.374  12.439
38375SOL     OW17021   7.917  14.159   5.993
38375SOL    HW117022   7.913  14.252   5.973
38375SOL    HW217023   7.910  14.116   5.908
38376SOL     OW17024   2.207   9.073  11.881
38376SOL    HW117025   2.225   8.999  11.824
38376SOL    HW217026   2.112   9.080  11.883
38377SOL     OW17027   0.764   7.091   2.993
38377SOL    HW117028   0.687   7.076   2.938
38377SOL    HW217029   0.819   7.149   2.940
38378SOL     OW17030  10.809  10.703   8.552
38378SOL    HW117031  10.851  10.777   8.597
38378SOL    HW217032  10.763  10.656   8.622
38379SOL     OW17033   5.090   1.920   8.739
38379SOL    HW117034   5.089   1.892   8.648
38379SOL    HW217035   5.183   1.921   8.763
38380SOL     OW17036   5.895  10.285   1.170
38380SOL    HW117037   5.807  10.296   1.207
38380SOL    HW217038   5.936  10.221   1.228
38381SOL     OW17039   5.122   1.696  12.640
38381SOL    HW117040   5.206   1.732  12.611
38381SOL    HW217041   5.057   1.761  12.611
38382SOL     OW17042   0.950  11.849   8.146
38382SOL    HW117043   0.984  11.761   8.131
38382SOL    HW217044   0.991  11.902   8.077
38383SOL     OW17045   1.680   5.648   9.436
38383SOL    HW117046   1.734   5.698   9.375
38383SOL    HW217047   1.599   5.699   9.444
38384SOL     OW17048   3.708   1.446  14.561
38384SOL    HW117049   3.756   1.391  14.499
38384SOL    HW217050   3.646   1.386  14.603
38385SOL     OW17051   6.228   8.852   2.370
38385SOL    HW117052   6.241   8.757   2.381
38385SOL    HW217053   6.220   8.864   2.276
38386SOL     OW17054   8.668   1.917   5.295
38386SOL    HW117055   8.669   1.880   5.206
38386SOL    HW217056   8.730   1.863   5.344
38387SOL     OW17057  11.260   2.222   8.893
38387SOL    HW117058  11.172   2.225   8.855
38387SOL    HW217059  11.253   2.268   8.976
38388SOL     OW17060   5.032  12.776  10.426
38388SOL    HW117061   4.988  12.720  10.490
38388SOL    HW217062   4.971  12.848  10.411
38389SOL     OW17063   9.036  10.860   3.462
38389SOL    HW117064   8.997  10.787   3.413
38389SOL    HW217065   8.997  10.938   3.423
38390SOL     OW17066   4.282   2.400  13.977
38390SOL    HW117067   4.276   2.380  13.884
38390SOL    HW217068   4.327   2.484  13.981
38391SOL     OW17069   0.424   2.671   9.145
38391SOL    HW117070   0.401   2.604   9.081
38391SOL    HW217071   0.519   2.661   9.157
38392SOL     OW17072   7.374  11.289  13.725
38392SOL    HW117073   7.317  11.353  13.682
38392SOL    HW217074   7.462  11.309  13.693
38393SOL     OW17075   0.710   4.181   4.952
38393SOL    HW117076   0.630   4.194   4.900
38393SOL    HW217077   0.700   4.094   4.990
38394SOL     OW17078  11.590  10.573  10.898
38394SOL    HW117079  11.605  10.496  10.843
38394SOL    HW217080  11.677  10.602  10.925
38395SOL     OW17081   4.512   1.053   0.387
38395SOL    HW117082   4.607   1.052   0.399
38395SOL    HW217083   4.496   1.124   0.325
38396SOL     OW17084   7.559   9.643  13.432
38396SOL    HW117085   7.486   9.599  13.389
38396SOL    HW217086   7.636   9.594  13.405
38397SOL     OW17087  11.919  14.545   2.505
38397SOL    HW117088  11.826  14.564   2.500
38397SOL    HW217089  11.961  14.614   2.454
38398SOL     OW17090  10.964   2.308   3.880
38398SOL    HW117091  10.955   2.239   3.945
38398SOL    HW217092  11.005   2.264   3.804
38399SOL     OW17093   7.722  13.103   6.425
38399SOL    HW117094   7.806  13.148   6.415
38399SOL    HW217095   7.690  13.092   6.335
38400SOL     OW17096   6.696  10.645   3.882
38400SOL    HW117097   6.708  10.567   3.937
38400SOL    HW217098   6.774  10.646   3.826
38401SOL     OW17099  11.348   4.332   1.004
38401SOL    HW117100  11.304   4.390   0.941
38401SOL    HW217101  11.419   4.291   0.954
38402SOL     OW17102  14.083   9.230   8.908
38402SOL    HW117103  14.166   9.190   8.881
38402SOL    HW217104  14.016   9.169   8.878
38403SOL     OW17105   3.211   1.337   6.848
38403SOL    HW117106   3.266   1.259   6.849
38403SOL    HW217107   3.137   1.313   6.793
38404SOL     OW17108   1.816   2.743  12.019
38404SOL    HW117109   1.785   2.830  11.993
38404SOL    HW217110   1.806   2.689  11.940
38405SOL     OW17111   5.499  11.115  14.502
38405SOL    HW117112   5.523  11.022  14.500
38405SOL    HW217113   5.520  11.143  14.590
38406SOL     OW17114  10.786   6.417  11.594
38406SOL    HW117115  10.699   6.403  11.632
38406SOL    HW217116  10.784   6.373  11.509
38407SOL     OW17117  12.460   1.293   8.954
38407SOL    HW117118  12.515   1.336   8.889
38407SOL    HW217119  12.510   1.216   8.981
38408SOL     OW17120   2.198   1.245  12.558
38408SOL    HW117121   2.268   1.274  12.500
38408SOL    HW217122   2.243   1.213  12.636
38409SOL     OW17123   9.194  10.882   5.694
38409SOL    HW117124   9.161  10.879   5.784
38409SOL    HW217125   9.117  10.870   5.640
38410SOL     OW17126  13.345   0.875   6.947
38410SOL    HW117127  13.415   0.930   6.981
38410SOL    HW217128  13.271   0.890   7.006
38411SOL     OW17129  13.109   7.455   7.391
38411SOL    HW117130  13.138   7.364   7.385
38411SOL    HW217131  13.038   7.462   7.328
38412SOL     OW17132  11.227   7.143   5.341
38412SOL    HW117133  11.254   7.067   5.392
38412SOL    HW217134  11.133   7.129   5.327
38413SOL     OW17135   2.973   8.863  14.428
38413SOL    HW117136   3.007   8.854  14.339
38413SOL    HW217137   3.039   8.916  14.473
38414SOL     OW17138   9.259  12.565   7.765
38414SOL    HW117139   9.190  12.501   7.785
38414SOL    HW217140   9.313  12.567   7.844
38415SOL     OW17141   4.243   2.331   7.072
38415SOL    HW117142   4.226   2.315   6.979
38415SOL    HW217143   4.214   2.251   7.116
38416SOL     OW17144   7.484   0.207  11.064
38416SOL    HW117145   7.420   0.156  11.115
38416SOL    HW217146   7.431   0.256  11.001
38417SOL     OW17147  11.231   5.077  14.379
38417SOL    HW117148  11.292   5.109  14.445
38417SOL    HW217149  11.251   4.984  14.370
38418SOL     OW17150   7.929  12.938  11.285
38418SOL    HW117151   7.894  12.963  11.199
38418SOL    HW217152   7.873  12.866  11.314
38419SOL     OW17153  13.433   6.602   6.814
38419SOL    HW117154  13.361   6.664   6.822
38419SOL    HW217155  13.451   6.574   6.903
38420SOL     OW17156   4.132   9.557   7.209
38420SOL    HW117157   4.060   9.519   7.258
38420SOL    HW217158   4.096   9.637   7.171
38421SOL     OW17159   5.468  12.156   1.542
38421SOL    HW117160   5.540  12.210   1.575
38421SOL    HW217161   5.403  12.218   1.510
38422SOL     OW17162   4.530   2.294   0.236
38422SOL    HW117163   4.558   2.367   0.291
38422SOL    HW217164   4.611   2.260   0.197
38423SOL     OW17165  10.305   8.827  14.756
38423SOL    HW117166  10.344   8.753  14.709
38423SOL    HW217167  10.251   8.786  14.823
38424SOL     OW17168   3.989   6.532   0.569
38424SOL    HW117169   3.952   6.489   0.646
38424SOL    HW217170   4.033   6.461   0.521
38425SOL     OW17171   4.317   5.484  12.479
38425SOL    HW117172   4.269   5.402  12.492
38425SOL    HW217173   4.303   5.534  12.559
38426SOL     OW17174   1.473   6.943  10.818
38426SOL    HW117175   1.383   6.916  10.837
38426SOL    HW217176   1.516   6.864  10.784
38427SOL     OW17177  13.013  12.474   3.256
38427SOL    HW117178  12.936  12.446   3.207
38427SOL    HW217179  13.073  12.400   3.251
38428SOL     OW17180   9.736  13.628   9.715
38428SOL    HW117181   9.651  13.633   9.760
38428SOL    HW217182   9.797  13.597   9.781
38429SOL     OW17183  13.624   7.396   3.883
38429SOL    HW117184  13.637   7.459   3.954
38429SOL    HW217185  13.703   7.404   3.830
38430SOL     OW17186   0.617  13.803  14.172
38430SOL    HW117187   0.624  13.711  14.146
38430SOL    HW217188   0.531  13.810  14.214
38431SOL     OW17189   9.226   2.893   4.594
38431SOL    HW117190   9.132   2.913   4.593
38431SOL    HW217191   9.264   2.953   4.530
38432SOL     OW17192  14.324  13.069  10.446
38432SOL    HW117193  14.378  13.082  10.368
38432SOL    HW217194  14.338  12.978  10.470
38433SOL     OW17195   6.465  10.959   6.512
38433SOL    HW117196   6.552  10.919   6.509
38433SOL    HW217197   6.423  10.919   6.589
38434SOL     OW17198   8.129   2.891  14.206
38434SOL    HW117199   8.169   2.869  14.121
38434SOL    HW217200   8.195   2.942  14.251
38435SOL     OW17201  11.128  11.285  13.701
38435SOL    HW117202  11.108  11.212  13.760
38435SOL    HW217203  11.072  11.270  13.625
38436SOL     OW17204  12.785   2.103  12.832
38436SOL    HW117205  12.716   2.152  12.877
38436SOL    HW217206  12.751   2.014  12.826
38437SOL     OW17207   9.282  14.814  10.948
38437SOL    HW117208   9.230   0.014  10.944
38437SOL    HW217209   9.320  14.805  10.861
38438SOL     OW17210   4.158   5.670   3.162
38438SOL    HW117211   4.146   5.577   3.184
38438SOL    HW217212   4.086   5.715   3.205
38439SOL     OW17213   8.168   3.917   1.665
38439SOL    HW117214   8.079   3.892   1.686
38439SOL    HW217215   8.212   3.924   1.750
38440SOL     OW17216   2.658   1.645  10.033
38440SOL    HW117217   2.753   1.634  10.027
38440SOL    HW217218   2.626   1.560  10.061
38441SOL     OW17219   9.288  11.380   3.180
38441SOL    HW117220   9.236  11.454   3.149
38441SOL    HW217221   9.242  11.303   3.148
38442SOL     OW17222   5.046   1.937   4.435
38442SOL    HW117223   4.959   1.911   4.404
38442SOL    HW217224   5.107   1.879   4.389
38443SOL     OW17225   5.994  10.656   5.470
38443SOL    HW117226   5.905  10.636   5.440
38443SOL    HW217227   5.990  10.748   5.496
38444SOL     OW17228  10.310   9.457   7.725
38444SOL    HW117229  10.293   9.508   7.803
38444SOL    HW217230  10.244   9.388   7.726
38445SOL     OW17231  11.900   1.231   3.286
38445SOL    HW117232  11.810   1.256   3.265
38445SOL    HW217233  11.928   1.295   3.351
38446SOL     OW17234   5.706   6.871   1.238
38446SOL    HW117235   5.748   6.829   1.313
38446SOL    HW217236   5.778   6.905   1.186
38447SOL     OW17237  11.190   8.853  13.879
38447SOL    HW117238  11.241   8.918  13.928
38447SOL    HW217239  11.231   8.770  13.902
38448SOL     OW17240   6.030   5.613  12.845
38448SOL    HW117241   5.941   5.647  12.860
38448SOL    HW217242   6.019   5.518  12.841
38449SOL     OW17243  14.715   4.804   0.347
38449SOL    HW117244  14.678   4.715   0.345
38449SOL    HW217245  14.750   4.814   0.436
38450SOL     OW17246   3.044   6.783  12.448
38450SOL    HW117247   2.952   6.805  12.431
38450SOL    HW217248   3.092   6.829  12.379
38451SOL     OW17249   2.716   1.788   2.393
38451SOL    HW117250   2.676   1.746   2.468
38451SOL    HW217251   2.642   1.824   2.343
38452SOL     OW17252  12.522  13.389   2.812
38452SOL    HW117253  12.457  13.407   2.744
38452SOL    HW217254  12.565  13.473   2.827
38453SOL     OW17255  10.764   3.197  10.071
38453SOL    HW117256  10.810   3.145  10.005
38453SOL    HW217257  10.825   3.203  10.144
38454SOL     OW17258   6.511   8.121  14.122
38454SOL    HW117259   6.565   8.118  14.042
38454SOL    HW217260   6.517   8.034  14.159
38455SOL     OW17261  14.436   3.368  11.179
38455SOL    HW117262  14.346   3.336  11.180
38455SOL    HW217263  14.478   3.320  11.108
38456SOL     OW17264   1.537  10.514   3.828
38456SOL    HW117265   1.554  10.421   3.844
38456SOL    HW217266   1.508  10.549   3.912
38457SOL     OW17267  10.753   2.682  12.651
38457SOL    HW117268  10.675   2.640  12.686
38457SOL    HW217269  10.789   2.619  12.589
38458SOL     OW17270   6.763   6.626  11.555
38458SOL    HW117271   6.785   6.715  11.528
38458SOL    HW217272   6.730   6.584  11.475
38459SOL     OW17273   0.028   5.052   3.910
38459SOL    HW117274  14.842   5.022   3.973
38459SOL    HW217275   0.068   5.128   3.952
38460SOL     OW17276   9.733   9.425   0.922
38460SOL    HW117277   9.663   9.482   0.953
38460SOL    HW217278   9.756   9.459   0.836
38461SOL     OW17279   7.285   6.182  13.394
38461SOL    HW117280   7.308   6.258  13.340
38461SOL    HW217281   7.189   6.185  13.397
38462SOL     OW17282   3.882   6.575  11.990
38462SOL    HW117283   3.802   6.523  11.986
38462SOL    HW217284   3.925   6.545  12.071
38463SOL     OW17285   5.995  11.757   7.433
38463SOL    HW117286   5.899  11.749   7.431
38463SOL    HW217287   6.015  11.769   7.526
38464SOL     OW17288   1.693  12.386  11.822
38464SOL    HW117289   1.646  12.303  11.832
38464SOL    HW217290   1.641  12.436  11.760
38465SOL     OW17291  13.340   5.815   7.241
38465SOL    HW117292  13.415   5.870   7.264
38465SOL    HW217293  13.369   5.765   7.165
38466SOL     OW17294   3.384  11.771  12.097
38466SOL    HW117295   3.480  11.777  12.094
38466SOL    HW217296   3.360  11.729  12.015
38467SOL     OW17297  14.685   2.471   6.892
38467SOL    HW117298  14.599   2.435   6.871
38467SOL    HW217299  14.684   2.481   6.987
38468SOL     OW17300  13.368   9.947   8.928
38468SOL    HW117301  13.458   9.920   8.946
38468SOL    HW217302  13.317   9.867   8.937
38469SOL     OW17303   1.587  13.747   2.126
38469SOL    HW117304   1.530  13.709   2.192
38469SOL    HW217305   1.663  13.689   2.123
38470SOL     OW17306   1.821   6.064  10.513
38470SOL    HW117307   1.786   6.074  10.601
38470SOL    HW217308   1.846   5.972  10.507
38471SOL     OW17309   1.633   1.313   9.590
38471SOL    HW117310   1.572   1.323   9.517
38471SOL    HW217311   1.717   1.293   9.549
38472SOL     OW17312   6.760   3.013   7.144
38472SOL    HW117313   6.715   2.929   7.144
38472SOL    HW217314   6.851   2.992   7.166
38473SOL     OW17315   5.382  12.497  13.440
38473SOL    HW117316   5.354  12.443  13.367
38473SOL    HW217317   5.334  12.463  13.516
38474SOL     OW17318   5.989  11.289   0.476
38474SOL    HW117319   5.925  11.262   0.543
38474SOL    HW217320   5.938  11.338   0.412
38475SOL     OW17321   1.521  10.643  13.662
38475SOL    HW117322   1.506  10.606  13.574
38475SOL    HW217323   1.612  10.673  13.659
38476SOL     OW17324   7.541   2.343  12.272
38476SOL    HW117325   7.568   2.311  12.186
38476SOL    HW217326   7.554   2.268  12.330
38477SOL     OW17327   9.720  11.536   7.763
38477SOL    HW117328   9.713  11.501   7.674
38477SOL    HW217329   9.750  11.463   7.816
38478SOL     OW17330   4.034   6.197   6.649
38478SOL    HW117331   4.118   6.244   6.650
38478SOL    HW217332   4.058   6.107   6.629
38479SOL     OW17333   1.516   9.525   2.619
38479SOL    HW117334   1.441   9.540   2.561
38479SOL    HW217335   1.580   9.591   2.593
38480SOL     OW17336   3.478  13.295  13.593
38480SOL    HW117337   3.475  13.383  13.554
38480SOL    HW217338   3.388  13.276  13.617
38481SOL     OW17339   0.616   5.840   3.743
38481SOL    HW117340   0.608   5.928   3.780
38481SOL    HW217341   0.689   5.846   3.682
38482SOL     OW17342   5.325   7.354   3.691
38482SOL    HW117343   5.390   7.375   3.758
38482SOL    HW217344   5.363   7.386   3.609
38483SOL     OW17345   6.584   4.271   5.607
38483SOL    HW117346   6.559   4.252   5.517
38483SOL    HW217347   6.511   4.239   5.660
38484SOL     OW17348   8.620  13.980   2.515
38484SOL    HW117349   8.659  14.060   2.480
38484SOL    HW217350   8.671  13.910   2.473
38485SOL     OW17351   8.577  13.261  14.270
38485SOL    HW117352   8.637  13.259  14.344
38485SOL    HW217353   8.493  13.287  14.307
38486SOL     OW17354   6.894  12.915  10.779
38486SOL    HW117355   6.817  12.947  10.824
38486SOL    HW217356   6.952  12.991  10.771
38487SOL     OW17357   3.061   7.874  13.351
38487SOL    HW117358   2.987   7.933  13.363
38487SOL    HW217359   3.115   7.916  13.284
38488SOL     OW17360   5.081   1.088   4.141
38488SOL    HW117361   5.004   1.049   4.183
38488SOL    HW217362   5.072   1.066   4.048
38489SOL     OW17363  10.269   9.139   6.313
38489SOL    HW117364  10.272   9.215   6.255
38489SOL    HW217365  10.265   9.063   6.254
38490SOL     OW17366  14.260   3.002  11.059
38490SOL    HW117367  14.300   3.006  11.146
38490SOL    HW217368  14.289   2.918  11.023
38491SOL     OW17369   7.144  13.589  11.252
38491SOL    HW117370   7.216  13.525  11.248
38491SOL    HW217371   7.067  13.538  11.227
38492SOL     OW17372  11.835  14.504   4.056
38492SOL    HW117373  11.744  14.476   4.061
38492SOL    HW217374  11.849  14.524   3.964
38493SOL     OW17375  14.465   6.371  11.048
38493SOL    HW117376  14.547   6.335  11.082
38493SOL    HW217377  14.397   6.319  11.091
38494SOL     OW17378  12.554   3.460  13.707
38494SOL    HW117379  12.465   3.453  13.673
38494SOL    HW217380  12.596   3.525  13.650
38495SOL     OW17381   1.680   8.285   6.068
38495SOL    HW117382   1.611   8.317   6.011
38495SOL    HW217383   1.752   8.261   6.009
38496SOL     OW17384   3.989  14.603   7.997
38496SOL    HW117385   4.084  14.617   7.991
38496SOL    HW217386   3.956  14.683   8.037
38497SOL     OW17387  10.007   7.270  13.652
38497SOL    HW117388   9.959   7.307  13.577
38497SOL    HW217389  10.064   7.340  13.682
38498SOL     OW17390   6.827   1.581   0.842
38498SOL    HW117391   6.842   1.666   0.801
38498SOL    HW217392   6.902   1.568   0.899
38499SOL     OW17393   7.644   3.370   1.934
38499SOL    HW117394   7.735   3.399   1.938
38499SOL    HW217395   7.648   3.288   1.886
38500SOL     OW17396  12.540   8.140  11.915
38500SOL    HW117397  12.451   8.131  11.948
38500SOL    HW217398  12.582   8.202  11.975
38501SOL     OW17399   7.032  10.221   4.263
38501SOL    HW117400   7.037  10.277   4.186
38501SOL    HW217401   7.092  10.261   4.326
38502SOL     OW17402  13.078  13.246   5.103
38502SOL    HW117403  13.081  13.200   5.187
38502SOL    HW217404  12.998  13.298   5.107
38503SOL     OW17405  13.542   1.618   0.716
38503SOL    HW117406  13.450   1.635   0.698
38503SOL    HW217407  13.541   1.561   0.794
38504SOL     OW17408   6.266   3.007   6.546
38504SOL    HW117409   6.296   2.985   6.458
38504SOL    HW217410   6.235   3.098   6.539
38505SOL     OW17411   2.083   0.639   5.326
38505SOL    HW117412   2.007   0.694   5.307
38505SOL    HW217413   2.074   0.614   5.418
38506SOL     OW17414   0.092   2.512   3.210
38506SOL    HW117415   0.085   2.608   3.212
38506SOL    HW217416   0.169   2.493   3.263
38507SOL     OW17417   8.632   1.468   3.235
38507SOL    HW117418   8.650   1.483   3.143
38507SOL    HW217419   8.580   1.387   3.236
38508SOL     OW17420   0.478   4.075   2.063
38508SOL    HW117421   0.541   4.143   2.040
38508SOL    HW217422   0.470   4.021   1.984
38509SOL     OW17423   6.044   0.487   6.999
38509SOL    HW117424   6.009   0.532   6.923
38509SOL    HW217425   6.121   0.440   6.967
38510SOL     OW17426  14.578   7.871  12.742
38510SOL    HW117427  14.569   7.790  12.793
38510SOL    HW217428  14.493   7.882  12.700
38511SOL     OW17429   5.060  14.807   2.484
38511SOL    HW117430   5.078  14.833   2.575
38511SOL    HW217431   5.079   0.005   2.432
38512SOL     OW17432   6.514   1.945  12.994
38512SOL    HW117433   6.530   1.923  13.086
38512SOL    HW217434   6.528   2.039  12.988
38513SOL     OW17435   5.218   4.452   9.820
38513SOL    HW117436   5.212   4.370   9.772
38513SOL    HW217437   5.301   4.446   9.867
38514SOL     OW17438   2.443  10.890  10.147
38514SOL    HW117439   2.394  10.925  10.221
38514SOL    HW217440   2.518  10.949  10.137
38515SOL     OW17441   3.256  11.113  14.328
38515SOL    HW117442   3.313  11.189  14.316
38515SOL    HW217443   3.177  11.148  14.369
38516SOL     OW17444   7.657   0.343   9.245
38516SOL    HW117445   7.689   0.316   9.331
38516SOL    HW217446   7.736   0.351   9.191
38517SOL     OW17447  11.693  10.045   7.013
38517SOL    HW117448  11.654  10.121   6.970
38517SOL    HW217449  11.732   9.994   6.942
38518SOL     OW17450   3.335   1.010  11.262
38518SOL    HW117451   3.411   1.062  11.289
38518SOL    HW217452   3.345   0.927  11.309
38519SOL     OW17453   8.777  12.939  14.389
38519SOL    HW117454   8.723  12.867  14.421
38519SOL    HW217455   8.828  12.967  14.466
38520SOL     OW17456   4.518   8.037   2.021
38520SOL    HW117457   4.426   8.032   2.047
38520SOL    HW217458   4.565   8.056   2.103
38521SOL     OW17459   8.366   5.741   5.407
38521SOL    HW117460   8.405   5.659   5.376
38521SOL    HW217461   8.425   5.809   5.374
38522SOL     OW17462  10.133  14.507  13.166
38522SOL    HW117463  10.152  14.599  13.189
38522SOL    HW217464  10.055  14.486  13.217
38523SOL     OW17465  10.216  10.776   7.908
38523SOL    HW117466  10.193  10.700   7.961
38523SOL    HW217467  10.262  10.835   7.968
38524SOL     OW17468  10.102   9.817  11.906
38524SOL    HW117469  10.098   9.888  11.970
38524SOL    HW217470  10.025   9.763  11.926
38525SOL     OW17471  11.555   5.114   3.460
38525SOL    HW117472  11.530   5.023   3.444
38525SOL    HW217473  11.602   5.140   3.381
38526SOL     OW17474  10.075  13.495  14.291
38526SOL    HW117475  10.023  13.430  14.338
38526SOL    HW217476  10.011  13.562  14.264
38527SOL     OW17477  12.103   6.034   9.625
38527SOL    HW117478  12.121   5.974   9.698
38527SOL    HW217479  12.113   5.980   9.547
38528SOL     OW17480  11.232   0.370   0.890
38528SOL    HW117481  11.268   0.281   0.896
38528SOL    HW217482  11.304   0.422   0.854
38529SOL     OW17483   0.506   9.348  12.409
38529SOL    HW117484   0.506   9.339  12.313
38529SOL    HW217485   0.503   9.443  12.423
38530SOL     OW17486   4.798  14.491   6.843
38530SOL    HW117487   4.776  14.479   6.750
38530SOL    HW217488   4.792  14.403   6.880
38531SOL     OW17489   7.132   5.576   2.288
38531SOL    HW117490   7.194   5.511   2.321
38531SOL    HW217491   7.179   5.659   2.292
38532SOL     OW17492   4.833   8.511   1.726
38532SOL    HW117493   4.785   8.443   1.679
38532SOL    HW217494   4.922   8.505   1.691
38533SOL     OW17495  10.035   2.441   3.925
38533SOL    HW117496  10.001   2.352   3.932
38533SOL    HW217497  10.007   2.485   4.005
38534SOL     OW17498   7.008  10.205   5.836
38534SOL    HW117499   7.065  10.151   5.782
38534SOL    HW217500   7.061  10.281   5.858
38535SOL     OW17501   4.007   2.756  12.211
38535SOL    HW117502   4.100   2.777  12.206
38535SOL    HW217503   3.965   2.836  12.241
38536SOL     OW17504   7.664  10.304   0.121
38536SOL    HW117505   7.596  10.247   0.086
38536SOL    HW217506   7.696  10.353   0.045
38537SOL     OW17507  14.178   0.730  11.328
38537SOL    HW117508  14.229   0.721  11.247
38537SOL    HW217509  14.234   0.782  11.386
38538SOL     OW17510  14.589   8.654  13.441
38538SOL    HW117511  14.667   8.676  13.389
38538SOL    HW217512  14.585   8.559  13.439
38539SOL     OW17513  12.938   0.510   0.482
38539SOL    HW117514  12.910   0.529   0.392
38539SOL    HW217515  12.856   0.506   0.532
38540SOL     OW17516  13.797   7.590  13.988
38540SOL    HW117517  13.741   7.643  13.931
38540SOL    HW217518  13.832   7.651  14.052
38541SOL     OW17519   2.786  13.921   4.219
38541SOL    HW117520   2.864  13.944   4.169
38541SOL    HW217521   2.740  14.004   4.232
38542SOL     OW17522   8.721   2.479   4.918
38542SOL    HW117523   8.788   2.515   4.860
38542SOL    HW217524   8.658   2.550   4.929
38543SOL     OW17525   4.100   5.420  11.417
38543SOL    HW117526   4.069   5.508  11.396
38543SOL    HW217527   4.189   5.433  11.449
38544SOL     OW17528  12.905   6.326  11.435
38544SOL    HW117529  12.964   6.253  11.413
38544SOL    HW217530  12.824   6.284  11.463
38545SOL     OW17531  11.400  14.437   7.353
38545SOL    HW117532  11.470  14.372   7.363
38545SOL    HW217533  11.378  14.435   7.260
38546SOL     OW17534   0.630   6.775  11.455
38546SOL    HW117535   0.671   6.806  11.373
38546SOL    HW217536   0.580   6.851  11.486
38547SOL     OW17537  13.936   3.147   8.846
38547SOL    HW117538  13.899   3.104   8.769
38547SOL    HW217539  13.863   3.151   8.909
38548SOL     OW17540   0.324   6.641  12.517
38548SOL    HW117541   0.361   6.582  12.583
38548SOL    HW217542   0.287   6.583  12.451
38549SOL     OW17543   6.619  11.753   0.056
38549SOL    HW117544   6.602  11.700  14.858
38549SOL    HW217545   6.703  11.796   0.037
38550SOL     OW17546  11.851   3.483  11.581
38550SOL    HW117547  11.828   3.561  11.632
38550SOL    HW217548  11.832   3.410  11.639
38551SOL     OW17549   7.663   9.783  11.888
38551SOL    HW117550   7.738   9.834  11.857
38551SOL    HW217551   7.599   9.850  11.914
38552SOL     OW17552  12.409  13.986   4.669
38552SOL    HW117553  12.459  14.021   4.743
38552SOL    HW217554  12.458  14.013   4.591
38553SOL     OW17555  14.339  12.436   6.633
38553SOL    HW117556  14.308  12.387   6.558
38553SOL    HW217557  14.283  12.514   6.636
38554SOL     OW17558   6.532   5.767   7.897
38554SOL    HW117559   6.538   5.674   7.875
38554SOL    HW217560   6.615   5.787   7.939
38555SOL     OW17561   7.208  14.664  11.008
38555SOL    HW117562   7.113  14.667  11.019
38555SOL    HW217563   7.223  14.700  10.920
38556SOL     OW17564   4.770  12.640   0.657
38556SOL    HW117565   4.678  12.627   0.682
38556SOL    HW217566   4.770  12.633   0.561
38557SOL     OW17567  12.778   5.525  12.103
38557SOL    HW117568  12.839   5.457  12.077
38557SOL    HW217569  12.743   5.495  12.187
38558SOL     OW17570   1.585   6.155   1.718
38558SOL    HW117571   1.660   6.117   1.765
38558SOL    HW217572   1.535   6.199   1.787
38559SOL     OW17573  12.877   2.144   4.466
38559SOL    HW117574  12.896   2.097   4.385
38559SOL    HW217575  12.829   2.222   4.437
38560SOL     OW17576   7.132  10.888   8.773
38560SOL    HW117577   7.123  10.925   8.685
38560SOL    HW217578   7.212  10.928   8.807
38561SOL     OW17579  12.711  12.606  12.240
38561SOL    HW117580  12.658  12.685  12.241
38561SOL    HW217581  12.715  12.580  12.148
38562SOL     OW17582   6.563  13.938  13.982
38562SOL    HW117583   6.558  13.846  14.009
38562SOL    HW217584   6.654  13.948  13.952
38563SOL     OW17585  11.160   3.332   3.572
38563SOL    HW117586  11.191   3.348   3.483
38563SOL    HW217587  11.099   3.259   3.563
38564SOL     OW17588   5.412   8.263   5.196
38564SOL    HW117589   5.343   8.229   5.139
38564SOL    HW217590   5.371   8.272   5.282
38565SOL     OW17591  14.864   2.156  13.911
38565SOL    HW117592  14.831   2.244  13.928
38565SOL    HW217593  14.861   2.113  13.996
38566SOL     OW17594  13.303   0.721  14.360
38566SOL    HW117595  13.259   0.680  14.286
38566SOL    HW217596  13.385   0.672  14.370
38567SOL     OW17597   6.731   1.798   9.236
38567SOL    HW117598   6.673   1.769   9.307
38567SOL    HW217599   6.810   1.745   9.246
38568SOL     OW17600  14.733   1.654   0.904
38568SOL    HW117601  14.672   1.728   0.896
38568SOL    HW217602  14.678   1.582   0.933
38569SOL     OW17603  10.596   4.014  11.154
38569SOL    HW117604  10.581   4.021  11.248
38569SOL    HW217605  10.601   4.105  11.124
38570SOL     OW17606   0.821   8.120  10.179
38570SOL    HW117607   0.884   8.150  10.244
38570SOL    HW217608   0.867   8.052  10.131
38571SOL     OW17609  11.428  13.835   9.378
38571SOL    HW117610  11.413  13.832   9.472
38571SOL    HW217611  11.521  13.816   9.367
38572SOL     OW17612  11.352   5.959   6.986
38572SOL    HW117613  11.412   6.032   7.006
38572SOL    HW217614  11.369   5.895   7.055
38573SOL     OW17615   9.313   8.759   4.838
38573SOL    HW117616   9.272   8.695   4.780
38573SOL    HW217617   9.261   8.757   4.918
38574SOL     OW17618   3.515   0.149   4.199
38574SOL    HW117619   3.487   0.063   4.166
38574SOL    HW217620   3.601   0.163   4.159
38575SOL     OW17621  14.051   0.771   0.480
38575SOL    HW117622  14.096   0.693   0.448
38575SOL    HW217623  14.069   0.772   0.574
38576SOL     OW17624  14.093   7.606   8.592
38576SOL    HW117625  14.118   7.598   8.500
38576SOL    HW217626  14.015   7.551   8.601
38577SOL     OW17627  13.626  11.460   4.055
38577SOL    HW117628  13.563  11.421   4.115
38577SOL    HW217629  13.676  11.386   4.021
38578SOL     OW17630   4.049   8.522   0.743
38578SOL    HW117631   4.098   8.557   0.817
38578SOL    HW217632   4.044   8.594   0.681
38579SOL     OW17633  10.769   0.427  12.765
38579SOL    HW117634  10.824   0.373  12.822
38579SOL    HW217635  10.715   0.365  12.717
38580SOL     OW17636   9.451   3.441   4.430
38580SOL    HW117637   9.489   3.512   4.482
38580SOL    HW217638   9.378   3.482   4.383
38581SOL     OW17639  10.926   8.633   1.436
38581SOL    HW117640  10.939   8.598   1.348
38581SOL    HW217641  10.992   8.589   1.489
38582SOL     OW17642   0.423   1.447   2.441
38582SOL    HW117643   0.428   1.511   2.512
38582SOL    HW217644   0.429   1.362   2.485
38583SOL     OW17645   2.861   4.271   4.674
38583SOL    HW117646   2.881   4.250   4.766
38583SOL    HW217647   2.874   4.189   4.627
38584SOL     OW17648  11.008   4.903  12.267
38584SOL    HW117649  10.943   4.846  12.226
38584SOL    HW217650  10.963   4.985  12.284
38585SOL     OW17651  11.918   1.674  14.539
38585SOL    HW117652  11.862   1.714  14.472
38585SOL    HW217653  12.007   1.701  14.515
38586SOL     OW17654   6.582  10.469  14.301
38586SOL    HW117655   6.676  10.484  14.293
38586SOL    HW217656   6.570  10.435  14.390
38587SOL     OW17657   6.804   9.874   4.373
38587SOL    HW117658   6.814   9.954   4.321
38587SOL    HW217659   6.836   9.804   4.316
38588SOL     OW17660  12.873   6.358   5.505
38588SOL    HW117661  12.885   6.281   5.561
38588SOL    HW217662  12.937   6.348   5.435
38589SOL     OW17663  14.309   1.091   4.887
38589SOL    HW117664  14.289   1.029   4.957
38589SOL    HW217665  14.400   1.116   4.901
38590SOL     OW17666   6.406  12.005   7.424
38590SOL    HW117667   6.467  12.079   7.420
38590SOL    HW217668   6.320  12.045   7.438
38591SOL     OW17669  11.565   8.508   2.777
38591SOL    HW117670  11.596   8.598   2.774
38591SOL    HW217671  11.551   8.484   2.685
38592SOL     OW17672   5.714   5.076  12.655
38592SOL    HW117673   5.805   5.075  12.685
38592SOL    HW217674   5.719   5.106  12.564
38593SOL     OW17675   1.881  10.635   0.672
38593SOL    HW117676   1.821  10.677   0.734
38593SOL    HW217677   1.950  10.597   0.727
38594SOL     OW17678  10.151   8.552   4.402
38594SOL    HW117679  10.064   8.512   4.397
38594SOL    HW217680  10.138   8.631   4.455
38595SOL     OW17681   5.568   3.510  13.342
38595SOL    HW117682   5.546   3.523  13.434
38595SOL    HW217683   5.513   3.438  13.314
38596SOL     OW17684   4.895   5.327   6.751
38596SOL    HW117685   4.983   5.288   6.748
38596SOL    HW217686   4.837   5.252   6.760
38597SOL     OW17687  10.142   2.976  13.284
38597SOL    HW117688  10.178   3.064  13.301
38597SOL    HW217689  10.047   2.988  13.289
38598SOL     OW17690  12.686   5.247   4.996
38598SOL    HW117691  12.663   5.333   4.962
38598SOL    HW217692  12.709   5.262   5.087
38599SOL     OW17693   1.096   0.539   5.025
38599SOL    HW117694   1.018   0.593   5.039
38599SOL    HW217695   1.061   0.451   5.010
38600SOL     OW17696   6.868  10.395   9.420
38600SOL    HW117697   6.868  10.399   9.515
38600SOL    HW217698   6.889  10.484   9.392
38601SOL     OW17699  10.451   0.621  10.452
38601SOL    HW117700  10.420   0.540  10.411
38601SOL    HW217701  10.379   0.650  10.507
38602SOL     OW17702   0.484  10.572   4.640
38602SOL    HW117703   0.516  10.508   4.577
38602SOL    HW217704   0.552  10.577   4.707
38603SOL     OW17705   1.880   3.564   1.421
38603SOL    HW117706   1.852   3.651   1.392
38603SOL    HW217707   1.850   3.505   1.352
38604SOL     OW17708   3.415   7.882   5.594
38604SOL    HW117709   3.451   7.867   5.682
38604SOL    HW217710   3.490   7.911   5.543
38605SOL     OW17711   8.941   5.604  12.140
38605SOL    HW117712   9.014   5.663  12.123
38605SOL    HW217713   8.975   5.542  12.204
38606SOL     OW17714  11.605   0.345   1.533
38606SOL    HW117715  11.640   0.372   1.618
38606SOL    HW217716  11.520   0.306   1.554
38607SOL     OW17717  12.209   2.361  11.546
38607SOL    HW117718  12.217   2.268  11.565
38607SOL    HW217719  12.163   2.397  11.622
38608SOL     OW17720   5.285   5.879   9.947
38608SOL    HW117721   5.204   5.828   9.949
38608SOL    HW217722   5.346   5.825   9.897
38609SOL     OW17723   9.010   6.690  10.251
38609SOL    HW117724   9.022   6.689  10.346
38609SOL    HW217725   9.094   6.721  10.216
38610SOL     OW17726   3.636  12.401   0.788
38610SOL    HW117727   3.542  12.411   0.772
38610SOL    HW217728   3.651  12.307   0.788
38611SOL     OW17729   4.054   3.723  11.035
38611SOL    HW117730   3.972   3.685  11.067
38611SOL    HW217731   4.054   3.706  10.941
38612SOL     OW17732   0.843  10.626  11.124
38612SOL    HW117733   0.857  10.563  11.053
38612SOL    HW217734   0.927  10.671  11.133
38613SOL     OW17735   8.853   0.079   1.192
38613SOL    HW117736   8.850   0.008   1.127
38613SOL    HW217737   8.869   0.158   1.140
38614SOL     OW17738  10.349  10.434   7.663
38614SOL    HW117739  10.257  10.447   7.684
38614SOL    HW217740  10.395  10.500   7.715
38615SOL     OW17741   1.358   0.024   2.787
38615SOL    HW117742   1.388  14.839   2.723
38615SOL    HW217743   1.297   0.079   2.738
38616SOL     OW17744   0.133   7.972   1.964
38616SOL    HW117745   0.204   7.940   1.908
38616SOL    HW217746   0.067   7.904   1.959
38617SOL     OW17747   7.146   9.910   7.165
38617SOL    HW117748   7.106   9.912   7.252
38617SOL    HW217749   7.214   9.844   7.171
38618SOL     OW17750  10.081   0.283  12.581
38618SOL    HW117751  10.023   0.358  12.574
38618SOL    HW217752  10.024   0.207  12.566
38619SOL     OW17753  12.517  13.621  14.532
38619SOL    HW117754  12.460  13.652  14.461
38619SOL    HW217755  12.469  13.640  14.612
38620SOL     OW17756   6.465   7.026   7.246
38620SOL    HW117757   6.495   7.056   7.160
38620SOL    HW217758   6.402   7.092   7.275
38621SOL     OW17759   5.302  12.492   5.979
38621SOL    HW117760   5.304  12.472   5.886
38621SOL    HW217761   5.361  12.428   6.019
38622SOL     OW17762   8.581   5.466   6.427
38622SOL    HW117763   8.660   5.508   6.395
38622SOL    HW217764   8.594   5.458   6.521
38623SOL     OW17765   3.889   9.397   0.830
38623SOL    HW117766   3.976   9.360   0.824
38623SOL    HW217767   3.876   9.414   0.924
38624SOL     OW17768  11.348  10.879   4.020
38624SOL    HW117769  11.394  10.815   4.074
38624SOL    HW217770  11.390  10.962   4.040
38625SOL     OW17771   2.172   4.919  11.801
38625SOL    HW117772   2.103   4.985  11.790
38625SOL    HW217773   2.156   4.856  11.731
38626SOL     OW17774   3.108   6.936   6.257
38626SOL    HW117775   3.060   7.015   6.280
38626SOL    HW217776   3.176   6.929   6.324
38627SOL     OW17777   1.381   1.061   6.442
38627SOL    HW117778   1.333   1.035   6.363
38627SOL    HW217779   1.394   0.980   6.491
38628SOL     OW17780   8.187  12.836  11.182
38628SOL    HW117781   8.142  12.776  11.122
38628SOL    HW217782   8.120  12.899  11.208
38629SOL     OW17783  12.060   6.061   8.579
38629SOL    HW117784  12.023   6.005   8.647
38629SOL    HW217785  12.096   6.000   8.514
38630SOL     OW17786   2.633   8.164   9.392
38630SOL    HW117787   2.574   8.114   9.335
38630SOL    HW217788   2.621   8.125   9.478
38631SOL     OW17789   4.606  12.251   6.593
38631SOL    HW117790   4.691  12.246   6.551
38631SOL    HW217791   4.543  12.259   6.521
38632SOL     OW17792   5.105   3.845   8.615
38632SOL    HW117793   5.185   3.796   8.596
38632SOL    HW217794   5.040   3.811   8.554
38633SOL     OW17795   4.999   9.669   8.223
38633SOL    HW117796   5.060   9.712   8.163
38633SOL    HW217797   4.960   9.740   8.274
38634SOL     OW17798  12.389   2.603   0.737
38634SOL    HW117799  12.388   2.546   0.660
38634SOL    HW217800  12.350   2.551   0.807
38635SOL     OW17801  12.480   3.100   4.276
38635SOL    HW117802  12.408   3.106   4.213
38635SOL    HW217803  12.437   3.093   4.361
38636SOL     OW17804   7.115   0.867   8.530
38636SOL    HW117805   7.123   0.787   8.479
38636SOL    HW217806   7.196   0.871   8.581
38637SOL     OW17807   6.758  10.024  10.960
38637SOL    HW117808   6.698   9.952  10.940
38637SOL    HW217809   6.830   9.983  11.008
38638SOL     OW17810   0.882   1.197  10.045
38638SOL    HW117811   0.945   1.188   9.975
38638SOL    HW217812   0.934   1.196  10.125
38639SOL     OW17813  14.617   8.790   7.384
38639SOL    HW117814  14.606   8.867   7.440
38639SOL    HW217815  14.532   8.746   7.387
38640SOL     OW17816   8.528   5.037   6.621
38640SOL    HW117817   8.553   5.098   6.551
38640SOL    HW217818   8.573   4.955   6.599
38641SOL     OW17819   7.548   3.038   5.548
38641SOL    HW117820   7.593   3.117   5.579
38641SOL    HW217821   7.455   3.061   5.547
38642SOL     OW17822   2.770   0.903   2.016
38642SOL    HW117823   2.783   0.958   1.938
38642SOL    HW217824   2.849   0.850   2.022
38643SOL     OW17825   6.111   7.332  11.769
38643SOL    HW117826   6.118   7.408  11.826
38643SOL    HW217827   6.130   7.257  11.825
38644SOL     OW17828   4.480   7.254  14.264
38644SOL    HW117829   4.517   7.341  14.249
38644SOL    HW217830   4.437   7.260  14.349
38645SOL     OW17831   2.097   2.986   5.692
38645SOL    HW117832   2.115   3.075   5.662
38645SOL    HW217833   2.059   2.997   5.778
38646SOL     OW17834  14.833  12.227  13.341
38646SOL    HW117835  14.771  12.294  13.311
38646SOL    HW217836   0.037  12.253  13.303
38647SOL     OW17837   3.055  11.929   5.865
38647SOL    HW117838   3.020  11.949   5.951
38647SOL    HW217839   3.141  11.892   5.882
38648SOL     OW17840   7.756   9.403  12.333
38648SOL    HW117841   7.754   9.462  12.409
38648SOL    HW217842   7.797   9.455  12.264
38649SOL     OW17843   2.004  14.070  12.748
38649SOL    HW117844   2.091  14.032  12.740
38649SOL    HW217845   2.010  14.128  12.824
38650SOL     OW17846  12.894   4.547   0.185
38650SOL    HW117847  12.938   4.465   0.204
38650SOL    HW217848  12.801   4.528   0.198
38651SOL     OW17849   1.324   5.180   5.680
38651SOL    HW117850   1.251   5.165   5.620
38651SOL    HW217851   1.288   5.237   5.748
38652SOL     OW17852   0.660   7.833   2.184
38652SOL    HW117853   0.572   7.852   2.153
38652SOL    HW217854   0.691   7.915   2.221
38653SOL     OW17855  11.362   9.111   7.875
38653SOL    HW117856  11.402   9.090   7.960
38653SOL    HW217857  11.304   9.038   7.856
38654SOL     OW17858   6.346   3.959   8.850
38654SOL    HW117859   6.373   4.043   8.814
38654SOL    HW217860   6.345   3.973   8.945
38655SOL     OW17861  14.186   9.257   8.586
38655SOL    HW117862  14.227   9.292   8.665
38655SOL    HW217863  14.102   9.223   8.615
38656SOL     OW17864   7.140   8.037  14.032
38656SOL    HW117865   7.219   7.985  14.043
38656SOL    HW217866   7.122   8.034  13.938
38657SOL     OW17867  14.522   1.032   1.849
38657SOL    HW117868  14.484   1.115   1.876
38657SOL    HW217869  14.589   1.013   1.915
38658SOL     OW17870  11.194  10.939  12.230
38658SOL    HW117871  11.133  11.007  12.259
38658SOL    HW217872  11.152  10.902  12.152
38659SOL     OW17873  14.532   0.698   8.095
38659SOL    HW117874  14.501   0.740   8.015
38659SOL    HW217875  14.464   0.718   8.160
38660SOL     OW17876   1.798   5.236   8.339
38660SOL    HW117877   1.703   5.234   8.329
38660SOL    HW217878   1.820   5.152   8.379
38661SOL     OW17879   9.859   5.846   1.440
38661SOL    HW117880   9.905   5.788   1.500
38661SOL    HW217881   9.870   5.805   1.354
38662SOL     OW17882   9.514   9.979   6.488
38662SOL    HW117883   9.487   9.893   6.519
38662SOL    HW217884   9.556   9.963   6.403
38663SOL     OW17885   6.317   1.327  10.881
38663SOL    HW117886   6.279   1.382  10.950
38663SOL    HW217887   6.411   1.336  10.893
38664SOL     OW17888   8.742   0.140   2.392
38664SOL    HW117889   8.652   0.162   2.367
38664SOL    HW217890   8.756   0.053   2.354
38665SOL     OW17891   7.019  11.841   2.105
38665SOL    HW117892   7.113  11.853   2.122
38665SOL    HW217893   6.981  11.830   2.192
38666SOL     OW17894  13.607   6.157   5.726
38666SOL    HW117895  13.659   6.183   5.802
38666SOL    HW217896  13.534   6.107   5.761
38667SOL     OW17897  10.155   0.753   4.211
38667SOL    HW117898  10.111   0.837   4.223
38667SOL    HW217899  10.241   0.764   4.251
38668SOL     OW17900  13.963   3.118   1.020
38668SOL    HW117901  14.059   3.113   1.024
38668SOL    HW217902  13.941   3.186   1.084
38669SOL     OW17903   9.620   7.262  11.892
38669SOL    HW117904   9.596   7.271  11.984
38669SOL    HW217905   9.710   7.229  11.895
38670SOL     OW17906   5.622   1.282   9.102
38670SOL    HW117907   5.633   1.199   9.056
38670SOL    HW217908   5.558   1.330   9.050
38671SOL     OW17909  11.914   7.758   0.294
38671SOL    HW117910  11.965   7.712   0.360
38671SOL    HW217911  11.831   7.709   0.289
38672SOL     OW17912  14.602  11.042   1.150
38672SOL    HW117913  14.529  11.102   1.156
38672SOL    HW217914  14.631  11.030   1.241
38673SOL     OW17915  14.676   5.004  11.728
38673SOL    HW117916  14.597   5.031  11.775
38673SOL    HW217917  14.741   4.989  11.797
38674SOL     OW17918   8.379   5.340  11.667
38674SOL    HW117919   8.360   5.286  11.591
38674SOL    HW217920   8.315   5.313  11.733
38675SOL     OW17921   7.204   2.427   9.099
38675SOL    HW117922   7.130   2.419   9.160
38675SOL    HW217923   7.226   2.520   9.100
38676SOL     OW17924  10.150   9.241   7.021
38676SOL    HW117925  10.114   9.314   6.970
38676SOL    HW217926  10.138   9.164   6.966
38677SOL     OW17927   3.389   8.195  14.744
38677SOL    HW117928   3.444   8.218  14.669
38677SOL    HW217929   3.359   8.279  14.778
38678SOL     OW17930  14.732   8.237   6.930
38678SOL    HW117931  14.772   8.221   7.015
38678SOL    HW217932  14.646   8.195   6.935
38679SOL     OW17933   6.682   5.169  12.736
38679SOL    HW117934   6.633   5.139  12.812
38679SOL    HW217935   6.700   5.261  12.754
38680SOL     OW17936   7.798  12.402   3.783
38680SOL    HW117937   7.865  12.337   3.761
38680SOL    HW217938   7.808  12.469   3.716
38681SOL     OW17939  10.207  11.361   6.588
38681SOL    HW117940  10.220  11.324   6.675
38681SOL    HW217941  10.259  11.305   6.530
38682SOL     OW17942   2.103  12.921   6.691
38682SOL    HW117943   2.193  12.887   6.686
38682SOL    HW217944   2.103  12.997   6.634
38683SOL     OW17945  13.172  12.068  10.421
38683SOL    HW117946  13.112  12.007  10.462
38683SOL    HW217947  13.144  12.155  10.451
38684SOL     OW17948   8.831  12.755   8.405
38684SOL    HW117949   8.843  12.850   8.407
38684SOL    HW217950   8.736  12.742   8.414
38685SOL     OW17951  10.922  13.618  12.225
38685SOL    HW117952  10.959  13.683  12.165
38685SOL    HW217953  10.829  13.614  12.201
38686SOL     OW17954   6.187   3.510   1.219
38686SOL    HW117955   6.268   3.560   1.229
38686SOL    HW217956   6.188   3.449   1.293
38687SOL     OW17957   2.190   7.505   6.770
38687SOL    HW117958   2.221   7.593   6.747
38687SOL    HW217959   2.249   7.446   6.724
38688SOL     OW17960   6.026   3.891   8.099
38688SOL    HW117961   5.965   3.912   8.170
38688SOL    HW217962   5.970   3.881   8.022
38689SOL     OW17963  14.012   3.779  11.431
38689SOL    HW117964  14.002   3.848  11.496
38689SOL    HW217965  13.943   3.716  11.451
38690SOL     OW17966   5.302   1.052   9.063
38690SOL    HW117967   5.212   1.021   9.053
38690SOL    HW217968   5.350   1.009   8.991
38691SOL     OW17969   3.940   0.196   5.747
38691SOL    HW117970   3.973   0.285   5.765
38691SOL    HW217971   4.007   0.157   5.690
38692SOL     OW17972   2.917   9.696   5.519
38692SOL    HW117973   2.990   9.758   5.507
38692SOL    HW217974   2.871   9.697   5.435
38693SOL     OW17975   4.760   9.250   3.774
38693SOL    HW117976   4.841   9.219   3.815
38693SOL    HW217977   4.749   9.194   3.698
38694SOL     OW17978   2.755   2.542  10.859
38694SOL    HW117979   2.837   2.497  10.838
38694SOL    HW217980   2.711   2.485  10.922
38695SOL     OW17981   5.901   7.249   9.005
38695SOL    HW117982   5.991   7.255   8.975
38695SOL    HW217983   5.905   7.264   9.100
38696SOL     OW17984   5.151   9.497  11.083
38696SOL    HW117985   5.219   9.477  11.146
38696SOL    HW217986   5.195   9.495  10.998
38697SOL     OW17987  11.965   1.491   0.071
38697SOL    HW117988  11.913   1.410   0.072
38697SOL    HW217989  11.905   1.556   0.034
38698SOL     OW17990   7.732   3.686   9.944
38698SOL    HW117991   7.787   3.633  10.001
38698SOL    HW217992   7.771   3.773   9.946
38699SOL     OW17993   1.930   5.385   4.329
38699SOL    HW117994   1.980   5.309   4.302
38699SOL    HW217995   1.853   5.385   4.272
38700SOL     OW17996  13.524  10.000   4.082
38700SOL    HW117997  13.528  10.095   4.067
38700SOL    HW217998  13.594   9.984   4.145
38701SOL     OW17999  11.420   1.287   9.638
38701SOL    HW118000  11.423   1.353   9.569
38701SOL    HW218001  11.495   1.230   9.620
38702SOL     OW18002   6.392  12.481  14.489
38702SOL    HW118003   6.443  12.530  14.425
38702SOL    HW218004   6.301  12.502  14.468
38703SOL     OW18005  12.561  11.069   0.011
38703SOL    HW118006  12.564  11.036   0.100
38703SOL    HW218007  12.616  11.009  14.840
38704SOL     OW18008  12.856   0.295   1.241
38704SOL    HW118009  12.763   0.296   1.267
38704SOL    HW218010  12.860   0.358   1.169
38705SOL     OW18011   0.162   7.696   0.778
38705SOL    HW118012   0.182   7.680   0.685
38705SOL    HW218013   0.076   7.657   0.791
38706SOL     OW18014   2.160  14.765  13.514
38706SOL    HW118015   2.177  14.764  13.420
38706SOL    HW218016   2.158  14.672  13.539
38707SOL     OW18017   4.547   6.715   4.436
38707SOL    HW118018   4.574   6.650   4.501
38707SOL    HW218019   4.622   6.722   4.377
38708SOL     OW18020   8.504   2.669   7.345
38708SOL    HW118021   8.494   2.587   7.298
38708SOL    HW218022   8.548   2.645   7.426
38709SOL     OW18023   1.783  10.168   1.517
38709SOL    HW118024   1.731  10.102   1.565
38709SOL    HW218025   1.782  10.137   1.427
38710SOL     OW18026   4.251  13.270  14.170
38710SOL    HW118027   4.190  13.305  14.104
38710SOL    HW218028   4.254  13.176  14.151
38711SOL     OW18029  14.372   1.169  13.054
38711SOL    HW118030  14.365   1.264  13.068
38711SOL    HW218031  14.351   1.158  12.961
38712SOL     OW18032  11.189   1.331   7.528
38712SOL    HW118033  11.184   1.320   7.623
38712SOL    HW218034  11.154   1.250   7.492
38713SOL     OW18035   3.817   3.784   3.621
38713SOL    HW118036   3.788   3.861   3.670
38713SOL    HW218037   3.848   3.818   3.537
38714SOL     OW18038  13.190  10.744   0.532
38714SOL    HW118039  13.192  10.698   0.616
38714SOL    HW218040  13.221  10.679   0.469
38715SOL     OW18041  11.639   4.216   3.021
38715SOL    HW118042  11.684   4.275   3.081
38715SOL    HW218043  11.579   4.165   3.076
38716SOL     OW18044   7.888   8.995  14.273
38716SOL    HW118045   7.842   9.079  14.283
38716SOL    HW218046   7.879   8.952  14.358
38717SOL     OW18047  13.608  11.305   9.047
38717SOL    HW118048  13.588  11.252   9.124
38717SOL    HW218049  13.541  11.373   9.046
38718SOL     OW18050   0.267   6.330   8.252
38718SOL    HW118051   0.299   6.378   8.176
38718SOL    HW218052   0.174   6.351   8.257
38719SOL     OW18053  13.568  11.736   9.076
38719SOL    HW118054  13.577  11.662   9.016
38719SOL    HW218055  13.548  11.811   9.020
38720SOL     OW18056   9.744  10.444   3.647
38720SOL    HW118057   9.763  10.351   3.662
38720SOL    HW218058   9.830  10.486   3.643
38721SOL     OW18059   4.079  12.883   0.516
38721SOL    HW118060   4.137  12.898   0.441
38721SOL    HW218061   4.008  12.829   0.482
38722SOL     OW18062  14.575  12.411   7.893
38722SOL    HW118063  14.487  12.412   7.855
38722SOL    HW218064  14.560  12.414   7.988
38723SOL     OW18065   7.581   2.842   8.954
38723SOL    HW118066   7.546   2.799   8.876
38723SOL    HW218067   7.645   2.780   8.989
38724SOL     OW18068   8.525  10.850   5.249
38724SOL    HW118069   8.555  10.916   5.313
38724SOL    HW218070   8.603  10.797   5.232
38725SOL     OW18071   6.062   8.142   2.278
38725SOL    HW118072   6.072   8.089   2.199
38725SOL    HW218073   6.150   8.146   2.315
38726SOL     OW18074   0.992   5.225   5.402
38726SOL    HW118075   0.956   5.257   5.485
38726SOL    HW218076   0.920   5.234   5.340
38727SOL     OW18077  10.981   7.383  13.565
38727SOL    HW118078  11.024   7.330  13.498
38727SOL    HW218079  11.052   7.407  13.626
38728SOL     OW18080   9.944   9.019  12.565
38728SOL    HW118081   9.990   9.090  12.611
38728SOL    HW218082   9.985   9.016  12.478
38729SOL     OW18083  12.236   2.639   7.284
38729SOL    HW118084  12.267   2.683   7.363
38729SOL    HW218085  12.313   2.635   7.227
38730SOL     OW18086   9.896  12.751   1.122
38730SOL    HW118087   9.889  12.705   1.038
38730SOL    HW218088   9.899  12.681   1.187
38731SOL     OW18089   7.398  10.552   5.189
38731SOL    HW118090   7.390  10.492   5.263
38731SOL    HW218091   7.309  10.562   5.156
38732SOL     OW18092  12.944   0.103   2.689
38732SOL    HW118093  12.886   0.178   2.675
38732SOL    HW218094  13.011   0.137   2.749
38733SOL     OW18095  13.750   1.658   8.319
38733SOL    HW118096  13.836   1.642   8.279
38733SOL    HW218097  13.750   1.605   8.399
38734SOL     OW18098  13.261   5.208  14.163
38734SOL    HW118099  13.285   5.121  14.195
38734SOL    HW218100  13.335   5.264  14.186
38735SOL     OW18101  12.917  14.320   2.377
38735SOL    HW118102  12.994  14.372   2.355
38735SOL    HW218103  12.926  14.301   2.470
38736SOL     OW18104   4.953   8.435  13.312
38736SOL    HW118105   4.989   8.523  13.305
38736SOL    HW218106   5.021   8.384  13.356
38737SOL     OW18107   6.972   9.136   5.426
38737SOL    HW118108   6.954   9.047   5.395
38737SOL    HW218109   6.946   9.192   5.353
38738SOL     OW18110   0.533   1.987  10.798
38738SOL    HW118111   0.573   1.993  10.712
38738SOL    HW218112   0.440   1.998  10.783
38739SOL     OW18113  12.021  11.113   8.016
38739SOL    HW118114  12.031  11.018   8.027
38739SOL    HW218115  12.084  11.135   7.947
38740SOL     OW18116  12.007   8.900  11.038
38740SOL    HW118117  12.058   8.916  10.958
38740SOL    HW218118  11.946   8.830  11.013
38741SOL     OW18119   8.505   0.561   1.692
38741SOL    HW118120   8.480   0.632   1.750
38741SOL    HW218121   8.478   0.481   1.738
38742SOL     OW18122   1.644  10.518   2.007
38742SOL    HW118123   1.635  10.435   2.054
38742SOL    HW218124   1.691  10.575   2.068
38743SOL     OW18125   3.836  12.902   7.661
38743SOL    HW118126   3.745  12.873   7.668
38743SOL    HW218127   3.831  12.989   7.621
38744SOL     OW18128   6.789  13.384  10.295
38744SOL    HW118129   6.734  13.312  10.326
38744SOL    HW218130   6.819  13.427  10.375
38745SOL     OW18131   7.869  10.562   0.642
38745SOL    HW118132   7.941  10.620   0.617
38745SOL    HW218133   7.881  10.483   0.590
38746SOL     OW18134  10.344   9.896   8.584
38746SOL    HW118135  10.429   9.898   8.539
38746SOL    HW218136  10.331   9.803   8.606
38747SOL     OW18137   2.919   6.845   4.715
38747SOL    HW118138   2.894   6.753   4.711
38747SOL    HW218139   2.869   6.886   4.644
38748SOL     OW18140   7.125  13.958  10.621
38748SOL    HW118141   7.123  14.038  10.673
38748SOL    HW218142   7.034  13.927  10.622
38749SOL     OW18143   7.771   9.835  12.849
38749SOL    HW118144   7.808   9.920  12.874
38749SOL    HW218145   7.700   9.856  12.789
38750SOL     OW18146   7.202   2.239   2.141
38750SOL    HW118147   7.133   2.234   2.208
38750SOL    HW218148   7.267   2.175   2.170
38751SOL     OW18149   9.554   9.263   4.367
38751SOL    HW118150   9.632   9.208   4.362
38751SOL    HW218151   9.582   9.340   4.418
38752SOL     OW18152   1.325   5.941   0.680
38752SOL    HW118153   1.333   6.036   0.686
38752SOL    HW218154   1.265   5.918   0.752
38753SOL     OW18155  14.504   5.962   6.883
38753SOL    HW118156  14.520   5.905   6.958
38753SOL    HW218157  14.511   5.904   6.807
38754SOL     OW18158   6.584   0.592   2.124
38754SOL    HW118159   6.612   0.680   2.097
38754SOL    HW218160   6.513   0.608   2.187
38755SOL     OW18161   3.482   7.494   1.468
38755SOL    HW118162   3.573   7.474   1.487
38755SOL    HW218163   3.463   7.444   1.388
38756SOL     OW18164   4.736   2.449   4.497
38756SOL    HW118165   4.664   2.509   4.516
38756SOL    HW218166   4.765   2.474   4.409
38757SOL     OW18167   1.498   8.129  13.645
38757SOL    HW118168   1.475   8.139  13.552
38757SOL    HW218169   1.487   8.036  13.662
38758SOL     OW18170   4.666   6.276   7.732
38758SOL    HW118171   4.632   6.221   7.803
38758SOL    HW218172   4.756   6.245   7.720
38759SOL     OW18173   1.656   9.505   2.046
38759SOL    HW118174   1.587   9.470   1.990
38759SOL    HW218175   1.732   9.514   1.988
38760SOL     OW18176   1.294  13.740  13.290
38760SOL    HW118177   1.337  13.764  13.208
38760SOL    HW218178   1.222  13.802  13.299
38761SOL     OW18179  11.374   5.803  14.627
38761SOL    HW118180  11.376   5.875  14.563
38761SOL    HW218181  11.295   5.819  14.679
38762SOL     OW18182   3.588   1.116   9.764
38762SOL    HW118183   3.634   1.089   9.684
38762SOL    HW218184   3.652   1.104   9.834
38763SOL     OW18185  13.912   6.579   0.513
38763SOL    HW118186  13.882   6.557   0.425
38763SOL    HW218187  13.960   6.661   0.503
38764SOL     OW18188   8.123  11.270   3.601
38764SOL    HW118189   8.101  11.289   3.510
38764SOL    HW218190   8.188  11.199   3.596
38765SOL     OW18191   3.127  11.661  14.295
38765SOL    HW118192   3.125  11.565  14.295
38765SOL    HW218193   3.062  11.686  14.361
38766SOL     OW18194   8.561   2.739   4.416
38766SOL    HW118195   8.625   2.733   4.487
38766SOL    HW218196   8.599   2.800   4.354
38767SOL     OW18197  11.753  12.810   5.091
38767SOL    HW118198  11.659  12.825   5.097
38767SOL    HW218199  11.771  12.805   4.997
38768SOL     OW18200   6.492   3.984   4.475
38768SOL    HW118201   6.411   3.937   4.455
38768SOL    HW218202   6.561   3.931   4.435
38769SOL     OW18203  10.792  13.050  11.826
38769SOL    HW118204  10.854  12.982  11.851
38769SOL    HW218205  10.834  13.096  11.753
38770SOL     OW18206   5.079  12.856  14.436
38770SOL    HW118207   5.066  12.766  14.465
38770SOL    HW218208   5.165  12.856  14.395
38771SOL     OW18209   2.774  12.492  10.079
38771SOL    HW118210   2.864  12.462  10.070
38771SOL    HW218211   2.737  12.488   9.991
38772SOL     OW18212   7.399   1.155   1.579
38772SOL    HW118213   7.364   1.114   1.499
38772SOL    HW218214   7.469   1.096   1.607
38773SOL     OW18215  10.075   5.332   9.528
38773SOL    HW118216  10.066   5.404   9.465
38773SOL    HW218217  10.164   5.342   9.563
38774SOL     OW18218  10.553   7.412   4.243
38774SOL    HW118219  10.546   7.350   4.170
38774SOL    HW218220  10.464   7.418   4.278
38775SOL     OW18221   6.384   2.225   0.326
38775SOL    HW118222   6.323   2.180   0.266
38775SOL    HW218223   6.383   2.316   0.295
38776SOL     OW18224  10.720   8.639   5.328
38776SOL    HW118225  10.650   8.636   5.263
38776SOL    HW218226  10.678   8.613   5.410
38777SOL     OW18227   7.718   1.390   6.493
38777SOL    HW118228   7.740   1.419   6.404
38777SOL    HW218229   7.662   1.460   6.528
38778SOL     OW18230  14.255   3.166   0.137
38778SOL    HW118231  14.339   3.191   0.098
38778SOL    HW218232  14.266   3.186   0.230
38779SOL     OW18233  13.475  10.513   9.892
38779SOL    HW118234  13.540  10.443   9.897
38779SOL    HW218235  13.458  10.523   9.798
38780SOL     OW18236   1.260  13.170   0.133
38780SOL    HW118237   1.176  13.213   0.149
38780SOL    HW218238   1.271  13.110   0.207
38781SOL     OW18239   5.690  13.634   2.079
38781SOL    HW118240   5.728  13.654   2.164
38781SOL    HW218241   5.737  13.691   2.018
38782SOL     OW18242   4.526  10.229   6.366
38782SOL    HW118243   4.468  10.301   6.340
38782SOL    HW218244   4.494  10.203   6.452
38783SOL     OW18245  13.175   6.796   7.328
38783SOL    HW118246  13.144   6.810   7.418
38783SOL    HW218247  13.158   6.879   7.284
38784SOL     OW18248   4.246   7.014   5.156
38784SOL    HW118249   4.174   6.978   5.208
38784SOL    HW218250   4.325   6.978   5.196
38785SOL     OW18251  12.573   5.071  12.949
38785SOL    HW118252  12.548   5.017  13.024
38785SOL    HW218253  12.519   5.039  12.877
38786SOL     OW18254  14.522   8.209  11.047
38786SOL    HW118255  14.588   8.156  11.002
38786SOL    HW218256  14.472   8.251  10.977
38787SOL     OW18257  10.621   8.694   4.530
38787SOL    HW118258  10.572   8.740   4.462
38787SOL    HW218259  10.713   8.713   4.510
38788SOL     OW18260   1.290   5.417   4.997
38788SOL    HW118261   1.200   5.397   5.022
38788SOL    HW218262   1.284   5.443   4.905
38789SOL     OW18263  13.199   8.948   5.519
38789SOL    HW118264  13.197   8.859   5.484
38789SOL    HW218265  13.271   8.991   5.473
38790SOL     OW18266   0.008   9.948   3.567
38790SOL    HW118267   0.067  10.003   3.619
38790SOL    HW218268   0.020   9.860   3.602
38791SOL     OW18269   1.110  11.585   1.143
38791SOL    HW118270   1.113  11.603   1.237
38791SOL    HW218271   1.174  11.645   1.105
38792SOL     OW18272   4.412  14.589  10.248
38792SOL    HW118273   4.423  14.648  10.173
38792SOL    HW218274   4.368  14.513  10.212
38793SOL     OW18275   1.882   5.375   5.355
38793SOL    HW118276   1.963   5.339   5.320
38793SOL    HW218277   1.894   5.374   5.450
38794SOL     OW18278   5.308   8.449  14.593
38794SOL    HW118279   5.361   8.517  14.635
38794SOL    HW218280   5.327   8.370  14.644
38795SOL     OW18281  10.412  14.641   3.780
38795SOL    HW118282  10.443  14.643   3.871
38795SOL    HW218283  10.321  14.671   3.785
38796SOL     OW18284   0.764   8.559   8.039
38796SOL    HW118285   0.702   8.628   8.065
38796SOL    HW218286   0.747   8.487   8.099
38797SOL     OW18287   0.842   7.949   5.618
38797SOL    HW118288   0.760   7.930   5.574
38797SOL    HW218289   0.817   7.975   5.707
38798SOL     OW18290  10.407   1.166   9.208
38798SOL    HW118291  10.353   1.215   9.146
38798SOL    HW218292  10.437   1.232   9.270
38799SOL     OW18293   9.999   7.553  12.405
38799SOL    HW118294   9.993   7.629  12.346
38799SOL    HW218295  10.090   7.524  12.395
38800SOL     OW18296  10.499  14.730   0.193
38800SOL    HW118297  10.442  14.654   0.204
38800SOL    HW218298  10.587  14.693   0.185
38801SOL     OW18299  10.883  10.724  13.697
38801SOL    HW118300  10.956  10.723  13.760
38801SOL    HW218301  10.925  10.740  13.613
38802SOL     OW18302  10.641  13.754  14.632
38802SOL    HW118303  10.678  13.716  14.711
38802SOL    HW218304  10.588  13.684  14.594
38803SOL     OW18305   0.339  11.808   3.957
38803SOL    HW118306   0.395  11.856   3.895
38803SOL    HW218307   0.401  11.763   4.015
38804SOL     OW18308  11.564   9.979   3.106
38804SOL    HW118309  11.654   9.949   3.119
38804SOL    HW218310  11.511   9.923   3.163
38805SOL     OW18311   7.197   8.549   6.030
38805SOL    HW118312   7.229   8.572   5.943
38805SOL    HW218313   7.166   8.632   6.066
38806SOL     OW18314   6.572  14.487  13.675
38806SOL    HW118315   6.640  14.505  13.611
38806SOL    HW218316   6.514  14.424  13.632
38807SOL     OW18317   8.159  14.266   1.868
38807SOL    HW118318   8.219  14.200   1.903
38807SOL    HW218319   8.147  14.328   1.940
38808SOL     OW18320   6.749  10.115   8.840
38808SOL    HW118321   6.708  10.199   8.862
38808SOL    HW218322   6.778  10.079   8.924
38809SOL     OW18323   9.397   2.702   8.885
38809SOL    HW118324   9.475   2.700   8.941
38809SOL    HW218325   9.324   2.688   8.945
38810SOL     OW18326   3.442   0.458   2.758
38810SOL    HW118327   3.499   0.477   2.684
38810SOL    HW218328   3.501   0.428   2.827
38811SOL     OW18329  11.650   3.882   2.907
38811SOL    HW118330  11.643   3.972   2.874
38811SOL    HW218331  11.562   3.860   2.936
38812SOL     OW18332   6.118   4.158   8.574
38812SOL    HW118333   6.052   4.090   8.563
38812SOL    HW218334   6.202   4.111   8.569
38813SOL     OW18335  12.922   0.612   6.400
38813SOL    HW118336  12.889   0.618   6.490
38813SOL    HW218337  12.864   0.550   6.357
38814SOL     OW18338   4.787   6.788  12.520
38814SOL    HW118339   4.728   6.823  12.587
38814SOL    HW218340   4.754   6.700  12.503
38815SOL     OW18341   2.797   5.887   2.269
38815SOL    HW118342   2.846   5.806   2.251
38815SOL    HW218343   2.809   5.941   2.191
38816SOL     OW18344   6.394   4.680   8.994
38816SOL    HW118345   6.372   4.587   8.990
38816SOL    HW218346   6.480   4.685   8.953
38817SOL     OW18347   4.325   1.318   8.729
38817SOL    HW118348   4.243   1.300   8.684
38817SOL    HW218349   4.375   1.371   8.667
38818SOL     OW18350   0.663   0.976   5.865
38818SOL    HW118351   0.752   0.971   5.830
38818SOL    HW218352   0.649   1.069   5.882
38819SOL     OW18353   2.721   3.654   5.392
38819SOL    HW118354   2.708   3.564   5.361
38819SOL    HW218355   2.670   3.660   5.472
38820SOL     OW18356   8.387   0.169   4.540
38820SOL    HW118357   8.339   0.252   4.540
38820SOL    HW218358   8.359   0.125   4.460
38821SOL     OW18359   8.128  10.363   0.781
38821SOL    HW118360   8.088  10.337   0.864
38821SOL    HW218361   8.064  10.338   0.714
38822SOL     OW18362  12.729   3.257  14.772
38822SOL    HW118363  12.716   3.351  14.765
38822SOL    HW218364  12.746   3.242  14.865
38823SOL     OW18365  13.965  12.119   1.636
38823SOL    HW118366  14.006  12.167   1.708
38823SOL    HW218367  13.883  12.086   1.673
38824SOL     OW18368   2.053   0.249   3.611
38824SOL    HW118369   1.962   0.234   3.587
38824SOL    HW218370   2.085   0.163   3.639
38825SOL     OW18371   4.929   8.660  12.713
38825SOL    HW118372   4.927   8.602  12.789
38825SOL    HW218373   4.853   8.716  12.723
38826SOL     OW18374   4.609  12.735  14.256
38826SOL    HW118375   4.553  12.787  14.198
38826SOL    HW218376   4.685  12.792  14.272
38827SOL     OW18377  13.441   9.630  14.185
38827SOL    HW118378  13.387   9.634  14.264
38827SOL    HW218379  13.473   9.540  14.182
38828SOL     OW18380   4.002  11.298   9.352
38828SOL    HW118381   4.018  11.357   9.278
38828SOL    HW218382   3.965  11.354   9.420
38829SOL     OW18383  10.606   8.110   6.972
38829SOL    HW118384  10.677   8.118   7.036
38829SOL    HW218385  10.567   8.024   6.988
38830SOL     OW18386   4.210   1.159  11.870
38830SOL    HW118387   4.267   1.163  11.794
38830SOL    HW218388   4.263   1.193  11.942
38831SOL     OW18389   0.273   4.594   9.917
38831SOL    HW118390   0.189   4.594   9.873
38831SOL    HW218391   0.334   4.554   9.854
38832SOL     OW18392   9.949  11.537  11.438
38832SOL    HW118393   9.925  11.571  11.524
38832SOL    HW218394   9.930  11.609  11.378
38833SOL     OW18395   6.146   8.443   8.906
38833SOL    HW118396   6.222   8.499   8.917
38833SOL    HW218397   6.100   8.479   8.830
38834SOL     OW18398   0.823   4.790   1.441
38834SOL    HW118399   0.855   4.860   1.498
38834SOL    HW218400   0.839   4.710   1.491
38835SOL     OW18401   3.363   6.630  13.713
38835SOL    HW118402   3.457   6.646  13.710
38835SOL    HW218403   3.333   6.642  13.623
38836SOL     OW18404   5.419   5.655  12.183
38836SOL    HW118405   5.502   5.622  12.149
38836SOL    HW218406   5.434   5.667  12.277
38837SOL     OW18407   5.414   6.303   0.857
38837SOL    HW118408   5.459   6.388   0.864
38837SOL    HW218409   5.357   6.300   0.933
38838SOL     OW18410  11.884  11.447  12.463
38838SOL    HW118411  11.947  11.431  12.393
38838SOL    HW218412  11.933  11.430  12.543
38839SOL     OW18413  12.976  13.234   5.765
38839SOL    HW118414  12.909  13.172   5.738
38839SOL    HW218415  13.048  13.222   5.702
38840SOL     OW18416   8.012  12.579  14.635
38840SOL    HW118417   8.061  12.611  14.710
38840SOL    HW218418   7.938  12.530  14.673
38841SOL     OW18419   3.118   6.601   2.747
38841SOL    HW118420   3.186   6.641   2.801
38841SOL    HW218421   3.037   6.617   2.795
38842SOL     OW18422  11.668  14.577   9.568
38842SOL    HW118423  11.638  14.659   9.609
38842SOL    HW218424  11.763  14.588   9.559
38843SOL     OW18425   7.904  12.010   7.990
38843SOL    HW118426   7.937  12.066   8.060
38843SOL    HW218427   7.963  11.935   7.989
38844SOL     OW18428   0.661   9.538   6.750
38844SOL    HW118429   0.609   9.459   6.762
38844SOL    HW218430   0.745   9.507   6.717
38845SOL     OW18431   1.985   0.901   3.132
38845SOL    HW118432   1.992   0.822   3.185
38845SOL    HW218433   1.904   0.889   3.082
38846SOL     OW18434   1.915   6.991  12.712
38846SOL    HW118435   1.907   7.038  12.629
38846SOL    HW218436   2.009   6.972  12.720
38847SOL     OW18437  11.593  10.203  11.312
38847SOL    HW118438  11.635  10.280  11.350
38847SOL    HW218439  11.664  10.155  11.269
38848SOL     OW18440   4.260   0.833   6.115
38848SOL    HW118441   4.183   0.859   6.165
38848SOL    HW218442   4.294   0.756   6.162
38849SOL     OW18443  10.888   4.440  12.664
38849SOL    HW118444  10.883   4.531  12.635
38849SOL    HW218445  10.980   4.416  12.651
38850SOL     OW18446  13.658   3.375   5.855
38850SOL    HW118447  13.645   3.457   5.903
38850SOL    HW218448  13.628   3.307   5.915
38851SOL     OW18449  14.349   1.197   5.716
38851SOL    HW118450  14.337   1.109   5.679
38851SOL    HW218451  14.380   1.181   5.805
38852SOL     OW18452   9.607  13.421  14.625
38852SOL    HW118453   9.666  13.377  14.686
38852SOL    HW218454   9.534  13.361  14.614
38853SOL     OW18455   1.686   0.753   6.952
38853SOL    HW118456   1.711   0.773   6.862
38853SOL    HW218457   1.660   0.661   6.949
38854SOL     OW18458   1.454   4.085   2.982
38854SOL    HW118459   1.496   4.002   2.961
38854SOL    HW218460   1.484   4.145   2.915
38855SOL     OW18461  13.803   1.292  13.511
38855SOL    HW118462  13.771   1.212  13.553
38855SOL    HW218463  13.791   1.360  13.576
38856SOL     OW18464   6.129   7.427   8.196
38856SOL    HW118465   6.076   7.380   8.260
38856SOL    HW218466   6.190   7.362   8.163
38857SOL     OW18467  10.899   9.115   6.474
38857SOL    HW118468  10.821   9.160   6.440
38857SOL    HW218469  10.929   9.171   6.546
38858SOL     OW18470   2.762  14.418   1.477
38858SOL    HW118471   2.744  14.504   1.441
38858SOL    HW218472   2.847  14.393   1.440
38859SOL     OW18473  12.566   6.911   9.409
38859SOL    HW118474  12.599   6.824   9.384
38859SOL    HW218475  12.530   6.947   9.328
38860SOL     OW18476   6.695  13.899   5.211
38860SOL    HW118477   6.726  13.824   5.261
38860SOL    HW218478   6.757  13.968   5.230
38861SOL     OW18479   0.763  10.868  10.957
38861SOL    HW118480   0.744  10.907  11.041
38861SOL    HW218481   0.697  10.799  10.947
38862SOL     OW18482  14.774  14.374   4.424
38862SOL    HW118483  14.830  14.297   4.410
38862SOL    HW218484  14.717  14.376   4.348
38863SOL     OW18485   2.870   6.617   2.917
38863SOL    HW118486   2.872   6.695   2.862
38863SOL    HW218487   2.836   6.648   3.001
38864SOL     OW18488   7.032  10.554   0.418
38864SOL    HW118489   7.013  10.523   0.506
38864SOL    HW218490   7.124  10.532   0.404
38865SOL     OW18491  11.664  11.012   9.351
38865SOL    HW118492  11.667  10.996   9.257
38865SOL    HW218493  11.572  11.001   9.374
38866SOL     OW18494   5.277   3.133   9.076
38866SOL    HW118495   5.186   3.123   9.050
38866SOL    HW218496   5.316   3.186   9.006
38867SOL     OW18497  13.973   9.686   6.834
38867SOL    HW118498  13.886   9.661   6.805
38867SOL    HW218499  14.032   9.627   6.787
38868SOL     OW18500  14.827  13.433  10.113
38868SOL    HW118501  14.761  13.461  10.176
38868SOL    HW218502   0.018  13.497  10.122
38869SOL     OW18503   2.622  14.712   3.065
38869SOL    HW118504   2.663  14.771   3.128
38869SOL    HW218505   2.689  14.646   3.046
38870SOL     OW18506  10.083   2.369  11.577
38870SOL    HW118507   9.999   2.409  11.602
38870SOL    HW218508  10.117   2.425  11.508
38871SOL     OW18509  12.464   8.466   7.162
38871SOL    HW118510  12.556   8.444   7.145
38871SOL    HW218511  12.468   8.554   7.201
38872SOL     OW18512   2.936  11.529  10.121
38872SOL    HW118513   2.846  11.507  10.097
38872SOL    HW218514   2.940  11.624  10.115
38873SOL     OW18515   1.117   5.137   8.058
38873SOL    HW118516   1.106   5.194   8.133
38873SOL    HW218517   1.054   5.169   7.993
38874SOL     OW18518   4.107   8.104   9.363
38874SOL    HW118519   4.130   8.028   9.309
38874SOL    HW218520   4.011   8.102   9.368
38875SOL     OW18521   1.910   7.337   5.969
38875SOL    HW118522   1.894   7.333   6.063
38875SOL    HW218523   1.940   7.427   5.954
38876SOL     OW18524   8.811   2.845   5.354
38876SOL    HW118525   8.865   2.919   5.383
38876SOL    HW218526   8.772   2.811   5.434
38877SOL     OW18527   6.035  14.153   8.675
38877SOL    HW118528   6.103  14.219   8.666
38877SOL    HW218529   5.964  14.198   8.722
38878SOL     OW18530  11.888   6.971   2.016
38878SOL    HW118531  11.839   6.898   1.979
38878SOL    HW218532  11.978   6.958   1.985
38879SOL     OW18533   3.586   5.153   8.603
38879SOL    HW118534   3.570   5.243   8.576
38879SOL    HW218535   3.569   5.152   8.697
38880SOL     OW18536  13.693   6.066   3.011
38880SOL    HW118537  13.670   6.104   3.096
38880SOL    HW218538  13.612   6.073   2.960
38881SOL     OW18539   4.339   6.194   0.585
38881SOL    HW118540   4.329   6.279   0.627
38881SOL    HW218541   4.250   6.160   0.578
38882SOL     OW18542  12.101  13.005   8.265
38882SOL    HW118543  12.174  12.944   8.267
38882SOL    HW218544  12.136  13.083   8.222
38883SOL     OW18545   9.514  10.178   3.156
38883SOL    HW118546   9.451  10.151   3.089
38883SOL    HW218547   9.475  10.256   3.195
38884SOL     OW18548   5.222  14.025  11.167
38884SOL    HW118549   5.170  13.951  11.138
38884SOL    HW218550   5.214  14.090  11.097
38885SOL     OW18551  13.052   8.180   4.654
38885SOL    HW118552  13.134   8.208   4.694
38885SOL    HW218553  13.001   8.144   4.726
38886SOL     OW18554  13.855   3.386   7.989
38886SOL    HW118555  13.863   3.392   8.084
38886SOL    HW218556  13.816   3.299   7.975
38887SOL     OW18557   6.386   1.242   8.211
38887SOL    HW118558   6.384   1.183   8.286
38887SOL    HW218559   6.343   1.321   8.242
38888SOL     OW18560   6.976   9.014   9.018
38888SOL    HW118561   6.897   8.961   9.004
38888SOL    HW218562   6.958   9.096   8.972
38889SOL     OW18563   2.433  14.523   4.290
38889SOL    HW118564   2.436  14.606   4.244
38889SOL    HW218565   2.357  14.529   4.347
38890SOL     OW18566  14.870   2.877   2.542
38890SOL    HW118567   0.052   2.906   2.609
38890SOL    HW218568   0.045   2.845   2.471
38891SOL     OW18569  12.539   7.839   7.815
38891SOL    HW118570  12.501   7.920   7.849
38891SOL    HW218571  12.543   7.852   7.720
38892SOL     OW18572  10.236   9.992   4.556
38892SOL    HW118573  10.223  10.078   4.596
38892SOL    HW218574  10.325   9.968   4.581
38893SOL     OW18575  11.847   2.629   2.918
38893SOL    HW118576  11.754   2.624   2.900
38893SOL    HW218577  11.874   2.538   2.932
38894SOL     OW18578   5.276  13.831   2.136
38894SOL    HW118579   5.298  13.803   2.225
38894SOL    HW218580   5.321  13.769   2.080
38895SOL     OW18581   3.278  11.438   8.778
38895SOL    HW118582   3.315  11.478   8.699
38895SOL    HW218583   3.195  11.483   8.790
38896SOL     OW18584   6.720   7.892   8.149
38896SOL    HW118585   6.807   7.888   8.189
38896SOL    HW218586   6.721   7.974   8.099
38897SOL     OW18587  12.205  14.189  11.063
38897SOL    HW118588  12.276  14.140  11.023
38897SOL    HW218589  12.179  14.137  11.139
38898SOL     OW18590  14.083   1.969   6.583
38898SOL    HW118591  14.131   1.886   6.581
38898SOL    HW218592  14.029   1.963   6.663
38899SOL     OW18593   3.981   2.383   0.536
38899SOL    HW118594   3.896   2.401   0.496
38899SOL    HW218595   3.992   2.288   0.529
38900SOL     OW18596  13.754   6.371   4.955
38900SOL    HW118597  13.768   6.289   5.003
38900SOL    HW218598  13.667   6.401   4.984
38901SOL     OW18599  13.673   5.724   8.736
38901SOL    HW118600  13.736   5.763   8.795
38901SOL    HW218601  13.670   5.783   8.661
38902SOL     OW18602   9.004   5.396   2.397
38902SOL    HW118603   9.017   5.484   2.361
38902SOL    HW218604   9.070   5.342   2.354
38903SOL     OW18605   9.295  11.815  13.891
38903SOL    HW118606   9.255  11.776  13.814
38903SOL    HW218607   9.322  11.902  13.862
38904SOL     OW18608  10.773   3.086  12.067
38904SOL    HW118609  10.680   3.108  12.057
38904SOL    HW218610  10.782   3.064  12.160
38905SOL     OW18611  10.420   3.197   5.520
38905SOL    HW118612  10.491   3.180   5.458
38905SOL    HW218613  10.442   3.142   5.595
38906SOL     OW18614  10.648   6.702   2.087
38906SOL    HW118615  10.717   6.653   2.130
38906SOL    HW218616  10.683   6.791   2.080
38907SOL     OW18617   0.694  11.759   4.051
38907SOL    HW118618   0.651  11.755   3.966
38907SOL    HW218619   0.631  11.721   4.112
38908SOL     OW18620  12.774   6.684   1.465
38908SOL    HW118621  12.712   6.755   1.481
38908SOL    HW218622  12.842   6.696   1.532
38909SOL     OW18623  12.779   4.892   3.896
38909SOL    HW118624  12.685   4.912   3.899
38909SOL    HW218625  12.809   4.908   3.986
38910SOL     OW18626  14.412  12.880  11.079
38910SOL    HW118627  14.448  12.878  10.990
38910SOL    HW218628  14.325  12.841  11.070
38911SOL     OW18629   1.415   8.596   9.272
38911SOL    HW118630   1.416   8.535   9.346
38911SOL    HW218631   1.322   8.612   9.256
38912SOL     OW18632  10.016   0.664  10.483
38912SOL    HW118633  10.070   0.739  10.456
38912SOL    HW218634   9.927   0.690  10.461
38913SOL     OW18635   1.541  10.238  11.461
38913SOL    HW118636   1.586  10.197  11.387
38913SOL    HW218637   1.555  10.332  11.450
38914SOL     OW18638  13.440   0.220   7.107
38914SOL    HW118639  13.450   0.308   7.141
38914SOL    HW218640  13.433   0.231   7.012
38915SOL     OW18641   4.614   0.973   2.959
38915SOL    HW118642   4.583   0.941   3.044
38915SOL    HW218643   4.650   0.896   2.916
38916SOL     OW18644   7.343  13.425   1.148
38916SOL    HW118645   7.426  13.429   1.101
38916SOL    HW218646   7.291  13.361   1.100
38917SOL     OW18647   4.417  14.604   9.829
38917SOL    HW118648   4.442  14.660   9.903
38917SOL    HW218649   4.326  14.629   9.810
38918SOL     OW18650   5.436   9.869  12.215
38918SOL    HW118651   5.348   9.900  12.194
38918SOL    HW218652   5.422   9.785  12.258
38919SOL     OW18653   3.720   4.460   7.962
38919SOL    HW118654   3.632   4.421   7.963
38919SOL    HW218655   3.715   4.528   7.895
38920SOL     OW18656  11.714   5.960  14.373
38920SOL    HW118657  11.720   6.033  14.312
38920SOL    HW218658  11.783   5.976  14.437
38921SOL     OW18659   3.234  12.486   0.964
38921SOL    HW118660   3.287  12.443   0.897
38921SOL    HW218661   3.260  12.443   1.046
38922SOL     OW18662   8.347   5.668   4.543
38922SOL    HW118663   8.279   5.716   4.495
38922SOL    HW218664   8.325   5.575   4.529
38923SOL     OW18665   5.994   1.129   8.862
38923SOL    HW118666   6.053   1.055   8.878
38923SOL    HW218667   6.026   1.198   8.920
38924SOL     OW18668   1.865  14.407   4.348
38924SOL    HW118669   1.894  14.447   4.430
38924SOL    HW218670   1.947  14.385   4.303
38925SOL     OW18671   3.774   0.674  12.234
38925SOL    HW118672   3.702   0.737  12.240
38925SOL    HW218673   3.786   0.660  12.140
38926SOL     OW18674   0.055  12.613   7.212
38926SOL    HW118675  14.854  12.655   7.240
38926SOL    HW218676   0.050  12.523   7.246
38927SOL     OW18677   0.709   9.745  10.451
38927SOL    HW118678   0.800   9.736  10.424
38927SOL    HW218679   0.664   9.780  10.374
38928SOL     OW18680  14.133  10.942   6.885
38928SOL    HW118681  14.111  10.959   6.977
38928SOL    HW218682  14.158  11.028   6.850
38929SOL     OW18683   2.210  13.251  13.967
38929SOL    HW118684   2.157  13.219  14.040
38929SOL    HW218685   2.285  13.191  13.964
38930SOL     OW18686  12.702  10.090  11.924
38930SOL    HW118687  12.757  10.036  11.867
38930SOL    HW218688  12.613  10.061  11.905
38931SOL     OW18689  11.750  11.557  13.488
38931SOL    HW118690  11.811  11.552  13.414
38931SOL    HW218691  11.684  11.491  13.468
38932SOL     OW18692   9.848   4.575   2.707
38932SOL    HW118693   9.764   4.606   2.741
38932SOL    HW218694   9.909   4.583   2.781
38933SOL     OW18695   6.397   9.509   4.200
38933SOL    HW118696   6.463   9.444   4.176
38933SOL    HW218697   6.441   9.593   4.191
38934SOL     OW18698   9.563  13.088  11.028
38934SOL    HW118699   9.651  13.086  10.992
38934SOL    HW218700   9.574  13.064  11.120
38935SOL     OW18701   5.726   7.187   7.407
38935SOL    HW118702   5.799   7.223   7.357
38935SOL    HW218703   5.668   7.262   7.423
38936SOL     OW18704  12.040   1.947  14.764
38936SOL    HW118705  12.076   1.990  14.686
38936SOL    HW218706  12.112   1.892  14.795
38937SOL     OW18707   6.768   8.502   8.418
38937SOL    HW118708   6.795   8.594   8.414
38937SOL    HW218709   6.849   8.454   8.438
38938SOL     OW18710  13.765   5.210   4.009
38938SOL    HW118711  13.733   5.222   3.919
38938SOL    HW218712  13.709   5.267   4.062
38939SOL     OW18713   3.796  12.750  13.383
38939SOL    HW118714   3.858  12.822  13.377
38939SOL    HW218715   3.849  12.671  13.376
38940SOL     OW18716  13.116   6.835  14.788
38940SOL    HW118717  13.183   6.820  14.722
38940SOL    HW218718  13.131   6.766  14.853
38941SOL     OW18719   3.197   8.374   7.073
38941SOL    HW118720   3.272   8.317   7.088
38941SOL    HW218721   3.147   8.369   7.154
38942SOL     OW18722   8.185   1.383   5.310
38942SOL    HW118723   8.265   1.436   5.307
38942SOL    HW218724   8.120   1.441   5.349
38943SOL     OW18725   9.376  13.070   7.085
38943SOL    HW118726   9.437  13.007   7.047
38943SOL    HW218727   9.430  13.120   7.147
38944SOL     OW18728   5.385  13.882   3.304
38944SOL    HW118729   5.350  13.970   3.292
38944SOL    HW218730   5.354  13.834   3.227
38945SOL     OW18731   3.355   6.440   4.650
38945SOL    HW118732   3.409   6.374   4.694
38945SOL    HW218733   3.417   6.507   4.621
38946SOL     OW18734   3.332   9.319   7.731
38946SOL    HW118735   3.415   9.302   7.775
38946SOL    HW218736   3.281   9.369   7.794
38947SOL     OW18737  10.920   9.835   0.350
38947SOL    HW118738  10.981   9.908   0.338
38947SOL    HW218739  10.845   9.858   0.295
38948SOL     OW18740   3.927   4.454   3.495
38948SOL    HW118741   3.851   4.448   3.437
38948SOL    HW218742   3.944   4.547   3.505
38949SOL     OW18743   5.372   6.645   5.663
38949SOL    HW118744   5.444   6.662   5.724
38949SOL    HW218745   5.379   6.715   5.598
38950SOL     OW18746   8.435   3.889  10.934
38950SOL    HW118747   8.342   3.875  10.949
38950SOL    HW218748   8.438   3.948  10.859
38951SOL     OW18749   9.384   2.632  13.681
38951SOL    HW118750   9.414   2.604  13.595
38951SOL    HW218751   9.463   2.637  13.734
38952SOL     OW18752   1.085   4.699  11.626
38952SOL    HW118753   1.180   4.700  11.640
38952SOL    HW218754   1.065   4.607  11.608
38953SOL     OW18755   4.629  14.568   1.578
38953SOL    HW118756   4.578  14.588   1.656
38953SOL    HW218757   4.572  14.512   1.525
38954SOL     OW18758  11.222  11.849   8.820
38954SOL    HW118759  11.288  11.786   8.851
38954SOL    HW218760  11.139  11.813   8.851
38955SOL     OW18761   9.193   8.661  12.472
38955SOL    HW118762   9.278   8.695  12.445
38955SOL    HW218763   9.129   8.716  12.427
38956SOL     OW18764   5.657   5.934   0.712
38956SOL    HW118765   5.578   5.922   0.764
38956SOL    HW218766   5.727   5.896   0.765
38957SOL     OW18767   8.140  11.561   0.795
38957SOL    HW118768   8.109  11.485   0.845
38957SOL    HW218769   8.155  11.629   0.860
38958SOL     OW18770  14.187   4.154  13.326
38958SOL    HW118771  14.140   4.205  13.259
38958SOL    HW218772  14.145   4.179  13.408
38959SOL     OW18773  14.206  13.712  13.286
38959SOL    HW118774  14.301  13.729  13.286
38959SOL    HW218775  14.181  13.719  13.378
38960SOL     OW18776  13.803   4.322   9.979
38960SOL    HW118777  13.887   4.281   9.959
38960SOL    HW218778  13.761   4.262  10.041
38961SOL     OW18779   1.982  10.616   2.228
38961SOL    HW118780   2.012  10.526   2.228
38961SOL    HW218781   2.062  10.668   2.238
38962SOL     OW18782   2.782   8.313   4.748
38962SOL    HW118783   2.846   8.324   4.677
38962SOL    HW218784   2.781   8.218   4.764
38963SOL     OW18785   6.149  10.428  14.208
38963SOL    HW118786   6.117  10.480  14.135
38963SOL    HW218787   6.196  10.490  14.263
38964SOL     OW18788   3.580  11.026  12.604
38964SOL    HW118789   3.497  11.016  12.651
38964SOL    HW218790   3.636  11.074  12.664
38965SOL     OW18791  12.877   8.973  11.889
38965SOL    HW118792  12.886   8.970  11.985
38965SOL    HW218793  12.896   9.064  11.866
38966SOL     OW18794  12.080   1.830   8.439
38966SOL    HW118795  12.059   1.901   8.378
38966SOL    HW218796  12.022   1.758   8.412
38967SOL     OW18797   6.401   4.424  11.810
38967SOL    HW118798   6.468   4.378  11.761
38967SOL    HW218799   6.335   4.448  11.745
38968SOL     OW18800   4.347   5.706  13.196
38968SOL    HW118801   4.284   5.696  13.268
38968SOL    HW218802   4.352   5.801  13.182
38969SOL     OW18803  11.098   4.913   6.502
38969SOL    HW118804  11.058   4.828   6.519
38969SOL    HW218805  11.026   4.968   6.472
38970SOL     OW18806   3.479   7.371  13.034
38970SOL    HW118807   3.441   7.434  13.095
38970SOL    HW218808   3.540   7.422  12.981
38971SOL     OW18809   4.105  11.252  13.090
38971SOL    HW118810   4.066  11.204  13.017
38971SOL    HW218811   4.037  11.313  13.117
38972SOL     OW18812   6.380  11.345  14.558
38972SOL    HW118813   6.428  11.284  14.614
38972SOL    HW218814   6.305  11.372  14.612
38973SOL     OW18815   5.955   6.363   0.136
38973SOL    HW118816   5.983   6.424   0.204
38973SOL    HW218817   5.878   6.404   0.097
38974SOL     OW18818  13.025   1.677   7.371
38974SOL    HW118819  12.943   1.722   7.392
38974SOL    HW218820  12.999   1.587   7.354
38975SOL     OW18821   5.648  10.968   2.128
38975SOL    HW118822   5.569  11.001   2.085
38975SOL    HW218823   5.654  11.019   2.209
38976SOL     OW18824  11.487   2.273   3.711
38976SOL    HW118825  11.443   2.253   3.629
38976SOL    HW218826  11.519   2.362   3.701
38977SOL     OW18827   2.494   8.650  14.745
38977SOL    HW118828   2.493   8.743  14.721
38977SOL    HW218829   2.416   8.614  14.703
38978SOL     OW18830   7.239   0.261   7.042
38978SOL    HW118831   7.307   0.255   6.975
38978SOL    HW218832   7.251   0.348   7.080
38979SOL     OW18833   5.212  13.819  14.362
38979SOL    HW118834   5.238  13.804  14.271
38979SOL    HW218835   5.163  13.901  14.360
38980SOL     OW18836   6.907   6.473   3.202
38980SOL    HW118837   6.988   6.424   3.213
38980SOL    HW218838   6.882   6.500   3.290
38981SOL     OW18839   6.988   0.445   7.012
38981SOL    HW118840   6.999   0.538   6.995
38981SOL    HW218841   7.057   0.423   7.074
38982SOL     OW18842   5.498   3.658  11.087
38982SOL    HW118843   5.467   3.726  11.145
38982SOL    HW218844   5.552   3.601  11.142
38983SOL     OW18845   0.323  14.163  12.041
38983SOL    HW118846   0.333  14.131  11.951
38983SOL    HW218847   0.321  14.258  12.033
38984SOL     OW18848   2.588   5.211   5.143
38984SOL    HW118849   2.558   5.292   5.186
38984SOL    HW218850   2.651   5.174   5.204
38985SOL     OW18851  13.679   7.153   9.798
38985SOL    HW118852  13.709   7.070   9.761
38985SOL    HW218853  13.731   7.220   9.752
38986SOL     OW18854   2.190  14.840  12.582
38986SOL    HW118855   2.095  14.851  12.578
38986SOL    HW218856   2.206  14.749  12.557
38987SOL     OW18857   5.020   5.636   8.964
38987SOL    HW118858   4.991   5.591   9.043
38987SOL    HW218859   4.956   5.706   8.951
38988SOL     OW18860   4.197   1.273   5.116
38988SOL    HW118861   4.250   1.352   5.131
38988SOL    HW218862   4.149   1.262   5.198
38989SOL     OW18863  14.497  11.870   8.277
38989SOL    HW118864  14.557  11.901   8.344
38989SOL    HW218865  14.461  11.788   8.313
38990SOL     OW18866   8.450   0.377  14.474
38990SOL    HW118867   8.497   0.301  14.439
38990SOL    HW218868   8.412   0.346  14.557
38991SOL     OW18869   4.979   3.810  10.753
38991SOL    HW118870   4.956   3.887  10.700
38991SOL    HW218871   5.073   3.817  10.765
38992SOL     OW18872  10.977  14.442  13.893
38992SOL    HW118873  10.923  14.450  13.971
38992SOL    HW218874  10.917  14.460  13.820
38993SOL     OW18875   7.360  12.872   6.169
38993SOL    HW118876   7.408  12.802   6.125
38993SOL    HW218877   7.305  12.827   6.233
38994SOL     OW18878   2.618  13.479  10.282
38994SOL    HW118879   2.609  13.570  10.308
38994SOL    HW218880   2.660  13.437  10.357
38995SOL     OW18881   4.968   1.901   0.761
38995SOL    HW118882   4.907   1.849   0.708
38995SOL    HW218883   5.015   1.836   0.813
38996SOL     OW18884   1.558  13.466   2.444
38996SOL    HW118885   1.626  13.530   2.466
38996SOL    HW218886   1.486  13.519   2.411
38997SOL     OW18887   6.564   3.572   2.338
38997SOL    HW118888   6.492   3.594   2.279
38997SOL    HW218889   6.555   3.633   2.411
38998SOL     OW18890   9.228  12.333  13.686
38998SOL    HW118891   9.268  12.270  13.625
38998SOL    HW218892   9.189  12.400  13.630
38999SOL     OW18893  12.333   0.347   4.905
38999SOL    HW118894  12.333   0.435   4.867
38999SOL    HW218895  12.400   0.349   4.973
39000SOL     OW18896  11.221  11.048   0.345
39000SOL    HW118897  11.187  10.969   0.303
39000SOL    HW218898  11.179  11.120   0.298
39001SOL     OW18899   6.279  10.613   3.483
39001SOL    HW118900   6.332  10.550   3.434
39001SOL    HW218901   6.244  10.672   3.416
39002SOL     OW18902  12.143   6.939   1.897
39002SOL    HW118903  12.220   6.908   1.944
39002SOL    HW218904  12.173   7.015   1.848
39003SOL     OW18905   0.259   0.737   7.233
39003SOL    HW118906   0.245   0.657   7.182
39003SOL    HW218907   0.342   0.723   7.278
39004SOL     OW18908  12.274  12.373   3.272
39004SOL    HW118909  12.273  12.309   3.202
39004SOL    HW218910  12.182  12.390   3.291
39005SOL     OW18911  11.943  14.176  11.724
39005SOL    HW118912  11.959  14.083  11.733
39005SOL    HW218913  11.847  14.184  11.721
39006SOL     OW18914  10.076  12.146   8.622
39006SOL    HW118915  10.089  12.091   8.699
39006SOL    HW218916  10.153  12.204   8.621
39007SOL     OW18917   9.383   2.404  12.220
39007SOL    HW118918   9.290   2.420  12.237
39007SOL    HW218919   9.389   2.309  12.208
39008SOL     OW18920   0.404  11.935   0.755
39008SOL    HW118921   0.378  11.866   0.815
39008SOL    HW218922   0.400  12.015   0.808
39009SOL     OW18923   8.600   4.252   5.649
39009SOL    HW118924   8.668   4.202   5.603
39009SOL    HW218925   8.612   4.342   5.617
39010SOL     OW18926   6.254   4.093   0.767
39010SOL    HW118927   6.348   4.101   0.785
39010SOL    HW218928   6.223   4.030   0.831
39011SOL     OW18929   5.361  13.302   4.554
39011SOL    HW118930   5.339  13.319   4.645
39011SOL    HW218931   5.454  13.282   4.554
39012SOL     OW18932   9.384  12.422   6.645
39012SOL    HW118933   9.342  12.482   6.584
39012SOL    HW218934   9.435  12.364   6.590
39013SOL     OW18935   5.799   5.837  14.277
39013SOL    HW118936   5.862   5.765  14.272
39013SOL    HW218937   5.773   5.853  14.187
39014SOL     OW18938  14.154   4.203  11.259
39014SOL    HW118939  14.173   4.283  11.308
39014SOL    HW218940  14.175   4.225  11.169
39015SOL     OW18941  11.364  12.545   0.469
39015SOL    HW118942  11.291  12.493   0.436
39015SOL    HW218943  11.427  12.480   0.500
39016SOL     OW18944   4.906   9.939   9.233
39016SOL    HW118945   4.942   9.855   9.203
39016SOL    HW218946   4.811   9.931   9.219
39017SOL     OW18947   6.641   7.621  12.263
39017SOL    HW118948   6.645   7.713  12.290
39017SOL    HW218949   6.693   7.618  12.183
39018SOL     OW18950  10.735  11.897   6.653
39018SOL    HW118951  10.674  11.824   6.665
39018SOL    HW218952  10.730  11.946   6.735
39019SOL     OW18953   2.461   0.611   6.751
39019SOL    HW118954   2.512   0.555   6.809
39019SOL    HW218955   2.514   0.619   6.672
39020SOL     OW18956   4.285   0.177  14.694
39020SOL    HW118957   4.235   0.165  14.775
39020SOL    HW218958   4.267   0.097  14.643
39021SOL     OW18959   3.037   0.416   6.013
39021SOL    HW118960   2.995   0.415   5.927
39021SOL    HW218961   2.972   0.377   6.072
39022SOL     OW18962   1.660  13.181   6.800
39022SOL    HW118963   1.700  13.193   6.714
39022SOL    HW218964   1.692  13.255   6.851
39023SOL     OW18965   6.621   1.077   7.033
39023SOL    HW118966   6.610   1.153   6.976
39023SOL    HW218967   6.578   1.005   6.986
39024SOL     OW18968   5.805  14.396   0.476
39024SOL    HW118969   5.822  14.325   0.414
39024SOL    HW218970   5.710  14.406   0.475
39025SOL     OW18971   9.962   0.538   9.857
39025SOL    HW118972  10.056   0.555   9.857
39025SOL    HW218973   9.931   0.583   9.936
39026SOL     OW18974   9.292  13.319  11.265
39026SOL    HW118975   9.369  13.368  11.292
39026SOL    HW218976   9.227  13.385  11.244
39027SOL     OW18977   3.138   5.855  14.424
39027SOL    HW118978   3.231   5.877  14.429
39027SOL    HW218979   3.099   5.929  14.377
39028SOL     OW18980   9.356  12.195   9.978
39028SOL    HW118981   9.375  12.151  10.061
39028SOL    HW218982   9.423  12.262   9.970
39029SOL     OW18983   3.409   9.320   8.667
39029SOL    HW118984   3.335   9.367   8.706
39029SOL    HW218985   3.483   9.338   8.725
39030SOL     OW18986   2.681   1.028   2.502
39030SOL    HW118987   2.658   1.072   2.420
39030SOL    HW218988   2.604   0.975   2.522
39031SOL     OW18989   0.555  12.487   9.613
39031SOL    HW118990   0.557  12.436   9.532
39031SOL    HW218991   0.583  12.426   9.681
39032SOL     OW18992  14.786   1.456  13.759
39032SOL    HW118993  14.874   1.482  13.733
39032SOL    HW218994  14.775   1.368  13.722
39033SOL     OW18995   5.581   8.380   3.635
39033SOL    HW118996   5.563   8.469   3.665
39033SOL    HW218997   5.496   8.347   3.604
39034SOL     OW18998  14.257   4.252   6.695
39034SOL    HW118999  14.221   4.296   6.618
39034SOL    HW219000  14.204   4.173   6.705
39035SOL     OW19001  14.518   2.272   8.995
39035SOL    HW119002  14.515   2.364   9.018
39035SOL    HW219003  14.437   2.235   9.030
39036SOL     OW19004   4.938   5.905  13.786
39036SOL    HW119005   5.016   5.850  13.785
39036SOL    HW219006   4.963   5.982  13.838
39037SOL     OW19007   4.930   8.038   2.054
39037SOL    HW119008   4.864   7.971   2.033
39037SOL    HW219009   5.001   8.020   1.992
39038SOL     OW19010   5.113   4.051   7.449
39038SOL    HW119011   5.162   4.033   7.369
39038SOL    HW219012   5.082   4.141   7.440
39039SOL     OW19013   2.382   9.342   7.816
39039SOL    HW119014   2.475   9.330   7.831
39039SOL    HW219015   2.376   9.421   7.762
39040SOL     OW19016   3.904   1.033   6.120
39040SOL    HW119017   3.920   0.976   6.044
39040SOL    HW219018   3.843   1.100   6.087
39041SOL     OW19019   4.170   2.282   7.553
39041SOL    HW119020   4.229   2.222   7.598
39041SOL    HW219021   4.222   2.318   7.481
39042SOL     OW19022   5.361   9.171  10.429
39042SOL    HW119023   5.297   9.233  10.393
39042SOL    HW219024   5.308   9.094  10.452
39043SOL     OW19025  13.926  13.989  13.261
39043SOL    HW119026  13.956  13.910  13.216
39043SOL    HW219027  13.966  13.984  13.348
39044SOL     OW19028  10.884   1.208   0.815
39044SOL    HW119029  10.847   1.130   0.774
39044SOL    HW219030  10.978   1.203   0.797
39045SOL     OW19031   2.584   6.850  14.611
39045SOL    HW119032   2.544   6.783  14.666
39045SOL    HW219033   2.665   6.811  14.579
39046SOL     OW19034   0.527   4.983   5.795
39046SOL    HW119035   0.450   4.983   5.738
39046SOL    HW219036   0.539   4.892   5.819
39047SOL     OW19037   2.529   8.045  14.200
39047SOL    HW119038   2.624   8.034  14.199
39047SOL    HW219039   2.510   8.088  14.283
39048SOL     OW19040   6.147   4.529   0.719
39048SOL    HW119041   6.092   4.451   0.730
39048SOL    HW219042   6.211   4.504   0.652
39049SOL     OW19043  12.343  12.253   3.014
39049SOL    HW119044  12.397  12.174   3.010
39049SOL    HW219045  12.367  12.304   2.937
39050SOL     OW19046   6.623   3.337   0.305
39050SOL    HW119047   6.647   3.283   0.229
39050SOL    HW219048   6.535   3.369   0.284
39051SOL     OW19049  10.463   0.344   1.395
39051SOL    HW119050  10.459   0.437   1.372
39051SOL    HW219051  10.386   0.330   1.450
39052SOL     OW19052   3.107   4.704  11.037
39052SOL    HW119053   3.046   4.640  11.074
39052SOL    HW219054   3.109   4.685  10.943
39053SOL     OW19055   6.838  12.208   9.374
39053SOL    HW119056   6.928  12.242   9.365
39053SOL    HW219057   6.805  12.206   9.284
39054SOL     OW19058   5.282   2.547   7.724
39054SOL    HW119059   5.337   2.608   7.775
39054SOL    HW219060   5.309   2.461   7.754
39055SOL     OW19061   4.235  11.871  10.045
39055SOL    HW119062   4.199  11.787  10.073
39055SOL    HW219063   4.298  11.848   9.976
39056SOL     OW19064  13.304   3.667   2.917
39056SOL    HW119065  13.220   3.669   2.872
39056SOL    HW219066  13.331   3.576   2.914
39057SOL     OW19067   5.114  14.157  10.858
39057SOL    HW119068   5.114  14.215  10.782
39057SOL    HW219069   5.137  14.215  10.931
39058SOL     OW19070   9.135   7.685   0.398
39058SOL    HW119071   9.106   7.622   0.464
39058SOL    HW219072   9.183   7.752   0.447
39059SOL     OW19073   7.953   9.359   4.708
39059SOL    HW119074   7.920   9.283   4.756
39059SOL    HW219075   7.881   9.382   4.649
39060SOL     OW19076  14.243   2.987  11.962
39060SOL    HW119077  14.265   2.901  11.997
39060SOL    HW219078  14.181   3.023  12.026
39061SOL     OW19079  14.680   4.491   3.592
39061SOL    HW119080  14.760   4.477   3.641
39061SOL    HW219081  14.702   4.467   3.502
39062SOL     OW19082   8.048  14.125   8.604
39062SOL    HW119083   7.965  14.077   8.611
39062SOL    HW219084   8.115  14.057   8.597
39063SOL     OW19085  10.335   3.753   6.704
39063SOL    HW119086  10.383   3.826   6.666
39063SOL    HW219087  10.262   3.738   6.643
39064SOL     OW19088  14.561   5.598   3.715
39064SOL    HW119089  14.630   5.665   3.714
39064SOL    HW219090  14.485   5.642   3.752
39065SOL     OW19091   2.281   5.342   9.585
39065SOL    HW119092   2.353   5.386   9.630
39065SOL    HW219093   2.273   5.389   9.502
39066SOL     OW19094   2.402   7.478  12.949
39066SOL    HW119095   2.430   7.495  13.039
39066SOL    HW219096   2.402   7.564  12.907
39067SOL     OW19097   3.592   7.250  14.464
39067SOL    HW119098   3.648   7.246  14.542
39067SOL    HW219099   3.503   7.239  14.497
39068SOL     OW19100  13.555   2.658   0.179
39068SOL    HW119101  13.599   2.594   0.122
39068SOL    HW219102  13.567   2.623   0.267
39069SOL     OW19103   0.326   3.348   3.866
39069SOL    HW119104   0.250   3.301   3.833
39069SOL    HW219105   0.375   3.283   3.916
39070SOL     OW19106   3.090  10.858   4.891
39070SOL    HW119107   3.175  10.878   4.852
39070SOL    HW219108   3.054  10.942   4.918
39071SOL     OW19109   6.537  11.816  10.823
39071SOL    HW119110   6.590  11.789  10.898
39071SOL    HW219111   6.494  11.736  10.793
39072SOL     OW19112  12.072  14.596   2.734
39072SOL    HW119113  12.044  14.681   2.767
39072SOL    HW219114  12.019  14.581   2.656
39073SOL     OW19115   4.178   8.411   2.479
39073SOL    HW119116   4.107   8.417   2.415
39073SOL    HW219117   4.241   8.478   2.454
39074SOL     OW19118   2.175  11.106   5.843
39074SOL    HW119119   2.099  11.054   5.817
39074SOL    HW219120   2.138  11.190   5.869
39075SOL     OW19121   3.654   4.198   2.186
39075SOL    HW119122   3.729   4.141   2.171
39075SOL    HW219123   3.635   4.237   2.101
39076SOL     OW19124   4.585   1.311   5.124
39076SOL    HW119125   4.595   1.326   5.030
39076SOL    HW219126   4.668   1.340   5.161
39077SOL     OW19127   8.599   9.534  12.829
39077SOL    HW119128   8.577   9.458  12.775
39077SOL    HW219129   8.695   9.530  12.836
39078SOL     OW19130   7.971  10.286   3.263
39078SOL    HW119131   8.025  10.259   3.337
39078SOL    HW219132   7.957  10.206   3.212
39079SOL     OW19133   6.297  11.175   7.354
39079SOL    HW119134   6.296  11.270   7.350
39079SOL    HW219135   6.312  11.155   7.447
39080SOL     OW19136   4.271   9.552  14.349
39080SOL    HW119137   4.218   9.607  14.292
39080SOL    HW219138   4.225   9.468  14.351
39081SOL     OW19139  10.936   9.760  13.709
39081SOL    HW119140  10.976   9.749  13.795
39081SOL    HW219141  10.968   9.686  13.658
39082SOL     OW19142  12.024   2.799   7.637
39082SOL    HW119143  12.023   2.733   7.567
39082SOL    HW219144  12.060   2.753   7.713
39083SOL     OW19145   6.916   6.301   5.534
39083SOL    HW119146   6.949   6.256   5.456
39083SOL    HW219147   6.990   6.304   5.594
39084SOL     OW19148   9.976   8.858  10.876
39084SOL    HW119149   9.972   8.843  10.970
39084SOL    HW219150  10.019   8.943  10.867
39085SOL     OW19151   8.264  10.559   0.664
39085SOL    HW119152   8.238  10.484   0.716
39085SOL    HW219153   8.307  10.521   0.587
39086SOL     OW19154   0.905   8.338  10.871
39086SOL    HW119155   0.901   8.294  10.786
39086SOL    HW219156   0.992   8.317  10.905
39087SOL     OW19157   6.864   3.266   4.547
39087SOL    HW119158   6.880   3.338   4.608
39087SOL    HW219159   6.903   3.189   4.590
39088SOL     OW19160   8.357  10.822   4.069
39088SOL    HW119161   8.447  10.854   4.070
39088SOL    HW219162   8.359  10.742   4.122
39089SOL     OW19163   4.979   0.272   4.300
39089SOL    HW119164   5.029   0.191   4.308
39089SOL    HW219165   5.043   0.337   4.270
39090SOL     OW19166   8.103   8.874   1.517
39090SOL    HW119167   8.077   8.890   1.607
39090SOL    HW219168   8.130   8.959   1.483
39091SOL     OW19169  11.847   6.239   8.630
39091SOL    HW119170  11.926   6.187   8.647
39091SOL    HW219171  11.787   6.178   8.587
39092SOL     OW19172   6.965  11.530  12.942
39092SOL    HW119173   6.983  11.477  12.864
39092SOL    HW219174   6.918  11.607  12.908
39093SOL     OW19175   2.662  11.697   3.021
39093SOL    HW119176   2.588  11.712   2.962
39093SOL    HW219177   2.711  11.625   2.980
39094SOL     OW19178   6.555   6.009   0.886
39094SOL    HW119179   6.555   6.049   0.973
39094SOL    HW219180   6.647   5.987   0.871
39095SOL     OW19181  12.582   4.624   9.681
39095SOL    HW119182  12.599   4.713   9.651
39095SOL    HW219183  12.636   4.614   9.759
39096SOL     OW19184   4.883  11.306   8.534
39096SOL    HW119185   4.809  11.313   8.473
39096SOL    HW219186   4.885  11.214   8.558
39097SOL     OW19187  10.001  14.465   8.201
39097SOL    HW119188  10.064  14.468   8.129
39097SOL    HW219189  10.054  14.477   8.279
39098SOL     OW19190  14.560   8.077  13.922
39098SOL    HW119191  14.468   8.085  13.900
39098SOL    HW219192  14.568   8.117  14.009
39099SOL     OW19193   6.190   1.948   3.496
39099SOL    HW119194   6.274   1.980   3.531
39099SOL    HW219195   6.163   2.016   3.435
39100SOL     OW19196   6.964   4.483  14.151
39100SOL    HW119197   6.990   4.571  14.180
39100SOL    HW219198   7.028   4.460  14.083
39101SOL     OW19199   4.067  12.138  11.813
39101SOL    HW119200   4.049  12.087  11.892
39101SOL    HW219201   4.151  12.181  11.831
39102SOL     OW19202  13.123  11.076  12.779
39102SOL    HW119203  13.128  10.994  12.829
39102SOL    HW219204  13.090  11.140  12.842
39103SOL     OW19205  11.298  14.085   7.083
39103SOL    HW119206  11.260  14.120   7.002
39103SOL    HW219207  11.222  14.062   7.137
39104SOL     OW19208   5.227   8.503   8.368
39104SOL    HW119209   5.148   8.457   8.341
39104SOL    HW219210   5.299   8.447   8.337
39105SOL     OW19211   9.068   7.141  14.256
39105SOL    HW119212   8.980   7.140  14.219
39105SOL    HW219213   9.116   7.202  14.200
39106SOL     OW19214   0.612  12.055   6.357
39106SOL    HW119215   0.684  12.118   6.359
39106SOL    HW219216   0.546  12.093   6.414
39107SOL     OW19217  10.424   0.754   9.839
39107SOL    HW119218  10.410   0.664   9.869
39107SOL    HW219219  10.371   0.760   9.759
39108SOL     OW19220  13.502  14.671   4.716
39108SOL    HW119221  13.494  14.767   4.718
39108SOL    HW219222  13.465  14.646   4.632
39109SOL     OW19223   6.511  14.557   9.548
39109SOL    HW119224   6.421  14.586   9.535
39109SOL    HW219225   6.519  14.543   9.642
39110SOL     OW19226  12.212  10.073   0.494
39110SOL    HW119227  12.256   9.992   0.521
39110SOL    HW219228  12.283  10.138   0.487
39111SOL     OW19229   8.316   9.283   2.614
39111SOL    HW119230   8.390   9.237   2.574
39111SOL    HW219231   8.288   9.226   2.686
39112SOL     OW19232  14.714   0.547   8.212
39112SOL    HW119233  14.733   0.607   8.284
39112SOL    HW219234  14.642   0.587   8.165
39113SOL     OW19235   5.302   0.206   0.671
39113SOL    HW119236   5.217   0.162   0.671
39113SOL    HW219237   5.281   0.299   0.662
39114SOL     OW19238   0.795   4.668   7.989
39114SOL    HW119239   0.885   4.683   7.958
39114SOL    HW219240   0.786   4.727   8.063
39115SOL     OW19241   4.877   6.997   1.992
39115SOL    HW119242   4.785   7.010   2.012
39115SOL    HW219243   4.922   7.007   2.076
39116SOL     OW19244   2.770  11.874   0.336
39116SOL    HW119245   2.706  11.826   0.388
39116SOL    HW219246   2.744  11.966   0.346
39117SOL     OW19247   6.688  14.815   9.458
39117SOL    HW119248   6.680  14.735   9.407
39117SOL    HW219249   6.617  14.809   9.522
39118SOL     OW19250   1.608   7.634   8.470
39118SOL    HW119251   1.590   7.541   8.478
39118SOL    HW219252   1.700   7.643   8.494
39119SOL     OW19253   0.221  12.830   7.187
39119SOL    HW119254   0.168  12.754   7.214
39119SOL    HW219255   0.244  12.812   7.096
39120SOL     OW19256  11.482  12.137   7.013
39120SOL    HW119257  11.550  12.139   6.945
39120SOL    HW219258  11.516  12.194   7.081
39121SOL     OW19259   5.820   5.773  12.155
39121SOL    HW119260   5.841   5.858  12.193
39121SOL    HW219261   5.853   5.709  12.218
39122SOL     OW19262   7.942   1.100  10.379
39122SOL    HW119263   7.997   1.070  10.307
39122SOL    HW219264   8.002   1.146  10.437
39123SOL     OW19265  11.719   6.315  13.160
39123SOL    HW119266  11.738   6.380  13.227
39123SOL    HW219267  11.624   6.318  13.150
39124SOL     OW19268  13.631   3.376   9.313
39124SOL    HW119269  13.560   3.320   9.281
39124SOL    HW219270  13.708   3.348   9.264
39125SOL     OW19271  12.680   9.850   7.233
39125SOL    HW119272  12.685   9.772   7.288
39125SOL    HW219273  12.679   9.816   7.143
39126SOL     OW19274   2.743  12.096   2.911
39126SOL    HW119275   2.717  12.038   2.982
39126SOL    HW219276   2.696  12.178   2.928
39127SOL     OW19277  10.837   2.603   5.910
39127SOL    HW119278  10.794   2.689   5.911
39127SOL    HW219279  10.765   2.540   5.917
39128SOL     OW19280   5.920   1.474   9.671
39128SOL    HW119281   6.012   1.493   9.651
39128SOL    HW219282   5.871   1.514   9.599
39129SOL     OW19283   8.239   8.034  10.912
39129SOL    HW119284   8.264   8.064  10.825
39129SOL    HW219285   8.146   8.012  10.905
39130SOL     OW19286   7.343   0.674   8.149
39130SOL    HW119287   7.308   0.667   8.060
39130SOL    HW219288   7.435   0.648   8.141
39131SOL     OW19289   6.948   1.916   2.247
39131SOL    HW119290   7.033   1.960   2.251
39131SOL    HW219291   6.950   1.867   2.165
39132SOL     OW19292  11.857   1.972   0.922
39132SOL    HW119293  11.936   1.922   0.904
39132SOL    HW219294  11.790   1.905   0.937
39133SOL     OW19295   5.000  13.462   0.480
39133SOL    HW119296   4.992  13.367   0.480
39133SOL    HW219297   5.006  13.486   0.572
39134SOL     OW19298   5.513  11.916   2.957
39134SOL    HW119299   5.496  11.878   2.871
39134SOL    HW219300   5.498  12.010   2.946
39135SOL     OW19301  11.286   0.277  10.200
39135SOL    HW119302  11.207   0.262  10.251
39135SOL    HW219303  11.299   0.372  10.204
39136SOL     OW19304  11.215  13.704  11.646
39136SOL    HW119305  11.200  13.610  11.637
39136SOL    HW219306  11.300  13.711  11.688
39137SOL     OW19307  13.275   0.568   3.173
39137SOL    HW119308  13.224   0.635   3.218
39137SOL    HW219309  13.366   0.592   3.190
39138SOL     OW19310   5.966   2.031   1.811
39138SOL    HW119311   5.939   2.107   1.862
39138SOL    HW219312   5.927   2.044   1.724
39139SOL     OW19313  10.458   8.800   9.001
39139SOL    HW119314  10.385   8.810   8.940
39139SOL    HW219315  10.494   8.713   8.981
39140SOL     OW19316  12.985   2.661  13.545
39140SOL    HW119317  12.987   2.730  13.479
39140SOL    HW219318  12.893   2.656  13.572
39141SOL     OW19319   6.970   7.441   8.208
39141SOL    HW119320   6.917   7.450   8.287
39141SOL    HW219321   7.037   7.508   8.216
39142SOL     OW19322   4.915   3.063   0.060
39142SOL    HW119323   4.865   3.030   0.135
39142SOL    HW219324   4.905   2.995  14.873
39143SOL     OW19325   1.652   9.076   3.463
39143SOL    HW119326   1.606   9.133   3.525
39143SOL    HW219327   1.582   9.026   3.420
39144SOL     OW19328   8.366   3.378  10.552
39144SOL    HW119329   8.336   3.314  10.487
39144SOL    HW219330   8.380   3.327  10.632
39145SOL     OW19331  13.329  11.379  11.440
39145SOL    HW119332  13.327  11.398  11.534
39145SOL    HW219333  13.377  11.453  11.402
39146SOL     OW19334   1.835   1.057  13.858
39146SOL    HW119335   1.747   1.045  13.894
39146SOL    HW219336   1.888   1.084  13.932
39147SOL     OW19337   1.266  12.452   3.304
39147SOL    HW119338   1.282  12.545   3.314
39147SOL    HW219339   1.215  12.427   3.382
39148SOL     OW19340  14.554   9.920   0.135
39148SOL    HW119341  14.617   9.850   0.114
39148SOL    HW219342  14.519   9.947   0.050
39149SOL     OW19343   6.114   2.913   1.340
39149SOL    HW119344   6.131   2.830   1.385
39149SOL    HW219345   6.191   2.967   1.358
39150SOL     OW19346  14.255   8.435   8.981
39150SOL    HW119347  14.337   8.452   9.027
39150SOL    HW219348  14.255   8.341   8.968
39151SOL     OW19349   6.544   6.049   7.413
39151SOL    HW119350   6.606   5.994   7.460
39151SOL    HW219351   6.527   6.002   7.332
39152SOL     OW19352   7.741  14.037  12.816
39152SOL    HW119353   7.794  14.101  12.863
39152SOL    HW219354   7.651  14.066  12.829
39153SOL     OW19355  10.873   6.146   0.949
39153SOL    HW119356  10.823   6.075   0.910
39153SOL    HW219357  10.964   6.118   0.944
39154SOL     OW19358   3.524   8.774  10.221
39154SOL    HW119359   3.497   8.858  10.185
39154SOL    HW219360   3.484   8.771  10.308
39155SOL     OW19361  14.462   7.973   0.862
39155SOL    HW119362  14.444   7.985   0.768
39155SOL    HW219363  14.376   7.961   0.902
39156SOL     OW19364   6.170   7.243   4.561
39156SOL    HW119365   6.083   7.202   4.553
39156SOL    HW219366   6.224   7.176   4.602
39157SOL     OW19367  14.776   4.142   1.303
39157SOL    HW119368  14.781   4.109   1.393
39157SOL    HW219369  14.830   4.081   1.253
39158SOL     OW19370  14.691   1.398   1.407
39158SOL    HW119371  14.604   1.380   1.372
39158SOL    HW219372  14.679   1.399   1.501
39159SOL     OW19373  13.159  12.928   9.269
39159SOL    HW119374  13.186  12.865   9.202
39159SOL    HW219375  13.211  13.006   9.250
39160SOL     OW19376  10.535  13.162   4.296
39160SOL    HW119377  10.616  13.212   4.305
39160SOL    HW219378  10.497  13.163   4.384
39161SOL     OW19379  11.198  12.236   7.462
39161SOL    HW119380  11.226  12.145   7.466
39161SOL    HW219381  11.121  12.235   7.406
39162SOL     OW19382  14.756   8.606  11.751
39162SOL    HW119383  14.677   8.553  11.739
39162SOL    HW219384  14.828   8.546  11.732
39163SOL     OW19385   0.127   7.994   0.141
39163SOL    HW119386   0.160   8.026   0.056
39163SOL    HW219387   0.204   7.959   0.185
39164SOL     OW19388   6.014   4.036  12.509
39164SOL    HW119389   5.969   3.954  12.491
39164SOL    HW219390   6.036   4.071  12.423
39165SOL     OW19391   6.608   7.235   4.695
39165SOL    HW119392   6.527   7.287   4.692
39165SOL    HW219393   6.607   7.184   4.614
39166SOL     OW19394  14.112   6.369   6.577
39166SOL    HW119395  14.069   6.285   6.563
39166SOL    HW219396  14.170   6.379   6.502
39167SOL     OW19397  13.613  11.888  12.693
39167SOL    HW119398  13.565  11.878  12.774
39167SOL    HW219399  13.697  11.928  12.719
39168SOL     OW19400  12.172   6.093   7.816
39168SOL    HW119401  12.265   6.114   7.813
39168SOL    HW219402  12.167   6.014   7.868
39169SOL     OW19403   6.186   3.632  12.057
39169SOL    HW119404   6.189   3.728  12.061
39169SOL    HW219405   6.265   3.608  12.009
39170SOL     OW19406   5.910   5.066   5.771
39170SOL    HW119407   5.973   5.097   5.706
39170SOL    HW219408   5.963   5.015   5.833
39171SOL     OW19409   2.675  13.504   2.257
39171SOL    HW119410   2.704  13.595   2.266
39171SOL    HW219411   2.634  13.484   2.341
39172SOL     OW19412   0.316   7.188   6.733
39172SOL    HW119413   0.285   7.254   6.670
39172SOL    HW219414   0.311   7.105   6.685
39173SOL     OW19415   7.799  13.451   8.390
39173SOL    HW119416   7.826  13.375   8.441
39173SOL    HW219417   7.824  13.430   8.300
39174SOL     OW19418   9.334   9.755   9.912
39174SOL    HW119419   9.249   9.724   9.880
39174SOL    HW219420   9.397   9.724   9.847
39175SOL     OW19421  14.609   4.023  11.979
39175SOL    HW119422  14.598   4.116  11.999
39175SOL    HW219423  14.524   3.984  12.000
39176SOL     OW19424  11.036  12.313   8.739
39176SOL    HW119425  11.003  12.245   8.680
39176SOL    HW219426  11.124  12.284   8.763
39177SOL     OW19427   0.603  10.146   1.313
39177SOL    HW119428   0.535  10.196   1.358
39177SOL    HW219429   0.679  10.153   1.370
39178SOL     OW19430   9.561  13.366   2.385
39178SOL    HW119431   9.634  13.400   2.333
39178SOL    HW219432   9.510  13.313   2.324
39179SOL     OW19433  10.968  11.000  14.768
39179SOL    HW119434  11.058  10.968  14.771
39179SOL    HW219435  10.925  10.956  14.841
39180SOL     OW19436   4.761   9.930  12.350
39180SOL    HW119437   4.838   9.876  12.368
39180SOL    HW219438   4.704   9.916  12.425
39181SOL     OW19439   2.872   7.991   0.787
39181SOL    HW119440   2.835   8.043   0.858
39181SOL    HW219441   2.799   7.980   0.725
39182SOL     OW19442   9.947  10.822   1.625
39182SOL    HW119443   9.952  10.808   1.719
39182SOL    HW219444   9.930  10.915   1.615
39183SOL     OW19445  13.670   1.112   5.759
39183SOL    HW119446  13.630   1.174   5.820
39183SOL    HW219447  13.739   1.070   5.810
39184SOL     OW19448  12.277   4.808   4.844
39184SOL    HW119449  12.221   4.885   4.854
39184SOL    HW219450  12.235   4.741   4.897
39185SOL     OW19451   8.893   7.692  10.706
39185SOL    HW119452   8.843   7.613  10.726
39185SOL    HW219453   8.975   7.681  10.755
39186SOL     OW19454  11.499  11.305   8.069
39186SOL    HW119455  11.591  11.295   8.094
39186SOL    HW219456  11.492  11.262   7.984
39187SOL     OW19457  12.991   7.981   1.255
39187SOL    HW119458  12.988   7.964   1.349
39187SOL    HW219459  13.059   7.922   1.223
39188SOL     OW19460  10.989  13.828   0.876
39188SOL    HW119461  11.072  13.783   0.891
39188SOL    HW219462  10.923  13.767   0.909
39189SOL     OW19463  13.337   7.642   7.859
39189SOL    HW119464  13.283   7.660   7.781
39189SOL    HW219465  13.275   7.605   7.922
39190SOL     OW19466  13.181  12.116  14.589
39190SOL    HW119467  13.252  12.179  14.600
39190SOL    HW219468  13.224  12.031  14.586
39191SOL     OW19469   1.889   0.554   1.360
39191SOL    HW119470   1.891   0.502   1.280
39191SOL    HW219471   1.797   0.552   1.387
39192SOL     OW19472  14.525   4.838   5.564
39192SOL    HW119473  14.464   4.769   5.539
39192SOL    HW219474  14.515   4.846   5.659
39193SOL     OW19475  14.598  12.703   9.985
39193SOL    HW119476  14.534  12.727  10.051
39193SOL    HW219477  14.645  12.785   9.967
39194SOL     OW19478   4.178   8.013  14.513
39194SOL    HW119479   4.129   7.931  14.501
39194SOL    HW219480   4.110   8.079  14.529
39195SOL     OW19481   5.316  12.379   0.704
39195SOL    HW119482   5.259  12.354   0.777
39195SOL    HW219483   5.285  12.465   0.677
39196SOL     OW19484   7.911   4.201   7.789
39196SOL    HW119485   7.916   4.176   7.697
39196SOL    HW219486   7.823   4.175   7.816
39197SOL     OW19487  10.175  12.864   1.091
39197SOL    HW119488  10.202  12.772   1.097
39197SOL    HW219489  10.081  12.862   1.107
39198SOL     OW19490  11.519   2.852   9.415
39198SOL    HW119491  11.436   2.898   9.403
39198SOL    HW219492  11.497   2.759   9.403
39199SOL     OW19493  10.194   0.008  13.633
39199SOL    HW119494  10.133  14.819  13.658
39199SOL    HW219495  10.276  14.843  13.618
39200SOL     OW19496   8.269   7.974   6.857
39200SOL    HW119497   8.207   8.044   6.836
39200SOL    HW219498   8.322   8.010   6.928
39201SOL     OW19499  12.625   6.076   5.733
39201SOL    HW119500  12.539   6.051   5.768
39201SOL    HW219501  12.619   6.170   5.718
39202SOL     OW19502   6.938   3.585  12.091
39202SOL    HW119503   7.014   3.600  12.034
39202SOL    HW219504   6.863   3.591  12.033
39203SOL     OW19505   0.289   2.304  12.601
39203SOL    HW119506   0.342   2.381  12.584
39203SOL    HW219507   0.320   2.271  12.685
39204SOL     OW19508  13.075   2.074   1.343
39204SOL    HW119509  13.071   2.107   1.253
39204SOL    HW219510  13.168   2.058   1.358
39205SOL     OW19511   0.151   8.855   9.116
39205SOL    HW119512   0.059   8.841   9.139
39205SOL    HW219513   0.158   8.950   9.104
39206SOL     OW19514  10.023  12.874   6.424
39206SOL    HW119515   9.949  12.856   6.481
39206SOL    HW219516  10.085  12.802   6.440
39207SOL     OW19517  10.097   9.528   1.642
39207SOL    HW119518  10.036   9.455   1.652
39207SOL    HW219519  10.041   9.605   1.633
39208SOL     OW19520   7.206  12.070   8.628
39208SOL    HW119521   7.278  12.101   8.573
39208SOL    HW219522   7.165  12.001   8.576
39209SOL     OW19523  13.908   0.974  10.563
39209SOL    HW119524  13.817   0.993  10.583
39209SOL    HW219525  13.914   0.878  10.564
39210SOL     OW19526   7.705  14.724   0.971
39210SOL    HW119527   7.621  14.768   0.979
39210SOL    HW219528   7.748  14.770   0.898
39211SOL     OW19529   3.480   5.936  12.997
39211SOL    HW119530   3.444   5.950  12.910
39211SOL    HW219531   3.404   5.929  13.054
39212SOL     OW19532   0.334   7.257   3.079
39212SOL    HW119533   0.425   7.285   3.071
39212SOL    HW219534   0.288   7.337   3.107
39213SOL     OW19535   2.949  10.772   7.925
39213SOL    HW119536   2.878  10.817   7.879
39213SOL    HW219537   2.955  10.816   8.010
39214SOL     OW19538   4.606  14.358   0.877
39214SOL    HW119539   4.679  14.307   0.841
39214SOL    HW219540   4.648  14.426   0.930
39215SOL     OW19541  13.966   1.421   1.294
39215SOL    HW119542  13.896   1.486   1.286
39215SOL    HW219543  13.941   1.350   1.235
39216SOL     OW19544   9.259  12.762  14.636
39216SOL    HW119545   9.286  12.684  14.684
39216SOL    HW219546   9.209  12.728  14.562
39217SOL     OW19547  11.310   2.789   3.824
39217SOL    HW119548  11.223   2.811   3.858
39217SOL    HW219549  11.325   2.699   3.851
39218SOL     OW19550   3.902   8.000   1.208
39218SOL    HW119551   3.807   8.015   1.202
39218SOL    HW219552   3.909   7.918   1.256
39219SOL     OW19553   8.137   5.679  14.772
39219SOL    HW119554   8.072   5.619  14.738
39219SOL    HW219555   8.154   5.649  14.861
39220SOL     OW19556   3.871   2.368   2.512
39220SOL    HW119557   3.852   2.421   2.434
39220SOL    HW219558   3.800   2.389   2.573
39221SOL     OW19559  12.436   9.822   6.521
39221SOL    HW119560  12.471   9.818   6.432
39221SOL    HW219561  12.508   9.857   6.574
39222SOL     OW19562   6.129   7.805  10.604
39222SOL    HW119563   6.206   7.755  10.632
39222SOL    HW219564   6.104   7.857  10.680
39223SOL     OW19565   4.137  11.553   3.101
39223SOL    HW119566   4.219  11.539   3.149
39223SOL    HW219567   4.112  11.465   3.073
39224SOL     OW19568  13.667  13.919   9.496
39224SOL    HW119569  13.684  13.977   9.422
39224SOL    HW219570  13.638  13.837   9.455
39225SOL     OW19571  13.228  12.477   5.786
39225SOL    HW119572  13.192  12.489   5.698
39225SOL    HW219573  13.164  12.422   5.831
39226SOL     OW19574  14.770   2.988   0.686
39226SOL    HW119575  14.790   2.895   0.692
39226SOL    HW219576  14.687   2.992   0.638
39227SOL     OW19577  12.672  12.827   6.722
39227SOL    HW119578  12.582  12.793   6.726
39227SOL    HW219579  12.713  12.778   6.650
39228SOL     OW19580   9.991   1.687   3.932
39228SOL    HW119581   9.981   1.745   4.007
39228SOL    HW219582  10.055   1.622   3.961
39229SOL     OW19583   4.372   2.448  12.176
39229SOL    HW119584   4.441   2.436  12.241
39229SOL    HW219585   4.407   2.513  12.115
39230SOL     OW19586   5.871  11.407   4.450
39230SOL    HW119587   5.800  11.411   4.514
39230SOL    HW219588   5.828  11.390   4.366
39231SOL     OW19589   8.480   4.896   5.804
39231SOL    HW119590   8.521   4.881   5.889
39231SOL    HW219591   8.472   4.991   5.798
39232SOL     OW19592   3.307  11.957  14.023
39232SOL    HW119593   3.219  11.937  13.988
39232SOL    HW219594   3.363  11.959  13.945
39233SOL     OW19595  12.963   1.694   4.491
39233SOL    HW119596  12.999   1.748   4.562
39233SOL    HW219597  12.869   1.690   4.509
39234SOL     OW19598  11.064   3.377   6.208
39234SOL    HW119599  11.128   3.323   6.254
39234SOL    HW219600  11.113   3.456   6.183
39235SOL     OW19601   6.618  10.879   4.179
39235SOL    HW119602   6.531  10.891   4.141
39235SOL    HW219603   6.647  10.967   4.202
39236SOL     OW19604   4.345   9.226   8.676
39236SOL    HW119605   4.431   9.230   8.634
39236SOL    HW219606   4.360   9.262   8.764
39237SOL     OW19607  10.809   5.850   9.065
39237SOL    HW119608  10.845   5.933   9.035
39237SOL    HW219609  10.875   5.816   9.126
39238SOL     OW19610   5.840   5.355   2.691
39238SOL    HW119611   5.894   5.339   2.769
39238SOL    HW219612   5.837   5.451   2.684
39239SOL     OW19613  13.072  14.416   0.124
39239SOL    HW119614  13.145  14.382   0.177
39239SOL    HW219615  13.113  14.440   0.041
39240SOL     OW19616   4.908  13.334  10.954
39240SOL    HW119617   4.993  13.326  10.909
39240SOL    HW219618   4.900  13.428  10.971
39241SOL     OW19619   7.546  14.234   1.998
39241SOL    HW119620   7.532  14.179   1.921
39241SOL    HW219621   7.609  14.186   2.051
39242SOL     OW19622   6.204  13.222   9.166
39242SOL    HW119623   6.184  13.206   9.074
39242SOL    HW219624   6.121  13.212   9.212
39243SOL     OW19625   7.904   0.113   1.664
39243SOL    HW119626   7.830   0.113   1.604
39243SOL    HW219627   7.962   0.044   1.631
39244SOL     OW19628  11.994   9.355   0.264
39244SOL    HW119629  11.957   9.427   0.213
39244SOL    HW219630  11.948   9.358   0.348
39245SOL     OW19631  13.021   5.282  12.333
39245SOL    HW119632  12.975   5.331  12.402
39245SOL    HW219633  13.103   5.330  12.320
39246SOL     OW19634   6.639   7.740   3.113
39246SOL    HW119635   6.723   7.702   3.089
39246SOL    HW219636   6.584   7.728   3.036
39247SOL     OW19637   9.535   7.450   0.869
39247SOL    HW119638   9.561   7.475   0.780
39247SOL    HW219639   9.441   7.464   0.871
39248SOL     OW19640   2.211  12.437   7.101
39248SOL    HW119641   2.221  12.342   7.106
39248SOL    HW219642   2.203  12.455   7.007
39249SOL     OW19643   4.469   1.023  11.689
39249SOL    HW119644   4.460   0.940  11.642
39249SOL    HW219645   4.425   1.087  11.633
39250SOL     OW19646  10.215   2.055   0.272
39250SOL    HW119647  10.148   2.079   0.208
39250SOL    HW219648  10.288   2.021   0.219
39251SOL     OW19649   6.567   8.562  13.370
39251SOL    HW119650   6.475   8.585  13.374
39251SOL    HW219651   6.599   8.602  13.290
39252SOL     OW19652   5.760  12.852   9.541
39252SOL    HW119653   5.773  12.778   9.481
39252SOL    HW219654   5.841  12.857   9.591
39253SOL     OW19655   9.361  14.609   4.317
39253SOL    HW119656   9.282  14.638   4.272
39253SOL    HW219657   9.329  14.555   4.390
39254SOL     OW19658   9.179   3.353   1.728
39254SOL    HW119659   9.127   3.398   1.794
39254SOL    HW219660   9.251   3.313   1.778
39255SOL     OW19661   2.378   1.367   1.858
39255SOL    HW119662   2.298   1.318   1.876
39255SOL    HW219663   2.349   1.457   1.843
39256SOL     OW19664   5.176   4.136   3.233
39256SOL    HW119665   5.222   4.220   3.242
39256SOL    HW219666   5.223   4.090   3.163
39257SOL     OW19667   2.391   4.233   2.153
39257SOL    HW119668   2.435   4.148   2.152
39257SOL    HW219669   2.462   4.297   2.148
39258SOL     OW19670   4.260  14.848   7.829
39258SOL    HW119671   4.328  14.822   7.891
39258SOL    HW219672   4.238   0.058   7.854
39259SOL     OW19673   9.254   2.001   4.042
39259SOL    HW119674   9.202   1.973   3.966
39259SOL    HW219675   9.328   2.049   4.003
39260SOL     OW19676   4.911   8.454   0.354
39260SOL    HW119677   4.911   8.366   0.316
39260SOL    HW219678   4.872   8.443   0.441
39261SOL     OW19679   9.054  13.342   8.709
39261SOL    HW119680   9.114  13.269   8.693
39261SOL    HW219681   9.089  13.385   8.787
39262SOL     OW19682  10.879   8.744   3.287
39262SOL    HW119683  10.796   8.771   3.326
39262SOL    HW219684  10.855   8.686   3.215
39263SOL     OW19685  13.185  13.817   0.546
39263SOL    HW119686  13.269  13.832   0.501
39263SOL    HW219687  13.184  13.882   0.616
39264SOL     OW19688  14.722   1.298   9.532
39264SOL    HW119689  14.788   1.367   9.522
39264SOL    HW219690  14.709   1.291   9.626
39265SOL     OW19691  13.633   5.471   0.817
39265SOL    HW119692  13.696   5.479   0.746
39265SOL    HW219693  13.609   5.378   0.818
39266SOL     OW19694  11.036   0.813   2.704
39266SOL    HW119695  11.062   0.890   2.753
39266SOL    HW219696  11.092   0.813   2.626
39267SOL     OW19697  13.772   2.699  10.437
39267SOL    HW119698  13.850   2.679  10.385
39267SOL    HW219699  13.717   2.750  10.378
39268SOL     OW19700   8.556   4.174   5.942
39268SOL    HW119701   8.640   4.205   5.975
39268SOL    HW219702   8.563   4.183   5.847
39269SOL     OW19703   0.786  13.966   5.712
39269SOL    HW119704   0.745  13.908   5.776
39269SOL    HW219705   0.828  13.908   5.649
39270SOL     OW19706  11.443   2.747   7.139
39270SOL    HW119707  11.528   2.789   7.149
39270SOL    HW219708  11.439   2.720   7.048
39271SOL     OW19709  14.450   2.850   5.825
39271SOL    HW119710  14.540   2.831   5.850
39271SOL    HW219711  14.453   2.939   5.790
39272SOL     OW19712   7.846  10.638  14.346
39272SOL    HW119713   7.885  10.689  14.275
39272SOL    HW219714   7.790  10.700  14.393
39273SOL     OW19715   8.107   9.969   0.786
39273SOL    HW119716   8.034   9.926   0.741
39273SOL    HW219717   8.182   9.912   0.769
39274SOL     OW19718  11.989   3.734   5.057
39274SOL    HW119719  12.019   3.773   5.139
39274SOL    HW219720  12.048   3.660   5.042
39275SOL     OW19721   9.386  10.992   0.267
39275SOL    HW119722   9.319  11.058   0.253
39275SOL    HW219723   9.467  11.041   0.281
39276SOL     OW19724   2.554   3.311   2.009
39276SOL    HW119725   2.532   3.403   1.993
39276SOL    HW219726   2.618   3.289   1.942
39277SOL     OW19727   9.453  12.236  11.456
39277SOL    HW119728   9.513  12.237  11.381
39277SOL    HW219729   9.398  12.159  11.442
39278SOL     OW19730   7.372   7.340   6.580
39278SOL    HW119731   7.335   7.399   6.515
39278SOL    HW219732   7.304   7.332   6.647
39279SOL     OW19733  11.835   9.453   9.771
39279SOL    HW119734  11.751   9.496   9.783
39279SOL    HW219735  11.813   9.362   9.751
39280SOL     OW19736   2.090   5.816  10.664
39280SOL    HW119737   2.002   5.801  10.630
39280SOL    HW219738   2.148   5.791  10.592
39281SOL     OW19739   5.271   1.515   5.330
39281SOL    HW119740   5.182   1.504   5.363
39281SOL    HW219741   5.312   1.429   5.344
39282SOL     OW19742   0.595   8.335   0.505
39282SOL    HW119743   0.629   8.320   0.417
39282SOL    HW219744   0.651   8.284   0.562
39283SOL     OW19745   6.810   2.207   7.799
39283SOL    HW119746   6.877   2.208   7.867
39283SOL    HW219747   6.761   2.126   7.814
39284SOL     OW19748   5.432   4.543   6.406
39284SOL    HW119749   5.524   4.533   6.434
39284SOL    HW219750   5.437   4.590   6.323
39285SOL     OW19751   5.843   7.163  11.446
39285SOL    HW119752   5.765   7.110  11.462
39285SOL    HW219753   5.841   7.230  11.515
39286SOL     OW19754   8.621   4.616   6.866
39286SOL    HW119755   8.627   4.585   6.957
39286SOL    HW219756   8.691   4.681   6.859
39287SOL     OW19757  14.612   2.498   2.934
39287SOL    HW119758  14.602   2.403   2.942
39287SOL    HW219759  14.562   2.521   2.857
39288SOL     OW19760  14.531  13.066   5.426
39288SOL    HW119761  14.614  13.047   5.381
39288SOL    HW219762  14.532  13.009   5.503
39289SOL     OW19763   7.392   0.537  10.548
39289SOL    HW119764   7.306   0.578  10.551
39289SOL    HW219765   7.403   0.512  10.456
39290SOL     OW19766   5.377   7.892   6.666
39290SOL    HW119767   5.422   7.812   6.693
39290SOL    HW219768   5.321   7.914   6.740
39291SOL     OW19769   1.909  13.486  12.310
39291SOL    HW119770   1.996  13.446  12.307
39291SOL    HW219771   1.900  13.514  12.401
39292SOL     OW19772   5.292   0.819   5.216
39292SOL    HW119773   5.350   0.754   5.175
39292SOL    HW219774   5.330   0.904   5.191
39293SOL     OW19775   1.371   4.969  12.329
39293SOL    HW119776   1.277   4.950  12.324
39293SOL    HW219777   1.402   4.917  12.403
39294SOL     OW19778   8.672   4.154   4.547
39294SOL    HW119779   8.639   4.066   4.565
39294SOL    HW219780   8.730   4.173   4.621
39295SOL     OW19781   3.763   1.205   7.434
39295SOL    HW119782   3.763   1.270   7.504
39295SOL    HW219783   3.671   1.192   7.414
39296SOL     OW19784   6.613   0.513   6.354
39296SOL    HW119785   6.606   0.606   6.374
39296SOL    HW219786   6.700   0.488   6.384
39297SOL     OW19787   6.588   6.217   2.361
39297SOL    HW119788   6.605   6.138   2.411
39297SOL    HW219789   6.660   6.223   2.299
39298SOL     OW19790  10.563   3.507   7.667
39298SOL    HW119791  10.522   3.591   7.648
39298SOL    HW219792  10.641   3.529   7.719
39299SOL     OW19793   3.504   0.614   0.111
39299SOL    HW119794   3.568   0.625   0.040
39299SOL    HW219795   3.492   0.520   0.119
39300SOL     OW19796   5.649  12.640   3.971
39300SOL    HW119797   5.683  12.603   3.890
39300SOL    HW219798   5.568  12.590   3.988
39301SOL     OW19799   0.311   8.609  12.814
39301SOL    HW119800   0.398   8.640  12.788
39301SOL    HW219801   0.256   8.687  12.812
39302SOL     OW19802   7.422   2.257  12.560
39302SOL    HW119803   7.392   2.188  12.501
39302SOL    HW219804   7.358   2.327  12.550
39303SOL     OW19805   7.530  10.603   7.625
39303SOL    HW119806   7.583  10.662   7.571
39303SOL    HW219807   7.440  10.630   7.608
39304SOL     OW19808   4.995  10.733  11.504
39304SOL    HW119809   4.989  10.819  11.545
39304SOL    HW219810   5.079  10.698  11.533
39305SOL     OW19811  14.643  11.027   9.441
39305SOL    HW119812  14.607  10.945   9.474
39305SOL    HW219813  14.566  11.080   9.419
39306SOL     OW19814   5.754   9.567  14.230
39306SOL    HW119815   5.689   9.523  14.175
39306SOL    HW219816   5.731   9.660  14.225
39307SOL     OW19817  12.984  14.087  11.531
39307SOL    HW119818  12.905  14.141  11.521
39307SOL    HW219819  13.036  14.133  11.597
39308SOL     OW19820   6.188   1.357   9.940
39308SOL    HW119821   6.099   1.333   9.915
39308SOL    HW219822   6.181   1.447   9.971
39309SOL     OW19823   8.687   0.921   3.638
39309SOL    HW119824   8.707   0.913   3.545
39309SOL    HW219825   8.679   1.016   3.653
39310SOL     OW19826   9.853  10.057   6.415
39310SOL    HW119827   9.903  10.057   6.333
39310SOL    HW219828   9.908  10.008   6.476
39311SOL     OW19829  14.178  11.718  10.378
39311SOL    HW119830  14.098  11.677  10.344
39311SOL    HW219831  14.149  11.770  10.452
39312SOL     OW19832  13.729   7.671  12.916
39312SOL    HW119833  13.804   7.730  12.911
39312SOL    HW219834  13.655   7.722  12.885
39313SOL     OW19835   2.749  14.232   0.541
39313SOL    HW119836   2.769  14.173   0.615
39313SOL    HW219837   2.692  14.180   0.485
39314SOL     OW19838   3.228   0.108   6.078
39314SOL    HW119839   3.257   0.138   5.992
39314SOL    HW219840   3.182   0.183   6.115
39315SOL     OW19841  12.704   5.270   6.074
39315SOL    HW119842  12.692   5.219   5.994
39315SOL    HW219843  12.618   5.268   6.116
39316SOL     OW19844   3.065   3.634   6.020
39316SOL    HW119845   3.058   3.716   6.069
39316SOL    HW219846   3.158   3.629   5.997
39317SOL     OW19847  12.502  11.868  14.346
39317SOL    HW119848  12.527  11.959  14.362
39317SOL    HW219849  12.529  11.821  14.426
39318SOL     OW19850  10.518   4.355   0.141
39318SOL    HW119851  10.534   4.449   0.151
39318SOL    HW219852  10.430   4.349   0.104
39319SOL     OW19853   4.335   7.175  14.795
39319SOL    HW119854   4.390   7.196  14.719
39319SOL    HW219855   4.370   7.092  14.827
39320SOL     OW19856   7.762  13.342   1.289
39320SOL    HW119857   7.842  13.303   1.254
39320SOL    HW219858   7.757  13.427   1.246
39321SOL     OW19859   6.634  14.430   3.147
39321SOL    HW119860   6.661  14.357   3.204
39321SOL    HW219861   6.694  14.425   3.073
39322SOL     OW19862   4.046   6.131   9.503
39322SOL    HW119863   3.951   6.129   9.510
39322SOL    HW219864   4.066   6.222   9.481
39323SOL     OW19865   2.913  14.638  10.247
39323SOL    HW119866   2.992  14.690  10.236
39323SOL    HW219867   2.846  14.684  10.197
39324SOL     OW19868   5.912   7.139   9.725
39324SOL    HW119869   5.931   7.232   9.715
39324SOL    HW219870   5.852   7.135   9.799
39325SOL     OW19871   7.184   7.622   9.146
39325SOL    HW119872   7.234   7.587   9.220
39325SOL    HW219873   7.123   7.551   9.123
39326SOL     OW19874   0.680   1.522   9.107
39326SOL    HW119875   0.603   1.579   9.110
39326SOL    HW219876   0.753   1.579   9.132
39327SOL     OW19877   3.007   1.873   9.913
39327SOL    HW119878   3.033   1.962   9.890
39327SOL    HW219879   2.913   1.870   9.896
39328SOL     OW19880  10.512  10.471   9.786
39328SOL    HW119881  10.445  10.405   9.805
39328SOL    HW219882  10.594  10.433   9.817
39329SOL     OW19883   6.081  13.580   1.566
39329SOL    HW119884   6.133  13.525   1.507
39329SOL    HW219885   6.069  13.527   1.645
39330SOL     OW19886   5.303   5.308  14.725
39330SOL    HW119887   5.285   5.385  14.672
39330SOL    HW219888   5.373   5.262  14.678
39331SOL     OW19889   1.943  10.035   3.323
39331SOL    HW119890   1.948  10.127   3.349
39331SOL    HW219891   1.938   9.987   3.406
39332SOL     OW19892  11.878   7.550  12.260
39332SOL    HW119893  11.929   7.611  12.208
39332SOL    HW219894  11.806   7.523  12.203
39333SOL     OW19895   5.469   6.972   0.394
39333SOL    HW119896   5.480   6.927   0.478
39333SOL    HW219897   5.403   6.920   0.348
39334SOL     OW19898   7.141  10.908  12.660
39334SOL    HW119899   7.079  10.964  12.613
39334SOL    HW219900   7.101  10.821  12.658
39335SOL     OW19901   5.688  11.812   7.901
39335SOL    HW119902   5.665  11.829   7.992
39335SOL    HW219903   5.776  11.846   7.891
39336SOL     OW19904   9.933   7.382  12.033
39336SOL    HW119905   9.904   7.463  11.989
39336SOL    HW219906   9.907   7.312  11.973
39337SOL     OW19907  12.807  13.913  11.898
39337SOL    HW119908  12.887  13.923  11.847
39337SOL    HW219909  12.834  13.864  11.976
39338SOL     OW19910   1.787  11.730   4.948
39338SOL    HW119911   1.694  11.742   4.970
39338SOL    HW219912   1.801  11.785   4.871
39339SOL     OW19913   7.406   8.102   4.186
39339SOL    HW119914   7.479   8.086   4.125
39339SOL    HW219915   7.448   8.141   4.263
39340SOL     OW19916  13.969   0.647   4.758
39340SOL    HW119917  13.927   0.721   4.800
39340SOL    HW219918  13.936   0.570   4.805
39341SOL     OW19919  13.938  13.628   2.390
39341SOL    HW119920  13.898  13.611   2.475
39341SOL    HW219921  14.008  13.691   2.409
39342SOL     OW19922   9.432  10.725   6.316
39342SOL    HW119923   9.435  10.650   6.375
39342SOL    HW219924   9.523  10.756   6.312
39343SOL     OW19925   9.688   0.694   9.965
39343SOL    HW119926   9.676   0.781  10.005
39343SOL    HW219927   9.757   0.653  10.018
39344SOL     OW19928  11.963   5.756   5.097
39344SOL    HW119929  11.912   5.676   5.106
39344SOL    HW219930  12.053   5.729   5.117
39345SOL     OW19931   7.317   0.748  12.249
39345SOL    HW119932   7.306   0.664  12.205
39345SOL    HW219933   7.310   0.813  12.178
39346SOL     OW19934  14.323   1.243   9.231
39346SOL    HW119935  14.300   1.336   9.235
39346SOL    HW219936  14.350   1.222   9.320
39347SOL     OW19937   1.735  10.034   9.345
39347SOL    HW119938   1.662  10.095   9.357
39347SOL    HW219939   1.792  10.051   9.420
39348SOL     OW19940   6.007  11.928   9.335
39348SOL    HW119941   6.029  12.015   9.369
39348SOL    HW219942   5.931  11.942   9.280
39349SOL     OW19943   8.856   1.473   1.896
39349SOL    HW119944   8.855   1.381   1.925
39349SOL    HW219945   8.797   1.475   1.821
39350SOL     OW19946  10.441   1.494   2.594
39350SOL    HW119947  10.478   1.575   2.559
39350SOL    HW219948  10.513   1.453   2.642
39351SOL     OW19949   5.244  11.094  13.592
39351SOL    HW119950   5.151  11.109  13.573
39351SOL    HW219951   5.245  11.028  13.660
39352SOL     OW19952   4.610   7.812  10.821
39352SOL    HW119953   4.529   7.772  10.789
39352SOL    HW219954   4.581   7.884  10.877
39353SOL     OW19955   5.593  12.674  14.303
39353SOL    HW119956   5.539  12.596  14.312
39353SOL    HW219957   5.682  12.644  14.317
39354SOL     OW19958   7.860   9.716   6.319
39354SOL    HW119959   7.816   9.791   6.358
39354SOL    HW219960   7.944   9.711   6.365
39355SOL     OW19961   6.890   1.540   3.860
39355SOL    HW119962   6.839   1.620   3.850
39355SOL    HW219963   6.879   1.495   3.776
39356SOL     OW19964  12.367   7.624   4.001
39356SOL    HW119965  12.345   7.571   3.925
39356SOL    HW219966  12.294   7.611   4.061
39357SOL     OW19967  14.232   7.404   7.456
39357SOL    HW119968  14.322   7.431   7.473
39357SOL    HW219969  14.193   7.391   7.543
39358SOL     OW19970  14.001   9.629  12.646
39358SOL    HW119971  13.991   9.713  12.689
39358SOL    HW219972  13.931   9.627  12.580
39359SOL     OW19973  14.192   6.283   1.441
39359SOL    HW119974  14.214   6.191   1.432
39359SOL    HW219975  14.106   6.283   1.483
39360SOL     OW19976   3.156  14.682   6.602
39360SOL    HW119977   3.083  14.674   6.541
39360SOL    HW219978   3.231  14.645   6.554
39361SOL     OW19979   6.985  14.876   1.020
39361SOL    HW119980   6.962   0.023   1.109
39361SOL    HW219981   7.072  14.838   1.028
39362SOL     OW19982   9.115   7.561   6.919
39362SOL    HW119983   9.204   7.584   6.946
39362SOL    HW219984   9.075   7.644   6.894
39363SOL     OW19985   9.675   4.466   1.999
39363SOL    HW119986   9.596   4.502   2.038
39363SOL    HW219987   9.668   4.372   2.013
39364SOL     OW19988   0.542   1.084   0.226
39364SOL    HW119989   0.462   1.034   0.237
39364SOL    HW219990   0.597   1.030   0.170
39365SOL     OW19991  11.429  11.685   9.872
39365SOL    HW119992  11.371  11.760   9.865
39365SOL    HW219993  11.421  11.656   9.963
39366SOL     OW19994   9.819   3.250  11.325
39366SOL    HW119995   9.816   3.228  11.232
39366SOL    HW219996   9.815   3.345  11.327
39367SOL     OW19997   2.964   9.142   6.561
39367SOL    HW119998   3.037   9.181   6.512
39367SOL    HW219999   3.006   9.092   6.631
39368SOL     OW20000   4.470   0.930   6.416
39368SOL    HW120001   4.375   0.943   6.414
39368SOL    HW220002   4.488   0.880   6.337
39369SOL     OW20003  12.428  11.266   4.520
39369SOL    HW120004  12.438  11.176   4.487
39369SOL    HW220005  12.422  11.256   4.615
39370SOL     OW20006   5.486   4.232   6.403
39370SOL    HW120007   5.524   4.279   6.329
39370SOL    HW220008   5.487   4.140   6.377
39371SOL     OW20009   9.460   8.390  12.918
39371SOL    HW120010   9.464   8.312  12.863
39371SOL    HW220011   9.459   8.463  12.857
39372SOL     OW20012   7.565   1.656   8.931
39372SOL    HW120013   7.532   1.570   8.903
39372SOL    HW220014   7.518   1.719   8.876
39373SOL     OW20015  11.484  14.169   9.820
39373SOL    HW120016  11.462  14.167   9.727
39373SOL    HW220017  11.555  14.106   9.830
39374SOL     OW20018   3.369  12.397  11.302
39374SOL    HW120019   3.318  12.326  11.339
39374SOL    HW220020   3.358  12.389  11.207
39375SOL     OW20021   3.063  10.017   9.512
39375SOL    HW120022   3.095   9.992   9.425
39375SOL    HW220023   2.978   9.974   9.520
39376SOL     OW20024  14.031   1.976  14.116
39376SOL    HW120025  13.935   1.974  14.108
39376SOL    HW220026  14.060   1.892  14.080
39377SOL     OW20027   9.801   4.488  12.189
39377SOL    HW120028   9.824   4.464  12.099
39377SOL    HW220029   9.706   4.498  12.187
39378SOL     OW20030   8.225   6.764   1.683
39378SOL    HW120031   8.199   6.845   1.640
39378SOL    HW220032   8.317   6.777   1.706
39379SOL     OW20033   6.118   6.337   8.115
39379SOL    HW120034   6.203   6.294   8.115
39379SOL    HW220035   6.057   6.270   8.146
39380SOL     OW20036   2.900   7.803   6.173
39380SOL    HW120037   2.945   7.775   6.252
39380SOL    HW220038   2.934   7.891   6.156
39381SOL     OW20039  11.896   9.235  13.730
39381SOL    HW120040  11.982   9.238  13.688
39381SOL    HW220041  11.901   9.162  13.792
39382SOL     OW20042   2.871  10.908   2.701
39382SOL    HW120043   2.801  10.860   2.746
39382SOL    HW220044   2.834  10.928   2.615
39383SOL     OW20045   6.521   1.318   4.876
39383SOL    HW120046   6.433   1.321   4.914
39383SOL    HW220047   6.530   1.229   4.843
39384SOL     OW20048   3.417   1.787  13.993
39384SOL    HW120049   3.353   1.838  14.042
39384SOL    HW220050   3.486   1.768  14.057
39385SOL     OW20051   4.642   1.338   0.568
39385SOL    HW120052   4.552   1.354   0.540
39385SOL    HW220053   4.663   1.412   0.625
39386SOL     OW20054   9.893   6.324   3.325
39386SOL    HW120055   9.848   6.359   3.402
39386SOL    HW220056   9.986   6.331   3.347
39387SOL     OW20057   4.346  14.494   0.170
39387SOL    HW120058   4.378  14.582   0.149
39387SOL    HW220059   4.423  14.447   0.202
39388SOL     OW20060  13.733   0.351   6.048
39388SOL    HW120061  13.817   0.364   6.093
39388SOL    HW220062  13.670   0.399   6.102
39389SOL     OW20063   1.464   4.297   8.489
39389SOL    HW120064   1.449   4.222   8.432
39389SOL    HW220065   1.414   4.278   8.568
39390SOL     OW20066   5.542   4.407   1.379
39390SOL    HW120067   5.510   4.496   1.365
39390SOL    HW220068   5.548   4.369   1.292
39391SOL     OW20069   6.960  10.412   0.158
39391SOL    HW120070   6.926  10.476   0.096
39391SOL    HW220071   6.968  10.460   0.240
39392SOL     OW20072   3.660   0.475   4.116
39392SOL    HW120073   3.676   0.386   4.084
39392SOL    HW220074   3.589   0.465   4.179
39393SOL     OW20075   4.011   3.858   8.796
39393SOL    HW120076   4.053   3.923   8.739
39393SOL    HW220077   3.926   3.896   8.818
39394SOL     OW20078  12.573  13.603   5.256
39394SOL    HW120079  12.664  13.628   5.273
39394SOL    HW220080  12.549  13.652   5.178
39395SOL     OW20081   5.177   9.382   1.449
39395SOL    HW120082   5.196   9.338   1.531
39395SOL    HW220083   5.083   9.402   1.453
39396SOL     OW20084  13.192  13.402   1.043
39396SOL    HW120085  13.187  13.352   1.124
39396SOL    HW220086  13.223  13.489   1.070
39397SOL     OW20087   8.377  14.054   5.569
39397SOL    HW120088   8.333  14.105   5.637
39397SOL    HW220089   8.469  14.082   5.573
39398SOL     OW20090   8.690   8.436  12.671
39398SOL    HW120091   8.762   8.472  12.620
39398SOL    HW220092   8.720   8.350  12.699
39399SOL     OW20093   7.878  10.278   6.487
39399SOL    HW120094   7.841  10.320   6.409
39399SOL    HW220095   7.840  10.190   6.487
39400SOL     OW20096  10.048  11.453  11.727
39400SOL    HW120097   9.975  11.401  11.693
39400SOL    HW220098  10.007  11.514  11.788
39401SOL     OW20099   2.085  12.284   7.866
39401SOL    HW120100   1.991  12.293   7.882
39401SOL    HW220101   2.117  12.230   7.938
39402SOL     OW20102  12.566   7.302   3.958
39402SOL    HW120103  12.483   7.263   3.930
39402SOL    HW220104  12.542   7.366   4.025
39403SOL     OW20105   1.375  11.292   2.841
39403SOL    HW120106   1.430  11.223   2.805
39403SOL    HW220107   1.414  11.373   2.807
39404SOL     OW20108   3.406  14.312  11.822
39404SOL    HW120109   3.382  14.259  11.898
39404SOL    HW220110   3.440  14.250  11.758
39405SOL     OW20111   2.246  13.081   6.891
39405SOL    HW120112   2.247  13.069   6.986
39405SOL    HW220113   2.163  13.042   6.863
39406SOL     OW20114   8.625   5.923   5.317
39406SOL    HW120115   8.674   5.861   5.262
39406SOL    HW220116   8.598   5.993   5.257
39407SOL     OW20117   1.004   4.642  14.384
39407SOL    HW120118   0.962   4.656  14.469
39407SOL    HW220119   1.086   4.691  14.389
39408SOL     OW20120   5.833   4.832  10.175
39408SOL    HW120121   5.919   4.873  10.178
39408SOL    HW220122   5.848   4.748  10.131
39409SOL     OW20123   5.473   0.538  10.616
39409SOL    HW120124   5.444   0.490  10.693
39409SOL    HW220125   5.440   0.627  10.629
39410SOL     OW20126   5.689  13.991   1.086
39410SOL    HW120127   5.645  14.050   1.148
39410SOL    HW220128   5.661  14.023   1.000
39411SOL     OW20129  13.895  10.941   3.914
39411SOL    HW120130  13.959  10.991   3.864
39411SOL    HW220131  13.918  10.849   3.898
39412SOL     OW20132   0.037   6.432   6.988
39412SOL    HW120133   0.014   6.373   7.060
39412SOL    HW220134   0.011   6.519   7.020
39413SOL     OW20135  13.059   4.282  10.572
39413SOL    HW120136  12.987   4.302  10.512
39413SOL    HW220137  13.029   4.314  10.657
39414SOL     OW20138  10.455  10.250   5.684
39414SOL    HW120139  10.502  10.300   5.617
39414SOL    HW220140  10.366  10.243   5.650
39415SOL     OW20141  11.824   4.863  12.690
39415SOL    HW120142  11.751   4.923  12.675
39415SOL    HW220143  11.868   4.899  12.767
39416SOL     OW20144   1.555   5.531   3.369
39416SOL    HW120145   1.635   5.479   3.376
39416SOL    HW220146   1.568   5.585   3.291
39417SOL     OW20147   2.393  13.216   3.441
39417SOL    HW120148   2.474  13.217   3.390
39417SOL    HW220149   2.355  13.130   3.425
39418SOL     OW20150   7.092  14.645   0.616
39418SOL    HW120151   7.046  14.563   0.633
39418SOL    HW220152   7.034  14.712   0.653
39419SOL     OW20153   5.805   4.851   7.229
39419SOL    HW120154   5.735   4.884   7.174
39419SOL    HW220155   5.825   4.764   7.194
39420SOL     OW20156   6.991   5.947  12.309
39420SOL    HW120157   7.080   5.912  12.305
39420SOL    HW220158   6.941   5.879  12.354
39421SOL     OW20159   9.234   3.983   7.686
39421SOL    HW120160   9.270   3.899   7.713
39421SOL    HW220161   9.310   4.041   7.680
39422SOL     OW20162  12.527  11.134   8.728
39422SOL    HW120163  12.479  11.145   8.647
39422SOL    HW220164  12.608  11.184   8.715
39423SOL     OW20165   4.082   7.867  13.706
39423SOL    HW120166   4.063   7.824  13.622
39423SOL    HW220167   4.052   7.805  13.772
39424SOL     OW20168   7.608  11.732  10.131
39424SOL    HW120169   7.676  11.726  10.198
39424SOL    HW220170   7.653  11.766  10.053
39425SOL     OW20171   7.145   5.441   2.843
39425SOL    HW120172   7.082   5.514   2.843
39425SOL    HW220173   7.205   5.462   2.771
39426SOL     OW20174   4.502   6.267  13.228
39426SOL    HW120175   4.524   6.188  13.178
39426SOL    HW220176   4.410   6.256  13.252
39427SOL     OW20177   3.607   6.491   4.481
39427SOL    HW120178   3.649   6.405   4.489
39427SOL    HW220179   3.571   6.492   4.392
39428SOL     OW20180   7.325   3.235   5.571
39428SOL    HW120181   7.342   3.329   5.560
39428SOL    HW220182   7.230   3.230   5.581
39429SOL     OW20183   2.429  10.574   1.465
39429SOL    HW120184   2.480  10.608   1.391
39429SOL    HW220185   2.485  10.505   1.502
39430SOL     OW20186   8.254   2.603  11.873
39430SOL    HW120187   8.286   2.623  11.785
39430SOL    HW220188   8.332   2.602  11.928
39431SOL     OW20189   5.088   7.696   9.919
39431SOL    HW120190   5.124   7.691   9.830
39431SOL    HW220191   5.140   7.633   9.969
39432SOL     OW20192   3.277   6.214   0.136
39432SOL    HW120193   3.247   6.255   0.217
39432SOL    HW220194   3.203   6.160   0.108
39433SOL     OW20195   3.783  13.093  12.595
39433SOL    HW120196   3.737  13.022  12.640
39433SOL    HW220197   3.873  13.060  12.585
39434SOL     OW20198   1.289   5.475   6.443
39434SOL    HW120199   1.247   5.495   6.360
39434SOL    HW220200   1.382   5.489   6.427
39435SOL     OW20201  13.824   1.397   4.661
39435SOL    HW120202  13.843   1.477   4.613
39435SOL    HW220203  13.764   1.349   4.604
39436SOL     OW20204   8.570  13.625  14.324
39436SOL    HW120205   8.632  13.698  14.328
39436SOL    HW220206   8.579  13.590  14.236
39437SOL     OW20207  14.791  13.071   6.676
39437SOL    HW120208  14.874  13.046   6.718
39437SOL    HW220209  14.767  12.994   6.624
39438SOL     OW20210   3.640   4.673   4.808
39438SOL    HW120211   3.671   4.609   4.744
39438SOL    HW220212   3.661   4.758   4.769
39439SOL     OW20213   0.246   1.274  11.336
39439SOL    HW120214   0.191   1.226  11.398
39439SOL    HW220215   0.315   1.313  11.390
39440SOL     OW20216   7.278   8.346   2.239
39440SOL    HW120217   7.325   8.270   2.271
39440SOL    HW220218   7.320   8.367   2.155
39441SOL     OW20219   8.977   5.165   1.706
39441SOL    HW120220   9.002   5.243   1.656
39441SOL    HW220221   9.017   5.092   1.659
39442SOL     OW20222   4.545   4.309   1.203
39442SOL    HW120223   4.478   4.341   1.142
39442SOL    HW220224   4.622   4.363   1.185
39443SOL     OW20225  13.310  10.513   3.854
39443SOL    HW120226  13.236  10.574   3.856
39443SOL    HW220227  13.310  10.473   3.941
39444SOL     OW20228  14.753   4.222   6.199
39444SOL    HW120229  14.702   4.238   6.120
39444SOL    HW220230  14.691   4.233   6.271
39445SOL     OW20231   0.142  13.261   3.696
39445SOL    HW120232   0.193  13.299   3.767
39445SOL    HW220233   0.198  13.269   3.618
39446SOL     OW20234   5.849  11.439   0.296
39446SOL    HW120235   5.868  11.446   0.202
39446SOL    HW220236   5.833  11.529   0.324
39447SOL     OW20237   2.988   6.078  10.628
39447SOL    HW120238   3.011   6.161  10.669
39447SOL    HW220239   3.006   6.012  10.695
39448SOL     OW20240   2.621   9.854  12.385
39448SOL    HW120241   2.617   9.891  12.297
39448SOL    HW220242   2.612   9.759  12.371
39449SOL     OW20243  12.991  14.315  12.245
39449SOL    HW120244  12.911  14.278  12.208
39449SOL    HW220245  13.018  14.382  12.182
39450SOL     OW20246   6.524   9.805   3.960
39450SOL    HW120247   6.526   9.803   4.055
39450SOL    HW220248   6.492   9.718   3.935
39451SOL     OW20249   2.462   1.887   5.405
39451SOL    HW120250   2.395   1.924   5.347
39451SOL    HW220251   2.436   1.916   5.493
39452SOL     OW20252   2.640  12.845  13.552
39452SOL    HW120253   2.575  12.858  13.621
39452SOL    HW220254   2.621  12.758  13.517
39453SOL     OW20255  12.799   7.467   9.894
39453SOL    HW120256  12.784   7.492   9.985
39453SOL    HW220257  12.891   7.443   9.890
39454SOL     OW20258   4.387   8.845   4.407
39454SOL    HW120259   4.464   8.807   4.364
39454SOL    HW220260   4.316   8.831   4.345
39455SOL     OW20261  13.366  10.352  14.788
39455SOL    HW120262  13.310  10.294  14.839
39455SOL    HW220263  13.307  10.394  14.725
39456SOL     OW20264   5.936   3.489  11.448
39456SOL    HW120265   5.959   3.414  11.503
39456SOL    HW220266   6.018   3.515  11.407
39457SOL     OW20267   2.419  12.420   3.957
39457SOL    HW120268   2.371  12.469   3.890
39457SOL    HW220269   2.475  12.485   4.000
39458SOL     OW20270   7.894   2.212  10.470
39458SOL    HW120271   7.960   2.162  10.422
39458SOL    HW220272   7.863   2.153  10.538
39459SOL     OW20273  11.839   0.263   8.816
39459SOL    HW120274  11.866   0.341   8.864
39459SOL    HW220275  11.827   0.196   8.884
39460SOL     OW20276   0.927  10.505   3.092
39460SOL    HW120277   0.999  10.543   3.042
39460SOL    HW220278   0.940  10.538   3.181
39461SOL     OW20279   7.420   7.437   0.583
39461SOL    HW120280   7.353   7.475   0.527
39461SOL    HW220281   7.390   7.347   0.598
39462SOL     OW20282   5.281  14.391   7.410
39462SOL    HW120283   5.314  14.475   7.379
39462SOL    HW220284   5.229  14.412   7.487
39463SOL     OW20285   4.031  10.660  11.078
39463SOL    HW120286   3.954  10.608  11.100
39463SOL    HW220287   4.060  10.626  10.994
39464SOL     OW20288   3.412   0.178   4.606
39464SOL    HW120289   3.439   0.201   4.695
39464SOL    HW220290   3.325   0.140   4.616
39465SOL     OW20291   2.659   0.727   5.444
39465SOL    HW120292   2.644   0.651   5.389
39465SOL    HW220293   2.677   0.798   5.383
39466SOL     OW20294  10.603   9.471  12.378
39466SOL    HW120295  10.651   9.506  12.302
39466SOL    HW220296  10.657   9.495  12.453
39467SOL     OW20297   7.495  13.558   6.498
39467SOL    HW120298   7.411  13.588   6.465
39467SOL    HW220299   7.553  13.634   6.491
39468SOL     OW20300   5.682   6.589   5.297
39468SOL    HW120301   5.661   6.661   5.239
39468SOL    HW220302   5.656   6.620   5.384
39469SOL     OW20303   9.547   7.503   2.748
39469SOL    HW120304   9.463   7.525   2.708
39469SOL    HW220305   9.524   7.470   2.835
39470SOL     OW20306  11.226   2.823  11.425
39470SOL    HW120307  11.176   2.742  11.420
39470SOL    HW220308  11.309   2.803  11.383
39471SOL     OW20309   4.343   7.674  11.161
39471SOL    HW120310   4.379   7.762  11.164
39471SOL    HW220311   4.278   7.677  11.091
39472SOL     OW20312   4.779   6.995   7.453
39472SOL    HW120313   4.870   6.972   7.434
39472SOL    HW220314   4.737   6.912   7.474
39473SOL     OW20315  12.180   7.241   5.019
39473SOL    HW120316  12.093   7.251   5.057
39473SOL    HW220317  12.238   7.230   5.095
39474SOL     OW20318  14.673   9.697   7.507
39474SOL    HW120319  14.658   9.717   7.414
39474SOL    HW220320  14.588   9.669   7.540
39475SOL     OW20321  13.129   1.956  11.570
39475SOL    HW120322  13.093   1.985  11.653
39475SOL    HW220323  13.155   1.865  11.584
39476SOL     OW20324   3.423   3.631   3.210
39476SOL    HW120325   3.516   3.654   3.206
39476SOL    HW220326   3.418   3.566   3.281
39477SOL     OW20327  11.644   9.208   7.506
39477SOL    HW120328  11.597   9.168   7.433
39477SOL    HW220329  11.622   9.301   7.501
39478SOL     OW20330   8.805   7.779   3.288
39478SOL    HW120331   8.748   7.752   3.217
39478SOL    HW220332   8.871   7.834   3.247
39479SOL     OW20333   1.958   1.226   0.168
39479SOL    HW120334   2.018   1.300   0.172
39479SOL    HW220335   1.934   1.209   0.259
39480SOL     OW20336  13.141   7.206   4.929
39480SOL    HW120337  13.136   7.228   5.022
39480SOL    HW220338  13.056   7.168   4.909
39481SOL     OW20339   0.107   2.901  13.105
39481SOL    HW120340   0.152   2.979  13.072
39481SOL    HW220341   0.032   2.935  13.152
39482SOL     OW20342   7.045  14.687  10.297
39482SOL    HW120343   7.075  14.614  10.350
39482SOL    HW220344   7.119  14.707  10.240
39483SOL     OW20345   5.910   6.244   2.132
39483SOL    HW120346   5.952   6.269   2.215
39483SOL    HW220347   5.847   6.314   2.115
39484SOL     OW20348   2.572   4.687  11.010
39484SOL    HW120349   2.533   4.719  11.091
39484SOL    HW220350   2.608   4.601  11.032
39485SOL     OW20351   0.742   6.708  12.617
39485SOL    HW120352   0.796   6.634  12.646
39485SOL    HW220353   0.714   6.749  12.698
39486SOL     OW20354   5.407   7.645  10.779
39486SOL    HW120355   5.405   7.662  10.873
39486SOL    HW220356   5.335   7.697  10.744
39487SOL     OW20357   4.947   6.242   0.422
39487SOL    HW120358   4.984   6.183   0.357
39487SOL    HW220359   4.864   6.270   0.385
39488SOL     OW20360   5.802   8.316   9.182
39488SOL    HW120361   5.870   8.249   9.190
39488SOL    HW220362   5.850   8.395   9.155
39489SOL     OW20363   3.720   6.668   7.043
39489SOL    HW120364   3.635   6.626   7.060
39489SOL    HW220365   3.714   6.752   7.088
39490SOL     OW20366   7.042   3.503   6.162
39490SOL    HW120367   7.017   3.579   6.215
39490SOL    HW220368   7.053   3.432   6.225
39491SOL     OW20369  13.969   9.066   3.451
39491SOL    HW120370  13.880   9.041   3.429
39491SOL    HW220371  14.014   8.983   3.467
39492SOL     OW20372   4.809   3.130  11.090
39492SOL    HW120373   4.825   3.136  11.184
39492SOL    HW220374   4.746   3.200  11.071
39493SOL     OW20375   2.792   1.422   1.142
39493SOL    HW120376   2.800   1.329   1.164
39493SOL    HW220377   2.832   1.468   1.216
39494SOL     OW20378   5.420   9.355   2.511
39494SOL    HW120379   5.487   9.382   2.448
39494SOL    HW220380   5.470   9.321   2.585
39495SOL     OW20381  12.718   2.057   7.663
39495SOL    HW120382  12.696   2.137   7.614
39495SOL    HW220383  12.637   2.005   7.661
39496SOL     OW20384   0.465   8.301  12.772
39496SOL    HW120385   0.463   8.395  12.786
39496SOL    HW220386   0.506   8.290  12.686
39497SOL     OW20387   1.094   9.169   0.972
39497SOL    HW120388   1.088   9.261   0.998
39497SOL    HW220389   1.174   9.137   1.015
39498SOL     OW20390   6.867  10.269   1.972
39498SOL    HW120391   6.804  10.329   2.012
39498SOL    HW220392   6.951  10.313   1.983
39499SOL     OW20393   5.059  13.152   3.213
39499SOL    HW120394   5.000  13.188   3.279
39499SOL    HW220395   5.126  13.105   3.263
39500SOL     OW20396  11.173   0.457   0.069
39500SOL    HW120397  11.165   0.442   0.163
39500SOL    HW220398  11.236   0.528   0.061
39501SOL     OW20399   8.310   2.002   4.696
39501SOL    HW120400   8.400   2.021   4.724
39501SOL    HW220401   8.320   1.951   4.616
39502SOL     OW20402   0.875   5.310   1.679
39502SOL    HW120403   0.930   5.383   1.649
39502SOL    HW220404   0.832   5.344   1.758
39503SOL     OW20405   0.655   1.280   2.918
39503SOL    HW120406   0.668   1.186   2.906
39503SOL    HW220407   0.676   1.319   2.833
39504SOL     OW20408  13.072   3.178   3.566
39504SOL    HW120409  13.057   3.246   3.501
39504SOL    HW220410  12.993   3.123   3.562
39505SOL     OW20411  14.001   7.810  10.712
39505SOL    HW120412  14.069   7.823  10.645
39505SOL    HW220413  13.939   7.881  10.697
39506SOL     OW20414   7.315   9.103   3.051
39506SOL    HW120415   7.230   9.095   3.094
39506SOL    HW220416   7.296   9.104   2.958
39507SOL     OW20417   7.889  11.293   1.330
39507SOL    HW120418   7.952  11.221   1.326
39507SOL    HW220419   7.811  11.255   1.369
39508SOL     OW20420  14.857   6.828   6.889
39508SOL    HW120421  14.852   6.923   6.872
39508SOL    HW220422   0.066   6.814   6.922
39509SOL     OW20423   4.580   6.510   1.734
39509SOL    HW120424   4.617   6.512   1.646
39509SOL    HW220425   4.554   6.418   1.747
39510SOL     OW20426  13.607  14.188   3.581
39510SOL    HW120427  13.538  14.129   3.613
39510SOL    HW220428  13.568  14.276   3.589
39511SOL     OW20429   7.054   1.222   9.178
39511SOL    HW120430   7.137   1.267   9.196
39511SOL    HW220431   6.988   1.291   9.184
39512SOL     OW20432   8.691   6.255   1.780
39512SOL    HW120433   8.695   6.316   1.855
39512SOL    HW220434   8.781   6.254   1.746
39513SOL     OW20435  12.474   9.439   3.201
39513SOL    HW120436  12.513   9.523   3.177
39513SOL    HW220437  12.546   9.387   3.235
39514SOL     OW20438   2.185  12.433  13.722
39514SOL    HW120439   2.200  12.470  13.809
39514SOL    HW220440   2.220  12.344  13.727
39515SOL     OW20441   7.991   2.902  12.990
39515SOL    HW120442   8.062   2.861  12.941
39515SOL    HW220443   7.923   2.919  12.925
39516SOL     OW20444   8.976   1.031   0.327
39516SOL    HW120445   8.888   1.003   0.302
39516SOL    HW220446   8.962   1.114   0.373
39517SOL     OW20447  11.278  11.568   0.709
39517SOL    HW120448  11.345  11.614   0.659
39517SOL    HW220449  11.307  11.476   0.709
39518SOL     OW20450  12.465   6.613  13.155
39518SOL    HW120451  12.419   6.573  13.081
39518SOL    HW220452  12.431   6.566  13.232
39519SOL     OW20453   8.101  12.552   9.560
39519SOL    HW120454   8.180  12.599   9.585
39519SOL    HW220455   8.029  12.605   9.595
39520SOL     OW20456  14.667  14.790  10.663
39520SOL    HW120457  14.652  14.723  10.597
39520SOL    HW220458  14.730  14.751  10.724
39521SOL     OW20459  11.480   9.987  14.000
39521SOL    HW120460  11.513   9.910  14.047
39521SOL    HW220461  11.517   9.979  13.912
39522SOL     OW20462   9.178  10.698   9.321
39522SOL    HW120463   9.225  10.710   9.239
39522SOL    HW220464   9.193  10.606   9.344
39523SOL     OW20465  13.252   9.115   2.455
39523SOL    HW120466  13.179   9.098   2.397
39523SOL    HW220467  13.230   9.198   2.499
39524SOL     OW20468   7.299   5.584  10.127
39524SOL    HW120469   7.269   5.599  10.037
39524SOL    HW220470   7.291   5.489  10.140
39525SOL     OW20471  12.229  12.723   2.171
39525SOL    HW120472  12.244  12.721   2.266
39525SOL    HW220473  12.315  12.740   2.133
39526SOL     OW20474   6.843   2.151   0.421
39526SOL    HW120475   6.798   2.202   0.488
39526SOL    HW220476   6.931   2.188   0.417
39527SOL     OW20477   6.761  10.082   4.187
39527SOL    HW120478   6.834  10.144   4.191
39527SOL    HW220479   6.698  10.123   4.128
39528SOL     OW20480   7.255   9.246  11.453
39528SOL    HW120481   7.330   9.243  11.393
39528SOL    HW220482   7.279   9.185  11.522
39529SOL     OW20483  13.061   4.826   8.117
39529SOL    HW120484  13.041   4.886   8.189
39529SOL    HW220485  13.145   4.856   8.082
39530SOL     OW20486   7.966  14.386   0.211
39530SOL    HW120487   8.050  14.427   0.194
39530SOL    HW220488   7.908  14.417   0.141
39531SOL     OW20489   4.531   4.172   9.728
39531SOL    HW120490   4.534   4.263   9.699
39531SOL    HW220491   4.476   4.174   9.807
39532SOL     OW20492   9.164  14.351  14.776
39532SOL    HW120493   9.139  14.268  14.735
39532SOL    HW220494   9.129  14.418  14.717
39533SOL     OW20495   1.619   1.409  10.064
39533SOL    HW120496   1.684   1.342  10.044
39533SOL    HW220497   1.562   1.412   9.986
39534SOL     OW20498  12.930   7.667   9.246
39534SOL    HW120499  12.964   7.753   9.273
39534SOL    HW220500  13.001   7.606   9.266
39535SOL     OW20501   9.686   0.463   6.430
39535SOL    HW120502   9.593   0.440   6.435
39535SOL    HW220503   9.703   0.474   6.337
39536SOL     OW20504  11.762   0.317  12.418
39536SOL    HW120505  11.798   0.229  12.425
39536SOL    HW220506  11.773   0.355  12.505
39537SOL     OW20507  13.292   2.025   9.134
39537SOL    HW120508  13.355   2.097   9.128
39537SOL    HW220509  13.213   2.064   9.171
39538SOL     OW20510   5.037   7.716   0.554
39538SOL    HW120511   5.125   7.696   0.585
39538SOL    HW220512   5.042   7.808   0.528
39539SOL     OW20513   3.511  10.054   0.334
39539SOL    HW120514   3.448  10.017   0.395
39539SOL    HW220515   3.571   9.983   0.314
39540SOL     OW20516   7.062  10.820   0.148
39540SOL    HW120517   7.121  10.894   0.159
39540SOL    HW220518   7.024  10.808   0.235
39541SOL     OW20519  12.828   7.117   3.323
39541SOL    HW120520  12.829   7.047   3.389
39541SOL    HW220521  12.787   7.191   3.368
39542SOL     OW20522   0.680  12.745   2.631
39542SOL    HW120523   0.656  12.744   2.724
39542SOL    HW220524   0.776  12.744   2.631
39543SOL     OW20525   9.056  13.316   4.784
39543SOL    HW120526   8.996  13.258   4.830
39543SOL    HW220527   9.143  13.289   4.813
39544SOL     OW20528   6.534   5.133  11.538
39544SOL    HW120529   6.486   5.197  11.590
39544SOL    HW220530   6.624   5.165  11.537
39545SOL     OW20531   5.103   1.794   4.938
39545SOL    HW120532   5.188   1.764   4.970
39545SOL    HW220533   5.110   1.790   4.843
39546SOL     OW20534  14.499  10.830  11.891
39546SOL    HW120535  14.429  10.771  11.865
39546SOL    HW220536  14.455  10.898  11.943
39547SOL     OW20537   5.508   8.854  11.923
39547SOL    HW120538   5.506   8.806  12.006
39547SOL    HW220539   5.581   8.916  11.933
39548SOL     OW20540  13.667  11.690   3.138
39548SOL    HW120541  13.702  11.671   3.051
39548SOL    HW220542  13.628  11.777   3.129
39549SOL     OW20543   9.205   4.302   3.983
39549SOL    HW120544   9.284   4.271   4.026
39549SOL    HW220545   9.236   4.364   3.917
39550SOL     OW20546  12.391   4.671   7.045
39550SOL    HW120547  12.300   4.700   7.041
39550SOL    HW220548  12.397   4.602   6.978
39551SOL     OW20549  11.795   7.799   2.205
39551SOL    HW120550  11.848   7.745   2.147
39551SOL    HW220551  11.739   7.737   2.250
39552SOL     OW20552   8.467   6.110   6.670
39552SOL    HW120553   8.380   6.148   6.681
39552SOL    HW220554   8.520   6.152   6.739
39553SOL     OW20555  11.174  12.770   9.892
39553SOL    HW120556  11.242  12.704   9.879
39553SOL    HW220557  11.121  12.766   9.812
39554SOL     OW20558   7.315   0.028  11.199
39554SOL    HW120559   7.255  14.869  11.135
39554SOL    HW220560   7.361  14.833  11.237
39555SOL     OW20561   5.559  11.631  11.723
39555SOL    HW120562   5.555  11.714  11.676
39555SOL    HW220563   5.515  11.569  11.665
39556SOL     OW20564   3.651  14.685   2.203
39556SOL    HW120565   3.562  14.710   2.231
39556SOL    HW220566   3.642  14.595   2.172
39557SOL     OW20567   3.965  13.473  11.687
39557SOL    HW120568   3.945  13.412  11.617
39557SOL    HW220569   3.980  13.417  11.764
39558SOL     OW20570   5.058   3.654   0.439
39558SOL    HW120571   5.091   3.611   0.518
39558SOL    HW220572   5.135   3.692   0.398
39559SOL     OW20573   9.728  11.631  13.327
39559SOL    HW120574   9.672  11.591  13.261
39559SOL    HW220575   9.747  11.559  13.388
39560SOL     OW20576  11.362   7.872   0.609
39560SOL    HW120577  11.367   7.816   0.532
39560SOL    HW220578  11.294   7.831   0.664
39561SOL     OW20579  14.350   4.087   2.547
39561SOL    HW120580  14.326   4.088   2.640
39561SOL    HW220581  14.281   4.036   2.505
39562SOL     OW20582   3.999   3.018   0.045
39562SOL    HW120583   3.967   2.996   0.133
39562SOL    HW220584   4.091   2.993   0.045
39563SOL     OW20585  14.867   4.610   2.532
39563SOL    HW120586  14.797   4.652   2.582
39563SOL    HW220587   0.062   4.609   2.592
39564SOL     OW20588   4.422   5.225   4.420
39564SOL    HW120589   4.444   5.228   4.326
39564SOL    HW220590   4.486   5.163   4.456
39565SOL     OW20591  11.529   6.391   8.558
39565SOL    HW120592  11.556   6.408   8.649
39565SOL    HW220593  11.597   6.334   8.523
39566SOL     OW20594   6.621  13.009  11.883
39566SOL    HW120595   6.623  12.924  11.839
39566SOL    HW220596   6.713  13.031  11.896
39567SOL     OW20597   1.660   5.818  14.766
39567SOL    HW120598   1.750   5.845  14.750
39567SOL    HW220599   1.607   5.883  14.718
39568SOL     OW20600   0.734   1.174   2.670
39568SOL    HW120601   0.785   1.094   2.682
39568SOL    HW220602   0.690   1.161   2.586
39569SOL     OW20603   3.010   6.120  12.029
39569SOL    HW120604   3.099   6.089  12.041
39569SOL    HW220605   2.958   6.041  12.016
39570SOL     OW20606  12.257   5.001  10.975
39570SOL    HW120607  12.320   4.952  11.028
39570SOL    HW220608  12.184   4.940  10.964
39571SOL     OW20609   6.869   7.987  14.736
39571SOL    HW120610   6.902   7.950  14.654
39571SOL    HW220611   6.940   7.971  14.799
39572SOL     OW20612  13.239   1.343   0.640
39572SOL    HW120613  13.284   1.394   0.706
39572SOL    HW220614  13.163   1.306   0.685
39573SOL     OW20615  11.353   3.491   7.365
39573SOL    HW120616  11.319   3.529   7.446
39573SOL    HW220617  11.276   3.453   7.322
39574SOL     OW20618   1.303   6.680   4.130
39574SOL    HW120619   1.298   6.725   4.046
39574SOL    HW220620   1.308   6.587   4.107
39575SOL     OW20621   5.496   9.466  14.131
39575SOL    HW120622   5.476   9.455  14.223
39575SOL    HW220623   5.507   9.376  14.098
39576SOL     OW20624  11.918  13.413  14.680
39576SOL    HW120625  11.873  13.363  14.611
39576SOL    HW220626  11.983  13.465  14.634
39577SOL     OW20627  13.499   6.931   0.457
39577SOL    HW120628  13.507   7.026   0.456
39577SOL    HW220629  13.555   6.903   0.529
39578SOL     OW20630  13.002  12.541   7.557
39578SOL    HW120631  12.917  12.530   7.514
39578SOL    HW220632  12.986  12.604   7.626
39579SOL     OW20633   6.902  11.450   7.688
39579SOL    HW120634   6.877  11.531   7.644
39579SOL    HW220635   6.994  11.437   7.663
39580SOL     OW20636   7.963   1.894   6.190
39580SOL    HW120637   7.983   1.808   6.228
39580SOL    HW220638   7.887   1.878   6.134
39581SOL     OW20639  11.735  13.811   8.479
39581SOL    HW120640  11.755  13.877   8.545
39581SOL    HW220641  11.656  13.767   8.511
39582SOL     OW20642  12.478   0.736  10.507
39582SOL    HW120643  12.527   0.794  10.566
39582SOL    HW220644  12.395   0.781  10.494
39583SOL     OW20645   1.198   1.564   9.460
39583SOL    HW120646   1.133   1.535   9.525
39583SOL    HW220647   1.200   1.659   9.469
39584SOL     OW20648   6.091  14.845   3.353
39584SOL    HW120649   6.029  14.776   3.378
39584SOL    HW220650   6.173  14.820   3.395
39585SOL     OW20651   8.751   1.880  11.473
39585SOL    HW120652   8.655   1.881  11.470
39585SOL    HW220653   8.775   1.801  11.424
39586SOL     OW20654   0.266   3.753   8.489
39586SOL    HW120655   0.234   3.838   8.517
39586SOL    HW220656   0.218   3.690   8.542
39587SOL     OW20657   5.068   0.411   7.692
39587SOL    HW120658   5.151   0.380   7.728
39587SOL    HW220659   5.065   0.504   7.717
39588SOL     OW20660  10.059  14.678   6.923
39588SOL    HW120661  10.138  14.626   6.931
39588SOL    HW220662  10.087  14.757   6.877
39589SOL     OW20663  14.718   4.442   9.828
39589SOL    HW120664  14.630   4.409   9.809
39589SOL    HW220665  14.776   4.370   9.803
39590SOL     OW20666  12.316   1.294  13.378
39590SOL    HW120667  12.396   1.275  13.427
39590SOL    HW220668  12.342   1.359  13.313
39591SOL     OW20669   9.489   0.574  12.903
39591SOL    HW120670   9.548   0.528  12.843
39591SOL    HW220671   9.544   0.600  12.976
39592SOL     OW20672  12.141   4.386   3.893
39592SOL    HW120673  12.177   4.326   3.958
39592SOL    HW220674  12.216   4.414   3.841
39593SOL     OW20675   3.198   7.661   5.982
39593SOL    HW120676   3.199   7.599   6.055
39593SOL    HW220677   3.261   7.729   6.007
39594SOL     OW20678  11.625  14.035  13.953
39594SOL    HW120679  11.595  14.020  14.042
39594SOL    HW220680  11.636  13.947  13.916
39595SOL     OW20681   5.452   3.897   9.997
39595SOL    HW120682   5.408   3.818  10.027
39595SOL    HW220683   5.397   3.929   9.925
39596SOL     OW20684  12.573   8.161   5.645
39596SOL    HW120685  12.482   8.186   5.657
39596SOL    HW220686  12.616   8.241   5.613
39597SOL     OW20687   8.224   7.232   3.818
39597SOL    HW120688   8.206   7.145   3.854
39597SOL    HW220689   8.319   7.238   3.816
39598SOL     OW20690   9.952   4.353   9.038
39598SOL    HW120691   9.934   4.417   9.106
39598SOL    HW220692   9.893   4.376   8.967
39599SOL     OW20693   9.934   1.849   0.377
39599SOL    HW120694   9.842   1.833   0.398
39599SOL    HW220695   9.979   1.768   0.400
39600SOL     OW20696  12.642   3.730  13.602
39600SOL    HW120697  12.580   3.765  13.666
39600SOL    HW220698  12.688   3.807  13.568
39601SOL     OW20699  12.390  13.351  10.704
39601SOL    HW120700  12.302  13.364  10.741
39601SOL    HW220701  12.448  13.353  10.780
39602SOL     OW20702   0.975  10.199   7.608
39602SOL    HW120703   1.059  10.219   7.568
39602SOL    HW220704   0.993  10.201   7.702
39603SOL     OW20705  14.051   6.459   8.346
39603SOL    HW120706  13.992   6.531   8.322
39603SOL    HW220707  14.118   6.459   8.278
39604SOL     OW20708   6.857  10.082   6.018
39604SOL    HW120709   6.843   9.994   5.982
39604SOL    HW220710   6.909  10.127   5.952
39605SOL     OW20711   3.769  10.263  10.013
39605SOL    HW120712   3.835  10.194  10.016
39605SOL    HW220713   3.744  10.267   9.921
39606SOL     OW20714   0.246   3.289  11.604
39606SOL    HW120715   0.288   3.375  11.599
39606SOL    HW220716   0.263   3.248  11.520
39607SOL     OW20717   2.984  12.036   8.339
39607SOL    HW120718   2.976  12.033   8.434
39607SOL    HW220719   3.021  12.122   8.320
39608SOL     OW20720   9.900   7.447  13.478
39608SOL    HW120721   9.890   7.409  13.391
39608SOL    HW220722   9.842   7.523  13.477
39609SOL     OW20723  10.496   2.867   0.742
39609SOL    HW120724  10.545   2.822   0.673
39609SOL    HW220725  10.416   2.816   0.751
39610SOL     OW20726   6.830   1.225  14.581
39610SOL    HW120727   6.738   1.248  14.569
39610SOL    HW220728   6.829   1.133  14.605
39611SOL     OW20729  10.051  13.100  10.997
39611SOL    HW120730  10.060  13.167  11.065
39611SOL    HW220731  10.140  13.084  10.967
39612SOL     OW20732  12.972  10.919  13.842
39612SOL    HW120733  13.008  10.831  13.837
39612SOL    HW220734  12.955  10.932  13.935
39613SOL     OW20735   5.079   4.344  14.444
39613SOL    HW120736   5.082   4.277  14.376
39613SOL    HW220737   4.990   4.380  14.438
39614SOL     OW20738   9.865  14.557   6.514
39614SOL    HW120739   9.861  14.507   6.596
39614SOL    HW220740   9.827  14.498   6.448
39615SOL     OW20741  14.737   6.220  12.429
39615SOL    HW120742  14.700   6.306  12.447
39615SOL    HW220743  14.662   6.166  12.406
39616SOL     OW20744   3.190  11.888   1.196
39616SOL    HW120745   3.163  11.938   1.119
39616SOL    HW220746   3.137  11.924   1.267
39617SOL     OW20747  12.275   7.372   1.106
39617SOL    HW120748  12.358   7.415   1.081
39617SOL    HW220749  12.288   7.281   1.082
39618SOL     OW20750   2.120   4.553  13.182
39618SOL    HW120751   2.089   4.587  13.098
39618SOL    HW220752   2.090   4.618  13.246
39619SOL     OW20753   4.413   9.963   2.126
39619SOL    HW120754   4.460   9.883   2.106
39619SOL    HW220755   4.411   9.967   2.222
39620SOL     OW20756  14.715  13.742   2.692
39620SOL    HW120757  14.682  13.667   2.742
39620SOL    HW220758  14.716  13.713   2.601
39621SOL     OW20759  13.716  10.700   6.646
39621SOL    HW120760  13.652  10.666   6.709
39621SOL    HW220761  13.723  10.793   6.668
39622SOL     OW20762   5.217   0.872  10.195
39622SOL    HW120763   5.282   0.833  10.253
39622SOL    HW220764   5.208   0.809  10.123
39623SOL     OW20765   8.883   0.046   5.247
39623SOL    HW120766   8.803   0.085   5.283
39623SOL    HW220767   8.908   0.103   5.174
39624SOL     OW20768   6.391   7.015  10.852
39624SOL    HW120769   6.416   7.096  10.807
39624SOL    HW220770   6.432   6.945  10.802
39625SOL     OW20771   2.398  12.772  11.388
39625SOL    HW120772   2.338  12.701  11.366
39625SOL    HW220773   2.362  12.811  11.467
39626SOL     OW20774   3.511   7.964  12.796
39626SOL    HW120775   3.452   7.924  12.732
39626SOL    HW220776   3.582   8.000  12.744
39627SOL     OW20777   9.022  10.358   8.122
39627SOL    HW120778   9.023  10.437   8.177
39627SOL    HW220779   9.114  10.343   8.100
39628SOL     OW20780  11.674   3.255   6.889
39628SOL    HW120781  11.770   3.259   6.883
39628SOL    HW220782  11.649   3.336   6.932
39629SOL     OW20783   8.976  11.800   5.482
39629SOL    HW120784   9.052  11.849   5.454
39629SOL    HW220785   8.901  11.848   5.447
39630SOL     OW20786   3.551   9.318   3.638
39630SOL    HW120787   3.537   9.386   3.572
39630SOL    HW220788   3.646   9.303   3.639
39631SOL     OW20789   7.117   1.345  14.202
39631SOL    HW120790   7.062   1.289  14.148
39631SOL    HW220791   7.062   1.366  14.278
39632SOL     OW20792  10.776   5.074   5.592
39632SOL    HW120793  10.747   4.983   5.588
39632SOL    HW220794  10.717   5.121   5.533
39633SOL     OW20795   9.888  11.387  14.679
39633SOL    HW120796   9.924  11.303  14.707
39633SOL    HW220797   9.961  11.433  14.637
39634SOL     OW20798   2.859   7.634  13.299
39634SOL    HW120799   2.942   7.674  13.326
39634SOL    HW220800   2.869   7.542  13.322
39635SOL     OW20801   2.863   1.234   5.468
39635SOL    HW120802   2.956   1.256   5.461
39635SOL    HW220803   2.826   1.305   5.520
39636SOL     OW20804   4.374   1.278   3.533
39636SOL    HW120805   4.362   1.209   3.468
39636SOL    HW220806   4.333   1.243   3.612
39637SOL     OW20807   5.630   7.289  12.170
39637SOL    HW120808   5.563   7.351  12.140
39637SOL    HW220809   5.656   7.323  12.256
39638SOL     OW20810  12.469  13.876   2.997
39638SOL    HW120811  12.506  13.962   3.019
39638SOL    HW220812  12.381  13.897   2.964
39639SOL     OW20813   4.709   2.650  13.962
39639SOL    HW120814   4.799   2.675  13.943
39639SOL    HW220815   4.696   2.568  13.913
39640SOL     OW20816  12.691   7.395   7.828
39640SOL    HW120817  12.703   7.334   7.754
39640SOL    HW220818  12.612   7.365   7.871
39641SOL     OW20819   0.198  13.802   0.954
39641SOL    HW120820   0.115  13.843   0.976
39641SOL    HW220821   0.176  13.711   0.935
39642SOL     OW20822   9.119   6.561  12.614
39642SOL    HW120823   9.188   6.612  12.657
39642SOL    HW220824   9.143   6.470  12.628
39643SOL     OW20825   4.275  11.068  13.388
39643SOL    HW120826   4.215  11.117  13.445
39643SOL    HW220827   4.362  11.090  13.421
39644SOL     OW20828   4.291  10.031  14.344
39644SOL    HW120829   4.324   9.978  14.417
39644SOL    HW220830   4.314   9.981  14.266
39645SOL     OW20831  14.604   6.770   6.233
39645SOL    HW120832  14.568   6.686   6.262
39645SOL    HW220833  14.670   6.747   6.168
39646SOL     OW20834   5.299  14.013   1.496
39646SOL    HW120835   5.340  14.010   1.582
39646SOL    HW220836   5.327  14.096   1.458
39647SOL     OW20837  11.750   3.682  11.728
39647SOL    HW120838  11.728   3.661  11.819
39647SOL    HW220839  11.694   3.757  11.707
39648SOL     OW20840   6.510   2.858  12.758
39648SOL    HW120841   6.465   2.853  12.674
39648SOL    HW220842   6.440   2.877  12.821
39649SOL     OW20843   4.456   0.304   2.277
39649SOL    HW120844   4.531   0.249   2.252
39649SOL    HW220845   4.400   0.247   2.328
39650SOL     OW20846  14.307   7.429  14.488
39650SOL    HW120847  14.326   7.351  14.435
39650SOL    HW220848  14.383   7.438  14.545
39651SOL     OW20849   5.112   0.737   6.150
39651SOL    HW120850   5.169   0.740   6.226
39651SOL    HW220851   5.054   0.812   6.161
39652SOL     OW20852   4.472   2.614   5.182
39652SOL    HW120853   4.431   2.635   5.099
39652SOL    HW220854   4.566   2.619   5.165
39653SOL     OW20855   8.623   0.921  14.125
39653SOL    HW120856   8.632   1.002  14.074
39653SOL    HW220857   8.597   0.951  14.212
39654SOL     OW20858  11.126   5.468  12.152
39654SOL    HW120859  11.170   5.386  12.177
39654SOL    HW220860  11.102   5.456  12.060
39655SOL     OW20861   9.046   2.822   4.923
39655SOL    HW120862   9.033   2.892   4.987
39655SOL    HW220863   9.129   2.845   4.880
39656SOL     OW20864  14.620  10.048  11.726
39656SOL    HW120865  14.630  10.143  11.721
39656SOL    HW220866  14.652  10.025  11.813
39657SOL     OW20867   3.548   1.645   6.532
39657SOL    HW120868   3.507   1.560   6.514
39657SOL    HW220869   3.559   1.685   6.446
39658SOL     OW20870   4.267   2.840   0.350
39658SOL    HW120871   4.261   2.852   0.445
39658SOL    HW220872   4.221   2.915   0.313
39659SOL     OW20873   8.802   2.249   5.079
39659SOL    HW120874   8.853   2.193   5.021
39659SOL    HW220875   8.771   2.320   5.023
39660SOL     OW20876   9.428   4.055   1.853
39660SOL    HW120877   9.462   4.032   1.940
39660SOL    HW220878   9.471   3.994   1.794
39661SOL     OW20879  13.361   0.764  13.477
39661SOL    HW120880  13.416   0.748  13.400
39661SOL    HW220881  13.410   0.826  13.530
39662SOL     OW20882   0.540  11.348   4.954
39662SOL    HW120883   0.472  11.285   4.928
39662SOL    HW220884   0.497  11.404   5.019
39663SOL     OW20885   1.271   7.594   8.106
39663SOL    HW120886   1.208   7.661   8.077
39663SOL    HW220887   1.249   7.517   8.053
39664SOL     OW20888  11.226   4.377   4.871
39664SOL    HW120889  11.278   4.310   4.828
39664SOL    HW220890  11.156   4.329   4.915
39665SOL     OW20891   9.933  10.613   4.616
39665SOL    HW120892   9.983  10.634   4.536
39665SOL    HW220893   9.854  10.571   4.583
39666SOL     OW20894  12.650   6.575  10.584
39666SOL    HW120895  12.740   6.603  10.568
39666SOL    HW220896  12.635   6.592  10.677
39667SOL     OW20897   5.598  13.644   5.397
39667SOL    HW120898   5.563  13.681   5.315
39667SOL    HW220899   5.585  13.550   5.388
39668SOL     OW20900  10.285   3.105   8.420
39668SOL    HW120901  10.239   3.148   8.493
39668SOL    HW220902  10.277   3.167   8.348
39669SOL     OW20903  13.427   1.149  14.039
39669SOL    HW120904  13.504   1.161  13.983
39669SOL    HW220905  13.383   1.234  14.038
39670SOL     OW20906  14.375   5.605   2.735
39670SOL    HW120907  14.443   5.588   2.801
39670SOL    HW220908  14.323   5.677   2.772
39671SOL     OW20909   5.129  13.755  12.469
39671SOL    HW120910   5.223  13.754  12.490
39671SOL    HW220911   5.088  13.708  12.541
39672SOL     OW20912   8.207   7.464  13.216
39672SOL    HW120913   8.240   7.386  13.171
39672SOL    HW220914   8.236   7.453  13.307
39673SOL     OW20915   9.774   3.316  10.277
39673SOL    HW120916   9.847   3.262  10.308
39673SOL    HW220917   9.776   3.394  10.333
39674SOL     OW20918   5.457   4.380  14.350
39674SOL    HW120919   5.542   4.372  14.393
39674SOL    HW220920   5.472   4.346  14.262
39675SOL     OW20921   5.557   6.363   1.729
39675SOL    HW120922   5.488   6.411   1.774
39675SOL    HW220923   5.624   6.350   1.796
39676SOL     OW20924   3.919   4.085   2.485
39676SOL    HW120925   4.005   4.076   2.445
39676SOL    HW220926   3.870   4.008   2.455
39677SOL     OW20927   1.880   0.782   7.678
39677SOL    HW120928   1.792   0.749   7.660
39677SOL    HW220929   1.924   0.710   7.723
39678SOL     OW20930   6.702   9.741   5.018
39678SOL    HW120931   6.715   9.813   4.956
39678SOL    HW220932   6.771   9.751   5.082
39679SOL     OW20933   3.048   7.331   9.623
39679SOL    HW120934   3.086   7.345   9.537
39679SOL    HW220935   3.105   7.266   9.664
39680SOL     OW20936   9.019   9.258   6.998
39680SOL    HW120937   9.007   9.239   7.091
39680SOL    HW220938   8.937   9.302   6.972
39681SOL     OW20939   4.937   8.882  11.192
39681SOL    HW120940   4.849   8.883  11.156
39681SOL    HW220941   4.924   8.884  11.287
39682SOL     OW20942   3.141   0.482   9.042
39682SOL    HW120943   3.134   0.397   9.086
39682SOL    HW220944   3.060   0.527   9.065
39683SOL     OW20945  14.064  10.116   6.272
39683SOL    HW120946  14.142  10.168   6.251
39683SOL    HW220947  14.014  10.171   6.333
39684SOL     OW20948  13.923  14.683   0.043
39684SOL    HW120949  13.984  14.756   0.050
39684SOL    HW220950  13.847  14.720  14.876
39685SOL     OW20951  12.509   7.140  14.568
39685SOL    HW120952  12.483   7.055  14.604
39685SOL    HW220953  12.605   7.140  14.576
39686SOL     OW20954   2.864   7.424   9.785
39686SOL    HW120955   2.924   7.382   9.724
39686SOL    HW220956   2.919   7.448   9.860
39687SOL     OW20957   3.331   8.699   3.368
39687SOL    HW120958   3.315   8.605   3.378
39687SOL    HW220959   3.418   8.713   3.403
39688SOL     OW20960   3.689   2.480   2.031
39688SOL    HW120961   3.653   2.551   1.977
39688SOL    HW220962   3.731   2.421   1.969
39689SOL     OW20963  11.433   2.594   3.329
39689SOL    HW120964  11.479   2.631   3.254
39689SOL    HW220965  11.386   2.667   3.368
39690SOL     OW20966   2.868   9.157   0.061
39690SOL    HW120967   2.895   9.241   0.023
39690SOL    HW220968   2.928   9.144   0.135
39691SOL     OW20969   6.616   6.429   8.287
39691SOL    HW120970   6.657   6.392   8.210
39691SOL    HW220971   6.585   6.516   8.259
39692SOL     OW20972   4.226  10.796   6.719
39692SOL    HW120973   4.244  10.890   6.725
39692SOL    HW220974   4.260  10.771   6.633
39693SOL     OW20975   6.386  11.871   2.993
39693SOL    HW120976   6.309  11.920   2.966
39693SOL    HW220977   6.352  11.786   3.021
39694SOL     OW20978   0.677  13.625   9.852
39694SOL    HW120979   0.604  13.574   9.887
39694SOL    HW220980   0.705  13.679   9.926
39695SOL     OW20981  10.194   5.056   4.727
39695SOL    HW120982  10.196   5.044   4.632
39695SOL    HW220983  10.219   5.148   4.741
39696SOL     OW20984  12.836   3.970  10.338
39696SOL    HW120985  12.763   4.031  10.323
39696SOL    HW220986  12.823   3.940  10.428
39697SOL     OW20987  13.773   3.235   8.267
39697SOL    HW120988  13.860   3.249   8.304
39697SOL    HW220989  13.781   3.157   8.213
39698SOL     OW20990  11.658   8.733   7.768
39698SOL    HW120991  11.622   8.664   7.713
39698SOL    HW220992  11.639   8.814   7.721
39699SOL     OW20993  13.395  13.684   8.308
39699SOL    HW120994  13.362  13.733   8.233
39699SOL    HW220995  13.340  13.712   8.382
39700SOL     OW20996  10.196   4.371   8.621
39700SOL    HW120997  10.273   4.344   8.572
39700SOL    HW220998  10.231   4.419   8.696
39701SOL     OW20999   8.804   5.765   2.097
39701SOL    HW121000   8.757   5.739   2.176
39701SOL    HW221001   8.791   5.859   2.090
39702SOL     OW21002  10.481  12.126  14.421
39702SOL    HW121003  10.556  12.068  14.435
39702SOL    HW221004  10.493  12.196  14.484
39703SOL     OW21005  12.469   9.228  10.816
39703SOL    HW121006  12.399   9.215  10.880
39703SOL    HW221007  12.436   9.298  10.758
39704SOL     OW21008  13.366  14.700   0.256
39704SOL    HW121009  13.453  14.734   0.276
39704SOL    HW221010  13.324  14.691   0.341
39705SOL     OW21011   2.628   6.232   7.224
39705SOL    HW121012   2.598   6.266   7.139
39705SOL    HW221013   2.675   6.152   7.202
39706SOL     OW21014   9.131   2.850  10.385
39706SOL    HW121015   9.180   2.773  10.413
39706SOL    HW221016   9.198   2.915  10.364
39707SOL     OW21017   3.356  12.109  11.157
39707SOL    HW121018   3.362  12.056  11.236
39707SOL    HW221019   3.262  12.118  11.140
39708SOL     OW21020  10.107  10.317   0.729
39708SOL    HW121021  10.066  10.315   0.643
39708SOL    HW221022  10.034  10.316   0.791
39709SOL     OW21023  10.647   0.120   1.272
39709SOL    HW121024  10.604   0.199   1.305
39709SOL    HW221025  10.730   0.117   1.320
39710SOL     OW21026   3.946  14.408   8.415
39710SOL    HW121027   4.010  14.356   8.465
39710SOL    HW221028   3.869  14.352   8.410
39711SOL     OW21029  11.774   7.630   6.879
39711SOL    HW121030  11.749   7.560   6.939
39711SOL    HW221031  11.754   7.596   6.792
39712SOL     OW21032   2.471  14.355  13.698
39712SOL    HW121033   2.553  14.404  13.691
39712SOL    HW221034   2.487  14.292  13.769
39713SOL     OW21035  11.431  10.922   3.306
39713SOL    HW121036  11.504  10.871   3.341
39713SOL    HW221037  11.473  10.992   3.257
39714SOL     OW21038  14.185   9.342   0.044
39714SOL    HW121039  14.154   9.316   0.131
39714SOL    HW221040  14.163   9.267  14.868
39715SOL     OW21041   9.042   0.353  11.276
39715SOL    HW121042   9.035   0.259  11.265
39715SOL    HW221043   9.051   0.388  11.187
39716SOL     OW21044   1.258  11.905  14.707
39716SOL    HW121045   1.254  11.853  14.627
39716SOL    HW221046   1.248  11.841  14.777
39717SOL     OW21047   0.750   0.487   4.156
39717SOL    HW121048   0.820   0.474   4.219
39717SOL    HW221049   0.754   0.409   4.100
39718SOL     OW21050   5.588  13.176   2.223
39718SOL    HW121051   5.531  13.245   2.257
39718SOL    HW221052   5.629  13.138   2.301
39719SOL     OW21053   1.158  10.456   0.387
39719SOL    HW121054   1.089  10.391   0.374
39719SOL    HW221055   1.112  10.540   0.392
39720SOL     OW21056  12.391   3.197   2.638
39720SOL    HW121057  12.348   3.163   2.560
39720SOL    HW221058  12.399   3.291   2.622
39721SOL     OW21059   5.008   4.459   1.054
39721SOL    HW121060   5.051   4.377   1.029
39721SOL    HW221061   4.984   4.500   0.971
39722SOL     OW21062   7.764  14.746   6.330
39722SOL    HW121063   7.738  14.658   6.355
39722SOL    HW221064   7.834  14.770   6.390
39723SOL     OW21065   8.436   6.685  14.308
39723SOL    HW121066   8.472   6.706  14.394
39723SOL    HW221067   8.495   6.728  14.246
39724SOL     OW21068   4.885  14.272   7.563
39724SOL    HW121069   4.815  14.277   7.628
39724SOL    HW221070   4.845  14.302   7.482
39725SOL     OW21071   9.773  11.563   6.022
39725SOL    HW121072   9.744  11.475   6.001
39725SOL    HW221073   9.698  11.603   6.067
39726SOL     OW21074   1.729  11.111  14.006
39726SOL    HW121075   1.636  11.101  14.029
39726SOL    HW221076   1.749  11.033  13.955
39727SOL     OW21077   9.725  12.910   1.269
39727SOL    HW121078   9.780  12.988   1.274
39727SOL    HW221079   9.780  12.845   1.225
39728SOL     OW21080   1.827   4.861   0.569
39728SOL    HW121081   1.756   4.807   0.535
39728SOL    HW221082   1.873   4.892   0.492
39729SOL     OW21083  10.991   3.036  10.047
39729SOL    HW121084  11.045   3.089  10.107
39729SOL    HW221085  11.054   3.002   9.984
39730SOL     OW21086  10.192   3.889  12.011
39730SOL    HW121087  10.210   3.872  11.918
39730SOL    HW221088  10.146   3.972  12.012
39731SOL     OW21089   6.768  13.025   8.586
39731SOL    HW121090   6.732  13.062   8.506
39731SOL    HW221091   6.694  13.020   8.646
39732SOL     OW21092   9.802   3.933   4.165
39732SOL    HW121093   9.865   3.864   4.182
39732SOL    HW221094   9.718   3.897   4.193
39733SOL     OW21095   5.652  14.329   7.235
39733SOL    HW121096   5.712  14.337   7.309
39733SOL    HW221097   5.670  14.406   7.181
39734SOL     OW21098   3.659  14.022   9.979
39734SOL    HW121099   3.690  14.105   9.942
39734SOL    HW221100   3.641  14.042  10.071
39735SOL     OW21101   4.609   5.424   9.067
39735SOL    HW121102   4.631   5.332   9.083
39735SOL    HW221103   4.597   5.429   8.972
39736SOL     OW21104   3.411   1.212  14.060
39736SOL    HW121105   3.394   1.137  14.117
39736SOL    HW221106   3.506   1.214  14.050
39737SOL     OW21107   1.283   8.130   4.384
39737SOL    HW121108   1.345   8.198   4.356
39737SOL    HW221109   1.321   8.048   4.351
39738SOL     OW21110   7.487  12.243   8.087
39738SOL    HW121111   7.565  12.278   8.044
39738SOL    HW221112   7.427  12.225   8.015
39739SOL     OW21113  10.360  13.844   1.161
39739SOL    HW121114  10.265  13.849   1.162
39739SOL    HW221115  10.389  13.932   1.139
39740SOL     OW21116   2.784  14.631   9.781
39740SOL    HW121117   2.840  14.554   9.782
39740SOL    HW221118   2.705  14.604   9.828
39741SOL     OW21119   5.616   2.185  12.848
39741SOL    HW121120   5.620   2.251  12.779
39741SOL    HW221121   5.620   2.235  12.930
39742SOL     OW21122  11.371   4.467   2.548
39742SOL    HW121123  11.321   4.417   2.484
39742SOL    HW221124  11.424   4.526   2.495
39743SOL     OW21125  11.700  14.238   4.690
39743SOL    HW121126  11.791  14.251   4.719
39743SOL    HW221127  11.663  14.178   4.754
39744SOL     OW21128   7.383  11.455   9.826
39744SOL    HW121129   7.384  11.388   9.895
39744SOL    HW221130   7.295  11.449   9.789
39745SOL     OW21131   3.033   7.347   9.098
39745SOL    HW121132   3.058   7.427   9.144
39745SOL    HW221133   3.017   7.375   9.008
39746SOL     OW21134  13.937   9.709  14.006
39746SOL    HW121135  13.880   9.703  14.082
39746SOL    HW221136  13.994   9.632  14.012
39747SOL     OW21137  11.879  12.213  11.565
39747SOL    HW121138  11.809  12.165  11.519
39747SOL    HW221139  11.834  12.257  11.637
39748SOL     OW21140   4.706   9.029   3.596
39748SOL    HW121141   4.781   9.004   3.543
39748SOL    HW221142   4.670   8.946   3.628
39749SOL     OW21143   3.343   4.719  11.174
39749SOL    HW121144   3.278   4.707  11.105
39749SOL    HW221145   3.298   4.695  11.255
39750SOL     OW21146   6.804   0.794  13.242
39750SOL    HW121147   6.834   0.777  13.152
39750SOL    HW221148   6.884   0.813  13.291
39751SOL     OW21149   3.482   7.965   9.861
39751SOL    HW121150   3.530   8.047   9.851
39751SOL    HW221151   3.392   7.992   9.877
39752SOL     OW21152   7.023  11.743   8.369
39752SOL    HW121153   6.953  11.749   8.304
39752SOL    HW221154   7.103  11.733   8.317
39753SOL     OW21155  12.528   2.591  10.495
39753SOL    HW121156  12.485   2.630  10.571
39753SOL    HW221157  12.526   2.497  10.512
39754SOL     OW21158   6.558   9.468   0.705
39754SOL    HW121159   6.527   9.426   0.785
39754SOL    HW221160   6.494   9.537   0.688
39755SOL     OW21161   7.180  12.287  12.346
39755SOL    HW121162   7.122  12.243  12.407
39755SOL    HW221163   7.258  12.307  12.396
39756SOL     OW21164   9.121  14.116  11.713
39756SOL    HW121165   9.030  14.133  11.736
39756SOL    HW221166   9.171  14.145  11.789
39757SOL     OW21167   7.621  11.393   7.715
39757SOL    HW121168   7.705  11.408   7.759
39757SOL    HW221169   7.628  11.304   7.681
39758SOL     OW21170   9.735   5.201  12.559
39758SOL    HW121171   9.720   5.236  12.647
39758SOL    HW221172   9.691   5.262  12.501
39759SOL     OW21173  10.677   9.923   3.996
39759SOL    HW121174  10.721   9.940   3.912
39759SOL    HW221175  10.585   9.942   3.979
39760SOL     OW21176  12.894   6.794   4.599
39760SOL    HW121177  12.850   6.709   4.597
39760SOL    HW221178  12.984   6.773   4.624
39761SOL     OW21179  11.001   6.755  14.692
39761SOL    HW121180  11.033   6.798  14.772
39761SOL    HW221181  11.030   6.664  14.702
39762SOL     OW21182  11.482   9.972  14.339
39762SOL    HW121183  11.528  10.047  14.301
39762SOL    HW221184  11.474   9.910  14.266
39763SOL     OW21185  10.361  12.015  10.844
39763SOL    HW121186  10.348  11.922  10.825
39763SOL    HW221187  10.277  12.043  10.881
39764SOL     OW21188   5.700   0.665  11.319
39764SOL    HW121189   5.685   0.738  11.379
39764SOL    HW221190   5.671   0.697  11.234
39765SOL     OW21191   9.774   5.410  12.278
39765SOL    HW121192   9.750   5.486  12.225
39765SOL    HW221193   9.700   5.397  12.337
39766SOL     OW21194  12.379   0.637   8.540
39766SOL    HW121195  12.364   0.543   8.543
39766SOL    HW221196  12.451   0.648   8.477
39767SOL     OW21197   2.431   8.095   8.024
39767SOL    HW121198   2.396   8.175   7.985
39767SOL    HW221199   2.525   8.098   8.004
39768SOL     OW21200   5.452   0.401   1.816
39768SOL    HW121201   5.505   0.368   1.889
39768SOL    HW221202   5.435   0.324   1.762
39769SOL     OW21203   6.968   8.739  11.671
39769SOL    HW121204   6.908   8.755  11.744
39769SOL    HW221205   7.046   8.701  11.712
39770SOL     OW21206   3.272   0.501  11.749
39770SOL    HW121207   3.322   0.453  11.683
39770SOL    HW221208   3.183   0.467  11.739
39771SOL     OW21209  11.286   2.494   4.557
39771SOL    HW121210  11.264   2.570   4.502
39771SOL    HW221211  11.357   2.526   4.614
39772SOL     OW21212   4.629  10.284   1.603
39772SOL    HW121213   4.603  10.274   1.694
39772SOL    HW221214   4.711  10.235   1.596
39773SOL     OW21215  14.560   5.363   6.401
39773SOL    HW121216  14.568   5.271   6.374
39773SOL    HW221217  14.648   5.398   6.392
39774SOL     OW21218   6.744   2.797  11.662
39774SOL    HW121219   6.814   2.739  11.631
39774SOL    HW221220   6.771   2.824  11.749
39775SOL     OW21221   6.336  14.458   3.108
39775SOL    HW121222   6.423  14.424   3.126
39775SOL    HW221223   6.348  14.552   3.099
39776SOL     OW21224  10.857   6.991   4.240
39776SOL    HW121225  10.879   6.915   4.187
39776SOL    HW221226  10.763   6.983   4.257
39777SOL     OW21227   4.064   3.372   0.255
39777SOL    HW121228   3.988   3.320   0.280
39777SOL    HW221229   4.050   3.457   0.297
39778SOL     OW21230   7.336   2.149   9.948
39778SOL    HW121231   7.410   2.089   9.948
39778SOL    HW221232   7.309   2.154   9.856
39779SOL     OW21233   7.753  11.964  12.820
39779SOL    HW121234   7.830  12.010  12.853
39779SOL    HW221235   7.787  11.883  12.783
39780SOL     OW21236   9.937   8.977   6.060
39780SOL    HW121237   9.922   9.050   6.119
39780SOL    HW221238   9.852   8.959   6.021
39781SOL     OW21239   9.463   6.016   7.310
39781SOL    HW121240   9.430   6.105   7.296
39781SOL    HW221241   9.556   6.022   7.288
39782SOL     OW21242   7.334   7.044   7.111
39782SOL    HW121243   7.293   6.995   7.040
39782SOL    HW221244   7.377   7.117   7.068
39783SOL     OW21245   1.029   5.968   4.999
39783SOL    HW121246   0.963   5.998   4.937
39783SOL    HW221247   0.983   5.904   5.053
39784SOL     OW21248   1.973   9.345   5.902
39784SOL    HW121249   1.990   9.379   5.813
39784SOL    HW221250   1.926   9.416   5.945
39785SOL     OW21251  14.234  10.599   0.908
39785SOL    HW121252  14.322  10.620   0.937
39785SOL    HW221253  14.178  10.616   0.984
39786SOL     OW21254  13.111   7.626  14.116
39786SOL    HW121255  13.045   7.588  14.174
39786SOL    HW221256  13.105   7.574  14.035
39787SOL     OW21257  13.654   6.046  10.025
39787SOL    HW121258  13.615   6.004  10.102
39787SOL    HW221259  13.659   5.977   9.960
39788SOL     OW21260   7.973  13.131   0.630
39788SOL    HW121261   7.909  13.067   0.661
39788SOL    HW221262   8.057  13.097   0.659
39789SOL     OW21263   6.620   9.519   9.874
39789SOL    HW121264   6.665   9.574   9.938
39789SOL    HW221265   6.553   9.576   9.836
39790SOL     OW21266   2.195   3.332   5.173
39790SOL    HW121267   2.214   3.243   5.200
39790SOL    HW221268   2.257   3.387   5.222
39791SOL     OW21269  14.442   0.006   0.487
39791SOL    HW121270  14.533   0.010   0.457
39791SOL    HW221271  14.418   0.098   0.502
39792SOL     OW21272   0.583   8.698   2.939
39792SOL    HW121273   0.576   8.645   2.860
39792SOL    HW221274   0.531   8.651   3.004
39793SOL     OW21275  11.334   6.842   9.770
39793SOL    HW121276  11.394   6.842   9.695
39793SOL    HW221277  11.261   6.896   9.742
39794SOL     OW21278  12.624   9.021   2.711
39794SOL    HW121279  12.645   9.110   2.738
39794SOL    HW221280  12.705   8.988   2.672
39795SOL     OW21281   3.533  11.949  13.492
39795SOL    HW121282   3.573  11.931  13.407
39795SOL    HW221283   3.487  12.032  13.480
39796SOL     OW21284   8.007   6.261   1.608
39796SOL    HW121285   8.025   6.354   1.602
39796SOL    HW221286   7.916   6.252   1.581
39797SOL     OW21287   2.310  11.599  11.798
39797SOL    HW121288   2.391  11.641  11.826
39797SOL    HW221289   2.269  11.663  11.740
39798SOL     OW21290   1.097  14.811  14.437
39798SOL    HW121291   1.038  14.737  14.456
39798SOL    HW221292   1.145  14.784  14.359
39799SOL     OW21293  14.556   0.128  11.440
39799SOL    HW121294  14.496   0.195  11.407
39799SOL    HW221295  14.583   0.160  11.526
39800SOL     OW21296  13.194   4.898   9.118
39800SOL    HW121297  13.288   4.902   9.098
39800SOL    HW221298  13.185   4.950   9.197
39801SOL     OW21299   0.218  13.346  12.442
39801SOL    HW121300   0.310  13.359  12.467
39801SOL    HW221301   0.171  13.341  12.525
39802SOL     OW21302   5.931   7.845   6.281
39802SOL    HW121303   6.026   7.832   6.273
39802SOL    HW221304   5.922   7.918   6.343
39803SOL     OW21305   4.258  10.489   8.293
39803SOL    HW121306   4.204  10.410   8.297
39803SOL    HW221307   4.218  10.541   8.223
39804SOL     OW21308   0.434   7.483  12.917
39804SOL    HW121309   0.393   7.447  12.995
39804SOL    HW221310   0.361   7.517  12.865
39805SOL     OW21311  11.705  12.322  11.730
39805SOL    HW121312  11.620  12.359  11.754
39805SOL    HW221313  11.741  12.290  11.813
39806SOL     OW21314  11.354   9.021  13.375
39806SOL    HW121315  11.270   9.066  13.367
39806SOL    HW221316  11.335   8.943  13.428
39807SOL     OW21317   3.784   6.734  11.724
39807SOL    HW121318   3.833   6.701  11.799
39807SOL    HW221319   3.783   6.829  11.737
39808SOL     OW21320  14.787   3.604  11.088
39808SOL    HW121321  14.876   3.638  11.098
39808SOL    HW221322  14.732   3.674  11.123
39809SOL     OW21323   3.587   5.918   7.210
39809SOL    HW121324   3.545   5.935   7.294
39809SOL    HW221325   3.651   5.849   7.228
39810SOL     OW21326  13.136   5.666  11.569
39810SOL    HW121327  13.097   5.727  11.632
39810SOL    HW221328  13.230   5.683  11.575
39811SOL     OW21329   8.730  14.244   8.333
39811SOL    HW121330   8.636  14.261   8.331
39811SOL    HW221331   8.756  14.260   8.424
39812SOL     OW21332   6.157   5.433   0.826
39812SOL    HW121333   6.137   5.514   0.874
39812SOL    HW221334   6.172   5.461   0.736
39813SOL     OW21335   0.340  10.829   6.680
39813SOL    HW121336   0.405  10.759   6.676
39813SOL    HW221337   0.256  10.784   6.670
39814SOL     OW21338   3.943  13.718  14.125
39814SOL    HW121339   3.982  13.685  14.044
39814SOL    HW221340   3.994  13.797  14.145
39815SOL     OW21341   1.512   3.648  10.818
39815SOL    HW121342   1.547   3.719  10.764
39815SOL    HW221343   1.427   3.680  10.848
39816SOL     OW21344  13.307  12.451  14.841
39816SOL    HW121345  13.228  12.484   0.004
39816SOL    HW221346  13.378  12.500   0.002
39817SOL     OW21347   9.352  10.676  13.754
39817SOL    HW121348   9.446  10.665  13.765
39817SOL    HW221349   9.339  10.771  13.753
39818SOL     OW21350   3.452  11.979   2.297
39818SOL    HW121351   3.458  11.921   2.373
39818SOL    HW221352   3.468  12.066   2.331
39819SOL     OW21353  14.264   8.489   4.420
39819SOL    HW121354  14.348   8.464   4.457
39819SOL    HW221355  14.226   8.549   4.484
39820SOL     OW21356   0.660  14.691  10.732
39820SOL    HW121357   0.713  14.671  10.655
39820SOL    HW221358   0.632  14.782  10.717
39821SOL     OW21359   0.316   8.077   9.553
39821SOL    HW121360   0.383   8.092   9.486
39821SOL    HW221361   0.247   8.140   9.533
39822SOL     OW21362  12.486   5.624  12.737
39822SOL    HW121363  12.556   5.666  12.787
39822SOL    HW221364  12.411   5.683  12.746
39823SOL     OW21365   4.167   1.924  13.066
39823SOL    HW121366   4.108   1.889  13.132
39823SOL    HW221367   4.200   1.846  13.020
39824SOL     OW21368  10.241  10.950  14.253
39824SOL    HW121369  10.272  10.889  14.187
39824SOL    HW221370  10.180  10.899  14.306
39825SOL     OW21371   2.580   5.396  10.187
39825SOL    HW121372   2.589   5.352  10.272
39825SOL    HW221373   2.616   5.334  10.124
39826SOL     OW21374   7.017  12.776   0.392
39826SOL    HW121375   7.043  12.842   0.456
39826SOL    HW221376   6.922  12.784   0.386
39827SOL     OW21377   6.295  12.119  13.997
39827SOL    HW121378   6.340  12.202  14.013
39827SOL    HW221379   6.335  12.083  13.919
39828SOL     OW21380  12.893   2.337  13.618
39828SOL    HW121381  12.905   2.430  13.598
39828SOL    HW221382  12.805   2.317  13.586
39829SOL     OW21383  10.695  10.212   2.024
39829SOL    HW121384  10.727  10.140   2.079
39829SOL    HW221385  10.624  10.174   1.973
39830SOL     OW21386   5.389   4.582   0.478
39830SOL    HW121387   5.470   4.625   0.508
39830SOL    HW221388   5.405   4.489   0.490
39831SOL     OW21389  12.108   6.079  12.358
39831SOL    HW121390  12.039   6.142  12.381
39831SOL    HW221391  12.061   6.008  12.313
39832SOL     OW21392   9.260   3.584   0.146
39832SOL    HW121393   9.242   3.491   0.130
39832SOL    HW221394   9.229   3.628   0.067
39833SOL     OW21395   3.833   9.983   0.126
39833SOL    HW121396   3.771  10.056   0.123
39833SOL    HW221397   3.895  10.006   0.195
39834SOL     OW21398  12.074  13.758   3.878
39834SOL    HW121399  11.983  13.749   3.850
39834SOL    HW221400  12.124  13.712   3.810
39835SOL     OW21401   9.065   1.470   5.696
39835SOL    HW121402   9.016   1.458   5.614
39835SOL    HW221403   9.157   1.463   5.670
39836SOL     OW21404   0.521  13.139   2.020
39836SOL    HW121405   0.535  13.227   2.054
39836SOL    HW221406   0.503  13.086   2.098
39837SOL     OW21407  13.554   0.334   4.841
39837SOL    HW121408  13.482   0.388   4.873
39837SOL    HW221409  13.555   0.258   4.899
39838SOL     OW21410  12.162   3.589  10.060
39838SOL    HW121411  12.138   3.607   9.969
39838SOL    HW221412  12.256   3.570  10.057
39839SOL     OW21413   9.012   6.997   0.694
39839SOL    HW121414   8.944   7.021   0.758
39839SOL    HW221415   8.986   7.042   0.614
39840SOL     OW21416  11.407  11.659   8.166
39840SOL    HW121417  11.479  11.614   8.210
39840SOL    HW221418  11.417  11.636   8.073
39841SOL     OW21419   2.266   8.226   8.958
39841SOL    HW121420   2.349   8.182   8.940
39841SOL    HW221421   2.255   8.288   8.886
39842SOL     OW21422  14.361  14.554   9.608
39842SOL    HW121423  14.281  14.510   9.581
39842SOL    HW221424  14.389  14.603   9.531
39843SOL     OW21425   0.511  11.992   1.561
39843SOL    HW121426   0.421  12.025   1.561
39843SOL    HW221427   0.516  11.938   1.482
39844SOL     OW21428   4.616   7.058   9.218
39844SOL    HW121429   4.616   7.005   9.138
39844SOL    HW221430   4.705   7.049   9.253
39845SOL     OW21431   8.110  10.597   7.293
39845SOL    HW121432   8.152  10.554   7.217
39845SOL    HW221433   8.177  10.657   7.326
39846SOL     OW21434  13.825   6.349  14.485
39846SOL    HW121435  13.916   6.320  14.484
39846SOL    HW221436  13.828   6.441  14.457
39847SOL     OW21437   9.750  14.156  11.418
39847SOL    HW121438   9.808  14.137  11.492
39847SOL    HW221439   9.663  14.128  11.448
39848SOL     OW21440   6.083   5.088   1.643
39848SOL    HW121441   6.034   5.151   1.696
39848SOL    HW221442   6.016   5.032   1.604
39849SOL     OW21443   1.388  13.465   7.218
39849SOL    HW121444   1.319  13.503   7.164
39849SOL    HW221445   1.441  13.414   7.157
39850SOL     OW21446  14.150   3.560   7.612
39850SOL    HW121447  14.153   3.540   7.706
39850SOL    HW221448  14.228   3.613   7.596
39851SOL     OW21449   0.750  12.276   7.776
39851SOL    HW121450   0.838  12.297   7.744
39851SOL    HW221451   0.765  12.224   7.855
39852SOL     OW21452   7.339   0.101   4.925
39852SOL    HW121453   7.402   0.029   4.926
39852SOL    HW221454   7.260   0.064   4.964
39853SOL     OW21455   5.372   0.374   8.142
39853SOL    HW121456   5.302   0.434   8.116
39853SOL    HW221457   5.445   0.397   8.085
39854SOL     OW21458  14.851   8.949   1.310
39854SOL    HW121459   0.031   8.945   1.385
39854SOL    HW221460  14.867   9.036   1.272
39855SOL     OW21461   4.234   7.531   3.499
39855SOL    HW121462   4.171   7.550   3.569
39855SOL    HW221463   4.186   7.552   3.418
39856SOL     OW21464   3.785   5.268   5.069
39856SOL    HW121465   3.753   5.243   4.982
39856SOL    HW221466   3.880   5.266   5.060
39857SOL     OW21467   1.348   4.286  10.386
39857SOL    HW121468   1.325   4.195  10.404
39857SOL    HW221469   1.285   4.337  10.436
39858SOL     OW21470  11.675   8.878   9.189
39858SOL    HW121471  11.592   8.902   9.230
39858SOL    HW221472  11.711   8.961   9.158
39859SOL     OW21473  13.142  10.489   7.801
39859SOL    HW121474  13.202  10.422   7.834
39859SOL    HW221475  13.120  10.460   7.712
39860SOL     OW21476   5.260   8.342  13.836
39860SOL    HW121477   5.173   8.316  13.808
39860SOL    HW221478   5.259   8.334  13.931
39861SOL     OW21479   3.858  11.751   4.895
39861SOL    HW121480   3.768  11.724   4.912
39861SOL    HW221481   3.872  11.827   4.952
39862SOL     OW21482   4.407  14.250   8.882
39862SOL    HW121483   4.409  14.248   8.786
39862SOL    HW221484   4.499  14.250   8.908
39863SOL     OW21485  10.315   4.837   0.128
39863SOL    HW121486  10.269   4.834   0.044
39863SOL    HW221487  10.281   4.762   0.177
39864SOL     OW21488   1.372   3.889   3.962
39864SOL    HW121489   1.360   3.805   3.920
39864SOL    HW221490   1.353   3.954   3.894
39865SOL     OW21491   7.622  14.187   9.088
39865SOL    HW121492   7.552  14.171   9.024
39865SOL    HW221493   7.681  14.112   9.077
39866SOL     OW21494   4.874   4.030   0.476
39866SOL    HW121495   4.844   3.946   0.508
39866SOL    HW221496   4.872   4.022   0.381
39867SOL     OW21497  13.113   4.680   9.015
39867SOL    HW121498  13.134   4.767   9.050
39867SOL    HW221499  13.185   4.624   9.045
39868SOL     OW21500  10.834   4.871   7.244
39868SOL    HW121501  10.912   4.817   7.261
39868SOL    HW221502  10.789   4.825   7.174
39869SOL     OW21503  11.141   9.885   0.791
39869SOL    HW121504  11.223   9.862   0.747
39869SOL    HW221505  11.088   9.926   0.724
39870SOL     OW21506   1.134  14.815  10.032
39870SOL    HW121507   1.080   0.005  10.069
39870SOL    HW221508   1.096  14.800   9.945
39871SOL     OW21509  11.571   3.210  11.792
39871SOL    HW121510  11.581   3.115  11.784
39871SOL    HW221511  11.661   3.243  11.797
39872SOL     OW21512   3.570  13.122  13.991
39872SOL    HW121513   3.598  13.134  14.081
39872SOL    HW221514   3.602  13.201  13.945
39873SOL     OW21515  10.295  12.298   0.895
39873SOL    HW121516  10.249  12.292   0.811
39873SOL    HW221517  10.359  12.368   0.883
39874SOL     OW21518   8.930  14.016   7.546
39874SOL    HW121519   8.852  14.003   7.492
39874SOL    HW221520   8.992  13.950   7.515
39875SOL     OW21521   6.460  10.417   1.459
39875SOL    HW121522   6.379  10.378   1.491
39875SOL    HW221523   6.434  10.503   1.427
39876SOL     OW21524  12.654   8.592  12.013
39876SOL    HW121525  12.642   8.499  12.032
39876SOL    HW221526  12.746   8.600  11.986
39877SOL     OW21527   9.505   1.554  14.584
39877SOL    HW121528   9.438   1.515  14.529
39877SOL    HW221529   9.476   1.536  14.674
39878SOL     OW21530   1.989   1.879   2.126
39878SOL    HW121531   1.977   1.954   2.068
39878SOL    HW221532   1.920   1.887   2.192
39879SOL     OW21533  10.676   8.050   9.200
39879SOL    HW121534  10.706   8.053   9.291
39879SOL    HW221535  10.589   8.088   9.202
39880SOL     OW21536   1.797   6.700   9.937
39880SOL    HW121537   1.730   6.666   9.996
39880SOL    HW221538   1.815   6.788   9.970
39881SOL     OW21539   8.739  14.159  10.282
39881SOL    HW121540   8.681  14.137  10.356
39881SOL    HW221541   8.692  14.226  10.234
39882SOL     OW21542   6.312   4.414   3.875
39882SOL    HW121543   6.365   4.375   3.944
39882SOL    HW221544   6.223   4.387   3.894
39883SOL     OW21545   1.500  10.517   7.139
39883SOL    HW121546   1.487  10.609   7.162
39883SOL    HW221547   1.539  10.478   7.217
39884SOL     OW21548  10.889   4.291   9.627
39884SOL    HW121549  10.960   4.247   9.580
39884SOL    HW221550  10.932   4.336   9.699
39885SOL     OW21551  10.449   5.873   3.827
39885SOL    HW121552  10.371   5.819   3.818
39885SOL    HW221553  10.520   5.817   3.794
39886SOL     OW21554  11.042   2.901   7.803
39886SOL    HW121555  11.054   2.964   7.874
39886SOL    HW221556  10.962   2.854   7.826
39887SOL     OW21557   9.585   0.976   7.639
39887SOL    HW121558   9.667   0.978   7.591
39887SOL    HW221559   9.580   0.887   7.674
39888SOL     OW21560  10.023  11.636   3.878
39888SOL    HW121561   9.933  11.624   3.849
39888SOL    HW221562  10.039  11.730   3.870
39889SOL     OW21563  14.273   0.864  12.761
39889SOL    HW121564  14.206   0.868  12.692
39889SOL    HW221565  14.337   0.801  12.728
39890SOL     OW21566   3.889   3.552   0.494
39890SOL    HW121567   3.852   3.467   0.469
39890SOL    HW221568   3.828   3.616   0.456
39891SOL     OW21569  14.057  14.301   8.090
39891SOL    HW121570  14.030  14.211   8.075
39891SOL    HW221571  13.988  14.338   8.146
39892SOL     OW21572   1.484  12.209   5.280
39892SOL    HW121573   1.507  12.120   5.308
39892SOL    HW221574   1.522  12.265   5.348
39893SOL     OW21575   7.169  12.437   1.174
39893SOL    HW121576   7.101  12.505   1.182
39893SOL    HW221577   7.194  12.418   1.265
39894SOL     OW21578  12.170   2.333   8.570
39894SOL    HW121579  12.216   2.272   8.628
39894SOL    HW221580  12.078   2.312   8.583
39895SOL     OW21581   2.852  11.069   1.840
39895SOL    HW121582   2.860  11.086   1.746
39895SOL    HW221583   2.767  11.027   1.850
39896SOL     OW21584  12.312  12.955   7.219
39896SOL    HW121585  12.406  12.936   7.221
39896SOL    HW221586  12.307  13.048   7.197
39897SOL     OW21587  13.740   6.199  11.510
39897SOL    HW121588  13.746   6.139  11.584
39897SOL    HW221589  13.831   6.224  11.491
39898SOL     OW21590   6.009   0.608  12.098
39898SOL    HW121591   5.920   0.586  12.071
39898SOL    HW221592   6.048   0.525  12.125
39899SOL     OW21593   9.331  12.625  12.922
39899SOL    HW121594   9.377  12.542  12.907
39899SOL    HW221595   9.381  12.667  12.992
39900SOL     OW21596   4.617   2.261   2.301
39900SOL    HW121597   4.550   2.223   2.243
39900SOL    HW221598   4.624   2.199   2.373
39901SOL     OW21599   3.498   0.668  11.189
39901SOL    HW121600   3.456   0.690  11.272
39901SOL    HW221601   3.499   0.750  11.140
39902SOL     OW21602  10.397   0.158   1.773
39902SOL    HW121603  10.392   0.064   1.753
39902SOL    HW221604  10.340   0.199   1.708
39903SOL     OW21605   5.822  13.863  13.232
39903SOL    HW121606   5.732  13.895  13.230
39903SOL    HW221607   5.819  13.785  13.287
39904SOL     OW21608   0.909   5.591   9.459
39904SOL    HW121609   0.873   5.650   9.526
39904SOL    HW221610   1.003   5.594   9.473
39905SOL     OW21611   2.918   1.940   3.784
39905SOL    HW121612   2.915   1.857   3.830
39905SOL    HW221613   3.008   1.944   3.749
39906SOL     OW21614   7.259   0.235   6.548
39906SOL    HW121615   7.350   0.248   6.575
39906SOL    HW221616   7.227   0.322   6.527
39907SOL     OW21617   6.190   8.476   3.617
39907SOL    HW121618   6.240   8.400   3.647
39907SOL    HW221619   6.176   8.461   3.524
39908SOL     OW21620  12.740  12.510   0.607
39908SOL    HW121621  12.710  12.592   0.645
39908SOL    HW221622  12.812  12.536   0.549
39909SOL     OW21623   2.167   5.911   0.265
39909SOL    HW121624   2.145   5.989   0.316
39909SOL    HW221625   2.263   5.908   0.268
39910SOL     OW21626  10.258  12.567  10.769
39910SOL    HW121627  10.234  12.476  10.758
39910SOL    HW221628  10.316  12.568  10.846
39911SOL     OW21629   5.628  11.605   6.885
39911SOL    HW121630   5.669  11.552   6.816
39911SOL    HW221631   5.677  11.583   6.964
39912SOL     OW21632  12.185  10.534  10.158
39912SOL    HW121633  12.238  10.459  10.131
39912SOL    HW221634  12.148  10.568  10.077
39913SOL     OW21635  13.442   2.390   1.797
39913SOL    HW121636  13.359   2.370   1.840
39913SOL    HW221637  13.428   2.474   1.754
39914SOL     OW21638   7.530   9.453   4.655
39914SOL    HW121639   7.608   9.416   4.614
39914SOL    HW221640   7.514   9.396   4.730
39915SOL     OW21641  11.664   4.232   7.502
39915SOL    HW121642  11.737   4.277   7.458
39915SOL    HW221643  11.590   4.244   7.443
39916SOL     OW21644  12.324   7.172   4.477
39916SOL    HW121645  12.328   7.209   4.389
39916SOL    HW221646  12.239   7.199   4.511
39917SOL     OW21647   8.308   2.300   1.100
39917SOL    HW121648   8.346   2.222   1.139
39917SOL    HW221649   8.246   2.267   1.035
39918SOL     OW21650   8.782  11.766  13.409
39918SOL    HW121651   8.717  11.823  13.452
39918SOL    HW221652   8.730  11.696  13.371
39919SOL     OW21653   6.289  11.030   1.012
39919SOL    HW121654   6.333  11.112   0.988
39919SOL    HW221655   6.358  10.976   1.050
39920SOL     OW21656   2.932   6.246   9.446
39920SOL    HW121657   2.891   6.332   9.457
39920SOL    HW221658   2.880   6.203   9.379
39921SOL     OW21659  13.745   8.702  13.845
39921SOL    HW121660  13.678   8.647  13.886
39921SOL    HW221661  13.724   8.699  13.751
39922SOL     OW21662   3.257   2.478  13.903
39922SOL    HW121663   3.312   2.449  13.831
39922SOL    HW221664   3.290   2.565  13.926
39923SOL     OW21665  14.470  14.731  10.852
39923SOL    HW121666  14.422  14.651  10.829
39923SOL    HW221667  14.539  14.737  10.786
39924SOL     OW21668   5.807   5.640  13.860
39924SOL    HW121669   5.889   5.646  13.811
39924SOL    HW221670   5.819   5.564  13.917
39925SOL     OW21671   7.321   5.360   3.519
39925SOL    HW121672   7.406   5.331   3.486
39925SOL    HW221673   7.308   5.446   3.479
39926SOL     OW21674   0.262   1.806   1.540
39926SOL    HW121675   0.196   1.737   1.533
39926SOL    HW221676   0.336   1.763   1.582
39927SOL     OW21677   3.583   9.830   2.364
39927SOL    HW121678   3.596   9.918   2.400
39927SOL    HW221679   3.653   9.778   2.404
39928SOL     OW21680   2.592   7.555   5.433
39928SOL    HW121681   2.576   7.645   5.404
39928SOL    HW221682   2.564   7.554   5.524
39929SOL     OW21683   4.737  13.456   1.075
39929SOL    HW121684   4.822  13.414   1.080
39929SOL    HW221685   4.699  13.446   1.163
39930SOL     OW21686   2.149   8.746  14.586
39930SOL    HW121687   2.155   8.770  14.494
39930SOL    HW221688   2.188   8.659  14.591
39931SOL     OW21689  13.764  10.775   6.244
39931SOL    HW121690  13.850  10.794   6.206
39931SOL    HW221691  13.782  10.718   6.319
39932SOL     OW21692  14.659  14.097   5.696
39932SOL    HW121693  14.639  14.103   5.789
39932SOL    HW221694  14.726  14.029   5.690
39933SOL     OW21695   0.587   7.568  11.353
39933SOL    HW121696   0.680   7.547  11.361
39933SOL    HW221697   0.584   7.664  11.349
39934SOL     OW21698  12.156   5.063  11.609
39934SOL    HW121699  12.193   5.143  11.574
39934SOL    HW221700  12.145   5.006  11.533
39935SOL     OW21701  13.173   9.830   9.239
39935SOL    HW121702  13.128   9.754   9.274
39935SOL    HW221703  13.198   9.805   9.150
39936SOL     OW21704  10.227   2.231  10.204
39936SOL    HW121705  10.193   2.315  10.175
39936SOL    HW221706  10.317   2.250  10.231
39937SOL     OW21707   8.864   4.929   5.049
39937SOL    HW121708   8.890   5.018   5.074
39937SOL    HW221709   8.789   4.909   5.105
39938SOL     OW21710   1.553   3.387  13.432
39938SOL    HW121711   1.505   3.392  13.515
39938SOL    HW221712   1.544   3.296  13.405
39939SOL     OW21713   3.947   6.259   1.428
39939SOL    HW121714   3.961   6.323   1.358
39939SOL    HW221715   4.020   6.198   1.420
39940SOL     OW21716  14.016   5.157   4.243
39940SOL    HW121717  14.099   5.115   4.266
39940SOL    HW221718  13.955   5.084   4.230
39941SOL     OW21719  10.508   3.253   1.955
39941SOL    HW121720  10.448   3.283   1.886
39941SOL    HW221721  10.453   3.199   2.012
39942SOL     OW21722   6.982  14.418  11.791
39942SOL    HW121723   7.042  14.344  11.799
39942SOL    HW221724   6.923  14.393  11.719
39943SOL     OW21725   7.711  11.809   5.342
39943SOL    HW121726   7.657  11.865   5.397
39943SOL    HW221727   7.799  11.818   5.379
39944SOL     OW21728   6.671   0.293   4.354
39944SOL    HW121729   6.618   0.354   4.405
39944SOL    HW221730   6.761   0.306   4.387
39945SOL     OW21731   4.019   5.748   4.896
39945SOL    HW121732   4.060   5.692   4.963
39945SOL    HW221733   3.983   5.822   4.945
39946SOL     OW21734  11.884  11.905  14.242
39946SOL    HW121735  11.954  11.866  14.295
39946SOL    HW221736  11.834  11.829  14.211
39947SOL     OW21737   6.512   8.479  12.954
39947SOL    HW121738   6.519   8.464  12.860
39947SOL    HW221739   6.537   8.395  12.993
39948SOL     OW21740  13.643   5.079   3.664
39948SOL    HW121741  13.553   5.110   3.652
39948SOL    HW221742  13.694   5.159   3.678
39949SOL     OW21743   9.210  10.903   2.548
39949SOL    HW121744   9.196  10.962   2.474
39949SOL    HW221745   9.201  10.815   2.511
39950SOL     OW21746   3.253   6.689   3.385
39950SOL    HW121747   3.268   6.605   3.427
39950SOL    HW221748   3.258   6.670   3.291
39951SOL     OW21749  10.433   3.591   1.774
39951SOL    HW121750  10.432   3.566   1.682
39951SOL    HW221751  10.458   3.683   1.774
39952SOL     OW21752   6.053  11.954  10.182
39952SOL    HW121753   6.012  11.963  10.267
39952SOL    HW221754   6.137  11.911  10.200
39953SOL     OW21755   7.915  11.866   4.810
39953SOL    HW121756   7.917  11.835   4.901
39953SOL    HW221757   7.849  11.935   4.811
39954SOL     OW21758  14.709  13.409  11.316
39954SOL    HW121759  14.793  13.432  11.275
39954SOL    HW221760  14.729  13.404  11.410
39955SOL     OW21761   1.294   6.057   8.049
39955SOL    HW121762   1.320   6.095   7.965
39955SOL    HW221763   1.334   5.970   8.050
39956SOL     OW21764  12.135   8.598   1.945
39956SOL    HW121765  12.117   8.544   1.869
39956SOL    HW221766  12.074   8.567   2.012
39957SOL     OW21767  10.510   0.259   3.794
39957SOL    HW121768  10.511   0.349   3.828
39957SOL    HW221769  10.603   0.236   3.786
39958SOL     OW21770   7.002   5.700   1.040
39958SOL    HW121771   6.965   5.688   0.953
39958SOL    HW221772   6.981   5.791   1.062
39959SOL     OW21773   8.001  14.382   2.060
39959SOL    HW121774   8.009  14.477   2.074
39959SOL    HW221775   7.978  14.347   2.146
39960SOL     OW21776   8.283   3.552  11.839
39960SOL    HW121777   8.321   3.612  11.775
39960SOL    HW221778   8.309   3.588  11.924
39961SOL     OW21779   9.623   9.089   1.285
39961SOL    HW121780   9.576   9.014   1.323
39961SOL    HW221781   9.706   9.052   1.255
39962SOL     OW21782   0.097   1.561   1.517
39962SOL    HW121783   0.107   1.469   1.543
39962SOL    HW221784   0.021   1.560   1.458
39963SOL     OW21785  12.248   2.710   2.609
39963SOL    HW121786  12.218   2.697   2.518
39963SOL    HW221787  12.199   2.786   2.639
39964SOL     OW21788   6.805   4.000   7.748
39964SOL    HW121789   6.711   4.016   7.744
39964SOL    HW221790   6.844   4.087   7.752
39965SOL     OW21791  10.981  12.803   9.673
39965SOL    HW121792  10.927  12.724   9.680
39965SOL    HW221793  10.935  12.859   9.610
39966SOL     OW21794  10.614   6.991   4.390
39966SOL    HW121795  10.576   7.062   4.441
39966SOL    HW221796  10.545   6.967   4.327
39967SOL     OW21797   2.410  10.965   6.048
39967SOL    HW121798   2.351  10.889   6.046
39967SOL    HW221799   2.382  11.019   5.974
39968SOL     OW21800   8.307  11.379   8.845
39968SOL    HW121801   8.284  11.361   8.754
39968SOL    HW221802   8.394  11.342   8.856
39969SOL     OW21803   9.650   3.495  10.105
39969SOL    HW121804   9.707   3.440  10.159
39969SOL    HW221805   9.657   3.457  10.017
39970SOL     OW21806   0.719   8.453  11.495
39970SOL    HW121807   0.734   8.548  11.495
39970SOL    HW221808   0.751   8.424  11.410
39971SOL     OW21809   1.439  11.336  12.789
39971SOL    HW121810   1.413  11.256  12.742
39971SOL    HW221811   1.422  11.316  12.881
39972SOL     OW21812  11.236   6.869   4.684
39972SOL    HW121813  11.162   6.871   4.745
39972SOL    HW221814  11.195   6.861   4.598
39973SOL     OW21815  10.716   8.571   8.147
39973SOL    HW121816  10.657   8.608   8.081
39973SOL    HW221817  10.775   8.514   8.098
39974SOL     OW21818  10.315  12.920   5.125
39974SOL    HW121819  10.370  12.926   5.047
39974SOL    HW221820  10.375  12.891   5.194
39975SOL     OW21821   2.391   4.167  10.147
39975SOL    HW121822   2.384   4.175  10.052
39975SOL    HW221823   2.474   4.121  10.161
39976SOL     OW21824   8.896  12.973   4.822
39976SOL    HW121825   8.991  12.980   4.838
39976SOL    HW221826   8.866  12.908   4.886
39977SOL     OW21827   8.747   2.341  12.017
39977SOL    HW121828   8.686   2.360  11.946
39977SOL    HW221829   8.777   2.252  11.999
39978SOL     OW21830   1.553   8.134  12.267
39978SOL    HW121831   1.467   8.172  12.251
39978SOL    HW221832   1.536   8.044  12.293
39979SOL     OW21833   9.000  14.264   1.401
39979SOL    HW121834   9.047  14.199   1.349
39979SOL    HW221835   9.068  14.311   1.449
39980SOL     OW21836  12.711   4.697   7.897
39980SOL    HW121837  12.618   4.718   7.902
39980SOL    HW221838  12.748   4.765   7.841
39981SOL     OW21839  10.489  11.987  12.288
39981SOL    HW121840  10.428  12.054  12.320
39981SOL    HW221841  10.526  12.026  12.209
39982SOL     OW21842   7.440   4.951   2.272
39982SOL    HW121843   7.488   4.871   2.249
39982SOL    HW221844   7.450   4.958   2.367
39983SOL     OW21845   9.551  12.351   9.243
39983SOL    HW121846   9.458  12.361   9.263
39983SOL    HW221847   9.561  12.257   9.225
39984SOL     OW21848   4.420   2.757   0.658
39984SOL    HW121849   4.375   2.746   0.742
39984SOL    HW221850   4.510   2.728   0.675
39985SOL     OW21851  11.358  12.286  11.006
39985SOL    HW121852  11.447  12.296  11.042
39985SOL    HW221853  11.303  12.340  11.063
39986SOL     OW21854   7.020   3.306  14.643
39986SOL    HW121855   7.085   3.360  14.598
39986SOL    HW221856   6.949   3.297  14.580
39987SOL     OW21857   8.682   9.442  11.002
39987SOL    HW121858   8.682   9.383  11.077
39987SOL    HW221859   8.590   9.443  10.973
39988SOL     OW21860  11.521  11.463   7.233
39988SOL    HW121861  11.516  11.375   7.196
39988SOL    HW221862  11.433  11.499   7.222
39989SOL     OW21863   4.888   1.490   1.865
39989SOL    HW121864   4.935   1.447   1.936
39989SOL    HW221865   4.925   1.578   1.861
39990SOL     OW21866   3.373   6.971   7.018
39990SOL    HW121867   3.408   6.882   7.006
39990SOL    HW221868   3.301   6.960   7.080
39991SOL     OW21869  11.621   0.630   6.014
39991SOL    HW121870  11.715   0.612   6.018
39991SOL    HW221871  11.615   0.726   6.021
39992SOL     OW21872   4.419   3.359   1.963
39992SOL    HW121873   4.491   3.297   1.950
39992SOL    HW221874   4.388   3.341   2.052
39993SOL     OW21875   0.524   0.066   8.769
39993SOL    HW121876   0.605   0.037   8.727
39993SOL    HW221877   0.477  14.865   8.789
39994SOL     OW21878  13.508   9.418   1.891
39994SOL    HW121879  13.493   9.389   1.801
39994SOL    HW221880  13.524   9.338   1.940
39995SOL     OW21881   7.736  11.407   0.680
39995SOL    HW121882   7.818  11.390   0.727
39995SOL    HW221883   7.761  11.470   0.612
39996SOL     OW21884   2.159   0.331  10.782
39996SOL    HW121885   2.102   0.370  10.847
39996SOL    HW221886   2.247   0.362  10.804
39997SOL     OW21887   4.986   4.054   4.435
39997SOL    HW121888   4.990   4.149   4.424
39997SOL    HW221889   4.893   4.032   4.421
39998SOL     OW21890   3.066  14.161   1.932
39998SOL    HW121891   3.139  14.212   1.966
39998SOL    HW221892   3.039  14.206   1.852
39999SOL     OW21893  13.623   9.061   4.838
39999SOL    HW121894  13.668   9.101   4.763
39999SOL    HW221895  13.622   9.129   4.905
40000SOL     OW21896  11.167   2.973   4.144
40000SOL    HW121897  11.259   2.981   4.170
40000SOL    HW221898  11.134   3.062   4.146
40001SOL     OW21899   8.540   2.838   5.458
40001SOL    HW121900   8.481   2.762   5.457
40001SOL    HW221901   8.510   2.892   5.385
40002SOL     OW21902  11.023   5.291  10.652
40002SOL    HW121903  11.083   5.291  10.577
40002SOL    HW221904  11.073   5.332  10.723
40003SOL     OW21905  10.235   1.761   2.295
40003SOL    HW121906  10.200   1.805   2.218
40003SOL    HW221907  10.301   1.821   2.329
40004SOL     OW21908   5.868   8.715   4.055
40004SOL    HW121909   5.872   8.644   4.120
40004SOL    HW221910   5.960   8.730   4.032
40005SOL     OW21911   4.531   5.296  14.151
40005SOL    HW121912   4.561   5.230  14.214
40005SOL    HW221913   4.596   5.366  14.157
40006SOL     OW21914  14.652   6.362   8.990
40006SOL    HW121915  14.727   6.398   9.037
40006SOL    HW221916  14.587   6.432   8.989
40007SOL     OW21917  11.488   0.297   3.662
40007SOL    HW121918  11.513   0.208   3.637
40007SOL    HW221919  11.514   0.305   3.753
40008SOL     OW21920  13.747  13.081   7.426
40008SOL    HW121921  13.673  13.021   7.433
40008SOL    HW221922  13.726  13.153   7.486
40009SOL     OW21923   7.673  12.428   3.086
40009SOL    HW121924   7.611  12.453   3.017
40009SOL    HW221925   7.666  12.497   3.151
40010SOL     OW21926  13.912   1.861  13.296
40010SOL    HW121927  13.961   1.913  13.359
40010SOL    HW221928  13.870   1.925  13.239
40011SOL     OW21929  13.246   0.429   8.786
40011SOL    HW121930  13.337   0.428   8.756
40011SOL    HW221931  13.195   0.441   8.706
40012SOL     OW21932   0.308  10.360   3.192
40012SOL    HW121933   0.326  10.271   3.222
40012SOL    HW221934   0.214  10.371   3.203
40013SOL     OW21935  10.670  10.018   9.024
40013SOL    HW121936  10.656   9.934   9.067
40013SOL    HW221937  10.582  10.056   9.017
40014SOL     OW21938  14.049  13.737  12.424
40014SOL    HW121939  13.962  13.740  12.463
40014SOL    HW221940  14.057  13.819  12.376
40015SOL     OW21941   3.616   7.122  11.088
40015SOL    HW121942   3.594   7.200  11.138
40015SOL    HW221943   3.637   7.154  11.001
40016SOL     OW21944  13.111   8.130   5.501
40016SOL    HW121945  13.047   8.133   5.430
40016SOL    HW221946  13.073   8.185   5.570
40017SOL     OW21947   2.208  12.447  12.273
40017SOL    HW121948   2.235  12.381  12.338
40017SOL    HW221949   2.285  12.501  12.260
40018SOL     OW21950   6.088  13.077   8.557
40018SOL    HW121951   6.079  12.992   8.599
40018SOL    HW221952   6.182  13.095   8.557
40019SOL     OW21953   4.445  12.464   5.984
40019SOL    HW121954   4.462  12.376   6.016
40019SOL    HW221955   4.359  12.486   6.018
40020SOL     OW21956   3.222  12.280   7.667
40020SOL    HW121957   3.277  12.357   7.649
40020SOL    HW221958   3.257  12.245   7.749
40021SOL     OW21959   8.706   3.761  11.799
40021SOL    HW121960   8.704   3.668  11.773
40021SOL    HW221961   8.798   3.786  11.788
40022SOL     OW21962  11.071   5.858  10.117
40022SOL    HW121963  11.035   5.946  10.103
40022SOL    HW221964  11.015   5.801  10.065
40023SOL     OW21965  12.177   0.950   1.540
40023SOL    HW121966  12.249   1.007   1.514
40023SOL    HW221967  12.107   1.010   1.568
40024SOL     OW21968  13.921  12.859  13.423
40024SOL    HW121969  13.916  12.954  13.422
40024SOL    HW221970  13.980  12.838  13.495
40025SOL     OW21971  11.004   1.599   4.851
40025SOL    HW121972  11.063   1.594   4.926
40025SOL    HW221973  10.942   1.527   4.863
40026SOL     OW21974   5.662   1.525  10.722
40026SOL    HW121975   5.751   1.542  10.690
40026SOL    HW221976   5.648   1.591  10.790
40027SOL     OW21977   1.355   9.086   6.340
40027SOL    HW121978   1.384   9.022   6.404
40027SOL    HW221979   1.367   9.043   6.255
40028SOL     OW21980   2.667   8.058   5.068
40028SOL    HW121981   2.717   7.976   5.068
40028SOL    HW221982   2.724   8.121   5.113
40029SOL     OW21983  12.057  14.065   6.255
40029SOL    HW121984  12.057  14.016   6.337
40029SOL    HW221985  12.049  13.998   6.187
40030SOL     OW21986   4.629   0.245   4.794
40030SOL    HW121987   4.596   0.254   4.705
40030SOL    HW221988   4.692   0.174   4.790
40031SOL     OW21989   7.794   4.111  10.857
40031SOL    HW121990   7.809   4.198  10.893
40031SOL    HW221991   7.718   4.122  10.800
40032SOL     OW21992   5.130   9.840  10.239
40032SOL    HW121993   5.213   9.809  10.276
40032SOL    HW221994   5.076   9.859  10.315
40033SOL     OW21995   7.875   6.450  14.178
40033SOL    HW121996   7.965   6.438  14.208
40033SOL    HW221997   7.884   6.480  14.087
40034SOL     OW21998   0.259  10.000   4.793
40034SOL    HW121999   0.193   9.990   4.861
40034SOL    HW222000   0.307   9.917   4.793
40035SOL     OW22001   3.168   9.809   9.097
40035SOL    HW122002   3.196   9.839   9.184
40035SOL    HW222003   3.172   9.713   9.103
40036SOL     OW22004   1.937   9.034  10.084
40036SOL    HW122005   1.877   8.963  10.107
40036SOL    HW222006   1.901   9.111  10.127
40037SOL     OW22007  13.491   6.075   7.216
40037SOL    HW122008  13.504   6.105   7.126
40037SOL    HW222009  13.537   6.140   7.270
40038SOL     OW22010   1.733   5.974   1.898
40038SOL    HW122011   1.763   6.022   1.975
40038SOL    HW222012   1.795   6.000   1.829
40039SOL     OW22013   9.974   0.040   4.137
40039SOL    HW122014   9.964   0.122   4.186
40039SOL    HW222015  10.060   0.007   4.163
40040SOL     OW22016   4.085   5.163   9.509
40040SOL    HW122017   4.173   5.138   9.538
40040SOL    HW222018   4.037   5.181   9.590
40041SOL     OW22019   0.476  11.830   0.158
40041SOL    HW122020   0.477  11.792   0.070
40041SOL    HW222021   0.470  11.924   0.143
40042SOL     OW22022   8.218  11.069   7.154
40042SOL    HW122023   8.299  11.041   7.111
40042SOL    HW222024   8.235  11.056   7.247
40043SOL     OW22025   2.848   5.765   8.960
40043SOL    HW122026   2.792   5.760   8.882
40043SOL    HW222027   2.834   5.682   9.005
40044SOL     OW22028   7.765   2.887   9.349
40044SOL    HW122029   7.678   2.853   9.327
40044SOL    HW222030   7.824   2.813   9.335
40045SOL     OW22031   1.037   2.976   5.688
40045SOL    HW122032   1.072   3.018   5.766
40045SOL    HW222033   0.942   2.984   5.696
40046SOL     OW22034   3.069   5.417  11.277
40046SOL    HW122035   3.120   5.357  11.222
40046SOL    HW222036   2.977   5.394  11.259
40047SOL     OW22037  11.940  11.546   2.102
40047SOL    HW122038  12.017  11.589   2.138
40047SOL    HW222039  11.916  11.480   2.167
40048SOL     OW22040   0.895  13.537   4.203
40048SOL    HW122041   0.930  13.504   4.286
40048SOL    HW222042   0.938  13.485   4.136
40049SOL     OW22043   9.865   2.146   2.746
40049SOL    HW122044   9.873   2.214   2.813
40049SOL    HW222045   9.834   2.069   2.794
40050SOL     OW22046   7.188   5.769  11.082
40050SOL    HW122047   7.227   5.758  11.168
40050SOL    HW222048   7.112   5.709  11.083
40051SOL     OW22049   8.668  11.526   1.582
40051SOL    HW122050   8.738  11.461   1.574
40051SOL    HW222051   8.706  11.607   1.548
40052SOL     OW22052  13.376  11.690   5.281
40052SOL    HW122053  13.380  11.712   5.374
40052SOL    HW222054  13.439  11.748   5.239
40053SOL     OW22055  11.630  10.330  12.650
40053SOL    HW122056  11.703  10.344  12.710
40053SOL    HW222057  11.639  10.238  12.624
40054SOL     OW22058  11.891  11.869  11.921
40054SOL    HW122059  11.797  11.882  11.907
40054SOL    HW222060  11.932  11.903  11.842
40055SOL     OW22061  13.813   4.786   2.543
40055SOL    HW122062  13.800   4.870   2.586
40055SOL    HW222063  13.801   4.721   2.612
40056SOL     OW22064   1.342   8.352   5.951
40056SOL    HW122065   1.304   8.435   5.922
40056SOL    HW222066   1.366   8.306   5.871
40057SOL     OW22067  12.070  14.323  14.572
40057SOL    HW122068  12.128  14.397  14.553
40057SOL    HW222069  11.989  14.343  14.526
40058SOL     OW22070  10.076   2.183   6.828
40058SOL    HW122071  10.069   2.279   6.821
40058SOL    HW222072  10.161   2.163   6.791
40059SOL     OW22073   3.926  10.557  14.061
40059SOL    HW122074   3.959  10.521  13.979
40059SOL    HW222075   3.951  10.649  14.059
40060SOL     OW22076   2.037   1.531   1.303
40060SOL    HW122077   2.125   1.561   1.281
40060SOL    HW222078   1.988   1.541   1.222
40061SOL     OW22079   9.184   8.763   6.336
40061SOL    HW122080   9.274   8.785   6.312
40061SOL    HW222081   9.185   8.667   6.345
40062SOL     OW22082  13.607  11.520  11.146
40062SOL    HW122083  13.596  11.613  11.128
40062SOL    HW222084  13.585  11.476  11.064
40063SOL     OW22085   6.705  11.017   5.738
40063SOL    HW122086   6.642  10.953   5.771
40063SOL    HW222087   6.656  11.064   5.670
40064SOL     OW22088   7.325   3.532  14.729
40064SOL    HW122089   7.411   3.552  14.693
40064SOL    HW222090   7.277   3.490  14.658
40065SOL     OW22091   1.612  14.092   8.576
40065SOL    HW122092   1.619  14.106   8.481
40065SOL    HW222093   1.518  14.094   8.593
40066SOL     OW22094  11.474  13.270   0.824
40066SOL    HW122095  11.392  13.291   0.779
40066SOL    HW222096  11.516  13.205   0.768
40067SOL     OW22097  10.726   1.502  14.207
40067SOL    HW122098  10.651   1.442  14.201
40067SOL    HW222099  10.799   1.453  14.170
40068SOL     OW22100   5.408   9.978  12.864
40068SOL    HW122101   5.501   9.959  12.863
40068SOL    HW222102   5.379   9.962  12.774
40069SOL     OW22103  10.699   0.177   0.959
40069SOL    HW122104  10.640   0.214   1.025
40069SOL    HW222105  10.786   0.199   0.991
40070SOL     OW22106   6.898  11.425   5.932
40070SOL    HW122107   6.887  11.368   6.008
40070SOL    HW222108   6.902  11.513   5.969
40071SOL     OW22109   1.069   8.417   9.768
40071SOL    HW122110   1.009   8.446   9.836
40071SOL    HW222111   1.025   8.438   9.686
40072SOL     OW22112  11.306   3.012   4.398
40072SOL    HW122113  11.325   3.020   4.492
40072SOL    HW222114  11.220   3.055   4.388
40073SOL     OW22115   5.260  14.863   4.469
40073SOL    HW122116   5.211   0.060   4.501
40073SOL    HW222117   5.206  14.788   4.496
40074SOL     OW22118   3.523  13.639  13.040
40074SOL    HW122119   3.509  13.671  12.951
40074SOL    HW222120   3.603  13.586  13.035
40075SOL     OW22121  13.343   8.476   4.235
40075SOL    HW122122  13.381   8.413   4.174
40075SOL    HW222123  13.412   8.494   4.299
40076SOL     OW22124  10.085  11.538  14.542
40076SOL    HW122125  10.146  11.514  14.612
40076SOL    HW222126  10.083  11.633  14.545
40077SOL     OW22127  13.922   4.248  10.338
40077SOL    HW122128  13.903   4.272  10.247
40077SOL    HW222129  14.006   4.289  10.357
40078SOL     OW22130   9.463   0.029   5.287
40078SOL    HW122131   9.423   0.106   5.328
40078SOL    HW222132   9.557   0.045   5.293
40079SOL     OW22133  12.595   1.629   6.449
40079SOL    HW122134  12.502   1.606   6.445
40079SOL    HW222135  12.615   1.664   6.362
40080SOL     OW22136   1.226  11.868   4.037
40080SOL    HW122137   1.136  11.866   4.069
40080SOL    HW222138   1.219  11.900   3.948
40081SOL     OW22139   4.720   1.637   6.618
40081SOL    HW122140   4.790   1.625   6.554
40081SOL    HW222141   4.679   1.552   6.626
40082SOL     OW22142  12.595   8.073   0.040
40082SOL    HW122143  12.671   8.129   0.021
40082SOL    HW222144  12.570   8.095   0.129
40083SOL     OW22145  10.889  11.432   3.761
40083SOL    HW122146  10.815  11.434   3.700
40083SOL    HW222147  10.950  11.497   3.727
40084SOL     OW22148  11.463   5.644  13.026
40084SOL    HW122149  11.479   5.553  13.051
40084SOL    HW222150  11.407   5.678  13.096
40085SOL     OW22151   3.712   1.797  12.610
40085SOL    HW122152   3.735   1.869  12.668
40085SOL    HW222153   3.791   1.743  12.606
40086SOL     OW22154  14.394   1.975   6.950
40086SOL    HW122155  14.349   2.057   6.972
40086SOL    HW222156  14.487   1.995   6.960
40087SOL     OW22157  14.827   3.714   7.744
40087SOL    HW122158  14.860   3.672   7.665
40087SOL    HW222159  14.816   3.806   7.719
40088SOL     OW22160   0.445  13.400   9.367
40088SOL    HW122161   0.358  13.361   9.353
40088SOL    HW222162   0.427  13.488   9.399
40089SOL     OW22163   7.939   9.836   1.212
40089SOL    HW122164   7.864   9.786   1.243
40089SOL    HW222165   7.913   9.867   1.125
40090SOL     OW22166   0.531  12.358  12.386
40090SOL    HW122167   0.578  12.391  12.310
40090SOL    HW222168   0.446  12.330  12.351
40091SOL     OW22169  11.851   3.250  14.694
40091SOL    HW122170  11.878   3.158  14.702
40091SOL    HW222171  11.791   3.250  14.619
40092SOL     OW22172   6.791  14.227   8.703
40092SOL    HW122173   6.856  14.290   8.670
40092SOL    HW222174   6.844  14.154   8.736
40093SOL     OW22175   3.793   0.075   2.576
40093SOL    HW122176   3.882   0.091   2.544
40093SOL    HW222177   3.775  14.864   2.553
40094SOL     OW22178   3.737  13.156  14.500
40094SOL    HW122179   3.709  13.248  14.502
40094SOL    HW222180   3.791  13.150  14.421
40095SOL     OW22181   7.511  13.983  11.339
40095SOL    HW122182   7.448  13.911  11.337
40095SOL    HW222183   7.583  13.953  11.283
40096SOL     OW22184   3.136   7.352  10.255
40096SOL    HW122185   3.139   7.274  10.310
40096SOL    HW222186   3.224   7.391  10.264
40097SOL     OW22187   2.865  14.106  11.176
40097SOL    HW122188   2.777  14.095  11.213
40097SOL    HW222189   2.910  14.025  11.199
40098SOL     OW22190   9.946   8.875   4.367
40098SOL    HW122191   9.877   8.828   4.320
40098SOL    HW222192   9.916   8.878   4.458
40099SOL     OW22193   8.732   0.887   1.563
40099SOL    HW122194   8.739   0.883   1.468
40099SOL    HW222195   8.787   0.815   1.594
40100SOL     OW22196   9.311   1.572  12.316
40100SOL    HW122197   9.227   1.542  12.351
40100SOL    HW222198   9.376   1.536  12.377
40101SOL     OW22199   6.847   7.298   8.863
40101SOL    HW122200   6.796   7.375   8.886
40101SOL    HW222201   6.782   7.231   8.844
40102SOL     OW22202  10.518   7.275  11.179
40102SOL    HW122203  10.579   7.332  11.225
40102SOL    HW222204  10.520   7.307  11.088
40103SOL     OW22205   6.659   8.499   3.726
40103SOL    HW122206   6.578   8.474   3.682
40103SOL    HW222207   6.691   8.574   3.676
40104SOL     OW22208  10.453   2.045   0.686
40104SOL    HW122209  10.409   2.000   0.758
40104SOL    HW222210  10.388   2.046   0.615
40105SOL     OW22211  14.137   3.215  13.400
40105SOL    HW122212  14.074   3.260  13.344
40105SOL    HW222213  14.133   3.261  13.484
40106SOL     OW22214  13.514  13.970  14.719
40106SOL    HW122215  13.609  13.962  14.725
40106SOL    HW222216  13.486  13.887  14.681
40107SOL     OW22217   9.572   7.020   1.065
40107SOL    HW122218   9.529   7.075   1.132
40107SOL    HW222219   9.599   6.941   1.112
40108SOL     OW22220  11.816   8.084   6.349
40108SOL    HW122221  11.760   8.064   6.274
40108SOL    HW222222  11.813   8.006   6.403
40109SOL     OW22223   1.902  10.449   8.285
40109SOL    HW122224   1.910  10.368   8.337
40109SOL    HW222225   1.808  10.468   8.286
40110SOL     OW22226   4.606   8.315   5.314
40110SOL    HW122227   4.644   8.270   5.389
40110SOL    HW222228   4.514   8.288   5.314
40111SOL     OW22229   3.562   9.229   9.133
40111SOL    HW122230   3.561   9.135   9.114
40111SOL    HW222231   3.648   9.259   9.102
40112SOL     OW22232  13.176   8.870   4.864
40112SOL    HW122233  13.212   8.958   4.874
40112SOL    HW222234  13.253   8.813   4.863
40113SOL     OW22235   5.555  13.310   9.106
40113SOL    HW122236   5.508  13.333   9.185
40113SOL    HW222237   5.487  13.285   9.043
40114SOL     OW22238   6.391  12.757  10.386
40114SOL    HW122239   6.313  12.701  10.382
40114SOL    HW222240   6.375  12.825  10.320
40115SOL     OW22241   6.634  14.485  11.656
40115SOL    HW122242   6.673  14.398  11.642
40115SOL    HW222243   6.557  14.485  11.599
40116SOL     OW22244  10.869   1.168   7.007
40116SOL    HW122245  10.868   1.123   6.923
40116SOL    HW222246  10.782   1.152   7.044
40117SOL     OW22247  12.677   4.943   0.259
40117SOL    HW122248  12.644   5.020   0.213
40117SOL    HW222249  12.696   4.879   0.190
40118SOL     OW22250  12.179   8.033   5.190
40118SOL    HW122251  12.112   8.012   5.254
40118SOL    HW222252  12.228   8.105   5.229
40119SOL     OW22253   5.696   5.539   2.922
40119SOL    HW122254   5.730   5.571   2.838
40119SOL    HW222255   5.772   5.496   2.962
40120SOL     OW22256   3.009   1.721  12.630
40120SOL    HW122257   3.095   1.760  12.645
40120SOL    HW222258   2.956   1.793  12.596
40121SOL     OW22259   1.524   9.145   1.207
40121SOL    HW122260   1.562   9.073   1.259
40121SOL    HW222261   1.580   9.220   1.227
40122SOL     OW22262   2.657  12.117   0.369
40122SOL    HW122263   2.566  12.117   0.340
40122SOL    HW222264   2.657  12.175   0.446
40123SOL     OW22265   0.490   8.729   0.083
40123SOL    HW122266   0.401   8.713   0.114
40123SOL    HW222267   0.485   8.717  14.867
40124SOL     OW22268   5.446  14.583   1.203
40124SOL    HW122269   5.475  14.492   1.205
40124SOL    HW222270   5.383  14.589   1.275
40125SOL     OW22271   0.632   3.706  12.496
40125SOL    HW122272   0.718   3.710  12.537
40125SOL    HW222273   0.642   3.639  12.428
40126SOL     OW22274   5.696   0.838   6.108
40126SOL    HW122275   5.723   0.830   6.016
40126SOL    HW222276   5.602   0.859   6.103
40127SOL     OW22277   6.232   5.289  11.941
40127SOL    HW122278   6.139   5.309  11.933
40127SOL    HW222279   6.241   5.201  11.905
40128SOL     OW22280   0.151   8.482  10.655
40128SOL    HW122281   0.139   8.544  10.584
40128SOL    HW222282   0.243   8.492  10.681
40129SOL     OW22283  12.589   2.735   9.989
40129SOL    HW122284  12.494   2.735   9.985
40129SOL    HW222285  12.609   2.743  10.082
40130SOL     OW22286  12.752  13.394  10.158
40130SOL    HW122287  12.806  13.334  10.208
40130SOL    HW222288  12.706  13.338  10.095
40131SOL     OW22289   7.219   9.877  13.061
40131SOL    HW122290   7.158   9.820  13.014
40131SOL    HW222291   7.203   9.859  13.153
40132SOL     OW22292  13.949   9.875  10.530
40132SOL    HW122293  13.947   9.873  10.626
40132SOL    HW222294  13.964   9.784  10.505
40133SOL     OW22295   1.937  12.061  11.491
40133SOL    HW122296   1.948  11.988  11.552
40133SOL    HW222297   1.843  12.081  11.495
40134SOL     OW22298   4.894  13.421   3.515
40134SOL    HW122299   4.930  13.410   3.603
40134SOL    HW222300   4.902  13.335   3.474
40135SOL     OW22301   5.118  10.436   4.477
40135SOL    HW122302   5.195  10.382   4.460
40135SOL    HW222303   5.105  10.486   4.397
40136SOL     OW22304  13.187   3.025   7.299
40136SOL    HW122305  13.099   3.021   7.337
40136SOL    HW222306  13.217   3.114   7.318
40137SOL     OW22307  14.344   8.737   0.088
40137SOL    HW122308  14.280   8.713   0.155
40137SOL    HW222309  14.298   8.723   0.005
40138SOL     OW22310  14.762   7.016  14.395
40138SOL    HW122311  14.677   6.981  14.369
40138SOL    HW222312  14.742   7.101  14.434
40139SOL     OW22313   6.953  14.625   0.049
40139SOL    HW122314   7.047  14.613   0.061
40139SOL    HW222315   6.933  14.576  14.849
40140SOL     OW22316   4.073   9.544   5.642
40140SOL    HW122317   4.022   9.585   5.572
40140SOL    HW222318   4.164   9.551   5.612
40141SOL     OW22319  10.882   4.406   1.053
40141SOL    HW122320  10.966   4.366   1.073
40141SOL    HW222321  10.903   4.496   1.029
40142SOL     OW22322   1.834   0.057  13.418
40142SOL    HW122323   1.891   0.063  13.341
40142SOL    HW222324   1.852   0.137  13.467
40143SOL     OW22325   6.677  12.505  10.242
40143SOL    HW122326   6.682  12.418  10.203
40143SOL    HW222327   6.750  12.508  10.304
40144SOL     OW22328   8.608   9.871   2.980
40144SOL    HW122329   8.535   9.857   3.040
40144SOL    HW222330   8.567   9.898   2.898
40145SOL     OW22331   0.334  12.159   2.442
40145SOL    HW122332   0.265  12.198   2.389
40145SOL    HW222333   0.368  12.087   2.389
40146SOL     OW22334   2.474   9.057  14.733
40146SOL    HW122335   2.536   9.090  14.798
40146SOL    HW222336   2.407   9.124  14.727
40147SOL     OW22337   2.078   0.070   5.730
40147SOL    HW122338   2.158   0.019   5.716
40147SOL    HW222339   2.078   0.134   5.659
40148SOL     OW22340   9.368   7.397  14.685
40148SOL    HW122341   9.326   7.354  14.610
40148SOL    HW222342   9.302   7.395  14.754
40149SOL     OW22343  10.819   8.309   9.948
40149SOL    HW122344  10.861   8.371  10.008
40149SOL    HW222345  10.891   8.276   9.894
40150SOL     OW22346  10.769   5.957   1.641
40150SOL    HW122347  10.686   5.941   1.687
40150SOL    HW222348  10.836   5.926   1.701
40151SOL     OW22349  10.081   7.001   7.341
40151SOL    HW122350  10.061   7.088   7.377
40151SOL    HW222351  10.012   6.985   7.277
40152SOL     OW22352  11.726   6.302  13.628
40152SOL    HW122353  11.807   6.333  13.586
40152SOL    HW222354  11.738   6.207  13.635
40153SOL     OW22355   8.616   8.583   7.170
40153SOL    HW122356   8.621   8.591   7.075
40153SOL    HW222357   8.564   8.659   7.197
40154SOL     OW22358  11.734   0.434  11.383
40154SOL    HW122359  11.692   0.458  11.300
40154SOL    HW222360  11.745   0.339  11.378
40155SOL     OW22361   2.619  12.615   7.443
40155SOL    HW122362   2.540  12.588   7.395
40155SOL    HW222363   2.588  12.632   7.532
40156SOL     OW22364  11.525   3.083  10.381
40156SOL    HW122365  11.523   3.168  10.425
40156SOL    HW222366  11.535   3.019  10.451
40157SOL     OW22367  10.417   3.066   2.128
40157SOL    HW122368  10.339   3.036   2.173
40157SOL    HW222369  10.488   3.053   2.192
40158SOL     OW22370   1.203  12.497  13.009
40158SOL    HW122371   1.268  12.567  13.006
40158SOL    HW222372   1.133  12.526  12.950
40159SOL     OW22373  13.305  10.511   1.601
40159SOL    HW122374  13.266  10.458   1.532
40159SOL    HW222375  13.316  10.598   1.562
40160SOL     OW22376  11.728   3.077   5.334
40160SOL    HW122377  11.701   3.143   5.398
40160SOL    HW222378  11.688   2.996   5.365
40161SOL     OW22379   2.407  11.593  13.878
40161SOL    HW122380   2.417  11.686  13.897
40161SOL    HW222381   2.407  11.551  13.964
40162SOL     OW22382   8.522   0.174  10.015
40162SOL    HW122383   8.519   0.080   9.996
40162SOL    HW222384   8.528   0.179  10.111
40163SOL     OW22385   7.020   7.764   3.636
40163SOL    HW122386   7.052   7.807   3.556
40163SOL    HW222387   7.050   7.820   3.707
40164SOL     OW22388   5.677   8.478   6.047
40164SOL    HW122389   5.653   8.510   5.960
40164SOL    HW222390   5.768   8.450   6.038
40165SOL     OW22391  12.188  14.212   9.989
40165SOL    HW122392  12.249  14.158   9.938
40165SOL    HW222393  12.106  14.207   9.941
40166SOL     OW22394  14.112  12.761  13.929
40166SOL    HW122395  14.065  12.749  14.012
40166SOL    HW222396  14.159  12.679  13.916
40167SOL     OW22397   7.545   1.233   2.494
40167SOL    HW122398   7.619   1.173   2.489
40167SOL    HW222399   7.511   1.223   2.583
40168SOL     OW22400   7.778  13.140  12.326
40168SOL    HW122401   7.764  13.214  12.268
40168SOL    HW222402   7.726  13.069  12.287
40169SOL     OW22403  12.278   4.426   6.833
40169SOL    HW122404  12.203   4.389   6.878
40169SOL    HW222405  12.240   4.475   6.759
40170SOL     OW22406  14.312   6.300   1.941
40170SOL    HW122407  14.245   6.368   1.947
40170SOL    HW222408  14.272   6.232   1.887
40171SOL     OW22409   0.038   4.286   2.107
40171SOL    HW122410   0.084   4.202   2.096
40171SOL    HW222411   0.038   4.301   2.202
40172SOL     OW22412  10.280   1.731   1.708
40172SOL    HW122413  10.321   1.658   1.663
40172SOL    HW222414  10.280   1.803   1.645
40173SOL     OW22415  12.222  14.748   6.658
40173SOL    HW122416  12.144  14.795   6.628
40173SOL    HW222417  12.293  14.780   6.603
40174SOL     OW22418  10.336   2.350  10.841
40174SOL    HW122419  10.393   2.324  10.768
40174SOL    HW222420  10.323   2.270  10.891
40175SOL     OW22421  10.316   0.958   4.746
40175SOL    HW122422  10.371   0.895   4.699
40175SOL    HW222423  10.329   0.938   4.839
40176SOL     OW22424   3.929   6.034   6.132
40176SOL    HW122425   3.890   6.030   6.219
40176SOL    HW222426   3.934   5.943   6.104
40177SOL     OW22427   3.036  13.871  14.649
40177SOL    HW122428   3.089  13.939  14.607
40177SOL    HW222429   3.067  13.870  14.740
40178SOL     OW22430  10.887  13.091  11.244
40178SOL    HW122431  10.826  13.092  11.318
40178SOL    HW222432  10.869  13.171  11.196
40179SOL     OW22433  11.941  14.104   1.965
40179SOL    HW122434  11.866  14.088   2.022
40179SOL    HW222435  11.945  14.199   1.956
40180SOL     OW22436  13.844   4.838  10.478
40180SOL    HW122437  13.918   4.795  10.523
40180SOL    HW222438  13.877   4.855  10.390
40181SOL     OW22439  11.929  13.044  13.562
40181SOL    HW122440  11.889  13.096  13.493
40181SOL    HW222441  11.921  13.098  13.641
40182SOL     OW22442   1.310   5.034  14.290
40182SOL    HW122443   1.227   5.074  14.265
40182SOL    HW222444   1.337   4.985  14.212
40183SOL     OW22445   1.870   3.275  14.381
40183SOL    HW122446   1.941   3.227  14.338
40183SOL    HW222447   1.909   3.306  14.463
40184SOL     OW22448   8.912   6.101   4.406
40184SOL    HW122449   8.894   6.066   4.493
40184SOL    HW222450   8.907   6.196   4.416
40185SOL     OW22451   5.102  10.729   9.844
40185SOL    HW122452   5.022  10.738   9.896
40185SOL    HW222453   5.096  10.641   9.806
40186SOL     OW22454  12.905   7.303  12.398
40186SOL    HW122455  12.905   7.222  12.346
40186SOL    HW222456  12.856   7.366  12.345
40187SOL     OW22457   0.625  13.301   4.712
40187SOL    HW122458   0.656  13.343   4.631
40187SOL    HW222459   0.705  13.282   4.760
40188SOL     OW22460   3.168   4.184  12.959
40188SOL    HW122461   3.117   4.148  13.031
40188SOL    HW222462   3.258   4.156  12.977
40189SOL     OW22463   3.619   3.822   8.918
40189SOL    HW122464   3.671   3.895   8.883
40189SOL    HW222465   3.535   3.829   8.873
40190SOL     OW22466   6.658   9.282  12.753
40190SOL    HW122467   6.752   9.293  12.768
40190SOL    HW222468   6.617   9.315  12.833
40191SOL     OW22469   5.118  12.391  10.212
40191SOL    HW122470   5.143  12.351  10.128
40191SOL    HW222471   5.099  12.317  10.269
40192SOL     OW22472  13.333   4.037   1.046
40192SOL    HW122473  13.314   4.048   0.953
40192SOL    HW222474  13.307   4.119   1.087
40193SOL     OW22475   2.203  11.850   3.848
40193SOL    HW122476   2.264  11.838   3.775
40193SOL    HW222477   2.243  11.803   3.921
40194SOL     OW22478   6.394   5.413  11.775
40194SOL    HW122479   6.354   5.348  11.832
40194SOL    HW222480   6.366   5.497  11.811
40195SOL     OW22481   7.171   4.099   3.115
40195SOL    HW122482   7.111   4.138   3.052
40195SOL    HW222483   7.162   4.004   3.102
40196SOL     OW22484   8.978   5.722  14.357
40196SOL    HW122485   8.983   5.627  14.370
40196SOL    HW222486   8.966   5.733  14.263
40197SOL     OW22487   6.670   4.231   4.279
40197SOL    HW122488   6.585   4.258   4.315
40197SOL    HW222489   6.653   4.146   4.239
40198SOL     OW22490   8.508   0.240   7.613
40198SOL    HW122491   8.414   0.256   7.620
40198SOL    HW222492   8.521   0.157   7.659
40199SOL     OW22493   4.603   5.503   6.441
40199SOL    HW122494   4.551   5.545   6.373
40199SOL    HW222495   4.540   5.484   6.511
40200SOL     OW22496   6.890  14.088   4.233
40200SOL    HW122497   6.933  14.129   4.307
40200SOL    HW222498   6.946  14.014   4.210
40201SOL     OW22499  14.074   0.025   0.023
40201SOL    HW122500  14.036   0.092  14.845
40201SOL    HW222501  14.100   0.074   0.102
40202SOL     OW22502   9.419   2.287  11.304
40202SOL    HW122503   9.455   2.356  11.360
40202SOL    HW222504   9.444   2.206  11.348
40203SOL     OW22505   2.711   9.726   9.985
40203SOL    HW122506   2.759   9.741   9.904
40203SOL    HW222507   2.753   9.784  10.049
40204SOL     OW22508   2.238   3.079   4.008
40204SOL    HW122509   2.323   3.121   4.018
40204SOL    HW222510   2.180   3.150   3.979
40205SOL     OW22511   9.694   0.943  10.118
40205SOL    HW122512   9.759   0.988  10.171
40205SOL    HW222513   9.626   0.916  10.181
40206SOL     OW22514   7.482  11.401   8.005
40206SOL    HW122515   7.438  11.327   8.045
40206SOL    HW222516   7.443  11.408   7.918
40207SOL     OW22517   5.815   5.848   0.909
40207SOL    HW122518   5.829   5.910   0.981
40207SOL    HW222519   5.774   5.772   0.950
40208SOL     OW22520   4.382   8.283   6.317
40208SOL    HW122521   4.422   8.327   6.242
40208SOL    HW222522   4.380   8.350   6.385
40209SOL     OW22523   5.008   7.939  12.908
40209SOL    HW122524   5.083   7.892  12.945
40209SOL    HW222525   4.931   7.897  12.946
40210SOL     OW22526  11.779   6.484   0.738
40210SOL    HW122527  11.751   6.493   0.647
40210SOL    HW222528  11.798   6.574   0.766
40211SOL     OW22529   7.931  12.736   0.330
40211SOL    HW122530   8.005  12.794   0.315
40211SOL    HW222531   7.944  12.704   0.419
40212SOL     OW22532   6.903  10.204   9.241
40212SOL    HW122533   6.979  10.153   9.270
40212SOL    HW222534   6.899  10.277   9.303
40213SOL     OW22535   3.675   8.668   3.889
40213SOL    HW122536   3.592   8.711   3.866
40213SOL    HW222537   3.709   8.635   3.806
40214SOL     OW22538   9.318  13.223   6.617
40214SOL    HW122539   9.241  13.252   6.665
40214SOL    HW222540   9.294  13.137   6.584
40215SOL     OW22541   6.224   4.562   8.036
40215SOL    HW122542   6.135   4.592   8.055
40215SOL    HW222543   6.251   4.514   8.114
40216SOL     OW22544   3.556  13.418   3.036
40216SOL    HW122545   3.519  13.495   2.993
40216SOL    HW222546   3.481  13.362   3.054
40217SOL     OW22547   1.817  13.227   7.157
40217SOL    HW122548   1.759  13.152   7.168
40217SOL    HW222549   1.825  13.264   7.244
40218SOL     OW22550   0.874  11.475   6.820
40218SOL    HW122551   0.880  11.515   6.906
40218SOL    HW222552   0.788  11.432   6.819
40219SOL     OW22553   8.386   8.755  12.477
40219SOL    HW122554   8.414   8.800  12.557
40219SOL    HW222555   8.466   8.739  12.428
40220SOL     OW22556  14.861  10.774   2.777
40220SOL    HW122557  14.809  10.705   2.736
40220SOL    HW222558   0.071  10.755   2.751
40221SOL     OW22559   1.591  13.084   7.205
40221SOL    HW122560   1.527  13.069   7.275
40221SOL    HW222561   1.549  13.148   7.148
40222SOL     OW22562   6.239   5.407  10.510
40222SOL    HW122563   6.246   5.458  10.429
40222SOL    HW222564   6.212   5.471  10.576
40223SOL     OW22565   6.599  11.071   9.627
40223SOL    HW122566   6.524  11.095   9.573
40223SOL    HW222567   6.610  10.977   9.613
40224SOL     OW22568   1.355   8.966   5.016
40224SOL    HW122569   1.383   8.936   4.930
40224SOL    HW222570   1.411   9.042   5.033
40225SOL     OW22571  13.146  13.167  10.923
40225SOL    HW122572  13.059  13.129  10.909
40225SOL    HW222573  13.131  13.262  10.918
40226SOL     OW22574  11.341  11.468  14.281
40226SOL    HW122575  11.423  11.421  14.295
40226SOL    HW222576  11.309  11.487  14.369
40227SOL     OW22577   4.993   8.472  13.977
40227SOL    HW122578   5.036   8.429  14.051
40227SOL    HW222579   4.908   8.428  13.970
40228SOL     OW22580   1.991   4.721   7.595
40228SOL    HW122581   2.037   4.780   7.655
40228SOL    HW222582   2.042   4.640   7.597
40229SOL     OW22583   3.094   6.924   8.453
40229SOL    HW122584   3.075   7.018   8.456
40229SOL    HW222585   3.179   6.919   8.409
40230SOL     OW22586   5.930   2.756  13.982
40230SOL    HW122587   5.862   2.812  14.019
40230SOL    HW222588   5.951   2.797  13.897
40231SOL     OW22589   4.383  11.437  13.941
40231SOL    HW122590   4.405  11.509  13.882
40231SOL    HW222591   4.447  11.444  14.012
40232SOL     OW22592  12.134   8.126   6.455
40232SOL    HW122593  12.150   8.086   6.369
40232SOL    HW222594  12.039   8.140   6.458
40233SOL     OW22595   8.025  12.561  10.608
40233SOL    HW122596   7.952  12.514  10.568
40233SOL    HW222597   7.986  12.638  10.648
40234SOL     OW22598  12.813   2.854   5.689
40234SOL    HW122599  12.842   2.928   5.743
40234SOL    HW222600  12.723   2.838   5.719
40235SOL     OW22601   2.160   7.240   2.441
40235SOL    HW122602   2.255   7.242   2.453
40235SOL    HW222603   2.139   7.149   2.422
40236SOL     OW22604  14.628  13.323   9.919
40236SOL    HW122605  14.672  13.397   9.961
40236SOL    HW222606  14.689  13.295   9.850
40237SOL     OW22607  13.468  14.495   5.362
40237SOL    HW122608  13.434  14.422   5.310
40237SOL    HW222609  13.510  14.552   5.298
40238SOL     OW22610   6.815   1.176   0.999
40238SOL    HW122611   6.878   1.214   1.061
40238SOL    HW222612   6.864   1.108   0.954
40239SOL     OW22613   3.667   0.512  11.630
40239SOL    HW122614   3.727   0.438  11.632
40239SOL    HW222615   3.584   0.475  11.599
40240SOL     OW22616   9.899  12.058   8.249
40240SOL    HW122617   9.850  12.019   8.321
40240SOL    HW222618   9.963  11.990   8.224
40241SOL     OW22619  10.463  14.625   5.747
40241SOL    HW122620  10.550  14.607   5.711
40241SOL    HW222621  10.428  14.539   5.771
40242SOL     OW22622  10.753   4.439  10.059
40242SOL    HW122623  10.715   4.369  10.005
40242SOL    HW222624  10.728   4.415  10.149
40243SOL     OW22625   1.348   2.993   6.215
40243SOL    HW122626   1.294   2.940   6.157
40243SOL    HW222627   1.438   2.969   6.194
40244SOL     OW22628   3.017   5.644   7.670
40244SOL    HW122629   2.987   5.646   7.579
40244SOL    HW222630   3.100   5.690   7.670
40245SOL     OW22631   7.725   6.320   1.081
40245SOL    HW122632   7.656   6.276   1.131
40245SOL    HW222633   7.800   6.261   1.086
40246SOL     OW22634   5.455   7.934   5.420
40246SOL    HW122635   5.464   7.843   5.394
40246SOL    HW222636   5.542   7.959   5.452
40247SOL     OW22637   3.482  13.268  10.339
40247SOL    HW122638   3.467  13.362  10.333
40247SOL    HW222639   3.510  13.255  10.430
40248SOL     OW22640   7.758   4.495  11.487
40248SOL    HW122641   7.835   4.552  11.492
40248SOL    HW222642   7.689   4.544  11.532
40249SOL     OW22643   5.387   2.001   3.329
40249SOL    HW122644   5.300   1.998   3.368
40249SOL    HW222645   5.407   1.910   3.308
40250SOL     OW22646   2.639  13.898   9.357
40250SOL    HW122647   2.606  13.853   9.279
40250SOL    HW222648   2.562  13.942   9.393
40251SOL     OW22649   3.982  12.919  12.769
40251SOL    HW122650   3.975  12.849  12.705
40251SOL    HW222651   4.042  12.885  12.835
40252SOL     OW22652  14.467  11.956   7.551
40252SOL    HW122653  14.406  12.029   7.541
40252SOL    HW222654  14.447  11.921   7.638
40253SOL     OW22655   9.935   7.182   0.297
40253SOL    HW122656   9.841   7.198   0.292
40253SOL    HW222657   9.944   7.111   0.361
40254SOL     OW22658  10.591   5.672   7.514
40254SOL    HW122659  10.607   5.727   7.591
40254SOL    HW222660  10.500   5.688   7.491
40255SOL     OW22661   3.744   1.468  10.465
40255SOL    HW122662   3.797   1.396  10.499
40255SOL    HW222663   3.692   1.429  10.395
40256SOL     OW22664   6.706   5.084   8.514
40256SOL    HW122665   6.701   5.114   8.605
40256SOL    HW222666   6.774   5.137   8.474
40257SOL     OW22667  14.860   4.862   2.039
40257SOL    HW122668  14.815   4.777   2.031
40257SOL    HW222669  14.874   4.890   1.949
40258SOL     OW22670   9.957  11.199  11.965
40258SOL    HW122671   9.967  11.164  12.054
40258SOL    HW222672  10.043  11.192  11.926
40259SOL     OW22673   3.593   5.256   1.285
40259SOL    HW122674   3.650   5.330   1.262
40259SOL    HW222675   3.555   5.280   1.369
40260SOL     OW22676   8.892  12.324   7.291
40260SOL    HW122677   8.880  12.395   7.228
40260SOL    HW222678   8.963  12.271   7.255
40261SOL     OW22679   2.788   1.962   1.873
40261SOL    HW122680   2.748   1.968   1.787
40261SOL    HW222681   2.851   1.891   1.866
40262SOL     OW22682   5.996   4.847   4.373
40262SOL    HW122683   5.960   4.920   4.424
40262SOL    HW222684   6.090   4.849   4.389
40263SOL     OW22685  10.939  10.629   7.286
40263SOL    HW122686  10.926  10.590   7.199
40263SOL    HW222687  10.852  10.658   7.312
40264SOL     OW22688  11.847   7.621   8.766
40264SOL    HW122689  11.760   7.652   8.791
40264SOL    HW222690  11.845   7.621   8.670
40265SOL     OW22691   7.643  10.833   5.911
40265SOL    HW122692   7.552  10.813   5.934
40265SOL    HW222693   7.663  10.914   5.958
40266SOL     OW22694  12.726   1.133   9.797
40266SOL    HW122695  12.787   1.171   9.735
40266SOL    HW222696  12.698   1.051   9.756
40267SOL     OW22697   5.902  14.864   5.191
40267SOL    HW122698   5.848  14.796   5.230
40267SOL    HW222699   5.977  14.817   5.154
40268SOL     OW22700   4.738   2.124   9.910
40268SOL    HW122701   4.831   2.143   9.918
40268SOL    HW222702   4.718   2.070   9.987
40269SOL     OW22703  13.821   6.197   7.102
40269SOL    HW122704  13.866   6.113   7.095
40269SOL    HW222705  13.821   6.217   7.195
40270SOL     OW22706   5.746   4.136   3.311
40270SOL    HW122707   5.786   4.071   3.370
40270SOL    HW222708   5.728   4.087   3.230
40271SOL     OW22709   1.522   8.445   3.218
40271SOL    HW122710   1.602   8.396   3.236
40271SOL    HW222711   1.488   8.407   3.138
40272SOL     OW22712  10.307  12.706   9.376
40272SOL    HW122713  10.350  12.668   9.452
40272SOL    HW222714  10.368  12.691   9.304
40273SOL     OW22715   3.930   5.474  14.542
40273SOL    HW122716   3.958   5.562  14.567
40273SOL    HW222717   4.012   5.424  14.535
40274SOL     OW22718  13.619   2.611  12.116
40274SOL    HW122719  13.568   2.575  12.043
40274SOL    HW222720  13.634   2.535  12.173
40275SOL     OW22721   8.978   7.561  13.273
40275SOL    HW122722   9.026   7.488  13.233
40275SOL    HW222723   8.886   7.536  13.268
40276SOL     OW22724   7.281   0.265   8.589
40276SOL    HW122725   7.208   0.288   8.647
40276SOL    HW222726   7.252   0.293   8.502
40277SOL     OW22727   0.390  13.184  11.503
40277SOL    HW122728   0.313  13.228  11.540
40277SOL    HW222729   0.367  13.168  11.412
40278SOL     OW22730   0.212  14.657  14.354
40278SOL    HW122731   0.288  14.602  14.336
40278SOL    HW222732   0.182  14.629  14.440
40279SOL     OW22733   8.260   7.167   9.891
40279SOL    HW122734   8.348   7.177   9.854
40279SOL    HW222735   8.202   7.180   9.816
40280SOL     OW22736  12.885   1.169  12.327
40280SOL    HW122737  12.928   1.084  12.320
40280SOL    HW222738  12.924   1.222  12.257
40281SOL     OW22739   3.217   5.188  13.054
40281SOL    HW122740   3.265   5.123  13.105
40281SOL    HW222741   3.283   5.254  13.030
40282SOL     OW22742   9.552   6.163  12.556
40282SOL    HW122743   9.573   6.189  12.646
40282SOL    HW222744   9.460   6.138  12.559
40283SOL     OW22745   1.446  10.159   6.591
40283SOL    HW122746   1.461  10.079   6.541
40283SOL    HW222747   1.532  10.181   6.626
40284SOL     OW22748   9.543   3.983  14.056
40284SOL    HW122749   9.530   4.014  14.146
40284SOL    HW222750   9.575   3.893  14.067
40285SOL     OW22751  13.814   2.743   8.858
40285SOL    HW122752  13.718   2.740   8.852
40285SOL    HW222753  13.843   2.661   8.818
40286SOL     OW22754   2.999  11.251  10.327
40286SOL    HW122755   2.996  11.293  10.242
40286SOL    HW222756   2.995  11.323  10.390
40287SOL     OW22757   3.687  12.704   8.763
40287SOL    HW122758   3.723  12.618   8.784
40287SOL    HW222759   3.596  12.687   8.740
40288SOL     OW22760   5.947   4.777  14.846
40288SOL    HW122761   5.916   4.722   0.038
40288SOL    HW222762   5.996   4.847   0.009
40289SOL     OW22763   7.334   8.958  14.066
40289SOL    HW122764   7.413   8.912  14.095
40289SOL    HW222765   7.275   8.888  14.036
40290SOL     OW22766  10.841  13.302   8.717
40290SOL    HW122767  10.815  13.393   8.728
40290SOL    HW222768  10.772  13.252   8.761
40291SOL     OW22769   9.330   8.711  10.330
40291SOL    HW122770   9.344   8.797  10.291
40291SOL    HW222771   9.239   8.690  10.310
40292SOL     OW22772   8.794  10.720   2.762
40292SOL    HW122773   8.868  10.688   2.814
40292SOL    HW222774   8.794  10.815   2.776
40293SOL     OW22775   0.253   1.461  13.173
40293SOL    HW122776   0.284   1.436  13.087
40293SOL    HW222777   0.195   1.536  13.157
40294SOL     OW22778  14.678  11.786   2.934
40294SOL    HW122779  14.725  11.753   2.857
40294SOL    HW222780  14.696  11.722   3.003
40295SOL     OW22781   7.160   5.207  10.555
40295SOL    HW122782   7.074   5.249  10.551
40295SOL    HW222783   7.201   5.243  10.633
40296SOL     OW22784   2.869   4.618   2.948
40296SOL    HW122785   2.881   4.650   2.858
40296SOL    HW222786   2.954   4.581   2.971
40297SOL     OW22787   5.395   3.021   1.565
40297SOL    HW122788   5.347   3.018   1.648
40297SOL    HW222789   5.366   3.103   1.524
40298SOL     OW22790  12.841   8.479  11.748
40298SOL    HW122791  12.830   8.570  11.775
40298SOL    HW222792  12.914   8.446  11.801
40299SOL     OW22793   6.496  10.721  11.892
40299SOL    HW122794   6.547  10.646  11.922
40299SOL    HW222795   6.466  10.698  11.804
40300SOL     OW22796  10.559  13.460  12.713
40300SOL    HW122797  10.607  13.522  12.768
40300SOL    HW222798  10.596  13.375  12.735
40301SOL     OW22799   5.989  14.491   3.944
40301SOL    HW122800   6.063  14.471   4.001
40301SOL    HW222801   5.919  14.516   4.003
40302SOL     OW22802   4.433   0.450  11.994
40302SOL    HW122803   4.367   0.504  11.950
40302SOL    HW222804   4.453   0.498  12.075
40303SOL     OW22805   7.225   6.578   1.116
40303SOL    HW122806   7.209   6.633   1.040
40303SOL    HW222807   7.258   6.496   1.080
40304SOL     OW22808  12.637   2.676   9.209
40304SOL    HW122809  12.613   2.587   9.184
40304SOL    HW222810  12.560   2.711   9.253
40305SOL     OW22811  12.567   3.327   3.863
40305SOL    HW122812  12.638   3.377   3.822
40305SOL    HW222813  12.490   3.345   3.809
40306SOL     OW22814   8.603  10.397   8.644
40306SOL    HW122815   8.624  10.396   8.737
40306SOL    HW222816   8.514  10.361   8.639
40307SOL     OW22817   6.958  13.819  14.440
40307SOL    HW122818   6.903  13.749  14.476
40307SOL    HW222819   7.006  13.778  14.368
40308SOL     OW22820  12.187  14.413   5.754
40308SOL    HW122821  12.223  14.367   5.830
40308SOL    HW222822  12.166  14.500   5.786
40309SOL     OW22823  12.969   5.574  11.808
40309SOL    HW122824  13.047   5.545  11.760
40309SOL    HW222825  12.903   5.587  11.740
40310SOL     OW22826  12.510  11.692   5.263
40310SOL    HW122827  12.493  11.677   5.356
40310SOL    HW222828  12.473  11.616   5.219
40311SOL     OW22829  11.297   0.246   1.339
40311SOL    HW122830  11.262   0.159   1.317
40311SOL    HW222831  11.220   0.303   1.342
40312SOL     OW22832  12.699   1.050  12.864
40312SOL    HW122833  12.722   1.136  12.829
40312SOL    HW222834  12.609   1.036  12.836
40313SOL     OW22835  13.283   5.886  14.095
40313SOL    HW122836  13.296   5.898  14.190
40313SOL    HW222837  13.343   5.815  14.072
40314SOL     OW22838   7.910   9.140   6.818
40314SOL    HW122839   7.870   9.111   6.900
40314SOL    HW222840   7.865   9.090   6.750
40315SOL     OW22841   7.510   6.714  14.690
40315SOL    HW122842   7.420   6.747  14.696
40315SOL    HW222843   7.510   6.660  14.611
40316SOL     OW22844  14.248   8.965   0.476
40316SOL    HW122845  14.314   8.928   0.535
40316SOL    HW222846  14.174   8.987   0.533
40317SOL     OW22847  10.866   7.152   0.135
40317SOL    HW122848  10.945   7.164   0.187
40317SOL    HW222849  10.858   7.233   0.085
40318SOL     OW22850   0.742  10.394   3.274
40318SOL    HW122851   0.811  10.435   3.326
40318SOL    HW222852   0.771  10.402   3.183
40319SOL     OW22853   0.236   3.741   6.641
40319SOL    HW122854   0.266   3.689   6.715
40319SOL    HW222855   0.217   3.827   6.678
40320SOL     OW22856   5.805   9.149   0.801
40320SOL    HW122857   5.897   9.142   0.827
40320SOL    HW222858   5.781   9.240   0.822
40321SOL     OW22859   0.650   2.184   8.253
40321SOL    HW122860   0.574   2.129   8.273
40321SOL    HW222861   0.712   2.168   8.324
40322SOL     OW22862   0.167  14.458  10.148
40322SOL    HW122863   0.127  14.456  10.061
40322SOL    HW222864   0.210  14.544  10.152
40323SOL     OW22865  13.260   0.350   4.899
40323SOL    HW122866  13.170   0.367   4.926
40323SOL    HW222867  13.285   0.270   4.946
40324SOL     OW22868  14.625   3.731  13.049
40324SOL    HW122869  14.679   3.809  13.034
40324SOL    HW222870  14.687   3.659  13.056
40325SOL     OW22871   7.207   5.158   5.166
40325SOL    HW122872   7.188   5.236   5.218
40325SOL    HW222873   7.269   5.189   5.100
40326SOL     OW22874   8.100  12.420   1.904
40326SOL    HW122875   8.087  12.493   1.964
40326SOL    HW222876   8.182  12.439   1.859
40327SOL     OW22877   7.197  11.665  11.115
40327SOL    HW122878   7.246  11.584  11.101
40327SOL    HW222879   7.132  11.643  11.182
40328SOL     OW22880   4.801   4.770   1.275
40328SOL    HW122881   4.807   4.835   1.205
40328SOL    HW222882   4.727   4.801   1.328
40329SOL     OW22883   6.510   1.392   2.273
40329SOL    HW122884   6.563   1.471   2.275
40329SOL    HW222885   6.521   1.353   2.360
40330SOL     OW22886  10.425   7.250   6.314
40330SOL    HW122887  10.334   7.267   6.289
40330SOL    HW222888  10.441   7.159   6.286
40331SOL     OW22889   4.659   0.516   8.439
40331SOL    HW122890   4.707   0.594   8.468
40331SOL    HW222891   4.677   0.451   8.507
40332SOL     OW22892   9.687  13.931  11.253
40332SOL    HW122893   9.653  13.937  11.164
40332SOL    HW222894   9.627  13.986  11.305
40333SOL     OW22895   6.688   4.890  11.469
40333SOL    HW122896   6.714   4.835  11.543
40333SOL    HW222897   6.642   4.964  11.509
40334SOL     OW22898   9.749   7.249  10.517
40334SOL    HW122899   9.823   7.189  10.526
40334SOL    HW222900   9.788   7.335  10.502
40335SOL     OW22901  13.085  12.749   9.463
40335SOL    HW122902  13.144  12.674   9.463
40335SOL    HW222903  13.116  12.804   9.391
40336SOL     OW22904  14.496   0.211   1.195
40336SOL    HW122905  14.416   0.173   1.231
40336SOL    HW222906  14.544   0.244   1.272
40337SOL     OW22907   9.531  12.164   8.874
40337SOL    HW122908   9.461  12.105   8.847
40337SOL    HW222909   9.583  12.178   8.795
40338SOL     OW22910  14.792  12.974   8.481
40338SOL    HW122911  14.801  12.963   8.576
40338SOL    HW222912  14.865  12.925   8.444
40339SOL     OW22913   3.908   5.292   3.973
40339SOL    HW122914   3.987   5.287   4.027
40339SOL    HW222915   3.855   5.217   4.001
40340SOL     OW22916   4.859  12.175   9.192
40340SOL    HW122917   4.859  12.200   9.284
40340SOL    HW222918   4.859  12.259   9.145
40341SOL     OW22919   1.263   3.783   9.755
40341SOL    HW122920   1.329   3.784   9.686
40341SOL    HW222921   1.254   3.875   9.781
40342SOL     OW22922  11.784   8.170   1.109
40342SOL    HW122923  11.715   8.172   1.177
40342SOL    HW222924  11.750   8.109   1.044
40343SOL     OW22925  12.179  14.060   9.422
40343SOL    HW122926  12.217  14.009   9.350
40343SOL    HW222927  12.255  14.096   9.469
40344SOL     OW22928  13.570   5.338   3.516
40344SOL    HW122929  13.530   5.282   3.450
40344SOL    HW222930  13.652   5.367   3.477
40345SOL     OW22931  14.569  14.854   0.210
40345SOL    HW122932  14.556  14.770   0.254
40345SOL    HW222933  14.481   0.010   0.201
40346SOL     OW22934  13.552  12.286  13.032
40346SOL    HW122935  13.498  12.280  12.953
40346SOL    HW222936  13.495  12.330  13.096
40347SOL     OW22937   0.856   3.088  11.033
40347SOL    HW122938   0.818   3.173  11.053
40347SOL    HW222939   0.873   3.048  11.118
40348SOL     OW22940  10.265   8.278  13.056
40348SOL    HW122941  10.257   8.188  13.087
40348SOL    HW222942  10.177   8.315  13.067
40349SOL     OW22943  14.850  13.927  12.092
40349SOL    HW122944  14.772  13.940  12.038
40349SOL    HW222945  14.830  13.972  12.174
40350SOL     OW22946   1.055   6.282   2.138
40350SOL    HW122947   1.051   6.310   2.229
40350SOL    HW222948   1.117   6.343   2.097
40351SOL     OW22949  11.159   5.794  13.651
40351SOL    HW122950  11.153   5.708  13.611
40351SOL    HW222951  11.073   5.810  13.689
40352SOL     OW22952  14.275   0.949   3.806
40352SOL    HW122953  14.278   1.031   3.756
40352SOL    HW222954  14.262   0.976   3.897
40353SOL     OW22955   6.904  14.022  10.921
40353SOL    HW122956   6.979  14.064  10.880
40353SOL    HW222957   6.862  14.091  10.972
40354SOL     OW22958   7.698   1.007  12.316
40354SOL    HW122959   7.676   0.920  12.282
40354SOL    HW222960   7.725   0.991  12.407
40355SOL     OW22961   6.513   6.201   9.791
40355SOL    HW122962   6.435   6.235   9.835
40355SOL    HW222963   6.577   6.190   9.862
40356SOL     OW22964  10.163   9.066   8.674
40356SOL    HW122965  10.238   9.115   8.639
40356SOL    HW222966  10.185   8.974   8.660
40357SOL     OW22967   4.971   2.895   4.952
40357SOL    HW122968   5.008   2.901   4.864
40357SOL    HW222969   4.990   2.805   4.979
40358SOL     OW22970   4.195   3.612  14.760
40358SOL    HW122971   4.254   3.630  14.687
40358SOL    HW222972   4.246   3.558  14.820
40359SOL     OW22973   0.383  12.462   3.975
40359SOL    HW122974   0.321  12.534   3.981
40359SOL    HW222975   0.414  12.450   4.064
40360SOL     OW22976   3.964   5.980  10.226
40360SOL    HW122977   3.991   5.981  10.318
40360SOL    HW222978   4.044   5.956  10.178
40361SOL     OW22979   0.813   7.111  13.255
40361SOL    HW122980   0.719   7.094  13.257
40361SOL    HW222981   0.853   7.024  13.264
40362SOL     OW22982   1.926   4.202   6.043
40362SOL    HW122983   1.854   4.143   6.064
40362SOL    HW222984   1.997   4.144   6.014
40363SOL     OW22985   2.835   3.884   7.235
40363SOL    HW122986   2.764   3.820   7.235
40363SOL    HW222987   2.887   3.863   7.157
40364SOL     OW22988   1.975   6.902   5.872
40364SOL    HW122989   2.040   6.871   5.809
40364SOL    HW222990   1.904   6.839   5.867
40365SOL     OW22991   0.866  10.369  11.660
40365SOL    HW122992   0.905  10.303  11.602
40365SOL    HW222993   0.834  10.319  11.735
40366SOL     OW22994  14.007   4.341   5.277
40366SOL    HW122995  14.047   4.264   5.235
40366SOL    HW222996  13.954   4.381   5.208
40367SOL     OW22997  14.775   7.848   0.441
40367SOL    HW122998  14.759   7.844   0.346
40367SOL    HW222999  14.868   7.828   0.450
40368SOL     OW23000   3.976   6.969   0.497
40368SOL    HW123001   3.929   6.916   0.561
40368SOL    HW223002   3.945   7.059   0.513
40369SOL     OW23003   9.408   7.887   6.876
40369SOL    HW123004   9.396   7.943   6.954
40369SOL    HW223005   9.396   7.798   6.909
40370SOL     OW23006   2.996   5.466  13.016
40370SOL    HW123007   2.983   5.500  13.104
40370SOL    HW223008   3.030   5.540  12.966
40371SOL     OW23009  11.471   7.309   7.886
40371SOL    HW123010  11.544   7.345   7.935
40371SOL    HW223011  11.414   7.270   7.953
40372SOL     OW23012   0.898  11.879   6.255
40372SOL    HW123013   0.948  11.799   6.239
40372SOL    HW223014   0.963  11.942   6.288
40373SOL     OW23015   8.815   2.946  12.979
40373SOL    HW123016   8.831   3.023  13.034
40373SOL    HW223017   8.880   2.952  12.910
40374SOL     OW23018   2.029   3.003  12.099
40374SOL    HW123019   2.022   2.982  12.192
40374SOL    HW223020   2.082   2.933  12.062
40375SOL     OW23021   8.021  14.619   2.216
40375SOL    HW123022   8.096  14.676   2.229
40375SOL    HW223023   8.024  14.557   2.290
40376SOL     OW23024   5.827   0.376   8.963
40376SOL    HW123025   5.763   0.369   8.892
40376SOL    HW223026   5.777   0.359   9.043
40377SOL     OW23027   2.224   3.496   3.318
40377SOL    HW123028   2.197   3.586   3.304
40377SOL    HW223029   2.164   3.463   3.385
40378SOL     OW23030  14.852  14.832   6.548
40378SOL    HW123031  14.789  14.763   6.571
40378SOL    HW223032  14.816   0.032   6.588
40379SOL     OW23033   7.623  10.713  14.513
40379SOL    HW123034   7.584  10.630  14.541
40379SOL    HW223035   7.682  10.737  14.584
40380SOL     OW23036   7.333   1.877  13.213
40380SOL    HW123037   7.326   1.797  13.161
40380SOL    HW223038   7.421   1.909  13.197
40381SOL     OW23039   1.345   2.977  10.992
40381SOL    HW123040   1.389   3.057  10.963
40381SOL    HW223041   1.255   3.005  11.012
40382SOL     OW23042   5.933  11.582   9.053
40382SOL    HW123043   5.891  11.497   9.064
40382SOL    HW223044   5.993  11.570   8.979
40383SOL     OW23045   9.352   5.652   2.747
40383SOL    HW123046   9.384   5.721   2.690
40383SOL    HW223047   9.357   5.573   2.693
40384SOL     OW23048  10.904   7.534   8.805
40384SOL    HW123049  10.983   7.521   8.752
40384SOL    HW223050  10.836   7.483   8.761
40385SOL     OW23051   2.953  13.361   8.921
40385SOL    HW123052   3.017  13.359   8.992
40385SOL    HW223053   3.004  13.385   8.843
40386SOL     OW23054  12.975   9.534  10.847
40386SOL    HW123055  13.024   9.472  10.900
40386SOL    HW223056  12.884   9.524  10.875
40387SOL     OW23057   1.090   9.562   4.361
40387SOL    HW123058   1.175   9.520   4.355
40387SOL    HW223059   1.044   9.514   4.431
40388SOL     OW23060   6.644   0.425   7.615
40388SOL    HW123061   6.613   0.361   7.551
40388SOL    HW223062   6.729   0.392   7.644
40389SOL     OW23063   2.019  13.508  11.218
40389SOL    HW123064   2.099  13.461  11.244
40389SOL    HW223065   1.973  13.447  11.160
40390SOL     OW23066   7.538  14.305  11.892
40390SOL    HW123067   7.517  14.385  11.940
40390SOL    HW223068   7.552  14.334  11.802
40391SOL     OW23069   2.165   1.797  13.203
40391SOL    HW123070   2.133   1.874  13.252
40391SOL    HW223071   2.216   1.748  13.268
40392SOL     OW23072   1.169   3.253  14.086
40392SOL    HW123073   1.122   3.218  14.010
40392SOL    HW223074   1.260   3.260  14.057
40393SOL     OW23075  11.106   1.268   0.163
40393SOL    HW123076  11.172   1.233   0.103
40393SOL    HW223077  11.049   1.321   0.109
40394SOL     OW23078   0.058   4.978   0.904
40394SOL    HW123079   0.005   4.943   0.976
40394SOL    HW223080   0.090   4.900   0.858
40395SOL     OW23081   4.083   9.034  10.896
40395SOL    HW123082   3.998   9.070  10.873
40395SOL    HW223083   4.090   9.047  10.991
40396SOL     OW23084   6.129   1.578   0.660
40396SOL    HW123085   6.104   1.621   0.741
40396SOL    HW223086   6.083   1.494   0.662
40397SOL     OW23087   3.542   0.895   5.125
40397SOL    HW123088   3.580   0.843   5.196
40397SOL    HW223089   3.460   0.928   5.161
40398SOL     OW23090   8.250   3.611   2.770
40398SOL    HW123091   8.292   3.580   2.690
40398SOL    HW223092   8.157   3.621   2.747
40399SOL     OW23093  12.309   6.708   9.226
40399SOL    HW123094  12.214   6.719   9.224
40399SOL    HW223095  12.344   6.790   9.191
40400SOL     OW23096  11.007  14.601  11.940
40400SOL    HW123097  11.013  14.574  11.849
40400SOL    HW223098  11.095  14.591  11.975
40401SOL     OW23099  13.561   6.765   3.322
40401SOL    HW123100  13.573   6.773   3.227
40401SOL    HW223101  13.605   6.842   3.358
40402SOL     OW23102   5.011   1.282   4.495
40402SOL    HW123103   5.096   1.249   4.525
40402SOL    HW223104   4.953   1.206   4.498
40403SOL     OW23105   8.817  11.238  13.521
40403SOL    HW123106   8.741  11.222  13.465
40403SOL    HW223107   8.843  11.152  13.552
40404SOL     OW23108   0.976   5.986  14.383
40404SOL    HW123109   0.954   5.896  14.360
40404SOL    HW223110   0.899   6.019  14.428
40405SOL     OW23111  12.650   1.719  10.047
40405SOL    HW123112  12.612   1.803  10.074
40405SOL    HW223113  12.622   1.657  10.115
40406SOL     OW23114   4.558  14.418  12.837
40406SOL    HW123115   4.601  14.335  12.818
40406SOL    HW223116   4.626  14.471  12.878
40407SOL     OW23117   1.835  12.033   8.983
40407SOL    HW123118   1.756  11.992   8.949
40407SOL    HW223119   1.843  12.114   8.933
40408SOL     OW23120   3.397   4.668   7.886
40408SOL    HW123121   3.433   4.638   7.803
40408SOL    HW223122   3.465   4.646   7.950
40409SOL     OW23123  14.141   3.060   0.611
40409SOL    HW123124  14.065   3.104   0.649
40409SOL    HW223125  14.161   2.989   0.672
40410SOL     OW23126   4.464   7.270   2.231
40410SOL    HW123127   4.558   7.284   2.236
40410SOL    HW223128   4.429   7.311   2.310
40411SOL     OW23129   1.834   0.894  12.631
40411SOL    HW123130   1.811   0.803  12.608
40411SOL    HW223131   1.850   0.891  12.725
40412SOL     OW23132   0.971  11.786   7.069
40412SOL    HW123133   0.910  11.713   7.079
40412SOL    HW223134   0.925  11.862   7.106
40413SOL     OW23135   9.625   7.252  13.989
40413SOL    HW123136   9.592   7.216  13.907
40413SOL    HW223137   9.715   7.280  13.969
40414SOL     OW23138  10.326   1.191  13.126
40414SOL    HW123139  10.243   1.144  13.130
40414SOL    HW223140  10.353   1.184  13.034
40415SOL     OW23141  12.561   8.166   3.686
40415SOL    HW123142  12.513   8.235   3.731
40415SOL    HW223143  12.553   8.089   3.743
40416SOL     OW23144  10.433  11.811   0.376
40416SOL    HW123145  10.394  11.736   0.422
40416SOL    HW223146  10.449  11.875   0.446
40417SOL     OW23147   9.702  11.711   0.818
40417SOL    HW123148   9.632  11.697   0.881
40417SOL    HW223149   9.747  11.626   0.813
40418SOL     OW23150   6.096  10.140   1.376
40418SOL    HW123151   6.085  10.046   1.392
40418SOL    HW223152   6.152  10.144   1.298
40419SOL     OW23153   9.540   6.145   2.669
40419SOL    HW123154   9.550   6.151   2.764
40419SOL    HW223155   9.628   6.158   2.635
40420SOL     OW23156   8.157   0.245  11.486
40420SOL    HW123157   8.147   0.208  11.574
40420SOL    HW223158   8.082   0.211  11.438
40421SOL     OW23159  10.804  14.803   2.530
40421SOL    HW123160  10.855  14.725   2.550
40421SOL    HW223161  10.797  14.850   2.613
40422SOL     OW23162   9.718   4.232   6.322
40422SOL    HW123163   9.743   4.279   6.242
40422SOL    HW223164   9.774   4.268   6.390
40423SOL     OW23165   5.609   3.457   2.828
40423SOL    HW123166   5.677   3.477   2.893
40423SOL    HW223167   5.606   3.535   2.772
40424SOL     OW23168  11.350   4.660   7.026
40424SOL    HW123169  11.294   4.721   6.977
40424SOL    HW223170  11.337   4.684   7.117
40425SOL     OW23171  13.899   4.490   6.531
40425SOL    HW123172  13.822   4.525   6.485
40425SOL    HW223173  13.954   4.567   6.548
40426SOL     OW23174  14.042   8.236   9.765
40426SOL    HW123175  14.060   8.311   9.709
40426SOL    HW223176  13.969   8.264   9.819
40427SOL     OW23177   2.203   7.514   4.397
40427SOL    HW123178   2.278   7.468   4.358
40427SOL    HW223179   2.171   7.454   4.464
40428SOL     OW23180   5.058   8.421   5.259
40428SOL    HW123181   5.057   8.343   5.204
40428SOL    HW223182   4.970   8.458   5.249
40429SOL     OW23183   9.261   9.933  10.437
40429SOL    HW123184   9.249  10.027  10.422
40429SOL    HW223185   9.337   9.927  10.495
40430SOL     OW23186  13.105   7.886  13.299
40430SOL    HW123187  13.034   7.894  13.362
40430SOL    HW223188  13.083   7.947  13.229
40431SOL     OW23189   3.932  12.029   6.436
40431SOL    HW123190   3.959  12.096   6.500
40431SOL    HW223191   3.875  12.076   6.376
40432SOL     OW23192  11.241   0.930   5.390
40432SOL    HW123193  11.336   0.941   5.386
40432SOL    HW223194  11.206   1.000   5.335
40433SOL     OW23195  10.682   0.431  12.259
40433SOL    HW123196  10.637   0.387  12.187
40433SOL    HW223197  10.774   0.434  12.231
40434SOL     OW23198   7.643  13.915  14.101
40434SOL    HW123199   7.714  13.867  14.144
40434SOL    HW223200   7.564  13.865  14.124
40435SOL     OW23201  14.129   3.366   4.606
40435SOL    HW123202  14.193   3.356   4.534
40435SOL    HW223203  14.075   3.287   4.600
40436SOL     OW23204   1.938   5.416   6.192
40436SOL    HW123205   2.013   5.474   6.208
40436SOL    HW223206   1.976   5.336   6.155
40437SOL     OW23207   0.242   9.799  12.696
40437SOL    HW123208   0.235   9.847  12.614
40437SOL    HW223209   0.333   9.810  12.723
40438SOL     OW23210   3.252   4.481   8.587
40438SOL    HW123211   3.305   4.537   8.645
40438SOL    HW223212   3.294   4.489   8.501
40439SOL     OW23213   4.367   8.848   8.081
40439SOL    HW123214   4.351   8.789   8.007
40439SOL    HW223215   4.282   8.857   8.124
40440SOL     OW23216   8.797   1.835  14.827
40440SOL    HW123217   8.872   1.828   0.005
40440SOL    HW223218   8.819   1.780  14.751
40441SOL     OW23219  13.618   7.814   0.494
40441SOL    HW123220  13.619   7.722   0.520
40441SOL    HW223221  13.707   7.832   0.465
40442SOL     OW23222   8.008   5.287   4.392
40442SOL    HW123223   7.952   5.354   4.431
40442SOL    HW223224   7.969   5.204   4.419
40443SOL     OW23225  14.128  12.402  13.811
40443SOL    HW123226  14.181  12.324  13.794
40443SOL    HW223227  14.168  12.442  13.888
40444SOL     OW23228  12.048   8.430   5.427
40444SOL    HW123229  11.983   8.364   5.403
40444SOL    HW223230  12.054   8.487   5.350
40445SOL     OW23231   6.061  14.275   1.815
40445SOL    HW123232   6.042  14.201   1.757
40445SOL    HW223233   5.977  14.297   1.855
40446SOL     OW23234   7.991   2.598   6.759
40446SOL    HW123235   8.001   2.672   6.819
40446SOL    HW223236   7.948   2.530   6.811
40447SOL     OW23237   6.106  11.047  14.441
40447SOL    HW123238   6.146  10.990  14.507
40447SOL    HW223239   6.176  11.062  14.378
40448SOL     OW23240  11.205   3.575  10.279
40448SOL    HW123241  11.222   3.550  10.370
40448SOL    HW223242  11.155   3.656  10.286
40449SOL     OW23243  12.981   5.786   8.329
40449SOL    HW123244  12.989   5.867   8.279
40449SOL    HW223245  13.005   5.811   8.418
40450SOL     OW23246   1.871   1.004   6.103
40450SOL    HW123247   1.883   0.989   6.009
40450SOL    HW223248   1.777   0.996   6.118
40451SOL     OW23249  10.519   3.155  13.836
40451SOL    HW123250  10.470   3.165  13.755
40451SOL    HW223251  10.472   3.087  13.885
40452SOL     OW23252   9.445   6.253   6.915
40452SOL    HW123253   9.511   6.321   6.930
40452SOL    HW223254   9.362   6.301   6.917
40453SOL     OW23255   5.831   7.737  13.205
40453SOL    HW123256   5.768   7.806  13.227
40453SOL    HW223257   5.797   7.659  13.248
40454SOL     OW23258   3.473  11.835   1.293
40454SOL    HW123259   3.448  11.756   1.342
40454SOL    HW223260   3.407  11.842   1.224
40455SOL     OW23261   5.138   7.780   9.431
40455SOL    HW123262   5.224   7.818   9.415
40455SOL    HW223263   5.102   7.766   9.343
40456SOL     OW23264   6.104  14.866   3.996
40456SOL    HW123265   6.034  14.811   4.031
40456SOL    HW223266   6.166  14.804   3.957
40457SOL     OW23267   5.746   2.499   5.688
40457SOL    HW123268   5.759   2.405   5.674
40457SOL    HW223269   5.831   2.538   5.669
40458SOL     OW23270  13.227   3.865   3.424
40458SOL    HW123271  13.190   3.904   3.345
40458SOL    HW223272  13.321   3.883   3.418
40459SOL     OW23273   3.952   5.490   7.296
40459SOL    HW123274   4.036   5.518   7.259
40459SOL    HW223275   3.971   5.474   7.389
40460SOL     OW23276  11.664  11.524   1.536
40460SOL    HW123277  11.737  11.586   1.533
40460SOL    HW223278  11.609  11.556   1.608
40461SOL     OW23279  11.694  13.134   5.059
40461SOL    HW123280  11.691  13.076   5.135
40461SOL    HW223281  11.769  13.104   5.008
40462SOL     OW23282  10.570   5.193   0.214
40462SOL    HW123283  10.659   5.182   0.181
40462SOL    HW223284  10.548   5.109   0.253
40463SOL     OW23285   9.635  10.809   2.289
40463SOL    HW123286   9.697  10.844   2.353
40463SOL    HW223287   9.568  10.876   2.281
40464SOL     OW23288   5.552   4.791  10.379
40464SOL    HW123289   5.573   4.839  10.299
40464SOL    HW223290   5.497   4.718  10.350
40465SOL     OW23291   2.384   7.624   9.468
40465SOL    HW123292   2.399   7.547   9.522
40465SOL    HW223293   2.293   7.614   9.438
40466SOL     OW23294  10.997   7.604   2.098
40466SOL    HW123295  10.904   7.624   2.105
40466SOL    HW223296  11.001   7.511   2.076
40467SOL     OW23297  14.533  12.759  10.820
40467SOL    HW123298  14.622  12.730  10.838
40467SOL    HW223299  14.536  12.855  10.829
40468SOL     OW23300   0.764   4.915   2.698
40468SOL    HW123301   0.699   4.875   2.755
40468SOL    HW223302   0.738   4.890   2.609
40469SOL     OW23303   6.335  11.722   0.199
40469SOL    HW123304   6.362  11.787   0.135
40469SOL    HW223305   6.337  11.768   0.283
40470SOL     OW23306   7.269   7.535  10.558
40470SOL    HW123307   7.218   7.553  10.637
40470SOL    HW223308   7.246   7.446  10.534
40471SOL     OW23309   5.521   7.088  12.547
40471SOL    HW123310   5.435   7.129  12.545
40471SOL    HW223311   5.539   7.064  12.455
40472SOL     OW23312   7.040  14.448   6.611
40472SOL    HW123313   7.000  14.374   6.657
40472SOL    HW223314   7.008  14.525   6.657
40473SOL     OW23315   0.355  11.116  13.550
40473SOL    HW123316   0.443  11.121  13.586
40473SOL    HW223317   0.367  11.121  13.456
40474SOL     OW23318  11.535  13.648   7.390
40474SOL    HW123319  11.500  13.704   7.460
40474SOL    HW223320  11.475  13.662   7.316
40475SOL     OW23321  11.171   7.541   0.560
40475SOL    HW123322  11.141   7.630   0.542
40475SOL    HW223323  11.173   7.535   0.655
40476SOL     OW23324   6.486   3.890  13.303
40476SOL    HW123325   6.487   3.835  13.225
40476SOL    HW223326   6.574   3.883  13.340
40477SOL     OW23327   4.578   4.636  12.515
40477SOL    HW123328   4.584   4.611  12.608
40477SOL    HW223329   4.609   4.559  12.468
40478SOL     OW23330   6.295   3.943   3.714
40478SOL    HW123331   6.239   4.019   3.728
40478SOL    HW223332   6.234   3.871   3.697
40479SOL     OW23333  10.431   1.954   2.262
40479SOL    HW123334  10.446   2.031   2.316
40479SOL    HW223335  10.425   1.988   2.173
40480SOL     OW23336  13.106  11.291   6.750
40480SOL    HW123337  13.056  11.369   6.727
40480SOL    HW223338  13.040  11.225   6.771
40481SOL     OW23339   4.721  11.384  14.249
40481SOL    HW123340   4.742  11.477  14.251
40481SOL    HW223341   4.804  11.340  14.266
40482SOL     OW23342   7.213   8.317   6.838
40482SOL    HW123343   7.294   8.365   6.822
40482SOL    HW223344   7.240   8.226   6.850
40483SOL     OW23345  12.703  14.733   7.609
40483SOL    HW123346  12.664  14.663   7.556
40483SOL    HW223347  12.629  14.773   7.654
40484SOL     OW23348   8.423  12.036  11.250
40484SOL    HW123349   8.478  12.089  11.191
40484SOL    HW223350   8.400  12.096  11.321
40485SOL     OW23351   2.173   6.774   3.343
40485SOL    HW123352   2.181   6.869   3.336
40485SOL    HW223353   2.248   6.740   3.296
40486SOL     OW23354   3.639   7.292   4.127
40486SOL    HW123355   3.575   7.221   4.122
40486SOL    HW223356   3.586   7.372   4.120
40487SOL     OW23357  10.310  12.608   0.161
40487SOL    HW123358  10.266  12.592   0.077
40487SOL    HW223359  10.244  12.590   0.227
40488SOL     OW23360   0.622   4.154   6.388
40488SOL    HW123361   0.665   4.187   6.310
40488SOL    HW223362   0.561   4.087   6.356
40489SOL     OW23363   4.711   3.601   2.219
40489SOL    HW123364   4.668   3.681   2.246
40489SOL    HW223365   4.764   3.627   2.144
40490SOL     OW23366  12.409   8.470  13.969
40490SOL    HW123367  12.353   8.399  13.940
40490SOL    HW223368  12.379   8.490  14.058
40491SOL     OW23369  14.755   3.176   3.707
40491SOL    HW123370  14.698   3.168   3.783
40491SOL    HW223371  14.707   3.132   3.636
40492SOL     OW23372  10.012   2.274  11.298
40492SOL    HW123373  10.063   2.267  11.379
40492SOL    HW223374  10.069   2.323  11.238
40493SOL     OW23375   4.340  12.487  13.092
40493SOL    HW123376   4.363  12.462  13.181
40493SOL    HW223377   4.272  12.553  13.102
40494SOL     OW23378   1.759  12.244  12.709
40494SOL    HW123379   1.760  12.155  12.673
40494SOL    HW223380   1.851  12.265  12.725
40495SOL     OW23381  13.489   5.762   4.047
40495SOL    HW123382  13.399   5.796   4.046
40495SOL    HW223383  13.542   5.834   4.081
40496SOL     OW23384   3.022  11.182   2.007
40496SOL    HW123385   2.956  11.129   1.964
40496SOL    HW223386   2.973  11.254   2.048
40497SOL     OW23387   7.944  13.767   0.453
40497SOL    HW123388   8.031  13.778   0.414
40497SOL    HW223389   7.937  13.837   0.517
40498SOL     OW23390   1.953  10.197   2.055
40498SOL    HW123391   1.889  10.215   1.986
40498SOL    HW223392   1.921  10.117   2.097
40499SOL     OW23393   0.292  14.849   9.058
40499SOL    HW123394   0.383  14.858   9.088
40499SOL    HW223395   0.283  14.757   9.034
40500SOL     OW23396   9.604  11.023   8.457
40500SOL    HW123397   9.661  10.971   8.515
40500SOL    HW223398   9.516  10.989   8.474
40501SOL     OW23399   3.375   1.060   7.559
40501SOL    HW123400   3.426   1.095   7.487
40501SOL    HW223401   3.290   1.040   7.519
40502SOL     OW23402   2.912  14.668   1.073
40502SOL    HW123403   3.006  14.648   1.068
40502SOL    HW223404   2.870  14.600   1.021
40503SOL     OW23405   7.484   0.428   3.264
40503SOL    HW123406   7.473   0.446   3.357
40503SOL    HW223407   7.555   0.365   3.259
40504SOL     OW23408   5.774   4.327  12.267
40504SOL    HW123409   5.779   4.311  12.361
40504SOL    HW223410   5.708   4.395  12.257
40505SOL     OW23411  14.100   9.331   2.933
40505SOL    HW123412  14.072   9.312   3.023
40505SOL    HW223413  14.181   9.381   2.943
40506SOL     OW23414   3.018   1.864   9.159
40506SOL    HW123415   3.021   1.817   9.242
40506SOL    HW223416   2.932   1.841   9.122
40507SOL     OW23417   9.077   6.971   8.829
40507SOL    HW123418   9.132   7.050   8.825
40507SOL    HW223419   9.131   6.907   8.876
40508SOL     OW23420  11.917   0.952  12.675
40508SOL    HW123421  11.827   0.963  12.705
40508SOL    HW223422  11.918   0.866  12.633
40509SOL     OW23423   3.474  14.668   3.093
40509SOL    HW123424   3.512  14.595   3.043
40509SOL    HW223425   3.531  14.742   3.074
40510SOL     OW23426   5.765   1.064  11.622
40510SOL    HW123427   5.778   1.014  11.703
40510SOL    HW223428   5.825   1.138  11.629
40511SOL     OW23429   9.905   3.012   6.576
40511SOL    HW123430   9.829   2.959   6.553
40511SOL    HW223431   9.914   3.074   6.503
40512SOL     OW23432   1.635  12.011  12.315
40512SOL    HW123433   1.703  12.000  12.249
40512SOL    HW223434   1.678  11.994  12.398
40513SOL     OW23435   5.314  13.034  14.206
40513SOL    HW123436   5.317  13.089  14.128
40513SOL    HW223437   5.370  13.078  14.270
40514SOL     OW23438   1.914   7.374   1.012
40514SOL    HW123439   1.868   7.341   1.089
40514SOL    HW223440   1.990   7.421   1.048
40515SOL     OW23441  13.477  11.189  12.443
40515SOL    HW123442  13.414  11.128  12.481
40515SOL    HW223443  13.546  11.133  12.407
40516SOL     OW23444   6.223   6.413   8.762
40516SOL    HW123445   6.285   6.431   8.833
40516SOL    HW223446   6.144   6.384   8.807
40517SOL     OW23447   6.581   2.430   0.882
40517SOL    HW123448   6.613   2.406   0.969
40517SOL    HW223449   6.516   2.362   0.862
40518SOL     OW23450   0.239   7.262  11.517
40518SOL    HW123451   0.191   7.345  11.508
40518SOL    HW223452   0.227   7.219  11.432
40519SOL     OW23453   4.202  10.046  11.970
40519SOL    HW123454   4.191  10.139  11.949
40519SOL    HW223455   4.214  10.004  11.885
40520SOL     OW23456   3.277  11.309   4.837
40520SOL    HW123457   3.213  11.259   4.887
40520SOL    HW223458   3.230  11.388   4.810
40521SOL     OW23459  10.552  14.862  14.727
40521SOL    HW123460  10.596  14.826  14.650
40521SOL    HW223461  10.486   0.042  14.691
40522SOL     OW23462   4.625   7.934   5.493
40522SOL    HW123463   4.637   7.849   5.450
40522SOL    HW223464   4.658   7.921   5.582
40523SOL     OW23465   0.263   3.646   0.088
40523SOL    HW123466   0.317   3.610   0.017
40523SOL    HW223467   0.250   3.572   0.148
40524SOL     OW23468  14.463   6.211  10.603
40524SOL    HW123469  14.549   6.224  10.644
40524SOL    HW223470  14.472   6.251  10.516
40525SOL     OW23471  13.948  14.700   6.686
40525SOL    HW123472  13.946  14.704   6.782
40525SOL    HW223473  13.863  14.665   6.662
40526SOL     OW23474   0.208  14.753  14.708
40526SOL    HW123475   0.170  14.833  14.673
40526SOL    HW223476   0.300  14.775  14.722
40527SOL     OW23477   4.803   5.640  10.147
40527SOL    HW123478   4.795   5.545  10.160
40527SOL    HW223479   4.784   5.678  10.232
40528SOL     OW23480  13.057   9.460   8.255
40528SOL    HW123481  13.017   9.373   8.261
40528SOL    HW223482  13.125   9.451   8.188
40529SOL     OW23483   5.609  11.371   0.077
40529SOL    HW123484   5.567  11.446   0.120
40529SOL    HW223485   5.660  11.328   0.145
40530SOL     OW23486   0.737   6.712   5.935
40530SOL    HW123487   0.802   6.713   5.864
40530SOL    HW223488   0.667   6.770   5.904
40531SOL     OW23489  11.921   5.751   5.520
40531SOL    HW123490  11.918   5.846   5.522
40531SOL    HW223491  11.831   5.724   5.539
40532SOL     OW23492   6.976   5.810   2.752
40532SOL    HW123493   6.933   5.884   2.794
40532SOL    HW223494   7.057   5.846   2.717
40533SOL     OW23495   6.015  12.380   1.768
40533SOL    HW123496   5.961  12.459   1.760
40533SOL    HW223497   6.099  12.411   1.801
40534SOL     OW23498   5.021  12.792   7.693
40534SOL    HW123499   5.018  12.887   7.709
40534SOL    HW223500   5.013  12.784   7.598
40535SOL     OW23501   9.362   3.650   3.066
40535SOL    HW123502   9.322   3.721   3.116
40535SOL    HW223503   9.396   3.590   3.132
40536SOL     OW23504   4.163   3.487   6.893
40536SOL    HW123505   4.110   3.500   6.815
40536SOL    HW223506   4.250   3.518   6.868
40537SOL     OW23507  11.667   7.239  12.328
40537SOL    HW123508  11.603   7.214  12.262
40537SOL    HW223509  11.736   7.173  12.321
40538SOL     OW23510   4.878   8.825  10.330
40538SOL    HW123511   4.792   8.831  10.371
40538SOL    HW223512   4.885   8.734  10.300
40539SOL     OW23513   5.706   2.616  11.165
40539SOL    HW123514   5.645   2.556  11.121
40539SOL    HW223515   5.788   2.605  11.118
40540SOL     OW23516   8.106   6.081   2.013
40540SOL    HW123517   8.029   6.125   2.050
40540SOL    HW223518   8.162   6.153   1.982
40541SOL     OW23519  10.768  12.944   1.384
40541SOL    HW123520  10.795  12.971   1.296
40541SOL    HW223521  10.674  12.963   1.387
40542SOL     OW23522  12.000   4.412   4.931
40542SOL    HW123523  11.968   4.422   4.841
40542SOL    HW223524  12.010   4.502   4.964
40543SOL     OW23525  10.712   0.618   9.698
40543SOL    HW123526  10.680   0.707   9.687
40543SOL    HW223527  10.790   0.613   9.644
40544SOL     OW23528  14.632  12.942   9.042
40544SOL    HW123529  14.674  13.010   9.095
40544SOL    HW223530  14.554  12.984   9.006
40545SOL     OW23531  10.133   6.157   2.935
40545SOL    HW123532  10.078   6.083   2.907
40545SOL    HW223533  10.071   6.223   2.963
40546SOL     OW23534  13.865   1.589   3.990
40546SOL    HW123535  13.806   1.561   4.059
40546SOL    HW223536  13.808   1.621   3.920
40547SOL     OW23537  10.869   3.991   8.950
40547SOL    HW123538  10.834   4.006   9.038
40547SOL    HW223539  10.842   4.068   8.900
40548SOL     OW23540   6.708   6.453  10.586
40548SOL    HW123541   6.749   6.369  10.603
40548SOL    HW223542   6.760   6.492  10.515
40549SOL     OW23543   5.601   8.247   6.204
40549SOL    HW123544   5.651   8.327   6.189
40549SOL    HW223545   5.587   8.210   6.117
40550SOL     OW23546  10.834   4.415   6.792
40550SOL    HW123547  10.908   4.434   6.849
40550SOL    HW223548  10.809   4.325   6.814
40551SOL     OW23549  12.361   8.441   9.756
40551SOL    HW123550  12.432   8.444   9.692
40551SOL    HW223551  12.313   8.522   9.743
40552SOL     OW23552   2.900   2.065  13.247
40552SOL    HW123553   2.912   2.059  13.342
40552SOL    HW223554   2.805   2.058  13.235
40553SOL     OW23555   3.747   7.742   3.404
40553SOL    HW123556   3.830   7.694   3.392
40553SOL    HW223557   3.749   7.809   3.335
40554SOL     OW23558   9.395  13.244   4.287
40554SOL    HW123559   9.308  13.233   4.249
40554SOL    HW223560   9.403  13.171   4.349
40555SOL     OW23561  12.338  14.428   6.845
40555SOL    HW123562  12.333  14.349   6.901
40555SOL    HW223563  12.271  14.414   6.779
40556SOL     OW23564   3.060   3.877   6.504
40556SOL    HW123565   3.065   3.955   6.448
40556SOL    HW223566   3.150   3.862   6.533
40557SOL     OW23567   5.947  14.017  11.357
40557SOL    HW123568   5.999  13.976  11.288
40557SOL    HW223569   5.868  13.963  11.363
40558SOL     OW23570   3.575   7.673   2.987
40558SOL    HW123571   3.526   7.656   2.907
40558SOL    HW223572   3.508   7.686   3.054
40559SOL     OW23573   7.510   0.954  10.341
40559SOL    HW123574   7.458   1.033  10.325
40559SOL    HW223575   7.468   0.914  10.417
40560SOL     OW23576   3.464   5.352  10.719
40560SOL    HW123577   3.495   5.313  10.637
40560SOL    HW223578   3.540   5.353  10.776
40561SOL     OW23579   0.341   9.879   0.376
40561SOL    HW123580   0.372   9.967   0.399
40561SOL    HW223581   0.365   9.868   0.284
40562SOL     OW23582  10.701   6.688   6.281
40562SOL    HW123583  10.708   6.732   6.196
40562SOL    HW223584  10.706   6.595   6.259
40563SOL     OW23585   7.937  13.281   0.200
40563SOL    HW123586   7.930  13.364   0.154
40563SOL    HW223587   7.894  13.296   0.284
40564SOL     OW23588  12.699   1.781   6.242
40564SOL    HW123589  12.744   1.858   6.207
40564SOL    HW223590  12.680   1.727   6.165
40565SOL     OW23591   3.609   1.282   0.341
40565SOL    HW123592   3.623   1.313   0.251
40565SOL    HW223593   3.639   1.192   0.340
40566SOL     OW23594  10.183   6.527  10.193
40566SOL    HW123595  10.229   6.447  10.167
40566SOL    HW223596  10.233   6.597  10.152
40567SOL     OW23597  13.251   7.005   5.909
40567SOL    HW123598  13.165   6.966   5.894
40567SOL    HW223599  13.260   7.006   6.005
40568SOL     OW23600   0.645   4.993   8.979
40568SOL    HW123601   0.732   4.960   8.956
40568SOL    HW223602   0.624   5.056   8.909
40569SOL     OW23603   0.171   1.970   3.098
40569SOL    HW123604   0.158   1.907   3.168
40569SOL    HW223605   0.236   2.031   3.132
40570SOL     OW23606  12.310   9.993  11.377
40570SOL    HW123607  12.285  10.062  11.439
40570SOL    HW223608  12.375   9.941  11.424
40571SOL     OW23609   1.717   5.333  13.677
40571SOL    HW123610   1.701   5.271  13.607
40571SOL    HW223611   1.629   5.354  13.711
40572SOL     OW23612   1.319   8.353   5.326
40572SOL    HW123613   1.413   8.346   5.309
40572SOL    HW223614   1.304   8.447   5.338
40573SOL     OW23615   4.057   4.467   6.457
40573SOL    HW123616   4.050   4.376   6.484
40573SOL    HW223617   4.037   4.466   6.364
40574SOL     OW23618  13.084   5.924  12.700
40574SOL    HW123619  13.113   5.839  12.732
40574SOL    HW223620  13.161   5.980  12.705
40575SOL     OW23621  14.171  12.489   2.870
40575SOL    HW123622  14.152  12.395   2.877
40575SOL    HW223623  14.158  12.522   2.959
40576SOL     OW23624  12.495   3.680   5.900
40576SOL    HW123625  12.549   3.756   5.921
40576SOL    HW223626  12.441   3.666   5.978
40577SOL     OW23627   7.299  13.865   4.447
40577SOL    HW123628   7.389  13.833   4.445
40577SOL    HW223629   7.305  13.954   4.412
40578SOL     OW23630   0.693  11.099  11.778
40578SOL    HW123631   0.668  11.103  11.870
40578SOL    HW223632   0.664  11.013  11.748
40579SOL     OW23633   6.049   5.103   1.006
40579SOL    HW123634   6.064   5.029   0.946
40579SOL    HW223635   6.125   5.160   0.992
40580SOL     OW23636  14.156   9.893   6.614
40580SOL    HW123637  14.096   9.844   6.558
40580SOL    HW223638  14.240   9.892   6.568
40581SOL     OW23639  12.721   2.285   4.094
40581SOL    HW123640  12.697   2.299   4.186
40581SOL    HW223641  12.641   2.250   4.054
40582SOL     OW23642   5.631  11.080   8.899
40582SOL    HW123643   5.682  11.062   8.820
40582SOL    HW223644   5.595  10.994   8.923
40583SOL     OW23645   5.277  14.430   9.770
40583SOL    HW123646   5.256  14.486   9.845
40583SOL    HW223647   5.199  14.376   9.758
40584SOL     OW23648  11.864  14.527   8.801
40584SOL    HW123649  11.871  14.449   8.746
40584SOL    HW223650  11.905  14.596   8.750
40585SOL     OW23651   5.302   7.310   8.256
40585SOL    HW123652   5.282   7.305   8.162
40585SOL    HW223653   5.306   7.219   8.285
40586SOL     OW23654   6.678  13.756   2.881
40586SOL    HW123655   6.698  13.793   2.795
40586SOL    HW223656   6.698  13.826   2.943
40587SOL     OW23657  12.614  13.053   6.485
40587SOL    HW123658  12.542  12.997   6.456
40587SOL    HW223659  12.676  12.993   6.526
40588SOL     OW23660   7.031   1.432   9.714
40588SOL    HW123661   7.084   1.511   9.716
40588SOL    HW223662   7.080   1.368   9.766
40589SOL     OW23663   1.830   9.783   7.267
40589SOL    HW123664   1.898   9.730   7.309
40589SOL    HW223665   1.806   9.848   7.332
40590SOL     OW23666   8.685   6.065   7.744
40590SOL    HW123667   8.680   6.148   7.790
40590SOL    HW223668   8.680   6.088   7.651
40591SOL     OW23669   3.397   8.276   9.320
40591SOL    HW123670   3.421   8.352   9.373
40591SOL    HW223671   3.448   8.285   9.240
40592SOL     OW23672   9.720  10.252   0.302
40592SOL    HW123673   9.773  10.225   0.227
40592SOL    HW223674   9.676  10.332   0.274
40593SOL     OW23675  14.415   4.101  13.740
40593SOL    HW123676  14.348   4.154  13.696
40593SOL    HW223677  14.497   4.143  13.716
40594SOL     OW23678   0.187   5.180   8.846
40594SOL    HW123679   0.185   5.116   8.774
40594SOL    HW223680   0.180   5.127   8.925
40595SOL     OW23681   9.774   5.084   9.793
40595SOL    HW123682   9.760   5.010   9.735
40595SOL    HW223683   9.772   5.161   9.736
40596SOL     OW23684   0.255   3.504   0.303
40596SOL    HW123685   0.264   3.591   0.343
40596SOL    HW223686   0.218   3.450   0.373
40597SOL     OW23687   5.597   5.456   0.740
40597SOL    HW123688   5.680   5.441   0.694
40597SOL    HW223689   5.555   5.527   0.692
40598SOL     OW23690   4.815  13.143  11.505
40598SOL    HW123691   4.904  13.159  11.474
40598SOL    HW223692   4.823  13.148  11.601
40599SOL     OW23693   0.184  14.237  10.301
40599SOL    HW123694   0.090  14.221  10.311
40599SOL    HW223695   0.190  14.314  10.244
40600SOL     OW23696   1.624   7.132  14.343
40600SOL    HW123697   1.642   7.213  14.391
40600SOL    HW223698   1.532   7.113  14.362
40601SOL     OW23699   2.451   3.286  14.366
40601SOL    HW123700   2.477   3.311  14.454
40601SOL    HW223701   2.517   3.223  14.337
40602SOL     OW23702   8.377   5.410   4.258
40602SOL    HW123703   8.387   5.504   4.245
40602SOL    HW223704   8.353   5.401   4.351
40603SOL     OW23705  10.707  11.128   6.978
40603SOL    HW123706  10.614  11.110   6.965
40603SOL    HW223707  10.730  11.081   7.058
40604SOL     OW23708   9.675  13.114   3.375
40604SOL    HW123709   9.725  13.086   3.298
40604SOL    HW223710   9.595  13.154   3.339
40605SOL     OW23711   3.721  11.249   0.200
40605SOL    HW123712   3.695  11.303   0.275
40605SOL    HW223713   3.778  11.306   0.149
40606SOL     OW23714  11.779   7.533  12.518
40606SOL    HW123715  11.710   7.467  12.528
40606SOL    HW223716  11.794   7.538  12.423
40607SOL     OW23717  10.485  11.426   2.026
40607SOL    HW123718  10.573  11.407   2.060
40607SOL    HW223719  10.482  11.522   2.022
40608SOL     OW23720  11.035   8.632   5.688
40608SOL    HW123721  11.083   8.661   5.766
40608SOL    HW223722  11.029   8.537   5.696
40609SOL     OW23723   7.307   3.677   5.320
40609SOL    HW123724   7.257   3.691   5.401
40609SOL    HW223725   7.243   3.692   5.250
40610SOL     OW23726   2.499  11.449  10.215
40610SOL    HW123727   2.531  11.359  10.215
40610SOL    HW223728   2.549  11.492  10.146
40611SOL     OW23729   3.916  14.845   5.435
40611SOL    HW123730   3.877  14.762   5.464
40611SOL    HW223731   3.878  14.860   5.349
40612SOL     OW23732  13.287   3.769   6.526
40612SOL    HW123733  13.272   3.682   6.489
40612SOL    HW223734  13.290   3.755   6.620
40613SOL     OW23735   3.061   5.876   1.026
40613SOL    HW123736   3.000   5.932   1.074
40613SOL    HW223737   3.091   5.812   1.090
40614SOL     OW23738   2.916   4.493   7.504
40614SOL    HW123739   2.934   4.576   7.460
40614SOL    HW223740   2.822   4.479   7.493
40615SOL     OW23741  10.586   3.074   4.603
40615SOL    HW123742  10.561   3.116   4.520
40615SOL    HW223743  10.532   3.118   4.669
40616SOL     OW23744   5.826  12.587   4.936
40616SOL    HW123745   5.844  12.494   4.925
40616SOL    HW223746   5.896  12.619   4.993
40617SOL     OW23747   7.597  13.163   1.696
40617SOL    HW123748   7.579  13.202   1.781
40617SOL    HW223749   7.661  13.222   1.655
40618SOL     OW23750   0.814  11.660  12.609
40618SOL    HW123751   0.843  11.569  12.597
40618SOL    HW223752   0.779  11.685  12.523
40619SOL     OW23753   0.465  12.727   8.678
40619SOL    HW123754   0.458  12.670   8.754
40619SOL    HW223755   0.445  12.671   8.603
40620SOL     OW23756   2.895   0.998  10.365
40620SOL    HW123757   2.967   1.046  10.406
40620SOL    HW223758   2.928   0.909  10.355
40621SOL     OW23759   1.035   7.197   5.280
40621SOL    HW123760   0.953   7.159   5.311
40621SOL    HW223761   1.103   7.143   5.321
40622SOL     OW23762   0.860   3.344   0.199
40622SOL    HW123763   0.785   3.302   0.158
40622SOL    HW223764   0.822   3.414   0.253
40623SOL     OW23765  14.065   7.348   6.946
40623SOL    HW123766  14.054   7.272   7.004
40623SOL    HW223767  14.017   7.419   6.989
40624SOL     OW23768   5.530  13.078  13.875
40624SOL    HW123769   5.623  13.079  13.900
40624SOL    HW223770   5.512  12.987  13.851
40625SOL     OW23771   1.855   9.643  14.034
40625SOL    HW123772   1.790   9.579  14.066
40625SOL    HW223773   1.821   9.728  14.062
40626SOL     OW23774   4.944  11.109   8.060
40626SOL    HW123775   4.871  11.068   8.014
40626SOL    HW223776   5.009  11.040   8.071
40627SOL     OW23777   0.131   0.406   3.644
40627SOL    HW123778   0.169   0.455   3.717
40627SOL    HW223779   0.047   0.449   3.627
40628SOL     OW23780   5.081   9.210   0.355
40628SOL    HW123781   5.124   9.125   0.352
40628SOL    HW223782   5.103   9.251   0.271
40629SOL     OW23783   3.112   8.829   2.578
40629SOL    HW123784   3.101   8.905   2.522
40629SOL    HW223785   3.125   8.756   2.518
40630SOL     OW23786   0.870   7.493   0.865
40630SOL    HW123787   0.814   7.552   0.915
40630SOL    HW223788   0.905   7.433   0.931
40631SOL     OW23789   2.941   2.546  13.403
40631SOL    HW123790   2.911   2.582  13.320
40631SOL    HW223791   3.026   2.507  13.384
40632SOL     OW23792  13.307   2.144   5.016
40632SOL    HW123793  13.283   2.177   5.103
40632SOL    HW223794  13.402   2.147   5.014
40633SOL     OW23795   7.601   8.992   4.310
40633SOL    HW123796   7.568   8.903   4.319
40633SOL    HW223797   7.608   9.005   4.215
40634SOL     OW23798  14.014  13.856   1.583
40634SOL    HW123799  13.986  13.917   1.652
40634SOL    HW223800  14.024  13.772   1.629
40635SOL     OW23801  12.303   7.941   9.114
40635SOL    HW123802  12.383   7.990   9.094
40635SOL    HW223803  12.311   7.919   9.207
40636SOL     OW23804   9.191   1.555   7.304
40636SOL    HW123805   9.158   1.622   7.244
40636SOL    HW223806   9.254   1.602   7.358
40637SOL     OW23807  12.215   6.269  10.112
40637SOL    HW123808  12.148   6.239  10.173
40637SOL    HW223809  12.171   6.334  10.057
40638SOL     OW23810   0.336  14.092   7.171
40638SOL    HW123811   0.429  14.098   7.195
40638SOL    HW223812   0.331  14.139   7.087
40639SOL     OW23813   0.936   0.075   0.429
40639SOL    HW123814   0.943   0.004   0.493
40639SOL    HW223815   1.008   0.060   0.369
40640SOL     OW23816  11.510  11.967  12.100
40640SOL    HW123817  11.428  11.922  12.117
40640SOL    HW223818  11.544  11.989  12.187
40641SOL     OW23819   8.268   4.319   7.304
40641SOL    HW123820   8.203   4.376   7.346
40641SOL    HW223821   8.231   4.302   7.217
40642SOL     OW23822   7.155   8.379   3.241
40642SOL    HW123823   7.084   8.441   3.255
40642SOL    HW223824   7.193   8.366   3.328
40643SOL     OW23825   9.174   4.561   4.435
40643SOL    HW123826   9.156   4.646   4.476
40643SOL    HW223827   9.123   4.562   4.354
40644SOL     OW23828   6.211   5.675  12.172
40644SOL    HW123829   6.132   5.661  12.119
40644SOL    HW223830   6.201   5.764  12.206
40645SOL     OW23831   7.069   4.970   8.812
40645SOL    HW123832   7.059   5.056   8.772
40645SOL    HW223833   7.015   4.974   8.891
40646SOL     OW23834   3.922   5.831   4.169
40646SOL    HW123835   3.963   5.915   4.148
40646SOL    HW223836   3.936   5.778   4.090
40647SOL     OW23837  14.771  10.993   8.333
40647SOL    HW123838  14.795  11.084   8.311
40647SOL    HW223839  14.832  10.968   8.402
40648SOL     OW23840   9.377   6.886   5.612
40648SOL    HW123841   9.338   6.904   5.698
40648SOL    HW223842   9.325   6.939   5.551
40649SOL     OW23843   6.629   6.247   5.709
40649SOL    HW123844   6.574   6.213   5.638
40649SOL    HW223845   6.716   6.213   5.691
40650SOL     OW23846   9.277  12.332   9.269
40650SOL    HW123847   9.245  12.266   9.330
40650SOL    HW223848   9.240  12.306   9.185
40651SOL     OW23849   2.267   4.772   9.647
40651SOL    HW123850   2.224   4.806   9.569
40651SOL    HW223851   2.255   4.677   9.643
40652SOL     OW23852   2.270   9.829  10.478
40652SOL    HW123853   2.331   9.884  10.528
40652SOL    HW223854   2.223   9.779  10.545
40653SOL     OW23855  12.979   0.868   9.647
40653SOL    HW123856  13.032   0.883   9.725
40653SOL    HW223857  13.029   0.908   9.576
40654SOL     OW23858  13.286  12.274   0.389
40654SOL    HW123859  13.317  12.226   0.313
40654SOL    HW223860  13.253  12.207   0.449
40655SOL     OW23861   0.592   2.094  11.651
40655SOL    HW123862   0.559   2.180  11.626
40655SOL    HW223863   0.680   2.111  11.685
40656SOL     OW23864   0.018  10.520   2.207
40656SOL    HW123865   0.079  10.594   2.210
40656SOL    HW223866   0.058  10.454   2.262
40657SOL     OW23867   3.731   4.860   9.491
40657SOL    HW123868   3.767   4.771   9.495
40657SOL    HW223869   3.740   4.886   9.399
40658SOL     OW23870   7.550   3.134  13.482
40658SOL    HW123871   7.468   3.105  13.522
40658SOL    HW223872   7.525   3.207  13.426
40659SOL     OW23873   1.058   0.095   8.924
40659SOL    HW123874   1.081   0.174   8.973
40659SOL    HW223875   1.110   0.101   8.844
40660SOL     OW23876   9.420  14.711   7.826
40660SOL    HW123877   9.341  14.713   7.880
40660SOL    HW223878   9.417  14.792   7.775
40661SOL     OW23879   0.820  10.125   6.548
40661SOL    HW123880   0.732  10.089   6.535
40661SOL    HW223881   0.805  10.213   6.581
40662SOL     OW23882   1.091  14.368   5.261
40662SOL    HW123883   1.004  14.386   5.296
40662SOL    HW223884   1.076  14.303   5.192
40663SOL     OW23885  12.270   7.459   6.270
40663SOL    HW123886  12.236   7.537   6.314
40663SOL    HW223887  12.212   7.388   6.297
40664SOL     OW23888  14.702  12.245   4.768
40664SOL    HW123889  14.706  12.239   4.863
40664SOL    HW223890  14.748  12.327   4.747
40665SOL     OW23891   3.712   8.115  12.380
40665SOL    HW123892   3.722   8.184  12.446
40665SOL    HW223893   3.630   8.136  12.335
40666SOL     OW23894   1.682   1.128   3.601
40666SOL    HW123895   1.664   1.208   3.552
40666SOL    HW223896   1.713   1.065   3.535
40667SOL     OW23897   2.468   4.587   2.764
40667SOL    HW123898   2.481   4.532   2.687
40667SOL    HW223899   2.375   4.611   2.760
40668SOL     OW23900   2.474   3.439   6.287
40668SOL    HW123901   2.443   3.524   6.256
40668SOL    HW223902   2.526   3.460   6.365
40669SOL     OW23903   6.350   2.113  12.706
40669SOL    HW123904   6.281   2.143  12.765
40669SOL    HW223905   6.372   2.025  12.737
40670SOL     OW23906  11.296  11.392  11.859
40670SOL    HW123907  11.277  11.483  11.883
40670SOL    HW223908  11.282  11.342  11.940
40671SOL     OW23909   7.775   3.325   5.951
40671SOL    HW123910   7.815   3.346   6.035
40671SOL    HW223911   7.749   3.410   5.915
40672SOL     OW23912   8.351   5.060  14.044
40672SOL    HW123913   8.350   5.056  13.949
40672SOL    HW223914   8.385   5.148  14.064
40673SOL     OW23915   9.856   9.104   6.434
40673SOL    HW123916   9.791   9.137   6.496
40673SOL    HW223917   9.903   9.036   6.482
40674SOL     OW23918   8.045   7.724   7.468
40674SOL    HW123919   7.971   7.692   7.520
40674SOL    HW223920   8.064   7.653   7.407
40675SOL     OW23921   1.157   0.115   4.437
40675SOL    HW123922   1.183   0.135   4.527
40675SOL    HW223923   1.136   0.022   4.439
40676SOL     OW23924   7.569  13.849   4.181
40676SOL    HW123925   7.615  13.787   4.124
40676SOL    HW223926   7.636  13.911   4.209
40677SOL     OW23927  12.244   4.856  14.415
40677SOL    HW123928  12.243   4.951  14.405
40677SOL    HW223929  12.180   4.824  14.351
40678SOL     OW23930   2.753  14.668  13.537
40678SOL    HW123931   2.796  14.731  13.594
40678SOL    HW223932   2.783  14.582  13.568
40679SOL     OW23933   7.448   4.879   6.040
40679SOL    HW123934   7.479   4.852   5.953
40679SOL    HW223935   7.422   4.971   6.028
40680SOL     OW23936   1.429   8.200   7.447
40680SOL    HW123937   1.473   8.249   7.516
40680SOL    HW223938   1.385   8.128   7.493
40681SOL     OW23939   3.713  10.331  14.750
40681SOL    HW123940   3.656  10.313  14.676
40681SOL    HW223941   3.800  10.302  14.722
40682SOL     OW23942   1.090  11.902   9.379
40682SOL    HW123943   1.040  11.973   9.338
40682SOL    HW223944   1.024  11.837   9.404
40683SOL     OW23945   0.686   4.229   0.647
40683SOL    HW123946   0.728   4.237   0.733
40683SOL    HW223947   0.717   4.145   0.614
40684SOL     OW23948  13.654  12.326   5.356
40684SOL    HW123949  13.712  12.253   5.375
40684SOL    HW223950  13.661  12.382   5.434
40685SOL     OW23951   7.673   3.450  12.385
40685SOL    HW123952   7.620   3.402  12.322
40685SOL    HW223953   7.655   3.409  12.469
40686SOL     OW23954  10.937  13.039   4.304
40686SOL    HW123955  10.856  13.079   4.335
40686SOL    HW223956  10.948  12.961   4.358
40687SOL     OW23957  12.998   2.190  13.802
40687SOL    HW123958  12.965   2.247  13.733
40687SOL    HW223959  13.090   2.214  13.812
40688SOL     OW23960  11.939   9.736   5.141
40688SOL    HW123961  11.844   9.730   5.135
40688SOL    HW223962  11.971   9.669   5.081
40689SOL     OW23963   0.241   0.224  14.101
40689SOL    HW123964   0.259   0.177  14.019
40689SOL    HW223965   0.262   0.161  14.170
40690SOL     OW23966  11.033   9.895   7.512
40690SOL    HW123967  11.112   9.925   7.468
40690SOL    HW223968  11.051   9.909   7.605
40691SOL     OW23969   7.337   4.059  11.066
40691SOL    HW123970   7.255   4.108  11.065
40691SOL    HW223971   7.378   4.082  11.149
40692SOL     OW23972   6.978  13.961   5.426
40692SOL    HW123973   6.922  13.918   5.490
40692SOL    HW223974   6.921  14.027   5.385
40693SOL     OW23975   5.753   0.307   6.478
40693SOL    HW123976   5.726   0.217   6.496
40693SOL    HW223977   5.848   0.302   6.469
40694SOL     OW23978   8.540   4.797  12.999
40694SOL    HW123979   8.523   4.742  13.074
40694SOL    HW223980   8.621   4.763  12.961
40695SOL     OW23981   7.167   5.669   6.938
40695SOL    HW123982   7.082   5.712   6.948
40695SOL    HW223983   7.165   5.633   6.850
40696SOL     OW23984  14.279   0.085  10.305
40696SOL    HW123985  14.371   0.112  10.314
40696SOL    HW223986  14.256   0.053  10.393
40697SOL     OW23987   6.012   9.327  13.059
40697SOL    HW123988   6.048   9.412  13.083
40697SOL    HW223989   5.949   9.307  13.128
40698SOL     OW23990   2.496   3.611   3.305
40698SOL    HW123991   2.571   3.554   3.290
40698SOL    HW223992   2.420   3.558   3.279
40699SOL     OW23993   1.100   9.918   3.635
40699SOL    HW123994   1.048   9.840   3.655
40699SOL    HW223995   1.160   9.926   3.709
40700SOL     OW23996  14.492   7.188   6.107
40700SOL    HW123997  14.489   7.096   6.082
40700SOL    HW223998  14.428   7.196   6.178
40701SOL     OW23999   5.869   5.503   0.590
40701SOL    HW124000   5.867   5.598   0.601
40701SOL    HW224001   5.841   5.489   0.500
40702SOL     OW24002  14.494   3.983   5.800
40702SOL    HW124003  14.526   3.926   5.730
40702SOL    HW224004  14.573   4.024   5.836
40703SOL     OW24005   5.612   5.555   4.647
40703SOL    HW124006   5.523   5.518   4.653
40703SOL    HW224007   5.647   5.518   4.566
40704SOL     OW24008   5.504  12.298   6.576
40704SOL    HW124009   5.566  12.342   6.517
40704SOL    HW224010   5.423  12.291   6.526
40705SOL     OW24011  11.500  10.468   9.588
40705SOL    HW124012  11.492  10.535   9.520
40705SOL    HW224013  11.490  10.385   9.541
40706SOL     OW24014   0.942  13.665   8.764
40706SOL    HW124015   0.977  13.607   8.697
40706SOL    HW224016   0.920  13.607   8.837
40707SOL     OW24017   5.785   5.801   9.140
40707SOL    HW124018   5.728   5.740   9.188
40707SOL    HW224019   5.790   5.765   9.052
40708SOL     OW24020   0.870   7.086   3.724
40708SOL    HW124021   0.852   7.032   3.647
40708SOL    HW224022   0.801   7.062   3.786
40709SOL     OW24023   0.470   9.652   0.161
40709SOL    HW124024   0.377   9.636   0.144
40709SOL    HW224025   0.493   9.723   0.101
40710SOL     OW24026   5.052   0.163  12.240
40710SOL    HW124027   5.086   0.083  12.279
40710SOL    HW224028   5.061   0.150  12.146
40711SOL     OW24029   0.026  10.507   1.414
40711SOL    HW124030   0.044  10.527   1.506
40711SOL    HW224031  14.813  10.485   1.412
40712SOL     OW24032   6.587   6.235   0.353
40712SOL    HW124033   6.541   6.318   0.361
40712SOL    HW224034   6.566   6.188   0.434
40713SOL     OW24035   9.989   4.600  13.958
40713SOL    HW124036   9.913   4.542  13.969
40713SOL    HW224037  10.052   4.548  13.908
40714SOL     OW24038  10.236  13.775   0.913
40714SOL    HW124039  10.288  13.775   0.993
40714SOL    HW224040  10.277  13.709   0.857
40715SOL     OW24041   2.792   5.345  11.164
40715SOL    HW124042   2.819   5.307  11.080
40715SOL    HW224043   2.720   5.403  11.141
40716SOL     OW24044   5.110   5.350   4.485
40716SOL    HW124045   5.054   5.313   4.417
40716SOL    HW224046   5.075   5.437   4.501
40717SOL     OW24047   5.811   4.600   6.746
40717SOL    HW124048   5.764   4.646   6.815
40717SOL    HW224049   5.746   4.541   6.707
40718SOL     OW24050   8.337  11.229   6.160
40718SOL    HW124051   8.312  11.320   6.175
40718SOL    HW224052   8.253  11.182   6.157
40719SOL     OW24053   9.723   9.606   7.598
40719SOL    HW124054   9.662   9.653   7.542
40719SOL    HW224055   9.731   9.520   7.558
40720SOL     OW24056  11.225   1.573   9.959
40720SOL    HW124057  11.316   1.552   9.980
40720SOL    HW224058  11.178   1.561  10.041
40721SOL     OW24059  10.908  10.000   2.393
40721SOL    HW124060  10.973   9.936   2.363
40721SOL    HW224061  10.958  10.081   2.403
40722SOL     OW24062   4.687  11.151   3.790
40722SOL    HW124063   4.715  11.059   3.786
40722SOL    HW224064   4.695  11.182   3.699
40723SOL     OW24065  12.459   1.793   8.862
40723SOL    HW124066  12.457   1.858   8.792
40723SOL    HW224067  12.498   1.839   8.937
40724SOL     OW24068  13.541   2.711   8.822
40724SOL    HW124069  13.501   2.698   8.907
40724SOL    HW224070  13.530   2.627   8.777
40725SOL     OW24071  11.286  13.751   0.826
40725SOL    HW124072  11.257  13.784   0.741
40725SOL    HW224073  11.370  13.708   0.808
40726SOL     OW24074  14.247   2.421   6.846
40726SOL    HW124075  14.250   2.337   6.800
40726SOL    HW224076  14.184   2.473   6.796
40727SOL     OW24077  13.442   3.681   7.300
40727SOL    HW124078  13.368   3.629   7.270
40727SOL    HW224079  13.515   3.619   7.306
40728SOL     OW24080   4.017  12.958   2.352
40728SOL    HW124081   4.101  12.918   2.374
40728SOL    HW224082   3.975  12.895   2.293
40729SOL     OW24083   3.958  14.619   4.318
40729SOL    HW124084   3.943  14.526   4.301
40729SOL    HW224085   3.888  14.644   4.378
40730SOL     OW24086   3.482  14.153   1.385
40730SOL    HW124087   3.458  14.243   1.406
40730SOL    HW224088   3.505  14.113   1.469
40731SOL     OW24089   0.021   0.204   5.042
40731SOL    HW124090   0.081   0.151   5.095
40731SOL    HW224091   0.061   0.208   4.956
40732SOL     OW24092  14.682  10.887  10.258
40732SOL    HW124093  14.638  10.822  10.203
40732SOL    HW224094  14.679  10.850  10.346
40733SOL     OW24095   6.254   8.171   6.642
40733SOL    HW124096   6.312   8.175   6.718
40733SOL    HW224097   6.204   8.253   6.646
40734SOL     OW24098   8.451  12.446  13.759
40734SOL    HW124099   8.433  12.529  13.714
40734SOL    HW224100   8.518  12.468  13.823
40735SOL     OW24101  11.357   5.159   0.099
40735SOL    HW124102  11.379   5.169   0.191
40735SOL    HW224103  11.385   5.070   0.077
40736SOL     OW24104   3.370   5.870   6.384
40736SOL    HW124105   3.414   5.797   6.341
40736SOL    HW224106   3.340   5.926   6.313
40737SOL     OW24107  13.562   3.797   9.691
40737SOL    HW124108  13.602   3.876   9.656
40737SOL    HW224109  13.511   3.761   9.618
40738SOL     OW24110  11.777   9.600  14.033
40738SOL    HW124111  11.862   9.635  14.008
40738SOL    HW224112  11.767   9.520  13.982
40739SOL     OW24113  10.624  12.818  12.875
40739SOL    HW124114  10.577  12.851  12.798
40739SOL    HW224115  10.717  12.821  12.850
40740SOL     OW24116  14.456   7.791  10.397
40740SOL    HW124117  14.421   7.746  10.320
40740SOL    HW224118  14.502   7.724  10.447
40741SOL     OW24119   0.255   2.615  14.578
40741SOL    HW124120   0.330   2.582  14.628
40741SOL    HW224121   0.215   2.682  14.634
40742SOL     OW24122   4.518  13.978  12.575
40742SOL    HW124123   4.517  13.982  12.480
40742SOL    HW224124   4.538  13.887  12.596
40743SOL     OW24125  11.110  12.452   6.151
40743SOL    HW124126  11.027  12.499   6.139
40743SOL    HW224127  11.085  12.369   6.192
40744SOL     OW24128   0.915   8.624   5.855
40744SOL    HW124129   0.887   8.554   5.914
40744SOL    HW224130   0.923   8.582   5.769
40745SOL     OW24131   9.335   8.955   5.413
40745SOL    HW124132   9.348   8.965   5.318
40745SOL    HW224133   9.410   8.999   5.452
40746SOL     OW24134   0.610   2.282  13.021
40746SOL    HW124135   0.591   2.195  12.986
40746SOL    HW224136   0.558   2.287  13.102
40747SOL     OW24137   9.816   4.492   9.728
40747SOL    HW124138   9.831   4.439   9.650
40747SOL    HW224139   9.795   4.429   9.797
40748SOL     OW24140   4.319   8.595   3.136
40748SOL    HW124141   4.380   8.542   3.187
40748SOL    HW224142   4.239   8.543   3.133
40749SOL     OW24143  10.335  11.725  12.688
40749SOL    HW124144  10.331  11.808  12.737
40749SOL    HW224145  10.287  11.663  12.743
40750SOL     OW24146   5.907   6.851  13.218
40750SOL    HW124147   5.997   6.881  13.205
40750SOL    HW224148   5.857   6.894  13.148
40751SOL     OW24149   9.256   2.527   1.379
40751SOL    HW124150   9.214   2.610   1.353
40751SOL    HW224151   9.268   2.535   1.473
40752SOL     OW24152   9.403  14.153  14.828
40752SOL    HW124153   9.346  14.157   0.025
40752SOL    HW224154   9.393  14.063  14.796
40753SOL     OW24155   7.031  12.766   7.868
40753SOL    HW124156   7.054  12.858   7.872
40753SOL    HW224157   7.114  12.720   7.879
40754SOL     OW24158   8.671   9.077   7.687
40754SOL    HW124159   8.711   9.039   7.609
40754SOL    HW224160   8.722   9.041   7.760
40755SOL     OW24161   7.591   5.327   0.873
40755SOL    HW124162   7.580   5.405   0.927
40755SOL    HW224163   7.686   5.318   0.862
40756SOL     OW24164  13.086   1.571  14.329
40756SOL    HW124165  13.154   1.504  14.333
40756SOL    HW224166  13.033   1.547  14.253
40757SOL     OW24167  13.341  10.804  10.268
40757SOL    HW124168  13.303  10.742  10.206
40757SOL    HW224169  13.433  10.778  10.274
40758SOL     OW24170   1.949   0.694   9.957
40758SOL    HW124171   2.018   0.729  10.012
40758SOL    HW224172   1.925   0.611   9.998
40759SOL     OW24173  12.897   6.881   2.882
40759SOL    HW124174  12.950   6.855   2.958
40759SOL    HW224175  12.807   6.860   2.907
40760SOL     OW24176   4.439  10.951   3.166
40760SOL    HW124177   4.470  10.912   3.084
40760SOL    HW224178   4.387  10.882   3.207
40761SOL     OW24179   4.308  11.493   0.135
40761SOL    HW124180   4.379  11.536   0.087
40761SOL    HW224181   4.285  11.417   0.081
40762SOL     OW24182  10.420   9.850   3.235
40762SOL    HW124183  10.459   9.805   3.160
40762SOL    HW224184  10.343   9.797   3.256
40763SOL     OW24185  13.522  14.219  12.843
40763SOL    HW124186  13.514  14.151  12.775
40763SOL    HW224187  13.435  14.258  12.848
40764SOL     OW24188   0.002   2.941   8.246
40764SOL    HW124189   0.049   2.940   8.163
40764SOL    HW224190   0.070   2.941   8.313
40765SOL     OW24191   6.115   1.475   8.792
40765SOL    HW124192   6.032   1.448   8.753
40765SOL    HW224193   6.109   1.570   8.798
40766SOL     OW24194  14.650  10.540   7.314
40766SOL    HW124195  14.738  10.531   7.352
40766SOL    HW224196  14.633  10.634   7.315
40767SOL     OW24197  14.075  11.642   7.721
40767SOL    HW124198  14.134  11.705   7.763
40767SOL    HW224199  14.124  11.611   7.644
40768SOL     OW24200   6.305  10.259   6.239
40768SOL    HW124201   6.221  10.304   6.240
40768SOL    HW224202   6.370  10.329   6.230
40769SOL     OW24203   1.444   8.381   2.958
40769SOL    HW124204   1.410   8.299   2.923
40769SOL    HW224205   1.370   8.442   2.953
40770SOL     OW24206   2.743  13.001  14.358
40770SOL    HW124207   2.749  13.046  14.442
40770SOL    HW224208   2.666  12.944  14.367
40771SOL     OW24209   1.310   3.374   1.620
40771SOL    HW124210   1.311   3.469   1.606
40771SOL    HW224211   1.299   3.364   1.714
40772SOL     OW24212   2.688   7.547   5.978
40772SOL    HW124213   2.753   7.565   5.910
40772SOL    HW224214   2.674   7.453   5.975
40773SOL     OW24215  11.172   5.041   0.269
40773SOL    HW124216  11.200   5.093   0.194
40773SOL    HW224217  11.252   5.027   0.320
40774SOL     OW24218   0.952   2.028   9.030
40774SOL    HW124219   0.939   1.934   9.016
40774SOL    HW224220   1.047   2.039   9.033
40775SOL     OW24221   2.330   3.636  10.991
40775SOL    HW124222   2.292   3.617  10.905
40775SOL    HW224223   2.367   3.724  10.982
40776SOL     OW24224  10.427   1.024   9.881
40776SOL    HW124225  10.446   1.080   9.805
40776SOL    HW224226  10.424   0.935   9.844
40777SOL     OW24227   1.716   1.773   3.534
40777SOL    HW124228   1.679   1.716   3.467
40777SOL    HW224229   1.750   1.848   3.486
40778SOL     OW24230   8.318   7.121  12.315
40778SOL    HW124231   8.306   7.028  12.336
40778SOL    HW224232   8.255   7.166  12.371
40779SOL     OW24233   0.600   4.604  14.313
40779SOL    HW124234   0.689   4.596  14.278
40779SOL    HW224235   0.605   4.679  14.373
40780SOL     OW24236   0.758   7.967   9.533
40780SOL    HW124237   0.722   7.890   9.577
40780SOL    HW224238   0.797   8.019   9.604
40781SOL     OW24239  14.598   8.847   2.057
40781SOL    HW124240  14.584   8.934   2.020
40781SOL    HW224241  14.693   8.836   2.056
40782SOL     OW24242   4.138  12.147   4.835
40782SOL    HW124243   4.182  12.198   4.767
40782SOL    HW224244   4.142  12.057   4.804
40783SOL     OW24245   7.928  11.187   0.215
40783SOL    HW124246   7.875  11.265   0.232
40783SOL    HW224247   7.907  11.128   0.287
40784SOL     OW24248   2.119   0.119   0.223
40784SOL    HW124249   2.028   0.113   0.193
40784SOL    HW224250   2.112   0.133   0.317
40785SOL     OW24251   9.154  12.322  12.242
40785SOL    HW124252   9.064  12.350  12.256
40785SOL    HW224253   9.201  12.349  12.321
40786SOL     OW24254  13.513   9.851   5.857
40786SOL    HW124255  13.607   9.851   5.842
40786SOL    HW224256  13.500   9.910   5.931
40787SOL     OW24257   7.983   7.497   8.532
40787SOL    HW124258   8.010   7.556   8.461
40787SOL    HW224259   8.015   7.411   8.505
40788SOL     OW24260   2.139   7.830  12.214
40788SOL    HW124261   2.145   7.876  12.298
40788SOL    HW224262   2.055   7.784  12.218
40789SOL     OW24263  10.973   3.980   5.988
40789SOL    HW124264  10.936   4.030   6.060
40789SOL    HW224265  10.965   3.889   6.015
40790SOL     OW24266   9.204   8.710   5.076
40790SOL    HW124267   9.119   8.692   5.115
40790SOL    HW224268   9.258   8.635   5.102
40791SOL     OW24269   1.078   9.886   5.454
40791SOL    HW124270   1.081   9.962   5.395
40791SOL    HW224271   1.048   9.814   5.399
40792SOL     OW24272   6.086   7.576  10.263
40792SOL    HW124273   6.099   7.595  10.170
40792SOL    HW224274   6.049   7.656  10.299
40793SOL     OW24275  11.663  13.663   0.360
40793SOL    HW124276  11.604  13.694   0.291
40793SOL    HW224277  11.748  13.656   0.317
40794SOL     OW24278  11.458   5.567   1.949
40794SOL    HW124279  11.507   5.587   2.029
40794SOL    HW224280  11.378   5.525   1.980
40795SOL     OW24281  14.846  13.517   9.232
40795SOL    HW124282  14.787  13.592   9.241
40795SOL    HW224283  14.789  13.441   9.232
40796SOL     OW24284   0.236  11.344   9.979
40796SOL    HW124285   0.273  11.309  10.060
40796SOL    HW224286   0.248  11.275   9.915
40797SOL     OW24287   5.747   9.765   4.046
40797SOL    HW124288   5.699   9.701   4.099
40797SOL    HW224289   5.839   9.751   4.069
40798SOL     OW24290  12.762   2.774   0.199
40798SOL    HW124291  12.853   2.747   0.200
40798SOL    HW224292  12.763   2.865   0.230
40799SOL     OW24293   9.180   8.440   5.474
40799SOL    HW124294   9.184   8.533   5.497
40799SOL    HW224295   9.265   8.405   5.499
40800SOL     OW24296   2.322   9.438   3.779
40800SOL    HW124297   2.417   9.436   3.786
40800SOL    HW224298   2.292   9.359   3.825
40801SOL     OW24299   2.476  14.791  14.790
40801SOL    HW124300   2.412  14.862  14.782
40801SOL    HW224301   2.453  14.747  14.872
40802SOL     OW24302   7.825  14.120   7.097
40802SOL    HW124303   7.830  14.108   7.003
40802SOL    HW224304   7.917  14.118   7.126
40803SOL     OW24305  10.545  10.485   8.584
40803SOL    HW124306  10.550  10.577   8.557
40803SOL    HW224307  10.453  10.462   8.574
40804SOL     OW24308   7.938   8.119   7.095
40804SOL    HW124309   8.032   8.134   7.088
40804SOL    HW224310   7.906   8.121   7.005
40805SOL     OW24311   7.507  14.744   2.834
40805SOL    HW124312   7.498  14.685   2.759
40805SOL    HW224313   7.430  14.800   2.831
40806SOL     OW24314   4.147   3.434   0.901
40806SOL    HW124315   4.120   3.515   0.859
40806SOL    HW224316   4.221   3.459   0.956
40807SOL     OW24317   0.525   6.319   2.827
40807SOL    HW124318   0.510   6.367   2.909
40807SOL    HW224319   0.566   6.237   2.854
40808SOL     OW24320   1.129   5.756   1.925
40808SOL    HW124321   1.117   5.663   1.943
40808SOL    HW224322   1.197   5.784   1.987
40809SOL     OW24323   6.988  11.778   5.186
40809SOL    HW124324   6.907  11.802   5.233
40809SOL    HW224325   7.015  11.859   5.143
40810SOL     OW24326  10.989  12.824   1.541
40810SOL    HW124327  10.944  12.766   1.601
40810SOL    HW224328  10.926  12.839   1.470
40811SOL     OW24329  11.076   3.413   8.515
40811SOL    HW124330  11.059   3.422   8.609
40811SOL    HW224331  10.989   3.400   8.476
40812SOL     OW24332  10.584   9.717   6.808
40812SOL    HW124333  10.516   9.651   6.823
40812SOL    HW224334  10.605   9.751   6.895
40813SOL     OW24335  10.302   5.352   1.649
40813SOL    HW124336  10.366   5.384   1.712
40813SOL    HW224337  10.267   5.272   1.689
40814SOL     OW24338   0.357   5.197  11.145
40814SOL    HW124339   0.415   5.164  11.214
40814SOL    HW224340   0.415   5.241  11.084
40815SOL     OW24341   1.777   2.650  11.755
40815SOL    HW124342   1.729   2.594  11.693
40815SOL    HW224343   1.809   2.722  11.701
40816SOL     OW24344   6.373   8.963   0.785
40816SOL    HW124345   6.468   8.967   0.775
40816SOL    HW224346   6.355   9.009   0.866
40817SOL     OW24347   5.226   8.745  11.662
40817SOL    HW124348   5.173   8.668  11.680
40817SOL    HW224349   5.309   8.710  11.629
40818SOL     OW24350   8.078   3.956   3.729
40818SOL    HW124351   8.168   3.974   3.756
40818SOL    HW224352   8.058   4.024   3.666
40819SOL     OW24353  13.955   4.559   3.254
40819SOL    HW124354  14.015   4.517   3.192
40819SOL    HW224355  13.867   4.534   3.223
40820SOL     OW24356   4.071   7.755   8.856
40820SOL    HW124357   4.028   7.814   8.919
40820SOL    HW224358   4.001   7.695   8.829
40821SOL     OW24359  10.021   5.134   4.471
40821SOL    HW124360  10.078   5.057   4.470
40821SOL    HW224361  10.081   5.208   4.475
40822SOL     OW24362  12.573  14.325   5.123
40822SOL    HW124363  12.639  14.310   5.055
40822SOL    HW224364  12.490  14.307   5.080
40823SOL     OW24365   7.988  14.131   2.664
40823SOL    HW124366   8.077  14.126   2.629
40823SOL    HW224367   7.963  14.223   2.651
40824SOL     OW24368   7.788   2.949   0.252
40824SOL    HW124369   7.836   3.030   0.235
40824SOL    HW224370   7.785   2.905   0.167
40825SOL     OW24371   7.717  12.713   9.203
40825SOL    HW124372   7.800  12.682   9.238
40825SOL    HW224373   7.676  12.760   9.276
40826SOL     OW24374  13.960   1.821   7.113
40826SOL    HW124375  13.922   1.741   7.150
40826SOL    HW224376  14.008   1.861   7.186
40827SOL     OW24377  12.439  13.137   8.814
40827SOL    HW124378  12.455  13.105   8.903
40827SOL    HW224379  12.428  13.058   8.762
40828SOL     OW24380  12.030   0.690   4.558
40828SOL    HW124381  12.067   0.776   4.539
40828SOL    HW224382  12.058   0.671   4.648
40829SOL     OW24383  13.766   1.840  11.285
40829SOL    HW124384  13.780   1.769  11.222
40829SOL    HW224385  13.810   1.810  11.365
40830SOL     OW24386   8.007   2.128   8.624
40830SOL    HW124387   8.035   2.145   8.714
40830SOL    HW224388   8.024   2.035   8.611
40831SOL     OW24389  14.834   9.767   3.927
40831SOL    HW124390   0.049   9.774   3.926
40831SOL    HW224391  14.812   9.715   3.849
40832SOL     OW24392   1.311  11.473  14.665
40832SOL    HW124393   1.238  11.411  14.660
40832SOL    HW224394   1.375  11.430  14.722
40833SOL     OW24395   4.665   9.760   9.783
40833SOL    HW124396   4.714   9.758   9.700
40833SOL    HW224397   4.685   9.676   9.825
40834SOL     OW24398  10.603  11.604  12.664
40834SOL    HW124399  10.670  11.662  12.628
40834SOL    HW224400  10.521  11.649  12.646
40835SOL     OW24401  10.070   0.213   0.910
40835SOL    HW124402  10.078   0.226   0.815
40835SOL    HW224403  10.039   0.123   0.919
40836SOL     OW24404   0.997  12.873   3.403
40836SOL    HW124405   0.957  12.900   3.320
40836SOL    HW224406   1.051  12.948   3.428
40837SOL     OW24407  10.178   0.174  13.851
40837SOL    HW124408  10.168   0.116  13.776
40837SOL    HW224409  10.091   0.215  13.862
40838SOL     OW24410   9.556   8.571  12.718
40838SOL    HW124411   9.646   8.568  12.684
40838SOL    HW224412   9.513   8.638  12.665
40839SOL     OW24413  13.183   6.077   0.041
40839SOL    HW124414  13.242   6.002   0.040
40839SOL    HW224415  13.235   6.148   0.077
40840SOL     OW24416   2.246  13.663  10.569
40840SOL    HW124417   2.188  13.620  10.506
40840SOL    HW224418   2.214  13.634  10.654
40841SOL     OW24419   4.672   0.060   2.220
40841SOL    HW124420   4.640   0.045   2.131
40841SOL    HW224421   4.661  14.855   2.264
40842SOL     OW24422  14.352   5.598  11.948
40842SOL    HW124423  14.257   5.596  11.954
40842SOL    HW224424  14.373   5.684  11.913
40843SOL     OW24425   4.043  14.237   2.426
40843SOL    HW124426   3.983  14.215   2.355
40843SOL    HW224427   4.017  14.179   2.498
40844SOL     OW24428   4.220   3.021   6.931
40844SOL    HW124429   4.265   3.058   6.855
40844SOL    HW224430   4.170   2.948   6.896
40845SOL     OW24431   5.124   9.482   1.096
40845SOL    HW124432   5.202   9.484   1.151
40845SOL    HW224433   5.090   9.572   1.099
40846SOL     OW24434  10.352  13.473   9.680
40846SOL    HW124435  10.372  13.548   9.624
40846SOL    HW224436  10.337  13.511   9.767
40847SOL     OW24437   2.631   1.122   0.448
40847SOL    HW124438   2.691   1.062   0.492
40847SOL    HW224439   2.688   1.181   0.400
40848SOL     OW24440  10.116  12.359  13.183
40848SOL    HW124441  10.141  12.270  13.208
40848SOL    HW224442  10.062  12.348  13.105
40849SOL     OW24443   2.589  12.307   1.830
40849SOL    HW124444   2.553  12.268   1.910
40849SOL    HW224445   2.518  12.362   1.797
40850SOL     OW24446   8.106  10.018  14.626
40850SOL    HW124447   8.135  10.035  14.536
40850SOL    HW224448   8.157  10.080  14.678
40851SOL     OW24449   5.334   7.051   8.958
40851SOL    HW124450   5.276   7.121   8.988
40851SOL    HW224451   5.371   7.014   9.039
40852SOL     OW24452  10.412  13.878   0.562
40852SOL    HW124453  10.424  13.905   0.653
40852SOL    HW224454  10.491  13.908   0.517
40853SOL     OW24455  13.663   1.832  10.837
40853SOL    HW124456  13.721   1.758  10.816
40853SOL    HW224457  13.663   1.886  10.758
40854SOL     OW24458   4.652   9.353   8.077
40854SOL    HW124459   4.673   9.443   8.102
40854SOL    HW224460   4.708   9.336   8.001
40855SOL     OW24461   2.761  13.396   7.400
40855SOL    HW124462   2.739  13.386   7.308
40855SOL    HW224463   2.685  13.361   7.447
40856SOL     OW24464   1.410   6.231  11.922
40856SOL    HW124465   1.471   6.185  11.980
40856SOL    HW224466   1.393   6.314  11.966
40857SOL     OW24467   9.373  12.526  11.737
40857SOL    HW124468   9.323  12.445  11.734
40857SOL    HW224469   9.328  12.586  11.678
40858SOL     OW24470   5.489   0.619   8.832
40858SOL    HW124471   5.548   0.574   8.771
40858SOL    HW224472   5.402   0.588   8.808
40859SOL     OW24473  10.496  11.125   6.033
40859SOL    HW124474  10.576  11.075   6.050
40859SOL    HW224475  10.527  11.215   6.023
40860SOL     OW24476  10.203   6.363   0.151
40860SOL    HW124477  10.199   6.441   0.096
40860SOL    HW224478  10.170   6.292   0.096
40861SOL     OW24479   3.018  12.322  13.280
40861SOL    HW124480   2.955  12.304  13.350
40861SOL    HW224481   3.076  12.246  13.280
40862SOL     OW24482   1.521   2.999   4.461
40862SOL    HW124483   1.496   2.934   4.527
40862SOL    HW224484   1.493   3.083   4.497
40863SOL     OW24485  10.251  11.760   1.224
40863SOL    HW124486  10.338  11.751   1.184
40863SOL    HW224487  10.191  11.764   1.150
40864SOL     OW24488   4.672   8.386  11.815
40864SOL    HW124489   4.624   8.320  11.866
40864SOL    HW224490   4.620   8.395  11.735
40865SOL     OW24491   6.786   6.896   7.638
40865SOL    HW124492   6.771   6.876   7.546
40865SOL    HW224493   6.874   6.934   7.639
40866SOL     OW24494   3.383   6.273   1.310
40866SOL    HW124495   3.350   6.324   1.236
40866SOL    HW224496   3.305   6.231   1.347
40867SOL     OW24497  11.703  12.472  11.469
40867SOL    HW124498  11.654  12.552  11.485
40867SOL    HW224499  11.693  12.421  11.550
40868SOL     OW24500  12.500   1.656  13.455
40868SOL    HW124501  12.486   1.750  13.456
40868SOL    HW224502  12.512   1.634  13.363
40869SOL     OW24503   7.951   2.109   3.663
40869SOL    HW124504   7.917   2.025   3.694
40869SOL    HW224505   8.046   2.099   3.668
40870SOL     OW24506  10.842   1.797   7.675
40870SOL    HW124507  10.787   1.823   7.601
40870SOL    HW224508  10.896   1.726   7.640
40871SOL     OW24509   9.228   0.993   7.773
40871SOL    HW124510   9.296   0.948   7.723
40871SOL    HW224511   9.158   1.009   7.709
40872SOL     OW24512   3.063  11.059   5.524
40872SOL    HW124513   2.974  11.025   5.536
40872SOL    HW224514   3.100  11.061   5.612
40873SOL     OW24515   2.012   4.018  10.352
40873SOL    HW124516   2.061   4.100  10.341
40873SOL    HW224517   1.945   4.039  10.416
40874SOL     OW24518  13.595  12.986   9.027
40874SOL    HW124519  13.638  13.013   9.108
40874SOL    HW224520  13.631  12.899   9.009
40875SOL     OW24521   0.741  11.612   1.857
40875SOL    HW124522   0.782  11.599   1.943
40875SOL    HW224523   0.651  11.581   1.869
40876SOL     OW24524   8.984   5.643  12.502
40876SOL    HW124525   8.894   5.616  12.486
40876SOL    HW224526   9.037   5.572  12.466
40877SOL     OW24527   2.618   0.651  12.568
40877SOL    HW124528   2.536   0.701  12.575
40877SOL    HW224529   2.612   0.586  12.637
40878SOL     OW24530   7.435   4.657   6.225
40878SOL    HW124531   7.451   4.734   6.171
40878SOL    HW224532   7.387   4.597   6.168
40879SOL     OW24533   2.838   9.259   4.939
40879SOL    HW124534   2.867   9.327   5.000
40879SOL    HW224535   2.742   9.265   4.940
40880SOL     OW24536  10.860   8.362   3.512
40880SOL    HW124537  10.774   8.375   3.552
40880SOL    HW224538  10.842   8.321   3.427
40881SOL     OW24539   6.273  10.071  10.746
40881SOL    HW124540   6.302  10.063  10.837
40881SOL    HW224541   6.315  10.150  10.714
40882SOL     OW24542   9.822   6.383  11.899
40882SOL    HW124543   9.811   6.460  11.956
40882SOL    HW224544   9.754   6.394  11.832
40883SOL     OW24545   9.880   0.175  11.039
40883SOL    HW124546   9.926   0.242  11.089
40883SOL    HW224547   9.838   0.120  11.105
40884SOL     OW24548  14.663   7.259  14.498
40884SOL    HW124549  14.705   7.225  14.577
40884SOL    HW224550  14.589   7.311  14.530
40885SOL     OW24551   7.007   9.288  14.317
40885SOL    HW124552   6.966   9.370  14.343
40885SOL    HW224553   6.985   9.227  14.387
40886SOL     OW24554  10.752   1.007  10.748
40886SOL    HW124555  10.806   0.956  10.688
40886SOL    HW224556  10.666   1.012  10.705
40887SOL     OW24557   9.503   4.679  12.577
40887SOL    HW124558   9.460   4.654  12.496
40887SOL    HW224559   9.580   4.623  12.583
40888SOL     OW24560  11.489  11.615   0.552
40888SOL    HW124561  11.532  11.653   0.476
40888SOL    HW224562  11.534  11.532   0.567
40889SOL     OW24563  13.171   2.772   3.446
40889SOL    HW124564  13.121   2.835   3.394
40889SOL    HW224565  13.128   2.771   3.532
40890SOL     OW24566  14.601  12.308  12.292
40890SOL    HW124567  14.541  12.379  12.314
40890SOL    HW224568  14.630  12.328  12.203
40891SOL     OW24569  11.681  13.815   7.745
40891SOL    HW124570  11.699  13.727   7.776
40891SOL    HW224571  11.648  13.803   7.656
40892SOL     OW24572  13.592   2.478   6.924
40892SOL    HW124573  13.670   2.528   6.898
40892SOL    HW224574  13.620   2.428   7.000
40893SOL     OW24575  12.392   4.779  11.110
40893SOL    HW124576  12.367   4.687  11.125
40893SOL    HW224577  12.456   4.797  11.179
40894SOL     OW24578   3.322   0.276   6.832
40894SOL    HW124579   3.391   0.301   6.770
40894SOL    HW224580   3.279   0.201   6.790
40895SOL     OW24581   5.145   9.752   7.121
40895SOL    HW124582   5.228   9.776   7.163
40895SOL    HW224583   5.163   9.666   7.082
40896SOL     OW24584  12.469   7.577  11.448
40896SOL    HW124585  12.474   7.613  11.359
40896SOL    HW224586  12.484   7.483  11.436
40897SOL     OW24587  10.824  13.880   3.585
40897SOL    HW124588  10.803  13.810   3.524
40897SOL    HW224589  10.918  13.894   3.576
40898SOL     OW24590   3.381   7.552   2.039
40898SOL    HW124591   3.412   7.607   2.111
40898SOL    HW224592   3.403   7.602   1.960
40899SOL     OW24593  10.007  11.488   6.431
40899SOL    HW124594  10.067  11.435   6.483
40899SOL    HW224595   9.980  11.430   6.359
40900SOL     OW24596   8.939   6.806   4.527
40900SOL    HW124597   8.965   6.736   4.466
40900SOL    HW224598   8.845   6.796   4.535
40901SOL     OW24599   8.553  13.290   6.317
40901SOL    HW124600   8.573  13.269   6.226
40901SOL    HW224601   8.636  13.317   6.355
40902SOL     OW24602   8.713   1.408  11.179
40902SOL    HW124603   8.763   1.453  11.111
40902SOL    HW224604   8.774   1.344  11.216
40903SOL     OW24605   3.757   0.199   4.090
40903SOL    HW124606   3.821   0.157   4.148
40903SOL    HW224607   3.810   0.245   4.025
40904SOL     OW24608   9.879   6.133  11.407
40904SOL    HW124609   9.853   6.196  11.474
40904SOL    HW224610   9.962   6.097  11.439
40905SOL     OW24611   5.689   5.329   8.534
40905SOL    HW124612   5.650   5.409   8.569
40905SOL    HW224613   5.747   5.358   8.464
40906SOL     OW24614  12.024   5.690   9.305
40906SOL    HW124615  12.093   5.626   9.288
40906SOL    HW224616  12.054   5.738   9.382
40907SOL     OW24617  14.134   7.916   5.728
40907SOL    HW124618  14.132   7.955   5.815
40907SOL    HW224619  14.045   7.925   5.695
40908SOL     OW24620   8.080   1.221   5.706
40908SOL    HW124621   8.141   1.284   5.667
40908SOL    HW224622   8.043   1.174   5.631
40909SOL     OW24623   1.963   5.607   7.230
40909SOL    HW124624   1.899   5.677   7.219
40909SOL    HW224625   1.921   5.544   7.288
40910SOL     OW24626   3.513   4.198   4.074
40910SOL    HW124627   3.570   4.260   4.029
40910SOL    HW224628   3.550   4.112   4.055
40911SOL     OW24629  10.679   8.467   7.745
40911SOL    HW124630  10.642   8.554   7.731
40911SOL    HW224631  10.773   8.482   7.758
40912SOL     OW24632  10.717  12.579  13.189
40912SOL    HW124633  10.756  12.509  13.241
40912SOL    HW224634  10.627  12.585  13.220
40913SOL     OW24635   5.946  13.878  10.587
40913SOL    HW124636   6.013  13.848  10.527
40913SOL    HW224637   5.924  13.966  10.558
40914SOL     OW24638   5.476  10.019  13.902
40914SOL    HW124639   5.394  10.021  13.852
40914SOL    HW224640   5.522   9.942  13.869
40915SOL     OW24641   4.647   7.500   5.635
40915SOL    HW124642   4.720   7.441   5.615
40915SOL    HW224643   4.568   7.447   5.621
40916SOL     OW24644   0.249   8.034   9.114
40916SOL    HW124645   0.237   7.995   9.201
40916SOL    HW224646   0.329   7.992   9.080
40917SOL     OW24647   7.278   0.624  11.555
40917SOL    HW124648   7.347   0.690  11.560
40917SOL    HW224649   7.317   0.551  11.508
40918SOL     OW24650  12.774   6.931   2.225
40918SOL    HW124651  12.719   6.954   2.300
40918SOL    HW224652  12.854   6.897   2.264
40919SOL     OW24653   7.637  10.091  12.932
40919SOL    HW124654   7.552  10.131  12.950
40919SOL    HW224655   7.690  10.112  13.009
40920SOL     OW24656   9.131   2.079   4.730
40920SOL    HW124657   9.207   2.137   4.720
40920SOL    HW224658   9.064   2.118   4.674
40921SOL     OW24659  12.846   4.057  13.720
40921SOL    HW124660  12.793   4.048  13.799
40921SOL    HW224661  12.907   4.129  13.740
40922SOL     OW24662   9.389  14.154  12.690
40922SOL    HW124663   9.481  14.178  12.679
40922SOL    HW224664   9.355  14.147  12.601
40923SOL     OW24665   3.484  13.735   8.208
40923SOL    HW124666   3.422  13.791   8.163
40923SOL    HW224667   3.434  13.656   8.228
40924SOL     OW24668   7.076   8.263  13.699
40924SOL    HW124669   7.061   8.318  13.623
40924SOL    HW224670   7.087   8.324  13.772
40925SOL     OW24671   8.528   9.203   0.219
40925SOL    HW124672   8.445   9.184   0.263
40925SOL    HW224673   8.564   9.117   0.197
40926SOL     OW24674  13.895   5.526   2.635
40926SOL    HW124675  13.966   5.499   2.577
40926SOL    HW224676  13.822   5.468   2.612
40927SOL     OW24677   5.840   7.331  11.666
40927SOL    HW124678   5.923   7.377  11.678
40927SOL    HW224679   5.776   7.383  11.714
40928SOL     OW24680   0.795  11.052   1.013
40928SOL    HW124681   0.874  11.097   0.982
40928SOL    HW224682   0.827  10.988   1.077
40929SOL     OW24683  11.356   5.134  13.229
40929SOL    HW124684  11.339   5.217  13.273
40929SOL    HW224685  11.368   5.071  13.300
40930SOL     OW24686   9.902   5.240   1.210
40930SOL    HW124687   9.972   5.195   1.256
40930SOL    HW224688   9.947   5.305   1.156
40931SOL     OW24689  11.536   8.345   7.513
40931SOL    HW124690  11.450   8.377   7.542
40931SOL    HW224691  11.567   8.413   7.453
40932SOL     OW24692  13.910   6.776  10.512
40932SOL    HW124693  13.859   6.797  10.434
40932SOL    HW224694  13.961   6.698  10.487
40933SOL     OW24695   5.794   7.397   6.951
40933SOL    HW124696   5.873   7.396   6.897
40933SOL    HW224697   5.802   7.477   7.003
40934SOL     OW24698   6.109  13.044  11.186
40934SOL    HW124699   6.145  13.092  11.111
40934SOL    HW224700   6.025  13.011  11.155
40935SOL     OW24701   4.305   9.472   4.117
40935SOL    HW124702   4.240   9.476   4.187
40935SOL    HW224703   4.270   9.408   4.055
40936SOL     OW24704  10.022   3.573  11.847
40936SOL    HW124705  10.043   3.490  11.889
40936SOL    HW224706   9.985   3.627  11.917
40937SOL     OW24707   3.843  12.869   9.696
40937SOL    HW124708   3.831  12.796   9.757
40937SOL    HW224709   3.922  12.913   9.727
40938SOL     OW24710   6.422  12.361   1.460
40938SOL    HW124711   6.496  12.328   1.408
40938SOL    HW224712   6.435  12.323   1.547
40939SOL     OW24713   4.155   8.257  11.071
40939SOL    HW124714   4.134   8.169  11.040
40939SOL    HW224715   4.128   8.258  11.163
40940SOL     OW24716  14.810   4.195   4.209
40940SOL    HW124717   0.022   4.222   4.218
40940SOL    HW224718  14.808   4.106   4.242
40941SOL     OW24719   9.857   1.688   2.716
40941SOL    HW124720   9.794   1.657   2.651
40941SOL    HW224721   9.924   1.733   2.665
40942SOL     OW24722   7.721  13.871   5.374
40942SOL    HW124723   7.791  13.928   5.343
40942SOL    HW224724   7.764  13.786   5.389
40943SOL     OW24725  10.405  12.701   4.020
40943SOL    HW124726  10.487  12.749   4.028
40943SOL    HW224727  10.385  12.670   4.108
40944SOL     OW24728   7.941   8.713   4.881
40944SOL    HW124729   7.886   8.659   4.825
40944SOL    HW224730   7.991   8.651   4.934
40945SOL     OW24731  14.732   8.759   1.648
40945SOL    HW124732  14.647   8.802   1.654
40945SOL    HW224733  14.761   8.750   1.739
40946SOL     OW24734   5.500  13.887   4.105
40946SOL    HW124735   5.487  13.844   4.189
40946SOL    HW224736   5.420  13.867   4.056
40947SOL     OW24737  13.403   8.941  14.641
40947SOL    HW124738  13.482   8.911  14.686
40947SOL    HW224739  13.394   8.880  14.567
40948SOL     OW24740   2.832   3.183   6.108
40948SOL    HW124741   2.778   3.226   6.042
40948SOL    HW224742   2.858   3.253   6.168
40949SOL     OW24743  10.474  10.773   4.995
40949SOL    HW124744  10.387  10.749   5.026
40949SOL    HW224745  10.472  10.869   4.992
40950SOL     OW24746   8.670  10.463  10.310
40950SOL    HW124747   8.580  10.492  10.293
40950SOL    HW224748   8.721  10.544  10.315
40951SOL     OW24749   9.223  11.062   6.130
40951SOL    HW124750   9.212  11.030   6.220
40951SOL    HW224751   9.158  11.013   6.079
40952SOL     OW24752  13.873  13.497   3.450
40952SOL    HW124753  13.887  13.443   3.372
40952SOL    HW224754  13.783  13.480   3.476
40953SOL     OW24755  11.441   7.398  13.551
40953SOL    HW124756  11.513   7.394  13.614
40953SOL    HW224757  11.480   7.374  13.468
40954SOL     OW24758   9.962  13.505  10.446
40954SOL    HW124759   9.893  13.439  10.444
40954SOL    HW224760  10.036  13.463  10.490
40955SOL     OW24761  13.240   5.268   9.068
40955SOL    HW124762  13.331   5.291   9.051
40955SOL    HW224763  13.212   5.220   8.990
40956SOL     OW24764   2.594  10.540  10.606
40956SOL    HW124765   2.528  10.589  10.558
40956SOL    HW224766   2.612  10.464  10.551
40957SOL     OW24767   8.984   6.991  10.657
40957SOL    HW124768   9.007   7.025  10.744
40957SOL    HW224769   9.057   6.936  10.632
40958SOL     OW24770   4.291   9.434  10.321
40958SOL    HW124771   4.235   9.511  10.312
40958SOL    HW224772   4.380   9.469  10.322
40959SOL     OW24773   1.986  13.947   8.227
40959SOL    HW124774   2.010  14.032   8.191
40959SOL    HW224775   1.927  13.909   8.162
40960SOL     OW24776   9.067   0.640   2.827
40960SOL    HW124777   9.057   0.558   2.876
40960SOL    HW224778   9.132   0.620   2.760
40961SOL     OW24779  11.392   4.029  13.679
40961SOL    HW124780  11.327   4.022  13.609
40961SOL    HW224781  11.385   3.946  13.727
40962SOL     OW24782   5.933   0.085  11.895
40962SOL    HW124783   5.854   0.124  11.856
40962SOL    HW224784   6.002   0.148  11.877
40963SOL     OW24785   5.603   9.740   0.202
40963SOL    HW124786   5.639   9.801   0.266
40963SOL    HW224787   5.571   9.796   0.131
40964SOL     OW24788   8.984   5.954  10.164
40964SOL    HW124789   9.018   6.028  10.113
40964SOL    HW224790   8.993   5.878  10.107
40965SOL     OW24791   0.061   6.152   9.230
40965SOL    HW124792  14.873   6.096   9.268
40965SOL    HW224793   0.141   6.128   9.277
40966SOL     OW24794  12.377  12.454   4.585
40966SOL    HW124795  12.362  12.483   4.494
40966SOL    HW224796  12.326  12.373   4.593
40967SOL     OW24797  11.679  13.844   5.363
40967SOL    HW124798  11.659  13.844   5.269
40967SOL    HW224799  11.765  13.802   5.369
40968SOL     OW24800  11.620   2.656   5.619
40968SOL    HW124801  11.525   2.662   5.609
40968SOL    HW224802  11.632   2.619   5.706
40969SOL     OW24803   0.698   8.820  14.434
40969SOL    HW124804   0.621   8.874  14.452
40969SOL    HW224805   0.707   8.822  14.339
40970SOL     OW24806   9.130   4.789   0.418
40970SOL    HW124807   9.128   4.707   0.370
40970SOL    HW224808   9.093   4.853   0.357
40971SOL     OW24809   4.066   7.152   9.115
40971SOL    HW124810   3.988   7.208   9.128
40971SOL    HW224811   4.140   7.213   9.122
40972SOL     OW24812   4.511   6.635  14.488
40972SOL    HW124813   4.556   6.567  14.438
40972SOL    HW224814   4.579   6.699  14.509
40973SOL     OW24815   0.470  11.148   3.205
40973SOL    HW124816   0.506  11.087   3.141
40973SOL    HW224817   0.520  11.131   3.285
40974SOL     OW24818   7.107   8.219   2.724
40974SOL    HW124819   7.105   8.228   2.819
40974SOL    HW224820   7.188   8.261   2.697
40975SOL     OW24821  10.884   4.247   0.383
40975SOL    HW124822  10.922   4.297   0.311
40975SOL    HW224823  10.813   4.302   0.416
40976SOL     OW24824   5.938  13.128  14.424
40976SOL    HW124825   5.872  13.147  14.490
40976SOL    HW224826   5.986  13.053  14.458
40977SOL     OW24827   8.862   3.186   5.670
40977SOL    HW124828   8.925   3.120   5.699
40977SOL    HW224829   8.796   3.187   5.739
40978SOL     OW24830   4.342   1.538   3.681
40978SOL    HW124831   4.366   1.564   3.592
40978SOL    HW224832   4.247   1.537   3.681
40979SOL     OW24833   8.614  14.400   6.523
40979SOL    HW124834   8.616  14.464   6.451
40979SOL    HW224835   8.705  14.393   6.551
40980SOL     OW24836   3.580   4.197   1.447
40980SOL    HW124837   3.496   4.163   1.477
40980SOL    HW224838   3.611   4.252   1.518
40981SOL     OW24839   9.997  14.842   5.846
40981SOL    HW124840  10.082  14.843   5.802
40981SOL    HW224841   9.995  14.758   5.891
40982SOL     OW24842   8.342   0.624   9.824
40982SOL    HW124843   8.346   0.715   9.852
40982SOL    HW224844   8.417   0.582   9.868
40983SOL     OW24845   6.687   0.062  14.156
40983SOL    HW124846   6.693  14.853  14.120
40983SOL    HW224847   6.736   0.116  14.094
40984SOL     OW24848  12.656   7.844   2.897
40984SOL    HW124849  12.582   7.852   2.957
40984SOL    HW224850  12.701   7.929   2.904
40985SOL     OW24851   2.147   3.192  13.903
40985SOL    HW124852   2.143   3.192  13.807
40985SOL    HW224853   2.157   3.284  13.927
40986SOL     OW24854   7.536   7.108   6.350
40986SOL    HW124855   7.536   7.070   6.262
40986SOL    HW224856   7.618   7.157   6.354
40987SOL     OW24857   4.150   1.683   8.087
40987SOL    HW124858   4.087   1.706   8.019
40987SOL    HW224859   4.191   1.766   8.112
40988SOL     OW24860   1.888   1.351  11.232
40988SOL    HW124861   1.875   1.281  11.297
40988SOL    HW224862   1.983   1.361  11.227
40989SOL     OW24863  13.714  13.853  12.103
40989SOL    HW124864  13.791  13.819  12.058
40989SOL    HW224865  13.750  13.915  12.167
40990SOL     OW24866  12.518   5.527   2.913
40990SOL    HW124867  12.481   5.483   2.837
40990SOL    HW224868  12.578   5.593   2.876
40991SOL     OW24869   1.028   3.901   2.847
40991SOL    HW124870   1.061   3.991   2.846
40991SOL    HW224871   0.967   3.899   2.920
40992SOL     OW24872   1.722   9.476   2.325
40992SOL    HW124873   1.722   9.454   2.232
40992SOL    HW224874   1.635   9.450   2.355
40993SOL     OW24875   6.329  14.534   2.746
40993SOL    HW124876   6.318  14.549   2.840
40993SOL    HW224877   6.314  14.619   2.706
40994SOL     OW24878  14.140   2.140  10.827
40994SOL    HW124879  14.124   2.115  10.736
40994SOL    HW224880  14.055   2.133  10.870
40995SOL     OW24881   8.911   8.819   6.894
40995SOL    HW124882   8.971   8.773   6.953
40995SOL    HW224883   8.828   8.773   6.904
40996SOL     OW24884   4.426  12.972   9.551
40996SOL    HW124885   4.362  12.902   9.568
40996SOL    HW224886   4.421  12.987   9.457
40997SOL     OW24887   8.489   7.185   3.685
40997SOL    HW124888   8.578   7.217   3.701
40997SOL    HW224889   8.485   7.101   3.731
40998SOL     OW24890   3.601  13.887   4.244
40998SOL    HW124891   3.571  13.858   4.329
40998SOL    HW224892   3.643  13.972   4.260
40999SOL     OW24893  13.937   0.531  14.289
40999SOL    HW124894  13.906   0.549  14.200
40999SOL    HW224895  13.889   0.593  14.344
41000SOL     OW24896   0.031   0.831  14.672
41000SOL    HW124897   0.110   0.779  14.687
41000SOL    HW224898  14.853   0.807  14.745
41001SOL     OW24899   8.816  13.869  13.962
41001SOL    HW124900   8.830  13.873  14.056
41001SOL    HW224901   8.903  13.874  13.923
41002SOL     OW24902   4.546   3.282  13.991
41002SOL    HW124903   4.499   3.244  14.066
41002SOL    HW224904   4.524   3.226  13.917
41003SOL     OW24905   6.651   3.977   2.880
41003SOL    HW124906   6.589   3.961   2.809
41003SOL    HW224907   6.614   3.929   2.955
41004SOL     OW24908   2.434  13.374   9.700
41004SOL    HW124909   2.426  13.382   9.795
41004SOL    HW224910   2.381  13.445   9.665
41005SOL     OW24911   7.254  12.241   7.346
41005SOL    HW124912   7.236  12.148   7.339
41005SOL    HW224913   7.190  12.274   7.409
41006SOL     OW24914  13.291  11.320   4.876
41006SOL    HW124915  13.381  11.354   4.872
41006SOL    HW224916  13.237  11.397   4.896
41007SOL     OW24917   4.219  13.427   2.302
41007SOL    HW124918   4.285  13.496   2.304
41007SOL    HW224919   4.170  13.439   2.384
41008SOL     OW24920   1.431  11.644   5.500
41008SOL    HW124921   1.389  11.695   5.569
41008SOL    HW224922   1.497  11.593   5.546
41009SOL     OW24923   4.695   8.443   6.296
41009SOL    HW124924   4.673   8.364   6.346
41009SOL    HW224925   4.624   8.452   6.232
41010SOL     OW24926   7.976  11.687   0.247
41010SOL    HW124927   8.042  11.678   0.316
41010SOL    HW224928   7.903  11.731   0.290
41011SOL     OW24929  14.158  13.040   4.741
41011SOL    HW124930  14.086  13.101   4.757
41011SOL    HW224931  14.173  12.999   4.826
41012SOL     OW24932   3.774   0.645   7.265
41012SOL    HW124933   3.815   0.608   7.342
41012SOL    HW224934   3.683   0.615   7.268
41013SOL     OW24935  12.059   6.613  12.946
41013SOL    HW124936  12.149   6.583  12.937
41013SOL    HW224937  12.043   6.667  12.868
41014SOL     OW24938   0.112   8.435   1.512
41014SOL    HW124939   0.023   8.402   1.523
41014SOL    HW224940   0.130   8.426   1.419
41015SOL     OW24941  10.242   3.686   0.172
41015SOL    HW124942  10.292   3.738   0.109
41015SOL    HW224943  10.285   3.702   0.256
41016SOL     OW24944   1.532   8.271   5.042
41016SOL    HW124945   1.560   8.255   5.132
41016SOL    HW224946   1.587   8.344   5.013
41017SOL     OW24947  12.970   9.306   1.582
41017SOL    HW124948  12.909   9.238   1.611
41017SOL    HW224949  12.930   9.388   1.612
41018SOL     OW24950   7.093  10.111  11.025
41018SOL    HW124951   7.173  10.159  11.049
41018SOL    HW224952   7.060  10.158  10.949
41019SOL     OW24953   2.068   6.764  11.770
41019SOL    HW124954   2.060   6.859  11.756
41019SOL    HW224955   2.162   6.750  11.786
41020SOL     OW24956  11.158   7.790  12.384
41020SOL    HW124957  11.091   7.722  12.395
41020SOL    HW224958  11.235   7.754  12.428
41021SOL     OW24959   1.667   5.036   4.079
41021SOL    HW124960   1.593   5.041   4.018
41021SOL    HW224961   1.656   4.952   4.123
41022SOL     OW24962  13.511   4.584   2.849
41022SOL    HW124963  13.526   4.668   2.892
41022SOL    HW224964  13.593   4.535   2.863
41023SOL     OW24965  14.463  14.776  11.133
41023SOL    HW124966  14.447  14.781  11.039
41023SOL    HW224967  14.376  14.759  11.171
41024SOL     OW24968  12.889   4.385   8.260
41024SOL    HW124969  12.884   4.471   8.220
41024SOL    HW224970  12.981   4.375   8.286
41025SOL     OW24971   2.290   6.725   9.792
41025SOL    HW124972   2.255   6.670   9.721
41025SOL    HW224973   2.307   6.663   9.863
41026SOL     OW24974   2.791   7.815   5.526
41026SOL    HW124975   2.789   7.725   5.558
41026SOL    HW224976   2.875   7.822   5.480
41027SOL     OW24977   2.014   8.619   9.254
41027SOL    HW124978   2.090   8.568   9.283
41027SOL    HW224979   2.006   8.600   9.161
41028SOL     OW24980   7.753  13.318   0.403
41028SOL    HW124981   7.713  13.405   0.409
41028SOL    HW224982   7.678  13.258   0.397
41029SOL     OW24983   7.722  13.698  10.166
41029SOL    HW124984   7.789  13.630  10.172
41029SOL    HW224985   7.738  13.742  10.083
41030SOL     OW24986   0.221   7.815  11.835
41030SOL    HW124987   0.159   7.743  11.839
41030SOL    HW224988   0.287   7.795  11.902
41031SOL     OW24989   3.305  11.081   1.273
41031SOL    HW124990   3.400  11.076   1.261
41031SOL    HW224991   3.285  11.011   1.335
41032SOL     OW24992   2.268   7.258  10.424
41032SOL    HW124993   2.321   7.230  10.348
41032SOL    HW224994   2.178   7.238  10.399
41033SOL     OW24995  12.040   0.099   0.857
41033SOL    HW124996  11.985   0.032   0.898
41033SOL    HW224997  12.078   0.055   0.781
41034SOL     OW24998  12.738   3.417  11.584
41034SOL    HW124999  12.693   3.495  11.616
41034SOL    HW225000  12.739   3.356  11.658
41035SOL     OW25001  14.413   2.475   5.546
41035SOL    HW125002  14.502   2.493   5.515
41035SOL    HW225003  14.426   2.429   5.629
41036SOL     OW25004  12.978  11.626   4.664
41036SOL    HW125005  13.021  11.546   4.634
41036SOL    HW225006  13.014  11.641   4.751
41037SOL     OW25007   9.103   0.167   2.915
41037SOL    HW125008   9.080   0.182   2.823
41037SOL    HW225009   9.175   0.104   2.911
41038SOL     OW25010   7.817   9.208  12.498
41038SOL    HW125011   7.775   9.262  12.431
41038SOL    HW225012   7.750   9.197  12.565
41039SOL     OW25013   8.296   6.331  11.797
41039SOL    HW125014   8.234   6.259  11.780
41039SOL    HW225015   8.363   6.321  11.730
41040SOL     OW25016   2.581   9.773  10.974
41040SOL    HW125017   2.588   9.688  11.016
41040SOL    HW225018   2.652   9.775  10.910
41041SOL     OW25019   1.323   9.942  14.124
41041SOL    HW125020   1.356   9.967  14.210
41041SOL    HW225021   1.382   9.984  14.061
41042SOL     OW25022  10.556  10.710  12.855
41042SOL    HW125023  10.464  10.722  12.833
41042SOL    HW225024  10.594  10.668  12.777
41043SOL     OW25025  10.655   6.430   2.642
41043SOL    HW125026  10.567   6.450   2.674
41043SOL    HW225027  10.643   6.416   2.548
41044SOL     OW25028   0.141  12.089  14.000
41044SOL    HW125029   0.219  12.062  14.050
41044SOL    HW225030   0.143  12.033  13.922
41045SOL     OW25031   6.437   2.855  12.463
41045SOL    HW125032   6.525   2.821  12.446
41045SOL    HW225033   6.378   2.792  12.423
41046SOL     OW25034  12.611   7.224   9.997
41046SOL    HW125035  12.670   7.262  10.063
41046SOL    HW225036  12.614   7.287   9.925
41047SOL     OW25037   9.778   3.720   9.941
41047SOL    HW125038   9.722   3.652   9.979
41047SOL    HW225039   9.838   3.672   9.884
41048SOL     OW25040   8.672  14.199   9.466
41048SOL    HW125041   8.609  14.260   9.425
41048SOL    HW225042   8.752  14.250   9.474
41049SOL     OW25043   1.747   7.501   1.353
41049SOL    HW125044   1.651   7.507   1.351
41049SOL    HW225045   1.772   7.543   1.435
41050SOL     OW25046  11.816   1.812   2.719
41050SOL    HW125047  11.902   1.849   2.698
41050SOL    HW225048  11.764   1.887   2.748
41051SOL     OW25049   8.456   7.764   4.103
41051SOL    HW125050   8.369   7.765   4.063
41051SOL    HW225051   8.441   7.790   4.194
41052SOL     OW25052   3.282   6.037   8.007
41052SOL    HW125053   3.241   6.107   8.058
41052SOL    HW225054   3.212   6.004   7.951
41053SOL     OW25055   2.612   6.431   3.757
41053SOL    HW125056   2.541   6.369   3.740
41053SOL    HW225057   2.618   6.434   3.853
41054SOL     OW25058  14.721  11.138   5.022
41054SOL    HW125059  14.677  11.221   4.999
41054SOL    HW225060  14.653  11.087   5.066
41055SOL     OW25061   4.979  12.578  14.615
41055SOL    HW125062   4.943  12.554  14.530
41055SOL    HW225063   4.908  12.564  14.677
41056SOL     OW25064   0.136   9.127   0.814
41056SOL    HW125065   0.174   9.209   0.781
41056SOL    HW225066   0.197   9.059   0.785
41057SOL     OW25067  12.678   8.223   4.339
41057SOL    HW125068  12.768   8.240   4.368
41057SOL    HW225069  12.635   8.183   4.414
41058SOL     OW25070   7.640   7.993   9.756
41058SOL    HW125071   7.677   7.921   9.706
41058SOL    HW225072   7.640   8.067   9.696
41059SOL     OW25073   7.055   3.259   7.618
41059SOL    HW125074   7.039   3.224   7.531
41059SOL    HW225075   7.135   3.214   7.647
41060SOL     OW25076  12.207  12.600   2.654
41060SOL    HW125077  12.212  12.601   2.749
41060SOL    HW225078  12.296  12.620   2.625
41061SOL     OW25079  10.935   1.648   6.183
41061SOL    HW125080  10.900   1.727   6.141
41061SOL    HW225081  10.858   1.596   6.204
41062SOL     OW25082   0.864   1.722   9.227
41062SOL    HW125083   0.887   1.726   9.134
41062SOL    HW225084   0.932   1.774   9.271
41063SOL     OW25085   7.862  14.849   2.427
41063SOL    HW125086   7.818  14.846   2.512
41063SOL    HW225087   7.825  14.776   2.378
41064SOL     OW25088   7.720  10.808   1.011
41064SOL    HW125089   7.663  10.801   1.088
41064SOL    HW225090   7.706  10.726   0.964
41065SOL     OW25091  13.214   0.748  12.045
41065SOL    HW125092  13.247   0.779  11.961
41065SOL    HW225093  13.214   0.826  12.101
41066SOL     OW25094   1.982   4.841   8.128
41066SOL    HW125095   1.942   4.924   8.101
41066SOL    HW225096   1.908   4.786   8.153
41067SOL     OW25097  12.411  14.657   5.561
41067SOL    HW125098  12.444  14.580   5.606
41067SOL    HW225099  12.443  14.731   5.612
41068SOL     OW25100   2.862  11.389  12.149
41068SOL    HW125101   2.942  11.347  12.180
41068SOL    HW225102   2.889  11.479  12.130
41069SOL     OW25103   5.552  13.224  10.888
41069SOL    HW125104   5.471  13.173  10.888
41069SOL    HW225105   5.573  13.237  10.796
41070SOL     OW25106   3.799   0.445   4.968
41070SOL    HW125107   3.738   0.502   4.922
41070SOL    HW225108   3.808   0.368   4.912
41071SOL     OW25109   6.214  14.054   8.947
41071SOL    HW125110   6.164  14.007   8.881
41071SOL    HW225111   6.165  14.135   8.961
41072SOL     OW25112  11.482   1.043  10.557
41072SOL    HW125113  11.413   0.984  10.528
41072SOL    HW225114  11.488   1.027  10.652
41073SOL     OW25115  11.740  13.463  11.723
41073SOL    HW125116  11.756  13.557  11.730
41073SOL    HW225117  11.746  13.445  11.629
41074SOL     OW25118  11.866   2.997   3.810
41074SOL    HW125119  11.954   3.025   3.835
41074SOL    HW225120  11.859   2.908   3.842
41075SOL     OW25121   2.516  10.062   2.144
41075SOL    HW125122   2.589  10.027   2.196
41075SOL    HW225123   2.438  10.043   2.197
41076SOL     OW25124  13.072   2.728   5.572
41076SOL    HW125125  12.986   2.742   5.611
41076SOL    HW225126  13.073   2.785   5.495
41077SOL     OW25127   0.096   0.687   8.884
41077SOL    HW125128   0.024   0.636   8.846
41077SOL    HW225129   0.087   0.675   8.978
41078SOL     OW25130   9.639   0.002  10.083
41078SOL    HW125131   9.594  14.814  10.032
41078SOL    HW225132   9.706   0.036  10.024
41079SOL     OW25133   3.317  14.720  10.771
41079SOL    HW125134   3.305  14.691  10.862
41079SOL    HW225135   3.294  14.813  10.773
41080SOL     OW25136   0.676   3.888   3.963
41080SOL    HW125137   0.767   3.859   3.958
41080SOL    HW225138   0.680   3.972   4.010
41081SOL     OW25139   1.826   7.246  14.588
41081SOL    HW125140   1.796   7.337  14.592
41081SOL    HW225141   1.776   7.201  14.657
41082SOL     OW25142   8.581  14.349  12.438
41082SOL    HW125143   8.617  14.319  12.355
41082SOL    HW225144   8.627  14.297  12.504
41083SOL     OW25145  10.434   3.313   4.738
41083SOL    HW125146  10.415   3.301   4.645
41083SOL    HW225147  10.349   3.333   4.777
41084SOL     OW25148   5.618   7.640  14.566
41084SOL    HW125149   5.534   7.686  14.562
41084SOL    HW225150   5.674   7.686  14.504
41085SOL     OW25151   3.471   4.660   1.666
41085SOL    HW125152   3.497   4.714   1.741
41085SOL    HW225153   3.483   4.570   1.695
41086SOL     OW25154  14.425  14.025   0.955
41086SOL    HW125155  14.332  14.046   0.967
41086SOL    HW225156  14.431  14.001   0.862
41087SOL     OW25157  12.660  14.234   2.309
41087SOL    HW125158  12.732  14.283   2.350
41087SOL    HW225159  12.581  14.284   2.332
41088SOL     OW25160   7.079  14.702   1.963
41088SOL    HW125161   6.999  14.744   1.929
41088SOL    HW225162   7.072  14.710   2.058
41089SOL     OW25163   7.355  10.582   3.162
41089SOL    HW125164   7.380  10.655   3.219
41089SOL    HW225165   7.438  10.540   3.140
41090SOL     OW25166  13.200   4.099   1.663
41090SOL    HW125167  13.201   4.021   1.718
41090SOL    HW225168  13.110   4.107   1.632
41091SOL     OW25169   9.613   3.650   0.780
41091SOL    HW125170   9.572   3.705   0.713
41091SOL    HW225171   9.545   3.588   0.805
41092SOL     OW25172  14.532   6.939   8.508
41092SOL    HW125173  14.582   6.874   8.557
41092SOL    HW225174  14.496   6.891   8.433
41093SOL     OW25175  10.118   6.846  10.217
41093SOL    HW125176  10.059   6.921  10.218
41093SOL    HW225177  10.094   6.797  10.138
41094SOL     OW25178  12.092   5.465   7.984
41094SOL    HW125179  12.141   5.495   8.061
41094SOL    HW225180  12.024   5.531   7.973
41095SOL     OW25181   7.402   5.696  11.307
41095SOL    HW125182   7.380   5.688  11.400
41095SOL    HW225183   7.407   5.605  11.276
41096SOL     OW25184  12.789   9.812  10.107
41096SOL    HW125185  12.751   9.727  10.083
41096SOL    HW225186  12.714   9.870  10.117
41097SOL     OW25187   7.172   8.608  14.069
41097SOL    HW125188   7.137   8.697  14.056
41097SOL    HW225189   7.250   8.621  14.123
41098SOL     OW25190   8.208   5.085   3.075
41098SOL    HW125191   8.236   5.058   3.163
41098SOL    HW225192   8.211   5.180   3.078
41099SOL     OW25193   5.868   5.985   5.197
41099SOL    HW125194   5.784   6.030   5.192
41099SOL    HW225195   5.860   5.911   5.138
41100SOL     OW25196   8.286   3.546   4.514
41100SOL    HW125197   8.200   3.510   4.493
41100SOL    HW225198   8.343   3.512   4.445
41101SOL     OW25199   2.423   3.930   5.091
41101SOL    HW125200   2.373   3.964   5.165
41101SOL    HW225201   2.388   3.976   5.015
41102SOL     OW25202   5.403  12.185   2.268
41102SOL    HW125203   5.413  12.205   2.175
41102SOL    HW225204   5.479  12.130   2.289
41103SOL     OW25205   8.581  14.687   4.464
41103SOL    HW125206   8.627  14.605   4.483
41103SOL    HW225207   8.612  14.748   4.531
41104SOL     OW25208  10.009   6.785  12.412
41104SOL    HW125209  10.049   6.830  12.338
41104SOL    HW225210  10.076   6.724  12.442
41105SOL     OW25211   1.040  12.815   0.364
41105SOL    HW125212   1.018  12.727   0.395
41105SOL    HW225213   1.039  12.808   0.268
41106SOL     OW25214   9.723  13.209   5.314
41106SOL    HW125215   9.773  13.135   5.348
41106SOL    HW225216   9.713  13.190   5.220
41107SOL     OW25217   0.186   3.404   1.614
41107SOL    HW125218   0.169   3.315   1.643
41107SOL    HW225219   0.191   3.456   1.694
41108SOL     OW25220   0.941  12.872   4.956
41108SOL    HW125221   1.009  12.887   4.890
41108SOL    HW225222   0.989  12.857   5.037
41109SOL     OW25223   3.064  14.710  12.406
41109SOL    HW125224   3.022  14.654  12.341
41109SOL    HW225225   3.088  14.789  12.357
41110SOL     OW25226   8.029  11.554   2.176
41110SOL    HW125227   8.119  11.521   2.177
41110SOL    HW225228   8.024  11.613   2.251
41111SOL     OW25229   6.224   0.577   5.052
41111SOL    HW125230   6.168   0.604   4.979
41111SOL    HW225231   6.171   0.591   5.130
41112SOL     OW25232  10.587  10.426   5.876
41112SOL    HW125233  10.508  10.371   5.875
41112SOL    HW225234  10.565  10.500   5.820
41113SOL     OW25235   9.539   7.521  14.490
41113SOL    HW125236   9.634   7.517  14.500
41113SOL    HW225237   9.505   7.476  14.567
41114SOL     OW25238  10.628   0.316  12.538
41114SOL    HW125239  10.543   0.361  12.532
41114SOL    HW225240  10.664   0.323  12.449
41115SOL     OW25241   9.769  14.278   0.556
41115SOL    HW125242   9.820  14.197   0.562
41115SOL    HW225243   9.772  14.302   0.464
41116SOL     OW25244   5.413  11.777  10.155
41116SOL    HW125245   5.459  11.788  10.071
41116SOL    HW225246   5.483  11.757  10.218
41117SOL     OW25247   2.591   5.707   4.462
41117SOL    HW125248   2.528   5.667   4.521
41117SOL    HW225249   2.602   5.796   4.495
41118SOL     OW25250   0.258  14.174   8.294
41118SOL    HW125251   0.178  14.221   8.270
41118SOL    HW225252   0.329  14.233   8.270
41119SOL     OW25253   9.907   7.270  13.950
41119SOL    HW125254   9.908   7.194  13.891
41119SOL    HW225255   9.979   7.325  13.920
41120SOL     OW25256   3.209  11.302   7.039
41120SOL    HW125257   3.201  11.283   6.945
41120SOL    HW225258   3.302  11.313   7.053
41121SOL     OW25259   8.071   0.995   3.575
41121SOL    HW125260   8.019   1.015   3.653
41121SOL    HW225261   8.162   1.006   3.604
41122SOL     OW25262   4.324   9.250   5.739
41122SOL    HW125263   4.407   9.297   5.733
41122SOL    HW225264   4.307   9.220   5.649
41123SOL     OW25265  10.358   2.590   1.534
41123SOL    HW125266  10.391   2.576   1.445
41123SOL    HW225267  10.423   2.647   1.575
41124SOL     OW25268   6.643  10.102   9.235
41124SOL    HW125269   6.657  10.024   9.289
41124SOL    HW225270   6.711  10.163   9.262
41125SOL     OW25271  13.660   0.482  10.907
41125SOL    HW125272  13.752   0.473  10.880
41125SOL    HW225273  13.657   0.442  10.993
41126SOL     OW25274  10.921   7.417   0.422
41126SOL    HW125275  10.984   7.469   0.472
41126SOL    HW225276  10.964   7.332   0.411
41127SOL     OW25277   3.537  12.732   1.521
41127SOL    HW125278   3.524  12.652   1.573
41127SOL    HW225279   3.495  12.712   1.437
41128SOL     OW25280  11.423   5.614  14.864
41128SOL    HW125281  11.345   5.562  14.846
41128SOL    HW225282  11.423   5.682  14.796
41129SOL     OW25283  12.573   9.130  10.184
41129SOL    HW125284  12.528   9.085  10.255
41129SOL    HW225285  12.610   9.060  10.130
41130SOL     OW25286   4.686   5.448  13.480
41130SOL    HW125287   4.623   5.490  13.421
41130SOL    HW225288   4.746   5.519  13.504
41131SOL     OW25289  10.047   6.259   7.689
41131SOL    HW125290   9.987   6.305   7.631
41131SOL    HW225291   9.997   6.185   7.724
41132SOL     OW25292   4.811   2.753   1.384
41132SOL    HW125293   4.726   2.742   1.341
41132SOL    HW225294   4.824   2.672   1.433
41133SOL     OW25295   3.201  10.110   2.110
41133SOL    HW125296   3.159  10.024   2.112
41133SOL    HW225297   3.230  10.124   2.201
41134SOL     OW25298  12.650  10.692   7.465
41134SOL    HW125299  12.693  10.635   7.529
41134SOL    HW225300  12.700  10.677   7.384
41135SOL     OW25301  12.842  13.155  13.039
41135SOL    HW125302  12.806  13.193  12.959
41135SOL    HW225303  12.889  13.227  13.081
41136SOL     OW25304   8.541  14.703   9.561
41136SOL    HW125305   8.513  14.794   9.567
41136SOL    HW225306   8.535  14.670   9.651
41137SOL     OW25307   3.251   4.732   0.984
41137SOL    HW125308   3.250   4.807   1.045
41137SOL    HW225309   3.263   4.772   0.898
41138SOL     OW25310   0.466   0.597   7.589
41138SOL    HW125311   0.499   0.515   7.626
41138SOL    HW225312   0.371   0.592   7.600
41139SOL     OW25313   9.197   3.522   3.798
41139SOL    HW125314   9.154   3.460   3.739
41139SOL    HW225315   9.130   3.588   3.815
41140SOL     OW25316  11.410   1.057  14.163
41140SOL    HW125317  11.397   1.145  14.126
41140SOL    HW225318  11.470   1.071  14.236
41141SOL     OW25319   8.967  12.039   0.124
41141SOL    HW125320   9.048  12.007   0.162
41141SOL    HW225321   8.909  12.054   0.198
41142SOL     OW25322  12.903   5.724   0.199
41142SOL    HW125323  12.823   5.774   0.211
41142SOL    HW225324  12.966   5.787   0.164
41143SOL     OW25325   6.680   7.647   2.220
41143SOL    HW125326   6.736   7.573   2.243
41143SOL    HW225327   6.706   7.717   2.281
41144SOL     OW25328   6.813  13.828   0.004
41144SOL    HW125329   6.816  13.844  14.789
41144SOL    HW225330   6.763  13.747   0.013
41145SOL     OW25331   8.627  14.624   7.195
41145SOL    HW125332   8.659  14.633   7.105
41145SOL    HW225333   8.560  14.692   7.203
41146SOL     OW25334   3.511   3.055   6.591
41146SOL    HW125335   3.506   3.144   6.555
41146SOL    HW225336   3.499   2.998   6.515
41147SOL     OW25337   7.993   6.574   7.281
41147SOL    HW125338   8.056   6.645   7.288
41147SOL    HW225339   7.975   6.568   7.187
41148SOL     OW25340   4.854  13.726  12.527
41148SOL    HW125341   4.907  13.762  12.456
41148SOL    HW225342   4.914  13.674  12.579
41149SOL     OW25343   2.268  11.880  11.310
41149SOL    HW125344   2.280  11.875  11.215
41149SOL    HW225345   2.298  11.795  11.342
41150SOL     OW25346   7.638  13.088  13.388
41150SOL    HW125347   7.621  13.010  13.334
41150SOL    HW225348   7.732  13.088  13.402
41151SOL     OW25349  11.666   8.764   2.816
41151SOL    HW125350  11.681   8.750   2.909
41151SOL    HW225351  11.622   8.849   2.811
41152SOL     OW25352  11.251   0.568   9.676
41152SOL    HW125353  11.346   0.559   9.689
41152SOL    HW225354  11.216   0.483   9.704
41153SOL     OW25355   7.434   9.515   8.692
41153SOL    HW125356   7.406   9.464   8.769
41153SOL    HW225357   7.399   9.466   8.618
41154SOL     OW25358   2.899   2.137  10.185
41154SOL    HW125359   2.900   2.226  10.150
41154SOL    HW225360   2.929   2.082  10.113
41155SOL     OW25361  13.508   2.975   5.017
41155SOL    HW125362  13.515   3.070   5.010
41155SOL    HW225363  13.416   2.957   4.997
41156SOL     OW25364   1.142   2.096  11.617
41156SOL    HW125365   1.197   2.154  11.670
41156SOL    HW225366   1.140   2.014  11.667
41157SOL     OW25367   4.264   1.610   7.069
41157SOL    HW125368   4.332   1.672   7.043
41157SOL    HW225369   4.312   1.529   7.090
41158SOL     OW25370   8.300  13.691   3.911
41158SOL    HW125371   8.212  13.665   3.885
41158SOL    HW225372   8.297  13.787   3.913
41159SOL     OW25373  10.346   1.329   3.242
41159SOL    HW125374  10.299   1.262   3.192
41159SOL    HW225375  10.415   1.281   3.288
41160SOL     OW25376   5.836   1.745   7.717
41160SOL    HW125377   5.787   1.663   7.716
41160SOL    HW225378   5.822   1.781   7.804
41161SOL     OW25379   2.968   3.543   4.405
41161SOL    HW125380   2.961   3.520   4.313
41161SOL    HW225381   2.885   3.514   4.443
41162SOL     OW25382  11.914   2.305   8.602
41162SOL    HW125383  11.871   2.298   8.687
41162SOL    HW225384  11.862   2.249   8.543
41163SOL     OW25385   8.535   1.250   6.993
41163SOL    HW125386   8.495   1.330   6.960
41163SOL    HW225387   8.609   1.279   7.046
41164SOL     OW25388   2.806  12.054   1.195
41164SOL    HW125389   2.714  12.068   1.177
41164SOL    HW225390   2.810  11.967   1.235
41165SOL     OW25391   8.118  14.520   3.042
41165SOL    HW125392   8.088  14.454   2.979
41165SOL    HW225393   8.055  14.513   3.114
41166SOL     OW25394   5.564   6.989   6.878
41166SOL    HW125395   5.635   6.925   6.889
41166SOL    HW225396   5.587   7.035   6.797
41167SOL     OW25397  13.335   6.004  13.627
41167SOL    HW125398  13.271   5.933  13.627
41167SOL    HW225399  13.344   6.028  13.720
41168SOL     OW25400  11.211   0.847  11.558
41168SOL    HW125401  11.286   0.901  11.535
41168SOL    HW225402  11.168   0.828  11.475
41169SOL     OW25403   5.497   2.961   0.547
41169SOL    HW125404   5.449   2.920   0.475
41169SOL    HW225405   5.537   2.889   0.594
41170SOL     OW25406  14.699   0.544  11.342
41170SOL    HW125407  14.759   0.510  11.276
41170SOL    HW225408  14.740   0.522  11.425
41171SOL     OW25409   9.486  10.459   6.394
41171SOL    HW125410   9.416  10.394   6.406
41171SOL    HW225411   9.567  10.410   6.409
41172SOL     OW25412   1.255   2.943  13.557
41172SOL    HW125413   1.273   2.885  13.482
41172SOL    HW225414   1.244   3.029  13.518
41173SOL     OW25415   4.856   2.735  14.268
41173SOL    HW125416   4.823   2.648  14.293
41173SOL    HW225417   4.785   2.795  14.289
41174SOL     OW25418  13.637   7.717   9.916
41174SOL    HW125419  13.565   7.721   9.853
41174SOL    HW225420  13.598   7.679   9.994
41175SOL     OW25421  11.637   3.033   4.874
41175SOL    HW125422  11.714   3.060   4.924
41175SOL    HW225423  11.653   3.066   4.786
41176SOL     OW25424   7.316   8.714   1.231
41176SOL    HW125425   7.398   8.716   1.280
41176SOL    HW225426   7.273   8.798   1.253
41177SOL     OW25427  11.907   5.151   2.092
41177SOL    HW125428  11.980   5.110   2.138
41177SOL    HW225429  11.831   5.097   2.115
41178SOL     OW25430  11.954  14.437   2.226
41178SOL    HW125431  11.930  14.517   2.272
41178SOL    HW225432  12.012  14.390   2.287
41179SOL     OW25433   5.873   9.921  13.754
41179SOL    HW125434   5.952   9.909  13.807
41179SOL    HW225435   5.885   9.861  13.680
41180SOL     OW25436  13.589  10.262   0.605
41180SOL    HW125437  13.664  10.315   0.633
41180SOL    HW225438  13.512  10.315   0.626
41181SOL     OW25439   8.885  10.206   5.834
41181SOL    HW125440   8.840  10.123   5.818
41181SOL    HW225441   8.830  10.251   5.898
41182SOL     OW25442   9.881  10.285   2.545
41182SOL    HW125443   9.854  10.349   2.479
41182SOL    HW225444   9.883  10.202   2.498
41183SOL     OW25445   7.938  12.384   7.048
41183SOL    HW125446   7.902  12.300   7.079
41183SOL    HW225447   7.986  12.361   6.969
41184SOL     OW25448   9.644   1.071  12.611
41184SOL    HW125449   9.643   1.016  12.533
41184SOL    HW225450   9.629   1.160  12.578
41185SOL     OW25451   0.359   9.504   7.421
41185SOL    HW125452   0.293   9.530   7.485
41185SOL    HW225453   0.351   9.409   7.416
41186SOL     OW25454  13.157  11.135   7.700
41186SOL    HW125455  13.149  11.105   7.610
41186SOL    HW225456  13.127  11.062   7.753
41187SOL     OW25457   3.970  13.008   5.000
41187SOL    HW125458   4.055  13.038   5.034
41187SOL    HW225459   3.912  13.010   5.075
41188SOL     OW25460   5.353  11.443  14.129
41188SOL    HW125461   5.301  11.427  14.050
41188SOL    HW225462   5.389  11.358  14.152
41189SOL     OW25463   1.451   1.841   0.542
41189SOL    HW125464   1.545   1.857   0.534
41189SOL    HW225465   1.443   1.789   0.623
41190SOL     OW25466   3.451   4.225   0.544
41190SOL    HW125467   3.463   4.147   0.490
41190SOL    HW225468   3.368   4.263   0.515
41191SOL     OW25469   2.468   9.291  11.112
41191SOL    HW125470   2.553   9.250  11.124
41191SOL    HW225471   2.424   9.280  11.196
41192SOL     OW25472  11.853   9.925   8.914
41192SOL    HW125473  11.941   9.896   8.890
41192SOL    HW225474  11.868   9.996   8.977
41193SOL     OW25475   1.139   7.236   0.924
41193SOL    HW125476   1.172   7.231   1.014
41193SOL    HW225477   1.208   7.283   0.876
41194SOL     OW25478  14.502   0.285   2.893
41194SOL    HW125479  14.432   0.316   2.836
41194SOL    HW225480  14.539   0.209   2.847
41195SOL     OW25481   1.264   4.063   9.795
41195SOL    HW125482   1.189   4.122   9.789
41195SOL    HW225483   1.340   4.119   9.779
41196SOL     OW25484   9.810   6.087   9.630
41196SOL    HW125485   9.879   6.149   9.604
41196SOL    HW225486   9.823   6.012   9.572
41197SOL     OW25487   9.750   0.613   8.523
41197SOL    HW125488   9.809   0.549   8.564
41197SOL    HW225489   9.663   0.585   8.550
41198SOL     OW25490  13.682  10.716   8.432
41198SOL    HW125491  13.597  10.684   8.461
41198SOL    HW225492  13.667  10.808   8.410
41199SOL     OW25493  13.507   2.603   5.868
41199SOL    HW125494  13.584   2.559   5.831
41199SOL    HW225495  13.527   2.696   5.859
41200SOL     OW25496   4.606   2.165  14.758
41200SOL    HW125497   4.624   2.152  14.665
41200SOL    HW225498   4.512   2.183  14.763
41201SOL     OW25499   6.271  10.011   2.990
41201SOL    HW125500   6.276  10.084   3.052
41201SOL    HW225501   6.252  10.053   2.906
41202SOL     OW25502   9.314  11.767   9.413
41202SOL    HW125503   9.390  11.772   9.355
41202SOL    HW225504   9.281  11.857   9.417
41203SOL     OW25505  12.626   3.878   0.214
41203SOL    HW125506  12.642   3.787   0.241
41203SOL    HW225507  12.532   3.882   0.198
41204SOL     OW25508   4.650   5.241  11.414
41204SOL    HW125509   4.704   5.314  11.443
41204SOL    HW225510   4.642   5.185  11.491
41205SOL     OW25511  14.175   9.827   1.168
41205SOL    HW125512  14.227   9.758   1.209
41205SOL    HW225513  14.156   9.794   1.080
41206SOL     OW25514   4.427  11.871   4.602
41206SOL    HW125515   4.475  11.818   4.665
41206SOL    HW225516   4.335  11.848   4.617
41207SOL     OW25517   9.539   3.992  12.968
41207SOL    HW125518   9.614   4.051  12.968
41207SOL    HW225519   9.533   3.960  13.058
41208SOL     OW25520   8.011  13.707  12.214
41208SOL    HW125521   7.970  13.644  12.274
41208SOL    HW225522   8.086  13.660  12.178
41209SOL     OW25523   4.687   9.197   8.314
41209SOL    HW125524   4.687   9.246   8.231
41209SOL    HW225525   4.609   9.141   8.308
41210SOL     OW25526   7.517   4.606   0.394
41210SOL    HW125527   7.491   4.616   0.302
41210SOL    HW225528   7.516   4.512   0.409
41211SOL     OW25529   6.859  11.973  10.519
41211SOL    HW125530   6.930  11.913  10.545
41211SOL    HW225531   6.898  12.060  10.524
41212SOL     OW25532   8.207   5.248  12.073
41212SOL    HW125533   8.166   5.300  12.142
41212SOL    HW225534   8.288   5.216  12.113
41213SOL     OW25535   5.672   3.685   0.578
41213SOL    HW125536   5.741   3.672   0.513
41213SOL    HW225537   5.709   3.749   0.639
41214SOL     OW25538   5.712   5.328  13.040
41214SOL    HW125539   5.718   5.388  12.966
41214SOL    HW225540   5.760   5.371  13.111
41215SOL     OW25541   9.026   7.576   6.019
41215SOL    HW125542   9.030   7.542   5.930
41215SOL    HW225543   8.962   7.521   6.063
41216SOL     OW25544   0.465   3.044   7.868
41216SOL    HW125545   0.443   2.953   7.889
41216SOL    HW225546   0.393   3.074   7.812
41217SOL     OW25547   8.961  13.286   5.986
41217SOL    HW125548   8.911  13.356   6.029
41217SOL    HW225549   8.956  13.307   5.893
41218SOL     OW25550  13.107   2.615  14.331
41218SOL    HW125551  13.092   2.678  14.401
41218SOL    HW225552  13.184   2.648  14.284
41219SOL     OW25553  12.839  14.712   3.299
41219SOL    HW125554  12.816  14.804   3.306
41219SOL    HW225555  12.776  14.667   3.355
41220SOL     OW25556   1.542   0.689   4.407
41220SOL    HW125557   1.542   0.769   4.459
41220SOL    HW225558   1.634   0.665   4.400
41221SOL     OW25559   7.442  13.052   4.805
41221SOL    HW125560   7.352  13.085   4.813
41221SOL    HW225561   7.497  13.128   4.819
41222SOL     OW25562  12.317  12.376   6.555
41222SOL    HW125563  12.325  12.284   6.581
41222SOL    HW225564  12.254  12.375   6.483
41223SOL     OW25565   0.429   0.504   1.401
41223SOL    HW125566   0.371   0.490   1.476
41223SOL    HW225567   0.400   0.586   1.362
41224SOL     OW25568   0.902   5.901  10.420
41224SOL    HW125569   0.882   5.846  10.496
41224SOL    HW225570   0.828   5.889  10.361
41225SOL     OW25571  10.004  11.073   8.565
41225SOL    HW125572  10.065  11.003   8.590
41225SOL    HW225573  10.058  11.153   8.567
41226SOL     OW25574   1.279   8.618   5.849
41226SOL    HW125575   1.186   8.632   5.834
41226SOL    HW225576   1.310   8.700   5.885
41227SOL     OW25577  13.358  10.785  10.852
41227SOL    HW125578  13.333  10.765  10.762
41227SOL    HW225579  13.292  10.740  10.905
41228SOL     OW25580   7.598  14.440  10.552
41228SOL    HW125581   7.518  14.409  10.593
41228SOL    HW225582   7.593  14.408  10.462
41229SOL     OW25583   9.140   0.293   4.452
41229SOL    HW125584   9.171   0.329   4.369
41229SOL    HW225585   9.187   0.210   4.461
41230SOL     OW25586  12.313   5.574   0.274
41230SOL    HW125587  12.236   5.518   0.284
41230SOL    HW225588  12.386   5.512   0.265
41231SOL     OW25589   0.559   9.037   2.750
41231SOL    HW125590   0.569   8.955   2.700
41231SOL    HW225591   0.582   9.105   2.688
41232SOL     OW25592   6.767   2.987   0.575
41232SOL    HW125593   6.728   2.917   0.522
41232SOL    HW225594   6.819   3.037   0.513
41233SOL     OW25595   6.802   9.277  13.132
41233SOL    HW125596   6.868   9.216  13.100
41233SOL    HW225597   6.823   9.290  13.224
41234SOL     OW25598   4.352   0.483   5.543
41234SOL    HW125599   4.344   0.446   5.632
41234SOL    HW225600   4.274   0.537   5.533
41235SOL     OW25601   3.686   5.259  13.098
41235SOL    HW125602   3.672   5.182  13.153
41235SOL    HW225603   3.753   5.231  13.035
41236SOL     OW25604  12.736  11.770   7.783
41236SOL    HW125605  12.675  11.843   7.786
41236SOL    HW225606  12.727  11.728   7.869
41237SOL     OW25607   8.418   8.423   2.972
41237SOL    HW125608   8.338   8.404   2.924
41237SOL    HW225609   8.395   8.493   3.032
41238SOL     OW25610   3.677   4.443  14.622
41238SOL    HW125611   3.677   4.507  14.693
41238SOL    HW225612   3.757   4.393  14.635
41239SOL     OW25613   7.062   9.055   1.039
41239SOL    HW125614   7.062   9.117   0.967
41239SOL    HW225615   7.023   8.976   1.003
41240SOL     OW25616   7.228  13.555  13.266
41240SOL    HW125617   7.272  13.537  13.348
41240SOL    HW225618   7.236  13.474  13.215
41241SOL     OW25619   1.655  10.258  10.585
41241SOL    HW125620   1.721  10.216  10.530
41241SOL    HW225621   1.682  10.238  10.675
41242SOL     OW25622   3.048  12.104   9.683
41242SOL    HW125623   3.014  12.016   9.664
41242SOL    HW225624   2.970  12.157   9.697
41243SOL     OW25625   8.299   2.262   9.085
41243SOL    HW125626   8.311   2.355   9.067
41243SOL    HW225627   8.363   2.218   9.029
41244SOL     OW25628   1.984   5.535   1.481
41244SOL    HW125629   1.915   5.470   1.464
41244SOL    HW225630   1.940   5.603   1.533
41245SOL     OW25631   8.302   9.172   0.393
41245SOL    HW125632   8.356   9.095   0.411
41245SOL    HW225633   8.318   9.231   0.466
41246SOL     OW25634   0.288  11.140   9.532
41246SOL    HW125635   0.227  11.151   9.459
41246SOL    HW225636   0.294  11.227   9.571
41247SOL     OW25637   6.323   4.393   8.193
41247SOL    HW125638   6.327   4.301   8.220
41247SOL    HW225639   6.367   4.395   8.109
41248SOL     OW25640   6.017   6.780   6.990
41248SOL    HW125641   6.066   6.718   6.935
41248SOL    HW225642   6.082   6.811   7.054
41249SOL     OW25643   7.845   9.244   0.168
41249SOL    HW125644   7.935   9.264   0.193
41249SOL    HW225645   7.851   9.158   0.126
41250SOL     OW25646   3.148   1.277   2.192
41250SOL    HW125647   3.194   1.297   2.273
41250SOL    HW225648   3.055   1.281   2.214
41251SOL     OW25649  11.014   0.257   1.819
41251SOL    HW125650  11.002   0.323   1.888
41251SOL    HW225651  10.938   0.268   1.762
41252SOL     OW25652   4.752   7.748  14.446
41252SOL    HW125653   4.842   7.771  14.470
41252SOL    HW225654   4.760   7.663  14.402
41253SOL     OW25655  10.858   3.748  10.041
41253SOL    HW125656  10.875   3.815  10.108
41253SOL    HW225657  10.828   3.798   9.965
41254SOL     OW25658   4.578   6.109   4.184
41254SOL    HW125659   4.604   6.201   4.193
41254SOL    HW225660   4.602   6.086   4.095
41255SOL     OW25661  12.094  12.460   4.439
41255SOL    HW125662  12.116  12.385   4.383
41255SOL    HW225663  12.064  12.421   4.521
41256SOL     OW25664  14.338   7.372  12.043
41256SOL    HW125665  14.342   7.280  12.016
41256SOL    HW225666  14.325   7.420  11.961
41257SOL     OW25667   8.782  12.323   9.588
41257SOL    HW125668   8.858  12.269   9.609
41257SOL    HW225669   8.733  12.329   9.670
41258SOL     OW25670   2.882  12.681   7.644
41258SOL    HW125671   2.879  12.590   7.673
41258SOL    HW225672   2.897  12.676   7.550
41259SOL     OW25673   1.794   6.250   9.786
41259SOL    HW125674   1.740   6.242   9.708
41259SOL    HW225675   1.762   6.328   9.830
41260SOL     OW25676   2.304   4.173   8.456
41260SOL    HW125677   2.333   4.205   8.370
41260SOL    HW225678   2.220   4.131   8.438
41261SOL     OW25679  13.840  12.018   4.388
41261SOL    HW125680  13.791  12.048   4.311
41261SOL    HW225681  13.824  11.923   4.390
41262SOL     OW25682   3.123   9.528   3.662
41262SOL    HW125683   3.042   9.490   3.696
41262SOL    HW225684   3.185   9.521   3.734
41263SOL     OW25685   8.268  10.530  10.885
41263SOL    HW125686   8.201  10.478  10.929
41263SOL    HW225687   8.276  10.609  10.938
41264SOL     OW25688   8.334   9.917   6.205
41264SOL    HW125689   8.284   9.839   6.229
41264SOL    HW225690   8.425   9.888   6.204
41265SOL     OW25691   2.833   2.227  14.699
41265SOL    HW125692   2.787   2.310  14.687
41265SOL    HW225693   2.881   2.214  14.617
41266SOL     OW25694   9.988  12.057   3.541
41266SOL    HW125695  10.018  11.996   3.474
41266SOL    HW225696  10.029  12.140   3.518
41267SOL     OW25697  13.045   7.098   4.652
41267SOL    HW125698  13.014   7.037   4.585
41267SOL    HW225699  12.987   7.082   4.727
41268SOL     OW25700   5.182  14.857   2.087
41268SOL    HW125701   5.204   0.070   2.084
41268SOL    HW225702   5.089  14.854   2.064
41269SOL     OW25703  12.192  11.918  13.449
41269SOL    HW125704  12.139  11.998  13.445
41269SOL    HW225705  12.131  11.850  13.477
41270SOL     OW25706   7.379   0.278  12.335
41270SOL    HW125707   7.460   0.326  12.354
41270SOL    HW225708   7.394   0.191  12.371
41271SOL     OW25709  14.532   7.146   9.254
41271SOL    HW125710  14.509   7.180   9.168
41271SOL    HW225711  14.527   7.222   9.312
41272SOL     OW25712   6.305   8.784  12.249
41272SOL    HW125713   6.274   8.829  12.170
41272SOL    HW225714   6.385   8.831  12.273
41273SOL     OW25715   6.814   4.753  12.104
41273SOL    HW125716   6.835   4.715  12.189
41273SOL    HW225717   6.765   4.685  12.058
41274SOL     OW25718   6.126   1.318   7.456
41274SOL    HW125719   6.071   1.314   7.534
41274SOL    HW225720   6.179   1.397   7.469
41275SOL     OW25721   5.462   6.569  10.843
41275SOL    HW125722   5.528   6.578  10.912
41275SOL    HW225723   5.409   6.649  10.849
41276SOL     OW25724   9.241   6.478   5.821
41276SOL    HW125725   9.241   6.405   5.882
41276SOL    HW225726   9.316   6.531   5.847
41277SOL     OW25727   5.270   2.553  11.359
41277SOL    HW125728   5.240   2.490  11.424
41277SOL    HW225729   5.274   2.636  11.406
41278SOL     OW25730   6.603   0.563  10.219
41278SOL    HW125731   6.595   0.641  10.165
41278SOL    HW225732   6.692   0.532  10.203
41279SOL     OW25733   4.428   5.053   6.699
41279SOL    HW125734   4.402   5.139   6.668
41279SOL    HW225735   4.348   5.000   6.695
41280SOL     OW25736   4.057   6.225  10.487
41280SOL    HW125737   4.103   6.188  10.563
41280SOL    HW225738   4.004   6.295  10.524
41281SOL     OW25739   2.668  12.250  13.077
41281SOL    HW125740   2.655  12.270  12.984
41281SOL    HW225741   2.754  12.287  13.097
41282SOL     OW25742  13.217   7.448  11.305
41282SOL    HW125743  13.138   7.426  11.255
41282SOL    HW225744  13.284   7.389  11.270
41283SOL     OW25745  13.508  12.162   3.000
41283SOL    HW125746  13.436  12.150   2.939
41283SOL    HW225747  13.536  12.253   2.989
41284SOL     OW25748   7.566  11.022   0.731
41284SOL    HW125749   7.512  11.076   0.788
41284SOL    HW225750   7.566  11.067   0.646
41285SOL     OW25751  11.569   5.729   9.482
41285SOL    HW125752  11.594   5.805   9.429
41285SOL    HW225753  11.640   5.666   9.470
41286SOL     OW25754  11.719  11.612   9.992
41286SOL    HW125755  11.648  11.550  10.009
41286SOL    HW225756  11.677  11.698   9.999
41287SOL     OW25757  12.158   4.735  11.950
41287SOL    HW125758  12.084   4.675  11.961
41287SOL    HW225759  12.156   4.759  11.858
41288SOL     OW25760   5.741   7.485   0.747
41288SOL    HW125761   5.758   7.463   0.839
41288SOL    HW225762   5.690   7.411   0.713
41289SOL     OW25763   2.930   6.522  13.220
41289SOL    HW125764   2.919   6.427  13.217
41289SOL    HW225765   2.846   6.555  13.251
41290SOL     OW25766  10.914   3.373   0.306
41290SOL    HW125767  10.932   3.459   0.268
41290SOL    HW225768  10.828   3.349   0.271
41291SOL     OW25769   8.680   8.715   1.983
41291SOL    HW125770   8.634   8.690   1.903
41291SOL    HW225771   8.714   8.802   1.965
41292SOL     OW25772   1.380   0.490   5.542
41292SOL    HW125773   1.374   0.420   5.477
41292SOL    HW225774   1.384   0.445   5.626
41293SOL     OW25775  12.455   1.740   1.189
41293SOL    HW125776  12.490   1.826   1.215
41293SOL    HW225777  12.493   1.679   1.253
41294SOL     OW25778   7.655  13.696   0.988
41294SOL    HW125779   7.562  13.715   0.976
41294SOL    HW225780   7.691  13.698   0.900
41295SOL     OW25781  14.161   2.094   2.168
41295SOL    HW125782  14.150   2.120   2.076
41295SOL    HW225783  14.255   2.079   2.177
41296SOL     OW25784  11.700   7.849   8.534
41296SOL    HW125785  11.748   7.769   8.512
41296SOL    HW225786  11.763   7.919   8.520
41297SOL     OW25787   3.373   7.302   5.522
41297SOL    HW125788   3.387   7.397   5.520
41297SOL    HW225789   3.279   7.291   5.508
41298SOL     OW25790   6.197   0.305   7.517
41298SOL    HW125791   6.224   0.396   7.528
41298SOL    HW225792   6.116   0.297   7.567
41299SOL     OW25793  13.606   1.775   1.083
41299SOL    HW125794  13.513   1.750   1.081
41299SOL    HW225795  13.650   1.710   1.029
41300SOL     OW25796   9.971   5.478   5.603
41300SOL    HW125797  10.013   5.397   5.631
41300SOL    HW225798   9.916   5.504   5.677
41301SOL     OW25799  13.964   7.820   0.077
41301SOL    HW125800  14.045   7.860   0.108
41301SOL    HW225801  13.936   7.874   0.003
41302SOL     OW25802   8.961   6.658   9.985
41302SOL    HW125803   8.901   6.584   9.990
41302SOL    HW225804   8.971   6.688  10.075
41303SOL     OW25805   8.872  14.540   2.701
41303SOL    HW125806   8.870  14.635   2.688
41303SOL    HW225807   8.926  14.528   2.780
41304SOL     OW25808   2.240   9.627  13.008
41304SOL    HW125809   2.218   9.718  12.987
41304SOL    HW225810   2.210   9.577  12.933
41305SOL     OW25811  14.324   1.439   6.004
41305SOL    HW125812  14.405   1.413   6.047
41305SOL    HW225813  14.268   1.362   6.008
41306SOL     OW25814   3.741   5.439  10.519
41306SOL    HW125815   3.753   5.423  10.425
41306SOL    HW225816   3.730   5.352  10.557
41307SOL     OW25817   4.064  11.688   8.035
41307SOL    HW125818   4.148  11.718   8.000
41307SOL    HW225819   4.077  11.685   8.129
41308SOL     OW25820   6.526  13.546   0.637
41308SOL    HW125821   6.440  13.582   0.661
41308SOL    HW225822   6.553  13.599   0.561
41309SOL     OW25823   3.422  11.094   3.314
41309SOL    HW125824   3.436  11.189   3.319
41309SOL    HW225825   3.328  11.083   3.319
41310SOL     OW25826  13.983   1.687   4.246
41310SOL    HW125827  14.030   1.690   4.162
41310SOL    HW225828  13.893   1.709   4.224
41311SOL     OW25829  14.014   8.959   0.164
41311SOL    HW125830  14.057   8.885   0.121
41311SOL    HW225831  13.946   8.918   0.218
41312SOL     OW25832   0.364   8.030  10.593
41312SOL    HW125833   0.416   7.995  10.521
41312SOL    HW225834   0.405   8.115  10.612
41313SOL     OW25835  14.529  14.017   8.339
41313SOL    HW125836  14.559  13.962   8.267
41313SOL    HW225837  14.457  13.967   8.378
41314SOL     OW25838  14.403   5.254  11.066
41314SOL    HW125839  14.345   5.324  11.036
41314SOL    HW225840  14.350   5.207  11.131
41315SOL     OW25841   3.706  13.192  11.011
41315SOL    HW125842   3.677  13.101  10.998
41315SOL    HW225843   3.625  13.242  11.018
41316SOL     OW25844   9.278  11.634   6.115
41316SOL    HW125845   9.336  11.667   6.046
41316SOL    HW225846   9.293  11.540   6.116
41317SOL     OW25847   9.201  12.103   3.672
41317SOL    HW125848   9.213  12.178   3.614
41317SOL    HW225849   9.280  12.050   3.659
41318SOL     OW25850  10.432  13.518  11.520
41318SOL    HW125851  10.396  13.540  11.434
41318SOL    HW225852  10.375  13.448  11.553
41319SOL     OW25853  13.699   9.871   6.731
41319SOL    HW125854  13.669   9.799   6.674
41319SOL    HW225855  13.680   9.840   6.820
41320SOL     OW25856  10.268  14.591   8.669
41320SOL    HW125857  10.315  14.642   8.734
41320SOL    HW225858  10.178  14.623   8.673
41321SOL     OW25859   4.351   9.078   5.481
41321SOL    HW125860   4.291   9.004   5.489
41321SOL    HW225861   4.304   9.142   5.427
41322SOL     OW25862   9.116  14.640  11.359
41322SOL    HW125863   9.029  14.640  11.397
41322SOL    HW225864   9.129  14.730  11.329
41323SOL     OW25865   4.138   7.540  11.997
41323SOL    HW125866   4.103   7.499  12.076
41323SOL    HW225867   4.066   7.539  11.934
41324SOL     OW25868  13.760  14.752   2.095
41324SOL    HW125869  13.768  14.838   2.137
41324SOL    HW225870  13.850  14.721   2.086
41325SOL     OW25871  10.100  14.744  11.455
41325SOL    HW125872  10.106  14.829  11.499
41325SOL    HW225873  10.187  14.705  11.466
41326SOL     OW25874   5.098   8.839  12.313
41326SOL    HW125875   5.117   8.755  12.354
41326SOL    HW225876   5.032   8.820  12.247
41327SOL     OW25877  13.038   7.888  12.479
41327SOL    HW125878  12.977   7.884  12.406
41327SOL    HW225879  13.060   7.981  12.487
41328SOL     OW25880  11.168   0.425  11.031
41328SOL    HW125881  11.091   0.478  11.048
41328SOL    HW225882  11.160   0.351  11.091
41329SOL     OW25883  14.246  14.095   0.517
41329SOL    HW125884  14.165  14.045   0.506
41329SOL    HW225885  14.268  14.126   0.429
41330SOL     OW25886  10.839  14.833   0.780
41330SOL    HW125887  10.821  14.759   0.723
41330SOL    HW225888  10.837  14.797   0.869
41331SOL     OW25889   0.007   7.949  14.151
41331SOL    HW125890   0.046   7.982  14.070
41331SOL    HW225891   0.006   8.024  14.210
41332SOL     OW25892   9.544   0.564   0.363
41332SOL    HW125893   9.536   0.537   0.272
41332SOL    HW225894   9.519   0.656   0.363
41333SOL     OW25895   6.460   5.193  14.541
41333SOL    HW125896   6.506   5.276  14.532
41333SOL    HW225897   6.498   5.153  14.619
41334SOL     OW25898  13.738  10.818   4.445
41334SOL    HW125899  13.739  10.828   4.540
41334SOL    HW225900  13.802  10.882   4.414
41335SOL     OW25901   8.250  12.298   7.873
41335SOL    HW125902   8.290  12.240   7.808
41335SOL    HW225903   8.314  12.301   7.944
41336SOL     OW25904   3.336  11.390  14.044
41336SOL    HW125905   3.357  11.388  14.138
41336SOL    HW225906   3.303  11.303  14.025
41337SOL     OW25907   1.123   2.238   8.756
41337SOL    HW125908   1.041   2.246   8.707
41337SOL    HW225909   1.177   2.178   8.704
41338SOL     OW25910   1.500  14.583   7.152
41338SOL    HW125911   1.559  14.510   7.171
41338SOL    HW225912   1.533  14.619   7.070
41339SOL     OW25913   2.522  13.927   5.330
41339SOL    HW125914   2.612  13.897   5.318
41339SOL    HW225915   2.518  13.957   5.421
41340SOL     OW25916  13.903   7.875  12.911
41340SOL    HW125917  13.950   7.872  12.828
41340SOL    HW225918  13.972   7.869  12.978
41341SOL     OW25919  13.441   8.164  10.757
41341SOL    HW125920  13.414   8.133  10.843
41341SOL    HW225921  13.388   8.113  10.696
41342SOL     OW25922  14.118   0.771   5.747
41342SOL    HW125923  14.118   0.744   5.655
41342SOL    HW225924  14.186   0.718   5.787
41343SOL     OW25925   6.514  10.313   7.320
41343SOL    HW125926   6.587  10.274   7.273
41343SOL    HW225927   6.476  10.241   7.370
41344SOL     OW25928   1.980  10.274   6.385
41344SOL    HW125929   1.956  10.366   6.371
41344SOL    HW225930   2.064  10.264   6.341
41345SOL     OW25931   0.057   0.180   6.212
41345SOL    HW125932   0.068   0.107   6.150
41345SOL    HW225933   0.105   0.152   6.290
41346SOL     OW25934   5.729  12.450  11.032
41346SOL    HW125935   5.774  12.451  10.948
41346SOL    HW225936   5.674  12.372  11.029
41347SOL     OW25937  14.466   6.833   1.101
41347SOL    HW125938  14.374   6.855   1.116
41347SOL    HW225939  14.464   6.760   1.040
41348SOL     OW25940   1.501  11.416   7.848
41348SOL    HW125941   1.525  11.424   7.756
41348SOL    HW225942   1.534  11.330   7.874
41349SOL     OW25943   2.287   0.797  11.554
41349SOL    HW125944   2.379   0.823  11.562
41349SOL    HW225945   2.258   0.783  11.645
41350SOL     OW25946   0.396   2.949   6.230
41350SOL    HW125947   0.333   2.926   6.298
41350SOL    HW225948   0.374   3.039   6.207
41351SOL     OW25949   7.556   1.363   3.646
41351SOL    HW125950   7.492   1.295   3.669
41351SOL    HW225951   7.623   1.357   3.714
41352SOL     OW25952   5.528   7.669   7.817
41352SOL    HW125953   5.481   7.651   7.898
41352SOL    HW225954   5.493   7.753   7.787
41353SOL     OW25955   4.900  12.709   8.199
41353SOL    HW125956   4.965  12.768   8.235
41353SOL    HW225957   4.909  12.718   8.104
41354SOL     OW25958  11.440  13.516   4.324
41354SOL    HW125959  11.371  13.563   4.371
41354SOL    HW225960  11.402  13.495   4.239
41355SOL     OW25961  14.631  11.381  13.738
41355SOL    HW125962  14.611  11.434  13.816
41355SOL    HW225963  14.577  11.419  13.669
41356SOL     OW25964  11.622   9.242   0.281
41356SOL    HW125965  11.533   9.266   0.255
41356SOL    HW225966  11.662   9.209   0.201
41357SOL     OW25967   4.306  11.853  13.071
41357SOL    HW125968   4.344  11.932  13.033
41357SOL    HW225969   4.214  11.856  13.044
41358SOL     OW25970   1.054   5.227  14.730
41358SOL    HW125971   1.129   5.222  14.671
41358SOL    HW225972   0.978   5.231  14.672
41359SOL     OW25973   7.890   9.658  12.135
41359SOL    HW125974   7.963   9.716  12.158
41359SOL    HW225975   7.814   9.698  12.177
41360SOL     OW25976   9.406   4.870   6.734
41360SOL    HW125977   9.472   4.804   6.714
41360SOL    HW225978   9.393   4.917   6.652
41361SOL     OW25979   3.601   0.539  12.827
41361SOL    HW125980   3.587   0.471  12.892
41361SOL    HW225981   3.695   0.554  12.826
41362SOL     OW25982   4.002  12.008   5.348
41362SOL    HW125983   4.060  12.037   5.278
41362SOL    HW225984   3.914  12.030   5.317
41363SOL     OW25985   7.337  14.425  10.661
41363SOL    HW125986   7.321  14.396  10.750
41363SOL    HW225987   7.328  14.520  10.664
41364SOL     OW25988   9.508   6.683   5.836
41364SOL    HW125989   9.564   6.621   5.788
41364SOL    HW225990   9.469   6.738   5.769
41365SOL     OW25991   8.917   7.193  11.324
41365SOL    HW125992   8.904   7.246  11.245
41365SOL    HW225993   9.004   7.217  11.354
41366SOL     OW25994   8.082   3.794   4.248
41366SOL    HW125995   8.131   3.722   4.209
41366SOL    HW225996   8.143   3.868   4.248
41367SOL     OW25997  13.194   7.236  10.248
41367SOL    HW125998  13.198   7.160  10.307
41367SOL    HW225999  13.266   7.222  10.186
41368SOL     OW26000  12.559  10.941   9.746
41368SOL    HW126001  12.578  10.888   9.669
41368SOL    HW226002  12.528  11.025   9.710
41369SOL     OW26003  13.113   3.873   0.429
41369SOL    HW126004  13.105   3.778   0.426
41369SOL    HW226005  13.207   3.889   0.421
41370SOL     OW26006   7.269   4.817   9.011
41370SOL    HW126007   7.324   4.769   8.949
41370SOL    HW226008   7.289   4.909   8.993
41371SOL     OW26009   3.403   9.285   7.319
41371SOL    HW126010   3.455   9.259   7.244
41371SOL    HW226011   3.353   9.207   7.343
41372SOL     OW26012  13.941   7.706  13.328
41372SOL    HW126013  13.854   7.744  13.327
41372SOL    HW226014  13.927   7.613  13.310
41373SOL     OW26015  14.829  14.726   4.735
41373SOL    HW126016  14.769  14.652   4.727
41373SOL    HW226017  14.783  14.788   4.792
41374SOL     OW26018  13.004   2.078  11.813
41374SOL    HW126019  12.943   2.034  11.873
41374SOL    HW226020  12.948   2.111  11.743
41375SOL     OW26021  14.162   5.597  12.835
41375SOL    HW126022  14.117   5.573  12.916
41375SOL    HW226023  14.163   5.517  12.783
41376SOL     OW26024  14.076   8.837   1.972
41376SOL    HW126025  14.016   8.910   1.984
41376SOL    HW226026  14.156   8.863   2.017
41377SOL     OW26027   0.233   9.715   9.593
41377SOL    HW126028   0.203   9.724   9.502
41377SOL    HW226029   0.282   9.633   9.595
41378SOL     OW26030   0.744   9.631   1.972
41378SOL    HW126031   0.794   9.549   1.972
41378SOL    HW226032   0.662   9.609   2.015
41379SOL     OW26033   1.560   3.769   0.148
41379SOL    HW126034   1.494   3.816   0.098
41379SOL    HW226035   1.585   3.830   0.218
41380SOL     OW26036   6.843   5.055  14.679
41380SOL    HW126037   6.801   5.060  14.593
41380SOL    HW226038   6.833   4.964  14.705
41381SOL     OW26039   8.305  13.533   2.871
41381SOL    HW126040   8.289  13.444   2.902
41381SOL    HW226041   8.233  13.550   2.811
41382SOL     OW26042   0.381   8.524   0.474
41382SOL    HW126043   0.430   8.444   0.493
41382SOL    HW226044   0.443   8.595   0.493
41383SOL     OW26045  10.189   0.439   5.206
41383SOL    HW126046  10.094   0.437   5.204
41383SOL    HW226047  10.213   0.395   5.287
41384SOL     OW26048   8.306  12.580  10.368
41384SOL    HW126049   8.303  12.612  10.457
41384SOL    HW226050   8.370  12.637  10.324
41385SOL     OW26051   9.661   1.630   2.128
41385SOL    HW126052   9.659   1.713   2.080
41385SOL    HW226053   9.569   1.606   2.140
41386SOL     OW26054  11.226  10.231   9.199
41386SOL    HW126055  11.158  10.274   9.252
41386SOL    HW226056  11.233  10.285   9.120
41387SOL     OW26057  14.816   8.090   4.119
41387SOL    HW126058  14.825   8.112   4.026
41387SOL    HW226059   0.026   8.089   4.152
41388SOL     OW26060   4.485   1.550  13.906
41388SOL    HW126061   4.487   1.646  13.905
41388SOL    HW226062   4.566   1.526  13.952
41389SOL     OW26063   4.516   0.050  12.443
41389SOL    HW126064   4.552   0.050  12.532
41389SOL    HW226065   4.530   0.140  12.412
41390SOL     OW26066   2.813   9.616   4.381
41390SOL    HW126067   2.765   9.543   4.342
41390SOL    HW226068   2.825   9.591   4.472
41391SOL     OW26069  12.857   8.679   1.908
41391SOL    HW126070  12.855   8.768   1.874
41391SOL    HW226071  12.824   8.686   1.998
41392SOL     OW26072  10.214  10.920   3.171
41392SOL    HW126073  10.128  10.958   3.190
41392SOL    HW226074  10.198  10.858   3.100
41393SOL     OW26075   5.875   2.080   2.423
41393SOL    HW126076   5.864   2.122   2.509
41393SOL    HW226077   5.961   2.037   2.429
41394SOL     OW26078  13.387   4.188   7.637
41394SOL    HW126079  13.386   4.248   7.563
41394SOL    HW226080  13.298   4.153   7.641
41395SOL     OW26081  14.497   9.472   8.612
41395SOL    HW126082  14.523   9.563   8.602
41395SOL    HW226083  14.566   9.422   8.568
41396SOL     OW26084  12.814   2.067   2.674
41396SOL    HW126085  12.727   2.095   2.646
41396SOL    HW226086  12.869   2.076   2.596
41397SOL     OW26087   5.948   8.462   6.472
41397SOL    HW126088   5.868   8.440   6.518
41397SOL    HW226089   5.920   8.520   6.400
41398SOL     OW26090   6.869  14.427   7.885
41398SOL    HW126091   6.912  14.503   7.925
41398SOL    HW226092   6.849  14.370   7.959
41399SOL     OW26093   6.427   6.375  14.874
41399SOL    HW126094   6.436   6.467   0.018
41399SOL    HW226095   6.337   6.368  14.840
41400SOL     OW26096   0.295   3.182   6.141
41400SOL    HW126097   0.304   3.183   6.046
41400SOL    HW226098   0.336   3.264   6.170
41401SOL     OW26099   7.280   0.672   0.104
41401SOL    HW126100   7.225   0.696   0.178
41401SOL    HW226101   7.344   0.611   0.141
41402SOL     OW26102   9.742  13.557   9.454
41402SOL    HW126103   9.743  13.569   9.549
41402SOL    HW226104   9.827  13.517   9.434
41403SOL     OW26105  14.258   3.101  11.709
41403SOL    HW126106  14.182   3.110  11.651
41403SOL    HW226107  14.229   3.042  11.778
41404SOL     OW26108   3.500   4.835   4.502
41404SOL    HW126109   3.501   4.782   4.422
41404SOL    HW226110   3.588   4.824   4.538
41405SOL     OW26111   2.594   6.088  12.334
41405SOL    HW126112   2.500   6.095  12.316
41405SOL    HW226113   2.608   5.995  12.351
41406SOL     OW26114   0.096   6.009   5.481
41406SOL    HW126115   0.157   6.000   5.409
41406SOL    HW226116   0.119   5.939   5.542
41407SOL     OW26117   6.089   0.505  13.048
41407SOL    HW126118   6.100   0.466  12.961
41407SOL    HW226119   6.005   0.552  13.042
41408SOL     OW26120  12.534  10.439  14.846
41408SOL    HW126121  12.553  10.434   0.060
41408SOL    HW226122  12.480  10.517  14.837
41409SOL     OW26123   1.372   9.675  12.251
41409SOL    HW126124   1.293   9.724  12.277
41409SOL    HW226125   1.338   9.595  12.210
41410SOL     OW26126   3.519   7.707   9.223
41410SOL    HW126127   3.589   7.772   9.228
41410SOL    HW226128   3.447   7.752   9.180
41411SOL     OW26129   0.221   8.357   9.341
41411SOL    HW126130   0.315   8.340   9.349
41411SOL    HW226131   0.214   8.430   9.280
41412SOL     OW26132   3.466   8.647   6.947
41412SOL    HW126133   3.376   8.637   6.978
41412SOL    HW226134   3.484   8.741   6.955
41413SOL     OW26135   3.012  13.212   7.337
41413SOL    HW126136   2.941  13.276   7.340
41413SOL    HW226137   3.004  13.163   7.419
41414SOL     OW26138   9.265   2.708   8.411
41414SOL    HW126139   9.220   2.752   8.482
41414SOL    HW226140   9.262   2.770   8.338
41415SOL     OW26141   0.227   8.688   1.621
41415SOL    HW126142   0.313   8.648   1.629
41415SOL    HW226143   0.176   8.625   1.570
41416SOL     OW26144   4.073   8.532   6.097
41416SOL    HW126145   3.998   8.591   6.096
41416SOL    HW226146   4.037   8.447   6.073
41417SOL     OW26147   0.827   3.002   0.128
41417SOL    HW126148   0.789   3.089   0.118
41417SOL    HW226149   0.906   3.003   0.074
41418SOL     OW26150  14.598   5.100   1.765
41418SOL    HW126151  14.533   5.171   1.767
41418SOL    HW226152  14.585   5.053   1.847
41419SOL     OW26153   0.064   0.141   8.188
41419SOL    HW126154   0.011   0.067   8.218
41419SOL    HW226155   0.002   0.200   8.145
41420SOL     OW26156  10.994   1.486   3.058
41420SOL    HW126157  11.061   1.433   3.101
41420SOL    HW226158  10.974   1.439   2.977
41421SOL     OW26159   2.259   8.161   7.577
41421SOL    HW126160   2.172   8.194   7.598
41421SOL    HW226161   2.244   8.075   7.539
41422SOL     OW26162  10.308  11.815   8.417
41422SOL    HW126163  10.316  11.749   8.348
41422SOL    HW226164  10.375  11.791   8.481
41423SOL     OW26165   9.516  12.811   8.927
41423SOL    HW126166   9.462  12.742   8.967
41423SOL    HW226167   9.455  12.884   8.915
41424SOL     OW26168   0.258   7.592   5.715
41424SOL    HW126169   0.183   7.542   5.684
41424SOL    HW226170   0.270   7.563   5.805
41425SOL     OW26171  12.650  10.001  10.247
41425SOL    HW126172  12.632  10.093  10.266
41425SOL    HW226173  12.563   9.962  10.237
41426SOL     OW26174   8.594   2.578   7.621
41426SOL    HW126175   8.649   2.632   7.677
41426SOL    HW226176   8.646   2.499   7.604
41427SOL     OW26177   1.250  12.008  13.269
41427SOL    HW126178   1.184  12.019  13.200
41427SOL    HW226179   1.231  11.922  13.306
41428SOL     OW26180  13.513   4.928   1.684
41428SOL    HW126181  13.455   4.860   1.718
41428SOL    HW226182  13.488   5.008   1.731
41429SOL     OW26183   3.404  13.272   2.007
41429SOL    HW126184   3.329  13.275   1.947
41429SOL    HW226185   3.479  13.293   1.951
41430SOL     OW26186   2.490   7.728   0.513
41430SOL    HW126187   2.451   7.726   0.425
41430SOL    HW226188   2.548   7.652   0.515
41431SOL     OW26189  12.361   5.846  10.694
41431SOL    HW126190  12.283   5.885  10.733
41431SOL    HW226191  12.413   5.920  10.663
41432SOL     OW26192   1.439   9.057   8.564
41432SOL    HW126193   1.487   9.076   8.483
41432SOL    HW226194   1.503   9.071   8.634
41433SOL     OW26195   5.155  11.282   3.364
41433SOL    HW126196   5.221  11.293   3.433
41433SOL    HW226197   5.206  11.286   3.282
41434SOL     OW26198   3.058   9.675   1.112
41434SOL    HW126199   3.066   9.653   1.205
41434SOL    HW226200   2.968   9.708   1.104
41435SOL     OW26201   0.302  12.314   3.700
41435SOL    HW126202   0.285  12.221   3.719
41435SOL    HW226203   0.324  12.352   3.785
41436SOL     OW26204   9.821   5.601   7.676
41436SOL    HW126205   9.795   5.572   7.588
41436SOL    HW226206   9.857   5.688   7.663
41437SOL     OW26207   4.497   6.355   8.584
41437SOL    HW126208   4.510   6.444   8.616
41437SOL    HW226209   4.520   6.299   8.658
41438SOL     OW26210   3.808   9.599   7.552
41438SOL    HW126211   3.778   9.649   7.476
41438SOL    HW226212   3.728   9.567   7.593
41439SOL     OW26213   8.892  10.503  10.724
41439SOL    HW126214   8.804  10.523  10.693
41439SOL    HW226215   8.878  10.446  10.800
41440SOL     OW26216   5.288   8.660  13.777
41440SOL    HW126217   5.362   8.679  13.834
41440SOL    HW226218   5.255   8.575  13.807
41441SOL     OW26219   8.516   0.542   2.938
41441SOL    HW126220   8.593   0.598   2.951
41441SOL    HW226221   8.537   0.490   2.860
41442SOL     OW26222   4.323  14.204  13.153
41442SOL    HW126223   4.266  14.255  13.097
41442SOL    HW226224   4.409  14.209  13.111
41443SOL     OW26225   7.829   5.524   7.357
41443SOL    HW126226   7.883   5.585   7.306
41443SOL    HW226227   7.777   5.580   7.414
41444SOL     OW26228   1.292  12.451   5.262
41444SOL    HW126229   1.339  12.370   5.245
41444SOL    HW226230   1.283  12.492   5.175
41445SOL     OW26231  14.632  11.994  14.580
41445SOL    HW126232  14.555  11.963  14.627
41445SOL    HW226233  14.682  11.915  14.559
41446SOL     OW26234   1.310   1.092   3.230
41446SOL    HW126235   1.223   1.100   3.193
41446SOL    HW226236   1.314   1.002   3.263
41447SOL     OW26237   6.946   4.622  12.356
41447SOL    HW126238   6.857   4.616  12.391
41447SOL    HW226239   6.971   4.713  12.367
41448SOL     OW26240  14.635   1.398   1.674
41448SOL    HW126241  14.690   1.457   1.726
41448SOL    HW226242  14.576   1.358   1.737
41449SOL     OW26243   2.890   4.646   1.537
41449SOL    HW126244   2.878   4.721   1.479
41449SOL    HW226245   2.960   4.673   1.596
41450SOL     OW26246   3.383   4.294   7.057
41450SOL    HW126247   3.476   4.309   7.075
41450SOL    HW226248   3.338   4.358   7.112
41451SOL     OW26249   5.521  14.870  10.637
41451SOL    HW126250   5.554  14.879  10.548
41451SOL    HW226251   5.590   0.030  10.692
41452SOL     OW26252  13.171   0.477  12.737
41452SOL    HW126253  13.113   0.522  12.797
41452SOL    HW226254  13.195   0.543  12.671
41453SOL     OW26255   0.122   5.621   4.219
41453SOL    HW126256   0.203   5.603   4.173
41453SOL    HW226257   0.141   5.699   4.271
41454SOL     OW26258   1.551  13.658  13.735
41454SOL    HW126259   1.611  13.633  13.666
41454SOL    HW226260   1.576  13.748  13.757
41455SOL     OW26261   5.809   9.920  11.279
41455SOL    HW126262   5.755   9.906  11.201
41455SOL    HW226263   5.889   9.871  11.261
41456SOL     OW26264   1.397   4.539  14.227
41456SOL    HW126265   1.333   4.488  14.177
41456SOL    HW226266   1.345   4.601  14.277
41457SOL     OW26267   2.535  10.059   7.774
41457SOL    HW126268   2.556  10.087   7.685
41457SOL    HW226269   2.595  10.109   7.830
41458SOL     OW26270  14.312   6.100  10.001
41458SOL    HW126271  14.331   6.040  10.074
41458SOL    HW226272  14.356   6.181  10.025
41459SOL     OW26273   5.601   6.648  11.581
41459SOL    HW126274   5.627   6.655  11.490
41459SOL    HW226275   5.505   6.644  11.579
41460SOL     OW26276  11.945   1.858   3.372
41460SOL    HW126277  11.994   1.868   3.453
41460SOL    HW226278  11.868   1.913   3.384
41461SOL     OW26279   9.824   5.015   8.667
41461SOL    HW126280   9.903   4.986   8.622
41461SOL    HW226281   9.793   5.090   8.616
41462SOL     OW26282  10.178   2.663   9.908
41462SOL    HW126283  10.194   2.673  10.002
41462SOL    HW226284  10.084   2.649   9.901
41463SOL     OW26285  13.544   9.303   4.376
41463SOL    HW126286  13.555   9.295   4.471
41463SOL    HW226287  13.487   9.379   4.365
41464SOL     OW26288   7.676  14.615  10.277
41464SOL    HW126289   7.711  14.532  10.309
41464SOL    HW226290   7.735  14.682  10.313
41465SOL     OW26291   9.326  12.108  13.495
41465SOL    HW126292   9.256  12.072  13.440
41465SOL    HW226293   9.407  12.076  13.456
41466SOL     OW26294   5.620  13.400   5.656
41466SOL    HW126295   5.630  13.353   5.573
41466SOL    HW226296   5.630  13.492   5.634
41467SOL     OW26297   8.486   2.625   1.767
41467SOL    HW126298   8.497   2.582   1.852
41467SOL    HW226299   8.509   2.717   1.783
41468SOL     OW26300   2.000   7.398   1.651
41468SOL    HW126301   2.078   7.402   1.595
41468SOL    HW226302   1.945   7.471   1.621
41469SOL     OW26303   8.141  11.682   3.441
41469SOL    HW126304   8.205  11.623   3.480
41469SOL    HW226305   8.159  11.678   3.347
41470SOL     OW26306  14.801   2.909  11.425
41470SOL    HW126307   0.007   2.919  11.466
41470SOL    HW226308  14.749   2.862  11.491
41471SOL     OW26309   3.934  13.582   4.596
41471SOL    HW126310   3.850  13.601   4.640
41471SOL    HW226311   3.983  13.664   4.602
41472SOL     OW26312   3.156  13.510   2.369
41472SOL    HW126313   3.101  13.505   2.291
41472SOL    HW226314   3.155  13.602   2.394
41473SOL     OW26315  13.204   7.829   2.384
41473SOL    HW126316  13.117   7.805   2.413
41473SOL    HW226317  13.202   7.818   2.289
41474SOL     OW26318   2.876   7.110   0.290
41474SOL    HW126319   2.826   7.185   0.322
41474SOL    HW226320   2.953   7.149   0.247
41475SOL     OW26321   1.515  11.589   9.726
41475SOL    HW126322   1.460  11.512   9.732
41475SOL    HW226323   1.516  11.611   9.633
41476SOL     OW26324   5.409   8.767   9.336
41476SOL    HW126325   5.378   8.721   9.415
41476SOL    HW226326   5.437   8.697   9.277
41477SOL     OW26327   2.504  13.424   5.567
41477SOL    HW126328   2.437  13.407   5.633
41477SOL    HW226329   2.587  13.408   5.612
41478SOL     OW26330   7.564  14.747  11.981
41478SOL    HW126331   7.514  14.675  12.019
41478SOL    HW226332   7.583  14.718  11.892
41479SOL     OW26333   5.239   9.588   6.538
41479SOL    HW126334   5.236   9.536   6.618
41479SOL    HW226335   5.295   9.662   6.559
41480SOL     OW26336   6.173  12.359   7.090
41480SOL    HW126337   6.252  12.404   7.118
41480SOL    HW226338   6.105  12.427   7.090
41481SOL     OW26339   8.715  12.400   0.455
41481SOL    HW126340   8.772  12.465   0.414
41481SOL    HW226341   8.657  12.371   0.384
41482SOL     OW26342   1.561   0.182   5.903
41482SOL    HW126343   1.653   0.208   5.913
41482SOL    HW226344   1.563   0.087   5.914
41483SOL     OW26345  12.692  11.935  12.024
41483SOL    HW126346  12.784  11.946  12.003
41483SOL    HW226347  12.682  11.972  12.112
41484SOL     OW26348   0.459  14.538   7.723
41484SOL    HW126349   0.408  14.466   7.759
41484SOL    HW226350   0.426  14.548   7.633
41485SOL     OW26351   1.083  11.580   1.928
41485SOL    HW126352   1.152  11.514   1.932
41485SOL    HW226353   1.010  11.535   1.886
41486SOL     OW26354   4.307   3.640   9.285
41486SOL    HW126355   4.213   3.624   9.275
41486SOL    HW226356   4.322   3.637   9.379
41487SOL     OW26357   6.993   3.462   9.426
41487SOL    HW126358   7.069   3.472   9.369
41487SOL    HW226359   7.009   3.524   9.497
41488SOL     OW26360   3.689  12.888   1.680
41488SOL    HW126361   3.676  12.833   1.603
41488SOL    HW226362   3.603  12.925   1.698
41489SOL     OW26363   7.288   1.811   0.454
41489SOL    HW126364   7.348   1.880   0.481
41489SOL    HW226365   7.215   1.856   0.412
41490SOL     OW26366   2.371  12.814   8.844
41490SOL    HW126367   2.286  12.770   8.843
41490SOL    HW226368   2.434  12.745   8.824
41491SOL     OW26369   1.569   8.382   6.748
41491SOL    HW126370   1.663   8.368   6.737
41491SOL    HW226371   1.533   8.294   6.760
41492SOL     OW26372  12.990  10.343   5.585
41492SOL    HW126373  12.951  10.356   5.499
41492SOL    HW226374  12.915  10.340   5.645
41493SOL     OW26375  10.298  11.160  13.748
41493SOL    HW126376  10.234  11.132  13.813
41493SOL    HW226377  10.382  11.159  13.795
41494SOL     OW26378   1.636  14.010   3.934
41494SOL    HW126379   1.567  13.953   3.969
41494SOL    HW226380   1.694  14.026   4.008
41495SOL     OW26381   8.556   5.745   5.944
41495SOL    HW126382   8.629   5.754   6.005
41495SOL    HW226383   8.538   5.835   5.915
41496SOL     OW26384   3.820  12.177  10.270
41496SOL    HW126385   3.885  12.150  10.335
41496SOL    HW226386   3.783  12.258  10.305
41497SOL     OW26387   6.445   1.545   4.009
41497SOL    HW126388   6.462   1.538   3.916
41497SOL    HW226389   6.357   1.583   4.015
41498SOL     OW26390   9.939   9.734   1.507
41498SOL    HW126391   9.919   9.683   1.429
41498SOL    HW226392   9.861   9.725   1.562
41499SOL     OW26393   4.865   1.666   6.386
41499SOL    HW126394   4.839   1.607   6.316
41499SOL    HW226395   4.896   1.745   6.342
41500SOL     OW26396   3.256   6.681   9.991
41500SOL    HW126397   3.211   6.753   9.947
41500SOL    HW226398   3.203   6.665  10.070
41501SOL     OW26399  10.995   3.587  11.307
41501SOL    HW126400  10.935   3.655  11.338
41501SOL    HW226401  11.001   3.603  11.212
41502SOL     OW26402   5.771   8.458   8.621
41502SOL    HW126403   5.713   8.532   8.603
41502SOL    HW226404   5.806   8.434   8.535
41503SOL     OW26405  14.703   7.415   4.495
41503SOL    HW126406  14.672   7.438   4.582
41503SOL    HW226407  14.643   7.346   4.465
41504SOL     OW26408  14.439   1.930  12.138
41504SOL    HW126409  14.426   1.874  12.061
41504SOL    HW226410  14.430   2.019  12.105
41505SOL     OW26411   9.403   4.729  11.435
41505SOL    HW126412   9.433   4.820  11.431
41505SOL    HW226413   9.425   4.693  11.350
41506SOL     OW26414  10.050  13.943   1.639
41506SOL    HW126415  10.050  13.934   1.734
41506SOL    HW226416   9.964  13.979   1.618
41507SOL     OW26417   5.931   5.138   0.010
41507SOL    HW126418   5.915   5.225  14.854
41507SOL    HW226419   5.934   5.151   0.105
41508SOL     OW26420   0.725   1.344   0.271
41508SOL    HW126421   0.722   1.275   0.204
41508SOL    HW226422   0.743   1.424   0.222
41509SOL     OW26423   5.590   0.416   9.972
41509SOL    HW126424   5.678   0.452   9.957
41509SOL    HW226425   5.569   0.440  10.062
41510SOL     OW26426   7.728  12.782  13.903
41510SOL    HW126427   7.794  12.799  13.836
41510SOL    HW226428   7.743  12.851  13.969
41511SOL     OW26429   3.674  12.879  12.720
41511SOL    HW126430   3.767  12.863  12.740
41511SOL    HW226431   3.628  12.806  12.760
41512SOL     OW26432   5.461  12.452   4.031
41512SOL    HW126433   5.378  12.458   3.984
41512SOL    HW226434   5.470  12.359   4.052
41513SOL     OW26435   7.849   0.928   0.898
41513SOL    HW126436   7.799   0.884   0.967
41513SOL    HW226437   7.791   0.996   0.865
41514SOL     OW26438   1.753  10.684   7.911
41514SOL    HW126439   1.733  10.596   7.880
41514SOL    HW226440   1.672  10.714   7.953
41515SOL     OW26441   5.379   6.525   1.880
41515SOL    HW126442   5.387   6.524   1.975
41515SOL    HW226443   5.325   6.602   1.860
41516SOL     OW26444   7.813   5.559  10.683
41516SOL    HW126445   7.774   5.497  10.621
41516SOL    HW226446   7.799   5.519  10.769
41517SOL     OW26447  10.869   2.905  13.308
41517SOL    HW126448  10.949   2.938  13.265
41517SOL    HW226449  10.822   2.860  13.238
41518SOL     OW26450  13.972   8.165   2.182
41518SOL    HW126451  14.062   8.188   2.205
41518SOL    HW226452  13.974   8.070   2.170
41519SOL     OW26453  12.065  11.020   5.274
41519SOL    HW126454  12.072  11.114   5.260
41519SOL    HW226455  12.120  10.981   5.206
41520SOL     OW26456   2.024   8.623  13.652
41520SOL    HW126457   2.055   8.699  13.603
41520SOL    HW226458   2.103   8.571  13.668
41521SOL     OW26459   1.922   1.640   1.698
41521SOL    HW126460   1.952   1.569   1.641
41521SOL    HW226461   1.990   1.707   1.689
41522SOL     OW26462   3.584   4.086  13.843
41522SOL    HW126463   3.628   4.046  13.919
41522SOL    HW226464   3.492   4.090  13.869
41523SOL     OW26465  14.855   7.847  12.646
41523SOL    HW126466  14.839   7.854  12.552
41523SOL    HW226467  14.770   7.827  12.684
41524SOL     OW26468   4.176  14.196   0.910
41524SOL    HW126469   4.111  14.148   0.960
41524SOL    HW226470   4.147  14.287   0.914
41525SOL     OW26471   7.416   5.441   6.688
41525SOL    HW126472   7.497   5.479   6.653
41525SOL    HW226473   7.430   5.439   6.782
41526SOL     OW26474  13.659   8.438   8.830
41526SOL    HW126475  13.743   8.402   8.802
41526SOL    HW226476  13.616   8.366   8.875
41527SOL     OW26477   9.870   1.696   5.738
41527SOL    HW126478   9.954   1.685   5.782
41527SOL    HW226479   9.875   1.782   5.696
41528SOL     OW26480   2.135   0.796  13.282
41528SOL    HW126481   2.045   0.776  13.255
41528SOL    HW226482   2.133   0.890  13.303
41529SOL     OW26483   3.092   1.998  13.725
41529SOL    HW126484   3.182   2.028  13.719
41529SOL    HW226485   3.066   2.016  13.815
41530SOL     OW26486   5.195   8.387   8.824
41530SOL    HW126487   5.243   8.328   8.765
41530SOL    HW226488   5.253   8.463   8.833
41531SOL     OW26489   8.378   8.331   9.508
41531SOL    HW126490   8.288   8.327   9.477
41531SOL    HW226491   8.387   8.257   9.567
41532SOL     OW26492   9.996  11.791  13.975
41532SOL    HW126493   9.949  11.773  14.056
41532SOL    HW226494   9.933  11.840  13.921
41533SOL     OW26495  11.034   7.234  11.316
41533SOL    HW126496  10.990   7.165  11.365
41533SOL    HW226497  10.963   7.294  11.291
41534SOL     OW26498  10.752   9.358  11.392
41534SOL    HW126499  10.832   9.365  11.444
41534SOL    HW226500  10.767   9.282  11.335
41535SOL     OW26501  11.155   2.087  11.700
41535SOL    HW126502  11.162   1.994  11.682
41535SOL    HW226503  11.223   2.127  11.645
41536SOL     OW26504   6.238   8.367   7.008
41536SOL    HW126505   6.209   8.289   6.961
41536SOL    HW226506   6.261   8.429   6.938
41537SOL     OW26507  13.247   2.627  10.448
41537SOL    HW126508  13.185   2.559  10.419
41537SOL    HW226509  13.328   2.606  10.402
41538SOL     OW26510  14.543  11.535   0.267
41538SOL    HW126511  14.534  11.484   0.348
41538SOL    HW226512  14.630  11.574   0.273
41539SOL     OW26513   9.180   0.405   7.244
41539SOL    HW126514   9.118   0.416   7.172
41539SOL    HW226515   9.184   0.311   7.258
41540SOL     OW26516   0.435  13.342   5.576
41540SOL    HW126517   0.509  13.384   5.619
41540SOL    HW226518   0.359  13.367   5.628
41541SOL     OW26519  11.095   5.983   7.178
41541SOL    HW126520  11.071   6.076   7.170
41541SOL    HW226521  11.150   5.979   7.256
41542SOL     OW26522   7.382   7.739  12.053
41542SOL    HW126523   7.295   7.700  12.040
41542SOL    HW226524   7.396   7.735  12.147
41543SOL     OW26525   3.891   9.890  14.129
41543SOL    HW126526   3.845   9.894  14.045
41543SOL    HW226527   3.962   9.828  14.114
41544SOL     OW26528  10.693  13.809   8.998
41544SOL    HW126529  10.698  13.768   8.912
41544SOL    HW226530  10.772  13.778   9.044
41545SOL     OW26531  14.097   4.067   0.424
41545SOL    HW126532  14.025   4.079   0.362
41545SOL    HW226533  14.080   3.981   0.464
41546SOL     OW26534  10.928   7.864   8.974
41546SOL    HW126535  10.848   7.830   8.933
41546SOL    HW226536  10.946   7.803   9.045
41547SOL     OW26537   9.352  14.136   2.423
41547SOL    HW126538   9.390  14.075   2.360
41547SOL    HW226539   9.418  14.204   2.434
41548SOL     OW26540   8.175   7.112  12.054
41548SOL    HW126541   8.131   7.027  12.049
41548SOL    HW226542   8.221   7.111  12.139
41549SOL     OW26543  11.887  11.724   3.697
41549SOL    HW126544  11.946  11.794   3.725
41549SOL    HW226545  11.940  11.645   3.698
41550SOL     OW26546   9.942   8.385   7.783
41550SOL    HW126547   9.898   8.458   7.739
41550SOL    HW226548  10.036   8.401   7.769
41551SOL     OW26549   7.594   9.872   8.239
41551SOL    HW126550   7.651   9.876   8.315
41551SOL    HW226551   7.515   9.920   8.265
41552SOL     OW26552  10.903   7.754   8.585
41552SOL    HW126553  10.814   7.740   8.618
41552SOL    HW226554  10.956   7.687   8.629
41553SOL     OW26555   2.666  14.377   1.718
41553SOL    HW126556   2.702  14.385   1.629
41553SOL    HW226557   2.610  14.300   1.714
41554SOL     OW26558   2.927   5.675   8.017
41554SOL    HW126559   2.894   5.756   7.979
41554SOL    HW226560   3.015   5.665   7.980
41555SOL     OW26561  10.638   7.748  14.089
41555SOL    HW126562  10.655   7.734  13.996
41555SOL    HW226563  10.575   7.681  14.113
41556SOL     OW26564   3.074   6.775   7.362
41556SOL    HW126565   3.093   6.792   7.270
41556SOL    HW226566   3.140   6.825   7.410
41557SOL     OW26567   1.864   8.110   3.192
41557SOL    HW126568   1.901   8.033   3.234
41557SOL    HW226569   1.780   8.124   3.236
41558SOL     OW26570  12.195   6.864  13.546
41558SOL    HW126571  12.261   6.882  13.479
41558SOL    HW226572  12.232   6.902  13.626
41559SOL     OW26573  11.397   3.132   2.253
41559SOL    HW126574  11.333   3.170   2.194
41559SOL    HW226575  11.481   3.162   2.220
41560SOL     OW26576   8.240   0.795  11.731
41560SOL    HW126577   8.216   0.829  11.644
41560SOL    HW226578   8.297   0.720  11.713
41561SOL     OW26579  11.861   7.334   8.816
41561SOL    HW126580  11.775   7.312   8.852
41561SOL    HW226581  11.843   7.399   8.748
41562SOL     OW26582   7.836  14.103   3.839
41562SOL    HW126583   7.876  14.171   3.783
41562SOL    HW226584   7.756  14.143   3.872
41563SOL     OW26585   4.662  12.184   3.261
41563SOL    HW126586   4.730  12.156   3.199
41563SOL    HW226587   4.706  12.185   3.346
41564SOL     OW26588  13.868  10.449   4.970
41564SOL    HW126589  13.916  10.406   5.040
41564SOL    HW226590  13.926  10.444   4.894
41565SOL     OW26591   9.124   2.090  10.922
41565SOL    HW126592   9.071   2.096  11.002
41565SOL    HW226593   9.075   2.140  10.857
41566SOL     OW26594   3.737   4.668   2.810
41566SOL    HW126595   3.759   4.634   2.723
41566SOL    HW226596   3.671   4.735   2.793
41567SOL     OW26597   0.276   2.117   0.909
41567SOL    HW126598   0.250   2.091   0.821
41567SOL    HW226599   0.194   2.121   0.958
41568SOL     OW26600   0.120   0.638   6.214
41568SOL    HW126601   0.146   0.599   6.297
41568SOL    HW226602   0.064   0.572   6.173
41569SOL     OW26603   8.171   6.390   6.038
41569SOL    HW126604   8.252   6.383   5.988
41569SOL    HW226605   8.166   6.482   6.064
41570SOL     OW26606   8.983   5.828   4.652
41570SOL    HW126607   8.932   5.908   4.664
41570SOL    HW226608   9.070   5.859   4.627
41571SOL     OW26609   9.725   6.271  11.572
41571SOL    HW126610   9.691   6.215  11.643
41571SOL    HW226611   9.646   6.311  11.534
41572SOL     OW26612  13.880  13.535   5.078
41572SOL    HW126613  13.970  13.505   5.068
41572SOL    HW226614  13.863  13.589   5.001
41573SOL     OW26615  12.814   7.641   1.215
41573SOL    HW126616  12.734   7.693   1.199
41573SOL    HW226617  12.794   7.591   1.294
41574SOL     OW26618  13.542  10.039  13.080
41574SOL    HW126619  13.539   9.957  13.031
41574SOL    HW226620  13.502  10.018  13.164
41575SOL     OW26621   9.408  13.982   6.476
41575SOL    HW126622   9.321  13.941   6.472
41575SOL    HW226623   9.450  13.956   6.394
41576SOL     OW26624   9.399   9.572   8.336
41576SOL    HW126625   9.340   9.497   8.343
41576SOL    HW226626   9.360   9.628   8.269
41577SOL     OW26627   2.266   5.084  14.729
41577SOL    HW126628   2.280   5.155  14.667
41577SOL    HW226629   2.328   5.016  14.702
41578SOL     OW26630  13.715   0.836  13.755
41578SOL    HW126631  13.763   0.756  13.778
41578SOL    HW226632  13.783   0.903  13.746
41579SOL     OW26633   0.993   2.818  13.535
41579SOL    HW126634   1.066   2.795  13.592
41579SOL    HW226635   1.010   2.770  13.454
41580SOL     OW26636  12.194  14.656  10.189
41580SOL    HW126637  12.233  14.717  10.126
41580SOL    HW226638  12.227  14.570  10.161
41581SOL     OW26639  10.932  10.563   6.622
41581SOL    HW126640  10.860  10.553   6.683
41581SOL    HW226641  10.990  10.627   6.663
41582SOL     OW26642   2.857   8.268   8.472
41582SOL    HW126643   2.939   8.292   8.430
41582SOL    HW226644   2.883   8.222   8.552
41583SOL     OW26645   4.654  12.748   6.816
41583SOL    HW126646   4.706  12.672   6.789
41583SOL    HW226647   4.700  12.823   6.778
41584SOL     OW26648  12.502  13.753   3.869
41584SOL    HW126649  12.473  13.839   3.838
41584SOL    HW226650  12.593  13.746   3.841
41585SOL     OW26651   4.100  11.440  14.614
41585SOL    HW126652   4.124  11.532  14.618
41585SOL    HW226653   4.165  11.400  14.555
41586SOL     OW26654   7.061   1.230   2.741
41586SOL    HW126655   7.111   1.310   2.725
41586SOL    HW226656   7.012   1.248   2.822
41587SOL     OW26657   0.657  10.771   5.149
41587SOL    HW126658   0.584  10.754   5.089
41587SOL    HW226659   0.684  10.684   5.179
41588SOL     OW26660   9.105   3.151   4.922
41588SOL    HW126661   9.132   3.241   4.904
41588SOL    HW226662   9.025   3.160   4.975
41589SOL     OW26663   8.543   5.370   1.115
41589SOL    HW126664   8.455   5.334   1.130
41589SOL    HW226665   8.528   5.463   1.099
41590SOL     OW26666  10.329   4.123   6.299
41590SOL    HW126667  10.259   4.070   6.337
41590SOL    HW226668  10.410   4.074   6.318
41591SOL     OW26669  12.299   8.105   2.639
41591SOL    HW126670  12.353   8.127   2.563
41591SOL    HW226671  12.214   8.145   2.620
41592SOL     OW26672   1.504   9.426   9.855
41592SOL    HW126673   1.544   9.512   9.854
41592SOL    HW226674   1.575   9.366   9.877
41593SOL     OW26675   5.309  11.972   6.632
41593SOL    HW126676   5.310  11.922   6.551
41593SOL    HW226677   5.228  11.947   6.675
41594SOL     OW26678   3.293  12.252  10.008
41594SOL    HW126679   3.275  12.251   9.914
41594SOL    HW226680   3.228  12.193  10.046
41595SOL     OW26681   6.463   5.868   9.675
41595SOL    HW126682   6.534   5.832   9.622
41595SOL    HW226683   6.384   5.849   9.625
41596SOL     OW26684   4.337   3.803  12.179
41596SOL    HW126685   4.283   3.729  12.152
41596SOL    HW226686   4.426   3.779  12.150
41597SOL     OW26687   6.634  14.740   1.467
41597SOL    HW126688   6.584  14.787   1.400
41597SOL    HW226689   6.643  14.651   1.431
41598SOL     OW26690   1.573  12.910   9.022
41598SOL    HW126691   1.478  12.918   9.031
41598SOL    HW226692   1.608  12.962   9.094
41599SOL     OW26693   7.346   7.514  14.868
41599SOL    HW126694   7.298   7.590  14.839
41599SOL    HW226695   7.279   7.452   0.018
41600SOL     OW26696   3.787   4.681  14.469
41600SOL    HW126697   3.770   4.592  14.501
41600SOL    HW226698   3.827   4.669  14.383
41601SOL     OW26699   7.311   6.034   8.729
41601SOL    HW126700   7.327   6.006   8.639
41601SOL    HW226701   7.279   6.124   8.721
41602SOL     OW26702  14.063   1.376   2.849
41602SOL    HW126703  14.006   1.427   2.791
41602SOL    HW226704  14.019   1.292   2.858
41603SOL     OW26705   7.685   2.488   5.094
41603SOL    HW126706   7.620   2.476   5.163
41603SOL    HW226707   7.704   2.582   5.095
41604SOL     OW26708   7.173  13.780   0.169
41604SOL    HW126709   7.144  13.858   0.122
41604SOL    HW226710   7.165  13.709   0.106
41605SOL     OW26711  12.766   9.096  12.233
41605SOL    HW126712  12.750   9.187  12.206
41605SOL    HW226713  12.725   9.043  12.165
41606SOL     OW26714   1.928   0.876   0.521
41606SOL    HW126715   1.943   0.821   0.444
41606SOL    HW226716   1.980   0.954   0.505
41607SOL     OW26717   6.986  12.113   3.052
41607SOL    HW126718   7.078  12.120   3.077
41607SOL    HW226719   6.945  12.191   3.090
41608SOL     OW26720   3.969   5.270   1.918
41608SOL    HW126721   3.879   5.284   1.949
41608SOL    HW226722   3.993   5.354   1.878
41609SOL     OW26723   1.651  12.297   4.808
41609SOL    HW126724   1.609  12.224   4.854
41609SOL    HW226725   1.640  12.276   4.715
41610SOL     OW26726   8.457   1.609   6.071
41610SOL    HW126727   8.542   1.603   6.026
41610SOL    HW226728   8.471   1.676   6.138
41611SOL     OW26729   2.898   5.631  13.234
41611SOL    HW126730   2.866   5.648  13.322
41611SOL    HW226731   2.874   5.709  13.184
41612SOL     OW26732  11.615   4.359   9.156
41612SOL    HW126733  11.700   4.368   9.113
41612SOL    HW226734  11.553   4.342   9.085
41613SOL     OW26735   3.603  10.708   7.200
41613SOL    HW126736   3.524  10.759   7.220
41613SOL    HW226737   3.572  10.642   7.138
41614SOL     OW26738  13.340   7.100   4.585
41614SOL    HW126739  13.265   7.159   4.580
41614SOL    HW226740  13.376   7.114   4.672
41615SOL     OW26741   0.462   0.934   5.613
41615SOL    HW126742   0.412   0.910   5.535
41615SOL    HW226743   0.399   0.983   5.667
41616SOL     OW26744  10.459  13.460   2.355
41616SOL    HW126745  10.541  13.438   2.399
41616SOL    HW226746  10.484  13.473   2.263
41617SOL     OW26747   3.790   6.288   5.095
41617SOL    HW126748   3.862   6.307   5.035
41617SOL    HW226749   3.777   6.369   5.143
41618SOL     OW26750  11.163   7.489   0.103
41618SOL    HW126751  11.117   7.556   0.053
41618SOL    HW226752  11.247   7.529   0.124
41619SOL     OW26753   1.171   4.276   6.494
41619SOL    HW126754   1.151   4.189   6.458
41619SOL    HW226755   1.129   4.276   6.580
41620SOL     OW26756   8.976   9.192   7.253
41620SOL    HW126757   8.939   9.264   7.305
41620SOL    HW226758   8.918   9.118   7.272
41621SOL     OW26759  11.813   7.612   8.495
41621SOL    HW126760  11.774   7.525   8.502
41621SOL    HW226761  11.829   7.624   8.401
41622SOL     OW26762   0.109   2.306   9.538
41622SOL    HW126763   0.178   2.277   9.479
41622SOL    HW226764   0.148   2.302   9.625
41623SOL     OW26765   3.520   2.994   5.416
41623SOL    HW126766   3.493   2.923   5.474
41623SOL    HW226767   3.528   2.953   5.330
41624SOL     OW26768   1.972   4.785   2.843
41624SOL    HW126769   1.956   4.729   2.767
41624SOL    HW226770   1.886   4.819   2.867
41625SOL     OW26771   1.618   1.089  10.339
41625SOL    HW126772   1.575   1.160  10.387
41625SOL    HW226773   1.578   1.090  10.253
41626SOL     OW26774   7.172   4.960   0.945
41626SOL    HW126775   7.120   4.898   0.996
41626SOL    HW226776   7.244   4.984   1.004
41627SOL     OW26777   7.802  10.275  10.362
41627SOL    HW126778   7.823  10.186  10.389
41627SOL    HW226779   7.709  10.274  10.343
41628SOL     OW26780  10.096   0.582   9.512
41628SOL    HW126781  10.012   0.599   9.468
41628SOL    HW226782  10.115   0.490   9.493
41629SOL     OW26783  12.977   6.707  14.028
41629SOL    HW126784  12.962   6.698  14.122
41629SOL    HW226785  13.031   6.786  14.019
41630SOL     OW26786  10.748  11.433   0.883
41630SOL    HW126787  10.815  11.366   0.873
41630SOL    HW226788  10.689  11.398   0.950
41631SOL     OW26789  13.229   0.950  10.694
41631SOL    HW126790  13.182   0.871  10.666
41631SOL    HW226791  13.292   0.966  10.623
41632SOL     OW26792   5.268   4.380   5.700
41632SOL    HW126793   5.189   4.378   5.755
41632SOL    HW226794   5.281   4.473   5.681
41633SOL     OW26795   5.453  11.473   3.502
41633SOL    HW126796   5.477  11.543   3.441
41633SOL    HW226797   5.518  11.480   3.573
41634SOL     OW26798  10.052   2.767   3.302
41634SOL    HW126799  10.048   2.817   3.383
41634SOL    HW226800  10.010   2.824   3.237
41635SOL     OW26801   7.470   9.921   5.011
41635SOL    HW126802   7.560   9.954   5.010
41635SOL    HW226803   7.457   9.887   4.922
41636SOL     OW26804   4.045  14.726   2.213
41636SOL    HW126805   4.130  14.767   2.198
41636SOL    HW226806   4.057  14.635   2.186
41637SOL     OW26807  11.578   6.900   9.940
41637SOL    HW126808  11.496   6.873   9.898
41637SOL    HW226809  11.612   6.820   9.981
41638SOL     OW26810  10.825   2.862   4.291
41638SOL    HW126811  10.810   2.798   4.221
41638SOL    HW226812  10.872   2.813   4.358
41639SOL     OW26813  11.325  11.765  12.620
41639SOL    HW126814  11.274  11.694  12.581
41639SOL    HW226815  11.262  11.837  12.629
41640SOL     OW26816   1.522   4.115   6.076
41640SOL    HW126817   1.489   4.087   6.161
41640SOL    HW226818   1.465   4.189   6.052
41641SOL     OW26819  12.659  13.682   7.619
41641SOL    HW126820  12.585  13.738   7.642
41641SOL    HW226821  12.731  13.714   7.673
41642SOL     OW26822   3.511   9.463   3.052
41642SOL    HW126823   3.483   9.425   2.968
41642SOL    HW226824   3.571   9.533   3.027
41643SOL     OW26825   4.766   0.927   7.749
41643SOL    HW126826   4.830   0.998   7.759
41643SOL    HW226827   4.681   0.971   7.752
41644SOL     OW26828  11.233   2.640  14.121
41644SOL    HW126829  11.252   2.635  14.028
41644SOL    HW226830  11.188   2.558  14.141
41645SOL     OW26831   8.870  11.324  12.568
41645SOL    HW126832   8.948  11.380  12.573
41645SOL    HW226833   8.903  11.242  12.530
41646SOL     OW26834  11.802  12.197   6.340
41646SOL    HW126835  11.735  12.184   6.407
41646SOL    HW226836  11.791  12.123   6.280
41647SOL     OW26837  12.488   3.572   8.502
41647SOL    HW126838  12.522   3.660   8.518
41647SOL    HW226839  12.453   3.575   8.413
41648SOL     OW26840  10.134   3.296   8.290
41648SOL    HW126841  10.151   3.378   8.335
41648SOL    HW226842  10.169   3.309   8.202
41649SOL     OW26843   9.128  11.733  13.052
41649SOL    HW126844   9.193  11.702  12.988
41649SOL    HW226845   9.165  11.706  13.137
41650SOL     OW26846   2.765   0.228  12.606
41650SOL    HW126847   2.735   0.221  12.697
41650SOL    HW226848   2.710   0.165  12.559
41651SOL     OW26849   1.402   4.862   3.915
41651SOL    HW126850   1.327   4.921   3.913
41651SOL    HW226851   1.462   4.896   3.849
41652SOL     OW26852   0.107   2.346  11.652
41652SOL    HW126853   0.163   2.357  11.575
41652SOL    HW226854   0.034   2.405  11.636
41653SOL     OW26855   9.090  13.757   3.746
41653SOL    HW126856   9.060  13.748   3.655
41653SOL    HW226857   9.183  13.734   3.743
41654SOL     OW26858  12.726   5.542  11.432
41654SOL    HW126859  12.742   5.448  11.445
41654SOL    HW226860  12.779   5.565  11.355
41655SOL     OW26861   3.788   0.672  11.442
41655SOL    HW126862   3.877   0.702  11.457
41655SOL    HW226863   3.765   0.626  11.523
41656SOL     OW26864   6.416  11.419  11.089
41656SOL    HW126865   6.336  11.418  11.143
41656SOL    HW226866   6.398  11.358  11.018
41657SOL     OW26867   7.081   3.994   0.739
41657SOL    HW126868   7.126   3.984   0.655
41657SOL    HW226869   7.142   4.045   0.792
41658SOL     OW26870  11.245   0.524  12.769
41658SOL    HW126871  11.288   0.535  12.685
41658SOL    HW226872  11.313   0.486  12.826
41659SOL     OW26873   6.437   4.100   8.228
41659SOL    HW126874   6.497   4.122   8.157
41659SOL    HW226875   6.434   4.004   8.227
41660SOL     OW26876  11.123   2.673  13.025
41660SOL    HW126877  11.060   2.691  12.954
41660SOL    HW226878  11.100   2.586  13.056
41661SOL     OW26879  10.844  10.002   9.443
41661SOL    HW126880  10.926  10.018   9.396
41661SOL    HW226881  10.800   9.935   9.391
41662SOL     OW26882  12.274   6.420   4.346
41662SOL    HW126883  12.188   6.458   4.330
41662SOL    HW226884  12.332   6.466   4.285
41663SOL     OW26885   0.338   5.001   3.226
41663SOL    HW126886   0.428   4.986   3.196
41663SOL    HW226887   0.283   4.972   3.154
41664SOL     OW26888   0.869  13.452   2.933
41664SOL    HW126889   0.866  13.542   2.963
41664SOL    HW226890   0.830  13.401   3.004
41665SOL     OW26891   0.990  10.125  14.145
41665SOL    HW126892   1.037  10.043  14.128
41665SOL    HW226893   1.058  10.184  14.179
41666SOL     OW26894   2.084  10.832   5.253
41666SOL    HW126895   2.078  10.751   5.303
41666SOL    HW226896   2.123  10.806   5.169
41667SOL     OW26897   8.656   4.378   1.105
41667SOL    HW126898   8.696   4.436   1.170
41667SOL    HW226899   8.697   4.293   1.122
41668SOL     OW26900   4.652   4.294  11.322
41668SOL    HW126901   4.675   4.202  11.308
41668SOL    HW226902   4.728   4.330  11.368
41669SOL     OW26903   8.722   7.113  10.996
41669SOL    HW126904   8.783   7.184  11.013
41669SOL    HW226905   8.703   7.076  11.082
41670SOL     OW26906   3.100   3.874   7.397
41670SOL    HW126907   3.179   3.855   7.347
41670SOL    HW226908   3.030   3.876   7.331
41671SOL     OW26909   5.762  12.178   2.376
41671SOL    HW126910   5.733  12.177   2.467
41671SOL    HW226911   5.752  12.268   2.348
41672SOL     OW26912  11.332   4.911   9.809
41672SOL    HW126913  11.337   4.918   9.714
41672SOL    HW226914  11.421   4.928   9.839
41673SOL     OW26915  11.243   2.332   0.863
41673SOL    HW126916  11.293   2.363   0.939
41673SOL    HW226917  11.254   2.400   0.797
41674SOL     OW26918   8.784  11.376  13.076
41674SOL    HW126919   8.765  11.376  12.982
41674SOL    HW226920   8.789  11.469  13.100
41675SOL     OW26921   0.144   3.187   3.692
41675SOL    HW126922   0.050   3.185   3.707
41675SOL    HW226923   0.154   3.217   3.602
41676SOL     OW26924   1.186  12.414   8.504
41676SOL    HW126925   1.271  12.438   8.541
41676SOL    HW226926   1.126  12.417   8.578
41677SOL     OW26927   9.673  10.170  11.047
41677SOL    HW126928   9.718  10.179  10.963
41677SOL    HW226929   9.735  10.207  11.111
41678SOL     OW26930   2.206   0.945   6.422
41678SOL    HW126931   2.199   1.034   6.387
41678SOL    HW226932   2.131   0.937   6.481
41679SOL     OW26933   6.900  12.847  14.750
41679SOL    HW126934   6.935  12.870  14.664
41679SOL    HW226935   6.870  12.757  14.740
41680SOL     OW26936   3.348   7.904   0.938
41680SOL    HW126937   3.426   7.848   0.940
41680SOL    HW226938   3.368   7.976   0.997
41681SOL     OW26939   8.873   6.767   1.984
41681SOL    HW126940   8.829   6.758   2.068
41681SOL    HW226941   8.944   6.829   2.000
41682SOL     OW26942  13.767   2.104  13.964
41682SOL    HW126943  13.716   2.037  14.010
41682SOL    HW226944  13.733   2.187  13.997
41683SOL     OW26945   1.867   9.660   3.761
41683SOL    HW126946   1.958   9.640   3.783
41683SOL    HW226947   1.872   9.704   3.676
41684SOL     OW26948   9.765  14.233  13.668
41684SOL    HW126949   9.716  14.272  13.741
41684SOL    HW226950   9.788  14.146  13.699
41685SOL     OW26951  14.039   9.046   0.637
41685SOL    HW126952  14.053   9.022   0.729
41685SOL    HW226953  13.946   9.026   0.621
41686SOL     OW26954   6.993   2.694   8.683
41686SOL    HW126955   6.906   2.699   8.643
41686SOL    HW226956   6.996   2.607   8.723
41687SOL     OW26957  11.693   6.284   8.060
41687SOL    HW126958  11.626   6.231   8.017
41687SOL    HW226959  11.653   6.312   8.142
41688SOL     OW26960   0.299  11.360   7.794
41688SOL    HW126961   0.331  11.420   7.862
41688SOL    HW226962   0.242  11.415   7.739
41689SOL     OW26963  12.472   7.609   4.561
41689SOL    HW126964  12.485   7.526   4.607
41689SOL    HW226965  12.557   7.627   4.520
41690SOL     OW26966  13.720   0.028  11.168
41690SOL    HW126967  13.787   0.007  11.233
41690SOL    HW226968  13.729  14.841  11.100
41691SOL     OW26969   8.831  12.192   6.914
41691SOL    HW126970   8.898  12.124   6.916
41691SOL    HW226971   8.758  12.157   6.964
41692SOL     OW26972   7.501  10.314  12.473
41692SOL    HW126973   7.406  10.319  12.459
41692SOL    HW226974   7.520  10.387  12.532
41693SOL     OW26975   7.789  12.688   9.661
41693SOL    HW126976   7.736  12.707   9.738
41693SOL    HW226977   7.744  12.614   9.619
41694SOL     OW26978  10.980   0.546  13.277
41694SOL    HW126979  11.027   0.629  13.268
41694SOL    HW226980  10.919   0.545  13.204
41695SOL     OW26981  14.576   8.942  13.556
41695SOL    HW126982  14.610   8.872  13.501
41695SOL    HW226983  14.482   8.946  13.537
41696SOL     OW26984  10.935   8.359  11.643
41696SOL    HW126985  10.948   8.320  11.730
41696SOL    HW226986  10.897   8.445  11.660
41697SOL     OW26987  12.808   0.544   0.224
41697SOL    HW126988  12.851   0.503   0.149
41697SOL    HW226989  12.736   0.595   0.186
41698SOL     OW26990   6.946  10.260   0.790
41698SOL    HW126991   6.853  10.265   0.810
41698SOL    HW226992   6.951  10.212   0.708
41699SOL     OW26993   6.922   2.885   3.265
41699SOL    HW126994   6.922   2.889   3.169
41699SOL    HW226995   7.000   2.935   3.291
41700SOL     OW26996   5.055   7.289   4.841
41700SOL    HW126997   5.038   7.211   4.894
41700SOL    HW226998   5.037   7.362   4.900
41701SOL     OW26999   3.904  14.343   4.334
41701SOL    HW127000   3.896  14.285   4.258
41701SOL    HW227001   3.989  14.321   4.372
41702SOL     OW27002   0.514  13.311   7.732
41702SOL    HW127003   0.557  13.362   7.662
41702SOL    HW227004   0.432  13.281   7.692
41703SOL     OW27005  11.137  10.225   6.365
41703SOL    HW127006  11.198  10.174   6.311
41703SOL    HW227007  11.062  10.242   6.308
41704SOL     OW27008   0.850   3.440   5.107
41704SOL    HW127009   0.940   3.449   5.137
41704SOL    HW227010   0.835   3.345   5.106
41705SOL     OW27011   9.080  10.956   9.359
41705SOL    HW127012   9.125  10.994   9.434
41705SOL    HW227013   9.110  10.865   9.357
41706SOL     OW27014   2.170  14.254   4.999
41706SOL    HW127015   2.234  14.184   4.989
41706SOL    HW227016   2.101  14.217   5.053
41707SOL     OW27017   1.605   3.207  12.178
41707SOL    HW127018   1.535   3.197  12.242
41707SOL    HW227019   1.685   3.211  12.230
41708SOL     OW27020  14.541  12.032  12.415
41708SOL    HW127021  14.575  12.114  12.379
41708SOL    HW227022  14.511  11.982  12.339
41709SOL     OW27023   7.149   6.237   2.644
41709SOL    HW127024   7.185   6.296   2.711
41709SOL    HW227025   7.084   6.290   2.598
41710SOL     OW27026  13.423  13.917   8.147
41710SOL    HW127027  13.347  13.968   8.120
41710SOL    HW227028  13.493  13.982   8.158
41711SOL     OW27029  11.743   4.965  14.360
41711SOL    HW127030  11.699   4.883  14.337
41711SOL    HW227031  11.737   4.970  14.455
41712SOL     OW27032  13.771   7.473   9.436
41712SOL    HW127033  13.859   7.499   9.465
41712SOL    HW227034  13.715   7.489   9.512
41713SOL     OW27035   9.536   2.154   9.859
41713SOL    HW127036   9.555   2.238   9.816
41713SOL    HW227037   9.605   2.095   9.829
41714SOL     OW27038   5.743   7.020   8.976
41714SOL    HW127039   5.764   7.113   8.982
41714SOL    HW227040   5.818   6.976   9.016
41715SOL     OW27041   6.771  11.124  14.552
41715SOL    HW127042   6.719  11.187  14.502
41715SOL    HW227043   6.772  11.159  14.641
41716SOL     OW27044  12.364  12.073  10.416
41716SOL    HW127045  12.292  12.010  10.423
41716SOL    HW227046  12.402  12.056  10.330
41717SOL     OW27047   0.423   0.070  13.057
41717SOL    HW127048   0.466  14.867  13.035
41717SOL    HW227049   0.338   0.065  13.014
41718SOL     OW27050  10.849   5.702   0.196
41718SOL    HW127051  10.842   5.647   0.273
41718SOL    HW227052  10.903   5.652   0.134
41719SOL     OW27053   5.643   1.390  11.715
41719SOL    HW127054   5.700   1.313  11.716
41719SOL    HW227055   5.645   1.423  11.805
41720SOL     OW27056   7.421   0.536   6.916
41720SOL    HW127057   7.423   0.578   6.829
41720SOL    HW227058   7.390   0.447   6.899
41721SOL     OW27059   4.206   9.423  10.020
41721SOL    HW127060   4.240   9.462  10.100
41721SOL    HW227061   4.284   9.390   9.975
41722SOL     OW27062   9.461   1.616   0.505
41722SOL    HW127063   9.512   1.538   0.484
41722SOL    HW227064   9.371   1.585   0.510
41723SOL     OW27065   3.108   4.134   9.961
41723SOL    HW127066   3.181   4.156   9.902
41723SOL    HW227067   3.034   4.186   9.929
41724SOL     OW27068   3.646   3.510  10.083
41724SOL    HW127069   3.693   3.430  10.106
41724SOL    HW227070   3.656   3.567  10.160
41725SOL     OW27071   4.884   7.074  11.514
41725SOL    HW127072   4.935   6.999  11.480
41725SOL    HW227073   4.931   7.101  11.593
41726SOL     OW27074  12.432  12.849   6.449
41726SOL    HW127075  12.421  12.769   6.501
41726SOL    HW227076  12.366  12.841   6.380
41727SOL     OW27077   3.827   7.904  14.025
41727SOL    HW127078   3.917   7.927  14.046
41727SOL    HW227079   3.782   7.988  14.015
41728SOL     OW27080   7.068   8.749   7.585
41728SOL    HW127081   7.130   8.766   7.656
41728SOL    HW227082   7.018   8.830   7.577
41729SOL     OW27083  12.463   5.251   2.109
41729SOL    HW127084  12.492   5.341   2.122
41729SOL    HW227085  12.403   5.256   2.034
41730SOL     OW27086   3.062   2.048  12.655
41730SOL    HW127087   3.006   2.017  12.584
41730SOL    HW227088   3.131   2.098  12.610
41731SOL     OW27089  14.562  10.459   4.762
41731SOL    HW127090  14.491  10.421   4.711
41731SOL    HW227091  14.630  10.392   4.762
41732SOL     OW27092   2.894   1.184  11.346
41732SOL    HW127093   2.867   1.258  11.401
41732SOL    HW227094   2.981   1.161  11.376
41733SOL     OW27095  10.952  12.284  10.762
41733SOL    HW127096  10.895  12.257  10.690
41733SOL    HW227097  11.024  12.331  10.720
41734SOL     OW27098  11.744   2.900   8.891
41734SOL    HW127099  11.835   2.898   8.922
41734SOL    HW227100  11.751   2.910   8.796
41735SOL     OW27101   9.328   4.126   4.760
41735SOL    HW127102   9.236   4.147   4.745
41735SOL    HW227103   9.376   4.201   4.726
41736SOL     OW27104   1.596   0.051  13.694
41736SOL    HW127105   1.529  14.866  13.718
41736SOL    HW227106   1.675  14.879  13.677
41737SOL     OW27107   1.512  10.165   1.206
41737SOL    HW127108   1.553  10.231   1.263
41737SOL    HW227109   1.418  10.183   1.211
41738SOL     OW27110   6.739   3.324  13.841
41738SOL    HW127111   6.777   3.388  13.901
41738SOL    HW227112   6.655   3.363  13.815
41739SOL     OW27113   4.874   4.007  14.564
41739SOL    HW127114   4.963   4.043  14.562
41739SOL    HW227115   4.881   3.924  14.516
41740SOL     OW27116   3.670   7.203  10.819
41740SOL    HW127117   3.587   7.158  10.802
41740SOL    HW227118   3.666   7.282  10.765
41741SOL     OW27119   5.800   7.094   1.959
41741SOL    HW127120   5.751   7.134   2.030
41741SOL    HW227121   5.891   7.118   1.976
41742SOL     OW27122  14.301   5.367   7.888
41742SOL    HW127123  14.259   5.435   7.941
41742SOL    HW227124  14.381   5.346   7.937
41743SOL     OW27125  14.059   9.390   7.737
41743SOL    HW127126  14.034   9.361   7.825
41743SOL    HW227127  14.014   9.473   7.725
41744SOL     OW27128   4.813   5.333  13.182
41744SOL    HW127129   4.774   5.295  13.261
41744SOL    HW227130   4.905   5.308  13.187
41745SOL     OW27131   0.449   4.829   8.631
41745SOL    HW127132   0.514   4.860   8.694
41745SOL    HW227133   0.497   4.819   8.549
41746SOL     OW27134   2.276   9.731   6.029
41746SOL    HW127135   2.239   9.726   5.941
41746SOL    HW227136   2.329   9.651   6.038
41747SOL     OW27137   6.455   0.483  14.367
41747SOL    HW127138   6.454   0.401  14.318
41747SOL    HW227139   6.378   0.531  14.335
41748SOL     OW27140  14.225  13.939   7.691
41748SOL    HW127141  14.307  13.889   7.692
41748SOL    HW227142  14.194  13.932   7.601
41749SOL     OW27143   4.702  11.919   0.980
41749SOL    HW127144   4.708  12.008   0.946
41749SOL    HW227145   4.720  11.927   1.073
41750SOL     OW27146  13.478   1.505   4.371
41750SOL    HW127147  13.501   1.417   4.342
41750SOL    HW227148  13.416   1.491   4.443
41751SOL     OW27149  12.755  13.349   1.700
41751SOL    HW127150  12.835  13.339   1.648
41751SOL    HW227151  12.742  13.263   1.740
41752SOL     OW27152  10.128   5.846  10.865
41752SOL    HW127153  10.049   5.896  10.887
41752SOL    HW227154  10.108   5.807  10.780
41753SOL     OW27155   8.510  13.651   6.169
41753SOL    HW127156   8.547  13.692   6.248
41753SOL    HW227157   8.561  13.688   6.097
41754SOL     OW27158  12.909   6.539   3.070
41754SOL    HW127159  12.996   6.519   3.104
41754SOL    HW227160  12.873   6.604   3.130
41755SOL     OW27161   5.334  14.204  12.524
41755SOL    HW127162   5.411  14.216  12.468
41755SOL    HW227163   5.367  14.210  12.613
41756SOL     OW27164   8.467   9.909   9.458
41756SOL    HW127165   8.519   9.896   9.379
41756SOL    HW227166   8.380   9.879   9.434
41757SOL     OW27167   5.594   0.690  10.337
41757SOL    HW127168   5.498   0.699  10.334
41757SOL    HW227169   5.624   0.768  10.384
41758SOL     OW27170   8.112   9.735   4.805
41758SOL    HW127171   8.032   9.772   4.768
41758SOL    HW227172   8.086   9.649   4.839
41759SOL     OW27173   1.451   7.486   3.670
41759SOL    HW127174   1.383   7.516   3.609
41759SOL    HW227175   1.491   7.566   3.703
41760SOL     OW27176   0.226   3.924  13.024
41760SOL    HW127177   0.315   3.957  13.020
41760SOL    HW227178   0.178   3.988  13.076
41761SOL     OW27179   1.387   0.490   4.568
41761SOL    HW127180   1.372   0.478   4.475
41761SOL    HW227181   1.300   0.497   4.606
41762SOL     OW27182   2.865   8.283  12.372
41762SOL    HW127183   2.910   8.341  12.310
41762SOL    HW227184   2.786   8.331  12.396
41763SOL     OW27185   1.215   0.521   2.860
41763SOL    HW127186   1.295   0.517   2.809
41763SOL    HW227187   1.161   0.450   2.827
41764SOL     OW27188  14.233   4.160   4.720
41764SOL    HW127189  14.287   4.239   4.720
41764SOL    HW227190  14.151   4.186   4.678
41765SOL     OW27191   3.486  13.181  14.268
41765SOL    HW127192   3.460  13.104  14.319
41765SOL    HW227193   3.404  13.226  14.249
41766SOL     OW27194   4.440   8.814   9.786
41766SOL    HW127195   4.392   8.783   9.863
41766SOL    HW227196   4.375   8.816   9.716
41767SOL     OW27197   1.873  12.507   3.203
41767SOL    HW127198   1.809  12.444   3.234
41767SOL    HW227199   1.825  12.562   3.141
41768SOL     OW27200   8.230  12.907   7.848
41768SOL    HW127201   8.155  12.879   7.900
41768SOL    HW227202   8.195  12.973   7.788
41769SOL     OW27203   9.273  14.089   3.217
41769SOL    HW127204   9.230  14.131   3.142
41769SOL    HW227205   9.265  14.154   3.288
41770SOL     OW27206  12.050   9.351  12.754
41770SOL    HW127207  12.084   9.327  12.840
41770SOL    HW227208  11.959   9.319  12.754
41771SOL     OW27209   5.390   2.033  12.909
41771SOL    HW127210   5.405   1.939  12.904
41771SOL    HW227211   5.465   2.072  12.866
41772SOL     OW27212   8.094   0.547   9.861
41772SOL    HW127213   8.087   0.452   9.846
41772SOL    HW227214   8.184   0.568   9.835
41773SOL     OW27215   2.009  11.771  11.233
41773SOL    HW127216   2.093  11.811  11.256
41773SOL    HW227217   1.977  11.824  11.160
41774SOL     OW27218   4.471   9.395   3.707
41774SOL    HW127219   4.401   9.391   3.643
41774SOL    HW227220   4.437   9.352   3.785
41775SOL     OW27221   5.606   5.720   6.513
41775SOL    HW127222   5.628   5.814   6.508
41775SOL    HW227223   5.575   5.699   6.425
41776SOL     OW27224   5.780  10.100   7.708
41776SOL    HW127225   5.828  10.031   7.755
41776SOL    HW227226   5.825  10.181   7.733
41777SOL     OW27227  12.548   9.584  10.423
41777SOL    HW127228  12.610   9.514  10.404
41777SOL    HW227229  12.601   9.652  10.465
41778SOL     OW27230   1.004   1.238  11.292
41778SOL    HW127231   1.004   1.288  11.211
41778SOL    HW227232   0.940   1.168  11.278
41779SOL     OW27233   2.011   4.746   4.233
41779SOL    HW127234   2.048   4.726   4.319
41779SOL    HW227235   2.085   4.776   4.181
41780SOL     OW27236   5.834   3.133   6.113
41780SOL    HW127237   5.858   3.171   6.028
41780SOL    HW227238   5.738   3.137   6.113
41781SOL     OW27239  10.376  12.474   8.137
41781SOL    HW127240  10.322  12.462   8.216
41781SOL    HW227241  10.371  12.568   8.119
41782SOL     OW27242   4.035   9.884   0.804
41782SOL    HW127243   4.102   9.940   0.843
41782SOL    HW227244   4.043   9.801   0.851
41783SOL     OW27245   8.961   0.863   6.773
41783SOL    HW127246   9.052   0.868   6.743
41783SOL    HW227247   8.909   0.873   6.693
41784SOL     OW27248  13.151   7.313   8.210
41784SOL    HW127249  13.144   7.351   8.297
41784SOL    HW227250  13.062   7.285   8.188
41785SOL     OW27251   3.088   4.738  12.630
41785SOL    HW127252   2.994   4.752  12.621
41785SOL    HW227253   3.106   4.662  12.575
41786SOL     OW27254  14.010   3.691  11.827
41786SOL    HW127255  14.099   3.669  11.799
41786SOL    HW227256  14.007   3.786  11.829
41787SOL     OW27257   9.614   5.057   3.456
41787SOL    HW127258   9.632   5.100   3.540
41787SOL    HW227259   9.530   5.094   3.428
41788SOL     OW27260  10.838   1.531   0.569
41788SOL    HW127261  10.924   1.554   0.602
41788SOL    HW227262  10.855   1.469   0.498
41789SOL     OW27263  12.546  10.831   3.480
41789SOL    HW127264  12.542  10.742   3.517
41789SOL    HW227265  12.483  10.830   3.408
41790SOL     OW27266   5.639   5.808   4.609
41790SOL    HW127267   5.706   5.849   4.663
41790SOL    HW227268   5.632   5.719   4.643
41791SOL     OW27269   3.585  12.562   6.499
41791SOL    HW127270   3.527  12.635   6.480
41791SOL    HW227271   3.533  12.504   6.555
41792SOL     OW27272   7.726   7.736  13.920
41792SOL    HW127273   7.681   7.685  13.852
41792SOL    HW227274   7.657   7.791  13.957
41793SOL     OW27275   1.453   4.044   8.357
41793SOL    HW127276   1.460   3.953   8.386
41793SOL    HW227277   1.413   4.039   8.271
41794SOL     OW27278   9.972   3.624  12.615
41794SOL    HW127279  10.039   3.641  12.548
41794SOL    HW227280  10.022   3.619  12.696
41795SOL     OW27281   4.296  13.994   4.461
41795SOL    HW127282   4.371  13.940   4.487
41795SOL    HW227283   4.298  13.992   4.366
41796SOL     OW27284  11.954   1.507   9.948
41796SOL    HW127285  11.873   1.552   9.970
41796SOL    HW227286  11.955   1.505   9.852
41797SOL     OW27287   1.804  13.323   3.507
41797SOL    HW127288   1.728  13.264   3.504
41797SOL    HW227289   1.794  13.370   3.590
41798SOL     OW27290   6.069   4.157  12.250
41798SOL    HW127291   6.052   4.249  12.231
41798SOL    HW227292   6.162   4.154  12.271
41799SOL     OW27293   1.087   2.229   1.417
41799SOL    HW127294   1.122   2.314   1.446
41799SOL    HW227295   1.081   2.177   1.497
41800SOL     OW27296  13.195   4.526   0.442
41800SOL    HW127297  13.213   4.433   0.457
41800SOL    HW227298  13.120   4.545   0.499
41801SOL     OW27299   5.563   3.575   7.675
41801SOL    HW127300   5.608   3.659   7.680
41801SOL    HW227301   5.482   3.587   7.725
41802SOL     OW27302   2.173  11.186   3.381
41802SOL    HW127303   2.263  11.209   3.357
41802SOL    HW227304   2.177  11.167   3.475
41803SOL     OW27305   8.857   2.857   0.643
41803SOL    HW127306   8.776   2.883   0.599
41803SOL    HW227307   8.926   2.903   0.595
41804SOL     OW27308  10.282  13.333  12.271
41804SOL    HW127309  10.376  13.352  12.267
41804SOL    HW227310  10.258  13.311  12.181
41805SOL     OW27311   4.004   0.292  12.853
41805SOL    HW127312   4.088   0.328  12.824
41805SOL    HW227313   3.954   0.369  12.879
41806SOL     OW27314   2.119   2.308   3.427
41806SOL    HW127315   2.197   2.363   3.417
41806SOL    HW227316   2.146   2.223   3.390
41807SOL     OW27317   0.555   5.441  12.015
41807SOL    HW127318   0.634   5.406  11.973
41807SOL    HW227319   0.497   5.462  11.942
41808SOL     OW27320   8.394   5.657   7.386
41808SOL    HW127321   8.370   5.633   7.475
41808SOL    HW227322   8.486   5.632   7.378
41809SOL     OW27323   8.897   9.363   7.472
41809SOL    HW127324   8.824   9.331   7.525
41809SOL    HW227325   8.940   9.428   7.528
41810SOL     OW27326   1.456   5.774   1.321
41810SOL    HW127327   1.434   5.756   1.229
41810SOL    HW227328   1.475   5.867   1.324
41811SOL     OW27329  10.372   5.607   4.082
41811SOL    HW127330  10.376   5.695   4.120
41811SOL    HW227331  10.454   5.565   4.110
41812SOL     OW27332   6.594   3.850  10.769
41812SOL    HW127333   6.563   3.881  10.684
41812SOL    HW227334   6.526   3.876  10.831
41813SOL     OW27335  10.568   5.275   6.972
41813SOL    HW127336  10.620   5.255   7.049
41813SOL    HW227337  10.607   5.355   6.937
41814SOL     OW27338  11.638   2.464  12.875
41814SOL    HW127339  11.560   2.501  12.916
41814SOL    HW227340  11.653   2.519  12.798
41815SOL     OW27341   0.828   0.331  10.371
41815SOL    HW127342   0.901   0.389  10.348
41815SOL    HW227343   0.756   0.391  10.394
41816SOL     OW27344   7.420   1.643   0.814
41816SOL    HW127345   7.383   1.730   0.798
41816SOL    HW227346   7.358   1.583   0.773
41817SOL     OW27347   1.814  11.842   7.578
41817SOL    HW127348   1.775  11.924   7.607
41817SOL    HW227349   1.860  11.808   7.654
41818SOL     OW27350   6.195   5.561  14.253
41818SOL    HW127351   6.285   5.536  14.230
41818SOL    HW227352   6.186   5.533  14.344
41819SOL     OW27353  14.223  13.575   9.309
41819SOL    HW127354  14.284  13.648   9.298
41819SOL    HW227355  14.195  13.553   9.220
41820SOL     OW27356   8.931   1.789   4.527
41820SOL    HW127357   8.959   1.849   4.458
41820SOL    HW227358   8.853   1.830   4.564
41821SOL     OW27359   1.447   6.283   1.933
41821SOL    HW127360   1.469   6.242   2.017
41821SOL    HW227361   1.362   6.325   1.948
41822SOL     OW27362   6.324  10.507   8.172
41822SOL    HW127363   6.289  10.591   8.143
41822SOL    HW227364   6.408  10.528   8.212
41823SOL     OW27365  10.730  11.989   2.134
41823SOL    HW127366  10.639  12.017   2.126
41823SOL    HW227367  10.754  12.012   2.224
41824SOL     OW27368  13.543  12.160   0.323
41824SOL    HW127369  13.554  12.246   0.361
41824SOL    HW227370  13.572  12.170   0.232
41825SOL     OW27371  11.115  10.897  12.882
41825SOL    HW127372  11.072  10.832  12.938
41825SOL    HW227373  11.105  10.864  12.793
41826SOL     OW27374   2.380   9.865   6.292
41826SOL    HW127375   2.427   9.932   6.342
41826SOL    HW227376   2.389   9.894   6.201
41827SOL     OW27377   5.604  14.798  10.972
41827SOL    HW127378   5.539  14.867  10.960
41827SOL    HW227379   5.606  14.783  11.066
41828SOL     OW27380   8.739   1.920   7.092
41828SOL    HW127381   8.661   1.865   7.096
41828SOL    HW227382   8.732   1.978   7.167
41829SOL     OW27383  13.357  11.539   8.644
41829SOL    HW127384  13.398  11.468   8.594
41829SOL    HW227385  13.391  11.619   8.605
41830SOL     OW27386   6.268  14.097   3.832
41830SOL    HW127387   6.196  14.153   3.802
41830SOL    HW227388   6.252  14.084   3.925
41831SOL     OW27389  10.563  10.801   0.390
41831SOL    HW127390  10.488  10.745   0.411
41831SOL    HW227391  10.600  10.826   0.475
41832SOL     OW27392   2.039   5.722  14.463
41832SOL    HW127393   1.950   5.692  14.445
41832SOL    HW227394   2.095   5.662  14.413
41833SOL     OW27395   7.480   3.342   0.491
41833SOL    HW127396   7.568   3.375   0.509
41833SOL    HW227397   7.472   3.346   0.396
41834SOL     OW27398  10.053  11.047   4.378
41834SOL    HW127399  10.128  11.059   4.320
41834SOL    HW227400   9.982  11.096   4.337
41835SOL     OW27401   1.697  13.984   2.868
41835SOL    HW127402   1.733  14.073   2.871
41835SOL    HW227403   1.703  13.953   2.959
41836SOL     OW27404  13.507   0.681  14.732
41836SOL    HW127405  13.416   0.676  14.702
41836SOL    HW227406  13.499   0.701  14.826
41837SOL     OW27407   4.696  11.823   0.493
41837SOL    HW127408   4.692  11.728   0.504
41837SOL    HW227409   4.649  11.857   0.568
41838SOL     OW27410   1.856   7.184  12.525
41838SOL    HW127411   1.790   7.178  12.456
41838SOL    HW227412   1.934   7.218  12.480
41839SOL     OW27413   1.040   3.529   1.435
41839SOL    HW127414   0.973   3.460   1.436
41839SOL    HW227415   0.990   3.610   1.434
41840SOL     OW27416   3.734   2.501   4.263
41840SOL    HW127417   3.651   2.463   4.234
41840SOL    HW227418   3.709   2.585   4.303
41841SOL     OW27419  13.283  12.452   3.510
41841SOL    HW127420  13.220  12.382   3.490
41841SOL    HW227421  13.256  12.486   3.595
41842SOL     OW27422   5.865   0.263  11.025
41842SOL    HW127423   5.849   0.194  10.960
41842SOL    HW227424   5.874   0.343  10.973
41843SOL     OW27425   4.712   0.433   5.908
41843SOL    HW127426   4.705   0.452   5.814
41843SOL    HW227427   4.767   0.503   5.943
41844SOL     OW27428   7.469   3.198   4.969
41844SOL    HW127429   7.492   3.143   5.044
41844SOL    HW227430   7.444   3.137   4.900
41845SOL     OW27431   5.521   2.508  12.332
41845SOL    HW127432   5.504   2.529  12.424
41845SOL    HW227433   5.542   2.414  12.332
41846SOL     OW27434   8.196  11.963  10.668
41846SOL    HW127435   8.168  12.026  10.601
41846SOL    HW227436   8.197  11.879  10.622
41847SOL     OW27437   4.662  12.085  12.161
41847SOL    HW127438   4.637  12.013  12.104
41847SOL    HW227439   4.730  12.049  12.218
41848SOL     OW27440   6.424   0.854  14.402
41848SOL    HW127441   6.332   0.829  14.411
41848SOL    HW227442   6.434   0.930  14.459
41849SOL     OW27443   6.323   1.288   2.763
41849SOL    HW127444   6.244   1.327   2.724
41849SOL    HW227445   6.353   1.226   2.697
41850SOL     OW27446   2.548   3.203   9.116
41850SOL    HW127447   2.567   3.297   9.124
41850SOL    HW227448   2.616   3.160   9.168
41851SOL     OW27449  13.794  13.701   2.172
41851SOL    HW127450  13.730  13.632   2.191
41851SOL    HW227451  13.870  13.680   2.226
41852SOL     OW27452   4.467   3.365   4.600
41852SOL    HW127453   4.483   3.458   4.616
41852SOL    HW227454   4.484   3.354   4.506
41853SOL     OW27455   9.327   1.417   5.571
41853SOL    HW127456   9.415   1.382   5.553
41853SOL    HW227457   9.319   1.491   5.511
41854SOL     OW27458   5.954   6.498   6.476
41854SOL    HW127459   6.025   6.458   6.527
41854SOL    HW227460   5.941   6.437   6.403
41855SOL     OW27461   9.074   8.209   5.680
41855SOL    HW127462   9.140   8.192   5.748
41855SOL    HW227463   9.050   8.122   5.648
41856SOL     OW27464   0.362   7.792  12.091
41856SOL    HW127465   0.314   7.802  12.173
41856SOL    HW227466   0.431   7.729  12.112
41857SOL     OW27467   2.746   7.836   8.583
41857SOL    HW127468   2.780   7.845   8.494
41857SOL    HW227469   2.661   7.881   8.581
41858SOL     OW27470   1.050   3.966   9.014
41858SOL    HW127471   0.970   4.018   9.023
41858SOL    HW227472   1.088   3.965   9.102
41859SOL     OW27473   5.736  12.450   8.506
41859SOL    HW127474   5.683  12.410   8.575
41859SOL    HW227475   5.754  12.379   8.445
41860SOL     OW27476   0.962   2.758   2.369
41860SOL    HW127477   1.017   2.718   2.436
41860SOL    HW227478   0.873   2.753   2.405
41861SOL     OW27479   8.036  10.334   2.288
41861SOL    HW127480   8.082  10.332   2.204
41861SOL    HW227481   8.073  10.409   2.334
41862SOL     OW27482  12.009   3.811   4.079
41862SOL    HW127483  11.938   3.802   4.016
41862SOL    HW227484  11.966   3.819   4.164
41863SOL     OW27485   2.755  10.132   7.060
41863SOL    HW127486   2.787  10.073   6.991
41863SOL    HW227487   2.687  10.184   7.017
41864SOL     OW27488   8.578   4.754  13.527
41864SOL    HW127489   8.536   4.764  13.612
41864SOL    HW227490   8.653   4.814  13.530
41865SOL     OW27491   6.995   8.376   6.980
41865SOL    HW127492   7.041   8.438   7.036
41865SOL    HW227493   7.060   8.347   6.917
41866SOL     OW27494   3.941  13.451   1.402
41866SOL    HW127495   4.005  13.411   1.461
41866SOL    HW227496   3.924  13.383   1.337
41867SOL     OW27497   7.208   3.528   6.448
41867SOL    HW127498   7.157   3.448   6.438
41867SOL    HW227499   7.283   3.502   6.501
41868SOL     OW27500   2.817   5.937  12.181
41868SOL    HW127501   2.744   5.898  12.229
41868SOL    HW227502   2.893   5.886  12.209
41869SOL     OW27503   0.895  10.615  13.844
41869SOL    HW127504   0.818  10.635  13.898
41869SOL    HW227505   0.870  10.643  13.756
41870SOL     OW27506   4.045  10.969  13.160
41870SOL    HW127507   4.133  10.997  13.186
41870SOL    HW227508   4.029  11.013  13.076
41871SOL     OW27509  12.697   7.245  10.895
41871SOL    HW127510  12.625   7.300  10.926
41871SOL    HW227511  12.666   7.208  10.813
41872SOL     OW27512   2.341   9.760   2.710
41872SOL    HW127513   2.265   9.712   2.678
41872SOL    HW227514   2.330   9.762   2.805
41873SOL     OW27515   7.227   1.950   1.231
41873SOL    HW127516   7.266   1.996   1.156
41873SOL    HW227517   7.158   1.896   1.193
41874SOL     OW27518  14.654   1.105   2.410
41874SOL    HW127519  14.720   1.052   2.454
41874SOL    HW227520  14.656   1.189   2.455
41875SOL     OW27521   9.706   6.107   4.436
41875SOL    HW127522   9.740   6.165   4.504
41875SOL    HW227523   9.664   6.036   4.483
41876SOL     OW27524   1.803  13.085   2.061
41876SOL    HW127525   1.895  13.058   2.050
41876SOL    HW227526   1.765  13.017   2.117
41877SOL     OW27527   1.652   7.832   5.218
41877SOL    HW127528   1.629   7.748   5.179
41877SOL    HW227529   1.642   7.895   5.148
41878SOL     OW27530   9.856  11.937   0.769
41878SOL    HW127531   9.821  11.857   0.810
41878SOL    HW227532   9.884  11.909   0.682
41879SOL     OW27533   9.096   3.295   4.334
41879SOL    HW127534   9.077   3.315   4.425
41879SOL    HW227535   9.095   3.380   4.290
41880SOL     OW27536   3.223   7.938   9.787
41880SOL    HW127537   3.193   7.912   9.700
41880SOL    HW227538   3.206   7.862   9.843
41881SOL     OW27539   1.868   9.621   0.045
41881SOL    HW127540   1.844   9.555   0.109
41881SOL    HW227541   1.881   9.572  14.843
41882SOL     OW27542  13.729   3.798   0.883
41882SOL    HW127543  13.702   3.861   0.950
41882SOL    HW227544  13.721   3.846   0.800
41883SOL     OW27545  12.173  10.170   7.444
41883SOL    HW127546  12.144  10.259   7.462
41883SOL    HW227547  12.216  10.142   7.525
41884SOL     OW27548  14.642   5.393   0.978
41884SOL    HW127549  14.604   5.329   1.037
41884SOL    HW227550  14.595   5.381   0.895
41885SOL     OW27551   3.291   8.573   8.765
41885SOL    HW127552   3.313   8.664   8.743
41885SOL    HW227553   3.264   8.534   8.682
41886SOL     OW27554   4.953  14.604   7.611
41886SOL    HW127555   4.901  14.588   7.690
41886SOL    HW227556   4.900  14.664   7.559
41887SOL     OW27557   1.318   4.160   0.834
41887SOL    HW127558   1.333   4.252   0.809
41887SOL    HW227559   1.359   4.152   0.920
41888SOL     OW27560   9.503  13.907  12.152
41888SOL    HW127561   9.428  13.857  12.184
41888SOL    HW227562   9.578  13.848  12.165
41889SOL     OW27563   4.253  11.192  13.831
41889SOL    HW127564   4.178  11.174  13.888
41889SOL    HW227565   4.271  11.285  13.845
41890SOL     OW27566   4.763   2.436  12.908
41890SOL    HW127567   4.676   2.432  12.867
41890SOL    HW227568   4.780   2.529  12.919
41891SOL     OW27569   5.421  11.576   2.928
41891SOL    HW127570   5.487  11.611   2.867
41891SOL    HW227571   5.337  11.598   2.888
41892SOL     OW27572   5.500   7.555   7.107
41892SOL    HW127573   5.444   7.482   7.083
41892SOL    HW227574   5.573   7.515   7.155
41893SOL     OW27575  10.896  13.568   8.836
41893SOL    HW127576  10.831  13.620   8.789
41893SOL    HW227577  10.865  13.568   8.927
41894SOL     OW27578   0.456  11.752   9.560
41894SOL    HW127579   0.470  11.661   9.533
41894SOL    HW227580   0.529  11.770   9.619
41895SOL     OW27581   2.065  14.539   1.571
41895SOL    HW127582   2.132  14.527   1.639
41895SOL    HW227583   2.049  14.451   1.537
41896SOL     OW27584  14.269  13.748   0.853
41896SOL    HW127585  14.301  13.810   0.787
41896SOL    HW227586  14.294  13.788   0.936
41897SOL     OW27587  11.778   6.052   9.114
41897SOL    HW127588  11.769   6.121   9.048
41897SOL    HW227589  11.859   6.074   9.161
41898SOL     OW27590   6.548   8.580   8.023
41898SOL    HW127591   6.543   8.545   8.112
41898SOL    HW227592   6.640   8.571   7.999
41899SOL     OW27593   3.595   6.844  13.859
41899SOL    HW127594   3.645   6.774  13.817
41899SOL    HW227595   3.560   6.896  13.786
41900SOL     OW27596   8.448   0.453  10.798
41900SOL    HW127597   8.388   0.388  10.835
41900SOL    HW227598   8.414   0.470  10.710
41901SOL     OW27599  13.058   8.682  10.056
41901SOL    HW127600  13.017   8.762  10.089
41901SOL    HW227601  13.009   8.611  10.096
41902SOL     OW27602   8.639  13.807   0.485
41902SOL    HW127603   8.599  13.894   0.495
41902SOL    HW227604   8.570  13.752   0.449
41903SOL     OW27605   9.566   6.258  10.017
41903SOL    HW127606   9.597   6.212  10.095
41903SOL    HW227607   9.561   6.350  10.043
41904SOL     OW27608  14.009  14.841   2.916
41904SOL    HW127609  13.933  14.808   2.868
41904SOL    HW227610  13.972   0.007   2.991
41905SOL     OW27611  14.266   6.044   1.439
41905SOL    HW127612  14.354   6.071   1.463
41905SOL    HW227613  14.276   6.001   1.355
41906SOL     OW27614   0.475   2.974   7.103
41906SOL    HW127615   0.521   2.895   7.131
41906SOL    HW227616   0.468   3.026   7.183
41907SOL     OW27617   6.793   0.523  11.910
41907SOL    HW127618   6.763   0.487  11.827
41907SOL    HW227619   6.714   0.560  11.950
41908SOL     OW27620   5.709   6.192   3.905
41908SOL    HW127621   5.745   6.206   3.817
41908SOL    HW227622   5.735   6.269   3.954
41909SOL     OW27623   7.410   3.619   2.708
41909SOL    HW127624   7.419   3.675   2.631
41909SOL    HW227625   7.416   3.530   2.673
41910SOL     OW27626   5.353   2.612   3.672
41910SOL    HW127627   5.258   2.613   3.658
41910SOL    HW227628   5.367   2.538   3.731
41911SOL     OW27629  14.771   2.887   4.655
41911SOL    HW127630  14.716   2.924   4.585
41911SOL    HW227631  14.718   2.817   4.693
41912SOL     OW27632   2.493  10.405   3.327
41912SOL    HW127633   2.451  10.450   3.401
41912SOL    HW227634   2.442  10.432   3.251
41913SOL     OW27635   9.571   8.134  12.826
41913SOL    HW127636   9.642   8.104  12.769
41913SOL    HW227637   9.597   8.106  12.914
41914SOL     OW27638   4.307   6.816  12.875
41914SOL    HW127639   4.368   6.796  12.805
41914SOL    HW227640   4.245   6.743  12.875
41915SOL     OW27641   6.524   9.963   1.256
41915SOL    HW127642   6.459   9.893   1.255
41915SOL    HW227643   6.544   9.980   1.164
41916SOL     OW27644   9.490  10.828  12.660
41916SOL    HW127645   9.536  10.893  12.712
41916SOL    HW227646   9.405  10.869  12.640
41917SOL     OW27647   3.249   2.189   3.113
41917SOL    HW127648   3.244   2.198   3.018
41917SOL    HW227649   3.343   2.192   3.133
41918SOL     OW27650   4.391   7.424   1.964
41918SOL    HW127651   4.317   7.407   1.904
41918SOL    HW227652   4.372   7.369   2.041
41919SOL     OW27653   7.146  14.107   2.580
41919SOL    HW127654   7.216  14.064   2.629
41919SOL    HW227655   7.186  14.132   2.497
41920SOL     OW27656  12.758   2.153   0.586
41920SOL    HW127657  12.764   2.062   0.614
41920SOL    HW227658  12.719   2.198   0.661
41921SOL     OW27659   9.127   9.660   5.719
41921SOL    HW127660   9.077   9.651   5.800
41921SOL    HW227661   9.143   9.754   5.711
41922SOL     OW27662  11.996   3.575   3.431
41922SOL    HW127663  11.927   3.609   3.374
41922SOL    HW227664  11.953   3.508   3.484
41923SOL     OW27665   2.615   6.181   9.101
41923SOL    HW127666   2.634   6.089   9.123
41923SOL    HW227667   2.665   6.197   9.021
41924SOL     OW27668   5.450   4.826   3.720
41924SOL    HW127669   5.541   4.796   3.710
41924SOL    HW227670   5.401   4.773   3.657
41925SOL     OW27671  13.205   2.267   4.524
41925SOL    HW127672  13.133   2.227   4.573
41925SOL    HW227673  13.284   2.226   4.559
41926SOL     OW27674   0.417  14.534   0.099
41926SOL    HW127675   0.354  14.499   0.035
41926SOL    HW227676   0.470  14.595   0.049
41927SOL     OW27677   9.229   9.627  11.154
41927SOL    HW127678   9.135   9.612  11.162
41927SOL    HW227679   9.269   9.561  11.211
41928SOL     OW27680   2.799   8.498   5.471
41928SOL    HW127681   2.822   8.500   5.564
41928SOL    HW227682   2.768   8.408   5.456
41929SOL     OW27683   0.861   0.543   7.692
41929SOL    HW127684   0.800   0.561   7.622
41929SOL    HW227685   0.933   0.495   7.650
41930SOL     OW27686  11.077   3.822   6.546
41930SOL    HW127687  11.080   3.732   6.512
41930SOL    HW227688  11.040   3.873   6.474
41931SOL     OW27689   2.675  11.536   5.852
41931SOL    HW127690   2.608  11.469   5.868
41931SOL    HW227691   2.672  11.593   5.929
41932SOL     OW27692   1.905  11.797  11.495
41932SOL    HW127693   1.926  11.755  11.578
41932SOL    HW227694   1.950  11.743  11.430
41933SOL     OW27695  14.456   5.104   3.691
41933SOL    HW127696  14.526   5.165   3.665
41933SOL    HW227697  14.391   5.159   3.735
41934SOL     OW27698  14.240   4.358   6.020
41934SOL    HW127699  14.177   4.308   5.968
41934SOL    HW227700  14.216   4.338   6.111
41935SOL     OW27701  12.693  12.827  12.873
41935SOL    HW127702  12.778  12.854  12.838
41935SOL    HW227703  12.709  12.812  12.966
41936SOL     OW27704   6.879   4.147   2.806
41936SOL    HW127705   6.921   4.202   2.872
41936SOL    HW227706   6.811   4.099   2.854
41937SOL     OW27707  11.287  12.966   8.397
41937SOL    HW127708  11.226  12.929   8.460
41937SOL    HW227709  11.355  12.899   8.385
41938SOL     OW27710  14.530   8.451   2.715
41938SOL    HW127711  14.449   8.502   2.713
41938SOL    HW227712  14.522   8.389   2.642
41939SOL     OW27713   7.133   2.253   7.961
41939SOL    HW127714   7.190   2.284   7.891
41939SOL    HW227715   7.127   2.327   8.022
41940SOL     OW27716   9.943  12.108  10.021
41940SOL    HW127717  10.028  12.149  10.039
41940SOL    HW227718   9.940  12.033  10.080
41941SOL     OW27719   2.296   4.410  10.708
41941SOL    HW127720   2.363   4.417  10.640
41941SOL    HW227721   2.293   4.316  10.729
41942SOL     OW27722   8.103   9.853   2.612
41942SOL    HW127723   8.185   9.865   2.563
41942SOL    HW227724   8.034   9.859   2.546
41943SOL     OW27725  14.733   9.964  11.984
41943SOL    HW127726  14.821   9.993  12.004
41943SOL    HW227727  14.676  10.023  12.034
41944SOL     OW27728   7.834   6.042   1.739
41944SOL    HW127729   7.747   6.019   1.707
41944SOL    HW227730   7.888   5.965   1.720
41945SOL     OW27731   9.763   4.255   3.527
41945SOL    HW127732   9.760   4.348   3.506
41945SOL    HW227733   9.751   4.211   3.443
41946SOL     OW27734   2.787   7.614  10.150
41946SOL    HW127735   2.729   7.614  10.073
41946SOL    HW227736   2.758   7.690  10.201
41947SOL     OW27737   5.305  14.747   1.411
41947SOL    HW127738   5.252  14.824   1.390
41947SOL    HW227739   5.391  14.784   1.436
41948SOL     OW27740   0.381   1.545  13.525
41948SOL    HW127741   0.343   1.598  13.455
41948SOL    HW227742   0.467   1.519  13.491
41949SOL     OW27743   9.880   3.060  13.814
41949SOL    HW127744   9.882   2.987  13.876
41949SOL    HW227745   9.799   3.106  13.835
41950SOL     OW27746   8.797   3.802   9.252
41950SOL    HW127747   8.794   3.755   9.169
41950SOL    HW227748   8.715   3.851   9.255
41951SOL     OW27749  10.663  12.035   3.318
41951SOL    HW127750  10.658  11.949   3.276
41951SOL    HW227751  10.756  12.058   3.315
41952SOL     OW27752  13.823  14.029   9.764
41952SOL    HW127753  13.819  13.981   9.846
41952SOL    HW227754  13.809  13.962   9.697
41953SOL     OW27755   5.907  14.749   4.747
41953SOL    HW127756   5.948  14.802   4.816
41953SOL    HW227757   5.833  14.802   4.717
41954SOL     OW27758   5.899   6.334   8.545
41954SOL    HW127759   5.965   6.403   8.548
41954SOL    HW227760   5.943   6.257   8.581
41955SOL     OW27761   4.522   4.782   1.549
41955SOL    HW127762   4.577   4.813   1.621
41955SOL    HW227763   4.504   4.690   1.572
41956SOL     OW27764   3.272   5.874   6.048
41956SOL    HW127765   3.352   5.904   6.006
41956SOL    HW227766   3.253   5.941   6.114
41957SOL     OW27767   9.865  10.406  10.456
41957SOL    HW127768   9.830  10.346  10.389
41957SOL    HW227769   9.958  10.384  10.461
41958SOL     OW27770  12.104  10.828   0.715
41958SOL    HW127771  12.075  10.756   0.659
41958SOL    HW227772  12.062  10.906   0.680
41959SOL     OW27773   2.023  10.258   3.459
41959SOL    HW127774   2.091  10.240   3.524
41959SOL    HW227775   1.964  10.320   3.501
41960SOL     OW27776  13.364   1.089   3.690
41960SOL    HW127777  13.445   1.130   3.660
41960SOL    HW227778  13.358   1.113   3.783
41961SOL     OW27779   6.947  11.725  12.396
41961SOL    HW127780   6.989  11.695  12.315
41961SOL    HW227781   7.010  11.703  12.465
41962SOL     OW27782  10.508  12.531   0.319
41962SOL    HW127783  10.435  12.552   0.261
41962SOL    HW227784  10.552  12.615   0.333
41963SOL     OW27785   5.252   0.184   3.411
41963SOL    HW127786   5.284   0.187   3.321
41963SOL    HW227787   5.331   0.194   3.465
41964SOL     OW27788  13.184   2.523  13.074
41964SOL    HW127789  13.146   2.453  13.021
41964SOL    HW227790  13.109   2.576  13.101
41965SOL     OW27791  11.986  14.821   2.073
41965SOL    HW127792  12.057  14.761   2.049
41965SOL    HW227793  11.931  14.825   1.995
41966SOL     OW27794  11.763  10.991   7.823
41966SOL    HW127795  11.777  10.896   7.812
41966SOL    HW227796  11.816  11.014   7.899
41967SOL     OW27797  13.829   4.515  12.187
41967SOL    HW127798  13.867   4.427  12.182
41967SOL    HW227799  13.858   4.558  12.107
41968SOL     OW27800  10.046   3.207  10.319
41968SOL    HW127801  10.107   3.199  10.393
41968SOL    HW227802  10.008   3.120  10.309
41969SOL     OW27803   5.188   3.348   0.466
41969SOL    HW127804   5.231   3.352   0.551
41969SOL    HW227805   5.253   3.380   0.404
41970SOL     OW27806   2.349   0.573   4.579
41970SOL    HW127807   2.350   0.479   4.564
41970SOL    HW227808   2.311   0.583   4.667
41971SOL     OW27809   4.557   1.154  12.512
41971SOL    HW127810   4.648   1.130  12.494
41971SOL    HW227811   4.544   1.237  12.466
41972SOL     OW27812   6.657  13.588   0.002
41972SOL    HW127813   6.575  13.545  14.856
41972SOL    HW227814   6.690  13.534   0.074
41973SOL     OW27815   9.534   1.595   8.814
41973SOL    HW127816   9.465   1.532   8.836
41973SOL    HW227817   9.563   1.569   8.726
41974SOL     OW27818  11.457   3.614   6.047
41974SOL    HW127819  11.477   3.580   6.134
41974SOL    HW227820  11.530   3.584   5.992
41975SOL     OW27821   9.348   4.380   1.501
41975SOL    HW127822   9.413   4.446   1.477
41975SOL    HW227823   9.400   4.302   1.522
41976SOL     OW27824  10.188  14.383   1.132
41976SOL    HW127825  10.140  14.461   1.102
41976SOL    HW227826  10.186  14.324   1.057
41977SOL     OW27827  10.148  11.761   7.596
41977SOL    HW127828  10.100  11.691   7.551
41977SOL    HW227829  10.099  11.840   7.577
41978SOL     OW27830   0.303   0.789   3.748
41978SOL    HW127831   0.279   0.696   3.750
41978SOL    HW227832   0.299   0.817   3.840
41979SOL     OW27833  13.688  11.990  13.589
41979SOL    HW127834  13.648  11.924  13.645
41979SOL    HW227835  13.646  11.976  13.504
41980SOL     OW27836   3.345   4.084   5.099
41980SOL    HW127837   3.272   4.031   5.131
41980SOL    HW227838   3.305   4.145   5.037
41981SOL     OW27839   7.847  13.887   8.145
41981SOL    HW127840   7.846  13.928   8.059
41981SOL    HW227841   7.890  13.803   8.131
41982SOL     OW27842   6.583   3.180   4.910
41982SOL    HW127843   6.552   3.231   4.836
41982SOL    HW227844   6.514   3.190   4.976
41983SOL     OW27845  11.392  13.574  12.455
41983SOL    HW127846  11.317  13.621  12.492
41983SOL    HW227847  11.389  13.489  12.498
41984SOL     OW27848   3.298   1.848  12.217
41984SOL    HW127849   3.384   1.890  12.219
41984SOL    HW227850   3.253   1.883  12.294
41985SOL     OW27851   7.589   7.832  14.575
41985SOL    HW127852   7.681   7.851  14.596
41985SOL    HW227853   7.574   7.879  14.493
41986SOL     OW27854   6.083  10.180   2.306
41986SOL    HW127855   6.082  10.164   2.212
41986SOL    HW227856   6.176  10.179   2.330
41987SOL     OW27857   7.961  11.514  10.083
41987SOL    HW127858   7.871  11.487  10.061
41987SOL    HW227859   8.011  11.499  10.003
41988SOL     OW27860   4.092   0.490   1.600
41988SOL    HW127861   4.047   0.557   1.652
41988SOL    HW227862   4.099   0.529   1.513
41989SOL     OW27863   5.684  11.566  13.206
41989SOL    HW127864   5.680  11.651  13.249
41989SOL    HW227865   5.640  11.506  13.267
41990SOL     OW27866   6.609   2.645   2.419
41990SOL    HW127867   6.702   2.663   2.432
41990SOL    HW227868   6.567   2.731   2.415
41991SOL     OW27869   5.879   6.311   7.622
41991SOL    HW127870   5.924   6.255   7.686
41991SOL    HW227871   5.923   6.292   7.539
41992SOL     OW27872  12.969   5.371   2.321
41992SOL    HW127873  12.904   5.304   2.342
41992SOL    HW227874  12.985   5.416   2.404
41993SOL     OW27875   8.335  11.819  10.970
41993SOL    HW127876   8.242  11.829  10.985
41993SOL    HW227877   8.369  11.776  11.048
41994SOL     OW27878  11.082   7.682  13.948
41994SOL    HW127879  11.116   7.607  13.997
41994SOL    HW227880  11.151   7.703  13.886
41995SOL     OW27881   1.426  10.033   8.208
41995SOL    HW127882   1.393  10.063   8.293
41995SOL    HW227883   1.433   9.938   8.217
41996SOL     OW27884  14.489   9.534   6.950
41996SOL    HW127885  14.513   9.471   7.018
41996SOL    HW227886  14.528   9.617   6.979
41997SOL     OW27887   3.648   8.674   6.513
41997SOL    HW127888   3.728   8.628   6.537
41997SOL    HW227889   3.676   8.762   6.489
41998SOL     OW27890   8.776   5.909   3.725
41998SOL    HW127891   8.848   5.919   3.663
41998SOL    HW227892   8.699   5.943   3.679
41999SOL     OW27893   0.637   0.247  12.599
41999SOL    HW127894   0.670   0.252  12.509
41999SOL    HW227895   0.698   0.302  12.650
42000SOL     OW27896   9.695   5.923  10.551
42000SOL    HW127897   9.780   5.967  10.559
42000SOL    HW227898   9.714   5.831  10.569
42001SOL     OW27899   7.412  10.265   7.327
42001SOL    HW127900   7.486  10.244   7.270
42001SOL    HW227901   7.395  10.358   7.310
42002SOL     OW27902   6.837   2.027  10.188
42002SOL    HW127903   6.810   1.969  10.116
42002SOL    HW227904   6.928   2.049  10.169
42003SOL     OW27905  14.397   2.055   9.627
42003SOL    HW127906  14.372   1.966   9.651
42003SOL    HW227907  14.315   2.098   9.605
42004SOL     OW27908   9.450   0.717  11.497
42004SOL    HW127909   9.447   0.801  11.543
42004SOL    HW227910   9.358   0.696  11.480
42005SOL     OW27911   7.851   7.787   4.502
42005SOL    HW127912   7.921   7.852   4.502
42005SOL    HW227913   7.868   7.733   4.424
42006SOL     OW27914   5.990   6.331  14.019
42006SOL    HW127915   5.970   6.244  14.053
42006SOL    HW227916   5.964   6.391  14.088
42007SOL     OW27917   7.711   5.464   6.187
42007SOL    HW127918   7.663   5.432   6.263
42007SOL    HW227919   7.741   5.384   6.142
42008SOL     OW27920   2.003  10.301   2.334
42008SOL    HW127921   2.063  10.309   2.260
42008SOL    HW227922   2.029  10.371   2.394
42009SOL     OW27923   8.578   9.744   8.562
42009SOL    HW127924   8.576   9.681   8.633
42009SOL    HW227925   8.499   9.726   8.511
42010SOL     OW27926  10.004   6.058   5.494
42010SOL    HW127927  10.059   5.999   5.442
42010SOL    HW227928  10.057   6.079   5.571
42011SOL     OW27929   6.765   3.517  14.042
42011SOL    HW127930   6.738   3.602  14.007
42011SOL    HW227931   6.841   3.537  14.097
42012SOL     OW27932  12.197   0.461   8.392
42012SOL    HW127933  12.140   0.532   8.419
42012SOL    HW227934  12.191   0.460   8.296
42013SOL     OW27935   2.468   3.883   7.675
42013SOL    HW127936   2.449   3.891   7.582
42013SOL    HW227937   2.465   3.972   7.709
42014SOL     OW27938   6.039   6.069   9.154
42014SOL    HW127939   6.059   5.992   9.100
42014SOL    HW227940   5.949   6.092   9.131
42015SOL     OW27941   0.771   2.104   9.333
42015SOL    HW127942   0.713   2.146   9.269
42015SOL    HW227943   0.850   2.082   9.282
42016SOL     OW27944   9.250   7.559   1.843
42016SOL    HW127945   9.328   7.548   1.789
42016SOL    HW227946   9.178   7.573   1.780
42017SOL     OW27947   2.947   9.722  11.944
42017SOL    HW127948   2.927   9.646  11.999
42017SOL    HW227949   3.043   9.724  11.940
42018SOL     OW27950  11.541  10.692   6.183
42018SOL    HW127951  11.575  10.679   6.094
42018SOL    HW227952  11.506  10.607   6.208
42019SOL     OW27953   7.613   7.952   5.002
42019SOL    HW127954   7.706   7.972   5.001
42019SOL    HW227955   7.578   7.998   5.078
42020SOL     OW27956   2.621   4.075   2.736
42020SOL    HW127957   2.703   4.115   2.764
42020SOL    HW227958   2.553   4.127   2.778
42021SOL     OW27959  12.937   2.993   5.380
42021SOL    HW127960  12.964   3.050   5.451
42021SOL    HW227961  12.854   2.956   5.409
42022SOL     OW27962   3.949   3.913   0.380
42022SOL    HW127963   3.893   3.987   0.406
42022SOL    HW227964   3.890   3.838   0.381
42023SOL     OW27965   7.267   0.801  13.724
42023SOL    HW127966   7.206   0.870  13.698
42023SOL    HW227967   7.315   0.838  13.798
42024SOL     OW27968   3.126   9.412  11.795
42024SOL    HW127969   3.069   9.370  11.859
42024SOL    HW227970   3.215   9.395  11.826
42025SOL     OW27971   6.546   7.397  11.551
42025SOL    HW127972   6.545   7.459  11.624
42025SOL    HW227973   6.492   7.324  11.581
42026SOL     OW27974   2.011   3.521  13.521
42026SOL    HW127975   1.941   3.493  13.461
42026SOL    HW227976   1.979   3.604  13.558
42027SOL     OW27977  13.962   1.554   8.948
42027SOL    HW127978  13.932   1.625   8.891
42027SOL    HW227979  13.894   1.545   9.013
42028SOL     OW27980   4.484   6.413   5.739
42028SOL    HW127981   4.546   6.343   5.758
42028SOL    HW227982   4.399   6.378   5.762
42029SOL     OW27983   7.262   2.105  12.372
42029SOL    HW127984   7.233   2.172  12.311
42029SOL    HW227985   7.208   2.029  12.352
42030SOL     OW27986   9.185   8.974  10.019
42030SOL    HW127987   9.116   8.922  10.060
42030SOL    HW227988   9.142   9.055   9.991
42031SOL     OW27989  11.432   9.372   9.708
42031SOL    HW127990  11.486   9.446   9.735
42031SOL    HW227991  11.446   9.306   9.775
42032SOL     OW27992  14.635  13.209   1.556
42032SOL    HW127993  14.542  13.189   1.546
42032SOL    HW227994  14.670  13.206   1.467
42033SOL     OW27995   3.951   6.715  10.712
42033SOL    HW127996   3.964   6.805  10.741
42033SOL    HW227997   4.003   6.707  10.632
42034SOL     OW27998   7.748  14.023   6.172
42034SOL    HW127999   7.750  13.928   6.163
42034SOL    HW228000   7.815  14.055   6.113
42035SOL     OW28001   7.463   7.712  11.791
42035SOL    HW128002   7.482   7.801  11.763
42035SOL    HW228003   7.416   7.722  11.873
42036SOL     OW28004   7.452   7.285   7.835
42036SOL    HW128005   7.520   7.223   7.811
42036SOL    HW228006   7.444   7.276   7.930
42037SOL     OW28007  13.987   6.247  11.444
42037SOL    HW128008  14.029   6.286  11.367
42037SOL    HW228009  14.042   6.273  11.517
42038SOL     OW28010   8.811  12.033   0.904
42038SOL    HW128011   8.856  11.987   0.834
42038SOL    HW228012   8.807  11.969   0.976
42039SOL     OW28013  14.269  14.706   7.136
42039SOL    HW128014  14.351  14.698   7.186
42039SOL    HW228015  14.277  14.790   7.091
42040SOL     OW28016   6.457   4.055   9.316
42040SOL    HW128017   6.495   4.014   9.393
42040SOL    HW228018   6.493   4.144   9.316
42041SOL     OW28019   0.645   6.097   2.881
42041SOL    HW128020   0.692   6.028   2.927
42041SOL    HW228021   0.619   6.057   2.798
42042SOL     OW28022   9.072   7.191   2.815
42042SOL    HW128023   9.030   7.105   2.810
42042SOL    HW228024   9.153   7.176   2.864
42043SOL     OW28025   1.379   8.447  13.063
42043SOL    HW128026   1.362   8.509  13.135
42043SOL    HW228027   1.294   8.405  13.047
42044SOL     OW28028   7.264   0.502  12.164
42044SOL    HW128029   7.219   0.490  12.080
42044SOL    HW228030   7.345   0.453  12.155
42045SOL     OW28031  10.350   9.089   2.093
42045SOL    HW128032  10.423   9.028   2.103
42045SOL    HW228033  10.382   9.171   2.131
42046SOL     OW28034   0.298   4.414   1.110
42046SOL    HW128035   0.288   4.408   1.015
42046SOL    HW228036   0.330   4.327   1.135
42047SOL     OW28037  10.784  10.443  13.605
42047SOL    HW128038  10.780  10.534  13.633
42047SOL    HW228039  10.693  10.412  13.610
42048SOL     OW28040   2.791  11.599  12.885
42048SOL    HW128041   2.719  11.662  12.892
42048SOL    HW228042   2.762  11.523  12.935
42049SOL     OW28043  10.534   8.072   8.330
42049SOL    HW128044  10.467   8.081   8.398
42049SOL    HW228045  10.513   8.141   8.266
42050SOL     OW28046  10.156   4.065   4.893
42050SOL    HW128047  10.162   4.106   4.980
42050SOL    HW228048  10.197   3.979   4.904
42051SOL     OW28049   4.905   0.517   1.470
42051SOL    HW128050   4.812   0.501   1.453
42051SOL    HW228051   4.943   0.430   1.479
42052SOL     OW28052   2.048   0.718  10.721
42052SOL    HW128053   1.990   0.643  10.729
42052SOL    HW228054   2.081   0.713  10.631
42053SOL     OW28055  12.965   4.072   9.882
42053SOL    HW128056  13.060   4.067   9.871
42053SOL    HW228057  12.946   4.008   9.951
42054SOL     OW28058  14.246  11.582  10.031
42054SOL    HW128059  14.304  11.651  10.062
42054SOL    HW228060  14.158  11.616  10.049
42055SOL     OW28061   9.015   8.161   0.557
42055SOL    HW128062   9.080   8.150   0.626
42055SOL    HW228063   9.060   8.134   0.477
42056SOL     OW28064   7.815  14.571   9.656
42056SOL    HW128065   7.900  14.528   9.666
42056SOL    HW228066   7.751  14.504   9.679
42057SOL     OW28067   3.489   7.195  12.383
42057SOL    HW128068   3.449   7.208  12.469
42057SOL    HW228069   3.501   7.284  12.349
42058SOL     OW28070   1.260   9.801   7.892
42058SOL    HW128071   1.164   9.804   7.882
42058SOL    HW228072   1.275   9.729   7.952
42059SOL     OW28073   4.348   9.484   1.215
42059SOL    HW128074   4.291   9.546   1.262
42059SOL    HW228075   4.426   9.476   1.270
42060SOL     OW28076   8.692  10.000   1.342
42060SOL    HW128077   8.697  10.090   1.371
42060SOL    HW228078   8.783   9.972   1.331
42061SOL     OW28079  10.850   5.301  13.457
42061SOL    HW128080  10.827   5.391  13.435
42061SOL    HW228081  10.844   5.253  13.375
42062SOL     OW28082   2.080  14.607   9.255
42062SOL    HW128083   2.103  14.515   9.240
42062SOL    HW228084   1.985  14.610   9.249
42063SOL     OW28085   5.490  14.732   0.316
42063SOL    HW128086   5.405  14.768   0.338
42063SOL    HW228087   5.507  14.666   0.384
42064SOL     OW28088  11.553   7.542   4.516
42064SOL    HW128089  11.579   7.582   4.433
42064SOL    HW228090  11.457   7.535   4.509
42065SOL     OW28091   1.785   2.448   5.109
42065SOL    HW128092   1.719   2.403   5.162
42065SOL    HW228093   1.869   2.422   5.146
42066SOL     OW28094   9.690   6.324   1.474
42066SOL    HW128095   9.649   6.313   1.388
42066SOL    HW228096   9.736   6.408   1.468
42067SOL     OW28097   7.784   5.981  13.374
42067SOL    HW128098   7.873   5.995  13.341
42067SOL    HW228099   7.748   6.069  13.384
42068SOL     OW28100   9.219   0.285   6.648
42068SOL    HW128101   9.130   0.300   6.680
42068SOL    HW228102   9.269   0.360   6.680
42069SOL     OW28103   6.874  12.056  13.568
42069SOL    HW128104   6.897  12.060  13.660
42069SOL    HW228105   6.863  11.962  13.550
42070SOL     OW28106   9.387  14.142  10.626
42070SOL    HW128107   9.422  14.172  10.542
42070SOL    HW228108   9.408  14.212  10.687
42071SOL     OW28109   5.291   2.337  14.034
42071SOL    HW128110   5.323   2.336  14.124
42071SOL    HW228111   5.205   2.295  14.038
42072SOL     OW28112  13.621  12.705  12.776
42072SOL    HW128113  13.585  12.623  12.743
42072SOL    HW228114  13.700  12.679  12.824
42073SOL     OW28115   5.961  12.860  11.806
42073SOL    HW128116   5.960  12.894  11.896
42073SOL    HW228117   5.973  12.938  11.752
42074SOL     OW28118   3.702  12.210   8.152
42074SOL    HW128119   3.673  12.247   8.235
42074SOL    HW228120   3.764  12.274   8.117
42075SOL     OW28121   9.514  12.108  14.404
42075SOL    HW128122   9.523  12.161  14.324
42075SOL    HW228123   9.424  12.077  14.402
42076SOL     OW28124   7.037   9.714  12.966
42076SOL    HW128125   7.019   9.734  12.875
42076SOL    HW228126   6.952   9.691  13.003
42077SOL     OW28127   6.133   7.533  11.962
42077SOL    HW128128   6.227   7.551  11.957
42077SOL    HW228129   6.115   7.521  12.055
42078SOL     OW28130   9.953  10.336   2.162
42078SOL    HW128131  10.007  10.329   2.083
42078SOL    HW228132   9.975  10.259   2.213
42079SOL     OW28133  14.402  11.419   9.847
42079SOL    HW128134  14.473  11.476   9.819
42079SOL    HW228135  14.344  11.476   9.898
42080SOL     OW28136  10.890   5.640   5.369
42080SOL    HW128137  10.901   5.589   5.289
42080SOL    HW228138  10.795   5.649   5.378
42081SOL     OW28139   1.476   2.874  11.664
42081SOL    HW128140   1.400   2.816  11.670
42081SOL    HW228141   1.497   2.877  11.570
42082SOL     OW28142   3.550   0.351   9.836
42082SOL    HW128143   3.478   0.371   9.776
42082SOL    HW228144   3.629   0.379   9.789
42083SOL     OW28145   9.423  12.777  11.518
42083SOL    HW128146   9.382  12.700  11.478
42083SOL    HW228147   9.515  12.753  11.527
42084SOL     OW28148   2.218   3.751  14.804
42084SOL    HW128149   2.221   3.794  14.718
42084SOL    HW228150   2.160   3.677  14.792
42085SOL     OW28151   6.159   7.865   7.707
42085SOL    HW128152   6.197   7.869   7.795
42085SOL    HW228153   6.185   7.948   7.666
42086SOL     OW28154   8.855   3.677  12.554
42086SOL    HW128155   8.936   3.702  12.599
42086SOL    HW228156   8.824   3.600  12.602
42087SOL     OW28157  10.129  10.442  14.464
42087SOL    HW128158  10.161  10.449  14.374
42087SOL    HW228159  10.202  10.402  14.512
42088SOL     OW28160  12.428  13.632  10.072
42088SOL    HW128161  12.424  13.544  10.111
42088SOL    HW228162  12.400  13.690  10.142
42089SOL     OW28163   6.799   9.623  13.087
42089SOL    HW128164   6.816   9.555  13.152
42089SOL    HW228165   6.705   9.641  13.093
42090SOL     OW28166   1.768  10.990   9.889
42090SOL    HW128167   1.863  10.982   9.897
42090SOL    HW228168   1.745  10.932   9.816
42091SOL     OW28169  11.796   2.693   1.050
42091SOL    HW128170  11.825   2.673   0.961
42091SOL    HW228171  11.834   2.625   1.104
42092SOL     OW28172   1.920  13.289  12.692
42092SOL    HW128173   1.828  13.268  12.677
42092SOL    HW228174   1.931  13.377  12.657
42093SOL     OW28175  11.837   9.354   3.427
42093SOL    HW128176  11.889   9.377   3.503
42093SOL    HW228177  11.895   9.371   3.352
42094SOL     OW28178   2.208   0.518  13.685
42094SOL    HW128179   2.149   0.461  13.735
42094SOL    HW228180   2.291   0.513  13.733
42095SOL     OW28181   0.643  12.179   7.366
42095SOL    HW128182   0.595  12.220   7.293
42095SOL    HW228183   0.734  12.205   7.352
42096SOL     OW28184  11.558   0.722   9.152
42096SOL    HW128185  11.599   0.739   9.237
42096SOL    HW228186  11.629   0.732   9.089
42097SOL     OW28187   0.299   2.053   2.040
42097SOL    HW128188   0.369   2.060   2.106
42097SOL    HW228189   0.331   2.104   1.966
42098SOL     OW28190   7.914   0.123   8.386
42098SOL    HW128191   7.987   0.066   8.409
42098SOL    HW228192   7.943   0.168   8.306
42099SOL     OW28193   8.474   2.052  11.078
42099SOL    HW128194   8.514   2.134  11.050
42099SOL    HW228195   8.539   2.011  11.134
42100SOL     OW28196  12.166   0.222   6.909
42100SOL    HW128197  12.219   0.299   6.928
42100SOL    HW228198  12.197   0.192   6.823
42101SOL     OW28199  12.521   1.142  13.937
42101SOL    HW128200  12.536   1.051  13.913
42101SOL    HW228201  12.534   1.145  14.031
42102SOL     OW28202  10.256  11.888   1.643
42102SOL    HW128203  10.257  11.980   1.617
42102SOL    HW228204  10.270  11.890   1.737
42103SOL     OW28205   2.398   2.021  13.939
42103SOL    HW128206   2.343   1.943  13.933
42103SOL    HW228207   2.482   1.989  13.972
42104SOL     OW28208  14.008   2.235  12.633
42104SOL    HW128209  13.928   2.184  12.638
42104SOL    HW228210  14.050   2.206  12.551
42105SOL     OW28211   5.677   4.215   8.244
42105SOL    HW128212   5.624   4.267   8.303
42105SOL    HW228213   5.747   4.274   8.215
42106SOL     OW28214   4.747  13.883   3.745
42106SOL    HW128215   4.742  13.894   3.650
42106SOL    HW228216   4.782  13.795   3.758
42107SOL     OW28217  10.842  12.559   9.464
42107SOL    HW128218  10.792  12.614   9.524
42107SOL    HW228219  10.783  12.544   9.390
42108SOL     OW28220   5.292   0.604   1.607
42108SOL    HW128221   5.246   0.688   1.609
42108SOL    HW228222   5.254   0.555   1.679
42109SOL     OW28223   8.542   8.306  10.797
42109SOL    HW128224   8.578   8.225  10.832
42109SOL    HW228225   8.461   8.280  10.753
42110SOL     OW28226   8.816  12.729  14.678
42110SOL    HW128227   8.743  12.712  14.618
42110SOL    HW228228   8.895  12.718  14.624
42111SOL     OW28229   6.781   1.402  11.027
42111SOL    HW128230   6.734   1.329  11.066
42111SOL    HW228231   6.719   1.438  10.963
42112SOL     OW28232  11.373  13.762   7.916
42112SOL    HW128233  11.419  13.680   7.896
42112SOL    HW228234  11.303  13.736   7.976
42113SOL     OW28235   9.246  13.700   4.774
42113SOL    HW128236   9.274  13.736   4.858
42113SOL    HW228237   9.181  13.762   4.741
42114SOL     OW28238   5.342  10.263   1.518
42114SOL    HW128239   5.356  10.193   1.455
42114SOL    HW228240   5.402  10.242   1.590
42115SOL     OW28241   8.956   0.698   1.020
42115SOL    HW128242   9.037   0.668   0.978
42115SOL    HW228243   8.888   0.680   0.955
42116SOL     OW28244   7.241   6.083   9.520
42116SOL    HW128245   7.178   6.140   9.565
42116SOL    HW228246   7.308   6.143   9.487
42117SOL     OW28247  14.130   1.137   1.967
42117SOL    HW128248  14.170   1.110   1.884
42117SOL    HW228249  14.047   1.088   1.970
42118SOL     OW28250  14.168  11.905  11.619
42118SOL    HW128251  14.214  11.830  11.580
42118SOL    HW228252  14.172  11.888  11.713
42119SOL     OW28253  11.182  14.100  14.067
42119SOL    HW128254  11.244  14.063  14.005
42119SOL    HW228255  11.195  14.051  14.148
42120SOL     OW28256  11.925   6.112  13.318
42120SOL    HW128257  11.956   6.104  13.228
42120SOL    HW228258  11.969   6.041  13.364
42121SOL     OW28259   1.142  11.645   8.109
42121SOL    HW128260   1.104  11.580   8.050
42121SOL    HW228261   1.191  11.704   8.051
42122SOL     OW28262  11.917   6.441   9.106
42122SOL    HW128263  11.922   6.391   9.024
42122SOL    HW228264  11.935   6.376   9.174
42123SOL     OW28265   6.773   4.159  10.757
42123SOL    HW128266   6.835   4.089  10.775
42123SOL    HW228267   6.827   4.238  10.755
42124SOL     OW28268   6.572  11.829   7.285
42124SOL    HW128269   6.524  11.760   7.239
42124SOL    HW228270   6.504  11.877   7.332
42125SOL     OW28271  12.015  13.658   6.354
42125SOL    HW128272  11.936  13.709   6.369
42125SOL    HW228273  12.047  13.686   6.269
42126SOL     OW28274  11.998   7.241   6.254
42126SOL    HW128275  12.012   7.167   6.195
42126SOL    HW228276  12.031   7.210   6.339
42127SOL     OW28277   6.577   5.833   2.039
42127SOL    HW128278   6.568   5.743   2.007
42127SOL    HW228279   6.607   5.823   2.130
42128SOL     OW28280   3.010  13.490  13.256
42128SOL    HW128281   3.094  13.499  13.212
42128SOL    HW228282   2.952  13.450  13.191
42129SOL     OW28283   7.767  13.000   0.104
42129SOL    HW128284   7.831  13.040   0.163
42129SOL    HW228285   7.707  13.071   0.082
42130SOL     OW28286   0.245   9.434   1.137
42130SOL    HW128287   0.191   9.361   1.167
42130SOL    HW228288   0.251   9.492   1.213
42131SOL     OW28289   0.548  11.570   3.835
42131SOL    HW128290   0.496  11.514   3.892
42131SOL    HW228291   0.498  11.651   3.828
42132SOL     OW28292  10.168   5.672  12.547
42132SOL    HW128293  10.099   5.611  12.574
42132SOL    HW228294  10.248   5.621  12.556
42133SOL     OW28295  14.769   1.324   5.032
42133SOL    HW128296  14.720   1.367   4.962
42133SOL    HW228297  14.774   1.389   5.101
42134SOL     OW28298   0.343   0.966   1.737
42134SOL    HW128299   0.262   0.941   1.693
42134SOL    HW228300   0.350   0.905   1.811
42135SOL     OW28301  10.986   0.846  14.130
42135SOL    HW128302  11.067   0.826  14.177
42135SOL    HW228303  10.992   0.940  14.112
42136SOL     OW28304   5.255   8.257   9.547
42136SOL    HW128305   5.183   8.235   9.605
42136SOL    HW228306   5.334   8.238   9.598
42137SOL     OW28307  10.073   1.371   3.315
42137SOL    HW128308  10.160   1.339   3.338
42137SOL    HW228309  10.051   1.432   3.386
42138SOL     OW28310  10.413   3.413   6.453
42138SOL    HW128311  10.405   3.318   6.462
42138SOL    HW228312  10.487   3.426   6.393
42139SOL     OW28313   8.760   4.170   7.759
42139SOL    HW128314   8.790   4.192   7.847
42139SOL    HW228315   8.669   4.201   7.757
42140SOL     OW28316   0.188  10.911   1.754
42140SOL    HW128317   0.137  10.830   1.756
42140SOL    HW228318   0.159  10.957   1.675
42141SOL     OW28319  10.787   8.752   5.661
42141SOL    HW128320  10.876   8.719   5.649
42141SOL    HW228321  10.798   8.845   5.681
42142SOL     OW28322   7.707  11.614   3.744
42142SOL    HW128323   7.774  11.590   3.680
42142SOL    HW228324   7.633  11.645   3.691
42143SOL     OW28325   6.432   4.472   7.444
42143SOL    HW128326   6.415   4.516   7.527
42143SOL    HW228327   6.515   4.427   7.458
42144SOL     OW28328  10.094   8.516   2.786
42144SOL    HW128329  10.077   8.466   2.706
42144SOL    HW228330  10.010   8.554   2.810
42145SOL     OW28331   2.980  13.057   7.604
42145SOL    HW128332   2.957  13.004   7.681
42145SOL    HW228333   2.904  13.051   7.547
42146SOL     OW28334  11.693   4.337   2.487
42146SOL    HW128335  11.788   4.332   2.498
42146SOL    HW228336  11.674   4.272   2.419
42147SOL     OW28337   6.095   9.790   1.225
42147SOL    HW128338   6.013   9.820   1.185
42147SOL    HW228339   6.163   9.818   1.164
42148SOL     OW28340  10.462   6.139   3.716
42148SOL    HW128341  10.377   6.171   3.745
42148SOL    HW228342  10.466   6.049   3.748
42149SOL     OW28343   5.629  14.609   3.834
42149SOL    HW128344   5.662  14.677   3.775
42149SOL    HW228345   5.593  14.658   3.908
42150SOL     OW28346   5.369   6.496   2.157
42150SOL    HW128347   5.369   6.401   2.170
42150SOL    HW228348   5.281   6.523   2.184
42151SOL     OW28349   5.828   8.387  10.982
42151SOL    HW128350   5.792   8.430  10.904
42151SOL    HW228351   5.811   8.294  10.968
42152SOL     OW28352  10.956   3.735  12.375
42152SOL    HW128353  10.997   3.812  12.416
42152SOL    HW228354  10.882   3.771  12.326
42153SOL     OW28355  11.585   9.617   5.660
42153SOL    HW128356  11.634   9.579   5.587
42153SOL    HW228357  11.611   9.709   5.661
42154SOL     OW28358   8.867   0.093   8.515
42154SOL    HW128359   8.900   0.156   8.579
42154SOL    HW228360   8.834   0.146   8.443
42155SOL     OW28361   0.609   2.904  14.230
42155SOL    HW128362   0.545   2.850  14.276
42155SOL    HW228363   0.613   2.867  14.142
42156SOL     OW28364   6.039  14.555   4.621
42156SOL    HW128365   5.974  14.492   4.591
42156SOL    HW228366   5.988  14.630   4.651
42157SOL     OW28367   9.906  10.887  14.641
42157SOL    HW128368   9.839  10.955  14.634
42157SOL    HW228369   9.883  10.839  14.721
42158SOL     OW28370   6.819   0.389  13.886
42158SOL    HW128371   6.728   0.375  13.860
42158SOL    HW228372   6.841   0.476  13.852
42159SOL     OW28373   0.069   6.880   8.933
42159SOL    HW128374   0.129   6.915   8.998
42159SOL    HW228375   0.112   6.898   8.849
42160SOL     OW28376   8.575   1.937   4.246
42160SOL    HW128377   8.621   1.869   4.198
42160SOL    HW228378   8.612   2.019   4.214
42161SOL     OW28379   0.011   3.148   3.987
42161SOL    HW128380   0.067   3.209   4.034
42161SOL    HW228381  14.813   3.200   3.964
42162SOL     OW28382   0.258   2.982   4.931
42162SOL    HW128383   0.252   3.019   5.020
42162SOL    HW228384   0.353   2.976   4.915
42163SOL     OW28385   0.478   8.742  11.608
42163SOL    HW128386   0.471   8.764  11.702
42163SOL    HW228387   0.511   8.653  11.607
42164SOL     OW28388   9.713   5.230  14.201
42164SOL    HW128389   9.650   5.298  14.176
42164SOL    HW228390   9.798   5.267  14.178
42165SOL     OW28391  13.491   2.413  13.806
42165SOL    HW128392  13.554   2.483  13.825
42165SOL    HW228393  13.528   2.367  13.731
42166SOL     OW28394  12.425  11.987   6.445
42166SOL    HW128395  12.405  12.059   6.385
42166SOL    HW228396  12.465  12.030   6.522
42167SOL     OW28397  10.211   3.020   7.989
42167SOL    HW128398  10.239   3.011   7.898
42167SOL    HW228399  10.138   3.082   7.986
42168SOL     OW28400  11.889  11.864   2.546
42168SOL    HW128401  11.793  11.861   2.554
42168SOL    HW228402  11.910  11.785   2.495
42169SOL     OW28403  11.142  11.689  10.725
42169SOL    HW128404  11.191  11.766  10.755
42169SOL    HW228405  11.059  11.725  10.693
42170SOL     OW28406   7.988  11.404  11.970
42170SOL    HW128407   8.050  11.407  12.044
42170SOL    HW228408   8.042  11.388  11.893
42171SOL     OW28409   2.011   1.421   5.652
42171SOL    HW128410   2.080   1.483   5.627
42171SOL    HW228411   2.052   1.366   5.719
42172SOL     OW28412   1.695   1.057  11.608
42172SOL    HW128413   1.648   1.041  11.690
42172SOL    HW228414   1.670   0.984  11.551
42173SOL     OW28415  14.698   5.120   1.408
42173SOL    HW128416  14.677   5.028   1.393
42173SOL    HW228417  14.792   5.126   1.390
42174SOL     OW28418   6.744   3.334  10.098
42174SOL    HW128419   6.836   3.358  10.087
42174SOL    HW228420   6.709   3.333  10.010
42175SOL     OW28421   8.712  10.665   5.447
42175SOL    HW128422   8.758  10.701   5.371
42175SOL    HW228423   8.782  10.639   5.508
42176SOL     OW28424   8.337  12.350  10.235
42176SOL    HW128425   8.263  12.357  10.175
42176SOL    HW228426   8.327  12.424  10.295
42177SOL     OW28427  11.618   0.442   7.851
42177SOL    HW128428  11.662   0.436   7.936
42177SOL    HW228429  11.647   0.525   7.815
42178SOL     OW28430   8.948  13.982   8.086
42178SOL    HW128431   8.996  14.064   8.082
42178SOL    HW228432   8.954  13.947   7.997
42179SOL     OW28433   0.482   4.653   4.808
42179SOL    HW128434   0.416   4.704   4.855
42179SOL    HW228435   0.441   4.634   4.724
42180SOL     OW28436   3.167   1.483  13.082
42180SOL    HW128437   3.134   1.492  13.171
42180SOL    HW228438   3.153   1.569  13.043
42181SOL     OW28439   8.938   7.227   5.913
42181SOL    HW128440   8.883   7.252   5.838
42181SOL    HW228441   9.026   7.257   5.889
42182SOL     OW28442  10.257   1.825  10.860
42182SOL    HW128443  10.313   1.884  10.809
42182SOL    HW228444  10.297   1.738  10.846
42183SOL     OW28445   2.043   1.718  12.351
42183SOL    HW128446   2.043   1.709  12.255
42183SOL    HW228447   2.128   1.683  12.378
42184SOL     OW28448   9.290   7.528   2.672
42184SOL    HW128449   9.260   7.542   2.582
42184SOL    HW228450   9.210   7.534   2.724
42185SOL     OW28451   3.642   3.482  13.995
42185SOL    HW128452   3.626   3.396  14.034
42185SOL    HW228453   3.610   3.544  14.061
42186SOL     OW28454   7.469  12.774   3.135
42186SOL    HW128455   7.434  12.702   3.082
42186SOL    HW228456   7.508  12.834   3.072
42187SOL     OW28457  11.773   6.890   5.447
42187SOL    HW128458  11.837   6.935   5.392
42187SOL    HW228459  11.717   6.844   5.384
42188SOL     OW28460   3.331   8.741   8.157
42188SOL    HW128461   3.249   8.745   8.107
42188SOL    HW228462   3.357   8.832   8.168
42189SOL     OW28463  10.638   3.536  14.180
42189SOL    HW128464  10.545   3.549  14.165
42189SOL    HW228465  10.652   3.442  14.175
42190SOL     OW28466  12.545   6.805  14.573
42190SOL    HW128467  12.465   6.816  14.521
42190SOL    HW228468  12.514   6.775  14.658
42191SOL     OW28469   2.371   1.450  12.852
42191SOL    HW128470   2.324   1.506  12.790
42191SOL    HW228471   2.326   1.366  12.847
42192SOL     OW28472   0.536  10.326  10.924
42192SOL    HW128473   0.540  10.416  10.892
42192SOL    HW228474   0.444  10.312  10.948
42193SOL     OW28475  14.308   4.279   9.997
42193SOL    HW128476  14.364   4.297  10.072
42193SOL    HW228477  14.356   4.214   9.946
42194SOL     OW28478  13.799   2.630   1.753
42194SOL    HW128479  13.755   2.576   1.688
42194SOL    HW228480  13.782   2.587   1.836
42195SOL     OW28481   6.626  11.198  11.194
42195SOL    HW128482   6.583  11.125  11.149
42195SOL    HW228483   6.554  11.249  11.231
42196SOL     OW28484  11.673   5.986   9.931
42196SOL    HW128485  11.643   5.988  10.021
42196SOL    HW228486  11.768   5.971   9.937
42197SOL     OW28487   4.507   4.005  11.982
42197SOL    HW128488   4.533   3.921  12.021
42197SOL    HW228489   4.467   4.053  12.055
42198SOL     OW28490   0.470   5.084  11.368
42198SOL    HW128491   0.558   5.116  11.391
42198SOL    HW228492   0.424   5.080  11.451
42199SOL     OW28493   7.212   8.820  14.341
42199SOL    HW128494   7.168   8.881  14.282
42199SOL    HW228495   7.283   8.870  14.380
42200SOL     OW28496   4.288  10.229  11.749
42200SOL    HW128497   4.357  10.250  11.812
42200SOL    HW228498   4.209  10.271  11.785
42201SOL     OW28499  13.932   6.438  13.328
42201SOL    HW128500  13.854   6.386  13.305
42201SOL    HW228501  13.909   6.480  13.411
42202SOL     OW28502   9.611  11.590   8.740
42202SOL    HW128503   9.555  11.611   8.814
42202SOL    HW228504   9.684  11.651   8.746
42203SOL     OW28505   5.049   2.884   1.526
42203SOL    HW128506   5.006   2.806   1.492
42203SOL    HW228507   5.142   2.861   1.530
42204SOL     OW28508   5.246   6.079   1.050
42204SOL    HW128509   5.201   6.012   0.999
42204SOL    HW228510   5.177   6.139   1.078
42205SOL     OW28511   9.603  12.253   6.519
42205SOL    HW128512   9.651  12.179   6.556
42205SOL    HW228513   9.546  12.213   6.453
42206SOL     OW28514   9.232  11.731   2.649
42206SOL    HW128515   9.322  11.712   2.676
42206SOL    HW228516   9.217  11.674   2.574
42207SOL     OW28517   0.268  14.273   2.483
42207SOL    HW128518   0.296  14.329   2.556
42207SOL    HW228519   0.229  14.333   2.420
42208SOL     OW28520  10.623  12.276  10.107
42208SOL    HW128521  10.677  12.197  10.101
42208SOL    HW228522  10.682  12.343  10.141
42209SOL     OW28523   9.664  10.106  12.976
42209SOL    HW128524   9.671  10.201  12.969
42209SOL    HW228525   9.727  10.083  13.044
42210SOL     OW28526   5.667  12.573  10.606
42210SOL    HW128527   5.652  12.666  10.619
42210SOL    HW228528   5.597  12.545  10.547
42211SOL     OW28529   1.955   6.119   3.392
42211SOL    HW128530   1.931   6.086   3.305
42211SOL    HW228531   2.024   6.182   3.376
42212SOL     OW28532   4.078   8.362   3.585
42212SOL    HW128533   3.993   8.374   3.543
42212SOL    HW228534   4.139   8.351   3.512
42213SOL     OW28535   7.446   8.425  10.405
42213SOL    HW128536   7.463   8.377  10.486
42213SOL    HW228537   7.413   8.510  10.434
42214SOL     OW28538   2.822   9.594   0.022
42214SOL    HW128539   2.890   9.549  14.851
42214SOL    HW228540   2.847   9.580   0.113
42215SOL     OW28541  12.702   2.788  10.242
42215SOL    HW128542  12.724   2.731  10.316
42215SOL    HW228543  12.785   2.827  10.215
42216SOL     OW28544  12.495   5.764  13.175
42216SOL    HW128545  12.422   5.782  13.116
42216SOL    HW228546  12.471   5.683  13.220
42217SOL     OW28547   1.706   5.898   2.695
42217SOL    HW128548   1.783   5.857   2.654
42217SOL    HW228549   1.653   5.927   2.621
42218SOL     OW28550   4.015   9.197   6.403
42218SOL    HW128551   4.012   9.275   6.348
42218SOL    HW228552   3.955   9.216   6.476
42219SOL     OW28553  12.114   0.631  14.446
42219SOL    HW128554  12.104   0.676  14.530
42219SOL    HW228555  12.193   0.578  14.456
42220SOL     OW28556   5.177  14.567   9.996
42220SOL    HW128557   5.093  14.613  10.000
42220SOL    HW228558   5.196  14.544  10.087
42221SOL     OW28559  13.406   6.696   9.693
42221SOL    HW128560  13.377   6.787   9.685
42221SOL    HW228561  13.350   6.647   9.632
42222SOL     OW28562  13.836   6.096  14.076
42222SOL    HW128563  13.815   6.008  14.109
42222SOL    HW228564  13.801   6.155  14.143
42223SOL     OW28565  10.644  12.600  13.878
42223SOL    HW128566  10.710  12.580  13.812
42223SOL    HW228567  10.692  12.648  13.946
42224SOL     OW28568  11.779  13.039   8.974
42224SOL    HW128569  11.869  13.007   8.974
42224SOL    HW228570  11.737  12.994   8.901
42225SOL     OW28571  13.109   2.968  10.901
42225SOL    HW128572  13.139   2.900  10.841
42225SOL    HW228573  13.117   2.929  10.988
42226SOL     OW28574   9.519  11.845   5.112
42226SOL    HW128575   9.472  11.820   5.032
42226SOL    HW228576   9.495  11.777   5.175
42227SOL     OW28577   1.834  12.993   0.875
42227SOL    HW128578   1.902  12.964   0.815
42227SOL    HW228579   1.759  12.937   0.856
42228SOL     OW28580   7.099   3.144   6.838
42228SOL    HW128581   7.109   3.091   6.758
42228SOL    HW228582   7.034   3.210   6.814
42229SOL     OW28583  14.700  13.811  14.035
42229SOL    HW128584  14.743  13.833  14.118
42229SOL    HW228585  14.627  13.873  14.030
42230SOL     OW28586   1.005  12.628   6.186
42230SOL    HW128587   1.017  12.562   6.118
42230SOL    HW228588   0.916  12.660   6.173
42231SOL     OW28589   3.487   4.382   7.834
42231SOL    HW128590   3.513   4.330   7.757
42231SOL    HW228591   3.392   4.381   7.832
42232SOL     OW28592  13.964   9.886  10.810
42232SOL    HW128593  14.049   9.922  10.834
42232SOL    HW228594  13.925   9.858  10.893
42233SOL     OW28595   4.469  14.832   7.600
42233SOL    HW128596   4.500  14.742   7.605
42233SOL    HW228597   4.389  14.833   7.653
42234SOL     OW28598   9.379   2.591  14.307
42234SOL    HW128599   9.355   2.672  14.262
42234SOL    HW228600   9.376   2.614  14.400
42235SOL     OW28601  14.244  12.026  14.250
42235SOL    HW128602  14.325  12.045  14.298
42235SOL    HW228603  14.189  12.103  14.265
42236SOL     OW28604   2.492   4.223  14.845
42236SOL    HW128605   2.446   4.250   0.045
42236SOL    HW228606   2.548   4.298  14.824
42237SOL     OW28607  10.220   7.577   3.698
42237SOL    HW128608  10.238   7.646   3.635
42237SOL    HW228609  10.225   7.620   3.783
42238SOL     OW28610   4.841   0.173  13.244
42238SOL    HW128611   4.773   0.107  13.258
42238SOL    HW228612   4.878   0.188  13.330
42239SOL     OW28613  13.009  13.245  12.717
42239SOL    HW128614  13.059  13.325  12.698
42239SOL    HW228615  13.056  13.204  12.790
42240SOL     OW28616   3.859   6.149  11.896
42240SOL    HW128617   3.929   6.189  11.844
42240SOL    HW228618   3.897   6.068  11.929
42241SOL     OW28619   2.670   2.036   4.220
42241SOL    HW128620   2.763   2.028   4.243
42241SOL    HW228621   2.653   1.962   4.163
42242SOL     OW28622  11.397   9.029  13.722
42242SOL    HW128623  11.491   9.030  13.743
42242SOL    HW228624  11.369   9.120  13.735
42243SOL     OW28625  12.692  11.365   5.087
42243SOL    HW128626  12.778  11.344   5.124
42243SOL    HW228627  12.706  11.445   5.037
42244SOL     OW28628   5.449   6.732   1.664
42244SOL    HW128629   5.375   6.718   1.605
42244SOL    HW228630   5.526   6.719   1.609
42245SOL     OW28631   6.279   8.260  14.100
42245SOL    HW128632   6.310   8.345  14.068
42245SOL    HW228633   6.357   8.206  14.107
42246SOL     OW28634   3.339   9.595  10.960
42246SOL    HW128635   3.284   9.610  10.884
42246SOL    HW228636   3.416   9.650  10.945
42247SOL     OW28637   8.997   2.279   5.274
42247SOL    HW128638   8.962   2.294   5.186
42247SOL    HW228639   8.926   2.233   5.320
42248SOL     OW28640  11.617   7.801   5.827
42248SOL    HW128641  11.664   7.882   5.808
42248SOL    HW228642  11.659   7.767   5.905
42249SOL     OW28643  10.057   9.940   1.658
42249SOL    HW128644  10.147   9.934   1.688
42249SOL    HW228645  10.039   9.854   1.619
42250SOL     OW28646   3.788   3.773  11.742
42250SOL    HW128647   3.819   3.711  11.677
42250SOL    HW228648   3.848   3.848  11.736
42251SOL     OW28649   3.641   6.766   0.482
42251SOL    HW128650   3.653   6.781   0.389
42251SOL    HW228651   3.631   6.671   0.490
42252SOL     OW28652   1.323  14.540   3.400
42252SOL    HW128653   1.347  14.501   3.484
42252SOL    HW228654   1.270  14.473   3.356
42253SOL     OW28655   1.844   0.508  11.373
42253SOL    HW128656   1.851   0.435  11.435
42253SOL    HW228657   1.873   0.585  11.422
42254SOL     OW28658  13.804   7.128  10.400
42254SOL    HW128659  13.751   7.090  10.470
42254SOL    HW228660  13.821   7.218  10.428
42255SOL     OW28661   2.630   3.851  11.200
42255SOL    HW128662   2.703   3.824  11.145
42255SOL    HW228663   2.657   3.936  11.235
42256SOL     OW28664  14.158   8.826  10.560
42256SOL    HW128665  14.234   8.830  10.618
42256SOL    HW228666  14.181   8.884  10.487
42257SOL     OW28667   7.607   1.837   4.082
42257SOL    HW128668   7.559   1.775   4.028
42257SOL    HW228669   7.697   1.802   4.084
42258SOL     OW28670   3.232  14.311   0.761
42258SOL    HW128671   3.204  14.222   0.742
42258SOL    HW228672   3.299  14.302   0.828
42259SOL     OW28673   1.697  12.608   8.215
42259SOL    HW128674   1.685  12.703   8.224
42259SOL    HW228675   1.668  12.588   8.126
42260SOL     OW28676  10.096  10.246  10.062
42260SOL    HW128677  10.048  10.274   9.984
42260SOL    HW228678  10.135  10.162  10.037
42261SOL     OW28679   5.909   7.125   4.627
42261SOL    HW128680   5.880   7.108   4.537
42261SOL    HW228681   5.837   7.175   4.666
42262SOL     OW28682  11.308   1.207  12.913
42262SOL    HW128683  11.335   1.165  12.832
42262SOL    HW228684  11.226   1.164  12.936
42263SOL     OW28685   5.912  10.037   6.569
42263SOL    HW128686   5.910  10.070   6.479
42263SOL    HW228687   5.861   9.956   6.565
42264SOL     OW28688   6.347   0.102   8.457
42264SOL    HW128689   6.423   0.082   8.512
42264SOL    HW228690   6.304   0.176   8.501
42265SOL     OW28691   8.761   0.209   9.665
42265SOL    HW128692   8.786   0.119   9.646
42265SOL    HW228693   8.843   0.259   9.662
42266SOL     OW28694  12.549   8.578  11.202
42266SOL    HW128695  12.636   8.559  11.166
42266SOL    HW228696  12.531   8.504  11.260
42267SOL     OW28697   4.213   1.831   6.749
42267SOL    HW128698   4.210   1.744   6.790
42267SOL    HW228699   4.211   1.892   6.822
42268SOL     OW28700   6.135   5.862   8.492
42268SOL    HW128701   6.164   5.887   8.404
42268SOL    HW228702   6.134   5.767   8.491
42269SOL     OW28703   7.199   1.773  13.433
42269SOL    HW128704   7.258   1.800  13.363
42269SOL    HW228705   7.220   1.681  13.448
42270SOL     OW28706   1.070   7.546   4.207
42270SOL    HW128707   1.073   7.465   4.157
42270SOL    HW228708   1.162   7.567   4.226
42271SOL     OW28709   9.665   0.570   7.022
42271SOL    HW128710   9.615   0.506   6.971
42271SOL    HW228711   9.603   0.602   7.087
42272SOL     OW28712   8.116   3.397   2.085
42272SOL    HW128713   8.210   3.407   2.097
42272SOL    HW228714   8.106   3.309   2.048
42273SOL     OW28715   4.792   7.321   0.690
42273SOL    HW128716   4.843   7.240   0.687
42273SOL    HW228717   4.856   7.391   0.698
42274SOL     OW28718   5.188  12.782   4.473
42274SOL    HW128719   5.108  12.731   4.461
42274SOL    HW228720   5.167  12.869   4.440
42275SOL     OW28721   4.135  10.340  10.881
42275SOL    HW128722   4.184  10.309  10.805
42275SOL    HW228723   4.155  10.434  10.885
42276SOL     OW28724   4.513   7.715   0.877
42276SOL    HW128725   4.503   7.621   0.863
42276SOL    HW228726   4.508   7.752   0.789
42277SOL     OW28727  10.642   2.182  10.164
42277SOL    HW128728  10.722   2.138  10.192
42277SOL    HW228729  10.669   2.233  10.087
42278SOL     OW28730   3.569   1.384   1.516
42278SOL    HW128731   3.474   1.394   1.513
42278SOL    HW228732   3.584   1.295   1.484
42279SOL     OW28733   0.858   3.002  12.510
42279SOL    HW128734   0.827   3.010  12.600
42279SOL    HW228735   0.949   2.975  12.519
42280SOL     OW28736  13.022   1.030   1.263
42280SOL    HW128737  12.951   0.969   1.244
42280SOL    HW228738  13.098   0.994   1.217
42281SOL     OW28739   4.003   1.155   1.846
42281SOL    HW128740   4.016   1.250   1.841
42281SOL    HW228741   3.920   1.145   1.892
42282SOL     OW28742   0.371  14.214   5.973
42282SOL    HW128743   0.359  14.171   5.888
42282SOL    HW228744   0.342  14.150   6.037
42283SOL     OW28745   4.649   0.893   5.867
42283SOL    HW128746   4.737   0.859   5.847
42283SOL    HW228747   4.642   0.973   5.815
42284SOL     OW28748   7.927  10.055   9.782
42284SOL    HW128749   7.872  10.094   9.714
42284SOL    HW228750   7.865  10.020   9.846
42285SOL     OW28751  13.836   3.073  12.191
42285SOL    HW128752  13.786   2.997  12.219
42285SOL    HW228753  13.791   3.104  12.112
42286SOL     OW28754   9.264  14.466   0.896
42286SOL    HW128755   9.178  14.484   0.936
42286SOL    HW228756   9.306  14.405   0.957
42287SOL     OW28757   5.902  13.464  12.466
42287SOL    HW128758   5.963  13.537  12.484
42287SOL    HW228759   5.818  13.507  12.449
42288SOL     OW28760  14.791   3.194  14.860
42288SOL    HW128761  14.848   3.209  14.785
42288SOL    HW228762  14.745   3.277  14.872
42289SOL     OW28763  10.080  14.145   1.271
42289SOL    HW128764  10.111  14.220   1.221
42289SOL    HW228765   9.994  14.171   1.303
42290SOL     OW28766  10.496   7.807   8.298
42290SOL    HW128767  10.537   7.893   8.295
42290SOL    HW228768  10.440   7.810   8.375
42291SOL     OW28769   3.204  13.280   2.658
42291SOL    HW128770   3.210  13.230   2.740
42291SOL    HW228771   3.272  13.346   2.665
42292SOL     OW28772  10.628  10.676  13.760
42292SOL    HW128773  10.715  10.709  13.740
42292SOL    HW228774  10.623  10.675  13.855
42293SOL     OW28775  10.929  10.660   2.290
42293SOL    HW128776  10.926  10.716   2.368
42293SOL    HW228777  10.919  10.719   2.216
42294SOL     OW28778   8.147   1.566  11.642
42294SOL    HW128779   8.154   1.661  11.650
42294SOL    HW228780   8.205   1.543  11.569
42295SOL     OW28781  11.319   3.783   6.686
42295SOL    HW128782  11.254   3.769   6.755
42295SOL    HW228783  11.268   3.816   6.612
42296SOL     OW28784   4.870   3.376   4.771
42296SOL    HW128785   4.820   3.393   4.851
42296SOL    HW228786   4.814   3.409   4.701
42297SOL     OW28787   6.631   8.922   8.476
42297SOL    HW128788   6.564   8.860   8.506
42297SOL    HW228789   6.638   8.986   8.547
42298SOL     OW28790   5.665  12.061   5.903
42298SOL    HW128791   5.715  12.064   5.822
42298SOL    HW228792   5.698  11.984   5.950
42299SOL     OW28793  12.668  11.525   6.993
42299SOL    HW128794  12.614  11.544   7.069
42299SOL    HW228795  12.668  11.429   6.987
42300SOL     OW28796  13.307   3.549   0.729
42300SOL    HW128797  13.239   3.506   0.678
42300SOL    HW228798  13.282   3.535   0.820
42301SOL     OW28799   8.962   4.757   8.791
42301SOL    HW128800   8.925   4.785   8.875
42301SOL    HW228801   8.933   4.824   8.729
42302SOL     OW28802   5.825   0.663   9.090
42302SOL    HW128803   5.893   0.683   9.155
42302SOL    HW228804   5.815   0.568   9.095
42303SOL     OW28805  11.470   5.402   6.879
42303SOL    HW128806  11.507   5.462   6.815
42303SOL    HW228807  11.543   5.347   6.906
42304SOL     OW28808  13.097   0.597  14.842
42304SOL    HW128809  13.037   0.670  14.852
42304SOL    HW228810  13.153   0.622  14.769
42305SOL     OW28811   1.183  14.295   9.061
42305SOL    HW128812   1.210  14.300   9.153
42305SOL    HW228813   1.161  14.203   9.047
42306SOL     OW28814  14.228   5.480  10.486
42306SOL    HW128815  14.286   5.411  10.517
42306SOL    HW228816  14.259   5.559  10.529
42307SOL     OW28817   1.377   4.671   0.535
42307SOL    HW128818   1.337   4.750   0.498
42307SOL    HW228819   1.370   4.682   0.630
42308SOL     OW28820   1.246   2.479   3.628
42308SOL    HW128821   1.281   2.516   3.547
42308SOL    HW228822   1.307   2.509   3.696
42309SOL     OW28823  12.635  11.167  11.272
42309SOL    HW128824  12.727  11.192  11.262
42309SOL    HW228825  12.633  11.073  11.252
42310SOL     OW28826  12.194   7.857   2.432
42310SOL    HW128827  12.269   7.893   2.386
42310SOL    HW228828  12.220   7.767   2.453
42311SOL     OW28829   9.636   4.015   2.870
42311SOL    HW128830   9.688   4.062   2.805
42311SOL    HW228831   9.555   3.993   2.824
42312SOL     OW28832  12.190  14.648   2.052
42312SOL    HW128833  12.232  14.688   1.976
42312SOL    HW228834  12.220  14.558   2.052
42313SOL     OW28835  10.356   0.483   5.533
42313SOL    HW128836  10.261   0.487   5.545
42313SOL    HW228837  10.384   0.575   5.530
42314SOL     OW28838   9.663   9.369  14.170
42314SOL    HW128839   9.659   9.274  14.170
42314SOL    HW228840   9.680   9.393  14.261
42315SOL     OW28841   1.710   1.174  13.396
42315SOL    HW128842   1.752   1.238  13.338
42315SOL    HW228843   1.749   1.190  13.482
42316SOL     OW28844   7.800   4.043   4.072
42316SOL    HW128845   7.809   4.125   4.022
42316SOL    HW228846   7.882   3.996   4.054
42317SOL     OW28847  11.712   4.406  14.413
42317SOL    HW128848  11.682   4.393  14.503
42317SOL    HW228849  11.646   4.361  14.360
42318SOL     OW28850  10.738   9.739   8.402
42318SOL    HW128851  10.647   9.746   8.372
42318SOL    HW228852  10.758   9.645   8.396
42319SOL     OW28853   8.881   0.771   7.808
42319SOL    HW128854   8.894   0.838   7.875
42319SOL    HW228855   8.961   0.773   7.756
42320SOL     OW28856   2.440   5.388   3.614
42320SOL    HW128857   2.506   5.323   3.640
42320SOL    HW228858   2.383   5.397   3.690
42321SOL     OW28859   6.644   5.389   5.182
42321SOL    HW128860   6.601   5.397   5.097
42321SOL    HW228861   6.607   5.459   5.235
42322SOL     OW28862   9.519  12.092   9.491
42322SOL    HW128863   9.603  12.074   9.534
42322SOL    HW228864   9.515  12.030   9.419
42323SOL     OW28865   2.420   4.014   1.413
42323SOL    HW128866   2.445   3.924   1.431
42323SOL    HW228867   2.490   4.067   1.451
42324SOL     OW28868   9.643   7.787   0.791
42324SOL    HW128869   9.603   7.757   0.873
42324SOL    HW228870   9.627   7.715   0.729
42325SOL     OW28871  11.135   2.578   3.138
42325SOL    HW128872  11.208   2.638   3.153
42325SOL    HW228873  11.117   2.584   3.044
42326SOL     OW28874   5.670   8.957   1.350
42326SOL    HW128875   5.647   8.998   1.267
42326SOL    HW228876   5.754   8.997   1.374
42327SOL     OW28877   6.631   7.736   0.386
42327SOL    HW128878   6.575   7.758   0.461
42327SOL    HW228879   6.716   7.715   0.425
42328SOL     OW28880   9.839   2.565   6.109
42328SOL    HW128881   9.768   2.520   6.063
42328SOL    HW228882   9.842   2.652   6.068
42329SOL     OW28883   6.740  11.318   3.078
42329SOL    HW128884   6.762  11.236   3.121
42329SOL    HW228885   6.818  11.372   3.088
42330SOL     OW28886  12.326   9.990   1.151
42330SOL    HW128887  12.422   9.993   1.153
42330SOL    HW228888  12.304   9.902   1.181
42331SOL     OW28889  12.096   0.789   6.033
42331SOL    HW128890  12.023   0.818   5.979
42331SOL    HW228891  12.076   0.823   6.121
42332SOL     OW28892   0.522   7.405   0.083
42332SOL    HW128893   0.559   7.322   0.112
42332SOL    HW228894   0.500   7.391  14.871
42333SOL     OW28895  13.863   6.355   6.347
42333SOL    HW128896  13.872   6.412   6.423
42333SOL    HW228897  13.772   6.326   6.349
42334SOL     OW28898   8.548  13.948   2.777
42334SOL    HW128899   8.533  13.853   2.779
42334SOL    HW228900   8.581  13.965   2.689
42335SOL     OW28901   5.874  14.375  10.207
42335SOL    HW128902   5.854  14.434  10.278
42335SOL    HW228903   5.887  14.432  10.131
42336SOL     OW28904  10.550   7.459  14.652
42336SOL    HW128905  10.470   7.478  14.603
42336SOL    HW228906  10.560   7.533  14.711
42337SOL     OW28907   7.428  14.792  10.418
42337SOL    HW128908   7.523  14.784  10.425
42337SOL    HW228909   7.398  14.707  10.385
42338SOL     OW28910   4.121   9.154  14.375
42338SOL    HW128911   4.075   9.238  14.376
42338SOL    HW228912   4.199   9.171  14.322
42339SOL     OW28913   9.396   2.107  13.183
42339SOL    HW128914   9.304   2.100  13.208
42339SOL    HW228915   9.423   2.017  13.166
42340SOL     OW28916   2.703   8.099  11.259
42340SOL    HW128917   2.625   8.124  11.209
42340SOL    HW228918   2.682   8.012  11.294
42341SOL     OW28919   4.981  10.332   7.787
42341SOL    HW128920   4.895  10.299   7.762
42341SOL    HW228921   5.042  10.280   7.735
42342SOL     OW28922   2.270   8.739   8.173
42342SOL    HW128923   2.266   8.827   8.137
42342SOL    HW228924   2.183   8.724   8.210
42343SOL     OW28925  12.500   9.154   3.938
42343SOL    HW128926  12.524   9.123   4.025
42343SOL    HW228927  12.563   9.113   3.880
42344SOL     OW28928  12.232   6.389   2.184
42344SOL    HW128929  12.280   6.387   2.101
42344SOL    HW228930  12.239   6.300   2.218
42345SOL     OW28931  13.595   8.621   7.464
42345SOL    HW128932  13.553   8.687   7.519
42345SOL    HW228933  13.593   8.657   7.376
42346SOL     OW28934   7.640   0.208  10.368
42346SOL    HW128935   7.568   0.169  10.418
42346SOL    HW228936   7.717   0.193  10.422
42347SOL     OW28937   3.513   6.955  11.971
42347SOL    HW128938   3.599   6.916  11.987
42347SOL    HW228939   3.503   7.021  12.040
42348SOL     OW28940   7.139  12.487   8.588
42348SOL    HW128941   7.188  12.552   8.639
42348SOL    HW228942   7.122  12.416   8.649
42349SOL     OW28943   1.823   0.507   6.771
42349SOL    HW128944   1.856   0.527   6.684
42349SOL    HW228945   1.783   0.420   6.763
42350SOL     OW28946   8.530   3.745  12.540
42350SOL    HW128947   8.560   3.755  12.450
42350SOL    HW228948   8.467   3.816  12.552
42351SOL     OW28949   7.329   7.433  12.846
42351SOL    HW128950   7.265   7.505  12.853
42351SOL    HW228951   7.410   7.471  12.880
42352SOL     OW28952  14.806  12.578  13.028
42352SOL    HW128953  14.860  12.632  13.085
42352SOL    HW228954  14.717  12.589  13.061
42353SOL     OW28955   6.420   2.158   3.920
42353SOL    HW128956   6.430   2.218   3.846
42353SOL    HW228957   6.473   2.197   3.989
42354SOL     OW28958   9.286   7.876  12.638
42354SOL    HW128959   9.357   7.815  12.622
42354SOL    HW228960   9.227   7.830  12.698
42355SOL     OW28961   0.401   5.903   2.075
42355SOL    HW128962   0.339   5.881   2.144
42355SOL    HW228963   0.482   5.927   2.121
42356SOL     OW28964   7.838   9.024  13.283
42356SOL    HW128965   7.933   9.028  13.294
42356SOL    HW228966   7.825   8.983  13.197
42357SOL     OW28967   1.882  13.827  11.767
42357SOL    HW128968   1.864  13.912  11.808
42357SOL    HW228969   1.796  13.791  11.748
42358SOL     OW28970  11.027  14.433   0.596
42358SOL    HW128971  11.121  14.419   0.593
42358SOL    HW228972  10.991  14.368   0.535
42359SOL     OW28973   0.701   0.538  10.109
42359SOL    HW128974   0.762   0.611  10.103
42359SOL    HW228975   0.696   0.518  10.203
42360SOL     OW28976   8.593  10.664   2.361
42360SOL    HW128977   8.542  10.744   2.353
42360SOL    HW228978   8.681  10.693   2.382
42361SOL     OW28979   1.840  10.618   7.059
42361SOL    HW128980   1.916  10.561   7.069
42361SOL    HW228981   1.765  10.558   7.061
42362SOL     OW28982  12.315   5.639   7.005
42362SOL    HW128983  12.363   5.706   7.053
42362SOL    HW228984  12.356   5.557   7.032
42363SOL     OW28985  10.124  10.246   3.481
42363SOL    HW128986  10.187  10.292   3.537
42363SOL    HW228987  10.081  10.185   3.541
42364SOL     OW28988   7.488   6.688   1.088
42364SOL    HW128989   7.540   6.714   1.163
42364SOL    HW228990   7.405   6.657   1.125
42365SOL     OW28991  13.361   0.555  11.049
42365SOL    HW128992  13.368   0.472  11.097
42365SOL    HW228993  13.415   0.616  11.099
42366SOL     OW28994   1.414   1.579   6.167
42366SOL    HW128995   1.497   1.626   6.161
42366SOL    HW228996   1.432   1.493   6.131
42367SOL     OW28997  12.734  12.505   0.149
42367SOL    HW128998  12.766  12.594   0.162
42367SOL    HW228999  12.653  12.516   0.098
42368SOL     OW29000   4.228  10.019   9.108
42368SOL    HW129001   4.245  10.018   9.202
42368SOL    HW229002   4.310  10.049   9.069
42369SOL     OW29003   3.342   8.676   0.397
42369SOL    HW129004   3.383   8.740   0.339
42369SOL    HW229005   3.285   8.625   0.339
42370SOL     OW29006   4.607   4.244   6.630
42370SOL    HW129007   4.643   4.188   6.562
42370SOL    HW229008   4.576   4.322   6.583
42371SOL     OW29009   4.046  11.948  12.068
42371SOL    HW129010   3.971  11.961  12.126
42371SOL    HW229011   4.120  11.930  12.127
42372SOL     OW29012   0.159   9.264  11.569
42372SOL    HW129013   0.251   9.244  11.586
42372SOL    HW229014   0.111   9.207  11.629
42373SOL     OW29015   3.862   4.844  14.724
42373SOL    HW129016   3.863   4.937  14.702
42373SOL    HW229017   3.850   4.800  14.640
42374SOL     OW29018   6.235   5.181   9.449
42374SOL    HW129019   6.292   5.127   9.393
42374SOL    HW229020   6.239   5.268   9.409
42375SOL     OW29021   9.278  12.563   6.450
42375SOL    HW129022   9.359  12.597   6.413
42375SOL    HW229023   9.235  12.519   6.376
42376SOL     OW29024  13.723   9.966   1.779
42376SOL    HW129025  13.700  10.054   1.752
42376SOL    HW229026  13.810   9.975   1.818
42377SOL     OW29027  12.630  11.716  10.126
42377SOL    HW129028  12.579  11.651  10.175
42377SOL    HW229029  12.720  11.685  10.133
42378SOL     OW29030   1.233   3.595  12.974
42378SOL    HW129031   1.277   3.632  13.050
42378SOL    HW229032   1.228   3.667  12.911
42379SOL     OW29033  12.931   0.788   2.180
42379SOL    HW129034  12.950   0.753   2.267
42379SOL    HW229035  12.858   0.848   2.194
42380SOL     OW29036   8.981  11.653   7.863
42380SOL    HW129037   8.916  11.631   7.930
42380SOL    HW229038   9.049  11.586   7.873
42381SOL     OW29039   1.585   6.723  10.683
42381SOL    HW129040   1.622   6.636  10.665
42381SOL    HW229041   1.497   6.719  10.645
42382SOL     OW29042   2.308  12.405  10.005
42382SOL    HW129043   2.221  12.392  10.041
42382SOL    HW229044   2.293  12.448   9.921
42383SOL     OW29045   3.983   0.173  11.432
42383SOL    HW129046   4.047   0.220  11.378
42383SOL    HW229047   4.024   0.088  11.448
42384SOL     OW29048   1.573  12.173  11.008
42384SOL    HW129049   1.655  12.214  11.036
42384SOL    HW229050   1.572  12.089  11.053
42385SOL     OW29051  13.176  11.595   4.943
42385SOL    HW129052  13.208  11.540   5.014
42385SOL    HW229053  13.254  11.633   4.903
42386SOL     OW29054   6.021   6.553  14.672
42386SOL    HW129055   5.958   6.614  14.710
42386SOL    HW229056   6.107   6.590  14.693
42387SOL     OW29057   5.481  11.231  14.751
42387SOL    HW129058   5.457  11.166  14.817
42387SOL    HW229059   5.500  11.311  14.800
42388SOL     OW29060   9.275  14.428   9.487
42388SOL    HW129061   9.265  14.497   9.553
42388SOL    HW229062   9.327  14.361   9.531
42389SOL     OW29063  11.809   4.646  12.382
42389SOL    HW129064  11.887   4.620  12.431
42389SOL    HW229065  11.744   4.579  12.403
42390SOL     OW29066  11.344  11.349  14.800
42390SOL    HW129067  11.414  11.330  14.738
42390SOL    HW229068  11.362  11.293  14.875
42391SOL     OW29069  14.245   8.716   8.414
42391SOL    HW129070  14.223   8.798   8.458
42391SOL    HW229071  14.312   8.676   8.468
42392SOL     OW29072  13.752  10.790   7.360
42392SOL    HW129073  13.710  10.755   7.439
42392SOL    HW229074  13.751  10.885   7.373
42393SOL     OW29075  11.861   1.105   0.686
42393SOL    HW129076  11.861   1.092   0.591
42393SOL    HW229077  11.860   1.016   0.722
42394SOL     OW29078  13.268   0.933   5.903
42394SOL    HW129079  13.212   0.863   5.938
42394SOL    HW229080  13.342   0.887   5.864
42395SOL     OW29081  14.682   1.599   4.215
42395SOL    HW129082  14.753   1.639   4.266
42395SOL    HW229083  14.722   1.524   4.172
42396SOL     OW29084  11.001   7.999   9.366
42396SOL    HW129085  11.079   7.969   9.319
42396SOL    HW229086  11.013   7.965   9.455
42397SOL     OW29087   9.022   2.941   3.314
42397SOL    HW129088   8.949   2.881   3.300
42397SOL    HW229089   9.008   3.010   3.249
42398SOL     OW29090  12.222   8.336   6.776
42398SOL    HW129091  12.205   8.337   6.870
42398SOL    HW229092  12.318   8.332   6.770
42399SOL     OW29093   0.582   0.854  13.701
42399SOL    HW129094   0.583   0.886  13.792
42399SOL    HW229095   0.498   0.885  13.666
42400SOL     OW29096   9.278  14.428   8.751
42400SOL    HW129097   9.309  14.458   8.836
42400SOL    HW229098   9.356  14.427   8.695
42401SOL     OW29099  14.594   4.999   2.027
42401SOL    HW129100  14.672   4.948   2.050
42401SOL    HW229101  14.523   4.960   2.077
42402SOL     OW29102   9.362  10.264   9.451
42402SOL    HW129103   9.274  10.293   9.426
42402SOL    HW229104   9.352  10.172   9.475
42403SOL     OW29105  14.643   9.589   0.488
42403SOL    HW129106  14.566   9.620   0.440
42403SOL    HW229107  14.671   9.511   0.439
42404SOL     OW29108  11.653  11.055   5.825
42404SOL    HW129109  11.561  11.068   5.802
42404SOL    HW229110  11.684  10.987   5.765
42405SOL     OW29111   2.243   9.307  13.025
42405SOL    HW129112   2.292   9.322  12.944
42405SOL    HW229113   2.153   9.329  13.003
42406SOL     OW29114  13.630  11.367   9.609
42406SOL    HW129115  13.551  11.378   9.662
42406SOL    HW229116  13.684  11.443   9.629
42407SOL     OW29117  11.061  13.439   7.915
42407SOL    HW129118  11.008  13.376   7.964
42407SOL    HW229119  10.998  13.486   7.861
42408SOL     OW29120   9.617  12.483   3.071
42408SOL    HW129121   9.581  12.565   3.104
42408SOL    HW229122   9.575  12.470   2.986
42409SOL     OW29123   0.485   0.556   4.444
42409SOL    HW129124   0.564   0.518   4.483
42409SOL    HW229125   0.471   0.504   4.365
42410SOL     OW29126  12.947   3.114   1.776
42410SOL    HW129127  12.855   3.090   1.764
42410SOL    HW229128  12.968   3.166   1.698
42411SOL     OW29129  11.687   8.067   5.803
42411SOL    HW129130  11.630   8.144   5.791
42411SOL    HW229131  11.734   8.085   5.885
42412SOL     OW29132  13.579   0.612   5.219
42412SOL    HW129133  13.560   0.706   5.223
42412SOL    HW229134  13.498   0.572   5.186
42413SOL     OW29135   8.478   2.927  13.878
42413SOL    HW129136   8.571   2.947  13.871
42413SOL    HW229137   8.453   2.956  13.965
42414SOL     OW29138  11.564   3.387   1.690
42414SOL    HW129139  11.625   3.362   1.760
42414SOL    HW229140  11.557   3.482   1.698
42415SOL     OW29141   1.390   5.204   1.823
42415SOL    HW129142   1.333   5.137   1.787
42415SOL    HW229143   1.360   5.285   1.782
42416SOL     OW29144   7.827   1.184  13.584
42416SOL    HW129145   7.776   1.204  13.506
42416SOL    HW229146   7.856   1.270  13.616
42417SOL     OW29147   0.960  14.076  14.867
42417SOL    HW129148   0.974  14.013   0.058
42417SOL    HW229149   1.038  14.068  14.812
42418SOL     OW29150   9.415   2.369   5.700
42418SOL    HW129151   9.363   2.392   5.777
42418SOL    HW229152   9.449   2.282   5.719
42419SOL     OW29153   6.799  14.640   4.580
42419SOL    HW129154   6.835  14.557   4.609
42419SOL    HW229155   6.876  14.695   4.563
42420SOL     OW29156   5.845   9.506   7.939
42420SOL    HW129157   5.765   9.454   7.942
42420SOL    HW229158   5.870   9.516   8.031
42421SOL     OW29159   0.109   4.107   7.932
42421SOL    HW129160   0.114   4.191   7.887
42421SOL    HW229161   0.087   4.044   7.864
42422SOL     OW29162  12.779   9.822   4.442
42422SOL    HW129163  12.755   9.900   4.492
42422SOL    HW229164  12.698   9.772   4.433
42423SOL     OW29165   4.799   8.208   8.740
42423SOL    HW129166   4.763   8.119   8.741
42423SOL    HW229167   4.742   8.258   8.799
42424SOL     OW29168  11.045   7.797   8.185
42424SOL    HW129169  11.019   7.706   8.202
42424SOL    HW229170  11.033   7.808   8.091
42425SOL     OW29171   8.127   9.631   2.375
42425SOL    HW129172   8.211   9.676   2.364
42425SOL    HW229173   8.061   9.697   2.350
42426SOL     OW29174  14.201   1.010  14.324
42426SOL    HW129175  14.106   1.003  14.335
42426SOL    HW229176  14.224   0.936  14.267
42427SOL     OW29177   5.451   9.753  11.626
42427SOL    HW129178   5.374   9.782  11.674
42427SOL    HW229179   5.446   9.799  11.542
42428SOL     OW29180   6.502   7.665  10.948
42428SOL    HW129181   6.582   7.699  10.909
42428SOL    HW229182   6.512   7.570  10.945
42429SOL     OW29183  12.036   7.662  12.057
42429SOL    HW129184  11.963   7.670  11.996
42429SOL    HW229185  12.113   7.646  12.003
42430SOL     OW29186   2.218   5.600   7.416
42430SOL    HW129187   2.136   5.600   7.367
42430SOL    HW229188   2.239   5.508   7.428
42431SOL     OW29189   7.617  13.170   2.513
42431SOL    HW129190   7.682  13.106   2.545
42431SOL    HW229191   7.561  13.119   2.454
42432SOL     OW29192  14.798   4.842   3.226
42432SOL    HW129193  14.860   4.864   3.157
42432SOL    HW229194  14.712   4.860   3.189
42433SOL     OW29195  14.529   6.231  11.444
42433SOL    HW129196  14.559   6.204  11.357
42433SOL    HW229197  14.603   6.211  11.502
42434SOL     OW29198  13.782   3.338   2.497
42434SOL    HW129199  13.696   3.302   2.475
42434SOL    HW229200  13.844   3.277   2.457
42435SOL     OW29201  13.774   8.079   2.436
42435SOL    HW129202  13.826   8.003   2.462
42435SOL    HW229203  13.839   8.146   2.416
42436SOL     OW29204   2.532   7.145   5.722
42436SOL    HW129205   2.455   7.150   5.778
42436SOL    HW229206   2.600   7.107   5.778
42437SOL     OW29207  13.399  12.210   0.675
42437SOL    HW129208  13.364  12.253   0.753
42437SOL    HW229209  13.332  12.145   0.651
42438SOL     OW29210   1.225   6.073   3.954
42438SOL    HW129211   1.203   6.158   3.917
42438SOL    HW229212   1.307   6.049   3.911
42439SOL     OW29213   8.053   8.613   4.507
42439SOL    HW129214   8.056   8.518   4.491
42439SOL    HW229215   8.120   8.628   4.573
42440SOL     OW29216   4.261   2.832   3.149
42440SOL    HW129217   4.323   2.853   3.219
42440SOL    HW229218   4.184   2.886   3.168
42441SOL     OW29219   6.096   9.192   8.682
42441SOL    HW129220   6.066   9.191   8.773
42441SOL    HW229221   6.024   9.154   8.632
42442SOL     OW29222  13.576  10.756   1.952
42442SOL    HW129223  13.487  10.763   1.918
42442SOL    HW229224  13.586  10.830   2.012
42443SOL     OW29225   9.397  11.749   7.627
42443SOL    HW129226   9.418  11.717   7.715
42443SOL    HW229227   9.306  11.778   7.634
42444SOL     OW29228  14.238  12.653   0.608
42444SOL    HW129229  14.328  12.646   0.577
42444SOL    HW229230  14.197  12.716   0.548
42445SOL     OW29231   5.885   3.920   2.458
42445SOL    HW129232   5.892   4.013   2.481
42445SOL    HW229233   5.794   3.909   2.432
42446SOL     OW29234   1.975   1.494  12.912
42446SOL    HW129235   1.923   1.565  12.950
42446SOL    HW229236   1.926   1.467  12.835
42447SOL     OW29237   1.049   8.582  11.162
42447SOL    HW129238   1.117   8.649  11.167
42447SOL    HW229239   0.987   8.615  11.097
42448SOL     OW29240   6.488  14.049   3.112
42448SOL    HW129241   6.574  14.090   3.119
42448SOL    HW229242   6.438  14.108   3.055
42449SOL     OW29243  11.127   9.436   6.116
42449SOL    HW129244  11.177   9.444   6.197
42449SOL    HW229245  11.067   9.510   6.116
42450SOL     OW29246  10.150  13.204   0.178
42450SOL    HW129247  10.146  13.279   0.119
42450SOL    HW229248  10.146  13.127   0.121
42451SOL     OW29249   6.510   6.231   1.092
42451SOL    HW129250   6.557   6.298   1.041
42451SOL    HW229251   6.418   6.242   1.067
42452SOL     OW29252   5.421   2.573   2.114
42452SOL    HW129253   5.440   2.647   2.056
42452SOL    HW229254   5.344   2.601   2.164
42453SOL     OW29255   2.446   9.298   4.295
42453SOL    HW129256   2.495   9.253   4.226
42453SOL    HW229257   2.501   9.374   4.317
42454SOL     OW29258   1.308   4.806  14.687
42454SOL    HW129259   1.383   4.865  14.694
42454SOL    HW229260   1.232   4.864  14.679
42455SOL     OW29261   8.062   6.678   9.061
42455SOL    HW129262   8.023   6.654   9.145
42455SOL    HW229263   8.156   6.676   9.077
42456SOL     OW29264   9.188  10.996   7.035
42456SOL    HW129265   9.138  10.936   7.092
42456SOL    HW229266   9.246  10.939   6.986
42457SOL     OW29267   0.600   2.115   4.081
42457SOL    HW129268   0.689   2.084   4.066
42457SOL    HW229269   0.572   2.148   3.995
42458SOL     OW29270   9.253   7.261  13.775
42458SOL    HW129271   9.308   7.335  13.751
42458SOL    HW229272   9.227   7.277  13.866
42459SOL     OW29273   9.838  10.599  14.280
42459SOL    HW129274   9.903  10.644  14.334
42459SOL    HW229275   9.754  10.620  14.322
42460SOL     OW29276   7.288   2.475  11.733
42460SOL    HW129277   7.280   2.395  11.786
42460SOL    HW229278   7.206   2.522  11.748
42461SOL     OW29279   1.951   4.192   7.858
42461SOL    HW129280   2.037   4.229   7.876
42461SOL    HW229281   1.928   4.225   7.771
42462SOL     OW29282  13.353  13.081   2.417
42462SOL    HW129283  13.440  13.121   2.428
42462SOL    HW229284  13.334  13.041   2.501
42463SOL     OW29285   3.243   0.375   0.894
42463SOL    HW129286   3.244   0.283   0.921
42463SOL    HW229287   3.325   0.410   0.928
42464SOL     OW29288  12.252   6.673  10.336
42464SOL    HW129289  12.173   6.700  10.382
42464SOL    HW229290  12.258   6.733  10.262
42465SOL     OW29291   7.236  12.779   4.527
42465SOL    HW129292   7.269  12.704   4.478
42465SOL    HW229293   7.292  12.852   4.502
42466SOL     OW29294  13.240   5.928   3.930
42466SOL    HW129295  13.197   5.882   3.858
42466SOL    HW229296  13.173   5.932   3.998
42467SOL     OW29297   1.980  14.080   1.569
42467SOL    HW129298   1.904  14.041   1.612
42467SOL    HW229299   2.028  14.005   1.532
42468SOL     OW29300  10.192   7.469   8.966
42468SOL    HW129301  10.144   7.538   8.921
42468SOL    HW229302  10.241   7.514   9.035
42469SOL     OW29303  10.450  10.844  12.458
42469SOL    HW129304  10.473  10.758  12.423
42469SOL    HW229305  10.356  10.836  12.479
42470SOL     OW29306   0.321   5.172   9.553
42470SOL    HW129307   0.329   5.085   9.593
42470SOL    HW229308   0.412   5.201   9.542
42471SOL     OW29309   5.430   0.788  11.682
42471SOL    HW129310   5.505   0.745  11.723
42471SOL    HW229311   5.398   0.849  11.748
42472SOL     OW29312   0.157  13.109   2.225
42472SOL    HW129313   0.082  13.145   2.178
42472SOL    HW229314   0.201  13.053   2.161
42473SOL     OW29315   4.250   4.856   4.595
42473SOL    HW129316   4.221   4.943   4.570
42473SOL    HW229317   4.327   4.840   4.541
42474SOL     OW29318   0.574   4.753   2.818
42474SOL    HW129319   0.595   4.679   2.874
42474SOL    HW229320   0.549   4.714   2.734
42475SOL     OW29321   4.020   3.358  10.884
42475SOL    HW129322   3.963   3.360  10.806
42475SOL    HW229323   4.104   3.392  10.853
42476SOL     OW29324   4.027   9.087   2.483
42476SOL    HW129325   4.096   9.032   2.521
42476SOL    HW229326   3.986   9.129   2.559
42477SOL     OW29327   5.295   1.463   7.155
42477SOL    HW129328   5.306   1.431   7.066
42477SOL    HW229329   5.382   1.455   7.194
42478SOL     OW29330   4.544   6.695   3.862
42478SOL    HW129331   4.623   6.701   3.808
42478SOL    HW229332   4.576   6.688   3.952
42479SOL     OW29333   3.288   7.696  11.276
42479SOL    HW129334   3.219   7.719  11.214
42479SOL    HW229335   3.365   7.741  11.243
42480SOL     OW29336   2.256  10.310  10.995
42480SOL    HW129337   2.169  10.347  11.011
42480SOL    HW229338   2.262  10.235  11.054
42481SOL     OW29339  13.816  11.570   8.259
42481SOL    HW129340  13.728  11.607   8.261
42481SOL    HW229341  13.804  11.482   8.224
42482SOL     OW29342  10.298  12.125  10.329
42482SOL    HW129343  10.355  12.077  10.269
42482SOL    HW229344  10.292  12.212  10.290
42483SOL     OW29345   2.531   1.446   7.572
42483SOL    HW129346   2.483   1.522   7.538
42483SOL    HW229347   2.623   1.467   7.558
42484SOL     OW29348  10.934   2.744  12.845
42484SOL    HW129349  10.875   2.790  12.905
42484SOL    HW229350  10.876   2.712  12.775
42485SOL     OW29351   8.021   5.043   1.274
42485SOL    HW129352   7.937   5.019   1.314
42485SOL    HW229353   8.039   5.131   1.305
42486SOL     OW29354   1.086  13.533  12.491
42486SOL    HW129355   0.998  13.495  12.482
42486SOL    HW229356   1.112  13.509  12.580
42487SOL     OW29357   5.913   3.234   2.488
42487SOL    HW129358   5.827   3.275   2.489
42487SOL    HW229359   5.957   3.268   2.566
42488SOL     OW29360   8.560   3.190  10.209
42488SOL    HW129361   8.581   3.284  10.205
42488SOL    HW229362   8.554   3.163  10.117
42489SOL     OW29363   9.481   4.566  14.391
42489SOL    HW129364   9.401   4.525  14.424
42489SOL    HW229365   9.456   4.601  14.305
42490SOL     OW29366   9.853   0.381   7.452
42490SOL    HW129367   9.803   0.306   7.418
42490SOL    HW229368   9.944   0.358   7.437
42491SOL     OW29369   3.445  14.403   2.585
42491SOL    HW129370   3.483  14.316   2.587
42491SOL    HW229371   3.515  14.460   2.554
42492SOL     OW29372  11.735   3.498   7.043
42492SOL    HW129373  11.769   3.422   7.091
42492SOL    HW229374  11.803   3.519   6.980
42493SOL     OW29375   0.753   3.134   5.580
42493SOL    HW129376   0.802   3.210   5.550
42493SOL    HW229377   0.766   3.068   5.512
42494SOL     OW29378  10.875  13.844  13.276
42494SOL    HW129379  10.828  13.874  13.198
42494SOL    HW229380  10.960  13.888  13.271
42495SOL     OW29381   2.104   3.374  11.752
42495SOL    HW129382   2.112   3.460  11.792
42495SOL    HW229383   2.093   3.314  11.826
42496SOL     OW29384   6.601   5.069  10.579
42496SOL    HW129385   6.584   5.005  10.648
42496SOL    HW229386   6.559   5.149  10.609
42497SOL     OW29387  10.705   7.238   8.100
42497SOL    HW129388  10.612   7.217   8.093
42497SOL    HW229389  10.738   7.180   8.168
42498SOL     OW29390   3.565   9.923   3.893
42498SOL    HW129391   3.649   9.929   3.939
42498SOL    HW229392   3.564   9.835   3.855
42499SOL     OW29393   7.480   3.319  10.260
42499SOL    HW129394   7.422   3.364  10.199
42499SOL    HW229395   7.534   3.263  10.206
42500SOL     OW29396   8.000   0.828   8.976
42500SOL    HW129397   7.910   0.802   8.993
42500SOL    HW229398   8.037   0.844   9.063
42501SOL     OW29399   8.199   5.786   3.292
42501SOL    HW129400   8.107   5.801   3.315
42501SOL    HW229401   8.199   5.780   3.196
42502SOL     OW29402   6.623  12.405  12.335
42502SOL    HW129403   6.631  12.366  12.248
42502SOL    HW229404   6.714  12.424  12.361
42503SOL     OW29405  12.812   7.709  14.178
42503SOL    HW129406  12.721   7.681  14.181
42503SOL    HW229407  12.809   7.803  14.195
42504SOL     OW29408   6.262   4.918   9.014
42504SOL    HW129409   6.300   4.834   8.988
42504SOL    HW229410   6.169   4.909   8.993
42505SOL     OW29411  14.275  13.290  12.074
42505SOL    HW129412  14.320  13.206  12.079
42505SOL    HW229413  14.294  13.333  12.157
42506SOL     OW29414   7.904  13.009   7.081
42506SOL    HW129415   7.985  13.010   7.132
42506SOL    HW229416   7.858  12.929   7.109
42507SOL     OW29417   1.741  10.272   5.368
42507SOL    HW129418   1.750  10.251   5.276
42507SOL    HW229419   1.736  10.187   5.412
42508SOL     OW29420  13.107   2.126  11.350
42508SOL    HW129421  13.077   2.214  11.374
42508SOL    HW229422  13.123   2.083  11.434
42509SOL     OW29423   4.339   4.933   2.412
42509SOL    HW129424   4.387   5.016   2.411
42509SOL    HW229425   4.326   4.913   2.504
42510SOL     OW29426   3.100   7.598  13.636
42510SOL    HW129427   3.140   7.591  13.722
42510SOL    HW229428   3.171   7.622  13.577
42511SOL     OW29429  12.797   3.948   4.135
42511SOL    HW129430  12.822   4.022   4.080
42511SOL    HW229431  12.811   3.980   4.225
42512SOL     OW29432  12.633  12.667   4.626
42512SOL    HW129433  12.704  12.661   4.689
42512SOL    HW229434  12.554  12.669   4.679
42513SOL     OW29435   4.326  10.876   7.462
42513SOL    HW129436   4.309  10.966   7.434
42513SOL    HW229437   4.373  10.837   7.389
42514SOL     OW29438  11.969   1.554   8.487
42514SOL    HW129439  11.912   1.503   8.544
42514SOL    HW229440  12.057   1.534   8.518
42515SOL     OW29441  10.900   7.219   3.056
42515SOL    HW129442  10.932   7.129   3.067
42515SOL    HW229443  10.883   7.249   3.146
42516SOL     OW29444  12.690   4.787  12.224
42516SOL    HW129445  12.662   4.749  12.308
42516SOL    HW229446  12.661   4.878  12.228
42517SOL     OW29447  13.151   1.431   3.631
42517SOL    HW129448  13.103   1.505   3.666
42517SOL    HW229449  13.127   1.427   3.538
42518SOL     OW29450  13.330   8.861  11.433
42518SOL    HW129451  13.244   8.862  11.390
42518SOL    HW229452  13.387   8.815  11.372
42519SOL     OW29453   2.911   0.573   7.048
42519SOL    HW129454   2.944   0.492   7.010
42519SOL    HW229455   2.900   0.632   6.973
42520SOL     OW29456   1.005   1.395   7.907
42520SOL    HW129457   0.986   1.477   7.863
42520SOL    HW229458   1.086   1.412   7.955
42521SOL     OW29459  14.231  13.754  12.639
42521SOL    HW129460  14.200  13.693  12.572
42521SOL    HW229461  14.175  13.832  12.628
42522SOL     OW29462   6.094   4.415   2.772
42522SOL    HW129463   6.081   4.486   2.709
42522SOL    HW229464   6.176   4.437   2.817
42523SOL     OW29465  12.129   5.226   4.486
42523SOL    HW129466  12.206   5.274   4.454
42523SOL    HW229467  12.074   5.294   4.526
42524SOL     OW29468   2.923   5.210   5.531
42524SOL    HW129469   2.879   5.209   5.616
42524SOL    HW229470   2.973   5.128   5.529
42525SOL     OW29471   7.045   2.721   2.800
42525SOL    HW129472   7.051   2.672   2.882
42525SOL    HW229473   6.957   2.702   2.767
42526SOL     OW29474   9.617   9.618   3.564
42526SOL    HW129475   9.588   9.585   3.479
42526SOL    HW229476   9.555   9.580   3.627
42527SOL     OW29477  14.781   0.871  14.026
42527SOL    HW129478  14.793   0.839  13.937
42527SOL    HW229479  14.795   0.794  14.081
42528SOL     OW29480  14.450   6.755  11.818
42528SOL    HW129481  14.530   6.738  11.768
42528SOL    HW229482  14.459   6.702  11.896
42529SOL     OW29483   2.069   6.650   2.037
42529SOL    HW129484   2.044   6.738   2.010
42529SOL    HW229485   1.996   6.594   2.009
42530SOL     OW29486   7.655   0.547   5.921
42530SOL    HW129487   7.648   0.641   5.941
42530SOL    HW229488   7.629   0.541   5.829
42531SOL     OW29489   4.030   1.582  10.520
42531SOL    HW129490   3.989   1.503  10.556
42531SOL    HW229491   3.965   1.650  10.534
42532SOL     OW29492  13.942   9.997   2.330
42532SOL    HW129493  13.861  10.024   2.287
42532SOL    HW229494  13.991  10.079   2.341
42533SOL     OW29495   5.526  10.774   9.447
42533SOL    HW129496   5.620  10.790   9.444
42533SOL    HW229497   5.517  10.692   9.495
42534SOL     OW29498   6.784   2.939   1.839
42534SOL    HW129499   6.790   2.973   1.929
42534SOL    HW229500   6.826   3.006   1.786
42535SOL     OW29501   9.472  13.165   2.206
42535SOL    HW129502   9.478  13.098   2.274
42535SOL    HW229503   9.525  13.130   2.134
42536SOL     OW29504   9.697   9.710   9.513
42536SOL    HW129505   9.679   9.750   9.427
42536SOL    HW229506   9.728   9.622   9.492
42537SOL     OW29507   6.822  13.020   3.586
42537SOL    HW129508   6.844  12.950   3.648
42537SOL    HW229509   6.789  13.090   3.641
42538SOL     OW29510   0.866   4.595  13.268
42538SOL    HW129511   0.855   4.652  13.192
42538SOL    HW229512   0.795   4.619  13.327
42539SOL     OW29513  13.651   5.763   0.940
42539SOL    HW129514  13.633   5.753   1.033
42539SOL    HW229515  13.611   5.687   0.899
42540SOL     OW29516  10.356   7.195   5.650
42540SOL    HW129517  10.299   7.270   5.670
42540SOL    HW229518  10.418   7.192   5.723
42541SOL     OW29519   8.496   0.516  12.286
42541SOL    HW129520   8.530   0.526  12.197
42541SOL    HW229521   8.542   0.583  12.337
42542SOL     OW29522   1.073   6.991   1.070
42542SOL    HW129523   1.030   6.965   1.152
42542SOL    HW229524   1.011   7.049   1.027
42543SOL     OW29525   6.002   4.824  10.851
42543SOL    HW129526   5.957   4.744  10.878
42543SOL    HW229527   6.078   4.793  10.802
42544SOL     OW29528  11.925  13.773  11.268
42544SOL    HW129529  11.883  13.709  11.210
42544SOL    HW229530  11.863  13.782  11.341
42545SOL     OW29531   6.687  14.295   5.164
42545SOL    HW129532   6.596  14.311   5.189
42545SOL    HW229533   6.730  14.268   5.245
42546SOL     OW29534   1.404  12.729   1.717
42546SOL    HW129535   1.346  12.669   1.669
42546SOL    HW229536   1.406  12.808   1.663
42547SOL     OW29537  10.993   5.405  12.407
42547SOL    HW129538  11.029   5.454  12.333
42547SOL    HW229539  10.947   5.470  12.459
42548SOL     OW29540   4.108   6.184   4.605
42548SOL    HW129541   4.173   6.238   4.650
42548SOL    HW229542   4.140   6.177   4.515
42549SOL     OW29543   8.899  14.490  13.089
42549SOL    HW129544   8.878  14.415  13.034
42549SOL    HW229545   8.832  14.490  13.157
42550SOL     OW29546  11.775   4.030  10.890
42550SOL    HW129547  11.762   3.935  10.885
42550SOL    HW229548  11.687   4.067  10.896
42551SOL     OW29549   2.071  14.183   8.790
42551SOL    HW129550   1.975  14.184   8.785
42551SOL    HW229551   2.098  14.138   8.710
42552SOL     OW29552  10.397  12.180   8.096
42552SOL    HW129553  10.356  12.126   8.164
42552SOL    HW229554  10.398  12.268   8.133
42553SOL     OW29555  13.626   8.164   8.800
42553SOL    HW129556  13.615   8.148   8.706
42553SOL    HW229557  13.658   8.081   8.835
42554SOL     OW29558  11.410   7.317   1.467
42554SOL    HW129559  11.418   7.227   1.436
42554SOL    HW229560  11.468   7.322   1.543
42555SOL     OW29561   3.556  13.953  11.374
42555SOL    HW129562   3.618  13.881  11.375
42555SOL    HW229563   3.606  14.027  11.340
42556SOL     OW29564  14.515   8.275  12.559
42556SOL    HW129565  14.491   8.266  12.467
42556SOL    HW229566  14.444   8.232  12.607
42557SOL     OW29567   0.108   3.424   7.077
42557SOL    HW129568   0.076   3.433   6.987
42557SOL    HW229569   0.203   3.421   7.068
42558SOL     OW29570   8.468   0.831  11.464
42558SOL    HW129571   8.542   0.810  11.521
42558SOL    HW229572   8.475   0.925  11.450
42559SOL     OW29573  10.855  13.234   3.639
42559SOL    HW129574  10.845  13.182   3.718
42559SOL    HW229575  10.780  13.209   3.585
42560SOL     OW29576  11.511  11.257   1.070
42560SOL    HW129577  11.479  11.342   1.040
42560SOL    HW229578  11.589  11.241   1.017
42561SOL     OW29579  10.245   1.767  12.520
42561SOL    HW129580  10.180   1.774  12.590
42561SOL    HW229581  10.305   1.699  12.549
42562SOL     OW29582   3.728  11.103   6.033
42562SOL    HW129583   3.736  11.198   6.042
42562SOL    HW229584   3.763  11.068   6.115
42563SOL     OW29585   2.033   9.535  13.322
42563SOL    HW129586   1.991   9.468  13.376
42563SOL    HW229587   2.127   9.517  13.331
42564SOL     OW29588   3.347   1.880  13.343
42564SOL    HW129589   3.395   1.834  13.274
42564SOL    HW229590   3.268   1.913  13.300
42565SOL     OW29591   2.645   4.493   3.968
42565SOL    HW129592   2.709   4.538   3.914
42565SOL    HW229593   2.670   4.400   3.962
42566SOL     OW29594   8.733   6.320   2.302
42566SOL    HW129595   8.749   6.231   2.331
42566SOL    HW229596   8.637   6.328   2.301
42567SOL     OW29597   8.578   5.445   0.082
42567SOL    HW129598   8.654   5.483   0.039
42567SOL    HW229599   8.610   5.363   0.120
42568SOL     OW29600   0.188   5.458  11.176
42568SOL    HW129601   0.221   5.446  11.087
42568SOL    HW229602   0.167   5.551  11.181
42569SOL     OW29603   6.004   3.408  10.608
42569SOL    HW129604   5.951   3.330  10.624
42569SOL    HW229605   5.941   3.480  10.607
42570SOL     OW29606   0.122  13.418   2.858
42570SOL    HW129607   0.192  13.399   2.921
42570SOL    HW229608   0.139  13.358   2.785
42571SOL     OW29609  10.372   2.596  14.404
42571SOL    HW129610  10.353   2.550  14.322
42571SOL    HW229611  10.322   2.549  14.470
42572SOL     OW29612   4.777  14.132   5.412
42572SOL    HW129613   4.743  14.219   5.391
42572SOL    HW229614   4.870  14.136   5.388
42573SOL     OW29615  11.319  10.093  12.676
42573SOL    HW129616  11.345  10.170  12.626
42573SOL    HW229617  11.359  10.105  12.762
42574SOL     OW29618   5.790   4.706  11.051
42574SOL    HW129619   5.731   4.759  10.996
42574SOL    HW229620   5.782   4.745  11.138
42575SOL     OW29621  13.816  12.673   1.632
42575SOL    HW129622  13.854  12.665   1.544
42575SOL    HW229623  13.847  12.595   1.678
42576SOL     OW29624   3.354   7.938  13.923
42576SOL    HW129625   3.296   7.903  13.991
42576SOL    HW229626   3.431   7.968  13.971
42577SOL     OW29627  12.528  13.393   4.390
42577SOL    HW129628  12.622  13.402   4.403
42577SOL    HW229629  12.519  13.326   4.322
42578SOL     OW29630   0.899   8.741   5.152
42578SOL    HW129631   0.900   8.658   5.103
42578SOL    HW229632   0.963   8.796   5.107
42579SOL     OW29633  11.855   9.136   7.896
42579SOL    HW129634  11.876   9.129   7.803
42579SOL    HW229635  11.933   9.175   7.936
42580SOL     OW29636  11.290   3.911   2.026
42580SOL    HW129637  11.240   3.980   1.983
42580SOL    HW229638  11.323   3.857   1.953
42581SOL     OW29639   0.233   3.493   5.273
42581SOL    HW129640   0.183   3.455   5.345
42581SOL    HW229641   0.187   3.464   5.194
42582SOL     OW29642   2.728  13.742   3.343
42582SOL    HW129643   2.819  13.768   3.328
42582SOL    HW229644   2.694  13.722   3.255
42583SOL     OW29645  10.054   4.498   8.099
42583SOL    HW129646  10.128   4.453   8.138
42583SOL    HW229647  10.007   4.535   8.174
42584SOL     OW29648   9.239  11.031   5.403
42584SOL    HW129649   9.227  10.938   5.423
42584SOL    HW229650   9.252  11.034   5.308
42585SOL     OW29651   7.497  14.707  11.279
42585SOL    HW129652   7.495  14.612  11.276
42585SOL    HW229653   7.561  14.728  11.347
42586SOL     OW29654   0.151   5.181  10.422
42586SOL    HW129655   0.185   5.135  10.345
42586SOL    HW229656   0.200   5.263  10.424
42587SOL     OW29657  10.453   8.454   6.597
42587SOL    HW129658  10.359   8.438   6.583
42587SOL    HW229659  10.473   8.409   6.679
42588SOL     OW29660   6.988   2.470   8.822
42588SOL    HW129661   6.909   2.416   8.827
42588SOL    HW229662   7.010   2.488   8.913
42589SOL     OW29663   0.792  13.180   0.779
42589SOL    HW129664   0.700  13.195   0.755
42589SOL    HW229665   0.815  13.256   0.833
42590SOL     OW29666  14.554  11.133   0.414
42590SOL    HW129667  14.646  11.107   0.414
42590SOL    HW229668  14.506  11.051   0.426
42591SOL     OW29669   7.399   5.295   4.989
42591SOL    HW129670   7.351   5.250   4.920
42591SOL    HW229671   7.481   5.247   4.996
42592SOL     OW29672  11.473   3.292  13.503
42592SOL    HW129673  11.389   3.247  13.512
42592SOL    HW229674  11.531   3.247  13.564
42593SOL     OW29675  13.513  10.865   5.672
42593SOL    HW129676  13.491  10.775   5.696
42593SOL    HW229677  13.592  10.857   5.619
42594SOL     OW29678   6.782   6.291   1.501
42594SOL    HW129679   6.783   6.210   1.551
42594SOL    HW229680   6.701   6.335   1.526
42595SOL     OW29681   4.160   4.414   8.802
42595SOL    HW129682   4.183   4.417   8.709
42595SOL    HW229683   4.195   4.331   8.833
42596SOL     OW29684  11.433   2.524  11.668
42596SOL    HW129685  11.398   2.612  11.682
42596SOL    HW229686  11.360   2.466  11.686
42597SOL     OW29687  12.258   9.791   5.217
42597SOL    HW129688  12.296   9.734   5.151
42597SOL    HW229689  12.221   9.864   5.168
42598SOL     OW29690   2.130  10.048   8.320
42598SOL    HW129691   2.194  10.084   8.381
42598SOL    HW229692   2.179  10.038   8.238
42599SOL     OW29693   7.382  10.987   9.222
42599SOL    HW129694   7.448  11.056   9.228
42599SOL    HW229695   7.298  11.034   9.224
42600SOL     OW29696   8.153   8.552  10.257
42600SOL    HW129697   8.216   8.501  10.204
42600SOL    HW229698   8.119   8.617  10.196
42601SOL     OW29699   4.494   1.727   5.171
42601SOL    HW129700   4.439   1.787   5.121
42601SOL    HW229701   4.506   1.770   5.255
42602SOL     OW29702   5.338  13.052  10.947
42602SOL    HW129703   5.354  12.962  10.976
42602SOL    HW229704   5.278  13.088  11.011
42603SOL     OW29705   9.170   6.157  11.858
42603SOL    HW129706   9.259   6.120  11.853
42603SOL    HW229707   9.116   6.086  11.891
42604SOL     OW29708   1.628   0.973  13.227
42604SOL    HW129709   1.534   0.958  13.232
42604SOL    HW229710   1.643   1.047  13.286
42605SOL     OW29711   7.095   3.099   3.329
42605SOL    HW129712   7.114   3.105   3.423
42605SOL    HW229713   7.127   3.181   3.292
42606SOL     OW29714  11.032   9.670  10.377
42606SOL    HW129715  10.952   9.628  10.347
42606SOL    HW229716  11.090   9.598  10.400
42607SOL     OW29717  14.819   6.805  12.858
42607SOL    HW129718   0.024   6.799  12.814
42607SOL    HW229719  14.823   6.886  12.909
42608SOL     OW29720   2.464  13.597  11.313
42608SOL    HW129721   2.556  13.570  11.309
42608SOL    HW229722   2.441  13.618  11.222
42609SOL     OW29723  13.567  11.316   7.683
42609SOL    HW129724  13.488  11.339   7.732
42609SOL    HW229725  13.551  11.226   7.654
42610SOL     OW29726  14.723   9.390  12.639
42610SOL    HW129727  14.649   9.443  12.609
42610SOL    HW229728  14.700   9.301  12.612
42611SOL     OW29729   9.885  14.153   2.706
42611SOL    HW129730   9.849  14.145   2.618
42611SOL    HW229731   9.891  14.247   2.721
42612SOL     OW29732  13.793   5.266  10.080
42612SOL    HW129733  13.717   5.219  10.046
42612SOL    HW229734  13.838   5.202  10.136
42613SOL     OW29735   4.650   4.640  10.384
42613SOL    HW129736   4.680   4.635  10.475
42613SOL    HW229737   4.554   4.642  10.391
42614SOL     OW29738   6.635  13.708   0.949
42614SOL    HW129739   6.618  13.619   0.979
42614SOL    HW229740   6.554  13.735   0.907
42615SOL     OW29741  13.406  14.788  13.072
42615SOL    HW129742  13.427  14.696  13.056
42615SOL    HW229743  13.322  14.802  13.029
42616SOL     OW29744   9.511  10.158   6.914
42616SOL    HW129745   9.556  10.159   6.830
42616SOL    HW229746   9.535  10.073   6.953
42617SOL     OW29747   2.772   3.294  14.767
42617SOL    HW129748   2.858   3.313  14.731
42617SOL    HW229749   2.727   3.379  14.769
42618SOL     OW29750   3.121   6.470   0.814
42618SOL    HW129751   3.190   6.465   0.748
42618SOL    HW229752   3.059   6.534   0.779
42619SOL     OW29753   8.476  12.190  11.518
42619SOL    HW129754   8.553  12.222  11.566
42619SOL    HW229755   8.455  12.260  11.456
42620SOL     OW29756   2.645   6.152  10.398
42620SOL    HW129757   2.675   6.131  10.310
42620SOL    HW229758   2.583   6.224  10.386
42621SOL     OW29759   5.320   2.453  13.639
42621SOL    HW129760   5.396   2.509  13.620
42621SOL    HW229761   5.261   2.468  13.565
42622SOL     OW29762   2.294   3.210   8.662
42622SOL    HW129763   2.303   3.167   8.577
42622SOL    HW229764   2.300   3.304   8.641
42623SOL     OW29765   0.555   7.200   9.524
42623SOL    HW129766   0.626   7.157   9.571
42623SOL    HW229767   0.538   7.279   9.575
42624SOL     OW29768  13.680   7.336  12.086
42624SOL    HW129769  13.588   7.353  12.065
42624SOL    HW229770  13.679   7.291  12.170
42625SOL     OW29771   2.356  11.904   0.414
42625SOL    HW129772   2.401  11.987   0.431
42625SOL    HW229773   2.333  11.871   0.501
42626SOL     OW29774  10.577  11.639   2.634
42626SOL    HW129775  10.593  11.638   2.729
42626SOL    HW229776  10.485  11.663   2.626
42627SOL     OW29777   9.553   9.654   6.474
42627SOL    HW129778   9.584   9.590   6.538
42627SOL    HW229779   9.629   9.711   6.460
42628SOL     OW29780   8.496  11.153   3.137
42628SOL    HW129781   8.413  11.166   3.183
42628SOL    HW229782   8.552  11.109   3.201
42629SOL     OW29783   1.065   6.884   1.557
42629SOL    HW129784   1.109   6.886   1.472
42629SOL    HW229785   1.006   6.959   1.556
42630SOL     OW29786  11.973   8.767   3.715
42630SOL    HW129787  11.968   8.851   3.760
42630SOL    HW229788  11.883   8.746   3.693
42631SOL     OW29789   1.562   4.858   6.528
42631SOL    HW129790   1.619   4.924   6.489
42631SOL    HW229791   1.494   4.909   6.572
42632SOL     OW29792   5.284   5.377  11.332
42632SOL    HW129793   5.330   5.446  11.285
42632SOL    HW229794   5.197   5.413  11.349
42633SOL     OW29795   7.509  13.399   6.893
42633SOL    HW129796   7.422  13.406   6.931
42633SOL    HW229797   7.530  13.306   6.899
42634SOL     OW29798  12.114   8.982  11.296
42634SOL    HW129799  12.141   8.902  11.341
42634SOL    HW229800  12.093   8.955  11.207
42635SOL     OW29801   6.857   1.642  10.733
42635SOL    HW129802   6.805   1.569  10.701
42635SOL    HW229803   6.794   1.713  10.745
42636SOL     OW29804   2.385   6.655  11.169
42636SOL    HW129805   2.412   6.723  11.107
42636SOL    HW229806   2.377   6.701  11.253
42637SOL     OW29807   7.411   5.074  10.445
42637SOL    HW129808   7.388   5.065  10.353
42637SOL    HW229809   7.344   5.133  10.480
42638SOL     OW29810  12.579   7.070  13.573
42638SOL    HW129811  12.667   7.090  13.603
42638SOL    HW229812  12.521   7.108  13.640
42639SOL     OW29813   0.640   1.828   4.794
42639SOL    HW129814   0.579   1.902   4.786
42639SOL    HW229815   0.622   1.793   4.881
42640SOL     OW29816  13.113  13.239   7.085
42640SOL    HW129817  13.047  13.225   7.153
42640SOL    HW229818  13.186  13.280   7.132
42641SOL     OW29819   1.943   8.360  12.075
42641SOL    HW129820   1.987   8.306  12.008
42641SOL    HW229821   1.858   8.382  12.036
42642SOL     OW29822  12.251   9.221   3.518
42642SOL    HW129823  12.164   9.183   3.511
42642SOL    HW229824  12.307   9.162   3.469
42643SOL     OW29825   6.520   4.193   2.084
42643SOL    HW129826   6.557   4.105   2.085
42643SOL    HW229827   6.523   4.220   1.992
42644SOL     OW29828   5.068  14.130  13.725
42644SOL    HW129829   5.140  14.074  13.697
42644SOL    HW229830   5.031  14.164  13.643
42645SOL     OW29831   9.466   2.060   9.350
42645SOL    HW129832   9.436   2.108   9.272
42645SOL    HW229833   9.386   2.024   9.388
42646SOL     OW29834   9.013   0.897   4.433
42646SOL    HW129835   8.941   0.855   4.384
42646SOL    HW229836   9.085   0.902   4.370
42647SOL     OW29837   4.574   9.462  13.843
42647SOL    HW129838   4.531   9.447  13.927
42647SOL    HW229839   4.506   9.443  13.777
42648SOL     OW29840  14.748  13.338  13.673
42648SOL    HW129841  14.792  13.423  13.681
42648SOL    HW229842  14.771  13.292  13.754
42649SOL     OW29843  12.613   2.602   0.348
42649SOL    HW129844  12.533   2.595   0.295
42649SOL    HW229845  12.684   2.605   0.284
42650SOL     OW29846   8.316   9.473   8.840
42650SOL    HW129847   8.407   9.485   8.811
42650SOL    HW229848   8.319   9.488   8.934
42651SOL     OW29849  14.478   7.877  10.853
42651SOL    HW129850  14.428   7.796  10.842
42651SOL    HW229851  14.480   7.915  10.765
42652SOL     OW29852  13.036   9.438  14.567
42652SOL    HW129853  13.058   9.491  14.644
42652SOL    HW229854  12.972   9.374  14.600
42653SOL     OW29855  13.611   8.063   8.545
42653SOL    HW129856  13.689   8.086   8.495
42653SOL    HW229857  13.541   8.115   8.505
42654SOL     OW29858  13.357  13.415  10.309
42654SOL    HW129859  13.327  13.477  10.375
42654SOL    HW229860  13.389  13.470  10.237
42655SOL     OW29861   3.641   8.721   3.465
42655SOL    HW129862   3.701   8.749   3.396
42655SOL    HW229863   3.693   8.664   3.520
42656SOL     OW29864   1.108  12.396   3.527
42656SOL    HW129865   1.015  12.401   3.508
42656SOL    HW229866   1.115  12.424   3.618
42657SOL     OW29867   2.838  12.506  11.967
42657SOL    HW129868   2.781  12.460  12.028
42657SOL    HW229869   2.891  12.437  11.927
42658SOL     OW29870   2.613   7.548  14.085
42658SOL    HW129871   2.679   7.610  14.115
42658SOL    HW229872   2.597   7.573  13.994
42659SOL     OW29873   3.789  12.425   6.131
42659SOL    HW129874   3.696  12.443   6.118
42659SOL    HW229875   3.819  12.495   6.189
42660SOL     OW29876   7.018   8.499   6.304
42660SOL    HW129877   7.065   8.456   6.232
42660SOL    HW229878   6.941   8.538   6.263
42661SOL     OW29879  12.330   6.909   2.514
42661SOL    HW129880  12.279   6.969   2.568
42661SOL    HW229881  12.287   6.912   2.429
42662SOL     OW29882  14.820   0.721   8.391
42662SOL    HW129883   0.007   0.702   8.326
42662SOL    HW229884  14.842   0.808   8.425
42663SOL     OW29885   0.010  11.106  11.665
42663SOL    HW129886  14.795  11.091  11.669
42663SOL    HW229887   0.037  11.068  11.581
42664SOL     OW29888  11.980   8.263   2.018
42664SOL    HW129889  11.936   8.345   1.998
42664SOL    HW229890  12.060   8.290   2.065
42665SOL     OW29891   4.607  13.784   9.951
42665SOL    HW129892   4.513  13.798   9.965
42665SOL    HW229893   4.648  13.865   9.982
42666SOL     OW29894   5.515   9.070  10.789
42666SOL    HW129895   5.452   9.025  10.733
42666SOL    HW229896   5.600   9.051  10.750
42667SOL     OW29897  10.462   5.175   5.975
42667SOL    HW129898  10.476   5.198   5.883
42667SOL    HW229899  10.390   5.232   6.003
42668SOL     OW29900   1.300  10.122  12.103
42668SOL    HW129901   1.387  10.094  12.131
42668SOL    HW229902   1.282  10.200  12.155
42669SOL     OW29903   9.129   6.202   1.074
42669SOL    HW129904   9.047   6.210   1.124
42669SOL    HW229905   9.151   6.109   1.079
42670SOL     OW29906   1.895   6.738   2.483
42670SOL    HW129907   1.816   6.791   2.469
42670SOL    HW229908   1.867   6.648   2.466
42671SOL     OW29909  11.901   2.320   4.475
42671SOL    HW129910  11.996   2.331   4.477
42671SOL    HW229911  11.884   2.244   4.531
42672SOL     OW29912   4.465   0.843  11.420
42672SOL    HW129913   4.560   0.851  11.409
42672SOL    HW229914   4.430   0.927  11.391
42673SOL     OW29915  11.197   6.298   5.279
42673SOL    HW129916  11.229   6.309   5.369
42673SOL    HW229917  11.253   6.355   5.226
42674SOL     OW29918   5.201   1.473   6.156
42674SOL    HW129919   5.214   1.432   6.070
42674SOL    HW229920   5.213   1.566   6.141
42675SOL     OW29921   8.244  13.431   2.513
42675SOL    HW129922   8.169  13.478   2.549
42675SOL    HW229923   8.318  13.456   2.568
42676SOL     OW29924   3.129  11.449   3.685
42676SOL    HW129925   3.169  11.500   3.615
42676SOL    HW229926   3.072  11.511   3.730
42677SOL     OW29927   4.754   7.823   2.624
42677SOL    HW129928   4.786   7.748   2.574
42677SOL    HW229929   4.701   7.784   2.694
42678SOL     OW29930   2.682   5.686  13.750
42678SOL    HW129931   2.731   5.762  13.719
42678SOL    HW229932   2.683   5.694  13.846
42679SOL     OW29933   3.962   5.216   4.298
42679SOL    HW129934   3.985   5.283   4.233
42679SOL    HW229935   3.945   5.265   4.378
42680SOL     OW29936   4.258  11.635   9.311
42680SOL    HW129937   4.168  11.656   9.339
42680SOL    HW229938   4.248  11.561   9.252
42681SOL     OW29939   5.607  13.567   6.271
42681SOL    HW129940   5.557  13.487   6.256
42681SOL    HW229941   5.667  13.572   6.196
42682SOL     OW29942   0.114   4.785   2.274
42682SOL    HW129943   0.064   4.714   2.314
42682SOL    HW229944   0.058   4.816   2.202
42683SOL     OW29945   5.308   5.615   9.087
42683SOL    HW129946   5.255   5.689   9.058
42683SOL    HW229947   5.322   5.564   9.007
42684SOL     OW29948   0.759  10.861   2.161
42684SOL    HW129949   0.808  10.856   2.079
42684SOL    HW229950   0.689  10.924   2.143
42685SOL     OW29951  10.850   3.106   8.855
42685SOL    HW129952  10.771   3.143   8.893
42685SOL    HW229953  10.821   3.070   8.771
42686SOL     OW29954   8.781   2.790   1.219
42686SOL    HW129955   8.752   2.740   1.295
42686SOL    HW229956   8.762   2.882   1.241
42687SOL     OW29957   5.308  12.073  13.596
42687SOL    HW129958   5.402  12.065  13.610
42687SOL    HW229959   5.290  12.018  13.520
42688SOL     OW29960  14.834  13.102   7.011
42688SOL    HW129961   0.049  13.101   6.993
42688SOL    HW229962  14.815  13.193   7.032
42689SOL     OW29963  12.248   9.012   4.281
42689SOL    HW129964  12.160   8.982   4.305
42689SOL    HW229965  12.234   9.072   4.208
42690SOL     OW29966   4.571  11.063  12.178
42690SOL    HW129967   4.618  11.033  12.256
42690SOL    HW229968   4.511  10.992  12.157
42691SOL     OW29969  10.993   5.788   3.404
42691SOL    HW129970  10.931   5.753   3.340
42691SOL    HW229971  11.063   5.827   3.351
42692SOL     OW29972   4.484  13.133  11.007
42692SOL    HW129973   4.406  13.181  10.981
42692SOL    HW229974   4.466  13.105  11.097
42693SOL     OW29975   7.985  12.205   3.312
42693SOL    HW129976   7.996  12.137   3.246
42693SOL    HW229977   7.959  12.157   3.391
42694SOL     OW29978   1.886   2.308   2.562
42694SOL    HW129979   1.844   2.358   2.492
42694SOL    HW229980   1.838   2.334   2.641
42695SOL     OW29981  10.584   2.824  13.709
42695SOL    HW129982  10.517   2.861  13.767
42695SOL    HW229983  10.547   2.739  13.682
42696SOL     OW29984   5.701  10.000   0.823
42696SOL    HW129985   5.795   9.984   0.833
42696SOL    HW229986   5.696  10.069   0.756
42697SOL     OW29987  11.425   5.990   8.476
42697SOL    HW129988  11.360   5.968   8.542
42697SOL    HW229989  11.395   6.074   8.440
42698SOL     OW29990   2.640  14.231   8.008
42698SOL    HW129991   2.567  14.258   8.064
42698SOL    HW229992   2.618  14.265   7.921
42699SOL     OW29993  10.448   9.778   6.221
42699SOL    HW129994  10.435   9.775   6.126
42699SOL    HW229995  10.361   9.793   6.257
42700SOL     OW29996  13.404   4.094   2.871
42700SOL    HW129997  13.392   4.172   2.816
42700SOL    HW229998  13.437   4.027   2.811
42701SOL     OW29999   8.509  11.918   0.178
42701SOL    HW130000   8.544  11.843   0.225
42701SOL    HW230001   8.414  11.913   0.192
42702SOL     OW30002   1.842   5.525  11.044
42702SOL    HW130003   1.882   5.604  11.006
42702SOL    HW230004   1.858   5.534  11.138
42703SOL     OW30005   6.891   0.527  13.408
42703SOL    HW130006   6.800   0.545  13.431
42703SOL    HW230007   6.934   0.612  13.417
42704SOL     OW30008   7.149  12.642  10.937
42704SOL    HW130009   7.183  12.574  10.995
42704SOL    HW230010   7.058  12.616  10.922
42705SOL     OW30011   4.170   0.857  14.476
42705SOL    HW130012   4.212   0.943  14.486
42705SOL    HW230013   4.243   0.795  14.474
42706SOL     OW30014   9.593   2.346   1.585
42706SOL    HW130015   9.628   2.330   1.497
42706SOL    HW230016   9.656   2.303   1.643
42707SOL     OW30017   6.994   9.718   5.587
42707SOL    HW130018   7.057   9.719   5.515
42707SOL    HW230019   7.032   9.777   5.653
42708SOL     OW30020   6.389   4.824   2.772
42708SOL    HW130021   6.327   4.810   2.844
42708SOL    HW230022   6.334   4.834   2.694
42709SOL     OW30023   1.107   8.268   4.202
42709SOL    HW130024   1.072   8.240   4.286
42709SOL    HW230025   1.200   8.249   4.207
42710SOL     OW30026   7.294   8.505  14.487
42710SOL    HW130027   7.207   8.472  14.509
42710SOL    HW230028   7.301   8.492  14.393
42711SOL     OW30029   5.320  12.182   6.406
42711SOL    HW130030   5.231  12.189   6.371
42711SOL    HW230031   5.324  12.093   6.442
42712SOL     OW30032  13.426   5.839  12.882
42712SOL    HW130033  13.463   5.800  12.802
42712SOL    HW230034  13.331   5.834  12.869
42713SOL     OW30035  10.301   6.406   9.713
42713SOL    HW130036  10.210   6.413   9.685
42713SOL    HW230037  10.351   6.410   9.632
42714SOL     OW30038  13.185   9.709  10.715
42714SOL    HW130039  13.150   9.630  10.757
42714SOL    HW230040  13.183   9.689  10.622
42715SOL     OW30041   9.975  13.531   1.319
42715SOL    HW130042   9.989  13.484   1.401
42715SOL    HW230043  10.061  13.564   1.295
42716SOL     OW30044   2.081   7.740   7.689
42716SOL    HW130045   2.123   7.816   7.727
42716SOL    HW230046   2.026   7.775   7.619
42717SOL     OW30047  11.450   5.725   4.293
42717SOL    HW130048  11.487   5.711   4.206
42717SOL    HW230049  11.467   5.817   4.312
42718SOL     OW30050  12.489  13.989   8.080
42718SOL    HW130051  12.530  14.062   8.034
42718SOL    HW230052  12.520  13.997   8.171
42719SOL     OW30053   6.736  10.492  11.868
42719SOL    HW130054   6.779  10.431  11.809
42719SOL    HW230055   6.758  10.459  11.956
42720SOL     OW30056   6.631   9.023   0.423
42720SOL    HW130057   6.601   9.066   0.343
42720SOL    HW230058   6.631   9.091   0.490
42721SOL     OW30059   9.609  14.683   3.293
42721SOL    HW130060   9.568  14.747   3.350
42721SOL    HW230061   9.703  14.691   3.310
42722SOL     OW30062  12.556   5.951   6.398
42722SOL    HW130063  12.603   6.019   6.349
42722SOL    HW230064  12.618   5.921   6.464
42723SOL     OW30065   3.124  10.969   7.708
42723SOL    HW130066   3.127  10.960   7.803
42723SOL    HW230067   3.037  11.006   7.690
42724SOL     OW30068   5.475   2.670   0.952
42724SOL    HW130069   5.568   2.654   0.939
42724SOL    HW230070   5.434   2.644   0.869
42725SOL     OW30071   4.363  12.815   6.654
42725SOL    HW130072   4.412  12.838   6.732
42725SOL    HW230073   4.373  12.720   6.647
42726SOL     OW30074  13.159  13.640   7.173
42726SOL    HW130075  13.196  13.693   7.103
42726SOL    HW230076  13.181  13.550   7.151
42727SOL     OW30077  13.634   3.229  10.814
42727SOL    HW130078  13.681   3.225  10.898
42727SOL    HW230079  13.551   3.183  10.831
42728SOL     OW30080   0.763   1.102   0.780
42728SOL    HW130081   0.761   1.095   0.684
42728SOL    HW230082   0.811   1.183   0.797
42729SOL     OW30083   7.630   2.380   9.846
42729SOL    HW130084   7.689   2.406   9.775
42729SOL    HW230085   7.610   2.288   9.829
42730SOL     OW30086   8.786   3.538   8.371
42730SOL    HW130087   8.730   3.528   8.449
42730SOL    HW230088   8.757   3.468   8.313
42731SOL     OW30089   7.042   4.342   9.407
42731SOL    HW130090   7.034   4.436   9.421
42731SOL    HW230091   6.990   4.303   9.478
42732SOL     OW30092   2.104   2.458   5.170
42732SOL    HW130093   2.107   2.401   5.093
42732SOL    HW230094   2.099   2.397   5.245
42733SOL     OW30095  13.730   8.081   4.587
42733SOL    HW130096  13.699   8.107   4.501
42733SOL    HW230097  13.652   8.084   4.643
42734SOL     OW30098  12.499  13.934   2.620
42734SOL    HW130099  12.526  13.919   2.529
42734SOL    HW230100  12.533  14.021   2.640
42735SOL     OW30101   6.786   8.555   6.187
42735SOL    HW130102   6.767   8.581   6.097
42735SOL    HW230103   6.717   8.598   6.239
42736SOL     OW30104  10.316   3.072   0.419
42736SOL    HW130105  10.364   3.115   0.490
42736SOL    HW230106  10.242   3.131   0.401
42737SOL     OW30107  13.688  14.502   2.153
42737SOL    HW130108  13.660  14.591   2.176
42737SOL    HW230109  13.778  14.513   2.121
42738SOL     OW30110  13.406  11.442  10.572
42738SOL    HW130111  13.358  11.455  10.490
42738SOL    HW230112  13.345  11.395  10.629
42739SOL     OW30113   5.960   8.057   6.443
42739SOL    HW130114   5.939   8.093   6.528
42739SOL    HW230115   6.036   8.107   6.413
42740SOL     OW30116   7.198   6.303   1.878
42740SOL    HW130117   7.255   6.366   1.832
42740SOL    HW230118   7.253   6.226   1.889
42741SOL     OW30119  14.418  14.779  11.788
42741SOL    HW130120  14.392  14.789  11.697
42741SOL    HW230121  14.446  14.688  11.795
42742SOL     OW30122   5.011   3.914   6.604
42742SOL    HW130123   4.960   3.957   6.535
42742SOL    HW230124   4.951   3.849   6.640
42743SOL     OW30125   9.619   4.944   8.869
42743SOL    HW130126   9.685   4.987   8.813
42743SOL    HW230127   9.541   4.999   8.859
42744SOL     OW30128   9.410   6.121   3.643
42744SOL    HW130129   9.357   6.053   3.683
42744SOL    HW230130   9.347   6.185   3.609
42745SOL     OW30131  13.695   1.730   0.523
42745SOL    HW130132  13.649   1.671   0.583
42745SOL    HW230133  13.783   1.691   0.514
42746SOL     OW30134   8.035   3.124   6.313
42746SOL    HW130135   8.028   3.029   6.327
42746SOL    HW230136   8.022   3.162   6.399
42747SOL     OW30137   9.428   3.415   5.636
42747SOL    HW130138   9.462   3.336   5.593
42747SOL    HW230139   9.334   3.411   5.624
42748SOL     OW30140   9.110  13.799  11.780
42748SOL    HW130141   9.138  13.890  11.794
42748SOL    HW230142   9.124  13.784  11.687
42749SOL     OW30143  14.310  12.882   7.779
42749SOL    HW130144  14.379  12.934   7.820
42749SOL    HW230145  14.229  12.930   7.799
42750SOL     OW30146   4.994  13.643   4.531
42750SOL    HW130147   4.901  13.629   4.512
42750SOL    HW230148   5.030  13.682   4.451
42751SOL     OW30149   1.338   8.365   2.059
42751SOL    HW130150   1.376   8.313   2.130
42751SOL    HW230151   1.312   8.447   2.100
42752SOL     OW30152  10.509   2.497   5.323
42752SOL    HW130153  10.442   2.479   5.257
42752SOL    HW230154  10.540   2.585   5.303
42753SOL     OW30155  11.197   4.886  12.491
42753SOL    HW130156  11.272   4.841  12.451
42753SOL    HW230157  11.124   4.868  12.433
42754SOL     OW30158  10.710   0.879   0.163
42754SOL    HW130159  10.704   0.929   0.082
42754SOL    HW230160  10.758   0.800   0.139
42755SOL     OW30161   0.528   8.753   3.386
42755SOL    HW130162   0.547   8.713   3.470
42755SOL    HW230163   0.442   8.719   3.362
42756SOL     OW30164   7.693  10.357   1.681
42756SOL    HW130165   7.642  10.354   1.762
42756SOL    HW230166   7.781  10.328   1.706
42757SOL     OW30167   0.674  10.047   0.431
42757SOL    HW130168   0.767  10.030   0.448
42757SOL    HW230169   0.674  10.119   0.368
42758SOL     OW30170   0.799   8.531  14.318
42758SOL    HW130171   0.727   8.506  14.260
42758SOL    HW230172   0.814   8.453  14.372
42759SOL     OW30173   4.320  12.255  11.840
42759SOL    HW130174   4.352  12.272  11.928
42759SOL    HW230175   4.399  12.240  11.788
42760SOL     OW30176   1.698   1.003   1.004
42760SOL    HW130177   1.615   0.968   1.035
42760SOL    HW230178   1.683   1.097   0.994
42761SOL     OW30179   6.989  13.792   1.916
42761SOL    HW130180   6.968  13.879   1.949
42761SOL    HW230181   7.036  13.809   1.834
42762SOL     OW30182  14.134   9.526   0.385
42762SOL    HW130183  14.084   9.444   0.383
42762SOL    HW230184  14.100   9.576   0.310
42763SOL     OW30185   0.836   9.883   7.067
42763SOL    HW130186   0.800   9.947   7.005
42763SOL    HW230187   0.929   9.902   7.071
42764SOL     OW30188  10.166   9.761   8.276
42764SOL    HW130189  10.122   9.844   8.257
42764SOL    HW230190  10.147   9.706   8.201
42765SOL     OW30191  11.160   6.384   9.750
42765SOL    HW130192  11.178   6.467   9.795
42765SOL    HW230193  11.202   6.393   9.664
42766SOL     OW30194   1.648  10.480  11.447
42766SOL    HW130195   1.684  10.505  11.363
42766SOL    HW230196   1.611  10.561  11.483
42767SOL     OW30197  12.867  11.490  14.558
42767SOL    HW130198  12.918  11.427  14.608
42767SOL    HW230199  12.851  11.563  14.618
42768SOL     OW30200   2.766  12.616   1.706
42768SOL    HW130201   2.826  12.556   1.661
42768SOL    HW230202   2.688  12.564   1.723
42769SOL     OW30203   6.047   1.967   7.501
42769SOL    HW130204   6.002   1.895   7.456
42769SOL    HW230205   6.135   1.967   7.463
42770SOL     OW30206  13.622   9.659  11.981
42770SOL    HW130207  13.587   9.748  11.974
42770SOL    HW230208  13.557   9.604  11.938
42771SOL     OW30209  13.455  11.080   6.907
42771SOL    HW130210  13.507  11.116   6.979
42771SOL    HW230211  13.395  11.019   6.948
42772SOL     OW30212   6.827   3.844   6.957
42772SOL    HW130213   6.789   3.846   7.044
42772SOL    HW230214   6.788   3.768   6.914
42773SOL     OW30215   5.032   0.834   7.132
42773SOL    HW130216   4.993   0.869   7.212
42773SOL    HW230217   5.126   0.845   7.144
42774SOL     OW30218   4.653   9.155   9.228
42774SOL    HW130219   4.689   9.161   9.316
42774SOL    HW230220   4.721   9.190   9.171
42775SOL     OW30221   0.358   3.474  13.640
42775SOL    HW130222   0.325   3.472  13.550
42775SOL    HW230223   0.413   3.552  13.644
42776SOL     OW30224   2.119  13.341  12.316
42776SOL    HW130225   2.204  13.329  12.359
42776SOL    HW230226   2.112  13.266  12.257
42777SOL     OW30227   3.014  14.685  11.324
42777SOL    HW130228   3.004  14.654  11.414
42777SOL    HW230229   2.953  14.633  11.273
42778SOL     OW30230  14.601  14.336   8.117
42778SOL    HW130231  14.532  14.400   8.135
42778SOL    HW230232  14.561  14.274   8.055
42779SOL     OW30233   8.921   6.262   1.215
42779SOL    HW130234   8.929   6.339   1.272
42779SOL    HW230235   8.849   6.211   1.254
42780SOL     OW30236  11.235  13.810  12.176
42780SOL    HW130237  11.200  13.753  12.245
42780SOL    HW230238  11.172  13.881  12.170
42781SOL     OW30239   9.295  13.813   9.532
42781SOL    HW130240   9.358  13.744   9.507
42781SOL    HW230241   9.346  13.873   9.586
42782SOL     OW30242   8.189   4.650   6.187
42782SOL    HW130243   8.208   4.727   6.133
42782SOL    HW230244   8.275   4.622   6.219
42783SOL     OW30245  12.485  12.533   8.720
42783SOL    HW130246  12.477  12.438   8.721
42783SOL    HW230247  12.486  12.558   8.813
42784SOL     OW30248   0.590   8.739  13.102
42784SOL    HW130249   0.665   8.717  13.047
42784SOL    HW230250   0.520   8.759  13.041
42785SOL     OW30251   9.507  10.055  11.798
42785SOL    HW130252   9.539  10.119  11.734
42785SOL    HW230253   9.418  10.036  11.769
42786SOL     OW30254  12.858   5.600   5.684
42786SOL    HW130255  12.870   5.667   5.751
42786SOL    HW230256  12.943   5.555   5.680
42787SOL     OW30257  14.779  12.589  13.409
42787SOL    HW130258  14.738  12.519  13.359
42787SOL    HW230259  14.770  12.667  13.354
42788SOL     OW30260  11.533  14.394  10.696
42788SOL    HW130261  11.595  14.371  10.627
42788SOL    HW230262  11.503  14.310  10.730
42789SOL     OW30263   7.694   9.308   0.819
42789SOL    HW130264   7.778   9.338   0.786
42789SOL    HW230265   7.630   9.368   0.782
42790SOL     OW30266  12.809   3.989   2.432
42790SOL    HW130267  12.801   4.057   2.364
42790SOL    HW230268  12.733   3.933   2.419
42791SOL     OW30269  12.559   7.491   4.147
42791SOL    HW130270  12.501   7.522   4.078
42791SOL    HW230271  12.578   7.568   4.201
42792SOL     OW30272   1.908  13.625   9.031
42792SOL    HW130273   1.913  13.605   9.125
42792SOL    HW230274   1.814  13.635   9.014
42793SOL     OW30275   6.933  12.032   0.571
42793SOL    HW130276   6.845  11.996   0.559
42793SOL    HW230277   6.944  12.038   0.666
42794SOL     OW30278   3.972   7.506   0.447
42794SOL    HW130279   4.053   7.557   0.445
42794SOL    HW230280   3.960   7.475   0.357
42795SOL     OW30281   1.145  12.370   2.446
42795SOL    HW130282   1.199  12.357   2.368
42795SOL    HW230283   1.071  12.423   2.416
42796SOL     OW30284  13.657   7.837   9.310
42796SOL    HW130285  13.591   7.892   9.268
42796SOL    HW230286  13.658   7.757   9.257
42797SOL     OW30287  13.710  10.946  12.821
42797SOL    HW130288  13.675  10.871  12.869
42797SOL    HW230289  13.691  11.022  12.877
42798SOL     OW30290  12.976   5.956   1.491
42798SOL    HW130291  12.886   5.981   1.509
42798SOL    HW230292  12.997   5.891   1.559
42799SOL     OW30293   1.243   0.903   7.321
42799SOL    HW130294   1.231   0.994   7.350
42799SOL    HW230295   1.272   0.911   7.230
42800SOL     OW30296  11.948   7.108   4.559
42800SOL    HW130297  11.995   7.191   4.566
42800SOL    HW230298  11.867   7.122   4.608
42801SOL     OW30299   8.226   6.009  13.049
42801SOL    HW130300   8.256   5.927  13.010
42801SOL    HW230301   8.284   6.021  13.125
42802SOL     OW30302   9.998   1.366   8.445
42802SOL    HW130303  10.013   1.445   8.497
42802SOL    HW230304   9.917   1.384   8.398
42803SOL     OW30305   3.961   2.364   8.176
42803SOL    HW130306   3.997   2.420   8.245
42803SOL    HW230307   4.025   2.293   8.167
42804SOL     OW30308   1.652   3.934   8.068
42804SOL    HW130309   1.699   3.956   7.988
42804SOL    HW230310   1.629   4.019   8.106
42805SOL     OW30311   0.507   9.767   1.526
42805SOL    HW130312   0.546   9.780   1.439
42805SOL    HW230313   0.553   9.692   1.562
42806SOL     OW30314   6.690   6.995  14.859
42806SOL    HW130315   6.672   6.941  14.782
42806SOL    HW230316   6.753   6.943   0.030
42807SOL     OW30317   6.131   0.030   9.118
42807SOL    HW130318   6.188   0.106   9.130
42807SOL    HW230319   6.048   0.066   9.089
42808SOL     OW30320  12.201   0.611  13.619
42808SOL    HW130321  12.141   0.638  13.689
42808SOL    HW230322  12.263   0.552  13.662
42809SOL     OW30323  11.071  14.213   4.307
42809SOL    HW130324  11.014  14.232   4.233
42809SOL    HW230325  11.126  14.140   4.276
42810SOL     OW30326  13.475   6.377  12.808
42810SOL    HW130327  13.528   6.331  12.873
42810SOL    HW230328  13.393   6.328  12.805
42811SOL     OW30329  12.907   3.560   3.285
42811SOL    HW130330  12.989   3.585   3.329
42811SOL    HW230331  12.840   3.614   3.327
42812SOL     OW30332   3.363  10.047   8.403
42812SOL    HW130333   3.424  10.039   8.476
42812SOL    HW230334   3.396   9.985   8.337
42813SOL     OW30335   5.118   4.304   0.821
42813SOL    HW130336   5.091   4.226   0.773
42813SOL    HW230337   5.105   4.376   0.758
42814SOL     OW30338  12.506  10.359  13.386
42814SOL    HW130339  12.472  10.449  13.381
42814SOL    HW230340  12.557  10.358  13.468
42815SOL     OW30341   8.254   4.008   7.346
42815SOL    HW130342   8.275   4.098   7.321
42815SOL    HW230343   8.339   3.965   7.354
42816SOL     OW30344  14.223   4.852   7.277
42816SOL    HW130345  14.313   4.822   7.287
42816SOL    HW230346  14.202   4.892   7.361
42817SOL     OW30347   9.559  12.776   1.691
42817SOL    HW130348   9.597  12.860   1.663
42817SOL    HW230349   9.583  12.769   1.783
42818SOL     OW30350   7.731   7.760  10.322
42818SOL    HW130351   7.790   7.685  10.329
42818SOL    HW230352   7.730   7.781  10.229
42819SOL     OW30353   8.053  11.795   7.181
42819SOL    HW130354   8.115  11.726   7.204
42819SOL    HW230355   7.973  11.771   7.229
42820SOL     OW30356   2.886   0.426  11.474
42820SOL    HW130357   2.803   0.462  11.445
42820SOL    HW230358   2.878   0.331  11.459
42821SOL     OW30359   9.256  11.513   5.466
42821SOL    HW130360   9.320  11.455   5.507
42821SOL    HW230361   9.277  11.600   5.501
42822SOL     OW30362  13.513   7.785   4.547
42822SOL    HW130363  13.419   7.792   4.532
42822SOL    HW230364  13.522   7.776   4.642
42823SOL     OW30365   8.475  14.294  13.524
42823SOL    HW130366   8.399  14.341  13.491
42823SOL    HW230367   8.441  14.240  13.595
42824SOL     OW30368   5.426   3.405  13.117
42824SOL    HW130369   5.518   3.405  13.142
42824SOL    HW230370   5.425   3.373  13.027
42825SOL     OW30371   4.250  12.888   2.029
42825SOL    HW130372   4.244  12.968   1.976
42825SOL    HW230373   4.337  12.892   2.069
42826SOL     OW30374   0.039  11.152   7.898
42826SOL    HW130375  14.867  11.117   7.825
42826SOL    HW230376   0.125  11.171   7.860
42827SOL     OW30377  13.026   4.957   6.051
42827SOL    HW130378  13.074   4.951   5.968
42827SOL    HW230379  13.093   4.974   6.117
42828SOL     OW30380   7.245   8.526  13.125
42828SOL    HW130381   7.196   8.599  13.161
42828SOL    HW230382   7.303   8.499  13.196
42829SOL     OW30383   6.436  11.480   4.118
42829SOL    HW130384   6.405  11.546   4.180
42829SOL    HW230385   6.356  11.450   4.074
42830SOL     OW30386   8.687   8.512   9.070
42830SOL    HW130387   8.733   8.432   9.046
42830SOL    HW230388   8.721   8.536   9.156
42831SOL     OW30389   3.913   9.010   1.430
42831SOL    HW130390   3.913   8.939   1.493
42831SOL    HW230391   3.836   9.062   1.452
42832SOL     OW30392   9.751   2.334   4.704
42832SOL    HW130393   9.695   2.379   4.640
42832SOL    HW230394   9.691   2.312   4.776
42833SOL     OW30395  12.500   2.155   8.078
42833SOL    HW130396  12.567   2.221   8.060
42833SOL    HW230397  12.420   2.189   8.038
42834SOL     OW30398   8.419   9.980  12.566
42834SOL    HW130399   8.420   9.886  12.548
42834SOL    HW230400   8.326  10.000  12.581
42835SOL     OW30401   6.695   7.992   0.308
42835SOL    HW130402   6.713   7.913   0.257
42835SOL    HW230403   6.652   7.960   0.387
42836SOL     OW30404  14.630   2.391   0.495
42836SOL    HW130405  14.692   2.319   0.509
42836SOL    HW230406  14.654   2.428   0.410
42837SOL     OW30407   9.782  11.438  12.272
42837SOL    HW130408   9.699  11.411  12.310
42837SOL    HW230409   9.770  11.428  12.178
42838SOL     OW30410   6.698  13.768   4.657
42838SOL    HW130411   6.699  13.797   4.748
42838SOL    HW230412   6.656  13.682   4.659
42839SOL     OW30413   3.094   6.065   7.034
42839SOL    HW130414   3.083   5.983   6.985
42839SOL    HW230415   3.188   6.071   7.050
42840SOL     OW30416  13.403   8.521  12.010
42840SOL    HW130417  13.486   8.565  12.029
42840SOL    HW230418  13.395   8.524  11.915
42841SOL     OW30419   0.147  11.269   7.104
42841SOL    HW130420   0.096  11.257   7.184
42841SOL    HW230421   0.229  11.223   7.120
42842SOL     OW30422   1.670   6.513   6.411
42842SOL    HW130423   1.644   6.430   6.452
42842SOL    HW230424   1.667   6.577   6.483
42843SOL     OW30425  11.602   1.448  12.373
42843SOL    HW130426  11.553   1.506  12.432
42843SOL    HW230427  11.693   1.457  12.401
42844SOL     OW30428   5.910   2.352  11.788
42844SOL    HW130429   5.860   2.286  11.740
42844SOL    HW230430   5.867   2.435  11.765
42845SOL     OW30431   6.867   5.596  10.170
42845SOL    HW130432   6.859   5.526  10.106
42845SOL    HW230433   6.943   5.572  10.223
42846SOL     OW30434  12.768   2.175   9.186
42846SOL    HW130435  12.817   2.176   9.268
42846SOL    HW230436  12.727   2.088   9.184
42847SOL     OW30437   0.877   8.013   3.009
42847SOL    HW130438   0.915   8.022   3.096
42847SOL    HW230439   0.948   7.979   2.955
42848SOL     OW30440   3.146  12.345   4.429
42848SOL    HW130441   3.159  12.341   4.523
42848SOL    HW230442   3.179  12.261   4.396
42849SOL     OW30443  13.383   8.030  13.895
42849SOL    HW130444  13.340   7.950  13.926
42849SOL    HW230445  13.448   7.999  13.831
42850SOL     OW30446   1.746  13.111   7.960
42850SOL    HW130447   1.810  13.170   7.998
42850SOL    HW230448   1.778  13.094   7.872
42851SOL     OW30449   2.303   0.300  12.848
42851SOL    HW130450   2.377   0.241  12.864
42851SOL    HW230451   2.226   0.244  12.856
42852SOL     OW30452  14.083   5.341   1.872
42852SOL    HW130453  14.102   5.271   1.934
42852SOL    HW230454  14.018   5.396   1.916
42853SOL     OW30455  13.844  14.017   9.020
42853SOL    HW130456  13.760  14.037   8.977
42853SOL    HW230457  13.909  14.066   8.968
42854SOL     OW30458   4.018   9.437   4.145
42854SOL    HW130459   4.033   9.455   4.052
42854SOL    HW230460   3.923   9.445   4.154
42855SOL     OW30461   9.269  12.431  14.116
42855SOL    HW130462   9.197  12.448  14.176
42855SOL    HW230463   9.227  12.398  14.036
42856SOL     OW30464   4.226   7.637   5.081
42856SOL    HW130465   4.164   7.678   5.021
42856SOL    HW230466   4.261   7.562   5.032
42857SOL     OW30467   3.770  13.406   9.859
42857SOL    HW130468   3.729  13.365   9.935
42857SOL    HW230469   3.697  13.438   9.806
42858SOL     OW30470   7.947   4.591   6.588
42858SOL    HW130471   7.982   4.669   6.543
42858SOL    HW230472   8.000   4.584   6.667
42859SOL     OW30473   7.798   4.792   4.677
42859SOL    HW130474   7.781   4.707   4.716
42859SOL    HW230475   7.750   4.854   4.732
42860SOL     OW30476   3.498   2.275   9.152
42860SOL    HW130477   3.469   2.197   9.104
42860SOL    HW230478   3.546   2.326   9.087
42861SOL     OW30479   3.699  13.490   4.971
42861SOL    HW130480   3.711  13.572   5.019
42861SOL    HW230481   3.642  13.513   4.897
42862SOL     OW30482   7.656   7.191  12.579
42862SOL    HW130483   7.660   7.111  12.631
42862SOL    HW230484   7.585   7.242  12.617
42863SOL     OW30485   4.947   4.084   7.884
42863SOL    HW130486   4.963   3.990   7.892
42863SOL    HW230487   4.909   4.109   7.969
42864SOL     OW30488   3.155   9.783  10.280
42864SOL    HW130489   3.117   9.806  10.195
42864SOL    HW230490   3.247   9.809  10.273
42865SOL     OW30491   2.097   2.207   2.405
42865SOL    HW130492   2.095   2.245   2.318
42865SOL    HW230493   2.027   2.250   2.453
42866SOL     OW30494  13.922   4.535   0.906
42866SOL    HW130495  14.010   4.531   0.942
42866SOL    HW230496  13.870   4.579   0.974
42867SOL     OW30497   9.475   4.757   1.166
42867SOL    HW130498   9.515   4.702   1.100
42867SOL    HW230499   9.384   4.728   1.170
42868SOL     OW30500  13.583  14.216   4.856
42868SOL    HW130501  13.549  14.305   4.849
42868SOL    HW230502  13.585  14.199   4.951
42869SOL     OW30503  12.659   0.978  12.048
42869SOL    HW130504  12.604   0.987  11.970
42869SOL    HW230505  12.712   0.900  12.031
42870SOL     OW30506   9.028   4.910  13.361
42870SOL    HW130507   8.962   4.841  13.362
42870SOL    HW230508   9.058   4.915  13.452
42871SOL     OW30509   8.488   9.883  12.277
42871SOL    HW130510   8.444   9.798  12.290
42871SOL    HW230511   8.536   9.872  12.195
42872SOL     OW30512   4.286  13.299   6.870
42872SOL    HW130513   4.320  13.283   6.782
42872SOL    HW230514   4.229  13.375   6.860
42873SOL     OW30515   0.591   6.651  11.094
42873SOL    HW130516   0.555   6.739  11.080
42873SOL    HW230517   0.514   6.596  11.111
42874SOL     OW30518   7.093   5.062   6.256
42874SOL    HW130519   7.118   4.970   6.259
42874SOL    HW230520   7.117   5.090   6.168
42875SOL     OW30521   9.312   9.660  13.737
42875SOL    HW130522   9.310   9.622  13.825
42875SOL    HW230523   9.403   9.648  13.708
42876SOL     OW30524   2.821   1.043  13.893
42876SOL    HW130525   2.911   1.069  13.909
42876SOL    HW230526   2.824   0.947  13.889
42877SOL     OW30527   4.533  12.090   8.546
42877SOL    HW130528   4.478  12.017   8.519
42877SOL    HW230529   4.612  12.050   8.581
42878SOL     OW30530   1.117   9.595   5.628
42878SOL    HW130531   1.112   9.668   5.690
42878SOL    HW230532   1.210   9.591   5.603
42879SOL     OW30533   8.700   6.818   6.380
42879SOL    HW130534   8.696   6.880   6.307
42879SOL    HW230535   8.696   6.873   6.458
42880SOL     OW30536  10.201   8.121   4.107
42880SOL    HW130537  10.162   8.034   4.116
42880SOL    HW230538  10.272   8.122   4.171
42881SOL     OW30539  11.903  13.627  13.779
42881SOL    HW130540  11.976  13.675  13.738
42881SOL    HW230541  11.833  13.692  13.786
42882SOL     OW30542   6.411   3.699   8.874
42882SOL    HW130543   6.466   3.685   8.952
42882SOL    HW230544   6.396   3.794   8.872
42883SOL     OW30545  13.002   1.138  14.800
42883SOL    HW130546  13.045   1.222  14.786
42883SOL    HW230547  12.990   1.132   0.015
42884SOL     OW30548   5.567   2.324   3.109
42884SOL    HW130549   5.515   2.244   3.107
42884SOL    HW230550   5.548   2.367   3.026
42885SOL     OW30551   8.257   0.792   9.164
42885SOL    HW130552   8.203   0.860   9.204
42885SOL    HW230553   8.317   0.839   9.107
42886SOL     OW30554   7.161   9.893   4.294
42886SOL    HW130555   7.164   9.839   4.373
42886SOL    HW230556   7.246   9.937   4.292
42887SOL     OW30557   3.892  10.065  11.092
42887SOL    HW130558   3.899  10.059  11.187
42887SOL    HW230559   3.982  10.071  11.061
42888SOL     OW30560   1.492  10.546   9.664
42888SOL    HW130561   1.560  10.557   9.597
42888SOL    HW230562   1.506  10.617   9.725
42889SOL     OW30563   1.780   4.292  13.514
42889SOL    HW130564   1.710   4.328  13.461
42889SOL    HW230565   1.861   4.321  13.470
42890SOL     OW30566   6.073   0.824  11.024
42890SOL    HW130567   6.031   0.900  11.064
42890SOL    HW230568   6.039   0.822  10.935
42891SOL     OW30569   5.195  13.285   3.632
42891SOL    HW130570   5.200  13.373   3.593
42891SOL    HW230571   5.109  13.282   3.673
42892SOL     OW30572   2.235   5.336   6.211
42892SOL    HW130573   2.222   5.328   6.306
42892SOL    HW230574   2.264   5.249   6.183
42893SOL     OW30575  13.946   6.449   7.011
42893SOL    HW130576  13.928   6.370   7.062
42893SOL    HW230577  14.003   6.419   6.940
42894SOL     OW30578   2.370  12.999  12.851
42894SOL    HW130579   2.319  12.923  12.821
42894SOL    HW230580   2.402  12.974  12.938
42895SOL     OW30581   3.417  12.066   5.297
42895SOL    HW130582   3.476  12.067   5.221
42895SOL    HW230583   3.411  11.973   5.321
42896SOL     OW30584  11.140   6.052   6.861
42896SOL    HW130585  11.211   6.011   6.910
42896SOL    HW230586  11.165   6.145   6.856
42897SOL     OW30587   4.196  11.817   7.609
42897SOL    HW130588   4.188  11.908   7.580
42897SOL    HW230589   4.108  11.793   7.637
42898SOL     OW30590  11.854  12.772  10.232
42898SOL    HW130591  11.829  12.862  10.252
42898SOL    HW230592  11.792  12.745  10.164
42899SOL     OW30593   9.373  10.091   4.887
42899SOL    HW130594   9.392  10.044   4.806
42899SOL    HW230595   9.459  10.100   4.929
42900SOL     OW30596   1.984   4.736  10.333
42900SOL    HW130597   2.052   4.797  10.361
42900SOL    HW230598   1.913   4.750  10.395
42901SOL     OW30599  11.773  11.673  11.076
42901SOL    HW130600  11.802  11.597  11.025
42901SOL    HW230601  11.801  11.653  11.165
42902SOL     OW30602  11.097  14.523   4.792
42902SOL    HW130603  11.167  14.468   4.757
42902SOL    HW230604  11.075  14.483   4.876
42903SOL     OW30605   6.853   8.525   4.018
42903SOL    HW130606   6.821   8.477   4.094
42903SOL    HW230607   6.776   8.536   3.962
42904SOL     OW30608  10.045   7.264   0.524
42904SOL    HW130609   9.997   7.264   0.441
42904SOL    HW230610  10.028   7.178   0.561
42905SOL     OW30611   6.176   5.269   8.748
42905SOL    HW130612   6.224   5.343   8.710
42905SOL    HW230613   6.233   5.193   8.733
42906SOL     OW30614   5.229   4.430   4.912
42906SOL    HW130615   5.206   4.338   4.919
42906SOL    HW230616   5.145   4.476   4.915
42907SOL     OW30617   5.998  13.517   3.496
42907SOL    HW130618   6.059  13.474   3.436
42907SOL    HW230619   5.964  13.446   3.551
42908SOL     OW30620   4.251  10.209  13.368
42908SOL    HW130621   4.308  10.256  13.429
42908SOL    HW230622   4.304  10.136  13.337
42909SOL     OW30623   9.512  12.668  13.162
42909SOL    HW130624   9.593  12.715  13.181
42909SOL    HW230625   9.474  12.649  13.248
42910SOL     OW30626   9.386   3.325   2.819
42910SOL    HW130627   9.388   3.262   2.892
42910SOL    HW230628   9.318   3.387   2.843
42911SOL     OW30629   6.242   6.943   5.138
42911SOL    HW130630   6.150   6.957   5.116
42911SOL    HW230631   6.274   7.030   5.163
42912SOL     OW30632   5.968   5.279   7.054
42912SOL    HW130633   5.923   5.362   7.038
42912SOL    HW230634   6.058   5.304   7.076
42913SOL     OW30635   7.369   4.501  14.179
42913SOL    HW130636   7.328   4.514  14.094
42913SOL    HW230637   7.319   4.431  14.220
42914SOL     OW30638   4.633   9.741   6.494
42914SOL    HW130639   4.688   9.738   6.573
42914SOL    HW230640   4.549   9.774   6.524
42915SOL     OW30641   2.228   8.180   5.464
42915SOL    HW130642   2.213   8.110   5.527
42915SOL    HW230643   2.261   8.135   5.386
42916SOL     OW30644   2.816  12.390   3.779
42916SOL    HW130645   2.810  12.419   3.688
42916SOL    HW230646   2.820  12.472   3.830
42917SOL     OW30647   8.236   0.477   2.725
42917SOL    HW130648   8.330   0.468   2.741
42917SOL    HW230649   8.230   0.514   2.637
42918SOL     OW30650   1.821   0.781   5.342
42918SOL    HW130651   1.841   0.767   5.435
42918SOL    HW230652   1.788   0.871   5.338
42919SOL     OW30653   0.860   0.310   7.295
42919SOL    HW130654   0.876   0.280   7.384
42919SOL    HW230655   0.908   0.393   7.288
42920SOL     OW30656   9.750  14.831   6.386
42920SOL    HW130657   9.833  14.853   6.345
42920SOL    HW230658   9.750  14.735   6.390
42921SOL     OW30659  10.818   2.670   5.547
42921SOL    HW130660  10.804   2.584   5.508
42921SOL    HW230661  10.908   2.693   5.522
42922SOL     OW30662   7.836   7.147   4.462
42922SOL    HW130663   7.759   7.091   4.474
42922SOL    HW230664   7.847   7.154   4.368
42923SOL     OW30665   5.567   5.835   0.339
42923SOL    HW130666   5.574   5.794   0.253
42923SOL    HW230667   5.626   5.910   0.335
42924SOL     OW30668   4.620   3.304   5.913
42924SOL    HW130669   4.526   3.292   5.925
42924SOL    HW230670   4.629   3.393   5.878
42925SOL     OW30671   7.659   1.184   7.424
42925SOL    HW130672   7.670   1.279   7.428
42925SOL    HW230673   7.665   1.162   7.331
42926SOL     OW30674   4.405   4.389  10.335
42926SOL    HW130675   4.455   4.420  10.259
42926SOL    HW230676   4.391   4.467  10.388
42927SOL     OW30677   3.999   7.761  13.469
42927SOL    HW130678   4.040   7.755  13.383
42927SOL    HW230679   3.905   7.753  13.452
42928SOL     OW30680  14.804   0.226   1.284
42928SOL    HW130681  14.857   0.259   1.357
42928SOL    HW230682  14.839   0.139   1.266
42929SOL     OW30683   9.924   9.398   3.636
42929SOL    HW130684   9.977   9.319   3.628
42929SOL    HW230685   9.867   9.397   3.559
42930SOL     OW30686   4.548   7.708   7.984
42930SOL    HW130687   4.454   7.725   7.983
42930SOL    HW230688   4.556   7.616   7.959
42931SOL     OW30689   3.022   2.198   0.028
42931SOL    HW130690   3.073   2.118   0.012
42931SOL    HW230691   2.953   2.196  14.841
42932SOL     OW30692  10.406  11.815  12.064
42932SOL    HW130693  10.324  11.765  12.069
42932SOL    HW230694  10.420  11.847  12.152
42933SOL     OW30695   7.862   5.504   0.788
42933SOL    HW130696   7.786   5.538   0.837
42933SOL    HW230697   7.825   5.473   0.705
42934SOL     OW30698   2.051   6.048   5.311
42934SOL    HW130699   2.105   5.977   5.345
42934SOL    HW230700   1.962   6.015   5.313
42935SOL     OW30701   7.600  13.330  13.593
42935SOL    HW130702   7.520  13.311  13.642
42935SOL    HW230703   7.602  13.264  13.524
42936SOL     OW30704  14.563  13.040  10.842
42936SOL    HW130705  14.567  13.096  10.919
42936SOL    HW230706  14.619  13.083  10.777
42937SOL     OW30707  13.708   3.366   4.157
42937SOL    HW130708  13.648   3.334   4.090
42937SOL    HW230709  13.795   3.350   4.121
42938SOL     OW30710  12.994  13.922   8.957
42938SOL    HW130711  12.978  13.875   9.039
42938SOL    HW230712  12.924  13.987   8.952
42939SOL     OW30713  13.517   4.642   1.398
42939SOL    HW130714  13.529   4.596   1.481
42939SOL    HW230715  13.540   4.578   1.331
42940SOL     OW30716   2.481   3.166  10.212
42940SOL    HW130717   2.392   3.199  10.212
42940SOL    HW230718   2.491   3.123  10.127
42941SOL     OW30719  11.540   2.475   9.069
42941SOL    HW130720  11.506   2.387   9.080
42941SOL    HW230721  11.477   2.518   9.011
42942SOL     OW30722  10.299  12.610   1.110
42942SOL    HW130723  10.344  12.576   1.033
42942SOL    HW230724  10.370  12.642   1.167
42943SOL     OW30725   0.738   9.577  12.126
42943SOL    HW130726   0.798   9.503  12.117
42943SOL    HW230727   0.665   9.555  12.068
42944SOL     OW30728   4.801  14.032   9.461
42944SOL    HW130729   4.812  14.054   9.369
42944SOL    HW230730   4.858  13.956   9.475
42945SOL     OW30731   4.081   4.503   9.448
42945SOL    HW130732   4.151   4.444   9.419
42945SOL    HW230733   4.053   4.548   9.369
42946SOL     OW30734   0.243   2.713  10.296
42946SOL    HW130735   0.164   2.766  10.304
42946SOL    HW230736   0.280   2.738  10.211
42947SOL     OW30737   4.741   8.660  13.728
42947SOL    HW130738   4.819   8.714  13.737
42947SOL    HW230739   4.677   8.716  13.685
42948SOL     OW30740   7.737  14.852   7.437
42948SOL    HW130741   7.704  14.772   7.478
42948SOL    HW230742   7.818  14.825   7.393
42949SOL     OW30743  11.631   8.115  10.201
42949SOL    HW130744  11.704   8.129  10.261
42949SOL    HW230745  11.553   8.133  10.253
42950SOL     OW30746   8.800   6.199   8.094
42950SOL    HW130747   8.895   6.201   8.081
42950SOL    HW230748   8.769   6.281   8.057
42951SOL     OW30749  14.279  11.129   4.429
42951SOL    HW130750  14.283  11.094   4.519
42951SOL    HW230751  14.305  11.221   4.438
42952SOL     OW30752  10.336   1.089   6.983
42952SOL    HW130753  10.396   1.021   6.950
42952SOL    HW230754  10.358   1.098   7.075
42953SOL     OW30755  13.889   7.655  11.729
42953SOL    HW130756  13.837   7.704  11.666
42953SOL    HW230757  13.864   7.564  11.716
42954SOL     OW30758   4.870   6.898  10.507
42954SOL    HW130759   4.879   6.906  10.412
42954SOL    HW230760   4.780   6.924  10.525
42955SOL     OW30761  11.753  11.684   9.304
42955SOL    HW130762  11.839  11.661   9.339
42955SOL    HW230763  11.741  11.775   9.328
42956SOL     OW30764   5.108   2.438  11.570
42956SOL    HW130765   5.146   2.350  11.566
42956SOL    HW230766   5.126   2.468  11.659
42957SOL     OW30767   8.717   9.119   0.475
42957SOL    HW130768   8.758   9.107   0.389
42957SOL    HW230769   8.675   9.205   0.468
42958SOL     OW30770  14.863   6.922  11.954
42958SOL    HW130771   0.008   6.938  12.045
42958SOL    HW230772   0.054   6.868  11.919
42959SOL     OW30773  12.467   0.409   5.131
42959SOL    HW130774  12.405   0.462   5.181
42959SOL    HW230775  12.529   0.376   5.197
42960SOL     OW30776   0.046   0.601  14.463
42960SOL    HW130777   0.051   0.586  14.369
42960SOL    HW230778  14.878   0.684  14.471
42961SOL     OW30779   9.318  13.240  13.116
42961SOL    HW130780   9.304  13.217  13.208
42961SOL    HW230781   9.289  13.331  13.110
42962SOL     OW30782  12.028   4.097   9.817
42962SOL    HW130783  11.978   4.140   9.746
42962SOL    HW230784  11.960   4.056   9.871
42963SOL     OW30785   7.106   9.399  12.497
42963SOL    HW130786   7.042   9.467  12.481
42963SOL    HW230787   7.131   9.367  12.410
42964SOL     OW30788   9.860  13.000   5.465
42964SOL    HW130789   9.955  13.000   5.455
42964SOL    HW230790   9.835  12.908   5.463
42965SOL     OW30791  13.092   2.273   6.920
42965SOL    HW130792  13.088   2.220   6.841
42965SOL    HW230793  13.173   2.322   6.912
42966SOL     OW30794  11.875   1.415  14.021
42966SOL    HW130795  11.961   1.383  14.048
42966SOL    HW230796  11.835   1.447  14.102
42967SOL     OW30797   9.434  10.363  10.664
42967SOL    HW130798   9.512  10.374  10.719
42967SOL    HW230799   9.467  10.371  10.574
42968SOL     OW30800   0.496  11.874   1.314
42968SOL    HW130801   0.417  11.894   1.265
42968SOL    HW230802   0.512  11.781   1.295
42969SOL     OW30803   0.231   2.064  13.225
42969SOL    HW130804   0.164   2.060  13.292
42969SOL    HW230805   0.308   2.023  13.264
42970SOL     OW30806  12.706  14.279  12.157
42970SOL    HW130807  12.707  14.184  12.146
42970SOL    HW230808  12.615  14.304  12.143
42971SOL     OW30809   1.626  11.055   7.689
42971SOL    HW130810   1.701  11.114   7.677
42971SOL    HW230811   1.593  11.076   7.777
42972SOL     OW30812   3.627   7.141   3.040
42972SOL    HW130813   3.559   7.108   3.099
42972SOL    HW230814   3.580   7.199   2.980
42973SOL     OW30815  13.755  13.456   8.004
42973SOL    HW130816  13.704  13.393   7.953
42973SOL    HW230817  13.710  13.540   7.990
42974SOL     OW30818  10.670   9.617   9.625
42974SOL    HW130819  10.595   9.655   9.671
42974SOL    HW230820  10.687   9.534   9.670
42975SOL     OW30821   7.742   4.743   9.763
42975SOL    HW130822   7.711   4.830   9.787
42975SOL    HW230823   7.827   4.758   9.722
42976SOL     OW30824   9.522   5.527   5.902
42976SOL    HW130825   9.545   5.531   5.809
42976SOL    HW230826   9.569   5.450   5.935
42977SOL     OW30827  10.642   6.264   4.148
42977SOL    HW130828  10.593   6.332   4.194
42977SOL    HW230829  10.575   6.203   4.118
42978SOL     OW30830  13.414   5.200   6.817
42978SOL    HW130831  13.359   5.126   6.843
42978SOL    HW230832  13.419   5.194   6.722
42979SOL     OW30833   6.063   4.622   2.605
42979SOL    HW130834   6.072   4.716   2.621
42979SOL    HW230835   5.969   4.607   2.604
42980SOL     OW30836   1.587  12.359   0.249
42980SOL    HW130837   1.509  12.311   0.274
42980SOL    HW230838   1.628  12.305   0.181
42981SOL     OW30839   8.534   2.606  13.471
42981SOL    HW130840   8.505   2.632  13.558
42981SOL    HW230841   8.627   2.627  13.469
42982SOL     OW30842   7.152  14.527  12.018
42982SOL    HW130843   7.132  14.619  12.034
42982SOL    HW230844   7.077  14.494  11.969
42983SOL     OW30845   5.852   8.827  10.010
42983SOL    HW130846   5.799   8.778  10.073
42983SOL    HW230847   5.835   8.784   9.926
42984SOL     OW30848  13.705   8.791   1.220
42984SOL    HW130849  13.784   8.738   1.232
42984SOL    HW230850  13.636   8.726   1.207
42985SOL     OW30851  11.964  13.245  13.736
42985SOL    HW130852  12.048  13.249  13.782
42985SOL    HW230853  11.980  13.293  13.654
42986SOL     OW30854   8.241  12.374   0.963
42986SOL    HW130855   8.227  12.282   0.983
42986SOL    HW230856   8.154  12.410   0.949
42987SOL     OW30857  13.359   8.633  14.730
42987SOL    HW130858  13.265   8.638  14.712
42987SOL    HW230859  13.385   8.723  14.750
42988SOL     OW30860  10.917   3.308   5.994
42988SOL    HW130861  10.976   3.331   6.066
42988SOL    HW230862  10.830   3.305   6.034
42989SOL     OW30863   8.321  12.014   8.042
42989SOL    HW130864   8.356  11.994   8.129
42989SOL    HW230865   8.234  12.050   8.060
42990SOL     OW30866   7.098   7.194   9.666
42990SOL    HW130867   7.153   7.115   9.670
42990SOL    HW230868   7.158   7.264   9.642
42991SOL     OW30869   9.619   9.698  12.534
42991SOL    HW130870   9.536   9.657  12.557
42991SOL    HW230871   9.616   9.784  12.575
42992SOL     OW30872  12.379   3.433  12.922
42992SOL    HW130873  12.360   3.388  13.004
42992SOL    HW230874  12.426   3.369  12.870
42993SOL     OW30875  10.354   1.055   5.403
42993SOL    HW130876  10.442   1.077   5.371
42993SOL    HW230877  10.362   1.061   5.498
42994SOL     OW30878  10.415   3.541   2.398
42994SOL    HW130879  10.333   3.496   2.418
42994SOL    HW230880  10.480   3.471   2.389
42995SOL     OW30881  12.712  10.521  12.398
42995SOL    HW130882  12.774  10.449  12.382
42995SOL    HW230883  12.639  10.502  12.340
42996SOL     OW30884   1.704  11.079  13.629
42996SOL    HW130885   1.703  11.148  13.696
42996SOL    HW230886   1.729  11.000  13.677
42997SOL     OW30887  12.624   8.026   2.323
42997SOL    HW130888  12.689   8.093   2.302
42997SOL    HW230889  12.576   8.013   2.241
42998SOL     OW30890   0.208   4.443  12.341
42998SOL    HW130891   0.270   4.462  12.412
42998SOL    HW230892   0.205   4.523  12.289
42999SOL     OW30893  13.255   1.474  14.601
42999SOL    HW130894  13.279   1.485  14.508
42999SOL    HW230895  13.308   1.540  14.647
43000SOL     OW30896   2.745   3.800   8.889
43000SOL    HW130897   2.823   3.752   8.863
43000SOL    HW230898   2.703   3.745   8.955
43001SOL     OW30899   1.103  11.030   6.993
43001SOL    HW130900   1.159  11.050   6.918
43001SOL    HW230901   1.163  10.994   7.058
43002SOL     OW30902   3.318  13.549   6.055
43002SOL    HW130903   3.281  13.564   6.142
43002SOL    HW230904   3.335  13.637   6.021
43003SOL     OW30905   5.447  10.808   2.647
43003SOL    HW130906   5.497  10.747   2.701
43003SOL    HW230907   5.375  10.756   2.611
43004SOL     OW30908   4.333   8.617  10.509
43004SOL    HW130909   4.330   8.683  10.579
43004SOL    HW230910   4.272   8.650  10.443
43005SOL     OW30911   2.638   6.344   3.483
43005SOL    HW130912   2.641   6.334   3.578
43005SOL    HW230913   2.683   6.266   3.450
43006SOL     OW30914  10.360   4.898   2.139
43006SOL    HW130915  10.360   4.945   2.223
43006SOL    HW230916  10.297   4.827   2.151
43007SOL     OW30917   1.574   5.331   9.391
43007SOL    HW130918   1.659   5.294   9.417
43007SOL    HW230919   1.583   5.425   9.407
43008SOL     OW30920  13.401  11.101  11.400
43008SOL    HW130921  13.345  11.091  11.477
43008SOL    HW230922  13.407  11.196  11.387
43009SOL     OW30923   9.728   1.884  12.703
43009SOL    HW130924   9.649   1.855  12.656
43009SOL    HW230925   9.744   1.815  12.767
43010SOL     OW30926  11.881   7.189  12.593
43010SOL    HW130927  11.928   7.198  12.510
43010SOL    HW230928  11.854   7.279  12.615
43011SOL     OW30929  11.181   9.957   0.371
43011SOL    HW130930  11.167   9.987   0.281
43011SOL    HW230931  11.271   9.924   0.371
43012SOL     OW30932   2.360   7.539   7.434
43012SOL    HW130933   2.314   7.505   7.511
43012SOL    HW230934   2.328   7.487   7.361
43013SOL     OW30935   5.766   6.076   8.080
43013SOL    HW130936   5.837   6.070   8.016
43013SOL    HW230937   5.803   6.124   8.153
43014SOL     OW30938   9.384  12.478   0.227
43014SOL    HW130939   9.305  12.519   0.191
43014SOL    HW230940   9.403  12.406   0.167
43015SOL     OW30941  11.733   6.158  13.999
43015SOL    HW130942  11.753   6.250  13.982
43015SOL    HW230943  11.645   6.159  14.037
43016SOL     OW30944   6.581   1.052   3.903
43016SOL    HW130945   6.585   1.140   3.865
43016SOL    HW230946   6.490   1.042   3.931
43017SOL     OW30947   7.413   2.321   0.741
43017SOL    HW130948   7.390   2.414   0.743
43017SOL    HW230949   7.418   2.296   0.833
43018SOL     OW30950   2.043   8.001   3.429
43018SOL    HW130951   1.986   8.071   3.462
43018SOL    HW230952   2.124   8.011   3.478
43019SOL     OW30953   2.420   6.496  13.702
43019SOL    HW130954   2.444   6.406  13.724
43019SOL    HW230955   2.486   6.550  13.746
43020SOL     OW30956   0.559   5.606  12.235
43020SOL    HW130957   0.546   5.545  12.162
43020SOL    HW230958   0.486   5.668  12.227
43021SOL     OW30959  12.697   2.240   1.610
43021SOL    HW130960  12.639   2.164   1.607
43021SOL    HW230961  12.640   2.313   1.633
43022SOL     OW30962   2.947   5.024  10.213
43022SOL    HW130963   2.893   4.980  10.278
43022SOL    HW230964   3.034   4.987  10.223
43023SOL     OW30965   0.914   7.735   7.169
43023SOL    HW130966   0.885   7.780   7.249
43023SOL    HW230967   0.931   7.645   7.197
43024SOL     OW30968   1.040   4.623   7.643
43024SOL    HW130969   1.131   4.645   7.624
43024SOL    HW230970   1.026   4.654   7.733
43025SOL     OW30971   7.287   2.532   0.508
43025SOL    HW130972   7.238   2.462   0.550
43025SOL    HW230973   7.231   2.609   0.518
43026SOL     OW30974   5.088  13.593  14.521
43026SOL    HW130975   5.068  13.665  14.580
43026SOL    HW230976   5.131  13.636  14.446
43027SOL     OW30977  10.872   2.304  11.161
43027SOL    HW130978  10.899   2.281  11.072
43027SOL    HW230979  10.790   2.257  11.174
43028SOL     OW30980   8.937  11.616   1.167
43028SOL    HW130981   8.856  11.568   1.147
43028SOL    HW230982   8.988  11.555   1.222
43029SOL     OW30983   8.499  14.279   8.013
43029SOL    HW130984   8.518  14.373   8.024
43029SOL    HW230985   8.439  14.258   8.085
43030SOL     OW30986  14.436   4.439  14.759
43030SOL    HW130987  14.375   4.467  14.691
43030SOL    HW230988  14.383   4.435  14.838
43031SOL     OW30989   9.178   8.289   4.474
43031SOL    HW130990   9.237   8.261   4.544
43031SOL    HW230991   9.176   8.215   4.413
43032SOL     OW30992   4.571  10.483   1.448
43032SOL    HW130993   4.608  10.426   1.515
43032SOL    HW230994   4.556  10.567   1.493
43033SOL     OW30995  12.905   3.449   3.919
43033SOL    HW130996  12.914   3.520   3.983
43033SOL    HW230997  12.925   3.490   3.835
43034SOL     OW30998   4.060  13.411   7.113
43034SOL    HW130999   4.002  13.434   7.186
43034SOL    HW231000   4.091  13.496   7.080
43035SOL     OW31001  11.863   1.544   2.720
43035SOL    HW131002  11.841   1.634   2.742
43035SOL    HW231003  11.958   1.538   2.735
43036SOL     OW31004   9.556  11.901   8.455
43036SOL    HW131005   9.541  11.969   8.389
43036SOL    HW231006   9.651  11.902   8.469
43037SOL     OW31007   0.511   6.888   5.069
43037SOL    HW131008   0.572   6.954   5.103
43037SOL    HW231009   0.440   6.939   5.031
43038SOL     OW31010  11.867   5.446   8.494
43038SOL    HW131011  11.817   5.380   8.542
43038SOL    HW231012  11.936   5.473   8.554
43039SOL     OW31013   2.997   4.175   0.324
43039SOL    HW131014   2.930   4.114   0.294
43039SOL    HW231015   3.028   4.218   0.244
43040SOL     OW31016  14.032   7.613   0.410
43040SOL    HW131017  14.028   7.662   0.492
43040SOL    HW231018  13.963   7.547   0.418
43041SOL     OW31019   0.400  13.487  10.634
43041SOL    HW131020   0.375  13.574  10.604
43041SOL    HW231021   0.363  13.427  10.569
43042SOL     OW31022  13.216  12.162  11.709
43042SOL    HW131023  13.251  12.248  11.687
43042SOL    HW231024  13.233  12.152  11.803
43043SOL     OW31025  13.799   1.195  10.399
43043SOL    HW131026  13.714   1.194  10.442
43043SOL    HW231027  13.839   1.111  10.424
43044SOL     OW31028  14.427  14.696   8.903
43044SOL    HW131029  14.420  14.620   8.846
43044SOL    HW231030  14.373  14.763   8.860
43045SOL     OW31031   9.314  13.376   5.710
43045SOL    HW131032   9.360  13.294   5.728
43045SOL    HW231033   9.384  13.439   5.693
43046SOL     OW31034   5.981   4.197   2.872
43046SOL    HW131035   5.889   4.220   2.878
43046SOL    HW231036   6.025   4.279   2.848
43047SOL     OW31037   3.653   2.229  13.291
43047SOL    HW131038   3.562   2.202  13.277
43047SOL    HW231039   3.703   2.149  13.279
43048SOL     OW31040   7.746  10.279   7.385
43048SOL    HW131041   7.709  10.252   7.301
43048SOL    HW231042   7.714  10.215   7.448
43049SOL     OW31043   4.649   3.785  12.027
43049SOL    HW131044   4.654   3.694  12.057
43049SOL    HW231045   4.736   3.803  11.992
43050SOL     OW31046  10.214  10.038  12.778
43050SOL    HW131047  10.158  10.092  12.835
43050SOL    HW231048  10.267   9.987  12.840
43051SOL     OW31049   7.781  12.216  10.702
43051SOL    HW131050   7.755  12.244  10.790
43051SOL    HW231051   7.859  12.163  10.715
43052SOL     OW31052  12.281  12.824   9.170
43052SOL    HW131053  12.235  12.799   9.090
43052SOL    HW231054  12.329  12.745   9.195
43053SOL     OW31055   5.908  13.142  10.604
43053SOL    HW131056   5.907  13.217  10.663
43053SOL    HW231057   5.990  13.098  10.623
43054SOL     OW31058   7.436  11.518  10.877
43054SOL    HW131059   7.349  11.534  10.914
43054SOL    HW231060   7.485  11.475  10.948
43055SOL     OW31061  13.984   3.832   8.776
43055SOL    HW131062  13.966   3.770   8.847
43055SOL    HW231063  14.046   3.894   8.813
43056SOL     OW31064   4.325   3.078   2.932
43056SOL    HW131065   4.266   3.153   2.918
43056SOL    HW231066   4.364   3.094   3.018
43057SOL     OW31067  13.225   3.108  14.576
43057SOL    HW131068  13.135   3.138  14.590
43057SOL    HW231069  13.252   3.072  14.661
43058SOL     OW31070   0.701   6.469   5.264
43058SOL    HW131071   0.687   6.382   5.301
43058SOL    HW231072   0.613   6.506   5.259
43059SOL     OW31073   0.047   4.410   7.348
43059SOL    HW131074   0.044   4.492   7.299
43059SOL    HW231075   0.027   4.343   7.283
43060SOL     OW31076  11.931  11.508   0.391
43060SOL    HW131077  11.959  11.418   0.411
43060SOL    HW231078  11.880  11.499   0.311
43061SOL     OW31079   0.791  10.857   4.661
43061SOL    HW131080   0.706  10.855   4.706
43061SOL    HW231081   0.843  10.791   4.707
43062SOL     OW31082  11.514   4.623   2.334
43062SOL    HW131083  11.514   4.613   2.239
43062SOL    HW231084  11.595   4.581   2.362
43063SOL     OW31085   3.818   7.296  11.554
43063SOL    HW131086   3.912   7.308  11.566
43063SOL    HW231087   3.811   7.237  11.479
43064SOL     OW31088   7.770  11.862   7.217
43064SOL    HW131089   7.771  11.848   7.122
43064SOL    HW231090   7.793  11.955   7.227
43065SOL     OW31091   6.703   8.863   1.482
43065SOL    HW131092   6.745   8.879   1.567
43065SOL    HW231093   6.711   8.945   1.435
43066SOL     OW31094   3.384   6.342   0.703
43066SOL    HW131095   3.404   6.377   0.616
43066SOL    HW231096   3.346   6.256   0.686
43067SOL     OW31097   5.066   6.544   5.583
43067SOL    HW131098   5.143   6.532   5.528
43067SOL    HW231099   4.992   6.525   5.525
43068SOL     OW31100  13.172   1.107  10.898
43068SOL    HW131101  13.200   1.062  10.819
43068SOL    HW231102  13.175   1.200  10.874
43069SOL     OW31103  10.822   3.210   4.889
43069SOL    HW131104  10.859   3.200   4.801
43069SOL    HW231105  10.822   3.122   4.926
43070SOL     OW31106  14.296   2.598   8.466
43070SOL    HW131107  14.373   2.653   8.452
43070SOL    HW231108  14.253   2.636   8.542
43071SOL     OW31109   4.840   7.331   3.766
43071SOL    HW131110   4.758   7.381   3.773
43071SOL    HW231111   4.909   7.398   3.764
43072SOL     OW31112  11.853   8.308  12.541
43072SOL    HW131113  11.790   8.373  12.511
43072SOL    HW231114  11.917   8.302  12.471
43073SOL     OW31115   5.258   0.370   2.551
43073SOL    HW131116   5.324   0.301   2.540
43073SOL    HW231117   5.308   0.451   2.556
43074SOL     OW31118   4.918  13.481  10.481
43074SOL    HW131119   4.875  13.490  10.396
43074SOL    HW231120   4.858  13.427  10.532
43075SOL     OW31121   7.857   1.390  12.336
43075SOL    HW131122   7.802   1.438  12.275
43075SOL    HW231123   7.847   1.437  12.419
43076SOL     OW31124  14.181  12.663   5.760
43076SOL    HW131125  14.108  12.699   5.708
43076SOL    HW231126  14.156  12.572   5.775
43077SOL     OW31127   4.203   8.275   0.346
43077SOL    HW131128   4.268   8.343   0.365
43077SOL    HW231129   4.123   8.307   0.387
43078SOL     OW31130   2.037  11.658  10.369
43078SOL    HW131131   1.997  11.720  10.430
43078SOL    HW231132   1.988  11.670  10.288
43079SOL     OW31133  14.574   9.511   5.959
43079SOL    HW131134  14.485   9.542   5.972
43079SOL    HW231135  14.572   9.467   5.874
43080SOL     OW31136  12.297  10.206  12.484
43080SOL    HW131137  12.247  10.250  12.553
43080SOL    HW231138  12.283  10.112  12.501
43081SOL     OW31139   6.966   0.670   7.765
43081SOL    HW131140   6.926   0.591   7.730
43081SOL    HW231141   6.893   0.730   7.779
43082SOL     OW31142  14.558   5.283   1.227
43082SOL    HW131143  14.560   5.366   1.276
43082SOL    HW231144  14.611   5.223   1.280
43083SOL     OW31145   2.634   7.931   0.222
43083SOL    HW131146   2.721   7.903   0.249
43083SOL    HW231147   2.580   7.853   0.231
43084SOL     OW31148   6.188   7.032  14.526
43084SOL    HW131149   6.114   7.019  14.586
43084SOL    HW231150   6.148   7.062  14.445
43085SOL     OW31151   1.631  13.436  11.908
43085SOL    HW131152   1.613  13.424  11.815
43085SOL    HW231153   1.722  13.407  11.919
43086SOL     OW31154  11.923   4.316   3.736
43086SOL    HW131155  12.010   4.342   3.767
43086SOL    HW231156  11.884   4.272   3.812
43087SOL     OW31157   1.654   6.271   7.487
43087SOL    HW131158   1.605   6.313   7.558
43087SOL    HW231159   1.746   6.280   7.513
43088SOL     OW31160   4.992   9.743  11.482
43088SOL    HW131161   5.022   9.724  11.393
43088SOL    HW231162   5.023   9.832  11.500
43089SOL     OW31163   1.772   4.720  13.048
43089SOL    HW131164   1.703   4.761  12.996
43089SOL    HW231165   1.757   4.626  13.039
43090SOL     OW31166   9.408   8.510   7.563
43090SOL    HW131167   9.323   8.555   7.562
43090SOL    HW231168   9.387   8.419   7.540
43091SOL     OW31169  10.968  13.954   4.788
43091SOL    HW131170  11.039  14.013   4.763
43091SOL    HW231171  10.889  13.997   4.756
43092SOL     OW31172   2.613   7.504   2.938
43092SOL    HW131173   2.531   7.455   2.938
43092SOL    HW231174   2.592   7.585   2.985
43093SOL     OW31175   9.501   8.992   7.595
43093SOL    HW131176   9.596   9.001   7.589
43093SOL    HW231177   9.468   9.029   7.513
43094SOL     OW31178   0.105  13.943  11.781
43094SOL    HW131179   0.201  13.938  11.781
43094SOL    HW231180   0.081  13.939  11.874
43095SOL     OW31181   3.263  12.338   7.306
43095SOL    HW131182   3.218  12.420   7.285
43095SOL    HW231183   3.226  12.310   7.389
43096SOL     OW31184  12.115  10.828   8.703
43096SOL    HW131185  12.069  10.771   8.641
43096SOL    HW231186  12.046  10.879   8.745
43097SOL     OW31187   9.936   7.210   1.971
43097SOL    HW131188   9.950   7.144   2.040
43097SOL    HW231189   9.862   7.262   2.003
43098SOL     OW31190   6.358   2.147  11.340
43098SOL    HW131191   6.273   2.191  11.337
43098SOL    HW231192   6.350   2.073  11.280
43099SOL     OW31193   2.060   9.353  13.572
43099SOL    HW131194   2.057   9.402  13.655
43099SOL    HW231195   1.996   9.283  13.584
43100SOL     OW31196  14.593   8.094   7.698
43100SOL    HW131197  14.558   8.067   7.613
43100SOL    HW231198  14.555   8.181   7.713
43101SOL     OW31199   2.211  11.001   4.586
43101SOL    HW131200   2.193  11.079   4.639
43101SOL    HW231201   2.125  10.970   4.558
43102SOL     OW31202   4.285  12.170   0.171
43102SOL    HW131203   4.305  12.097   0.230
43102SOL    HW231204   4.224  12.133   0.107
43103SOL     OW31205   1.938   5.879   2.298
43103SOL    HW131206   1.900   5.957   2.258
43103SOL    HW231207   2.029   5.878   2.268
43104SOL     OW31208   5.023   6.077   3.127
43104SOL    HW131209   5.006   6.167   3.097
43104SOL    HW231210   5.007   6.080   3.221
43105SOL     OW31211  12.717  13.185   0.897
43105SOL    HW131212  12.747  13.271   0.926
43105SOL    HW231213  12.794  13.129   0.902
43106SOL     OW31214  12.037  12.918  10.498
43106SOL    HW131215  12.030  12.999  10.549
43106SOL    HW231216  12.076  12.855  10.558
43107SOL     OW31217   3.728   1.913  12.354
43107SOL    HW131218   3.659   1.945  12.296
43107SOL    HW231219   3.684   1.901  12.439
43108SOL     OW31220   8.890   1.602   1.222
43108SOL    HW131221   8.851   1.648   1.297
43108SOL    HW231222   8.975   1.572   1.254
43109SOL     OW31223   0.288   5.093  10.876
43109SOL    HW131224   0.369   5.123  10.834
43109SOL    HW231225   0.297   5.122  10.967
43110SOL     OW31226   2.049   9.867  13.418
43110SOL    HW131227   2.083   9.891  13.504
43110SOL    HW231228   2.018   9.777  13.429
43111SOL     OW31229  12.448   8.478  11.598
43111SOL    HW131230  12.394   8.470  11.678
43111SOL    HW231231  12.489   8.564  11.606
43112SOL     OW31232  11.446   2.726   1.768
43112SOL    HW131233  11.366   2.699   1.814
43112SOL    HW231234  11.420   2.731   1.676
43113SOL     OW31235   7.672  11.929   3.236
43113SOL    HW131236   7.627  11.876   3.170
43113SOL    HW231237   7.697  12.009   3.190
43114SOL     OW31238   4.885   5.731   8.674
43114SOL    HW131239   4.927   5.806   8.716
43114SOL    HW231240   4.929   5.722   8.590
43115SOL     OW31241   5.820   6.005  14.510
43115SOL    HW131242   5.776   5.985  14.427
43115SOL    HW231243   5.897   6.055  14.485
43116SOL     OW31244   5.227  12.741   7.059
43116SOL    HW131245   5.223  12.787   7.143
43116SOL    HW231246   5.241  12.649   7.082
43117SOL     OW31247   1.826  11.737   1.342
43117SOL    HW131248   1.809  11.723   1.249
43117SOL    HW231249   1.814  11.832   1.354
43118SOL     OW31250   9.972   8.391   2.036
43118SOL    HW131251   9.946   8.425   1.951
43118SOL    HW231252  10.003   8.468   2.084
43119SOL     OW31253  10.401   7.038  14.777
43119SOL    HW131254  10.379   7.130  14.791
43119SOL    HW231255  10.484   7.026  14.822
43120SOL     OW31256  12.489   2.647   7.184
43120SOL    HW131257  12.502   2.576   7.121
43120SOL    HW231258  12.538   2.721   7.148
43121SOL     OW31259   0.565   2.552  14.171
43121SOL    HW131260   0.563   2.622  14.106
43121SOL    HW231261   0.659   2.538  14.187
43122SOL     OW31262   1.794  14.334   5.889
43122SOL    HW131263   1.886  14.331   5.862
43122SOL    HW231264   1.785  14.259   5.948
43123SOL     OW31265   1.840   8.131   6.547
43123SOL    HW131266   1.783   8.054   6.551
43123SOL    HW231267   1.780   8.205   6.549
43124SOL     OW31268  12.086   7.925  12.840
43124SOL    HW131269  12.038   7.992  12.792
43124SOL    HW231270  12.088   7.850  12.782
43125SOL     OW31271   9.117  10.790   7.206
43125SOL    HW131272   9.089  10.716   7.260
43125SOL    HW231273   9.210  10.776   7.191
43126SOL     OW31274   7.574  12.052   6.983
43126SOL    HW131275   7.563  12.092   6.897
43126SOL    HW231276   7.484  12.035   7.012
43127SOL     OW31277   8.334  10.553   0.193
43127SOL    HW131278   8.351  10.459   0.185
43127SOL    HW231279   8.343  10.587   0.104
43128SOL     OW31280   4.689   5.868   9.994
43128SOL    HW131281   4.630   5.810   9.947
43128SOL    HW231282   4.746   5.809  10.044
43129SOL     OW31283   6.431  11.754   4.281
43129SOL    HW131284   6.343  11.788   4.265
43129SOL    HW231285   6.426  11.715   4.368
43130SOL     OW31286   2.419   1.469   9.743
43130SOL    HW131287   2.456   1.461   9.655
43130SOL    HW231288   2.444   1.388   9.787
43131SOL     OW31289   7.784   4.687  10.063
43131SOL    HW131290   7.775   4.728   9.977
43131SOL    HW231291   7.773   4.593  10.046
43132SOL     OW31292   5.974  14.532   2.845
43132SOL    HW131293   6.005  14.604   2.900
43132SOL    HW231294   5.889  14.562   2.812
43133SOL     OW31295   3.950   5.155  11.910
43133SOL    HW131296   3.970   5.207  11.988
43133SOL    HW231297   3.867   5.112  11.930
43134SOL     OW31298   5.499   1.970  10.969
43134SOL    HW131299   5.445   2.034  10.923
43134SOL    HW231300   5.444   1.939  11.041
43135SOL     OW31301  13.196  10.890  12.101
43135SOL    HW131302  13.262  10.959  12.090
43135SOL    HW231303  13.244  10.809  12.090
43136SOL     OW31304  11.174  13.831   8.709
43136SOL    HW131305  11.194  13.738   8.697
43136SOL    HW231306  11.178  13.844   8.804
43137SOL     OW31307   4.404   3.851   6.480
43137SOL    HW131308   4.373   3.898   6.402
43137SOL    HW231309   4.336   3.787   6.498
43138SOL     OW31310   1.091   8.052  11.647
43138SOL    HW131311   1.056   7.963  11.638
43138SOL    HW231312   1.014   8.108  11.648
43139SOL     OW31313   4.585   9.879  13.420
43139SOL    HW131314   4.613   9.968  13.402
43139SOL    HW231315   4.635   9.825  13.359
43140SOL     OW31316   3.310  10.778  11.703
43140SOL    HW131317   3.354  10.806  11.623
43140SOL    HW231318   3.218  10.772  11.680
43141SOL     OW31319   4.226  13.118   5.041
43141SOL    HW131320   4.255  13.043   5.092
43141SOL    HW231321   4.298  13.134   4.980
43142SOL     OW31322   7.043   3.041   7.115
43142SOL    HW131323   7.036   3.033   7.020
43142SOL    HW231324   7.129   3.005   7.137
43143SOL     OW31325  11.683  11.055   2.763
43143SOL    HW131326  11.696  10.969   2.721
43143SOL    HW231327  11.704  11.040   2.855
43144SOL     OW31328   3.275   6.842   2.161
43144SOL    HW131329   3.348   6.796   2.201
43144SOL    HW231330   3.316   6.902   2.099
43145SOL     OW31331   0.026  11.935   9.377
43145SOL    HW131332   0.109  11.981   9.362
43145SOL    HW231333   0.009  11.888   9.296
43146SOL     OW31334   4.181  11.696  12.735
43146SOL    HW131335   4.257  11.641  12.718
43146SOL    HW231336   4.106  11.637  12.723
43147SOL     OW31337   1.805   6.804   1.418
43147SOL    HW131338   1.763   6.720   1.399
43147SOL    HW231339   1.835   6.797   1.508
43148SOL     OW31340  13.531   0.833   5.845
43148SOL    HW131341  13.580   0.839   5.763
43148SOL    HW231342  13.584   0.879   5.909
43149SOL     OW31343  11.344   3.857  10.442
43149SOL    HW131344  11.379   3.799  10.375
43149SOL    HW231345  11.260   3.886  10.407
43150SOL     OW31346   6.247   2.608  12.673
43150SOL    HW131347   6.323   2.565  12.634
43150SOL    HW231348   6.180   2.540  12.677
43151SOL     OW31349  13.463   2.342  10.940
43151SOL    HW131350  13.505   2.400  11.004
43151SOL    HW231351  13.483   2.253  10.971
43152SOL     OW31352   5.434  14.133   0.964
43152SOL    HW131353   5.350  14.122   0.918
43152SOL    HW231354   5.500  14.122   0.896
43153SOL     OW31355   7.766  13.547   0.796
43153SOL    HW131356   7.744  13.454   0.786
43153SOL    HW231357   7.861  13.550   0.792
43154SOL     OW31358   0.720   5.246   2.092
43154SOL    HW131359   0.804   5.260   2.135
43154SOL    HW231360   0.655   5.263   2.160
43155SOL     OW31361  12.758   8.897   1.568
43155SOL    HW131362  12.745   8.803   1.556
43155SOL    HW231363  12.670   8.935   1.560
43156SOL     OW31364   7.699  14.605  14.354
43156SOL    HW131365   7.746  14.635  14.431
43156SOL    HW231366   7.670  14.516  14.376
43157SOL     OW31367  14.434   3.182  11.960
43157SOL    HW131368  14.363   3.118  11.951
43157SOL    HW231369  14.486   3.170  11.880
43158SOL     OW31370   6.382  12.061  10.477
43158SOL    HW131371   6.457  12.028  10.527
43158SOL    HW231372   6.385  12.156  10.490
43159SOL     OW31373   6.073   6.934   8.907
43159SOL    HW131374   6.020   6.916   8.829
43159SOL    HW231375   6.109   7.021   8.891
43160SOL     OW31376  14.297   9.230  12.424
43160SOL    HW131377  14.352   9.294  12.379
43160SOL    HW231378  14.220   9.279  12.453
43161SOL     OW31379  10.101   0.681  12.277
43161SOL    HW131380  10.161   0.634  12.219
43161SOL    HW231381  10.035   0.718  12.219
43162SOL     OW31382   0.328   8.044  13.017
43162SOL    HW131383   0.331   8.129  13.061
43162SOL    HW231384   0.316   8.066  12.925
43163SOL     OW31385  13.435  14.231  13.165
43163SOL    HW131386  13.517  14.188  13.193
43163SOL    HW231387  13.409  14.284  13.240
43164SOL     OW31388   6.782   9.237   3.118
43164SOL    HW131389   6.689   9.226   3.139
43164SOL    HW231390   6.812   9.303   3.181
43165SOL     OW31391   6.230   1.027  13.232
43165SOL    HW131392   6.229   1.074  13.315
43165SOL    HW231393   6.154   0.968  13.237
43166SOL     OW31394  14.187  12.020   7.799
43166SOL    HW131395  14.159  12.088   7.737
43166SOL    HW231396  14.282  12.019   7.793
43167SOL     OW31397  13.802  13.075   9.445
43167SOL    HW131398  13.810  13.033   9.360
43167SOL    HW231399  13.828  13.166   9.430
43168SOL     OW31400   9.512  14.238   6.137
43168SOL    HW131401   9.525  14.232   6.042
43168SOL    HW231402   9.488  14.149   6.163
43169SOL     OW31403  11.362   3.763   3.824
43169SOL    HW131404  11.354   3.719   3.739
43169SOL    HW231405  11.343   3.855   3.804
43170SOL     OW31406   5.253  11.320   3.652
43170SOL    HW131407   5.277  11.228   3.647
43170SOL    HW231408   5.334  11.367   3.635
43171SOL     OW31409   5.926   8.501   5.604
43171SOL    HW131410   6.016   8.532   5.612
43171SOL    HW231411   5.916   8.479   5.511
43172SOL     OW31412   9.043   9.928   9.527
43172SOL    HW131413   9.014   9.896   9.613
43172SOL    HW231414   9.014   9.860   9.466
43173SOL     OW31415   2.458   1.255   0.647
43173SOL    HW131416   2.473   1.219   0.735
43173SOL    HW231417   2.501   1.193   0.588
43174SOL     OW31418   4.407  13.048  11.557
43174SOL    HW131419   4.458  13.126  11.581
43174SOL    HW231420   4.317  13.071  11.577
43175SOL     OW31421   3.780   2.207   8.996
43175SOL    HW131422   3.841   2.257   8.943
43175SOL    HW231423   3.823   2.199   9.081
43176SOL     OW31424   0.464   8.790   8.364
43176SOL    HW131425   0.497   8.879   8.376
43176SOL    HW231426   0.376   8.802   8.328
43177SOL     OW31427   4.125   4.532  10.015
43177SOL    HW131428   4.075   4.470  10.068
43177SOL    HW231429   4.194   4.480   9.975
43178SOL     OW31430   1.703   1.371   0.265
43178SOL    HW131431   1.632   1.407   0.211
43178SOL    HW231432   1.762   1.445   0.278
43179SOL     OW31433   0.964   4.953  11.577
43179SOL    HW131434   1.011   4.877  11.612
43179SOL    HW231435   0.872   4.929  11.582
43180SOL     OW31436  10.346   8.497   0.256
43180SOL    HW131437  10.274   8.487   0.318
43180SOL    HW231438  10.373   8.407   0.236
43181SOL     OW31439  12.659   0.702  10.287
43181SOL    HW131440  12.610   0.710  10.206
43181SOL    HW231441  12.593   0.698  10.355
43182SOL     OW31442   0.995  10.241   0.357
43182SOL    HW131443   0.939  10.251   0.434
43182SOL    HW231444   0.942  10.188   0.296
43183SOL     OW31445   5.909   4.629   0.183
43183SOL    HW131446   5.845   4.570   0.223
43183SOL    HW231447   5.993   4.589   0.202
43184SOL     OW31448  10.087   1.654   2.886
43184SOL    HW131449  10.044   1.615   2.810
43184SOL    HW231450  10.026   1.639   2.959
43185SOL     OW31451  10.823   1.773   3.323
43185SOL    HW131452  10.843   1.857   3.364
43185SOL    HW231453  10.908   1.741   3.292
43186SOL     OW31454  13.050   5.934   4.120
43186SOL    HW131455  12.989   6.007   4.132
43186SOL    HW231456  13.109   5.940   4.196
43187SOL     OW31457  11.132   7.048  10.484
43187SOL    HW131458  11.045   7.013  10.503
43187SOL    HW231459  11.140   7.042  10.388
43188SOL     OW31460  11.312   7.401   3.699
43188SOL    HW131461  11.295   7.307   3.710
43188SOL    HW231462  11.232   7.436   3.661
43189SOL     OW31463   7.602   7.198   2.656
43189SOL    HW131464   7.508   7.184   2.656
43189SOL    HW231465   7.632   7.162   2.739
43190SOL     OW31466   6.751   8.887  10.910
43190SOL    HW131467   6.813   8.928  10.970
43190SOL    HW231468   6.683   8.851  10.967
43191SOL     OW31469   0.455   9.302  10.488
43191SOL    HW131470   0.373   9.352  10.478
43191SOL    HW231471   0.435   9.239  10.557
43192SOL     OW31472   0.402   2.060  12.358
43192SOL    HW131473   0.402   2.068  12.262
43192SOL    HW231474   0.418   1.967  12.374
43193SOL     OW31475   0.850   8.912   5.652
43193SOL    HW131476   0.813   8.999   5.665
43193SOL    HW231477   0.835   8.867   5.735
43194SOL     OW31478   4.460  13.002  12.889
43194SOL    HW131479   4.517  13.002  12.966
43194SOL    HW231480   4.514  13.039  12.819
43195SOL     OW31481   8.767   4.102   4.892
43195SOL    HW131482   8.814   4.040   4.948
43195SOL    HW231483   8.816   4.183   4.900
43196SOL     OW31484   4.934  11.848   4.001
43196SOL    HW131485   4.979  11.789   3.940
43196SOL    HW231486   4.974  11.934   3.986
43197SOL     OW31487  14.732   5.546   4.160
43197SOL    HW131488  14.666   5.608   4.128
43197SOL    HW231489  14.808   5.600   4.179
43198SOL     OW31490   2.105  14.167  11.032
43198SOL    HW131491   2.179  14.224  11.007
43198SOL    HW231492   2.132  14.080  11.004
43199SOL     OW31493  11.758   1.350  11.229
43199SOL    HW131494  11.776   1.261  11.200
43199SOL    HW231495  11.755   1.401  11.148
43200SOL     OW31496  12.690   6.418  12.596
43200SOL    HW131497  12.660   6.409  12.505
43200SOL    HW231498  12.703   6.328  12.626
43201SOL     OW31499   8.350  11.163   7.626
43201SOL    HW131500   8.254  11.163   7.618
43201SOL    HW231501   8.370  11.245   7.670
43202SOL     OW31502   3.427   1.079  10.245
43202SOL    HW131503   3.443   1.150  10.184
43202SOL    HW231504   3.332   1.066  10.243
43203SOL     OW31505  14.598   9.486  13.070
43203SOL    HW131506  14.524   9.536  13.034
43203SOL    HW231507  14.669   9.500  13.007
43204SOL     OW31508   2.204   2.898  14.292
43204SOL    HW131509   2.230   2.888  14.200
43204SOL    HW231510   2.112   2.874  14.294
43205SOL     OW31511   6.511  12.010   3.481
43205SOL    HW131512   6.507  11.977   3.391
43205SOL    HW231513   6.533  12.103   3.471
43206SOL     OW31514  10.203  10.304  13.091
43206SOL    HW131515  10.248  10.378  13.051
43206SOL    HW231516  10.231  10.306  13.183
43207SOL     OW31517   6.687  10.739   0.755
43207SOL    HW131518   6.763  10.739   0.697
43207SOL    HW231519   6.691  10.823   0.800
43208SOL     OW31520   1.467  10.781   7.896
43208SOL    HW131521   1.490  10.859   7.846
43208SOL    HW231522   1.377  10.796   7.925
43209SOL     OW31523   1.902   6.656   5.085
43209SOL    HW131524   1.914   6.747   5.058
43209SOL    HW231525   1.890   6.607   5.003
43210SOL     OW31526   8.103  10.114   0.244
43210SOL    HW131527   8.102  10.163   0.162
43210SOL    HW231528   8.037  10.046   0.232
43211SOL     OW31529  11.150  11.356   8.026
43211SOL    HW131530  11.182  11.267   8.014
43211SOL    HW231531  11.132  11.388   7.938
43212SOL     OW31532   8.036  10.491  11.068
43212SOL    HW131533   8.004  10.576  11.096
43212SOL    HW231534   8.064  10.448  11.149
43213SOL     OW31535  11.064   2.405   1.836
43213SOL    HW131536  11.120   2.364   1.770
43213SOL    HW231537  10.992   2.343   1.847
43214SOL     OW31538   7.042  10.058   4.486
43214SOL    HW131539   7.023  10.065   4.392
43214SOL    HW231540   7.028   9.965   4.506
43215SOL     OW31541   3.238  14.477   4.025
43215SOL    HW131542   3.195  14.522   4.099
43215SOL    HW231543   3.320  14.445   4.062
43216SOL     OW31544   1.816  12.325   2.254
43216SOL    HW131545   1.858  12.387   2.314
43216SOL    HW231546   1.833  12.362   2.167
43217SOL     OW31547  11.108  13.387  10.658
43217SOL    HW131548  11.066  13.372  10.743
43217SOL    HW231549  11.035  13.395  10.596
43218SOL     OW31550   8.629  12.877   7.156
43218SOL    HW131551   8.675  12.850   7.077
43218SOL    HW231552   8.597  12.965   7.137
43219SOL     OW31553   5.928   4.948   9.330
43219SOL    HW131554   5.844   4.911   9.304
43219SOL    HW231555   5.953   5.005   9.257
43220SOL     OW31556   5.371  11.741   7.881
43220SOL    HW131557   5.456  11.759   7.920
43220SOL    HW231558   5.320  11.820   7.898
43221SOL     OW31559   8.970   9.411  14.783
43221SOL    HW131560   8.982   9.373  14.695
43221SOL    HW231561   8.896   9.362  14.820
43222SOL     OW31562  14.488   8.079  10.316
43222SOL    HW131563  14.516   8.031  10.393
43222SOL    HW231564  14.540   8.044  10.244
43223SOL     OW31565   6.620  10.019   3.813
43223SOL    HW131566   6.708   9.988   3.793
43223SOL    HW231567   6.583   9.951   3.870
43224SOL     OW31568  13.167   9.419   3.803
43224SOL    HW131569  13.172   9.346   3.866
43224SOL    HW231570  13.080   9.456   3.817
43225SOL     OW31571   1.580  13.693  13.360
43225SOL    HW131572   1.486  13.707  13.363
43225SOL    HW231573   1.598  13.636  13.435
43226SOL     OW31574   0.835   2.331   7.058
43226SOL    HW131575   0.848   2.423   7.034
43226SOL    HW231576   0.815   2.287   6.975
43227SOL     OW31577   1.194  13.506   0.107
43227SOL    HW131578   1.183  13.546   0.194
43227SOL    HW231579   1.289  13.510   0.092
43228SOL     OW31580  11.107  11.149   5.412
43228SOL    HW131581  11.157  11.190   5.341
43228SOL    HW231582  11.140  11.059   5.416
43229SOL     OW31583   9.621   0.548  11.636
43229SOL    HW131584   9.568   0.556  11.715
43229SOL    HW231585   9.565   0.582  11.566
43230SOL     OW31586  12.549  11.768   8.237
43230SOL    HW131587  12.622  11.745   8.180
43230SOL    HW231588  12.516  11.851   8.203
43231SOL     OW31589  11.306   7.200   8.514
43231SOL    HW131590  11.316   7.106   8.504
43231SOL    HW231591  11.374   7.237   8.457
43232SOL     OW31592  11.118  11.354   3.905
43232SOL    HW131593  11.034  11.375   3.864
43232SOL    HW231594  11.154  11.284   3.850
43233SOL     OW31595   0.551  14.377   7.192
43233SOL    HW131596   0.624  14.404   7.247
43233SOL    HW231597   0.591  14.333   7.117
43234SOL     OW31598   8.166   3.152   7.233
43234SOL    HW131599   8.140   3.063   7.253
43234SOL    HW231600   8.213   3.181   7.312
43235SOL     OW31601   8.878  10.738   1.903
43235SOL    HW131602   8.899  10.832   1.905
43235SOL    HW231603   8.885  10.714   1.811
43236SOL     OW31604  12.038  11.377   8.102
43236SOL    HW131605  12.030  11.284   8.078
43236SOL    HW231606  11.991  11.383   8.185
43237SOL     OW31607  14.582   1.794  11.170
43237SOL    HW131608  14.611   1.854  11.102
43237SOL    HW231609  14.501   1.756  11.136
43238SOL     OW31610  14.592   2.085   5.315
43238SOL    HW131611  14.538   2.105   5.238
43238SOL    HW231612  14.532   2.091   5.389
43239SOL     OW31613  14.050   7.471  10.981
43239SOL    HW131614  14.118   7.464  10.914
43239SOL    HW231615  14.031   7.381  11.006
43240SOL     OW31616  11.128  13.656   5.539
43240SOL    HW131617  11.210  13.678   5.495
43240SOL    HW231618  11.143  13.680   5.631
43241SOL     OW31619   3.105  10.880   4.168
43241SOL    HW131620   3.117  10.820   4.094
43241SOL    HW231621   3.082  10.823   4.241
43242SOL     OW31622  13.160  14.801  11.523
43242SOL    HW131623  13.185   0.014  11.519
43242SOL    HW231624  13.163  14.772  11.432
43243SOL     OW31625  11.421   4.600   8.581
43243SOL    HW131626  11.491   4.575   8.520
43243SOL    HW231627  11.361   4.526   8.579
43244SOL     OW31628  11.818  12.946  12.144
43244SOL    HW131629  11.913  12.935  12.152
43244SOL    HW231630  11.781  12.879  12.201
43245SOL     OW31631   0.769  13.226  14.125
43245SOL    HW131632   0.784  13.132  14.128
43245SOL    HW231633   0.701  13.237  14.058
43246SOL     OW31634   5.398   4.426   9.574
43246SOL    HW131635   5.326   4.479   9.540
43246SOL    HW231636   5.356   4.346   9.605
43247SOL     OW31637   1.426  12.952   5.410
43247SOL    HW131638   1.519  12.976   5.409
43247SOL    HW231639   1.425  12.864   5.448
43248SOL     OW31640   0.005   6.259   1.238
43248SOL    HW131641   0.095   6.238   1.212
43248SOL    HW231642  14.857   6.184   1.291
43249SOL     OW31643   2.593   9.783   3.286
43249SOL    HW131644   2.555   9.737   3.361
43249SOL    HW231645   2.590   9.875   3.310
43250SOL     OW31646   9.865  10.850   7.359
43250SOL    HW131647   9.838  10.888   7.276
43250SOL    HW231648   9.785  10.815   7.397
43251SOL     OW31649   6.808  10.184   5.157
43251SOL    HW131650   6.729  10.130   5.149
43251SOL    HW231651   6.778  10.267   5.193
43252SOL     OW31652  13.932   7.636   7.901
43252SOL    HW131653  13.976   7.718   7.881
43252SOL    HW231654  13.843   7.662   7.925
43253SOL     OW31655   4.081  14.785   6.984
43253SOL    HW131656   4.162  14.737   6.998
43253SOL    HW231657   4.094  14.868   7.029
43254SOL     OW31658   0.719  12.562   8.000
43254SOL    HW131659   0.785  12.612   7.952
43254SOL    HW231660   0.680  12.625   8.060
43255SOL     OW31661  14.857  14.725   1.888
43255SOL    HW131662   0.038  14.748   1.818
43255SOL    HW231663   0.029  14.675   1.951
43256SOL     OW31664  10.676  14.828  13.828
43256SOL    HW131665  10.762  14.809  13.790
43256SOL    HW231666  10.686  14.812  13.922
43257SOL     OW31667   9.041   1.382   2.605
43257SOL    HW131668   8.947   1.366   2.593
43257SOL    HW231669   9.082   1.339   2.530
43258SOL     OW31670   1.836   2.486   6.611
43258SOL    HW131671   1.923   2.454   6.637
43258SOL    HW231672   1.815   2.435   6.532
43259SOL     OW31673   3.975  11.078  14.145
43259SOL    HW131674   3.915  11.147  14.174
43259SOL    HW231675   4.007  11.108  14.060
43260SOL     OW31676   8.892   2.161   6.223
43260SOL    HW131677   8.941   2.181   6.303
43260SOL    HW231678   8.913   2.070   6.204
43261SOL     OW31679   1.518   4.275  12.184
43261SOL    HW131680   1.437   4.253  12.139
43261SOL    HW231681   1.532   4.368  12.165
43262SOL     OW31682  13.360   9.535   6.531
43262SOL    HW131683  13.285   9.476   6.522
43262SOL    HW231684  13.426   9.484   6.578
43263SOL     OW31685  11.245  10.045   1.286
43263SOL    HW131686  11.333  10.024   1.255
43263SOL    HW231687  11.258  10.118   1.347
43264SOL     OW31688   3.618   6.146  11.729
43264SOL    HW131689   3.649   6.220  11.678
43264SOL    HW231690   3.687   6.130  11.793
43265SOL     OW31691   1.108   1.838   2.449
43265SOL    HW131692   1.073   1.749   2.447
43265SOL    HW231693   1.171   1.837   2.521
43266SOL     OW31694   7.209   7.718  12.846
43266SOL    HW131695   7.118   7.731  12.818
43266SOL    HW231696   7.224   7.787  12.910
43267SOL     OW31697   2.878   7.254  14.171
43267SOL    HW131698   2.842   7.234  14.257
43267SOL    HW231699   2.918   7.340  14.181
43268SOL     OW31700  12.718   0.175  11.886
43268SOL    HW131701  12.700   0.100  11.829
43268SOL    HW231702  12.668   0.246  11.847
43269SOL     OW31703   7.638   5.721   5.652
43269SOL    HW131704   7.723   5.709   5.610
43269SOL    HW231705   7.648   5.801   5.704
43270SOL     OW31706   1.986  11.781   8.036
43270SOL    HW131707   2.019  11.713   7.978
43270SOL    HW231708   2.045  11.779   8.112
43271SOL     OW31709  12.176   4.690  14.605
43271SOL    HW131710  12.211   4.614  14.558
43271SOL    HW231711  12.205   4.766  14.555
43272SOL     OW31712   9.627   3.384   9.454
43272SOL    HW131713   9.625   3.291   9.476
43272SOL    HW231714   9.719   3.401   9.433
43273SOL     OW31715   3.623   2.697   4.680
43273SOL    HW131716   3.656   2.780   4.644
43273SOL    HW231717   3.529   2.711   4.689
43274SOL     OW31718   4.262  11.377   4.736
43274SOL    HW131719   4.321  11.336   4.799
43274SOL    HW231720   4.215  11.444   4.786
43275SOL     OW31721  14.811   1.234   5.660
43275SOL    HW131722  14.789   1.286   5.583
43275SOL    HW231723  14.758   1.271   5.730
43276SOL     OW31724  11.265   7.498   9.636
43276SOL    HW131725  11.178   7.481   9.599
43276SOL    HW231726  11.257   7.474   9.728
43277SOL     OW31727   4.279   2.328  13.678
43277SOL    HW131728   4.214   2.274  13.634
43277SOL    HW231729   4.323   2.376  13.608
43278SOL     OW31730   3.578  10.449   3.097
43278SOL    HW131731   3.539  10.362   3.099
43278SOL    HW231732   3.561  10.485   3.184
43279SOL     OW31733   0.849   8.834  11.875
43279SOL    HW131734   0.806   8.783  11.944
43279SOL    HW231735   0.897   8.770  11.824
43280SOL     OW31736  11.547   4.341   0.788
43280SOL    HW131737  11.569   4.434   0.776
43280SOL    HW231738  11.617   4.307   0.843
43281SOL     OW31739   4.579  11.900   1.279
43281SOL    HW131740   4.627  11.943   1.350
43281SOL    HW231741   4.499  11.952   1.269
43282SOL     OW31742  13.316  14.522   9.808
43282SOL    HW131743  13.263  14.443   9.796
43282SOL    HW231744  13.340  14.548   9.719
43283SOL     OW31745  14.054  11.555  12.973
43283SOL    HW131746  13.982  11.493  12.961
43283SOL    HW231747  14.098  11.524  13.052
43284SOL     OW31748   2.250  14.450  13.553
43284SOL    HW131749   2.279  14.367  13.516
43284SOL    HW231750   2.330  14.492  13.584
43285SOL     OW31751  14.376   3.684   3.036
43285SOL    HW131752  14.381   3.664   3.130
43285SOL    HW231753  14.301   3.743   3.029
43286SOL     OW31754   6.786   7.866   9.741
43286SOL    HW131755   6.712   7.830   9.789
43286SOL    HW231756   6.842   7.905   9.808
43287SOL     OW31757   5.858  13.418   8.042
43287SOL    HW131758   5.796  13.406   7.970
43287SOL    HW231759   5.896  13.332   8.056
43288SOL     OW31760   7.463   0.594   0.837
43288SOL    HW131761   7.455   0.684   0.807
43288SOL    HW231762   7.557   0.580   0.847
43289SOL     OW31763   1.814   9.789   6.638
43289SOL    HW131764   1.856   9.858   6.586
43289SOL    HW231765   1.815   9.823   6.727
43290SOL     OW31766   5.130   9.086   8.204
43290SOL    HW131767   5.061   9.027   8.235
43290SOL    HW231768   5.210   9.032   8.205
43291SOL     OW31769   9.970   5.471   4.128
43291SOL    HW131770   9.939   5.527   4.199
43291SOL    HW231771  10.064   5.462   4.143
43292SOL     OW31772  12.658   6.294   2.663
43292SOL    HW131773  12.704   6.375   2.685
43292SOL    HW231774  12.706   6.258   2.588
43293SOL     OW31775   7.328  14.217   8.093
43293SOL    HW131776   7.331  14.142   8.152
43293SOL    HW231777   7.419  14.243   8.082
43294SOL     OW31778   7.746   4.988  12.516
43294SOL    HW131779   7.687   5.064  12.518
43294SOL    HW231780   7.719   4.939  12.439
43295SOL     OW31781   6.038   5.398  11.667
43295SOL    HW131782   6.004   5.330  11.608
43295SOL    HW231783   6.000   5.376  11.752
43296SOL     OW31784  12.550   8.271   3.277
43296SOL    HW131785  12.472   8.240   3.324
43296SOL    HW231786  12.621   8.218   3.311
43297SOL     OW31787  14.651   1.985   5.888
43297SOL    HW131788  14.570   1.964   5.936
43297SOL    HW231789  14.701   1.903   5.889
43298SOL     OW31790   4.775   9.535   9.865
43298SOL    HW131791   4.772   9.468   9.797
43298SOL    HW231792   4.865   9.531   9.899
43299SOL     OW31793  12.878   5.894   9.009
43299SOL    HW131794  12.822   5.957   8.964
43299SOL    HW231795  12.954   5.945   9.037
43300SOL     OW31796  10.462  10.065   2.916
43300SOL    HW131797  10.487  10.126   2.847
43300SOL    HW231798  10.421  10.120   2.983
43301SOL     OW31799   0.628   1.678   7.335
43301SOL    HW131800   0.708   1.625   7.330
43301SOL    HW231801   0.650   1.759   7.289
43302SOL     OW31802   0.881   3.892   7.901
43302SOL    HW131803   0.849   3.942   7.826
43302SOL    HW231804   0.835   3.929   7.976
43303SOL     OW31805  12.404   2.644   4.558
43303SOL    HW131806  12.390   2.690   4.475
43303SOL    HW231807  12.431   2.556   4.532
43304SOL     OW31808   1.094  10.013   9.944
43304SOL    HW131809   1.062  10.079  10.006
43304SOL    HW231810   1.185  10.038   9.929
43305SOL     OW31811  11.714   3.591   8.150
43305SOL    HW131812  11.670   3.672   8.127
43305SOL    HW231813  11.669   3.562   8.230
43306SOL     OW31814  13.005   6.495  13.651
43306SOL    HW131815  13.034   6.435  13.720
43306SOL    HW231816  12.940   6.445  13.602
43307SOL     OW31817   2.551   6.065   6.180
43307SOL    HW131818   2.478   6.027   6.230
43307SOL    HW231819   2.627   6.012   6.205
43308SOL     OW31820  14.780  11.594  13.268
43308SOL    HW131821  14.728  11.667  13.235
43308SOL    HW231822  14.791  11.535  13.193
43309SOL     OW31823   3.561   8.922  11.639
43309SOL    HW131824   3.635   8.894  11.692
43309SOL    HW231825   3.569   9.018  11.635
43310SOL     OW31826   5.170   1.128  11.490
43310SOL    HW131827   5.128   1.184  11.556
43310SOL    HW231828   5.261   1.122  11.519
43311SOL     OW31829  13.825   6.216   7.571
43311SOL    HW131830  13.783   6.179   7.648
43311SOL    HW231831  13.900   6.159   7.554
43312SOL     OW31832   4.953   6.656  11.993
43312SOL    HW131833   4.975   6.581  12.049
43312SOL    HW231834   4.918   6.617  11.913
43313SOL     OW31835   1.207  12.047   1.077
43313SOL    HW131836   1.227  12.035   1.170
43313SOL    HW231837   1.283  12.091   1.041
43314SOL     OW31838   3.276  13.103   0.915
43314SOL    HW131839   3.315  13.129   0.999
43314SOL    HW231840   3.244  13.184   0.877
43315SOL     OW31841   9.024   5.885  13.671
43315SOL    HW131842   8.976   5.802  13.665
43315SOL    HW231843   9.032   5.900  13.766
43316SOL     OW31844   4.526   3.175   8.695
43316SOL    HW131845   4.431   3.179   8.702
43316SOL    HW231846   4.550   3.260   8.656
43317SOL     OW31847   2.950   0.178   8.312
43317SOL    HW131848   3.023   0.116   8.309
43317SOL    HW231849   2.964   0.227   8.393
43318SOL     OW31850   5.876  11.217   0.711
43318SOL    HW131851   5.848  11.127   0.726
43318SOL    HW231852   5.805  11.271   0.745
43319SOL     OW31853   3.000   2.044   8.471
43319SOL    HW131854   2.959   2.034   8.385
43319SOL    HW231855   3.074   1.983   8.470
43320SOL     OW31856   8.567  14.537   4.744
43320SOL    HW131857   8.571  14.479   4.820
43320SOL    HW231858   8.550  14.624   4.780
43321SOL     OW31859   7.818   8.966   9.794
43321SOL    HW131860   7.844   8.880   9.762
43321SOL    HW231861   7.898   9.019   9.786
43322SOL     OW31862  10.208   8.945   5.338
43322SOL    HW131863  10.224   9.025   5.388
43322SOL    HW231864  10.239   8.875   5.394
43323SOL     OW31865   6.065   5.498   9.773
43323SOL    HW131866   6.010   5.420   9.772
43323SOL    HW231867   6.003   5.571   9.779
43324SOL     OW31868   9.614   2.621   9.648
43324SOL    HW131869   9.635   2.704   9.690
43324SOL    HW231870   9.522   2.605   9.671
43325SOL     OW31871  14.855  14.549   1.555
43325SOL    HW131872  14.814  14.617   1.502
43325SOL    HW231873  14.792  14.476   1.554
43326SOL     OW31874   1.506   8.427   1.688
43326SOL    HW131875   1.527   8.388   1.773
43326SOL    HW231876   1.412   8.412   1.677
43327SOL     OW31877   7.014   4.366   5.226
43327SOL    HW131878   6.946   4.397   5.166
43327SOL    HW231879   7.069   4.310   5.172
43328SOL     OW31880   9.172   6.066   0.630
43328SOL    HW131881   9.127   6.141   0.668
43328SOL    HW231882   9.103   6.002   0.615
43329SOL     OW31883  13.782   8.478   7.602
43329SOL    HW131884  13.756   8.387   7.610
43329SOL    HW231885  13.726   8.513   7.533
43330SOL     OW31886   1.035   4.794  12.718
43330SOL    HW131887   0.952   4.798  12.766
43330SOL    HW231888   1.050   4.884  12.689
43331SOL     OW31889  12.897  14.171   2.989
43331SOL    HW131890  12.847  14.252   2.994
43331SOL    HW231891  12.911  14.158   2.895
43332SOL     OW31892   7.176   4.664   9.665
43332SOL    HW131893   7.250   4.679   9.606
43332SOL    HW231894   7.138   4.582   9.635
43333SOL     OW31895   9.596   8.776  10.410
43333SOL    HW131896   9.614   8.684  10.426
43333SOL    HW231897   9.508   8.777  10.372
43334SOL     OW31898  11.201  11.856   3.398
43334SOL    HW131899  11.236  11.768   3.384
43334SOL    HW231900  11.272  11.915   3.372
43335SOL     OW31901   2.092  11.319   5.472
43335SOL    HW131902   2.159  11.374   5.431
43335SOL    HW231903   2.077  11.359   5.558
43336SOL     OW31904  12.306   1.313   5.794
43336SOL    HW131905  12.288   1.405   5.811
43336SOL    HW231906  12.396   1.299   5.823
43337SOL     OW31907  10.859   4.080   9.223
43337SOL    HW131908  10.933   4.127   9.186
43337SOL    HW231909  10.871   4.086   9.318
43338SOL     OW31910  11.844   3.313   6.530
43338SOL    HW131911  11.910   3.257   6.570
43338SOL    HW231912  11.863   3.310   6.436
43339SOL     OW31913   2.503   8.302   8.563
43339SOL    HW131914   2.507   8.209   8.541
43339SOL    HW231915   2.410   8.320   8.579
43340SOL     OW31916  11.351   0.165   5.889
43340SOL    HW131917  11.384   0.126   5.970
43340SOL    HW231918  11.391   0.113   5.820
43341SOL     OW31919  10.270   5.803   2.521
43341SOL    HW131920  10.255   5.715   2.557
43341SOL    HW231921  10.185   5.831   2.489
43342SOL     OW31922   4.202   4.885   6.629
43342SOL    HW131923   4.127   4.942   6.612
43342SOL    HW231924   4.165   4.797   6.635
43343SOL     OW31925  13.272   7.395   5.504
43343SOL    HW131926  13.209   7.453   5.461
43343SOL    HW231927  13.279   7.431   5.593
43344SOL     OW31928   2.504   7.216   8.532
43344SOL    HW131929   2.512   7.238   8.625
43344SOL    HW231930   2.578   7.261   8.491
43345SOL     OW31931   5.895  13.411  13.240
43345SOL    HW131932   5.822  13.351  13.231
43345SOL    HW231933   5.886  13.471  13.165
43346SOL     OW31934   1.490   2.056   2.794
43346SOL    HW131935   1.580   2.025   2.784
43346SOL    HW231936   1.486   2.088   2.884
43347SOL     OW31937   8.745   0.901   0.590
43347SOL    HW131938   8.740   0.888   0.684
43347SOL    HW231939   8.732   0.995   0.578
43348SOL     OW31940  13.682   6.679   2.720
43348SOL    HW131941  13.641   6.616   2.779
43348SOL    HW231942  13.649   6.656   2.633
43349SOL     OW31943  13.662  10.135  11.833
43349SOL    HW131944  13.743  10.101  11.793
43349SOL    HW231945  13.657  10.225  11.803
43350SOL     OW31946   4.390  10.507   6.335
43350SOL    HW131947   4.359  10.525   6.246
43350SOL    HW231948   4.464  10.566   6.347
43351SOL     OW31949   9.637  12.512  11.668
43351SOL    HW131950   9.552  12.523  11.709
43351SOL    HW231951   9.625  12.545  11.579
43352SOL     OW31952   9.401   2.332   7.155
43352SOL    HW131953   9.418   2.337   7.061
43352SOL    HW231954   9.480   2.293   7.192
43353SOL     OW31955  13.808  13.034   4.570
43353SOL    HW131956  13.888  13.080   4.547
43353SOL    HW231957  13.801  13.043   4.665
43354SOL     OW31958   5.183   3.446   4.952
43354SOL    HW131959   5.156   3.380   4.888
43354SOL    HW231960   5.229   3.396   5.020
43355SOL     OW31961   2.327  12.369   6.065
43355SOL    HW131962   2.385  12.365   5.989
43355SOL    HW231963   2.246  12.408   6.033
43356SOL     OW31964   5.920   7.615   6.550
43356SOL    HW131965   5.858   7.580   6.485
43356SOL    HW231966   5.878   7.694   6.583
43357SOL     OW31967   4.780  10.727  11.919
43357SOL    HW131968   4.869  10.692  11.918
43357SOL    HW231969   4.778  10.785  11.995
43358SOL     OW31970   6.762   7.914   3.561
43358SOL    HW131971   6.793   7.953   3.479
43358SOL    HW231972   6.760   7.820   3.543
43359SOL     OW31973  13.304  13.571  14.098
43359SOL    HW131974  13.320  13.619  14.179
43359SOL    HW231975  13.377  13.595  14.041
43360SOL     OW31976  13.229  14.358   4.749
43360SOL    HW131977  13.257  14.342   4.839
43360SOL    HW231978  13.267  14.287   4.698
43361SOL     OW31979   4.903   1.992  12.116
43361SOL    HW131980   4.814   1.983  12.083
43361SOL    HW231981   4.918   1.911  12.165
43362SOL     OW31982  10.378   9.282  13.550
43362SOL    HW131983  10.394   9.244  13.464
43362SOL    HW231984  10.441   9.239  13.607
43363SOL     OW31985   1.460   7.933  11.337
43363SOL    HW131986   1.392   7.902  11.397
43363SOL    HW231987   1.453   8.028  11.340
43364SOL     OW31988   0.421  10.570  12.550
43364SOL    HW131989   0.330  10.596  12.569
43364SOL    HW231990   0.473  10.615  12.616
43365SOL     OW31991   7.296  12.059  12.747
43365SOL    HW131992   7.319  12.151  12.764
43365SOL    HW231993   7.327  12.013  12.825
43366SOL     OW31994   2.217  10.119  13.068
43366SOL    HW131995   2.261  10.136  13.151
43366SOL    HW231996   2.285  10.134  13.002
43367SOL     OW31997  14.065   9.210  11.517
43367SOL    HW131998  14.120   9.134  11.537
43367SOL    HW231999  14.092   9.276  11.581
43368SOL     OW32000   8.369   3.704   3.761
43368SOL    HW132001   8.283   3.683   3.725
43368SOL    HW232002   8.396   3.782   3.714
43369SOL     OW32003  11.003   8.640  11.110
43369SOL    HW132004  10.964   8.639  11.023
43369SOL    HW232005  11.019   8.733  11.128
43370SOL     OW32006   2.024   1.120   5.566
43370SOL    HW132007   2.075   1.078   5.497
43370SOL    HW232008   2.089   1.169   5.616
43371SOL     OW32009   5.922   7.759   7.052
43371SOL    HW132010   5.836   7.751   7.010
43371SOL    HW232011   5.903   7.798   7.137
43372SOL     OW32012  12.216  12.316   4.889
43372SOL    HW132013  12.165  12.298   4.809
43372SOL    HW232014  12.206  12.410   4.902
43373SOL     OW32015   3.081   9.425   3.939
43373SOL    HW132016   3.170   9.440   3.969
43373SOL    HW232017   3.027   9.439   4.017
43374SOL     OW32018   1.284   3.994   7.148
43374SOL    HW132019   1.221   3.976   7.218
43374SOL    HW232020   1.303   4.087   7.156
43375SOL     OW32021   4.798  10.059  11.516
43375SOL    HW132022   4.813  10.047  11.610
43375SOL    HW232023   4.822  10.150  11.500
43376SOL     OW32024  13.591  13.141   4.417
43376SOL    HW132025  13.655  13.102   4.477
43376SOL    HW232026  13.516  13.083   4.422
43377SOL     OW32027   2.191   8.430   1.006
43377SOL    HW132028   2.259   8.431   1.073
43377SOL    HW232029   2.239   8.435   0.923
43378SOL     OW32030   0.254   3.123  13.012
43378SOL    HW132031   0.321   3.179  13.052
43378SOL    HW232032   0.175   3.177  13.011
43379SOL     OW32033   1.712   9.471  13.065
43379SOL    HW132034   1.719   9.408  12.993
43379SOL    HW232035   1.712   9.556  13.023
43380SOL     OW32036  11.990   1.840   6.282
43380SOL    HW132037  11.910   1.869   6.327
43380SOL    HW232038  12.052   1.821   6.352
43381SOL     OW32039  11.374  13.468   6.498
43381SOL    HW132040  11.369  13.401   6.567
43381SOL    HW232041  11.456  13.513   6.515
43382SOL     OW32042  10.009  10.156   3.708
43382SOL    HW132043  10.080  10.128   3.766
43382SOL    HW232044   9.930  10.146   3.760
43383SOL     OW32045  12.425  11.156   4.766
43383SOL    HW132046  12.489  11.158   4.837
43383SOL    HW232047  12.370  11.233   4.782
43384SOL     OW32048   6.895   9.820  10.734
43384SOL    HW132049   6.985   9.792  10.751
43384SOL    HW232050   6.842   9.743  10.756
43385SOL     OW32051  13.932   0.523  12.848
43385SOL    HW132052  13.875   0.599  12.838
43385SOL    HW232053  13.991   0.527  12.772
43386SOL     OW32054   7.780   5.702   8.653
43386SOL    HW132055   7.773   5.760   8.729
43386SOL    HW232056   7.849   5.742   8.600
43387SOL     OW32057  12.390   7.613   7.680
43387SOL    HW132058  12.424   7.702   7.693
43387SOL    HW232059  12.384   7.577   7.768
43388SOL     OW32060  13.071  14.285   1.921
43388SOL    HW132061  13.042  14.360   1.973
43388SOL    HW232062  13.084  14.320   1.833
43389SOL     OW32063   8.171   3.391  14.649
43389SOL    HW132064   8.171   3.328  14.721
43389SOL    HW232065   8.234   3.355  14.586
43390SOL     OW32066  11.797   2.105   0.246
43390SOL    HW132067  11.819   2.103   0.339
43390SOL    HW232068  11.794   2.013   0.219
43391SOL     OW32069  11.181   4.251  12.847
43391SOL    HW132070  11.145   4.165  12.826
43391SOL    HW232071  11.172   4.301  12.766
43392SOL     OW32072   8.326   4.723   0.807
43392SOL    HW132073   8.416   4.694   0.792
43392SOL    HW232074   8.323   4.741   0.901
43393SOL     OW32075   4.883  10.761   9.032
43393SOL    HW132076   4.792  10.734   9.015
43393SOL    HW232077   4.882  10.791   9.123
43394SOL     OW32078   4.762   4.649   5.086
43394SOL    HW132079   4.819   4.725   5.074
43394SOL    HW232080   4.822   4.577   5.105
43395SOL     OW32081   0.484   4.121   2.448
43395SOL    HW132082   0.417   4.157   2.390
43395SOL    HW232083   0.555   4.096   2.390
43396SOL     OW32084   5.942   7.567   3.573
43396SOL    HW132085   5.897   7.636   3.524
43396SOL    HW232086   5.945   7.599   3.663
43397SOL     OW32087   3.698  13.552   3.513
43397SOL    HW132088   3.604  13.548   3.531
43397SOL    HW232089   3.709  13.505   3.431
43398SOL     OW32090  14.482  11.635   8.740
43398SOL    HW132091  14.543  11.632   8.666
43398SOL    HW232092  14.396  11.628   8.700
43399SOL     OW32093  13.539   3.725  11.111
43399SOL    HW132094  13.549   3.801  11.168
43399SOL    HW232095  13.626   3.713  11.072
43400SOL     OW32096  12.171   7.845  10.462
43400SOL    HW132097  12.146   7.774  10.522
43400SOL    HW232098  12.105   7.912  10.477
43401SOL     OW32099   0.110  13.641   8.048
43401SOL    HW132100   0.146  13.727   8.026
43401SOL    HW232101   0.109  13.594   7.964
43402SOL     OW32102   4.482   5.072  13.798
43402SOL    HW132103   4.530   5.010  13.854
43402SOL    HW232104   4.543   5.145  13.786
43403SOL     OW32105  13.740  14.616   0.544
43403SOL    HW132106  13.737  14.555   0.470
43403SOL    HW232107  13.830  14.647   0.547
43404SOL     OW32108   3.271  10.083  13.536
43404SOL    HW132109   3.330  10.091  13.611
43404SOL    HW232110   3.305  10.008  13.487
43405SOL     OW32111   9.185   4.346   0.119
43405SOL    HW132112   9.092   4.324   0.122
43405SOL    HW232113   9.216   4.307   0.037
43406SOL     OW32114  10.368   2.817   0.256
43406SOL    HW132115  10.340   2.818   0.347
43406SOL    HW232116  10.293   2.854   0.208
43407SOL     OW32117   0.043   7.099   2.726
43407SOL    HW132118   0.030   7.033   2.658
43407SOL    HW232119   0.091   7.053   2.795
43408SOL     OW32120  13.263   5.545  10.216
43408SOL    HW132121  13.302   5.576  10.297
43408SOL    HW232122  13.335   5.546  10.153
43409SOL     OW32123   7.837   4.894   0.950
43409SOL    HW132124   7.909   4.897   0.888
43409SOL    HW232125   7.776   4.961   0.920
43410SOL     OW32126  13.033   9.759   6.641
43410SOL    HW132127  12.945   9.791   6.657
43410SOL    HW232128  13.026   9.705   6.563
43411SOL     OW32129  10.049   0.429   6.715
43411SOL    HW132130   9.982   0.459   6.777
43411SOL    HW232131  10.028   0.337   6.700
43412SOL     OW32132   5.481   4.800   8.069
43412SOL    HW132133   5.440   4.867   8.123
43412SOL    HW232134   5.574   4.819   8.073
43413SOL     OW32135  12.734   5.233  12.522
43413SOL    HW132136  12.800   5.211  12.456
43413SOL    HW232137  12.687   5.151  12.537
43414SOL     OW32138   3.727   0.310  12.697
43414SOL    HW132139   3.657   0.262  12.741
43414SOL    HW232140   3.800   0.248  12.692
43415SOL     OW32141   8.289   9.537   3.499
43415SOL    HW132142   8.238   9.507   3.424
43415SOL    HW232143   8.246   9.497   3.575
43416SOL     OW32144   0.522  10.059  13.994
43416SOL    HW132145   0.527  10.139  14.047
43416SOL    HW232146   0.614  10.035  13.978
43417SOL     OW32147  12.946  12.771  14.772
43417SOL    HW132148  12.897  12.853  14.777
43417SOL    HW232149  12.890  12.712  14.721
43418SOL     OW32150   9.816   7.903  13.573
43418SOL    HW132151   9.780   7.986  13.545
43418SOL    HW232152   9.789   7.840  13.506
43419SOL     OW32153  11.546   6.031  14.712
43419SOL    HW132154  11.498   6.109  14.739
43419SOL    HW232155  11.550   6.037  14.616
43420SOL     OW32156  14.542  10.844   5.994
43420SOL    HW132157  14.528  10.936   5.972
43420SOL    HW232158  14.459  10.815   6.031
43421SOL     OW32159  11.990   0.671  12.976
43421SOL    HW132160  12.077   0.633  12.967
43421SOL    HW232161  12.004   0.765  12.966
43422SOL     OW32162  10.374   7.189  13.151
43422SOL    HW132163  10.416   7.233  13.225
43422SOL    HW232164  10.445   7.169  13.091
43423SOL     OW32165   3.439   6.934   9.425
43423SOL    HW132166   3.444   6.854   9.477
43423SOL    HW232167   3.435   7.005   9.489
43424SOL     OW32168   0.299   1.244   1.952
43424SOL    HW132169   0.220   1.200   1.984
43424SOL    HW232170   0.313   1.315   2.015
43425SOL     OW32171   4.623   6.878   4.856
43425SOL    HW132172   4.577   6.798   4.829
43425SOL    HW232173   4.566   6.949   4.827
43426SOL     OW32174  14.301   1.472   5.729
43426SOL    HW132175  14.347   1.388   5.729
43426SOL    HW232176  14.313   1.505   5.819
43427SOL     OW32177   3.878  13.018  14.807
43427SOL    HW132178   3.900  13.021  14.714
43427SOL    HW232179   3.782  13.012  14.809
43428SOL     OW32180  13.288  12.914   5.736
43428SOL    HW132181  13.317  13.003   5.717
43428SOL    HW232182  13.300  12.904   5.830
43429SOL     OW32183   7.522   4.872   2.518
43429SOL    HW132184   7.460   4.854   2.589
43429SOL    HW232185   7.600   4.905   2.562
43430SOL     OW32186  14.862   5.586   6.862
43430SOL    HW132187  14.839   5.568   6.953
43430SOL    HW232188  14.788   5.554   6.811
43431SOL     OW32189  14.858  12.872   8.742
43431SOL    HW132190   0.062  12.834   8.715
43431SOL    HW232191  14.860  12.868   8.837
43432SOL     OW32192   9.474   5.329  12.823
43432SOL    HW132193   9.385   5.347  12.853
43432SOL    HW232194   9.518   5.290  12.898
43433SOL     OW32195   0.317  12.218   0.586
43433SOL    HW132196   0.375  12.188   0.517
43433SOL    HW232197   0.363  12.195   0.667
43434SOL     OW32198   4.701   2.845   4.865
43434SOL    HW132199   4.680   2.892   4.946
43434SOL    HW232200   4.789   2.873   4.842
43435SOL     OW32201   5.890   0.874   9.475
43435SOL    HW132202   5.944   0.952   9.494
43435SOL    HW232203   5.809   0.890   9.524
43436SOL     OW32204  10.141  10.406   4.273
43436SOL    HW132205  10.194  10.330   4.249
43436SOL    HW232206  10.172  10.476   4.215
43437SOL     OW32207   5.719   3.534   4.059
43437SOL    HW132208   5.677   3.479   4.124
43437SOL    HW232209   5.725   3.480   3.981
43438SOL     OW32210   7.629  11.238   2.335
43438SOL    HW132211   7.557  11.224   2.396
43438SOL    HW232212   7.626  11.164   2.275
43439SOL     OW32213  10.909   7.480   2.868
43439SOL    HW132214  10.912   7.545   2.798
43439SOL    HW232215  11.001   7.470   2.895
43440SOL     OW32216  13.938   3.598   4.488
43440SOL    HW132217  13.995   3.627   4.418
43440SOL    HW232218  13.940   3.502   4.484
43441SOL     OW32219   5.482   6.513   6.045
43441SOL    HW132220   5.510   6.421   6.045
43441SOL    HW232221   5.390   6.510   6.018
43442SOL     OW32222  13.143   6.180   4.856
43442SOL    HW132223  13.105   6.257   4.899
43442SOL    HW232224  13.134   6.109   4.920
43443SOL     OW32225   4.552   8.138   9.541
43443SOL    HW132226   4.470   8.182   9.560
43443SOL    HW232227   4.534   8.085   9.463
43444SOL     OW32228   3.565   2.775  12.173
43444SOL    HW132229   3.522   2.852  12.210
43444SOL    HW232230   3.611   2.807  12.096
43445SOL     OW32231   1.225  10.813   8.023
43445SOL    HW132232   1.147  10.759   8.010
43445SOL    HW232233   1.191  10.895   8.059
43446SOL     OW32234  11.308   9.581  11.770
43446SOL    HW132235  11.243   9.592  11.701
43446SOL    HW232236  11.311   9.667  11.814
43447SOL     OW32237   5.686   6.932   7.321
43447SOL    HW132238   5.704   7.023   7.347
43447SOL    HW232239   5.624   6.940   7.249
43448SOL     OW32240   5.212  11.052   7.930
43448SOL    HW132241   5.152  10.993   7.884
43448SOL    HW232242   5.246  11.000   8.002
43449SOL     OW32243   8.745   6.792   2.467
43449SOL    HW132244   8.820   6.766   2.521
43449SOL    HW232245   8.669   6.783   2.525
43450SOL     OW32246   4.944   7.590   4.767
43450SOL    HW132247   4.907   7.640   4.695
43450SOL    HW232248   4.989   7.655   4.821
43451SOL     OW32249   5.445   7.702   2.199
43451SOL    HW132250   5.512   7.644   2.162
43451SOL    HW232251   5.437   7.673   2.290
43452SOL     OW32252  13.667  11.014  12.369
43452SOL    HW132253  13.732  11.034  12.437
43452SOL    HW232254  13.690  10.926  12.339
43453SOL     OW32255   5.981   2.922   3.291
43453SOL    HW132256   5.983   2.958   3.379
43453SOL    HW232257   5.902   2.867   3.289
43454SOL     OW32258   6.423  13.016   9.471
43454SOL    HW132259   6.472  13.049   9.547
43454SOL    HW232260   6.432  13.086   9.406
43455SOL     OW32261  12.346  13.721   2.358
43455SOL    HW132262  12.316  13.812   2.351
43455SOL    HW232263  12.426  13.718   2.306
43456SOL     OW32264   4.094   1.008   3.509
43456SOL    HW132265   4.061   1.084   3.462
43456SOL    HW232266   4.180   0.991   3.471
43457SOL     OW32267  12.259   9.934   7.336
43457SOL    HW132268  12.245   9.919   7.243
43457SOL    HW232269  12.245  10.028   7.348
43458SOL     OW32270  14.438   0.729   9.924
43458SOL    HW132271  14.437   0.762  10.014
43458SOL    HW232272  14.414   0.636   9.933
43459SOL     OW32273   1.365   3.265  14.606
43459SOL    HW132274   1.392   3.174  14.591
43459SOL    HW232275   1.447   3.314  14.611
43460SOL     OW32276   0.646   9.061   5.996
43460SOL    HW132277   0.679   8.971   5.997
43460SOL    HW232278   0.582   9.063   5.925
43461SOL     OW32279  14.127   8.580   2.369
43461SOL    HW132280  14.119   8.659   2.424
43461SOL    HW232281  14.038   8.559   2.343
43462SOL     OW32282   0.742   2.053  14.612
43462SOL    HW132283   0.754   2.062  14.706
43462SOL    HW232284   0.712   2.139  14.583
43463SOL     OW32285  10.775   3.898   4.520
43463SOL    HW132286  10.750   3.855   4.602
43463SOL    HW232287  10.861   3.861   4.499
43464SOL     OW32288  10.714   3.806  10.980
43464SOL    HW132289  10.698   3.872  11.047
43464SOL    HW232290  10.732   3.856  10.901
43465SOL     OW32291  11.276   1.205   5.274
43465SOL    HW132292  11.369   1.187   5.257
43465SOL    HW232293  11.251   1.269   5.207
43466SOL     OW32294   1.361   6.457   7.058
43466SOL    HW132295   1.437   6.401   7.041
43466SOL    HW232296   1.287   6.397   7.064
43467SOL     OW32297   3.870   3.554  11.362
43467SOL    HW132298   3.808   3.482  11.371
43467SOL    HW232299   3.951   3.513  11.332
43468SOL     OW32300   2.086   1.112   8.769
43468SOL    HW132301   1.993   1.096   8.787
43468SOL    HW232302   2.108   1.049   8.701
43469SOL     OW32303   6.312   1.167   0.186
43469SOL    HW132304   6.394   1.161   0.234
43469SOL    HW232305   6.253   1.213   0.245
43470SOL     OW32306   0.761   8.282   1.793
43470SOL    HW132307   0.847   8.271   1.752
43470SOL    HW232308   0.720   8.196   1.785
43471SOL     OW32309   6.830   4.692   6.196
43471SOL    HW132310   6.837   4.650   6.282
43471SOL    HW232311   6.750   4.745   6.202
43472SOL     OW32312   1.630  12.967   6.580
43472SOL    HW132313   1.602  12.969   6.672
43472SOL    HW232314   1.698  12.900   6.578
43473SOL     OW32315  10.385  12.670   8.652
43473SOL    HW132316  10.307  12.660   8.706
43473SOL    HW232317  10.443  12.726   8.704
43474SOL     OW32318   4.322   6.855   3.816
43474SOL    HW132319   4.280   6.853   3.903
43474SOL    HW232320   4.404   6.808   3.828
43475SOL     OW32321   8.528   3.972  11.916
43475SOL    HW132322   8.478   4.054  11.915
43475SOL    HW232323   8.547   3.955  11.824
43476SOL     OW32324   9.794  14.094   4.402
43476SOL    HW132325   9.841  14.176   4.385
43476SOL    HW232326   9.745  14.111   4.483
43477SOL     OW32327  10.974   0.212  13.990
43477SOL    HW132328  10.905   0.278  14.000
43477SOL    HW232329  10.981   0.200  13.895
43478SOL     OW32330  13.197  13.977   0.778
43478SOL    HW132331  13.197  13.922   0.856
43478SOL    HW232332  13.132  14.044   0.796
43479SOL     OW32333  14.721   3.703   6.588
43479SOL    HW132334  14.648   3.655   6.549
43479SOL    HW232335  14.724   3.786   6.540
43480SOL     OW32336   1.181   8.977   4.395
43480SOL    HW132337   1.091   9.009   4.383
43480SOL    HW232338   1.191   8.908   4.330
43481SOL     OW32339   5.253   9.390  12.385
43481SOL    HW132340   5.184   9.400  12.319
43481SOL    HW232341   5.306   9.317  12.353
43482SOL     OW32342   6.130   9.042   6.832
43482SOL    HW132343   6.174   9.079   6.908
43482SOL    HW232344   6.200   8.996   6.784
43483SOL     OW32345  11.366   7.195   9.789
43483SOL    HW132346  11.335   7.273   9.834
43483SOL    HW232347  11.457   7.215   9.766
43484SOL     OW32348  12.337   3.426   5.125
43484SOL    HW132349  12.337   3.378   5.208
43484SOL    HW232350  12.404   3.383   5.072
43485SOL     OW32351  11.087   5.657   5.101
43485SOL    HW132352  11.071   5.731   5.042
43485SOL    HW232353  11.182   5.656   5.114
43486SOL     OW32354   6.164   0.222   9.678
43486SOL    HW132355   6.087   0.172   9.704
43486SOL    HW232356   6.162   0.221   9.582
43487SOL     OW32357   7.191  12.757  14.280
43487SOL    HW132358   7.169  12.809  14.202
43487SOL    HW232359   7.205  12.669  14.246
43488SOL     OW32360   5.997   5.272   3.955
43488SOL    HW132361   6.021   5.183   3.980
43488SOL    HW232362   5.965   5.312   4.036
43489SOL     OW32363   1.505   4.811   7.912
43489SOL    HW132364   1.474   4.774   7.995
43489SOL    HW232365   1.474   4.750   7.846
43490SOL     OW32366   4.816   1.223   3.443
43490SOL    HW132367   4.902   1.181   3.440
43490SOL    HW232368   4.795   1.229   3.536
43491SOL     OW32369  14.561  10.990   3.129
43491SOL    HW132370  14.580  11.051   3.058
43491SOL    HW232371  14.504  11.039   3.189
43492SOL     OW32372   8.444   4.865  14.356
43492SOL    HW132373   8.469   4.776  14.379
43492SOL    HW232374   8.481   4.920  14.426
43493SOL     OW32375   4.862   6.856  13.716
43493SOL    HW132376   4.878   6.765  13.690
43493SOL    HW232377   4.790   6.885  13.659
43494SOL     OW32378   7.210   5.956   2.678
43494SOL    HW132379   7.304   5.959   2.657
43494SOL    HW232380   7.182   6.047   2.671
43495SOL     OW32381   9.597  11.446   1.530
43495SOL    HW132382   9.504  11.431   1.513
43495SOL    HW232383   9.638  11.443   1.443
43496SOL     OW32384   0.583  13.369   0.722
43496SOL    HW132385   0.557  13.356   0.631
43496SOL    HW232386   0.592  13.464   0.732
43497SOL     OW32387   1.091  12.649   7.192
43497SOL    HW132388   1.027  12.640   7.263
43497SOL    HW232389   1.042  12.623   7.113
43498SOL     OW32390  12.913  12.151   8.979
43498SOL    HW132391  12.820  12.161   8.961
43498SOL    HW232392  12.930  12.211   9.051
43499SOL     OW32393   5.702   7.220   6.360
43499SOL    HW132394   5.622   7.200   6.409
43499SOL    HW232395   5.773   7.203   6.423
43500SOL     OW32396   4.365   7.030  14.529
43500SOL    HW132397   4.445   7.012  14.579
43500SOL    HW232398   4.384   6.999  14.441
43501SOL     OW32399   9.126   4.486   3.706
43501SOL    HW132400   9.123   4.560   3.645
43501SOL    HW232401   9.085   4.518   3.786
43502SOL     OW32402   7.385   4.151   3.513
43502SOL    HW132403   7.421   4.063   3.502
43502SOL    HW232404   7.309   4.139   3.571
43503SOL     OW32405  13.467  14.791  13.825
43503SOL    HW132406  13.525  14.839  13.884
43503SOL    HW232407  13.383  14.837  13.830
43504SOL     OW32408  14.660  12.029   8.480
43504SOL    HW132409  14.697  12.107   8.521
43504SOL    HW232410  14.621  11.980   8.552
43505SOL     OW32411   9.430   3.552   4.765
43505SOL    HW132412   9.387   3.590   4.841
43505SOL    HW232413   9.392   3.598   4.690
43506SOL     OW32414   3.924   5.770  12.430
43506SOL    HW132415   3.960   5.698  12.379
43506SOL    HW232416   3.849   5.732  12.476
43507SOL     OW32417   2.404   7.237  13.639
43507SOL    HW132418   2.462   7.199  13.573
43507SOL    HW232419   2.438   7.205  13.722
43508SOL     OW32420   9.987  14.443  12.371
43508SOL    HW132421   9.992  14.393  12.290
43508SOL    HW232422  10.021  14.530  12.349
43509SOL     OW32423   1.853   0.579   9.259
43509SOL    HW132424   1.828   0.626   9.338
43509SOL    HW232425   1.941   0.609   9.240
43510SOL     OW32426   9.453   4.939   2.017
43510SOL    HW132427   9.409   4.990   1.948
43510SOL    HW232428   9.391   4.869   2.037
43511SOL     OW32429   8.514   4.115   2.906
43511SOL    HW132430   8.481   4.032   2.870
43511SOL    HW232431   8.499   4.178   2.836
43512SOL     OW32432   0.857  11.133   4.230
43512SOL    HW132433   0.873  11.042   4.255
43512SOL    HW232434   0.819  11.173   4.309
43513SOL     OW32435   9.631   6.644  12.318
43513SOL    HW132436   9.538   6.624  12.330
43513SOL    HW232437   9.657   6.688  12.399
43514SOL     OW32438  11.560   0.048  11.113
43514SOL    HW132439  11.480   0.021  11.069
43514SOL    HW232440  11.631   0.018  11.055
43515SOL     OW32441   2.289   2.865  14.027
43515SOL    HW132442   2.267   2.927  13.957
43515SOL    HW232443   2.337   2.795  13.983
43516SOL     OW32444   8.209   9.834   6.887
43516SOL    HW132445   8.274   9.841   6.957
43516SOL    HW232446   8.208   9.741   6.865
43517SOL     OW32447  10.669   7.290   8.815
43517SOL    HW132448  10.651   7.301   8.909
43517SOL    HW232449  10.583   7.278   8.775
43518SOL     OW32450  10.460  11.991   2.600
43518SOL    HW132451  10.459  11.903   2.639
43518SOL    HW232452  10.488  12.048   2.672
43519SOL     OW32453   3.297   2.149   1.865
43519SOL    HW132454   3.202   2.138   1.858
43519SOL    HW232455   3.319   2.117   1.952
43520SOL     OW32456   2.482   9.863   5.703
43520SOL    HW132457   2.392   9.832   5.712
43520SOL    HW232458   2.485   9.944   5.754
43521SOL     OW32459   6.089   0.193   2.841
43521SOL    HW132460   6.120   0.280   2.813
43521SOL    HW232461   6.005   0.210   2.883
43522SOL     OW32462  10.288  14.630  13.992
43522SOL    HW132463  10.235  14.698  14.034
43522SOL    HW232464  10.228  14.555  13.984
43523SOL     OW32465   4.558  13.833  11.825
43523SOL    HW132466   4.482  13.884  11.854
43523SOL    HW232467   4.629  13.860  11.883
43524SOL     OW32468   4.833  13.152   5.345
43524SOL    HW132469   4.791  13.125   5.427
43524SOL    HW232470   4.858  13.243   5.361
43525SOL     OW32471   6.164   0.533   8.449
43525SOL    HW132472   6.232   0.588   8.410
43525SOL    HW232473   6.212   0.467   8.498
43526SOL     OW32474   3.765  11.191   6.604
43526SOL    HW132475   3.834  11.164   6.663
43526SOL    HW232476   3.761  11.287   6.614
43527SOL     OW32477   1.785   7.958   6.831
43527SOL    HW132478   1.852   8.004   6.882
43527SOL    HW232479   1.722   7.928   6.897
43528SOL     OW32480   4.129   0.478   7.185
43528SOL    HW132481   4.046   0.432   7.169
43528SOL    HW232482   4.141   0.471   7.280
43529SOL     OW32483   4.491   0.233  11.893
43529SOL    HW132484   4.578   0.267  11.871
43529SOL    HW232485   4.446   0.306  11.934
43530SOL     OW32486   2.458   9.981   6.877
43530SOL    HW132487   2.435   9.888   6.875
43530SOL    HW232488   2.374  10.026   6.873
43531SOL     OW32489   6.041   1.026  13.727
43531SOL    HW132490   6.033   1.112  13.769
43531SOL    HW232491   5.974   0.973  13.770
43532SOL     OW32492   3.144   1.276   5.453
43532SOL    HW132493   3.140   1.183   5.435
43532SOL    HW232494   3.134   1.283   5.548
43533SOL     OW32495   4.334  14.471   7.148
43533SOL    HW132496   4.425  14.476   7.178
43533SOL    HW232497   4.288  14.426   7.219
43534SOL     OW32498  13.940  10.790   0.100
43534SOL    HW132499  13.943  10.838   0.183
43534SOL    HW232500  14.029  10.797   0.065
43535SOL     OW32501   2.380   1.983   6.583
43535SOL    HW132502   2.449   1.916   6.586
43535SOL    HW232503   2.386   2.026   6.668
43536SOL     OW32504   5.080   5.068   4.234
43536SOL    HW132505   5.017   5.126   4.279
43536SOL    HW232506   5.147   5.050   4.301
43537SOL     OW32507   5.477   1.986   0.374
43537SOL    HW132508   5.465   1.940   0.457
43537SOL    HW232509   5.563   1.958   0.343
43538SOL     OW32510  12.720   2.927   0.409
43538SOL    HW132511  12.774   2.920   0.487
43538SOL    HW232512  12.667   2.847   0.408
43539SOL     OW32513   5.654   8.877   0.516
43539SOL    HW132514   5.732   8.929   0.535
43539SOL    HW232515   5.688   8.796   0.478
43540SOL     OW32516   7.519  14.092  13.245
43540SOL    HW132517   7.480  14.180  13.253
43540SOL    HW232518   7.486  14.044  13.320
43541SOL     OW32519   4.512  13.816  14.358
43541SOL    HW132520   4.486  13.726  14.378
43541SOL    HW232521   4.445  13.870  14.398
43542SOL     OW32522   4.186   5.680   1.892
43542SOL    HW132523   4.282   5.685   1.892
43542SOL    HW232524   4.161   5.697   1.982
43543SOL     OW32525   2.963   2.043   5.926
43543SOL    HW132526   2.937   1.956   5.954
43543SOL    HW232527   3.033   2.028   5.862
43544SOL     OW32528  13.294  11.431   9.481
43544SOL    HW132529  13.352  11.508   9.481
43544SOL    HW232530  13.248  11.436   9.565
43545SOL     OW32531   6.513   8.261   1.894
43545SOL    HW132532   6.474   8.289   1.811
43545SOL    HW232533   6.601   8.298   1.893
43546SOL     OW32534  10.478   4.521   8.611
43546SOL    HW132535  10.494   4.615   8.626
43546SOL    HW232536  10.520   4.478   8.685
43547SOL     OW32537  13.104  10.638  13.879
43547SOL    HW132538  13.172  10.614  13.942
43547SOL    HW232539  13.145  10.705  13.824
43548SOL     OW32540   3.534   7.724  11.603
43548SOL    HW132541   3.511   7.693  11.691
43548SOL    HW232542   3.487   7.807  11.594
43549SOL     OW32543   8.515  12.574   7.630
43549SOL    HW132544   8.421  12.576   7.615
43549SOL    HW232545   8.525  12.599   7.722
43550SOL     OW32546  13.913   0.446  11.131
43550SOL    HW132547  13.947   0.378  11.073
43550SOL    HW232548  13.967   0.523  11.112
43551SOL     OW32549   2.145   5.592   6.252
43551SOL    HW132550   2.138   5.674   6.204
43551SOL    HW232551   2.208   5.540   6.202
43552SOL     OW32552   0.764   1.487  12.032
43552SOL    HW132553   0.790   1.513  12.120
43552SOL    HW232554   0.828   1.530  11.975
43553SOL     OW32555  10.133   9.094   6.802
43553SOL    HW132556  10.193   9.135   6.739
43553SOL    HW232557  10.078   9.037   6.748
43554SOL     OW32558  11.618   9.605   9.436
43554SOL    HW132559  11.626   9.516   9.400
43554SOL    HW232560  11.543   9.600   9.495
43555SOL     OW32561   3.198   2.462  14.586
43555SOL    HW132562   3.108   2.492  14.582
43555SOL    HW232563   3.250   2.536  14.555
43556SOL     OW32564   0.939   9.581   4.142
43556SOL    HW132565   0.971   9.494   4.119
43556SOL    HW232566   0.993   9.608   4.216
43557SOL     OW32567  12.681   5.936   5.478
43557SOL    HW132568  12.589   5.925   5.502
43557SOL    HW232569  12.720   5.851   5.498
43558SOL     OW32570   7.601  10.723  12.935
43558SOL    HW132571   7.569  10.667  13.005
43558SOL    HW232572   7.667  10.670  12.890
43559SOL     OW32573   4.726  13.899   5.740
43559SOL    HW132574   4.641  13.857   5.746
43559SOL    HW232575   4.742  13.934   5.828
43560SOL     OW32576   3.826   1.991   9.218
43560SOL    HW132577   3.874   1.909   9.228
43560SOL    HW232578   3.892   2.055   9.193
43561SOL     OW32579   3.280   0.439  14.318
43561SOL    HW132580   3.350   0.397  14.368
43561SOL    HW232581   3.265   0.380  14.244
43562SOL     OW32582   2.335   8.389  12.675
43562SOL    HW132583   2.263   8.452  12.676
43562SOL    HW232584   2.390   8.415  12.601
43563SOL     OW32585  14.593  10.394   5.083
43563SOL    HW132586  14.591  10.490   5.089
43563SOL    HW232587  14.683  10.371   5.103
43564SOL     OW32588  10.743  10.538   0.479
43564SOL    HW132589  10.768  10.511   0.391
43564SOL    HW232590  10.755  10.632   0.480
43565SOL     OW32591  14.680   0.199   3.417
43565SOL    HW132592  14.693   0.236   3.330
43565SOL    HW232593  14.760   0.152   3.436
43566SOL     OW32594  13.065   2.437   0.295
43566SOL    HW132595  13.144   2.383   0.285
43566SOL    HW232596  13.007   2.384   0.349
43567SOL     OW32597   0.739   4.830  12.269
43567SOL    HW132598   0.788   4.751  12.248
43567SOL    HW232599   0.785   4.868  12.343
43568SOL     OW32600  10.267   4.715   5.302
43568SOL    HW132601  10.214   4.676   5.233
43568SOL    HW232602  10.355   4.679   5.290
43569SOL     OW32603   7.864  12.398  13.960
43569SOL    HW132604   7.824  12.319  13.995
43569SOL    HW232605   7.958  12.384  13.970
43570SOL     OW32606  12.576  10.889   8.450
43570SOL    HW132607  12.638  10.958   8.475
43570SOL    HW232608  12.542  10.918   8.365
43571SOL     OW32609  13.697   3.873   9.301
43571SOL    HW132610  13.619   3.881   9.247
43571SOL    HW232611  13.758   3.938   9.266
43572SOL     OW32612   4.467   3.606   3.526
43572SOL    HW132613   4.506   3.531   3.570
43572SOL    HW232614   4.384   3.573   3.490
43573SOL     OW32615   6.978   1.598   3.493
43573SOL    HW132616   6.999   1.691   3.498
43573SOL    HW232617   7.053   1.555   3.535
43574SOL     OW32618   4.978   5.591   7.737
43574SOL    HW132619   5.001   5.647   7.810
43574SOL    HW232620   5.040   5.614   7.668
43575SOL     OW32621  11.755   4.501   1.815
43575SOL    HW132622  11.725   4.449   1.890
43575SOL    HW232623  11.689   4.485   1.748
43576SOL     OW32624   5.710  13.905  12.662
43576SOL    HW132625   5.635  13.952  12.698
43576SOL    HW232626   5.748  13.967  12.599
43577SOL     OW32627   3.490  11.466   0.014
43577SOL    HW132628   3.417  11.454  14.833
43577SOL    HW232629   3.463  11.538   0.071
43578SOL     OW32630   1.257  10.277   8.869
43578SOL    HW132631   1.181  10.275   8.927
43578SOL    HW232632   1.332  10.283   8.929
43579SOL     OW32633   0.715  12.887   3.908
43579SOL    HW132634   0.660  12.920   3.837
43579SOL    HW232635   0.653  12.863   3.977
43580SOL     OW32636   6.446   8.545   2.047
43580SOL    HW132637   6.537   8.573   2.055
43580SOL    HW232638   6.431   8.491   2.125
43581SOL     OW32639  14.289  10.959  14.615
43581SOL    HW132640  14.354  10.892  14.594
43581SOL    HW232641  14.340  11.035  14.643
43582SOL     OW32642  13.462   6.862  11.319
43582SOL    HW132643  13.445   6.893  11.230
43582SOL    HW232644  13.396   6.906  11.372
43583SOL     OW32645   6.592  11.225   0.798
43583SOL    HW132646   6.560  11.159   0.736
43583SOL    HW232647   6.631  11.292   0.742
43584SOL     OW32648   8.671   1.357   4.296
43584SOL    HW132649   8.659   1.447   4.326
43584SOL    HW232650   8.596   1.309   4.331
43585SOL     OW32651  14.772  14.095  10.706
43585SOL    HW132652  14.830  14.156  10.660
43585SOL    HW232653  14.831  14.033  10.749
43586SOL     OW32654  14.733   9.577  10.656
43586SOL    HW132655  14.764   9.532  10.735
43586SOL    HW232656  14.726   9.669  10.682
43587SOL     OW32657   3.532   4.848   2.719
43587SOL    HW132658   3.469   4.824   2.651
43587SOL    HW232659   3.484   4.840   2.801
43588SOL     OW32660   1.773  10.305   3.289
43588SOL    HW132661   1.770  10.397   3.315
43588SOL    HW232662   1.744  10.256   3.366
43589SOL     OW32663   6.827  11.185   9.350
43589SOL    HW132664   6.853  11.262   9.402
43589SOL    HW232665   6.744  11.210   9.310
43590SOL     OW32666   1.805   7.912  14.418
43590SOL    HW132667   1.874   7.945  14.476
43590SOL    HW232668   1.843   7.919  14.330
43591SOL     OW32669  13.383   3.552   7.609
43591SOL    HW132670  13.472   3.567   7.575
43591SOL    HW232671  13.375   3.457   7.614
43592SOL     OW32672   3.542  14.034   7.062
43592SOL    HW132673   3.510  14.006   6.976
43592SOL    HW232674   3.545  14.129   7.057
43593SOL     OW32675   7.290   0.337  13.787
43593SOL    HW132676   7.338   0.368  13.864
43593SOL    HW232677   7.256   0.416  13.745
43594SOL     OW32678   0.421   6.375  12.127
43594SOL    HW132679   0.500   6.429  12.135
43594SOL    HW232680   0.353   6.437  12.100
43595SOL     OW32681  13.404   5.653  14.025
43595SOL    HW132682  13.390   5.560  14.042
43595SOL    HW232683  13.373   5.667  13.935
43596SOL     OW32684   0.302   4.070  14.212
43596SOL    HW132685   0.351   4.065  14.130
43596SOL    HW232686   0.248   3.991  14.211
43597SOL     OW32687   7.939   4.273  11.472
43597SOL    HW132688   7.914   4.232  11.389
43597SOL    HW232689   7.882   4.350  11.479
43598SOL     OW32690  12.854   9.396  13.795
43598SOL    HW132691  12.853   9.479  13.748
43598SOL    HW232692  12.762   9.377  13.813
43599SOL     OW32693   8.754  12.983   6.522
43599SOL    HW132694   8.815  12.940   6.582
43599SOL    HW232695   8.710  13.049   6.576
43600SOL     OW32696   8.003   5.402   2.530
43600SOL    HW132697   8.080   5.347   2.547
43600SOL    HW232698   7.953   5.353   2.465
43601SOL     OW32699   9.881   3.471  12.337
43601SOL    HW132700   9.796   3.446  12.301
43601SOL    HW232701   9.884   3.566  12.328
43602SOL     OW32702   2.734   0.136   4.726
43602SOL    HW132703   2.744   0.059   4.669
43602SOL    HW232704   2.698   0.101   4.807
43603SOL     OW32705   3.634   5.128   5.893
43603SOL    HW132706   3.593   5.209   5.924
43603SOL    HW232707   3.613   5.063   5.960
43604SOL     OW32708   4.469  13.396   2.600
43604SOL    HW132709   4.536  13.367   2.538
43604SOL    HW232710   4.405  13.444   2.547
43605SOL     OW32711  12.846  10.867   4.119
43605SOL    HW132712  12.854  10.936   4.184
43605SOL    HW232713  12.936  10.849   4.091
43606SOL     OW32714   3.149   5.290  12.610
43606SOL    HW132715   3.184   5.323  12.527
43606SOL    HW232716   3.207   5.326  12.677
43607SOL     OW32717   3.219  14.550   2.585
43607SOL    HW132718   3.150  14.485   2.596
43607SOL    HW232719   3.300  14.499   2.588
43608SOL     OW32720  11.870   8.950   3.908
43608SOL    HW132721  11.869   9.042   3.882
43608SOL    HW232722  11.779   8.930   3.928
43609SOL     OW32723   5.855  12.594  14.296
43609SOL    HW132724   5.858  12.500  14.279
43609SOL    HW232725   5.946  12.624  14.290
43610SOL     OW32726  13.204   3.817   0.891
43610SOL    HW132727  13.265   3.887   0.865
43610SOL    HW232728  13.258   3.754   0.938
43611SOL     OW32729  13.300   6.530  14.804
43611SOL    HW132730  13.360   6.459  14.785
43611SOL    HW232731  13.353   6.609  14.797
43612SOL     OW32732   5.434  10.802   0.698
43612SOL    HW132733   5.486  10.722   0.687
43612SOL    HW232734   5.371  10.780   0.766
43613SOL     OW32735   0.146  11.428   4.647
43613SOL    HW132736   0.140  11.405   4.740
43613SOL    HW232737   0.230  11.473   4.640
43614SOL     OW32738   8.182   1.658  11.226
43614SOL    HW132739   8.270   1.673  11.190
43614SOL    HW232740   8.177   1.564  11.238
43615SOL     OW32741   3.741  14.748   4.429
43615SOL    HW132742   3.751  14.843   4.438
43615SOL    HW232743   3.653  14.737   4.392
43616SOL     OW32744  12.500  11.362   3.110
43616SOL    HW132745  12.561  11.401   3.172
43616SOL    HW232746  12.555  11.323   3.042
43617SOL     OW32747   8.146   3.310   9.333
43617SOL    HW132748   8.221   3.291   9.389
43617SOL    HW232749   8.097   3.377   9.381
43618SOL     OW32750   0.260  11.267   6.810
43618SOL    HW132751   0.272  11.247   6.903
43618SOL    HW232752   0.250  11.362   6.807
43619SOL     OW32753   2.103  13.450   4.707
43619SOL    HW132754   2.143  13.407   4.631
43619SOL    HW232755   2.173  13.452   4.773
43620SOL     OW32756   9.307   7.313   1.960
43620SOL    HW132757   9.289   7.406   1.974
43620SOL    HW232758   9.275   7.296   1.871
43621SOL     OW32759  10.942   3.920   0.991
43621SOL    HW132760  10.915   3.872   0.913
43621SOL    HW232761  10.969   4.006   0.958
43622SOL     OW32762  12.256   3.602  14.056
43622SOL    HW132763  12.218   3.610  14.144
43622SOL    HW232764  12.331   3.660  14.057
43623SOL     OW32765   6.568  12.034  14.246
43623SOL    HW132766   6.480  12.071  14.234
43623SOL    HW232767   6.620  12.074  14.177
43624SOL     OW32768   3.927  13.976   6.481
43624SOL    HW132769   4.002  13.919   6.500
43624SOL    HW232770   3.967  14.058   6.452
43625SOL     OW32771  12.174   2.428   0.323
43625SOL    HW132772  12.168   2.373   0.245
43625SOL    HW232773  12.115   2.386   0.386
43626SOL     OW32774   3.246   2.826   3.748
43626SOL    HW132775   3.301   2.753   3.778
43626SOL    HW232776   3.264   2.897   3.810
43627SOL     OW32777  12.112   6.780   9.559
43627SOL    HW132778  12.056   6.716   9.603
43627SOL    HW232779  12.105   6.759   9.466
43628SOL     OW32780  13.904   6.708   9.881
43628SOL    HW132781  13.985   6.717   9.830
43628SOL    HW232782  13.934   6.693   9.970
43629SOL     OW32783   8.956  14.216   8.964
43629SOL    HW132784   8.863  14.194   8.978
43629SOL    HW232785   8.954  14.299   8.917
43630SOL     OW32786   6.798   7.610  10.591
43630SOL    HW132787   6.842   7.530  10.618
43630SOL    HW232788   6.821   7.621  10.499
43631SOL     OW32789   9.453   5.491   7.316
43631SOL    HW132790   9.503   5.571   7.330
43631SOL    HW232791   9.484   5.458   7.231
43632SOL     OW32792   3.831   7.044  13.243
43632SOL    HW132793   3.809   7.032  13.335
43632SOL    HW232794   3.810   6.960  13.201
43633SOL     OW32795  13.784  13.855   9.975
43633SOL    HW132796  13.836  13.824  10.050
43633SOL    HW232797  13.766  13.775   9.925
43634SOL     OW32798  14.607   4.567   0.383
43634SOL    HW132799  14.614   4.516   0.303
43634SOL    HW232800  14.513   4.582   0.394
43635SOL     OW32801   1.986   1.971  11.269
43635SOL    HW132802   1.983   2.036  11.199
43635SOL    HW232803   1.894   1.950  11.287
43636SOL     OW32804  12.550   9.006   8.646
43636SOL    HW132805  12.513   9.062   8.578
43636SOL    HW232806  12.568   9.064   8.719
43637SOL     OW32807   7.314  12.380   0.954
43637SOL    HW132808   7.391  12.436   0.961
43637SOL    HW232809   7.258  12.407   1.027
43638SOL     OW32810   2.131  11.411   6.808
43638SOL    HW132811   2.083  11.424   6.890
43638SOL    HW232812   2.162  11.320   6.813
43639SOL     OW32813  10.381   9.291   0.906
43639SOL    HW132814  10.375   9.196   0.909
43639SOL    HW232815  10.472   9.310   0.931
43640SOL     OW32816  13.647   4.040   2.230
43640SOL    HW132817  13.554   4.024   2.247
43640SOL    HW232818  13.650   4.126   2.188
43641SOL     OW32819  12.317   7.522   9.827
43641SOL    HW132820  12.402   7.517   9.784
43641SOL    HW232821  12.335   7.563   9.912
43642SOL     OW32822   0.709  12.693   0.401
43642SOL    HW132823   0.769  12.682   0.475
43642SOL    HW232824   0.689  12.787   0.400
43643SOL     OW32825  11.960   5.870  10.599
43643SOL    HW132826  11.886   5.880  10.658
43643SOL    HW232827  12.033   5.911  10.645
43644SOL     OW32828   5.231   0.811   4.087
43644SOL    HW132829   5.228   0.721   4.054
43644SOL    HW232830   5.297   0.854   4.033
43645SOL     OW32831   0.164   4.741   6.735
43645SOL    HW132832   0.093   4.688   6.771
43645SOL    HW232833   0.135   4.831   6.745
43646SOL     OW32834  10.647   7.623   3.749
43646SOL    HW132835  10.587   7.698   3.755
43646SOL    HW232836  10.688   7.618   3.836
43647SOL     OW32837  13.513   5.011   2.708
43647SOL    HW132838  13.577   4.990   2.776
43647SOL    HW232839  13.428   4.985   2.746
43648SOL     OW32840  14.493  12.198   0.778
43648SOL    HW132841  14.423  12.198   0.843
43648SOL    HW232842  14.567  12.156   0.822
43649SOL     OW32843   6.708   4.093  13.341
43649SOL    HW132844   6.715   4.099  13.436
43649SOL    HW232845   6.798   4.080  13.311
43650SOL     OW32846   9.118  10.013   7.977
43650SOL    HW132847   9.210  10.033   7.999
43650SOL    HW232848   9.124   9.951   7.905
43651SOL     OW32849   8.583  12.969   8.217
43651SOL    HW132850   8.666  12.927   8.195
43651SOL    HW232851   8.591  13.058   8.183
43652SOL     OW32852  13.985   5.399  14.120
43652SOL    HW132853  13.936   5.469  14.077
43652SOL    HW232854  13.979   5.325  14.059
43653SOL     OW32855  10.419   9.493   1.103
43653SOL    HW132856  10.407   9.419   1.044
43653SOL    HW232857  10.372   9.565   1.061
43654SOL     OW32858   4.522  13.597  13.108
43654SOL    HW132859   4.505  13.565  13.197
43654SOL    HW232860   4.445  13.569  13.058
43655SOL     OW32861   2.345   2.330   7.093
43655SOL    HW132862   2.419   2.390   7.089
43655SOL    HW232863   2.290   2.364   7.164
43656SOL     OW32864   9.800   5.564   2.855
43656SOL    HW132865   9.768   5.482   2.818
43656SOL    HW232866   9.793   5.553   2.950
43657SOL     OW32867   4.350   5.700   2.953
43657SOL    HW132868   4.271   5.716   3.005
43657SOL    HW232869   4.344   5.761   2.880
43658SOL     OW32870   0.513  11.435  13.261
43658SOL    HW132871   0.592  11.483  13.236
43658SOL    HW232872   0.453  11.446  13.187
43659SOL     OW32873   4.673   3.107   6.769
43659SOL    HW132874   4.762   3.110   6.733
43659SOL    HW232875   4.656   3.014   6.782
43660SOL     OW32876  13.464  14.049   7.701
43660SOL    HW132877  13.521  14.032   7.776
43660SOL    HW232878  13.459  14.145   7.696
43661SOL     OW32879   9.389  10.018  12.965
43661SOL    HW132880   9.474  10.050  12.935
43661SOL    HW232881   9.374  10.064  13.048
43662SOL     OW32882   3.300  14.121   0.209
43662SOL    HW132883   3.252  14.196   0.242
43662SOL    HW232884   3.384  14.157   0.180
43663SOL     OW32885   2.426   8.877   5.442
43663SOL    HW132886   2.452   8.965   5.471
43663SOL    HW232887   2.509   8.832   5.427
43664SOL     OW32888   3.230   3.563   2.815
43664SOL    HW132889   3.165   3.510   2.770
43664SOL    HW232890   3.193   3.578   2.902
43665SOL     OW32891   6.044   6.040   8.104
43665SOL    HW132892   6.121   5.993   8.072
43665SOL    HW232893   6.059   6.049   8.198
43666SOL     OW32894  13.319   0.005   9.436
43666SOL    HW132895  13.248   0.040   9.382
43666SOL    HW232896  13.278  14.817   9.489
43667SOL     OW32897  10.466  13.027   4.868
43667SOL    HW132898  10.526  13.028   4.794
43667SOL    HW232899  10.496  13.099   4.924
43668SOL     OW32900   2.799   6.044  13.325
43668SOL    HW132901   2.894   6.034  13.336
43668SOL    HW232902   2.769   6.078  13.409
43669SOL     OW32903  11.242   6.864   7.048
43669SOL    HW132904  11.328   6.893   7.079
43669SOL    HW232905  11.248   6.867   6.953
43670SOL     OW32906   2.975   7.071   1.918
43670SOL    HW132907   2.976   7.007   1.846
43670SOL    HW232908   3.001   7.020   1.995
43671SOL     OW32909   7.977   5.965  14.114
43671SOL    HW132910   7.949   5.957  14.204
43671SOL    HW232911   7.937   6.046  14.083
43672SOL     OW32912   6.024   4.886  12.524
43672SOL    HW132913   6.013   4.793  12.502
43672SOL    HW232914   6.039   4.929  12.440
43673SOL     OW32915  13.191   2.386   1.937
43673SOL    HW132916  13.109   2.422   1.903
43673SOL    HW232917  13.197   2.421   2.025
43674SOL     OW32918  14.602   6.995  14.163
43674SOL    HW132919  14.521   7.035  14.131
43674SOL    HW232920  14.650   7.067  14.204
43675SOL     OW32921  11.118  11.527   5.207
43675SOL    HW132922  11.160  11.441   5.202
43675SOL    HW232923  11.078  11.530   5.293
43676SOL     OW32924   9.412  11.614   4.157
43676SOL    HW132925   9.381  11.670   4.086
43676SOL    HW232926   9.491  11.572   4.123
43677SOL     OW32927   4.655   9.267   7.257
43677SOL    HW132928   4.677   9.244   7.167
43677SOL    HW232929   4.667   9.186   7.306
43678SOL     OW32930  10.330  10.680   0.471
43678SOL    HW132931  10.253  10.630   0.444
43678SOL    HW232932  10.313  10.703   0.563
43679SOL     OW32933   5.314  13.831   8.196
43679SOL    HW132934   5.245  13.794   8.252
43679SOL    HW232935   5.278  13.914   8.165
43680SOL     OW32936  11.526  13.928   6.039
43680SOL    HW132937  11.546  13.979   6.117
43680SOL    HW232938  11.452  13.872   6.065
43681SOL     OW32939   2.195   2.486  12.852
43681SOL    HW132940   2.204   2.573  12.890
43681SOL    HW232941   2.243   2.491  12.769
43682SOL     OW32942   4.574   9.618   0.716
43682SOL    HW132943   4.605   9.533   0.686
43682SOL    HW232944   4.645   9.652   0.770
43683SOL     OW32945   7.935  11.084   4.409
43683SOL    HW132946   7.928  11.065   4.502
43683SOL    HW232947   7.887  11.166   4.397
43684SOL     OW32948   2.998   2.891   7.344
43684SOL    HW132949   3.022   2.809   7.387
43684SOL    HW232950   3.060   2.955   7.378
43685SOL     OW32951   4.629   4.051   5.230
43685SOL    HW132952   4.599   4.103   5.156
43685SOL    HW232953   4.562   3.983   5.240
43686SOL     OW32954   7.117   2.762   0.574
43686SOL    HW132955   7.084   2.829   0.514
43686SOL    HW232956   7.039   2.731   0.620
43687SOL     OW32957  10.718  12.694   2.113
43687SOL    HW132958  10.787  12.681   2.047
43687SOL    HW232959  10.757  12.753   2.177
43688SOL     OW32960  12.982   5.340  10.199
43688SOL    HW132961  13.056   5.380  10.244
43688SOL    HW232962  13.020   5.301  10.120
43689SOL     OW32963   2.245   1.342   3.134
43689SOL    HW132964   2.228   1.251   3.107
43689SOL    HW232965   2.301   1.333   3.212
43690SOL     OW32966  13.734   9.661  12.420
43690SOL    HW132967  13.741   9.599  12.348
43690SOL    HW232968  13.663   9.628  12.475
43691SOL     OW32969   4.700  13.256  12.114
43691SOL    HW132970   4.749  13.196  12.170
43691SOL    HW232971   4.638  13.299  12.173
43692SOL     OW32972   8.660  11.409   2.742
43692SOL    HW132973   8.620  11.342   2.685
43692SOL    HW232974   8.601  11.484   2.735
43693SOL     OW32975  13.635   7.560  11.580
43693SOL    HW132976  13.573   7.495  11.614
43693SOL    HW232977  13.674   7.518  11.503
43694SOL     OW32978   6.304   2.863   6.022
43694SOL    HW132979   6.340   2.777   6.002
43694SOL    HW232980   6.212   2.858   5.996
43695SOL     OW32981  13.703   8.262  10.849
43695SOL    HW132982  13.737   8.186  10.898
43695SOL    HW232983  13.618   8.233  10.817
43696SOL     OW32984  13.810   2.464   3.031
43696SOL    HW132985  13.794   2.547   3.075
43696SOL    HW232986  13.890   2.430   3.070
43697SOL     OW32987  14.239   1.335   1.682
43697SOL    HW132988  14.155   1.367   1.650
43697SOL    HW232989  14.243   1.245   1.650
43698SOL     OW32990   0.544  14.596  11.225
43698SOL    HW132991   0.565  14.545  11.147
43698SOL    HW232992   0.499  14.535  11.283
43699SOL     OW32993   4.381   6.693   1.089
43699SOL    HW132994   4.314   6.635   1.126
43699SOL    HW232995   4.462   6.643   1.095
43700SOL     OW32996  14.149  13.244   7.608
43700SOL    HW132997  14.111  13.173   7.558
43700SOL    HW232998  14.219  13.278   7.553
43701SOL     OW32999   5.416  12.908   8.870
43701SOL    HW133000   5.330  12.877   8.842
43701SOL    HW233001   5.468  12.828   8.878
43702SOL     OW33002  13.064  14.030  11.270
43702SOL    HW133003  12.986  14.064  11.225
43702SOL    HW233004  13.043  14.038  11.363
43703SOL     OW33005   2.881  10.130   8.118
43703SOL    HW133006   2.976  10.135   8.126
43703SOL    HW233007   2.852  10.094   8.202
43704SOL     OW33008   7.456   0.847  14.873
43704SOL    HW133009   7.404   0.779   0.036
43704SOL    HW233010   7.482   0.906   0.064
43705SOL     OW33011  11.277   7.637   2.472
43705SOL    HW133012  11.231   7.720   2.458
43705SOL    HW233013  11.291   7.602   2.384
43706SOL     OW33014   8.955   5.197   1.240
43706SOL    HW133015   9.015   5.247   1.185
43706SOL    HW233016   8.906   5.142   1.179
43707SOL     OW33017   4.153   4.990   0.395
43707SOL    HW133018   4.215   5.059   0.421
43707SOL    HW233019   4.087   4.991   0.464
43708SOL     OW33020   5.003  12.542  10.848
43708SOL    HW133021   4.954  12.535  10.930
43708SOL    HW233022   5.052  12.459  10.843
43709SOL     OW33023  14.242   0.140  13.790
43709SOL    HW133024  14.309   0.099  13.845
43709SOL    HW233025  14.290   0.207  13.740
43710SOL     OW33026  14.063   6.532   3.841
43710SOL    HW133027  13.997   6.575   3.787
43710SOL    HW233028  14.097   6.601   3.898
43711SOL     OW33029   5.042  13.930   8.549
43711SOL    HW133030   5.071  13.895   8.465
43711SOL    HW233031   5.071  13.865   8.613
43712SOL     OW33032  12.465   8.528  10.007
43712SOL    HW133033  12.505   8.613   9.988
43712SOL    HW233034  12.425   8.501   9.924
43713SOL     OW33035   8.451  13.487   0.422
43713SOL    HW133036   8.368  13.532   0.441
43713SOL    HW233037   8.432  13.434   0.345
43714SOL     OW33038   3.389   1.003  14.272
43714SOL    HW133039   3.372   1.049  14.355
43714SOL    HW233040   3.439   0.926  14.298
43715SOL     OW33041   6.559   8.787   7.732
43715SOL    HW133042   6.494   8.815   7.796
43715SOL    HW233043   6.518   8.715   7.685
43716SOL     OW33044   6.308   7.889  11.895
43716SOL    HW133045   6.224   7.855  11.866
43716SOL    HW233046   6.290   7.981  11.917
43717SOL     OW33047   9.546   2.153   5.779
43717SOL    HW133048   9.610   2.210   5.823
43717SOL    HW233049   9.593   2.118   5.704
43718SOL     OW33050   1.179  13.636   2.511
43718SOL    HW133051   1.259  13.618   2.561
43718SOL    HW233052   1.109  13.596   2.564
43719SOL     OW33053  14.513   7.983   0.084
43719SOL    HW133054  14.557   8.054   0.037
43719SOL    HW233055  14.582   7.940   0.133
43720SOL     OW33056  13.891   3.690  14.049
43720SOL    HW133057  13.833   3.617  14.029
43720SOL    HW233058  13.958   3.687  13.980
43721SOL     OW33059   9.505   1.965   2.453
43721SOL    HW133060   9.509   1.989   2.546
43721SOL    HW233061   9.488   2.047   2.407
43722SOL     OW33062   9.382   8.254   2.937
43722SOL    HW133063   9.290   8.229   2.945
43722SOL    HW233064   9.412   8.266   3.027
43723SOL     OW33065   7.360   8.906   3.876
43723SOL    HW133066   7.343   8.815   3.899
43723SOL    HW233067   7.419   8.938   3.945
43724SOL     OW33068   3.935   2.048  11.682
43724SOL    HW133069   4.014   2.077  11.726
43724SOL    HW233070   3.878   2.017  11.752
43725SOL     OW33071  10.683  10.078  12.890
43725SOL    HW133072  10.768  10.055  12.927
43725SOL    HW233073  10.637  10.121  12.962
43726SOL     OW33074   1.655   8.560  13.258
43726SOL    HW133075   1.698   8.640  13.290
43726SOL    HW233076   1.579   8.550  13.315
43727SOL     OW33077   5.605  14.431   3.070
43727SOL    HW133078   5.641  14.354   3.114
43727SOL    HW233079   5.567  14.396   2.989
43728SOL     OW33080  12.228   5.114  14.324
43728SOL    HW133081  12.163   5.180  14.347
43728SOL    HW233082  12.224   5.107  14.229
43729SOL     OW33083   8.936   1.951   4.273
43729SOL    HW133084   8.986   2.003   4.210
43729SOL    HW233085   8.871   1.904   4.219
43730SOL     OW33086   6.808  10.298   2.969
43730SOL    HW133087   6.869  10.260   3.031
43730SOL    HW233088   6.806  10.392   2.991
43731SOL     OW33089   1.844   2.798   4.729
43731SOL    HW133090   1.787   2.863   4.687
43731SOL    HW233091   1.892   2.758   4.657
43732SOL     OW33092   0.060  13.237   2.634
43732SOL    HW133093   0.010  13.307   2.591
43732SOL    HW233094   0.036  13.158   2.585
43733SOL     OW33095  12.705  14.194   8.153
43733SOL    HW133096  12.739  14.161   8.070
43733SOL    HW233097  12.777  14.245   8.190
43734SOL     OW33098   5.205  10.139  13.541
43734SOL    HW133099   5.262  10.100  13.475
43734SOL    HW233100   5.145  10.195  13.492
43735SOL     OW33101   7.210   7.204   1.700
43735SOL    HW133102   7.168   7.118   1.697
43735SOL    HW233103   7.225   7.221   1.793
43736SOL     OW33104  11.326  11.062   1.060
43736SOL    HW133105  11.359  11.143   1.098
43736SOL    HW233106  11.354  10.993   1.120
43737SOL     OW33107   3.956   7.164   0.132
43737SOL    HW133108   3.874   7.117   0.118
43737SOL    HW233109   4.025   7.100   0.115
43738SOL     OW33110  13.303   2.101  10.195
43738SOL    HW133111  13.308   2.148  10.112
43738SOL    HW233112  13.248   2.025  10.176
43739SOL     OW33113   2.480   7.740  14.472
43739SOL    HW133114   2.429   7.715  14.549
43739SOL    HW233115   2.562   7.692  14.482
43740SOL     OW33116   6.286   4.699   3.296
43740SOL    HW133117   6.259   4.747   3.374
43740SOL    HW233118   6.316   4.615   3.328
43741SOL     OW33119   8.571   2.114  12.645
43741SOL    HW133120   8.615   2.049  12.589
43741SOL    HW233121   8.594   2.199  12.605
43742SOL     OW33122  14.520   2.580   4.177
43742SOL    HW133123  14.475   2.543   4.101
43742SOL    HW233124  14.569   2.654   4.143
43743SOL     OW33125   0.258   1.316   6.914
43743SOL    HW133126   0.265   1.370   6.993
43743SOL    HW233127   0.191   1.358   6.861
43744SOL     OW33128  13.801  12.730   0.997
43744SOL    HW133129  13.763  12.806   0.953
43744SOL    HW233130  13.876  12.707   0.943
43745SOL     OW33131  10.390   9.127  11.555
43745SOL    HW133132  10.310   9.161  11.596
43745SOL    HW233133  10.456   9.195  11.571
43746SOL     OW33134  13.330   0.500   5.158
43746SOL    HW133135  13.291   0.500   5.070
43746SOL    HW233136  13.303   0.416   5.196
43747SOL     OW33137   2.940  14.062   7.010
43747SOL    HW133138   3.018  14.008   7.022
43747SOL    HW233139   2.949  14.132   7.075
43748SOL     OW33140  10.066   8.257  14.042
43748SOL    HW133141   9.979   8.296  14.052
43748SOL    HW233142  10.055   8.191  13.975
43749SOL     OW33143   1.735   8.432  11.943
43749SOL    HW133144   1.704   8.467  11.859
43749SOL    HW233145   1.715   8.502  12.006
43750SOL     OW33146  13.724   3.924   5.664
43750SOL    HW133147  13.700   3.958   5.578
43750SOL    HW233148  13.711   3.829   5.657
43751SOL     OW33149   3.267  11.921   8.279
43751SOL    HW133150   3.179  11.960   8.273
43751SOL    HW233151   3.287  11.896   8.189
43752SOL     OW33152   4.044   5.772  11.609
43752SOL    HW133153   4.051   5.867  11.596
43752SOL    HW233154   4.017   5.738  11.524
43753SOL     OW33155   9.467   2.076   2.699
43753SOL    HW133156   9.486   2.169   2.710
43753SOL    HW233157   9.444   2.045   2.786
43754SOL     OW33158  11.657  14.193   2.688
43754SOL    HW133159  11.753  14.200   2.683
43754SOL    HW233160  11.630  14.271   2.736
43755SOL     OW33161   9.051   5.735   7.106
43755SOL    HW133162   8.990   5.801   7.073
43755SOL    HW233163   9.110   5.719   7.032
43756SOL     OW33164   5.309   2.850  10.012
43756SOL    HW133165   5.368   2.793   9.963
43756SOL    HW233166   5.235   2.793  10.034
43757SOL     OW33167  10.411   2.069   4.103
43757SOL    HW133168  10.321   2.096   4.123
43757SOL    HW233169  10.462   2.101   4.177
43758SOL     OW33170  11.482  12.047   1.971
43758SOL    HW133171  11.400  12.070   1.928
43758SOL    HW233172  11.457  12.003   2.051
43759SOL     OW33173   0.847   9.556   0.190
43759SOL    HW133174   0.932   9.532   0.227
43759SOL    HW233175   0.791   9.572   0.266
43760SOL     OW33176   2.444  14.289   5.941
43760SOL    HW133177   2.505  14.259   6.008
43760SOL    HW233178   2.500  14.329   5.874
43761SOL     OW33179   0.304   7.551   4.651
43761SOL    HW133180   0.250   7.488   4.602
43761SOL    HW233181   0.393   7.538   4.618
43762SOL     OW33182   5.252   3.828   7.959
43762SOL    HW133183   5.314   3.834   8.032
43762SOL    HW233184   5.249   3.916   7.922
43763SOL     OW33185   2.414  10.694  14.785
43763SOL    HW133186   2.485  10.674  14.847
43763SOL    HW233187   2.401  10.612  14.737
43764SOL     OW33188   7.469   2.745   0.023
43764SOL    HW133189   7.487   2.705   0.108
43764SOL    HW233190   7.475   2.673  14.841
43765SOL     OW33191  14.276  13.477   3.145
43765SOL    HW133192  14.290  13.568   3.120
43765SOL    HW233193  14.364  13.442   3.159
43766SOL     OW33194   2.073   0.559   7.051
43766SOL    HW133195   2.018   0.632   7.079
43766SOL    HW233196   2.089   0.574   6.958
43767SOL     OW33197  14.227   4.781  13.836
43767SOL    HW133198  14.293   4.761  13.769
43767SOL    HW233199  14.273   4.767  13.919
43768SOL     OW33200   4.283   0.658   0.883
43768SOL    HW133201   4.211   0.719   0.866
43768SOL    HW233202   4.334   0.658   0.802
43769SOL     OW33203   7.983   1.858   8.542
43769SOL    HW133204   7.911   1.833   8.484
43769SOL    HW233205   8.062   1.840   8.492
43770SOL     OW33206  13.882  11.077   4.296
43770SOL    HW133207  13.934  11.148   4.259
43770SOL    HW233208  13.793  11.111   4.299
43771SOL     OW33209   7.208   6.408   8.190
43771SOL    HW133210   7.273   6.474   8.166
43771SOL    HW233211   7.230   6.332   8.135
43772SOL     OW33212  10.138  11.914  11.899
43772SOL    HW133213  10.215  11.875  11.858
43772SOL    HW233214  10.172  11.955  11.979
43773SOL     OW33215   7.815   2.928  12.755
43773SOL    HW133216   7.792   2.997  12.693
43773SOL    HW233217   7.886   2.881  12.711
43774SOL     OW33218   3.381   2.312   0.224
43774SOL    HW133219   3.450   2.326   0.160
43774SOL    HW233220   3.413   2.241   0.280
43775SOL     OW33221   3.396  10.039   5.326
43775SOL    HW133222   3.307  10.076   5.320
43775SOL    HW233223   3.435  10.084   5.401
43776SOL     OW33224  13.312   7.273   7.170
43776SOL    HW133225  13.292   7.233   7.085
43776SOL    HW233226  13.407   7.276   7.173
43777SOL     OW33227  11.014   9.196   5.067
43777SOL    HW133228  11.089   9.153   5.026
43777SOL    HW233229  10.989   9.137   5.139
43778SOL     OW33230   8.666   8.173  12.756
43778SOL    HW133231   8.657   8.085  12.792
43778SOL    HW233232   8.750   8.204  12.789
43779SOL     OW33233   5.715   4.012   4.360
43779SOL    HW133234   5.672   3.991   4.443
43779SOL    HW233235   5.733   3.927   4.321
43780SOL     OW33236   7.874   3.114   8.551
43780SOL    HW133237   7.826   3.198   8.548
43780SOL    HW233238   7.965   3.139   8.561
43781SOL     OW33239   5.251   2.924   8.626
43781SOL    HW133240   5.246   3.018   8.639
43781SOL    HW233241   5.277   2.913   8.534
43782SOL     OW33242   2.176  10.239  11.556
43782SOL    HW133243   2.175  10.250  11.652
43782SOL    HW233244   2.147  10.149  11.542
43783SOL     OW33245   5.104   9.457  13.790
43783SOL    HW133246   5.199   9.461  13.793
43783SOL    HW233247   5.075   9.543  13.820
43784SOL     OW33248   0.594   2.373   0.304
43784SOL    HW133249   0.617   2.457   0.264
43784SOL    HW233250   0.574   2.395   0.395
43785SOL     OW33251   3.797   2.794   3.886
43785SOL    HW133252   3.838   2.773   3.970
43785SOL    HW233253   3.860   2.850   3.841
43786SOL     OW33254  10.014  14.533   0.997
43786SOL    HW133255   9.934  14.583   1.011
43786SOL    HW233256  10.017  14.518   0.902
43787SOL     OW33257  14.087   9.139  13.656
43787SOL    HW133258  14.037   9.063  13.687
43787SOL    HW233259  14.021   9.208  13.647
43788SOL     OW33260  13.372  12.001   4.603
43788SOL    HW133261  13.296  11.942   4.606
43788SOL    HW233262  13.378  12.026   4.511
43789SOL     OW33263   0.105  10.792  14.704
43789SOL    HW133264   0.069  10.721  14.755
43789SOL    HW233265   0.127  10.753  14.619
43790SOL     OW33266   1.619   4.919   2.492
43790SOL    HW133267   1.571   4.999   2.509
43790SOL    HW233268   1.624   4.913   2.396
43791SOL     OW33269  12.606   8.805  12.328
43791SOL    HW133270  12.546   8.830  12.398
43791SOL    HW233271  12.626   8.713  12.346
43792SOL     OW33272   1.949   3.977  12.635
43792SOL    HW133273   2.034   4.000  12.673
43792SOL    HW233274   1.947   4.022  12.551
43793SOL     OW33275   7.866  13.250   4.235
43793SOL    HW133276   7.881  13.321   4.296
43793SOL    HW233277   7.927  13.181   4.263
43794SOL     OW33278   0.723   4.381  10.310
43794SOL    HW133279   0.696   4.430  10.233
43794SOL    HW233280   0.669   4.301  10.307
43795SOL     OW33281   0.149  14.872   7.246
43795SOL    HW133282   0.211  14.841   7.181
43795SOL    HW233283   0.191  14.853   7.330
43796SOL     OW33284   9.853   8.025   3.168
43796SOL    HW133285   9.789   8.092   3.194
43796SOL    HW233286   9.801   7.958   3.123
43797SOL     OW33287   3.340  13.677   6.565
43797SOL    HW133288   3.397  13.650   6.637
43797SOL    HW233289   3.346  13.606   6.502
43798SOL     OW33290   0.980  12.321   3.228
43798SOL    HW133291   0.924  12.326   3.305
43798SOL    HW233292   1.024  12.406   3.223
43799SOL     OW33293  13.269   0.218   2.764
43799SOL    HW133294  13.337   0.227   2.830
43799SOL    HW233295  13.223   0.302   2.764
43800SOL     OW33296   7.962   3.747  12.735
43800SOL    HW133297   7.907   3.796  12.673
43800SOL    HW233298   7.975   3.808  12.808
43801SOL     OW33299   7.563  11.212   4.572
43801SOL    HW133300   7.544  11.246   4.660
43801SOL    HW233301   7.653  11.180   4.579
43802SOL     OW33302   2.922  12.022   5.168
43802SOL    HW133303   2.992  11.959   5.184
43802SOL    HW233304   2.932  12.046   5.075
43803SOL     OW33305   0.036   2.876   4.346
43803SOL    HW133306  14.839   2.908   4.393
43803SOL    HW233307   0.014   2.889   4.253
43804SOL     OW33308  13.896   9.684   0.054
43804SOL    HW133309  13.870   9.773   0.030
43804SOL    HW233310  13.879   9.632  14.855
43805SOL     OW33311   3.100  12.542   3.819
43805SOL    HW133312   3.008  12.517   3.805
43805SOL    HW233313   3.144  12.515   3.738
43806SOL     OW33314   8.788   2.279   9.744
43806SOL    HW133315   8.879   2.279   9.714
43806SOL    HW233316   8.753   2.194   9.716
43807SOL     OW33317  13.907  11.053   5.750
43807SOL    HW133318  13.858  11.109   5.690
43807SOL    HW233319  13.859  11.061   5.833
43808SOL     OW33320   5.954  12.818  11.385
43808SOL    HW133321   6.016  12.881  11.347
43808SOL    HW233322   5.958  12.743  11.325
43809SOL     OW33323   3.925   4.983  10.271
43809SOL    HW133324   3.838   5.024  10.277
43809SOL    HW233325   3.950   4.967  10.362
43810SOL     OW33326   8.450   9.880  11.229
43810SOL    HW133327   8.509   9.877  11.154
43810SOL    HW233328   8.457   9.970  11.262
43811SOL     OW33329   3.354   0.817  12.483
43811SOL    HW133330   3.299   0.805  12.406
43811SOL    HW233331   3.387   0.729  12.502
43812SOL     OW33332   8.084   2.872   8.579
43812SOL    HW133333   8.167   2.913   8.603
43812SOL    HW233334   8.055   2.919   8.501
43813SOL     OW33335   8.813  11.106  14.180
43813SOL    HW133336   8.768  11.081  14.099
43813SOL    HW233337   8.892  11.151  14.150
43814SOL     OW33338   3.732   4.702   7.846
43814SOL    HW133339   3.679   4.782   7.853
43814SOL    HW233340   3.820   4.734   7.823
43815SOL     OW33341   6.447   1.144   6.247
43815SOL    HW133342   6.470   1.150   6.339
43815SOL    HW233343   6.490   1.063   6.217
43816SOL     OW33344  11.138  14.078  11.529
43816SOL    HW133345  11.090  14.030  11.596
43816SOL    HW233346  11.209  14.019  11.502
43817SOL     OW33347   5.513   3.524   5.101
43817SOL    HW133348   5.475   3.603   5.062
43817SOL    HW233349   5.482   3.525   5.192
43818SOL     OW33350   4.463   7.302   5.519
43818SOL    HW133351   4.541   7.251   5.499
43818SOL    HW233352   4.462   7.370   5.452
43819SOL     OW33353  14.031   1.489   5.741
43819SOL    HW133354  14.019   1.527   5.654
43819SOL    HW233355  14.126   1.485   5.753
43820SOL     OW33356   7.254   0.351   7.468
43820SOL    HW133357   7.332   0.366   7.521
43820SOL    HW233358   7.284   0.295   7.396
43821SOL     OW33359   0.519  10.535   6.154
43821SOL    HW133360   0.492  10.453   6.111
43821SOL    HW233361   0.512  10.601   6.085
43822SOL     OW33362   6.573  10.755   8.889
43822SOL    HW133363   6.542  10.685   8.833
43822SOL    HW233364   6.649  10.717   8.934
43823SOL     OW33365   3.257   0.038   6.690
43823SOL    HW133366   3.319   0.048   6.618
43823SOL    HW233367   3.228  14.827   6.684
43824SOL     OW33368   6.768   5.239  14.186
43824SOL    HW133369   6.832   5.294  14.232
43824SOL    HW233370   6.802   5.232  14.097
43825SOL     OW33371   5.746  12.254  13.491
43825SOL    HW133372   5.763  12.214  13.406
43825SOL    HW233373   5.832  12.271  13.528
43826SOL     OW33374   7.446  10.654  12.670
43826SOL    HW133375   7.397  10.712  12.727
43826SOL    HW233376   7.494  10.596  12.730
43827SOL     OW33377   4.075   7.272   2.802
43827SOL    HW133378   4.071   7.321   2.884
43827SOL    HW233379   4.088   7.181   2.829
43828SOL     OW33380   5.403  13.573   9.637
43828SOL    HW133381   5.337  13.505   9.626
43828SOL    HW233382   5.376  13.643   9.577
43829SOL     OW33383   0.696   9.194   5.216
43829SOL    HW133384   0.714   9.101   5.232
43829SOL    HW233385   0.772   9.239   5.251
43830SOL     OW33386  11.511  13.320  10.183
43830SOL    HW133387  11.531  13.244  10.239
43830SOL    HW233388  11.436  13.292  10.130
43831SOL     OW33389   7.043  10.738   0.871
43831SOL    HW133390   7.022  10.678   0.943
43831SOL    HW233391   7.040  10.825   0.911
43832SOL     OW33392  10.444  13.415   4.239
43832SOL    HW133393  10.476  13.327   4.221
43832SOL    HW233394  10.484  13.469   4.171
43833SOL     OW33395   7.529   5.474   8.175
43833SOL    HW133396   7.597   5.516   8.229
43833SOL    HW233397   7.532   5.523   8.092
43834SOL     OW33398   5.332   8.523   2.681
43834SOL    HW133399   5.310   8.518   2.588
43834SOL    HW233400   5.401   8.458   2.693
43835SOL     OW33401   5.882   2.704   2.665
43835SOL    HW133402   5.819   2.767   2.631
43835SOL    HW233403   5.839   2.666   2.742
43836SOL     OW33404   2.614   2.929   0.041
43836SOL    HW133405   2.580   2.904   0.127
43836SOL    HW233406   2.696   2.974   0.060
43837SOL     OW33407   4.151   8.522  11.296
43837SOL    HW133408   4.089   8.593  11.276
43837SOL    HW233409   4.204   8.514  11.216
43838SOL     OW33410   0.379   5.766   5.380
43838SOL    HW133411   0.401   5.828   5.450
43838SOL    HW233412   0.461   5.720   5.363
43839SOL     OW33413   1.719  13.949   1.316
43839SOL    HW133414   1.797  14.000   1.336
43839SOL    HW233415   1.685  13.923   1.402
43840SOL     OW33416   4.611   9.086   5.925
43840SOL    HW133417   4.657   9.164   5.955
43840SOL    HW233418   4.668   9.048   5.858
43841SOL     OW33419   0.585   5.188  10.788
43841SOL    HW133420   0.630   5.230  10.715
43841SOL    HW233421   0.579   5.257  10.855
43842SOL     OW33422   7.517  11.669   3.288
43842SOL    HW133423   7.593  11.654   3.345
43842SOL    HW233424   7.452  11.607   3.319
43843SOL     OW33425   4.174  10.617   8.982
43843SOL    HW133426   4.151  10.703   8.947
43843SOL    HW233427   4.089  10.574   8.997
43844SOL     OW33428   1.698   0.444  13.430
43844SOL    HW133429   1.710   0.500  13.506
43844SOL    HW233430   1.647   0.370  13.462
43845SOL     OW33431   1.831  12.247  13.331
43845SOL    HW133432   1.835  12.335  13.368
43845SOL    HW233433   1.902  12.200  13.374
43846SOL     OW33434   2.423   1.846  11.336
43846SOL    HW133435   2.459   1.868  11.250
43846SOL    HW233436   2.360   1.777  11.318
43847SOL     OW33437  11.253  14.785   0.838
43847SOL    HW133438  11.214  14.809   0.754
43847SOL    HW233439  11.298  14.702   0.821
43848SOL     OW33440   8.581   9.633   0.552
43848SOL    HW133441   8.522   9.597   0.618
43848SOL    HW233442   8.577   9.571   0.479
43849SOL     OW33443   4.801   2.408   3.039
43849SOL    HW133444   4.862   2.348   2.996
43849SOL    HW233445   4.769   2.465   2.969
43850SOL     OW33446  13.168  12.065   0.553
43850SOL    HW133447  13.208  11.978   0.544
43850SOL    HW233448  13.088  12.049   0.603
43851SOL     OW33449  12.485   5.219  11.789
43851SOL    HW133450  12.445   5.246  11.706
43851SOL    HW233451  12.482   5.298  11.843
43852SOL     OW33452  11.707   5.983   8.227
43852SOL    HW133453  11.765   5.976   8.152
43852SOL    HW233454  11.759   6.027   8.294
43853SOL     OW33455   8.447   3.182   7.823
43853SOL    HW133456   8.368   3.133   7.799
43853SOL    HW233457   8.419   3.274   7.824
43854SOL     OW33458   9.527  11.047   2.237
43854SOL    HW133459   9.500  11.096   2.159
43854SOL    HW233460   9.542  11.114   2.304
43855SOL     OW33461   5.370  13.603   4.518
43855SOL    HW133462   5.341  13.511   4.519
43855SOL    HW233463   5.387  13.623   4.610
43856SOL     OW33464  12.943  14.613   3.700
43856SOL    HW133465  12.863  14.616   3.648
43856SOL    HW233466  13.003  14.673   3.656
43857SOL     OW33467   8.632   0.064   1.573
43857SOL    HW133468   8.607   0.059   1.666
43857SOL    HW233469   8.677  14.861   1.556
43858SOL     OW33470  13.907   6.822   6.781
43858SOL    HW133471  13.813   6.830   6.770
43858SOL    HW233472  13.923   6.728   6.785
43859SOL     OW33473   6.065   5.847   3.589
43859SOL    HW133474   6.008   5.915   3.553
43859SOL    HW233475   6.152   5.887   3.589
43860SOL     OW33476   1.122   7.678   7.501
43860SOL    HW133477   1.213   7.676   7.528
43860SOL    HW233478   1.073   7.701   7.580
43861SOL     OW33479   8.049   8.481  12.322
43861SOL    HW133480   8.067   8.389  12.302
43861SOL    HW233481   7.973   8.479  12.380
43862SOL     OW33482   7.663   9.623   7.549
43862SOL    HW133483   7.601   9.551   7.537
43862SOL    HW233484   7.706   9.632   7.464
43863SOL     OW33485   1.060   6.301  11.845
43863SOL    HW133486   0.979   6.273  11.888
43863SOL    HW233487   1.085   6.381  11.892
43864SOL     OW33488  13.527   9.277   8.680
43864SOL    HW133489  13.505   9.369   8.662
43864SOL    HW233490  13.612   9.281   8.723
43865SOL     OW33491   0.566  11.651   3.532
43865SOL    HW133492   0.598  11.583   3.591
43865SOL    HW233493   0.625  11.648   3.457
43866SOL     OW33494   4.146   2.688   4.764
43866SOL    HW133495   4.063   2.662   4.725
43866SOL    HW233496   4.122   2.742   4.839
43867SOL     OW33497  11.303   3.344   1.609
43867SOL    HW133498  11.339   3.357   1.521
43867SOL    HW233499  11.380   3.346   1.666
43868SOL     OW33500   8.434   6.096  13.928
43868SOL    HW133501   8.414   6.005  13.949
43868SOL    HW233502   8.507   6.118  13.986
43869SOL     OW33503   4.888  13.118  13.259
43869SOL    HW133504   4.853  13.058  13.192
43869SOL    HW233505   4.962  13.070  13.297
43870SOL     OW33506  12.366   4.761   4.446
43870SOL    HW133507  12.318   4.839   4.418
43870SOL    HW233508  12.458   4.789   4.446
43871SOL     OW33509   9.181  10.435   0.810
43871SOL    HW133510   9.143  10.383   0.881
43871SOL    HW233511   9.217  10.512   0.853
43872SOL     OW33512   8.490   7.669  12.441
43872SOL    HW133513   8.437   7.692  12.518
43872SOL    HW233514   8.543   7.595  12.470
43873SOL     OW33515   3.635   3.824   7.241
43873SOL    HW133516   3.606   3.828   7.150
43873SOL    HW233517   3.557   3.844   7.292
43874SOL     OW33518  11.072  13.331   7.152
43874SOL    HW133519  11.044  13.417   7.121
43874SOL    HW233520  11.103  13.347   7.241
43875SOL     OW33521   6.901   3.644  10.728
43875SOL    HW133522   6.897   3.709  10.657
43875SOL    HW233523   6.947   3.689  10.799
43876SOL     OW33524  13.395  11.892  10.344
43876SOL    HW133525  13.418  11.824  10.407
43876SOL    HW233526  13.350  11.959  10.396
43877SOL     OW33527  13.080  14.632  11.272
43877SOL    HW133528  13.086  14.612  11.179
43877SOL    HW233529  12.992  14.669  11.283
43878SOL     OW33530  13.238  12.107   5.918
43878SOL    HW133531  13.213  12.051   5.991
43878SOL    HW233532  13.333  12.116   5.926
43879SOL     OW33533   5.669   0.548   4.918
43879SOL    HW133534   5.611   0.558   4.843
43879SOL    HW233535   5.633   0.474   4.967
43880SOL     OW33536   4.916   1.895   1.104
43880SOL    HW133537   4.833   1.890   1.150
43880SOL    HW233538   4.965   1.818   1.134
43881SOL     OW33539  10.412   8.419   5.909
43881SOL    HW133540  10.497   8.442   5.945
43881SOL    HW233541  10.364   8.502   5.905
43882SOL     OW33542   6.991   5.532   8.368
43882SOL    HW133543   6.963   5.605   8.314
43882SOL    HW233544   7.015   5.464   8.305
43883SOL     OW33545   9.916   2.136  11.728
43883SOL    HW133546   9.898   2.222  11.690
43883SOL    HW233547   9.890   2.073  11.661
43884SOL     OW33548   1.131   2.828   0.842
43884SOL    HW133549   1.138   2.902   0.903
43884SOL    HW233550   1.045   2.839   0.802
43885SOL     OW33551   9.462   3.103   8.988
43885SOL    HW133552   9.403   3.160   8.938
43885SOL    HW233553   9.520   3.163   9.034
43886SOL     OW33554   3.125  11.857   5.223
43886SOL    HW133555   3.176  11.873   5.144
43886SOL    HW233556   3.108  11.763   5.223
43887SOL     OW33557   1.767  12.571   3.821
43887SOL    HW133558   1.830  12.525   3.876
43887SOL    HW233559   1.736  12.504   3.759
43888SOL     OW33560   5.457   8.813   8.669
43888SOL    HW133561   5.416   8.796   8.585
43888SOL    HW233562   5.551   8.800   8.654
43889SOL     OW33563  14.719  10.905  14.046
43889SOL    HW133564  14.769  10.918  13.965
43889SOL    HW233565  14.786  10.884  14.111
43890SOL     OW33566   1.631  11.914   7.203
43890SOL    HW133567   1.618  11.843   7.266
43890SOL    HW233568   1.640  11.992   7.257
43891SOL     OW33569  13.963   8.597   7.303
43891SOL    HW133570  13.893   8.545   7.263
43891SOL    HW233571  14.002   8.538   7.368
43892SOL     OW33572   6.486  11.592   6.250
43892SOL    HW133573   6.531  11.645   6.316
43892SOL    HW233574   6.404  11.638   6.234
43893SOL     OW33575  12.683   4.267   5.770
43893SOL    HW133576  12.757   4.208   5.761
43893SOL    HW233577  12.688   4.324   5.693
43894SOL     OW33578  14.704  10.100  12.690
43894SOL    HW133579  14.754  10.067  12.615
43894SOL    HW233580  14.759  10.077  12.766
43895SOL     OW33581  13.635   5.857  14.771
43895SOL    HW133582  13.691   5.934  14.758
43895SOL    HW233583  13.696   5.785  14.785
43896SOL     OW33584  11.272  11.409   7.627
43896SOL    HW133585  11.240  11.476   7.688
43896SOL    HW233586  11.363  11.434   7.609
43897SOL     OW33587  10.001   1.561   8.637
43897SOL    HW133588   9.954   1.644   8.628
43897SOL    HW233589  10.035   1.563   8.726
43898SOL     OW33590   3.449  10.525   4.589
43898SOL    HW133591   3.529  10.484   4.557
43898SOL    HW233592   3.397  10.542   4.510
43899SOL     OW33593   2.445   0.791   0.473
43899SOL    HW133594   2.530   0.799   0.430
43899SOL    HW233595   2.459   0.826   0.560
43900SOL     OW33596   6.432  14.128   0.726
43900SOL    HW133597   6.481  14.148   0.646
43900SOL    HW233598   6.382  14.207   0.744
43901SOL     OW33599  11.722  14.502   4.541
43901SOL    HW133600  11.744  14.418   4.581
43901SOL    HW233601  11.789  14.514   4.473
43902SOL     OW33602   2.387   8.947  12.391
43902SOL    HW133603   2.403   9.041  12.385
43902SOL    HW233604   2.306   8.932  12.342
43903SOL     OW33605   9.803   2.023   9.143
43903SOL    HW133606   9.897   2.009   9.131
43903SOL    HW233607   9.783   1.984   9.228
43904SOL     OW33608   1.241   6.204   9.076
43904SOL    HW133609   1.182   6.128   9.069
43904SOL    HW233610   1.262   6.210   9.169
43905SOL     OW33611  11.752   3.492   9.868
43905SOL    HW133612  11.799   3.409   9.856
43905SOL    HW233613  11.727   3.518   9.780
43906SOL     OW33614   8.629   1.944   1.267
43906SOL    HW133615   8.679   1.961   1.347
43906SOL    HW233616   8.603   2.030   1.236
43907SOL     OW33617   0.806   4.286  11.553
43907SOL    HW133618   0.788   4.301  11.646
43907SOL    HW233619   0.731   4.233  11.524
43908SOL     OW33620  14.000  14.128   1.262
43908SOL    HW133621  13.962  14.191   1.200
43908SOL    HW233622  13.976  14.042   1.227
43909SOL     OW33623   4.010   6.828  13.688
43909SOL    HW133624   4.023   6.733  13.692
43909SOL    HW233625   4.096   6.863  13.664
43910SOL     OW33626   7.639   2.216   1.463
43910SOL    HW133627   7.583   2.260   1.527
43910SOL    HW233628   7.629   2.267   1.383
43911SOL     OW33629  14.839   4.000   8.600
43911SOL    HW133630   0.037   3.970   8.646
43911SOL    HW233631  14.871   4.073   8.546
43912SOL     OW33632   5.494   2.631   4.532
43912SOL    HW133633   5.583   2.606   4.507
43912SOL    HW233634   5.440   2.610   4.456
43913SOL     OW33635  12.026   6.715  10.467
43913SOL    HW133636  11.999   6.794  10.421
43913SOL    HW233637  11.973   6.715  10.547
43914SOL     OW33638  14.823   5.804   5.276
43914SOL    HW133639  14.737   5.788   5.236
43914SOL    HW233640  14.864   5.869   5.219
43915SOL     OW33641   4.317  14.303   1.856
43915SOL    HW133642   4.386  14.262   1.908
43915SOL    HW233643   4.311  14.392   1.889
43916SOL     OW33644   4.133  11.625  10.074
43916SOL    HW133645   4.051  11.646  10.031
43916SOL    HW233646   4.108  11.568  10.147
43917SOL     OW33647  12.443   9.050  13.941
43917SOL    HW133648  12.389   9.127  13.923
43917SOL    HW233649  12.518   9.085  13.990
43918SOL     OW33650   3.024   5.299   1.544
43918SOL    HW133651   2.998   5.327   1.456
43918SOL    HW233652   3.047   5.379   1.589
43919SOL     OW33653  14.777   3.253   0.265
43919SOL    HW133654  14.807   3.256   0.174
43919SOL    HW233655  14.705   3.190   0.265
43920SOL     OW33656   3.625  14.131   4.407
43920SOL    HW133657   3.611  14.211   4.457
43920SOL    HW233658   3.684  14.079   4.461
43921SOL     OW33659   1.726   1.202   7.748
43921SOL    HW133660   1.722   1.129   7.809
43921SOL    HW233661   1.781   1.267   7.791
43922SOL     OW33662  11.263   9.935   9.827
43922SOL    HW133663  11.268   9.840   9.837
43922SOL    HW233664  11.187   9.948   9.769
43923SOL     OW33665  13.824  11.560  12.641
43923SOL    HW133666  13.839  11.472  12.606
43923SOL    HW233667  13.893  11.613  12.603
43924SOL     OW33668   9.820  14.203  11.120
43924SOL    HW133669   9.753  14.223  11.186
43924SOL    HW233670   9.770  14.170  11.046
43925SOL     OW33671  10.743   7.756   5.881
43925SOL    HW133672  10.666   7.795   5.923
43925SOL    HW233673  10.779   7.697   5.948
43926SOL     OW33674   1.334  12.386   9.549
43926SOL    HW133675   1.362  12.313   9.494
43926SOL    HW233676   1.246  12.406   9.517
43927SOL     OW33677  14.460   3.097   5.713
43927SOL    HW133678  14.451   3.176   5.766
43927SOL    HW233679  14.422   3.120   5.628
43928SOL     OW33680   9.323   6.467  13.749
43928SOL    HW133681   9.357   6.393  13.799
43928SOL    HW233682   9.314   6.537  13.814
43929SOL     OW33683   1.884  12.594   6.621
43929SOL    HW133684   1.835  12.513   6.604
43929SOL    HW233685   1.963  12.564   6.666
43930SOL     OW33686  10.776   4.923  12.468
43930SOL    HW133687  10.767   4.892  12.378
43930SOL    HW233688  10.859   4.884  12.498
43931SOL     OW33689  14.016  12.156   4.969
43931SOL    HW133690  14.045  12.236   5.013
43931SOL    HW233691  14.064  12.086   5.013
43932SOL     OW33692   9.975   2.724   7.412
43932SOL    HW133693  10.031   2.791   7.374
43932SOL    HW233694   9.906   2.709   7.347
43933SOL     OW33695   0.340   2.233   8.993
43933SOL    HW133696   0.349   2.139   8.976
43933SOL    HW233697   0.313   2.238   9.085
43934SOL     OW33698  14.528  13.465   8.847
43934SOL    HW133699  14.442  13.493   8.816
43934SOL    HW233700  14.582  13.460   8.768
43935SOL     OW33701  11.606   4.188  11.442
43935SOL    HW133702  11.662   4.120  11.480
43935SOL    HW233703  11.546   4.140  11.384
43936SOL     OW33704  10.407   8.821  12.981
43936SOL    HW133705  10.382   8.793  12.893
43936SOL    HW233706  10.381   8.749  13.038
43937SOL     OW33707   2.851   9.394  11.185
43937SOL    HW133708   2.863   9.420  11.093
43937SOL    HW233709   2.798   9.315  11.180
43938SOL     OW33710   8.172   9.463   3.746
43938SOL    HW133711   8.114   9.536   3.771
43938SOL    HW233712   8.124   9.385   3.772
43939SOL     OW33713  14.558   3.667  13.859
43939SOL    HW133714  14.483   3.643  13.804
43939SOL    HW233715  14.621   3.705  13.797
43940SOL     OW33716   9.872   4.330   3.156
43940SOL    HW133717   9.824   4.357   3.078
43940SOL    HW233718   9.963   4.351   3.136
43941SOL     OW33719   6.947   0.206  12.664
43941SOL    HW133720   6.955   0.287  12.715
43941SOL    HW233721   6.889   0.151  12.718
43942SOL     OW33722  11.719   4.663   2.728
43942SOL    HW133723  11.723   4.658   2.633
43942SOL    HW233724  11.629   4.686   2.748
43943SOL     OW33725  10.484  13.470   1.670
43943SOL    HW133726  10.526  13.428   1.745
43943SOL    HW233727  10.429  13.539   1.708
43944SOL     OW33728  12.029   3.092   9.527
43944SOL    HW133729  11.939   3.098   9.559
43944SOL    HW233730  12.050   2.999   9.534
43945SOL     OW33731  12.655   2.847   7.101
43945SOL    HW133732  12.732   2.801   7.068
43945SOL    HW233733  12.680   2.875   7.189
43946SOL     OW33734  14.525   2.816   6.566
43946SOL    HW133735  14.518   2.750   6.635
43946SOL    HW233736  14.499   2.770   6.486
43947SOL     OW33737  14.700   0.060  13.181
43947SOL    HW133738  14.651  14.862  13.155
43947SOL    HW233739  14.641   0.107  13.239
43948SOL     OW33740   4.388   0.929   9.676
43948SOL    HW133741   4.442   0.942   9.754
43948SOL    HW233742   4.332   1.006   9.672
43949SOL     OW33743   1.319   3.805  11.160
43949SOL    HW133744   1.276   3.881  11.201
43949SOL    HW233745   1.399   3.792  11.212
43950SOL     OW33746   3.497  12.437   2.378
43950SOL    HW133747   3.514  12.347   2.405
43950SOL    HW233748   3.415  12.432   2.330
43951SOL     OW33749   6.100   0.096   2.583
43951SOL    HW133750   6.104   0.130   2.672
43951SOL    HW233751   6.009   0.109   2.556
43952SOL     OW33752   7.774   3.004   7.159
43952SOL    HW133753   7.768   2.957   7.075
43952SOL    HW233754   7.820   2.943   7.217
43953SOL     OW33755   6.981   2.138   7.562
43953SOL    HW133756   6.912   2.179   7.614
43953SOL    HW233757   7.027   2.081   7.624
43954SOL     OW33758  12.862   2.533  11.843
43954SOL    HW133759  12.777   2.577  11.830
43954SOL    HW233760  12.847   2.472  11.915
43955SOL     OW33761  13.958   3.343   5.263
43955SOL    HW133762  14.035   3.287   5.255
43955SOL    HW233763  13.952   3.362   5.357
43956SOL     OW33764   0.992   1.487  12.494
43956SOL    HW133765   1.074   1.525  12.525
43956SOL    HW233766   0.935   1.487  12.571
43957SOL     OW33767   8.610   5.256   9.824
43957SOL    HW133768   8.648   5.187   9.769
43957SOL    HW233769   8.641   5.338   9.784
43958SOL     OW33770   6.483   5.283  11.262
43958SOL    HW133771   6.553   5.219  11.268
43958SOL    HW233772   6.415   5.250  11.320
43959SOL     OW33773   0.847   8.369   4.391
43959SOL    HW133774   0.755   8.371   4.418
43959SOL    HW233775   0.881   8.288   4.428
43960SOL     OW33776  10.575   2.200   8.976
43960SOL    HW133777  10.534   2.166   9.055
43960SOL    HW233778  10.605   2.122   8.928
43961SOL     OW33779   7.595  13.498   9.283
43961SOL    HW133780   7.549  13.570   9.239
43961SOL    HW233781   7.683  13.499   9.247
43962SOL     OW33782   5.060   9.169   3.438
43962SOL    HW133783   5.105   9.174   3.522
43962SOL    HW233784   5.131   9.160   3.374
43963SOL     OW33785   5.794  10.521   4.731
43963SOL    HW133786   5.847  10.494   4.806
43963SOL    HW233787   5.731  10.450   4.719
43964SOL     OW33788   7.033   6.572  10.149
43964SOL    HW133789   7.056   6.537  10.063
43964SOL    HW233790   7.068   6.662  10.148
43965SOL     OW33791  13.577   3.679  14.458
43965SOL    HW133792  13.648   3.725  14.414
43965SOL    HW233793  13.596   3.586  14.443
43966SOL     OW33794   8.759   1.852   7.916
43966SOL    HW133795   8.738   1.759   7.909
43966SOL    HW233796   8.804   1.860   8.000
43967SOL     OW33797   9.667   3.356   3.769
43967SOL    HW133798   9.618   3.274   3.759
43967SOL    HW233799   9.652   3.382   3.860
43968SOL     OW33800  12.917   2.505   3.075
43968SOL    HW133801  13.000   2.552   3.085
43968SOL    HW233802  12.942   2.419   3.042
43969SOL     OW33803  11.950  11.951   0.243
43969SOL    HW133804  11.988  11.864   0.227
43969SOL    HW233805  11.978  12.003   0.168
43970SOL     OW33806   2.172   5.738   3.546
43970SOL    HW133807   2.114   5.670   3.581
43970SOL    HW233808   2.246   5.689   3.508
43971SOL     OW33809   8.167  12.134   4.111
43971SOL    HW133810   8.178  12.058   4.169
43971SOL    HW233811   8.221  12.113   4.035
43972SOL     OW33812  13.900   4.459   5.060
43972SOL    HW133813  13.808   4.473   5.036
43972SOL    HW233814  13.948   4.466   4.978
43973SOL     OW33815   9.574   2.574   4.149
43973SOL    HW133816   9.530   2.538   4.072
43973SOL    HW233817   9.504   2.611   4.202
43974SOL     OW33818   9.641   5.843   7.091
43974SOL    HW133819   9.693   5.768   7.063
43974SOL    HW233820   9.680   5.917   7.045
43975SOL     OW33821  14.741  13.091   9.264
43975SOL    HW133822  14.811  13.084   9.328
43975SOL    HW233823  14.765  13.167   9.210
43976SOL     OW33824   9.980  12.473   9.744
43976SOL    HW133825   9.960  12.381   9.731
43976SOL    HW233826   9.986  12.509   9.656
43977SOL     OW33827   7.657   1.065  13.810
43977SOL    HW133828   7.625   0.990  13.759
43977SOL    HW233829   7.712   1.113  13.748
43978SOL     OW33830  10.057   9.889   0.403
43978SOL    HW133831   9.996   9.872   0.475
43978SOL    HW233832  10.083   9.981   0.415
43979SOL     OW33833   9.830   4.877   5.647
43979SOL    HW133834   9.879   4.803   5.610
43979SOL    HW233835   9.744   4.872   5.607
43980SOL     OW33836   6.375  10.548   3.755
43980SOL    HW133837   6.311  10.573   3.688
43980SOL    HW233838   6.418  10.630   3.778
43981SOL     OW33839  13.009   1.665  11.516
43981SOL    HW133840  13.075   1.667  11.585
43981SOL    HW233841  13.057   1.641  11.437
43982SOL     OW33842  14.834   3.461   4.789
43982SOL    HW133843   0.033   3.499   4.751
43982SOL    HW233844  14.853   3.453   4.883
43983SOL     OW33845  12.049   4.953   8.752
43983SOL    HW133846  12.084   4.928   8.838
43983SOL    HW233847  12.032   5.047   8.759
43984SOL     OW33848   4.656   2.522   0.339
43984SOL    HW133849   4.661   2.581   0.414
43984SOL    HW233850   4.726   2.550   0.281
43985SOL     OW33851   8.907  10.974   0.620
43985SOL    HW133852   8.992  11.018   0.613
43985SOL    HW233853   8.882  10.983   0.711
43986SOL     OW33854   1.330   7.751   5.949
43986SOL    HW133855   1.238   7.774   5.963
43986SOL    HW233856   1.361   7.721   6.034
43987SOL     OW33857   2.087   4.410   7.919
43987SOL    HW133858   2.001   4.452   7.910
43987SOL    HW233859   2.099   4.400   8.013
43988SOL     OW33860  14.205   7.630   3.513
43988SOL    HW133861  14.178   7.718   3.538
43988SOL    HW233862  14.242   7.593   3.592
43989SOL     OW33863   5.984  11.821   6.266
43989SOL    HW133864   5.940  11.738   6.248
43989SOL    HW233865   5.920  11.888   6.243
43990SOL     OW33866  14.570  13.084   0.934
43990SOL    HW133867  14.529  13.136   1.003
43990SOL    HW233868  14.497  13.038   0.892
43991SOL     OW33869  12.147   7.358   8.822
43991SOL    HW133870  12.183   7.374   8.735
43991SOL    HW233871  12.059   7.395   8.819
43992SOL     OW33872  14.763   1.539  10.717
43992SOL    HW133873  14.768   1.629  10.750
43992SOL    HW233874  14.716   1.491  10.786
43993SOL     OW33875   1.605  11.207   5.588
43993SOL    HW133876   1.627  11.118   5.614
43993SOL    HW233877   1.680  11.237   5.537
43994SOL     OW33878   5.202   6.149  14.836
43994SOL    HW133879   5.136   6.125  14.771
43994SOL    HW233880   5.152   6.159   0.038
43995SOL     OW33881   8.933  11.624   8.311
43995SOL    HW133882   8.995  11.589   8.376
43995SOL    HW233883   8.966  11.711   8.292
43996SOL     OW33884   3.163  10.687   1.842
43996SOL    HW133885   3.082  10.643   1.815
43996SOL    HW233886   3.181  10.749   1.771
43997SOL     OW33887  14.015  12.944   8.574
43997SOL    HW133888  13.959  13.001   8.521
43997SOL    HW233889  13.954  12.891   8.626
43998SOL     OW33890   0.011   0.918  11.541
43998SOL    HW133891  14.874   0.865  11.620
43998SOL    HW233892   0.077   0.868  11.492
43999SOL     OW33893  13.749  14.207   4.617
43999SOL    HW133894  13.709  14.241   4.698
43999SOL    HW233895  13.801  14.280   4.584
44000SOL     OW33896   5.588   1.471   3.837
44000SOL    HW133897   5.607   1.507   3.751
44000SOL    HW233898   5.572   1.378   3.822
44001SOL     OW33899   0.438   0.869  10.093
44001SOL    HW133900   0.358   0.922  10.088
44001SOL    HW233901   0.509   0.931  10.075
44002SOL     OW33902   3.310   2.067   9.670
44002SOL    HW133903   3.378   2.069   9.738
44002SOL    HW233904   3.306   2.157   9.638
44003SOL     OW33905   3.424  12.938   8.568
44003SOL    HW133906   3.395  12.993   8.495
44003SOL    HW233907   3.375  12.971   8.644
44004SOL     OW33908   2.368   0.189  12.593
44004SOL    HW133909   2.356   0.257  12.659
44004SOL    HW233910   2.295   0.129  12.608
44005SOL     OW33911   9.238   1.447   4.597
44005SOL    HW133912   9.188   1.478   4.521
44005SOL    HW233913   9.227   1.352   4.595
44006SOL     OW33914   1.161   2.201   7.098
44006SOL    HW133915   1.199   2.116   7.121
44006SOL    HW233916   1.182   2.212   7.005
44007SOL     OW33917   2.840  10.380   0.767
44007SOL    HW133918   2.806  10.307   0.715
44007SOL    HW233919   2.912  10.342   0.817
44008SOL     OW33920   9.053   1.982   5.446
44008SOL    HW133921   9.039   1.947   5.358
44008SOL    HW233922   8.977   2.036   5.463
44009SOL     OW33923  10.047   8.052   0.090
44009SOL    HW133924  10.139   8.044   0.118
44009SOL    HW233925  10.006   7.971   0.121
44010SOL     OW33926   8.480  14.104  12.264
44010SOL    HW133927   8.535  14.062  12.330
44010SOL    HW233928   8.514  14.073  12.180
44011SOL     OW33929   7.665   0.402   7.066
44011SOL    HW133930   7.633   0.456   7.138
44011SOL    HW233931   7.593   0.403   7.002
44012SOL     OW33932  10.164   9.236   4.077
44012SOL    HW133933  10.084   9.276   4.109
44012SOL    HW233934  10.135   9.157   4.031
44013SOL     OW33935  14.380   9.543  14.568
44013SOL    HW133936  14.376   9.524  14.474
44013SOL    HW233937  14.452   9.489  14.600
44014SOL     OW33938   9.787  11.770   2.818
44014SOL    HW133939   9.774  11.790   2.911
44014SOL    HW233940   9.793  11.675   2.814
44015SOL     OW33941   6.802   1.912   3.582
44015SOL    HW133942   6.896   1.899   3.568
44015SOL    HW233943   6.787   2.005   3.566
44016SOL     OW33944   7.640   0.169  11.296
44016SOL    HW133945   7.601   0.090  11.260
44016SOL    HW233946   7.660   0.223  11.220
44017SOL     OW33947   9.315   3.515  13.627
44017SOL    HW133948   9.294   3.509  13.721
44017SOL    HW233949   9.402   3.554  13.625
44018SOL     OW33950   6.505   9.107   0.196
44018SOL    HW133951   6.420   9.150   0.205
44018SOL    HW233952   6.550   9.156   0.128
44019SOL     OW33953  10.735   4.483   9.395
44019SOL    HW133954  10.671   4.471   9.464
44019SOL    HW233955  10.811   4.432   9.423
44020SOL     OW33956   3.116   8.221   2.440
44020SOL    HW133957   3.140   8.300   2.391
44020SOL    HW233958   3.181   8.156   2.413
44021SOL     OW33959   4.219  12.084   5.201
44021SOL    HW133960   4.260  12.010   5.156
44021SOL    HW233961   4.277  12.102   5.275
44022SOL     OW33962   6.818   0.742   0.693
44022SOL    HW133963   6.776   0.728   0.778
44022SOL    HW233964   6.768   0.688   0.632
44023SOL     OW33965  14.096   3.729   4.326
44023SOL    HW133966  14.138   3.688   4.250
44023SOL    HW233967  14.114   3.823   4.315
44024SOL     OW33968  11.966  10.642   8.554
44024SOL    HW133969  11.916  10.595   8.488
44024SOL    HW233970  12.032  10.691   8.503
44025SOL     OW33971   0.221  10.108   1.322
44025SOL    HW133972   0.148  10.047   1.310
44025SOL    HW233973   0.184  10.179   1.375
44026SOL     OW33974   6.781   7.409   4.226
44026SOL    HW133975   6.757   7.317   4.221
44026SOL    HW233976   6.726   7.444   4.296
44027SOL     OW33977   2.960   9.927   8.989
44027SOL    HW133978   3.011  10.005   8.967
44027SOL    HW233979   3.026   9.862   9.012
44028SOL     OW33980   8.510   4.083   4.814
44028SOL    HW133981   8.602   4.089   4.838
44028SOL    HW233982   8.473   4.020   4.876
44029SOL     OW33983   8.390  12.387   2.321
44029SOL    HW133984   8.362  12.315   2.265
44029SOL    HW233985   8.484  12.372   2.336
44030SOL     OW33986  12.427   9.361   7.734
44030SOL    HW133987  12.418   9.353   7.829
44030SOL    HW233988  12.519   9.343   7.717
44031SOL     OW33989   0.266   1.408   2.219
44031SOL    HW133990   0.313   1.422   2.301
44031SOL    HW233991   0.175   1.395   2.245
44032SOL     OW33992   2.129  13.734  13.770
44032SOL    HW133993   2.037  13.713  13.751
44032SOL    HW233994   2.149  13.684  13.849
44033SOL     OW33995  10.565  13.519   7.533
44033SOL    HW133996  10.498  13.469   7.487
44033SOL    HW233997  10.575  13.474   7.617
44034SOL     OW33998   2.045   1.765  13.772
44034SOL    HW133999   1.959   1.753  13.811
44034SOL    HW234000   2.031   1.822  13.697
44035SOL     OW34001   7.562   7.715   5.165
44035SOL    HW134002   7.540   7.783   5.228
44035SOL    HW234003   7.606   7.761   5.094
44036SOL     OW34004   7.398   6.673  12.992
44036SOL    HW134005   7.477   6.667  13.046
44036SOL    HW234006   7.340   6.732  13.040
44037SOL     OW34007   4.611  11.140   4.736
44037SOL    HW134008   4.702  11.127   4.708
44037SOL    HW234009   4.560  11.136   4.655
44038SOL     OW34010  12.457   3.694  12.425
44038SOL    HW134011  12.380   3.660  12.377
44038SOL    HW234012  12.476   3.627  12.490
44039SOL     OW34013   7.999   9.953   2.116
44039SOL    HW134014   7.943   9.926   2.043
44039SOL    HW234015   8.065  10.008   2.076
44040SOL     OW34016   3.720   2.871  11.946
44040SOL    HW134017   3.776   2.795  11.959
44040SOL    HW234018   3.775   2.934  11.898
44041SOL     OW34019  13.795   5.994   2.172
44041SOL    HW134020  13.799   6.035   2.085
44041SOL    HW234021  13.859   5.923   2.168
44042SOL     OW34022  12.830   9.233   8.886
44042SOL    HW134023  12.795   9.264   8.969
44042SOL    HW234024  12.880   9.307   8.852
44043SOL     OW34025   6.903   6.005   9.226
44043SOL    HW134026   6.870   6.031   9.312
44043SOL    HW234027   6.960   6.077   9.199
44044SOL     OW34028   6.439  10.186  13.471
44044SOL    HW134029   6.381  10.192  13.548
44044SOL    HW234030   6.385  10.217  13.398
44045SOL     OW34031   5.730  11.052   0.980
44045SOL    HW134032   5.689  10.969   0.955
44045SOL    HW234033   5.660  11.117   0.969
44046SOL     OW34034  14.102   6.960   3.704
44046SOL    HW134035  14.091   6.888   3.642
44046SOL    HW234036  14.016   6.970   3.744
44047SOL     OW34037   3.991   0.341  10.818
44047SOL    HW134038   3.912   0.385  10.786
44047SOL    HW234039   3.965   0.305  10.903
44048SOL     OW34040   3.081   5.210  14.761
44048SOL    HW134041   2.988   5.210  14.739
44048SOL    HW234042   3.120   5.144  14.703
44049SOL     OW34043   3.793   1.566   2.042
44049SOL    HW134044   3.819   1.586   2.131
44049SOL    HW234045   3.784   1.471   2.040
44050SOL     OW34046  12.825   3.522   5.661
44050SOL    HW134047  12.814   3.489   5.572
44050SOL    HW234048  12.737   3.550   5.687
44051SOL     OW34049   3.487  12.020   9.631
44051SOL    HW134050   3.426  12.082   9.591
44051SOL    HW234051   3.559  12.074   9.663
44052SOL     OW34052  11.629   2.496   7.846
44052SOL    HW134053  11.670   2.540   7.921
44052SOL    HW234054  11.540   2.530   7.845
44053SOL     OW34055  12.194  13.343   8.293
44053SOL    HW134056  12.251  13.275   8.329
44053SOL    HW234057  12.220  13.349   8.201
44054SOL     OW34058  14.491   7.290   7.296
44054SOL    HW134059  14.560   7.279   7.361
44054SOL    HW234060  14.425   7.225   7.320
44055SOL     OW34061   1.469   9.348  14.004
44055SOL    HW134062   1.482   9.255  13.982
44055SOL    HW234063   1.486   9.394  13.922
44056SOL     OW34064   1.685  12.060   6.773
44056SOL    HW134065   1.698  12.154   6.786
44056SOL    HW234066   1.590  12.049   6.772
44057SOL     OW34067   1.495   8.633  14.834
44057SOL    HW134068   1.544   8.713  14.817
44057SOL    HW234069   1.433   8.656   0.023
44058SOL     OW34070  12.517  14.300   9.891
44058SOL    HW134071  12.553  14.382   9.925
44058SOL    HW234072  12.504  14.246   9.969
44059SOL     OW34073   7.866  13.904  10.548
44059SOL    HW134074   7.800  13.847  10.507
44059SOL    HW234075   7.907  13.848  10.614
44060SOL     OW34076   9.112   2.956   1.157
44060SOL    HW134077   9.191   2.993   1.116
44060SOL    HW234078   9.043   3.018   1.136
44061SOL     OW34079   5.123  14.839   5.186
44061SOL    HW134080   5.076  14.756   5.186
44061SOL    HW234081   5.141  14.858   5.278
44062SOL     OW34082   9.622   9.186   1.850
44062SOL    HW134083   9.542   9.144   1.881
44062SOL    HW234084   9.642   9.141   1.768
44063SOL     OW34085  13.120   2.580   9.553
44063SOL    HW134086  13.143   2.548   9.466
44063SOL    HW234087  13.033   2.543   9.569
44064SOL     OW34088   2.570   5.166   6.853
44064SOL    HW134089   2.487   5.150   6.898
44064SOL    HW234090   2.636   5.134   6.914
44065SOL     OW34091   5.498  14.465   0.423
44065SOL    HW134092   5.469  14.437   0.337
44065SOL    HW234093   5.434  14.427   0.484
44066SOL     OW34094   9.084  13.600   5.361
44066SOL    HW134095   9.052  13.511   5.344
44066SOL    HW234096   9.032  13.631   5.434
44067SOL     OW34097  14.612  13.888  10.547
44067SOL    HW134098  14.621  13.969  10.597
44067SOL    HW234099  14.527  13.895  10.504
44068SOL     OW34100   9.794   2.857  14.017
44068SOL    HW134101   9.700   2.874  14.008
44068SOL    HW234102   9.815   2.883  14.106
44069SOL     OW34103   5.684   3.466  11.343
44069SOL    HW134104   5.764   3.474  11.395
44069SOL    HW234105   5.707   3.500  11.257
44070SOL     OW34106   9.326   0.267   4.851
44070SOL    HW134107   9.401   0.325   4.841
44070SOL    HW234108   9.255   0.311   4.803
44071SOL     OW34109   2.726   4.668   0.356
44071SOL    HW134110   2.776   4.624   0.424
44071SOL    HW234111   2.656   4.606   0.333
44072SOL     OW34112  12.424   9.927   2.798
44072SOL    HW134113  12.392   9.863   2.734
44072SOL    HW234114  12.361   9.923   2.869
44073SOL     OW34115   9.266   2.206  14.177
44073SOL    HW134116   9.309   2.236  14.257
44073SOL    HW234117   9.287   2.273  14.112
44074SOL     OW34118   9.923  14.479   3.606
44074SOL    HW134119   9.924  14.567   3.642
44074SOL    HW234120   9.953  14.489   3.516
44075SOL     OW34121   5.939   8.812   3.427
44075SOL    HW134122   6.015   8.849   3.382
44075SOL    HW234123   5.940   8.855   3.513
44076SOL     OW34124   7.716   5.869  14.111
44076SOL    HW134125   7.772   5.886  14.186
44076SOL    HW234126   7.776   5.844  14.040
44077SOL     OW34127  11.783  10.212   5.514
44077SOL    HW134128  11.802  10.203   5.608
44077SOL    HW234129  11.746  10.301   5.506
44078SOL     OW34130  10.328   3.940   5.098
44078SOL    HW134131  10.252   3.979   5.141
44078SOL    HW234132  10.338   3.854   5.140
44079SOL     OW34133   0.085   5.197  11.207
44079SOL    HW134134   0.077   5.275  11.153
44079SOL    HW234135   0.177   5.173  11.202
44080SOL     OW34136   0.331   2.296   0.182
44080SOL    HW134137   0.421   2.328   0.193
44080SOL    HW234138   0.328   2.216   0.234
44081SOL     OW34139   4.851   9.245  10.891
44081SOL    HW134140   4.881   9.329  10.925
44081SOL    HW234141   4.901   9.180  10.938
44082SOL     OW34142   6.050   2.276  13.978
44082SOL    HW134143   5.971   2.226  13.961
44082SOL    HW234144   6.032   2.363  13.942
44083SOL     OW34145   6.724   7.268   9.150
44083SOL    HW134146   6.684   7.195   9.102
44083SOL    HW234147   6.810   7.235   9.176
44084SOL     OW34148   0.098   3.280  10.676
44084SOL    HW134149   0.079   3.373  10.687
44084SOL    HW234150   0.016   3.243  10.642
44085SOL     OW34151   6.495   7.680   0.644
44085SOL    HW134152   6.445   7.600   0.633
44085SOL    HW234153   6.531   7.674   0.733
44086SOL     OW34154   0.240   8.236   4.876
44086SOL    HW134155   0.269   8.163   4.821
44086SOL    HW234156   0.231   8.309   4.815
44087SOL     OW34157  10.374  14.351  13.493
44087SOL    HW134158  10.398  14.429  13.543
44087SOL    HW234159  10.455  14.301  13.486
44088SOL     OW34160   2.689   8.089   3.819
44088SOL    HW134161   2.760   8.152   3.824
44088SOL    HW234162   2.681   8.056   3.909
44089SOL     OW34163  10.942  10.240   3.241
44089SOL    HW134164  10.990  10.311   3.283
44089SOL    HW234165  10.850  10.267   3.247
44090SOL     OW34166  11.616   3.214  13.980
44090SOL    HW134167  11.614   3.124  14.013
44090SOL    HW234168  11.620   3.204  13.885
44091SOL     OW34169  14.849  11.667   1.086
44091SOL    HW134170   0.034  11.597   1.095
44091SOL    HW234171  14.868  11.706   1.001
44092SOL     OW34172  14.097   3.862   7.411
44092SOL    HW134173  14.049   3.945   7.409
44092SOL    HW234174  14.029   3.795   7.424
44093SOL     OW34175   3.598   2.437   6.274
44093SOL    HW134176   3.659   2.507   6.252
44093SOL    HW234177   3.645   2.384   6.339
44094SOL     OW34178  11.318  10.793   1.214
44094SOL    HW134179  11.225  10.771   1.203
44094SOL    HW234180  11.364  10.712   1.191
44095SOL     OW34181  13.414   8.073   3.199
44095SOL    HW134182  13.496   8.121   3.208
44095SOL    HW234183  13.356   8.111   3.265
44096SOL     OW34184   3.314  10.349   5.021
44096SOL    HW134185   3.237  10.371   5.074
44096SOL    HW234186   3.306  10.255   5.006
44097SOL     OW34187   3.061   3.119  12.006
44097SOL    HW134188   3.124   3.190  12.013
44097SOL    HW234189   3.090   3.069  11.930
44098SOL     OW34190   6.630   9.093   8.696
44098SOL    HW134191   6.714   9.082   8.740
44098SOL    HW234192   6.565   9.078   8.764
44099SOL     OW34193   3.600   4.901  14.501
44099SOL    HW134194   3.641   4.977  14.461
44099SOL    HW234195   3.670   4.835  14.502
44100SOL     OW34196  12.892  11.022   7.598
44100SOL    HW134197  12.877  11.092   7.660
44100SOL    HW234198  12.829  10.954   7.622
44101SOL     OW34199   0.113  13.831  12.495
44101SOL    HW134200   0.086  13.923  12.497
44101SOL    HW234201   0.203  13.833  12.464
44102SOL     OW34202   6.756   6.406   9.437
44102SOL    HW134203   6.751   6.315   9.466
44102SOL    HW234204   6.668   6.426   9.404
44103SOL     OW34205   4.824  11.728   0.826
44103SOL    HW134206   4.785  11.806   0.864
44103SOL    HW234207   4.759  11.659   0.838
44104SOL     OW34208   8.635   0.449   6.218
44104SOL    HW134209   8.554   0.465   6.267
44104SOL    HW234210   8.672   0.371   6.258
44105SOL     OW34211  12.114   4.208  12.118
44105SOL    HW134212  12.199   4.244  12.144
44105SOL    HW234213  12.077   4.172  12.199
44106SOL     OW34214   7.674  12.708   7.460
44106SOL    HW134215   7.769  12.702   7.469
44106SOL    HW234216   7.650  12.639   7.399
44107SOL     OW34217   8.543   5.054   6.908
44107SOL    HW134218   8.620   5.109   6.896
44107SOL    HW234219   8.518   5.027   6.820
44108SOL     OW34220   6.004   3.799  13.683
44108SOL    HW134221   5.958   3.810  13.600
44108SOL    HW234222   6.070   3.732  13.665
44109SOL     OW34223   5.210  14.167   9.347
44109SOL    HW134224   5.288  14.155   9.400
44109SOL    HW234225   5.150  14.099   9.376
44110SOL     OW34226  11.187   1.019   9.073
44110SOL    HW134227  11.113   1.042   9.018
44110SOL    HW234228  11.197   1.094   9.132
44111SOL     OW34229   7.748   1.672  12.496
44111SOL    HW134230   7.804   1.604  12.533
44111SOL    HW234231   7.684   1.689  12.564
44112SOL     OW34232   7.566   6.347   7.628
44112SOL    HW134233   7.594   6.331   7.538
44112SOL    HW234234   7.535   6.438   7.628
44113SOL     OW34235  11.372   4.954   4.583
44113SOL    HW134236  11.424   5.033   4.599
44113SOL    HW234237  11.327   4.938   4.665
44114SOL     OW34238  11.460  13.596   7.074
44114SOL    HW134239  11.553  13.610   7.089
44114SOL    HW234240  11.452  13.504   7.051
44115SOL     OW34241  10.898  12.530   6.764
44115SOL    HW134242  10.853  12.452   6.735
44115SOL    HW234243  10.837  12.602   6.748
44116SOL     OW34244   5.273   4.875   3.080
44116SOL    HW134245   5.282   4.790   3.124
44116SOL    HW234246   5.199   4.917   3.124
44117SOL     OW34247   8.168  13.300   6.801
44117SOL    HW134248   8.221  13.357   6.746
44117SOL    HW234249   8.104  13.261   6.741
44118SOL     OW34250   9.201   2.020   6.215
44118SOL    HW134251   9.241   1.973   6.288
44118SOL    HW234252   9.175   1.952   6.154
44119SOL     OW34253   6.709   4.305   3.826
44119SOL    HW134254   6.746   4.388   3.857
44119SOL    HW234255   6.783   4.245   3.825
44120SOL     OW34256   4.661  12.438   6.282
44120SOL    HW134257   4.669  12.510   6.219
44120SOL    HW234258   4.750  12.423   6.313
44121SOL     OW34259   5.677   1.828   3.911
44121SOL    HW134260   5.733   1.893   3.954
44121SOL    HW234261   5.712   1.822   3.822
44122SOL     OW34262   8.136   3.423   7.541
44122SOL    HW134263   8.068   3.357   7.555
44122SOL    HW234264   8.119   3.489   7.608
44123SOL     OW34265  14.205   6.840  11.973
44123SOL    HW134266  14.294   6.839  11.939
44123SOL    HW234267  14.195   6.756  12.018
44124SOL     OW34268  13.804   3.601  11.693
44124SOL    HW134269  13.838   3.541  11.626
44124SOL    HW234270  13.882   3.628  11.742
44125SOL     OW34271   4.036  12.947   8.000
44125SOL    HW134272   3.942  12.953   7.986
44125SOL    HW234273   4.046  12.932   8.094
44126SOL     OW34274   9.534   9.002   4.510
44126SOL    HW134275   9.577   9.081   4.543
44126SOL    HW234276   9.451   9.033   4.474
44127SOL     OW34277  11.566  13.007   3.281
44127SOL    HW134278  11.571  12.978   3.372
44127SOL    HW234279  11.486  13.060   3.277
44128SOL     OW34280   3.696   6.823   4.506
44128SOL    HW134281   3.709   6.729   4.500
44128SOL    HW234282   3.617   6.840   4.453
44129SOL     OW34283   6.914  12.491  11.047
44129SOL    HW134284   6.861  12.422  11.088
44129SOL    HW234285   6.929  12.554  11.117
44130SOL     OW34286   0.367   1.542  10.757
44130SOL    HW134287   0.397   1.465  10.805
44130SOL    HW234288   0.435   1.607  10.769
44131SOL     OW34289   9.318   1.775   4.197
44131SOL    HW134290   9.299   1.855   4.148
44131SOL    HW234291   9.397   1.795   4.247
44132SOL     OW34292   2.179   2.805  10.180
44132SOL    HW134293   2.133   2.836  10.101
44132SOL    HW234294   2.124   2.836  10.252
44133SOL     OW34295   8.359   4.854   9.496
44133SOL    HW134296   8.448   4.857   9.460
44133SOL    HW234297   8.321   4.776   9.458
44134SOL     OW34298   7.161   4.088   7.114
44134SOL    HW134299   7.251   4.058   7.122
44134SOL    HW234300   7.109   4.022   7.160
44135SOL     OW34301   7.455   2.228   7.008
44135SOL    HW134302   7.450   2.322   6.988
44135SOL    HW234303   7.406   2.186   6.938
44136SOL     OW34304   7.299   3.800  10.724
44136SOL    HW134305   7.248   3.832  10.649
44136SOL    HW234306   7.390   3.813  10.699
44137SOL     OW34307  11.049   7.089  12.596
44137SOL    HW134308  11.011   7.005  12.622
44137SOL    HW234309  10.974   7.143  12.571
44138SOL     OW34310  10.037   2.826   3.007
44138SOL    HW134311   9.956   2.793   3.046
44138SOL    HW234312  10.012   2.907   2.963
44139SOL     OW34313   8.481   2.710  14.162
44139SOL    HW134314   8.497   2.667  14.246
44139SOL    HW234315   8.468   2.639  14.100
44140SOL     OW34316   4.720   0.292   6.187
44140SOL    HW134317   4.720   0.367   6.247
44140SOL    HW234318   4.727   0.331   6.100
44141SOL     OW34319   7.360  14.144   6.809
44141SOL    HW134320   7.343  14.065   6.859
44141SOL    HW234321   7.445  14.129   6.767
44142SOL     OW34322   4.308  13.743  12.315
44142SOL    HW134323   4.364  13.706  12.383
44142SOL    HW234324   4.297  13.835  12.340
44143SOL     OW34325   0.144   1.529  13.654
44143SOL    HW134326   0.099   1.607  13.622
44143SOL    HW234327   0.232   1.535  13.617
44144SOL     OW34328   3.818  14.651   6.914
44144SOL    HW134329   3.752  14.657   6.983
44144SOL    HW234330   3.891  14.703   6.946
44145SOL     OW34331   8.567   3.450   0.308
44145SOL    HW134332   8.618   3.531   0.319
44145SOL    HW234333   8.505   3.471   0.238
44146SOL     OW34334   7.067   0.052   8.117
44146SOL    HW134335   7.161   0.045   8.101
44146SOL    HW234336   7.036  14.841   8.124
44147SOL     OW34337   4.609  10.539  13.374
44147SOL    HW134338   4.641  10.619  13.415
44147SOL    HW234339   4.550  10.570  13.305
44148SOL     OW34340   2.272  14.022  12.706
44148SOL    HW134341   2.309  14.105  12.677
44148SOL    HW234342   2.312  14.006  12.791
44149SOL     OW34343   8.961   6.985   3.731
44149SOL    HW134344   9.002   7.066   3.703
44149SOL    HW234345   8.997   6.968   3.818
44150SOL     OW34346  14.196   5.750   3.231
44150SOL    HW134347  14.278   5.714   3.266
44150SOL    HW234348  14.185   5.705   3.147
44151SOL     OW34349  11.470  12.824   6.731
44151SOL    HW134350  11.422  12.885   6.787
44151SOL    HW234351  11.429  12.832   6.646
44152SOL     OW34352  12.317  12.985  11.260
44152SOL    HW134353  12.344  13.043  11.189
44152SOL    HW234354  12.297  13.044  11.332
44153SOL     OW34355   1.884  11.526   3.177
44153SOL    HW134356   1.963  11.491   3.137
44153SOL    HW234357   1.825  11.451   3.184
44154SOL     OW34358   3.202   5.410  10.603
44154SOL    HW134359   3.248   5.330  10.628
44154SOL    HW234360   3.135   5.382  10.541
44155SOL     OW34361  12.606   2.193  11.817
44155SOL    HW134362  12.543   2.125  11.838
44155SOL    HW234363  12.674   2.148  11.766
44156SOL     OW34364  13.899  13.793   7.036
44156SOL    HW134365  13.826  13.733   7.051
44156SOL    HW234366  13.970  13.759   7.091
44157SOL     OW34367  12.209   5.415   4.721
44157SOL    HW134368  12.119   5.447   4.715
44157SOL    HW234369  12.205   5.325   4.689
44158SOL     OW34370   2.312   4.895   5.428
44158SOL    HW134371   2.357   4.876   5.511
44158SOL    HW234372   2.225   4.924   5.454
44159SOL     OW34373   4.646   3.392   8.513
44159SOL    HW134374   4.581   3.414   8.446
44159SOL    HW234375   4.731   3.402   8.468
44160SOL     OW34376  10.947   2.342   5.671
44160SOL    HW134377  11.013   2.304   5.729
44160SOL    HW234378  10.877   2.371   5.729
44161SOL     OW34379   9.909   1.669   6.213
44161SOL    HW134380   9.946   1.753   6.243
44161SOL    HW234381   9.962   1.603   6.258
44162SOL     OW34382   4.328  10.599  14.722
44162SOL    HW134383   4.334  10.505  14.708
44162SOL    HW234384   4.295  10.634  14.639
44163SOL     OW34385  13.961   7.565   4.813
44163SOL    HW134386  13.871   7.576   4.783
44163SOL    HW234387  14.013   7.556   4.733
44164SOL     OW34388   2.895  13.010  11.811
44164SOL    HW134389   2.847  13.081  11.855
44164SOL    HW234390   2.834  12.937  11.810
44165SOL     OW34391   2.331   7.452   2.907
44165SOL    HW134392   2.345   7.505   2.829
44165SOL    HW234393   2.269   7.503   2.959
44166SOL     OW34394  14.691  14.412   9.085
44166SOL    HW134395  14.725  14.371   9.006
44166SOL    HW234396  14.745  14.376   9.155
44167SOL     OW34397   0.378   7.258   1.216
44167SOL    HW134398   0.394   7.195   1.146
44167SOL    HW234399   0.326   7.210   1.280
44168SOL     OW34400   3.103  13.811   3.607
44168SOL    HW134401   3.135  13.865   3.535
44168SOL    HW234402   3.058  13.738   3.564
44169SOL     OW34403  14.333   9.958   6.827
44169SOL    HW134404  14.351  10.052   6.823
44169SOL    HW234405  14.276   9.941   6.752
44170SOL     OW34406  10.591   4.638  10.821
44170SOL    HW134407  10.558   4.652  10.732
44170SOL    HW234408  10.536   4.695  10.875
44171SOL     OW34409   9.307   2.302   3.259
44171SOL    HW134410   9.249   2.332   3.328
44171SOL    HW234411   9.358   2.380   3.236
44172SOL     OW34412  10.544   9.076   6.306
44172SOL    HW134413  10.460   9.102   6.345
44172SOL    HW234414  10.609   9.130   6.350
44173SOL     OW34415  13.389  14.245   9.047
44173SOL    HW134416  13.465  14.272   9.098
44173SOL    HW234417  13.350  14.326   9.016
44174SOL     OW34418   4.721  11.290   6.154
44174SOL    HW134419   4.679  11.229   6.214
44174SOL    HW234420   4.711  11.249   6.068
44175SOL     OW34421  13.572   1.436   0.937
44175SOL    HW134422  13.578   1.348   0.973
44175SOL    HW234423  13.599   1.494   1.009
44176SOL     OW34424  14.694   2.061   0.443
44176SOL    HW134425  14.717   2.097   0.529
44176SOL    HW234426  14.740   1.977   0.438
44177SOL     OW34427  12.004   4.265   6.654
44177SOL    HW134428  11.969   4.176   6.651
44177SOL    HW234429  12.008   4.293   6.562
44178SOL     OW34430   1.499   4.945  13.578
44178SOL    HW134431   1.431   4.920  13.515
44178SOL    HW234432   1.538   4.862  13.606
44179SOL     OW34433   0.009   7.674   3.110
44179SOL    HW134434   0.036   7.640   3.195
44179SOL    HW234435  14.877   7.768   3.125
44180SOL     OW34436   0.479   2.495  13.359
44180SOL    HW134437   0.438   2.516  13.275
44180SOL    HW234438   0.458   2.402  13.373
44181SOL     OW34439  11.673  11.078   4.096
44181SOL    HW134440  11.694  11.161   4.138
44181SOL    HW234441  11.578  11.079   4.087
44182SOL     OW34442   1.651   7.156   2.792
44182SOL    HW134443   1.609   7.098   2.856
44182SOL    HW234444   1.697   7.096   2.733
44183SOL     OW34445   9.292   7.839  12.119
44183SOL    HW134446   9.290   7.789  12.200
44183SOL    HW234447   9.317   7.928  12.146
44184SOL     OW34448  11.432  11.147  10.017
44184SOL    HW134449  11.375  11.077  10.049
44184SOL    HW234450  11.446  11.126   9.925
44185SOL     OW34451  10.364   1.517   9.584
44185SOL    HW134452  10.454   1.487   9.570
44185SOL    HW234453  10.365   1.554   9.673
44186SOL     OW34454  13.210  10.742   4.345
44186SOL    HW134455  13.279  10.684   4.378
44186SOL    HW234456  13.217  10.820   4.399
44187SOL     OW34457   8.109   8.765   0.461
44187SOL    HW134458   8.107   8.843   0.517
44187SOL    HW234459   8.177   8.710   0.498
44188SOL     OW34460  14.794  13.830   7.720
44188SOL    HW134461  14.786  13.880   7.801
44188SOL    HW234462  14.757  13.744   7.741
44189SOL     OW34463  11.506  11.474   3.072
44189SOL    HW134464  11.428  11.473   3.128
44189SOL    HW234465  11.565  11.536   3.114
44190SOL     OW34466  11.213  10.678   5.396
44190SOL    HW134467  11.170  10.736   5.333
44190SOL    HW234468  11.201  10.590   5.360
44191SOL     OW34469   1.394   8.812   2.591
44191SOL    HW134470   1.335   8.761   2.536
44191SOL    HW234471   1.434   8.747   2.649
44192SOL     OW34472   5.908   5.376   7.766
44192SOL    HW134473   5.918   5.468   7.741
44192SOL    HW234474   5.982   5.332   7.725
44193SOL     OW34475   9.268   5.888   1.312
44193SOL    HW134476   9.243   5.826   1.380
44193SOL    HW234477   9.363   5.893   1.318
44194SOL     OW34478  12.298  13.833  14.641
44194SOL    HW134479  12.319  13.878  14.723
44194SOL    HW234480  12.309  13.900  14.574
44195SOL     OW34481   0.533   9.834   1.268
44195SOL    HW134482   0.455   9.812   1.216
44195SOL    HW234483   0.528   9.930   1.278
44196SOL     OW34484   4.502   9.909   3.400
44196SOL    HW134485   4.488  10.003   3.414
44196SOL    HW234486   4.560   9.905   3.324
44197SOL     OW34487  14.383   6.727  11.452
44197SOL    HW134488  14.397   6.638  11.486
44197SOL    HW234489  14.425   6.727  11.366
44198SOL     OW34490   7.352  13.950   4.897
44198SOL    HW134491   7.423  14.006   4.865
44198SOL    HW234492   7.272  13.994   4.868
44199SOL     OW34493  13.122  13.589   1.607
44199SOL    HW134494  13.098  13.624   1.521
44199SOL    HW234495  13.071  13.641   1.669
44200SOL     OW34496   1.156  14.805  13.170
44200SOL    HW134497   1.065  14.811  13.196
44200SOL    HW234498   1.165  14.868  13.098
44201SOL     OW34499   3.683   9.250   6.444
44201SOL    HW134500   3.601   9.219   6.482
44201SOL    HW234501   3.688   9.206   6.359
44202SOL     OW34502  14.201   6.176   4.403
44202SOL    HW134503  14.251   6.213   4.476
44202SOL    HW234504  14.228   6.228   4.327
44203SOL     OW34505   9.125  12.255   8.609
44203SOL    HW134506   9.187  12.183   8.596
44203SOL    HW234507   9.173  12.332   8.579
44204SOL     OW34508   5.184   1.014   2.091
44204SOL    HW134509   5.166   1.067   2.014
44204SOL    HW234510   5.131   0.935   2.080
44205SOL     OW34511   7.193  12.598   0.247
44205SOL    HW134512   7.140  12.525   0.215
44205SOL    HW234513   7.131  12.652   0.296
44206SOL     OW34514   8.899  11.627   2.045
44206SOL    HW134515   8.973  11.675   2.083
44206SOL    HW234516   8.823  11.659   2.094
44207SOL     OW34517  12.069   4.159   4.778
44207SOL    HW134518  11.991   4.142   4.725
44207SOL    HW234519  12.041   4.221   4.845
44208SOL     OW34520  13.762  13.361   9.982
44208SOL    HW134521  13.742  13.377   9.890
44208SOL    HW234522  13.833  13.423  10.002
44209SOL     OW34523   8.961   0.853   4.753
44209SOL    HW134524   9.056   0.859   4.750
44209SOL    HW234525   8.932   0.937   4.789
44210SOL     OW34526  11.925  14.752   9.985
44210SOL    HW134527  11.844  14.704  10.003
44210SOL    HW234528  11.994  14.686   9.998
44211SOL     OW34529   0.010   5.590   7.972
44211SOL    HW134530  14.843   5.545   7.901
44211SOL    HW234531  14.846   5.559   8.051
44212SOL     OW34532  14.615   9.258   2.764
44212SOL    HW134533  14.602   9.333   2.706
44212SOL    HW234534  14.699   9.275   2.807
44213SOL     OW34535  12.556  11.195   0.841
44213SOL    HW134536  12.465  11.167   0.856
44213SOL    HW234537  12.608  11.141   0.901
44214SOL     OW34538   9.431   6.812   0.905
44214SOL    HW134539   9.506   6.860   0.940
44214SOL    HW234540   9.467   6.727   0.878
44215SOL     OW34541   3.809  10.493  12.558
44215SOL    HW134542   3.795  10.578  12.599
44215SOL    HW234543   3.766  10.500  12.472
44216SOL     OW34544  13.622   7.249  10.071
44216SOL    HW134545  13.562   7.186  10.112
44216SOL    HW234546  13.653   7.204   9.992
44217SOL     OW34547   5.311   7.638   0.650
44217SOL    HW134548   5.328   7.596   0.734
44217SOL    HW234549   5.304   7.731   0.671
44218SOL     OW34550   2.462  12.584   6.903
44218SOL    HW134551   2.544  12.621   6.935
44218SOL    HW234552   2.453  12.501   6.951
44219SOL     OW34553  13.968  13.408   4.089
44219SOL    HW134554  13.879  13.403   4.055
44219SOL    HW234555  14.024  13.401   4.012
44220SOL     OW34556   1.623   0.868   3.807
44220SOL    HW134557   1.694   0.839   3.751
44220SOL    HW234558   1.631   0.963   3.809
44221SOL     OW34559   0.431   5.215   1.371
44221SOL    HW134560   0.428   5.309   1.354
44221SOL    HW234561   0.522   5.198   1.396
44222SOL     OW34562  14.047   2.305   3.050
44222SOL    HW134563  14.068   2.212   3.047
44222SOL    HW234564  14.017   2.326   2.962
44223SOL     OW34565  12.830   8.908  13.666
44223SOL    HW134566  12.744   8.933  13.700
44223SOL    HW234567  12.883   8.987  13.673
44224SOL     OW34568   6.286  12.822   9.942
44224SOL    HW134569   6.268  12.835   9.849
44224SOL    HW234570   6.227  12.882   9.987
44225SOL     OW34571   3.253   2.326  13.639
44225SOL    HW134572   3.161   2.339  13.661
44225SOL    HW234573   3.252   2.255  13.574
44226SOL     OW34574  14.601   0.256   5.513
44226SOL    HW134575  14.611   0.266   5.419
44226SOL    HW234576  14.628   0.166   5.531
44227SOL     OW34577   9.626   1.064   3.341
44227SOL    HW134578   9.716   1.069   3.308
44227SOL    HW234579   9.572   1.086   3.265
44228SOL     OW34580   3.249  12.522   0.168
44228SOL    HW134581   3.295  12.559   0.243
44228SOL    HW234582   3.291  12.437   0.153
44229SOL     OW34583  10.965  12.155  10.239
44229SOL    HW134584  10.923  12.240  10.245
44229SOL    HW234585  10.918  12.100  10.303
44230SOL     OW34586  12.007  10.206  10.858
44230SOL    HW134587  11.919  10.241  10.872
44230SOL    HW234588  12.004  10.167  10.771
44231SOL     OW34589   7.004   5.188   7.416
44231SOL    HW134590   7.045   5.253   7.359
44231SOL    HW234591   7.076   5.152   7.467
44232SOL     OW34592   1.029   0.023   3.185
44232SOL    HW134593   1.012   0.113   3.213
44232SOL    HW234594   1.011  14.850   3.262
44233SOL     OW34595   0.214   4.829  12.786
44233SOL    HW134596   0.261   4.858  12.707
44233SOL    HW234597   0.179   4.909  12.824
44234SOL     OW34598  13.333   2.683  11.794
44234SOL    HW134599  13.318   2.775  11.774
44234SOL    HW234600  13.341   2.641  11.709
44235SOL     OW34601  13.256  11.028   3.978
44235SOL    HW134602  13.267  11.087   4.053
44235SOL    HW234603  13.199  11.076   3.918
44236SOL     OW34604   7.364  10.761  10.708
44236SOL    HW134605   7.281  10.798  10.740
44236SOL    HW234606   7.340  10.718  10.626
44237SOL     OW34607   3.146   8.526   5.543
44237SOL    HW134608   3.230   8.552   5.581
44237SOL    HW234609   3.142   8.432   5.556
44238SOL     OW34610  14.129   0.569   8.363
44238SOL    HW134611  14.188   0.494   8.351
44238SOL    HW234612  14.188   0.645   8.367
44239SOL     OW34613   5.789   8.203   3.629
44239SOL    HW134614   5.837   8.205   3.712
44239SOL    HW234615   5.708   8.251   3.647
44240SOL     OW34616   4.923   1.612   5.105
44240SOL    HW134617   5.018   1.611   5.090
44240SOL    HW234618   4.887   1.656   5.028
44241SOL     OW34619   3.569   0.037   8.272
44241SOL    HW134620   3.499   0.072   8.327
44241SOL    HW234621   3.555   0.079   8.187
44242SOL     OW34622   6.787   8.760  11.913
44242SOL    HW134623   6.717   8.788  11.972
44242SOL    HW234624   6.774   8.666  11.902
44243SOL     OW34625   4.626   6.094   8.814
44243SOL    HW134626   4.629   6.000   8.795
44243SOL    HW234627   4.536   6.110   8.841
44244SOL     OW34628  10.173   9.694   1.029
44244SOL    HW134629  10.203   9.778   1.064
44244SOL    HW234630  10.116   9.659   1.098
44245SOL     OW34631   3.846  12.804   4.377
44245SOL    HW134632   3.896  12.859   4.317
44245SOL    HW234633   3.905  12.732   4.399
44246SOL     OW34634   1.738   4.645   1.699
44246SOL    HW134635   1.715   4.703   1.627
44246SOL    HW234636   1.783   4.701   1.762
44247SOL     OW34637   9.887   1.342   9.476
44247SOL    HW134638   9.937   1.302   9.547
44247SOL    HW234639   9.796   1.339   9.505
44248SOL     OW34640   5.563  14.685  11.798
44248SOL    HW134641   5.646  14.724  11.771
44248SOL    HW234642   5.539  14.627  11.725
44249SOL     OW34643  14.866   5.371   5.877
44249SOL    HW134644   0.061   5.345   5.824
44249SOL    HW234645  14.816   5.431   5.822
44250SOL     OW34646  13.929  13.415   8.187
44250SOL    HW134647  13.853  13.445   8.137
44250SOL    HW234648  13.996  13.397   8.121
44251SOL     OW34649   4.145  12.225   2.544
44251SOL    HW134650   4.181  12.171   2.614
44251SOL    HW234651   4.103  12.163   2.484
44252SOL     OW34652  11.751  10.030  10.353
44252SOL    HW134653  11.797   9.988  10.281
44252SOL    HW234654  11.749  10.123  10.329
44253SOL     OW34655   1.787  10.206   3.021
44253SOL    HW134656   1.718  10.146   2.994
44253SOL    HW234657   1.761  10.236   3.108
44254SOL     OW34658   5.557   2.397   5.194
44254SOL    HW134659   5.544   2.339   5.270
44254SOL    HW234660   5.470   2.406   5.156
44255SOL     OW34661   4.894   2.710   2.148
44255SOL    HW134662   4.822   2.647   2.155
44255SOL    HW234663   4.851   2.795   2.142
44256SOL     OW34664  12.661   1.925   6.762
44256SOL    HW134665  12.675   1.988   6.690
44256SOL    HW234666  12.719   1.955   6.832
44257SOL     OW34667   2.604  12.646   8.884
44257SOL    HW134668   2.641  12.683   8.965
44257SOL    HW234669   2.643  12.558   8.878
44258SOL     OW34670   2.180   9.815   9.631
44258SOL    HW134671   2.151   9.803   9.541
44258SOL    HW234672   2.223   9.733   9.654
44259SOL     OW34673   1.326   7.541  14.256
44259SOL    HW134674   1.328   7.633  14.281
44259SOL    HW234675   1.370   7.538  14.171
44260SOL     OW34676   3.990   1.588   8.279
44260SOL    HW134677   3.925   1.539   8.230
44260SOL    HW234678   4.032   1.645   8.213
44261SOL     OW34679   4.723   3.951   7.436
44261SOL    HW134680   4.795   3.976   7.494
44261SOL    HW234681   4.760   3.882   7.381
44262SOL     OW34682   3.995   7.552   7.867
44262SOL    HW134683   4.006   7.540   7.962
44262SOL    HW234684   4.030   7.472   7.829
44263SOL     OW34685   5.767   7.973   2.070
44263SOL    HW134686   5.818   7.913   2.124
44263SOL    HW234687   5.820   7.986   1.991
44264SOL     OW34688   1.155   2.165  14.030
44264SOL    HW134689   1.106   2.241  13.998
44264SOL    HW234690   1.174   2.186  14.121
44265SOL     OW34691  12.717   7.194   1.177
44265SOL    HW134692  12.796   7.169   1.224
44265SOL    HW234693  12.737   7.175   1.085
44266SOL     OW34694  12.177   1.669  12.776
44266SOL    HW134695  12.197   1.585  12.818
44266SOL    HW234696  12.115   1.647  12.707
44267SOL     OW34697   1.136   1.533  14.287
44267SOL    HW134698   1.085   1.452  14.292
44267SOL    HW234699   1.103   1.577  14.209
44268SOL     OW34700  11.210   3.410   2.544
44268SOL    HW134701  11.304   3.420   2.528
44268SOL    HW234702  11.179   3.498   2.565
44269SOL     OW34703   1.591   1.297  12.320
44269SOL    HW134704   1.627   1.269  12.404
44269SOL    HW234705   1.654   1.268  12.255
44270SOL     OW34706   5.366  13.264   3.085
44270SOL    HW134707   5.351  13.252   3.178
44270SOL    HW234708   5.379  13.175   3.051
44271SOL     OW34709   7.339   4.829  14.812
44271SOL    HW134710   7.409   4.867  14.760
44271SOL    HW234711   7.316   4.748  14.766
44272SOL     OW34712  11.064   8.830   8.526
44272SOL    HW134713  11.061   8.891   8.453
44272SOL    HW234714  11.060   8.743   8.485
44273SOL     OW34715  10.968   6.069  13.282
44273SOL    HW134716  10.991   6.056  13.374
44273SOL    HW234717  10.884   6.114  13.285
44274SOL     OW34718  13.891   0.713   2.499
44274SOL    HW134719  13.961   0.699   2.563
44274SOL    HW234720  13.833   0.777   2.542
44275SOL     OW34721  13.228   3.968  14.805
44275SOL    HW134722  13.242   3.873  14.810
44275SOL    HW234723  13.162   3.978  14.736
44276SOL     OW34724   1.632   6.889   6.875
44276SOL    HW134725   1.562   6.833   6.909
44276SOL    HW234726   1.708   6.831   6.870
44277SOL     OW34727   0.458  10.258   6.012
44277SOL    HW134728   0.457  10.173   5.968
44277SOL    HW234729   0.369  10.267   6.047
44278SOL     OW34730   3.429   0.074   1.978
44278SOL    HW134731   3.334   0.083   1.969
44278SOL    HW234732   3.463   0.162   1.963
44279SOL     OW34733   4.412   8.207  10.890
44279SOL    HW134734   4.361   8.279  10.928
44279SOL    HW234735   4.350   8.135  10.881
44280SOL     OW34736   7.599   1.750   7.767
44280SOL    HW134737   7.594   1.703   7.850
44280SOL    HW234738   7.507   1.762   7.741
44281SOL     OW34739   8.002   1.244  10.072
44281SOL    HW134740   8.019   1.338  10.067
44281SOL    HW234741   7.906   1.237  10.071
44282SOL     OW34742  12.744   3.084  11.474
44282SOL    HW134743  12.691   3.096  11.552
44282SOL    HW234744  12.781   3.171  11.457
44283SOL     OW34745  12.704  12.782  10.296
44283SOL    HW134746  12.710  12.697  10.340
44283SOL    HW234747  12.718  12.846  10.365
44284SOL     OW34748  13.690   2.560  11.704
44284SOL    HW134749  13.775   2.517  11.694
44284SOL    HW234750  13.712   2.653  11.714
44285SOL     OW34751  14.494   1.915   4.418
44285SOL    HW134752  14.404   1.924   4.387
44285SOL    HW234753  14.522   1.830   4.385
44286SOL     OW34754   2.144   7.022   6.107
44286SOL    HW134755   2.067   6.979   6.072
44286SOL    HW234756   2.199   6.950   6.139
44287SOL     OW34757   5.573  13.350   6.649
44287SOL    HW134758   5.641  13.305   6.699
44287SOL    HW234759   5.540  13.417   6.708
44288SOL     OW34760   6.554   0.169   6.338
44288SOL    HW134761   6.631   0.170   6.281
44288SOL    HW234762   6.576   0.230   6.408
44289SOL     OW34763   6.156  12.932   9.384
44289SOL    HW134764   6.127  13.013   9.341
44289SOL    HW234765   6.224  12.960   9.444
44290SOL     OW34766   8.805  13.685  10.709
44290SOL    HW134767   8.724  13.638  10.729
44290SOL    HW234768   8.830  13.728  10.791
44291SOL     OW34769   4.364   6.297   1.461
44291SOL    HW134770   4.456   6.290   1.436
44291SOL    HW234771   4.347   6.391   1.467
44292SOL     OW34772   7.585   7.454   5.070
44292SOL    HW134773   7.576   7.472   4.976
44292SOL    HW234774   7.581   7.539   5.112
44293SOL     OW34775   4.629  14.445   6.107
44293SOL    HW134776   4.628  14.465   6.013
44293SOL    HW234777   4.714  14.405   6.122
44294SOL     OW34778  11.941  11.303   8.356
44294SOL    HW134779  11.975  11.340   8.438
44294SOL    HW234780  11.928  11.210   8.375
44295SOL     OW34781   2.636   3.722   5.850
44295SOL    HW134782   2.671   3.808   5.827
44295SOL    HW234783   2.712   3.664   5.852
44296SOL     OW34784  11.977   3.122  12.115
44296SOL    HW134785  11.968   3.180  12.190
44296SOL    HW234786  12.041   3.057  12.142
44297SOL     OW34787   4.203   9.740  10.307
44297SOL    HW134788   4.160   9.740  10.393
44297SOL    HW234789   4.149   9.797  10.253
44298SOL     OW34790   1.938  13.164   1.537
44298SOL    HW134791   1.864  13.120   1.496
44298SOL    HW234792   1.912  13.256   1.543
44299SOL     OW34793  11.347  14.640   1.516
44299SOL    HW134794  11.367  14.725   1.556
44299SOL    HW234795  11.290  14.597   1.580
44300SOL     OW34796  11.684  14.711  13.927
44300SOL    HW134797  11.705  14.689  13.837
44300SOL    HW234798  11.604  14.663  13.946
44301SOL     OW34799   5.112  10.489  10.656
44301SOL    HW134800   5.181  10.549  10.683
44301SOL    HW234801   5.047  10.493  10.727
44302SOL     OW34802   0.447   0.501  13.148
44302SOL    HW134803   0.511   0.568  13.170
44302SOL    HW234804   0.431   0.512  13.054
44303SOL     OW34805  12.566   9.461   6.485
44303SOL    HW134806  12.642   9.508   6.452
44303SOL    HW234807  12.516   9.438   6.407
44304SOL     OW34808   8.246   2.827  12.872
44304SOL    HW134809   8.337   2.856  12.874
44304SOL    HW234810   8.236   2.781  12.789
44305SOL     OW34811   4.099  14.494   2.072
44305SOL    HW134812   4.104  14.439   2.150
44305SOL    HW234813   4.189  14.497   2.040
44306SOL     OW34814  14.060  13.729   6.481
44306SOL    HW134815  14.132  13.777   6.439
44306SOL    HW234816  14.102  13.652   6.519
44307SOL     OW34817  11.589  10.823   4.930
44307SOL    HW134818  11.681  10.801   4.914
44307SOL    HW234819  11.590  10.885   5.002
44308SOL     OW34820   1.135   2.530   1.718
44308SOL    HW134821   1.193   2.606   1.707
44308SOL    HW234822   1.110   2.505   1.629
44309SOL     OW34823  11.814  10.665  13.796
44309SOL    HW134824  11.874  10.654  13.870
44309SOL    HW234825  11.753  10.733  13.825
44310SOL     OW34826   3.871   2.478   7.172
44310SOL    HW134827   3.876   2.570   7.146
44310SOL    HW234828   3.860   2.480   7.267
44311SOL     OW34829   4.420  13.220   5.842
44311SOL    HW134830   4.354  13.256   5.782
44311SOL    HW234831   4.503  13.239   5.798
44312SOL     OW34832   9.479   7.008   7.670
44312SOL    HW134833   9.510   6.990   7.581
44312SOL    HW234834   9.558   7.023   7.721
44313SOL     OW34835  11.269   8.418   8.303
44313SOL    HW134836  11.216   8.402   8.225
44313SOL    HW234837  11.223   8.373   8.374
44314SOL     OW34838  13.588  13.218   0.734
44314SOL    HW134839  13.676  13.243   0.761
44314SOL    HW234840  13.530  13.269   0.791
44315SOL     OW34841   4.376  11.469   5.517
44315SOL    HW134842   4.381  11.563   5.500
44315SOL    HW234843   4.462  11.435   5.491
44316SOL     OW34844  10.043   7.880   1.574
44316SOL    HW134845  10.069   7.798   1.533
44316SOL    HW234846  10.003   7.931   1.503
44317SOL     OW34847   3.703  14.012  11.673
44317SOL    HW134848   3.760  14.008  11.750
44317SOL    HW234849   3.697  13.921  11.643
44318SOL     OW34850   5.970   6.400  11.627
44318SOL    HW134851   6.020   6.480  11.640
44318SOL    HW234852   5.892   6.411  11.682
44319SOL     OW34853   1.192   8.352   6.641
44319SOL    HW134854   1.170   8.434   6.598
44319SOL    HW234855   1.280   8.332   6.611
44320SOL     OW34856   1.447   6.448   4.047
44320SOL    HW134857   1.519   6.509   4.055
44320SOL    HW234858   1.477   6.369   4.093
44321SOL     OW34859   9.303   7.890   0.043
44321SOL    HW134860   9.396   7.868   0.042
44321SOL    HW234861   9.300   7.984   0.024
44322SOL     OW34862   3.615   1.542   9.694
44322SOL    HW134863   3.696   1.531   9.645
44322SOL    HW234864   3.632   1.502   9.779
44323SOL     OW34865   3.901   7.424   4.068
44323SOL    HW134866   3.912   7.497   4.129
44323SOL    HW234867   3.837   7.367   4.111
44324SOL     OW34868   6.449  12.687  13.732
44324SOL    HW134869   6.381  12.723  13.674
44324SOL    HW234870   6.448  12.744  13.809
44325SOL     OW34871   5.852   5.385  12.391
44325SOL    HW134872   5.876   5.477  12.406
44325SOL    HW234873   5.892   5.338  12.464
44326SOL     OW34874   2.456   1.380  14.767
44326SOL    HW134875   2.517   1.452  14.750
44326SOL    HW234876   2.501   1.302  14.734
44327SOL     OW34877   0.523   3.666  13.714
44327SOL    HW134878   0.613   3.635  13.725
44327SOL    HW234879   0.531   3.749  13.668
44328SOL     OW34880   4.237  12.753  12.361
44328SOL    HW134881   4.186  12.674  12.342
44328SOL    HW234882   4.264  12.786  12.275
44329SOL     OW34883   0.116  11.064  14.824
44329SOL    HW134884   0.086  10.982  14.785
44329SOL    HW234885   0.148  11.039   0.031
44330SOL     OW34886   5.002   7.475   0.673
44330SOL    HW134887   5.002   7.564   0.638
44330SOL    HW234888   5.060   7.479   0.749
44331SOL     OW34889   0.820  10.917   8.666
44331SOL    HW134890   0.886  10.949   8.728
44331SOL    HW234891   0.737  10.935   8.709
44332SOL     OW34892  14.795   3.484   7.281
44332SOL    HW134893  14.874   3.454   7.236
44332SOL    HW234894  14.735   3.509   7.211
44333SOL     OW34895  12.265   6.224  11.048
44333SOL    HW134896  12.220   6.203  11.130
44333SOL    HW234897  12.336   6.282  11.074
44334SOL     OW34898   1.603   1.996   6.502
44334SOL    HW134899   1.587   2.081   6.460
44334SOL    HW234900   1.665   2.015   6.573
44335SOL     OW34901  13.365   3.093  13.419
44335SOL    HW134902  13.314   3.158  13.469
44335SOL    HW234903  13.393   3.140  13.340
44336SOL     OW34904   0.992  12.391   5.980
44336SOL    HW134905   1.014  12.321   5.918
44336SOL    HW234906   1.035  12.469   5.944
44337SOL     OW34907   1.609  11.866   8.824
44337SOL    HW134908   1.636  11.841   8.736
44337SOL    HW234909   1.648  11.800   8.881
44338SOL     OW34910  10.553   1.178   2.225
44338SOL    HW134911  10.552   1.269   2.196
44338SOL    HW234912  10.562   1.184   2.321
44339SOL     OW34913   9.882  10.509   9.519
44339SOL    HW134914   9.848  10.581   9.466
44339SOL    HW234915   9.866  10.431   9.467
44340SOL     OW34916   0.582   0.880   3.942
44340SOL    HW134917   0.637   0.872   4.020
44340SOL    HW234918   0.566   0.974   3.935
44341SOL     OW34919  14.082   2.242  12.346
44341SOL    HW134920  14.156   2.184  12.366
44341SOL    HW234921  14.112   2.294  12.271
44342SOL     OW34922   9.563   2.777   3.573
44342SOL    HW134923   9.540   2.687   3.595
44342SOL    HW234924   9.586   2.817   3.657
44343SOL     OW34925   5.158   2.213   8.019
44343SOL    HW134926   5.103   2.147   8.061
44343SOL    HW234927   5.138   2.294   8.066
44344SOL     OW34928   5.360   2.918  12.088
44344SOL    HW134929   5.362   2.942  11.996
44344SOL    HW234930   5.322   2.830  12.089
44345SOL     OW34931   5.324  12.361  14.686
44345SOL    HW134932   5.272  12.296  14.733
44345SOL    HW234933   5.400  12.313  14.653
44346SOL     OW34934  13.096   2.588   2.712
44346SOL    HW134935  13.010   2.608   2.676
44346SOL    HW234936  13.102   2.492   2.707
44347SOL     OW34937  11.651   8.851   6.629
44347SOL    HW134938  11.714   8.811   6.569
44347SOL    HW234939  11.631   8.936   6.590
44348SOL     OW34940  12.234   3.436   0.151
44348SOL    HW134941  12.205   3.355   0.192
44348SOL    HW234942  12.155   3.471   0.110
44349SOL     OW34943  13.967  12.972   7.026
44349SOL    HW134944  13.882  12.996   7.064
44349SOL    HW234945  13.954  12.984   6.931
44350SOL     OW34946  14.755   2.274   1.103
44350SOL    HW134947  14.849   2.289   1.114
44350SOL    HW234948  14.738   2.193   1.150
44351SOL     OW34949  13.696  13.951   4.923
44351SOL    HW134950  13.625  13.895   4.891
44351SOL    HW234951  13.678  14.037   4.886
44352SOL     OW34952   1.065   8.184   1.793
44352SOL    HW134953   1.127   8.130   1.744
44352SOL    HW234954   1.100   8.273   1.784
44353SOL     OW34955   2.905   6.932   9.889
44353SOL    HW134956   2.917   7.024   9.911
44353SOL    HW234957   2.812   6.924   9.866
44354SOL     OW34958  12.774  11.251   3.983
44354SOL    HW134959  12.747  11.342   3.994
44354SOL    HW234960  12.759  11.233   3.891
44355SOL     OW34961  12.188   6.403   1.500
44355SOL    HW134962  12.254   6.379   1.566
44355SOL    HW234963  12.151   6.320   1.472
44356SOL     OW34964   5.606   1.426  14.080
44356SOL    HW134965   5.514   1.447  14.091
44356SOL    HW234966   5.611   1.385  13.993
44357SOL     OW34967  12.626   0.037   9.061
44357SOL    HW134968  12.714   0.002   9.045
44357SOL    HW234969  12.572   0.001   8.991
44358SOL     OW34970   9.401  13.898   3.850
44358SOL    HW134971   9.348  13.932   3.778
44358SOL    HW234972   9.385  13.804   3.849
44359SOL     OW34973   6.878   5.381  10.005
44359SOL    HW134974   6.938   5.314   9.973
44359SOL    HW234975   6.792   5.340  10.001
44360SOL     OW34976   3.368   2.104  13.492
44360SOL    HW134977   3.390   2.012  13.510
44360SOL    HW234978   3.352   2.106  13.398
44361SOL     OW34979   1.064  13.714   4.024
44361SOL    HW134980   1.009  13.792   4.030
44361SOL    HW234981   1.022  13.650   4.081
44362SOL     OW34982   8.333   3.162  13.967
44362SOL    HW134983   8.355   3.101  14.038
44362SOL    HW234984   8.258   3.122  13.924
44363SOL     OW34985   3.033   4.407   8.053
44363SOL    HW134986   3.068   4.489   8.019
44363SOL    HW234987   2.944   4.403   8.016
44364SOL     OW34988   6.154   1.504   6.421
44364SOL    HW134989   6.162   1.547   6.506
44364SOL    HW234990   6.138   1.576   6.360
44365SOL     OW34991   5.772   1.823   3.623
44365SOL    HW134992   5.843   1.886   3.637
44365SOL    HW234993   5.702   1.875   3.585
44366SOL     OW34994   9.513  13.624  12.094
44366SOL    HW134995   9.589  13.572  12.067
44366SOL    HW234996   9.458  13.628  12.016
44367SOL     OW34997   1.948  13.230  11.492
44367SOL    HW134998   1.992  13.164  11.438
44367SOL    HW234999   2.016  13.263  11.551
44368SOL     OW35000   8.538  13.395  12.563
44368SOL    HW135001   8.463  13.374  12.618
44368SOL    HW235002   8.613  13.362  12.611
44369SOL     OW35003   9.755   7.038   4.296
44369SOL    HW135004   9.725   7.016   4.384
44369SOL    HW235005   9.780   6.954   4.258
44370SOL     OW35006  12.930   4.356  10.846
44370SOL    HW135007  12.968   4.361  10.934
44370SOL    HW235008  12.858   4.419  10.848
44371SOL     OW35009   8.439   4.027  12.572
44371SOL    HW135010   8.353   3.984  12.563
44371SOL    HW235011   8.474   4.028  12.483
44372SOL     OW35012   8.834  10.122  13.836
44372SOL    HW135013   8.780  10.086  13.767
44372SOL    HW235014   8.924  10.111  13.806
44373SOL     OW35015   6.535   2.521   7.298
44373SOL    HW135016   6.534   2.515   7.394
44373SOL    HW235017   6.618   2.481   7.272
44374SOL     OW35018   8.926   1.929   6.054
44374SOL    HW135019   8.968   1.849   6.087
44374SOL    HW235020   8.983   1.958   5.983
44375SOL     OW35021  13.188  10.182   0.860
44375SOL    HW135022  13.151  10.115   0.917
44375SOL    HW235023  13.267  10.142   0.825
44376SOL     OW35024   0.922   2.387   5.108
44376SOL    HW135025   1.015   2.369   5.099
44376SOL    HW235026   0.901   2.362   5.198
44377SOL     OW35027  13.956  11.597   1.701
44377SOL    HW135028  13.959  11.660   1.630
44377SOL    HW235029  13.915  11.644   1.774
44378SOL     OW35030   6.204  13.564  14.365
44378SOL    HW135031   6.187  13.480  14.409
44378SOL    HW235032   6.122  13.612  14.372
44379SOL     OW35033   8.398  11.364   7.795
44379SOL    HW135034   8.415  11.459   7.795
44379SOL    HW235035   8.315  11.355   7.841
44380SOL     OW35036   4.907   1.203   8.064
44380SOL    HW135037   4.944   1.287   8.092
44380SOL    HW235038   4.911   1.148   8.143
44381SOL     OW35039   0.574   1.412  10.338
44381SOL    HW135040   0.667   1.432  10.323
44381SOL    HW235041   0.575   1.351  10.411
44382SOL     OW35042   7.981   4.500   9.417
44382SOL    HW135043   7.994   4.449   9.337
44382SOL    HW235044   7.894   4.538   9.408
44383SOL     OW35045  13.744   7.501   7.362
44383SOL    HW135046  13.693   7.442   7.417
44383SOL    HW235047  13.833   7.495   7.396
44384SOL     OW35048   3.344   4.018  11.912
44384SOL    HW135049   3.423   3.970  11.886
44384SOL    HW235050   3.353   4.103  11.869
44385SOL     OW35051   0.734  14.131   8.275
44385SOL    HW135052   0.714  14.210   8.325
44385SOL    HW235053   0.751  14.162   8.186
44386SOL     OW35054   5.040   0.160   0.768
44386SOL    HW135055   4.999   0.117   0.692
44386SOL    HW235056   5.053   0.089   0.831
44387SOL     OW35057   5.584   3.334   7.830
44387SOL    HW135058   5.574   3.267   7.763
44387SOL    HW235059   5.572   3.417   7.783
44388SOL     OW35060   3.532  12.990  11.908
44388SOL    HW135061   3.453  13.027  11.867
44388SOL    HW235062   3.543  12.905  11.865
44389SOL     OW35063   7.510  10.523   4.943
44389SOL    HW135064   7.434  10.565   4.901
44389SOL    HW235065   7.496  10.537   5.036
44390SOL     OW35066  11.634   6.905   4.484
44390SOL    HW135067  11.605   6.837   4.423
44390SOL    HW235068  11.576   6.979   4.466
44391SOL     OW35069  11.567   0.445   6.871
44391SOL    HW135070  11.589   0.424   6.781
44391SOL    HW235071  11.596   0.535   6.883
44392SOL     OW35072  14.408   6.263  12.729
44392SOL    HW135073  14.393   6.350  12.766
44392SOL    HW235074  14.371   6.203  12.794
44393SOL     OW35075  13.509   2.491   9.811
44393SOL    HW135076  13.493   2.529   9.898
44393SOL    HW235077  13.440   2.528   9.756
44394SOL     OW35078   6.934   1.121   3.323
44394SOL    HW135079   7.023   1.145   3.349
44394SOL    HW235080   6.879   1.144   3.397
44395SOL     OW35081   1.373   1.563   0.375
44395SOL    HW135082   1.443   1.515   0.420
44395SOL    HW235083   1.295   1.549   0.429
44396SOL     OW35084   9.392  11.422   5.224
44396SOL    HW135085   9.305  11.457   5.241
44396SOL    HW235086   9.379  11.354   5.158
44397SOL     OW35087  14.229  13.155   6.749
44397SOL    HW135088  14.311  13.148   6.699
44397SOL    HW235089  14.243  13.230   6.807
44398SOL     OW35090   4.581   8.268   7.566
44398SOL    HW135091   4.575   8.178   7.600
44398SOL    HW235092   4.666   8.271   7.522
44399SOL     OW35093  11.403   4.059  14.372
44399SOL    HW135094  11.362   4.127  14.317
44399SOL    HW235095  11.431   4.105  14.450
44400SOL     OW35096  10.055   4.959   5.766
44400SOL    HW135097   9.975   4.912   5.739
44400SOL    HW235098  10.126   4.906   5.731
44401SOL     OW35099  10.129  12.458   6.417
44401SOL    HW135100  10.143  12.370   6.453
44401SOL    HW235101  10.200  12.510   6.455
44402SOL     OW35102   3.843   1.311   5.209
44402SOL    HW135103   3.747   1.308   5.217
44402SOL    HW235104   3.859   1.319   5.115
44403SOL     OW35105   1.474   0.204   2.078
44403SOL    HW135106   1.524   0.132   2.039
44403SOL    HW235107   1.434   0.248   2.004
44404SOL     OW35108   0.692   2.644   9.106
44404SOL    HW135109   0.760   2.611   9.165
44404SOL    HW235110   0.737   2.706   9.049
44405SOL     OW35111   0.707   6.389   8.592
44405SOL    HW135112   0.650   6.312   8.589
44405SOL    HW235113   0.795   6.353   8.605
44406SOL     OW35114  10.619   9.318   4.393
44406SOL    HW135115  10.664   9.238   4.367
44406SOL    HW235116  10.542   9.288   4.441
44407SOL     OW35117  10.270   3.108  11.408
44407SOL    HW135118  10.251   3.023  11.369
44407SOL    HW235119  10.217   3.110  11.488
44408SOL     OW35120   8.469  13.863  10.363
44408SOL    HW135121   8.513  13.894  10.284
44408SOL    HW235122   8.486  13.931  10.428
44409SOL     OW35123   3.747  11.477  10.356
44409SOL    HW135124   3.719  11.425  10.431
44409SOL    HW235125   3.701  11.561  10.366
44410SOL     OW35126  11.191   1.935   6.066
44410SOL    HW135127  11.164   2.011   6.117
44410SOL    HW235128  11.276   1.910   6.103
44411SOL     OW35129  10.870  13.922   5.738
44411SOL    HW135130  10.918  14.005   5.740
44411SOL    HW235131  10.906  13.872   5.811
44412SOL     OW35132  10.528   7.841   4.954
44412SOL    HW135133  10.523   7.753   4.917
44412SOL    HW235134  10.543   7.828   5.047
44413SOL     OW35135   4.700   6.285  14.016
44413SOL    HW135136   4.789   6.300  14.046
44413SOL    HW235137   4.655   6.246  14.091
44414SOL     OW35138  13.280  11.901   0.063
44414SOL    HW135139  13.349  11.854   0.109
44414SOL    HW235140  13.290  11.993   0.091
44415SOL     OW35141   5.568  13.577  10.104
44415SOL    HW135142   5.485  13.622  10.118
44415SOL    HW235143   5.582  13.583  10.009
44416SOL     OW35144   5.617  12.477   2.024
44416SOL    HW135145   5.546  12.537   2.006
44416SOL    HW235146   5.645  12.498   2.113
44417SOL     OW35147   4.006  12.678  14.207
44417SOL    HW135148   4.048  12.740  14.267
44417SOL    HW235149   4.064  12.602  14.208
44418SOL     OW35150   3.688   9.302   4.370
44418SOL    HW135151   3.671   9.383   4.322
44418SOL    HW235152   3.733   9.246   4.306
44419SOL     OW35153   6.907   6.293   8.589
44419SOL    HW135154   6.971   6.270   8.656
44419SOL    HW235155   6.941   6.372   8.548
44420SOL     OW35156   0.911   5.113   1.337
44420SOL    HW135157   0.906   5.110   1.242
44420SOL    HW235158   1.005   5.117   1.357
44421SOL     OW35159   6.647  14.808   3.881
44421SOL    HW135160   6.696  14.774   3.807
44421SOL    HW235161   6.573  14.855   3.842
44422SOL     OW35162  13.049   2.512   7.949
44422SOL    HW135163  13.039   2.584   8.012
44422SOL    HW235164  13.101   2.447   7.995
44423SOL     OW35165   2.385   5.058  11.243
44423SOL    HW135166   2.293   5.079  11.257
44423SOL    HW235167   2.428   5.143  11.236
44424SOL     OW35168   2.134   2.535   0.463
44424SOL    HW135169   2.043   2.566   0.464
44424SOL    HW235170   2.177   2.589   0.397
44425SOL     OW35171  13.879  10.174   1.456
44425SOL    HW135172  13.879  10.095   1.403
44425SOL    HW235173  13.965  10.214   1.441
44426SOL     OW35174  10.850   1.393   1.788
44426SOL    HW135175  10.860   1.330   1.859
44426SOL    HW235176  10.789   1.351   1.728
44427SOL     OW35177   6.402  10.494   6.065
44427SOL    HW135178   6.415  10.406   6.030
44427SOL    HW235179   6.313  10.518   6.037
44428SOL     OW35180   4.064   6.911   9.614
44428SOL    HW135181   4.002   6.852   9.657
44428SOL    HW235182   4.010   6.964   9.556
44429SOL     OW35183   9.049   3.988   4.695
44429SOL    HW135184   9.030   3.956   4.783
44429SOL    HW235185   9.002   3.927   4.637
44430SOL     OW35186   2.632   0.685   5.766
44430SOL    HW135187   2.672   0.612   5.718
44430SOL    HW235188   2.630   0.756   5.702
44431SOL     OW35189   8.379   7.072  10.493
44431SOL    HW135190   8.412   7.072  10.403
44431SOL    HW235191   8.351   6.982  10.508
44432SOL     OW35192   1.195  12.736   3.266
44432SOL    HW135193   1.121  12.747   3.326
44432SOL    HW235194   1.247  12.815   3.278
44433SOL     OW35195  13.693  11.912   5.874
44433SOL    HW135196  13.709  11.980   5.939
44433SOL    HW235197  13.675  11.960   5.793
44434SOL     OW35198   9.845   1.942   7.736
44434SOL    HW135199   9.928   1.972   7.698
44434SOL    HW235200   9.779   1.963   7.669
44435SOL     OW35201   2.643   5.903   9.125
44435SOL    HW135202   2.716   5.855   9.086
44435SOL    HW235203   2.591   5.835   9.168
44436SOL     OW35204   3.705   2.371   0.803
44436SOL    HW135205   3.610   2.366   0.802
44436SOL    HW235206   3.725   2.464   0.790
44437SOL     OW35207   2.130  11.670   6.467
44437SOL    HW135208   2.079  11.664   6.387
44437SOL    HW235209   2.201  11.732   6.446
44438SOL     OW35210  14.293   5.091   6.706
44438SOL    HW135211  14.261   5.172   6.745
44438SOL    HW235212  14.237   5.076   6.630
44439SOL     OW35213  13.606   1.806  11.682
44439SOL    HW135214  13.689   1.812  11.729
44439SOL    HW235215  13.539   1.818  11.749
44440SOL     OW35216   3.374   3.439   9.353
44440SOL    HW135217   3.407   3.517   9.309
44440SOL    HW235218   3.282   3.459   9.372
44441SOL     OW35219   5.850   7.825   0.470
44441SOL    HW135220   5.908   7.808   0.544
44441SOL    HW235221   5.885   7.904   0.430
44442SOL     OW35222   5.961  11.497  10.593
44442SOL    HW135223   5.967  11.402  10.581
44442SOL    HW235224   5.933  11.509  10.683
44443SOL     OW35225   0.306   1.860   8.062
44443SOL    HW135226   0.323   1.897   7.976
44443SOL    HW235227   0.385   1.808   8.081
44444SOL     OW35228   3.123  10.210   6.040
44444SOL    HW135229   3.094  10.225   5.950
44444SOL    HW235230   3.217  10.194   6.032
44445SOL     OW35231   1.654   6.027  12.682
44445SOL    HW135232   1.712   5.961  12.643
44445SOL    HW235233   1.576   5.977  12.708
44446SOL     OW35234   2.226   4.789  10.802
44446SOL    HW135235   2.170   4.721  10.763
44446SOL    HW235236   2.203   4.790  10.894
44447SOL     OW35237  11.224  12.742   7.466
44447SOL    HW135238  11.263  12.764   7.550
44447SOL    HW235239  11.238  12.648   7.456
44448SOL     OW35240  12.284   1.365   7.102
44448SOL    HW135241  12.226   1.357   7.178
44448SOL    HW235242  12.289   1.277   7.065
44449SOL     OW35243   5.372   2.214   1.978
44449SOL    HW135244   5.430   2.279   2.018
44449SOL    HW235245   5.425   2.135   1.973
44450SOL     OW35246  10.533   7.072   9.927
44450SOL    HW135247  10.526   7.003   9.862
44450SOL    HW235248  10.453   7.063   9.980
44451SOL     OW35249  11.534   5.359   8.428
44451SOL    HW135250  11.604   5.301   8.459
44451SOL    HW235251  11.469   5.301   8.389
44452SOL     OW35252   8.968  11.339   2.236
44452SOL    HW135253   9.050  11.360   2.192
44452SOL    HW235254   8.902  11.340   2.166
44453SOL     OW35255  11.905   8.946   1.074
44453SOL    HW135256  11.831   8.886   1.076
44453SOL    HW235257  11.950   8.924   0.992
44454SOL     OW35258   3.439  13.414   3.733
44454SOL    HW135259   3.362  13.394   3.786
44454SOL    HW235260   3.448  13.339   3.674
44455SOL     OW35261   7.263   0.543   5.575
44455SOL    HW135262   7.246   0.520   5.484
44455SOL    HW235263   7.341   0.493   5.599
44456SOL     OW35264   1.585  11.688   7.882
44456SOL    HW135265   1.610  11.596   7.868
44456SOL    HW235266   1.621  11.709   7.968
44457SOL     OW35267   9.283   1.677   5.043
44457SOL    HW135268   9.257   1.769   5.039
44457SOL    HW235269   9.294   1.651   4.951
44458SOL     OW35270   0.643  13.917   9.125
44458SOL    HW135271   0.598  13.993   9.088
44458SOL    HW235272   0.585  13.888   9.196
44459SOL     OW35273  14.098   8.061  12.104
44459SOL    HW135274  14.071   7.988  12.048
44459SOL    HW235275  14.188   8.040  12.129
44460SOL     OW35276   1.428  11.190   4.420
44460SOL    HW135277   1.349  11.244   4.428
44460SOL    HW235278   1.495  11.239   4.468
44461SOL     OW35279  13.367   5.765   5.676
44461SOL    HW135280  13.347   5.765   5.770
44461SOL    HW235281  13.427   5.691   5.665
44462SOL     OW35282   4.462  13.951   0.156
44462SOL    HW135283   4.448  14.042   0.180
44462SOL    HW235284   4.431  13.945   0.066
44463SOL     OW35285   9.586  14.208   7.550
44463SOL    HW135286   9.574  14.132   7.607
44463SOL    HW235287   9.656  14.259   7.591
44464SOL     OW35288   4.806   5.130   9.226
44464SOL    HW135289   4.728   5.147   9.174
44464SOL    HW235290   4.842   5.217   9.245
44465SOL     OW35291   6.730  13.889  11.341
44465SOL    HW135292   6.823  13.872  11.326
44465SOL    HW235293   6.712  13.847  11.426
44466SOL     OW35294   9.853  13.410   7.930
44466SOL    HW135295   9.853  13.321   7.896
44466SOL    HW235296   9.767  13.421   7.971
44467SOL     OW35297   1.369   6.680   6.426
44467SOL    HW135298   1.403   6.732   6.499
44467SOL    HW235299   1.416   6.596   6.432
44468SOL     OW35300   1.401  13.907  10.173
44468SOL    HW135301   1.322  13.854  10.172
44468SOL    HW235302   1.370  13.997  10.188
44469SOL     OW35303  13.346  12.081   8.405
44469SOL    HW135304  13.252  12.065   8.396
44469SOL    HW235305  13.358  12.172   8.379
44470SOL     OW35306   3.779  10.225   1.088
44470SOL    HW135307   3.704  10.180   1.127
44470SOL    HW235308   3.802  10.172   1.012
44471SOL     OW35309  14.825   1.808   0.458
44471SOL    HW135310  14.858   1.769   0.377
44471SOL    HW235311  14.782   1.736   0.504
44472SOL     OW35312  13.155   4.199   6.456
44472SOL    HW135313  13.239   4.153   6.467
44472SOL    HW235314  13.178   4.280   6.412
44473SOL     OW35315   2.054  11.369   9.609
44473SOL    HW135316   1.986  11.305   9.630
44473SOL    HW235317   2.007  11.440   9.565
44474SOL     OW35318   0.467   6.263   0.960
44474SOL    HW135319   0.507   6.177   0.947
44474SOL    HW235320   0.379   6.255   0.923
44475SOL     OW35321  14.793   3.910  10.125
44475SOL    HW135322  14.725   3.967  10.159
44475SOL    HW235323  14.874   3.959  10.136
44476SOL     OW35324  14.751  13.919  11.648
44476SOL    HW135325  14.840  13.922  11.683
44476SOL    HW235326  14.705  13.990  11.692
44477SOL     OW35327   3.198   1.203   4.487
44477SOL    HW135328   3.203   1.175   4.396
44477SOL    HW235329   3.201   1.122   4.538
44478SOL     OW35330   5.874  13.337   1.020
44478SOL    HW135331   5.894  13.300   0.934
44478SOL    HW235332   5.929  13.289   1.081
44479SOL     OW35333   8.846  11.797  11.634
44479SOL    HW135334   8.830  11.785  11.540
44479SOL    HW235335   8.850  11.891  11.646
44480SOL     OW35336   5.166   1.481  12.488
44480SOL    HW135337   5.159   1.557  12.546
44480SOL    HW235338   5.256   1.483  12.456
44481SOL     OW35339  11.381   7.656   0.052
44481SOL    HW135340  11.393   7.695   0.138
44481SOL    HW235341  11.467   7.661   0.011
44482SOL     OW35342   7.565  14.409   3.505
44482SOL    HW135343   7.603  14.493   3.531
44482SOL    HW235344   7.471  14.427   3.495
44483SOL     OW35345  10.694  14.371   7.438
44483SOL    HW135346  10.613  14.333   7.473
44483SOL    HW235347  10.728  14.424   7.510
44484SOL     OW35348   6.983   3.671  14.210
44484SOL    HW135349   7.018   3.582  14.220
44484SOL    HW235350   7.058   3.728  14.227
44485SOL     OW35351   7.993  11.375   8.230
44485SOL    HW135352   7.904  11.373   8.195
44485SOL    HW235353   8.001  11.462   8.270
44486SOL     OW35354  10.563   1.319  14.042
44486SOL    HW135355  10.534   1.228  14.035
44486SOL    HW235356  10.483   1.370  14.035
44487SOL     OW35357   0.774   7.777   8.130
44487SOL    HW135358   0.691   7.732   8.112
44487SOL    HW235359   0.781   7.777   8.225
44488SOL     OW35360   5.137   6.228   1.438
44488SOL    HW135361   5.151   6.135   1.452
44488SOL    HW235362   5.203   6.253   1.373
44489SOL     OW35363   1.846   7.906   1.502
44489SOL    HW135364   1.759   7.919   1.464
44489SOL    HW235365   1.850   7.967   1.576
44490SOL     OW35366   1.384   2.229  10.136
44490SOL    HW135367   1.395   2.257  10.227
44490SOL    HW235368   1.410   2.305  10.084
44491SOL     OW35369   5.679  12.823   3.583
44491SOL    HW135370   5.623  12.831   3.660
44491SOL    HW235371   5.628  12.772   3.520
44492SOL     OW35372  12.739  12.849   8.564
44492SOL    HW135373  12.783  12.766   8.548
44492SOL    HW235374  12.739  12.894   8.480
44493SOL     OW35375   2.034   3.088   2.775
44493SOL    HW135376   2.044   3.001   2.735
44493SOL    HW235377   2.122   3.125   2.774
44494SOL     OW35378   1.211  13.873   4.850
44494SOL    HW135379   1.260  13.879   4.768
44494SOL    HW235380   1.256  13.806   4.901
44495SOL     OW35381   2.134   8.754   9.799
44495SOL    HW135382   2.129   8.839   9.755
44495SOL    HW235383   2.209   8.711   9.760
44496SOL     OW35384   6.418  14.789  14.697
44496SOL    HW135385   6.451  14.741  14.621
44496SOL    HW235386   6.483  14.773  14.766
44497SOL     OW35387   4.383   5.652   6.610
44497SOL    HW135388   4.419   5.617   6.691
44497SOL    HW235389   4.340   5.734   6.636
44498SOL     OW35390  12.507   0.083   7.268
44498SOL    HW135391  12.440   0.113   7.330
44498SOL    HW235392  12.502   0.145   7.195
44499SOL     OW35393   1.814   7.387   2.637
44499SOL    HW135394   1.750   7.431   2.693
44499SOL    HW235395   1.883   7.453   2.623
44500SOL     OW35396   2.534   3.371  12.756
44500SOL    HW135397   2.449   3.346  12.722
44500SOL    HW235398   2.519   3.391  12.849
44501SOL     OW35399  13.100   7.211   2.838
44501SOL    HW135400  13.040   7.210   2.913
44501SOL    HW235401  13.180   7.249   2.873
44502SOL     OW35402  13.076   8.374   2.020
44502SOL    HW135403  13.150   8.325   2.056
44502SOL    HW235404  13.073   8.349   1.928
44503SOL     OW35405  14.364   1.059   3.467
44503SOL    HW135406  14.397   1.111   3.395
44503SOL    HW235407  14.280   1.099   3.490
44504SOL     OW35408   0.720   1.291   6.962
44504SOL    HW135409   0.665   1.213   6.954
44504SOL    HW235410   0.775   1.291   6.884
44505SOL     OW35411  13.006   0.594  11.998
44505SOL    HW135412  13.026   0.557  11.912
44505SOL    HW235413  13.079   0.653  12.017
44506SOL     OW35414  11.931  12.619  11.560
44506SOL    HW135415  11.856  12.562  11.542
44506SOL    HW235416  11.991  12.564  11.612
44507SOL     OW35417  14.324  12.311  12.112
44507SOL    HW135418  14.365  12.368  12.177
44507SOL    HW235419  14.231  12.333  12.117
44508SOL     OW35420   5.732  13.155  11.521
44508SOL    HW135421   5.663  13.093  11.543
44508SOL    HW235422   5.699  13.202  11.444
44509SOL     OW35423   5.199   5.936  10.757
44509SOL    HW135424   5.127   5.940  10.693
44509SOL    HW235425   5.173   5.996  10.827
44510SOL     OW35426  12.618   1.200   2.607
44510SOL    HW135427  12.642   1.277   2.659
44510SOL    HW235428  12.654   1.218   2.520
44511SOL     OW35429  13.444   5.318   6.304
44511SOL    HW135430  13.499   5.251   6.264
44511SOL    HW235431  13.361   5.274   6.322
44512SOL     OW35432   2.757   0.958   4.345
44512SOL    HW135433   2.777   0.904   4.269
44512SOL    HW235434   2.826   0.938   4.408
44513SOL     OW35435   5.173   3.336   2.788
44513SOL    HW135436   5.097   3.299   2.833
44513SOL    HW235437   5.155   3.430   2.782
44514SOL     OW35438  10.988   9.377  12.746
44514SOL    HW135439  11.065   9.321  12.758
44514SOL    HW235440  10.987   9.433  12.823
44515SOL     OW35441   1.181   1.487   0.576
44515SOL    HW135442   1.183   1.438   0.658
44515SOL    HW235443   1.096   1.467   0.538
44516SOL     OW35444  12.524   8.947  14.532
44516SOL    HW135445  12.478   8.885  14.588
44516SOL    HW235446  12.608   8.905  14.513
44517SOL     OW35447   2.839   2.708   1.971
44517SOL    HW135448   2.909   2.645   1.955
44517SOL    HW235449   2.794   2.675   2.049
44518SOL     OW35450   3.515   4.281   2.724
44518SOL    HW135451   3.535   4.318   2.638
44518SOL    HW235452   3.502   4.187   2.707
44519SOL     OW35453  10.684  12.546  11.199
44519SOL    HW135454  10.721  12.618  11.250
44519SOL    HW235455  10.593  12.541  11.229
44520SOL     OW35456  13.051   8.052   6.525
44520SOL    HW135457  12.995   8.079   6.452
44520SOL    HW235458  13.013   8.095   6.601
44521SOL     OW35459   5.350   4.675   6.613
44521SOL    HW135460   5.377   4.608   6.551
44521SOL    HW235461   5.391   4.755   6.582
44522SOL     OW35462  10.115  11.425   7.863
44522SOL    HW135463  10.071  11.414   7.779
44522SOL    HW235464  10.143  11.517   7.863
44523SOL     OW35465   3.975   8.199  12.698
44523SOL    HW135466   3.914   8.238  12.761
44523SOL    HW235467   4.060   8.204  12.742
44524SOL     OW35468   0.861  14.632   2.196
44524SOL    HW135469   0.917  14.604   2.268
44524SOL    HW235470   0.780  14.659   2.238
44525SOL     OW35471  13.320   3.935   8.146
44525SOL    HW135472  13.362   3.851   8.128
44525SOL    HW235473  13.390   3.989   8.184
44526SOL     OW35474  13.643   3.665   1.560
44526SOL    HW135475  13.658   3.728   1.631
44526SOL    HW235476  13.599   3.716   1.492
44527SOL     OW35477   4.177   1.794  11.105
44527SOL    HW135478   4.190   1.881  11.144
44527SOL    HW235479   4.265   1.760  11.092
44528SOL     OW35480  13.091   9.239   4.788
44528SOL    HW135481  13.003   9.202   4.794
44528SOL    HW235482  13.148   9.172   4.827
44529SOL     OW35483   9.966   0.097   4.436
44529SOL    HW135484  10.003   0.182   4.413
44529SOL    HW235485   9.911   0.115   4.513
44530SOL     OW35486   6.310   2.820   7.815
44530SOL    HW135487   6.395   2.806   7.772
44530SOL    HW235488   6.325   2.896   7.871
44531SOL     OW35489  13.912   4.235   5.682
44531SOL    HW135490  13.906   4.312   5.625
44531SOL    HW235491  13.882   4.162   5.627
44532SOL     OW35492   6.181   2.542   9.312
44532SOL    HW135493   6.251   2.485   9.278
44532SOL    HW235494   6.196   2.626   9.269
44533SOL     OW35495  13.439  14.116   8.674
44533SOL    HW135496  13.499  14.127   8.747
44533SOL    HW235497  13.353  14.141   8.710
44534SOL     OW35498  10.736   2.537   1.774
44534SOL    HW135499  10.646   2.546   1.806
44534SOL    HW235500  10.783   2.494   1.845
44535SOL     OW35501  10.457  12.911  14.467
44535SOL    HW135502  10.542  12.919  14.424
44535SOL    HW235503  10.461  12.973  14.539
44536SOL     OW35504   0.528   6.994  10.613
44536SOL    HW135505   0.548   7.079  10.653
44536SOL    HW235506   0.592   6.934  10.651
44537SOL     OW35507  13.706   4.378  14.639
44537SOL    HW135508  13.639   4.357  14.574
44537SOL    HW235509  13.662   4.368  14.724
44538SOL     OW35510   6.517   0.376   3.804
44538SOL    HW135511   6.542   0.448   3.861
44538SOL    HW235512   6.517   0.299   3.861
44539SOL     OW35513   5.409  10.945   7.113
44539SOL    HW135514   5.372  10.922   7.199
44539SOL    HW235515   5.502  10.924   7.120
44540SOL     OW35516  11.710  13.501  12.831
44540SOL    HW135517  11.644  13.468  12.770
44540SOL    HW235518  11.793  13.468  12.797
44541SOL     OW35519   9.396   7.040  12.593
44541SOL    HW135520   9.314   7.086  12.613
44541SOL    HW235521   9.449   7.106  12.549
44542SOL     OW35522   1.037   7.597   4.715
44542SOL    HW135523   1.062   7.556   4.633
44542SOL    HW235524   1.014   7.524   4.773
44543SOL     OW35525   8.171   2.077   1.312
44543SOL    HW135526   8.199   2.134   1.383
44543SOL    HW235527   8.183   1.988   1.346
44544SOL     OW35528  11.980   3.036   0.787
44544SOL    HW135529  11.927   3.082   0.852
44544SOL    HW235530  11.932   2.956   0.768
44545SOL     OW35531   7.571  12.288   7.595
44545SOL    HW135532   7.590  12.206   7.641
44545SOL    HW235533   7.644  12.345   7.615
44546SOL     OW35534  11.853   4.405   8.430
44546SOL    HW135535  11.940   4.432   8.461
44546SOL    HW235536  11.857   4.417   8.335
44547SOL     OW35537  12.207  13.280   8.826
44547SOL    HW135538  12.292  13.247   8.798
44547SOL    HW235539  12.184  13.346   8.761
44548SOL     OW35540   0.476   6.752   3.786
44548SOL    HW135541   0.506   6.715   3.703
44548SOL    HW235542   0.403   6.808   3.761
44549SOL     OW35543   6.352  12.094   4.251
44549SOL    HW135544   6.424  12.155   4.268
44549SOL    HW235545   6.349  12.085   4.156
44550SOL     OW35546  14.351   3.374   9.194
44550SOL    HW135547  14.422   3.348   9.135
44550SOL    HW235548  14.321   3.293   9.234
44551SOL     OW35549  12.830   0.080   3.405
44551SOL    HW135550  12.781   0.093   3.486
44551SOL    HW235551  12.844   0.168   3.371
44552SOL     OW35552  14.207   6.536  11.038
44552SOL    HW135553  14.291   6.510  11.076
44552SOL    HW235554  14.229   6.610  10.981
44553SOL     OW35555  10.658   3.026   5.181
44553SOL    HW135556  10.667   3.094   5.247
44553SOL    HW235557  10.573   3.042   5.141
44554SOL     OW35558   6.888   3.322   8.122
44554SOL    HW135559   6.893   3.338   8.027
44554SOL    HW235560   6.849   3.402   8.157
44555SOL     OW35561   8.654   1.621   4.441
44555SOL    HW135562   8.565   1.614   4.475
44555SOL    HW235563   8.666   1.714   4.423
44556SOL     OW35564  13.968   8.452   4.031
44556SOL    HW135565  13.935   8.364   4.048
44556SOL    HW235566  13.905   8.489   3.968
44557SOL     OW35567  12.043  12.226   0.423
44557SOL    HW135568  12.124  12.180   0.444
44557SOL    HW235569  12.022  12.199   0.334
44558SOL     OW35570   0.483   3.558   7.218
44558SOL    HW135571   0.534   3.486   7.256
44558SOL    HW235572   0.393   3.540   7.243
44559SOL     OW35573   1.468  12.152   1.321
44559SOL    HW135574   1.421  12.071   1.300
44559SOL    HW235575   1.473  12.152   1.416
44560SOL     OW35576  13.168   8.401  13.085
44560SOL    HW135577  13.200   8.331  13.028
44560SOL    HW235578  13.074   8.406  13.066
44561SOL     OW35579  13.173  10.166   0.025
44561SOL    HW135580  13.101  10.175   0.088
44561SOL    HW235581  13.175  10.073   0.004
44562SOL     OW35582   9.180   0.339   1.054
44562SOL    HW135583   9.136   0.415   1.093
44562SOL    HW235584   9.261   0.373   1.017
44563SOL     OW35585   2.804   5.497  14.186
44563SOL    HW135586   2.785   5.509  14.278
44563SOL    HW235587   2.728   5.451  14.150
44564SOL     OW35588  12.064   8.517  14.215
44564SOL    HW135589  12.135   8.581  14.213
44564SOL    HW235590  12.081   8.460  14.140
44565SOL     OW35591  12.044   6.876   0.146
44565SOL    HW135592  11.993   6.814   0.093
44565SOL    HW235593  12.062   6.829   0.227
44566SOL     OW35594   3.083  10.917   3.011
44566SOL    HW135595   3.097  10.990   2.950
44566SOL    HW235596   3.169  10.875   3.017
44567SOL     OW35597   5.374   0.619   2.565
44567SOL    HW135598   5.347   0.642   2.476
44567SOL    HW235599   5.369   0.701   2.613
44568SOL     OW35600  11.588   8.233   1.290
44568SOL    HW135601  11.546   8.147   1.290
44568SOL    HW235602  11.525   8.290   1.334
44569SOL     OW35603  10.683  12.325  13.451
44569SOL    HW135604  10.755  12.334  13.389
44569SOL    HW235605  10.714  12.260  13.515
44570SOL     OW35606   9.823   6.522   4.121
44570SOL    HW135607   9.918   6.518   4.121
44570SOL    HW235608   9.795   6.437   4.153
44571SOL     OW35609  12.925   9.658   5.256
44571SOL    HW135610  12.894   9.705   5.334
44571SOL    HW235611  12.894   9.569   5.268
44572SOL     OW35612  14.412   9.584   6.709
44572SOL    HW135613  14.460   9.665   6.697
44572SOL    HW235614  14.428   9.559   6.800
44573SOL     OW35615  13.484   9.784   8.711
44573SOL    HW135616  13.531   9.819   8.787
44573SOL    HW235617  13.460   9.861   8.660
44574SOL     OW35618   8.728   0.421  14.152
44574SOL    HW135619   8.758   0.332  14.133
44574SOL    HW235620   8.796   0.458  14.208
44575SOL     OW35621  14.801   2.429  13.997
44575SOL    HW135622   0.014   2.449  14.009
44575SOL    HW235623  14.769   2.497  13.938
44576SOL     OW35624   3.550  10.458   5.577
44576SOL    HW135625   3.498  10.498   5.508
44576SOL    HW235626   3.574  10.530   5.635
44577SOL     OW35627   0.098   8.646  12.119
44577SOL    HW135628   0.136   8.720  12.167
44577SOL    HW235629   0.107   8.671  12.027
44578SOL     OW35630   2.239  12.105   5.861
44578SOL    HW135631   2.268  12.085   5.772
44578SOL    HW235632   2.318  12.098   5.914
44579SOL     OW35633  11.517  10.704  12.931
44579SOL    HW135634  11.598  10.752  12.912
44579SOL    HW235635  11.484  10.677  12.845
44580SOL     OW35636  10.370   6.081   0.468
44580SOL    HW135637  10.406   6.014   0.527
44580SOL    HW235638  10.332   6.031   0.396
44581SOL     OW35639   1.572  12.780  14.357
44581SOL    HW135640   1.657  12.806  14.394
44581SOL    HW235641   1.528  12.863  14.338
44582SOL     OW35642  14.758  11.597  13.531
44582SOL    HW135643  14.841  11.637  13.557
44582SOL    HW235644  14.762  11.593  13.436
44583SOL     OW35645  13.993   0.834   8.559
44583SOL    HW135646  14.033   0.903   8.612
44583SOL    HW235647  14.016   0.753   8.605
44584SOL     OW35648  14.686   1.111   0.044
44584SOL    HW135649  14.630   1.136  14.851
44584SOL    HW235650  14.764   1.167   0.035
44585SOL     OW35651   8.114   2.288  11.294
44585SOL    HW135652   8.132   2.194  11.286
44585SOL    HW235653   8.079   2.313  11.208
44586SOL     OW35654  10.483   3.485  11.370
44586SOL    HW135655  10.506   3.576  11.349
44586SOL    HW235656  10.523   3.471  11.456
44587SOL     OW35657   0.640   3.202   7.970
44587SOL    HW135658   0.720   3.180   7.922
44587SOL    HW235659   0.576   3.135   7.943
44588SOL     OW35660   0.148  10.125   9.475
44588SOL    HW135661   0.075  10.101   9.419
44588SOL    HW235662   0.136  10.072   9.554
44589SOL     OW35663  10.163   6.859   4.740
44589SOL    HW135664  10.108   6.912   4.798
44589SOL    HW235665  10.102   6.826   4.674
44590SOL     OW35666  10.669   1.991  13.486
44590SOL    HW135667  10.591   2.004  13.540
44590SOL    HW235668  10.741   2.020  13.542
44591SOL     OW35669   3.782   2.480   3.223
44591SOL    HW135670   3.838   2.443   3.154
44591SOL    HW235671   3.841   2.489   3.298
44592SOL     OW35672   6.591  10.726  14.873
44592SOL    HW135673   6.549  10.777  14.804
44592SOL    HW235674   6.599  10.788   0.067
44593SOL     OW35675  12.525   4.437   6.917
44593SOL    HW135676  12.440   4.424   6.876
44593SOL    HW235677  12.584   4.379   6.868
44594SOL     OW35678   5.799   3.458  13.489
44594SOL    HW135679   5.768   3.509  13.564
44594SOL    HW235680   5.744   3.488  13.416
44595SOL     OW35681   5.047   8.601   0.641
44595SOL    HW135682   5.069   8.692   0.662
44595SOL    HW235683   4.996   8.607   0.560
44596SOL     OW35684  12.291   6.869  12.930
44596SOL    HW135685  12.307   6.778  12.953
44596SOL    HW235686  12.261   6.867  12.839
44597SOL     OW35687  12.117   7.563   6.832
44597SOL    HW135688  12.061   7.620   6.779
44597SOL    HW235689  12.200   7.610   6.838
44598SOL     OW35690  14.417   0.442  11.576
44598SOL    HW135691  14.413   0.510  11.643
44598SOL    HW235692  14.445   0.363  11.622
44599SOL     OW35693  10.263   4.193  12.250
44599SOL    HW135694  10.294   4.103  12.236
44599SOL    HW235695  10.175   4.194  12.213
44600SOL     OW35696  12.539   8.378  11.368
44600SOL    HW135697  12.514   8.426  11.448
44600SOL    HW235698  12.460   8.331  11.342
44601SOL     OW35699   9.577   9.688   0.663
44601SOL    HW135700   9.511   9.626   0.633
44601SOL    HW235701   9.533   9.740   0.730
44602SOL     OW35702  10.844  14.785   9.694
44602SOL    HW135703  10.930  14.800   9.734
44602SOL    HW235704  10.805  14.715   9.746
44603SOL     OW35705  10.139   0.362  14.171
44603SOL    HW135706  10.206   0.322  14.116
44603SOL    HW235707  10.186   0.426  14.224
44604SOL     OW35708   1.281   9.994   5.682
44604SOL    HW135709   1.209   9.944   5.643
44604SOL    HW235710   1.244  10.026   5.765
44605SOL     OW35711  14.587   3.497   6.456
44605SOL    HW135712  14.635   3.442   6.393
44605SOL    HW235713  14.576   3.441   6.533
44606SOL     OW35714   3.618   9.355  11.518
44606SOL    HW135715   3.630   9.272  11.565
44606SOL    HW235716   3.567   9.331  11.441
44607SOL     OW35717   0.717  14.038   4.235
44607SOL    HW135718   0.810  14.031   4.213
44607SOL    HW235719   0.694  13.953   4.273
44608SOL     OW35720  13.700   2.954   4.357
44608SOL    HW135721  13.754   2.909   4.422
44608SOL    HW235722  13.666   3.031   4.403
44609SOL     OW35723  10.906   6.505   8.323
44609SOL    HW135724  10.863   6.574   8.273
44609SOL    HW235725  10.959   6.458   8.258
44610SOL     OW35726   6.391   2.511   5.658
44610SOL    HW135727   6.366   2.452   5.587
44610SOL    HW235728   6.315   2.568   5.671
44611SOL     OW35729  13.111   7.450   6.911
44611SOL    HW135730  13.045   7.402   6.961
44611SOL    HW235731  13.185   7.459   6.972
44612SOL     OW35732  14.120   0.485   3.223
44612SOL    HW135733  14.088   0.398   3.247
44612SOL    HW235734  14.189   0.504   3.286
44613SOL     OW35735  11.466  14.042  13.050
44613SOL    HW135736  11.468  13.971  13.115
44613SOL    HW235737  11.433  14.118  13.099
44614SOL     OW35738   7.973  14.088  14.707
44614SOL    HW135739   7.959  14.111  14.615
44614SOL    HW235740   7.887  14.099  14.747
44615SOL     OW35741   3.116   1.295  11.159
44615SOL    HW135742   3.025   1.321  11.147
44615SOL    HW235743   3.156   1.304  11.073
44616SOL     OW35744  14.203  10.257   2.765
44616SOL    HW135745  14.134  10.198   2.735
44616SOL    HW235746  14.190  10.263   2.860
44617SOL     OW35747   6.909  10.091   6.982
44617SOL    HW135748   6.966  10.146   6.928
44617SOL    HW235749   6.962  10.070   7.059
44618SOL     OW35750   9.163  12.207   1.408
44618SOL    HW135751   9.172  12.300   1.384
44618SOL    HW235752   9.135  12.208   1.500
44619SOL     OW35753   9.168   5.395  11.082
44619SOL    HW135754   9.215   5.441  11.151
44619SOL    HW235755   9.193   5.441  11.002
44620SOL     OW35756   4.141  14.728  14.359
44620SOL    HW135757   4.159  14.637  14.336
44620SOL    HW235758   4.154  14.776  14.277
44621SOL     OW35759  13.412   0.318  11.140
44621SOL    HW135760  13.361   0.238  11.151
44621SOL    HW235761  13.503   0.288  11.136
44622SOL     OW35762   7.311   2.240   5.357
44622SOL    HW135763   7.345   2.278   5.275
44622SOL    HW235764   7.388   2.198   5.397
44623SOL     OW35765   5.170   9.782   7.708
44623SOL    HW135766   5.205   9.785   7.620
44623SOL    HW235767   5.091   9.836   7.704
44624SOL     OW35768   9.219   4.478   7.473
44624SOL    HW135769   9.308   4.464   7.442
44624SOL    HW235770   9.164   4.431   7.411
44625SOL     OW35771   0.135   4.590   7.159
44625SOL    HW135772   0.126   4.523   7.092
44625SOL    HW235773   0.140   4.672   7.110
44626SOL     OW35774   4.690   8.639   0.580
44626SOL    HW135775   4.707   8.545   0.572
44626SOL    HW235776   4.692   8.672   0.490
44627SOL     OW35777   7.685  13.378   6.653
44627SOL    HW135778   7.622  13.328   6.705
44627SOL    HW235779   7.631  13.439   6.603
44628SOL     OW35780   9.022  12.002   6.889
44628SOL    HW135781   8.992  11.958   6.810
44628SOL    HW235782   9.114  12.024   6.872
44629SOL     OW35783   9.070   7.071  10.889
44629SOL    HW135784   9.042   7.163  10.895
44629SOL    HW235785   9.153   7.068  10.937
44630SOL     OW35786   7.360  13.289   0.634
44630SOL    HW135787   7.355  13.372   0.682
44630SOL    HW235788   7.283  13.290   0.577
44631SOL     OW35789   9.388   2.248  10.454
44631SOL    HW135790   9.391   2.205  10.539
44631SOL    HW235791   9.478   2.273  10.436
44632SOL     OW35792  13.977  14.031   0.503
44632SOL    HW135793  13.893  14.016   0.460
44632SOL    HW235794  13.986  13.959   0.565
44633SOL     OW35795   5.101  13.285   8.094
44633SOL    HW135796   5.072  13.306   8.183
44633SOL    HW235797   5.024  13.300   8.040
44634SOL     OW35798  14.654  13.369  11.752
44634SOL    HW135799  14.652  13.325  11.837
44634SOL    HW235800  14.703  13.450  11.768
44635SOL     OW35801   1.000   9.626  11.137
44635SOL    HW135802   0.962   9.660  11.056
44635SOL    HW235803   0.979   9.692  11.203
44636SOL     OW35804   5.868   3.457   3.389
44636SOL    HW135805   5.800   3.525   3.387
44636SOL    HW235806   5.826   3.383   3.433
44637SOL     OW35807   2.588   0.099   6.257
44637SOL    HW135808   2.566   0.087   6.165
44637SOL    HW235809   2.633   0.184   6.260
44638SOL     OW35810   4.643   8.367  10.341
44638SOL    HW135811   4.547   8.370  10.346
44638SOL    HW235812   4.663   8.274  10.328
44639SOL     OW35813   7.744   6.039   6.182
44639SOL    HW135814   7.786   6.125   6.184
44639SOL    HW235815   7.800   5.984   6.237
44640SOL     OW35816  13.677   8.419   0.253
44640SOL    HW135817  13.642   8.454   0.171
44640SOL    HW235818  13.767   8.450   0.256
44641SOL     OW35819  12.952   8.975   9.702
44641SOL    HW135820  12.907   8.926   9.771
44641SOL    HW235821  12.905   9.058   9.698
44642SOL     OW35822  10.772   5.150  12.679
44642SOL    HW135823  10.863   5.177  12.662
44642SOL    HW235824  10.767   5.061  12.646
44643SOL     OW35825   9.205   4.832   5.037
44643SOL    HW135826   9.217   4.889   5.113
44643SOL    HW235827   9.130   4.778   5.059
44644SOL     OW35828   8.342  13.230  12.274
44644SOL    HW135829   8.344  13.135  12.271
44644SOL    HW235830   8.256  13.251  12.312
44645SOL     OW35831  11.944  11.043   8.462
44645SOL    HW135832  11.872  10.997   8.504
44645SOL    HW235833  11.998  10.973   8.424
44646SOL     OW35834   0.163   3.310   4.175
44646SOL    HW135835   0.234   3.246   4.165
44646SOL    HW235836   0.204   3.383   4.220
44647SOL     OW35837   4.196   2.033   1.495
44647SOL    HW135838   4.121   2.004   1.547
44647SOL    HW235839   4.254   1.956   1.492
44648SOL     OW35840   6.684   7.198  10.366
44648SOL    HW135841   6.718   7.128  10.421
44648SOL    HW235842   6.699   7.167  10.276
44649SOL     OW35843   9.192   9.547  13.984
44649SOL    HW135844   9.207   9.476  14.046
44649SOL    HW235845   9.211   9.627  14.034
44650SOL     OW35846   6.268  11.461   2.533
44650SOL    HW135847   6.291  11.527   2.598
44650SOL    HW235848   6.351  11.419   2.510
44651SOL     OW35849   9.497   8.574   7.027
44651SOL    HW135850   9.564   8.579   6.959
44651SOL    HW235851   9.451   8.658   7.022
44652SOL     OW35852   4.519   0.452   9.319
44652SOL    HW135853   4.518   0.543   9.288
44652SOL    HW235854   4.427   0.428   9.327
44653SOL     OW35855   3.494  11.992  13.821
44653SOL    HW135856   3.486  12.087  13.813
44653SOL    HW235857   3.579  11.979  13.862
44654SOL     OW35858   5.118   8.364   0.115
44654SOL    HW135859   5.128   8.313   0.196
44654SOL    HW235860   5.024   8.376   0.106
44655SOL     OW35861   9.143  13.053   3.672
44655SOL    HW135862   9.146  13.085   3.763
44655SOL    HW235863   9.053  13.071   3.644
44656SOL     OW35864  13.255  11.020  12.499
44656SOL    HW135865  13.205  11.101  12.490
44656SOL    HW235866  13.250  10.998  12.592
44657SOL     OW35867  11.683   6.253   0.083
44657SOL    HW135868  11.738   6.256   0.161
44657SOL    HW235869  11.745   6.258   0.010
44658SOL     OW35870   0.155   7.835   0.472
44658SOL    HW135871   0.210   7.782   0.530
44658SOL    HW235872   0.210   7.849   0.394
44659SOL     OW35873   6.448   2.933   6.725
44659SOL    HW135874   6.421   3.007   6.779
44659SOL    HW235875   6.389   2.936   6.650
44660SOL     OW35876  10.398   9.441   5.445
44660SOL    HW135877  10.397   9.414   5.353
44660SOL    HW235878  10.488   9.467   5.463
44661SOL     OW35879   3.636   6.188   0.784
44661SOL    HW135880   3.584   6.234   0.717
44661SOL    HW235881   3.580   6.189   0.862
44662SOL     OW35882   6.751  10.035  11.688
44662SOL    HW135883   6.658  10.043  11.666
44662SOL    HW235884   6.788   9.982  11.617
44663SOL     OW35885   6.596   7.765   8.994
44663SOL    HW135886   6.638   7.792   9.076
44663SOL    HW235887   6.580   7.847   8.947
44664SOL     OW35888  12.652  11.055  10.147
44664SOL    HW135889  12.687  10.996  10.080
44664SOL    HW235890  12.558  11.034  10.151
44665SOL     OW35891  11.627   9.413   6.942
44665SOL    HW135892  11.654   9.325   6.970
44665SOL    HW235893  11.639   9.467   7.021
44666SOL     OW35894   4.053   5.544   5.911
44666SOL    HW135895   4.094   5.487   5.846
44666SOL    HW235896   4.099   5.523   5.992
44667SOL     OW35897  13.273   3.103   1.171
44667SOL    HW135898  13.187   3.062   1.163
44667SOL    HW235899  13.266   3.160   1.247
44668SOL     OW35900   3.793   4.585   8.459
44668SOL    HW135901   3.797   4.497   8.421
44668SOL    HW235902   3.819   4.643   8.387
44669SOL     OW35903   2.568   7.414   8.229
44669SOL    HW135904   2.620   7.406   8.150
44669SOL    HW235905   2.631   7.408   8.301
44670SOL     OW35906   1.026   7.337  12.761
44670SOL    HW135907   1.048   7.244  12.772
44670SOL    HW235908   1.109   7.383  12.771
44671SOL     OW35909   3.982   0.133   1.881
44671SOL    HW135910   3.974   0.082   1.961
44671SOL    HW235911   3.980   0.225   1.910
44672SOL     OW35912   0.804   6.631   6.967
44672SOL    HW135913   0.826   6.721   6.942
44672SOL    HW235914   0.710   6.632   6.982
44673SOL     OW35915   3.218  14.506   6.812
44673SOL    HW135916   3.245  14.543   6.896
44673SOL    HW235917   3.254  14.566   6.747
44674SOL     OW35918   5.687   1.758   4.583
44674SOL    HW135919   5.775   1.733   4.557
44674SOL    HW235920   5.697   1.792   4.672
44675SOL     OW35921   4.081   6.048   0.548
44675SOL    HW135922   4.116   6.004   0.625
44675SOL    HW235923   4.083   5.981   0.479
44676SOL     OW35924   6.336   9.717   9.700
44676SOL    HW135925   6.268   9.783   9.707
44676SOL    HW235926   6.417   9.763   9.725
44677SOL     OW35927  14.768  14.254   6.605
44677SOL    HW135928  14.735  14.239   6.694
44677SOL    HW235929  14.718  14.194   6.550
44678SOL     OW35930  12.991  10.513   9.207
44678SOL    HW135931  13.053  10.482   9.141
44678SOL    HW235932  12.968  10.434   9.256
44679SOL     OW35933   7.524   9.998   6.697
44679SOL    HW135934   7.613   9.990   6.733
44679SOL    HW235935   7.506   9.913   6.659
44680SOL     OW35936   6.775   5.812   2.261
44680SOL    HW135937   6.843   5.855   2.312
44680SOL    HW235938   6.793   5.718   2.272
44681SOL     OW35939   2.774   0.770   0.000
44681SOL    HW135940   2.844   0.754  14.816
44681SOL    HW235941   2.821   0.784   0.083
44682SOL     OW35942  11.862  13.770  12.472
44682SOL    HW135943  11.798  13.842  12.472
44682SOL    HW235944  11.812  13.693  12.444
44683SOL     OW35945  14.006  11.764   6.374
44683SOL    HW135946  13.913  11.753   6.397
44683SOL    HW235947  14.053  11.736   6.453
44684SOL     OW35948   1.029   4.705  13.567
44684SOL    HW135949   1.066   4.755  13.640
44684SOL    HW235950   1.070   4.742  13.489
44685SOL     OW35951  14.278  14.433  13.343
44685SOL    HW135952  14.292  14.417  13.437
44685SOL    HW235953  14.238  14.520  13.340
44686SOL     OW35954   5.581   4.024   4.909
44686SOL    HW135955   5.609   4.049   4.821
44686SOL    HW235956   5.636   3.949   4.931
44687SOL     OW35957   2.326  11.312   2.355
44687SOL    HW135958   2.419  11.297   2.374
44687SOL    HW235959   2.325  11.393   2.303
44688SOL     OW35960   7.164  12.586   9.456
44688SOL    HW135961   7.231  12.537   9.503
44688SOL    HW235962   7.086  12.579   9.512
44689SOL     OW35963   4.749   3.939  11.547
44689SOL    HW135964   4.801   4.019  11.549
44689SOL    HW235965   4.796   3.877  11.602
44690SOL     OW35966  14.391  13.330   5.939
44690SOL    HW135967  14.307  13.293   5.965
44690SOL    HW235968  14.397  13.313   5.845
44691SOL     OW35969  14.691  10.547   2.382
44691SOL    HW135970  14.629  10.491   2.336
44691SOL    HW235971  14.767  10.552   2.323
44692SOL     OW35972  13.062   4.508  10.306
44692SOL    HW135973  13.066   4.595  10.266
44692SOL    HW235974  13.019   4.453  10.240
44693SOL     OW35975  12.654  12.717   7.325
44693SOL    HW135976  12.706  12.797   7.316
44693SOL    HW235977  12.715  12.646   7.303
44694SOL     OW35978   2.883   9.511   9.433
44694SOL    HW135979   2.852   9.568   9.362
44694SOL    HW235980   2.803   9.483   9.477
44695SOL     OW35981   6.314  12.263  12.865
44695SOL    HW135982   6.256  12.196  12.830
44695SOL    HW235983   6.297  12.264  12.959
44696SOL     OW35984   1.565   1.552  12.450
44696SOL    HW135985   1.565   1.497  12.372
44696SOL    HW235986   1.637   1.613  12.437
44697SOL     OW35987   2.426   4.168  11.958
44697SOL    HW135988   2.429   4.155  12.053
44697SOL    HW235989   2.419   4.263  11.947
44698SOL     OW35990  10.000  12.768   3.510
44698SOL    HW135991  10.088  12.805   3.501
44698SOL    HW235992   9.943  12.845   3.518
44699SOL     OW35993   8.033   3.608   9.116
44699SOL    HW135994   7.992   3.614   9.030
44699SOL    HW235995   7.970   3.649   9.176
44700SOL     OW35996   4.190   5.181  12.687
44700SOL    HW135997   4.149   5.217  12.608
44700SOL    HW235998   4.191   5.087  12.673
44701SOL     OW35999   9.115   3.901  10.122
44701SOL    HW136000   9.165   3.838  10.174
44701SOL    HW236001   9.042   3.926  10.178
44702SOL     OW36002  12.831   6.885   8.311
44702SOL    HW136003  12.852   6.814   8.252
44702SOL    HW236004  12.902   6.885   8.376
44703SOL     OW36005   2.774  10.714   4.943
44703SOL    HW136006   2.866  10.717   4.968
44703SOL    HW236007   2.726  10.722   5.026
44704SOL     OW36008  12.653   7.338   6.587
44704SOL    HW136009  12.724   7.319   6.526
44704SOL    HW236010  12.615   7.420   6.554
44705SOL     OW36011  13.114   3.533   5.150
44705SOL    HW136012  13.061   3.597   5.102
44705SOL    HW236013  13.062   3.453   5.148
44706SOL     OW36014  10.889   0.167  14.506
44706SOL    HW136015  10.984   0.166  14.517
44706SOL    HW236016  10.860   0.080  14.533
44707SOL     OW36017   6.016   3.144  10.328
44707SOL    HW136018   6.049   3.133  10.239
44707SOL    HW236019   5.970   3.228  10.326
44708SOL     OW36020   0.387   0.905   6.710
44708SOL    HW136021   0.336   0.863   6.642
44708SOL    HW236022   0.387   0.843   6.783
44709SOL     OW36023  14.570   0.471   9.125
44709SOL    HW136024  14.538   0.396   9.174
44709SOL    HW236025  14.547   0.547   9.179
44710SOL     OW36026  13.460   5.709  12.381
44710SOL    HW136027  13.377   5.709  12.429
44710SOL    HW236028  13.498   5.623  12.397
44711SOL     OW36029   3.134   3.019   9.446
44711SOL    HW136030   3.168   3.021   9.535
44711SOL    HW236031   3.204   3.057   9.393
44712SOL     OW36032   5.820  14.653   1.251
44712SOL    HW136033   5.752  14.704   1.207
44712SOL    HW236034   5.807  14.673   1.344
44713SOL     OW36035  14.834  13.336   5.250
44713SOL    HW136036   0.005  13.401   5.298
44713SOL    HW236037  14.781  13.293   5.317
44714SOL     OW36038   2.403   0.209   3.421
44714SOL    HW136039   2.403   0.131   3.366
44714SOL    HW236040   2.423   0.177   3.509
44715SOL     OW36041   7.626  10.707   9.792
44715SOL    HW136042   7.538  10.719   9.755
44715SOL    HW236043   7.661  10.632   9.744
44716SOL     OW36044   3.876   4.934  12.420
44716SOL    HW136045   3.830   4.871  12.365
44716SOL    HW236046   3.827   4.934  12.502
44717SOL     OW36047   2.081   7.916  10.743
44717SOL    HW136048   2.078   7.829  10.703
44717SOL    HW236049   2.117   7.900  10.831
44718SOL     OW36050   4.375  10.486  12.534
44718SOL    HW136051   4.297  10.471  12.588
44718SOL    HW236052   4.383  10.406  12.482
44719SOL     OW36053   5.222   0.560   9.629
44719SOL    HW136054   5.281   0.587   9.559
44719SOL    HW236055   5.235   0.625   9.698
44720SOL     OW36056  13.008   4.143   6.225
44720SOL    HW136057  12.938   4.162   6.287
44720SOL    HW236058  13.062   4.222   6.225
44721SOL     OW36059   7.017  12.137   2.125
44721SOL    HW136060   7.045  12.082   2.199
44721SOL    HW236061   7.045  12.088   2.048
44722SOL     OW36062   9.181   4.964   7.637
44722SOL    HW136063   9.262   4.913   7.638
44722SOL    HW236064   9.166   4.987   7.729
44723SOL     OW36065   3.461   3.784   7.711
44723SOL    HW136066   3.516   3.808   7.785
44723SOL    HW236067   3.372   3.792   7.743
44724SOL     OW36068   7.835  13.805  12.030
44724SOL    HW136069   7.864  13.785  12.119
44724SOL    HW236070   7.858  13.897  12.018
44725SOL     OW36071  13.849   9.143  10.966
44725SOL    HW136072  13.764   9.173  10.999
44725SOL    HW236073  13.904   9.137  11.045
44726SOL     OW36074   6.359   7.730   1.060
44726SOL    HW136075   6.309   7.811   1.070
44726SOL    HW236076   6.339   7.680   1.139
44727SOL     OW36077  14.282  13.782   6.246
44727SOL    HW136078  14.312  13.707   6.195
44727SOL    HW236079  14.352  13.846   6.237
44728SOL     OW36080   7.194   3.255   8.566
44728SOL    HW136081   7.187   3.260   8.471
44728SOL    HW236082   7.280   3.216   8.581
44729SOL     OW36083   4.724   4.005  10.012
44729SOL    HW136084   4.645   3.951  10.000
44729SOL    HW236085   4.691   4.094  10.020
44730SOL     OW36086   4.960   3.529  10.399
44730SOL    HW136087   5.030   3.505  10.339
44730SOL    HW236088   4.975   3.475  10.477
44731SOL     OW36089  11.546   4.223   6.975
44731SOL    HW136090  11.481   4.291   6.960
44731SOL    HW236091  11.604   4.228   6.899
44732SOL     OW36092   7.114   6.132  13.799
44732SOL    HW136093   7.018   6.139  13.804
44732SOL    HW236094   7.139   6.089  13.881
44733SOL     OW36095  13.682   3.121   1.608
44733SOL    HW136096  13.600   3.074   1.592
44733SOL    HW236097  13.657   3.213   1.604
44734SOL     OW36098  13.650  12.822   5.136
44734SOL    HW136099  13.588  12.894   5.126
44734SOL    HW236100  13.688  12.811   5.049
44735SOL     OW36101   0.877   7.595   3.407
44735SOL    HW136102   0.924   7.642   3.476
44735SOL    HW236103   0.862   7.508   3.443
44736SOL     OW36104  12.402  10.686   0.842
44736SOL    HW136105  12.311  10.657   0.828
44736SOL    HW236106  12.404  10.715   0.933
44737SOL     OW36107   1.897  13.393  11.879
44737SOL    HW136108   1.956  13.339  11.931
44737SOL    HW236109   1.954  13.451  11.829
44738SOL     OW36110   5.273  12.539   0.367
44738SOL    HW136111   5.181  12.521   0.388
44738SOL    HW236112   5.284  12.632   0.385
44739SOL     OW36113   1.718  14.695  12.141
44739SOL    HW136114   1.672  14.663  12.218
44739SOL    HW236115   1.804  14.654  12.144
44740SOL     OW36116   2.812  12.560   0.155
44740SOL    HW136117   2.860  12.478   0.149
44740SOL    HW236118   2.762  12.565   0.074
44741SOL     OW36119   2.605   2.926   4.097
44741SOL    HW136120   2.623   2.933   4.191
44741SOL    HW236121   2.691   2.922   4.056
44742SOL     OW36122  11.911   8.402   1.098
44742SOL    HW136123  11.881   8.316   1.128
44742SOL    HW236124  11.906   8.458   1.175
44743SOL     OW36125   6.570   7.048  14.333
44743SOL    HW136126   6.592   6.962  14.298
44743SOL    HW236127   6.548   7.101  14.257
44744SOL     OW36128   3.650   3.614   8.385
44744SOL    HW136129   3.700   3.543   8.426
44744SOL    HW236130   3.583   3.637   8.449
44745SOL     OW36131   0.842  14.567  14.494
44745SOL    HW136132   0.825  14.518  14.575
44745SOL    HW236133   0.860  14.500  14.428
44746SOL     OW36134   7.296   5.282  14.462
44746SOL    HW136135   7.241   5.355  14.434
44746SOL    HW236136   7.238   5.226  14.514
44747SOL     OW36137  13.154   0.662   8.133
44747SOL    HW136138  13.122   0.752   8.139
44747SOL    HW236139  13.147   0.640   8.040
44748SOL     OW36140  14.029  10.386   9.018
44748SOL    HW136141  13.949  10.432   9.043
44748SOL    HW236142  14.017  10.297   9.051
44749SOL     OW36143   6.172   6.641   7.257
44749SOL    HW136144   6.233   6.619   7.327
44749SOL    HW236145   6.177   6.737   7.250
44750SOL     OW36146  11.452   3.001   2.670
44750SOL    HW136147  11.438   3.095   2.656
44750SOL    HW236148  11.428   2.960   2.587
44751SOL     OW36149  13.442   8.353   9.559
44751SOL    HW136150  13.537   8.362   9.553
44751SOL    HW236151  13.408   8.405   9.486
44752SOL     OW36152  11.112  13.002   0.641
44752SOL    HW136153  11.066  13.073   0.685
44752SOL    HW236154  11.191  13.042   0.606
44753SOL     OW36155  13.656   2.416   0.038
44753SOL    HW136156  13.623   2.330   0.064
44753SOL    HW236157  13.751   2.407   0.037
44754SOL     OW36158  14.833   0.202   7.189
44754SOL    HW136159  14.756   0.195   7.133
44754SOL    HW236160   0.022   0.156   7.141
44755SOL     OW36161  10.231   6.655   4.897
44755SOL    HW136162  10.210   6.736   4.851
44755SOL    HW236163  10.320   6.669   4.930
44756SOL     OW36164   9.955  12.936  10.177
44756SOL    HW136165  10.023  12.875  10.148
44756SOL    HW236166   9.948  12.923  10.271
44757SOL     OW36167   4.743  13.670  14.655
44757SOL    HW136168   4.689  13.749  14.650
44757SOL    HW236169   4.832  13.703  14.666
44758SOL     OW36170   7.237   8.407   8.260
44758SOL    HW136171   7.221   8.485   8.208
44758SOL    HW236172   7.300   8.356   8.210
44759SOL     OW36173  13.197   6.757   6.095
44759SOL    HW136174  13.122   6.805   6.130
44759SOL    HW236175  13.162   6.709   6.020
44760SOL     OW36176   3.234   5.213  13.742
44760SOL    HW136177   3.233   5.295  13.692
44760SOL    HW236178   3.270   5.238  13.828
44761SOL     OW36179   1.068   2.026   9.783
44761SOL    HW136180   1.113   2.058   9.862
44761SOL    HW236181   0.975   2.025   9.808
44762SOL     OW36182   6.880  11.637   0.549
44762SOL    HW136183   6.935  11.597   0.617
44762SOL    HW236184   6.793  11.641   0.588
44763SOL     OW36185   2.005   0.719   0.745
44763SOL    HW136186   1.968   0.756   0.665
44763SOL    HW236187   1.971   0.775   0.815
44764SOL     OW36188   9.163   9.288   5.068
44764SOL    HW136189   9.111   9.368   5.071
44764SOL    HW236190   9.099   9.218   5.064
44765SOL     OW36191   9.338   7.215  10.808
44765SOL    HW136192   9.316   7.306  10.827
44765SOL    HW236193   9.353   7.176  10.894
44766SOL     OW36194   3.968   8.200   0.974
44766SOL    HW136195   3.967   8.137   1.046
44766SOL    HW236196   3.876   8.218   0.957
44767SOL     OW36197   3.467  10.756  13.661
44767SOL    HW136198   3.423  10.740  13.745
44767SOL    HW236199   3.477  10.852  13.657
44768SOL     OW36200   9.157   3.734   0.339
44768SOL    HW136201   9.176   3.666   0.275
44768SOL    HW236202   9.166   3.689   0.424
44769SOL     OW36203   9.645   7.992  12.127
44769SOL    HW136204   9.626   7.909  12.084
44769SOL    HW236205   9.593   8.057  12.079
44770SOL     OW36206   8.923  14.011   6.406
44770SOL    HW136207   8.866  13.940   6.434
44770SOL    HW236208   8.873  14.056   6.338
44771SOL     OW36209  11.286   1.602  12.000
44771SOL    HW136210  11.227   1.618  11.927
44771SOL    HW236211  11.239   1.636  12.076
44772SOL     OW36212   3.693   5.761   4.308
44772SOL    HW136213   3.682   5.789   4.398
44772SOL    HW236214   3.786   5.772   4.289
44773SOL     OW36215   4.371   6.137   2.975
44773SOL    HW136216   4.334   6.053   2.948
44773SOL    HW236217   4.362   6.193   2.898
44774SOL     OW36218   8.865  13.287  13.027
44774SOL    HW136219   8.787  13.231  13.033
44774SOL    HW236220   8.934  13.228  12.998
44775SOL     OW36221   8.903   1.910   3.927
44775SOL    HW136222   8.881   1.841   3.865
44775SOL    HW236223   8.998   1.919   3.919
44776SOL     OW36224   1.236   5.475   7.935
44776SOL    HW136225   1.180   5.498   8.010
44776SOL    HW236226   1.177   5.480   7.860
44777SOL     OW36227   5.917   0.104  10.760
44777SOL    HW136228   5.959   0.161  10.696
44777SOL    HW236229   5.826   0.133  10.763
44778SOL     OW36230   8.778   3.216   7.217
44778SOL    HW136231   8.795   3.137   7.269
44778SOL    HW236232   8.863   3.260   7.213
44779SOL     OW36233   6.414   1.943   6.864
44779SOL    HW136234   6.481   1.895   6.813
44779SOL    HW236235   6.378   2.007   6.803
44780SOL     OW36236   5.907  14.173  14.726
44780SOL    HW136237   5.942  14.262  14.727
44780SOL    HW236238   5.837  14.175  14.661
44781SOL     OW36239  12.055   0.652  13.839
44781SOL    HW136240  12.102   0.716  13.893
44781SOL    HW236241  11.999   0.605  13.901
44782SOL     OW36242  12.056   9.697  12.986
44782SOL    HW136243  12.039   9.786  12.955
44782SOL    HW236244  12.142   9.703  13.028
44783SOL     OW36245  11.484   1.488   4.007
44783SOL    HW136246  11.549   1.494   4.077
44783SOL    HW236247  11.405   1.454   4.050
44784SOL     OW36248   2.565   3.028  10.780
44784SOL    HW136249   2.526   3.104  10.735
44784SOL    HW236250   2.565   2.959  10.714
44785SOL     OW36251   0.346   0.136   0.415
44785SOL    HW136252   0.317   0.160   0.502
44785SOL    HW236253   0.274   0.161   0.357
44786SOL     OW36254   5.345   5.518   0.361
44786SOL    HW136255   5.292   5.460   0.416
44786SOL    HW236256   5.339   5.604   0.404
44787SOL     OW36257  14.654  10.958   8.975
44787SOL    HW136258  14.677  10.949   9.067
44787SOL    HW236259  14.735  10.940   8.928
44788SOL     OW36260   5.836   8.563  10.304
44788SOL    HW136261   5.765   8.519  10.350
44788SOL    HW236262   5.792   8.620  10.241
44789SOL     OW36263  13.628   2.927   7.356
44789SOL    HW136264  13.601   3.006   7.403
44789SOL    HW236265  13.565   2.860   7.384
44790SOL     OW36266   4.829  11.620   7.553
44790SOL    HW136267   4.868  11.699   7.515
44790SOL    HW236268   4.900  11.580   7.602
44791SOL     OW36269   9.566  14.475   9.501
44791SOL    HW136270   9.529  14.485   9.588
44791SOL    HW236271   9.614  14.557   9.486
44792SOL     OW36272  14.431   1.572   8.967
44792SOL    HW136273  14.414   1.513   8.894
44792SOL    HW236274  14.509   1.536   9.009
44793SOL     OW36275   5.015   5.529   5.659
44793SOL    HW136276   5.003   5.535   5.564
44793SOL    HW236277   5.109   5.542   5.672
44794SOL     OW36278   8.447  14.032   0.277
44794SOL    HW136279   8.501  13.957   0.250
44794SOL    HW236280   8.357  13.998   0.274
44795SOL     OW36281   3.066   2.125   9.125
44795SOL    HW136282   3.124   2.090   9.058
44795SOL    HW236283   3.028   2.048   9.167
44796SOL     OW36284   6.015  14.289   5.669
44796SOL    HW136285   5.976  14.369   5.637
44796SOL    HW236286   5.969  14.271   5.751
44797SOL     OW36287   6.199   2.336   6.517
44797SOL    HW136288   6.235   2.404   6.460
44797SOL    HW236289   6.147   2.384   6.581
44798SOL     OW36290   8.720   7.955   4.338
44798SOL    HW136291   8.658   7.904   4.390
44798SOL    HW236292   8.792   7.895   4.319
44799SOL     OW36293   5.418  10.373   6.528
44799SOL    HW136294   5.327  10.387   6.499
44799SOL    HW236295   5.440  10.454   6.574
44800SOL     OW36296   7.379   3.472   5.712
44800SOL    HW136297   7.417   3.515   5.788
44800SOL    HW236298   7.287   3.501   5.711
44801SOL     OW36299   9.371   5.005   4.798
44801SOL    HW136300   9.343   4.992   4.888
44801SOL    HW236301   9.352   5.097   4.780
44802SOL     OW36302   6.489   3.625  13.650
44802SOL    HW136303   6.478   3.712  13.689
44802SOL    HW236304   6.543   3.640  13.573
44803SOL     OW36305  12.275   5.933   6.182
44803SOL    HW136306  12.252   5.840   6.187
44803SOL    HW236307  12.360   5.939   6.226
44804SOL     OW36308  12.211  12.902   7.909
44804SOL    HW136309  12.263  12.836   7.864
44804SOL    HW236310  12.228  12.887   8.002
44805SOL     OW36311  11.969   2.705   8.583
44805SOL    HW136312  12.005   2.698   8.494
44805SOL    HW236313  11.885   2.659   8.578
44806SOL     OW36314  12.587   5.020   3.183
44806SOL    HW136315  12.551   5.106   3.162
44806SOL    HW236316  12.632   5.031   3.266
44807SOL     OW36317  11.202   9.216   7.278
44807SOL    HW136318  11.262   9.276   7.234
44807SOL    HW236319  11.119   9.263   7.281
44808SOL     OW36320   1.898   6.830   1.666
44808SOL    HW136321   1.981   6.785   1.679
44808SOL    HW236322   1.922   6.922   1.652
44809SOL     OW36323  13.320   9.165   8.804
44809SOL    HW136324  13.342   9.073   8.818
44809SOL    HW236325  13.372   9.192   8.729
44810SOL     OW36326   1.497   3.118  10.777
44810SOL    HW136327   1.584   3.151  10.797
44810SOL    HW236328   1.437   3.182  10.815
44811SOL     OW36329   2.411   8.614   7.894
44811SOL    HW136330   2.393   8.602   7.988
44811SOL    HW236331   2.334   8.576   7.850
44812SOL     OW36332  12.139   1.799   2.641
44812SOL    HW136333  12.141   1.886   2.601
44812SOL    HW236334  12.209   1.801   2.707
44813SOL     OW36335   7.460   6.158   6.725
44813SOL    HW136336   7.531   6.218   6.702
44813SOL    HW236337   7.382   6.215   6.729
44814SOL     OW36338  10.585   6.091  11.899
44814SOL    HW136339  10.496   6.120  11.917
44814SOL    HW236340  10.613   6.047  11.979
44815SOL     OW36341  11.056  11.973   3.075
44815SOL    HW136342  11.072  11.880   3.090
44815SOL    HW236343  11.012  11.977   2.990
44816SOL     OW36344  12.821   2.125  10.082
44816SOL    HW136345  12.730   2.154  10.080
44816SOL    HW236346  12.870   2.199  10.045
44817SOL     OW36347   3.426  14.408   1.534
44817SOL    HW136348   3.339  14.432   1.564
44817SOL    HW236349   3.478  14.402   1.615
44818SOL     OW36350  14.098   9.661  13.251
44818SOL    HW136351  14.135   9.707  13.175
44818SOL    HW236352  14.094   9.727  13.320
44819SOL     OW36353   9.790   3.612   4.317
44819SOL    HW136354   9.859   3.677   4.303
44819SOL    HW236355   9.726   3.657   4.373
44820SOL     OW36356   9.388  11.882   1.533
44820SOL    HW136357   9.442  11.804   1.549
44820SOL    HW236358   9.335  11.891   1.612
44821SOL     OW36359   9.290   0.252   4.174
44821SOL    HW136360   9.214   0.243   4.117
44821SOL    HW236361   9.317   0.163   4.193
44822SOL     OW36362   4.820  11.198  11.738
44822SOL    HW136363   4.810  11.179  11.831
44822SOL    HW236364   4.734  11.230  11.710
44823SOL     OW36365   0.879   7.873   6.700
44823SOL    HW136366   0.894   7.955   6.652
44823SOL    HW236367   0.792   7.883   6.737
44824SOL     OW36368  13.617   3.908  13.716
44824SOL    HW136369  13.636   3.865  13.633
44824SOL    HW236370  13.540   3.863  13.750
44825SOL     OW36371  14.610   0.169   3.122
44825SOL    HW136372  14.657   0.086   3.115
44825SOL    HW236373  14.604   0.201   3.032
44826SOL     OW36374  13.963   3.400   1.656
44826SOL    HW136375  13.924   3.313   1.667
44826SOL    HW236376  14.047   3.394   1.703
44827SOL     OW36377   8.143  12.477   2.399
44827SOL    HW136378   8.124  12.386   2.423
44827SOL    HW236379   8.236  12.477   2.375
44828SOL     OW36380   4.086   6.624   7.413
44828SOL    HW136381   4.174   6.644   7.446
44828SOL    HW236382   4.063   6.699   7.359
44829SOL     OW36383  10.237   4.557  14.605
44829SOL    HW136384  10.262   4.529  14.517
44829SOL    HW236385  10.262   4.649  14.609
44830SOL     OW36386   8.060  13.087   1.848
44830SOL    HW136387   8.109  13.007   1.828
44830SOL    HW236388   8.045  13.127   1.762
44831SOL     OW36389   4.780   9.902  11.239
44831SOL    HW136390   4.793   9.931  11.330
44831SOL    HW236391   4.848   9.837  11.225
44832SOL     OW36392  11.461   9.755  10.205
44832SOL    HW136393  11.367   9.764  10.191
44832SOL    HW236394  11.486   9.678  10.153
44833SOL     OW36395   4.670   6.627   0.004
44833SOL    HW136396   4.710   6.543   0.027
44833SOL    HW236397   4.710   6.690   0.063
44834SOL     OW36398   1.786  10.536   6.038
44834SOL    HW136399   1.790  10.444   6.010
44834SOL    HW236400   1.697  10.547   6.070
44835SOL     OW36401  12.518   5.882   9.289
44835SOL    HW136402  12.547   5.943   9.221
44835SOL    HW236403  12.588   5.817   9.294
44836SOL     OW36404   8.900   5.134  10.070
44836SOL    HW136405   8.950   5.153   9.991
44836SOL    HW236406   8.877   5.041  10.061
44837SOL     OW36407   7.032   1.229   7.543
44837SOL    HW136408   6.961   1.171   7.515
44837SOL    HW236409   7.059   1.194   7.628
44838SOL     OW36410  12.380   1.197  13.713
44838SOL    HW136411  12.420   1.279  13.683
44838SOL    HW236412  12.445   1.161  13.774
44839SOL     OW36413   7.855   9.944   7.696
44839SOL    HW136414   7.764   9.975   7.703
44839SOL    HW236415   7.868   9.929   7.602
44840SOL     OW36416   4.026  12.104   9.834
44840SOL    HW136417   4.086  12.115   9.760
44840SOL    HW236418   4.061  12.162   9.902
44841SOL     OW36419   8.630   3.596   2.690
44841SOL    HW136420   8.631   3.503   2.714
44841SOL    HW236421   8.560   3.603   2.625
44842SOL     OW36422   4.633   0.710  12.657
44842SOL    HW136423   4.622   0.769  12.732
44842SOL    HW236424   4.610   0.623  12.691
44843SOL     OW36425  12.224   1.491   3.357
44843SOL    HW136426  12.260   1.579   3.371
44843SOL    HW236427  12.147   1.506   3.303
44844SOL     OW36428  13.515   1.364  13.719
44844SOL    HW136429  13.523   1.285  13.665
44844SOL    HW236430  13.550   1.338  13.804
44845SOL     OW36431   2.723   8.120   1.889
44845SOL    HW136432   2.708   8.054   1.957
44845SOL    HW236433   2.720   8.203   1.936
44846SOL     OW36434   8.453  14.530   5.013
44846SOL    HW136435   8.443  14.614   4.969
44846SOL    HW236436   8.499  14.550   5.094
44847SOL     OW36437   8.499  11.433   1.224
44847SOL    HW136438   8.537  11.345   1.232
44847SOL    HW236439   8.406  11.420   1.239
44848SOL     OW36440  11.501  10.562   6.998
44848SOL    HW136441  11.530  10.487   7.049
44848SOL    HW236442  11.499  10.531   6.908
44849SOL     OW36443   1.053   2.638   6.866
44849SOL    HW136444   1.124   2.574   6.862
44849SOL    HW236445   1.013   2.635   6.780
44850SOL     OW36446  13.440  11.340   7.990
44850SOL    HW136447  13.444  11.435   7.981
44850SOL    HW236448  13.387  11.311   7.915
44851SOL     OW36449  11.357  10.039   9.569
44851SOL    HW136450  11.407  10.105   9.520
44851SOL    HW236451  11.388  10.048   9.659
44852SOL     OW36452  11.919   0.501  10.221
44852SOL    HW136453  11.973   0.533  10.149
44852SOL    HW236454  11.830   0.501  10.186
44853SOL     OW36455   5.347  10.204   2.151
44853SOL    HW136456   5.394  10.264   2.208
44853SOL    HW236457   5.303  10.143   2.210
44854SOL     OW36458   7.224   2.998   8.173
44854SOL    HW136459   7.179   3.063   8.227
44854SOL    HW236460   7.267   2.940   8.237
44855SOL     OW36461   3.181   3.092  10.292
44855SOL    HW136462   3.113   3.024  10.294
44855SOL    HW236463   3.259   3.048  10.324
44856SOL     OW36464  14.721   4.960  12.419
44856SOL    HW136465  14.806   4.984  12.456
44856SOL    HW236466  14.739   4.941  12.327
44857SOL     OW36467   1.593   8.103   9.593
44857SOL    HW136468   1.680   8.133   9.567
44857SOL    HW236469   1.585   8.131   9.685
44858SOL     OW36470  13.985  11.516   9.719
44858SOL    HW136471  13.965  11.426   9.744
44858SOL    HW236472  14.017  11.557   9.799
44859SOL     OW36473   5.367  10.600  10.472
44859SOL    HW136474   5.315  10.560  10.403
44859SOL    HW236475   5.395  10.527  10.527
44860SOL     OW36476  13.262   1.094   4.289
44860SOL    HW136477  13.182   1.067   4.335
44860SOL    HW236478  13.329   1.035   4.321
44861SOL     OW36479  10.407  14.845  12.757
44861SOL    HW136480  10.331   0.022  12.775
44861SOL    HW236481  10.479   0.006  12.804
44862SOL     OW36482   0.377  11.079   9.974
44862SOL    HW136483   0.415  10.997   9.940
44862SOL    HW236484   0.284  11.060   9.985
44863SOL     OW36485   6.133   4.397  11.217
44863SOL    HW136486   6.138   4.488  11.186
44863SOL    HW236487   6.086   4.403  11.300
44864SOL     OW36488  13.991  14.441  14.819
44864SOL    HW136489  14.060  14.483  14.768
44864SOL    HW236490  13.968  14.506   0.006
44865SOL     OW36491   6.604  13.978   6.838
44865SOL    HW136492   6.651  14.023   6.768
44865SOL    HW236493   6.608  14.039   6.912
44866SOL     OW36494   8.233  11.193  14.500
44866SOL    HW136495   8.282  11.269  14.469
44866SOL    HW236496   8.142  11.220  14.497
44867SOL     OW36497  12.487   3.262   7.135
44867SOL    HW136498  12.456   3.172   7.130
44867SOL    HW236499  12.408   3.315   7.144
44868SOL     OW36500   6.023   5.302   5.562
44868SOL    HW136501   6.064   5.388   5.565
44868SOL    HW236502   6.095   5.240   5.568
44869SOL     OW36503   2.480   9.365   8.970
44869SOL    HW136504   2.394   9.369   9.013
44869SOL    HW236505   2.471   9.294   8.907
44870SOL     OW36506   3.749   9.813   5.582
44870SOL    HW136507   3.836   9.782   5.608
44870SOL    HW236508   3.705   9.834   5.664
44871SOL     OW36509  11.769  10.134  14.637
44871SOL    HW136510  11.783  10.209  14.580
44871SOL    HW236511  11.852  10.124  14.684
44872SOL     OW36512   1.937   2.186   6.040
44872SOL    HW136513   1.944   2.135   6.121
44872SOL    HW236514   1.864   2.246   6.055
44873SOL     OW36515   7.728   7.246   3.680
44873SOL    HW136516   7.818   7.277   3.671
44873SOL    HW236517   7.720   7.176   3.615
44874SOL     OW36518   5.078   7.683   7.714
44874SOL    HW136519   5.083   7.589   7.700
44874SOL    HW236520   4.992   7.697   7.755
44875SOL     OW36521   6.069   4.980   3.134
44875SOL    HW136522   6.059   5.069   3.167
44875SOL    HW236523   5.982   4.958   3.099
44876SOL     OW36524   0.042   8.532  12.654
44876SOL    HW136525   0.137   8.541  12.667
44876SOL    HW236526   0.024   8.583  12.575
44877SOL     OW36527   0.688   9.872   2.171
44877SOL    HW136528   0.683   9.836   2.259
44877SOL    HW236529   0.688   9.796   2.113
44878SOL     OW36530   7.025   2.061   2.923
44878SOL    HW136531   6.969   2.128   2.961
44878SOL    HW236532   6.994   1.979   2.961
44879SOL     OW36533   0.399  14.268  13.839
44879SOL    HW136534   0.354  14.305  13.763
44879SOL    HW236535   0.382  14.331  13.910
44880SOL     OW36536   7.441   7.905   7.316
44880SOL    HW136537   7.483   7.917   7.231
44880SOL    HW236538   7.494   7.838   7.360
44881SOL     OW36539   2.245  11.314  12.138
44881SOL    HW136540   2.231  11.228  12.100
44881SOL    HW236541   2.158  11.353  12.144
44882SOL     OW36542   5.781   3.982   7.873
44882SOL    HW136543   5.707   4.003   7.816
44882SOL    HW236544   5.762   4.029   7.954
44883SOL     OW36545  12.236   8.882  12.032
44883SOL    HW136546  12.301   8.910  12.097
44883SOL    HW236547  12.162   8.941  12.045
44884SOL     OW36548   1.092  11.739  12.076
44884SOL    HW136549   1.052  11.700  11.998
44884SOL    HW236550   1.059  11.687  12.149
44885SOL     OW36551   6.752  11.017   6.099
44885SOL    HW136552   6.784  10.933   6.067
44885SOL    HW236553   6.775  11.018   6.192
44886SOL     OW36554   7.061   8.030   3.139
44886SOL    HW136555   7.152   8.003   3.151
44886SOL    HW236556   7.066   8.108   3.084
44887SOL     OW36557   5.676   2.630  14.657
44887SOL    HW136558   5.763   2.626  14.697
44887SOL    HW236559   5.690   2.603  14.566
44888SOL     OW36560   8.400   0.403   7.307
44888SOL    HW136561   8.334   0.417   7.375
44888SOL    HW236562   8.462   0.343   7.346
44889SOL     OW36563   3.907  10.202   6.287
44889SOL    HW136564   3.997  10.202   6.253
44889SOL    HW236565   3.905  10.131   6.350
44890SOL     OW36566   8.448   4.333   6.191
44890SOL    HW136567   8.403   4.301   6.113
44890SOL    HW236568   8.531   4.285   6.193
44891SOL     OW36569   1.441  10.981  11.383
44891SOL    HW136570   1.372  10.931  11.427
44891SOL    HW236571   1.394  11.035  11.319
44892SOL     OW36572   1.298  11.777   7.931
44892SOL    HW136573   1.387  11.808   7.947
44892SOL    HW236574   1.304  11.733   7.846
44893SOL     OW36575   0.718  14.297   1.403
44893SOL    HW136576   0.623  14.285   1.398
44893SOL    HW236577   0.752  14.247   1.329
44894SOL     OW36578   6.898  14.583  12.484
44894SOL    HW136579   6.946  14.586  12.566
44894SOL    HW236580   6.965  14.570  12.417
44895SOL     OW36581  12.581  12.094  14.002
44895SOL    HW136582  12.628  12.012  13.990
44895SOL    HW236583  12.528  12.103  13.922
44896SOL     OW36584  11.023   8.139   1.304
44896SOL    HW136585  11.031   8.099   1.217
44896SOL    HW236586  11.108   8.124   1.346
44897SOL     OW36587   0.354   1.966   6.616
44897SOL    HW136588   0.419   1.992   6.550
44897SOL    HW236589   0.403   1.962   6.698
44898SOL     OW36590  13.848   3.347   4.425
44898SOL    HW136591  13.846   3.304   4.511
44898SOL    HW236592  13.874   3.278   4.364
44899SOL     OW36593  11.798  14.680  12.929
44899SOL    HW136594  11.794  14.771  12.900
44899SOL    HW236595  11.744  14.632  12.866
44900SOL     OW36596   2.431  12.391   6.416
44900SOL    HW136597   2.356  12.332   6.417
44900SOL    HW236598   2.467  12.386   6.504
44901SOL     OW36599   4.828   9.231   0.650
44901SOL    HW136600   4.847   9.204   0.740
44901SOL    HW236601   4.749   9.285   0.658
44902SOL     OW36602   8.347  14.391   1.703
44902SOL    HW136603   8.265  14.365   1.746
44902SOL    HW236604   8.319  14.447   1.631
44903SOL     OW36605   7.602   4.156   4.837
44903SOL    HW136606   7.514   4.118   4.826
44903SOL    HW236607   7.636   4.163   4.748
44904SOL     OW36608  11.380   3.492   0.253
44904SOL    HW136609  11.396   3.535   0.337
44904SOL    HW236610  11.387   3.398   0.273
44905SOL     OW36611   3.204  12.722   9.553
44905SOL    HW136612   3.274  12.684   9.608
44905SOL    HW236613   3.137  12.749   9.615
44906SOL     OW36614   1.962  11.613   7.341
44906SOL    HW136615   1.944  11.705   7.362
44906SOL    HW236616   2.057  11.607   7.341
44907SOL     OW36617   8.032   9.746   3.751
44907SOL    HW136618   7.975   9.819   3.776
44907SOL    HW236619   7.996   9.670   3.797
44908SOL     OW36620  11.239  12.165   0.255
44908SOL    HW136621  11.161  12.109   0.258
44908SOL    HW236622  11.309  12.106   0.226
44909SOL     OW36623  11.482   5.021  11.470
44909SOL    HW136624  11.434   4.963  11.410
44909SOL    HW236625  11.473   5.108  11.431
44910SOL     OW36626   6.945  13.598   8.535
44910SOL    HW136627   7.029  13.551   8.532
44910SOL    HW236628   6.965  13.683   8.497
44911SOL     OW36629   4.365   3.645  14.561
44911SOL    HW136630   4.370   3.741  14.555
44911SOL    HW236631   4.344   3.617  14.472
44912SOL     OW36632  14.474   0.456  12.918
44912SOL    HW136633  14.463   0.407  12.999
44912SOL    HW236634  14.537   0.405  12.868
44913SOL     OW36635   5.288   9.441   6.283
44913SOL    HW136636   5.288   9.515   6.344
44913SOL    HW236637   5.226   9.467   6.214
44914SOL     OW36638   7.325   4.899   5.367
44914SOL    HW136639   7.345   4.933   5.280
44914SOL    HW236640   7.332   4.975   5.425
44915SOL     OW36641   6.454   5.145  13.276
44915SOL    HW136642   6.474   5.228  13.233
44915SOL    HW236643   6.397   5.100  13.213
44916SOL     OW36644   1.753   7.482   7.406
44916SOL    HW136645   1.662   7.469   7.379
44916SOL    HW236646   1.801   7.489   7.324
44917SOL     OW36647  10.458   0.035  10.141
44917SOL    HW136648  10.506   0.006  10.063
44917SOL    HW236649  10.386   0.088  10.107
44918SOL     OW36650   3.341   9.265   2.333
44918SOL    HW136651   3.259   9.302   2.300
44918SOL    HW236652   3.362   9.317   2.410
44919SOL     OW36653   4.291   4.185   5.660
44919SOL    HW136654   4.327   4.216   5.743
44919SOL    HW236655   4.365   4.189   5.599
44920SOL     OW36656   5.732  10.352   5.129
44920SOL    HW136657   5.731  10.285   5.198
44920SOL    HW236658   5.785  10.313   5.059
44921SOL     OW36659   8.366  14.200   6.813
44921SOL    HW136660   8.275  14.179   6.836
44921SOL    HW236661   8.358  14.264   6.742
44922SOL     OW36662  11.344  10.521   6.290
44922SOL    HW136663  11.377  10.467   6.218
44922SOL    HW236664  11.251  10.530   6.272
44923SOL     OW36665   9.337   7.187   9.126
44923SOL    HW136666   9.374   7.202   9.213
44923SOL    HW236667   9.258   7.241   9.124
44924SOL     OW36668  14.544   3.822   8.455
44924SOL    HW136669  14.556   3.732   8.484
44924SOL    HW236670  14.469   3.818   8.396
44925SOL     OW36671   0.681   0.220   5.502
44925SOL    HW136672   0.634   0.269   5.570
44925SOL    HW236673   0.774   0.231   5.525
44926SOL     OW36674  13.958   0.499  10.490
44926SOL    HW136675  14.049   0.479  10.511
44926SOL    HW236676  13.954   0.594  10.485
44927SOL     OW36677  14.691   9.194   8.749
44927SOL    HW136678  14.674   9.267   8.808
44927SOL    HW236679  14.677   9.116   8.803
44928SOL     OW36680   2.499   4.094  11.717
44928SOL    HW136681   2.556   4.022  11.745
44928SOL    HW236682   2.470   4.135  11.798
44929SOL     OW36683   4.794  14.335   7.302
44929SOL    HW136684   4.837  14.335   7.216
44929SOL    HW236685   4.750  14.250   7.306
44930SOL     OW36686  10.933   4.226  11.501
44930SOL    HW136687  10.998   4.292  11.477
44930SOL    HW236688  10.956   4.202  11.591
44931SOL     OW36689  14.767   4.617   5.254
44931SOL    HW136690  14.814   4.624   5.337
44931SOL    HW236691  14.834   4.625   5.187
44932SOL     OW36692   9.823  13.620   0.080
44932SOL    HW136693   9.838  13.709   0.049
44932SOL    HW236694   9.911  13.587   0.100
44933SOL     OW36695   2.942   6.839  12.806
44933SOL    HW136696   2.898   6.757  12.827
44933SOL    HW236697   3.009   6.847  12.875
44934SOL     OW36698   6.104   2.333   5.586
44934SOL    HW136699   6.150   2.265   5.635
44934SOL    HW236700   6.150   2.338   5.503
44935SOL     OW36701   2.315   1.888   6.921
44935SOL    HW136702   2.243   1.832   6.951
44935SOL    HW236703   2.280   1.933   6.844
44936SOL     OW36704  14.423   5.597  12.853
44936SOL    HW136705  14.446   5.507  12.872
44936SOL    HW236706  14.328   5.599  12.854
44937SOL     OW36707   4.631   5.828  11.293
44937SOL    HW136708   4.604   5.738  11.275
44937SOL    HW236709   4.590   5.879  11.223
44938SOL     OW36710   0.447  13.103   3.785
44938SOL    HW136711   0.526  13.152   3.764
44938SOL    HW236712   0.425  13.058   3.703
44939SOL     OW36713  14.362   8.532   5.983
44939SOL    HW136714  14.379   8.450   5.937
44939SOL    HW236715  14.273   8.556   5.958
44940SOL     OW36716  13.324   7.494   4.453
44940SOL    HW136717  13.417   7.471   4.448
44940SOL    HW236718  13.284   7.424   4.505
44941SOL     OW36719   5.597  13.528   9.837
44941SOL    HW136720   5.664  13.495   9.777
44941SOL    HW236721   5.531  13.568   9.779
44942SOL     OW36722   2.853  13.371  10.649
44942SOL    HW136723   2.827  13.289  10.691
44942SOL    HW236724   2.918  13.408  10.708
44943SOL     OW36725   8.179  10.970   6.025
44943SOL    HW136726   8.234  10.898   6.055
44943SOL    HW236727   8.178  10.961   5.930
44944SOL     OW36728   7.566   5.013   5.747
44944SOL    HW136729   7.622   5.001   5.823
44944SOL    HW236730   7.588   4.940   5.689
44945SOL     OW36731  13.105   9.546   1.481
44945SOL    HW136732  13.080   9.461   1.518
44945SOL    HW236733  13.022   9.591   1.466
44946SOL     OW36734   2.166  13.430  13.445
44946SOL    HW136735   2.114  13.365  13.398
44946SOL    HW236736   2.142  13.514  13.406
44947SOL     OW36737   2.233  10.042   5.084
44947SOL    HW136738   2.319  10.010   5.112
44947SOL    HW236739   2.242  10.137   5.082
44948SOL     OW36740  10.490   3.919   3.835
44948SOL    HW136741  10.471   3.958   3.920
44948SOL    HW236742  10.404   3.910   3.793
44949SOL     OW36743   5.350  12.193   1.156
44949SOL    HW136744   5.440  12.221   1.138
44949SOL    HW236745   5.296  12.250   1.100
44950SOL     OW36746  14.241  10.577   9.626
44950SOL    HW136747  14.299  10.517   9.578
44950SOL    HW236748  14.260  10.663   9.590
44951SOL     OW36749   3.811   1.888   2.179
44951SOL    HW136750   3.818   1.796   2.204
44951SOL    HW236751   3.892   1.928   2.211
44952SOL     OW36752  13.383   5.730  10.677
44952SOL    HW136753  13.429   5.667  10.733
44952SOL    HW236754  13.301   5.685  10.653
44953SOL     OW36755   4.777   1.560  13.090
44953SOL    HW136756   4.794   1.496  13.160
44953SOL    HW236757   4.848   1.546  13.027
44954SOL     OW36758  10.334   5.181  10.117
44954SOL    HW136759  10.276   5.105  10.117
44954SOL    HW236760  10.360   5.191  10.209
44955SOL     OW36761   2.667  10.528  12.815
44955SOL    HW136762   2.586  10.578  12.800
44955SOL    HW236763   2.673  10.471  12.738
44956SOL     OW36764  13.194   3.601   0.384
44956SOL    HW136765  13.276   3.579   0.340
44956SOL    HW236766  13.185   3.536   0.453
44957SOL     OW36767   4.649   5.819   8.744
44957SOL    HW136768   4.738   5.793   8.718
44957SOL    HW236769   4.639   5.785   8.833
44958SOL     OW36770  11.973  12.894  11.590
44958SOL    HW136771  12.012  12.884  11.677
44958SOL    HW236772  11.963  12.805  11.558
44959SOL     OW36773   8.504  13.137  10.195
44959SOL    HW136774   8.513  13.198  10.269
44959SOL    HW236775   8.426  13.166  10.148
44960SOL     OW36776   3.370   0.974   2.367
44960SOL    HW136777   3.287   0.928   2.383
44960SOL    HW236778   3.348   1.067   2.380
44961SOL     OW36779  10.078   0.697   2.701
44961SOL    HW136780  10.079   0.787   2.734
44961SOL    HW236781  10.132   0.648   2.764
44962SOL     OW36782   4.748   4.479   1.196
44962SOL    HW136783   4.740   4.573   1.206
44962SOL    HW236784   4.832   4.466   1.153
44963SOL     OW36785   1.193   9.060   1.887
44963SOL    HW136786   1.242   9.110   1.821
44963SOL    HW236787   1.239   8.977   1.893
44964SOL     OW36788   1.366   4.649  13.855
44964SOL    HW136789   1.379   4.717  13.921
44964SOL    HW236790   1.366   4.567  13.905
44965SOL     OW36791   4.111   5.874  13.508
44965SOL    HW136792   4.039   5.883  13.570
44965SOL    HW236793   4.190   5.884  13.562
44966SOL     OW36794   9.723  14.523  10.232
44966SOL    HW136795   9.741  14.449  10.173
44966SOL    HW236796   9.784  14.591  10.204
44967SOL     OW36797   7.077  13.999   3.603
44967SOL    HW136798   7.138  14.045   3.545
44967SOL    HW236799   7.060  14.061   3.674
44968SOL     OW36800  12.883   0.003  12.592
44968SOL    HW136801  12.872  14.848  12.504
44968SOL    HW236802  12.794   0.021  12.622
44969SOL     OW36803   7.973  14.233  10.260
44969SOL    HW136804   8.000  14.187  10.339
44969SOL    HW236805   7.892  14.190  10.233
44970SOL     OW36806  11.256   7.305  10.428
44970SOL    HW136807  11.185   7.319  10.365
44970SOL    HW236808  11.243   7.215  10.459
44971SOL     OW36809  10.296   3.102  12.771
44971SOL    HW136810  10.304   3.055  12.854
44971SOL    HW236811  10.386   3.106  12.737
44972SOL     OW36812  10.707  12.715   6.730
44972SOL    HW136813  10.669  12.729   6.816
44972SOL    HW236814  10.780  12.777   6.726
44973SOL     OW36815   2.246  10.844   6.587
44973SOL    HW136816   2.155  10.823   6.608
44973SOL    HW236817   2.276  10.772   6.531
44974SOL     OW36818  10.083  14.161  11.870
44974SOL    HW136819  10.162  14.125  11.829
44974SOL    HW236820  10.106  14.251  11.892
44975SOL     OW36821  13.410   5.756   8.580
44975SOL    HW136822  13.503   5.753   8.561
44975SOL    HW236823  13.402   5.812   8.657
44976SOL     OW36824  14.835  11.692   3.170
44976SOL    HW136825   0.018  11.745   3.121
44976SOL    HW236826  14.879  11.608   3.184
44977SOL     OW36827   3.948  12.998   8.617
44977SOL    HW136828   3.861  12.962   8.604
44977SOL    HW236829   4.007  12.931   8.581
44978SOL     OW36830   7.891   2.085   3.098
44978SOL    HW136831   7.865   2.170   3.061
44978SOL    HW236832   7.816   2.056   3.149
44979SOL     OW36833   1.945   2.122  10.335
44979SOL    HW136834   1.963   2.202  10.284
44979SOL    HW236835   1.938   2.152  10.425
44980SOL     OW36836   4.043   6.655  10.446
44980SOL    HW136837   4.060   6.585  10.383
44980SOL    HW236838   4.001   6.724  10.396
44981SOL     OW36839  13.539   7.065   8.479
44981SOL    HW136840  13.469   7.129   8.493
44981SOL    HW236841  13.564   7.075   8.388
44982SOL     OW36842  11.468   1.257  10.001
44982SOL    HW136843  11.446   1.179  10.052
44982SOL    HW236844  11.384   1.286   9.964
44983SOL     OW36845  13.731   4.965   5.863
44983SOL    HW136846  13.685   4.977   5.780
44983SOL    HW236847  13.730   5.052   5.904
44984SOL     OW36848   4.000  12.419  12.949
44984SOL    HW136849   3.942  12.347  12.973
44984SOL    HW236850   4.050  12.386  12.874
44985SOL     OW36851   0.796  13.356   0.986
44985SOL    HW136852   0.704  13.344   1.008
44985SOL    HW236853   0.810  13.450   0.991
44986SOL     OW36854   7.127   0.007  12.678
44986SOL    HW136855   7.050   0.058  12.652
44986SOL    HW236856   7.199   0.069  12.674
44987SOL     OW36857   5.281   6.268   3.393
44987SOL    HW136858   5.209   6.323   3.362
44987SOL    HW236859   5.246   6.225   3.472
44988SOL     OW36860   0.905   0.862   6.035
44988SOL    HW136861   0.941   0.900   5.955
44988SOL    HW236862   0.852   0.932   6.073
44989SOL     OW36863  11.721   9.207  12.008
44989SOL    HW136864  11.642   9.169  11.968
44989SOL    HW236865  11.751   9.141  12.070
44990SOL     OW36866  12.600  10.715   8.998
44990SOL    HW136867  12.633  10.730   9.087
44990SOL    HW236868  12.626  10.793   8.950
44991SOL     OW36869  11.411   5.788  11.731
44991SOL    HW136870  11.492   5.803  11.682
44991SOL    HW236871  11.341   5.814  11.671
44992SOL     OW36872   8.175  14.720   8.249
44992SOL    HW136873   8.258  14.755   8.218
44992SOL    HW236874   8.171  14.747   8.341
44993SOL     OW36875  12.194   0.750   6.620
44993SOL    HW136876  12.252   0.791   6.685
44993SOL    HW236877  12.107   0.782   6.643
44994SOL     OW36878   1.660  10.131   8.425
44994SOL    HW136879   1.656  10.058   8.487
44994SOL    HW236880   1.578  10.179   8.439
44995SOL     OW36881  13.355  10.513   3.053
44995SOL    HW136882  13.445  10.524   3.024
44995SOL    HW236883  13.305  10.501   2.972
44996SOL     OW36884   1.163   4.964  11.817
44996SOL    HW136885   1.256   4.957  11.796
44996SOL    HW236886   1.145   4.888  11.873
44997SOL     OW36887  13.308   2.864   8.013
44997SOL    HW136888  13.300   2.854   8.108
44997SOL    HW236889  13.340   2.953   8.001
44998SOL     OW36890   9.041  14.149  14.644
44998SOL    HW136891   8.993  14.142  14.726
44998SOL    HW236892   8.985  14.203  14.588
44999SOL     OW36893   7.672   7.605  12.647
44999SOL    HW136894   7.767   7.615  12.652
44999SOL    HW236895   7.656   7.573  12.558
45000SOL     OW36896   5.023   3.456  11.078
45000SOL    HW136897   4.991   3.517  11.012
45000SOL    HW236898   5.029   3.372  11.033
45001SOL     OW36899   7.279   2.365  11.170
45001SOL    HW136900   7.255   2.458  11.172
45001SOL    HW236901   7.349   2.357  11.235
45002SOL     OW36902   7.751   0.688  12.107
45002SOL    HW136903   7.773   0.595  12.113
45002SOL    HW236904   7.811   0.730  12.170
45003SOL     OW36905  11.970   9.977  10.114
45003SOL    HW136906  12.018  10.037  10.170
45003SOL    HW236907  12.009   9.891  10.131
45004SOL     OW36908   7.220  14.634   5.094
45004SOL    HW136909   7.239  14.675   5.178
45004SOL    HW236910   7.307  14.615   5.057
45005SOL     OW36911   6.179   1.537   2.490
45005SOL    HW136912   6.172   1.580   2.405
45005SOL    HW236913   6.252   1.582   2.533
45006SOL     OW36914  14.817   7.180   8.523
45006SOL    HW136915  14.746   7.171   8.587
45006SOL    HW236916  14.832   7.092   8.491
45007SOL     OW36917   1.657   7.718   6.271
45007SOL    HW136918   1.731   7.773   6.246
45007SOL    HW236919   1.580   7.775   6.259
45008SOL     OW36920   1.948  13.115  10.604
45008SOL    HW136921   1.894  13.112  10.525
45008SOL    HW236922   1.943  13.027  10.640
45009SOL     OW36923   4.610  11.627   7.306
45009SOL    HW136924   4.658  11.697   7.262
45009SOL    HW236925   4.523  11.629   7.266
45010SOL     OW36926   4.689  13.338  10.587
45010SOL    HW136927   4.628  13.411  10.577
45010SOL    HW236928   4.670  13.303  10.674
45011SOL     OW36929  11.289   0.401  13.755
45011SOL    HW136930  11.331   0.462  13.815
45011SOL    HW236931  11.357   0.377  13.692
45012SOL     OW36932   3.449  10.101  13.743
45012SOL    HW136933   3.509  10.172  13.722
45012SOL    HW236934   3.441  10.104  13.839
45013SOL     OW36935   9.781  10.168   5.988
45013SOL    HW136936   9.831  10.245   5.960
45013SOL    HW236937   9.725  10.146   5.914
45014SOL     OW36938  12.199   7.917  13.295
45014SOL    HW136939  12.164   7.974  13.227
45014SOL    HW236940  12.194   7.969  13.375
45015SOL     OW36941   3.896   2.426  11.457
45015SOL    HW136942   3.887   2.505  11.403
45015SOL    HW236943   3.809   2.387  11.458
45016SOL     OW36944   0.822   6.308  14.136
45016SOL    HW136945   0.786   6.320  14.223
45016SOL    HW236946   0.790   6.222  14.107
45017SOL     OW36947   0.628  14.505   6.884
45017SOL    HW136948   0.704  14.562   6.873
45017SOL    HW236949   0.665  14.418   6.897
45018SOL     OW36950   0.250   3.167   7.757
45018SOL    HW136951   0.186   3.219   7.806
45018SOL    HW236952   0.205   3.142   7.677
45019SOL     OW36953   3.557   0.257   3.895
45019SOL    HW136954   3.621   0.195   3.929
45019SOL    HW236955   3.591   0.281   3.809
45020SOL     OW36956  13.082   3.668   2.502
45020SOL    HW136957  13.107   3.592   2.555
45020SOL    HW236958  13.008   3.707   2.548
45021SOL     OW36959  13.608   7.358   7.564
45021SOL    HW136960  13.668   7.301   7.610
45021SOL    HW236961  13.521   7.327   7.590
45022SOL     OW36962   1.942  11.169   6.462
45022SOL    HW136963   1.972  11.251   6.502
45022SOL    HW236964   1.905  11.195   6.378
45023SOL     OW36965   3.077   9.312   7.118
45023SOL    HW136966   3.045   9.241   7.174
45023SOL    HW236967   3.172   9.308   7.126
45024SOL     OW36968   5.261   8.999   1.141
45024SOL    HW136969   5.203   8.928   1.169
45024SOL    HW236970   5.321   9.011   1.216
45025SOL     OW36971  11.990   7.127  10.490
45025SOL    HW136972  11.985   7.215  10.453
45025SOL    HW236973  11.964   7.138  10.581
45026SOL     OW36974  12.808   3.636   6.853
45026SOL    HW136975  12.772   3.591   6.930
45026SOL    HW236976  12.870   3.699   6.889
45027SOL     OW36977   8.229   2.019   0.720
45027SOL    HW136978   8.173   2.039   0.644
45027SOL    HW236979   8.310   1.986   0.681
45028SOL     OW36980  11.165  14.846   0.579
45028SOL    HW136981  11.204   0.014   0.507
45028SOL    HW236982  11.092  14.799   0.539
45029SOL     OW36983   1.339   9.176   4.815
45029SOL    HW136984   1.356   9.093   4.770
45029SOL    HW236985   1.243   9.179   4.823
45030SOL     OW36986   4.810   0.256  12.240
45030SOL    HW136987   4.901   0.228  12.236
45030SOL    HW236988   4.760   0.175  12.239
45031SOL     OW36989   0.728   6.466   0.171
45031SOL    HW136990   0.767   6.414   0.241
45031SOL    HW236991   0.713   6.552   0.211
45032SOL     OW36992   3.046   3.936   9.663
45032SOL    HW136993   3.122   3.963   9.714
45032SOL    HW236994   3.069   3.850   9.629
45033SOL     OW36995   6.030  12.353   6.650
45033SOL    HW136996   6.074  12.329   6.568
45033SOL    HW236997   6.089  12.414   6.692
45034SOL     OW36998  10.892   7.260  14.056
45034SOL    HW136999  10.930   7.180  14.020
45034SOL    HW237000  10.895   7.322  13.984
45035SOL     OW37001   9.383   3.646  13.914
45035SOL    HW137002   9.420   3.702  13.983
45035SOL    HW237003   9.386   3.700  13.835
45036SOL     OW37004   8.553  11.481  10.598
45036SOL    HW137005   8.494  11.419  10.556
45036SOL    HW237006   8.495  11.537  10.650
45037SOL     OW37007   8.055   2.476   9.750
45037SOL    HW137008   7.966   2.475   9.714
45037SOL    HW237009   8.045   2.511   9.839
45038SOL     OW37010   7.247   7.322   4.114
45038SOL    HW137011   7.170   7.291   4.161
45038SOL    HW237012   7.271   7.404   4.157
45039SOL     OW37013  10.466   4.174   4.405
45039SOL    HW137014  10.377   4.158   4.374
45039SOL    HW237015  10.477   4.112   4.477
45040SOL     OW37016  13.489   9.701   7.751
45040SOL    HW137017  13.583   9.709   7.737
45040SOL    HW237018  13.462   9.629   7.695
45041SOL     OW37019   5.389   5.884  10.541
45041SOL    HW137020   5.441   5.861  10.618
45041SOL    HW237021   5.336   5.959  10.570
45042SOL     OW37022   7.867   9.005  11.817
45042SOL    HW137023   7.841   9.079  11.873
45042SOL    HW237024   7.789   8.987  11.764
45043SOL     OW37025   8.999   5.510  10.577
45043SOL    HW137026   8.981   5.552  10.661
45043SOL    HW237027   8.938   5.551  10.516
45044SOL     OW37028   8.205   0.018  11.982
45044SOL    HW137029   8.265   0.022  11.908
45044SOL    HW237030   8.262   0.012  12.059
45045SOL     OW37031   2.657   8.996   2.707
45045SOL    HW137032   2.588   8.967   2.767
45045SOL    HW237033   2.701   9.068   2.753
45046SOL     OW37034   8.369  10.787   5.048
45046SOL    HW137035   8.304  10.722   5.074
45046SOL    HW237036   8.432  10.788   5.120
45047SOL     OW37037  12.118   2.290   3.313
45047SOL    HW137038  12.127   2.385   3.324
45047SOL    HW237039  12.177   2.253   3.379
45048SOL     OW37040   3.532  10.638   9.226
45048SOL    HW137041   3.549  10.656   9.319
45048SOL    HW237042   3.511  10.545   9.224
45049SOL     OW37043   5.413   8.840  10.411
45049SOL    HW137044   5.341   8.776  10.407
45049SOL    HW237045   5.402   8.883  10.495
45050SOL     OW37046  14.732   8.115   6.433
45050SOL    HW137047  14.750   8.158   6.516
45050SOL    HW237048  14.655   8.160   6.398
45051SOL     OW37049   3.509   6.606   7.225
45051SOL    HW137050   3.524   6.657   7.304
45051SOL    HW237051   3.483   6.520   7.257
45052SOL     OW37052  13.548  14.515  12.970
45052SOL    HW137053  13.557  14.420  12.975
45052SOL    HW237054  13.466  14.529  12.921
45053SOL     OW37055  14.266   9.043   6.632
45053SOL    HW137056  14.243   9.121   6.581
45053SOL    HW237057  14.351   9.016   6.597
45054SOL     OW37058  10.073  14.716   7.386
45054SOL    HW137059  10.058  14.715   7.481
45054SOL    HW237060  10.038  14.633   7.355
45055SOL     OW37061   6.652  14.190   1.120
45055SOL    HW137062   6.606  14.189   1.036
45055SOL    HW237063   6.632  14.104   1.158
45056SOL     OW37064  14.494  10.047   5.934
45056SOL    HW137065  14.522   9.956   5.924
45056SOL    HW237066  14.447  10.048   6.017
45057SOL     OW37067   6.418   3.847   1.923
45057SOL    HW137068   6.347   3.911   1.930
45057SOL    HW237069   6.413   3.816   1.833
45058SOL     OW37070   8.766   6.755   9.684
45058SOL    HW137071   8.733   6.815   9.616
45058SOL    HW237072   8.695   6.753   9.749
45059SOL     OW37073   2.306   5.405   3.844
45059SOL    HW137074   2.320   5.329   3.899
45059SOL    HW237075   2.223   5.442   3.873
45060SOL     OW37076  10.372   8.148   8.004
45060SOL    HW137077  10.320   8.138   8.083
45060SOL    HW237078  10.408   8.236   8.010
45061SOL     OW37079  12.895   9.273   6.322
45061SOL    HW137080  12.929   9.353   6.283
45061SOL    HW237081  12.899   9.209   6.251
45062SOL     OW37082  11.467   9.899   1.582
45062SOL    HW137083  11.388   9.882   1.530
45062SOL    HW237084  11.493   9.814   1.616
45063SOL     OW37085   1.920  10.697   1.432
45063SOL    HW137086   1.894  10.606   1.442
45063SOL    HW237087   2.007  10.702   1.472
45064SOL     OW37088  10.550   1.316   3.436
45064SOL    HW137089  10.581   1.402   3.408
45064SOL    HW237090  10.625   1.277   3.479
45065SOL     OW37091   6.093   1.362   6.097
45065SOL    HW137092   6.076   1.377   6.190
45065SOL    HW237093   6.156   1.290   6.096
45066SOL     OW37094  11.537   1.597  10.640
45066SOL    HW137095  11.615   1.653  10.640
45066SOL    HW237096  11.570   1.509  10.621
45067SOL     OW37097   0.590   0.295   3.373
45067SOL    HW137098   0.635   0.372   3.409
45067SOL    HW237099   0.534   0.265   3.444
45068SOL     OW37100   3.472  10.219   1.587
45068SOL    HW137101   3.448  10.151   1.650
45068SOL    HW237102   3.520  10.173   1.519
45069SOL     OW37103   5.835  13.340  13.597
45069SOL    HW137104   5.896  13.392  13.649
45069SOL    HW237105   5.862  13.354  13.506
45070SOL     OW37106   3.691   6.873  11.417
45070SOL    HW137107   3.655   6.912  11.496
45070SOL    HW237108   3.785   6.891  11.423
45071SOL     OW37109  14.767  11.841   4.541
45071SOL    HW137110  14.790  11.920   4.492
45071SOL    HW237111  14.707  11.871   4.609
45072SOL     OW37112   4.562  12.770   1.902
45072SOL    HW137113   4.473  12.749   1.875
45072SOL    HW237114   4.553  12.838   1.968
45073SOL     OW37115   2.676   7.692  12.598
45073SOL    HW137116   2.763   7.659  12.622
45073SOL    HW237117   2.691   7.743  12.519
45074SOL     OW37118   6.992  14.148   5.883
45074SOL    HW137119   6.929  14.212   5.851
45074SOL    HW237120   7.054  14.137   5.812
45075SOL     OW37121   1.920  10.285   9.332
45075SOL    HW137122   1.884  10.358   9.382
45075SOL    HW237123   1.949  10.222   9.399
45076SOL     OW37124  11.479   1.479   5.229
45076SOL    HW137125  11.388   1.487   5.257
45076SOL    HW237126  11.529   1.473   5.310
45077SOL     OW37127  13.244   3.104   4.558
45077SOL    HW137128  13.217   3.039   4.494
45077SOL    HW237129  13.173   3.169   4.558
45078SOL     OW37130  11.484   6.873   7.789
45078SOL    HW137131  11.568   6.918   7.784
45078SOL    HW237132  11.419   6.943   7.782
45079SOL     OW37133   0.271  10.785  13.661
45079SOL    HW137134   0.213  10.836  13.606
45079SOL    HW237135   0.287  10.840  13.737
45080SOL     OW37136   8.148   2.461   4.545
45080SOL    HW137137   8.232   2.493   4.579
45080SOL    HW237138   8.127   2.385   4.600
45081SOL     OW37139   8.069  14.151  13.620
45081SOL    HW137140   8.143  14.200  13.584
45081SOL    HW237141   8.108  14.084  13.676
45082SOL     OW37142   3.828   7.655  11.682
45082SOL    HW137143   3.854   7.567  11.711
45082SOL    HW237144   3.826   7.707  11.762
45083SOL     OW37145   5.930  10.276  12.218
45083SOL    HW137146   5.896  10.286  12.129
45083SOL    HW237147   5.963  10.363  12.241
45084SOL     OW37148   2.073  14.753   2.778
45084SOL    HW137149   2.141  14.724   2.839
45084SOL    HW237150   1.999  14.775   2.834
45085SOL     OW37151   9.975   1.185   5.475
45085SOL    HW137152   9.908   1.254   5.472
45085SOL    HW237153   9.928   1.107   5.504
45086SOL     OW37154   8.882  13.062  11.890
45086SOL    HW137155   8.846  13.109  11.966
45086SOL    HW237156   8.975  13.051  11.910
45087SOL     OW37157  14.202   2.780   2.894
45087SOL    HW137158  14.197   2.719   2.968
45087SOL    HW237159  14.159   2.733   2.822
45088SOL     OW37160  13.364  12.984   6.824
45088SOL    HW137161  13.393  13.019   6.908
45088SOL    HW237162  13.321  13.058   6.781
45089SOL     OW37163   8.104   3.163   6.042
45089SOL    HW137164   8.185   3.114   6.029
45089SOL    HW237165   8.084   3.150   6.135
45090SOL     OW37166  11.638  12.586   4.392
45090SOL    HW137167  11.570  12.612   4.331
45090SOL    HW237168  11.598  12.593   4.479
45091SOL     OW37169   4.946  14.395  12.373
45091SOL    HW137170   5.000  14.377  12.450
45091SOL    HW237171   4.883  14.461  12.404
45092SOL     OW37172  12.972   8.675   6.334
45092SOL    HW137173  12.914   8.749   6.323
45092SOL    HW237174  13.040   8.688   6.268
45093SOL     OW37175   2.784   7.818   8.313
45093SOL    HW137176   2.809   7.910   8.301
45093SOL    HW237177   2.700   7.810   8.268
45094SOL     OW37178  11.222  13.077   5.024
45094SOL    HW137179  11.293  13.139   5.008
45094SOL    HW237180  11.192  13.098   5.113
45095SOL     OW37181   1.359  13.436   2.830
45095SOL    HW137182   1.362  13.454   2.924
45095SOL    HW237183   1.339  13.342   2.825
45096SOL     OW37184  13.306   7.713   4.959
45096SOL    HW137185  13.237   7.773   4.987
45096SOL    HW237186  13.275   7.678   4.876
45097SOL     OW37187   2.255   7.908   4.180
45097SOL    HW137188   2.314   7.884   4.110
45097SOL    HW237189   2.299   7.878   4.260
45098SOL     OW37190   2.852   1.088   3.186
45098SOL    HW137191   2.902   1.112   3.108
45098SOL    HW237192   2.871   1.158   3.248
45099SOL     OW37193   6.750   4.285   9.138
45099SOL    HW137194   6.830   4.309   9.090
45099SOL    HW237195   6.720   4.205   9.095
45100SOL     OW37196  14.061   7.999   8.463
45100SOL    HW137197  14.146   7.977   8.501
45100SOL    HW237198  13.998   7.967   8.527
45101SOL     OW37199  14.876  14.651   9.932
45101SOL    HW137200   0.090  14.655   9.950
45101SOL    HW237201  14.856  14.736   9.893
45102SOL     OW37202   4.639   7.676   5.406
45102SOL    HW137203   4.555   7.653   5.366
45102SOL    HW237204   4.640   7.627   5.489
45103SOL     OW37205  12.729   5.733  14.582
45103SOL    HW137206  12.662   5.737  14.514
45103SOL    HW237207  12.777   5.652  14.564
45104SOL     OW37208  12.148  12.782   8.923
45104SOL    HW137209  12.127  12.874   8.910
45104SOL    HW237210  12.064  12.739   8.937
45105SOL     OW37211   3.267  12.968   8.036
45105SOL    HW137212   3.313  12.985   8.118
45105SOL    HW237213   3.232  12.880   8.046
45106SOL     OW37214  10.628   6.635   9.972
45106SOL    HW137215  10.691   6.679  10.030
45106SOL    HW237216  10.636   6.682   9.889
45107SOL     OW37217  12.071   2.419   4.011
45107SOL    HW137218  12.048   2.488   3.949
45107SOL    HW237219  12.003   2.353   4.000
45108SOL     OW37220   1.419   3.276   9.669
45108SOL    HW137221   1.514   3.288   9.677
45108SOL    HW237222   1.409   3.211   9.599
45109SOL     OW37223   0.564  12.345   3.443
45109SOL    HW137224   0.569  12.257   3.405
45109SOL    HW237225   0.478  12.347   3.486
45110SOL     OW37226  10.331   7.010  13.928
45110SOL    HW137227  10.342   7.104  13.943
45110SOL    HW237228  10.268   7.004  13.855
45111SOL     OW37229   4.321   4.160  10.442
45111SOL    HW137230   4.226   4.170  10.443
45111SOL    HW237231   4.352   4.231  10.386
45112SOL     OW37232   3.317  10.470   0.096
45112SOL    HW137233   3.385  10.440   0.157
45112SOL    HW237234   3.334  10.563   0.085
45113SOL     OW37235   7.508   2.927  10.572
45113SOL    HW137236   7.555   3.001  10.610
45113SOL    HW237237   7.465   2.965  10.495
45114SOL     OW37238  12.409  14.119  11.547
45114SOL    HW137239  12.414  14.154  11.636
45114SOL    HW237240  12.336  14.057  11.550
45115SOL     OW37241  13.900  14.872   5.928
45115SOL    HW137242  13.978   0.029   5.969
45115SOL    HW237243  13.931  14.835   5.845
45116SOL     OW37244  10.213   4.843  14.677
45116SOL    HW137245  10.206   4.920  14.619
45116SOL    HW237246  10.124   4.829  14.710
45117SOL     OW37247   0.592   3.218   3.394
45117SOL    HW137248   0.660   3.275   3.358
45117SOL    HW237249   0.600   3.136   3.344
45118SOL     OW37250   2.119   6.534  12.362
45118SOL    HW137251   2.123   6.626  12.390
45118SOL    HW237252   2.092   6.538  12.271
45119SOL     OW37253   4.891  10.645   0.018
45119SOL    HW137254   4.933  10.731   0.021
45119SOL    HW237255   4.801  10.663  14.874
45120SOL     OW37256   5.252   8.588   4.537
45120SOL    HW137257   5.257   8.580   4.633
45120SOL    HW237258   5.158   8.582   4.518
45121SOL     OW37259   3.931   2.822   5.126
45121SOL    HW137260   3.962   2.891   5.068
45121SOL    HW237261   3.848   2.794   5.088
45122SOL     OW37262   6.296   2.437  10.016
45122SOL    HW137263   6.302   2.444  10.112
45122SOL    HW237264   6.379   2.399   9.989
45123SOL     OW37265  12.168   7.005  12.699
45123SOL    HW137266  12.145   7.053  12.619
45123SOL    HW237267  12.172   7.072  12.767
45124SOL     OW37268  13.301   0.696   1.486
45124SOL    HW137269  13.239   0.631   1.453
45124SOL    HW237270  13.383   0.647   1.499
45125SOL     OW37271   1.298   3.371  11.923
45125SOL    HW137272   1.375   3.315  11.908
45125SOL    HW237273   1.272   3.353  12.013
45126SOL     OW37274   3.243  10.429   7.286
45126SOL    HW137275   3.249  10.333   7.292
45126SOL    HW237276   3.192  10.444   7.206
45127SOL     OW37277   7.711   2.536   8.382
45127SOL    HW137278   7.702   2.536   8.287
45127SOL    HW237279   7.766   2.460   8.401
45128SOL     OW37280   3.122   6.620   9.474
45128SOL    HW137281   3.153   6.546   9.422
45128SOL    HW237282   3.081   6.678   9.411
45129SOL     OW37283   0.174   0.123  12.876
45129SOL    HW137284   0.102   0.181  12.902
45129SOL    HW237285   0.186   0.141  12.783
45130SOL     OW37286  12.400   9.244  12.030
45130SOL    HW137287  12.394   9.181  11.957
45130SOL    HW237288  12.484   9.289  12.015
45131SOL     OW37289   3.298  11.175  12.621
45131SOL    HW137290   3.351  11.241  12.666
45131SOL    HW237291   3.215  11.220  12.601
45132SOL     OW37292  13.966   5.430  10.472
45132SOL    HW137293  14.062   5.433  10.475
45132SOL    HW237294  13.943   5.466  10.387
45133SOL     OW37295  11.905   4.675  12.996
45133SOL    HW137296  11.951   4.598  13.029
45133SOL    HW237297  11.974   4.734  12.968
45134SOL     OW37298  12.242  12.032  12.873
45134SOL    HW137299  12.245  11.937  12.883
45134SOL    HW237300  12.188  12.047  12.795
45135SOL     OW37301   9.309   6.700   7.517
45135SOL    HW137302   9.276   6.622   7.562
45135SOL    HW237303   9.259   6.772   7.556
45136SOL     OW37304   3.593  10.752  11.259
45136SOL    HW137305   3.606  10.825  11.200
45136SOL    HW237306   3.658  10.687  11.231
45137SOL     OW37307  12.532  11.670  10.982
45137SOL    HW137308  12.627  11.679  10.990
45137SOL    HW237309  12.499  11.687  11.070
45138SOL     OW37310  14.255  11.793  13.806
45138SOL    HW137311  14.188  11.785  13.738
45138SOL    HW237312  14.239  11.879  13.846
45139SOL     OW37313  11.908   7.289   4.285
45139SOL    HW137314  11.819   7.290   4.320
45139SOL    HW237315  11.943   7.203   4.310
45140SOL     OW37316  13.133   2.903   4.400
45140SOL    HW137317  13.043   2.888   4.372
45140SOL    HW237318  13.169   2.815   4.414
45141SOL     OW37319   1.801   4.434  11.646
45141SOL    HW137320   1.740   4.485  11.591
45141SOL    HW237321   1.779   4.343  11.627
45142SOL     OW37322   8.945   5.576   4.497
45142SOL    HW137323   8.939   5.660   4.543
45142SOL    HW237324   9.016   5.587   4.434
45143SOL     OW37325   4.694  12.311  11.233
45143SOL    HW137326   4.620  12.308  11.172
45143SOL    HW237327   4.700  12.222  11.268
45144SOL     OW37328   2.420  10.928  13.593
45144SOL    HW137329   2.340  10.894  13.553
45144SOL    HW237330   2.436  11.011  13.547
45145SOL     OW37331   4.739   5.791   3.237
45145SOL    HW137332   4.691   5.710   3.221
45145SOL    HW237333   4.786   5.807   3.155
45146SOL     OW37334   1.188  14.186   9.787
45146SOL    HW137335   1.122  14.247   9.820
45146SOL    HW237336   1.171  14.104   9.833
45147SOL     OW37337   1.462   0.501   8.287
45147SOL    HW137338   1.480   0.494   8.194
45147SOL    HW237339   1.446   0.411   8.315
45148SOL     OW37340   9.888   6.777   0.282
45148SOL    HW137341   9.831   6.853   0.294
45148SOL    HW237342   9.977   6.813   0.287
45149SOL     OW37343   0.914  10.513  14.723
45149SOL    HW137344   0.914  10.512  14.627
45149SOL    HW237345   0.856  10.585  14.746
45150SOL     OW37346  11.368  12.041   6.612
45150SOL    HW137347  11.347  11.980   6.683
45150SOL    HW237348  11.366  11.987   6.533
45151SOL     OW37349   4.874   7.267   1.032
45151SOL    HW137350   4.823   7.198   1.075
45151SOL    HW237351   4.854   7.257   0.939
45152SOL     OW37352  10.859   8.976  12.147
45152SOL    HW137353  10.881   8.882  12.145
45152SOL    HW237354  10.796   8.985  12.218
45153SOL     OW37355   6.836  14.141   0.112
45153SOL    HW137356   6.837  14.092   0.030
45153SOL    HW237357   6.921  14.122   0.153
45154SOL     OW37358   5.849   3.965   5.507
45154SOL    HW137359   5.931   3.990   5.464
45154SOL    HW237360   5.788   4.035   5.485
45155SOL     OW37361   6.503   4.455   7.169
45155SOL    HW137362   6.494   4.413   7.255
45155SOL    HW237363   6.499   4.383   7.106
45156SOL     OW37364   3.500   8.837  14.122
45156SOL    HW137365   3.546   8.886  14.190
45156SOL    HW237366   3.425   8.893  14.099
45157SOL     OW37367   3.493   0.168  12.786
45157SOL    HW137368   3.510   0.076  12.768
45157SOL    HW237369   3.437   0.167  12.863
45158SOL     OW37370  11.543   0.168   4.840
45158SOL    HW137371  11.563   0.196   4.750
45158SOL    HW237372  11.619   0.196   4.891
45159SOL     OW37373  13.585  12.775   5.764
45159SOL    HW137374  13.550  12.851   5.811
45159SOL    HW237375  13.670  12.803   5.731
45160SOL     OW37376  12.260  12.242   1.488
45160SOL    HW137377  12.201  12.304   1.533
45160SOL    HW237378  12.209  12.162   1.481
45161SOL     OW37379   5.136  13.152  10.381
45161SOL    HW137380   5.211  13.134  10.324
45161SOL    HW237381   5.150  13.242  10.411
45162SOL     OW37382  13.334  13.392   7.177
45162SOL    HW137383  13.364  13.310   7.216
45162SOL    HW237384  13.400  13.414   7.112
45163SOL     OW37385   4.473   8.798   0.742
45163SOL    HW137386   4.561   8.778   0.710
45163SOL    HW237387   4.417   8.786   0.665
45164SOL     OW37388   2.095   4.415   9.165
45164SOL    HW137389   2.190   4.409   9.180
45164SOL    HW237390   2.065   4.325   9.164
45165SOL     OW37391  10.744   9.730   9.052
45165SOL    HW137392  10.717   9.656   8.999
45165SOL    HW237393  10.831   9.753   9.019
45166SOL     OW37394  13.687   1.557   6.516
45166SOL    HW137395  13.631   1.613   6.463
45166SOL    HW237396  13.627   1.501   6.565
45167SOL     OW37397  11.276   5.933   5.560
45167SOL    HW137398  11.194   5.923   5.513
45167SOL    HW237399  11.299   5.844   5.587
45168SOL     OW37400  11.392   7.782   1.190
45168SOL    HW137401  11.417   7.690   1.192
45168SOL    HW237402  11.452   7.824   1.252
45169SOL     OW37403  10.169  14.781   0.299
45169SOL    HW137404  10.192  14.872   0.280
45169SOL    HW237405  10.216  14.761   0.380
45170SOL     OW37406  12.141   3.749  11.351
45170SOL    HW137407  12.152   3.668  11.401
45170SOL    HW237408  12.051   3.744  11.317
45171SOL     OW37409  10.197  12.360   1.182
45171SOL    HW137410  10.177  12.333   1.092
45171SOL    HW237411  10.242  12.443   1.173
45172SOL     OW37412   1.792  12.415   8.376
45172SOL    HW137413   1.759  12.484   8.318
45172SOL    HW237414   1.819  12.461   8.456
45173SOL     OW37415   3.339   1.309   8.731
45173SOL    HW137416   3.245   1.292   8.726
45173SOL    HW237417   3.348   1.379   8.796
45174SOL     OW37418  13.932   0.641   3.634
45174SOL    HW137419  13.948   0.553   3.668
45174SOL    HW237420  14.017   0.685   3.641
45175SOL     OW37421   5.808   9.938   8.541
45175SOL    HW137422   5.888   9.896   8.508
45175SOL    HW237423   5.837  10.024   8.571
45176SOL     OW37424  10.195   1.971   9.949
45176SOL    HW137425  10.268   2.025   9.981
45176SOL    HW237426  10.125   2.034   9.933
45177SOL     OW37427   9.965  10.583   2.492
45177SOL    HW137428   9.895  10.537   2.445
45177SOL    HW237429  10.045  10.558   2.445
45178SOL     OW37430   1.848   8.943   3.828
45178SOL    HW137431   1.846   9.032   3.863
45178SOL    HW237432   1.792   8.892   3.887
45179SOL     OW37433   6.219   8.660   5.129
45179SOL    HW137434   6.224   8.644   5.035
45179SOL    HW237435   6.157   8.733   5.137
45180SOL     OW37436   3.134   5.770  11.685
45180SOL    HW137437   3.050   5.730  11.710
45180SOL    HW237438   3.196   5.698  11.686
45181SOL     OW37439   6.455   9.503   9.585
45181SOL    HW137440   6.379   9.447   9.568
45181SOL    HW237441   6.419   9.580   9.628
45182SOL     OW37442   0.554  14.314  10.677
45182SOL    HW137443   0.502  14.260  10.617
45182SOL    HW237444   0.642  14.277  10.671
45183SOL     OW37445   6.264  13.265   0.916
45183SOL    HW137446   6.299  13.323   0.984
45183SOL    HW237447   6.341  13.237   0.867
45184SOL     OW37448   1.010   7.776  11.640
45184SOL    HW137449   1.004   7.738  11.728
45184SOL    HW237450   0.950   7.723  11.587
45185SOL     OW37451   1.307  14.113   7.483
45185SOL    HW137452   1.361  14.037   7.505
45185SOL    HW237453   1.217  14.082   7.494
45186SOL     OW37454   6.866   6.057   5.659
45186SOL    HW137455   6.929   5.997   5.620
45186SOL    HW237456   6.866   6.133   5.601
45187SOL     OW37457   7.067   2.588   7.071
45187SOL    HW137458   6.980   2.626   7.061
45187SOL    HW237459   7.125   2.649   7.026
45188SOL     OW37460   2.450   7.772   8.871
45188SOL    HW137461   2.513   7.703   8.893
45188SOL    HW237462   2.372   7.726   8.843
45189SOL     OW37463   2.541   5.528   8.242
45189SOL    HW137464   2.497   5.521   8.157
45189SOL    HW237465   2.619   5.581   8.224
45190SOL     OW37466   8.641  10.812  13.051
45190SOL    HW137467   8.690  10.772  13.123
45190SOL    HW237468   8.651  10.751  12.978
45191SOL     OW37469   3.295  11.770   9.009
45191SOL    HW137470   3.233  11.806   8.945
45191SOL    HW237471   3.253  11.689   9.039
45192SOL     OW37472  13.487   8.713  11.270
45192SOL    HW137473  13.453   8.627  11.245
45192SOL    HW237474  13.486   8.763  11.188
45193SOL     OW37475  14.539   1.326   4.116
45193SOL    HW137476  14.545   1.330   4.212
45193SOL    HW237477  14.625   1.356   4.087
45194SOL     OW37478  12.947   2.521   0.670
45194SOL    HW137479  12.954   2.428   0.648
45194SOL    HW237480  12.855   2.542   0.653
45195SOL     OW37481   5.473  13.419   2.254
45195SOL    HW137482   5.378  13.434   2.250
45195SOL    HW237483   5.509  13.471   2.182
45196SOL     OW37484   4.812   1.561   6.126
45196SOL    HW137485   4.767   1.593   6.048
45196SOL    HW237486   4.888   1.514   6.094
45197SOL     OW37487  11.360   6.902   2.234
45197SOL    HW137488  11.370   6.882   2.141
45197SOL    HW237489  11.280   6.858   2.260
45198SOL     OW37490  13.593   3.127   2.431
45198SOL    HW137491  13.633   3.074   2.362
45198SOL    HW237492  13.571   3.063   2.499
45199SOL     OW37493   1.017   3.168   2.902
45199SOL    HW137494   1.024   3.212   2.987
45199SOL    HW237495   0.937   3.204   2.863
45200SOL     OW37496  14.850   8.070   0.871
45200SOL    HW137497  14.802   7.987   0.875
45200SOL    HW237498   0.002   8.075   0.781
45201SOL     OW37499   4.443   1.833   4.785
45201SOL    HW137500   4.493   1.789   4.853
45201SOL    HW237501   4.369   1.775   4.768
45202SOL     OW37502   7.082   5.212   2.508
45202SOL    HW137503   6.995   5.231   2.474
45202SOL    HW237504   7.073   5.219   2.603
45203SOL     OW37505   8.752  10.636   7.207
45203SOL    HW137506   8.806  10.616   7.283
45203SOL    HW237507   8.680  10.572   7.211
45204SOL     OW37508   3.866   8.450   8.359
45204SOL    HW137509   3.781   8.437   8.402
45204SOL    HW237510   3.850   8.522   8.298
45205SOL     OW37511   0.702  11.044  13.525
45205SOL    HW137512   0.656  11.008  13.601
45205SOL    HW237513   0.794  11.023  13.540
45206SOL     OW37514  10.621   4.122  13.447
45206SOL    HW137515  10.620   4.073  13.365
45206SOL    HW237516  10.611   4.214  13.421
45207SOL     OW37517   9.051  13.697   3.484
45207SOL    HW137518   8.970  13.678   3.438
45207SOL    HW237519   9.106  13.742   3.420
45208SOL     OW37520   0.511   7.825   9.345
45208SOL    HW137521   0.530   7.802   9.254
45208SOL    HW237522   0.419   7.801   9.358
45209SOL     OW37523  10.920   8.971   7.112
45209SOL    HW137524  10.847   8.950   7.054
45209SOL    HW237525  10.994   8.983   7.053
45210SOL     OW37526   6.939   4.212   9.625
45210SOL    HW137527   6.871   4.236   9.688
45210SOL    HW237528   7.012   4.182   9.680
45211SOL     OW37529   5.849   6.409  13.795
45211SOL    HW137530   5.827   6.333  13.741
45211SOL    HW237531   5.883   6.371  13.876
45212SOL     OW37532  12.337   6.475   9.722
45212SOL    HW137533  12.302   6.411   9.660
45212SOL    HW237534  12.372   6.545   9.667
45213SOL     OW37535   6.395   5.778   3.067
45213SOL    HW137536   6.414   5.693   3.106
45213SOL    HW237537   6.432   5.773   2.979
45214SOL     OW37538  10.012   8.499  11.538
45214SOL    HW137539   9.981   8.576  11.585
45214SOL    HW237540   9.974   8.506  11.451
45215SOL     OW37541   2.789   5.591   9.731
45215SOL    HW137542   2.775   5.503   9.698
45215SOL    HW237543   2.883   5.594   9.752
45216SOL     OW37544   9.733   6.645   4.618
45216SOL    HW137545   9.711   6.673   4.529
45216SOL    HW237546   9.789   6.569   4.606
45217SOL     OW37547   1.827  12.803  12.236
45217SOL    HW137548   1.914  12.791  12.199
45217SOL    HW237549   1.771  12.826  12.162
45218SOL     OW37550   5.166   3.122  11.364
45218SOL    HW137551   5.147   3.205  11.321
45218SOL    HW237552   5.107   3.120  11.439
45219SOL     OW37553   8.853  11.122   4.621
45219SOL    HW137554   8.768  11.079   4.616
45219SOL    HW237555   8.909  11.059   4.666
45220SOL     OW37556   5.258  12.021   2.691
45220SOL    HW137557   5.336  11.965   2.688
45220SOL    HW237558   5.259  12.059   2.779
45221SOL     OW37559   9.066   4.739   7.317
45221SOL    HW137560   9.157   4.766   7.331
45221SOL    HW237561   9.022   4.754   7.400
45222SOL     OW37562   0.285   4.016   9.576
45222SOL    HW137563   0.266   4.104   9.544
45222SOL    HW237564   0.202   3.987   9.614
45223SOL     OW37565   3.083  14.175   6.163
45223SOL    HW137566   3.012  14.122   6.199
45223SOL    HW237567   3.041  14.257   6.135
45224SOL     OW37568   2.156   0.475   9.737
45224SOL    HW137569   2.104   0.397   9.758
45224SOL    HW237570   2.201   0.496   9.819
45225SOL     OW37571  10.082  14.707   6.461
45225SOL    HW137572  10.137  14.680   6.535
45225SOL    HW237573   9.996  14.668   6.479
45226SOL     OW37574   9.633   3.089   7.304
45226SOL    HW137575   9.663   3.047   7.385
45226SOL    HW237576   9.620   3.181   7.328
45227SOL     OW37577   8.107  10.939   1.272
45227SOL    HW137578   8.133  10.854   1.237
45227SOL    HW237579   8.049  10.918   1.345
45228SOL     OW37580  12.552   0.544   8.130
45228SOL    HW137581  12.534   0.532   8.037
45228SOL    HW237582  12.532   0.636   8.147
45229SOL     OW37583  14.798   1.329   9.136
45229SOL    HW137584   0.007   1.365   9.144
45229SOL    HW237585  14.745   1.383   9.195
45230SOL     OW37586   5.047  12.208   8.677
45230SOL    HW137587   5.011  12.287   8.717
45230SOL    HW237588   4.995  12.196   8.597
45231SOL     OW37589   0.223   1.151   7.124
45231SOL    HW137590   0.254   1.212   7.191
45231SOL    HW237591   0.249   1.191   7.041
45232SOL     OW37592   9.259  13.920  14.577
45232SOL    HW137593   9.264  13.947  14.485
45232SOL    HW237594   9.217  13.993  14.621
45233SOL     OW37595   1.262  10.166  11.831
45233SOL    HW137596   1.280  10.149  11.924
45233SOL    HW237597   1.218  10.251  11.830
45234SOL     OW37598   5.551   4.790  12.857
45234SOL    HW137599   5.508   4.833  12.931
45234SOL    HW237600   5.553   4.698  12.880
45235SOL     OW37601   2.409   4.475  12.198
45235SOL    HW137602   2.429   4.559  12.240
45235SOL    HW237603   2.487   4.456  12.146
45236SOL     OW37604   3.928  11.376   8.938
45236SOL    HW137605   4.001  11.316   8.948
45236SOL    HW237606   3.896  11.390   9.027
45237SOL     OW37607   8.806   3.665   6.744
45237SOL    HW137608   8.861   3.722   6.797
45237SOL    HW237609   8.760   3.723   6.684
45238SOL     OW37610   2.498  10.517   0.293
45238SOL    HW137611   2.516  10.586   0.357
45238SOL    HW237612   2.407  10.491   0.310
45239SOL     OW37613   1.450   8.800   1.104
45239SOL    HW137614   1.356   8.782   1.095
45239SOL    HW237615   1.474   8.846   1.024
45240SOL     OW37616   7.318  14.623   6.217
45240SOL    HW137617   7.247  14.606   6.155
45240SOL    HW237618   7.342  14.714   6.202
45241SOL     OW37619   0.229  13.483   7.055
45241SOL    HW137620   0.179  13.402   7.042
45241SOL    HW237621   0.165  13.544   7.090
45242SOL     OW37622   9.888  13.934  12.377
45242SOL    HW137623   9.876  13.861  12.437
45242SOL    HW237624   9.879  14.012  12.431
45243SOL     OW37625   3.365   1.211   6.301
45243SOL    HW137626   3.332   1.193   6.213
45243SOL    HW237627   3.386   1.125   6.337
45244SOL     OW37628  10.489  13.242   9.912
45244SOL    HW137629  10.448  13.317   9.955
45244SOL    HW237630  10.473  13.256   9.818
45245SOL     OW37631  11.664   8.701  12.082
45245SOL    HW137632  11.686   8.790  12.109
45245SOL    HW237633  11.749   8.660  12.063
45246SOL     OW37634   3.171   4.450  13.065
45246SOL    HW137635   3.175   4.521  13.000
45246SOL    HW237636   3.153   4.371  13.014
45247SOL     OW37637   2.662  13.343  10.039
45247SOL    HW137638   2.707  13.400   9.976
45247SOL    HW237639   2.661  13.395  10.120
45248SOL     OW37640   3.860  10.801   4.789
45248SOL    HW137641   3.871  10.893   4.813
45248SOL    HW237642   3.947  10.762   4.801
45249SOL     OW37643   5.698  14.573   5.909
45249SOL    HW137644   5.624  14.601   5.963
45249SOL    HW237645   5.754  14.524   5.969
45250SOL     OW37646   7.554  12.342   4.230
45250SOL    HW137647   7.606  12.378   4.302
45250SOL    HW237648   7.619  12.311   4.167
45251SOL     OW37649  10.157  10.853  11.147
45251SOL    HW137650  10.163  10.764  11.182
45251SOL    HW237651  10.099  10.845  11.071
45252SOL     OW37652  12.756  12.965  14.718
45252SOL    HW137653  12.768  12.987  14.625
45252SOL    HW237654  12.709  13.040  14.754
45253SOL     OW37655   6.246  14.314   7.321
45253SOL    HW137656   6.320  14.261   7.291
45253SOL    HW237657   6.187  14.317   7.245
45254SOL     OW37658  13.731   1.150   8.207
45254SOL    HW137659  13.704   1.062   8.183
45254SOL    HW237660  13.771   1.185   8.128
45255SOL     OW37661   9.996  11.631  13.648
45255SOL    HW137662  10.082  11.652  13.683
45255SOL    HW237663   9.956  11.716  13.631
45256SOL     OW37664   3.885   0.746   9.708
45256SOL    HW137665   3.945   0.687   9.664
45256SOL    HW237666   3.931   0.771   9.788
45257SOL     OW37667   3.024   4.343   9.593
45257SOL    HW137668   3.054   4.420   9.545
45257SOL    HW237669   3.073   4.270   9.555
45258SOL     OW37670   5.420  13.565   4.121
45258SOL    HW137671   5.386  13.644   4.079
45258SOL    HW237672   5.398  13.494   4.061
45259SOL     OW37673   0.293   1.792   9.182
45259SOL    HW137674   0.364   1.833   9.232
45259SOL    HW237675   0.330   1.708   9.154
45260SOL     OW37676   7.484  10.263   4.848
45260SOL    HW137677   7.532  10.346   4.850
45260SOL    HW237678   7.421  10.270   4.921
45261SOL     OW37679   8.032  13.259  12.650
45261SOL    HW137680   7.960  13.322  12.644
45261SOL    HW237681   8.014  13.211  12.731
45262SOL     OW37682  13.257  13.085  10.675
45262SOL    HW137683  13.225  13.093  10.765
45262SOL    HW237684  13.307  13.165  10.659
45263SOL     OW37685   0.292   8.520  14.389
45263SOL    HW137686   0.199   8.524  14.368
45263SOL    HW237687   0.295   8.485  14.478
45264SOL     OW37688   2.420   2.876   8.647
45264SOL    HW137689   2.431   2.966   8.679
45264SOL    HW237690   2.363   2.835   8.712
45265SOL     OW37691  14.490   1.293   6.408
45265SOL    HW137692  14.428   1.322   6.475
45265SOL    HW237693  14.569   1.270   6.456
45266SOL     OW37694   4.282   1.628   0.587
45266SOL    HW137695   4.207   1.615   0.529
45266SOL    HW237696   4.249   1.686   0.655
45267SOL     OW37697   1.224   8.367   7.928
45267SOL    HW137698   1.161   8.298   7.948
45267SOL    HW237699   1.305   8.321   7.904
45268SOL     OW37700   9.807   8.566  12.648
45268SOL    HW137701   9.880   8.517  12.610
45268SOL    HW237702   9.837   8.657  12.647
45269SOL     OW37703   4.682   1.800   9.669
45269SOL    HW137704   4.601   1.825   9.713
45269SOL    HW237705   4.747   1.797   9.739
45270SOL     OW37706   9.066   0.165   7.087
45270SOL    HW137707   9.024   0.143   7.170
45270SOL    HW237708   9.001   0.218   7.041
45271SOL     OW37709   6.777   6.274  14.050
45271SOL    HW137710   6.687   6.308  14.048
45271SOL    HW237711   6.828   6.338  14.000
45272SOL     OW37712  12.930   4.340   4.477
45272SOL    HW137713  12.992   4.269   4.493
45272SOL    HW237714  12.845   4.303   4.498
45273SOL     OW37715   5.682   1.856  10.652
45273SOL    HW137716   5.757   1.847  10.710
45273SOL    HW237717   5.606   1.838  10.707
45274SOL     OW37718   9.674   2.451  12.132
45274SOL    HW137719   9.680   2.380  12.195
45274SOL    HW237720   9.764   2.461  12.099
45275SOL     OW37721   7.807  11.023   0.878
45275SOL    HW137722   7.792  10.963   0.950
45275SOL    HW237723   7.727  11.019   0.826
45276SOL     OW37724  12.786   3.424   4.772
45276SOL    HW137725  12.738   3.344   4.753
45276SOL    HW237726  12.719   3.493   4.772
45277SOL     OW37727   8.330   6.842   8.800
45277SOL    HW137728   8.405   6.872   8.749
45277SOL    HW237729   8.308   6.917   8.856
45278SOL     OW37730  10.617  13.574   4.430
45278SOL    HW137731  10.522  13.575   4.431
45278SOL    HW237732  10.640  13.482   4.420
45279SOL     OW37733  12.728  11.947   5.926
45279SOL    HW137734  12.689  11.887   5.990
45279SOL    HW237735  12.781  11.890   5.869
45280SOL     OW37736  11.352   6.022   9.947
45280SOL    HW137737  11.406   5.986   9.877
45280SOL    HW237738  11.279   6.065   9.902
45281SOL     OW37739  10.047  13.206   1.043
45281SOL    HW137740   9.956  13.230   1.059
45281SOL    HW237741  10.043  13.134   0.981
45282SOL     OW37742   7.712  14.475   3.930
45282SOL    HW137743   7.797  14.467   3.886
45282SOL    HW237744   7.683  14.385   3.942
45283SOL     OW37745   2.599  10.927  14.406
45283SOL    HW137746   2.681  10.954  14.363
45283SOL    HW237747   2.623  10.917  14.498
45284SOL     OW37748   5.588   5.468   6.174
45284SOL    HW137749   5.556   5.558   6.185
45284SOL    HW237750   5.591   5.456   6.079
45285SOL     OW37751   3.129   7.412  12.550
45285SOL    HW137752   3.181   7.363  12.614
45285SOL    HW237753   3.065   7.348  12.517
45286SOL     OW37754  14.312   9.951   8.722
45286SOL    HW137755  14.377   9.949   8.793
45286SOL    HW237756  14.229   9.929   8.765
45287SOL     OW37757  10.827  12.037   1.894
45287SOL    HW137758  10.826  12.132   1.881
45287SOL    HW237759  10.780  12.024   1.976
45288SOL     OW37760   1.588   5.924   0.840
45288SOL    HW137761   1.540   5.926   0.757
45288SOL    HW237762   1.678   5.948   0.817
45289SOL     OW37763   7.843   9.290  13.658
45289SOL    HW137764   7.800   9.264  13.739
45289SOL    HW237765   7.907   9.221  13.641
45290SOL     OW37766   5.103   9.179   6.316
45290SOL    HW137767   5.071   9.104   6.366
45290SOL    HW237768   5.078   9.255   6.369
45291SOL     OW37769   5.518   0.563   3.044
45291SOL    HW137770   5.614   0.569   3.042
45291SOL    HW237771   5.498   0.481   3.000
45292SOL     OW37772  10.901  14.642   1.455
45292SOL    HW137773  10.875  14.612   1.542
45292SOL    HW237774  10.828  14.616   1.398
45293SOL     OW37775  11.682  10.821   5.636
45293SOL    HW137776  11.735  10.752   5.677
45293SOL    HW237777  11.640  10.778   5.562
45294SOL     OW37778  13.205   3.230   7.036
45294SOL    HW137779  13.119   3.190   7.027
45294SOL    HW237780  13.261   3.161   7.070
45295SOL     OW37781   1.368  13.251  11.490
45295SOL    HW137782   1.352  13.273  11.398
45295SOL    HW237783   1.399  13.333  11.529
45296SOL     OW37784   8.364  10.298   2.360
45296SOL    HW137785   8.445  10.290   2.409
45296SOL    HW237786   8.301  10.335   2.422
45297SOL     OW37787  13.216  11.294  12.170
45297SOL    HW137788  13.207  11.216  12.117
45297SOL    HW237789  13.212  11.367  12.107
45298SOL     OW37790   0.103   1.375   0.619
45298SOL    HW137791   0.129   1.459   0.655
45298SOL    HW237792   0.068   1.396   0.532
45299SOL     OW37793   7.387  12.352  13.505
45299SOL    HW137794   7.461  12.375  13.561
45299SOL    HW237795   7.428  12.325  13.422
45300SOL     OW37796   2.985  13.432  11.435
45300SOL    HW137797   3.073  13.412  11.467
45300SOL    HW237798   2.932  13.358  11.462
45301SOL     OW37799   2.312   9.019   5.703
45301SOL    HW137800   2.388   9.028   5.647
45301SOL    HW237801   2.328   9.079   5.776
45302SOL     OW37802   7.790   8.390  10.431
45302SOL    HW137803   7.866   8.370  10.375
45302SOL    HW237804   7.780   8.485  10.425
45303SOL     OW37805  10.172   2.493   2.761
45303SOL    HW137806  10.256   2.465   2.722
45303SOL    HW237807  10.195   2.569   2.814
45304SOL     OW37808   1.219  11.176   0.175
45304SOL    HW137809   1.148  11.241   0.177
45304SOL    HW237810   1.291  11.218   0.223
45305SOL     OW37811   6.333  12.889   8.418
45305SOL    HW137812   6.296  12.805   8.390
45305SOL    HW237813   6.324  12.945   8.341
45306SOL     OW37814   2.936   1.297   0.019
45306SOL    HW137815   2.898   1.383  14.876
45306SOL    HW237816   2.893   1.272   0.100
45307SOL     OW37817   5.491   6.143   8.041
45307SOL    HW137818   5.583   6.125   8.061
45307SOL    HW237819   5.445   6.060   8.060
45308SOL     OW37820  13.088   6.665   3.784
45308SOL    HW137821  13.155   6.673   3.716
45308SOL    HW237822  13.133   6.621   3.857
45309SOL     OW37823   6.967  14.050   8.803
45309SOL    HW137824   7.032  13.980   8.803
45309SOL    HW237825   6.955  14.071   8.896
45310SOL     OW37826  13.555   5.165   5.107
45310SOL    HW137827  13.505   5.090   5.075
45310SOL    HW237828  13.631   5.170   5.048
45311SOL     OW37829  11.063   4.547  12.968
45311SOL    HW137830  11.048   4.501  12.885
45311SOL    HW237831  11.007   4.624  12.963
45312SOL     OW37832   3.578   1.953  11.259
45312SOL    HW137833   3.590   1.860  11.278
45312SOL    HW237834   3.628   1.998  11.327
45313SOL     OW37835   1.760   7.672   1.816
45313SOL    HW137836   1.676   7.638   1.846
45313SOL    HW237837   1.823   7.640   1.880
45314SOL     OW37838   6.533   2.066   5.853
45314SOL    HW137839   6.541   1.984   5.901
45314SOL    HW237840   6.550   2.134   5.918
45315SOL     OW37841   6.178  11.447   4.030
45315SOL    HW137842   6.153  11.538   4.015
45315SOL    HW237843   6.096  11.402   4.049
45316SOL     OW37844   5.698   3.544   5.695
45316SOL    HW137845   5.751   3.528   5.772
45316SOL    HW237846   5.694   3.640   5.687
45317SOL     OW37847   2.442   5.188   3.185
45317SOL    HW137848   2.475   5.187   3.095
45317SOL    HW237849   2.347   5.176   3.176
45318SOL     OW37850   1.114   3.010   5.419
45318SOL    HW137851   1.144   2.939   5.476
45318SOL    HW237852   1.146   3.089   5.461
45319SOL     OW37853  12.887   7.081  12.235
45319SOL    HW137854  12.795   7.087  12.209
45319SOL    HW237855  12.900   6.988  12.253
45320SOL     OW37856   0.746   5.751   0.296
45320SOL    HW137857   0.832   5.792   0.303
45320SOL    HW237858   0.718   5.738   0.386
45321SOL     OW37859   7.669   2.940  13.998
45321SOL    HW137860   7.736   2.974  13.938
45321SOL    HW237861   7.719   2.903  14.070
45322SOL     OW37862   7.479   7.948  14.319
45322SOL    HW137863   7.427   7.868  14.315
45322SOL    HW237864   7.501   7.967  14.228
45323SOL     OW37865  12.535   0.115   1.922
45323SOL    HW137866  12.499   0.085   2.005
45323SOL    HW237867  12.630   0.117   1.936
45324SOL     OW37868   9.602  10.326   2.133
45324SOL    HW137869   9.697  10.311   2.137
45324SOL    HW237870   9.593  10.419   2.114
45325SOL     OW37871   9.517  13.553   8.000
45325SOL    HW137872   9.456  13.543   8.073
45325SOL    HW237873   9.510  13.472   7.950
45326SOL     OW37874   9.605  13.751   5.879
45326SOL    HW137875   9.640  13.667   5.850
45326SOL    HW237876   9.660  13.777   5.953
45327SOL     OW37877   1.793   5.713  14.317
45327SOL    HW137878   1.821   5.798  14.351
45327SOL    HW237879   1.734   5.735  14.244
45328SOL     OW37880   6.911   0.182   7.243
45328SOL    HW137881   6.988   0.125   7.246
45328SOL    HW237882   6.947   0.271   7.249
45329SOL     OW37883  14.810   9.542  14.126
45329SOL    HW137884  14.744   9.611  14.124
45329SOL    HW237885  14.789   9.486  14.051
45330SOL     OW37886  12.447   8.247   8.415
45330SOL    HW137887  12.378   8.209   8.469
45330SOL    HW237888  12.402   8.281   8.338
45331SOL     OW37889  13.310   9.701  11.928
45331SOL    HW137890  13.260   9.699  12.009
45331SOL    HW237891  13.346   9.789  11.924
45332SOL     OW37892   8.980   5.655   0.202
45332SOL    HW137893   9.014   5.742   0.181
45332SOL    HW237894   8.928   5.630   0.126
45333SOL     OW37895   1.713  11.765  12.827
45333SOL    HW137896   1.663  11.820  12.887
45333SOL    HW237897   1.675  11.783  12.741
45334SOL     OW37898  11.623   2.261   2.334
45334SOL    HW137899  11.611   2.166   2.332
45334SOL    HW237900  11.699   2.278   2.279
45335SOL     OW37901   3.652  12.465  11.805
45335SOL    HW137902   3.745  12.454  11.788
45335SOL    HW237903   3.619  12.376  11.820
45336SOL     OW37904   4.259   9.950   9.948
45336SOL    HW137905   4.181   9.915   9.990
45336SOL    HW237906   4.331   9.927  10.006
45337SOL     OW37907   8.598   5.319   8.637
45337SOL    HW137908   8.524   5.261   8.656
45337SOL    HW237909   8.667   5.291   8.697
45338SOL     OW37910   9.160  13.221   9.055
45338SOL    HW137911   9.156  13.306   9.012
45338SOL    HW237912   9.202  13.238   9.139
45339SOL     OW37913   2.374   5.334  13.500
45339SOL    HW137914   2.344   5.253  13.459
45339SOL    HW237915   2.448   5.307  13.554
45340SOL     OW37916  10.362  14.222   6.142
45340SOL    HW137917  10.340  14.256   6.228
45340SOL    HW237918  10.449  14.258   6.123
45341SOL     OW37919   9.097   9.485   7.614
45341SOL    HW137920   9.054   9.565   7.643
45341SOL    HW237921   9.135   9.448   7.694
45342SOL     OW37922   2.246  13.827   3.462
45342SOL    HW137923   2.191  13.838   3.539
45342SOL    HW237924   2.263  13.916   3.431
45343SOL     OW37925   1.593  14.288  12.950
45343SOL    HW137926   1.530  14.354  12.920
45343SOL    HW237927   1.644  14.266  12.873
45344SOL     OW37928  11.688   1.973  13.536
45344SOL    HW137929  11.779   1.988  13.561
45344SOL    HW237930  11.690   1.894  13.482
45345SOL     OW37931   6.805   6.016   6.890
45345SOL    HW137932   6.871   6.007   6.959
45345SOL    HW237933   6.735   5.956   6.917
45346SOL     OW37934  14.174   0.197   8.010
45346SOL    HW137935  14.095   0.147   8.028
45346SOL    HW237936  14.152   0.250   7.933
45347SOL     OW37937  14.205   3.258  11.049
45347SOL    HW137938  14.216   3.248  10.954
45347SOL    HW237939  14.225   3.171  11.085
45348SOL     OW37940   2.236  14.043   0.971
45348SOL    HW137941   2.278  14.127   0.986
45348SOL    HW237942   2.260  13.990   1.047
45349SOL     OW37943  12.906  13.916  12.696
45349SOL    HW137944  12.841  13.846  12.692
45349SOL    HW237945  12.874  13.973  12.766
45350SOL     OW37946   8.851  10.494   6.030
45350SOL    HW137947   8.921  10.437   5.999
45350SOL    HW237948   8.786  10.492   5.960
45351SOL     OW37949  11.456  10.605   5.447
45351SOL    HW137950  11.510  10.676   5.412
45351SOL    HW237951  11.366  10.629   5.423
45352SOL     OW37952  11.180   3.686   0.129
45352SOL    HW137953  11.214   3.604   0.163
45352SOL    HW237954  11.190   3.749   0.201
45353SOL     OW37955  13.959   6.206   2.657
45353SOL    HW137956  13.965   6.192   2.562
45353SOL    HW237957  13.866   6.224   2.672
45354SOL     OW37958  14.234   2.346   8.647
45354SOL    HW137959  14.294   2.344   8.722
45354SOL    HW237960  14.236   2.438   8.619
45355SOL     OW37961   3.017  13.171  10.155
45355SOL    HW137962   3.062  13.119  10.221
45355SOL    HW237963   2.928  13.136  10.152
45356SOL     OW37964  12.753   8.821   6.248
45356SOL    HW137965  12.722   8.808   6.337
45356SOL    HW237966  12.673   8.832   6.196
45357SOL     OW37967  13.750   5.342   0.383
45357SOL    HW137968  13.769   5.301   0.299
45357SOL    HW237969  13.800   5.424   0.383
45358SOL     OW37970  13.298   5.296  10.536
45358SOL    HW137971  13.373   5.262  10.487
45358SOL    HW237972  13.237   5.223  10.540
45359SOL     OW37973  12.808  12.307   0.305
45359SOL    HW137974  12.773  12.363   0.236
45359SOL    HW237975  12.868  12.363   0.354
45360SOL     OW37976   3.913   1.646  12.587
45360SOL    HW137977   4.000   1.677  12.560
45360SOL    HW237978   3.929   1.562  12.629
45361SOL     OW37979  10.765   0.954  13.751
45361SOL    HW137980  10.847   0.966  13.703
45361SOL    HW237981  10.727   0.874  13.715
45362SOL     OW37982   9.209  10.995  14.535
45362SOL    HW137983   9.213  10.970  14.627
45362SOL    HW237984   9.196  11.090  14.536
45363SOL     OW37985   6.207   3.277  10.472
45363SOL    HW137986   6.151   3.210  10.432
45363SOL    HW237987   6.146   3.336  10.516
45364SOL     OW37988   4.458  13.484  14.204
45364SOL    HW137989   4.376  13.437  14.188
45364SOL    HW237990   4.498  13.438  14.278
45365SOL     OW37991   1.216   8.120  12.210
45365SOL    HW137992   1.242   8.030  12.230
45365SOL    HW237993   1.157   8.111  12.134
45366SOL     OW37994   1.418  10.933   4.700
45366SOL    HW137995   1.495  10.989   4.703
45366SOL    HW237996   1.387  10.930   4.790
45367SOL     OW37997   2.289  12.511   8.524
45367SOL    HW137998   2.355  12.569   8.485
45367SOL    HW237999   2.237  12.480   8.450
45368SOL     OW38000   4.638   2.361   6.948
45368SOL    HW138001   4.616   2.398   7.034
45368SOL    HW238002   4.666   2.272   6.967
45369SOL     OW38003   8.720   8.077  14.364
45369SOL    HW138004   8.780   8.037  14.302
45369SOL    HW238005   8.764   8.159  14.389
45370SOL     OW38006   9.078   8.187  14.669
45370SOL    HW138007   9.143   8.135  14.718
45370SOL    HW238008   9.109   8.277  14.677
45371SOL     OW38009   1.435   9.695  10.218
45371SOL    HW138010   1.358   9.643  10.194
45371SOL    HW238011   1.508   9.651  10.175
45372SOL     OW38012  13.438   9.095   3.248
45372SOL    HW138013  13.353   9.086   3.291
45372SOL    HW238014  13.435   9.035   3.174
45373SOL     OW38015   2.045   8.634   7.097
45373SOL    HW138016   2.010   8.716   7.131
45373SOL    HW238017   2.132   8.626   7.137
45374SOL     OW38018   1.425  14.396   0.374
45374SOL    HW138019   1.471  14.350   0.443
45374SOL    HW238020   1.359  14.448   0.420
45375SOL     OW38021   8.688   4.263  11.766
45375SOL    HW138022   8.717   4.313  11.842
45375SOL    HW238023   8.604   4.224  11.792
45376SOL     OW38024   4.781   4.598  11.896
45376SOL    HW138025   4.870   4.593  11.931
45376SOL    HW238026   4.754   4.507  11.884
45377SOL     OW38027  11.331   8.188   2.359
45377SOL    HW138028  11.267   8.178   2.289
45377SOL    HW238029  11.281   8.221   2.433
45378SOL     OW38030   6.217  13.206   2.456
45378SOL    HW138031   6.234  13.249   2.372
45378SOL    HW238032   6.210  13.278   2.518
45379SOL     OW38033  13.410   9.455  11.905
45379SOL    HW138034  13.381   9.407  11.827
45379SOL    HW238035  13.354   9.532  11.908
45380SOL     OW38036   8.868  12.196   2.737
45380SOL    HW138037   8.791  12.253   2.734
45380SOL    HW238038   8.913  12.213   2.654
45381SOL     OW38039   2.109   4.458   6.577
45381SOL    HW138040   2.113   4.377   6.526
45381SOL    HW238041   2.055   4.517   6.525
45382SOL     OW38042   9.791  10.662  12.230
45382SOL    HW138043   9.883  10.654  12.252
45382SOL    HW238044   9.750  10.700  12.308
45383SOL     OW38045   3.753  12.795   6.839
45383SOL    HW138046   3.748  12.835   6.925
45383SOL    HW238047   3.809  12.854   6.788
45384SOL     OW38048   5.674   4.476   6.435
45384SOL    HW138049   5.768   4.494   6.439
45384SOL    HW238050   5.668   4.381   6.423
45385SOL     OW38051   3.662   9.393   3.266
45385SOL    HW138052   3.620   9.427   3.187
45385SOL    HW238053   3.634   9.302   3.270
45386SOL     OW38054  12.155   2.138   3.791
45386SOL    HW138055  12.063   2.124   3.815
45386SOL    HW238056  12.202   2.141   3.874
45387SOL     OW38057   5.376   6.798   3.855
45387SOL    HW138058   5.445   6.734   3.838
45387SOL    HW238059   5.422   6.881   3.865
45388SOL     OW38060   6.606   0.209   7.497
45388SOL    HW138061   6.636   0.128   7.454
45388SOL    HW238062   6.527   0.233   7.448
45389SOL     OW38063  13.199   1.775  12.485
45389SOL    HW138064  13.122   1.785  12.429
45389SOL    HW238065  13.194   1.684  12.516
45390SOL     OW38066  14.374   8.291   5.308
45390SOL    HW138067  14.295   8.244   5.281
45390SOL    HW238068  14.406   8.243   5.385
45391SOL     OW38069   0.993   7.074   9.196
45391SOL    HW138070   1.055   7.126   9.144
45391SOL    HW238071   1.036   6.988   9.205
45392SOL     OW38072   3.404  10.444   9.545
45392SOL    HW138073   3.325  10.451   9.492
45392SOL    HW238074   3.379  10.478   9.631
45393SOL     OW38075   2.318   5.813   5.821
45393SOL    HW138076   2.412   5.811   5.803
45393SOL    HW238077   2.292   5.904   5.804
45394SOL     OW38078   7.004  12.387  10.798
45394SOL    HW138079   7.037  12.451  10.735
45394SOL    HW238080   6.924  12.427  10.832
45395SOL     OW38081   4.581   7.253   7.012
45395SOL    HW138082   4.640   7.180   7.031
45395SOL    HW238083   4.502   7.234   7.063
45396SOL     OW38084   0.405   8.236   3.198
45396SOL    HW138085   0.483   8.186   3.173
45396SOL    HW238086   0.408   8.238   3.294
45397SOL     OW38087   4.306   6.673   9.614
45397SOL    HW138088   4.309   6.699   9.706
45397SOL    HW238089   4.335   6.582   9.613
45398SOL     OW38090  12.984   9.118  13.357
45398SOL    HW138091  13.000   9.027  13.382
45398SOL    HW238092  12.905   9.142  13.404
45399SOL     OW38093   8.706  10.391   3.976
45399SOL    HW138094   8.717  10.314   3.920
45399SOL    HW238095   8.767  10.376   4.049
45400SOL     OW38096   8.918   4.466   3.973
45400SOL    HW138097   8.965   4.414   4.039
45400SOL    HW238098   8.970   4.546   3.964
45401SOL     OW38099   0.766   3.913   3.395
45401SOL    HW138100   0.800   3.868   3.318
45401SOL    HW238101   0.843   3.937   3.446
45402SOL     OW38102  12.002   5.666   4.009
45402SOL    HW138103  12.027   5.606   3.939
45402SOL    HW238104  11.936   5.618   4.059
45403SOL     OW38105   8.326   8.135   2.773
45403SOL    HW138106   8.392   8.109   2.709
45403SOL    HW238107   8.354   8.092   2.854
45404SOL     OW38108   0.822   7.953   7.898
45404SOL    HW138109   0.789   7.890   7.962
45404SOL    HW238110   0.744   7.981   7.851
45405SOL     OW38111   8.120   9.664  10.748
45405SOL    HW138112   8.200   9.664  10.799
45405SOL    HW238113   8.106   9.572  10.725
45406SOL     OW38114   2.859   7.232   5.971
45406SOL    HW138115   2.788   7.281   6.012
45406SOL    HW238116   2.939   7.275   6.001
45407SOL     OW38117   3.431  14.014  12.715
45407SOL    HW138118   3.341  13.985  12.727
45407SOL    HW238119   3.443  14.082  12.782
45408SOL     OW38120   2.288   5.085   6.196
45408SOL    HW138121   2.311   4.999   6.162
45408SOL    HW238122   2.201   5.074   6.234
45409SOL     OW38123   8.918   4.803   7.865
45409SOL    HW138124   8.915   4.710   7.890
45409SOL    HW238125   9.003   4.814   7.823
45410SOL     OW38126   0.508   2.883  12.063
45410SOL    HW138127   0.439   2.877  12.129
45410SOL    HW238128   0.556   2.801  12.071
45411SOL     OW38129   5.612   3.589   3.705
45411SOL    HW138130   5.558   3.513   3.684
45411SOL    HW238131   5.550   3.656   3.731
45412SOL     OW38132   4.809   4.220   9.773
45412SOL    HW138133   4.800   4.283   9.845
45412SOL    HW238134   4.719   4.196   9.751
45413SOL     OW38135   0.660   5.423  13.028
45413SOL    HW138136   0.622   5.465  12.950
45413SOL    HW238137   0.609   5.457  13.101
45414SOL     OW38138   3.167  12.619  12.609
45414SOL    HW138139   3.183  12.528  12.583
45414SOL    HW238140   3.252  12.662  12.600
45415SOL     OW38141   1.442   5.822  10.892
45415SOL    HW138142   1.445   5.727  10.902
45415SOL    HW238143   1.531   5.851  10.911
45416SOL     OW38144  12.957   0.465   3.822
45416SOL    HW138145  12.899   0.389   3.815
45416SOL    HW238146  12.916   0.520   3.889
45417SOL     OW38147   6.749  12.924  13.920
45417SOL    HW138148   6.778  12.857  13.981
45417SOL    HW238149   6.829  12.972  13.897
45418SOL     OW38150   4.739   3.960   2.041
45418SOL    HW138151   4.723   3.986   1.951
45418SOL    HW238152   4.798   3.885   2.035
45419SOL     OW38153   5.212  14.071   1.223
45419SOL    HW138154   5.141  14.007   1.218
45419SOL    HW238155   5.270  14.048   1.151
45420SOL     OW38156   3.091   2.884   1.009
45420SOL    HW138157   3.004   2.861   0.976
45420SOL    HW238158   3.149   2.817   0.973
45421SOL     OW38159  14.428   5.737  14.799
45421SOL    HW138160  14.440   5.658  14.852
45421SOL    HW238161  14.486   5.802  14.840
45422SOL     OW38162   9.450   0.477   3.366
45422SOL    HW138163   9.383   0.499   3.431
45422SOL    HW238164   9.437   0.542   3.296
45423SOL     OW38165  13.714   8.324  12.763
45423SOL    HW138166  13.758   8.241  12.742
45423SOL    HW238167  13.716   8.328  12.859
45424SOL     OW38168   7.034  13.630  11.780
45424SOL    HW138169   7.018  13.634  11.874
45424SOL    HW238170   6.959  13.583  11.745
45425SOL     OW38171  11.346  10.702   9.933
45425SOL    HW138172  11.373  10.616   9.965
45425SOL    HW238173  11.411  10.724   9.867
45426SOL     OW38174   4.136   2.296   2.166
45426SOL    HW138175   4.206   2.356   2.141
45426SOL    HW238176   4.057   2.332   2.125
45427SOL     OW38177   6.358   7.818  11.129
45427SOL    HW138178   6.378   7.779  11.044
45427SOL    HW238179   6.439   7.808  11.180
45428SOL     OW38180  10.137  14.784  13.200
45428SOL    HW138181  10.167  14.770  13.110
45428SOL    HW238182  10.205  14.837  13.240
45429SOL     OW38183  11.255   0.985   4.013
45429SOL    HW138184  11.235   0.895   3.987
45429SOL    HW238185  11.271   0.980   4.108
45430SOL     OW38186  13.334   7.475  12.979
45430SOL    HW138187  13.325   7.381  12.959
45430SOL    HW238188  13.338   7.517  12.893
45431SOL     OW38189  12.217   6.517  14.426
45431SOL    HW138190  12.153   6.535  14.357
45431SOL    HW238191  12.253   6.432  14.404
45432SOL     OW38192   9.252   3.068   9.369
45432SOL    HW138193   9.331   3.065   9.316
45432SOL    HW238194   9.283   3.080   9.459
45433SOL     OW38195   7.134   3.839   3.070
45433SOL    HW138196   7.127   3.845   3.165
45433SOL    HW238197   7.189   3.763   3.054
45434SOL     OW38198   2.666   9.115  12.589
45434SOL    HW138199   2.614   9.096  12.667
45434SOL    HW238200   2.753   9.134  12.622
45435SOL     OW38201   2.627   9.295   7.893
45435SOL    HW138202   2.690   9.275   7.823
45435SOL    HW238203   2.637   9.223   7.955
45436SOL     OW38204   2.493   4.692   4.079
45436SOL    HW138205   2.553   4.625   4.044
45436SOL    HW238206   2.529   4.712   4.166
45437SOL     OW38207  12.071  12.114  11.759
45437SOL    HW138208  12.126  12.043  11.725
45437SOL    HW238209  11.993  12.112  11.703
45438SOL     OW38210   5.550   2.383  11.111
45438SOL    HW138211   5.599   2.389  11.194
45438SOL    HW238212   5.464   2.351  11.137
45439SOL     OW38213  14.726  12.953   3.913
45439SOL    HW138214  14.771  12.934   3.831
45439SOL    HW238215  14.695  12.868   3.944
45440SOL     OW38216   2.650   3.240   4.845
45440SOL    HW138217   2.616   3.315   4.893
45440SOL    HW238218   2.602   3.241   4.762
45441SOL     OW38219  11.348   3.611   5.461
45441SOL    HW138220  11.258   3.604   5.431
45441SOL    HW238221  11.390   3.531   5.428
45442SOL     OW38222   6.035   2.380   3.413
45442SOL    HW138223   6.056   2.363   3.321
45442SOL    HW238224   5.977   2.308   3.437
45443SOL     OW38225  11.539  14.051  14.232
45443SOL    HW138226  11.593  14.080  14.305
45443SOL    HW238227  11.461  14.013  14.272
45444SOL     OW38228  10.758  13.004  13.342
45444SOL    HW138229  10.721  13.079  13.295
45444SOL    HW238230  10.797  12.950  13.274
45445SOL     OW38231   8.138   3.682   1.055
45445SOL    HW138232   8.064   3.713   1.107
45445SOL    HW238233   8.208   3.745   1.073
45446SOL     OW38234  11.419   9.472  10.060
45446SOL    HW138235  11.454   9.478  10.149
45446SOL    HW238236  11.428   9.379  10.038
45447SOL     OW38237   9.124  10.142  13.372
45447SOL    HW138238   9.103  10.148  13.279
45447SOL    HW238239   9.052  10.185  13.417
45448SOL     OW38240   3.763   6.142  10.401
45448SOL    HW138241   3.857   6.158  10.412
45448SOL    HW238242   3.748   6.057  10.443
45449SOL     OW38243   5.268  13.818   7.777
45449SOL    HW138244   5.264  13.741   7.833
45449SOL    HW238245   5.263  13.892   7.837
45450SOL     OW38246   6.942   9.493   7.013
45450SOL    HW138247   6.856   9.453   6.998
45450SOL    HW238248   6.922   9.583   7.041
45451SOL     OW38249   5.287  13.215  13.935
45451SOL    HW138250   5.330  13.297  13.958
45451SOL    HW238251   5.357  13.161  13.898
45452SOL     OW38252  13.746  12.532   6.316
45452SOL    HW138253  13.777  12.617   6.346
45452SOL    HW238254  13.658  12.549   6.282
45453SOL     OW38255   9.139  13.076   9.902
45453SOL    HW138256   9.100  13.079   9.815
45453SOL    HW238257   9.081  13.129   9.956
45454SOL     OW38258  14.068   8.224   1.611
45454SOL    HW138259  14.106   8.298   1.658
45454SOL    HW238260  13.974   8.240   1.614
45455SOL     OW38261   6.360   8.623   8.388
45455SOL    HW138262   6.388   8.654   8.474
45455SOL    HW238263   6.346   8.702   8.337
45456SOL     OW38264   6.730  14.639   2.266
45456SOL    HW138265   6.758  14.611   2.179
45456SOL    HW238266   6.643  14.675   2.252
45457SOL     OW38267  12.047  12.946   8.569
45457SOL    HW138268  11.953  12.941   8.582
45457SOL    HW238269  12.058  12.987   8.483
45458SOL     OW38270   5.796   1.068  10.229
45458SOL    HW138271   5.718   1.116  10.257
45458SOL    HW238272   5.813   1.006  10.300
45459SOL     OW38273  11.821   0.577   0.878
45459SOL    HW138274  11.873   0.502   0.906
45459SOL    HW238275  11.744   0.577   0.935
45460SOL     OW38276   8.299  10.370   7.802
45460SOL    HW138277   8.228  10.344   7.860
45460SOL    HW238278   8.272  10.338   7.716
45461SOL     OW38279   0.434   1.821  12.747
45461SOL    HW138280   0.372   1.870  12.693
45461SOL    HW238281   0.388   1.741  12.770
45462SOL     OW38282   8.298  13.282  12.729
45462SOL    HW138283   8.209  13.317  12.724
45462SOL    HW238284   8.290  13.203  12.781
45463SOL     OW38285   5.580   6.404  14.633
45463SOL    HW138286   5.507   6.410  14.571
45463SOL    HW238287   5.548   6.346  14.702
45464SOL     OW38288  14.183   5.031  14.067
45464SOL    HW138289  14.220   4.943  14.069
45464SOL    HW238290  14.112   5.029  14.131
45465SOL     OW38291  14.638  14.657   5.275
45465SOL    HW138292  14.556  14.623   5.241
45465SOL    HW238293  14.667  14.592   5.339
45466SOL     OW38294   6.281  10.999   5.392
45466SOL    HW138295   6.331  11.033   5.318
45466SOL    HW238296   6.268  11.075   5.450
45467SOL     OW38297   7.513  13.555   3.330
45467SOL    HW138298   7.599  13.530   3.363
45467SOL    HW238299   7.530  13.595   3.245
45468SOL     OW38300  10.226   1.311   8.691
45468SOL    HW138301  10.221   1.278   8.602
45468SOL    HW238302  10.226   1.406   8.682
45469SOL     OW38303   1.890  12.123   6.416
45469SOL    HW138304   1.878  12.068   6.494
45469SOL    HW238305   1.953  12.074   6.362
45470SOL     OW38306   5.257   4.138   1.679
45470SOL    HW138307   5.338   4.180   1.649
45470SOL    HW238308   5.195   4.152   1.608
45471SOL     OW38309   5.373   2.678  12.202
45471SOL    HW138310   5.425   2.612  12.248
45471SOL    HW238311   5.322   2.720  12.272
45472SOL     OW38312  10.972  13.466   0.009
45472SOL    HW138313  10.905  13.402   0.034
45472SOL    HW238314  10.981  13.522   0.085
45473SOL     OW38315   4.889   3.774   6.089
45473SOL    HW138316   4.960   3.777   6.025
45473SOL    HW238317   4.810   3.792   6.038
45474SOL     OW38318   5.824  10.166   0.273
45474SOL    HW138319   5.894  10.225   0.302
45474SOL    HW238320   5.865  10.080   0.270
45475SOL     OW38321   2.748   6.705  14.192
45475SOL    HW138322   2.753   6.667  14.279
45475SOL    HW238323   2.839   6.727  14.170
45476SOL     OW38324   0.279   2.010   9.426
45476SOL    HW138325   0.327   1.928   9.415
45476SOL    HW238326   0.255   2.011   9.518
45477SOL     OW38327   3.959   0.686   4.591
45477SOL    HW138328   4.028   0.669   4.527
45477SOL    HW238329   3.907   0.757   4.552
45478SOL     OW38330   4.928  10.006  13.987
45478SOL    HW138331   4.963   9.920  14.009
45478SOL    HW238332   4.877   9.992  13.907
45479SOL     OW38333   8.146   2.463   2.402
45479SOL    HW138334   8.207   2.412   2.454
45479SOL    HW238335   8.174   2.554   2.413
45480SOL     OW38336   1.367   7.696   7.621
45480SOL    HW138337   1.455   7.696   7.584
45480SOL    HW238338   1.377   7.652   7.706
45481SOL     OW38339   8.463   2.273  14.553
45481SOL    HW138340   8.493   2.223  14.477
45481SOL    HW238341   8.496   2.225  14.629
45482SOL     OW38342  10.237   7.325   4.126
45482SOL    HW138343  10.266   7.264   4.057
45482SOL    HW238344  10.145   7.305   4.138
45483SOL     OW38345   3.531  14.642   8.736
45483SOL    HW138346   3.506  14.687   8.655
45483SOL    HW238347   3.469  14.570   8.744
45484SOL     OW38348   0.704   5.226   1.488
45484SOL    HW138349   0.765   5.189   1.424
45484SOL    HW238350   0.758   5.240   1.566
45485SOL     OW38351   6.307   5.048   5.971
45485SOL    HW138352   6.264   5.079   6.050
45485SOL    HW238353   6.377   5.111   5.954
45486SOL     OW38354   6.602   4.111  12.844
45486SOL    HW138355   6.526   4.168  12.837
45486SOL    HW238356   6.637   4.127  12.932
45487SOL     OW38357   2.309   4.697   3.285
45487SOL    HW138358   2.337   4.776   3.330
45487SOL    HW238359   2.384   4.638   3.292
45488SOL     OW38360   8.713   3.255   9.718
45488SOL    HW138361   8.628   3.245   9.760
45488SOL    HW238362   8.775   3.258   9.790
45489SOL     OW38363  14.303   1.074   6.751
45489SOL    HW138364  14.380   1.047   6.800
45489SOL    HW238365  14.229   1.048   6.805
45490SOL     OW38366  10.789   4.408   3.457
45490SOL    HW138367  10.801   4.485   3.402
45490SOL    HW238368  10.875   4.367   3.460
45491SOL     OW38369   7.770   2.543  10.457
45491SOL    HW138370   7.697   2.491  10.489
45491SOL    HW238371   7.847   2.489  10.473
45492SOL     OW38372  14.848   7.945   2.547
45492SOL    HW138373  14.860   7.994   2.466
45492SOL    HW238374   0.011   7.999   2.614
45493SOL     OW38375   5.103   7.078   8.021
45493SOL    HW138376   5.176   7.138   8.008
45493SOL    HW238377   5.061   7.072   7.935
45494SOL     OW38378   1.013   4.147  12.224
45494SOL    HW138379   0.962   4.205  12.280
45494SOL    HW238380   0.948   4.099  12.172
45495SOL     OW38381   9.198   8.917   2.603
45495SOL    HW138382   9.104   8.934   2.592
45495SOL    HW238383   9.239   9.003   2.595
45496SOL     OW38384   7.978   0.217   9.849
45496SOL    HW138385   7.956   0.175   9.932
45496SOL    HW238386   7.931   0.166   9.783
45497SOL     OW38387  14.578  12.071  13.832
45497SOL    HW138388  14.655  12.125  13.849
45497SOL    HW238389  14.560  12.028  13.916
45498SOL     OW38390  14.479   3.023   1.351
45498SOL    HW138391  14.449   3.086   1.286
45498SOL    HW238392  14.441   3.054   1.434
45499SOL     OW38393   3.743  14.554   8.207
45499SOL    HW138394   3.823  14.513   8.239
45499SOL    HW238395   3.721  14.505   8.128
45500SOL     OW38396   2.739  12.899   1.187
45500SOL    HW138397   2.676  12.928   1.121
45500SOL    HW238398   2.710  12.942   1.268
45501SOL     OW38399  10.915   8.379   2.431
45501SOL    HW138400  10.893   8.389   2.524
45501SOL    HW238401  10.970   8.455   2.412
45502SOL     OW38402  12.363   7.905   4.127
45502SOL    HW138403  12.429   7.851   4.084
45502SOL    HW238404  12.386   7.995   4.102
45503SOL     OW38405   4.738   3.439   5.574
45503SOL    HW138406   4.661   3.383   5.565
45503SOL    HW238407   4.800   3.406   5.508
45504SOL     OW38408   7.311   5.565  12.453
45504SOL    HW138409   7.296   5.495  12.389
45504SOL    HW238410   7.376   5.529  12.513
45505SOL     OW38411   8.333   4.425  10.115
45505SOL    HW138412   8.347   4.338  10.153
45505SOL    HW238413   8.256   4.415  10.059
45506SOL     OW38414   6.948   9.305  11.639
45506SOL    HW138415   7.016   9.370  11.621
45506SOL    HW238416   6.934   9.311  11.733
45507SOL     OW38417   9.752   3.948  10.916
45507SOL    HW138418   9.845   3.965  10.899
45507SOL    HW238419   9.726   4.019  10.975
45508SOL     OW38420  11.454   3.180   4.964
45508SOL    HW138421  11.510   3.129   4.906
45508SOL    HW238422  11.509   3.201   5.039
45509SOL     OW38423   4.741   9.018  13.741
45509SOL    HW138424   4.824   9.007  13.786
45509SOL    HW238425   4.690   9.076  13.797
45510SOL     OW38426  14.316  14.367  10.277
45510SOL    HW138427  14.258  14.334  10.209
45510SOL    HW238428  14.257  14.394  10.348
45511SOL     OW38429   7.535   2.689   0.524
45511SOL    HW138430   7.592   2.675   0.448
45511SOL    HW238431   7.504   2.601   0.547
45512SOL     OW38432  14.732  11.441   7.630
45512SOL    HW138433  14.709  11.437   7.538
45512SOL    HW238434  14.707  11.356   7.665
45513SOL     OW38435  13.660   4.642   2.329
45513SOL    HW138436  13.694   4.707   2.390
45513SOL    HW238437  13.625   4.572   2.384
45514SOL     OW38438   8.240   1.792   4.996
45514SOL    HW138439   8.241   1.696   5.001
45514SOL    HW238440   8.250   1.821   5.086
45515SOL     OW38441  12.113   2.563   4.748
45515SOL    HW138442  12.097   2.531   4.659
45515SOL    HW238443  12.182   2.506   4.781
45516SOL     OW38444   6.183  12.593  10.375
45516SOL    HW138445   6.112  12.574  10.437
45516SOL    HW238446   6.151  12.559  10.291
45517SOL     OW38447  10.228   9.191   2.845
45517SOL    HW138448  10.218   9.274   2.891
45517SOL    HW238449  10.138   9.162   2.827
45518SOL     OW38450   4.248   2.205  12.678
45518SOL    HW138451   4.310   2.261  12.724
45518SOL    HW238452   4.184   2.180  12.745
45519SOL     OW38453   9.767   1.011   5.851
45519SOL    HW138454   9.845   0.958   5.832
45519SOL    HW238455   9.700   0.947   5.874
45520SOL     OW38456  13.711   5.520   1.852
45520SOL    HW138457  13.678   5.431   1.839
45520SOL    HW238458  13.774   5.512   1.924
45521SOL     OW38459   3.378   4.410   1.218
45521SOL    HW138460   3.383   4.324   1.260
45521SOL    HW238461   3.412   4.471   1.283
45522SOL     OW38462   1.310  12.605   3.886
45522SOL    HW138463   1.340  12.647   3.805
45522SOL    HW238464   1.391  12.584   3.933
45523SOL     OW38465   8.404  10.525   8.216
45523SOL    HW138466   8.473  10.528   8.149
45523SOL    HW238467   8.323  10.541   8.168
45524SOL     OW38468   5.346   4.627   8.663
45524SOL    HW138469   5.402   4.703   8.648
45524SOL    HW238470   5.405   4.559   8.695
45525SOL     OW38471   8.706   9.367   8.370
45525SOL    HW138472   8.780   9.426   8.383
45525SOL    HW238473   8.654   9.376   8.450
45526SOL     OW38474   8.373  12.555   7.138
45526SOL    HW138475   8.334  12.468   7.125
45526SOL    HW238476   8.340  12.583   7.223
45527SOL     OW38477   6.567   2.623   9.042
45527SOL    HW138478   6.611   2.633   8.957
45527SOL    HW238479   6.612   2.685   9.099
45528SOL     OW38480   6.234   7.162  11.121
45528SOL    HW138481   6.316   7.128  11.158
45528SOL    HW238482   6.239   7.140  11.028
45529SOL     OW38483  10.439  13.797  10.838
45529SOL    HW138484  10.529  13.794  10.805
45529SOL    HW238485  10.423  13.709  10.871
45530SOL     OW38486   2.940   3.335   8.131
45530SOL    HW138487   2.995   3.258   8.143
45530SOL    HW238488   2.859   3.315   8.176
45531SOL     OW38489   5.971   0.186   6.357
45531SOL    HW138490   5.970   0.100   6.316
45531SOL    HW238491   5.936   0.246   6.291
45532SOL     OW38492   9.344  14.699   0.590
45532SOL    HW138493   9.405  14.653   0.531
45532SOL    HW238494   9.278  14.633   0.612
45533SOL     OW38495  12.160   9.682   0.526
45533SOL    HW138496  12.175   9.603   0.473
45533SOL    HW238497  12.080   9.720   0.489
45534SOL     OW38498   6.717   3.665   6.583
45534SOL    HW138499   6.696   3.758   6.572
45534SOL    HW238500   6.809   3.665   6.611
45535SOL     OW38501  12.756   6.435   0.427
45535SOL    HW138502  12.766   6.448   0.522
45535SOL    HW238503  12.846   6.422   0.396
45536SOL     OW38504  13.374  14.641  12.438
45536SOL    HW138505  13.316  14.577  12.479
45536SOL    HW238506  13.360  14.721  12.489
45537SOL     OW38507   6.215   4.754  11.572
45537SOL    HW138508   6.157   4.729  11.644
45537SOL    HW238509   6.288   4.691  11.577
45538SOL     OW38510  10.573   5.845  11.465
45538SOL    HW138511  10.522   5.851  11.384
45538SOL    HW238512  10.538   5.768  11.509
45539SOL     OW38513   8.403   2.107  10.540
45539SOL    HW138514   8.400   2.021  10.498
45539SOL    HW238515   8.376   2.091  10.630
45540SOL     OW38516   1.053   8.325  11.772
45540SOL    HW138517   1.147   8.336  11.781
45540SOL    HW238518   1.034   8.349  11.682
45541SOL     OW38519  12.738  11.923   2.457
45541SOL    HW138520  12.783  11.966   2.530
45541SOL    HW238521  12.717  11.836   2.490
45542SOL     OW38522   6.873   6.951   5.961
45542SOL    HW138523   6.898   7.039   5.936
45542SOL    HW238524   6.952   6.898   5.948
45543SOL     OW38525   1.379   2.858  13.809
45543SOL    HW138526   1.335   2.890  13.731
45543SOL    HW238527   1.459   2.910  13.816
45544SOL     OW38528   2.268   1.539  10.080
45544SOL    HW138529   2.307   1.610  10.029
45544SOL    HW238530   2.240   1.475  10.015
45545SOL     OW38531   1.188   6.335   2.522
45545SOL    HW138532   1.220   6.402   2.461
45545SOL    HW238533   1.212   6.368   2.608
45546SOL     OW38534  12.206   4.991   0.419
45546SOL    HW138535  12.193   5.085   0.411
45546SOL    HW238536  12.296   4.981   0.450
45547SOL     OW38537  12.227   3.386   8.823
45547SOL    HW138538  12.295   3.433   8.871
45547SOL    HW238539  12.250   3.293   8.833
45548SOL     OW38540   8.694   1.829  11.913
45548SOL    HW138541   8.650   1.758  11.960
45548SOL    HW238542   8.660   1.909  11.953
45549SOL     OW38543  12.736  14.868   8.051
45549SOL    HW138544  12.814  14.863   8.106
45549SOL    HW238545  12.767   0.021   7.967
45550SOL     OW38546   5.633   1.640  13.519
45550SOL    HW138547   5.550   1.674  13.487
45550SOL    HW238548   5.623   1.545  13.515
45551SOL     OW38549  10.375   0.622  10.787
45551SOL    HW138550  10.453   0.588  10.832
45551SOL    HW238551  10.395   0.713  10.769
45552SOL     OW38552   1.149   2.307   6.408
45552SOL    HW138553   1.218   2.245   6.433
45552SOL    HW238554   1.089   2.308   6.483
45553SOL     OW38555  13.158  13.779  14.331
45553SOL    HW138556  13.104  13.746  14.403
45553SOL    HW238557  13.095  13.810  14.266
45554SOL     OW38558  13.273   7.899   2.644
45554SOL    HW138559  13.251   7.882   2.552
45554SOL    HW238560  13.365   7.927   2.641
45555SOL     OW38561   0.157  11.840  12.562
45555SOL    HW138562   0.119  11.926  12.545
45555SOL    HW238563   0.161  11.798  12.476
45556SOL     OW38564   3.540   5.658   5.185
45556SOL    HW138565   3.606   5.656   5.255
45556SOL    HW238566   3.508   5.568   5.180
45557SOL     OW38567   7.922  14.380  13.265
45557SOL    HW138568   8.004  14.363  13.218
45557SOL    HW238569   7.853  14.359  13.202
45558SOL     OW38570   6.470   6.071   0.622
45558SOL    HW138571   6.511   6.051   0.706
45558SOL    HW238572   6.412   5.996   0.606
45559SOL     OW38573   5.251   4.001   4.188
45559SOL    HW138574   5.237   4.074   4.127
45559SOL    HW238575   5.243   4.041   4.275
45560SOL     OW38576  11.159  13.951   7.996
45560SOL    HW138577  11.190  14.025   8.048
45560SOL    HW238578  11.197  13.874   8.039
45561SOL     OW38579   0.944  11.974   3.184
45561SOL    HW138580   0.925  11.984   3.091
45561SOL    HW238581   1.004  12.046   3.204
45562SOL     OW38582   1.556   2.521  12.766
45562SOL    HW138583   1.469   2.495  12.734
45562SOL    HW238584   1.538   2.567  12.848
45563SOL     OW38585   4.648   1.923   1.216
45563SOL    HW138586   4.601   1.919   1.300
45563SOL    HW238587   4.673   2.015   1.208
45564SOL     OW38588   6.553   1.907   1.748
45564SOL    HW138589   6.559   1.931   1.840
45564SOL    HW238590   6.533   1.814   1.749
45565SOL     OW38591   1.029  10.994   5.451
45565SOL    HW138592   1.032  10.965   5.360
45565SOL    HW238593   0.949  10.954   5.486
45566SOL     OW38594   7.851   4.396   4.180
45566SOL    HW138595   7.923   4.391   4.243
45566SOL    HW238596   7.892   4.425   4.099
45567SOL     OW38597   6.589   0.914   5.136
45567SOL    HW138598   6.514   0.952   5.182
45567SOL    HW238599   6.561   0.826   5.111
45568SOL     OW38600   6.991   4.593  14.863
45568SOL    HW138601   7.022   4.571   0.071
45568SOL    HW238602   7.070   4.617  14.815
45569SOL     OW38603  13.162   8.925   3.572
45569SOL    HW138604  13.220   8.936   3.647
45569SOL    HW238605  13.074   8.921   3.610
45570SOL     OW38606   1.314   9.922   4.712
45570SOL    HW138607   1.297   9.829   4.727
45570SOL    HW238608   1.336   9.956   4.799
45571SOL     OW38609   4.214   9.440   9.165
45571SOL    HW138610   4.132   9.397   9.137
45571SOL    HW238611   4.186   9.524   9.201
45572SOL     OW38612   4.994   8.130   4.724
45572SOL    HW138613   4.933   8.067   4.687
45572SOL    HW238614   4.972   8.133   4.817
45573SOL     OW38615  10.427  10.685   2.876
45573SOL    HW138616  10.400  10.629   2.804
45573SOL    HW238617  10.375  10.655   2.950
45574SOL     OW38618   3.288   6.282  11.447
45574SOL    HW138619   3.308   6.277  11.541
45574SOL    HW238620   3.206   6.235  11.438
45575SOL     OW38621   4.859  10.942   9.262
45575SOL    HW138622   4.794  10.886   9.304
45575SOL    HW238623   4.833  11.031   9.285
45576SOL     OW38624   1.278  13.452  10.201
45576SOL    HW138625   1.276  13.407  10.285
45576SOL    HW238626   1.187  13.477  10.184
45577SOL     OW38627   0.895   8.448   0.055
45577SOL    HW138628   0.851   8.493   0.128
45577SOL    HW238629   0.955   8.513   0.019
45578SOL     OW38630  14.845  13.869  14.875
45578SOL    HW138631  14.786  13.796  14.855
45578SOL    HW238632  14.808  13.944  14.829
45579SOL     OW38633   8.011   0.554   1.898
45579SOL    HW138634   8.096   0.596   1.891
45579SOL    HW238635   8.025   0.466   1.863
45580SOL     OW38636   0.921   8.706   2.860
45580SOL    HW138637   1.004   8.753   2.870
45580SOL    HW238638   0.861   8.751   2.919
45581SOL     OW38639  13.898   1.311   0.014
45581SOL    HW138640  13.844   1.240  14.858
45581SOL    HW238641  13.837   1.384   0.026
45582SOL     OW38642  11.586  11.238   1.679
45582SOL    HW138643  11.587  11.282   1.594
45582SOL    HW238644  11.500  11.259   1.716
45583SOL     OW38645   0.269   3.803  11.746
45583SOL    HW138646   0.233   3.775  11.661
45583SOL    HW238647   0.204   3.863  11.782
45584SOL     OW38648   7.702   3.734  12.406
45584SOL    HW138649   7.664   3.647  12.423
45584SOL    HW238650   7.698   3.778  12.491
45585SOL     OW38651  12.483   0.548   2.500
45585SOL    HW138652  12.434   0.614   2.549
45585SOL    HW238653  12.456   0.465   2.538
45586SOL     OW38654   7.424   0.310   1.343
45586SOL    HW138655   7.347   0.317   1.286
45586SOL    HW238656   7.392   0.337   1.429
45587SOL     OW38657   1.037  10.335   5.681
45587SOL    HW138658   0.991  10.261   5.641
45587SOL    HW238659   1.122  10.338   5.636
45588SOL     OW38660  12.205  13.831   2.905
45588SOL    HW138661  12.119  13.792   2.918
45588SOL    HW238662  12.252  13.768   2.851
45589SOL     OW38663   4.983  11.280  14.338
45589SOL    HW138664   4.997  11.260  14.430
45589SOL    HW238665   5.031  11.361  14.323
45590SOL     OW38666   1.426   9.479   1.054
45590SOL    HW138667   1.426   9.568   1.019
45590SOL    HW238668   1.493   9.433   1.003
45591SOL     OW38669   6.079  12.071   6.005
45591SOL    HW138670   6.060  11.980   5.981
45591SOL    HW238671   6.159  12.066   6.058
45592SOL     OW38672   5.657   7.082   2.800
45592SOL    HW138673   5.744   7.059   2.767
45592SOL    HW238674   5.635   7.164   2.755
45593SOL     OW38675  11.607   3.624  11.060
45593SOL    HW138676  11.644   3.674  11.132
45593SOL    HW238677  11.645   3.664  10.981
45594SOL     OW38678  12.672  11.016   0.643
45594SOL    HW138679  12.627  11.070   0.708
45594SOL    HW238680  12.609  10.947   0.621
45595SOL     OW38681  14.861   3.982   7.708
45595SOL    HW138682   0.029   3.996   7.626
45595SOL    HW238683  14.772   4.011   7.689
45596SOL     OW38684   3.216   5.678  10.647
45596SOL    HW138685   3.216   5.585  10.622
45596SOL    HW238686   3.240   5.723  10.566
45597SOL     OW38687   9.068   0.358   8.854
45597SOL    HW138688   9.082   0.295   8.784
45597SOL    HW238689   9.152   0.404   8.862
45598SOL     OW38690   1.704  12.382  11.296
45598SOL    HW138691   1.625  12.331  11.314
45598SOL    HW238692   1.676  12.447  11.232
45599SOL     OW38693   4.415  11.691   7.556
45599SOL    HW138694   4.325  11.724   7.556
45599SOL    HW238695   4.431  11.667   7.465
45600SOL     OW38696  10.377   0.345  11.347
45600SOL    HW138697  10.297   0.396  11.334
45600SOL    HW238698  10.349   0.254  11.334
45601SOL     OW38699   5.282  10.722   9.284
45601SOL    HW138700   5.370  10.742   9.317
45601SOL    HW238701   5.225  10.782   9.331
45602SOL     OW38702  13.230   0.089   6.131
45602SOL    HW138703  13.140   0.060   6.122
45602SOL    HW238704  13.260   0.102   6.041
45603SOL     OW38705  13.966   1.623   6.160
45603SOL    HW138706  13.961   1.564   6.084
45603SOL    HW238707  13.875   1.644   6.179
45604SOL     OW38708   8.205   1.992  11.193
45604SOL    HW138709   8.296   2.017  11.205
45604SOL    HW238710   8.209   1.905  11.152
45605SOL     OW38711  11.413  14.388   1.951
45605SOL    HW138712  11.380  14.319   1.893
45605SOL    HW238713  11.508  14.375   1.952
45606SOL     OW38714  12.329   4.281  10.166
45606SOL    HW138715  12.362   4.197  10.134
45606SOL    HW238716  12.272   4.313  10.096
45607SOL     OW38717   1.944   8.240  12.829
45607SOL    HW138718   1.989   8.237  12.744
45607SOL    HW238719   1.996   8.182  12.885
45608SOL     OW38720   1.212   0.548   1.258
45608SOL    HW138721   1.117   0.551   1.248
45608SOL    HW238722   1.227   0.569   1.350
45609SOL     OW38723   1.121   0.566  12.010
45609SOL    HW138724   1.173   0.562  12.090
45609SOL    HW238725   1.169   0.514  11.947
45610SOL     OW38726   7.739   1.313   3.325
45610SOL    HW138727   7.715   1.391   3.374
45610SOL    HW238728   7.657   1.264   3.315
45611SOL     OW38729  13.977   5.193   0.912
45611SOL    HW138730  13.927   5.111   0.910
45611SOL    HW238731  13.912   5.259   0.939
45612SOL     OW38732   9.174   1.321  14.187
45612SOL    HW138733   9.222   1.240  14.200
45612SOL    HW238734   9.150   1.320  14.094
45613SOL     OW38735   1.236  10.707   5.223
45613SOL    HW138736   1.328  10.681   5.235
45613SOL    HW238737   1.234  10.799   5.249
45614SOL     OW38738   4.605   9.185   2.592
45614SOL    HW138739   4.584   9.268   2.549
45614SOL    HW238740   4.558   9.119   2.541
45615SOL     OW38741  11.832  14.624   5.266
45615SOL    HW138742  11.829  14.532   5.240
45615SOL    HW238743  11.868  14.623   5.354
45616SOL     OW38744   1.968   8.239   4.782
45616SOL    HW138745   2.051   8.233   4.830
45616SOL    HW238746   1.993   8.264   4.693
45617SOL     OW38747   4.626   9.364   3.976
45617SOL    HW138748   4.551   9.305   3.968
45617SOL    HW238749   4.692   9.326   3.917
45618SOL     OW38750  10.985   8.574   6.980
45618SOL    HW138751  11.057   8.631   6.953
45618SOL    HW238752  10.934   8.560   6.900
45619SOL     OW38753   4.007   6.551   3.683
45619SOL    HW138754   4.028   6.555   3.589
45619SOL    HW238755   3.926   6.602   3.691
45620SOL     OW38756   9.182   4.582   9.675
45620SOL    HW138757   9.194   4.497   9.633
45620SOL    HW238758   9.228   4.644   9.619
45621SOL     OW38759   6.072   3.638  10.284
45621SOL    HW138760   6.048   3.710  10.342
45621SOL    HW238761   5.997   3.628  10.225
45622SOL     OW38762   8.568   9.205  11.949
45622SOL    HW138763   8.587   9.152  12.026
45622SOL    HW238764   8.645   9.195  11.893
45623SOL     OW38765   8.931   9.380   9.860
45623SOL    HW138766   8.903   9.384   9.951
45623SOL    HW238767   8.997   9.310   9.859
45624SOL     OW38768   9.481   5.711   3.519
45624SOL    HW138769   9.435   5.628   3.533
45624SOL    HW238770   9.433   5.753   3.447
45625SOL     OW38771  14.292   4.956   6.023
45625SOL    HW138772  14.369   4.931   5.971
45625SOL    HW238773  14.244   5.017   5.967
45626SOL     OW38774   3.751  12.163   5.284
45626SOL    HW138775   3.738  12.185   5.376
45626SOL    HW238776   3.747  12.247   5.239
45627SOL     OW38777   2.177  11.478   5.118
45627SOL    HW138778   2.146  11.556   5.164
45627SOL    HW238779   2.197  11.416   5.187
45628SOL     OW38780   9.519   8.912   0.993
45628SOL    HW138781   9.427   8.916   1.019
45628SOL    HW238782   9.539   9.001   0.963
45629SOL     OW38783   4.691   1.304   0.206
45629SOL    HW138784   4.780   1.338   0.217
45629SOL    HW238785   4.704   1.212   0.181
45630SOL     OW38786  13.851   8.903   6.015
45630SOL    HW138787  13.869   8.829   6.072
45630SOL    HW238788  13.884   8.876   5.929
45631SOL     OW38789   2.477   3.657   9.819
45631SOL    HW138790   2.481   3.569   9.781
45631SOL    HW238791   2.566   3.691   9.809
45632SOL     OW38792   8.072   0.142   0.624
45632SOL    HW138793   8.108   0.128   0.537
45632SOL    HW238794   7.993   0.195   0.610
45633SOL     OW38795   8.621  12.098   7.041
45633SOL    HW138796   8.604  12.013   7.002
45633SOL    HW238797   8.566  12.159   6.991
45634SOL     OW38798   9.424   9.856  11.553
45634SOL    HW138799   9.407   9.837  11.461
45634SOL    HW238800   9.518   9.875  11.557
45635SOL     OW38801   5.247   5.302   4.997
45635SOL    HW138802   5.261   5.397   5.004
45635SOL    HW238803   5.208   5.290   4.910
45636SOL     OW38804   4.821  14.844   5.368
45636SOL    HW138805   4.910  14.863   5.395
45636SOL    HW238806   4.777   0.049   5.368
45637SOL     OW38807   1.848   6.475   3.141
45637SOL    HW138808   1.868   6.546   3.201
45637SOL    HW238809   1.889   6.501   3.059
45638SOL     OW38810   8.393   2.549   4.597
45638SOL    HW138811   8.403   2.632   4.550
45638SOL    HW238812   8.456   2.490   4.556
45639SOL     OW38813   6.979   8.836   1.406
45639SOL    HW138814   6.898   8.805   1.445
45639SOL    HW238815   7.047   8.811   1.469
45640SOL     OW38816   5.900  13.894   7.851
45640SOL    HW138817   5.859  13.833   7.913
45640SOL    HW238818   5.908  13.976   7.900
45641SOL     OW38819  10.619   9.673   7.789
45641SOL    HW138820  10.624   9.590   7.742
45641SOL    HW238821  10.701   9.718   7.766
45642SOL     OW38822   2.819   6.233  12.589
45642SOL    HW138823   2.857   6.149  12.615
45642SOL    HW238824   2.851   6.246  12.500
45643SOL     OW38825   4.815   9.429  14.164
45643SOL    HW138826   4.882   9.376  14.121
45643SOL    HW238827   4.796   9.383  14.245
45644SOL     OW38828   7.208   2.795   4.822
45644SOL    HW138829   7.170   2.869   4.869
45644SOL    HW238830   7.160   2.792   4.739
45645SOL     OW38831   3.024   9.619  14.578
45645SOL    HW138832   2.951   9.662  14.534
45645SOL    HW238833   3.093   9.615  14.512
45646SOL     OW38834   3.916  11.155  11.861
45646SOL    HW138835   3.903  11.070  11.818
45646SOL    HW238836   4.007  11.177  11.841
45647SOL     OW38837  12.003   5.807   2.567
45647SOL    HW138838  11.977   5.783   2.656
45647SOL    HW238839  11.927   5.853   2.532
45648SOL     OW38840   1.327   3.937   8.656
45648SOL    HW138841   1.361   3.901   8.738
45648SOL    HW238842   1.233   3.917   8.658
45649SOL     OW38843   4.390   7.983   1.781
45649SOL    HW138844   4.449   7.928   1.730
45649SOL    HW238845   4.438   7.999   1.863
45650SOL     OW38846   5.258   3.100   6.835
45650SOL    HW138847   5.229   3.025   6.888
45650SOL    HW238848   5.209   3.174   6.870
45651SOL     OW38849  11.046   4.713  11.048
45651SOL    HW138850  11.070   4.722  10.956
45651SOL    HW238851  10.953   4.688  11.046
45652SOL     OW38852   3.422   5.900   3.651
45652SOL    HW138853   3.346   5.940   3.610
45652SOL    HW238854   3.438   5.953   3.729
45653SOL     OW38855   1.188   9.163   8.554
45653SOL    HW138856   1.172   9.175   8.461
45653SOL    HW238857   1.282   9.147   8.560
45654SOL     OW38858   1.296  10.222   5.101
45654SOL    HW138859   1.275  10.309   5.069
45654SOL    HW238860   1.339  10.237   5.185
45655SOL     OW38861  13.448   0.491   2.846
45655SOL    HW138862  13.538   0.515   2.823
45655SOL    HW238863  13.457   0.444   2.929
45656SOL     OW38864  13.481   7.245   1.113
45656SOL    HW138865  13.474   7.340   1.126
45656SOL    HW238866  13.520   7.213   1.194
45657SOL     OW38867  10.258  11.744   0.680
45657SOL    HW138868  10.341  11.792   0.685
45657SOL    HW238869  10.284  11.652   0.672
45658SOL     OW38870   6.814   6.768   4.612
45658SOL    HW138871   6.887   6.707   4.621
45658SOL    HW238872   6.751   6.740   4.679
45659SOL     OW38873   6.673   3.344  12.123
45659SOL    HW138874   6.735   3.386  12.064
45659SOL    HW238875   6.632   3.416  12.171
45660SOL     OW38876   3.890   2.648   5.603
45660SOL    HW138877   3.808   2.598   5.608
45660SOL    HW238878   3.864   2.729   5.559
45661SOL     OW38879   6.311   8.206  11.847
45661SOL    HW138880   6.291   8.236  11.935
45661SOL    HW238881   6.322   8.286  11.796
45662SOL     OW38882   2.505   5.114  10.403
45662SOL    HW138883   2.546   5.141  10.485
45662SOL    HW238884   2.418   5.155  10.404
45663SOL     OW38885   1.152  12.900   4.755
45663SOL    HW138886   1.148  12.805   4.749
45663SOL    HW238887   1.245  12.921   4.755
45664SOL     OW38888  11.996   0.912   9.533
45664SOL    HW138889  11.958   0.850   9.471
45664SOL    HW238890  12.062   0.960   9.483
45665SOL     OW38891   1.718   2.287   3.218
45665SOL    HW138892   1.740   2.333   3.299
45665SOL    HW238893   1.785   2.316   3.156
45666SOL     OW38894   1.060  12.463   8.234
45666SOL    HW138895   1.073  12.543   8.285
45666SOL    HW238896   1.123  12.401   8.271
45667SOL     OW38897  13.246   7.238   9.597
45667SOL    HW138898  13.256   7.145   9.576
45667SOL    HW238899  13.152   7.254   9.590
45668SOL     OW38900   4.824   6.400   3.716
45668SOL    HW138901   4.784   6.377   3.632
45668SOL    HW238902   4.781   6.482   3.742
45669SOL     OW38903  12.296  10.266   3.612
45669SOL    HW138904  12.373  10.246   3.664
45669SOL    HW238905  12.321  10.245   3.522
45670SOL     OW38906   6.740   9.771   7.872
45670SOL    HW138907   6.775   9.687   7.902
45670SOL    HW238908   6.648   9.770   7.901
45671SOL     OW38909   9.344   4.773   1.608
45671SOL    HW138910   9.418   4.754   1.549
45671SOL    HW238911   9.373   4.743   1.694
45672SOL     OW38912   5.145  14.352  10.670
45672SOL    HW138913   5.197  14.415  10.721
45672SOL    HW238914   5.137  14.393  10.584
45673SOL     OW38915   9.296  11.434  13.726
45673SOL    HW138916   9.305  11.440  13.821
45673SOL    HW238917   9.206  11.460  13.709
45674SOL     OW38918   1.678  12.349   9.170
45674SOL    HW138919   1.690  12.424   9.229
45674SOL    HW238920   1.653  12.277   9.229
45675SOL     OW38921  12.781   9.586   9.861
45675SOL    HW138922  12.724   9.546   9.796
45675SOL    HW238923  12.726   9.594   9.939
45676SOL     OW38924  10.760   6.197   1.502
45676SOL    HW138925  10.770   6.182   1.408
45676SOL    HW238926  10.788   6.115   1.543
45677SOL     OW38927   0.786   8.952  14.664
45677SOL    HW138928   0.854   8.887  14.682
45677SOL    HW238929   0.754   8.929  14.577
45678SOL     OW38930   7.289   3.327  11.940
45678SOL    HW138931   7.346   3.321  12.016
45678SOL    HW238932   7.285   3.238  11.906
45679SOL     OW38933   3.948   6.666  11.117
45679SOL    HW138934   3.887   6.728  11.077
45679SOL    HW238935   3.900   6.629  11.191
45680SOL     OW38936   2.603   1.123   1.374
45680SOL    HW138937   2.639   1.096   1.458
45680SOL    HW238938   2.538   1.055   1.353
45681SOL     OW38939   5.679   4.022   0.454
45681SOL    HW138940   5.744   3.952   0.458
45681SOL    HW238941   5.608   3.986   0.402
45682SOL     OW38942  11.042   3.474  13.755
45682SOL    HW138943  11.031   3.391  13.710
45682SOL    HW238944  11.093   3.452  13.834
45683SOL     OW38945  13.545   9.285   7.003
45683SOL    HW138946  13.472   9.292   7.065
45683SOL    HW238947  13.529   9.204   6.955
45684SOL     OW38948   9.038  10.505  12.275
45684SOL    HW138949   9.029  10.443  12.202
45684SOL    HW238950   8.990  10.582  12.247
45685SOL     OW38951  11.376   2.029   4.357
45685SOL    HW138952  11.290   2.007   4.322
45685SOL    HW238953  11.425   2.060   4.281
45686SOL     OW38954   6.530   2.170   6.108
45686SOL    HW138955   6.613   2.217   6.109
45686SOL    HW238956   6.521   2.135   6.196
45687SOL     OW38957   2.658   4.930   3.116
45687SOL    HW138958   2.621   5.007   3.158
45687SOL    HW238959   2.587   4.895   3.062
45688SOL     OW38960   4.922  12.384   6.894
45688SOL    HW138961   4.948  12.368   6.803
45688SOL    HW238962   4.924  12.297   6.934
45689SOL     OW38963  10.597   3.329   8.531
45689SOL    HW138964  10.689   3.339   8.506
45689SOL    HW238965  10.548   3.364   8.456
45690SOL     OW38966   4.640   5.867  12.738
45690SOL    HW138967   4.603   5.814  12.809
45690SOL    HW238968   4.685   5.804  12.683
45691SOL     OW38969   1.115   7.453   2.959
45691SOL    HW138970   1.045   7.481   3.018
45691SOL    HW238971   1.135   7.531   2.906
45692SOL     OW38972   0.978  11.937  10.090
45692SOL    HW138973   1.062  11.933  10.134
45692SOL    HW238974   0.923  11.874  10.137
45693SOL     OW38975   4.869  12.667  10.628
45693SOL    HW138976   4.814  12.734  10.669
45693SOL    HW238977   4.920  12.630  10.700
45694SOL     OW38978   7.750  12.482  11.231
45694SOL    HW138979   7.708  12.502  11.315
45694SOL    HW238980   7.678  12.478  11.169
45695SOL     OW38981   1.830  10.840   2.469
45695SOL    HW138982   1.793  10.752   2.461
45695SOL    HW238983   1.887  10.835   2.545
45696SOL     OW38984  12.442   7.683   8.103
45696SOL    HW138985  12.463   7.697   8.011
45696SOL    HW238986  12.469   7.765   8.146
45697SOL     OW38987  13.691   6.198   5.962
45697SOL    HW138988  13.719   6.280   6.004
45697SOL    HW238989  13.648   6.149   6.031
45698SOL     OW38990   3.227  14.444   6.352
45698SOL    HW138991   3.155  14.502   6.329
45698SOL    HW238992   3.192  14.386   6.420
45699SOL     OW38993   9.294   8.487  11.110
45699SOL    HW138994   9.283   8.549  11.038
45699SOL    HW238995   9.232   8.417  11.091
45700SOL     OW38996   1.274   1.702   3.924
45700SOL    HW138997   1.257   1.785   3.880
45700SOL    HW238998   1.326   1.651   3.861
45701SOL     OW38999   8.698   7.184  10.487
45701SOL    HW139000   8.789   7.181  10.455
45701SOL    HW239001   8.688   7.272  10.524
45702SOL     OW39002   2.325  14.837   0.180
45702SOL    HW139003   2.401   0.015   0.194
45702SOL    HW239004   2.250   0.017   0.180
45703SOL     OW39005   6.054   1.005   1.546
45703SOL    HW139006   6.135   1.033   1.588
45703SOL    HW239007   6.019   1.085   1.507
45704SOL     OW39008   6.474   3.669   1.746
45704SOL    HW139009   6.480   3.678   1.651
45704SOL    HW239010   6.555   3.625   1.771
45705SOL     OW39011   5.877   9.808   7.217
45705SOL    HW139012   5.943   9.872   7.189
45705SOL    HW239013   5.799   9.861   7.235
45706SOL     OW39014   4.224  10.353  11.179
45706SOL    HW139015   4.149  10.316  11.132
45706SOL    HW239016   4.277  10.276  11.203
45707SOL     OW39017   9.849   1.436  11.775
45707SOL    HW139018   9.906   1.473  11.843
45707SOL    HW239019   9.891   1.352  11.753
45708SOL     OW39020   7.184   8.721   8.737
45708SOL    HW139021   7.190   8.803   8.786
45708SOL    HW239022   7.199   8.653   8.803
45709SOL     OW39023   4.880   7.264   7.050
45709SOL    HW139024   4.814   7.331   7.069
45709SOL    HW239025   4.913   7.239   7.136
45710SOL     OW39026   8.589   6.930   2.783
45710SOL    HW139027   8.525   6.987   2.826
45710SOL    HW239028   8.610   6.975   2.701
45711SOL     OW39029  12.073  11.507  14.852
45711SOL    HW139030  11.983  11.484  14.875
45711SOL    HW239031  12.127  11.455   0.033
45712SOL     OW39032   0.017   1.076   9.798
45712SOL    HW139033   0.021   1.097   9.892
45712SOL    HW239034  14.817   1.024   9.788
45713SOL     OW39035   3.516  12.402   4.729
45713SOL    HW139036   3.601  12.381   4.691
45713SOL    HW239037   3.530  12.485   4.775
45714SOL     OW39038  10.596   3.039   7.210
45714SOL    HW139039  10.655   3.094   7.158
45714SOL    HW239040  10.645   3.023   7.291
45715SOL     OW39041  14.384   2.169   1.634
45715SOL    HW139042  14.384   2.079   1.603
45715SOL    HW239043  14.329   2.216   1.572
45716SOL     OW39044   5.280   0.313  13.607
45716SOL    HW139045   5.354   0.266  13.645
45716SOL    HW239046   5.204   0.257  13.625
45717SOL     OW39047   3.079  13.781   9.428
45717SOL    HW139048   3.126  13.859   9.454
45717SOL    HW239049   3.133  13.708   9.459
45718SOL     OW39050   4.051   5.139   4.954
45718SOL    HW139051   3.976   5.087   4.927
45718SOL    HW239052   4.124   5.078   4.953
45719SOL     OW39053  10.553  10.081  10.833
45719SOL    HW139054  10.496  10.069  10.908
45719SOL    HW239055  10.636  10.113  10.871
45720SOL     OW39056   9.484  13.259  11.539
45720SOL    HW139057   9.497  13.309  11.620
45720SOL    HW239058   9.389  13.261  11.525
45721SOL     OW39059   9.656  14.112  10.901
45721SOL    HW139060   9.720  14.041  10.901
45721SOL    HW239061   9.581  14.079  10.853
45722SOL     OW39062   7.674   4.617  11.150
45722SOL    HW139063   7.707   4.681  11.212
45722SOL    HW239064   7.637   4.670  11.079
45723SOL     OW39065  10.232   3.412   8.934
45723SOL    HW139066  10.185   3.345   8.885
45723SOL    HW239067  10.272   3.467   8.867
45724SOL     OW39068   4.148   5.847   8.088
45724SOL    HW139069   4.234   5.880   8.116
45724SOL    HW239070   4.088   5.918   8.108
45725SOL     OW39071   1.035   0.506   3.608
45725SOL    HW139072   0.964   0.470   3.662
45725SOL    HW239073   1.082   0.566   3.667
45726SOL     OW39074   1.070   2.560   8.890
45726SOL    HW139075   0.989   2.511   8.877
45726SOL    HW239076   1.133   2.496   8.923
45727SOL     OW39077   4.986   4.081   6.021
45727SOL    HW139078   4.937   4.007   5.986
45727SOL    HW239079   5.074   4.070   5.985
45728SOL     OW39080   7.914   3.863  13.022
45728SOL    HW139081   7.932   3.776  13.057
45728SOL    HW239082   7.876   3.911  13.095
45729SOL     OW39083   0.927  14.219   3.383
45729SOL    HW139084   0.898  14.206   3.293
45729SOL    HW239085   0.972  14.138   3.406
45730SOL     OW39086   0.818   4.123   9.027
45730SOL    HW139087   0.747   4.082   8.977
45730SOL    HW239088   0.785   4.210   9.049
45731SOL     OW39089   1.567   0.210   7.941
45731SOL    HW139090   1.621   0.211   7.862
45731SOL    HW239091   1.528   0.122   7.943
45732SOL     OW39092  11.969   4.275   7.637
45732SOL    HW139093  11.973   4.231   7.722
45732SOL    HW239094  11.981   4.206   7.572
45733SOL     OW39095   0.530   8.421  11.701
45733SOL    HW139096   0.605   8.404  11.644
45733SOL    HW239097   0.517   8.340  11.749
45734SOL     OW39098  10.299   9.274   8.885
45734SOL    HW139099  10.234   9.220   8.841
45734SOL    HW239100  10.248   9.344   8.927
45735SOL     OW39101   6.358   2.538  11.498
45735SOL    HW139102   6.380   2.617  11.547
45735SOL    HW239103   6.300   2.569  11.429
45736SOL     OW39104   1.506  14.871   1.724
45736SOL    HW139105   1.418   0.028   1.716
45736SOL    HW239106   1.565   0.062   1.697
45737SOL     OW39107   3.820  14.697  10.219
45737SOL    HW139108   3.770  14.675  10.298
45737SOL    HW239109   3.900  14.737  10.251
45738SOL     OW39110   5.342   5.419   1.882
45738SOL    HW139111   5.360   5.513   1.887
45738SOL    HW239112   5.364   5.386   1.969
45739SOL     OW39113   5.781  13.079  13.990
45739SOL    HW139114   5.766  12.997  14.039
45739SOL    HW239115   5.852  13.121  14.037
45740SOL     OW39116   8.414   5.742  14.555
45740SOL    HW139117   8.334   5.747  14.502
45740SOL    HW239118   8.415   5.824  14.604
45741SOL     OW39119   6.498   4.129   4.733
45741SOL    HW139120   6.458   4.061   4.680
45741SOL    HW239121   6.592   4.125   4.713
45742SOL     OW39122  13.400   7.601  14.227
45742SOL    HW139123  13.351   7.583  14.146
45742SOL    HW239124  13.405   7.697  14.230
45743SOL     OW39125  11.551   6.063   7.652
45743SOL    HW139126  11.514   6.001   7.590
45743SOL    HW239127  11.641   6.077   7.621
45744SOL     OW39128  13.958   6.061   5.369
45744SOL    HW139129  13.873   6.050   5.411
45744SOL    HW239130  14.017   6.082   5.442
45745SOL     OW39131   6.509  13.267   7.399
45745SOL    HW139132   6.557  13.200   7.448
45745SOL    HW239133   6.528  13.349   7.444
45746SOL     OW39134  10.241  11.273  11.721
45746SOL    HW139135  10.159  11.317  11.743
45746SOL    HW239136  10.273  11.239  11.805
45747SOL     OW39137   2.872   2.378   2.561
45747SOL    HW139138   2.910   2.406   2.478
45747SOL    HW239139   2.853   2.285   2.549
45748SOL     OW39140   3.903   6.311   0.770
45748SOL    HW139141   3.947   6.258   0.704
45748SOL    HW239142   3.815   6.273   0.777
45749SOL     OW39143   0.860   5.145   3.041
45749SOL    HW139144   0.894   5.056   3.056
45749SOL    HW239145   0.931   5.190   2.995
45750SOL     OW39146   5.498   0.108   5.875
45750SOL    HW139147   5.520   0.091   5.966
45750SOL    HW239148   5.411   0.148   5.878
45751SOL     OW39149   6.570   6.853   7.786
45751SOL    HW139150   6.640   6.878   7.726
45751SOL    HW239151   6.531   6.775   7.746
45752SOL     OW39152   4.315  14.502   7.713
45752SOL    HW139153   4.392  14.532   7.664
45752SOL    HW239154   4.304  14.568   7.782
45753SOL     OW39155   6.048   9.624   0.036
45753SOL    HW139156   5.981   9.580   0.089
45753SOL    HW239157   6.011   9.629  14.828
45754SOL     OW39158   9.071  12.216   9.899
45754SOL    HW139159   9.165  12.199   9.899
45754SOL    HW239160   9.039  12.177   9.980
45755SOL     OW39161   0.237  13.318   4.263
45755SOL    HW139162   0.287  13.254   4.213
45755SOL    HW239163   0.146  13.303   4.237
45756SOL     OW39164   6.474  12.737  14.769
45756SOL    HW139165   6.544  12.698  14.718
45756SOL    HW239166   6.448  12.814  14.720
45757SOL     OW39167   1.620  10.891   6.893
45757SOL    HW139168   1.669  10.973   6.886
45757SOL    HW239169   1.596  10.885   6.985
45758SOL     OW39170   5.996   3.170  11.285
45758SOL    HW139171   6.013   3.241  11.224
45758SOL    HW239172   5.911   3.135  11.258
45759SOL     OW39173   5.375   3.463   8.033
45759SOL    HW139174   5.418   3.394   7.984
45759SOL    HW239175   5.346   3.526   7.967
45760SOL     OW39176  12.925  14.083   2.204
45760SOL    HW139177  12.886  14.164   2.237
45760SOL    HW239178  12.999  14.067   2.263
45761SOL     OW39179   4.967  12.087  12.476
45761SOL    HW139180   5.006  12.173  12.461
45761SOL    HW239181   4.931  12.062  12.391
45762SOL     OW39182  11.834   2.911   0.426
45762SOL    HW139183  11.786   2.858   0.363
45762SOL    HW239184  11.826   3.001   0.394
45763SOL     OW39185   7.680  10.008  13.459
45763SOL    HW139186   7.715  10.094  13.437
45763SOL    HW239187   7.639  10.020  13.544
45764SOL     OW39188  13.437   3.577  14.681
45764SOL    HW139189  13.480   3.493  14.695
45764SOL    HW239190  13.480   3.613  14.603
45765SOL     OW39191  13.312  14.834   8.441
45765SOL    HW139192  13.370  14.763   8.416
45765SOL    HW239193  13.335  14.854   8.532
45766SOL     OW39194   6.365   5.230   2.622
45766SOL    HW139195   6.449   5.195   2.652
45766SOL    HW239196   6.370   5.324   2.641
45767SOL     OW39197   4.849   9.431   6.324
45767SOL    HW139198   4.929   9.424   6.374
45767SOL    HW239199   4.852   9.518   6.285
45768SOL     OW39200   3.294   0.870  13.859
45768SOL    HW139201   3.292   0.807  13.931
45768SOL    HW239202   3.368   0.843  13.804
45769SOL     OW39203  10.971  13.141   9.545
45769SOL    HW139204  10.914  13.180   9.611
45769SOL    HW239205  10.920  13.069   9.508
45770SOL     OW39206   0.563   5.818  13.319
45770SOL    HW139207   0.577   5.840  13.227
45770SOL    HW239208   0.469   5.829  13.332
45771SOL     OW39209  13.117   7.757   9.513
45771SOL    HW139210  13.061   7.816   9.463
45771SOL    HW239211  13.206   7.790   9.498
45772SOL     OW39212   2.683   5.706   8.758
45772SOL    HW139213   2.594   5.685   8.786
45772SOL    HW239214   2.690   5.666   8.671
45773SOL     OW39215  10.893   5.597   2.961
45773SOL    HW139216  10.851   5.539   3.026
45773SOL    HW239217  10.840   5.586   2.882
45774SOL     OW39218   4.708   8.439   6.865
45774SOL    HW139219   4.727   8.347   6.881
45774SOL    HW239220   4.649   8.439   6.790
45775SOL     OW39221  13.240   4.442  11.312
45775SOL    HW139222  13.198   4.392  11.382
45775SOL    HW239223  13.214   4.533  11.329
45776SOL     OW39224  13.077   5.501  14.802
45776SOL    HW139225  12.984   5.525  14.801
45776SOL    HW239226  13.077   5.406  14.794
45777SOL     OW39227  10.140  13.386  12.484
45777SOL    HW139228  10.187  13.386  12.567
45777SOL    HW239229  10.202  13.349  12.421
45778SOL     OW39230   6.451   5.092   2.940
45778SOL    HW139231   6.373   5.081   2.885
45778SOL    HW239232   6.505   5.015   2.919
45779SOL     OW39233   6.745   5.928   4.107
45779SOL    HW139234   6.657   5.893   4.119
45779SOL    HW239235   6.745   6.010   4.156
45780SOL     OW39236  10.440   6.557   8.144
45780SOL    HW139237  10.376   6.490   8.122
45780SOL    HW239238  10.463   6.539   8.236
45781SOL     OW39239   5.266   6.190   7.644
45781SOL    HW139240   5.340   6.209   7.586
45781SOL    HW239241   5.279   6.099   7.670
45782SOL     OW39242   6.935   7.043  13.271
45782SOL    HW139243   6.932   6.958  13.226
45782SOL    HW239244   6.966   7.104  13.204
45783SOL     OW39245  10.407  10.475   9.514
45783SOL    HW139246  10.389  10.383   9.531
45783SOL    HW239247  10.445  10.508   9.595
45784SOL     OW39248  10.255  11.178   0.027
45784SOL    HW139249  10.165  11.166   0.059
45784SOL    HW239250  10.280  11.092  14.873
45785SOL     OW39251   5.354   1.472  11.297
45785SOL    HW139252   5.271   1.495  11.255
45785SOL    HW239253   5.357   1.377  11.295
45786SOL     OW39254   3.212  10.484  13.783
45786SOL    HW139255   3.199  10.474  13.689
45786SOL    HW239256   3.224  10.394  13.815
45787SOL     OW39257   8.744   2.643  10.158
45787SOL    HW139258   8.691   2.718  10.129
45787SOL    HW239259   8.727   2.637  10.252
45788SOL     OW39260  12.559   2.033  14.770
45788SOL    HW139261  12.550   2.120  14.732
45788SOL    HW239262  12.654   2.018  14.772
45789SOL     OW39263   7.332   5.432   1.056
45789SOL    HW139264   7.364   5.368   1.119
45789SOL    HW239265   7.280   5.381   0.994
45790SOL     OW39266   9.284  12.656   2.215
45790SOL    HW139267   9.231  12.689   2.142
45790SOL    HW239268   9.221  12.628   2.281
45791SOL     OW39269   2.597   7.840  11.740
45791SOL    HW139270   2.566   7.914  11.689
45791SOL    HW239271   2.688   7.861  11.761
45792SOL     OW39272  11.483   2.079   4.616
45792SOL    HW139273  11.404   2.050   4.662
45792SOL    HW239274  11.457   2.081   4.524
45793SOL     OW39275   1.652   0.460  14.581
45793SOL    HW139276   1.734   0.502  14.555
45793SOL    HW239277   1.634   0.397  14.512
45794SOL     OW39278   4.393   4.611   0.580
45794SOL    HW139279   4.442   4.533   0.603
45794SOL    HW239280   4.412   4.627   0.488
45795SOL     OW39281  10.308  13.228   3.893
45795SOL    HW139282  10.231  13.202   3.843
45795SOL    HW239283  10.284  13.312   3.933
45796SOL     OW39284  14.282   3.723   0.471
45796SOL    HW139285  14.342   3.719   0.546
45796SOL    HW239286  14.310   3.799   0.421
45797SOL     OW39287  13.987   4.515   7.263
45797SOL    HW139288  13.980   4.575   7.338
45797SOL    HW239289  13.908   4.461   7.268
45798SOL     OW39290   8.211   3.821  13.016
45798SOL    HW139291   8.167   3.744  13.051
45798SOL    HW239292   8.157   3.895  13.044
45799SOL     OW39293   9.254   5.329  13.007
45799SOL    HW139294   9.250   5.339  13.102
45799SOL    HW239295   9.215   5.243  12.990
45800SOL     OW39296  14.483  14.326   1.197
45800SOL    HW139297  14.552  14.389   1.215
45800SOL    HW239298  14.403  14.378   1.192
45801SOL     OW39299   2.348   7.504  13.682
45801SOL    HW139300   2.345   7.410  13.665
45801SOL    HW239301   2.256   7.529  13.690
45802SOL     OW39302  10.539  11.134   7.787
45802SOL    HW139303  10.634  11.135   7.788
45802SOL    HW239304  10.514  11.171   7.872
45803SOL     OW39305   3.911   3.370  13.980
45803SOL    HW139306   3.832   3.358  13.927
45803SOL    HW239307   3.983   3.354  13.919
45804SOL     OW39308   8.415   0.740   6.812
45804SOL    HW139309   8.326   0.774   6.809
45804SOL    HW239310   8.421   0.694   6.895
45805SOL     OW39311   3.544   3.091   1.437
45805SOL    HW139312   3.449   3.091   1.449
45805SOL    HW239313   3.560   3.023   1.372
45806SOL     OW39314   6.076  12.604  10.017
45806SOL    HW139315   6.083  12.513  10.047
45806SOL    HW239316   6.166  12.636  10.015
45807SOL     OW39317   2.167   6.371   4.761
45807SOL    HW139318   2.260   6.373   4.781
45807SOL    HW239319   2.125   6.350   4.845
45808SOL     OW39320  13.567   7.205   1.404
45808SOL    HW139321  13.631   7.275   1.392
45808SOL    HW239322  13.619   7.127   1.421
45809SOL     OW39323   1.612   5.128  13.205
45809SOL    HW139324   1.639   5.117  13.114
45809SOL    HW239325   1.522   5.160  13.200
45810SOL     OW39326   0.715  13.951  11.953
45810SOL    HW139327   0.711  13.946  11.858
45810SOL    HW239328   0.748  13.865  11.981
45811SOL     OW39329   0.847  11.842   3.411
45811SOL    HW139330   0.788  11.775   3.376
45811SOL    HW239331   0.891  11.878   3.334
45812SOL     OW39332   1.716   0.091   4.429
45812SOL    HW139333   1.681   0.004   4.409
45812SOL    HW239334   1.668   0.118   4.507
45813SOL     OW39335   3.551  12.160   3.378
45813SOL    HW139336   3.637  12.131   3.408
45813SOL    HW239337   3.530  12.235   3.434
45814SOL     OW39338  12.520   5.513   2.099
45814SOL    HW139339  12.485   5.564   2.172
45814SOL    HW239340  12.454   5.523   2.030
45815SOL     OW39341   5.643  10.603   0.589
45815SOL    HW139342   5.622  10.521   0.544
45815SOL    HW239343   5.680  10.659   0.521
45816SOL     OW39344  14.508  10.094  13.553
45816SOL    HW139345  14.572  10.083  13.624
45816SOL    HW239346  14.562  10.111  13.476
45817SOL     OW39347   4.443   1.810   7.400
45817SOL    HW139348   4.500   1.755   7.453
45817SOL    HW239349   4.355   1.791   7.433
45818SOL     OW39350   7.329   5.079   9.031
45818SOL    HW139351   7.318   5.105   9.123
45818SOL    HW239352   7.399   5.135   8.998
45819SOL     OW39353   8.598  10.191   1.765
45819SOL    HW139354   8.508  10.221   1.754
45819SOL    HW239355   8.606  10.173   1.859
45820SOL     OW39356   7.613   5.944  12.685
45820SOL    HW139357   7.623   6.010  12.754
45820SOL    HW239358   7.577   5.992  12.611
45821SOL     OW39359   7.806   9.340   2.981
45821SOL    HW139360   7.825   9.423   2.937
45821SOL    HW239361   7.761   9.288   2.915
45822SOL     OW39362   6.290   7.912  13.409
45822SOL    HW139363   6.334   7.963  13.341
45822SOL    HW239364   6.203   7.894  13.373
45823SOL     OW39365   7.857   7.502   5.959
45823SOL    HW139366   7.928   7.525   6.018
45823SOL    HW239367   7.863   7.406   5.951
45824SOL     OW39368  10.281  10.044   8.346
45824SOL    HW139369  10.245  10.035   8.434
45824SOL    HW239370  10.375  10.031   8.358
45825SOL     OW39371   5.255   9.302   3.931
45825SOL    HW139372   5.279   9.372   3.992
45825SOL    HW239373   5.214   9.235   3.987
45826SOL     OW39374  11.230   9.804  12.480
45826SOL    HW139375  11.153   9.852  12.451
45826SOL    HW239376  11.243   9.736  12.414
45827SOL     OW39377   8.280   2.173   9.936
45827SOL    HW139378   8.221   2.097   9.939
45827SOL    HW239379   8.265   2.219  10.018
45828SOL     OW39380  10.436   7.645   9.823
45828SOL    HW139381  10.485   7.612   9.747
45828SOL    HW239382  10.485   7.613   9.898
45829SOL     OW39383  10.686  14.483   3.371
45829SOL    HW139384  10.724  14.413   3.423
45829SOL    HW239385  10.649  14.544   3.435
45830SOL     OW39386   3.574   8.000   6.986
45830SOL    HW139387   3.516   8.012   6.911
45830SOL    HW239388   3.662   8.011   6.949
45831SOL     OW39389  10.653   4.373   5.683
45831SOL    HW139390  10.611   4.288   5.697
45831SOL    HW239391  10.742   4.362   5.716
45832SOL     OW39392   3.193   4.706   1.621
45832SOL    HW139393   3.272   4.718   1.674
45832SOL    HW239394   3.210   4.754   1.541
45833SOL     OW39395   3.704  13.041   2.954
45833SOL    HW139396   3.608  13.038   2.956
45833SOL    HW239397   3.727  13.035   2.861
45834SOL     OW39398  10.249   2.122  14.199
45834SOL    HW139399  10.189   2.088  14.265
45834SOL    HW239400  10.291   2.044  14.162
45835SOL     OW39401  12.790   4.563  10.760
45835SOL    HW139402  12.836   4.552  10.677
45835SOL    HW239403  12.700   4.585  10.734
45836SOL     OW39404   6.234  14.284   5.955
45836SOL    HW139405   6.212  14.255   6.044
45836SOL    HW239406   6.201  14.214   5.899
45837SOL     OW39407  12.486   0.935   3.150
45837SOL    HW139408  12.435   0.916   3.070
45837SOL    HW239409  12.442   1.011   3.188
45838SOL     OW39410   4.590  11.939   2.888
45838SOL    HW139411   4.659  11.916   2.826
45838SOL    HW239412   4.565  11.856   2.929
45839SOL     OW39413  13.818   3.906   2.849
45839SOL    HW139414  13.912   3.890   2.848
45839SOL    HW239415  13.782   3.840   2.790
45840SOL     OW39416   8.071   2.037  13.924
45840SOL    HW139417   8.019   2.077  13.854
45840SOL    HW239418   8.113   1.962  13.883
45841SOL     OW39419   8.939   7.351  12.417
45841SOL    HW139420   8.913   7.408  12.345
45841SOL    HW239421   9.030   7.374  12.434
45842SOL     OW39422  13.033   8.024  14.038
45842SOL    HW139423  13.029   8.118  14.020
45842SOL    HW239424  12.942   7.996  14.042
45843SOL     OW39425  13.814   0.410   0.615
45843SOL    HW139426  13.762   0.361   0.679
45843SOL    HW239427  13.885   0.448   0.666
45844SOL     OW39428   9.940   5.536   0.850
45844SOL    HW139429   9.893   5.606   0.805
45844SOL    HW239430   9.937   5.561   0.943
45845SOL     OW39431   4.935   5.992  13.534
45845SOL    HW139432   5.030   6.000  13.541
45845SOL    HW239433   4.907   5.965  13.622
45846SOL     OW39434   1.148   7.102   9.889
45846SOL    HW139435   1.109   7.179   9.932
45846SOL    HW239436   1.186   7.137   9.808
45847SOL     OW39437   0.920  13.422   5.313
45847SOL    HW139438   0.925  13.406   5.407
45847SOL    HW239439   0.844  13.480   5.303
45848SOL     OW39440   2.883  13.628   7.473
45848SOL    HW139441   2.877  13.682   7.394
45848SOL    HW239442   2.831  13.550   7.453
45849SOL     OW39443   8.814  13.098   1.424
45849SOL    HW139444   8.781  13.179   1.461
45849SOL    HW239445   8.749  13.073   1.359
45850SOL     OW39446   1.741   2.842  11.514
45850SOL    HW139447   1.832   2.859  11.490
45850SOL    HW239448   1.699   2.928  11.514
45851SOL     OW39449  12.585   1.752  14.331
45851SOL    HW139450  12.667   1.802  14.334
45851SOL    HW239451  12.596   1.685  14.398
45852SOL     OW39452   8.326   8.491   5.068
45852SOL    HW139453   8.381   8.475   5.145
45852SOL    HW239454   8.320   8.405   5.026
45853SOL     OW39455   6.135   0.962   0.307
45853SOL    HW139456   6.212   0.931   0.354
45853SOL    HW239457   6.170   1.014   0.235
45854SOL     OW39458   0.596   6.628   2.195
45854SOL    HW139459   0.621   6.541   2.162
45854SOL    HW239460   0.651   6.689   2.146
45855SOL     OW39461   5.025   4.401   3.063
45855SOL    HW139462   4.971   4.451   3.001
45855SOL    HW239463   4.967   4.331   3.093
45856SOL     OW39464  14.744  11.174   2.193
45856SOL    HW139465  14.807  11.244   2.206
45856SOL    HW239466  14.688  11.177   2.271
45857SOL     OW39467   1.131   4.990   8.550
45857SOL    HW139468   1.225   5.002   8.532
45857SOL    HW239469   1.128   4.915   8.610
45858SOL     OW39470   5.937  11.609  10.861
45858SOL    HW139471   5.975  11.693  10.887
45858SOL    HW239472   5.846  11.613  10.892
45859SOL     OW39473   9.695   1.277   6.541
45859SOL    HW139474   9.725   1.268   6.450
45859SOL    HW239475   9.601   1.261   6.537
45860SOL     OW39476  13.733   3.939   0.647
45860SOL    HW139477  13.769   3.922   0.560
45860SOL    HW239478  13.655   3.882   0.652
45861SOL     OW39479  14.845  14.153   4.656
45861SOL    HW139480  14.770  14.122   4.607
45861SOL    HW239481  14.810  14.221   4.713
45862SOL     OW39482   3.286   8.236  10.979
45862SOL    HW139483   3.306   8.328  10.998
45862SOL    HW239484   3.324   8.220  10.893
45863SOL     OW39485   1.525   1.479  13.517
45863SOL    HW139486   1.480   1.441  13.593
45863SOL    HW239487   1.467   1.548  13.486
45864SOL     OW39488   3.069   0.128   7.154
45864SOL    HW139489   3.074   0.068   7.229
45864SOL    HW239490   3.058   0.070   7.079
45865SOL     OW39491  11.801  13.304   3.742
45865SOL    HW139492  11.814  13.222   3.693
45865SOL    HW239493  11.723  13.343   3.703
45866SOL     OW39494   4.574  10.546  10.908
45866SOL    HW139495   4.543  10.464  10.946
45866SOL    HW239496   4.568  10.533  10.813
45867SOL     OW39497   6.783   2.885  12.772
45867SOL    HW139498   6.797   2.912  12.863
45867SOL    HW239499   6.689   2.864  12.768
45868SOL     OW39500   8.235  10.487   7.054
45868SOL    HW139501   8.251  10.572   7.012
45868SOL    HW239502   8.191  10.435   6.987
45869SOL     OW39503   9.033   8.838  13.796
45869SOL    HW139504   8.977   8.762  13.782
45869SOL    HW239505   9.018   8.861  13.888
45870SOL     OW39506   3.687   0.454  10.421
45870SOL    HW139507   3.596   0.470  10.398
45870SOL    HW239508   3.712   0.377  10.370
45871SOL     OW39509  13.460   8.700   9.801
45871SOL    HW139510  13.411   8.641   9.858
45871SOL    HW239511  13.550   8.668   9.805
45872SOL     OW39512  10.234   6.080   3.212
45872SOL    HW139513  10.270   6.053   3.297
45872SOL    HW239514  10.139   6.073   3.224
45873SOL     OW39515   2.421   2.286   9.188
45873SOL    HW139516   2.508   2.269   9.223
45873SOL    HW239517   2.394   2.203   9.149
45874SOL     OW39518   3.945   9.612  12.295
45874SOL    HW139519   3.912   9.700  12.314
45874SOL    HW239520   3.925   9.599  12.202
45875SOL     OW39521   9.635   7.808   2.689
45875SOL    HW139522   9.554   7.827   2.737
45875SOL    HW239523   9.651   7.715   2.707
45876SOL     OW39524   9.122  12.069   0.669
45876SOL    HW139525   9.084  12.012   0.735
45876SOL    HW239526   9.050  12.126   0.642
45877SOL     OW39527  11.726   2.534   4.024
45877SOL    HW139528  11.672   2.587   4.083
45877SOL    HW239529  11.783   2.484   4.082
45878SOL     OW39530   5.427   7.525  12.675
45878SOL    HW139531   5.419   7.472  12.755
45878SOL    HW239532   5.485   7.597  12.699
45879SOL     OW39533   7.265   6.268   7.940
45879SOL    HW139534   7.202   6.207   7.901
45879SOL    HW239535   7.349   6.244   7.901
45880SOL     OW39536  12.862   5.964  14.549
45880SOL    HW139537  12.832   5.874  14.545
45880SOL    HW239538  12.882   5.987  14.459
45881SOL     OW39539   7.500   2.285  11.978
45881SOL    HW139540   7.467   2.269  11.889
45881SOL    HW239541   7.560   2.213  11.994
45882SOL     OW39542   8.814   8.158   3.103
45882SOL    HW139543   8.817   8.247   3.139
45882SOL    HW239544   8.726   8.151   3.064
45883SOL     OW39545   9.109  11.123  13.170
45883SOL    HW139546   9.201  11.125  13.144
45883SOL    HW239547   9.112  11.117  13.266
45884SOL     OW39548  10.904   2.968   0.594
45884SOL    HW139549  10.827   3.022   0.611
45884SOL    HW239550  10.880   2.881   0.626
45885SOL     OW39551   0.665  13.718  11.327
45885SOL    HW139552   0.675  13.722  11.422
45885SOL    HW239553   0.604  13.789  11.306
45886SOL     OW39554   4.288   4.714  12.480
45886SOL    HW139555   4.382   4.712  12.500
45886SOL    HW239556   4.283   4.749  12.391
45887SOL     OW39557   4.435  12.796  10.067
45887SOL    HW139558   4.369  12.857  10.033
45887SOL    HW239559   4.509  12.851  10.091
45888SOL     OW39560  11.052  10.498   7.513
45888SOL    HW139561  10.977  10.556   7.524
45888SOL    HW239562  11.058  10.483   7.419
45889SOL     OW39563  12.752   5.384  11.111
45889SOL    HW139564  12.827   5.325  11.099
45889SOL    HW239565  12.676   5.330  11.092
45890SOL     OW39566   9.885   0.227  13.877
45890SOL    HW139567   9.843   0.186  13.802
45890SOL    HW239568   9.902   0.317  13.849
45891SOL     OW39569  12.907  10.003   4.832
45891SOL    HW139570  12.837   9.949   4.798
45891SOL    HW239571  12.925   9.968   4.920
45892SOL     OW39572   6.183   6.145  13.436
45892SOL    HW139573   6.267   6.185  13.418
45892SOL    HW239574   6.171   6.080  13.366
45893SOL     OW39575   3.928   9.511   3.607
45893SOL    HW139576   3.855   9.561   3.572
45893SOL    HW239577   3.913   9.422   3.575
45894SOL     OW39578  13.207   2.295   4.818
45894SOL    HW139579  13.144   2.232   4.783
45894SOL    HW239580  13.250   2.249   4.890
45895SOL     OW39581  10.461   1.695   3.363
45895SOL    HW139582  10.492   1.665   3.448
45895SOL    HW239583  10.461   1.791   3.369
45896SOL     OW39584   1.707   6.430   8.518
45896SOL    HW139585   1.782   6.454   8.463
45896SOL    HW239586   1.673   6.349   8.479
45897SOL     OW39587  10.957  13.896   8.259
45897SOL    HW139588  10.933  13.891   8.351
45897SOL    HW239589  11.027  13.961   8.256
45898SOL     OW39590  11.787   8.476   2.002
45898SOL    HW139591  11.804   8.454   2.094
45898SOL    HW239592  11.756   8.566   2.004
45899SOL     OW39593   4.676   6.221   5.833
45899SOL    HW139594   4.633   6.192   5.914
45899SOL    HW239595   4.737   6.150   5.812
45900SOL     OW39596   3.618   1.209   2.615
45900SOL    HW139597   3.631   1.123   2.655
45900SOL    HW239598   3.561   1.256   2.676
45901SOL     OW39599   5.100   5.731   7.942
45901SOL    HW139600   5.124   5.716   8.034
45901SOL    HW239601   5.138   5.816   7.921
45902SOL     OW39602  14.681  13.396  12.826
45902SOL    HW139603  14.666  13.369  12.917
45902SOL    HW239604  14.710  13.486  12.832
45903SOL     OW39605  13.541   0.187  10.845
45903SOL    HW139606  13.557   0.260  10.905
45903SOL    HW239607  13.628   0.154  10.823
45904SOL     OW39608   9.694   4.828   0.811
45904SOL    HW139609   9.684   4.864   0.723
45904SOL    HW239610   9.655   4.893   0.868
45905SOL     OW39611  14.749   1.057   0.690
45905SOL    HW139612  14.722   1.149   0.695
45905SOL    HW239613  14.799   1.051   0.609
45906SOL     OW39614   1.026   1.897   7.345
45906SOL    HW139615   1.001   1.889   7.437
45906SOL    HW239616   1.047   1.989   7.333
45907SOL     OW39617   7.498   4.648  10.792
45907SOL    HW139618   7.545   4.585  10.738
45907SOL    HW239619   7.504   4.730  10.743
45908SOL     OW39620  14.338   2.622   0.956
45908SOL    HW139621  14.340   2.544   0.901
45908SOL    HW239622  14.281   2.599   1.029
45909SOL     OW39623  10.150   0.624   6.471
45909SOL    HW139624  10.118   0.671   6.548
45909SOL    HW239625  10.114   0.536   6.479
45910SOL     OW39626  10.710   5.665   9.229
45910SOL    HW139627  10.784   5.675   9.289
45910SOL    HW239628  10.712   5.745   9.175
45911SOL     OW39629  13.595   3.169  14.211
45911SOL    HW139630  13.558   3.112  14.144
45911SOL    HW239631  13.572   3.127  14.294
45912SOL     OW39632   6.813   9.262   4.919
45912SOL    HW139633   6.761   9.311   4.856
45912SOL    HW239634   6.760   9.186   4.942
45913SOL     OW39635   2.600   1.362  11.183
45913SOL    HW139636   2.651   1.373  11.263
45913SOL    HW239637   2.530   1.301  11.206
45914SOL     OW39638   6.394  14.260   5.144
45914SOL    HW139639   6.445  14.208   5.082
45914SOL    HW239640   6.376  14.341   5.098
45915SOL     OW39641  12.889   2.509  12.877
45915SOL    HW139642  12.888   2.604  12.871
45915SOL    HW239643  12.889   2.490  12.971
45916SOL     OW39644   9.824   1.159   1.136
45916SOL    HW139645   9.916   1.170   1.159
45916SOL    HW239646   9.819   1.072   1.096
45917SOL     OW39647   8.312   1.655   6.371
45917SOL    HW139648   8.308   1.749   6.350
45917SOL    HW239649   8.393   1.625   6.330
45918SOL     OW39650  12.527   1.417  14.802
45918SOL    HW139651  12.474   1.494  14.824
45918SOL    HW239652  12.531   1.418  14.706
45919SOL     OW39653  12.396  13.733  11.596
45919SOL    HW139654  12.338  13.809  11.585
45919SOL    HW239655  12.377  13.677  11.520
45920SOL     OW39656  13.865   2.241  12.892
45920SOL    HW139657  13.959   2.235  12.907
45920SOL    HW239658  13.853   2.224  12.799
45921SOL     OW39659   6.529   0.466  12.613
45921SOL    HW139660   6.451   0.520  12.603
45921SOL    HW239661   6.555   0.442  12.524
45922SOL     OW39662  12.797   3.166   0.775
45922SOL    HW139663  12.765   3.157   0.685
45922SOL    HW239664  12.823   3.258   0.781
45923SOL     OW39665   0.879   8.887  10.050
45923SOL    HW139666   0.881   8.913  10.142
45923SOL    HW239667   0.851   8.966  10.004
45924SOL     OW39668   2.598   4.399   2.183
45924SOL    HW139669   2.683   4.358   2.171
45924SOL    HW239670   2.613   4.491   2.161
45925SOL     OW39671  12.028  12.383  12.799
45925SOL    HW139672  12.123  12.380  12.800
45925SOL    HW239673  12.006  12.473  12.824
45926SOL     OW39674   3.039  13.276  12.512
45926SOL    HW139675   3.119  13.327  12.522
45926SOL    HW239676   2.978  13.315  12.574
45927SOL     OW39677  11.200   8.441   6.676
45927SOL    HW139678  11.181   8.409   6.764
45927SOL    HW239679  11.291   8.417   6.661
45928SOL     OW39680   6.815   6.351  11.203
45928SOL    HW139681   6.908   6.331  11.216
45928SOL    HW239682   6.813   6.405  11.124
45929SOL     OW39683  12.245   8.825   4.595
45929SOL    HW139684  12.240   8.919   4.574
45929SOL    HW239685  12.329   8.798   4.559
45930SOL     OW39686   8.869  14.391  11.625
45930SOL    HW139687   8.855  14.486  11.631
45930SOL    HW239688   8.907  14.378  11.538
45931SOL     OW39689   0.171   4.494   5.256
45931SOL    HW139690   0.138   4.513   5.168
45931SOL    HW239691   0.117   4.421   5.287
45932SOL     OW39692   3.453   0.174  13.225
45932SOL    HW139693   3.373   0.205  13.267
45932SOL    HW239694   3.513   0.156  13.298
45933SOL     OW39695   8.374   9.544   0.747
45933SOL    HW139696   8.333   9.462   0.720
45933SOL    HW239697   8.379   9.538   0.843
45934SOL     OW39698   1.272   6.604   8.177
45934SOL    HW139699   1.324   6.681   8.199
45934SOL    HW239700   1.293   6.586   8.086
45935SOL     OW39701   4.340   8.806   3.303
45935SOL    HW139702   4.320   8.732   3.245
45935SOL    HW239703   4.434   8.800   3.319
45936SOL     OW39704   1.729   7.336  14.104
45936SOL    HW139705   1.742   7.328  14.010
45936SOL    HW239706   1.717   7.246  14.135
45937SOL     OW39707  13.241  11.024  10.110
45937SOL    HW139708  13.169  10.961  10.109
45937SOL    HW239709  13.301  10.991  10.177
45938SOL     OW39710  12.391   3.566   8.955
45938SOL    HW139711  12.431   3.534   9.035
45938SOL    HW239712  12.460   3.616   8.911
45939SOL     OW39713   2.456  10.095   3.764
45939SOL    HW139714   2.482  10.074   3.854
45939SOL    HW239715   2.492  10.182   3.748
45940SOL     OW39716   9.608   0.542   2.793
45940SOL    HW139717   9.675   0.605   2.817
45940SOL    HW239718   9.618   0.529   2.699
45941SOL     OW39719   2.278   1.759   0.018
45941SOL    HW139720   2.224   1.682   0.037
45941SOL    HW239721   2.285   1.760  14.802
45942SOL     OW39722  11.982   4.841  14.296
45942SOL    HW139723  11.950   4.752  14.289
45942SOL    HW239724  11.903   4.895  14.294
45943SOL     OW39725   5.422  10.631   5.196
45943SOL    HW139726   5.397  10.671   5.279
45943SOL    HW239727   5.504  10.674   5.173
45944SOL     OW39728  13.517   2.263  11.806
45944SOL    HW139729  13.527   2.301  11.719
45944SOL    HW239730  13.445   2.201  11.797
45945SOL     OW39731  10.663   3.281   5.310
45945SOL    HW139732  10.660   3.372   5.339
45945SOL    HW239733  10.723   3.281   5.236
45946SOL     OW39734  12.041  13.611   9.502
45946SOL    HW139735  12.029  13.517   9.514
45946SOL    HW239736  12.001  13.650   9.580
45947SOL     OW39737   3.437   5.108   5.158
45947SOL    HW139738   3.460   5.191   5.115
45947SOL    HW239739   3.359   5.078   5.111
45948SOL     OW39740  13.217  14.012   9.878
45948SOL    HW139741  13.152  13.945   9.899
45948SOL    HW239742  13.278  13.969   9.819
45949SOL     OW39743  14.522  13.684   6.790
45949SOL    HW139744  14.515  13.779   6.780
45949SOL    HW239745  14.609  13.663   6.756
45950SOL     OW39746   7.797   3.355   7.001
45950SOL    HW139747   7.723   3.355   7.062
45950SOL    HW239748   7.873   3.376   7.056
45951SOL     OW39749  12.022   4.532   0.504
45951SOL    HW139750  12.018   4.513   0.410
45951SOL    HW239751  11.969   4.464   0.545
45952SOL     OW39752  11.123  12.275   7.143
45952SOL    HW139753  11.112  12.325   7.062
45952SOL    HW239754  11.195  12.214   7.123
45953SOL     OW39755   3.063  10.936  12.175
45953SOL    HW139756   3.123  10.864  12.196
45953SOL    HW239757   3.071  10.997  12.248
45954SOL     OW39758   0.832  13.504   9.647
45954SOL    HW139759   0.770  13.535   9.713
45954SOL    HW239760   0.818  13.561   9.572
45955SOL     OW39761   3.968  13.593   9.983
45955SOL    HW139762   3.926  13.669   9.943
45955SOL    HW239763   3.908  13.520   9.965
45956SOL     OW39764   7.521   1.248  13.473
45956SOL    HW139765   7.543   1.297  13.394
45956SOL    HW239766   7.542   1.307  13.545
45957SOL     OW39767   1.404  10.913  14.260
45957SOL    HW139768   1.393  10.818  14.269
45957SOL    HW239769   1.366  10.950  14.339
45958SOL     OW39770   9.520   0.865   6.461
45958SOL    HW139771   9.553   0.863   6.371
45958SOL    HW239772   9.594   0.898   6.512
45959SOL     OW39773  10.092   4.016   6.957
45959SOL    HW139774  10.054   3.929   6.963
45959SOL    HW239775  10.027   4.073   6.999
45960SOL     OW39776   4.075   4.001  10.538
45960SOL    HW139777   4.032   3.926  10.495
45960SOL    HW239778   4.155   3.964  10.575
45961SOL     OW39779   8.805  13.513   9.249
45961SOL    HW139780   8.748  13.437   9.256
45961SOL    HW239781   8.892  13.481   9.274
45962SOL     OW39782   8.733   6.003   0.717
45962SOL    HW139783   8.775   6.064   0.779
45962SOL    HW239784   8.806   5.953   0.680
45963SOL     OW39785   4.154  14.233   0.619
45963SOL    HW139786   4.202  14.158   0.585
45963SOL    HW239787   4.166  14.228   0.714
45964SOL     OW39788  10.035  14.303  12.880
45964SOL    HW139789   9.947  14.333  12.902
45964SOL    HW239790  10.054  14.346  12.796
45965SOL     OW39791  11.608   1.913   1.920
45965SOL    HW139792  11.520   1.915   1.958
45965SOL    HW239793  11.666   1.919   1.996
45966SOL     OW39794  14.010   0.096   7.162
45966SOL    HW139795  13.959   0.163   7.115
45966SOL    HW239796  13.963   0.084   7.244
45967SOL     OW39797  11.013  10.010   2.809
45967SOL    HW139798  11.044  10.059   2.884
45967SOL    HW239799  10.948  10.067   2.768
45968SOL     OW39800   3.424   4.836  12.918
45968SOL    HW139801   3.407   4.876  12.833
45968SOL    HW239802   3.342   4.793  12.942
45969SOL     OW39803   8.704   8.121  10.031
45969SOL    HW139804   8.627   8.159  10.072
45969SOL    HW239805   8.726   8.046  10.086
45970SOL     OW39806  11.856  11.572  12.002
45970SOL    HW139807  11.771  11.546  11.968
45970SOL    HW239808  11.859  11.667  11.993
45971SOL     OW39809  13.474   9.274  10.752
45971SOL    HW139810  13.465   9.236  10.839
45971SOL    HW239811  13.384   9.286  10.722
45972SOL     OW39812   1.930  13.459   6.686
45972SOL    HW139813   1.883  13.541   6.703
45972SOL    HW239814   1.948  13.461   6.592
45973SOL     OW39815   9.781  12.231   7.094
45973SOL    HW139816   9.855  12.253   7.037
45973SOL    HW239817   9.789  12.137   7.109
45974SOL     OW39818   0.533  13.517   3.497
45974SOL    HW139819   0.541  13.601   3.452
45974SOL    HW239820   0.561  13.535   3.586
45975SOL     OW39821   8.510   8.905   2.275
45975SOL    HW139822   8.424   8.893   2.236
45975SOL    HW239823   8.501   8.982   2.330
45976SOL     OW39824   8.147   1.673  14.262
45976SOL    HW139825   8.072   1.674  14.202
45976SOL    HW239826   8.170   1.765  14.273
45977SOL     OW39827  11.002  14.126   5.625
45977SOL    HW139828  10.947  14.171   5.562
45977SOL    HW239829  11.091  14.140   5.593
45978SOL     OW39830   6.702   3.427   9.777
45978SOL    HW139831   6.664   3.488   9.841
45978SOL    HW239832   6.627   3.390   9.731
45979SOL     OW39833   6.342   5.479   7.807
45979SOL    HW139834   6.346   5.406   7.745
45979SOL    HW239835   6.416   5.463   7.867
45980SOL     OW39836   2.131  12.763   7.235
45980SOL    HW139837   2.169  12.742   7.150
45980SOL    HW239838   2.087  12.682   7.262
45981SOL     OW39839  14.574   3.201   5.135
45981SOL    HW139840  14.603   3.135   5.198
45981SOL    HW239841  14.651   3.220   5.082
45982SOL     OW39842  13.476  14.081  10.348
45982SOL    HW139843  13.407  14.147  10.352
45982SOL    HW239844  13.516  14.093  10.261
45983SOL     OW39845  11.807   4.731   9.809
45983SOL    HW139846  11.887   4.683   9.787
45983SOL    HW239847  11.815   4.813   9.761
45984SOL     OW39848   6.127  12.244   4.512
45984SOL    HW139849   6.045  12.286   4.487
45984SOL    HW239850   6.194  12.309   4.494
45985SOL     OW39851   5.359   6.910   8.739
45985SOL    HW139852   5.352   6.815   8.754
45985SOL    HW239853   5.349   6.948   8.826
45986SOL     OW39854   2.453   2.430   8.932
45986SOL    HW139855   2.405   2.375   8.994
45986SOL    HW239856   2.527   2.376   8.905
45987SOL     OW39857   7.668   3.926   1.817
45987SOL    HW139858   7.587   3.875   1.814
45987SOL    HW239859   7.727   3.874   1.871
45988SOL     OW39860   0.160   0.838  10.341
45988SOL    HW139861   0.183   0.924  10.377
45988SOL    HW239862   0.072   0.851  10.304
45989SOL     OW39863   2.523   5.290   7.960
45989SOL    HW139864   2.457   5.359   7.965
45989SOL    HW239865   2.535   5.262   8.051
45990SOL     OW39866   6.476  14.854  12.712
45990SOL    HW139867   6.554  14.804  12.687
45990SOL    HW239868   6.459   0.031  12.636
45991SOL     OW39869   0.768   0.170   1.559
45991SOL    HW139870   0.797   0.255   1.524
45991SOL    HW239871   0.808   0.106   1.501
45992SOL     OW39872   2.161  13.897   5.415
45992SOL    HW139873   2.178  13.877   5.507
45992SOL    HW239874   2.175  13.991   5.408
45993SOL     OW39875   2.939   5.889  10.292
45993SOL    HW139876   3.024   5.868  10.332
45993SOL    HW239877   2.956   5.965  10.238
45994SOL     OW39878   4.520   2.261   8.105
45994SOL    HW139879   4.590   2.262   8.039
45994SOL    HW239880   4.440   2.248   8.054
45995SOL     OW39881   0.534  13.884   0.305
45995SOL    HW139882   0.502  13.966   0.269
45995SOL    HW239883   0.575  13.909   0.389
45996SOL     OW39884  11.734  13.048  10.598
45996SOL    HW139885  11.783  13.005  10.528
45996SOL    HW239886  11.748  12.991  10.675
45997SOL     OW39887  10.573   1.133   5.261
45997SOL    HW139888  10.589   1.038   5.266
45997SOL    HW239889  10.598   1.157   5.172
45998SOL     OW39890   6.366  10.949   4.088
45998SOL    HW139891   6.385  11.038   4.117
45998SOL    HW239892   6.271  10.945   4.084
45999SOL     OW39893   6.654   0.827  13.931
45999SOL    HW139894   6.594   0.793  13.998
45999SOL    HW239895   6.727   0.864  13.981
46000SOL     OW39896  11.910   1.283   6.508
46000SOL    HW139897  11.899   1.368   6.549
46000SOL    HW239898  11.826   1.240   6.518
46001SOL     OW39899   6.511   3.582   7.145
46001SOL    HW139900   6.426   3.558   7.183
46001SOL    HW239901   6.567   3.507   7.163
46002SOL     OW39902  14.672  10.599   2.652
46002SOL    HW139903  14.589  10.634   2.683
46002SOL    HW239904  14.658  10.578   2.560
46003SOL     OW39905   4.472  14.567  10.506
46003SOL    HW139906   4.562  14.533  10.500
46003SOL    HW239907   4.438  14.562  10.417
46004SOL     OW39908   2.694  14.795  12.268
46004SOL    HW139909   2.656  14.873  12.308
46004SOL    HW239910   2.666  14.798  12.177
46005SOL     OW39911   1.700   7.094   9.155
46005SOL    HW139912   1.723   7.052   9.072
46005SOL    HW239913   1.620   7.050   9.182
46006SOL     OW39914   5.831  11.464  11.509
46006SOL    HW139915   5.865  11.510  11.586
46006SOL    HW239916   5.739  11.445  11.531
46007SOL     OW39917   1.634   1.890   5.294
46007SOL    HW139918   1.592   1.875   5.379
46007SOL    HW239919   1.721   1.922   5.316
46008SOL     OW39920   6.244   0.927   5.990
46008SOL    HW139921   6.249   0.964   6.078
46008SOL    HW239922   6.321   0.871   5.983
46009SOL     OW39923   8.824  13.030  11.092
46009SOL    HW139924   8.851  12.941  11.072
46009SOL    HW239925   8.831  13.036  11.188
46010SOL     OW39926   2.452   4.432  13.944
46010SOL    HW139927   2.496   4.513  13.969
46010SOL    HW239928   2.372   4.462  13.900
46011SOL     OW39929   5.733   9.018   3.636
46011SOL    HW139930   5.811   9.016   3.691
46011SOL    HW239931   5.713   8.926   3.618
46012SOL     OW39932   3.762   5.025   2.685
46012SOL    HW139933   3.805   4.958   2.632
46012SOL    HW239934   3.675   4.990   2.701
46013SOL     OW39935   9.675  12.506  14.053
46013SOL    HW139936   9.648  12.500  13.962
46013SOL    HW239937   9.771  12.500  14.051
46014SOL     OW39938   7.404   5.165   6.079
46014SOL    HW139939   7.414   5.232   6.011
46014SOL    HW239940   7.324   5.119   6.055
46015SOL     OW39941   3.649   0.542  11.010
46015SOL    HW139942   3.595   0.464  11.018
46015SOL    HW239943   3.602   0.609  11.058
46016SOL     OW39944   6.232   0.322   6.410
46016SOL    HW139945   6.157   0.264   6.423
46016SOL    HW239946   6.271   0.293   6.327
46017SOL     OW39947  10.353   8.138  14.874
46017SOL    HW139948  10.403   8.178  14.804
46017SOL    HW239949  10.411   8.139   0.070
46018SOL     OW39950  13.005   6.448  12.148
46018SOL    HW139951  12.970   6.382  12.089
46018SOL    HW239952  13.064   6.501  12.093
46019SOL     OW39953   2.729  11.819   4.892
46019SOL    HW139954   2.765  11.730   4.897
46019SOL    HW239955   2.806  11.874   4.877
46020SOL     OW39956   6.809  11.124   7.550
46020SOL    HW139957   6.901  11.137   7.528
46020SOL    HW239958   6.796  11.029   7.543
46021SOL     OW39959   5.265   8.302   6.662
46021SOL    HW139960   5.279   8.281   6.754
46021SOL    HW239961   5.345   8.274   6.618
46022SOL     OW39962   3.293   9.204   9.617
46022SOL    HW139963   3.318   9.112   9.610
46022SOL    HW239964   3.366   9.252   9.577
46023SOL     OW39965   1.490   3.152   7.366
46023SOL    HW139966   1.418   3.092   7.384
46023SOL    HW239967   1.469   3.231   7.417
46024SOL     OW39968   9.439   5.669   8.952
46024SOL    HW139969   9.375   5.740   8.962
46024SOL    HW239970   9.411   5.602   9.014
46025SOL     OW39971   8.701  13.249   7.289
46025SOL    HW139972   8.703  13.248   7.385
46025SOL    HW239973   8.794  13.247   7.264
46026SOL     OW39974   1.340   2.850   5.207
46026SOL    HW139975   1.347   2.757   5.186
46026SOL    HW239976   1.248   2.863   5.229
46027SOL     OW39977   6.150  14.328   0.994
46027SOL    HW139978   6.178  14.242   1.025
46027SOL    HW239979   6.223  14.359   0.940
46028SOL     OW39980   3.192   5.120   3.972
46028SOL    HW139981   3.257   5.051   3.987
46028SOL    HW239982   3.239   5.187   3.921
46029SOL     OW39983  10.193   9.884  13.009
46029SOL    HW139984  10.110   9.887  12.963
46029SOL    HW239985  10.182   9.945  13.083
46030SOL     OW39986   9.403   3.386  13.212
46030SOL    HW139987   9.339   3.389  13.283
46030SOL    HW239988   9.442   3.299  13.219
46031SOL     OW39989  10.690   0.515   4.514
46031SOL    HW139990  10.725   0.428   4.529
46031SOL    HW239991  10.627   0.529   4.584
46032SOL     OW39992   3.115   4.655   7.964
46032SOL    HW139993   3.114   4.650   7.869
46032SOL    HW239994   3.192   4.708   7.985
46033SOL     OW39995   6.482   9.553  10.574
46033SOL    HW139996   6.542   9.479  10.581
46033SOL    HW239997   6.539   9.629  10.560
46034SOL     OW39998   7.307   0.345  14.801
46034SOL    HW139999   7.378   0.359  14.864
46034SOL    HW240000   7.336   0.271  14.748
46035SOL     OW40001   3.029  14.820   7.829
46035SOL    HW140002   3.063  14.764   7.759
46035SOL    HW240003   3.103  14.832   7.889
46036SOL     OW40004   0.998  14.824   7.805
46036SOL    HW140005   0.984  14.729   7.797
46036SOL    HW240006   0.971  14.844   7.895
46037SOL     OW40007  10.665   4.246   7.389
46037SOL    HW140008  10.647   4.167   7.441
46037SOL    HW240009  10.645   4.221   7.299
46038SOL     OW40010   8.262  12.818   3.328
46038SOL    HW140011   8.181  12.781   3.293
46038SOL    HW240012   8.233  12.880   3.394
46039SOL     OW40013   5.069   1.821   4.669
46039SOL    HW140014   5.026   1.739   4.644
46039SOL    HW240015   5.131   1.837   4.598
46040SOL     OW40016   4.290   2.787  12.207
46040SOL    HW140017   4.344   2.864  12.187
46040SOL    HW240018   4.307   2.726  12.136
46041SOL     OW40019  14.766  11.765  12.421
46041SOL    HW140020  14.773  11.857  12.448
46041SOL    HW240021  14.848  11.748  12.374
46042SOL     OW40022   9.792  12.894  13.926
46042SOL    HW140023   9.747  12.821  13.884
46042SOL    HW240024   9.728  12.929  13.988
46043SOL     OW40025   6.431   6.025   1.916
46043SOL    HW140026   6.496   6.095   1.928
46043SOL    HW240027   6.475   5.946   1.946
46044SOL     OW40028   4.311  13.520  13.931
46044SOL    HW140029   4.335  13.608  13.959
46044SOL    HW240030   4.216  13.517  13.936
46045SOL     OW40031   1.390  12.047   7.098
46045SOL    HW140032   1.327  12.119   7.105
46045SOL    HW240033   1.475  12.091   7.093
46046SOL     OW40034   5.563   6.397   3.470
46046SOL    HW140035   5.617   6.357   3.402
46046SOL    HW240036   5.482   6.346   3.470
46047SOL     OW40037   4.628  11.785   4.451
46047SOL    HW140038   4.600  11.696   4.426
46047SOL    HW240039   4.551  11.821   4.496
46048SOL     OW40040   0.125   2.009   6.953
46048SOL    HW140041   0.099   2.100   6.958
46048SOL    HW240042   0.073   1.965   7.021
46049SOL     OW40043   4.423  11.157  11.968
46049SOL    HW140044   4.367  11.232  11.989
46049SOL    HW240045   4.480  11.148  12.045
46050SOL     OW40046  11.733   0.958   0.446
46050SOL    HW140047  11.648   0.955   0.402
46050SOL    HW240048  11.742   0.872   0.486
46051SOL     OW40049   1.353  13.758   0.198
46051SOL    HW140050   1.435  13.724   0.235
46051SOL    HW240051   1.348  13.848   0.230
46052SOL     OW40052  14.553   7.484   8.733
46052SOL    HW140053  14.517   7.518   8.651
46052SOL    HW240054  14.579   7.394   8.712
46053SOL     OW40055  11.382   0.791   5.857
46053SOL    HW140056  11.455   0.834   5.900
46053SOL    HW240057  11.325   0.762   5.928
46054SOL     OW40058   7.816  11.748   7.798
46054SOL    HW140059   7.826  11.754   7.893
46054SOL    HW240060   7.727  11.715   7.785
46055SOL     OW40061   9.953   4.521  14.389
46055SOL    HW140062   9.862   4.496  14.374
46055SOL    HW240063   9.963   4.517  14.484
46056SOL     OW40064   2.536  10.973  12.346
46056SOL    HW140065   2.560  11.052  12.297
46056SOL    HW240066   2.617  10.923  12.353
46057SOL     OW40067   6.970  14.435   4.398
46057SOL    HW140068   6.974  14.481   4.314
46057SOL    HW240069   6.884  14.393   4.398
46058SOL     OW40070   4.630  11.541  10.851
46058SOL    HW140071   4.720  11.570  10.841
46058SOL    HW240072   4.623  11.462  10.797
46059SOL     OW40073  12.380  12.608   8.976
46059SOL    HW140074  12.370  12.576   9.066
46059SOL    HW240075  12.305  12.667   8.963
46060SOL     OW40076  12.680   0.708  13.829
46060SOL    HW140077  12.772   0.733  13.832
46060SOL    HW240078  12.681   0.612  13.834
46061SOL     OW40079   3.953   0.814   8.775
46061SOL    HW140080   4.025   0.851   8.724
46061SOL    HW240081   3.909   0.754   8.715
46062SOL     OW40082  12.932  14.822  10.142
46062SOL    HW140083  12.906  14.870  10.220
46062SOL    HW240084  13.026  14.839  10.133
46063SOL     OW40085   0.779   9.095  13.753
46063SOL    HW140086   0.839   9.155  13.708
46063SOL    HW240087   0.692   9.118  13.720
46064SOL     OW40088   2.978   8.873   1.720
46064SOL    HW140089   3.066   8.904   1.743
46064SOL    HW240090   2.992   8.784   1.688
46065SOL     OW40091   2.346   3.360   3.818
46065SOL    HW140092   2.346   3.429   3.752
46065SOL    HW240093   2.425   3.309   3.800
46066SOL     OW40094  13.148  14.143   6.150
46066SOL    HW140095  13.201  14.218   6.178
46066SOL    HW240096  13.135  14.156   6.056
46067SOL     OW40097   2.405   3.070  13.468
46067SOL    HW140098   2.372   3.160  13.475
46067SOL    HW240099   2.384   3.044  13.378
46068SOL     OW40100  12.555   7.211  13.294
46068SOL    HW140101  12.470   7.247  13.321
46068SOL    HW240102  12.581   7.154  13.366
46069SOL     OW40103   5.188   4.487   2.318
46069SOL    HW140104   5.266   4.542   2.311
46069SOL    HW240105   5.223   4.398   2.328
46070SOL     OW40106   6.437   0.050  11.998
46070SOL    HW140107   6.433   0.056  12.093
46070SOL    HW240108   6.511   0.106  11.973
46071SOL     OW40109  12.504   8.846   6.097
46071SOL    HW140110  12.409   8.843   6.108
46071SOL    HW240111  12.517   8.907   6.024
46072SOL     OW40112  12.079   2.342  11.013
46072SOL    HW140113  12.127   2.348  10.930
46072SOL    HW240114  12.141   2.375  11.079
46073SOL     OW40115  10.116  14.331   6.081
46073SOL    HW140116  10.178  14.328   6.155
46073SOL    HW240117  10.155  14.273   6.015
46074SOL     OW40118   8.353   6.834  14.728
46074SOL    HW140119   8.296   6.864  14.657
46074SOL    HW240120   8.439   6.869  14.706
46075SOL     OW40121   3.674  11.576   9.390
46075SOL    HW140122   3.668  11.537   9.477
46075SOL    HW240123   3.610  11.648   9.392
46076SOL     OW40124   4.623  12.504   7.218
46076SOL    HW140125   4.536  12.519   7.181
46076SOL    HW240126   4.682  12.519   7.144
46077SOL     OW40127  12.169   4.858   2.558
46077SOL    HW140128  12.207   4.795   2.620
46077SOL    HW240129  12.168   4.940   2.606
46078SOL     OW40130   7.984   1.893   7.645
46078SOL    HW140131   7.926   1.874   7.571
46078SOL    HW240132   8.055   1.830   7.637
46079SOL     OW40133   9.386  10.759  14.251
46079SOL    HW140134   9.353  10.676  14.218
46079SOL    HW240135   9.437  10.795  14.178
46080SOL     OW40136   6.855   8.298  10.520
46080SOL    HW140137   6.908   8.377  10.512
46080SOL    HW240138   6.916   8.232  10.553
46081SOL     OW40139  10.266   3.289   1.379
46081SOL    HW140140  10.296   3.287   1.288
46081SOL    HW240141  10.198   3.356   1.380
46082SOL     OW40142   3.788   6.886   8.360
46082SOL    HW140143   3.710   6.845   8.322
46082SOL    HW240144   3.835   6.921   8.285
46083SOL     OW40145   9.904  12.603  14.404
46083SOL    HW140146   9.953  12.610  14.322
46083SOL    HW240147   9.812  12.605  14.377
46084SOL     OW40148  10.211   5.815  11.693
46084SOL    HW140149  10.300   5.843  11.671
46084SOL    HW240150  10.213   5.720  11.684
46085SOL     OW40151  14.353  12.479  13.237
46085SOL    HW140152  14.333  12.406  13.296
46085SOL    HW240153  14.362  12.554  13.295
46086SOL     OW40154   4.530  11.292  10.110
46086SOL    HW140155   4.534  11.273  10.017
46086SOL    HW240156   4.519  11.387  10.114
46087SOL     OW40157   8.890   4.935  10.780
46087SOL    HW140158   8.868   4.889  10.699
46087SOL    HW240159   8.960   4.882  10.820
46088SOL     OW40160  13.015   7.117   9.962
46088SOL    HW140161  12.949   7.066   9.915
46088SOL    HW240162  13.091   7.059   9.967
46089SOL     OW40163   2.080  11.355  13.906
46089SOL    HW140164   1.991  11.341  13.938
46089SOL    HW240165   2.081  11.446  13.875
46090SOL     OW40166   3.547   8.985   9.058
46090SOL    HW140167   3.582   8.917   9.116
46090SOL    HW240168   3.485   8.940   9.002
46091SOL     OW40169   0.965  13.202  11.150
46091SOL    HW140170   0.904  13.204  11.223
46091SOL    HW240171   0.988  13.294  11.136
46092SOL     OW40172  10.829   5.609  14.285
46092SOL    HW140173  10.736   5.629  14.299
46092SOL    HW240174  10.836   5.515  14.303
46093SOL     OW40175   8.546   8.935  11.681
46093SOL    HW140176   8.619   8.996  11.670
46093SOL    HW240177   8.485   8.981  11.740
46094SOL     OW40178   5.598  11.486   6.063
46094SOL    HW140179   5.555  11.423   6.121
46094SOL    HW240180   5.527  11.533   6.021
46095SOL     OW40181  12.925  12.646   0.469
46095SOL    HW140182  12.904  12.667   0.379
46095SOL    HW240183  13.020  12.629   0.469
46096SOL     OW40184   0.416   4.469   4.500
46096SOL    HW140185   0.395   4.375   4.502
46096SOL    HW240186   0.358   4.508   4.565
46097SOL     OW40187   1.193   1.871   5.566
46097SOL    HW140188   1.138   1.939   5.526
46097SOL    HW240189   1.184   1.796   5.508
46098SOL     OW40190  12.175   6.282   7.272
46098SOL    HW140191  12.175   6.359   7.329
46098SOL    HW240192  12.087   6.280   7.235
46099SOL     OW40193   2.899   8.277  13.727
46099SOL    HW140194   2.849   8.339  13.780
46099SOL    HW240195   2.840   8.203  13.715
46100SOL     OW40196   2.511   9.114   7.590
46100SOL    HW140197   2.511   9.022   7.567
46100SOL    HW240198   2.419   9.135   7.606
46101SOL     OW40199  10.555  13.034   6.810
46101SOL    HW140200  10.539  12.995   6.896
46101SOL    HW240201  10.603  12.966   6.762
46102SOL     OW40202  13.516   7.642   2.709
46102SOL    HW140203  13.512   7.668   2.617
46102SOL    HW240204  13.519   7.725   2.757
46103SOL     OW40205   2.720   8.667  11.766
46103SOL    HW140206   2.720   8.598  11.700
46103SOL    HW240207   2.788   8.728  11.735
46104SOL     OW40208  13.904   5.171  13.945
46104SOL    HW140209  13.838   5.178  13.876
46104SOL    HW240210  13.854   5.161  14.026
46105SOL     OW40211   8.879   9.381  13.065
46105SOL    HW140212   8.902   9.429  13.143
46105SOL    HW240213   8.803   9.328  13.091
46106SOL     OW40214  12.621   5.531   6.286
46106SOL    HW140215  12.676   5.480   6.345
46106SOL    HW240216  12.534   5.528   6.325
46107SOL     OW40217   0.656   9.272  11.334
46107SOL    HW140218   0.672   9.355  11.380
46107SOL    HW240219   0.709   9.277  11.255
46108SOL     OW40220   2.739   7.011   2.534
46108SOL    HW140221   2.827   7.006   2.496
46108SOL    HW240222   2.735   7.100   2.571
46109SOL     OW40223   5.284   4.373   5.402
46109SOL    HW140224   5.254   4.442   5.343
46109SOL    HW240225   5.233   4.385   5.482
46110SOL     OW40226   4.258   7.188   4.109
46110SOL    HW140227   4.341   7.222   4.077
46110SOL    HW240228   4.199   7.264   4.110
46111SOL     OW40229   6.596   4.111  14.687
46111SOL    HW140230   6.662   4.047  14.660
46111SOL    HW240231   6.522   4.059  14.718
46112SOL     OW40232  12.186   8.983  14.066
46112SOL    HW140233  12.142   8.923  14.126
46112SOL    HW240234  12.269   8.941  14.046
46113SOL     OW40235   7.035  11.348   8.032
46113SOL    HW140236   7.088  11.325   7.955
46113SOL    HW240237   7.042  11.443   8.038
46114SOL     OW40238   9.461  12.798   9.874
46114SOL    HW140239   9.474  12.864   9.805
46114SOL    HW240240   9.526  12.731   9.855
46115SOL     OW40241   0.597   5.713   8.360
46115SOL    HW140242   0.552   5.744   8.282
46115SOL    HW240243   0.684   5.687   8.329
46116SOL     OW40244  11.037  13.441   9.649
46116SOL    HW140245  10.979  13.432   9.725
46116SOL    HW240246  11.109  13.380   9.667
46117SOL     OW40247   3.504   4.108   5.325
46117SOL    HW140248   3.599   4.110   5.316
46117SOL    HW240249   3.471   4.111   5.235
46118SOL     OW40250   4.252  12.590   4.537
46118SOL    HW140251   4.344  12.563   4.540
46118SOL    HW240252   4.249  12.659   4.471
46119SOL     OW40253  12.731  10.394   6.637
46119SOL    HW140254  12.727  10.482   6.674
46119SOL    HW240255  12.642  10.376   6.607
46120SOL     OW40256   5.943   9.203   6.350
46120SOL    HW140257   5.876   9.230   6.287
46120SOL    HW240258   5.945   9.107   6.343
46121SOL     OW40259  13.687  10.416  11.761
46121SOL    HW140260  13.618  10.479  11.779
46121SOL    HW240261  13.764  10.469  11.741
46122SOL     OW40262  13.653  14.512   5.798
46122SOL    HW140263  13.717  14.455   5.840
46122SOL    HW240264  13.579  14.455   5.779
46123SOL     OW40265   9.105  12.291   9.048
46123SOL    HW140266   9.097  12.377   9.007
46123SOL    HW240267   9.092  12.228   8.977
46124SOL     OW40268   8.798   5.222   5.235
46124SOL    HW140269   8.750   5.139   5.244
46124SOL    HW240270   8.787   5.247   5.144
46125SOL     OW40271   5.851   8.599   2.234
46125SOL    HW140272   5.920   8.658   2.205
46125SOL    HW240273   5.886   8.511   2.217
46126SOL     OW40274   6.443  11.246   0.995
46126SOL    HW140275   6.492  11.254   0.914
46126SOL    HW240276   6.471  11.322   1.047
46127SOL     OW40277   9.776  10.551  11.960
46127SOL    HW140278   9.765  10.545  12.055
46127SOL    HW240279   9.849  10.613  11.949
46128SOL     OW40280   5.558  10.953   8.234
46128SOL    HW140281   5.542  10.925   8.144
46128SOL    HW240282   5.544  11.048   8.232
46129SOL     OW40283   2.862   0.484   3.045
46129SOL    HW140284   2.838   0.562   3.095
46129SOL    HW240285   2.878   0.417   3.111
46130SOL     OW40286   2.868   9.469  10.937
46130SOL    HW140287   2.828   9.423  10.863
46130SOL    HW240288   2.908   9.547  10.898
46131SOL     OW40289   2.149   3.997   0.834
46131SOL    HW140290   2.110   3.926   0.784
46131SOL    HW240291   2.077   4.057   0.852
46132SOL     OW40292   8.985   7.194  12.066
46132SOL    HW140293   8.900   7.234  12.048
46132SOL    HW240294   9.049   7.261  12.040
46133SOL     OW40295  12.962   0.505   5.322
46133SOL    HW140296  13.040   0.561   5.324
46133SOL    HW240297  12.903   0.545   5.386
46134SOL     OW40298   0.690   6.942   3.885
46134SOL    HW140299   0.738   6.892   3.951
46134SOL    HW240300   0.609   6.894   3.871
46135SOL     OW40301   7.328   4.803   7.429
46135SOL    HW140302   7.305   4.892   7.405
46135SOL    HW240303   7.318   4.800   7.524
46136SOL     OW40304  12.062   6.526   7.351
46136SOL    HW140305  12.099   6.609   7.320
46136SOL    HW240306  12.055   6.537   7.446
46137SOL     OW40307  13.150   5.766   2.644
46137SOL    HW140308  13.245   5.755   2.645
46137SOL    HW240309  13.135   5.847   2.595
46138SOL     OW40310  10.056   4.421   6.123
46138SOL    HW140311  10.083   4.486   6.058
46138SOL    HW240312  10.113   4.345   6.106
46139SOL     OW40313  14.124   6.871   0.109
46139SOL    HW140314  14.109   6.964   0.093
46139SOL    HW240315  14.037   6.836   0.131
46140SOL     OW40316   3.617   4.911  10.147
46140SOL    HW140317   3.568   4.992  10.165
46140SOL    HW240318   3.552   4.851  10.112
46141SOL     OW40319  13.323   9.555   5.452
46141SOL    HW140320  13.273   9.568   5.532
46141SOL    HW240321  13.257   9.543   5.384
46142SOL     OW40322   7.031   7.008   8.821
46142SOL    HW140323   7.040   6.925   8.870
46142SOL    HW240324   7.074   7.073   8.877
46143SOL     OW40325   6.320   6.446   5.551
46143SOL    HW140326   6.278   6.388   5.489
46143SOL    HW240327   6.312   6.534   5.512
46144SOL     OW40328   4.564   0.635  11.788
46144SOL    HW140329   4.519   0.564  11.834
46144SOL    HW240330   4.594   0.694  11.857
46145SOL     OW40331  13.896   4.439   5.503
46145SOL    HW140332  13.952   4.396   5.439
46145SOL    HW240333  13.826   4.479   5.451
46146SOL     OW40334   1.023   0.398  14.646
46146SOL    HW140335   1.066   0.320  14.681
46146SOL    HW240336   0.970   0.431  14.719
46147SOL     OW40337   2.326  10.561  14.248
46147SOL    HW140338   2.354  10.651  14.266
46147SOL    HW240339   2.231  10.567  14.239
46148SOL     OW40340   7.237  12.440   4.192
46148SOL    HW140341   7.305  12.398   4.139
46148SOL    HW240342   7.182  12.367   4.222
46149SOL     OW40343   4.317   5.119   5.252
46149SOL    HW140344   4.249   5.054   5.271
46149SOL    HW240345   4.388   5.098   5.313
46150SOL     OW40346   3.928   9.105   2.778
46150SOL    HW140347   4.015   9.097   2.819
46150SOL    HW240348   3.878   9.158   2.840
46151SOL     OW40349   0.243   1.367  11.943
46151SOL    HW140350   0.263   1.284  11.900
46151SOL    HW240351   0.325   1.416  11.941
46152SOL     OW40352   3.842  10.321   3.052
46152SOL    HW140353   3.762  10.367   3.079
46152SOL    HW240354   3.819  10.228   3.060
46153SOL     OW40355  14.035   6.579   6.724
46153SOL    HW140356  14.107   6.606   6.780
46153SOL    HW240357  14.070   6.504   6.674
46154SOL     OW40358  12.287   9.087  14.519
46154SOL    HW140359  12.378   9.056  14.525
46154SOL    HW240360  12.256   9.084  14.610
46155SOL     OW40361  13.155  11.002   4.742
46155SOL    HW140362  13.245  11.032   4.735
46155SOL    HW240363  13.103  11.083   4.747
46156SOL     OW40364   6.408   1.107  14.567
46156SOL    HW140365   6.387   1.175  14.631
46156SOL    HW240366   6.452   1.153  14.496
46157SOL     OW40367   0.402   6.035   4.013
46157SOL    HW140368   0.447   6.063   3.933
46157SOL    HW240369   0.310   6.032   3.989
46158SOL     OW40370   0.105   0.849   5.981
46158SOL    HW140371   0.076   0.897   6.058
46158SOL    HW240372   0.167   0.784   6.015
46159SOL     OW40373  11.944   3.306   6.840
46159SOL    HW140374  11.922   3.383   6.789
46159SOL    HW240375  12.035   3.320   6.868
46160SOL     OW40376   8.362   5.109  10.051
46160SOL    HW140377   8.348   5.202  10.031
46160SOL    HW240378   8.416   5.076   9.979
46161SOL     OW40379   7.794  11.077   5.660
46161SOL    HW140380   7.718  11.019   5.652
46161SOL    HW240381   7.867  11.026   5.625
46162SOL     OW40382   6.596   0.590   3.976
46162SOL    HW140383   6.676   0.615   3.930
46162SOL    HW240384   6.527   0.639   3.931
46163SOL     OW40385   7.466  12.900   0.043
46163SOL    HW140386   7.559  12.899   0.065
46163SOL    HW240387   7.434  12.815   0.072
46164SOL     OW40388   5.567   3.665   2.664
46164SOL    HW140389   5.587   3.666   2.570
46164SOL    HW240390   5.594   3.751   2.695
46165SOL     OW40391  11.050  12.115  10.958
46165SOL    HW140392  11.013  12.177  10.896
46165SOL    HW240393  11.083  12.169  11.030
46166SOL     OW40394  12.119  11.265   6.555
46166SOL    HW140395  12.155  11.310   6.478
46166SOL    HW240396  12.025  11.263   6.540
46167SOL     OW40397   9.709   5.037   0.264
46167SOL    HW140398   9.724   5.131   0.253
46167SOL    HW240399   9.791   5.004   0.301
46168SOL     OW40400   3.571   1.103  11.346
46168SOL    HW140401   3.610   1.189  11.361
46168SOL    HW240402   3.638   1.041  11.374
46169SOL     OW40403   6.921   6.288   9.851
46169SOL    HW140404   6.954   6.258   9.766
46169SOL    HW240405   6.956   6.376   9.861
46170SOL     OW40406   5.804   6.845   2.594
46170SOL    HW140407   5.892   6.814   2.573
46170SOL    HW240408   5.790   6.818   2.685
46171SOL     OW40409   1.493   5.671   1.765
46171SOL    HW140410   1.505   5.621   1.846
46171SOL    HW240411   1.576   5.662   1.718
46172SOL     OW40412  13.548   3.490   3.781
46172SOL    HW140413  13.584   3.551   3.716
46172SOL    HW240414  13.454   3.506   3.780
46173SOL     OW40415   2.593  11.239  10.661
46173SOL    HW140416   2.516  11.243  10.605
46173SOL    HW240417   2.661  11.201  10.606
46174SOL     OW40418   0.157  13.553   3.493
46174SOL    HW140419   0.205  13.630   3.522
46174SOL    HW240420   0.079  13.551   3.547
46175SOL     OW40421  12.627   7.890   8.876
46175SOL    HW140422  12.541   7.860   8.904
46175SOL    HW240423  12.651   7.833   8.803
46176SOL     OW40424   3.319   2.109   7.854
46176SOL    HW140425   3.335   2.201   7.874
46176SOL    HW240426   3.300   2.108   7.760
46177SOL     OW40427   7.038   8.656   2.530
46177SOL    HW140428   6.977   8.637   2.601
46177SOL    HW240429   7.062   8.570   2.495
46178SOL     OW40430   6.929   8.857   9.675
46178SOL    HW140431   6.932   8.874   9.769
46178SOL    HW240432   6.840   8.879   9.648
46179SOL     OW40433   5.232   8.732  13.518
46179SOL    HW140434   5.243   8.702  13.608
46179SOL    HW240435   5.294   8.679  13.467
46180SOL     OW40436   6.620   3.054   8.619
46180SOL    HW140437   6.603   3.046   8.712
46180SOL    HW240438   6.663   3.140   8.609
46181SOL     OW40439   5.424   3.521   1.924
46181SOL    HW140440   5.467   3.448   1.878
46181SOL    HW240441   5.348   3.481   1.967
46182SOL     OW40442  10.006   7.610  11.383
46182SOL    HW140443   9.950   7.546  11.339
46182SOL    HW240444  10.093   7.596  11.345
46183SOL     OW40445  10.610  11.845  10.398
46183SOL    HW140446  10.529  11.865  10.445
46183SOL    HW240447  10.615  11.750  10.398
46184SOL     OW40448  13.443  11.862  11.570
46184SOL    HW140449  13.512  11.926  11.558
46184SOL    HW240450  13.380  11.880  11.500
46185SOL     OW40451   6.403   1.420  13.108
46185SOL    HW140452   6.437   1.384  13.189
46185SOL    HW240453   6.333   1.360  13.082
46186SOL     OW40454   2.919  13.465   2.616
46186SOL    HW140455   2.982  13.433   2.552
46186SOL    HW240456   2.923  13.560   2.607
46187SOL     OW40457   6.917  14.161  10.399
46187SOL    HW140458   6.978  14.132  10.331
46187SOL    HW240459   6.832  14.129  10.370
46188SOL     OW40460  12.476  12.339   9.666
46188SOL    HW140461  12.548  12.335   9.729
46188SOL    HW240462  12.472  12.431   9.640
46189SOL     OW40463   2.568  11.909   7.038
46189SOL    HW140464   2.606  11.993   7.062
46189SOL    HW240465   2.613  11.883   6.959
46190SOL     OW40466  13.342  11.121   9.882
46190SOL    HW140467  13.429  11.089   9.858
46190SOL    HW240468  13.314  11.063   9.953
46191SOL     OW40469   7.634  10.598  10.258
46191SOL    HW140470   7.642  10.517  10.207
46191SOL    HW240471   7.719  10.609  10.301
46192SOL     OW40472  11.985  10.839  12.290
46192SOL    HW140473  11.978  10.753  12.247
46192SOL    HW240474  11.898  10.878  12.280
46193SOL     OW40475   6.584   2.912   3.797
46193SOL    HW140476   6.575   2.863   3.716
46193SOL    HW240477   6.631   2.852   3.856
46194SOL     OW40478  14.575  13.414  10.522
46194SOL    HW140479  14.594  13.323  10.543
46194SOL    HW240480  14.578  13.460  10.606
46195SOL     OW40481   0.305   6.023   1.614
46195SOL    HW140482   0.330   6.042   1.523
46195SOL    HW240483   0.317   6.105   1.660
46196SOL     OW40484   8.230   7.172   0.547
46196SOL    HW140485   8.228   7.088   0.503
46196SOL    HW240486   8.217   7.151   0.640
46197SOL     OW40487  12.626   8.862  12.070
46197SOL    HW140488  12.615   8.844  12.163
46197SOL    HW240489  12.674   8.786  12.036
46198SOL     OW40490   4.562  14.467   9.288
46198SOL    HW140491   4.494  14.401   9.275
46198SOL    HW240492   4.515  14.550   9.289
46199SOL     OW40493  10.658   1.917   2.825
46199SOL    HW140494  10.642   2.005   2.791
46199SOL    HW240495  10.752   1.903   2.813
46200SOL     OW40496   6.610   1.922   7.698
46200SOL    HW140497   6.634   1.877   7.617
46200SOL    HW240498   6.568   1.855   7.752
46201SOL     OW40499  13.481   8.660  12.697
46201SOL    HW140500  13.559   8.653  12.752
46201SOL    HW240501  13.491   8.743  12.651
46202SOL     OW40502   4.455   2.203   1.097
46202SOL    HW140503   4.508   2.143   1.045
46202SOL    HW240504   4.480   2.290   1.067
46203SOL     OW40505   6.643   5.678   4.484
46203SOL    HW140506   6.589   5.656   4.408
46203SOL    HW240507   6.694   5.600   4.502
46204SOL     OW40508  13.673  12.642  14.446
46204SOL    HW140509  13.624  12.704  14.500
46204SOL    HW240510  13.764  12.674  14.451
46205SOL     OW40511  10.944   7.680   2.675
46205SOL    HW140512  10.948   7.673   2.580
46205SOL    HW240513  10.863   7.729   2.692
46206SOL     OW40514   0.104  10.456  11.876
46206SOL    HW140515   0.093  10.461  11.781
46206SOL    HW240516   0.194  10.483  11.891
46207SOL     OW40517   1.787  12.346   6.574
46207SOL    HW140518   1.692  12.334   6.581
46207SOL    HW240519   1.818  12.266   6.532
46208SOL     OW40520  12.029   2.204   7.784
46208SOL    HW140521  11.937   2.216   7.761
46208SOL    HW240522  12.077   2.241   7.710
46209SOL     OW40523   0.959   9.765   9.901
46209SOL    HW140524   0.876   9.776   9.855
46209SOL    HW240525   1.017   9.830   9.860
46210SOL     OW40526   1.995  12.388   3.964
46210SOL    HW140527   2.037  12.366   4.048
46210SOL    HW240528   2.054  12.351   3.898
46211SOL     OW40529   8.499   2.483   3.075
46211SOL    HW140530   8.423   2.518   3.027
46211SOL    HW240531   8.461   2.427   3.143
46212SOL     OW40532  13.143   2.662   2.966
46212SOL    HW140533  13.238   2.678   2.962
46212SOL    HW240534  13.122   2.623   2.881
46213SOL     OW40535   7.555  13.318   4.875
46213SOL    HW140536   7.538  13.366   4.956
46213SOL    HW240537   7.566  13.386   4.809
46214SOL     OW40538  10.019   2.751   1.044
46214SOL    HW140539   9.940   2.700   1.065
46214SOL    HW240540  10.077   2.688   1.002
46215SOL     OW40541   7.897   5.226  11.884
46215SOL    HW140542   7.859   5.301  11.928
46215SOL    HW240543   7.822   5.170  11.863
46216SOL     OW40544   5.854  13.951   7.586
46216SOL    HW140545   5.880  13.942   7.678
46216SOL    HW240546   5.926  13.911   7.537
46217SOL     OW40547   5.057   6.438   6.345
46217SOL    HW140548   5.105   6.518   6.320
46217SOL    HW240549   4.985   6.434   6.282
46218SOL     OW40550   5.208  10.543  13.973
46218SOL    HW140551   5.176  10.595  13.899
46218SOL    HW240552   5.230  10.458  13.935
46219SOL     OW40553  14.336   1.902   5.190
46219SOL    HW140554  14.268   1.860   5.136
46219SOL    HW240555  14.401   1.932   5.127
46220SOL     OW40556   4.890   3.630  14.351
46220SOL    HW140557   4.811   3.685  14.348
46220SOL    HW240558   4.926   3.645  14.438
46221SOL     OW40559   5.548   4.369   5.362
46221SOL    HW140560   5.456   4.368   5.388
46221SOL    HW240561   5.581   4.453   5.393
46222SOL     OW40562   3.647   4.692   5.075
46222SOL    HW140563   3.705   4.617   5.068
46222SOL    HW240564   3.593   4.688   4.995
46223SOL     OW40565  14.816  12.727   3.648
46223SOL    HW140566  14.825  12.704   3.555
46223SOL    HW240567  14.726  12.757   3.657
46224SOL     OW40568  12.247  13.752  12.230
46224SOL    HW140569  12.271  13.821  12.168
46224SOL    HW240570  12.306  13.680  12.210
46225SOL     OW40571  12.455   5.530  14.011
46225SOL    HW140572  12.393   5.549  14.081
46225SOL    HW240573  12.404   5.480  13.947
46226SOL     OW40574  10.484  14.464   8.533
46226SOL    HW140575  10.424  14.502   8.598
46226SOL    HW240576  10.503  14.537   8.473
46227SOL     OW40577  10.226  12.920   7.554
46227SOL    HW140578  10.297  12.930   7.618
46227SOL    HW240579  10.270  12.916   7.470
46228SOL     OW40580  11.720   5.179   3.212
46228SOL    HW140581  11.761   5.264   3.201
46228SOL    HW240582  11.791   5.116   3.202
46229SOL     OW40583   1.368   4.266   5.044
46229SOL    HW140584   1.277   4.297   5.050
46229SOL    HW240585   1.382   4.219   5.126
46230SOL     OW40586   4.864   1.916   2.538
46230SOL    HW140587   4.894   1.849   2.477
46230SOL    HW240588   4.888   1.881   2.624
46231SOL     OW40589   6.725  13.381   8.057
46231SOL    HW140590   6.659  13.334   8.108
46231SOL    HW240591   6.786  13.414   8.123
46232SOL     OW40592   0.441   5.769   3.300
46232SOL    HW140593   0.424   5.744   3.391
46232SOL    HW240594   0.358   5.806   3.270
46233SOL     OW40595   7.843  13.745  14.224
46233SOL    HW140596   7.918  13.718  14.172
46233SOL    HW240597   7.879  13.766  14.311
46234SOL     OW40598   8.318   3.996   6.355
46234SOL    HW140599   8.328   4.002   6.260
46234SOL    HW240600   8.284   3.908   6.371
46235SOL     OW40601  10.292   0.298   9.791
46235SOL    HW140602  10.376   0.336   9.766
46235SOL    HW240603  10.253   0.270   9.708
46236SOL     OW40604   7.214  10.057   5.608
46236SOL    HW140605   7.128  10.035   5.574
46236SOL    HW240606   7.267  10.075   5.531
46237SOL     OW40607  12.633   2.891   5.397
46237SOL    HW140608  12.606   2.962   5.456
46237SOL    HW240609  12.607   2.921   5.310
46238SOL     OW40610   4.416   5.295   5.045
46238SOL    HW140611   4.430   5.234   4.973
46238SOL    HW240612   4.359   5.247   5.106
46239SOL     OW40613   5.129   3.949   6.844
46239SOL    HW140614   5.138   4.043   6.862
46239SOL    HW240615   5.087   3.945   6.758
46240SOL     OW40616   9.031  13.775   3.048
46240SOL    HW140617   9.005  13.865   3.066
46240SOL    HW240618   8.964  13.743   2.987
46241SOL     OW40619   5.355   4.341  11.357
46241SOL    HW140620   5.311   4.390  11.287
46241SOL    HW240621   5.299   4.355  11.434
46242SOL     OW40622   7.213   4.413   9.952
46242SOL    HW140623   7.119   4.427   9.952
46242SOL    HW240624   7.235   4.395  10.044
46243SOL     OW40625  13.459   2.018  12.041
46243SOL    HW140626  13.391   2.029  11.975
46243SOL    HW240627  13.440   2.086  12.106
46244SOL     OW40628   6.029   6.076  11.814
46244SOL    HW140629   5.958   6.101  11.755
46244SOL    HW240630   6.019   6.134  11.889
46245SOL     OW40631   4.518  14.223   8.001
46245SOL    HW140632   4.468  14.274   8.065
46245SOL    HW240633   4.605  14.264   8.002
46246SOL     OW40634   1.392   7.140   4.657
46246SOL    HW140635   1.440   7.068   4.616
46246SOL    HW240636   1.416   7.135   4.749
46247SOL     OW40637   9.774   9.892   3.222
46247SOL    HW140638   9.758   9.919   3.131
46247SOL    HW240639   9.836   9.957   3.255
46248SOL     OW40640  12.289  10.154   1.463
46248SOL    HW140641  12.235  10.179   1.388
46248SOL    HW240642  12.234  10.173   1.539
46249SOL     OW40643   4.060   2.498  13.465
46249SOL    HW140644   3.978   2.544  13.483
46249SOL    HW240645   4.128   2.562  13.484
46250SOL     OW40646  11.225   0.618   3.879
46250SOL    HW140647  11.184   0.586   3.798
46250SOL    HW240648  11.316   0.590   3.873
46251SOL     OW40649  12.504   5.924   2.709
46251SOL    HW140650  12.593   5.948   2.734
46251SOL    HW240651  12.505   5.925   2.614
46252SOL     OW40652  13.248   3.125   0.170
46252SOL    HW140653  13.237   3.219   0.154
46252SOL    HW240654  13.326   3.119   0.225
46253SOL     OW40655  12.413  12.813   1.516
46253SOL    HW140656  12.465  12.781   1.443
46253SOL    HW240657  12.376  12.896   1.484
46254SOL     OW40658   7.686  11.528  12.641
46254SOL    HW140659   7.596  11.527  12.674
46254SOL    HW240660   7.686  11.466  12.569
46255SOL     OW40661   3.928   7.008  14.755
46255SOL    HW140662   3.973   7.016  14.839
46255SOL    HW240663   3.997   6.987  14.692
46256SOL     OW40664   1.182   2.620  11.955
46256SOL    HW140665   1.249   2.552  11.950
46256SOL    HW240666   1.142   2.607  12.041
46257SOL     OW40667   5.326   4.179   5.028
46257SOL    HW140668   5.405   4.226   4.999
46257SOL    HW240669   5.326   4.099   4.975
46258SOL     OW40670  10.424   2.328  13.105
46258SOL    HW140671  10.514   2.357  13.087
46258SOL    HW240672  10.407   2.358  13.194
46259SOL     OW40673   8.519   0.710   8.903
46259SOL    HW140674   8.451   0.766   8.865
46259SOL    HW240675   8.601   0.754   8.881
46260SOL     OW40676   2.126   6.378  13.412
46260SOL    HW140677   2.109   6.440  13.341
46260SOL    HW240678   2.119   6.431  13.491
46261SOL     OW40679  14.215   4.747   3.258
46261SOL    HW140680  14.136   4.693   3.257
46261SOL    HW240681  14.190   4.828   3.216
46262SOL     OW40682   6.455   3.351   8.642
46262SOL    HW140683   6.514   3.420   8.673
46262SOL    HW240684   6.445   3.368   8.549
46263SOL     OW40685  10.089  11.936   9.482
46263SOL    HW140686  10.063  12.023   9.452
46263SOL    HW240687  10.009  11.884   9.476
46264SOL     OW40688   9.083  13.170   3.350
46264SOL    HW140689   9.002  13.167   3.299
46264SOL    HW240690   9.054  13.158   3.441
46265SOL     OW40691   8.814   1.874  10.562
46265SOL    HW140692   8.820   1.936  10.635
46265SOL    HW240693   8.825   1.788  10.602
46266SOL     OW40694   0.621   8.475   7.466
46266SOL    HW140695   0.675   8.537   7.416
46266SOL    HW240696   0.545   8.459   7.409
46267SOL     OW40697   1.489   8.435  11.074
46267SOL    HW140698   1.584   8.439  11.082
46267SOL    HW240699   1.470   8.482  10.992
46268SOL     OW40700   4.367  12.333   9.823
46268SOL    HW140701   4.307  12.298   9.888
46268SOL    HW240702   4.445  12.356   9.872
46269SOL     OW40703  10.842   1.833   8.992
46269SOL    HW140704  10.936   1.847   8.995
46269SOL    HW240705  10.807   1.912   8.950
46270SOL     OW40706   1.941   9.039   9.110
46270SOL    HW140707   1.928   9.022   9.203
46270SOL    HW240708   1.856   9.019   9.070
46271SOL     OW40709  14.269  14.781   5.018
46271SOL    HW140710  14.228  14.855   5.064
46271SOL    HW240711  14.196  14.737   4.974
46272SOL     OW40712   8.205   9.771  11.197
46272SOL    HW140713   8.293   9.808  11.190
46272SOL    HW240714   8.216   9.680  11.168
46273SOL     OW40715  13.954   5.294  12.555
46273SOL    HW140716  14.005   5.364  12.514
46273SOL    HW240717  13.984   5.214  12.511
46274SOL     OW40718   6.079  12.523   4.744
46274SOL    HW140719   6.126  12.596   4.784
46274SOL    HW240720   6.124  12.507   4.661
46275SOL     OW40721   7.008   8.596  12.122
46275SOL    HW140722   7.061   8.519  12.139
46275SOL    HW240723   6.978   8.585  12.032
46276SOL     OW40724   2.603   6.254   8.122
46276SOL    HW140725   2.520   6.296   8.103
46276SOL    HW240726   2.599   6.171   8.075
46277SOL     OW40727  11.770   5.313   4.767
46277SOL    HW140728  11.756   5.326   4.861
46277SOL    HW240729  11.748   5.221   4.753
46278SOL     OW40730  10.885   7.064   3.932
46278SOL    HW140731  10.864   7.004   3.861
46278SOL    HW240732  10.943   7.015   3.990
46279SOL     OW40733   7.502  10.386   7.847
46279SOL    HW140734   7.470  10.470   7.880
46279SOL    HW240735   7.544  10.408   7.764
46280SOL     OW40736  13.660  14.363  10.509
46280SOL    HW140737  13.619  14.413  10.579
46280SOL    HW240738  13.722  14.305  10.553
46281SOL     OW40739   4.688   6.387   4.214
46281SOL    HW140740   4.611   6.418   4.262
46281SOL    HW240741   4.723   6.466   4.172
46282SOL     OW40742  11.993  11.903  14.645
46282SOL    HW140743  12.027  11.943  14.565
46282SOL    HW240744  12.049  11.938  14.715
46283SOL     OW40745   0.752   3.778   1.094
46283SOL    HW140746   0.770   3.782   1.188
46283SOL    HW240747   0.826   3.729   1.057
46284SOL     OW40748   2.858   9.423   6.500
46284SOL    HW140749   2.863   9.512   6.535
46284SOL    HW240750   2.848   9.367   6.577
46285SOL     OW40751   1.861   0.770  13.224
46285SOL    HW140752   1.818   0.730  13.148
46285SOL    HW240753   1.814   0.853  13.236
46286SOL     OW40754  12.028  12.818   9.297
46286SOL    HW140755  12.021  12.908   9.331
46286SOL    HW240756  12.105  12.820   9.241
46287SOL     OW40757  11.786  13.293   9.683
46287SOL    HW140758  11.729  13.296   9.606
46287SOL    HW240759  11.860  13.350   9.659
46288SOL     OW40760   0.690   2.140   7.671
46288SOL    HW140761   0.716   2.128   7.762
46288SOL    HW240762   0.766   2.111   7.620
46289SOL     OW40763   2.080  14.245  12.928
46289SOL    HW140764   1.992  14.283  12.934
46289SOL    HW240765   2.127  14.304  12.868
46290SOL     OW40766   6.184   7.346  14.628
46290SOL    HW140767   6.167   7.440  14.619
46290SOL    HW240768   6.259   7.329  14.570
46291SOL     OW40769   0.642   9.765  13.782
46291SOL    HW140770   0.566   9.729  13.828
46291SOL    HW240771   0.710   9.773  13.849
46292SOL     OW40772   1.932   2.275  13.340
46292SOL    HW140773   2.020   2.254  13.307
46292SOL    HW240774   1.921   2.368  13.322
46293SOL     OW40775   3.781   4.091  13.658
46293SOL    HW140776   3.859   4.113  13.710
46293SOL    HW240777   3.711   4.082  13.723
46294SOL     OW40778   8.862   1.241  11.300
46294SOL    HW140779   8.932   1.204  11.246
46294SOL    HW240780   8.810   1.166  11.326
46295SOL     OW40781   5.890   2.602   0.177
46295SOL    HW140782   5.975   2.567   0.203
46295SOL    HW240783   5.894   2.605   0.081
46296SOL     OW40784   1.745   9.760   2.314
46296SOL    HW140785   1.743   9.665   2.305
46296SOL    HW240786   1.730   9.777   2.407
46297SOL     OW40787  11.298  11.256  13.031
46297SOL    HW140788  11.317  11.285  12.942
46297SOL    HW240789  11.287  11.337  13.081
46298SOL     OW40790   3.256   9.752   4.995
46298SOL    HW140791   3.309   9.710   5.062
46298SOL    HW240792   3.183   9.791   5.043
46299SOL     OW40793   5.530   8.309   0.978
46299SOL    HW140794   5.484   8.281   0.899
46299SOL    HW240795   5.467   8.365   1.023
46300SOL     OW40796   5.439   6.604   9.279
46300SOL    HW140797   5.411   6.689   9.314
46300SOL    HW240798   5.424   6.543   9.351
46301SOL     OW40799   7.086  12.402   3.468
46301SOL    HW140800   7.061  12.454   3.545
46301SOL    HW240801   7.182  12.403   3.468
46302SOL     OW40802   8.289  10.712   6.140
46302SOL    HW140803   8.371  10.663   6.154
46302SOL    HW240804   8.262  10.739   6.228
46303SOL     OW40805  11.837  12.743   1.204
46303SOL    HW140806  11.894  12.764   1.130
46303SOL    HW240807  11.778  12.676   1.170
46304SOL     OW40808   0.876   6.026   8.377
46304SOL    HW140809   0.969   6.039   8.358
46304SOL    HW240810   0.831   6.060   8.300
46305SOL     OW40811   1.962  13.887   8.702
46305SOL    HW140812   2.016  13.930   8.637
46305SOL    HW240813   2.020  13.874   8.777
46306SOL     OW40814  14.756   7.218   6.018
46306SOL    HW140815  14.678   7.257   6.058
46306SOL    HW240816  14.729   7.196   5.929
46307SOL     OW40817   7.507   9.438   3.923
46307SOL    HW140818   7.487   9.368   3.861
46307SOL    HW240819   7.493   9.518   3.873
46308SOL     OW40820   7.449   1.360   8.805
46308SOL    HW140821   7.485   1.295   8.745
46308SOL    HW240822   7.433   1.311   8.886
46309SOL     OW40823  12.238   2.629  12.802
46309SOL    HW140824  12.238   2.591  12.889
46309SOL    HW240825  12.220   2.722  12.817
46310SOL     OW40826   6.440   6.295   3.577
46310SOL    HW140827   6.503   6.283   3.506
46310SOL    HW240828   6.354   6.287   3.535
46311SOL     OW40829  11.417   4.858  14.343
46311SOL    HW140830  11.387   4.807  14.267
46311SOL    HW240831  11.447   4.792  14.406
46312SOL     OW40832  12.583  11.374   3.534
46312SOL    HW140833  12.625  11.356   3.450
46312SOL    HW240834  12.514  11.308   3.540
46313SOL     OW40835   1.554   9.764  14.586
46313SOL    HW140836   1.621   9.700  14.562
46313SOL    HW240837   1.477   9.712  14.608
46314SOL     OW40838   1.827  14.557  10.768
46314SOL    HW140839   1.781  14.495  10.712
46314SOL    HW240840   1.764  14.578  10.837
46315SOL     OW40841  13.215   6.125  12.328
46315SOL    HW140842  13.121   6.114  12.323
46315SOL    HW240843  13.234   6.129  12.422
46316SOL     OW40844   1.755  12.872  11.748
46316SOL    HW140845   1.776  12.957  11.710
46316SOL    HW240846   1.762  12.885  11.843
46317SOL     OW40847  12.036   2.926   4.136
46317SOL    HW140848  12.091   2.958   4.208
46317SOL    HW240849  12.080   2.957   4.057
46318SOL     OW40850   8.783  13.585  13.048
46318SOL    HW140851   8.768  13.494  13.023
46318SOL    HW240852   8.865  13.610  13.005
46319SOL     OW40853  14.041   5.423  14.858
46319SOL    HW140854  13.978   5.412   0.049
46319SOL    HW240855  14.077   5.511  14.871
46320SOL     OW40856   6.788   0.200   1.806
46320SOL    HW140857   6.868   0.243   1.840
46320SOL    HW240858   6.718   0.236   1.860
46321SOL     OW40859  13.026   3.412  13.154
46321SOL    HW140860  13.095   3.423  13.088
46321SOL    HW240861  13.049   3.475  13.223
46322SOL     OW40862   5.591   4.058  12.491
46322SOL    HW140863   5.520   4.116  12.464
46322SOL    HW240864   5.666   4.116  12.504
46323SOL     OW40865   5.456   2.034   7.441
46323SOL    HW140866   5.522   2.031   7.510
46323SOL    HW240867   5.451   2.126   7.415
46324SOL     OW40868   1.568   6.223   1.441
46324SOL    HW140869   1.584   6.190   1.529
46324SOL    HW240870   1.511   6.299   1.453
46325SOL     OW40871  11.064   2.519  12.191
46325SOL    HW140872  11.125   2.562  12.132
46325SOL    HW240873  10.995   2.485  12.135
46326SOL     OW40874   2.375  14.038   1.459
46326SOL    HW140875   2.439  14.069   1.395
46326SOL    HW240876   2.377  13.943   1.452
46327SOL     OW40877   7.506  13.128   7.509
46327SOL    HW140878   7.549  13.144   7.425
46327SOL    HW240879   7.429  13.185   7.507
46328SOL     OW40880  12.548   9.872   2.366
46328SOL    HW140881  12.466   9.922   2.371
46328SOL    HW240882  12.606   9.927   2.313
46329SOL     OW40883   4.873   1.259   5.975
46329SOL    HW140884   4.782   1.280   5.952
46329SOL    HW240885   4.885   1.169   5.945
46330SOL     OW40886  10.210   0.319   1.498
46330SOL    HW140887  10.115   0.317   1.510
46330SOL    HW240888  10.241   0.382   1.563
46331SOL     OW40889   3.608   2.825   5.876
46331SOL    HW140890   3.521   2.864   5.861
46331SOL    HW240891   3.669   2.896   5.858
46332SOL     OW40892   3.679  14.444   7.963
46332SOL    HW140893   3.743  14.418   7.896
46332SOL    HW240894   3.670  14.539   7.952
46333SOL     OW40895   6.485  12.654   4.134
46333SOL    HW140896   6.550  12.657   4.064
46333SOL    HW240897   6.401  12.648   4.090
46334SOL     OW40898   6.619   5.672   5.867
46334SOL    HW140899   6.526   5.654   5.877
46334SOL    HW240900   6.623   5.747   5.807
46335SOL     OW40901   4.165  13.554   3.260
46335SOL    HW140902   4.211  13.470   3.262
46335SOL    HW240903   4.231  13.618   3.234
46336SOL     OW40904   7.324  12.059   7.085
46336SOL    HW140905   7.311  12.154   7.084
46336SOL    HW240906   7.242  12.023   7.052
46337SOL     OW40907   6.840   5.976   1.975
46337SOL    HW140908   6.767   5.915   1.983
46337SOL    HW240909   6.799   6.060   1.956
46338SOL     OW40910   1.008   2.175   1.053
46338SOL    HW140911   1.001   2.216   0.967
46338SOL    HW240912   0.963   2.235   1.112
46339SOL     OW40913  13.111  11.918  10.930
46339SOL    HW140914  13.175  11.954  10.991
46339SOL    HW240915  13.027  11.927  10.976
46340SOL     OW40916  10.092   1.937   2.131
46340SOL    HW140917  10.135   2.017   2.099
46340SOL    HW240918  10.088   1.879   2.055
46341SOL     OW40919  10.395   0.759   4.351
46341SOL    HW140920  10.485   0.730   4.338
46341SOL    HW240921  10.400   0.855   4.351
46342SOL     OW40922  12.379   0.841   6.822
46342SOL    HW140923  12.452   0.820   6.880
46342SOL    HW240924  12.365   0.935   6.834
46343SOL     OW40925   5.665   3.645   3.390
46343SOL    HW140926   5.669   3.711   3.459
46343SOL    HW240927   5.586   3.667   3.341
46344SOL     OW40928   5.469  13.252   3.729
46344SOL    HW140929   5.527  13.294   3.666
46344SOL    HW240930   5.383  13.255   3.688
46345SOL     OW40931   1.985   5.067   8.518
46345SOL    HW140932   2.021   5.144   8.562
46345SOL    HW240933   2.045   5.052   8.444
46346SOL     OW40934  10.116  13.360   0.828
46346SOL    HW140935  10.139  13.291   0.890
46346SOL    HW240936  10.057  13.417   0.877
46347SOL     OW40937   6.749   9.786  13.764
46347SOL    HW140938   6.664   9.755  13.731
46347SOL    HW240939   6.727   9.832  13.846
46348SOL     OW40940  12.055   5.153   0.058
46348SOL    HW140941  12.052   5.217  14.867
46348SOL    HW240942  12.066   5.205   0.138
46349SOL     OW40943   7.288  12.893   5.193
46349SOL    HW140944   7.223  12.907   5.124
46349SOL    HW240945   7.255  12.819   5.243
46350SOL     OW40946   2.059  12.738   5.940
46350SOL    HW140947   2.123  12.691   5.995
46350SOL    HW240948   2.112  12.777   5.871
46351SOL     OW40949   8.359   0.124   7.924
46351SOL    HW140950   8.436   0.067   7.932
46351SOL    HW240951   8.386   0.207   7.961
46352SOL     OW40952   5.145   6.532  11.289
46352SOL    HW140953   5.117   6.493  11.207
46352SOL    HW240954   5.223   6.583  11.267
46353SOL     OW40955   8.563   2.279   4.240
46353SOL    HW140956   8.643   2.330   4.230
46353SOL    HW240957   8.546   2.280   4.334
46354SOL     OW40958   0.115   9.174   1.817
46354SOL    HW140959   0.202   9.138   1.796
46354SOL    HW240960   0.054   9.120   1.767
46355SOL     OW40961   3.461  11.115  11.479
46355SOL    HW140962   3.405  11.176  11.431
46355SOL    HW240963   3.538  11.105  11.423
46356SOL     OW40964  14.709   3.918   5.399
46356SOL    HW140965  14.667   3.908   5.314
46356SOL    HW240966  14.789   3.866   5.393
46357SOL     OW40967  14.367   9.208   8.013
46357SOL    HW140968  14.331   9.259   8.085
46357SOL    HW240969  14.291   9.191   7.956
46358SOL     OW40970   6.061   5.528   3.213
46358SOL    HW140971   6.085   5.567   3.129
46358SOL    HW240972   6.137   5.545   3.269
46359SOL     OW40973   6.017  10.991   0.515
46359SOL    HW140974   6.049  11.079   0.493
46359SOL    HW240975   5.940  11.007   0.570
46360SOL     OW40976   6.533  11.826   7.944
46360SOL    HW140977   6.477  11.840   7.867
46360SOL    HW240978   6.518  11.735   7.969
46361SOL     OW40979   3.041   0.955   5.044
46361SOL    HW140980   2.976   1.018   5.075
46361SOL    HW240981   3.034   0.881   5.106
46362SOL     OW40982   9.697   1.082   7.129
46362SOL    HW140983   9.778   1.065   7.177
46362SOL    HW240984   9.661   1.160   7.171
46363SOL     OW40985  10.117   0.168   0.213
46363SOL    HW140986  10.061   0.137   0.142
46363SOL    HW240987  10.206   0.143   0.186
46364SOL     OW40988   8.607   0.833  11.701
46364SOL    HW140989   8.555   0.753  11.713
46364SOL    HW240990   8.693   0.812  11.737
46365SOL     OW40991   2.998   2.374   3.048
46365SOL    HW140992   2.993   2.300   3.108
46365SOL    HW240993   2.944   2.349   2.973
46366SOL     OW40994   1.210  10.920   3.355
46366SOL    HW140995   1.215  10.872   3.437
46366SOL    HW240996   1.261  10.868   3.293
46367SOL     OW40997   4.259  10.831   0.984
46367SOL    HW140998   4.200  10.786   1.044
46367SOL    HW240999   4.347  10.807   1.015
46368SOL     OW41000   7.259   0.205  11.386
46368SOL    HW141001   7.294   0.139  11.325
46368SOL    HW241002   7.164   0.197  11.378
46369SOL     OW41003   3.311   0.684   9.167
46369SOL    HW141004   3.303   0.592   9.144
46369SOL    HW241005   3.226   0.722   9.144
46370SOL     OW41006   7.822   8.131   1.986
46370SOL    HW141007   7.830   8.194   2.058
46370SOL    HW241008   7.881   8.060   2.010
46371SOL     OW41009   8.709   0.292  10.783
46371SOL    HW141010   8.754   0.362  10.736
46371SOL    HW241011   8.630   0.275  10.731
46372SOL     OW41012  12.846  10.986  11.689
46372SOL    HW141013  12.820  11.006  11.779
46372SOL    HW241014  12.934  10.949  11.696
46373SOL     OW41015   5.248   3.927   7.646
46373SOL    HW141016   5.267   3.850   7.593
46373SOL    HW241017   5.227   3.995   7.582
46374SOL     OW41018   6.955   0.823   9.115
46374SOL    HW141019   7.009   0.844   9.192
46374SOL    HW241020   6.925   0.908   9.083
46375SOL     OW41021   0.694   1.875   6.379
46375SOL    HW141022   0.717   1.798   6.431
46375SOL    HW241023   0.764   1.881   6.314
46376SOL     OW41024   6.416  13.243  13.998
46376SOL    HW141025   6.423  13.207  13.910
46376SOL    HW241026   6.475  13.189  14.051
46377SOL     OW41027   7.537   8.062   2.000
46377SOL    HW141028   7.627   8.063   2.034
46377SOL    HW241029   7.541   8.003   1.925
46378SOL     OW41030  13.770   6.777   9.201
46378SOL    HW141031  13.756   6.869   9.182
46378SOL    HW241032  13.855   6.774   9.246
46379SOL     OW41033   3.523   8.717   5.888
46379SOL    HW141034   3.428   8.726   5.888
46379SOL    HW241035   3.547   8.709   5.981
46380SOL     OW41036  12.297   2.942   9.211
46380SOL    HW141037  12.209   2.949   9.247
46380SOL    HW241038  12.316   3.028   9.174
46381SOL     OW41039   2.562  10.905   7.191
46381SOL    HW141040   2.609  10.963   7.252
46381SOL    HW241041   2.626  10.838   7.168
46382SOL     OW41042   8.442   4.214   7.062
46382SOL    HW141043   8.459   4.241   6.972
46382SOL    HW241044   8.347   4.222   7.072
46383SOL     OW41045   9.915   9.075   9.515
46383SOL    HW141046   9.826   9.071   9.550
46383SOL    HW241047   9.911   9.021   9.436
46384SOL     OW41048  10.518   9.539  11.384
46384SOL    HW141049  10.587   9.473  11.379
46384SOL    HW241050  10.470   9.518  11.464
46385SOL     OW41051   8.314  13.025  12.902
46385SOL    HW141052   8.249  12.978  12.955
46385SOL    HW241053   8.330  12.967  12.828
46386SOL     OW41054   4.396  10.543  11.131
46386SOL    HW141055   4.433  10.535  11.043
46386SOL    HW241056   4.341  10.465  11.141
46387SOL     OW41057  12.903  11.349   5.885
46387SOL    HW141058  12.829  11.409   5.897
46387SOL    HW241059  12.904  11.296   5.966
46388SOL     OW41060   4.349   6.136   5.231
46388SOL    HW141061   4.421   6.199   5.227
46388SOL    HW241062   4.383   6.064   5.284
46389SOL     OW41063   0.818   9.825  12.592
46389SOL    HW141064   0.813   9.918  12.573
46389SOL    HW241065   0.796   9.782  12.509
46390SOL     OW41066  14.115  14.034  12.675
46390SOL    HW141067  14.022  14.057  12.682
46390SOL    HW241068  14.152  14.062  12.759
46391SOL     OW41069  12.277  12.206   4.513
46391SOL    HW141070  12.185  12.193   4.489
46391SOL    HW241071  12.303  12.124   4.554
46392SOL     OW41072  14.853   5.147  14.036
46392SOL    HW141073  14.846   5.227  14.088
46392SOL    HW241074  14.768   5.105  14.045
46393SOL     OW41075  12.695  11.750   4.161
46393SOL    HW141076  12.765  11.787   4.214
46393SOL    HW241077  12.731  11.668   4.127
46394SOL     OW41078   4.181   4.624   8.070
46394SOL    HW141079   4.208   4.533   8.085
46394SOL    HW241080   4.138   4.622   7.984
46395SOL     OW41081   3.578   6.420  14.571
46395SOL    HW141082   3.601   6.512  14.564
46395SOL    HW241083   3.488   6.420  14.605
46396SOL     OW41084   0.835  13.591   1.330
46396SOL    HW141085   0.818  13.510   1.378
46396SOL    HW241086   0.757  13.605   1.277
46397SOL     OW41087   1.968   7.973  10.360
46397SOL    HW141088   1.998   7.882  10.356
46397SOL    HW241089   2.046   8.023  10.385
46398SOL     OW41090   5.565   6.252   9.866
46398SOL    HW141091   5.610   6.303   9.799
46398SOL    HW241092   5.568   6.162   9.834
46399SOL     OW41093  10.499   6.624   1.862
46399SOL    HW141094  10.557   6.629   1.938
46399SOL    HW241095  10.555   6.589   1.792
46400SOL     OW41096  11.294   8.286  12.240
46400SOL    HW141097  11.383   8.254  12.222
46400SOL    HW241098  11.307   8.367  12.288
46401SOL     OW41099  11.353   1.261  11.947
46401SOL    HW141100  11.366   1.356  11.954
46401SOL    HW241101  11.353   1.230  12.038
46402SOL     OW41102   2.264  10.938   3.966
46402SOL    HW141103   2.358  10.951   3.956
46402SOL    HW241104   2.226  11.026   3.963
46403SOL     OW41105   4.261   4.417   6.847
46403SOL    HW141106   4.198   4.473   6.802
46403SOL    HW241107   4.267   4.339   6.791
46404SOL     OW41108  10.565   7.756  14.585
46404SOL    HW141109  10.519   7.756  14.502
46404SOL    HW241110  10.558   7.847  14.616
46405SOL     OW41111   3.538  10.687   9.523
46405SOL    HW141112   3.473  10.618   9.535
46405SOL    HW241113   3.488  10.768   9.525
46406SOL     OW41114   0.856   2.227  13.482
46406SOL    HW141115   0.948   2.214  13.459
46406SOL    HW241116   0.817   2.139  13.480
46407SOL     OW41117   6.917   8.117   9.957
46407SOL    HW141118   6.842   8.125   9.897
46407SOL    HW241119   6.915   8.198  10.008
46408SOL     OW41120  11.383   7.342   0.974
46408SOL    HW141121  11.473   7.343   1.005
46408SOL    HW241122  11.331   7.328   1.053
46409SOL     OW41123   3.132   0.364   3.652
46409SOL    HW141124   3.208   0.366   3.711
46409SOL    HW241125   3.100   0.454   3.651
46410SOL     OW41126   9.141  13.150  14.207
46410SOL    HW141127   9.096  13.176  14.126
46410SOL    HW241128   9.125  13.056  14.214
46411SOL     OW41129   6.738  10.452   2.355
46411SOL    HW141130   6.687  10.524   2.392
46411SOL    HW241131   6.672  10.391   2.320
46412SOL     OW41132  12.750   4.365  14.808
46412SOL    HW141133  12.724   4.407  14.726
46412SOL    HW241134  12.715   4.423  14.876
46413SOL     OW41135   1.580   1.229  11.329
46413SOL    HW141136   1.642   1.194  11.264
46413SOL    HW241137   1.557   1.316  11.296
46414SOL     OW41138   1.475   6.071  13.318
46414SOL    HW141139   1.555   6.044  13.363
46414SOL    HW241140   1.470   6.166  13.333
46415SOL     OW41141   5.452  10.494   2.916
46415SOL    HW141142   5.388  10.439   2.961
46415SOL    HW241143   5.533  10.442   2.919
46416SOL     OW41144   0.746   1.308   9.713
46416SOL    HW141145   0.750   1.362   9.792
46416SOL    HW241146   0.765   1.219   9.744
46417SOL     OW41147   9.515   2.899  14.074
46417SOL    HW141148   9.436   2.846  14.073
46417SOL    HW241149   9.525   2.925  14.166
46418SOL     OW41150   8.005   0.450   7.287
46418SOL    HW141151   7.957   0.468   7.368
46418SOL    HW241152   7.961   0.374   7.249
46419SOL     OW41153  11.445   9.613  12.074
46419SOL    HW141154  11.499   9.536  12.055
46419SOL    HW241155  11.507   9.686  12.075
46420SOL     OW41156  10.810   2.631  10.843
46420SOL    HW141157  10.818   2.641  10.938
46420SOL    HW241158  10.750   2.557  10.831
46421SOL     OW41159   0.789   9.870  14.621
46421SOL    HW141160   0.718   9.819  14.661
46421SOL    HW241161   0.854   9.879  14.690
46422SOL     OW41162   0.570   5.144   6.546
46422SOL    HW141163   0.660   5.139   6.512
46422SOL    HW241164   0.518   5.097   6.481
46423SOL     OW41165  13.902   0.242   9.938
46423SOL    HW141166  13.826   0.194   9.970
46423SOL    HW241167  13.961   0.249  10.013
46424SOL     OW41168   4.875   4.266  11.929
46424SOL    HW141169   4.783   4.290  11.918
46424SOL    HW241170   4.924   4.344  11.902
46425SOL     OW41171   0.203   4.060  10.096
46425SOL    HW141172   0.262   4.135  10.088
46425SOL    HW241173   0.242   4.006  10.165
46426SOL     OW41174   8.808   5.096   7.229
46426SOL    HW141175   8.899   5.103   7.257
46426SOL    HW241176   8.813   5.053   7.143
46427SOL     OW41177   1.703   6.251   6.158
46427SOL    HW141178   1.704   6.335   6.113
46427SOL    HW241179   1.785   6.249   6.207
46428SOL     OW41180   7.335  11.819   7.587
46428SOL    HW141181   7.362  11.836   7.497
46428SOL    HW241182   7.386  11.882   7.639
46429SOL     OW41183   1.830   4.389   8.655
46429SOL    HW141184   1.828   4.484   8.643
46429SOL    HW241185   1.831   4.354   8.565
46430SOL     OW41186  11.123   1.701   5.914
46430SOL    HW141187  11.131   1.753   5.993
46430SOL    HW241188  11.186   1.630   5.926
46431SOL     OW41189   9.424   5.635   8.426
46431SOL    HW141190   9.514   5.670   8.425
46431SOL    HW241191   9.371   5.708   8.460
46432SOL     OW41192   5.129   0.965  13.847
46432SOL    HW141193   5.052   0.974  13.903
46432SOL    HW241194   5.112   1.024  13.773
46433SOL     OW41195   1.670  10.261  10.868
46433SOL    HW141196   1.605  10.193  10.886
46433SOL    HW241197   1.724  10.264  10.947
46434SOL     OW41198   7.204   8.362   9.561
46434SOL    HW141199   7.149   8.383   9.636
46434SOL    HW241200   7.245   8.279   9.583
46435SOL     OW41201   3.473  10.869  10.975
46435SOL    HW141202   3.474  10.964  10.972
46435SOL    HW241203   3.399  10.847  11.032
46436SOL     OW41204  12.290   8.992   8.858
46436SOL    HW141205  12.364   9.051   8.868
46436SOL    HW241206  12.250   9.017   8.774
46437SOL     OW41207  11.838   4.954   1.584
46437SOL    HW141208  11.820   5.041   1.620
46437SOL    HW241209  11.825   4.965   1.490
46438SOL     OW41210   8.614  13.165  13.490
46438SOL    HW141211   8.619  13.204  13.577
46438SOL    HW241212   8.632  13.072  13.504
46439SOL     OW41213   1.811   5.284   9.541
46439SOL    HW141214   1.892   5.284   9.591
46439SOL    HW241215   1.755   5.220   9.587
46440SOL     OW41216   2.256  13.676   0.541
46440SOL    HW141217   2.245  13.743   0.474
46440SOL    HW241218   2.241  13.721   0.624
46441SOL     OW41219  10.447   1.322  10.054
46441SOL    HW141220  10.361   1.302  10.019
46441SOL    HW241221  10.432   1.394  10.116
46442SOL     OW41222   5.887   1.251  14.108
46442SOL    HW141223   5.855   1.313  14.174
46442SOL    HW241224   5.810   1.199  14.085
46443SOL     OW41225   6.990   9.707  14.555
46443SOL    HW141226   7.005   9.797  14.583
46443SOL    HW241227   7.076   9.667  14.554
46444SOL     OW41228  11.345   8.906  14.294
46444SOL    HW141229  11.385   8.978  14.342
46444SOL    HW241230  11.418   8.847  14.275
46445SOL     OW41231   5.897   6.969   6.472
46445SOL    HW141232   5.926   6.899   6.530
46445SOL    HW241233   5.978   7.004   6.435
46446SOL     OW41234   8.179   6.153   5.283
46446SOL    HW141235   8.094   6.182   5.250
46446SOL    HW241236   8.176   6.172   5.377
46447SOL     OW41237  10.494  14.389  14.512
46447SOL    HW141238  10.482  14.348  14.427
46447SOL    HW241239  10.456  14.327  14.574
46448SOL     OW41240   6.492   5.503   8.796
46448SOL    HW141241   6.507   5.469   8.708
46448SOL    HW241242   6.411   5.553   8.790
46449SOL     OW41243  12.668   6.086  14.688
46449SOL    HW141244  12.736   6.049  14.633
46449SOL    HW241245  12.586   6.058  14.647
46450SOL     OW41246   0.955   5.165   3.352
46450SOL    HW141247   0.922   5.087   3.397
46450SOL    HW241248   0.921   5.157   3.263
46451SOL     OW41249   5.627   4.086   9.957
46451SOL    HW141250   5.712   4.064   9.996
46451SOL    HW241251   5.567   4.021   9.993
46452SOL     OW41252  14.788  14.016   2.615
46452SOL    HW141253  14.761  13.924   2.620
46452SOL    HW241254  14.849  14.027   2.687
46453SOL     OW41255   8.096   7.783  10.623
46453SOL    HW141256   8.002   7.764  10.618
46453SOL    HW241257   8.110   7.817  10.711
46454SOL     OW41258  14.758   9.080   3.415
46454SOL    HW141259  14.687   9.113   3.470
46454SOL    HW241260  14.743   8.985   3.411
46455SOL     OW41261  14.137   9.845  13.033
46455SOL    HW141262  14.095   9.852  12.947
46455SOL    HW241263  14.146   9.936  13.062
46456SOL     OW41264   6.566  10.540  13.591
46456SOL    HW141265   6.625  10.465  13.582
46456SOL    HW241266   6.513  10.538  13.512
46457SOL     OW41267  12.360   4.387   6.134
46457SOL    HW141268  12.442   4.353   6.096
46457SOL    HW241269  12.294   4.370   6.067
46458SOL     OW41270  10.848   5.674  12.130
46458SOL    HW141271  10.938   5.652  12.157
46458SOL    HW241272  10.793   5.623  12.189
46459SOL     OW41273   9.575   4.113   8.475
46459SOL    HW141274   9.521   4.163   8.414
46459SOL    HW241275   9.565   4.022   8.447
46460SOL     OW41276   3.045   0.569   9.367
46460SOL    HW141277   3.117   0.508   9.354
46460SOL    HW241278   3.056   0.635   9.298
46461SOL     OW41279   2.831  12.083  12.806
46461SOL    HW141280   2.921  12.082  12.775
46461SOL    HW241281   2.778  12.072  12.727
46462SOL     OW41282   8.335  10.596  11.222
46462SOL    HW141283   8.305  10.656  11.154
46462SOL    HW241284   8.272  10.607  11.293
46463SOL     OW41285   1.133   1.175  10.584
46463SOL    HW141286   1.116   1.161  10.491
46463SOL    HW241287   1.159   1.089  10.617
46464SOL     OW41288  10.542   5.802   0.898
46464SOL    HW141289  10.483   5.726   0.895
46464SOL    HW241290  10.552   5.821   0.991
46465SOL     OW41291  12.601   2.210   2.014
46465SOL    HW141292  12.563   2.128   1.985
46465SOL    HW241293  12.574   2.274   1.947
46466SOL     OW41294  10.369  13.597  12.027
46466SOL    HW141295  10.287  13.646  12.032
46466SOL    HW241296  10.393  13.600  11.934
46467SOL     OW41297   9.351   1.937   5.255
46467SOL    HW141298   9.265   1.947   5.215
46467SOL    HW241299   9.350   1.997   5.329
46468SOL     OW41300   4.272   5.392  13.445
46468SOL    HW141301   4.222   5.468  13.414
46468SOL    HW241302   4.237   5.318  13.396
46469SOL     OW41303   5.537   4.306   3.426
46469SOL    HW141304   5.605   4.271   3.368
46469SOL    HW241305   5.516   4.234   3.485
46470SOL     OW41306   5.733  14.152   5.695
46470SOL    HW141307   5.664  14.168   5.759
46470SOL    HW241308   5.778  14.074   5.728
46471SOL     OW41309   6.025   7.990   5.392
46471SOL    HW141310   6.053   7.918   5.336
46471SOL    HW241311   5.971   8.046   5.335
46472SOL     OW41312   3.837   4.960   2.933
46472SOL    HW141313   3.903   4.895   2.911
46472SOL    HW241314   3.799   4.985   2.849
46473SOL     OW41315   3.816  14.696   8.986
46473SOL    HW141316   3.777  14.608   8.977
46473SOL    HW241317   3.880  14.700   8.915
46474SOL     OW41318  14.207  11.631   7.002
46474SOL    HW141319  14.202  11.536   7.008
46474SOL    HW241320  14.175  11.652   6.915
46475SOL     OW41321   9.775   1.677  12.872
46475SOL    HW141322   9.690   1.648  12.902
46475SOL    HW241323   9.820   1.597  12.845
46476SOL     OW41324   1.394  14.789  12.370
46476SOL    HW141325   1.403  14.767  12.463
46476SOL    HW241326   1.312  14.838  12.365
46477SOL     OW41327   2.789   4.202   3.966
46477SOL    HW141328   2.799   4.211   4.060
46477SOL    HW241329   2.878   4.204   3.932
46478SOL     OW41330   4.217  14.377   2.289
46478SOL    HW141331   4.301  14.361   2.331
46478SOL    HW241332   4.155  14.325   2.341
46479SOL     OW41333   2.898   4.282   0.941
46479SOL    HW141334   2.955   4.351   0.907
46479SOL    HW241335   2.846   4.255   0.866
46480SOL     OW41336   2.626  14.156   2.568
46480SOL    HW141337   2.671  14.225   2.617
46480SOL    HW241338   2.611  14.087   2.633
46481SOL     OW41339   1.089  13.283   9.033
46481SOL    HW141340   1.021  13.327   8.982
46481SOL    HW241341   1.171  13.320   9.001
46482SOL     OW41342   8.059  10.540   0.299
46482SOL    HW141343   8.079  10.500   0.215
46482SOL    HW241344   8.122  10.503   0.360
46483SOL     OW41345  13.764   9.421   6.471
46483SOL    HW141346  13.835   9.388   6.526
46483SOL    HW241347  13.735   9.345   6.421
46484SOL     OW41348   9.723  11.418   3.104
46484SOL    HW141349   9.698  11.451   3.190
46484SOL    HW241350   9.707  11.324   3.109
46485SOL     OW41351   7.977  14.415   2.380
46485SOL    HW141352   8.001  14.323   2.389
46485SOL    HW241353   7.933  14.437   2.462
46486SOL     OW41354  11.944   7.627   2.025
46486SOL    HW141355  12.038   7.643   2.023
46486SOL    HW241356  11.936   7.533   2.037
46487SOL     OW41357   3.133   9.116  13.016
46487SOL    HW141358   3.225   9.104  12.995
46487SOL    HW241359   3.087   9.048  12.966
46488SOL     OW41360   5.935   5.056   2.096
46488SOL    HW141361   5.866   4.992   2.115
46488SOL    HW241362   5.991   5.013   2.031
46489SOL     OW41363   8.639   4.764   9.179
46489SOL    HW141364   8.606   4.792   9.265
46489SOL    HW241365   8.621   4.670   9.177
46490SOL     OW41366   2.864   0.414  11.082
46490SOL    HW141367   2.829   0.463  11.007
46490SOL    HW241368   2.846   0.471  11.157
46491SOL     OW41369   7.567   0.842   5.280
46491SOL    HW141370   7.531   0.872   5.197
46491SOL    HW241371   7.598   0.753   5.263
46492SOL     OW41372   3.472   1.706   5.147
46492SOL    HW141373   3.507   1.688   5.060
46492SOL    HW241374   3.452   1.799   5.146
46493SOL     OW41375   8.816   2.162   6.842
46493SOL    HW141376   8.744   2.177   6.903
46493SOL    HW241377   8.855   2.249   6.829
46494SOL     OW41378   1.321  11.596   5.026
46494SOL    HW141379   1.361  11.676   5.059
46494SOL    HW241380   1.321  11.536   5.101
46495SOL     OW41381   1.497   0.766   5.602
46495SOL    HW141382   1.443   0.705   5.552
46495SOL    HW241383   1.446   0.846   5.607
46496SOL     OW41384   0.628  13.627   1.154
46496SOL    HW141385   0.562  13.565   1.184
46496SOL    HW241386   0.579  13.704   1.126
46497SOL     OW41387   9.545   6.817  10.028
46497SOL    HW141388   9.621   6.852  10.074
46497SOL    HW241389   9.510   6.892   9.980
46498SOL     OW41390   9.432   8.555   5.154
46498SOL    HW141391   9.516   8.528   5.192
46498SOL    HW241392   9.389   8.473   5.131
46499SOL     OW41393   0.848  14.792  12.602
46499SOL    HW141394   0.893  14.708  12.601
46499SOL    HW241395   0.841  14.816  12.510
46500SOL     OW41396   6.248   5.938   7.709
46500SOL    HW141397   6.201   5.854   7.709
46500SOL    HW241398   6.283   5.945   7.798
46501SOL     OW41399   6.493   5.365   4.379
46501SOL    HW141400   6.437   5.288   4.393
46501SOL    HW241401   6.568   5.350   4.438
46502SOL     OW41402   2.795   5.206  10.063
46502SOL    HW141403   2.861   5.208   9.994
46502SOL    HW241404   2.835   5.154  10.133
46503SOL     OW41405   3.341   0.386  10.122
46503SOL    HW141406   3.342   0.354  10.032
46503SOL    HW241407   3.406   0.456  10.124
46504SOL     OW41408   0.906   5.989  13.371
46504SOL    HW141409   0.994   5.977  13.407
46504SOL    HW241410   0.921   6.030  13.286
46505SOL     OW41411  13.118   4.225   6.943
46505SOL    HW141412  13.088   4.255   6.857
46505SOL    HW241413  13.068   4.277   7.005
46506SOL     OW41414   1.563   3.132   2.881
46506SOL    HW141415   1.628   3.120   2.950
46506SOL    HW241416   1.569   3.052   2.828
46507SOL     OW41417  13.395   1.723  14.426
46507SOL    HW141418  13.303   1.744  14.444
46507SOL    HW241419  13.442   1.804  14.443
46508SOL     OW41420   1.168  11.794   9.057
46508SOL    HW141421   1.077  11.805   9.085
46508SOL    HW241422   1.167  11.712   9.007
46509SOL     OW41423  12.807   2.664   1.561
46509SOL    HW141424  12.798   2.705   1.647
46509SOL    HW241425  12.739   2.597   1.559
46510SOL     OW41426  14.570  11.381   1.829
46510SOL    HW141427  14.592  11.309   1.769
46510SOL    HW241428  14.485  11.412   1.799
46511SOL     OW41429   2.441   0.586   9.767
46511SOL    HW141430   2.480   0.534   9.836
46511SOL    HW241431   2.416   0.523   9.700
46512SOL     OW41432  12.506   5.190  12.145
46512SOL    HW141433  12.575   5.256  12.153
46512SOL    HW241434  12.428   5.240  12.121
46513SOL     OW41435   4.511   1.683   0.451
46513SOL    HW141436   4.564   1.606   0.471
46513SOL    HW241437   4.430   1.670   0.500
46514SOL     OW41438  12.160   6.880   2.272
46514SOL    HW141439  12.167   6.828   2.192
46514SOL    HW241440  12.104   6.827   2.330
46515SOL     OW41441   2.058   1.729   6.407
46515SOL    HW141442   1.966   1.712   6.385
46515SOL    HW241443   2.056   1.813   6.453
46516SOL     OW41444  12.059   9.604   2.552
46516SOL    HW141445  12.042   9.509   2.554
46516SOL    HW241446  12.147   9.611   2.514
46517SOL     OW41447   4.077   8.445   3.157
46517SOL    HW141448   3.992   8.406   3.136
46517SOL    HW241449   4.110   8.393   3.230
46518SOL     OW41450   8.236   1.740   0.414
46518SOL    HW141451   8.222   1.746   0.320
46518SOL    HW241452   8.238   1.830   0.445
46519SOL     OW41453   0.151   5.680   2.692
46519SOL    HW141454   0.242   5.651   2.700
46519SOL    HW241455   0.105   5.632   2.761
46520SOL     OW41456  10.534  13.963  11.220
46520SOL    HW141457  10.455  13.990  11.268
46520SOL    HW241458  10.565  14.043  11.178
46521SOL     OW41459   6.009   3.619   0.639
46521SOL    HW141460   6.064   3.549   0.604
46521SOL    HW241461   6.065   3.696   0.636
46522SOL     OW41462   2.503   3.853   3.468
46522SOL    HW141463   2.500   3.764   3.433
46522SOL    HW241464   2.502   3.842   3.563
46523SOL     OW41465  12.024  11.862   9.731
46523SOL    HW141466  12.023  11.769   9.755
46523SOL    HW241467  12.112  11.877   9.696
46524SOL     OW41468   2.939  14.575   4.115
46524SOL    HW141469   2.863  14.582   4.173
46524SOL    HW241470   3.013  14.564   4.174
46525SOL     OW41471  13.148   1.189   6.240
46525SOL    HW141472  13.200   1.232   6.308
46525SOL    HW241473  13.082   1.254   6.215
46526SOL     OW41474   9.282  12.479   8.596
46526SOL    HW141475   9.372  12.503   8.616
46526SOL    HW241476   9.254  12.544   8.532
46527SOL     OW41477   0.850  13.206  11.421
46527SOL    HW141478   0.920  13.265  11.447
46527SOL    HW241479   0.772  13.243  11.463
46528SOL     OW41480  13.707   2.227  10.062
46528SOL    HW141481  13.756   2.190   9.988
46528SOL    HW241482  13.650   2.157  10.091
46529SOL     OW41483  14.300   9.494   2.805
46529SOL    HW141484  14.381   9.444   2.812
46529SOL    HW241485  14.306   9.561   2.874
46530SOL     OW41486  10.709   9.268   7.002
46530SOL    HW141487  10.648   9.338   7.027
46530SOL    HW241488  10.655   9.206   6.953
46531SOL     OW41489   8.081   8.692  13.332
46531SOL    HW141490   8.064   8.688  13.238
46531SOL    HW241491   8.109   8.782  13.347
46532SOL     OW41492   8.185   2.487   1.335
46532SOL    HW141493   8.252   2.427   1.304
46532SOL    HW241494   8.104   2.438   1.329
46533SOL     OW41495   2.955   8.185   5.355
46533SOL    HW141496   2.979   8.251   5.291
46533SOL    HW241497   2.869   8.213   5.388
46534SOL     OW41498  10.503  10.966   4.067
46534SOL    HW141499  10.577  10.936   4.014
46534SOL    HW241500  10.536  10.962   4.157
46535SOL     OW41501  12.013   6.493  10.296
46535SOL    HW141502  12.075   6.559  10.328
46535SOL    HW241503  11.959   6.540  10.232
46536SOL     OW41504   3.853  14.143   4.908
46536SOL    HW141505   3.800  14.221   4.895
46536SOL    HW241506   3.810  14.075   4.857
46537SOL     OW41507   6.518   6.368  14.034
46537SOL    HW141508   6.432   6.388  13.998
46537SOL    HW241509   6.516   6.406  14.122
46538SOL     OW41510   6.246   8.029   9.157
46538SOL    HW141511   6.333   7.998   9.182
46538SOL    HW241512   6.263   8.097   9.091
46539SOL     OW41513   9.557   8.479   6.346
46539SOL    HW141514   9.520   8.513   6.428
46539SOL    HW241515   9.567   8.385   6.362
46540SOL     OW41516   2.571   6.379  14.381
46540SOL    HW141517   2.520   6.302  14.406
46540SOL    HW241518   2.566   6.381  14.285
46541SOL     OW41519  12.402   2.190  13.342
46541SOL    HW141520  12.317   2.218  13.377
46541SOL    HW241521  12.399   2.095  13.347
46542SOL     OW41522   5.470   1.309   9.421
46542SOL    HW141523   5.389   1.314   9.370
46542SOL    HW241524   5.505   1.222   9.402
46543SOL     OW41525   0.354  14.509   6.804
46543SOL    HW141526   0.331  14.418   6.821
46543SOL    HW241527   0.437  14.522   6.850
46544SOL     OW41528   9.313   1.042   6.323
46544SOL    HW141529   9.325   1.113   6.260
46544SOL    HW241530   9.383   0.980   6.305
46545SOL     OW41531   8.429  11.827   2.339
46545SOL    HW141532   8.478  11.844   2.259
46545SOL    HW241533   8.493  11.833   2.409
46546SOL     OW41534   4.195  13.804   6.877
46546SOL    HW141535   4.203  13.900   6.872
46546SOL    HW241536   4.247  13.772   6.804
46547SOL     OW41537   0.488   0.936  11.215
46547SOL    HW141538   0.473   0.862  11.155
46547SOL    HW241539   0.428   0.920  11.288
46548SOL     OW41540   6.605   1.263   2.498
46548SOL    HW141541   6.588   1.228   2.585
46548SOL    HW241542   6.697   1.291   2.500
46549SOL     OW41543   1.710   1.477   8.177
46549SOL    HW141544   1.778   1.545   8.186
46549SOL    HW241545   1.757   1.395   8.193
46550SOL     OW41546   5.983   4.653  13.698
46550SOL    HW141547   5.893   4.657  13.665
46550SOL    HW241548   5.981   4.583  13.763
46551SOL     OW41549  13.595  11.420   6.562
46551SOL    HW141550  13.600  11.398   6.655
46551SOL    HW241551  13.519  11.478   6.554
46552SOL     OW41552  11.943   9.651   4.346
46552SOL    HW141553  11.981   9.737   4.329
46552SOL    HW241554  11.865   9.670   4.398
46553SOL     OW41555   1.357  11.954   2.069
46553SOL    HW141556   1.424  12.013   2.035
46553SOL    HW241557   1.379  11.869   2.032
46554SOL     OW41558  11.690  14.586  10.103
46554SOL    HW141559  11.745  14.534  10.161
46554SOL    HW241560  11.634  14.522  10.060
46555SOL     OW41561  12.076   6.631  13.392
46555SOL    HW141562  12.054   6.666  13.306
46555SOL    HW241563  12.113   6.705  13.439
46556SOL     OW41564   7.950   4.678   3.257
46556SOL    HW141565   7.887   4.610   3.280
46556SOL    HW241566   7.911   4.759   3.291
46557SOL     OW41567   1.821   6.441   6.820
46557SOL    HW141568   1.840   6.410   6.909
46557SOL    HW241569   1.757   6.378   6.786
46558SOL     OW41570  11.467   7.122   3.416
46558SOL    HW141571  11.545   7.114   3.361
46558SOL    HW241572  11.443   7.032   3.438
46559SOL     OW41573  13.059   0.969  13.469
46559SOL    HW141574  13.036   0.879  13.492
46559SOL    HW241575  13.105   1.002  13.547
46560SOL     OW41576   7.137   4.038   8.997
46560SOL    HW141577   7.115   3.948   9.019
46560SOL    HW241578   7.065   4.067   8.941
46561SOL     OW41579  10.972   2.179   1.612
46561SOL    HW141580  11.034   2.117   1.573
46561SOL    HW241581  10.924   2.214   1.537
46562SOL     OW41582  10.491  13.235   8.009
46562SOL    HW141583  10.558  13.176   7.975
46562SOL    HW241584  10.513  13.245   8.102
46563SOL     OW41585  11.974   5.327   1.546
46563SOL    HW141586  11.900   5.282   1.586
46563SOL    HW241587  11.934   5.389   1.485
46564SOL     OW41588  13.847  13.632   9.354
46564SOL    HW141589  13.919  13.629   9.416
46564SOL    HW241590  13.875  13.694   9.286
46565SOL     OW41591   2.505   0.183   5.247
46565SOL    HW141592   2.430   0.237   5.273
46565SOL    HW241593   2.477   0.141   5.166
46566SOL     OW41594   6.326   3.749  13.056
46566SOL    HW141595   6.291   3.838  13.060
46566SOL    HW241596   6.314   3.722  12.965
46567SOL     OW41597   9.570   2.143   4.847
46567SOL    HW141598   9.564   2.093   4.928
46567SOL    HW241599   9.633   2.094   4.793
46568SOL     OW41600   7.378   0.664  13.426
46568SOL    HW141601   7.389   0.640  13.334
46568SOL    HW241602   7.463   0.647  13.465
46569SOL     OW41603   1.772   4.230   2.514
46569SOL    HW141604   1.867   4.218   2.523
46569SOL    HW241605   1.761   4.258   2.423
46570SOL     OW41606   2.908   3.379  12.735
46570SOL    HW141607   2.873   3.466  12.752
46570SOL    HW241608   2.964   3.361  12.810
46571SOL     OW41609  11.604   8.957   4.082
46571SOL    HW141610  11.602   8.937   4.176
46571SOL    HW241611  11.516   8.933   4.051
46572SOL     OW41612   9.806   3.711   2.291
46572SOL    HW141613   9.884   3.660   2.313
46572SOL    HW241614   9.744   3.647   2.256
46573SOL     OW41615  10.044   1.644   8.171
46573SOL    HW141616  10.101   1.682   8.238
46573SOL    HW241617   9.968   1.701   8.168
46574SOL     OW41618   9.051   0.185   5.052
46574SOL    HW141619   9.028   0.214   4.964
46574SOL    HW241620   9.104   0.106   5.038
46575SOL     OW41621   0.065  11.606   8.104
46575SOL    HW141622  14.874  11.576   8.046
46575SOL    HW241623   0.075  11.536   8.168
46576SOL     OW41624   7.796  11.068   3.333
46576SOL    HW141625   7.786  11.122   3.254
46576SOL    HW241626   7.708  11.035   3.350
46577SOL     OW41627   0.214   7.069   4.401
46577SOL    HW141628   0.305   7.084   4.426
46577SOL    HW241629   0.179   7.012   4.469
46578SOL     OW41630   2.644  14.746   8.584
46578SOL    HW141631   2.696  14.782   8.655
46578SOL    HW241632   2.562  14.719   8.625
46579SOL     OW41633   8.677  11.174  11.731
46579SOL    HW141634   8.667  11.079  11.729
46579SOL    HW241635   8.754  11.192  11.678
46580SOL     OW41636  12.974   2.432   9.164
46580SOL    HW141637  12.919   2.497   9.208
46580SOL    HW241638  12.928   2.349   9.175
46581SOL     OW41639  10.239   0.915  12.392
46581SOL    HW141640  10.314   0.941  12.339
46581SOL    HW241641  10.191   0.853  12.337
46582SOL     OW41642   6.810  13.540   1.951
46582SOL    HW141643   6.811  13.635   1.938
46582SOL    HW241644   6.887  13.523   2.006
46583SOL     OW41645   1.404   1.979  14.210
46583SOL    HW141646   1.447   2.012  14.289
46583SOL    HW241647   1.339   1.916  14.243
46584SOL     OW41648  13.401   2.934   5.379
46584SOL    HW141649  13.384   3.025   5.355
46584SOL    HW241650  13.469   2.905   5.317
46585SOL     OW41651  11.157   8.290   5.973
46585SOL    HW141652  11.174   8.207   5.928
46585SOL    HW241653  11.086   8.270   6.034
46586SOL     OW41654  12.139   6.925  11.531
46586SOL    HW141655  12.176   6.998  11.580
46586SOL    HW241656  12.208   6.859  11.530
46587SOL     OW41657   1.650  13.704   2.501
46587SOL    HW141658   1.616  13.787   2.467
46587SOL    HW241659   1.695  13.728   2.582
46588SOL     OW41660  13.808  12.823   3.635
46588SOL    HW141661  13.777  12.753   3.692
46588SOL    HW241662  13.892  12.791   3.601
46589SOL     OW41663   7.210   6.605   5.722
46589SOL    HW141664   7.185   6.513   5.716
46589SOL    HW241665   7.210   6.636   5.632
46590SOL     OW41666   6.570   0.884   2.996
46590SOL    HW141667   6.643   0.941   2.970
46590SOL    HW241668   6.495   0.918   2.947
46591SOL     OW41669   4.775   7.707   4.586
46591SOL    HW141670   4.681   7.714   4.568
46591SOL    HW241671   4.815   7.692   4.501
46592SOL     OW41672  10.439   7.161   8.092
46592SOL    HW141673  10.420   7.255   8.090
46592SOL    HW241674  10.357   7.121   8.120
46593SOL     OW41675   8.837  10.190   6.235
46593SOL    HW141676   8.809  10.250   6.166
46593SOL    HW241677   8.928  10.215   6.253
46594SOL     OW41678   7.220   8.824   2.672
46594SOL    HW141679   7.175   8.791   2.751
46594SOL    HW241680   7.161   8.801   2.600
46595SOL     OW41681   6.217  13.457   2.901
46595SOL    HW141682   6.288  13.515   2.925
46595SOL    HW241683   6.228  13.380   2.957
46596SOL     OW41684  11.992   0.462   1.730
46596SOL    HW141685  12.036   0.545   1.713
46596SOL    HW241686  11.976   0.462   1.825
46597SOL     OW41687  11.308   7.989  11.182
46597SOL    HW141688  11.285   7.950  11.098
46597SOL    HW241689  11.377   7.932  11.217
46598SOL     OW41690   9.146   4.946  12.737
46598SOL    HW141691   9.094   4.985  12.666
46598SOL    HW241692   9.229   4.923  12.696
46599SOL     OW41693   7.918   2.239   8.392
46599SOL    HW141694   7.997   2.267   8.345
46599SOL    HW241695   7.951   2.199   8.472
46600SOL     OW41696   7.626  10.754  10.756
46600SOL    HW141697   7.535  10.773  10.734
46600SOL    HW241698   7.664  10.840  10.777
46601SOL     OW41699   3.476   5.129  11.783
46601SOL    HW141700   3.472   5.223  11.770
46601SOL    HW241701   3.403   5.109  11.841
46602SOL     OW41702  11.926   6.546  12.093
46602SOL    HW141703  12.003   6.494  12.117
46602SOL    HW241704  11.913   6.605  12.167
46603SOL     OW41705   7.255   6.810   0.225
46603SOL    HW141706   7.247   6.717   0.203
46603SOL    HW241707   7.293   6.850   0.146
46604SOL     OW41708   2.014   9.002   2.949
46604SOL    HW141709   2.012   9.084   2.999
46604SOL    HW241710   2.026   8.934   3.016
46605SOL     OW41711  11.891   4.299   0.593
46605SOL    HW141712  11.808   4.252   0.582
46605SOL    HW241713  11.958   4.237   0.565
46606SOL     OW41714  14.410  13.528   0.151
46606SOL    HW141715  14.419  13.476   0.231
46606SOL    HW241716  14.499  13.533   0.115
46607SOL     OW41717   9.563   7.618  11.509
46607SOL    HW141718   9.597   7.560  11.441
46607SOL    HW241719   9.597   7.581  11.591
46608SOL     OW41720   9.133   0.544   2.329
46608SOL    HW141721   9.206   0.561   2.270
46608SOL    HW241722   9.065   0.606   2.302
46609SOL     OW41723   0.262   7.515   3.236
46609SOL    HW141724   0.325   7.544   3.170
46609SOL    HW241725   0.252   7.590   3.295
46610SOL     OW41726   2.674  13.033   1.418
46610SOL    HW141727   2.702  13.036   1.509
46610SOL    HW241728   2.636  13.119   1.401
46611SOL     OW41729  11.142   8.192  10.922
46611SOL    HW141730  11.144   8.229  10.834
46611SOL    HW241731  11.171   8.102  10.911
46612SOL     OW41732  12.171  10.334   4.602
46612SOL    HW141733  12.264  10.321   4.617
46612SOL    HW241734  12.159  10.429   4.602
46613SOL     OW41735   0.557   5.075   6.809
46613SOL    HW141736   0.534   5.107   6.722
46613SOL    HW241737   0.626   5.133   6.839
46614SOL     OW41738   4.502  10.655   2.514
46614SOL    HW141739   4.481  10.693   2.429
46614SOL    HW241740   4.561  10.582   2.493
46615SOL     OW41741   0.700  13.377   4.453
46615SOL    HW141742   0.627  13.426   4.415
46615SOL    HW241743   0.709  13.300   4.397
46616SOL     OW41744   9.544   1.378   6.794
46616SOL    HW141745   9.508   1.319   6.861
46616SOL    HW241746   9.609   1.325   6.748
46617SOL     OW41747   4.848  14.231   6.967
46617SOL    HW141748   4.880  14.144   6.989
46617SOL    HW241749   4.919  14.272   6.917
46618SOL     OW41750   5.443   7.862   8.135
46618SOL    HW141751   5.422   7.861   8.042
46618SOL    HW241752   5.539   7.871   8.137
46619SOL     OW41753   0.174  14.481   5.729
46619SOL    HW141754   0.247  14.449   5.676
46619SOL    HW241755   0.162  14.572   5.699
46620SOL     OW41756  13.617   2.737   8.024
46620SOL    HW141757  13.576   2.719   7.939
46620SOL    HW241758  13.592   2.828   8.044
46621SOL     OW41759   9.393   6.601   7.027
46621SOL    HW141760   9.391   6.688   7.065
46621SOL    HW241761   9.349   6.545   7.091
46622SOL     OW41762   8.190  13.717   1.860
46622SOL    HW141763   8.190  13.622   1.858
46622SOL    HW241764   8.162  13.743   1.773
46623SOL     OW41765  11.705  14.076   2.129
46623SOL    HW141766  11.737  13.996   2.172
46623SOL    HW241767  11.684  14.135   2.201
46624SOL     OW41768  13.722   1.959   5.891
46624SOL    HW141769  13.809   1.957   5.852
46624SOL    HW241770  13.736   1.930   5.982
46625SOL     OW41771   3.925   6.945   0.885
46625SOL    HW141772   3.870   6.889   0.830
46625SOL    HW241773   3.931   7.028   0.837
46626SOL     OW41774   7.581   3.317   8.343
46626SOL    HW141775   7.488   3.339   8.334
46626SOL    HW241776   7.613   3.374   8.413
46627SOL     OW41777  12.614   7.858   2.525
46627SOL    HW141778  12.626   7.929   2.589
46627SOL    HW241779  12.622   7.902   2.440
46628SOL     OW41780   0.252   1.967  12.582
46628SOL    HW141781   0.213   1.901  12.525
46628SOL    HW241782   0.274   2.040  12.524
46629SOL     OW41783   5.683   7.025   0.968
46629SOL    HW141784   5.713   7.093   1.029
46629SOL    HW241785   5.639   6.961   1.024
46630SOL     OW41786  10.661   6.143   6.712
46630SOL    HW141787  10.712   6.149   6.793
46630SOL    HW241788  10.571   6.128   6.741
46631SOL     OW41789   8.785  13.457   3.633
46631SOL    HW141790   8.802  13.482   3.542
46631SOL    HW241791   8.699  13.493   3.652
46632SOL     OW41792  10.146  13.486   2.129
46632SOL    HW141793  10.070  13.524   2.085
46632SOL    HW241794  10.212  13.555   2.127
46633SOL     OW41795   7.647   4.633   0.635
46633SOL    HW141796   7.655   4.726   0.654
46633SOL    HW241797   7.610   4.629   0.547
46634SOL     OW41798  10.377   0.922   0.749
46634SOL    HW141799  10.311   0.952   0.687
46634SOL    HW241800  10.422   0.851   0.703
46635SOL     OW41801   3.885   2.378  12.909
46635SOL    HW141802   3.841   2.463  12.911
46635SOL    HW241803   3.872   2.347  12.819
46636SOL     OW41804   5.631   5.409  11.120
46636SOL    HW141805   5.615   5.394  11.027
46636SOL    HW241806   5.713   5.458  11.124
46637SOL     OW41807   3.129   8.161   7.532
46637SOL    HW141808   3.069   8.092   7.503
46637SOL    HW241809   3.114   8.168   7.626
46638SOL     OW41810   5.151   2.375  12.765
46638SOL    HW141811   5.078   2.395  12.706
46638SOL    HW241812   5.178   2.460  12.799
46639SOL     OW41813   6.932   0.606   8.978
46639SOL    HW141814   6.913   0.679   9.038
46639SOL    HW241815   7.000   0.556   9.023
46640SOL     OW41816  11.501  12.889   1.680
46640SOL    HW141817  11.488  12.974   1.723
46640SOL    HW241818  11.507  12.910   1.587
46641SOL     OW41819  14.284   4.095   1.149
46641SOL    HW141820  14.346   4.056   1.087
46641SOL    HW241821  14.201   4.095   1.102
46642SOL     OW41822   2.930   7.790   1.866
46642SOL    HW141823   2.917   7.714   1.922
46642SOL    HW241824   2.843   7.829   1.859
46643SOL     OW41825   5.197   3.231  14.015
46643SOL    HW141826   5.232   3.304  14.065
46643SOL    HW241827   5.111   3.262  13.984
46644SOL     OW41828   2.459  11.698   4.628
46644SOL    HW141829   2.470  11.793   4.620
46644SOL    HW241830   2.365  11.685   4.639
46645SOL     OW41831   4.928   4.053   0.166
46645SOL    HW141832   4.950   4.003   0.088
46645SOL    HW241833   5.013   4.084   0.199
46646SOL     OW41834  12.600  10.647   6.457
46646SOL    HW141835  12.618  10.566   6.504
46646SOL    HW241836  12.616  10.626   6.365
46647SOL     OW41837  10.708   6.744   3.809
46647SOL    HW141838  10.683   6.667   3.757
46647SOL    HW241839  10.798   6.726   3.838
46648SOL     OW41840  14.528   8.111   5.512
46648SOL    HW141841  14.532   8.046   5.581
46648SOL    HW241842  14.595   8.175   5.534
46649SOL     OW41843   6.808   9.433  10.531
46649SOL    HW141844   6.855   9.510  10.499
46649SOL    HW241845   6.864   9.359  10.505
46650SOL     OW41846   2.063   8.972  10.354
46650SOL    HW141847   2.145   9.019  10.338
46650SOL    HW241848   2.024   9.018  10.429
46651SOL     OW41849   1.841  14.857  10.016
46651SOL    HW141850   1.923  14.807  10.020
46651SOL    HW241851   1.789  14.812   9.949
46652SOL     OW41852   9.187   1.780   1.641
46652SOL    HW141853   9.136   1.708   1.678
46652SOL    HW241854   9.275   1.745   1.629
46653SOL     OW41855   0.461  12.009   2.730
46653SOL    HW141856   0.502  12.027   2.815
46653SOL    HW241857   0.473  12.089   2.680
46654SOL     OW41858   5.801  14.015   9.450
46654SOL    HW141859   5.721  13.977   9.485
46654SOL    HW241860   5.871  13.980   9.505
46655SOL     OW41861  12.343  14.805  14.115
46655SOL    HW141862  12.376  14.720  14.144
46655SOL    HW241863  12.422  14.855  14.094
46656SOL     OW41864   2.289  10.941  14.720
46656SOL    HW141865   2.334  10.858  14.735
46656SOL    HW241866   2.355  11.008  14.736
46657SOL     OW41867  13.240  11.579  14.496
46657SOL    HW141868  13.214  11.522  14.424
46657SOL    HW241869  13.180  11.556  14.567
46658SOL     OW41870  12.840  12.246  14.165
46658SOL    HW141871  12.928  12.253  14.129
46658SOL    HW241872  12.783  12.239  14.088
46659SOL     OW41873   3.251  10.785   9.777
46659SOL    HW141874   3.186  10.847   9.811
46659SOL    HW241875   3.200  10.709   9.748
46660SOL     OW41876  11.152   3.755  14.115
46660SOL    HW141877  11.079   3.773  14.175
46660SOL    HW241878  11.148   3.825  14.050
46661SOL     OW41879  13.840   3.873   3.604
46661SOL    HW141880  13.817   3.938   3.538
46661SOL    HW241881  13.828   3.918   3.687
46662SOL     OW41882  11.995   3.758  11.119
46662SOL    HW141883  11.916   3.812  11.121
46662SOL    HW241884  12.039   3.783  11.038
46663SOL     OW41885   3.495  14.721   7.248
46663SOL    HW141886   3.556  14.652   7.275
46663SOL    HW241887   3.540  14.766   7.177
46664SOL     OW41888  11.583   6.865   2.371
46664SOL    HW141889  11.510   6.870   2.309
46664SOL    HW241890  11.653   6.915   2.329
46665SOL     OW41891   9.848   8.620   8.153
46665SOL    HW141892   9.769   8.611   8.100
46665SOL    HW241893   9.833   8.563   8.228
46666SOL     OW41894  14.804   6.757   1.231
46666SOL    HW141895  14.728   6.701   1.218
46666SOL    HW241896  14.877   6.709   1.191
46667SOL     OW41897   0.959   1.848   3.395
46667SOL    HW141898   0.961   1.805   3.480
46667SOL    HW241899   0.939   1.779   3.333
46668SOL     OW41900  11.125   8.654   1.094
46668SOL    HW141901  11.163   8.619   1.014
46668SOL    HW241902  11.077   8.732   1.066
46669SOL     OW41903  13.032  10.697   8.667
46669SOL    HW141904  12.940  10.714   8.647
46669SOL    HW241905  13.038  10.702   8.762
46670SOL     OW41906   7.891   9.870  13.354
46670SOL    HW141907   7.937   9.833  13.429
46670SOL    HW241908   7.815   9.915  13.391
46671SOL     OW41909   7.955   4.419  13.577
46671SOL    HW141910   8.011   4.459  13.644
46671SOL    HW241911   8.008   4.424  13.497
46672SOL     OW41912  11.572   0.840   3.804
46672SOL    HW141913  11.640   0.831   3.738
46672SOL    HW241914  11.561   0.935   3.815
46673SOL     OW41915  14.452  12.614   5.283
46673SOL    HW141916  14.491  12.677   5.223
46673SOL    HW241917  14.446  12.533   5.232
46674SOL     OW41918   6.215  10.833   8.572
46674SOL    HW141919   6.262  10.908   8.536
46674SOL    HW241920   6.236  10.834   8.666
46675SOL     OW41921  12.804   8.421  11.463
46675SOL    HW141922  12.788   8.423  11.558
46675SOL    HW241923  12.716   8.418  11.425
46676SOL     OW41924  12.490  11.831  10.556
46676SOL    HW141925  12.472  11.870  10.470
46676SOL    HW241926  12.466  11.899  10.619
46677SOL     OW41927  14.307   0.034  10.614
46677SOL    HW141928  14.228   0.029  10.668
46677SOL    HW241929  14.372  14.862  10.662
46678SOL     OW41930  11.809   3.792   9.965
46678SOL    HW141931  11.785   3.705   9.933
46678SOL    HW241932  11.733   3.847   9.944
46679SOL     OW41933   1.933   6.894   0.599
46679SOL    HW141934   1.877   6.818   0.585
46679SOL    HW241935   1.877   6.958   0.643
46680SOL     OW41936  10.137   0.742  12.593
46680SOL    HW141937  10.155   0.768  12.503
46680SOL    HW241938  10.052   0.699  12.589
46681SOL     OW41939  14.142  10.629   3.618
46681SOL    HW141940  14.134  10.700   3.681
46681SOL    HW241941  14.207  10.659   3.555
46682SOL     OW41942  12.585   6.346   1.416
46682SOL    HW141943  12.500   6.381   1.443
46682SOL    HW241944  12.638   6.424   1.399
46683SOL     OW41945   2.730   0.466   5.621
46683SOL    HW141946   2.667   0.397   5.640
46683SOL    HW241947   2.782   0.431   5.549
46684SOL     OW41948   9.920   7.006   7.935
46684SOL    HW141949  10.001   7.029   7.890
46684SOL    HW241950   9.914   7.070   8.007
46685SOL     OW41951  14.581   7.544   1.000
46685SOL    HW141952  14.591   7.465   1.054
46685SOL    HW241953  14.530   7.604   1.055
46686SOL     OW41954  11.273   2.082   2.646
46686SOL    HW141955  11.312   2.157   2.599
46686SOL    HW241956  11.180   2.103   2.649
46687SOL     OW41957   9.788  11.852   4.046
46687SOL    HW141958   9.707  11.857   4.098
46687SOL    HW241959   9.780  11.923   3.982
46688SOL     OW41960   8.221   6.672  11.416
46688SOL    HW141961   8.260   6.613  11.481
46688SOL    HW241962   8.168   6.733  11.468
46689SOL     OW41963   4.893   7.476   4.994
46689SOL    HW141964   4.908   7.500   4.902
46689SOL    HW241965   4.807   7.512   5.014
46690SOL     OW41966   3.568   3.704   0.100
46690SOL    HW141967   3.540   3.709   0.192
46690SOL    HW241968   3.610   3.788   0.083
46691SOL     OW41969   8.005   2.141  11.647
46691SOL    HW141970   8.039   2.053  11.630
46691SOL    HW241971   8.079   2.198  11.628
46692SOL     OW41972   8.358   4.243   1.346
46692SOL    HW141973   8.309   4.315   1.307
46692SOL    HW241974   8.308   4.218   1.423
46693SOL     OW41975  14.132  13.629  12.154
46693SOL    HW141976  14.162  13.643  12.244
46693SOL    HW241977  14.189  13.559  12.121
46694SOL     OW41978   5.707  13.913   8.947
46694SOL    HW141979   5.795  13.950   8.941
46694SOL    HW241980   5.695  13.893   9.040
46695SOL     OW41981   0.547  12.741  10.184
46695SOL    HW141982   0.616  12.797  10.147
46695SOL    HW241983   0.532  12.675  10.117
46696SOL     OW41984   7.551   8.711   6.709
46696SOL    HW141985   7.477   8.771   6.722
46696SOL    HW241986   7.511   8.626   6.694
46697SOL     OW41987  13.603   7.685   0.110
46697SOL    HW141988  13.626   7.771   0.145
46697SOL    HW241989  13.584   7.701   0.017
46698SOL     OW41990   2.979  14.559  12.622
46698SOL    HW141991   3.051  14.556  12.686
46698SOL    HW241992   3.014  14.612  12.550
46699SOL     OW41993  14.376   9.513  14.287
46699SOL    HW141994  14.444   9.489  14.224
46699SOL    HW241995  14.307   9.553  14.234
46700SOL     OW41996   6.934  10.770   6.020
46700SOL    HW141997   7.009  10.759   6.077
46700SOL    HW241998   6.970  10.810   5.940
46701SOL     OW41999  12.294  14.501  13.316
46701SOL    HW142000  12.205  14.471  13.330
46701SOL    HW242001  12.347  14.421  13.312
46702SOL     OW42002   6.363   0.386  10.234
46702SOL    HW142003   6.318   0.428  10.161
46702SOL    HW242004   6.447   0.431  10.241
46703SOL     OW42005   8.478   5.778  10.475
46703SOL    HW142006   8.531   5.715  10.524
46703SOL    HW242007   8.471   5.740  10.387
46704SOL     OW42008   9.744   5.409   0.528
46704SOL    HW142009   9.687   5.410   0.452
46704SOL    HW242010   9.823   5.454   0.500
46705SOL     OW42011   4.846  10.711  10.432
46705SOL    HW142012   4.918  10.761  10.392
46705SOL    HW242013   4.767  10.746  10.391
46706SOL     OW42014   7.101   8.816  13.891
46706SOL    HW142015   7.067   8.890  13.941
46706SOL    HW242016   7.023   8.774  13.854
46707SOL     OW42017   8.652   4.542   4.807
46707SOL    HW142018   8.716   4.480   4.774
46707SOL    HW242019   8.633   4.599   4.732
46708SOL     OW42020   5.348   5.563  12.585
46708SOL    HW142021   5.306   5.576  12.670
46708SOL    HW242022   5.325   5.642  12.535
46709SOL     OW42023  12.508   5.615   7.884
46709SOL    HW142024  12.426   5.647   7.845
46709SOL    HW242025  12.495   5.520   7.892
46710SOL     OW42026  11.880   0.457  12.197
46710SOL    HW142027  11.812   0.441  12.262
46710SOL    HW242028  11.833   0.489  12.120
46711SOL     OW42029   1.977   4.177   1.945
46711SOL    HW142030   1.999   4.097   1.898
46711SOL    HW242031   2.036   4.177   2.021
46712SOL     OW42032  12.347  10.209  12.864
46712SOL    HW142033  12.306  10.202  12.950
46712SOL    HW242034  12.404  10.286  12.871
46713SOL     OW42035   0.886   1.986   4.009
46713SOL    HW142036   0.849   1.898   4.018
46713SOL    HW242037   0.882   2.023   4.097
46714SOL     OW42038  14.753  14.746   3.286
46714SOL    HW142039  14.761  14.664   3.335
46714SOL    HW242040  14.659  14.758   3.276
46715SOL     OW42041   4.390   9.671  10.110
46715SOL    HW142042   4.462   9.732  10.123
46715SOL    HW242043   4.342   9.673  10.193
46716SOL     OW42044   0.336   3.768   5.568
46716SOL    HW142045   0.307   3.803   5.483
46716SOL    HW242046   0.311   3.835   5.631
46717SOL     OW42047  11.685   4.401  12.178
46717SOL    HW142048  11.769   4.432  12.212
46717SOL    HW242049  11.693   4.306  12.179
46718SOL     OW42050  10.240   0.147  10.033
46718SOL    HW142051  10.262   0.186   9.948
46718SOL    HW242052  10.150   0.174  10.049
46719SOL     OW42053  12.711   0.107  14.389
46719SOL    HW142054  12.769   0.076  14.460
46719SOL    HW242055  12.629   0.129  14.434
46720SOL     OW42056  11.117   4.152   6.775
46720SOL    HW142057  11.190   4.194   6.729
46720SOL    HW242058  11.140   4.059   6.777
46721SOL     OW42059  12.371  14.006   1.897
46721SOL    HW142060  12.438  14.025   1.964
46721SOL    HW242061  12.364  13.910   1.898
46722SOL     OW42062   2.848  11.204  11.881
46722SOL    HW142063   2.918  11.268  11.871
46722SOL    HW242064   2.885  11.135  11.936
46723SOL     OW42065   5.896   1.203  12.886
46723SOL    HW142066   5.808   1.183  12.854
46723SOL    HW242067   5.954   1.174  12.816
46724SOL     OW42068  11.054  13.906   7.163
46724SOL    HW142069  10.959  13.918   7.151
46724SOL    HW242070  11.073  13.949   7.247
46725SOL     OW42071  10.461   7.327  13.363
46725SOL    HW142072  10.553   7.303  13.378
46725SOL    HW242073  10.414   7.286  13.435
46726SOL     OW42074   5.351  11.506   5.976
46726SOL    HW142075   5.299  11.449   6.034
46726SOL    HW242076   5.287  11.569   5.942
46727SOL     OW42077   4.721   3.914   8.496
46727SOL    HW142078   4.743   4.007   8.500
46727SOL    HW242079   4.693   3.892   8.585
46728SOL     OW42080   8.266   4.943  10.484
46728SOL    HW142081   8.219   4.927  10.402
46728SOL    HW242082   8.254   5.036  10.500
46729SOL     OW42083   2.619  10.497   6.098
46729SOL    HW142084   2.592  10.405   6.098
46729SOL    HW242085   2.615  10.523   6.190
46730SOL     OW42086  14.830   5.717  12.040
46730SOL    HW142087  14.760   5.656  12.015
46730SOL    HW242088  14.807   5.799  11.995
46731SOL     OW42089   5.728   6.103  10.639
46731SOL    HW142090   5.698   6.179  10.689
46731SOL    HW242091   5.680   6.108  10.556
46732SOL     OW42092   7.200   2.746   5.668
46732SOL    HW142093   7.145   2.800   5.612
46732SOL    HW242094   7.286   2.747   5.626
46733SOL     OW42095   3.660   7.615   5.299
46733SOL    HW142096   3.570   7.592   5.321
46733SOL    HW242097   3.677   7.567   5.218
46734SOL     OW42098   2.715   6.840   6.643
46734SOL    HW142099   2.701   6.824   6.549
46734SOL    HW242100   2.809   6.853   6.651
46735SOL     OW42101  10.311   6.871   7.198
46735SOL    HW142102  10.276   6.922   7.272
46735SOL    HW242103  10.405   6.866   7.215
46736SOL     OW42104   1.704   0.248   6.739
46736SOL    HW142105   1.782   0.199   6.714
46736SOL    HW242106   1.646   0.240   6.663
46737SOL     OW42107  11.389   2.177   5.679
46737SOL    HW142108  11.373   2.252   5.737
46737SOL    HW242109  11.339   2.197   5.600
46738SOL     OW42110   0.968   0.701   2.971
46738SOL    HW142111   1.026   0.628   2.951
46738SOL    HW242112   1.012   0.778   2.935
46739SOL     OW42113  12.999   8.388   8.432
46739SOL    HW142114  13.027   8.443   8.506
46739SOL    HW242115  12.910   8.360   8.456
46740SOL     OW42116  12.212   4.594  10.569
46740SOL    HW142117  12.125   4.561  10.594
46740SOL    HW242118  12.250   4.523  10.518
46741SOL     OW42119   1.762  12.359   6.256
46741SOL    HW142120   1.685  12.311   6.286
46741SOL    HW242121   1.835  12.299   6.273
46742SOL     OW42122   8.362  11.391   7.101
46742SOL    HW142123   8.410  11.470   7.127
46742SOL    HW242124   8.429  11.334   7.062
46743SOL     OW42125   0.094   8.821  14.358
46743SOL    HW142126   0.054   8.904  14.335
46743SOL    HW242127   0.123   8.784  14.274
46744SOL     OW42128   0.315   1.071   5.245
46744SOL    HW142129   0.253   1.131   5.204
46744SOL    HW242130   0.272   1.043   5.326
46745SOL     OW42131  14.383   7.287   9.459
46745SOL    HW142132  14.313   7.233   9.422
46745SOL    HW242133  14.410   7.241   9.538
46746SOL     OW42134   2.259   8.517  11.575
46746SOL    HW142135   2.279   8.552  11.663
46746SOL    HW242136   2.261   8.422  11.586
46747SOL     OW42137   3.360   0.028   3.811
46747SOL    HW142138   3.380   0.107   3.861
46747SOL    HW242139   3.264   0.025   3.808
46748SOL     OW42140  13.543  13.203   1.283
46748SOL    HW142141  13.573  13.196   1.373
46748SOL    HW242142  13.535  13.297   1.267
46749SOL     OW42143   0.164   9.776   7.729
46749SOL    HW142144   0.253   9.806   7.709
46749SOL    HW242145   0.116   9.855   7.752
46750SOL     OW42146   6.072   4.330  13.329
46750SOL    HW142147   6.022   4.280  13.394
46750SOL    HW242148   6.051   4.422  13.347
46751SOL     OW42149   0.718  12.108   3.283
46751SOL    HW142150   0.798  12.071   3.246
46751SOL    HW242151   0.666  12.134   3.207
46752SOL     OW42152  13.958   0.897   9.929
46752SOL    HW142153  13.969   0.803   9.916
46752SOL    HW242154  14.027   0.937   9.876
46753SOL     OW42155  14.556   3.588   0.244
46753SOL    HW142156  14.476   3.588   0.192
46753SOL    HW242157  14.526   3.600   0.334
46754SOL     OW42158   0.157   2.809   5.478
46754SOL    HW142159   0.158   2.779   5.387
46754SOL    HW242160   0.180   2.732   5.530
46755SOL     OW42161   3.649  11.757  12.054
46755SOL    HW142162   3.662  11.823  11.985
46755SOL    HW242163   3.732  11.709  12.056
46756SOL     OW42164  10.173   5.029   9.489
46756SOL    HW142165  10.108   5.097   9.473
46756SOL    HW242166  10.251   5.059   9.441
46757SOL     OW42167  10.662   0.713  10.051
46757SOL    HW142168  10.720   0.738   9.979
46757SOL    HW242169  10.584   0.768  10.038
46758SOL     OW42170   7.974   3.740   6.554
46758SOL    HW142171   7.944   3.810   6.496
46758SOL    HW242172   8.066   3.727   6.529
46759SOL     OW42173   2.223  10.758   5.974
46759SOL    HW142174   2.265  10.743   5.890
46759SOL    HW242175   2.163  10.684   5.985
46760SOL     OW42176  13.093   9.830   8.016
46760SOL    HW142177  13.158   9.844   7.948
46760SOL    HW242178  13.009   9.830   7.970
46761SOL     OW42179  13.306  14.247  12.257
46761SOL    HW142180  13.237  14.181  12.250
46761SOL    HW242181  13.279  14.302  12.331
46762SOL     OW42182   0.293   3.414   3.145
46762SOL    HW142183   0.203   3.423   3.175
46762SOL    HW242184   0.332   3.501   3.156
46763SOL     OW42185   5.390   0.862   2.747
46763SOL    HW142186   5.458   0.923   2.775
46763SOL    HW242187   5.352   0.902   2.669
46764SOL     OW42188   2.931  12.061   1.716
46764SOL    HW142189   3.023  12.062   1.742
46764SOL    HW242190   2.906  11.969   1.719
46765SOL     OW42191   9.528   5.454  11.132
46765SOL    HW142192   9.546   5.460  11.226
46765SOL    HW242193   9.501   5.543  11.108
46766SOL     OW42194  10.983  10.422   2.604
46766SOL    HW142195  10.888  10.429   2.612
46766SOL    HW242196  10.999  10.396   2.513
46767SOL     OW42197  10.146   4.728   2.143
46767SOL    HW142198  10.103   4.705   2.060
46767SOL    HW242199  10.077   4.768   2.195
46768SOL     OW42200  13.252   5.713   7.514
46768SOL    HW142201  13.271   5.801   7.482
46768SOL    HW242202  13.211   5.727   7.600
46769SOL     OW42203   0.850   7.209   2.061
46769SOL    HW142204   0.910   7.243   1.995
46769SOL    HW242205   0.770   7.188   2.013
46770SOL     OW42206   6.902  14.245   1.158
46770SOL    HW142207   6.817  14.205   1.136
46770SOL    HW242208   6.900  14.331   1.116
46771SOL     OW42209   3.635  14.499   9.199
46771SOL    HW142210   3.580  14.555   9.144
46771SOL    HW242211   3.695  14.457   9.138
46772SOL     OW42212  11.895   6.312   1.940
46772SOL    HW142213  11.847   6.259   1.877
46772SOL    HW242214  11.887   6.402   1.906
46773SOL     OW42215   7.962   9.159   8.224
46773SOL    HW142216   7.892   9.130   8.282
46773SOL    HW242217   7.943   9.116   8.141
46774SOL     OW42218  10.310   4.734   4.764
46774SOL    HW142219  10.360   4.697   4.691
46774SOL    HW242220  10.221   4.741   4.731
46775SOL     OW42221  10.885   1.982   6.394
46775SOL    HW142222  10.861   1.898   6.433
46775SOL    HW242223  10.878   1.969   6.300
46776SOL     OW42224  14.176   2.576   0.511
46776SOL    HW142225  14.185   2.501   0.569
46776SOL    HW242226  14.188   2.652   0.568
46777SOL     OW42227   4.453   3.882   9.064
46777SOL    HW142228   4.457   3.970   9.027
46777SOL    HW242229   4.520   3.882   9.132
46778SOL     OW42230  10.328  10.645  10.943
46778SOL    HW142231  10.412  10.598  10.940
46778SOL    HW242232  10.282  10.606  11.017
46779SOL     OW42233   0.979   0.220   2.571
46779SOL    HW142234   1.068   0.200   2.602
46779SOL    HW242235   0.965   0.311   2.596
46780SOL     OW42236  11.620   8.211  11.069
46780SOL    HW142237  11.638   8.305  11.075
46780SOL    HW242238  11.597   8.186  11.158
46781SOL     OW42239  12.735  14.539  12.582
46781SOL    HW142240  12.823  14.535  12.542
46781SOL    HW242241  12.684  14.592  12.521
46782SOL     OW42242   1.040  11.574  12.936
46782SOL    HW142243   1.120  11.626  12.933
46782SOL    HW242244   1.040  11.526  12.853
46783SOL     OW42245  12.840   6.607   9.834
46783SOL    HW142246  12.826   6.584   9.925
46783SOL    HW242247  12.935   6.604   9.822
46784SOL     OW42248   0.451  13.307   1.811
46784SOL    HW142249   0.417  13.221   1.833
46784SOL    HW242250   0.506  13.331   1.885
46785SOL     OW42251   9.900  12.589  12.255
46785SOL    HW142252   9.875  12.578  12.163
46785SOL    HW242253   9.971  12.653  12.253
46786SOL     OW42254   9.920   5.974   6.980
46786SOL    HW142255   9.850   6.039   6.982
46786SOL    HW242256   9.915   5.935   6.893
46787SOL     OW42257  14.333  14.214   5.336
46787SOL    HW142258  14.296  14.195   5.422
46787SOL    HW242259  14.266  14.188   5.274
46788SOL     OW42260   3.308   3.314  14.164
46788SOL    HW142261   3.222   3.351  14.143
46788SOL    HW242262   3.324   3.341  14.255
46789SOL     OW42263   4.144   5.759   8.605
46789SOL    HW142264   4.200   5.825   8.563
46789SOL    HW242265   4.066   5.755   8.549
46790SOL     OW42266   8.364   9.527  10.837
46790SOL    HW142267   8.416   9.465  10.785
46790SOL    HW242268   8.412   9.609  10.830
46791SOL     OW42269  12.623  12.234   3.278
46791SOL    HW142270  12.558  12.269   3.218
46791SOL    HW242271  12.698  12.211   3.223
46792SOL     OW42272   3.784  14.868  10.465
46792SOL    HW142273   3.750   0.039  10.391
46792SOL    HW242274   3.868   0.029  10.485
46793SOL     OW42275   5.118   2.269   5.772
46793SOL    HW142276   5.134   2.208   5.845
46793SOL    HW242277   5.192   2.330   5.775
46794SOL     OW42278  14.107  10.059  11.272
46794SOL    HW142279  14.110   9.977  11.221
46794SOL    HW242280  14.044  10.042  11.342
46795SOL     OW42281   6.501   5.233   1.316
46795SOL    HW142282   6.455   5.274   1.389
46795SOL    HW242283   6.456   5.265   1.238
46796SOL     OW42284   4.905   9.104   3.972
46796SOL    HW142285   4.964   9.034   4.001
46796SOL    HW242286   4.851   9.123   4.048
46797SOL     OW42287  12.830  14.701  11.311
46797SOL    HW142288  12.862  14.702  11.401
46797SOL    HW242289  12.737  14.724  11.319
46798SOL     OW42290   5.888   3.069   0.802
46798SOL    HW142291   5.793   3.074   0.813
46798SOL    HW242292   5.907   3.133   0.733
46799SOL     OW42293   1.073   6.902  12.373
46799SOL    HW142294   1.001   6.917  12.434
46799SOL    HW242295   1.139   6.855  12.425
46800SOL     OW42296   5.916   8.478   9.504
46800SOL    HW142297   5.872   8.556   9.471
46800SOL    HW242298   5.871   8.405   9.460
46801SOL     OW42299   6.142   9.778  11.841
46801SOL    HW142300   6.049   9.794  11.860
46801SOL    HW242301   6.148   9.683  11.833
46802SOL     OW42302  12.408   5.099   7.014
46802SOL    HW142303  12.365   5.034   6.957
46802SOL    HW242304  12.336   5.139   7.062
46803SOL     OW42305   7.510  10.489  13.102
46803SOL    HW142306   7.436  10.430  13.089
46803SOL    HW242307   7.508  10.511  13.195
46804SOL     OW42308   6.817   8.825  14.425
46804SOL    HW142309   6.868   8.903  14.407
46804SOL    HW242310   6.827   8.811  14.519
46805SOL     OW42311   3.047   0.990  11.682
46805SOL    HW142312   3.096   1.047  11.741
46805SOL    HW242313   3.061   1.027  11.595
46806SOL     OW42314   7.950   6.680  12.757
46806SOL    HW142315   7.872   6.656  12.708
46806SOL    HW242316   7.998   6.597  12.767
46807SOL     OW42317   3.858   1.610   4.573
46807SOL    HW142318   3.901   1.693   4.593
46807SOL    HW242319   3.787   1.604   4.637
46808SOL     OW42320  11.083   4.210   5.074
46808SOL    HW142321  11.092   4.125   5.030
46808SOL    HW242322  11.123   4.196   5.160
46809SOL     OW42323   9.692   7.618   1.499
46809SOL    HW142324   9.780   7.587   1.523
46809SOL    HW242325   9.685   7.600   1.405
46810SOL     OW42326  10.771   5.338   8.118
46810SOL    HW142327  10.796   5.251   8.090
46810SOL    HW242328  10.677   5.331   8.137
46811SOL     OW42329  12.344   1.591  11.810
46811SOL    HW142330  12.405   1.528  11.774
46811SOL    HW242331  12.352   1.668  11.754
46812SOL     OW42332   3.275   9.249   9.147
46812SOL    HW142333   3.368   9.250   9.167
46812SOL    HW242334   3.241   9.329   9.186
46813SOL     OW42335  11.763   8.150   6.892
46813SOL    HW142336  11.800   8.063   6.911
46813SOL    HW242337  11.697   8.162   6.959
46814SOL     OW42338   6.138   5.244   2.120
46814SOL    HW142339   6.080   5.171   2.098
46814SOL    HW242340   6.164   5.228   2.210
46815SOL     OW42341   9.539  12.302   4.453
46815SOL    HW142342   9.550  12.217   4.409
46815SOL    HW242343   9.499  12.358   4.386
46816SOL     OW42344   5.388   9.750   3.489
46816SOL    HW142345   5.300   9.732   3.523
46816SOL    HW242346   5.387   9.844   3.470
46817SOL     OW42347   4.285   3.947   4.266
46817SOL    HW142348   4.366   3.909   4.233
46817SOL    HW242349   4.276   3.912   4.355
46818SOL     OW42350   3.182  12.898   5.612
46818SOL    HW142351   3.118  12.893   5.542
46818SOL    HW242352   3.229  12.980   5.595
46819SOL     OW42353  11.140   6.191   3.446
46819SOL    HW142354  11.047   6.173   3.429
46819SOL    HW242355  11.184   6.108   3.432
46820SOL     OW42356   4.519   6.923   9.615
46820SOL    HW142357   4.437   6.959   9.650
46820SOL    HW242358   4.494   6.838   9.579
46821SOL     OW42359   5.328   4.980   5.353
46821SOL    HW142360   5.404   4.927   5.328
46821SOL    HW242361   5.306   4.951   5.441
46822SOL     OW42362   1.242   3.378  12.453
46822SOL    HW142363   1.159   3.404  12.413
46822SOL    HW242364   1.236   3.411  12.543
46823SOL     OW42365  12.783  13.665   2.083
46823SOL    HW142366  12.741  13.634   2.003
46823SOL    HW242367  12.837  13.738   2.056
46824SOL     OW42368  14.836   1.179   7.132
46824SOL    HW142369   0.050   1.164   7.146
46824SOL    HW242370  14.813   1.117   7.063
46825SOL     OW42371   7.090  10.561   1.655
46825SOL    HW142372   7.175  10.600   1.634
46825SOL    HW242373   7.041  10.565   1.573
46826SOL     OW42374  10.350   5.727  12.797
46826SOL    HW142375  10.422   5.738  12.860
46826SOL    HW242376  10.385   5.667  12.731
46827SOL     OW42377   5.318   5.442   3.217
46827SOL    HW142378   5.375   5.470   3.146
46827SOL    HW242379   5.320   5.514   3.280
46828SOL     OW42380   2.244  10.194  12.729
46828SOL    HW142381   2.164  10.202  12.677
46828SOL    HW242382   2.264  10.100  12.727
46829SOL     OW42383   3.340  13.497  10.320
46829SOL    HW142384   3.347  13.484  10.226
46829SOL    HW242385   3.370  13.587  10.334
46830SOL     OW42386   0.135   1.072   2.072
46830SOL    HW142387   0.146   1.013   2.146
46830SOL    HW242388   0.064   1.131   2.099
46831SOL     OW42389   5.717   2.990   7.446
46831SOL    HW142390   5.769   2.910   7.437
46831SOL    HW242391   5.727   3.034   7.361
46832SOL     OW42392  12.240   0.057   2.776
46832SOL    HW142393  12.157   0.011   2.767
46832SOL    HW242394  12.279   0.020   2.855
46833SOL     OW42395  10.540   7.491   7.666
46833SOL    HW142396  10.598   7.554   7.624
46833SOL    HW242397  10.598   7.432   7.714
46834SOL     OW42398  13.925   8.622   1.934
46834SOL    HW142399  13.985   8.694   1.951
46834SOL    HW242400  13.889   8.600   2.019
46835SOL     OW42401  12.769  13.140   2.833
46835SOL    HW142402  12.838  13.075   2.828
46835SOL    HW242403  12.710  13.119   2.761
46836SOL     OW42404   0.013  14.376   8.491
46836SOL    HW142405  14.848  14.292   8.480
46836SOL    HW242406  14.864  14.428   8.417
46837SOL     OW42407   1.537   4.092  12.406
46837SOL    HW142408   1.443   4.101  12.392
46837SOL    HW242409   1.576   4.167  12.363
46838SOL     OW42410   8.627  14.648   1.559
46838SOL    HW142411   8.633  14.556   1.586
46838SOL    HW242412   8.542  14.654   1.514
46839SOL     OW42413   2.847  12.914   6.002
46839SOL    HW142414   2.771  12.890   5.949
46839SOL    HW242415   2.918  12.925   5.940
46840SOL     OW42416  14.836   1.459  14.505
46840SOL    HW142417  14.800   1.515  14.436
46840SOL    HW242418   0.047   1.488  14.514
46841SOL     OW42419  11.455  12.982   5.202
46841SOL    HW142420  11.401  12.946   5.132
46841SOL    HW242421  11.426  13.073   5.210
46842SOL     OW42422  10.216   9.609  11.276
46842SOL    HW142423  10.218   9.518  11.247
46842SOL    HW242424  10.201   9.603  11.371
46843SOL     OW42425   8.820  14.499  12.684
46843SOL    HW142426   8.772  14.421  12.711
46843SOL    HW242427   8.876  14.520  12.759
46844SOL     OW42428   4.054   7.264   3.881
46844SOL    HW142429   4.020   7.269   3.971
46844SOL    HW242430   4.109   7.342   3.871
46845SOL     OW42431  14.864  11.001   4.534
46845SOL    HW142432   0.039  11.064   4.489
46845SOL    HW242433  14.786  11.052   4.560
46846SOL     OW42434   0.122   7.207   7.637
46846SOL    HW142435   0.147   7.117   7.616
46846SOL    HW242436   0.028   7.203   7.650
46847SOL     OW42437  10.638  13.805   5.298
46847SOL    HW142438  10.675  13.744   5.362
46847SOL    HW242439  10.558  13.763   5.268
46848SOL     OW42440   4.894   4.763   1.783
46848SOL    HW142441   4.951   4.791   1.855
46848SOL    HW242442   4.820   4.823   1.786
46849SOL     OW42443   8.803  14.328  11.882
46849SOL    HW142444   8.814  14.332  11.787
46849SOL    HW242445   8.749  14.251  11.897
46850SOL     OW42446  14.607  12.926   9.708
46850SOL    HW142447  14.568  12.840   9.694
46850SOL    HW242448  14.578  12.978   9.633
46851SOL     OW42449   7.682   1.080   2.229
46851SOL    HW142450   7.604   1.089   2.174
46851SOL    HW242451   7.746   1.138   2.189
46852SOL     OW42452   7.088   3.964   7.903
46852SOL    HW142453   7.134   3.881   7.893
46852SOL    HW242454   6.998   3.945   7.878
46853SOL     OW42455  13.732  11.401  13.743
46853SOL    HW142456  13.761  11.460  13.812
46853SOL    HW242457  13.637  11.402  13.749
46854SOL     OW42458   0.782   0.648  12.860
46854SOL    HW142459   0.774   0.687  12.773
46854SOL    HW242460   0.801   0.722  12.918
46855SOL     OW42461   5.676   7.579   9.131
46855SOL    HW142462   5.745   7.617   9.184
46855SOL    HW242463   5.640   7.509   9.185
46856SOL     OW42464  13.833   9.523   1.062
46856SOL    HW142465  13.880   9.532   0.979
46856SOL    HW242466  13.746   9.493   1.036
46857SOL     OW42467   9.380   4.303   5.025
46857SOL    HW142468   9.428   4.348   4.955
46857SOL    HW242469   9.296   4.281   4.986
46858SOL     OW42470   4.531  11.124   8.179
46858SOL    HW142471   4.593  11.092   8.114
46858SOL    HW242472   4.520  11.217   8.159
46859SOL     OW42473   1.817  10.777   0.891
46859SOL    HW142474   1.879  10.848   0.872
46859SOL    HW242475   1.845  10.743   0.975
46860SOL     OW42476  14.746   7.389  10.923
46860SOL    HW142477  14.803   7.312  10.920
46860SOL    HW242478  14.688   7.373  10.998
46861SOL     OW42479   6.739   5.074   8.808
46861SOL    HW142480   6.807   5.024   8.853
46861SOL    HW242481   6.677   5.098   8.877
46862SOL     OW42482   8.043  12.122  14.141
46862SOL    HW142483   8.052  12.152  14.050
46862SOL    HW242484   8.125  12.076  14.159
46863SOL     OW42485  10.122   1.583  12.810
46863SOL    HW142486  10.213   1.563  12.786
46863SOL    HW242487  10.126   1.671  12.847
46864SOL     OW42488  10.386   0.867  13.874
46864SOL    HW142489  10.346   0.946  13.837
46864SOL    HW242490  10.434   0.827  13.802
46865SOL     OW42491  11.989   7.263   4.001
46865SOL    HW142492  11.961   7.171   3.998
46865SOL    HW242493  11.965   7.292   4.089
46866SOL     OW42494   8.396  11.049  13.501
46866SOL    HW142495   8.448  10.974  13.472
46866SOL    HW242496   8.445  11.125  13.470
46867SOL     OW42497   0.612  14.268   0.439
46867SOL    HW142498   0.532  14.267   0.492
46867SOL    HW242499   0.600  14.341   0.378
46868SOL     OW42500   5.864   5.143  10.488
46868SOL    HW142501   5.929   5.162  10.421
46868SOL    HW242502   5.892   5.059  10.526
46869SOL     OW42503   5.946  11.369  12.514
46869SOL    HW142504   5.870  11.327  12.554
46869SOL    HW242505   5.941  11.344  12.421
46870SOL     OW42506   6.677   8.133  12.413
46870SOL    HW142507   6.679   8.229  12.421
46870SOL    HW242508   6.737   8.103  12.481
46871SOL     OW42509   6.925   0.971   0.810
46871SOL    HW142510   6.980   1.016   0.746
46871SOL    HW242511   6.886   0.898   0.761
46872SOL     OW42512   9.542   0.549   2.512
46872SOL    HW142513   9.624   0.561   2.465
46872SOL    HW242514   9.516   0.459   2.492
46873SOL     OW42515   7.778   9.834  10.371
46873SOL    HW142516   7.818   9.912  10.409
46873SOL    HW242517   7.821   9.761  10.414
46874SOL     OW42518  12.580  12.430  12.709
46874SOL    HW142519  12.613  12.357  12.656
46874SOL    HW242520  12.489  12.408  12.728
46875SOL     OW42521   9.125   2.796   8.610
46875SOL    HW142522   9.114   2.705   8.638
46875SOL    HW242523   9.035   2.829   8.603
46876SOL     OW42524   6.016  11.081  13.704
46876SOL    HW142525   5.941  11.024  13.688
46876SOL    HW242526   6.002  11.156  13.647
46877SOL     OW42527  14.106  13.992   2.087
46877SOL    HW142528  14.144  14.053   2.024
46877SOL    HW242529  14.173  13.982   2.154
46878SOL     OW42530   2.926  10.456  12.947
46878SOL    HW142531   2.834  10.441  12.965
46878SOL    HW242532   2.938  10.427  12.856
46879SOL     OW42533   8.916   5.629  13.245
46879SOL    HW142534   8.987   5.694  13.245
46879SOL    HW242535   8.960   5.545  13.241
46880SOL     OW42536   2.130   2.905   2.574
46880SOL    HW142537   2.100   2.816   2.554
46880SOL    HW242538   2.118   2.953   2.493
46881SOL     OW42539  13.375  12.983   1.534
46881SOL    HW142540  13.460  12.942   1.548
46881SOL    HW242541  13.382  13.067   1.580
46882SOL     OW42542  12.780   3.536  14.451
46882SOL    HW142543  12.711   3.479  14.417
46882SOL    HW242544  12.848   3.476  14.481
46883SOL     OW42545  10.350   8.093   8.540
46883SOL    HW142546  10.297   8.115   8.464
46883SOL    HW242547  10.294   8.114   8.615
46884SOL     OW42548  13.489   7.597   2.074
46884SOL    HW142549  13.577   7.560   2.069
46884SOL    HW242550  13.432   7.521   2.087
46885SOL     OW42551   0.682   8.361   1.368
46885SOL    HW142552   0.691   8.295   1.300
46885SOL    HW242553   0.631   8.318   1.437
46886SOL     OW42554   0.002  10.408  13.149
46886SOL    HW142555   0.003  10.501  13.127
46886SOL    HW242556  14.819  10.370  13.088
46887SOL     OW42557   6.940   0.611   1.295
46887SOL    HW142558   7.018   0.588   1.346
46887SOL    HW242559   6.974   0.628   1.207
46888SOL     OW42560  10.809   4.662   8.371
46888SOL    HW142561  10.739   4.694   8.428
46888SOL    HW242562  10.782   4.690   8.283
46889SOL     OW42563   5.672   8.369   4.919
46889SOL    HW142564   5.659   8.413   5.002
46889SOL    HW242565   5.614   8.415   4.858
46890SOL     OW42566   2.281   7.250   8.317
46890SOL    HW142567   2.361   7.200   8.333
46890SOL    HW242568   2.308   7.318   8.255
46891SOL     OW42569   0.260  13.617   0.273
46891SOL    HW142570   0.308  13.668   0.208
46891SOL    HW242571   0.328  13.577   0.327
46892SOL     OW42572  11.698  13.400   2.294
46892SOL    HW142573  11.636  13.416   2.222
46892SOL    HW242574  11.714  13.306   2.291
46893SOL     OW42575  11.130  11.129   3.758
46893SOL    HW142576  11.053  11.094   3.803
46893SOL    HW242577  11.149  11.066   3.689
46894SOL     OW42578   2.772   9.106   1.261
46894SOL    HW142579   2.849   9.152   1.227
46894SOL    HW242580   2.807   9.041   1.321
46895SOL     OW42581   4.555   8.106   6.638
46895SOL    HW142582   4.554   8.121   6.733
46895SOL    HW242583   4.472   8.063   6.620
46896SOL     OW42584   4.048  10.270  11.848
46896SOL    HW142585   4.006  10.244  11.930
46896SOL    HW242586   3.977  10.306  11.796
46897SOL     OW42587   2.765   9.126  14.164
46897SOL    HW142588   2.837   9.172  14.206
46897SOL    HW242589   2.776   9.145  14.070
46898SOL     OW42590  11.235   3.685   2.620
46898SOL    HW142591  11.162   3.740   2.594
46898SOL    HW242592  11.312   3.742   2.616
46899SOL     OW42593   7.888  10.119  13.938
46899SOL    HW142594   7.813  10.074  13.976
46899SOL    HW242595   7.908  10.070  13.858
46900SOL     OW42596   3.505  10.172   3.163
46900SOL    HW142597   3.445  10.174   3.238
46900SOL    HW242598   3.567  10.102   3.183
46901SOL     OW42599   2.260  11.238  11.117
46901SOL    HW142600   2.230  11.173  11.182
46901SOL    HW242601   2.205  11.314  11.132
46902SOL     OW42602   9.519  11.628  11.764
46902SOL    HW142603   9.575  11.550  11.760
46902SOL    HW242604   9.431  11.596  11.747
46903SOL     OW42605   3.082   7.146  12.565
46903SOL    HW142606   3.136   7.121  12.640
46903SOL    HW242607   3.001   7.098  12.578
46904SOL     OW42608   1.776   7.016  14.061
46904SOL    HW142609   1.797   6.971  14.143
46904SOL    HW242610   1.682   7.003  14.048
46905SOL     OW42611  11.491  13.094   0.161
46905SOL    HW142612  11.489  13.103   0.066
46905SOL    HW242613  11.412  13.045   0.183
46906SOL     OW42614   2.293  14.639   0.696
46906SOL    HW142615   2.350  14.572   0.735
46906SOL    HW242616   2.352  14.698   0.650
46907SOL     OW42617   4.401   7.000   4.711
46907SOL    HW142618   4.341   6.943   4.759
46907SOL    HW242619   4.392   6.974   4.620
46908SOL     OW42620  10.269  10.911   3.513
46908SOL    HW142621  10.349  10.910   3.565
46908SOL    HW242622  10.298  10.926   3.423
46909SOL     OW42623   5.341  14.861  11.873
46909SOL    HW142624   5.297  14.836  11.792
46909SOL    HW242625   5.420  14.806  11.876
46910SOL     OW42626   8.043   2.567   0.784
46910SOL    HW142627   7.974   2.556   0.718
46910SOL    HW242628   8.017   2.509   0.855
46911SOL     OW42629  11.878  11.224  13.581
46911SOL    HW142630  11.799  11.254  13.626
46911SOL    HW242631  11.946  11.226  13.648
46912SOL     OW42632   3.857   5.501   4.782
46912SOL    HW142633   3.794   5.554   4.733
46912SOL    HW242634   3.885   5.557   4.854
46913SOL     OW42635  13.299  13.559  10.002
46913SOL    HW142636  13.260  13.592   9.921
46913SOL    HW242637  13.302  13.464   9.990
46914SOL     OW42638  12.306   8.745  11.382
46914SOL    HW142639  12.264   8.663  11.408
46914SOL    HW242640  12.339   8.727  11.293
46915SOL     OW42641   3.901   0.890   2.616
46915SOL    HW142642   3.971   0.832   2.587
46915SOL    HW242643   3.946   0.956   2.669
46916SOL     OW42644   7.417  14.509  12.067
46916SOL    HW142645   7.415  14.452  12.144
46916SOL    HW242646   7.325  14.520  12.042
46917SOL     OW42647   7.949   5.742   8.227
46917SOL    HW142648   8.028   5.770   8.181
46917SOL    HW242649   7.877   5.784   8.180
46918SOL     OW42650   6.352   3.248  14.296
46918SOL    HW142651   6.307   3.242  14.212
46918SOL    HW242652   6.298   3.198  14.357
46919SOL     OW42653   2.244   3.061  12.468
46919SOL    HW142654   2.286   2.999  12.409
46919SOL    HW242655   2.213   3.008  12.541
46920SOL     OW42656   6.946   5.084   1.405
46920SOL    HW142657   6.883   5.028   1.360
46920SOL    HW242658   6.943   5.054   1.496
46921SOL     OW42659  10.454   7.548  11.733
46921SOL    HW142660  10.473   7.552  11.640
46921SOL    HW242661  10.359   7.556  11.739
46922SOL     OW42662   7.535   5.941  11.349
46922SOL    HW142663   7.488   5.865  11.314
46922SOL    HW242664   7.589   5.971  11.276
46923SOL     OW42665   0.273  10.737   0.921
46923SOL    HW142666   0.259  10.646   0.893
46923SOL    HW242667   0.301  10.729   1.012
46924SOL     OW42668  14.782   5.130   3.375
46924SOL    HW142669  14.789   5.121   3.470
46924SOL    HW242670  14.730   5.054   3.348
46925SOL     OW42671   3.998   1.140  12.813
46925SOL    HW142672   4.059   1.066  12.809
46925SOL    HW242673   3.940   1.128  12.738
46926SOL     OW42674   0.722  14.446   8.445
46926SOL    HW142675   0.686  14.493   8.370
46926SOL    HW242676   0.649  14.394   8.478
46927SOL     OW42677   7.633   4.251  12.241
46927SOL    HW142678   7.629   4.319  12.174
46927SOL    HW242679   7.573   4.281  12.309
46928SOL     OW42680   9.701  12.008   1.243
46928SOL    HW142681   9.628  12.069   1.239
46928SOL    HW242682   9.670  11.931   1.195
46929SOL     OW42683   8.214   6.229   5.565
46929SOL    HW142684   8.167   6.203   5.644
46929SOL    HW242685   8.207   6.324   5.562
46930SOL     OW42686   9.496  14.572  13.190
46930SOL    HW142687   9.485  14.536  13.102
46930SOL    HW242688   9.447  14.654  13.189
46931SOL     OW42689  14.595   8.117   1.342
46931SOL    HW142690  14.625   8.086   1.427
46931SOL    HW242691  14.585   8.038   1.290
46932SOL     OW42692   8.392  12.924   8.978
46932SOL    HW142693   8.473  12.967   8.951
46932SOL    HW242694   8.409  12.896   9.067
46933SOL     OW42695  10.442   5.478   9.454
46933SOL    HW142696  10.446   5.565   9.415
46933SOL    HW242697  10.389   5.489   9.533
46934SOL     OW42698   6.935   5.079   5.690
46934SOL    HW142699   6.948   4.991   5.655
46934SOL    HW242700   6.893   5.065   5.775
46935SOL     OW42701   3.146  13.679  10.510
46935SOL    HW142702   3.157  13.597  10.463
46935SOL    HW242703   3.128  13.653  10.600
46936SOL     OW42704  11.050   9.555  10.745
46936SOL    HW142705  11.122   9.609  10.778
46936SOL    HW242706  11.090   9.500  10.677
46937SOL     OW42707   7.530  12.256   8.352
46937SOL    HW142708   7.510  12.221   8.265
46937SOL    HW242709   7.557  12.347   8.336
46938SOL     OW42710   0.816   9.838   4.509
46938SOL    HW142711   0.911   9.835   4.520
46938SOL    HW242712   0.781   9.784   4.579
46939SOL     OW42713  11.050   0.221  12.268
46939SOL    HW142714  11.067   0.306  12.307
46939SOL    HW242715  11.115   0.163  12.308
46940SOL     OW42716  10.453   6.059   1.762
46940SOL    HW142717  10.502   5.978   1.781
46940SOL    HW242718  10.386   6.032   1.698
46941SOL     OW42719   2.067   0.125   0.517
46941SOL    HW142720   2.000   0.058   0.529
46941SOL    HW242721   2.065   0.175   0.599
46942SOL     OW42722   1.182   0.134   6.468
46942SOL    HW142723   1.127   0.147   6.545
46942SOL    HW242724   1.190   0.039   6.459
46943SOL     OW42725   4.616   2.424  11.107
46943SOL    HW142726   4.676   2.461  11.042
46943SOL    HW242727   4.651   2.454  11.191
46944SOL     OW42728   6.271  11.136  12.811
46944SOL    HW142729   6.293  11.072  12.743
46944SOL    HW242730   6.284  11.221  12.768
46945SOL     OW42731  11.831   7.681   3.218
46945SOL    HW142732  11.831   7.586   3.209
46945SOL    HW242733  11.801   7.714   3.134
46946SOL     OW42734  11.110   1.779   9.055
46946SOL    HW142735  11.200   1.786   9.086
46946SOL    HW242736  11.057   1.783   9.134
46947SOL     OW42737   6.700   3.260   5.825
46947SOL    HW142738   6.681   3.223   5.911
46947SOL    HW242739   6.617   3.300   5.798
46948SOL     OW42740   8.307   1.377   3.653
46948SOL    HW142741   8.345   1.457   3.692
46948SOL    HW242742   8.237   1.352   3.714
46949SOL     OW42743  10.882   0.216   1.408
46949SOL    HW142744  10.944   0.163   1.458
46949SOL    HW242745  10.936   0.276   1.357
46950SOL     OW42746  10.147   4.130   1.998
46950SOL    HW142747  10.234   4.091   2.004
46950SOL    HW242748  10.161   4.219   1.966
46951SOL     OW42749   0.417  14.608   7.104
46951SOL    HW142750   0.476  14.676   7.137
46951SOL    HW242751   0.461  14.526   7.125
46952SOL     OW42752   7.034   2.042  12.069
46952SOL    HW142753   7.021   2.052  12.163
46952SOL    HW242754   6.952   2.072  12.030
46953SOL     OW42755   1.025  14.218   9.396
46953SOL    HW142756   0.962  14.205   9.325
46953SOL    HW242757   1.012  14.144   9.455
46954SOL     OW42758  10.460   3.341   9.751
46954SOL    HW142759  10.527   3.369   9.812
46954SOL    HW242760  10.435   3.420   9.703
46955SOL     OW42761   0.215   2.218  14.274
46955SOL    HW142762   0.301   2.199  14.237
46955SOL    HW242763   0.209   2.314  14.272
46956SOL     OW42764   1.113   8.605  14.401
46956SOL    HW142765   1.197   8.625  14.444
46956SOL    HW242766   1.117   8.654  14.319
46957SOL     OW42767  11.801   9.666  14.404
46957SOL    HW142768  11.759   9.725  14.466
46957SOL    HW242769  11.893   9.695  14.402
46958SOL     OW42770   4.429   6.881  11.987
46958SOL    HW142771   4.502   6.824  11.961
46958SOL    HW242772   4.471   6.951  12.038
46959SOL     OW42773   1.564   4.227  10.230
46959SOL    HW142774   1.634   4.273  10.277
46959SOL    HW242775   1.484   4.253  10.275
46960SOL     OW42776   0.218   2.334   4.442
46960SOL    HW142777   0.185   2.419   4.413
46960SOL    HW242778   0.250   2.292   4.362
46961SOL     OW42779   6.280  11.538   2.973
46961SOL    HW142780   6.234  11.577   3.047
46961SOL    HW242781   6.364  11.509   3.010
46962SOL     OW42782   3.000   8.711  10.940
46962SOL    HW142783   3.081   8.751  10.973
46962SOL    HW242784   2.989   8.632  10.993
46963SOL     OW42785   1.228   4.701   2.048
46963SOL    HW142786   1.251   4.620   2.092
46963SOL    HW242787   1.256   4.689   1.958
46964SOL     OW42788  12.492   8.056   1.002
46964SOL    HW142789  12.524   8.133   1.048
46964SOL    HW242790  12.399   8.072   0.989
46965SOL     OW42791   8.370   5.533  13.144
46965SOL    HW142792   8.282   5.522  13.180
46965SOL    HW242793   8.422   5.568  13.216
46966SOL     OW42794   5.620   1.259   0.161
46966SOL    HW142795   5.587   1.179   0.201
46966SOL    HW242796   5.544   1.298   0.117
46967SOL     OW42797   9.644  14.298   7.281
46967SOL    HW142798   9.656  14.391   7.265
46967SOL    HW242799   9.621  14.293   7.374
46968SOL     OW42800   0.291  14.769   6.929
46968SOL    HW142801   0.331  14.752   6.844
46968SOL    HW242802   0.345  14.719   6.991
46969SOL     OW42803  10.953  11.976  14.270
46969SOL    HW142804  10.997  12.005  14.350
46969SOL    HW242805  11.013  12.001  14.200
46970SOL     OW42806  13.474   5.812  12.126
46970SOL    HW142807  13.420   5.891  12.126
46970SOL    HW242808  13.448   5.765  12.205
46971SOL     OW42809   4.118   4.546   7.765
46971SOL    HW142810   4.101   4.453   7.783
46971SOL    HW242811   4.208   4.548   7.733
46972SOL     OW42812   6.364  13.770  12.796
46972SOL    HW142813   6.420  13.846  12.813
46972SOL    HW242814   6.276  13.807  12.786
46973SOL     OW42815   3.649  10.490   8.535
46973SOL    HW142816   3.638  10.584   8.542
46973SOL    HW242817   3.588  10.463   8.466
46974SOL     OW42818  13.798   2.337   4.831
46974SOL    HW142819  13.842   2.408   4.877
46974SOL    HW242820  13.846   2.258   4.857
46975SOL     OW42821   5.402   8.539   6.917
46975SOL    HW142822   5.412   8.472   6.985
46975SOL    HW242823   5.321   8.584   6.940
46976SOL     OW42824  13.486   3.841   5.828
46976SOL    HW142825  13.402   3.881   5.851
46976SOL    HW242826  13.527   3.904   5.770
46977SOL     OW42827   7.346   8.135   7.722
46977SOL    HW142828   7.391   8.060   7.760
46977SOL    HW242829   7.338   8.114   7.629
46978SOL     OW42830   4.871   7.610   2.495
46978SOL    HW142831   4.822   7.528   2.495
46978SOL    HW242832   4.882   7.632   2.402
46979SOL     OW42833   2.659   9.914   4.895
46979SOL    HW142834   2.697   9.855   4.960
46979SOL    HW242835   2.623   9.986   4.947
46980SOL     OW42836   3.765   3.415   7.566
46980SOL    HW142837   3.745   3.485   7.504
46980SOL    HW242838   3.714   3.340   7.536
46981SOL     OW42839   6.358  13.762   9.733
46981SOL    HW142840   6.341  13.691   9.672
46981SOL    HW242841   6.275  13.774   9.780
46982SOL     OW42842   4.567  13.958  14.098
46982SOL    HW142843   4.628  13.908  14.044
46982SOL    HW242844   4.559  13.907  14.179
46983SOL     OW42845   4.107   6.144   2.270
46983SOL    HW142846   4.106   6.215   2.206
46983SOL    HW242847   4.136   6.185   2.351
46984SOL     OW42848   2.033   9.019   6.972
46984SOL    HW142849   2.070   9.072   7.043
46984SOL    HW242850   2.100   9.020   6.904
46985SOL     OW42851   6.796   2.557   1.623
46985SOL    HW142852   6.701   2.563   1.627
46985SOL    HW242853   6.824   2.555   1.714
46986SOL     OW42854   6.464  10.391   6.719
46986SOL    HW142855   6.380  10.345   6.709
46986SOL    HW242856   6.445  10.461   6.781
46987SOL     OW42857   8.225   4.408   4.572
46987SOL    HW142858   8.174   4.356   4.634
46987SOL    HW242859   8.293   4.348   4.541
46988SOL     OW42860   1.569   2.380   9.469
46988SOL    HW142861   1.650   2.330   9.457
46988SOL    HW242862   1.599   2.470   9.480
46989SOL     OW42863   5.182   5.393   9.200
46989SOL    HW142864   5.217   5.308   9.174
46989SOL    HW242865   5.250   5.456   9.176
46990SOL     OW42866  11.975  14.244   4.466
46990SOL    HW142867  12.070  14.230   4.460
46990SOL    HW242868  11.963  14.337   4.447
46991SOL     OW42869   9.918  11.527   4.756
46991SOL    HW142870   9.952  11.569   4.677
46991SOL    HW242871   9.966  11.444   4.762
46992SOL     OW42872   4.418   8.267   8.308
46992SOL    HW142873   4.344   8.310   8.352
46992SOL    HW242874   4.418   8.178   8.341
46993SOL     OW42875   2.489   3.007   1.001
46993SOL    HW142876   2.492   2.920   1.040
46993SOL    HW242877   2.556   3.056   1.048
46994SOL     OW42878   5.321  14.141   3.236
46994SOL    HW142879   5.375  14.146   3.157
46994SOL    HW242880   5.298  14.232   3.256
46995SOL     OW42881   3.185   4.866  14.268
46995SOL    HW142882   3.119   4.804  14.236
46995SOL    HW242883   3.262   4.811  14.284
46996SOL     OW42884  13.839  10.485   1.127
46996SOL    HW142885  13.843  10.526   1.041
46996SOL    HW242886  13.786  10.406   1.115
46997SOL     OW42887   2.928  13.441   2.149
46997SOL    HW142888   2.947  13.349   2.129
46997SOL    HW242889   2.837  13.441   2.178
46998SOL     OW42890   6.238   9.227   0.287
46998SOL    HW142891   6.198   9.184   0.363
46998SOL    HW242892   6.273   9.309   0.322
46999SOL     OW42893  12.194   6.759   8.813
46999SOL    HW142894  12.223   6.730   8.727
46999SOL    HW242895  12.223   6.691   8.873
47000SOL     OW42896  11.600   7.329  12.918
47000SOL    HW142897  11.626   7.407  12.967
47000SOL    HW242898  11.682   7.288  12.892
47001SOL     OW42899  12.655  10.933   5.169
47001SOL    HW142900  12.715  10.889   5.229
47001SOL    HW242901  12.570  10.892   5.186
47002SOL     OW42902   0.711  11.862  10.228
47002SOL    HW142903   0.645  11.893  10.289
47002SOL    HW242904   0.677  11.885  10.142
47003SOL     OW42905  13.154  12.761   2.759
47003SOL    HW142906  13.249  12.750   2.749
47003SOL    HW242907  13.120  12.759   2.670
47004SOL     OW42908   5.997  12.672   0.986
47004SOL    HW142909   5.974  12.607   0.919
47004SOL    HW242910   6.079  12.710   0.955
47005SOL     OW42911  10.390   5.424  14.685
47005SOL    HW142912  10.392   5.375  14.767
47005SOL    HW242913  10.306   5.470  14.686
47006SOL     OW42914   6.945   8.138  13.247
47006SOL    HW142915   6.932   8.220  13.199
47006SOL    HW242916   6.869   8.132  13.306
47007SOL     OW42917   0.291  13.287   8.194
47007SOL    HW142918   0.223  13.219   8.193
47007SOL    HW242919   0.343  13.271   8.115
47008SOL     OW42920  14.307   8.918   2.124
47008SOL    HW142921  14.314   9.011   2.142
47008SOL    HW242922  14.393   8.883   2.146
47009SOL     OW42923   9.851   3.062   9.517
47009SOL    HW142924   9.763   3.099   9.515
47009SOL    HW242925   9.867   3.042   9.610
47010SOL     OW42926  11.881   0.516   7.512
47010SOL    HW142927  11.805   0.500   7.456
47010SOL    HW242928  11.851   0.580   7.576
47011SOL     OW42929   3.118  12.677  11.894
47011SOL    HW142930   3.125  12.728  11.813
47011SOL    HW242931   3.175  12.602  11.880
47012SOL     OW42932   2.307  14.464   3.722
47012SOL    HW142933   2.265  14.547   3.700
47012SOL    HW242934   2.247  14.397   3.688
47013SOL     OW42935   0.553   2.182   3.825
47013SOL    HW142936   0.472   2.232   3.810
47013SOL    HW242937   0.606   2.199   3.746
47014SOL     OW42938   0.983   4.870  13.995
47014SOL    HW142939   0.919   4.802  13.978
47014SOL    HW242940   1.036   4.874  13.916
47015SOL     OW42941  11.308   8.837  11.810
47015SOL    HW142942  11.287   8.827  11.717
47015SOL    HW242943  11.225   8.864  11.850
47016SOL     OW42944   3.014  10.563   3.627
47016SOL    HW142945   3.102  10.598   3.641
47016SOL    HW242946   2.964  10.636   3.589
47017SOL     OW42947   0.234  12.323   2.834
47017SOL    HW142948   0.265  12.397   2.783
47017SOL    HW242949   0.192  12.266   2.770
47018SOL     OW42950  12.791   2.907   7.931
47018SOL    HW142951  12.779   2.865   8.016
47018SOL    HW242952  12.718   2.874   7.878
47019SOL     OW42953  11.868   2.959   5.684
47019SOL    HW142954  11.818   2.963   5.603
47019SOL    HW242955  11.948   2.911   5.661
47020SOL     OW42956   3.957  11.920  10.102
47020SOL    HW142957   3.955  12.012  10.129
47020SOL    HW242958   4.025  11.918  10.033
47021SOL     OW42959   0.671   6.840   1.144
47021SOL    HW142960   0.656   6.830   1.050
47021SOL    HW242961   0.585   6.859   1.181
47022SOL     OW42962   2.800  13.904   9.585
47022SOL    HW142963   2.733  13.901   9.517
47022SOL    HW242964   2.876  13.862   9.545
47023SOL     OW42965  13.720  12.458   5.113
47023SOL    HW142966  13.717  12.425   5.203
47023SOL    HW242967  13.634  12.438   5.076
47024SOL     OW42968   0.272   8.665   0.228
47024SOL    HW142969   0.177   8.657   0.240
47024SOL    HW242970   0.309   8.615   0.301
47025SOL     OW42971  12.851   1.993   2.931
47025SOL    HW142972  12.842   2.011   2.838
47025SOL    HW242973  12.893   2.070   2.967
47026SOL     OW42974   0.954   2.316  12.821
47026SOL    HW142975   0.886   2.325  12.754
47026SOL    HW242976   0.946   2.226  12.852
47027SOL     OW42977   3.119   9.541   2.424
47027SOL    HW142978   3.031   9.540   2.462
47027SOL    HW242979   3.112   9.484   2.347
47028SOL     OW42980  10.004  14.781  14.523
47028SOL    HW142981   9.932  14.778  14.587
47028SOL    HW242982   9.970  14.735  14.447
47029SOL     OW42983  11.815   5.284  13.268
47029SOL    HW142984  11.829   5.375  13.242
47029SOL    HW242985  11.818   5.287  13.364
47030SOL     OW42986   6.762   5.282  13.565
47030SOL    HW142987   6.808   5.250  13.487
47030SOL    HW242988   6.733   5.203  13.610
47031SOL     OW42989   6.037   3.576   6.623
47031SOL    HW142990   6.015   3.484   6.615
47031SOL    HW242991   6.095   3.581   6.699
47032SOL     OW42992  14.448   2.541   3.920
47032SOL    HW142993  14.410   2.499   3.842
47032SOL    HW242994  14.489   2.621   3.887
47033SOL     OW42995   2.499   9.083  14.077
47033SOL    HW142996   2.506   9.057  13.985
47033SOL    HW242997   2.589   9.096  14.105
47034SOL     OW42998  12.631   9.263  10.473
47034SOL    HW142999  12.721   9.281  10.501
47034SOL    HW243000  12.619   9.170  10.491
47035SOL     OW43001   6.182   6.933  13.153
47035SOL    HW143002   6.174   7.013  13.101
47035SOL    HW243003   6.250   6.953  13.217
47036SOL     OW43004  10.036   5.902  11.879
47036SOL    HW143005   9.988   5.980  11.851
47036SOL    HW243006  10.095   5.882  11.806
47037SOL     OW43007   7.334  11.612   7.776
47037SOL    HW143008   7.343  11.682   7.712
47037SOL    HW243009   7.407  11.625   7.837
47038SOL     OW43010   1.391  12.549   9.759
47038SOL    HW143011   1.325  12.511   9.817
47038SOL    HW243012   1.392  12.492   9.682
47039SOL     OW43013   6.489   6.807   3.087
47039SOL    HW143014   6.545   6.733   3.114
47039SOL    HW243015   6.540   6.885   3.109
47040SOL     OW43016  10.036   8.645   2.151
47040SOL    HW143017  10.063   8.721   2.203
47040SOL    HW243018  10.073   8.661   2.064
47041SOL     OW43019   1.420  14.779   7.651
47041SOL    HW143020   1.460  14.762   7.566
47041SOL    HW243021   1.329  14.800   7.632
47042SOL     OW43022   5.503   4.216   1.572
47042SOL    HW143023   5.595   4.187   1.575
47042SOL    HW243024   5.503   4.288   1.510
47043SOL     OW43025   3.373   4.681  12.436
47043SOL    HW143026   3.412   4.660  12.351
47043SOL    HW243027   3.446   4.709  12.490
47044SOL     OW43028   9.151   4.185  14.502
47044SOL    HW143029   9.056   4.193  14.498
47044SOL    HW243030   9.173   4.129  14.427
47045SOL     OW43031  13.972  14.379  12.499
47045SOL    HW143032  13.934  14.330  12.572
47045SOL    HW243033  14.007  14.458  12.539
47046SOL     OW43034   0.024   7.299  11.734
47046SOL    HW143035   0.056   7.240  11.803
47046SOL    HW243036   0.009   7.382  11.779
47047SOL     OW43037   0.050   2.891  14.599
47047SOL    HW143038   0.131   2.856  14.562
47047SOL    HW243039   0.070   2.906  14.692
47048SOL     OW43040   4.693  10.487   6.016
47048SOL    HW143041   4.726  10.464   6.103
47048SOL    HW243042   4.602  10.458   6.017
47049SOL     OW43043  12.632   0.392   5.784
47049SOL    HW143044  12.602   0.458   5.721
47049SOL    HW243045  12.553   0.343   5.807
47050SOL     OW43046   0.110  14.164  12.764
47050SOL    HW143047   0.123  14.258  12.774
47050SOL    HW243048   0.104  14.130  12.853
47051SOL     OW43049   4.940   8.877   9.589
47051SOL    HW143050   4.854   8.892   9.628
47051SOL    HW243051   4.921   8.840   9.503
47052SOL     OW43052  11.392   6.121   2.386
47052SOL    HW143053  11.454   6.176   2.434
47052SOL    HW243054  11.393   6.038   2.433
47053SOL     OW43055   9.586   5.810   3.996
47053SOL    HW143056   9.569   5.811   3.902
47053SOL    HW243057   9.553   5.895   4.027
47054SOL     OW43058   0.568  11.767   8.268
47054SOL    HW143059   0.611  11.725   8.194
47054SOL    HW243060   0.556  11.858   8.241
47055SOL     OW43061   7.429  12.497   9.318
47055SOL    HW143062   7.523  12.480   9.325
47055SOL    HW243063   7.392  12.414   9.288
47056SOL     OW43064   0.523  12.852   6.990
47056SOL    HW143065   0.580  12.882   6.919
47056SOL    HW243066   0.566  12.881   7.070
47057SOL     OW43067  13.548  14.217   0.985
47057SOL    HW143068  13.463  14.246   0.954
47057SOL    HW243069  13.578  14.287   1.043
47058SOL     OW43070  14.832  14.123  13.009
47058SOL    HW143071  14.805  14.110  13.100
47058SOL    HW243072   0.014  14.052  12.993
47059SOL     OW43073   9.850   1.101   7.830
47059SOL    HW143074   9.830   1.047   7.906
47059SOL    HW243075   9.903   1.044   7.774
47060SOL     OW43076   1.927  12.219  11.884
47060SOL    HW143077   1.865  12.286  11.856
47060SOL    HW243078   1.944  12.238  11.976
47061SOL     OW43079   3.315   0.032   5.146
47061SOL    HW143080   3.349  14.863   5.071
47061SOL    HW243081   3.228  14.876   5.162
47062SOL     OW43082   8.668  12.716  13.652
47062SOL    HW143083   8.684  12.659  13.728
47062SOL    HW243084   8.576  12.699  13.629
47063SOL     OW43085   9.904   2.086  13.716
47063SOL    HW143086   9.992   2.102  13.683
47063SOL    HW243087   9.911   2.004  13.765
47064SOL     OW43088   8.239   2.495   1.906
47064SOL    HW143089   8.292   2.475   1.829
47064SOL    HW243090   8.206   2.410   1.935
47065SOL     OW43091   4.586   1.303  11.170
47065SOL    HW143092   4.544   1.223  11.138
47065SOL    HW243093   4.631   1.276  11.250
47066SOL     OW43094  10.934   0.040   8.224
47066SOL    HW143095  10.909  14.848   8.166
47066SOL    HW243096  10.876   0.031   8.300
47067SOL     OW43097  14.501   2.519   0.708
47067SOL    HW143098  14.548   2.464   0.645
47067SOL    HW243099  14.420   2.472   0.726
47068SOL     OW43100   9.305  10.073   6.657
47068SOL    HW143101   9.383  10.029   6.622
47068SOL    HW243102   9.332  10.103   6.744
47069SOL     OW43103   6.053   0.514  12.515
47069SOL    HW143104   6.021   0.466  12.592
47069SOL    HW243105   6.083   0.598  12.550
47070SOL     OW43106  10.117  12.027   2.113
47070SOL    HW143107  10.032  12.029   2.069
47070SOL    HW243108  10.102  12.071   2.197
47071SOL     OW43109  11.770   2.425   6.958
47071SOL    HW143110  11.695   2.390   6.911
47071SOL    HW243111  11.740   2.436   7.048
47072SOL     OW43112   0.084   9.306   8.668
47072SOL    HW143113   0.163   9.286   8.618
47072SOL    HW243114   0.019   9.244   8.637
47073SOL     OW43115   5.906  14.499   5.574
47073SOL    HW143116   5.898  14.459   5.488
47073SOL    HW243117   5.906  14.593   5.557
47074SOL     OW43118   2.711   4.997   3.573
47074SOL    HW143119   2.770   5.060   3.532
47074SOL    HW243120   2.683   5.040   3.654
47075SOL     OW43121  13.307  13.499   5.559
47075SOL    HW143122  13.291  13.546   5.477
47075SOL    HW243123  13.393  13.530   5.588
47076SOL     OW43124  13.679  13.839  14.065
47076SOL    HW143125  13.738  13.904  14.104
47076SOL    HW243126  13.709  13.832  13.974
47077SOL     OW43127   8.823   9.741   5.655
47077SOL    HW143128   8.908   9.786   5.654
47077SOL    HW243129   8.837   9.662   5.602
47078SOL     OW43130   9.873  14.592  10.838
47078SOL    HW143131   9.956  14.640  10.827
47078SOL    HW243132   9.838  14.623  10.921
47079SOL     OW43133   5.590   2.829  11.293
47079SOL    HW143134   5.639   2.770  11.236
47079SOL    HW243135   5.637   2.913  11.286
47080SOL     OW43136  10.771  10.608   0.860
47080SOL    HW143137  10.698  10.612   0.798
47080SOL    HW243138  10.849  10.600   0.805
47081SOL     OW43139   4.772   9.031   6.266
47081SOL    HW143140   4.744   9.045   6.356
47081SOL    HW243141   4.849   8.974   6.274
47082SOL     OW43142   3.394   5.798   9.440
47082SOL    HW143143   3.478   5.837   9.464
47082SOL    HW243144   3.415   5.708   9.417
47083SOL     OW43145   5.527  12.860   5.409
47083SOL    HW143146   5.463  12.814   5.463
47083SOL    HW243147   5.501  12.840   5.319
47084SOL     OW43148  14.568  12.374   7.480
47084SOL    HW143149  14.528  12.336   7.402
47084SOL    HW243150  14.654  12.331   7.486
47085SOL     OW43151   8.494  13.178   1.838
47085SOL    HW143152   8.469  13.206   1.926
47085SOL    HW243153   8.585  13.204   1.829
47086SOL     OW43154   3.274   1.742   4.770
47086SOL    HW143155   3.276   1.736   4.675
47086SOL    HW243156   3.366   1.755   4.795
47087SOL     OW43157  10.544  12.142   2.834
47087SOL    HW143158  10.484  12.177   2.900
47087SOL    HW243159  10.593  12.218   2.804
47088SOL     OW43160  10.369  10.928   0.840
47088SOL    HW143161  10.344  10.836   0.840
47088SOL    HW243162  10.451  10.931   0.889
47089SOL     OW43163  13.747   8.449   6.004
47089SOL    HW143164  13.789   8.486   5.927
47089SOL    HW243165  13.753   8.355   5.992
47090SOL     OW43166   1.824   5.407   5.833
47090SOL    HW143167   1.754   5.384   5.773
47090SOL    HW243168   1.901   5.360   5.800
47091SOL     OW43169   6.926   5.000   7.689
47091SOL    HW143170   6.866   5.067   7.658
47091SOL    HW243171   6.942   4.944   7.613
47092SOL     OW43172  13.023   4.469   3.543
47092SOL    HW143173  12.981   4.555   3.545
47092SOL    HW243174  12.993   4.429   3.461
47093SOL     OW43175  14.818   6.006  14.491
47093SOL    HW143176  14.792   5.914  14.484
47093SOL    HW243177  14.866   6.024  14.410
47094SOL     OW43178   9.926   6.608  14.066
47094SOL    HW143179  10.022   6.605  14.067
47094SOL    HW243180   9.904   6.647  13.981
47095SOL     OW43181   3.271  13.573   9.460
47095SOL    HW143182   3.230  13.493   9.429
47095SOL    HW243183   3.287  13.557   9.553
47096SOL     OW43184   2.035  10.446  11.947
47096SOL    HW143185   2.059  10.538  11.954
47096SOL    HW243186   1.939  10.447  11.943
47097SOL     OW43187  13.304   4.960   3.501
47097SOL    HW143188  13.222   4.919   3.473
47097SOL    HW243189  13.365   4.887   3.511
47098SOL     OW43190   2.985   3.314   1.167
47098SOL    HW143191   2.982   3.307   1.071
47098SOL    HW243192   3.078   3.305   1.188
47099SOL     OW43193   0.684  14.639   8.925
47099SOL    HW143194   0.612  14.648   8.863
47099SOL    HW243195   0.751  14.590   8.876
47100SOL     OW43196   8.056   1.637  13.356
47100SOL    HW143197   7.983   1.697  13.337
47100SOL    HW243198   8.048   1.568  13.290
47101SOL     OW43199  12.505   1.110   6.066
47101SOL    HW143200  12.599   1.105   6.086
47101SOL    HW243201  12.466   1.142   6.147
47102SOL     OW43202   2.221   5.800  12.205
47102SOL    HW143203   2.125   5.795  12.196
47102SOL    HW243204   2.254   5.779  12.118
47103SOL     OW43205   9.011   7.904  12.122
47103SOL    HW143206   9.092   7.856  12.103
47103SOL    HW243207   9.023   7.937  12.211
47104SOL     OW43208   0.282   6.674   0.669
47104SOL    HW143209   0.301   6.609   0.602
47104SOL    HW243210   0.219   6.631   0.727
47105SOL     OW43211   4.951   1.753   7.535
47105SOL    HW143212   4.967   1.791   7.448
47105SOL    HW243213   4.963   1.659   7.523
47106SOL     OW43214   9.947   3.253  13.631
47106SOL    HW143215   9.917   3.174  13.676
47106SOL    HW243216   9.932   3.235  13.538
47107SOL     OW43217   6.359  13.033   2.594
47107SOL    HW143218   6.307  13.099   2.549
47107SOL    HW243219   6.410  13.082   2.659
47108SOL     OW43220  12.015  14.826   4.615
47108SOL    HW143221  12.076  14.755   4.596
47108SOL    HW243222  12.065   0.007   4.669
47109SOL     OW43223  13.402   0.722   4.547
47109SOL    HW143224  13.487   0.695   4.581
47109SOL    HW243225  13.377   0.797   4.601
47110SOL     OW43226   8.652  10.064   8.401
47110SOL    HW143227   8.593  10.133   8.432
47110SOL    HW243228   8.644  10.067   8.306
47111SOL     OW43229  11.463   6.694   0.224
47111SOL    HW143230  11.380   6.689   0.178
47111SOL    HW243231  11.453   6.768   0.284
47112SOL     OW43232   5.463   5.923  11.180
47112SOL    HW143233   5.540   5.951  11.229
47112SOL    HW243234   5.485   5.833  11.152
47113SOL     OW43235   0.382   4.445   1.391
47113SOL    HW143236   0.360   4.379   1.326
47113SOL    HW243237   0.328   4.521   1.369
47114SOL     OW43238   9.826  13.816   1.175
47114SOL    HW143239   9.784  13.832   1.090
47114SOL    HW243240   9.788  13.734   1.205
47115SOL     OW43241  13.691   0.746  12.072
47115SOL    HW143242  13.760   0.775  12.012
47115SOL    HW243243  13.636   0.824  12.084
47116SOL     OW43244   1.403   8.838   7.344
47116SOL    HW143245   1.315   8.861   7.314
47116SOL    HW243246   1.416   8.748   7.314
47117SOL     OW43247   9.735  10.005   7.836
47117SOL    HW143248   9.703   9.954   7.910
47117SOL    HW243249   9.792   9.944   7.788
47118SOL     OW43250  13.032   1.417   6.456
47118SOL    HW143251  12.971   1.464   6.513
47118SOL    HW243252  13.074   1.354   6.514
47119SOL     OW43253   8.813   7.831   1.588
47119SOL    HW143254   8.869   7.879   1.650
47119SOL    HW243255   8.725   7.838   1.625
47120SOL     OW43256  11.996   3.281   7.417
47120SOL    HW143257  11.980   3.366   7.457
47120SOL    HW243258  11.973   3.217   7.485
47121SOL     OW43259   4.458   3.895   5.052
47121SOL    HW143260   4.412   3.966   5.007
47121SOL    HW243261   4.389   3.846   5.096
47122SOL     OW43262   7.388  11.977  12.486
47122SOL    HW143263   7.374  12.003  12.577
47122SOL    HW243264   7.458  12.035  12.455
47123SOL     OW43265   4.227   1.581  14.158
47123SOL    HW143266   4.232   1.654  14.220
47123SOL    HW243267   4.142   1.590  14.117
47124SOL     OW43268   2.890  12.662  11.648
47124SOL    HW143269   2.844  12.629  11.725
47124SOL    HW243270   2.826  12.720  11.606
47125SOL     OW43271   4.219   4.791   6.938
47125SOL    HW143272   4.244   4.788   7.030
47125SOL    HW243273   4.136   4.744   6.934
47126SOL     OW43274  14.754   9.101  13.288
47126SOL    HW143275  14.689   9.082  13.355
47126SOL    HW243276  14.718   9.176  13.240
47127SOL     OW43277   4.307  14.449  13.980
47127SOL    HW143278   4.345  14.511  14.041
47127SOL    HW243279   4.321  14.363  14.021
47128SOL     OW43280  12.101   3.156   1.965
47128SOL    HW143281  12.061   3.214   2.029
47128SOL    HW243282  12.087   3.200   1.881
47129SOL     OW43283  12.997  14.681   1.581
47129SOL    HW143284  13.068  14.743   1.561
47129SOL    HW243285  12.971  14.704   1.670
47130SOL     OW43286   4.361   4.580   9.147
47130SOL    HW143287   4.419   4.646   9.184
47130SOL    HW243288   4.401   4.496   9.172
47131SOL     OW43289  13.655  10.866  14.344
47131SOL    HW143290  13.699  10.881  14.261
47131SOL    HW243291  13.659  10.772  14.356
47132SOL     OW43292   8.464   7.178  10.231
47132SOL    HW143293   8.559   7.181  10.224
47132SOL    HW243294   8.435   7.266  10.207
47133SOL     OW43295   5.795   7.100   4.372
47133SOL    HW143296   5.856   7.132   4.306
47133SOL    HW243297   5.709   7.105   4.330
47134SOL     OW43298  12.833   6.092   1.884
47134SOL    HW143299  12.776   6.028   1.925
47134SOL    HW243300  12.785   6.121   1.807
47135SOL     OW43301   8.008   1.192   7.304
47135SOL    HW143302   7.956   1.170   7.227
47135SOL    HW243303   7.992   1.121   7.366
47136SOL     OW43304  14.467   6.914   6.036
47136SOL    HW143305  14.384   6.930   6.082
47136SOL    HW243306  14.522   6.870   6.100
47137SOL     OW43307  13.069   6.216  14.432
47137SOL    HW143308  13.004   6.275  14.471
47137SOL    HW243309  13.132   6.275  14.389
47138SOL     OW43310   1.515  14.450  11.017
47138SOL    HW143311   1.456  14.469  11.090
47138SOL    HW243312   1.557  14.533  10.998
47139SOL     OW43313   2.229  12.333   0.608
47139SOL    HW143314   2.254  12.409   0.661
47139SOL    HW243315   2.141  12.354   0.577
47140SOL     OW43316  10.977   5.704  10.858
47140SOL    HW143317  10.898   5.730  10.905
47140SOL    HW243318  11.029   5.784  10.851
47141SOL     OW43319   3.076   1.945   9.586
47141SOL    HW143320   3.025   2.023   9.606
47141SOL    HW243321   3.167   1.973   9.592
47142SOL     OW43322  12.669  13.331   3.466
47142SOL    HW143323  12.734  13.402   3.470
47142SOL    HW243324  12.585  13.377   3.466
47143SOL     OW43325   3.450  11.431   3.778
47143SOL    HW143326   3.518  11.445   3.713
47143SOL    HW243327   3.384  11.498   3.759
47144SOL     OW43328  10.660   9.421   7.554
47144SOL    HW143329  10.612   9.350   7.511
47144SOL    HW243330  10.741   9.380   7.584
47145SOL     OW43331   1.277   6.821  14.193
47145SOL    HW143332   1.210   6.792  14.130
47145SOL    HW243333   1.310   6.903  14.157
47146SOL     OW43334   9.762   3.456   6.789
47146SOL    HW143335   9.693   3.407   6.833
47146SOL    HW243336   9.726   3.544   6.779
47147SOL     OW43337   5.084  13.076  14.607
47147SOL    HW143338   5.163  13.112  14.567
47147SOL    HW243339   5.074  12.990  14.566
47148SOL     OW43340  13.148  10.294  10.958
47148SOL    HW143341  13.206  10.359  10.919
47148SOL    HW243342  13.190  10.270  11.040
47149SOL     OW43343  10.195   8.146   5.389
47149SOL    HW143344  10.121   8.197   5.357
47149SOL    HW243345  10.183   8.143   5.484
47150SOL     OW43346   0.227   2.677   0.183
47150SOL    HW143347   0.307   2.626   0.186
47150SOL    HW243348   0.253   2.764   0.213
47151SOL     OW43349  12.592   6.658  11.804
47151SOL    HW143350  12.652   6.585  11.823
47151SOL    HW243351  12.640   6.714  11.744
47152SOL     OW43352   9.432   7.420   5.174
47152SOL    HW143353   9.402   7.467   5.252
47152SOL    HW243354   9.401   7.330   5.188
47153SOL     OW43355  11.171  12.089   7.794
47153SOL    HW143356  11.220  12.169   7.780
47153SOL    HW243357  11.085  12.106   7.755
47154SOL     OW43358   1.989  10.817   3.677
47154SOL    HW143359   1.992  10.731   3.718
47154SOL    HW243360   1.920  10.864   3.725
47155SOL     OW43361   4.065   7.795  10.091
47155SOL    HW143362   4.042   7.707  10.062
47155SOL    HW243363   4.015   7.853  10.034
47156SOL     OW43364   1.046  11.862   1.459
47156SOL    HW143365   1.058  11.772   1.491
47156SOL    HW243366   0.951  11.871   1.450
47157SOL     OW43367   3.880  13.106   0.271
47157SOL    HW143368   3.790  13.125   0.245
47157SOL    HW243369   3.889  13.011   0.261
47158SOL     OW43370   0.820   2.996   1.860
47158SOL    HW143371   0.767   3.073   1.837
47158SOL    HW243372   0.756   2.933   1.894
47159SOL     OW43373  11.001   6.961  11.753
47159SOL    HW143374  11.084   6.930  11.717
47159SOL    HW243375  11.020   7.049  11.786
47160SOL     OW43376   4.447   7.111  11.218
47160SOL    HW143377   4.382   7.043  11.207
47160SOL    HW243378   4.512   7.074  11.278
47161SOL     OW43379   3.704   0.402   1.217
47161SOL    HW143380   3.687   0.484   1.263
47161SOL    HW243381   3.685   0.333   1.280
47162SOL     OW43382  10.780  13.437   5.519
47162SOL    HW143383  10.689  13.439   5.490
47162SOL    HW243384  10.817  13.520   5.487
47163SOL     OW43385  13.494   6.960   8.083
47163SOL    HW143386  13.557   6.997   8.145
47163SOL    HW243387  13.442   7.034   8.055
47164SOL     OW43388  13.601  11.998   9.635
47164SOL    HW143389  13.557  11.995   9.550
47164SOL    HW243390  13.673  12.059   9.622
47165SOL     OW43391   9.844   4.910  11.285
47165SOL    HW143392   9.873   4.878  11.370
47165SOL    HW243393   9.767   4.964  11.304
47166SOL     OW43394  11.108  14.581   7.156
47166SOL    HW143395  11.188  14.529   7.164
47166SOL    HW243396  11.138  14.670   7.139
47167SOL     OW43397  10.358   3.923   2.094
47167SOL    HW143398  10.277   3.939   2.143
47167SOL    HW243399  10.350   3.832   2.065
47168SOL     OW43400  12.237   5.449  10.886
47168SOL    HW143401  12.213   5.416  10.799
47168SOL    HW243402  12.330   5.471  10.879
47169SOL     OW43403  10.276   0.028   6.790
47169SOL    HW143404  10.303   0.092   6.855
47169SOL    HW243405  10.266   0.078   6.709
47170SOL     OW43406  11.966   1.892   7.043
47170SOL    HW143407  11.929   1.981   7.041
47170SOL    HW243408  11.899   1.839   7.086
47171SOL     OW43409   2.616   8.239   7.074
47171SOL    HW143410   2.621   8.145   7.060
47171SOL    HW243411   2.703   8.263   7.107
47172SOL     OW43412   7.035   0.953   1.921
47172SOL    HW143413   7.028   0.900   2.001
47172SOL    HW243414   7.125   0.984   1.920
47173SOL     OW43415   9.010  12.933   2.909
47173SOL    HW143416   9.015  12.899   2.998
47173SOL    HW243417   9.043  13.023   2.915
47174SOL     OW43418   1.144   5.442   5.317
47174SOL    HW143419   1.112   5.354   5.338
47174SOL    HW243420   1.240   5.434   5.325
47175SOL     OW43421  11.336   4.713  12.298
47175SOL    HW143422  11.371   4.626  12.277
47175SOL    HW243423  11.412   4.764  12.324
47176SOL     OW43424   9.836  12.566   3.372
47176SOL    HW143425   9.861  12.562   3.280
47176SOL    HW243426   9.904  12.619   3.413
47177SOL     OW43427   0.442   9.179   6.577
47177SOL    HW143428   0.470   9.097   6.617
47177SOL    HW243429   0.445   9.162   6.483
47178SOL     OW43430   2.399   3.667   4.194
47178SOL    HW143431   2.433   3.733   4.254
47178SOL    HW243432   2.414   3.583   4.238
47179SOL     OW43433   5.886   9.942  10.621
47179SOL    HW143434   5.917  10.031  10.638
47179SOL    HW243435   5.964   9.895  10.591
47180SOL     OW43436   1.559  13.278   0.810
47180SOL    HW143437   1.492  13.212   0.829
47180SOL    HW243438   1.637  13.247   0.856
47181SOL     OW43439   6.554   5.017   4.165
47181SOL    HW143440   6.578   5.099   4.122
47181SOL    HW243441   6.508   5.045   4.245
47182SOL     OW43442   5.445   0.475   2.288
47182SOL    HW143443   5.510   0.465   2.358
47182SOL    HW243444   5.496   0.482   2.208
47183SOL     OW43445  13.335   6.658  13.911
47183SOL    HW143446  13.396   6.629  13.843
47183SOL    HW243447  13.273   6.715  13.865
47184SOL     OW43448   9.287   9.986   0.785
47184SOL    HW143449   9.336  10.068   0.789
47184SOL    HW243450   9.293   9.959   0.693
47185SOL     OW43451  14.028   8.657   7.036
47185SOL    HW143452  13.991   8.641   7.123
47185SOL    HW243453  14.088   8.584   7.022
47186SOL     OW43454  12.009  12.605   6.361
47186SOL    HW143455  12.103  12.602   6.342
47186SOL    HW243456  11.970  12.542   6.301
47187SOL     OW43457   1.571   7.426  11.759
47187SOL    HW143458   1.614   7.377  11.689
47187SOL    HW243459   1.504   7.478  11.714
47188SOL     OW43460   7.211  13.113   5.369
47188SOL    HW143461   7.128  13.078   5.337
47188SOL    HW243462   7.254  13.038   5.409
47189SOL     OW43463   7.504  14.411  14.811
47189SOL    HW143464   7.466  14.324  14.799
47189SOL    HW243465   7.490  14.454  14.726
47190SOL     OW43466  10.649  10.545   4.870
47190SOL    HW143467  10.588  10.471   4.870
47190SOL    HW243468  10.596  10.620   4.898
47191SOL     OW43469  13.715   7.789   3.416
47191SOL    HW143470  13.682   7.714   3.368
47191SOL    HW243471  13.642   7.816   3.472
47192SOL     OW43472   8.007  10.436   8.350
47192SOL    HW143473   8.019  10.521   8.392
47192SOL    HW243474   8.084  10.385   8.377
47193SOL     OW43475   8.806  10.069   3.030
47193SOL    HW143476   8.801  10.125   3.108
47193SOL    HW243477   8.740  10.001   3.045
47194SOL     OW43478  13.890   3.920  13.059
47194SOL    HW143479  13.896   4.006  13.018
47194SOL    HW243480  13.820   3.929  13.124
47195SOL     OW43481   1.779   7.848   8.001
47195SOL    HW143482   1.695   7.834   8.045
47195SOL    HW243483   1.842   7.797   8.051
47196SOL     OW43484   4.184  14.864   8.282
47196SOL    HW143485   4.177   0.024   8.369
47196SOL    HW243486   4.167   0.056   8.221
47197SOL     OW43487   1.214   3.017   7.798
47197SOL    HW143488   1.298   2.993   7.758
47197SOL    HW243489   1.230   3.012   7.892
47198SOL     OW43490  12.800   6.312  14.478
47198SOL    HW143491  12.731   6.275  14.422
47198SOL    HW243492  12.797   6.260  14.558
47199SOL     OW43493   6.171  12.369  11.275
47199SOL    HW143494   6.124  12.435  11.224
47199SOL    HW243495   6.190  12.413  11.358
47200SOL     OW43496   0.203   7.024   8.299
47200SOL    HW143497   0.236   6.994   8.215
47200SOL    HW243498   0.195   7.119   8.289
47201SOL     OW43499   0.190   2.578   0.450
47201SOL    HW143500   0.208   2.599   0.358
47201SOL    HW243501   0.104   2.617   0.467
47202SOL     OW43502  12.251   2.534   7.770
47202SOL    HW143503  12.178   2.520   7.831
47202SOL    HW243504  12.218   2.504   7.686
47203SOL     OW43505   4.028   7.419  11.252
47203SOL    HW143506   4.100   7.469  11.289
47203SOL    HW243507   3.963   7.485  11.228
47204SOL     OW43508   2.406  12.236   9.701
47204SOL    HW143509   2.443  12.160   9.656
47204SOL    HW243510   2.451  12.239   9.785
47205SOL     OW43511  13.436  14.820   1.571
47205SOL    HW143512  13.428  14.726   1.557
47205SOL    HW243513  13.361  14.858   1.526
47206SOL     OW43514  13.054   7.918   2.105
47206SOL    HW143515  13.124   7.854   2.122
47206SOL    HW243516  13.055   7.929   2.010
47207SOL     OW43517   8.029   7.495  11.136
47207SOL    HW143518   8.101   7.535  11.086
47207SOL    HW243519   8.060   7.407  11.156
47208SOL     OW43520   2.874  10.125   5.403
47208SOL    HW143521   2.847  10.213   5.428
47208SOL    HW243522   2.832  10.068   5.467
47209SOL     OW43523  11.129  11.804   0.500
47209SOL    HW143524  11.223  11.822   0.499
47209SOL    HW243525  11.103  11.816   0.591
47210SOL     OW43526  12.850   3.148   3.953
47210SOL    HW143527  12.796   3.176   4.027
47210SOL    HW243528  12.853   3.224   3.895
47211SOL     OW43529   4.261   8.540   7.293
47211SOL    HW143530   4.247   8.619   7.345
47211SOL    HW243531   4.240   8.567   7.203
47212SOL     OW43532  12.230  11.544   7.155
47212SOL    HW143533  12.225  11.452   7.182
47212SOL    HW243534  12.266  11.542   7.067
47213SOL     OW43535   9.635   2.692   9.003
47213SOL    HW143536   9.723   2.684   8.967
47213SOL    HW243537   9.648   2.735   9.088
47214SOL     OW43538  12.262   2.362   4.982
47214SOL    HW143539  12.251   2.300   5.054
47214SOL    HW243540  12.294   2.442   5.024
47215SOL     OW43541  12.596  12.741  12.029
47215SOL    HW143542  12.571  12.661  11.983
47215SOL    HW243543  12.519  12.763  12.082
47216SOL     OW43544   3.344   5.035   7.544
47216SOL    HW143545   3.289   5.106   7.578
47216SOL    HW243546   3.340   5.046   7.449
47217SOL     OW43547   1.530   5.606   4.310
47217SOL    HW143548   1.461   5.545   4.285
47217SOL    HW243549   1.591   5.606   4.236
47218SOL     OW43550  13.886   6.270  12.984
47218SOL    HW143551  13.892   6.212  12.908
47218SOL    HW243552  13.905   6.213  13.059
47219SOL     OW43553   9.868   0.299   2.633
47219SOL    HW143554   9.804   0.264   2.695
47219SOL    HW243555   9.953   0.284   2.674
47220SOL     OW43556   8.575  14.792  14.669
47220SOL    HW143557   8.639  14.860  14.650
47220SOL    HW243558   8.627  14.713  14.683
47221SOL     OW43559   6.174   6.464   2.556
47221SOL    HW143560   6.134   6.551   2.546
47221SOL    HW243561   6.265   6.477   2.530
47222SOL     OW43562  12.494   8.162   0.291
47222SOL    HW143563  12.408   8.128   0.313
47222SOL    HW243564  12.555   8.112   0.344
47223SOL     OW43565  14.390  12.656  11.775
47223SOL    HW143566  14.388  12.564  11.750
47223SOL    HW243567  14.399  12.656  11.870
47224SOL     OW43568  14.024   1.681   9.252
47224SOL    HW143569  14.063   1.646   9.171
47224SOL    HW243570  14.098   1.719   9.299
47225SOL     OW43571   9.568  11.784   1.118
47225SOL    HW143572   9.498  11.845   1.095
47225SOL    HW243573   9.539  11.700   1.081
47226SOL     OW43574  14.102  14.862  14.227
47226SOL    HW143575  14.083  14.803  14.300
47226SOL    HW243576  14.166  14.815  14.174
47227SOL     OW43577   6.502   0.639   5.412
47227SOL    HW143578   6.486   0.545   5.400
47227SOL    HW243579   6.434   0.682   5.361
47228SOL     OW43580   6.288  10.761   2.109
47228SOL    HW143581   6.326  10.675   2.092
47228SOL    HW243582   6.335  10.793   2.187
47229SOL     OW43583   9.387   9.824  11.296
47229SOL    HW143584   9.413   9.875  11.219
47229SOL    HW243585   9.378   9.734  11.263
47230SOL     OW43586   7.400  13.988   8.624
47230SOL    HW143587   7.451  13.911   8.601
47230SOL    HW243588   7.319  13.979   8.575
47231SOL     OW43589  12.828   3.135   9.482
47231SOL    HW143590  12.867   3.048   9.477
47231SOL    HW243591  12.750   3.129   9.428
47232SOL     OW43592   7.918  14.833   9.194
47232SOL    HW143593   7.862  14.774   9.144
47232SOL    HW243594   7.890  14.822   9.285
47233SOL     OW43595   0.956  12.820   4.012
47233SOL    HW143596   0.922  12.762   4.080
47233SOL    HW243597   0.879  12.849   3.964
47234SOL     OW43598   0.069  13.923   4.816
47234SOL    HW143599   0.041  13.937   4.906
47234SOL    HW243600   0.055  14.008   4.773
47235SOL     OW43601   1.008   2.993  11.672
47235SOL    HW143602   1.093   3.022  11.706
47235SOL    HW243603   1.030   2.940  11.595
47236SOL     OW43604   2.497  12.970   2.867
47236SOL    HW143605   2.431  12.992   2.932
47236SOL    HW243606   2.561  12.917   2.914
47237SOL     OW43607   7.683   6.612  11.252
47237SOL    HW143608   7.714   6.628  11.341
47237SOL    HW243609   7.627   6.534  11.259
47238SOL     OW43610   0.692   0.101   3.185
47238SOL    HW143611   0.777   0.092   3.228
47238SOL    HW243612   0.654   0.180   3.224
47239SOL     OW43613  10.670  10.679   6.977
47239SOL    HW143614  10.760  10.701   6.999
47239SOL    HW243615  10.634  10.642   7.058
47240SOL     OW43616  12.815   7.210   7.292
47240SOL    HW143617  12.783   7.145   7.230
47240SOL    HW243618  12.737   7.257   7.321
47241SOL     OW43619  11.007   6.581  11.250
47241SOL    HW143620  10.949   6.541  11.315
47241SOL    HW243621  11.093   6.583  11.293
47242SOL     OW43622   9.953   4.884   9.985
47242SOL    HW143623   9.904   4.858   9.906
47242SOL    HW243624   9.886   4.906  10.049
47243SOL     OW43625   9.339   5.744  14.856
47243SOL    HW143626   9.368   5.754   0.067
47243SOL    HW243627   9.380   5.663  14.826
47244SOL     OW43628  14.546   2.978   6.188
47244SOL    HW143629  14.458   2.949   6.165
47244SOL    HW243630  14.537   3.019   6.273
47245SOL     OW43631  13.380   2.201  13.541
47245SOL    HW143632  13.363   2.125  13.596
47245SOL    HW243633  13.299   2.251  13.544
47246SOL     OW43634  12.416   4.652   1.168
47246SOL    HW143635  12.373   4.666   1.253
47246SOL    HW243636  12.403   4.734   1.121
47247SOL     OW43637   9.382  12.883   5.544
47247SOL    HW143638   9.295  12.886   5.505
47247SOL    HW243639   9.417  12.971   5.532
47248SOL     OW43640   3.548  11.798  14.765
47248SOL    HW143641   3.511  11.800  14.677
47248SOL    HW243642   3.621  11.860  14.762
47249SOL     OW43643  13.077   4.252   5.157
47249SOL    HW143644  13.007   4.193   5.129
47249SOL    HW243645  13.038   4.340   5.150
47250SOL     OW43646   2.644   9.098   3.768
47250SOL    HW143647   2.635   9.193   3.762
47250SOL    HW243648   2.729   9.085   3.809
47251SOL     OW43649  11.831   3.159   6.148
47251SOL    HW143650  11.740   3.152   6.120
47251SOL    HW243651  11.882   3.151   6.068
47252SOL     OW43652  10.368   2.867   5.347
47252SOL    HW143653  10.459   2.845   5.365
47252SOL    HW243654  10.364   2.878   5.252
47253SOL     OW43655  11.155   1.957   0.476
47253SOL    HW143656  11.218   1.939   0.406
47253SOL    HW243657  11.192   2.032   0.522
47254SOL     OW43658   5.880   9.794   9.444
47254SOL    HW143659   5.850   9.713   9.403
47254SOL    HW243660   5.905   9.850   9.370
47255SOL     OW43661   8.467   2.977   1.426
47255SOL    HW143662   8.414   2.897   1.426
47255SOL    HW243663   8.533   2.962   1.494
47256SOL     OW43664  10.152   3.414   6.028
47256SOL    HW143665  10.057   3.409   6.028
47256SOL    HW243666  10.173   3.479   6.095
47257SOL     OW43667   9.468   5.968  10.433
47257SOL    HW143668   9.558   5.944  10.452
47257SOL    HW243669   9.433   5.894  10.383
47258SOL     OW43670   3.759  11.023  10.556
47258SOL    HW143671   3.785  10.987  10.471
47258SOL    HW243672   3.685  10.969  10.584
47259SOL     OW43673  10.487   6.242   5.132
47259SOL    HW143674  10.569   6.193   5.124
47259SOL    HW243675  10.433   6.188   5.190
47260SOL     OW43676   0.074   7.976   6.397
47260SOL    HW143677   0.044   7.928   6.320
47260SOL    HW243678   0.013   8.050   6.405
47261SOL     OW43679   5.967   2.375  12.051
47261SOL    HW143680   5.935   2.375  11.961
47261SOL    HW243681   5.956   2.465  12.080
47262SOL     OW43682   6.303   1.951   2.403
47262SOL    HW143683   6.235   1.890   2.430
47262SOL    HW243684   6.376   1.933   2.463
47263SOL     OW43685  10.344   1.134  13.576
47263SOL    HW143686  10.360   1.145  13.670
47263SOL    HW243687  10.251   1.153  13.565
47264SOL     OW43688   7.705   0.175   1.499
47264SOL    HW143689   7.632   0.183   1.559
47264SOL    HW243690   7.672   0.121   1.427
47265SOL     OW43691  12.629   2.996  11.238
47265SOL    HW143692  12.661   3.041  11.317
47265SOL    HW243693  12.619   2.905  11.265
47266SOL     OW43694   4.693  10.095   3.865
47266SOL    HW143695   4.692  10.093   3.961
47266SOL    HW243696   4.666  10.007   3.839
47267SOL     OW43697   0.125  10.141   5.432
47267SOL    HW143698   0.165  10.188   5.359
47267SOL    HW243699   0.130  10.049   5.407
47268SOL     OW43700  12.312   2.862   9.986
47268SOL    HW143701  12.329   2.933   9.924
47268SOL    HW243702  12.342   2.896  10.070
47269SOL     OW43703  14.869   3.200   4.384
47269SOL    HW143704   0.064   3.199   4.324
47269SOL    HW243705   0.021   3.248   4.461
47270SOL     OW43706   3.728  13.378  12.371
47270SOL    HW143707   3.798  13.317  12.348
47270SOL    HW243708   3.650  13.342  12.327
47271SOL     OW43709   0.812   4.901   6.190
47271SOL    HW143710   0.804   4.848   6.111
47271SOL    HW243711   0.832   4.989   6.157
47272SOL     OW43712  13.175   6.904   5.230
47272SOL    HW143713  13.147   6.853   5.306
47272SOL    HW243714  13.097   6.907   5.174
47273SOL     OW43715   8.151   7.707   9.682
47273SOL    HW143716   8.204   7.667   9.751
47273SOL    HW243717   8.213   7.762   9.633
47274SOL     OW43718   5.682  14.678  13.884
47274SOL    HW143719   5.705  14.695  13.793
47274SOL    HW243720   5.631  14.597  13.882
47275SOL     OW43721   9.376   5.530   8.183
47275SOL    HW143722   9.373   5.581   8.264
47275SOL    HW243723   9.456   5.559   8.140
47276SOL     OW43724   8.603  12.015   9.125
47276SOL    HW143725   8.508  12.013   9.113
47276SOL    HW243726   8.617  11.986   9.215
47277SOL     OW43727  12.544  14.282  10.181
47277SOL    HW143728  12.626  14.284  10.230
47277SOL    HW243729  12.483  14.236  10.239
47278SOL     OW43730   4.430   3.561   6.800
47278SOL    HW143731   4.511   3.511   6.787
47278SOL    HW243732   4.452   3.650   6.772
47279SOL     OW43733   8.901   5.031   9.425
47279SOL    HW143734   8.944   5.033   9.511
47279SOL    HW243735   8.944   4.959   9.379
47280SOL     OW43736   5.833  11.200   8.088
47280SOL    HW143737   5.749  11.159   8.107
47280SOL    HW243738   5.846  11.184   7.994
47281SOL     OW43739  12.389   7.272  12.875
47281SOL    HW143740  12.482   7.293  12.881
47281SOL    HW243741  12.369   7.278  12.781
47282SOL     OW43742  10.461   8.305  13.281
47282SOL    HW143743  10.377   8.305  13.235
47282SOL    HW243744  10.472   8.394  13.314
47283SOL     OW43745   3.084   6.205   9.155
47283SOL    HW143746   3.112   6.228   9.066
47283SOL    HW243747   3.011   6.264   9.173
47284SOL     OW43748  13.913   9.655   3.283
47284SOL    HW143749  13.884   9.608   3.204
47284SOL    HW243750  13.963   9.590   3.332
47285SOL     OW43751  11.538   4.583   4.581
47285SOL    HW143752  11.483   4.528   4.525
47285SOL    HW243753  11.608   4.614   4.524
47286SOL     OW43754   5.811   1.626   5.953
47286SOL    HW143755   5.804   1.708   6.002
47286SOL    HW243756   5.722   1.590   5.953
47287SOL     OW43757  12.675   1.288   3.943
47287SOL    HW143758  12.760   1.321   3.972
47287SOL    HW243759  12.612   1.355   3.971
47288SOL     OW43760  14.160   2.618   2.681
47288SOL    HW143761  14.162   2.597   2.588
47288SOL    HW243762  14.088   2.565   2.716
47289SOL     OW43763   9.966   7.291  12.529
47289SOL    HW143764   9.890   7.325  12.481
47289SOL    HW243765  10.039   7.302  12.468
47290SOL     OW43766   8.828   7.731  11.820
47290SOL    HW143767   8.754   7.680  11.851
47290SOL    HW243768   8.799   7.768  11.736
47291SOL     OW43769  11.150   5.222   3.997
47291SOL    HW143770  11.152   5.128   3.979
47291SOL    HW243771  11.079   5.255   3.942
47292SOL     OW43772  14.586  13.731   7.375
47292SOL    HW143773  14.653  13.793   7.403
47292SOL    HW243774  14.585  13.739   7.279
47293SOL     OW43775  11.314  11.968   4.242
47293SOL    HW143776  11.349  11.898   4.186
47293SOL    HW243777  11.221  11.948   4.252
47294SOL     OW43778   8.873  14.030   8.736
47294SOL    HW143779   8.918  14.054   8.816
47294SOL    HW243780   8.905  13.942   8.715
47295SOL     OW43781   9.355   8.384   1.345
47295SOL    HW143782   9.372   8.365   1.437
47295SOL    HW243783   9.440   8.406   1.309
47296SOL     OW43784   2.268   6.489  10.516
47296SOL    HW143785   2.346   6.532  10.552
47296SOL    HW243786   2.248   6.539  10.436
47297SOL     OW43787  11.533   6.308   3.449
47297SOL    HW143788  11.537   6.302   3.354
47297SOL    HW243789  11.512   6.219   3.478
47298SOL     OW43790  10.560  11.201  11.955
47298SOL    HW143791  10.639  11.161  11.917
47298SOL    HW243792  10.573  11.193  12.050
47299SOL     OW43793   0.512  12.435   8.326
47299SOL    HW143794   0.460  12.472   8.397
47299SOL    HW243795   0.591  12.490   8.323
47300SOL     OW43796   0.178   8.616   3.547
47300SOL    HW143797   0.225   8.535   3.567
47300SOL    HW243798   0.193   8.630   3.454
47301SOL     OW43799   2.654   8.029   2.882
47301SOL    HW143800   2.572   8.064   2.847
47301SOL    HW243801   2.719   8.050   2.815
47302SOL     OW43802   9.868   6.396  13.817
47302SOL    HW143803   9.951   6.369  13.855
47302SOL    HW243804   9.831   6.315  13.780
47303SOL     OW43805  14.624  12.017  11.579
47303SOL    HW143806  14.583  12.100  11.554
47303SOL    HW243807  14.652  11.978  11.496
47304SOL     OW43808   3.249   6.269   5.324
47304SOL    HW143809   3.288   6.183   5.337
47304SOL    HW243810   3.189   6.280   5.397
47305SOL     OW43811   9.158   3.033   7.705
47305SOL    HW143812   9.165   3.069   7.793
47305SOL    HW243813   9.177   2.940   7.715
47306SOL     OW43814   0.523  11.217   7.606
47306SOL    HW143815   0.476  11.264   7.676
47306SOL    HW243816   0.533  11.128   7.640
47307SOL     OW43817  12.379   1.719   6.071
47307SOL    HW143818  12.423   1.795   6.032
47307SOL    HW243819  12.343   1.672   5.996
47308SOL     OW43820   7.539   8.633   8.128
47308SOL    HW143821   7.553   8.585   8.210
47308SOL    HW243822   7.544   8.567   8.060
47309SOL     OW43823   2.702  10.383  12.578
47309SOL    HW143824   2.767  10.438  12.534
47309SOL    HW243825   2.626  10.385  12.520
47310SOL     OW43826  10.504   4.352   3.468
47310SOL    HW143827  10.489   4.424   3.406
47310SOL    HW243828  10.599   4.346   3.474
47311SOL     OW43829   8.238   6.689   5.782
47311SOL    HW143830   8.221   6.736   5.864
47311SOL    HW243831   8.240   6.758   5.715
47312SOL     OW43832   9.406   0.401   0.918
47312SOL    HW143833   9.416   0.314   0.879
47312SOL    HW243834   9.412   0.461   0.843
47313SOL     OW43835   2.828  10.739  12.834
47313SOL    HW143836   2.785  10.776  12.911
47313SOL    HW243837   2.779  10.660  12.815
47314SOL     OW43838   2.244  14.595   0.311
47314SOL    HW143839   2.280  14.680   0.284
47314SOL    HW243840   2.204  14.560   0.232
47315SOL     OW43841  13.445  12.265  10.240
47315SOL    HW143842  13.493  12.185  10.218
47315SOL    HW243843  13.354  12.237  10.249
47316SOL     OW43844   4.298   8.869  13.299
47316SOL    HW143845   4.393   8.874  13.306
47316SOL    HW243846   4.269   8.960  13.293
47317SOL     OW43847   0.095   4.710  10.700
47317SOL    HW143848   0.098   4.780  10.635
47317SOL    HW243849   0.045   4.640  10.657
47318SOL     OW43850  14.101  13.020   7.854
47318SOL    HW143851  14.080  13.001   7.946
47318SOL    HW243852  14.084  13.114   7.844
47319SOL     OW43853   7.876  10.357  10.857
47319SOL    HW143854   7.919  10.422  10.913
47319SOL    HW243855   7.785  10.386  10.853
47320SOL     OW43856  10.262   7.876   9.754
47320SOL    HW143857  10.208   7.885   9.833
47320SOL    HW243858  10.319   7.801   9.773
47321SOL     OW43859   9.912   5.570  11.902
47321SOL    HW143860   9.911   5.548  11.809
47321SOL    HW243861  10.005   5.584  11.922
47322SOL     OW43862   3.055   4.665   8.555
47322SOL    HW143863   3.112   4.588   8.552
47322SOL    HW243864   3.102   4.731   8.503
47323SOL     OW43865   6.542   9.044   1.189
47323SOL    HW143866   6.500   9.093   1.259
47323SOL    HW243867   6.636   9.050   1.208
47324SOL     OW43868   3.009  10.387   8.270
47324SOL    HW143869   3.017  10.335   8.191
47324SOL    HW243870   2.915  10.388   8.290
47325SOL     OW43871  11.903  14.510   3.787
47325SOL    HW143872  11.904  14.415   3.782
47325SOL    HW243873  11.994  14.537   3.774
47326SOL     OW43874  12.796   3.520  12.683
47326SOL    HW143875  12.707   3.555  12.697
47326SOL    HW243876  12.842   3.539  12.765
47327SOL     OW43877   8.100   6.969  10.628
47327SOL    HW143878   8.168   7.009  10.681
47327SOL    HW243879   8.145   6.899  10.581
47328SOL     OW43880   5.820  13.054   6.481
47328SOL    HW143881   5.747  12.999   6.453
47328SOL    HW243882   5.842  13.108   6.405
47329SOL     OW43883   5.157  10.740  13.776
47329SOL    HW143884   5.146  10.835  13.786
47329SOL    HW243885   5.178  10.728  13.683
47330SOL     OW43886   8.492   0.256   4.160
47330SOL    HW143887   8.479   0.296   4.246
47330SOL    HW243888   8.546   0.319   4.112
47331SOL     OW43889  13.104   5.543   5.083
47331SOL    HW143890  13.033   5.534   5.018
47331SOL    HW243891  13.182   5.557   5.030
47332SOL     OW43892   0.745  14.391  12.581
47332SOL    HW143893   0.682  14.322  12.562
47332SOL    HW243894   0.823  14.344  12.612
47333SOL     OW43895   7.689  13.571  13.249
47333SOL    HW143896   7.718  13.652  13.206
47333SOL    HW243897   7.655  13.601  13.334
47334SOL     OW43898   0.656   4.484   3.720
47334SOL    HW143899   0.598   4.523   3.785
47334SOL    HW243900   0.731   4.451   3.771
47335SOL     OW43901   4.784   9.072  10.690
47335SOL    HW143902   4.807   9.123  10.613
47335SOL    HW243903   4.822   9.120  10.763
47336SOL     OW43904   6.196  14.870   2.022
47336SOL    HW143905   6.252   0.034   1.958
47336SOL    HW243906   6.256  14.815   2.072
47337SOL     OW43907   4.415   0.055  12.124
47337SOL    HW143908   4.443   0.103  12.047
47337SOL    HW243909   4.344   0.107  12.161
47338SOL     OW43910   2.781  14.525   0.083
47338SOL    HW143911   2.875  14.508   0.087
47338SOL    HW243912   2.742  14.439   0.068
47339SOL     OW43913   9.899  10.649   2.759
47339SOL    HW143914   9.948  10.625   2.681
47339SOL    HW243915   9.829  10.584   2.765
47340SOL     OW43916   4.981   5.541  10.602
47340SOL    HW143917   5.060   5.595  10.602
47340SOL    HW243918   5.011   5.454  10.574
47341SOL     OW43919  12.959   7.030   7.790
47341SOL    HW143920  12.890   6.995   7.847
47341SOL    HW243921  12.922   7.111   7.755
47342SOL     OW43922  14.862   1.938   7.432
47342SOL    HW143923   0.007   1.945   7.524
47342SOL    HW243924   0.064   1.915   7.387
47343SOL     OW43925   2.095   8.894   4.253
47343SOL    HW143926   2.182   8.887   4.214
47343SOL    HW243927   2.035   8.867   4.184
47344SOL     OW43928  13.280  14.691  13.401
47344SOL    HW143929  13.298  14.681  13.495
47344SOL    HW243930  13.336  14.764  13.374
47345SOL     OW43931   4.142   4.738  11.200
47345SOL    HW143932   4.088   4.810  11.167
47345SOL    HW243933   4.143   4.674  11.129
47346SOL     OW43934  14.207   5.585   9.187
47346SOL    HW143935  14.291   5.590   9.141
47346SOL    HW243936  14.188   5.675   9.213
47347SOL     OW43937   4.262   1.317   3.984
47347SOL    HW143938   4.340   1.357   4.021
47347SOL    HW243939   4.214   1.390   3.944
47348SOL     OW43940   7.537  13.733   4.868
47348SOL    HW143941   7.479  13.805   4.895
47348SOL    HW243942   7.546  13.679   4.947
47349SOL     OW43943   6.120   9.297   1.253
47349SOL    HW143944   6.141   9.268   1.342
47349SOL    HW243945   6.026   9.312   1.254
47350SOL     OW43946  11.306  12.321   9.666
47350SOL    HW143947  11.397  12.301   9.641
47350SOL    HW243948  11.267  12.356   9.586
47351SOL     OW43949  13.448  13.742   3.372
47351SOL    HW143950  13.450  13.681   3.298
47351SOL    HW243951  13.467  13.827   3.334
47352SOL     OW43952   4.628   2.574   9.104
47352SOL    HW143953   4.621   2.575   9.009
47352SOL    HW243954   4.539   2.559   9.135
47353SOL     OW43955   6.018  11.470   6.972
47353SOL    HW143956   5.946  11.494   7.030
47353SOL    HW243957   6.061  11.553   6.952
47354SOL     OW43958   4.067   6.361  14.284
47354SOL    HW143959   4.157   6.394  14.281
47354SOL    HW243960   4.013   6.439  14.273
47355SOL     OW43961  14.420   6.060  13.589
47355SOL    HW143962  14.501   6.011  13.579
47355SOL    HW243963  14.407   6.067  13.684
47356SOL     OW43964  12.131   2.064  10.133
47356SOL    HW143965  12.152   2.123  10.060
47356SOL    HW243966  12.093   1.987  10.090
47357SOL     OW43967   3.129   5.205   5.272
47357SOL    HW143968   3.091   5.126   5.311
47357SOL    HW243969   3.169   5.175   5.191
47358SOL     OW43970   6.814   1.638   6.409
47358SOL    HW143971   6.780   1.728   6.407
47358SOL    HW243972   6.778   1.597   6.331
47359SOL     OW43973   3.845   0.362   9.449
47359SOL    HW143974   3.856   0.311   9.369
47359SOL    HW243975   3.759   0.336   9.482
47360SOL     OW43976   2.970   6.056  10.074
47360SOL    HW143977   2.995   6.040   9.983
47360SOL    HW243978   3.014   6.138  10.097
47361SOL     OW43979   7.782   9.310   6.078
47361SOL    HW143980   7.695   9.278   6.100
47361SOL    HW243981   7.816   9.249   6.013
47362SOL     OW43982   7.236  10.909   3.326
47362SOL    HW143983   7.212  10.822   3.357
47362SOL    HW243984   7.223  10.967   3.401
47363SOL     OW43985  10.782  13.430   4.825
47363SOL    HW143986  10.850  13.420   4.892
47363SOL    HW243987  10.734  13.509   4.850
47364SOL     OW43988  13.423  14.450   2.706
47364SOL    HW143989  13.423  14.399   2.625
47364SOL    HW243990  13.338  14.494   2.707
47365SOL     OW43991   1.745   6.984   8.827
47365SOL    HW143992   1.700   6.911   8.870
47365SOL    HW243993   1.803   6.941   8.763
47366SOL     OW43994  11.295  13.841  13.291
47366SOL    HW143995  11.214  13.856  13.243
47366SOL    HW243996  11.267  13.822  13.380
47367SOL     OW43997  13.873   7.909   8.653
47367SOL    HW143998  13.848   7.945   8.738
47367SOL    HW243999  13.812   7.838   8.638
47368SOL     OW44000   6.520   1.282  13.308
47368SOL    HW144001   6.452   1.291  13.374
47368SOL    HW244002   6.529   1.187  13.296
47369SOL     OW44003   6.102   7.735  10.002
47369SOL    HW144004   6.103   7.671   9.931
47369SOL    HW244005   6.187   7.778   9.997
47370SOL     OW44006   8.583   3.721  12.795
47370SOL    HW144007   8.671   3.685  12.804
47370SOL    HW244008   8.572   3.737  12.701
47371SOL     OW44009  11.414   5.935   8.954
47371SOL    HW144010  11.489   5.913   9.009
47371SOL    HW244011  11.388   6.023   8.983
47372SOL     OW44012   1.291   2.119   2.373
47372SOL    HW144013   1.232   2.065   2.321
47372SOL    HW244014   1.293   2.078   2.459
47373SOL     OW44015  11.597  13.769  10.470
47373SOL    HW144016  11.544  13.739  10.396
47373SOL    HW244017  11.535  13.812  10.529
47374SOL     OW44018   0.391   7.569   2.381
47374SOL    HW144019   0.327   7.532   2.442
47374SOL    HW244020   0.357   7.548   2.294
47375SOL     OW44021  13.802   6.923   9.656
47375SOL    HW144022  13.845   6.876   9.727
47375SOL    HW244023  13.873   6.967   9.609
47376SOL     OW44024   0.777   1.876   7.220
47376SOL    HW144025   0.849   1.850   7.277
47376SOL    HW244026   0.754   1.964   7.249
47377SOL     OW44027   9.602   1.073  14.540
47377SOL    HW144028   9.624   1.081  14.632
47377SOL    HW244029   9.524   1.128  14.529
47378SOL     OW44030  10.679   4.985   6.971
47378SOL    HW144031  10.611   4.933   7.013
47378SOL    HW244032  10.681   5.067   7.021
47379SOL     OW44033   2.597  13.434  12.968
47379SOL    HW144034   2.608  13.353  12.917
47379SOL    HW244035   2.508  13.429  13.001
47380SOL     OW44036   4.575   8.049  11.535
47380SOL    HW144037   4.598   7.999  11.457
47380SOL    HW244038   4.651   8.104  11.552
47381SOL     OW44039   5.419   3.285  10.739
47381SOL    HW144040   5.461   3.314  10.658
47381SOL    HW244041   5.339   3.338  10.744
47382SOL     OW44042  13.165   0.026   1.081
47382SOL    HW144043  13.202   0.114   1.091
47382SOL    HW244044  13.072   0.038   1.097
47383SOL     OW44045   1.240  12.537   9.046
47383SOL    HW144046   1.301  12.469   9.016
47383SOL    HW244047   1.274  12.564   9.131
47384SOL     OW44048  13.667  10.883  10.452
47384SOL    HW144049  13.737  10.926  10.501
47384SOL    HW244050  13.600  10.951  10.440
47385SOL     OW44051  12.836   3.839  12.183
47385SOL    HW144052  12.799   3.910  12.236
47385SOL    HW244053  12.920   3.820  12.225
47386SOL     OW44054  11.811   0.237   1.749
47386SOL    HW144055  11.885   0.201   1.799
47386SOL    HW244056  11.840   0.324   1.723
47387SOL     OW44057  12.826   8.519   6.121
47387SOL    HW144058  12.731   8.533   6.117
47387SOL    HW244059  12.850   8.546   6.210
47388SOL     OW44060   5.432   2.918   5.024
47388SOL    HW144061   5.394   3.005   5.016
47388SOL    HW244062   5.357   2.860   5.036
47389SOL     OW44063  12.039   1.773   8.759
47389SOL    HW144064  12.049   1.795   8.666
47389SOL    HW244065  12.016   1.856   8.801
47390SOL     OW44066   0.160  12.296  14.203
47390SOL    HW144067   0.161  12.362  14.135
47390SOL    HW244068   0.131  12.216  14.159
47391SOL     OW44069   2.643   0.584   5.200
47391SOL    HW144070   2.709   0.624   5.143
47391SOL    HW244071   2.559   0.614   5.164
47392SOL     OW44072   5.417   4.755   9.312
47392SOL    HW144073   5.494   4.703   9.335
47392SOL    HW244074   5.407   4.745   9.218
47393SOL     OW44075   9.990   2.844   2.620
47393SOL    HW144076   9.930   2.806   2.684
47393SOL    HW244077  10.044   2.905   2.671
47394SOL     OW44078  13.170   2.830   8.318
47394SOL    HW144079  13.088   2.870   8.345
47394SOL    HW244080  13.238   2.875   8.369
47395SOL     OW44081   0.456   3.223  13.713
47395SOL    HW144082   0.413   3.292  13.663
47395SOL    HW244083   0.472   3.154  13.649
47396SOL     OW44084   0.865  13.732   6.075
47396SOL    HW144085   0.881  13.738   6.169
47396SOL    HW244086   0.908  13.651   6.048
47397SOL     OW44087  12.811   0.312   7.720
47397SOL    HW144088  12.851   0.303   7.633
47397SOL    HW244089  12.722   0.278   7.708
47398SOL     OW44090  14.071   2.935  12.873
47398SOL    HW144091  14.074   3.021  12.915
47398SOL    HW244092  14.106   2.949  12.785
47399SOL     OW44093  11.909   1.723   5.677
47399SOL    HW144094  11.839   1.658   5.686
47399SOL    HW244095  11.878   1.798   5.728
47400SOL     OW44096   5.442   5.188  13.051
47400SOL    HW144097   5.369   5.155  12.998
47400SOL    HW244098   5.493   5.241  12.990
47401SOL     OW44099   1.130  10.900   9.180
47401SOL    HW144100   1.039  10.909   9.154
47401SOL    HW244101   1.171  10.984   9.158
47402SOL     OW44102   0.852  12.054  11.930
47402SOL    HW144103   0.925  12.004  11.895
47402SOL    HW244104   0.881  12.145  11.924
47403SOL     OW44105   2.059   7.386   6.312
47403SOL    HW144106   2.146   7.424   6.296
47403SOL    HW244107   2.038   7.411   6.402
47404SOL     OW44108   2.197  11.622   0.180
47404SOL    HW144109   2.280  11.668   0.174
47404SOL    HW244110   2.189  11.575   0.097
47405SOL     OW44111  11.698   9.875   5.957
47405SOL    HW144112  11.694   9.891   6.051
47405SOL    HW244113  11.741   9.790   5.949
47406SOL     OW44114  11.481  14.180   3.139
47406SOL    HW144115  11.545  14.111   3.121
47406SOL    HW244116  11.533  14.258   3.156
47407SOL     OW44117  10.854   7.777  11.010
47407SOL    HW144118  10.784   7.723  10.975
47407SOL    HW244119  10.822   7.867  11.000
47408SOL     OW44120   7.982   7.276  13.155
47408SOL    HW144121   7.994   7.273  13.250
47408SOL    HW244122   7.973   7.370  13.135
47409SOL     OW44123   7.819   5.207  10.691
47409SOL    HW144124   7.914   5.202  10.675
47409SOL    HW244125   7.810   5.186  10.784
47410SOL     OW44126   5.162   2.530   7.222
47410SOL    HW144127   5.119   2.483   7.151
47410SOL    HW244128   5.092   2.579   7.264
47411SOL     OW44129   1.472   6.058   5.575
47411SOL    HW144130   1.495   6.135   5.523
47411SOL    HW244131   1.376   6.060   5.579
47412SOL     OW44132   2.292   1.797   8.323
47412SOL    HW144133   2.285   1.852   8.245
47412SOL    HW244134   2.289   1.708   8.290
47413SOL     OW44135  11.477   8.276   9.999
47413SOL    HW144136  11.404   8.213   9.997
47413SOL    HW244137  11.539   8.238  10.062
47414SOL     OW44138   8.370   5.712  11.088
47414SOL    HW144139   8.326   5.717  11.173
47414SOL    HW244140   8.405   5.622  11.085
47415SOL     OW44141   5.844   0.884  14.710
47415SOL    HW144142   5.837   0.900  14.616
47415SOL    HW244143   5.795   0.957  14.750
47416SOL     OW44144   7.066   2.330   5.461
47416SOL    HW144145   7.151   2.322   5.417
47416SOL    HW244146   7.025   2.245   5.450
47417SOL     OW44147   8.355   6.568   1.968
47417SOL    HW144148   8.261   6.554   1.967
47417SOL    HW244149   8.391   6.495   1.918
47418SOL     OW44150   6.294  14.853   0.054
47418SOL    HW144151   6.326  14.827  14.847
47418SOL    HW244152   6.240   0.050   0.037
47419SOL     OW44153   1.552   8.528   1.161
47419SOL    HW144154   1.508   8.607   1.129
47419SOL    HW244155   1.556   8.540   1.256
47420SOL     OW44156   9.221  12.314   0.803
47420SOL    HW144157   9.209  12.227   0.767
47420SOL    HW244158   9.192  12.373   0.733
47421SOL     OW44159  14.163   6.933   8.627
47421SOL    HW144160  14.237   6.945   8.687
47421SOL    HW244161  14.087   6.920   8.684
47422SOL     OW44162   3.941   1.171  12.334
47422SOL    HW144163   3.864   1.152  12.280
47422SOL    HW244164   3.971   1.085  12.363
47423SOL     OW44165   5.738   6.867   6.274
47423SOL    HW144166   5.799   6.793   6.271
47423SOL    HW244167   5.777   6.927   6.338
47424SOL     OW44168   9.039  11.694  14.824
47424SOL    HW144169   9.109  11.648  14.778
47424SOL    HW244170   9.059  11.682   0.037
47425SOL     OW44171  10.649   7.420   8.498
47425SOL    HW144172  10.637   7.442   8.406
47425SOL    HW244173  10.569   7.374   8.522
47426SOL     OW44174   9.863  11.253  11.718
47426SOL    HW144175   9.874  11.214  11.805
47426SOL    HW244176   9.878  11.180  11.657
47427SOL     OW44177   8.692   3.056   0.915
47427SOL    HW144178   8.787   3.048   0.922
47427SOL    HW244179   8.663   3.067   1.006
47428SOL     OW44180   2.609   2.550   3.545
47428SOL    HW144181   2.641   2.478   3.489
47428SOL    HW244182   2.632   2.629   3.497
47429SOL     OW44183   0.946  12.728  11.673
47429SOL    HW144184   0.865  12.692  11.710
47429SOL    HW244185   0.928  12.821  11.661
47430SOL     OW44186  12.143  12.545   9.789
47430SOL    HW144187  12.049  12.559   9.799
47430SOL    HW244188  12.150  12.453   9.763
47431SOL     OW44189  14.187   7.717   6.023
47431SOL    HW144190  14.102   7.702   5.982
47431SOL    HW244191  14.222   7.629   6.039
47432SOL     OW44192   0.196   4.204  13.652
47432SOL    HW144193   0.117   4.229  13.603
47432SOL    HW244194   0.209   4.111  13.632
47433SOL     OW44195   7.727   7.329  12.984
47433SOL    HW144196   7.793   7.307  12.919
47433SOL    HW244197   7.676   7.249  12.994
47434SOL     OW44198   0.186   6.559   6.469
47434SOL    HW144199   0.166   6.466   6.476
47434SOL    HW244200   0.102   6.603   6.478
47435SOL     OW44201   6.620  12.445  11.803
47435SOL    HW144202   6.532  12.471  11.776
47435SOL    HW244203   6.636  12.494  11.883
47436SOL     OW44204  14.448  14.775   5.646
47436SOL    HW144205  14.372  14.737   5.602
47436SOL    HW244206  14.522  14.751   5.590
47437SOL     OW44207  13.878  11.930   4.032
47437SOL    HW144208  13.829  11.995   3.981
47437SOL    HW244209  13.833  11.847   4.016
47438SOL     OW44210  14.026  14.439   8.742
47438SOL    HW144211  13.987  14.526   8.753
47438SOL    HW244212  14.116  14.457   8.713
47439SOL     OW44213   6.798   4.020  11.901
47439SOL    HW144214   6.723   3.964  11.923
47439SOL    HW244215   6.816   4.001  11.809
47440SOL     OW44216  11.173   6.529   5.632
47440SOL    HW144217  11.199   6.620   5.620
47440SOL    HW244218  11.080   6.534   5.657
47441SOL     OW44219   3.350   6.746   8.970
47441SOL    HW144220   3.309   6.770   8.886
47441SOL    HW244221   3.279   6.706   9.020
47442SOL     OW44222   3.932  11.973   4.374
47442SOL    HW144223   3.887  11.919   4.439
47442SOL    HW244224   3.948  12.056   4.419
47443SOL     OW44225   7.522   8.107   0.790
47443SOL    HW144226   7.428   8.091   0.783
47443SOL    HW244227   7.540   8.171   0.721
47444SOL     OW44228  11.866   7.224  12.914
47444SOL    HW144229  11.890   7.137  12.947
47444SOL    HW244230  11.933   7.243  12.848
47445SOL     OW44231  10.411   9.540  11.635
47445SOL    HW144232  10.377   9.588  11.711
47445SOL    HW244233  10.463   9.470  11.672
47446SOL     OW44234  10.278   9.934   1.134
47446SOL    HW144235  10.209   9.915   1.196
47446SOL    HW244236  10.258  10.022   1.101
47447SOL     OW44237   0.401  11.783  13.954
47447SOL    HW144238   0.316  11.804  13.992
47447SOL    HW244239   0.393  11.693  13.924
47448SOL     OW44240  13.104  14.629   8.816
47448SOL    HW144241  13.017  14.635   8.778
47448SOL    HW244242  13.124  14.718   8.845
47449SOL     OW44243   2.386   9.224  12.232
47449SOL    HW144244   2.474   9.207  12.266
47449SOL    HW244245   2.393   9.205  12.138
47450SOL     OW44246   5.056  10.269  12.254
47450SOL    HW144247   5.075  10.231  12.339
47450SOL    HW244248   5.001  10.346  12.274
47451SOL     OW44249   7.122   5.340   5.340
47451SOL    HW144250   7.166   5.398   5.402
47451SOL    HW244251   7.066   5.285   5.393
47452SOL     OW44252   4.188  13.616  14.801
47452SOL    HW144253   4.101  13.578  14.806
47452SOL    HW244254   4.213  13.609  14.709
47453SOL     OW44255   6.301   2.567   1.976
47453SOL    HW144256   6.289   2.509   2.052
47453SOL    HW244257   6.297   2.655   2.013
47454SOL     OW44258   9.557  13.051   6.242
47454SOL    HW144259   9.639  13.004   6.254
47454SOL    HW244260   9.573  13.137   6.281
47455SOL     OW44261  10.344   8.216   7.595
47455SOL    HW144262  10.424   8.200   7.644
47455SOL    HW244263  10.273   8.197   7.657
47456SOL     OW44264  11.014   1.984  12.476
47456SOL    HW144265  10.921   1.999  12.494
47456SOL    HW244266  11.035   2.046  12.406
47457SOL     OW44267   9.308   7.251   2.631
47457SOL    HW144268   9.329   7.345   2.635
47457SOL    HW244269   9.234   7.240   2.690
47458SOL     OW44270   0.043   6.535  13.281
47458SOL    HW144271   0.116   6.513  13.224
47458SOL    HW244272   0.064   6.622  13.315
47459SOL     OW44273   1.309  10.705   0.096
47459SOL    HW144274   1.246  10.774   0.117
47459SOL    HW244275   1.256  10.633   0.063
47460SOL     OW44276   5.171   0.695  14.837
47460SOL    HW144277   5.163   0.605  14.869
47460SOL    HW244278   5.144   0.749   0.031
47461SOL     OW44279   5.106   0.820   9.096
47461SOL    HW144280   5.086   0.813   9.189
47461SOL    HW244281   5.201   0.807   9.090
47462SOL     OW44282   5.269   6.721  14.760
47462SOL    HW144283   5.245   6.802  14.806
47462SOL    HW244284   5.352   6.741  14.718
47463SOL     OW44285   2.140  14.712   4.767
47463SOL    HW144286   2.194  14.767   4.711
47463SOL    HW244287   2.174  14.624   4.754
47464SOL     OW44288   7.695  11.469  10.010
47464SOL    HW144289   7.679  11.562  10.028
47464SOL    HW244290   7.609  11.434   9.987
47465SOL     OW44291   9.132  12.988   4.928
47465SOL    HW144292   9.187  13.064   4.940
47465SOL    HW244293   9.168  12.922   4.988
47466SOL     OW44294  11.838   7.096   1.006
47466SOL    HW144295  11.817   7.011   1.045
47466SOL    HW244296  11.930   7.089   0.980
47467SOL     OW44297   6.657  14.443  12.423
47467SOL    HW144298   6.635  14.505  12.353
47467SOL    HW244299   6.734  14.481  12.465
47468SOL     OW44300   3.804  14.717   0.350
47468SOL    HW144301   3.864  14.773   0.398
47468SOL    HW244302   3.728  14.708   0.407
47469SOL     OW44303   0.262   8.089  12.703
47469SOL    HW144304   0.292   8.179  12.695
47469SOL    HW244305   0.170   8.092  12.677
47470SOL     OW44306  12.245   4.399  14.840
47470SOL    HW144307  12.191   4.349   0.023
47470SOL    HW244308  12.250   4.487  14.878
47471SOL     OW44309  14.435   7.860   1.467
47471SOL    HW144310  14.478   7.823   1.390
47471SOL    HW244311  14.507   7.878   1.528
47472SOL     OW44312  11.239  10.013   6.223
47472SOL    HW144313  11.196  10.043   6.143
47472SOL    HW244314  11.295   9.940   6.194
47473SOL     OW44315   6.343  11.651   2.733
47473SOL    HW144316   6.420  11.699   2.764
47473SOL    HW244317   6.314  11.602   2.810
47474SOL     OW44318   6.156   3.487  13.918
47474SOL    HW144319   6.141   3.528  13.833
47474SOL    HW244320   6.241   3.445  13.910
47475SOL     OW44321  14.065  10.333  11.808
47475SOL    HW144322  14.007  10.354  11.734
47475SOL    HW244323  14.033  10.248  11.839
47476SOL     OW44324   2.898   3.563   5.091
47476SOL    HW144325   2.820   3.560   5.035
47476SOL    HW244326   2.955   3.494   5.058
47477SOL     OW44327   4.710  10.380  14.579
47477SOL    HW144328   4.646  10.310  14.566
47477SOL    HW244329   4.717  10.388  14.674
47478SOL     OW44330  12.592   6.879   4.842
47478SOL    HW144331  12.624   6.946   4.783
47478SOL    HW244332  12.582   6.801   4.787
47479SOL     OW44333   6.287   9.272  10.779
47479SOL    HW144334   6.211   9.325  10.752
47479SOL    HW244335   6.256   9.223  10.855
47480SOL     OW44336  13.393   2.540   7.378
47480SOL    HW144337  13.357   2.622   7.345
47480SOL    HW244338  13.467   2.522   7.320
47481SOL     OW44339   2.449   5.444   2.415
47481SOL    HW144340   2.393   5.482   2.348
47481SOL    HW244341   2.403   5.461   2.497
47482SOL     OW44342   6.932  13.092   9.219
47482SOL    HW144343   6.978  13.045   9.150
47482SOL    HW244344   6.859  13.134   9.173
47483SOL     OW44345   7.172  10.500   5.678
47483SOL    HW144346   7.192  10.576   5.733
47483SOL    HW244347   7.084  10.517   5.645
47484SOL     OW44348   6.200   9.013   1.309
47484SOL    HW144349   6.217   8.919   1.314
47484SOL    HW244350   6.285   9.052   1.288
47485SOL     OW44351  10.511   4.034   2.652
47485SOL    HW144352  10.435   4.021   2.709
47485SOL    HW244353  10.533   3.946   2.621
47486SOL     OW44354   6.113   2.339   1.811
47486SOL    HW144355   6.103   2.395   1.889
47486SOL    HW244356   6.055   2.379   1.746
47487SOL     OW44357   9.139   5.268   8.518
47487SOL    HW144358   9.059   5.278   8.466
47487SOL    HW244359   9.166   5.358   8.536
47488SOL     OW44360  10.542  10.607   0.683
47488SOL    HW144361  10.544  10.556   0.602
47488SOL    HW244362  10.468  10.573   0.732
47489SOL     OW44363   7.716   8.840   8.242
47489SOL    HW144364   7.656   8.814   8.172
47489SOL    HW244365   7.762   8.759   8.265
47490SOL     OW44366   6.995   5.298  14.357
47490SOL    HW144367   7.021   5.260  14.440
47490SOL    HW244368   7.028   5.237  14.291
47491SOL     OW44369   6.009   4.788  11.291
47491SOL    HW144370   6.051   4.732  11.226
47491SOL    HW244371   6.082   4.826  11.340
47492SOL     OW44372   6.815   2.190   3.881
47492SOL    HW144373   6.855   2.132   3.816
47492SOL    HW244374   6.849   2.277   3.860
47493SOL     OW44375  11.897   2.364  12.450
47493SOL    HW144376  11.987   2.391  12.428
47493SOL    HW244377  11.848   2.377  12.369
47494SOL     OW44378  10.372   6.124   8.408
47494SOL    HW144379  10.422   6.204   8.391
47494SOL    HW244380  10.423   6.055   8.365
47495SOL     OW44381  13.515   9.876   1.948
47495SOL    HW144382  13.575   9.896   1.876
47495SOL    HW244383  13.429   9.904   1.917
47496SOL     OW44384   7.227   1.663   6.067
47496SOL    HW144385   7.198   1.678   5.977
47496SOL    HW244386   7.321   1.652   6.061
47497SOL     OW44387   9.635   7.161   8.853
47497SOL    HW144388   9.722   7.151   8.891
47497SOL    HW244389   9.582   7.093   8.895
47498SOL     OW44390   8.841  14.266  12.966
47498SOL    HW144391   8.894  14.200  12.922
47498SOL    HW244392   8.789  14.217  13.030
47499SOL     OW44393   1.387  13.077   7.380
47499SOL    HW144394   1.356  13.168   7.384
47499SOL    HW244395   1.410  13.056   7.471
47500SOL     OW44396   2.113   9.049  14.435
47500SOL    HW144397   2.186   9.110  14.425
47500SOL    HW244398   2.073   9.045  14.349
47501SOL     OW44399  11.379  10.449   8.065
47501SOL    HW144400  11.350  10.539   8.050
47501SOL    HW244401  11.298  10.398   8.069
47502SOL     OW44402  10.464   9.509   5.778
47502SOL    HW144403  10.411   9.578   5.738
47502SOL    HW244404  10.525   9.484   5.709
47503SOL     OW44405   5.709  11.044   5.869
47503SOL    HW144406   5.771  11.115   5.881
47503SOL    HW244407   5.639  11.081   5.815
47504SOL     OW44408   6.845   1.771   2.008
47504SOL    HW144409   6.907   1.788   1.938
47504SOL    HW244410   6.841   1.676   2.014
47505SOL     OW44411   1.389   2.550   3.836
47505SOL    HW144412   1.482   2.530   3.828
47505SOL    HW244413   1.368   2.529   3.927
47506SOL     OW44414   6.445   9.721  14.216
47506SOL    HW144415   6.389   9.777  14.269
47506SOL    HW244416   6.513   9.691  14.276
47507SOL     OW44417   8.125   2.893   7.690
47507SOL    HW144418   8.104   2.947   7.767
47507SOL    HW244419   8.203   2.934   7.653
47508SOL     OW44420   1.275   2.277   5.471
47508SOL    HW144421   1.361   2.263   5.511
47508SOL    HW244422   1.259   2.371   5.478
47509SOL     OW44423   3.472   6.962   6.650
47509SOL    HW144424   3.561   6.987   6.626
47509SOL    HW244425   3.442   7.032   6.708
47510SOL     OW44426   1.597   3.917   4.917
47510SOL    HW144427   1.526   3.853   4.916
47510SOL    HW244428   1.654   3.888   4.989
47511SOL     OW44429   3.382   2.809  11.087
47511SOL    HW144430   3.440   2.737  11.065
47511SOL    HW244431   3.376   2.861  11.007
47512SOL     OW44432  12.444   4.120   8.772
47512SOL    HW144433  12.372   4.120   8.836
47512SOL    HW244434  12.516   4.075   8.817
47513SOL     OW44435   1.382   6.838  12.887
47513SOL    HW144436   1.454   6.901  12.895
47513SOL    HW244437   1.310   6.890  12.852
47514SOL     OW44438   4.731   7.884  14.862
47514SOL    HW144439   4.657   7.922   0.029
47514SOL    HW244440   4.780   7.959  14.829
47515SOL     OW44441   0.182   0.400  13.734
47515SOL    HW144442   0.247   0.334  13.709
47515SOL    HW244443   0.171   0.452  13.654
47516SOL     OW44444   6.090  12.214   2.069
47516SOL    HW144445   6.031  12.180   2.002
47516SOL    HW244446   6.158  12.260   2.021
47517SOL     OW44447   2.108  13.803  14.255
47517SOL    HW144448   2.076  13.894  14.254
47517SOL    HW244449   2.035  13.752  14.220
47518SOL     OW44450   9.844   4.739   1.449
47518SOL    HW144451   9.834   4.691   1.367
47518SOL    HW244452   9.756   4.769   1.471
47519SOL     OW44453  11.095   7.470  12.221
47519SOL    HW144454  11.003   7.474  12.196
47519SOL    HW244455  11.143   7.460  12.139
47520SOL     OW44456   4.268   1.019   3.727
47520SOL    HW144457   4.209   0.983   3.661
47520SOL    HW244458   4.240   0.981   3.809
47521SOL     OW44459   7.665   4.492   6.599
47521SOL    HW144460   7.712   4.425   6.650
47521SOL    HW244461   7.735   4.548   6.564
47522SOL     OW44462  12.373   9.309  10.341
47522SOL    HW144463  12.453   9.292  10.390
47522SOL    HW244464  12.312   9.241  10.371
47523SOL     OW44465   2.871  14.817   3.989
47523SOL    HW144466   2.825   0.002   4.043
47523SOL    HW244467   2.918  14.762   4.051
47524SOL     OW44468  11.495   8.932   5.656
47524SOL    HW144469  11.489   8.914   5.562
47524SOL    HW244470  11.574   8.886   5.684
47525SOL     OW44471   7.627   4.029   0.152
47525SOL    HW144472   7.637   4.112   0.198
47525SOL    HW244473   7.681   4.038   0.073
47526SOL     OW44474   7.115  13.275   2.586
47526SOL    HW144475   7.137  13.262   2.679
47526SOL    HW244476   7.199  13.271   2.541
47527SOL     OW44477   9.468   4.752  10.980
47527SOL    HW144478   9.400   4.773  11.044
47527SOL    HW244479   9.420   4.722  10.903
47528SOL     OW44480  14.351   8.988   3.304
47528SOL    HW144481  14.273   9.044   3.302
47528SOL    HW244482  14.340   8.934   3.382
47529SOL     OW44483  11.825   2.948   3.341
47529SOL    HW144484  11.900   2.936   3.399
47529SOL    HW244485  11.813   2.862   3.300
47530SOL     OW44486   3.916   2.419   6.805
47530SOL    HW144487   4.000   2.375   6.793
47530SOL    HW244488   3.866   2.360   6.862
47531SOL     OW44489   2.636   1.601  12.257
47531SOL    HW144490   2.724   1.576  12.228
47531SOL    HW244491   2.581   1.590  12.180
47532SOL     OW44492   0.130  12.955  11.547
47532SOL    HW144493   0.127  12.882  11.485
47532SOL    HW244494   0.104  13.031  11.496
47533SOL     OW44495  14.860   1.599  11.733
47533SOL    HW144496   0.075   1.605  11.745
47533SOL    HW244497  14.829   1.548  11.808
47534SOL     OW44498   3.734   0.781  14.349
47534SOL    HW144499   3.641   0.788  14.328
47534SOL    HW244500   3.754   0.862  14.396
47535SOL     OW44501  11.768   4.449  14.072
47535SOL    HW144502  11.698   4.441  14.137
47535SOL    HW244503  11.727   4.425  13.989
47536SOL     OW44504   6.617   4.324  13.648
47536SOL    HW144505   6.667   4.246  13.626
47536SOL    HW244506   6.537   4.318  13.596
47537SOL     OW44507   1.049   7.378   1.952
47537SOL    HW144508   1.032   7.397   1.860
47537SOL    HW244509   1.066   7.463   1.991
47538SOL     OW44510  13.095  13.526  10.149
47538SOL    HW144511  13.147  13.483  10.217
47538SOL    HW244512  13.159  13.564  10.089
47539SOL     OW44513   0.389   7.858   7.437
47539SOL    HW144514   0.322   7.801   7.398
47539SOL    HW244515   0.343   7.908   7.503
47540SOL     OW44516   0.646  11.014   3.047
47540SOL    HW144517   0.725  11.000   3.099
47540SOL    HW244518   0.658  10.961   2.968
47541SOL     OW44519  11.644   7.157   1.331
47541SOL    HW144520  11.630   7.125   1.420
47541SOL    HW244521  11.648   7.253   1.341
47542SOL     OW44522  13.820   7.157   8.964
47542SOL    HW144523  13.813   7.149   8.868
47542SOL    HW244524  13.837   7.250   8.979
47543SOL     OW44525   5.622  10.026  13.561
47543SOL    HW144526   5.677  10.097  13.596
47543SOL    HW244527   5.569   9.999  13.635
47544SOL     OW44528   3.122  10.561  12.714
47544SOL    HW144529   3.085  10.623  12.777
47544SOL    HW244530   3.049  10.506  12.688
47545SOL     OW44531   9.563   6.403  10.531
47545SOL    HW144532   9.594   6.456  10.457
47545SOL    HW244533   9.470   6.388  10.513
47546SOL     OW44534  10.554  13.174   3.586
47546SOL    HW144535  10.595  13.135   3.509
47546SOL    HW244536  10.469  13.205   3.555
47547SOL     OW44537  11.384   7.299   0.045
47547SOL    HW144538  11.350   7.210   0.053
47547SOL    HW244539  11.306   7.354   0.035
47548SOL     OW44540  13.492  11.149   5.633
47548SOL    HW144541  13.530  11.223   5.585
47548SOL    HW244542  13.563  11.086   5.641
47549SOL     OW44543  14.570   7.414   7.831
47549SOL    HW144544  14.650   7.424   7.882
47549SOL    HW244545  14.506   7.470   7.874
47550SOL     OW44546   7.326  10.279   4.143
47550SOL    HW144547   7.248  10.308   4.096
47550SOL    HW244548   7.398  10.327   4.101
47551SOL     OW44549   4.601   3.126   4.926
47551SOL    HW144550   4.599   3.057   4.992
47551SOL    HW244551   4.509   3.136   4.900
47552SOL     OW44552  10.463   4.026  14.438
47552SOL    HW144553  10.512   4.012  14.519
47552SOL    HW244554  10.458   3.940  14.396
47553SOL     OW44555   8.486   5.570   8.953
47553SOL    HW144556   8.412   5.510   8.942
47553SOL    HW244557   8.446   5.651   8.986
47554SOL     OW44558   8.623  10.656   0.086
47554SOL    HW144559   8.569  10.653   0.165
47554SOL    HW244560   8.568  10.701   0.021
47555SOL     OW44561   7.959  14.709   0.320
47555SOL    HW144562   7.921  14.749   0.398
47555SOL    HW244563   8.026  14.771   0.291
47556SOL     OW44564   1.998   4.366   1.774
47556SOL    HW144565   2.050   4.422   1.831
47556SOL    HW244566   1.989   4.284   1.822
47557SOL     OW44567   2.330  11.708  12.108
47557SOL    HW144568   2.404  11.677  12.160
47557SOL    HW244569   2.366  11.716  12.019
47558SOL     OW44570  10.707   5.523  12.335
47558SOL    HW144571  10.612   5.528  12.321
47558SOL    HW244572  10.716   5.507  12.429
47559SOL     OW44573  10.230   7.530   0.348
47559SOL    HW144574  10.285   7.466   0.303
47559SOL    HW244575  10.245   7.513   0.441
47560SOL     OW44576   6.250   6.561  13.077
47560SOL    HW144577   6.262   6.516  13.160
47560SOL    HW244578   6.212   6.646  13.101
47561SOL     OW44579   7.630   8.362  11.331
47561SOL    HW144580   7.594   8.274  11.335
47561SOL    HW244581   7.615   8.398  11.418
47562SOL     OW44582   3.338   7.602   3.802
47562SOL    HW144583   3.291   7.635   3.726
47562SOL    HW244584   3.270   7.559   3.855
47563SOL     OW44585   9.007   5.913  11.904
47563SOL    HW144586   9.000   5.911  11.808
47563SOL    HW244587   9.011   5.821  11.930
47564SOL     OW44588   5.349   7.186   7.981
47564SOL    HW144589   5.394   7.214   7.902
47564SOL    HW244590   5.407   7.121   8.020
47565SOL     OW44591  11.879   8.298   5.639
47565SOL    HW144592  11.909   8.383   5.609
47565SOL    HW244593  11.789   8.291   5.607
47566SOL     OW44594   6.393  14.427   1.824
47566SOL    HW144595   6.330  14.462   1.760
47566SOL    HW244596   6.474  14.474   1.806
47567SOL     OW44597   3.684  11.697   3.803
47567SOL    HW144598   3.714  11.618   3.849
47567SOL    HW244599   3.647  11.751   3.872
47568SOL     OW44600   2.501   6.874  12.917
47568SOL    HW144601   2.541   6.961  12.919
47568SOL    HW244602   2.471   6.864  12.827
47569SOL     OW44603   2.239  14.252  10.697
47569SOL    HW144604   2.180  14.191  10.652
47569SOL    HW244605   2.182  14.300  10.757
47570SOL     OW44606  11.813  13.944   4.020
47570SOL    HW144607  11.821  13.883   3.946
47570SOL    HW244608  11.896  13.934   4.067
47571SOL     OW44609   3.321   7.978  10.771
47571SOL    HW144610   3.323   7.958  10.678
47571SOL    HW244611   3.413   7.980  10.797
47572SOL     OW44612   9.447   1.678  12.796
47572SOL    HW144613   9.382   1.693  12.864
47572SOL    HW244614   9.434   1.586  12.770
47573SOL     OW44615  10.647  10.598   8.805
47573SOL    HW144616  10.577  10.585   8.869
47573SOL    HW244617  10.631  10.531   8.738
47574SOL     OW44618   9.551   5.080   7.856
47574SOL    HW144619   9.620   5.016   7.871
47574SOL    HW244620   9.556   5.140   7.930
47575SOL     OW44621  12.679   1.047   2.838
47575SOL    HW144622  12.676   1.079   2.929
47575SOL    HW244623  12.649   1.122   2.786
47576SOL     OW44624   3.953   1.205  14.054
47576SOL    HW144625   3.964   1.161  14.139
47576SOL    HW244626   4.041   1.209  14.017
47577SOL     OW44627  10.878   9.779   2.850
47577SOL    HW144628  10.934   9.843   2.807
47577SOL    HW244629  10.791   9.820   2.850
47578SOL     OW44630   7.152   6.125   1.477
47578SOL    HW144631   7.082   6.087   1.424
47578SOL    HW244632   7.127   6.217   1.489
47579SOL     OW44633   8.680  14.177   7.364
47579SOL    HW144634   8.721  14.095   7.337
47579SOL    HW244635   8.610  14.150   7.423
47580SOL     OW44636  10.035   2.257   3.112
47580SOL    HW144637   9.992   2.292   3.190
47580SOL    HW244638  10.019   2.163   3.116
47581SOL     OW44639  14.276  13.571   9.975
47581SOL    HW144640  14.186  13.600   9.962
47581SOL    HW244641  14.275  13.525  10.059
47582SOL     OW44642   5.760  10.701   2.019
47582SOL    HW144643   5.718  10.787   2.030
47582SOL    HW244644   5.820  10.694   2.093
47583SOL     OW44645  11.807  14.233  11.238
47583SOL    HW144646  11.728  14.277  11.269
47583SOL    HW244647  11.822  14.268  11.150
47584SOL     OW44648   6.395   0.065   1.829
47584SOL    HW144649   6.391   0.126   1.755
47584SOL    HW244650   6.416  14.860   1.789
47585SOL     OW44651   7.163  11.415   7.710
47585SOL    HW144652   7.236  11.471   7.739
47585SOL    HW244653   7.188  11.327   7.739
47586SOL     OW44654   6.626   3.828   7.138
47586SOL    HW144655   6.546   3.878   7.156
47586SOL    HW244656   6.596   3.737   7.131
47587SOL     OW44657   2.703   8.239  11.487
47587SOL    HW144658   2.669   8.179  11.554
47587SOL    HW244659   2.689   8.192  11.405
47588SOL     OW44660  11.981  13.531   7.253
47588SOL    HW144661  11.909  13.498   7.307
47588SOL    HW244662  11.940  13.585   7.187
47589SOL     OW44663   7.505   4.243  14.607
47589SOL    HW144664   7.548   4.168  14.648
47589SOL    HW244665   7.574   4.285  14.556
47590SOL     OW44666   3.630   0.792   5.355
47590SOL    HW144667   3.658   0.701   5.366
47590SOL    HW244668   3.695   0.842   5.406
47591SOL     OW44669   7.023   8.476  14.278
47591SOL    HW144670   7.067   8.527  14.209
47591SOL    HW244671   7.002   8.393  14.236
47592SOL     OW44672   8.777  11.585  14.419
47592SOL    HW144673   8.740  11.559  14.503
47592SOL    HW244674   8.734  11.528  14.355
47593SOL     OW44675   3.240   6.869   8.693
47593SOL    HW144676   3.179   6.880   8.620
47593SOL    HW244677   3.319   6.833   8.653
47594SOL     OW44678   2.092   4.179   3.304
47594SOL    HW144679   2.060   4.245   3.366
47594SOL    HW244680   2.154   4.127   3.355
47595SOL     OW44681   8.017   4.434  13.311
47595SOL    HW144682   8.037   4.357  13.256
47595SOL    HW244683   7.957   4.486  13.258
47596SOL     OW44684   9.761   8.822  13.967
47596SOL    HW144685   9.690   8.833  13.904
47596SOL    HW244686   9.822   8.893  13.947
47597SOL     OW44687   3.350  13.655   1.991
47597SOL    HW144688   3.396  13.692   1.916
47597SOL    HW244689   3.289  13.592   1.953
47598SOL     OW44690  11.865  12.645   5.832
47598SOL    HW144691  11.956  12.635   5.805
47598SOL    HW244692  11.817  12.656   5.750
47599SOL     OW44693   9.416   3.519   9.559
47599SOL    HW144694   9.483   3.452   9.551
47599SOL    HW244695   9.350   3.496   9.494
47600SOL     OW44696   2.098   1.439   0.308
47600SOL    HW144697   2.157   1.392   0.250
47600SOL    HW244698   2.155   1.479   0.373
47601SOL     OW44699   0.371   9.897   7.393
47601SOL    HW144700   0.410   9.822   7.348
47601SOL    HW244701   0.420   9.905   7.474
47602SOL     OW44702  14.448  14.501   6.929
47602SOL    HW144703  14.529  14.521   6.882
47602SOL    HW244704  14.432  14.579   6.983
47603SOL     OW44705  10.403  12.988   3.879
47603SOL    HW144706  10.363  12.918   3.931
47603SOL    HW244707  10.363  13.069   3.913
47604SOL     OW44708   3.721   3.663   4.051
47604SOL    HW144709   3.688   3.708   3.972
47604SOL    HW244710   3.798   3.714   4.076
47605SOL     OW44711   6.886   9.585   1.312
47605SOL    HW144712   6.838   9.513   1.352
47605SOL    HW244713   6.889   9.652   1.380
47606SOL     OW44714  14.162   9.266   9.531
47606SOL    HW144715  14.128   9.299   9.614
47606SOL    HW244716  14.083   9.248   9.480
47607SOL     OW44717  13.300   2.470  10.762
47607SOL    HW144718  13.327   2.422  10.840
47607SOL    HW244719  13.380   2.479  10.711
47608SOL     OW44720  12.008   8.637   3.330
47608SOL    HW144721  11.928   8.588   3.350
47608SOL    HW244722  12.076   8.570   3.321
47609SOL     OW44723   7.788   4.834   5.574
47609SOL    HW144724   7.862   4.803   5.522
47609SOL    HW244725   7.756   4.911   5.526
47610SOL     OW44726   7.520   0.692   4.807
47610SOL    HW144727   7.556   0.674   4.894
47610SOL    HW244728   7.545   0.782   4.788
47611SOL     OW44729   4.833   5.987   1.471
47611SOL    HW144730   4.846   6.074   1.432
47611SOL    HW244731   4.821   5.929   1.396
47612SOL     OW44732   0.252   3.804   7.491
47612SOL    HW144733   0.328   3.757   7.455
47612SOL    HW244734   0.281   3.835   7.576
47613SOL     OW44735  13.257  13.702  13.384
47613SOL    HW144736  13.204  13.691  13.462
47613SOL    HW244737  13.297  13.616  13.369
47614SOL     OW44738  11.457   0.755  13.623
47614SOL    HW144739  11.441   0.782  13.714
47614SOL    HW244740  11.435   0.832  13.571
47615SOL     OW44741  11.818   0.881   5.892
47615SOL    HW144742  11.759   0.934   5.945
47615SOL    HW244743  11.844   0.939   5.820
47616SOL     OW44744  13.643  10.578   5.070
47616SOL    HW144745  13.712  10.530   5.024
47616SOL    HW244746  13.562  10.546   5.031
47617SOL     OW44747   7.721   2.594   9.038
47617SOL    HW144748   7.811   2.624   9.054
47617SOL    HW244749   7.674   2.618   9.118
47618SOL     OW44750   0.497   4.872   6.344
47618SOL    HW144751   0.442   4.922   6.284
47618SOL    HW244752   0.529   4.798   6.293
47619SOL     OW44753  14.579   3.629   8.894
47619SOL    HW144754  14.643   3.558   8.899
47619SOL    HW244755  14.631   3.707   8.876
47620SOL     OW44756  11.992   7.734   9.134
47620SOL    HW144757  11.991   7.710   9.042
47620SOL    HW244758  11.966   7.827   9.135
47621SOL     OW44759   7.005   3.380   0.774
47621SOL    HW144760   7.098   3.368   0.753
47621SOL    HW244761   6.959   3.337   0.703
47622SOL     OW44762   4.753  12.641   2.168
47622SOL    HW144763   4.757  12.701   2.094
47622SOL    HW244764   4.665  12.650   2.203
47623SOL     OW44765   7.961   2.282  11.012
47623SOL    HW144766   7.897   2.332  10.961
47623SOL    HW244767   8.046   2.319  10.987
47624SOL     OW44768   9.236   6.155   6.639
47624SOL    HW144769   9.145   6.184   6.639
47624SOL    HW244770   9.254   6.132   6.731
47625SOL     OW44771  13.067   4.427  14.694
47625SOL    HW144772  13.030   4.361  14.753
47625SOL    HW244773  13.038   4.511  14.731
47626SOL     OW44774  13.803   1.231   7.190
47626SOL    HW144775  13.882   1.178   7.200
47626SOL    HW244776  13.820   1.286   7.113
47627SOL     OW44777  10.388   2.112   6.165
47627SOL    HW144778  10.384   2.042   6.231
47627SOL    HW244779  10.405   2.191   6.216
47628SOL     OW44780   0.525   5.997   4.941
47628SOL    HW144781   0.461   5.971   4.874
47628SOL    HW244782   0.591   5.928   4.939
47629SOL     OW44783   9.931   7.636   3.996
47629SOL    HW144784   9.920   7.563   3.935
47629SOL    HW244785   9.850   7.686   3.988
47630SOL     OW44786   7.843   9.011   4.011
47630SOL    HW144787   7.910   9.078   4.024
47630SOL    HW244788   7.891   8.937   3.973
47631SOL     OW44789   4.710   4.999  10.566
47631SOL    HW144790   4.648   4.933  10.596
47631SOL    HW244791   4.696   5.073  10.625
47632SOL     OW44792   9.399   7.824   5.624
47632SOL    HW144793   9.440   7.757   5.570
47632SOL    HW244794   9.389   7.783   5.710
47633SOL     OW44795   9.951   9.200   5.269
47633SOL    HW144796   9.988   9.255   5.199
47633SOL    HW244797   9.886   9.256   5.312
47634SOL     OW44798   9.834   1.269  13.187
47634SOL    HW144799   9.850   1.178  13.163
47634SOL    HW244800   9.904   1.318  13.142
47635SOL     OW44801   6.671   3.222   3.260
47635SOL    HW144802   6.691   3.303   3.213
47635SOL    HW244803   6.612   3.249   3.330
47636SOL     OW44804   0.013   7.728   9.895
47636SOL    HW144805  14.873   7.685   9.979
47636SOL    HW244806   0.054   7.659   9.842
47637SOL     OW44807  12.160   5.826   4.155
47637SOL    HW144808  12.178   5.775   4.234
47637SOL    HW244809  12.104   5.770   4.102
47638SOL     OW44810   8.023   5.283   0.344
47638SOL    HW144811   8.055   5.369   0.370
47638SOL    HW244812   8.079   5.258   0.270
47639SOL     OW44813   2.221   9.736   9.985
47639SOL    HW144814   2.234   9.713  10.077
47639SOL    HW244815   2.282   9.679   9.937
47640SOL     OW44816   9.966   4.363   6.368
47640SOL    HW144817  10.015   4.377   6.287
47640SOL    HW244818   9.945   4.451   6.399
47641SOL     OW44819  14.409   3.292   5.873
47641SOL    HW144820  14.420   3.312   5.966
47641SOL    HW244821  14.340   3.351   5.844
47642SOL     OW44822  10.697   2.817   7.696
47642SOL    HW144823  10.720   2.831   7.604
47642SOL    HW244824  10.636   2.888   7.716
47643SOL     OW44825   0.251   4.760   0.471
47643SOL    HW144826   0.220   4.841   0.430
47643SOL    HW244827   0.246   4.695   0.402
47644SOL     OW44828   6.115  14.377   4.146
47644SOL    HW144829   6.048  14.400   4.211
47644SOL    HW244830   6.077  14.304   4.097
47645SOL     OW44831   9.965  13.330   7.068
47645SOL    HW144832   9.943  13.423   7.068
47645SOL    HW244833  10.051  13.326   7.026
47646SOL     OW44834   0.605   4.381   1.559
47646SOL    HW144835   0.616   4.467   1.600
47646SOL    HW244836   0.519   4.386   1.517
47647SOL     OW44837  14.768  10.171  11.155
47647SOL    HW144838  14.815  10.126  11.224
47647SOL    HW244839  14.677  10.145  11.167
47648SOL     OW44840   3.511   0.861   9.199
47648SOL    HW144841   3.433   0.805   9.206
47648SOL    HW244842   3.477   0.946   9.171
47649SOL     OW44843   2.029   5.260  14.316
47649SOL    HW144844   1.957   5.197  14.321
47649SOL    HW244845   2.059   5.269  14.406
47650SOL     OW44846   3.865   9.086   9.018
47650SOL    HW144847   3.850   9.044   9.103
47650SOL    HW244848   3.960   9.085   9.008
47651SOL     OW44849  14.728   9.635   9.569
47651SOL    HW144850  14.649   9.619   9.621
47651SOL    HW244851  14.795   9.657   9.633
47652SOL     OW44852   4.219  12.455   5.302
47652SOL    HW144853   4.219  12.385   5.238
47652SOL    HW244854   4.151  12.430   5.365
47653SOL     OW44855   6.995   2.792  11.229
47653SOL    HW144856   7.034   2.833  11.152
47653SOL    HW244857   6.907   2.828  11.234
47654SOL     OW44858   9.408  11.102   4.251
47654SOL    HW144859   9.416  11.063   4.338
47654SOL    HW244860   9.356  11.182   4.265
47655SOL     OW44861   6.422  11.044   3.484
47655SOL    HW144862   6.439  11.127   3.440
47655SOL    HW244863   6.345  11.008   3.439
47656SOL     OW44864   4.990  13.432   6.916
47656SOL    HW144865   4.962  13.345   6.947
47656SOL    HW244866   4.910  13.471   6.881
47657SOL     OW44867  11.872  11.527   6.466
47657SOL    HW144868  11.873  11.532   6.562
47657SOL    HW244869  11.965  11.532   6.441
47658SOL     OW44870   7.205  14.458   1.738
47658SOL    HW144871   7.270  14.509   1.785
47658SOL    HW244872   7.128  14.515   1.733
47659SOL     OW44873  14.172   4.341   3.970
47659SOL    HW144874  14.171   4.436   3.964
47659SOL    HW244875  14.131   4.312   3.888
47660SOL     OW44876   2.682  10.573  11.035
47660SOL    HW144877   2.595  10.571  10.995
47660SOL    HW244878   2.743  10.571  10.960
47661SOL     OW44879   3.846   4.519   5.056
47661SOL    HW144880   3.882   4.442   5.101
47661SOL    HW244881   3.863   4.502   4.964
47662SOL     OW44882   4.259  14.534   0.589
47662SOL    HW144883   4.222  14.446   0.578
47662SOL    HW244884   4.197  14.579   0.646
47663SOL     OW44885  10.725   3.401   3.295
47663SOL    HW144886  10.702   3.453   3.218
47663SOL    HW244887  10.648   3.346   3.311
47664SOL     OW44888   4.832  10.321   3.230
47664SOL    HW144889   4.852  10.243   3.283
47664SOL    HW244890   4.874  10.393   3.276
47665SOL     OW44891   0.639   3.018   7.662
47665SOL    HW144892   0.715   3.059   7.703
47665SOL    HW244893   0.580   2.998   7.734
47666SOL     OW44894  11.242   1.301   9.844
47666SOL    HW144895  11.202   1.387   9.829
47666SOL    HW244896  11.318   1.300   9.787
47667SOL     OW44897  11.409   1.845   9.411
47667SOL    HW144898  11.376   1.921   9.363
47667SOL    HW244899  11.505   1.852   9.403
47668SOL     OW44900  13.350   4.727   2.418
47668SOL    HW144901  13.302   4.741   2.337
47668SOL    HW244902  13.397   4.809   2.432
47669SOL     OW44903  13.376   8.298  12.188
47669SOL    HW144904  13.398   8.356  12.115
47669SOL    HW244905  13.281   8.308  12.200
47670SOL     OW44906  10.581   0.153  13.139
47670SOL    HW144907  10.628   0.216  13.194
47670SOL    HW244908  10.530   0.207  13.079
47671SOL     OW44909   3.037   7.808   3.915
47671SOL    HW144910   2.974   7.836   3.848
47671SOL    HW244911   3.062   7.890   3.958
47672SOL     OW44912   1.760   5.904   4.122
47672SOL    HW144913   1.819   5.921   4.049
47672SOL    HW244914   1.791   5.960   4.193
47673SOL     OW44915   6.398   0.019   3.845
47673SOL    HW144916   6.364  14.810   3.853
47673SOL    HW244917   6.335   0.064   3.788
47674SOL     OW44918  12.037   8.871   5.636
47674SOL    HW144919  12.064   8.832   5.719
47674SOL    HW244920  12.093   8.829   5.570
47675SOL     OW44921   3.098   6.686   8.105
47675SOL    HW144922   3.084   6.673   8.011
47675SOL    HW244923   3.012   6.674   8.144
47676SOL     OW44924  10.445   2.788   7.137
47676SOL    HW144925  10.487   2.866   7.173
47676SOL    HW244926  10.371   2.771   7.196
47677SOL     OW44927   6.479  14.415  13.315
47677SOL    HW144928   6.461  14.328  13.282
47677SOL    HW244929   6.500  14.467  13.238
47678SOL     OW44930  14.041   7.628   7.624
47678SOL    HW144931  13.969   7.631   7.687
47678SOL    HW244932  14.008   7.575   7.552
47679SOL     OW44933   6.181   3.081   4.450
47679SOL    HW144934   6.194   3.005   4.393
47679SOL    HW244935   6.105   3.126   4.414
47680SOL     OW44936  10.997   5.347   7.402
47680SOL    HW144937  11.008   5.442   7.412
47680SOL    HW244938  10.962   5.336   7.314
47681SOL     OW44939  10.046   4.150  10.415
47681SOL    HW144940   9.975   4.117  10.470
47681SOL    HW244941  10.004   4.216  10.359
47682SOL     OW44942  10.013   4.944   6.999
47682SOL    HW144943   9.973   4.898   6.925
47682SOL    HW244944  10.106   4.947   6.978
47683SOL     OW44945   3.035  13.889   2.025
47683SOL    HW144946   3.067  13.816   1.972
47683SOL    HW244947   3.014  13.957   1.961
47684SOL     OW44948  13.645   6.683  13.368
47684SOL    HW144949  13.732   6.711  13.338
47684SOL    HW244950  13.606   6.641  13.291
47685SOL     OW44951   7.495   7.948   7.877
47685SOL    HW144952   7.490   7.950   7.972
47685SOL    HW244953   7.587   7.930   7.858
47686SOL     OW44954   9.498   3.940   3.434
47686SOL    HW144955   9.530   3.874   3.495
47686SOL    HW244956   9.574   3.993   3.413
47687SOL     OW44957  12.368   5.285  11.527
47687SOL    HW144958  12.423   5.214  11.494
47687SOL    HW244959  12.353   5.342  11.451
47688SOL     OW44960   5.922  10.266  10.192
47688SOL    HW144961   5.976  10.329  10.145
47688SOL    HW244962   5.862  10.231  10.126
47689SOL     OW44963   7.881   9.291  12.768
47689SOL    HW144964   7.787   9.305  12.755
47689SOL    HW244965   7.906   9.229  12.699
47690SOL     OW44966   1.591  14.563   5.412
47690SOL    HW144967   1.562  14.473   5.402
47690SOL    HW244968   1.588  14.599   5.323
47691SOL     OW44969  13.110   8.759   7.875
47691SOL    HW144970  13.148   8.761   7.963
47691SOL    HW244971  13.164   8.695   7.828
47692SOL     OW44972   7.209  12.183  13.630
47692SOL    HW144973   7.163  12.227  13.701
47692SOL    HW244974   7.280  12.243  13.605
47693SOL     OW44975   9.886   2.783   3.621
47693SOL    HW144976   9.884   2.869   3.577
47693SOL    HW244977   9.811   2.785   3.680
47694SOL     OW44978  12.245  14.770  11.198
47694SOL    HW144979  12.271  14.769  11.290
47694SOL    HW244980  12.241  14.678  11.173
47695SOL     OW44981   0.038   3.948   0.439
47695SOL    HW144982   0.093   3.970   0.364
47695SOL    HW244983   0.072   4.003   0.510
47696SOL     OW44984   4.486   2.197  10.307
47696SOL    HW144985   4.395   2.175  10.326
47696SOL    HW244986   4.481   2.280  10.260
47697SOL     OW44987  12.360  14.143   6.929
47697SOL    HW144988  12.414  14.064   6.936
47697SOL    HW244989  12.271  14.111   6.920
47698SOL     OW44990   3.154  13.916   8.737
47698SOL    HW144991   3.122  13.985   8.795
47698SOL    HW244992   3.207  13.962   8.672
47699SOL     OW44993  11.549  14.840   7.241
47699SOL    HW144994  11.583   0.043   7.207
47699SOL    HW244995  11.579  14.774   7.180
47700SOL     OW44996   6.733  14.167   3.503
47700SOL    HW144997   6.646  14.158   3.463
47700SOL    HW244998   6.760  14.078   3.524
47701SOL     OW44999   6.222   5.456   6.911
47701SOL    HW145000   6.148   5.426   6.860
47701SOL    HW245001   6.297   5.446   6.853
47702SOL     OW45002   7.271   5.819   4.188
47702SOL    HW145003   7.177   5.834   4.200
47702SOL    HW245004   7.312   5.903   4.208
47703SOL     OW45005   4.576  10.954   9.034
47703SOL    HW145006   4.581  10.896   8.958
47703SOL    HW245007   4.571  10.895   9.109
47704SOL     OW45008   2.435   3.720   0.989
47704SOL    HW145009   2.418   3.737   0.896
47704SOL    HW245010   2.518   3.763   1.007
47705SOL     OW45011  12.058   0.590   4.871
47705SOL    HW145012  12.009   0.627   4.945
47705SOL    HW245013  12.134   0.549   4.911
47706SOL     OW45014  10.352  13.088   1.138
47706SOL    HW145015  10.282  13.023   1.142
47706SOL    HW245016  10.310  13.170   1.166
47707SOL     OW45017   8.112   9.847   8.293
47707SOL    HW145018   8.048   9.819   8.358
47707SOL    HW245019   8.102   9.942   8.289
47708SOL     OW45020  11.615   0.726   0.265
47708SOL    HW145021  11.689   0.750   0.208
47708SOL    HW245022  11.542   0.779   0.232
47709SOL     OW45023   8.887   0.739   8.324
47709SOL    HW145024   8.859   0.659   8.279
47709SOL    HW245025   8.939   0.786   8.258
47710SOL     OW45026   9.239  10.906   6.368
47710SOL    HW145027   9.215  10.872   6.454
47710SOL    HW245028   9.292  10.837   6.328
47711SOL     OW45029  13.976  14.394   6.781
47711SOL    HW145030  14.072  14.395   6.779
47711SOL    HW245031  13.950  14.483   6.761
47712SOL     OW45032  10.816   3.301   1.766
47712SOL    HW145033  10.816   3.355   1.845
47712SOL    HW245034  10.906   3.270   1.758
47713SOL     OW45035   7.385   6.609  12.726
47713SOL    HW145036   7.364   6.518  12.706
47713SOL    HW245037   7.394   6.611  12.822
47714SOL     OW45038  10.407   1.372   5.733
47714SOL    HW145039  10.367   1.410   5.655
47714SOL    HW245040  10.501   1.370   5.713
47715SOL     OW45041   2.057   8.642   2.042
47715SOL    HW145042   2.101   8.620   1.960
47715SOL    HW245043   2.126   8.640   2.108
47716SOL     OW45044  10.814   8.486   6.787
47716SOL    HW145045  10.758   8.520   6.718
47716SOL    HW245046  10.797   8.392   6.788
47717SOL     OW45047  14.723   2.304   5.117
47717SOL    HW145048  14.817   2.316   5.104
47717SOL    HW245049  14.683   2.383   5.082
47718SOL     OW45050   9.998  10.726   0.810
47718SOL    HW145051  10.018  10.765   0.725
47718SOL    HW245052   9.950  10.795   0.857
47719SOL     OW45053   3.168  13.920   5.205
47719SOL    HW145054   3.143  13.848   5.263
47719SOL    HW245055   3.116  13.994   5.235
47720SOL     OW45056  10.716   7.326  10.392
47720SOL    HW145057  10.684   7.321  10.302
47720SOL    HW245058  10.684   7.409  10.425
47721SOL     OW45059  13.980  10.831  13.475
47721SOL    HW145060  14.036  10.849  13.400
47721SOL    HW245061  13.900  10.881  13.458
47722SOL     OW45062   3.611   7.153   0.327
47722SOL    HW145063   3.611   7.064   0.291
47722SOL    HW245064   3.525   7.160   0.370
47723SOL     OW45065   1.026   8.902   9.191
47723SOL    HW145066   0.933   8.900   9.210
47723SOL    HW245067   1.063   8.960   9.258
47724SOL     OW45068   4.291   7.957   9.557
47724SOL    HW145069   4.215   7.978   9.504
47724SOL    HW245070   4.257   7.952   9.647
47725SOL     OW45071   7.030  12.219   8.125
47725SOL    HW145072   7.084  12.218   8.046
47725SOL    HW245073   7.082  12.172   8.191
47726SOL     OW45074  11.377  11.187   6.057
47726SOL    HW145075  11.393  11.136   5.978
47726SOL    HW245076  11.413  11.133   6.128
47727SOL     OW45077   1.187   2.415  11.619
47727SOL    HW145078   1.197   2.361  11.697
47727SOL    HW245079   1.099   2.395  11.587
47728SOL     OW45080   7.432  13.481  11.019
47728SOL    HW145081   7.418  13.496  11.112
47728SOL    HW245082   7.524  13.453  11.013
47729SOL     OW45083  11.764  13.434   4.899
47729SOL    HW145084  11.781  13.350   4.943
47729SOL    HW245085  11.743  13.409   4.809
47730SOL     OW45086   9.460   3.659  11.496
47730SOL    HW145087   9.555   3.643  11.503
47730SOL    HW245088   9.453   3.731  11.434
47731SOL     OW45089   6.733   9.317  10.947
47731SOL    HW145090   6.666   9.326  11.015
47731SOL    HW245091   6.685   9.283  10.871
47732SOL     OW45092  12.895  13.003  11.049
47732SOL    HW145093  12.923  13.046  11.129
47732SOL    HW245094  12.961  12.936  11.033
47733SOL     OW45095   1.760   7.428  14.820
47733SOL    HW145096   1.676   7.426  14.774
47733SOL    HW245097   1.764   7.345  14.866
47734SOL     OW45098  10.851   6.058  14.235
47734SOL    HW145099  10.865   6.048  14.329
47734SOL    HW245100  10.768   6.105  14.227
47735SOL     OW45101   5.017   8.411   7.019
47735SOL    HW145102   4.951   8.392   7.086
47735SOL    HW245103   5.096   8.433   7.070
47736SOL     OW45104   1.431   4.961   8.558
47736SOL    HW145105   1.466   4.916   8.635
47736SOL    HW245106   1.417   4.892   8.493
47737SOL     OW45107  14.820   4.259   9.663
47737SOL    HW145108  14.824   4.177   9.614
47737SOL    HW245109  14.834   4.327   9.597
47738SOL     OW45110  13.620   1.849   9.525
47738SOL    HW145111  13.703   1.846   9.477
47738SOL    HW245112  13.592   1.758   9.530
47739SOL     OW45113   4.046   6.097   1.878
47739SOL    HW145114   4.100   6.153   1.934
47739SOL    HW245115   3.956   6.119   1.901
47740SOL     OW45116  11.884  12.641  13.173
47740SOL    HW145117  11.901  12.711  13.236
47740SOL    HW245118  11.848  12.570  13.226
47741SOL     OW45119   7.575   9.304   5.715
47741SOL    HW145120   7.628   9.256   5.779
47741SOL    HW245121   7.556   9.239   5.647
47742SOL     OW45122   3.205   3.684   4.476
47742SOL    HW145123   3.219   3.776   4.454
47742SOL    HW245124   3.115   3.666   4.447
47743SOL     OW45125   8.201   7.131   9.475
47743SOL    HW145126   8.289   7.112   9.505
47743SOL    HW245127   8.156   7.166   9.552
47744SOL     OW45128   2.124   0.305  14.011
47744SOL    HW145129   2.207   0.341  14.042
47744SOL    HW245130   2.057   0.364  14.048
47745SOL     OW45131   9.589   5.395   5.278
47745SOL    HW145132   9.529   5.444   5.335
47745SOL    HW245133   9.650   5.353   5.338
47746SOL     OW45134  12.378   1.133   8.548
47746SOL    HW145135  12.323   1.162   8.621
47746SOL    HW245136  12.458   1.102   8.590
47747SOL     OW45137   6.130   3.158  13.711
47747SOL    HW145138   6.187   3.134  13.639
47747SOL    HW245139   6.187   3.205  13.773
47748SOL     OW45140  11.919   8.718   4.366
47748SOL    HW145141  11.849   8.692   4.307
47748SOL    HW245142  11.979   8.644   4.367
47749SOL     OW45143   4.619  11.589   3.604
47749SOL    HW145144   4.528  11.612   3.585
47749SOL    HW245145   4.647  11.654   3.668
47750SOL     OW45146  11.134   2.213   3.688
47750SOL    HW145147  11.120   2.133   3.637
47750SOL    HW245148  11.145   2.282   3.622
47751SOL     OW45149   5.800   0.238   7.919
47751SOL    HW145150   5.817   0.319   7.871
47751SOL    HW245151   5.779   0.174   7.851
47752SOL     OW45152   0.656   2.411   6.772
47752SOL    HW145153   0.682   2.503   6.767
47752SOL    HW245154   0.584   2.403   6.710
47753SOL     OW45155   5.029  13.076   4.717
47753SOL    HW145156   4.997  13.044   4.632
47753SOL    HW245157   5.041  13.170   4.703
47754SOL     OW45158   4.454   8.307  14.263
47754SOL    HW145159   4.493   8.230  14.221
47754SOL    HW245160   4.450   8.285  14.355
47755SOL     OW45161  12.518   3.582   2.188
47755SOL    HW145162  12.490   3.501   2.229
47755SOL    HW245163  12.563   3.555   2.107
47756SOL     OW45164  11.477  10.081   0.666
47756SOL    HW145165  11.544  10.093   0.732
47756SOL    HW245166  11.457  10.170   0.635
47757SOL     OW45167  13.575   8.012   7.159
47757SOL    HW145168  13.482   8.029   7.143
47757SOL    HW245169  13.577   7.924   7.195
47758SOL     OW45170   8.422   6.251   7.664
47758SOL    HW145171   8.503   6.301   7.674
47758SOL    HW245172   8.369   6.276   7.739
47759SOL     OW45173  12.516   1.787  10.409
47759SOL    HW145174  12.440   1.835  10.376
47759SOL    HW245175  12.499   1.696  10.386
47760SOL     OW45176   9.731   2.288   6.995
47760SOL    HW145177   9.691   2.234   7.063
47760SOL    HW245178   9.747   2.372   7.038
47761SOL     OW45179  10.864   5.922   4.374
47761SOL    HW145180  10.904   5.842   4.341
47761SOL    HW245181  10.808   5.953   4.303
47762SOL     OW45182   8.177   2.190   2.338
47762SOL    HW145183   8.151   2.161   2.426
47762SOL    HW245184   8.145   2.280   2.332
47763SOL     OW45185   6.194   1.345   0.870
47763SOL    HW145186   6.194   1.300   0.955
47763SOL    HW245187   6.272   1.313   0.826
47764SOL     OW45188   0.997   6.426   1.615
47764SOL    HW145189   1.023   6.367   1.544
47764SOL    HW245190   0.947   6.495   1.572
47765SOL     OW45191  10.784   1.683   8.774
47765SOL    HW145192  10.824   1.746   8.714
47765SOL    HW245193  10.785   1.726   8.859
47766SOL     OW45194  12.360   5.255   2.684
47766SOL    HW145195  12.326   5.263   2.774
47766SOL    HW245196  12.433   5.194   2.692
47767SOL     OW45197   3.209  10.292  11.491
47767SOL    HW145198   3.247  10.248  11.415
47767SOL    HW245199   3.235  10.384  11.481
47768SOL     OW45200   7.307   4.891  10.041
47768SOL    HW145201   7.368   4.958  10.011
47768SOL    HW245202   7.278   4.848   9.961
47769SOL     OW45203  10.218  11.863  13.338
47769SOL    HW145204  10.235  11.773  13.366
47769SOL    HW245205  10.234  11.916  13.416
47770SOL     OW45206   2.413   8.021   2.672
47770SOL    HW145207   2.337   7.986   2.625
47770SOL    HW245208   2.445   8.091   2.616
47771SOL     OW45209   7.221   9.134   5.841
47771SOL    HW145210   7.214   9.142   5.746
47771SOL    HW245211   7.215   9.223   5.874
47772SOL     OW45212   0.205   5.449   1.883
47772SOL    HW145213   0.250   5.480   1.961
47772SOL    HW245214   0.179   5.529   1.837
47773SOL     OW45215  14.502   4.291  12.007
47773SOL    HW145216  14.433   4.322  11.948
47773SOL    HW245217  14.473   4.319  12.094
47774SOL     OW45218   4.567   6.317   3.942
47774SOL    HW145219   4.631   6.247   3.932
47774SOL    HW245220   4.619   6.394   3.963
47775SOL     OW45221   6.644   0.659   4.426
47775SOL    HW145222   6.731   0.652   4.386
47775SOL    HW245223   6.606   0.738   4.387
47776SOL     OW45224   4.461   0.125   9.325
47776SOL    HW145225   4.372   0.120   9.360
47776SOL    HW245226   4.471   0.217   9.299
47777SOL     OW45227   2.193   8.305  11.069
47777SOL    HW145228   2.260   8.344  11.013
47777SOL    HW245229   2.132   8.376  11.086
47778SOL     OW45230  10.622   6.850  12.340
47778SOL    HW145231  10.617   6.811  12.427
47778SOL    HW245232  10.616   6.944  12.355
47779SOL     OW45233  12.319   1.499   1.847
47779SOL    HW145234  12.354   1.512   1.935
47779SOL    HW245235  12.251   1.433   1.858
47780SOL     OW45236   3.726  14.452  12.659
47780SOL    HW145237   3.793  14.448  12.727
47780SOL    HW245238   3.771  14.423  12.580
47781SOL     OW45239   7.375   2.590   1.075
47781SOL    HW145240   7.296   2.642   1.063
47781SOL    HW245241   7.446   2.654   1.067
47782SOL     OW45242  13.905  10.544   1.897
47782SOL    HW145243  13.982  10.489   1.883
47782SOL    HW245244  13.932  10.631   1.867
47783SOL     OW45245  14.422   9.532  11.735
47783SOL    HW145246  14.383   9.445  11.746
47783SOL    HW245247  14.440   9.562  11.824
47784SOL     OW45248   7.826  14.691  14.577
47784SOL    HW145249   7.821  14.753  14.649
47784SOL    HW245250   7.903  14.637  14.596
47785SOL     OW45251   8.274   8.276  14.072
47785SOL    HW145252   8.285   8.198  14.018
47785SOL    HW245253   8.183   8.303  14.057
47786SOL     OW45254   9.193   7.244   2.212
47786SOL    HW145255   9.277   7.236   2.256
47786SOL    HW245256   9.212   7.289   2.130
47787SOL     OW45257   4.714   4.766   3.162
47787SOL    HW145258   4.645   4.719   3.207
47787SOL    HW245259   4.694   4.859   3.177
47788SOL     OW45260  11.783   7.014   7.205
47788SOL    HW145261  11.784   7.084   7.271
47788SOL    HW245262  11.740   7.053   7.129
47789SOL     OW45263   8.273  10.752   0.874
47789SOL    HW145264   8.288  10.692   0.801
47789SOL    HW245265   8.184  10.785   0.860
47790SOL     OW45266   6.888   9.020   6.727
47790SOL    HW145267   6.840   8.951   6.681
47790SOL    HW245268   6.979   8.993   6.722
47791SOL     OW45269   1.342   0.220   1.271
47791SOL    HW145270   1.296   0.153   1.320
47791SOL    HW245271   1.343   0.296   1.329
47792SOL     OW45272   7.191  12.385   2.762
47792SOL    HW145273   7.150  12.313   2.715
47792SOL    HW245274   7.245  12.430   2.697
47793SOL     OW45275   4.552   2.683  11.693
47793SOL    HW145276   4.556   2.656  11.601
47793SOL    HW245277   4.640   2.666  11.726
47794SOL     OW45278  13.178  12.194   7.065
47794SOL    HW145279  13.227  12.192   6.983
47794SOL    HW245280  13.243  12.216   7.131
47795SOL     OW45281   6.436  13.838   6.683
47795SOL    HW145282   6.512  13.889   6.710
47795SOL    HW245283   6.375  13.845   6.757
47796SOL     OW45284   9.200   8.604   1.719
47796SOL    HW145285   9.136   8.561   1.663
47796SOL    HW245286   9.276   8.545   1.718
47797SOL     OW45287  14.179   8.303   2.534
47797SOL    HW145288  14.132   8.325   2.454
47797SOL    HW245289  14.269   8.286   2.507
47798SOL     OW45290   9.260   6.895  11.391
47798SOL    HW145291   9.284   6.827  11.454
47798SOL    HW245292   9.254   6.849  11.307
47799SOL     OW45293  14.674   1.398   8.880
47799SOL    HW145294  14.727   1.367   8.953
47799SOL    HW245295  14.606   1.331   8.869
47800SOL     OW45296   1.818  11.318  13.385
47800SOL    HW145297   1.865  11.243  13.422
47800SOL    HW245298   1.801  11.293  13.294
47801SOL     OW45299   5.698   0.358   9.217
47801SOL    HW145300   5.632   0.426   9.230
47801SOL    HW245301   5.711   0.321   9.305
47802SOL     OW45302   8.390   9.640   4.729
47802SOL    HW145303   8.332   9.632   4.653
47802SOL    HW245304   8.415   9.549   4.749
47803SOL     OW45305   0.568   4.829  10.443
47803SOL    HW145306   0.661   4.841  10.463
47803SOL    HW245307   0.524   4.833  10.528
47804SOL     OW45308   2.615  10.941   1.014
47804SOL    HW145309   2.588  10.995   0.939
47804SOL    HW245310   2.622  10.853   0.978
47805SOL     OW45311  10.842  14.531   7.594
47805SOL    HW145312  10.926  14.488   7.606
47805SOL    HW245313  10.845  14.564   7.504
47806SOL     OW45314  12.948   1.279   6.894
47806SOL    HW145315  12.921   1.369   6.913
47806SOL    HW245316  12.866   1.234   6.872
47807SOL     OW45317   7.751   2.048   9.293
47807SOL    HW145318   7.767   2.032   9.200
47807SOL    HW245319   7.656   2.040   9.303
47808SOL     OW45320   3.438  14.084   9.152
47808SOL    HW145321   3.527  14.060   9.128
47808SOL    HW245322   3.435  14.179   9.140
47809SOL     OW45323   3.062  12.081  11.433
47809SOL    HW145324   3.146  12.123  11.449
47809SOL    HW245325   3.004  12.153  11.408
47810SOL     OW45326  11.822   1.739   6.048
47810SOL    HW145327  11.894   1.791   6.083
47810SOL    HW245328  11.813   1.770   5.957
47811SOL     OW45329  12.098   8.369   8.021
47811SOL    HW145330  12.114   8.352   7.929
47811SOL    HW245331  12.048   8.451   8.023
47812SOL     OW45332   7.726   9.883   7.191
47812SOL    HW145333   7.659   9.949   7.203
47812SOL    HW245334   7.718   9.857   7.099
47813SOL     OW45335   5.672  11.851  10.920
47813SOL    HW145336   5.683  11.943  10.895
47813SOL    HW245337   5.589  11.849  10.967
47814SOL     OW45338  10.460  12.279   1.291
47814SOL    HW145339  10.434  12.197   1.332
47814SOL    HW245340  10.379  12.311   1.249
47815SOL     OW45341   9.395   0.301  11.824
47815SOL    HW145342   9.412   0.393  11.807
47815SOL    HW245343   9.476   0.256  11.800
47816SOL     OW45344   4.916   5.940   6.317
47816SOL    HW145345   4.848   5.935   6.385
47816SOL    HW245346   4.957   5.853   6.318
47817SOL     OW45347   0.397   8.385  10.222
47817SOL    HW145348   0.377   8.292  10.235
47817SOL    HW245349   0.467   8.385  10.156
47818SOL     OW45350  11.359   1.074   0.952
47818SOL    HW145351  11.371   1.167   0.973
47818SOL    HW245352  11.282   1.048   1.003
47819SOL     OW45353  13.996  10.109  14.190
47819SOL    HW145354  14.033  10.021  14.191
47819SOL    HW245355  14.058  10.161  14.138
47820SOL     OW45356  13.893  14.858   8.987
47820SOL    HW145357  13.949   0.024   9.051
47820SOL    HW245358  13.818  14.829   9.038
47821SOL     OW45359   8.112   0.528  11.308
47821SOL    HW145360   8.047   0.544  11.376
47821SOL    HW245361   8.197   0.541  11.351
47822SOL     OW45362   8.811   5.298   9.558
47822SOL    HW145363   8.777   5.364   9.497
47822SOL    HW245364   8.903   5.289   9.534
47823SOL     OW45365   9.868   4.546  13.446
47823SOL    HW145366   9.934   4.523  13.381
47823SOL    HW245367   9.916   4.591  13.515
47824SOL     OW45368   0.900   4.493  11.823
47824SOL    HW145369   0.892   4.583  11.792
47824SOL    HW245370   0.828   4.446  11.780
47825SOL     OW45371   3.151   8.453   8.549
47825SOL    HW145372   3.161   8.382   8.485
47825SOL    HW245373   3.098   8.518   8.504
47826SOL     OW45374  14.723   1.240   6.529
47826SOL    HW145375  14.753   1.157   6.567
47826SOL    HW245376  14.762   1.242   6.442
47827SOL     OW45377   8.706   9.150  12.837
47827SOL    HW145378   8.645   9.197  12.780
47827SOL    HW245379   8.695   9.192  12.923
47828SOL     OW45380  14.610   2.683   7.094
47828SOL    HW145381  14.609   2.695   7.189
47828SOL    HW245382  14.545   2.615   7.077
47829SOL     OW45383   7.963  14.352   1.685
47829SOL    HW145384   7.909  14.315   1.755
47829SOL    HW245385   8.052  14.322   1.705
47830SOL     OW45386  13.980   2.298   6.656
47830SOL    HW145387  14.047   2.300   6.588
47830SOL    HW245388  13.903   2.259   6.614
47831SOL     OW45389   7.648   4.554  14.125
47831SOL    HW145390   7.653   4.635  14.074
47831SOL    HW245391   7.556   4.548  14.151
47832SOL     OW45392   5.912   9.741   0.662
47832SOL    HW145393   5.902   9.830   0.627
47832SOL    HW245394   5.886   9.684   0.590
47833SOL     OW45395   2.346   1.596   0.755
47833SOL    HW145396   2.287   1.576   0.828
47833SOL    HW245397   2.432   1.565   0.785
47834SOL     OW45398   1.729   9.613  10.694
47834SOL    HW145399   1.672   9.688  10.677
47834SOL    HW245400   1.756   9.584  10.607
47835SOL     OW45401  11.089   9.816  12.994
47835SOL    HW145402  11.026   9.888  12.992
47835SOL    HW245403  11.147   9.832  12.920
47836SOL     OW45404   6.763   0.328   4.803
47836SOL    HW145405   6.737   0.238   4.824
47836SOL    HW245406   6.805   0.320   4.717
47837SOL     OW45407   5.748   8.803   5.381
47837SOL    HW145408   5.756   8.708   5.392
47837SOL    HW245409   5.763   8.818   5.288
47838SOL     OW45410  11.835   9.983   6.430
47838SOL    HW145411  11.911  10.035   6.456
47838SOL    HW245412  11.848   9.899   6.474
47839SOL     OW45413  11.624  12.061   0.601
47839SOL    HW145414  11.659  12.024   0.520
47839SOL    HW245415  11.681  12.135   0.620
47840SOL     OW45416  13.444  13.826  10.482
47840SOL    HW145417  13.428  13.909  10.438
47840SOL    HW245418  13.371  13.818  10.545
47841SOL     OW45419  14.076   3.558  14.867
47841SOL    HW145420  14.069   3.462  14.870
47841SOL    HW245421  13.985   3.588  14.872
47842SOL     OW45422   8.542   1.626   4.008
47842SOL    HW145423   8.463   1.596   4.052
47842SOL    HW245424   8.517   1.632   3.915
47843SOL     OW45425   3.292   4.588  14.792
47843SOL    HW145426   3.304   4.519  14.857
47843SOL    HW245427   3.215   4.635  14.822
47844SOL     OW45428  11.522   2.918   8.400
47844SOL    HW145429  11.527   3.008   8.432
47844SOL    HW245430  11.437   2.913   8.357
47845SOL     OW45431   3.866   2.690  11.368
47845SOL    HW145432   3.855   2.710  11.275
47845SOL    HW245433   3.794   2.734  11.411
47846SOL     OW45434  10.842  12.204  12.999
47846SOL    HW145435  10.755  12.190  12.962
47846SOL    HW245436  10.850  12.137  13.067
47847SOL     OW45437   2.700   8.516  12.288
47847SOL    HW145438   2.795   8.522  12.274
47847SOL    HW245439   2.662   8.527  12.201
47848SOL     OW45440   6.846   0.338  13.153
47848SOL    HW145441   6.926   0.308  13.110
47848SOL    HW245442   6.873   0.413  13.205
47849SOL     OW45443   4.345   6.089   8.215
47849SOL    HW145444   4.265   6.142   8.217
47849SOL    HW245445   4.415   6.150   8.239
47850SOL     OW45446  10.379   2.507   5.087
47850SOL    HW145447  10.375   2.502   4.992
47850SOL    HW245448  10.288   2.520   5.114
47851SOL     OW45449  14.155   9.649   9.097
47851SOL    HW145450  14.209   9.692   9.031
47851SOL    HW245451  14.071   9.634   9.053
47852SOL     OW45452  11.499   4.710  13.385
47852SOL    HW145453  11.560   4.670  13.447
47852SOL    HW245454  11.499   4.651  13.310
47853SOL     OW45455   8.106   6.407   6.383
47853SOL    HW145456   8.190   6.450   6.396
47853SOL    HW245457   8.126   6.313   6.388
47854SOL     OW45458  10.544  13.692  11.176
47854SOL    HW145459  10.545  13.785  11.196
47854SOL    HW245460  10.605  13.653  11.238
47855SOL     OW45461   7.100   1.297  11.713
47855SOL    HW145462   7.102   1.379  11.664
47855SOL    HW245463   7.013   1.261  11.697
47856SOL     OW45464   9.978   9.300   0.239
47856SOL    HW145465   9.930   9.217   0.229
47856SOL    HW245466   9.950   9.352   0.164
47857SOL     OW45467  14.632   3.539   0.614
47857SOL    HW145468  14.639   3.456   0.660
47857SOL    HW245469  14.684   3.600   0.667
47858SOL     OW45470  12.319   6.368  14.809
47858SOL    HW145471  12.333   6.361   0.023
47858SOL    HW245472  12.404   6.391  14.773
47859SOL     OW45473   2.550  13.981  11.813
47859SOL    HW145474   2.563  13.956  11.904
47859SOL    HW245475   2.459  13.958  11.794
47860SOL     OW45476  11.951  12.535   2.654
47860SOL    HW145477  11.936  12.625   2.683
47860SOL    HW245478  12.047  12.528   2.647
47861SOL     OW45479  12.032   7.891   9.790
47861SOL    HW145480  12.001   7.956   9.727
47861SOL    HW245481  11.990   7.915   9.872
47862SOL     OW45482   1.810  14.347  11.457
47862SOL    HW145483   1.740  14.290  11.491
47862SOL    HW245484   1.830  14.312  11.371
47863SOL     OW45485   1.967   2.058   6.286
47863SOL    HW145486   1.937   2.013   6.366
47863SOL    HW245487   2.062   2.046   6.287
47864SOL     OW45488  14.248   3.403   2.262
47864SOL    HW145489  14.182   3.406   2.194
47864SOL    HW245490  14.296   3.486   2.254
47865SOL     OW45491  13.799  14.130   5.457
47865SOL    HW145492  13.851  14.066   5.408
47865SOL    HW245493  13.845  14.213   5.444
47866SOL     OW45494   7.070   3.484  13.777
47866SOL    HW145495   7.127   3.480  13.700
47866SOL    HW245496   7.123   3.528  13.843
47867SOL     OW45497   2.568   2.176  13.585
47867SOL    HW145498   2.593   2.089  13.552
47867SOL    HW245499   2.486   2.161  13.633
47868SOL     OW45500   4.318   8.525   6.447
47868SOL    HW145501   4.307   8.564   6.360
47868SOL    HW245502   4.243   8.558   6.497
47869SOL     OW45503  10.092   7.040   1.118
47869SOL    HW145504  10.075   6.953   1.155
47869SOL    HW245505  10.176   7.031   1.073
47870SOL     OW45506   2.376  14.570   9.584
47870SOL    HW145507   2.417  14.654   9.603
47870SOL    HW245508   2.419  14.540   9.504
47871SOL     OW45509   6.153  12.625  10.646
47871SOL    HW145510   6.203  12.681  10.706
47871SOL    HW245511   6.219  12.589  10.586
47872SOL     OW45512   7.884  13.233  14.365
47872SOL    HW145513   7.954  13.178  14.401
47872SOL    HW245514   7.896  13.229  14.270
47873SOL     OW45515   6.178   6.411  10.592
47873SOL    HW145516   6.262   6.426  10.636
47873SOL    HW245517   6.198   6.346  10.524
47874SOL     OW45518   0.821  14.082   9.895
47874SOL    HW145519   0.915  14.066   9.902
47874SOL    HW245520   0.789  14.076   9.985
47875SOL     OW45521  10.365   9.933   0.504
47875SOL    HW145522  10.307   9.984   0.560
47875SOL    HW245523  10.422   9.886   0.564
47876SOL     OW45524  10.253   3.917   1.575
47876SOL    HW145525  10.338   3.958   1.595
47876SOL    HW245526  10.192   3.990   1.569
47877SOL     OW45527  11.326  10.058   4.913
47877SOL    HW145528  11.348  10.032   4.824
47877SOL    HW245529  11.235  10.033   4.924
47878SOL     OW45530   6.935   9.464  11.233
47878SOL    HW145531   7.022   9.493  11.264
47878SOL    HW245532   6.911   9.528  11.167
47879SOL     OW45533  13.809   5.395   5.282
47879SOL    HW145534  13.728   5.355   5.252
47879SOL    HW245535  13.785   5.484   5.306
47880SOL     OW45536   9.227   0.076  12.902
47880SOL    HW145537   9.282   0.009  12.863
47880SOL    HW245538   9.159   0.093  12.837
47881SOL     OW45539  11.315   3.411   9.975
47881SOL    HW145540  11.257   3.455   9.911
47881SOL    HW245541  11.352   3.338   9.927
47882SOL     OW45542  14.400   3.169  14.434
47882SOL    HW145543  14.422   3.106  14.503
47882SOL    HW245544  14.371   3.247  14.482
47883SOL     OW45545   5.204   0.197   9.719
47883SOL    HW145546   5.299   0.209   9.716
47883SOL    HW245547   5.191   0.122   9.777
47884SOL     OW45548   9.672   0.802  11.792
47884SOL    HW145549   9.698   0.874  11.735
47884SOL    HW245550   9.694   0.723  11.741
47885SOL     OW45551   2.071  11.642  12.981
47885SOL    HW145552   2.003  11.678  13.039
47885SOL    HW245553   2.142  11.617  13.040
47886SOL     OW45554   2.417   3.410   9.696
47886SOL    HW145555   2.413   3.317   9.716
47886SOL    HW245556   2.477   3.417   9.622
47887SOL     OW45557  14.233  10.052   7.347
47887SOL    HW145558  14.183   9.977   7.316
47887SOL    HW245559  14.186  10.083   7.423
47888SOL     OW45560   8.110   1.192   4.337
47888SOL    HW145561   8.103   1.194   4.242
47888SOL    HW245562   8.165   1.116   4.356
47889SOL     OW45563   3.043  14.329  10.307
47889SOL    HW145564   3.078  14.382  10.378
47889SOL    HW245565   3.099  14.350  10.232
47890SOL     OW45566  11.495   2.967  13.256
47890SOL    HW145567  11.465   2.925  13.175
47890SOL    HW245568  11.414   2.984  13.305
47891SOL     OW45569  12.624   8.322  13.908
47891SOL    HW145570  12.664   8.349  13.825
47891SOL    HW245571  12.554   8.385  13.923
47892SOL     OW45572  12.525   6.830  10.440
47892SOL    HW145573  12.550   6.817  10.349
47892SOL    HW245574  12.573   6.763  10.489
47893SOL     OW45575  11.038  10.915  11.488
47893SOL    HW145576  10.952  10.875  11.475
47893SOL    HW245577  11.073  10.925  11.399
47894SOL     OW45578   8.820   8.180   4.451
47894SOL    HW145579   8.821   8.200   4.544
47894SOL    HW245580   8.761   8.105   4.443
47895SOL     OW45581   5.894   2.199   7.346
47895SOL    HW145582   5.941   2.122   7.380
47895SOL    HW245583   5.896   2.262   7.419
47896SOL     OW45584   2.321  14.486   4.925
47896SOL    HW145585   2.276  14.401   4.918
47896SOL    HW245586   2.367  14.495   4.842
47897SOL     OW45587   3.611   6.881  10.221
47897SOL    HW145588   3.675   6.822  10.262
47897SOL    HW245589   3.647   6.968  10.235
47898SOL     OW45590  14.756  12.161   9.688
47898SOL    HW145591  14.728  12.147   9.597
47898SOL    HW245592  14.735  12.253   9.705
47899SOL     OW45593   5.502   7.768  12.358
47899SOL    HW145594   5.475   7.679  12.337
47899SOL    HW245595   5.420   7.812  12.383
47900SOL     OW45596   5.575   0.118   3.841
47900SOL    HW145597   5.513   0.068   3.895
47900SOL    HW245598   5.660   0.079   3.860
47901SOL     OW45599   3.411  12.756   3.394
47901SOL    HW145600   3.473  12.797   3.453
47901SOL    HW245601   3.326  12.795   3.417
47902SOL     OW45602  14.262   9.963  13.664
47902SOL    HW145603  14.210   9.937  13.589
47902SOL    HW245604  14.346   9.990  13.627
47903SOL     OW45605   3.080   1.075  14.474
47903SOL    HW145606   3.063   0.985  14.500
47903SOL    HW245607   2.993   1.115  14.466
47904SOL     OW45608   1.232   9.623   4.668
47904SOL    HW145609   1.188   9.565   4.730
47904SOL    HW245610   1.323   9.593   4.668
47905SOL     OW45611   2.302   6.618   6.011
47905SOL    HW145612   2.221   6.598   5.963
47905SOL    HW245613   2.284   6.701   6.056
47906SOL     OW45614  14.818   3.860  11.527
47906SOL    HW145615  14.768   3.849  11.608
47906SOL    HW245616  14.877   3.784  11.524
47907SOL     OW45617  14.353   5.469   9.410
47907SOL    HW145618  14.371   5.550   9.458
47907SOL    HW245619  14.272   5.486   9.363
47908SOL     OW45620  10.733   2.959   0.165
47908SOL    HW145621  10.778   2.911   0.235
47908SOL    HW245622  10.682   2.891   0.119
47909SOL     OW45623   5.051  14.472  13.287
47909SOL    HW145624   5.092  14.521  13.215
47909SOL    HW245625   4.969  14.439  13.251
47910SOL     OW45626  14.341   0.372  14.777
47910SOL    HW145627  14.291   0.343  14.701
47910SOL    HW245628  14.364   0.291  14.822
47911SOL     OW45629   9.202  10.553   1.555
47911SOL    HW145630   9.195  10.577   1.648
47911SOL    HW245631   9.296  10.541   1.541
47912SOL     OW45632   5.174   2.013   7.273
47912SOL    HW145633   5.116   2.017   7.348
47912SOL    HW245634   5.168   1.923   7.241
47913SOL     OW45635  10.102   6.369   3.917
47913SOL    HW145636  10.197   6.363   3.907
47913SOL    HW245637  10.077   6.441   3.859
47914SOL     OW45638  12.920   5.015  14.204
47914SOL    HW145639  12.961   4.934  14.173
47914SOL    HW245640  12.851   5.032  14.140
47915SOL     OW45641  12.039  11.767  12.341
47915SOL    HW145642  12.114  11.789  12.396
47915SOL    HW245643  12.062  11.682  12.303
47916SOL     OW45644   0.382  13.812  12.402
47916SOL    HW145645   0.406  13.769  12.320
47916SOL    HW245646   0.424  13.898  12.397
47917SOL     OW45647   2.229  12.011   7.143
47917SOL    HW145648   2.151  11.983   7.191
47917SOL    HW245649   2.269  11.929   7.114
47918SOL     OW45650   3.305   1.027   8.845
47918SOL    HW145651   3.392   1.022   8.805
47918SOL    HW245652   3.287   0.938   8.874
47919SOL     OW45653   1.202   2.115   6.003
47919SOL    HW145654   1.165   2.074   6.081
47919SOL    HW245655   1.126   2.135   5.948
47920SOL     OW45656   4.967   8.430   9.139
47920SOL    HW145657   4.968   8.341   9.103
47920SOL    HW245658   5.054   8.465   9.118
47921SOL     OW45659   7.291   1.151  13.678
47921SOL    HW145660   7.327   1.152  13.767
47921SOL    HW245661   7.368   1.149  13.621
47922SOL     OW45662  10.789   6.522  10.460
47922SOL    HW145663  10.867   6.543  10.511
47922SOL    HW245664  10.823   6.497  10.374
47923SOL     OW45665   0.149   2.308  12.357
47923SOL    HW145666   0.075   2.249  12.373
47923SOL    HW245667   0.204   2.299  12.435
47924SOL     OW45668  14.869   0.029   9.825
47924SOL    HW145669   0.029   0.041   9.738
47924SOL    HW245670   0.027   0.100   9.878
47925SOL     OW45671   6.744  13.506   0.290
47925SOL    HW145672   6.821  13.552   0.322
47925SOL    HW245673   6.762  13.414   0.306
47926SOL     OW45674   0.129   3.946   9.837
47926SOL    HW145675   0.148   3.854   9.854
47926SOL    HW245676   0.144   3.990   9.920
47927SOL     OW45677  11.169   0.839  13.323
47927SOL    HW145678  11.161   0.834  13.419
47927SOL    HW245679  11.208   0.925  13.307
47928SOL     OW45680  14.746  14.800  11.092
47928SOL    HW145681  14.791  14.818  11.174
47928SOL    HW245682  14.654  14.788  11.117
47929SOL     OW45683  11.422   3.573   0.523
47929SOL    HW145684  11.351   3.528   0.569
47929SOL    HW245685  11.447   3.644   0.582
47930SOL     OW45686  12.742   9.684   7.703
47930SOL    HW145687  12.773   9.607   7.751
47930SOL    HW245688  12.750   9.659   7.611
47931SOL     OW45689  11.660   6.638  10.043
47931SOL    HW145690  11.624   6.561   9.998
47931SOL    HW245691  11.752   6.615  10.060
47932SOL     OW45692  14.369  10.062  14.059
47932SOL    HW145693  14.423  10.009  14.118
47932SOL    HW245694  14.327   9.998  14.002
47933SOL     OW45695  10.344  10.358  13.331
47933SOL    HW145696  10.278  10.416  13.368
47933SOL    HW245697  10.374  10.304  13.404
47934SOL     OW45698   8.258   0.263  14.718
47934SOL    HW145699   8.163   0.253  14.719
47934SOL    HW245700   8.291   0.173  14.710
47935SOL     OW45701   0.274  10.437   2.499
47935SOL    HW145702   0.199  10.405   2.450
47935SOL    HW245703   0.348  10.425   2.439
47936SOL     OW45704   6.418   7.125  13.105
47936SOL    HW145705   6.389   7.215  13.093
47936SOL    HW245706   6.412   7.110  13.199
47937SOL     OW45707  12.595   7.062   0.068
47937SOL    HW145708  12.517   7.007   0.060
47937SOL    HW245709  12.657   7.025   0.005
47938SOL     OW45710   8.196  12.093   9.892
47938SOL    HW145711   8.138  12.041   9.836
47938SOL    HW245712   8.148  12.103   9.974
47939SOL     OW45713   5.963  14.319   1.423
47939SOL    HW145714   5.951  14.274   1.339
47939SOL    HW245715   5.980  14.249   1.486
47940SOL     OW45716   8.867  14.684   6.699
47940SOL    HW145717   8.917  14.761   6.724
47940SOL    HW245718   8.805  14.716   6.633
47941SOL     OW45719  10.087  14.270   0.079
47941SOL    HW145720  10.113  14.179   0.062
47941SOL    HW245721  10.155  14.304   0.136
47942SOL     OW45722   9.616   7.263   4.653
47942SOL    HW145723   9.701   7.232   4.621
47942SOL    HW245724   9.553   7.232   4.588
47943SOL     OW45725   0.540  11.896  10.040
47943SOL    HW145726   0.461  11.848  10.065
47943SOL    HW245727   0.508  11.978  10.004
47944SOL     OW45728   4.290   1.245   4.749
47944SOL    HW145729   4.284   1.187   4.824
47944SOL    HW245730   4.375   1.288   4.758
47945SOL     OW45731   1.916   4.205   0.328
47945SOL    HW145732   1.934   4.236   0.239
47945SOL    HW245733   1.983   4.248   0.381
47946SOL     OW45734   7.247  10.632   2.437
47946SOL    HW145735   7.168  10.687   2.434
47946SOL    HW245736   7.228  10.560   2.376
47947SOL     OW45737   5.589   9.342   4.535
47947SOL    HW145738   5.580   9.316   4.443
47947SOL    HW245739   5.505   9.383   4.557
47948SOL     OW45740   6.847   5.997   2.900
47948SOL    HW145741   6.850   6.082   2.943
47948SOL    HW245742   6.858   5.934   2.971
47949SOL     OW45743   6.764   2.164  12.942
47949SOL    HW145744   6.837   2.197  12.994
47949SOL    HW245745   6.762   2.222  12.865
47950SOL     OW45746  14.029   9.488   5.113
47950SOL    HW145747  14.019   9.544   5.190
47950SOL    HW245748  14.116   9.511   5.079
47951SOL     OW45749  13.624  11.179   7.153
47951SOL    HW145750  13.643  11.260   7.201
47951SOL    HW245751  13.547  11.143   7.195
47952SOL     OW45752  12.532  10.252  14.317
47952SOL    HW145753  12.534  10.272  14.410
47952SOL    HW245754  12.604  10.303  14.280
47953SOL     OW45755   9.981   9.513  10.838
47953SOL    HW145756  10.052   9.452  10.819
47953SOL    HW245757   9.902   9.460  10.836
47954SOL     OW45758  13.631   1.687   3.517
47954SOL    HW145759  13.600   1.628   3.448
47954SOL    HW245760  13.705   1.733   3.477
47955SOL     OW45761  10.232  13.821   3.983
47955SOL    HW145762  10.178  13.797   4.059
47955SOL    HW245763  10.223  13.916   3.977
47956SOL     OW45764   2.123  12.538   1.295
47956SOL    HW145765   2.078  12.539   1.379
47956SOL    HW245766   2.060  12.573   1.233
47957SOL     OW45767   1.101   9.729   0.382
47957SOL    HW145768   1.104   9.634   0.376
47957SOL    HW245769   1.114   9.759   0.292
47958SOL     OW45770  14.863  12.356   9.439
47958SOL    HW145771  14.772  12.332   9.420
47958SOL    HW245772  14.860  12.450   9.455
47959SOL     OW45773   6.604   3.266   8.200
47959SOL    HW145774   6.606   3.297   8.290
47959SOL    HW245775   6.657   3.186   8.200
47960SOL     OW45776  10.573   4.611  12.623
47960SOL    HW145777  10.632   4.592  12.551
47960SOL    HW245778  10.508   4.671  12.586
47961SOL     OW45779   7.864  14.597   7.749
47961SOL    HW145780   7.949  14.623   7.784
47961SOL    HW245781   7.875  14.598   7.654
47962SOL     OW45782   9.187  11.660   8.968
47962SOL    HW145783   9.153  11.739   9.010
47962SOL    HW245784   9.204  11.600   9.040
47963SOL     OW45785   3.798  14.125   0.719
47963SOL    HW145786   3.794  14.084   0.805
47963SOL    HW245787   3.855  14.068   0.668
47964SOL     OW45788   7.692   0.188  12.724
47964SOL    HW145789   7.682   0.093  12.729
47964SOL    HW245790   7.756   0.202  12.654
47965SOL     OW45791  13.544  10.361  13.985
47965SOL    HW145792  13.593  10.283  14.012
47965SOL    HW245793  13.483  10.329  13.919
47966SOL     OW45794   1.874  12.774   7.521
47966SOL    HW145795   1.870  12.689   7.564
47966SOL    HW245796   1.782  12.798   7.508
47967SOL     OW45797   7.472   9.572  14.299
47967SOL    HW145798   7.430   9.657  14.314
47967SOL    HW245799   7.402   9.508  14.310
47968SOL     OW45800  11.046   8.585   8.405
47968SOL    HW145801  11.060   8.546   8.319
47968SOL    HW245802  11.071   8.516   8.467
47969SOL     OW45803  12.430   8.706   7.306
47969SOL    HW145804  12.399   8.699   7.397
47969SOL    HW245805  12.484   8.785   7.305
47970SOL     OW45806   2.592   3.571   4.664
47970SOL    HW145807   2.631   3.589   4.579
47970SOL    HW245808   2.505   3.537   4.645
47971SOL     OW45809   6.608  13.817   3.470
47971SOL    HW145810   6.589  13.841   3.561
47971SOL    HW245811   6.693  13.856   3.451
47972SOL     OW45812  13.760   0.108   2.226
47972SOL    HW145813  13.840   0.155   2.249
47972SOL    HW245814  13.731   0.151   2.145
47973SOL     OW45815   7.604  11.247   3.260
47973SOL    HW145816   7.514  11.259   3.229
47973SOL    HW245817   7.658  11.263   3.183
47974SOL     OW45818  14.140   6.406   3.275
47974SOL    HW145819  14.077   6.341   3.244
47974SOL    HW245820  14.129   6.481   3.216
47975SOL     OW45821  11.877   3.747  13.263
47975SOL    HW145822  11.909   3.676  13.207
47975SOL    HW245823  11.827   3.703  13.332
47976SOL     OW45824   7.059   0.461   6.241
47976SOL    HW145825   7.047   0.554   6.219
47976SOL    HW245826   7.098   0.422   6.163
47977SOL     OW45827   4.039   2.165   9.131
47977SOL    HW145828   4.105   2.153   9.200
47977SOL    HW245829   4.082   2.133   9.051
47978SOL     OW45830   1.925   3.760   0.758
47978SOL    HW145831   2.001   3.702   0.764
47978SOL    HW245832   1.882   3.735   0.676
47979SOL     OW45833  10.938  12.748   4.384
47979SOL    HW145834  10.990  12.682   4.429
47979SOL    HW245835  10.847  12.720   4.397
47980SOL     OW45836   8.293  10.801  12.061
47980SOL    HW145837   8.241  10.721  12.047
47980SOL    HW245838   8.288  10.847  11.977
47981SOL     OW45839   9.186   0.021  11.223
47981SOL    HW145840   9.116   0.069  11.178
47981SOL    HW245841   9.216  14.836  11.159
47982SOL     OW45842   3.266   5.128   7.302
47982SOL    HW145843   3.294   5.153   7.214
47982SOL    HW245844   3.261   5.211   7.350
47983SOL     OW45845   4.030  13.966   9.180
47983SOL    HW145846   4.031  14.053   9.141
47983SOL    HW245847   4.122  13.947   9.198
47984SOL     OW45848   2.921  10.675   2.478
47984SOL    HW145849   2.830  10.691   2.505
47984SOL    HW245850   2.972  10.742   2.526
47985SOL     OW45851  13.441   9.606   3.485
47985SOL    HW145852  13.456   9.513   3.505
47985SOL    HW245853  13.478   9.653   3.560
47986SOL     OW45854  11.505  10.425  14.012
47986SOL    HW145855  11.528  10.518  14.008
47986SOL    HW245856  11.586  10.379  13.990
47987SOL     OW45857   5.227  10.538   0.011
47987SOL    HW145858   5.264  10.454   0.037
47987SOL    HW245859   5.203  10.580   0.093
47988SOL     OW45860   2.031  14.178  14.808
47988SOL    HW145861   1.985  14.255  14.840
47988SOL    HW245862   1.962  14.122  14.771
47989SOL     OW45863   1.035   7.915  10.900
47989SOL    HW145864   1.034   7.867  10.983
47989SOL    HW245865   1.125   7.947  10.892
47990SOL     OW45866  10.975   1.674  12.878
47990SOL    HW145867  10.945   1.657  12.789
47990SOL    HW245868  11.058   1.627  12.885
47991SOL     OW45869   3.159   6.875   9.778
47991SOL    HW145870   3.181   6.951   9.725
47991SOL    HW245871   3.073   6.895   9.815
47992SOL     OW45872  11.438   0.677   1.289
47992SOL    HW145873  11.460   0.585   1.279
47992SOL    HW245874  11.522   0.720   1.308
47993SOL     OW45875   2.641  12.491   1.045
47993SOL    HW145876   2.595  12.574   1.045
47993SOL    HW245877   2.667  12.478   1.136
47994SOL     OW45878   7.937   4.499   5.442
47994SOL    HW145879   7.925   4.517   5.535
47994SOL    HW245880   7.910   4.580   5.399
47995SOL     OW45881  14.864   1.724   3.677
47995SOL    HW145882  14.803   1.769   3.736
47995SOL    HW245883   0.066   1.772   3.687
47996SOL     OW45884   2.858   6.889   7.838
47996SOL    HW145885   2.827   6.872   7.927
47996SOL    HW245886   2.784   6.932   7.795
47997SOL     OW45887   4.941   7.022   7.754
47997SOL    HW145888   4.855   7.016   7.713
47997SOL    HW245889   4.964   6.932   7.777
47998SOL     OW45890  11.123  13.667   8.048
47998SOL    HW145891  11.122  13.582   8.005
47998SOL    HW245892  11.044  13.667   8.103
47999SOL     OW45893   4.612   8.708  12.035
47999SOL    HW145894   4.675   8.661  11.980
47999SOL    HW245895   4.654   8.713  12.121
48000SOL     OW45896  11.028   4.099  10.180
48000SOL    HW145897  11.049   4.175  10.125
48000SOL    HW245898  10.982   4.039  10.121
48001SOL     OW45899   7.443  14.306   5.158
48001SOL    HW145900   7.522  14.306   5.212
48001SOL    HW245901   7.384  14.368   5.202
48002SOL     OW45902  11.611   7.296   9.381
48002SOL    HW145903  11.582   7.295   9.290
48002SOL    HW245904  11.576   7.378   9.417
48003SOL     OW45905  10.612  12.086  10.944
48003SOL    HW145906  10.621  12.019  11.012
48003SOL    HW245907  10.544  12.051  10.886
48004SOL     OW45908   4.679  12.592   6.037
48004SOL    HW145909   4.594  12.568   6.000
48004SOL    HW245910   4.675  12.687   6.046
48005SOL     OW45911   1.796   1.367   3.454
48005SOL    HW145912   1.730   1.436   3.456
48005SOL    HW245913   1.786   1.327   3.368
48006SOL     OW45914   8.705   1.259  11.827
48006SOL    HW145915   8.719   1.353  11.818
48006SOL    HW245916   8.708   1.226  11.737
48007SOL     OW45917   4.861   3.316   4.366
48007SOL    HW145918   4.828   3.314   4.276
48007SOL    HW245919   4.851   3.227   4.398
48008SOL     OW45920   3.605   5.481  13.391
48008SOL    HW145921   3.686   5.436  13.416
48008SOL    HW245922   3.541   5.410  13.383
48009SOL     OW45923   0.965  11.379   1.332
48009SOL    HW145924   1.038  11.363   1.272
48009SOL    HW245925   0.943  11.293   1.368
48010SOL     OW45926   6.320  14.228   6.541
48010SOL    HW145927   6.231  14.206   6.569
48010SOL    HW245928   6.362  14.267   6.617
48011SOL     OW45929   2.676  10.310  13.061
48011SOL    HW145930   2.743  10.242  13.070
48011SOL    HW245931   2.620  10.278  12.990
48012SOL     OW45932   1.481   8.267   2.265
48012SOL    HW145933   1.464   8.348   2.313
48012SOL    HW245934   1.572   8.276   2.236
48013SOL     OW45935   8.228   5.871   7.295
48013SOL    HW145936   8.272   5.948   7.258
48013SOL    HW245937   8.295   5.803   7.295
48014SOL     OW45938  11.956   8.429   0.372
48014SOL    HW145939  11.889   8.370   0.339
48014SOL    HW245940  12.035   8.407   0.322
48015SOL     OW45941   9.723   0.408   5.713
48015SOL    HW145942   9.749   0.341   5.649
48015SOL    HW245943   9.722   0.489   5.663
48016SOL     OW45944   6.066   5.804  11.831
48016SOL    HW145945   6.117   5.775  11.906
48016SOL    HW245946   6.079   5.898  11.827
48017SOL     OW45947  11.296   5.292   3.175
48017SOL    HW145948  11.302   5.321   3.266
48017SOL    HW245949  11.302   5.197   3.180
48018SOL     OW45950   9.721  12.098   6.723
48018SOL    HW145951   9.815  12.089   6.736
48018SOL    HW245952   9.685  12.013   6.748
48019SOL     OW45953  13.863   6.807   0.141
48019SOL    HW145954  13.809   6.832   0.067
48019SOL    HW245955  13.840   6.716   0.159
48020SOL     OW45956   5.696   5.805   3.688
48020SOL    HW145957   5.728   5.805   3.778
48020SOL    HW245958   5.691   5.712   3.665
48021SOL     OW45959   6.023  12.339  10.064
48021SOL    HW145960   6.074  12.290  10.129
48021SOL    HW245961   5.932  12.323  10.088
48022SOL     OW45962   9.453   7.604   6.012
48022SOL    HW145963   9.378   7.629   5.957
48022SOL    HW245964   9.414   7.587   6.098
48023SOL     OW45965   9.987   2.572   8.366
48023SOL    HW145966   9.897   2.548   8.389
48023SOL    HW245967   9.991   2.561   8.271
48024SOL     OW45968   4.314   1.912   3.935
48024SOL    HW145969   4.320   2.001   3.902
48024SOL    HW245970   4.239   1.874   3.890
48025SOL     OW45971  10.660   2.834   3.675
48025SOL    HW145972  10.659   2.821   3.580
48025SOL    HW245973  10.749   2.863   3.695
48026SOL     OW45974   6.804   3.001   0.833
48026SOL    HW145975   6.790   3.002   0.739
48026SOL    HW245976   6.898   3.015   0.843
48027SOL     OW45977  14.722   3.320   8.807
48027SOL    HW145978  14.736   3.344   8.715
48027SOL    HW245979  14.805   3.341   8.850
48028SOL     OW45980   4.127  11.310   0.050
48028SOL    HW145981   4.071  11.243   0.090
48028SOL    HW245982   4.135  11.283  14.838
48029SOL     OW45983   9.581   2.500   2.767
48029SOL    HW145984   9.580   2.499   2.863
48029SOL    HW245985   9.499   2.457   2.741
48030SOL     OW45986  13.847   4.376   4.164
48030SOL    HW145987  13.775   4.434   4.139
48030SOL    HW245988  13.925   4.432   4.161
48031SOL     OW45989   2.063   6.789  14.727
48031SOL    HW145990   2.136   6.831  14.681
48031SOL    HW245991   2.049   6.706  14.680
48032SOL     OW45992   3.490   7.513   7.565
48032SOL    HW145993   3.568   7.506   7.619
48032SOL    HW245994   3.446   7.428   7.575
48033SOL     OW45995  12.752   2.792   1.241
48033SOL    HW145996  12.827   2.760   1.192
48033SOL    HW245997  12.783   2.873   1.283
48034SOL     OW45998  12.142   9.171   0.140
48034SOL    HW145999  12.082   9.226   0.191
48034SOL    HW246000  12.149   9.216   0.055
48035SOL     OW46001   6.664   8.314  14.513
48035SOL    HW146002   6.697   8.293  14.600
48035SOL    HW246003   6.719   8.263  14.453
48036SOL     OW46004   4.098   3.754   1.168
48036SOL    HW146005   4.163   3.684   1.169
48036SOL    HW246006   4.142   3.828   1.128
48037SOL     OW46007   9.998  10.876   3.436
48037SOL    HW146008   9.949  10.878   3.518
48037SOL    HW246009  10.088  10.899   3.461
48038SOL     OW46010   4.024   8.162  13.774
48038SOL    HW146011   4.052   8.091  13.716
48038SOL    HW246012   4.019   8.121  13.861
48039SOL     OW46013   2.784   9.079  13.304
48039SOL    HW146014   2.741   9.032  13.233
48039SOL    HW246015   2.744   9.166  13.304
48040SOL     OW46016  11.686   4.252   4.257
48040SOL    HW146017  11.710   4.333   4.211
48040SOL    HW246018  11.657   4.193   4.188
48041SOL     OW46019   1.945   2.516   2.918
48041SOL    HW146020   1.960   2.449   2.984
48041SOL    HW246021   2.033   2.543   2.890
48042SOL     OW46022   0.042  11.376   2.229
48042SOL    HW146023  14.867  11.452   2.210
48042SOL    HW246024   0.130  11.413   2.241
48043SOL     OW46025  12.907   0.397  13.159
48043SOL    HW146026  12.981   0.457  13.156
48043SOL    HW246027  12.914   0.345  13.079
48044SOL     OW46028   6.809  13.011  14.251
48044SOL    HW146029   6.853  12.986  14.332
48044SOL    HW246030   6.818  12.935  14.193
48045SOL     OW46031   1.557   5.340   0.034
48045SOL    HW146032   1.496   5.412   0.017
48045SOL    HW246033   1.616   5.373   0.101
48046SOL     OW46034  11.221  11.124   8.838
48046SOL    HW146035  11.157  11.057   8.814
48046SOL    HW246036  11.211  11.191   8.770
48047SOL     OW46037  10.205  11.498   7.293
48047SOL    HW146038  10.283  11.540   7.328
48047SOL    HW246039  10.206  11.410   7.331
48048SOL     OW46040   8.474  12.197  13.588
48048SOL    HW146041   8.459  12.263  13.656
48048SOL    HW246042   8.436  12.117  13.624
48049SOL     OW46043  12.362   5.106   6.276
48049SOL    HW146044  12.333   5.145   6.359
48049SOL    HW246045  12.456   5.092   6.288
48050SOL     OW46046   7.165   2.296   4.557
48050SOL    HW146047   7.131   2.213   4.522
48050SOL    HW246048   7.219   2.331   4.486
48051SOL     OW46049   4.721   5.988   6.097
48051SOL    HW146050   4.682   6.054   6.155
48051SOL    HW246051   4.802   5.963   6.140
48052SOL     OW46052   8.236  13.928   1.216
48052SOL    HW146053   8.193  13.864   1.160
48052SOL    HW246054   8.226  14.011   1.169
48053SOL     OW46055   9.792  10.925  11.355
48053SOL    HW146056   9.855  10.947  11.424
48053SOL    HW246057   9.712  10.903  11.403
48054SOL     OW46058   4.267   5.145  11.547
48054SOL    HW146059   4.270   5.059  11.590
48054SOL    HW246060   4.196   5.137  11.484
48055SOL     OW46061  10.230   7.589   6.527
48055SOL    HW146062  10.145   7.621   6.556
48055SOL    HW246063  10.219   7.494   6.520
48056SOL     OW46064   7.762   3.266   5.518
48056SOL    HW146065   7.741   3.245   5.609
48056SOL    HW246066   7.760   3.361   5.514
48057SOL     OW46067   5.864  13.787  10.840
48057SOL    HW146068   5.894  13.829  10.759
48057SOL    HW246069   5.897  13.698  10.835
48058SOL     OW46070  10.128   5.941  14.505
48058SOL    HW146071  10.182   5.978  14.574
48058SOL    HW246072  10.124   6.009  14.438
48059SOL     OW46073   0.134   8.653   1.213
48059SOL    HW146074   0.144   8.748   1.216
48059SOL    HW246075   0.042   8.639   1.193
48060SOL     OW46076  11.014   7.662  11.188
48060SOL    HW146077  10.946   7.595  11.196
48060SOL    HW246078  10.981   7.723  11.123
48061SOL     OW46079   2.374   9.275   5.526
48061SOL    HW146080   2.337   9.261   5.614
48061SOL    HW246081   2.457   9.228   5.528
48062SOL     OW46082   8.538  11.751   0.959
48062SOL    HW146083   8.555  11.721   1.048
48062SOL    HW246084   8.606  11.710   0.906
48063SOL     OW46085   4.483  10.443   7.554
48063SOL    HW146086   4.493  10.533   7.585
48063SOL    HW246087   4.487  10.449   7.459
48064SOL     OW46088   2.618  14.217  13.885
48064SOL    HW146089   2.712  14.228  13.868
48064SOL    HW246090   2.605  14.122  13.885
48065SOL     OW46091  14.157   5.385  11.746
48065SOL    HW146092  14.230   5.446  11.736
48065SOL    HW246093  14.164   5.327  11.670
48066SOL     OW46094   2.741  14.869   2.194
48066SOL    HW146095   2.808  14.833   2.253
48066SOL    HW246096   2.789   0.051   2.139
48067SOL     OW46097   6.569   0.354  13.825
48067SOL    HW146098   6.530   0.308  13.751
48067SOL    HW246099   6.495   0.387  13.876
48068SOL     OW46100   7.977  13.906  11.084
48068SOL    HW146101   7.918  13.924  11.157
48068SOL    HW246102   8.058  13.952  11.106
48069SOL     OW46103   0.163   1.548   8.900
48069SOL    HW146104   0.252   1.531   8.871
48069SOL    HW246105   0.134   1.466   8.940
48070SOL     OW46106  14.368  12.969   9.914
48070SOL    HW146107  14.422  12.895   9.887
48070SOL    HW246108  14.282  12.930   9.931
48071SOL     OW46109   9.544   2.700   7.637
48071SOL    HW146110   9.635   2.715   7.662
48071SOL    HW246111   9.537   2.605   7.629
48072SOL     OW46112  10.671  14.526  12.996
48072SOL    HW146113  10.677  14.618  12.972
48072SOL    HW246114  10.580  14.513  13.022
48073SOL     OW46115  13.359  11.656   4.771
48073SOL    HW146116  13.370  11.621   4.682
48073SOL    HW246117  13.426  11.724   4.778
48074SOL     OW46118  11.069   6.768   8.529
48074SOL    HW146119  10.974   6.766   8.516
48074SOL    HW246120  11.089   6.684   8.570
48075SOL     OW46121  13.736   2.812  14.126
48075SOL    HW146122  13.730   2.906  14.107
48075SOL    HW246123  13.754   2.808  14.220
48076SOL     OW46124   0.711  14.081  12.223
48076SOL    HW146125   0.737  14.170  12.200
48076SOL    HW246126   0.727  14.030  12.143
48077SOL     OW46127  11.885  10.580  10.728
48077SOL    HW146128  11.829  10.522  10.676
48077SOL    HW246129  11.971  10.572  10.687
48078SOL     OW46130   7.657   0.443   1.252
48078SOL    HW146131   7.613   0.389   1.316
48078SOL    HW246132   7.693   0.517   1.302
48079SOL     OW46133   0.378  13.619   5.178
48079SOL    HW146134   0.368  13.559   5.252
48079SOL    HW246135   0.315  13.586   5.113
48080SOL     OW46136   8.536  11.163   4.283
48080SOL    HW146137   8.590  11.206   4.350
48080SOL    HW246138   8.572  11.195   4.200
48081SOL     OW46139   5.411   1.862   8.638
48081SOL    HW146140   5.447   1.916   8.709
48081SOL    HW246141   5.480   1.858   8.573
48082SOL     OW46142   3.587   6.684  14.479
48082SOL    HW146143   3.677   6.662  14.454
48082SOL    HW246144   3.561   6.752  14.417
48083SOL     OW46145   7.540   5.758   9.403
48083SOL    HW146146   7.512   5.669   9.381
48083SOL    HW246147   7.561   5.798   9.318
48084SOL     OW46148   0.746  11.825  10.907
48084SOL    HW146149   0.779  11.912  10.930
48084SOL    HW246150   0.798  11.798  10.832
48085SOL     OW46151  10.019  14.342   9.154
48085SOL    HW146152   9.991  14.336   9.063
48085SOL    HW246153   9.964  14.279   9.201
48086SOL     OW46154  13.368   4.483   7.000
48086SOL    HW146155  13.377   4.403   6.948
48086SOL    HW246156  13.378   4.554   6.935
48087SOL     OW46157   4.635   6.678   1.409
48087SOL    HW146158   4.631   6.755   1.466
48087SOL    HW246159   4.663   6.713   1.324
48088SOL     OW46160   2.879  14.292   4.626
48088SOL    HW146161   2.926  14.309   4.708
48088SOL    HW246162   2.909  14.206   4.598
48089SOL     OW46163   4.121   1.458   1.985
48089SOL    HW146164   4.149   1.550   1.996
48089SOL    HW246165   4.028   1.464   1.967
48090SOL     OW46166   3.889   1.936   3.770
48090SOL    HW146167   3.814   1.906   3.820
48090SOL    HW246168   3.891   2.031   3.785
48091SOL     OW46169   8.136   6.247  12.947
48091SOL    HW146170   8.181   6.173  12.988
48091SOL    HW246171   8.205   6.296  12.904
48092SOL     OW46172  14.764  12.703   9.150
48092SOL    HW146173  14.685  12.655   9.124
48092SOL    HW246174  14.761  12.783   9.098
48093SOL     OW46175  12.990  11.357  12.646
48093SOL    HW146176  13.018  11.290  12.584
48093SOL    HW246177  13.064  11.369  12.705
48094SOL     OW46178   7.386   2.877   1.884
48094SOL    HW146179   7.328   2.906   1.954
48094SOL    HW246180   7.461   2.838   1.929
48095SOL     OW46181   0.290  13.756   3.574
48095SOL    HW146182   0.376  13.733   3.610
48095SOL    HW246183   0.276  13.846   3.601
48096SOL     OW46184  11.470  12.320   0.661
48096SOL    HW146185  11.453  12.231   0.630
48096SOL    HW246186  11.564  12.322   0.676
48097SOL     OW46187   9.960   2.712  12.348
48097SOL    HW146188   9.959   2.769  12.272
48097SOL    HW246189   9.969   2.623  12.312
48098SOL     OW46190   3.382  10.982   5.090
48098SOL    HW146191   3.412  11.057   5.142
48098SOL    HW246192   3.301  10.955   5.131
48099SOL     OW46193  13.589   5.942   9.108
48099SOL    HW146194  13.627   5.889   9.038
48099SOL    HW246195  13.646   6.019   9.113
48100SOL     OW46196   6.985   5.059   7.064
48100SOL    HW146197   7.056   5.065   7.129
48100SOL    HW246198   6.987   5.143   7.020
48101SOL     OW46199   4.588   6.340   0.865
48101SOL    HW146200   4.663   6.379   0.821
48101SOL    HW246201   4.516   6.347   0.802
48102SOL     OW46202   2.752  12.220  14.354
48102SOL    HW146203   2.657  12.213  14.350
48102SOL    HW246204   2.783  12.172  14.276
48103SOL     OW46205   3.157  10.600   8.104
48103SOL    HW146206   3.074  10.624   8.147
48103SOL    HW246207   3.131  10.567   8.019
48104SOL     OW46208   8.129   4.590   7.356
48104SOL    HW146209   8.216   4.614   7.322
48104SOL    HW246210   8.072   4.597   7.279
48105SOL     OW46211   3.429  14.438  10.993
48105SOL    HW146212   3.442  14.385  11.071
48105SOL    HW246213   3.334  14.446  10.985
48106SOL     OW46214  14.074   5.867   9.093
48106SOL    HW146215  14.075   5.786   9.041
48106SOL    HW246216  14.153   5.861   9.147
48107SOL     OW46217  11.177   5.920   2.866
48107SOL    HW146218  11.136   5.865   2.933
48107SOL    HW246219  11.184   6.007   2.907
48108SOL     OW46220   1.186   7.335   1.168
48108SOL    HW146221   1.208   7.408   1.226
48108SOL    HW246222   1.108   7.365   1.122
48109SOL     OW46223   3.093   8.509  11.085
48109SOL    HW146224   3.052   8.424  11.070
48109SOL    HW246225   3.176   8.488  11.128
48110SOL     OW46226   4.631  11.031  10.266
48110SOL    HW146227   4.624  11.066  10.178
48110SOL    HW246228   4.592  10.944  10.261
48111SOL     OW46229   3.329   4.602   8.821
48111SOL    HW146230   3.402   4.545   8.845
48111SOL    HW246231   3.369   4.688   8.808
48112SOL     OW46232   4.917  12.060   2.288
48112SOL    HW146233   4.991  12.102   2.244
48112SOL    HW246234   4.946  12.047   2.378
48113SOL     OW46235   1.903   0.415  13.254
48113SOL    HW146236   1.974   0.444  13.311
48113SOL    HW246237   1.823   0.432  13.305
48114SOL     OW46238   0.115   8.083  10.413
48114SOL    HW146239   0.078   8.001  10.447
48114SOL    HW246240   0.149   8.127  10.491
48115SOL     OW46241   7.422  13.866   6.922
48115SOL    HW146242   7.404  13.855   7.016
48115SOL    HW246243   7.502  13.816   6.907
48116SOL     OW46244   4.448   4.040  13.143
48116SOL    HW146245   4.412   4.034  13.231
48116SOL    HW246246   4.460   3.948  13.117
48117SOL     OW46247   5.179  10.109   0.369
48117SOL    HW146248   5.137  10.026   0.391
48117SOL    HW246249   5.123  10.176   0.408
48118SOL     OW46250   9.141  14.520   1.818
48118SOL    HW146251   9.210  14.565   1.866
48118SOL    HW246252   9.115  14.448   1.875
48119SOL     OW46253  12.422   5.575   3.164
48119SOL    HW146254  12.478   5.639   3.208
48119SOL    HW246255  12.460   5.567   3.076
48120SOL     OW46256  13.780   5.041   2.317
48120SOL    HW146257  13.813   5.075   2.400
48120SOL    HW246258  13.849   4.983   2.285
48121SOL     OW46259   0.277   9.729  10.380
48121SOL    HW146260   0.318   9.745  10.295
48121SOL    HW246261   0.345   9.748  10.444
48122SOL     OW46262   4.089   8.515  12.619
48122SOL    HW146263   4.054   8.482  12.701
48122SOL    HW246264   4.099   8.438  12.564
48123SOL     OW46265   5.357   8.999  11.700
48123SOL    HW146266   5.409   8.987  11.780
48123SOL    HW246267   5.304   8.920  11.695
48124SOL     OW46268   9.050   1.705   6.441
48124SOL    HW146269   9.097   1.689   6.359
48124SOL    HW246270   9.112   1.679   6.509
48125SOL     OW46271   9.037   6.853   6.637
48125SOL    HW146272   9.100   6.903   6.689
48125SOL    HW246273   8.957   6.905   6.640
48126SOL     OW46274   4.768   3.228   3.453
48126SOL    HW146275   4.688   3.249   3.502
48126SOL    HW246276   4.791   3.308   3.408
48127SOL     OW46277   7.507   9.832   1.851
48127SOL    HW146278   7.507   9.903   1.915
48127SOL    HW246279   7.505   9.875   1.766
48128SOL     OW46280  12.046   2.192   6.881
48128SOL    HW146281  12.003   2.250   6.818
48128SOL    HW246282  11.975   2.161   6.937
48129SOL     OW46283   4.929  11.614   0.344
48129SOL    HW146284   4.881  11.643   0.422
48129SOL    HW246285   5.008  11.573   0.379
48130SOL     OW46286  11.563   7.588   9.726
48130SOL    HW146287  11.658   7.597   9.734
48130SOL    HW246288  11.538   7.528   9.797
48131SOL     OW46289   8.937   6.937   1.027
48131SOL    HW146290   8.907   7.014   1.075
48131SOL    HW246291   8.860   6.909   0.977
48132SOL     OW46292  11.957   7.721   5.330
48132SOL    HW146293  11.927   7.686   5.247
48132SOL    HW246294  11.937   7.815   5.325
48133SOL     OW46295   4.290  10.426   5.489
48133SOL    HW146296   4.313  10.373   5.413
48133SOL    HW246297   4.373  10.442   5.534
48134SOL     OW46298  14.049   8.173   3.870
48134SOL    HW146299  14.134   8.165   3.912
48134SOL    HW246300  13.993   8.213   3.936
48135SOL     OW46301   5.884   1.688  11.054
48135SOL    HW146302   5.964   1.738  11.069
48135SOL    HW246303   5.843   1.731  10.979
48136SOL     OW46304   3.066   9.746   6.444
48136SOL    HW146305   3.059   9.689   6.521
48136SOL    HW246306   3.027   9.829   6.472
48137SOL     OW46307   7.635   0.043  13.413
48137SOL    HW146308   7.576   0.103  13.460
48137SOL    HW246309   7.716   0.045  13.462
48138SOL     OW46310  12.406  13.349  10.162
48138SOL    HW146311  12.315  13.327  10.181
48138SOL    HW246312  12.446  13.361  10.247
48139SOL     OW46313   3.919  10.339   2.234
48139SOL    HW146314   3.924  10.298   2.321
48139SOL    HW246315   3.825  10.339   2.213
48140SOL     OW46316   6.144   1.484  11.055
48140SOL    HW146317   6.062   1.475  11.104
48140SOL    HW246318   6.212   1.485  11.122
48141SOL     OW46319   4.451  12.608   6.391
48141SOL    HW146320   4.393  12.545   6.433
48141SOL    HW246321   4.533  12.561   6.376
48142SOL     OW46322   2.515   8.974   1.290
48142SOL    HW146323   2.595   9.017   1.262
48142SOL    HW246324   2.521   8.885   1.254
48143SOL     OW46325  10.361   6.712  10.058
48143SOL    HW146326  10.348   6.698   9.964
48143SOL    HW246327  10.447   6.676  10.076
48144SOL     OW46328  11.881   0.868  12.137
48144SOL    HW146329  11.895   0.929  12.208
48144SOL    HW246330  11.787   0.873  12.119
48145SOL     OW46331   1.648   6.225   6.449
48145SOL    HW146332   1.689   6.185   6.373
48145SOL    HW246333   1.557   6.239   6.423
48146SOL     OW46334   5.826  13.676   3.354
48146SOL    HW146335   5.898  13.714   3.304
48146SOL    HW246336   5.866  13.602   3.400
48147SOL     OW46337   0.694   2.413   3.082
48147SOL    HW146338   0.737   2.348   3.027
48147SOL    HW246339   0.703   2.380   3.171
48148SOL     OW46340  14.193  11.049  10.022
48148SOL    HW146341  14.185  11.031  10.116
48148SOL    HW246342  14.192  11.144  10.016
48149SOL     OW46343   1.573   7.544   5.172
48149SOL    HW146344   1.498   7.494   5.139
48149SOL    HW246345   1.616   7.485   5.233
48150SOL     OW46346   9.541   3.144   6.015
48150SOL    HW146347   9.584   3.131   5.931
48150SOL    HW246348   9.554   3.237   6.035
48151SOL     OW46349   7.873   7.800  13.602
48151SOL    HW146350   7.840   7.746  13.530
48151SOL    HW246351   7.961   7.766  13.619
48152SOL     OW46352   6.457   6.392  12.098
48152SOL    HW146353   6.481   6.349  12.016
48152SOL    HW246354   6.532   6.376  12.156
48153SOL     OW46355   8.268  11.208  10.204
48153SOL    HW146356   8.175  11.186  10.195
48153SOL    HW246357   8.313  11.125  10.188
48154SOL     OW46358   3.335   6.883  10.353
48154SOL    HW146359   3.421   6.895  10.392
48154SOL    HW246360   3.335   6.793  10.322
48155SOL     OW46361  11.568  11.518   9.666
48155SOL    HW146362  11.516  11.580   9.717
48155SOL    HW246363  11.552  11.543   9.575
48156SOL     OW46364   7.850   3.636   4.210
48156SOL    HW146365   7.933   3.681   4.222
48156SOL    HW246366   7.784   3.696   4.245
48157SOL     OW46367   2.309   2.780  13.410
48157SOL    HW146368   2.221   2.811  13.432
48157SOL    HW246369   2.295   2.692  13.375
48158SOL     OW46370  14.076  12.602   8.983
48158SOL    HW146371  14.143  12.535   8.972
48158SOL    HW246372  14.033  12.580   9.066
48159SOL     OW46373   8.131  10.141   9.030
48159SOL    HW146374   8.128  10.237   9.026
48159SOL    HW246375   8.165  10.114   8.945
48160SOL     OW46376  14.065   7.824  13.107
48160SOL    HW146377  14.154   7.820  13.142
48160SOL    HW246378  14.013   7.770  13.167
48161SOL     OW46379   7.278   7.544   4.247
48161SOL    HW146380   7.205   7.556   4.307
48161SOL    HW246381   7.300   7.633   4.217
48162SOL     OW46382   0.329  13.372   8.633
48162SOL    HW146383   0.352  13.383   8.725
48162SOL    HW246384   0.294  13.458   8.607
48163SOL     OW46385   0.606   6.031   5.204
48163SOL    HW146386   0.573   6.038   5.114
48163SOL    HW246387   0.667   5.957   5.201
48164SOL     OW46388   1.423  11.620   4.790
48164SOL    HW146389   1.382  11.650   4.870
48164SOL    HW246390   1.358  11.563   4.749
48165SOL     OW46391  12.034   8.043   6.786
48165SOL    HW146392  11.989   7.969   6.827
48165SOL    HW246393  12.084   8.083   6.857
48166SOL     OW46394   5.959   8.627   6.933
48166SOL    HW146395   6.040   8.650   6.886
48166SOL    HW246396   5.891   8.631   6.867
48167SOL     OW46397  13.935   9.001  10.334
48167SOL    HW146398  13.917   9.077  10.279
48167SOL    HW246399  14.031   8.995  10.336
48168SOL     OW46400   4.608   8.970   4.888
48168SOL    HW146401   4.612   8.913   4.811
48168SOL    HW246402   4.540   8.931   4.943
48169SOL     OW46403   9.290  11.839   1.050
48169SOL    HW146404   9.243  11.763   1.015
48169SOL    HW246405   9.240  11.863   1.128
48170SOL     OW46406   1.396   8.717  10.096
48170SOL    HW146407   1.451   8.746  10.169
48170SOL    HW246408   1.458   8.682  10.032
48171SOL     OW46409   9.652   1.691   6.133
48171SOL    HW146410   9.742   1.690   6.165
48171SOL    HW246411   9.652   1.755   6.062
48172SOL     OW46412  14.344   6.019  10.821
48172SOL    HW146413  14.305   6.071  10.750
48172SOL    HW246414  14.339   5.929  10.790
48173SOL     OW46415   5.753   6.362   6.650
48173SOL    HW146416   5.665   6.376   6.616
48173SOL    HW246417   5.811   6.405   6.586
48174SOL     OW46418  11.186  13.987   6.014
48174SOL    HW146419  11.242  13.917   6.049
48174SOL    HW246420  11.102  13.944   5.997
48175SOL     OW46421   7.891  13.866   9.610
48175SOL    HW146422   7.845  13.951   9.606
48175SOL    HW246423   7.980  13.886   9.582
48176SOL     OW46424   4.579  13.107   1.711
48176SOL    HW146425   4.544  13.168   1.776
48176SOL    HW246426   4.501  13.071   1.668
48177SOL     OW46427   3.177   8.392   8.961
48177SOL    HW146428   3.111   8.376   8.894
48177SOL    HW246429   3.239   8.453   8.919
48178SOL     OW46430   0.619   1.838  11.529
48178SOL    HW146431   0.594   1.925  11.560
48178SOL    HW246432   0.713   1.845  11.511
48179SOL     OW46433   3.373  10.550  14.639
48179SOL    HW146434   3.336  10.593  14.716
48179SOL    HW246435   3.380  10.458  14.663
48180SOL     OW46436   0.053   3.542   6.597
48180SOL    HW146437  14.849   3.588   6.601
48180SOL    HW246438   0.118   3.612   6.595
48181SOL     OW46439   0.031   3.635   7.494
48181SOL    HW146440   0.113   3.670   7.459
48181SOL    HW246441  14.861   3.611   7.416
48182SOL     OW46442  11.682   9.322   8.041
48182SOL    HW146443  11.730   9.258   7.990
48182SOL    HW246444  11.744   9.350   8.109
48183SOL     OW46445  14.790   0.834  11.806
48183SOL    HW146446  14.828   0.902  11.863
48183SOL    HW246447  14.696   0.848  11.811
48184SOL     OW46448   7.590   3.157   6.678
48184SOL    HW146449   7.563   3.113   6.759
48184SOL    HW246450   7.591   3.087   6.612
48185SOL     OW46451  10.983   0.610   1.819
48185SOL    HW146452  10.909   0.557   1.790
48185SOL    HW246453  10.987   0.598   1.913
48186SOL     OW46454  13.921  12.330   9.843
48186SOL    HW146455  14.016  12.337   9.834
48186SOL    HW246456  13.893  12.413   9.880
48187SOL     OW46457   5.299  13.088   7.205
48187SOL    HW146458   5.394  13.080   7.201
48187SOL    HW246459   5.276  13.059   7.294
48188SOL     OW46460  14.160  12.479  12.462
48188SOL    HW146461  14.140  12.402  12.515
48188SOL    HW246462  14.074  12.515  12.439
48189SOL     OW46463   3.046  13.460   0.516
48189SOL    HW146464   3.011  13.528   0.459
48189SOL    HW246465   2.974  13.439   0.575
48190SOL     OW46466  10.673   5.867   1.143
48190SOL    HW146467  10.721   5.949   1.153
48190SOL    HW246468  10.664   5.835   1.233
48191SOL     OW46469  12.006   4.834   9.370
48191SOL    HW146470  12.033   4.791   9.289
48191SOL    HW246471  11.914   4.858   9.354
48192SOL     OW46472   9.007   0.607   8.509
48192SOL    HW146473   9.097   0.640   8.500
48192SOL    HW246474   8.959   0.653   8.440
48193SOL     OW46475   7.432   1.969   0.777
48193SOL    HW146476   7.525   1.948   0.781
48193SOL    HW246477   7.429   2.063   0.794
48194SOL     OW46478  13.318  11.247   5.299
48194SOL    HW146479  13.341  11.177   5.237
48194SOL    HW246480  13.384  11.239   5.368
48195SOL     OW46481  13.082   5.176   5.479
48195SOL    HW146482  13.074   5.230   5.400
48195SOL    HW246483  13.158   5.212   5.525
48196SOL     OW46484   6.752  14.517  13.450
48196SOL    HW146485   6.756  14.462  13.371
48196SOL    HW246486   6.747  14.607  13.416
48197SOL     OW46487  13.212  10.966   0.081
48197SOL    HW146488  13.223  10.986   0.174
48197SOL    HW246489  13.246  10.877   0.071
48198SOL     OW46490  14.668   6.322   1.874
48198SOL    HW146491  14.747   6.375   1.884
48198SOL    HW246492  14.679   6.250   1.937
48199SOL     OW46493   4.024   6.590   3.337
48199SOL    HW146494   4.083   6.516   3.345
48199SOL    HW246495   4.062   6.644   3.268
48200SOL     OW46496   3.933   4.217   0.925
48200SOL    HW146497   3.983   4.268   0.987
48200SOL    HW246498   3.892   4.282   0.867
48201SOL     OW46499   3.719   3.157   2.751
48201SOL    HW146500   3.770   3.077   2.759
48201SOL    HW246501   3.638   3.139   2.799
48202SOL     OW46502   2.108   9.949   3.098
48202SOL    HW146503   2.046   9.956   3.169
48202SOL    HW246504   2.193   9.971   3.137
48203SOL     OW46505  13.667   5.540   7.273
48203SOL    HW146506  13.683   5.494   7.355
48203SOL    HW246507  13.574   5.563   7.275
48204SOL     OW46508   2.225  12.179   6.941
48204SOL    HW146509   2.222  12.109   7.006
48204SOL    HW246510   2.206  12.136   6.858
48205SOL     OW46511  13.404   4.979   5.469
48205SOL    HW146512  13.370   5.023   5.391
48205SOL    HW246513  13.450   4.902   5.436
48206SOL     OW46514   9.473   6.706   8.724
48206SOL    HW146515   9.380   6.684   8.718
48206SOL    HW246516   9.509   6.642   8.785
48207SOL     OW46517   0.895   0.945   2.600
48207SOL    HW146518   0.938   0.924   2.517
48207SOL    HW246519   0.944   1.020   2.635
48208SOL     OW46520  11.155  14.059   8.312
48208SOL    HW146521  11.213  14.108   8.254
48208SOL    HW246522  11.174  14.094   8.399
48209SOL     OW46523  11.836   7.885   2.755
48209SOL    HW146524  11.786   7.898   2.675
48209SOL    HW246525  11.848   7.973   2.790
48210SOL     OW46526   1.555  12.465  11.048
48210SOL    HW146527   1.507  12.385  11.069
48210SOL    HW246528   1.514  12.532  11.102
48211SOL     OW46529   6.805   2.101   5.104
48211SOL    HW146530   6.845   2.129   5.022
48211SOL    HW246531   6.712   2.120   5.094
48212SOL     OW46532   3.975  10.062   9.401
48212SOL    HW146533   3.951   9.987   9.348
48212SOL    HW246534   3.966  10.032   9.492
48213SOL     OW46535   2.397   8.271   7.280
48213SOL    HW146536   2.476   8.260   7.227
48213SOL    HW246537   2.390   8.189   7.329
48214SOL     OW46538  10.762   7.538   1.051
48214SOL    HW146539  10.739   7.582   0.969
48214SOL    HW246540  10.680   7.535   1.100
48215SOL     OW46541   0.977  14.203   4.070
48215SOL    HW146542   1.006  14.282   4.115
48215SOL    HW246543   0.971  14.228   3.978
48216SOL     OW46544   3.606   3.410  10.815
48216SOL    HW146545   3.521   3.383  10.780
48216SOL    HW246546   3.586   3.488  10.867
48217SOL     OW46547  14.383   0.076  14.012
48217SOL    HW146548  14.414  14.874  13.971
48217SOL    HW246549  14.365   0.052  14.103
48218SOL     OW46550   0.596   4.406  10.718
48218SOL    HW146551   0.544   4.438  10.792
48218SOL    HW246552   0.567   4.459  10.643
48219SOL     OW46553   8.432  12.990   3.710
48219SOL    HW146554   8.525  12.965   3.705
48219SOL    HW246555   8.425  13.038   3.793
48220SOL     OW46556  14.092  12.856  11.825
48220SOL    HW146557  14.122  12.812  11.904
48220SOL    HW246558  14.124  12.946  11.833
48221SOL     OW46559   8.092  14.120   6.196
48221SOL    HW146560   8.020  14.163   6.242
48221SOL    HW246561   8.065  14.119   6.104
48222SOL     OW46562  12.703   4.506  13.307
48222SOL    HW146563  12.712   4.454  13.227
48222SOL    HW246564  12.650   4.581  13.281
48223SOL     OW46565   6.559  14.557   5.223
48223SOL    HW146566   6.576  14.590   5.311
48223SOL    HW246567   6.641  14.513   5.198
48224SOL     OW46568   5.197   4.283  10.686
48224SOL    HW146569   5.199   4.192  10.655
48224SOL    HW246570   5.185   4.275  10.781
48225SOL     OW46571   0.359  11.402   5.139
48225SOL    HW146572   0.386  11.351   5.216
48225SOL    HW246573   0.313  11.477   5.175
48226SOL     OW46574  14.454   3.959  12.198
48226SOL    HW146575  14.370   3.928  12.164
48226SOL    HW246576  14.430   4.017  12.270
48227SOL     OW46577   4.334   7.382   9.843
48227SOL    HW146578   4.304   7.348   9.759
48227SOL    HW246579   4.428   7.362   9.845
48228SOL     OW46580  14.435   2.363  12.286
48228SOL    HW146581  14.501   2.349  12.218
48228SOL    HW246582  14.484   2.360  12.369
48229SOL     OW46583  11.796  14.454   8.352
48229SOL    HW146584  11.810  14.430   8.260
48229SOL    HW246585  11.866  14.517   8.371
48230SOL     OW46586   9.565   9.414   4.970
48230SOL    HW146587   9.540   9.360   4.894
48230SOL    HW246588   9.482   9.449   5.003
48231SOL     OW46589   3.018   2.729   6.335
48231SOL    HW146590   3.011   2.819   6.304
48231SOL    HW246591   3.045   2.736   6.426
48232SOL     OW46592   9.926   5.448   6.874
48232SOL    HW146593   9.885   5.369   6.911
48232SOL    HW246594  10.003   5.415   6.827
48233SOL     OW46595   1.012   2.473  11.285
48233SOL    HW146596   0.966   2.527  11.350
48233SOL    HW246597   0.950   2.464  11.213
48234SOL     OW46598  10.399   2.941   3.616
48234SOL    HW146599  10.479   2.906   3.655
48234SOL    HW246600  10.349   2.864   3.591
48235SOL     OW46601  10.044   3.940   6.056
48235SOL    HW146602   9.972   3.916   5.998
48235SOL    HW246603  10.004   3.951   6.142
48236SOL     OW46604   2.321   2.952  14.522
48236SOL    HW146605   2.416   2.945  14.511
48236SOL    HW246606   2.287   2.952  14.432
48237SOL     OW46607  11.367  11.578  10.126
48237SOL    HW146608  11.435  11.521  10.090
48237SOL    HW246609  11.389  11.586  10.219
48238SOL     OW46610  14.409   5.097   6.245
48238SOL    HW146611  14.329   5.102   6.297
48238SOL    HW246612  14.383   5.052   6.165
48239SOL     OW46613   4.793   5.504   3.954
48239SOL    HW146614   4.747   5.470   3.878
48239SOL    HW246615   4.837   5.584   3.923
48240SOL     OW46616   6.360  10.473   0.288
48240SOL    HW146617   6.328  10.563   0.291
48240SOL    HW246618   6.378  10.452   0.380
48241SOL     OW46619   4.343   6.439   6.761
48241SOL    HW146620   4.275   6.492   6.803
48241SOL    HW246621   4.383   6.389   6.832
48242SOL     OW46622   2.498   3.030   9.986
48242SOL    HW146623   2.470   2.938   9.980
48242SOL    HW246624   2.468   3.069   9.904
48243SOL     OW46625   5.866   2.873  10.252
48243SOL    HW146626   5.889   2.947  10.309
48243SOL    HW246627   5.797   2.906  10.195
48244SOL     OW46628   2.956   9.417   0.973
48244SOL    HW146629   3.001   9.495   1.005
48244SOL    HW246630   3.026   9.358   0.944
48245SOL     OW46631   5.506  10.742   3.815
48245SOL    HW146632   5.494  10.683   3.889
48245SOL    HW246633   5.456  10.820   3.839
48246SOL     OW46634  12.574   8.601   5.407
48246SOL    HW146635  12.619   8.677   5.445
48246SOL    HW246636  12.514   8.638   5.343
48247SOL     OW46637  13.213  14.118  14.379
48247SOL    HW146638  13.198  14.073  14.296
48247SOL    HW246639  13.155  14.074  14.441
48248SOL     OW46640   4.301  12.779  12.070
48248SOL    HW146641   4.320  12.691  12.035
48248SOL    HW246642   4.249  12.821  12.001
48249SOL     OW46643   8.387  13.154  14.711
48249SOL    HW146644   8.413  13.069  14.748
48249SOL    HW246645   8.296  13.165  14.740
48250SOL     OW46646   2.535   6.684   9.435
48250SOL    HW146647   2.597   6.744   9.478
48250SOL    HW246648   2.518   6.617   9.501
48251SOL     OW46649  10.890  11.323   6.149
48251SOL    HW146650  10.918  11.399   6.199
48251SOL    HW246651  10.937  11.330   6.066
48252SOL     OW46652  11.161   2.331   2.367
48252SOL    HW146653  11.176   2.371   2.282
48252SOL    HW246654  11.245   2.338   2.412
48253SOL     OW46655  13.786   8.607   2.991
48253SOL    HW146656  13.818   8.517   2.986
48253SOL    HW246657  13.725   8.615   2.919
48254SOL     OW46658  13.809   4.546  14.875
48254SOL    HW146659  13.826   4.500  14.793
48254SOL    HW246660  13.761   4.482   0.049
48255SOL     OW46661   2.973   2.058   7.725
48255SOL    HW146662   3.018   2.139   7.702
48255SOL    HW246663   3.003   1.994   7.660
48256SOL     OW46664   8.487   4.388  11.179
48256SOL    HW146665   8.459   4.479  11.172
48256SOL    HW246666   8.445   4.356  11.259
48257SOL     OW46667   9.141   4.755   6.694
48257SOL    HW146668   9.098   4.707   6.765
48257SOL    HW246669   9.199   4.817   6.739
48258SOL     OW46670   3.787   5.000   5.705
48258SOL    HW146671   3.771   5.066   5.638
48258SOL    HW246672   3.720   5.016   5.772
48259SOL     OW46673  12.885   4.991   1.458
48259SOL    HW146674  12.837   5.056   1.509
48259SOL    HW246675  12.947   4.953   1.521
48260SOL     OW46676   0.665  11.008  11.174
48260SOL    HW146677   0.700  11.092  11.204
48260SOL    HW246678   0.571  11.024  11.162
48261SOL     OW46679   3.337  10.685  10.125
48261SOL    HW146680   3.301  10.659  10.210
48261SOL    HW246681   3.318  10.778  10.118
48262SOL     OW46682  14.060   2.793   3.878
48262SOL    HW146683  14.081   2.842   3.958
48262SOL    HW246684  14.079   2.702   3.901
48263SOL     OW46685  12.375   1.456   6.572
48263SOL    HW146686  12.387   1.497   6.658
48263SOL    HW246687  12.282   1.468   6.552
48264SOL     OW46688  11.788  10.921  10.450
48264SOL    HW146689  11.820  10.971  10.525
48264SOL    HW246690  11.868  10.890  10.406
48265SOL     OW46691   5.808   9.165   8.067
48265SOL    HW146692   5.875   9.191   8.003
48265SOL    HW246693   5.727   9.204   8.033
48266SOL     OW46694  11.361   9.235   6.957
48266SOL    HW146695  11.319   9.256   6.874
48266SOL    HW246696  11.345   9.311   7.013
48267SOL     OW46697   4.815   3.099   4.719
48267SOL    HW146698   4.856   3.184   4.705
48267SOL    HW246699   4.773   3.106   4.805
48268SOL     OW46700   1.165   7.161   8.517
48268SOL    HW146701   1.214   7.220   8.575
48268SOL    HW246702   1.224   7.148   8.442
48269SOL     OW46703   0.353  11.896  11.891
48269SOL    HW146704   0.418  11.927  11.953
48269SOL    HW246705   0.403  11.873  11.813
48270SOL     OW46706   2.320   5.046   1.232
48270SOL    HW146707   2.354   5.040   1.143
48270SOL    HW246708   2.385   5.000   1.286
48271SOL     OW46709   7.866   2.283   5.491
48271SOL    HW146710   7.801   2.257   5.556
48271SOL    HW246711   7.859   2.218   5.422
48272SOL     OW46712   1.121   3.080   1.745
48272SOL    HW146713   1.133   3.087   1.650
48272SOL    HW246714   1.099   3.169   1.773
48273SOL     OW46715   0.328  13.826   8.775
48273SOL    HW146716   0.420  13.852   8.769
48273SOL    HW246717   0.317  13.759   8.707
48274SOL     OW46718  14.396   0.359   4.134
48274SOL    HW146719  14.311   0.316   4.132
48274SOL    HW246720  14.414   0.382   4.043
48275SOL     OW46721  12.288  13.625   3.716
48275SOL    HW146722  12.353  13.636   3.785
48275SOL    HW246723  12.335  13.645   3.635
48276SOL     OW46724   5.034   9.703   6.832
48276SOL    HW146725   5.038   9.613   6.862
48276SOL    HW246726   5.123   9.722   6.801
48277SOL     OW46727   5.865   1.145   1.867
48277SOL    HW146728   5.873   1.240   1.868
48277SOL    HW246729   5.955   1.113   1.868
48278SOL     OW46730   9.502   3.397  14.259
48278SOL    HW146731   9.515   3.487  14.231
48278SOL    HW246732   9.413   3.396  14.296
48279SOL     OW46733   5.011   4.706   2.942
48279SOL    HW146734   5.019   4.800   2.926
48279SOL    HW246735   5.099   4.672   2.925
48280SOL     OW46736   5.660  12.189   3.480
48280SOL    HW146737   5.746  12.229   3.465
48280SOL    HW246738   5.627  12.170   3.392
48281SOL     OW46739   1.100   7.611   6.245
48281SOL    HW146740   1.173   7.549   6.251
48281SOL    HW246741   1.050   7.582   6.169
48282SOL     OW46742  12.079   9.818   0.815
48282SOL    HW146743  12.150   9.876   0.844
48282SOL    HW246744  12.118   9.763   0.747
48283SOL     OW46745   8.516   9.183  13.856
48283SOL    HW146746   8.426   9.166  13.883
48283SOL    HW246747   8.513   9.181  13.760
48284SOL     OW46748   6.790   3.993  11.595
48284SOL    HW146749   6.754   3.993  11.507
48284SOL    HW246750   6.859   4.060  11.593
48285SOL     OW46751  14.845  13.142   2.930
48285SOL    HW146752  14.827  13.055   2.895
48285SOL    HW246753   0.014  13.186   2.860
48286SOL     OW46754   8.492   8.901  11.420
48286SOL    HW146755   8.504   8.810  11.393
48286SOL    HW246756   8.496   8.898  11.515
48287SOL     OW46757   4.089   3.300   3.823
48287SOL    HW146758   4.052   3.295   3.911
48287SOL    HW246759   4.145   3.377   3.826
48288SOL     OW46760  11.537  14.527   1.330
48288SOL    HW146761  11.495  14.613   1.339
48288SOL    HW246762  11.528  14.487   1.417
48289SOL     OW46763   7.906  12.943  11.752
48289SOL    HW146764   7.897  13.031  11.787
48289SOL    HW246765   7.986  12.948  11.698
48290SOL     OW46766   5.300  11.214  10.411
48290SOL    HW146767   5.258  11.217  10.497
48290SOL    HW246768   5.394  11.210  10.431
48291SOL     OW46769  10.133   1.984  11.424
48291SOL    HW146770  10.151   2.012  11.334
48291SOL    HW246771  10.164   1.894  11.428
48292SOL     OW46772  11.781   4.353  11.328
48292SOL    HW146773  11.707   4.299  11.358
48292SOL    HW246774  11.769   4.358  11.233
48293SOL     OW46775   2.765   3.032   5.018
48293SOL    HW146776   2.688   3.004   5.067
48293SOL    HW246777   2.734   3.102   4.961
48294SOL     OW46778   2.124  10.658   7.857
48294SOL    HW146779   2.093  10.585   7.910
48294SOL    HW246780   2.046  10.712   7.842
48295SOL     OW46781  13.966  12.219  11.877
48295SOL    HW146782  14.060  12.220  11.859
48295SOL    HW246783  13.948  12.127  11.898
48296SOL     OW46784   8.645  10.241   6.028
48296SOL    HW146785   8.582  10.292   5.977
48296SOL    HW246786   8.639  10.153   5.992
48297SOL     OW46787  12.070   0.801   7.729
48297SOL    HW146788  11.996   0.746   7.707
48297SOL    HW246789  12.135   0.740   7.766
48298SOL     OW46790  11.764   7.876  11.055
48298SOL    HW146791  11.781   7.813  10.984
48298SOL    HW246792  11.673   7.902  11.042
48299SOL     OW46793   9.717  12.480  13.023
48299SOL    HW146794   9.812  12.483  13.024
48299SOL    HW246795   9.690  12.572  13.019
48300SOL     OW46796   9.645   0.147   8.770
48300SOL    HW146797   9.714   0.089   8.804
48300SOL    HW246798   9.657   0.229   8.818
48301SOL     OW46799   7.532  11.606   0.415
48301SOL    HW146800   7.504  11.697   0.409
48301SOL    HW246801   7.606  11.608   0.477
48302SOL     OW46802   7.338   5.470   3.772
48302SOL    HW146803   7.344   5.461   3.677
48302SOL    HW246804   7.288   5.393   3.800
48303SOL     OW46805  12.784   0.236   6.743
48303SOL    HW146806  12.851   0.304   6.740
48303SOL    HW246807  12.824   0.165   6.792
48304SOL     OW46808  14.770   3.427   8.137
48304SOL    HW146809  14.803   3.504   8.091
48304SOL    HW246810  14.811   3.432   8.224
48305SOL     OW46811   1.638  11.293  10.454
48305SOL    HW146812   1.717  11.247  10.422
48305SOL    HW246813   1.648  11.382  10.421
48306SOL     OW46814   6.968  11.996   6.264
48306SOL    HW146815   6.917  11.969   6.341
48306SOL    HW246816   7.051  11.949   6.272
48307SOL     OW46817  10.342  11.754   2.732
48307SOL    HW146818  10.269  11.719   2.681
48307SOL    HW246819  10.304  11.771   2.818
48308SOL     OW46820  10.492   4.805   3.175
48308SOL    HW146821  10.535   4.864   3.112
48308SOL    HW246822  10.402   4.798   3.143
48309SOL     OW46823   8.542   8.383   6.799
48309SOL    HW146824   8.494   8.366   6.880
48309SOL    HW246825   8.613   8.318   6.800
48310SOL     OW46826   7.298   7.753   6.999
48310SOL    HW146827   7.323   7.680   7.057
48310SOL    HW246828   7.363   7.821   7.018
48311SOL     OW46829   5.972  14.083   4.267
48311SOL    HW146830   5.904  14.022   4.294
48311SOL    HW246831   5.991  14.134   4.346
48312SOL     OW46832   7.550   4.283  10.298
48312SOL    HW146833   7.513   4.246  10.378
48312SOL    HW246834   7.551   4.377  10.313
48313SOL     OW46835  12.173  13.240   9.878
48313SOL    HW146836  12.084  13.206   9.880
48313SOL    HW246837  12.163  13.335   9.886
48314SOL     OW46838   2.905   0.870   7.924
48314SOL    HW146839   2.874   0.862   7.834
48314SOL    HW246840   2.842   0.820   7.975
48315SOL     OW46841   5.005  13.278   0.240
48315SOL    HW146842   5.066  13.214   0.205
48315SOL    HW246843   4.974  13.239   0.322
48316SOL     OW46844   2.586  11.805  11.494
48316SOL    HW146845   2.556  11.877  11.548
48316SOL    HW246846   2.651  11.760  11.548
48317SOL     OW46847   4.908  11.122   9.019
48317SOL    HW146848   4.865  11.131   9.104
48317SOL    HW246849   4.974  11.054   9.031
48318SOL     OW46850  12.268  10.489   1.718
48318SOL    HW146851  12.199  10.523   1.661
48318SOL    HW246852  12.249  10.526   1.804
48319SOL     OW46853   9.809   3.184  13.406
48319SOL    HW146854   9.793   3.256  13.345
48319SOL    HW246855   9.775   3.107  13.362
48320SOL     OW46856   5.131  12.940   2.594
48320SOL    HW146857   5.198  12.876   2.617
48320SOL    HW246858   5.048  12.893   2.603
48321SOL     OW46859   8.996   2.458  14.164
48321SOL    HW146860   9.085   2.428  14.143
48321SOL    HW246861   8.942   2.426  14.091
48322SOL     OW46862   2.331   2.797   7.796
48322SOL    HW146863   2.258   2.779   7.737
48322SOL    HW246864   2.372   2.876   7.760
48323SOL     OW46865  11.456   2.589   4.725
48323SOL    HW146866  11.540   2.635   4.720
48323SOL    HW246867  11.478   2.505   4.765
48324SOL     OW46868   0.657   3.255  10.816
48324SOL    HW146869   0.604   3.329  10.789
48324SOL    HW246870   0.636   3.243  10.909
48325SOL     OW46871   3.343   8.079  10.195
48325SOL    HW146872   3.346   8.130  10.115
48325SOL    HW246873   3.250   8.069  10.214
48326SOL     OW46874   1.978   7.037   6.817
48326SOL    HW146875   1.993   7.113   6.875
48326SOL    HW246876   1.961   7.075   6.731
48327SOL     OW46877  12.870  10.100  13.245
48327SOL    HW146878  12.883  10.044  13.168
48327SOL    HW246879  12.776  10.096  13.261
48328SOL     OW46880   9.138  11.625   0.988
48328SOL    HW146881   9.062  11.642   1.044
48328SOL    HW246882   9.177  11.545   1.023
48329SOL     OW46883   6.166  14.670   7.719
48329SOL    HW146884   6.251  14.710   7.699
48329SOL    HW246885   6.159  14.595   7.660
48330SOL     OW46886   5.399   9.171  10.064
48330SOL    HW146887   5.460   9.131  10.001
48330SOL    HW246888   5.403   9.114  10.141
48331SOL     OW46889   4.426   9.639   8.260
48331SOL    HW146890   4.438   9.636   8.165
48331SOL    HW246891   4.410   9.731   8.279
48332SOL     OW46892   2.291   2.547   3.886
48332SOL    HW146893   2.230   2.496   3.833
48332SOL    HW246894   2.292   2.634   3.847
48333SOL     OW46895   0.029  11.347   9.634
48333SOL    HW146896   0.090  11.410   9.671
48333SOL    HW246897   0.039  11.356   9.539
48334SOL     OW46898  13.324  11.191   1.926
48334SOL    HW146899  13.351  11.239   2.004
48334SOL    HW246900  13.397  11.203   1.865
48335SOL     OW46901   8.127   3.119   9.143
48335SOL    HW146902   8.122   3.183   9.213
48335SOL    HW246903   8.183   3.159   9.077
48336SOL     OW46904   8.627  14.440  14.746
48336SOL    HW146905   8.535  14.461  14.725
48336SOL    HW246906   8.625  14.348  14.771
48337SOL     OW46907   1.188   8.695   0.984
48337SOL    HW146908   1.096   8.689   1.011
48337SOL    HW246909   1.184   8.698   0.889
48338SOL     OW46910  12.306   5.575   6.010
48338SOL    HW146911  12.306   5.481   6.026
48338SOL    HW246912  12.387   5.607   6.049
48339SOL     OW46913  14.303  12.604   9.258
48339SOL    HW146914  14.216  12.603   9.217
48339SOL    HW246915  14.307  12.689   9.302
48340SOL     OW46916   3.113   8.246  10.269
48340SOL    HW146917   3.184   8.290  10.315
48340SOL    HW246918   3.069   8.316  10.220
48341SOL     OW46919   8.395   5.076   5.337
48341SOL    HW146920   8.367   5.146   5.279
48341SOL    HW246921   8.323   5.066   5.400
48342SOL     OW46922   3.903   6.878   1.646
48342SOL    HW146923   3.928   6.799   1.600
48342SOL    HW246924   3.984   6.928   1.656
48343SOL     OW46925  14.628   0.551  14.158
48343SOL    HW146926  14.556   0.561  14.221
48343SOL    HW246927  14.598   0.481  14.100
48344SOL     OW46928   3.891   0.185   8.711
48344SOL    HW146929   3.815   0.131   8.687
48344SOL    HW246930   3.961   0.154   8.653
48345SOL     OW46931   2.509  12.040  10.371
48345SOL    HW146932   2.582  11.983  10.351
48345SOL    HW246933   2.433  11.996  10.334
48346SOL     OW46934   9.232   6.597  12.867
48346SOL    HW146935   9.317   6.579  12.908
48346SOL    HW246936   9.170   6.598  12.940
48347SOL     OW46937   0.474   6.968   4.753
48347SOL    HW146938   0.568   6.954   4.764
48347SOL    HW246939   0.460   7.059   4.780
48348SOL     OW46940   8.108   0.163  11.731
48348SOL    HW146941   8.021   0.126  11.716
48348SOL    HW246942   8.134   0.130  11.817
48349SOL     OW46943   1.872  13.023   5.738
48349SOL    HW146944   1.830  13.093   5.787
48349SOL    HW246945   1.959  13.056   5.718
48350SOL     OW46946  11.210   4.324  14.632
48350SOL    HW146947  11.212   4.418  14.618
48350SOL    HW246948  11.302   4.299  14.643
48351SOL     OW46949   0.794   6.636  12.359
48351SOL    HW146950   0.755   6.563  12.407
48351SOL    HW246951   0.807   6.704  12.425
48352SOL     OW46952   3.354   7.124   2.876
48352SOL    HW146953   3.398   7.209   2.867
48352SOL    HW246954   3.404   7.066   2.819
48353SOL     OW46955   7.152   7.312  11.826
48353SOL    HW146956   7.183   7.362  11.750
48353SOL    HW246957   7.216   7.331  11.895
48354SOL     OW46958  10.016   2.386  13.328
48354SOL    HW146959   9.983   2.466  13.288
48354SOL    HW246960   9.973   2.381  13.413
48355SOL     OW46961  10.377   2.165  11.909
48355SOL    HW146962  10.336   2.123  11.834
48355SOL    HW246963  10.448   2.217  11.871
48356SOL     OW46964   2.671   9.179   5.258
48356SOL    HW146965   2.708   9.094   5.233
48356SOL    HW246966   2.734   9.216   5.320
48357SOL     OW46967   4.265  13.696   9.903
48357SOL    HW146968   4.288  13.783   9.869
48357SOL    HW246969   4.258  13.708   9.997
48358SOL     OW46970   3.382  10.419  12.023
48358SOL    HW146971   3.449  10.376  11.969
48358SOL    HW246972   3.428  10.492  12.065
48359SOL     OW46973   8.659   9.242  13.104
48359SOL    HW146974   8.567   9.256  13.082
48359SOL    HW246975   8.658   9.211  13.194
48360SOL     OW46976   3.725  13.498   1.719
48360SOL    HW146977   3.813  13.532   1.737
48360SOL    HW246978   3.670  13.576   1.713
48361SOL     OW46979   4.178  11.478   0.607
48361SOL    HW146980   4.233  11.427   0.666
48361SOL    HW246981   4.238  11.508   0.538
48362SOL     OW46982  10.772  12.972  12.282
48362SOL    HW146983  10.756  12.883  12.313
48362SOL    HW246984  10.828  13.011  12.349
48363SOL     OW46985   8.098  14.784  10.412
48363SOL    HW146986   8.151  14.704  10.415
48363SOL    HW246987   8.150  14.848  10.460
48364SOL     OW46988  11.975  14.861   2.776
48364SOL    HW146989  11.967   0.009   2.867
48364SOL    HW246990  11.887  14.834   2.750
48365SOL     OW46991  12.393  10.809   7.426
48365SOL    HW146992  12.342  10.750   7.482
48365SOL    HW246993  12.483  10.778   7.435
48366SOL     OW46994   7.158   4.462  13.947
48366SOL    HW146995   7.223   4.531  13.934
48366SOL    HW246996   7.087   4.485  13.888
48367SOL     OW46997  13.966  11.991  13.083
48367SOL    HW146998  14.030  11.987  13.155
48367SOL    HW246999  13.893  12.040  13.119
48368SOL     OW47000   5.971   8.234  14.358
48368SOL    HW147001   5.945   8.253  14.448
48368SOL    HW247002   6.053   8.282  14.346
48369SOL     OW47003  13.991  10.298   6.851
48369SOL    HW147004  13.960  10.385   6.829
48369SOL    HW247005  13.916  10.255   6.892
48370SOL     OW47006  14.774   4.811   3.698
48370SOL    HW147007  14.739   4.899   3.680
48370SOL    HW247008  14.696   4.757   3.710
48371SOL     OW47009   8.336   5.585   7.635
48371SOL    HW147010   8.316   5.505   7.682
48371SOL    HW247011   8.392   5.635   7.694
48372SOL     OW47012  12.246   0.519  11.974
48372SOL    HW147013  12.239   0.607  12.010
48372SOL    HW247014  12.265   0.463  12.050
48373SOL     OW47015   8.973  11.115   7.545
48373SOL    HW147016   9.044  11.051   7.546
48373SOL    HW247017   8.973  11.151   7.634
48374SOL     OW47018  11.749   5.460  11.900
48374SOL    HW147019  11.709   5.396  11.841
48374SOL    HW247020  11.687   5.469  11.972
48375SOL     OW47021  14.682   0.792   3.321
48375SOL    HW147022  14.626   0.834   3.386
48375SOL    HW247023  14.687   0.700   3.349
48376SOL     OW47024   5.471  10.389   6.072
48376SOL    HW147025   5.505  10.326   6.135
48376SOL    HW247026   5.516  10.471   6.093
48377SOL     OW47027   3.937   4.417  11.018
48377SOL    HW147028   3.923   4.353  11.088
48377SOL    HW247029   3.852   4.425  10.975
48378SOL     OW47030   9.329   4.018   4.217
48378SOL    HW147031   9.291   4.002   4.303
48378SOL    HW247032   9.374   4.103   4.227
48379SOL     OW47033  14.486   2.682  10.511
48379SOL    HW147034  14.532   2.598  10.511
48379SOL    HW247035  14.486   2.709  10.419
48380SOL     OW47036  12.719   1.776   7.194
48380SOL    HW147037  12.720   1.869   7.169
48380SOL    HW247038  12.700   1.777   7.287
48381SOL     OW47039   8.333   5.829  13.517
48381SOL    HW147040   8.301   5.917  13.534
48381SOL    HW247041   8.420   5.827  13.556
48382SOL     OW47042   1.971   2.355   4.588
48382SOL    HW147043   1.979   2.259   4.594
48382SOL    HW247044   1.905   2.377   4.653
48383SOL     OW47045   7.333   3.105  14.794
48383SOL    HW147046   7.265   3.141  14.852
48383SOL    HW247047   7.284   3.055  14.729
48384SOL     OW47048   9.789   0.356  13.288
48384SOL    HW147049   9.719   0.331  13.349
48384SOL    HW247050   9.868   0.320  13.327
48385SOL     OW47051   8.372   9.977   4.580
48385SOL    HW147052   8.366  10.054   4.524
48385SOL    HW247053   8.321   9.910   4.535
48386SOL     OW47054   6.857   3.272   2.654
48386SOL    HW147055   6.843   3.337   2.585
48386SOL    HW247056   6.881   3.324   2.731
48387SOL     OW47057   4.801   9.264   7.857
48387SOL    HW147058   4.890   9.254   7.891
48387SOL    HW247059   4.813   9.301   7.769
48388SOL     OW47060   9.316  14.785  13.219
48388SOL    HW147061   9.321  14.822  13.131
48388SOL    HW247062   9.228  14.748  13.225
48389SOL     OW47063   8.151   8.513   7.414
48389SOL    HW147064   8.159   8.545   7.325
48389SOL    HW247065   8.070   8.463   7.414
48390SOL     OW47066   1.257   9.341   8.156
48390SOL    HW147067   1.163   9.344   8.174
48390SOL    HW247068   1.298   9.324   8.241
48391SOL     OW47069   3.799   3.926   2.705
48391SOL    HW147070   3.842   3.982   2.640
48391SOL    HW247071   3.785   3.843   2.659
48392SOL     OW47072   9.806  13.819   5.573
48392SOL    HW147073   9.842  13.749   5.519
48392SOL    HW247074   9.791  13.891   5.512
48393SOL     OW47075   2.496   3.733  14.436
48393SOL    HW147076   2.589   3.737  14.458
48393SOL    HW247077   2.459   3.673  14.502
48394SOL     OW47078   5.223   1.719   9.785
48394SOL    HW147079   5.237   1.705   9.691
48394SOL    HW247080   5.300   1.681   9.827
48395SOL     OW47081   7.478  14.186  13.511
48395SOL    HW147082   7.473  14.273  13.472
48395SOL    HW247083   7.387  14.156  13.513
48396SOL     OW47084   7.012   4.806   8.358
48396SOL    HW147085   6.974   4.795   8.445
48396SOL    HW247086   7.100   4.838   8.375
48397SOL     OW47087   3.913  14.658   1.488
48397SOL    HW147088   3.973  14.633   1.559
48397SOL    HW247089   3.880  14.574   1.455
48398SOL     OW47090   5.805  12.590   0.359
48398SOL    HW147091   5.791  12.533   0.435
48398SOL    HW247092   5.796  12.533   0.283
48399SOL     OW47093   4.785  11.475  12.048
48399SOL    HW147094   4.728  11.542  12.086
48399SOL    HW247095   4.788  11.496  11.955
48400SOL     OW47096   8.682   6.320  10.938
48400SOL    HW147097   8.740   6.373  10.992
48400SOL    HW247098   8.604   6.307  10.993
48401SOL     OW47099   5.906   9.373  14.321
48401SOL    HW147100   5.975   9.408  14.265
48401SOL    HW247101   5.829   9.424  14.299
48402SOL     OW47102  14.445   1.659   4.354
48402SOL    HW147103  14.508   1.629   4.289
48402SOL    HW247104  14.387   1.584   4.367
48403SOL     OW47105   9.535   8.698   3.424
48403SOL    HW147106   9.481   8.760   3.374
48403SOL    HW247107   9.475   8.627   3.448
48404SOL     OW47108  12.172  13.313  13.335
48404SOL    HW147109  12.162  13.304  13.240
48404SOL    HW247110  12.248  13.370  13.345
48405SOL     OW47111  14.520  10.935  12.989
48405SOL    HW147112  14.450  10.874  13.011
48405SOL    HW247113  14.525  10.933  12.894
48406SOL     OW47114   7.225  13.041   5.815
48406SOL    HW147115   7.208  13.114   5.755
48406SOL    HW247116   7.226  13.081   5.902
48407SOL     OW47117   0.869  11.495   5.544
48407SOL    HW147118   0.814  11.420   5.524
48407SOL    HW247119   0.836  11.565   5.486
48408SOL     OW47120  14.319   2.175   6.131
48408SOL    HW147121  14.281   2.222   6.057
48408SOL    HW247122  14.408   2.209   6.138
48409SOL     OW47123   7.748  14.162  13.108
48409SOL    HW147124   7.676  14.131  13.163
48409SOL    HW247125   7.820  14.102  13.129
48410SOL     OW47126   8.855  10.774  10.845
48410SOL    HW147127   8.784  10.714  10.863
48410SOL    HW247128   8.909  10.730  10.779
48411SOL     OW47129   7.702   5.392  14.083
48411SOL    HW147130   7.734   5.360  13.999
48411SOL    HW247131   7.644   5.466  14.060
48412SOL     OW47132   7.329   2.789  11.443
48412SOL    HW147133   7.372   2.737  11.510
48412SOL    HW247134   7.392   2.790  11.370
48413SOL     OW47135   1.342   9.576  14.728
48413SOL    HW147136   1.304   9.495  14.694
48413SOL    HW247137   1.434   9.555  14.743
48414SOL     OW47138   3.497  10.565   3.329
48414SOL    HW147139   3.458  10.487   3.370
48414SOL    HW247140   3.495  10.632   3.398
48415SOL     OW47141   4.392   0.983   0.803
48415SOL    HW147142   4.482   1.001   0.778
48415SOL    HW247143   4.383   1.020   0.891
48416SOL     OW47144   1.806   9.521   8.125
48416SOL    HW147145   1.834   9.562   8.043
48416SOL    HW247146   1.738   9.459   8.099
48417SOL     OW47147   4.119   6.387   5.497
48417SOL    HW147148   4.108   6.393   5.402
48417SOL    HW247149   4.109   6.294   5.517
48418SOL     OW47150   9.756  10.939  12.177
48418SOL    HW147151   9.772  10.848  12.202
48418SOL    HW247152   9.793  10.947  12.090
48419SOL     OW47153  11.778   0.058  10.915
48419SOL    HW147154  11.870   0.064  10.889
48419SOL    HW247155  11.730   0.092  10.839
48420SOL     OW47156   2.642   3.782  14.070
48420SOL    HW147157   2.637   3.877  14.061
48420SOL    HW247158   2.564   3.758  14.119
48421SOL     OW47159  11.821  10.649   4.504
48421SOL    HW147160  11.912  10.678   4.513
48421SOL    HW247161  11.821  10.561   4.542
48422SOL     OW47162   4.893   6.641   0.913
48422SOL    HW147163   4.956   6.679   0.975
48422SOL    HW247164   4.839   6.584   0.967
48423SOL     OW47165  10.639  14.128   4.490
48423SOL    HW147166  10.609  14.053   4.438
48423SOL    HW247167  10.725  14.101   4.522
48424SOL     OW47168   6.930   7.027  12.435
48424SOL    HW147169   6.963   7.098  12.380
48424SOL    HW247170   6.935   7.062  12.524
48425SOL     OW47171   8.709   2.011   5.749
48425SOL    HW147172   8.771   2.083   5.758
48425SOL    HW247173   8.691   1.984   5.840
48426SOL     OW47174  12.647   2.496   5.727
48426SOL    HW147175  12.635   2.536   5.641
48426SOL    HW247176  12.610   2.560   5.788
48427SOL     OW47177  14.433   5.682   4.325
48427SOL    HW147178  14.402   5.746   4.389
48427SOL    HW247179  14.461   5.607   4.378
48428SOL     OW47180   9.177   3.670   6.755
48428SOL    HW147181   9.093   3.633   6.728
48428SOL    HW247182   9.162   3.764   6.757
48429SOL     OW47183  13.670   3.408   1.563
48429SOL    HW147184  13.605   3.465   1.604
48429SOL    HW247185  13.738   3.467   1.531
48430SOL     OW47186   3.177  10.865   9.327
48430SOL    HW147187   3.133  10.949   9.338
48430SOL    HW247188   3.252  10.869   9.386
48431SOL     OW47189   8.176   3.552   0.032
48431SOL    HW147190   8.223   3.537  14.830
48431SOL    HW247191   8.083   3.539   0.010
48432SOL     OW47192  11.209   3.611  12.024
48432SOL    HW147193  11.119   3.588  12.002
48432SOL    HW247194  11.261   3.576  11.952
48433SOL     OW47195   3.176   0.976   8.003
48433SOL    HW147196   3.222   1.005   7.924
48433SOL    HW247197   3.095   0.936   7.970
48434SOL     OW47198   8.148   3.026   6.799
48434SOL    HW147199   8.143   3.119   6.820
48434SOL    HW247200   8.225   3.018   6.743
48435SOL     OW47201   6.556   1.888  13.253
48435SOL    HW147202   6.546   1.808  13.305
48435SOL    HW247203   6.573   1.957  13.318
48436SOL     OW47204   7.521   4.471   9.333
48436SOL    HW147205   7.444   4.418   9.314
48436SOL    HW247206   7.586   4.408   9.364
48437SOL     OW47207   4.597   2.424   6.495
48437SOL    HW147208   4.527   2.370   6.530
48437SOL    HW247209   4.672   2.365   6.489
48438SOL     OW47210   7.778   7.230   7.031
48438SOL    HW147211   7.864   7.257   6.998
48438SOL    HW247212   7.785   7.237   7.126
48439SOL     OW47213   5.611  13.627   7.197
48439SOL    HW147214   5.588  13.688   7.268
48439SOL    HW247215   5.528  13.587   7.172
48440SOL     OW47216   4.458   6.471   7.984
48440SOL    HW147217   4.502   6.418   8.050
48440SOL    HW247218   4.375   6.497   8.024
48441SOL     OW47219  10.197   3.048   7.439
48441SOL    HW147220  10.130   3.017   7.377
48441SOL    HW247221  10.267   3.083   7.383
48442SOL     OW47222   4.793  13.265  13.470
48442SOL    HW147223   4.736  13.215  13.528
48442SOL    HW247224   4.814  13.204  13.399
48443SOL     OW47225   0.758   6.332   9.317
48443SOL    HW147226   0.766   6.286   9.234
48443SOL    HW247227   0.725   6.419   9.294
48444SOL     OW47228  13.760   8.403   9.166
48444SOL    HW147229  13.694   8.335   9.154
48444SOL    HW247230  13.814   8.398   9.087
48445SOL     OW47231  14.721   3.343  14.104
48445SOL    HW147232  14.758   3.262  14.140
48445SOL    HW247233  14.758   3.413  14.159
48446SOL     OW47234  12.528   8.285   0.816
48446SOL    HW147235  12.599   8.225   0.794
48446SOL    HW247236  12.529   8.288   0.912
48447SOL     OW47237   5.639   9.539   1.266
48447SOL    HW147238   5.594   9.465   1.308
48447SOL    HW247239   5.570   9.582   1.214
48448SOL     OW47240   3.418   8.429   0.090
48448SOL    HW147241   3.334   8.475   0.095
48448SOL    HW247242   3.474   8.486   0.037
48449SOL     OW47243   1.290   1.492  12.580
48449SOL    HW147244   1.383   1.508  12.595
48449SOL    HW247245   1.275   1.404  12.615
48450SOL     OW47246  10.356   6.320  14.293
48450SOL    HW147247  10.399   6.381  14.353
48450SOL    HW247248  10.265   6.349  14.288
48451SOL     OW47249   7.784   1.824  11.830
48451SOL    HW147250   7.791   1.788  11.741
48451SOL    HW247251   7.693   1.851  11.838
48452SOL     OW47252  14.334  11.887   1.147
48452SOL    HW147253  14.364  11.807   1.101
48452SOL    HW247254  14.390  11.891   1.225
48453SOL     OW47255   4.304   8.987  12.037
48453SOL    HW147256   4.209   8.981  12.022
48453SOL    HW247257   4.342   8.928  11.972
48454SOL     OW47258  14.672   4.127   0.027
48454SOL    HW147259  14.735   4.100  14.841
48454SOL    HW247260  14.698   4.080   0.107
48455SOL     OW47261   6.766   6.623   7.914
48455SOL    HW147262   6.764   6.689   7.983
48455SOL    HW247263   6.675   6.614   7.887
48456SOL     OW47264   6.067   9.029   4.883
48456SOL    HW147265   6.029   9.094   4.942
48456SOL    HW247266   6.129   9.078   4.829
48457SOL     OW47267   4.526   5.690   1.716
48457SOL    HW147268   4.601   5.746   1.695
48457SOL    HW247269   4.537   5.613   1.661
48458SOL     OW47270   6.837  11.866   2.316
48458SOL    HW147271   6.838  11.957   2.344
48458SOL    HW247272   6.892  11.821   2.380
48459SOL     OW47273   9.047   5.597   3.474
48459SOL    HW147274   8.964   5.599   3.426
48459SOL    HW247275   9.055   5.685   3.512
48460SOL     OW47276   3.097   7.903   0.645
48460SOL    HW147277   3.136   7.980   0.603
48460SOL    HW247278   3.032   7.939   0.705
48461SOL     OW47279   4.526   7.549  12.666
48461SOL    HW147280   4.493   7.464  12.694
48461SOL    HW247281   4.450   7.594  12.630
48462SOL     OW47282   8.630  13.805   9.004
48462SOL    HW147283   8.716  13.768   8.986
48462SOL    HW247284   8.636  13.836   9.095
48463SOL     OW47285  10.425  12.540  11.355
48463SOL    HW147286  10.407  12.447  11.367
48463SOL    HW247287  10.411  12.578  11.441
48464SOL     OW47288   4.781  14.397   9.466
48464SOL    HW147289   4.745  14.471   9.516
48464SOL    HW247290   4.756  14.415   9.376
48465SOL     OW47291   5.021  11.378   8.971
48465SOL    HW147292   5.015  11.286   8.996
48465SOL    HW247293   4.941  11.395   8.922
48466SOL     OW47294   9.695   2.836   3.813
48466SOL    HW147295   9.609   2.844   3.854
48466SOL    HW247296   9.740   2.918   3.833
48467SOL     OW47297   1.722   5.710   1.310
48467SOL    HW147298   1.627   5.722   1.311
48467SOL    HW247299   1.736   5.623   1.349
48468SOL     OW47300   8.182   8.608   1.577
48468SOL    HW147301   8.175   8.700   1.550
48468SOL    HW247302   8.239   8.609   1.653
48469SOL     OW47303   3.696   2.291   1.393
48469SOL    HW147304   3.739   2.248   1.320
48469SOL    HW247305   3.611   2.319   1.358
48470SOL     OW47306  10.182  11.913   5.410
48470SOL    HW147307  10.175  11.817   5.418
48470SOL    HW247308  10.273  11.932   5.428
48471SOL     OW47309   6.317   1.840   7.689
48471SOL    HW147310   6.378   1.773   7.720
48471SOL    HW247311   6.320   1.832   7.593
48472SOL     OW47312  12.247  12.977   5.254
48472SOL    HW147313  12.339  12.988   5.232
48472SOL    HW247314  12.233  13.037   5.328
48473SOL     OW47315   7.004  14.197   0.744
48473SOL    HW147316   7.078  14.138   0.731
48473SOL    HW247317   6.929  14.138   0.758
48474SOL     OW47318  10.877   8.908   1.913
48474SOL    HW147319  10.794   8.868   1.885
48474SOL    HW247320  10.874   8.997   1.878
48475SOL     OW47321   8.543   8.779  13.589
48475SOL    HW147322   8.576   8.690  13.579
48475SOL    HW247323   8.499   8.798  13.507
48476SOL     OW47324   8.383  12.049   1.042
48476SOL    HW147325   8.462  12.091   1.075
48476SOL    HW247326   8.415  11.969   0.999
48477SOL     OW47327  11.312   3.167   6.162
48477SOL    HW147328  11.266   3.187   6.244
48477SOL    HW247329  11.404   3.180   6.182
48478SOL     OW47330   7.059  11.540   0.735
48478SOL    HW147331   7.057  11.595   0.813
48478SOL    HW247332   7.150  11.541   0.707
48479SOL     OW47333   6.179   2.172   4.926
48479SOL    HW147334   6.241   2.200   4.859
48479SOL    HW247335   6.114   2.120   4.878
48480SOL     OW47336   3.017   3.435   3.749
48480SOL    HW147337   3.107   3.467   3.756
48480SOL    HW247338   3.024   3.355   3.697
48481SOL     OW47339   6.041  12.985   0.234
48481SOL    HW147340   6.048  12.905   0.286
48481SOL    HW247341   6.088  13.051   0.285
48482SOL     OW47342   9.570  14.444   6.560
48482SOL    HW147343   9.505  14.375   6.570
48482SOL    HW247344   9.626  14.436   6.637
48483SOL     OW47345   0.791   2.339   1.597
48483SOL    HW147346   0.797   2.250   1.632
48483SOL    HW247347   0.820   2.332   1.506
48484SOL     OW47348   3.090   0.469   2.395
48484SOL    HW147349   3.127   0.534   2.336
48484SOL    HW247350   3.164   0.412   2.416
48485SOL     OW47351   0.624  12.092  13.231
48485SOL    HW147352   0.537  12.073  13.195
48485SOL    HW247353   0.606  12.126  13.319
48486SOL     OW47354  14.196  13.347   4.764
48486SOL    HW147355  14.178  13.254   4.749
48486SOL    HW247356  14.179  13.389   4.680
48487SOL     OW47357   7.509   2.039   7.479
48487SOL    HW147358   7.537   1.980   7.409
48487SOL    HW247359   7.448   1.987   7.532
48488SOL     OW47360  12.787  10.216   1.393
48488SOL    HW147361  12.769  10.245   1.482
48488SOL    HW247362  12.710  10.243   1.343
48489SOL     OW47363  14.244  11.322   5.081
48489SOL    HW147364  14.171  11.297   5.025
48489SOL    HW247365  14.314  11.260   5.059
48490SOL     OW47366   0.990  13.077   0.237
48490SOL    HW147367   0.933  13.055   0.164
48490SOL    HW247368   1.006  12.993   0.281
48491SOL     OW47369   9.143   6.619   9.434
48491SOL    HW147370   9.097   6.624   9.518
48491SOL    HW247371   9.179   6.707   9.422
48492SOL     OW47372  12.290   5.180   0.836
48492SOL    HW147373  12.297   5.218   0.748
48492SOL    HW247374  12.199   5.155   0.844
48493SOL     OW47375   5.809  12.231   6.562
48493SOL    HW147376   5.880  12.281   6.601
48493SOL    HW247377   5.790  12.276   6.480
48494SOL     OW47378   1.200   0.375   3.409
48494SOL    HW147379   1.257   0.328   3.470
48494SOL    HW247380   1.141   0.425   3.466
48495SOL     OW47381  11.365  14.799   9.092
48495SOL    HW147382  11.440  14.771   9.145
48495SOL    HW247383  11.301  14.728   9.101
48496SOL     OW47384   0.616  10.590   7.051
48496SOL    HW147385   0.642  10.561   7.139
48496SOL    HW247386   0.696  10.583   6.999
48497SOL     OW47387  12.021   5.930   0.452
48497SOL    HW147388  12.003   6.019   0.481
48497SOL    HW247389  12.086   5.897   0.514
48498SOL     OW47390  11.753  11.353   3.672
48498SOL    HW147391  11.668  11.391   3.650
48498SOL    HW247392  11.781  11.401   3.751
48499SOL     OW47393   6.114  12.972   6.850
48499SOL    HW147394   6.065  12.918   6.912
48499SOL    HW247395   6.120  12.919   6.771
48500SOL     OW47396   6.720   2.610  10.280
48500SOL    HW147397   6.757   2.530  10.316
48500SOL    HW247398   6.706   2.667  10.356
48501SOL     OW47399  11.931   7.998   5.642
48501SOL    HW147400  11.853   7.963   5.599
48501SOL    HW247401  11.907   8.089   5.663
48502SOL     OW47402   0.085   2.639  11.484
48502SOL    HW147403   0.068   2.680  11.568
48502SOL    HW247404   0.178   2.616  11.486
48503SOL     OW47405   6.479   9.549  13.394
48503SOL    HW147406   6.478   9.454  13.383
48503SOL    HW247407   6.422   9.582  13.325
48504SOL     OW47408   3.967   0.879   7.311
48504SOL    HW147409   3.948   0.969   7.285
48504SOL    HW247410   3.960   0.829   7.231
48505SOL     OW47411   0.338   6.243  10.238
48505SOL    HW147412   0.366   6.270  10.150
48505SOL    HW247413   0.251   6.205  10.225
48506SOL     OW47414   6.770  13.601   8.754
48506SOL    HW147415   6.801  13.544   8.825
48506SOL    HW247416   6.841  13.599   8.690
48507SOL     OW47417   9.612  11.505  11.234
48507SOL    HW147418   9.607  11.591  11.275
48507SOL    HW247419   9.678  11.458  11.285
48508SOL     OW47420   2.138   5.698  10.954
48508SOL    HW147421   2.080   5.750  11.008
48508SOL    HW247422   2.127   5.733  10.866
48509SOL     OW47423  11.422   4.029  12.581
48509SOL    HW147424  11.415   4.057  12.489
48509SOL    HW247425  11.363   3.954  12.588
48510SOL     OW47426  11.221   0.240  13.478
48510SOL    HW147427  11.300   0.294  13.470
48510SOL    HW247428  11.217   0.217  13.571
48511SOL     OW47429  13.665   2.932   2.242
48511SOL    HW147430  13.645   2.945   2.149
48511SOL    HW247431  13.741   2.874   2.242
48512SOL     OW47432   2.970   7.567   6.835
48512SOL    HW147433   2.942   7.568   6.744
48512SOL    HW247434   3.065   7.555   6.831
48513SOL     OW47435   2.621   9.741  13.887
48513SOL    HW147436   2.673   9.677  13.934
48513SOL    HW247437   2.600   9.807  13.953
48514SOL     OW47438   1.229   7.008   5.330
48514SOL    HW147439   1.306   7.059   5.307
48514SOL    HW247440   1.236   6.995   5.425
48515SOL     OW47441   6.595   3.411   2.884
48515SOL    HW147442   6.565   3.502   2.882
48515SOL    HW247443   6.577   3.378   2.796
48516SOL     OW47444   8.717  12.878  11.763
48516SOL    HW147445   8.624  12.893  11.781
48516SOL    HW247446   8.762  12.946  11.814
48517SOL     OW47447   6.312   0.524  13.901
48517SOL    HW147448   6.313   0.585  13.975
48517SOL    HW247449   6.268   0.571  13.831
48518SOL     OW47450  11.247  13.798   8.318
48518SOL    HW147451  11.204  13.884   8.320
48518SOL    HW247452  11.180  13.739   8.284
48519SOL     OW47453   9.714   3.327  13.155
48519SOL    HW147454   9.643   3.265  13.136
48519SOL    HW247455   9.718   3.383  13.077
48520SOL     OW47456   9.856   9.377  11.378
48520SOL    HW147457   9.948   9.352  11.391
48520SOL    HW247458   9.842   9.366  11.284
48521SOL     OW47459   2.506   7.818   5.449
48521SOL    HW147460   2.599   7.825   5.469
48521SOL    HW247461   2.468   7.900   5.481
48522SOL     OW47462   6.600  11.763  10.395
48522SOL    HW147463   6.625  11.680  10.434
48522SOL    HW247464   6.524  11.792  10.446
48523SOL     OW47465   7.802   3.432   6.231
48523SOL    HW147466   7.895   3.430   6.205
48523SOL    HW247467   7.802   3.404   6.322
48524SOL     OW47468  13.009   1.247   2.526
48524SOL    HW147469  13.092   1.229   2.481
48524SOL    HW247470  13.034   1.264   2.617
48525SOL     OW47471  10.042  11.993  10.881
48525SOL    HW147472  10.010  11.907  10.853
48525SOL    HW247473   9.996  12.055  10.824
48526SOL     OW47474  10.512  14.817   7.712
48526SOL    HW147475  10.452   0.012   7.703
48526SOL    HW247476  10.497  14.786   7.801
48527SOL     OW47477  10.546  12.243   9.838
48527SOL    HW147478  10.550  12.235   9.934
48527SOL    HW247479  10.532  12.154   9.807
48528SOL     OW47480   0.618   6.891   0.490
48528SOL    HW147481   0.663   6.972   0.514
48528SOL    HW247482   0.630   6.833   0.565
48529SOL     OW47483   3.272   8.421   8.200
48529SOL    HW147484   3.339   8.364   8.162
48529SOL    HW247485   3.314   8.463   8.275
48530SOL     OW47486   5.200  10.824  10.710
48530SOL    HW147487   5.249  10.768  10.771
48530SOL    HW247488   5.129  10.861  10.763
48531SOL     OW47489   7.762   9.233  14.321
48531SOL    HW147490   7.816   9.313  14.316
48531SOL    HW247491   7.746   9.222  14.415
48532SOL     OW47492   9.758   1.779   8.233
48532SOL    HW147493   9.772   1.817   8.320
48532SOL    HW247494   9.746   1.854   8.175
48533SOL     OW47495  11.241  10.480   1.180
48533SOL    HW147496  11.302  10.432   1.124
48533SOL    HW247497  11.225  10.423   1.254
48534SOL     OW47498   6.977  12.346   6.613
48534SOL    HW147499   6.926  12.265   6.606
48534SOL    HW247500   7.031  12.334   6.691
48535SOL     OW47501  12.178   9.281   0.931
48535SOL    HW147502  12.099   9.290   0.986
48535SOL    HW247503  12.144   9.261   0.844
48536SOL     OW47504   0.453  14.761  13.466
48536SOL    HW147505   0.379  14.818  13.444
48536SOL    HW247506   0.430  14.725  13.551
48537SOL     OW47507  11.956   4.030   7.505
48537SOL    HW147508  11.887   3.996   7.562
48537SOL    HW247509  11.978   3.955   7.448
48538SOL     OW47510   4.096   3.169   5.784
48538SOL    HW147511   4.117   3.237   5.720
48538SOL    HW247512   4.181   3.146   5.823
48539SOL     OW47513   1.474   5.708   1.041
48539SOL    HW147514   1.381   5.689   1.054
48539SOL    HW247515   1.476   5.785   0.985
48540SOL     OW47516   9.945   3.399   6.230
48540SOL    HW147517   9.996   3.463   6.280
48540SOL    HW247518   9.869   3.380   6.286
48541SOL     OW47519   7.645  12.865  11.753
48541SOL    HW147520   7.740  12.855  11.743
48541SOL    HW247521   7.634  12.946  11.802
48542SOL     OW47522   4.803   8.632   3.472
48542SOL    HW147523   4.866   8.681   3.525
48542SOL    HW247524   4.761   8.573   3.534
48543SOL     OW47525   9.582   3.901  13.223
48543SOL    HW147526   9.532   3.956  13.283
48543SOL    HW247527   9.538   3.816  13.225
48544SOL     OW47528   0.876   5.213   8.570
48544SOL    HW147529   0.946   5.252   8.621
48544SOL    HW247530   0.881   5.119   8.590
48545SOL     OW47531   2.524   3.226   7.856
48545SOL    HW147532   2.535   3.281   7.778
48545SOL    HW247533   2.439   3.184   7.844
48546SOL     OW47534   7.073  10.554  10.623
48546SOL    HW147535   7.130  10.580  10.550
48546SOL    HW247536   7.045  10.637  10.662
48547SOL     OW47537   9.476   9.929  13.893
48547SOL    HW147538   9.556   9.877  13.881
48547SOL    HW247539   9.433   9.925  13.807
48548SOL     OW47540  11.379  10.766  11.955
48548SOL    HW147541  11.284  10.763  11.971
48548SOL    HW247542  11.412  10.686  11.995
48549SOL     OW47543   0.846  13.729  14.339
48549SOL    HW147544   0.789  13.652  14.335
48549SOL    HW247545   0.809  13.789  14.274
48550SOL     OW47546   7.194   0.102   2.088
48550SOL    HW147547   7.288   0.114   2.074
48550SOL    HW247548   7.167   0.180   2.136
48551SOL     OW47549   8.139   3.930  10.934
48551SOL    HW147550   8.097   4.011  10.963
48551SOL    HW247551   8.112   3.865  10.999
48552SOL     OW47552   7.625   9.822  10.787
48552SOL    HW147553   7.635   9.833  10.882
48552SOL    HW247554   7.696   9.764  10.762
48553SOL     OW47555   7.422  12.807  11.564
48553SOL    HW147556   7.479  12.850  11.627
48553SOL    HW247557   7.439  12.852  11.481
48554SOL     OW47558   8.321   4.345   2.071
48554SOL    HW147559   8.354   4.420   2.022
48554SOL    HW247560   8.325   4.273   2.008
48555SOL     OW47561  12.286   5.020   4.393
48555SOL    HW147562  12.322   5.039   4.307
48555SOL    HW247563  12.222   5.090   4.408
48556SOL     OW47564   8.016   3.457   4.530
48556SOL    HW147565   7.924   3.479   4.520
48556SOL    HW247566   8.021   3.363   4.509
48557SOL     OW47567   9.055  11.559   8.536
48557SOL    HW147568   9.020  11.611   8.608
48557SOL    HW247569   9.149  11.558   8.550
48558SOL     OW47570   2.142   3.528   5.830
48558SOL    HW147571   2.089   3.591   5.880
48558SOL    HW247572   2.176   3.468   5.895
48559SOL     OW47573  11.753  10.144   3.737
48559SOL    HW147574  11.752  10.089   3.815
48559SOL    HW247575  11.809  10.097   3.675
48560SOL     OW47576   5.838   1.505  11.569
48560SOL    HW147577   5.763   1.463  11.611
48560SOL    HW247578   5.799   1.565  11.505
48561SOL     OW47579   2.067  13.326   1.791
48561SOL    HW147580   2.139  13.263   1.803
48561SOL    HW247581   2.081  13.361   1.703
48562SOL     OW47582   1.814  13.966   7.668
48562SOL    HW147583   1.895  13.984   7.621
48562SOL    HW247584   1.831  13.885   7.715
48563SOL     OW47585   9.887   2.738   5.721
48563SOL    HW147586   9.830   2.784   5.660
48563SOL    HW247587   9.906   2.655   5.678
48564SOL     OW47588   0.820  11.883   5.650
48564SOL    HW147589   0.872  11.833   5.586
48564SOL    HW247590   0.763  11.817   5.690
48565SOL     OW47591   0.121   9.912  10.072
48565SOL    HW147592   0.176   9.988  10.093
48565SOL    HW247593   0.073   9.939   9.993
48566SOL     OW47594   6.596   1.614  11.220
48566SOL    HW147595   6.575   1.668  11.144
48566SOL    HW247596   6.691   1.622  11.231
48567SOL     OW47597   3.540   4.812   1.880
48567SOL    HW147598   3.596   4.878   1.922
48567SOL    HW247599   3.458   4.817   1.928
48568SOL     OW47600   5.444   6.455   7.893
48568SOL    HW147601   5.530   6.489   7.869
48568SOL    HW247602   5.460   6.405   7.974
48569SOL     OW47603   4.987  10.307   1.267
48569SOL    HW147604   4.906  10.358   1.278
48569SOL    HW247605   4.987  10.283   1.174
48570SOL     OW47606   1.354   7.507   0.041
48570SOL    HW147607   1.405   7.514  14.840
48570SOL    HW247608   1.387   7.578   0.097
48571SOL     OW47609  13.799   9.363  11.488
48571SOL    HW147610  13.845   9.301  11.545
48571SOL    HW247611  13.726   9.395  11.542
48572SOL     OW47612   7.624   6.359   8.124
48572SOL    HW147613   7.563   6.429   8.102
48572SOL    HW247614   7.675   6.394   8.197
48573SOL     OW47615  11.458   3.401   3.109
48573SOL    HW147616  11.468   3.409   3.014
48573SOL    HW247617  11.540   3.435   3.145
48574SOL     OW47618  12.755   9.211   0.735
48574SOL    HW147619  12.689   9.158   0.691
48574SOL    HW247620  12.715   9.235   0.819
48575SOL     OW47621   1.972   6.924   5.022
48575SOL    HW147622   2.050   6.948   5.072
48575SOL    HW247623   1.995   6.942   4.931
48576SOL     OW47624   4.889  12.765  11.757
48576SOL    HW147625   4.805  12.811  11.753
48576SOL    HW247626   4.865  12.674  11.775
48577SOL     OW47627   5.492   1.201  11.282
48577SOL    HW147628   5.476   1.192  11.376
48577SOL    HW247629   5.471   1.115  11.246
48578SOL     OW47630   3.779   2.197   5.807
48578SOL    HW147631   3.819   2.185   5.893
48578SOL    HW247632   3.688   2.217   5.825
48579SOL     OW47633  13.735  13.756  11.078
48579SOL    HW147634  13.717  13.797  10.994
48579SOL    HW247635  13.825  13.783  11.099
48580SOL     OW47636   2.462   8.248  13.439
48580SOL    HW147637   2.405   8.257  13.363
48580SOL    HW247638   2.514   8.328  13.441
48581SOL     OW47639   1.883   3.659  14.311
48581SOL    HW147640   1.954   3.686  14.252
48581SOL    HW247641   1.856   3.739  14.355
48582SOL     OW47642  12.583   9.349   1.433
48582SOL    HW147643  12.568   9.422   1.373
48582SOL    HW247644  12.511   9.353   1.496
48583SOL     OW47645   9.374   6.090   1.596
48583SOL    HW147646   9.370   6.137   1.513
48583SOL    HW247647   9.465   6.061   1.604
48584SOL     OW47648  10.035   7.649   8.847
48584SOL    HW147649   9.980   7.700   8.906
48584SOL    HW247650  10.029   7.695   8.764
48585SOL     OW47651   4.376   5.407   9.226
48585SOL    HW147652   4.468   5.414   9.200
48585SOL    HW247653   4.329   5.398   9.143
48586SOL     OW47654  10.609  12.480   5.748
48586SOL    HW147655  10.645  12.393   5.761
48586SOL    HW247656  10.514  12.466   5.742
48587SOL     OW47657  14.423  12.496  12.353
48587SOL    HW147658  14.334  12.487  12.386
48587SOL    HW247659  14.469  12.546  12.420
48588SOL     OW47660   5.171   4.665  10.016
48588SOL    HW147661   5.192   4.744   9.965
48588SOL    HW247662   5.120   4.611   9.956
48589SOL     OW47663  10.333  11.950  11.301
48589SOL    HW147664  10.259  11.962  11.241
48589SOL    HW247665  10.303  11.883  11.363
48590SOL     OW47666  10.784   6.383  13.882
48590SOL    HW147667  10.864   6.364  13.930
48590SOL    HW247668  10.810   6.380  13.790
48591SOL     OW47669  13.255   8.576   3.948
48591SOL    HW147670  13.165   8.552   3.970
48591SOL    HW247671  13.307   8.501   3.976
48592SOL     OW47672   1.921   1.016  14.860
48592SOL    HW147673   1.916   1.073  14.783
48592SOL    HW247674   1.947   1.075   0.051
48593SOL     OW47675  14.722  12.190  10.383
48593SOL    HW147676  14.709  12.098  10.407
48593SOL    HW247677  14.683  12.198  10.296
48594SOL     OW47678   2.198   2.781   5.576
48594SOL    HW147679   2.151   2.856   5.613
48594SOL    HW247680   2.289   2.795   5.601
48595SOL     OW47681   5.677  12.106  12.970
48595SOL    HW147682   5.689  12.029  12.915
48595SOL    HW247683   5.682  12.180  12.910
48596SOL     OW47684   0.593  10.640  11.222
48596SOL    HW147685   0.682  10.642  11.185
48596SOL    HW247686   0.588  10.556  11.268
48597SOL     OW47687   9.907   8.255  11.263
48597SOL    HW147688   9.978   8.233  11.203
48597SOL    HW247689   9.836   8.195  11.240
48598SOL     OW47690   4.352   8.652   7.879
48598SOL    HW147691   4.382   8.563   7.862
48598SOL    HW247692   4.362   8.697   7.795
48599SOL     OW47693   2.265   4.919   0.294
48599SOL    HW147694   2.299   4.961   0.373
48599SOL    HW247695   2.272   4.986   0.226
48600SOL     OW47696   5.839  11.569   8.021
48600SOL    HW147697   5.822  11.549   8.113
48600SOL    HW247698   5.767  11.628   7.996
48601SOL     OW47699   5.019   4.816   0.958
48601SOL    HW147700   4.994   4.726   0.937
48601SOL    HW247701   5.111   4.810   0.983
48602SOL     OW47702   6.204   2.133   0.141
48602SOL    HW147703   6.198   2.041   0.114
48602SOL    HW247704   6.114   2.159   0.156
48603SOL     OW47705   7.395   8.221   7.130
48603SOL    HW147706   7.301   8.206   7.134
48603SOL    HW247707   7.407   8.279   7.055
48604SOL     OW47708  12.794  11.342   0.390
48604SOL    HW147709  12.843  11.290   0.454
48604SOL    HW247710  12.713  11.365   0.435
48605SOL     OW47711   9.387   6.537  14.063
48605SOL    HW147712   9.482   6.533  14.046
48605SOL    HW247713   9.376   6.489  14.146
48606SOL     OW47714   8.537   7.324  14.567
48606SOL    HW147715   8.565   7.397  14.511
48606SOL    HW247716   8.608   7.315  14.631
48607SOL     OW47717   0.939   0.165   6.624
48607SOL    HW147718   0.898   0.156   6.538
48607SOL    HW247719   0.869   0.144   6.686
48608SOL     OW47720   4.919   9.752  13.628
48608SOL    HW147721   4.985   9.770  13.561
48608SOL    HW247722   4.861   9.687  13.589
48609SOL     OW47723  12.978   3.193   4.795
48609SOL    HW147724  13.045   3.258   4.815
48609SOL    HW247725  12.909   3.242   4.750
48610SOL     OW47726   5.729   1.771  13.753
48610SOL    HW147727   5.715   1.736  13.665
48610SOL    HW247728   5.661   1.837  13.764
48611SOL     OW47729  10.529   7.255  10.813
48611SOL    HW147730  10.489   7.312  10.748
48611SOL    HW247731  10.464   7.187  10.829
48612SOL     OW47732   2.250  11.277   9.780
48612SOL    HW147733   2.228  11.188   9.754
48612SOL    HW247734   2.203  11.332   9.718
48613SOL     OW47735   0.965  14.668  13.997
48613SOL    HW147736   0.872  14.647  14.000
48613SOL    HW247737   0.969  14.762  14.012
48614SOL     OW47738   5.014   6.960   5.515
48614SOL    HW147739   5.048   7.049   5.526
48614SOL    HW247740   5.005   6.926   5.603
48615SOL     OW47741   8.439   8.866   6.867
48615SOL    HW147742   8.501   8.917   6.918
48615SOL    HW247743   8.356   8.876   6.914
48616SOL     OW47744   5.019   7.104  14.059
48616SOL    HW147745   4.955   7.040  14.026
48616SOL    HW247746   5.104   7.066  14.037
48617SOL     OW47747   7.344   8.771   2.257
48617SOL    HW147748   7.404   8.705   2.222
48617SOL    HW247749   7.367   8.779   2.349
48618SOL     OW47750   2.060   4.479  11.702
48618SOL    HW147751   1.970   4.466  11.672
48618SOL    HW247752   2.052   4.500  11.795
48619SOL     OW47753   4.429   2.729   8.949
48619SOL    HW147754   4.483   2.801   8.980
48619SOL    HW247755   4.415   2.749   8.856
48620SOL     OW47756   2.660  12.826   3.017
48620SOL    HW147757   2.627  12.809   3.105
48620SOL    HW247758   2.690  12.741   2.986
48621SOL     OW47759  11.330  12.123  10.404
48621SOL    HW147760  11.272  12.124  10.480
48621SOL    HW247761  11.407  12.173  10.432
48622SOL     OW47762  12.878   1.234  10.635
48622SOL    HW147763  12.822   1.307  10.608
48622SOL    HW247764  12.945   1.229  10.567
48623SOL     OW47765   4.626   4.817  11.259
48623SOL    HW147766   4.708   4.826  11.210
48623SOL    HW247767   4.579   4.747  11.215
48624SOL     OW47768   4.631  14.232  12.428
48624SOL    HW147769   4.610  14.167  12.361
48624SOL    HW247770   4.610  14.316  12.388
48625SOL     OW47771  10.218   0.566   0.386
48625SOL    HW147772  10.291   0.507   0.365
48625SOL    HW247773  10.156   0.553   0.314
48626SOL     OW47774   4.605  13.108   0.877
48626SOL    HW147775   4.531  13.080   0.823
48626SOL    HW247776   4.572  13.181   0.929
48627SOL     OW47777   0.916  10.419  14.468
48627SOL    HW147778   0.922  10.458  14.381
48627SOL    HW247779   0.904  10.325  14.452
48628SOL     OW47780   3.602  12.588   3.664
48628SOL    HW147781   3.547  12.532   3.609
48628SOL    HW247782   3.560  12.674   3.660
48629SOL     OW47783   6.466   0.414   0.499
48629SOL    HW147784   6.522   0.492   0.504
48629SOL    HW247785   6.518   0.345   0.541
48630SOL     OW47786   1.596  14.385   8.703
48630SOL    HW147787   1.504  14.359   8.705
48630SOL    HW247788   1.642  14.306   8.675
48631SOL     OW47789   9.704  12.257  13.206
48631SOL    HW147790   9.714  12.323  13.138
48631SOL    HW247791   9.623  12.280  13.251
48632SOL     OW47792   2.520   6.847   7.902
48632SOL    HW147793   2.541   6.921   7.845
48632SOL    HW247794   2.439   6.873   7.945
48633SOL     OW47795   0.121   7.041   1.031
48633SOL    HW147796   0.077   7.085   0.958
48633SOL    HW247797   0.075   7.074   1.109
48634SOL     OW47798   4.940   8.929   3.460
48634SOL    HW147799   4.884   8.926   3.383
48634SOL    HW247800   4.999   9.002   3.444
48635SOL     OW47801  11.055   4.097  14.639
48635SOL    HW147802  11.110   4.175  14.643
48635SOL    HW247803  10.966   4.132  14.626
48636SOL     OW47804   9.336   1.645  14.119
48636SOL    HW147805   9.375   1.560  14.137
48636SOL    HW247806   9.411   1.702  14.099
48637SOL     OW47807   4.346  12.585  12.722
48637SOL    HW147808   4.369  12.608  12.632
48637SOL    HW247809   4.304  12.663  12.757
48638SOL     OW47810   6.039   6.403   2.814
48638SOL    HW147811   5.945   6.402   2.795
48638SOL    HW247812   6.080   6.416   2.729
48639SOL     OW47813  11.108   3.006   9.621
48639SOL    HW147814  11.148   2.970   9.701
48639SOL    HW247815  11.080   3.094   9.646
48640SOL     OW47816  14.590   8.390  11.656
48640SOL    HW147817  14.567   8.374  11.564
48640SOL    HW247818  14.514   8.435  11.692
48641SOL     OW47819   5.521  12.733   7.311
48641SOL    HW147820   5.432  12.762   7.331
48641SOL    HW247821   5.562  12.810   7.270
48642SOL     OW47822   7.825   8.697   6.592
48642SOL    HW147823   7.741   8.725   6.628
48642SOL    HW247824   7.829   8.603   6.611
48643SOL     OW47825   8.858   8.357   7.132
48643SOL    HW147826   8.861   8.356   7.036
48643SOL    HW247827   8.764   8.363   7.152
48644SOL     OW47828  14.558   9.402  10.402
48644SOL    HW147829  14.586   9.493  10.401
48644SOL    HW247830  14.617   9.359  10.463
48645SOL     OW47831   9.230  14.073   4.009
48645SOL    HW147832   9.304  14.026   3.971
48645SOL    HW247833   9.164  14.075   3.939
48646SOL     OW47834   4.956   5.558  12.912
48646SOL    HW147835   4.952   5.618  12.837
48646SOL    HW247836   4.915   5.478  12.880
48647SOL     OW47837  13.185   0.618   6.671
48647SOL    HW147838  13.133   0.633   6.750
48647SOL    HW247839  13.166   0.528   6.646
48648SOL     OW47840   8.956  10.109  14.668
48648SOL    HW147841   9.033  10.057  14.690
48648SOL    HW247842   8.883  10.049  14.679
48649SOL     OW47843   4.299   9.070   7.663
48649SOL    HW147844   4.358   9.143   7.646
48649SOL    HW247845   4.348   8.993   7.636
48650SOL     OW47846  12.072   6.995   7.928
48650SOL    HW147847  12.022   6.916   7.904
48650SOL    HW247848  12.009   7.048   7.978
48651SOL     OW47849  14.620  11.440   3.586
48651SOL    HW147850  14.538  11.414   3.545
48651SOL    HW247851  14.681  11.450   3.513
48652SOL     OW47852  13.480   3.083   4.187
48652SOL    HW147853  13.537   3.127   4.251
48652SOL    HW247854  13.536   3.070   4.111
48653SOL     OW47855   4.665   3.272   7.048
48653SOL    HW147856   4.645   3.280   6.954
48653SOL    HW247857   4.674   3.178   7.062
48654SOL     OW47858   1.334   3.090   1.954
48654SOL    HW147859   1.281   3.038   1.894
48654SOL    HW247860   1.303   3.180   1.942
48655SOL     OW47861  14.421   1.917   7.927
48655SOL    HW147862  14.369   1.839   7.946
48655SOL    HW247863  14.512   1.887   7.932
48656SOL     OW47864   2.796  11.267  14.545
48656SOL    HW147865   2.716  11.262  14.492
48656SOL    HW247866   2.827  11.176  14.550
48657SOL     OW47867  10.215   2.279   6.555
48657SOL    HW147868  10.266   2.357   6.577
48657SOL    HW247869  10.239   2.215   6.622
48658SOL     OW47870  11.326   8.579  13.949
48658SOL    HW147871  11.254   8.532  13.992
48658SOL    HW247872  11.366   8.514  13.891
48659SOL     OW47873   6.253   1.678  11.849
48659SOL    HW147874   6.215   1.757  11.889
48659SOL    HW247875   6.322   1.652  11.910
48660SOL     OW47876   6.288   0.783   5.331
48660SOL    HW147877   6.263   0.869   5.298
48660SOL    HW247878   6.217   0.725   5.303
48661SOL     OW47879  14.482  10.958   6.611
48661SOL    HW147880  14.558  10.962   6.552
48661SOL    HW247881  14.505  10.892   6.677
48662SOL     OW47882   9.301   9.822  14.874
48662SOL    HW147883   9.274   9.731   0.004
48662SOL    HW247884   9.387   9.826   0.037
48663SOL     OW47885  10.974   8.399  14.512
48663SOL    HW147886  10.894   8.363  14.549
48663SOL    HW247887  11.044   8.355  14.560
48664SOL     OW47888   2.531   0.272   5.656
48664SOL    HW147889   2.495   0.231   5.735
48664SOL    HW247890   2.491   0.224   5.584
48665SOL     OW47891   9.719   2.638   5.230
48665SOL    HW147892   9.761   2.575   5.289
48665SOL    HW247893   9.786   2.657   5.164
48666SOL     OW47894  11.200   4.225   7.064
48666SOL    HW147895  11.247   4.148   7.032
48666SOL    HW247896  11.240   4.299   7.018
48667SOL     OW47897   5.165  13.578   7.955
48667SOL    HW147898   5.129  13.526   8.027
48667SOL    HW247899   5.147  13.527   7.876
48668SOL     OW47900   0.585   4.965  12.772
48668SOL    HW147901   0.535   4.991  12.694
48668SOL    HW247902   0.595   5.045  12.823
48669SOL     OW47903   5.760   2.541  14.397
48669SOL    HW147904   5.839   2.572  14.352
48669SOL    HW247905   5.689   2.561  14.336
48670SOL     OW47906   8.192   0.953   3.838
48670SOL    HW147907   8.244   0.875   3.859
48670SOL    HW247908   8.247   1.003   3.777
48671SOL     OW47909   0.657   0.571   3.491
48671SOL    HW147910   0.740   0.613   3.468
48671SOL    HW247911   0.670   0.543   3.582
48672SOL     OW47912  12.976  14.773   8.166
48672SOL    HW147913  13.037  14.717   8.118
48672SOL    HW247914  13.002  14.764   8.258
48673SOL     OW47915  13.748   5.750  12.156
48673SOL    HW147916  13.666   5.762  12.107
48673SOL    HW247917  13.786   5.670  12.120
48674SOL     OW47918   4.082   7.213   1.146
48674SOL    HW147919   4.160   7.236   1.197
48674SOL    HW247920   4.077   7.280   1.078
48675SOL     OW47921   9.723   2.032  14.833
48675SOL    HW147922   9.790   1.975  14.870
48675SOL    HW247923   9.697   2.089   0.026
48676SOL     OW47924   3.366  10.888  10.418
48676SOL    HW147925   3.325  10.950  10.357
48676SOL    HW247926   3.453  10.872  10.381
48677SOL     OW47927   6.020   1.477   9.298
48677SOL    HW147928   6.029   1.533   9.221
48677SOL    HW247929   5.965   1.527   9.358
48678SOL     OW47930   4.133   8.562   5.283
48678SOL    HW147931   4.212   8.549   5.336
48678SOL    HW247932   4.130   8.485   5.226
48679SOL     OW47933  10.919   6.861  12.709
48679SOL    HW147934  10.948   6.889  12.796
48679SOL    HW247935  10.889   6.771  12.722
48680SOL     OW47936  14.458   3.995   6.472
48680SOL    HW147937  14.405   3.986   6.551
48680SOL    HW247938  14.407   3.951   6.404
48681SOL     OW47939   9.301   0.041  11.470
48681SOL    HW147940   9.249   0.052  11.390
48681SOL    HW247941   9.388   0.019  11.438
48682SOL     OW47942   6.021   7.868  13.389
48682SOL    HW147943   6.013   7.817  13.469
48682SOL    HW247944   5.954   7.834  13.331
48683SOL     OW47945   1.684   3.441   0.851
48683SOL    HW147946   1.609   3.497   0.833
48683SOL    HW247947   1.645   3.356   0.873
48684SOL     OW47948   3.394  11.390  13.559
48684SOL    HW147949   3.362  11.469  13.516
48684SOL    HW247950   3.447  11.421  13.632
48685SOL     OW47951   5.583  13.066   9.501
48685SOL    HW147952   5.597  13.109   9.585
48685SOL    HW247953   5.616  12.977   9.514
48686SOL     OW47954  10.513   2.038   5.610
48686SOL    HW147955  10.598   1.996   5.599
48686SOL    HW247956  10.478   2.047   5.521
48687SOL     OW47957   9.431  11.454   5.734
48687SOL    HW147958   9.454  11.516   5.803
48687SOL    HW247959   9.367  11.396   5.774
48688SOL     OW47960   3.812  13.300   8.209
48688SOL    HW147961   3.727  13.262   8.230
48688SOL    HW247962   3.865  13.284   8.287
48689SOL     OW47963   9.655   7.877   4.521
48689SOL    HW147964   9.609   7.906   4.443
48689SOL    HW247965   9.589   7.877   4.590
48690SOL     OW47966   1.948  12.944  11.374
48690SOL    HW147967   1.932  12.879  11.304
48690SOL    HW247968   1.904  12.907  11.451
48691SOL     OW47969  10.283   3.613  12.772
48691SOL    HW147970  10.275   3.520  12.793
48691SOL    HW247971  10.342   3.648  12.838
48692SOL     OW47972   3.400   8.829  10.483
48692SOL    HW147973   3.437   8.781  10.557
48692SOL    HW247974   3.317   8.863  10.516
48693SOL     OW47975   6.912   6.062  11.910
48693SOL    HW147976   6.927   6.081  11.817
48693SOL    HW247977   6.863   5.980  11.911
48694SOL     OW47978  14.413   1.399   6.952
48694SOL    HW147979  14.493   1.445   6.976
48694SOL    HW247980  14.438   1.345   6.877
48695SOL     OW47981  12.422  11.206   2.150
48695SOL    HW147982  12.360  11.232   2.081
48695SOL    HW247983  12.504  11.191   2.104
48696SOL     OW47984   3.195   4.411   1.579
48696SOL    HW147985   3.194   4.507   1.584
48696SOL    HW247986   3.257   4.385   1.647
48697SOL     OW47987  14.645   2.639   8.729
48697SOL    HW147988  14.726   2.689   8.736
48697SOL    HW247989  14.592   2.687   8.665
48698SOL     OW47990   9.196   5.067  12.989
48698SOL    HW147991   9.224   4.999  13.050
48698SOL    HW247992   9.187   5.021  12.905
48699SOL     OW47993   6.402   5.775   6.166
48699SOL    HW147994   6.355   5.828   6.230
48699SOL    HW247995   6.444   5.839   6.108
48700SOL     OW47996  10.866  12.913   9.430
48700SOL    HW147997  10.918  12.879   9.357
48700SOL    HW247998  10.779  12.928   9.392
48701SOL     OW47999  11.750  13.422   5.697
48701SOL    HW148000  11.845  13.414   5.699
48701SOL    HW248001  11.722  13.358   5.631
48702SOL     OW48002   5.338   0.021   7.761
48702SOL    HW148003   5.354  14.828   7.821
48702SOL    HW248004   5.415   0.020   7.703
48703SOL     OW48005   5.056   3.317  12.358
48703SOL    HW148006   4.964   3.344  12.354
48703SOL    HW248007   5.068   3.261  12.281
48704SOL     OW48008   0.897   8.207   0.441
48704SOL    HW148009   0.891   8.121   0.481
48704SOL    HW248010   0.923   8.265   0.512
48705SOL     OW48011   1.164   1.043   1.919
48705SOL    HW148012   1.249   1.017   1.885
48705SOL    HW248013   1.149   0.984   1.993
48706SOL     OW48014   5.813  11.420   2.832
48706SOL    HW148015   5.853  11.380   2.756
48706SOL    HW248016   5.845  11.369   2.906
48707SOL     OW48017   9.830  13.183   5.020
48707SOL    HW148018   9.873  13.157   4.938
48707SOL    HW248019   9.901  13.219   5.073
48708SOL     OW48020  12.203   0.019  14.572
48708SOL    HW148021  12.164  14.817  14.603
48708SOL    HW248022  12.134   0.085  14.585
48709SOL     OW48023   1.860   9.417   2.985
48709SOL    HW148024   1.912   9.498   2.988
48709SOL    HW248025   1.796   9.428   3.056
48710SOL     OW48026   4.450   9.935   1.685
48710SOL    HW148027   4.433   9.849   1.723
48710SOL    HW248028   4.487   9.985   1.758
48711SOL     OW48029  12.942  11.555   9.832
48711SOL    HW148030  12.904  11.515   9.910
48711SOL    HW248031  12.920  11.648   9.839
48712SOL     OW48032   8.074   1.001   8.749
48712SOL    HW148033   8.015   0.984   8.823
48712SOL    HW248034   8.102   0.914   8.720
48713SOL     OW48035   4.448   2.885   3.367
48713SOL    HW148036   4.443   2.895   3.463
48713SOL    HW248037   4.508   2.811   3.354
48714SOL     OW48038   8.779  12.128   5.561
48714SOL    HW148039   8.822  12.072   5.625
48714SOL    HW248040   8.782  12.078   5.479
48715SOL     OW48041   7.888   1.745   4.009
48715SOL    HW148042   7.914   1.665   4.056
48715SOL    HW248043   7.948   1.812   4.043
48716SOL     OW48044   6.173   3.185   1.128
48716SOL    HW148045   6.098   3.242   1.112
48716SOL    HW248046   6.153   3.105   1.080
48717SOL     OW48047   1.594   8.636  10.541
48717SOL    HW148048   1.689   8.649  10.543
48717SOL    HW248049   1.558   8.723  10.556
48718SOL     OW48050   6.961   6.399  13.597
48718SOL    HW148051   6.937   6.467  13.535
48718SOL    HW248052   6.995   6.446  13.673
48719SOL     OW48053  13.556  11.686  10.023
48719SOL    HW148054  13.597  11.675   9.937
48719SOL    HW248055  13.611  11.635  10.083
48720SOL     OW48056   4.993  13.477   9.773
48720SOL    HW148057   4.921  13.490   9.711
48720SOL    HW248058   5.066  13.445   9.720
48721SOL     OW48059   0.014  10.557  14.848
48721SOL    HW148060  14.855  10.611   0.037
48721SOL    HW248061  14.825  10.494  14.826
48722SOL     OW48062   0.684  10.487   2.117
48722SOL    HW148063   0.659  10.500   2.208
48722SOL    HW248064   0.639  10.558   2.069
48723SOL     OW48065  11.291  12.325  13.166
48723SOL    HW148066  11.278  12.410  13.208
48723SOL    HW248067  11.294  12.345  13.072
48724SOL     OW48068   9.221   6.776   6.306
48724SOL    HW148069   9.249   6.736   6.224
48724SOL    HW248070   9.217   6.704   6.369
48725SOL     OW48071   6.873  11.201   2.820
48725SOL    HW148072   6.786  11.185   2.857
48725SOL    HW248073   6.934  11.167   2.886
48726SOL     OW48074  13.710   8.122  12.050
48726SOL    HW148075  13.743   8.040  12.088
48726SOL    HW248076  13.782   8.184  12.062
48727SOL     OW48077   5.263   4.905  13.623
48727SOL    HW148078   5.283   4.886  13.531
48727SOL    HW248079   5.187   4.850  13.643
48728SOL     OW48080   6.317   7.832   5.514
48728SOL    HW148081   6.237   7.884   5.503
48728SOL    HW248082   6.320   7.811   5.607
48729SOL     OW48083   7.859   5.865  14.335
48729SOL    HW148084   7.932   5.805  14.319
48729SOL    HW248085   7.845   5.861  14.429
48730SOL     OW48086   0.423   8.300   9.085
48730SOL    HW148087   0.362   8.306   9.159
48730SOL    HW248088   0.448   8.208   9.082
48731SOL     OW48089   4.029   7.093   5.576
48731SOL    HW148090   4.079   7.152   5.519
48731SOL    HW248091   4.051   7.005   5.546
48732SOL     OW48092   1.712  12.273   1.297
48732SOL    HW148093   1.724  12.286   1.203
48732SOL    HW248094   1.625  12.234   1.305
48733SOL     OW48095   8.402   7.077  12.662
48733SOL    HW148096   8.347   7.062  12.738
48733SOL    HW248097   8.430   6.989  12.635
48734SOL     OW48098  13.557   8.597   8.262
48734SOL    HW148099  13.533   8.688   8.282
48734SOL    HW248100  13.566   8.556   8.348
48735SOL     OW48101   4.137  13.112  11.615
48735SOL    HW148102   4.130  13.129  11.709
48735SOL    HW248103   4.065  13.162  11.576
48736SOL     OW48104  11.645  10.706   9.124
48736SOL    HW148105  11.728  10.746   9.099
48736SOL    HW248106  11.582  10.743   9.062
48737SOL     OW48107   5.990   2.349   0.496
48737SOL    HW148108   6.065   2.290   0.484
48737SOL    HW248109   5.921   2.293   0.532
48738SOL     OW48110   1.250   7.649   9.177
48738SOL    HW148111   1.235   7.573   9.120
48738SOL    HW248112   1.165   7.692   9.182
48739SOL     OW48113  14.184   3.484  13.552
48739SOL    HW148114  14.241   3.547  13.507
48739SOL    HW248115  14.211   3.488  13.643
48740SOL     OW48116  14.033   9.673   4.184
48740SOL    HW148117  13.992   9.620   4.253
48740SOL    HW248118  13.970   9.672   4.112
48741SOL     OW48119   0.916   7.558  11.880
48741SOL    HW148120   0.965   7.506  11.817
48741SOL    HW248121   0.838   7.587  11.832
48742SOL     OW48122  12.019  12.220   7.244
48742SOL    HW148123  11.950  12.222   7.178
48742SOL    HW248124  12.096  12.186   7.198
48743SOL     OW48125   6.348   1.966   6.360
48743SOL    HW148126   6.382   1.919   6.284
48743SOL    HW248127   6.415   2.030   6.381
48744SOL     OW48128   4.597   7.465   6.272
48744SOL    HW148129   4.591   7.545   6.220
48744SOL    HW248130   4.630   7.494   6.357
48745SOL     OW48131  11.420  10.382  11.579
48745SOL    HW148132  11.483  10.452  11.593
48745SOL    HW248133  11.400  10.386  11.486
48746SOL     OW48134  14.294  10.800   7.778
48746SOL    HW148135  14.378  10.783   7.820
48746SOL    HW248136  14.229  10.783   7.846
48747SOL     OW48137  10.123   7.821  13.973
48747SOL    HW148138  10.156   7.908  13.995
48747SOL    HW248139  10.115   7.822  13.877
48748SOL     OW48140  14.172   3.709   0.928
48748SOL    HW148141  14.138   3.792   0.893
48748SOL    HW248142  14.102   3.646   0.914
48749SOL     OW48143   8.245   0.694  11.078
48749SOL    HW148144   8.338   0.693  11.103
48749SOL    HW248145   8.198   0.702  11.161
48750SOL     OW48146  11.884  12.497  14.649
48750SOL    HW148147  11.888  12.575  14.593
48750SOL    HW248148  11.798  12.501  14.690
48751SOL     OW48149   0.058   4.080   5.558
48751SOL    HW148150  14.847   4.051   5.550
48751SOL    HW248151   0.082   4.110   5.471
48752SOL     OW48152   8.508  10.132  11.743
48752SOL    HW148153   8.504  10.049  11.790
48752SOL    HW248154   8.601  10.144  11.722
48753SOL     OW48155   1.410  11.347  13.677
48753SOL    HW148156   1.367  11.430  13.656
48753SOL    HW248157   1.412  11.298  13.595
48754SOL     OW48158   7.989   0.013  14.859
48754SOL    HW148159   7.898  14.866  14.870
48754SOL    HW248160   7.985   0.105  14.833
48755SOL     OW48161  10.842   3.984   4.884
48755SOL    HW148162  10.878   3.898   4.863
48755SOL    HW248163  10.752   3.980   4.851
48756SOL     OW48164   0.978   6.462   9.040
48756SOL    HW148165   1.042   6.434   8.974
48756SOL    HW248166   0.944   6.380   9.076
48757SOL     OW48167   1.152   9.517  10.740
48757SOL    HW148168   1.218   9.514  10.671
48757SOL    HW248169   1.200   9.546  10.818
48758SOL     OW48170   1.822  10.793   8.742
48758SOL    HW148171   1.914  10.816   8.743
48758SOL    HW248172   1.818  10.715   8.685
48759SOL     OW48173  13.134   2.453  11.768
48759SOL    HW148174  13.062   2.495  11.815
48759SOL    HW248175  13.211   2.469  11.822
48760SOL     OW48176   0.819   8.595   1.813
48760SOL    HW148177   0.806   8.502   1.797
48760SOL    HW248178   0.733   8.626   1.842
48761SOL     OW48179   0.168   5.267  14.804
48761SOL    HW148180   0.209   5.327  14.866
48761SOL    HW248181   0.238   5.207  14.779
48762SOL     OW48182   4.404  11.724   1.398
48762SOL    HW148183   4.450  11.654   1.352
48762SOL    HW248184   4.443  11.804   1.365
48763SOL     OW48185   3.618  12.523   0.504
48763SOL    HW148186   3.523  12.518   0.518
48763SOL    HW248187   3.648  12.433   0.508
48764SOL     OW48188  14.123   8.484   6.403
48764SOL    HW148189  14.050   8.430   6.432
48764SOL    HW248190  14.097   8.573   6.426
48765SOL     OW48191   1.945   1.478  11.539
48765SOL    HW148192   1.952   1.485  11.635
48765SOL    HW248193   1.874   1.415  11.525
48766SOL     OW48194   7.022   6.781   8.934
48766SOL    HW148195   6.937   6.741   8.952
48766SOL    HW248196   7.055   6.734   8.857
48767SOL     OW48197   5.237  10.723  12.578
48767SOL    HW148198   5.327  10.703  12.606
48767SOL    HW248199   5.247  10.763  12.492
48768SOL     OW48200   3.337   6.529  12.257
48768SOL    HW148201   3.245   6.517  12.279
48768SOL    HW248202   3.338   6.607  12.201
48769SOL     OW48203  12.131  10.418   0.721
48769SOL    HW148204  12.117  10.443   0.813
48769SOL    HW248205  12.209  10.364   0.723
48770SOL     OW48206  12.691   1.007   5.004
48770SOL    HW148207  12.746   0.960   5.067
48770SOL    HW248208  12.615   0.951   4.992
48771SOL     OW48209   8.769  10.041  12.730
48771SOL    HW148210   8.726  10.087  12.657
48771SOL    HW248211   8.710  10.053  12.804
48772SOL     OW48212   1.682   6.592   8.050
48772SOL    HW148213   1.642   6.579   7.964
48772SOL    HW248214   1.682   6.505   8.091
48773SOL     OW48215   9.471   4.027   5.912
48773SOL    HW148216   9.449   4.002   6.002
48773SOL    HW248217   9.558   4.065   5.919
48774SOL     OW48218   7.352   1.363   5.868
48774SOL    HW148219   7.327   1.275   5.896
48774SOL    HW248220   7.374   1.409   5.949
48775SOL     OW48221   8.707   7.392  13.612
48775SOL    HW148222   8.645   7.353  13.674
48775SOL    HW248223   8.777   7.428  13.666
48776SOL     OW48224   2.371   6.033   4.644
48776SOL    HW148225   2.461   6.008   4.624
48776SOL    HW248226   2.363   6.022   4.739
48777SOL     OW48227   6.266   2.181   1.652
48777SOL    HW148228   6.266   2.241   1.578
48777SOL    HW248229   6.219   2.227   1.721
48778SOL     OW48230   2.278   0.251   4.887
48778SOL    HW148231   2.337   0.187   4.926
48778SOL    HW248232   2.195   0.204   4.876
48779SOL     OW48233   6.970  10.650   2.394
48779SOL    HW148234   6.909  10.724   2.394
48779SOL    HW248235   6.940  10.595   2.321
48780SOL     OW48236  12.562   9.395  13.790
48780SOL    HW148237  12.489   9.332  13.791
48780SOL    HW248238  12.531   9.468  13.843
48781SOL     OW48239   4.089  11.795   1.714
48781SOL    HW148240   4.024  11.770   1.780
48781SOL    HW248241   4.066  11.743   1.637
48782SOL     OW48242   8.867   7.394  10.614
48782SOL    HW148243   8.865   7.418  10.521
48782SOL    HW248244   8.957   7.369  10.631
48783SOL     OW48245   6.578  14.087  13.243
48783SOL    HW148246   6.643  14.136  13.195
48783SOL    HW248247   6.595  13.995  13.221
48784SOL     OW48248   7.616  12.220   9.871
48784SOL    HW148249   7.613  12.155   9.940
48784SOL    HW248250   7.689  12.278   9.895
48785SOL     OW48251   6.747  14.703   4.861
48785SOL    HW148252   6.734  14.691   4.767
48785SOL    HW248253   6.797  14.627   4.889
48786SOL     OW48254   3.969  10.420   2.807
48786SOL    HW148255   3.918  10.366   2.867
48786SOL    HW248256   4.058  10.417   2.840
48787SOL     OW48257  12.302   6.366   5.516
48787SOL    HW148258  12.292   6.413   5.433
48787SOL    HW248259  12.299   6.434   5.583
48788SOL     OW48260   3.076   9.192   5.693
48788SOL    HW148261   3.164   9.217   5.663
48788SOL    HW248262   3.041   9.272   5.732
48789SOL     OW48263   6.093  11.578  13.809
48789SOL    HW148264   6.188  11.571  13.805
48789SOL    HW248265   6.076  11.671  13.822
48790SOL     OW48266  12.349   5.705   3.526
48790SOL    HW148267  12.366   5.614   3.549
48790SOL    HW248268  12.422   5.753   3.564
48791SOL     OW48269   3.484   2.109   4.253
48791SOL    HW148270   3.562   2.131   4.202
48791SOL    HW248271   3.451   2.028   4.212
48792SOL     OW48272   7.713   1.779   0.389
48792SOL    HW148273   7.744   1.721   0.320
48792SOL    HW248274   7.787   1.788   0.448
48793SOL     OW48275   9.652   4.946   1.105
48793SOL    HW148276   9.609   5.014   1.052
48793SOL    HW248277   9.581   4.906   1.155
48794SOL     OW48278   1.304   3.841  12.261
48794SOL    HW148279   1.399   3.839  12.265
48794SOL    HW248280   1.281   3.775  12.196
48795SOL     OW48281   2.134   9.682  10.674
48795SOL    HW148282   2.189   9.609  10.703
48795SOL    HW248283   2.109   9.727  10.754
48796SOL     OW48284  10.283  14.337   5.617
48796SOL    HW148285  10.214  14.387   5.574
48796SOL    HW248286  10.324  14.287   5.546
48797SOL     OW48287   0.691   9.146   4.645
48797SOL    HW148288   0.649   9.193   4.717
48797SOL    HW248289   0.731   9.069   4.686
48798SOL     OW48290   0.984  12.837  13.203
48798SOL    HW148291   1.042  12.787  13.260
48798SOL    HW248292   1.032  12.916  13.181
48799SOL     OW48293   8.795   7.136   4.590
48799SOL    HW148294   8.719   7.116   4.535
48799SOL    HW248295   8.781   7.086   4.670
48800SOL     OW48296   9.797   8.775   8.618
48800SOL    HW148297   9.823   8.687   8.591
48800SOL    HW248298   9.760   8.815   8.539
48801SOL     OW48299   8.293  10.401   5.730
48801SOL    HW148300   8.384  10.370   5.723
48801SOL    HW248301   8.262  10.407   5.640
48802SOL     OW48302   3.344  12.153  11.478
48802SOL    HW148303   3.430  12.111  11.476
48802SOL    HW248304   3.342  12.199  11.562
48803SOL     OW48305  14.323  13.057   9.209
48803SOL    HW148306  14.412  13.089   9.219
48803SOL    HW248307  14.276  13.129   9.167
48804SOL     OW48308   3.257  14.006  13.748
48804SOL    HW148309   3.171  13.964  13.747
48804SOL    HW248310   3.304  13.966  13.675
48805SOL     OW48311   9.694   8.412  11.359
48805SOL    HW148312   9.656   8.483  11.306
48805SOL    HW248313   9.748   8.363  11.298
48806SOL     OW48314   3.185   9.086   7.685
48806SOL    HW148315   3.190   9.047   7.772
48806SOL    HW248316   3.248   9.159   7.688
48807SOL     OW48317  10.948   4.183   7.158
48807SOL    HW148318  11.038   4.199   7.132
48807SOL    HW248319  10.949   4.188   7.254
48808SOL     OW48320   8.765   8.786   2.285
48808SOL    HW148321   8.745   8.698   2.252
48808SOL    HW248322   8.681   8.821   2.313
48809SOL     OW48323  13.364  10.793   3.169
48809SOL    HW148324  13.356  10.709   3.123
48809SOL    HW248325  13.425  10.775   3.241
48810SOL     OW48326   0.071   5.126  14.374
48810SOL    HW148327   0.021   5.186  14.319
48810SOL    HW248328   0.030   5.131  14.460
48811SOL     OW48329  12.348  11.202   1.033
48811SOL    HW148330  12.410  11.161   1.092
48811SOL    HW248331  12.263  11.163   1.056
48812SOL     OW48332   7.210   0.786   6.613
48812SOL    HW148333   7.124   0.744   6.622
48812SOL    HW248334   7.217   0.805   6.519
48813SOL     OW48335   0.429  10.987   7.420
48813SOL    HW148336   0.360  11.053   7.413
48813SOL    HW248337   0.507  11.037   7.443
48814SOL     OW48338   5.785  12.389  10.178
48814SOL    HW148339   5.829  12.429  10.254
48814SOL    HW248340   5.692  12.389  10.202
48815SOL     OW48341   1.624   1.299   6.684
48815SOL    HW148342   1.663   1.386   6.684
48815SOL    HW248343   1.693   1.242   6.720
48816SOL     OW48344   5.786   2.464   3.245
48816SOL    HW148345   5.866   2.475   3.194
48816SOL    HW248346   5.719   2.444   3.180
48817SOL     OW48347   2.824  14.066   5.714
48817SOL    HW148348   2.846  13.999   5.649
48817SOL    HW248349   2.908  14.087   5.756
48818SOL     OW48350  10.118   3.940   7.802
48818SOL    HW148351  10.066   3.994   7.862
48818SOL    HW248352  10.083   3.851   7.814
48819SOL     OW48353   5.323   5.061  14.010
48819SOL    HW148354   5.238   5.088  13.976
48819SOL    HW248355   5.309   5.050  14.104
48820SOL     OW48356   8.099  12.040  13.115
48820SOL    HW148357   8.172  12.024  13.175
48820SOL    HW248358   8.033  11.974  13.139
48821SOL     OW48359  12.897   1.230  11.680
48821SOL    HW148360  12.867   1.271  11.762
48821SOL    HW248361  12.963   1.290  11.646
48822SOL     OW48362   1.142   2.045  12.309
48822SOL    HW148363   1.103   1.976  12.256
48822SOL    HW248364   1.235   2.042  12.287
48823SOL     OW48365  13.787  12.885  10.275
48823SOL    HW148366  13.760  12.800  10.310
48823SOL    HW248367  13.826  12.864  10.190
48824SOL     OW48368   2.403   0.745  12.900
48824SOL    HW148369   2.429   0.662  12.860
48824SOL    HW248370   2.419   0.810  12.831
48825SOL     OW48371   3.036   6.513   4.028
48825SOL    HW148372   2.952   6.477   4.057
48825SOL    HW248373   3.015   6.562   3.949
48826SOL     OW48374   6.989   6.224   9.610
48826SOL    HW148375   6.933   6.188   9.542
48826SOL    HW248376   7.001   6.316   9.585
48827SOL     OW48377   5.137   9.913   3.281
48827SOL    HW148378   5.214   9.868   3.245
48827SOL    HW248379   5.134   9.886   3.373
48828SOL     OW48380   5.285   4.117  13.878
48828SOL    HW148381   5.319   4.068  13.953
48828SOL    HW248382   5.314   4.068  13.801
48829SOL     OW48383  12.283   3.669   4.151
48829SOL    HW148384  12.228   3.734   4.106
48829SOL    HW248385  12.368   3.713   4.161
48830SOL     OW48386   3.496  13.943   8.403
48830SOL    HW148387   3.517  13.890   8.325
48830SOL    HW248388   3.569  13.928   8.463
48831SOL     OW48389   1.605   7.053   5.978
48831SOL    HW148390   1.685   7.085   5.936
48831SOL    HW248391   1.605   7.095   6.064
48832SOL     OW48392  11.420   0.979   7.660
48832SOL    HW148393  11.407   1.057   7.714
48832SOL    HW248394  11.333   0.941   7.653
48833SOL     OW48395  11.736   7.688   1.048
48833SOL    HW148396  11.752   7.680   1.142
48833SOL    HW248397  11.700   7.776   1.037
48834SOL     OW48398  11.491   9.934   3.921
48834SOL    HW148399  11.461   9.863   3.978
48834SOL    HW248400  11.565   9.896   3.873
48835SOL     OW48401  11.704   1.539   6.437
48835SOL    HW148402  11.772   1.537   6.504
48835SOL    HW248403  11.630   1.582   6.480
48836SOL     OW48404  14.754   6.374  12.177
48836SOL    HW148405  14.671   6.328  12.166
48836SOL    HW248406  14.821   6.308  12.164
48837SOL     OW48407  11.892   9.105  14.161
48837SOL    HW148408  11.945   9.032  14.127
48837SOL    HW248409  11.918   9.112  14.253
48838SOL     OW48410   2.978  11.510  10.416
48838SOL    HW148411   2.946  11.529  10.328
48838SOL    HW248412   2.922  11.564  10.473
48839SOL     OW48413   4.646  11.626   8.355
48839SOL    HW148414   4.657  11.542   8.399
48839SOL    HW248415   4.672  11.691   8.421
48840SOL     OW48416  14.314  14.138   1.864
48840SOL    HW148417  14.219  14.128   1.857
48840SOL    HW248418  14.327  14.233   1.872
48841SOL     OW48419  14.513   7.820   7.774
48841SOL    HW148420  14.574   7.787   7.707
48841SOL    HW248421  14.520   7.915   7.768
48842SOL     OW48422   8.945  11.812  14.329
48842SOL    HW148423   8.900  11.729  14.344
48842SOL    HW248424   8.914  11.842  14.244
48843SOL     OW48425   0.386  13.638  14.179
48843SOL    HW148426   0.361  13.585  14.255
48843SOL    HW248427   0.456  13.587  14.137
48844SOL     OW48428   8.769   1.112   5.113
48844SOL    HW148429   8.822   1.033   5.128
48844SOL    HW248430   8.781   1.132   5.020
48845SOL     OW48431   5.476   9.714   5.840
48845SOL    HW148432   5.447   9.805   5.831
48845SOL    HW248433   5.429   9.667   5.771
48846SOL     OW48434  10.091   7.492   0.865
48846SOL    HW148435  10.134   7.522   0.945
48846SOL    HW248436   9.998   7.492   0.885
48847SOL     OW48437   6.443   5.046   0.408
48847SOL    HW148438   6.524   5.096   0.419
48847SOL    HW248439   6.472   4.955   0.407
48848SOL     OW48440  11.351   6.581   0.979
48848SOL    HW148441  11.440   6.606   0.954
48848SOL    HW248442  11.295   6.638   0.927
48849SOL     OW48443   4.543  11.940   8.872
48849SOL    HW148444   4.542  12.025   8.827
48849SOL    HW248445   4.608  11.951   8.942
48850SOL     OW48446  12.707   4.690   5.976
48850SOL    HW148447  12.791   4.659   6.008
48850SOL    HW248448  12.729   4.767   5.924
48851SOL     OW48449   2.216   7.518  10.381
48851SOL    HW148450   2.266   7.530  10.300
48851SOL    HW248451   2.238   7.429  10.409
48852SOL     OW48452  10.828   8.183  12.108
48852SOL    HW148453  10.808   8.190  12.202
48852SOL    HW248454  10.764   8.121  12.074
48853SOL     OW48455   2.746  14.315   2.966
48853SOL    HW148456   2.813  14.349   3.025
48853SOL    HW248457   2.675  14.287   3.024
48854SOL     OW48458  10.019   3.198   8.882
48854SOL    HW148459  10.011   3.105   8.861
48854SOL    HW248460   9.969   3.243   8.814
48855SOL     OW48461  13.447   0.581  11.478
48855SOL    HW148462  13.508   0.636  11.429
48855SOL    HW248463  13.362   0.597  11.438
48856SOL     OW48464  10.701   0.582  13.725
48856SOL    HW148465  10.743   0.534  13.654
48856SOL    HW248466  10.772   0.627  13.770
48857SOL     OW48467  11.964   6.204   9.286
48857SOL    HW148468  11.991   6.279   9.338
48857SOL    HW248469  12.041   6.147   9.284
48858SOL     OW48470   1.098  10.307   9.464
48858SOL    HW148471   1.023  10.299   9.523
48858SOL    HW248472   1.173  10.316   9.522
48859SOL     OW48473   4.012  11.098   8.943
48859SOL    HW148474   4.100  11.059   8.949
48859SOL    HW248475   3.968  11.070   9.023
48860SOL     OW48476   0.912  13.356   3.579
48860SOL    HW148477   0.848  13.298   3.619
48860SOL    HW248478   0.862  13.408   3.516
48861SOL     OW48479   4.216   1.757  13.480
48861SOL    HW148480   4.296   1.753  13.427
48861SOL    HW248481   4.244   1.737  13.569
48862SOL     OW48482  13.540   7.316   4.310
48862SOL    HW148483  13.565   7.405   4.335
48862SOL    HW248484  13.497   7.326   4.225
48863SOL     OW48485   6.926   9.923   1.283
48863SOL    HW148486   6.944  10.003   1.331
48863SOL    HW248487   6.839   9.895   1.314
48864SOL     OW48488   4.656   8.110   0.571
48864SOL    HW148489   4.586   8.110   0.636
48864SOL    HW248490   4.620   8.059   0.498
48865SOL     OW48491   3.414   9.459   4.373
48865SOL    HW148492   3.414   9.364   4.386
48865SOL    HW248493   3.329   9.488   4.405
48866SOL     OW48494   7.967  14.360   4.259
48866SOL    HW148495   7.970  14.273   4.298
48866SOL    HW248496   7.878  14.368   4.225
48867SOL     OW48497  13.561  14.031  10.097
48867SOL    HW148498  13.590  13.941  10.086
48867SOL    HW248499  13.522  14.054  10.013
48868SOL     OW48500   1.398   6.318   9.521
48868SOL    HW148501   1.329   6.384   9.524
48868SOL    HW248502   1.373   6.260   9.450
48869SOL     OW48503   8.601   6.777   8.761
48869SOL    HW148504   8.621   6.684   8.770
48869SOL    HW248505   8.684   6.821   8.781
48870SOL     OW48506  12.536   6.752   1.860
48870SOL    HW148507  12.551   6.712   1.774
48870SOL    HW248508  12.623   6.773   1.892
48871SOL     OW48509  10.502   9.262   9.309
48871SOL    HW148510  10.552   9.234   9.386
48871SOL    HW248511  10.491   9.182   9.257
48872SOL     OW48512  13.678   8.849   8.886
48872SOL    HW148513  13.767   8.814   8.879
48872SOL    HW248514  13.658   8.844   8.979
48873SOL     OW48515  10.896   1.523   6.567
48873SOL    HW148516  10.919   1.449   6.511
48873SOL    HW248517  10.877   1.483   6.652
48874SOL     OW48518   3.167  12.877   3.489
48874SOL    HW148519   3.083  12.922   3.482
48874SOL    HW248520   3.191  12.884   3.581
48875SOL     OW48521  13.694   2.335   7.119
48875SOL    HW148522  13.645   2.281   7.180
48875SOL    HW248523  13.767   2.279   7.090
48876SOL     OW48524  11.707  13.126   9.214
48876SOL    HW148525  11.702  13.222   9.218
48876SOL    HW248526  11.734  13.107   9.124
48877SOL     OW48527   9.558  10.689   2.851
48877SOL    HW148528   9.464  10.701   2.845
48877SOL    HW248529   9.595  10.768   2.811
48878SOL     OW48530  12.608   2.890   9.020
48878SOL    HW148531  12.525   2.852   8.989
48878SOL    HW248532  12.649   2.819   9.070
48879SOL     OW48533  11.593   5.546   7.890
48879SOL    HW148534  11.582   5.537   7.985
48879SOL    HW248535  11.675   5.501   7.870
48880SOL     OW48536  14.187  10.700  14.121
48880SOL    HW148537  14.116  10.685  14.060
48880SOL    HW248538  14.260  10.731  14.067
48881SOL     OW48539  11.323  13.569   1.740
48881SOL    HW148540  11.275  13.533   1.815
48881SOL    HW248541  11.259  13.568   1.669
48882SOL     OW48542   4.215   0.822   6.666
48882SOL    HW148543   4.142   0.784   6.616
48882SOL    HW248544   4.177   0.842   6.751
48883SOL     OW48545  14.425  10.914  10.795
48883SOL    HW148546  14.482  10.948  10.727
48883SOL    HW248547  14.448  10.822  10.802
48884SOL     OW48548   6.243  14.132   5.671
48884SOL    HW148549   6.207  14.049   5.638
48884SOL    HW248550   6.169  14.192   5.672
48885SOL     OW48551   2.664   4.391   7.534
48885SOL    HW148552   2.590   4.383   7.474
48885SOL    HW248553   2.687   4.301   7.557
48886SOL     OW48554  11.320   1.250   0.533
48886SOL    HW148555  11.336   1.178   0.471
48886SOL    HW248556  11.396   1.307   0.523
48887SOL     OW48557   5.680  11.780  12.265
48887SOL    HW148558   5.625  11.730  12.205
48887SOL    HW248559   5.770  11.764  12.235
48888SOL     OW48560  13.968  12.214   3.459
48888SOL    HW148561  13.973  12.304   3.494
48888SOL    HW248562  13.948  12.160   3.535
48889SOL     OW48563  11.943   3.343   2.398
48889SOL    HW148564  11.927   3.421   2.450
48889SOL    HW248565  11.922   3.270   2.457
48890SOL     OW48566   0.970  10.075   8.347
48890SOL    HW148567   0.943  10.166   8.354
48890SOL    HW248568   1.060  10.073   8.379
48891SOL     OW48569  10.944   0.415   7.144
48891SOL    HW148570  10.957   0.347   7.078
48891SOL    HW248571  10.884   0.376   7.208
48892SOL     OW48572  14.223   9.539   4.900
48892SOL    HW148573  14.232   9.444   4.887
48892SOL    HW248574  14.261   9.577   4.820
48893SOL     OW48575   1.324   7.311   2.832
48893SOL    HW148576   1.251   7.362   2.867
48893SOL    HW248577   1.292   7.221   2.829
48894SOL     OW48578  10.677  13.966   0.510
48894SOL    HW148579  10.718  13.882   0.488
48894SOL    HW248580  10.721  13.993   0.591
48895SOL     OW48581   4.412  14.627   2.951
48895SOL    HW148582   4.375  14.638   3.039
48895SOL    HW248583   4.478  14.559   2.961
48896SOL     OW48584  12.843   1.409   5.863
48896SOL    HW148585  12.939   1.413   5.865
48896SOL    HW248586  12.824   1.368   5.778
48897SOL     OW48587   0.467   5.277   4.015
48897SOL    HW148588   0.513   5.194   4.025
48897SOL    HW248589   0.443   5.281   3.922
48898SOL     OW48590  14.614   0.438   0.536
48898SOL    HW148591  14.671   0.362   0.522
48898SOL    HW248592  14.674   0.511   0.547
48899SOL     OW48593   0.864   9.857   7.727
48899SOL    HW148594   0.935   9.838   7.666
48899SOL    HW248595   0.827   9.940   7.695
48900SOL     OW48596   8.995  13.774  11.458
48900SOL    HW148597   9.038  13.697  11.494
48900SOL    HW248598   8.990  13.757  11.364
48901SOL     OW48599   3.129   4.738   6.067
48901SOL    HW148600   3.079   4.659   6.043
48901SOL    HW248601   3.080   4.776   6.139
48902SOL     OW48602   5.428   7.288   4.373
48902SOL    HW148603   5.358   7.340   4.334
48902SOL    HW248604   5.407   7.285   4.466
48903SOL     OW48605   4.955   4.049   3.909
48903SOL    HW148606   4.920   3.987   3.844
48903SOL    HW248607   4.989   4.122   3.857
48904SOL     OW48608   6.048   3.767   7.545
48904SOL    HW148609   6.000   3.730   7.470
48904SOL    HW248610   6.137   3.733   7.536
48905SOL     OW48611   2.304   5.442  12.782
48905SOL    HW148612   2.273   5.440  12.872
48905SOL    HW248613   2.384   5.495  12.786
48906SOL     OW48614   2.953   0.888  13.565
48906SOL    HW148615   2.966   0.855  13.477
48906SOL    HW248616   2.878   0.947  13.558
48907SOL     OW48617  14.136   6.729   9.778
48907SOL    HW148618  14.161   6.793   9.713
48907SOL    HW248619  14.218   6.686   9.803
48908SOL     OW48620  14.268   2.650   5.784
48908SOL    HW148621  14.345   2.701   5.810
48908SOL    HW248622  14.207   2.715   5.750
48909SOL     OW48623  11.022  12.046   7.355
48909SOL    HW148624  10.990  11.961   7.384
48909SOL    HW248625  11.067  12.027   7.273
48910SOL     OW48626   4.583  11.773  11.554
48910SOL    HW148627   4.609  11.800  11.642
48910SOL    HW248628   4.645  11.704  11.531
48911SOL     OW48629   6.744   0.090   4.931
48911SOL    HW148630   6.693   0.086   5.012
48911SOL    HW248631   6.734   0.003   4.892
48912SOL     OW48632   7.038   6.720   6.905
48912SOL    HW148633   7.093   6.648   6.873
48912SOL    HW248634   7.100   6.791   6.922
48913SOL     OW48635  13.408   8.760  14.429
48913SOL    HW148636  13.422   8.741  14.336
48913SOL    HW248637  13.385   8.676  14.468
48914SOL     OW48638   6.741   3.684   8.600
48914SOL    HW148639   6.821   3.677   8.549
48914SOL    HW248640   6.713   3.593   8.613
48915SOL     OW48641  14.033   2.584   4.562
48915SOL    HW148642  14.112   2.582   4.616
48915SOL    HW248643  13.965   2.614   4.621
48916SOL     OW48644  13.369   8.157  11.509
48916SOL    HW148645  13.329   8.111  11.583
48916SOL    HW248646  13.463   8.156  11.528
48917SOL     OW48647   6.497   5.515   6.465
48917SOL    HW148648   6.419   5.560   6.497
48917SOL    HW248649   6.550   5.501   6.543
48918SOL     OW48650   9.337   0.328  12.123
48918SOL    HW148651   9.268   0.366  12.070
48918SOL    HW248652   9.411   0.318  12.064
48919SOL     OW48653  13.698  12.163   8.592
48919SOL    HW148654  13.694  12.111   8.512
48919SOL    HW248655  13.681  12.100   8.662
48920SOL     OW48656  10.312  14.429   5.883
48920SOL    HW148657  10.310  14.367   5.956
48920SOL    HW248658  10.275  14.379   5.809
48921SOL     OW48659   6.319   5.466   0.579
48921SOL    HW148660   6.338   5.373   0.588
48921SOL    HW248661   6.363   5.492   0.498
48922SOL     OW48662   5.032   4.104   8.529
48922SOL    HW148663   5.022   4.021   8.575
48922SOL    HW248664   5.115   4.139   8.560
48923SOL     OW48665   2.161   5.262  11.121
48923SOL    HW148666   2.130   5.176  11.090
48923SOL    HW248667   2.131   5.323  11.055
48924SOL     OW48668  12.356  10.884   1.502
48924SOL    HW148669  12.294  10.897   1.574
48924SOL    HW248670  12.308  10.913   1.424
48925SOL     OW48671   6.383   3.334  13.852
48925SOL    HW148672   6.420   3.282  13.781
48925SOL    HW248673   6.422   3.298  13.931
48926SOL     OW48674  13.973   7.088   8.157
48926SOL    HW148675  14.003   7.035   8.083
48926SOL    HW248676  14.032   7.065   8.228
48927SOL     OW48677   0.744   2.771   2.521
48927SOL    HW148678   0.667   2.751   2.573
48927SOL    HW248679   0.781   2.849   2.562
48928SOL     OW48680   9.672   9.253   2.810
48928SOL    HW148681   9.591   9.216   2.775
48928SOL    HW248682   9.729   9.261   2.733
48929SOL     OW48683  14.624   8.389  13.311
48929SOL    HW148684  14.709   8.405  13.352
48929SOL    HW248685  14.627   8.439  13.229
48930SOL     OW48686  11.391  11.940  14.711
48930SOL    HW148687  11.344  11.969  14.788
48930SOL    HW248688  11.405  12.020  14.660
48931SOL     OW48689   5.426   0.788   4.619
48931SOL    HW148690   5.374   0.782   4.539
48931SOL    HW248691   5.472   0.871   4.611
48932SOL     OW48692   0.644   5.323   5.926
48932SOL    HW148693   0.696   5.400   5.903
48932SOL    HW248694   0.647   5.269   5.846
48933SOL     OW48695  12.341   1.822   8.514
48933SOL    HW148696  12.249   1.822   8.488
48933SOL    HW248697  12.389   1.809   8.433
48934SOL     OW48698  10.951  14.307  10.831
48934SOL    HW148699  10.946  14.309  10.735
48934SOL    HW248700  11.005  14.230  10.850
48935SOL     OW48701  14.692  11.855  13.274
48935SOL    HW148702  14.772  11.876  13.323
48935SOL    HW248703  14.622  11.899  13.321
48936SOL     OW48704  11.241   1.902   1.186
48936SOL    HW148705  11.330   1.873   1.165
48936SOL    HW248706  11.187   1.864   1.118
48937SOL     OW48707   2.167   4.934  13.575
48937SOL    HW148708   2.171   4.931  13.479
48937SOL    HW248709   2.074   4.933  13.596
48938SOL     OW48710   0.437   5.237   2.169
48938SOL    HW148711   0.389   5.179   2.110
48938SOL    HW248712   0.406   5.213   2.257
48939SOL     OW48713   7.297   9.092  12.234
48939SOL    HW148714   7.280   9.046  12.316
48939SOL    HW248715   7.329   9.024  12.175
48940SOL     OW48716  10.918  14.567  14.535
48940SOL    HW148717  10.947  14.505  14.469
48940SOL    HW248718  10.997  14.615  14.559
48941SOL     OW48719   2.126   6.707   2.877
48941SOL    HW148720   2.133   6.784   2.933
48941SOL    HW248721   2.201   6.712   2.819
48942SOL     OW48722   1.374   3.611   4.365
48942SOL    HW148723   1.331   3.530   4.393
48942SOL    HW248724   1.302   3.666   4.336
48943SOL     OW48725   4.671   2.069   8.272
48943SOL    HW148726   4.636   2.135   8.213
48943SOL    HW248727   4.602   2.003   8.279
48944SOL     OW48728   8.124   4.205   4.307
48944SOL    HW148729   8.170   4.276   4.353
48944SOL    HW248730   8.071   4.164   4.376
48945SOL     OW48731  13.493   8.374   6.897
48945SOL    HW148732  13.586   8.357   6.909
48945SOL    HW248733  13.457   8.292   6.864
48946SOL     OW48734   0.394   0.380  10.350
48946SOL    HW148735   0.378   0.342  10.436
48946SOL    HW248736   0.316   0.431  10.330
48947SOL     OW48737  12.659   4.391   9.962
48947SOL    HW148738  12.659   4.296   9.970
48947SOL    HW248739  12.570   4.413   9.935
48948SOL     OW48740   9.852   4.754   6.145
48948SOL    HW148741   9.892   4.837   6.119
48948SOL    HW248742   9.785   4.738   6.080
48949SOL     OW48743  10.771   2.318   7.592
48949SOL    HW148744  10.705   2.250   7.583
48949SOL    HW248745  10.722   2.400   7.586
48950SOL     OW48746   8.178   2.856   5.236
48950SOL    HW148747   8.175   2.861   5.332
48950SOL    HW248748   8.182   2.947   5.207
48951SOL     OW48749   9.170   4.737   2.992
48951SOL    HW148750   9.100   4.686   2.951
48951SOL    HW248751   9.125   4.804   3.043
48952SOL     OW48752  12.502  10.880  11.712
48952SOL    HW148753  12.561  10.951  11.686
48952SOL    HW248754  12.488  10.893  11.806
48953SOL     OW48755  10.148  10.877   9.486
48953SOL    HW148756  10.156  10.785   9.463
48953SOL    HW248757  10.142  10.878   9.581
48954SOL     OW48758   4.226   9.897  13.127
48954SOL    HW148759   4.222   9.923  13.035
48954SOL    HW248760   4.301   9.945  13.162
48955SOL     OW48761   1.605   1.651   1.740
48955SOL    HW148762   1.697   1.652   1.715
48955SOL    HW248763   1.558   1.678   1.660
48956SOL     OW48764   2.428   3.909   8.971
48956SOL    HW148765   2.474   3.833   9.007
48956SOL    HW248766   2.489   3.982   8.984
48957SOL     OW48767   7.594   5.684  12.613
48957SOL    HW148768   7.612   5.774  12.643
48957SOL    HW248769   7.581   5.692  12.519
48958SOL     OW48770   8.880   9.258  11.957
48958SOL    HW148771   8.951   9.308  11.917
48958SOL    HW248772   8.903   9.167  11.941
48959SOL     OW48773   2.633   7.576   8.962
48959SOL    HW148774   2.677   7.494   8.940
48959SOL    HW248775   2.620   7.571   9.057
48960SOL     OW48776   7.005   7.502   3.333
48960SOL    HW148777   7.053   7.479   3.412
48960SOL    HW248778   7.071   7.534   3.273
48961SOL     OW48779   6.350   3.550   2.556
48961SOL    HW148780   6.262   3.573   2.587
48961SOL    HW248781   6.359   3.597   2.473
48962SOL     OW48782   6.058  14.043   5.093
48962SOL    HW148783   6.011  14.026   5.175
48962SOL    HW248784   6.078  14.136   5.096
48963SOL     OW48785   8.592   9.737   1.539
48963SOL    HW148786   8.644   9.806   1.580
48963SOL    HW248787   8.628   9.656   1.574
48964SOL     OW48788   6.326  12.515   5.730
48964SOL    HW148789   6.301  12.428   5.760
48964SOL    HW248790   6.408  12.534   5.777
48965SOL     OW48791  10.699   3.834   6.549
48965SOL    HW148792  10.756   3.910   6.559
48965SOL    HW248793  10.694   3.821   6.454
48966SOL     OW48794  10.229   9.021   0.247
48966SOL    HW148795  10.250   9.088   0.313
48966SOL    HW248796  10.183   8.953   0.296
48967SOL     OW48797  11.344   7.955   2.907
48967SOL    HW148798  11.399   7.971   2.830
48967SOL    HW248799  11.273   8.017   2.898
48968SOL     OW48800   0.912   5.572  14.161
48968SOL    HW148801   0.993   5.623  14.162
48968SOL    HW248802   0.843   5.637  14.151
48969SOL     OW48803  10.154   1.717   4.797
48969SOL    HW148804  10.241   1.747   4.769
48969SOL    HW248805  10.097   1.736   4.722
48970SOL     OW48806   8.253   4.703   0.318
48970SOL    HW148807   8.310   4.772   0.284
48970SOL    HW248808   8.228   4.734   0.405
48971SOL     OW48809  10.044   3.470   1.387
48971SOL    HW148810   9.994   3.501   1.311
48971SOL    HW248811  10.099   3.545   1.410
48972SOL     OW48812  13.734  14.399   8.935
48972SOL    HW148813  13.681  14.474   8.907
48972SOL    HW248814  13.824  14.425   8.917
48973SOL     OW48815   6.756  13.519  13.211
48973SOL    HW148816   6.778  13.427  13.200
48973SOL    HW248817   6.775  13.559  13.125
48974SOL     OW48818  13.808   7.388   8.165
48974SOL    HW148819  13.737   7.444   8.134
48974SOL    HW248820  13.825   7.328   8.092
48975SOL     OW48821   5.794   0.761   2.002
48975SOL    HW148822   5.871   0.762   1.945
48975SOL    HW248823   5.741   0.835   1.972
48976SOL     OW48824   2.064   0.227   2.186
48976SOL    HW148825   2.112   0.265   2.113
48976SOL    HW248826   2.132   0.208   2.251
48977SOL     OW48827   6.972   5.044   5.151
48977SOL    HW148828   6.994   4.973   5.212
48977SOL    HW248829   7.055   5.066   5.110
48978SOL     OW48830   4.616   8.360   8.873
48978SOL    HW148831   4.624   8.419   8.948
48978SOL    HW248832   4.647   8.411   8.798
48979SOL     OW48833  10.145   4.145   8.960
48979SOL    HW148834  10.099   4.218   8.919
48979SOL    HW248835  10.173   4.178   9.045
48980SOL     OW48836   2.513   2.061  14.340
48980SOL    HW148837   2.519   1.972  14.306
48980SOL    HW248838   2.593   2.103  14.312
48981SOL     OW48839   4.579   5.579   3.119
48981SOL    HW148840   4.538   5.606   3.036
48981SOL    HW248841   4.534   5.497   3.142
48982SOL     OW48842  13.734  11.607   1.210
48982SOL    HW148843  13.667  11.570   1.153
48982SOL    HW248844  13.800  11.642   1.150
48983SOL     OW48845   7.904   9.319  14.041
48983SOL    HW148846   7.844   9.281  13.976
48983SOL    HW248847   7.941   9.243  14.086
48984SOL     OW48848  10.489  10.410  12.554
48984SOL    HW148849  10.521  10.359  12.628
48984SOL    HW248850  10.422  10.353  12.514
48985SOL     OW48851  12.405   6.883   0.523
48985SOL    HW148852  12.317   6.903   0.489
48985SOL    HW248853  12.460   6.878   0.446
48986SOL     OW48854   0.011   8.396  12.044
48986SOL    HW148855   0.013   8.484  12.082
48986SOL    HW248856  14.867   8.339  12.117
48987SOL     OW48857  12.094   4.798   4.072
48987SOL    HW148858  12.073   4.814   4.164
48987SOL    HW248859  12.069   4.879   4.027
48988SOL     OW48860  13.464   3.123   0.329
48988SOL    HW148861  13.509   3.145   0.411
48988SOL    HW248862  13.515   3.050   0.293
48989SOL     OW48863  14.676  10.864   3.372
48989SOL    HW148864  14.669  10.939   3.313
48989SOL    HW248865  14.600  10.872   3.429
48990SOL     OW48866   1.580   4.649  11.021
48990SOL    HW148867   1.572   4.712  10.950
48990SOL    HW248868   1.549   4.566  10.983
48991SOL     OW48869  11.378  14.232   8.755
48991SOL    HW148870  11.313  14.251   8.687
48991SOL    HW248871  11.387  14.315   8.803
48992SOL     OW48872   9.726   2.452  13.056
48992SOL    HW148873   9.705   2.491  12.971
48992SOL    HW248874   9.693   2.362  13.049
48993SOL     OW48875   4.446   7.150   1.117
48993SOL    HW148876   4.369   7.130   1.062
48993SOL    HW248877   4.425   7.233   1.159
48994SOL     OW48878   7.481  14.814  14.316
48994SOL    HW148879   7.566  14.856  14.298
48994SOL    HW248880   7.504  14.733  14.362
48995SOL     OW48881   2.301   4.887   6.929
48995SOL    HW148882   2.249   4.876   7.008
48995SOL    HW248883   2.375   4.828   6.941
48996SOL     OW48884   8.423   9.333   4.676
48996SOL    HW148885   8.427   9.258   4.736
48996SOL    HW248886   8.340   9.321   4.629
48997SOL     OW48887   1.309   7.743   3.945
48997SOL    HW148888   1.288   7.678   4.012
48997SOL    HW248889   1.296   7.828   3.988
48998SOL     OW48890   6.606   1.688   4.618
48998SOL    HW148891   6.551   1.660   4.691
48998SOL    HW248892   6.659   1.611   4.597
48999SOL     OW48893   4.101  14.321  13.024
48999SOL    HW148894   4.010  14.335  13.000
48999SOL    HW248895   4.149  14.390  12.977
49000SOL     OW48896   2.566   7.303   7.963
49000SOL    HW148897   2.492   7.361   7.944
49000SOL    HW248898   2.542   7.219   7.925
49001SOL     OW48899  12.105  14.433  11.591
49001SOL    HW148900  12.112  14.471  11.679
49001SOL    HW248901  12.036  14.483  11.548
49002SOL     OW48902  12.284   1.424  12.845
49002SOL    HW148903  12.291   1.332  12.873
49002SOL    HW248904  12.287   1.420  12.749
49003SOL     OW48905   0.010   6.097   2.257
49003SOL    HW148906   0.096   6.081   2.296
49003SOL    HW248907  14.855   6.171   2.306
49004SOL     OW48908   9.417   0.698   3.130
49004SOL    HW148909   9.363   0.723   3.055
49004SOL    HW248910   9.362   0.716   3.206
49005SOL     OW48911   3.096  12.941  11.971
49005SOL    HW148912   3.084  12.847  11.980
49005SOL    HW248913   3.022  12.970  11.919
49006SOL     OW48914  14.186   5.901   6.078
49006SOL    HW148915  14.110   5.955   6.056
49006SOL    HW248916  14.243   5.959   6.129
49007SOL     OW48917   3.213   0.192   1.813
49007SOL    HW148918   3.155   0.267   1.801
49007SOL    HW248919   3.170   0.120   1.766
49008SOL     OW48920  11.283  10.262   3.671
49008SOL    HW148921  11.333  10.337   3.640
49008SOL    HW248922  11.306  10.192   3.610
49009SOL     OW48923   4.937   5.855   3.739
49009SOL    HW148924   4.950   5.821   3.827
49009SOL    HW248925   4.911   5.946   3.752
49010SOL     OW48926   2.531  13.886   4.844
49010SOL    HW148927   2.566  13.808   4.886
49010SOL    HW248928   2.467  13.920   4.907
49011SOL     OW48929  14.716   4.837  11.538
49011SOL    HW148930  14.694   4.892  11.614
49011SOL    HW248931  14.799   4.874  11.506
49012SOL     OW48932   5.260  11.341   6.426
49012SOL    HW148933   5.260  11.246   6.438
49012SOL    HW248934   5.329  11.373   6.484
49013SOL     OW48935   1.215   8.135   9.096
49013SOL    HW148936   1.125   8.158   9.074
49013SOL    HW248937   1.245   8.207   9.151
49014SOL     OW48938   2.366   9.866  12.494
49014SOL    HW148939   2.325   9.863  12.408
49014SOL    HW248940   2.460   9.873  12.476
49015SOL     OW48941   8.047   3.545  11.638
49015SOL    HW148942   8.015   3.583  11.720
49015SOL    HW248943   8.123   3.493  11.665
49016SOL     OW48944   5.130   1.906  13.653
49016SOL    HW148945   5.105   1.953  13.574
49016SOL    HW248946   5.079   1.825  13.650
49017SOL     OW48947  13.818   0.090   6.947
49017SOL    HW148948  13.816   0.114   6.855
49017SOL    HW248949  13.885   0.022   6.953
49018SOL     OW48950  11.384  12.779   7.694
49018SOL    HW148951  11.323  12.822   7.755
49018SOL    HW248952  11.408  12.698   7.738
49019SOL     OW48953   4.225  14.286   9.822
49019SOL    HW148954   4.242  14.356   9.885
49019SOL    HW248955   4.183  14.218   9.874
49020SOL     OW48956   8.854   6.812  14.493
49020SOL    HW148957   8.944   6.819  14.525
49020SOL    HW248958   8.830   6.902  14.468
49021SOL     OW48959   5.175   7.743   8.324
49021SOL    HW148960   5.157   7.740   8.230
49021SOL    HW248961   5.236   7.816   8.334
49022SOL     OW48962   4.426   8.287   2.982
49022SOL    HW148963   4.364   8.288   2.909
49022SOL    HW248964   4.491   8.354   2.960
49023SOL     OW48965  10.568   6.183  13.918
49023SOL    HW148966  10.548   6.211  14.007
49023SOL    HW248967  10.644   6.236  13.892
49024SOL     OW48968   2.724  13.633   4.757
49024SOL    HW148969   2.728  13.728   4.771
49024SOL    HW248970   2.767  13.620   4.672
49025SOL     OW48971  11.975   9.297   4.000
49025SOL    HW148972  11.961   9.385   4.035
49025SOL    HW248973  12.068   9.280   4.013
49026SOL     OW48974   0.053   0.747   6.819
49026SOL    HW148975   0.005   0.698   6.885
49026SOL    HW248976   0.094   0.819   6.867
49027SOL     OW48977   1.829  14.413   5.224
49027SOL    HW148978   1.880  14.416   5.143
49027SOL    HW248979   1.741  14.388   5.196
49028SOL     OW48980   8.527  13.441   2.581
49028SOL    HW148981   8.598  13.490   2.624
49028SOL    HW248982   8.520  13.360   2.632
49029SOL     OW48983   0.267   7.644   7.250
49029SOL    HW148984   0.193   7.619   7.193
49029SOL    HW248985   0.344   7.608   7.206
49030SOL     OW48986   3.154  11.986  12.798
49030SOL    HW148987   3.247  11.991  12.819
49030SOL    HW248988   3.151  11.952  12.709
49031SOL     OW48989  12.816   4.424   1.176
49031SOL    HW148990  12.908   4.441   1.194
49031SOL    HW248991  12.782   4.507   1.143
49032SOL     OW48992   1.550  11.904  13.002
49032SOL    HW148993   1.544  11.951  13.085
49032SOL    HW248994   1.511  11.963  12.938
49033SOL     OW48995   3.371   3.366   5.650
49033SOL    HW148996   3.296   3.404   5.603
49033SOL    HW248997   3.436   3.436   5.650
49034SOL     OW48998  11.988   9.594  10.802
49034SOL    HW148999  12.061   9.573  10.860
49034SOL    HW249000  12.026   9.651  10.735
49035SOL     OW49001  13.609  10.933  10.171
49035SOL    HW149002  13.567  10.939  10.256
49035SOL    HW249003  13.679  10.999  10.174
49036SOL     OW49004  14.521   6.959  14.703
49036SOL    HW149005  14.607   6.919  14.703
49036SOL    HW249006  14.460   6.885  14.705
49037SOL     OW49007   3.990   9.975   0.366
49037SOL    HW149008   4.083   9.967   0.389
49037SOL    HW249009   3.945   9.973   0.450
49038SOL     OW49010   9.798  13.446   2.277
49038SOL    HW149011   9.865  13.383   2.301
49038SOL    HW249012   9.824  13.478   2.191
49039SOL     OW49013  14.088   5.724   7.466
49039SOL    HW149014  14.159   5.786   7.451
49039SOL    HW249015  14.085   5.671   7.387
49040SOL     OW49016   5.523   3.097  12.215
49040SOL    HW149017   5.484   3.159  12.276
49040SOL    HW249018   5.450   3.067  12.161
49041SOL     OW49019   7.501   0.481  14.259
49041SOL    HW149020   7.460   0.529  14.331
49041SOL    HW249021   7.475   0.390  14.275
49042SOL     OW49022   8.550   6.261   2.078
49042SOL    HW149023   8.513   6.288   2.162
49042SOL    HW249024   8.499   6.184   2.053
49043SOL     OW49025  13.005   2.911  14.798
49043SOL    HW149026  13.097   2.933  14.815
49043SOL    HW249027  12.970   2.886   0.003
49044SOL     OW49028  11.519  12.483   6.575
49044SOL    HW149029  11.586  12.537   6.533
49044SOL    HW249030  11.537  12.394   6.544
49045SOL     OW49031   9.470  10.722   1.659
49045SOL    HW149032   9.550  10.727   1.606
49045SOL    HW249033   9.469  10.632   1.691
49046SOL     OW49034  13.780   9.410  12.248
49046SOL    HW149035  13.794   9.390  12.156
49046SOL    HW249036  13.813   9.332  12.294
49047SOL     OW49037   9.229   8.278   7.051
49047SOL    HW149038   9.184   8.206   7.008
49047SOL    HW249039   9.215   8.263   7.145
49048SOL     OW49040   9.909  11.229   5.101
49048SOL    HW149041   9.975  11.236   5.031
49048SOL    HW249042   9.878  11.318   5.114
49049SOL     OW49043  11.179   8.046   5.471
49049SOL    HW149044  11.086   8.023   5.463
49049SOL    HW249045  11.217   7.976   5.524
49050SOL     OW49046  13.886   2.653  12.069
49050SOL    HW149047  13.801   2.614  12.090
49050SOL    HW249048  13.942   2.628  12.143
49051SOL     OW49049   1.324   2.532   5.535
49051SOL    HW149050   1.399   2.525   5.593
49051SOL    HW249051   1.282   2.615   5.559
49052SOL     OW49052   9.482   6.267  14.533
49052SOL    HW149053   9.415   6.201  14.550
49052SOL    HW249054   9.541   6.261  14.608
49053SOL     OW49055  11.539   2.238   1.567
49053SOL    HW149056  11.543   2.217   1.660
49053SOL    HW249057  11.462   2.191   1.535
49054SOL     OW49058   4.967  13.960  14.517
49054SOL    HW149059   4.879  13.948  14.482
49054SOL    HW249060   4.987  13.878  14.561
49055SOL     OW49061   0.006  12.779  13.209
49055SOL    HW149062   0.015  12.865  13.168
49055SOL    HW249063   0.089  12.766  13.254
49056SOL     OW49064  11.544   8.119  14.543
49056SOL    HW149065  11.576   8.205  14.569
49056SOL    HW249066  11.623   8.066  14.532
49057SOL     OW49067   1.881   2.007  10.938
49057SOL    HW149068   1.874   1.970  10.850
49057SOL    HW249069   1.907   2.098  10.924
49058SOL     OW49070  10.800   7.109  14.579
49058SOL    HW149071  10.816   7.033  14.523
49058SOL    HW249072  10.705   7.121  14.577
49059SOL     OW49073   3.611   3.173   0.167
49059SOL    HW149074   3.622   3.257   0.123
49059SOL    HW249075   3.640   3.108   0.103
49060SOL     OW49076   9.433  13.925  10.798
49060SOL    HW149077   9.418  13.989  10.728
49060SOL    HW249078   9.429  13.840  10.753
49061SOL     OW49079   7.821   1.167   3.100
49061SOL    HW149080   7.795   1.218   3.176
49061SOL    HW249081   7.897   1.214   3.065
49062SOL     OW49082   8.250   3.331  11.537
49062SOL    HW149083   8.243   3.251  11.589
49062SOL    HW249084   8.344   3.340  11.522
49063SOL     OW49085  12.622   7.084   5.028
49063SOL    HW149086  12.600   7.006   4.977
49063SOL    HW249087  12.585   7.157   4.978
49064SOL     OW49088   2.881  12.220   9.930
49064SOL    HW149089   2.929  12.277   9.991
49064SOL    HW249090   2.813  12.277   9.893
49065SOL     OW49091  10.579  13.542   8.021
49065SOL    HW149092  10.604  13.620   8.070
49065SOL    HW249093  10.631  13.472   8.060
49066SOL     OW49094   9.112  11.883   7.803
49066SOL    HW149095   9.060  11.805   7.822
49066SOL    HW249096   9.091  11.904   7.712
49067SOL     OW49097  10.491   9.772   0.691
49067SOL    HW149098  10.480   9.677   0.700
49067SOL    HW249099  10.577   9.782   0.651
49068SOL     OW49100   1.898   5.034   3.626
49068SOL    HW149101   1.838   4.970   3.588
49068SOL    HW249102   1.905   5.009   3.718
49069SOL     OW49103   2.769   8.073  11.781
49069SOL    HW149104   2.831   8.145  11.792
49069SOL    HW249105   2.821   8.001  11.745
49070SOL     OW49106   2.109  12.034   2.101
49070SOL    HW149107   2.198  12.021   2.068
49070SOL    HW249108   2.117  12.026   2.196
49071SOL     OW49109  11.918   7.169   6.761
49071SOL    HW149110  11.878   7.180   6.675
49071SOL    HW249111  12.003   7.127   6.743
49072SOL     OW49112   2.716   1.816   8.139
49072SOL    HW149113   2.741   1.724   8.136
49072SOL    HW249114   2.668   1.830   8.057
49073SOL     OW49115   1.253   5.514   2.821
49073SOL    HW149116   1.272   5.568   2.898
49073SOL    HW249117   1.322   5.536   2.759
49074SOL     OW49118   6.100   6.594   5.131
49074SOL    HW149119   6.064   6.650   5.062
49074SOL    HW249120   6.132   6.516   5.086
49075SOL     OW49121  14.063   8.693   9.714
49075SOL    HW149122  14.127   8.640   9.665
49075SOL    HW249123  14.053   8.648   9.797
49076SOL     OW49124   9.306   8.033   5.129
49076SOL    HW149125   9.396   8.052   5.101
49076SOL    HW249126   9.275   8.116   5.167
49077SOL     OW49127  14.751   3.845   4.785
49077SOL    HW149128  14.675   3.894   4.815
49077SOL    HW249129  14.715   3.772   4.735
49078SOL     OW49130   9.666   9.499  14.417
49078SOL    HW149131   9.748   9.533  14.453
49078SOL    HW249132   9.598   9.536  14.474
49079SOL     OW49133   7.114   5.122   0.766
49079SOL    HW149134   7.138   5.045   0.817
49079SOL    HW249135   7.073   5.180   0.830
49080SOL     OW49136   2.783   3.362   9.275
49080SOL    HW149137   2.837   3.291   9.309
49080SOL    HW249138   2.839   3.408   9.213
49081SOL     OW49139   5.931   6.083   2.516
49081SOL    HW149140   5.936   6.160   2.458
49081SOL    HW249141   5.989   6.019   2.475
49082SOL     OW49142   5.180  10.498   1.303
49082SOL    HW149143   5.128  10.417   1.306
49082SOL    HW249144   5.128  10.557   1.249
49083SOL     OW49145   7.538   1.648   8.486
49083SOL    HW149146   7.523   1.742   8.495
49083SOL    HW249147   7.579   1.622   8.568
49084SOL     OW49148   9.648   4.407   2.955
49084SOL    HW149149   9.587   4.380   2.886
49084SOL    HW249150   9.649   4.502   2.950
49085SOL     OW49151   3.878  10.569  14.825
49085SOL    HW149152   3.827  10.488  14.817
49085SOL    HW249153   3.856  10.619  14.746
49086SOL     OW49154   3.110  10.684  14.235
49086SOL    HW149155   3.139  10.617  14.297
49086SOL    HW249156   3.042  10.641  14.184
49087SOL     OW49157   2.709   4.250  13.013
49087SOL    HW149158   2.620   4.234  12.984
49087SOL    HW249159   2.718   4.345  13.016
49088SOL     OW49160  14.678  14.708   6.147
49088SOL    HW149161  14.765  14.692   6.183
49088SOL    HW249162  14.659  14.799   6.171
49089SOL     OW49163   1.130   0.955   8.713
49089SOL    HW149164   1.082   0.880   8.678
49089SOL    HW249165   1.222   0.927   8.710
49090SOL     OW49166   6.590   3.337  14.722
49090SOL    HW149167   6.496   3.320  14.733
49090SOL    HW249168   6.630   3.250  14.719
49091SOL     OW49169   7.654   7.325  14.796
49091SOL    HW149170   7.627   7.399  14.850
49091SOL    HW249171   7.582   7.314  14.733
49092SOL     OW49172   2.491   9.490   7.051
49092SOL    HW149173   2.575   9.535   7.041
49092SOL    HW249174   2.516   9.398   7.068
49093SOL     OW49175   1.204  14.036   7.192
49093SOL    HW149176   1.208  14.042   7.097
49093SOL    HW249177   1.295  14.019   7.218
49094SOL     OW49178   9.667   7.454  13.665
49094SOL    HW149179   9.747   7.425  13.621
49094SOL    HW249180   9.607   7.379  13.657
49095SOL     OW49181   2.030   1.635  10.363
49095SOL    HW149182   2.019   1.541  10.353
49095SOL    HW249183   1.989   1.673  10.286
49096SOL     OW49184   8.045   9.272   1.057
49096SOL    HW149185   8.089   9.196   1.095
49096SOL    HW249186   8.068   9.344   1.115
49097SOL     OW49187   3.042   1.270   2.872
49097SOL    HW149188   3.130   1.276   2.833
49097SOL    HW249189   3.030   1.354   2.915
49098SOL     OW49190   3.202  11.199   4.027
49098SOL    HW149191   3.202  11.133   3.957
49098SOL    HW249192   3.161  11.155   4.101
49099SOL     OW49193   8.068   0.552   5.724
49099SOL    HW149194   8.118   0.604   5.786
49099SOL    HW249195   8.130   0.534   5.653
49100SOL     OW49196  10.743  12.084  14.074
49100SOL    HW149197  10.816  12.061  14.131
49100SOL    HW249198  10.784  12.131  14.001
49101SOL     OW49199  14.572   5.084   6.632
49101SOL    HW149200  14.477   5.079   6.646
49101SOL    HW249201  14.597   5.171   6.662
49102SOL     OW49202   8.592  11.969   0.602
49102SOL    HW149203   8.609  11.976   0.508
49102SOL    HW249204   8.672  11.932   0.639
49103SOL     OW49205   4.239   8.040   2.146
49103SOL    HW149206   4.188   7.959   2.149
49103SOL    HW249207   4.246   8.068   2.237
49104SOL     OW49208   5.024  14.018   7.563
49104SOL    HW149209   4.957  13.967   7.609
49104SOL    HW249210   4.992  14.108   7.565
49105SOL     OW49211   4.698   6.694   9.104
49105SOL    HW149212   4.613   6.722   9.071
49105SOL    HW249213   4.742   6.655   9.028
49106SOL     OW49214   5.126   9.045   8.585
49106SOL    HW149215   5.048   9.093   8.557
49106SOL    HW249216   5.199   9.100   8.556
49107SOL     OW49217  10.258  11.626  11.806
49107SOL    HW149218  10.183  11.571  11.783
49107SOL    HW249219  10.316  11.569  11.856
49108SOL     OW49220   9.448  14.103   0.687
49108SOL    HW149221   9.420  14.025   0.735
49108SOL    HW249222   9.501  14.151   0.751
49109SOL     OW49223  11.301   2.067   0.822
49109SOL    HW149224  11.393   2.070   0.799
49109SOL    HW249225  11.277   2.157   0.842
49110SOL     OW49226   1.987   2.343   2.169
49110SOL    HW149227   1.897   2.323   2.141
49110SOL    HW249228   1.986   2.436   2.189
49111SOL     OW49229   0.194   6.766  13.319
49111SOL    HW149230   0.181   6.836  13.383
49111SOL    HW249231   0.192   6.811  13.235
49112SOL     OW49232  12.156  13.207  13.089
49112SOL    HW149233  12.074  13.209  13.041
49112SOL    HW249234  12.182  13.115  13.088
49113SOL     OW49235   2.494  10.206   1.597
49113SOL    HW149236   2.482  10.165   1.512
49113SOL    HW249237   2.579  10.175   1.627
49114SOL     OW49238   5.890  12.001  10.414
49114SOL    HW149239   5.802  12.032  10.434
49114SOL    HW249240   5.908  11.935  10.482
49115SOL     OW49241  10.756   9.359  13.098
49115SOL    HW149242  10.694   9.378  13.028
49115SOL    HW249243  10.813   9.291  13.063
49116SOL     OW49244   6.345   9.359  10.112
49116SOL    HW149245   6.327   9.417  10.038
49116SOL    HW249246   6.427   9.393  10.149
49117SOL     OW49247   1.159   0.403   3.148
49117SOL    HW149248   1.179   0.375   3.237
49117SOL    HW249249   1.244   0.431   3.112
49118SOL     OW49250   4.846  10.847  14.235
49118SOL    HW149251   4.876  10.816  14.320
49118SOL    HW249252   4.901  10.924  14.216
49119SOL     OW49253   0.745   1.753   4.022
49119SOL    HW149254   0.674   1.753   4.087
49119SOL    HW249255   0.746   1.664   3.987
49120SOL     OW49256   3.029  11.279   2.574
49120SOL    HW149257   3.079  11.357   2.597
49120SOL    HW249258   2.944  11.293   2.616
49121SOL     OW49259   2.762   0.505  14.649
49121SOL    HW149260   2.737   0.492  14.558
49121SOL    HW249261   2.680   0.507  14.697
49122SOL     OW49262   7.203   3.708  12.371
49122SOL    HW149263   7.206   3.729  12.278
49122SOL    HW249264   7.293   3.724  12.402
49123SOL     OW49265  12.719   1.730   4.598
49123SOL    HW149266  12.685   1.687   4.677
49123SOL    HW249267  12.696   1.822   4.610
49124SOL     OW49268   5.261  11.701   3.614
49124SOL    HW149269   5.356  11.693   3.610
49124SOL    HW249270   5.229  11.631   3.557
49125SOL     OW49271   1.991  12.904  10.745
49125SOL    HW149272   2.018  12.836  10.683
49125SOL    HW249273   2.072  12.929  10.789
49126SOL     OW49274   1.851   2.028   0.185
49126SOL    HW149275   1.928   1.991   0.142
49126SOL    HW249276   1.777   1.981   0.145
49127SOL     OW49277   4.822   5.822  14.626
49127SOL    HW149278   4.851   5.907  14.659
49127SOL    HW249279   4.801   5.771  14.705
49128SOL     OW49280   9.549   6.408  11.364
49128SOL    HW149281   9.470   6.380  11.316
49128SOL    HW249282   9.621   6.389  11.305
49129SOL     OW49283   1.672  13.313   0.197
49129SOL    HW149284   1.725  13.315   0.117
49129SOL    HW249285   1.710  13.381   0.253
49130SOL     OW49286   7.820   8.097   5.977
49130SOL    HW149287   7.861   8.172   5.934
49130SOL    HW249288   7.756   8.136   6.037
49131SOL     OW49289   5.244   2.634   9.215
49131SOL    HW149290   5.268   2.693   9.143
49131SOL    HW249291   5.229   2.692   9.289
49132SOL     OW49292  12.804  10.662  14.680
49132SOL    HW149293  12.878  10.661  14.619
49132SOL    HW249294  12.844  10.656  14.766
49133SOL     OW49295   4.457  12.538  14.362
49133SOL    HW149296   4.491  12.557  14.450
49133SOL    HW249297   4.503  12.599  14.305
49134SOL     OW49298   1.100   2.921  12.587
49134SOL    HW149299   1.141   2.887  12.508
49134SOL    HW249300   1.082   2.844  12.640
49135SOL     OW49301   9.060   6.328   5.655
49135SOL    HW149302   8.977   6.375   5.657
49135SOL    HW249303   9.123   6.388   5.694
49136SOL     OW49304   6.428   2.927   8.107
49136SOL    HW149305   6.392   3.014   8.087
49136SOL    HW249306   6.351   2.874   8.126
49137SOL     OW49307   9.712   1.671   7.403
49137SOL    HW149308   9.705   1.605   7.471
49137SOL    HW249309   9.804   1.669   7.377
49138SOL     OW49310   2.509   5.401   5.343
49138SOL    HW149311   2.416   5.415   5.324
49138SOL    HW249312   2.513   5.392   5.438
49139SOL     OW49313  14.239  11.934   9.979
49139SOL    HW149314  14.301  11.862   9.994
49139SOL    HW249315  14.165  11.913  10.036
49140SOL     OW49316  13.862  13.367  13.851
49140SOL    HW149317  13.870  13.409  13.936
49140SOL    HW249318  13.768  13.348  13.842
49141SOL     OW49319   5.852   6.695   3.287
49141SOL    HW149320   5.894   6.763   3.234
49141SOL    HW249321   5.806   6.640   3.224
49142SOL     OW49322  14.703   6.480  10.095
49142SOL    HW149323  14.753   6.505  10.173
49142SOL    HW249324  14.634   6.546  10.089
49143SOL     OW49325   6.831   6.901  11.012
49143SOL    HW149326   6.878   6.923  11.093
49143SOL    HW249327   6.885   6.834  10.970
49144SOL     OW49328  14.463   3.741  10.499
49144SOL    HW149329  14.416   3.823  10.508
49144SOL    HW249330  14.399   3.680  10.462
49145SOL     OW49331  12.065   7.234   1.442
49145SOL    HW149332  12.158   7.218   1.458
49145SOL    HW249333  12.041   7.301   1.506
49146SOL     OW49334   9.116   7.888   2.525
49146SOL    HW149335   9.045   7.851   2.578
49146SOL    HW249336   9.072   7.935   2.455
49147SOL     OW49337  14.161  13.374   8.089
49147SOL    HW149338  14.139  13.284   8.065
49147SOL    HW249339  14.250  13.368   8.125
49148SOL     OW49340   7.516  12.883   7.621
49148SOL    HW149341   7.596  12.844   7.586
49148SOL    HW249342   7.505  12.964   7.573
49149SOL     OW49343   8.899   0.977   3.024
49149SOL    HW149344   8.939   0.920   3.088
49149SOL    HW249345   8.909   0.931   2.941
49150SOL     OW49346  11.386  14.265  11.243
49150SOL    HW149347  11.291  14.264  11.255
49150SOL    HW249348  11.399  14.254  11.148
49151SOL     OW49349  14.731   1.604  10.212
49151SOL    HW149350  14.727   1.698  10.226
49151SOL    HW249351  14.728   1.566  10.300
49152SOL     OW49352  13.448   7.392   8.300
49152SOL    HW149353  13.426   7.472   8.347
49152SOL    HW249354  13.543   7.391   8.296
49153SOL     OW49355  12.697  10.579  12.961
49153SOL    HW149356  12.717  10.672  12.967
49153SOL    HW249357  12.727  10.553  12.874
49154SOL     OW49358   9.471   9.275   3.712
49154SOL    HW149359   9.527   9.199   3.729
49154SOL    HW249360   9.492   9.300   3.622
49155SOL     OW49361  11.090   2.134   6.476
49155SOL    HW149362  11.157   2.069   6.494
49155SOL    HW249363  11.009   2.085   6.470
49156SOL     OW49364  11.590   1.233   4.332
49156SOL    HW149365  11.661   1.236   4.396
49156SOL    HW249366  11.634   1.215   4.249
49157SOL     OW49367   5.582   1.716  13.174
49157SOL    HW149368   5.545   1.802  13.193
49157SOL    HW249369   5.519   1.654  13.213
49158SOL     OW49370   0.561   8.781  12.071
49158SOL    HW149371   0.571   8.691  12.041
49158SOL    HW249372   0.624   8.790  12.143
49159SOL     OW49373   1.187  13.624  11.556
49159SOL    HW149374   1.276  13.625  11.521
49159SOL    HW249375   1.198  13.641  11.649
49160SOL     OW49376   9.920   9.423   2.368
49160SOL    HW149377   9.990   9.400   2.430
49160SOL    HW249378   9.948   9.385   2.285
49161SOL     OW49379   0.906   3.217  11.552
49161SOL    HW149380   0.969   3.194  11.620
49161SOL    HW249381   0.823   3.231  11.598
49162SOL     OW49382  11.518   0.093   6.102
49162SOL    HW149383  11.604   0.054   6.090
49162SOL    HW249384  11.533   0.172   6.153
49163SOL     OW49385  13.860   5.649   5.093
49163SOL    HW149386  13.895   5.626   5.179
49163SOL    HW249387  13.792   5.584   5.077
49164SOL     OW49388   7.984   2.545  14.114
49164SOL    HW149389   8.069   2.538  14.158
49164SOL    HW249390   8.005   2.534  14.021
49165SOL     OW49391  11.604   3.293   9.100
49165SOL    HW149392  11.564   3.312   9.015
49165SOL    HW249393  11.614   3.198   9.101
49166SOL     OW49394   3.059  12.430   8.905
49166SOL    HW149395   3.042  12.342   8.870
49166SOL    HW249396   3.048  12.420   9.000
49167SOL     OW49397   7.746   3.711   7.094
49167SOL    HW149398   7.764   3.715   7.000
49167SOL    HW249399   7.682   3.640   7.103
49168SOL     OW49400   8.753   0.348  14.480
49168SOL    HW149401   8.705   0.295  14.416
49168SOL    HW249402   8.788   0.421  14.428
49169SOL     OW49403   0.872   6.123   2.348
49169SOL    HW149404   0.820   6.047   2.372
49169SOL    HW249405   0.877   6.120   2.252
49170SOL     OW49406  14.398  13.717  10.672
49170SOL    HW149407  14.396  13.683  10.583
49170SOL    HW249408  14.475  13.774  10.675
49171SOL     OW49409  10.596   0.052   0.598
49171SOL    HW149410  10.624   0.143   0.606
49171SOL    HW249411  10.566   0.029   0.686
49172SOL     OW49412   5.211   5.337  10.312
49172SOL    HW149413   5.126   5.295  10.304
49172SOL    HW249414   5.274   5.271  10.282
49173SOL     OW49415  13.051   1.234   5.653
49173SOL    HW149416  13.126   1.210   5.707
49173SOL    HW249417  13.062   1.328   5.636
49174SOL     OW49418   0.237  13.128   6.962
49174SOL    HW149419   0.302  13.156   7.026
49174SOL    HW249420   0.238  13.196   6.895
49175SOL     OW49421  11.217  13.171  12.266
49175SOL    HW149422  11.176  13.248  12.226
49175SOL    HW249423  11.261  13.206  12.343
49176SOL     OW49424   6.511   8.041   0.508
49176SOL    HW149425   6.494   8.135   0.508
49176SOL    HW249426   6.545   8.023   0.595
49177SOL     OW49427  12.959  14.468   9.092
49177SOL    HW149428  12.902  14.429   9.025
49177SOL    HW249429  12.965  14.560   9.067
49178SOL     OW49430  14.392  14.098   6.849
49178SOL    HW149431  14.324  14.048   6.894
49178SOL    HW249432  14.443  14.031   6.803
49179SOL     OW49433  14.610   4.006  12.618
49179SOL    HW149434  14.544   4.067  12.585
49179SOL    HW249435  14.682   4.013  12.555
49180SOL     OW49436   1.151   1.469   6.512
49180SOL    HW149437   1.193   1.554   6.524
49180SOL    HW249438   1.223   1.407   6.499
49181SOL     OW49439  11.390   9.161   2.103
49181SOL    HW149440  11.399   9.194   2.014
49181SOL    HW249441  11.296   9.151   2.116
49182SOL     OW49442  14.878   3.943   6.968
49182SOL    HW149443   0.033   3.867   7.015
49182SOL    HW249444  14.812   3.906   6.909
49183SOL     OW49445   5.021   4.237   7.156
49183SOL    HW149446   4.980   4.320   7.181
49183SOL    HW249447   5.108   4.242   7.195
49184SOL     OW49448   2.250   5.581  13.081
49184SOL    HW149449   2.284   5.646  13.019
49184SOL    HW249450   2.244   5.628  13.164
49185SOL     OW49451   3.546  13.741  13.293
49185SOL    HW149452   3.554  13.738  13.198
49185SOL    HW249453   3.452  13.742  13.310
49186SOL     OW49454  11.738   7.598   6.001
49186SOL    HW149455  11.820   7.566   6.039
49186SOL    HW249456  11.743   7.574   5.909
49187SOL     OW49457   6.506  14.224   9.865
49187SOL    HW149458   6.508  14.261   9.953
49187SOL    HW249459   6.525  14.131   9.877
49188SOL     OW49460   3.998   9.435  14.327
49188SOL    HW149461   3.927   9.437  14.263
49188SOL    HW249462   3.972   9.499  14.394
49189SOL     OW49463   1.635   2.305   7.186
49189SOL    HW149464   1.603   2.250   7.115
49189SOL    HW249465   1.561   2.313   7.245
49190SOL     OW49466  11.044  11.045  11.921
49190SOL    HW149467  11.064  10.952  11.923
49190SOL    HW249468  11.056  11.075  12.011
49191SOL     OW49469   0.776   1.786  11.086
49191SOL    HW149470   0.825   1.748  11.160
49191SOL    HW249471   0.684   1.782  11.114
49192SOL     OW49472  10.020   2.828   1.627
49192SOL    HW149473   9.973   2.807   1.707
49192SOL    HW249474   9.969   2.897   1.586
49193SOL     OW49475   7.881   6.874  14.720
49193SOL    HW149476   7.966   6.857  14.760
49193SOL    HW249477   7.891   6.845  14.629
49194SOL     OW49478  10.934  10.242   6.173
49194SOL    HW149479  10.960  10.282   6.090
49194SOL    HW249480  10.868  10.177   6.149
49195SOL     OW49481   6.151   9.832   2.226
49195SOL    HW149482   6.189   9.884   2.297
49195SOL    HW249483   6.132   9.747   2.266
49196SOL     OW49484   2.143   6.160   0.396
49196SOL    HW149485   2.105   6.191   0.479
49196SOL    HW249486   2.235   6.187   0.401
49197SOL     OW49487  12.851   0.452  11.313
49197SOL    HW149488  12.849   0.547  11.304
49197SOL    HW249489  12.768   0.430  11.356
49198SOL     OW49490   5.850  12.234   8.336
49198SOL    HW149491   5.942  12.209   8.337
49198SOL    HW249492   5.832  12.260   8.245
49199SOL     OW49493   4.791   2.952  13.761
49199SOL    HW149494   4.820   2.962  13.852
49199SOL    HW249495   4.872   2.950  13.711
49200SOL     OW49496  14.658   1.078   9.338
49200SOL    HW149497  14.739   1.029   9.320
49200SOL    HW249498  14.667   1.106   9.429
49201SOL     OW49499  12.862  11.030   8.507
49201SOL    HW149500  12.834  11.114   8.543
49201SOL    HW249501  12.912  10.989   8.578
49202SOL     OW49502   8.797   5.275   4.980
49202SOL    HW149503   8.769   5.351   4.929
49202SOL    HW249504   8.892   5.271   4.969
49203SOL     OW49505  10.593   6.149  10.153
49203SOL    HW149506  10.544   6.165  10.072
49203SOL    HW249507  10.560   6.064  10.184
49204SOL     OW49508  12.118   6.151   5.996
49204SOL    HW149509  12.186   6.085   6.013
49204SOL    HW249510  12.089   6.178   6.083
49205SOL     OW49511  11.779  12.481   4.655
49205SOL    HW149512  11.702  12.443   4.612
49205SOL    HW249513  11.752  12.492   4.746
49206SOL     OW49514   4.462  11.056   1.669
49206SOL    HW149515   4.486  11.061   1.762
49206SOL    HW249516   4.429  11.143   1.648
49207SOL     OW49517   2.313   7.648   8.676
49207SOL    HW149518   2.299   7.704   8.600
49207SOL    HW249519   2.235   7.592   8.679
49208SOL     OW49520  11.724   6.612   4.048
49208SOL    HW149521  11.735   6.686   3.989
49208SOL    HW249522  11.731   6.534   3.992
49209SOL     OW49523  12.116   3.731  10.817
49209SOL    HW149524  12.105   3.724  10.722
49209SOL    HW249525  12.132   3.642  10.847
49210SOL     OW49526   0.995  14.291  12.358
49210SOL    HW149527   1.016  14.283  12.451
49210SOL    HW249528   1.075  14.323  12.317
49211SOL     OW49529   6.362  12.173  13.417
49211SOL    HW149530   6.415  12.113  13.469
49211SOL    HW249531   6.305  12.216  13.482
49212SOL     OW49532   0.293   4.313   9.493
49212SOL    HW149533   0.218   4.308   9.435
49212SOL    HW249534   0.366   4.280   9.441
49213SOL     OW49535   1.258  13.960  14.460
49213SOL    HW149536   1.339  13.959  14.409
49213SOL    HW249537   1.204  13.892  14.421
49214SOL     OW49538  13.119   2.267  13.439
49214SOL    HW149539  13.027   2.291  13.451
49214SOL    HW249540  13.116   2.178  13.403
49215SOL     OW49541   6.153   0.197   3.821
49215SOL    HW149542   6.130   0.138   3.892
49215SOL    HW249543   6.200   0.269   3.863
49216SOL     OW49544   6.126   9.391   0.671
49216SOL    HW149545   6.144   9.429   0.757
49216SOL    HW249546   6.195   9.326   0.658
49217SOL     OW49547   9.209   0.014  13.676
49217SOL    HW149548   9.301   0.025  13.654
49217SOL    HW249549   9.184  14.812  13.633
49218SOL     OW49550   4.664   3.597   7.357
49218SOL    HW149551   4.730   3.666   7.362
49218SOL    HW249552   4.672   3.563   7.268
49219SOL     OW49553   8.397  11.226  14.150
49219SOL    HW149554   8.461  11.164  14.185
49219SOL    HW249555   8.420  11.309  14.192
49220SOL     OW49556  11.368  13.565   3.793
49220SOL    HW149557  11.368  13.661   3.798
49220SOL    HW249558  11.306  13.545   3.723
49221SOL     OW49559   8.801  10.879  14.692
49221SOL    HW149560   8.805  10.931  14.612
49221SOL    HW249561   8.707  10.871  14.710
49222SOL     OW49562  14.745  11.198  14.802
49222SOL    HW149563  14.822  11.142  14.814
49222SOL    HW249564  14.744  11.255  14.879
49223SOL     OW49565   0.991   5.886   8.903
49223SOL    HW149566   0.951   5.933   8.829
49223SOL    HW249567   0.920   5.876   8.966
49224SOL     OW49568   3.660  14.209  13.040
49224SOL    HW149569   3.710  14.136  13.077
49224SOL    HW249570   3.710  14.287  13.065
49225SOL     OW49571  13.574   5.719   1.198
49225SOL    HW149572  13.658   5.742   1.239
49225SOL    HW249573  13.525   5.675   1.268
49226SOL     OW49574  14.149  13.147   1.674
49226SOL    HW149575  14.062  13.180   1.649
49226SOL    HW249576  14.171  13.194   1.754
49227SOL     OW49577  12.728   3.304   2.057
49227SOL    HW149578  12.716   3.281   2.149
49227SOL    HW249579  12.811   3.264   2.032
49228SOL     OW49580  14.778   0.099  12.926
49228SOL    HW149581  14.826   0.019  12.906
49228SOL    HW249582  14.744   0.085  13.015
49229SOL     OW49583   0.597   7.250  13.490
49229SOL    HW149584   0.564   7.196  13.419
49229SOL    HW249585   0.665   7.196  13.532
49230SOL     OW49586   3.587   8.606  14.855
49230SOL    HW149587   3.550   8.694  14.845
49230SOL    HW249588   3.674   8.611  14.814
49231SOL     OW49589  13.036  13.170   8.411
49231SOL    HW149590  13.015  13.158   8.503
49231SOL    HW249591  13.097  13.099   8.390
49232SOL     OW49592   8.894  12.657   4.325
49232SOL    HW149593   8.911  12.563   4.329
49232SOL    HW249594   8.979  12.698   4.341
49233SOL     OW49595   4.889  13.425  11.838
49233SOL    HW149596   4.939  13.491  11.886
49233SOL    HW249597   4.803  13.464  11.823
49234SOL     OW49598   8.909   8.497  12.553
49234SOL    HW149599   8.973   8.567  12.561
49234SOL    HW249600   8.912   8.472  12.461
49235SOL     OW49601  12.287  12.928   0.356
49235SOL    HW149602  12.257  12.839   0.371
49235SOL    HW249603  12.338  12.950   0.435
49236SOL     OW49604   9.866   8.368   7.004
49236SOL    HW149605   9.847   8.296   6.945
49236SOL    HW249606   9.903   8.436   6.948
49237SOL     OW49607   2.319   1.600   6.769
49237SOL    HW149608   2.397   1.639   6.810
49237SOL    HW249609   2.354   1.537   6.706
49238SOL     OW49610   6.714   6.802   2.909
49238SOL    HW149611   6.757   6.836   2.988
49238SOL    HW249612   6.775   6.737   2.875
49239SOL     OW49613   7.557   0.814   3.995
49239SOL    HW149614   7.488   0.848   3.938
49239SOL    HW249615   7.618   0.770   3.936
49240SOL     OW49616  10.687   5.297  10.137
49240SOL    HW149617  10.652   5.208  10.139
49240SOL    HW249618  10.696   5.321  10.229
49241SOL     OW49619   3.627   8.959   2.554
49241SOL    HW149620   3.541   8.935   2.588
49241SOL    HW249621   3.610   9.033   2.496
49242SOL     OW49622   7.847  14.693  13.354
49242SOL    HW149623   7.788  14.739  13.294
49242SOL    HW249624   7.815  14.603  13.354
49243SOL     OW49625  10.907   0.849   7.060
49243SOL    HW149626  10.971   0.786   7.093
49243SOL    HW249627  10.936   0.869   6.971
49244SOL     OW49628   0.452   2.482   2.146
49244SOL    HW149629   0.532   2.431   2.136
49244SOL    HW249630   0.382   2.417   2.153
49245SOL     OW49631   4.313   1.922   2.206
49245SOL    HW149632   4.224   1.944   2.235
49245SOL    HW249633   4.367   1.996   2.234
49246SOL     OW49634   0.030   9.075  12.230
49246SOL    HW149635   0.039   9.168  12.210
49246SOL    HW249636  14.844   9.044  12.168
49247SOL     OW49637  11.641  13.664   5.756
49247SOL    HW149638  11.702  13.691   5.824
49247SOL    HW249639  11.679  13.583   5.720
49248SOL     OW49640   9.974  13.622  12.827
49248SOL    HW149641   9.945  13.559  12.761
49248SOL    HW249642   9.972  13.573  12.910
49249SOL     OW49643   0.846  10.171   1.504
49249SOL    HW149644   0.836  10.174   1.599
49249SOL    HW249645   0.894  10.089   1.487
49250SOL     OW49646   1.460   0.913  13.550
49250SOL    HW149647   1.389   0.881  13.493
49250SOL    HW249648   1.539   0.876  13.512
49251SOL     OW49649   2.543   6.677   0.452
49251SOL    HW149650   2.463   6.708   0.494
49251SOL    HW249651   2.584   6.757   0.419
49252SOL     OW49652   5.760   3.935  10.148
49252SOL    HW149653   5.832   3.928  10.086
49252SOL    HW249654   5.702   3.863  10.126
49253SOL     OW49655   9.452   8.267   6.876
49253SOL    HW149656   9.366   8.285   6.914
49253SOL    HW249657   9.491   8.200   6.932
49254SOL     OW49658   6.514   5.286   8.974
49254SOL    HW149659   6.421   5.280   8.994
49254SOL    HW249660   6.523   5.368   8.926
49255SOL     OW49661  14.041   8.052   7.096
49255SOL    HW149662  14.106   7.984   7.117
49255SOL    HW249663  14.004   8.075   7.181
49256SOL     OW49664   1.768   9.628  14.518
49256SOL    HW149665   1.786   9.572  14.442
49256SOL    HW249666   1.852   9.671  14.535
49257SOL     OW49667   5.377   4.895   9.042
49257SOL    HW149668   5.472   4.910   9.047
49257SOL    HW249669   5.339   4.982   9.058
49258SOL     OW49670   3.700   3.736   5.264
49258SOL    HW149671   3.636   3.690   5.319
49258SOL    HW249672   3.720   3.674   5.194
49259SOL     OW49673  13.672   6.383   7.923
49259SOL    HW149674  13.717   6.408   8.004
49259SOL    HW249675  13.645   6.293   7.937
49260SOL     OW49676   4.547  11.721   3.063
49260SOL    HW149677   4.530  11.780   3.137
49260SOL    HW249678   4.585  11.643   3.103
49261SOL     OW49679  10.384  11.924   2.328
49261SOL    HW149680  10.301  11.972   2.334
49261SOL    HW249681  10.433  11.953   2.405
49262SOL     OW49682   2.582   7.609   6.604
49262SOL    HW149683   2.509   7.597   6.544
49262SOL    HW249684   2.559   7.557   6.681
49263SOL     OW49685   1.255   7.555   9.598
49263SOL    HW149686   1.326   7.572   9.536
49263SOL    HW249687   1.269   7.617   9.670
49264SOL     OW49688   2.412  12.155  12.693
49264SOL    HW149689   2.415  12.079  12.635
49264SOL    HW249690   2.358  12.126  12.767
49265SOL     OW49691   0.930  12.389   5.069
49265SOL    HW149692   0.870  12.388   4.994
49265SOL    HW249693   0.877  12.424   5.141
49266SOL     OW49694  10.672  10.820  13.391
49266SOL    HW149695  10.592  10.771  13.409
49266SOL    HW249696  10.729  10.757  13.347
49267SOL     OW49697   8.385  11.955  13.732
49267SOL    HW149698   8.428  11.872  13.752
49267SOL    HW249699   8.291  11.936  13.742
49268SOL     OW49700   0.281   2.063   0.290
49268SOL    HW149701   0.252   2.028   0.374
49268SOL    HW249702   0.349   2.002   0.260
49269SOL     OW49703   0.686  14.844   5.957
49269SOL    HW149704   0.767   0.017   5.954
49269SOL    HW249705   0.648  14.855   5.869
49270SOL     OW49706   3.212   7.049   5.358
49270SOL    HW149707   3.282   7.016   5.414
49270SOL    HW249708   3.251   7.055   5.271
49271SOL     OW49709  10.977   0.084   9.023
49271SOL    HW149710  11.013   0.165   9.060
49271SOL    HW249711  10.953   0.107   8.933
49272SOL     OW49712  13.974   0.453  12.013
49272SOL    HW149713  13.966   0.497  11.928
49272SOL    HW249714  13.886   0.453  12.049
49273SOL     OW49715  10.122  10.688  11.975
49273SOL    HW149716  10.196  10.648  12.021
49273SOL    HW249717  10.112  10.635  11.896
49274SOL     OW49718  12.864   4.779   2.724
49274SOL    HW149719  12.855   4.855   2.783
49274SOL    HW249720  12.881   4.705   2.783
49275SOL     OW49721   3.710   6.757   3.483
49275SOL    HW149722   3.760   6.799   3.553
49275SOL    HW249723   3.770   6.754   3.409
49276SOL     OW49724   8.461  11.594   8.654
49276SOL    HW149725   8.532  11.529   8.656
49276SOL    HW249726   8.469  11.640   8.737
49277SOL     OW49727   2.871   1.932   0.324
49277SOL    HW149728   2.946   1.945   0.383
49277SOL    HW249729   2.816   1.868   0.370
49278SOL     OW49730  14.627   2.127   6.705
49278SOL    HW149731  14.540   2.096   6.681
49278SOL    HW249732  14.637   2.102   6.797
49279SOL     OW49733   0.086  11.049  12.384
49279SOL    HW149734   0.010  11.076  12.332
49279SOL    HW249735   0.114  11.128  12.429
49280SOL     OW49736   2.499   7.999   1.339
49280SOL    HW149737   2.464   8.014   1.426
49280SOL    HW249738   2.463   7.914   1.313
49281SOL     OW49739  11.074   0.853   6.066
49281SOL    HW149740  11.021   0.778   6.093
49281SOL    HW249741  11.076   0.849   5.971
49282SOL     OW49742  12.971  11.120   9.790
49282SOL    HW149743  12.903  11.186   9.803
49282SOL    HW249744  12.930  11.054   9.734
49283SOL     OW49745  13.660   6.802   7.910
49283SOL    HW149746  13.640   6.808   7.817
49283SOL    HW249747  13.616   6.878   7.949
49284SOL     OW49748  14.818  10.905  10.622
49284SOL    HW149749  14.831  10.922  10.716
49284SOL    HW249750  14.734  10.947  10.602
49285SOL     OW49751  10.737   4.814   9.546
49285SOL    HW149752  10.647   4.813   9.512
49285SOL    HW249753  10.749   4.728   9.585
49286SOL     OW49754   8.425   3.218  11.160
49286SOL    HW149755   8.383   3.281  11.103
49286SOL    HW249756   8.496   3.181  11.108
49287SOL     OW49757  14.623   4.895   6.281
49287SOL    HW149758  14.704   4.946   6.282
49287SOL    HW249759  14.555   4.956   6.308
49288SOL     OW49760  12.467   1.309  11.271
49288SOL    HW149761  12.485   1.403  11.280
49288SOL    HW249762  12.542   1.266  11.310
49289SOL     OW49763  10.792   6.914   8.067
49289SOL    HW149764  10.774   7.008   8.071
49289SOL    HW249765  10.780   6.891   7.975
49290SOL     OW49766  12.466   2.412   3.118
49290SOL    HW149767  12.532   2.482   3.113
49290SOL    HW249768  12.490   2.362   3.196
49291SOL     OW49769  13.519  12.113   3.688
49291SOL    HW149770  13.461  12.048   3.648
49291SOL    HW249771  13.501  12.194   3.639
49292SOL     OW49772   5.972  12.758   8.422
49292SOL    HW149773   5.931  12.769   8.508
49292SOL    HW249774   5.955  12.840   8.376
49293SOL     OW49775   4.101   8.747   2.732
49293SOL    HW149776   4.071   8.746   2.822
49293SOL    HW249777   4.022   8.752   2.679
49294SOL     OW49778   7.900   8.944   9.356
49294SOL    HW149779   7.882   8.857   9.320
49294SOL    HW249780   7.817   8.990   9.349
49295SOL     OW49781   4.812   2.981  10.575
49295SOL    HW149782   4.855   2.896  10.580
49295SOL    HW249783   4.748   2.979  10.646
49296SOL     OW49784   4.109   2.368   6.222
49296SOL    HW149785   4.148   2.354   6.136
49296SOL    HW249786   4.027   2.319   6.219
49297SOL     OW49787   6.363  13.228   3.018
49297SOL    HW149788   6.278  13.188   2.999
49297SOL    HW249789   6.392  13.184   3.098
49298SOL     OW49790  11.055  14.550   2.321
49298SOL    HW149791  10.970  14.517   2.350
49298SOL    HW249792  11.118  14.484   2.351
49299SOL     OW49793   7.391   8.515  14.215
49299SOL    HW149794   7.487   8.517  14.219
49299SOL    HW249795   7.369   8.422  14.209
49300SOL     OW49796  13.875  11.634   7.511
49300SOL    HW149797  13.931  11.659   7.584
49300SOL    HW249798  13.786  11.635   7.546
49301SOL     OW49799   2.234   2.072   3.965
49301SOL    HW149800   2.216   2.151   4.015
49301SOL    HW249801   2.267   2.009   4.029
49302SOL     OW49802   6.847  11.044   0.111
49302SOL    HW149803   6.791  11.104   0.061
49302SOL    HW249804   6.921  11.026   0.053
49303SOL     OW49805  11.653   4.476  14.662
49303SOL    HW149806  11.727   4.535  14.648
49303SOL    HW249807  11.634   4.483  14.756
49304SOL     OW49808  12.361  13.153  13.600
49304SOL    HW149809  12.287  13.183  13.652
49304SOL    HW249810  12.322  13.099  13.532
49305SOL     OW49811   5.198  14.467   5.781
49305SOL    HW149812   5.232  14.455   5.870
49305SOL    HW249813   5.253  14.410   5.727
49306SOL     OW49814   1.171  13.804   6.512
49306SOL    HW149815   1.241  13.836   6.569
49306SOL    HW249816   1.115  13.752   6.570
49307SOL     OW49817  12.609   7.133  10.676
49307SOL    HW149818  12.529   7.186  10.677
49307SOL    HW249819  12.644   7.145  10.588
49308SOL     OW49820   0.635   6.856   6.312
49308SOL    HW149821   0.586   6.935   6.333
49308SOL    HW249822   0.569   6.786   6.314
49309SOL     OW49823   8.800   1.813   6.432
49309SOL    HW149824   8.794   1.885   6.495
49309SOL    HW249825   8.892   1.787   6.434
49310SOL     OW49826   9.283   3.850  14.589
49310SOL    HW149827   9.252   3.900  14.513
49310SOL    HW249828   9.245   3.894  14.665
49311SOL     OW49829  13.519  11.434   5.494
49311SOL    HW149830  13.539  11.399   5.407
49311SOL    HW249831  13.603  11.467   5.527
49312SOL     OW49832   1.038   6.228  13.808
49312SOL    HW149833   1.068   6.245  13.897
49312SOL    HW249834   1.115   6.193  13.763
49313SOL     OW49835   8.930  13.630   1.428
49313SOL    HW149836   8.876  13.595   1.358
49313SOL    HW249837   8.867  13.667   1.491
49314SOL     OW49838   9.085   3.005   0.092
49314SOL    HW149839   9.012   3.008   0.154
49314SOL    HW249840   9.052   3.048   0.013
49315SOL     OW49841   1.833  11.569   5.897
49315SOL    HW149842   1.890  11.609   5.963
49315SOL    HW249843   1.777  11.510   5.948
49316SOL     OW49844  14.339  13.303  14.371
49316SOL    HW149845  14.394  13.243  14.320
49316SOL    HW249846  14.339  13.266  14.459
49317SOL     OW49847   8.104   1.250  10.556
49317SOL    HW149848   8.121   1.197  10.633
49317SOL    HW249849   8.082   1.337  10.590
49318SOL     OW49850   4.451  13.383   3.351
49318SOL    HW149851   4.453  13.379   3.255
49318SOL    HW249852   4.357  13.384   3.373
49319SOL     OW49853   3.977  14.268   9.279
49319SOL    HW149854   3.899  14.265   9.334
49319SOL    HW249855   3.970  14.352   9.233
49320SOL     OW49856  11.877   5.835   3.713
49320SOL    HW149857  11.966   5.818   3.682
49320SOL    HW249858  11.825   5.762   3.679
49321SOL     OW49859   1.522  13.198  13.715
49321SOL    HW149860   1.594  13.258  13.699
49321SOL    HW249861   1.451  13.254  13.748
49322SOL     OW49862  11.778  13.972  14.659
49322SOL    HW149863  11.864  13.945  14.626
49322SOL    HW249864  11.719  13.903  14.628
49323SOL     OW49865   9.943   8.294   0.243
49323SOL    HW149866   9.942   8.388   0.225
49323SOL    HW249867   9.955   8.253   0.157
49324SOL     OW49868   8.260  10.039  12.281
49324SOL    HW149869   8.352  10.014  12.283
49324SOL    HW249870   8.245  10.082  12.366
49325SOL     OW49871   7.563  14.571   3.035
49325SOL    HW149872   7.563  14.646   2.976
49325SOL    HW249873   7.473  14.539   3.033
49326SOL     OW49874  11.024   9.566  14.327
49326SOL    HW149875  10.937   9.585  14.291
49326SOL    HW249876  11.007   9.526  14.412
49327SOL     OW49877  14.785   1.518   7.859
49327SOL    HW149878  14.868   1.492   7.820
49327SOL    HW249879  14.806   1.538   7.950
49328SOL     OW49880   7.422  13.237  13.303
49328SOL    HW149881   7.418  13.293  13.380
49328SOL    HW249882   7.501  13.184  13.315
49329SOL     OW49883   9.439  10.338   5.500
49329SOL    HW149884   9.407  10.349   5.410
49329SOL    HW249885   9.513  10.399   5.506
49330SOL     OW49886   1.137   9.884  13.914
49330SOL    HW149887   1.134   9.789  13.904
49330SOL    HW249888   1.204   9.899  13.981
49331SOL     OW49889   4.939   8.476   9.745
49331SOL    HW149890   4.918   8.519   9.828
49331SOL    HW249891   4.864   8.493   9.689
49332SOL     OW49892   7.477   1.823   7.164
49332SOL    HW149893   7.554   1.870   7.194
49332SOL    HW249894   7.407   1.888   7.163
49333SOL     OW49895   0.720  11.116   6.039
49333SOL    HW149896   0.776  11.171   6.094
49333SOL    HW249897   0.736  11.027   6.071
49334SOL     OW49898   5.572  12.183   6.179
49334SOL    HW149899   5.555  12.255   6.239
49334SOL    HW249900   5.639  12.216   6.120
49335SOL     OW49901  10.180  11.617   2.533
49335SOL    HW149902  10.213  11.530   2.555
49335SOL    HW249903  10.217  11.637   2.447
49336SOL     OW49904  14.157  14.424   0.452
49336SOL    HW149905  14.172  14.518   0.464
49336SOL    HW249906  14.172  14.386   0.538
49337SOL     OW49907   0.785  13.628   8.030
49337SOL    HW149908   0.739  13.630   7.946
49337SOL    HW249909   0.755  13.706   8.075
49338SOL     OW49910   5.227   0.492   8.840
49338SOL    HW149911   5.237   0.490   8.745
49338SOL    HW249912   5.255   0.406   8.869
49339SOL     OW49913   2.946  11.843   6.105
49339SOL    HW149914   2.928  11.758   6.064
49339SOL    HW249915   3.015  11.825   6.169
49340SOL     OW49916   1.487   2.738   5.809
49340SOL    HW149917   1.518   2.725   5.899
49340SOL    HW249918   1.540   2.811   5.776
49341SOL     OW49919   2.474  12.059   7.372
49341SOL    HW149920   2.386  12.042   7.338
49341SOL    HW249921   2.471  12.150   7.401
49342SOL     OW49922   3.637   6.189  11.281
49342SOL    HW149923   3.710   6.237  11.243
49342SOL    HW249924   3.560   6.239  11.255
49343SOL     OW49925  11.227   5.392   4.516
49343SOL    HW149926  11.285   5.468   4.516
49343SOL    HW249927  11.231   5.359   4.426
49344SOL     OW49928   1.716   3.171  11.494
49344SOL    HW149929   1.812   3.169  11.492
49344SOL    HW249930   1.695   3.243  11.554
49345SOL     OW49931   5.362   4.753   5.899
49345SOL    HW149932   5.316   4.706   5.829
49345SOL    HW249933   5.403   4.827   5.855
49346SOL     OW49934   8.175  10.884   5.758
49346SOL    HW149935   8.093  10.837   5.772
49346SOL    HW249936   8.213  10.843   5.680
49347SOL     OW49937   4.521  14.002   7.475
49347SOL    HW149938   4.451  13.938   7.458
49347SOL    HW249939   4.475  14.082   7.497
49348SOL     OW49940   4.331   3.730   6.146
49348SOL    HW149941   4.281   3.660   6.188
49348SOL    HW249942   4.264   3.782   6.101
49349SOL     OW49943   0.591   2.277   1.008
49349SOL    HW149944   0.540   2.267   0.927
49349SOL    HW249945   0.582   2.369   1.031
49350SOL     OW49946  10.718   5.958   9.465
49350SOL    HW149947  10.788   5.981   9.404
49350SOL    HW249948  10.648   6.020   9.445
49351SOL     OW49949   5.602   8.715   3.482
49351SOL    HW149950   5.679   8.688   3.533
49351SOL    HW249951   5.555   8.634   3.465
49352SOL     OW49952  13.583   6.050  10.336
49352SOL    HW149953  13.595   5.962  10.371
49352SOL    HW249954  13.495   6.050  10.299
49353SOL     OW49955  12.256   2.097   4.385
49353SOL    HW149956  12.332   2.048   4.417
49353SOL    HW249957  12.270   2.104   4.291
49354SOL     OW49958   9.206  13.407   8.415
49354SOL    HW149959   9.231  13.328   8.464
49354SOL    HW249960   9.229  13.479   8.474
49355SOL     OW49961  11.956   7.158   8.621
49355SOL    HW149962  11.940   7.240   8.668
49355SOL    HW249963  11.959   7.091   8.690
49356SOL     OW49964  11.193  10.077  14.471
49356SOL    HW149965  11.207   9.988  14.506
49356SOL    HW249966  11.260  10.086  14.404
49357SOL     OW49967  14.687  12.113   7.288
49357SOL    HW149968  14.663  12.023   7.268
49357SOL    HW249969  14.709  12.111   7.381
49358SOL     OW49970  10.285  10.519  12.950
49358SOL    HW149971  10.191  10.514  12.934
49358SOL    HW249972  10.323  10.544  12.866
49359SOL     OW49973   0.216   9.026   5.116
49359SOL    HW149974   0.303   8.997   5.088
49359SOL    HW249975   0.219   9.121   5.106
49360SOL     OW49976  12.771  12.603  14.582
49360SOL    HW149977  12.735  12.525  14.625
49360SOL    HW249978  12.767  12.582  14.489
49361SOL     OW49979   0.246  10.340   6.186
49361SOL    HW149980   0.167  10.311   6.141
49361SOL    HW249981   0.232  10.433   6.202
49362SOL     OW49982  13.001   5.525   4.030
49362SOL    HW149983  12.971   5.613   4.010
49362SOL    HW249984  13.089   5.520   3.994
49363SOL     OW49985   7.633  13.054  10.013
49363SOL    HW149986   7.554  13.040   9.960
49363SOL    HW249987   7.637  13.149  10.025
49364SOL     OW49988   6.858  14.457  14.735
49364SOL    HW149989   6.849  14.413  14.650
49364SOL    HW249990   6.770  14.459  14.771
49365SOL     OW49991   2.851  11.823   3.961
49365SOL    HW149992   2.848  11.889   4.030
49365SOL    HW249993   2.865  11.874   3.881
49366SOL     OW49994  12.418   1.095  14.418
49366SOL    HW149995  12.358   1.067  14.349
49366SOL    HW249996  12.402   1.034  14.490
49367SOL     OW49997   9.189  11.236   6.659
49367SOL    HW149998   9.111  11.279   6.623
49367SOL    HW249999   9.220  11.296   6.727
49368SOL     OW50000  13.747   9.524   7.109
49368SOL    HW150001  13.842   9.537   7.099
49368SOL    HW250002  13.739   9.434   7.143
49369SOL     OW50003  11.994  10.853   1.413
49369SOL    HW150004  11.918  10.845   1.354
49369SOL    HW250005  12.008  10.947   1.421
49370SOL     OW50006   0.438  13.312   1.543
49370SOL    HW150007   0.422  13.293   1.636
49370SOL    HW250008   0.385  13.248   1.495
49371SOL     OW50009  14.120  10.673   1.179
49371SOL    HW150010  14.057  10.664   1.251
49371SOL    HW250011  14.069  10.709   1.107
49372SOL     OW50012  10.008   8.673   5.703
49372SOL    HW150013  10.086   8.673   5.759
49372SOL    HW250014   9.945   8.617   5.749
49373SOL     OW50015  11.646   2.402   7.181
49373SOL    HW150016  11.553   2.378   7.183
49373SOL    HW250017  11.679   2.375   7.267
49374SOL     OW50018   5.934   2.109   9.925
49374SOL    HW150019   5.912   2.135  10.014
49374SOL    HW250020   5.887   2.172   9.869
49375SOL     OW50021  12.829   5.238  13.582
49375SOL    HW150022  12.868   5.151  13.596
49375SOL    HW250023  12.736   5.220  13.570
49376SOL     OW50024  14.511  13.211   8.981
49376SOL    HW150025  14.539  13.277   8.917
49376SOL    HW250026  14.420  13.234   9.001
49377SOL     OW50027   7.422   8.255   0.161
49377SOL    HW150028   7.495   8.196   0.139
49377SOL    HW250029   7.447   8.339   0.121
49378SOL     OW50030   9.532   0.856   8.923
49378SOL    HW150031   9.574   0.786   8.972
49378SOL    HW250032   9.581   0.935   8.948
49379SOL     OW50033   3.478  11.689   0.515
49379SOL    HW150034   3.447  11.776   0.538
49379SOL    HW250035   3.552  11.705   0.455
49380SOL     OW50036   5.159   7.243  12.006
49380SOL    HW150037   5.193   7.267  11.919
49380SOL    HW250038   5.070   7.213  11.989
49381SOL     OW50039   8.757   1.116  13.332
49381SOL    HW150040   8.713   1.033  13.316
49381SOL    HW250041   8.685   1.177  13.351
49382SOL     OW50042   5.670   3.787   6.121
49382SOL    HW150043   5.644   3.697   6.143
49382SOL    HW250044   5.677   3.787   6.026
49383SOL     OW50045   5.951  14.466   3.664
49383SOL    HW150046   5.876  14.417   3.630
49383SOL    HW250047   5.929  14.481   3.756
49384SOL     OW50048  12.473   3.939  10.471
49384SOL    HW150049  12.480   3.844  10.473
49384SOL    HW250050  12.483   3.965  10.563
49385SOL     OW50051  14.001   6.062   0.241
49385SOL    HW150052  13.995   6.051   0.336
49385SOL    HW250053  13.964   5.981   0.205
49386SOL     OW50054   5.883   5.524   8.939
49386SOL    HW150055   5.933   5.584   8.884
49386SOL    HW250056   5.925   5.528   9.024
49387SOL     OW50057   7.067   5.320   1.582
49387SOL    HW150058   6.998   5.291   1.522
49387SOL    HW250059   7.031   5.396   1.626
49388SOL     OW50060   3.515  12.171   7.368
49388SOL    HW150061   3.531  12.236   7.437
49388SOL    HW250062   3.461  12.217   7.304
49389SOL     OW50063  11.466  13.770   2.399
49389SOL    HW150064  11.527  13.701   2.425
49389SOL    HW250065  11.512  13.820   2.332
49390SOL     OW50066   8.578   8.793   5.089
49390SOL    HW150067   8.570   8.754   5.001
49390SOL    HW250068   8.502   8.850   5.096
49391SOL     OW50069   6.703   2.682  10.976
49391SOL    HW150070   6.633   2.648  11.031
49391SOL    HW250071   6.674   2.771  10.953
49392SOL     OW50072   5.792  12.565   9.381
49392SOL    HW150073   5.811  12.472   9.372
49392SOL    HW250074   5.878  12.607   9.384
49393SOL     OW50075   3.089   6.990   0.994
49393SOL    HW150076   3.161   6.949   0.945
49393SOL    HW250077   3.043   6.916   1.034
49394SOL     OW50078   7.312   7.295   6.987
49394SOL    HW150079   7.275   7.293   6.899
49394SOL    HW250080   7.300   7.386   7.016
49395SOL     OW50081   8.626  11.964   8.568
49395SOL    HW150082   8.530  11.974   8.570
49395SOL    HW250083   8.658  12.048   8.535
49396SOL     OW50084   9.275   3.669   8.625
49396SOL    HW150085   9.337   3.618   8.676
49396SOL    HW250086   9.194   3.667   8.676
49397SOL     OW50087   0.593   1.793   9.711
49397SOL    HW150088   0.635   1.805   9.625
49397SOL    HW250089   0.569   1.701   9.714
49398SOL     OW50090   6.624   9.596  14.727
49398SOL    HW150091   6.548   9.563  14.678
49398SOL    HW250092   6.594   9.676  14.768
49399SOL     OW50093   7.804   7.207   1.263
49399SOL    HW150094   7.895   7.215   1.290
49399SOL    HW250095   7.809   7.181   1.171
49400SOL     OW50096   4.222  12.918   6.188
49400SOL    HW150097   4.206  12.933   6.281
49400SOL    HW250098   4.282  12.988   6.162
49401SOL     OW50099  13.995  11.234   7.320
49401SOL    HW150100  13.935  11.306   7.338
49401SOL    HW250101  14.048  11.226   7.400
49402SOL     OW50102   4.918   4.520   8.382
49402SOL    HW150103   5.010   4.501   8.400
49402SOL    HW250104   4.896   4.592   8.441
49403SOL     OW50105  13.542  13.860   5.158
49403SOL    HW150106  13.623  13.874   5.207
49403SOL    HW250107  13.559  13.782   5.105
49404SOL     OW50108  12.337   4.789  12.441
49404SOL    HW150109  12.343   4.811  12.348
49404SOL    HW250110  12.268   4.845  12.475
49405SOL     OW50111  12.517  14.312   8.537
49405SOL    HW150112  12.434  14.317   8.489
49405SOL    HW250113  12.557  14.397   8.524
49406SOL     OW50114  10.175   6.065   4.486
49406SOL    HW150115  10.171   6.158   4.510
49406SOL    HW250116  10.102   6.052   4.426
49407SOL     OW50117   7.875   2.128   5.260
49407SOL    HW150118   7.895   2.191   5.190
49407SOL    HW250119   7.958   2.082   5.275
49408SOL     OW50120   3.992   9.543  11.204
49408SOL    HW150121   3.902   9.552  11.233
49408SOL    HW250122   4.013   9.627  11.164
49409SOL     OW50123   4.251  13.562  13.667
49409SOL    HW150124   4.291  13.649  13.668
49409SOL    HW250125   4.271  13.527  13.754
49410SOL     OW50126  14.517  13.563   7.110
49410SOL    HW150127  14.501  13.623   7.036
49410SOL    HW250128  14.501  13.476   7.074
49411SOL     OW50129  10.870  10.351   9.109
49411SOL    HW150130  10.883  10.388   9.196
49411SOL    HW250131  10.917  10.410   9.050
49412SOL     OW50132  13.276  12.763  13.229
49412SOL    HW150133  13.194  12.791  13.270
49412SOL    HW250134  13.341  12.825  13.262
49413SOL     OW50135   0.473   9.006  14.524
49413SOL    HW150136   0.487   9.093  14.487
49413SOL    HW250137   0.378   9.000  14.533
49414SOL     OW50138   5.063   0.659   7.798
49414SOL    HW150139   5.007   0.672   7.875
49414SOL    HW250140   5.135   0.720   7.810
49415SOL     OW50141  13.494  14.500   4.380
49415SOL    HW150142  13.404  14.472   4.399
49415SOL    HW250143  13.505  14.483   4.287
49416SOL     OW50144   6.326  13.590   4.143
49416SOL    HW150145   6.415  13.568   4.172
49416SOL    HW250146   6.326  13.685   4.134
49417SOL     OW50147   4.919  11.472   0.711
49417SOL    HW150148   4.903  11.556   0.755
49417SOL    HW250149   5.013  11.472   0.694
49418SOL     OW50150   3.278  12.696  13.312
49418SOL    HW150151   3.300  12.769  13.255
49418SOL    HW250152   3.332  12.624  13.282
49419SOL     OW50153  13.509  14.480   4.907
49419SOL    HW150154  13.495  14.551   4.845
49419SOL    HW250155  13.603  14.476   4.919
49420SOL     OW50156   5.464  13.207   6.190
49420SOL    HW150157   5.395  13.151   6.156
49420SOL    HW250158   5.455  13.289   6.141
49421SOL     OW50159   3.369  11.283   8.248
49421SOL    HW150160   3.310  11.290   8.173
49421SOL    HW250161   3.440  11.344   8.228
49422SOL     OW50162   0.484  11.934   7.878
49422SOL    HW150163   0.441  12.013   7.845
49422SOL    HW250164   0.470  11.937   7.973
49423SOL     OW50165  11.337  11.257  12.091
49423SOL    HW150166  11.379  11.332  12.133
49423SOL    HW250167  11.285  11.216  12.160
49424SOL     OW50168  11.428   5.161  14.575
49424SOL    HW150169  11.503   5.130  14.625
49424SOL    HW250170  11.458   5.160  14.484
49425SOL     OW50171   8.206  10.861  14.314
49425SOL    HW150172   8.167  10.848  14.401
49425SOL    HW250173   8.204  10.956  14.300
49426SOL     OW50174   5.221   6.170   8.722
49426SOL    HW150175   5.167   6.172   8.801
49426SOL    HW250176   5.290   6.234   8.738
49427SOL     OW50177   3.732   0.248   2.218
49427SOL    HW150178   3.642   0.216   2.223
49427SOL    HW250179   3.783   0.172   2.192
49428SOL     OW50180   4.796  13.051  11.132
49428SOL    HW150181   4.730  13.120  11.137
49428SOL    HW250182   4.745  12.970  11.124
49429SOL     OW50183  14.353  12.055  10.907
49429SOL    HW150184  14.446  12.051  10.881
49429SOL    HW250185  14.355  12.058  11.002
49430SOL     OW50186  14.077  12.769   8.077
49430SOL    HW150187  14.018  12.793   8.005
49430SOL    HW250188  14.026  12.707   8.129
49431SOL     OW50189  13.044  14.678   6.935
49431SOL    HW150190  13.045  14.638   7.022
49431SOL    HW250191  13.136  14.685   6.911
49432SOL     OW50192   9.043   4.546   9.367
49432SOL    HW150193   8.983   4.538   9.293
49432SOL    HW250194   9.130   4.541   9.328
49433SOL     OW50195  11.158  10.770  11.697
49433SOL    HW150196  11.246  10.798  11.671
49433SOL    HW250197  11.100  10.824  11.643
49434SOL     OW50198   6.896  14.851   0.768
49434SOL    HW150199   6.926   0.057   0.737
49434SOL    HW250200   6.926  14.846   0.858
49435SOL     OW50201  12.967   3.860   3.653
49435SOL    HW150202  12.952   3.767   3.665
49435SOL    HW250203  12.924   3.882   3.570
49436SOL     OW50204   4.519   9.632   1.599
49436SOL    HW150205   4.563   9.716   1.588
49436SOL    HW250206   4.583   9.577   1.644
49437SOL     OW50207  10.163   9.392   8.032
49437SOL    HW150208  10.210   9.339   8.097
49437SOL    HW250209  10.222   9.466   8.015
49438SOL     OW50210  13.454   0.931   9.234
49438SOL    HW150211  13.483   0.849   9.193
49438SOL    HW250212  13.490   0.927   9.323
49439SOL     OW50213   9.006   8.566  11.513
49439SOL    HW150214   9.038   8.476  11.521
49439SOL    HW250215   9.075   8.619  11.554
49440SOL     OW50216   7.021  14.246  12.720
49440SOL    HW150217   7.032  14.336  12.752
49440SOL    HW250218   6.934  14.245  12.681
49441SOL     OW50219  11.933   5.696   9.971
49441SOL    HW150220  11.842   5.666   9.961
49441SOL    HW250221  11.976   5.628  10.022
49442SOL     OW50222   3.307  10.678   2.704
49442SOL    HW150223   3.368  10.680   2.778
49442SOL    HW250224   3.361  10.692   2.627
49443SOL     OW50225  13.368   5.561   6.735
49443SOL    HW150226  13.304   5.596   6.797
49443SOL    HW250227  13.372   5.468   6.755
49444SOL     OW50228   5.583  10.452   6.791
49444SOL    HW150229   5.557  10.525   6.734
49444SOL    HW250230   5.651  10.407   6.740
49445SOL     OW50231  14.339  13.037   2.013
49445SOL    HW150232  14.281  12.976   1.967
49445SOL    HW250233  14.306  13.123   1.991
49446SOL     OW50234   1.927   5.959   7.616
49446SOL    HW150235   2.018   5.933   7.605
49446SOL    HW250236   1.877   5.898   7.562
49447SOL     OW50237   2.995   4.423   9.164
49447SOL    HW150238   3.024   4.498   9.217
49447SOL    HW250239   2.905   4.406   9.195
49448SOL     OW50240  14.523   8.150   4.802
49448SOL    HW150241  14.577   8.071   4.802
49448SOL    HW250242  14.498   8.162   4.893
49449SOL     OW50243   6.549   6.769  10.837
49449SOL    HW150244   6.628   6.723  10.866
49449SOL    HW250245   6.478   6.725  10.882
49450SOL     OW50246  11.606   7.370   0.444
49450SOL    HW150247  11.516   7.362   0.414
49450SOL    HW250248  11.600   7.371   0.540
49451SOL     OW50249   5.695  12.118  14.115
49451SOL    HW150250   5.654  12.138  14.031
49451SOL    HW250251   5.621  12.107  14.175
49452SOL     OW50252   3.361   5.131   6.340
49452SOL    HW150253   3.366   5.037   6.324
49452SOL    HW250254   3.321   5.167   6.261
49453SOL     OW50255   6.774   6.653   6.256
49453SOL    HW150256   6.850   6.704   6.283
49453SOL    HW250257   6.746   6.693   6.174
49454SOL     OW50258  14.386   4.776   7.655
49454SOL    HW150259  14.430   4.691   7.651
49454SOL    HW250260  14.303   4.758   7.699
49455SOL     OW50261  10.525   6.775   2.419
49455SOL    HW150262  10.530   6.805   2.510
49455SOL    HW250263  10.444   6.725   2.415
49456SOL     OW50264   7.114   1.098   7.112
49456SOL    HW150265   7.127   1.032   7.044
49456SOL    HW250266   7.200   1.106   7.154
49457SOL     OW50267   6.838  12.596   7.973
49457SOL    HW150268   6.897  12.664   7.941
49457SOL    HW250269   6.782  12.641   8.036
49458SOL     OW50270   1.953   1.261   2.199
49458SOL    HW150271   1.894   1.261   2.275
49458SOL    HW250272   2.040   1.247   2.236
49459SOL     OW50273  13.532  10.162   4.369
49459SOL    HW150274  13.592  10.092   4.343
49459SOL    HW250275  13.478  10.124   4.437
49460SOL     OW50276   9.051   4.875   5.459
49460SOL    HW150277   8.964   4.843   5.435
49460SOL    HW250278   9.070   4.833   5.542
49461SOL     OW50279   7.099   6.102   4.866
49461SOL    HW150280   7.153   6.030   4.898
49461SOL    HW250281   7.161   6.173   4.851
49462SOL     OW50282   1.809  14.161   8.758
49462SOL    HW150283   1.748  14.138   8.688
49462SOL    HW250284   1.784  14.103   8.830
49463SOL     OW50285   3.832   2.687  10.408
49463SOL    HW150286   3.825   2.782  10.401
49463SOL    HW250287   3.852   2.671  10.501
49464SOL     OW50288   5.011   7.207  14.303
49464SOL    HW150289   5.100   7.222  14.333
49464SOL    HW250290   5.020   7.170  14.216
49465SOL     OW50291   0.465   1.983   7.256
49465SOL    HW150292   0.548   1.959   7.214
49465SOL    HW250293   0.460   2.078   7.245
49466SOL     OW50294   1.891  13.455   8.436
49466SOL    HW150295   1.892  13.459   8.532
49466SOL    HW250296   1.980  13.481   8.411
49467SOL     OW50297  11.170   7.089   1.712
49467SOL    HW150298  11.127   7.018   1.761
49467SOL    HW250299  11.100   7.150   1.692
49468SOL     OW50300   8.325   3.048   7.624
49468SOL    HW150301   8.331   3.097   7.541
49468SOL    HW250302   8.404   2.995   7.626
49469SOL     OW50303  14.818   2.702   1.306
49469SOL    HW150304  14.860   2.684   1.222
49469SOL    HW250305  14.732   2.661   1.298
49470SOL     OW50306  10.983  10.230   4.322
49470SOL    HW150307  11.070  10.259   4.349
49470SOL    HW250308  10.996  10.138   4.296
49471SOL     OW50309   6.298   7.574   8.364
49471SOL    HW150310   6.271   7.497   8.315
49471SOL    HW250311   6.363   7.617   8.308
49472SOL     OW50312  13.586   9.531   8.375
49472SOL    HW150313  13.654   9.467   8.394
49472SOL    HW250314  13.570   9.522   8.281
49473SOL     OW50315   4.513   1.872  14.473
49473SOL    HW150316   4.579   1.809  14.442
49473SOL    HW250317   4.483   1.836  14.556
49474SOL     OW50318  12.528   9.513   0.973
49474SOL    HW150319  12.575   9.585   0.930
49474SOL    HW250320  12.436   9.528   0.950
49475SOL     OW50321  12.396   8.731   3.025
49475SOL    HW150322  12.424   8.665   3.089
49475SOL    HW250323  12.331   8.686   2.971
49476SOL     OW50324   5.883  10.019  11.519
49476SOL    HW150325   5.819  10.015  11.589
49476SOL    HW250326   5.846   9.965  11.449
49477SOL     OW50327   4.477  12.085  12.975
49477SOL    HW150328   4.478  12.176  12.945
49477SOL    HW250329   4.565  12.052  12.956
49478SOL     OW50330   0.710   5.372   8.381
49478SOL    HW150331   0.767   5.312   8.429
49478SOL    HW250332   0.622   5.339   8.396
49479SOL     OW50333   7.530   4.712   8.318
49479SOL    HW150334   7.558   4.627   8.285
49479SOL    HW250335   7.563   4.775   8.254
49480SOL     OW50336   7.148  11.349   3.263
49480SOL    HW150337   7.106  11.413   3.206
49480SOL    HW250338   7.212  11.400   3.313
49481SOL     OW50339   5.930   9.971   5.397
49481SOL    HW150340   5.949   9.884   5.432
49481SOL    HW250341   5.976  10.031   5.454
49482SOL     OW50342   4.003   5.022  14.312
49482SOL    HW150343   4.087   4.984  14.338
49482SOL    HW250344   3.943   5.000  14.383
49483SOL     OW50345   4.038   8.778  14.593
49483SOL    HW150346   4.119   8.730  14.575
49483SOL    HW250347   4.019   8.825  14.512
49484SOL     OW50348  13.179   8.691   6.157
49484SOL    HW150349  13.232   8.769   6.175
49484SOL    HW250350  13.128   8.715   6.079
49485SOL     OW50351   3.262   2.540   5.746
49485SOL    HW150352   3.328   2.576   5.686
49485SOL    HW250353   3.203   2.613   5.764
49486SOL     OW50354   1.832  11.083   7.369
49486SOL    HW150355   1.833  10.999   7.323
49486SOL    HW250356   1.880  11.066   7.450
49487SOL     OW50357   3.971   2.050  13.906
49487SOL    HW150358   4.053   2.020  13.946
49487SOL    HW250359   3.906   1.984  13.930
49488SOL     OW50360   6.820   1.621   9.864
49488SOL    HW150361   6.846   1.545   9.917
49488SOL    HW250362   6.756   1.586   9.802
49489SOL     OW50363  11.866   8.143   1.803
49489SOL    HW150364  11.911   8.185   1.877
49489SOL    HW250365  11.898   8.053   1.804
49490SOL     OW50366  13.891   0.804   2.243
49490SOL    HW150367  13.892   0.792   2.337
49490SOL    HW250368  13.983   0.799   2.217
49491SOL     OW50369   3.888  11.351  13.199
49491SOL    HW150370   3.802  11.319  13.170
49491SOL    HW250371   3.876  11.446  13.208
49492SOL     OW50372  10.700  12.100  11.626
49492SOL    HW150373  10.650  12.064  11.699
49492SOL    HW250374  10.669  12.051  11.550
49493SOL     OW50375   2.686  13.188   6.248
49493SOL    HW150376   2.610  13.241   6.274
49493SOL    HW250377   2.656  13.098   6.258
49494SOL     OW50378   4.068  12.980  13.081
49494SOL    HW150379   3.973  12.975  13.068
49494SOL    HW250380   4.084  13.069  13.112
49495SOL     OW50381   9.227  10.397   9.007
49495SOL    HW150382   9.184  10.313   9.024
49495SOL    HW250383   9.219  10.409   8.912
49496SOL     OW50384  12.457  10.836   5.348
49496SOL    HW150385  12.412  10.881   5.419
49496SOL    HW250386  12.519  10.777   5.392
49497SOL     OW50387   2.908  10.666   9.351
49497SOL    HW150388   2.843  10.609   9.391
49497SOL    HW250389   2.965  10.692   9.423
49498SOL     OW50390   2.548   3.450  11.943
49498SOL    HW150391   2.592   3.534  11.958
49498SOL    HW250392   2.617   3.391  11.914
49499SOL     OW50393   7.598   4.706  12.842
49499SOL    HW150394   7.674   4.683  12.788
49499SOL    HW250395   7.525   4.662  12.800
49500SOL     OW50396   3.552  11.259   1.333
49500SOL    HW150397   3.525  11.281   1.422
49500SOL    HW250398   3.510  11.325   1.278
49501SOL     OW50399  10.429   0.731   8.967
49501SOL    HW150400  10.396   0.720   9.056
49501SOL    HW250401  10.408   0.648   8.924
49502SOL     OW50402   1.408  11.188   5.339
49502SOL    HW150403   1.448  11.190   5.426
49502SOL    HW250404   1.466  11.242   5.285
49503SOL     OW50405   8.786   2.743   6.262
49503SOL    HW150406   8.815   2.787   6.342
49503SOL    HW250407   8.696   2.717   6.280
49504SOL     OW50408  12.741  13.648  10.824
49504SOL    HW150409  12.777  13.732  10.853
49504SOL    HW250410  12.785  13.583  10.878
49505SOL     OW50411   9.731  12.629   9.819
49505SOL    HW150412   9.746  12.701   9.758
49505SOL    HW250413   9.806  12.570   9.806
49506SOL     OW50414   9.352   1.875   0.198
49506SOL    HW150415   9.263   1.912   0.194
49506SOL    HW250416   9.351   1.804   0.135
49507SOL     OW50417  12.833  11.828   9.907
49507SOL    HW150418  12.759  11.814   9.966
49507SOL    HW250419  12.898  11.874   9.960
49508SOL     OW50420   6.983  14.609   4.174
49508SOL    HW150421   6.895  14.589   4.140
49508SOL    HW250422   7.002  14.697   4.141
49509SOL     OW50423  14.706  10.900  14.419
49509SOL    HW150424  14.768  10.835  14.386
49509SOL    HW250425  14.757  10.957  14.475
49510SOL     OW50426   8.127   9.361   3.011
49510SOL    HW150427   8.054   9.305   3.035
49510SOL    HW250428   8.186   9.357   3.086
49511SOL     OW50429   1.456   2.206  14.027
49511SOL    HW150430   1.446   2.120  14.066
49511SOL    HW250431   1.368   2.229  13.997
49512SOL     OW50432  11.673   8.682  12.942
49512SOL    HW150433  11.591   8.672  12.991
49512SOL    HW250434  11.710   8.763  12.975
49513SOL     OW50435   6.268   6.406  13.886
49513SOL    HW150436   6.173   6.401  13.902
49513SOL    HW250437   6.281   6.360  13.803
49514SOL     OW50438  13.311   1.348   1.005
49514SOL    HW150439  13.238   1.400   1.038
49514SOL    HW250440  13.389   1.392   1.039
49515SOL     OW50441   9.205   6.590   8.394
49515SOL    HW150442   9.274   6.653   8.377
49515SOL    HW250443   9.126   6.630   8.358
49516SOL     OW50444  10.721   3.754   8.908
49516SOL    HW150445  10.798   3.811   8.909
49516SOL    HW250446  10.662   3.793   8.973
49517SOL     OW50447   0.995   5.492  11.735
49517SOL    HW150448   0.905   5.474  11.762
49517SOL    HW250449   1.030   5.550  11.803
49518SOL     OW50450  12.995   8.909  14.154
49518SOL    HW150451  13.076   8.881  14.196
49518SOL    HW250452  13.023   8.949  14.071
49519SOL     OW50453  13.259   0.106  11.768
49519SOL    HW150454  13.317   0.036  11.741
49519SOL    HW250455  13.305   0.150  11.839
49520SOL     OW50456   0.999   0.327   0.925
49520SOL    HW150457   0.989   0.417   0.896
49520SOL    HW250458   1.093   0.314   0.933
49521SOL     OW50459  11.160   6.284   2.518
49521SOL    HW150460  11.228   6.271   2.453
49521SOL    HW250461  11.190   6.235   2.594
49522SOL     OW50462   2.757   7.045   8.370
49522SOL    HW150463   2.720   7.068   8.285
49522SOL    HW250464   2.751   6.950   8.375
49523SOL     OW50465  10.019   5.837   3.901
49523SOL    HW150466   9.962   5.913   3.885
49523SOL    HW250467  10.059   5.855   3.986
49524SOL     OW50468   5.579   1.433   0.567
49524SOL    HW150469   5.599   1.345   0.535
49524SOL    HW250470   5.508   1.421   0.630
49525SOL     OW50471   1.622  10.721   4.753
49525SOL    HW150472   1.662  10.806   4.767
49525SOL    HW250473   1.546  10.739   4.698
49526SOL     OW50474   6.922  11.565   7.095
49526SOL    HW150475   6.990  11.618   7.137
49526SOL    HW250476   6.893  11.617   7.021
49527SOL     OW50477   8.409   9.847   3.160
49527SOL    HW150478   8.392   9.941   3.150
49527SOL    HW250479   8.373   9.825   3.246
49528SOL     OW50480  11.397   9.322   3.053
49528SOL    HW150481  11.354   9.372   3.123
49528SOL    HW250482  11.341   9.335   2.977
49529SOL     OW50483  12.131   3.326   7.957
49529SOL    HW150484  12.154   3.263   7.888
49529SOL    HW250485  12.036   3.318   7.967
49530SOL     OW50486   6.663   0.592   0.231
49530SOL    HW150487   6.717   0.544   0.168
49530SOL    HW250488   6.641   0.674   0.186
49531SOL     OW50489   6.809  12.892   2.454
49531SOL    HW150490   6.777  12.809   2.420
49531SOL    HW250491   6.904  12.886   2.447
49532SOL     OW50492   5.450   7.929   1.662
49532SOL    HW150493   5.456   7.886   1.748
49532SOL    HW250494   5.536   7.916   1.623
49533SOL     OW50495  13.945  14.077   9.297
49533SOL    HW150496  13.893  14.036   9.228
49533SOL    HW250497  14.001  14.008   9.331
49534SOL     OW50498  10.585  13.176  14.642
49534SOL    HW150499  10.633  13.244  14.594
49534SOL    HW250500  10.653  13.118  14.676
49535SOL     OW50501  12.675  13.820   3.611
49535SOL    HW150502  12.634  13.871   3.541
49535SOL    HW250503  12.722  13.751   3.565
49536SOL     OW50504   2.164   0.997  11.395
49536SOL    HW150505   2.111   0.920  11.378
49536SOL    HW250506   2.221   0.972  11.468
49537SOL     OW50507   2.989   6.701   0.768
49537SOL    HW150508   2.975   6.732   0.858
49537SOL    HW250509   2.902   6.702   0.729
49538SOL     OW50510  12.607   4.325   6.035
49538SOL    HW150511  12.665   4.390   6.073
49538SOL    HW250512  12.651   4.296   5.955
49539SOL     OW50513   4.297   8.940  12.649
49539SOL    HW150514   4.310   8.845  12.655
49539SOL    HW250515   4.229   8.951  12.584
49540SOL     OW50516   3.173   4.556   6.446
49540SOL    HW150517   3.168   4.461   6.459
49540SOL    HW250518   3.248   4.568   6.388
49541SOL     OW50519   3.301   9.944  14.473
49541SOL    HW150520   3.393   9.924  14.456
49541SOL    HW250521   3.293   9.939  14.569
49542SOL     OW50522   7.957  10.978   4.155
49542SOL    HW150523   7.959  11.049   4.090
49542SOL    HW250524   8.007  11.012   4.229
49543SOL     OW50525   4.214   1.685  10.229
49543SOL    HW150526   4.203   1.779  10.246
49543SOL    HW250527   4.216   1.646  10.316
49544SOL     OW50528   7.208   3.732   5.569
49544SOL    HW150529   7.121   3.709   5.601
49544SOL    HW250530   7.205   3.827   5.557
49545SOL     OW50531  12.377  11.742  14.749
49545SOL    HW150532  12.310  11.685  14.711
49545SOL    HW250533  12.393  11.705  14.836
49546SOL     OW50534   0.701   6.031   6.501
49546SOL    HW150535   0.749   5.952   6.528
49546SOL    HW250536   0.609   6.008   6.515
49547SOL     OW50537   0.356  12.524   8.537
49547SOL    HW150538   0.287  12.485   8.483
49547SOL    HW250539   0.391  12.450   8.587
49548SOL     OW50540   3.723  11.457   6.655
49548SOL    HW150541   3.719  11.466   6.750
49548SOL    HW250542   3.694  11.542   6.622
49549SOL     OW50543   2.536  11.009   1.435
49549SOL    HW150544   2.595  11.072   1.394
49549SOL    HW250545   2.594  10.947   1.480
49550SOL     OW50546  12.808   4.195  13.241
49550SOL    HW150547  12.818   4.106  13.208
49550SOL    HW250548  12.716   4.201  13.265
49551SOL     OW50549   2.136   4.483   4.185
49551SOL    HW150550   2.178   4.524   4.260
49551SOL    HW250551   2.074   4.548   4.152
49552SOL     OW50552  14.117   8.546   0.993
49552SOL    HW150553  14.093   8.599   0.917
49552SOL    HW250554  14.208   8.568   1.011
49553SOL     OW50555  14.764   2.358   3.307
49553SOL    HW150556  14.828   2.412   3.261
49553SOL    HW250557  14.749   2.283   3.249
49554SOL     OW50558   8.106   7.879  12.913
49554SOL    HW150559   8.164   7.951  12.889
49554SOL    HW250560   8.163   7.813  12.951
49555SOL     OW50561  10.674  14.047   8.842
49555SOL    HW150562  10.648  14.000   8.762
49555SOL    HW250563  10.723  13.982   8.893
49556SOL     OW50564  10.502  13.493   2.087
49556SOL    HW150565  10.458  13.438   2.022
49556SOL    HW250566  10.589  13.508   2.050
49557SOL     OW50567  11.381  12.360   6.871
49557SOL    HW150568  11.386  12.278   6.920
49557SOL    HW250569  11.348  12.335   6.785
49558SOL     OW50570   1.804   0.352   5.852
49558SOL    HW150571   1.824   0.334   5.944
49558SOL    HW250572   1.840   0.440   5.837
49559SOL     OW50573   3.128   6.122  12.704
49559SOL    HW150574   3.141   6.056  12.636
49559SOL    HW250575   3.079   6.077  12.772
49560SOL     OW50576   0.531   9.554   2.113
49560SOL    HW150577   0.488   9.512   2.039
49560SOL    HW250578   0.484   9.522   2.190
49561SOL     OW50579  14.531   6.242  10.154
49561SOL    HW150580  14.511   6.297  10.230
49561SOL    HW250581  14.590   6.295  10.101
49562SOL     OW50582   5.893   1.983  10.371
49562SOL    HW150583   5.877   1.889  10.370
49562SOL    HW250584   5.924   2.001  10.460
49563SOL     OW50585   5.047   7.291   0.482
49563SOL    HW150586   5.055   7.361   0.547
49563SOL    HW250587   5.113   7.226   0.507
49564SOL     OW50588   8.614  11.559   5.723
49564SOL    HW150589   8.659  11.643   5.737
49564SOL    HW250590   8.602  11.555   5.628
49565SOL     OW50591  10.184   3.461   7.838
49565SOL    HW150592  10.221   3.494   7.920
49565SOL    HW250593  10.159   3.539   7.789
49566SOL     OW50594   6.893   4.169   3.651
49566SOL    HW150595   6.904   4.084   3.608
49566SOL    HW250596   6.865   4.228   3.581
49567SOL     OW50597  13.353   9.098   7.129
49567SOL    HW150598  13.347   9.057   7.215
49567SOL    HW250599  13.334   9.190   7.145
49568SOL     OW50600   5.893   5.766   4.997
49568SOL    HW150601   5.850   5.684   4.974
49568SOL    HW250602   5.978   5.761   4.953
49569SOL     OW50603   7.725   7.593   8.707
49569SOL    HW150604   7.662   7.528   8.677
49569SOL    HW250605   7.775   7.548   8.775
49570SOL     OW50606  12.365   4.550   4.715
49570SOL    HW150607  12.419   4.561   4.793
49570SOL    HW250608  12.349   4.640   4.684
49571SOL     OW50609   0.783  14.493   3.619
49571SOL    HW150610   0.758  14.473   3.709
49571SOL    HW250611   0.718  14.557   3.589
49572SOL     OW50612   2.063   3.387   8.287
49572SOL    HW150613   2.095   3.371   8.198
49572SOL    HW250614   1.978   3.428   8.275
49573SOL     OW50615  10.134   7.768   6.838
49573SOL    HW150616  10.202   7.701   6.847
49573SOL    HW250617  10.074   7.732   6.772
49574SOL     OW50618   9.954   8.894   0.817
49574SOL    HW150619   9.950   8.828   0.887
49574SOL    HW250620  10.039   8.935   0.827
49575SOL     OW50621   6.417  12.977   7.213
49575SOL    HW150622   6.483  12.992   7.281
49575SOL    HW250623   6.460  13.003   7.132
49576SOL     OW50624   0.635   5.525  12.545
49576SOL    HW150625   0.552   5.511  12.591
49576SOL    HW250626   0.636   5.458  12.476
49577SOL     OW50627  10.592   1.364   1.267
49577SOL    HW150628  10.536   1.292   1.296
49577SOL    HW250629  10.663   1.320   1.219
49578SOL     OW50630   1.166   7.426   3.329
49578SOL    HW150631   1.237   7.391   3.276
49578SOL    HW250632   1.105   7.463   3.266
49579SOL     OW50633   2.950   3.919   2.815
49579SOL    HW150634   2.936   3.976   2.891
49579SOL    HW250635   2.915   3.834   2.842
49580SOL     OW50636   0.289  12.994   1.083
49580SOL    HW150637   0.340  12.913   1.080
49580SOL    HW250638   0.354  13.064   1.088
49581SOL     OW50639  11.988   5.576   0.254
49581SOL    HW150640  11.965   5.633   0.180
49581SOL    HW250641  11.953   5.490   0.230
49582SOL     OW50642   3.580   5.577   3.196
49582SOL    HW150643   3.532   5.589   3.278
49582SOL    HW250644   3.579   5.483   3.181
49583SOL     OW50645   6.131   7.028   8.263
49583SOL    HW150646   6.093   6.947   8.228
49583SOL    HW250647   6.194   7.056   8.197
49584SOL     OW50648   3.789  12.973  13.612
49584SOL    HW150649   3.835  13.014  13.538
49584SOL    HW250650   3.717  12.924  13.572
49585SOL     OW50651   7.740  11.927   9.928
49585SOL    HW150652   7.753  11.873   9.849
49585SOL    HW250653   7.819  11.981   9.933
49586SOL     OW50654   8.440   2.906   4.766
49586SOL    HW150655   8.528   2.871   4.775
49586SOL    HW250656   8.392   2.872   4.841
49587SOL     OW50657   4.693   1.904   8.688
49587SOL    HW150658   4.727   1.976   8.635
49587SOL    HW250659   4.657   1.947   8.766
49588SOL     OW50660  11.465   8.547  13.464
49588SOL    HW150661  11.537   8.485  13.453
49588SOL    HW250662  11.388   8.501  13.431
49589SOL     OW50663  11.861   7.881   4.497
49589SOL    HW150664  11.910   7.940   4.554
49589SOL    HW250665  11.914   7.800   4.496
49590SOL     OW50666   0.242   3.491   5.667
49590SOL    HW150667   0.286   3.444   5.596
49590SOL    HW250668   0.306   3.557   5.695
49591SOL     OW50669  13.977   7.115   2.235
49591SOL    HW150670  14.065   7.140   2.261
49591SOL    HW250671  13.922   7.190   2.259
49592SOL     OW50672  10.386   1.975  12.145
49592SOL    HW150673  10.387   2.032  12.068
49592SOL    HW250674  10.333   1.899  12.118
49593SOL     OW50675   1.173   0.566  11.565
49593SOL    HW150676   1.234   0.515  11.618
49593SOL    HW250677   1.226   0.638  11.530
49594SOL     OW50678   1.635   8.239   8.294
49594SOL    HW150679   1.565   8.304   8.289
49594SOL    HW250680   1.715   8.290   8.283
49595SOL     OW50681   2.381  13.950   8.188
49595SOL    HW150682   2.424  14.008   8.251
49595SOL    HW250683   2.346  14.009   8.121
49596SOL     OW50684  13.874   3.776  10.289
49596SOL    HW150685  13.791   3.789  10.243
49596SOL    HW250686  13.863   3.693  10.335
49597SOL     OW50687   5.837   1.014  11.979
49597SOL    HW150688   5.869   0.990  12.066
49597SOL    HW250689   5.851   0.935  11.926
49598SOL     OW50690  12.719   9.159   8.109
49598SOL    HW150691  12.755   9.154   8.020
49598SOL    HW250692  12.631   9.123   8.101
49599SOL     OW50693  10.707   8.905   9.468
49599SOL    HW150694  10.752   8.930   9.388
49599SOL    HW250695  10.681   8.989   9.508
49600SOL     OW50696   1.966  12.894  13.013
49600SOL    HW150697   2.035  12.920  13.074
49600SOL    HW250698   2.005  12.824  12.961
49601SOL     OW50699  11.943   7.983  13.753
49601SOL    HW150700  11.863   7.978  13.700
49601SOL    HW250701  12.006   7.929  13.705
49602SOL     OW50702   7.293  12.423  10.655
49602SOL    HW150703   7.384  12.424  10.626
49602SOL    HW250704   7.257  12.506  10.623
49603SOL     OW50705   6.928   4.403  10.683
49603SOL    HW150706   7.019   4.432  10.688
49603SOL    HW250707   6.889   4.461  10.617
49604SOL     OW50708   4.440   2.502   5.502
49604SOL    HW150709   4.534   2.499   5.485
49604SOL    HW250710   4.431   2.484   5.596
49605SOL     OW50711   0.271   7.910   4.254
49605SOL    HW150712   0.280   7.839   4.318
49605SOL    HW250713   0.228   7.981   4.302
49606SOL     OW50714   2.572  11.682  11.009
49606SOL    HW150715   2.606  11.617  10.948
49606SOL    HW250716   2.591  11.646  11.095
49607SOL     OW50717   7.219   5.661   1.224
49607SOL    HW150718   7.266   5.582   1.200
49607SOL    HW250719   7.137   5.657   1.175
49608SOL     OW50720   3.682   2.595   0.202
49608SOL    HW150721   3.620   2.644   0.257
49608SOL    HW250722   3.736   2.547   0.264
49609SOL     OW50723   6.120   5.517   2.204
49609SOL    HW150724   6.147   5.430   2.176
49609SOL    HW250725   6.110   5.566   2.122
49610SOL     OW50726   0.656   7.571   0.344
49610SOL    HW150727   0.733   7.620   0.373
49610SOL    HW250728   0.618   7.537   0.425
49611SOL     OW50729   7.251   5.407   5.897
49611SOL    HW150730   7.224   5.428   5.986
49611SOL    HW250731   7.327   5.463   5.881
49612SOL     OW50732   9.167   5.822  13.215
49612SOL    HW150733   9.140   5.896  13.270
49612SOL    HW250734   9.151   5.851  13.125
49613SOL     OW50735  10.880   6.322   6.680
49613SOL    HW150736  10.937   6.274   6.620
49613SOL    HW250737  10.802   6.267   6.689
49614SOL     OW50738   4.933  12.585   2.529
49614SOL    HW150739   4.909  12.575   2.437
49614SOL    HW250740   4.912  12.676   2.550
49615SOL     OW50741   5.074   6.427   9.201
49615SOL    HW150742   5.083   6.522   9.206
49615SOL    HW250743   5.151   6.398   9.152
49616SOL     OW50744   9.158  13.466  13.972
49616SOL    HW150745   9.180  13.403  13.903
49616SOL    HW250746   9.220  13.447  14.042
49617SOL     OW50747  11.484   6.231  10.174
49617SOL    HW150748  11.567   6.198  10.210
49617SOL    HW250749  11.463   6.170  10.103
49618SOL     OW50750  12.341   1.705  12.504
49618SOL    HW150751  12.389   1.622  12.506
49618SOL    HW250752  12.402   1.769  12.539
49619SOL     OW50753   0.986   8.571   7.603
49619SOL    HW150754   0.963   8.555   7.695
49619SOL    HW250755   0.910   8.617   7.568
49620SOL     OW50756   1.732   1.712  13.827
49620SOL    HW150757   1.779   1.649  13.882
49620SOL    HW250758   1.674   1.757  13.888
49621SOL     OW50759   6.938   8.653   9.914
49621SOL    HW150760   6.914   8.703   9.992
49621SOL    HW250761   7.019   8.694   9.884
49622SOL     OW50762   9.414  14.045   9.696
49622SOL    HW150763   9.390  14.138   9.704
49622SOL    HW250764   9.355  14.000   9.756
49623SOL     OW50765   4.117  10.422   7.627
49623SOL    HW150766   4.133  10.505   7.672
49623SOL    HW250767   4.194  10.411   7.570
49624SOL     OW50768   7.590   1.365   1.906
49624SOL    HW150769   7.605   1.411   1.824
49624SOL    HW250770   7.665   1.307   1.916
49625SOL     OW50771   7.169   0.873  12.445
49625SOL    HW150772   7.191   0.948  12.390
49625SOL    HW250773   7.225   0.803  12.414
49626SOL     OW50774  12.423   5.814   0.272
49626SOL    HW150775  12.387   5.729   0.247
49626SOL    HW250776  12.515   5.797   0.290
49627SOL     OW50777   7.964  11.171   4.752
49627SOL    HW150778   7.918  11.091   4.729
49627SOL    HW250779   8.046  11.142   4.791
49628SOL     OW50780  11.510  12.085   2.810
49628SOL    HW150781  11.555  12.044   2.736
49628SOL    HW250782  11.422  12.047   2.808
49629SOL     OW50783  14.461   1.308   1.862
49629SOL    HW150784  14.386   1.353   1.822
49629SOL    HW250785  14.486   1.363   1.936
49630SOL     OW50786  11.063   5.711   3.651
49630SOL    HW150787  11.025   5.727   3.564
49630SOL    HW250788  10.999   5.749   3.712
49631SOL     OW50789   7.957  12.831  10.684
49631SOL    HW150790   7.932  12.893  10.753
49631SOL    HW250791   8.016  12.881  10.627
49632SOL     OW50792  11.671   5.807  10.602
49632SOL    HW150793  11.679   5.756  10.521
49632SOL    HW250794  11.620   5.884  10.576
49633SOL     OW50795   7.836   5.910   2.244
49633SOL    HW150796   7.901   5.902   2.175
49633SOL    HW250797   7.844   5.999   2.275
49634SOL     OW50798  12.139  14.343   5.480
49634SOL    HW150799  12.153  14.353   5.574
49634SOL    HW250800  12.181  14.260   5.457
49635SOL     OW50801  10.479  13.667  12.513
49635SOL    HW150802  10.400  13.681  12.461
49635SOL    HW250803  10.453  13.601  12.577
49636SOL     OW50804   5.084   5.938   0.254
49636SOL    HW150805   5.079   5.850   0.292
49636SOL    HW250806   5.005   5.945   0.200
49637SOL     OW50807   2.426  14.440   3.035
49637SOL    HW150808   2.420  14.353   2.995
49637SOL    HW250809   2.367  14.436   3.110
49638SOL     OW50810   7.607  12.006   6.271
49638SOL    HW150811   7.548  12.041   6.337
49638SOL    HW250812   7.660  11.942   6.319
49639SOL     OW50813  13.571  11.588   2.418
49639SOL    HW150814  13.634  11.516   2.405
49639SOL    HW250815  13.486  11.544   2.422
49640SOL     OW50816  12.348   7.383  11.922
49640SOL    HW150817  12.431   7.377  11.875
49640SOL    HW250818  12.282   7.356  11.858
49641SOL     OW50819   2.829   5.898  11.422
49641SOL    HW150820   2.791   5.939  11.343
49641SOL    HW250821   2.899   5.843  11.389
49642SOL     OW50822   3.019  14.085  14.302
49642SOL    HW150823   3.053  14.057  14.387
49642SOL    HW250824   3.009  14.180  14.310
49643SOL     OW50825   2.401  14.190  13.248
49643SOL    HW150826   2.328  14.136  13.218
49643SOL    HW250827   2.415  14.163  13.339
49644SOL     OW50828   7.380   9.699  10.726
49644SOL    HW150829   7.463   9.743  10.744
49644SOL    HW250830   7.405   9.618  10.680
49645SOL     OW50831   6.446  13.217   1.943
49645SOL    HW150832   6.524  13.262   1.910
49645SOL    HW250833   6.373  13.259   1.898
49646SOL     OW50834   9.406   5.339   2.636
49646SOL    HW150835   9.434   5.353   2.546
49646SOL    HW250836   9.318   5.304   2.629
49647SOL     OW50837   4.344   3.751   1.406
49647SOL    HW150838   4.363   3.743   1.499
49647SOL    HW250839   4.425   3.788   1.368
49648SOL     OW50840   6.958  10.672   6.480
49648SOL    HW150841   6.993  10.583   6.490
49648SOL    HW250842   7.028  10.720   6.435
49649SOL     OW50843   7.318  13.968  14.589
49649SOL    HW150844   7.369  13.895  14.624
49649SOL    HW250845   7.322  13.958  14.494
49650SOL     OW50846   1.547  14.106   0.335
49650SOL    HW150847   1.458  14.105   0.301
49650SOL    HW250848   1.557  14.022   0.380
49651SOL     OW50849   1.260   4.337   5.711
49651SOL    HW150850   1.232   4.262   5.763
49651SOL    HW250851   1.356   4.330   5.709
49652SOL     OW50852  14.175   9.354   5.467
49652SOL    HW150853  14.087   9.381   5.491
49652SOL    HW250854  14.187   9.269   5.511
49653SOL     OW50855  11.066   3.391   9.019
49653SOL    HW150856  10.981   3.436   9.012
49653SOL    HW250857  11.126   3.444   8.966
49654SOL     OW50858  10.346   7.485  13.906
49654SOL    HW150859  10.429   7.531  13.894
49654SOL    HW250860  10.371   7.399  13.939
49655SOL     OW50861  14.007   1.039   8.142
49655SOL    HW150862  13.958   0.989   8.207
49655SOL    HW250863  14.017   0.979   8.068
49656SOL     OW50864   6.775   1.909  14.022
49656SOL    HW150865   6.794   1.874  14.109
49656SOL    HW250866   6.774   2.004  14.034
49657SOL     OW50867   2.997   2.494   1.473
49657SOL    HW150868   3.045   2.473   1.554
49657SOL    HW250869   2.914   2.448   1.483
49658SOL     OW50870  12.607  10.130   3.537
49658SOL    HW150871  12.688  10.115   3.587
49658SOL    HW250872  12.606  10.224   3.521
49659SOL     OW50873  13.013  14.067  12.454
49659SOL    HW150874  12.936  14.085  12.401
49659SOL    HW250875  12.979  14.020  12.530
49660SOL     OW50876   0.212  13.138   5.241
49660SOL    HW150877   0.152  13.150   5.168
49660SOL    HW250878   0.155  13.118   5.316
49661SOL     OW50879   8.070   2.638   3.557
49661SOL    HW150880   8.024   2.660   3.638
49661SOL    HW250881   8.136   2.573   3.584
49662SOL     OW50882   0.115  10.603  12.591
49662SOL    HW150883   0.094  10.673  12.529
49662SOL    HW250884   0.073  10.629  12.673
49663SOL     OW50885   9.388  12.948   9.332
49663SOL    HW150886   9.295  12.955   9.316
49663SOL    HW250887   9.411  13.030   9.376
49664SOL     OW50888   4.005  10.056   2.014
49664SOL    HW150889   3.929  10.112   1.996
49664SOL    HW250890   4.020  10.008   1.933
49665SOL     OW50891   6.259   7.972  14.239
49665SOL    HW150892   6.187   8.030  14.215
49665SOL    HW250893   6.307   8.020  14.307
49666SOL     OW50894   9.171   4.888  10.004
49666SOL    HW150895   9.242   4.948  10.027
49666SOL    HW250896   9.215   4.811   9.967
49667SOL     OW50897   8.582  10.946  11.494
49667SOL    HW150898   8.565  10.866  11.445
49667SOL    HW250899   8.644  10.995  11.440
49668SOL     OW50900   4.525  10.839   8.308
49668SOL    HW150901   4.566  10.754   8.329
49668SOL    HW250902   4.524  10.842   8.213
49669SOL     OW50903   9.317  13.554   1.664
49669SOL    HW150904   9.405  13.524   1.687
49669SOL    HW250905   9.268  13.473   1.650
49670SOL     OW50906   8.230   4.383  14.841
49670SOL    HW150907   8.167   4.425   0.020
49670SOL    HW250908   8.205   4.290  14.842
49671SOL     OW50909   3.923  12.658   4.003
49671SOL    HW150910   3.903  12.745   4.037
49671SOL    HW250911   3.844  12.607   4.021
49672SOL     OW50912   1.241  13.678   7.393
49672SOL    HW150913   1.245  13.675   7.488
49672SOL    HW250914   1.320  13.632   7.364
49673SOL     OW50915   3.740   0.805   0.919
49673SOL    HW150916   3.742   0.783   0.826
49673SOL    HW250917   3.821   0.768   0.954
49674SOL     OW50918   1.331   0.959  11.026
49674SOL    HW150919   1.348   0.955  11.120
49674SOL    HW250920   1.244   0.999  11.019
49675SOL     OW50921   6.784   5.116   2.907
49675SOL    HW150922   6.743   5.029   2.906
49675SOL    HW250923   6.772   5.147   2.997
49676SOL     OW50924   4.540   5.667   6.872
49676SOL    HW150925   4.502   5.580   6.856
49676SOL    HW250926   4.635   5.652   6.867
49677SOL     OW50927   3.013   8.071   4.779
49677SOL    HW150928   2.962   7.993   4.758
49677SOL    HW250929   3.004   8.126   4.701
49678SOL     OW50930   3.173   5.392   7.316
49678SOL    HW150931   3.206   5.438   7.238
49678SOL    HW250932   3.215   5.437   7.389
49679SOL     OW50933  13.510   2.060   4.083
49679SOL    HW150934  13.492   2.027   3.995
49679SOL    HW250935  13.465   2.144   4.087
49680SOL     OW50936   6.773  13.118   8.277
49680SOL    HW150937   6.748  13.059   8.205
49680SOL    HW250938   6.689  13.153   8.308
49681SOL     OW50939  13.915   4.165   3.193
49681SOL    HW150940  13.841   4.155   3.254
49681SOL    HW250941  13.905   4.093   3.131
49682SOL     OW50942   6.080  14.180  12.710
49682SOL    HW150943   6.171  14.205  12.693
49682SOL    HW250944   6.085  14.089  12.740
49683SOL     OW50945   1.545  11.886  12.051
49683SOL    HW150946   1.458  11.919  12.029
49683SOL    HW250947   1.543  11.874  12.146
49684SOL     OW50948   1.839  13.979   6.946
49684SOL    HW150949   1.792  13.903   6.981
49684SOL    HW250950   1.840  14.042   7.018
49685SOL     OW50951  10.785   6.729  10.166
49685SOL    HW150952  10.738   6.757  10.244
49685SOL    HW250953  10.852   6.796  10.153
49686SOL     OW50954  11.396   5.068   4.302
49686SOL    HW150955  11.353   5.152   4.284
49686SOL    HW250956  11.328   5.015   4.343
49687SOL     OW50957  10.683   2.660   6.682
49687SOL    HW150958  10.678   2.745   6.725
49687SOL    HW250959  10.634   2.671   6.601
49688SOL     OW50960   5.112  13.059   6.984
49688SOL    HW150961   5.173  13.085   7.053
49688SOL    HW250962   5.039  13.121   6.992
49689SOL     OW50963  14.606   1.735   9.989
49689SOL    HW150964  14.646   1.724   9.903
49689SOL    HW250965  14.656   1.676  10.046
49690SOL     OW50966   7.281   9.899   5.194
49690SOL    HW150967   7.214   9.966   5.177
49690SOL    HW250968   7.340   9.906   5.120
49691SOL     OW50969   9.149  11.114   0.233
49691SOL    HW150970   9.131  11.032   0.280
49691SOL    HW250971   9.071  11.129   0.180
49692SOL     OW50972   7.624   7.771   9.265
49692SOL    HW150973   7.661   7.833   9.202
49692SOL    HW250974   7.556   7.820   9.310
49693SOL     OW50975  14.037  14.422   9.593
49693SOL    HW150976  14.066  14.468   9.671
49693SOL    HW250977  14.085  14.464   9.521
49694SOL     OW50978  13.290   0.438   5.536
49694SOL    HW150979  13.323   0.477   5.617
49694SOL    HW250980  13.318   0.347   5.540
49695SOL     OW50981   6.624   4.778  11.229
49695SOL    HW150982   6.664   4.807  11.311
49695SOL    HW250983   6.593   4.689  11.248
49696SOL     OW50984   6.604   2.193   3.434
49696SOL    HW150985   6.678   2.199   3.495
49696SOL    HW250986   6.615   2.267   3.375
49697SOL     OW50987   3.137  14.369  11.822
49697SOL    HW150988   3.112  14.291  11.772
49697SOL    HW250989   3.232  14.373  11.814
49698SOL     OW50990   2.010   5.552  12.961
49698SOL    HW150991   1.997   5.459  12.975
49698SOL    HW250992   2.092   5.572  13.007
49699SOL     OW50993   3.966   7.250  13.575
49699SOL    HW150994   4.019   7.329  13.568
49699SOL    HW250995   3.985   7.214  13.661
49700SOL     OW50996   7.052   5.994  14.033
49700SOL    HW150997   7.042   5.962  14.123
49700SOL    HW250998   6.976   5.959  13.987
49701SOL     OW50999  14.701   5.739   5.567
49701SOL    HW151000  14.755   5.781   5.500
49701SOL    HW251001  14.686   5.807   5.632
49702SOL     OW51002   1.851   3.792  13.573
49702SOL    HW151003   1.917   3.796  13.503
49702SOL    HW251004   1.834   3.883  13.595
49703SOL     OW51005   4.732  13.806   8.337
49703SOL    HW151006   4.772  13.893   8.335
49703SOL    HW251007   4.719  13.783   8.245
49704SOL     OW51008   4.126   6.304   3.311
49704SOL    HW151009   4.129   6.308   3.406
49704SOL    HW251010   4.149   6.214   3.289
49705SOL     OW51011  10.752   6.326   2.243
49705SOL    HW151012  10.727   6.405   2.292
49705SOL    HW251013  10.709   6.336   2.158
49706SOL     OW51014  11.925  14.460   0.580
49706SOL    HW151015  12.020  14.451   0.588
49706SOL    HW251016  11.892  14.433   0.666
49707SOL     OW51017   9.988   5.419  10.575
49707SOL    HW151018   9.899   5.389  10.554
49707SOL    HW251019  10.042   5.341  10.564
49708SOL     OW51020   2.081   3.450   7.358
49708SOL    HW151021   2.149   3.511   7.384
49708SOL    HW251022   2.102   3.369   7.403
49709SOL     OW51023   6.739   9.920   8.227
49709SOL    HW151024   6.743   9.828   8.201
49709SOL    HW251025   6.658   9.928   8.276
49710SOL     OW51026   0.093  14.848   2.493
49710SOL    HW151027   0.034   0.044   2.494
49710SOL    HW251028   0.126  14.845   2.404
49711SOL     OW51029  10.215   8.612   3.910
49711SOL    HW151030  10.215   8.562   3.992
49711SOL    HW251031  10.291   8.579   3.862
49712SOL     OW51032   4.047  11.430  10.578
49712SOL    HW151033   3.972  11.389  10.621
49712SOL    HW251034   4.070  11.504  10.635
49713SOL     OW51035   9.076   4.665   3.915
49713SOL    HW151036   9.044   4.742   3.867
49713SOL    HW251037   9.161   4.693   3.950
49714SOL     OW51038   0.330   1.240   6.012
49714SOL    HW151039   0.333   1.165   5.953
49714SOL    HW251040   0.262   1.297   5.975
49715SOL     OW51041   0.783   0.680   7.327
49715SOL    HW151042   0.810   0.744   7.391
49715SOL    HW251043   0.862   0.628   7.309
49716SOL     OW51044   0.257   7.411   2.555
49716SOL    HW151045   0.310   7.349   2.605
49716SOL    HW251046   0.202   7.454   2.621
49717SOL     OW51047   9.246  11.983   7.414
49717SOL    HW151048   9.177  11.990   7.481
49717SOL    HW251049   9.228  11.899   7.371
49718SOL     OW51050   7.006   3.385   9.959
49718SOL    HW151051   7.035   3.301   9.994
49718SOL    HW251052   6.988   3.369   9.867
49719SOL     OW51053   0.594   7.559  14.654
49719SOL    HW151054   0.635   7.643  14.675
49719SOL    HW251055   0.502   7.581  14.639
49720SOL     OW51056  14.017   3.871   8.229
49720SOL    HW151057  14.109   3.869   8.256
49720SOL    HW251058  13.977   3.797   8.274
49721SOL     OW51059   9.376   5.711   0.273
49721SOL    HW151060   9.358   5.805   0.282
49721SOL    HW251061   9.372   5.677   0.362
49722SOL     OW51062   8.339   3.734  14.675
49722SOL    HW151063   8.400   3.722  14.748
49722SOL    HW251064   8.391   3.719  14.596
49723SOL     OW51065   7.124   4.800   1.524
49723SOL    HW151066   7.112   4.705   1.513
49723SOL    HW251067   7.154   4.830   1.438
49724SOL     OW51068   2.865  11.224   8.247
49724SOL    HW151069   2.911  11.213   8.164
49724SOL    HW251070   2.805  11.150   8.252
49725SOL     OW51071   9.463   7.554   1.667
49725SOL    HW151072   9.541   7.605   1.685
49725SOL    HW251073   9.412   7.608   1.606
49726SOL     OW51074   3.726   5.844   9.301
49726SOL    HW151075   3.821   5.857   9.296
49726SOL    HW251076   3.706   5.852   9.394
49727SOL     OW51077  13.079   2.056   9.301
49727SOL    HW151078  13.136   2.034   9.375
49727SOL    HW251079  13.019   2.123   9.336
49728SOL     OW51080   8.877  10.069  13.518
49728SOL    HW151081   8.848  10.082  13.428
49728SOL    HW251082   8.807  10.019  13.559
49729SOL     OW51083   9.563   6.699   9.697
49729SOL    HW151084   9.498   6.767   9.713
49729SOL    HW251085   9.549   6.635   9.767
49730SOL     OW51086   7.205  10.481  11.596
49730SOL    HW151087   7.218  10.575  11.589
49730SOL    HW251088   7.113  10.468  11.572
49731SOL     OW51089   8.575   3.696  14.161
49731SOL    HW151090   8.587   3.615  14.113
49731SOL    HW251091   8.547   3.760  14.095
49732SOL     OW51092  14.130  12.332   5.164
49732SOL    HW151093  14.145  12.421   5.133
49732SOL    HW251094  14.215  12.305   5.200
49733SOL     OW51095   6.759   9.154  11.264
49733SOL    HW151096   6.785   9.124  11.351
49733SOL    HW251097   6.836   9.141  11.209
49734SOL     OW51098   5.084   0.484  10.818
49734SOL    HW151099   5.015   0.470  10.883
49734SOL    HW251100   5.039   0.522  10.743
49735SOL     OW51101   0.417  12.825   9.192
49735SOL    HW151102   0.327  12.817   9.162
49735SOL    HW251103   0.415  12.789   9.281
49736SOL     OW51104   9.517   1.720  12.108
49736SOL    HW151105   9.550   1.750  12.192
49736SOL    HW251106   9.479   1.634  12.127
49737SOL     OW51107   4.457  12.465   9.192
49737SOL    HW151108   4.386  12.514   9.234
49737SOL    HW251109   4.537  12.508   9.221
49738SOL     OW51110   6.655   5.175   3.134
49738SOL    HW151111   6.627   5.220   3.214
49738SOL    HW251112   6.573   5.158   3.087
49739SOL     OW51113   5.613   0.885   9.174
49739SOL    HW151114   5.619   0.814   9.238
49739SOL    HW251115   5.704   0.905   9.152
49740SOL     OW51116   5.301   1.756   2.042
49740SOL    HW151117   5.281   1.791   2.129
49740SOL    HW251118   5.276   1.664   2.046
49741SOL     OW51119   1.903   6.112   1.712
49741SOL    HW151120   1.954   6.078   1.638
49741SOL    HW251121   1.957   6.182   1.748
49742SOL     OW51122  14.403   4.298   2.362
49742SOL    HW151123  14.381   4.229   2.425
49742SOL    HW251124  14.347   4.371   2.385
49743SOL     OW51125  10.593  11.783   6.419
49743SOL    HW151126  10.535  11.780   6.343
49743SOL    HW251127  10.680  11.766   6.383
49744SOL     OW51128   8.429  11.793  10.522
49744SOL    HW151129   8.335  11.794  10.507
49744SOL    HW251130   8.448  11.706  10.556
49745SOL     OW51131   5.436   6.033  13.932
49745SOL    HW151132   5.385   6.107  13.964
49745SOL    HW251133   5.468   6.061  13.846
49746SOL     OW51134   6.503  14.382   4.740
49746SOL    HW151135   6.467  14.451   4.795
49746SOL    HW251136   6.515  14.307   4.799
49747SOL     OW51137  11.343   1.738  10.506
49747SOL    HW151138  11.397   1.672  10.550
49747SOL    HW251139  11.296   1.690  10.438
49748SOL     OW51140   6.027   1.944   3.716
49748SOL    HW151141   6.090   1.914   3.649
49748SOL    HW251142   6.023   2.039   3.704
49749SOL     OW51143   9.966  10.397  13.569
49749SOL    HW151144  10.038  10.356  13.617
49749SOL    HW251145   9.914  10.442  13.636
49750SOL     OW51146   8.188  13.939   3.816
49750SOL    HW151147   8.196  14.026   3.776
49750SOL    HW251148   8.171  13.957   3.909
49751SOL     OW51149   8.238  13.863   8.196
49751SOL    HW151150   8.327  13.859   8.161
49751SOL    HW251151   8.202  13.944   8.161
49752SOL     OW51152  13.918   8.784   5.616
49752SOL    HW151153  13.939   8.694   5.593
49752SOL    HW251154  14.001   8.831   5.606
49753SOL     OW51155   3.497   9.699   3.750
49753SOL    HW151156   3.578   9.648   3.741
49753SOL    HW251157   3.449   9.681   3.670
49754SOL     OW51158   8.360  10.398  14.411
49754SOL    HW151159   8.449  10.423  14.386
49754SOL    HW251160   8.312  10.394  14.328
49755SOL     OW51161   7.441   5.111   1.666
49755SOL    HW151162   7.395   5.038   1.707
49755SOL    HW251163   7.371   5.164   1.627
49756SOL     OW51164   4.805  10.834   4.254
49756SOL    HW151165   4.894  10.866   4.274
49756SOL    HW251166   4.747  10.897   4.296
49757SOL     OW51167   9.777  13.020   3.119
49757SOL    HW151168   9.753  13.077   3.046
49757SOL    HW251169   9.866  12.991   3.100
49758SOL     OW51170  11.422   7.518   9.182
49758SOL    HW151171  11.408   7.523   9.277
49758SOL    HW251172  11.451   7.606   9.157
49759SOL     OW51173   0.395  10.059   5.841
49759SOL    HW151174   0.330  10.079   5.775
49759SOL    HW251175   0.375   9.969   5.869
49760SOL     OW51176   8.244   0.290   7.625
49760SOL    HW151177   8.252   0.377   7.586
49760SOL    HW251178   8.174   0.248   7.574
49761SOL     OW51179  12.156  12.607   5.807
49761SOL    HW151180  12.199  12.543   5.864
49761SOL    HW251181  12.179  12.692   5.846
49762SOL     OW51182   3.222   4.253   0.739
49762SOL    HW151183   3.232   4.261   0.834
49762SOL    HW251184   3.271   4.175   0.716
49763SOL     OW51185  14.830   6.525   1.482
49763SOL    HW151186   0.011   6.462   1.522
49763SOL    HW251187  14.776   6.473   1.423
49764SOL     OW51188   1.639  12.453   7.324
49764SOL    HW151189   1.697  12.524   7.298
49764SOL    HW251190   1.672  12.376   7.277
49765SOL     OW51191  14.019   9.720   8.110
49765SOL    HW151192  13.924   9.718   8.123
49765SOL    HW251193  14.044   9.811   8.129
49766SOL     OW51194   8.861   8.429   5.342
49766SOL    HW151195   8.866   8.414   5.248
49766SOL    HW251196   8.779   8.388   5.368
49767SOL     OW51197   9.961   8.458   3.539
49767SOL    HW151198   9.873   8.430   3.515
49767SOL    HW251199   9.966   8.442   3.633
49768SOL     OW51200   6.683  12.558   2.103
49768SOL    HW151201   6.695  12.463   2.108
49768SOL    HW251202   6.737  12.593   2.173
49769SOL     OW51203   4.527  13.925  11.245
49769SOL    HW151204   4.529  13.861  11.316
49769SOL    HW251205   4.441  13.967  11.252
49770SOL     OW51206   2.889   6.659   9.969
49770SOL    HW151207   2.964   6.646  10.027
49770SOL    HW251208   2.912   6.735   9.917
49771SOL     OW51209   9.569  12.209   3.140
49771SOL    HW151210   9.613  12.284   3.097
49771SOL    HW251211   9.554  12.239   3.230
49772SOL     OW51212   2.099   8.257  13.828
49772SOL    HW151213   2.191   8.251  13.855
49772SOL    HW251214   2.102   8.298  13.742
49773SOL     OW51215   0.457   5.999  12.601
49773SOL    HW151216   0.389   6.060  12.573
49773SOL    HW251217   0.409   5.924  12.637
49774SOL     OW51218   5.327  10.354   6.858
49774SOL    HW151219   5.406  10.404   6.837
49774SOL    HW251220   5.280  10.410   6.920
49775SOL     OW51221  11.491  11.603   6.436
49775SOL    HW151222  11.563  11.583   6.377
49775SOL    HW251223  11.530  11.602   6.524
49776SOL     OW51224  14.848  12.601   5.318
49776SOL    HW151225  14.876  12.528   5.263
49776SOL    HW251226   0.032  12.604   5.389
49777SOL     OW51227   8.396   8.058   5.462
49777SOL    HW151228   8.338   7.982   5.461
49777SOL    HW251229   8.438   8.055   5.548
49778SOL     OW51230  14.354   1.020   7.898
49778SOL    HW151231  14.339   1.050   7.808
49778SOL    HW251232  14.294   0.946   7.908
49779SOL     OW51233   0.087  13.663   2.711
49779SOL    HW151234   0.077  13.575   2.747
49779SOL    HW251235   0.001  13.703   2.720
49780SOL     OW51236   9.324  13.428  10.035
49780SOL    HW151237   9.248  13.483  10.016
49780SOL    HW251238   9.338  13.439  10.129
49781SOL     OW51239  14.224   0.298  14.567
49781SOL    HW151240  14.191   0.385  14.545
49781SOL    HW251241  14.166   0.238  14.519
49782SOL     OW51242   6.091  11.136   8.808
49782SOL    HW151243   6.149  11.205   8.777
49782SOL    HW251244   6.141  11.090   8.875
49783SOL     OW51245   8.584   6.177   8.802
49783SOL    HW151246   8.537   6.162   8.885
49783SOL    HW251247   8.526   6.234   8.752
49784SOL     OW51248  11.225  12.323   2.730
49784SOL    HW151249  11.308  12.368   2.741
49784SOL    HW251250  11.208  12.283   2.815
49785SOL     OW51251   4.510  11.876   1.905
49785SOL    HW151252   4.418  11.898   1.893
49785SOL    HW251253   4.530  11.905   1.994
49786SOL     OW51254  11.223   0.935   5.052
49786SOL    HW151255  11.300   0.990   5.050
49786SOL    HW251256  11.255   0.847   5.031
49787SOL     OW51257   5.891   3.727  14.139
49787SOL    HW151258   5.968   3.783  14.149
49787SOL    HW251259   5.922   3.653  14.086
49788SOL     OW51260  12.779  12.959   7.365
49788SOL    HW151261  12.856  12.923   7.320
49788SOL    HW251262  12.743  13.023   7.304
49789SOL     OW51263   1.027  12.230   9.847
49789SOL    HW151264   0.996  12.270   9.766
49789SOL    HW251265   1.053  12.141   9.821
49790SOL     OW51266  14.601  11.563  14.055
49790SOL    HW151267  14.537  11.630  14.078
49790SOL    HW251268  14.660  11.607  13.993
49791SOL     OW51269   1.835   8.155  12.208
49791SOL    HW151270   1.875   8.236  12.178
49791SOL    HW251271   1.744   8.178  12.228
49792SOL     OW51272  12.895  14.209  13.854
49792SOL    HW151273  12.815  14.176  13.814
49792SOL    HW251274  12.966  14.163  13.809
49793SOL     OW51275  13.885  11.317  12.918
49793SOL    HW151276  13.936  11.269  12.982
49793SOL    HW251277  13.807  11.263  12.904
49794SOL     OW51278  10.037   3.719  10.369
49794SOL    HW151279  10.114   3.766  10.401
49794SOL    HW251280  10.030   3.745  10.277
49795SOL     OW51281   9.793  14.728  11.089
49795SOL    HW151282   9.886  14.750  11.096
49795SOL    HW251283   9.774  14.680  11.170
49796SOL     OW51284   3.807   6.270  10.137
49796SOL    HW151285   3.824   6.190  10.188
49796SOL    HW251286   3.738   6.245  10.077
49797SOL     OW51287   2.584  10.450   7.176
49797SOL    HW151288   2.550  10.460   7.087
49797SOL    HW251289   2.665  10.501   7.176
49798SOL     OW51290  12.518   1.336   9.916
49798SOL    HW151291  12.573   1.300   9.846
49798SOL    HW251292  12.478   1.414   9.877
49799SOL     OW51293  11.432   8.150   0.879
49799SOL    HW151294  11.456   8.234   0.918
49799SOL    HW251295  11.445   8.163   0.785
49800SOL     OW51296  13.113  14.405   9.494
49800SOL    HW151297  13.047  14.378   9.558
49800SOL    HW251298  13.176  14.333   9.493
49801SOL     OW51299   1.386   2.614   3.439
49801SOL    HW151300   1.404   2.662   3.359
49801SOL    HW251301   1.467   2.621   3.490
49802SOL     OW51302   3.939  11.782   7.429
49802SOL    HW151303   3.855  11.827   7.423
49802SOL    HW251304   3.917  11.696   7.466
49803SOL     OW51305   5.691   3.717   9.962
49803SOL    HW151306   5.710   3.729   9.869
49803SOL    HW251307   5.606   3.672   9.964
49804SOL     OW51308   6.724   2.682  13.726
49804SOL    HW151309   6.782   2.748  13.688
49804SOL    HW251310   6.669   2.730  13.788
49805SOL     OW51311   3.856   1.045  14.723
49805SOL    HW151312   3.795   0.972  14.712
49805SOL    HW251313   3.937   1.005  14.752
49806SOL     OW51314   5.953  10.571   0.623
49806SOL    HW151315   5.992  10.613   0.546
49806SOL    HW251316   5.928  10.644   0.679
49807SOL     OW51317   8.219  12.721   6.951
49807SOL    HW151318   8.245  12.801   6.996
49807SOL    HW251319   8.262  12.651   7.000
49808SOL     OW51320   3.020   3.201  10.624
49808SOL    HW151321   3.059   3.159  10.548
49808SOL    HW251322   3.091   3.207  10.688
49809SOL     OW51323  12.716   6.890   6.151
49809SOL    HW151324  12.726   6.869   6.244
49809SOL    HW251325  12.770   6.824   6.107
49810SOL     OW51326   9.514  14.829  11.334
49810SOL    HW151327   9.493  14.868  11.249
49810SOL    HW251328   9.502  14.735  11.320
49811SOL     OW51329   4.051   3.488  13.454
49811SOL    HW151330   4.080   3.510  13.365
49811SOL    HW251331   3.960   3.460  13.443
49812SOL     OW51332   8.259   0.543   6.645
49812SOL    HW151333   8.315   0.596   6.703
49812SOL    HW251334   8.317   0.473   6.614
49813SOL     OW51335  12.429  14.851   0.239
49813SOL    HW151336  12.477  14.770   0.220
49813SOL    HW251337  12.457  14.874   0.328
49814SOL     OW51338   3.729  10.306   0.690
49814SOL    HW151339   3.782  10.249   0.746
49814SOL    HW251340   3.641  10.303   0.728
49815SOL     OW51341  13.419   9.238  11.369
49815SOL    HW151342  13.472   9.313  11.342
49815SOL    HW251343  13.483   9.171  11.393
49816SOL     OW51344   0.695   9.776   3.148
49816SOL    HW151345   0.761   9.732   3.095
49816SOL    HW251346   0.624   9.795   3.086
49817SOL     OW51347   6.998   3.367  10.652
49817SOL    HW151348   6.906   3.354  10.629
49817SOL    HW251349   7.004   3.461  10.671
49818SOL     OW51350   2.304   3.244   6.441
49818SOL    HW151351   2.342   3.289   6.366
49818SOL    HW251352   2.254   3.312   6.487
49819SOL     OW51353  11.105  13.496  13.166
49819SOL    HW151354  11.116  13.545  13.247
49819SOL    HW251355  11.155  13.416  13.179
49820SOL     OW51356  10.157   6.863   6.412
49820SOL    HW151357  10.247   6.884   6.388
49820SOL    HW251358  10.157   6.861   6.507
49821SOL     OW51359   8.690   0.986  11.295
49821SOL    HW151360   8.604   1.026  11.307
49821SOL    HW251361   8.692   0.962  11.202
49822SOL     OW51362  14.641   9.786   3.160
49822SOL    HW151363  14.687   9.761   3.240
49822SOL    HW251364  14.657   9.880   3.152
49823SOL     OW51365  12.446   0.556  13.974
49823SOL    HW151366  12.414   0.528  13.888
49823SOL    HW251367  12.539   0.533  13.973
49824SOL     OW51368   4.042   9.018  14.711
49824SOL    HW151369   4.125   9.022  14.759
49824SOL    HW251370   4.042   8.931  14.671
49825SOL     OW51371  13.808  14.224  13.522
49825SOL    HW151372  13.880  14.161  13.525
49825SOL    HW251373  13.829  14.289  13.588
49826SOL     OW51374   8.096   1.325   6.536
49826SOL    HW151375   8.083   1.401   6.592
49826SOL    HW251376   8.026   1.264   6.561
49827SOL     OW51377  12.659   5.702   2.354
49827SOL    HW151378  12.566   5.700   2.331
49827SOL    HW251379  12.661   5.680   2.448
49828SOL     OW51380   8.805   0.932   5.889
49828SOL    HW151381   8.780   0.917   5.798
49828SOL    HW251382   8.896   0.960   5.886
49829SOL     OW51383   5.239   9.352   5.292
49829SOL    HW151384   5.271   9.442   5.294
49829SOL    HW251385   5.170   9.353   5.226
49830SOL     OW51386  14.381   7.871  13.037
49830SOL    HW151387  14.399   7.954  12.993
49830SOL    HW251388  14.358   7.895  13.126
49831SOL     OW51389   5.562   5.766  11.438
49831SOL    HW151390   5.521   5.809  11.513
49831SOL    HW251391   5.568   5.835  11.372
49832SOL     OW51392  13.188   8.174   3.338
49832SOL    HW151393  13.138   8.106   3.383
49832SOL    HW251394  13.179   8.252   3.392
49833SOL     OW51395  14.790   3.522  13.092
49833SOL    HW151396  14.822   3.450  13.036
49833SOL    HW251397  14.863   3.539  13.152
49834SOL     OW51398   0.397   9.021   3.655
49834SOL    HW151399   0.400   8.936   3.700
49834SOL    HW251400   0.465   9.014   3.588
49835SOL     OW51401   1.909  12.073   3.999
49835SOL    HW151402   1.878  12.163   4.007
49835SOL    HW251403   1.854  12.023   4.060
49836SOL     OW51404   5.422  11.567  12.629
49836SOL    HW151405   5.332  11.536  12.633
49836SOL    HW251406   5.475  11.490  12.648
49837SOL     OW51407   5.315   5.806  12.442
49837SOL    HW151408   5.223   5.830  12.433
49837SOL    HW251409   5.342   5.845  12.525
49838SOL     OW51410   7.476   2.340   8.609
49838SOL    HW151411   7.413   2.347   8.537
49838SOL    HW251412   7.426   2.367   8.686
49839SOL     OW51413   7.218   6.065   0.971
49839SOL    HW151414   7.225   6.024   0.885
49839SOL    HW251415   7.137   6.116   0.968
49840SOL     OW51416   1.718   1.615  11.308
49840SOL    HW151417   1.662   1.553  11.261
49840SOL    HW251418   1.780   1.561  11.356
49841SOL     OW51419   1.608  13.874   3.362
49841SOL    HW151420   1.572  13.888   3.450
49841SOL    HW251421   1.689  13.824   3.378
49842SOL     OW51422   9.293  11.722  13.299
49842SOL    HW151423   9.372  11.774  13.316
49842SOL    HW251424   9.316  11.634  13.327
49843SOL     OW51425  14.343   1.737   1.814
49843SOL    HW151426  14.250   1.739   1.793
49843SOL    HW251427  14.380   1.671   1.755
49844SOL     OW51428   3.147  10.968   5.258
49844SOL    HW151429   3.110  11.021   5.328
49844SOL    HW251430   3.145  10.878   5.291
49845SOL     OW51431   4.298  11.884  13.874
49845SOL    HW151432   4.387  11.904  13.904
49845SOL    HW251433   4.242  11.945  13.922
49846SOL     OW51434  14.002   6.167   9.280
49846SOL    HW151435  13.985   6.258   9.306
49846SOL    HW251436  14.058   6.133   9.350
49847SOL     OW51437   2.014   3.666   9.853
49847SOL    HW151438   1.981   3.744   9.898
49847SOL    HW251439   2.086   3.635   9.907
49848SOL     OW51440   1.886   2.913   9.530
49848SOL    HW151441   1.815   2.956   9.482
49848SOL    HW251442   1.844   2.839   9.574
49849SOL     OW51443   3.488  10.508  14.382
49849SOL    HW151444   3.460  10.528  14.472
49849SOL    HW251445   3.583  10.522  14.383
49850SOL     OW51446   6.595   0.727   4.725
49850SOL    HW151447   6.588   0.770   4.639
49850SOL    HW251448   6.689   0.711   4.736
49851SOL     OW51449   0.767  10.169  14.569
49851SOL    HW151450   0.740  10.086  14.607
49851SOL    HW251451   0.704  10.233  14.602
49852SOL     OW51452   7.091   2.180  12.894
49852SOL    HW151453   7.016   2.223  12.853
49852SOL    HW251454   7.116   2.111  12.832
49853SOL     OW51455   5.952   5.757   4.030
49853SOL    HW151456   6.030   5.779   3.979
49853SOL    HW251457   5.986   5.719   4.111
49854SOL     OW51458   5.436  10.872  12.116
49854SOL    HW151459   5.509  10.933  12.128
49854SOL    HW251460   5.444  10.842  12.026
49855SOL     OW51461   0.151  12.200   6.655
49855SOL    HW151462   0.116  12.208   6.743
49855SOL    HW251463   0.130  12.284   6.613
49856SOL     OW51464   9.793   3.965   3.722
49856SOL    HW151465   9.793   3.872   3.699
49856SOL    HW251466   9.854   4.005   3.660
49857SOL     OW51467  14.059   8.478   8.100
49857SOL    HW151468  13.973   8.456   8.136
49857SOL    HW251469  14.119   8.469   8.173
49858SOL     OW51470   5.012   2.176  11.912
49858SOL    HW151471   4.988   2.105  11.971
49858SOL    HW251472   4.949   2.245  11.929
49859SOL     OW51473   0.011   4.322  14.627
49859SOL    HW151474  14.872   4.231  14.605
49859SOL    HW251475  14.805   4.363  14.634
49860SOL     OW51476  11.985  10.525   3.859
49860SOL    HW151477  12.000  10.433   3.840
49860SOL    HW251478  11.899  10.528   3.900
49861SOL     OW51479   9.621  12.253  14.812
49861SOL    HW151480   9.630  12.170  14.766
49861SOL    HW251481   9.637  12.320  14.744
49862SOL     OW51482  10.299  13.759   8.237
49862SOL    HW151483  10.320  13.835   8.183
49862SOL    HW251484  10.220  13.722   8.198
49863SOL     OW51485   0.033   6.858   3.950
49863SOL    HW151486  14.822   6.831   3.934
49863SOL    HW251487   0.042   6.857   4.045
49864SOL     OW51488   9.125   7.586  13.968
49864SOL    HW151489   9.033   7.564  13.979
49864SOL    HW251490   9.129   7.627  13.881
49865SOL     OW51491  12.319   5.597   6.325
49865SOL    HW151492  12.230   5.570   6.301
49865SOL    HW251493  12.306   5.662   6.394
49866SOL     OW51494  14.564   9.721   8.569
49866SOL    HW151495  14.550   9.792   8.632
49866SOL    HW251496  14.577   9.765   8.486
49867SOL     OW51497  13.838  11.688   5.222
49867SOL    HW151498  13.899  11.668   5.293
49867SOL    HW251499  13.788  11.762   5.254
49868SOL     OW51500   8.433  11.530  14.311
49868SOL    HW151501   8.442  11.617  14.350
49868SOL    HW251502   8.469  11.471  14.377
49869SOL     OW51503   1.184   5.520   6.205
49869SOL    HW151504   1.101   5.480   6.227
49869SOL    HW251505   1.161   5.594   6.148
49870SOL     OW51506   1.786  14.102   0.155
49870SOL    HW151507   1.769  14.098   0.060
49870SOL    HW251508   1.714  14.053   0.194
49871SOL     OW51509   7.848  12.386  13.223
49871SOL    HW151510   7.763  12.421  13.248
49871SOL    HW251511   7.846  12.384  13.127
49872SOL     OW51512   1.732   8.172  14.764
49872SOL    HW151513   1.826   8.175  14.784
49872SOL    HW251514   1.706   8.083  14.784
49873SOL     OW51515   1.024   7.679   9.500
49873SOL    HW151516   1.063   7.766   9.511
49873SOL    HW251517   1.094   7.618   9.523
49874SOL     OW51518  12.839   4.494  12.576
49874SOL    HW151519  12.903   4.544  12.627
49874SOL    HW251520  12.771   4.557  12.554
49875SOL     OW51521  12.555   2.142  11.124
49875SOL    HW151522  12.542   2.102  11.038
49875SOL    HW251523  12.639   2.187  11.117
49876SOL     OW51524   3.759   5.649   2.233
49876SOL    HW151525   3.687   5.598   2.195
49876SOL    HW251526   3.763   5.729   2.181
49877SOL     OW51527  10.842   0.697   6.255
49877SOL    HW151528  10.859   0.756   6.329
49877SOL    HW251529  10.795   0.623   6.293
49878SOL     OW51530   0.952  11.536  11.916
49878SOL    HW151531   0.871  11.586  11.907
49878SOL    HW251532   0.939  11.459  11.861
49879SOL     OW51533   5.928   2.180  12.669
49879SOL    HW151534   5.835   2.194  12.648
49879SOL    HW251535   5.927   2.147  12.759
49880SOL     OW51536   3.781   4.056   4.959
49880SOL    HW151537   3.865   4.012   4.976
49880SOL    HW251538   3.715   4.000   4.999
49881SOL     OW51539   7.184   7.018   4.718
49881SOL    HW151540   7.092   7.027   4.694
49881SOL    HW251541   7.218   7.108   4.718
49882SOL     OW51542  13.867  10.181  13.847
49882SOL    HW151543  13.847  10.114  13.913
49882SOL    HW251544  13.953  10.156  13.813
49883SOL     OW51545   5.782   4.714  11.708
49883SOL    HW151546   5.804   4.695  11.617
49883SOL    HW251547   5.701   4.764  11.704
49884SOL     OW51548   1.992   9.908   1.352
49884SOL    HW151549   1.897   9.920   1.358
49884SOL    HW251550   2.020   9.894   1.442
49885SOL     OW51551   9.677  12.922   0.901
49885SOL    HW151552   9.619  12.856   0.939
49885SOL    HW251553   9.627  12.960   0.829
49886SOL     OW51554   2.456  14.072  10.854
49886SOL    HW151555   2.417  14.149  10.812
49886SOL    HW251556   2.445  14.003  10.789
49887SOL     OW51557   8.716   4.263  10.762
49887SOL    HW151558   8.792   4.321  10.765
49887SOL    HW251559   8.646   4.312  10.806
49888SOL     OW51560  14.719   9.109   6.955
49888SOL    HW151561  14.710   9.110   6.860
49888SOL    HW251562  14.711   9.017   6.979
49889SOL     OW51563   7.208  13.093   7.112
49889SOL    HW151564   7.258  13.105   7.031
49889SOL    HW251565   7.123  13.133   7.094
49890SOL     OW51566  13.638   2.586   7.220
49890SOL    HW151567  13.658   2.525   7.148
49890SOL    HW251568  13.692   2.663   7.201
49891SOL     OW51569   3.769   2.564   3.715
49891SOL    HW151570   3.801   2.641   3.761
49891SOL    HW251571   3.676   2.580   3.701
49892SOL     OW51572   2.290  13.121   5.345
49892SOL    HW151573   2.333  13.204   5.367
49892SOL    HW251574   2.328  13.095   5.262
49893SOL     OW51575   1.382  12.647  14.534
49893SOL    HW151576   1.454  12.687  14.485
49893SOL    HW251577   1.424  12.601  14.606
49894SOL     OW51578  11.284   3.978  10.891
49894SOL    HW151579  11.361   4.011  10.937
49894SOL    HW251580  11.296   3.883  10.889
49895SOL     OW51581   4.755  12.549  14.818
49895SOL    HW151582   4.821  12.533   0.006
49895SOL    HW251583   4.675  12.510  14.853
49896SOL     OW51584  10.359   3.616   6.956
49896SOL    HW151585  10.433   3.670   6.984
49896SOL    HW251586  10.336   3.650   6.869
49897SOL     OW51587   8.848  10.839  11.450
49897SOL    HW151588   8.942  10.851  11.466
49897SOL    HW251589   8.843  10.822  11.356
49898SOL     OW51590   3.243   0.115   0.048
49898SOL    HW151591   3.288   0.114   0.132
49898SOL    HW251592   3.202   0.201   0.044
49899SOL     OW51593   9.609   7.833   1.976
49899SOL    HW151594   9.593   7.771   2.048
49899SOL    HW251595   9.556   7.909   1.998
49900SOL     OW51596   4.067   4.669  10.367
49900SOL    HW151597   4.011   4.632  10.299
49900SOL    HW251598   4.026   4.641  10.449
49901SOL     OW51599   9.062   5.841   3.611
49901SOL    HW151600   9.096   5.901   3.677
49901SOL    HW251601   9.084   5.882   3.528
49902SOL     OW51602   4.254  12.408   0.698
49902SOL    HW151603   4.238  12.400   0.792
49902SOL    HW251604   4.349  12.416   0.690
49903SOL     OW51605  13.131   4.798   5.100
49903SOL    HW151606  13.099   4.793   5.010
49903SOL    HW251607  13.080   4.868   5.140
49904SOL     OW51608   5.036   5.602  11.877
49904SOL    HW151609   5.115   5.559  11.843
49904SOL    HW251610   5.063   5.637  11.962
49905SOL     OW51611  14.241   3.871   5.784
49905SOL    HW151612  14.326   3.909   5.804
49905SOL    HW251613  14.223   3.812   5.857
49906SOL     OW51614   9.626  12.322   4.132
49906SOL    HW151615   9.545  12.357   4.170
49906SOL    HW251616   9.691  12.391   4.147
49907SOL     OW51617  14.327  13.460  12.285
49907SOL    HW151618  14.323  13.468  12.381
49907SOL    HW251619  14.403  13.512  12.260
49908SOL     OW51620  13.146  12.233   3.269
49908SOL    HW151621  13.115  12.177   3.198
49908SOL    HW251622  13.242  12.229   3.262
49909SOL     OW51623   4.275   8.297   2.716
49909SOL    HW151624   4.246   8.313   2.627
49909SOL    HW251625   4.353   8.243   2.707
49910SOL     OW51626   8.812   7.912  10.838
49910SOL    HW151627   8.873   7.976  10.801
49910SOL    HW251628   8.831   7.831  10.791
49911SOL     OW51629  10.876  13.761   9.760
49911SOL    HW151630  10.846  13.719   9.841
49911SOL    HW251631  10.914  13.844   9.789
49912SOL     OW51632   6.006   2.160   0.733
49912SOL    HW151633   6.005   2.242   0.783
49912SOL    HW251634   6.091   2.160   0.689
49913SOL     OW51635  11.114   6.724   0.153
49913SOL    HW151636  11.158   6.684   0.078
49913SOL    HW251637  11.046   6.779   0.114
49914SOL     OW51638   8.291   4.285  13.822
49914SOL    HW151639   8.309   4.255  13.733
49914SOL    HW251640   8.234   4.361  13.811
49915SOL     OW51641  13.109  10.413   4.665
49915SOL    HW151642  13.049  10.341   4.684
49915SOL    HW251643  13.062  10.466   4.600
49916SOL     OW51644   5.252   4.420   4.645
49916SOL    HW151645   5.164   4.400   4.614
49916SOL    HW251646   5.243   4.434   4.739
49917SOL     OW51647  12.554   8.158   9.755
49917SOL    HW151648  12.526   8.156   9.664
49917SOL    HW251649  12.487   8.109   9.803
49918SOL     OW51650  11.746   9.426   6.487
49918SOL    HW151651  11.715   9.493   6.426
49918SOL    HW251652  11.721   9.458   6.573
49919SOL     OW51653   8.345   2.286   8.535
49919SOL    HW151654   8.254   2.260   8.522
49919SOL    HW251655   8.354   2.295   8.630
49920SOL     OW51656   0.794   4.846   0.551
49920SOL    HW151657   0.742   4.803   0.483
49920SOL    HW251658   0.729   4.883   0.611
49921SOL     OW51659  11.094   5.283   5.326
49921SOL    HW151660  11.037   5.337   5.272
49921SOL    HW251661  11.182   5.296   5.289
49922SOL     OW51662   0.170   6.453   2.128
49922SOL    HW151663   0.239   6.520   2.139
49922SOL    HW251664   0.154   6.421   2.217
49923SOL     OW51665   7.743   2.670   7.179
49923SOL    HW151666   7.774   2.677   7.269
49923SOL    HW251667   7.678   2.599   7.182
49924SOL     OW51668   9.143   9.231  11.177
49924SOL    HW151669   9.135   9.285  11.098
49924SOL    HW251670   9.162   9.143  11.144
49925SOL     OW51671   5.262   1.686  12.928
49925SOL    HW151672   5.178   1.681  12.882
49925SOL    HW251673   5.325   1.708  12.859
49926SOL     OW51674   7.082   7.429  11.231
49926SOL    HW151675   7.027   7.387  11.165
49926SOL    HW251676   7.119   7.505  11.186
49927SOL     OW51677  10.705  12.481   4.973
49927SOL    HW151678  10.755  12.440   5.043
49927SOL    HW251679  10.620  12.502   5.012
49928SOL     OW51680   5.833   9.116   9.303
49928SOL    HW151681   5.915   9.070   9.284
49928SOL    HW251682   5.795   9.068   9.377
49929SOL     OW51683   3.756   7.552   2.224
49929SOL    HW151684   3.777   7.645   2.211
49929SOL    HW251685   3.760   7.514   2.136
49930SOL     OW51686   0.181   4.504  11.197
49930SOL    HW151687   0.157   4.529  11.108
49930SOL    HW251688   0.276   4.502  11.197
49931SOL     OW51689   3.814   1.173  13.783
49931SOL    HW151690   3.883   1.215  13.732
49931SOL    HW251691   3.851   1.165  13.871
49932SOL     OW51692   1.881  14.375   5.505
49932SOL    HW151693   1.887  14.371   5.409
49932SOL    HW251694   1.971  14.388   5.534
49933SOL     OW51695   1.930   4.486  11.126
49933SOL    HW151696   1.947   4.538  11.205
49933SOL    HW251697   2.010   4.495  11.074
49934SOL     OW51698   2.048  13.120  13.678
49934SOL    HW151699   1.991  13.139  13.604
49934SOL    HW251700   2.026  13.186  13.743
49935SOL     OW51701  12.320   4.157  11.441
49935SOL    HW151702  12.241   4.126  11.396
49935SOL    HW251703  12.286   4.211  11.512
49936SOL     OW51704   3.605   8.422   8.460
49936SOL    HW151705   3.579   8.511   8.435
49936SOL    HW251706   3.595   8.420   8.555
49937SOL     OW51707  11.400   8.865   8.301
49937SOL    HW151708  11.305   8.867   8.284
49937SOL    HW251709  11.416   8.777   8.335
49938SOL     OW51710  11.186  13.164   6.964
49938SOL    HW151711  11.126  13.215   7.018
49938SOL    HW251712  11.273  13.187   6.996
49939SOL     OW51713   6.008  13.364  12.965
49939SOL    HW151714   6.050  13.329  12.886
49939SOL    HW251715   5.936  13.417  12.933
49940SOL     OW51716  12.970   3.055   1.378
49940SOL    HW151717  13.049   3.108   1.384
49940SOL    HW251718  13.002   2.967   1.355
49941SOL     OW51719  13.496   2.798   7.026
49941SOL    HW151720  13.527   2.712   7.055
49941SOL    HW251721  13.519   2.801   6.933
49942SOL     OW51722   0.298  14.742   0.569
49942SOL    HW151723   0.226  14.798   0.540
49942SOL    HW251724   0.280  14.658   0.529
49943SOL     OW51725   5.624  12.762   6.424
49943SOL    HW151726   5.568  12.688   6.404
49943SOL    HW251727   5.636  12.807   6.339
49944SOL     OW51728   2.573  13.065   6.011
49944SOL    HW151729   2.608  12.978   5.993
49944SOL    HW251730   2.541  13.060   6.101
49945SOL     OW51731   2.712   3.779   9.740
49945SOL    HW151732   2.697   3.749   9.651
49945SOL    HW251733   2.737   3.871   9.731
49946SOL     OW51734  11.918  13.653   7.909
49946SOL    HW151735  11.852  13.682   7.972
49946SOL    HW251736  11.953  13.734   7.872
49947SOL     OW51737  14.609   4.099  11.094
49947SOL    HW151738  14.554   4.033  11.137
49947SOL    HW251739  14.663   4.134  11.165
49948SOL     OW51740  10.833   9.897  13.255
49948SOL    HW151741  10.751   9.851  13.272
49948SOL    HW251742  10.875   9.905  13.341
49949SOL     OW51743   6.863   5.630  13.291
49949SOL    HW151744   6.936   5.636  13.354
49949SOL    HW251745   6.809   5.558  13.325
49950SOL     OW51746   9.308  11.216   5.634
49950SOL    HW151747   9.294  11.144   5.573
49950SOL    HW251748   9.245  11.283   5.608
49951SOL     OW51749   3.618  12.441   7.438
49951SOL    HW151750   3.696  12.486   7.472
49951SOL    HW251751   3.635  12.430   7.345
49952SOL     OW51752  14.241  13.372   1.242
49952SOL    HW151753  14.213  13.334   1.325
49952SOL    HW251754  14.213  13.308   1.176
49953SOL     OW51755   8.538  10.827  14.724
49953SOL    HW151756   8.532  10.811  14.629
49953SOL    HW251757   8.470  10.892  14.741
49954SOL     OW51758  11.865   0.642   8.446
49954SOL    HW151759  11.873   0.626   8.540
49954SOL    HW251760  11.926   0.713   8.428
49955SOL     OW51761   2.541   4.508  12.824
49955SOL    HW151762   2.506   4.423  12.848
49955SOL    HW251763   2.520   4.565  12.898
49956SOL     OW51764  12.338   3.031   3.123
49956SOL    HW151765  12.313   2.944   3.093
49956SOL    HW251766  12.375   3.074   3.046
49957SOL     OW51767   4.733   7.342  13.341
49957SOL    HW151768   4.797   7.356  13.272
49957SOL    HW251769   4.652   7.321  13.295
49958SOL     OW51770   1.320   4.744   2.416
49958SOL    HW151771   1.364   4.747   2.331
49958SOL    HW251772   1.312   4.651   2.436
49959SOL     OW51773  13.352   6.179   5.589
49959SOL    HW151774  13.409   6.163   5.665
49959SOL    HW251775  13.343   6.093   5.548
49960SOL     OW51776   7.238  14.447   5.672
49960SOL    HW151777   7.258  14.536   5.702
49960SOL    HW251778   7.273  14.390   5.741
49961SOL     OW51779   6.889   3.354  12.743
49961SOL    HW151780   6.902   3.263  12.716
49961SOL    HW251781   6.956   3.403  12.695
49962SOL     OW51782  10.900   8.093   5.432
49962SOL    HW151783  10.876   8.102   5.340
49962SOL    HW251784  10.836   8.033   5.469
49963SOL     OW51785   6.918   3.954  12.334
49963SOL    HW151786   6.962   3.906  12.405
49963SOL    HW251787   6.846   4.001  12.376
49964SOL     OW51788   6.694   2.698  10.013
49964SOL    HW151789   6.688   2.682  10.107
49964SOL    HW251790   6.628   2.767   9.997
49965SOL     OW51791  14.839   5.654   2.485
49965SOL    HW151792  14.829   5.712   2.410
49965SOL    HW251793   0.011   5.705   2.548
49966SOL     OW51794   0.816  12.944  11.340
49966SOL    HW151795   0.837  13.034  11.363
49966SOL    HW251796   0.896  12.895  11.357
49967SOL     OW51797   1.849  14.432   8.859
49967SOL    HW151798   1.769  14.432   8.806
49967SOL    HW251799   1.847  14.347   8.904
49968SOL     OW51800   3.345   5.918   0.519
49968SOL    HW151801   3.428   5.880   0.550
49968SOL    HW251802   3.278   5.862   0.558
49969SOL     OW51803   2.031  11.426   5.757
49969SOL    HW151804   1.998  11.351   5.806
49969SOL    HW251805   1.979  11.500   5.789
49970SOL     OW51806  11.857   6.115   4.479
49970SOL    HW151807  11.942   6.122   4.435
49970SOL    HW251808  11.848   6.022   4.499
49971SOL     OW51809   5.077  13.578  13.939
49971SOL    HW151810   5.024  13.657  13.935
49971SOL    HW251811   5.020  13.514  13.984
49972SOL     OW51812   6.263   6.602  11.535
49972SOL    HW151813   6.315   6.673  11.497
49972SOL    HW251814   6.200   6.646  11.592
49973SOL     OW51815   9.344  11.545  11.196
49973SOL    HW151816   9.440  11.536  11.201
49973SOL    HW251817   9.317  11.551  11.288
49974SOL     OW51818   1.022  10.707  12.509
49974SOL    HW151819   1.086  10.646  12.471
49974SOL    HW251820   1.056  10.794  12.488
49975SOL     OW51821   9.454   2.301   1.800
49975SOL    HW151822   9.450   2.394   1.823
49975SOL    HW251823   9.484   2.300   1.709
49976SOL     OW51824   7.440  12.280  11.577
49976SOL    HW151825   7.470  12.216  11.513
49976SOL    HW251826   7.355  12.247  11.606
49977SOL     OW51827   2.852   1.760   6.991
49977SOL    HW151828   2.806   1.826   6.938
49977SOL    HW251829   2.932   1.804   7.020
49978SOL     OW51830   5.365   9.112   2.056
49978SOL    HW151831   5.460   9.103   2.054
49978SOL    HW251832   5.333   9.037   2.006
49979SOL     OW51833   2.482  11.742   8.850
49979SOL    HW151834   2.488  11.712   8.941
49979SOL    HW251835   2.568  11.779   8.832
49980SOL     OW51836   5.357  12.640   1.401
49980SOL    HW151837   5.333  12.710   1.460
49980SOL    HW251838   5.444  12.663   1.370
49981SOL     OW51839   4.260   4.650   1.726
49981SOL    HW151840   4.177   4.696   1.712
49981SOL    HW251841   4.270   4.648   1.821
49982SOL     OW51842   2.562   1.472   0.487
49982SOL    HW151843   2.519   1.424   0.558
49982SOL    HW251844   2.652   1.483   0.516
49983SOL     OW51845   3.500   9.994   7.924
49983SOL    HW151846   3.567  10.003   7.992
49983SOL    HW251847   3.421   9.971   7.972
49984SOL     OW51848   6.471   2.195   5.225
49984SOL    HW151849   6.392   2.250   5.226
49984SOL    HW251850   6.536   2.247   5.272
49985SOL     OW51851   3.160   7.723   9.944
49985SOL    HW151852   3.161   7.703  10.038
49985SOL    HW251853   3.082   7.680   9.910
49986SOL     OW51854   5.970   3.858   4.890
49986SOL    HW151855   5.991   3.951   4.880
49986SOL    HW251856   6.008   3.834   4.975
49987SOL     OW51857   2.358  12.630  12.541
49987SOL    HW151858   2.324  12.660  12.625
49987SOL    HW251859   2.409  12.704  12.507
49988SOL     OW51860   1.264  11.819   6.093
49988SOL    HW151861   1.238  11.907   6.118
49988SOL    HW251862   1.272  11.772   6.177
49989SOL     OW51863  12.936   9.232  11.890
49989SOL    HW151864  12.958   9.287  11.814
49989SOL    HW251865  12.915   9.295  11.959
49990SOL     OW51866  10.975   0.176   0.706
49990SOL    HW151867  10.900   0.128   0.741
49990SOL    HW251868  11.044   0.109   0.697
49991SOL     OW51869   0.250  13.332   1.046
49991SOL    HW151870   0.200  13.251   1.030
49991SOL    HW251871   0.199  13.401   1.005
49992SOL     OW51872   2.157  14.518   0.063
49992SOL    HW151873   2.155  14.580  14.870
49992SOL    HW251874   2.070  14.525   0.103
49993SOL     OW51875   8.242  10.701   5.531
49993SOL    HW151876   8.326  10.678   5.572
49993SOL    HW251877   8.197  10.617   5.520
49994SOL     OW51878   1.042   1.258  12.213
49994SOL    HW151879   1.036   1.172  12.255
49994SOL    HW251880   0.970   1.308  12.251
49995SOL     OW51881   1.641  12.475  10.512
49995SOL    HW151882   1.598  12.427  10.441
49995SOL    HW251883   1.574  12.483  10.580
49996SOL     OW51884   0.077   9.485   9.111
49996SOL    HW151885   0.071   9.518   9.201
49996SOL    HW251886   0.134   9.409   9.117
49997SOL     OW51887   2.310  13.629   2.670
49997SOL    HW151888   2.360  13.618   2.751
49997SOL    HW251889   2.376  13.622   2.601
49998SOL     OW51890  13.911   6.027  10.613
49998SOL    HW151891  13.912   6.019  10.517
49998SOL    HW251892  13.989   6.079  10.633
49999SOL     OW51893  14.699  13.758   9.265
49999SOL    HW151894  14.656  13.744   9.180
49999SOL    HW251895  14.692  13.852   9.279
50000SOL     OW51896   9.736   5.800  11.777
50000SOL    HW151897   9.665   5.804  11.841
50000SOL    HW251898   9.815   5.789  11.830
50001SOL     OW51899  13.561  10.830  11.054
50001SOL    HW151900  13.503  10.806  10.981
50001SOL    HW251901  13.639  10.866  11.012
50002SOL     OW51902   9.518  12.775   7.134
50002SOL    HW151903   9.460  12.733   7.197
50002SOL    HW251904   9.564  12.703   7.091
50003SOL     OW51905  13.033  14.594   0.795
50003SOL    HW151906  13.055  14.585   0.888
50003SOL    HW251907  13.063  14.682   0.772
50004SOL     OW51908   3.062   0.915   1.742
50004SOL    HW151909   3.021   0.947   1.823
50004SOL    HW251910   3.005   0.844   1.713
50005SOL     OW51911   5.322   4.783   7.856
50005SOL    HW151912   5.342   4.756   7.945
50005SOL    HW251913   5.408   4.800   7.817
50006SOL     OW51914   6.806   3.950   1.839
50006SOL    HW151915   6.852   4.009   1.899
50006SOL    HW251916   6.736   4.004   1.802
50007SOL     OW51917  13.993   7.174  10.733
50007SOL    HW151918  13.970   7.264  10.708
50007SOL    HW251919  14.053   7.185  10.807
50008SOL     OW51920  13.629   8.803   6.831
50008SOL    HW151921  13.723   8.787   6.840
50008SOL    HW251922  13.612   8.879   6.887
50009SOL     OW51923   3.943  12.733   6.203
50009SOL    HW151924   3.935  12.707   6.295
50009SOL    HW251925   4.000  12.810   6.206
50010SOL     OW51926  13.924   7.372   1.907
50010SOL    HW151927  13.978   7.422   1.846
50010SOL    HW251928  13.949   7.281   1.894
50011SOL     OW51929   8.350  14.401   3.138
50011SOL    HW151930   8.321  14.348   3.212
50011SOL    HW251931   8.273  14.407   3.082
50012SOL     OW51932  12.285   0.998   1.833
50012SOL    HW151933  12.223   0.978   1.763
50012SOL    HW251934  12.370   1.000   1.789
50013SOL     OW51935  14.193   2.525   4.975
50013SOL    HW151936  14.236   2.523   5.060
50013SOL    HW251937  14.227   2.448   4.930
50014SOL     OW51938  10.571   2.243   3.605
50014SOL    HW151939  10.646   2.303   3.598
50014SOL    HW251940  10.558   2.212   3.515
50015SOL     OW51941  10.357   9.423   8.513
50015SOL    HW151942  10.433   9.472   8.545
50015SOL    HW251943  10.362   9.339   8.558
50016SOL     OW51944  13.709  13.483   9.662
50016SOL    HW151945  13.794  13.511   9.696
50016SOL    HW251946  13.729  13.421   9.592
50017SOL     OW51947   4.075   1.031   2.770
50017SOL    HW151948   4.075   1.125   2.792
50017SOL    HW251949   4.168   1.010   2.759
50018SOL     OW51950   6.511   2.511   8.107
50018SOL    HW151951   6.577   2.533   8.172
50018SOL    HW251952   6.561   2.489   8.029
50019SOL     OW51953   1.688   1.812   8.412
50019SOL    HW151954   1.610   1.758   8.412
50019SOL    HW251955   1.656   1.902   8.405
50020SOL     OW51956   1.319   6.317   3.254
50020SOL    HW151957   1.345   6.397   3.298
50020SOL    HW251958   1.372   6.248   3.295
50021SOL     OW51959   9.302  13.808   2.959
50021SOL    HW151960   9.215  13.769   2.963
50021SOL    HW251961   9.360  13.736   2.936
50022SOL     OW51962   6.681   7.509   5.534
50022SOL    HW151963   6.701   7.470   5.619
50022SOL    HW251964   6.678   7.603   5.551
50023SOL     OW51965   4.326  10.713   3.278
50023SOL    HW151966   4.375  10.659   3.215
50023SOL    HW251967   4.263  10.652   3.317
50024SOL     OW51968   0.464  14.835   5.425
50024SOL    HW151969   0.484  14.759   5.480
50024SOL    HW251970   0.488  14.807   5.336
50025SOL     OW51971  12.477   3.648   6.370
50025SOL    HW151972  12.406   3.614   6.425
50025SOL    HW251973  12.535   3.693   6.431
50026SOL     OW51974   6.543  11.377   8.106
50026SOL    HW151975   6.607  11.350   8.172
50026SOL    HW251976   6.542  11.306   8.043
50027SOL     OW51977   9.866  11.524   2.898
50027SOL    HW151978   9.843  11.453   2.958
50027SOL    HW251979   9.912  11.481   2.826
50028SOL     OW51980   1.619   1.760  11.014
50028SOL    HW151981   1.689   1.703  10.982
50028SOL    HW251982   1.618   1.746  11.109
50029SOL     OW51983   2.049   6.827   1.303
50029SOL    HW151984   2.043   6.921   1.291
50029SOL    HW251985   1.973   6.804   1.355
50030SOL     OW51986   8.716   6.510   9.853
50030SOL    HW151987   8.699   6.492   9.760
50030SOL    HW251988   8.770   6.436   9.882
50031SOL     OW51989   7.727   0.906  11.105
50031SOL    HW151990   7.688   0.827  11.069
50031SOL    HW251991   7.739   0.887  11.198
50032SOL     OW51992  10.836   3.908   9.688
50032SOL    HW151993  10.879   3.975   9.634
50032SOL    HW251994  10.849   3.826   9.640
50033SOL     OW51995   1.858  13.849   5.505
50033SOL    HW151996   1.949  13.860   5.475
50033SOL    HW251997   1.866  13.801   5.587
50034SOL     OW51998   7.518   6.143   7.193
50034SOL    HW151999   7.463   6.190   7.130
50034SOL    HW252000   7.457   6.084   7.237
50035SOL     OW52001  13.469   3.158   8.944
50035SOL    HW152002  13.399   3.207   8.900
50035SOL    HW252003  13.445   3.161   9.036
50036SOL     OW52004   5.810   3.227  13.233
50036SOL    HW152005   5.721   3.226  13.270
50036SOL    HW252006   5.803   3.282  13.155
50037SOL     OW52007   2.917   3.988   3.713
50037SOL    HW152008   2.903   4.049   3.641
50037SOL    HW252009   2.964   3.914   3.673
50038SOL     OW52010   1.705   7.983   9.368
50038SOL    HW152011   1.633   8.031   9.409
50038SOL    HW252012   1.708   7.900   9.415
50039SOL     OW52013   6.035   6.702   0.231
50039SOL    HW152014   5.996   6.784   0.259
50039SOL    HW252015   6.089   6.725   0.155
50040SOL     OW52016   2.029  10.452   8.044
50040SOL    HW152017   1.997  10.362   8.038
50040SOL    HW252018   1.986  10.487   8.122
50041SOL     OW52019  12.365  12.508  11.153
50041SOL    HW152020  12.384  12.601  11.167
50041SOL    HW252021  12.438  12.477  11.099
50042SOL     OW52022   5.349   6.964  13.843
50042SOL    HW152023   5.343   7.031  13.911
50042SOL    HW252024   5.259   6.936  13.829
50043SOL     OW52025  13.434   8.176  12.407
50043SOL    HW152026  13.453   8.092  12.366
50043SOL    HW252027  13.419   8.236  12.334
50044SOL     OW52028   8.888   7.497  13.821
50044SOL    HW152029   8.839   7.557  13.879
50044SOL    HW252030   8.957   7.551  13.783
50045SOL     OW52031  10.472  10.167  12.731
50045SOL    HW152032  10.392  10.116  12.742
50045SOL    HW252033  10.536  10.125  12.789
50046SOL     OW52034   8.242   3.290   2.939
50046SOL    HW152035   8.231   3.289   2.844
50046SOL    HW252036   8.290   3.210   2.958
50047SOL     OW52037   2.166   5.375   3.354
50047SOL    HW152038   2.161   5.331   3.269
50047SOL    HW252039   2.157   5.304   3.418
50048SOL     OW52040   8.527   5.105  11.856
50048SOL    HW152041   8.590   5.163  11.899
50048SOL    HW252042   8.444   5.122  11.901
50049SOL     OW52043   6.582   4.325   5.005
50049SOL    HW152044   6.607   4.236   5.031
50049SOL    HW252045   6.623   4.337   4.919
50050SOL     OW52046   6.208  10.761  10.299
50050SOL    HW152047   6.302  10.773  10.311
50050SOL    HW252048   6.196  10.762  10.204
50051SOL     OW52049  14.044   1.442   4.817
50051SOL    HW152050  13.980   1.438   4.746
50051SOL    HW252051  13.993   1.433   4.897
50052SOL     OW52052  14.354   3.913   9.070
50052SOL    HW152053  14.261   3.894   9.080
50052SOL    HW252054  14.398   3.831   9.093
50053SOL     OW52055   9.080   9.342  12.435
50053SOL    HW152056   9.085   9.438  12.431
50053SOL    HW252057   9.009   9.319  12.374
50054SOL     OW52058   0.328   8.589  13.308
50054SOL    HW152059   0.335   8.566  13.216
50054SOL    HW252060   0.250   8.644  13.314
50055SOL     OW52061   9.640  11.349   2.818
50055SOL    HW152062   9.704  11.400   2.768
50055SOL    HW252063   9.616  11.406   2.892
50056SOL     OW52064   8.728   4.900   6.293
50056SOL    HW152065   8.713   4.866   6.381
50056SOL    HW252066   8.807   4.856   6.262
50057SOL     OW52067   7.279  13.249   7.382
50057SOL    HW152068   7.229  13.229   7.303
50057SOL    HW252069   7.213  13.273   7.447
50058SOL     OW52070  10.364   3.189   7.240
50058SOL    HW152071  10.437   3.129   7.234
50058SOL    HW252072  10.404   3.276   7.240
50059SOL     OW52073  10.180   6.209  14.619
50059SOL    HW152074  10.238   6.261  14.564
50059SOL    HW252075  10.095   6.254  14.614
50060SOL     OW52076   2.717   8.923   8.830
50060SOL    HW152077   2.666   8.868   8.890
50060SOL    HW252078   2.708   9.011   8.865
50061SOL     OW52079  14.215   1.522  10.827
50061SOL    HW152080  14.158   1.534  10.751
50061SOL    HW252081  14.187   1.439  10.864
50062SOL     OW52082   9.784   8.230   0.442
50062SOL    HW152083   9.834   8.226   0.361
50062SOL    HW252084   9.697   8.199   0.418
50063SOL     OW52085  13.223   0.224   9.913
50063SOL    HW152086  13.137   0.194   9.884
50063SOL    HW252087  13.269   0.143   9.936
50064SOL     OW52088  13.925   0.647   6.969
50064SOL    HW152089  14.006   0.674   7.012
50064SOL    HW252090  13.943   0.559   6.937
50065SOL     OW52091   4.388  12.891   3.196
50065SOL    HW152092   4.374  12.915   3.288
50065SOL    HW252093   4.483  12.893   3.185
50066SOL     OW52094  11.773   0.714   0.598
50066SOL    HW152095  11.815   0.747   0.677
50066SOL    HW252096  11.783   0.619   0.604
50067SOL     OW52097  14.202  12.472   5.460
50067SOL    HW152098  14.273  12.416   5.430
50067SOL    HW252099  14.233  12.561   5.447
50068SOL     OW52100   2.995   3.905   8.047
50068SOL    HW152101   2.953   3.840   7.991
50068SOL    HW252102   3.081   3.920   8.007
50069SOL     OW52103  14.718  14.381  10.705
50069SOL    HW152104  14.784  14.447  10.684
50069SOL    HW252105  14.748  14.342  10.787
50070SOL     OW52106   8.041  12.968   5.576
50070SOL    HW152107   8.038  13.030   5.503
50070SOL    HW252108   7.971  12.906   5.558
50071SOL     OW52109   7.236   3.986  11.665
50071SOL    HW152110   7.320   3.954  11.630
50071SOL    HW252111   7.172   3.919  11.639
50072SOL     OW52112   7.864  14.644   0.735
50072SOL    HW152113   7.909  14.668   0.815
50072SOL    HW252114   7.790  14.590   0.763
50073SOL     OW52115   6.439  12.319   6.108
50073SOL    HW152116   6.531  12.323   6.083
50073SOL    HW252117   6.428  12.232   6.146
50074SOL     OW52118   0.728   7.717   7.483
50074SOL    HW152119   0.704   7.716   7.576
50074SOL    HW252120   0.772   7.633   7.469
50075SOL     OW52121  12.035   6.873   7.563
50075SOL    HW152122  12.086   6.852   7.485
50075SOL    HW252123  11.981   6.795   7.579
50076SOL     OW52124   0.184   9.128   2.525
50076SOL    HW152125   0.127   9.059   2.490
50076SOL    HW252126   0.198   9.105   2.616
50077SOL     OW52127  10.527  14.512  13.902
50077SOL    HW152128  10.507  14.418  13.907
50077SOL    HW252129  10.447  14.555  13.932
50078SOL     OW52130   1.824   4.504   2.146
50078SOL    HW152131   1.898   4.518   2.204
50078SOL    HW252132   1.848   4.548   2.065
50079SOL     OW52133  11.190   9.935   3.348
50079SOL    HW152134  11.277   9.910   3.379
50079SOL    HW252135  11.154   9.989   3.419
50080SOL     OW52136  14.081  11.130  14.011
50080SOL    HW152137  14.175  11.112  14.021
50080SOL    HW252138  14.054  11.078  13.936
50081SOL     OW52139   7.990  12.366   5.062
50081SOL    HW152140   7.942  12.343   4.983
50081SOL    HW252141   7.963  12.301   5.127
50082SOL     OW52142   7.748   7.475   1.284
50082SOL    HW152143   7.744   7.380   1.289
50082SOL    HW252144   7.835   7.498   1.318
50083SOL     OW52145   0.319  13.348   6.074
50083SOL    HW152146   0.302  13.393   6.157
50083SOL    HW252147   0.370  13.271   6.098
50084SOL     OW52148  10.280   9.390  14.069
50084SOL    HW152149  10.264   9.316  14.010
50084SOL    HW252150  10.230   9.370  14.148
50085SOL     OW52151  10.915   6.491   0.470
50085SOL    HW152152  10.974   6.475   0.396
50085SOL    HW252153  10.852   6.419   0.467
50086SOL     OW52154  11.375   4.794  11.289
50086SOL    HW152155  11.445   4.732  11.308
50086SOL    HW252156  11.298   4.757  11.333
50087SOL     OW52157  10.509   7.048  14.526
50087SOL    HW152158  10.450   7.122  14.512
50087SOL    HW252159  10.484   7.012  14.610
50088SOL     OW52160   2.459   9.796   7.342
50088SOL    HW152161   2.541   9.755   7.314
50088SOL    HW252162   2.413   9.728   7.391
50089SOL     OW52163  14.604  12.516   5.489
50089SOL    HW152164  14.540  12.563   5.437
50089SOL    HW252165  14.689  12.547   5.457
50090SOL     OW52166  14.801   9.881   0.465
50090SOL    HW152167  14.737   9.813   0.486
50090SOL    HW252168  14.837   9.907   0.549
50091SOL     OW52169   4.391   2.649  12.428
50091SOL    HW152170   4.351   2.563  12.416
50091SOL    HW252171   4.371   2.696  12.348
50092SOL     OW52172  13.168   4.041  10.681
50092SOL    HW152173  13.088   3.990  10.688
50092SOL    HW252174  13.138   4.131  10.666
50093SOL     OW52175   4.585   7.026   5.959
50093SOL    HW152176   4.593   7.119   5.936
50093SOL    HW252177   4.510   7.022   6.018
50094SOL     OW52178   2.786   8.323   7.845
50094SOL    HW152179   2.763   8.303   7.754
50094SOL    HW252180   2.726   8.393   7.870
50095SOL     OW52181   2.768   7.246   1.967
50095SOL    HW152182   2.701   7.195   1.922
50095SOL    HW252183   2.851   7.202   1.944
50096SOL     OW52184   4.415  10.709  13.597
50096SOL    HW152185   4.397  10.778  13.660
50096SOL    HW252186   4.452  10.754  13.521
50097SOL     OW52187  13.856   0.058   7.408
50097SOL    HW152188  13.820   0.032   7.493
50097SOL    HW252189  13.780   0.073   7.352
50098SOL     OW52190   2.172   2.561  13.925
50098SOL    HW152191   2.190   2.480  13.876
50098SOL    HW252192   2.258   2.599  13.939
50099SOL     OW52193   2.773  14.723  13.047
50099SOL    HW152194   2.733  14.647  13.004
50099SOL    HW252195   2.751  14.712  13.139
50100SOL     OW52196   5.373   9.630  12.397
50100SOL    HW152197   5.323   9.549  12.408
50100SOL    HW252198   5.465   9.603  12.403
50101SOL     OW52199  11.137  12.188   4.961
50101SOL    HW152200  11.125  12.201   5.055
50101SOL    HW252201  11.051  12.163   4.928
50102SOL     OW52202   4.348   7.659  10.686
50102SOL    HW152203   4.368   7.698  10.601
50102SOL    HW252204   4.344   7.565  10.669
50103SOL     OW52205   0.522  14.417  13.460
50103SOL    HW152206   0.591  14.411  13.526
50103SOL    HW252207   0.556  14.479  13.396
50104SOL     OW52208  11.704   0.061   1.132
50104SOL    HW152209  11.760   0.111   1.192
50104SOL    HW252210  11.759  14.866   1.105
50105SOL     OW52211   6.460  11.414   7.087
50105SOL    HW152212   6.480  11.322   7.105
50105SOL    HW252213   6.475  11.424   6.993
50106SOL     OW52214   0.470  14.821   8.396
50106SOL    HW152215   0.407  14.859   8.335
50106SOL    HW252216   0.418  14.763   8.452
50107SOL     OW52217   7.816   8.025  12.142
50107SOL    HW152218   7.873   8.014  12.066
50107SOL    HW252219   7.874   8.015  12.218
50108SOL     OW52220  13.001  12.960   2.293
50108SOL    HW152221  12.927  12.970   2.233
50108SOL    HW252222  13.017  13.048   2.328
50109SOL     OW52223   9.623  11.142   0.251
50109SOL    HW152224   9.618  11.178   0.163
50109SOL    HW252225   9.716  11.151   0.275
50110SOL     OW52226   4.558   5.820   8.486
50110SOL    HW152227   4.571   5.835   8.580
50110SOL    HW252228   4.626   5.872   8.444
50111SOL     OW52229  13.101  11.955   0.873
50111SOL    HW152230  13.050  11.907   0.938
50111SOL    HW252231  13.035  12.002   0.822
50112SOL     OW52232  13.502   1.713   7.452
50112SOL    HW152233  13.422   1.677   7.412
50112SOL    HW252234  13.551   1.636   7.480
50113SOL     OW52235   6.673   7.941  10.139
50113SOL    HW152236   6.615   7.986  10.078
50113SOL    HW252237   6.712   8.012  10.191
50114SOL     OW52238   2.410   9.695  11.989
50114SOL    HW152239   2.384   9.720  11.901
50114SOL    HW252240   2.429   9.601  11.983
50115SOL     OW52241   5.010   6.043   9.233
50115SOL    HW152242   5.014   6.104   9.308
50115SOL    HW252243   5.089   5.991   9.240
50116SOL     OW52244  13.037   4.990  13.022
50116SOL    HW152245  13.064   4.937  13.097
50116SOL    HW252246  12.953   5.027  13.048
50117SOL     OW52247   4.503   2.951  12.154
50117SOL    HW152248   4.540   3.011  12.089
50117SOL    HW252249   4.442   3.005  12.205
50118SOL     OW52250   1.586   9.316   6.508
50118SOL    HW152251   1.627   9.385   6.455
50118SOL    HW252252   1.568   9.245   6.447
50119SOL     OW52253  13.233   6.833  12.750
50119SOL    HW152254  13.146   6.795  12.762
50119SOL    HW252255  13.249   6.825  12.656
50120SOL     OW52256   7.455   9.623   0.585
50120SOL    HW152257   7.525   9.640   0.648
50120SOL    HW252258   7.423   9.536   0.608
50121SOL     OW52259   5.272   5.102   6.214
50121SOL    HW152260   5.261   5.007   6.211
50121SOL    HW252261   5.198   5.133   6.266
50122SOL     OW52262   0.876   2.333   5.431
50122SOL    HW152263   0.850   2.423   5.414
50122SOL    HW252264   0.805   2.296   5.482
50123SOL     OW52265   6.828   0.827   6.370
50123SOL    HW152266   6.888   0.800   6.440
50123SOL    HW252267   6.741   0.816   6.407
50124SOL     OW52268  11.522   1.083   5.212
50124SOL    HW152269  11.540   1.160   5.158
50124SOL    HW252270  11.500   1.014   5.149
50125SOL     OW52271   3.017  14.822  13.000
50125SOL    HW152272   2.925  14.798  13.011
50125SOL    HW252273   3.036  14.804  12.908
50126SOL     OW52274  10.232  11.217  13.048
50126SOL    HW152275  10.230  11.296  13.103
50126SOL    HW252276  10.154  11.225  12.993
50127SOL     OW52277   3.235   0.766   8.170
50127SOL    HW152278   3.208   0.790   8.259
50127SOL    HW252279   3.231   0.848   8.121
50128SOL     OW52280   1.659  10.759   1.534
50128SOL    HW152281   1.733  10.722   1.485
50128SOL    HW252282   1.677  10.736   1.625
50129SOL     OW52283   2.100   6.500   4.537
50129SOL    HW152284   2.147   6.440   4.594
50129SOL    HW252285   2.116   6.587   4.575
50130SOL     OW52286   5.468  14.074   2.151
50130SOL    HW152287   5.428  14.142   2.206
50130SOL    HW252288   5.395  14.018   2.125
50131SOL     OW52289   9.928  12.177  12.771
50131SOL    HW152290   9.939  12.084  12.747
50131SOL    HW252291   9.901  12.219  12.690
50132SOL     OW52292   0.922   6.841   0.174
50132SOL    HW152293   0.941   6.803   0.088
50132SOL    HW252294   0.940   6.934   0.164
50133SOL     OW52295  13.354   1.787  12.694
50133SOL    HW152296  13.331   1.847  12.765
50133SOL    HW252297  13.303   1.818  12.619
50134SOL     OW52298   5.269   0.762   2.986
50134SOL    HW152299   5.344   0.703   2.998
50134SOL    HW252300   5.297   0.821   2.916
50135SOL     OW52301  13.031   2.506   4.953
50135SOL    HW152302  13.086   2.434   4.921
50135SOL    HW252303  12.955   2.463   4.992
50136SOL     OW52304   6.776  12.697  12.602
50136SOL    HW152305   6.834  12.638  12.554
50136SOL    HW252306   6.781  12.780  12.554
50137SOL     OW52307   8.473  10.508   7.186
50137SOL    HW152308   8.389  10.500   7.139
50137SOL    HW252309   8.476  10.432   7.244
50138SOL     OW52310   9.286  11.855   4.225
50138SOL    HW152311   9.325  11.844   4.138
50138SOL    HW252312   9.231  11.777   4.237
50139SOL     OW52313   8.247  12.547   8.451
50139SOL    HW152314   8.230  12.591   8.367
50139SOL    HW252315   8.213  12.608   8.517
50140SOL     OW52316   7.218  11.407  10.224
50140SOL    HW152317   7.206  11.444  10.311
50140SOL    HW252318   7.231  11.314  10.239
50141SOL     OW52319   9.927   1.963   1.723
50141SOL    HW152320   9.968   1.945   1.807
50141SOL    HW252321   9.963   1.897   1.663
50142SOL     OW52322   5.786  10.546  12.424
50142SOL    HW152323   5.749  10.510  12.343
50142SOL    HW252324   5.710  10.559  12.481
50143SOL     OW52325   4.940   3.568   3.517
50143SOL    HW152326   4.909   3.550   3.429
50143SOL    HW252327   4.957   3.662   3.518
50144SOL     OW52328   1.775  10.237   6.590
50144SOL    HW152329   1.808  10.239   6.679
50144SOL    HW252330   1.854  10.235   6.535
50145SOL     OW52331   3.933  14.499  14.595
50145SOL    HW152332   3.923  14.446  14.516
50145SOL    HW252333   4.027  14.501  14.612
50146SOL     OW52334   0.319  11.042   5.604
50146SOL    HW152335   0.350  10.954   5.625
50146SOL    HW252336   0.390  11.100   5.630
50147SOL     OW52337   2.465   7.147   0.194
50147SOL    HW152338   2.452   7.209   0.265
50147SOL    HW252339   2.394   7.084   0.204
50148SOL     OW52340   8.643   8.561   5.175
50148SOL    HW152341   8.644   8.651   5.145
50148SOL    HW252342   8.597   8.564   5.259
50149SOL     OW52343   9.388   5.190   8.121
50149SOL    HW152344   9.401   5.281   8.145
50149SOL    HW252345   9.361   5.193   8.029
50150SOL     OW52346  11.089   4.321   3.442
50150SOL    HW152347  11.061   4.359   3.359
50150SOL    HW252348  11.123   4.234   3.418
50151SOL     OW52349  12.962  13.669   5.568
50151SOL    HW152350  12.928  13.584   5.543
50151SOL    HW252351  13.022  13.651   5.640
50152SOL     OW52352   2.783   2.322   8.320
50152SOL    HW152353   2.795   2.334   8.414
50152SOL    HW252354   2.817   2.234   8.302
50153SOL     OW52355   3.249   4.087   1.842
50153SOL    HW152356   3.292   4.025   1.784
50153SOL    HW252357   3.165   4.047   1.864
50154SOL     OW52358   6.674  12.321  13.779
50154SOL    HW152359   6.656  12.325  13.685
50154SOL    HW252360   6.595  12.357  13.820
50155SOL     OW52361  14.516  13.219   8.369
50155SOL    HW152362  14.592  13.244   8.422
50155SOL    HW252363  14.481  13.142   8.413
50156SOL     OW52364  14.005  10.592   9.769
50156SOL    HW152365  14.032  10.557   9.854
50156SOL    HW252366  14.085  10.593   9.718
50157SOL     OW52367  11.423   6.224  13.579
50157SOL    HW152368  11.394   6.136  13.557
50157SOL    HW252369  11.502   6.212  13.631
50158SOL     OW52370   5.533   1.927  12.176
50158SOL    HW152371   5.576   1.914  12.261
50158SOL    HW252372   5.448   1.964  12.198
50159SOL     OW52373   3.869   7.645   7.005
50159SOL    HW152374   3.933   7.713   6.990
50159SOL    HW252375   3.896   7.573   6.947
50160SOL     OW52376  12.184  12.942   1.672
50160SOL    HW152377  12.094  12.944   1.640
50160SOL    HW252378  12.179  12.892   1.754
50161SOL     OW52379   9.008   5.634  11.171
50161SOL    HW152380   8.917   5.640  11.143
50161SOL    HW252381   9.047   5.569  11.112
50162SOL     OW52382   8.725   4.153   8.106
50162SOL    HW152383   8.671   4.158   8.185
50162SOL    HW252384   8.693   4.075   8.060
50163SOL     OW52385   5.633   0.278   9.570
50163SOL    HW152386   5.557   0.267   9.627
50163SOL    HW252387   5.624   0.209   9.505
50164SOL     OW52388   9.782  13.071   1.810
50164SOL    HW152389   9.756  13.064   1.902
50164SOL    HW252390   9.700  13.077   1.762
50165SOL     OW52391   9.616   5.425   5.651
50165SOL    HW152392   9.533   5.381   5.636
50165SOL    HW252393   9.678   5.380   5.593
50166SOL     OW52394   0.287  14.229   0.823
50166SOL    HW152395   0.312  14.138   0.805
50166SOL    HW252396   0.245  14.225   0.909
50167SOL     OW52397  11.212   3.038   3.738
50167SOL    HW152398  11.237   2.949   3.761
50167SOL    HW252399  11.142   3.027   3.672
50168SOL     OW52400   8.075  13.534  13.977
50168SOL    HW152401   8.127  13.478  13.921
50168SOL    HW252402   8.001  13.561  13.922
50169SOL     OW52403  12.685   0.917  14.848
50169SOL    HW152404  12.733   0.968   0.034
50169SOL    HW252405  12.616   0.977  14.817
50170SOL     OW52406   0.596   1.084  14.622
50170SOL    HW152407   0.530   1.061  14.556
50170SOL    HW252408   0.564   1.043  14.702
50171SOL     OW52409   1.910   9.421  14.755
50171SOL    HW152410   1.961   9.462  14.685
50171SOL    HW252411   1.944   9.332  14.760
50172SOL     OW52412   0.488   5.314   2.650
50172SOL    HW152413   0.574   5.295   2.613
50172SOL    HW252414   0.426   5.283   2.583
50173SOL     OW52415   0.013  10.641   4.488
50173SOL    HW152416   0.029  10.576   4.558
50173SOL    HW252417  14.831  10.703   4.527
50174SOL     OW52418   8.015   3.182   2.525
50174SOL    HW152419   7.992   3.100   2.570
50174SOL    HW252420   8.045   3.154   2.439
50175SOL     OW52421  13.042   9.860  12.951
50175SOL    HW152422  12.957   9.903  12.949
50175SOL    HW252423  13.031   9.781  12.898
50176SOL     OW52424   9.930  11.327  12.674
50176SOL    HW152425   9.838  11.335  12.649
50176SOL    HW252426   9.947  11.405  12.727
50177SOL     OW52427   7.457  10.063   1.687
50177SOL    HW152428   7.437  10.141   1.738
50177SOL    HW252429   7.377  10.046   1.638
50178SOL     OW52430  14.842   5.147   2.312
50178SOL    HW152431  14.774   5.084   2.334
50178SOL    HW252432   0.044   5.106   2.341
50179SOL     OW52433   6.958   0.370   2.789
50179SOL    HW152434   6.906   0.354   2.710
50179SOL    HW252435   6.918   0.448   2.828
50180SOL     OW52436  11.531   1.239   6.245
50180SOL    HW152437  11.560   1.323   6.210
50180SOL    HW252438  11.611   1.187   6.254
50181SOL     OW52439   3.748   3.037  10.593
50181SOL    HW152440   3.739   3.067  10.503
50181SOL    HW252441   3.763   3.117  10.644
50182SOL     OW52442   9.639   7.176  13.563
50182SOL    HW152443   9.622   7.128  13.482
50182SOL    HW252444   9.715   7.131  13.602
50183SOL     OW52445   0.145  12.918   5.813
50183SOL    HW152446   0.215  12.856   5.831
50183SOL    HW252447   0.153  12.985   5.882
50184SOL     OW52448   5.142   6.286   6.560
50184SOL    HW152449   5.064   6.271   6.613
50184SOL    HW252450   5.109   6.328   6.481
50185SOL     OW52451   2.114   9.966   6.286
50185SOL    HW152452   2.130  10.054   6.252
50185SOL    HW252453   2.199   9.937   6.319
50186SOL     OW52454  10.940  11.997   2.800
50186SOL    HW152455  10.855  11.961   2.826
50186SOL    HW252456  10.918  12.076   2.750
50187SOL     OW52457   5.133  11.988  12.668
50187SOL    HW152458   5.072  12.003  12.595
50187SOL    HW252459   5.210  12.040  12.646
50188SOL     OW52460  12.210  11.210   0.616
50188SOL    HW152461  12.173  11.199   0.703
50188SOL    HW252462  12.239  11.123   0.591
50189SOL     OW52463   0.295   7.452  14.087
50189SOL    HW152464   0.218   7.508  14.075
50189SOL    HW252465   0.359   7.484  14.024
50190SOL     OW52466  12.748   2.451   2.282
50190SOL    HW152467  12.691   2.440   2.358
50190SOL    HW252468  12.822   2.393   2.299
50191SOL     OW52469   7.707  11.439  10.423
50191SOL    HW152470   7.643  11.371  10.404
50191SOL    HW252471   7.791  11.398  10.405
50192SOL     OW52472   4.005  11.265  12.309
50192SOL    HW152473   3.934  11.294  12.252
50192SOL    HW252474   4.036  11.183  12.270
50193SOL     OW52475   0.227   5.679   8.948
50193SOL    HW152476   0.170   5.714   9.017
50193SOL    HW252477   0.226   5.585   8.962
50194SOL     OW52478   4.022   5.906   3.753
50194SOL    HW152479   3.942   5.864   3.784
50194SOL    HW252480   3.992   5.987   3.712
50195SOL     OW52481   0.150   9.661   6.023
50195SOL    HW152482   0.067   9.637   6.063
50195SOL    HW252483   0.131   9.669   5.930
50196SOL     OW52484   3.887   3.934  12.761
50196SOL    HW152485   3.904   3.859  12.818
50196SOL    HW252486   3.970   3.949  12.715
50197SOL     OW52487   4.812   4.996   6.022
50197SOL    HW152488   4.843   5.023   6.109
50197SOL    HW252489   4.724   4.962   6.037
50198SOL     OW52490  11.996   3.742  10.455
50198SOL    HW152491  12.018   3.800  10.382
50198SOL    HW252492  12.065   3.676  10.454
50199SOL     OW52493   2.353   7.875  14.070
50199SOL    HW152494   2.308   7.826  14.139
50199SOL    HW252495   2.414   7.932  14.118
50200SOL     OW52496   1.537  13.810  14.003
50200SOL    HW152497   1.465  13.746  14.000
50200SOL    HW252498   1.575  13.798  14.090
50201SOL     OW52499   1.942  11.905  14.250
50201SOL    HW152500   1.862  11.911  14.197
50201SOL    HW252501   2.004  11.963  14.207
50202SOL     OW52502  13.710  14.812  14.821
50202SOL    HW152503  13.635  14.752  14.823
50202SOL    HW252504  13.687  14.877  14.754
50203SOL     OW52505   4.768   6.352   3.440
50203SOL    HW152506   4.677   6.381   3.435
50203SOL    HW252507   4.796   6.340   3.349
50204SOL     OW52508   5.565   6.614   3.784
50204SOL    HW152509   5.650   6.652   3.808
50204SOL    HW252510   5.549   6.645   3.695
50205SOL     OW52511  12.317   0.201   8.029
50205SOL    HW152512  12.319   0.108   8.006
50205SOL    HW252513  12.259   0.241   7.965
50206SOL     OW52514   2.431   8.396  10.938
50206SOL    HW152515   2.521   8.394  10.907
50206SOL    HW252516   2.425   8.477  10.989
50207SOL     OW52517   6.142   4.777   0.927
50207SOL    HW152518   6.218   4.831   0.904
50207SOL    HW252519   6.144   4.706   0.863
50208SOL     OW52520   6.144   6.896   4.158
50208SOL    HW152521   6.091   6.838   4.104
50208SOL    HW252522   6.214   6.925   4.100
50209SOL     OW52523  14.275   7.925   8.107
50209SOL    HW152524  14.237   7.939   8.020
50209SOL    HW252525  14.235   7.992   8.162
50210SOL     OW52526  12.296   3.176   5.727
50210SOL    HW152527  12.245   3.188   5.647
50210SOL    HW252528  12.301   3.264   5.765
50211SOL     OW52529  13.697  14.588   7.752
50211SOL    HW152530  13.616  14.615   7.795
50211SOL    HW252531  13.679  14.599   7.659
50212SOL     OW52532   1.504   9.252  10.921
50212SOL    HW152533   1.567   9.193  10.879
50212SOL    HW252534   1.535   9.340  10.899
50213SOL     OW52535  12.725   1.118  10.323
50213SOL    HW152536  12.794   1.055  10.302
50213SOL    HW252537  12.644   1.068  10.315
50214SOL     OW52538  10.577  12.534  10.378
50214SOL    HW152539  10.567  12.524  10.472
50214SOL    HW252540  10.630  12.458  10.351
50215SOL     OW52541  12.951   1.681   3.511
50215SOL    HW152542  13.013   1.706   3.580
50215SOL    HW252543  12.921   1.764   3.474
50216SOL     OW52544   3.746  13.080   1.952
50216SOL    HW152545   3.701  13.164   1.946
50216SOL    HW252546   3.785  13.080   2.039
50217SOL     OW52547  10.692   7.436  10.975
50217SOL    HW152548  10.667   7.523  10.944
50217SOL    HW252549  10.660   7.376  10.907
50218SOL     OW52550  14.631   0.593   8.662
50218SOL    HW152551  14.641   0.609   8.756
50218SOL    HW252552  14.558   0.649   8.636
50219SOL     OW52553  10.364  11.992   9.004
50219SOL    HW152554  10.424  12.048   9.054
50219SOL    HW252555  10.314  11.945   9.070
50220SOL     OW52556   1.836   8.856   6.526
50220SOL    HW152557   1.844   8.889   6.616
50220SOL    HW252558   1.769   8.787   6.532
50221SOL     OW52559  13.937   3.087   4.306
50221SOL    HW152560  13.851   3.053   4.284
50221SOL    HW252561  13.976   3.020   4.362
50222SOL     OW52562   3.852  12.851   3.752
50222SOL    HW152563   3.782  12.793   3.722
50222SOL    HW252564   3.864  12.827   3.845
50223SOL     OW52565  13.944  14.767   9.349
50223SOL    HW152566  13.886  14.693   9.332
50223SOL    HW252567  14.030  14.738   9.318
50224SOL     OW52568   6.991   5.604  11.130
50224SOL    HW152569   6.944   5.650  11.199
50224SOL    HW252570   6.971   5.511  11.145
50225SOL     OW52571  13.729   8.647   2.486
50225SOL    HW152572  13.686   8.708   2.545
50225SOL    HW252573  13.821   8.647   2.515
50226SOL     OW52574  13.412  10.598   2.756
50226SOL    HW152575  13.448  10.510   2.746
50226SOL    HW252576  13.321  10.590   2.727
50227SOL     OW52577   5.929   9.592   1.706
50227SOL    HW152578   5.923   9.617   1.613
50227SOL    HW252579   6.019   9.563   1.717
50228SOL     OW52580   2.597   4.095  13.698
50228SOL    HW152581   2.507   4.128  13.696
50228SOL    HW252582   2.647   4.166  13.737
50229SOL     OW52583   5.537  10.865   7.982
50229SOL    HW152584   5.569  10.775   7.974
50229SOL    HW252585   5.511  10.889   7.893
50230SOL     OW52586   7.982   1.313  14.133
50230SOL    HW152587   7.888   1.295  14.127
50230SOL    HW252588   8.018   1.281  14.050
50231SOL     OW52589   9.629   1.589  11.257
50231SOL    HW152590   9.647   1.609  11.349
50231SOL    HW252591   9.556   1.648  11.234
50232SOL     OW52592   1.248   0.663   5.231
50232SOL    HW152593   1.315   0.690   5.168
50232SOL    HW252594   1.181   0.620   5.178
50233SOL     OW52595   0.601  10.910   0.240
50233SOL    HW152596   0.628  10.822   0.265
50233SOL    HW252597   0.527  10.898   0.181
50234SOL     OW52598   1.691   9.207   6.767
50234SOL    HW152599   1.606   9.195   6.809
50234SOL    HW252600   1.670   9.241   6.680
50235SOL     OW52601   5.057  12.636   5.071
50235SOL    HW152602   4.999  12.634   4.995
50235SOL    HW252603   5.135  12.588   5.043
50236SOL     OW52604   2.923   4.152   5.437
50236SOL    HW152605   2.922   4.057   5.445
50236SOL    HW252606   2.865   4.182   5.507
50237SOL     OW52607  12.973   0.380   9.719
50237SOL    HW152608  13.016   0.295   9.715
50237SOL    HW252609  12.996   0.415   9.805
50238SOL     OW52610  14.058   2.238   2.375
50238SOL    HW152611  14.129   2.186   2.412
50238SOL    HW252612  14.063   2.221   2.281
50239SOL     OW52613  13.001   0.914   0.934
50239SOL    HW152614  12.929   0.977   0.933
50239SOL    HW252615  13.024   0.902   0.841
50240SOL     OW52616   1.041  11.833  12.476
50240SOL    HW152617   0.978  11.831  12.548
50240SOL    HW252618   1.041  11.924  12.447
50241SOL     OW52619   1.732   1.682  10.177
50241SOL    HW152620   1.673   1.733  10.121
50241SOL    HW252621   1.808   1.664  10.122
50242SOL     OW52622   8.552   6.170  11.528
50242SOL    HW152623   8.625   6.128  11.573
50242SOL    HW252624   8.592   6.211  11.451
50243SOL     OW52625   6.652   4.572   1.697
50243SOL    HW152626   6.726   4.632   1.688
50243SOL    HW252627   6.679   4.494   1.647
50244SOL     OW52628   2.566   4.586   3.344
50244SOL    HW152629   2.567   4.628   3.430
50244SOL    HW252630   2.650   4.540   3.339
50245SOL     OW52631   4.992  14.267  13.498
50245SOL    HW152632   4.930  14.295  13.564
50245SOL    HW252633   4.962  14.310  13.417
50246SOL     OW52634   9.565  11.073   6.120
50246SOL    HW152635   9.573  11.042   6.030
50246SOL    HW252636   9.493  11.022   6.157
50247SOL     OW52637   0.724   9.216   9.506
50247SOL    HW152638   0.705   9.245   9.417
50247SOL    HW252639   0.820   9.216   9.511
50248SOL     OW52640   6.631  13.298   7.650
50248SOL    HW152641   6.713  13.344   7.634
50248SOL    HW252642   6.657  13.213   7.686
50249SOL     OW52643   9.254  14.799  10.520
50249SOL    HW152644   9.340  14.838  10.503
50249SOL    HW252645   9.270  14.737  10.591
50250SOL     OW52646   1.120   5.359   4.061
50250SOL    HW152647   1.131   5.272   4.097
50250SOL    HW252648   1.028   5.381   4.077
50251SOL     OW52649   4.140   0.162   8.560
50251SOL    HW152650   4.177   0.115   8.635
50251SOL    HW252651   4.205   0.230   8.540
50252SOL     OW52652   0.404   5.446  10.243
50252SOL    HW152653   0.370   5.472  10.328
50252SOL    HW252654   0.484   5.397  10.263
50253SOL     OW52655   7.720   2.946   0.556
50253SOL    HW152656   7.697   2.855   0.536
50253SOL    HW252657   7.685   2.997   0.483
50254SOL     OW52658   1.053   9.038  14.156
50254SOL    HW152659   1.026   8.957  14.114
50254SOL    HW252660   1.035   9.106  14.091
50255SOL     OW52661  11.570   8.657  11.491
50255SOL    HW152662  11.563   8.593  11.562
50255SOL    HW252663  11.635   8.720  11.523
50256SOL     OW52664   4.588  13.771   6.942
50256SOL    HW152665   4.661  13.771   7.005
50256SOL    HW252666   4.543  13.854   6.958
50257SOL     OW52667  10.003   2.384   0.636
50257SOL    HW152668   9.997   2.295   0.671
50257SOL    HW252669   9.912   2.412   0.625
50258SOL     OW52670  12.194   5.788   2.154
50258SOL    HW152671  12.192   5.866   2.098
50258SOL    HW252672  12.156   5.719   2.099
50259SOL     OW52673   2.184  13.894   2.156
50259SOL    HW152674   2.111  13.955   2.157
50259SOL    HW252675   2.158  13.824   2.217
50260SOL     OW52676   7.871  13.362   8.148
50260SOL    HW152677   7.940  13.296   8.156
50260SOL    HW252678   7.810  13.325   8.083
50261SOL     OW52679  12.855   0.891  10.230
50261SOL    HW152680  12.873   0.861  10.141
50261SOL    HW252681  12.789   0.830  10.263
50262SOL     OW52682  13.705   5.168   4.492
50262SOL    HW152683  13.642   5.152   4.422
50262SOL    HW252684  13.652   5.192   4.568
50263SOL     OW52685   3.890   1.289  10.593
50263SOL    HW152686   3.926   1.233  10.525
50263SOL    HW252687   3.838   1.230  10.648
50264SOL     OW52688   8.649   1.842   2.695
50264SOL    HW152689   8.720   1.780   2.714
50264SOL    HW252690   8.682   1.893   2.621
50265SOL     OW52691  13.668  11.976   3.082
50265SOL    HW152692  13.745  11.984   3.026
50265SOL    HW252693  13.602  12.032   3.040
50266SOL     OW52694   2.399   0.809  14.300
50266SOL    HW152695   2.448   0.741  14.254
50266SOL    HW252696   2.464   0.878  14.317
50267SOL     OW52697   3.957  11.697   9.306
50267SOL    HW152698   3.908  11.734   9.232
50267SOL    HW252699   3.907  11.621   9.333
50268SOL     OW52700   9.557   2.298   2.065
50268SOL    HW152701   9.510   2.316   1.983
50268SOL    HW252702   9.647   2.282   2.037
50269SOL     OW52703   7.534  13.251   4.251
50269SOL    HW152704   7.541  13.345   4.236
50269SOL    HW252705   7.441  13.231   4.239
50270SOL     OW52706   4.447   6.468   4.300
50270SOL    HW152707   4.358   6.445   4.329
50270SOL    HW252708   4.464   6.553   4.341
50271SOL     OW52709   0.974   2.901   7.776
50271SOL    HW152710   1.039   2.968   7.798
50271SOL    HW252711   0.988   2.886   7.682
50272SOL     OW52712   4.541  12.697   9.723
50272SOL    HW152713   4.556  12.653   9.807
50272SOL    HW252714   4.581  12.784   9.735
50273SOL     OW52715   6.078  13.703   9.779
50273SOL    HW152716   5.987  13.695   9.750
50273SOL    HW252717   6.083  13.651   9.859
50274SOL     OW52718   9.048   8.400   6.222
50274SOL    HW152719   9.058   8.424   6.314
50274SOL    HW252720   8.956   8.375   6.213
50275SOL     OW52721   4.447   7.076  12.579
50275SOL    HW152722   4.420   7.041  12.494
50275SOL    HW252723   4.375   7.133  12.605
50276SOL     OW52724  13.691  10.629   7.864
50276SOL    HW152725  13.600  10.639   7.836
50276SOL    HW252726  13.685  10.580   7.946
50277SOL     OW52727   8.507   9.160   8.770
50277SOL    HW152728   8.428   9.115   8.799
50277SOL    HW252729   8.579   9.102   8.794
50278SOL     OW52730  14.651   1.033  14.407
50278SOL    HW152731  14.722   1.093  14.426
50278SOL    HW252732  14.640   0.983  14.488
50279SOL     OW52733  12.933   7.175   1.737
50279SOL    HW152734  12.978   7.092   1.719
50279SOL    HW252735  12.998   7.242   1.714
50280SOL     OW52736   4.371   9.559  12.898
50280SOL    HW152737   4.314   9.586  12.826
50280SOL    HW252738   4.311   9.542  12.971
50281SOL     OW52739   1.704   5.478   1.640
50281SOL    HW152740   1.716   5.404   1.701
50281SOL    HW252741   1.632   5.451   1.583
50282SOL     OW52742   5.058  14.348   1.989
50282SOL    HW152743   5.085  14.257   1.998
50282SOL    HW252744   4.963  14.344   1.980
50283SOL     OW52745   8.823  13.252   9.515
50283SOL    HW152746   8.800  13.340   9.544
50283SOL    HW252747   8.780  13.242   9.430
50284SOL     OW52748  14.000   4.081   1.741
50284SOL    HW152749  14.091   4.064   1.766
50284SOL    HW252750  14.004   4.158   1.685
50285SOL     OW52751   9.967  10.026   7.026
50285SOL    HW152752   9.904  10.032   6.954
50285SOL    HW252753  10.045  10.069   6.993
50286SOL     OW52754   6.655   8.570  10.053
50286SOL    HW152755   6.582   8.609  10.007
50286SOL    HW252756   6.713   8.643  10.075
50287SOL     OW52757  13.145  12.297  14.186
50287SOL    HW152758  13.139  12.203  14.176
50287SOL    HW252759  13.228  12.321  14.145
50288SOL     OW52760  10.617   3.062   7.574
50288SOL    HW152761  10.611   3.135   7.512
50288SOL    HW252762  10.710   3.042   7.578
50289SOL     OW52763   2.408  12.619  12.225
50289SOL    HW152764   2.481  12.604  12.165
50289SOL    HW252765   2.428  12.703  12.267
50290SOL     OW52766  14.078  11.006  13.718
50290SOL    HW152767  14.063  11.099  13.703
50290SOL    HW252768  14.021  10.962  13.656
50291SOL     OW52769  11.462   4.637   0.187
50291SOL    HW152770  11.399   4.609   0.121
50291SOL    HW252771  11.533   4.573   0.181
50292SOL     OW52772   1.401   5.301  13.216
50292SOL    HW152773   1.455   5.326  13.291
50292SOL    HW252774   1.334   5.369  13.210
50293SOL     OW52775   2.065   0.925   4.527
50293SOL    HW152776   2.110   0.854   4.482
50293SOL    HW252777   2.112   0.937   4.609
50294SOL     OW52778   5.835   1.550   3.950
50294SOL    HW152779   5.872   1.465   3.973
50294SOL    HW252780   5.748   1.530   3.917
50295SOL     OW52781   9.799  10.189  10.801
50295SOL    HW152782   9.782  10.123  10.733
50295SOL    HW252783   9.880  10.159  10.843
50296SOL     OW52784   0.630   0.916  13.358
50296SOL    HW152785   0.564   0.985  13.359
50296SOL    HW252786   0.686   0.935  13.434
50297SOL     OW52787  12.604   7.430  11.824
50297SOL    HW152788  12.631   7.521  11.829
50297SOL    HW252789  12.673   7.387  11.774
50298SOL     OW52790   5.695   6.468   0.155
50298SOL    HW152791   5.610   6.425   0.152
50298SOL    HW252792   5.683   6.541   0.215
50299SOL     OW52793   6.565  13.123  11.564
50299SOL    HW152794   6.486  13.141  11.614
50299SOL    HW252795   6.608  13.051  11.611
50300SOL     OW52796   1.162   6.675  14.547
50300SOL    HW152797   1.111   6.632  14.478
50300SOL    HW252798   1.177   6.606  14.612
50301SOL     OW52799   7.317  12.533  11.591
50301SOL    HW152800   7.388  12.596  11.603
50301SOL    HW252801   7.346  12.454  11.637
50302SOL     OW52802   4.746   8.594   1.034
50302SOL    HW152803   4.689   8.565   1.105
50302SOL    HW252804   4.825   8.626   1.078
50303SOL     OW52805   8.905  13.536   8.398
50303SOL    HW152806   8.866  13.578   8.322
50303SOL    HW252807   8.972  13.597   8.428
50304SOL     OW52808  11.611   0.642  13.912
50304SOL    HW152809  11.590   0.550  13.924
50304SOL    HW252810  11.661   0.645  13.831
50305SOL     OW52811   1.167   3.672   7.400
50305SOL    HW152812   1.144   3.580   7.390
50305SOL    HW252813   1.258   3.671   7.428
50306SOL     OW52814  14.646   9.056   9.524
50306SOL    HW152815  14.556   9.069   9.495
50306SOL    HW252816  14.638   9.017   9.611
50307SOL     OW52817  11.478  13.506   7.834
50307SOL    HW152818  11.494  13.414   7.858
50307SOL    HW252819  11.560  13.536   7.796
50308SOL     OW52820   4.783  13.573   8.108
50308SOL    HW152821   4.832  13.502   8.066
50308SOL    HW252822   4.694  13.540   8.115
50309SOL     OW52823   4.408  12.369   5.099
50309SOL    HW152824   4.474  12.307   5.129
50309SOL    HW252825   4.391  12.344   5.008
50310SOL     OW52826   3.305   0.613   6.895
50310SOL    HW152827   3.364   0.545   6.863
50310SOL    HW252828   3.307   0.603   6.990
50311SOL     OW52829  13.787   4.594   0.484
50311SOL    HW152830  13.857   4.650   0.451
50311SOL    HW252831  13.728   4.653   0.530
50312SOL     OW52832   5.555   0.493   6.505
50312SOL    HW152833   5.542   0.458   6.593
50312SOL    HW252834   5.628   0.442   6.469
50313SOL     OW52835  10.916   9.196   6.806
50313SOL    HW152836  10.907   9.103   6.786
50313SOL    HW252837  10.865   9.209   6.885
50314SOL     OW52838  13.906   5.657   3.217
50314SOL    HW152839  13.840   5.709   3.172
50314SOL    HW252840  13.989   5.696   3.192
50315SOL     OW52841   2.568  11.710   1.994
50315SOL    HW152842   2.617  11.791   1.977
50315SOL    HW252843   2.584  11.656   1.917
50316SOL     OW52844   3.551   2.824   6.909
50316SOL    HW152845   3.638   2.789   6.887
50316SOL    HW252846   3.562   2.919   6.905
50317SOL     OW52847   9.203  12.228   4.361
50317SOL    HW152848   9.294  12.206   4.379
50317SOL    HW252849   9.176  12.166   4.293
50318SOL     OW52850  11.075   9.098   3.115
50318SOL    HW152851  11.024   9.034   3.064
50318SOL    HW252852  11.166   9.081   3.091
50319SOL     OW52853   9.287   7.226   3.301
50319SOL    HW152854   9.292   7.143   3.255
50319SOL    HW252855   9.196   7.255   3.290
50320SOL     OW52856   0.924  13.239   1.315
50320SOL    HW152857   0.842  13.277   1.348
50320SOL    HW252858   0.965  13.200   1.392
50321SOL     OW52859  11.837  11.416  14.676
50321SOL    HW152860  11.924  11.397  14.642
50321SOL    HW252861  11.827  11.511  14.666
50322SOL     OW52862   3.631   5.503  12.029
50322SOL    HW152863   3.601   5.588  12.060
50322SOL    HW252864   3.664   5.521  11.941
50323SOL     OW52865   7.560  10.007  13.721
50323SOL    HW152866   7.520   9.927  13.688
50323SOL    HW252867   7.547  10.002  13.816
50324SOL     OW52868   7.980  11.568  11.025
50324SOL    HW152869   7.916  11.515  10.978
50324SOL    HW252870   7.950  11.567  11.115
50325SOL     OW52871   4.355  14.252  14.234
50325SOL    HW152872   4.449  14.235  14.222
50325SOL    HW252873   4.316  14.165  14.243
50326SOL     OW52874   3.459  10.667  13.979
50326SOL    HW152875   3.509  10.704  14.052
50326SOL    HW252876   3.368  10.690  13.998
50327SOL     OW52877   5.582   8.120  11.638
50327SOL    HW152878   5.588   8.059  11.712
50327SOL    HW252879   5.624   8.074  11.565
50328SOL     OW52880   4.853   9.830  10.065
50328SOL    HW152881   4.948   9.824  10.076
50328SOL    HW252882   4.840   9.915  10.022
50329SOL     OW52883   6.992   5.455   1.196
50329SOL    HW152884   6.906   5.465   1.236
50329SOL    HW252885   7.003   5.533   1.143
50330SOL     OW52886   4.174   4.570   3.460
50330SOL    HW152887   4.098   4.513   3.458
50330SOL    HW252888   4.212   4.556   3.547
50331SOL     OW52889   6.927   7.347  11.000
50331SOL    HW152890   6.864   7.398  10.949
50331SOL    HW252891   6.875   7.277  11.039
50332SOL     OW52892   0.923   6.870   2.994
50332SOL    HW152893   0.939   6.864   2.900
50332SOL    HW252894   0.860   6.941   3.003
50333SOL     OW52895   8.406   0.862  13.015
50333SOL    HW152896   8.318   0.895  13.035
50333SOL    HW252897   8.419   0.882  12.923
50334SOL     OW52898  12.820  10.658  11.657
50334SOL    HW152899  12.750  10.665  11.592
50334SOL    HW252900  12.889  10.715  11.623
50335SOL     OW52901   9.316   6.741   6.002
50335SOL    HW152902   9.394   6.718   5.951
50335SOL    HW252903   9.331   6.832   6.028
50336SOL     OW52904   9.967  14.481   3.307
50336SOL    HW152905  10.006  14.406   3.263
50336SOL    HW252906   9.995  14.557   3.256
50337SOL     OW52907   8.411  12.523   4.402
50337SOL    HW152908   8.317  12.534   4.417
50337SOL    HW252909   8.440  12.465   4.472
50338SOL     OW52910   0.791  14.095   4.832
50338SOL    HW152911   0.844  14.033   4.883
50338SOL    HW252912   0.773  14.050   4.750
50339SOL     OW52913   7.982  12.315   8.918
50339SOL    HW152914   7.890  12.306   8.942
50339SOL    HW252915   8.029  12.286   8.996
50340SOL     OW52916   5.892   1.037   0.958
50340SOL    HW152917   5.981   1.001   0.964
50340SOL    HW252918   5.899   1.107   0.893
50341SOL     OW52919   0.806  10.562   7.598
50341SOL    HW152920   0.844  10.649   7.612
50341SOL    HW252921   0.821  10.515   7.680
50342SOL     OW52922   0.824   7.445  10.421
50342SOL    HW152923   0.829   7.489  10.506
50342SOL    HW252924   0.803   7.514  10.359
50343SOL     OW52925   2.447   7.829   9.131
50343SOL    HW152926   2.450   7.807   9.038
50343SOL    HW252927   2.358   7.861   9.146
50344SOL     OW52928  13.500   4.626  10.058
50344SOL    HW152929  13.422   4.680  10.072
50344SOL    HW252930  13.491   4.593   9.969
50345SOL     OW52931   7.457   3.182  13.918
50345SOL    HW152932   7.384   3.148  13.969
50345SOL    HW252933   7.524   3.114  13.924
50346SOL     OW52934  11.120   3.878  10.291
50346SOL    HW152935  11.042   3.860  10.342
50346SOL    HW252936  11.103   3.963  10.250
50347SOL     OW52937   2.462   3.012   6.017
50347SOL    HW152938   2.469   3.106   6.036
50347SOL    HW252939   2.541   2.993   5.967
50348SOL     OW52940  14.298   6.124  11.495
50348SOL    HW152941  14.272   6.148  11.584
50348SOL    HW252942  14.383   6.166  11.483
50349SOL     OW52943   7.114   9.899   7.497
50349SOL    HW152944   7.181   9.849   7.542
50349SOL    HW252945   7.031   9.863   7.529
50350SOL     OW52946   3.612   3.277   8.610
50350SOL    HW152947   3.670   3.323   8.550
50350SOL    HW252948   3.547   3.235   8.554
50351SOL     OW52949   1.659  13.446   0.627
50351SOL    HW152950   1.636  13.385   0.697
50351SOL    HW252951   1.577  13.463   0.581
50352SOL     OW52952   1.085   0.817   8.392
50352SOL    HW152953   1.087   0.722   8.383
50352SOL    HW252954   1.000   0.836   8.432
50353SOL     OW52955   5.709  10.036  10.809
50353SOL    HW152956   5.766   9.991  10.748
50353SOL    HW252957   5.745  10.016  10.895
50354SOL     OW52958   3.668   2.199  11.002
50354SOL    HW152959   3.718   2.182  11.082
50354SOL    HW252960   3.663   2.295  10.997
50355SOL     OW52961  13.023   0.169  12.021
50355SOL    HW152962  13.004   0.180  12.114
50355SOL    HW252963  13.046   0.257  11.991
50356SOL     OW52964  14.611  10.652   5.806
50356SOL    HW152965  14.706  10.655   5.809
50356SOL    HW252966  14.583  10.724   5.862
50357SOL     OW52967   4.039   1.443  12.844
50357SOL    HW152968   3.954   1.446  12.889
50357SOL    HW252969   4.038   1.361  12.795
50358SOL     OW52970  13.483  12.436   4.986
50358SOL    HW152971  13.426  12.378   5.037
50358SOL    HW252972  13.479  12.401   4.897
50359SOL     OW52973   0.089   5.993  13.667
50359SOL    HW152974   0.091   5.898  13.680
50359SOL    HW252975   0.180   6.020  13.674
50360SOL     OW52976  13.861   9.517   9.881
50360SOL    HW152977  13.860   9.540   9.974
50360SOL    HW252978  13.832   9.596   9.836
50361SOL     OW52979  11.524  11.773  10.983
50361SOL    HW152980  11.604  11.824  10.988
50361SOL    HW252981  11.554  11.682  10.983
50362SOL     OW52982   7.993   5.698  12.961
50362SOL    HW152983   8.088   5.703  12.952
50362SOL    HW252984   7.966   5.788  12.982
50363SOL     OW52985   2.751   6.401   9.855
50363SOL    HW152986   2.808   6.424   9.929
50363SOL    HW252987   2.773   6.310   9.836
50364SOL     OW52988   7.211   7.807   4.206
50364SOL    HW152989   7.291   7.856   4.189
50364SOL    HW252990   7.160   7.864   4.264
50365SOL     OW52991  10.952   1.723  13.409
50365SOL    HW152992  10.857   1.725  13.410
50365SOL    HW252993  10.975   1.663  13.339
50366SOL     OW52994   2.260   6.423  11.104
50366SOL    HW152995   2.241   6.364  11.178
50366SOL    HW252996   2.302   6.499  11.145
50367SOL     OW52997   5.761  13.812  11.295
50367SOL    HW152998   5.778  13.730  11.340
50367SOL    HW252999   5.667  13.812  11.277
50368SOL     OW53000   6.775  13.081  10.213
50368SOL    HW153001   6.854  13.121  10.175
50368SOL    HW253002   6.733  13.037  10.139
50369SOL     OW53003  10.353  12.779   7.230
50369SOL    HW153004  10.385  12.769   7.319
50369SOL    HW253005  10.363  12.693   7.191
50370SOL     OW53006   2.087   6.402   0.942
50370SOL    HW153007   2.135   6.433   1.020
50370SOL    HW253008   2.028   6.474   0.920
50371SOL     OW53009   6.246   5.252   9.006
50371SOL    HW153010   6.178   5.193   9.040
50371SOL    HW253011   6.221   5.267   8.915
50372SOL     OW53012  11.434  12.249   8.514
50372SOL    HW153013  11.359  12.209   8.469
50372SOL    HW253014  11.510  12.200   8.484
50373SOL     OW53015  14.165  11.838   8.709
50373SOL    HW153016  14.109  11.901   8.663
50373SOL    HW253017  14.142  11.848   8.801
50374SOL     OW53018  11.317   1.016  12.658
50374SOL    HW153019  11.230   1.024  12.620
50374SOL    HW253020  11.346   0.928  12.634
50375SOL     OW53021   5.030  12.084  10.899
50375SOL    HW153022   4.943  12.090  10.859
50375SOL    HW253023   5.019  12.125  10.984
50376SOL     OW53024   8.541   2.104   7.549
50376SOL    HW153025   8.507   2.093   7.460
50376SOL    HW253026   8.561   2.197   7.555
50377SOL     OW53027   3.058   8.926   5.765
50377SOL    HW153028   3.026   8.878   5.689
50377SOL    HW253029   3.084   9.011   5.729
50378SOL     OW53030   8.273  10.173   4.896
50378SOL    HW153031   8.196  10.148   4.845
50378SOL    HW253032   8.321  10.091   4.908
50379SOL     OW53033   0.400   8.668   5.474
50379SOL    HW153034   0.423   8.742   5.417
50379SOL    HW253035   0.381   8.597   5.413
50380SOL     OW53036  11.031   7.555   1.506
50380SOL    HW153037  11.122   7.528   1.502
50380SOL    HW253038  10.992   7.521   1.426
50381SOL     OW53039   7.280  13.199   0.968
50381SOL    HW153040   7.232  13.252   0.904
50381SOL    HW253041   7.241  13.112   0.961
50382SOL     OW53042   9.136  13.633   5.666
50382SOL    HW153043   9.200  13.565   5.646
50382SOL    HW253044   9.181  13.691   5.727
50383SOL     OW53045   3.438   2.399   1.544
50383SOL    HW153046   3.476   2.477   1.504
50383SOL    HW253047   3.505   2.369   1.606
50384SOL     OW53048  10.173  12.747  13.398
50384SOL    HW153049  10.196  12.684  13.467
50384SOL    HW253050  10.078  12.756  13.405
50385SOL     OW53051   3.255   7.208  10.871
50385SOL    HW153052   3.183   7.162  10.828
50385SOL    HW253053   3.231   7.208  10.964
50386SOL     OW53054  11.710  14.027  10.082
50386SOL    HW153055  11.772  13.954  10.086
50386SOL    HW253056  11.765  14.106  10.089
50387SOL     OW53057   0.628  11.045   9.730
50387SOL    HW153058   0.697  11.043   9.797
50387SOL    HW253059   0.570  10.973   9.754
50388SOL     OW53060  14.785  11.760   3.665
50388SOL    HW153061  14.758  11.676   3.702
50388SOL    HW253062   0.001  11.757   3.666
50389SOL     OW53063   9.496   3.764   0.525
50389SOL    HW153064   9.495   3.824   0.450
50389SOL    HW253065   9.486   3.677   0.485
50390SOL     OW53066  14.425   5.008   9.627
50390SOL    HW153067  14.485   4.969   9.563
50390SOL    HW253068  14.338   4.997   9.589
50391SOL     OW53069   8.725   9.670  11.868
50391SOL    HW153070   8.819   9.687  11.876
50391SOL    HW253071   8.719   9.577  11.846
50392SOL     OW53072   9.885   0.479   8.264
50392SOL    HW153073   9.908   0.450   8.176
50392SOL    HW253074   9.968   0.478   8.312
50393SOL     OW53075   7.501  13.280   5.601
50393SOL    HW153076   7.490  13.375   5.613
50393SOL    HW253077   7.412  13.248   5.586
50394SOL     OW53078   3.448   7.366   6.724
50394SOL    HW153079   3.487   7.336   6.805
50394SOL    HW253080   3.399   7.290   6.691
50395SOL     OW53081   8.808   9.234   3.186
50395SOL    HW153082   8.872   9.230   3.257
50395SOL    HW253083   8.833   9.164   3.127
50396SOL     OW53084   7.699  11.130  14.347
50396SOL    HW153085   7.641  11.202  14.324
50396SOL    HW253086   7.641  11.058  14.372
50397SOL     OW53087   6.384   4.449   9.498
50397SOL    HW153088   6.345   4.504   9.431
50397SOL    HW253089   6.432   4.382   9.449
50398SOL     OW53090   0.832  14.619  13.055
50398SOL    HW153091   0.883  14.574  12.989
50398SOL    HW253092   0.858  14.578  13.138
50399SOL     OW53093   7.527  12.397  10.493
50399SOL    HW153094   7.510  12.320  10.439
50399SOL    HW253095   7.558  12.463  10.431
50400SOL     OW53096  11.416  11.561   4.179
50400SOL    HW153097  11.435  11.639   4.126
50400SOL    HW253098  11.441  11.586   4.268
50401SOL     OW53099  12.863  14.462  11.500
50401SOL    HW153100  12.938  14.429  11.452
50401SOL    HW253101  12.899  14.528  11.559
50402SOL     OW53102  11.036   9.067  11.607
50402SOL    HW153103  11.026   9.070  11.702
50402SOL    HW253104  11.128   9.091  11.592
50403SOL     OW53105   4.404   4.779   8.047
50403SOL    HW153106   4.414   4.806   7.956
50403SOL    HW253107   4.321   4.731   8.050
50404SOL     OW53108   8.415   2.314   0.783
50404SOL    HW153109   8.359   2.386   0.811
50404SOL    HW253110   8.429   2.329   0.689
50405SOL     OW53111  13.222   5.522   1.556
50405SOL    HW153112  13.288   5.592   1.561
50405SOL    HW253113  13.182   5.521   1.643
50406SOL     OW53114   8.303   7.073   8.353
50406SOL    HW153115   8.216   7.040   8.373
50406SOL    HW253116   8.325   7.034   8.268
50407SOL     OW53117  13.158   1.109  11.984
50407SOL    HW153118  13.237   1.098  11.931
50407SOL    HW253119  13.094   1.050  11.944
50408SOL     OW53120  11.812  11.987   2.922
50408SOL    HW153121  11.772  12.070   2.949
50408SOL    HW253122  11.828  11.941   3.005
50409SOL     OW53123   8.705   8.176   4.165
50409SOL    HW153124   8.686   8.242   4.232
50409SOL    HW253125   8.714   8.094   4.213
50410SOL     OW53126   9.192   3.748   7.146
50410SOL    HW153127   9.203   3.789   7.060
50410SOL    HW253128   9.280   3.720   7.170
50411SOL     OW53129   5.302  13.638  10.223
50411SOL    HW153130   5.206  13.646  10.224
50411SOL    HW253131   5.318  13.545  10.241
50412SOL     OW53132   3.001   5.217   9.864
50412SOL    HW153133   3.047   5.293   9.901
50412SOL    HW253134   3.007   5.229   9.769
50413SOL     OW53135   0.761   7.990  11.454
50413SOL    HW153136   0.733   7.969  11.543
50413SOL    HW253137   0.722   7.921  11.400
50414SOL     OW53138  10.675   8.837  11.618
50414SOL    HW153139  10.587   8.805  11.597
50414SOL    HW253140  10.681   8.920  11.570
50415SOL     OW53141  13.913  14.698   3.381
50415SOL    HW153142  13.954  14.651   3.453
50415SOL    HW253143  13.898  14.632   3.314
50416SOL     OW53144   5.470   4.952   8.331
50416SOL    HW153145   5.541   5.009   8.360
50416SOL    HW253146   5.505   4.863   8.343
50417SOL     OW53147  10.127  12.652   3.993
50417SOL    HW153148  10.222  12.657   3.985
50417SOL    HW253149  10.098  12.603   3.916
50418SOL     OW53150  14.626   0.140   6.499
50418SOL    HW153151  14.610   0.118   6.407
50418SOL    HW253152  14.649   0.233   6.498
50419SOL     OW53153  11.965  10.297   2.769
50419SOL    HW153154  11.939  10.291   2.861
50419SOL    HW253155  11.884  10.315   2.722
50420SOL     OW53156  14.292   5.504   3.521
50420SOL    HW153157  14.351   5.497   3.446
50420SOL    HW253158  14.308   5.592   3.556
50421SOL     OW53159   2.530   6.837   5.083
50421SOL    HW153160   2.590   6.818   5.011
50421SOL    HW253161   2.525   6.755   5.132
50422SOL     OW53162   0.918   8.867  13.355
50422SOL    HW153163   0.964   8.918  13.421
50422SOL    HW253164   0.835   8.843  13.396
50423SOL     OW53165   4.120   0.197  14.399
50423SOL    HW153166   4.146   0.110  14.429
50423SOL    HW253167   4.030   0.207  14.429
50424SOL     OW53168   9.327  11.080  13.428
50424SOL    HW153169   9.328  11.102  13.335
50424SOL    HW253170   9.380  11.148  13.469
50425SOL     OW53171  12.975   2.759  12.880
50425SOL    HW153172  12.972   2.854  12.869
50425SOL    HW253173  12.969   2.746  12.974
50426SOL     OW53174  13.730   9.185  14.181
50426SOL    HW153175  13.750   9.096  14.153
50426SOL    HW253176  13.697   9.176  14.270
50427SOL     OW53177   3.770   6.346   8.298
50427SOL    HW153178   3.749   6.431   8.260
50427SOL    HW253179   3.715   6.284   8.250
50428SOL     OW53180   5.563   8.373   2.401
50428SOL    HW153181   5.493   8.376   2.336
50428SOL    HW253182   5.592   8.282   2.401
50429SOL     OW53183   7.695   0.443   0.651
50429SOL    HW153184   7.699   0.509   0.583
50429SOL    HW253185   7.785   0.436   0.683
50430SOL     OW53186  14.757  11.504   7.939
50430SOL    HW153187  14.679  11.453   7.962
50430SOL    HW253188  14.747  11.522   7.846
50431SOL     OW53189  10.561   1.546  12.196
50431SOL    HW153190  10.587   1.456  12.218
50431SOL    HW253191  10.466   1.545  12.200
50432SOL     OW53192  13.093   6.427  13.047
50432SOL    HW153193  13.187   6.441  13.059
50432SOL    HW253194  13.063   6.392  13.132
50433SOL     OW53195  11.258   1.343   3.702
50433SOL    HW153196  11.269   1.369   3.610
50433SOL    HW253197  11.315   1.402   3.751
50434SOL     OW53198   3.683   8.899   6.368
50434SOL    HW153199   3.768   8.918   6.328
50434SOL    HW253200   3.619   8.923   6.300
50435SOL     OW53201   6.008  13.905   8.709
50435SOL    HW153202   6.007  14.000   8.695
50435SOL    HW253203   5.979  13.868   8.625
50436SOL     OW53204  10.807  10.039   5.088
50436SOL    HW153205  10.728  10.088   5.062
50436SOL    HW253206  10.777   9.948   5.094
50437SOL     OW53207   1.110   9.815   7.595
50437SOL    HW153208   1.112   9.805   7.499
50437SOL    HW253209   1.196   9.853   7.616
50438SOL     OW53210   1.910   4.954   2.127
50438SOL    HW153211   1.915   5.048   2.145
50438SOL    HW253212   2.000   4.922   2.138
50439SOL     OW53213   2.699  11.044   7.638
50439SOL    HW153214   2.729  11.053   7.728
50439SOL    HW253215   2.604  11.057   7.643
50440SOL     OW53216   9.648  14.091  13.039
50440SOL    HW153217   9.637  14.041  13.120
50440SOL    HW253218   9.704  14.035  12.985
50441SOL     OW53219   0.624   4.091  10.269
50441SOL    HW153220   0.559   4.092  10.339
50441SOL    HW253221   0.582   4.044  10.197
50442SOL     OW53222   9.934   4.948   7.490
50442SOL    HW153223   9.915   4.978   7.578
50442SOL    HW253224  10.015   4.993   7.466
50443SOL     OW53225   0.588   5.125   3.100
50443SOL    HW153226   0.544   5.154   3.020
50443SOL    HW253227   0.681   5.126   3.078
50444SOL     OW53228   7.639   2.450  10.210
50444SOL    HW153229   7.639   2.532  10.259
50444SOL    HW253230   7.651   2.477  10.119
50445SOL     OW53231  10.469   1.664  14.686
50445SOL    HW153232  10.490   1.664  14.779
50445SOL    HW253233  10.512   1.743  14.651
50446SOL     OW53234  13.281   3.742  11.412
50446SOL    HW153235  13.301   3.663  11.362
50446SOL    HW253236  13.352   3.749  11.476
50447SOL     OW53237   1.903   1.575   3.988
50447SOL    HW153238   1.907   1.670   3.977
50447SOL    HW253239   1.944   1.559   4.073
50448SOL     OW53240   9.519   2.249   0.115
50448SOL    HW153241   9.584   2.207   0.172
50448SOL    HW253242   9.440   2.254   0.168
50449SOL     OW53243   8.604   1.740  12.663
50449SOL    HW153244   8.603   1.794  12.584
50449SOL    HW253245   8.542   1.783  12.722
50450SOL     OW53246   4.841   1.273   7.280
50450SOL    HW153247   4.905   1.209   7.312
50450SOL    HW253248   4.756   1.233   7.295
50451SOL     OW53249  12.375   7.608   8.356
50451SOL    HW153250  12.394   7.623   8.263
50451SOL    HW253251  12.289   7.565   8.357
50452SOL     OW53252  14.441   1.421  10.639
50452SOL    HW153253  14.371   1.471  10.681
50452SOL    HW253254  14.487   1.378  10.712
50453SOL     OW53255  10.868   1.427   9.983
50453SOL    HW153256  10.919   1.505  10.007
50453SOL    HW253257  10.778   1.459   9.976
50454SOL     OW53258   9.418   4.276   4.268
50454SOL    HW153259   9.474   4.274   4.190
50454SOL    HW253260   9.397   4.369   4.280
50455SOL     OW53261   5.864   5.788  11.217
50455SOL    HW153262   5.834   5.867  11.173
50455SOL    HW253263   5.864   5.810  11.310
50456SOL     OW53264  11.476  14.340   3.575
50456SOL    HW153265  11.431  14.421   3.550
50456SOL    HW253266  11.568  14.365   3.581
50457SOL     OW53267   9.403   3.061  10.871
50457SOL    HW153268   9.480   3.008  10.892
50457SOL    HW253269   9.421   3.147  10.910
50458SOL     OW53270   6.601   4.334   6.936
50458SOL    HW153271   6.681   4.282   6.937
50458SOL    HW253272   6.538   4.280   6.887
50459SOL     OW53273  14.620   5.866   1.270
50459SOL    HW153274  14.706   5.906   1.285
50459SOL    HW253275  14.640   5.783   1.226
50460SOL     OW53276   4.487   7.748  12.883
50460SOL    HW153277   4.514   7.725  12.794
50460SOL    HW253278   4.393   7.767  12.875
50461SOL     OW53279   3.511  11.801   3.440
50461SOL    HW153280   3.521  11.716   3.396
50461SOL    HW253281   3.601  11.827   3.460
50462SOL     OW53282   3.728   2.297   8.285
50462SOL    HW153283   3.668   2.353   8.235
50462SOL    HW253284   3.814   2.316   8.248
50463SOL     OW53285  12.039   4.074  12.321
50463SOL    HW153286  12.030   3.990  12.275
50463SOL    HW253287  11.995   4.061  12.404
50464SOL     OW53288  13.124   3.524  11.938
50464SOL    HW153289  13.193   3.537  12.002
50464SOL    HW253290  13.170   3.512  11.855
50465SOL     OW53291   7.963  12.713   6.982
50465SOL    HW153292   8.055  12.696   7.001
50465SOL    HW253293   7.965  12.776   6.910
50466SOL     OW53294   3.305  14.789   6.999
50466SOL    HW153295   3.374  14.724   6.991
50466SOL    HW253296   3.349  14.873   6.986
50467SOL     OW53297   3.604  11.947  12.643
50467SOL    HW153298   3.597  11.907  12.556
50467SOL    HW253299   3.685  11.910  12.679
50468SOL     OW53300   0.119  13.263  14.499
50468SOL    HW153301   0.074  13.209  14.564
50468SOL    HW253302   0.063  13.340  14.490
50469SOL     OW53303  14.481   5.223   0.166
50469SOL    HW153304  14.386   5.216   0.155
50469SOL    HW253305  14.501   5.169   0.243
50470SOL     OW53306   4.265   8.179   2.370
50470SOL    HW153307   4.304   8.130   2.443
50470SOL    HW253308   4.236   8.262   2.409
50471SOL     OW53309  14.615   8.196  14.170
50471SOL    HW153310  14.559   8.257  14.218
50471SOL    HW253311  14.701   8.204  14.211
50472SOL     OW53312  11.395   7.908   1.868
50472SOL    HW153313  11.485   7.905   1.900
50472SOL    HW253314  11.341   7.904   1.946
50473SOL     OW53315   1.817   4.398  14.701
50473SOL    HW153316   1.821   4.493  14.714
50473SOL    HW253317   1.892   4.365  14.751
50474SOL     OW53318  11.269   4.229  14.194
50474SOL    HW153319  11.354   4.263  14.165
50474SOL    HW253320  11.208   4.253  14.125
50475SOL     OW53321   8.383   9.754   8.385
50475SOL    HW153322   8.326   9.825   8.356
50475SOL    HW253323   8.333   9.675   8.369
50476SOL     OW53324   9.719   0.065   1.193
50476SOL    HW153325   9.636   0.074   1.241
50476SOL    HW253326   9.750   0.155   1.182
50477SOL     OW53327   3.396   0.873   5.544
50477SOL    HW153328   3.480   0.844   5.508
50477SOL    HW253329   3.373   0.806   5.609
50478SOL     OW53330  13.462  10.378   0.327
50478SOL    HW153331  13.557  10.366   0.327
50478SOL    HW253332  13.444  10.430   0.406
50479SOL     OW53333   2.772  11.391   7.022
50479SOL    HW153334   2.854  11.353   7.052
50479SOL    HW253335   2.714  11.387   7.098
50480SOL     OW53336   5.188  10.460  13.192
50480SOL    HW153337   5.182  10.369  13.220
50480SOL    HW253338   5.270  10.465  13.142
50481SOL     OW53339  11.936   3.179   8.817
50481SOL    HW153340  12.031   3.172   8.810
50481SOL    HW253341  11.902   3.132   8.741
50482SOL     OW53342   6.470  10.618   9.177
50482SOL    HW153343   6.554  10.655   9.150
50482SOL    HW253344   6.471  10.529   9.145
50483SOL     OW53345  13.037   4.332   2.774
50483SOL    HW153346  13.113   4.315   2.830
50483SOL    HW253347  13.021   4.250   2.728
50484SOL     OW53348   0.578  11.717  10.534
50484SOL    HW153349   0.545  11.703  10.623
50484SOL    HW253350   0.499  11.733  10.482
50485SOL     OW53351   2.652  12.653   6.175
50485SOL    HW153352   2.740  12.623   6.194
50485SOL    HW253353   2.637  12.630   6.083
50486SOL     OW53354  10.644  10.791   7.510
50486SOL    HW153355  10.678  10.880   7.505
50486SOL    HW253356  10.585  10.791   7.586
50487SOL     OW53357  11.439   5.301   6.290
50487SOL    HW153358  11.475   5.212   6.279
50487SOL    HW253359  11.348   5.287   6.315
50488SOL     OW53360   1.136   5.933  12.749
50488SOL    HW153361   1.158   5.860  12.806
50488SOL    HW253362   1.062   5.902  12.697
50489SOL     OW53363  12.367   9.929   3.252
50489SOL    HW153364  12.367  10.025   3.259
50489SOL    HW253365  12.398   9.899   3.338
50490SOL     OW53366  11.838  10.278  13.127
50490SOL    HW153367  11.771  10.273  13.195
50490SOL    HW253368  11.804  10.223  13.055
50491SOL     OW53369  11.222   6.874   6.755
50491SOL    HW153370  11.214   6.784   6.722
50491SOL    HW253371  11.141   6.917   6.728
50492SOL     OW53372   3.024   1.614  10.880
50492SOL    HW153373   3.027   1.674  10.955
50492SOL    HW253374   3.100   1.638  10.827
50493SOL     OW53375   7.797   8.295  14.742
50493SOL    HW153376   7.861   8.225  14.753
50493SOL    HW253377   7.772   8.318  14.832
50494SOL     OW53378  12.301   6.178   9.703
50494SOL    HW153379  12.224   6.133   9.671
50494SOL    HW253380  12.375   6.130   9.665
50495SOL     OW53381   7.286   7.415  14.338
50495SOL    HW153382   7.211   7.412  14.397
50495SOL    HW253383   7.348   7.473  14.381
50496SOL     OW53384   7.960   7.399  13.616
50496SOL    HW153385   7.961   7.389  13.712
50496SOL    HW253386   7.867   7.401  13.594
50497SOL     OW53387   7.865   3.666   7.853
50497SOL    HW153388   7.788   3.648   7.798
50497SOL    HW253389   7.856   3.758   7.877
50498SOL     OW53390  10.904   6.076   8.569
50498SOL    HW153391  10.908   6.127   8.488
50498SOL    HW253392  10.817   6.036   8.567
50499SOL     OW53393  12.406  11.281   4.099
50499SOL    HW153394  12.426  11.262   4.007
50499SOL    HW253395  12.335  11.220   4.121
50500SOL     OW53396   4.577   0.195  10.542
50500SOL    HW153397   4.654   0.138  10.539
50500SOL    HW253398   4.608   0.275  10.585
50501SOL     OW53399   8.842   9.272   4.890
50501SOL    HW153400   8.868   9.208   4.824
50501SOL    HW253401   8.798   9.341   4.840
50502SOL     OW53402   1.028   6.842   3.665
50502SOL    HW153403   1.103   6.786   3.645
50502SOL    HW253404   1.066   6.918   3.709
50503SOL     OW53405   2.702  14.695   9.232
50503SOL    HW153406   2.748  14.663   9.309
50503SOL    HW253407   2.632  14.750   9.267
50504SOL     OW53408   3.949   9.722   8.814
50504SOL    HW153409   3.916   9.809   8.789
50504SOL    HW253410   3.968   9.678   8.731
50505SOL     OW53411   6.579   8.833  10.203
50505SOL    HW153412   6.488   8.802  10.194
50505SOL    HW253413   6.575   8.925  10.180
50506SOL     OW53414   4.871  12.247   4.270
50506SOL    HW153415   4.915  12.326   4.241
50506SOL    HW253416   4.919  12.220   4.349
50507SOL     OW53417  10.197   2.749   2.433
50507SOL    HW153418  10.155   2.775   2.515
50507SOL    HW253419  10.287   2.728   2.459
50508SOL     OW53420  10.521  10.647   1.780
50508SOL    HW153421  10.576  10.571   1.800
50508SOL    HW253422  10.538  10.708   1.851
50509SOL     OW53423  14.466  13.413  13.295
50509SOL    HW153424  14.450  13.507  13.286
50509SOL    HW253425  14.408  13.373  13.231
50510SOL     OW53426  14.320   4.530  12.488
50510SOL    HW153427  14.295   4.469  12.558
50510SOL    HW253428  14.402   4.569  12.518
50511SOL     OW53429  11.554   0.233   0.986
50511SOL    HW153430  11.541   0.308   1.045
50511SOL    HW253431  11.616   0.177   1.033
50512SOL     OW53432   2.593  13.241   0.827
50512SOL    HW153433   2.524  13.188   0.789
50512SOL    HW253434   2.550  13.320   0.856
50513SOL     OW53435   4.782   8.368   5.119
50513SOL    HW153436   4.707   8.349   5.063
50513SOL    HW253437   4.752   8.347   5.207
50514SOL     OW53438   6.233  10.223  13.988
50514SOL    HW153439   6.215  10.317  13.987
50514SOL    HW253440   6.254  10.204  14.079
50515SOL     OW53441   4.657   5.051   5.642
50515SOL    HW153442   4.739   5.017   5.677
50515SOL    HW253443   4.602   5.064   5.719
50516SOL     OW53444   8.640  10.468   9.444
50516SOL    HW153445   8.600  10.544   9.485
50516SOL    HW253446   8.581  10.396   9.466
50517SOL     OW53447  13.426   9.490   8.121
50517SOL    HW153448  13.479   9.412   8.138
50517SOL    HW253449  13.427   9.500   8.026
50518SOL     OW53450   2.523   3.088   0.377
50518SOL    HW153451   2.438   3.050   0.351
50518SOL    HW253452   2.526   3.076   0.472
50519SOL     OW53453   0.869   2.915  13.760
50519SOL    HW153454   0.928   2.903  13.685
50519SOL    HW253455   0.809   2.841  13.755
50520SOL     OW53456  14.746   1.003   1.389
50520SOL    HW153457  14.674   1.019   1.450
50520SOL    HW253458  14.713   1.033   1.304
50521SOL     OW53459   3.680   3.390   3.090
50521SOL    HW153460   3.762   3.343   3.077
50521SOL    HW253461   3.636   3.343   3.160
50522SOL     OW53462  14.424   7.554   5.449
50522SOL    HW153463  14.420   7.650   5.448
50522SOL    HW253464  14.446   7.531   5.358
50523SOL     OW53465   6.529  14.542   6.994
50523SOL    HW153466   6.533  14.509   7.083
50523SOL    HW253467   6.573  14.475   6.941
50524SOL     OW53468   3.335   1.850   8.764
50524SOL    HW153469   3.254   1.846   8.814
50524SOL    HW253470   3.403   1.820   8.825
50525SOL     OW53471   6.542  11.492   2.020
50525SOL    HW153472   6.607  11.561   2.008
50525SOL    HW253473   6.585  11.413   1.988
50526SOL     OW53474   1.811   7.201   5.239
50526SOL    HW153475   1.840   7.138   5.304
50526SOL    HW253476   1.889   7.222   5.189
50527SOL     OW53477   9.848  13.040   0.690
50527SOL    HW153478   9.787  13.070   0.757
50527SOL    HW253479   9.826  12.948   0.677
50528SOL     OW53480   2.896  12.730  13.573
50528SOL    HW153481   2.913  12.738  13.479
50528SOL    HW253482   2.849  12.811  13.596
50529SOL     OW53483   3.860  12.805   0.257
50529SOL    HW153484   3.851  12.748   0.334
50529SOL    HW253485   3.781  12.787   0.205
50530SOL     OW53486   0.622   4.423  12.232
50530SOL    HW153487   0.559   4.418  12.304
50530SOL    HW253488   0.642   4.332  12.212
50531SOL     OW53489   1.486   4.345   9.084
50531SOL    HW153490   1.520   4.316   9.000
50531SOL    HW253491   1.528   4.288   9.148
50532SOL     OW53492   2.907   2.617   1.042
50532SOL    HW153493   2.880   2.659   0.960
50532SOL    HW253494   2.985   2.567   1.020
50533SOL     OW53495   4.828   0.009   8.417
50533SOL    HW153496   4.755   0.025   8.476
50533SOL    HW253497   4.787  14.868   8.333
50534SOL     OW53498   7.184  12.561   6.718
50534SOL    HW153499   7.274  12.590   6.735
50534SOL    HW253500   7.159  12.606   6.637
50535SOL     OW53501  11.125  10.566  11.858
50535SOL    HW153502  11.062  10.502  11.825
50535SOL    HW253503  11.141  10.624  11.784
50536SOL     OW53504   6.751   3.702  11.350
50536SOL    HW153505   6.714   3.789  11.339
50536SOL    HW253506   6.768   3.671  11.261
50537SOL     OW53507   1.611  12.838   2.023
50537SOL    HW153508   1.578  12.923   1.995
50537SOL    HW253509   1.643  12.853   2.113
50538SOL     OW53510   4.888   0.536  10.995
50538SOL    HW153511   4.900   0.465  11.058
50538SOL    HW253512   4.837   0.602  11.043
50539SOL     OW53513  13.544   4.220  12.704
50539SOL    HW153514  13.546   4.264  12.619
50539SOL    HW253515  13.479   4.268  12.755
50540SOL     OW53516   4.189   4.414  13.759
50540SOL    HW153517   4.256   4.392  13.823
50540SOL    HW253518   4.219   4.496  13.720
50541SOL     OW53519   0.816   1.793  14.639
50541SOL    HW153520   0.894   1.788  14.694
50541SOL    HW253521   0.805   1.886  14.620
50542SOL     OW53522   1.230   7.670   0.744
50542SOL    HW153523   1.324   7.654   0.733
50542SOL    HW253524   1.214   7.656   0.837
50543SOL     OW53525   5.948   0.258   5.506
50543SOL    HW153526   5.948   0.220   5.594
50543SOL    HW253527   6.034   0.234   5.470
50544SOL     OW53528  11.967   9.032  13.883
50544SOL    HW153529  11.928   8.947  13.864
50544SOL    HW253530  12.053   9.012  13.921
50545SOL     OW53531  10.546   0.454  11.729
50545SOL    HW153532  10.583   0.440  11.642
50545SOL    HW253533  10.452   0.450  11.716
50546SOL     OW53534   2.514   8.109  14.878
50546SOL    HW153535   2.522   8.025   0.044
50546SOL    HW253536   2.515   8.087  14.785
50547SOL     OW53537   3.507   9.034  14.591
50547SOL    HW153538   3.432   9.020  14.649
50547SOL    HW253539   3.583   9.034  14.650
50548SOL     OW53540  10.300   2.595   9.698
50548SOL    HW153541  10.256   2.620   9.779
50548SOL    HW253542  10.245   2.632   9.629
50549SOL     OW53543   2.016   5.120   9.187
50549SOL    HW153544   2.072   5.120   9.110
50549SOL    HW253545   2.024   5.032   9.224
50550SOL     OW53546  14.604   8.134   7.997
50550SOL    HW153547  14.568   8.211   8.041
50550SOL    HW253548  14.576   8.143   7.906
50551SOL     OW53549   5.294   1.673   3.623
50551SOL    HW153550   5.327   1.761   3.642
50551SOL    HW253551   5.200   1.684   3.615
50552SOL     OW53552   5.636   9.014   4.364
50552SOL    HW153553   5.556   9.006   4.416
50552SOL    HW253554   5.625   9.095   4.315
50553SOL     OW53555   4.181   2.091   5.559
50553SOL    HW153556   4.120   2.025   5.593
50553SOL    HW253557   4.236   2.043   5.498
50554SOL     OW53558   7.500   9.256  10.297
50554SOL    HW153559   7.571   9.246  10.360
50554SOL    HW253560   7.467   9.345  10.311
50555SOL     OW53561   2.918   2.910   5.220
50555SOL    HW153562   2.940   2.821   5.195
50555SOL    HW253563   2.859   2.940   5.150
50556SOL     OW53564   5.241  11.474  11.053
50556SOL    HW153565   5.243  11.533  10.978
50556SOL    HW253566   5.294  11.399  11.026
50557SOL     OW53567   1.237   2.988   8.347
50557SOL    HW153568   1.297   3.049   8.390
50557SOL    HW253569   1.262   2.902   8.380
50558SOL     OW53570   1.904  14.663   0.928
50558SOL    HW153571   1.929  14.572   0.915
50558SOL    HW253572   1.808  14.663   0.921
50559SOL     OW53573   2.855  11.804   1.261
50559SOL    HW153574   2.878  11.730   1.206
50559SOL    HW253575   2.814  11.765   1.338
50560SOL     OW53576   3.644  12.028   6.812
50560SOL    HW153577   3.585  12.008   6.884
50560SOL    HW253578   3.726  11.983   6.834
50561SOL     OW53579   9.278   4.637  14.673
50561SOL    HW153580   9.234   4.590  14.603
50561SOL    HW253581   9.348   4.577  14.702
50562SOL     OW53582   4.372   0.685   1.539
50562SOL    HW153583   4.295   0.638   1.506
50562SOL    HW253584   4.377   0.661   1.631
50563SOL     OW53585  12.857  14.367   6.736
50563SOL    HW153586  12.822  14.337   6.820
50563SOL    HW253587  12.780  14.389   6.684
50564SOL     OW53588  13.185   6.122   9.750
50564SOL    HW153589  13.215   6.200   9.703
50564SOL    HW253590  13.135   6.156   9.823
50565SOL     OW53591   1.214   5.298   7.186
50565SOL    HW153592   1.270   5.240   7.238
50565SOL    HW253593   1.136   5.246   7.168
50566SOL     OW53594   5.626  11.461   3.117
50566SOL    HW153595   5.551  11.457   3.058
50566SOL    HW253596   5.663  11.549   3.103
50567SOL     OW53597   9.378   7.315   1.471
50567SOL    HW153598   9.365   7.251   1.542
50567SOL    HW253599   9.463   7.355   1.491
50568SOL     OW53600   2.716   7.836  12.372
50568SOL    HW153601   2.763   7.898  12.318
50568SOL    HW253602   2.735   7.751  12.334
50569SOL     OW53603  12.599   3.581   2.771
50569SOL    HW153604  12.663   3.517   2.803
50569SOL    HW253605  12.626   3.599   2.680
50570SOL     OW53606  11.215   6.312  12.563
50570SOL    HW153607  11.305   6.335  12.540
50570SOL    HW253608  11.160   6.370  12.510
50571SOL     OW53609   5.634   0.841  13.358
50571SOL    HW153610   5.557   0.809  13.312
50571SOL    HW253611   5.668   0.911  13.302
50572SOL     OW53612  14.462   6.997  10.259
50572SOL    HW153613  14.455   7.091  10.243
50572SOL    HW253614  14.410   6.982  10.338
50573SOL     OW53615  12.924   7.961   7.772
50573SOL    HW153616  12.924   7.875   7.813
50573SOL    HW253617  13.016   7.984   7.764
50574SOL     OW53618  11.625  13.861  11.109
50574SOL    HW153619  11.669  13.888  11.190
50574SOL    HW253620  11.534  13.889  11.121
50575SOL     OW53621  14.381   0.295  10.506
50575SOL    HW153622  14.368   0.204  10.535
50575SOL    HW253623  14.336   0.347  10.572
50576SOL     OW53624   8.183   4.170   1.560
50576SOL    HW153625   8.190   4.221   1.641
50576SOL    HW253626   8.188   4.079   1.588
50577SOL     OW53627   5.420   9.842   8.862
50577SOL    HW153628   5.391   9.845   8.771
50577SOL    HW253629   5.510   9.810   8.858
50578SOL     OW53630   9.088   2.198   7.585
50578SOL    HW153631   9.097   2.124   7.526
50578SOL    HW253632   9.081   2.159   7.672
50579SOL     OW53633   1.767   0.239   7.749
50579SOL    HW153634   1.792   0.286   7.670
50579SOL    HW253635   1.844   0.188   7.772
50580SOL     OW53636  11.251   0.033   7.988
50580SOL    HW153637  11.220   0.104   8.044
50580SOL    HW253638  11.186   0.026   7.918
50581SOL     OW53639  12.241   9.627   4.286
50581SOL    HW153640  12.292   9.634   4.205
50581SOL    HW253641  12.162   9.679   4.268
50582SOL     OW53642  14.729   3.412   9.797
50582SOL    HW153643  14.728   3.375   9.885
50582SOL    HW253644  14.648   3.381   9.757
50583SOL     OW53645   1.821  12.266   7.947
50583SOL    HW153646   1.733  12.255   7.912
50583SOL    HW253647   1.845  12.179   7.980
50584SOL     OW53648   3.817   7.786   6.218
50584SOL    HW153649   3.845   7.748   6.135
50584SOL    HW253650   3.732   7.746   6.236
50585SOL     OW53651  10.433   3.590  10.913
50585SOL    HW153652  10.357   3.534  10.927
50585SOL    HW253653  10.507   3.538  10.947
50586SOL     OW53654   5.844   4.423   1.244
50586SOL    HW153655   5.797   4.506   1.253
50586SOL    HW253656   5.914   4.442   1.182
50587SOL     OW53657   7.652   4.772   3.027
50587SOL    HW153658   7.600   4.789   2.948
50587SOL    HW253659   7.719   4.710   2.998
50588SOL     OW53660   4.188   2.791  12.856
50588SOL    HW153661   4.112   2.831  12.898
50588SOL    HW253662   4.196   2.705  12.898
50589SOL     OW53663  14.149  14.308   8.473
50589SOL    HW153664  14.097  14.367   8.418
50589SOL    HW253665  14.233  14.302   8.428
50590SOL     OW53666   2.920   5.888   1.616
50590SOL    HW153667   2.911   5.935   1.533
50590SOL    HW253668   3.008   5.911   1.647
50591SOL     OW53669   7.859  11.147  11.257
50591SOL    HW153670   7.915  11.225  11.246
50591SOL    HW253671   7.789  11.176  11.315
50592SOL     OW53672   5.500   5.837   4.874
50592SOL    HW153673   5.444   5.857   4.799
50592SOL    HW253674   5.458   5.761   4.915
50593SOL     OW53675  12.146  14.708  13.549
50593SOL    HW153676  12.118  14.766  13.620
50593SOL    HW253677  12.131  14.620  13.584
50594SOL     OW53678   8.153   9.064  14.735
50594SOL    HW153679   8.142   9.154  14.766
50594SOL    HW253680   8.199   9.073  14.652
50595SOL     OW53681  14.773  12.637   6.467
50595SOL    HW153682  14.772  12.555   6.418
50595SOL    HW253683  14.684  12.671   6.459
50596SOL     OW53684   3.022   6.223   1.313
50596SOL    HW153685   3.035   6.253   1.223
50596SOL    HW253686   2.927   6.216   1.323
50597SOL     OW53687  12.811   6.476   0.695
50597SOL    HW153688  12.878   6.503   0.758
50597SOL    HW253689  12.733   6.524   0.721
50598SOL     OW53690   5.553   3.009   6.890
50598SOL    HW153691   5.528   2.921   6.918
50598SOL    HW253692   5.488   3.066   6.932
50599SOL     OW53693   8.137   9.226  11.838
50599SOL    HW153694   8.065   9.273  11.880
50599SOL    HW253695   8.171   9.168  11.905
50600SOL     OW53696   0.543  14.867   9.176
50600SOL    HW153697   0.618   0.012   9.122
50600SOL    HW253698   0.576  14.870   9.266
50601SOL     OW53699   5.854  11.937  14.239
50601SOL    HW153700   5.932  11.924  14.185
50601SOL    HW253701   5.801  12.001  14.189
50602SOL     OW53702   1.392  11.139   0.505
50602SOL    HW153703   1.431  11.178   0.583
50602SOL    HW253704   1.415  11.198   0.434
50603SOL     OW53705  11.826   9.913   7.214
50603SOL    HW153706  11.873   9.979   7.265
50603SOL    HW253707  11.778   9.963   7.148
50604SOL     OW53708  10.958   4.350   5.624
50604SOL    HW153709  11.017   4.283   5.655
50604SOL    HW253710  10.926   4.317   5.540
50605SOL     OW53711   2.835   1.915  11.889
50605SOL    HW153712   2.839   1.820  11.901
50605SOL    HW253713   2.815   1.949  11.976
50606SOL     OW53714   2.239   0.118   8.752
50606SOL    HW153715   2.307   0.116   8.820
50606SOL    HW253716   2.200   0.205   8.761
50607SOL     OW53717   6.800   5.478   3.118
50607SOL    HW153718   6.864   5.419   3.158
50607SOL    HW253719   6.852   5.534   3.060
50608SOL     OW53720   3.464   8.004   6.387
50608SOL    HW153721   3.507   8.078   6.346
50608SOL    HW253722   3.511   7.992   6.470
50609SOL     OW53723   6.094   3.171   0.077
50609SOL    HW153724   6.063   3.144  14.870
50609SOL    HW253725   6.064   3.101   0.136
50610SOL     OW53726   7.147  13.724   0.986
50610SOL    HW153727   7.162  13.709   0.893
50610SOL    HW253728   7.075  13.786   0.989
50611SOL     OW53729   4.025   3.187   6.354
50611SOL    HW153730   4.013   3.141   6.271
50611SOL    HW253731   4.036   3.118   6.419
50612SOL     OW53732   4.185  11.471  11.046
50612SOL    HW153733   4.093  11.446  11.046
50612SOL    HW253734   4.185  11.565  11.029
50613SOL     OW53735   0.695   2.722  12.941
50613SOL    HW153736   0.662   2.766  12.863
50613SOL    HW253737   0.664   2.632  12.933
50614SOL     OW53738   0.793   9.861   1.223
50614SOL    HW153739   0.700   9.847   1.242
50614SOL    HW253740   0.824   9.775   1.193
50615SOL     OW53741  12.702   8.787   1.283
50615SOL    HW153742  12.641   8.847   1.239
50615SOL    HW253743  12.789   8.822   1.261
50616SOL     OW53744   8.506  11.352  10.211
50616SOL    HW153745   8.423  11.304  10.207
50616SOL    HW253746   8.572  11.288  10.184
50617SOL     OW53747   2.292  13.045   9.280
50617SOL    HW153748   2.367  13.022   9.225
50617SOL    HW253749   2.306  12.997   9.362
50618SOL     OW53750   1.869  11.258   0.582
50618SOL    HW153751   1.799  11.291   0.525
50618SOL    HW253752   1.826  11.193   0.638
50619SOL     OW53753  10.241  12.074   0.399
50619SOL    HW153754  10.178  12.141   0.371
50619SOL    HW253755  10.268  12.031   0.318
50620SOL     OW53756   4.937   3.509   0.244
50620SOL    HW153757   4.881   3.457   0.302
50620SOL    HW253758   4.976   3.575   0.300
50621SOL     OW53759   5.187   1.828   8.457
50621SOL    HW153760   5.202   1.734   8.460
50621SOL    HW253761   5.268   1.866   8.492
50622SOL     OW53762  13.913  11.686  14.698
50622SOL    HW153763  13.859  11.608  14.711
50622SOL    HW253764  13.978  11.683  14.769
50623SOL     OW53765  11.183  10.939  11.243
50623SOL    HW153766  11.214  10.943  11.152
50623SOL    HW253767  11.260  10.960  11.295
50624SOL     OW53768  13.634  14.780   3.925
50624SOL    HW153769  13.586  14.703   3.894
50624SOL    HW253770  13.721  14.771   3.885
50625SOL     OW53771   1.389  12.222  10.820
50625SOL    HW153772   1.387  12.151  10.755
50625SOL    HW253773   1.452  12.192  10.886
50626SOL     OW53774   9.765  12.086   4.565
50626SOL    HW153775   9.750  12.028   4.640
50626SOL    HW253776   9.751  12.174   4.599
50627SOL     OW53777   9.357   8.587   6.578
50627SOL    HW153778   9.296   8.648   6.617
50627SOL    HW253779   9.428   8.642   6.545
50628SOL     OW53780   4.466   5.513   7.143
50628SOL    HW153781   4.481   5.590   7.087
50628SOL    HW253782   4.511   5.442   7.098
50629SOL     OW53783   2.710   0.731   2.623
50629SOL    HW153784   2.628   0.775   2.642
50629SOL    HW253785   2.765   0.747   2.699
50630SOL     OW53786   6.851   8.404   5.824
50630SOL    HW153787   6.908   8.338   5.864
50630SOL    HW253788   6.874   8.401   5.731
50631SOL     OW53789   8.024  11.975  12.235
50631SOL    HW153790   8.049  11.995  12.145
50631SOL    HW253791   7.929  11.963  12.231
50632SOL     OW53792   6.056   2.651   0.575
50632SOL    HW153793   6.021   2.563   0.558
50632SOL    HW253794   6.131   2.636   0.633
50633SOL     OW53795   2.260   9.474   0.946
50633SOL    HW153796   2.318   9.398   0.955
50633SOL    HW253797   2.250   9.507   1.035
50634SOL     OW53798   0.113   2.741   7.220
50634SOL    HW153799   0.094   2.720   7.128
50634SOL    HW253800   0.050   2.809   7.242
50635SOL     OW53801   9.213  12.477   1.380
50635SOL    HW153802   9.269  12.503   1.306
50635SOL    HW253803   9.272  12.475   1.455
50636SOL     OW53804   3.304  13.948  11.802
50636SOL    HW153805   3.374  13.895  11.841
50636SOL    HW253806   3.330  14.038  11.818
50637SOL     OW53807  14.582   3.085   8.689
50637SOL    HW153808  14.670   3.062   8.661
50637SOL    HW253809  14.595   3.150   8.758
50638SOL     OW53810  14.365   3.013  13.539
50638SOL    HW153811  14.362   2.920  13.561
50638SOL    HW253812  14.282   3.030  13.494
50639SOL     OW53813   1.666  13.622   1.097
50639SOL    HW153814   1.619  13.703   1.121
50639SOL    HW253815   1.613  13.584   1.027
50640SOL     OW53816  13.688  12.617   3.423
50640SOL    HW153817  13.680  12.711   3.410
50640SOL    HW253818  13.671  12.579   3.336
50641SOL     OW53819  13.792   2.145   6.925
50641SOL    HW153820  13.766   2.054   6.911
50641SOL    HW253821  13.821   2.176   6.840
50642SOL     OW53822   9.789  11.662   2.181
50642SOL    HW153823   9.796  11.689   2.089
50642SOL    HW253824   9.704  11.697   2.209
50643SOL     OW53825   9.663   4.651  10.669
50643SOL    HW153826   9.736   4.709  10.646
50643SOL    HW253827   9.615   4.640  10.586
50644SOL     OW53828   1.357   0.524   4.300
50644SOL    HW153829   1.275   0.564   4.268
50644SOL    HW253830   1.411   0.598   4.327
50645SOL     OW53831   5.714   0.301  13.417
50645SOL    HW153832   5.734   0.240  13.346
50645SOL    HW253833   5.759   0.382  13.393
50646SOL     OW53834   4.569  10.742   5.037
50646SOL    HW153835   4.658  10.707   5.042
50646SOL    HW253836   4.576  10.815   4.976
50647SOL     OW53837   3.415   6.194   4.167
50647SOL    HW153838   3.352   6.162   4.231
50647SOL    HW253839   3.362   6.218   4.091
50648SOL     OW53840   5.579   4.317  11.177
50648SOL    HW153841   5.495   4.314  11.223
50648SOL    HW253842   5.583   4.235  11.128
50649SOL     OW53843   3.934   1.547   3.230
50649SOL    HW153844   3.966   1.476   3.173
50649SOL    HW253845   3.909   1.502   3.311
50650SOL     OW53846   1.800   5.172   6.958
50650SOL    HW153847   1.735   5.235   6.988
50650SOL    HW253848   1.879   5.224   6.943
50651SOL     OW53849   6.986   1.734   9.420
50651SOL    HW153850   7.058   1.676   9.449
50651SOL    HW253851   6.946   1.765   9.501
50652SOL     OW53852   9.875  14.025   7.116
50652SOL    HW153853   9.900  13.972   7.041
50652SOL    HW253854   9.796  14.071   7.088
50653SOL     OW53855  11.405   0.377   3.004
50653SOL    HW153856  11.324   0.402   3.048
50653SOL    HW253857  11.380   0.307   2.945
50654SOL     OW53858   8.377  11.110   3.453
50654SOL    HW153859   8.457  11.057   3.453
50654SOL    HW253860   8.407  11.197   3.480
50655SOL     OW53861   5.390  11.336  12.367
50655SOL    HW153862   5.433  11.355  12.450
50655SOL    HW253863   5.349  11.419  12.342
50656SOL     OW53864   7.749   7.902   9.055
50656SOL    HW153865   7.749   7.979   8.998
50656SOL    HW253866   7.823   7.850   9.023
50657SOL     OW53867   9.882   1.596  12.394
50657SOL    HW153868   9.926   1.511  12.399
50657SOL    HW253869   9.948   1.655  12.359
50658SOL     OW53870   5.015  13.910   1.388
50658SOL    HW153871   5.058  13.846   1.444
50658SOL    HW253872   5.074  13.985   1.387
50659SOL     OW53873   4.397  11.020  14.692
50659SOL    HW153874   4.390  10.980  14.778
50659SOL    HW253875   4.313  11.066  14.680
50660SOL     OW53876   7.485  11.453   4.400
50660SOL    HW153877   7.449  11.407   4.476
50660SOL    HW253878   7.428  11.428   4.328
50661SOL     OW53879   2.892  12.492  14.071
50661SOL    HW153880   2.832  12.430  14.029
50661SOL    HW253881   2.881  12.476  14.165
50662SOL     OW53882   1.356  12.006   9.454
50662SOL    HW153883   1.435  11.962   9.424
50662SOL    HW253884   1.289  11.979   9.391
50663SOL     OW53885   9.245   4.361   2.337
50663SOL    HW153886   9.264   4.281   2.386
50663SOL    HW253887   9.327   4.411   2.339
50664SOL     OW53888   3.316   6.300  12.790
50664SOL    HW153889   3.337   6.333  12.703
50664SOL    HW253890   3.240   6.243  12.777
50665SOL     OW53891   1.288   4.972  10.556
50665SOL    HW153892   1.280   4.950  10.648
50665SOL    HW253893   1.236   4.904  10.511
50666SOL     OW53894   3.577   9.306   4.653
50666SOL    HW153895   3.597   9.395   4.682
50666SOL    HW253896   3.608   9.302   4.563
50667SOL     OW53897   6.705  11.954   0.863
50667SOL    HW153898   6.614  11.965   0.889
50667SOL    HW253899   6.717  11.859   0.857
50668SOL     OW53900   4.333   7.641   9.283
50668SOL    HW153901   4.246   7.629   9.320
50668SOL    HW253902   4.322   7.709   9.216
50669SOL     OW53903  11.070  10.028   8.262
50669SOL    HW153904  11.060   9.962   8.331
50669SOL    HW253905  11.090  10.109   8.309
50670SOL     OW53906   6.461   6.374   4.984
50670SOL    HW153907   6.531   6.342   4.927
50670SOL    HW253908   6.421   6.295   5.020
50671SOL     OW53909   3.371  13.238  12.205
50671SOL    HW153910   3.357  13.314  12.261
50671SOL    HW253911   3.305  13.175  12.233
50672SOL     OW53912   6.667   9.027  13.703
50672SOL    HW153913   6.638   9.016  13.793
50672SOL    HW253914   6.612   8.967  13.652
50673SOL     OW53915  14.807   7.948   8.535
50673SOL    HW153916  14.832   7.881   8.598
50673SOL    HW253917  14.853   8.027   8.565
50674SOL     OW53918   3.268   2.018   5.406
50674SOL    HW153919   3.239   1.963   5.334
50674SOL    HW253920   3.203   2.088   5.410
50675SOL     OW53921  10.626   9.977   6.290
50675SOL    HW153922  10.700   9.934   6.246
50675SOL    HW253923  10.556   9.911   6.290
50676SOL     OW53924  14.323   3.694   8.045
50676SOL    HW153925  14.379   3.747   7.989
50676SOL    HW253926  14.268   3.645   7.985
50677SOL     OW53927   1.348  13.970   8.510
50677SOL    HW153928   1.331  14.013   8.426
50677SOL    HW253929   1.263  13.933   8.535
50678SOL     OW53930  10.991  10.737   6.136
50678SOL    HW153931  10.959  10.784   6.213
50678SOL    HW253932  11.048  10.668   6.172
50679SOL     OW53933   7.781   6.556   0.560
50679SOL    HW153934   7.790   6.515   0.646
50679SOL    HW253935   7.761   6.484   0.500
50680SOL     OW53936   5.226  14.311   3.032
50680SOL    HW153937   5.186  14.224   3.027
50680SOL    HW253938   5.196  14.356   2.952
50681SOL     OW53939  11.445   8.077   4.148
50681SOL    HW153940  11.392   8.156   4.135
50681SOL    HW253941  11.516   8.086   4.084
50682SOL     OW53942   8.219   9.048  12.270
50682SOL    HW153943   8.156   9.032  12.339
50682SOL    HW253944   8.294   9.089  12.314
50683SOL     OW53945  10.300   8.421   5.169
50683SOL    HW153946  10.279   8.335   5.131
50683SOL    HW253947  10.231   8.479   5.137
50684SOL     OW53948  11.809   7.039  11.990
50684SOL    HW153949  11.789   6.957  11.944
50684SOL    HW253950  11.732   7.094  11.976
50685SOL     OW53951   8.919   4.132  12.229
50685SOL    HW153952   8.869   4.097  12.155
50685SOL    HW253953   8.954   4.055  12.273
50686SOL     OW53954   8.819   2.237  10.027
50686SOL    HW153955   8.775   2.232   9.942
50686SOL    HW253956   8.894   2.178  10.019
50687SOL     OW53957  14.200   6.604  10.436
50687SOL    HW153958  14.150   6.529  10.468
50687SOL    HW253959  14.191   6.600  10.341
50688SOL     OW53960   7.112   6.714   7.709
50688SOL    HW153961   7.025   6.676   7.697
50688SOL    HW253962   7.169   6.638   7.722
50689SOL     OW53963  10.758  14.173  11.751
50689SOL    HW153964  10.739  14.127  11.670
50689SOL    HW253965  10.746  14.266  11.730
50690SOL     OW53966   3.200  14.628  14.451
50690SOL    HW153967   3.148  14.655  14.526
50690SOL    HW253968   3.176  14.690  14.381
50691SOL     OW53969   7.699  11.313   1.880
50691SOL    HW153970   7.749  11.374   1.933
50691SOL    HW253971   7.640  11.368   1.829
50692SOL     OW53972   2.975   7.606  12.911
50692SOL    HW153973   2.887   7.572  12.929
50692SOL    HW253974   3.032   7.556  12.969
50693SOL     OW53975  10.648   5.830   5.705
50693SOL    HW153976  10.744   5.831   5.704
50693SOL    HW253977  10.622   5.852   5.616
50694SOL     OW53978   1.983   4.847   7.317
50694SOL    HW153979   1.958   4.929   7.360
50694SOL    HW253980   1.989   4.784   7.389
50695SOL     OW53981   7.107   4.730  12.865
50695SOL    HW153982   7.115   4.753  12.957
50695SOL    HW253983   7.088   4.637  12.864
50696SOL     OW53984   3.952   0.787   1.184
50696SOL    HW153985   3.967   0.713   1.125
50696SOL    HW253986   3.883   0.757   1.243
50697SOL     OW53987   2.741   9.392   1.541
50697SOL    HW153988   2.748   9.346   1.457
50697SOL    HW253989   2.800   9.345   1.599
50698SOL     OW53990  12.927  11.201   4.803
50698SOL    HW153991  12.901  11.109   4.798
50698SOL    HW253992  12.977  11.207   4.884
50699SOL     OW53993  10.386   4.088  11.331
50699SOL    HW153994  10.420   4.167  11.373
50699SOL    HW253995  10.387   4.108  11.238
50700SOL     OW53996  10.370   3.910   5.823
50700SOL    HW153997  10.367   3.849   5.749
50700SOL    HW253998  10.352   3.856   5.899
50701SOL     OW53999  14.287  13.793  13.750
50701SOL    HW154000  14.225  13.804  13.822
50701SOL    HW254001  14.234  13.760  13.678
50702SOL     OW54002   2.170  12.625  12.975
50702SOL    HW154003   2.225  12.624  13.054
50702SOL    HW254004   2.083  12.603  13.007
50703SOL     OW54005   5.229  11.941  10.230
50703SOL    HW154006   5.214  12.007  10.162
50703SOL    HW254007   5.289  11.878  10.189
50704SOL     OW54008  12.887   1.397   9.399
50704SOL    HW154009  12.940   1.448   9.337
50704SOL    HW254010  12.861   1.461   9.465
50705SOL     OW54011  13.970   4.726   9.964
50705SOL    HW154012  14.022   4.646   9.959
50705SOL    HW254013  14.023   4.792   9.920
50706SOL     OW54014   8.278   0.959   4.346
50706SOL    HW154015   8.273   0.909   4.427
50706SOL    HW254016   8.310   0.897   4.281
50707SOL     OW54017   5.076  13.220   2.697
50707SOL    HW154018   5.046  13.216   2.787
50707SOL    HW254019   5.133  13.144   2.687
50708SOL     OW54020  11.012   0.004   6.095
50708SOL    HW154021  10.999   0.096   6.117
50708SOL    HW254022  10.979  14.836   6.172
50709SOL     OW54023   0.168  11.336  14.036
50709SOL    HW154024   0.123  11.344  14.120
50709SOL    HW254025   0.098  11.338  13.971
50710SOL     OW54026  12.207   9.424   8.767
50710SOL    HW154027  12.216   9.493   8.701
50710SOL    HW254028  12.127   9.446   8.814
50711SOL     OW54029   7.086   8.000  13.774
50711SOL    HW154030   7.106   8.090  13.749
50711SOL    HW254031   7.031   7.968  13.703
50712SOL     OW54032  11.580  13.726   4.092
50712SOL    HW154033  11.588  13.635   4.062
50712SOL    HW254034  11.551  13.774   4.014
50713SOL     OW54035   7.317   9.039   4.180
50713SOL    HW154036   7.382   9.061   4.247
50713SOL    HW254037   7.292   8.949   4.201
50714SOL     OW54038  10.772  14.313   5.370
50714SOL    HW154039  10.752  14.271   5.287
50714SOL    HW254040  10.729  14.258   5.436
50715SOL     OW54041   1.608  12.154   6.330
50715SOL    HW154042   1.515  12.173   6.327
50715SOL    HW254043   1.613  12.064   6.362
50716SOL     OW54044   4.465   6.670  12.515
50716SOL    HW154045   4.492   6.590  12.471
50716SOL    HW254046   4.483   6.655  12.608
50717SOL     OW54047   7.967   3.654   2.704
50717SOL    HW154048   7.877   3.678   2.726
50717SOL    HW254049   7.961   3.563   2.673
50718SOL     OW54050   4.066  12.598   3.552
50718SOL    HW154051   4.064  12.693   3.567
50718SOL    HW254052   4.155  12.581   3.523
50719SOL     OW54053  13.477   0.223   2.258
50719SOL    HW154054  13.511   0.232   2.347
50719SOL    HW254055  13.512   0.299   2.211
50720SOL     OW54056  12.383   2.750   4.306
50720SOL    HW154057  12.470   2.787   4.318
50720SOL    HW254058  12.366   2.758   4.212
50721SOL     OW54059   3.021   7.985   2.150
50721SOL    HW154060   3.069   7.943   2.078
50721SOL    HW254061   2.931   7.955   2.138
50722SOL     OW54062   0.990   1.458   7.589
50722SOL    HW154063   1.084   1.468   7.573
50722SOL    HW254064   0.970   1.524   7.655
50723SOL     OW54065   8.179   4.826   1.574
50723SOL    HW154066   8.158   4.846   1.483
50723SOL    HW254067   8.256   4.879   1.593
50724SOL     OW54068   3.262   2.839  12.148
50724SOL    HW154069   3.271   2.852  12.054
50724SOL    HW254070   3.272   2.927  12.186
50725SOL     OW54071   6.268  11.751  12.917
50725SOL    HW154072   6.316  11.677  12.878
50725SOL    HW254073   6.216  11.712  12.987
50726SOL     OW54074   3.635   3.001   0.664
50726SOL    HW154075   3.725   3.030   0.679
50726SOL    HW254076   3.601   2.983   0.752
50727SOL     OW54077   5.580   6.139   2.560
50727SOL    HW154078   5.485   6.127   2.553
50727SOL    HW254079   5.602   6.100   2.645
50728SOL     OW54080  12.062   4.576   9.751
50728SOL    HW154081  12.121   4.504   9.773
50728SOL    HW254082  12.115   4.655   9.763
50729SOL     OW54083   7.229   1.277   0.926
50729SOL    HW154084   7.306   1.255   0.977
50729SOL    HW254085   7.155   1.260   0.984
50730SOL     OW54086   1.918   3.523   6.096
50730SOL    HW154087   1.991   3.524   6.158
50730SOL    HW254088   1.911   3.432   6.068
50731SOL     OW54089  13.372   6.049   1.300
50731SOL    HW154090  13.391   6.098   1.220
50731SOL    HW254091  13.458   6.037   1.342
50732SOL     OW54092  11.700   9.411   4.108
50732SOL    HW154093  11.621   9.412   4.162
50732SOL    HW254094  11.771   9.433   4.168
50733SOL     OW54095   5.889  14.682  13.304
50733SOL    HW154096   5.940  14.714  13.378
50733SOL    HW254097   5.798  14.700  13.329
50734SOL     OW54098   3.963  14.747   3.201
50734SOL    HW154099   3.897  14.695   3.248
50734SOL    HW254100   4.007  14.796   3.269
50735SOL     OW54101   1.582  12.966   9.849
50735SOL    HW154102   1.676  12.985   9.845
50735SOL    HW254103   1.540  13.047   9.821
50736SOL     OW54104   9.326   6.548   5.234
50736SOL    HW154105   9.355   6.536   5.325
50736SOL    HW254106   9.265   6.622   5.239
50737SOL     OW54107   6.398  13.953   3.607
50737SOL    HW154108   6.336  13.880   3.608
50737SOL    HW254109   6.386  13.996   3.691
50738SOL     OW54110   6.576   8.336   5.851
50738SOL    HW154111   6.664   8.374   5.851
50738SOL    HW254112   6.558   8.317   5.943
50739SOL     OW54113   0.264   4.130  10.974
50739SOL    HW154114   0.224   4.167  11.052
50739SOL    HW254115   0.202   4.063  10.944
50740SOL     OW54116  11.641   9.042  14.264
50740SOL    HW154117  11.673   9.125  14.229
50740SOL    HW254118  11.615   8.992  14.187
50741SOL     OW54119   4.750   4.203   9.220
50741SOL    HW154120   4.756   4.294   9.193
50741SOL    HW254121   4.735   4.207   9.314
50742SOL     OW54122  10.074   7.197   1.620
50742SOL    HW154123  10.144   7.227   1.679
50742SOL    HW254124   9.998   7.250   1.645
50743SOL     OW54125   1.201   6.106   1.578
50743SOL    HW154126   1.235   6.165   1.645
50743SOL    HW254127   1.201   6.019   1.619
50744SOL     OW54128  10.863  14.496   9.227
50744SOL    HW154129  10.776  14.489   9.267
50744SOL    HW254130  10.899  14.408   9.232
50745SOL     OW54131   0.442  12.983   5.193
50745SOL    HW154132   0.364  13.033   5.214
50745SOL    HW254133   0.473  13.019   5.110
50746SOL     OW54134   0.842   5.380   2.523
50746SOL    HW154135   0.906   5.403   2.590
50746SOL    HW254136   0.876   5.420   2.443
50747SOL     OW54137   8.188   0.646   0.895
50747SOL    HW154138   8.177   0.648   0.800
50747SOL    HW254139   8.277   0.614   0.908
50748SOL     OW54140  12.904  12.439  13.578
50748SOL    HW154141  12.890  12.465  13.487
50748SOL    HW254142  12.977  12.494  13.607
50749SOL     OW54143  12.798  12.708   7.008
50749SOL    HW154144  12.844  12.714   7.092
50749SOL    HW254145  12.858  12.746   6.944
50750SOL     OW54146  10.566   7.191   1.817
50750SOL    HW154147  10.635   7.238   1.770
50750SOL    HW254148  10.593   7.099   1.813
50751SOL     OW54149   1.107   0.839   8.969
50751SOL    HW154150   1.028   0.806   9.013
50751SOL    HW254151   1.072   0.894   8.898
50752SOL     OW54152  12.463   5.398  14.331
50752SOL    HW154153  12.473   5.472  14.272
50752SOL    HW254154  12.533   5.337  14.305
50753SOL     OW54155   4.983   9.430  10.073
50753SOL    HW154156   4.988   9.427   9.977
50753SOL    HW254157   5.059   9.483  10.099
50754SOL     OW54158   2.923  14.325   9.047
50754SOL    HW154159   2.899  14.234   9.029
50754SOL    HW254160   2.884  14.375   8.975
50755SOL     OW54161   5.838   2.935  10.888
50755SOL    HW154162   5.854   2.982  10.806
50755SOL    HW254163   5.789   2.857  10.861
50756SOL     OW54164  12.197   5.976   6.974
50756SOL    HW154165  12.115   6.024   6.961
50756SOL    HW254166  12.209   5.927   6.892
50757SOL     OW54167   2.542  12.784   7.995
50757SOL    HW154168   2.619  12.825   8.034
50757SOL    HW254169   2.557  12.791   7.901
50758SOL     OW54170   1.277   5.597  12.243
50758SOL    HW154171   1.246   5.517  12.285
50758SOL    HW254172   1.372   5.594  12.251
50759SOL     OW54173   6.622  12.112   5.679
50759SOL    HW154174   6.634  12.180   5.612
50759SOL    HW254175   6.692  12.127   5.742
50760SOL     OW54176   8.836   3.443  14.163
50760SOL    HW154177   8.911   3.385  14.178
50760SOL    HW254178   8.860   3.494  14.087
50761SOL     OW54179   9.805  14.426   6.752
50761SOL    HW154180   9.793  14.346   6.804
50761SOL    HW254181   9.724  14.475   6.765
50762SOL     OW54182   9.521  13.606  13.891
50762SOL    HW154183   9.511  13.608  13.795
50762SOL    HW254184   9.607  13.567  13.905
50763SOL     OW54185  10.768   7.951   8.106
50763SOL    HW154186  10.848   7.921   8.063
50763SOL    HW254187  10.784   7.939   8.199
50764SOL     OW54188   1.173  11.532   9.476
50764SOL    HW154189   1.221  11.607   9.511
50764SOL    HW254190   1.226  11.456   9.503
50765SOL     OW54191   1.151  12.184  10.133
50765SOL    HW154192   1.077  12.185  10.073
50765SOL    HW254193   1.111  12.176  10.220
50766SOL     OW54194   3.586   3.708   1.225
50766SOL    HW154195   3.655   3.705   1.159
50766SOL    HW254196   3.593   3.796   1.263
50767SOL     OW54197   5.147   7.590  12.336
50767SOL    HW154198   5.239   7.577  12.313
50767SOL    HW254199   5.148   7.607  12.430
50768SOL     OW54200  11.787  11.980   6.059
50768SOL    HW154201  11.813  12.046   5.994
50768SOL    HW254202  11.864  11.924   6.067
50769SOL     OW54203   3.615  11.472   7.396
50769SOL    HW154204   3.554  11.420   7.449
50769SOL    HW254205   3.579  11.465   7.307
50770SOL     OW54206  14.380  14.339   7.178
50770SOL    HW154207  14.396  14.393   7.101
50770SOL    HW254208  14.443  14.370   7.243
50771SOL     OW54209  12.894  14.779   6.591
50771SOL    HW154210  12.928  14.718   6.657
50771SOL    HW254211  12.867  14.856   6.642
50772SOL     OW54212   3.818   6.046  12.306
50772SOL    HW154213   3.727   6.065  12.284
50772SOL    HW254214   3.813   5.971  12.365
50773SOL     OW54215   7.586  14.287   6.445
50773SOL    HW154216   7.628  14.272   6.361
50773SOL    HW254217   7.496  14.312   6.422
50774SOL     OW54218   7.331   2.808   6.638
50774SOL    HW154219   7.328   2.721   6.598
50774SOL    HW254220   7.415   2.810   6.684
50775SOL     OW54221   8.130   9.802   1.768
50775SOL    HW154222   8.128   9.866   1.698
50775SOL    HW254223   8.038   9.795   1.797
50776SOL     OW54224   8.536  14.535  12.615
50776SOL    HW154225   8.541  14.461  12.554
50776SOL    HW254226   8.626  14.567  12.622
50777SOL     OW54227  10.466   6.966   2.092
50777SOL    HW154228  10.549   6.949   2.136
50777SOL    HW254229  10.468   7.059   2.071
50778SOL     OW54230   8.076  11.625   8.315
50778SOL    HW154231   8.097  11.595   8.403
50778SOL    HW254232   8.160  11.626   8.269
50779SOL     OW54233  14.009   1.748  10.361
50779SOL    HW154234  13.920   1.784  10.355
50779SOL    HW254235  14.001   1.660  10.323
50780SOL     OW54236   7.662  10.860   5.329
50780SOL    HW154237   7.601  10.858   5.402
50780SOL    HW254238   7.746  10.884   5.369
50781SOL     OW54239  12.122  12.161   0.141
50781SOL    HW154240  12.181  12.185   0.069
50781SOL    HW254241  12.047  12.220   0.131
50782SOL     OW54242   4.479   0.999   5.397
50782SOL    HW154243   4.463   0.904   5.402
50782SOL    HW254244   4.454   1.031   5.484
50783SOL     OW54245  12.732   6.227   6.454
50783SOL    HW154246  12.697   6.235   6.365
50783SOL    HW254247  12.823   6.202   6.442
50784SOL     OW54248   7.093   0.635  11.963
50784SOL    HW154249   7.001   0.657  11.976
50784SOL    HW254250   7.128   0.705  11.909
50785SOL     OW54251   8.634   0.183   5.986
50785SOL    HW154252   8.605   0.193   6.077
50785SOL    HW254253   8.655   0.272   5.957
50786SOL     OW54254  10.163   4.194   9.259
50786SOL    HW154255  10.174   4.263   9.325
50786SOL    HW254256  10.235   4.133   9.276
50787SOL     OW54257  13.890  11.489  11.679
50787SOL    HW154258  13.801  11.502  11.646
50787SOL    HW254259  13.902  11.394  11.680
50788SOL     OW54260   2.298   9.732   4.451
50788SOL    HW154261   2.213   9.725   4.495
50788SOL    HW254262   2.344   9.801   4.498
50789SOL     OW54263   9.210   5.535   1.778
50789SOL    HW154264   9.196   5.555   1.871
50789SOL    HW254265   9.299   5.566   1.760
50790SOL     OW54266  14.089   2.846   1.951
50790SOL    HW154267  14.183   2.860   1.936
50790SOL    HW254268  14.053   2.832   1.864
50791SOL     OW54269   5.178   2.030   2.503
50791SOL    HW154270   5.203   2.038   2.411
50791SOL    HW254271   5.087   2.057   2.506
50792SOL     OW54272   7.473   7.346  13.450
50792SOL    HW154273   7.427   7.320  13.370
50792SOL    HW254274   7.560   7.308  13.441
50793SOL     OW54275   4.256   7.768   0.055
50793SOL    HW154276   4.177   7.813   0.083
50793SOL    HW254277   4.304   7.750   0.136
50794SOL     OW54278  11.163   1.965  10.446
50794SOL    HW154279  11.141   1.948  10.355
50794SOL    HW254280  11.224   1.895  10.470
50795SOL     OW54281  12.711  13.679  10.085
50795SOL    HW154282  12.618  13.662  10.075
50795SOL    HW254283  12.750  13.594  10.102
50796SOL     OW54284   5.540   4.288  11.550
50796SOL    HW154285   5.532   4.362  11.609
50796SOL    HW254286   5.496   4.316  11.469
50797SOL     OW54287  13.910   3.307   7.712
50797SOL    HW154288  13.906   3.315   7.807
50797SOL    HW254289  13.819   3.316   7.683
50798SOL     OW54290   8.251   2.770   9.280
50798SOL    HW154291   8.290   2.712   9.346
50798SOL    HW254292   8.213   2.841   9.331
50799SOL     OW54293   9.553   0.862   2.163
50799SOL    HW154294   9.557   0.942   2.110
50799SOL    HW254295   9.470   0.821   2.137
50800SOL     OW54296   7.420  13.506   7.751
50800SOL    HW154297   7.406  13.500   7.656
50800SOL    HW254298   7.430  13.600   7.767
50801SOL     OW54299   2.350   3.334  11.031
50801SOL    HW154300   2.340   3.407  10.969
50801SOL    HW254301   2.418   3.363  11.092
50802SOL     OW54302  11.027  13.196   8.955
50802SOL    HW154303  11.080  13.121   8.979
50802SOL    HW254304  11.073  13.236   8.881
50803SOL     OW54305   8.504  13.027   1.435
50803SOL    HW154306   8.532  13.035   1.344
50803SOL    HW254307   8.502  12.932   1.451
50804SOL     OW54308   2.129   1.946   3.667
50804SOL    HW154309   2.203   1.905   3.621
50804SOL    HW254310   2.056   1.886   3.650
50805SOL     OW54311   1.186  11.380   6.521
50805SOL    HW154312   1.099  11.410   6.495
50805SOL    HW254313   1.195  11.408   6.612
50806SOL     OW54314   3.406   1.219  13.015
50806SOL    HW154315   3.446   1.264  13.089
50806SOL    HW254316   3.431   1.271  12.939
50807SOL     OW54317  12.039   0.416  13.484
50807SOL    HW154318  12.109   0.470  13.520
50807SOL    HW254319  11.969   0.422  13.549
50808SOL     OW54320   9.822   3.946   5.211
50808SOL    HW154321   9.824   3.886   5.285
50808SOL    HW254322   9.736   3.932   5.171
50809SOL     OW54323  11.064  11.957   6.963
50809SOL    HW154324  11.113  12.012   7.025
50809SOL    HW254325  11.010  11.900   7.018
50810SOL     OW54326  14.326   7.794  11.917
50810SOL    HW154327  14.369   7.864  11.867
50810SOL    HW254328  14.265   7.754  11.855
50811SOL     OW54329  11.400   0.784   0.990
50811SOL    HW154330  11.368   0.872   0.971
50811SOL    HW254331  11.421   0.748   0.903
50812SOL     OW54332   2.958   5.408   5.346
50812SOL    HW154333   3.022   5.349   5.305
50812SOL    HW254334   2.960   5.384   5.439
50813SOL     OW54335   6.074   1.063   7.752
50813SOL    HW154336   6.042   0.976   7.727
50813SOL    HW254337   6.012   1.123   7.710
50814SOL     OW54338  11.202   9.980  11.074
50814SOL    HW154339  11.183  10.062  11.029
50814SOL    HW254340  11.298   9.976  11.077
50815SOL     OW54341   0.673  12.932   9.577
50815SOL    HW154342   0.734  12.981   9.632
50815SOL    HW254343   0.639  12.997   9.516
50816SOL     OW54344  12.310   6.861   3.827
50816SOL    HW154345  12.268   6.842   3.911
50816SOL    HW254346  12.404   6.863   3.847
50817SOL     OW54347   4.120   2.352   6.529
50817SOL    HW154348   4.204   2.396   6.541
50817SOL    HW254349   4.141   2.271   6.482
50818SOL     OW54350   0.558   2.335   4.248
50818SOL    HW154351   0.595   2.254   4.213
50818SOL    HW254352   0.502   2.367   4.178
50819SOL     OW54353  11.851   0.242   6.150
50819SOL    HW154354  11.763   0.278   6.160
50819SOL    HW254355  11.879   0.269   6.063
50820SOL     OW54356   0.293   5.325   6.666
50820SOL    HW154357   0.238   5.377   6.608
50820SOL    HW254358   0.364   5.383   6.692
50821SOL     OW54359   3.163   7.470   1.472
50821SOL    HW154360   3.238   7.527   1.459
50821SOL    HW254361   3.147   7.472   1.566
50822SOL     OW54362   8.225   4.592   2.166
50822SOL    HW154363   8.257   4.520   2.221
50822SOL    HW254364   8.132   4.599   2.189
50823SOL     OW54365  10.662   4.287  12.408
50823SOL    HW154366  10.639   4.250  12.493
50823SOL    HW254367  10.584   4.275  12.355
50824SOL     OW54368   3.634   5.230   2.853
50824SOL    HW154369   3.696   5.212   2.783
50824SOL    HW254370   3.590   5.146   2.869
50825SOL     OW54371   2.752   0.532   7.791
50825SOL    HW154372   2.831   0.504   7.838
50825SOL    HW254373   2.778   0.613   7.747
50826SOL     OW54374   6.395   2.158   3.260
50826SOL    HW154375   6.435   2.193   3.339
50826SOL    HW254376   6.380   2.235   3.205
50827SOL     OW54377   6.389   0.330   8.030
50827SOL    HW154378   6.419   0.242   8.049
50827SOL    HW254379   6.435   0.354   7.949
50828SOL     OW54380  12.038   6.668   9.196
50828SOL    HW154381  12.009   6.585   9.159
50828SOL    HW254382  11.982   6.734   9.155
50829SOL     OW54383   3.186   5.882  10.888
50829SOL    HW154384   3.101   5.908  10.851
50829SOL    HW254385   3.231   5.837  10.816
50830SOL     OW54386   7.823  13.819   2.094
50830SOL    HW154387   7.850  13.839   2.184
50830SOL    HW254388   7.747  13.761   2.105
50831SOL     OW54389   5.764  13.915   4.329
50831SOL    HW154390   5.768  13.830   4.284
50831SOL    HW254391   5.672  13.924   4.354
50832SOL     OW54392   3.232   1.957  14.127
50832SOL    HW154393   3.196   1.994  14.046
50832SOL    HW254394   3.278   2.030  14.168
50833SOL     OW54395  12.142   3.711   9.421
50833SOL    HW154396  12.082   3.696   9.348
50833SOL    HW254397  12.114   3.650   9.489
50834SOL     OW54398   7.577   3.417   0.076
50834SOL    HW154399   7.517   3.478   0.033
50834SOL    HW254400   7.606   3.463   0.155
50835SOL     OW54401   7.427  14.005   2.189
50835SOL    HW154402   7.506  14.048   2.159
50835SOL    HW254403   7.357  14.041   2.133
50836SOL     OW54404   2.721  12.853  11.491
50836SOL    HW154405   2.717  12.896  11.405
50836SOL    HW254406   2.667  12.775  11.482
50837SOL     OW54407   0.603   7.881   1.063
50837SOL    HW154408   0.515   7.851   1.037
50837SOL    HW254409   0.590   7.918   1.151
50838SOL     OW54410   0.742  10.784  14.514
50838SOL    HW154411   0.785  10.865  14.486
50838SOL    HW254412   0.682  10.763  14.441
50839SOL     OW54413   4.156  13.354   8.576
50839SOL    HW154414   4.151  13.391   8.664
50839SOL    HW254415   4.214  13.278   8.585
50840SOL     OW54416  10.300  12.065   8.299
50840SOL    HW154417  10.331  11.976   8.314
50840SOL    HW254418  10.254  12.089   8.379
50841SOL     OW54419  12.473   2.537   5.300
50841SOL    HW154420  12.483   2.443   5.286
50841SOL    HW254421  12.443   2.571   5.215
50842SOL     OW54422   4.573   5.452   5.350
50842SOL    HW154423   4.621   5.370   5.360
50842SOL    HW254424   4.490   5.438   5.396
50843SOL     OW54425  10.938  10.631   7.937
50843SOL    HW154426  10.917  10.662   7.849
50843SOL    HW254427  10.971  10.708   7.983
50844SOL     OW54428  13.465   5.550  11.997
50844SOL    HW154429  13.378   5.526  12.030
50844SOL    HW254430  13.487   5.630  12.044
50845SOL     OW54431  11.191   2.422  14.728
50845SOL    HW154432  11.192   2.333  14.692
50845SOL    HW254433  11.155   2.412  14.817
50846SOL     OW54434  14.591   2.800   2.221
50846SOL    HW154435  14.554   2.799   2.309
50846SOL    HW254436  14.604   2.707   2.200
50847SOL     OW54437   5.334   7.054   4.078
50847SOL    HW154438   5.298   6.971   4.110
50847SOL    HW254439   5.265   7.089   4.022
50848SOL     OW54440  14.739   1.801   2.736
50848SOL    HW154441  14.804   1.836   2.797
50848SOL    HW254442  14.731   1.869   2.669
50849SOL     OW54443   0.251  12.278  13.629
50849SOL    HW154444   0.300  12.286  13.711
50849SOL    HW254445   0.223  12.367  13.608
50850SOL     OW54446  13.669  14.228  13.919
50850SOL    HW154447  13.594  14.267  13.963
50850SOL    HW254448  13.722  14.192  13.991
50851SOL     OW54449   1.107   7.395   5.829
50851SOL    HW154450   1.068   7.350   5.753
50851SOL    HW254451   1.141   7.477   5.793
50852SOL     OW54452   4.623   3.662   2.649
50852SOL    HW154453   4.553   3.694   2.706
50852SOL    HW254454   4.578   3.616   2.578
50853SOL     OW54455   3.834  10.027  10.510
50853SOL    HW154456   3.897  10.100  10.512
50853SOL    HW254457   3.750  10.069  10.527
50854SOL     OW54458   9.961   7.478   0.330
50854SOL    HW154459   9.942   7.530   0.409
50854SOL    HW254460  10.055   7.462   0.334
50855SOL     OW54461   7.571   8.858   5.275
50855SOL    HW154462   7.594   8.811   5.355
50855SOL    HW254463   7.648   8.851   5.219
50856SOL     OW54464   3.688   0.835   6.898
50856SOL    HW154465   3.619   0.871   6.843
50856SOL    HW254466   3.644   0.807   6.977
50857SOL     OW54467   7.380   0.864   0.792
50857SOL    HW154468   7.287   0.854   0.815
50857SOL    HW254469   7.420   0.898   0.872
50858SOL     OW54470   0.481   6.616   7.402
50858SOL    HW154471   0.509   6.528   7.425
50858SOL    HW254472   0.400   6.630   7.451
50859SOL     OW54473   2.807   2.758  11.978
50859SOL    HW154474   2.758   2.730  12.055
50859SOL    HW254475   2.778   2.848  11.962
50860SOL     OW54476   6.544   7.697  10.427
50860SOL    HW154477   6.491   7.776  10.437
50860SOL    HW254478   6.581   7.682  10.514
50861SOL     OW54479  11.867   2.762   2.644
50861SOL    HW154480  11.806   2.778   2.572
50861SOL    HW254481  11.848   2.832   2.707
50862SOL     OW54482  10.135  11.184   1.380
50862SOL    HW154483  10.064  11.143   1.329
50862SOL    HW254484  10.214  11.160   1.332
50863SOL     OW54485  11.091  10.671  14.595
50863SOL    HW154486  11.103  10.706  14.506
50863SOL    HW254487  11.011  10.711  14.626
50864SOL     OW54488   5.629   1.677  12.469
50864SOL    HW154489   5.646   1.597  12.520
50864SOL    HW254490   5.714   1.699  12.431
50865SOL     OW54491  11.416   4.564   0.617
50865SOL    HW154492  11.427   4.637   0.556
50865SOL    HW254493  11.332   4.525   0.591
50866SOL     OW54494  10.625  12.581  11.694
50866SOL    HW154495  10.558  12.514  11.707
50866SOL    HW254496  10.588  12.660  11.734
50867SOL     OW54497   9.623  11.307   6.361
50867SOL    HW154498   9.532  11.314   6.391
50867SOL    HW254499   9.628  11.220   6.322
50868SOL     OW54500   1.978   8.581   3.636
50868SOL    HW154501   2.072   8.587   3.620
50868SOL    HW254502   1.944   8.668   3.616
50869SOL     OW54503  12.367   0.396  13.659
50869SOL    HW154504  12.411   0.327  13.709
50869SOL    HW254505  12.426   0.414  13.586
50870SOL     OW54506  11.424   9.423  10.335
50870SOL    HW154507  11.504   9.459  10.375
50870SOL    HW254508  11.455   9.348  10.285
50871SOL     OW54509   1.843   0.309   8.180
50871SOL    HW154510   1.901   0.264   8.119
50871SOL    HW254511   1.757   0.270   8.164
50872SOL     OW54512  10.833  13.975   0.730
50872SOL    HW154513  10.897  13.912   0.764
50872SOL    HW254514  10.851  14.055   0.778
50873SOL     OW54515   0.958  11.815  11.162
50873SOL    HW154516   0.966  11.807  11.067
50873SOL    HW254517   1.040  11.855  11.189
50874SOL     OW54518   7.919  11.955   7.527
50874SOL    HW154519   7.940  12.046   7.547
50874SOL    HW254520   8.004  11.911   7.524
50875SOL     OW54521  13.393   1.232   9.729
50875SOL    HW154522  13.377   1.164   9.664
50875SOL    HW254523  13.337   1.305   9.701
50876SOL     OW54524   8.126   0.269   9.302
50876SOL    HW154525   8.213   0.258   9.263
50876SOL    HW254526   8.140   0.329   9.375
50877SOL     OW54527   4.440   7.694   3.296
50877SOL    HW154528   4.397   7.644   3.366
50877SOL    HW254529   4.426   7.641   3.217
50878SOL     OW54530   0.304   0.271  13.211
50878SOL    HW154531   0.353   0.198  13.174
50878SOL    HW254532   0.355   0.349  13.187
50879SOL     OW54533   0.304   5.549   5.188
50879SOL    HW154534   0.392   5.513   5.178
50879SOL    HW254535   0.314   5.621   5.251
50880SOL     OW54536   3.479  14.463   0.242
50880SOL    HW154537   3.509  14.502   0.324
50880SOL    HW254538   3.526  14.380   0.236
50881SOL     OW54539  11.248  13.815  13.571
50881SOL    HW154540  11.199  13.896  13.587
50881SOL    HW254541  11.227  13.759  13.645
50882SOL     OW54542  10.538   1.602   0.076
50882SOL    HW154543  10.553   1.509   0.064
50882SOL    HW254544  10.608   1.630   0.134
50883SOL     OW54545  11.823  12.782  11.296
50883SOL    HW154546  11.787  12.711  11.244
50883SOL    HW254547  11.910  12.750  11.323
50884SOL     OW54548   4.363   9.884   5.067
50884SOL    HW154549   4.291   9.821   5.073
50884SOL    HW254550   4.413   9.857   4.989
50885SOL     OW54551   7.787   5.407   3.052
50885SOL    HW154552   7.721   5.378   2.989
50885SOL    HW254553   7.811   5.328   3.099
50886SOL     OW54554   5.603   7.652   5.980
50886SOL    HW154555   5.540   7.596   6.026
50886SOL    HW254556   5.674   7.665   6.043
50887SOL     OW54557  10.988   1.613   1.803
50887SOL    HW154558  10.935   1.687   1.774
50887SOL    HW254559  10.928   1.539   1.803
50888SOL     OW54560   1.153  11.701   7.271
50888SOL    HW154561   1.105  11.739   7.197
50888SOL    HW254562   1.090  11.642   7.313
50889SOL     OW54563   9.517   4.186   1.325
50889SOL    HW154564   9.517   4.203   1.231
50889SOL    HW254565   9.574   4.253   1.362
50890SOL     OW54566  11.161   0.744  12.910
50890SOL    HW154567  11.248   0.744  12.949
50890SOL    HW254568  11.157   0.663  12.860
50891SOL     OW54569   5.070  11.781   9.947
50891SOL    HW154570   4.978  11.769   9.969
50891SOL    HW254571   5.116  11.714   9.998
50892SOL     OW54572   4.614   4.838   1.795
50892SOL    HW154573   4.644   4.803   1.879
50892SOL    HW254574   4.520   4.851   1.808
50893SOL     OW54575  12.332  10.511   6.506
50893SOL    HW154576  12.245  10.549   6.501
50893SOL    HW254577  12.383  10.560   6.441
50894SOL     OW54578   4.122  13.364   5.070
50894SOL    HW154579   4.152  13.274   5.059
50894SOL    HW254580   4.027  13.360   5.057
50895SOL     OW54581   6.123   5.505   5.968
50895SOL    HW154582   6.045   5.457   5.999
50895SOL    HW254583   6.090   5.559   5.896
50896SOL     OW54584   5.134   7.309  11.311
50896SOL    HW154585   5.138   7.381  11.249
50896SOL    HW254586   5.134   7.230  11.257
50897SOL     OW54587   5.542   9.209  14.104
50897SOL    HW154588   5.629   9.185  14.073
50897SOL    HW254589   5.521   9.142  14.169
50898SOL     OW54590   0.720   0.652   0.254
50898SOL    HW154591   0.747   0.577   0.201
50898SOL    HW254592   0.685   0.615   0.334
50899SOL     OW54593  13.027   0.853   4.922
50899SOL    HW154594  13.048   0.864   5.014
50899SOL    HW254595  12.946   0.802   4.921
50900SOL     OW54596  12.699   5.265  11.391
50900SOL    HW154597  12.663   5.282  11.304
50900SOL    HW254598  12.643   5.196  11.427
50901SOL     OW54599   8.469  13.273   3.650
50901SOL    HW154600   8.529  13.243   3.718
50901SOL    HW254601   8.452  13.365   3.671
50902SOL     OW54602  13.864   4.193  12.899
50902SOL    HW154603  13.933   4.245  12.941
50902SOL    HW254604  13.785   4.247  12.909
50903SOL     OW54605   6.086  13.155   3.042
50903SOL    HW154606   6.042  13.152   2.956
50903SOL    HW254607   6.058  13.074   3.085
50904SOL     OW54608  12.618   2.126   6.494
50904SOL    HW154609  12.701   2.120   6.448
50904SOL    HW254610  12.603   2.220   6.505
50905SOL     OW54611   5.625   8.466   2.650
50905SOL    HW154612   5.593   8.445   2.562
50905SOL    HW254613   5.665   8.386   2.682
50906SOL     OW54614  13.909  12.465   5.928
50906SOL    HW154615  13.830  12.451   5.875
50906SOL    HW254616  13.913  12.388   5.985
50907SOL     OW54617   4.089   3.099   7.457
50907SOL    HW154618   4.167   3.136   7.416
50907SOL    HW254619   4.121   3.052   7.533
50908SOL     OW54620  11.396   9.792   0.398
50908SOL    HW154621  11.398   9.794   0.494
50908SOL    HW254622  11.411   9.700   0.376
50909SOL     OW54623  10.595   2.807   3.966
50909SOL    HW154624  10.615   2.798   3.873
50909SOL    HW254625  10.501   2.791   3.971
50910SOL     OW54626   1.432   2.841  10.708
50910SOL    HW154627   1.494   2.805  10.771
50910SOL    HW254628   1.430   2.935  10.726
50911SOL     OW54629   7.980  11.889   0.926
50911SOL    HW154630   7.918  11.818   0.908
50911SOL    HW254631   8.066  11.846   0.925
50912SOL     OW54632   9.069   1.020   5.917
50912SOL    HW154633   9.111   1.104   5.934
50912SOL    HW254634   9.142   0.959   5.904
50913SOL     OW54635   4.767  12.064  12.662
50913SOL    HW154636   4.802  12.093  12.746
50913SOL    HW254637   4.843  12.064  12.603
50914SOL     OW54638   6.109  11.234  13.921
50914SOL    HW154639   6.164  11.289  13.865
50914SOL    HW254640   6.065  11.174  13.860
50915SOL     OW54641  14.456   4.934   7.437
50915SOL    HW154642  14.457   4.869   7.507
50915SOL    HW254643  14.543   4.926   7.397
50916SOL     OW54644   9.508   8.743   5.702
50916SOL    HW154645   9.505   8.789   5.786
50916SOL    HW254646   9.494   8.651   5.724
50917SOL     OW54647   4.395  14.686   9.136
50917SOL    HW154648   4.394  14.780   9.118
50917SOL    HW254649   4.315  14.670   9.187
50918SOL     OW54650   0.503  12.200   9.574
50918SOL    HW154651   0.436  12.267   9.562
50918SOL    HW254652   0.454  12.117   9.577
50919SOL     OW54653   6.144  12.571  14.319
50919SOL    HW154654   6.123  12.478  14.319
50919SOL    HW254655   6.205  12.582  14.246
50920SOL     OW54656   8.009   4.090   4.512
50920SOL    HW154657   8.087   4.069   4.564
50920SOL    HW254658   7.971   4.004   4.490
50921SOL     OW54659   8.265   1.655  10.906
50921SOL    HW154660   8.326   1.603  10.854
50921SOL    HW254661   8.181   1.646  10.861
50922SOL     OW54662   4.694   1.645   2.599
50922SOL    HW154663   4.657   1.700   2.530
50922SOL    HW254664   4.646   1.563   2.593
50923SOL     OW54665   7.848  10.182  13.105
50923SOL    HW154666   7.827  10.129  13.182
50923SOL    HW254667   7.940  10.161  13.086
50924SOL     OW54668   7.657   5.787  10.303
50924SOL    HW154669   7.738   5.838  10.303
50924SOL    HW254670   7.646   5.760  10.212
50925SOL     OW54671  11.591   8.249   7.229
50925SOL    HW154672  11.645   8.173   7.207
50925SOL    HW254673  11.534   8.217   7.300
50926SOL     OW54674  11.297   6.579   3.053
50926SOL    HW154675  11.215   6.604   3.011
50926SOL    HW254676  11.271   6.519   3.123
50927SOL     OW54677   2.509  11.600   6.327
50927SOL    HW154678   2.478  11.687   6.353
50927SOL    HW254679   2.603  11.613   6.310
50928SOL     OW54680   1.466   7.390  10.372
50928SOL    HW154681   1.518   7.468  10.394
50928SOL    HW254682   1.481   7.377  10.279
50929SOL     OW54683  10.484   1.367  12.922
50929SOL    HW154684  10.460   1.276  12.909
50929SOL    HW254685  10.563   1.364  12.976
50930SOL     OW54686   3.351   8.122   4.144
50930SOL    HW154687   3.351   8.214   4.116
50930SOL    HW254688   3.375   8.126   4.237
50931SOL     OW54689  13.959   0.420   7.288
50931SOL    HW154690  14.033   0.367   7.260
50931SOL    HW254691  13.977   0.440   7.380
50932SOL     OW54692   9.103   5.028   2.286
50932SOL    HW154693   9.078   4.936   2.278
50932SOL    HW254694   9.160   5.031   2.363
50933SOL     OW54695  14.543   3.196  12.574
50933SOL    HW154696  14.581   3.238  12.497
50933SOL    HW254697  14.542   3.264  12.641
50934SOL     OW54698   0.275  12.253   8.427
50934SOL    HW154699   0.289  12.199   8.350
50934SOL    HW254700   0.354  12.242   8.480
50935SOL     OW54701   6.578   9.489   5.048
50935SOL    HW154702   6.638   9.416   5.057
50935SOL    HW254703   6.633   9.567   5.056
50936SOL     OW54704  14.012   8.192   1.189
50936SOL    HW154705  14.107   8.181   1.194
50936SOL    HW254706  13.977   8.104   1.198
50937SOL     OW54707  13.050   2.449   8.544
50937SOL    HW154708  13.030   2.434   8.452
50937SOL    HW254709  13.030   2.365   8.586
50938SOL     OW54710   4.901   4.982   2.777
50938SOL    HW154711   4.933   5.010   2.691
50938SOL    HW254712   4.894   5.064   2.827
50939SOL     OW54713   6.991   0.184  11.268
50939SOL    HW154714   6.938   0.264  11.262
50939SOL    HW254715   6.966   0.145  11.351
50940SOL     OW54716  11.853  10.340  12.799
50940SOL    HW154717  11.875  10.250  12.822
50940SOL    HW254718  11.853  10.387  12.882
50941SOL     OW54719   5.838   0.216  11.285
50941SOL    HW154720   5.844   0.241  11.193
50941SOL    HW254721   5.766   0.268  11.320
50942SOL     OW54722   1.987  13.209   6.817
50942SOL    HW154723   2.054  13.242   6.757
50942SOL    HW254724   1.907  13.256   6.792
50943SOL     OW54725  10.856   5.047   9.981
50943SOL    HW154726  10.767   5.064  10.011
50943SOL    HW254727  10.890   5.134   9.957
50944SOL     OW54728   1.058  10.817  13.462
50944SOL    HW154729   1.134  10.875  13.454
50944SOL    HW254730   1.094  10.735  13.495
50945SOL     OW54731   6.988  13.517   2.496
50945SOL    HW154732   7.014  13.434   2.538
50945SOL    HW254733   6.998  13.501   2.403
50946SOL     OW54734  10.755   7.365   2.442
50946SOL    HW154735  10.754   7.276   2.477
50946SOL    HW254736  10.765   7.353   2.347
50947SOL     OW54737   4.100   0.936   1.343
50947SOL    HW154738   4.084   1.003   1.276
50947SOL    HW254739   4.073   0.854   1.301
50948SOL     OW54740   8.194  14.365  13.150
50948SOL    HW154741   8.211  14.456  13.127
50948SOL    HW254742   8.221  14.315  13.073
50949SOL     OW54743  14.319  14.853  12.939
50949SOL    HW154744  14.254   0.004  12.875
50949SOL    HW254745  14.381  14.802  12.887
50950SOL     OW54746   9.006   5.663   0.864
50950SOL    HW154747   9.051   5.738   0.824
50950SOL    HW254748   9.043   5.586   0.821
50951SOL     OW54749  12.900  10.211  14.315
50951SOL    HW154750  12.982  10.206  14.266
50951SOL    HW254751  12.853  10.132  14.289
50952SOL     OW54752   9.206   9.566   0.220
50952SOL    HW154753   9.138   9.581   0.155
50952SOL    HW254754   9.228   9.473   0.211
50953SOL     OW54755   5.327   7.937   6.037
50953SOL    HW154756   5.400   7.996   6.018
50953SOL    HW254757   5.252   7.976   5.993
50954SOL     OW54758   8.241   1.442   5.602
50954SOL    HW154759   8.270   1.524   5.642
50954SOL    HW254760   8.159   1.464   5.558
50955SOL     OW54761  10.065   3.579   0.354
50955SOL    HW154762   9.987   3.568   0.298
50955SOL    HW254763  10.127   3.626   0.298
50956SOL     OW54764  13.628  13.229   1.556
50956SOL    HW154765  13.563  13.214   1.624
50956SOL    HW254766  13.658  13.318   1.570
50957SOL     OW54767  10.136   0.419   7.416
50957SOL    HW154768  10.168   0.509   7.413
50957SOL    HW254769  10.205   0.367   7.375
50958SOL     OW54770   8.852   9.001  12.668
50958SOL    HW154771   8.805   9.062  12.724
50958SOL    HW254772   8.809   9.007  12.583
50959SOL     OW54773   9.354  11.323   1.341
50959SOL    HW154774   9.365  11.262   1.268
50959SOL    HW254775   9.346  11.266   1.418
50960SOL     OW54776   9.031  14.294   4.075
50960SOL    HW154777   9.033  14.359   4.005
50960SOL    HW254778   9.123  14.271   4.090
50961SOL     OW54779  14.403  10.966  12.105
50961SOL    HW154780  14.362  10.945  12.188
50961SOL    HW254781  14.370  11.054  12.084
50962SOL     OW54782   6.583   5.495  13.473
50962SOL    HW154783   6.513   5.434  13.448
50962SOL    HW254784   6.632   5.448  13.540
50963SOL     OW54785   5.464  12.559   6.241
50963SOL    HW154786   5.412  12.606   6.305
50963SOL    HW254787   5.434  12.592   6.156
50964SOL     OW54788   9.776   9.913   4.446
50964SOL    HW154789   9.730   9.957   4.375
50964SOL    HW254790   9.723   9.836   4.466
50965SOL     OW54791   2.917   9.590   4.637
50965SOL    HW154792   2.868   9.543   4.705
50965SOL    HW254793   2.922   9.680   4.668
50966SOL     OW54794  11.582   0.853  13.167
50966SOL    HW154795  11.635   0.792  13.219
50966SOL    HW254796  11.569   0.929  13.224
50967SOL     OW54797   1.355   6.284  13.844
50967SOL    HW154798   1.444   6.305  13.817
50967SOL    HW254799   1.355   6.297  13.938
50968SOL     OW54800   4.912   6.492   8.426
50968SOL    HW154801   4.936   6.429   8.493
50968SOL    HW254802   4.991   6.544   8.412
50969SOL     OW54803   9.899   1.186   3.569
50969SOL    HW154804   9.901   1.103   3.522
50969SOL    HW254805   9.823   1.232   3.533
50970SOL     OW54806   2.015   0.735   9.681
50970SOL    HW154807   1.986   0.780   9.761
50970SOL    HW254808   2.056   0.655   9.711
50971SOL     OW54809   9.554  14.205  12.446
50971SOL    HW154810   9.534  14.291  12.408
50971SOL    HW254811   9.624  14.223  12.509
50972SOL     OW54812   6.220   3.096   9.295
50972SOL    HW154813   6.166   3.174   9.303
50972SOL    HW254814   6.182   3.034   9.357
50973SOL     OW54815  10.804   2.505  11.366
50973SOL    HW154816  10.818   2.581  11.311
50973SOL    HW254817  10.832   2.431  11.313
50974SOL     OW54818   9.388   5.465   3.209
50974SOL    HW154819   9.397   5.507   3.123
50974SOL    HW254820   9.296   5.474   3.231
50975SOL     OW54821   8.089   5.260   4.727
50975SOL    HW154822   8.053   5.246   4.640
50975SOL    HW254823   8.041   5.337   4.760
50976SOL     OW54824   0.528   1.484   0.511
50976SOL    HW154825   0.593   1.430   0.467
50976SOL    HW254826   0.523   1.450   0.600
50977SOL     OW54827   6.363  13.133  12.953
50977SOL    HW154828   6.443  13.106  12.907
50977SOL    HW254829   6.385  13.218  12.991
50978SOL     OW54830   6.026   1.848   9.849
50978SOL    HW154831   6.028   1.931   9.896
50978SOL    HW254832   6.085   1.860   9.775
50979SOL     OW54833  13.689  13.545   6.345
50979SOL    HW154834  13.615  13.541   6.284
50979SOL    HW254835  13.651  13.524   6.430
50980SOL     OW54836   2.575   3.993   8.065
50980SOL    HW154837   2.609   4.026   8.149
50980SOL    HW254838   2.489   4.034   8.057
50981SOL     OW54839   1.166  10.781  12.290
50981SOL    HW154840   1.104  10.792  12.218
50981SOL    HW254841   1.179  10.869  12.325
50982SOL     OW54842  13.394   0.574   0.413
50982SOL    HW154843  13.305   0.584   0.379
50982SOL    HW254844  13.423   0.663   0.432
50983SOL     OW54845   3.777  12.980   8.346
50983SOL    HW154846   3.753  12.941   8.430
50983SOL    HW254847   3.753  12.914   8.281
50984SOL     OW54848   3.896   7.553   7.261
50984SOL    HW154849   3.838   7.603   7.320
50984SOL    HW254850   3.889   7.599   7.177
50985SOL     OW54851  13.562   0.831   9.764
50985SOL    HW154852  13.634   0.893   9.749
50985SOL    HW254853  13.561   0.819   9.859
50986SOL     OW54854  10.650  11.903   9.000
50986SOL    HW154855  10.655  11.821   8.952
50986SOL    HW254856  10.562  11.937   8.982
50987SOL     OW54857   1.220  13.003   5.649
50987SOL    HW154858   1.230  12.921   5.697
50987SOL    HW254859   1.302  13.014   5.601
50988SOL     OW54860  10.739  12.752   8.467
50988SOL    HW154861  10.796  12.676   8.461
50988SOL    HW254862  10.799  12.826   8.476
50989SOL     OW54863  10.690  13.927   8.582
50989SOL    HW154864  10.746  14.004   8.579
50989SOL    HW254865  10.666  13.910   8.491
50990SOL     OW54866   6.663  14.259  12.839
50990SOL    HW154867   6.570  14.234  12.848
50990SOL    HW254868   6.695  14.207  12.766
50991SOL     OW54869   4.405  10.701   7.126
50991SOL    HW154870   4.419  10.606   7.133
50991SOL    HW254871   4.323  10.709   7.078
50992SOL     OW54872  10.709  14.431  10.103
50992SOL    HW154873  10.751  14.463  10.183
50992SOL    HW254874  10.618  14.417  10.128
50993SOL     OW54875   4.666   2.394   1.013
50993SOL    HW154876   4.683   2.486   1.036
50993SOL    HW254877   4.658   2.395   0.918
50994SOL     OW54878   3.094   4.465   5.289
50994SOL    HW154879   3.169   4.418   5.325
50994SOL    HW254880   3.049   4.400   5.234
50995SOL     OW54881   2.224   4.141   6.542
50995SOL    HW154882   2.251   4.049   6.539
50995SOL    HW254883   2.165   4.151   6.467
50996SOL     OW54884  11.025  13.382  11.491
50996SOL    HW154885  11.011  13.450  11.426
50996SOL    HW254886  11.112  13.400  11.526
50997SOL     OW54887  14.796   7.615   6.211
50997SOL    HW154888  14.728   7.626   6.145
50997SOL    HW254889  14.846   7.697   6.208
50998SOL     OW54890   1.732  13.166  14.151
50998SOL    HW154891   1.668  13.115  14.101
50998SOL    HW254892   1.693  13.253  14.159
50999SOL     OW54893   2.950   0.787   0.228
50999SOL    HW154894   3.023   0.731   0.252
50999SOL    HW254895   2.983   0.876   0.235
51000SOL     OW54896   2.482   0.068   9.880
51000SOL    HW154897   2.484   0.074   9.975
51000SOL    HW254898   2.390   0.084   9.857
51001SOL     OW54899   0.789   1.073  11.259
51001SOL    HW154900   0.736   1.130  11.204
51001SOL    HW254901   0.727   1.035  11.321
51002SOL     OW54902   6.429   6.221  14.615
51002SOL    HW154903   6.391   6.191  14.532
51002SOL    HW254904   6.356   6.219  14.676
51003SOL     OW54905  14.355   5.985   4.251
51003SOL    HW154906  14.395   6.004   4.336
51003SOL    HW254907  14.261   5.982   4.269
51004SOL     OW54908   7.686  12.280   2.581
51004SOL    HW154909   7.751  12.337   2.540
51004SOL    HW254910   7.735  12.202   2.606
51005SOL     OW54911  10.396  13.525  10.838
51005SOL    HW154912  10.412  13.513  10.745
51005SOL    HW254913  10.301  13.519  10.847
51006SOL     OW54914   6.415  12.193   4.826
51006SOL    HW154915   6.361  12.267   4.855
51006SOL    HW254916   6.462  12.226   4.750
51007SOL     OW54917   9.948  12.995   7.957
51007SOL    HW154918  10.041  12.989   7.980
51007SOL    HW254919   9.908  12.918   7.997
51008SOL     OW54920   1.640   4.673   0.497
51008SOL    HW154921   1.647   4.614   0.573
51008SOL    HW254922   1.546   4.678   0.480
51009SOL     OW54923   1.350   2.294  10.918
51009SOL    HW154924   1.306   2.284  10.834
51009SOL    HW254925   1.308   2.229  10.975
51010SOL     OW54926  12.598  10.595   0.706
51010SOL    HW154927  12.674  10.629   0.753
51010SOL    HW254928  12.523  10.633   0.752
51011SOL     OW54929  10.119   4.255  13.505
51011SOL    HW154930  10.064   4.182  13.475
51011SOL    HW254931  10.207   4.218  13.506
51012SOL     OW54932   5.624   6.008   6.557
51012SOL    HW154933   5.670   6.082   6.518
51012SOL    HW254934   5.535   6.040   6.570
51013SOL     OW54935   6.045  11.514   9.555
51013SOL    HW154936   6.054  11.577   9.627
51013SOL    HW254937   5.993  11.560   9.489
51014SOL     OW54938   3.719   2.235   5.104
51014SOL    HW154939   3.686   2.216   5.016
51014SOL    HW254940   3.766   2.155   5.129
51015SOL     OW54941   9.432  12.749   8.642
51015SOL    HW154942   9.402  12.726   8.730
51015SOL    HW254943   9.483  12.829   8.654
51016SOL     OW54944  14.841   8.595   7.693
51016SOL    HW154945   0.054   8.618   7.690
51016SOL    HW254946  14.805   8.651   7.762
51017SOL     OW54947   2.489  13.461   2.875
51017SOL    HW154948   2.479  13.379   2.827
51017SOL    HW254949   2.488  13.437   2.967
51018SOL     OW54950   7.236  13.620   4.199
51018SOL    HW154951   7.290  13.608   4.120
51018SOL    HW254952   7.147  13.628   4.166
51019SOL     OW54953   8.658   5.149  11.154
51019SOL    HW154954   8.656   5.092  11.077
51019SOL    HW254955   8.747   5.184  11.156
51020SOL     OW54956   6.260   9.297  12.034
51020SOL    HW154957   6.344   9.251  12.035
51020SOL    HW254958   6.257   9.339  11.949
51021SOL     OW54959   1.514   8.197  10.186
51021SOL    HW154960   1.607   8.183  10.201
51021SOL    HW254961   1.472   8.171  10.267
51022SOL     OW54962  11.663   4.329   3.284
51022SOL    HW154963  11.720   4.360   3.355
51022SOL    HW254964  11.588   4.389   3.287
51023SOL     OW54965  12.807   7.865  12.329
51023SOL    HW154966  12.796   7.959  12.316
51023SOL    HW254967  12.754   7.824  12.261
51024SOL     OW54968   4.321  11.664   4.112
51024SOL    HW154969   4.338  11.717   4.034
51024SOL    HW254970   4.301  11.728   4.181
51025SOL     OW54971   1.292   0.154   9.647
51025SOL    HW154972   1.340   0.210   9.587
51025SOL    HW254973   1.342   0.158   9.729
51026SOL     OW54974   4.414   8.737   1.031
51026SOL    HW154975   4.359   8.659   1.019
51026SOL    HW254976   4.463   8.745   0.949
51027SOL     OW54977  11.011   8.639   7.233
51027SOL    HW154978  10.948   8.709   7.250
51027SOL    HW254979  10.982   8.599   7.151
51028SOL     OW54980   0.160   7.402   4.495
51028SOL    HW154981   0.188   7.373   4.408
51028SOL    HW254982   0.095   7.469   4.478
51029SOL     OW54983   2.005  12.987   4.534
51029SOL    HW154984   1.997  12.902   4.576
51029SOL    HW254985   1.984  13.050   4.602
51030SOL     OW54986   2.466  14.409  14.303
51030SOL    HW154987   2.534  14.361  14.350
51030SOL    HW254988   2.453  14.489  14.353
51031SOL     OW54989  14.525   9.510   9.711
51031SOL    HW154990  14.523   9.485   9.804
51031SOL    HW254991  14.593   9.455   9.673
51032SOL     OW54992   3.921   1.210   9.554
51032SOL    HW154993   3.935   1.290   9.503
51032SOL    HW254994   3.826   1.208   9.569
51033SOL     OW54995   5.179   4.416  13.386
51033SOL    HW154996   5.146   4.482  13.325
51033SOL    HW254997   5.261   4.386  13.347
51034SOL     OW54998  10.350   7.992  13.683
51034SOL    HW154999  10.349   8.066  13.744
51034SOL    HW255000  10.263   7.952  13.693
51035SOL     OW55001   3.422   9.655  11.997
51035SOL    HW155002   3.368   9.592  12.046
51035SOL    HW255003   3.482   9.600  11.946
51036SOL     OW55004  13.284  14.261  12.940
51036SOL    HW155005  13.350  14.263  13.010
51036SOL    HW255006  13.231  14.184  12.959
51037SOL     OW55007  13.267   1.952  11.222
51037SOL    HW155008  13.348   1.998  11.201
51037SOL    HW255009  13.206   2.021  11.249
51038SOL     OW55010   3.422   5.716  10.191
51038SOL    HW155011   3.369   5.737  10.115
51038SOL    HW255012   3.426   5.620  10.192
51039SOL     OW55013   7.760   2.803   5.240
51039SOL    HW155014   7.711   2.813   5.158
51039SOL    HW255015   7.781   2.893   5.266
51040SOL     OW55016  14.440   0.769   8.652
51040SOL    HW155017  14.422   0.825   8.728
51040SOL    HW255018  14.478   0.828   8.587
51041SOL     OW55019   0.751  10.128   4.770
51041SOL    HW155020   0.790  10.151   4.686
51041SOL    HW255021   0.821  10.079   4.815
51042SOL     OW55022  13.654  11.921   0.394
51042SOL    HW155023  13.615  11.996   0.349
51042SOL    HW255024  13.735  11.903   0.346
51043SOL     OW55025   9.559   2.643   0.356
51043SOL    HW155026   9.526   2.664   0.269
51043SOL    HW255027   9.553   2.725   0.405
51044SOL     OW55028  11.252   7.569   2.197
51044SOL    HW155029  11.281   7.494   2.145
51044SOL    HW255030  11.158   7.576   2.180
51045SOL     OW55031   4.359  14.294   5.946
51045SOL    HW155032   4.435  14.349   5.927
51045SOL    HW255033   4.378  14.254   6.031
51046SOL     OW55034  11.200   6.384   6.568
51046SOL    HW155035  11.152   6.457   6.528
51046SOL    HW255036  11.287   6.389   6.530
51047SOL     OW55037  10.452  11.175   9.407
51047SOL    HW155038  10.490  11.256   9.439
51047SOL    HW255039  10.454  11.184   9.311
51048SOL     OW55040   7.021  12.367  10.142
51048SOL    HW155041   7.027  12.346  10.235
51048SOL    HW255042   7.065  12.451  10.133
51049SOL     OW55043   2.760   8.258  14.080
51049SOL    HW155044   2.689   8.293  14.135
51049SOL    HW255045   2.772   8.325  14.013
51050SOL     OW55046   2.615  12.761  10.552
51050SOL    HW155047   2.646  12.838  10.503
51050SOL    HW255048   2.584  12.700  10.485
51051SOL     OW55049   2.241   1.668  11.193
51051SOL    HW155050   2.300   1.629  11.129
51051SOL    HW255051   2.211   1.594  11.246
51052SOL     OW55052  12.589  14.048  11.964
51052SOL    HW155053  12.672  14.004  11.944
51052SOL    HW255054  12.594  14.131  11.915
51053SOL     OW55055   3.698   4.792  13.408
51053SOL    HW155056   3.726   4.701  13.406
51053SOL    HW255057   3.762   4.837  13.463
51054SOL     OW55058  12.914  14.199   1.429
51054SOL    HW155059  12.981  14.267   1.428
51054SOL    HW255060  12.955  14.126   1.476
51055SOL     OW55061   8.024   0.317   2.812
51055SOL    HW155062   7.960   0.379   2.777
51055SOL    HW255063   8.109   0.359   2.797
51056SOL     OW55064   9.975   1.374   1.397
51056SOL    HW155065   9.908   1.402   1.335
51056SOL    HW255066   9.986   1.280   1.380
51057SOL     OW55067   9.434   2.014   7.420
51057SOL    HW155068   9.427   1.988   7.512
51057SOL    HW255069   9.355   2.066   7.404
51058SOL     OW55070   7.908   4.567  12.266
51058SOL    HW155071   7.989   4.613  12.289
51058SOL    HW255072   7.843   4.636  12.256
51059SOL     OW55073  12.388   9.505   5.083
51059SOL    HW155074  12.473   9.545   5.097
51059SOL    HW255075  12.363   9.532   4.994
51060SOL     OW55076   6.784   8.812   8.929
51060SOL    HW155077   6.854   8.779   8.873
51060SOL    HW255078   6.703   8.781   8.887
51061SOL     OW55079  14.185  12.400   9.871
51061SOL    HW155080  14.185  12.315   9.827
51061SOL    HW255081  14.277  12.424   9.878
51062SOL     OW55082  12.337   8.267   7.336
51062SOL    HW155083  12.409   8.299   7.390
51062SOL    HW255084  12.347   8.314   7.253
51063SOL     OW55085   9.403   2.526   0.035
51063SOL    HW155086   9.450   2.609   0.037
51063SOL    HW255087   9.470   2.460   0.054
51064SOL     OW55088  13.339   3.505  11.653
51064SOL    HW155089  13.315   3.441  11.586
51064SOL    HW255090  13.431   3.524  11.636
51065SOL     OW55091   3.065   8.381   5.167
51065SOL    HW155092   3.012   8.341   5.098
51065SOL    HW255093   3.148   8.404   5.124
51066SOL     OW55094   1.463  14.501  10.757
51066SOL    HW155095   1.458  14.498  10.852
51066SOL    HW255096   1.514  14.423  10.734
51067SOL     OW55097   9.621  10.754  14.805
51067SOL    HW155098   9.712  10.726  14.813
51067SOL    HW255099   9.570  10.673  14.804
51068SOL     OW55100  12.641   5.500  13.672
51068SOL    HW155101  12.689   5.427  13.710
51068SOL    HW255102  12.568   5.515  13.733
51069SOL     OW55103   1.480  10.442  10.702
51069SOL    HW155104   1.544  10.376  10.677
51069SOL    HW255105   1.409  10.392  10.742
51070SOL     OW55106   9.654  13.982   7.336
51070SOL    HW155107   9.730  13.925   7.350
51070SOL    HW255108   9.689  14.058   7.290
51071SOL     OW55109  12.139  12.826  12.670
51071SOL    HW155110  12.053  12.788  12.692
51071SOL    HW255111  12.198  12.750  12.668
51072SOL     OW55112   3.269   0.075  12.540
51072SOL    HW155113   3.195   0.136  12.544
51072SOL    HW255114   3.327   0.113  12.474
51073SOL     OW55115  10.380   0.458  12.490
51073SOL    HW155116  10.346   0.402  12.559
51073SOL    HW255117  10.310   0.461  12.425
51074SOL     OW55118   9.748   2.200   3.174
51074SOL    HW155119   9.674   2.152   3.209
51074SOL    HW255120   9.792   2.237   3.251
51075SOL     OW55121   4.409   1.739   3.440
51075SOL    HW155122   4.401   1.831   3.416
51075SOL    HW255123   4.495   1.731   3.479
51076SOL     OW55124  10.611   9.478   6.241
51076SOL    HW155125  10.651   9.535   6.175
51076SOL    HW255126  10.586   9.538   6.312
51077SOL     OW55127   6.797   1.548   2.171
51077SOL    HW155128   6.837   1.547   2.258
51077SOL    HW255129   6.756   1.635   2.165
51078SOL     OW55130   3.599   2.463   8.942
51078SOL    HW155131   3.523   2.506   8.980
51078SOL    HW255132   3.578   2.453   8.849
51079SOL     OW55133   7.094   7.837   0.100
51079SOL    HW155134   7.172   7.884   0.130
51079SOL    HW255135   7.023   7.872   0.154
51080SOL     OW55136  10.782  14.691  11.145
51080SOL    HW155137  10.800  14.761  11.082
51080SOL    HW255138  10.864  14.641  11.148
51081SOL     OW55139  12.325   5.469   7.331
51081SOL    HW155140  12.237   5.474   7.368
51081SOL    HW255141  12.320   5.401   7.264
51082SOL     OW55142   8.788   0.050   8.137
51082SOL    HW155143   8.771   0.137   8.173
51082SOL    HW255144   8.747   0.051   8.050
51083SOL     OW55145   8.339   8.991  13.666
51083SOL    HW155146   8.419   8.990  13.613
51083SOL    HW255147   8.344   8.911  13.719
51084SOL     OW55148   5.824   1.690   0.631
51084SOL    HW155149   5.834   1.784   0.648
51084SOL    HW255150   5.895   1.669   0.570
51085SOL     OW55151   8.610   2.768  12.673
51085SOL    HW155152   8.589   2.692  12.727
51085SOL    HW255153   8.574   2.842  12.721
51086SOL     OW55154  10.164  11.359   9.508
51086SOL    HW155155  10.205  11.292   9.454
51086SOL    HW255156  10.088  11.316   9.548
51087SOL     OW55157   3.663   4.121   8.289
51087SOL    HW155158   3.642   4.037   8.249
51087SOL    HW255159   3.681   4.100   8.381
51088SOL     OW55160   5.631   7.313   0.045
51088SOL    HW155161   5.620   7.219   0.039
51088SOL    HW255162   5.633   7.331   0.140
51089SOL     OW55163  11.064   5.032   5.056
51089SOL    HW155164  11.077   4.963   5.121
51089SOL    HW255165  10.969   5.035   5.042
51090SOL     OW55166   8.680   1.455   2.942
51090SOL    HW155167   8.726   1.391   2.887
51090SOL    HW255168   8.591   1.457   2.906
51091SOL     OW55169  11.704   7.049   3.325
51091SOL    HW155170  11.748   6.966   3.342
51091SOL    HW255171  11.763   7.096   3.266
51092SOL     OW55172   5.634  14.696  12.624
51092SOL    HW155173   5.600  14.625  12.677
51092SOL    HW255174   5.724  14.708  12.655
51093SOL     OW55175  10.910   8.656   5.970
51093SOL    HW155176  10.851   8.608   6.028
51093SOL    HW255177  10.852   8.697   5.905
51094SOL     OW55178   1.789  14.418   1.398
51094SOL    HW155179   1.782  14.513   1.409
51094SOL    HW255180   1.882  14.400   1.406
51095SOL     OW55181   6.212  10.461  11.522
51095SOL    HW155182   6.118  10.445  11.517
51095SOL    HW255183   6.253  10.379  11.494
51096SOL     OW55184   5.942   7.442  13.751
51096SOL    HW155185   5.917   7.513  13.691
51096SOL    HW255186   5.896   7.365  13.717
51097SOL     OW55187   4.871   9.542   0.279
51097SOL    HW155188   4.868   9.564   0.372
51097SOL    HW255189   4.958   9.570   0.250
51098SOL     OW55190   5.123   7.480  11.124
51098SOL    HW155191   5.217   7.484  11.103
51098SOL    HW255192   5.082   7.539  11.061
51099SOL     OW55193   1.768   6.792   8.416
51099SOL    HW155194   1.835   6.753   8.359
51099SOL    HW255195   1.812   6.806   8.499
51100SOL     OW55196  10.151  12.331  10.664
51100SOL    HW155197  10.141  12.378  10.581
51100SOL    HW255198  10.237  12.289  10.657
51101SOL     OW55199   4.766   7.277   6.375
51101SOL    HW155200   4.700   7.339   6.344
51101SOL    HW255201   4.783   7.221   6.300
51102SOL     OW55202  14.218   5.840   2.194
51102SOL    HW155203  14.310   5.862   2.209
51102SOL    HW255204  14.189   5.803   2.278
51103SOL     OW55205   5.515   1.516   2.582
51103SOL    HW155206   5.589   1.463   2.612
51103SOL    HW255207   5.463   1.532   2.661
51104SOL     OW55208   1.884   3.902   5.002
51104SOL    HW155209   1.890   3.981   4.949
51104SOL    HW255210   1.890   3.933   5.092
51105SOL     OW55211   4.590  14.488   7.344
51105SOL    HW155212   4.585  14.577   7.310
51105SOL    HW255213   4.679  14.459   7.322
51106SOL     OW55214  10.198   6.343  10.733
51106SOL    HW155215  10.210   6.248  10.727
51106SOL    HW255216  10.226   6.375  10.647
51107SOL     OW55217   1.822   1.136   9.240
51107SOL    HW155218   1.843   1.065   9.180
51107SOL    HW255219   1.853   1.215   9.196
51108SOL     OW55220  10.738   2.891  10.370
51108SOL    HW155221  10.712   2.812  10.323
51108SOL    HW255222  10.656   2.936  10.389
51109SOL     OW55223   0.398   8.872  11.872
51109SOL    HW155224   0.472   8.847  11.927
51109SOL    HW255225   0.322   8.833  11.915
51110SOL     OW55226  12.071   3.427   8.360
51110SOL    HW155227  12.133   3.362   8.329
51110SOL    HW255228  12.112   3.463   8.439
51111SOL     OW55229  11.704   1.025   6.716
51111SOL    HW155230  11.677   1.115   6.699
51111SOL    HW255231  11.659   0.974   6.649
51112SOL     OW55232   4.737  14.482   8.673
51112SOL    HW155233   4.752  14.538   8.597
51112SOL    HW255234   4.787  14.524   8.744
51113SOL     OW55235   1.373  14.086  11.703
51113SOL    HW155236   1.337  14.144  11.769
51113SOL    HW255237   1.391  14.004  11.750
51114SOL     OW55238   2.532   6.956  13.896
51114SOL    HW155239   2.613   6.949  13.947
51114SOL    HW255240   2.505   7.047  13.907
51115SOL     OW55241   6.978  12.237  11.558
51115SOL    HW155242   7.030  12.302  11.512
51115SOL    HW255243   6.893  12.279  11.573
51116SOL     OW55244  13.859   3.406  14.750
51116SOL    HW155245  13.906   3.326  14.773
51116SOL    HW255246  13.775   3.376  14.716
51117SOL     OW55247   1.816  12.280  13.027
51117SOL    HW155248   1.794  12.210  12.965
51117SOL    HW255249   1.814  12.237  13.112
51118SOL     OW55250   2.686   6.907  10.258
51118SOL    HW155251   2.644   6.980  10.303
51118SOL    HW255252   2.619   6.839  10.254
51119SOL     OW55253  12.362   7.227   1.485
51119SOL    HW155254  12.408   7.172   1.422
51119SOL    HW255255  12.404   7.313   1.478
51120SOL     OW55256  12.824   5.264   1.047
51120SOL    HW155257  12.732   5.242   1.030
51120SOL    HW255258  12.853   5.196   1.109
51121SOL     OW55259   9.768  10.994  11.091
51121SOL    HW155260   9.705  11.066  11.085
51121SOL    HW255261   9.771  10.971  11.184
51122SOL     OW55262   8.986  12.465   7.525
51122SOL    HW155263   8.993  12.412   7.445
51122SOL    HW255264   8.893  12.463   7.547
51123SOL     OW55265   2.356   6.389  12.079
51123SOL    HW155266   2.380   6.358  11.992
51123SOL    HW255267   2.270   6.350  12.096
51124SOL     OW55268   7.467   0.332   2.984
51124SOL    HW155269   7.510   0.382   3.054
51124SOL    HW255270   7.375   0.357   2.990
51125SOL     OW55271   3.030   5.067   8.324
51125SOL    HW155272   3.074   5.032   8.402
51125SOL    HW255273   3.009   5.157   8.347
51126SOL     OW55274  10.534  12.529  10.655
51126SOL    HW155275  10.439  12.545  10.653
51126SOL    HW255276  10.549  12.486  10.739
51127SOL     OW55277  12.219   7.412   8.564
51127SOL    HW155278  12.278   7.370   8.502
51127SOL    HW255279  12.154   7.456   8.508
51128SOL     OW55280  12.457  12.100  13.044
51128SOL    HW155281  12.398  12.098  12.968
51128SOL    HW255282  12.407  12.147  13.111
51129SOL     OW55283   0.755   4.610   0.703
51129SOL    HW155284   0.795   4.559   0.632
51129SOL    HW255285   0.779   4.701   0.683
51130SOL     OW55286  11.440   5.520   3.111
51130SOL    HW155287  11.370   5.458   3.128
51130SOL    HW255288  11.511   5.493   3.170
51131SOL     OW55289  10.359   8.942   6.973
51131SOL    HW155290  10.272   8.938   6.932
51131SOL    HW255291  10.345   8.904   7.060
51132SOL     OW55292   1.182   7.997   8.826
51132SOL    HW155293   1.269   8.037   8.833
51132SOL    HW255294   1.161   7.969   8.915
51133SOL     OW55295   6.647   3.778   0.885
51133SOL    HW155296   6.567   3.761   0.835
51133SOL    HW255297   6.712   3.802   0.819
51134SOL     OW55298  14.091   5.655   6.122
51134SOL    HW155299  14.030   5.658   6.196
51134SOL    HW255300  14.132   5.742   6.121
51135SOL     OW55301   2.958   4.439   2.551
51135SOL    HW155302   2.868   4.416   2.576
51135SOL    HW255303   3.008   4.358   2.565
51136SOL     OW55304   2.293   0.434   5.572
51136SOL    HW155305   2.355   0.391   5.631
51136SOL    HW255306   2.299   0.527   5.595
51137SOL     OW55307   9.729   2.989   2.720
51137SOL    HW155308   9.703   3.071   2.679
51137SOL    HW255309   9.752   2.931   2.647
51138SOL     OW55310  10.102   4.450   4.713
51138SOL    HW155311  10.161   4.380   4.684
51138SOL    HW255312  10.094   4.507   4.637
51139SOL     OW55313   4.893  13.842  12.853
51139SOL    HW155314   4.908  13.774  12.787
51139SOL    HW255315   4.875  13.793  12.934
51140SOL     OW55316  10.101   7.650   7.584
51140SOL    HW155317  10.163   7.669   7.654
51140SOL    HW255318  10.021   7.621   7.629
51141SOL     OW55319   5.913   2.987   3.543
51141SOL    HW155320   5.997   2.968   3.585
51141SOL    HW255321   5.848   2.960   3.608
51142SOL     OW55322   8.937  12.445   6.484
51142SOL    HW155323   8.999  12.510   6.517
51142SOL    HW255324   8.877  12.494   6.428
51143SOL     OW55325   6.153   5.770   6.847
51143SOL    HW155326   6.077   5.718   6.818
51143SOL    HW255327   6.176   5.733   6.932
51144SOL     OW55328  14.332  13.497  12.824
51144SOL    HW155329  14.352  13.484  12.917
51144SOL    HW255330  14.393  13.566  12.796
51145SOL     OW55331   0.160   0.484   5.799
51145SOL    HW155332   0.084   0.491   5.741
51145SOL    HW255333   0.214   0.559   5.776
51146SOL     OW55334  14.360  12.889   6.762
51146SOL    HW155335  14.428  12.899   6.828
51146SOL    HW255336  14.315  12.973   6.761
51147SOL     OW55337   0.503   3.239   4.855
51147SOL    HW155338   0.547   3.179   4.916
51147SOL    HW255339   0.507   3.195   4.770
51148SOL     OW55340   5.715  11.339   7.790
51148SOL    HW155341   5.658  11.387   7.730
51148SOL    HW255342   5.656  11.305   7.857
51149SOL     OW55343   1.086   5.203  12.506
51149SOL    HW155344   1.071   5.280  12.451
51149SOL    HW255345   1.069   5.129  12.448
51150SOL     OW55346  12.369   5.096  10.103
51150SOL    HW155347  12.432   5.164  10.077
51150SOL    HW255348  12.361   5.106  10.198
51151SOL     OW55349   7.651   2.562   8.119
51151SOL    HW155350   7.621   2.622   8.051
51151SOL    HW255351   7.598   2.483   8.107
51152SOL     OW55352   1.047   7.651   1.863
51152SOL    HW155353   1.066   7.625   1.773
51152SOL    HW255354   0.951   7.646   1.869
51153SOL     OW55355  12.837   4.025   4.380
51153SOL    HW155356  12.775   4.082   4.426
51153SOL    HW255357  12.816   3.937   4.411
51154SOL     OW55358   9.184  13.360  10.549
51154SOL    HW155359   9.179  13.338  10.642
51154SOL    HW255360   9.097  13.340  10.515
51155SOL     OW55361   2.777   6.329  10.192
51155SOL    HW155362   2.736   6.411  10.165
51155SOL    HW255363   2.858   6.324  10.141
51156SOL     OW55364   9.327   2.436  14.023
51156SOL    HW155365   9.309   2.530  14.011
51156SOL    HW255366   9.405   2.420  13.969
51157SOL     OW55367   5.725   9.482   1.871
51157SOL    HW155368   5.770   9.566   1.869
51157SOL    HW255369   5.757   9.440   1.951
51158SOL     OW55370   5.033  11.976   4.962
51158SOL    HW155371   5.118  11.971   5.005
51158SOL    HW255372   4.995  12.058   4.995
51159SOL     OW55373  14.169   4.049   8.834
51159SOL    HW155374  14.150   4.050   8.928
51159SOL    HW255375  14.196   4.139   8.814
51160SOL     OW55376   5.181  10.511   2.332
51160SOL    HW155377   5.111  10.571   2.307
51160SOL    HW255378   5.145  10.424   2.316
51161SOL     OW55379   7.261   4.799   5.775
51161SOL    HW155380   7.184   4.824   5.724
51161SOL    HW255381   7.335   4.819   5.718
51162SOL     OW55382   8.798  10.228   6.704
51162SOL    HW155383   8.760  10.218   6.617
51162SOL    HW255384   8.731  10.275   6.754
51163SOL     OW55385   5.939   1.299   2.163
51163SOL    HW155386   5.929   1.390   2.135
51163SOL    HW255387   5.862   1.281   2.217
51164SOL     OW55388   7.330   7.977   6.176
51164SOL    HW155389   7.236   7.982   6.156
51164SOL    HW255390   7.371   7.963   6.091
51165SOL     OW55391   7.138   1.770   2.012
51165SOL    HW155392   7.165   1.859   1.987
51165SOL    HW255393   7.096   1.735   1.934
51166SOL     OW55394   2.503   4.780   4.543
51166SOL    HW155395   2.560   4.781   4.620
51166SOL    HW255396   2.468   4.691   4.540
51167SOL     OW55397   2.243   0.421   3.366
51167SOL    HW155398   2.310   0.481   3.332
51167SOL    HW255399   2.286   0.336   3.371
51168SOL     OW55400   2.670   0.633   6.035
51168SOL    HW155401   2.756   0.670   6.052
51168SOL    HW255402   2.648   0.661   5.946
51169SOL     OW55403  13.130  10.972   4.461
51169SOL    HW155404  13.143  10.993   4.554
51169SOL    HW255405  13.045  11.009   4.440
51170SOL     OW55406   8.906   4.309  13.388
51170SOL    HW155407   8.927   4.322  13.481
51170SOL    HW255408   8.983   4.342  13.341
51171SOL     OW55409   0.137  12.306  14.486
51171SOL    HW155410   0.133  12.306  14.391
51171SOL    HW255411   0.067  12.366  14.513
51172SOL     OW55412  13.025   5.172   0.382
51172SOL    HW155413  13.044   5.085   0.415
51172SOL    HW255414  12.989   5.219   0.458
51173SOL     OW55415   1.447  13.258  10.905
51173SOL    HW155416   1.430  13.280  10.813
51173SOL    HW255417   1.527  13.305  10.926
51174SOL     OW55418  12.053   2.458   7.573
51174SOL    HW155419  12.070   2.368   7.546
51174SOL    HW255420  11.985   2.488   7.513
51175SOL     OW55421   1.428   9.331   5.801
51175SOL    HW155422   1.473   9.322   5.885
51175SOL    HW255423   1.345   9.284   5.813
51176SOL     OW55424  14.770  10.996  13.769
51176SOL    HW155425  14.771  10.986  13.674
51176SOL    HW255426  14.819  11.076  13.786
51177SOL     OW55427   0.000  13.412   5.719
51177SOL    HW155428  14.843  13.486   5.768
51177SOL    HW255429  14.808  13.382   5.663
51178SOL     OW55430   4.591  11.469   7.584
51178SOL    HW155431   4.654  11.473   7.512
51178SOL    HW255432   4.570  11.560   7.604
51179SOL     OW55433   8.423   4.069  10.702
51179SOL    HW155434   8.448   4.155  10.669
51179SOL    HW255435   8.466   4.007  10.643
51180SOL     OW55436   4.334  13.853   6.257
51180SOL    HW155437   4.428  13.867   6.256
51180SOL    HW255438   4.316  13.798   6.182
51181SOL     OW55439   4.320  12.189  10.966
51181SOL    HW155440   4.229  12.162  10.963
51181SOL    HW255441   4.363  12.138  10.897
51182SOL     OW55442  11.411   2.580  10.353
51182SOL    HW155443  11.422   2.486  10.340
51182SOL    HW255444  11.496   2.610  10.385
51183SOL     OW55445  11.159   0.950  10.252
51183SOL    HW155446  11.152   1.039  10.285
51183SOL    HW255447  11.089   0.942  10.188
51184SOL     OW55448  10.016  13.455   9.365
51184SOL    HW155449  10.019  13.449   9.269
51184SOL    HW255450  10.092  13.405   9.394
51185SOL     OW55451  10.293  13.792   6.821
51185SOL    HW155452  10.379  13.828   6.797
51185SOL    HW255453  10.279  13.824   6.910
51186SOL     OW55454   0.528  12.944   8.826
51186SOL    HW155455   0.452  12.997   8.850
51186SOL    HW255456   0.494  12.882   8.761
51187SOL     OW55457   8.285   1.892  14.879
51187SOL    HW155458   8.366   1.875   0.047
51187SOL    HW255459   8.300   1.976  14.837
51188SOL     OW55460  10.338   8.432   0.967
51188SOL    HW155461  10.392   8.398   0.895
51188SOL    HW255462  10.401   8.468   1.029
51189SOL     OW55463   2.131   0.643   4.154
51189SOL    HW155464   2.165   0.694   4.228
51189SOL    HW255465   2.077   0.575   4.195
51190SOL     OW55466  12.377   2.680  13.410
51190SOL    HW155467  12.301   2.738  13.411
51190SOL    HW255468  12.418   2.691  13.496
51191SOL     OW55469   0.354   7.595   5.229
51191SOL    HW155470   0.305   7.526   5.274
51191SOL    HW255471   0.298   7.672   5.234
51192SOL     OW55472   5.995   4.033   9.563
51192SOL    HW155473   6.042   3.968   9.615
51192SOL    HW255474   6.064   4.082   9.518
51193SOL     OW55475   9.219   3.212  12.420
51193SOL    HW155476   9.265   3.267  12.356
51193SOL    HW255477   9.126   3.232  12.407
51194SOL     OW55478   5.033   4.247  12.144
51194SOL    HW155479   4.992   4.315  12.196
51194SOL    HW255480   4.972   4.230  12.073
51195SOL     OW55481   8.458   6.628  10.142
51195SOL    HW155482   8.427   6.542  10.169
51195SOL    HW255483   8.541   6.611  10.096
51196SOL     OW55484   9.343  11.712  14.134
51196SOL    HW155485   9.326  11.749  14.047
51196SOL    HW255486   9.281  11.756  14.191
51197SOL     OW55487   7.502  14.474  13.274
51197SOL    HW155488   7.468  14.543  13.331
51197SOL    HW255489   7.427  14.417  13.257
51198SOL     OW55490   1.445  14.329   9.677
51198SOL    HW155491   1.415  14.306   9.765
51198SOL    HW255492   1.379  14.291   9.619
51199SOL     OW55493  12.274  12.704   6.622
51199SOL    HW155494  12.313  12.619   6.605
51199SOL    HW255495  12.180  12.687   6.629
51200SOL     OW55496   2.490  12.890  14.811
51200SOL    HW155497   2.440  12.809  14.801
51200SOL    HW255498   2.433  12.947  14.863
51201SOL     OW55499   4.043   2.715   8.554
51201SOL    HW155500   3.997   2.644   8.600
51201SOL    HW255501   4.034   2.693   8.461
51202SOL     OW55502  10.073   4.916   3.626
51202SOL    HW155503  10.123   4.974   3.683
51202SOL    HW255504  10.137   4.851   3.597
51203SOL     OW55505   3.946   6.443   1.197
51203SOL    HW155506   3.900   6.386   1.135
51203SOL    HW255507   3.878   6.498   1.235
51204SOL     OW55508   8.053   5.775  10.618
51204SOL    HW155509   8.051   5.725  10.537
51204SOL    HW255510   7.978   5.834  10.612
51205SOL     OW55511  10.801   9.082   0.190
51205SOL    HW155512  10.808   9.072   0.095
51205SOL    HW255513  10.708   9.071   0.209
51206SOL     OW55514  14.143   3.845  13.029
51206SOL    HW155515  14.163   3.821  12.939
51206SOL    HW255516  14.051   3.872  13.028
51207SOL     OW55517  13.451   4.552   9.595
51207SOL    HW155518  13.418   4.502   9.670
51207SOL    HW255519  13.455   4.643   9.627
51208SOL     OW55520   5.592   0.569   2.082
51208SOL    HW155521   5.505   0.598   2.057
51208SOL    HW255522   5.645   0.648   2.081
51209SOL     OW55523   3.310  12.356  12.550
51209SOL    HW155524   3.337  12.265  12.565
51209SOL    HW255525   3.367  12.387  12.480
51210SOL     OW55526  11.109   8.326  10.700
51210SOL    HW155527  11.015   8.343  10.712
51210SOL    HW255528  11.152   8.396  10.748
51211SOL     OW55529  14.608   8.535   6.398
51211SOL    HW155530  14.532   8.593   6.390
51211SOL    HW255531  14.682   8.589   6.369
51212SOL     OW55532   3.334   1.376  13.846
51212SOL    HW155533   3.331   1.305  13.783
51212SOL    HW255534   3.365   1.335  13.927
51213SOL     OW55535   3.039  10.689  10.550
51213SOL    HW155536   2.965  10.749  10.550
51213SOL    HW255537   3.004  10.606  10.583
51214SOL     OW55538  10.843   3.112   1.390
51214SOL    HW155539  10.799   3.152   1.314
51214SOL    HW255540  10.909   3.176   1.416
51215SOL     OW55541   9.698   5.331   7.557
51215SOL    HW155542   9.607   5.302   7.545
51215SOL    HW255543   9.746   5.252   7.582
51216SOL     OW55544   7.026  14.744   2.657
51216SOL    HW155545   6.997  14.835   2.648
51216SOL    HW255546   6.973  14.696   2.594
51217SOL     OW55547   0.681  11.698  14.458
51217SOL    HW155548   0.721  11.741  14.382
51217SOL    HW255549   0.591  11.679  14.431
51218SOL     OW55550  12.110   9.131   5.226
51218SOL    HW155551  12.025   9.129   5.181
51218SOL    HW255552  12.090   9.165   5.313
51219SOL     OW55553   4.068  10.396   1.338
51219SOL    HW155554   4.055  10.355   1.253
51219SOL    HW255555   3.984  10.436   1.359
51220SOL     OW55556   4.096   7.887   1.887
51220SOL    HW155557   4.132   7.975   1.893
51220SOL    HW255558   4.139   7.839   1.958
51221SOL     OW55559  10.246   8.907   2.965
51221SOL    HW155560  10.295   8.938   2.889
51221SOL    HW255561  10.289   8.948   3.040
51222SOL     OW55562  11.255  13.771   2.232
51222SOL    HW155563  11.279  13.851   2.185
51222SOL    HW255564  11.325  13.761   2.297
51223SOL     OW55565   0.812   9.848  11.949
51223SOL    HW155566   0.760   9.782  11.996
51223SOL    HW255567   0.863   9.891  12.018
51224SOL     OW55568   6.300   9.023   5.924
51224SOL    HW155569   6.342   8.939   5.907
51224SOL    HW255570   6.211   9.000   5.950
51225SOL     OW55571  11.724   3.464   9.404
51225SOL    HW155572  11.687   3.508   9.328
51225SOL    HW255573  11.689   3.512   9.479
51226SOL     OW55574   7.383   1.845  10.422
51226SOL    HW155575   7.410   1.934  10.398
51226SOL    HW255576   7.295   1.836  10.385
51227SOL     OW55577   2.277   8.935  13.298
51227SOL    HW155578   2.308   8.847  13.279
51227SOL    HW255579   2.355   8.982  13.327
51228SOL     OW55580  14.486   0.143  13.330
51228SOL    HW155581  14.489   0.070  13.391
51228SOL    HW255582  14.457   0.218  13.383
51229SOL     OW55583   4.256   3.116   7.203
51229SOL    HW155584   4.311   3.193   7.195
51229SOL    HW255585   4.230   3.096   7.113
51230SOL     OW55586  13.715  14.056   0.819
51230SOL    HW155587  13.635  14.010   0.796
51230SOL    HW255588  13.689  14.118   0.887
51231SOL     OW55589   2.752  12.864   4.314
51231SOL    HW155590   2.691  12.872   4.241
51231SOL    HW255591   2.826  12.919   4.290
51232SOL     OW55592   8.006   0.530   3.993
51232SOL    HW155593   8.016   0.442   3.957
51232SOL    HW255594   8.023   0.589   3.919
51233SOL     OW55595   7.884   3.181  10.704
51233SOL    HW155596   7.790   3.168  10.711
51233SOL    HW255597   7.912   3.203  10.793
51234SOL     OW55598  11.156  12.192   2.064
51234SOL    HW155599  11.241  12.235   2.059
51234SOL    HW255600  11.097  12.249   2.014
51235SOL     OW55601  10.217  12.027   6.148
51235SOL    HW155602  10.260  11.948   6.181
51235SOL    HW255603  10.139  12.036   6.203
51236SOL     OW55604  11.752  10.627  10.064
51236SOL    HW155605  11.691  10.661   9.998
51236SOL    HW255606  11.839  10.654  10.032
51237SOL     OW55607   0.759  12.693  13.302
51237SOL    HW155608   0.832  12.746  13.269
51237SOL    HW255609   0.799  12.608  13.324
51238SOL     OW55610   7.694  13.295  10.273
51238SOL    HW155611   7.650  13.312  10.189
51238SOL    HW255612   7.787  13.308  10.254
51239SOL     OW55613  10.246   7.269  11.302
51239SOL    HW155614  10.335   7.262  11.269
51239SOL    HW255615  10.191   7.262  11.224
51240SOL     OW55616   1.673   6.231   8.354
51240SOL    HW155617   1.735   6.265   8.289
51240SOL    HW255618   1.688   6.136   8.354
51241SOL     OW55619   3.546  12.532   5.864
51241SOL    HW155620   3.619  12.573   5.818
51241SOL    HW255621   3.568  12.540   5.957
51242SOL     OW55622   9.075  13.017   4.447
51242SOL    HW155623   9.097  12.941   4.501
51242SOL    HW255624   8.980  13.026   4.456
51243SOL     OW55625  14.409   7.959  11.138
51243SOL    HW155626  14.421   7.941  11.045
51243SOL    HW255627  14.426   8.052  11.147
51244SOL     OW55628  13.170  10.459   8.704
51244SOL    HW155629  13.103  10.416   8.757
51244SOL    HW255630  13.127  10.537   8.668
51245SOL     OW55631   1.114  11.674  14.797
51245SOL    HW155632   1.075  11.726  14.727
51245SOL    HW255633   1.180  11.621  14.754
51246SOL     OW55634   8.139   6.393  12.157
51246SOL    HW155635   8.068   6.345  12.200
51246SOL    HW255636   8.173   6.332  12.092
51247SOL     OW55637   4.877  13.782   3.156
51247SOL    HW155638   4.888  13.762   3.249
51247SOL    HW255639   4.966  13.782   3.120
51248SOL     OW55640   5.880   5.873  11.471
51248SOL    HW155641   5.875   5.956  11.518
51248SOL    HW255642   5.893   5.807  11.540
51249SOL     OW55643   1.514   6.031   4.960
51249SOL    HW155644   1.451   5.961   4.940
51249SOL    HW255645   1.599   5.988   4.957
51250SOL     OW55646   1.559   6.658  13.719
51250SOL    HW155647   1.606   6.667  13.802
51250SOL    HW255648   1.487   6.721  13.726
51251SOL     OW55649   9.472  11.875  10.973
51251SOL    HW155650   9.461  11.969  10.958
51251SOL    HW255651   9.392  11.836  10.937
51252SOL     OW55652  13.307  12.741   5.484
51252SOL    HW155653  13.213  12.761   5.483
51252SOL    HW255654  13.337  12.774   5.569
51253SOL     OW55655  12.452   3.664  14.300
51253SOL    HW155656  12.454   3.752  14.264
51253SOL    HW255657  12.544   3.635  14.300
51254SOL     OW55658   7.881   5.217  12.321
51254SOL    HW155659   7.966   5.177  12.337
51254SOL    HW255660   7.824   5.143  12.296
51255SOL     OW55661   3.147  10.936  13.865
51255SOL    HW155662   3.223  10.991  13.846
51255SOL    HW255663   3.119  10.964  13.952
51256SOL     OW55664  10.899   7.488   3.401
51256SOL    HW155665  10.918   7.474   3.309
51256SOL    HW255666  10.882   7.582   3.409
51257SOL     OW55667   7.778   5.501  10.955
51257SOL    HW155668   7.729   5.577  10.984
51257SOL    HW255669   7.738   5.427  11.001
51258SOL     OW55670   7.445   7.821  13.437
51258SOL    HW155671   7.404   7.735  13.432
51258SOL    HW255672   7.372   7.881  13.454
51259SOL     OW55673   6.245   2.581  11.991
51259SOL    HW155674   6.232   2.675  11.979
51259SOL    HW255675   6.171   2.553  12.044
51260SOL     OW55676   3.465  11.378   7.097
51260SOL    HW155677   3.516  11.301   7.123
51260SOL    HW255678   3.526  11.431   7.046
51261SOL     OW55679   0.920   7.110   0.851
51261SOL    HW155680   0.884   7.165   0.781
51261SOL    HW255681   1.001   7.155   0.876
51262SOL     OW55682  14.205   8.630  11.366
51262SOL    HW155683  14.299   8.647  11.357
51262SOL    HW255684  14.181   8.670  11.449
51263SOL     OW55685   9.457  12.895   1.300
51263SOL    HW155686   9.432  12.807   1.272
51263SOL    HW255687   9.551  12.899   1.287
51264SOL     OW55688   9.058   4.933   3.136
51264SOL    HW155689   9.101   5.018   3.145
51264SOL    HW255690   8.976   4.941   3.186
51265SOL     OW55691  12.208   1.721  10.417
51265SOL    HW155692  12.134   1.704  10.359
51265SOL    HW255693  12.211   1.645  10.476
51266SOL     OW55694  13.817   8.332   1.579
51266SOL    HW155695  13.817   8.344   1.484
51266SOL    HW255696  13.790   8.418   1.613
51267SOL     OW55697  12.146   2.742   6.980
51267SOL    HW155698  12.123   2.658   6.940
51267SOL    HW255699  12.159   2.722   7.072
51268SOL     OW55700  11.969  11.703   5.004
51268SOL    HW155701  11.949  11.782   5.054
51268SOL    HW255702  11.928  11.718   4.919
51269SOL     OW55703  13.207  13.682   4.816
51269SOL    HW155704  13.245  13.641   4.738
51269SOL    HW255705  13.181  13.608   4.871
51270SOL     OW55706   0.020  13.203  13.482
51270SOL    HW155707   0.094  13.205  13.543
51270SOL    HW255708  14.835  13.262  13.521
51271SOL     OW55709   8.813   1.587  12.437
51271SOL    HW155710   8.795   1.531  12.361
51271SOL    HW255711   8.745   1.564  12.501
51272SOL     OW55712   3.415  12.209  13.439
51272SOL    HW155713   3.430  12.271  13.368
51272SOL    HW255714   3.350  12.252  13.495
51273SOL     OW55715   6.493  14.836   4.120
51273SOL    HW155716   6.588  14.844   4.125
51273SOL    HW255717   6.473  14.853   4.028
51274SOL     OW55718   9.467  13.889   0.033
51274SOL    HW155719   9.546  13.898  14.860
51274SOL    HW255720   9.486  13.938   0.114
51275SOL     OW55721   3.144   5.529   1.967
51275SOL    HW155722   3.104   5.502   2.049
51275SOL    HW255723   3.071   5.534   1.905
51276SOL     OW55724  12.731   7.483   1.982
51276SOL    HW155725  12.759   7.537   1.908
51276SOL    HW255726  12.684   7.544   2.039
51277SOL     OW55727   1.377  14.703  13.311
51277SOL    HW155728   1.303  14.758  13.286
51277SOL    HW255729   1.443  14.764  13.344
51278SOL     OW55730   3.689   5.187   8.048
51278SOL    HW155731   3.731   5.101   8.048
51278SOL    HW255732   3.760   5.248   8.029
51279SOL     OW55733   0.379   9.034   2.110
51279SOL    HW155734   0.428   9.068   2.034
51279SOL    HW255735   0.395   8.940   2.109
51280SOL     OW55736   7.816   8.909  12.550
51280SOL    HW155737   7.863   8.943  12.627
51280SOL    HW255738   7.873   8.840  12.516
51281SOL     OW55739  11.038   2.635   1.253
51281SOL    HW155740  11.132   2.647   1.244
51281SOL    HW255741  11.024   2.616   1.346
51282SOL     OW55742   0.761   7.519   5.744
51282SOL    HW155743   0.721   7.584   5.687
51282SOL    HW255744   0.844   7.558   5.771
51283SOL     OW55745   0.253   3.937  13.660
51283SOL    HW155746   0.341   3.912  13.685
51283SOL    HW255747   0.197   3.909  13.732
51284SOL     OW55748   5.597   2.250  12.349
51284SOL    HW155749   5.559   2.162  12.355
51284SOL    HW255750   5.671   2.240  12.289
51285SOL     OW55751   3.084  14.151  12.173
51285SOL    HW155752   3.076  14.095  12.251
51285SOL    HW255753   3.019  14.117  12.112
51286SOL     OW55754   8.909  10.923   1.615
51286SOL    HW155755   8.856  10.963   1.684
51286SOL    HW255756   8.853  10.927   1.537
51287SOL     OW55757   2.847   5.396   7.206
51287SOL    HW155758   2.753   5.397   7.191
51287SOL    HW255759   2.882   5.466   7.151
51288SOL     OW55760   0.834   8.631   6.245
51288SOL    HW155761   0.791   8.592   6.170
51288SOL    HW255762   0.764   8.643   6.309
51289SOL     OW55763   3.760   8.330   5.875
51289SOL    HW155764   3.682   8.357   5.827
51289SOL    HW255765   3.787   8.248   5.834
51290SOL     OW55766  13.437  12.749   8.789
51290SOL    HW155767  13.507  12.700   8.830
51290SOL    HW255768  13.364  12.686   8.782
51291SOL     OW55769   2.174   9.053   6.064
51291SOL    HW155770   2.157   8.961   6.044
51291SOL    HW255771   2.152   9.062   6.156
51292SOL     OW55772   2.182  10.213   6.199
51292SOL    HW155773   2.126  10.253   6.132
51292SOL    HW255774   2.251  10.168   6.150
51293SOL     OW55775   3.230   1.049   1.378
51293SOL    HW155776   3.218   1.086   1.291
51293SOL    HW255777   3.313   1.001   1.373
51294SOL     OW55778   5.058   0.408   1.066
51294SOL    HW155779   5.084   0.374   0.980
51294SOL    HW255780   4.963   0.412   1.063
51295SOL     OW55781   5.992  14.403  14.586
51295SOL    HW155782   5.973  14.475  14.646
51295SOL    HW255783   6.069  14.433  14.538
51296SOL     OW55784  14.627   2.163   4.592
51296SOL    HW155785  14.603   2.075   4.564
51296SOL    HW255786  14.617   2.217   4.513
51297SOL     OW55787   4.438   5.331   4.659
51297SOL    HW155788   4.420   5.306   4.568
51297SOL    HW255789   4.352   5.331   4.701
51298SOL     OW55790  12.792  12.269  11.155
51298SOL    HW155791  12.863  12.299  11.211
51298SOL    HW255792  12.722  12.244  11.215
51299SOL     OW55793   0.801   4.422   8.865
51299SOL    HW155794   0.853   4.413   8.945
51299SOL    HW255795   0.747   4.499   8.881
51300SOL     OW55796  13.203   9.671   3.353
51300SOL    HW155797  13.123   9.667   3.405
51300SOL    HW255798  13.274   9.652   3.415
51301SOL     OW55799  14.407   4.537   2.754
51301SOL    HW155800  14.451   4.501   2.677
51301SOL    HW255801  14.469   4.522   2.826
51302SOL     OW55802   8.890  12.115  12.075
51302SOL    HW155803   8.815  12.171  12.052
51302SOL    HW255804   8.965  12.159  12.036
51303SOL     OW55805   2.502   9.006  13.427
51303SOL    HW155806   2.597   9.013  13.423
51303SOL    HW255807   2.474   9.087  13.468
51304SOL     OW55808  12.060  12.598   0.665
51304SOL    HW155809  12.085  12.564   0.579
51304SOL    HW255810  12.078  12.525   0.725
51305SOL     OW55811   1.064  11.152   3.676
51305SOL    HW155812   1.133  11.112   3.623
51305SOL    HW255813   1.018  11.211   3.615
51306SOL     OW55814   2.632   2.670  13.769
51306SOL    HW155815   2.657   2.759  13.793
51306SOL    HW255816   2.557   2.681  13.711
51307SOL     OW55817   5.728   1.799   3.317
51307SOL    HW155818   5.662   1.792   3.248
51307SOL    HW255819   5.691   1.861   3.380
51308SOL     OW55820  10.873   2.486   5.119
51308SOL    HW155821  10.796   2.526   5.077
51308SOL    HW255822  10.890   2.541   5.195
51309SOL     OW55823   1.145   6.215   6.026
51309SOL    HW155824   1.185   6.265   5.955
51309SOL    HW255825   1.060   6.258   6.041
51310SOL     OW55826  10.069   7.901   3.325
51310SOL    HW155827  10.079   7.852   3.243
51310SOL    HW255828   9.990   7.954   3.311
51311SOL     OW55829   1.572  13.182  11.272
51311SOL    HW155830   1.585  13.270  11.237
51311SOL    HW255831   1.523  13.136  11.204
51312SOL     OW55832   2.521   1.713   6.895
51312SOL    HW155833   2.506   1.807   6.901
51312SOL    HW255834   2.606   1.699   6.938
51313SOL     OW55835   8.275   0.913   9.819
51313SOL    HW155836   8.181   0.917   9.800
51313SOL    HW255837   8.318   0.939   9.737
51314SOL     OW55838  14.861   7.686   5.246
51314SOL    HW155839  14.784   7.728   5.284
51314SOL    HW255840  14.837   7.670   5.155
51315SOL     OW55841  10.019   1.835   4.584
51315SOL    HW155842   9.941   1.886   4.605
51315SOL    HW255843  10.084   1.900   4.558
51316SOL     OW55844   5.290   4.079   2.616
51316SOL    HW155845   5.369   4.122   2.648
51316SOL    HW255846   5.223   4.147   2.617
51317SOL     OW55847   1.077   8.639  10.430
51317SOL    HW155848   1.063   8.733  10.437
51317SOL    HW255849   1.120   8.627  10.345
51318SOL     OW55850   1.268   6.030  11.462
51318SOL    HW155851   1.311   6.075  11.535
51318SOL    HW255852   1.267   5.938  11.488
51319SOL     OW55853  14.685   4.629   2.088
51319SOL    HW155854  14.756   4.592   2.035
51319SOL    HW255855  14.606   4.592   2.049
51320SOL     OW55856   4.865  13.939  11.842
51320SOL    HW155857   4.870  14.006  11.910
51320SOL    HW255858   4.887  13.858  11.888
51321SOL     OW55859   1.407   5.097   9.447
51321SOL    HW155860   1.436   5.166   9.388
51321SOL    HW255861   1.459   5.110   9.526
51322SOL     OW55862  10.148  12.414   4.559
51322SOL    HW155863  10.096  12.343   4.596
51322SOL    HW255864  10.239  12.389   4.574
51323SOL     OW55865   3.227  10.033   8.968
51323SOL    HW155866   3.257  10.103   9.026
51323SOL    HW255867   3.202   9.962   9.028
51324SOL     OW55868  10.158   6.691   5.224
51324SOL    HW155869  10.161   6.697   5.129
51324SOL    HW255870  10.226   6.628   5.247
51325SOL     OW55871  12.266  13.275   7.593
51325SOL    HW155872  12.246  13.270   7.499
51325SOL    HW255873  12.354  13.312   7.596
51326SOL     OW55874  13.657   7.602   6.083
51326SOL    HW155875  13.592   7.641   6.141
51326SOL    HW255876  13.609   7.582   6.003
51327SOL     OW55877   5.367  13.920   3.753
51327SOL    HW155878   5.455  13.882   3.754
51327SOL    HW255879   5.382  14.013   3.737
51328SOL     OW55880   8.969   8.100   9.638
51328SOL    HW155881   9.015   8.182   9.622
51328SOL    HW255882   8.949   8.066   9.551
51329SOL     OW55883   4.800   0.363  14.777
51329SOL    HW155884   4.715   0.353  14.733
51329SOL    HW255885   4.863   0.321  14.719
51330SOL     OW55886  11.290  12.431   4.081
51330SOL    HW155887  11.259  12.343   4.059
51330SOL    HW255888  11.292  12.478   3.998
51331SOL     OW55889   8.713   9.624  12.504
51331SOL    HW155890   8.656   9.677  12.559
51331SOL    HW255891   8.764   9.571  12.565
51332SOL     OW55892   4.867   0.846   3.921
51332SOL    HW155893   4.876   0.940   3.910
51332SOL    HW255894   4.927   0.808   3.857
51333SOL     OW55895  13.150  14.506  10.044
51333SOL    HW155896  13.173  14.417  10.016
51333SOL    HW255897  13.185  14.563   9.975
51334SOL     OW55898   0.485   6.644   5.219
51334SOL    HW155899   0.514   6.733   5.196
51334SOL    HW255900   0.407   6.657   5.273
51335SOL     OW55901   5.418   1.208   8.063
51335SOL    HW155902   5.477   1.183   8.135
51335SOL    HW255903   5.350   1.260   8.106
51336SOL     OW55904  14.525   6.685   4.176
51336SOL    HW155905  14.596   6.668   4.238
51336SOL    HW255906  14.538   6.776   4.149
51337SOL     OW55907  13.844   9.593   2.186
51337SOL    HW155908  13.776   9.573   2.121
51337SOL    HW255909  13.805   9.662   2.241
51338SOL     OW55910   0.399   2.933   2.215
51338SOL    HW155911   0.471   2.870   2.208
51338SOL    HW255912   0.394   2.952   2.309
51339SOL     OW55913   9.214   5.510  10.848
51339SOL    HW155914   9.198   5.604  10.834
51339SOL    HW255915   9.301   5.495  10.812
51340SOL     OW55916   1.960   1.203   2.998
51340SOL    HW155917   1.935   1.238   2.912
51340SOL    HW255918   2.000   1.118   2.978
51341SOL     OW55919   5.960   7.825  14.117
51341SOL    HW155920   5.923   7.744  14.083
51341SOL    HW255921   6.030   7.797  14.176
51342SOL     OW55922  10.894   8.433   7.967
51342SOL    HW155923  10.966   8.393   7.919
51342SOL    HW255924  10.837   8.359   7.990
51343SOL     OW55925  10.218   5.573   5.009
51343SOL    HW155926  10.260   5.652   4.976
51343SOL    HW255927  10.186   5.596   5.096
51344SOL     OW55928  11.243  11.690   2.577
51344SOL    HW155929  11.286  11.694   2.663
51344SOL    HW255930  11.315  11.684   2.515
51345SOL     OW55931   0.177   0.491   0.414
51345SOL    HW155932   0.271   0.491   0.429
51345SOL    HW255933   0.139   0.501   0.502
51346SOL     OW55934   4.943  12.550   1.467
51346SOL    HW155935   4.969  12.618   1.529
51346SOL    HW255936   4.872  12.503   1.511
51347SOL     OW55937   0.748  12.830  12.960
51347SOL    HW155938   0.814  12.835  13.029
51347SOL    HW255939   0.746  12.737  12.936
51348SOL     OW55940   1.453  13.464  12.560
51348SOL    HW155941   1.457  13.496  12.470
51348SOL    HW255942   1.493  13.534  12.612
51349SOL     OW55943   3.557   0.151  10.484
51349SOL    HW155944   3.520   0.067  10.454
51349SOL    HW255945   3.627   0.170  10.421
51350SOL     OW55946   7.632  11.204   0.541
51350SOL    HW155947   7.594  11.237   0.459
51350SOL    HW255948   7.667  11.282   0.584
51351SOL     OW55949   8.371   1.334  14.420
51351SOL    HW155950   8.458   1.298  14.400
51351SOL    HW255951   8.386   1.429  14.428
51352SOL     OW55952  13.845  12.724   7.831
51352SOL    HW155953  13.824  12.814   7.805
51352SOL    HW255954  13.894  12.688   7.757
51353SOL     OW55955   3.725   7.024   9.839
51353SOL    HW155956   3.757   7.045   9.928
51353SOL    HW255957   3.659   6.956   9.853
51354SOL     OW55958   2.459   2.233   4.304
51354SOL    HW155959   2.436   2.298   4.236
51354SOL    HW255960   2.519   2.173   4.260
51355SOL     OW55961   2.128   6.034  11.793
51355SOL    HW155962   2.209   5.993  11.763
51355SOL    HW255963   2.140   6.127  11.776
51356SOL     OW55964   6.669  11.405   5.204
51356SOL    HW155965   6.753  11.428   5.165
51356SOL    HW255966   6.607  11.467   5.165
51357SOL     OW55967   5.493   2.841   3.052
51357SOL    HW155968   5.452   2.922   3.082
51357SOL    HW255969   5.527   2.861   2.965
51358SOL     OW55970   8.845  11.134   3.872
51358SOL    HW155971   8.845  11.094   3.959
51358SOL    HW255972   8.930  11.179   3.867
51359SOL     OW55973   4.577   9.185   3.375
51359SOL    HW155974   4.490   9.212   3.405
51359SOL    HW255975   4.599   9.109   3.430
51360SOL     OW55976   3.361  11.112  13.825
51360SOL    HW155977   3.408  11.067  13.756
51360SOL    HW255978   3.411  11.094  13.905
51361SOL     OW55979  14.751  10.091   6.962
51361SOL    HW155980  14.838  10.128   6.948
51361SOL    HW255981  14.697  10.131   6.893
51362SOL     OW55982   4.196  11.079   3.655
51362SOL    HW155983   4.184  11.161   3.606
51362SOL    HW255984   4.181  11.010   3.591
51363SOL     OW55985   3.876   5.229  10.062
51363SOL    HW155986   3.814   5.283  10.111
51363SOL    HW255987   3.947   5.212  10.123
51364SOL     OW55988  12.949   1.620   1.792
51364SOL    HW155989  12.933   1.704   1.836
51364SOL    HW255990  13.036   1.594   1.821
51365SOL     OW55991   1.243   1.801  13.626
51365SOL    HW155992   1.249   1.824  13.719
51365SOL    HW255993   1.326   1.830  13.589
51366SOL     OW55994  11.180  11.421   4.171
51366SOL    HW155995  11.145  11.380   4.092
51366SOL    HW255996  11.268  11.448   4.148
51367SOL     OW55997   8.857  13.726  13.369
51367SOL    HW155998   8.812  13.649  13.336
51367SOL    HW255999   8.930  13.739  13.308
51368SOL     OW56000   5.558   5.132  12.020
51368SOL    HW156001   5.548   5.220  12.057
51368SOL    HW256002   5.469   5.103  12.004
51369SOL     OW56003   5.669   6.990   3.322
51369SOL    HW156004   5.612   6.926   3.280
51369SOL    HW256005   5.691   6.951   3.407
51370SOL     OW56006   0.313   9.798   9.152
51370SOL    HW156007   0.328   9.888   9.121
51370SOL    HW256008   0.254   9.809   9.227
51371SOL     OW56009   6.422  13.204  11.055
51371SOL    HW156010   6.353  13.149  11.018
51371SOL    HW256011   6.449  13.158  11.134
51372SOL     OW56012   3.710   4.545   4.341
51372SOL    HW156013   3.715   4.452   4.317
51372SOL    HW256014   3.619   4.558   4.367
51373SOL     OW56015   1.977  12.471   2.415
51373SOL    HW156016   2.056  12.465   2.469
51373SOL    HW256017   1.996  12.543   2.354
51374SOL     OW56018  12.260  13.303   5.607
51374SOL    HW156019  12.237  13.222   5.560
51374SOL    HW256020  12.313  13.273   5.681
51375SOL     OW56021   4.522  13.842   4.490
51375SOL    HW156022   4.578  13.774   4.527
51375SOL    HW256023   4.551  13.849   4.399
51376SOL     OW56024   6.932  10.293  13.074
51376SOL    HW156025   6.942  10.198  13.086
51376SOL    HW256026   6.893  10.301  12.987
51377SOL     OW56027  13.382  10.869  12.736
51377SOL    HW156028  13.297  10.828  12.752
51377SOL    HW256029  13.444  10.813  12.783
51378SOL     OW56030   4.168   1.185   5.574
51378SOL    HW156031   4.098   1.178   5.639
51378SOL    HW256032   4.124   1.211   5.493
51379SOL     OW56033  11.013   0.948   8.169
51379SOL    HW156034  10.936   0.892   8.183
51379SOL    HW256035  10.978   1.037   8.168
51380SOL     OW56036   4.786  13.588  12.227
51380SOL    HW156037   4.781  13.542  12.311
51380SOL    HW256038   4.863  13.551  12.184
51381SOL     OW56039   0.012   1.186  12.360
51381SOL    HW156040  14.879   1.223  12.447
51381SOL    HW256041   0.099   1.217  12.333
51382SOL     OW56042   1.862   9.879   6.154
51382SOL    HW156043   1.945   9.911   6.190
51382SOL    HW256044   1.867   9.900   6.061
51383SOL     OW56045   3.792  12.019  13.660
51383SOL    HW156046   3.867  12.074  13.637
51383SOL    HW256047   3.716  12.073  13.641
51384SOL     OW56048  10.917  10.915   2.799
51384SOL    HW156049  10.999  10.947   2.835
51384SOL    HW256050  10.849  10.966   2.844
51385SOL     OW56051   0.652  12.635   6.347
51385SOL    HW156052   0.742  12.658   6.368
51385SOL    HW256053   0.649  12.540   6.358
51386SOL     OW56054   5.222   8.490   6.278
51386SOL    HW156055   5.318   8.498   6.274
51386SOL    HW256056   5.203   8.477   6.371
51387SOL     OW56057   8.806   5.539  10.966
51387SOL    HW156058   8.865   5.596  10.916
51387SOL    HW256059   8.831   5.450  10.940
51388SOL     OW56060  11.402  13.960   2.599
51388SOL    HW156061  11.458  13.952   2.677
51388SOL    HW256062  11.414  13.877   2.552
51389SOL     OW56063  11.990   0.355   0.902
51389SOL    HW156064  11.995   0.263   0.874
51389SOL    HW256065  11.930   0.354   0.976
51390SOL     OW56066   7.309   7.002  14.870
51390SOL    HW156067   7.305   6.955  14.787
51390SOL    HW256068   7.393   7.049  14.867
51391SOL     OW56069  13.386   1.358   0.239
51391SOL    HW156070  13.326   1.290   0.268
51391SOL    HW256071  13.468   1.311   0.221
51392SOL     OW56072  11.460   2.090  14.683
51392SOL    HW156073  11.388   2.152  14.692
51392SOL    HW256074  11.521   2.133  14.622
51393SOL     OW56075   2.324   8.144  14.431
51393SOL    HW156076   2.288   8.121  14.346
51393SOL    HW256077   2.364   8.230  14.418
51394SOL     OW56078  11.681   4.432   7.710
51394SOL    HW156079  11.674   4.377   7.632
51394SOL    HW256080  11.628   4.387   7.776
51395SOL     OW56081  10.508   5.553   8.090
51395SOL    HW156082  10.510   5.552   8.186
51395SOL    HW256083  10.490   5.462   8.066
51396SOL     OW56084   1.151   1.225   7.349
51396SOL    HW156085   1.118   1.314   7.352
51396SOL    HW256086   1.244   1.232   7.371
51397SOL     OW56087  12.986   0.716   9.321
51397SOL    HW156088  12.953   0.666   9.395
51397SOL    HW256089  13.069   0.674   9.298
51398SOL     OW56090   0.178   8.920   8.682
51398SOL    HW156091   0.130   8.955   8.607
51398SOL    HW256092   0.159   8.982   8.753
51399SOL     OW56093   8.007  12.378   9.360
51399SOL    HW156094   7.920  12.365   9.398
51399SOL    HW256095   8.053  12.435   9.422
51400SOL     OW56096  13.426   8.095  11.014
51400SOL    HW156097  13.371   8.174  11.016
51400SOL    HW256098  13.399   8.046  11.091
51401SOL     OW56099   7.523   1.723   2.431
51401SOL    HW156100   7.585   1.758   2.368
51401SOL    HW256101   7.516   1.630   2.410
51402SOL     OW56102   3.290  12.188   3.687
51402SOL    HW156103   3.229  12.126   3.728
51402SOL    HW256104   3.371  12.137   3.675
51403SOL     OW56105  14.016   8.362   0.717
51403SOL    HW156106  14.050   8.273   0.726
51403SOL    HW256107  13.970   8.378   0.799
51404SOL     OW56108   7.030  11.331   1.496
51404SOL    HW156109   6.955  11.318   1.437
51404SOL    HW256110   7.105  11.338   1.437
51405SOL     OW56111   1.508   8.840  10.844
51405SOL    HW156112   1.420   8.861  10.876
51405SOL    HW256113   1.508   8.872  10.754
51406SOL     OW56114   1.925   9.424   4.599
51406SOL    HW156115   1.864   9.354   4.578
51406SOL    HW256116   1.916   9.487   4.527
51407SOL     OW56117   3.028  11.088   7.059
51407SOL    HW156118   3.067  11.176   7.063
51407SOL    HW256119   3.081  11.042   6.993
51408SOL     OW56120   5.398   1.804   6.458
51408SOL    HW156121   5.362   1.830   6.543
51408SOL    HW256122   5.348   1.725   6.434
51409SOL     OW56123   2.732  14.624   0.349
51409SOL    HW156124   2.749  14.608   0.257
51409SOL    HW256125   2.643  14.591   0.363
51410SOL     OW56126  11.510  10.338  14.623
51410SOL    HW156127  11.550  10.252  14.630
51410SOL    HW256128  11.423  10.321  14.587
51411SOL     OW56129  13.470  11.953   9.868
51411SOL    HW156130  13.511  11.971   9.783
51411SOL    HW256131  13.542  11.958   9.931
51412SOL     OW56132   1.342   7.462   4.652
51412SOL    HW156133   1.397   7.435   4.726
51412SOL    HW256134   1.287   7.385   4.634
51413SOL     OW56135   5.066   8.083  13.269
51413SOL    HW156136   5.019   8.000  13.272
51413SOL    HW256137   5.016   8.141  13.326
51414SOL     OW56138   0.238   0.892   5.475
51414SOL    HW156139   0.172   0.876   5.407
51414SOL    HW256140   0.190   0.929   5.548
51415SOL     OW56141   1.794   0.046   1.264
51415SOL    HW156142   1.717   0.053   1.320
51415SOL    HW256143   1.863   0.092   1.313
51416SOL     OW56144  12.089  10.858  12.922
51416SOL    HW156145  12.064  10.796  12.853
51416SOL    HW256146  12.155  10.914  12.880
51417SOL     OW56147   9.976   3.985   4.514
51417SOL    HW156148   9.938   4.065   4.551
51417SOL    HW256149   9.963   3.919   4.582
51418SOL     OW56150   8.246   7.328  11.876
51418SOL    HW156151   8.215   7.261  11.937
51418SOL    HW256152   8.258   7.281  11.793
51419SOL     OW56153  14.461  11.477   0.832
51419SOL    HW156154  14.379  11.491   0.880
51419SOL    HW256155  14.440  11.500   0.741
51420SOL     OW56156   9.613   4.155  10.285
51420SOL    HW156157   9.696   4.192  10.254
51420SOL    HW256158   9.577   4.110  10.209
51421SOL     OW56159   4.164   5.529   7.150
51421SOL    HW156160   4.159   5.579   7.069
51421SOL    HW256161   4.245   5.559   7.192
51422SOL     OW56162   0.968   0.934   4.894
51422SOL    HW156163   0.876   0.957   4.888
51422SOL    HW256164   0.984   0.922   4.988
51423SOL     OW56165   2.166  10.632   1.526
51423SOL    HW156166   2.171  10.577   1.605
51423SOL    HW256167   2.249  10.616   1.480
51424SOL     OW56168   4.277  13.634   5.713
51424SOL    HW156169   4.248  13.692   5.643
51424SOL    HW256170   4.337  13.573   5.671
51425SOL     OW56171  12.722  13.256   8.716
51425SOL    HW156172  12.753  13.313   8.786
51425SOL    HW256173  12.631  13.237   8.739
51426SOL     OW56174   0.785  13.319   8.016
51426SOL    HW156175   0.771  13.364   7.932
51426SOL    HW256176   0.714  13.351   8.072
51427SOL     OW56177   5.184   4.806   6.813
51427SOL    HW156178   5.263   4.859   6.798
51427SOL    HW256179   5.199   4.728   6.760
51428SOL     OW56180   4.858   2.605   9.235
51428SOL    HW156181   4.914   2.555   9.176
51428SOL    HW256182   4.769   2.592   9.201
51429SOL     OW56183  11.398   8.204  14.053
51429SOL    HW156184  11.458   8.260  14.103
51429SOL    HW256185  11.393   8.244  13.967
51430SOL     OW56186   7.553   6.247   0.064
51430SOL    HW156187   7.641   6.214   0.053
51430SOL    HW256188   7.564   6.341   0.081
51431SOL     OW56189   5.541   5.529  10.536
51431SOL    HW156190   5.574   5.602  10.590
51431SOL    HW256191   5.620   5.483  10.508
51432SOL     OW56192   1.117   0.823   8.084
51432SOL    HW156193   1.071   0.907   8.082
51432SOL    HW256194   1.106   0.792   8.173
51433SOL     OW56195  12.864   2.711  12.355
51433SOL    HW156196  12.899   2.788  12.311
51433SOL    HW256197  12.942   2.663  12.383
51434SOL     OW56198  13.363   4.361   2.768
51434SOL    HW156199  13.397   4.428   2.827
51434SOL    HW256200  13.343   4.408   2.687
51435SOL     OW56201   3.883   7.618   4.282
51435SOL    HW156202   3.841   7.683   4.226
51435SOL    HW256203   3.873   7.652   4.371
51436SOL     OW56204  12.793   8.473   8.800
51436SOL    HW156205  12.874   8.520   8.779
51436SOL    HW256206  12.769   8.506   8.887
51437SOL     OW56207  14.388  11.649   0.600
51437SOL    HW156208  14.347  11.688   0.676
51437SOL    HW256209  14.413  11.723   0.545
51438SOL     OW56210  11.820   2.941  13.006
51438SOL    HW156211  11.777   2.885  13.070
51438SOL    HW256212  11.913   2.935  13.027
51439SOL     OW56213   0.058  14.006   1.826
51439SOL    HW156214  14.865  13.963   1.870
51439SOL    HW256215   0.111  13.934   1.792
51440SOL     OW56216   3.335   0.841   0.832
51440SOL    HW156217   3.255   0.791   0.820
51440SOL    HW256218   3.322   0.920   0.780
51441SOL     OW56219   4.758   9.181   6.997
51441SOL    HW156220   4.737   9.094   6.965
51441SOL    HW256221   4.678   9.232   6.985
51442SOL     OW56222   2.126   1.639   7.257
51442SOL    HW156223   2.165   1.584   7.325
51442SOL    HW256224   2.175   1.721   7.260
51443SOL     OW56225   5.410   7.387  14.108
51443SOL    HW156226   5.423   7.458  14.046
51443SOL    HW256227   5.411   7.429  14.194
51444SOL     OW56228  13.131   8.571   8.605
51444SOL    HW156229  13.092   8.655   8.630
51444SOL    HW256230  13.207   8.562   8.663
51445SOL     OW56231   1.236   5.033   1.698
51445SOL    HW156232   1.206   4.993   1.779
51445SOL    HW256233   1.209   4.972   1.630
51446SOL     OW56234  13.309  14.489   9.332
51446SOL    HW156235  13.234  14.431   9.345
51446SOL    HW256236  13.364  14.475   9.409
51447SOL     OW56237   4.324   0.601   8.813
51447SOL    HW156238   4.406   0.611   8.862
51447SOL    HW256239   4.335   0.658   8.737
51448SOL     OW56240  14.597   6.239   0.316
51448SOL    HW156241  14.592   6.217   0.223
51448SOL    HW256242  14.626   6.158   0.358
51449SOL     OW56243   6.705   3.829   5.380
51449SOL    HW156244   6.775   3.821   5.444
51449SOL    HW256245   6.745   3.804   5.297
51450SOL     OW56246   7.375  11.389   0.066
51450SOL    HW156247   7.398  11.461   0.006
51450SOL    HW256248   7.356  11.315   0.008
51451SOL     OW56249   6.578   2.786   7.134
51451SOL    HW156250   6.553   2.723   7.201
51451SOL    HW256251   6.498   2.803   7.085
51452SOL     OW56252   6.499   2.040   2.600
51452SOL    HW156253   6.594   2.046   2.602
51452SOL    HW256254   6.473   2.021   2.690
51453SOL     OW56255   0.051  11.186  14.294
51453SOL    HW156256   0.045  11.143  14.379
51453SOL    HW256257  14.846  11.167  14.252
51454SOL     OW56258   1.027   9.569   1.579
51454SOL    HW156259   0.957   9.573   1.514
51454SOL    HW256260   1.072   9.487   1.562
51455SOL     OW56261  10.903   4.124   8.416
51455SOL    HW156262  10.903   4.219   8.424
51455SOL    HW256263  10.980   4.096   8.465
51456SOL     OW56264  12.846   2.492   9.537
51456SOL    HW156265  12.785   2.523   9.604
51456SOL    HW256266  12.838   2.554   9.465
51457SOL     OW56267   3.266  13.734  13.375
51457SOL    HW156268   3.237  13.694  13.293
51457SOL    HW256269   3.223  13.683  13.443
51458SOL     OW56270  13.761   1.449   1.743
51458SOL    HW156271  13.834   1.491   1.697
51458SOL    HW256272  13.785   1.453   1.836
51459SOL     OW56273  13.079   7.864   5.083
51459SOL    HW156274  13.003   7.859   5.024
51459SOL    HW256275  13.074   7.784   5.135
51460SOL     OW56276  10.764  13.395  14.540
51460SOL    HW156277  10.804  13.311  14.521
51460SOL    HW256278  10.837  13.452  14.564
51461SOL     OW56279   9.458   1.936  10.031
51461SOL    HW156280   9.434   1.863   9.974
51461SOL    HW256281   9.460   2.012   9.973
51462SOL     OW56282   3.774   8.111   7.343
51462SOL    HW156283   3.725   8.038   7.304
51462SOL    HW256284   3.847   8.125   7.284
51463SOL     OW56285   5.833   4.045  11.163
51463SOL    HW156286   5.843   3.997  11.245
51463SOL    HW256287   5.916   4.091  11.152
51464SOL     OW56288  14.663  12.312  10.648
51464SOL    HW156289  14.582  12.361  10.661
51464SOL    HW256290  14.652  12.269  10.563
51465SOL     OW56291   0.863   5.175   3.696
51465SOL    HW156292   0.958   5.184   3.701
51465SOL    HW256293   0.849   5.095   3.644
51466SOL     OW56294  12.798  11.581   6.066
51466SOL    HW156295  12.847  11.517   6.118
51466SOL    HW256296  12.862  11.612   6.001
51467SOL     OW56297   6.465   9.810   2.539
51467SOL    HW156298   6.442   9.737   2.596
51467SOL    HW256299   6.546   9.845   2.577
51468SOL     OW56300   2.320   6.934   2.338
51468SOL    HW156301   2.414   6.942   2.349
51468SOL    HW256302   2.297   6.850   2.377
51469SOL     OW56303   1.876  12.244  14.439
51469SOL    HW156304   1.859  12.150  14.438
51469SOL    HW256305   1.876  12.268  14.532
51470SOL     OW56306   8.951  14.701   8.106
51470SOL    HW156307   8.898  14.773   8.072
51470SOL    HW256308   8.891  14.627   8.111
51471SOL     OW56309   0.423   0.045   9.973
51471SOL    HW156310   0.444   0.139   9.976
51471SOL    HW256311   0.426   0.023   9.880
51472SOL     OW56312  11.654   6.437  12.112
51472SOL    HW156313  11.579   6.494  12.132
51472SOL    HW256314  11.731   6.493  12.124
51473SOL     OW56315   8.813   5.522   8.036
51473SOL    HW156316   8.859   5.547   8.117
51473SOL    HW256317   8.731   5.571   8.039
51474SOL     OW56318   9.654   5.485   9.424
51474SOL    HW156319   9.736   5.531   9.445
51474SOL    HW256320   9.591   5.517   9.489
51475SOL     OW56321  12.724  14.397   5.710
51475SOL    HW156322  12.705  14.345   5.787
51475SOL    HW256323  12.639  14.413   5.669
51476SOL     OW56324   6.703   5.158   1.056
51476SOL    HW156325   6.632   5.222   1.051
51476SOL    HW256326   6.715   5.144   1.150
51477SOL     OW56327  13.833  12.387   8.814
51477SOL    HW156328  13.893  12.391   8.888
51477SOL    HW256329  13.885  12.349   8.743
51478SOL     OW56330   4.145   8.803   7.341
51478SOL    HW156331   4.085   8.812   7.266
51478SOL    HW256332   4.093   8.758   7.407
51479SOL     OW56333  10.609   0.512   4.830
51479SOL    HW156334  10.660   0.590   4.813
51479SOL    HW256335  10.673   0.445   4.851
51480SOL     OW56336  14.488   9.538  12.574
51480SOL    HW156337  14.426   9.557  12.504
51480SOL    HW256338  14.434   9.530  12.652
51481SOL     OW56339   6.847   7.159  11.978
51481SOL    HW156340   6.892   7.158  11.894
51481SOL    HW256341   6.863   7.073  12.016
51482SOL     OW56342   7.815   6.250   8.592
51482SOL    HW156343   7.725   6.229   8.616
51482SOL    HW256344   7.864   6.170   8.608
51483SOL     OW56345  10.449   7.938   5.716
51483SOL    HW156346  10.405   7.853   5.723
51483SOL    HW256347  10.412   7.978   5.638
51484SOL     OW56348  14.435   6.761   3.055
51484SOL    HW156349  14.341   6.745   3.066
51484SOL    HW256350  14.474   6.730   3.137
51485SOL     OW56351   2.739   1.175   6.639
51485SOL    HW156352   2.685   1.104   6.674
51485SOL    HW256353   2.689   1.255   6.658
51486SOL     OW56354  12.869   8.411  10.090
51486SOL    HW156355  12.945   8.399  10.033
51486SOL    HW256356  12.796   8.427  10.030
51487SOL     OW56357  13.176  10.669   9.440
51487SOL    HW156358  13.097  10.682   9.387
51487SOL    HW256359  13.147  10.688   9.530
51488SOL     OW56360   7.677   2.447  11.528
51488SOL    HW156361   7.721   2.377  11.577
51488SOL    HW256362   7.744   2.481  11.470
51489SOL     OW56363   6.511   2.449  12.997
51489SOL    HW156364   6.559   2.529  13.019
51489SOL    HW256365   6.561   2.378  13.037
51490SOL     OW56366   1.181   2.247  14.593
51490SOL    HW156367   1.110   2.295  14.635
51490SOL    HW256368   1.260   2.294  14.619
51491SOL     OW56369   3.584   1.142  14.542
51491SOL    HW156370   3.655   1.098  14.588
51491SOL    HW256371   3.505   1.094  14.568
51492SOL     OW56372  12.908  11.942   0.430
51492SOL    HW156373  12.883  11.854   0.459
51492SOL    HW256374  13.004  11.939   0.423
51493SOL     OW56375  10.214   6.239   9.360
51493SOL    HW156376  10.241   6.184   9.287
51493SOL    HW256377  10.279   6.310   9.362
51494SOL     OW56378   8.206   0.491   4.860
51494SOL    HW156379   8.252   0.441   4.927
51494SOL    HW256380   8.114   0.467   4.871
51495SOL     OW56381   9.538   0.160   5.888
51495SOL    HW156382   9.507   0.159   5.797
51495SOL    HW256383   9.628   0.128   5.882
51496SOL     OW56384  13.691  11.887  13.322
51496SOL    HW156385  13.596  11.891  13.333
51496SOL    HW256386  13.711  11.953  13.256
51497SOL     OW56387   7.301   4.766  11.253
51497SOL    HW156388   7.343   4.842  11.212
51497SOL    HW256389   7.348   4.755  11.336
51498SOL     OW56390   9.002   6.398   6.154
51498SOL    HW156391   9.031   6.315   6.118
51498SOL    HW256392   8.983   6.379   6.246
51499SOL     OW56393   8.862   9.043   6.773
51499SOL    HW156394   8.933   9.055   6.711
51499SOL    HW256395   8.883   8.962   6.819
51500SOL     OW56396   1.396   1.432   1.657
51500SOL    HW156397   1.432   1.345   1.636
51500SOL    HW256398   1.302   1.422   1.642
51501SOL     OW56399   1.512   7.984   0.306
51501SOL    HW156400   1.436   8.031   0.272
51501SOL    HW256401   1.477   7.922   0.370
51502SOL     OW56402   2.461   0.502  11.586
51502SOL    HW156403   2.556   0.500  11.600
51502SOL    HW256404   2.439   0.595  11.587
51503SOL     OW56405   6.364   1.419   6.228
51503SOL    HW156406   6.399   1.331   6.241
51503SOL    HW256407   6.319   1.439   6.310
51504SOL     OW56408   9.567   8.123  11.708
51504SOL    HW156409   9.631   8.176  11.660
51504SOL    HW256410   9.600   8.034  11.701
51505SOL     OW56411   4.117   7.024   2.922
51505SOL    HW156412   4.032   6.982   2.916
51505SOL    HW256413   4.175   6.957   2.958
51506SOL     OW56414   6.944   6.920   6.626
51506SOL    HW156415   6.876   6.977   6.592
51506SOL    HW256416   7.018   6.977   6.642
51507SOL     OW56417   7.595   4.378   7.873
51507SOL    HW156418   7.632   4.444   7.814
51507SOL    HW256419   7.620   4.295   7.834
51508SOL     OW56420  14.716   6.286  11.123
51508SOL    HW156421  14.756   6.222  11.182
51508SOL    HW256422  14.788   6.315  11.068
51509SOL     OW56423   3.279   5.295   1.999
51509SOL    HW156424   3.242   5.382   1.981
51509SOL    HW256425   3.205   5.244   2.033
51510SOL     OW56426  11.870   4.623  13.815
51510SOL    HW156427  11.946   4.589  13.768
51510SOL    HW256428  11.894   4.618  13.907
51511SOL     OW56429  10.982   1.586   8.470
51511SOL    HW156430  10.895   1.591   8.431
51511SOL    HW256431  10.992   1.668   8.519
51512SOL     OW56432   1.417  13.341   2.054
51512SOL    HW156433   1.503  13.383   2.055
51512SOL    HW256434   1.369  13.384   1.983
51513SOL     OW56435  11.149   3.899   0.539
51513SOL    HW156436  11.133   3.990   0.561
51513SOL    HW256437  11.144   3.896   0.444
51514SOL     OW56438   5.743   8.859  12.198
51514SOL    HW156439   5.810   8.795  12.174
51514SOL    HW256440   5.662   8.809  12.207
51515SOL     OW56441  11.821   9.490   8.423
51515SOL    HW156442  11.783   9.447   8.499
51515SOL    HW256443  11.893   9.543   8.458
51516SOL     OW56444   4.852   2.725   2.837
51516SOL    HW156445   4.772   2.761   2.876
51516SOL    HW256446   4.895   2.801   2.797
51517SOL     OW56447   4.579   9.652   3.242
51517SOL    HW156448   4.644   9.635   3.310
51517SOL    HW256449   4.608   9.600   3.168
51518SOL     OW56450   5.241  11.453   4.672
51518SOL    HW156451   5.147  11.449   4.653
51518SOL    HW256452   5.271  11.363   4.665
51519SOL     OW56453   6.871   3.668   1.290
51519SOL    HW156454   6.903   3.713   1.369
51519SOL    HW256455   6.950   3.651   1.238
51520SOL     OW56456  13.592   5.810   7.835
51520SOL    HW156457  13.677   5.779   7.867
51520SOL    HW256458  13.581   5.767   7.750
51521SOL     OW56459   2.531   2.001   9.086
51521SOL    HW156460   2.575   1.916   9.085
51521SOL    HW256461   2.589   2.059   9.037
51522SOL     OW56462  12.684   3.909   4.654
51522SOL    HW156463  12.604   3.957   4.632
51522SOL    HW256464  12.667   3.820   4.625
51523SOL     OW56465   1.180   3.555   6.014
51523SOL    HW156466   1.174   3.642   5.975
51523SOL    HW256467   1.268   3.524   5.993
51524SOL     OW56468  11.053   5.579   2.587
51524SOL    HW156469  11.069   5.524   2.663
51524SOL    HW256470  11.119   5.551   2.523
51525SOL     OW56471   2.081  10.278   4.810
51525SOL    HW156472   1.990  10.284   4.783
51525SOL    HW256473   2.086  10.330   4.890
51526SOL     OW56474   2.881   7.124  12.235
51526SOL    HW156475   2.820   7.196  12.257
51526SOL    HW256476   2.850   7.050  12.288
51527SOL     OW56477  10.841   7.328   5.572
51527SOL    HW156478  10.760   7.378   5.572
51527SOL    HW256479  10.883   7.350   5.489
51528SOL     OW56480  11.890   0.728  10.437
51528SOL    HW156481  11.939   0.678  10.371
51528SOL    HW256482  11.840   0.792  10.387
51529SOL     OW56483   8.965   7.754   4.351
51529SOL    HW156484   8.987   7.734   4.442
51529SOL    HW256485   8.930   7.672   4.316
51530SOL     OW56486  14.163   0.293  12.167
51530SOL    HW156487  14.138   0.316  12.257
51530SOL    HW256488  14.116   0.356  12.113
51531SOL     OW56489  12.570   7.585   6.088
51531SOL    HW156490  12.532   7.670   6.110
51531SOL    HW256491  12.586   7.543   6.172
51532SOL     OW56492   0.552   6.409  14.857
51532SOL    HW156493   0.602   6.427   0.057
51532SOL    HW256494   0.476   6.358   0.007
51533SOL     OW56495  12.228  11.841   4.148
51533SOL    HW156496  12.278  11.816   4.226
51533SOL    HW256497  12.293  11.881   4.090
51534SOL     OW56498   4.933   5.408   1.935
51534SOL    HW156499   4.844   5.374   1.921
51534SOL    HW256500   4.990   5.333   1.921
51535SOL     OW56501   8.702   8.379   2.686
51535SOL    HW156502   8.697   8.283   2.686
51535SOL    HW256503   8.615   8.407   2.659
51536SOL     OW56504   5.274  14.597   3.082
51536SOL    HW156505   5.339  14.611   3.152
51536SOL    HW256506   5.261  14.502   3.080
51537SOL     OW56507   5.346   7.885   7.874
51537SOL    HW156508   5.256   7.878   7.842
51537SOL    HW256509   5.370   7.976   7.858
51538SOL     OW56510   9.834   3.714   5.674
51538SOL    HW156511   9.757   3.673   5.635
51538SOL    HW256512   9.887   3.742   5.600
51539SOL     OW56513   9.311  13.577   7.388
51539SOL    HW156514   9.404  13.594   7.402
51539SOL    HW256515   9.285  13.637   7.318
51540SOL     OW56516   2.307  10.337   4.184
51540SOL    HW156517   2.320  10.315   4.092
51540SOL    HW256518   2.381  10.394   4.206
51541SOL     OW56519   3.588  13.012   5.435
51541SOL    HW156520   3.572  13.080   5.500
51541SOL    HW256521   3.542  12.935   5.469
51542SOL     OW56522   4.757   6.388  12.735
51542SOL    HW156523   4.736   6.313  12.791
51542SOL    HW256524   4.838   6.423  12.770
51543SOL     OW56525  12.212   1.492  13.827
51543SOL    HW156526  12.297   1.465  13.863
51543SOL    HW256527  12.189   1.422  13.766
51544SOL     OW56528   4.510   5.957   1.384
51544SOL    HW156529   4.594   5.934   1.343
51544SOL    HW256530   4.516   6.052   1.398
51545SOL     OW56531   3.990   3.765  14.192
51545SOL    HW156532   3.951   3.734  14.110
51545SOL    HW256533   3.960   3.701  14.258
51546SOL     OW56534  14.394   7.015   4.351
51546SOL    HW156535  14.356   6.938   4.391
51546SOL    HW256536  14.332   7.041   4.283
51547SOL     OW56537   4.474   2.226  14.089
51547SOL    HW156538   4.391   2.271  14.075
51547SOL    HW256539   4.506   2.209  14.000
51548SOL     OW56540   2.505   8.802   4.390
51548SOL    HW156541   2.502   8.764   4.302
51548SOL    HW256542   2.597   8.822   4.404
51549SOL     OW56543  10.317   6.387  13.413
51549SOL    HW156544  10.365   6.311  13.382
51549SOL    HW256545  10.361   6.412  13.495
51550SOL     OW56546   6.408   2.484   0.203
51550SOL    HW156547   6.346   2.556   0.216
51550SOL    HW256548   6.409   2.470   0.108
51551SOL     OW56549  10.204   9.056  12.765
51551SOL    HW156550  10.181   9.127  12.704
51551SOL    HW256551  10.247   9.100  12.838
51552SOL     OW56552   3.767   7.323   9.969
51552SOL    HW156553   3.789   7.233   9.945
51552SOL    HW256554   3.693   7.314  10.028
51553SOL     OW56555   1.348   2.907  12.428
51553SOL    HW156556   1.376   2.998  12.442
51553SOL    HW256557   1.389   2.858  12.499
51554SOL     OW56558   5.404  14.302   1.454
51554SOL    HW156559   5.339  14.355   1.499
51554SOL    HW256560   5.482  14.308   1.510
51555SOL     OW56561   0.839  11.814   0.925
51555SOL    HW156562   0.756  11.772   0.903
51555SOL    HW256563   0.870  11.766   1.002
51556SOL     OW56564  13.584  12.796   1.622
51556SOL    HW156565  13.587  12.834   1.534
51556SOL    HW256566  13.674  12.767   1.639
51557SOL     OW56567   3.542  13.704  14.699
51557SOL    HW156568   3.638  13.703  14.693
51557SOL    HW256569   3.514  13.757  14.625
51558SOL     OW56570  13.809   3.929   0.372
51558SOL    HW156571  13.814   4.025   0.362
51558SOL    HW256572  13.789   3.897   0.284
51559SOL     OW56573   4.207  11.875   6.942
51559SOL    HW156574   4.235  11.937   6.875
51559SOL    HW256575   4.169  11.802   6.893
51560SOL     OW56576   4.785   2.660   7.176
51560SOL    HW156577   4.830   2.576   7.162
51560SOL    HW256578   4.845   2.725   7.141
51561SOL     OW56579   0.394   8.762  14.331
51561SOL    HW156580   0.324   8.826  14.343
51561SOL    HW256581   0.364   8.684  14.377
51562SOL     OW56582  11.638   9.231   5.457
51562SOL    HW156583  11.612   9.206   5.546
51562SOL    HW256584  11.618   9.153   5.405
51563SOL     OW56585  12.127   0.843   9.208
51563SOL    HW156586  12.122   0.811   9.118
51563SOL    HW256587  12.068   0.785   9.257
51564SOL     OW56588   0.358   4.911   2.934
51564SOL    HW156589   0.377   5.001   2.909
51564SOL    HW256590   0.427   4.859   2.892
51565SOL     OW56591  14.843   3.873  12.943
51565SOL    HW156592  14.804   3.959  12.933
51565SOL    HW256593   0.057   3.890  12.958
51566SOL     OW56594  12.058   8.986   9.067
51566SOL    HW156595  12.121   8.945   9.126
51566SOL    HW256596  12.110   9.017   8.993
51567SOL     OW56597  11.367   2.034  11.929
51567SOL    HW156598  11.414   1.963  11.973
51567SOL    HW256599  11.305   1.989  11.871
51568SOL     OW56600   0.304   6.792   7.566
51568SOL    HW156601   0.357   6.832   7.635
51568SOL    HW256602   0.289   6.863   7.503
51569SOL     OW56603   1.193   6.004   5.244
51569SOL    HW156604   1.247   5.928   5.221
51569SOL    HW256605   1.147   6.025   5.163
51570SOL     OW56606   4.373   9.742   5.358
51570SOL    HW156607   4.445   9.797   5.327
51570SOL    HW256608   4.350   9.687   5.283
51571SOL     OW56609   1.911   2.258   0.378
51571SOL    HW156610   1.868   2.246   0.463
51571SOL    HW256611   1.882   2.184   0.326
51572SOL     OW56612   3.474   5.212  10.400
51572SOL    HW156613   3.472   5.119  10.422
51572SOL    HW256614   3.392   5.227  10.353
51573SOL     OW56615  14.877   2.845   5.038
51573SOL    HW156616   0.092   2.861   5.034
51573SOL    HW256617  14.867   2.751   5.024
51574SOL     OW56618   3.495   6.194   2.348
51574SOL    HW156619   3.474   6.102   2.362
51574SOL    HW256620   3.415   6.241   2.371
51575SOL     OW56621  11.037   9.019  12.494
51575SOL    HW156622  11.090   9.098  12.493
51575SOL    HW256623  10.949   9.049  12.515
51576SOL     OW56624   4.393   1.375   7.116
51576SOL    HW156625   4.348   1.333   7.190
51576SOL    HW256626   4.467   1.318   7.098
51577SOL     OW56627   5.940  13.987   3.007
51577SOL    HW156628   5.962  13.998   2.915
51577SOL    HW256629   5.998  14.048   3.053
51578SOL     OW56630   5.925  12.536  13.938
51578SOL    HW156631   5.985  12.465  13.961
51578SOL    HW256632   5.955  12.611  13.990
51579SOL     OW56633   0.776  12.388   2.851
51579SOL    HW156634   0.820  12.315   2.896
51579SOL    HW256635   0.685  12.383   2.881
51580SOL     OW56636  13.950  13.495   4.340
51580SOL    HW156637  13.989  13.476   4.254
51580SOL    HW256638  13.864  13.454   4.337
51581SOL     OW56639   2.823  13.120   2.626
51581SOL    HW156640   2.757  13.062   2.589
51581SOL    HW256641   2.841  13.084   2.713
51582SOL     OW56642   4.318   2.513   0.998
51582SOL    HW156643   4.321   2.502   0.903
51582SOL    HW256644   4.247   2.455   1.027
51583SOL     OW56645   7.345   2.471   4.763
51583SOL    HW156646   7.290   2.438   4.692
51583SOL    HW256647   7.399   2.396   4.789
51584SOL     OW56648   6.559  13.499   2.821
51584SOL    HW156649   6.622  13.568   2.845
51584SOL    HW256650   6.491  13.545   2.772
51585SOL     OW56651   8.539   8.495  13.287
51585SOL    HW156652   8.560   8.452  13.370
51585SOL    HW256653   8.449   8.471  13.269
51586SOL     OW56654  12.604   7.485  10.302
51586SOL    HW156655  12.558   7.568  10.317
51586SOL    HW256656  12.613   7.447  10.390
51587SOL     OW56657   2.210   3.578   6.719
51587SOL    HW156658   2.303   3.601   6.724
51587SOL    HW256659   2.181   3.573   6.810
51588SOL     OW56660  10.044  10.413  12.697
51588SOL    HW156661  10.045  10.369  12.782
51588SOL    HW256662   9.968  10.472  12.701
51589SOL     OW56663   3.519   0.604  10.205
51589SOL    HW156664   3.555   0.685  10.241
51589SOL    HW256665   3.472   0.564  10.278
51590SOL     OW56666  14.187  13.276   1.932
51590SOL    HW156667  14.204  13.360   1.892
51590SOL    HW256668  14.149  13.297   2.017
51591SOL     OW56669   4.657   4.312   9.448
51591SOL    HW156670   4.748   4.342   9.441
51591SOL    HW256671   4.627   4.345   9.533
51592SOL     OW56672   3.111   2.713   9.477
51592SOL    HW156673   3.092   2.805   9.462
51592SOL    HW256674   3.027   2.668   9.465
51593SOL     OW56675   8.946   2.709  12.749
51593SOL    HW156676   8.876   2.730  12.811
51593SOL    HW256677   9.001   2.788  12.748
51594SOL     OW56678   1.975   4.665  11.327
51594SOL    HW156679   2.065   4.695  11.315
51594SOL    HW256680   1.924   4.745  11.342
51595SOL     OW56681   7.076   3.083   3.864
51595SOL    HW156682   7.015   3.140   3.817
51595SOL    HW256683   7.073   3.113   3.954
51596SOL     OW56684   1.487   0.595   5.826
51596SOL    HW156685   1.560   0.534   5.818
51596SOL    HW256686   1.501   0.660   5.757
51597SOL     OW56687  12.075   0.674   9.006
51597SOL    HW156688  12.032   0.588   9.007
51597SOL    HW256689  12.139   0.668   8.935
51598SOL     OW56690   6.898   6.647   5.242
51598SOL    HW156691   6.980   6.601   5.221
51598SOL    HW256692   6.854   6.590   5.306
51599SOL     OW56693   3.788  10.325  11.364
51599SOL    HW156694   3.708  10.282  11.394
51599SOL    HW256695   3.852  10.254  11.359
51600SOL     OW56696   7.078   6.695   4.411
51600SOL    HW156697   7.133   6.676   4.488
51600SOL    HW256698   7.138   6.737   4.349
51601SOL     OW56699   6.679   7.103  13.716
51601SOL    HW156700   6.712   7.084  13.804
51601SOL    HW256701   6.640   7.190  13.724
51602SOL     OW56702  12.871  12.616   9.161
51602SOL    HW156703  12.951  12.648   9.201
51602SOL    HW256704  12.881  12.635   9.068
51603SOL     OW56705   1.221  13.385   1.065
51603SOL    HW156706   1.202  13.412   1.155
51603SOL    HW256707   1.198  13.293   1.063
51604SOL     OW56708  11.590   0.467   3.373
51604SOL    HW156709  11.569   0.396   3.312
51604SOL    HW256710  11.520   0.464   3.438
51605SOL     OW56711   8.056   4.911  13.025
51605SOL    HW156712   8.024   5.001  13.014
51605SOL    HW256713   8.024   4.864  12.948
51606SOL     OW56714   2.877  12.514   9.597
51606SOL    HW156715   2.866  12.555   9.512
51606SOL    HW256716   2.935  12.573   9.645
51607SOL     OW56717   1.932  12.956   4.116
51607SOL    HW156718   1.925  12.955   4.021
51607SOL    HW256719   1.924  12.864   4.143
51608SOL     OW56720  14.169  13.685   7.104
51608SOL    HW156721  14.161  13.616   7.038
51608SOL    HW256722  14.220  13.645   7.174
51609SOL     OW56723   0.659   4.168   3.341
51609SOL    HW156724   0.679   4.077   3.362
51609SOL    HW256725   0.713   4.218   3.402
51610SOL     OW56726   9.357   6.009   9.175
51610SOL    HW156727   9.341   6.083   9.117
51610SOL    HW256728   9.271   5.972   9.192
51611SOL     OW56729   6.357  14.710   3.011
51611SOL    HW156730   6.373  14.796   3.049
51611SOL    HW256731   6.279  14.722   2.957
51612SOL     OW56732   8.901   6.590  12.868
51612SOL    HW156733   8.897   6.497  12.889
51612SOL    HW256734   8.944   6.593  12.782
51613SOL     OW56735   2.719   6.132   0.333
51613SOL    HW156736   2.739   6.095   0.419
51613SOL    HW256737   2.725   6.057   0.273
51614SOL     OW56738   1.843   8.803   0.949
51614SOL    HW156739   1.763   8.845   0.980
51614SOL    HW256740   1.888   8.871   0.899
51615SOL     OW56741   4.716  14.037   8.605
51615SOL    HW156742   4.766  14.008   8.681
51615SOL    HW256743   4.777  14.092   8.555
51616SOL     OW56744   9.217   9.332   5.964
51616SOL    HW156745   9.164   9.411   5.958
51616SOL    HW256746   9.288   9.346   5.901
51617SOL     OW56747   7.066  13.206   4.060
51617SOL    HW156748   7.044  13.113   4.050
51617SOL    HW256749   6.982  13.251   4.055
51618SOL     OW56750   9.893  11.692   7.918
51618SOL    HW156751   9.806  11.674   7.882
51618SOL    HW256752   9.894  11.646   8.003
51619SOL     OW56753   6.587  13.009  13.553
51619SOL    HW156754   6.531  12.985  13.479
51619SOL    HW256755   6.642  13.080  13.520
51620SOL     OW56756   1.450  14.637   1.161
51620SOL    HW156757   1.469  14.582   1.237
51620SOL    HW256758   1.404  14.712   1.198
51621SOL     OW56759   5.896  12.337   5.007
51621SOL    HW156760   5.865  12.330   5.098
51621SOL    HW256761   5.947  12.257   4.994
51622SOL     OW56762   2.714   5.308   1.971
51622SOL    HW156763   2.647   5.327   1.906
51622SOL    HW256764   2.666   5.269   2.044
51623SOL     OW56765   3.552   9.653   5.997
51623SOL    HW156766   3.611   9.706   5.944
51623SOL    HW256767   3.549   9.569   5.951
51624SOL     OW56768   8.774   3.071  14.798
51624SOL    HW156769   8.729   3.152  14.774
51624SOL    HW256770   8.716   3.028  14.860
51625SOL     OW56771  14.138   0.981   6.279
51625SOL    HW156772  14.108   0.971   6.370
51625SOL    HW256773  14.086   1.054   6.245
51626SOL     OW56774  11.014   3.721   5.658
51626SOL    HW156775  11.040   3.674   5.579
51626SOL    HW256776  10.975   3.655   5.714
51627SOL     OW56777   3.491  11.189   5.251
51627SOL    HW156778   3.568  11.219   5.202
51627SOL    HW256779   3.518  11.192   5.342
51628SOL     OW56780   4.540   7.630   0.133
51628SOL    HW156781   4.496   7.546   0.125
51628SOL    HW256782   4.505   7.683   0.061
51629SOL     OW56783  10.072   8.743   1.417
51629SOL    HW156784  10.100   8.813   1.358
51629SOL    HW256785   9.977   8.749   1.418
51630SOL     OW56786   4.360  14.787   2.752
51630SOL    HW156787   4.276  14.820   2.783
51630SOL    HW256788   4.384  14.718   2.814
51631SOL     OW56789   9.385  13.505   4.597
51631SOL    HW156790   9.332  13.427   4.580
51631SOL    HW256791   9.334  13.556   4.659
51632SOL     OW56792  14.568   0.725   7.291
51632SOL    HW156793  14.604   0.643   7.324
51632SOL    HW256794  14.618   0.793   7.336
51633SOL     OW56795   9.066   3.896  11.080
51633SOL    HW156796   9.049   3.974  11.027
51633SOL    HW256797   9.040   3.823  11.024
51634SOL     OW56798   6.918   6.529   3.846
51634SOL    HW156799   6.864   6.476   3.905
51634SOL    HW256800   6.974   6.465   3.802
51635SOL     OW56801   3.422   1.765   7.025
51635SOL    HW156802   3.447   1.804   6.942
51635SOL    HW256803   3.391   1.677   7.002
51636SOL     OW56804   5.150   7.141   2.733
51636SOL    HW156805   5.201   7.221   2.743
51636SOL    HW256806   5.206   7.072   2.769
51637SOL     OW56807   1.167   6.102   0.251
51637SOL    HW156808   1.177   6.184   0.202
51637SOL    HW256809   1.133   6.040   0.186
51638SOL     OW56810  11.481   5.006   1.507
51638SOL    HW156811  11.503   5.091   1.469
51638SOL    HW256812  11.404   5.023   1.561
51639SOL     OW56813   0.437   6.073   3.135
51639SOL    HW156814   0.482   6.055   3.052
51639SOL    HW256815   0.508   6.090   3.197
51640SOL     OW56816   9.179   7.098   0.131
51640SOL    HW156817   9.141   7.032   0.190
51640SOL    HW256818   9.250   7.137   0.182
51641SOL     OW56819   2.711   0.121   9.573
51641SOL    HW156820   2.663   0.044   9.604
51641SOL    HW256821   2.788   0.125   9.629
51642SOL     OW56822   4.950   2.457   0.049
51642SOL    HW156823   4.899   2.379   0.069
51642SOL    HW256824   4.900   2.529   0.088
51643SOL     OW56825   0.741   9.985   3.803
51643SOL    HW156826   0.672  10.036   3.846
51643SOL    HW256827   0.741   9.901   3.849
51644SOL     OW56828   3.009   0.166   8.841
51644SOL    HW156829   3.027   0.177   8.934
51644SOL    HW256830   3.087   0.201   8.797
51645SOL     OW56831   3.701   4.612   3.852
51645SOL    HW156832   3.627   4.650   3.804
51645SOL    HW256833   3.779   4.643   3.806
51646SOL     OW56834   6.705  12.665   2.393
51646SOL    HW156835   6.705  12.614   2.474
51646SOL    HW256836   6.615  12.696   2.383
51647SOL     OW56837  10.152   5.383  10.968
51647SOL    HW156838  10.233   5.350  11.008
51647SOL    HW256839  10.128   5.315  10.905
51648SOL     OW56840  10.404   4.080   8.901
51648SOL    HW156841  10.385   4.032   8.820
51648SOL    HW256842  10.329   4.138   8.913
51649SOL     OW56843  12.749  11.448   4.322
51649SOL    HW156844  12.682  11.402   4.373
51649SOL    HW256845  12.720  11.440   4.231
51650SOL     OW56846   9.933   0.276   0.393
51650SOL    HW156847   9.991   0.248   0.322
51650SOL    HW256848   9.864   0.210   0.396
51651SOL     OW56849   7.271   4.514  10.711
51651SOL    HW156850   7.361   4.526  10.742
51651SOL    HW256851   7.263   4.572  10.636
51652SOL     OW56852   9.256   2.834   3.421
51652SOL    HW156853   9.181   2.852   3.365
51652SOL    HW256854   9.330   2.825   3.361
51653SOL     OW56855   6.113  11.740   6.961
51653SOL    HW156856   6.039  11.797   6.943
51653SOL    HW256857   6.123  11.742   7.056
51654SOL     OW56858   7.288   0.917  13.377
51654SOL    HW156859   7.292   0.822  13.366
51654SOL    HW256860   7.379   0.945  13.367
51655SOL     OW56861  10.562   3.040   6.276
51655SOL    HW156862  10.480   3.010   6.237
51655SOL    HW256863  10.621   2.965   6.269
51656SOL     OW56864  13.964  11.003  10.890
51656SOL    HW156865  13.932  11.061  10.821
51656SOL    HW256866  13.908  10.925  10.884
51657SOL     OW56867   3.938   3.826  10.348
51657SOL    HW156868   3.900   3.878  10.276
51657SOL    HW256869   3.863   3.782  10.387
51658SOL     OW56870   5.108   5.622   1.867
51658SOL    HW156871   5.030   5.576   1.896
51658SOL    HW256872   5.150   5.562   1.805
51659SOL     OW56873  12.250  11.557   1.459
51659SOL    HW156874  12.191  11.621   1.418
51659SOL    HW256875  12.291  11.605   1.530
51660SOL     OW56876  12.773   5.737  14.229
51660SOL    HW156877  12.862   5.772  14.230
51660SOL    HW256878  12.774   5.671  14.160
51661SOL     OW56879   4.252   9.096   7.934
51661SOL    HW156880   4.278   9.079   7.844
51661SOL    HW256881   4.207   9.017   7.962
51662SOL     OW56882   5.724  13.797   5.176
51662SOL    HW156883   5.795  13.764   5.231
51662SOL    HW256884   5.685  13.868   5.227
51663SOL     OW56885   9.323  14.330   7.738
51663SOL    HW156886   9.258  14.400   7.730
51663SOL    HW256887   9.282  14.253   7.698
51664SOL     OW56888   1.265  14.546   8.978
51664SOL    HW156889   1.193  14.606   8.959
51664SOL    HW256890   1.223  14.464   9.004
51665SOL     OW56891   1.510   2.397   2.129
51665SOL    HW156892   1.585   2.338   2.127
51665SOL    HW256893   1.536   2.468   2.188
51666SOL     OW56894  11.379  14.077   9.562
51666SOL    HW156895  11.291  14.042   9.550
51666SOL    HW256896  11.390  14.139   9.490
51667SOL     OW56897   2.576   3.150   5.264
51667SOL    HW156898   2.612   3.080   5.318
51667SOL    HW256899   2.491   3.118   5.236
51668SOL     OW56900  10.053  10.426   1.059
51668SOL    HW156901  10.000  10.491   1.013
51668SOL    HW256902  10.051  10.454   1.151
51669SOL     OW56903  10.243   4.133   0.665
51669SOL    HW156904  10.214   4.108   0.753
51669SOL    HW256905  10.175   4.099   0.607
51670SOL     OW56906   9.463   4.263   1.063
51670SOL    HW156907   9.492   4.332   1.004
51670SOL    HW256908   9.437   4.192   1.004
51671SOL     OW56909  10.862   3.419   2.674
51671SOL    HW156910  10.920   3.433   2.749
51671SOL    HW256911  10.912   3.450   2.599
51672SOL     OW56912  13.112  10.251  13.096
51672SOL    HW156913  13.123  10.285  13.007
51672SOL    HW256914  13.027  10.285  13.124
51673SOL     OW56915  11.177   2.201   1.243
51673SOL    HW156916  11.254   2.177   1.192
51673SOL    HW256917  11.138   2.274   1.194
51674SOL     OW56918  12.260  10.142   2.128
51674SOL    HW156919  12.185  10.085   2.110
51674SOL    HW256920  12.268  10.141   2.223
51675SOL     OW56921   2.851  11.398   3.785
51675SOL    HW156922   2.926  11.375   3.731
51675SOL    HW256923   2.818  11.480   3.747
51676SOL     OW56924   4.855   3.942  11.908
51676SOL    HW156925   4.847   4.037  11.906
51676SOL    HW256926   4.928   3.922  11.850
51677SOL     OW56927   3.838   3.795   4.816
51677SOL    HW156928   3.846   3.839   4.732
51677SOL    HW256929   3.862   3.862   4.881
51678SOL     OW56930   3.260   9.492   6.290
51678SOL    HW156931   3.236   9.531   6.206
51678SOL    HW256932   3.350   9.462   6.277
51679SOL     OW56933  11.727  14.197  14.815
51679SOL    HW156934  11.738  14.121  14.757
51679SOL    HW256935  11.795  14.186   0.003
51680SOL     OW56936   3.720   6.241   2.512
51680SOL    HW156937   3.670   6.180   2.567
51680SOL    HW256938   3.658   6.267   2.444
51681SOL     OW56939  10.463  13.361   0.384
51681SOL    HW156940  10.429  13.378   0.296
51681SOL    HW256941  10.387  13.370   0.441
51682SOL     OW56942  13.673   3.398  13.081
51682SOL    HW156943  13.632   3.458  13.018
51682SOL    HW256944  13.761   3.384  13.046
51683SOL     OW56945   5.696   9.845   8.771
51683SOL    HW156946   5.735   9.757   8.776
51683SOL    HW256947   5.729   9.881   8.689
51684SOL     OW56948   9.893   0.908   2.390
51684SOL    HW156949   9.848   0.869   2.315
51684SOL    HW256950   9.921   0.833   2.443
51685SOL     OW56951   2.422  13.923   3.780
51685SOL    HW156952   2.393  13.938   3.870
51685SOL    HW256953   2.394  14.002   3.733
51686SOL     OW56954  13.661  14.380  10.248
51686SOL    HW156955  13.649  14.348  10.338
51686SOL    HW256956  13.724  14.319  10.209
51687SOL     OW56957   4.043   4.919   7.579
51687SOL    HW156958   3.979   4.882   7.639
51687SOL    HW256959   4.026   5.014   7.581
51688SOL     OW56960   4.939   9.260   8.821
51688SOL    HW156961   4.968   9.169   8.819
51688SOL    HW256962   4.853   9.259   8.778
51689SOL     OW56963   9.812   5.993   3.803
51689SOL    HW156964   9.772   6.038   3.729
51689SOL    HW256965   9.781   6.040   3.880
51690SOL     OW56966  14.229   7.953  14.675
51690SOL    HW156967  14.288   7.916  14.609
51690SOL    HW256968  14.279   7.950  14.757
51691SOL     OW56969  13.549  11.781   7.365
51691SOL    HW156970  13.574  11.798   7.456
51691SOL    HW256971  13.538  11.867   7.326
51692SOL     OW56972  14.355   5.015  12.450
51692SOL    HW156973  14.339   4.940  12.507
51692SOL    HW256974  14.319   5.090  12.498
51693SOL     OW56975   9.410  10.063  10.100
51693SOL    HW156976   9.450  10.138  10.145
51693SOL    HW256977   9.320  10.090  10.083
51694SOL     OW56978   9.837   1.868   4.961
51694SOL    HW156979   9.918   1.817   4.967
51694SOL    HW256980   9.827   1.907   5.048
51695SOL     OW56981   1.761   5.266   9.176
51695SOL    HW156982   1.835   5.211   9.199
51695SOL    HW256983   1.755   5.260   9.080
51696SOL     OW56984  14.453  12.175   4.699
51696SOL    HW156985  14.547  12.189   4.709
51696SOL    HW256986  14.437  12.184   4.605
51697SOL     OW56987   5.933   7.379   9.966
51697SOL    HW156988   5.921   7.396   9.873
51697SOL    HW256989   5.993   7.304   9.969
51698SOL     OW56990   7.204   3.442  13.500
51698SOL    HW156991   7.263   3.516  13.486
51698SOL    HW256992   7.248   3.389  13.567
51699SOL     OW56993   8.600  14.348   3.440
51699SOL    HW156994   8.645  14.272   3.402
51699SOL    HW256995   8.564  14.395   3.365
51700SOL     OW56996   1.861   9.484   4.337
51700SOL    HW156997   1.925   9.492   4.266
51700SOL    HW256998   1.789   9.433   4.299
51701SOL     OW56999  11.633   6.017   5.654
51701SOL    HW157000  11.549   6.057   5.674
51701SOL    HW257001  11.687   6.036   5.730
51702SOL     OW57002   1.711   6.503  12.727
51702SOL    HW157003   1.762   6.432  12.767
51702SOL    HW257004   1.761   6.582  12.747
51703SOL     OW57005   8.994  10.085   9.835
51703SOL    HW157006   8.937  10.138   9.891
51703SOL    HW257007   8.982  10.121   9.747
51704SOL     OW57008   4.351   3.118  12.285
51704SOL    HW157009   4.352   3.077  12.371
51704SOL    HW257010   4.352   3.212  12.303
51705SOL     OW57011  14.076   7.948   7.901
51705SOL    HW157012  13.997   7.999   7.922
51705SOL    HW257013  14.118   7.997   7.830
51706SOL     OW57014   4.544   1.798   6.324
51706SOL    HW157015   4.456   1.783   6.358
51706SOL    HW257016   4.592   1.839   6.396
51707SOL     OW57017  12.780  12.337   2.715
51707SOL    HW157018  12.696  12.370   2.685
51707SOL    HW257019  12.845  12.394   2.673
51708SOL     OW57020  13.388   9.894  12.388
51708SOL    HW157021  13.318   9.943  12.344
51708SOL    HW257022  13.352   9.807  12.400
51709SOL     OW57023  11.673   0.086   3.045
51709SOL    HW157024  11.619   0.008   3.027
51709SOL    HW257025  11.670   0.136   2.964
51710SOL     OW57026   4.349  11.567   0.412
51710SOL    HW157027   4.335  11.557   0.318
51710SOL    HW257028   4.442  11.589   0.420
51711SOL     OW57029   0.000   3.558   8.355
51711SOL    HW157030   0.077   3.548   8.299
51711SOL    HW257031  14.870   3.653   8.364
51712SOL     OW57032  10.971   6.664   3.848
51712SOL    HW157033  11.061   6.656   3.881
51712SOL    HW257034  10.948   6.575   3.820
51713SOL     OW57035  14.840   6.085   0.106
51713SOL    HW157036   0.027   6.134   0.057
51713SOL    HW257037  14.758   6.130   0.086
51714SOL     OW57038  13.332  10.927  13.968
51714SOL    HW157039  13.325  10.875  13.888
51714SOL    HW257040  13.265  10.891  14.026
51715SOL     OW57041   2.213   8.420  13.620
51715SOL    HW157042   2.193   8.385  13.533
51715SOL    HW257043   2.301   8.456  13.613
51716SOL     OW57044  10.962   0.493   7.589
51716SOL    HW157045  11.032   0.428   7.594
51716SOL    HW257046  10.886   0.450   7.628
51717SOL     OW57047   6.090   3.303   9.368
51717SOL    HW157048   6.021   3.268   9.425
51717SOL    HW257049   6.057   3.389   9.340
51718SOL     OW57050  14.016  11.658   8.084
51718SOL    HW157051  13.943  11.638   8.142
51718SOL    HW257052  13.988  11.735   8.035
51719SOL     OW57053   3.645  12.560   2.568
51719SOL    HW157054   3.585  12.527   2.502
51719SOL    HW257055   3.645  12.494   2.637
51720SOL     OW57056  12.267  13.668   7.145
51720SOL    HW157057  12.275  13.611   7.222
51720SOL    HW257058  12.256  13.608   7.071
51721SOL     OW57059  14.245   0.356   2.809
51721SOL    HW157060  14.218   0.273   2.847
51721SOL    HW257061  14.195   0.364   2.728
51722SOL     OW57062   3.758   6.983   5.963
51722SOL    HW157063   3.727   7.049   5.902
51722SOL    HW257064   3.846   6.960   5.932
51723SOL     OW57065  10.151   3.528   8.410
51723SOL    HW157066  10.217   3.590   8.380
51723SOL    HW257067  10.077   3.583   8.436
51724SOL     OW57068  10.929  13.836  13.813
51724SOL    HW157069  10.914  13.820  13.906
51724SOL    HW257070  11.005  13.782  13.791
51725SOL     OW57071   6.960  13.021   5.292
51725SOL    HW157072   6.929  13.029   5.202
51725SOL    HW257073   6.880  13.026   5.344
51726SOL     OW57074  14.175   1.645   3.057
51726SOL    HW157075  14.254   1.688   3.090
51726SOL    HW257076  14.157   1.689   2.974
51727SOL     OW57077  11.082  12.561  11.132
51727SOL    HW157078  11.050  12.547  11.222
51727SOL    HW257079  11.153  12.625  11.142
51728SOL     OW57080   5.017  12.762   5.296
51728SOL    HW157081   5.014  12.728   5.206
51728SOL    HW257082   4.930  12.744   5.332
51729SOL     OW57083  11.788  13.130  11.537
51729SOL    HW157084  11.861  13.081  11.575
51729SOL    HW257085  11.822  13.219  11.526
51730SOL     OW57086   0.356  10.468   3.927
51730SOL    HW157087   0.383  10.511   4.008
51730SOL    HW257088   0.297  10.531   3.885
51731SOL     OW57089   3.711  13.508   0.466
51731SOL    HW157090   3.801  13.538   0.461
51731SOL    HW257091   3.658  13.588   0.465
51732SOL     OW57092   2.278  12.679  11.893
51732SOL    HW157093   2.358  12.728  11.875
51732SOL    HW257094   2.308  12.592  11.917
51733SOL     OW57095   2.045   6.289   0.159
51733SOL    HW157096   1.950   6.273   0.160
51733SOL    HW257097   2.074   6.262   0.246
51734SOL     OW57098  13.312   3.391   5.030
51734SOL    HW157099  13.385   3.450   5.012
51734SOL    HW257100  13.242   3.447   5.061
51735SOL     OW57101  14.152  11.196   0.106
51735SOL    HW157102  14.102  11.219   0.028
51735SOL    HW257103  14.243  11.219   0.084
51736SOL     OW57104   0.570   3.467   7.961
51736SOL    HW157105   0.591   3.380   7.994
51736SOL    HW257106   0.644   3.490   7.906
51737SOL     OW57107  11.789   7.507   3.807
51737SOL    HW157108  11.781   7.425   3.856
51737SOL    HW257109  11.724   7.499   3.737
51738SOL     OW57110   0.412   6.436   5.880
51738SOL    HW157111   0.501   6.421   5.913
51738SOL    HW257112   0.419   6.425   5.785
51739SOL     OW57113  13.534   4.008   1.460
51739SOL    HW157114  13.554   3.969   1.545
51739SOL    HW257115  13.617   4.005   1.412
51740SOL     OW57116   7.577  14.447   1.356
51740SOL    HW157117   7.569  14.426   1.262
51740SOL    HW257118   7.487  14.465   1.384
51741SOL     OW57119  10.969   2.550  11.831
51741SOL    HW157120  10.921   2.632  11.825
51741SOL    HW257121  10.921   2.497  11.894
51742SOL     OW57122   2.762   7.291   8.842
51742SOL    HW157123   2.796   7.302   8.754
51742SOL    HW257124   2.832   7.247   8.890
51743SOL     OW57125  13.330  10.311   2.224
51743SOL    HW157126  13.400  10.364   2.186
51743SOL    HW257127  13.307  10.357   2.305
51744SOL     OW57128   9.322  10.392   5.246
51744SOL    HW157129   9.258  10.455   5.279
51744SOL    HW257130   9.374  10.442   5.183
51745SOL     OW57131   8.251   1.548   1.325
51745SOL    HW157132   8.297   1.474   1.364
51745SOL    HW257133   8.275   1.546   1.232
51746SOL     OW57134  11.684   6.796   2.808
51746SOL    HW157135  11.688   6.862   2.877
51746SOL    HW257136  11.594   6.800   2.776
51747SOL     OW57137   0.838   5.850   5.221
51747SOL    HW157138   0.863   5.764   5.253
51747SOL    HW257139   0.848   5.908   5.297
51748SOL     OW57140   0.763   2.054   2.215
51748SOL    HW157141   0.804   1.990   2.157
51748SOL    HW257142   0.806   2.137   2.194
51749SOL     OW57143  14.543   0.154   8.697
51749SOL    HW157144  14.616   0.214   8.680
51749SOL    HW257145  14.492   0.197   8.765
51750SOL     OW57146   4.963  13.830   4.036
51750SOL    HW157147   4.972  13.851   3.943
51750SOL    HW257148   4.868  13.829   4.051
51751SOL     OW57149  10.591   4.565   7.858
51751SOL    HW157150  10.565   4.526   7.941
51751SOL    HW257151  10.510   4.572   7.808
51752SOL     OW57152   2.509   1.095  14.290
51752SOL    HW157153   2.488   1.177  14.245
51752SOL    HW257154   2.602   1.101  14.308
51753SOL     OW57155   5.132   5.608   3.106
51753SOL    HW157156   5.085   5.545   3.161
51753SOL    HW257157   5.224   5.590   3.124
51754SOL     OW57158   2.576   7.535   4.204
51754SOL    HW157159   2.486   7.510   4.182
51754SOL    HW257160   2.620   7.540   4.119
51755SOL     OW57161  10.018   0.289  12.205
51755SOL    HW157162  10.111   0.301  12.225
51755SOL    HW257163  10.007   0.195  12.197
51756SOL     OW57164   0.089   9.059   8.061
51756SOL    HW157165   0.033   9.020   8.128
51756SOL    HW257166   0.155   9.109   8.110
51757SOL     OW57167   5.915  11.432   9.932
51757SOL    HW157168   5.981  11.501   9.941
51757SOL    HW257169   5.867  11.456   9.852
51758SOL     OW57170  14.227   2.336  11.914
51758SOL    HW157171  14.196   2.414  11.867
51758SOL    HW257172  14.172   2.265  11.880
51759SOL     OW57173   0.719   9.170   7.258
51759SOL    HW157174   0.655   9.222   7.211
51759SOL    HW257175   0.668   9.120   7.321
51760SOL     OW57176  13.607  10.943  13.449
51760SOL    HW157177  13.624  11.029  13.412
51760SOL    HW257178  13.571  10.961  13.536
51761SOL     OW57179   2.113  12.677   4.089
51761SOL    HW157180   2.148  12.764   4.072
51761SOL    HW257181   2.144  12.624   4.016
51762SOL     OW57182   8.374   5.489   3.178
51762SOL    HW157183   8.365   5.479   3.083
51762SOL    HW257184   8.287   5.471   3.212
51763SOL     OW57185   1.387   9.850   4.413
51763SOL    HW157186   1.348   9.851   4.325
51763SOL    HW257187   1.454   9.782   4.408
51764SOL     OW57188   1.233  11.457  10.981
51764SOL    HW157189   1.208  11.389  11.043
51764SOL    HW257190   1.328  11.454  10.978
51765SOL     OW57191   7.633  10.162   5.207
51765SOL    HW157192   7.634  10.093   5.273
51765SOL    HW257193   7.673  10.238   5.252
51766SOL     OW57194   2.559   8.563   9.216
51766SOL    HW157195   2.516   8.589   9.298
51766SOL    HW257196   2.498   8.502   9.175
51767SOL     OW57197  13.781   7.343   5.357
51767SOL    HW157198  13.685   7.348   5.362
51767SOL    HW257199  13.809   7.435   5.359
51768SOL     OW57200  11.515  14.038  10.256
51768SOL    HW157201  11.509  13.942  10.255
51768SOL    HW257202  11.594  14.057  10.206
51769SOL     OW57203   0.975   3.750   3.292
51769SOL    HW157204   1.025   3.696   3.231
51769SOL    HW257205   1.040   3.808   3.331
51770SOL     OW57206   4.742  12.499  13.926
51770SOL    HW157207   4.782  12.559  13.989
51770SOL    HW257208   4.718  12.555  13.852
51771SOL     OW57209   8.321  10.682  13.532
51771SOL    HW157210   8.246  10.742  13.529
51771SOL    HW257211   8.298  10.611  13.473
51772SOL     OW57212   3.027  10.677   5.099
51772SOL    HW157213   3.029  10.714   5.188
51772SOL    HW257214   3.080  10.738   5.047
51773SOL     OW57215   6.307   6.920  10.454
51773SOL    HW157216   6.338   7.009  10.438
51773SOL    HW257217   6.366   6.864  10.403
51774SOL     OW57218   8.551  10.183   9.565
51774SOL    HW157219   8.469  10.228   9.542
51774SOL    HW257220   8.544  10.098   9.523
51775SOL     OW57221   4.471   3.323  10.520
51775SOL    HW157222   4.423   3.240  10.516
51775SOL    HW257223   4.563   3.298  10.512
51776SOL     OW57224  10.617   4.109  11.668
51776SOL    HW157225  10.533   4.114  11.713
51776SOL    HW257226  10.647   4.199  11.663
51777SOL     OW57227  12.141   9.065   4.600
51777SOL    HW157228  12.087   9.056   4.521
51777SOL    HW257229  12.156   9.159   4.608
51778SOL     OW57230   4.769  14.320   1.932
51778SOL    HW157231   4.769  14.277   2.017
51778SOL    HW257232   4.693  14.283   1.886
51779SOL     OW57233   3.988  14.706  11.387
51779SOL    HW157234   4.064  14.697  11.329
51779SOL    HW257235   4.027  14.722  11.473
51780SOL     OW57236   5.230   5.665   8.616
51780SOL    HW157237   5.281   5.698   8.542
51780SOL    HW257238   5.142   5.651   8.580
51781SOL     OW57239   8.283  13.224  13.227
51781SOL    HW157240   8.231  13.187  13.156
51781SOL    HW257241   8.249  13.312  13.239
51782SOL     OW57242  13.962   4.843   2.259
51782SOL    HW157243  13.985   4.817   2.347
51782SOL    HW257244  13.886   4.789   2.237
51783SOL     OW57245  10.838  13.050   1.937
51783SOL    HW157246  10.802  13.135   1.962
51783SOL    HW257247  10.838  13.051   1.841
51784SOL     OW57248   2.341   0.392   6.292
51784SOL    HW157249   2.255   0.429   6.270
51784SOL    HW257250   2.339   0.304   6.255
51785SOL     OW57251  13.386   5.649  11.181
51785SOL    HW157252  13.423   5.563  11.200
51785SOL    HW257253  13.323   5.633  11.111
51786SOL     OW57254  13.460   6.260   6.988
51786SOL    HW157255  13.379   6.263   6.937
51786SOL    HW257256  13.514   6.194   6.945
51787SOL     OW57257   2.561  14.547   6.206
51787SOL    HW157258   2.560  14.470   6.262
51787SOL    HW257259   2.487  14.600   6.236
51788SOL     OW57260  11.281  14.059   0.295
51788SOL    HW157261  11.255  14.117   0.367
51788SOL    HW257262  11.374  14.042   0.311
51789SOL     OW57263   4.558   0.914  13.857
51789SOL    HW157264   4.532   0.889  13.768
51789SOL    HW257265   4.616   0.843  13.886
51790SOL     OW57266   1.684  14.370   2.473
51790SOL    HW157267   1.713  14.353   2.383
51790SOL    HW257268   1.683  14.465   2.480
51791SOL     OW57269   0.567   4.071  13.883
51791SOL    HW157270   0.487   4.120  13.863
51791SOL    HW257271   0.638   4.133  13.867
51792SOL     OW57272  10.536  12.555  13.399
51792SOL    HW157273  10.586  12.629  13.434
51792SOL    HW257274  10.580  12.478  13.434
51793SOL     OW57275  11.735   5.693   8.568
51793SOL    HW157276  11.747   5.601   8.542
51793SOL    HW257277  11.665   5.725   8.511
51794SOL     OW57278   8.095  13.333   3.438
51794SOL    HW157279   8.066  13.250   3.477
51794SOL    HW257280   8.129  13.309   3.352
51795SOL     OW57281   4.237   2.799  14.066
51795SOL    HW157282   4.203   2.744  13.995
51795SOL    HW257283   4.330   2.776  14.072
51796SOL     OW57284   8.734   4.512   9.434
51796SOL    HW157285   8.706   4.426   9.402
51796SOL    HW257286   8.827   4.516   9.414
51797SOL     OW57287   9.393  14.414   5.783
51797SOL    HW157288   9.452  14.410   5.707
51797SOL    HW257289   9.387  14.507   5.803
51798SOL     OW57290   3.225   5.644   8.980
51798SOL    HW157291   3.314   5.677   8.973
51798SOL    HW257292   3.171   5.721   8.996
51799SOL     OW57293  12.691   7.672   5.349
51799SOL    HW157294  12.661   7.742   5.407
51799SOL    HW257295  12.684   7.709   5.261
51800SOL     OW57296  12.523   5.851   8.761
51800SOL    HW157297  12.597   5.801   8.798
51800SOL    HW257298  12.458   5.784   8.740
51801SOL     OW57299   3.046   4.137  11.975
51801SOL    HW157300   2.970   4.183  12.010
51801SOL    HW257301   3.117   4.200  11.981
51802SOL     OW57302   8.933   6.055  14.226
51802SOL    HW157303   8.975   6.136  14.257
51802SOL    HW257304   8.995   6.019  14.162
51803SOL     OW57305   3.974  13.604   2.031
51803SOL    HW157306   3.899  13.660   2.010
51803SOL    HW257307   4.041  13.666   2.062
51804SOL     OW57308   1.855   8.397  13.592
51804SOL    HW157309   1.874   8.380  13.500
51804SOL    HW257310   1.901   8.479  13.611
51805SOL     OW57311   3.595   1.415  14.293
51805SOL    HW157312   3.559   1.338  14.337
51805SOL    HW257313   3.685   1.391  14.272
51806SOL     OW57314   1.691   3.038  14.491
51806SOL    HW157315   1.760   3.101  14.474
51806SOL    HW257316   1.666   3.005  14.404
51807SOL     OW57317   5.755  12.957   1.322
51807SOL    HW157318   5.787  12.928   1.236
51807SOL    HW257319   5.827  12.936   1.382
51808SOL     OW57320  13.172  10.384   9.504
51808SOL    HW157321  13.217  10.387   9.420
51808SOL    HW257322  13.079  10.393   9.482
51809SOL     OW57323   1.288  14.571   8.187
51809SOL    HW157324   1.340  14.622   8.250
51809SOL    HW257325   1.348  14.503   8.157
51810SOL     OW57326   8.313  10.227   5.315
51810SOL    HW157327   8.264  10.145   5.305
51810SOL    HW257328   8.394  10.202   5.359
51811SOL     OW57329  10.003  13.221  12.803
51811SOL    HW157330  10.093  13.233  12.832
51811SOL    HW257331   9.974  13.308  12.778
51812SOL     OW57332   3.845  12.303   1.569
51812SOL    HW157333   3.875  12.227   1.619
51812SOL    HW257334   3.749  12.295   1.568
51813SOL     OW57335   8.830   7.399  10.054
51813SOL    HW157336   8.884   7.477  10.047
51813SOL    HW257337   8.818   7.370   9.964
51814SOL     OW57338   0.146  11.073   9.273
51814SOL    HW157339   0.131  10.994   9.325
51814SOL    HW257340   0.170  11.041   9.186
51815SOL     OW57341  13.851   7.377  10.542
51815SOL    HW157342  13.822   7.447  10.601
51815SOL    HW257343  13.880   7.422  10.463
51816SOL     OW57344   8.391  10.307   6.498
51816SOL    HW157345   8.353  10.394   6.493
51816SOL    HW257346   8.404  10.281   6.406
51817SOL     OW57347   7.694   8.171  11.783
51817SOL    HW157348   7.765   8.171  11.847
51817SOL    HW257349   7.732   8.132  11.705
51818SOL     OW57350  11.150   4.385  12.630
51818SOL    HW157351  11.145   4.370  12.535
51818SOL    HW257352  11.188   4.473  12.637
51819SOL     OW57353   2.514   6.847   3.408
51819SOL    HW157354   2.490   6.806   3.325
51819SOL    HW257355   2.545   6.775   3.462
51820SOL     OW57356  13.895   5.679   5.382
51820SOL    HW157357  13.988   5.696   5.370
51820SOL    HW257358  13.889   5.635   5.467
51821SOL     OW57359   6.302   3.537   3.590
51821SOL    HW157360   6.278   3.452   3.554
51821SOL    HW257361   6.289   3.599   3.519
51822SOL     OW57362   0.757   2.055   9.809
51822SOL    HW157363   0.731   2.085   9.722
51822SOL    HW257364   0.723   1.966   9.814
51823SOL     OW57365  14.291   4.382  11.789
51823SOL    HW157366  14.218   4.444  11.780
51823SOL    HW257367  14.327   4.376  11.700
51824SOL     OW57368   4.728  14.132  11.173
51824SOL    HW157369   4.695  14.055  11.221
51824SOL    HW257370   4.701  14.117  11.083
51825SOL     OW57371   9.476   7.232  10.486
51825SOL    HW157372   9.571   7.226  10.485
51825SOL    HW257373   9.458   7.298  10.554
51826SOL     OW57374  11.556   7.621   2.160
51826SOL    HW157375  11.585   7.593   2.246
51826SOL    HW257376  11.466   7.650   2.172
51827SOL     OW57377   8.010   5.601   1.293
51827SOL    HW157378   8.064   5.597   1.214
51827SOL    HW257379   8.072   5.620   1.363
51828SOL     OW57380   6.163   2.474   7.368
51828SOL    HW157381   6.095   2.421   7.409
51828SOL    HW257382   6.216   2.411   7.319
51829SOL     OW57383   1.464   3.077   4.040
51829SOL    HW157384   1.478   3.116   3.954
51829SOL    HW257385   1.505   2.991   4.036
51830SOL     OW57386   8.503   1.767   9.186
51830SOL    HW157387   8.511   1.751   9.092
51830SOL    HW257388   8.427   1.715   9.212
51831SOL     OW57389   1.640   3.619  14.209
51831SOL    HW157390   1.721   3.622  14.260
51831SOL    HW257391   1.574   3.588  14.270
51832SOL     OW57392  11.421  10.686  12.651
51832SOL    HW157393  11.500  10.655  12.606
51832SOL    HW257394  11.432  10.781  12.655
51833SOL     OW57395  10.807   0.417  13.989
51833SOL    HW157396  10.809   0.510  13.969
51833SOL    HW257397  10.725   0.404  14.037
51834SOL     OW57398   6.874   2.149  10.719
51834SOL    HW157399   6.834   2.083  10.775
51834SOL    HW257400   6.895   2.221  10.777
51835SOL     OW57401   7.250  13.832   9.989
51835SOL    HW157402   7.292  13.848   9.905
51835SOL    HW257403   7.323  13.830  10.052
51836SOL     OW57404   8.288  12.255   0.679
51836SOL    HW157405   8.265  12.291   0.765
51836SOL    HW257406   8.382  12.238   0.684
51837SOL     OW57407   6.808   1.302   1.481
51837SOL    HW157408   6.758   1.331   1.405
51837SOL    HW257409   6.747   1.309   1.555
51838SOL     OW57410   9.443   1.431   7.435
51838SOL    HW157411   9.416   1.523   7.434
51838SOL    HW257412   9.519   1.429   7.494
51839SOL     OW57413  12.721   3.699   0.577
51839SOL    HW157414  12.659   3.640   0.619
51839SOL    HW257415  12.720   3.675   0.485
51840SOL     OW57416  12.019  10.623  12.746
51840SOL    HW157417  12.028  10.552  12.683
51840SOL    HW257418  12.017  10.580  12.831
51841SOL     OW57419   8.441   0.697   7.337
51841SOL    HW157420   8.357   0.744   7.336
51841SOL    HW257421   8.418   0.605   7.329
51842SOL     OW57422  12.696   8.971   4.159
51842SOL    HW157423  12.714   9.002   4.247
51842SOL    HW257424  12.623   8.910   4.169
51843SOL     OW57425   3.074   3.752  12.685
51843SOL    HW157426   3.136   3.825  12.698
51843SOL    HW257427   3.047   3.760  12.593
51844SOL     OW57428   9.085  11.894   2.483
51844SOL    HW157429   9.155  11.948   2.445
51844SOL    HW257430   9.126  11.852   2.559
51845SOL     OW57431   8.508  13.815   7.256
51845SOL    HW157432   8.547  13.739   7.212
51845SOL    HW257433   8.447  13.776   7.319
51846SOL     OW57434  13.326   0.246   1.055
51846SOL    HW157435  13.389   0.312   1.081
51846SOL    HW257436  13.379   0.177   1.013
51847SOL     OW57437  10.233  11.466  11.498
51847SOL    HW157438  10.146  11.504  11.483
51847SOL    HW257439  10.218  11.398  11.564
51848SOL     OW57440   7.233  12.820  10.367
51848SOL    HW157441   7.320  12.843  10.402
51848SOL    HW257442   7.205  12.898  10.320
51849SOL     OW57443  14.352  13.227   7.442
51849SOL    HW157444  14.405  13.291   7.395
51849SOL    HW257445  14.386  13.142   7.415
51850SOL     OW57446  13.388   0.360   9.054
51850SOL    HW157447  13.385   0.415   8.976
51850SOL    HW257448  13.470   0.383   9.098
51851SOL     OW57449   4.205   0.885  11.659
51851SOL    HW157450   4.164   0.959  11.614
51851SOL    HW257451   4.137   0.853  11.719
51852SOL     OW57452   7.000   4.824   5.673
51852SOL    HW157453   6.973   4.752   5.616
51852SOL    HW257454   6.965   4.801   5.759
51853SOL     OW57455   0.531   4.016   7.953
51853SOL    HW157456   0.557   4.085   8.013
51853SOL    HW257457   0.578   3.938   7.984
51854SOL     OW57458   1.301   8.201   2.792
51854SOL    HW157459   1.325   8.111   2.816
51854SOL    HW257460   1.268   8.195   2.703
51855SOL     OW57461   3.471   1.810   1.070
51855SOL    HW157462   3.454   1.904   1.063
51855SOL    HW257463   3.538   1.803   1.139
51856SOL     OW57464   4.370   4.659   6.464
51856SOL    HW157465   4.413   4.715   6.528
51856SOL    HW257466   4.277   4.667   6.483
51857SOL     OW57467  13.962   6.654   2.501
51857SOL    HW157468  14.043   6.686   2.460
51857SOL    HW257469  13.986   6.638   2.592
51858SOL     OW57470   5.566   9.270  14.429
51858SOL    HW157471   5.610   9.349  14.459
51858SOL    HW257472   5.611   9.198  14.474
51859SOL     OW57473   7.541   1.707  14.517
51859SOL    HW157474   7.518   1.712  14.609
51859SOL    HW257475   7.544   1.798  14.487
51860SOL     OW57476   8.551   0.807  10.441
51860SOL    HW157477   8.510   0.854  10.368
51860SOL    HW257478   8.645   0.815  10.425
51861SOL     OW57479  11.419   8.889   3.741
51861SOL    HW157480  11.481   8.939   3.688
51861SOL    HW257481  11.344   8.875   3.682
51862SOL     OW57482   3.895  12.523   0.724
51862SOL    HW157483   3.910  12.595   0.785
51862SOL    HW257484   3.823  12.473   0.763
51863SOL     OW57485  11.818  11.182   9.820
51863SOL    HW157486  11.806  11.110   9.759
51863SOL    HW257487  11.766  11.254   9.784
51864SOL     OW57488   7.697   8.321   1.786
51864SOL    HW157489   7.654   8.264   1.850
51864SOL    HW257490   7.778   8.275   1.763
51865SOL     OW57491   9.498  13.625  14.760
51865SOL    HW157492   9.538  13.553  14.712
51865SOL    HW257493   9.417  13.643  14.711
51866SOL     OW57494  13.243   1.719   1.314
51866SOL    HW157495  13.157   1.758   1.300
51866SOL    HW257496  13.304   1.791   1.304
51867SOL     OW57497   2.323   7.584  11.568
51867SOL    HW157498   2.236   7.614  11.542
51867SOL    HW257499   2.314   7.490  11.578
51868SOL     OW57500   9.763   0.315   4.009
51868SOL    HW157501   9.767   0.397   3.960
51868SOL    HW257502   9.705   0.334   4.083
51869SOL     OW57503   8.653  13.234   8.134
51869SOL    HW157504   8.740  13.264   8.158
51869SOL    HW257505   8.658  13.215   8.041
51870SOL     OW57506   8.039   4.109   7.505
51870SOL    HW157507   8.116   4.097   7.450
51870SOL    HW257508   8.030   4.204   7.513
51871SOL     OW57509  10.584   6.310   8.387
51871SOL    HW157510  10.550   6.347   8.306
51871SOL    HW257511  10.679   6.314   8.377
51872SOL     OW57512  11.431  14.231   1.564
51872SOL    HW157513  11.355  14.288   1.576
51872SOL    HW257514  11.447  14.196   1.652
51873SOL     OW57515  14.467  12.550   7.197
51873SOL    HW157516  14.544  12.566   7.143
51873SOL    HW257517  14.475  12.612   7.269
51874SOL     OW57518   7.429   4.648  10.164
51874SOL    HW157519   7.430   4.619  10.072
51874SOL    HW257520   7.440   4.743  10.159
51875SOL     OW57521  13.543   9.969  13.355
51875SOL    HW157522  13.531   9.896  13.415
51875SOL    HW257523  13.497  10.042  13.396
51876SOL     OW57524   2.466   2.603   9.141
51876SOL    HW157525   2.470   2.577   9.049
51876SOL    HW257526   2.485   2.522   9.189
51877SOL     OW57527   3.831   8.153   5.099
51877SOL    HW157528   3.781   8.095   5.156
51877SOL    HW257529   3.889   8.200   5.159
51878SOL     OW57530  13.117   1.748   5.644
51878SOL    HW157531  13.061   1.825   5.652
51878SOL    HW257532  13.128   1.718   5.734
51879SOL     OW57533   2.494   0.905   2.635
51879SOL    HW157534   2.444   0.849   2.575
51879SOL    HW257535   2.437   0.915   2.711
51880SOL     OW57536  13.854   4.260  14.279
51880SOL    HW157537  13.767   4.300  14.274
51880SOL    HW257538  13.853   4.192  14.212
51881SOL     OW57539  13.684   7.627   5.454
51881SOL    HW157540  13.723   7.700   5.405
51881SOL    HW257541  13.590   7.636   5.440
51882SOL     OW57542  11.218   7.865   8.397
51882SOL    HW157543  11.232   7.774   8.425
51882SOL    HW257544  11.162   7.858   8.320
51883SOL     OW57545   5.568   8.533   4.701
51883SOL    HW157546   5.629   8.607   4.707
51883SOL    HW257547   5.584   8.496   4.615
51884SOL     OW57548  13.595   5.337  12.930
51884SOL    HW157549  13.506   5.335  12.965
51884SOL    HW257550  13.620   5.430  12.934
51885SOL     OW57551   8.420  12.818   9.228
51885SOL    HW157552   8.461  12.875   9.294
51885SOL    HW257553   8.445  12.730   9.254
51886SOL     OW57554  14.199   0.511   1.800
51886SOL    HW157555  14.215   0.436   1.742
51886SOL    HW257556  14.162   0.578   1.743
51887SOL     OW57557  14.324  11.145  11.510
51887SOL    HW157558  14.337  11.122  11.602
51887SOL    HW257559  14.342  11.239  11.506
51888SOL     OW57560   3.122   4.461   9.814
51888SOL    HW157561   3.076   4.415   9.743
51888SOL    HW257562   3.214   4.461   9.785
51889SOL     OW57563   5.567   5.692   0.577
51889SOL    HW157564   5.587   5.738   0.496
51889SOL    HW257565   5.627   5.728   0.642
51890SOL     OW57566   7.228  11.487   8.784
51890SOL    HW157567   7.263  11.483   8.873
51890SOL    HW257568   7.199  11.578   8.773
51891SOL     OW57569   4.568  10.568  11.868
51891SOL    HW157570   4.537  10.564  11.958
51891SOL    HW257571   4.639  10.632  11.870
51892SOL     OW57572   8.927   9.272  14.535
51892SOL    HW157573   8.951   9.189  14.495
51892SOL    HW257574   8.846   9.299  14.491
51893SOL     OW57575  12.729  10.930  13.156
51893SOL    HW157576  12.767  10.917  13.069
51893SOL    HW257577  12.641  10.963  13.139
51894SOL     OW57578   8.934   6.645  10.506
51894SOL    HW157579   8.998   6.640  10.577
51894SOL    HW257580   8.855   6.680  10.547
51895SOL     OW57581   9.378   9.068   8.777
51895SOL    HW157582   9.414   9.038   8.861
51895SOL    HW257583   9.290   9.097   8.798
51896SOL     OW57584  13.163   3.807   7.098
51896SOL    HW157585  13.210   3.747   7.156
51896SOL    HW257586  13.187   3.779   7.009
51897SOL     OW57587  14.515   7.358   5.611
51897SOL    HW157588  14.476   7.273   5.589
51897SOL    HW257589  14.469   7.421   5.556
51898SOL     OW57590   8.824   7.173  13.111
51898SOL    HW157591   8.888   7.129  13.055
51898SOL    HW257592   8.822   7.120  13.190
51899SOL     OW57593   6.267   4.817  10.722
51899SOL    HW157594   6.307   4.757  10.785
51899SOL    HW257595   6.289   4.904  10.753
51900SOL     OW57596  14.338   9.285   9.130
51900SOL    HW157597  14.357   9.339   9.207
51900SOL    HW257598  14.375   9.333   9.057
51901SOL     OW57599   4.088  14.011   2.596
51901SOL    HW157600   4.142  14.082   2.630
51901SOL    HW257601   4.032  13.986   2.670
51902SOL     OW57602  14.549   7.635  12.483
51902SOL    HW157603  14.460   7.614  12.457
51902SOL    HW257604  14.565   7.722  12.446
51903SOL     OW57605  11.606   7.980   0.685
51903SOL    HW157606  11.600   8.074   0.667
51903SOL    HW257607  11.524   7.944   0.651
51904SOL     OW57608  10.345   1.430   8.931
51904SOL    HW157609  10.272   1.394   8.881
51904SOL    HW257610  10.364   1.514   8.889
51905SOL     OW57611   2.581   7.603  11.461
51905SOL    HW157612   2.502   7.575  11.507
51905SOL    HW257613   2.652   7.558  11.507
51906SOL     OW57614  11.743   4.038   9.697
51906SOL    HW157615  11.704   4.106   9.753
51906SOL    HW257616  11.676   4.021   9.630
51907SOL     OW57617   5.867   4.072   1.919
51907SOL    HW157618   5.925   4.065   1.844
51907SOL    HW257619   5.917   4.034   1.992
51908SOL     OW57620   2.220  10.750   6.932
51908SOL    HW157621   2.239  10.718   6.844
51908SOL    HW257622   2.126  10.768   6.932
51909SOL     OW57623   9.904   2.944  10.268
51909SOL    HW157624   9.977   2.887  10.244
51909SOL    HW257625   9.831   2.914  10.215
51910SOL     OW57626  12.987  10.530   4.460
51910SOL    HW157627  12.938  10.604   4.495
51910SOL    HW257628  13.037  10.567   4.387
51911SOL     OW57629  13.674   0.367   6.530
51911SOL    HW157630  13.595   0.315   6.536
51911SOL    HW257631  13.671   0.405   6.442
51912SOL     OW57632   0.075  10.343   1.170
51912SOL    HW157633   0.029  10.383   1.244
51912SOL    HW257634   0.007  10.319   1.108
51913SOL     OW57635  10.406   2.327   6.334
51913SOL    HW157636  10.476   2.326   6.399
51913SOL    HW257637  10.325   2.320   6.386
51914SOL     OW57638  11.862   2.931  13.995
51914SOL    HW157639  11.818   2.996  13.940
51914SOL    HW257640  11.793   2.869  14.018
51915SOL     OW57641  11.969   5.230  14.115
51915SOL    HW157642  11.910   5.245  14.189
51915SOL    HW257643  11.914   5.185  14.050
51916SOL     OW57644  10.342  11.055   8.904
51916SOL    HW157645  10.346  10.988   8.973
51916SOL    HW257646  10.249  11.060   8.882
51917SOL     OW57647  11.302   8.605   7.273
51917SOL    HW157648  11.209   8.626   7.264
51917SOL    HW257649  11.315   8.529   7.217
51918SOL     OW57650   6.334   6.156   7.566
51918SOL    HW157651   6.391   6.124   7.497
51918SOL    HW257652   6.327   6.082   7.627
51919SOL     OW57653  10.730  10.604   4.377
51919SOL    HW157654  10.641  10.570   4.376
51919SOL    HW257655  10.759  10.590   4.468
51920SOL     OW57656   2.304   6.569   4.105
51920SOL    HW157657   2.251   6.563   4.025
51920SOL    HW257658   2.242   6.598   4.172
51921SOL     OW57659   4.962   0.747   2.781
51921SOL    HW157660   4.922   0.731   2.695
51921SOL    HW257661   4.970   0.660   2.820
51922SOL     OW57662   1.110  13.681   5.781
51922SOL    HW157663   1.069  13.767   5.784
51922SOL    HW257664   1.109  13.657   5.688
51923SOL     OW57665   8.588   1.943  11.702
51923SOL    HW157666   8.529   1.872  11.680
51923SOL    HW257667   8.632   1.914  11.782
51924SOL     OW57668   9.740   7.371  12.839
51924SOL    HW157669   9.667   7.429  12.861
51924SOL    HW257670   9.799   7.375  12.914
51925SOL     OW57671   2.507   9.034  13.793
51925SOL    HW157672   2.477   9.124  13.786
51925SOL    HW257673   2.599   9.042  13.820
51926SOL     OW57674  13.067  12.671   4.710
51926SOL    HW157675  13.074  12.759   4.672
51926SOL    HW257676  12.994  12.678   4.772
51927SOL     OW57677  11.193  11.970   5.879
51927SOL    HW157678  11.256  11.982   5.951
51927SOL    HW257679  11.192  12.054   5.834
51928SOL     OW57680   0.709   5.511   1.432
51928SOL    HW157681   0.723   5.418   1.451
51928SOL    HW257682   0.617   5.516   1.407
51929SOL     OW57683   7.269   0.646   4.110
51929SOL    HW157684   7.250   0.663   4.202
51929SOL    HW257685   7.183   0.626   4.071
51930SOL     OW57686  10.477   8.579  13.380
51930SOL    HW157687  10.531   8.633  13.322
51930SOL    HW257688  10.438   8.641  13.441
51931SOL     OW57689   3.097   0.049   3.885
51931SOL    HW157690   3.021  14.873   3.905
51931SOL    HW257691   3.084   0.127   3.940
51932SOL     OW57692   5.874   3.532   4.332
51932SOL    HW157693   5.881   3.627   4.340
51932SOL    HW257694   5.837   3.519   4.244
51933SOL     OW57695  12.579   1.846  11.492
51933SOL    HW157696  12.649   1.820  11.552
51933SOL    HW257697  12.620   1.906  11.431
51934SOL     OW57698   8.576  11.846   6.865
51934SOL    HW157699   8.548  11.755   6.854
51934SOL    HW257700   8.547  11.890   6.786
51935SOL     OW57701  13.172   3.841  11.202
51935SOL    HW157702  13.231   3.819  11.274
51935SOL    HW257703  13.194   3.932  11.180
51936SOL     OW57704  11.569   0.930   6.463
51936SOL    HW157705  11.488   0.978   6.443
51936SOL    HW257706  11.540   0.839   6.473
51937SOL     OW57707   4.089   5.124   2.834
51937SOL    HW157708   4.058   5.213   2.852
51937SOL    HW257709   4.068   5.075   2.913
51938SOL     OW57710   2.943  10.694   5.775
51938SOL    HW157711   2.919  10.751   5.702
51938SOL    HW257712   2.931  10.749   5.853
51939SOL     OW57713   2.483   0.509  14.288
51939SOL    HW157714   2.468   0.532  14.380
51939SOL    HW257715   2.561   0.454  14.289
51940SOL     OW57716  11.844   1.823  10.575
51940SOL    HW157717  11.775   1.838  10.511
51940SOL    HW257718  11.878   1.736  10.554
51941SOL     OW57719  13.229   6.687  10.574
51941SOL    HW157720  13.200   6.614  10.629
51941SOL    HW257721  13.233   6.761  10.634
51942SOL     OW57722   0.121   8.748  14.796
51942SOL    HW157723   0.041   8.764  14.846
51942SOL    HW257724   0.151   8.662  14.824
51943SOL     OW57725  12.520   9.881  11.509
51943SOL    HW157726  12.507   9.818  11.579
51943SOL    HW257727  12.613   9.902  11.512
51944SOL     OW57728   5.377  14.822  12.597
51944SOL    HW157729   5.383   0.025  12.550
51944SOL    HW257730   5.466  14.806  12.628
51945SOL     OW57731   0.177   7.511   9.918
51945SOL    HW157732   0.217   7.473   9.839
51945SOL    HW257733   0.235   7.485   9.989
51946SOL     OW57734   4.103   7.417   9.493
51946SOL    HW157735   4.195   7.425   9.517
51946SOL    HW257736   4.063   7.371   9.567
51947SOL     OW57737   7.138   1.513  12.448
51947SOL    HW157738   7.072   1.583  12.453
51947SOL    HW257739   7.222   1.559  12.457
51948SOL     OW57740  12.480  11.617  12.293
51948SOL    HW157741  12.512  11.624  12.203
51948SOL    HW257742  12.558  11.626  12.347
51949SOL     OW57743   1.412   5.776   4.896
51949SOL    HW157744   1.338   5.808   4.845
51949SOL    HW257745   1.458   5.716   4.836
51950SOL     OW57746   6.348  14.397   1.384
51950SOL    HW157747   6.287  14.394   1.457
51950SOL    HW257748   6.333  14.315   1.337
51951SOL     OW57749   4.564   4.383   8.915
51951SOL    HW157750   4.644   4.389   8.967
51951SOL    HW257751   4.577   4.444   8.843
51952SOL     OW57752  14.510  13.056   5.075
51952SOL    HW157753  14.516  13.152   5.066
51952SOL    HW257754  14.545  13.022   4.993
51953SOL     OW57755   3.897  13.207   5.632
51953SOL    HW157756   3.839  13.260   5.577
51953SOL    HW257757   3.966  13.176   5.573
51954SOL     OW57758   5.805   0.271   3.578
51954SOL    HW157759   5.713   0.297   3.578
51954SOL    HW257760   5.821   0.238   3.489
51955SOL     OW57761   3.921  10.212   1.627
51955SOL    HW157762   4.009  10.247   1.620
51955SOL    HW257763   3.880  10.262   1.698
51956SOL     OW57764   4.991   2.345   3.941
51956SOL    HW157765   5.026   2.279   4.002
51956SOL    HW257766   4.974   2.296   3.861
51957SOL     OW57767   5.883   0.570   8.759
51957SOL    HW157768   5.908   0.493   8.708
51957SOL    HW257769   5.838   0.534   8.836
51958SOL     OW57770   0.092   1.637   4.959
51958SOL    HW157771   0.019   1.615   5.017
51958SOL    HW257772   0.169   1.597   5.001
51959SOL     OW57773   5.161  11.248  10.029
51959SOL    HW157774   5.189  11.158  10.013
51959SOL    HW257775   5.110  11.244  10.109
51960SOL     OW57776   9.325   0.289   8.195
51960SOL    HW157777   9.237   0.254   8.183
51960SOL    HW257778   9.313   0.384   8.197
51961SOL     OW57779   2.502   9.448  11.962
51961SOL    HW157780   2.590   9.458  11.924
51961SOL    HW257781   2.482   9.355  11.954
51962SOL     OW57782  13.604  10.398   1.525
51962SOL    HW157783  13.597  10.481   1.572
51962SOL    HW257784  13.532  10.400   1.462
51963SOL     OW57785  14.507   2.220  11.370
51963SOL    HW157786  14.557   2.142  11.392
51963SOL    HW257787  14.458   2.196  11.291
51964SOL     OW57788   0.332  12.398  12.950
51964SOL    HW157789   0.352  12.463  13.017
51964SOL    HW257790   0.261  12.437  12.899
51965SOL     OW57791   9.395   0.382  13.804
51965SOL    HW157792   9.382   0.364  13.897
51965SOL    HW257793   9.477   0.337  13.782
51966SOL     OW57794   2.106  11.212   8.370
51966SOL    HW157795   2.072  11.194   8.458
51966SOL    HW257796   2.085  11.304   8.354
51967SOL     OW57797   3.591   1.291   0.067
51967SOL    HW157798   3.513   1.257   0.112
51967SOL    HW257799   3.563   1.301  14.855
51968SOL     OW57800   0.761   7.911   3.728
51968SOL    HW157801   0.672   7.877   3.727
51968SOL    HW257802   0.816   7.836   3.704
51969SOL     OW57803   2.414   2.804  11.430
51969SOL    HW157804   2.434   2.821  11.522
51969SOL    HW257805   2.497   2.815  11.384
51970SOL     OW57806  13.840  10.045   6.160
51970SOL    HW157807  13.911  10.048   6.224
51970SOL    HW257808  13.793  10.127   6.172
51971SOL     OW57809   4.168   0.574   8.379
51971SOL    HW157810   4.220   0.546   8.455
51971SOL    HW257811   4.126   0.656   8.407
51972SOL     OW57812   0.158   6.252  11.427
51972SOL    HW157813   0.169   6.256  11.522
51972SOL    HW257814   0.240   6.286  11.392
51973SOL     OW57815   6.808  10.075  13.450
51973SOL    HW157816   6.873  10.036  13.509
51973SOL    HW257817   6.751  10.002  13.427
51974SOL     OW57818   8.052   5.874   1.809
51974SOL    HW157819   8.115   5.904   1.743
51974SOL    HW257820   8.068   5.931   1.885
51975SOL     OW57821   6.167   7.787   8.900
51975SOL    HW157822   6.076   7.767   8.878
51975SOL    HW257823   6.176   7.757   8.991
51976SOL     OW57824   5.498   8.888   1.551
51976SOL    HW157825   5.578   8.891   1.498
51976SOL    HW257826   5.520   8.937   1.630
51977SOL     OW57827   1.246  14.340   5.498
51977SOL    HW157828   1.186  14.358   5.425
51977SOL    HW257829   1.333  14.343   5.460
51978SOL     OW57830  10.723   3.311  10.561
51978SOL    HW157831  10.803   3.286  10.606
51978SOL    HW257832  10.751   3.376  10.496
51979SOL     OW57833   4.914   7.535  13.411
51979SOL    HW157834   4.865   7.465  13.452
51979SOL    HW257835   4.860   7.613  13.424
51980SOL     OW57836   8.970  12.320  11.684
51980SOL    HW157837   9.054  12.305  11.640
51980SOL    HW257838   8.984  12.288  11.773
51981SOL     OW57839  14.699   5.205   7.032
51981SOL    HW157840  14.766   5.269   7.007
51981SOL    HW257841  14.623   5.259   7.054
51982SOL     OW57842  11.748   9.962  10.993
51982SOL    HW157843  11.759  10.047  10.949
51982SOL    HW257844  11.799   9.970  11.073
51983SOL     OW57845   8.840   2.297  11.379
51983SOL    HW157846   8.859   2.365  11.444
51983SOL    HW257847   8.751   2.316  11.350
51984SOL     OW57848   6.209  10.659  13.678
51984SOL    HW157849   6.205  10.634  13.586
51984SOL    HW257850   6.238  10.750  13.677
51985SOL     OW57851  12.586   4.535   1.386
51985SOL    HW157852  12.628   4.608   1.433
51985SOL    HW257853  12.599   4.557   1.294
51986SOL     OW57854   1.229  12.415   9.963
51986SOL    HW157855   1.251  12.371  10.045
51986SOL    HW257856   1.150  12.370   9.933
51987SOL     OW57857  10.441   1.958   3.481
51987SOL    HW157858  10.365   1.990   3.529
51987SOL    HW257859  10.438   2.004   3.397
51988SOL     OW57860   9.682   6.655   0.813
51988SOL    HW157861   9.689   6.609   0.897
51988SOL    HW257862   9.715   6.592   0.749
51989SOL     OW57863   7.708   1.225   8.053
51989SOL    HW157864   7.637   1.263   8.001
51989SOL    HW257865   7.694   1.260   8.141
51990SOL     OW57866   7.591  11.841   8.447
51990SOL    HW157867   7.649  11.770   8.419
51990SOL    HW257868   7.648  11.916   8.460
51991SOL     OW57869  11.629  11.746   5.677
51991SOL    HW157870  11.693  11.816   5.691
51991SOL    HW257871  11.549  11.792   5.650
51992SOL     OW57872   6.592   6.499   1.293
51992SOL    HW157873   6.542   6.422   1.322
51992SOL    HW257874   6.579   6.502   1.198
51993SOL     OW57875  11.754  10.610   2.397
51993SOL    HW157876  11.844  10.587   2.374
51993SOL    HW257877  11.714  10.639   2.315
51994SOL     OW57878  11.453  13.840   0.561
51994SOL    HW157879  11.498  13.824   0.644
51994SOL    HW257880  11.505  13.792   0.496
51995SOL     OW57881  11.526   1.471  11.613
51995SOL    HW157882  11.446   1.521  11.595
51995SOL    HW257883  11.597   1.530  11.590
51996SOL     OW57884   6.274  12.537  13.453
51996SOL    HW157885   6.356  12.507  13.414
51996SOL    HW257886   6.297  12.619  13.497
51997SOL     OW57887   7.155   0.344   6.018
51997SOL    HW157888   7.166   0.250   6.004
51997SOL    HW257889   7.218   0.385   5.959
51998SOL     OW57890   7.272  13.674   9.498
51998SOL    HW157891   7.248  13.581   9.503
51998SOL    HW257892   7.309  13.693   9.584
51999SOL     OW57893   9.826   3.826   5.930
51999SOL    HW157894   9.855   3.810   5.840
51999SOL    HW257895   9.791   3.915   5.929
52000SOL     OW57896   7.289  10.729  12.014
52000SOL    HW157897   7.256  10.730  12.104
52000SOL    HW257898   7.384  10.736  12.023
52001SOL     OW57899   6.108   4.758   9.275
52001SOL    HW157900   6.060   4.835   9.307
52001SOL    HW257901   6.042   4.704   9.232
52002SOL     OW57902  14.817   1.944   7.135
52002SOL    HW157903  14.813   1.984   7.222
52002SOL    HW257904  14.838   1.852   7.153
52003SOL     OW57905  14.311   3.312   4.403
52003SOL    HW157906  14.367   3.266   4.340
52003SOL    HW257907  14.367   3.382   4.437
52004SOL     OW57908  14.794  14.297   9.408
52004SOL    HW157909  14.706  14.309   9.444
52004SOL    HW257910  14.832  14.385   9.409
52005SOL     OW57911   2.560  14.687   2.312
52005SOL    HW157912   2.601  14.761   2.266
52005SOL    HW257913   2.547  14.719   2.401
52006SOL     OW57914  11.114   4.836   0.488
52006SOL    HW157915  11.089   4.760   0.436
52006SOL    HW257916  11.135   4.903   0.423
52007SOL     OW57917  14.007   0.321   0.421
52007SOL    HW157918  14.038   0.234   0.447
52007SOL    HW257919  13.950   0.349   0.493
52008SOL     OW57920   0.320   3.737   6.953
52008SOL    HW157921   0.407   3.767   6.925
52008SOL    HW257922   0.338   3.670   7.018
52009SOL     OW57923  14.036  10.951  13.250
52009SOL    HW157924  13.979  11.022  13.281
52009SOL    HW257925  14.110  10.997  13.210
52010SOL     OW57926   0.852  13.321  14.455
52010SOL    HW157927   0.932  13.305  14.507
52010SOL    HW257928   0.801  13.241  14.466
52011SOL     OW57929   7.707   9.354   6.557
52011SOL    HW157930   7.716   9.382   6.466
52011SOL    HW257931   7.650   9.277   6.553
52012SOL     OW57932   5.137   7.102   3.232
52012SOL    HW157933   5.152   7.098   3.326
52012SOL    HW257934   5.222   7.082   3.193
52013SOL     OW57935   6.866  13.603   9.122
52013SOL    HW157936   6.901  13.679   9.074
52013SOL    HW257937   6.773  13.623   9.132
52014SOL     OW57938  11.124  14.621  12.270
52014SOL    HW157939  11.188  14.687  12.242
52014SOL    HW257940  11.055  14.672  12.314
52015SOL     OW57941   4.590  12.561  10.024
52015SOL    HW157942   4.555  12.477  10.053
52015SOL    HW257943   4.519  12.623  10.042
52016SOL     OW57944  10.208   5.549   6.300
52016SOL    HW157945  10.286   5.603   6.291
52016SOL    HW257946  10.208   5.521   6.392
52017SOL     OW57947   2.280  12.308  12.501
52017SOL    HW157948   2.363  12.269  12.528
52017SOL    HW257949   2.258  12.368  12.572
52018SOL     OW57950   1.286  11.958   3.779
52018SOL    HW157951   1.305  11.884   3.721
52018SOL    HW257952   1.371  11.998   3.798
52019SOL     OW57953  12.529  12.276  10.459
52019SOL    HW157954  12.479  12.194  10.457
52019SOL    HW257955  12.558  12.288  10.369
52020SOL     OW57956  11.538   7.149  10.575
52020SOL    HW157957  11.517   7.112  10.490
52020SOL    HW257958  11.600   7.220  10.556
52021SOL     OW57959  12.091   2.960   8.307
52021SOL    HW157960  12.172   2.972   8.356
52021SOL    HW257961  12.067   3.047   8.278
52022SOL     OW57962   7.426   0.664   6.674
52022SOL    HW157963   7.352   0.722   6.654
52022SOL    HW257964   7.461   0.640   6.588
52023SOL     OW57965   7.328   8.845  13.755
52023SOL    HW157966   7.247   8.867  13.802
52023SOL    HW257967   7.321   8.893  13.672
52024SOL     OW57968  12.003   6.790  12.730
52024SOL    HW157969  11.987   6.736  12.652
52024SOL    HW257970  12.057   6.863  12.698
52025SOL     OW57971  10.548   6.581  10.362
52025SOL    HW157972  10.609   6.547  10.428
52025SOL    HW257973  10.573   6.673  10.352
52026SOL     OW57974   4.702   2.429   5.461
52026SOL    HW157975   4.767   2.495   5.486
52026SOL    HW257976   4.753   2.349   5.449
52027SOL     OW57977   8.053   8.535   5.051
52027SOL    HW157978   8.008   8.451   5.060
52027SOL    HW257979   8.146   8.513   5.050
52028SOL     OW57980  10.723   4.043  11.420
52028SOL    HW157981  10.774   4.123  11.434
52028SOL    HW257982  10.651   4.049  11.482
52029SOL     OW57983  13.914   2.343   1.243
52029SOL    HW157984  13.916   2.357   1.337
52029SOL    HW257985  13.827   2.305   1.226
52030SOL     OW57986   2.935   6.462   8.461
52030SOL    HW157987   3.020   6.417   8.467
52030SOL    HW257988   2.953   6.550   8.494
52031SOL     OW57989   0.643   8.863   7.331
52031SOL    HW157990   0.550   8.840   7.329
52031SOL    HW257991   0.647   8.941   7.387
52032SOL     OW57992   9.156  12.615  14.433
52032SOL    HW157993   9.201  12.531  14.426
52032SOL    HW257994   9.085  12.610  14.370
52033SOL     OW57995  13.376   6.397  13.126
52033SOL    HW157996  13.456   6.385  13.075
52033SOL    HW257997  13.394   6.352  13.209
52034SOL     OW57998  14.225  12.375   3.621
52034SOL    HW157999  14.250  12.289   3.656
52034SOL    HW258000  14.135  12.387   3.651
52035SOL     OW58001  11.633   5.349  11.374
52035SOL    HW158002  11.686   5.291  11.428
52035SOL    HW258003  11.691   5.375  11.302
52036SOL     OW58004   9.017  10.694   6.130
52036SOL    HW158005   9.041  10.671   6.220
52036SOL    HW258006   8.966  10.619   6.100
52037SOL     OW58007   3.848  14.724   0.978
52037SOL    HW158008   3.790  14.679   0.917
52037SOL    HW258009   3.802  14.719   1.062
52038SOL     OW58010   8.540   9.624  11.638
52038SOL    HW158011   8.594   9.546  11.625
52038SOL    HW258012   8.477   9.622  11.566
52039SOL     OW58013  11.673  11.044   9.067
52039SOL    HW158014  11.680  11.107   8.995
52039SOL    HW258015  11.611  10.979   9.036
52040SOL     OW58016   6.811  14.752   1.868
52040SOL    HW158017   6.730  14.762   1.919
52040SOL    HW258018   6.799  14.810   1.793
52041SOL     OW58019   2.572  12.080   6.710
52041SOL    HW158020   2.544  12.172   6.714
52041SOL    HW258021   2.650  12.081   6.654
52042SOL     OW58022   3.795   8.081   2.473
52042SOL    HW158023   3.887   8.065   2.494
52042SOL    HW258024   3.747   8.046   2.548
52043SOL     OW58025   4.329  11.552   3.307
52043SOL    HW158026   4.417  11.531   3.339
52043SOL    HW258027   4.271  11.517   3.374
52044SOL     OW58028  14.646   3.027   2.438
52044SOL    HW158029  14.702   2.953   2.461
52044SOL    HW258030  14.580   3.029   2.507
52045SOL     OW58031   8.360   2.282   3.257
52045SOL    HW158032   8.276   2.301   3.216
52045SOL    HW258033   8.366   2.186   3.256
52046SOL     OW58034   5.139  11.525  14.808
52046SOL    HW158035   5.127  11.462  14.878
52046SOL    HW258036   5.180  11.476  14.737
52047SOL     OW58037   7.169   8.490   0.202
52047SOL    HW158038   7.217   8.430   0.144
52047SOL    HW258039   7.122   8.433   0.262
52048SOL     OW58040  13.089   4.386  11.076
52048SOL    HW158041  13.139   4.392  11.158
52048SOL    HW258042  13.133   4.447  11.017
52049SOL     OW58043   6.629   7.150   0.269
52049SOL    HW158044   6.642   7.142   0.364
52049SOL    HW258045   6.716   7.171   0.235
52050SOL     OW58046   8.448   5.766   9.892
52050SOL    HW158047   8.461   5.688   9.838
52050SOL    HW258048   8.353   5.781   9.888
52051SOL     OW58049  13.960   4.271   4.673
52051SOL    HW158050  13.993   4.329   4.605
52051SOL    HW258051  13.913   4.203   4.625
52052SOL     OW58052  10.389   3.586  13.977
52052SOL    HW158053  10.311   3.584  14.032
52052SOL    HW258054  10.433   3.668  14.001
52053SOL     OW58055  10.249   9.243   1.473
52053SOL    HW158056  10.237   9.284   1.387
52053SOL    HW258057  10.181   9.176   1.477
52054SOL     OW58058   1.174   6.496   9.516
52054SOL    HW158059   1.136   6.566   9.569
52054SOL    HW258060   1.112   6.423   9.524
52055SOL     OW58061   2.507   4.581   1.170
52055SOL    HW158062   2.535   4.549   1.255
52055SOL    HW258063   2.514   4.505   1.112
52056SOL     OW58064   8.222   8.210  14.353
52056SOL    HW158065   8.255   8.122  14.372
52056SOL    HW258066   8.232   8.220  14.259
52057SOL     OW58067  12.845  10.710  11.229
52057SOL    HW158068  12.885  10.700  11.316
52057SOL    HW258069  12.863  10.627  11.185
52058SOL     OW58070   1.010   7.991   3.243
52058SOL    HW158071   1.045   7.902   3.244
52058SOL    HW258072   1.087   8.048   3.235
52059SOL     OW58073   6.516   6.117   5.455
52059SOL    HW158074   6.420   6.112   5.459
52059SOL    HW258075   6.533   6.196   5.403
52060SOL     OW58076   6.310   2.056  11.603
52060SOL    HW158077   6.324   1.964  11.625
52060SOL    HW258078   6.360   2.069  11.522
52061SOL     OW58079  12.571  14.024  14.571
52061SOL    HW158080  12.527  14.057  14.649
52061SOL    HW258081  12.535  14.077  14.499
52062SOL     OW58082  14.691   5.110   0.605
52062SOL    HW158083  14.733   5.025   0.616
52062SOL    HW258084  14.625   5.113   0.675
52063SOL     OW58085   7.566   1.206   2.931
52063SOL    HW158086   7.582   1.299   2.948
52063SOL    HW258087   7.634   1.161   2.981
52064SOL     OW58088   9.020   3.546   6.421
52064SOL    HW158089   9.020   3.476   6.355
52064SOL    HW258090   9.050   3.503   6.501
52065SOL     OW58091   1.497   2.445  10.042
52065SOL    HW158092   1.414   2.488  10.064
52065SOL    HW258093   1.542   2.509   9.987
52066SOL     OW58094   2.470  12.852  12.385
52066SOL    HW158095   2.485  12.924  12.324
52066SOL    HW258096   2.410  12.887  12.450
52067SOL     OW58097  14.661   5.201   5.130
52067SOL    HW158098  14.590   5.244   5.081
52067SOL    HW258099  14.725   5.177   5.063
52068SOL     OW58100  12.392  12.134   6.064
52068SOL    HW158101  12.463  12.070   6.073
52068SOL    HW258102  12.371  12.161   6.153
52069SOL     OW58103   7.252   5.864  13.881
52069SOL    HW158104   7.176   5.882  13.938
52069SOL    HW258105   7.326   5.905  13.927
52070SOL     OW58106   8.252  13.443   9.452
52070SOL    HW158107   8.325  13.434   9.391
52070SOL    HW258108   8.190  13.375   9.425
52071SOL     OW58109   0.395   9.318  12.116
52071SOL    HW158110   0.335   9.388  12.144
52071SOL    HW258111   0.337   9.245  12.094
52072SOL     OW58112   5.733   6.957  13.408
52072SOL    HW158113   5.817   7.001  13.421
52072SOL    HW258114   5.745   6.904  13.329
52073SOL     OW58115  13.710  14.220  14.751
52073SOL    HW158116  13.783  14.282  14.757
52073SOL    HW258117  13.659  14.250  14.676
52074SOL     OW58118   2.597  12.325   9.113
52074SOL    HW158119   2.606  12.392   9.181
52074SOL    HW258120   2.504  12.329   9.088
52075SOL     OW58121  12.917   5.025  14.768
52075SOL    HW158122  12.825   5.047  14.786
52075SOL    HW258123  12.932   4.944  14.817
52076SOL     OW58124  13.071   0.946   2.539
52076SOL    HW158125  13.106   0.973   2.624
52076SOL    HW258126  12.982   0.980   2.538
52077SOL     OW58127   5.252  14.151   0.042
52077SOL    HW158128   5.333  14.102   0.055
52077SOL    HW258129   5.246  14.164  14.827
52078SOL     OW58130   5.846   0.395   1.319
52078SOL    HW158131   5.768   0.451   1.312
52078SOL    HW258132   5.919   0.451   1.293
52079SOL     OW58133  11.760   4.902   8.925
52079SOL    HW158134  11.803   4.831   8.878
52079SOL    HW258135  11.709   4.859   8.993
52080SOL     OW58136   5.073   9.607   1.644
52080SOL    HW158137   5.121   9.679   1.685
52080SOL    HW258138   5.065   9.541   1.713
52081SOL     OW58139   7.311   8.903   5.969
52081SOL    HW158140   7.318   8.844   5.894
52081SOL    HW258141   7.306   8.991   5.930
52082SOL     OW58142   8.632  13.692   4.462
52082SOL    HW158143   8.705  13.750   4.482
52082SOL    HW258144   8.614  13.646   4.543
52083SOL     OW58145  13.019   7.761   6.896
52083SOL    HW158146  13.089   7.699   6.877
52083SOL    HW258147  13.055   7.817   6.964
52084SOL     OW58148   2.445   1.669   7.337
52084SOL    HW158149   2.441   1.588   7.286
52084SOL    HW258150   2.386   1.729   7.292
52085SOL     OW58151   1.760  13.937   8.913
52085SOL    HW158152   1.709  13.857   8.930
52085SOL    HW258153   1.824  13.910   8.847
52086SOL     OW58154  13.204  13.771   3.760
52086SOL    HW158155  13.159  13.696   3.799
52086SOL    HW258156  13.140  13.843   3.765
52087SOL     OW58157  11.040   1.838  10.686
52087SOL    HW158158  11.051   1.886  10.768
52087SOL    HW258159  11.109   1.873  10.629
52088SOL     OW58160   7.700   5.815   8.112
52088SOL    HW158161   7.678   5.847   8.024
52088SOL    HW258162   7.615   5.798   8.153
52089SOL     OW58163   2.298  10.493   4.860
52089SOL    HW158164   2.226  10.491   4.922
52089SOL    HW258165   2.346  10.574   4.880
52090SOL     OW58166  13.558   1.278   9.394
52090SOL    HW158167  13.606   1.275   9.476
52090SOL    HW258168  13.613   1.232   9.331
52091SOL     OW58169   8.998   3.372   2.725
52091SOL    HW158170   9.038   3.289   2.699
52091SOL    HW258171   9.070   3.435   2.721
52092SOL     OW58172   7.934  13.348   6.462
52092SOL    HW158173   8.014  13.395   6.439
52092SOL    HW258174   7.864  13.398   6.419
52093SOL     OW58175   8.975   2.957   9.385
52093SOL    HW158176   9.065   2.981   9.366
52093SOL    HW258177   8.936   2.939   9.300
52094SOL     OW58178   2.270   7.723   2.072
52094SOL    HW158179   2.322   7.664   2.017
52094SOL    HW258180   2.331   7.792   2.097
52095SOL     OW58181  10.233   7.444  13.661
52095SOL    HW158182  10.296   7.380  13.629
52095SOL    HW258183  10.260   7.460  13.752
52096SOL     OW58184   7.394   1.722  13.943
52096SOL    HW158185   7.404   1.642  13.891
52096SOL    HW258186   7.339   1.695  14.017
52097SOL     OW58187   7.402  10.428  13.975
52097SOL    HW158188   7.364  10.445  14.061
52097SOL    HW258189   7.326  10.407  13.920
52098SOL     OW58190   8.543   2.796   9.740
52098SOL    HW158191   8.527   2.707   9.711
52098SOL    HW258192   8.462   2.844   9.719
52099SOL     OW58193   2.920   8.302   6.960
52099SOL    HW158194   2.903   8.274   6.870
52099SOL    HW258195   2.917   8.397   6.956
52100SOL     OW58196   0.063  12.255   5.640
52100SOL    HW158197   0.029  12.345   5.642
52100SOL    HW258198   0.106  12.248   5.554
52101SOL     OW58199   9.765   6.221   0.615
52101SOL    HW158200   9.706   6.158   0.575
52101SOL    HW258201   9.846   6.213   0.565
52102SOL     OW58202  11.671   7.687  10.674
52102SOL    HW158203  11.688   7.718  10.585
52102SOL    HW258204  11.577   7.697  10.685
52103SOL     OW58205   1.452   2.862   9.952
52103SOL    HW158206   1.429   2.821  10.035
52103SOL    HW258207   1.489   2.947   9.976
52104SOL     OW58208   3.301  10.049  12.439
52104SOL    HW158209   3.344   9.989  12.499
52104SOL    HW258210   3.237   9.996  12.393
52105SOL     OW58211   6.184  14.263  13.088
52105SOL    HW158212   6.094  14.264  13.054
52105SOL    HW258213   6.180  14.320  13.165
52106SOL     OW58214   2.156   0.512   8.082
52106SOL    HW158215   2.230   0.572   8.091
52106SOL    HW258216   2.099   0.533   8.156
52107SOL     OW58217   9.961   4.813   3.038
52107SOL    HW158218   9.973   4.724   3.004
52107SOL    HW258219   9.919   4.801   3.122
52108SOL     OW58220  13.125  10.451   1.417
52108SOL    HW158221  13.177  10.512   1.365
52108SOL    HW258222  13.041  10.445   1.371
52109SOL     OW58223  12.865   9.925  10.412
52109SOL    HW158224  12.808   9.932  10.335
52109SOL    HW258225  12.905  10.012  10.420
52110SOL     OW58226  12.647   3.680  10.335
52110SOL    HW158227  12.719   3.623  10.309
52110SOL    HW258228  12.688   3.749  10.387
52111SOL     OW58229   8.192   5.221   6.098
52111SOL    HW158230   8.145   5.138   6.090
52111SOL    HW258231   8.267   5.211   6.039
52112SOL     OW58232  12.481  14.393   4.474
52112SOL    HW158233  12.528  14.475   4.488
52112SOL    HW258234  12.522  14.356   4.395
52113SOL     OW58235   7.599   6.207   9.762
52113SOL    HW158236   7.541   6.227   9.689
52113SOL    HW258237   7.544   6.214   9.840
52114SOL     OW58238  12.629  10.990   9.246
52114SOL    HW158239  12.595  11.069   9.288
52114SOL    HW258240  12.597  10.996   9.156
52115SOL     OW58241   1.330   0.071   2.272
52115SOL    HW158242   1.251   0.123   2.286
52115SOL    HW258243   1.391   0.132   2.229
52116SOL     OW58244   1.221  11.053  11.140
52116SOL    HW158245   1.148  11.115  11.132
52116SOL    HW258246   1.282  11.080  11.071
52117SOL     OW58247  14.749   3.538   2.955
52117SOL    HW158248  14.838   3.534   2.919
52117SOL    HW258249  14.696   3.487   2.894
52118SOL     OW58250   9.152   4.966  11.347
52118SOL    HW158251   9.071   4.915  11.352
52118SOL    HW258252   9.132   5.046  11.396
52119SOL     OW58253  10.676   2.439  13.003
52119SOL    HW158254  10.651   2.528  13.029
52119SOL    HW258255  10.666   2.439  12.907
52120SOL     OW58256  11.890   2.094   9.407
52120SOL    HW158257  11.912   2.134   9.491
52120SOL    HW258258  11.975   2.074   9.368
52121SOL     OW58259   6.751   4.724   0.028
52121SOL    HW158260   6.826   4.681  14.868
52121SOL    HW258261   6.715   4.779  14.837
52122SOL     OW58262   5.655   4.661   0.522
52122SOL    HW158263   5.685   4.570   0.526
52122SOL    HW258264   5.729   4.712   0.552
52123SOL     OW58265   9.053   2.393  12.031
52123SOL    HW158266   8.983   2.352  11.979
52123SOL    HW258267   9.103   2.321  12.066
52124SOL     OW58268  10.228   9.777  14.736
52124SOL    HW158269  10.217   9.700  14.681
52124SOL    HW258270  10.184   9.755  14.818
52125SOL     OW58271   6.942  12.802   2.997
52125SOL    HW158272   6.981  12.750   3.068
52125SOL    HW258273   7.010  12.865   2.974
52126SOL     OW58274   3.085   2.551   6.084
52126SOL    HW158275   3.045   2.466   6.063
52126SOL    HW258276   3.061   2.567   6.175
52127SOL     OW58277   9.890  12.067  13.871
52127SOL    HW158278   9.829  12.062  13.944
52127SOL    HW258279   9.953  12.134  13.896
52128SOL     OW58280  10.090  11.809  14.595
52128SOL    HW158281  10.170  11.813  14.647
52128SOL    HW258282  10.063  11.900  14.584
52129SOL     OW58283   2.629   9.065  12.866
52129SOL    HW158284   2.579   9.099  12.939
52129SOL    HW258285   2.714   9.041  12.904
52130SOL     OW58286   9.545  12.452   4.863
52130SOL    HW158287   9.519  12.361   4.879
52130SOL    HW258288   9.530  12.465   4.770
52131SOL     OW58289   0.429  14.778   1.718
52131SOL    HW158290   0.508  14.812   1.676
52131SOL    HW258291   0.374  14.750   1.645
52132SOL     OW58292   4.021  13.529  10.246
52132SOL    HW158293   4.009  13.558  10.155
52132SOL    HW258294   4.112  13.500  10.249
52133SOL     OW58295  12.663   7.943   6.406
52133SOL    HW158296  12.729   8.010   6.388
52133SOL    HW258297  12.648   7.949   6.500
52134SOL     OW58298  14.421   3.812  11.148
52134SOL    HW158299  14.334   3.836  11.115
52134SOL    HW258300  14.474   3.801  11.069
52135SOL     OW58301   9.620  12.306   7.949
52135SOL    HW158302   9.682  12.262   8.007
52135SOL    HW258303   9.587  12.238   7.891
52136SOL     OW58304   6.274   8.990   6.565
52136SOL    HW158305   6.274   8.992   6.469
52136SOL    HW258306   6.336   8.920   6.587
52137SOL     OW58307   0.012   2.539   2.911
52137SOL    HW158308   0.048   2.487   2.983
52137SOL    HW258309  14.798   2.539   2.927
52138SOL     OW58310   3.449  12.779  12.880
52138SOL    HW158311   3.373  12.723  12.865
52138SOL    HW258312   3.416  12.868  12.871
52139SOL     OW58313  13.040   5.150  11.285
52139SOL    HW158314  13.065   5.226  11.338
52139SOL    HW258315  12.999   5.187  11.207
52140SOL     OW58316   5.043  10.169   7.103
52140SOL    HW158317   5.097  10.116   7.043
52140SOL    HW258318   5.071  10.259   7.087
52141SOL     OW58319   3.407   9.177  14.821
52141SOL    HW158320   3.492   9.134  14.816
52141SOL    HW258321   3.427   9.269  14.838
52142SOL     OW58322   5.721  14.318   3.552
52142SOL    HW158323   5.760  14.311   3.465
52142SOL    HW258324   5.664  14.242   3.559
52143SOL     OW58325   1.277   2.265  12.440
52143SOL    HW158326   1.368   2.263  12.413
52143SOL    HW258327   1.266   2.184  12.491
52144SOL     OW58328  12.460  13.876   6.941
52144SOL    HW158329  12.431  13.848   7.028
52144SOL    HW258330  12.412  13.821   6.880
52145SOL     OW58331   5.006   8.202   8.938
52145SOL    HW158332   4.948   8.224   8.865
52145SOL    HW258333   5.083   8.258   8.925
52146SOL     OW58334   5.186   9.127  14.666
52146SOL    HW158335   5.244   9.202  14.683
52146SOL    HW258336   5.099   9.165  14.657
52147SOL     OW58337   4.990   4.070   5.521
52147SOL    HW158338   4.952   4.141   5.469
52147SOL    HW258339   4.976   3.992   5.467
52148SOL     OW58340   3.320   7.140   8.877
52148SOL    HW158341   3.261   7.103   8.811
52148SOL    HW258342   3.317   7.235   8.862
52149SOL     OW58343   7.448  12.943   1.574
52149SOL    HW158344   7.383  12.979   1.514
52149SOL    HW258345   7.497  13.019   1.606
52150SOL     OW58346   2.412   6.883   4.453
52150SOL    HW158347   2.449   6.911   4.537
52150SOL    HW258348   2.319   6.901   4.460
52151SOL     OW58349   6.198   1.742  10.507
52151SOL    HW158350   6.182   1.720  10.415
52151SOL    HW258351   6.229   1.661  10.547
52152SOL     OW58352  11.805   7.056   0.315
52152SOL    HW158353  11.731   7.077   0.372
52152SOL    HW258354  11.810   7.130   0.255
52153SOL     OW58355  13.559   9.107   9.750
52153SOL    HW158356  13.645   9.067   9.761
52153SOL    HW258357  13.564   9.189   9.798
52154SOL     OW58358  14.632   7.149   0.440
52154SOL    HW158359  14.586   7.190   0.513
52154SOL    HW258360  14.581   7.174   0.363
52155SOL     OW58361   3.641  13.066   9.769
52155SOL    HW158362   3.685  13.103   9.845
52155SOL    HW258363   3.670  12.975   9.766
52156SOL     OW58364   1.994   1.716  10.067
52156SOL    HW158365   2.069   1.657  10.075
52156SOL    HW258366   2.009   1.764   9.985
52157SOL     OW58367   9.191   8.573   4.679
52157SOL    HW158368   9.191   8.576   4.584
52157SOL    HW258369   9.100   8.586   4.704
52158SOL     OW58370   4.418  11.063   4.187
52158SOL    HW158371   4.425  10.971   4.164
52158SOL    HW258372   4.506  11.098   4.174
52159SOL     OW58373   5.016   1.215   9.483
52159SOL    HW158374   5.093   1.209   9.427
52159SOL    HW258375   5.046   1.187   9.569
52160SOL     OW58376   6.275   7.298   7.818
52160SOL    HW158377   6.316   7.374   7.776
52160SOL    HW258378   6.182   7.306   7.797
52161SOL     OW58379   5.265  10.016  12.513
52161SOL    HW158380   5.310   9.954  12.571
52161SOL    HW258381   5.226   9.961  12.445
52162SOL     OW58382   5.209  13.746   1.520
52162SOL    HW158383   5.255  13.695   1.454
52162SOL    HW258384   5.240  13.835   1.508
52163SOL     OW58385   7.028   6.487   8.452
52163SOL    HW158386   6.947   6.525   8.421
52163SOL    HW258387   7.079   6.470   8.373
52164SOL     OW58388   5.610   8.497   2.083
52164SOL    HW158389   5.663   8.418   2.077
52164SOL    HW258390   5.655   8.552   2.147
52165SOL     OW58391   8.983   5.373   1.523
52165SOL    HW158392   8.999   5.447   1.464
52165SOL    HW258393   8.895   5.343   1.501
52166SOL     OW58394   9.383  11.191   9.740
52166SOL    HW158395   9.363  11.127   9.807
52166SOL    HW258396   9.369  11.145   9.657
52167SOL     OW58397  11.030   7.915  12.163
52167SOL    HW158398  11.078   7.877  12.237
52167SOL    HW258399  10.955   7.959  12.202
52168SOL     OW58400  12.768   0.727  13.352
52168SOL    HW158401  12.802   0.766  13.271
52168SOL    HW258402  12.726   0.800  13.398
52169SOL     OW58403   0.610   5.145   0.983
52169SOL    HW158404   0.702   5.169   0.994
52169SOL    HW258405   0.564   5.197   1.048
52170SOL     OW58406   1.712   3.323   5.624
52170SOL    HW158407   1.733   3.271   5.547
52170SOL    HW258408   1.793   3.371   5.643
52171SOL     OW58409   7.563   2.922  12.583
52171SOL    HW158410   7.618   2.873  12.644
52171SOL    HW258411   7.504   2.972  12.640
52172SOL     OW58412   3.804   5.280   6.123
52172SOL    HW158413   3.789   5.229   6.203
52172SOL    HW258414   3.869   5.229   6.074
52173SOL     OW58415   0.210   3.956   8.676
52173SOL    HW158416   0.249   4.039   8.703
52173SOL    HW258417   0.236   3.894   8.744
52174SOL     OW58418  14.620   2.859  11.928
52174SOL    HW158419  14.532   2.823  11.920
52174SOL    HW258420  14.607   2.953  11.942
52175SOL     OW58421  13.024  14.367  12.792
52175SOL    HW158422  12.931  14.377  12.815
52175SOL    HW258423  13.068  14.355  12.876
52176SOL     OW58424  10.493  12.616   1.477
52176SOL    HW158425  10.514  12.523   1.462
52176SOL    HW258426  10.502  12.656   1.391
52177SOL     OW58427  14.799  11.547  12.071
52177SOL    HW158428  14.760  11.524  11.987
52177SOL    HW258429  14.764  11.634  12.091
52178SOL     OW58430   5.786  10.774   0.397
52178SOL    HW158431   5.810  10.867   0.398
52178SOL    HW258432   5.869  10.728   0.408
52179SOL     OW58433   4.430   9.967   8.777
52179SOL    HW158434   4.490   9.945   8.848
52179SOL    HW258435   4.399   9.883   8.744
52180SOL     OW58436   9.146  14.564  14.617
52180SOL    HW158437   9.197  14.592  14.541
52180SOL    HW258438   9.170  14.626  14.686
52181SOL     OW58439  11.219   5.045   6.737
52181SOL    HW158440  11.233   5.127   6.690
52181SOL    HW258441  11.185   4.985   6.671
52182SOL     OW58442  14.829   0.651   3.868
52182SOL    HW158443  14.772   0.704   3.812
52182SOL    HW258444   0.009   0.714   3.907
52183SOL     OW58445   7.598   7.449  10.912
52183SOL    HW158446   7.621   7.414  10.826
52183SOL    HW258447   7.558   7.375  10.958
52184SOL     OW58448   6.852  14.664   5.181
52184SOL    HW158449   6.774  14.720   5.168
52184SOL    HW258450   6.903  14.677   5.101
52185SOL     OW58451   8.775   2.739   5.974
52185SOL    HW158452   8.779   2.725   6.069
52185SOL    HW258453   8.695   2.695   5.946
52186SOL     OW58454  12.919   0.758   1.543
52186SOL    HW158455  12.900   0.843   1.505
52186SOL    HW258456  12.834   0.714   1.547
52187SOL     OW58457   3.984   3.773   7.251
52187SOL    HW158458   4.077   3.767   7.273
52187SOL    HW258459   3.967   3.697   7.196
52188SOL     OW58460   4.417  10.952   0.052
52188SOL    HW158461   4.340  10.942   0.109
52188SOL    HW258462   4.472  11.014   0.099
52189SOL     OW58463  11.903   4.210  14.059
52189SOL    HW158464  11.987   4.229  14.018
52189SOL    HW258465  11.858   4.294  14.063
52190SOL     OW58466   1.559   7.158  11.873
52190SOL    HW158467   1.609   7.237  11.895
52190SOL    HW258468   1.470   7.190  11.857
52191SOL     OW58469   2.795   2.634   6.951
52191SOL    HW158470   2.851   2.672   7.019
52191SOL    HW258471   2.737   2.575   6.999
52192SOL     OW58472   7.681   9.699   8.731
52192SOL    HW158473   7.751   9.643   8.700
52192SOL    HW258474   7.603   9.644   8.729
52193SOL     OW58475   4.193  10.935   1.794
52193SOL    HW158476   4.141  10.985   1.731
52193SOL    HW258477   4.268  10.903   1.743
52194SOL     OW58478   2.988   5.144  13.217
52194SOL    HW158479   3.053   5.161  13.149
52194SOL    HW258480   3.029   5.175  13.297
52195SOL     OW58481  12.659   4.614   2.988
52195SOL    HW158482  12.618   4.529   3.005
52195SOL    HW258483  12.734   4.594   2.931
52196SOL     OW58484  13.792   6.070  14.722
52196SOL    HW158485  13.768   6.121  14.645
52196SOL    HW258486  13.780   6.130  14.796
52197SOL     OW58487   3.153  14.335   6.586
52197SOL    HW158488   3.071  14.311   6.628
52197SOL    HW258489   3.202  14.382   6.654
52198SOL     OW58490   2.695   7.241   2.710
52198SOL    HW158491   2.740   7.289   2.780
52198SOL    HW258492   2.694   7.302   2.636
52199SOL     OW58493  14.740  12.010   3.863
52199SOL    HW158494  14.779  12.086   3.821
52199SOL    HW258495  14.731  11.945   3.793
52200SOL     OW58496   7.205   3.275   1.010
52200SOL    HW158497   7.140   3.274   1.079
52200SOL    HW258498   7.176   3.208   0.948
52201SOL     OW58499   7.438  11.495  11.711
52201SOL    HW158500   7.467  11.473  11.623
52201SOL    HW258501   7.478  11.580  11.729
52202SOL     OW58502  12.034   8.560  11.131
52202SOL    HW158503  12.127   8.582  11.123
52202SOL    HW258504  12.014   8.574  11.224
52203SOL     OW58505   5.708   7.945  12.469
52203SOL    HW158506   5.655   7.883  12.419
52203SOL    HW258507   5.669   8.030  12.453
52204SOL     OW58508  11.835   1.874  10.223
52204SOL    HW158509  11.839   1.965  10.252
52204SOL    HW258510  11.742   1.855  10.213
52205SOL     OW58511  14.435   2.679  11.078
52205SOL    HW158512  14.510   2.700  11.021
52205SOL    HW258513  14.462   2.709  11.165
52206SOL     OW58514   6.147   6.190  10.420
52206SOL    HW158515   6.109   6.160  10.503
52206SOL    HW258516   6.155   6.111  10.367
52207SOL     OW58517   8.960  11.660   9.247
52207SOL    HW158518   8.914  11.578   9.230
52207SOL    HW258519   9.052  11.635   9.252
52208SOL     OW58520  13.498   7.932  12.253
52208SOL    HW158521  13.429   7.925  12.186
52208SOL    HW258522  13.578   7.906  12.207
52209SOL     OW58523   4.188   6.664  13.907
52209SOL    HW158524   4.191   6.755  13.938
52209SOL    HW258525   4.277   6.631  13.919
52210SOL     OW58526  11.451   5.935  12.528
52210SOL    HW158527  11.516   5.872  12.560
52210SOL    HW258528  11.424   5.900  12.443
52211SOL     OW58529   8.636  12.234   2.072
52211SOL    HW158530   8.730  12.255   2.063
52211SOL    HW258531   8.607  12.218   1.983
52212SOL     OW58532   8.874  11.167  10.867
52212SOL    HW158533   8.957  11.145  10.824
52212SOL    HW258534   8.837  11.237  10.813
52213SOL     OW58535   2.419  14.527   4.640
52213SOL    HW158536   2.482  14.458   4.617
52213SOL    HW258537   2.346  14.513   4.580
52214SOL     OW58538   8.836   9.832   4.743
52214SOL    HW158539   8.743   9.831   4.721
52214SOL    HW258540   8.871   9.753   4.701
52215SOL     OW58541  14.080   2.813   8.866
52215SOL    HW158542  13.990   2.817   8.833
52215SOL    HW258543  14.074   2.762   8.947
52216SOL     OW58544  14.262  11.029  13.089
52216SOL    HW158545  14.282  11.073  13.007
52216SOL    HW258546  14.270  11.098  13.156
52217SOL     OW58547  14.115  11.655   4.850
52217SOL    HW158548  14.148  11.590   4.789
52217SOL    HW258549  14.132  11.739   4.808
52218SOL     OW58550   2.633  11.958   3.154
52218SOL    HW158551   2.651  11.867   3.179
52218SOL    HW258552   2.539  11.960   3.136
52219SOL     OW58553   7.806  10.576  10.563
52219SOL    HW158554   7.832  10.489  10.532
52219SOL    HW258555   7.874  10.600  10.626
52220SOL     OW58556   6.254   4.729   1.605
52220SOL    HW158557   6.175   4.675   1.608
52220SOL    HW258558   6.245   4.781   1.526
52221SOL     OW58559   6.050   8.535  11.122
52221SOL    HW158560   5.977   8.480  11.094
52221SOL    HW258561   6.068   8.591  11.046
52222SOL     OW58562   3.498   0.751   7.953
52222SOL    HW158563   3.453   0.673   7.988
52222SOL    HW258564   3.470   0.822   8.010
52223SOL     OW58565   0.540  11.261   7.274
52223SOL    HW158566   0.600  11.193   7.305
52223SOL    HW258567   0.508  11.228   7.190
52224SOL     OW58568   1.851   6.980  14.766
52224SOL    HW158569   1.905   6.903  14.747
52224SOL    HW258570   1.786   6.981  14.696
52225SOL     OW58571  14.860   7.046  13.016
52225SOL    HW158572  14.808   7.063  13.095
52225SOL    HW258573  14.815   7.096  12.947
52226SOL     OW58574   5.145   9.790   4.873
52226SOL    HW158575   5.124   9.780   4.780
52226SOL    HW258576   5.237   9.764   4.879
52227SOL     OW58577   2.885   4.248   8.290
52227SOL    HW158578   2.804   4.274   8.246
52227SOL    HW258579   2.880   4.152   8.295
52228SOL     OW58580   0.882   6.248   5.908
52228SOL    HW158581   0.806   6.288   5.867
52228SOL    HW258582   0.912   6.312   5.973
52229SOL     OW58583  11.113  13.457   9.043
52229SOL    HW158584  11.067  13.373   9.040
52229SOL    HW258585  11.052  13.520   9.007
52230SOL     OW58586  13.168   5.585   1.063
52230SOL    HW158587  13.149   5.583   1.157
52230SOL    HW258588  13.082   5.578   1.021
52231SOL     OW58589   0.268   4.201   1.306
52231SOL    HW158590   0.352   4.159   1.287
52231SOL    HW258591   0.264   4.205   1.402
52232SOL     OW58592   8.401   2.327   4.971
52232SOL    HW158593   8.392   2.331   5.066
52232SOL    HW258594   8.397   2.418   4.943
52233SOL     OW58595   2.957   3.439   2.750
52233SOL    HW158596   2.920   3.423   2.664
52233SOL    HW258597   3.004   3.358   2.771
52234SOL     OW58598  12.045  12.174   3.977
52234SOL    HW158599  12.110  12.139   3.916
52234SOL    HW258600  11.981  12.103   3.988
52235SOL     OW58601   5.933   4.305  12.850
52235SOL    HW158602   5.965   4.395  12.849
52235SOL    HW258603   5.899   4.293  12.939
52236SOL     OW58604   2.115   9.173  13.251
52236SOL    HW158605   2.177   9.245  13.235
52236SOL    HW258606   2.169   9.102  13.285
52237SOL     OW58607   3.313   7.884   7.026
52237SOL    HW158608   3.281   7.958   7.078
52237SOL    HW258609   3.408   7.895   7.026
52238SOL     OW58610  10.365   1.894   7.364
52238SOL    HW158611  10.364   1.898   7.460
52238SOL    HW258612  10.338   1.981   7.336
52239SOL     OW58613   5.747   2.144   6.121
52239SOL    HW158614   5.751   2.186   6.206
52239SOL    HW258615   5.823   2.177   6.074
52240SOL     OW58616   1.387   3.659   3.301
52240SOL    HW158617   1.352   3.571   3.287
52240SOL    HW258618   1.431   3.655   3.386
52241SOL     OW58619   0.649   5.188   7.492
52241SOL    HW158620   0.693   5.271   7.474
52241SOL    HW258621   0.631   5.191   7.586
52242SOL     OW58622   6.781   3.073   3.478
52242SOL    HW158623   6.850   3.035   3.423
52242SOL    HW258624   6.732   3.130   3.418
52243SOL     OW58625   3.634   4.637   9.879
52243SOL    HW158626   3.661   4.574   9.813
52243SOL    HW258627   3.713   4.657   9.928
52244SOL     OW58628   3.379  10.325  13.163
52244SOL    HW158629   3.402  10.336  13.256
52244SOL    HW258630   3.454  10.362  13.115
52245SOL     OW58631  14.131  12.853   0.397
52245SOL    HW158632  14.154  12.784   0.335
52245SOL    HW258633  14.053  12.895   0.359
52246SOL     OW58634   7.331   5.146   9.288
52246SOL    HW158635   7.249   5.196   9.292
52246SOL    HW258636   7.385   5.184   9.359
52247SOL     OW58637   6.886  14.582   3.192
52247SOL    HW158638   6.852  14.576   3.103
52247SOL    HW258639   6.836  14.516   3.241
52248SOL     OW58640   3.504   6.610   7.947
52248SOL    HW158641   3.554   6.660   7.883
52248SOL    HW258642   3.431   6.574   7.898
52249SOL     OW58643  12.732  10.172   3.964
52249SOL    HW158644  12.681  10.095   3.989
52249SOL    HW258645  12.820  10.154   3.999
52250SOL     OW58646  14.139   2.276   4.174
52250SOL    HW158647  14.148   2.252   4.082
52250SOL    HW258648  14.203   2.223   4.220
52251SOL     OW58649  12.344   4.782   2.995
52251SOL    HW158650  12.274   4.737   2.948
52251SOL    HW258651  12.424   4.759   2.947
52252SOL     OW58652   3.603   1.316   0.806
52252SOL    HW158653   3.528   1.335   0.750
52252SOL    HW258654   3.679   1.322   0.749
52253SOL     OW58655   1.689  14.123   8.322
52253SOL    HW158656   1.684  14.033   8.291
52253SOL    HW258657   1.782  14.145   8.319
52254SOL     OW58658   5.272   0.895   5.883
52254SOL    HW158659   5.275   0.805   5.913
52254SOL    HW258660   5.357   0.932   5.908
52255SOL     OW58661   0.772   3.525   8.224
52255SOL    HW158662   0.734   3.596   8.277
52255SOL    HW258663   0.800   3.568   8.143
52256SOL     OW58664  13.055   3.221   8.801
52256SOL    HW158665  12.965   3.253   8.789
52256SOL    HW258666  13.081   3.190   8.715
52257SOL     OW58667   8.286   3.793   9.658
52257SOL    HW158668   8.222   3.822   9.723
52257SOL    HW258669   8.370   3.822   9.693
52258SOL     OW58670  12.554   9.491   8.537
52258SOL    HW158671  12.649   9.495   8.551
52258SOL    HW258672  12.538   9.401   8.509
52259SOL     OW58673   5.692  13.661  14.797
52259SOL    HW158674   5.782  13.634  14.818
52259SOL    HW258675   5.700  13.753  14.772
52260SOL     OW58676  13.083   6.969   1.627
52260SOL    HW158677  13.171   6.987   1.662
52260SOL    HW258678  13.088   6.995   1.535
52261SOL     OW58679   1.225   2.747  13.109
52261SOL    HW158680   1.139   2.773  13.075
52261SOL    HW258681   1.212   2.657  13.139
52262SOL     OW58682   7.177   9.332  12.247
52262SOL    HW158683   7.249   9.394  12.235
52262SOL    HW258684   7.220   9.247  12.256
52263SOL     OW58685   6.208   9.479   9.893
52263SOL    HW158686   6.175   9.416   9.828
52263SOL    HW258687   6.159   9.560   9.875
52264SOL     OW58688   2.373   0.799   8.422
52264SOL    HW158689   2.381   0.709   8.455
52264SOL    HW258690   2.456   0.816   8.379
52265SOL     OW58691  11.147   9.541  13.300
52265SOL    HW158692  11.128   9.564  13.391
52265SOL    HW258693  11.072   9.576  13.251
52266SOL     OW58694   1.650  12.356   5.621
52266SOL    HW158695   1.560  12.324   5.614
52266SOL    HW258696   1.664  12.368   5.715
52267SOL     OW58697  10.708   8.937   0.876
52267SOL    HW158698  10.758   8.914   0.955
52267SOL    HW258699  10.695   9.031   0.883
52268SOL     OW58700   5.169   0.871   0.155
52268SOL    HW158701   5.151   0.962   0.180
52268SOL    HW258702   5.249   0.848   0.202
52269SOL     OW58703   3.069   9.931   2.415
52269SOL    HW158704   3.013   9.953   2.490
52269SOL    HW258705   3.158   9.951   2.446
52270SOL     OW58706  10.632   5.686   0.476
52270SOL    HW158707  10.638   5.756   0.411
52270SOL    HW258708  10.567   5.626   0.440
52271SOL     OW58709   0.242   7.054   1.473
52271SOL    HW158710   0.156   7.028   1.442
52271SOL    HW258711   0.260   6.995   1.547
52272SOL     OW58712   6.744  11.378  12.383
52272SOL    HW158713   6.803  11.378  12.307
52272SOL    HW258714   6.659  11.403  12.346
52273SOL     OW58715  14.487  10.461   8.092
52273SOL    HW158716  14.420  10.529   8.091
52273SOL    HW258717  14.459  10.398   8.026
52274SOL     OW58718  10.807  10.018   3.073
52274SOL    HW158719  10.755  10.096   3.093
52274SOL    HW258720  10.879  10.050   3.019
52275SOL     OW58721  14.390  14.598   5.178
52275SOL    HW158722  14.312  14.565   5.224
52275SOL    HW258723  14.356  14.665   5.119
52276SOL     OW58724   7.873   8.804  14.489
52276SOL    HW158725   7.894   8.820  14.581
52276SOL    HW258726   7.904   8.715  14.472
52277SOL     OW58727   6.081   3.713   7.084
52277SOL    HW158728   6.077   3.803   7.054
52277SOL    HW258729   6.122   3.665   7.012
52278SOL     OW58730   5.865   3.449   6.285
52278SOL    HW158731   5.838   3.447   6.194
52278SOL    HW258732   5.785   3.433   6.335
52279SOL     OW58733   2.550   6.072  13.159
52279SOL    HW158734   2.582   6.116  13.237
52279SOL    HW258735   2.518   5.988  13.190
52280SOL     OW58736  10.488  13.966   9.792
52280SOL    HW158737  10.530  14.044   9.756
52280SOL    HW258738  10.406  13.958   9.743
52281SOL     OW58739   4.069   9.260   5.513
52281SOL    HW158740   4.104   9.330   5.569
52281SOL    HW258741   4.049   9.189   5.574
52282SOL     OW58742   7.366  14.357  12.766
52282SOL    HW158743   7.433  14.351  12.698
52282SOL    HW258744   7.285  14.372  12.719
52283SOL     OW58745   9.824   7.607  14.178
52283SOL    HW158746   9.807   7.615  14.084
52283SOL    HW258747   9.906   7.655  14.192
52284SOL     OW58748   9.482   4.063   9.519
52284SOL    HW158749   9.494   3.990   9.458
52284SOL    HW258750   9.426   4.028   9.588
52285SOL     OW58751   3.372  12.010   0.149
52285SOL    HW158752   3.351  11.917   0.138
52285SOL    HW258753   3.444  12.025   0.088
52286SOL     OW58754   6.826  14.475   3.820
52286SOL    HW158755   6.784  14.474   3.906
52286SOL    HW258756   6.757  14.451   3.759
52287SOL     OW58757   3.200   8.510   2.654
52287SOL    HW158758   3.271   8.559   2.612
52287SOL    HW258759   3.235   8.486   2.740
52288SOL     OW58760   1.098   3.612   4.031
52288SOL    HW158761   1.087   3.558   3.952
52288SOL    HW258762   1.189   3.599   4.056
52289SOL     OW58763   4.733   6.071   1.738
52289SOL    HW158764   4.764   6.029   1.658
52289SOL    HW258765   4.804   6.131   1.762
52290SOL     OW58766   2.504  13.556  13.934
52290SOL    HW158767   2.513  13.465  13.962
52290SOL    HW258768   2.418  13.583  13.965
52291SOL     OW58769   3.576   9.728  13.973
52291SOL    HW158770   3.585   9.823  13.984
52291SOL    HW258771   3.609   9.691  14.056
52292SOL     OW58772   0.394  10.491   2.969
52292SOL    HW158773   0.374  10.414   3.023
52292SOL    HW258774   0.361  10.468   2.882
52293SOL     OW58775   3.227   7.510   6.235
52293SOL    HW158776   3.224   7.482   6.326
52293SOL    HW258777   3.292   7.453   6.194
52294SOL     OW58778  13.553   7.088   0.900
52294SOL    HW158779  13.485   7.023   0.880
52294SOL    HW258780  13.515   7.143   0.968
52295SOL     OW58781   5.450   8.569  14.788
52295SOL    HW158782   5.431   8.660  14.763
52295SOL    HW258783   5.521   8.543  14.729
52296SOL     OW58784  12.350   9.779  14.324
52296SOL    HW158785  12.335   9.692  14.360
52296SOL    HW258786  12.382   9.830  14.398
52297SOL     OW58787   7.932   0.470   1.565
52297SOL    HW158788   7.892   0.557   1.565
52297SOL    HW258789   7.863   0.411   1.535
52298SOL     OW58790   5.175   9.354   7.595
52298SOL    HW158791   5.112   9.421   7.570
52298SOL    HW258792   5.139   9.273   7.558
52299SOL     OW58793   2.833   6.626   5.231
52299SOL    HW158794   2.849   6.702   5.287
52299SOL    HW258795   2.913   6.574   5.239
52300SOL     OW58796   4.117  10.728   4.824
52300SOL    HW158797   4.189  10.782   4.792
52300SOL    HW258798   4.150  10.689   4.905
52301SOL     OW58799   8.856   9.028  14.360
52301SOL    HW158800   8.771   9.027  14.317
52301SOL    HW258801   8.914   9.074  14.299
52302SOL     OW58802   4.913  10.443  10.469
52302SOL    HW158803   4.968  10.452  10.547
52302SOL    HW258804   4.880  10.530  10.453
52303SOL     OW58805  13.611   5.747   9.452
52303SOL    HW158806  13.622   5.689   9.376
52303SOL    HW258807  13.684   5.808   9.446
52304SOL     OW58808  10.860   4.781   5.648
52304SOL    HW158809  10.916   4.801   5.572
52304SOL    HW258810  10.816   4.700   5.625
52305SOL     OW58811   9.888  10.435  13.218
52305SOL    HW158812   9.940  10.508  13.184
52305SOL    HW258813   9.917  10.423  13.308
52306SOL     OW58814   2.627   4.843   0.536
52306SOL    HW158815   2.661   4.807   0.455
52306SOL    HW258816   2.657   4.783   0.604
52307SOL     OW58817  14.667   9.269   9.248
52307SOL    HW158818  14.729   9.301   9.314
52307SOL    HW258819  14.619   9.347   9.220
52308SOL     OW58820   7.173   8.703   1.581
52308SOL    HW158821   7.124   8.631   1.542
52308SOL    HW258822   7.242   8.662   1.632
52309SOL     OW58823   6.051  14.245   4.472
52309SOL    HW158824   6.124  14.307   4.477
52309SOL    HW258825   6.034  14.220   4.563
52310SOL     OW58826  14.460  14.794   3.192
52310SOL    HW158827  14.496  14.711   3.162
52310SOL    HW258828  14.365  14.781   3.191
52311SOL     OW58829   1.386   3.319  10.909
52311SOL    HW158830   1.383   3.402  10.862
52311SOL    HW258831   1.298   3.308  10.944
52312SOL     OW58832   9.983   2.725   4.180
52312SOL    HW158833   9.959   2.809   4.141
52312SOL    HW258834   9.902   2.693   4.219
52313SOL     OW58835   1.023   0.467  10.239
52313SOL    HW158836   0.993   0.549  10.279
52313SOL    HW258837   1.099   0.493  10.186
52314SOL     OW58838   7.877   0.151   2.229
52314SOL    HW158839   7.870   0.096   2.150
52314SOL    HW258840   7.857   0.091   2.301
52315SOL     OW58841   2.914   2.992  13.642
52315SOL    HW158842   2.820   3.008  13.633
52315SOL    HW258843   2.939   2.946  13.562
52316SOL     OW58844   9.877   7.602  11.874
52316SOL    HW158845   9.895   7.621  11.782
52316SOL    HW258846   9.885   7.686  11.919
52317SOL     OW58847   7.768   7.078   1.017
52317SOL    HW158848   7.691   7.049   0.968
52317SOL    HW258849   7.842   7.041   0.969
52318SOL     OW58850   9.659  12.632  14.303
52318SOL    HW158851   9.639  12.588  14.221
52318SOL    HW258852   9.594  12.702  14.311
52319SOL     OW58853   6.818  13.199   8.812
52319SOL    HW158854   6.728  13.175   8.836
52319SOL    HW258855   6.821  13.186   8.717
52320SOL     OW58856   7.569  12.968  11.349
52320SOL    HW158857   7.517  12.978  11.270
52320SOL    HW258858   7.628  13.043  11.350
52321SOL     OW58859   7.687   3.981   2.658
52321SOL    HW158860   7.700   3.963   2.565
52321SOL    HW258861   7.660   4.073   2.662
52322SOL     OW58862  11.622   7.237   8.921
52322SOL    HW158863  11.545   7.290   8.944
52322SOL    HW258864  11.686   7.258   8.989
52323SOL     OW58865   1.607   4.484   5.141
52323SOL    HW158866   1.585   4.481   5.048
52323SOL    HW258867   1.694   4.446   5.147
52324SOL     OW58868   2.679   2.946  12.578
52324SOL    HW158869   2.655   3.032  12.614
52324SOL    HW258870   2.691   2.963  12.484
52325SOL     OW58871   4.125  12.893   3.124
52325SOL    HW158872   4.132  12.877   3.029
52325SOL    HW258873   4.215  12.889   3.156
52326SOL     OW58874  11.442  13.742  10.754
52326SOL    HW158875  11.525  13.699  10.773
52326SOL    HW258876  11.383  13.712  10.824
52327SOL     OW58877   6.419   1.904   3.165
52327SOL    HW158878   6.406   1.991   3.203
52327SOL    HW258879   6.448   1.850   3.239
52328SOL     OW58880   3.907   0.287  11.080
52328SOL    HW158881   3.979   0.244  11.126
52328SOL    HW258882   3.866   0.343  11.146
52329SOL     OW58883  10.507  13.254  13.633
52329SOL    HW158884  10.413  13.235  13.631
52329SOL    HW258885  10.519  13.317  13.561
52330SOL     OW58886   5.637   9.100  10.354
52330SOL    HW158887   5.650   9.157  10.279
52330SOL    HW258888   5.552   9.126  10.390
52331SOL     OW58889   2.136   9.728   9.352
52331SOL    HW158890   2.051   9.687   9.372
52331SOL    HW258891   2.198   9.655   9.352
52332SOL     OW58892  10.768   3.655   8.013
52332SOL    HW158893  10.796   3.737   8.053
52332SOL    HW258894  10.811   3.652   7.928
52333SOL     OW58895   5.904   6.129  11.551
52333SOL    HW158896   5.941   6.126  11.463
52333SOL    HW258897   5.926   6.216  11.584
52334SOL     OW58898   8.174   1.410   8.862
52334SOL    HW158899   8.165   1.342   8.794
52334SOL    HW258900   8.088   1.452   8.865
52335SOL     OW58901   3.286   5.628   6.151
52335SOL    HW158902   3.318   5.581   6.074
52335SOL    HW258903   3.275   5.718   6.122
52336SOL     OW58904  13.964  11.629   0.109
52336SOL    HW158905  14.019  11.554   0.133
52336SOL    HW258906  14.027  11.700   0.095
52337SOL     OW58907   6.477   8.698   5.175
52337SOL    HW158908   6.384   8.705   5.153
52337SOL    HW258909   6.512   8.786   5.159
52338SOL     OW58910   1.833  14.779  13.689
52338SOL    HW158911   1.843  14.818  13.602
52338SOL    HW258912   1.919  14.789  13.730
52339SOL     OW58913  14.370   6.264   7.111
52339SOL    HW158914  14.340   6.215   7.034
52339SOL    HW258915  14.299   6.255   7.174
52340SOL     OW58916   8.309  13.980   6.313
52340SOL    HW158917   8.293  14.012   6.402
52340SOL    HW258918   8.223  13.983   6.270
52341SOL     OW58919   8.211  14.253  10.584
52341SOL    HW158920   8.173  14.326  10.633
52341SOL    HW258921   8.136  14.203  10.553
52342SOL     OW58922   0.756  14.251   6.978
52342SOL    HW158923   0.782  14.171   6.932
52342SOL    HW258924   0.839  14.293   7.002
52343SOL     OW58925   3.104   9.112   9.791
52343SOL    HW158926   3.165   9.157   9.732
52343SOL    HW258927   3.024   9.165   9.787
52344SOL     OW58928   7.701  14.758   9.028
52344SOL    HW158929   7.734  14.714   8.949
52344SOL    HW258930   7.615  14.719   9.043
52345SOL     OW58931   2.298   2.639  14.857
52345SOL    HW158932   2.253   2.604  14.780
52345SOL    HW258933   2.388   2.606  14.848
52346SOL     OW58934   4.378   8.788  11.873
52346SOL    HW158935   4.432   8.826  11.804
52346SOL    HW258936   4.440   8.759  11.939
52347SOL     OW58937   3.549  10.876   4.376
52347SOL    HW158938   3.481  10.813   4.397
52347SOL    HW258939   3.620  10.823   4.338
52348SOL     OW58940   2.537  10.470   2.475
52348SOL    HW158941   2.525  10.377   2.490
52348SOL    HW258942   2.516  10.483   2.383
52349SOL     OW58943   8.249   6.038   3.927
52349SOL    HW158944   8.257   5.959   3.980
52349SOL    HW258945   8.284   6.108   3.983
52350SOL     OW58946   8.123  12.393  10.052
52350SOL    HW158947   8.118  12.486  10.030
52350SOL    HW258948   8.106  12.348   9.970
52351SOL     OW58949   2.566   2.371  10.656
52351SOL    HW158950   2.629   2.406  10.719
52351SOL    HW258951   2.620   2.330  10.588
52352SOL     OW58952   0.058   8.195   8.569
52352SOL    HW158953  14.869   8.256   8.594
52352SOL    HW258954   0.140   8.241   8.588
52353SOL     OW58955  13.466  10.467  14.400
52353SOL    HW158956  13.517  10.485  14.479
52353SOL    HW258957  13.436  10.553  14.370
52354SOL     OW58958   9.322   7.407   5.463
52354SOL    HW158959   9.285   7.334   5.413
52354SOL    HW258960   9.245   7.452   5.499
52355SOL     OW58961   7.076  11.211  14.420
52355SOL    HW158962   7.005  11.148  14.436
52355SOL    HW258963   7.119  11.178  14.341
52356SOL     OW58964   2.035   4.070   8.086
52356SOL    HW158965   2.018   3.998   8.025
52356SOL    HW258966   2.008   4.149   8.038
52357SOL     OW58967   5.289   1.380   5.673
52357SOL    HW158968   5.312   1.314   5.607
52357SOL    HW258969   5.208   1.419   5.640
52358SOL     OW58970   4.444  13.229   8.341
52358SOL    HW158971   4.437  13.302   8.402
52358SOL    HW258972   4.378  13.166   8.371
52359SOL     OW58973   7.308   4.430   7.784
52359SOL    HW158974   7.230   4.377   7.800
52359SOL    HW258975   7.351   4.434   7.870
52360SOL     OW58976  13.244   4.104   9.822
52360SOL    HW158977  13.272   4.127   9.734
52360SOL    HW258978  13.321   4.065   9.863
52361SOL     OW58979  10.997  13.904  10.078
52361SOL    HW158980  11.026  13.815  10.094
52361SOL    HW258981  10.903  13.903  10.096
52362SOL     OW58982   8.524   4.349   7.972
52362SOL    HW158983   8.558   4.426   7.928
52362SOL    HW258984   8.592   4.324   8.035
52363SOL     OW58985   8.190   3.873  12.559
52363SOL    HW158986   8.102   3.900  12.533
52363SOL    HW258987   8.180   3.784  12.591
52364SOL     OW58988   5.477  14.222   9.484
52364SOL    HW158989   5.500  14.256   9.570
52364SOL    HW258990   5.533  14.271   9.423
52365SOL     OW58991   7.293   1.076   1.902
52365SOL    HW158992   7.350   1.121   1.964
52365SOL    HW258993   7.296   1.130   1.823
52366SOL     OW58994  11.297   1.744   8.530
52366SOL    HW158995  11.224   1.777   8.477
52366SOL    HW258996  11.265   1.661   8.566
52367SOL     OW58997   1.470   3.981  11.963
52367SOL    HW158998   1.498   4.044  11.896
52367SOL    HW258999   1.378   4.002  11.978
52368SOL     OW59000   2.929   7.818  13.609
52368SOL    HW159001   3.005   7.765  13.586
52368SOL    HW259002   2.946   7.846  13.700
52369SOL     OW59003  13.438   9.017  11.965
52369SOL    HW159004  13.356   8.985  12.004
52369SOL    HW259005  13.423   9.011  11.871
52370SOL     OW59006   6.990   9.086  12.550
52370SOL    HW159007   6.898   9.095  12.573
52370SOL    HW259008   7.020   9.176  12.535
52371SOL     OW59009   2.115  11.888  13.538
52371SOL    HW159010   2.153  11.875  13.625
52371SOL    HW259011   2.091  11.801  13.508
52372SOL     OW59012   5.073   8.141   2.986
52372SOL    HW159013   4.984   8.118   2.960
52372SOL    HW259014   5.119   8.057   2.992
52373SOL     OW59015   3.152   3.284   7.321
52373SOL    HW159016   3.121   3.235   7.397
52373SOL    HW259017   3.228   3.332   7.353
52374SOL     OW59018  10.709  14.034   4.169
52374SOL    HW159019  10.804  14.030   4.177
52374SOL    HW259020  10.676  13.967   4.229
52375SOL     OW59021  11.755  10.475   9.738
52375SOL    HW159022  11.817  10.528   9.688
52375SOL    HW259023  11.669  10.515   9.721
52376SOL     OW59024   9.933  10.772   1.128
52376SOL    HW159025   9.986  10.843   1.092
52376SOL    HW259026   9.971  10.755   1.214
52377SOL     OW59027  10.234  11.520  12.385
52377SOL    HW159028  10.141  11.541  12.379
52377SOL    HW259029  10.276  11.604  12.406
52378SOL     OW59030  11.455  11.205   0.193
52378SOL    HW159031  11.379  11.211   0.250
52378SOL    HW259032  11.530  11.221   0.251
52379SOL     OW59033   9.420   6.164   3.306
52379SOL    HW159034   9.354   6.122   3.251
52379SOL    HW259035   9.373   6.189   3.385
52380SOL     OW59036   6.928   0.226   6.847
52380SOL    HW159037   6.942   0.304   6.902
52380SOL    HW259038   7.001   0.168   6.869
52381SOL     OW59039  14.302   4.602   4.014
52381SOL    HW159040  14.281   4.600   3.921
52381SOL    HW259041  14.370   4.669   4.022
52382SOL     OW59042   7.461   5.045   9.898
52382SOL    HW159043   7.479   5.006   9.812
52382SOL    HW259044   7.545   5.078   9.927
52383SOL     OW59045   2.036   8.497   9.993
52383SOL    HW159046   2.052   8.574   9.938
52383SOL    HW259047   2.122   8.457  10.005
52384SOL     OW59048   4.316   4.103  13.416
52384SOL    HW159049   4.288   4.048  13.489
52384SOL    HW259050   4.254   4.176  13.416
52385SOL     OW59051   0.300  13.042   7.331
52385SOL    HW159052   0.242  12.981   7.286
52385SOL    HW259053   0.342  13.092   7.262
52386SOL     OW59054  11.111   9.148   0.230
52386SOL    HW159055  11.052   9.196   0.171
52386SOL    HW259056  11.054   9.113   0.298
52387SOL     OW59057   6.562   6.355   3.804
52387SOL    HW159058   6.546   6.319   3.717
52387SOL    HW259059   6.487   6.413   3.821
52388SOL     OW59060   7.496  14.371  14.267
52388SOL    HW159061   7.449  14.445  14.307
52388SOL    HW259062   7.427  14.308  14.245
52389SOL     OW59063  13.244   4.985  13.983
52389SOL    HW159064  13.306   4.963  14.052
52389SOL    HW259065  13.185   4.909  13.979
52390SOL     OW59066  13.870   2.877   1.063
52390SOL    HW159067  13.887   2.967   1.038
52390SOL    HW259068  13.856   2.880   1.158
52391SOL     OW59069   2.004  11.326  10.911
52391SOL    HW159070   2.085  11.331  10.860
52391SOL    HW259071   2.025  11.371  10.993
52392SOL     OW59072   2.746   3.524   2.113
52392SOL    HW159073   2.651   3.524   2.128
52392SOL    HW259074   2.780   3.586   2.177
52393SOL     OW59075  11.575   2.028   0.467
52393SOL    HW159076  11.592   2.110   0.420
52393SOL    HW259077  11.580   2.052   0.559
52394SOL     OW59078  11.891   1.548  11.406
52394SOL    HW159079  11.905   1.618  11.343
52394SOL    HW259080  11.863   1.473  11.354
52395SOL     OW59081   2.843   8.088   2.691
52395SOL    HW159082   2.805   8.081   2.603
52395SOL    HW259083   2.888   8.172   2.690
52396SOL     OW59084   0.144  13.189  10.770
52396SOL    HW159085   0.166  13.103  10.807
52396SOL    HW259086   0.152  13.178  10.676
52397SOL     OW59087   4.521   4.222   2.626
52397SOL    HW159088   4.601   4.243   2.675
52397SOL    HW259089   4.454   4.279   2.665
52398SOL     OW59090   3.008   0.340   4.398
52398SOL    HW159091   3.007   0.432   4.371
52398SOL    HW259092   3.098   0.312   4.383
52399SOL     OW59093  12.757  13.065   1.776
52399SOL    HW159094  12.808  13.001   1.727
52399SOL    HW259095  12.677  13.020   1.801
52400SOL     OW59096   3.177  14.488   1.634
52400SOL    HW159097   3.146  14.563   1.583
52400SOL    HW259098   3.102  14.429   1.637
52401SOL     OW59099  14.477   5.821   1.803
52401SOL    HW159100  14.516   5.809   1.716
52401SOL    HW259101  14.394   5.775   1.798
52402SOL     OW59102  11.386  10.808   3.766
52402SOL    HW159103  11.314  10.746   3.777
52402SOL    HW259104  11.389  10.856   3.848
52403SOL     OW59105   7.698   3.684   3.445
52403SOL    HW159106   7.732   3.668   3.357
52403SOL    HW259107   7.736   3.615   3.498
52404SOL     OW59108   4.836   7.305   0.314
52404SOL    HW159109   4.759   7.334   0.363
52404SOL    HW259110   4.906   7.301   0.380
52405SOL     OW59111  10.528   2.785  13.310
52405SOL    HW159112  10.436   2.797  13.333
52405SOL    HW259113  10.571   2.766  13.394
52406SOL     OW59114   7.891  10.329   7.041
52406SOL    HW159115   7.950  10.349   6.969
52406SOL    HW259116   7.937  10.263   7.092
52407SOL     OW59117   5.927   6.624   1.883
52407SOL    HW159118   5.952   6.716   1.889
52407SOL    HW259119   6.003   6.577   1.916
52408SOL     OW59120   1.052   9.147  10.914
52408SOL    HW159121   0.973   9.100  10.939
52408SOL    HW259122   1.022   9.235  10.893
52409SOL     OW59123   6.056   2.190  14.687
52409SOL    HW159124   5.985   2.219  14.745
52409SOL    HW259125   6.061   2.257  14.619
52410SOL     OW59126   3.063   7.460  10.496
52410SOL    HW159127   3.076   7.393  10.430
52410SOL    HW259128   3.009   7.417  10.563
52411SOL     OW59129   1.484  10.999   9.940
52411SOL    HW159130   1.572  10.997   9.977
52411SOL    HW259131   1.492  11.051   9.860
52412SOL     OW59132   4.223   8.134   7.157
52412SOL    HW159133   4.188   8.175   7.236
52412SOL    HW259134   4.156   8.149   7.090
52413SOL     OW59135   4.558  10.843   7.277
52413SOL    HW159136   4.503  10.789   7.221
52413SOL    HW259137   4.632  10.868   7.221
52414SOL     OW59138   4.980   6.149   1.117
52414SOL    HW159139   4.955   6.102   1.197
52414SOL    HW259140   4.919   6.222   1.113
52415SOL     OW59141   6.067   7.476  10.787
52415SOL    HW159142   5.989   7.432  10.823
52415SOL    HW259143   6.057   7.467  10.693
52416SOL     OW59144   2.528  13.629   7.484
52416SOL    HW159145   2.567  13.650   7.568
52416SOL    HW259146   2.546  13.705   7.429
52417SOL     OW59147   8.801   4.704  12.928
52417SOL    HW159148   8.802   4.664  13.015
52417SOL    HW259149   8.873   4.662  12.882
52418SOL     OW59150   7.626   1.109   0.796
52418SOL    HW159151   7.687   1.137   0.728
52418SOL    HW259152   7.590   1.190   0.831
52419SOL     OW59153   1.256   6.422  14.276
52419SOL    HW159154   1.190   6.487  14.299
52419SOL    HW259155   1.324   6.472  14.231
52420SOL     OW59156  10.796   6.969   9.383
52420SOL    HW159157  10.768   6.906   9.450
52420SOL    HW259158  10.716   6.990   9.334
52421SOL     OW59159   2.640   7.285   6.384
52421SOL    HW159160   2.586   7.207   6.396
52421SOL    HW259161   2.579   7.358   6.393
52422SOL     OW59162   0.431   4.559  11.222
52422SOL    HW159163   0.452   4.497  11.291
52422SOL    HW259164   0.428   4.644  11.266
52423SOL     OW59165   7.526   2.755  11.240
52423SOL    HW159166   7.573   2.700  11.177
52423SOL    HW259167   7.518   2.840  11.197
52424SOL     OW59168   2.230   5.293   2.172
52424SOL    HW159169   2.236   5.381   2.208
52424SOL    HW259170   2.137   5.273   2.174
52425SOL     OW59171  10.742  13.297   4.366
52425SOL    HW159172  10.808  13.355   4.328
52425SOL    HW259173  10.770  13.285   4.457
52426SOL     OW59174   7.976   0.628   2.194
52426SOL    HW159175   7.905   0.564   2.200
52426SOL    HW259176   7.998   0.629   2.101
52427SOL     OW59177   0.263   4.738   9.346
52427SOL    HW159178   0.346   4.783   9.329
52427SOL    HW259179   0.278   4.690   9.427
52428SOL     OW59180  12.546   4.057   8.003
52428SOL    HW159181  12.608   4.128   8.022
52428SOL    HW259182  12.592   4.003   7.938
52429SOL     OW59183  11.233   9.384   3.272
52429SOL    HW159184  11.273   9.456   3.321
52429SOL    HW259185  11.140   9.387   3.295
52430SOL     OW59186   9.008   9.212   3.593
52430SOL    HW159187   8.936   9.150   3.600
52430SOL    HW259188   9.009   9.237   3.500
52431SOL     OW59189   7.681   0.213   7.311
52431SOL    HW159190   7.705   0.133   7.357
52431SOL    HW259191   7.736   0.213   7.233
52432SOL     OW59192   2.591   0.885   2.228
52432SOL    HW159193   2.606   0.861   2.136
52432SOL    HW259194   2.631   0.971   2.237
52433SOL     OW59195  12.111  11.410   7.796
52433SOL    HW159196  12.021  11.377   7.787
52433SOL    HW259197  12.109  11.463   7.876
52434SOL     OW59198   7.610   7.562   9.610
52434SOL    HW159199   7.555   7.589   9.684
52434SOL    HW259200   7.622   7.468   9.622
52435SOL     OW59201  12.513   5.234  11.145
52435SOL    HW159202  12.495   5.216  11.052
52435SOL    HW259203  12.464   5.168  11.192
52436SOL     OW59204   2.961   9.486  10.345
52436SOL    HW159205   2.875   9.475  10.386
52436SOL    HW259206   2.942   9.514  10.255
52437SOL     OW59207   3.993  14.506  10.031
52437SOL    HW159208   3.987  14.416  10.062
52437SOL    HW259209   3.948  14.557  10.099
52438SOL     OW59210   8.523  11.137   9.294
52438SOL    HW159211   8.551  11.226   9.273
52438SOL    HW259212   8.551  11.085   9.219
52439SOL     OW59213   0.393   6.257   5.394
52439SOL    HW159214   0.356   6.179   5.352
52439SOL    HW259215   0.486   6.239   5.402
52440SOL     OW59216  11.816  13.050   4.596
52440SOL    HW159217  11.908  13.025   4.608
52440SOL    HW259218  11.813  13.088   4.509
52441SOL     OW59219   9.720   2.130   4.474
52441SOL    HW159220   9.746   2.098   4.560
52441SOL    HW259221   9.645   2.187   4.490
52442SOL     OW59222  11.844   8.731   8.662
52442SOL    HW159223  11.780   8.795   8.631
52442SOL    HW259224  11.801   8.688   8.736
52443SOL     OW59225  12.755   0.826  12.661
52443SOL    HW159226  12.695   0.754  12.681
52443SOL    HW259227  12.768   0.870  12.745
52444SOL     OW59228   5.677  12.189   7.267
52444SOL    HW159229   5.698  12.197   7.360
52444SOL    HW259230   5.696  12.098   7.245
52445SOL     OW59231   5.684   9.926  12.843
52445SOL    HW159232   5.714   9.858  12.783
52445SOL    HW259233   5.715  10.008  12.805
52446SOL     OW59234   5.481   4.655   1.303
52446SOL    HW159235   5.456   4.717   1.371
52446SOL    HW259236   5.399   4.614   1.276
52447SOL     OW59237  14.428   7.388  10.426
52447SOL    HW159238  14.380   7.314  10.463
52447SOL    HW259239  14.443   7.363  10.335
52448SOL     OW59240  11.076   2.523  11.105
52448SOL    HW159241  11.098   2.485  11.190
52448SOL    HW259242  10.981   2.522  11.102
52449SOL     OW59243   5.340   9.275   7.831
52449SOL    HW159244   5.306   9.364   7.823
52449SOL    HW259245   5.327   9.236   7.745
52450SOL     OW59246  10.207   1.051   4.072
52450SOL    HW159247  10.302   1.063   4.067
52450SOL    HW259248  10.191   0.974   4.018
52451SOL     OW59249  13.447   6.381   4.835
52451SOL    HW159250  13.373   6.419   4.787
52451SOL    HW259251  13.489   6.324   4.771
52452SOL     OW59252   5.243   8.637  14.140
52452SOL    HW159253   5.204   8.550  14.140
52452SOL    HW259254   5.326   8.625  14.186
52453SOL     OW59255  11.743   0.074   9.021
52453SOL    HW159256  11.716   0.003   8.963
52453SOL    HW259257  11.702   0.053   9.105
52454SOL     OW59258   6.448   2.618   9.790
52454SOL    HW159259   6.477   2.685   9.853
52454SOL    HW259260   6.353   2.624   9.792
52455SOL     OW59261  10.305   1.304   6.784
52455SOL    HW159262  10.382   1.360   6.788
52455SOL    HW259263  10.321   1.236   6.850
52456SOL     OW59264  14.458   9.175  10.617
52456SOL    HW159265  14.535   9.172  10.561
52456SOL    HW259266  14.460   9.262  10.657
52457SOL     OW59267  10.280   9.439  12.366
52457SOL    HW159268  10.289   9.492  12.445
52457SOL    HW259269  10.370   9.422  12.338
52458SOL     OW59270   4.756   2.633   7.830
52458SOL    HW159271   4.801   2.714   7.807
52458SOL    HW259272   4.817   2.587   7.888
52459SOL     OW59273   9.897   2.363  14.006
52459SOL    HW159274   9.936   2.413  14.077
52459SOL    HW259275   9.949   2.282  14.002
52460SOL     OW59276  13.729   6.266   9.722
52460SOL    HW159277  13.681   6.264   9.805
52460SOL    HW259278  13.676   6.321   9.665
52461SOL     OW59279   8.330  13.382   4.042
52461SOL    HW159280   8.255  13.421   3.998
52461SOL    HW259281   8.297  13.357   4.128
52462SOL     OW59282   3.540   9.069   6.170
52462SOL    HW159283   3.455   9.114   6.177
52462SOL    HW259284   3.597   9.134   6.128
52463SOL     OW59285   1.429   1.838  10.400
52463SOL    HW159286   1.401   1.850  10.491
52463SOL    HW259287   1.516   1.879  10.397
52464SOL     OW59288  13.950   4.974   5.276
52464SOL    HW159289  13.943   4.908   5.208
52464SOL    HW259290  13.889   4.946   5.344
52465SOL     OW59291   1.291   2.839  14.462
52465SOL    HW159292   1.208   2.887  14.461
52465SOL    HW259293   1.348   2.889  14.403
52466SOL     OW59294   9.186   4.882  14.269
52466SOL    HW159295   9.187   4.856  14.177
52466SOL    HW259296   9.128   4.817  14.311
52467SOL     OW59297   4.135   7.824   7.364
52467SOL    HW159298   4.066   7.891   7.366
52467SOL    HW259299   4.100   7.752   7.417
52468SOL     OW59300   5.893  12.288   1.536
52468SOL    HW159301   5.914  12.323   1.622
52468SOL    HW259302   5.977  12.288   1.489
52469SOL     OW59303  13.702   3.896   3.094
52469SOL    HW159304  13.617   3.852   3.096
52469SOL    HW259305  13.721   3.908   3.001
52470SOL     OW59306   4.219  11.669   9.678
52470SOL    HW159307   4.259  11.755   9.676
52470SOL    HW259308   4.290  11.609   9.701
52471SOL     OW59309   7.284   1.696   7.757
52471SOL    HW159310   7.222   1.670   7.825
52471SOL    HW259311   7.293   1.619   7.701
52472SOL     OW59312  12.316   2.816   8.954
52472SOL    HW159313  12.255   2.742   8.960
52472SOL    HW259314  12.293   2.871   9.029
52473SOL     OW59315  12.149   4.913   8.487
52473SOL    HW159316  12.092   4.919   8.564
52473SOL    HW259317  12.238   4.917   8.523
52474SOL     OW59318   1.330   9.585   3.355
52474SOL    HW159319   1.325   9.546   3.268
52474SOL    HW259320   1.412   9.552   3.391
52475SOL     OW59321  12.741   9.529  12.493
52475SOL    HW159322  12.754   9.576  12.576
52475SOL    HW259323  12.822   9.544  12.445
52476SOL     OW59324  14.207  13.124  13.023
52476SOL    HW159325  14.163  13.058  13.076
52476SOL    HW259326  14.200  13.091  12.933
52477SOL     OW59327  13.157   9.583   5.698
52477SOL    HW159328  13.214   9.603   5.773
52477SOL    HW259329  13.094   9.520   5.732
52478SOL     OW59330   0.242   1.598  12.349
52478SOL    HW159331   0.329   1.593  12.309
52478SOL    HW259332   0.191   1.531  12.303
52479SOL     OW59333   6.326  10.855   1.571
52479SOL    HW159334   6.286  10.907   1.501
52479SOL    HW259335   6.254  10.801   1.604
52480SOL     OW59336  13.258   2.660   0.094
52480SOL    HW159337  13.299   2.593   0.039
52480SOL    HW259338  13.332   2.711   0.129
52481SOL     OW59339  12.580  11.563   9.049
52481SOL    HW159340  12.495  11.526   9.025
52481SOL    HW259341  12.617  11.594   8.966
52482SOL     OW59342   6.948  12.574   6.450
52482SOL    HW159343   6.962  12.500   6.509
52482SOL    HW259344   6.918  12.645   6.508
52483SOL     OW59345  10.696   4.805   0.344
52483SOL    HW159346  10.763   4.872   0.327
52483SOL    HW259347  10.613   4.853   0.339
52484SOL     OW59348  14.617   1.861   8.142
52484SOL    HW159349  14.549   1.929   8.140
52484SOL    HW259350  14.629   1.842   8.235
52485SOL     OW59351   1.438   1.934  13.120
52485SOL    HW159352   1.413   1.878  13.194
52485SOL    HW259353   1.506   1.885  13.075
52486SOL     OW59354   5.778   1.365  13.817
52486SOL    HW159355   5.698   1.331  13.777
52486SOL    HW259356   5.838   1.290  13.820
52487SOL     OW59357   6.995  11.083  12.133
52487SOL    HW159358   7.001  11.032  12.052
52487SOL    HW259359   7.032  11.026  12.200
52488SOL     OW59360   6.650   6.286   4.794
52488SOL    HW159361   6.724   6.336   4.759
52488SOL    HW259362   6.689   6.230   4.861
52489SOL     OW59363   6.164  13.157   2.027
52489SOL    HW159364   6.076  13.195   2.020
52489SOL    HW259365   6.179  13.150   2.121
52490SOL     OW59366   0.312   8.623  13.872
52490SOL    HW159367   0.354   8.669  13.799
52490SOL    HW259368   0.354   8.659  13.950
52491SOL     OW59369  11.222   2.230  13.236
52491SOL    HW159370  11.254   2.320  13.233
52491SOL    HW259371  11.189   2.213  13.148
52492SOL     OW59372  12.013   6.235   5.768
52492SOL    HW159373  11.992   6.327   5.782
52492SOL    HW259374  12.059   6.208   5.847
52493SOL     OW59375  10.513  14.808   1.130
52493SOL    HW159376  10.585  14.751   1.160
52493SOL    HW259377  10.550   0.016   1.132
52494SOL     OW59378  12.157  14.848   8.852
52494SOL    HW159379  12.172   0.042   8.793
52494SOL    HW259380  12.138  14.774   8.794
52495SOL     OW59381  13.838  11.753   2.154
52495SOL    HW159382  13.909  11.698   2.186
52495SOL    HW259383  13.863  11.842   2.180
52496SOL     OW59384   5.132  11.809  11.755
52496SOL    HW159385   5.054  11.812  11.809
52496SOL    HW259386   5.157  11.901  11.743
52497SOL     OW59387  11.831   6.188  11.768
52497SOL    HW159388  11.903   6.221  11.823
52497SOL    HW259389  11.753   6.231  11.804
52498SOL     OW59390  13.268   1.826   3.279
52498SOL    HW159391  13.184   1.845   3.238
52498SOL    HW259392  13.246   1.805   3.370
52499SOL     OW59393   6.247   9.094   0.589
52499SOL    HW159394   6.294   9.042   0.654
52499SOL    HW259395   6.165   9.117   0.632
52500SOL     OW59396  13.546   2.102   5.350
52500SOL    HW159397  13.606   2.030   5.329
52500SOL    HW259398  13.460   2.060   5.358
52501SOL     OW59399   7.415   1.712   5.316
52501SOL    HW159400   7.334   1.695   5.364
52501SOL    HW259401   7.485   1.688   5.377
52502SOL     OW59402  10.833   2.716   3.075
52502SOL    HW159403  10.927   2.721   3.062
52502SOL    HW259404  10.819   2.630   3.116
52503SOL     OW59405   0.762   0.246   4.350
52503SOL    HW159406   0.851   0.282   4.353
52503SOL    HW259407   0.733   0.247   4.441
52504SOL     OW59408   3.409  11.464   1.192
52504SOL    HW159409   3.394  11.413   1.112
52504SOL    HW259410   3.402  11.555   1.164
52505SOL     OW59411  11.703   7.976   2.485
52505SOL    HW159412  11.689   8.064   2.520
52505SOL    HW259413  11.787   7.982   2.438
52506SOL     OW59414   5.652   7.213   7.089
52506SOL    HW159415   5.687   7.291   7.044
52506SOL    HW259416   5.702   7.140   7.053
52507SOL     OW59417   4.872   2.590   5.625
52507SOL    HW159418   4.955   2.637   5.621
52507SOL    HW259419   4.817   2.643   5.683
52508SOL     OW59420   0.968   1.711   5.800
52508SOL    HW159421   1.046   1.766   5.804
52508SOL    HW259422   0.952   1.700   5.706
52509SOL     OW59423   5.929   8.108   9.747
52509SOL    HW159424   5.872   8.170   9.702
52509SOL    HW259425   6.003   8.096   9.688
52510SOL     OW59426  13.386   8.953   7.461
52510SOL    HW159427  13.400   9.032   7.513
52510SOL    HW259428  13.301   8.920   7.490
52511SOL     OW59429  12.002   0.571   3.539
52511SOL    HW159430  12.042   0.643   3.587
52511SOL    HW259431  12.073   0.509   3.525
52512SOL     OW59432   3.429   5.904  12.684
52512SOL    HW159433   3.414   5.998  12.671
52512SOL    HW259434   3.517   5.889  12.651
52513SOL     OW59435  12.222   6.193   8.328
52513SOL    HW159436  12.175   6.199   8.245
52513SOL    HW259437  12.179   6.257   8.385
52514SOL     OW59438   0.283   5.106   6.298
52514SOL    HW159439   0.300   5.056   6.218
52514SOL    HW259440   0.242   5.044   6.357
52515SOL     OW59441   5.615   5.597  13.693
52515SOL    HW159442   5.608   5.503  13.680
52515SOL    HW259443   5.661   5.607  13.777
52516SOL     OW59444   1.806  12.556   6.085
52516SOL    HW159445   1.794  12.490   6.154
52516SOL    HW259446   1.812  12.639   6.132
52517SOL     OW59447  12.634   0.372  10.038
52517SOL    HW159448  12.644   0.303  10.104
52517SOL    HW259449  12.549   0.412  10.058
52518SOL     OW59450   3.415   8.294   0.799
52518SOL    HW159451   3.401   8.266   0.889
52518SOL    HW259452   3.416   8.213   0.748
52519SOL     OW59453   8.390   5.656   9.418
52519SOL    HW159454   8.402   5.698   9.333
52519SOL    HW259455   8.368   5.727   9.477
52520SOL     OW59456   8.955   0.289   0.394
52520SOL    HW159457   8.860   0.288   0.407
52520SOL    HW259458   8.984   0.203   0.426
52521SOL     OW59459  11.404   0.698   3.253
52521SOL    HW159460  11.494   0.695   3.220
52521SOL    HW259461  11.352   0.725   3.177
52522SOL     OW59462   4.835   9.150   4.238
52522SOL    HW159463   4.869   9.091   4.305
52522SOL    HW259464   4.883   9.232   4.253
52523SOL     OW59465   2.654   6.099   2.589
52523SOL    HW159466   2.747   6.080   2.602
52523SOL    HW259467   2.627   6.146   2.668
52524SOL     OW59468   5.040   6.740   2.852
52524SOL    HW159469   5.094   6.819   2.866
52524SOL    HW259470   5.081   6.696   2.778
52525SOL     OW59471  12.737  10.690  14.044
52525SOL    HW159472  12.751  10.749  14.118
52525SOL    HW259473  12.648  10.710  14.014
52526SOL     OW59474  14.337   1.463   7.772
52526SOL    HW159475  14.402   1.419   7.717
52526SOL    HW259476  14.321   1.401   7.844
52527SOL     OW59477   4.781  13.361   6.081
52527SOL    HW159478   4.819  13.402   6.003
52527SOL    HW259479   4.773  13.268   6.057
52528SOL     OW59480   9.108   0.910  11.116
52528SOL    HW159481   9.092   1.004  11.107
52528SOL    HW259482   9.022   0.869  11.107
52529SOL     OW59483   0.164   5.929  14.000
52529SOL    HW159484   0.086   5.894  14.042
52529SOL    HW259485   0.130   5.996  13.940
52530SOL     OW59486   9.929  12.299   8.117
52530SOL    HW159487   9.902  12.219   8.162
52530SOL    HW259488  10.001  12.271   8.060
52531SOL     OW59489  10.298  13.680  14.313
52531SOL    HW159490  10.278  13.597  14.356
52531SOL    HW259491  10.215  13.726  14.310
52532SOL     OW59492   1.996   6.096   7.323
52532SOL    HW159493   2.041   6.045   7.390
52532SOL    HW259494   2.044   6.179   7.320
52533SOL     OW59495   1.536  11.887   3.297
52533SOL    HW159496   1.606  11.832   3.332
52533SOL    HW259497   1.456  11.837   3.315
52534SOL     OW59498  11.843   4.489   7.318
52534SOL    HW159499  11.916   4.484   7.256
52534SOL    HW259500  11.765   4.477   7.265
52535SOL     OW59501   6.366   2.969   1.855
52535SOL    HW159502   6.369   2.927   1.941
52535SOL    HW259503   6.438   2.930   1.806
52536SOL     OW59504   2.355   7.275  10.070
52536SOL    HW159505   2.323   7.362  10.094
52536SOL    HW259506   2.447   7.274  10.095
52537SOL     OW59507  10.179   5.153   5.440
52537SOL    HW159508  10.090   5.133   5.410
52537SOL    HW259509  10.167   5.189   5.528
52538SOL     OW59510   3.482  12.200   0.316
52538SOL    HW159511   3.458  12.271   0.255
52538SOL    HW259512   3.451  12.121   0.274
52539SOL     OW59513  10.519   7.180   1.242
52539SOL    HW159514  10.614   7.192   1.236
52539SOL    HW259515  10.508   7.114   1.311
52540SOL     OW59516   4.798   7.950   2.397
52540SOL    HW159517   4.782   7.921   2.487
52540SOL    HW259518   4.818   7.870   2.349
52541SOL     OW59519  10.433  10.992   5.557
52541SOL    HW159520  10.425  10.986   5.462
52541SOL    HW259521  10.420  11.085   5.576
52542SOL     OW59522  10.977  12.332   5.432
52542SOL    HW159523  11.042  12.391   5.394
52542SOL    HW259524  10.910  12.389   5.468
52543SOL     OW59525   7.285   7.369  12.056
52543SOL    HW159526   7.376   7.397  12.051
52543SOL    HW259527   7.290   7.276  12.079
52544SOL     OW59528  11.120   6.721  12.536
52544SOL    HW159529  11.049   6.740  12.597
52544SOL    HW259530  11.185   6.675  12.589
52545SOL     OW59531   0.033   7.358   6.205
52545SOL    HW159532  14.872   7.443   6.217
52545SOL    HW259533  14.867   7.319   6.131
52546SOL     OW59534  13.967   5.390   8.405
52546SOL    HW159535  14.023   5.462   8.433
52546SOL    HW259536  13.998   5.368   8.317
52547SOL     OW59537  11.618   3.160   6.633
52547SOL    HW159538  11.684   3.217   6.595
52547SOL    HW259539  11.647   3.148   6.724
52548SOL     OW59540  14.873   7.696  11.594
52548SOL    HW159541  14.865   7.675  11.688
52548SOL    HW259542  14.856   7.790  11.589
52549SOL     OW59543   3.268  10.899   3.902
52549SOL    HW159544   3.264  10.968   3.836
52549SOL    HW259545   3.336  10.927   3.963
52550SOL     OW59546   2.988   3.559   1.604
52550SOL    HW159547   2.939   3.518   1.676
52550SOL    HW259548   2.922   3.601   1.550
52551SOL     OW59549   1.572   9.021   0.963
52551SOL    HW159550   1.612   9.080   0.900
52551SOL    HW259551   1.540   9.077   1.033
52552SOL     OW59552   1.503  11.393   3.326
52552SOL    HW159553   1.508  11.311   3.277
52552SOL    HW259554   1.464  11.455   3.265
52553SOL     OW59555   5.392   2.111   3.064
52553SOL    HW159556   5.434   2.029   3.037
52553SOL    HW259557   5.374   2.100   3.157
52554SOL     OW59558  10.285  13.984  11.603
52554SOL    HW159559  10.333  14.046  11.657
52554SOL    HW259560  10.295  13.900  11.648
52555SOL     OW59561  11.798  12.373   0.983
52555SOL    HW159562  11.889  12.404   0.979
52555SOL    HW259563  11.749  12.448   1.017
52556SOL     OW59564  10.146   1.015   4.563
52556SOL    HW159565  10.202   1.014   4.640
52556SOL    HW259566  10.194   1.067   4.499
52557SOL     OW59567  10.662  11.340   1.529
52557SOL    HW159568  10.612  11.349   1.610
52557SOL    HW259569  10.601  11.367   1.460
52558SOL     OW59570  12.996  10.340   3.078
52558SOL    HW159571  12.926  10.278   3.058
52558SOL    HW259572  13.064  10.321   3.013
52559SOL     OW59573   3.484   5.590  13.596
52559SOL    HW159574   3.539   5.546  13.531
52559SOL    HW259575   3.540   5.600  13.673
52560SOL     OW59576   2.330  11.277   4.682
52560SOL    HW159577   2.339  11.321   4.598
52560SOL    HW259578   2.240  11.295   4.709
52561SOL     OW59579   4.400  10.313   7.772
52561SOL    HW159580   4.405  10.350   7.683
52561SOL    HW259581   4.407  10.219   7.758
52562SOL     OW59582  11.265   8.363   0.641
52562SOL    HW159583  11.229   8.394   0.558
52562SOL    HW259584  11.225   8.278   0.655
52563SOL     OW59585   5.302   4.515   2.956
52563SOL    HW159586   5.261   4.473   3.031
52563SOL    HW259587   5.322   4.443   2.896
52564SOL     OW59588   0.464   2.691   5.842
52564SOL    HW159589   0.492   2.777   5.872
52564SOL    HW259590   0.370   2.689   5.859
52565SOL     OW59591  11.623  10.789   9.881
52565SOL    HW159592  11.680  10.798   9.805
52565SOL    HW259593  11.657  10.851   9.944
52566SOL     OW59594   5.868   9.586  13.707
52566SOL    HW159595   5.941   9.616  13.762
52566SOL    HW259596   5.878   9.634  13.625
52567SOL     OW59597   1.682   7.612   2.257
52567SOL    HW159598   1.726   7.555   2.320
52567SOL    HW259599   1.703   7.701   2.287
52568SOL     OW59600   0.645   3.467  11.425
52568SOL    HW159601   0.733   3.444  11.394
52568SOL    HW259602   0.592   3.472  11.345
52569SOL     OW59603   1.173  13.754   4.308
52569SOL    HW159604   1.155  13.663   4.287
52569SOL    HW259605   1.087  13.791   4.330
52570SOL     OW59606  11.809  11.725   1.967
52570SOL    HW159607  11.852  11.653   2.014
52570SOL    HW259608  11.798  11.793   2.034
52571SOL     OW59609   8.649  13.809   5.969
52571SOL    HW159610   8.583  13.871   6.000
52571SOL    HW259611   8.627  13.797   5.876
52572SOL     OW59612  11.543  13.712  14.368
52572SOL    HW159613  11.628  13.712  14.413
52572SOL    HW259614  11.485  13.761  14.427
52573SOL     OW59615   2.065   1.007  12.514
52573SOL    HW159616   2.097   1.090  12.549
52573SOL    HW259617   1.975   1.000  12.547
52574SOL     OW59618   0.449  13.718  13.162
52574SOL    HW159619   0.380  13.676  13.111
52574SOL    HW259620   0.515  13.744  13.098
52575SOL     OW59621   4.593  13.436  13.363
52575SOL    HW159622   4.579  13.515  13.414
52575SOL    HW259623   4.662  13.389  13.410
52576SOL     OW59624  13.942   7.139   2.581
52576SOL    HW159625  13.905   7.113   2.496
52576SOL    HW259626  13.881   7.103   2.645
52577SOL     OW59627   9.223   2.013   9.472
52577SOL    HW159628   9.136   2.050   9.453
52577SOL    HW259629   9.243   2.043   9.561
52578SOL     OW59630  11.930  11.228   2.553
52578SOL    HW159631  12.007  11.244   2.499
52578SOL    HW259632  11.956  11.256   2.641
52579SOL     OW59633   1.984   5.325  11.363
52579SOL    HW159634   1.929   5.252  11.334
52579SOL    HW259635   2.067   5.313  11.316
52580SOL     OW59636   7.596   6.830   5.395
52580SOL    HW159637   7.560   6.912   5.428
52580SOL    HW259638   7.596   6.840   5.300
52581SOL     OW59639   3.887   7.963  12.869
52581SOL    HW159640   3.824   8.018  12.916
52581SOL    HW259641   3.887   7.997  12.780
52582SOL     OW59642   2.326   8.649  13.282
52582SOL    HW159643   2.387   8.652  13.208
52582SOL    HW259644   2.371   8.595  13.347
52583SOL     OW59645   3.342   9.817   6.100
52583SOL    HW159646   3.405   9.755   6.063
52583SOL    HW259647   3.349   9.805   6.195
52584SOL     OW59648   7.122   4.495   8.451
52584SOL    HW159649   7.115   4.584   8.416
52584SOL    HW259650   7.033   4.460   8.446
52585SOL     OW59651   4.662   0.197   5.361
52585SOL    HW159652   4.723   0.270   5.365
52585SOL    HW259653   4.579   0.237   5.336
52586SOL     OW59654   9.617  14.130  14.296
52586SOL    HW159655   9.696  14.090  14.333
52586SOL    HW259656   9.559  14.143  14.371
52587SOL     OW59657   2.519  11.052   5.060
52587SOL    HW159658   2.532  11.121   4.995
52587SOL    HW259659   2.509  11.098   5.142
52588SOL     OW59660  11.934   1.029  13.888
52588SOL    HW159661  12.028   1.012  13.883
52588SOL    HW259662  11.901   0.962  13.949
52589SOL     OW59663  12.113   0.340   7.864
52589SOL    HW159664  12.071   0.368   7.945
52589SOL    HW259665  12.047   0.287   7.819
52590SOL     OW59666   6.000   0.725  10.104
52590SOL    HW159667   6.003   0.701  10.196
52590SOL    HW259668   6.062   0.797  10.095
52591SOL     OW59669  13.981   5.297   9.713
52591SOL    HW159670  13.916   5.229   9.732
52591SOL    HW259671  14.065   5.256   9.736
52592SOL     OW59672   5.646  10.728   4.384
52592SOL    HW159673   5.560  10.694   4.410
52592SOL    HW259674   5.687  10.756   4.466
52593SOL     OW59675   4.890   8.754   5.173
52593SOL    HW159676   4.862   8.712   5.092
52593SOL    HW259677   4.921   8.682   5.228
52594SOL     OW59678   8.068   5.345  11.491
52594SOL    HW159679   7.990   5.390  11.460
52594SOL    HW259680   8.043   5.252  11.491
52595SOL     OW59681   0.051   6.201   4.899
52595SOL    HW159682  14.838   6.224   4.895
52595SOL    HW259683   0.092   6.276   4.942
52596SOL     OW59684  13.130  11.087   5.934
52596SOL    HW159685  13.188  11.060   6.005
52596SOL    HW259686  13.189  11.117   5.864
52597SOL     OW59687  13.048   6.667   9.227
52597SOL    HW159688  12.968   6.677   9.176
52597SOL    HW259689  13.085   6.584   9.197
52598SOL     OW59690   8.726  12.274   4.485
52598SOL    HW159691   8.684  12.213   4.545
52598SOL    HW259692   8.766  12.219   4.418
52599SOL     OW59693   5.012  11.754   1.827
52599SOL    HW159694   5.107  11.754   1.816
52599SOL    HW259695   4.998  11.785   1.916
52600SOL     OW59696  13.846   5.953   8.646
52600SOL    HW159697  13.939   5.962   8.667
52600SOL    HW259698  13.840   5.967   8.552
52601SOL     OW59699   1.111  10.949   0.716
52601SOL    HW159700   1.103  11.038   0.748
52601SOL    HW259701   1.026  10.929   0.677
52602SOL     OW59702   9.376  11.162  10.692
52602SOL    HW159703   9.410  11.242  10.651
52602SOL    HW259704   9.426  11.091  10.651
52603SOL     OW59705   1.028   2.088   3.820
52603SOL    HW159706   0.980   2.056   3.897
52603SOL    HW259707   0.960   2.115   3.759
52604SOL     OW59708  12.844   9.299  14.791
52604SOL    HW159709  12.791   9.313  14.869
52604SOL    HW259710  12.923   9.255  14.824
52605SOL     OW59711  14.880   8.653  12.416
52605SOL    HW159712  14.798   8.621  12.377
52605SOL    HW259713   0.043   8.702  12.346
52606SOL     OW59714  10.827   7.719  10.640
52606SOL    HW159715  10.817   7.802  10.594
52606SOL    HW259716  10.903   7.732  10.697
52607SOL     OW59717   7.281   1.245   6.229
52607SOL    HW159718   7.282   1.330   6.272
52607SOL    HW259719   7.190   1.229   6.207
52608SOL     OW59720   6.095   6.388  11.968
52608SOL    HW159721   6.123   6.424  12.053
52608SOL    HW259722   6.147   6.438  11.904
52609SOL     OW59723  10.544  11.419   1.092
52609SOL    HW159724  10.451  11.440   1.102
52609SOL    HW259725  10.590  11.498   1.121
52610SOL     OW59726  12.869  12.035   1.613
52610SOL    HW159727  12.959  12.006   1.622
52610SOL    HW259728  12.858  12.051   1.519
52611SOL     OW59729   4.036   1.348   9.330
52611SOL    HW159730   3.985   1.360   9.250
52611SOL    HW259731   4.103   1.283   9.305
52612SOL     OW59732   2.148   5.770   3.070
52612SOL    HW159733   2.234   5.754   3.030
52612SOL    HW259734   2.145   5.864   3.084
52613SOL     OW59735   0.004  10.816   6.569
52613SOL    HW159736  14.866  10.742   6.627
52613SOL    HW259737   0.036  10.885   6.627
52614SOL     OW59738   2.009   4.491   8.400
52614SOL    HW159739   1.970   4.557   8.343
52614SOL    HW259740   2.025   4.536   8.483
52615SOL     OW59741  12.677  13.414   7.681
52615SOL    HW159742  12.712  13.500   7.656
52615SOL    HW259743  12.634  13.382   7.602
52616SOL     OW59744  11.691   8.151   4.774
52616SOL    HW159745  11.671   8.061   4.748
52616SOL    HW259746  11.611   8.200   4.754
52617SOL     OW59747   6.394  13.729  10.335
52617SOL    HW159748   6.417  13.793  10.403
52617SOL    HW259749   6.458  13.659  10.346
52618SOL     OW59750  10.021  13.431  13.862
52618SOL    HW159751  10.060  13.370  13.925
52618SOL    HW259752   9.992  13.376  13.790
52619SOL     OW59753  10.151  10.538   3.900
52619SOL    HW159754  10.216  10.467   3.895
52619SOL    HW259755  10.169  10.581   3.984
52620SOL     OW59756  14.311   8.236   0.264
52620SOL    HW159757  14.249   8.254   0.334
52620SOL    HW259758  14.262   8.181   0.203
52621SOL     OW59759   5.587   3.960   2.363
52621SOL    HW159760   5.500   3.986   2.393
52621SOL    HW259761   5.607   4.021   2.292
52622SOL     OW59762   0.308  14.382  11.593
52622SOL    HW159763   0.344  14.465  11.564
52622SOL    HW259764   0.215  14.387  11.572
52623SOL     OW59765   6.680   5.931   6.467
52623SOL    HW159766   6.726   5.869   6.524
52623SOL    HW259767   6.741   5.948   6.395
52624SOL     OW59768   5.176  13.347   2.315
52624SOL    HW159769   5.216  13.264   2.289
52624SOL    HW259770   5.209  13.362   2.403
52625SOL     OW59771   2.740   5.657   1.388
52625SOL    HW159772   2.771   5.717   1.456
52625SOL    HW259773   2.646   5.672   1.383
52626SOL     OW59774   1.481   3.143  11.375
52626SOL    HW159775   1.560   3.152  11.428
52626SOL    HW259776   1.503   3.185  11.292
52627SOL     OW59777   6.296  14.021  10.740
52627SOL    HW159778   6.315  14.091  10.803
52627SOL    HW259779   6.235  13.963  10.787
52628SOL     OW59780  14.240  13.342   6.237
52628SOL    HW159781  14.237  13.370   6.328
52628SOL    HW259782  14.332  13.323   6.220
52629SOL     OW59783   0.839  14.544  14.783
52629SOL    HW159784   0.808  14.512  14.868
52629SOL    HW259785   0.914  14.599  14.805
52630SOL     OW59786   2.856   2.985  13.223
52630SOL    HW159787   2.867   2.954  13.134
52630SOL    HW259788   2.828   2.908  13.272
52631SOL     OW59789  11.641   8.963  13.433
52631SOL    HW159790  11.682   8.885  13.394
52631SOL    HW259791  11.547   8.943  13.433
52632SOL     OW59792   6.247   4.075  10.783
52632SOL    HW159793   6.172   4.039  10.829
52632SOL    HW259794   6.297   4.122  10.851
52633SOL     OW59795  12.390   3.631   0.891
52633SOL    HW159796  12.377   3.681   0.972
52633SOL    HW259797  12.301   3.617   0.857
52634SOL     OW59798  11.446   0.674   6.510
52634SOL    HW159799  11.475   0.586   6.534
52634SOL    HW259800  11.389   0.661   6.434
52635SOL     OW59801  13.308   0.790   7.886
52635SOL    HW159802  13.255   0.870   7.891
52635SOL    HW259803  13.244   0.719   7.884
52636SOL     OW59804   6.150   1.549   1.260
52636SOL    HW159805   6.217   1.498   1.306
52636SOL    HW259806   6.161   1.525   1.168
52637SOL     OW59807   4.490   8.485   6.133
52637SOL    HW159808   4.418   8.547   6.120
52637SOL    HW259809   4.525   8.469   6.045
52638SOL     OW59810  11.254   4.696   5.417
52638SOL    HW159811  11.306   4.617   5.398
52638SOL    HW259812  11.206   4.674   5.497
52639SOL     OW59813  12.810  10.181  12.475
52639SOL    HW159814  12.797  10.149  12.386
52639SOL    HW259815  12.722  10.192  12.510
52640SOL     OW59816   6.487   5.450   9.371
52640SOL    HW159817   6.514   5.358   9.361
52640SOL    HW259818   6.516   5.474   9.459
52641SOL     OW59819  13.723   1.671   7.833
52641SOL    HW159820  13.637   1.663   7.791
52641SOL    HW259821  13.705   1.669   7.927
52642SOL     OW59822   4.841   5.722  13.477
52642SOL    HW159823   4.778   5.751  13.544
52642SOL    HW259824   4.864   5.802  13.430
52643SOL     OW59825   2.415   5.851  13.251
52643SOL    HW159826   2.354   5.818  13.316
52643SOL    HW259827   2.361   5.874  13.175
52644SOL     OW59828  10.431   5.010  10.864
52644SOL    HW159829  10.436   4.914  10.854
52644SOL    HW259830  10.494   5.043  10.799
52645SOL     OW59831  13.661   3.447  14.284
52645SOL    HW159832  13.592   3.505  14.252
52645SOL    HW259833  13.639   3.361  14.247
52646SOL     OW59834   6.055   0.309   0.703
52646SOL    HW159835   6.125   0.372   0.718
52646SOL    HW259836   6.075   0.236   0.762
52647SOL     OW59837   7.890   9.494   0.704
52647SOL    HW159838   7.957   9.496   0.637
52647SOL    HW259839   7.935   9.517   0.785
52648SOL     OW59840   0.627   2.470   5.842
52648SOL    HW159841   0.578   2.406   5.895
52648SOL    HW259842   0.583   2.553   5.858
52649SOL     OW59843  12.207   1.969   6.707
52649SOL    HW159844  12.282   1.949   6.764
52649SOL    HW259845  12.152   2.028   6.758
52650SOL     OW59846   2.304   9.946  12.243
52650SOL    HW159847   2.371   9.913  12.182
52650SOL    HW259848   2.243   9.995  12.187
52651SOL     OW59849   9.624   5.975   4.904
52651SOL    HW159850   9.684   5.905   4.876
52651SOL    HW259851   9.660   6.006   4.987
52652SOL     OW59852  11.271   2.917   3.311
52652SOL    HW159853  11.251   2.914   3.217
52652SOL    HW259854  11.365   2.902   3.316
52653SOL     OW59855   8.594   0.500   3.999
52653SOL    HW159856   8.643   0.582   3.998
52653SOL    HW259857   8.502   0.527   3.997
52654SOL     OW59858  13.165   1.952  14.106
52654SOL    HW159859  13.225   1.927  14.037
52654SOL    HW259860  13.080   1.917  14.079
52655SOL     OW59861   3.902   2.257  13.168
52655SOL    HW159862   3.821   2.274  13.216
52655SOL    HW259863   3.887   2.293  13.081
52656SOL     OW59864   4.912  10.345   0.835
52656SOL    HW159865   4.959  10.306   0.908
52656SOL    HW259866   4.827  10.301   0.834
52657SOL     OW59867  10.051  12.653   7.741
52657SOL    HW159868  10.102  12.677   7.819
52657SOL    HW259869   9.993  12.583   7.772
52658SOL     OW59870   8.506   6.437   2.623
52658SOL    HW159871   8.564   6.504   2.658
52658SOL    HW259872   8.516   6.362   2.682
52659SOL     OW59873  11.994   8.911  10.628
52659SOL    HW159874  11.964   8.822  10.649
52659SOL    HW259875  11.973   8.922  10.535
52660SOL     OW59876  10.093   0.929   9.763
52660SOL    HW159877  10.147   0.886   9.697
52660SOL    HW259878  10.007   0.890   9.753
52661SOL     OW59879  11.192   8.658   9.191
52661SOL    HW159880  11.132   8.730   9.212
52661SOL    HW259881  11.175   8.593   9.258
52662SOL     OW59882   8.094   4.382   0.930
52662SOL    HW159883   8.063   4.330   1.004
52662SOL    HW259884   8.101   4.471   0.965
52663SOL     OW59885  12.200   7.822   4.729
52663SOL    HW159886  12.146   7.753   4.769
52663SOL    HW259887  12.260   7.775   4.671
52664SOL     OW59888   8.563  10.208   5.101
52664SOL    HW159889   8.572  10.125   5.054
52664SOL    HW259890   8.478  10.200   5.146
52665SOL     OW59891  12.795  10.108   3.022
52665SOL    HW159892  12.859  10.050   3.063
52665SOL    HW259893  12.788  10.077   2.932
52666SOL     OW59894   0.186   2.562  14.073
52666SOL    HW159895   0.252   2.542  14.139
52666SOL    HW259896   0.109   2.586  14.123
52667SOL     OW59897   4.254   5.483  10.050
52667SOL    HW159898   4.281   5.541  10.120
52667SOL    HW259899   4.229   5.402  10.094
52668SOL     OW59900  10.099  11.582   4.151
52668SOL    HW159901  10.121  11.669   4.183
52668SOL    HW259902  10.101  11.590   4.056
52669SOL     OW59903   1.462   8.845  13.663
52669SOL    HW159904   1.540   8.796  13.639
52669SOL    HW259905   1.393   8.779  13.671
52670SOL     OW59906   0.576   6.220   6.878
52670SOL    HW159907   0.584   6.127   6.856
52670SOL    HW259908   0.516   6.222   6.952
52671SOL     OW59909  11.207   0.242  14.118
52671SOL    HW159910  11.256   0.161  14.106
52671SOL    HW259911  11.121   0.224  14.081
52672SOL     OW59912  12.220   4.631   7.504
52672SOL    HW159913  12.172   4.590   7.576
52672SOL    HW259914  12.310   4.637   7.536
52673SOL     OW59915  13.340   3.252   2.467
52673SOL    HW159916  13.428   3.226   2.438
52673SOL    HW259917  13.348   3.346   2.483
52674SOL     OW59918   6.793   2.128   7.341
52674SOL    HW159919   6.703   2.095   7.347
52674SOL    HW259920   6.846   2.061   7.383
52675SOL     OW59921   0.142   5.954   3.928
52675SOL    HW159922   0.151   5.864   3.895
52675SOL    HW259923   0.073   5.948   3.994
52676SOL     OW59924   6.292   8.874   7.729
52676SOL    HW159925   6.313   8.835   7.645
52676SOL    HW259926   6.234   8.811   7.772
52677SOL     OW59927  12.229  13.077   2.801
52677SOL    HW159928  12.223  13.035   2.887
52677SOL    HW259929  12.323  13.089   2.787
52678SOL     OW59930  11.303  12.567  13.773
52678SOL    HW159931  11.350  12.535  13.695
52678SOL    HW259932  11.280  12.657  13.753
52679SOL     OW59933   2.203   2.959   2.992
52679SOL    HW159934   2.228   3.027   2.930
52679SOL    HW259935   2.122   2.990   3.032
52680SOL     OW59936   5.127  14.389   7.623
52680SOL    HW159937   5.104  14.481   7.628
52680SOL    HW259938   5.045  14.344   7.602
52681SOL     OW59939   9.922  11.138   2.327
52681SOL    HW159940   9.967  11.217   2.357
52681SOL    HW259941   9.857  11.120   2.396
52682SOL     OW59942   9.445   5.448   0.209
52682SOL    HW159943   9.387   5.400   0.150
52682SOL    HW259944   9.424   5.540   0.194
52683SOL     OW59945   8.711   0.683  14.020
52683SOL    HW159946   8.730   0.608  14.076
52683SOL    HW259947   8.704   0.758  14.080
52684SOL     OW59948   0.382   4.351  13.489
52684SOL    HW159949   0.431   4.294  13.430
52684SOL    HW259950   0.310   4.298  13.522
52685SOL     OW59951  10.501  13.766   7.618
52685SOL    HW159952  10.519  13.677   7.587
52685SOL    HW259953  10.437  13.755   7.688
52686SOL     OW59954   0.682   3.591  10.219
52686SOL    HW159955   0.651   3.647  10.290
52686SOL    HW259956   0.705   3.651  10.149
52687SOL     OW59957   2.454  14.184  14.765
52687SOL    HW159958   2.534  14.139  14.737
52687SOL    HW259959   2.384  14.143  14.714
52688SOL     OW59960   6.737   5.626   8.927
52688SOL    HW159961   6.801   5.556   8.912
52688SOL    HW259962   6.654   5.588   8.898
52689SOL     OW59963   5.906  12.621   6.711
52689SOL    HW159964   5.988  12.607   6.758
52689SOL    HW259965   5.895  12.543   6.657
52690SOL     OW59966   5.438   7.480  12.399
52690SOL    HW159967   5.519   7.434  12.377
52690SOL    HW259968   5.450   7.506  12.490
52691SOL     OW59969  12.054  13.854   6.051
52691SOL    HW159970  12.036  13.761   6.034
52691SOL    HW259971  12.136  13.872   6.004
52692SOL     OW59972   0.292  11.806   1.157
52692SOL    HW159973   0.317  11.759   1.077
52692SOL    HW259974   0.256  11.889   1.126
52693SOL     OW59975   8.973   4.172   3.019
52693SOL    HW159976   9.017   4.248   3.058
52693SOL    HW259977   9.032   4.143   2.950
52694SOL     OW59978   9.014   0.558  13.775
52694SOL    HW159979   8.997   0.474  13.817
52694SOL    HW259980   9.082   0.540  13.711
52695SOL     OW59981   6.067  10.613   8.616
52695SOL    HW159982   6.085  10.704   8.594
52695SOL    HW259983   6.047  10.571   8.533
52696SOL     OW59984   0.462  13.894   3.065
52696SOL    HW159985   0.474  13.925   3.155
52696SOL    HW259986   0.415  13.811   3.074
52697SOL     OW59987   0.006  11.264   8.275
52697SOL    HW159988  14.845  11.346   8.301
52697SOL    HW259989   0.047  11.231   8.356
52698SOL     OW59990   1.079   9.421   4.851
52698SOL    HW159991   1.067   9.490   4.917
52698SOL    HW259992   1.030   9.347   4.886
52699SOL     OW59993   7.214  12.594   1.713
52699SOL    HW159994   7.146  12.562   1.653
52699SOL    HW259995   7.288  12.535   1.699
52700SOL     OW59996  10.185  14.661   5.974
52700SOL    HW159997  10.198  14.615   6.057
52700SOL    HW259998  10.217  14.599   5.907
52701SOL     OW59999  11.211   6.542   4.592
52701SOL    HW160000  11.198   6.633   4.565
52701SOL    HW260001  11.209   6.492   4.510
52702SOL     OW60002   6.087  12.844   1.853
52702SOL    HW160003   6.000  12.810   1.874
52702SOL    HW260004   6.137  12.835   1.934
52703SOL     OW60005   7.049   5.755   9.250
52703SOL    HW160006   6.987   5.704   9.302
52703SOL    HW260007   7.011   5.843   9.247
52704SOL     OW60008  11.125   3.548   1.653
52704SOL    HW160009  11.146   3.455   1.658
52704SOL    HW260010  11.141   3.572   1.562
52705SOL     OW60011   2.634   2.943  13.608
52705SOL    HW160012   2.625   2.850  13.585
52705SOL    HW260013   2.556   2.984  13.571
52706SOL     OW60014   0.678  11.667   3.298
52706SOL    HW160015   0.588  11.671   3.264
52706SOL    HW260016   0.731  11.640   3.223
52707SOL     OW60017   0.332   2.635   1.748
52707SOL    HW160018   0.404   2.655   1.809
52707SOL    HW260019   0.341   2.701   1.679
52708SOL     OW60020  12.655   0.016   0.740
52708SOL    HW160021  12.737  14.859   0.710
52708SOL    HW260022  12.669   0.111   0.739
52709SOL     OW60023  13.827  13.903  12.933
52709SOL    HW160024  13.803  13.978  12.988
52709SOL    HW260025  13.906  13.868  12.973
52710SOL     OW60026   5.804   5.000   2.798
52710SOL    HW160027   5.741   5.058   2.757
52710SOL    HW260028   5.820   4.932   2.733
52711SOL     OW60029   6.480   8.905  13.543
52711SOL    HW160030   6.471   8.999  13.558
52711SOL    HW260031   6.390   8.873  13.536
52712SOL     OW60032   1.892   6.102   6.844
52712SOL    HW160033   1.873   6.190   6.876
52712SOL    HW260034   1.856   6.043   6.910
52713SOL     OW60035   1.109   6.593   0.167
52713SOL    HW160036   1.182   6.651   0.144
52713SOL    HW260037   1.031   6.647   0.157
52714SOL     OW60038  11.779  11.443   3.932
52714SOL    HW160039  11.729  11.413   4.008
52714SOL    HW260040  11.868  11.458   3.966
52715SOL     OW60041  10.788   4.569   1.425
52715SOL    HW160042  10.753   4.609   1.345
52715SOL    HW260043  10.720   4.509   1.453
52716SOL     OW60044   4.313  12.741   1.739
52716SOL    HW160045   4.270  12.656   1.732
52716SOL    HW260046   4.247  12.804   1.708
52717SOL     OW60047   4.821   7.494   1.637
52717SOL    HW160048   4.843   7.467   1.548
52717SOL    HW260049   4.730   7.466   1.649
52718SOL     OW60050  14.048   8.746  11.898
52718SOL    HW160051  14.024   8.699  11.978
52718SOL    HW260052  14.057   8.677  11.831
52719SOL     OW60053   6.941   7.226   3.664
52719SOL    HW160054   6.992   7.161   3.616
52719SOL    HW260055   6.893   7.274   3.596
52720SOL     OW60056   7.102   1.921  10.297
52720SOL    HW160057   7.093   2.007  10.256
52720SOL    HW260058   7.078   1.859  10.228
52721SOL     OW60059   7.734   0.418   8.372
52721SOL    HW160060   7.745   0.332   8.412
52721SOL    HW260061   7.757   0.480   8.442
52722SOL     OW60062   6.537   9.752   3.497
52722SOL    HW160063   6.489   9.832   3.520
52722SOL    HW260064   6.505   9.686   3.558
52723SOL     OW60065   5.199   1.786  13.973
52723SOL    HW160066   5.177   1.724  13.904
52723SOL    HW260067   5.219   1.867  13.926
52724SOL     OW60068   2.208  12.292  14.313
52724SOL    HW160069   2.190  12.385  14.322
52724SOL    HW260070   2.203  12.258  14.403
52725SOL     OW60071  11.634  12.127  10.950
52725SOL    HW160072  11.642  12.222  10.950
52725SOL    HW260073  11.665  12.100  11.037
52726SOL     OW60074   7.754  10.879   8.888
52726SOL    HW160075   7.787  10.841   8.807
52726SOL    HW260076   7.793  10.966   8.891
52727SOL     OW60077  12.062   5.379   3.515
52727SOL    HW160078  12.041   5.290   3.486
52727SOL    HW260079  12.153   5.374   3.545
52728SOL     OW60080   4.372  11.313   1.654
52728SOL    HW160081   4.335  11.333   1.569
52728SOL    HW260082   4.445  11.374   1.664
52729SOL     OW60083   4.468  14.277   4.665
52729SOL    HW160084   4.465  14.263   4.759
52729SOL    HW260085   4.522  14.206   4.632
52730SOL     OW60086  14.651   0.033  11.893
52730SOL    HW160087  14.622   0.077  11.972
52730SOL    HW260088  14.571   0.010  11.846
52731SOL     OW60089  11.379   5.946  11.350
52731SOL    HW160090  11.321   5.918  11.421
52731SOL    HW260091  11.457   5.891  11.360
52732SOL     OW60092  14.254  12.055   0.061
52732SOL    HW160093  14.322  12.122   0.068
52732SOL    HW260094  14.173  12.104   0.051
52733SOL     OW60095   3.527   8.480   8.980
52733SOL    HW160096   3.552   8.440   8.897
52733SOL    HW260097   3.458   8.542   8.958
52734SOL     OW60098   0.588  13.428   2.761
52734SOL    HW160099   0.648  13.388   2.824
52734SOL    HW260100   0.610  13.386   2.678
52735SOL     OW60101   9.175   9.703  14.519
52735SOL    HW160102   9.137   9.635  14.463
52735SOL    HW260103   9.128   9.783  14.495
52736SOL     OW60104   5.099   6.170  11.649
52736SOL    HW160105   5.185   6.205  11.626
52736SOL    HW260106   5.042   6.198  11.577
52737SOL     OW60107  12.298   0.773  12.156
52737SOL    HW160108  12.332   0.778  12.246
52737SOL    HW260109  12.206   0.749  12.167
52738SOL     OW60110   5.829   5.041  10.926
52738SOL    HW160111   5.823   5.057  11.020
52738SOL    HW260112   5.896   4.973  10.917
52739SOL     OW60113   6.134   3.756  11.134
52739SOL    HW160114   6.168   3.843  11.157
52739SOL    HW260115   6.043   3.772  11.109
52740SOL     OW60116  14.378   5.840   0.265
52740SOL    HW160117  14.355   5.854   0.357
52740SOL    HW260118  14.373   5.927   0.226
52741SOL     OW60119   4.826  10.462  13.946
52741SOL    HW160120   4.862  10.389  13.996
52741SOL    HW260121   4.811  10.530  14.011
52742SOL     OW60122   5.432  12.135   7.782
52742SOL    HW160123   5.355  12.188   7.803
52742SOL    HW260124   5.506  12.187   7.814
52743SOL     OW60125   4.520   4.504   1.416
52743SOL    HW160126   4.518   4.428   1.358
52743SOL    HW260127   4.589   4.484   1.479
52744SOL     OW60128  11.424   2.923   6.617
52744SOL    HW160129  11.477   3.003   6.614
52744SOL    HW260130  11.395   2.917   6.708
52745SOL     OW60131  12.615  12.711   5.252
52745SOL    HW160132  12.616  12.619   5.225
52745SOL    HW260133  12.707  12.732   5.268
52746SOL     OW60134   4.919  10.751   1.104
52746SOL    HW160135   4.945  10.787   1.188
52746SOL    HW260136   4.986  10.686   1.084
52747SOL     OW60137   5.458   3.015  13.628
52747SOL    HW160138   5.478   2.921  13.625
52747SOL    HW260139   5.543   3.057  13.627
52748SOL     OW60140   7.127   9.480   3.974
52748SOL    HW160141   7.193   9.547   3.955
52748SOL    HW260142   7.110   9.439   3.890
52749SOL     OW60143   2.109   3.331   4.246
52749SOL    HW160144   2.076   3.417   4.271
52749SOL    HW260145   2.043   3.296   4.186
52750SOL     OW60146   4.901  13.088   1.647
52750SOL    HW160147   4.851  13.164   1.617
52750SOL    HW260148   4.988  13.123   1.668
52751SOL     OW60149   8.903   9.759   0.169
52751SOL    HW160150   8.873   9.742   0.258
52751SOL    HW260151   8.865   9.844   0.146
52752SOL     OW60152  13.051   6.634  12.844
52752SOL    HW160153  13.028   6.569  12.776
52752SOL    HW260154  13.072   6.581  12.921
52753SOL     OW60155   9.579  12.251  11.757
52753SOL    HW160156   9.609  12.342  11.756
52753SOL    HW260157   9.594  12.222  11.847
52754SOL     OW60158   5.420   9.826   8.377
52754SOL    HW160159   5.512   9.819   8.354
52754SOL    HW260160   5.374   9.814   8.294
52755SOL     OW60161  14.506  11.159  13.815
52755SOL    HW160162  14.530  11.228  13.754
52755SOL    HW260163  14.583  11.101  13.817
52756SOL     OW60164   6.415  11.952   4.706
52756SOL    HW160165   6.377  11.963   4.619
52756SOL    HW260166   6.398  12.035   4.750
52757SOL     OW60167   0.652   4.971   7.986
52757SOL    HW160168   0.695   5.029   8.050
52757SOL    HW260169   0.716   4.963   7.915
52758SOL     OW60170   6.582   6.242  13.780
52758SOL    HW160171   6.592   6.258  13.873
52758SOL    HW260172   6.517   6.171  13.774
52759SOL     OW60173   7.289   0.050   2.822
52759SOL    HW160174   7.243   0.087   2.747
52759SOL    HW260175   7.224   0.048   2.892
52760SOL     OW60176   1.961   4.534   9.508
52760SOL    HW160177   1.997   4.450   9.533
52760SOL    HW260178   2.037   4.588   9.487
52761SOL     OW60179  13.911   2.348  13.387
52761SOL    HW160180  13.949   2.399  13.316
52761SOL    HW260181  13.823   2.382  13.398
52762SOL     OW60182   5.333   9.988  14.165
52762SOL    HW160183   5.348   9.955  14.076
52762SOL    HW260184   5.263  10.053  14.154
52763SOL     OW60185   5.681  14.170   9.098
52763SOL    HW160186   5.643  14.145   9.014
52763SOL    HW260187   5.664  14.095   9.155
52764SOL     OW60188   1.771   9.938   3.551
52764SOL    HW160189   1.689   9.970   3.588
52764SOL    HW260190   1.746   9.900   3.467
52765SOL     OW60191   6.286  12.813   1.050
52765SOL    HW160192   6.363  12.759   1.066
52765SOL    HW260193   6.272  12.808   0.956
52766SOL     OW60194   9.673  13.541   7.143
52766SOL    HW160195   9.758  13.577   7.119
52766SOL    HW260196   9.659  13.469   7.081
52767SOL     OW60197   7.603  13.868   4.497
52767SOL    HW160198   7.614  13.951   4.450
52767SOL    HW260199   7.633  13.887   4.586
52768SOL     OW60200   7.132   5.082  11.827
52768SOL    HW160201   7.040   5.085  11.802
52768SOL    HW260202   7.174   5.034  11.755
52769SOL     OW60203  13.656   5.820   5.352
52769SOL    HW160204  13.729   5.760   5.338
52769SOL    HW260205  13.696   5.898   5.389
52770SOL     OW60206   0.368   7.628  12.459
52770SOL    HW160207   0.416   7.697  12.505
52770SOL    HW260208   0.408   7.624  12.372
52771SOL     OW60209  10.559  11.122  12.221
52771SOL    HW160210  10.477  11.123  12.272
52771SOL    HW260211  10.627  11.132  12.287
52772SOL     OW60212   4.830   9.870   7.369
52772SOL    HW160213   4.878   9.927   7.429
52772SOL    HW260214   4.866   9.890   7.283
52773SOL     OW60215   6.190   9.293   5.550
52773SOL    HW160216   6.107   9.257   5.581
52773SOL    HW260217   6.172   9.325   5.462
52774SOL     OW60218  12.911   6.329  10.795
52774SOL    HW160219  12.816   6.339  10.804
52774SOL    HW260220  12.932   6.252  10.847
52775SOL     OW60221  13.998   5.505  13.050
52775SOL    HW160222  13.926   5.485  12.990
52775SOL    HW260223  14.046   5.423  13.057
52776SOL     OW60224   3.801   1.250  11.078
52776SOL    HW160225   3.801   1.321  11.013
52776SOL    HW260226   3.763   1.290  11.156
52777SOL     OW60227  11.318   8.576   8.968
52777SOL    HW160228  11.237   8.591   9.016
52777SOL    HW260229  11.359   8.662   8.962
52778SOL     OW60230   8.547   4.972   8.167
52778SOL    HW160231   8.487   5.007   8.101
52778SOL    HW260232   8.634   4.983   8.129
52779SOL     OW60233   8.961  10.064   3.858
52779SOL    HW160234   9.023  10.079   3.786
52779SOL    HW260235   8.963   9.970   3.872
52780SOL     OW60236   2.210  11.006   9.630
52780SOL    HW160237   2.242  11.036   9.545
52780SOL    HW260238   2.117  11.029   9.630
52781SOL     OW60239  13.743  12.105   4.696
52781SOL    HW160240  13.816  12.048   4.721
52781SOL    HW260241  13.741  12.100   4.600
52782SOL     OW60242   0.021   7.671   1.070
52782SOL    HW160243   0.014   7.591   1.019
52782SOL    HW260244  14.869   7.740   1.012
52783SOL     OW60245  14.613   4.706   2.331
52783SOL    HW160246  14.651   4.639   2.387
52783SOL    HW260247  14.631   4.676   2.242
52784SOL     OW60248  13.576  12.009  10.201
52784SOL    HW160249  13.647  11.950  10.178
52784SOL    HW260250  13.513  11.954  10.248
52785SOL     OW60251  12.897  11.495  10.989
52785SOL    HW160252  12.822  11.437  10.982
52785SOL    HW260253  12.903  11.515  11.083
52786SOL     OW60254   8.819   1.048   7.993
52786SOL    HW160255   8.881   1.037   8.065
52786SOL    HW260256   8.864   1.106   7.931
52787SOL     OW60257  12.556   0.172   1.623
52787SOL    HW160258  12.624   0.108   1.643
52787SOL    HW260259  12.477   0.139   1.665
52788SOL     OW60260   8.965   4.698   2.665
52788SOL    HW160261   8.979   4.655   2.749
52788SOL    HW260262   9.039   4.758   2.656
52789SOL     OW60263   0.042   4.206   8.429
52789SOL    HW160264   0.035   4.234   8.337
52789SOL    HW260265   0.036   4.287   8.479
52790SOL     OW60266   4.853  10.907  10.950
52790SOL    HW160267   4.869  10.951  10.866
52790SOL    HW260268   4.760  10.883  10.947
52791SOL     OW60269   9.191   9.880  12.045
52791SOL    HW160270   9.186   9.943  11.973
52791SOL    HW260271   9.265   9.911  12.098
52792SOL     OW60272   4.348   7.538   6.120
52792SOL    HW160273   4.432   7.577   6.144
52792SOL    HW260274   4.363   7.503   6.032
52793SOL     OW60275  11.312   2.402   5.814
52793SOL    HW160276  11.386   2.433   5.866
52793SOL    HW260277  11.281   2.481   5.768
52794SOL     OW60278   6.853   7.282   7.090
52794SOL    HW160279   6.837   7.275   6.996
52794SOL    HW260280   6.926   7.223   7.107
52795SOL     OW60281   9.853   4.900   6.674
52795SOL    HW160282   9.826   4.888   6.582
52795SOL    HW260283   9.811   4.982   6.700
52796SOL     OW60284   6.742   0.421  14.160
52796SOL    HW160285   6.650   0.395  14.169
52796SOL    HW260286   6.762   0.406  14.067
52797SOL     OW60287  13.328  13.428  11.839
52797SOL    HW160288  13.323  13.337  11.866
52797SOL    HW260289  13.422  13.448  11.837
52798SOL     OW60290   7.066   9.366   4.848
52798SOL    HW160291   7.091   9.279   4.818
52798SOL    HW260292   6.977   9.355   4.881
52799SOL     OW60293  14.030   0.531   5.927
52799SOL    HW160294  13.941   0.505   5.951
52799SOL    HW260295  14.051   0.603   5.987
52800SOL     OW60296   4.486  12.848   5.877
52800SOL    HW160297   4.408  12.895   5.903
52800SOL    HW260298   4.542  12.847   5.955
52801SOL     OW60299   9.201   1.374   7.102
52801SOL    HW160300   9.279   1.319   7.097
52801SOL    HW260301   9.215   1.430   7.178
52802SOL     OW60302   2.652   6.882   1.743
52802SOL    HW160303   2.621   6.950   1.802
52802SOL    HW260304   2.748   6.889   1.746
52803SOL     OW60305   7.254   7.175   8.173
52803SOL    HW160306   7.339   7.170   8.128
52803SOL    HW260307   7.247   7.267   8.200
52804SOL     OW60308   2.628  14.448   0.649
52804SOL    HW160309   2.586  14.477   0.568
52804SOL    HW260310   2.685  14.376   0.622
52805SOL     OW60311   8.752  12.872  12.701
52805SOL    HW160312   8.786  12.819  12.629
52805SOL    HW260313   8.768  12.819  12.780
52806SOL     OW60314  14.304   7.570  12.449
52806SOL    HW160315  14.235   7.558  12.384
52806SOL    HW260316  14.287   7.503  12.515
52807SOL     OW60317   7.545   6.628  11.010
52807SOL    HW160318   7.626   6.616  11.059
52807SOL    HW260319   7.501   6.701  11.054
52808SOL     OW60320  13.401  14.853   7.199
52808SOL    HW160321  13.308  14.830   7.196
52808SOL    HW260322  13.406   0.061   7.161
52809SOL     OW60323   3.201   2.988  11.803
52809SOL    HW160324   3.269   2.922  11.815
52809SOL    HW260325   3.143   2.951  11.737
52810SOL     OW60326   7.360   6.911   1.395
52810SOL    HW160327   7.338   6.823   1.367
52810SOL    HW260328   7.410   6.948   1.323
52811SOL     OW60329   5.041   5.643   5.996
52811SOL    HW160330   5.112   5.691   5.955
52811SOL    HW260331   4.968   5.650   5.934
52812SOL     OW60332   9.830   4.338   4.431
52812SOL    HW160333   9.878   4.399   4.487
52812SOL    HW260334   9.881   4.332   4.351
52813SOL     OW60335   7.433   2.795  14.034
52813SOL    HW160336   7.523   2.828  14.031
52813SOL    HW260337   7.386   2.849  13.970
52814SOL     OW60338   6.994   7.732   7.379
52814SOL    HW160339   6.951   7.801   7.430
52814SOL    HW260340   7.035   7.778   7.306
52815SOL     OW60341   0.031  13.640   5.029
52815SOL    HW160342   0.058  13.695   4.956
52815SOL    HW260343   0.098  13.571   5.033
52816SOL     OW60344  14.141   9.648  10.565
52816SOL    HW160345  14.229   9.627  10.533
52816SOL    HW260346  14.146   9.633  10.660
52817SOL     OW60347   8.165   8.920  12.879
52817SOL    HW160348   8.194   8.834  12.911
52817SOL    HW260349   8.246   8.962  12.848
52818SOL     OW60350   1.080  14.597  13.717
52818SOL    HW160351   1.061  14.684  13.751
52818SOL    HW260352   1.174  14.598  13.698
52819SOL     OW60353   1.923   0.043  10.409
52819SOL    HW160354   1.961  14.855  10.353
52819SOL    HW260355   1.998   0.097  10.435
52820SOL     OW60356   5.366   8.588   8.798
52820SOL    HW160357   5.457   8.558   8.791
52820SOL    HW260358   5.365   8.672   8.751
52821SOL     OW60359  12.938  10.768   7.930
52821SOL    HW160360  13.032  10.751   7.926
52821SOL    HW260361  12.902  10.691   7.976
52822SOL     OW60362   3.919  12.429   3.763
52822SOL    HW160363   3.859  12.486   3.812
52822SOL    HW260364   3.884  12.429   3.674
52823SOL     OW60365   2.023  10.977   1.391
52823SOL    HW160366   2.112  10.965   1.424
52823SOL    HW260367   1.984  10.889   1.397
52824SOL     OW60368   3.346   5.657  14.661
52824SOL    HW160369   3.266   5.606  14.652
52824SOL    HW260370   3.346   5.688  14.752
52825SOL     OW60371   9.165   2.414   9.333
52825SOL    HW160372   9.231   2.388   9.268
52825SOL    HW260373   9.193   2.502   9.360
52826SOL     OW60374  10.151   0.819   1.100
52826SOL    HW160375  10.196   0.902   1.082
52826SOL    HW260376  10.124   0.787   1.014
52827SOL     OW60377  14.677   9.317   0.154
52827SOL    HW160378  14.597   9.367   0.169
52827SOL    HW260379  14.709   9.349   0.070
52828SOL     OW60380   0.130   6.079   6.096
52828SOL    HW160381   0.066   6.008   6.106
52828SOL    HW260382   0.210   6.045   6.135
52829SOL     OW60383  10.527   5.702  14.486
52829SOL    HW160384  10.449   5.677  14.535
52829SOL    HW260385  10.496   5.768  14.423
52830SOL     OW60386  13.539  14.078   3.877
52830SOL    HW160387  13.474  14.142   3.909
52830SOL    HW260388  13.486  14.012   3.832
52831SOL     OW60389  14.670   5.678   0.228
52831SOL    HW160390  14.661   5.721   0.314
52831SOL    HW260391  14.752   5.628   0.235
52832SOL     OW60392   8.822   0.828  10.994
52832SOL    HW160393   8.898   0.775  10.970
52832SOL    HW260394   8.760   0.765  11.030
52833SOL     OW60395  11.649   4.214   2.230
52833SOL    HW160396  11.623   4.292   2.180
52833SOL    HW260397  11.700   4.162   2.168
52834SOL     OW60398   8.125  10.946  14.607
52834SOL    HW160399   8.168  11.017  14.559
52834SOL    HW260400   8.163  10.952  14.695
52835SOL     OW60401   2.876   0.144   9.366
52835SOL    HW160402   2.927   0.073   9.406
52835SOL    HW260403   2.811   0.167   9.433
52836SOL     OW60404   6.760  14.087  14.128
52836SOL    HW160405   6.692  14.022  14.147
52836SOL    HW260406   6.812  14.090  14.208
52837SOL     OW60407   6.991   9.248   8.838
52837SOL    HW160408   6.907   9.239   8.793
52837SOL    HW260409   7.055   9.255   8.768
52838SOL     OW60410  11.058   3.294  14.253
52838SOL    HW160411  10.968   3.320  14.234
52838SOL    HW260412  11.103   3.375  14.276
52839SOL     OW60413   5.206   8.796   8.152
52839SOL    HW160414   5.300   8.803   8.170
52839SOL    HW260415   5.201   8.769   8.061
52840SOL     OW60416   3.203   0.100  13.718
52840SOL    HW160417   3.286   0.070  13.681
52840SOL    HW260418   3.186   0.183  13.674
52841SOL     OW60419   5.165   3.366   6.021
52841SOL    HW160420   5.159   3.290   6.080
52841SOL    HW260421   5.074   3.392   6.006
52842SOL     OW60422  11.897   4.759   0.308
52842SOL    HW160423  11.925   4.673   0.276
52842SOL    HW260424  11.830   4.740   0.373
52843SOL     OW60425   4.413   5.187   8.841
52843SOL    HW160426   4.332   5.188   8.790
52843SOL    HW260427   4.448   5.099   8.829
52844SOL     OW60428   3.641  11.009  12.177
52844SOL    HW160429   3.679  10.960  12.250
52844SOL    HW260430   3.567  11.055  12.215
52845SOL     OW60431  14.301  14.400   1.894
52845SOL    HW160432  14.382  14.447   1.873
52845SOL    HW260433  14.232  14.454   1.856
52846SOL     OW60434   6.181  12.129   1.144
52846SOL    HW160435   6.266  12.090   1.125
52846SOL    HW260436   6.184  12.214   1.101
52847SOL     OW60437  14.375   4.441   4.730
52847SOL    HW160438  14.406   4.480   4.812
52847SOL    HW260439  14.333   4.513   4.684
52848SOL     OW60440  10.467   8.884  11.445
52848SOL    HW160441  10.457   8.969  11.488
52848SOL    HW260442  10.384   8.840  11.458
52849SOL     OW60443   5.065   5.522   9.590
52849SOL    HW160444   4.971   5.537   9.587
52849SOL    HW260445   5.079   5.470   9.670
52850SOL     OW60446   2.039   1.052   1.704
52850SOL    HW160447   1.947   1.079   1.710
52850SOL    HW260448   2.038   0.958   1.722
52851SOL     OW60449   5.197   6.523  14.050
52851SOL    HW160450   5.257   6.556  13.983
52851SOL    HW260451   5.154   6.602  14.084
52852SOL     OW60452   6.631  11.874   6.883
52852SOL    HW160453   6.559  11.835   6.832
52852SOL    HW260454   6.590  11.899   6.966
52853SOL     OW60455  12.785   3.653   8.676
52853SOL    HW160456  12.834   3.574   8.699
52853SOL    HW260457  12.810   3.671   8.586
52854SOL     OW60458  12.624   0.228   2.291
52854SOL    HW160459  12.636   0.175   2.369
52854SOL    HW260460  12.533   0.258   2.296
52855SOL     OW60461   0.268   6.857  10.972
52855SOL    HW160462   0.224   6.909  11.039
52855SOL    HW260463   0.354   6.838  11.009
52856SOL     OW60464  14.692   6.878   4.484
52856SOL    HW160465  14.727   6.880   4.394
52856SOL    HW260466  14.713   6.964   4.520
52857SOL     OW60467  13.344  14.838   3.960
52857SOL    HW160468  13.356  14.859   4.052
52857SOL    HW260469  13.422  14.787   3.937
52858SOL     OW60470  11.525  12.068   9.782
52858SOL    HW160471  11.529  12.143   9.723
52858SOL    HW260472  11.518  12.107   9.869
52859SOL     OW60473   2.873  14.557   2.068
52859SOL    HW160474   2.814  14.483   2.053
52859SOL    HW260475   2.814  14.633   2.071
52860SOL     OW60476  14.131  13.270   0.023
52860SOL    HW160477  14.087  13.351   0.048
52860SOL    HW260478  14.069  13.226  14.844
52861SOL     OW60479  13.925   4.378   2.839
52861SOL    HW160480  13.875   4.313   2.790
52861SOL    HW260481  14.007   4.388   2.791
52862SOL     OW60482  13.439   2.145  13.080
52862SOL    HW160483  13.410   2.188  13.161
52862SOL    HW260484  13.530   2.122  13.096
52863SOL     OW60485   7.450   0.499   9.354
52863SOL    HW160486   7.515   0.450   9.305
52863SOL    HW260487   7.501   0.563   9.404
52864SOL     OW60488   4.388   8.825   2.897
52864SOL    HW160489   4.453   8.854   2.960
52864SOL    HW260490   4.309   8.809   2.948
52865SOL     OW60491   2.153   6.345   3.313
52865SOL    HW160492   2.174   6.425   3.362
52865SOL    HW260493   2.228   6.288   3.326
52866SOL     OW60494   6.813   7.810  13.943
52866SOL    HW160495   6.882   7.749  13.918
52866SOL    HW260496   6.765   7.827  13.861
52867SOL     OW60497   5.869  12.918   2.194
52867SOL    HW160498   5.923  12.924   2.273
52867SOL    HW260499   5.850  13.009   2.171
52868SOL     OW60500   9.721   3.436  13.961
52868SOL    HW160501   9.716   3.407  13.870
52868SOL    HW260502   9.716   3.355  14.013
52869SOL     OW60503   3.345  13.385   9.940
52869SOL    HW160504   3.387  13.333  10.009
52869SOL    HW260505   3.255  13.352   9.937
52870SOL     OW60506   4.845  10.110   2.621
52870SOL    HW160507   4.874  10.195   2.655
52870SOL    HW260508   4.777  10.082   2.682
52871SOL     OW60509   5.877   4.925  13.425
52871SOL    HW160510   5.955   4.950  13.376
52871SOL    HW260511   5.852   4.840  13.389
52872SOL     OW60512   4.944   6.332   5.105
52872SOL    HW160513   4.962   6.243   5.077
52872SOL    HW260514   5.028   6.366   5.136
52873SOL     OW60515  13.927   8.707   2.723
52873SOL    HW160516  13.955   8.786   2.771
52873SOL    HW260517  13.833   8.717   2.713
52874SOL     OW60518  14.089  13.378   9.484
52874SOL    HW160519  14.156  13.310   9.488
52874SOL    HW260520  14.131  13.450   9.437
52875SOL     OW60521  14.236   2.547   3.088
52875SOL    HW160522  14.282   2.531   3.171
52875SOL    HW260523  14.195   2.463   3.067
52876SOL     OW60524   0.527   9.262  14.442
52876SOL    HW160525   0.554   9.267  14.534
52876SOL    HW260526   0.451   9.319  14.435
52877SOL     OW60527   2.604   8.636   7.255
52877SOL    HW160528   2.658   8.586   7.195
52877SOL    HW260529   2.612   8.727   7.225
52878SOL     OW60530  14.029   1.220   0.685
52878SOL    HW160531  14.034   1.148   0.622
52878SOL    HW260532  14.100   1.202   0.746
52879SOL     OW60533   4.863   6.351   9.069
52879SOL    HW160534   4.797   6.346   9.137
52879SOL    HW260535   4.939   6.392   9.111
52880SOL     OW60536  12.845  11.518   6.484
52880SOL    HW160537  12.861  11.461   6.409
52880SOL    HW260538  12.749  11.520   6.492
52881SOL     OW60539   3.905  13.965   5.348
52881SOL    HW160540   3.857  13.968   5.430
52881SOL    HW260541   3.992  14.001   5.369
52882SOL     OW60542  11.182  13.648   9.845
52882SOL    HW160543  11.248  13.700   9.799
52882SOL    HW260544  11.119  13.624   9.777
52883SOL     OW60545  10.875  12.317  13.262
52883SOL    HW160546  10.905  12.302  13.172
52883SOL    HW260547  10.956  12.332  13.312
52884SOL     OW60548   7.287   1.073  13.010
52884SOL    HW160549   7.251   1.128  12.940
52884SOL    HW260550   7.220   1.075  13.078
52885SOL     OW60551   5.521   1.552  11.471
52885SOL    HW160552   5.446   1.508  11.431
52885SOL    HW260553   5.570   1.589  11.398
52886SOL     OW60554  13.173   7.001  13.784
52886SOL    HW160555  13.207   7.019  13.696
52886SOL    HW260556  13.151   6.908  13.783
52887SOL     OW60557  12.677   4.517  10.230
52887SOL    HW160558  12.606   4.572  10.197
52887SOL    HW260559  12.677   4.441  10.171
52888SOL     OW60560   0.845   2.170  11.731
52888SOL    HW160561   0.856   2.222  11.811
52888SOL    HW260562   0.874   2.228  11.661
52889SOL     OW60563   9.379   0.295   6.078
52889SOL    HW160564   9.414   0.285   5.990
52889SOL    HW260565   9.453   0.281   6.136
52890SOL     OW60566  10.501  10.701   0.112
52890SOL    HW160567  10.585  10.657   0.101
52890SOL    HW260568  10.513  10.758   0.187
52891SOL     OW60569   0.622  10.679   1.910
52891SOL    HW160570   0.706  10.679   1.866
52891SOL    HW260571   0.584  10.765   1.890
52892SOL     OW60572   7.773  12.805   0.995
52892SOL    HW160573   7.793  12.725   1.042
52892SOL    HW260574   7.679  12.799   0.977
52893SOL     OW60575   1.629   9.731   9.058
52893SOL    HW160576   1.541   9.732   9.095
52893SOL    HW260577   1.663   9.819   9.075
52894SOL     OW60578   2.485  10.867  11.100
52894SOL    HW160579   2.400  10.881  11.141
52894SOL    HW260580   2.497  10.772  11.100
52895SOL     OW60581  12.169   9.849   6.682
52895SOL    HW160582  12.180   9.765   6.727
52895SOL    HW260583  12.240   9.851   6.618
52896SOL     OW60584  12.187   1.225  10.898
52896SOL    HW160585  12.278   1.251  10.910
52896SOL    HW260586  12.157   1.200  10.986
52897SOL     OW60587   7.127   5.891   7.257
52897SOL    HW160588   7.135   5.808   7.209
52897SOL    HW260589   7.062   5.941   7.208
52898SOL     OW60590   7.144   0.399   4.226
52898SOL    HW160591   7.167   0.313   4.190
52898SOL    HW260592   7.118   0.450   4.150
52899SOL     OW60593  14.744  11.894   5.796
52899SOL    HW160594  14.652  11.867   5.789
52899SOL    HW260595  14.742  11.989   5.794
52900SOL     OW60596  10.799  10.986   3.638
52900SOL    HW160597  10.760  11.065   3.601
52900SOL    HW260598  10.813  10.929   3.563
52901SOL     OW60599   6.117   0.190  14.265
52901SOL    HW160600   6.201   0.146  14.253
52901SOL    HW260601   6.071   0.138  14.331
52902SOL     OW60602   6.229   9.394   7.790
52902SOL    HW160603   6.212   9.468   7.848
52902SOL    HW260604   6.313   9.359   7.820
52903SOL     OW60605   5.685   6.209  11.805
52903SOL    HW160606   5.714   6.299  11.821
52903SOL    HW260607   5.754   6.155  11.845
52904SOL     OW60608   9.841  11.070   0.587
52904SOL    HW160609   9.764  11.040   0.540
52904SOL    HW260610   9.871  11.147   0.538
52905SOL     OW60611  11.766  13.245  14.857
52905SOL    HW160612  11.830  13.295  14.807
52905SOL    HW260613  11.786  13.265   0.069
52906SOL     OW60614   0.367   5.201   9.865
52906SOL    HW160615   0.377   5.232   9.775
52906SOL    HW260616   0.439   5.140   9.877
52907SOL     OW60617  14.584  13.492   2.729
52907SOL    HW160618  14.548  13.507   2.641
52907SOL    HW260619  14.610  13.400   2.729
52908SOL     OW60620   7.714  12.086   8.478
52908SOL    HW160621   7.766  12.149   8.528
52908SOL    HW260622   7.648  12.140   8.434
52909SOL     OW60623   3.555   9.023   0.786
52909SOL    HW160624   3.623   9.011   0.853
52909SOL    HW260625   3.578   9.105   0.743
52910SOL     OW60626   8.982   9.046   8.013
52910SOL    HW160627   9.006   9.002   8.094
52910SOL    HW260628   9.063   9.051   7.963
52911SOL     OW60629   2.928   1.452   8.178
52911SOL    HW160630   3.023   1.461   8.185
52911SOL    HW260631   2.905   1.492   8.094
52912SOL     OW60632  11.913   3.847   4.334
52912SOL    HW160633  11.888   3.824   4.424
52912SOL    HW260634  11.928   3.942   4.337
52913SOL     OW60635   2.921  10.646  10.261
52913SOL    HW160636   2.944  10.637  10.353
52913SOL    HW260637   2.840  10.697  10.262
52914SOL     OW60638   7.846   3.036   2.009
52914SOL    HW160639   7.789   3.054   2.083
52914SOL    HW260640   7.788   3.041   1.933
52915SOL     OW60641   1.971   5.180   1.793
52915SOL    HW160642   2.026   5.142   1.861
52915SOL    HW260643   1.941   5.264   1.830
52916SOL     OW60644   7.962  11.015   7.062
52916SOL    HW160645   7.991  10.944   7.005
52916SOL    HW260646   8.039  11.038   7.114
52917SOL     OW60647   5.370  11.594  12.976
52917SOL    HW160648   5.280  11.568  12.959
52917SOL    HW260649   5.389  11.561  13.064
52918SOL     OW60650   2.538   9.506   6.622
52918SOL    HW160651   2.448   9.525   6.648
52918SOL    HW260652   2.540   9.521   6.527
52919SOL     OW60653  10.076   4.043   9.830
52919SOL    HW160654  10.136   4.102   9.786
52919SOL    HW260655  10.104   3.955   9.804
52920SOL     OW60656   9.250   1.411   3.633
52920SOL    HW160657   9.228   1.370   3.717
52920SOL    HW260658   9.171   1.459   3.609
52921SOL     OW60659  13.269  14.552   5.065
52921SOL    HW160660  13.312  14.497   5.000
52921SOL    HW260661  13.294  14.641   5.041
52922SOL     OW60662  11.332   6.414   8.085
52922SOL    HW160663  11.337   6.319   8.085
52922SOL    HW260664  11.267   6.435   8.018
52923SOL     OW60665  12.269  11.347   9.314
52923SOL    HW160666  12.284  11.265   9.267
52923SOL    HW260667  12.181  11.373   9.289
52924SOL     OW60668   5.631  13.350   4.720
52924SOL    HW160669   5.598  13.439   4.707
52924SOL    HW260670   5.631  13.338   4.815
52925SOL     OW60671   5.231   5.219   2.801
52925SOL    HW160672   5.142   5.245   2.822
52925SOL    HW260673   5.268   5.295   2.756
52926SOL     OW60674   4.729   5.295   0.085
52926SOL    HW160675   4.784   5.372   0.100
52926SOL    HW260676   4.738   5.243   0.165
52927SOL     OW60677   5.788  14.137  10.539
52927SOL    HW160678   5.757  14.155  10.450
52927SOL    HW260679   5.719  14.173  10.596
52928SOL     OW60680   4.608  13.760   3.019
52928SOL    HW160681   4.684  13.753   3.077
52928SOL    HW260682   4.633  13.828   2.955
52929SOL     OW60683   5.965   0.871   3.700
52929SOL    HW160684   5.960   0.779   3.728
52929SOL    HW260685   6.009   0.915   3.772
52930SOL     OW60686   7.671   3.300  10.481
52930SOL    HW160687   7.637   3.353  10.553
52930SOL    HW260688   7.604   3.308  10.413
52931SOL     OW60689   3.111   4.329  10.476
52931SOL    HW160690   3.127   4.320  10.382
52931SOL    HW260691   3.187   4.379  10.508
52932SOL     OW60692  11.882  10.047  14.295
52932SOL    HW160693  11.801  10.095  14.276
52932SOL    HW260694  11.888  10.047  14.390
52933SOL     OW60695   4.608   5.391   8.794
52933SOL    HW160696   4.575   5.439   8.718
52933SOL    HW260697   4.556   5.311   8.797
52934SOL     OW60698  13.626   8.605   2.236
52934SOL    HW160699  13.550   8.547   2.242
52934SOL    HW260700  13.662   8.607   2.325
52935SOL     OW60701  11.813   8.147   2.855
52935SOL    HW160702  11.896   8.182   2.885
52935SOL    HW260703  11.747   8.209   2.886
52936SOL     OW60704   7.303  14.077   7.710
52936SOL    HW160705   7.319  14.141   7.640
52936SOL    HW260706   7.268  14.129   7.782
52937SOL     OW60707   3.760   2.910   4.580
52937SOL    HW160708   3.848   2.949   4.584
52937SOL    HW260709   3.704   2.982   4.551
52938SOL     OW60710   2.564  13.002   1.006
52938SOL    HW160711   2.585  13.062   0.935
52938SOL    HW260712   2.495  13.046   1.056
52939SOL     OW60713  10.251  11.658   8.177
52939SOL    HW160714  10.213  11.604   8.246
52939SOL    HW260715  10.181  11.717   8.151
52940SOL     OW60716  10.672   8.782  11.331
52940SOL    HW160717  10.611   8.845  11.369
52940SOL    HW260718  10.710   8.827  11.256
52941SOL     OW60719   0.804  14.264   8.058
52941SOL    HW160720   0.875  14.324   8.080
52941SOL    HW260721   0.742  14.317   8.007
52942SOL     OW60722   8.851   1.212   1.960
52942SOL    HW160723   8.765   1.179   1.933
52942SOL    HW260724   8.909   1.190   1.887
52943SOL     OW60725   0.767  13.927  10.401
52943SOL    HW160726   0.678  13.917  10.436
52943SOL    HW260727   0.803  14.002  10.450
52944SOL     OW60728   9.504   0.385  14.660
52944SOL    HW160729   9.554   0.311  14.693
52944SOL    HW260730   9.452   0.414  14.735
52945SOL     OW60731   3.652   9.244   0.654
52945SOL    HW160732   3.565   9.277   0.633
52945SOL    HW260733   3.692   9.313   0.707
52946SOL     OW60734  12.550   1.685  11.100
52946SOL    HW160735  12.485   1.727  11.043
52946SOL    HW260736  12.583   1.611  11.049
52947SOL     OW60737  13.774   8.770  10.962
52947SOL    HW160738  13.804   8.814  10.882
52947SOL    HW260739  13.708   8.707  10.931
52948SOL     OW60740  13.534   8.074  11.827
52948SOL    HW160741  13.589   8.118  11.891
52948SOL    HW260742  13.449   8.117  11.833
52949SOL     OW60743  12.651   2.740   6.705
52949SOL    HW160744  12.649   2.835   6.692
52949SOL    HW260745  12.571   2.709   6.661
52950SOL     OW60746   0.418   1.863   0.215
52950SOL    HW160747   0.447   1.788   0.267
52950SOL    HW260748   0.408   1.828   0.126
52951SOL     OW60749  12.646   9.705   0.158
52951SOL    HW160750  12.679   9.675   0.073
52951SOL    HW260751  12.710   9.771   0.186
52952SOL     OW60752   1.815   6.166  10.190
52952SOL    HW160753   1.796   6.213  10.109
52952SOL    HW260754   1.911   6.159  10.192
52953SOL     OW60755  10.591   6.419   3.105
52953SOL    HW160756  10.518   6.405   3.046
52953SOL    HW260757  10.669   6.409   3.050
52954SOL     OW60758  11.851  14.863   9.710
52954SOL    HW160759  11.759  14.861   9.737
52954SOL    HW260760  11.900  14.878   9.790
52955SOL     OW60761  12.963  14.641   5.837
52955SOL    HW160762  12.979  14.574   5.771
52955SOL    HW260763  12.985  14.598   5.920
52956SOL     OW60764   4.762   9.730   4.655
52956SOL    HW160765   4.746   9.648   4.608
52956SOL    HW260766   4.779   9.703   4.746
52957SOL     OW60767  12.927   6.325   8.905
52957SOL    HW160768  13.020   6.317   8.885
52957SOL    HW260769  12.919   6.298   8.996
52958SOL     OW60770   8.961   1.554  13.092
52958SOL    HW160771   8.947   1.459  13.091
52958SOL    HW260772   8.923   1.585  13.010
52959SOL     OW60773   3.499   3.188   9.718
52959SOL    HW160774   3.592   3.172   9.735
52959SOL    HW260775   3.477   3.263   9.773
52960SOL     OW60776   5.511  12.664   3.436
52960SOL    HW160777   5.519  12.572   3.460
52960SOL    HW260778   5.437  12.667   3.376
52961SOL     OW60779  11.308  12.497   7.444
52961SOL    HW160780  11.404  12.495   7.435
52961SOL    HW260781  11.284  12.405   7.459
52962SOL     OW60782  10.447   8.879  13.478
52962SOL    HW160783  10.383   8.845  13.416
52962SOL    HW260784  10.489   8.951  13.432
52963SOL     OW60785   2.675   0.224   8.679
52963SOL    HW160786   2.643   0.268   8.757
52963SOL    HW260787   2.746   0.168   8.710
52964SOL     OW60788  11.357  13.166  11.528
52964SOL    HW160789  11.287  13.107  11.556
52964SOL    HW260790  11.434  13.135  11.576
52965SOL     OW60791   1.537   3.491   8.349
52965SOL    HW160792   1.488   3.409   8.353
52965SOL    HW260793   1.479   3.556   8.390
52966SOL     OW60794   5.551  14.079   6.779
52966SOL    HW160795   5.617  14.051   6.717
52966SOL    HW260796   5.594  14.074   6.865
52967SOL     OW60797  12.517   2.294   5.199
52967SOL    HW160798  12.550   2.205   5.206
52967SOL    HW260799  12.545   2.323   5.112
52968SOL     OW60800   0.896  11.274   2.856
52968SOL    HW160801   0.917  11.195   2.906
52968SOL    HW260802   0.819  11.250   2.804
52969SOL     OW60803   0.550   7.714   6.157
52969SOL    HW160804   0.459   7.714   6.128
52969SOL    HW260805   0.546   7.683   6.248
52970SOL     OW60806   3.282   8.159   3.354
52970SOL    HW160807   3.287   8.068   3.326
52970SOL    HW260808   3.190   8.182   3.345
52971SOL     OW60809  12.086   2.710   9.800
52971SOL    HW160810  12.110   2.618   9.803
52971SOL    HW260811  11.992   2.711   9.819
52972SOL     OW60812  12.467   9.129   4.452
52972SOL    HW160813  12.519   9.065   4.502
52972SOL    HW260814  12.411   9.075   4.396
52973SOL     OW60815   4.653   8.318  14.563
52973SOL    HW160816   4.578   8.269  14.530
52973SOL    HW260817   4.726   8.289  14.508
52974SOL     OW60818   6.401   1.505   4.709
52974SOL    HW160819   6.445   1.427   4.742
52974SOL    HW260820   6.394   1.491   4.614
52975SOL     OW60821   0.282  10.233   7.128
52975SOL    HW160822   0.297  10.218   7.221
52975SOL    HW260823   0.336  10.169   7.083
52976SOL     OW60824  12.694  14.611   7.105
52976SOL    HW160825  12.666  14.583   7.018
52976SOL    HW260826  12.743  14.692   7.091
52977SOL     OW60827   7.271   4.832   1.292
52977SOL    HW160828   7.348   4.794   1.334
52977SOL    HW260829   7.263   4.786   1.209
52978SOL     OW60830  11.015   2.709   0.965
52978SOL    HW160831  10.996   2.638   1.027
52978SOL    HW260832  11.084   2.760   1.008
52979SOL     OW60833   0.029   9.700   4.791
52979SOL    HW160834  14.821   9.698   4.753
52979SOL    HW260835   0.029   9.778   4.847
52980SOL     OW60836   1.316   9.326  11.369
52980SOL    HW160837   1.331   9.264  11.298
52980SOL    HW260838   1.282   9.404  11.326
52981SOL     OW60839  13.227   8.728   2.230
52981SOL    HW160840  13.168   8.661   2.264
52981SOL    HW260841  13.307   8.719   2.281
52982SOL     OW60842  12.473   9.583  11.374
52982SOL    HW160843  12.419   9.562  11.450
52982SOL    HW260844  12.536   9.646  11.407
52983SOL     OW60845   0.586   7.682   7.240
52983SOL    HW160846   0.639   7.603   7.227
52983SOL    HW260847   0.589   7.698   7.334
52984SOL     OW60848   5.100  13.426   1.444
52984SOL    HW160849   5.183  13.473   1.448
52984SOL    HW260850   5.113  13.359   1.377
52985SOL     OW60851  10.545  14.762   5.346
52985SOL    HW160852  10.524  14.709   5.269
52985SOL    HW260853  10.579  14.700   5.410
52986SOL     OW60854   5.863  11.836   5.361
52986SOL    HW160855   5.862  11.878   5.275
52986SOL    HW260856   5.786  11.872   5.405
52987SOL     OW60857  11.629   4.901   6.589
52987SOL    HW160858  11.687   4.905   6.513
52987SOL    HW260859  11.542   4.914   6.553
52988SOL     OW60860   5.163   8.285  11.010
52988SOL    HW160861   5.092   8.337  10.973
52988SOL    HW260862   5.242   8.323  10.973
52989SOL     OW60863  13.070   5.437   5.715
52989SOL    HW160864  13.123   5.466   5.789
52989SOL    HW260865  13.024   5.360   5.748
52990SOL     OW60866   0.166   2.427   8.234
52990SOL    HW160867   0.199   2.517   8.232
52990SOL    HW260868   0.150   2.405   8.143
52991SOL     OW60869   7.706  10.960  11.531
52991SOL    HW160870   7.786  11.011  11.542
52991SOL    HW260871   7.642  11.004  11.587
52992SOL     OW60872   5.278  10.957   1.761
52992SOL    HW160873   5.341  10.887   1.743
52992SOL    HW260874   5.227  10.925   1.836
52993SOL     OW60875  12.552   3.100   7.761
52993SOL    HW160876  12.537   3.121   7.853
52993SOL    HW260877  12.573   3.007   7.762
52994SOL     OW60878   8.766   7.317  11.516
52994SOL    HW160879   8.816   7.264  11.453
52994SOL    HW260880   8.724   7.253  11.573
52995SOL     OW60881  13.570   8.249  11.287
52995SOL    HW160882  13.597   8.206  11.368
52995SOL    HW260883  13.555   8.177  11.225
52996SOL     OW60884  13.902   1.889   4.791
52996SOL    HW160885  13.969   1.855   4.731
52996SOL    HW260886  13.916   1.983   4.791
52997SOL     OW60887  13.272  11.463   5.152
52997SOL    HW160888  13.286  11.392   5.215
52997SOL    HW260889  13.308  11.541   5.194
52998SOL     OW60890   6.964  14.297   2.477
52998SOL    HW160891   6.996  14.291   2.387
52998SOL    HW260892   7.010  14.226   2.523
52999SOL     OW60893   7.989  13.676  13.116
52999SOL    HW160894   7.906  13.723  13.121
52999SOL    HW260895   7.994  13.627  13.198
53000SOL     OW60896   2.561  12.337   6.679
53000SOL    HW160897   2.490  12.396   6.703
53000SOL    HW260898   2.637  12.369   6.729
53001SOL     OW60899   4.973   9.966   3.075
53001SOL    HW160900   5.010   9.970   3.163
53001SOL    HW260901   5.048   9.974   3.016
53002SOL     OW60902  13.017   2.112   5.483
53002SOL    HW160903  13.082   2.157   5.538
53002SOL    HW260904  12.993   2.176   5.417
53003SOL     OW60905   2.857  10.059   1.194
53003SOL    HW160906   2.811  10.005   1.258
53003SOL    HW260907   2.792  10.124   1.166
53004SOL     OW60908   8.076  10.761   9.722
53004SOL    HW160909   8.072  10.780   9.629
53004SOL    HW260910   8.135  10.828   9.758
53005SOL     OW60911  12.246   9.463  11.510
53005SOL    HW160912  12.207   9.485  11.595
53005SOL    HW260913  12.234   9.368  11.502
53006SOL     OW60914  11.899   7.498   1.556
53006SOL    HW160915  11.982   7.512   1.510
53006SOL    HW260916  11.869   7.587   1.578
53007SOL     OW60917   9.353   4.085   7.401
53007SOL    HW160918   9.276   4.036   7.430
53007SOL    HW260919   9.383   4.131   7.479
53008SOL     OW60920   6.087   8.600  12.830
53008SOL    HW160921   6.009   8.644  12.796
53008SOL    HW260922   6.071   8.594  12.924
53009SOL     OW60923   3.295  14.166   1.744
53009SOL    HW160924   3.299  14.237   1.808
53009SOL    HW260925   3.241  14.099   1.786
53010SOL     OW60926   9.620   7.647   7.428
53010SOL    HW160927   9.580   7.567   7.460
53010SOL    HW260928   9.589   7.656   7.338
53011SOL     OW60929   4.800   1.451  11.904
53011SOL    HW160930   4.840   1.486  11.824
53011SOL    HW260931   4.713   1.422  11.876
53012SOL     OW60932  10.064   5.226   6.684
53012SOL    HW160933  10.103   5.297   6.633
53012SOL    HW260934  10.119   5.150   6.666
53013SOL     OW60935   0.579  10.761   8.203
53013SOL    HW160936   0.488  10.770   8.232
53013SOL    HW260937   0.609  10.679   8.243
53014SOL     OW60938   2.732   8.774   3.840
53014SOL    HW160939   2.655   8.739   3.793
53014SOL    HW260940   2.696   8.813   3.920
53015SOL     OW60941   1.727  13.263   3.163
53015SOL    HW160942   1.689  13.235   3.246
53015SOL    HW260943   1.726  13.184   3.109
53016SOL     OW60944   2.620  14.079   3.550
53016SOL    HW160945   2.688  14.035   3.500
53016SOL    HW260946   2.540  14.030   3.530
53017SOL     OW60947   6.278   6.672   2.091
53017SOL    HW160948   6.269   6.694   2.183
53017SOL    HW260949   6.224   6.594   2.079
53018SOL     OW60950  13.398   2.451   6.338
53018SOL    HW160951  13.429   2.529   6.292
53018SOL    HW260952  13.303   2.458   6.335
53019SOL     OW60953   5.443  13.604   9.178
53019SOL    HW160954   5.403  13.521   9.204
53019SOL    HW260955   5.537  13.585   9.175
53020SOL     OW60956   0.141   6.009   8.303
53020SOL    HW160957   0.223   5.960   8.300
53020SOL    HW260958   0.139   6.048   8.391
53021SOL     OW60959   3.179  12.008   6.464
53021SOL    HW160960   3.145  11.957   6.391
53021SOL    HW260961   3.137  11.971   6.541
53022SOL     OW60962   9.809   4.690   5.067
53022SOL    HW160963   9.825   4.690   4.973
53022SOL    HW260964   9.803   4.783   5.091
53023SOL     OW60965   1.890   4.667  12.658
53023SOL    HW160966   1.977   4.698  12.681
53023SOL    HW260967   1.879   4.691  12.566
53024SOL     OW60968   7.327   0.009   3.811
53024SOL    HW160969   7.270   0.055   3.873
53024SOL    HW260970   7.279   0.010   3.728
53025SOL     OW60971  11.451   1.902   9.752
53025SOL    HW160972  11.364   1.870   9.730
53025SOL    HW260973  11.465   1.977   9.693
53026SOL     OW60974   8.899   0.184  14.187
53026SOL    HW160975   8.910   0.103  14.138
53026SOL    HW260976   8.981   0.195  14.235
53027SOL     OW60977   3.039   3.313  10.359
53027SOL    HW160978   2.955   3.270  10.345
53027SOL    HW260979   3.104   3.248  10.330
53028SOL     OW60980   9.712   6.032   5.199
53028SOL    HW160981   9.766   6.105   5.231
53028SOL    HW260982   9.623   6.054   5.229
53029SOL     OW60983  11.054   8.142  11.390
53029SOL    HW160984  10.995   8.100  11.453
53029SOL    HW260985  11.139   8.142  11.434
53030SOL     OW60986   4.742   9.626   8.704
53030SOL    HW160987   4.702   9.539   8.714
53030SOL    HW260988   4.703   9.661   8.623
53031SOL     OW60989  10.306   2.777  11.457
53031SOL    HW160990  10.381   2.825  11.494
53031SOL    HW260991  10.331   2.685  11.463
53032SOL     OW60992   7.060  11.999   7.024
53032SOL    HW160993   7.001  12.073   7.012
53032SOL    HW260994   7.008  11.933   7.070
53033SOL     OW60995  14.382   0.272   2.472
53033SOL    HW160996  14.430   0.291   2.391
53033SOL    HW260997  14.405   0.344   2.531
53034SOL     OW60998  12.810   1.696   1.574
53034SOL    HW160999  12.876   1.761   1.551
53034SOL    HW261000  12.836   1.666   1.661
53035SOL     OW61001   5.372   3.425   7.508
53035SOL    HW161002   5.452   3.456   7.551
53035SOL    HW261003   5.383   3.449   7.416
53036SOL     OW61004   1.985  10.060   8.874
53036SOL    HW161005   1.928  10.128   8.838
53036SOL    HW261006   1.946  10.040   8.960
53037SOL     OW61007  13.198   3.166   0.540
53037SOL    HW161008  13.184   3.074   0.515
53037SOL    HW261009  13.243   3.161   0.624
53038SOL     OW61010   9.721   5.315  11.545
53038SOL    HW161011   9.702   5.406  11.522
53038SOL    HW261012   9.673   5.301  11.627
53039SOL     OW61013  10.951   2.542   4.369
53039SOL    HW161014  10.966   2.499   4.453
53039SOL    HW261015  10.893   2.483   4.322
53040SOL     OW61016   7.307   4.507   0.718
53040SOL    HW161017   7.332   4.539   0.631
53040SOL    HW261018   7.388   4.475   0.756
53041SOL     OW61019   2.640   4.045  10.153
53041SOL    HW161020   2.691   4.000  10.220
53041SOL    HW261021   2.672   4.009  10.070
53042SOL     OW61022  11.036  11.099   8.258
53042SOL    HW161023  11.076  11.170   8.308
53042SOL    HW261024  10.957  11.138   8.220
53043SOL     OW61025  13.436   1.751   4.262
53043SOL    HW161026  13.365   1.786   4.315
53043SOL    HW261027  13.443   1.660   4.289
53044SOL     OW61028  10.235   7.585   4.911
53044SOL    HW161029  10.187   7.522   4.965
53044SOL    HW261030  10.180   7.663   4.910
53045SOL     OW61031   3.617   6.644   1.122
53045SOL    HW161032   3.553   6.715   1.130
53045SOL    HW261033   3.693   6.676   1.172
53046SOL     OW61034   9.466  10.730  13.495
53046SOL    HW161035   9.460  10.826  13.502
53046SOL    HW261036   9.396  10.698  13.551
53047SOL     OW61037   1.526  10.974   6.421
53047SOL    HW161038   1.530  10.910   6.492
53047SOL    HW261039   1.496  11.055   6.464
53048SOL     OW61040  12.842   2.343  13.112
53048SOL    HW161041  12.775   2.404  13.144
53048SOL    HW261042  12.824   2.261  13.159
53049SOL     OW61043  12.249  13.486  14.247
53049SOL    HW161044  12.240  13.522  14.159
53049SOL    HW261045  12.286  13.558  14.299
53050SOL     OW61046   1.620   9.783  12.206
53050SOL    HW161047   1.583   9.793  12.118
53050SOL    HW261048   1.550   9.744  12.257
53051SOL     OW61049   3.115   6.244  13.614
53051SOL    HW161050   3.175   6.256  13.688
53051SOL    HW261051   3.095   6.151  13.614
53052SOL     OW61052   5.083  14.482   9.513
53052SOL    HW161053   5.122  14.395   9.507
53052SOL    HW261054   5.144  14.532   9.568
53053SOL     OW61055   5.315   1.321  12.022
53053SOL    HW161056   5.355   1.399  11.984
53053SOL    HW261057   5.363   1.306  12.103
53054SOL     OW61058  14.331   0.490  10.823
53054SOL    HW161059  14.402   0.554  10.830
53054SOL    HW261060  14.374   0.405  10.826
53055SOL     OW61061   3.437  13.388   7.580
53055SOL    HW161062   3.445  13.398   7.675
53055SOL    HW261063   3.352  13.345   7.568
53056SOL     OW61064   1.748   5.205   9.875
53056SOL    HW161065   1.817   5.148   9.909
53056SOL    HW261066   1.733   5.268   9.945
53057SOL     OW61067  14.246  12.558   5.016
53057SOL    HW161068  14.278  12.531   4.930
53057SOL    HW261069  14.168  12.610   4.997
53058SOL     OW61070   3.488  11.934  10.636
53058SOL    HW161071   3.451  11.972  10.556
53058SOL    HW261072   3.583  11.940  10.623
53059SOL     OW61073   0.182   7.357  13.012
53059SOL    HW161074   0.099   7.396  13.036
53059SOL    HW261075   0.197   7.387  12.922
53060SOL     OW61076   2.256  14.414   3.284
53060SOL    HW161077   2.189  14.448   3.225
53060SOL    HW261078   2.222  14.431   3.372
53061SOL     OW61079   3.310  14.112   2.892
53061SOL    HW161080   3.313  14.208   2.897
53061SOL    HW261081   3.381  14.083   2.949
53062SOL     OW61082  13.879   7.312   1.516
53062SOL    HW161083  13.839   7.347   1.596
53062SOL    HW261084  13.816   7.334   1.447
53063SOL     OW61085  14.366   0.997  13.571
53063SOL    HW161086  14.316   1.015  13.651
53063SOL    HW261087  14.358   1.077  13.519
53064SOL     OW61088  13.958   8.377   6.711
53064SOL    HW161089  14.040   8.420   6.736
53064SOL    HW261090  13.964   8.290   6.752
53065SOL     OW61091  12.703   6.908   0.858
53065SOL    HW161092  12.775   6.850   0.834
53065SOL    HW261093  12.728   6.994   0.824
53066SOL     OW61094  10.851   3.556   7.713
53066SOL    HW161095  10.874   3.514   7.631
53066SOL    HW261096  10.925   3.538   7.771
53067SOL     OW61097  14.145   2.747   4.818
53067SOL    HW161098  14.174   2.680   4.881
53067SOL    HW261099  14.116   2.820   4.873
53068SOL     OW61100  14.361   6.444   7.854
53068SOL    HW161101  14.454   6.431   7.871
53068SOL    HW261102  14.346   6.405   7.768
53069SOL     OW61103  12.831   8.531   7.877
53069SOL    HW161104  12.904   8.590   7.896
53069SOL    HW261105  12.850   8.452   7.927
53070SOL     OW61106   8.185   0.219   1.643
53070SOL    HW161107   8.198   0.185   1.555
53070SOL    HW261108   8.090   0.223   1.654
53071SOL     OW61109   7.288   3.398   6.103
53071SOL    HW161110   7.286   3.317   6.154
53071SOL    HW261111   7.196   3.426   6.100
53072SOL     OW61112  13.077  14.506   6.696
53072SOL    HW161113  12.994  14.460   6.687
53072SOL    HW261114  13.094  14.506   6.790
53073SOL     OW61115  14.017   9.788   7.559
53073SOL    HW161116  14.034   9.757   7.470
53073SOL    HW261117  14.070   9.732   7.615
53074SOL     OW61118  13.052   1.444   2.158
53074SOL    HW161119  13.037   1.352   2.177
53074SOL    HW261120  13.109   1.444   2.081
53075SOL     OW61121   7.107   6.000   4.012
53075SOL    HW161122   7.164   6.076   4.009
53075SOL    HW261123   7.146   5.939   3.950
53076SOL     OW61124   4.259  12.841  12.852
53076SOL    HW161125   4.334  12.894  12.877
53076SOL    HW261126   4.231  12.799  12.933
53077SOL     OW61127   7.017   8.809   1.973
53077SOL    HW161128   7.039   8.842   2.060
53077SOL    HW261129   7.100   8.809   1.926
53078SOL     OW61130   5.978  11.221   2.966
53078SOL    HW161131   6.006  11.130   2.953
53078SOL    HW261132   6.013  11.244   3.052
53079SOL     OW61133  13.391   8.866   0.204
53079SOL    HW161134  13.384   8.954   0.241
53079SOL    HW261135  13.301   8.831   0.208
53080SOL     OW61136  11.258   5.425  11.809
53080SOL    HW161137  11.178   5.400  11.855
53080SOL    HW261138  11.286   5.506  11.852
53081SOL     OW61139  13.578   3.167  13.773
53081SOL    HW161140  13.507   3.103  13.774
53081SOL    HW261141  13.537   3.248  13.744
53082SOL     OW61142   5.381   1.579  10.696
53082SOL    HW161143   5.377   1.629  10.615
53082SOL    HW261144   5.474   1.565  10.711
53083SOL     OW61145  13.692  12.106   2.068
53083SOL    HW161146  13.690  12.186   2.121
53083SOL    HW261147  13.611  12.061   2.089
53084SOL     OW61148   8.501   6.052   1.825
53084SOL    HW161149   8.499   6.046   1.921
53084SOL    HW261150   8.552   6.132   1.808
53085SOL     OW61151   6.443   6.240   6.837
53085SOL    HW161152   6.447   6.268   6.745
53085SOL    HW261153   6.467   6.318   6.887
53086SOL     OW61154  13.506   2.651   3.599
53086SOL    HW161155  13.581   2.711   3.595
53086SOL    HW261156  13.525   2.593   3.672
53087SOL     OW61157   0.831   7.593  14.018
53087SOL    HW161158   0.878   7.642  13.950
53087SOL    HW261159   0.811   7.657  14.085
53088SOL     OW61160  10.792  10.502   9.338
53088SOL    HW161161  10.853  10.571   9.310
53088SOL    HW261162  10.766  10.528   9.426
53089SOL     OW61163  10.620   2.381   7.077
53089SOL    HW161164  10.605   2.417   6.990
53089SOL    HW261165  10.556   2.310   7.086
53090SOL     OW61166   5.708   0.529   8.029
53090SOL    HW161167   5.792   0.523   8.075
53090SOL    HW261168   5.719   0.603   7.969
53091SOL     OW61169  12.209  10.582  13.940
53091SOL    HW161170  12.210  10.670  13.902
53091SOL    HW261171  12.116  10.563  13.954
53092SOL     OW61172  12.197   5.228  13.066
53092SOL    HW161173  12.227   5.275  12.988
53092SOL    HW261174  12.107   5.203  13.046
53093SOL     OW61175   2.683   4.491  10.474
53093SOL    HW161176   2.739   4.563  10.443
53093SOL    HW261177   2.742   4.416  10.479
53094SOL     OW61178  14.259   3.510   1.265
53094SOL    HW161179  14.310   3.431   1.287
53094SOL    HW261180  14.168   3.483   1.276
53095SOL     OW61181   6.469  14.265   9.500
53095SOL    HW161182   6.500  14.354   9.514
53095SOL    HW261183   6.548  14.211   9.499
53096SOL     OW61184   0.918   2.071   7.545
53096SOL    HW161185   0.941   2.095   7.455
53096SOL    HW261186   0.996   2.090   7.596
53097SOL     OW61187   1.537   7.876   0.673
53097SOL    HW161188   1.464   7.883   0.734
53097SOL    HW261189   1.588   7.956   0.688
53098SOL     OW61190  11.244   4.540   5.119
53098SOL    HW161191  11.234   4.497   5.033
53098SOL    HW261192  11.280   4.471   5.175
53099SOL     OW61193   3.246   4.406  12.204
53099SOL    HW161194   3.171   4.437  12.255
53099SOL    HW261195   3.213   4.398  12.114
53100SOL     OW61196   3.041   8.468  10.032
53100SOL    HW161197   2.996   8.548  10.061
53100SOL    HW261198   3.120   8.500   9.988
53101SOL     OW61199   3.871   6.783   9.757
53101SOL    HW161200   3.876   6.863   9.811
53101SOL    HW261201   3.816   6.724   9.808
53102SOL     OW61202   7.645   4.158   4.269
53102SOL    HW161203   7.721   4.212   4.248
53102SOL    HW261204   7.657   4.078   4.217
53103SOL     OW61205   1.378   5.545   0.095
53103SOL    HW161206   1.303   5.493   0.125
53103SOL    HW261207   1.433   5.553   0.173
53104SOL     OW61208  14.504  14.723   4.861
53104SOL    HW161209  14.427  14.754   4.908
53104SOL    HW261210  14.577  14.774   4.898
53105SOL     OW61211   8.705   0.192   4.888
53105SOL    HW161212   8.742   0.104   4.886
53105SOL    HW261213   8.779   0.250   4.871
53106SOL     OW61214   7.798   1.090   9.418
53106SOL    HW161215   7.744   1.168   9.435
53106SOL    HW261216   7.885   1.114   9.450
53107SOL     OW61217   8.364   2.257   5.272
53107SOL    HW161218   8.443   2.305   5.249
53107SOL    HW261219   8.365   2.252   5.367
53108SOL     OW61220   3.088   0.479   9.796
53108SOL    HW161221   3.057   0.466   9.706
53108SOL    HW261222   3.117   0.570   9.798
53109SOL     OW61223   7.138   0.032   3.050
53109SOL    HW161224   7.185   0.064   3.126
53109SOL    HW261225   7.061   0.088   3.043
53110SOL     OW61226   3.555  14.478   5.724
53110SOL    HW161227   3.617  14.515   5.788
53110SOL    HW261228   3.471  14.516   5.748
53111SOL     OW61229   5.634  10.634  10.928
53111SOL    HW161230   5.724  10.661  10.946
53111SOL    HW261231   5.619  10.559  10.986
53112SOL     OW61232  10.166   2.359  10.567
53112SOL    HW161233  10.206   2.411  10.498
53112SOL    HW261234  10.230   2.360  10.638
53113SOL     OW61235   5.217   1.091  14.243
53113SOL    HW161236   5.274   1.124  14.313
53113SOL    HW261237   5.184   1.008  14.277
53114SOL     OW61238   4.086   7.372   8.094
53114SOL    HW161239   4.014   7.354   8.154
53114SOL    HW261240   4.162   7.386   8.150
53115SOL     OW61241   4.977   1.963   5.281
53115SOL    HW161242   4.982   1.910   5.202
53115SOL    HW261243   5.061   1.950   5.325
53116SOL     OW61244  11.999   7.535   2.374
53116SOL    HW161245  12.088   7.565   2.393
53116SOL    HW261246  11.943   7.601   2.415
53117SOL     OW61247   0.044  12.263   1.761
53117SOL    HW161248   0.062  12.173   1.788
53117SOL    HW261249  14.878  12.302   1.836
53118SOL     OW61250   9.291   0.045   5.009
53118SOL    HW161251   9.303   0.069   5.101
53118SOL    HW261252   9.320   0.122   4.960
53119SOL     OW61253   7.561   3.912  10.374
53119SOL    HW161254   7.552   3.847  10.304
53119SOL    HW261255   7.483   3.967  10.366
53120SOL     OW61256  14.795  10.976   1.980
53120SOL    HW161257  14.778  11.013   2.067
53120SOL    HW261258  14.870  11.025   1.947
53121SOL     OW61259   7.312   3.124   7.692
53121SOL    HW161260   7.340   3.042   7.652
53121SOL    HW261261   7.326   3.111   7.786
53122SOL     OW61262   3.318  13.011  12.871
53122SOL    HW161263   3.300  13.079  12.936
53122SOL    HW261264   3.311  13.056  12.787
53123SOL     OW61265   0.999  12.008  14.723
53123SOL    HW161266   1.083  11.964  14.710
53123SOL    HW261267   1.005  12.046  14.811
53124SOL     OW61268   7.695  12.458   0.897
53124SOL    HW161269   7.700  12.480   0.990
53124SOL    HW261270   7.651  12.374   0.895
53125SOL     OW61271  13.268   9.750   0.371
53125SOL    HW161272  13.289   9.821   0.432
53125SOL    HW261273  13.338   9.687   0.382
53126SOL     OW61274   9.876  11.109   6.494
53126SOL    HW161275   9.968  11.136   6.490
53126SOL    HW261276   9.834  11.176   6.548
53127SOL     OW61277   1.321   5.305  11.843
53127SOL    HW161278   1.271   5.272  11.768
53127SOL    HW261279   1.337   5.228  11.897
53128SOL     OW61280   6.854   7.034   4.640
53128SOL    HW161281   6.853   6.938   4.635
53128SOL    HW261282   6.812   7.063   4.559
53129SOL     OW61283  13.673  10.253  10.735
53129SOL    HW161284  13.666  10.306  10.656
53129SOL    HW261285  13.632  10.170  10.712
53130SOL     OW61286  10.049   7.891   5.771
53130SOL    HW161287  10.081   7.978   5.746
53130SOL    HW261288   9.993   7.864   5.698
53131SOL     OW61289   3.316   5.897   4.083
53131SOL    HW161290   3.238   5.915   4.030
53131SOL    HW261291   3.311   5.960   4.155
53132SOL     OW61292  13.984  10.596   7.070
53132SOL    HW161293  13.999  10.656   7.143
53132SOL    HW261294  14.071  10.578   7.036
53133SOL     OW61295  11.437   5.860  12.286
53133SOL    HW161296  11.362   5.809  12.256
53133SOL    HW261297  11.429   5.944  12.239
53134SOL     OW61298   2.079   6.889   4.123
53134SOL    HW161299   2.058   6.809   4.171
53134SOL    HW261300   2.080   6.958   4.189
53135SOL     OW61301   5.078   3.114  10.493
53135SOL    HW161302   5.165   3.105  10.453
53135SOL    HW261303   5.017   3.094  10.423
53136SOL     OW61304   7.186  10.776  13.978
53136SOL    HW161305   7.101  10.749  14.012
53136SOL    HW261306   7.187  10.872  13.988
53137SOL     OW61307  10.218   4.485   2.203
53137SOL    HW161308  10.236   4.577   2.185
53137SOL    HW261309  10.148   4.461   2.143
53138SOL     OW61310   8.477   1.043   5.366
53138SOL    HW161311   8.486   1.132   5.400
53138SOL    HW261312   8.383   1.030   5.356
53139SOL     OW61313   2.947  10.288   3.407
53139SOL    HW161314   3.010  10.254   3.470
53139SOL    HW261315   2.969  10.381   3.399
53140SOL     OW61316   3.891   5.167  12.936
53140SOL    HW161317   3.877   5.076  12.910
53140SOL    HW261318   3.919   5.211  12.856
53141SOL     OW61319   6.880   1.244  12.320
53141SOL    HW161320   6.848   1.173  12.377
53141SOL    HW261321   6.806   1.262  12.262
53142SOL     OW61322   6.870  11.282  10.462
53142SOL    HW161323   6.840  11.272  10.372
53142SOL    HW261324   6.802  11.242  10.516
53143SOL     OW61325   1.207   2.444   7.227
53143SOL    HW161326   1.164   2.373   7.178
53143SOL    HW261327   1.293   2.453   7.186
53144SOL     OW61328   9.919   0.127   0.015
53144SOL    HW161329   9.948   0.115  14.804
53144SOL    HW261330   9.831   0.166   0.007
53145SOL     OW61331   5.820   7.438   3.365
53145SOL    HW161332   5.858   7.477   3.286
53145SOL    HW261333   5.873   7.473   3.437
53146SOL     OW61334  11.469   3.848   2.586
53146SOL    HW161335  11.514   3.909   2.527
53146SOL    HW261336  11.539   3.794   2.621
53147SOL     OW61337  10.042   6.883  13.546
53147SOL    HW161338  10.066   6.887  13.453
53147SOL    HW261339   9.974   6.816  13.550
53148SOL     OW61340  10.328   6.666   9.792
53148SOL    HW161341  10.291   6.724   9.725
53148SOL    HW261342  10.311   6.578   9.760
53149SOL     OW61343   3.852   2.747   3.023
53149SOL    HW161344   3.919   2.699   3.072
53149SOL    HW261345   3.770   2.728   3.069
53150SOL     OW61346   6.943  11.268  11.312
53150SOL    HW161347   6.944  11.352  11.266
53150SOL    HW261348   6.895  11.209  11.255
53151SOL     OW61349   9.783   7.214   2.859
53151SOL    HW161350   9.716   7.153   2.889
53151SOL    HW261351   9.842   7.161   2.806
53152SOL     OW61352   2.796  10.004   3.788
53152SOL    HW161353   2.880   9.997   3.743
53152SOL    HW261354   2.808  10.074   3.851
53153SOL     OW61355  13.456  11.827   6.800
53153SOL    HW161356  13.406  11.863   6.873
53153SOL    HW261357  13.393  11.821   6.728
53154SOL     OW61358   9.306   0.835  14.674
53154SOL    HW161359   9.227   0.813  14.723
53154SOL    HW261360   9.281   0.821  14.582
53155SOL     OW61361  13.586  12.113   1.506
53155SOL    HW161362  13.574  12.018   1.505
53155SOL    HW261363  13.647  12.131   1.435
53156SOL     OW61364   6.730   0.353   7.965
53156SOL    HW161365   6.685   0.274   7.995
53156SOL    HW261366   6.699   0.422   8.023
53157SOL     OW61367   3.512   3.135   3.196
53157SOL    HW161368   3.427   3.111   3.161
53157SOL    HW261369   3.575   3.105   3.131
53158SOL     OW61370  10.089   7.782   0.274
53158SOL    HW161371  10.110   7.697   0.314
53158SOL    HW261372  10.004   7.768   0.233
53159SOL     OW61373   1.401   0.513   6.838
53159SOL    HW161374   1.477   0.526   6.782
53159SOL    HW261375   1.417   0.430   6.882
53160SOL     OW61376  10.099   3.508   1.703
53160SOL    HW161377  10.126   3.568   1.633
53160SOL    HW261378  10.037   3.559   1.756
53161SOL     OW61379   6.710  12.413  14.360
53161SOL    HW161380   6.780  12.357  14.327
53161SOL    HW261381   6.649  12.353  14.403
53162SOL     OW61382  14.059  13.926   5.973
53162SOL    HW161383  14.136  13.886   5.933
53162SOL    HW261384  14.094  13.995   6.029
53163SOL     OW61385  14.056   2.708  13.572
53163SOL    HW161386  13.986   2.660  13.528
53163SOL    HW261387  14.012   2.750  13.647
53164SOL     OW61388  14.386   3.526   3.749
53164SOL    HW161389  14.479   3.529   3.770
53164SOL    HW261390  14.368   3.611   3.708
53165SOL     OW61391  14.776   0.188  13.861
53165SOL    HW161392  14.691   0.228  13.840
53165SOL    HW261393  14.831   0.260  13.889
53166SOL     OW61394  13.382   1.880   3.574
53166SOL    HW161395  13.421   1.959   3.536
53166SOL    HW261396  13.440   1.809   3.545
53167SOL     OW61397   3.838   7.782   5.163
53167SOL    HW161398   3.811   7.870   5.189
53167SOL    HW261399   3.785   7.723   5.217
53168SOL     OW61400   9.761  14.313   0.294
53168SOL    HW161401   9.817  14.379   0.252
53168SOL    HW261402   9.681  14.314   0.242
53169SOL     OW61403   8.451   9.824  11.773
53169SOL    HW161404   8.537   9.833  11.813
53169SOL    HW261405   8.454   9.741  11.726
53170SOL     OW61406   7.738   9.814  11.437
53170SOL    HW161407   7.827   9.779  11.444
53170SOL    HW261408   7.750   9.901  11.400
53171SOL     OW61409  12.540   6.684  11.311
53171SOL    HW161410  12.584   6.754  11.264
53171SOL    HW261411  12.610   6.629  11.345
53172SOL     OW61412   7.837  10.888   6.672
53172SOL    HW161413   7.780  10.949   6.720
53172SOL    HW261414   7.897  10.854   6.739
53173SOL     OW61415  12.512   6.745   9.895
53173SOL    HW161416  12.530   6.837   9.880
53173SOL    HW261417  12.523   6.703   9.809
53174SOL     OW61418   2.262   9.675  11.151
53174SOL    HW161419   2.345   9.634  11.126
53174SOL    HW261420   2.196   9.608  11.134
53175SOL     OW61421   4.160   0.326   7.846
53175SOL    HW161422   4.202   0.351   7.764
53175SOL    HW261423   4.232   0.293   7.900
53176SOL     OW61424   1.195   6.358   4.989
53176SOL    HW161425   1.273   6.393   5.031
53176SOL    HW261426   1.136   6.335   5.061
53177SOL     OW61427  13.569  10.626  10.301
53177SOL    HW161428  13.630  10.693  10.330
53177SOL    HW261429  13.615  10.581  10.229
53178SOL     OW61430  14.352   3.431   2.720
53178SOL    HW161431  14.275   3.413   2.774
53178SOL    HW261432  14.316   3.467   2.639
53179SOL     OW61433   0.224  13.336   6.765
53179SOL    HW161434   0.280  13.398   6.718
53179SOL    HW261435   0.137  13.374   6.761
53180SOL     OW61436  10.665   8.215   4.682
53180SOL    HW161437  10.686   8.277   4.752
53180SOL    HW261438  10.608   8.264   4.622
53181SOL     OW61439   0.019   1.766  12.145
53181SOL    HW161440   0.105   1.785  12.108
53181SOL    HW261441  14.837   1.795  12.078
53182SOL     OW61442   1.484   3.948   0.700
53182SOL    HW161443   1.406   3.910   0.659
53182SOL    HW261444   1.462   4.040   0.712
53183SOL     OW61445   5.886  13.679   2.328
53183SOL    HW161446   5.870  13.761   2.375
53183SOL    HW261447   5.876  13.611   2.394
53184SOL     OW61448  10.004   5.716   5.484
53184SOL    HW161449   9.977   5.628   5.512
53184SOL    HW261450   9.978   5.721   5.392
53185SOL     OW61451  10.635   7.724  13.004
53185SOL    HW161452  10.631   7.657  12.936
53185SOL    HW261453  10.618   7.677  13.086
53186SOL     OW61454   6.647   2.733  10.518
53186SOL    HW161455   6.574   2.726  10.579
53186SOL    HW261456   6.725   2.717  10.572
53187SOL     OW61457   6.919  12.349   9.880
53187SOL    HW161458   6.957  12.343   9.968
53187SOL    HW261459   6.828  12.324   9.892
53188SOL     OW61460  11.696   0.248   9.800
53188SOL    HW161461  11.751   0.289   9.866
53188SOL    HW261462  11.629   0.201   9.850
53189SOL     OW61463  12.907   1.827   8.105
53189SOL    HW161464  12.946   1.906   8.143
53189SOL    HW261465  12.816   1.851   8.087
53190SOL     OW61466   8.331   8.451   8.127
53190SOL    HW161467   8.244   8.479   8.152
53190SOL    HW261468   8.388   8.482   8.197
53191SOL     OW61469  11.600  11.710   1.016
53191SOL    HW161470  11.626  11.740   0.929
53191SOL    HW261471  11.680  11.714   1.068
53192SOL     OW61472  11.227   9.331   8.804
53192SOL    HW161473  11.143   9.285   8.805
53192SOL    HW261474  11.217   9.397   8.735
53193SOL     OW61475   5.569   0.041   9.986
53193SOL    HW161476   5.585  14.826   9.986
53193SOL    HW261477   5.478   0.049   9.956
53194SOL     OW61478   6.538  13.692   9.120
53194SOL    HW161479   6.497  13.749   9.185
53194SOL    HW261480   6.508  13.727   9.036
53195SOL     OW61481   0.544  13.835  10.985
53195SOL    HW161482   0.514  13.868  11.070
53195SOL    HW261483   0.469  13.786  10.950
53196SOL     OW61484   8.639   1.402   1.713
53196SOL    HW161485   8.567   1.390   1.775
53196SOL    HW261486   8.686   1.318   1.713
53197SOL     OW61487   8.477  14.508  14.207
53197SOL    HW161488   8.413  14.552  14.264
53197SOL    HW261489   8.521  14.579  14.161
53198SOL     OW61490   2.978  12.763   0.226
53198SOL    HW161491   2.922  12.701   0.178
53198SOL    HW261492   2.985  12.838   0.167
53199SOL     OW61493   6.864  14.456  12.194
53199SOL    HW161494   6.773  14.484  12.181
53199SOL    HW261495   6.916  14.535  12.179
53200SOL     OW61496   9.345   4.917   0.893
53200SOL    HW161497   9.424   4.970   0.905
53200SOL    HW261498   9.378   4.828   0.881
53201SOL     OW61499  14.378  12.347  14.529
53201SOL    HW161500  14.415  12.322  14.614
53201SOL    HW261501  14.287  12.369  14.548
53202SOL     OW61502   2.329  10.058   0.218
53202SOL    HW161503   2.346  10.096   0.305
53202SOL    HW261504   2.236  10.076   0.202
53203SOL     OW61505   4.491   4.079   3.942
53203SOL    HW161506   4.463   4.125   3.863
53203SOL    HW261507   4.456   4.130   4.015
53204SOL     OW61508   0.899   5.862   4.677
53204SOL    HW161509   0.896   5.859   4.581
53204SOL    HW261510   0.866   5.776   4.704
53205SOL     OW61511   9.655   9.455   1.676
53205SOL    HW161512   9.742   9.455   1.636
53205SOL    HW261513   9.639   9.363   1.699
53206SOL     OW61514  14.739   4.115  12.827
53206SOL    HW161515  14.672   4.169  12.869
53206SOL    HW261516  14.694   4.073  12.754
53207SOL     OW61517   9.112   1.803   0.851
53207SOL    HW161518   9.037   1.833   0.800
53207SOL    HW261519   9.098   1.840   0.938
53208SOL     OW61520   0.119  14.021   0.501
53208SOL    HW161521   0.059  13.997   0.572
53208SOL    HW261522   0.123  13.943   0.446
53209SOL     OW61523   8.926   2.057   9.397
53209SOL    HW161524   8.902   2.050   9.304
53209SOL    HW261525   8.913   2.149   9.418
53210SOL     OW61526   0.611  11.972  14.458
53210SOL    HW161527   0.658  11.888  14.468
53210SOL    HW261528   0.678  12.038  14.474
53211SOL     OW61529   0.025   3.363  14.674
53211SOL    HW161530   0.027   3.458  14.667
53211SOL    HW261531  14.822   3.338  14.632
53212SOL     OW61532   4.911   4.866  13.088
53212SOL    HW161533   4.848   4.835  13.152
53212SOL    HW261534   4.860   4.921  13.028
53213SOL     OW61535  14.397   9.779   4.414
53213SOL    HW161536  14.473   9.809   4.364
53213SOL    HW261537  14.360   9.858   4.451
53214SOL     OW61538   8.794   8.063   0.375
53214SOL    HW161539   8.838   8.133   0.424
53214SOL    HW261540   8.828   7.982   0.412
53215SOL     OW61541   8.379   3.517   8.753
53215SOL    HW161542   8.297   3.474   8.727
53215SOL    HW261543   8.378   3.513   8.849
53216SOL     OW61544   0.491   4.012  13.034
53216SOL    HW161545   0.578   4.005  12.996
53216SOL    HW261546   0.494   4.091  13.088
53217SOL     OW61547   6.436  14.436   5.872
53217SOL    HW161548   6.366  14.391   5.918
53217SOL    HW261549   6.464  14.374   5.805
53218SOL     OW61550  14.835   5.780   8.503
53218SOL    HW161551  14.870   5.701   8.543
53218SOL    HW261552  14.821   5.840   8.577
53219SOL     OW61553   4.769   2.852  12.373
53219SOL    HW161554   4.712   2.925  12.351
53219SOL    HW261555   4.856   2.880  12.344
53220SOL     OW61556  13.532   4.153  13.131
53220SOL    HW161557  13.559   4.242  13.157
53220SOL    HW261558  13.443   4.145  13.165
53221SOL     OW61559   3.904   4.154   6.047
53221SOL    HW161560   3.934   4.068   6.017
53221SOL    HW261561   3.978   4.212   6.033
53222SOL     OW61562   1.001   0.140  10.187
53222SOL    HW161563   1.077   0.121  10.243
53222SOL    HW261564   0.986   0.234  10.199
53223SOL     OW61565   8.276   9.854   2.307
53223SOL    HW161566   8.337   9.897   2.367
53223SOL    HW261567   8.287   9.900   2.224
53224SOL     OW61568   8.767   4.958   0.624
53224SOL    HW161569   8.849   4.995   0.658
53224SOL    HW261570   8.707   4.959   0.698
53225SOL     OW61571  10.593  12.978  14.083
53225SOL    HW161572  10.573  13.024  14.002
53225SOL    HW261573  10.526  12.910  14.089
53226SOL     OW61574   4.476   2.929   7.340
53226SOL    HW161575   4.533   2.923   7.416
53226SOL    HW261576   4.448   3.021   7.339
53227SOL     OW61577   5.482   3.334  14.718
53227SOL    HW161578   5.552   3.359  14.778
53227SOL    HW261579   5.464   3.242  14.740
53228SOL     OW61580   1.355   6.119  12.606
53228SOL    HW161581   1.278   6.159  12.567
53228SOL    HW261582   1.424   6.185  12.597
53229SOL     OW61583   6.325   5.169   5.094
53229SOL    HW161584   6.281   5.246   5.056
53229SOL    HW261585   6.289   5.163   5.182
53230SOL     OW61586   1.476  12.406   8.973
53230SOL    HW161587   1.529  12.331   9.001
53230SOL    HW261588   1.530  12.482   8.989
53231SOL     OW61589   8.444   7.163   9.134
53231SOL    HW161590   8.359   7.204   9.145
53231SOL    HW261591   8.461   7.166   9.040
53232SOL     OW61592   8.252   2.421  14.591
53232SOL    HW161593   8.227   2.398  14.681
53232SOL    HW261594   8.339   2.383  14.580
53233SOL     OW61595  11.245   2.885   3.032
53233SOL    HW161596  11.323   2.872   2.979
53233SOL    HW261597  11.173   2.890   2.969
53234SOL     OW61598  11.894   8.246   3.620
53234SOL    HW161599  11.801   8.234   3.600
53234SOL    HW261600  11.906   8.340   3.628
53235SOL     OW61601  11.536   3.532  14.236
53235SOL    HW161602  11.622   3.540  14.276
53235SOL    HW261603  11.535   3.599  14.167
53236SOL     OW61604  14.318  14.568  12.050
53236SOL    HW161605  14.304  14.478  12.081
53236SOL    HW261606  14.389  14.560  11.986
53237SOL     OW61607   9.926   7.603   3.317
53237SOL    HW161608   9.876   7.548   3.256
53237SOL    HW261609   9.984   7.654   3.260
53238SOL     OW61610   8.267   4.305   3.140
53238SOL    HW161611   8.290   4.397   3.126
53238SOL    HW261612   8.351   4.260   3.150
53239SOL     OW61613  14.388  10.518   0.416
53239SOL    HW161614  14.459  10.536   0.354
53239SOL    HW261615  14.330  10.459   0.369
53240SOL     OW61616   2.276   5.770  13.849
53240SOL    HW161617   2.206   5.713  13.818
53240SOL    HW261618   2.322   5.798  13.770
53241SOL     OW61619  13.922   7.726   3.245
53241SOL    HW161620  13.990   7.792   3.259
53241SOL    HW261621  13.874   7.724   3.328
53242SOL     OW61622   8.669   7.903  12.834
53242SOL    HW161623   8.610   7.882  12.906
53242SOL    HW261624   8.683   7.820  12.789
53243SOL     OW61625   7.561   9.731  14.660
53243SOL    HW161626   7.507   9.658  14.690
53243SOL    HW261627   7.616   9.694  14.591
53244SOL     OW61628   9.050   8.985   1.405
53244SOL    HW161629   9.088   9.003   1.491
53244SOL    HW261630   8.979   9.048   1.396
53245SOL     OW61631  10.005   1.519   3.519
53245SOL    HW161632   9.942   1.533   3.590
53245SOL    HW261633  10.087   1.499   3.564
53246SOL     OW61634  14.151   7.000   0.966
53246SOL    HW161635  14.140   6.993   1.060
53246SOL    HW261636  14.122   6.916   0.931
53247SOL     OW61637  13.665   1.390  11.540
53247SOL    HW161638  13.613   1.470  11.532
53247SOL    HW261639  13.605   1.320  11.512
53248SOL     OW61640   6.400  12.614  10.089
53248SOL    HW161641   6.402  12.659  10.174
53248SOL    HW261642   6.385  12.684  10.026
53249SOL     OW61643  10.434   2.602   9.223
53249SOL    HW161644  10.471   2.675   9.272
53249SOL    HW261645  10.390   2.643   9.149
53250SOL     OW61646   0.685   5.868  10.233
53250SOL    HW161647   0.636   5.825  10.303
53250SOL    HW261648   0.622   5.927  10.191
53251SOL     OW61649  11.648  12.061   8.941
53251SOL    HW161650  11.728  12.090   8.985
53251SOL    HW261651  11.591  12.138   8.942
53252SOL     OW61652   6.024   2.082  12.300
53252SOL    HW161653   6.083   2.155  12.321
53252SOL    HW261654   6.017   2.033  12.382
53253SOL     OW61655   7.057   4.603  11.321
53253SOL    HW161656   7.146   4.620  11.292
53253SOL    HW261657   7.030   4.683  11.366
53254SOL     OW61658  10.221   5.304   8.369
53254SOL    HW161659  10.183   5.300   8.282
53254SOL    HW261660  10.146   5.317   8.427
53255SOL     OW61661  13.929  10.434   0.428
53255SOL    HW161662  14.007  10.380   0.441
53255SOL    HW261663  13.945  10.511   0.483
53256SOL     OW61664   9.766   6.875   8.678
53256SOL    HW161665   9.727   6.903   8.596
53256SOL    HW261666   9.695   6.832   8.726
53257SOL     OW61667   4.741  11.605   3.355
53257SOL    HW161668   4.707  11.575   3.440
53257SOL    HW261669   4.697  11.549   3.291
53258SOL     OW61670   8.881   9.218  13.847
53258SOL    HW161671   8.831   9.295  13.821
53258SOL    HW261672   8.935   9.249  13.920
53259SOL     OW61673  11.731   5.176   9.713
53259SOL    HW161674  11.640   5.204   9.702
53259SOL    HW261675  11.778   5.256   9.738
53260SOL     OW61676   3.088   5.962  13.620
53260SOL    HW161677   3.088   5.937  13.713
53260SOL    HW261678   3.144   5.897  13.578
53261SOL     OW61679  12.770   2.191  13.931
53261SOL    HW161680  12.850   2.196  13.879
53261SOL    HW261681  12.799   2.160  14.017
53262SOL     OW61682   9.784  14.219   5.940
53262SOL    HW161683   9.755  14.286   6.002
53262SOL    HW261684   9.867  14.187   5.977
53263SOL     OW61685   1.241   7.060  14.755
53263SOL    HW161686   1.162   7.072  14.808
53263SOL    HW261687   1.217   6.993  14.691
53264SOL     OW61688  12.590  10.373   0.881
53264SOL    HW161689  12.561  10.437   0.816
53264SOL    HW261690  12.543  10.397   0.961
53265SOL     OW61691  11.569   3.089   8.651
53265SOL    HW161692  11.512   3.017   8.677
53265SOL    HW261693  11.658   3.053   8.659
53266SOL     OW61694   2.877   9.377   3.727
53266SOL    HW161695   2.940   9.382   3.798
53266SOL    HW261696   2.882   9.286   3.696
53267SOL     OW61697  14.798   9.523   5.466
53267SOL    HW161698  14.768   9.479   5.545
53267SOL    HW261699   0.005   9.555   5.487
53268SOL     OW61700   7.853  13.570  12.393
53268SOL    HW161701   7.827  13.661  12.408
53268SOL    HW261702   7.777  13.529  12.353
53269SOL     OW61703   1.285   2.829   5.606
53269SOL    HW161704   1.349   2.847   5.675
53269SOL    HW261705   1.200   2.837   5.649
53270SOL     OW61706  12.253   6.997   1.185
53270SOL    HW161707  12.329   7.026   1.236
53270SOL    HW261708  12.201   6.946   1.248
53271SOL     OW61709  12.745   5.506  14.037
53271SOL    HW161710  12.667   5.453  14.024
53271SOL    HW261711  12.810   5.468  13.977
53272SOL     OW61712   7.092   7.149  12.217
53272SOL    HW161713   7.052   7.069  12.182
53272SOL    HW261714   7.026   7.217  12.203
53273SOL     OW61715   8.455   3.581  13.345
53273SOL    HW161716   8.467   3.486  13.335
53273SOL    HW261717   8.448   3.614  13.256
53274SOL     OW61718  10.472  10.138   7.184
53274SOL    HW161719  10.391  10.112   7.227
53274SOL    HW261720  10.480  10.232   7.202
53275SOL     OW61721   2.756   4.782  12.572
53275SOL    HW161722   2.666   4.799  12.599
53275SOL    HW261723   2.749   4.729  12.492
53276SOL     OW61724   7.486   2.091   3.801
53276SOL    HW161725   7.435   2.044   3.868
53276SOL    HW261726   7.576   2.087   3.832
53277SOL     OW61727  13.667  11.006   3.185
53277SOL    HW161728  13.624  11.081   3.225
53277SOL    HW261729  13.610  10.983   3.111
53278SOL     OW61730  10.848  10.480   2.915
53278SOL    HW161731  10.817  10.538   2.984
53278SOL    HW261732  10.792  10.500   2.840
53279SOL     OW61733  11.138  13.836   6.357
53279SOL    HW161734  11.152  13.922   6.399
53279SOL    HW261735  11.060  13.801   6.400
53280SOL     OW61736  12.783   1.290   3.670
53280SOL    HW161737  12.712   1.264   3.727
53280SOL    HW261738  12.756   1.375   3.634
53281SOL     OW61739  13.954  10.385   5.458
53281SOL    HW161740  14.048  10.371   5.451
53281SOL    HW261741  13.936  10.461   5.403
53282SOL     OW61742   2.247   0.700  10.900
53282SOL    HW161743   2.284   0.613  10.886
53282SOL    HW261744   2.181   0.709  10.831
53283SOL     OW61745   0.538   3.449   9.245
53283SOL    HW161746   0.509   3.489   9.327
53283SOL    HW261747   0.608   3.389   9.271
53284SOL     OW61748   2.182  14.113   9.022
53284SOL    HW161749   2.265  14.074   8.994
53284SOL    HW261750   2.136  14.132   8.940
53285SOL     OW61751   2.756  12.265   2.378
53285SOL    HW161752   2.704  12.340   2.408
53285SOL    HW261753   2.841  12.302   2.356
53286SOL     OW61754   6.468   1.666  13.878
53286SOL    HW161755   6.373   1.654  13.887
53286SOL    HW261756   6.506   1.589  13.920
53287SOL     OW61757  13.689   6.115   7.770
53287SOL    HW161758  13.641   6.048   7.721
53287SOL    HW261759  13.652   6.112   7.858
53288SOL     OW61760   6.930   7.525  11.529
53288SOL    HW161761   7.021   7.543  11.505
53288SOL    HW261762   6.921   7.430  11.518
53289SOL     OW61763   0.284   2.344  12.115
53289SOL    HW161764   0.235   2.324  12.195
53289SOL    HW261765   0.217   2.369  12.051
53290SOL     OW61766   5.374  10.913   8.605
53290SOL    HW161767   5.315  10.911   8.530
53290SOL    HW261768   5.386  11.006   8.624
53291SOL     OW61769  11.277   8.870   4.828
53291SOL    HW161770  11.199   8.836   4.872
53291SOL    HW261771  11.243   8.919   4.753
53292SOL     OW61772   7.136  11.579  10.018
53292SOL    HW161773   7.188  11.658  10.034
53292SOL    HW261774   7.170  11.515  10.081
53293SOL     OW61775  13.415   7.711  12.427
53293SOL    HW161776  13.434   7.622  12.396
53293SOL    HW261777  13.466   7.767  12.370
53294SOL     OW61778   8.030   0.790  10.890
53294SOL    HW161779   8.104   0.775  10.948
53294SOL    HW261780   8.069   0.804  10.803
53295SOL     OW61781   3.033  10.208  13.644
53295SOL    HW161782   3.082  10.148  13.588
53295SOL    HW261783   3.088  10.220  13.721
53296SOL     OW61784   8.157   0.801   6.854
53296SOL    HW161785   8.141   0.863   6.782
53296SOL    HW261786   8.136   0.850   6.933
53297SOL     OW61787   0.506   2.926   5.970
53297SOL    HW161788   0.467   2.936   6.057
53297SOL    HW261789   0.509   3.015   5.934
53298SOL     OW61790   6.092   7.029  10.243
53298SOL    HW161791   6.039   6.952  10.221
53298SOL    HW261792   6.130   7.008  10.328
53299SOL     OW61793   6.489   8.934   2.742
53299SOL    HW161794   6.404   8.976   2.752
53299SOL    HW261795   6.550   8.990   2.790
53300SOL     OW61796   9.966   4.924   4.032
53300SOL    HW161797   9.955   5.014   4.062
53300SOL    HW261798   9.925   4.922   3.946
53301SOL     OW61799  10.081  11.185   9.125
53301SOL    HW161800  10.117  11.161   9.211
53301SOL    HW261801  10.091  11.106   9.072
53302SOL     OW61802   9.904   3.728   6.461
53302SOL    HW161803   9.900   3.640   6.498
53302SOL    HW261804   9.841   3.727   6.389
53303SOL     OW61805  10.169   5.301   3.492
53303SOL    HW161806  10.075   5.286   3.482
53303SOL    HW261807  10.176   5.355   3.571
53304SOL     OW61808   1.344  11.708  10.048
53304SOL    HW161809   1.267  11.687   9.995
53304SOL    HW261810   1.317  11.781  10.103
53305SOL     OW61811  13.012   4.279   6.670
53305SOL    HW161812  13.061   4.361   6.670
53305SOL    HW261813  13.041   4.233   6.592
53306SOL     OW61814   2.572  13.515   8.398
53306SOL    HW161815   2.543  13.606   8.400
53306SOL    HW261816   2.599  13.496   8.488
53307SOL     OW61817  13.087   0.844   4.174
53307SOL    HW161818  13.085   0.907   4.101
53307SOL    HW261819  13.093   0.899   4.252
53308SOL     OW61820   1.117  11.789   5.078
53308SOL    HW161821   1.148  11.817   4.992
53308SOL    HW261822   1.152  11.701   5.088
53309SOL     OW61823   1.612   8.987   9.054
53309SOL    HW161824   1.620   8.930   9.130
53309SOL    HW261825   1.521   9.018   9.057
53310SOL     OW61826   1.121  11.284  14.667
53310SOL    HW161827   1.107  11.190  14.654
53310SOL    HW261828   1.037  11.316  14.699
53311SOL     OW61829  11.126   7.753  13.007
53311SOL    HW161830  11.031   7.763  13.004
53311SOL    HW261831  11.157   7.793  12.925
53312SOL     OW61832   9.530   7.474   6.312
53312SOL    HW161833   9.571   7.561   6.308
53312SOL    HW261834   9.440   7.491   6.338
53313SOL     OW61835   0.572  12.642   4.376
53313SOL    HW161836   0.539  12.692   4.451
53313SOL    HW261837   0.622  12.705   4.325
53314SOL     OW61838  11.712  11.996   0.356
53314SOL    HW161839  11.798  12.024   0.325
53314SOL    HW261840  11.693  11.916   0.307
53315SOL     OW61841  11.439   9.062   8.123
53315SOL    HW161842  11.501   9.122   8.163
53315SOL    HW261843  11.419   8.999   8.192
53316SOL     OW61844   3.154  13.728   0.646
53316SOL    HW161845   3.139  13.661   0.714
53316SOL    HW261846   3.110  13.693   0.569
53317SOL     OW61847   2.880   6.400  11.462
53317SOL    HW161848   2.846   6.447  11.386
53317SOL    HW261849   2.878   6.464  11.533
53318SOL     OW61850   5.663  11.803   1.939
53318SOL    HW161851   5.672  11.852   2.021
53318SOL    HW261852   5.636  11.868   1.875
53319SOL     OW61853   5.798   4.936   3.968
53319SOL    HW161854   5.893   4.938   3.953
53319SOL    HW261855   5.762   4.913   3.882
53320SOL     OW61856   6.954   0.489  10.828
53320SOL    HW161857   6.892   0.464  10.897
53320SOL    HW261858   7.039   0.489  10.871
53321SOL     OW61859   3.747   9.008   3.420
53321SOL    HW161860   3.685   9.050   3.360
53321SOL    HW261861   3.760   8.921   3.382
53322SOL     OW61862   4.504   5.523  11.691
53322SOL    HW161863   4.567   5.589  11.720
53322SOL    HW261864   4.431   5.531  11.753
53323SOL     OW61865   2.417   0.696   1.413
53323SOL    HW161866   2.348   0.738   1.464
53323SOL    HW261867   2.403   0.602   1.426
53324SOL     OW61868   4.357   7.352   3.266
53324SOL    HW161869   4.286   7.296   3.297
53324SOL    HW261870   4.437   7.301   3.281
53325SOL     OW61871   4.110  13.907   3.193
53325SOL    HW161872   4.206  13.911   3.186
53325SOL    HW261873   4.082  13.866   3.111
53326SOL     OW61874  14.387   3.881  11.783
53326SOL    HW161875  14.362   3.947  11.718
53326SOL    HW261876  14.445   3.822  11.737
53327SOL     OW61877  14.742  13.683   3.035
53327SOL    HW161878  14.747  13.591   3.008
53327SOL    HW261879  14.827  13.720   3.012
53328SOL     OW61880   3.657  14.097  10.260
53328SOL    HW161881   3.668  14.033  10.330
53328SOL    HW261882   3.585  14.153  10.290
53329SOL     OW61883  10.919  11.624  10.377
53329SOL    HW161884  10.979  11.602  10.306
53329SOL    HW261885  10.864  11.546  10.386
53330SOL     OW61886  10.194  12.388  14.486
53330SOL    HW161887  10.249  12.432  14.421
53330SOL    HW261888  10.249  12.381  14.564
53331SOL     OW61889  11.725   2.945   5.913
53331SOL    HW161890  11.772   2.930   5.831
53331SOL    HW261891  11.780   2.907   5.981
53332SOL     OW61892   8.919   4.530  10.163
53332SOL    HW161893   8.941   4.437  10.154
53332SOL    HW261894   8.990   4.567  10.215
53333SOL     OW61895   1.445   1.388  10.928
53333SOL    HW161896   1.466   1.296  10.914
53333SOL    HW261897   1.417   1.420  10.842
53334SOL     OW61898   6.482   5.135  10.312
53334SOL    HW161899   6.523   5.222  10.310
53334SOL    HW261900   6.518   5.094  10.391
53335SOL     OW61901   7.761   0.711   1.355
53335SOL    HW161902   7.760   0.732   1.448
53335SOL    HW261903   7.851   0.729   1.327
53336SOL     OW61904   2.209   9.396   9.080
53336SOL    HW161905   2.137   9.411   9.142
53336SOL    HW261906   2.216   9.301   9.074
53337SOL     OW61907   1.091   9.841   4.543
53337SOL    HW161908   1.161   9.877   4.487
53337SOL    HW261909   1.129   9.762   4.581
53338SOL     OW61910  12.330   7.508   1.635
53338SOL    HW161911  12.348   7.593   1.676
53338SOL    HW261912  12.300   7.453   1.707
53339SOL     OW61913   3.663   2.926   1.708
53339SOL    HW161914   3.638   2.863   1.640
53339SOL    HW261915   3.637   2.885   1.790
53340SOL     OW61916   6.496  10.455   0.041
53340SOL    HW161917   6.496  10.543   0.005
53340SOL    HW261918   6.480  10.466   0.135
53341SOL     OW61919   9.628  11.688  12.883
53341SOL    HW161920   9.695  11.703  12.816
53341SOL    HW261921   9.638  11.596  12.907
53342SOL     OW61922   6.373   1.280   3.343
53342SOL    HW161923   6.344   1.259   3.432
53342SOL    HW261924   6.302   1.247   3.287
53343SOL     OW61925  11.174   5.758  14.795
53343SOL    HW161926  11.162   5.779   0.008
53343SOL    HW261927  11.094   5.789  14.753
53344SOL     OW61928  13.977   8.476   4.679
53344SOL    HW161929  13.992   8.384   4.657
53344SOL    HW261930  14.063   8.517   4.674
53345SOL     OW61931   5.285   1.661   9.030
53345SOL    HW161932   5.292   1.632   9.121
53345SOL    HW261933   5.334   1.743   9.028
53346SOL     OW61934   1.745  12.648  12.691
53346SOL    HW161935   1.664  12.684  12.656
53346SOL    HW261936   1.726  12.556  12.708
53347SOL     OW61937  12.913   6.255  11.985
53347SOL    HW161938  12.857   6.211  12.050
53347SOL    HW261939  12.854   6.315  11.940
53348SOL     OW61940   3.387   4.513   4.712
53348SOL    HW161941   3.427   4.448   4.654
53348SOL    HW261942   3.454   4.529   4.779
53349SOL     OW61943   1.719   9.552  13.762
53349SOL    HW161944   1.691   9.461  13.752
53349SOL    HW261945   1.786   9.548  13.830
53350SOL     OW61946   4.424   3.706   5.714
53350SOL    HW161947   4.409   3.643   5.643
53350SOL    HW261948   4.480   3.773   5.675
53351SOL     OW61949  10.494   1.293   6.266
53351SOL    HW161950  10.526   1.232   6.333
53351SOL    HW261951  10.556   1.283   6.194
53352SOL     OW61952   8.932   0.433  12.800
53352SOL    HW161953   8.845   0.456  12.769
53352SOL    HW261954   8.948   0.494  12.873
53353SOL     OW61955   6.296   4.321  13.140
53353SOL    HW161956   6.362   4.280  13.196
53353SOL    HW261957   6.224   4.341  13.199
53354SOL     OW61958   2.478   3.240   5.690
53354SOL    HW161959   2.459   3.198   5.774
53354SOL    HW261960   2.418   3.199   5.629
53355SOL     OW61961  10.306   1.836   8.675
53355SOL    HW161962  10.252   1.870   8.604
53355SOL    HW261963  10.246   1.827   8.749
53356SOL     OW61964   1.203   3.091   9.992
53356SOL    HW161965   1.232   3.011  10.035
53356SOL    HW261966   1.203   3.157  10.061
53357SOL     OW61967   4.888   1.389   0.464
53357SOL    HW161968   4.892   1.378   0.369
53357SOL    HW261969   4.795   1.379   0.485
53358SOL     OW61970  14.381  13.506   2.040
53358SOL    HW161971  14.328  13.510   1.961
53358SOL    HW261972  14.347  13.430   2.088
53359SOL     OW61973  14.828   2.468   6.060
53359SOL    HW161974  14.780   2.547   6.087
53359SOL    HW261975   0.013   2.501   5.997
53360SOL     OW61976  13.783   6.563   1.178
53360SOL    HW161977  13.850   6.620   1.214
53360SOL    HW261978  13.707   6.575   1.236
53361SOL     OW61979   9.293   6.307   7.524
53361SOL    HW161980   9.286   6.381   7.583
53361SOL    HW261981   9.376   6.265   7.546
53362SOL     OW61982   9.737   1.303  11.430
53362SOL    HW161983   9.690   1.222  11.409
53362SOL    HW261984   9.702   1.330  11.515
53363SOL     OW61985  10.406   3.704  13.603
53363SOL    HW161986  10.400   3.668  13.515
53363SOL    HW261987  10.453   3.787  13.592
53364SOL     OW61988   3.351  13.625  11.224
53364SOL    HW161989   3.284  13.567  11.186
53364SOL    HW261990   3.426  13.568  11.241
53365SOL     OW61991   2.945   1.199   6.998
53365SOL    HW161992   2.978   1.176   6.911
53365SOL    HW261993   2.910   1.287   6.988
53366SOL     OW61994   3.391   7.817   7.615
53366SOL    HW161995   3.402   7.722   7.609
53366SOL    HW261996   3.474   7.848   7.651
53367SOL     OW61997   5.014   4.466   2.117
53367SOL    HW161998   5.053   4.503   2.037
53367SOL    HW261999   5.081   4.479   2.184
53368SOL     OW62000  13.718  13.002   1.890
53368SOL    HW162001  13.648  12.954   1.846
53368SOL    HW262002  13.749  12.942   1.958
53369SOL     OW62003   5.586   7.858  13.239
53369SOL    HW162004   5.549   7.807  13.167
53369SOL    HW262005   5.582   7.949  13.209
53370SOL     OW62006   2.929  10.214   7.237
53370SOL    HW162007   2.870  10.283   7.268
53370SOL    HW262008   2.881  10.172   7.166
53371SOL     OW62009   7.719   3.531   5.562
53371SOL    HW162010   7.643   3.584   5.538
53371SOL    HW262011   7.711   3.519   5.657
53372SOL     OW62012   5.984   1.191  10.904
53372SOL    HW162013   5.940   1.276  10.902
53372SOL    HW262014   6.077   1.213  10.906
53373SOL     OW62015   0.567   3.901   3.590
53373SOL    HW162016   0.584   3.811   3.618
53373SOL    HW262017   0.600   3.905   3.501
53374SOL     OW62018   9.093   8.692   7.065
53374SOL    HW162019   9.125   8.638   7.138
53374SOL    HW262020   9.173   8.720   7.019
53375SOL     OW62021  13.671   0.926  10.639
53375SOL    HW162022  13.622   0.863  10.585
53375SOL    HW262023  13.653   0.901  10.729
53376SOL     OW62024   5.886   9.998  12.503
53376SOL    HW162025   5.911  10.029  12.590
53376SOL    HW262026   5.887   9.902  12.511
53377SOL     OW62027   0.610  11.886   0.579
53377SOL    HW162028   0.534  11.910   0.632
53377SOL    HW262029   0.681  11.941   0.613
53378SOL     OW62030   3.107   0.342   7.408
53378SOL    HW162031   3.072   0.286   7.478
53378SOL    HW262032   3.142   0.419   7.454
53379SOL     OW62033   6.261   4.367   5.896
53379SOL    HW162034   6.248   4.341   5.988
53379SOL    HW262035   6.229   4.292   5.846
53380SOL     OW62036   8.413   0.580  11.712
53380SOL    HW162037   8.486   0.525  11.684
53380SOL    HW262038   8.372   0.530  11.783
53381SOL     OW62039  14.086  14.699   4.568
53381SOL    HW162040  14.103  14.792   4.584
53381SOL    HW262041  13.990  14.693   4.564
53382SOL     OW62042   2.198  13.610   5.047
53382SOL    HW162043   2.211  13.542   4.980
53382SOL    HW262044   2.257  13.585   5.118
53383SOL     OW62045   7.205   2.288  10.463
53383SOL    HW162046   7.119   2.284  10.504
53383SOL    HW262047   7.188   2.279  10.370
53384SOL     OW62048  12.309   5.189   9.746
53384SOL    HW162049  12.403   5.207   9.736
53384SOL    HW262050  12.277   5.259   9.802
53385SOL     OW62051   3.049   8.384   3.047
53385SOL    HW162052   3.085   8.467   3.016
53385SOL    HW262053   2.965   8.376   3.001
53386SOL     OW62054  10.192   5.033   5.004
53386SOL    HW162055  10.280   5.035   5.042
53386SOL    HW262056  10.205   4.998   4.916
53387SOL     OW62057  10.865  14.688   9.420
53387SOL    HW162058  10.903  14.621   9.363
53387SOL    HW262059  10.919  14.687   9.499
53388SOL     OW62060  13.749   1.908   7.702
53388SOL    HW162061  13.735   1.848   7.776
53388SOL    HW262062  13.826   1.959   7.726
53389SOL     OW62063  10.316   4.241   3.609
53389SOL    HW162064  10.372   4.309   3.572
53389SOL    HW262065  10.302   4.179   3.537
53390SOL     OW62066  12.367  12.110   1.105
53390SOL    HW162067  12.430  12.040   1.124
53390SOL    HW262068  12.309  12.073   1.039
53391SOL     OW62069   3.925   1.014   0.682
53391SOL    HW162070   3.833   0.992   0.668
53391SOL    HW262071   3.924   1.076   0.755
53392SOL     OW62072  14.036   3.973  10.421
53392SOL    HW162073  13.969   3.923  10.375
53392SOL    HW262074  14.013   4.065  10.404
53393SOL     OW62075  12.737   9.665  11.459
53393SOL    HW162076  12.772   9.705  11.539
53393SOL    HW262077  12.777   9.715  11.388
53394SOL     OW62078   9.939   4.675   7.440
53394SOL    HW162079   9.896   4.634   7.515
53394SOL    HW262080   9.945   4.768   7.464
53395SOL     OW62081   5.302   2.730   5.402
53395SOL    HW162082   5.275   2.714   5.493
53395SOL    HW262083   5.385   2.684   5.394
53396SOL     OW62084   1.270   8.095  11.082
53396SOL    HW162085   1.339   8.137  11.133
53396SOL    HW262086   1.279   8.002  11.101
53397SOL     OW62087   6.333   0.060  13.798
53397SOL    HW162088   6.360   0.109  13.721
53397SOL    HW262089   6.371  14.853  13.786
53398SOL     OW62090   2.116   6.331  11.736
53398SOL    HW162091   2.055   6.396  11.770
53398SOL    HW262092   2.198   6.380  11.723
53399SOL     OW62093  10.746   6.635   9.297
53399SOL    HW162094  10.655   6.608   9.292
53399SOL    HW262095  10.753   6.684   9.379
53400SOL     OW62096   3.610   1.140   1.421
53400SOL    HW162097   3.646   1.167   1.337
53400SOL    HW262098   3.565   1.058   1.403
53401SOL     OW62099  14.604   4.085   2.072
53401SOL    HW162100  14.665   4.012   2.066
53401SOL    HW262101  14.528   4.058   2.021
53402SOL     OW62102   5.175   3.047   0.994
53402SOL    HW162103   5.127   2.992   1.055
53402SOL    HW262104   5.267   3.025   1.010
53403SOL     OW62105   8.049  11.897  13.436
53403SOL    HW162106   7.968  11.897  13.486
53403SOL    HW262107   8.052  11.810  13.395
53404SOL     OW62108  10.522  13.628   1.153
53404SOL    HW162109  10.470  13.708   1.156
53404SOL    HW262110  10.509  13.587   1.238
53405SOL     OW62111   1.344   5.078  13.835
53405SOL    HW162112   1.435   5.062  13.859
53405SOL    HW262113   1.345   5.086  13.740
53406SOL     OW62114  12.543  13.751   8.391
53406SOL    HW162115  12.548  13.843   8.364
53406SOL    HW262116  12.480  13.712   8.331
53407SOL     OW62117   1.522  10.388   9.995
53407SOL    HW162118   1.431  10.412   9.980
53407SOL    HW262119   1.539  10.410  10.086
53408SOL     OW62120   9.325   7.735   1.200
53408SOL    HW162121   9.339   7.644   1.173
53408SOL    HW262122   9.371   7.743   1.283
53409SOL     OW62123   0.912  11.387   8.422
53409SOL    HW162124   0.926  11.457   8.487
53409SOL    HW262125   0.875  11.432   8.346
53410SOL     OW62126   7.305   8.604  11.278
53410SOL    HW162127   7.311   8.514  11.246
53410SOL    HW262128   7.290   8.594  11.372
53411SOL     OW62129   4.258   6.470  11.482
53411SOL    HW162130   4.259   6.420  11.564
53411SOL    HW262131   4.303   6.413  11.419
53412SOL     OW62132   1.946  14.399   0.834
53412SOL    HW162133   1.886  14.342   0.786
53412SOL    HW262134   2.014  14.421   0.769
53413SOL     OW62135  13.431   7.407   0.689
53413SOL    HW162136  13.509   7.355   0.710
53413SOL    HW262137  13.398   7.370   0.607
53414SOL     OW62138   9.397   2.063  11.054
53414SOL    HW162139   9.327   2.075  10.989
53414SOL    HW262140   9.385   2.134  11.117
53415SOL     OW62141   1.513   7.434  14.706
53415SOL    HW162142   1.536   7.478  14.623
53415SOL    HW262143   1.435   7.384  14.685
53416SOL     OW62144   3.658  11.012  14.514
53416SOL    HW162145   3.739  10.989  14.560
53416SOL    HW262146   3.597  10.942  14.539
53417SOL     OW62147  12.423   6.375  10.226
53417SOL    HW162148  12.381   6.454  10.259
53417SOL    HW262149  12.357   6.334  10.170
53418SOL     OW62150   0.143   5.230  13.113
53418SOL    HW162151   0.074   5.266  13.169
53418SOL    HW262152   0.220   5.226  13.169
53419SOL     OW62153   4.154   0.629   4.412
53419SOL    HW162154   4.141   0.705   4.354
53419SOL    HW262155   4.248   0.613   4.410
53420SOL     OW62156  13.866   0.570   8.481
53420SOL    HW162157  13.946   0.599   8.437
53420SOL    HW262158  13.870   0.475   8.478
53421SOL     OW62159  10.331   1.490  13.215
53421SOL    HW162160  10.328   1.402  13.178
53421SOL    HW262161  10.354   1.546  13.140
53422SOL     OW62162   8.422  13.532  11.901
53422SOL    HW162163   8.509  13.492  11.898
53422SOL    HW262164   8.427  13.604  11.838
53423SOL     OW62165  11.168   2.799   5.070
53423SOL    HW162166  11.258   2.786   5.041
53423SOL    HW262167  11.116   2.740   5.016
53424SOL     OW62168   0.441  13.587  11.501
53424SOL    HW162169   0.473  13.527  11.568
53424SOL    HW262170   0.376  13.536  11.452
53425SOL     OW62171   2.992  13.432   8.222
53425SOL    HW162172   3.022  13.380   8.147
53425SOL    HW262173   2.911  13.390   8.250
53426SOL     OW62174   8.504   1.668   9.584
53426SOL    HW162175   8.456   1.607   9.639
53426SOL    HW262176   8.471   1.652   9.495
53427SOL     OW62177   2.964   2.331  10.950
53427SOL    HW162178   3.007   2.385  11.017
53427SOL    HW262179   2.988   2.242  10.973
53428SOL     OW62180   4.659   4.305  12.869
53428SOL    HW162181   4.583   4.321  12.925
53428SOL    HW262182   4.693   4.392  12.848
53429SOL     OW62183  12.552  14.063   1.673
53429SOL    HW162184  12.485  14.071   1.740
53429SOL    HW262185  12.558  13.969   1.655
53430SOL     OW62186  10.225   3.619   4.281
53430SOL    HW162187  10.196   3.563   4.353
53430SOL    HW262188  10.231   3.560   4.206
53431SOL     OW62189   6.409   9.509   3.331
53431SOL    HW162190   6.402   9.516   3.235
53431SOL    HW262191   6.409   9.599   3.361
53432SOL     OW62192   6.616   3.739   5.710
53432SOL    HW162193   6.534   3.730   5.759
53432SOL    HW262194   6.618   3.663   5.653
53433SOL     OW62195  10.852  10.607  14.077
53433SOL    HW162196  10.935  10.562  14.066
53433SOL    HW262197  10.839  10.613  14.171
53434SOL     OW62198   8.598   3.142   8.096
53434SOL    HW162199   8.578   3.081   8.167
53434SOL    HW262200   8.527   3.129   8.033
53435SOL     OW62201   0.203  10.698   2.640
53435SOL    HW162202   0.232  10.627   2.583
53435SOL    HW262203   0.264  10.769   2.624
53436SOL     OW62204   7.700   3.944   7.913
53436SOL    HW162205   7.667   3.987   7.834
53436SOL    HW262206   7.649   3.864   7.921
53437SOL     OW62207  13.059   5.885  13.103
53437SOL    HW162208  13.127   5.926  13.157
53437SOL    HW262209  13.019   5.820  13.161
53438SOL     OW62210   2.754   5.013  13.061
53438SOL    HW162211   2.786   5.067  12.989
53438SOL    HW262212   2.833   4.989  13.110
53439SOL     OW62213  13.542   3.904  12.437
53439SOL    HW162214  13.622   3.853  12.451
53439SOL    HW262215  13.505   3.916  12.524
53440SOL     OW62216   1.779  13.024  13.142
53440SOL    HW162217   1.809  13.005  13.231
53440SOL    HW262218   1.848  12.989  13.086
53441SOL     OW62219   7.831   9.020  10.079
53441SOL    HW162220   7.739   9.011  10.102
53441SOL    HW262221   7.843   8.961  10.004
53442SOL     OW62222   4.279   3.519   3.823
53442SOL    HW162223   4.215   3.590   3.818
53442SOL    HW262224   4.347   3.553   3.882
53443SOL     OW62225  12.311  10.512  11.605
53443SOL    HW162226  12.220  10.482  11.612
53443SOL    HW262227  12.339  10.483  11.518
53444SOL     OW62228   4.913  10.745  10.034
53444SOL    HW162229   4.933  10.787  10.117
53444SOL    HW262230   4.818  10.729  10.037
53445SOL     OW62231   4.325   2.887   6.347
53445SOL    HW162232   4.382   2.892   6.270
53445SOL    HW262233   4.252   2.832   6.319
53446SOL     OW62234  11.857   6.406   7.207
53446SOL    HW162235  11.790   6.473   7.198
53446SOL    HW262236  11.929   6.450   7.254
53447SOL     OW62237  13.329   8.480   5.266
53447SOL    HW162238  13.259   8.460   5.204
53447SOL    HW262239  13.343   8.399   5.314
53448SOL     OW62240   3.957  11.284  13.661
53448SOL    HW162241   3.949  11.365  13.611
53448SOL    HW262242   3.970  11.216  13.595
53449SOL     OW62243   7.068   3.064   2.678
53449SOL    HW162244   7.054   3.087   2.770
53449SOL    HW262245   7.015   3.127   2.629
53450SOL     OW62246   8.223   8.913   3.431
53450SOL    HW162247   8.218   8.948   3.342
53450SOL    HW262248   8.214   8.818   3.421
53451SOL     OW62249   7.588   3.465  13.640
53451SOL    HW162250   7.655   3.400  13.660
53451SOL    HW262251   7.618   3.505  13.558
53452SOL     OW62252   5.101   2.889   8.851
53452SOL    HW162253   5.147   2.894   8.768
53452SOL    HW262254   5.021   2.941   8.838
53453SOL     OW62255   8.581   0.288   3.494
53453SOL    HW162256   8.545   0.376   3.480
53453SOL    HW262257   8.658   0.284   3.437
53454SOL     OW62258   7.478  11.109   7.921
53454SOL    HW162259   7.437  11.023   7.918
53454SOL    HW262260   7.571  11.092   7.905
53455SOL     OW62261   3.265   4.530   2.333
53455SOL    HW162262   3.259   4.457   2.272
53455SOL    HW262263   3.345   4.577   2.306
53456SOL     OW62264  13.683   7.239   6.997
53456SOL    HW162265  13.624   7.285   7.057
53456SOL    HW262266  13.754   7.209   7.052
53457SOL     OW62267   0.190   6.002   0.680
53457SOL    HW162268   0.249   6.034   0.611
53457SOL    HW262269   0.235   5.926   0.716
53458SOL     OW62270  14.565   9.021   3.130
53458SOL    HW162271  14.518   9.034   3.213
53458SOL    HW262272  14.507   9.059   3.064
53459SOL     OW62273  14.407   5.882   2.650
53459SOL    HW162274  14.466   5.920   2.715
53459SOL    HW262275  14.439   5.792   2.639
53460SOL     OW62276   3.653   1.743  11.601
53460SOL    HW162277   3.673   1.684  11.674
53460SOL    HW262278   3.560   1.728  11.583
53461SOL     OW62279   3.700  11.436   2.767
53461SOL    HW162280   3.758  11.433   2.843
53461SOL    HW262281   3.759  11.437   2.692
53462SOL     OW62282   3.233   2.998   5.507
53462SOL    HW162283   3.321   3.030   5.486
53462SOL    HW262284   3.222   3.018   5.600
53463SOL     OW62285  10.446  10.501  10.590
53463SOL    HW162286  10.395  10.515  10.670
53463SOL    HW262287  10.381  10.500  10.520
53464SOL     OW62288   1.523   4.965  10.363
53464SOL    HW162289   1.438   4.973  10.405
53464SOL    HW262290   1.504   4.935  10.274
53465SOL     OW62291   8.086   9.602   1.456
53465SOL    HW162292   8.173   9.587   1.493
53465SOL    HW262293   8.037   9.522   1.477
53466SOL     OW62294   4.539  13.883  14.765
53466SOL    HW162295   4.462  13.929  14.733
53466SOL    HW262296   4.592  13.952  14.806
53467SOL     OW62297   9.841  12.852   9.282
53467SOL    HW162298   9.836  12.936   9.328
53467SOL    HW262299   9.752  12.838   9.248
53468SOL     OW62300   7.550  13.561  12.609
53468SOL    HW162301   7.594  13.645  12.623
53468SOL    HW262302   7.459  13.576  12.635
53469SOL     OW62303   3.095   9.326   2.214
53469SOL    HW162304   3.012   9.370   2.198
53469SOL    HW262305   3.130   9.306   2.127
53470SOL     OW62306   2.888   5.247   6.889
53470SOL    HW162307   2.815   5.297   6.925
53470SOL    HW262308   2.930   5.206   6.964
53471SOL     OW62309   4.568  13.316   5.300
53471SOL    HW162310   4.644  13.278   5.256
53471SOL    HW262311   4.582  13.410   5.296
53472SOL     OW62312  13.630   3.414  11.476
53472SOL    HW162313  13.685   3.488  11.451
53472SOL    HW262314  13.557   3.416  11.414
53473SOL     OW62315   3.408  10.653  13.406
53473SOL    HW162316   3.479  10.667  13.343
53473SOL    HW262317   3.431  10.707  13.481
53474SOL     OW62318  10.503   3.774   8.087
53474SOL    HW162319  10.573   3.734   8.036
53474SOL    HW262320  10.542   3.854   8.123
53475SOL     OW62321   4.729   1.265  12.163
53475SOL    HW162322   4.732   1.319  12.242
53475SOL    HW262323   4.768   1.321  12.095
53476SOL     OW62324   2.544  14.874   2.862
53476SOL    HW162325   2.567  14.805   2.926
53476SOL    HW262326   2.570   0.076   2.905
53477SOL     OW62327  11.657   7.410  13.756
53477SOL    HW162328  11.627   7.362  13.833
53477SOL    HW262329  11.732   7.461  13.787
53478SOL     OW62330  13.249  12.149  11.973
53478SOL    HW162331  13.199  12.228  11.992
53478SOL    HW262332  13.264  12.108  12.059
53479SOL     OW62333   7.029   2.973  10.719
53479SOL    HW162334   7.074   3.017  10.646
53479SOL    HW262335   6.940   2.959  10.687
53480SOL     OW62336   2.101   7.968   8.322
53480SOL    HW162337   2.104   7.936   8.232
53480SOL    HW262338   2.026   8.027   8.325
53481SOL     OW62339   5.999   5.298   4.829
53481SOL    HW162340   6.045   5.308   4.745
53481SOL    HW262341   5.909   5.276   4.804
53482SOL     OW62342   7.197   0.498   6.467
53482SOL    HW162343   7.158   0.493   6.380
53482SOL    HW262344   7.139   0.558   6.515
53483SOL     OW62345  14.525  13.935   5.950
53483SOL    HW162346  14.566  13.850   5.966
53483SOL    HW262347  14.442  13.914   5.906
53484SOL     OW62348   6.810  11.293   4.748
53484SOL    HW162349   6.829  11.385   4.761
53484SOL    HW262350   6.883  11.246   4.789
53485SOL     OW62351  12.603  10.354  11.561
53485SOL    HW162352  12.527  10.397  11.522
53485SOL    HW262353  12.573  10.325  11.648
53486SOL     OW62354  11.485  13.353  14.006
53486SOL    HW162355  11.456  13.284  13.946
53486SOL    HW262356  11.421  13.422  13.997
53487SOL     OW62357  12.855  13.503   6.921
53487SOL    HW162358  12.774  13.543   6.952
53487SOL    HW262359  12.904  13.483   7.001
53488SOL     OW62360  10.013   4.637   6.298
53488SOL    HW162361  10.082   4.624   6.234
53488SOL    HW262362   9.942   4.679   6.248
53489SOL     OW62363   3.903  11.760  14.618
53489SOL    HW162364   3.901  11.779  14.712
53489SOL    HW262365   3.845  11.685  14.607
53490SOL     OW62366   9.845   3.334   0.847
53490SOL    HW162367   9.891   3.417   0.838
53490SOL    HW262368   9.830   3.325   0.941
53491SOL     OW62369  13.319  13.192   4.733
53491SOL    HW162370  13.371  13.114   4.753
53491SOL    HW262371  13.243  13.159   4.686
53492SOL     OW62372   6.186  11.945   6.784
53492SOL    HW162373   6.181  11.868   6.842
53492SOL    HW262374   6.174  11.909   6.696
53493SOL     OW62375   4.226  14.179   8.294
53493SOL    HW162376   4.186  14.124   8.227
53493SOL    HW262377   4.160  14.185   8.363
53494SOL     OW62378  10.786   8.852   1.388
53494SOL    HW162379  10.841   8.779   1.416
53494SOL    HW262380  10.787   8.913   1.462
53495SOL     OW62381  11.658  12.555  13.585
53495SOL    HW162382  11.674  12.522  13.673
53495SOL    HW262383  11.571  12.521  13.561
53496SOL     OW62384  14.002   2.879   6.663
53496SOL    HW162385  14.056   2.920   6.595
53496SOL    HW262386  13.948   2.815   6.617
53497SOL     OW62387  12.616   1.070   7.130
53497SOL    HW162388  12.598   1.120   7.050
53497SOL    HW262389  12.550   1.100   7.192
53498SOL     OW62390  14.567   4.187   3.786
53498SOL    HW162391  14.520   4.141   3.717
53498SOL    HW262392  14.624   4.248   3.741
53499SOL     OW62393   3.114  14.313   3.646
53499SOL    HW162394   3.038  14.337   3.593
53499SOL    HW262395   3.081  14.246   3.706
53500SOL     OW62396  10.440   6.282   9.941
53500SOL    HW162397  10.417   6.336  10.017
53500SOL    HW262398  10.417   6.335   9.865
53501SOL     OW62399   2.514  10.179  14.083
53501SOL    HW162400   2.543  10.266  14.054
53501SOL    HW262401   2.443  10.196  14.145
53502SOL     OW62402   8.849   2.781   3.600
53502SOL    HW162403   8.773   2.803   3.654
53502SOL    HW262404   8.811   2.748   3.518
53503SOL     OW62405   0.770   4.544   5.386
53503SOL    HW162406   0.800   4.517   5.473
53503SOL    HW262407   0.676   4.556   5.396
53504SOL     OW62408  12.474  11.092   1.266
53504SOL    HW162409  12.459  11.171   1.318
53504SOL    HW262410  12.510  11.029   1.328
53505SOL     OW62411   4.872   8.590   9.376
53505SOL    HW162412   4.877   8.523   9.308
53505SOL    HW262413   4.827   8.546   9.449
53506SOL     OW62414   3.962   2.950  12.985
53506SOL    HW162415   3.916   2.901  13.053
53506SOL    HW262416   3.893   2.991  12.933
53507SOL     OW62417   1.273   1.806  12.907
53507SOL    HW162418   1.368   1.810  12.901
53507SOL    HW262419   1.255   1.719  12.944
53508SOL     OW62420   1.781  13.071   8.603
53508SOL    HW162421   1.726  13.000   8.638
53508SOL    HW262422   1.864  13.062   8.650
53509SOL     OW62423   4.525  13.152   9.984
53509SOL    HW162424   4.453  13.104   9.944
53509SOL    HW262425   4.562  13.091  10.048
53510SOL     OW62426  11.550  14.064   2.376
53510SOL    HW162427  11.515  14.033   2.459
53510SOL    HW262428  11.595  14.146   2.399
53511SOL     OW62429  11.396   0.307   7.735
53511SOL    HW162430  11.430   0.218   7.727
53511SOL    HW262431  11.471   0.358   7.765
53512SOL     OW62432   4.939  10.531   6.530
53512SOL    HW162433   4.950  10.568   6.443
53512SOL    HW262434   4.857  10.482   6.526
53513SOL     OW62435  11.304  13.810   4.236
53513SOL    HW162436  11.296  13.790   4.330
53513SOL    HW262437  11.385  13.766   4.209
53514SOL     OW62438  13.019   5.746  14.084
53514SOL    HW162439  13.009   5.755  13.989
53514SOL    HW262440  13.104   5.786  14.103
53515SOL     OW62441   9.795   7.155  11.041
53515SOL    HW162442   9.721   7.215  11.056
53515SOL    HW262443   9.872   7.211  11.045
53516SOL     OW62444   1.157   5.930  10.507
53516SOL    HW162445   1.133   6.005  10.561
53516SOL    HW262446   1.083   5.919  10.447
53517SOL     OW62447   4.221   7.386   6.718
53517SOL    HW162448   4.299   7.441   6.726
53517SOL    HW262449   4.230   7.344   6.632
53518SOL     OW62450   8.304   9.974   5.207
53518SOL    HW162451   8.227   9.932   5.170
53518SOL    HW262452   8.374   9.910   5.196
53519SOL     OW62453   6.556  10.580  13.270
53519SOL    HW162454   6.550  10.637  13.194
53519SOL    HW262455   6.499  10.620  13.335
53520SOL     OW62456  13.114   1.827   2.013
53520SOL    HW162457  13.141   1.742   1.979
53520SOL    HW262458  13.170   1.890   1.968
53521SOL     OW62459   6.942   7.335  10.694
53521SOL    HW162460   6.991   7.309  10.615
53521SOL    HW262461   7.009   7.369  10.753
53522SOL     OW62462   5.670  14.508  13.425
53522SOL    HW162463   5.594  14.521  13.369
53522SOL    HW262464   5.684  14.593  13.468
53523SOL     OW62465  14.467   6.346   9.239
53523SOL    HW162466  14.535   6.318   9.177
53523SOL    HW262467  14.384   6.327   9.194
53524SOL     OW62468   5.252  12.976  12.592
53524SOL    HW162469   5.243  13.055  12.539
53524SOL    HW262470   5.319  12.925  12.547
53525SOL     OW62471  11.596  11.586  12.502
53525SOL    HW162472  11.688  11.561  12.502
53525SOL    HW262473  11.553  11.517  12.452
53526SOL     OW62474   1.854   5.438   7.410
53526SOL    HW162475   1.772   5.402   7.377
53526SOL    HW262476   1.847   5.430   7.505
53527SOL     OW62477   0.790   2.638  10.022
53527SOL    HW162478   0.858   2.703  10.041
53527SOL    HW262479   0.836   2.554  10.024
53528SOL     OW62480   7.344  12.597  11.321
53528SOL    HW162481   7.353  12.591  11.416
53528SOL    HW262482   7.286  12.673  11.308
53529SOL     OW62483   1.115   5.943   9.447
53529SOL    HW162484   1.140   5.858   9.484
53529SOL    HW262485   1.028   5.960   9.484
53530SOL     OW62486   3.732   6.303   5.766
53530SOL    HW162487   3.707   6.393   5.748
53530SOL    HW262488   3.819   6.309   5.806
53531SOL     OW62489   9.529   5.462   6.701
53531SOL    HW162490   9.468   5.494   6.768
53531SOL    HW262491   9.523   5.367   6.707
53532SOL     OW62492   6.238   9.904   1.635
53532SOL    HW162493   6.304   9.899   1.705
53532SOL    HW262494   6.255   9.828   1.580
53533SOL     OW62495   6.455   3.057   8.877
53533SOL    HW162496   6.414   3.033   8.960
53533SOL    HW262497   6.386   3.101   8.827
53534SOL     OW62498  13.869   6.743  12.787
53534SOL    HW162499  13.837   6.833  12.789
53534SOL    HW262500  13.917   6.736  12.704
53535SOL     OW62501  13.870  13.430  13.386
53535SOL    HW162502  13.815  13.509  13.390
53535SOL    HW262503  13.900  13.417  13.476
53536SOL     OW62504   8.870   4.810   9.041
53536SOL    HW162505   8.928   4.786   9.114
53536SOL    HW262506   8.783   4.780   9.069
53537SOL     OW62507  10.616   8.040  13.749
53537SOL    HW162508  10.656   8.016  13.666
53537SOL    HW262509  10.530   7.998  13.747
53538SOL     OW62510  14.494   7.119   3.053
53538SOL    HW162511  14.416   7.068   3.074
53538SOL    HW262512  14.465   7.183   2.989
53539SOL     OW62513   6.744  10.559   7.400
53539SOL    HW162514   6.720  10.573   7.309
53539SOL    HW262515   6.837  10.583   7.405
53540SOL     OW62516   3.638   0.950   2.168
53540SOL    HW162517   3.628   1.020   2.232
53540SOL    HW262518   3.698   0.986   2.102
53541SOL     OW62519   6.591   4.803   3.180
53541SOL    HW162520   6.551   4.737   3.236
53541SOL    HW262521   6.519   4.863   3.158
53542SOL     OW62522  14.176   2.892   1.145
53542SOL    HW162523  14.091   2.857   1.118
53542SOL    HW262524  14.179   2.979   1.105
53543SOL     OW62525  13.841  14.792  11.683
53543SOL    HW162526  13.916  14.747  11.644
53543SOL    HW262527  13.782  14.810  11.610
53544SOL     OW62528  10.427   3.099   9.864
53544SOL    HW162529  10.413   3.117   9.956
53544SOL    HW262530  10.430   3.185   9.822
53545SOL     OW62531  13.381   5.568   0.814
53545SOL    HW162532  13.463   5.519   0.805
53545SOL    HW262533  13.370   5.579   0.909
53546SOL     OW62534   8.421   1.467   6.893
53546SOL    HW162535   8.328   1.463   6.872
53546SOL    HW262536   8.459   1.523   6.826
53547SOL     OW62537   5.129  13.801   3.006
53547SOL    HW162538   5.114  13.758   2.922
53547SOL    HW262539   5.222  13.786   3.024
53548SOL     OW62540  11.058   9.103   2.132
53548SOL    HW162541  11.115   9.158   2.186
53548SOL    HW262542  10.997   9.064   2.194
53549SOL     OW62543  12.193   7.756   6.150
53549SOL    HW162544  12.174   7.849   6.165
53549SOL    HW262545  12.274   7.740   6.199
53550SOL     OW62546   7.449  14.566   7.686
53550SOL    HW162547   7.378  14.504   7.704
53550SOL    HW262548   7.513  14.551   7.755
53551SOL     OW62549   1.588   8.800   9.252
53551SOL    HW162550   1.603   8.802   9.346
53551SOL    HW262551   1.550   8.714   9.235
53552SOL     OW62552  11.486   9.002   1.470
53552SOL    HW162553  11.579   8.980   1.465
53552SOL    HW262554  11.440   8.922   1.446
53553SOL     OW62555  11.397   9.120   3.330
53553SOL    HW162556  11.311   9.156   3.310
53553SOL    HW262557  11.453   9.196   3.341
53554SOL     OW62558   2.939   8.612   5.263
53554SOL    HW162559   2.972   8.531   5.226
53554SOL    HW262560   2.870   8.585   5.323
53555SOL     OW62561  14.459   6.372   0.579
53555SOL    HW162562  14.514   6.347   0.504
53555SOL    HW262563  14.503   6.332   0.655
53556SOL     OW62564  10.140  12.299  10.069
53556SOL    HW162565  10.209  12.316  10.132
53556SOL    HW262566  10.104  12.385  10.049
53557SOL     OW62567   5.857  12.981   7.546
53557SOL    HW162568   5.849  13.005   7.639
53557SOL    HW262569   5.790  12.914   7.533
53558SOL     OW62570   1.842  14.735   4.626
53558SOL    HW162571   1.838  14.806   4.689
53558SOL    HW262572   1.761  14.685   4.640
53559SOL     OW62573   8.106   4.774   5.118
53559SOL    HW162574   8.135   4.815   5.036
53559SOL    HW262575   8.043   4.708   5.090
53560SOL     OW62576  12.790  14.628  13.943
53560SOL    HW162577  12.760  14.693  13.880
53560SOL    HW262578  12.851  14.573  13.894
53561SOL     OW62579   6.565  12.271   3.422
53561SOL    HW162580   6.486  12.297   3.375
53561SOL    HW262581   6.635  12.279   3.357
53562SOL     OW62582  14.105   9.024  11.882
53562SOL    HW162583  14.093   8.929  11.875
53562SOL    HW262584  14.025   9.055  11.924
53563SOL     OW62585   7.086   5.873   5.611
53563SOL    HW162586   7.150   5.847   5.678
53563SOL    HW262587   7.138   5.884   5.532
53564SOL     OW62588   0.774  10.672   9.527
53564SOL    HW162589   0.791  10.766   9.534
53564SOL    HW262590   0.841  10.631   9.581
53565SOL     OW62591   7.109   4.610  13.704
53565SOL    HW162592   7.092   4.704  13.694
53565SOL    HW262593   7.143   4.582  13.619
53566SOL     OW62594   0.014   4.603   4.287
53566SOL    HW162595   0.007   4.526   4.344
53566SOL    HW262596   0.090   4.584   4.232
53567SOL     OW62597   0.210  11.473   6.189
53567SOL    HW162598   0.295  11.498   6.154
53567SOL    HW262599   0.230  11.420   6.266
53568SOL     OW62600   9.746   2.523   3.839
53568SOL    HW162601   9.807   2.597   3.836
53568SOL    HW262602   9.742   2.498   3.932
53569SOL     OW62603   1.541   7.944  12.025
53569SOL    HW162604   1.516   7.862  12.068
53569SOL    HW262605   1.539   8.010  12.095
53570SOL     OW62606   6.779   3.122  11.252
53570SOL    HW162607   6.702   3.146  11.305
53570SOL    HW262608   6.766   3.029  11.233
53571SOL     OW62609   4.411  10.938   5.902
53571SOL    HW162610   4.461  11.011   5.866
53571SOL    HW262611   4.323  10.950   5.867
53572SOL     OW62612   8.966   1.209   9.292
53572SOL    HW162613   8.876   1.240   9.301
53572SOL    HW262614   8.957   1.122   9.252
53573SOL     OW62615  10.664  10.218   5.269
53573SOL    HW162616  10.701  10.131   5.267
53573SOL    HW262617  10.676  10.251   5.180
53574SOL     OW62618   2.687  14.622   8.009
53574SOL    HW162619   2.728  14.708   8.012
53574SOL    HW262620   2.760  14.560   8.012
53575SOL     OW62621  14.548   3.012   7.645
53575SOL    HW162622  14.561   3.103   7.672
53575SOL    HW262623  14.535   2.964   7.727
53576SOL     OW62624  10.651   5.880   6.165
53576SOL    HW162625  10.631   5.825   6.090
53576SOL    HW262626  10.745   5.897   6.158
53577SOL     OW62627   2.710   3.047   5.587
53577SOL    HW162628   2.785   3.039   5.529
53577SOL    HW262629   2.639   3.002   5.540
53578SOL     OW62630   9.471  11.625  10.584
53578SOL    HW162631   9.488  11.713  10.618
53578SOL    HW262632   9.542  11.571  10.620
53579SOL     OW62633   7.481   4.074  14.353
53579SOL    HW162634   7.472   4.089  14.448
53579SOL    HW262635   7.478   3.978  14.344
53580SOL     OW62636  12.088  14.501  13.702
53580SOL    HW162637  12.164  14.527  13.753
53580SOL    HW262638  12.030  14.459  13.765
53581SOL     OW62639   3.452  11.755   3.990
53581SOL    HW162640   3.397  11.829   3.965
53581SOL    HW262641   3.403  11.678   3.961
53582SOL     OW62642   1.950   4.135  12.011
53582SOL    HW162643   1.894   4.207  11.982
53582SOL    HW262644   1.908   4.102  12.090
53583SOL     OW62645  13.864   9.611  10.148
53583SOL    HW162646  13.909   9.684  10.191
53583SOL    HW262647  13.822   9.563  10.220
53584SOL     OW62648   0.668   1.712   8.655
53584SOL    HW162649   0.735   1.651   8.685
53584SOL    HW262650   0.658   1.774   8.728
53585SOL     OW62651  14.004   9.325   6.030
53585SOL    HW162652  13.963   9.251   6.074
53585SOL    HW262653  13.931   9.384   6.009
53586SOL     OW62654  11.329   6.532  14.004
53586SOL    HW162655  11.290   6.456  13.962
53586SOL    HW262656  11.282   6.607  13.967
53587SOL     OW62657   1.277   8.283   8.804
53587SOL    HW162658   1.337   8.301   8.876
53587SOL    HW262659   1.249   8.370   8.775
53588SOL     OW62660   4.499   8.921   8.864
53588SOL    HW162661   4.532   8.885   8.782
53588SOL    HW262662   4.404   8.910   8.858
53589SOL     OW62663   7.867   2.120   9.575
53589SOL    HW162664   7.903   2.035   9.601
53589SOL    HW262665   7.849   2.111   9.481
53590SOL     OW62666  11.731   0.045  12.838
53590SOL    HW162667  11.687   0.128  12.855
53590SOL    HW262668  11.789   0.064  12.764
53591SOL     OW62669  13.337   3.543  11.221
53591SOL    HW162670  13.357   3.452  11.198
53591SOL    HW262671  13.401   3.595  11.174
53592SOL     OW62672   7.078  10.960   6.239
53592SOL    HW162673   6.992  10.996   6.263
53592SOL    HW262674   7.124  11.034   6.200
53593SOL     OW62675  12.775   4.173   8.935
53593SOL    HW162676  12.738   4.087   8.954
53593SOL    HW262677  12.834   4.159   8.861
53594SOL     OW62678  12.980   1.460   3.373
53594SOL    HW162679  12.917   1.425   3.436
53594SOL    HW262680  12.973   1.555   3.381
53595SOL     OW62681  10.374   7.499   5.699
53595SOL    HW162682  10.279   7.501   5.688
53595SOL    HW262683  10.390   7.548   5.780
53596SOL     OW62684   8.093   7.204   8.872
53596SOL    HW162685   8.078   7.210   8.777
53596SOL    HW262686   8.174   7.255   8.885
53597SOL     OW62687  13.653   4.320   4.746
53597SOL    HW162688  13.721   4.257   4.723
53597SOL    HW262689  13.574   4.267   4.759
53598SOL     OW62690  10.514   4.001   7.356
53598SOL    HW162691  10.572   4.015   7.282
53598SOL    HW262692  10.572   3.978   7.429
53599SOL     OW62693   5.692   5.280  10.848
53599SOL    HW162694   5.611   5.253  10.805
53599SOL    HW262695   5.730   5.199  10.881
53600SOL     OW62696  10.007   0.885   0.617
53600SOL    HW162697  10.036   0.925   0.535
53600SOL    HW262698   9.913   0.873   0.607
53601SOL     OW62699   9.623   4.990  10.550
53601SOL    HW162700   9.593   4.952  10.632
53601SOL    HW262701   9.667   4.918  10.505
53602SOL     OW62702   0.641   0.036  13.297
53602SOL    HW162703   0.655  14.829  13.334
53602SOL    HW262704   0.598   0.020  13.213
53603SOL     OW62705  11.333   6.391  12.079
53603SOL    HW162706  11.336   6.486  12.087
53603SOL    HW262707  11.319   6.375  11.986
53604SOL     OW62708  13.326   6.955   9.607
53604SOL    HW162709  13.235   6.932   9.626
53604SOL    HW262710  13.360   6.988   9.691
53605SOL     OW62711  14.595   4.779   9.786
53605SOL    HW162712  14.531   4.780   9.858
53605SOL    HW262713  14.542   4.763   9.708
53606SOL     OW62714  10.768   8.333   5.229
53606SOL    HW162715  10.738   8.278   5.301
53606SOL    HW262716  10.768   8.422   5.265
53607SOL     OW62717   3.423   3.971   0.469
53607SOL    HW162718   3.384   3.942   0.551
53607SOL    HW262719   3.375   3.923   0.401
53608SOL     OW62720   6.967   5.814  12.844
53608SOL    HW162721   7.017   5.764  12.780
53608SOL    HW262722   7.025   5.885  12.870
53609SOL     OW62723   8.705   4.789   6.537
53609SOL    HW162724   8.739   4.796   6.627
53609SOL    HW262725   8.743   4.708   6.503
53610SOL     OW62726  10.021   4.712  11.150
53610SOL    HW162727   9.927   4.717  11.166
53610SOL    HW262728  10.061   4.727  11.236
53611SOL     OW62729   5.967   8.436   0.316
53611SOL    HW162730   6.041   8.475   0.269
53611SOL    HW262731   5.910   8.403   0.247
53612SOL     OW62732   4.277   7.722   7.990
53612SOL    HW162733   4.246   7.740   7.901
53612SOL    HW262734   4.214   7.768   8.046
53613SOL     OW62735   6.586   2.081   8.722
53613SOL    HW162736   6.655   2.127   8.770
53613SOL    HW262737   6.623   1.995   8.703
53614SOL     OW62738  13.285   6.108  12.600
53614SOL    HW162739  13.365   6.140  12.559
53614SOL    HW262740  13.268   6.170  12.672
53615SOL     OW62741  11.521   0.051   3.383
53615SOL    HW162742  11.498   0.062   3.475
53615SOL    HW262743  11.528   0.140   3.349
53616SOL     OW62744  12.866  13.416   5.120
53616SOL    HW162745  12.903  13.488   5.069
53616SOL    HW262746  12.797  13.380   5.065
53617SOL     OW62747   4.673   2.240  12.182
53617SOL    HW162748   4.705   2.212  12.267
53617SOL    HW262749   4.597   2.185  12.165
53618SOL     OW62750   2.434   2.080   0.242
53618SOL    HW162751   2.340   2.084   0.259
53618SOL    HW262752   2.445   2.125   0.159
53619SOL     OW62753   1.813   7.042   1.975
53619SOL    HW162754   1.738   7.045   1.915
53619SOL    HW262755   1.874   7.107   1.939
53620SOL     OW62756   4.045   4.548   2.629
53620SOL    HW162757   4.044   4.526   2.536
53620SOL    HW262758   4.002   4.474   2.672
53621SOL     OW62759  14.395   8.608  11.082
53621SOL    HW162760  14.452   8.532  11.098
53621SOL    HW262761  14.438   8.680  11.127
53622SOL     OW62762  13.519   7.963   1.395
53622SOL    HW162763  13.454   7.998   1.456
53622SOL    HW262764  13.550   8.039   1.346
53623SOL     OW62765  14.412   4.713   9.283
53623SOL    HW162766  14.363   4.765   9.219
53623SOL    HW262767  14.456   4.778   9.337
53624SOL     OW62768   9.606   0.983   6.197
53624SOL    HW162769   9.601   1.069   6.154
53624SOL    HW262770   9.619   0.921   6.125
53625SOL     OW62771   4.713   9.240   1.842
53625SOL    HW162772   4.781   9.179   1.812
53625SOL    HW262773   4.639   9.183   1.865
53626SOL     OW62774  14.131   1.051   5.246
53626SOL    HW162775  14.157   1.105   5.320
53626SOL    HW262776  14.210   1.002   5.222
53627SOL     OW62777  11.092   5.531  13.528
53627SOL    HW162778  11.056   5.483  13.602
53627SOL    HW262779  11.016   5.551  13.473
53628SOL     OW62780   9.045   2.261   9.681
53628SOL    HW162781   9.108   2.196   9.714
53628SOL    HW262782   9.099   2.325   9.634
53629SOL     OW62783   7.473   9.476  11.409
53629SOL    HW162784   7.463   9.387  11.375
53629SOL    HW262785   7.548   9.471  11.469
53630SOL     OW62786   7.800   4.786  13.659
53630SOL    HW162787   7.720   4.833  13.636
53630SOL    HW262788   7.775   4.694  13.658
53631SOL     OW62789   5.888  12.210   9.816
53631SOL    HW162790   5.877  12.179   9.906
53631SOL    HW262791   5.942  12.143   9.774
53632SOL     OW62792  10.091   8.136   3.847
53632SOL    HW162793  10.118   8.134   3.939
53632SOL    HW262794  10.049   8.051   3.833
53633SOL     OW62795   7.079   6.800   0.465
53633SOL    HW162796   7.062   6.837   0.378
53633SOL    HW262797   7.174   6.786   0.466
53634SOL     OW62798   8.267   8.647   0.257
53634SOL    HW162799   8.323   8.710   0.210
53634SOL    HW262800   8.216   8.701   0.317
53635SOL     OW62801   1.781  14.187   9.061
53635SOL    HW162802   1.760  14.099   9.029
53635SOL    HW262803   1.701  14.215   9.106
53636SOL     OW62804  11.539   5.477   5.636
53636SOL    HW162805  11.621   5.431   5.654
53636SOL    HW262806  11.545   5.557   5.688
53637SOL     OW62807  13.877   7.847   6.113
53637SOL    HW162808  13.832   7.782   6.060
53637SOL    HW262809  13.955   7.870   6.063
53638SOL     OW62810   3.225   3.255  13.444
53638SOL    HW162811   3.164   3.184  13.424
53638SOL    HW262812   3.218   3.267  13.539
53639SOL     OW62813  14.083   3.857   4.974
53639SOL    HW162814  14.119   3.912   4.904
53639SOL    HW262815  14.018   3.802   4.929
53640SOL     OW62816   3.069   7.258  13.943
53640SOL    HW162817   3.031   7.228  14.025
53640SOL    HW262818   3.139   7.194  13.925
53641SOL     OW62819   5.982   0.299  13.866
53641SOL    HW162820   5.892   0.283  13.838
53641SOL    HW262821   6.019   0.353  13.796
53642SOL     OW62822   9.236   3.262   0.050
53642SOL    HW162823   9.152   3.301   0.026
53642SOL    HW262824   9.213   3.185   0.102
53643SOL     OW62825  13.785   8.850  13.105
53643SOL    HW162826  13.690   8.858  13.108
53643SOL    HW262827  13.814   8.869  13.195
53644SOL     OW62828  11.358  10.341   0.995
53644SOL    HW162829  11.336  10.375   0.909
53644SOL    HW262830  11.341  10.247   0.989
53645SOL     OW62831  10.633   2.774   6.936
53645SOL    HW162832  10.562   2.793   6.997
53645SOL    HW262833  10.700   2.732   6.990
53646SOL     OW62834  14.444   0.375   7.830
53646SOL    HW162835  14.413   0.410   7.913
53646SOL    HW262836  14.365   0.347   7.785
53647SOL     OW62837  13.871  11.596   4.982
53647SOL    HW162838  13.960  11.614   4.952
53647SOL    HW262839  13.866  11.640   5.067
53648SOL     OW62840   7.948   9.713   6.788
53648SOL    HW162841   7.959   9.621   6.811
53648SOL    HW262842   8.037   9.742   6.767
53649SOL     OW62843  14.154   9.551   6.678
53649SOL    HW162844  14.134   9.609   6.605
53649SOL    HW262845  14.247   9.564   6.695
53650SOL     OW62846  13.323  14.611  12.840
53650SOL    HW162847  13.297  14.545  12.775
53650SOL    HW262848  13.248  14.670  12.845
53651SOL     OW62849   3.024   9.150   0.295
53651SOL    HW162850   3.083   9.192   0.358
53651SOL    HW262851   3.026   9.057   0.318
53652SOL     OW62852  11.690   8.084   4.024
53652SOL    HW162853  11.731   8.024   4.086
53652SOL    HW262854  11.764   8.121   3.975
53653SOL     OW62855   3.925   4.648  14.236
53653SOL    HW162856   3.992   4.703  14.196
53653SOL    HW262857   3.971   4.568  14.260
53654SOL     OW62858  13.574   8.471   0.751
53654SOL    HW162859  13.568   8.428   0.836
53654SOL    HW262860  13.484   8.492   0.727
53655SOL     OW62861   4.690   3.742   1.637
53655SOL    HW162862   4.605   3.773   1.605
53655SOL    HW262863   4.729   3.819   1.680
53656SOL     OW62864   9.433  12.033  12.806
53656SOL    HW162865   9.440  12.007  12.898
53656SOL    HW262866   9.366  12.101  12.805
53657SOL     OW62867   8.498   9.710   7.897
53657SOL    HW162868   8.408   9.739   7.881
53657SOL    HW262869   8.513   9.729   7.990
53658SOL     OW62870   6.337  14.346  10.751
53658SOL    HW162871   6.248  14.362  10.719
53658SOL    HW262872   6.387  14.326  10.672
53659SOL     OW62873   9.353   9.526   5.452
53659SOL    HW162874   9.410   9.473   5.397
53659SOL    HW262875   9.384   9.615   5.440
53660SOL     OW62876   5.189   7.234   9.101
53660SOL    HW162877   5.163   7.326   9.090
53660SOL    HW262878   5.206   7.225   9.195
53661SOL     OW62879  13.793   7.919   2.049
53661SOL    HW162880  13.774   7.875   2.132
53661SOL    HW262881  13.717   7.900   1.994
53662SOL     OW62882   7.156  11.655  14.348
53662SOL    HW162883   7.097  11.715  14.302
53662SOL    HW262884   7.196  11.708  14.417
53663SOL     OW62885  10.371   8.471   7.887
53663SOL    HW162886  10.458   8.455   7.923
53663SOL    HW262887  10.314   8.475   7.964
53664SOL     OW62888   8.825  11.734  11.918
53664SOL    HW162889   8.859  11.750  11.830
53664SOL    HW262890   8.773  11.655  11.910
53665SOL     OW62891   4.246   1.183  13.615
53665SOL    HW162892   4.260   1.241  13.689
53665SOL    HW262893   4.167   1.217  13.572
53666SOL     OW62894   6.059  12.256  12.278
53666SOL    HW162895   5.981  12.226  12.231
53666SOL    HW262896   6.034  12.342  12.312
53667SOL     OW62897   4.257   3.750  10.255
53667SOL    HW162898   4.309   3.671  10.272
53667SOL    HW262899   4.186   3.746  10.320
53668SOL     OW62900   6.483  12.399  12.712
53668SOL    HW162901   6.530  12.337  12.656
53668SOL    HW262902   6.413  12.347  12.752
53669SOL     OW62903  10.941   9.756   9.714
53669SOL    HW162904  10.859   9.720   9.680
53669SOL    HW262905  10.933   9.851   9.703
53670SOL     OW62906  14.414   7.615   4.657
53670SOL    HW162907  14.503   7.635   4.626
53670SOL    HW262908  14.357   7.646   4.587
53671SOL     OW62909  14.185   9.153  13.073
53671SOL    HW162910  14.228   9.167  12.988
53671SOL    HW262911  14.150   9.238  13.097
53672SOL     OW62912  13.096   6.884   5.534
53672SOL    HW162913  13.081   6.908   5.626
53672SOL    HW262914  13.163   6.816   5.538
53673SOL     OW62915  12.160   4.840  12.974
53673SOL    HW162916  12.232   4.781  12.995
53673SOL    HW262917  12.201   4.926  12.963
53674SOL     OW62918  14.124   3.447  10.006
53674SOL    HW162919  14.132   3.441   9.911
53674SOL    HW262920  14.213   3.469  10.035
53675SOL     OW62921   0.099   0.136  12.292
53675SOL    HW162922   0.018   0.154  12.340
53675SOL    HW262923   0.084   0.051  12.251
53676SOL     OW62924   5.448  13.809   4.357
53676SOL    HW162925   5.438  13.731   4.411
53676SOL    HW262926   5.460  13.881   4.419
53677SOL     OW62927   6.351  13.107   8.569
53677SOL    HW162928   6.359  13.081   8.660
53677SOL    HW262929   6.364  13.027   8.519
53678SOL     OW62930   8.892   5.187  12.109
53678SOL    HW162931   8.873   5.164  12.200
53678SOL    HW262932   8.806   5.189  12.067
53679SOL     OW62933   6.954   1.572   2.970
53679SOL    HW162934   6.976   1.498   3.027
53679SOL    HW262935   6.871   1.547   2.929
53680SOL     OW62936   2.878   5.943   7.470
53680SOL    HW162937   2.840   5.862   7.505
53680SOL    HW262938   2.911   5.919   7.384
53681SOL     OW62939   9.749  10.264   7.840
53681SOL    HW162940   9.746  10.260   7.936
53681SOL    HW262941   9.739  10.173   7.812
53682SOL     OW62942  12.162   1.085   4.028
53682SOL    HW162943  12.217   1.007   4.020
53682SOL    HW262944  12.183   1.138   3.951
53683SOL     OW62945   4.746   1.309   5.473
53683SOL    HW162946   4.661   1.343   5.501
53683SOL    HW262947   4.783   1.379   5.418
53684SOL     OW62948   5.266  13.786   9.094
53684SOL    HW162949   5.320  13.716   9.128
53684SOL    HW262950   5.226  13.749   9.015
53685SOL     OW62951   6.279   6.683   2.720
53685SOL    HW162952   6.324   6.768   2.713
53685SOL    HW262953   6.325   6.638   2.791
53686SOL     OW62954   8.027   6.273   0.802
53686SOL    HW162955   7.951   6.278   0.745
53686SOL    HW262956   8.032   6.358   0.845
53687SOL     OW62957   4.063  13.754   7.551
53687SOL    HW162958   4.092  13.727   7.639
53687SOL    HW262959   4.143  13.778   7.505
53688SOL     OW62960  14.631   8.989   7.591
53688SOL    HW162961  14.635   8.907   7.641
53688SOL    HW262962  14.722   9.013   7.577
53689SOL     OW62963   3.634   9.848   3.150
53689SOL    HW162964   3.663   9.820   3.236
53689SOL    HW262965   3.539   9.833   3.151
53690SOL     OW62966  14.438   9.977  12.964
53690SOL    HW162967  14.384   9.987  12.886
53690SOL    HW262968  14.488   9.897  12.949
53691SOL     OW62969   4.661   7.368   8.053
53691SOL    HW162970   4.665   7.308   7.979
53691SOL    HW262971   4.644   7.311   8.129
53692SOL     OW62972  12.148   2.516   3.464
53692SOL    HW162973  12.208   2.492   3.535
53692SOL    HW262974  12.060   2.499   3.500
53693SOL     OW62975  11.962   5.844  12.211
53693SOL    HW162976  11.946   5.820  12.119
53693SOL    HW262977  11.879   5.885  12.239
53694SOL     OW62978   6.565   6.397   5.943
53694SOL    HW162979   6.577   6.481   5.900
53694SOL    HW262980   6.593   6.332   5.879
53695SOL     OW62981   9.664  11.387   5.296
53695SOL    HW162982   9.698  11.466   5.255
53695SOL    HW262983   9.571  11.386   5.273
53696SOL     OW62984   3.100   3.724   2.072
53696SOL    HW162985   3.102   3.659   2.142
53696SOL    HW262986   3.154   3.686   2.003
53697SOL     OW62987   1.890   2.234  11.153
53697SOL    HW162988   1.866   2.277  11.071
53697SOL    HW262989   1.890   2.304  11.218
53698SOL     OW62990  10.129  11.470  13.155
53698SOL    HW162991  10.135  11.561  13.183
53698SOL    HW262992  10.061  11.470  13.088
53699SOL     OW62993   5.481  13.395   8.794
53699SOL    HW162994   5.562  13.357   8.758
53699SOL    HW262995   5.453  13.458   8.728
53700SOL     OW62996   1.091   8.328   7.546
53700SOL    HW162997   1.172   8.353   7.590
53700SOL    HW262998   1.047   8.411   7.529
53701SOL     OW62999   7.278  12.792   7.202
53701SOL    HW163000   7.302  12.750   7.285
53701SOL    HW263001   7.275  12.886   7.223
53702SOL     OW63002  14.060  12.402   0.301
53702SOL    HW163003  14.022  12.330   0.352
53702SOL    HW263004  14.015  12.480   0.333
53703SOL     OW63005  13.148   3.594   3.426
53703SOL    HW163006  13.231   3.558   3.397
53703SOL    HW263007  13.163   3.689   3.432
53704SOL     OW63008   0.417  14.648   6.313
53704SOL    HW163009   0.347  14.634   6.250
53704SOL    HW263010   0.377  14.631   6.399
53705SOL     OW63011   1.726   8.839  10.981
53705SOL    HW163012   1.642   8.830  10.936
53705SOL    HW263013   1.788   8.790  10.927
53706SOL     OW63014   9.900  14.216   1.662
53706SOL    HW163015   9.861  14.165   1.734
53706SOL    HW263016   9.993  14.219   1.683
53707SOL     OW63017   9.437  10.549   9.761
53707SOL    HW163018   9.485  10.621   9.802
53707SOL    HW263019   9.472  10.470   9.803
53708SOL     OW63020  10.459   5.992   2.522
53708SOL    HW163021  10.384   5.932   2.514
53708SOL    HW263022  10.528   5.952   2.469
53709SOL     OW63023  13.486  14.104   6.231
53709SOL    HW163024  13.530  14.152   6.300
53709SOL    HW263025  13.473  14.168   6.161
53710SOL     OW63026   1.555   5.143   4.660
53710SOL    HW163027   1.462   5.163   4.670
53710SOL    HW263028   1.568   5.062   4.708
53711SOL     OW63029  13.549   9.524   1.492
53711SOL    HW163030  13.633   9.517   1.446
53711SOL    HW263031  13.545   9.615   1.521
53712SOL     OW63032   3.694   3.183   4.802
53712SOL    HW163033   3.761   3.115   4.794
53712SOL    HW263034   3.744   3.264   4.810
53713SOL     OW63035  10.491   0.526   0.787
53713SOL    HW163036  10.469   0.580   0.712
53713SOL    HW263037  10.443   0.566   0.860
53714SOL     OW63038   6.629  11.760  12.623
53714SOL    HW163039   6.580  11.682  12.597
53714SOL    HW263040   6.574  11.833  12.595
53715SOL     OW63041   5.306   9.957  13.711
53715SOL    HW163042   5.337   9.885  13.655
53715SOL    HW263043   5.257  10.014  13.651
53716SOL     OW63044   3.991   1.886  10.206
53716SOL    HW163045   3.986   1.797  10.172
53716SOL    HW263046   3.900   1.909  10.226
53717SOL     OW63047  11.633  10.082   2.024
53717SOL    HW163048  11.711  10.129   2.052
53717SOL    HW263049  11.599  10.042   2.104
53718SOL     OW63050   8.368  14.078   9.234
53718SOL    HW163051   8.374  14.173   9.229
53718SOL    HW263052   8.306  14.053   9.165
53719SOL     OW63053   2.369  13.996  10.018
53719SOL    HW163054   2.415  14.064  10.067
53719SOL    HW263055   2.279  14.000  10.050
53720SOL     OW63056  10.636  10.297   7.987
53720SOL    HW163057  10.679  10.381   8.000
53720SOL    HW263058  10.668  10.242   8.059
53721SOL     OW63059  12.299  11.608  11.580
53721SOL    HW163060  12.215  11.628  11.620
53721SOL    HW263061  12.340  11.546  11.641
53722SOL     OW63062   4.612   2.834   1.823
53722SOL    HW163063   4.658   2.751   1.818
53722SOL    HW263064   4.622   2.873   1.736
53723SOL     OW63065   2.494  12.497  12.897
53723SOL    HW163066   2.570  12.439  12.886
53723SOL    HW263067   2.473  12.491  12.990
53724SOL     OW63068   4.058   8.931   7.675
53724SOL    HW163069   4.096   8.862   7.729
53724SOL    HW263070   4.133   8.987   7.652
53725SOL     OW63071   8.285  13.641   9.798
53725SOL    HW163072   8.365  13.594   9.773
53725SOL    HW263073   8.302  13.668   9.889
53726SOL     OW63074   1.012   1.913  10.657
53726SOL    HW163075   1.010   2.003  10.623
53726SOL    HW263076   0.989   1.922  10.749
53727SOL     OW63077  14.858   7.747   5.791
53727SOL    HW163078   0.043   7.784   5.850
53727SOL    HW263079   0.024   7.676   5.745
53728SOL     OW63080   0.822   1.224   1.208
53728SOL    HW163081   0.846   1.134   1.187
53728SOL    HW263082   0.730   1.231   1.183
53729SOL     OW63083   0.631   9.604   7.018
53729SOL    HW163084   0.644   9.600   6.924
53729SOL    HW263085   0.686   9.677   7.047
53730SOL     OW63086   6.267   5.192   8.250
53730SOL    HW163087   6.306   5.173   8.164
53730SOL    HW263088   6.310   5.130   8.309
53731SOL     OW63089   7.801  11.833   6.729
53731SOL    HW163090   7.896  11.840   6.730
53731SOL    HW263091   7.779  11.798   6.815
53732SOL     OW63092   9.715   9.497   6.928
53732SOL    HW163093   9.723   9.527   7.018
53732SOL    HW263094   9.700   9.403   6.935
53733SOL     OW63095   3.314   4.862   9.838
53733SOL    HW163096   3.236   4.841   9.787
53733SOL    HW263097   3.294   4.947   9.879
53734SOL     OW63098   1.180   3.018   6.783
53734SOL    HW163099   1.103   2.987   6.735
53734SOL    HW263100   1.246   3.032   6.715
53735SOL     OW63101  12.487  11.220   9.738
53735SOL    HW163102  12.468  11.278   9.812
53735SOL    HW263103  12.472  11.273   9.660
53736SOL     OW63104   2.357   3.463   7.184
53736SOL    HW163105   2.382   3.535   7.242
53736SOL    HW263106   2.385   3.384   7.230
53737SOL     OW63107   0.148   5.395  11.448
53737SOL    HW163108   0.126   5.303  11.462
53737SOL    HW263109   0.158   5.404  11.353
53738SOL     OW63110   1.276  11.783   8.324
53738SOL    HW163111   1.253  11.875   8.317
53738SOL    HW263112   1.229  11.741   8.252
53739SOL     OW63113   4.201   6.767   4.654
53739SOL    HW163114   4.166   6.677   4.652
53739SOL    HW263115   4.149   6.811   4.721
53740SOL     OW63116  13.189  13.653  11.905
53740SOL    HW163117  13.205  13.566  11.867
53740SOL    HW263118  13.228  13.714  11.842
53741SOL     OW63119   5.827   6.862   3.541
53741SOL    HW163120   5.806   6.782   3.492
53741SOL    HW263121   5.911   6.891   3.504
53742SOL     OW63122   6.024  13.710   6.604
53742SOL    HW163123   6.107  13.665   6.614
53742SOL    HW263124   5.965  13.666   6.665
53743SOL     OW63125   9.825   8.433   9.677
53743SOL    HW163126   9.830   8.508   9.617
53743SOL    HW263127   9.737   8.437   9.713
53744SOL     OW63128   5.968   0.681   8.530
53744SOL    HW163129   6.041   0.620   8.521
53744SOL    HW263130   5.926   0.657   8.612
53745SOL     OW63131  10.831   8.138   8.987
53745SOL    HW163132  10.843   8.045   8.965
53745SOL    HW263133  10.830   8.140   9.082
53746SOL     OW63134   8.621   2.433   4.468
53746SOL    HW163135   8.707   2.467   4.446
53746SOL    HW263136   8.632   2.391   4.553
53747SOL     OW63137   9.119   0.951   8.684
53747SOL    HW163138   9.192   0.981   8.630
53747SOL    HW263139   9.159   0.933   8.770
53748SOL     OW63140  13.879  11.413   2.996
53748SOL    HW163141  13.881  11.456   3.082
53748SOL    HW263142  13.847  11.325   3.015
53749SOL     OW63143   5.808  12.384  13.162
53749SOL    HW163144   5.894  12.421  13.139
53749SOL    HW263145   5.801  12.397  13.256
53750SOL     OW63146   6.619   2.632   2.951
53750SOL    HW163147   6.635   2.707   2.893
53750SOL    HW263148   6.583   2.565   2.893
53751SOL     OW63149  11.047  11.886  11.351
53751SOL    HW163150  10.961  11.896  11.310
53751SOL    HW263151  11.075  11.797  11.327
53752SOL     OW63152   6.365   6.265   8.358
53752SOL    HW163153   6.359   6.347   8.407
53752SOL    HW263154   6.433   6.281   8.293
53753SOL     OW63155   5.323   1.303  10.967
53753SOL    HW163156   5.241   1.297  10.918
53753SOL    HW263157   5.336   1.215  11.002
53754SOL     OW63158   9.562   8.629   3.085
53754SOL    HW163159   9.489   8.688   3.063
53754SOL    HW263160   9.554   8.558   3.021
53755SOL     OW63161   0.568  12.114   3.781
53755SOL    HW163162   0.639  12.096   3.719
53755SOL    HW263163   0.565  12.210   3.785
53756SOL     OW63164   8.967  12.776   2.004
53756SOL    HW163165   8.930  12.776   1.916
53756SOL    HW263166   8.909  12.720   2.055
53757SOL     OW63167   8.702   9.487   2.677
53757SOL    HW163168   8.745   9.541   2.744
53757SOL    HW263169   8.613   9.476   2.710
53758SOL     OW63170   2.609   6.622  10.413
53758SOL    HW163171   2.627   6.654  10.325
53758SOL    HW263172   2.553   6.546  10.401
53759SOL     OW63173   8.220   1.187   1.952
53759SOL    HW163174   8.241   1.251   2.020
53759SOL    HW263175   8.300   1.182   1.899
53760SOL     OW63176  11.675   9.432   9.033
53760SOL    HW163177  11.703   9.519   9.004
53760SOL    HW263178  11.594   9.415   8.985
53761SOL     OW63179   9.311   2.643  10.407
53761SOL    HW163180   9.291   2.602  10.323
53761SOL    HW263181   9.368   2.580  10.451
53762SOL     OW63182   8.141  14.374   4.036
53762SOL    HW163183   8.067  14.384   4.096
53762SOL    HW263184   8.188  14.296   4.067
53763SOL     OW63185   5.531  11.053   0.647
53763SOL    HW163186   5.491  10.971   0.676
53763SOL    HW263187   5.457  11.107   0.620
53764SOL     OW63188  12.844   0.527   4.723
53764SOL    HW163189  12.930   0.550   4.689
53764SOL    HW263190  12.840   0.570   4.809
53765SOL     OW63191   3.358   7.688   2.384
53765SOL    HW163192   3.424   7.757   2.395
53765SOL    HW263193   3.281   7.734   2.351
53766SOL     OW63194  14.746   0.900   8.144
53766SOL    HW163195  14.703   0.825   8.101
53766SOL    HW263196  14.832   0.867   8.168
53767SOL     OW63197   8.710   9.974   1.678
53767SOL    HW163198   8.663  10.056   1.694
53767SOL    HW263199   8.761   9.990   1.598
53768SOL     OW63200   7.239   0.271   2.599
53768SOL    HW163201   7.143   0.265   2.602
53768SOL    HW263202   7.257   0.365   2.594
53769SOL     OW63203  11.272   6.448   1.570
53769SOL    HW163204  11.232   6.524   1.528
53769SOL    HW263205  11.284   6.385   1.499
53770SOL     OW63206   1.893   6.664  12.483
53770SOL    HW163207   1.924   6.739  12.433
53770SOL    HW263208   1.940   6.590  12.447
53771SOL     OW63209   9.160  12.933  11.010
53771SOL    HW163210   9.190  13.021  11.034
53771SOL    HW263211   9.132  12.941  10.919
53772SOL     OW63212  11.075   6.933   7.270
53772SOL    HW163213  11.082   7.028   7.278
53772SOL    HW263214  11.140   6.909   7.204
53773SOL     OW63215   5.447   7.193   5.133
53773SOL    HW163216   5.382   7.175   5.200
53773SOL    HW263217   5.398   7.234   5.062
53774SOL     OW63218   0.488  12.659  13.760
53774SOL    HW163219   0.408  12.666  13.709
53774SOL    HW263220   0.481  12.730  13.825
53775SOL     OW63221   7.900   3.848   4.463
53775SOL    HW163222   7.950   3.808   4.392
53775SOL    HW263223   7.809   3.832   4.440
53776SOL     OW63224   2.488   7.750   7.596
53776SOL    HW163225   2.567   7.700   7.617
53776SOL    HW263226   2.423   7.683   7.573
53777SOL     OW63227   8.263  11.122   4.320
53777SOL    HW163228   8.358  11.119   4.312
53777SOL    HW263229   8.244  11.209   4.354
53778SOL     OW63230   8.568   8.350   2.043
53778SOL    HW163231   8.575   8.270   2.095
53778SOL    HW263232   8.524   8.323   1.962
53779SOL     OW63233   7.771   8.183  12.550
53779SOL    HW163234   7.821   8.152  12.474
53779SOL    HW263235   7.730   8.104  12.586
53780SOL     OW63236   2.241   3.778   3.220
53780SOL    HW163237   2.149   3.802   3.232
53780SOL    HW263238   2.290   3.855   3.249
53781SOL     OW63239   2.540  13.482   7.759
53781SOL    HW163240   2.602  13.413   7.735
53781SOL    HW263241   2.591  13.562   7.757
53782SOL     OW63242  10.786  10.339   4.501
53782SOL    HW163243  10.844  10.362   4.574
53782SOL    HW263244  10.839  10.280   4.447
53783SOL     OW63245   8.270   8.272   5.633
53783SOL    HW163246   8.352   8.229   5.659
53783SOL    HW263247   8.250   8.234   5.548
53784SOL     OW63248   3.415  14.487  13.139
53784SOL    HW163249   3.453  14.408  13.178
53784SOL    HW263250   3.321  14.470  13.139
53785SOL     OW63251   9.871   6.025   0.170
53785SOL    HW163252   9.785   6.067   0.172
53785SOL    HW263253   9.926   6.085   0.119
53786SOL     OW63254   1.315  12.312   3.839
53786SOL    HW163255   1.363  12.325   3.921
53786SOL    HW263256   1.227  12.345   3.857
53787SOL     OW63257   1.613  12.235   8.240
53787SOL    HW163258   1.688  12.271   8.287
53787SOL    HW263259   1.644  12.151   8.205
53788SOL     OW63260  14.157   9.145  14.182
53788SOL    HW163261  14.126   9.181  14.266
53788SOL    HW263262  14.098   9.071  14.165
53789SOL     OW63263  13.836  10.729   2.967
53789SOL    HW163264  13.902  10.764   2.907
53789SOL    HW263265  13.882  10.719   3.050
53790SOL     OW63266   2.751   6.434  11.843
53790SOL    HW163267   2.752   6.438  11.939
53790SOL    HW263268   2.835   6.396  11.820
53791SOL     OW63269  14.159  13.421   6.968
53791SOL    HW163270  14.080  13.379   6.933
53791SOL    HW263271  14.158  13.400   7.061
53792SOL     OW63272   6.654   1.935   7.154
53792SOL    HW163273   6.595   1.862   7.136
53792SOL    HW263274   6.741   1.896   7.154
53793SOL     OW63275  14.627   9.483   4.091
53793SOL    HW163276  14.701   9.473   4.032
53793SOL    HW263277  14.649   9.558   4.145
53794SOL     OW63278   9.047  11.226  14.090
53794SOL    HW163279   9.064  11.315  14.119
53794SOL    HW263280   9.051  11.230  13.994
53795SOL     OW63281  12.237  12.578   6.988
53795SOL    HW163282  12.252  12.500   6.935
53795SOL    HW263283  12.300  12.642   6.955
53796SOL     OW63284   7.170  11.451   0.206
53796SOL    HW163285   7.206  11.449   0.294
53796SOL    HW263286   7.240  11.416   0.150
53797SOL     OW63287   4.016  11.931   3.788
53797SOL    HW163288   4.023  12.019   3.825
53797SOL    HW263289   4.062  11.936   3.704
53798SOL     OW63290   4.274  11.861   3.085
53798SOL    HW163291   4.355  11.892   3.127
53798SOL    HW263292   4.304  11.796   3.021
53799SOL     OW63293   7.873   8.783   0.294
53799SOL    HW163294   7.958   8.761   0.334
53799SOL    HW263295   7.815   8.799   0.368
53800SOL     OW63296  10.246  13.018   2.040
53800SOL    HW163297  10.272  13.087   2.101
53800SOL    HW263298  10.222  12.944   2.096
53801SOL     OW63299   2.128   9.832   0.504
53801SOL    HW163300   2.207   9.857   0.552
53801SOL    HW263301   2.150   9.747   0.465
53802SOL     OW63302   5.093  10.111   5.582
53802SOL    HW163303   5.108  10.202   5.609
53802SOL    HW263304   5.001  10.109   5.555
53803SOL     OW63305   9.507   0.915  10.634
53803SOL    HW163306   9.495   0.981  10.702
53803SOL    HW263307   9.561   0.959  10.568
53804SOL     OW63308   5.117   0.419  12.295
53804SOL    HW163309   5.053   0.473  12.247
53804SOL    HW263310   5.100   0.330  12.265
53805SOL     OW63311   6.388  12.839   5.901
53805SOL    HW163312   6.480  12.834   5.928
53805SOL    HW263313   6.344  12.878   5.977
53806SOL     OW63314   8.910   4.854   1.741
53806SOL    HW163315   8.898   4.827   1.832
53806SOL    HW263316   8.822   4.876   1.711
53807SOL     OW63317   9.811   3.270   2.143
53807SOL    HW163318   9.820   3.221   2.225
53807SOL    HW263319   9.884   3.239   2.089
53808SOL     OW63320  13.328   4.032   0.758
53808SOL    HW163321  13.386   4.108   0.750
53808SOL    HW263322  13.361   3.969   0.694
53809SOL     OW63323   0.503   8.760  10.939
53809SOL    HW163324   0.421   8.783  10.983
53809SOL    HW263325   0.566   8.749  11.010
53810SOL     OW63326   8.777   3.622   0.322
53810SOL    HW163327   8.837   3.555   0.352
53810SOL    HW263328   8.825   3.704   0.334
53811SOL     OW63329   0.089   8.322   2.836
53811SOL    HW163330   0.134   8.313   2.920
53811SOL    HW263331  14.878   8.339   2.860
53812SOL     OW63332   8.549   9.485   0.029
53812SOL    HW163333   8.518   9.434  14.833
53812SOL    HW263334   8.593   9.421   0.084
53813SOL     OW63335   0.168   1.318   8.476
53813SOL    HW163336   0.102   1.319   8.545
53813SOL    HW263337   0.206   1.405   8.477
53814SOL     OW63338   6.963  11.634   3.977
53814SOL    HW163339   6.933  11.703   3.918
53814SOL    HW263340   6.887  11.578   3.990
53815SOL     OW63341  14.371   6.634   6.010
53815SOL    HW163342  14.446   6.664   5.957
53815SOL    HW263343  14.391   6.542   6.028
53816SOL     OW63344   1.768  11.547   5.232
53816SOL    HW163345   1.856  11.557   5.269
53816SOL    HW263346   1.777  11.578   5.141
53817SOL     OW63347  11.913   7.627   0.523
53817SOL    HW163348  11.841   7.653   0.580
53817SOL    HW263349  11.913   7.532   0.525
53818SOL     OW63350   0.673   1.839   0.638
53818SOL    HW163351   0.766   1.845   0.660
53818SOL    HW263352   0.630   1.903   0.694
53819SOL     OW63353   4.395  12.635  14.871
53819SOL    HW163354   4.440  12.550  14.875
53819SOL    HW263355   4.302  12.612  14.862
53820SOL     OW63356   6.977   8.362   7.330
53820SOL    HW163357   7.027   8.298   7.280
53820SOL    HW263358   7.043   8.414   7.375
53821SOL     OW63359  13.301  11.635   9.889
53821SOL    HW163360  13.284  11.719   9.845
53821SOL    HW263361  13.337  11.659   9.974
53822SOL     OW63362  13.980  12.397   3.706
53822SOL    HW163363  13.988  12.426   3.797
53822SOL    HW263364  13.886  12.400   3.687
53823SOL     OW63365  11.379  10.311  10.773
53823SOL    HW163366  11.348  10.229  10.734
53823SOL    HW263367  11.434  10.283  10.846
53824SOL     OW63368   1.387  10.580   8.682
53824SOL    HW163369   1.422  10.593   8.593
53824SOL    HW263370   1.457  10.534   8.728
53825SOL     OW63371   8.812   7.781  11.520
53825SOL    HW163372   8.893   7.822  11.490
53825SOL    HW263373   8.835   7.689  11.533
53826SOL     OW63374   5.059   5.162   1.113
53826SOL    HW163375   4.969   5.132   1.098
53826SOL    HW263376   5.088   5.193   1.028
53827SOL     OW63377   9.414   7.326   0.412
53827SOL    HW163378   9.363   7.330   0.493
53827SOL    HW263379   9.362   7.376   0.349
53828SOL     OW63380   2.509   8.022  11.558
53828SOL    HW163381   2.415   8.022  11.537
53828SOL    HW263382   2.548   7.964  11.492
53829SOL     OW63383   6.085   8.282   2.002
53829SOL    HW163384   6.028   8.353   2.034
53829SOL    HW263385   6.151   8.271   2.070
53830SOL     OW63386   1.495   0.295  10.437
53830SOL    HW163387   1.401   0.312  10.441
53830SOL    HW263388   1.535   0.379  10.460
53831SOL     OW63389   4.163   2.728   5.579
53831SOL    HW163390   4.137   2.674   5.504
53831SOL    HW263391   4.083   2.737   5.630
53832SOL     OW63392  12.620  14.743  11.469
53832SOL    HW163393  12.565  14.666  11.483
53832SOL    HW263394  12.578  14.789  11.396
53833SOL     OW63395   8.861   6.159   0.930
53833SOL    HW163396   8.882   6.066   0.941
53833SOL    HW263397   8.875   6.197   1.016
53834SOL     OW63398   2.388   8.633  11.090
53834SOL    HW163399   2.459   8.696  11.105
53834SOL    HW263400   2.326   8.679  11.034
53835SOL     OW63401  10.896   2.713   0.697
53835SOL    HW163402  10.929   2.649   0.635
53835SOL    HW263403  10.959   2.712   0.769
53836SOL     OW63404   3.796   8.563   1.248
53836SOL    HW163405   3.830   8.653   1.240
53836SOL    HW263406   3.874   8.509   1.255
53837SOL     OW63407   9.622   0.129  13.419
53837SOL    HW163408   9.661   0.140  13.506
53837SOL    HW263409   9.538   0.175  13.425
53838SOL     OW63410   4.061   9.035   5.688
53838SOL    HW163411   4.049   8.976   5.613
53838SOL    HW263412   3.978   9.030   5.735
53839SOL     OW63413   0.532   2.519   8.365
53839SOL    HW163414   0.483   2.438   8.381
53839SOL    HW263415   0.465   2.584   8.345
53840SOL     OW63416   1.249   9.630   9.273
53840SOL    HW163417   1.333   9.652   9.314
53840SOL    HW263418   1.207   9.714   9.256
53841SOL     OW63419   0.760   5.231  13.302
53841SOL    HW163420   0.842   5.273  13.275
53841SOL    HW263421   0.736   5.275  13.383
53842SOL     OW63422   6.834   9.381   6.447
53842SOL    HW163423   6.777   9.458   6.441
53842SOL    HW263424   6.866   9.382   6.537
53843SOL     OW63425  13.110   7.304   1.110
53843SOL    HW163426  13.035   7.261   1.070
53843SOL    HW263427  13.149   7.355   1.040
53844SOL     OW63428   8.943  14.618   7.590
53844SOL    HW163429   9.000  14.591   7.518
53844SOL    HW263430   8.861  14.571   7.575
53845SOL     OW63431  14.038   1.966   1.401
53845SOL    HW163432  13.958   1.941   1.355
53845SOL    HW263433  14.045   2.060   1.388
53846SOL     OW63434   4.409   9.926   8.255
53846SOL    HW163435   4.391  10.019   8.270
53846SOL    HW263436   4.474   9.925   8.185
53847SOL     OW63437   5.954  11.436   7.827
53847SOL    HW163438   5.873  11.384   7.827
53847SOL    HW263439   5.955  11.479   7.912
53848SOL     OW63440  12.738   8.539   3.069
53848SOL    HW163441  12.806   8.480   3.037
53848SOL    HW263442  12.684   8.557   2.991
53849SOL     OW63443  13.725   5.635   6.143
53849SOL    HW163444  13.760   5.697   6.079
53849SOL    HW263445  13.793   5.630   6.211
53850SOL     OW63446  12.957  10.991  14.099
53850SOL    HW163447  12.895  10.992  14.172
53850SOL    HW263448  13.014  10.916  14.117
53851SOL     OW63449   8.388   1.938   4.439
53851SOL    HW163450   8.455   1.920   4.373
53851SOL    HW263451   8.327   1.998   4.396
53852SOL     OW63452   6.258   1.480   8.327
53852SOL    HW163453   6.190   1.436   8.377
53852SOL    HW263454   6.248   1.573   8.349
53853SOL     OW63455   9.545  13.353   1.718
53853SOL    HW163456   9.514  13.262   1.715
53853SOL    HW263457   9.544  13.375   1.811
53854SOL     OW63458   1.447  12.898   6.340
53854SOL    HW163459   1.371  12.841   6.356
53854SOL    HW263460   1.487  12.910   6.426
53855SOL     OW63461  10.077   6.285   5.132
53855SOL    HW163462  10.045   6.322   5.215
53855SOL    HW263463  10.147   6.225   5.158
53856SOL     OW63464   1.154   3.698   0.278
53856SOL    HW163465   1.126   3.679   0.189
53856SOL    HW263466   1.234   3.646   0.289
53857SOL     OW63467   8.325   9.378   6.369
53857SOL    HW163468   8.262   9.407   6.435
53857SOL    HW263469   8.329   9.283   6.380
53858SOL     OW63470   7.785   7.268   8.658
53858SOL    HW163471   7.812   7.313   8.579
53858SOL    HW263472   7.800   7.175   8.639
53859SOL     OW63473  13.668   7.796  14.311
53859SOL    HW163474  13.731   7.868  14.301
53859SOL    HW263475  13.583   7.839  14.313
53860SOL     OW63476   0.616   6.187  13.182
53860SOL    HW163477   0.704   6.223  13.192
53860SOL    HW263478   0.630   6.097  13.153
53861SOL     OW63479   3.370   5.981  14.521
53861SOL    HW163480   3.382   6.053  14.583
53861SOL    HW263481   3.446   5.924  14.534
53862SOL     OW63482  12.870   1.675   0.604
53862SOL    HW163483  12.958   1.695   0.635
53862SOL    HW263484  12.863   1.579   0.611
53863SOL     OW63485  14.145   5.900  13.548
53863SOL    HW163486  14.222   5.920  13.602
53863SOL    HW263487  14.172   5.922  13.459
53864SOL     OW63488   8.756   2.561   9.496
53864SOL    HW163489   8.711   2.591   9.417
53864SOL    HW263490   8.687   2.525   9.551
53865SOL     OW63491  13.247   7.546   7.111
53865SOL    HW163492  13.262   7.482   7.181
53865SOL    HW263493  13.188   7.610   7.150
53866SOL     OW63494   5.567  10.541   4.149
53866SOL    HW163495   5.537  10.459   4.110
53866SOL    HW263496   5.661  10.529   4.160
53867SOL     OW63497  13.045   4.341   9.191
53867SOL    HW163498  13.078   4.430   9.207
53867SOL    HW263499  13.072   4.322   9.101
53868SOL     OW63500  10.525   6.854  14.327
53868SOL    HW163501  10.605   6.876  14.280
53868SOL    HW263502  10.523   6.914  14.401
53869SOL     OW63503   9.184  11.463  13.298
53869SOL    HW163504   9.112  11.518  13.331
53869SOL    HW263505   9.238  11.445  13.375
53870SOL     OW63506   7.797   5.448   4.473
53870SOL    HW163507   7.706   5.439   4.500
53870SOL    HW263508   7.812   5.542   4.468
53871SOL     OW63509  11.417   0.211   9.696
53871SOL    HW163510  11.352   0.266   9.740
53871SOL    HW263511  11.455   0.268   9.629
53872SOL     OW63512   2.063  12.620  13.540
53872SOL    HW163513   2.018  12.685  13.594
53872SOL    HW263514   2.092  12.553  13.602
53873SOL     OW63515   7.391   6.445  11.526
53873SOL    HW163516   7.311   6.448  11.473
53873SOL    HW263517   7.401   6.534  11.560
53874SOL     OW63518  13.700   6.287   2.694
53874SOL    HW163519  13.686   6.349   2.766
53874SOL    HW263520  13.623   6.299   2.637
53875SOL     OW63521   7.816   9.391   9.803
53875SOL    HW163522   7.740   9.440   9.770
53875SOL    HW263523   7.778   9.323   9.858
53876SOL     OW63524   6.511   0.681  10.762
53876SOL    HW163525   6.522   0.661  10.670
53876SOL    HW263526   6.487   0.774  10.764
53877SOL     OW63527   0.376  12.312   8.100
53877SOL    HW163528   0.411  12.356   8.023
53877SOL    HW263529   0.400  12.369   8.173
53878SOL     OW63530   9.401   7.468  14.255
53878SOL    HW163531   9.463   7.483  14.326
53878SOL    HW263532   9.328   7.527  14.274
53879SOL     OW63533  12.773   1.471   1.432
53879SOL    HW163534  12.776   1.563   1.461
53879SOL    HW263535  12.848   1.431   1.475
53880SOL     OW63536  13.527   5.536   5.827
53880SOL    HW163537  13.589   5.490   5.770
53880SOL    HW263538  13.524   5.484   5.907
53881SOL     OW63539   8.094  14.229  11.822
53881SOL    HW163540   8.142  14.262  11.898
53881SOL    HW263541   8.134  14.144  11.804
53882SOL     OW63542   7.931   2.618  10.756
53882SOL    HW163543   7.966   2.609  10.667
53882SOL    HW263544   7.907   2.530  10.782
53883SOL     OW63545   7.357   8.563   4.408
53883SOL    HW163546   7.374   8.504   4.481
53883SOL    HW263547   7.354   8.506   4.331
53884SOL     OW63548   4.916   0.081  12.591
53884SOL    HW163549   4.870   0.044  12.515
53884SOL    HW263550   4.976   0.012  12.619
53885SOL     OW63551  12.945   0.034   6.849
53885SOL    HW163552  13.017   0.094   6.870
53885SOL    HW263553  12.972  14.831   6.888
53886SOL     OW63554   2.779  11.573   6.284
53886SOL    HW163555   2.869  11.582   6.252
53886SOL    HW263556   2.789  11.566   6.379
53887SOL     OW63557   1.136   2.098   4.280
53887SOL    HW163558   1.172   2.047   4.208
53887SOL    HW263559   1.197   2.084   4.352
53888SOL     OW63560  11.298  14.596  11.668
53888SOL    HW163561  11.389  14.566  11.668
53888SOL    HW263562  11.290  14.649  11.589
53889SOL     OW63563  11.289   4.970  10.183
53889SOL    HW163564  11.292   4.879  10.152
53889SOL    HW263565  11.208   5.005  10.147
53890SOL     OW63566   1.302  11.024   8.914
53890SOL    HW163567   1.314  11.089   8.983
53890SOL    HW263568   1.321  11.072   8.833
53891SOL     OW63569   1.185   6.889  10.120
53891SOL    HW163570   1.121   6.959  10.114
53891SOL    HW263571   1.268   6.931  10.096
53892SOL     OW63572   3.818   8.352  12.518
53892SOL    HW163573   3.785   8.419  12.578
53892SOL    HW263574   3.892   8.313  12.564
53893SOL     OW63575  12.000  12.299   4.694
53893SOL    HW163576  11.939  12.372   4.702
53893SOL    HW263577  11.987  12.248   4.774
53894SOL     OW63578  13.038  12.004  12.915
53894SOL    HW163579  13.029  11.944  12.840
53894SOL    HW263580  13.132  12.012  12.929
53895SOL     OW63581   4.132  11.558   4.921
53895SOL    HW163582   4.166  11.572   5.010
53895SOL    HW263583   4.072  11.632   4.907
53896SOL     OW63584  12.122   5.890  10.244
53896SOL    HW163585  12.058   5.885  10.316
53896SOL    HW263586  12.095   5.967  10.194
53897SOL     OW63587   9.240   6.769  12.142
53897SOL    HW163588   9.235   6.822  12.221
53897SOL    HW263589   9.209   6.827  12.072
53898SOL     OW63590   8.924   6.029   2.640
53898SOL    HW163591   8.872   6.024   2.720
53898SOL    HW263592   8.976   5.948   2.639
53899SOL     OW63593   3.784   4.189  10.687
53899SOL    HW163594   3.844   4.231  10.748
53899SOL    HW263595   3.766   4.255  10.620
53900SOL     OW63596   6.610   2.205   9.446
53900SOL    HW163597   6.573   2.134   9.394
53900SOL    HW263598   6.666   2.253   9.385
53901SOL     OW63599   1.685   9.529   7.178
53901SOL    HW163600   1.657   9.508   7.089
53901SOL    HW263601   1.735   9.610   7.169
53902SOL     OW63602  11.686   1.548   9.542
53902SOL    HW163603  11.713   1.595   9.464
53902SOL    HW263604  11.756   1.564   9.606
53903SOL     OW63605   3.204   9.275   0.910
53903SOL    HW163606   3.289   9.252   0.947
53903SOL    HW263607   3.204   9.233   0.823
53904SOL     OW63608   5.540   7.007   8.025
53904SOL    HW163609   5.581   6.960   8.097
53904SOL    HW263610   5.613   7.042   7.974
53905SOL     OW63611   4.119   3.877   9.063
53905SOL    HW163612   4.106   3.867   8.969
53905SOL    HW263613   4.208   3.845   9.078
53906SOL     OW63614   5.379   9.524   4.953
53906SOL    HW163615   5.396   9.446   4.901
53906SOL    HW263616   5.374   9.492   5.043
53907SOL     OW63617   2.687  12.363  13.365
53907SOL    HW163618   2.757  12.384  13.428
53907SOL    HW263619   2.654  12.278  13.394
53908SOL     OW63620  12.350   7.254  10.683
53908SOL    HW163621  12.375   7.306  10.606
53908SOL    HW263622  12.305   7.178  10.647
53909SOL     OW63623   3.026  14.267   7.484
53909SOL    HW163624   3.061  14.193   7.534
53909SOL    HW263625   3.009  14.232   7.397
53910SOL     OW63626   3.881   3.213   3.045
53910SOL    HW163627   3.821   3.142   3.020
53910SOL    HW263628   3.918   3.243   2.962
53911SOL     OW63629  13.620   8.153   6.545
53911SOL    HW163630  13.552   8.138   6.480
53911SOL    HW263631  13.572   8.171   6.626
53912SOL     OW63632   9.552  12.901   4.757
53912SOL    HW163633   9.626  12.847   4.786
53912SOL    HW263634   9.474  12.851   4.783
53913SOL     OW63635  13.351  14.845   9.908
53913SOL    HW163636  13.346  14.829  10.002
53913SOL    HW263637  13.323  14.762   9.869
53914SOL     OW63638   2.762   9.520  14.499
53914SOL    HW163639   2.823   9.461  14.543
53914SOL    HW263640   2.731   9.578  14.568
53915SOL     OW63641  13.961   9.483  11.727
53915SOL    HW163642  14.041   9.491  11.675
53915SOL    HW263643  13.987   9.511  11.815
53916SOL     OW63644   8.413  13.894   4.188
53916SOL    HW163645   8.382  13.813   4.229
53916SOL    HW263646   8.466  13.936   4.257
53917SOL     OW63647  13.498  14.002   8.436
53917SOL    HW163648  13.420  13.984   8.384
53917SOL    HW263649  13.466  14.056   8.509
53918SOL     OW63650  13.039   0.251   1.470
53918SOL    HW163651  12.974   0.263   1.401
53918SOL    HW263652  13.008   0.308   1.541
53919SOL     OW63653   5.235  10.464   5.980
53919SOL    HW163654   5.299  10.406   6.022
53919SOL    HW263655   5.289  10.527   5.931
53920SOL     OW63656  11.350   6.636  12.700
53920SOL    HW163657  11.437   6.676  12.688
53920SOL    HW263658  11.368   6.552  12.742
53921SOL     OW63659   0.766   5.715  12.367
53921SOL    HW163660   0.700   5.673  12.312
53921SOL    HW263661   0.848   5.675  12.340
53922SOL     OW63662   8.754  12.015  13.221
53922SOL    HW163663   8.681  12.037  13.163
53922SOL    HW263664   8.724  11.938  13.269
53923SOL     OW63665   4.000  10.622   3.951
53923SOL    HW163666   3.964  10.624   4.039
53923SOL    HW263667   4.091  10.593   3.962
53924SOL     OW63668   6.172   1.683  10.210
53924SOL    HW163669   6.250   1.631  10.227
53924SOL    HW263670   6.137   1.650  10.128
53925SOL     OW63671   3.811   8.926   6.608
53925SOL    HW163672   3.754   8.932   6.684
53925SOL    HW263673   3.751   8.927   6.533
53926SOL     OW63674   2.754  14.677   1.345
53926SOL    HW163675   2.802  14.686   1.263
53926SOL    HW263676   2.720  14.765   1.363
53927SOL     OW63677   8.972   1.647   8.007
53927SOL    HW163678   9.027   1.695   7.945
53927SOL    HW263679   9.033   1.614   8.073
53928SOL     OW63680   5.970   9.656   3.284
53928SOL    HW163681   6.003   9.668   3.373
53928SOL    HW263682   6.025   9.587   3.247
53929SOL     OW63683   3.221   3.169   2.150
53929SOL    HW163684   3.291   3.150   2.212
53929SOL    HW263685   3.194   3.083   2.117
53930SOL     OW63686   7.985   3.091   1.025
53930SOL    HW163687   8.014   3.008   0.988
53930SOL    HW263688   7.939   3.135   0.953
53931SOL     OW63689   1.052  10.403  13.917
53931SOL    HW163690   0.979  10.444  13.870
53931SOL    HW263691   1.107  10.367  13.847
53932SOL     OW63692   4.600  11.428   4.303
53932SOL    HW163693   4.545  11.415   4.226
53932SOL    HW263694   4.688  11.438   4.268
53933SOL     OW63695   7.929  13.685   3.709
53933SOL    HW163696   7.856  13.626   3.730
53933SOL    HW263697   8.000  13.627   3.681
53934SOL     OW63698  11.225   4.902   4.841
53934SOL    HW163699  11.165   4.966   4.878
53934SOL    HW263700  11.294   4.893   4.907
53935SOL     OW63701   8.791   0.616   1.602
53935SOL    HW163702   8.700   0.623   1.632
53935SOL    HW263703   8.790   0.541   1.542
53936SOL     OW63704   3.553   1.469   3.919
53936SOL    HW163705   3.477   1.524   3.897
53936SOL    HW263706   3.557   1.471   4.014
53937SOL     OW63707  12.748  10.212  10.985
53937SOL    HW163708  12.733  10.133  10.934
53937SOL    HW263709  12.824  10.192  11.039
53938SOL     OW63710  11.284   0.559  10.145
53938SOL    HW163711  11.330   0.587  10.065
53938SOL    HW263712  11.236   0.636  10.174
53939SOL     OW63713   2.198  11.983   5.047
53939SOL    HW163714   2.286  12.021   5.052
53939SOL    HW263715   2.184  11.967   4.954
53940SOL     OW63716   6.269   7.620   0.455
53940SOL    HW163717   6.229   7.558   0.393
53940SOL    HW263718   6.332   7.669   0.402
53941SOL     OW63719   3.919  13.718  10.596
53941SOL    HW163720   3.916  13.812  10.615
53941SOL    HW263721   3.879  13.710  10.510
53942SOL     OW63722  11.261   8.989   5.774
53942SOL    HW163723  11.211   8.994   5.693
53942SOL    HW263724  11.349   8.965   5.747
53943SOL     OW63725   6.134   6.677   3.324
53943SOL    HW163726   6.041   6.683   3.305
53943SOL    HW263727   6.176   6.666   3.238
53944SOL     OW63728  13.796   0.802   0.426
53944SOL    HW163729  13.886   0.796   0.458
53944SOL    HW263730  13.786   0.726   0.369
53945SOL     OW63731   3.773   9.446   5.699
53945SOL    HW163732   3.808   9.488   5.777
53945SOL    HW263733   3.838   9.380   5.676
53946SOL     OW63734   6.841  12.226   3.864
53946SOL    HW163735   6.885  12.143   3.847
53946SOL    HW263736   6.819  12.223   3.957
53947SOL     OW63737  12.696  11.388   1.005
53947SOL    HW163738  12.637  11.450   1.048
53947SOL    HW263739  12.638  11.332   0.953
53948SOL     OW63740   0.627   3.257  11.606
53948SOL    HW163741   0.611   3.189  11.542
53948SOL    HW263742   0.618   3.339  11.557
53949SOL     OW63743   2.286   9.906  14.868
53949SOL    HW163744   2.319   9.930   0.075
53949SOL    HW263745   2.291   9.811  14.866
53950SOL     OW63746   2.901   8.527   2.020
53950SOL    HW163747   2.852   8.447   2.042
53950SOL    HW263748   2.845   8.599   2.049
53951SOL     OW63749   8.390   4.087   3.443
53951SOL    HW163750   8.394   4.071   3.349
53951SOL    HW263751   8.446   4.163   3.457
53952SOL     OW63752  13.922   2.008   9.535
53952SOL    HW163753  13.940   1.948   9.608
53952SOL    HW263754  13.886   1.952   9.467
53953SOL     OW63755   3.368   8.649   5.625
53953SOL    HW163756   3.337   8.699   5.701
53953SOL    HW263757   3.451   8.690   5.602
53954SOL     OW63758   7.708   7.427   0.529
53954SOL    HW163759   7.618   7.401   0.510
53954SOL    HW263760   7.724   7.502   0.471
53955SOL     OW63761   2.175   9.083   2.138
53955SOL    HW163762   2.211   9.112   2.054
53955SOL    HW263763   2.252   9.060   2.190
53956SOL     OW63764   4.804   6.589   5.071
53956SOL    HW163765   4.837   6.500   5.082
53956SOL    HW263766   4.879   6.638   5.039
53957SOL     OW63767   4.006  12.767  13.639
53957SOL    HW163768   4.061  12.746  13.563
53957SOL    HW263769   3.939  12.826  13.605
53958SOL     OW63770  12.339   7.753   1.758
53958SOL    HW163771  12.277   7.814   1.718
53958SOL    HW263772  12.424   7.776   1.720
53959SOL     OW63773   7.709  13.801  12.420
53959SOL    HW163774   7.732  13.884  12.377
53959SOL    HW263775   7.647  13.825  12.488
53960SOL     OW63776  11.561  12.412   1.412
53960SOL    HW163777  11.609  12.379   1.337
53960SOL    HW263778  11.535  12.335   1.461
53961SOL     OW63779   7.726   4.827  10.301
53961SOL    HW163780   7.804   4.883  10.299
53961SOL    HW263781   7.732   4.774  10.222
53962SOL     OW63782  11.291   9.668   2.157
53962SOL    HW163783  11.252   9.617   2.087
53962SOL    HW263784  11.216   9.698   2.210
53963SOL     OW63785  12.130  13.903  10.088
53963SOL    HW163786  12.202  13.918  10.027
53963SOL    HW263787  12.170  13.900  10.174
53964SOL     OW63788   8.778  13.076  13.214
53964SOL    HW163789   8.724  13.001  13.190
53964SOL    HW263790   8.716  13.143  13.241
53965SOL     OW63791  10.462  14.069   1.075
53965SOL    HW163792  10.541  14.088   1.125
53965SOL    HW263793  10.427  14.156   1.052
53966SOL     OW63794   1.677  11.827   6.957
53966SOL    HW163795   1.645  11.873   7.034
53966SOL    HW263796   1.721  11.894   6.905
53967SOL     OW63797  12.630   9.856  12.156
53967SOL    HW163798  12.573   9.796  12.204
53967SOL    HW263799  12.585   9.871  12.073
53968SOL     OW63800   5.035   2.489   4.213
53968SOL    HW163801   5.120   2.449   4.198
53968SOL    HW263802   4.972   2.422   4.186
53969SOL     OW63803   5.944   5.899   9.797
53969SOL    HW163804   5.907   5.881   9.883
53969SOL    HW263805   5.922   5.822   9.745
53970SOL     OW63806  14.622  14.250   6.919
53970SOL    HW163807  14.612  14.340   6.889
53970SOL    HW263808  14.545  14.204   6.885
53971SOL     OW63809  12.113  11.423  12.614
53971SOL    HW163810  12.118  11.441  12.708
53971SOL    HW263811  12.175  11.484  12.575
53972SOL     OW63812   8.942   2.980   8.842
53972SOL    HW163813   8.853   3.010   8.820
53972SOL    HW263814   8.999   3.049   8.808
53973SOL     OW63815  13.104   7.466  12.555
53973SOL    HW163816  13.056   7.387  12.530
53973SOL    HW263817  13.160   7.438  12.627
53974SOL     OW63818  11.330   2.650   7.977
53974SOL    HW163819  11.339   2.744   7.959
53974SOL    HW263820  11.316   2.645   8.072
53975SOL     OW63821   3.244  11.907   3.889
53975SOL    HW163822   3.204  11.825   3.917
53975SOL    HW263823   3.233  11.907   3.794
53976SOL     OW63824  11.176   8.991   7.048
53976SOL    HW163825  11.208   9.077   7.022
53976SOL    HW263826  11.224   8.971   7.129
53977SOL     OW63827   0.906   9.297   8.940
53977SOL    HW163828   0.942   9.305   9.028
53977SOL    HW263829   0.978   9.265   8.887
53978SOL     OW63830  11.269   9.429   5.287
53978SOL    HW163831  11.289   9.338   5.267
53978SOL    HW263832  11.296   9.440   5.378
53979SOL     OW63833   2.040  13.349  14.355
53979SOL    HW163834   1.944  13.343  14.363
53979SOL    HW263835   2.069  13.377  14.442
53980SOL     OW63836   3.313   0.605   1.508
53980SOL    HW163837   3.286   0.625   1.418
53980SOL    HW263838   3.259   0.530   1.533
53981SOL     OW63839   4.327   0.190   1.918
53981SOL    HW163840   4.287   0.212   1.834
53981SOL    HW263841   4.421   0.186   1.899
53982SOL     OW63842   2.973  12.820   8.338
53982SOL    HW163843   2.985  12.815   8.433
53982SOL    HW263844   2.967  12.914   8.320
53983SOL     OW63845  14.581  13.219  13.008
53983SOL    HW163846  14.519  13.258  13.070
53983SOL    HW263847  14.525  13.178  12.941
53984SOL     OW63848   4.205  13.139   3.607
53984SOL    HW163849   4.179  13.093   3.687
53984SOL    HW263850   4.193  13.232   3.628
53985SOL     OW63851   0.620  11.355   0.846
53985SOL    HW163852   0.542  11.301   0.860
53985SOL    HW263853   0.693  11.298   0.867
53986SOL     OW63854  10.175   4.747  11.361
53986SOL    HW163855  10.229   4.720  11.286
53986SOL    HW263856  10.236   4.792  11.419
53987SOL     OW63857   1.293  12.749   7.539
53987SOL    HW163858   1.338  12.718   7.461
53987SOL    HW263859   1.309  12.681   7.604
53988SOL     OW63860   5.485  10.061   5.487
53988SOL    HW163861   5.550  10.047   5.557
53988SOL    HW263862   5.449  10.148   5.505
53989SOL     OW63863  11.837  13.202  13.975
53989SOL    HW163864  11.878  13.208  13.889
53989SOL    HW263865  11.841  13.291  14.010
53990SOL     OW63866   1.743   0.213   3.404
53990SOL    HW163867   1.760   0.121   3.385
53990SOL    HW263868   1.723   0.252   3.319
53991SOL     OW63869   4.389   4.614   1.213
53991SOL    HW163870   4.423   4.578   1.294
53991SOL    HW263871   4.380   4.539   1.154
53992SOL     OW63872   2.682  10.773   2.551
53992SOL    HW163873   2.669  10.866   2.534
53992SOL    HW263874   2.594  10.738   2.562
53993SOL     OW63875   4.340   1.991   3.402
53993SOL    HW163876   4.401   2.046   3.451
53993SOL    HW263877   4.355   2.014   3.310
53994SOL     OW63878   3.460   4.741   2.970
53994SOL    HW163879   3.379   4.749   3.021
53994SOL    HW263880   3.443   4.669   2.910
53995SOL     OW63881   6.076   2.103   2.780
53995SOL    HW163882   6.118   2.185   2.752
53995SOL    HW263883   6.049   2.119   2.870
53996SOL     OW63884   7.737  12.162   3.081
53996SOL    HW163885   7.830  12.180   3.071
53996SOL    HW263886   7.697  12.247   3.097
53997SOL     OW63887   8.647  10.589  10.631
53997SOL    HW163888   8.621  10.622  10.717
53997SOL    HW263889   8.564  10.569  10.587
53998SOL     OW63890   1.915   3.808   6.661
53998SOL    HW163891   1.840   3.865   6.676
53998SOL    HW263892   1.876   3.722   6.642
53999SOL     OW63893  10.397  11.568   5.016
53999SOL    HW163894  10.492  11.583   5.014
53999SOL    HW263895  10.371  11.587   5.106
54000SOL     OW63896   5.439   3.801   1.200
54000SOL    HW163897   5.522   3.780   1.244
54000SOL    HW263898   5.430   3.735   1.132
54001SOL     OW63899   0.449   0.926   4.952
54001SOL    HW163900   0.396   1.004   4.938
54001SOL    HW263901   0.434   0.904   5.044
54002SOL     OW63902   9.591   3.854   1.468
54002SOL    HW163903   9.653   3.793   1.429
54002SOL    HW263904   9.529   3.799   1.515
54003SOL     OW63905  12.370  13.286   9.712
54003SOL    HW163906  12.335  13.247   9.793
54003SOL    HW263907  12.387  13.377   9.735
54004SOL     OW63908   1.459   2.993  14.298
54004SOL    HW163909   1.472   3.087  14.312
54004SOL    HW263910   1.525   2.969  14.232
54005SOL     OW63911   6.575   2.406   9.919
54005SOL    HW163912   6.539   2.485   9.881
54005SOL    HW263913   6.589   2.347   9.845
54006SOL     OW63914   8.843   9.512   8.991
54006SOL    HW163915   8.927   9.496   8.947
54006SOL    HW263916   8.810   9.424   9.010
54007SOL     OW63917   1.196  10.409   4.564
54007SOL    HW163918   1.254  10.484   4.550
54007SOL    HW263919   1.121  10.426   4.506
54008SOL     OW63920  10.751   8.360   8.455
54008SOL    HW163921  10.806   8.435   8.479
54008SOL    HW263922  10.813   8.292   8.430
54009SOL     OW63923   9.312  14.318   4.839
54009SOL    HW163924   9.332  14.225   4.829
54009SOL    HW263925   9.245  14.321   4.908
54010SOL     OW63926   4.301   9.755   5.600
54010SOL    HW163927   4.327   9.757   5.508
54010SOL    HW263928   4.291   9.847   5.624
54011SOL     OW63929   9.770  10.865  11.690
54011SOL    HW163930   9.851  10.906  11.660
54011SOL    HW263931   9.779  10.863  11.785
54012SOL     OW63932   8.901   2.400   6.797
54012SOL    HW163933   8.875   2.480   6.843
54012SOL    HW263934   8.997   2.400   6.803
54013SOL     OW63935   3.725  12.231   4.074
54013SOL    HW163936   3.668  12.267   4.006
54013SOL    HW263937   3.788  12.177   4.026
54014SOL     OW63938   6.695  12.706   4.585
54014SOL    HW163939   6.721  12.721   4.676
54014SOL    HW263940   6.700  12.792   4.543
54015SOL     OW63941   0.475   9.272   3.407
54015SOL    HW163942   0.517   9.190   3.433
54015SOL    HW263943   0.384   9.263   3.435
54016SOL     OW63944  12.804   7.945  11.981
54016SOL    HW163945  12.783   8.036  11.959
54016SOL    HW263946  12.898   7.946  11.998
54017SOL     OW63947   0.735   2.374   2.272
54017SOL    HW163948   0.808   2.404   2.326
54017SOL    HW263949   0.773   2.357   2.186
54018SOL     OW63950  12.314  12.335   1.763
54018SOL    HW163951  12.349  12.315   1.676
54018SOL    HW263952  12.370  12.405   1.797
54019SOL     OW63953   1.809   4.596  14.260
54019SOL    HW163954   1.721   4.631  14.252
54019SOL    HW263955   1.857   4.632  14.185
54020SOL     OW63956   2.766  12.269   4.721
54020SOL    HW163957   2.840  12.250   4.664
54020SOL    HW263958   2.796  12.341   4.776
54021SOL     OW63959   7.953  12.811  11.981
54021SOL    HW163960   7.877  12.756  11.996
54021SOL    HW263961   7.940  12.846  11.893
54022SOL     OW63962   2.455  10.834  11.840
54022SOL    HW163963   2.478  10.906  11.898
54022SOL    HW263964   2.414  10.769  11.897
54023SOL     OW63965   2.399   2.502   4.695
54023SOL    HW163966   2.428   2.437   4.632
54023SOL    HW263967   2.434   2.585   4.662
54024SOL     OW63968  14.208   7.660   5.681
54024SOL    HW163969  14.253   7.627   5.759
54024SOL    HW263970  14.199   7.754   5.697
54025SOL     OW63971   4.365  12.049   5.732
54025SOL    HW163972   4.459  12.057   5.752
54025SOL    HW263973   4.350  12.113   5.663
54026SOL     OW63974   5.547   1.317   7.817
54026SOL    HW163975   5.466   1.307   7.768
54026SOL    HW263976   5.527   1.280   7.904
54027SOL     OW63977   5.348   3.950  11.198
54027SOL    HW163978   5.376   3.885  11.262
54027SOL    HW263979   5.430   3.985  11.163
54028SOL     OW63980   7.292  14.152   4.373
54028SOL    HW163981   7.280  14.149   4.278
54028SOL    HW263982   7.386  14.160   4.386
54029SOL     OW63983   1.813   0.747  11.067
54029SOL    HW163984   1.783   0.758  10.977
54029SOL    HW263985   1.904   0.718  11.059
54030SOL     OW63986  10.768   1.107   0.495
54030SOL    HW163987  10.848   1.077   0.453
54030SOL    HW263988  10.773   1.203   0.490
54031SOL     OW63989  10.438   2.123   9.216
54031SOL    HW163990  10.413   2.050   9.273
54031SOL    HW263991  10.416   2.201   9.267
54032SOL     OW63992   5.550  13.446  13.046
54032SOL    HW163993   5.513  13.400  12.971
54032SOL    HW263994   5.577  13.377  13.106
54033SOL     OW63995  13.317   9.740   0.074
54033SOL    HW163996  13.318   9.757   0.168
54033SOL    HW263997  13.406   9.761   0.045
54034SOL     OW63998  13.323   7.211   6.459
54034SOL    HW163999  13.383   7.250   6.523
54034SOL    HW264000  13.274   7.286   6.425
54035SOL     OW64001   8.671  11.553  11.705
54035SOL    HW164002   8.740  11.499  11.666
54035SOL    HW264003   8.681  11.639  11.664
54036SOL     OW64004   7.601  12.075   5.072
54036SOL    HW164005   7.529  12.015   5.091
54036SOL    HW264006   7.609  12.129   5.151
54037SOL     OW64007   4.953  11.961  14.858
54037SOL    HW164008   4.858  11.953  14.859
54037SOL    HW264009   4.981  11.924   0.062
54038SOL     OW64010   3.162   7.529   7.598
54038SOL    HW164011   3.133   7.479   7.522
54038SOL    HW264012   3.097   7.599   7.607
54039SOL     OW64013   3.166   5.128   3.136
54039SOL    HW164014   3.072   5.142   3.148
54039SOL    HW264015   3.171   5.044   3.090
54040SOL     OW64016   5.109  14.664   4.558
54040SOL    HW164017   5.051  14.687   4.631
54040SOL    HW264018   5.103  14.568   4.552
54041SOL     OW64019   9.217  11.008   3.756
54041SOL    HW164020   9.236  10.962   3.838
54041SOL    HW264021   9.138  10.966   3.723
54042SOL     OW64022  13.840  14.671   5.663
54042SOL    HW164023  13.813  14.613   5.734
54042SOL    HW264024  13.820  14.623   5.583
54043SOL     OW64025  13.417   4.253   8.484
54043SOL    HW164026  13.366   4.211   8.554
54043SOL    HW264027  13.508   4.234   8.506
54044SOL     OW64028  11.371   0.958   4.543
54044SOL    HW164029  11.326   0.874   4.555
54044SOL    HW264030  11.455   0.946   4.589
54045SOL     OW64031   9.339   3.904  11.779
54045SOL    HW164032   9.349   3.818  11.737
54045SOL    HW264033   9.426   3.925  11.812
54046SOL     OW64034   0.699   4.694   9.741
54046SOL    HW164035   0.703   4.733   9.829
54046SOL    HW264036   0.624   4.635   9.745
54047SOL     OW64037   1.439   0.720   4.707
54047SOL    HW164038   1.353   0.760   4.715
54047SOL    HW264039   1.423   0.638   4.660
54048SOL     OW64040  13.772   0.108   8.632
54048SOL    HW164041  13.780   0.040   8.565
54048SOL    HW264042  13.680   0.135   8.628
54049SOL     OW64043   9.286   6.564   0.439
54049SOL    HW164044   9.336   6.594   0.362
54049SOL    HW264045   9.352   6.532   0.500
54050SOL     OW64046   8.160   8.119   3.823
54050SOL    HW164047   8.219   8.185   3.859
54050SOL    HW264048   8.156   8.050   3.889
54051SOL     OW64049   5.677   2.299  12.610
54051SOL    HW164050   5.705   2.384  12.576
54051SOL    HW264051   5.633   2.257  12.536
54052SOL     OW64052  14.168   6.718  14.528
54052SOL    HW164053  14.213   6.633  14.526
54052SOL    HW264054  14.089   6.702  14.580
54053SOL     OW64055   7.596   8.550   2.478
54053SOL    HW164056   7.617   8.572   2.569
54053SOL    HW264057   7.535   8.618   2.451
54054SOL     OW64058  14.686   8.122   9.189
54054SOL    HW164059  14.753   8.185   9.214
54054SOL    HW264060  14.726   8.072   9.118
54055SOL     OW64061   1.920   6.312   7.040
54055SOL    HW164062   1.875   6.349   7.116
54055SOL    HW264063   2.000   6.363   7.032
54056SOL     OW64064  12.650  11.050  12.251
54056SOL    HW164065  12.695  10.970  12.280
54056SOL    HW264066  12.564  11.045  12.291
54057SOL     OW64067   8.796   0.732   4.373
54057SOL    HW164068   8.859   0.660   4.363
54057SOL    HW264069   8.723   0.694   4.421
54058SOL     OW64070   3.537  13.076   0.553
54058SOL    HW164071   3.572  12.989   0.573
54058SOL    HW264072   3.614  13.125   0.524
54059SOL     OW64073   2.806   6.108   4.031
54059SOL    HW164074   2.789   6.196   3.998
54059SOL    HW264075   2.754   6.050   3.975
54060SOL     OW64076   9.399   8.223  11.516
54060SOL    HW164077   9.481   8.214  11.565
54060SOL    HW264078   9.416   8.293  11.453
54061SOL     OW64079   5.336   2.635  12.941
54061SOL    HW164080   5.385   2.718  12.945
54061SOL    HW264081   5.245   2.661  12.953
54062SOL     OW64082   1.731   7.182   3.206
54062SOL    HW164083   1.701   7.248   3.144
54062SOL    HW264084   1.776   7.117   3.152
54063SOL     OW64085   0.357   0.085  13.907
54063SOL    HW164086   0.443   0.043  13.898
54063SOL    HW264087   0.353   0.148  13.835
54064SOL     OW64088   8.843  10.396   8.458
54064SOL    HW164089   8.795  10.395   8.376
54064SOL    HW264090   8.777  10.416   8.525
54065SOL     OW64091   1.810  11.457   4.875
54065SOL    HW164092   1.731  11.426   4.920
54065SOL    HW264093   1.809  11.552   4.890
54066SOL     OW64094  10.196   8.106   6.862
54066SOL    HW164095  10.150   8.172   6.914
54066SOL    HW264096  10.246   8.056   6.926
54067SOL     OW64097   6.091   3.595   6.293
54067SOL    HW164098   6.010   3.544   6.289
54067SOL    HW264099   6.114   3.594   6.386
54068SOL     OW64100   5.718  11.036  12.188
54068SOL    HW164101   5.731  11.127  12.159
54068SOL    HW264102   5.754  10.983  12.117
54069SOL     OW64103   7.854   8.912   3.702
54069SOL    HW164104   7.906   8.835   3.725
54069SOL    HW264105   7.782   8.878   3.649
54070SOL     OW64106   0.561   3.485   0.121
54070SOL    HW164107   0.474   3.464   0.156
54070SOL    HW264108   0.593   3.554   0.178
54071SOL     OW64109   5.577  12.069   3.234
54071SOL    HW164110   5.586  12.140   3.171
54071SOL    HW264111   5.559  11.991   3.181
54072SOL     OW64112   7.295   6.394   1.379
54072SOL    HW164113   7.205   6.384   1.408
54072SOL    HW264114   7.300   6.485   1.348
54073SOL     OW64115   6.384  13.299   5.048
54073SOL    HW164116   6.438  13.260   4.979
54073SOL    HW264117   6.362  13.386   5.016
54074SOL     OW64118  14.243   6.704   6.880
54074SOL    HW164119  14.290   6.636   6.928
54074SOL    HW264120  14.313   6.762   6.847
54075SOL     OW64121   5.381  10.849  13.211
54075SOL    HW164122   5.298  10.896  13.213
54075SOL    HW264123   5.372  10.787  13.139
54076SOL     OW64124  13.660   0.010   9.129
54076SOL    HW164125  13.610   0.074   9.178
54076SOL    HW264126  13.664   0.046   9.040
54077SOL     OW64127  12.491   6.274   8.415
54077SOL    HW164128  12.524   6.191   8.381
54077SOL    HW264129  12.396   6.266   8.409
54078SOL     OW64130   4.966  11.536   2.028
54078SOL    HW164131   5.016  11.481   2.089
54078SOL    HW264132   5.028  11.604   2.001
54079SOL     OW64133   2.729   2.349   2.027
54079SOL    HW164134   2.704   2.421   2.084
54079SOL    HW264135   2.716   2.270   2.081
54080SOL     OW64136   2.608  11.713   9.505
54080SOL    HW164137   2.682  11.660   9.476
54080SOL    HW264138   2.592  11.773   9.432
54081SOL     OW64139  13.163   5.394  11.472
54081SOL    HW164140  13.126   5.482  11.472
54081SOL    HW264141  13.258   5.407  11.474
54082SOL     OW64142   2.376   7.200   6.059
54082SOL    HW164143   2.319   7.262   6.014
54082SOL    HW264144   2.317   7.128   6.084
54083SOL     OW64145  13.334  13.066   7.531
54083SOL    HW164146  13.242  13.093   7.527
54083SOL    HW264147  13.359  13.081   7.623
54084SOL     OW64148   5.469   7.659   5.413
54084SOL    HW164149   5.509   7.592   5.468
54084SOL    HW264150   5.377   7.659   5.439
54085SOL     OW64151   0.187   2.248   8.690
54085SOL    HW164152   0.127   2.183   8.654
54085SOL    HW264153   0.216   2.210   8.773
54086SOL     OW64154  14.583  11.527   7.097
54086SOL    HW164155  14.541  11.550   7.015
54086SOL    HW264156  14.658  11.473   7.072
54087SOL     OW64157   1.982   9.994   6.528
54087SOL    HW164158   1.970  10.085   6.556
54087SOL    HW264159   2.015  10.001   6.438
54088SOL     OW64160   6.506  12.439   9.453
54088SOL    HW164161   6.530  12.456   9.544
54088SOL    HW264162   6.526  12.521   9.408
54089SOL     OW64163   9.588   2.774   0.706
54089SOL    HW164164   9.663   2.824   0.739
54089SOL    HW264165   9.558   2.824   0.630
54090SOL     OW64166   2.538  10.211  12.837
54090SOL    HW164167   2.567  10.282  12.780
54090SOL    HW264168   2.455  10.182  12.800
54091SOL     OW64169  12.184  10.323   6.651
54091SOL    HW164170  12.111  10.370   6.691
54091SOL    HW264171  12.226  10.388   6.594
54092SOL     OW64172   9.889   3.234   1.161
54092SOL    HW164173   9.898   3.328   1.142
54092SOL    HW264174   9.934   3.222   1.244
54093SOL     OW64175   3.658   3.804   9.822
54093SOL    HW164176   3.578   3.819   9.873
54093SOL    HW264177   3.632   3.819   9.731
54094SOL     OW64178   8.126   0.691   8.032
54094SOL    HW164179   8.085   0.715   8.115
54094SOL    HW264180   8.178   0.767   8.008
54095SOL     OW64181  12.734   8.555   7.614
54095SOL    HW164182  12.775   8.473   7.587
54095SOL    HW264183  12.765   8.569   7.704
54096SOL     OW64184   5.526   4.374  14.057
54096SOL    HW164185   5.611   4.401  14.092
54096SOL    HW264186   5.485   4.456  14.030
54097SOL     OW64187   9.471   4.932   4.556
54097SOL    HW164188   9.440   4.970   4.638
54097SOL    HW264189   9.552   4.980   4.536
54098SOL     OW64190   6.326  13.895   0.850
54098SOL    HW164191   6.237  13.920   0.827
54098SOL    HW264192   6.379  13.971   0.826
54099SOL     OW64193   0.034  12.555  11.170
54099SOL    HW164194   0.090  12.482  11.143
54099SOL    HW264195   0.053  12.565  11.263
54100SOL     OW64196  13.982   8.558  14.284
54100SOL    HW164197  13.939   8.584  14.202
54100SOL    HW264198  14.041   8.487  14.258
54101SOL     OW64199   5.368   9.873  10.913
54101SOL    HW164200   5.306   9.821  10.863
54101SOL    HW264201   5.398   9.940  10.851
54102SOL     OW64202   8.418   7.426   0.278
54102SOL    HW164203   8.383   7.337   0.271
54102SOL    HW264204   8.496   7.425   0.222
54103SOL     OW64205   5.783   1.987  11.392
54103SOL    HW164206   5.825   2.005  11.476
54103SOL    HW264207   5.833   2.038  11.328
54104SOL     OW64208   9.798  13.669  14.661
54104SOL    HW164209   9.829  13.586  14.695
54104SOL    HW264210   9.719  13.688  14.711
54105SOL     OW64211   7.122   6.810   2.636
54105SOL    HW164212   7.114   6.720   2.603
54105SOL    HW264213   7.055   6.859   2.589
54106SOL     OW64214  13.828  11.389   4.813
54106SOL    HW164215  13.839  11.466   4.867
54106SOL    HW264216  13.734  11.384   4.796
54107SOL     OW64217   6.548  10.228   1.255
54107SOL    HW164218   6.540  10.263   1.344
54107SOL    HW264219   6.536  10.134   1.264
54108SOL     OW64220   9.537   5.983   9.820
54108SOL    HW164221   9.462   6.013   9.769
54108SOL    HW264222   9.595   5.942   9.756
54109SOL     OW64223   5.356   3.379   0.717
54109SOL    HW164224   5.319   3.398   0.803
54109SOL    HW264225   5.397   3.461   0.689
54110SOL     OW64226   7.227   4.055  14.636
54110SOL    HW164227   7.264   4.002  14.706
54110SOL    HW264228   7.299   4.110  14.607
54111SOL     OW64229   5.115   8.041   5.285
54111SOL    HW164230   5.051   8.066   5.351
54111SOL    HW264231   5.199   8.068   5.323
54112SOL     OW64232   2.265   6.748  13.386
54112SOL    HW164233   2.208   6.786  13.454
54112SOL    HW264234   2.205   6.702  13.328
54113SOL     OW64235   7.433   4.038   2.403
54113SOL    HW164236   7.471   4.089   2.332
54113SOL    HW264237   7.421   4.100   2.474
54114SOL     OW64238   3.075  14.312  14.691
54114SOL    HW164239   3.004  14.279  14.635
54114SOL    HW264240   3.031  14.342  14.771
54115SOL     OW64241   2.473  12.177   4.176
54115SOL    HW164242   2.526  12.246   4.216
54115SOL    HW264243   2.411  12.225   4.120
54116SOL     OW64244  11.393  12.458  13.534
54116SOL    HW164245  11.368  12.366  13.544
54116SOL    HW264246  11.355  12.483  13.450
54117SOL     OW64247   2.563   6.492  14.112
54117SOL    HW164248   2.562   6.525  14.022
54117SOL    HW264249   2.565   6.571  14.167
54118SOL     OW64250   3.454  14.411   4.433
54118SOL    HW164251   3.368  14.376   4.457
54118SOL    HW264252   3.435  14.480   4.371
54119SOL     OW64253   6.388   6.436   4.362
54119SOL    HW164254   6.460   6.482   4.404
54119SOL    HW264255   6.384   6.473   4.273
54120SOL     OW64256  14.203   1.083   8.994
54120SOL    HW164257  14.158   1.135   8.927
54120SOL    HW264258  14.236   1.148   9.056
54121SOL     OW64259   4.891   9.519  10.903
54121SOL    HW164260   4.901   9.496  10.810
54121SOL    HW264261   4.967   9.573  10.922
54122SOL     OW64262   4.281   0.097   4.992
54122SOL    HW164263   4.330   0.031   4.942
54122SOL    HW264264   4.208   0.121   4.935
54123SOL     OW64265   1.313   8.946   7.624
54123SOL    HW164266   1.227   8.984   7.641
54123SOL    HW264267   1.295   8.860   7.588
54124SOL     OW64268  13.223   0.556   9.263
54124SOL    HW164269  13.225   0.467   9.229
54124SOL    HW264270  13.291   0.602   9.213
54125SOL     OW64271  13.325  11.843  14.528
54125SOL    HW164272  13.272  11.845  14.448
54125SOL    HW264273  13.312  11.754  14.562
54126SOL     OW64274  12.029  10.016  11.985
54126SOL    HW164275  12.093  10.084  11.962
54126SOL    HW264276  12.031  10.013  12.081
54127SOL     OW64277   4.689  10.488   5.347
54127SOL    HW164278   4.674  10.410   5.294
54127SOL    HW264279   4.762  10.532   5.305
54128SOL     OW64280   8.546   8.963   6.072
54128SOL    HW164281   8.559   8.941   6.164
54128SOL    HW264282   8.485   9.036   6.072
54129SOL     OW64283   6.155   8.609  11.505
54129SOL    HW164284   6.198   8.641  11.584
54129SOL    HW264285   6.205   8.530  11.481
54130SOL     OW64286   2.326  11.354  13.772
54130SOL    HW164287   2.361  11.436  13.807
54130SOL    HW264288   2.241  11.344  13.815
54131SOL     OW64289  12.028   0.039   5.307
54131SOL    HW164290  12.114   0.015   5.273
54131SOL    HW264291  11.975   0.057   5.230
54132SOL     OW64292   1.054  12.822   9.488
54132SOL    HW164293   1.149  12.811   9.498
54132SOL    HW264294   1.030  12.885   9.556
54133SOL     OW64295  13.007   5.850  13.800
54133SOL    HW164296  12.919   5.811  13.803
54133SOL    HW264297  12.990   5.945  13.799
54134SOL     OW64298   9.024   0.706   4.090
54134SOL    HW164299   9.066   0.699   4.175
54134SOL    HW264300   9.061   0.786   4.051
54135SOL     OW64301  10.454  12.976   7.065
54135SOL    HW164302  10.545  12.991   7.094
54135SOL    HW264303  10.420  12.912   7.127
54136SOL     OW64304   7.640   5.219   7.148
54136SOL    HW164305   7.710   5.158   7.171
54136SOL    HW264306   7.685   5.298   7.119
54137SOL     OW64307   3.198   6.484   4.390
54137SOL    HW164308   3.214   6.577   4.372
54137SOL    HW264309   3.247   6.467   4.471
54138SOL     OW64310   9.918   1.816   1.481
54138SOL    HW164311   9.915   1.799   1.387
54138SOL    HW264312   9.904   1.730   1.521
54139SOL     OW64313   7.810  14.485   5.293
54139SOL    HW164314   7.876  14.417   5.306
54139SOL    HW264315   7.726  14.439   5.297
54140SOL     OW64316  13.739   4.616  13.340
54140SOL    HW164317  13.685   4.651  13.410
54140SOL    HW264318  13.717   4.669  13.263
54141SOL     OW64319   5.520   7.878   2.851
54141SOL    HW164320   5.531   7.971   2.873
54141SOL    HW264321   5.427   7.869   2.829
54142SOL     OW64322   8.506   7.919  14.429
54142SOL    HW164323   8.573   7.982  14.403
54142SOL    HW264324   8.461   7.960  14.503
54143SOL     OW64325   9.534  12.526  11.401
54143SOL    HW164326   9.449  12.500  11.437
54143SOL    HW264327   9.528  12.504  11.307
54144SOL     OW64328   3.549  14.138   5.303
54144SOL    HW164329   3.574  14.194   5.377
54144SOL    HW264330   3.626  14.135   5.247
54145SOL     OW64331   2.806  13.119   0.581
54145SOL    HW164332   2.879  13.072   0.543
54145SOL    HW264333   2.735  13.055   0.585
54146SOL     OW64334   3.572   7.173  10.126
54146SOL    HW164335   3.531   7.231  10.190
54146SOL    HW264336   3.511   7.100  10.117
54147SOL     OW64337  10.559  12.287   3.270
54147SOL    HW164338  10.520  12.251   3.190
54147SOL    HW264339  10.589  12.211   3.319
54148SOL     OW64340   8.941   7.940   1.840
54148SOL    HW164341   9.005   8.007   1.866
54148SOL    HW264342   8.951   7.870   1.905
54149SOL     OW64343   8.184   5.582  11.597
54149SOL    HW164344   8.154   5.507  11.546
54149SOL    HW264345   8.237   5.545  11.667
54150SOL     OW64346   9.570   2.881  11.080
54150SOL    HW164347   9.491   2.901  11.129
54150SOL    HW264348   9.549   2.802  11.031
54151SOL     OW64349   8.466  11.392   3.713
54151SOL    HW164350   8.425  11.309   3.739
54151SOL    HW264351   8.415  11.421   3.638
54152SOL     OW64352   6.804   1.945  11.244
54152SOL    HW164353   6.881   1.949  11.187
54152SOL    HW264354   6.836   1.910  11.327
54153SOL     OW64355   6.289   1.184   1.389
54153SOL    HW164356   6.321   1.132   1.463
54153SOL    HW264357   6.334   1.268   1.397
54154SOL     OW64358  12.885   1.473   2.382
54154SOL    HW164359  12.949   1.458   2.312
54154SOL    HW264360  12.896   1.399   2.441
54155SOL     OW64361  11.630   7.108   4.213
54155SOL    HW164362  11.654   7.108   4.120
54155SOL    HW264363  11.568   7.035   4.221
54156SOL     OW64364  12.074   2.537  12.060
54156SOL    HW164365  12.140   2.482  12.102
54156SOL    HW264366  11.990   2.502  12.089
54157SOL     OW64367  14.460   6.816  13.770
54157SOL    HW164368  14.461   6.879  13.842
54157SOL    HW264369  14.417   6.739  13.807
54158SOL     OW64370  12.772   2.807   8.195
54158SOL    HW164371  12.696   2.750   8.209
54158SOL    HW264372  12.775   2.862   8.273
54159SOL     OW64373   8.247   0.808   5.620
54159SOL    HW164374   8.209   0.794   5.707
54159SOL    HW264375   8.236   0.901   5.603
54160SOL     OW64376   3.350   3.403   0.201
54160SOL    HW164377   3.269   3.361   0.230
54160SOL    HW264378   3.406   3.331   0.172
54161SOL     OW64379  10.774   6.957   6.077
54161SOL    HW164380  10.779   7.049   6.105
54161SOL    HW264381  10.707   6.957   6.009
54162SOL     OW64382   2.042   4.095   1.194
54162SOL    HW164383   2.061   4.114   1.286
54162SOL    HW264384   2.038   4.000   1.189
54163SOL     OW64385   7.664  13.433  14.533
54163SOL    HW164386   7.696  13.453  14.445
54163SOL    HW264387   7.730  13.376  14.571
54164SOL     OW64388   4.054  13.655   4.246
54164SOL    HW164389   3.986  13.699   4.196
54164SOL    HW264390   4.026  13.663   4.337
54165SOL     OW64391  13.527   4.508   3.610
54165SOL    HW164392  13.531   4.603   3.599
54165SOL    HW264393  13.550   4.493   3.702
54166SOL     OW64394   0.076   9.944   4.386
54166SOL    HW164395   0.073   9.951   4.290
54166SOL    HW264396  14.873   9.981   4.416
54167SOL     OW64397  10.008  14.630   8.613
54167SOL    HW164398   9.964  14.545   8.606
54167SOL    HW264399   9.955  14.689   8.560
54168SOL     OW64400   7.884   3.199  11.019
54168SOL    HW164401   7.819   3.128  11.019
54168SOL    HW264402   7.967   3.156  11.036
54169SOL     OW64403   8.544  12.502   0.678
54169SOL    HW164404   8.607  12.488   0.607
54169SOL    HW264405   8.533  12.415   0.717
54170SOL     OW64406  14.262   0.730   7.533
54170SOL    HW164407  14.325   0.791   7.572
54170SOL    HW264408  14.313   0.651   7.514
54171SOL     OW64409   8.121  14.029   7.042
54171SOL    HW164410   8.183  14.022   7.115
54171SOL    HW264411   8.120  14.122   7.021
54172SOL     OW64412   1.768   1.559   9.686
54172SOL    HW164413   1.705   1.502   9.643
54172SOL    HW264414   1.814   1.502   9.748
54173SOL     OW64415   7.110  12.321   4.746
54173SOL    HW164416   7.166  12.366   4.684
54173SOL    HW264417   7.034  12.378   4.757
54174SOL     OW64418   9.774  12.194   1.583
54174SOL    HW164419   9.729  12.206   1.499
54174SOL    HW264420   9.864  12.222   1.567
54175SOL     OW64421   1.549   7.166  13.486
54175SOL    HW164422   1.627   7.175  13.432
54175SOL    HW264423   1.581   7.132  13.569
54176SOL     OW64424  13.177  11.061  14.711
54176SOL    HW164425  13.146  10.978  14.675
54176SOL    HW264426  13.194  11.042  14.803
54177SOL     OW64427   4.383   5.861   1.051
54177SOL    HW164428   4.374   5.889   1.142
54177SOL    HW264429   4.478   5.859   1.035
54178SOL     OW64430  10.892   2.903  14.468
54178SOL    HW164431  10.873   2.816  14.432
54178SOL    HW264432  10.972   2.930  14.423
54179SOL     OW64433   6.225  12.633   8.408
54179SOL    HW164434   6.138  12.668   8.430
54179SOL    HW264435   6.207  12.552   8.361
54180SOL     OW64436   1.496  12.054   1.601
54180SOL    HW164437   1.443  11.976   1.618
54180SOL    HW264438   1.584  12.031   1.632
54181SOL     OW64439   2.213  10.483   1.048
54181SOL    HW164440   2.230  10.571   1.080
54181SOL    HW264441   2.293  10.459   1.001
54182SOL     OW64442   9.531   4.626  10.130
54182SOL    HW164443   9.523   4.551  10.071
54182SOL    HW264444   9.447   4.671  10.124
54183SOL     OW64445  11.074   1.021  12.181
54183SOL    HW164446  11.142   1.031  12.247
54183SOL    HW264447  11.024   1.103  12.185
54184SOL     OW64448  13.291   3.112   0.815
54184SOL    HW164449  13.385   3.133   0.812
54184SOL    HW264450  13.287   3.018   0.796
54185SOL     OW64451   6.955   4.096  14.636
54185SOL    HW164452   6.892   4.034  14.672
54185SOL    HW264453   7.033   4.043  14.618
54186SOL     OW64454   1.402  10.042  12.613
54186SOL    HW164455   1.409   9.970  12.676
54186SOL    HW264456   1.392  10.120  12.668
54187SOL     OW64457  12.019   2.886  10.011
54187SOL    HW164458  12.060   2.851   9.932
54187SOL    HW264459  12.027   2.981  10.001
54188SOL     OW64460   7.185   9.872   1.313
54188SOL    HW164461   7.225   9.841   1.231
54188SOL    HW264462   7.092   9.880   1.292
54189SOL     OW64463   0.146   9.117   2.209
54189SOL    HW164464   0.166   9.209   2.193
54189SOL    HW264465   0.228   9.071   2.190
54190SOL     OW64466  10.081   1.746   6.623
54190SOL    HW164467  10.023   1.675   6.595
54190SOL    HW264468  10.067   1.752   6.718
54191SOL     OW64469  12.373   2.839  11.431
54191SOL    HW164470  12.364   2.744  11.416
54191SOL    HW264471  12.334   2.853  11.517
54192SOL     OW64472   4.633  11.056   2.999
54192SOL    HW164473   4.570  11.124   2.977
54192SOL    HW264474   4.708  11.102   3.035
54193SOL     OW64475   8.211   8.399   6.015
54193SOL    HW164476   8.288   8.344   6.033
54193SOL    HW264477   8.166   8.405   6.099
54194SOL     OW64478   3.168   9.286  14.704
54194SOL    HW164479   3.248   9.270  14.755
54194SOL    HW264480   3.198   9.294  14.614
54195SOL     OW64481   9.720   3.355   3.410
54195SOL    HW164482   9.631   3.352   3.445
54195SOL    HW264483   9.740   3.264   3.389
54196SOL     OW64484   0.266   6.832   6.894
54196SOL    HW164485   0.314   6.775   6.833
54196SOL    HW264486   0.313   6.823   6.977
54197SOL     OW64487   9.580   5.970   4.629
54197SOL    HW164488   9.646   5.905   4.654
54197SOL    HW264489   9.525   5.978   4.706
54198SOL     OW64490   2.828   1.060  10.705
54198SOL    HW164491   2.763   0.994  10.680
54198SOL    HW264492   2.848   1.107  10.624
54199SOL     OW64493  14.689   9.435   3.325
54199SOL    HW164494  14.652   9.450   3.238
54199SOL    HW264495  14.702   9.340   3.330
54200SOL     OW64496  10.141   3.402  10.146
54200SOL    HW164497  10.231   3.424  10.170
54200SOL    HW264498  10.119   3.328  10.203
54201SOL     OW64499   9.066   9.650  12.132
54201SOL    HW164500   9.144   9.595  12.140
54201SOL    HW264501   9.100   9.735  12.104
54202SOL     OW64502   2.495   8.864  10.593
54202SOL    HW164503   2.451   8.918  10.527
54202SOL    HW264504   2.433   8.794  10.613
54203SOL     OW64505  11.463   2.933   5.684
54203SOL    HW164506  11.520   2.858   5.667
54203SOL    HW264507  11.472   2.950   5.777
54204SOL     OW64508   2.577   0.599  11.015
54204SOL    HW164509   2.551   0.661  11.082
54204SOL    HW264510   2.664   0.629  10.987
54205SOL     OW64511   4.955   4.543   0.055
54205SOL    HW164512   5.021   4.492   0.007
54205SOL    HW264513   4.877   4.488   0.053
54206SOL     OW64514   7.475  11.925   5.456
54206SOL    HW164515   7.463  11.902   5.548
54206SOL    HW264516   7.426  11.859   5.407
54207SOL     OW64517   7.495  13.555  10.254
54207SOL    HW164518   7.570  13.606  10.224
54207SOL    HW264519   7.443  13.539  10.176
54208SOL     OW64520   5.933   0.546   2.450
54208SOL    HW164521   5.903   0.543   2.359
54208SOL    HW264522   5.853   0.544   2.502
54209SOL     OW64523  12.565  10.676  11.494
54209SOL    HW164524  12.527  10.728  11.565
54209SOL    HW264525  12.490  10.636  11.450
54210SOL     OW64526  10.843   7.434   4.362
54210SOL    HW164527  10.889   7.513   4.334
54210SOL    HW264528  10.767   7.428   4.304
54211SOL     OW64529   8.403  12.682   7.894
54211SOL    HW164530   8.379  12.771   7.870
54211SOL    HW264531   8.457  12.692   7.973
54212SOL     OW64532   1.763   8.468   9.597
54212SOL    HW164533   1.689   8.452   9.656
54212SOL    HW264534   1.816   8.389   9.603
54213SOL     OW64535   1.268  12.791  11.543
54213SOL    HW164536   1.354  12.829  11.524
54213SOL    HW264537   1.264  12.786  11.638
54214SOL     OW64538   3.734   0.226   2.774
54214SOL    HW164539   3.814   0.274   2.796
54214SOL    HW264540   3.764   0.155   2.716
54215SOL     OW64541   4.414  11.197   2.935
54215SOL    HW164542   4.367  11.251   2.872
54215SOL    HW264543   4.390  11.107   2.913
54216SOL     OW64544   8.464  12.378  10.631
54216SOL    HW164545   8.372  12.399  10.650
54216SOL    HW264546   8.463  12.342  10.543
54217SOL     OW64547   6.064   0.963   3.922
54217SOL    HW164548   6.157   0.988   3.926
54217SOL    HW264549   6.031   0.980   4.010
54218SOL     OW64550  11.990   8.832   0.534
54218SOL    HW164551  12.052   8.759   0.541
54218SOL    HW264552  12.043   8.906   0.505
54219SOL     OW64553   3.376   6.411   0.401
54219SOL    HW164554   3.287   6.376   0.395
54219SOL    HW264555   3.403   6.424   0.310
54220SOL     OW64556   5.826  11.538  11.213
54220SOL    HW164557   5.818  11.633  11.217
54220SOL    HW264558   5.850  11.511  11.302
54221SOL     OW64559   2.572  11.054   8.677
54221SOL    HW164560   2.500  11.085   8.621
54221SOL    HW264561   2.639  11.023   8.615
54222SOL     OW64562  11.066   4.087   8.744
54222SOL    HW164563  11.046   4.176   8.773
54222SOL    HW264564  11.015   4.031   8.802
54223SOL     OW64565   6.528  14.710   8.300
54223SOL    HW164566   6.572  14.755   8.372
54223SOL    HW264567   6.449  14.762   8.283
54224SOL     OW64568   4.215  13.892   7.318
54224SOL    HW164569   4.178  13.815   7.274
54224SOL    HW264570   4.291  13.858   7.365
54225SOL     OW64571   8.502   3.836  13.957
54225SOL    HW164572   8.559   3.822  13.881
54225SOL    HW264573   8.455   3.917  13.938
54226SOL     OW64574   8.527  11.681   9.370
54226SOL    HW164575   8.517  11.682   9.274
54226SOL    HW264576   8.439  11.662   9.403
54227SOL     OW64577  11.242   3.031  11.221
54227SOL    HW164578  11.258   3.111  11.271
54227SOL    HW264579  11.255   2.960  11.284
54228SOL     OW64580   1.043  13.984   6.925
54228SOL    HW164581   1.078  14.070   6.904
54228SOL    HW264582   0.949  13.992   6.913
54229SOL     OW64583   2.819  13.085   5.591
54229SOL    HW164584   2.881  13.120   5.527
54229SOL    HW264585   2.847  13.123   5.675
54230SOL     OW64586   6.831   0.752   3.895
54230SOL    HW164587   6.878   0.787   3.819
54230SOL    HW264588   6.812   0.829   3.948
54231SOL     OW64589   8.221  11.974   7.058
54231SOL    HW164590   8.277  11.897   7.050
54231SOL    HW264591   8.137  11.939   7.088
54232SOL     OW64592  10.465   9.133  13.284
54232SOL    HW164593  10.404   9.123  13.211
54232SOL    HW264594  10.548   9.100  13.251
54233SOL     OW64595   8.029  10.910   8.811
54233SOL    HW164596   8.105  10.882   8.760
54233SOL    HW264597   8.020  11.003   8.793
54234SOL     OW64598  14.512   9.453  10.008
54234SOL    HW164599  14.438   9.428  10.065
54234SOL    HW264600  14.541   9.537  10.044
54235SOL     OW64601  10.844   4.464  11.262
54235SOL    HW164602  10.930   4.426  11.246
54235SOL    HW264603  10.848   4.497  11.351
54236SOL     OW64604  10.501   2.426   1.020
54236SOL    HW164605  10.505   2.522   1.024
54236SOL    HW264606  10.582   2.401   0.974
54237SOL     OW64607  12.244   0.739  13.034
54237SOL    HW164608  12.301   0.815  13.026
54237SOL    HW264609  12.288   0.682  13.096
54238SOL     OW64610   0.691   7.456   3.954
54238SOL    HW164611   0.724   7.467   4.043
54238SOL    HW264612   0.632   7.381   3.959
54239SOL     OW64613  14.354   5.436  10.228
54239SOL    HW164614  14.284   5.446  10.293
54239SOL    HW264615  14.431   5.474  10.270
54240SOL     OW64616   6.439   1.939   5.508
54240SOL    HW164617   6.352   1.960   5.475
54240SOL    HW264618   6.422   1.901   5.595
54241SOL     OW64619   6.712  11.687   3.051
54241SOL    HW164620   6.618  11.692   3.033
54241SOL    HW264621   6.741  11.610   3.002
54242SOL     OW64622   9.257   7.470   7.572
54242SOL    HW164623   9.174   7.497   7.610
54242SOL    HW264624   9.234   7.436   7.485
54243SOL     OW64625   6.980   1.482   9.201
54243SOL    HW164626   6.890   1.466   9.227
54243SOL    HW264627   7.006   1.561   9.250
54244SOL     OW64628   6.622   4.597   8.891
54244SOL    HW164629   6.685   4.584   8.819
54244SOL    HW264630   6.594   4.508   8.913
54245SOL     OW64631  13.081   0.836   4.655
54245SOL    HW164632  13.034   0.855   4.736
54245SOL    HW264633  13.173   0.852   4.677
54246SOL     OW64634   7.426   2.031  14.561
54246SOL    HW164635   7.518   2.035  14.535
54246SOL    HW264636   7.380   2.001  14.483
54247SOL     OW64637   9.472   7.599  13.991
54247SOL    HW164638   9.450   7.605  14.084
54247SOL    HW264639   9.551   7.545  13.988
54248SOL     OW64640   9.096   6.575   9.741
54248SOL    HW164641   9.061   6.555   9.828
54248SOL    HW264642   9.187   6.599   9.756
54249SOL     OW64643   1.122   4.290  10.697
54249SOL    HW164644   1.032   4.258  10.699
54249SOL    HW264645   1.175   4.214  10.721
54250SOL     OW64646  12.651   6.081   8.030
54250SOL    HW164647  12.585   6.012   8.030
54250SOL    HW264648  12.602   6.160   8.007
54251SOL     OW64649   2.572  12.298   1.353
54251SOL    HW164650   2.604  12.274   1.440
54251SOL    HW264651   2.545  12.389   1.362
54252SOL     OW64652   4.644  10.635   4.552
54252SOL    HW164653   4.635  10.720   4.509
54252SOL    HW264654   4.729  10.638   4.595
54253SOL     OW64655   0.622  12.619   9.932
54253SOL    HW164656   0.569  12.542   9.913
54253SOL    HW264657   0.701  12.607   9.879
54254SOL     OW64658  11.767   0.537   1.367
54254SOL    HW164659  11.860   0.530   1.387
54254SOL    HW264660  11.727   0.465   1.415
54255SOL     OW64661  10.467   8.870  12.435
54255SOL    HW164662  10.541   8.810  12.428
54255SOL    HW264663  10.390   8.813  12.432
54256SOL     OW64664   4.633   8.856  10.436
54256SOL    HW164665   4.543   8.883  10.452
54256SOL    HW264666   4.656   8.800  10.510
54257SOL     OW64667  10.339  11.993   7.688
54257SOL    HW164668  10.298  11.930   7.628
54257SOL    HW264669  10.415  12.025   7.640
54258SOL     OW64670  13.825   0.157   9.332
54258SOL    HW164671  13.822   0.062   9.330
54258SOL    HW264672  13.737   0.183   9.359
54259SOL     OW64673   0.223  11.729   1.423
54259SOL    HW164674   0.277  11.650   1.432
54259SOL    HW264675   0.247  11.765   1.338
54260SOL     OW64676   9.127  10.812  11.894
54260SOL    HW164677   9.064  10.815  11.966
54260SOL    HW264678   9.129  10.721  11.867
54261SOL     OW64679   1.422   4.234   7.168
54261SOL    HW164680   1.518   4.232   7.166
54261SOL    HW264681   1.396   4.236   7.076
54262SOL     OW64682   1.953  13.492   3.330
54262SOL    HW164683   2.039  13.452   3.317
54262SOL    HW264684   1.900  13.423   3.370
54263SOL     OW64685   3.653   2.725   3.188
54263SOL    HW164686   3.693   2.643   3.218
54263SOL    HW264687   3.563   2.720   3.218
54264SOL     OW64688   3.521   9.543   7.296
54264SOL    HW164689   3.443   9.489   7.284
54264SOL    HW264690   3.525   9.559   7.391
54265SOL     OW64691   1.514  11.528   6.987
54265SOL    HW164692   1.605  11.502   7.001
54265SOL    HW264693   1.511  11.621   7.010
54266SOL     OW64694   6.874   6.737  12.824
54266SOL    HW164695   6.795   6.686  12.841
54266SOL    HW264696   6.843   6.819  12.786
54267SOL     OW64697  11.876   6.225  12.434
54267SOL    HW164698  11.898   6.311  12.469
54267SOL    HW264699  11.821   6.185  12.502
54268SOL     OW64700   2.495   7.031  14.384
54268SOL    HW164701   2.438   7.081  14.442
54268SOL    HW264702   2.534   6.964  14.440
54269SOL     OW64703   3.234   0.325   8.716
54269SOL    HW164704   3.325   0.307   8.742
54269SOL    HW264705   3.239   0.406   8.666
54270SOL     OW64706   9.523   5.898  11.518
54270SOL    HW164707   9.612   5.871  11.496
54270SOL    HW264708   9.475   5.891  11.435
54271SOL     OW64709   9.070  10.814   5.281
54271SOL    HW164710   9.103  10.734   5.239
54271SOL    HW264711   9.023  10.860   5.212
54272SOL     OW64712  11.426   5.264   3.952
54272SOL    HW164713  11.405   5.175   3.922
54272SOL    HW264714  11.342   5.299   3.982
54273SOL     OW64715  12.709   6.792   8.605
54273SOL    HW164716  12.786   6.773   8.552
54273SOL    HW264717  12.637   6.795   8.543
54274SOL     OW64718   2.148  10.695   1.984
54274SOL    HW164719   2.175  10.629   1.919
54274SOL    HW264720   2.071  10.656   2.027
54275SOL     OW64721   6.190  12.671  12.978
54275SOL    HW164722   6.192  12.765  12.964
54275SOL    HW264723   6.278  12.649  13.011
54276SOL     OW64724   4.867  10.667  10.714
54276SOL    HW164725   4.905  10.708  10.637
54276SOL    HW264726   4.842  10.740  10.771
54277SOL     OW64727  12.595  12.138   7.921
54277SOL    HW164728  12.526  12.171   7.864
54277SOL    HW264729  12.670  12.124   7.862
54278SOL     OW64730   2.826  14.242  14.608
54278SOL    HW164731   2.792  14.156  14.633
54278SOL    HW264732   2.761  14.278  14.548
54279SOL     OW64733   2.247   8.094   3.811
54279SOL    HW164734   2.243   8.189   3.808
54279SOL    HW264735   2.220   8.066   3.723
54280SOL     OW64736   1.103  13.049   0.875
54280SOL    HW164737   1.059  13.078   0.955
54280SOL    HW264738   1.034  13.006   0.824
54281SOL     OW64739   6.705   0.233   6.111
54281SOL    HW164740   6.743   0.298   6.052
54281SOL    HW264741   6.772   0.220   6.179
54282SOL     OW64742   2.086   0.522  13.431
54282SOL    HW164743   2.166   0.502  13.383
54282SOL    HW264744   2.107   0.502  13.522
54283SOL     OW64745   1.120   5.469  13.239
54283SOL    HW164746   1.064   5.417  13.181
54283SOL    HW264747   1.064   5.494  13.312
54284SOL     OW64748  13.491   8.594  10.145
54284SOL    HW164749  13.470   8.535  10.217
54284SOL    HW264750  13.422   8.579  10.080
54285SOL     OW64751   3.786  14.608   1.840
54285SOL    HW164752   3.711  14.667   1.842
54285SOL    HW264753   3.775  14.552   1.917
54286SOL     OW64754   2.002   4.552   7.191
54286SOL    HW164755   2.098   4.557   7.183
54286SOL    HW264756   1.973   4.642   7.181
54287SOL     OW64757  12.485   9.958  11.854
54287SOL    HW164758  12.454   9.874  11.821
54287SOL    HW264759  12.410  10.017  11.845
54288SOL     OW64760   1.030  10.777   9.834
54288SOL    HW164761   1.001  10.702   9.782
54288SOL    HW264762   1.118  10.753   9.864
54289SOL     OW64763   2.568   3.541   7.387
54289SOL    HW164764   2.544   3.582   7.470
54289SOL    HW264765   2.606   3.457   7.412
54290SOL     OW64766   8.206  10.345   5.096
54290SOL    HW164767   8.219  10.294   5.176
54290SOL    HW264768   8.233  10.286   5.026
54291SOL     OW64769  11.796   6.815   3.880
54291SOL    HW164770  11.795   6.834   3.786
54291SOL    HW264771  11.840   6.891   3.919
54292SOL     OW64772   7.825   0.705  13.373
54292SOL    HW164773   7.916   0.677  13.366
54292SOL    HW264774   7.810   0.756  13.294
54293SOL     OW64775   3.463  12.929  10.259
54293SOL    HW164776   3.480  12.912  10.167
54293SOL    HW264777   3.539  12.980  10.288
54294SOL     OW64778   7.186   9.973   4.826
54294SOL    HW164779   7.175   9.960   4.920
54294SOL    HW264780   7.229  10.058   4.818
54295SOL     OW64781  14.423   4.307  12.287
54295SOL    HW164782  14.499   4.282  12.340
54295SOL    HW264783  14.351   4.254  12.321
54296SOL     OW64784   9.599   2.113   9.013
54296SOL    HW164785   9.542   2.041   8.984
54296SOL    HW264786   9.681   2.070   9.037
54297SOL     OW64787  10.266  10.781   6.287
54297SOL    HW164788  10.296  10.813   6.202
54297SOL    HW264789  10.171  10.795   6.285
54298SOL     OW64790  14.720  11.931   6.896
54298SOL    HW164791  14.628  11.906   6.900
54298SOL    HW264792  14.728  11.979   6.813
54299SOL     OW64793   6.381   9.879   1.875
54299SOL    HW164794   6.439   9.803   1.877
54299SOL    HW264795   6.438   9.953   1.855
54300SOL     OW64796   2.718  13.946  10.774
54300SOL    HW164797   2.809  13.974  10.780
54300SOL    HW264798   2.668  14.021  10.805
54301SOL     OW64799  10.774  13.085   8.927
54301SOL    HW164800  10.771  12.990   8.917
54301SOL    HW264801  10.859  13.103   8.966
54302SOL     OW64802  11.433  11.126   6.457
54302SOL    HW164803  11.347  11.085   6.458
54302SOL    HW264804  11.484  11.075   6.394
54303SOL     OW64805  12.239  11.269   7.166
54303SOL    HW164806  12.303  11.244   7.099
54303SOL    HW264807  12.156  11.274   7.119
54304SOL     OW64808   6.040   4.672  11.799
54304SOL    HW164809   5.950   4.679  11.769
54304SOL    HW264810   6.037   4.699  11.891
54305SOL     OW64811   6.268  12.043   5.008
54305SOL    HW164812   6.195  12.039   4.947
54305SOL    HW264813   6.345  12.059   4.953
54306SOL     OW64814   1.926  14.504   2.184
54306SOL    HW164815   1.924  14.579   2.242
54306SOL    HW264816   1.836  14.471   2.184
54307SOL     OW64817  12.274  14.065   4.352
54307SOL    HW164818  12.340  14.068   4.282
54307SOL    HW264819  12.288  13.981   4.395
54308SOL     OW64820   6.078   9.405  10.189
54308SOL    HW164821   6.155   9.398  10.132
54308SOL    HW264822   6.095   9.342  10.259
54309SOL     OW64823  14.806  12.626   9.430
54309SOL    HW164824  14.835  12.688   9.363
54309SOL    HW264825  14.715  12.608   9.409
54310SOL     OW64826   1.867   9.978   2.156
54310SOL    HW164827   1.779   9.948   2.178
54310SOL    HW264828   1.925   9.911   2.191
54311SOL     OW64829   8.962   2.363  10.227
54311SOL    HW164830   8.903   2.325  10.161
54311SOL    HW264831   9.005   2.287  10.266
54312SOL     OW64832  10.489   6.075   0.962
54312SOL    HW164833  10.551   6.001   0.959
54312SOL    HW264834  10.507   6.117   1.046
54313SOL     OW64835   3.376   5.033  13.218
54313SOL    HW164836   3.467   5.063  13.209
54313SOL    HW264837   3.384   4.950  13.267
54314SOL     OW64838   3.266  13.105  14.052
54314SOL    HW164839   3.203  13.074  13.987
54314SOL    HW264840   3.350  13.069  14.022
54315SOL     OW64841   4.271   6.354   4.749
54315SOL    HW164842   4.307   6.376   4.835
54315SOL    HW264843   4.346   6.321   4.699
54316SOL     OW64844  11.783  14.423   0.852
54316SOL    HW164845  11.717  14.490   0.835
54316SOL    HW264846  11.804  14.433   0.945
54317SOL     OW64847   8.085   6.555  10.285
54317SOL    HW164848   8.127   6.572  10.370
54317SOL    HW264849   8.147   6.501  10.237
54318SOL     OW64850   7.447   2.595  13.859
54318SOL    HW164851   7.451   2.648  13.939
54318SOL    HW264852   7.453   2.504  13.890
54319SOL     OW64853  13.417  12.390   2.261
54319SOL    HW164854  13.432  12.366   2.170
54319SOL    HW264855  13.344  12.334   2.289
54320SOL     OW64856   4.237   6.825   9.360
54320SOL    HW164857   4.331   6.819   9.344
54320SOL    HW264858   4.227   6.802   9.452
54321SOL     OW64859  14.248   6.027   3.317
54321SOL    HW164860  14.271   5.938   3.290
54321SOL    HW264861  14.328   6.063   3.354
54322SOL     OW64862  10.732   8.194   0.761
54322SOL    HW164863  10.643   8.161   0.748
54322SOL    HW264864  10.729   8.285   0.729
54323SOL     OW64865   4.000   6.311   9.776
54323SOL    HW164866   4.093   6.304   9.800
54323SOL    HW264867   3.966   6.222   9.783
54324SOL     OW64868  13.928  12.043   8.113
54324SOL    HW164869  13.999  12.090   8.157
54324SOL    HW264870  13.849  12.093   8.135
54325SOL     OW64871  14.498   4.898  14.765
54325SOL    HW164872  14.403   4.889  14.774
54325SOL    HW264873  14.510   4.944  14.682
54326SOL     OW64874  11.369  14.625  10.646
54326SOL    HW164875  11.421  14.548  10.670
54326SOL    HW264876  11.371  14.627  10.550
54327SOL     OW64877  14.824   1.914   1.937
54327SOL    HW164878   0.039   1.903   1.924
54327SOL    HW264879  14.786   1.900   1.850
54328SOL     OW64880   1.597  12.832   4.094
54328SOL    HW164881   1.576  12.742   4.068
54328SOL    HW264882   1.652  12.822   4.172
54329SOL     OW64883   2.383   2.072  11.502
54329SOL    HW164884   2.288   2.060  11.498
54329SOL    HW264885   2.419   1.991  11.465
54330SOL     OW64886   8.126  14.869  11.023
54330SOL    HW164887   8.113   0.083  11.011
54330SOL    HW264888   8.193  14.862  11.091
54331SOL     OW64889   4.479  10.416   2.959
54331SOL    HW164890   4.553  10.439   3.015
54331SOL    HW264891   4.519  10.389   2.877
54332SOL     OW64892   7.741   6.996   8.036
54332SOL    HW164893   7.729   7.047   7.956
54332SOL    HW264894   7.830   6.962   8.030
54333SOL     OW64895   7.421   7.890   9.398
54333SOL    HW164896   7.345   7.837   9.423
54333SOL    HW264897   7.388   7.944   9.325
54334SOL     OW64898   5.170   4.600  12.745
54334SOL    HW164899   5.227   4.677  12.747
54334SOL    HW264900   5.118   4.607  12.825
54335SOL     OW64901   8.259  10.503   1.193
54335SOL    HW164902   8.186  10.464   1.144
54335SOL    HW264903   8.338  10.472   1.148
54336SOL     OW64904   0.135  12.671   3.394
54336SOL    HW164905   0.134  12.589   3.443
54336SOL    HW264906   0.184  12.651   3.314
54337SOL     OW64907   9.781   3.032  12.295
54337SOL    HW164908   9.866   3.015  12.255
54337SOL    HW264909   9.717   2.996  12.233
54338SOL     OW64910   2.782   8.292  12.078
54338SOL    HW164911   2.715   8.233  12.044
54338SOL    HW264912   2.739   8.377  12.083
54339SOL     OW64913  12.779  12.967  14.177
54339SOL    HW164914  12.719  12.995  14.108
54339SOL    HW264915  12.866  12.993  14.147
54340SOL     OW64916   9.845  14.382  11.754
54340SOL    HW164917   9.867  14.290  11.771
54340SOL    HW264918   9.929  14.427  11.749
54341SOL     OW64919  11.982   8.954   2.482
54341SOL    HW164920  12.078   8.958   2.485
54341SOL    HW264921  11.957   8.930   2.571
54342SOL     OW64922   7.062   0.867   2.179
54342SOL    HW164923   7.049   0.803   2.249
54342SOL    HW264924   7.115   0.936   2.219
54343SOL     OW64925   6.823  11.006   0.829
54343SOL    HW164926   6.886  11.040   0.766
54343SOL    HW264927   6.761  11.078   0.842
54344SOL     OW64928  14.170   0.758   2.174
54344SOL    HW164929  14.239   0.745   2.240
54344SOL    HW264930  14.211   0.731   2.092
54345SOL     OW64931   1.613  11.633   8.572
54345SOL    HW164932   1.621  11.575   8.648
54345SOL    HW264933   1.610  11.574   8.497
54346SOL     OW64934   7.973   3.693   8.870
54346SOL    HW164935   8.064   3.711   8.895
54346SOL    HW264936   7.973   3.699   8.774
54347SOL     OW64937  13.108   3.190   5.536
54347SOL    HW164938  13.157   3.122   5.583
54347SOL    HW264939  13.062   3.238   5.605
54348SOL     OW64940  11.287   8.815  12.521
54348SOL    HW164941  11.279   8.722  12.501
54348SOL    HW264942  11.202   8.852  12.499
54349SOL     OW64943   1.075   8.746   3.684
54349SOL    HW164944   1.003   8.706   3.634
54349SOL    HW264945   1.056   8.723   3.775
54350SOL     OW64946  11.508  13.368  14.742
54350SOL    HW164947  11.572  13.297  14.736
54350SOL    HW264948  11.448  13.352  14.668
54351SOL     OW64949   1.346   3.965   4.737
54351SOL    HW164950   1.434   3.992   4.712
54351SOL    HW264951   1.292   3.985   4.661
54352SOL     OW64952   3.992  10.690  14.344
54352SOL    HW164953   4.043  10.726  14.272
54352SOL    HW264954   3.945  10.616  14.305
54353SOL     OW64955   8.308   2.375   2.606
54353SOL    HW164956   8.280   2.331   2.686
54353SOL    HW264957   8.391   2.332   2.583
54354SOL     OW64958  11.717   8.146   8.140
54354SOL    HW164959  11.775   8.222   8.145
54354SOL    HW264960  11.641   8.179   8.091
54355SOL     OW64961  10.469   2.013  13.943
54355SOL    HW164962  10.421   1.958  14.005
54355SOL    HW264963  10.559   2.014  13.975
54356SOL     OW64964  10.760   5.901   2.685
54356SOL    HW164965  10.847   5.867   2.665
54356SOL    HW264966  10.729   5.938   2.603
54357SOL     OW64967   6.662   1.328   5.457
54357SOL    HW164968   6.644   1.248   5.407
54357SOL    HW264969   6.678   1.395   5.391
54358SOL     OW64970   7.475   3.895  11.564
54358SOL    HW164971   7.548   3.947  11.531
54358SOL    HW264972   7.510   3.849  11.640
54359SOL     OW64973  11.543   5.302   1.036
54359SOL    HW164974  11.591   5.341   1.109
54359SOL    HW264975  11.457   5.282   1.072
54360SOL     OW64976  12.613  10.807   4.649
54360SOL    HW164977  12.522  10.834   4.648
54360SOL    HW264978  12.613  10.722   4.693
54361SOL     OW64979   7.313  13.808  11.260
54361SOL    HW164980   7.303  13.807  11.165
54361SOL    HW264981   7.229  13.778  11.294
54362SOL     OW64982   2.244   6.316   7.301
54362SOL    HW164983   2.314   6.259   7.334
54362SOL    HW264984   2.289   6.380   7.246
54363SOL     OW64985  12.045   9.304   7.990
54363SOL    HW164986  12.098   9.293   7.911
54363SOL    HW264987  12.084   9.379   8.035
54364SOL     OW64988  14.753   2.909   9.526
54364SOL    HW164989  14.716   2.923   9.439
54364SOL    HW264990  14.714   2.978   9.580
54365SOL     OW64991  12.934   9.937   0.036
54365SOL    HW164992  12.861   9.999   0.033
54365SOL    HW264993  12.946   9.919   0.129
54366SOL     OW64994   3.793   9.878   6.157
54366SOL    HW164995   3.734   9.807   6.183
54366SOL    HW264996   3.777   9.947   6.221
54367SOL     OW64997   8.242  10.069   7.334
54367SOL    HW164998   8.193  10.130   7.280
54367SOL    HW264999   8.230   9.984   7.293
54368SOL     OW65000   7.896   4.137   7.269
54368SOL    HW165001   7.903   4.183   7.352
54368SOL    HW265002   7.939   4.052   7.284
54369SOL     OW65003   3.737   3.681  13.094
54369SOL    HW165004   3.774   3.734  13.164
54369SOL    HW265005   3.812   3.659  13.039
54370SOL     OW65006   1.888  14.817  14.137
54370SOL    HW165007   1.806  14.863  14.156
54370SOL    HW265008   1.898  14.824  14.042
54371SOL     OW65009  11.063   8.014   4.146
54371SOL    HW165010  11.012   7.935   4.162
54371SOL    HW265011  11.082   8.012   4.052
54372SOL     OW65012   8.964   2.990  13.672
54372SOL    HW165013   8.996   2.924  13.610
54372SOL    HW265014   9.044   3.032  13.704
54373SOL     OW65015  14.438   1.501  12.472
54373SOL    HW165016  14.480   1.587  12.481
54373SOL    HW265017  14.383   1.510  12.394
54374SOL     OW65018   1.067  13.197   2.782
54374SOL    HW165019   1.034  13.276   2.824
54374SOL    HW265020   0.994  13.165   2.729
54375SOL     OW65021   6.351   9.527   2.602
54375SOL    HW165022   6.334   9.528   2.507
54375SOL    HW265023   6.425   9.468   2.613
54376SOL     OW65024   8.814  10.439   2.445
54376SOL    HW165025   8.804  10.531   2.469
54376SOL    HW265026   8.724  10.407   2.435
54377SOL     OW65027  12.204   0.512   1.055
54377SOL    HW165028  12.117   0.498   1.018
54377SOL    HW265029  12.262   0.459   1.000
54378SOL     OW65030  13.856   3.136  14.086
54378SOL    HW165031  13.773   3.138  14.134
54378SOL    HW265032  13.846   3.202  14.018
54379SOL     OW65033   1.897   5.424  13.873
54379SOL    HW165034   1.848   5.399  13.795
54379SOL    HW265035   1.914   5.518  13.862
54380SOL     OW65036   2.833  12.843   3.849
54380SOL    HW165037   2.818  12.781   3.919
54380SOL    HW265038   2.833  12.929   3.892
54381SOL     OW65039  12.398   3.119   3.951
54381SOL    HW165040  12.422   3.211   3.963
54381SOL    HW265041  12.477   3.078   3.918
54382SOL     OW65042  13.847   6.629   7.805
54382SOL    HW165043  13.793   6.703   7.830
54382SOL    HW265044  13.807   6.554   7.849
54383SOL     OW65045   6.797   6.282   4.477
54383SOL    HW165046   6.863   6.267   4.545
54383SOL    HW265047   6.722   6.230   4.505
54384SOL     OW65048  12.896   2.495   9.966
54384SOL    HW165049  12.949   2.525  10.040
54384SOL    HW265050  12.924   2.405   9.951
54385SOL     OW65051  10.184  11.490  12.107
54385SOL    HW165052  10.273  11.481  12.073
54385SOL    HW265053  10.186  11.445  12.191
54386SOL     OW65054   0.644  10.305   5.796
54386SOL    HW165055   0.586  10.277   5.866
54386SOL    HW265056   0.594  10.370   5.747
54387SOL     OW65057   5.087  14.497   0.278
54387SOL    HW165058   5.097  14.519   0.185
54387SOL    HW265059   5.169  14.454   0.301
54388SOL     OW65060   4.972  14.075  13.111
54388SOL    HW165061   4.912  14.112  13.047
54388SOL    HW265062   5.014  14.002  13.065
54389SOL     OW65063  12.585  11.837  14.611
54389SOL    HW165064  12.510  11.793  14.651
54389SOL    HW265065  12.658  11.777  14.626
54390SOL     OW65066   3.671   0.019   0.158
54390SOL    HW165067   3.640  14.875   0.071
54390SOL    HW265068   3.692  14.815   0.199
54391SOL     OW65069  12.359   2.320   5.558
54391SOL    HW165070  12.434   2.287   5.510
54391SOL    HW265071  12.388   2.324   5.649
54392SOL     OW65072  10.029  11.276  14.065
54392SOL    HW165073  10.069  11.362  14.048
54392SOL    HW265074   9.963  11.293  14.131
54393SOL     OW65075   6.161  10.513  13.236
54393SOL    HW165076   6.106  10.472  13.170
54393SOL    HW265077   6.099  10.550  13.299
54394SOL     OW65078  12.308  12.053   3.853
54394SOL    HW165079  12.362  12.029   3.928
54394SOL    HW265080  12.356  12.123   3.810
54395SOL     OW65081   9.054   0.653   4.565
54395SOL    HW165082   9.046   0.748   4.574
54395SOL    HW265083   9.096   0.641   4.479
54396SOL     OW65084   1.906   0.335   7.524
54396SOL    HW165085   1.848   0.277   7.475
54396SOL    HW265086   1.901   0.419   7.478
54397SOL     OW65087   7.620  14.599   7.485
54397SOL    HW165088   7.588  14.528   7.430
54397SOL    HW265089   7.545  14.625   7.538
54398SOL     OW65090   2.246   2.255  11.104
54398SOL    HW165091   2.294   2.259  11.021
54398SOL    HW265092   2.249   2.163  11.129
54399SOL     OW65093   6.611  13.360   4.542
54399SOL    HW165094   6.695  13.322   4.518
54399SOL    HW265095   6.547  13.314   4.486
54400SOL     OW65096   2.089   9.018  13.784
54400SOL    HW165097   2.157   9.082  13.804
54400SOL    HW265098   2.099   8.951  13.852
54401SOL     OW65099  10.586   8.144  12.635
54401SOL    HW165100  10.617   8.084  12.703
54401SOL    HW265101  10.503   8.178  12.670
54402SOL     OW65102   4.641  10.865  12.563
54402SOL    HW165103   4.642  10.939  12.502
54402SOL    HW265104   4.731  10.860  12.596
54403SOL     OW65105   0.875   3.446   9.646
54403SOL    HW165106   0.786   3.434   9.678
54403SOL    HW265107   0.919   3.363   9.664
54404SOL     OW65108  13.398   1.405   5.399
54404SOL    HW165109  13.462   1.342   5.366
54404SOL    HW265110  13.328   1.405   5.334
54405SOL     OW65111   7.452   1.618   4.004
54405SOL    HW165112   7.386   1.623   4.073
54405SOL    HW265113   7.524   1.568   4.043
54406SOL     OW65114   3.868  10.758   9.248
54406SOL    HW165115   3.881  10.683   9.189
54406SOL    HW265116   3.836  10.719   9.330
54407SOL     OW65117   9.219   0.482   5.498
54407SOL    HW165118   9.205   0.556   5.439
54407SOL    HW265119   9.184   0.513   5.582
54408SOL     OW65120  14.083  13.935  14.201
54408SOL    HW165121  14.094  13.877  14.276
54408SOL    HW265122  14.161  13.991  14.202
54409SOL     OW65123  10.121  11.048  13.944
54409SOL    HW165124  10.089  11.124  13.992
54409SOL    HW265125  10.041  11.003  13.915
54410SOL     OW65126  13.109   7.470   3.582
54410SOL    HW165127  13.022   7.509   3.571
54410SOL    HW265128  13.097   7.378   3.560
54411SOL     OW65129   9.121   7.524  12.693
54411SOL    HW165130   9.126   7.595  12.757
54411SOL    HW265131   9.096   7.447  12.744
54412SOL     OW65132  11.481  13.654   8.723
54412SOL    HW165133  11.487  13.617   8.635
54412SOL    HW265134  11.456  13.746   8.709
54413SOL     OW65135  14.719   6.117   2.046
54413SOL    HW165136  14.783   6.108   2.117
54413SOL    HW265137  14.637   6.139   2.091
54414SOL     OW65138   1.875   6.876   2.194
54414SOL    HW165139   1.863   6.930   2.116
54414SOL    HW265140   1.798   6.894   2.248
54415SOL     OW65141   8.394   0.796   4.159
54415SOL    HW165142   8.420   0.704   4.150
54415SOL    HW265143   8.350   0.817   4.077
54416SOL     OW65144   1.617   2.577  11.064
54416SOL    HW165145   1.618   2.483  11.077
54416SOL    HW265146   1.663   2.613  11.140
54417SOL     OW65147   0.181   6.358   3.978
54417SOL    HW165148   0.264   6.405   3.966
54417SOL    HW265149   0.176   6.298   3.904
54418SOL     OW65150   2.124   3.617   5.356
54418SOL    HW165151   2.058   3.682   5.380
54418SOL    HW265152   2.117   3.611   5.261
54419SOL     OW65153   1.551  13.494   8.205
54419SOL    HW165154   1.576  13.553   8.277
54419SOL    HW265155   1.633  13.460   8.171
54420SOL     OW65156   9.758   3.769   6.778
54420SOL    HW165157   9.670   3.805   6.783
54420SOL    HW265158   9.803   3.825   6.715
54421SOL     OW65159   0.902   8.140  11.140
54421SOL    HW165160   0.991   8.113  11.116
54421SOL    HW265161   0.845   8.091  11.081
54422SOL     OW65162   0.679   9.269   8.294
54422SOL    HW165163   0.668   9.290   8.202
54422SOL    HW265164   0.698   9.352   8.336
54423SOL     OW65165  10.648   8.488   2.275
54423SOL    HW165166  10.579   8.424   2.295
54423SOL    HW265167  10.720   8.465   2.333
54424SOL     OW65168  10.378   5.181   8.753
54424SOL    HW165169  10.420   5.263   8.778
54424SOL    HW265170  10.285   5.199   8.758
54425SOL     OW65171  11.566   3.549   7.672
54425SOL    HW165172  11.546   3.635   7.635
54425SOL    HW265173  11.639   3.565   7.732
54426SOL     OW65174   8.612   3.020   6.926
54426SOL    HW165175   8.558   3.088   6.967
54426SOL    HW265176   8.580   2.938   6.964
54427SOL     OW65177   3.724  11.929   7.432
54427SOL    HW165178   3.657  11.926   7.501
54427SOL    HW265179   3.675  11.942   7.351
54428SOL     OW65180   2.990  11.757  11.747
54428SOL    HW165181   3.019  11.803  11.669
54428SOL    HW265182   3.058  11.691  11.762
54429SOL     OW65183   7.783   2.263  11.239
54429SOL    HW165184   7.852   2.279  11.175
54429SOL    HW265185   7.709   2.232  11.186
54430SOL     OW65186   8.787   2.850  11.030
54430SOL    HW165187   8.859   2.796  11.062
54430SOL    HW265188   8.795   2.845  10.934
54431SOL     OW65189   1.466   9.843  12.794
54431SOL    HW165190   1.533   9.774  12.790
54431SOL    HW265191   1.385   9.797  12.816
54432SOL     OW65192  10.864   3.555   5.214
54432SOL    HW165193  10.835   3.572   5.304
54432SOL    HW265194  10.858   3.460   5.204
54433SOL     OW65195   1.636   4.481   3.612
54433SOL    HW165196   1.551   4.473   3.657
54433SOL    HW265197   1.654   4.393   3.578
54434SOL     OW65198   4.759  14.239  10.300
54434SOL    HW165199   4.836  14.182  10.294
54434SOL    HW265200   4.735  14.256  10.209
54435SOL     OW65201   3.837  10.004   7.003
54435SOL    HW165202   3.895  10.035   7.072
54435SOL    HW265203   3.859  10.058   6.927
54436SOL     OW65204   6.374   8.049   0.994
54436SOL    HW165205   6.426   8.017   1.068
54436SOL    HW265206   6.342   8.135   1.023
54437SOL     OW65207   2.533  10.835   6.731
54437SOL    HW165208   2.536  10.930   6.731
54437SOL    HW265209   2.439  10.814   6.730
54438SOL     OW65210  10.043   1.363   6.771
54438SOL    HW165211  10.137   1.360   6.788
54438SOL    HW265212  10.006   1.297   6.830
54439SOL     OW65213   2.508  12.636   0.753
54439SOL    HW165214   2.595  12.597   0.748
54439SOL    HW265215   2.503  12.671   0.842
54440SOL     OW65216   3.561  11.168   0.659
54440SOL    HW165217   3.492  11.129   0.605
54440SOL    HW265218   3.591  11.243   0.609
54441SOL     OW65219   7.062  12.613  14.562
54441SOL    HW165220   7.157  12.613  14.556
54441SOL    HW265221   7.043  12.565  14.643
54442SOL     OW65222   8.784   0.737   8.897
54442SOL    HW165223   8.792   0.663   8.837
54442SOL    HW265224   8.827   0.708   8.977
54443SOL     OW65225   0.048   2.240   3.585
54443SOL    HW165226  14.862   2.217   3.651
54443SOL    HW265227  14.876   2.260   3.507
54444SOL     OW65228  10.983   1.341  12.656
54444SOL    HW165229  10.952   1.432  12.648
54444SOL    HW265230  10.957   1.315  12.744
54445SOL     OW65231   1.055   8.625  14.815
54445SOL    HW165232   1.140   8.657  14.783
54445SOL    HW265233   0.991   8.664  14.757
54446SOL     OW65234   1.341   5.643  13.188
54446SOL    HW165235   1.341   5.669  13.280
54446SOL    HW265236   1.259   5.594  13.177
54447SOL     OW65237   8.704   0.011   3.903
54447SOL    HW165238   8.633  14.869   3.964
54447SOL    HW265239   8.668  14.872   3.817
54448SOL     OW65240   0.234  13.461   9.894
54448SOL    HW165241   0.184  13.477   9.974
54448SOL    HW265242   0.264  13.371   9.902
54449SOL     OW65243  10.136   0.102   8.411
54449SOL    HW165244  10.091   0.032   8.364
54449SOL    HW265245  10.119   0.084   8.503
54450SOL     OW65246   0.408  10.175   8.495
54450SOL    HW165247   0.431  10.268   8.490
54450SOL    HW265248   0.332  10.172   8.552
54451SOL     OW65249  12.511   0.244  10.948
54451SOL    HW165250  12.573   0.299  10.900
54451SOL    HW265251  12.485   0.297  11.023
54452SOL     OW65252   1.866  12.634   4.133
54452SOL    HW165253   1.957  12.620   4.109
54452SOL    HW265254   1.828  12.679   4.058
54453SOL     OW65255  12.744   6.286   7.426
54453SOL    HW165256  12.793   6.305   7.506
54453SOL    HW265257  12.722   6.193   7.433
54454SOL     OW65258   9.516  11.933  13.366
54454SOL    HW165259   9.504  11.933  13.271
54454SOL    HW265260   9.610  11.924  13.379
54455SOL     OW65261   4.772   5.268   1.590
54455SOL    HW165262   4.831   5.209   1.544
54455SOL    HW265263   4.783   5.245   1.682
54456SOL     OW65264   8.698  10.223   9.814
54456SOL    HW165265   8.679  10.315   9.833
54456SOL    HW265266   8.647  10.204   9.734
54457SOL     OW65267   7.982   8.716   7.952
54457SOL    HW165268   8.069   8.740   7.984
54457SOL    HW265269   7.999   8.653   7.882
54458SOL     OW65270   1.472  10.132   9.276
54458SOL    HW165271   1.402  10.085   9.320
54458SOL    HW265272   1.503  10.196   9.340
54459SOL     OW65273  14.011   8.545   9.102
54459SOL    HW165274  14.050   8.554   9.189
54459SOL    HW265275  14.085   8.527   9.044
54460SOL     OW65276   7.332   2.158   6.777
54460SOL    HW165277   7.266   2.092   6.755
54460SOL    HW265278   7.296   2.240   6.746
54461SOL     OW65279   2.849   5.822   6.799
54461SOL    HW165280   2.786   5.753   6.779
54461SOL    HW265281   2.796   5.901   6.811
54462SOL     OW65282   0.070  10.810   3.034
54462SOL    HW165283   0.062  10.785   2.942
54462SOL    HW265284   0.110  10.896   3.033
54463SOL     OW65285   8.968   3.816   6.386
54463SOL    HW165286   9.003   3.727   6.388
54463SOL    HW265287   9.035   3.870   6.427
54464SOL     OW65288   9.526   7.265   6.121
54464SOL    HW165289   9.566   7.319   6.190
54464SOL    HW265290   9.458   7.320   6.084
54465SOL     OW65291  14.240   2.062  12.471
54465SOL    HW165292  14.231   1.969  12.451
54465SOL    HW265293  14.333   2.074  12.490
54466SOL     OW65294  12.928   7.183  13.319
54466SOL    HW165295  12.934   7.119  13.248
54466SOL    HW265296  12.890   7.134  13.392
54467SOL     OW65297  12.573  10.719   1.582
54467SOL    HW165298  12.545  10.785   1.519
54467SOL    HW265299  12.521  10.737   1.660
54468SOL     OW65300   4.299   2.546   7.676
54468SOL    HW165301   4.372   2.567   7.734
54468SOL    HW265302   4.232   2.507   7.733
54469SOL     OW65303  10.305   7.012  10.082
54469SOL    HW165304  10.263   6.935  10.120
54469SOL    HW265305  10.232   7.070  10.059
54470SOL     OW65306   3.726  13.898   7.669
54470SOL    HW165307   3.795  13.934   7.615
54470SOL    HW265308   3.762  13.900   7.758
54471SOL     OW65309   0.566  10.643  11.564
54471SOL    HW165310   0.622  10.657  11.488
54471SOL    HW265311   0.574  10.723  11.615
54472SOL     OW65312  11.154   7.871  10.977
54472SOL    HW165313  11.145   7.819  10.897
54472SOL    HW265314  11.066   7.874  11.015
54473SOL     OW65315   3.832  11.087   1.374
54473SOL    HW165316   3.844  11.182   1.369
54473SOL    HW265317   3.890  11.052   1.306
54474SOL     OW65318   1.164   5.825  11.610
54474SOL    HW165319   1.211   5.751  11.646
54474SOL    HW265320   1.153   5.885  11.683
54475SOL     OW65321  12.599   8.696   2.476
54475SOL    HW165322  12.614   8.626   2.541
54475SOL    HW265323  12.506   8.718   2.486
54476SOL     OW65324  10.405   4.756  10.962
54476SOL    HW165325  10.320   4.730  10.925
54476SOL    HW265326  10.383   4.818  11.032
54477SOL     OW65327   4.023   7.341  14.421
54477SOL    HW165328   4.102   7.390  14.394
54477SOL    HW265329   4.045   7.309  14.509
54478SOL     OW65330   2.093  11.634  13.288
54478SOL    HW165331   2.017  11.614  13.343
54478SOL    HW265332   2.153  11.560  13.302
54479SOL     OW65333   3.639   6.000  12.019
54479SOL    HW165334   3.559   6.048  12.039
54479SOL    HW265335   3.706   6.069  12.012
54480SOL     OW65336  11.597   9.786  10.845
54480SOL    HW165337  11.657   9.840  10.896
54480SOL    HW265338  11.555   9.729  10.910
54481SOL     OW65339  14.802   4.070   2.649
54481SOL    HW165340  14.731   4.034   2.703
54481SOL    HW265341  14.858   3.995   2.630
54482SOL     OW65342  14.564   7.477   7.558
54482SOL    HW165343  14.560   7.454   7.651
54482SOL    HW265344  14.658   7.481   7.539
54483SOL     OW65345   9.987   7.238   5.901
54483SOL    HW165346   9.941   7.187   5.834
54483SOL    HW265347  10.041   7.300   5.851
54484SOL     OW65348   4.815   3.175   6.344
54484SOL    HW165349   4.843   3.229   6.270
54484SOL    HW265350   4.746   3.120   6.307
54485SOL     OW65351   0.403  11.760   9.020
54485SOL    HW165352   0.449  11.844   9.028
54485SOL    HW265353   0.368  11.744   9.108
54486SOL     OW65354   9.661   3.363  13.696
54486SOL    HW165355   9.618   3.282  13.667
54486SOL    HW265356   9.738   3.371  13.640
54487SOL     OW65357   6.874   6.730   1.055
54487SOL    HW165358   6.831   6.723   0.970
54487SOL    HW265359   6.961   6.692   1.042
54488SOL     OW65360   5.584   1.545   4.204
54488SOL    HW165361   5.582   1.603   4.280
54488SOL    HW265362   5.568   1.603   4.130
54489SOL     OW65363   8.612   0.895   9.917
54489SOL    HW165364   8.532   0.885   9.968
54489SOL    HW265365   8.595   0.845   9.837
54490SOL     OW65366  11.808   8.481  10.394
54490SOL    HW165367  11.780   8.565  10.358
54490SOL    HW265368  11.899   8.495  10.420
54491SOL     OW65369   4.441   2.396   4.712
54491SOL    HW165370   4.498   2.389   4.788
54491SOL    HW265371   4.459   2.483   4.676
54492SOL     OW65372   2.278   8.275   7.877
54492SOL    HW165373   2.299   8.231   7.795
54492SOL    HW265374   2.237   8.357   7.851
54493SOL     OW65375  13.226   8.389  14.103
54493SOL    HW165376  13.278   8.468  14.085
54493SOL    HW265377  13.205   8.396  14.196
54494SOL     OW65378  11.014   9.347   3.448
54494SOL    HW165379  11.067   9.350   3.528
54494SOL    HW265380  10.975   9.260   3.448
54495SOL     OW65381   3.268   2.487   7.244
54495SOL    HW165382   3.219   2.549   7.189
54495SOL    HW265383   3.320   2.543   7.301
54496SOL     OW65384  12.489   9.800   5.940
54496SOL    HW165385  12.393   9.801   5.937
54496SOL    HW265386  12.515   9.810   5.848
54497SOL     OW65387   5.198   9.091  12.086
54497SOL    HW165388   5.209   9.032  12.012
54497SOL    HW265389   5.106   9.081  12.111
54498SOL     OW65390   4.556   4.662   2.622
54498SOL    HW165391   4.542   4.652   2.528
54498SOL    HW265392   4.564   4.757   2.635
54499SOL     OW65393  12.591   8.844   2.035
54499SOL    HW165394  12.616   8.933   2.061
54499SOL    HW265395  12.531   8.857   1.961
54500SOL     OW65396  13.791  10.039   2.661
54500SOL    HW165397  13.744  10.069   2.583
54500SOL    HW265398  13.806  10.119   2.712
54501SOL     OW65399  11.820   8.334   9.603
54501SOL    HW165400  11.752   8.281   9.561
54501SOL    HW265401  11.846   8.397   9.536
54502SOL     OW65402   7.241   1.403  13.220
54502SOL    HW165403   7.267   1.318  13.185
54502SOL    HW265404   7.161   1.425  13.172
54503SOL     OW65405   6.021  13.606   3.940
54503SOL    HW165406   6.062  13.687   3.972
54503SOL    HW265407   5.940  13.636   3.898
54504SOL     OW65408   6.832  10.811  11.274
54504SOL    HW165409   6.885  10.739  11.239
54504SOL    HW265410   6.862  10.821  11.364
54505SOL     OW65411   1.768  13.021  14.793
54505SOL    HW165412   1.839  13.052  14.850
54505SOL    HW265413   1.708  12.975  14.852
54506SOL     OW65414   9.087   9.985  12.423
54506SOL    HW165415   9.017  10.049  12.418
54506SOL    HW265416   9.060   9.925  12.494
54507SOL     OW65417   7.013   2.333  14.113
54507SOL    HW165418   7.025   2.329  14.018
54507SOL    HW265419   7.097   2.305  14.150
54508SOL     OW65420   7.058   1.781  12.452
54508SOL    HW165421   7.153   1.774  12.436
54508SOL    HW265422   7.052   1.816  12.541
54509SOL     OW65423  10.727  11.354  14.138
54509SOL    HW165424  10.759  11.307  14.215
54509SOL    HW265425  10.633  11.363  14.152
54510SOL     OW65426   9.628  14.128   4.610
54510SOL    HW165427   9.688  14.088   4.673
54510SOL    HW265428   9.625  14.221   4.635
54511SOL     OW65429  10.004   2.245   6.212
54511SOL    HW165430   9.931   2.199   6.169
54511SOL    HW265431  10.070   2.177   6.225
54512SOL     OW65432   8.939   1.346   1.539
54512SOL    HW165433   9.025   1.352   1.582
54512SOL    HW265434   8.953   1.383   1.452
54513SOL     OW65435   4.142  13.572   6.261
54513SOL    HW165436   4.170  13.623   6.185
54513SOL    HW265437   4.185  13.487   6.249
54514SOL     OW65438  11.047  14.055   6.493
54514SOL    HW165439  11.019  14.033   6.582
54514SOL    HW265440  11.080  14.145   6.499
54515SOL     OW65441  13.071   3.865   3.903
54515SOL    HW165442  13.031   3.881   3.817
54515SOL    HW265443  12.999   3.830   3.957
54516SOL     OW65444   2.479   3.427   8.026
54516SOL    HW165445   2.498   3.350   7.973
54516SOL    HW265446   2.562   3.476   8.026
54517SOL     OW65447   3.241   1.524  14.693
54517SOL    HW165448   3.192   1.547  14.614
54517SOL    HW265449   3.196   1.447  14.728
54518SOL     OW65450   5.518   2.577  13.914
54518SOL    HW165451   5.608   2.610  13.910
54518SOL    HW265452   5.528   2.481  13.914
54519SOL     OW65453   2.267   8.786  14.325
54519SOL    HW165454   2.355   8.764  14.354
54519SOL    HW265455   2.268   8.881  14.311
54520SOL     OW65456   9.061   9.617   5.448
54520SOL    HW165457   9.092   9.611   5.538
54520SOL    HW265458   9.112   9.552   5.400
54521SOL     OW65459   3.326  11.309   7.972
54521SOL    HW165460   3.355  11.238   7.914
54521SOL    HW265461   3.384  11.382   7.951
54522SOL     OW65462   3.077  12.730  14.072
54522SOL    HW165463   3.004  12.668  14.075
54522SOL    HW265464   3.106  12.728  13.981
54523SOL     OW65465   9.176   2.043   1.405
54523SOL    HW165466   9.162   2.056   1.499
54523SOL    HW265467   9.105   2.091   1.363
54524SOL     OW65468   8.995   2.390   8.847
54524SOL    HW165469   9.070   2.406   8.790
54524SOL    HW265470   8.926   2.448   8.812
54525SOL     OW65471  14.683  10.332  12.284
54525SOL    HW165472  14.695  10.387  12.362
54525SOL    HW265473  14.740  10.371  12.218
54526SOL     OW65474  10.362   5.831   9.536
54526SOL    HW165475  10.323   5.859   9.619
54526SOL    HW265476  10.453   5.859   9.540
54527SOL     OW65477   4.685   8.771  12.756
54527SOL    HW165478   4.648   8.716  12.687
54527SOL    HW265479   4.626   8.846  12.761
54528SOL     OW65480   1.270  10.619   1.531
54528SOL    HW165481   1.300  10.640   1.442
54528SOL    HW265482   1.328  10.549   1.559
54529SOL     OW65483   4.161   1.431   3.071
54529SOL    HW165484   4.222   1.358   3.064
54529SOL    HW265485   4.210   1.500   3.116
54530SOL     OW65486   7.562   7.072   4.206
54530SOL    HW165487   7.655   7.052   4.201
54530SOL    HW265488   7.557   7.168   4.200
54531SOL     OW65489   8.048   6.531   9.904
54531SOL    HW165490   7.981   6.490   9.849
54531SOL    HW265491   8.000   6.594   9.958
54532SOL     OW65492   5.932   4.965   6.802
54532SOL    HW165493   6.012   4.923   6.832
54532SOL    HW265494   5.908   5.025   6.872
54533SOL     OW65495   3.036   3.325   2.282
54533SOL    HW165496   3.116   3.277   2.258
54533SOL    HW265497   3.050   3.413   2.247
54534SOL     OW65498   1.596   2.986   6.390
54534SOL    HW165499   1.650   3.030   6.325
54534SOL    HW265500   1.632   3.013   6.474
54535SOL     OW65501   4.646  10.243   0.864
54535SOL    HW165502   4.649  10.246   0.959
54535SOL    HW265503   4.590  10.317   0.840
54536SOL     OW65504   4.225  13.025   7.147
54536SOL    HW165505   4.260  13.112   7.166
54536SOL    HW265506   4.278  12.994   7.073
54537SOL     OW65507  13.335   8.749   3.750
54537SOL    HW165508  13.293   8.680   3.803
54537SOL    HW265509  13.375   8.807   3.814
54538SOL     OW65510   0.709  11.627   0.659
54538SOL    HW165511   0.705  11.722   0.645
54538SOL    HW265512   0.739  11.618   0.749
54539SOL     OW65513   4.109   6.606   6.769
54539SOL    HW165514   4.026   6.654   6.771
54539SOL    HW265515   4.120   6.582   6.677
54540SOL     OW65516  14.219  12.325   2.185
54540SOL    HW165517  14.154  12.283   2.241
54540SOL    HW265518  14.232  12.264   2.113
54541SOL     OW65519  13.675   4.836  14.595
54541SOL    HW165520  13.705   4.842  14.686
54541SOL    HW265521  13.733   4.772  14.554
54542SOL     OW65522   8.804  11.806   0.661
54542SOL    HW165523   8.763  11.729   0.700
54542SOL    HW265524   8.898  11.791   0.668
54543SOL     OW65525  14.475   5.353   4.969
54543SOL    HW165526  14.462   5.348   4.874
54543SOL    HW265527  14.389   5.334   5.006
54544SOL     OW65528   5.557   3.042   2.504
54544SOL    HW165529   5.490   3.052   2.436
54544SOL    HW265530   5.566   3.129   2.542
54545SOL     OW65531  14.307  13.957   2.263
54545SOL    HW165532  14.350  13.872   2.255
54545SOL    HW265533  14.271  13.958   2.352
54546SOL     OW65534  10.989  14.150   1.406
54546SOL    HW165535  10.926  14.167   1.475
54546SOL    HW265536  11.052  14.089   1.445
54547SOL     OW65537  11.394   5.121  13.694
54547SOL    HW165538  11.413   5.041  13.645
54547SOL    HW265539  11.319   5.100  13.749
54548SOL     OW65540  13.517   9.659   3.220
54548SOL    HW165541  13.448   9.599   3.191
54548SOL    HW265542  13.502   9.671   3.313
54549SOL     OW65543   9.409   0.339  13.358
54549SOL    HW165544   9.324   0.306  13.330
54549SOL    HW265545   9.417   0.424  13.315
54550SOL     OW65546   2.970  13.903   7.886
54550SOL    HW165547   2.948  13.816   7.852
54550SOL    HW265548   3.032  13.886   7.956
54551SOL     OW65549   8.569   9.103   2.620
54551SOL    HW165550   8.600   9.143   2.702
54551SOL    HW265551   8.620   9.145   2.552
54552SOL     OW65552   8.257  10.326  14.637
54552SOL    HW165553   8.289  10.374  14.561
54552SOL    HW265554   8.331  10.326  14.699
54553SOL     OW65555  11.695   8.329   8.982
54553SOL    HW165556  11.701   8.391   9.054
54553SOL    HW265557  11.606   8.294   8.988
54554SOL     OW65558   3.758   2.876   3.482
54554SOL    HW165559   3.846   2.839   3.473
54554SOL    HW265560   3.756   2.947   3.419
54555SOL     OW65561   6.386   3.758  10.967
54555SOL    HW165562   6.315   3.724  11.021
54555SOL    HW265563   6.405   3.844  11.003
54556SOL     OW65564   7.710   2.239   5.706
54556SOL    HW165565   7.719   2.333   5.722
54556SOL    HW265566   7.653   2.208   5.776
54557SOL     OW65567   5.803   3.496  12.562
54557SOL    HW165568   5.852   3.542  12.630
54557SOL    HW265569   5.722   3.547  12.551
54558SOL     OW65570  14.491  13.973   9.118
54558SOL    HW165571  14.422  14.039   9.123
54558SOL    HW265572  14.456  13.905   9.061
54559SOL     OW65573   3.047  10.875   6.681
54559SOL    HW165574   3.039  10.784   6.653
54559SOL    HW265575   3.084  10.870   6.769
54560SOL     OW65576  13.811  14.365   8.533
54560SOL    HW165577  13.882  14.347   8.595
54560SOL    HW265578  13.748  14.418   8.583
54561SOL     OW65579   4.971   1.795  12.287
54561SOL    HW165580   5.021   1.811  12.367
54561SOL    HW265581   5.034   1.756  12.227
54562SOL     OW65582   9.299   1.809  11.948
54562SOL    HW165583   9.362   1.773  12.011
54562SOL    HW265584   9.350   1.870  11.895
54563SOL     OW65585  12.546   0.380   3.520
54563SOL    HW165586  12.577   0.299   3.562
54563SOL    HW265587  12.528   0.439   3.592
54564SOL     OW65588   5.896   9.301   4.249
54564SOL    HW165589   5.980   9.331   4.215
54564SOL    HW265590   5.880   9.356   4.326
54565SOL     OW65591  11.430   9.175   3.857
54565SOL    HW165592  11.367   9.103   3.858
54565SOL    HW265593  11.505   9.141   3.809
54566SOL     OW65594   4.197   9.677  11.898
54566SOL    HW165595   4.185   9.704  11.807
54566SOL    HW265596   4.289   9.694  11.917
54567SOL     OW65597  14.522   9.918  12.250
54567SOL    HW165598  14.597   9.890  12.302
54567SOL    HW265599  14.557   9.985  12.191
54568SOL     OW65600  11.178   9.973   9.090
54568SOL    HW165601  11.139   9.990   9.004
54568SOL    HW265602  11.199  10.060   9.125
54569SOL     OW65603  14.135   4.586   0.456
54569SOL    HW165604  14.184   4.506   0.436
54569SOL    HW265605  14.148   4.600   0.550
54570SOL     OW65606   2.834   8.940  10.233
54570SOL    HW165607   2.851   8.980  10.148
54570SOL    HW265608   2.911   8.962  10.286
54571SOL     OW65609   9.213  11.561  11.833
54571SOL    HW165610   9.190  11.506  11.758
54571SOL    HW265611   9.207  11.501  11.908
54572SOL     OW65612  11.987  10.698  11.912
54572SOL    HW165613  12.061  10.710  11.852
54572SOL    HW265614  12.011  10.622  11.966
54573SOL     OW65615   5.157   7.111   6.813
54573SOL    HW165616   5.064   7.106   6.832
54573SOL    HW265617   5.198   7.046   6.870
54574SOL     OW65618  14.611   5.352   3.603
54574SOL    HW165619  14.673   5.382   3.536
54574SOL    HW265620  14.588   5.432   3.651
54575SOL     OW65621   9.187   0.496   2.598
54575SOL    HW165622   9.274   0.535   2.601
54575SOL    HW265623   9.160   0.503   2.506
54576SOL     OW65624   6.427   9.878   9.003
54576SOL    HW165625   6.513   9.836   8.996
54576SOL    HW265626   6.430   9.951   8.941
54577SOL     OW65627   0.874  14.081   1.292
54577SOL    HW165628   0.862  14.019   1.220
54577SOL    HW265629   0.860  14.029   1.371
54578SOL     OW65630   7.289  11.042  13.534
54578SOL    HW165631   7.326  11.106  13.595
54578SOL    HW265632   7.198  11.032  13.561
54579SOL     OW65633  12.576   9.666   3.702
54579SOL    HW165634  12.606   9.589   3.751
54579SOL    HW265635  12.609   9.653   3.614
54580SOL     OW65636  13.545   0.745   3.671
54580SOL    HW165637  13.558   0.767   3.579
54580SOL    HW265638  13.554   0.650   3.675
54581SOL     OW65639   7.422  14.587   9.660
54581SOL    HW165640   7.329  14.583   9.683
54581SOL    HW265641   7.452  14.670   9.696
54582SOL     OW65642  13.315   2.086   6.538
54582SOL    HW165643  13.365   2.025   6.592
54582SOL    HW265644  13.375   2.109   6.466
54583SOL     OW65645   3.607   0.694   8.409
54583SOL    HW165646   3.646   0.612   8.440
54583SOL    HW265647   3.682   0.752   8.394
54584SOL     OW65648   7.765   6.051   5.128
54584SOL    HW165649   7.856   6.030   5.151
54584SOL    HW265650   7.764   6.146   5.115
54585SOL     OW65651   1.208   5.850   4.733
54585SOL    HW165652   1.224   5.929   4.682
54585SOL    HW265653   1.119   5.860   4.765
54586SOL     OW65654   8.371   4.454   2.375
54586SOL    HW165655   8.458   4.420   2.353
54586SOL    HW265656   8.388   4.523   2.439
54587SOL     OW65657   8.795  10.606  12.488
54587SOL    HW165658   8.871  10.664  12.494
54587SOL    HW265659   8.731  10.645  12.547
54588SOL     OW65660   9.587   8.666   0.025
54588SOL    HW165661   9.615   8.755   0.047
54588SOL    HW265662   9.493   8.665   0.043
54589SOL     OW65663   6.682  14.581  13.943
54589SOL    HW165664   6.704  14.609  13.855
54589SOL    HW265665   6.708  14.489  13.946
54590SOL     OW65666   0.317  10.603   7.571
54590SOL    HW165667   0.252  10.562   7.514
54590SOL    HW265668   0.393  10.617   7.514
54591SOL     OW65669   1.506  11.295   2.360
54591SOL    HW165670   1.446  11.352   2.312
54591SOL    HW265671   1.547  11.241   2.293
54592SOL     OW65672  11.346  11.847   8.425
54592SOL    HW165673  11.312  11.859   8.337
54592SOL    HW265674  11.436  11.880   8.422
54593SOL     OW65675   2.930  13.223   6.398
54593SOL    HW165676   2.848  13.230   6.348
54593SOL    HW265677   2.999  13.230   6.332
54594SOL     OW65678   0.117   6.427   2.881
54594SOL    HW165679   0.032   6.442   2.841
54594SOL    HW265680   0.155   6.354   2.831
54595SOL     OW65681  12.332  11.566  13.345
54595SOL    HW165682  12.378  11.650  13.348
54595SOL    HW265683  12.265  11.574  13.414
54596SOL     OW65684  12.335  12.701   4.666
54596SOL    HW165685  12.322  12.606   4.663
54596SOL    HW265686  12.249  12.736   4.691
54597SOL     OW65687  11.451   9.924   7.046
54597SOL    HW165688  11.536   9.967   7.044
54597SOL    HW265689  11.401   9.972   7.112
54598SOL     OW65690   1.786   4.736   6.083
54598SOL    HW165691   1.699   4.731   6.043
54598SOL    HW265692   1.822   4.649   6.073
54599SOL     OW65693   4.193  14.661  13.233
54599SOL    HW165694   4.108  14.639  13.272
54599SOL    HW265695   4.172  14.727  13.166
54600SOL     OW65696   3.303   2.639   2.078
54600SOL    HW165697   3.266   2.563   2.123
54600SOL    HW265698   3.361   2.602   2.012
54601SOL     OW65699  12.900   2.997  10.253
54601SOL    HW165700  12.865   3.051  10.182
54601SOL    HW265701  12.993   2.990  10.235
54602SOL     OW65702   3.732  11.853   2.492
54602SOL    HW165703   3.762  11.836   2.581
54602SOL    HW265704   3.641  11.824   2.491
54603SOL     OW65705   1.824   7.176   0.637
54603SOL    HW165706   1.731   7.185   0.658
54603SOL    HW265707   1.856   7.266   0.629
54604SOL     OW65708   9.145  10.665   7.806
54604SOL    HW165709   9.166  10.575   7.830
54604SOL    HW265710   9.230  10.709   7.802
54605SOL     OW65711   8.692   6.325   7.809
54605SOL    HW165712   8.756   6.383   7.850
54605SOL    HW265713   8.617   6.327   7.869
54606SOL     OW65714  10.445   6.504   2.767
54606SOL    HW165715  10.405   6.553   2.839
54606SOL    HW265716  10.384   6.514   2.694
54607SOL     OW65717   9.092   6.874   9.568
54607SOL    HW165718   9.008   6.885   9.523
54607SOL    HW265719   9.152   6.930   9.519
54608SOL     OW65720   0.752   4.253  11.103
54608SOL    HW165721   0.780   4.344  11.109
54608SOL    HW265722   0.668   4.257  11.058
54609SOL     OW65723   1.080   3.551  11.165
54609SOL    HW165724   1.039   3.629  11.203
54609SOL    HW265725   1.174   3.571  11.164
54610SOL     OW65726  12.869   7.878   8.144
54610SOL    HW165727  12.813   7.934   8.091
54610SOL    HW265728  12.892   7.932   8.220
54611SOL     OW65729   5.588  12.007  13.594
54611SOL    HW165730   5.654  11.947  13.628
54611SOL    HW265731   5.638  12.084  13.567
54612SOL     OW65732   2.904   4.543   5.967
54612SOL    HW165733   2.939   4.550   5.878
54612SOL    HW265734   2.865   4.629   5.984
54613SOL     OW65735   4.657   3.392   8.913
54613SOL    HW165736   4.563   3.409   8.915
54613SOL    HW265737   4.664   3.296   8.916
54614SOL     OW65738   8.930  13.485   1.727
54614SOL    HW165739   8.873  13.458   1.655
54614SOL    HW265740   8.918  13.580   1.733
54615SOL     OW65741  11.186   9.563   0.554
54615SOL    HW165742  11.241   9.636   0.583
54615SOL    HW265743  11.167   9.583   0.462
54616SOL     OW65744  13.809  14.533  12.857
54616SOL    HW165745  13.713  14.535  12.865
54616SOL    HW265746  13.839  14.602  12.915
54617SOL     OW65747   0.510   2.228  10.234
54617SOL    HW165748   0.599   2.226  10.269
54617SOL    HW265749   0.467   2.299  10.281
54618SOL     OW65750   8.472   0.912   1.643
54618SOL    HW165751   8.414   0.885   1.572
54618SOL    HW265752   8.561   0.897   1.609
54619SOL     OW65753   7.507   1.418   1.500
54619SOL    HW165754   7.569   1.429   1.572
54619SOL    HW265755   7.476   1.328   1.507
54620SOL     OW65756   4.571   5.710  12.954
54620SOL    HW165757   4.586   5.725  13.048
54620SOL    HW265758   4.524   5.627  12.950
54621SOL     OW65759   2.827   3.396  12.132
54621SOL    HW165760   2.806   3.330  12.066
54621SOL    HW265761   2.743   3.420  12.169
54622SOL     OW65762  12.216  12.837   0.775
54622SOL    HW165763  12.184  12.807   0.690
54622SOL    HW265764  12.308  12.811   0.777
54623SOL     OW65765   0.023   8.873   9.766
54623SOL    HW165766  14.878   8.821   9.690
54623SOL    HW265767  14.822   8.918   9.792
54624SOL     OW65768   3.072   0.380  12.039
54624SOL    HW165769   3.043   0.373  12.130
54624SOL    HW265770   3.154   0.429  12.044
54625SOL     OW65771  14.466   5.347  10.590
54625SOL    HW165772  14.511   5.342  10.674
54625SOL    HW265773  14.505   5.277  10.538
54626SOL     OW65774  14.625   4.607   5.911
54626SOL    HW165775  14.607   4.557   5.990
54626SOL    HW265776  14.653   4.541   5.847
54627SOL     OW65777  12.746   1.363   1.092
54627SOL    HW165778  12.808   1.422   1.050
54627SOL    HW265779  12.766   1.369   1.185
54628SOL     OW65780   6.686   0.354   9.427
54628SOL    HW165781   6.612   0.396   9.469
54628SOL    HW265782   6.721   0.294   9.494
54629SOL     OW65783   4.968   9.104   2.892
54629SOL    HW165784   4.983   9.172   2.826
54629SOL    HW265785   4.873   9.096   2.897
54630SOL     OW65786   1.393   9.855   2.500
54630SOL    HW165787   1.302   9.845   2.473
54630SOL    HW265788   1.422   9.936   2.459
54631SOL     OW65789   1.612   4.392   8.838
54631SOL    HW165790   1.624   4.304   8.873
54631SOL    HW265791   1.683   4.404   8.775
54632SOL     OW65792  10.358   4.967  12.707
54632SOL    HW165793  10.416   4.960  12.631
54632SOL    HW265794  10.360   4.880  12.747
54633SOL     OW65795  13.258  10.288   2.603
54633SOL    HW165796  13.219  10.353   2.544
54633SOL    HW265797  13.210  10.301   2.686
54634SOL     OW65798  14.740   6.967   5.559
54634SOL    HW165799  14.700   6.944   5.643
54634SOL    HW265800  14.671   6.952   5.495
54635SOL     OW65801  13.781   2.937   5.973
54635SOL    HW165802  13.869   2.964   5.997
54635SOL    HW265803  13.793   2.876   5.900
54636SOL     OW65804   0.979  10.753  14.085
54636SOL    HW165805   0.945  10.748  13.996
54636SOL    HW265806   1.069  10.785  14.075
54637SOL     OW65807   5.061   4.001   2.006
54637SOL    HW165808   5.047   4.061   1.933
54637SOL    HW265809   5.023   4.046   2.082
54638SOL     OW65810   1.795  10.398   9.937
54638SOL    HW165811   1.787  10.493   9.932
54638SOL    HW265812   1.707  10.368   9.959
54639SOL     OW65813  11.013  10.651   8.321
54639SOL    HW165814  11.002  10.568   8.276
54639SOL    HW265815  10.928  10.694   8.315
54640SOL     OW65816  11.310   2.966   6.885
54640SOL    HW165817  11.254   3.044   6.890
54640SOL    HW265818  11.383   2.985   6.944
54641SOL     OW65819   0.984   8.303   5.170
54641SOL    HW165820   1.001   8.285   5.262
54641SOL    HW265821   1.071   8.300   5.129
54642SOL     OW65822   2.979   6.372   2.061
54642SOL    HW165823   3.068   6.372   2.026
54642SOL    HW265824   2.941   6.455   2.030
54643SOL     OW65825   0.004  12.972  10.995
54643SOL    HW165826  14.810  12.952  11.053
54643SOL    HW265827   0.009  12.898  10.935
54644SOL     OW65828   3.425   2.736  10.641
54644SOL    HW165829   3.456   2.822  10.671
54644SOL    HW265830   3.339   2.754  10.602
54645SOL     OW65831   6.591  13.014   3.125
54645SOL    HW165832   6.562  12.925   3.105
54645SOL    HW265833   6.614  13.011   3.218
54646SOL     OW65834  11.054   2.436  13.126
54646SOL    HW165835  10.992   2.490  13.175
54646SOL    HW265836  11.029   2.346  13.147
54647SOL     OW65837  10.340   7.056  10.820
54647SOL    HW165838  10.333   6.968  10.783
54647SOL    HW265839  10.260   7.067  10.872
54648SOL     OW65840   8.529  11.184   1.829
54648SOL    HW165841   8.538  11.201   1.923
54648SOL    HW265842   8.554  11.266   1.787
54649SOL     OW65843   7.431  10.885   3.816
54649SOL    HW165844   7.508  10.881   3.759
54649SOL    HW265845   7.420  10.978   3.835
54650SOL     OW65846   6.183  13.345   5.989
54650SOL    HW165847   6.229  13.364   6.071
54650SOL    HW265848   6.134  13.265   6.007
54651SOL     OW65849   8.247   4.003   5.638
54651SOL    HW165850   8.158   3.985   5.607
54651SOL    HW265851   8.270   4.087   5.598
54652SOL     OW65852   4.251   0.185   3.652
54652SOL    HW165853   4.207   0.107   3.685
54652SOL    HW265854   4.293   0.157   3.571
54653SOL     OW65855   3.201   1.956   4.940
54653SOL    HW165856   3.119   1.979   4.896
54653SOL    HW265857   3.232   1.878   4.894
54654SOL     OW65858   1.774   9.774   9.464
54654SOL    HW165859   1.794   9.867   9.459
54654SOL    HW265860   1.739   9.761   9.552
54655SOL     OW65861  14.275   5.605   4.068
54655SOL    HW165862  14.264   5.510   4.076
54655SOL    HW265863  14.328   5.630   4.143
54656SOL     OW65864   4.892   0.310  12.729
54656SOL    HW165865   4.911   0.236  12.671
54656SOL    HW265866   4.856   0.377  12.670
54657SOL     OW65867  13.552   2.013   8.788
54657SOL    HW165868  13.555   2.036   8.696
54657SOL    HW265869  13.588   1.924   8.792
54658SOL     OW65870   2.685   8.840   5.711
54658SOL    HW165871   2.622   8.769   5.717
54658SOL    HW265872   2.727   8.843   5.797
54659SOL     OW65873   3.017  12.906   1.842
54659SOL    HW165874   2.982  12.844   1.907
54659SOL    HW265875   3.056  12.976   1.895
54660SOL     OW65876   3.710  13.761   0.105
54660SOL    HW165877   3.682  13.741   0.194
54660SOL    HW265878   3.739  13.677   0.069
54661SOL     OW65879  13.129   9.796  13.407
54661SOL    HW165880  13.135   9.890  13.391
54661SOL    HW265881  13.159   9.784  13.497
54662SOL     OW65882   0.041   7.775   1.579
54662SOL    HW165883  14.843   7.758   1.633
54662SOL    HW265884   0.007   7.776   1.489
54663SOL     OW65885   2.054   5.363  14.618
54663SOL    HW165886   2.051   5.345  14.712
54663SOL    HW265887   2.147   5.377  14.599
54664SOL     OW65888  10.650  11.261   4.863
54664SOL    HW165889  10.689  11.331   4.915
54664SOL    HW265890  10.638  11.298   4.776
54665SOL     OW65891  11.648   7.981   6.161
54665SOL    HW165892  11.586   8.049   6.136
54665SOL    HW265893  11.594   7.902   6.172
54666SOL     OW65894  11.765   9.692  10.664
54666SOL    HW165895  11.699   9.734  10.718
54666SOL    HW265896  11.801   9.622  10.720
54667SOL     OW65897   2.858   7.603   2.051
54667SOL    HW165898   2.850   7.657   2.130
54667SOL    HW265899   2.921   7.535   2.076
54668SOL     OW65900   3.282   0.967   3.505
54668SOL    HW165901   3.331   0.935   3.580
54668SOL    HW265902   3.203   0.913   3.502
54669SOL     OW65903   7.400   5.099   7.083
54669SOL    HW165904   7.494   5.117   7.077
54669SOL    HW265905   7.374   5.075   6.994
54670SOL     OW65906   0.313  11.419  12.840
54670SOL    HW165907   0.262  11.461  12.771
54670SOL    HW265908   0.401  11.454  12.828
54671SOL     OW65909   3.933  11.505   2.407
54671SOL    HW165910   3.887  11.532   2.328
54671SOL    HW265911   3.997  11.575   2.423
54672SOL     OW65912   4.993   5.818  13.239
54672SOL    HW165913   5.077   5.793  13.277
54672SOL    HW265914   4.950   5.735  13.219
54673SOL     OW65915  10.490  14.661  10.991
54673SOL    HW165916  10.505  14.578  11.036
54673SOL    HW265917  10.577  14.701  10.986
54674SOL     OW65918  13.827   3.857  14.568
54674SOL    HW165919  13.742   3.896  14.548
54674SOL    HW265920  13.890   3.928  14.559
54675SOL     OW65921   2.503   0.095  14.382
54675SOL    HW165922   2.539   0.072  14.467
54675SOL    HW265923   2.573   0.144  14.339
54676SOL     OW65924   2.576   4.478   7.164
54676SOL    HW165925   2.653   4.423   7.151
54676SOL    HW265926   2.540   4.490   7.076
54677SOL     OW65927   7.859   5.823   6.320
54677SOL    HW165928   7.852   5.846   6.412
54677SOL    HW265929   7.840   5.729   6.317
54678SOL     OW65930   5.072  12.543   5.514
54678SOL    HW165931   5.046  12.486   5.586
54678SOL    HW265932   5.146  12.594   5.549
54679SOL     OW65933   8.518   2.802   7.118
54679SOL    HW165934   8.472   2.877   7.153
54679SOL    HW265935   8.525   2.741   7.191
54680SOL     OW65936  10.672   2.033   9.519
54680SOL    HW165937  10.727   2.059   9.593
54680SOL    HW265938  10.591   2.001   9.559
54681SOL     OW65939   8.370   8.903   2.617
54681SOL    HW165940   8.419   8.985   2.624
54681SOL    HW265941   8.289   8.920   2.666
54682SOL     OW65942   8.887  10.717   3.231
54682SOL    HW165943   8.818  10.732   3.167
54682SOL    HW265944   8.968  10.740   3.185
54683SOL     OW65945  13.265   1.726   5.016
54683SOL    HW165946  13.334   1.669   4.983
54683SOL    HW265947  13.296   1.815   4.996
54684SOL     OW65948   2.457   1.850   1.164
54684SOL    HW165949   2.484   1.932   1.206
54684SOL    HW265950   2.453   1.872   1.071
54685SOL     OW65951   9.495  11.302   6.783
54685SOL    HW165952   9.442  11.288   6.704
54685SOL    HW265953   9.430  11.316   6.853
54686SOL     OW65954   5.813   4.211  12.531
54686SOL    HW165955   5.868   4.133  12.528
54686SOL    HW265956   5.858   4.269  12.593
54687SOL     OW65957   3.865   2.333   3.795
54687SOL    HW165958   3.847   2.421   3.760
54687SOL    HW265959   3.876   2.346   3.889
54688SOL     OW65960   5.455   0.622  12.774
54688SOL    HW165961   5.454   0.571  12.855
54688SOL    HW265962   5.369   0.607  12.735
54689SOL     OW65963   5.637   4.623   8.917
54689SOL    HW165964   5.595   4.690   8.863
54689SOL    HW265965   5.731   4.640   8.907
54690SOL     OW65966   9.943   3.512   8.894
54690SOL    HW165967   9.903   3.458   8.963
54690SOL    HW265968  10.029   3.473   8.880
54691SOL     OW65969   2.985   1.532   6.696
54691SOL    HW165970   2.982   1.609   6.640
54691SOL    HW265971   3.010   1.461   6.636
54692SOL     OW65972   6.547   0.784  10.015
54692SOL    HW165973   6.602   0.740   9.950
54692SOL    HW265974   6.510   0.859   9.968
54693SOL     OW65975  12.092   1.256   0.780
54693SOL    HW165976  12.004   1.226   0.758
54693SOL    HW265977  12.137   1.178   0.814
54694SOL     OW65978   7.080   4.755   6.241
54694SOL    HW165979   7.149   4.734   6.178
54694SOL    HW265980   6.999   4.747   6.191
54695SOL     OW65981   7.902   1.706   5.366
54695SOL    HW165982   7.861   1.657   5.295
54695SOL    HW265983   7.963   1.765   5.323
54696SOL     OW65984   1.016   8.096  13.674
54696SOL    HW165985   1.069   8.164  13.714
54696SOL    HW265986   0.954   8.071  13.742
54697SOL     OW65987  14.454   1.494  14.282
54697SOL    HW165988  14.389   1.514  14.350
54697SOL    HW265989  14.518   1.564  14.289
54698SOL     OW65990   4.221   8.376   4.008
54698SOL    HW165991   4.272   8.306   3.967
54698SOL    HW265992   4.201   8.344   4.095
54699SOL     OW65993   3.044  12.700   9.761
54699SOL    HW165994   2.992  12.765   9.809
54699SOL    HW265995   3.108  12.669   9.825
54700SOL     OW65996   5.419   1.701   1.390
54700SOL    HW165997   5.417   1.726   1.482
54700SOL    HW265998   5.429   1.784   1.343
54701SOL     OW65999  13.789   4.306   7.307
54701SOL    HW166000  13.724   4.292   7.239
54701SOL    HW266001  13.748   4.368   7.368
54702SOL     OW66002   5.106   1.737   0.931
54702SOL    HW166003   5.107   1.648   0.967
54702SOL    HW266004   5.193   1.772   0.953
54703SOL     OW66005   3.699  12.891   7.099
54703SOL    HW166006   3.714  12.832   7.173
54703SOL    HW266007   3.638  12.957   7.133
54704SOL     OW66008   3.372  10.266  11.768
54704SOL    HW166009   3.286  10.275  11.727
54704SOL    HW266010   3.414  10.196  11.718
54705SOL     OW66011  11.798  11.557   7.230
54705SOL    HW166012  11.708  11.524   7.227
54705SOL    HW266013  11.830  11.532   7.316
54706SOL     OW66014  11.186   2.483  12.419
54706SOL    HW166015  11.125   2.492  12.346
54706SOL    HW266016  11.218   2.572  12.436
54707SOL     OW66017   9.609   6.887  13.932
54707SOL    HW166018   9.618   6.978  13.904
54707SOL    HW266019   9.633   6.837  13.853
54708SOL     OW66020   9.818  13.726   4.829
54708SOL    HW166021   9.730  13.745   4.795
54708SOL    HW266022   9.865  13.809   4.822
54709SOL     OW66023  12.611   7.220  13.922
54709SOL    HW166024  12.671   7.226  13.847
54709SOL    HW266025  12.526   7.245  13.885
54710SOL     OW66026   7.851  10.054   2.589
54710SOL    HW166027   7.807  10.099   2.661
54710SOL    HW266028   7.780  10.019   2.535
54711SOL     OW66029   3.759  11.631   4.157
54711SOL    HW166030   3.834  11.689   4.143
54711SOL    HW266031   3.753  11.578   4.078
54712SOL     OW66032  14.612   3.331   2.153
54712SOL    HW166033  14.569   3.342   2.238
54712SOL    HW266034  14.676   3.261   2.167
54713SOL     OW66035  11.143  11.772   8.200
54713SOL    HW166036  11.071  11.724   8.159
54713SOL    HW266037  11.221  11.720   8.182
54714SOL     OW66038  14.036   6.355   6.131
54714SOL    HW166039  13.968   6.337   6.196
54714SOL    HW266040  14.077   6.436   6.161
54715SOL     OW66041   4.309  14.283   4.229
54715SOL    HW166042   4.305  14.323   4.316
54715SOL    HW266043   4.376  14.333   4.183
54716SOL     OW66044   2.370   9.820   5.372
54716SOL    HW166045   2.378   9.753   5.304
54716SOL    HW266046   2.335   9.897   5.327
54717SOL     OW66047   4.473   1.856  13.876
54717SOL    HW166048   4.473   1.871  13.971
54717SOL    HW266049   4.398   1.908  13.844
54718SOL     OW66050   1.831   4.265  10.265
54718SOL    HW166051   1.866   4.221  10.187
54718SOL    HW266052   1.837   4.358  10.245
54719SOL     OW66053  10.492   2.610  12.694
54719SOL    HW166054  10.476   2.520  12.721
54719SOL    HW266055  10.419   2.660  12.731
54720SOL     OW66056   7.897   8.638   1.729
54720SOL    HW166057   7.886   8.661   1.637
54720SOL    HW266058   7.947   8.711   1.766
54721SOL     OW66059   1.072  11.459   6.019
54721SOL    HW166060   1.136  11.458   6.090
54721SOL    HW266061   1.077  11.548   5.983
54722SOL     OW66062   4.469   0.735   5.468
54722SOL    HW166063   4.552   0.719   5.422
54722SOL    HW266064   4.420   0.654   5.458
54723SOL     OW66065  11.368  11.839   2.956
54723SOL    HW166066  11.312  11.868   2.884
54723SOL    HW266067  11.336  11.751   2.977
54724SOL     OW66068   0.835   7.428   7.797
54724SOL    HW166069   0.739   7.421   7.798
54724SOL    HW266070   0.865   7.355   7.850
54725SOL     OW66071   3.730   9.494   5.125
54725SOL    HW166072   3.666   9.543   5.176
54725SOL    HW266073   3.791   9.459   5.190
54726SOL     OW66074   4.792   9.134  14.744
54726SOL    HW166075   4.850   9.203  14.713
54726SOL    HW266076   4.804   9.062  14.682
54727SOL     OW66077   2.380   8.201  13.922
54727SOL    HW166078   2.404   8.163  13.837
54727SOL    HW266079   2.420   8.142  13.986
54728SOL     OW66080   6.588   9.354   2.647
54728SOL    HW166081   6.677   9.369   2.679
54728SOL    HW266082   6.543   9.311   2.719
54729SOL     OW66083   2.843   8.625   4.225
54729SOL    HW166084   2.874   8.624   4.316
54729SOL    HW266085   2.837   8.718   4.203
54730SOL     OW66086  12.601   3.373  13.115
54730SOL    HW166087  12.573   3.284  13.094
54730SOL    HW266088  12.563   3.391  13.201
54731SOL     OW66089   9.263   8.914  13.185
54731SOL    HW166090   9.179   8.868  13.186
54731SOL    HW266091   9.240   9.006  13.173
54732SOL     OW66092   0.793   8.774   3.294
54732SOL    HW166093   0.702   8.765   3.266
54732SOL    HW266094   0.808   8.868   3.297
54733SOL     OW66095   7.175   1.072   7.992
54733SOL    HW166096   7.198   1.011   8.062
54733SOL    HW266097   7.199   1.158   8.026
54734SOL     OW66098  11.670   2.637   2.092
54734SOL    HW166099  11.597   2.696   2.078
54734SOL    HW266100  11.635   2.550   2.072
54735SOL     OW66101   2.305   7.159   7.275
54735SOL    HW166102   2.306   7.185   7.183
54735SOL    HW266103   2.213   7.137   7.292
54736SOL     OW66104   8.156  13.731   8.789
54736SOL    HW166105   8.062  13.751   8.787
54736SOL    HW266106   8.196  13.804   8.742
54737SOL     OW66107   6.854   9.450  10.193
54737SOL    HW166108   6.900   9.463  10.276
54737SOL    HW266109   6.924   9.455  10.127
54738SOL     OW66110  11.448  12.382   3.611
54738SOL    HW166111  11.520  12.418   3.559
54738SOL    HW266112  11.490  12.350   3.691
54739SOL     OW66113   7.525   3.782   6.352
54739SOL    HW166114   7.513   3.764   6.258
54739SOL    HW266115   7.554   3.699   6.389
54740SOL     OW66116   8.458   3.241   9.845
54740SOL    HW166117   8.379   3.223   9.794
54740SOL    HW266118   8.445   3.329   9.879
54741SOL     OW66119   7.025   0.558   4.017
54741SOL    HW166120   6.954   0.497   4.000
54741SOL    HW266121   7.009   0.631   3.957
54742SOL     OW66122   0.308  10.070   1.015
54742SOL    HW166123   0.353  10.078   0.931
54742SOL    HW266124   0.376  10.088   1.080
54743SOL     OW66125  11.364   8.367   5.699
54743SOL    HW166126  11.388   8.455   5.726
54743SOL    HW266127  11.368   8.315   5.780
54744SOL     OW66128   5.365   1.359   0.711
54744SOL    HW166129   5.283   1.385   0.667
54744SOL    HW266130   5.363   1.263   0.711
54745SOL     OW66131   8.195   7.921   7.341
54745SOL    HW166132   8.161   7.857   7.403
54745SOL    HW266133   8.244   7.870   7.277
54746SOL     OW66134   4.412   4.164   1.600
54746SOL    HW166135   4.337   4.220   1.578
54746SOL    HW266136   4.447   4.203   1.680
54747SOL     OW66137  14.134  13.671   8.173
54747SOL    HW166138  14.041  13.690   8.162
54747SOL    HW266139  14.140  13.575   8.171
54748SOL     OW66140  13.964   3.904  10.065
54748SOL    HW166141  14.032   3.836  10.059
54748SOL    HW266142  13.931   3.897  10.154
54749SOL     OW66143  13.536   6.597   9.213
54749SOL    HW166144  13.578   6.644   9.285
54749SOL    HW266145  13.471   6.659   9.179
54750SOL     OW66146   2.277  10.851  11.566
54750SOL    HW166147   2.299  10.776  11.621
54750SOL    HW266148   2.186  10.837  11.540
54751SOL     OW66149  10.932  10.373   4.722
54751SOL    HW166150  10.969  10.436   4.783
54751SOL    HW266151  11.007  10.320   4.693
54752SOL     OW66152   7.987  14.403   9.976
54752SOL    HW166153   8.012  14.435  10.063
54752SOL    HW266154   8.011  14.310   9.977
54753SOL     OW66155   1.231   6.031   6.511
54753SOL    HW166156   1.209   5.941   6.536
54753SOL    HW266157   1.213   6.082   6.590
54754SOL     OW66158   0.763   6.725  14.331
54754SOL    HW166159   0.676   6.733  14.292
54754SOL    HW266160   0.815   6.794  14.290
54755SOL     OW66161   1.814   6.212   0.485
54755SOL    HW166162   1.887   6.249   0.536
54755SOL    HW266163   1.857   6.157   0.420
54756SOL     OW66164  14.115   9.896  14.305
54756SOL    HW166165  14.064   9.875  14.383
54756SOL    HW266166  14.190   9.945  14.338
54757SOL     OW66167   1.253   6.408   1.764
54757SOL    HW166168   1.172   6.419   1.713
54757SOL    HW266169   1.323   6.417   1.699
54758SOL     OW66170  12.265   5.981   0.895
54758SOL    HW166171  12.264   6.033   0.815
54758SOL    HW266172  12.327   5.910   0.878
54759SOL     OW66173   8.037   8.201   8.335
54759SOL    HW166174   8.106   8.257   8.371
54759SOL    HW266175   8.079   8.153   8.264
54760SOL     OW66176   4.467   6.056   0.160
54760SOL    HW166177   4.460   5.970   0.201
54760SOL    HW266178   4.455   6.039   0.066
54761SOL     OW66179   5.081   0.433   5.774
54761SOL    HW166180   5.077   0.343   5.744
54761SOL    HW266181   5.010   0.477   5.728
54762SOL     OW66182   3.376  12.196  12.100
54762SOL    HW166183   3.347  12.156  12.019
54762SOL    HW266184   3.341  12.285  12.097
54763SOL     OW66185  11.862  12.177  12.843
54763SOL    HW166186  11.928  12.245  12.829
54763SOL    HW266187  11.795  12.218  12.898
54764SOL     OW66188   7.736   1.248   1.084
54764SOL    HW166189   7.794   1.293   1.022
54764SOL    HW266190   7.746   1.296   1.166
54765SOL     OW66191   2.139  12.133   0.040
54765SOL    HW166192   2.045  12.117   0.052
54765SOL    HW266193   2.171  12.151   0.128
54766SOL     OW66194  10.212  14.600   4.135
54766SOL    HW166195  10.241  14.691   4.127
54766SOL    HW266196  10.175  14.579   4.050
54767SOL     OW66197   1.763   6.681   7.154
54767SOL    HW166198   1.820   6.607   7.173
54767SOL    HW266199   1.818   6.742   7.105
54768SOL     OW66200   6.585  12.777   1.373
54768SOL    HW166201   6.636  12.729   1.438
54768SOL    HW266202   6.504  12.802   1.419
54769SOL     OW66203   1.279  10.377   9.694
54769SOL    HW166204   1.334  10.449   9.664
54769SOL    HW266205   1.268  10.393   9.788
54770SOL     OW66206   0.344  12.559   5.191
54770SOL    HW166207   0.270  12.597   5.145
54770SOL    HW266208   0.306  12.521   5.271
54771SOL     OW66209   9.724   9.812  13.922
54771SOL    HW166210   9.793   9.749  13.899
54771SOL    HW266211   9.732   9.822  14.017
54772SOL     OW66212   3.136  13.833   8.124
54772SOL    HW166213   3.074  13.760   8.130
54772SOL    HW266214   3.209  13.798   8.073
54773SOL     OW66215   2.281  12.959   2.529
54773SOL    HW166216   2.293  13.045   2.570
54773SOL    HW266217   2.354  12.907   2.561
54774SOL     OW66218   8.996   9.004   3.253
54774SOL    HW166219   9.009   8.976   3.162
54774SOL    HW266220   9.035   9.092   3.257
54775SOL     OW66221   7.483  12.215   2.380
54775SOL    HW166222   7.405  12.192   2.431
54775SOL    HW266223   7.549  12.237   2.446
54776SOL     OW66224   0.658  12.442  12.160
54776SOL    HW166225   0.609  12.374  12.114
54776SOL    HW266226   0.615  12.523  12.136
54777SOL     OW66227  14.829  13.158   2.071
54777SOL    HW166228  14.752  13.110   2.040
54777SOL    HW266229  14.797  13.245   2.093
54778SOL     OW66230   3.324   6.619   3.761
54778SOL    HW166231   3.268   6.557   3.714
54778SOL    HW266232   3.411   6.608   3.721
54779SOL     OW66233  11.546   8.112  11.827
54779SOL    HW166234  11.450   8.116  11.820
54779SOL    HW266235  11.570   8.034  11.779
54780SOL     OW66236   9.126   7.877   1.371
54780SOL    HW166237   9.069   7.809   1.336
54780SOL    HW266238   9.213   7.858   1.335
54781SOL     OW66239   5.845   7.127   7.638
54781SOL    HW166240   5.801   7.150   7.557
54781SOL    HW266241   5.851   7.031   7.637
54782SOL     OW66242  11.398   7.703  10.689
54782SOL    HW166243  11.400   7.631  10.626
54782SOL    HW266244  11.311   7.741  10.680
54783SOL     OW66245   1.834   7.476   7.137
54783SOL    HW166246   1.772   7.489   7.065
54783SOL    HW266247   1.914   7.519   7.108
54784SOL     OW66248  13.057   7.913   2.798
54784SOL    HW166249  13.143   7.895   2.762
54784SOL    HW266250  13.025   7.989   2.749
54785SOL     OW66251   8.616   0.144  14.348
54785SOL    HW166252   8.701   0.133  14.305
54785SOL    HW266253   8.578   0.056  14.347
54786SOL     OW66254   2.604  12.858   9.669
54786SOL    HW166255   2.599  12.887   9.760
54786SOL    HW266256   2.683  12.900   9.635
54787SOL     OW66257   2.578   4.549   7.791
54787SOL    HW166258   2.506   4.610   7.811
54787SOL    HW266259   2.535   4.464   7.779
54788SOL     OW66260   3.562  11.457   9.659
54788SOL    HW166261   3.637  11.460   9.718
54788SOL    HW266262   3.485  11.451   9.717
54789SOL     OW66263   1.277   7.366   0.726
54789SOL    HW166264   1.341   7.436   0.742
54789SOL    HW266265   1.265   7.365   0.631
54790SOL     OW66266  13.339   1.992   1.317
54790SOL    HW166267  13.385   1.973   1.399
54790SOL    HW266268  13.409   2.000   1.252
54791SOL     OW66269   9.649   8.978  10.606
54791SOL    HW166270   9.640   8.925  10.527
54791SOL    HW266271   9.734   8.953  10.643
54792SOL     OW66272   1.928  13.264   2.614
54792SOL    HW166273   1.939  13.324   2.688
54792SOL    HW266274   1.838  13.231   2.623
54793SOL     OW66275  13.014   9.984   1.794
54793SOL    HW166276  13.047   9.923   1.728
54793SOL    HW266277  12.958   9.932   1.850
54794SOL     OW66278  10.791   9.308   3.110
54794SOL    HW166279  10.755   9.357   3.184
54794SOL    HW266280  10.749   9.222   3.115
54795SOL     OW66281   6.968   1.126   1.354
54795SOL    HW166282   7.035   1.074   1.398
54795SOL    HW266283   6.924   1.174   1.424
54796SOL     OW66284  14.396  12.669  10.191
54796SOL    HW166285  14.356  12.589  10.155
54796SOL    HW266286  14.325  12.711  10.240
54797SOL     OW66287  12.269  10.994  11.246
54797SOL    HW166288  12.320  10.953  11.316
54797SOL    HW266289  12.295  10.946  11.167
54798SOL     OW66290  13.555   4.263   6.251
54798SOL    HW166291  13.472   4.223   6.224
54798SOL    HW266292  13.528   4.344   6.294
54799SOL     OW66293  12.718   8.868  11.670
54799SOL    HW166294  12.708   8.921  11.590
54799SOL    HW266295  12.794   8.906  11.714
54800SOL     OW66296   0.440  14.132  10.181
54800SOL    HW166297   0.382  14.117  10.256
54800SOL    HW266298   0.382  14.170  10.114
54801SOL     OW66299   8.214   2.647   2.610
54801SOL    HW166300   8.244   2.556   2.613
54801SOL    HW266301   8.119   2.640   2.599
54802SOL     OW66302   6.700   2.341   7.588
54802SOL    HW166303   6.769   2.378   7.533
54802SOL    HW266304   6.745   2.310   7.666
54803SOL     OW66305  11.656   1.721   8.592
54803SOL    HW166306  11.685   1.656   8.656
54803SOL    HW266307  11.703   1.800   8.615
54804SOL     OW66308   0.722  11.805  13.200
54804SOL    HW166309   0.746  11.862  13.273
54804SOL    HW266310   0.650  11.850  13.157
54805SOL     OW66311   5.862  11.999   5.689
54805SOL    HW166312   5.906  12.015   5.606
54805SOL    HW266313   5.931  11.970   5.748
54806SOL     OW66314   9.427   7.218   2.334
54806SOL    HW166315   9.463   7.132   2.313
54806SOL    HW266316   9.399   7.211   2.425
54807SOL     OW66317   3.678   5.924   1.700
54807SOL    HW166318   3.717   6.011   1.698
54807SOL    HW266319   3.662   5.902   1.609
54808SOL     OW66320   0.412  11.788  11.648
54808SOL    HW166321   0.437  11.723  11.582
54808SOL    HW266322   0.410  11.871  11.601
54809SOL     OW66323  11.806   7.245   7.354
54809SOL    HW166324  11.854   7.204   7.426
54809SOL    HW266325  11.849   7.331   7.342
54810SOL     OW66326   0.597   4.045   7.503
54810SOL    HW166327   0.557   4.020   7.420
54810SOL    HW266328   0.655   4.118   7.481
54811SOL     OW66329   1.662   2.701   5.134
54811SOL    HW166330   1.725   2.630   5.124
54811SOL    HW266331   1.635   2.698   5.226
54812SOL     OW66332   4.575  10.414   1.062
54812SOL    HW166333   4.512  10.369   1.118
54812SOL    HW266334   4.528  10.493   1.033
54813SOL     OW66335   4.566   8.361   2.498
54813SOL    HW166336   4.636   8.406   2.451
54813SOL    HW266337   4.610   8.322   2.574
54814SOL     OW66338   0.411   5.892   9.096
54814SOL    HW166339   0.488   5.893   9.039
54814SOL    HW266340   0.350   5.832   9.053
54815SOL     OW66341   6.634   1.215  14.838
54815SOL    HW166342   6.539   1.208  14.844
54815SOL    HW266343   6.650   1.300  14.799
54816SOL     OW66344   3.439  11.107  13.047
54816SOL    HW166345   3.429  11.074  12.958
54816SOL    HW266346   3.365  11.069  13.095
54817SOL     OW66347   9.966   1.086  10.580
54817SOL    HW166348   9.950   1.171  10.621
54817SOL    HW266349  10.049   1.096  10.534
54818SOL     OW66350   8.637  12.243   2.369
54818SOL    HW166351   8.733  12.251   2.370
54818SOL    HW266352   8.617  12.211   2.281
54819SOL     OW66353  12.582   3.953   8.924
54819SOL    HW166354  12.578   3.864   8.889
54819SOL    HW266355  12.530   3.949   9.005
54820SOL     OW66356  12.806   2.563  11.038
54820SOL    HW166357  12.737   2.612  10.993
54820SOL    HW266358  12.887   2.597  11.001
54821SOL     OW66359   5.999   4.772   7.402
54821SOL    HW166360   5.943   4.709   7.447
54821SOL    HW266361   5.942   4.814   7.338
54822SOL     OW66362   6.697   3.812   8.048
54822SOL    HW166363   6.623   3.764   8.012
54822SOL    HW266364   6.772   3.785   7.995
54823SOL     OW66365   6.369  14.193  14.128
54823SOL    HW166366   6.316  14.158  14.056
54823SOL    HW266367   6.418  14.117  14.160
54824SOL     OW66368   6.780   8.395   0.290
54824SOL    HW166369   6.795   8.343   0.369
54824SOL    HW266370   6.715   8.460   0.316
54825SOL     OW66371   4.873   0.446  12.031
54825SOL    HW166372   4.852   0.383  12.100
54825SOL    HW266373   4.893   0.527  12.078
54826SOL     OW66374   0.025  14.641   6.933
54826SOL    HW166375   0.028  14.621   7.027
54826SOL    HW266376   0.116  14.649   6.907
54827SOL     OW66377   5.266   7.256  14.444
54827SOL    HW166378   5.259   7.287  14.535
54827SOL    HW266379   5.326   7.318  14.403
54828SOL     OW66380   2.937  12.962   9.849
54828SOL    HW166381   2.928  13.015   9.770
54828SOL    HW266382   2.888  13.010   9.916
54829SOL     OW66383  10.116   4.534   1.209
54829SOL    HW166384  10.119   4.519   1.114
54829SOL    HW266385  10.204   4.513   1.239
54830SOL     OW66386  11.752  11.195   5.318
54830SOL    HW166387  11.667  11.177   5.358
54830SOL    HW266388  11.808  11.218   5.392
54831SOL     OW66389   6.814   4.642   0.992
54831SOL    HW166390   6.845   4.623   0.904
54831SOL    HW266391   6.721   4.624   0.989
54832SOL     OW66392   8.650   2.896   3.748
54832SOL    HW166393   8.559   2.881   3.772
54832SOL    HW266394   8.651   2.984   3.711
54833SOL     OW66395   8.999  12.358   5.687
54833SOL    HW166396   8.972  12.266   5.694
54833SOL    HW266397   9.031  12.367   5.597
54834SOL     OW66398  12.059  14.021  11.250
54834SOL    HW166399  12.015  13.936  11.257
54834SOL    HW266400  12.017  14.075  11.318
54835SOL     OW66401   4.536   8.062  10.057
54835SOL    HW166402   4.457   8.101  10.019
54835SOL    HW266403   4.556   7.988  10.000
54836SOL     OW66404   8.282   8.595  12.186
54836SOL    HW166405   8.218   8.567  12.252
54836SOL    HW266406   8.334   8.517  12.169
54837SOL     OW66407   3.702  14.820  14.095
54837SOL    HW166408   3.754   0.013  14.129
54837SOL    HW266409   3.626  14.815  14.153
54838SOL     OW66410   5.265   2.369  14.604
54838SOL    HW166411   5.318   2.296  14.573
54838SOL    HW266412   5.183   2.329  14.633
54839SOL     OW66413  11.080   5.652  11.182
54839SOL    HW166414  11.079   5.726  11.121
54839SOL    HW266415  11.014   5.674  11.247
54840SOL     OW66416  14.848  11.705  11.571
54840SOL    HW166417  14.871  11.619  11.536
54840SOL    HW266418   0.035  11.764  11.537
54841SOL     OW66419   8.293   6.091   8.256
54841SOL    HW166420   8.379   6.125   8.231
54841SOL    HW266421   8.284   6.114   8.348
54842SOL     OW66422  12.126  12.009   1.414
54842SOL    HW166423  12.039  11.990   1.450
54842SOL    HW266424  12.155  11.925   1.377
54843SOL     OW66425  10.754  13.605  12.864
54843SOL    HW166426  10.845  13.617  12.837
54843SOL    HW266427  10.759  13.550  12.942
54844SOL     OW66428  13.679   5.359  10.993
54844SOL    HW166429  13.589   5.376  11.019
54844SOL    HW266430  13.720   5.445  10.988
54845SOL     OW66431  10.640   4.080   8.431
54845SOL    HW166432  10.605   4.168   8.446
54845SOL    HW266433  10.735   4.091   8.438
54846SOL     OW66434   6.631   3.157   7.851
54846SOL    HW166435   6.678   3.188   7.773
54846SOL    HW266436   6.700   3.145   7.917
54847SOL     OW66437   1.797  14.314   3.640
54847SOL    HW166438   1.723  14.286   3.693
54847SOL    HW266439   1.798  14.255   3.565
54848SOL     OW66440   2.903   7.552   8.360
54848SOL    HW166441   2.925   7.488   8.293
54848SOL    HW266442   2.857   7.622   8.313
54849SOL     OW66443  13.579   9.362   4.891
54849SOL    HW166444  13.546   9.434   4.945
54849SOL    HW266445  13.674   9.365   4.901
54850SOL     OW66446   5.621   5.770   0.061
54850SOL    HW166447   5.629   5.853   0.014
54850SOL    HW266448   5.572   5.713   0.001
54851SOL     OW66449  13.301   5.071   4.524
54851SOL    HW166450  13.241   5.140   4.552
54851SOL    HW266451  13.287   5.064   4.430
54852SOL     OW66452   4.279   6.422   4.012
54852SOL    HW166453   4.242   6.343   3.970
54852SOL    HW266454   4.334   6.388   4.082
54853SOL     OW66455   0.282   8.141  10.932
54853SOL    HW166456   0.250   8.172  10.847
54853SOL    HW266457   0.217   8.172  10.995
54854SOL     OW66458   0.266   5.557   1.064
54854SOL    HW166459   0.201   5.546   1.134
54854SOL    HW266460   0.214   5.562   0.984
54855SOL     OW66461   8.908   0.832  13.823
54855SOL    HW166462   8.854   0.813  13.901
54855SOL    HW266463   8.960   0.753  13.811
54856SOL     OW66464   8.645   4.829  11.347
54856SOL    HW166465   8.739   4.832  11.330
54856SOL    HW266466   8.629   4.900  11.410
54857SOL     OW66467  10.389  12.784  14.049
54857SOL    HW166468  10.374  12.696  14.013
54857SOL    HW266469  10.328  12.840  14.001
54858SOL     OW66470  10.088   7.400  14.705
54858SOL    HW166471  10.100   7.332  14.771
54858SOL    HW266472  10.174   7.442  14.698
54859SOL     OW66473  12.341   2.223   4.758
54859SOL    HW166474  12.332   2.277   4.836
54859SOL    HW266475  12.265   2.246   4.704
54860SOL     OW66476   2.296   1.540   0.496
54860SOL    HW166477   2.312   1.535   0.590
54860SOL    HW266478   2.383   1.536   0.456
54861SOL     OW66479   6.872   6.230   2.222
54861SOL    HW166480   6.922   6.168   2.169
54861SOL    HW266481   6.887   6.315   2.182
54862SOL     OW66482   2.332   2.279  14.393
54862SOL    HW166483   2.401   2.217  14.368
54862SOL    HW266484   2.262   2.264  14.329
54863SOL     OW66485   1.523   8.420   3.814
54863SOL    HW166486   1.611   8.457   3.805
54863SOL    HW266487   1.538   8.329   3.839
54864SOL     OW66488   3.770   3.829  13.572
54864SOL    HW166489   3.798   3.921  13.575
54864SOL    HW266490   3.765   3.803  13.664
54865SOL     OW66491  11.284  13.692   3.061
54865SOL    HW166492  11.286  13.760   2.993
54865SOL    HW266493  11.210  13.715   3.117
54866SOL     OW66494  12.990  10.024   9.011
54866SOL    HW166495  13.032  10.093   8.961
54866SOL    HW266496  13.055   9.999   9.077
54867SOL     OW66497   2.203   0.632   2.334
54867SOL    HW166498   2.210   0.727   2.343
54867SOL    HW266499   2.269   0.597   2.394
54868SOL     OW66500   0.098  12.960  13.010
54868SOL    HW166501   0.075  13.034  12.953
54868SOL    HW266502   0.105  12.886  12.950
54869SOL     OW66503   1.358  14.113   2.340
54869SOL    HW166504   1.369  14.127   2.247
54869SOL    HW266505   1.341  14.200   2.377
54870SOL     OW66506   5.012  10.723   8.574
54870SOL    HW166507   5.083  10.701   8.514
54870SOL    HW266508   4.995  10.816   8.559
54871SOL     OW66509   5.983   2.661   1.726
54871SOL    HW166510   5.970   2.625   1.814
54871SOL    HW266511   5.934   2.743   1.727
54872SOL     OW66512  11.310   0.346   3.969
54872SOL    HW166513  11.232   0.370   4.019
54872SOL    HW266514  11.344   0.429   3.935
54873SOL     OW66515   6.466  11.885   6.405
54873SOL    HW166516   6.492  11.905   6.495
54873SOL    HW266517   6.382  11.840   6.414
54874SOL     OW66518   1.262  13.364   5.871
54874SOL    HW166519   1.278  13.386   5.779
54874SOL    HW266520   1.215  13.440   5.906
54875SOL     OW66521   1.682  13.865   6.011
54875SOL    HW166522   1.726  13.787   6.046
54875SOL    HW266523   1.619  13.888   6.079
54876SOL     OW66524   0.949  12.462   9.170
54876SOL    HW166525   0.920  12.552   9.159
54876SOL    HW266526   0.871  12.409   9.151
54877SOL     OW66527   5.553  10.867  14.526
54877SOL    HW166528   5.530  10.806  14.596
54877SOL    HW266529   5.580  10.811  14.453
54878SOL     OW66530   2.092   8.594   0.639
54878SOL    HW166531   2.131   8.512   0.609
54878SOL    HW266532   2.073   8.580   0.731
54879SOL     OW66533   6.268  11.125   9.931
54879SOL    HW166534   6.336  11.072   9.972
54879SOL    HW266535   6.273  11.103   9.838
54880SOL     OW66536   5.024   0.161   2.354
54880SOL    HW166537   5.080   0.128   2.284
54880SOL    HW266538   5.035   0.256   2.351
54881SOL     OW66539  14.801   8.149   3.854
54881SOL    HW166540  14.867   8.182   3.792
54881SOL    HW266541  14.730   8.212   3.848
54882SOL     OW66542  12.494   2.696  13.658
54882SOL    HW166543  12.435   2.621  13.670
54882SOL    HW266544  12.507   2.730  13.746
54883SOL     OW66545  12.491   3.138   0.160
54883SOL    HW166546  12.439   3.059   0.176
54883SOL    HW266547  12.582   3.108   0.164
54884SOL     OW66548   9.607  11.031   5.712
54884SOL    HW166549   9.618  11.118   5.674
54884SOL    HW266550   9.521  11.033   5.755
54885SOL     OW66551  13.403   8.527   9.310
54885SOL    HW166552  13.336   8.486   9.255
54885SOL    HW266553  13.358   8.547   9.392
54886SOL     OW66554   9.766   8.486  13.195
54886SOL    HW166555   9.764   8.522  13.106
54886SOL    HW266556   9.674   8.481  13.221
54887SOL     OW66557   8.283   1.214   7.082
54887SOL    HW166558   8.236   1.185   7.004
54887SOL    HW266559   8.374   1.225   7.052
54888SOL     OW66560   9.874   1.392   7.201
54888SOL    HW166561   9.792   1.362   7.242
54888SOL    HW266562   9.847   1.420   7.114
54889SOL     OW66563  12.252   5.729  12.343
54889SOL    HW166564  12.162   5.697  12.342
54889SOL    HW266565  12.304   5.650  12.358
54890SOL     OW66566   8.895   8.661   3.717
54890SOL    HW166567   8.811   8.693   3.750
54890SOL    HW266568   8.933   8.735   3.671
54891SOL     OW66569   9.539   7.367   5.821
54891SOL    HW166570   9.593   7.399   5.893
54891SOL    HW266571   9.585   7.290   5.788
54892SOL     OW66572   2.220   8.849   0.426
54892SOL    HW166573   2.141   8.877   0.379
54892SOL    HW266574   2.198   8.861   0.519
54893SOL     OW66575  14.758   4.381   3.951
54893SOL    HW166576  14.835   4.380   3.893
54893SOL    HW266577  14.789   4.341   4.032
54894SOL     OW66578  10.162   4.002   5.666
54894SOL    HW166579  10.189   4.030   5.578
54894SOL    HW266580  10.242   3.967   5.706
54895SOL     OW66581   7.526   4.737   5.662
54895SOL    HW166582   7.620   4.726   5.675
54895SOL    HW266583   7.512   4.721   5.568
54896SOL     OW66584   4.968   2.488  12.580
54896SOL    HW166585   5.028   2.545  12.533
54896SOL    HW266586   4.886   2.538  12.584
54897SOL     OW66587   5.611  12.724  10.996
54897SOL    HW166588   5.658  12.651  11.037
54897SOL    HW266589   5.543  12.682  10.944
54898SOL     OW66590   7.868  11.322  13.125
54898SOL    HW166591   7.908  11.263  13.060
54898SOL    HW266592   7.787  11.352  13.082
54899SOL     OW66593  14.635  11.878   8.707
54899SOL    HW166594  14.573  11.833   8.764
54899SOL    HW266595  14.686  11.934   8.767
54900SOL     OW66596  13.169   6.923   3.118
54900SOL    HW166597  13.145   7.015   3.107
54900SOL    HW266598  13.138   6.901   3.206
54901SOL     OW66599   4.111  13.601   8.782
54901SOL    HW166600   4.143  13.675   8.835
54901SOL    HW266601   4.060  13.641   8.713
54902SOL     OW66602  13.797  13.905  11.825
54902SOL    HW166603  13.787  13.977  11.886
54902SOL    HW266604  13.860  13.846  11.867
54903SOL     OW66605   9.754  12.056  10.386
54903SOL    HW166606   9.785  12.001  10.314
54903SOL    HW266607   9.833  12.075  10.437
54904SOL     OW66608  13.878  14.096   7.053
54904SOL    HW166609  13.875  14.003   7.072
54904SOL    HW266610  13.899  14.102   6.960
54905SOL     OW66611  12.961   4.318   1.919
54905SOL    HW166612  12.946   4.226   1.939
54905SOL    HW266613  13.051   4.334   1.949
54906SOL     OW66614  10.797  12.383   4.368
54906SOL    HW166615  10.776  12.475   4.384
54906SOL    HW266616  10.885  12.372   4.404
54907SOL     OW66617   2.909  13.064   6.614
54907SOL    HW166618   2.916  13.114   6.532
54907SOL    HW266619   2.834  13.103   6.659
54908SOL     OW66620  13.872  13.065  14.438
54908SOL    HW166621  13.807  13.106  14.381
54908SOL    HW266622  13.956  13.084  14.396
54909SOL     OW66623  13.575   1.195   3.445
54909SOL    HW166624  13.500   1.186   3.386
54909SOL    HW266625  13.639   1.131   3.413
54910SOL     OW66626   7.151  10.653   9.148
54910SOL    HW166627   7.094  10.600   9.092
54910SOL    HW266628   7.235  10.653   9.102
54911SOL     OW66629   9.672   7.258   0.328
54911SOL    HW166630   9.586   7.256   0.370
54911SOL    HW266631   9.696   7.351   0.328
54912SOL     OW66632   1.722   4.541   9.700
54912SOL    HW166633   1.732   4.636   9.694
54912SOL    HW266634   1.811   4.507   9.689
54913SOL     OW66635  14.175  10.241   6.620
54913SOL    HW166636  14.161  10.167   6.560
54913SOL    HW266637  14.127  10.217   6.699
54914SOL     OW66638   1.861   5.324  12.288
54914SOL    HW166639   1.799   5.252  12.288
54914SOL    HW266640   1.813   5.398  12.250
54915SOL     OW66641   4.905  12.764  12.206
54915SOL    HW166642   4.995  12.760  12.239
54915SOL    HW266643   4.852  12.778  12.285
54916SOL     OW66644  10.558   8.297   6.797
54916SOL    HW166645  10.558   8.240   6.874
54916SOL    HW266646  10.639   8.274   6.751
54917SOL     OW66647   5.425   9.190   2.996
54917SOL    HW166648   5.351   9.132   2.979
54917SOL    HW266649   5.501   9.143   2.960
54918SOL     OW66650   3.039   3.103   8.185
54918SOL    HW166651   3.120   3.052   8.197
54918SOL    HW266652   2.969   3.038   8.184
54919SOL     OW66653   6.591  10.718   2.354
54919SOL    HW166654   6.668  10.775   2.351
54919SOL    HW266655   6.541  10.749   2.429
54920SOL     OW66656   0.909   5.000   1.645
54920SOL    HW166657   0.848   5.041   1.705
54920SOL    HW266658   0.979   5.065   1.634
54921SOL     OW66659  13.024   7.158  12.743
54921SOL    HW166660  13.019   7.201  12.829
54921SOL    HW266661  13.078   7.215  12.690
54922SOL     OW66662  12.391  14.031   7.763
54922SOL    HW166663  12.413  14.011   7.672
54922SOL    HW266664  12.302  14.064   7.760
54923SOL     OW66665  11.344   1.805   1.504
54923SOL    HW166666  11.327   1.726   1.453
54923SOL    HW266667  11.439   1.815   1.501
54924SOL     OW66668   6.865  14.174   4.979
54924SOL    HW166669   6.802  14.188   5.049
54924SOL    HW266670   6.944  14.219   5.008
54925SOL     OW66671  11.937   8.307  12.984
54925SOL    HW166672  11.988   8.260  13.049
54925SOL    HW266673  11.990   8.383  12.961
54926SOL     OW66674  12.984   2.839   2.489
54926SOL    HW166675  13.075   2.861   2.505
54926SOL    HW266676  12.934   2.909   2.532
54927SOL     OW66677  12.051   7.837   3.334
54927SOL    HW166678  11.999   7.794   3.267
54927SOL    HW266679  12.140   7.804   3.320
54928SOL     OW66680   2.281  10.569   1.775
54928SOL    HW166681   2.343  10.608   1.713
54928SOL    HW266682   2.316  10.481   1.791
54929SOL     OW66683   2.734  11.937   8.529
54929SOL    HW166684   2.754  11.862   8.474
54929SOL    HW266685   2.641  11.954   8.515
54930SOL     OW66686  11.455   8.784   7.382
54930SOL    HW166687  11.395   8.715   7.353
54930SOL    HW266688  11.403   8.837   7.442
54931SOL     OW66689   6.880   9.495  12.850
54931SOL    HW166690   6.858   9.535  12.934
54931SOL    HW266691   6.881   9.567  12.787
54932SOL     OW66692  11.724   9.040   2.434
54932SOL    HW166693  11.727   8.990   2.352
54932SOL    HW266694  11.815   9.043   2.463
54933SOL     OW66695   6.625  11.794   9.439
54933SOL    HW166696   6.613  11.860   9.371
54933SOL    HW266697   6.717  11.801   9.464
54934SOL     OW66698   2.668  10.691   1.311
54934SOL    HW166699   2.689  10.746   1.386
54934SOL    HW266700   2.732  10.716   1.244
54935SOL     OW66701   1.270   9.004   6.069
54935SOL    HW166702   1.182   9.014   6.033
54935SOL    HW266703   1.310   8.935   6.016
54936SOL     OW66704   8.711   0.807  10.175
54936SOL    HW166705   8.779   0.872  10.194
54936SOL    HW266706   8.667   0.840  10.097
54937SOL     OW66707  14.781   3.249  10.019
54937SOL    HW166708  14.845   3.178  10.032
54937SOL    HW266709  14.799   3.310  10.090
54938SOL     OW66710   3.560  10.516  13.065
54938SOL    HW166711   3.501  10.569  13.011
54938SOL    HW266712   3.580  10.572  13.140
54939SOL     OW66713   9.675   0.182   2.858
54939SOL    HW166714   9.678   0.116   2.927
54939SOL    HW266715   9.589   0.171   2.817
54940SOL     OW66716  14.272   0.084   7.055
54940SOL    HW166717  14.178   0.099   7.059
54940SOL    HW266718  14.299   0.125   6.973
54941SOL     OW66719  12.160   1.464  10.173
54941SOL    HW166720  12.105   1.393  10.140
54941SOL    HW266721  12.097   1.530  10.204
54942SOL     OW66722   3.530  14.044   2.055
54942SOL    HW166723   3.515  14.020   2.147
54942SOL    HW266724   3.449  14.087   2.028
54943SOL     OW66725  11.316   5.079   5.468
54943SOL    HW166726  11.222   5.067   5.457
54943SOL    HW266727  11.348   5.100   5.380
54944SOL     OW66728   2.864   5.658   0.225
54944SOL    HW166729   2.870   5.563   0.215
54944SOL    HW266730   2.955   5.688   0.224
54945SOL     OW66731  11.427  10.264   1.917
54945SOL    HW166732  11.334  10.258   1.894
54945SOL    HW266733  11.454  10.173   1.929
54946SOL     OW66734   2.041   3.547   8.596
54946SOL    HW166735   2.114   3.594   8.637
54946SOL    HW266736   1.965   3.603   8.609
54947SOL     OW66737   5.088   6.883   9.197
54947SOL    HW166738   5.120   6.823   9.130
54947SOL    HW266739   4.998   6.855   9.213
54948SOL     OW66740   8.750   5.911   8.092
54948SOL    HW166741   8.769   6.005   8.093
54948SOL    HW266742   8.669   5.904   8.042
54949SOL     OW66743   8.881   6.171  11.230
54949SOL    HW166744   8.946   6.184  11.299
54949SOL    HW266745   8.814   6.237  11.247
54950SOL     OW66746   0.806   5.565   2.894
54950SOL    HW166747   0.730   5.522   2.932
54950SOL    HW266748   0.856   5.597   2.969
54951SOL     OW66749   7.584   6.412   4.746
54951SOL    HW166750   7.607   6.336   4.694
54951SOL    HW266751   7.563   6.480   4.682
54952SOL     OW66752  12.289   8.727   0.712
54952SOL    HW166753  12.248   8.641   0.710
54952SOL    HW266754  12.332   8.732   0.797
54953SOL     OW66755  10.438   7.341   7.469
54953SOL    HW166756  10.473   7.394   7.540
54953SOL    HW266757  10.388   7.402   7.416
54954SOL     OW66758   3.500   0.913   6.638
54954SOL    HW166759   3.557   0.841   6.612
54954SOL    HW266760   3.454   0.938   6.558
54955SOL     OW66761  11.268  12.772   4.513
54955SOL    HW166762  11.187  12.747   4.558
54955SOL    HW266763  11.240  12.790   4.423
54956SOL     OW66764   2.673  13.826   4.458
54956SOL    HW166765   2.722  13.872   4.389
54956SOL    HW266766   2.729  13.752   4.482
54957SOL     OW66767  10.231  11.500   1.429
54957SOL    HW166768  10.216  11.585   1.389
54957SOL    HW266769  10.162  11.444   1.393
54958SOL     OW66770   8.727  12.341  13.624
54958SOL    HW166771   8.787  12.272  13.650
54958SOL    HW266772   8.651  12.295  13.588
54959SOL     OW66773  12.010   9.800   1.319
54959SOL    HW166774  11.976   9.888   1.299
54959SOL    HW266775  11.949   9.766   1.384
54960SOL     OW66776  11.583   5.376  12.854
54960SOL    HW166777  11.510   5.317  12.835
54960SOL    HW266778  11.544   5.446  12.906
54961SOL     OW66779   6.576  13.433   2.141
54961SOL    HW166780   6.536  13.406   2.059
54961SOL    HW266781   6.670  13.437   2.122
54962SOL     OW66782   0.463   1.321   7.626
54962SOL    HW166783   0.552   1.354   7.635
54962SOL    HW266784   0.408   1.399   7.632
54963SOL     OW66785  14.480  11.180   5.273
54963SOL    HW166786  14.442  11.105   5.318
54963SOL    HW266787  14.406  11.226   5.235
54964SOL     OW66788   9.346   3.906  11.049
54964SOL    HW166789   9.251   3.908  11.064
54964SOL    HW266790   9.361   3.828  10.996
54965SOL     OW66791  10.312   3.833  14.133
54965SOL    HW166792  10.345   3.906  14.081
54965SOL    HW266793  10.274   3.874  14.211
54966SOL     OW66794   3.087   1.356   6.454
54966SOL    HW166795   3.078   1.273   6.407
54966SOL    HW266796   3.113   1.419   6.387
54967SOL     OW66797   1.985  11.034  11.168
54967SOL    HW166798   1.940  11.030  11.253
54967SOL    HW266799   1.926  11.083  11.111
54968SOL     OW66800   6.308   2.880  13.882
54968SOL    HW166801   6.343   2.961  13.845
54968SOL    HW266802   6.262   2.839  13.810
54969SOL     OW66803   2.605   5.891   4.692
54969SOL    HW166804   2.662   5.815   4.701
54969SOL    HW266805   2.649   5.961   4.741
54970SOL     OW66806  12.652   6.461  14.170
54970SOL    HW166807  12.581   6.454  14.106
54970SOL    HW266808  12.623   6.407  14.244
54971SOL     OW66809   0.859   0.930   2.313
54971SOL    HW166810   0.856   1.015   2.357
54971SOL    HW266811   0.787   0.881   2.352
54972SOL     OW66812   7.957   9.205  10.458
54972SOL    HW166813   7.863   9.216  10.475
54972SOL    HW266814   7.962   9.188  10.364
54973SOL     OW66815   2.496  14.184  10.244
54973SOL    HW166816   2.463  14.265  10.284
54973SOL    HW266817   2.586  14.176  10.276
54974SOL     OW66818   9.379   5.891   7.077
54974SOL    HW166819   9.469   5.858   7.068
54974SOL    HW266820   9.380   5.940   7.159
54975SOL     OW66821   1.797   3.598   8.703
54975SOL    HW166822   1.774   3.523   8.648
54975SOL    HW266823   1.724   3.659   8.692
54976SOL     OW66824   1.113   9.308   0.597
54976SOL    HW166825   1.208   9.326   0.593
54976SOL    HW266826   1.091   9.317   0.689
54977SOL     OW66827  11.428  13.261   7.080
54977SOL    HW166828  11.401  13.244   7.170
54977SOL    HW266829  11.524  13.253   7.083
54978SOL     OW66830  11.697   6.405   1.440
54978SOL    HW166831  11.735   6.354   1.368
54978SOL    HW266832  11.626   6.350   1.473
54979SOL     OW66833  10.832   1.355  13.331
54979SOL    HW166834  10.908   1.317  13.376
54979SOL    HW266835  10.808   1.430  13.385
54980SOL     OW66836   9.276   7.081   3.595
54980SOL    HW166837   9.237   7.093   3.508
54980SOL    HW266838   9.238   7.151   3.648
54981SOL     OW66839   1.333   0.786   7.647
54981SOL    HW166840   1.252   0.741   7.626
54981SOL    HW266841   1.383   0.724   7.700
54982SOL     OW66842  14.204   8.894   5.588
54982SOL    HW166843  14.216   8.808   5.629
54982SOL    HW266844  14.245   8.886   5.502
54983SOL     OW66845   8.580  12.955  10.387
54983SOL    HW166846   8.588  13.035  10.335
54983SOL    HW266847   8.512  12.975  10.452
54984SOL     OW66848   1.619  10.910   2.222
54984SOL    HW166849   1.524  10.902   2.214
54984SOL    HW266850   1.642  10.856   2.297
54985SOL     OW66851   3.929   1.123  11.818
54985SOL    HW166852   4.014   1.156  11.849
54985SOL    HW266853   3.868   1.195  11.837
54986SOL     OW66854   1.534  12.647  13.452
54986SOL    HW166855   1.561  12.575  13.509
54986SOL    HW266856   1.559  12.618  13.364
54987SOL     OW66857  12.229  13.477   7.363
54987SOL    HW166858  12.263  13.558   7.401
54987SOL    HW266859  12.141  13.500   7.332
54988SOL     OW66860   9.580   6.755   9.424
54988SOL    HW166861   9.556   6.760   9.516
54988SOL    HW266862   9.532   6.679   9.390
54989SOL     OW66863   8.064   8.804   6.688
54989SOL    HW166864   8.055   8.814   6.783
54989SOL    HW266865   7.980   8.768   6.660
54990SOL     OW66866   1.510   4.382   8.182
54990SOL    HW166867   1.570   4.347   8.116
54990SOL    HW266868   1.562   4.382   8.263
54991SOL     OW66869  10.118   0.132  10.418
54991SOL    HW166870  10.184   0.065  10.399
54991SOL    HW266871  10.115   0.135  10.514
54992SOL     OW66872   1.164   2.687   1.248
54992SOL    HW166873   1.168   2.597   1.281
54992SOL    HW266874   1.139   2.739   1.324
54993SOL     OW66875  11.631  10.585  12.516
54993SOL    HW166876  11.706  10.629  12.557
54993SOL    HW266877  11.617  10.507  12.571
54994SOL     OW66878  12.341   1.470  12.090
54994SOL    HW166879  12.335   1.537  12.022
54994SOL    HW266880  12.380   1.394  12.046
54995SOL     OW66881   5.267  12.044  10.785
54995SOL    HW166882   5.259  12.024  10.691
54995SOL    HW266883   5.181  12.025  10.821
54996SOL     OW66884   6.531   5.770   3.356
54996SOL    HW166885   6.534   5.811   3.269
54996SOL    HW266886   6.473   5.827   3.407
54997SOL     OW66887  12.050  13.280   0.443
54997SOL    HW166888  12.079  13.363   0.480
54997SOL    HW266889  12.052  13.294   0.348
54998SOL     OW66890  12.671   2.513  12.677
54998SOL    HW166891  12.723   2.490  12.600
54998SOL    HW266892  12.736   2.518  12.748
54999SOL     OW66893  10.382   9.522   0.100
54999SOL    HW166894  10.399   9.594   0.159
54999SOL    HW266895  10.366   9.447   0.157
55000SOL     OW66896   5.137  13.554   3.896
55000SOL    HW166897   5.183  13.471   3.885
55000SOL    HW266898   5.097  13.549   3.983
55001SOL     OW66899   6.506   4.403   7.991
55001SOL    HW166900   6.525   4.350   7.914
55001SOL    HW266901   6.546   4.488   7.971
55002SOL     OW66902   4.512  11.112  10.935
55002SOL    HW166903   4.439  11.089  10.993
55002SOL    HW266904   4.534  11.031  10.890
55003SOL     OW66905   7.705   2.671  12.665
55003SOL    HW166906   7.652   2.623  12.601
55003SOL    HW266907   7.792   2.674  12.626
55004SOL     OW66908  12.410  10.797   9.906
55004SOL    HW166909  12.364  10.861   9.960
55004SOL    HW266910  12.460  10.849   9.843
55005SOL     OW66911   0.274  12.331   7.280
55005SOL    HW166912   0.363  12.319   7.247
55005SOL    HW266913   0.238  12.242   7.284
55006SOL     OW66914   4.323   4.546  13.174
55006SOL    HW166915   4.238   4.564  13.133
55006SOL    HW266916   4.364   4.631  13.184
55007SOL     OW66917   3.824   5.732  12.088
55007SOL    HW166918   3.782   5.757  12.170
55007SOL    HW266919   3.773   5.776  12.020
55008SOL     OW66920   7.193  13.841   9.285
55008SOL    HW166921   7.232  13.785   9.352
55008SOL    HW266922   7.187  13.786   9.207
55009SOL     OW66923  10.549   1.880   4.890
55009SOL    HW166924  10.576   1.948   4.828
55009SOL    HW266925  10.632   1.845   4.925
55010SOL     OW66926   2.505  11.546  14.632
55010SOL    HW166927   2.545  11.478  14.577
55010SOL    HW266928   2.432  11.579  14.580
55011SOL     OW66929  11.153   4.954   7.448
55011SOL    HW166930  11.137   4.956   7.542
55011SOL    HW266931  11.111   5.034   7.415
55012SOL     OW66932   3.482   3.777  14.614
55012SOL    HW166933   3.556   3.718  14.628
55012SOL    HW266934   3.416   3.723  14.571
55013SOL     OW66935   7.075   1.930  13.970
55013SOL    HW166936   6.984   1.906  13.991
55013SOL    HW266937   7.090   1.894  13.882
55014SOL     OW66938   6.922   5.260   5.506
55014SOL    HW166939   6.901   5.322   5.576
55014SOL    HW266940   6.925   5.174   5.550
55015SOL     OW66941  10.245   0.072  14.315
55015SOL    HW166942  10.260   0.085  14.409
55015SOL    HW266943  10.299   0.139  14.273
55016SOL     OW66944  12.423   8.203   9.097
55016SOL    HW166945  12.493   8.171   9.040
55016SOL    HW266946  12.467   8.220   9.181
55017SOL     OW66947  11.827  10.295   0.891
55017SOL    HW166948  11.911  10.286   0.936
55017SOL    HW266949  11.808  10.208   0.857
55018SOL     OW66950   4.322   5.456   1.185
55018SOL    HW166951   4.362   5.515   1.249
55018SOL    HW266952   4.395   5.404   1.152
55019SOL     OW66953  12.843   6.722   0.501
55019SOL    HW166954  12.775   6.706   0.566
55019SOL    HW266955  12.814   6.675   0.423
55020SOL     OW66956   2.147   7.419  12.834
55020SOL    HW166957   2.102   7.504  12.829
55020SOL    HW266958   2.227   7.437  12.883
55021SOL     OW66959  14.526   9.721   8.174
55021SOL    HW166960  14.587   9.777   8.126
55021SOL    HW266961  14.441   9.765   8.166
55022SOL     OW66962  13.459   2.935   6.005
55022SOL    HW166963  13.366   2.936   5.983
55022SOL    HW266964  13.502   2.910   5.923
55023SOL     OW66965   9.007   0.469   6.969
55023SOL    HW166966   8.967   0.545   7.011
55023SOL    HW266967   8.980   0.475   6.878
55024SOL     OW66968   3.790   7.266   4.371
55024SOL    HW166969   3.763   7.265   4.279
55024SOL    HW266970   3.838   7.184   4.382
55025SOL     OW66971   1.585   6.180  12.439
55025SOL    HW166972   1.655   6.230  12.398
55025SOL    HW266973   1.621   6.151  12.522
55026SOL     OW66974   6.126   6.281   3.873
55026SOL    HW166975   6.160   6.195   3.899
55026SOL    HW266976   6.196   6.342   3.895
55027SOL     OW66977   7.446   5.816   6.378
55027SOL    HW166978   7.420   5.860   6.297
55027SOL    HW266979   7.506   5.878   6.420
55028SOL     OW66980  11.302   5.491  11.275
55028SOL    HW166981  11.321   5.443  11.194
55028SOL    HW266982  11.240   5.559  11.248
55029SOL     OW66983   1.949   0.965   2.035
55029SOL    HW166984   1.918   1.038   1.981
55029SOL    HW266985   2.001   1.007   2.104
55030SOL     OW66986  13.377  12.751   3.886
55030SOL    HW166987  13.383  12.826   3.946
55030SOL    HW266988  13.290  12.715   3.903
55031SOL     OW66989  13.007  12.936   4.610
55031SOL    HW166990  13.044  12.999   4.549
55031SOL    HW266991  12.975  12.989   4.684
55032SOL     OW66992   1.911   6.400  13.632
55032SOL    HW166993   1.915   6.407  13.727
55032SOL    HW266994   1.972   6.466  13.600
55033SOL     OW66995   2.503   4.586   6.289
55033SOL    HW166996   2.470   4.636   6.363
55033SOL    HW266997   2.560   4.519   6.327
55034SOL     OW66998   3.597   0.885   6.126
55034SOL    HW166999   3.623   0.965   6.081
55034SOL    HW267000   3.590   0.820   6.057
55035SOL     OW67001  11.676   0.797   1.363
55035SOL    HW167002  11.727   0.718   1.381
55035SOL    HW267003  11.702   0.858   1.433
55036SOL     OW67004  13.244  11.314   6.021
55036SOL    HW167005  13.265  11.230   6.062
55036SOL    HW267006  13.177  11.292   5.956
55037SOL     OW67007  12.469  10.789   4.176
55037SOL    HW167008  12.554  10.746   4.189
55037SOL    HW267009  12.491  10.874   4.138
55038SOL     OW67010   4.600   9.465  10.708
55038SOL    HW167011   4.678   9.483  10.656
55038SOL    HW267012   4.530   9.513  10.664
55039SOL     OW67013   5.250  13.252   8.604
55039SOL    HW167014   5.188  13.232   8.674
55039SOL    HW267015   5.312  13.313   8.644
55040SOL     OW67016  14.310   7.462   6.130
55040SOL    HW167017  14.343   7.373   6.117
55040SOL    HW267018  14.239   7.452   6.194
55041SOL     OW67019  12.943  13.309  12.327
55041SOL    HW167020  12.944  13.242  12.259
55041SOL    HW267021  12.933  13.261  12.409
55042SOL     OW67022   7.382  11.850   1.139
55042SOL    HW167023   7.395  11.776   1.080
55042SOL    HW267024   7.359  11.810   1.223
55043SOL     OW67025   6.077  14.004   0.847
55043SOL    HW167026   6.038  14.070   0.790
55043SOL    HW267027   6.005  13.945   0.870
55044SOL     OW67028  12.500   6.566   3.842
55044SOL    HW167029  12.576   6.615   3.875
55044SOL    HW267030  12.536   6.512   3.772
55045SOL     OW67031   7.152   1.490   2.364
55045SOL    HW167032   7.206   1.567   2.343
55045SOL    HW267033   7.152   1.438   2.284
55046SOL     OW67034   6.377  12.381   9.962
55046SOL    HW167035   6.399  12.461  10.010
55046SOL    HW267036   6.366  12.314  10.029
55047SOL     OW67037  10.346   4.318   2.983
55047SOL    HW167038  10.437   4.331   3.012
55047SOL    HW267039  10.339   4.224   2.967
55048SOL     OW67040  12.064  14.345  10.852
55048SOL    HW167041  12.143  14.396  10.834
55048SOL    HW267042  12.093  14.278  10.914
55049SOL     OW67043   3.408   5.917   2.356
55049SOL    HW167044   3.428   5.884   2.268
55049SOL    HW267045   3.479   5.884   2.411
55050SOL     OW67046  12.742  10.470   0.208
55050SOL    HW167047  12.788  10.492   0.289
55050SOL    HW267048  12.652  10.455   0.236
55051SOL     OW67049   0.068  11.451   5.906
55051SOL    HW167050   0.104  11.381   5.960
55051SOL    HW267051   0.126  11.525   5.921
55052SOL     OW67052  14.469  12.622   2.775
55052SOL    HW167053  14.415  12.630   2.696
55052SOL    HW267054  14.406  12.603   2.845
55053SOL     OW67055   9.252   6.497  13.504
55053SOL    HW167056   9.271   6.500  13.598
55053SOL    HW267057   9.234   6.588  13.480
55054SOL     OW67058   5.082   7.766   0.092
55054SOL    HW167059   5.153   7.798   0.036
55054SOL    HW267060   5.078   7.828   0.164
55055SOL     OW67061  10.857  12.255  12.237
55055SOL    HW167062  10.853  12.285  12.328
55055SOL    HW267063  10.944  12.280  12.208
55056SOL     OW67064   9.711   6.683   2.478
55056SOL    HW167065   9.666   6.743   2.537
55056SOL    HW267066   9.659   6.685   2.397
55057SOL     OW67067  11.747   7.034  14.292
55057SOL    HW167068  11.698   7.029  14.374
55057SOL    HW267069  11.816   7.098  14.310
55058SOL     OW67070   3.180   5.002  14.592
55058SOL    HW167071   3.259   4.971  14.637
55058SOL    HW267072   3.212   5.039  14.510
55059SOL     OW67073  11.494   1.773   0.482
55059SOL    HW167074  11.511   1.866   0.466
55059SOL    HW267075  11.562   1.747   0.544
55060SOL     OW67076  14.000  13.888  13.964
55060SOL    HW167077  14.015  13.794  13.954
55060SOL    HW267078  14.033  13.908  14.051
55061SOL     OW67079   5.665   9.824   1.442
55061SOL    HW167080   5.749   9.778   1.443
55061SOL    HW267081   5.687   9.915   1.456
55062SOL     OW67082   3.378   2.106  11.658
55062SOL    HW167083   3.470   2.080  11.664
55062SOL    HW267084   3.373   2.188  11.707
55063SOL     OW67085  13.652   5.978   6.098
55063SOL    HW167086  13.666   5.909   6.032
55063SOL    HW267087  13.725   5.965   6.159
55064SOL     OW67088   0.779  10.330  12.011
55064SOL    HW167089   0.784  10.253  11.954
55064SOL    HW267090   0.690  10.329  12.045
55065SOL     OW67091   8.924   5.084   5.968
55065SOL    HW167092   8.878   5.006   5.997
55065SOL    HW267093   8.972   5.114   6.045
55066SOL     OW67094   0.298  13.114   8.911
55066SOL    HW167095   0.310  13.204   8.881
55066SOL    HW267096   0.342  13.111   8.996
55067SOL     OW67097  13.072  13.983   1.539
55067SOL    HW167098  13.160  14.011   1.563
55067SOL    HW267099  13.028  13.966   1.622
55068SOL     OW67100   9.811   5.337   4.335
55068SOL    HW167101   9.863   5.352   4.414
55068SOL    HW267102   9.721   5.332   4.366
55069SOL     OW67103   4.447   0.589  13.704
55069SOL    HW167104   4.393   0.662  13.734
55069SOL    HW267105   4.417   0.514  13.756
55070SOL     OW67106   2.366  12.523   7.283
55070SOL    HW167107   2.303  12.506   7.213
55070SOL    HW267108   2.318  12.506   7.364
55071SOL     OW67109   7.116  13.761   5.017
55071SOL    HW167110   7.122  13.770   5.112
55071SOL    HW267111   7.181  13.822   4.982
55072SOL     OW67112  11.861   3.803   3.822
55072SOL    HW167113  11.793   3.857   3.863
55072SOL    HW267114  11.814   3.728   3.787
55073SOL     OW67115   4.483   5.498  13.295
55073SOL    HW167116   4.421   5.461  13.358
55073SOL    HW267117   4.444   5.582  13.270
55074SOL     OW67118   5.746  10.668   1.747
55074SOL    HW167119   5.763  10.617   1.826
55074SOL    HW267120   5.786  10.753   1.764
55075SOL     OW67121   7.607  11.102  10.022
55075SOL    HW167122   7.686  11.152  10.000
55075SOL    HW267123   7.565  11.085   9.937
55076SOL     OW67124   9.930   4.825   9.088
55076SOL    HW167125   9.981   4.900   9.059
55076SOL    HW267126   9.930   4.765   9.014
55077SOL     OW67127   7.577   5.337  11.062
55077SOL    HW167128   7.505   5.289  11.021
55077SOL    HW267129   7.542   5.425  11.076
55078SOL     OW67130   3.223   8.338   6.771
55078SOL    HW167131   3.152   8.383   6.725
55078SOL    HW267132   3.192   8.333   6.862
55079SOL     OW67133   4.633   6.151   2.763
55079SOL    HW167134   4.596   6.110   2.685
55079SOL    HW267135   4.631   6.082   2.830
55080SOL     OW67136   5.342   2.627  13.235
55080SOL    HW167137   5.347   2.618  13.140
55080SOL    HW267138   5.342   2.722  13.250
55081SOL     OW67139  10.519  11.874   3.986
55081SOL    HW167140  10.544  11.799   4.040
55081SOL    HW267141  10.476  11.934   4.046
55082SOL     OW67142   2.284   5.452  11.291
55082SOL    HW167143   2.231   5.433  11.214
55082SOL    HW267144   2.309   5.366  11.325
55083SOL     OW67145   9.764   5.785   4.724
55083SOL    HW167146   9.859   5.778   4.728
55083SOL    HW267147   9.732   5.696   4.740
55084SOL     OW67148  10.733  10.796   9.768
55084SOL    HW167149  10.648  10.838   9.784
55084SOL    HW267150  10.793  10.870   9.753
55085SOL     OW67151  12.437   9.182   5.316
55085SOL    HW167152  12.399   9.150   5.398
55085SOL    HW267153  12.366   9.172   5.252
55086SOL     OW67154   2.264   8.500  14.576
55086SOL    HW167155   2.258   8.443  14.499
55086SOL    HW267156   2.308   8.446  14.642
55087SOL     OW67157  12.913   0.055   1.140
55087SOL    HW167158  12.896   0.148   1.154
55087SOL    HW267159  12.883   0.013   1.221
55088SOL     OW67160   2.297  10.556  11.635
55088SOL    HW167161   2.334  10.511  11.559
55088SOL    HW267162   2.203  10.547  11.625
55089SOL     OW67163  14.182   0.352   7.765
55089SOL    HW167164  14.162   0.360   7.672
55089SOL    HW267165  14.173   0.441   7.799
55090SOL     OW67166   1.799   5.871   5.269
55090SOL    HW167167   1.800   5.779   5.246
55090SOL    HW267168   1.762   5.874   5.357
55091SOL     OW67169   7.018   2.470  13.405
55091SOL    HW167170   7.024   2.392  13.459
55091SOL    HW267171   6.938   2.513  13.434
55092SOL     OW67172   2.250   2.429   8.054
55092SOL    HW167173   2.303   2.506   8.037
55092SOL    HW267174   2.312   2.363   8.084
55093SOL     OW67175   5.359  12.286  11.168
55093SOL    HW167176   5.400  12.240  11.242
55093SOL    HW267177   5.370  12.379  11.189
55094SOL     OW67178   1.363   1.446  10.668
55094SOL    HW167179   1.419   1.516  10.635
55094SOL    HW267180   1.277   1.487  10.679
55095SOL     OW67181   9.581  13.985   2.043
55095SOL    HW167182   9.523  13.986   2.119
55095SOL    HW267183   9.535  13.932   1.978
55096SOL     OW67184   9.389   4.996   8.354
55096SOL    HW167185   9.402   4.917   8.302
55096SOL    HW267186   9.381   5.066   8.289
55097SOL     OW67187  10.022   8.796   7.059
55097SOL    HW167188   9.972   8.875   7.077
55097SOL    HW267189  10.068   8.777   7.141
55098SOL     OW67190   4.735   2.270  13.383
55098SOL    HW167191   4.805   2.288  13.321
55098SOL    HW267192   4.764   2.308  13.466
55099SOL     OW67193   3.276  11.471  10.924
55099SOL    HW167194   3.181  11.464  10.921
55099SOL    HW267195   3.307  11.397  10.872
55100SOL     OW67196  13.567   6.785   0.067
55100SOL    HW167197  13.625   6.859   0.051
55100SOL    HW267198  13.577   6.729  14.870
55101SOL     OW67199   2.387  14.422  10.334
55101SOL    HW167200   2.417  14.509  10.359
55101SOL    HW267201   2.348  14.434  10.247
55102SOL     OW67202   8.077   3.864   7.040
55102SOL    HW167203   8.046   3.847   7.129
55102SOL    HW267204   8.018   3.813   6.984
55103SOL     OW67205   4.668   3.916   9.749
55103SOL    HW167206   4.625   3.993   9.712
55103SOL    HW267207   4.710   3.947   9.829
55104SOL     OW67208   5.673   2.385   8.714
55104SOL    HW167209   5.635   2.463   8.754
55104SOL    HW267210   5.761   2.412   8.687
55105SOL     OW67211   7.723   8.457  13.570
55105SOL    HW167212   7.671   8.537  13.561
55105SOL    HW267213   7.802   8.484  13.616
55106SOL     OW67214  14.408  12.390  10.698
55106SOL    HW167215  14.398  12.444  10.619
55106SOL    HW267216  14.371  12.444  10.768
55107SOL     OW67217  10.011   9.298   9.311
55107SOL    HW167218   9.972   9.260   9.232
55107SOL    HW267219  10.011   9.227   9.374
55108SOL     OW67220  14.773  12.755  12.131
55108SOL    HW167221  14.709  12.742  12.061
55108SOL    HW267222  14.767  12.848  12.151
55109SOL     OW67223   3.813  10.036   3.620
55109SOL    HW167224   3.899  10.049   3.662
55109SOL    HW267225   3.760  10.110   3.650
55110SOL     OW67226   6.649   0.672   0.488
55110SOL    HW167227   6.670   0.624   0.408
55110SOL    HW267228   6.621   0.758   0.458
55111SOL     OW67229   5.914  11.129   9.014
55111SOL    HW167230   5.943  11.119   8.923
55111SOL    HW267231   5.819  11.115   9.011
55112SOL     OW67232  13.043  12.621   2.202
55112SOL    HW167233  12.966  12.568   2.225
55112SOL    HW267234  13.089  12.569   2.136
55113SOL     OW67235   1.875   9.565   5.990
55113SOL    HW167236   1.933   9.600   6.058
55113SOL    HW267237   1.798   9.622   5.993
55114SOL     OW67238   9.412   0.333  14.069
55114SOL    HW167239   9.489   0.337  14.125
55114SOL    HW267240   9.348   0.283  14.119
55115SOL     OW67241  13.921   7.244   7.770
55115SOL    HW167242  13.934   7.203   7.685
55115SOL    HW267243  14.008   7.277   7.794
55116SOL     OW67244   9.328   1.632   4.803
55116SOL    HW167245   9.284   1.708   4.764
55116SOL    HW267246   9.310   1.560   4.743
55117SOL     OW67247   7.597   7.624   4.442
55117SOL    HW167248   7.581   7.535   4.472
55117SOL    HW267249   7.683   7.646   4.478
55118SOL     OW67250  12.800   1.143   2.368
55118SOL    HW167251  12.865   1.177   2.429
55118SOL    HW267252  12.849   1.125   2.288
55119SOL     OW67253   7.259   5.554   4.148
55119SOL    HW167254   7.229   5.494   4.217
55119SOL    HW267255   7.299   5.627   4.196
55120SOL     OW67256   9.873   7.953   1.999
55120SOL    HW167257   9.824   7.964   2.080
55120SOL    HW267258   9.827   7.883   1.952
55121SOL     OW67259  13.506  10.803   0.117
55121SOL    HW167260  13.553  10.812   0.200
55121SOL    HW267261  13.480  10.711   0.114
55122SOL     OW67262   5.024   4.617  13.262
55122SOL    HW167263   4.944   4.667  13.273
55122SOL    HW267264   5.031   4.602  13.167
55123SOL     OW67265   7.859  13.659   1.664
55123SOL    HW167266   7.921  13.596   1.626
55123SOL    HW267267   7.781  13.651   1.609
55124SOL     OW67268  14.866   5.620   6.075
55124SOL    HW167269  14.843   5.530   6.053
55124SOL    HW267270  14.782   5.665   6.083
55125SOL     OW67271   0.875   5.115   6.049
55125SOL    HW167272   0.920   5.097   5.966
55125SOL    HW267273   0.863   5.210   6.049
55126SOL     OW67274   4.880   2.812   3.669
55126SOL    HW167275   4.868   2.905   3.691
55126SOL    HW267276   4.811   2.767   3.717
55127SOL     OW67277  12.519  13.741   1.140
55127SOL    HW167278  12.597  13.762   1.090
55127SOL    HW267279  12.504  13.648   1.124
55128SOL     OW67280  10.639   2.541   4.983
55128SOL    HW167281  10.606   2.519   4.896
55128SOL    HW267282  10.570   2.594   5.022
55129SOL     OW67283   4.792   3.870  13.448
55129SOL    HW167284   4.834   3.830  13.524
55129SOL    HW267285   4.843   3.950  13.432
55130SOL     OW67286   7.185   6.663   1.572
55130SOL    HW167287   7.188   6.677   1.477
55130SOL    HW267288   7.276   6.646   1.596
55131SOL     OW67289   8.728   6.107  10.491
55131SOL    HW167290   8.726   6.066  10.405
55131SOL    HW267291   8.810   6.156  10.492
55132SOL     OW67292  10.675   9.428  14.101
55132SOL    HW167293  10.697   9.340  14.134
55132SOL    HW267294  10.740   9.445  14.033
55133SOL     OW67295   1.019  12.076   7.994
55133SOL    HW167296   1.041  12.158   7.949
55133SOL    HW267297   0.926  12.064   7.977
55134SOL     OW67298   4.096  11.727   0.407
55134SOL    HW167299   4.052  11.647   0.433
55134SOL    HW267300   4.120  11.770   0.489
55135SOL     OW67301   0.456  11.929  13.095
55135SOL    HW167302   0.398  11.975  13.034
55135SOL    HW267303   0.397  11.879  13.152
55136SOL     OW67304   8.873  11.774   2.975
55136SOL    HW167305   8.900  11.840   3.039
55136SOL    HW267306   8.953  11.725   2.956
55137SOL     OW67307  13.310   1.676  14.152
55137SOL    HW167308  13.237   1.737  14.138
55137SOL    HW267309  13.331   1.685  14.245
55138SOL     OW67310  14.043   8.484   5.315
55138SOL    HW167311  13.969   8.433   5.283
55138SOL    HW267312  14.014   8.516   5.400
55139SOL     OW67313   2.217   5.049   8.836
55139SOL    HW167314   2.132   5.078   8.803
55139SOL    HW267315   2.197   4.971   8.888
55140SOL     OW67316  10.748   4.703   1.808
55140SOL    HW167317  10.797   4.665   1.734
55140SOL    HW267318  10.752   4.798   1.792
55141SOL     OW67319   9.869   8.328   2.962
55141SOL    HW167320   9.842   8.419   2.951
55141SOL    HW267321   9.801   8.277   2.918
55142SOL     OW67322  11.890   0.918   2.737
55142SOL    HW167323  11.911   0.855   2.668
55142SOL    HW267324  11.832   0.870   2.796
55143SOL     OW67325   0.708  11.121   5.747
55143SOL    HW167326   0.796  11.141   5.713
55143SOL    HW267327   0.714  11.138   5.841
55144SOL     OW67328  13.366  13.264  11.420
55144SOL    HW167329  13.395  13.192  11.476
55144SOL    HW267330  13.434  13.331  11.430
55145SOL     OW67331  14.556   6.765  10.791
55145SOL    HW167332  14.592   6.773  10.879
55145SOL    HW267333  14.575   6.674  10.766
55146SOL     OW67334   7.353   1.078   7.229
55146SOL    HW167335   7.332   1.048   7.317
55146SOL    HW267336   7.447   1.062   7.220
55147SOL     OW67337   2.552  10.234   5.392
55147SOL    HW167338   2.634  10.260   5.434
55147SOL    HW267339   2.486  10.292   5.430
55148SOL     OW67340   7.068   9.481   5.681
55148SOL    HW167341   7.036   9.571   5.672
55148SOL    HW267342   6.991   9.426   5.668
55149SOL     OW67343  11.810   5.838   4.461
55149SOL    HW167344  11.847   5.755   4.432
55149SOL    HW267345  11.775   5.878   4.381
55150SOL     OW67346   9.478   3.731   2.236
55150SOL    HW167347   9.493   3.680   2.156
55150SOL    HW267348   9.413   3.680   2.284
55151SOL     OW67349   2.115  11.464  12.575
55151SOL    HW167350   2.183  11.506  12.522
55151SOL    HW267351   2.085  11.533  12.635
55152SOL     OW67352   9.413  14.648   5.923
55152SOL    HW167353   9.354  14.724   5.919
55152SOL    HW267354   9.493  14.677   5.879
55153SOL     OW67355  12.814   5.268   1.687
55153SOL    HW167356  12.782   5.293   1.773
55153SOL    HW267357  12.901   5.231   1.704
55154SOL     OW67358  10.758   9.674  11.606
55154SOL    HW167359  10.788   9.661  11.516
55154SOL    HW267360  10.672   9.715  11.597
55155SOL     OW67361  11.831  11.340   3.154
55155SOL    HW167362  11.797  11.325   3.066
55155SOL    HW267363  11.783  11.416   3.186
55156SOL     OW67364  14.507   4.207   6.809
55156SOL    HW167365  14.564   4.257   6.750
55156SOL    HW267366  14.419   4.222   6.775
55157SOL     OW67367  10.041   3.250   5.188
55157SOL    HW167368   9.998   3.266   5.272
55157SOL    HW267369   9.974   3.268   5.122
55158SOL     OW67370   2.918  14.504  13.236
55158SOL    HW167371   2.825  14.503  13.216
55158SOL    HW267372   2.937  14.414  13.264
55159SOL     OW67373  13.878   9.275  13.906
55159SOL    HW167374  13.963   9.309  13.936
55159SOL    HW267375  13.848   9.220  13.978
55160SOL     OW67376   3.375   8.339   6.546
55160SOL    HW167377   3.305   8.335   6.480
55160SOL    HW267378   3.328   8.338   6.630
55161SOL     OW67379   8.360  13.174  14.459
55161SOL    HW167380   8.344  13.268  14.451
55161SOL    HW267381   8.384  13.162  14.550
55162SOL     OW67382   1.190   9.776   1.684
55162SOL    HW167383   1.269   9.782   1.630
55162SOL    HW267384   1.141   9.703   1.647
55163SOL     OW67385   9.241   8.561   2.978
55163SOL    HW167386   9.244   8.510   3.060
55163SOL    HW267387   9.202   8.501   2.915
55164SOL     OW67388  10.223   8.928   3.354
55164SOL    HW167389  10.212   9.008   3.406
55164SOL    HW267390  10.173   8.944   3.274
55165SOL     OW67391  13.045  12.287   5.914
55165SOL    HW167392  13.108  12.220   5.888
55165SOL    HW267393  13.003  12.251   5.992
55166SOL     OW67394   3.494   7.837  11.120
55166SOL    HW167395   3.548   7.849  11.198
55166SOL    HW267396   3.445   7.918  11.111
55167SOL     OW67397   8.498  10.331  14.755
55167SOL    HW167398   8.557  10.297  14.687
55167SOL    HW267399   8.522  10.281  14.833
55168SOL     OW67400   0.399   6.561   4.947
55168SOL    HW167401   0.435   6.473   4.937
55168SOL    HW267402   0.439   6.594   5.028
55169SOL     OW67403   9.948   8.513  10.037
55169SOL    HW167404   9.879   8.447  10.047
55169SOL    HW267405   9.957   8.552  10.124
55170SOL     OW67406  13.427   8.769   8.529
55170SOL    HW167407  13.506   8.722   8.556
55170SOL    HW267408  13.436   8.855   8.571
55171SOL     OW67409  10.147  11.682  11.002
55171SOL    HW167410  10.066  11.702  10.953
55171SOL    HW267411  10.160  11.758  11.058
55172SOL     OW67412   2.826   8.011  13.423
55172SOL    HW167413   2.843   8.104  13.435
55172SOL    HW267414   2.849   7.971  13.507
55173SOL     OW67415  14.406   2.885   4.389
55173SOL    HW167416  14.331   2.835   4.356
55173SOL    HW267417  14.395   2.882   4.484
55174SOL     OW67418   9.323   6.451  14.305
55174SOL    HW167419   9.287   6.417  14.387
55174SOL    HW267420   9.342   6.543  14.324
55175SOL     OW67421   3.870   8.162   8.241
55175SOL    HW167422   3.955   8.143   8.280
55175SOL    HW267423   3.833   8.231   8.297
55176SOL     OW67424   8.893  12.511   2.373
55176SOL    HW167425   8.836  12.567   2.320
55176SOL    HW267426   8.977  12.557   2.376
55177SOL     OW67427   5.814  10.725   8.822
55177SOL    HW167428   5.893  10.774   8.796
55177SOL    HW267429   5.747  10.756   8.761
55178SOL     OW67430   4.337  12.049   1.252
55178SOL    HW167431   4.303  12.127   1.296
55178SOL    HW267432   4.262  11.989   1.249
55179SOL     OW67433   2.091   1.097   0.497
55179SOL    HW167434   2.032   1.159   0.455
55179SOL    HW267435   2.136   1.148   0.564
55180SOL     OW67436   7.128   6.851   5.876
55180SOL    HW167437   7.164   6.776   5.830
55180SOL    HW267438   7.177   6.855   5.958
55181SOL     OW67439  13.606   8.713   7.200
55181SOL    HW167440  13.528   8.705   7.145
55181SOL    HW267441  13.656   8.633   7.181
55182SOL     OW67442   7.459  12.538   7.283
55182SOL    HW167443   7.436  12.446   7.269
55182SOL    HW267444   7.541  12.550   7.235
55183SOL     OW67445   7.960   3.414   9.861
55183SOL    HW167446   8.022   3.487   9.862
55183SOL    HW267447   8.013   3.337   9.880
55184SOL     OW67448  13.304   1.956   5.442
55184SOL    HW167449  13.214   1.983   5.461
55184SOL    HW267450  13.302   1.861   5.449
55185SOL     OW67451   4.400   8.361  13.807
55185SOL    HW167452   4.473   8.396  13.857
55185SOL    HW267453   4.322   8.394  13.853
55186SOL     OW67454  13.142   4.881   8.542
55186SOL    HW167455  13.119   4.930   8.463
55186SOL    HW267456  13.059   4.863   8.585
55187SOL     OW67457   8.790  12.773  12.959
55187SOL    HW167458   8.799  12.682  12.987
55187SOL    HW267459   8.725  12.810  13.018
55188SOL     OW67460  10.971   1.895   2.602
55188SOL    HW167461  11.024   1.844   2.541
55188SOL    HW267462  10.972   1.844   2.683
55189SOL     OW67463  11.958   6.600   0.168
55189SOL    HW167464  11.920   6.578   0.083
55189SOL    HW267465  12.001   6.520   0.197
55190SOL     OW67466   5.333   5.065   3.748
55190SOL    HW167467   5.377   4.981   3.738
55190SOL    HW267468   5.262   5.048   3.810
55191SOL     OW67469   0.416  13.101   9.177
55191SOL    HW167470   0.420  13.006   9.185
55191SOL    HW267471   0.469  13.133   9.249
55192SOL     OW67472   5.956   6.691   5.363
55192SOL    HW167473   5.987   6.670   5.275
55192SOL    HW267474   5.887   6.627   5.380
55193SOL     OW67475   3.198   5.536  14.379
55193SOL    HW167476   3.186   5.483  14.458
55193SOL    HW267477   3.234   5.619  14.410
55194SOL     OW67478  14.764   4.057   5.815
55194SOL    HW167479  14.813   3.989   5.860
55194SOL    HW267480  14.828   4.099   5.758
55195SOL     OW67481  10.273  10.614   3.080
55195SOL    HW167482  10.188  10.650   3.103
55195SOL    HW267483  10.301  10.568   3.159
55196SOL     OW67484  14.399   1.296  11.459
55196SOL    HW167485  14.457   1.354  11.409
55196SOL    HW267486  14.440   1.288  11.544
55197SOL     OW67487  12.561   3.255   1.438
55197SOL    HW167488  12.587   3.340   1.403
55197SOL    HW267489  12.465   3.259   1.442
55198SOL     OW67490   6.534   3.197  10.797
55198SOL    HW167491   6.600   3.237  10.740
55198SOL    HW267492   6.527   3.257  10.872
55199SOL     OW67493  13.204   1.486   6.713
55199SOL    HW167494  13.189   1.578   6.688
55199SOL    HW267495  13.211   1.488   6.808
55200SOL     OW67496   4.754  14.061   2.630
55200SOL    HW167497   4.836  14.081   2.675
55200SOL    HW267498   4.781  14.012   2.553
55201SOL     OW67499   4.836   4.465  13.049
55201SOL    HW167500   4.760   4.475  13.106
55201SOL    HW267501   4.809   4.397  12.986
55202SOL     OW67502  13.038   3.741   2.866
55202SOL    HW167503  12.990   3.785   2.795
55202SOL    HW267504  12.974   3.735   2.937
55203SOL     OW67505   6.226   0.602  14.234
55203SOL    HW167506   6.223   0.665  14.306
55203SOL    HW267507   6.135   0.576  14.222
55204SOL     OW67508   0.624   5.798   1.717
55204SOL    HW167509   0.708   5.780   1.761
55204SOL    HW267510   0.595   5.881   1.755
55205SOL     OW67511   4.434   1.919   7.691
55205SOL    HW167512   4.486   1.998   7.677
55205SOL    HW267513   4.376   1.914   7.615
55206SOL     OW67514  14.772   2.984   3.379
55206SOL    HW167515  14.843   3.002   3.318
55206SOL    HW267516  14.709   3.055   3.365
55207SOL     OW67517   7.302  13.206  10.407
55207SOL    HW167518   7.353  13.269  10.459
55207SOL    HW267519   7.323  13.121  10.447
55208SOL     OW67520   3.038   2.549   1.810
55208SOL    HW167521   3.108   2.491   1.779
55208SOL    HW267522   3.004   2.590   1.731
55209SOL     OW67523  13.871   0.054  14.055
55209SOL    HW167524  13.893   0.031  13.965
55209SOL    HW267525  13.941   0.015  14.107
55210SOL     OW67526   2.355   8.092   6.690
55210SOL    HW167527   2.414   8.039   6.744
55210SOL    HW267528   2.389   8.181   6.698
55211SOL     OW67529   7.607  12.762  10.628
55211SOL    HW167530   7.589  12.713  10.709
55211SOL    HW267531   7.702  12.760  10.620
55212SOL     OW67532  14.811   9.351  14.356
55212SOL    HW167533  14.817   9.366  14.262
55212SOL    HW267534   0.011   9.301  14.377
55213SOL     OW67535   4.105  14.331  11.608
55213SOL    HW167536   4.121  14.246  11.650
55213SOL    HW267537   4.011  14.345  11.618
55214SOL     OW67538   4.474   7.804   2.272
55214SOL    HW167539   4.475   7.894   2.239
55214SOL    HW267540   4.517   7.753   2.203
55215SOL     OW67541   3.822   9.272  10.330
55215SOL    HW167542   3.853   9.277  10.240
55215SOL    HW267543   3.895   9.233  10.378
55216SOL     OW67544   9.637   0.814  13.097
55216SOL    HW167545   9.572   0.880  13.072
55216SOL    HW267546   9.721   0.860  13.090
55217SOL     OW67547   7.102   0.812  10.250
55217SOL    HW167548   7.112   0.784  10.342
55217SOL    HW267549   7.013   0.783  10.226
55218SOL     OW67550   5.237  11.950   8.003
55218SOL    HW167551   5.161  11.961   8.059
55218SOL    HW267552   5.234  12.024   7.942
55219SOL     OW67553   9.478   8.194  14.696
55219SOL    HW167554   9.463   8.196  14.601
55219SOL    HW267555   9.522   8.277  14.714
55220SOL     OW67556   5.381   8.822   0.999
55220SOL    HW167557   5.365   8.909   1.035
55220SOL    HW267558   5.454   8.834   0.938
55221SOL     OW67559  10.229   9.471   3.942
55221SOL    HW167560  10.152   9.520   3.971
55221SOL    HW267561  10.221   9.386   3.984
55222SOL     OW67562   9.139   6.032  10.716
55222SOL    HW167563   9.119   6.001  10.627
55222SOL    HW267564   9.076   6.102  10.731
55223SOL     OW67565  14.414  10.142   2.145
55223SOL    HW167566  14.374  10.210   2.198
55223SOL    HW267567  14.390  10.060   2.188
55224SOL     OW67568  14.018   6.356   1.899
55224SOL    HW167569  13.997   6.292   1.966
55224SOL    HW267570  14.002   6.441   1.940
55225SOL     OW67571  13.026   7.275   2.299
55225SOL    HW167572  12.932   7.264   2.313
55225SOL    HW267573  13.063   7.188   2.316
55226SOL     OW67574   8.853   6.068   0.063
55226SOL    HW167575   8.891   6.156   0.072
55226SOL    HW267576   8.843   6.057  14.848
55227SOL     OW67577  11.370   4.016  10.165
55227SOL    HW167578  11.312   3.944  10.191
55227SOL    HW267579  11.439   3.974  10.113
55228SOL     OW67580  14.747  13.310  12.582
55228SOL    HW167581  14.775  13.402  12.574
55228SOL    HW267582  14.727  13.299  12.675
55229SOL     OW67583  12.100   9.666  12.655
55229SOL    HW167584  12.171   9.673  12.718
55229SOL    HW267585  12.061   9.580  12.672
55230SOL     OW67586   3.075   4.257  13.639
55230SOL    HW167587   3.065   4.350  13.622
55230SOL    HW267588   3.014   4.215  13.579
55231SOL     OW67589  14.359   3.649   2.205
55231SOL    HW167590  14.399   3.695   2.279
55231SOL    HW267591  14.433   3.623   2.150
55232SOL     OW67592   7.217  12.130   7.906
55232SOL    HW167593   7.261  12.176   7.834
55232SOL    HW267594   7.254  12.042   7.905
55233SOL     OW67595   1.902   9.435   5.170
55233SOL    HW167596   1.967   9.365   5.160
55233SOL    HW267597   1.953   9.513   5.192
55234SOL     OW67598   0.383  14.337   2.744
55234SOL    HW167599   0.333  14.287   2.809
55234SOL    HW267600   0.391  14.424   2.783
55235SOL     OW67601   9.865   1.229  14.258
55235SOL    HW167602   9.851   1.145  14.215
55235SOL    HW267603   9.862   1.209  14.352
55236SOL     OW67604  10.359   0.055  13.266
55236SOL    HW167605  10.354   0.095  13.353
55236SOL    HW267606  10.450   0.069  13.239
55237SOL     OW67607  13.270   4.738   2.010
55237SOL    HW167608  13.348   4.791   2.028
55237SOL    HW267609  13.285   4.703   1.922
55238SOL     OW67610   9.415   1.812   9.770
55238SOL    HW167611   9.488   1.763   9.808
55238SOL    HW267612   9.344   1.748   9.762
55239SOL     OW67613   1.037  11.429   7.946
55239SOL    HW167614   1.066  11.344   7.979
55239SOL    HW267615   0.965  11.409   7.886
55240SOL     OW67616   8.132   9.000  13.286
55240SOL    HW167617   8.167   9.048  13.362
55240SOL    HW267618   8.148   9.058  13.212
55241SOL     OW67619   4.244   5.087   9.754
55241SOL    HW167620   4.168   5.065   9.807
55241SOL    HW267621   4.254   5.182   9.765
55242SOL     OW67622   4.570  12.234   1.920
55242SOL    HW167623   4.548  12.162   1.861
55242SOL    HW267624   4.500  12.232   1.986
55243SOL     OW67625   1.514   5.084   0.387
55243SOL    HW167626   1.448   5.143   0.422
55243SOL    HW267627   1.574   5.069   0.460
55244SOL     OW67628  12.678   5.953   0.814
55244SOL    HW167629  12.679   6.045   0.838
55244SOL    HW267630  12.729   5.909   0.882
55245SOL     OW67631  12.458  14.553   1.304
55245SOL    HW167632  12.469  14.596   1.389
55245SOL    HW267633  12.365  14.536   1.297
55246SOL     OW67634   8.595   3.038   7.389
55246SOL    HW167635   8.691   3.035   7.386
55246SOL    HW267636   8.571   2.982   7.462
55247SOL     OW67637  11.653  12.768  10.895
55247SOL    HW167638  11.686  12.699  10.953
55247SOL    HW267639  11.730  12.818  10.870
55248SOL     OW67640  10.899   2.130  10.222
55248SOL    HW167641  10.895   2.072  10.298
55248SOL    HW267642  10.896   2.071  10.146
55249SOL     OW67643   1.588   5.949   6.612
55249SOL    HW167644   1.528   5.883   6.578
55249SOL    HW267645   1.548   6.033   6.590
55250SOL     OW67646  14.377  10.767   4.044
55250SOL    HW167647  14.358  10.767   4.138
55250SOL    HW267648  14.327  10.694   4.009
55251SOL     OW67649   6.729   7.378   0.620
55251SOL    HW167650   6.776   7.448   0.573
55251SOL    HW267651   6.648   7.367   0.569
55252SOL     OW67652   9.239   2.718   0.622
55252SOL    HW167653   9.294   2.797   0.617
55252SOL    HW267654   9.283   2.663   0.687
55253SOL     OW67655   5.966  14.051   5.350
55253SOL    HW167656   6.001  13.996   5.420
55253SOL    HW267657   5.871  14.038   5.355
55254SOL     OW67658  13.926   5.038  13.617
55254SOL    HW167659  13.840   5.066  13.649
55254SOL    HW267660  13.986   5.059  13.687
55255SOL     OW67661  11.443   8.591   4.760
55255SOL    HW167662  11.383   8.525   4.794
55255SOL    HW267663  11.398   8.674   4.774
55256SOL     OW67664   9.527  13.680   0.578
55256SOL    HW167665   9.581  13.603   0.562
55256SOL    HW267666   9.459  13.676   0.511
55257SOL     OW67667   7.349   6.015  10.176
55257SOL    HW167668   7.429   5.984  10.218
55257SOL    HW267669   7.355   5.985  10.085
55258SOL     OW67670  11.674   2.825  13.750
55258SOL    HW167671  11.741   2.891  13.769
55258SOL    HW267672  11.619   2.866  13.683
55259SOL     OW67673  14.814  13.891   7.443
55259SOL    HW167674   0.011  13.949   7.442
55259SOL    HW267675  14.799  13.874   7.536
55260SOL     OW67676   0.801   5.101   9.368
55260SOL    HW167677   0.810   5.012   9.401
55260SOL    HW267678   0.854   5.155   9.428
55261SOL     OW67679  10.207   3.364   9.331
55261SOL    HW167680  10.174   3.343   9.418
55261SOL    HW267681  10.162   3.303   9.273
55262SOL     OW67682   2.582   6.929   1.489
55262SOL    HW167683   2.651   6.960   1.431
55262SOL    HW267684   2.625   6.915   1.573
55263SOL     OW67685  11.438   1.866  12.862
55263SOL    HW167686  11.454   1.944  12.915
55263SOL    HW267687  11.455   1.893  12.772
55264SOL     OW67688  13.571   0.352   3.173
55264SOL    HW167689  13.578   0.444   3.196
55264SOL    HW267690  13.634   0.308   3.230
55265SOL     OW67691   4.062   9.000  12.503
55265SOL    HW167692   3.999   8.932  12.528
55265SOL    HW267693   4.010   9.081  12.499
55266SOL     OW67694   0.652  11.876   4.691
55266SOL    HW167695   0.631  11.963   4.726
55266SOL    HW267696   0.675  11.824   4.768
55267SOL     OW67697   7.889   5.725  11.960
55267SOL    HW167698   7.862   5.635  11.978
55267SOL    HW267699   7.809   5.768  11.930
55268SOL     OW67700   2.955   6.772   6.784
55268SOL    HW167701   3.050   6.768   6.779
55268SOL    HW267702   2.935   6.765   6.877
55269SOL     OW67703   3.357   1.100   9.105
55269SOL    HW167704   3.310   1.086   9.022
55269SOL    HW267705   3.294   1.147   9.160
55270SOL     OW67706   9.553   1.646   3.877
55270SOL    HW167707   9.608   1.722   3.860
55270SOL    HW267708   9.568   1.626   3.969
55271SOL     OW67709  14.778   6.855   7.351
55271SOL    HW167710  14.764   6.950   7.346
55271SOL    HW267711  14.694   6.818   7.323
55272SOL     OW67712   1.748   3.300   3.116
55272SOL    HW167713   1.767   3.256   3.198
55272SOL    HW267714   1.762   3.233   3.049
55273SOL     OW67715   9.310   4.013   1.236
55273SOL    HW167716   9.396   4.031   1.275
55273SOL    HW267717   9.328   3.945   1.171
55274SOL     OW67718  12.188   2.158  13.533
55274SOL    HW167719  12.100   2.169  13.570
55274SOL    HW267720  12.213   2.069  13.559
55275SOL     OW67721  11.593   4.095   4.076
55275SOL    HW167722  11.614   4.031   4.007
55275SOL    HW267723  11.502   4.078   4.098
55276SOL     OW67724   5.421   4.541   0.963
55276SOL    HW167725   5.419   4.468   0.901
55276SOL    HW267726   5.483   4.513   1.031
55277SOL     OW67727   8.717   9.493   3.136
55277SOL    HW167728   8.766   9.413   3.158
55277SOL    HW267729   8.649   9.499   3.203
55278SOL     OW67730   9.019   3.003   3.600
55278SOL    HW167731   8.936   3.021   3.645
55278SOL    HW267732   8.993   2.968   3.515
55279SOL     OW67733   0.319   7.364  12.117
55279SOL    HW167734   0.231   7.325  12.118
55279SOL    HW267735   0.327   7.401  12.029
55280SOL     OW67736   6.631  11.595  13.401
55280SOL    HW167737   6.671  11.570  13.318
55280SOL    HW267738   6.627  11.513  13.451
55281SOL     OW67739   2.293   0.346  12.061
55281SOL    HW167740   2.244   0.372  11.983
55281SOL    HW267741   2.367   0.406  12.065
55282SOL     OW67742   1.790   8.622   2.522
55282SOL    HW167743   1.853   8.686   2.488
55282SOL    HW267744   1.826   8.596   2.607
55283SOL     OW67745  14.605   6.953   8.811
55283SOL    HW167746  14.660   6.891   8.764
55283SOL    HW267747  14.616   6.929   8.904
55284SOL     OW67748  11.454  13.856   7.556
55284SOL    HW167749  11.398  13.875   7.630
55284SOL    HW267750  11.444  13.932   7.498
55285SOL     OW67751  13.341   7.446  10.740
55285SOL    HW167752  13.315   7.473  10.652
55285SOL    HW267753  13.429   7.483  10.750
55286SOL     OW67754  12.680  13.909   5.076
55286SOL    HW167755  12.621  13.971   5.034
55286SOL    HW267756  12.647  13.823   5.051
55287SOL     OW67757  12.262   2.803   8.035
55287SOL    HW167758  12.238   2.746   8.108
55287SOL    HW267759  12.324   2.865   8.072
55288SOL     OW67760   9.012   2.742  11.157
55288SOL    HW167761   9.040   2.679  11.091
55288SOL    HW267762   9.081   2.738  11.223
55289SOL     OW67763   7.903  10.207   8.700
55289SOL    HW167764   7.857  10.136   8.655
55289SOL    HW267765   7.982  10.222   8.647
55290SOL     OW67766  12.847  14.229  11.798
55290SOL    HW167767  12.809  14.307  11.838
55290SOL    HW267768  12.799  14.219  11.715
55291SOL     OW67769   9.707  14.417  12.101
55291SOL    HW167770   9.801  14.403  12.095
55291SOL    HW267771   9.669  14.329  12.100
55292SOL     OW67772   3.103  13.764  10.016
55292SOL    HW167773   3.040  13.802   9.955
55292SOL    HW267774   3.061  13.684  10.047
55293SOL     OW67775  11.092  11.174  12.424
55293SOL    HW167776  11.090  11.255  12.474
55293SOL    HW267777  11.000  11.156  12.404
55294SOL     OW67778   1.381   8.326  10.715
55294SOL    HW167779   1.406   8.374  10.636
55294SOL    HW267780   1.457   8.335  10.773
55295SOL     OW67781  11.348  14.623  10.028
55295SOL    HW167782  11.406  14.553   9.995
55295SOL    HW267783  11.360  14.694   9.965
55296SOL     OW67784  13.051  13.059  14.283
55296SOL    HW167785  13.124  13.120  14.281
55296SOL    HW267786  13.030  13.043  14.191
55297SOL     OW67787   8.727   4.384  13.003
55297SOL    HW167788   8.723   4.391  13.099
55297SOL    HW267789   8.641   4.415  12.974
55298SOL     OW67790   8.593   2.561   6.280
55298SOL    HW167791   8.628   2.472   6.274
55298SOL    HW267792   8.499   2.549   6.293
55299SOL     OW67793   1.899   2.894   6.047
55299SOL    HW167794   1.972   2.951   6.022
55299SOL    HW267795   1.941   2.810   6.068
55300SOL     OW67796   0.163  10.719   9.783
55300SOL    HW167797   0.082  10.700   9.831
55300SOL    HW267798   0.148  10.805   9.744
55301SOL     OW67799   5.038   5.798  12.478
55301SOL    HW167800   4.981   5.833  12.546
55301SOL    HW267801   5.031   5.703  12.487
55302SOL     OW67802   0.996   9.638   7.930
55302SOL    HW167803   1.021   9.597   8.013
55302SOL    HW267804   0.953   9.720   7.955
55303SOL     OW67805   6.848   6.171  13.711
55303SOL    HW167806   6.759   6.207  13.719
55303SOL    HW267807   6.896   6.238  13.661
55304SOL     OW67808   8.763  14.347   3.048
55304SOL    HW167809   8.748  14.258   3.016
55304SOL    HW267810   8.828  14.383   2.988
55305SOL     OW67811   5.370   2.524  10.818
55305SOL    HW167812   5.383   2.589  10.886
55305SOL    HW267813   5.397   2.441  10.857
55306SOL     OW67814   4.089  14.650   4.938
55306SOL    HW167815   4.141  14.630   4.860
55306SOL    HW267816   4.139  14.614   5.010
55307SOL     OW67817   3.801   7.792  11.945
55307SOL    HW167818   3.734   7.850  11.980
55307SOL    HW267819   3.779   7.706  11.980
55308SOL     OW67820   4.473   2.807   6.762
55308SOL    HW167821   4.469   2.737   6.828
55308SOL    HW267822   4.460   2.888   6.812
55309SOL     OW67823   5.569   1.689  10.916
55309SOL    HW167824   5.511   1.653  10.982
55309SOL    HW267825   5.551   1.783  10.916
55310SOL     OW67826   1.710  14.723   0.346
55310SOL    HW167827   1.657  14.756   0.419
55310SOL    HW267828   1.741  14.637   0.376
55311SOL     OW67829  10.996  10.235   1.128
55311SOL    HW167830  11.047  10.162   1.163
55311SOL    HW267831  11.037  10.255   1.044
55312SOL     OW67832  14.466   8.721  13.015
55312SOL    HW167833  14.456   8.807  13.055
55312SOL    HW267834  14.519   8.737  12.937
55313SOL     OW67835   3.272   5.127   1.515
55313SOL    HW167836   3.285   5.103   1.606
55313SOL    HW267837   3.188   5.174   1.514
55314SOL     OW67838   0.602   5.636   3.920
55314SOL    HW167839   0.651   5.563   3.882
55314SOL    HW267840   0.640   5.714   3.880
55315SOL     OW67841   3.344   5.664   8.059
55315SOL    HW167842   3.377   5.754   8.052
55315SOL    HW267843   3.285   5.666   8.134
55316SOL     OW67844   0.378   6.884  13.910
55316SOL    HW167845   0.288   6.882  13.943
55316SOL    HW267846   0.369   6.907  13.818
55317SOL     OW67847  13.651   7.411  13.241
55317SOL    HW167848  13.647   7.419  13.146
55317SOL    HW267849  13.601   7.486  13.273
55318SOL     OW67850  12.192   1.341   8.928
55318SOL    HW167851  12.283   1.316   8.948
55318SOL    HW267852  12.193   1.436   8.928
55319SOL     OW67853   2.362   5.573   3.403
55319SOL    HW167854   2.292   5.523   3.362
55319SOL    HW267855   2.412   5.508   3.453
55320SOL     OW67856   2.392   2.097   6.005
55320SOL    HW167857   2.393   2.193   6.012
55320SOL    HW267858   2.300   2.075   5.994
55321SOL     OW67859   7.058  10.412   6.533
55321SOL    HW167860   7.076  10.323   6.501
55321SOL    HW267861   7.113  10.421   6.610
55322SOL     OW67862  14.191  14.135  12.908
55322SOL    HW167863  14.150  14.220  12.893
55322SOL    HW267864  14.161  14.109  12.995
55323SOL     OW67865   5.658   2.080   0.989
55323SOL    HW167866   5.682   2.002   0.939
55323SOL    HW267867   5.649   2.049   1.079
55324SOL     OW67868   4.543   5.916  13.451
55324SOL    HW167869   4.479   5.863  13.499
55324SOL    HW267870   4.591   5.964  13.519
55325SOL     OW67871   5.160  13.086  12.082
55325SOL    HW167872   5.178  13.158  12.022
55325SOL    HW267873   5.123  13.129  12.160
55326SOL     OW67874  11.236  14.574   3.493
55326SOL    HW167875  11.173  14.516   3.449
55326SOL    HW267876  11.185  14.616   3.562
55327SOL     OW67877  13.821   5.881   8.940
55327SOL    HW167878  13.841   5.947   8.873
55327SOL    HW267879  13.900   5.876   8.993
55328SOL     OW67880  12.233   7.315  12.162
55328SOL    HW167881  12.288   7.361  12.098
55328SOL    HW267882  12.173   7.263  12.110
55329SOL     OW67883  13.470  12.839   9.430
55329SOL    HW167884  13.437  12.806   9.513
55329SOL    HW267885  13.411  12.911   9.407
55330SOL     OW67886   0.416   3.890   1.881
55330SOL    HW167887   0.415   3.873   1.787
55330SOL    HW267888   0.324   3.897   1.906
55331SOL     OW67889   4.413  11.729   5.764
55331SOL    HW167890   4.387  11.728   5.671
55331SOL    HW267891   4.350  11.671   5.807
55332SOL     OW67892   2.153   4.561  14.359
55332SOL    HW167893   2.063   4.535  14.382
55332SOL    HW267894   2.167   4.525  14.272
55333SOL     OW67895   6.006   4.938   8.917
55333SOL    HW167896   6.023   4.953   8.824
55333SOL    HW267897   5.942   4.866   8.918
55334SOL     OW67898   5.652   8.919  11.242
55334SOL    HW167899   5.741   8.927  11.208
55334SOL    HW267900   5.620   8.835  11.209
55335SOL     OW67901   8.852   7.763  13.424
55335SOL    HW167902   8.845   7.856  13.400
55335SOL    HW267903   8.894   7.722  13.349
55336SOL     OW67904  14.542  10.395   7.508
55336SOL    HW167905  14.606  10.327   7.526
55336SOL    HW267906  14.580  10.446   7.436
55337SOL     OW67907  13.486  13.463   6.173
55337SOL    HW167908  13.446  13.377   6.186
55337SOL    HW267909  13.542  13.452   6.096
55338SOL     OW67910   2.634  13.372  14.361
55338SOL    HW167911   2.729  13.363  14.359
55338SOL    HW267912   2.619  13.458  14.400
55339SOL     OW67913   5.858  13.926  14.105
55339SOL    HW167914   5.869  14.012  14.146
55339SOL    HW267915   5.793  13.941  14.036
55340SOL     OW67916   7.499  12.747   4.253
55340SOL    HW167917   7.443  12.796   4.193
55340SOL    HW267918   7.537  12.814   4.310
55341SOL     OW67919   4.354   6.085   2.394
55341SOL    HW167920   4.412   6.035   2.336
55341SOL    HW267921   4.268   6.044   2.383
55342SOL     OW67922   1.080  13.474  13.748
55342SOL    HW167923   1.058  13.486  13.841
55342SOL    HW267924   1.001  13.436  13.710
55343SOL     OW67925   8.975   7.957   3.186
55343SOL    HW167926   9.027   8.013   3.243
55343SOL    HW267927   8.917   8.017   3.139
55344SOL     OW67928   1.751  11.734   6.562
55344SOL    HW167929   1.780  11.668   6.626
55344SOL    HW267930   1.731  11.684   6.483
55345SOL     OW67931  12.161  14.276   2.368
55345SOL    HW167932  12.180  14.260   2.460
55345SOL    HW267933  12.236  14.327   2.336
55346SOL     OW67934  13.205   2.330   1.437
55346SOL    HW167935  13.188   2.245   1.478
55346SOL    HW267936  13.179   2.394   1.503
55347SOL     OW67937   3.693  14.533  11.060
55347SOL    HW167938   3.609  14.499  11.027
55347SOL    HW267939   3.685  14.628  11.052
55348SOL     OW67940  14.864   9.501   9.370
55348SOL    HW167941   0.039   9.451   9.431
55348SOL    HW267942  14.815   9.561   9.425
55349SOL     OW67943   7.095  13.676   4.458
55349SOL    HW167944   7.165  13.739   4.472
55349SOL    HW267945   7.138  13.600   4.420
55350SOL     OW67946   4.496   4.264   3.705
55350SOL    HW167947   4.583   4.232   3.679
55350SOL    HW267948   4.439   4.238   3.633
55351SOL     OW67949   9.749  12.318  11.011
55351SOL    HW167950   9.736  12.378  10.937
55351SOL    HW267951   9.834  12.277  10.994
55352SOL     OW67952   2.440  11.792   3.668
55352SOL    HW167953   2.464  11.715   3.720
55352SOL    HW267954   2.514  11.852   3.679
55353SOL     OW67955   7.978  10.386  12.145
55353SOL    HW167956   7.926  10.308  12.165
55353SOL    HW267957   8.065  10.351  12.126
55354SOL     OW67958   9.220  10.202  10.427
55354SOL    HW167959   9.234  10.290  10.392
55354SOL    HW267960   9.137  10.209  10.475
55355SOL     OW67961   9.947   7.777  14.568
55355SOL    HW167962   9.976   7.852  14.515
55355SOL    HW267963  10.012   7.772  14.638
55356SOL     OW67964   1.291   9.697   2.206
55356SOL    HW167965   1.301   9.684   2.112
55356SOL    HW267966   1.248   9.782   2.214
55357SOL     OW67967   9.544   8.243   6.029
55357SOL    HW167968   9.464   8.193   6.042
55357SOL    HW267969   9.614   8.182   6.053
55358SOL     OW67970   5.126  10.810   1.560
55358SOL    HW167971   5.184  10.736   1.572
55358SOL    HW267972   5.165  10.880   1.612
55359SOL     OW67973   4.610   3.872   7.081
55359SOL    HW167974   4.664   3.927   7.023
55359SOL    HW267975   4.549   3.933   7.122
55360SOL     OW67976   9.631   4.396   7.977
55360SOL    HW167977   9.589   4.442   8.050
55360SOL    HW267978   9.559   4.379   7.916
55361SOL     OW67979   6.696   0.362   8.347
55361SOL    HW167980   6.721   0.285   8.297
55361SOL    HW267981   6.605   0.379   8.321
55362SOL     OW67982  13.134   5.554   6.188
55362SOL    HW167983  13.198   5.597   6.243
55362SOL    HW267984  13.064   5.619   6.177
55363SOL     OW67985  13.536   5.652   7.622
55363SOL    HW167986  13.588   5.572   7.620
55363SOL    HW267987  13.445   5.621   7.630
55364SOL     OW67988  14.854  10.450   5.768
55364SOL    HW167989   0.035  10.439   5.694
55364SOL    HW267990  14.822  10.362   5.787
55365SOL     OW67991  14.198  13.115   0.993
55365SOL    HW167992  14.282  13.091   0.955
55365SOL    HW267993  14.147  13.034   0.993
55366SOL     OW67994   5.507  11.683  14.117
55366SOL    HW167995   5.455  11.602  14.118
55366SOL    HW267996   5.460  11.743  14.175
55367SOL     OW67997   2.898   8.228  10.702
55367SOL    HW167998   2.938   8.142  10.713
55367SOL    HW267999   2.973   8.287  10.687
55368SOL     OW68000  11.426  14.563   7.884
55368SOL    HW168001  11.431  14.572   7.788
55368SOL    HW268002  11.518  14.566   7.912
55369SOL     OW68003  11.046  11.270   9.495
55369SOL    HW168004  11.017  11.281   9.586
55369SOL    HW268005  11.142  11.272   9.500
55370SOL     OW68006   9.934   8.368   7.335
55370SOL    HW168007   9.989   8.290   7.342
55370SOL    HW268008   9.902   8.367   7.245
55371SOL     OW68009   5.201   6.425  13.665
55371SOL    HW168010   5.116   6.398  13.629
55371SOL    HW268011   5.184   6.438  13.758
55372SOL     OW68012   5.420   7.429  12.056
55372SOL    HW168013   5.328   7.457  12.061
55372SOL    HW268014   5.454   7.474  11.979
55373SOL     OW68015   7.923   1.316   6.881
55373SOL    HW168016   7.866   1.312   6.804
55373SOL    HW268017   7.909   1.233   6.926
55374SOL     OW68018  11.930  10.049   9.455
55374SOL    HW168019  11.959  10.105   9.383
55374SOL    HW268020  11.883  10.109   9.513
55375SOL     OW68021   8.935   8.072   3.590
55375SOL    HW168022   9.004   8.068   3.656
55375SOL    HW268023   8.981   8.094   3.509
55376SOL     OW68024  13.803   1.799  14.568
55376SOL    HW168025  13.755   1.836  14.494
55376SOL    HW268026  13.736   1.784  14.635
55377SOL     OW68027  12.936   4.507   6.888
55377SOL    HW168028  12.866   4.553   6.841
55377SOL    HW268029  12.900   4.491   6.975
55378SOL     OW68030  10.435  10.116   9.044
55378SOL    HW168031  10.372  10.088   8.978
55378SOL    HW268032  10.388  10.181   9.096
55379SOL     OW68033   7.201  14.400  11.527
55379SOL    HW168034   7.167  14.311  11.532
55379SOL    HW268035   7.124  14.454  11.505
55380SOL     OW68036   0.028   6.327   7.271
55380SOL    HW168037   0.006   6.234   7.277
55380SOL    HW268038  14.844   6.371   7.327
55381SOL     OW68039   9.335  11.161  13.972
55381SOL    HW168040   9.253  11.111  13.971
55381SOL    HW268041   9.312  11.245  14.011
55382SOL     OW68042   9.580   7.120   5.383
55382SOL    HW168043   9.573   7.114   5.478
55382SOL    HW268044   9.493   7.149   5.354
55383SOL     OW68045   1.180   7.339   0.151
55383SOL    HW168046   1.133   7.313   0.072
55383SOL    HW268047   1.254   7.391   0.119
55384SOL     OW68048   9.902  14.209   3.615
55384SOL    HW168049   9.809  14.208   3.638
55384SOL    HW268050   9.921  14.300   3.594
55385SOL     OW68051  11.512  14.467   6.874
55385SOL    HW168052  11.598  14.427   6.882
55385SOL    HW268053  11.529  14.560   6.862
55386SOL     OW68054   2.645   8.651   8.219
55386SOL    HW168055   2.587   8.718   8.255
55386SOL    HW268056   2.646   8.582   8.285
55387SOL     OW68057   1.571   9.244   1.645
55387SOL    HW168058   1.648   9.266   1.593
55387SOL    HW268059   1.542   9.159   1.613
55388SOL     OW68060   1.972  13.527  10.003
55388SOL    HW168061   1.934  13.508  10.088
55388SOL    HW268062   1.905  13.580   9.958
55389SOL     OW68063  14.279   1.134  12.783
55389SOL    HW168064  14.287   1.040  12.764
55389SOL    HW268065  14.314   1.177  12.705
55390SOL     OW68066   3.294  11.050  14.628
55390SOL    HW168067   3.342  11.025  14.548
55390SOL    HW268068   3.228  11.113  14.598
55391SOL     OW68069  10.729  12.038  10.029
55391SOL    HW168070  10.755  12.020   9.939
55391SOL    HW268071  10.770  11.968  10.080
55392SOL     OW68072   1.842  11.160   1.552
55392SOL    HW168073   1.817  11.131   1.640
55392SOL    HW268074   1.906  11.095   1.523
55393SOL     OW68075   8.455   1.772  11.462
55393SOL    HW168076   8.473   1.726  11.380
55393SOL    HW268077   8.447   1.702  11.527
55394SOL     OW68078  11.726   4.492   4.088
55394SOL    HW168079  11.804   4.498   4.144
55394SOL    HW268080  11.745   4.548   4.013
55395SOL     OW68081  10.163  12.119   2.770
55395SOL    HW168082  10.090  12.119   2.708
55395SOL    HW268083  10.231  12.170   2.726
55396SOL     OW68084  10.916   6.409   1.509
55396SOL    HW168085  10.867   6.327   1.516
55396SOL    HW268086  10.968   6.398   1.429
55397SOL     OW68087   2.741  11.979   2.683
55397SOL    HW168088   2.815  11.935   2.722
55397SOL    HW268089   2.698  12.024   2.756
55398SOL     OW68090   9.429   1.208  10.230
55398SOL    HW168091   9.476   1.292  10.225
55398SOL    HW268092   9.376   1.206  10.150
55399SOL     OW68093   6.319   7.921   0.370
55399SOL    HW168094   6.264   7.914   0.448
55399SOL    HW268095   6.395   7.972   0.398
55400SOL     OW68096   8.247   6.760  13.072
55400SOL    HW168097   8.335   6.798  13.079
55400SOL    HW268098   8.216   6.755  13.162
55401SOL     OW68099  10.889  13.641  11.058
55401SOL    HW168100  10.931  13.652  10.973
55401SOL    HW268101  10.829  13.567  11.047
55402SOL     OW68102   1.145   5.169   3.683
55402SOL    HW168103   1.201   5.149   3.608
55402SOL    HW268104   1.207   5.196   3.751
55403SOL     OW68105   8.284   0.637  14.409
55403SOL    HW168106   8.239   0.640  14.325
55403SOL    HW268107   8.312   0.546  14.418
55404SOL     OW68108  10.188  12.503   5.137
55404SOL    HW168109  10.233  12.454   5.206
55404SOL    HW268110  10.108  12.536   5.180
55405SOL     OW68111  14.862  12.648   5.948
55405SOL    HW168112  14.807  12.631   5.871
55405SOL    HW268113   0.072  12.636   5.917
55406SOL     OW68114   7.530   3.508   6.413
55406SOL    HW168115   7.536   3.425   6.365
55406SOL    HW268116   7.616   3.519   6.452
55407SOL     OW68117   9.736  14.699   3.840
55407SOL    HW168118   9.762  14.627   3.896
55407SOL    HW268119   9.748  14.777   3.894
55408SOL     OW68120   0.063   1.743   9.311
55408SOL    HW168121   0.149   1.773   9.280
55408SOL    HW268122   0.012   1.823   9.323
55409SOL     OW68123  13.233   5.098   4.229
55409SOL    HW168124  13.220   5.176   4.175
55409SOL    HW268125  13.249   5.028   4.167
55410SOL     OW68126  10.178  10.498  11.116
55410SOL    HW168127  10.089  10.517  11.086
55410SOL    HW268128  10.167  10.430  11.182
55411SOL     OW68129  12.393  12.058  10.992
55411SOL    HW168130  12.406  12.018  11.078
55411SOL    HW268131  12.480  12.059  10.952
55412SOL     OW68132   9.166   0.027   6.577
55412SOL    HW168133   9.134   0.005   6.665
55412SOL    HW268134   9.178   0.122   6.579
55413SOL     OW68135   3.878   0.491  13.460
55413SOL    HW168136   3.952   0.520  13.513
55413SOL    HW268137   3.806   0.482  13.522
55414SOL     OW68138  13.605   6.556  11.886
55414SOL    HW168139  13.680   6.610  11.909
55414SOL    HW268140  13.628   6.516  11.803
55415SOL     OW68141   4.293   5.816  12.368
55415SOL    HW168142   4.301   5.722  12.351
55415SOL    HW268143   4.215   5.824  12.422
55416SOL     OW68144  12.261   3.498  10.705
55416SOL    HW168145  12.333   3.437  10.723
55416SOL    HW268146  12.182   3.447  10.718
55417SOL     OW68147  13.774   3.099  10.502
55417SOL    HW168148  13.739   3.096  10.591
55417SOL    HW268149  13.700   3.074  10.447
55418SOL     OW68150   9.769   1.016  12.085
55418SOL    HW168151   9.772   1.055  12.173
55418SOL    HW268152   9.679   1.031  12.056
55419SOL     OW68153   7.946  11.296   0.866
55419SOL    HW168154   7.868  11.241   0.861
55419SOL    HW268155   8.019  11.236   0.848
55420SOL     OW68156  14.848   4.693   9.919
55420SOL    HW168157  14.810   4.609   9.892
55420SOL    HW268158  14.796   4.759   9.874
55421SOL     OW68159   1.400   6.594   4.466
55421SOL    HW168160   1.354   6.537   4.405
55421SOL    HW268161   1.349   6.590   4.547
55422SOL     OW68162   3.186   4.068   5.449
55422SOL    HW168163   3.103   4.105   5.481
55422SOL    HW268164   3.234   4.144   5.416
55423SOL     OW68165  13.616   3.715   3.652
55423SOL    HW168166  13.702   3.751   3.632
55423SOL    HW268167  13.590   3.757   3.734
55424SOL     OW68168  11.091   9.474   8.353
55424SOL    HW168169  11.157   9.411   8.325
55424SOL    HW268170  11.013   9.453   8.302
55425SOL     OW68171   7.424   9.195  12.533
55425SOL    HW168172   7.478   9.219  12.457
55425SOL    HW268173   7.361   9.132  12.498
55426SOL     OW68174  11.173   1.222   8.240
55426SOL    HW168175  11.234   1.289   8.272
55426SOL    HW268176  11.144   1.176   8.319
55427SOL     OW68177  11.914   8.287  11.226
55427SOL    HW168178  11.865   8.299  11.307
55427SOL    HW268179  11.910   8.372  11.183
55428SOL     OW68180   8.749   5.387   3.118
55428SOL    HW168181   8.683   5.321   3.137
55428SOL    HW268182   8.832   5.339   3.120
55429SOL     OW68183   2.862  10.224   8.531
55429SOL    HW168184   2.795  10.281   8.494
55429SOL    HW268185   2.944  10.257   8.493
55430SOL     OW68186   7.778   1.528   6.237
55430SOL    HW168187   7.735   1.459   6.187
55430SOL    HW268188   7.711   1.594   6.250
55431SOL     OW68189   4.215  10.582   8.540
55431SOL    HW168190   4.130  10.540   8.531
55431SOL    HW268191   4.261  10.562   8.458
55432SOL     OW68192  11.101   6.943   3.707
55432SOL    HW168193  11.122   6.874   3.644
55432SOL    HW268194  11.013   6.970   3.684
55433SOL     OW68195   9.511   2.414   7.625
55433SOL    HW168196   9.417   2.425   7.613
55433SOL    HW268197   9.519   2.348   7.693
55434SOL     OW68198  12.547   0.698  11.985
55434SOL    HW168199  12.528   0.702  11.891
55434SOL    HW268200  12.474   0.745  12.026
55435SOL     OW68201   8.405  14.380   2.675
55435SOL    HW168202   8.326  14.435   2.678
55435SOL    HW268203   8.392  14.315   2.744
55436SOL     OW68204  12.908  12.544   2.570
55436SOL    HW168205  12.966  12.611   2.533
55436SOL    HW268206  12.820  12.575   2.548
55437SOL     OW68207  13.469   1.177  13.522
55437SOL    HW168208  13.468   1.088  13.557
55437SOL    HW268209  13.516   1.170  13.440
55438SOL     OW68210   3.488   2.409   5.975
55438SOL    HW168211   3.552   2.395   6.045
55438SOL    HW268212   3.490   2.327   5.925
55439SOL     OW68213   5.026   0.069  13.506
55439SOL    HW168214   4.993   0.122  13.578
55439SOL    HW268215   4.958   0.003  13.492
55440SOL     OW68216   0.849   3.052   9.487
55440SOL    HW168217   0.941   3.036   9.505
55440SOL    HW268218   0.822   2.977   9.433
55441SOL     OW68219   2.912   0.591  14.266
55441SOL    HW168220   2.892   0.676  14.228
55441SOL    HW268221   2.945   0.539  14.194
55442SOL     OW68222   7.348  11.022  12.170
55442SOL    HW168223   7.323  11.066  12.089
55442SOL    HW268224   7.265  10.996  12.210
55443SOL     OW68225   8.930   7.546   5.114
55443SOL    HW168226   8.860   7.498   5.159
55443SOL    HW268227   8.963   7.485   5.049
55444SOL     OW68228   2.439   5.429   7.078
55444SOL    HW168229   2.497   5.362   7.116
55444SOL    HW268230   2.351   5.404   7.106
55445SOL     OW68231   7.162  11.626   1.630
55445SOL    HW168232   7.141  11.639   1.723
55445SOL    HW268233   7.213  11.545   1.628
55446SOL     OW68234   4.686   4.908   2.423
55446SOL    HW168235   4.650   4.929   2.509
55446SOL    HW268236   4.771   4.951   2.422
55447SOL     OW68237   6.579  14.763   7.957
55447SOL    HW168238   6.586  14.763   7.861
55447SOL    HW268239   6.629  14.687   7.985
55448SOL     OW68240   9.781  11.342  11.364
55448SOL    HW168241   9.828  11.273  11.317
55448SOL    HW268242   9.849  11.405  11.388
55449SOL     OW68243   7.013  13.854   4.235
55449SOL    HW168244   7.099  13.854   4.278
55449SOL    HW268245   6.956  13.806   4.295
55450SOL     OW68246  10.853   1.825   4.948
55450SOL    HW168247  10.849   1.788   5.037
55450SOL    HW268248  10.900   1.759   4.897
55451SOL     OW68249  11.370   9.080   0.839
55451SOL    HW168250  11.307   9.109   0.773
55451SOL    HW268251  11.332   8.999   0.874
55452SOL     OW68252  14.181  14.006  11.620
55452SOL    HW168253  14.105  14.048  11.580
55452SOL    HW268254  14.169  14.021  11.714
55453SOL     OW68255  11.865  12.416   6.529
55453SOL    HW168256  11.876  12.496   6.477
55453SOL    HW268257  11.852  12.347   6.464
55454SOL     OW68258   7.482   5.964   6.148
55454SOL    HW168259   7.570   5.999   6.140
55454SOL    HW268260   7.491   5.870   6.128
55455SOL     OW68261   5.736  14.423   1.050
55455SOL    HW168262   5.665  14.372   1.088
55455SOL    HW268263   5.759  14.487   1.117
55456SOL     OW68264  13.624   2.237   9.771
55456SOL    HW168265  13.604   2.331   9.777
55456SOL    HW268266  13.716   2.231   9.798
55457SOL     OW68267  13.974   6.881   8.826
55457SOL    HW168268  13.989   6.924   8.910
55457SOL    HW268269  13.885   6.847   8.832
55458SOL     OW68270   1.512   3.990  10.905
55458SOL    HW168271   1.452   3.966  10.834
55458SOL    HW268272   1.566   3.913  10.917
55459SOL     OW68273   8.952  13.847   1.074
55459SOL    HW168274   9.019  13.802   1.125
55459SOL    HW268275   8.949  13.799   0.991
55460SOL     OW68276   7.319  11.079   4.114
55460SOL    HW168277   7.392  11.098   4.173
55460SOL    HW268278   7.354  11.094   4.027
55461SOL     OW68279  12.598   4.658  12.446
55461SOL    HW168280  12.586   4.565  12.424
55461SOL    HW268281  12.510   4.688  12.469
55462SOL     OW68282   9.594  14.147   1.165
55462SOL    HW168283   9.559  14.184   1.246
55462SOL    HW268284   9.599  14.222   1.105
55463SOL     OW68285   1.927  10.026   7.834
55463SOL    HW168286   1.998   9.975   7.795
55463SOL    HW268287   1.881  10.064   7.759
55464SOL     OW68288   9.685   0.518   5.134
55464SOL    HW168289   9.706   0.459   5.206
55464SOL    HW268290   9.603   0.559   5.160
55465SOL     OW68291   7.735   3.709  12.087
55465SOL    HW168292   7.785   3.667  12.156
55465SOL    HW268293   7.647   3.720  12.124
55466SOL     OW68294  10.066  11.833   0.995
55466SOL    HW168295  10.099  11.818   0.906
55466SOL    HW268296  10.116  11.908   1.027
55467SOL     OW68297   8.343  12.481   5.706
55467SOL    HW168298   8.383  12.394   5.701
55467SOL    HW268299   8.352  12.517   5.618
55468SOL     OW68300  10.850  10.454   6.380
55468SOL    HW168301  10.845  10.500   6.464
55468SOL    HW268302  10.787  10.383   6.388
55469SOL     OW68303   6.765  12.387  11.539
55469SOL    HW168304   6.772  12.470  11.492
55469SOL    HW268305   6.724  12.410  11.623
55470SOL     OW68306   1.890  10.135  13.654
55470SOL    HW168307   1.807  10.087  13.659
55470SOL    HW268308   1.867  10.225  13.677
55471SOL     OW68309   9.889   4.485  10.993
55471SOL    HW168310   9.870   4.577  11.014
55471SOL    HW268311   9.805   4.448  10.967
55472SOL     OW68312   1.722  10.642  14.827
55472SOL    HW168313   1.671  10.708  14.779
55472SOL    HW268314   1.795  10.621  14.769
55473SOL     OW68315  13.590  11.893  14.521
55473SOL    HW168316  13.612  11.984  14.500
55473SOL    HW268317  13.495  11.888  14.510
55474SOL     OW68318  12.819   5.594   3.251
55474SOL    HW168319  12.872   5.560   3.178
55474SOL    HW268320  12.744   5.636   3.209
55475SOL     OW68321   8.114  11.223   9.927
55475SOL    HW168322   8.041  11.207   9.987
55475SOL    HW268323   8.172  11.282   9.975
55476SOL     OW68324   0.037   7.640   5.517
55476SOL    HW168325   0.034   7.552   5.556
55476SOL    HW268326   0.032   7.624   5.422
55477SOL     OW68327  11.374  11.953   0.485
55477SOL    HW168328  11.464  11.967   0.518
55477SOL    HW268329  11.325  12.028   0.518
55478SOL     OW68330   9.026   2.538  12.362
55478SOL    HW168331   8.971   2.582  12.426
55478SOL    HW268332   9.097   2.499  12.414
55479SOL     OW68333  13.589   9.716   3.716
55479SOL    HW168334  13.669   9.666   3.703
55479SOL    HW268335  13.580   9.723   3.811
55480SOL     OW68336   0.128  13.820   7.042
55480SOL    HW168337   0.146  13.834   7.135
55480SOL    HW268338   0.046  13.866   7.026
55481SOL     OW68339  14.342  13.245  13.950
55481SOL    HW168340  14.416  13.185  13.953
55481SOL    HW268341  14.274  13.202  14.001
55482SOL     OW68342   5.882  10.860   2.330
55482SOL    HW168343   5.805  10.810   2.358
55482SOL    HW268344   5.930  10.799   2.274
55483SOL     OW68345   7.713  12.890   2.692
55483SOL    HW168346   7.772  12.949   2.646
55483SOL    HW268347   7.662  12.849   2.622
55484SOL     OW68348   2.530  10.674  12.243
55484SOL    HW168349   2.587  10.627  12.183
55484SOL    HW268350   2.580  10.753  12.267
55485SOL     OW68351  14.674   0.071   2.830
55485SOL    HW168352  14.646   0.047   2.741
55485SOL    HW268353  14.710  14.870   2.866
55486SOL     OW68354   8.300   1.751   6.919
55486SOL    HW168355   8.209   1.741   6.947
55486SOL    HW268356   8.301   1.718   6.829
55487SOL     OW68357   1.861   7.140   5.808
55487SOL    HW168358   1.890   7.213   5.862
55487SOL    HW268359   1.907   7.064   5.843
55488SOL     OW68360   1.347   5.242   6.934
55488SOL    HW168361   1.276   5.256   6.996
55488SOL    HW268362   1.421   5.289   6.973
55489SOL     OW68363   8.330  11.633   7.760
55489SOL    HW168364   8.240  11.614   7.734
55489SOL    HW268365   8.330  11.727   7.780
55490SOL     OW68366   5.891   3.802  10.956
55490SOL    HW168367   5.925   3.797  10.867
55490SOL    HW268368   5.841   3.884  10.958
55491SOL     OW68369   5.304  10.048   9.695
55491SOL    HW168370   5.233   9.990   9.720
55491SOL    HW268371   5.292  10.126   9.748
55492SOL     OW68372   5.000   2.114   0.951
55492SOL    HW168373   5.047   2.099   0.869
55492SOL    HW268374   4.985   2.027   0.987
55493SOL     OW68375  10.680   4.868  11.538
55493SOL    HW168376  10.718   4.946  11.578
55493SOL    HW268377  10.702   4.875  11.445
55494SOL     OW68378  13.007  12.806  13.343
55494SOL    HW168379  12.948  12.823  13.269
55494SOL    HW268380  13.018  12.891  13.384
55495SOL     OW68381  14.714   4.838   4.976
55495SOL    HW168382  14.768   4.802   4.905
55495SOL    HW268383  14.642   4.775   4.986
55496SOL     OW68384  12.571   0.410   2.092
55496SOL    HW168385  12.643   0.463   2.127
55496SOL    HW268386  12.581   0.325   2.135
55497SOL     OW68387  10.692   4.130   1.297
55497SOL    HW168388  10.674   4.084   1.379
55497SOL    HW268389  10.787   4.145   1.297
55498SOL     OW68390   7.327   7.578  13.461
55498SOL    HW168391   7.396   7.512  13.454
55498SOL    HW268392   7.257   7.546  13.405
55499SOL     OW68393  14.025  14.109   3.913
55499SOL    HW168394  13.930  14.119   3.914
55499SOL    HW268395  14.048  14.087   4.003
55500SOL     OW68396   6.901   6.457   3.500
55500SOL    HW168397   6.984   6.463   3.547
55500SOL    HW268398   6.836   6.493   3.560
55501SOL     OW68399   3.568  14.656  14.850
55501SOL    HW168400   3.553  14.614   0.055
55501SOL    HW268401   3.517  14.604  14.788
55502SOL     OW68402   9.220  13.374   3.231
55502SOL    HW168403   9.241  13.355   3.139
55502SOL    HW268404   9.215  13.288   3.272
55503SOL     OW68405   8.460   1.651  10.083
55503SOL    HW168406   8.398   1.670  10.154
55503SOL    HW268407   8.422   1.576  10.038
55504SOL     OW68408  10.678   0.298  14.373
55504SOL    HW168409  10.740   0.250  14.428
55504SOL    HW268410  10.608   0.325  14.433
55505SOL     OW68411   8.758   0.887   5.625
55505SOL    HW168412   8.737   0.979   5.608
55505SOL    HW268413   8.673   0.842   5.617
55506SOL     OW68414  12.930   9.232   8.249
55506SOL    HW168415  12.847   9.203   8.210
55506SOL    HW268416  12.914   9.230   8.343
55507SOL     OW68417   6.910  10.525   3.082
55507SOL    HW168418   6.990  10.541   3.032
55507SOL    HW268419   6.934  10.541   3.173
55508SOL     OW68420   4.712  10.378  13.101
55508SOL    HW168421   4.746  10.376  13.190
55508SOL    HW268422   4.790  10.383  13.046
55509SOL     OW68423   4.486  11.570   9.510
55509SOL    HW168424   4.411  11.592   9.455
55509SOL    HW268425   4.562  11.577   9.451
55510SOL     OW68426   5.101  14.502   9.117
55510SOL    HW168427   5.079  14.564   9.187
55510SOL    HW268428   5.051  14.533   9.041
55511SOL     OW68429  10.479  14.288  14.267
55511SOL    HW168430  10.475  14.198  14.299
55511SOL    HW268431  10.469  14.281  14.172
55512SOL     OW68432   8.455   1.297   5.479
55512SOL    HW168433   8.391   1.331   5.541
55512SOL    HW268434   8.462   1.365   5.412
55513SOL     OW68435   6.397   6.447   8.968
55513SOL    HW168436   6.373   6.524   9.019
55513SOL    HW268437   6.386   6.374   9.029
55514SOL     OW68438  11.270   7.119  12.775
55514SOL    HW168439  11.261   7.178  12.849
55514SOL    HW268440  11.190   7.131  12.724
55515SOL     OW68441  11.209  11.155   0.623
55515SOL    HW168442  11.156  11.232   0.606
55515SOL    HW268443  11.242  11.129   0.537
55516SOL     OW68444   7.196  12.910   0.947
55516SOL    HW168445   7.268  12.899   1.010
55516SOL    HW268446   7.165  12.821   0.931
55517SOL     OW68447   9.587   3.626   1.950
55517SOL    HW168448   9.494   3.610   1.965
55517SOL    HW268449   9.620   3.544   1.915
55518SOL     OW68450   0.122  10.599   8.326
55518SOL    HW168451   0.180  10.528   8.297
55518SOL    HW268452   0.039  10.581   8.281
55519SOL     OW68453   9.651   7.065   9.786
55519SOL    HW168454   9.721   7.016   9.830
55519SOL    HW268455   9.575   7.054   9.842
55520SOL     OW68456  11.341   9.168   4.175
55520SOL    HW168457  11.277   9.108   4.213
55520SOL    HW268458  11.403   9.111   4.129
55521SOL     OW68459  12.602   2.384   9.166
55521SOL    HW168460  12.547   2.360   9.241
55521SOL    HW268461  12.662   2.309   9.155
55522SOL     OW68462  10.041  11.143  14.727
55522SOL    HW168463  10.133  11.146  14.701
55522SOL    HW268464  10.014  11.052  14.712
55523SOL     OW68465  10.797   4.241   8.889
55523SOL    HW168466  10.767   4.313   8.944
55523SOL    HW268467  10.781   4.269   8.799
55524SOL     OW68468   8.604  13.082   4.358
55524SOL    HW168469   8.672  13.024   4.392
55524SOL    HW268470   8.635  13.170   4.380
55525SOL     OW68471  14.443  12.496   9.896
55525SOL    HW168472  14.505  12.432   9.932
55525SOL    HW268473  14.492  12.578   9.893
55526SOL     OW68474   6.311   8.745  13.134
55526SOL    HW168475   6.395   8.712  13.165
55526SOL    HW268476   6.332   8.826  13.089
55527SOL     OW68477   5.229  11.977   7.650
55527SOL    HW168478   5.302  12.032   7.679
55527SOL    HW268479   5.164  12.039   7.616
55528SOL     OW68480   8.540   5.129   4.975
55528SOL    HW168481   8.623   5.176   4.977
55528SOL    HW268482   8.504   5.147   4.889
55529SOL     OW68483   3.214   2.026   3.394
55529SOL    HW168484   3.152   2.054   3.462
55529SOL    HW268485   3.210   1.931   3.395
55530SOL     OW68486   5.792  13.852   2.515
55530SOL    HW168487   5.746  13.922   2.470
55530SOL    HW268488   5.742  13.839   2.596
55531SOL     OW68489   6.290  10.229  13.696
55531SOL    HW168490   6.288  10.151  13.751
55531SOL    HW268491   6.339  10.294  13.748
55532SOL     OW68492  14.518   4.332  12.853
55532SOL    HW168493  14.580   4.348  12.924
55532SOL    HW268494  14.444   4.287  12.895
55533SOL     OW68495   2.663  12.022   2.426
55533SOL    HW168496   2.701  12.103   2.390
55533SOL    HW268497   2.706  12.011   2.510
55534SOL     OW68498   2.500   8.343   4.782
55534SOL    HW168499   2.590   8.312   4.791
55534SOL    HW268500   2.506   8.417   4.721
55535SOL     OW68501  12.514  12.037   7.313
55535SOL    HW168502  12.494  12.094   7.387
55535SOL    HW268503  12.429  12.017   7.274
55536SOL     OW68504   4.520   0.895   6.731
55536SOL    HW168505   4.482   0.874   6.646
55536SOL    HW268506   4.512   0.815   6.782
55537SOL     OW68507  11.554   2.311   2.740
55537SOL    HW168508  11.577   2.236   2.685
55537SOL    HW268509  11.636   2.357   2.755
55538SOL     OW68510   9.688   8.524   7.491
55538SOL    HW168511   9.769   8.574   7.480
55538SOL    HW268512   9.619   8.591   7.491
55539SOL     OW68513  13.441   4.208  10.765
55539SOL    HW168514  13.525   4.202  10.811
55539SOL    HW268515  13.398   4.124  10.783
55540SOL     OW68516   1.085   4.918   6.573
55540SOL    HW168517   1.098   5.011   6.592
55540SOL    HW268518   1.041   4.884   6.651
55541SOL     OW68519   7.669  12.438  12.198
55541SOL    HW168520   7.746  12.402  12.241
55541SOL    HW268521   7.643  12.371  12.134
55542SOL     OW68522  13.202   4.248   2.043
55542SOL    HW168523  13.150   4.256   2.122
55542SOL    HW268524  13.249   4.165   2.053
55543SOL     OW68525   0.633   6.019   0.648
55543SOL    HW168526   0.622   6.027   0.742
55543SOL    HW268527   0.636   6.109   0.616
55544SOL     OW68528   3.342  10.029  12.075
55544SOL    HW168529   3.411  10.033  12.141
55544SOL    HW268530   3.318  10.121  12.060
55545SOL     OW68531   7.811  14.304   1.884
55545SOL    HW168532   7.723  14.304   1.920
55545SOL    HW268533   7.867  14.338   1.954
55546SOL     OW68534   7.290   4.743   2.827
55546SOL    HW168535   7.370   4.794   2.817
55546SOL    HW268536   7.287   4.721   2.920
55547SOL     OW68537   8.618   2.932   3.256
55547SOL    HW168538   8.604   2.974   3.340
55547SOL    HW268539   8.661   2.998   3.202
55548SOL     OW68540   2.743   0.707   9.056
55548SOL    HW168541   2.782   0.620   9.050
55548SOL    HW268542   2.712   0.725   8.967
55549SOL     OW68543   3.671   1.218  10.320
55549SOL    HW168544   3.580   1.208  10.295
55549SOL    HW268545   3.691   1.139  10.370
55550SOL     OW68546   1.247   7.226   1.933
55550SOL    HW168547   1.282   7.256   1.849
55550SOL    HW268548   1.159   7.265   1.938
55551SOL     OW68549   2.008   1.780  11.024
55551SOL    HW168550   1.939   1.845  11.009
55551SOL    HW268551   2.052   1.809  11.104
55552SOL     OW68552   5.270   1.738   7.192
55552SOL    HW168553   5.343   1.741   7.254
55552SOL    HW268554   5.257   1.645   7.174
55553SOL     OW68555  11.289   2.880  13.717
55553SOL    HW168556  11.354   2.896  13.785
55553SOL    HW268557  11.206   2.902  13.758
55554SOL     OW68558  12.910   4.557   2.876
55554SOL    HW168559  12.918   4.552   2.971
55554SOL    HW268560  12.941   4.472   2.844
55555SOL     OW68561   9.296   1.172   3.227
55555SOL    HW168562   9.360   1.118   3.181
55555SOL    HW268563   9.232   1.110   3.261
55556SOL     OW68564   4.681  10.100  13.165
55556SOL    HW168565   4.710  10.023  13.116
55556SOL    HW268566   4.706  10.174  13.110
55557SOL     OW68567   7.467   8.466   6.639
55557SOL    HW168568   7.386   8.495   6.598
55557SOL    HW268569   7.500   8.397   6.580
55558SOL     OW68570  10.132  10.831  12.824
55558SOL    HW168571  10.046  10.795  12.843
55558SOL    HW268572  10.169  10.851  12.910
55559SOL     OW68573   8.037  14.742   0.985
55559SOL    HW168574   8.082  14.699   1.058
55559SOL    HW268575   8.107  14.785   0.935
55560SOL     OW68576   4.970   2.474  10.301
55560SOL    HW168577   4.930   2.462  10.388
55560SOL    HW268578   5.063   2.461  10.316
55561SOL     OW68579   7.045   4.352   1.530
55561SOL    HW168580   7.106   4.390   1.594
55561SOL    HW268581   7.093   4.279   1.492
55562SOL     OW68582   0.059   8.598  14.542
55562SOL    HW168583   0.056   8.651  14.462
55562SOL    HW268584   0.057   8.662  14.613
55563SOL     OW68585  11.928   5.041  13.268
55563SOL    HW168586  11.863   4.999  13.324
55563SOL    HW268587  11.893   5.129  13.251
55564SOL     OW68588   6.882  11.167  11.047
55564SOL    HW168589   6.790  11.189  11.033
55564SOL    HW268590   6.910  11.127  10.965
55565SOL     OW68591   6.860  14.663   7.221
55565SOL    HW168592   6.916  14.691   7.293
55565SOL    HW268593   6.901  14.699   7.143
55566SOL     OW68594   4.780   0.675   7.839
55566SOL    HW168595   4.775   0.770   7.825
55566SOL    HW268596   4.689   0.646   7.836
55567SOL     OW68597  12.090   8.516   7.350
55567SOL    HW168598  12.071   8.477   7.265
55567SOL    HW268599  12.045   8.601   7.349
55568SOL     OW68600   0.135  14.020  14.028
55568SOL    HW168601   0.108  14.108  14.055
55568SOL    HW268602   0.143  14.025  13.933
55569SOL     OW68603  12.311   2.058  11.866
55569SOL    HW168604  12.236   2.114  11.848
55569SOL    HW268605  12.281   1.997  11.933
55570SOL     OW68606  12.723  11.523   3.971
55570SOL    HW168607  12.646  11.577   3.954
55570SOL    HW268608  12.796  11.575   3.937
55571SOL     OW68609   4.936   2.150   2.420
55571SOL    HW168610   4.886   2.098   2.483
55571SOL    HW268611   4.889   2.234   2.415
55572SOL     OW68612   6.254   0.796   8.698
55572SOL    HW168613   6.202   0.826   8.624
55572SOL    HW268614   6.268   0.703   8.682
55573SOL     OW68615   6.621  11.997   2.117
55573SOL    HW168616   6.674  11.924   2.149
55573SOL    HW268617   6.636  12.067   2.181
55574SOL     OW68618  13.854  13.801   3.412
55574SOL    HW168619  13.861  13.706   3.403
55574SOL    HW268620  13.899  13.836   3.334
55575SOL     OW68621   1.803  12.919  13.856
55575SOL    HW168622   1.770  13.002  13.892
55575SOL    HW268623   1.725  12.876  13.821
55576SOL     OW68624   1.646  14.378   0.212
55576SOL    HW168625   1.670  14.286   0.224
55576SOL    HW268626   1.568  14.389   0.266
55577SOL     OW68627   6.711   5.117   4.509
55577SOL    HW168628   6.689   5.146   4.598
55577SOL    HW268629   6.773   5.182   4.477
55578SOL     OW68630   3.091  13.114   4.036
55578SOL    HW168631   3.085  13.051   3.964
55578SOL    HW268632   3.162  13.080   4.092
55579SOL     OW68633  12.712   9.163   5.275
55579SOL    HW168634  12.675   9.131   5.193
55579SOL    HW268635  12.642   9.216   5.313
55580SOL     OW68636  13.249   9.228  12.555
55580SOL    HW168637  13.243   9.201  12.464
55580SOL    HW268638  13.254   9.146  12.604
55581SOL     OW68639   6.929   9.237  12.807
55581SOL    HW168640   7.018   9.208  12.822
55581SOL    HW268641   6.933   9.333  12.817
55582SOL     OW68642   3.779   6.077   6.373
55582SOL    HW168643   3.778   6.018   6.448
55582SOL    HW268644   3.818   6.158   6.407
55583SOL     OW68645   1.044   3.250   9.182
55583SOL    HW168646   1.097   3.172   9.168
55583SOL    HW268647   1.044   3.262   9.277
55584SOL     OW68648  14.838   4.413  12.592
55584SOL    HW168649   0.035   4.376  12.549
55584SOL    HW268650  14.862   4.504  12.611
55585SOL     OW68651   0.568   0.660   5.226
55585SOL    HW168652   0.610   0.742   5.250
55585SOL    HW268653   0.536   0.624   5.309
55586SOL     OW68654   2.326   8.936   4.857
55586SOL    HW168655   2.281   9.016   4.885
55586SOL    HW268656   2.310   8.932   4.762
55587SOL     OW68657  10.808   3.053   8.462
55587SOL    HW168658  10.836   2.969   8.498
55587SOL    HW268659  10.713   3.052   8.469
55588SOL     OW68660  14.250  11.856  11.265
55588SOL    HW168661  14.213  11.943  11.283
55588SOL    HW268662  14.177  11.806  11.228
55589SOL     OW68663   5.672  14.566  10.669
55589SOL    HW168664   5.751  14.581  10.617
55589SOL    HW268665   5.607  14.626  10.631
55590SOL     OW68666  12.859  14.074   1.873
55590SOL    HW168667  12.820  14.130   1.806
55590SOL    HW268668  12.919  14.131   1.921
55591SOL     OW68669   0.890   6.210   9.104
55591SOL    HW168670   0.838   6.177   9.030
55591SOL    HW268671   0.892   6.137   9.166
55592SOL     OW68672   1.826   8.962  12.776
55592SOL    HW168673   1.768   8.969  12.701
55592SOL    HW268674   1.839   8.867  12.787
55593SOL     OW68675  12.355   4.174   0.373
55593SOL    HW168676  12.314   4.161   0.459
55593SOL    HW268677  12.358   4.087   0.335
55594SOL     OW68678   4.521   8.748   1.279
55594SOL    HW168679   4.571   8.669   1.257
55594SOL    HW268680   4.489   8.780   1.195
55595SOL     OW68681   0.777  13.648   3.182
55595SOL    HW168682   0.822  13.733   3.176
55595SOL    HW268683   0.699  13.665   3.235
55596SOL     OW68684   5.069   2.649  13.019
55596SOL    HW168685   4.994   2.672  12.964
55596SOL    HW268686   5.057   2.698  13.100
55597SOL     OW68687   1.348  14.476  13.540
55597SOL    HW168688   1.422  14.458  13.482
55597SOL    HW268689   1.280  14.416  13.512
55598SOL     OW68690   2.137  11.794  10.792
55598SOL    HW168691   2.054  11.761  10.826
55598SOL    HW268692   2.191  11.808  10.870
55599SOL     OW68693   1.554   7.186   0.703
55599SOL    HW168694   1.489   7.118   0.687
55599SOL    HW268695   1.502   7.266   0.712
55600SOL     OW68696  14.855   7.533   2.108
55600SOL    HW168697   0.013   7.495   2.188
55600SOL    HW268698  14.765   7.500   2.106
55601SOL     OW68699  14.180   6.398  13.100
55601SOL    HW168700  14.093   6.412  13.137
55601SOL    HW268701  14.223   6.483  13.106
55602SOL     OW68702  13.607   4.610   4.037
55602SOL    HW168703  13.619   4.705   4.044
55602SOL    HW268704  13.569   4.585   4.121
55603SOL     OW68705  12.744   6.357   3.211
55603SOL    HW168706  12.782   6.399   3.134
55603SOL    HW268707  12.649   6.365   3.199
55604SOL     OW68708  13.735   6.529   8.176
55604SOL    HW168709  13.799   6.593   8.207
55604SOL    HW268710  13.676   6.516   8.251
55605SOL     OW68711  12.408  11.456   7.839
55605SOL    HW168712  12.452  11.470   7.923
55605SOL    HW268713  12.321  11.496   7.850
55606SOL     OW68714  12.507  12.724   8.111
55606SOL    HW168715  12.535  12.641   8.149
55606SOL    HW268716  12.426  12.702   8.064
55607SOL     OW68717   0.217   2.232   9.278
55607SOL    HW168718   0.224   2.151   9.330
55607SOL    HW268719   0.123   2.250   9.275
55608SOL     OW68720   9.828   6.109  13.525
55608SOL    HW168721   9.903   6.135  13.471
55608SOL    HW268722   9.795   6.030  13.482
55609SOL     OW68723   6.417  14.858   7.366
55609SOL    HW168724   6.506  14.866   7.332
55609SOL    HW268725   6.400  14.764   7.366
55610SOL     OW68726   4.214   3.627  14.318
55610SOL    HW168727   4.211   3.702  14.259
55610SOL    HW268728   4.199   3.551  14.262
55611SOL     OW68729   4.056  14.338   5.253
55611SOL    HW168730   3.961  14.341   5.257
55611SOL    HW268731   4.076  14.332   5.160
55612SOL     OW68732   7.959   8.468   6.390
55612SOL    HW168733   7.865   8.474   6.373
55612SOL    HW268734   7.991   8.409   6.322
55613SOL     OW68735   2.609   0.995  14.842
55613SOL    HW168736   2.664   0.916  14.845
55613SOL    HW268737   2.522   0.964  14.866
55614SOL     OW68738   4.422  13.032  11.255
55614SOL    HW168739   4.416  13.009  11.348
55614SOL    HW268740   4.356  12.976  11.213
55615SOL     OW68741   7.549  14.572   5.592
55615SOL    HW168742   7.499  14.592   5.671
55615SOL    HW268743   7.593  14.489   5.610
55616SOL     OW68744   1.716   0.458  13.705
55616SOL    HW168745   1.708   0.368  13.735
55616SOL    HW268746   1.799   0.489  13.741
55617SOL     OW68747   4.995   8.361   8.304
55617SOL    HW168748   5.008   8.318   8.388
55617SOL    HW268749   4.901   8.379   8.300
55618SOL     OW68750  13.807   1.730   6.693
55618SOL    HW168751  13.887   1.693   6.730
55618SOL    HW268752  13.768   1.657   6.644
55619SOL     OW68753   0.723  12.402   2.534
55619SOL    HW168754   0.679  12.474   2.488
55619SOL    HW268755   0.784  12.446   2.594
55620SOL     OW68756  12.198   0.968  12.740
55620SOL    HW168757  12.123   0.973  12.681
55620SOL    HW268758  12.206   1.057  12.775
55621SOL     OW68759   7.781  12.886  12.878
55621SOL    HW168760   7.711  12.923  12.824
55621SOL    HW268761   7.851  12.951  12.874
55622SOL     OW68762   1.621   9.267  11.803
55622SOL    HW168763   1.584   9.277  11.715
55622SOL    HW268764   1.642   9.356  11.830
55623SOL     OW68765   3.117   4.351   4.115
55623SOL    HW168766   3.101   4.291   4.043
55623SOL    HW268767   3.034   4.399   4.125
55624SOL     OW68768   1.474   0.594   0.328
55624SOL    HW168769   1.486   0.659   0.259
55624SOL    HW268770   1.546   0.610   0.389
55625SOL     OW68771  14.236  12.190  11.323
55625SOL    HW168772  14.318  12.202  11.275
55625SOL    HW268773  14.175  12.250  11.282
55626SOL     OW68774   6.322   6.267   0.539
55626SOL    HW168775   6.378   6.198   0.574
55626SOL    HW268776   6.252   6.221   0.494
55627SOL     OW68777  13.974   7.446   7.461
55627SOL    HW168778  14.065   7.438   7.431
55627SOL    HW268779  13.946   7.355   7.476
55628SOL     OW68780   9.834   0.932   5.483
55628SOL    HW168781   9.902   0.887   5.432
55628SOL    HW268782   9.866   0.928   5.574
55629SOL     OW68783  14.160  14.418   3.306
55629SOL    HW168784  14.116  14.426   3.391
55629SOL    HW268785  14.133  14.333   3.272
55630SOL     OW68786   6.505   1.132   6.545
55630SOL    HW168787   6.485   1.213   6.592
55630SOL    HW268788   6.596   1.113   6.566
55631SOL     OW68789   1.285  14.486  12.569
55631SOL    HW168790   1.376  14.479  12.541
55631SOL    HW268791   1.287  14.463  12.662
55632SOL     OW68792  10.891  12.226   2.683
55632SOL    HW168793  10.806  12.270   2.675
55632SOL    HW268794  10.955  12.294   2.659
55633SOL     OW68795   3.274   9.719   6.753
55633SOL    HW168796   3.290   9.811   6.730
55633SOL    HW268797   3.179   9.711   6.755
55634SOL     OW68798   1.492  11.995  10.285
55634SOL    HW168799   1.514  12.040  10.204
55634SOL    HW268800   1.505  12.061  10.353
55635SOL     OW68801   2.437   4.256  12.910
55635SOL    HW168802   2.416   4.224  12.823
55635SOL    HW268803   2.361   4.309  12.936
55636SOL     OW68804   7.146   2.340   5.752
55636SOL    HW168805   7.197   2.403   5.804
55636SOL    HW268806   7.130   2.385   5.670
55637SOL     OW68807   2.850   1.579   1.344
55637SOL    HW168808   2.854   1.604   1.436
55637SOL    HW268809   2.857   1.662   1.297
55638SOL     OW68810   2.928   3.185   9.404
55638SOL    HW168811   2.996   3.120   9.422
55638SOL    HW268812   2.928   3.241   9.482
55639SOL     OW68813   5.614  10.247   7.112
55639SOL    HW168814   5.586  10.335   7.138
55639SOL    HW268815   5.695  10.232   7.161
55640SOL     OW68816  14.032  11.569   2.315
55640SOL    HW168817  14.106  11.608   2.362
55640SOL    HW268818  14.071  11.533   2.235
55641SOL     OW68819  10.561  13.293  11.085
55641SOL    HW168820  10.632  13.230  11.099
55641SOL    HW268821  10.606  13.377  11.076
55642SOL     OW68822  14.770  11.943  11.291
55642SOL    HW168823  14.836  11.977  11.351
55642SOL    HW268824  14.771  12.003  11.217
55643SOL     OW68825   7.903   0.854   8.503
55643SOL    HW168826   7.835   0.922   8.503
55643SOL    HW268827   7.968   0.887   8.565
55644SOL     OW68828   8.280   8.101   0.703
55644SOL    HW168829   8.215   8.039   0.671
55644SOL    HW268830   8.364   8.056   0.691
55645SOL     OW68831   5.731  12.672  11.730
55645SOL    HW168832   5.725  12.668  11.634
55645SOL    HW268833   5.804  12.731  11.748
55646SOL     OW68834   1.293   4.221  14.829
55646SOL    HW168835   1.258   4.233  14.740
55646SOL    HW268836   1.319   4.308  14.857
55647SOL     OW68837   0.206   8.248   5.322
55647SOL    HW168838   0.122   8.202   5.332
55647SOL    HW268839   0.251   8.201   5.252
55648SOL     OW68840   0.087  10.507   3.407
55648SOL    HW168841   0.041  10.566   3.346
55648SOL    HW268842   0.168  10.553   3.428
55649SOL     OW68843   3.949   7.043   7.516
55649SOL    HW168844   3.978   6.982   7.583
55649SOL    HW268845   3.870   7.004   7.479
55650SOL     OW68846   9.041  13.953   7.121
55650SOL    HW168847   8.958  13.905   7.127
55650SOL    HW268848   9.108  13.887   7.138
55651SOL     OW68849   7.971  14.109   4.429
55651SOL    HW168850   7.895  14.113   4.487
55651SOL    HW268851   8.032  14.052   4.475
55652SOL     OW68852  11.464   6.011   1.908
55652SOL    HW168853  11.485   6.007   2.002
55652SOL    HW268854  11.539   6.056   1.869
55653SOL     OW68855  13.811   6.739   4.841
55653SOL    HW168856  13.882   6.688   4.801
55653SOL    HW268857  13.736   6.680   4.840
55654SOL     OW68858  11.338  14.820   9.823
55654SOL    HW168859  11.243  14.817   9.831
55654SOL    HW268860  11.358   0.030   9.798
55655SOL     OW68861   3.686   5.569   7.055
55655SOL    HW168862   3.607   5.538   7.100
55655SOL    HW268863   3.718   5.641   7.109
55656SOL     OW68864   9.831   7.214   4.483
55656SOL    HW168865   9.869   7.295   4.450
55656SOL    HW268866   9.828   7.156   4.407
55657SOL     OW68867   8.554   7.505   9.117
55657SOL    HW168868   8.519   7.442   9.180
55657SOL    HW268869   8.485   7.572   9.110
55658SOL     OW68870   9.741   5.894   8.215
55658SOL    HW168871   9.811   5.930   8.269
55658SOL    HW268872   9.748   5.940   8.132
55659SOL     OW68873   9.579   6.779   3.627
55659SOL    HW168874   9.658   6.814   3.586
55659SOL    HW268875   9.540   6.855   3.672
55660SOL     OW68876  13.829   0.474   5.164
55660SOL    HW168877  13.841   0.471   5.069
55660SOL    HW268878  13.764   0.542   5.178
55661SOL     OW68879   2.777   7.820   2.997
55661SOL    HW168880   2.707   7.866   2.952
55661SOL    HW268881   2.814   7.762   2.931
55662SOL     OW68882  13.407   0.727  12.618
55662SOL    HW168883  13.390   0.821  12.630
55662SOL    HW268884  13.488   0.724  12.567
55663SOL     OW68885  11.021   6.397   2.260
55663SOL    HW168886  10.959   6.325   2.277
55663SOL    HW268887  11.033   6.438   2.346
55664SOL     OW68888   7.411  10.346   5.737
55664SOL    HW168889   7.372  10.285   5.801
55664SOL    HW268890   7.338  10.400   5.709
55665SOL     OW68891   5.066  10.266   4.196
55665SOL    HW168892   4.991  10.286   4.140
55665SOL    HW268893   5.034  10.279   4.285
55666SOL     OW68894  11.869  10.243  11.531
55666SOL    HW168895  11.832  10.207  11.451
55666SOL    HW268896  11.919  10.319  11.502
55667SOL     OW68897   1.488   5.608  12.045
55667SOL    HW168898   1.401   5.624  12.082
55667SOL    HW268899   1.471   5.579  11.955
55668SOL     OW68900   0.880  10.896   0.588
55668SOL    HW168901   0.851  10.980   0.552
55668SOL    HW268902   0.815  10.876   0.655
55669SOL     OW68903   3.665   5.031   6.579
55669SOL    HW168904   3.614   4.964   6.533
55669SOL    HW268905   3.639   5.022   6.670
55670SOL     OW68906   5.880   8.812  11.127
55670SOL    HW168907   5.856   8.876  11.060
55670SOL    HW268908   5.975   8.802  11.117
55671SOL     OW68909  14.258   5.495  13.779
55671SOL    HW168910  14.209   5.577  13.773
55671SOL    HW268911  14.193   5.429  13.802
55672SOL     OW68912  11.062  11.711   1.583
55672SOL    HW168913  11.027  11.633   1.540
55672SOL    HW268914  10.991  11.741   1.640
55673SOL     OW68915   3.187   9.626  14.810
55673SOL    HW168916   3.163   9.533  14.814
55673SOL    HW268917   3.153   9.656  14.726
55674SOL     OW68918   8.476   5.148   2.395
55674SOL    HW168919   8.444   5.194   2.317
55674SOL    HW268920   8.398   5.104   2.430
55675SOL     OW68921   7.694  13.932   4.746
55675SOL    HW168922   7.755  13.959   4.815
55675SOL    HW268923   7.653  13.852   4.780
55676SOL     OW68924   3.543   5.158  13.608
55676SOL    HW168925   3.552   5.184  13.699
55676SOL    HW268926   3.633   5.153  13.575
55677SOL     OW68927  13.866   5.436   5.920
55677SOL    HW168928  13.842   5.518   5.961
55677SOL    HW268929  13.924   5.461   5.847
55678SOL     OW68930  13.397   8.410  14.567
55678SOL    HW168931  13.393   8.475  14.637
55678SOL    HW268932  13.483   8.368  14.578
55679SOL     OW68933   6.053   8.942   1.065
55679SOL    HW168934   6.021   8.856   1.091
55679SOL    HW268935   6.139   8.949   1.107
55680SOL     OW68936  11.133   4.824  13.091
55680SOL    HW168937  11.165   4.889  13.029
55680SOL    HW268938  11.154   4.740  13.051
55681SOL     OW68939   5.573   2.425   0.089
55681SOL    HW168940   5.544   2.516   0.096
55681SOL    HW268941   5.581   2.395   0.180
55682SOL     OW68942   6.198  13.138  14.850
55682SOL    HW168943   6.232  13.049  14.849
55682SOL    HW268944   6.106  13.129  14.876
55683SOL     OW68945  12.982  10.648   7.414
55683SOL    HW168946  13.029  10.565   7.416
55683SOL    HW268947  12.924  10.642   7.338
55684SOL     OW68948   0.372  11.208  12.548
55684SOL    HW168949   0.289  11.256  12.547
55684SOL    HW268950   0.384  11.181  12.639
55685SOL     OW68951  11.282   3.976   7.015
55685SOL    HW168952  11.279   3.917   7.091
55685SOL    HW268953  11.206   3.952   6.962
55686SOL     OW68954   0.653  12.718   5.464
55686SOL    HW168955   0.687  12.656   5.528
55686SOL    HW268956   0.569  12.746   5.500
55687SOL     OW68957   1.995  10.598   4.902
55687SOL    HW168958   1.989  10.638   4.815
55687SOL    HW268959   1.923  10.536   4.905
55688SOL     OW68960   8.027   5.940   5.148
55688SOL    HW168961   8.102   5.989   5.117
55688SOL    HW268962   8.064   5.862   5.189
55689SOL     OW68963   5.979  10.336  10.462
55689SOL    HW168964   5.969  10.327  10.367
55689SOL    HW268965   6.034  10.413  10.473
55690SOL     OW68966  14.630   2.460  11.412
55690SOL    HW168967  14.650   2.505  11.329
55690SOL    HW268968  14.599   2.374  11.385
55691SOL     OW68969  10.326   0.214   6.977
55691SOL    HW168970  10.354   0.241   7.064
55691SOL    HW268971  10.338   0.291   6.922
55692SOL     OW68972   6.122  12.634   4.050
55692SOL    HW168973   6.034  12.613   4.080
55692SOL    HW268974   6.132  12.727   4.069
55693SOL     OW68975   0.374   0.410   8.686
55693SOL    HW168976   0.387   0.363   8.768
55693SOL    HW268977   0.351   0.499   8.712
55694SOL     OW68978   8.154   0.155   6.613
55694SOL    HW168979   8.203   0.170   6.694
55694SOL    HW268980   8.118   0.241   6.591
55695SOL     OW68981  11.839   5.535   5.183
55695SOL    HW168982  11.889   5.453   5.184
55695SOL    HW268983  11.760   5.516   5.232
55696SOL     OW68984  14.406  11.353   7.365
55696SOL    HW168985  14.402  11.291   7.292
55696SOL    HW268986  14.385  11.300   7.442
55697SOL     OW68987  13.670   0.620  11.667
55697SOL    HW168988  13.584   0.611  11.625
55697SOL    HW268989  13.670   0.554  11.736
55698SOL     OW68990   4.306  13.302   7.194
55698SOL    HW168991   4.258  13.333   7.118
55698SOL    HW268992   4.390  13.347   7.190
55699SOL     OW68993   1.295   1.973   2.623
55699SOL    HW168994   1.237   1.922   2.680
55699SOL    HW268995   1.368   1.998   2.680
55700SOL     OW68996  10.603   7.858   4.207
55700SOL    HW168997  10.659   7.924   4.248
55700SOL    HW268998  10.540   7.834   4.275
55701SOL     OW68999   5.364   4.502  10.580
55701SOL    HW169000   5.300   4.436  10.605
55701SOL    HW269001   5.414   4.462  10.509
55702SOL     OW69002   5.304  13.667  10.923
55702SOL    HW169003   5.280  13.635  10.836
55702SOL    HW269004   5.352  13.748  10.907
55703SOL     OW69005   0.036   8.541   8.702
55703SOL    HW169006   0.104   8.474   8.699
55703SOL    HW269007  14.857   8.518   8.629
55704SOL     OW69008   2.004   8.622   8.253
55704SOL    HW169009   1.964   8.629   8.166
55704SOL    HW269010   1.971   8.698   8.301
55705SOL     OW69011   5.486  11.513   7.740
55705SOL    HW169012   5.470  11.560   7.821
55705SOL    HW269013   5.441  11.564   7.672
55706SOL     OW69014   8.154   7.980  11.348
55706SOL    HW169015   8.146   8.075  11.348
55706SOL    HW269016   8.207   7.960  11.425
55707SOL     OW69017  11.478   6.460   2.323
55707SOL    HW169018  11.523   6.408   2.390
55707SOL    HW269019  11.459   6.543   2.366
55708SOL     OW69020   5.397   2.142   0.954
55708SOL    HW169021   5.398   2.236   0.972
55708SOL    HW269022   5.488   2.115   0.961
55709SOL     OW69023   6.043  10.936  13.434
55709SOL    HW169024   5.973  10.998  13.416
55709SOL    HW269025   6.089  10.973  13.509
55710SOL     OW69026  13.497   8.841  11.742
55710SOL    HW169027  13.425   8.781  11.762
55710SOL    HW269028  13.544   8.798  11.671
55711SOL     OW69029   0.900   6.377   9.945
55711SOL    HW169030   0.944   6.460   9.928
55711SOL    HW269031   0.851   6.359   9.865
55712SOL     OW69032  13.648  13.752   8.392
55712SOL    HW169033  13.570  13.732   8.340
55712SOL    HW269034  13.624  13.828   8.444
55713SOL     OW69035   2.764  14.548  13.940
55713SOL    HW169036   2.783  14.496  14.018
55713SOL    HW269037   2.724  14.628  13.974
55714SOL     OW69038   1.233   7.633  10.660
55714SOL    HW169039   1.290   7.710  10.651
55714SOL    HW269040   1.144   7.667  10.653
55715SOL     OW69041   3.344  13.735   5.030
55715SOL    HW169042   3.352  13.669   5.099
55715SOL    HW269043   3.277  13.700   4.971
55716SOL     OW69044   6.837   4.452   5.056
55716SOL    HW169045   6.869   4.519   4.996
55716SOL    HW269046   6.770   4.405   5.007
55717SOL     OW69047  13.923  10.666   8.550
55717SOL    HW169048  13.841  10.680   8.504
55717SOL    HW269049  13.987  10.717   8.501
55718SOL     OW69050  14.370   8.943  10.746
55718SOL    HW169051  14.379   9.031  10.710
55718SOL    HW269052  14.436   8.940  10.816
55719SOL     OW69053   3.948   5.937  12.661
55719SOL    HW169054   4.017   5.874  12.683
55719SOL    HW269055   3.934   5.926  12.567
55720SOL     OW69056   6.292   4.913   5.016
55720SOL    HW169057   6.293   5.007   5.035
55720SOL    HW269058   6.207   4.883   5.047
55721SOL     OW69059  12.054   8.123   1.408
55721SOL    HW169060  11.970   8.157   1.438
55721SOL    HW269061  12.034   8.076   1.327
55722SOL     OW69062   2.181   6.362  14.804
55722SOL    HW169063   2.253   6.299  14.801
55722SOL    HW269064   2.117   6.322  14.863
55723SOL     OW69065   5.965  13.667  14.416
55723SOL    HW169066   5.904  13.595  14.431
55723SOL    HW269067   5.926  13.742  14.460
55724SOL     OW69068  12.332   0.867  13.556
55724SOL    HW169069  12.346   0.913  13.638
55724SOL    HW269070  12.298   0.781  13.582
55725SOL     OW69071  10.690  14.422   5.724
55725SOL    HW169072  10.663  14.338   5.686
55725SOL    HW269073  10.746  14.397   5.798
55726SOL     OW69074   2.079  12.192   4.294
55726SOL    HW169075   2.119  12.250   4.229
55726SOL    HW269076   2.129  12.110   4.286
55727SOL     OW69077   9.209   6.749  13.428
55727SOL    HW169078   9.222   6.795  13.511
55727SOL    HW269079   9.261   6.799  13.365
55728SOL     OW69080   4.664   3.447  11.431
55728SOL    HW169081   4.754   3.418  11.417
55728SOL    HW269082   4.624   3.442  11.344
55729SOL     OW69083   1.947   2.235   5.723
55729SOL    HW169084   1.951   2.141   5.742
55729SOL    HW269085   2.035   2.258   5.693
55730SOL     OW69086  11.810  11.955   7.203
55730SOL    HW169087  11.802  11.901   7.124
55730SOL    HW269088  11.807  12.045   7.171
55731SOL     OW69089   0.925   6.848   5.474
55731SOL    HW169090   0.969   6.933   5.472
55731SOL    HW269091   0.885   6.839   5.387
55732SOL     OW69092  10.035   3.986   3.882
55732SOL    HW169093  10.027   3.979   3.977
55732SOL    HW269094   9.947   4.009   3.852
55733SOL     OW69095   4.469  12.498   1.841
55733SOL    HW169096   4.549  12.545   1.817
55733SOL    HW269097   4.499  12.423   1.892
55734SOL     OW69098   5.190   4.515   6.867
55734SOL    HW169099   5.271   4.550   6.905
55734SOL    HW269100   5.211   4.502   6.775
55735SOL     OW69101   5.689   5.067   9.471
55735SOL    HW169102   5.784   5.066   9.465
55735SOL    HW269103   5.660   5.003   9.405
55736SOL     OW69104   2.506  12.960   9.111
55736SOL    HW169105   2.580  12.905   9.086
55736SOL    HW269106   2.531  13.048   9.084
55737SOL     OW69107   1.445  12.236   0.969
55737SOL    HW169108   1.504  12.187   1.026
55737SOL    HW269109   1.436  12.321   1.012
55738SOL     OW69110  14.444  11.017  13.427
55738SOL    HW169111  14.366  11.029  13.481
55738SOL    HW269112  14.451  10.922  13.415
55739SOL     OW69113   7.978   3.855  10.294
55739SOL    HW169114   7.926   3.935  10.288
55739SOL    HW269115   7.930   3.792  10.240
55740SOL     OW69116   4.641   5.919   4.809
55740SOL    HW169117   4.545   5.920   4.805
55740SOL    HW269118   4.669   5.909   4.718
55741SOL     OW69119   8.212  12.644   9.165
55741SOL    HW169120   8.265  12.708   9.212
55741SOL    HW269121   8.275  12.577   9.138
55742SOL     OW69122  12.822   2.722   5.943
55742SOL    HW169123  12.818   2.724   5.848
55742SOL    HW269124  12.902   2.672   5.962
55743SOL     OW69125   6.329   8.351   7.559
55743SOL    HW169126   6.403   8.327   7.503
55743SOL    HW269127   6.363   8.417   7.618
55744SOL     OW69128   6.948   0.492   3.162
55744SOL    HW169129   6.917   0.408   3.127
55744SOL    HW269130   6.944   0.552   3.088
55745SOL     OW69131   6.949  12.586  13.775
55745SOL    HW169132   7.027  12.576  13.722
55745SOL    HW269133   6.884  12.625  13.717
55746SOL     OW69134   5.280   4.911  14.715
55746SOL    HW169135   5.351   4.974  14.703
55746SOL    HW269136   5.313   4.850  14.781
55747SOL     OW69137   6.652   6.730  13.953
55747SOL    HW169138   6.558   6.724  13.936
55747SOL    HW269139   6.668   6.665  14.021
55748SOL     OW69140   2.154  12.217   0.991
55748SOL    HW169141   2.104  12.273   0.932
55748SOL    HW269142   2.198  12.277   1.051
55749SOL     OW69143   4.160   4.156  11.991
55749SOL    HW169144   4.118   4.087  12.043
55749SOL    HW269145   4.221   4.109  11.934
55750SOL     OW69146   7.696   2.591   9.979
55750SOL    HW169147   7.693   2.677   9.938
55750SOL    HW269148   7.658   2.532   9.914
55751SOL     OW69149   1.546   7.448   9.784
55751SOL    HW169150   1.471   7.455   9.843
55751SOL    HW269151   1.511   7.474   9.699
55752SOL     OW69152  14.173   6.639   4.824
55752SOL    HW169153  14.128   6.697   4.762
55752SOL    HW269154  14.102   6.598   4.873
55753SOL     OW69155   1.647  14.610  11.418
55753SOL    HW169156   1.574  14.619  11.357
55753SOL    HW269157   1.644  14.518  11.445
55754SOL     OW69158  10.059   5.237  10.264
55754SOL    HW169159   9.976   5.190  10.276
55754SOL    HW269160  10.112   5.178  10.211
55755SOL     OW69161   3.737   6.390  12.337
55755SOL    HW169162   3.827   6.376  12.308
55755SOL    HW269163   3.688   6.407  12.257
55756SOL     OW69164  12.200  10.860  12.455
55756SOL    HW169165  12.154  10.832  12.377
55756SOL    HW269166  12.166  10.948  12.473
55757SOL     OW69167   0.404   6.004   4.394
55757SOL    HW169168   0.448   5.947   4.332
55757SOL    HW269169   0.385   6.084   4.344
55758SOL     OW69170  10.223   8.659   4.867
55758SOL    HW169171  10.167   8.729   4.901
55758SOL    HW269172  10.308   8.700   4.854
55759SOL     OW69173   3.677   5.383   0.200
55759SOL    HW169174   3.729   5.406   0.277
55759SOL    HW269175   3.708   5.441   0.131
55760SOL     OW69176   5.246   4.267   7.294
55760SOL    HW169177   5.328   4.232   7.258
55760SOL    HW269178   5.275   4.335   7.356
55761SOL     OW69179  11.318   1.382   8.877
55761SOL    HW169180  11.228   1.380   8.910
55761SOL    HW269181  11.366   1.324   8.936
55762SOL     OW69182   9.149  10.204   5.737
55762SOL    HW169183   9.166  10.186   5.644
55762SOL    HW269184   9.053  10.205   5.744
55763SOL     OW69185   7.864  10.115   6.198
55763SOL    HW169186   7.943  10.088   6.243
55763SOL    HW269187   7.846  10.203   6.232
55764SOL     OW69188   5.336   5.556   4.916
55764SOL    HW169189   5.381   5.520   4.840
55764SOL    HW269190   5.249   5.579   4.884
55765SOL     OW69191  10.248   1.828   7.131
55765SOL    HW169192  10.205   1.910   7.107
55765SOL    HW269193  10.277   1.842   7.221
55766SOL     OW69194   9.558   4.261  12.761
55766SOL    HW169195   9.612   4.276  12.684
55766SOL    HW269196   9.620   4.230  12.828
55767SOL     OW69197   2.478  12.814   2.643
55767SOL    HW169198   2.505  12.870   2.716
55767SOL    HW269199   2.411  12.756   2.681
55768SOL     OW69200   6.826   9.530   0.648
55768SOL    HW169201   6.753   9.501   0.702
55768SOL    HW269202   6.879   9.451   0.635
55769SOL     OW69203  11.193  11.979  12.086
55769SOL    HW169204  11.204  11.965  11.993
55769SOL    HW269205  11.098  11.972  12.100
55770SOL     OW69206   7.483  12.039   4.248
55770SOL    HW169207   7.567  11.995   4.259
55770SOL    HW269208   7.500  12.130   4.272
55771SOL     OW69209   8.735   5.638   9.036
55771SOL    HW169210   8.715   5.637   9.129
55771SOL    HW269211   8.649   5.633   8.993
55772SOL     OW69212   0.665   4.318  13.334
55772SOL    HW169213   0.663   4.332  13.429
55772SOL    HW269214   0.753   4.347  13.308
55773SOL     OW69215  13.342   6.822   7.011
55773SOL    HW169216  13.262   6.853   6.969
55773SOL    HW269217  13.312   6.759   7.077
55774SOL     OW69218   8.213   5.976   9.051
55774SOL    HW169219   8.185   6.029   9.126
55774SOL    HW269220   8.143   5.988   8.987
55775SOL     OW69221   9.084  14.344   2.008
55775SOL    HW169222   9.086  14.377   2.098
55775SOL    HW269223   9.167  14.299   1.997
55776SOL     OW69224   1.821   1.459   6.835
55776SOL    HW169225   1.817   1.496   6.923
55776SOL    HW269226   1.853   1.370   6.848
55777SOL     OW69227   8.320  11.178   9.093
55777SOL    HW169228   8.319  11.263   9.048
55777SOL    HW269229   8.367  11.195   9.175
55778SOL     OW69230   4.039  11.599   7.069
55778SOL    HW169231   3.977  11.667   7.093
55778SOL    HW269232   4.071  11.564   7.152
55779SOL     OW69233   8.747  14.798   2.233
55779SOL    HW169234   8.764  14.787   2.139
55779SOL    HW269235   8.709  14.715   2.260
55780SOL     OW69236   7.593  14.626   8.508
55780SOL    HW169237   7.570  14.570   8.434
55780SOL    HW269238   7.511  14.670   8.531
55781SOL     OW69239   2.720  11.032   5.732
55781SOL    HW169240   2.763  10.979   5.799
55781SOL    HW269241   2.651  11.079   5.779
55782SOL     OW69242   4.983   0.624   8.912
55782SOL    HW169243   5.044   0.553   8.890
55782SOL    HW269244   5.039   0.700   8.928
55783SOL     OW69245   8.441   5.416  10.512
55783SOL    HW169246   8.475   5.441  10.426
55783SOL    HW269247   8.517   5.416  10.569
55784SOL     OW69248  14.641   6.598  11.032
55784SOL    HW169249  14.700   6.523  11.024
55784SOL    HW269250  14.554   6.561  11.018
55785SOL     OW69251   4.882  14.870   9.503
55785SOL    HW169252   4.823  14.871   9.578
55785SOL    HW269253   4.825  14.867   9.426
55786SOL     OW69254   0.809   7.627  10.226
55786SOL    HW169255   0.829   7.657  10.138
55786SOL    HW269256   0.726   7.670  10.247
55787SOL     OW69257   7.838   5.748   1.124
55787SOL    HW169258   7.766   5.811   1.127
55787SOL    HW269259   7.881   5.756   1.209
55788SOL     OW69260   2.567  13.936   7.572
55788SOL    HW169261   2.554  13.908   7.481
55788SOL    HW269262   2.642  13.995   7.568
55789SOL     OW69263  13.774   9.009   4.139
55789SOL    HW169264  13.729   8.930   4.170
55789SOL    HW269265  13.813   9.047   4.217
55790SOL     OW69266   1.155   2.150   9.523
55790SOL    HW169267   1.246   2.164   9.546
55790SOL    HW269268   1.113   2.124   9.605
55791SOL     OW69269   8.082   2.076   8.036
55791SOL    HW169270   8.003   2.105   7.991
55791SOL    HW269271   8.066   1.984   8.057
55792SOL     OW69272   2.743  14.571   0.881
55792SOL    HW169273   2.708  14.660   0.873
55792SOL    HW269274   2.696  14.520   0.815
55793SOL     OW69275   7.437   8.207   2.876
55793SOL    HW169276   7.515   8.165   2.911
55793SOL    HW269277   7.431   8.290   2.924
55794SOL     OW69278   6.762  12.358   5.909
55794SOL    HW169279   6.726  12.275   5.942
55794SOL    HW269280   6.839  12.373   5.963
55795SOL     OW69281   2.300   3.972   4.081
55795SOL    HW169282   2.223   4.014   4.120
55795SOL    HW269283   2.305   3.887   4.123
55796SOL     OW69284  11.619  11.036  11.668
55796SOL    HW169285  11.696  11.003  11.715
55796SOL    HW269286  11.596  11.117  11.714
55797SOL     OW69287   3.238  10.417   8.939
55797SOL    HW169288   3.270  10.354   9.004
55797SOL    HW269289   3.177  10.472   8.987
55798SOL     OW69290  10.065   6.188   0.950
55798SOL    HW169291  10.146   6.209   0.903
55798SOL    HW269292  10.093   6.172   1.040
55799SOL     OW69293   4.284   2.481  11.576
55799SOL    HW169294   4.233   2.552  11.538
55799SOL    HW269295   4.277   2.494  11.670
55800SOL     OW69296   9.741   1.195   1.838
55800SOL    HW169297   9.679   1.239   1.898
55800SOL    HW269298   9.724   1.235   1.753
55801SOL     OW69299  13.941   1.494  11.605
55801SOL    HW169300  13.921   1.456  11.691
55801SOL    HW269301  13.888   1.444  11.544
55802SOL     OW69302   0.665   5.261   4.302
55802SOL    HW169303   0.627   5.348   4.294
55802SOL    HW269304   0.741   5.262   4.243
55803SOL     OW69305  10.337   3.662   5.121
55803SOL    HW169306  10.413   3.605   5.137
55803SOL    HW269307  10.315   3.648   5.029
55804SOL     OW69308  12.080   9.139   1.976
55804SOL    HW169309  12.059   9.163   2.067
55804SOL    HW269310  12.173   9.160   1.966
55805SOL     OW69311   1.024  14.254   1.151
55805SOL    HW169312   0.965  14.206   1.210
55805SOL    HW269313   1.048  14.189   1.084
55806SOL     OW69314   7.102   7.688  14.752
55806SOL    HW169315   7.173   7.732  14.705
55806SOL    HW269316   7.095   7.736  14.834
55807SOL     OW69317   0.763   7.612  11.636
55807SOL    HW169318   0.732   7.698  11.665
55807SOL    HW269319   0.683   7.560  11.626
55808SOL     OW69320  11.635   8.609  14.615
55808SOL    HW169321  11.668   8.687  14.660
55808SOL    HW269322  11.541   8.609  14.635
55809SOL     OW69323   5.083  11.105  11.043
55809SOL    HW169324   4.989  11.120  11.034
55809SOL    HW269325   5.111  11.171  11.107
55810SOL     OW69326   1.510  12.671   3.506
55810SOL    HW169327   1.588  12.694   3.556
55810SOL    HW269328   1.520  12.578   3.487
55811SOL     OW69329   2.924   0.491   2.777
55811SOL    HW169330   2.953   0.409   2.738
55811SOL    HW269331   2.902   0.468   2.867
55812SOL     OW69332  10.659   5.448   3.435
55812SOL    HW169333  10.566   5.425   3.433
55812SOL    HW269334  10.700   5.376   3.482
55813SOL     OW69335   7.729   4.964  14.319
55813SOL    HW169336   7.805   5.001  14.275
55813SOL    HW269337   7.654   5.013  14.283
55814SOL     OW69338  11.243  13.286   5.676
55814SOL    HW169339  11.163  13.287   5.625
55814SOL    HW269340  11.235  13.360   5.736
55815SOL     OW69341   0.116   8.172   7.852
55815SOL    HW169342   0.057   8.106   7.886
55815SOL    HW269343   0.061   8.228   7.797
55816SOL     OW69344  10.825   3.151   3.916
55816SOL    HW169345  10.857   3.179   3.830
55816SOL    HW269346  10.864   3.065   3.930
55817SOL     OW69347   7.150   6.459  10.455
55817SOL    HW169348   7.111   6.417  10.378
55817SOL    HW269349   7.150   6.390  10.522
55818SOL     OW69350   4.635  13.032   4.580
55818SOL    HW169351   4.595  12.963   4.634
55818SOL    HW269352   4.662  12.987   4.500
55819SOL     OW69353   7.777   7.031  10.222
55819SOL    HW169354   7.787   6.939  10.245
55819SOL    HW269355   7.822   7.078  10.291
55820SOL     OW69356   4.770  13.510   5.334
55820SOL    HW169357   4.788  13.436   5.276
55820SOL    HW269358   4.770  13.587   5.277
55821SOL     OW69359  10.889  11.962   2.430
55821SOL    HW169360  10.912  11.894   2.494
55821SOL    HW269361  10.973  12.000   2.403
55822SOL     OW69362  10.872   8.749   9.668
55822SOL    HW169363  10.894   8.658   9.645
55822SOL    HW269364  10.822   8.781   9.593
55823SOL     OW69365   8.721   9.688   1.229
55823SOL    HW169366   8.642   9.703   1.281
55823SOL    HW269367   8.733   9.769   1.179
55824SOL     OW69368   2.185   1.078   3.196
55824SOL    HW169369   2.154   1.136   3.265
55824SOL    HW269370   2.114   1.016   3.182
55825SOL     OW69371   4.009   4.416   1.131
55825SOL    HW169372   3.932   4.379   1.175
55825SOL    HW269373   3.976   4.494   1.086
55826SOL     OW69374   7.230  10.782  11.048
55826SOL    HW169375   7.165  10.839  11.089
55826SOL    HW269376   7.305  10.786  11.106
55827SOL     OW69377  10.738   2.068   0.621
55827SOL    HW169378  10.657   2.062   0.672
55827SOL    HW269379  10.708   2.092   0.533
55828SOL     OW69380   3.432  14.469  14.386
55828SOL    HW169381   3.380  14.533  14.435
55828SOL    HW269382   3.377  14.391  14.382
55829SOL     OW69383   1.751  13.898   0.584
55829SOL    HW169384   1.668  13.869   0.545
55829SOL    HW269385   1.801  13.817   0.594
55830SOL     OW69386  11.056  14.555  11.130
55830SOL    HW169387  11.124  14.555  11.062
55830SOL    HW269388  11.101  14.588  11.208
55831SOL     OW69389   5.834   8.282  11.773
55831SOL    HW169390   5.765   8.278  11.840
55831SOL    HW269391   5.838   8.194  11.738
55832SOL     OW69392  14.804  13.658   5.836
55832SOL    HW169393  14.872  13.700   5.889
55832SOL    HW269394  14.724  13.665   5.889
55833SOL     OW69395   0.045   2.323   0.450
55833SOL    HW169396   0.103   2.400   0.452
55833SOL    HW269397   0.032   2.306   0.356
55834SOL     OW69398   8.618   7.661   5.065
55834SOL    HW169399   8.572   7.590   5.020
55834SOL    HW269400   8.641   7.624   5.151
55835SOL     OW69401  14.188   6.397   0.621
55835SOL    HW169402  14.283   6.402   0.610
55835SOL    HW269403  14.154   6.388   0.532
55836SOL     OW69404  11.251   7.415   8.311
55836SOL    HW169405  11.177   7.421   8.251
55836SOL    HW269406  11.218   7.449   8.394
55837SOL     OW69407  11.054  10.457  12.879
55837SOL    HW169408  10.981  10.397  12.866
55837SOL    HW269409  11.082  10.481  12.791
55838SOL     OW69410  13.507  11.962   1.794
55838SOL    HW169411  13.416  11.991   1.787
55838SOL    HW269412  13.508  11.906   1.871
55839SOL     OW69413   2.661   1.484  13.709
55839SOL    HW169414   2.604   1.469  13.785
55839SOL    HW269415   2.681   1.396  13.677
55840SOL     OW69416   6.083  14.138  10.169
55840SOL    HW169417   6.051  14.049  10.182
55840SOL    HW269418   6.011  14.194  10.198
55841SOL     OW69419   6.188   0.187   5.394
55841SOL    HW169420   6.182   0.117   5.330
55841SOL    HW269421   6.239   0.151   5.466
55842SOL     OW69422   4.109   1.499  14.611
55842SOL    HW169423   4.068   1.413  14.623
55842SOL    HW269424   4.196   1.480  14.577
55843SOL     OW69425  12.691   1.660  13.064
55843SOL    HW169426  12.659   1.586  13.014
55843SOL    HW269427  12.716   1.623  13.149
55844SOL     OW69428   8.002  10.259   7.332
55844SOL    HW169429   7.911  10.263   7.361
55844SOL    HW269430   8.028  10.351   7.325
55845SOL     OW69431   8.931   1.303   4.398
55845SOL    HW169432   8.971   1.390   4.395
55845SOL    HW269433   8.839   1.318   4.378
55846SOL     OW69434  11.891   2.582  10.806
55846SOL    HW169435  11.846   2.652  10.854
55846SOL    HW269436  11.981   2.585  10.837
55847SOL     OW69437   5.975  12.992   2.451
55847SOL    HW169438   6.008  12.963   2.536
55847SOL    HW269439   6.005  13.082   2.443
55848SOL     OW69440   9.620   6.734  10.997
55848SOL    HW169441   9.569   6.655  11.014
55848SOL    HW269442   9.607   6.789  11.074
55849SOL     OW69443   1.913  13.897  13.994
55849SOL    HW169444   1.978  13.933  14.054
55849SOL    HW269445   1.906  13.963  13.925
55850SOL     OW69446   8.780  11.522  12.316
55850SOL    HW169447   8.758  11.431  12.336
55850SOL    HW269448   8.849  11.516  12.250
55851SOL     OW69449  12.565   4.478   8.394
55851SOL    HW169450  12.472   4.498   8.408
55851SOL    HW269451  12.596   4.548   8.337
55852SOL     OW69452   4.559  11.922  14.579
55852SOL    HW169453   4.568  11.904  14.673
55852SOL    HW269454   4.634  11.977  14.558
55853SOL     OW69455   1.012   4.134   4.086
55853SOL    HW169456   0.918   4.135   4.107
55853SOL    HW269457   1.026   4.049   4.044
55854SOL     OW69458   0.350   3.709  14.659
55854SOL    HW169459   0.436   3.673  14.680
55854SOL    HW269460   0.289   3.637  14.679
55855SOL     OW69461   0.460   4.816  12.181
55855SOL    HW169462   0.508   4.740  12.213
55855SOL    HW269463   0.527   4.884  12.172
55856SOL     OW69464   8.945   5.540   8.271
55856SOL    HW169465   9.023   5.503   8.230
55856SOL    HW269466   8.915   5.471   8.331
55857SOL     OW69467   8.559   9.923  14.296
55857SOL    HW169468   8.583   9.868  14.221
55857SOL    HW269469   8.603  10.006  14.279
55858SOL     OW69470   6.073   2.318   2.596
55858SOL    HW169471   6.158   2.285   2.566
55858SOL    HW269472   6.072   2.410   2.569
55859SOL     OW69473   1.625   2.510   1.391
55859SOL    HW169474   1.584   2.495   1.306
55859SOL    HW269475   1.669   2.427   1.411
55860SOL     OW69476  12.598  13.642   4.284
55860SOL    HW169477  12.575  13.563   4.334
55860SOL    HW269478  12.677  13.675   4.327
55861SOL     OW69479  12.029   4.415  10.306
55861SOL    HW169480  12.003   4.431  10.397
55861SOL    HW269481  12.125   4.422  10.307
55862SOL     OW69482   0.102  13.156  10.495
55862SOL    HW169483   0.165  13.084  10.496
55862SOL    HW269484   0.040  13.132  10.427
55863SOL     OW69485  12.942   4.888  10.499
55863SOL    HW169486  12.873   4.912  10.438
55863SOL    HW269487  12.946   4.793  10.496
55864SOL     OW69488   7.595   0.083   8.262
55864SOL    HW169489   7.654   0.101   8.335
55864SOL    HW269490   7.583   0.168   8.219
55865SOL     OW69491   1.917  11.475   1.874
55865SOL    HW169492   1.883  11.392   1.907
55865SOL    HW269493   1.852  11.540   1.901
55866SOL     OW69494  10.960   6.079  12.600
55866SOL    HW169495  10.944   6.094  12.693
55866SOL    HW269496  11.053   6.094  12.588
55867SOL     OW69497   3.546   7.165   7.130
55867SOL    HW169498   3.518   7.178   7.221
55867SOL    HW269499   3.473   7.120   7.088
55868SOL     OW69500   5.529   4.173   3.107
55868SOL    HW169501   5.587   4.097   3.111
55868SOL    HW269502   5.534   4.202   3.016
55869SOL     OW69503  12.049   2.773   2.431
55869SOL    HW169504  12.006   2.735   2.508
55869SOL    HW269505  11.997   2.744   2.357
55870SOL     OW69506   1.776  13.842   0.901
55870SOL    HW169507   1.821  13.759   0.913
55870SOL    HW269508   1.846  13.908   0.904
55871SOL     OW69509  13.537   8.815   4.897
55871SOL    HW169510  13.566   8.906   4.900
55871SOL    HW269511  13.617   8.763   4.903
55872SOL     OW69512   0.036   0.260  14.377
55872SOL    HW169513  14.859   0.257  14.300
55872SOL    HW269514  14.864   0.305  14.443
55873SOL     OW69515   0.226   5.370  14.502
55873SOL    HW169516   0.145   5.415  14.477
55873SOL    HW269517   0.208   5.335  14.589
55874SOL     OW69518   4.880   2.498   3.298
55874SOL    HW169519   4.862   2.590   3.278
55874SOL    HW269520   4.829   2.449   3.234
55875SOL     OW69521   9.677  12.104  10.851
55875SOL    HW169522   9.705  12.183  10.898
55875SOL    HW269523   9.582  12.101  10.864
55876SOL     OW69524  10.101  13.141   3.673
55876SOL    HW169525  10.029  13.079   3.657
55876SOL    HW269526  10.061  13.209   3.728
55877SOL     OW69527   6.789  13.439   0.753
55877SOL    HW169528   6.867  13.436   0.697
55877SOL    HW269529   6.739  13.513   0.720
55878SOL     OW69530   5.675  10.192   0.627
55878SOL    HW169531   5.743  10.170   0.563
55878SOL    HW269532   5.604  10.229   0.574
55879SOL     OW69533  11.581   4.542  11.084
55879SOL    HW169534  11.610   4.622  11.042
55879SOL    HW269535  11.611   4.549  11.174
55880SOL     OW69536   5.324   6.656   8.795
55880SOL    HW169537   5.418   6.653   8.815
55880SOL    HW269538   5.315   6.608   8.713
55881SOL     OW69539   2.667  13.784   2.557
55881SOL    HW169540   2.631  13.800   2.644
55881SOL    HW269541   2.743  13.843   2.551
55882SOL     OW69542  12.942   9.983   1.458
55882SOL    HW169543  12.879  10.028   1.403
55882SOL    HW269544  12.919  10.008   1.548
55883SOL     OW69545  11.608   5.092   8.255
55883SOL    HW169546  11.572   5.079   8.167
55883SOL    HW269547  11.531   5.093   8.312
55884SOL     OW69548  10.303   2.375   7.496
55884SOL    HW169549  10.372   2.378   7.562
55884SOL    HW269550  10.317   2.454   7.443
55885SOL     OW69551   3.136  13.697   4.446
55885SOL    HW169552   3.093  13.714   4.363
55885SOL    HW269553   3.160  13.784   4.479
55886SOL     OW69554   4.808   6.287   8.804
55886SOL    HW169555   4.729   6.235   8.813
55886SOL    HW269556   4.830   6.314   8.893
55887SOL     OW69557   5.541   6.740   5.931
55887SOL    HW169558   5.514   6.672   5.992
55887SOL    HW269559   5.482   6.814   5.949
55888SOL     OW69560  14.716   7.208   5.727
55888SOL    HW169561  14.656   7.275   5.694
55888SOL    HW269562  14.717   7.141   5.659
55889SOL     OW69563   8.783   9.535   7.961
55889SOL    HW169564   8.740   9.537   7.876
55889SOL    HW269565   8.715   9.509   8.023
55890SOL     OW69566   2.910   1.107   8.403
55890SOL    HW169567   2.905   1.124   8.309
55890SOL    HW269568   2.999   1.073   8.416
55891SOL     OW69569   3.208   3.652   2.557
55891SOL    HW169570   3.179   3.649   2.648
55891SOL    HW269571   3.272   3.581   2.549
55892SOL     OW69572   5.555   8.709   4.137
55892SOL    HW169573   5.649   8.705   4.153
55892SOL    HW269574   5.537   8.633   4.081
55893SOL     OW69575  10.358   4.729  12.831
55893SOL    HW169576  10.291   4.766  12.888
55893SOL    HW269577  10.322   4.644  12.804
55894SOL     OW69578   5.254   1.111   7.542
55894SOL    HW169579   5.344   1.092   7.566
55894SOL    HW269580   5.243   1.072   7.456
55895SOL     OW69581   2.493   2.392   7.474
55895SOL    HW169582   2.436   2.430   7.407
55895SOL    HW269583   2.496   2.458   7.543
55896SOL     OW69584   5.838  14.289   5.055
55896SOL    HW169585   5.915  14.241   5.024
55896SOL    HW269586   5.873  14.355   5.115
55897SOL     OW69587   3.242   9.558   9.961
55897SOL    HW169588   3.240   9.501  10.037
55897SOL    HW269589   3.271   9.643   9.994
55898SOL     OW69590  10.691  10.319  14.123
55898SOL    HW169591  10.618  10.332  14.184
55898SOL    HW269592  10.690  10.398  14.068
55899SOL     OW69593   0.958  11.018   3.916
55899SOL    HW169594   1.013  11.061   3.851
55899SOL    HW269595   0.880  10.992   3.868
55900SOL     OW69596   6.913   4.511   0.738
55900SOL    HW169597   6.982   4.574   0.717
55900SOL    HW269598   6.958   4.442   0.787
55901SOL     OW69599   4.015   3.031   8.273
55901SOL    HW169600   4.038   2.960   8.213
55901SOL    HW269601   3.998   2.987   8.356
55902SOL     OW69602  10.257   2.165   2.822
55902SOL    HW169603  10.231   2.074   2.840
55902SOL    HW269604  10.212   2.186   2.740
55903SOL     OW69605   6.270  14.083   1.067
55903SOL    HW169606   6.296  14.038   1.148
55903SOL    HW269607   6.248  14.013   1.006
55904SOL     OW69608  11.865  10.829   5.268
55904SOL    HW169609  11.915  10.906   5.297
55904SOL    HW269610  11.931  10.762   5.253
55905SOL     OW69611  10.769  13.017   1.130
55905SOL    HW169612  10.680  12.989   1.107
55905SOL    HW269613  10.776  13.106   1.096
55906SOL     OW69614   1.380   3.445   8.992
55906SOL    HW169615   1.359   3.381   9.061
55906SOL    HW269616   1.474   3.434   8.977
55907SOL     OW69617   4.681   6.661   8.516
55907SOL    HW169618   4.739   6.585   8.513
55907SOL    HW269619   4.686   6.699   8.429
55908SOL     OW69620  12.295  14.226   4.052
55908SOL    HW169621  12.252  14.146   4.021
55908SOL    HW269622  12.224  14.290   4.060
55909SOL     OW69623  14.339   1.635   1.001
55909SOL    HW169624  14.422   1.601   1.034
55909SOL    HW269625  14.273   1.593   1.056
55910SOL     OW69626   6.139  13.082   5.456
55910SOL    HW169627   6.159  13.148   5.389
55910SOL    HW269628   6.191  13.109   5.532
55911SOL     OW69629   3.601  13.348  13.822
55911SOL    HW169630   3.563  13.288  13.757
55911SOL    HW269631   3.535  13.415  13.834
55912SOL     OW69632   3.771  13.721  11.368
55912SOL    HW169633   3.864  13.703  11.357
55912SOL    HW269634   3.729  13.669  11.299
55913SOL     OW69635  14.773   7.355   7.231
55913SOL    HW169636  14.808   7.354   7.142
55913SOL    HW269637  14.693   7.408   7.225
55914SOL     OW69638   6.834   7.631   3.509
55914SOL    HW169639   6.878   7.556   3.467
55914SOL    HW269640   6.906   7.689   3.534
55915SOL     OW69641   6.046   3.790  14.525
55915SOL    HW169642   5.976   3.852  14.505
55915SOL    HW269643   6.125   3.832  14.491
55916SOL     OW69644   4.397  13.029   9.274
55916SOL    HW169645   4.428  12.973   9.203
55916SOL    HW269646   4.444  13.111   9.262
55917SOL     OW69647  14.163   3.164   7.115
55917SOL    HW169648  14.241   3.195   7.161
55917SOL    HW269649  14.172   3.069   7.114
55918SOL     OW69650  13.578   6.463   8.400
55918SOL    HW169651  13.623   6.442   8.481
55918SOL    HW269652  13.530   6.543   8.420
55919SOL     OW69653  14.707   3.304   1.044
55919SOL    HW169654  14.644   3.239   1.073
55919SOL    HW269655  14.695   3.309   0.949
55920SOL     OW69656  14.750   4.203  13.584
55920SOL    HW169657  14.746   4.227  13.491
55920SOL    HW269658  14.779   4.284  13.628
55921SOL     OW69659  14.307  13.998   2.549
55921SOL    HW169660  14.381  13.973   2.605
55921SOL    HW269661  14.336  14.078   2.506
55922SOL     OW69662  12.512   5.730   4.743
55922SOL    HW169663  12.474   5.788   4.677
55922SOL    HW269664  12.583   5.781   4.782
55923SOL     OW69665   1.088   8.472  13.350
55923SOL    HW169666   1.136   8.436  13.425
55923SOL    HW269667   0.997   8.473  13.379
55924SOL     OW69668   5.153  12.710   6.050
55924SOL    HW169669   5.101  12.666   6.118
55924SOL    HW269670   5.211  12.642   6.017
55925SOL     OW69671   2.460  11.242   8.003
55925SOL    HW169672   2.427  11.192   8.077
55925SOL    HW269673   2.505  11.317   8.042
55926SOL     OW69674  12.144   3.937   8.947
55926SOL    HW169675  12.154   3.872   8.878
55926SOL    HW269676  12.219   3.924   9.004
55927SOL     OW69677   6.140   7.649   4.368
55927SOL    HW169678   6.174   7.731   4.405
55927SOL    HW269679   6.133   7.666   4.274
55928SOL     OW69680   5.882   3.134  11.942
55928SOL    HW169681   5.960   3.164  11.895
55928SOL    HW269682   5.809   3.177  11.898
55929SOL     OW69683   1.395  12.694   0.421
55929SOL    HW169684   1.329  12.741   0.473
55929SOL    HW269685   1.349  12.616   0.389
55930SOL     OW69686  10.206   6.831   6.937
55930SOL    HW169687  10.237   6.890   7.006
55930SOL    HW269688  10.147   6.770   6.982
55931SOL     OW69689   7.084   7.029   1.311
55931SOL    HW169690   7.149   7.097   1.294
55931SOL    HW269691   7.006   7.059   1.264
55932SOL     OW69692  14.567   5.310  10.865
55932SOL    HW169693  14.508   5.274  10.933
55932SOL    HW269694  14.607   5.232  10.825
55933SOL     OW69695   1.551   4.502   1.307
55933SOL    HW169696   1.645   4.509   1.325
55933SOL    HW269697   1.511   4.571   1.361
55934SOL     OW69698   8.822   3.019   0.229
55934SOL    HW169699   8.845   2.926   0.229
55934SOL    HW269700   8.759   3.027   0.301
55935SOL     OW69701   1.129   9.274   7.358
55935SOL    HW169702   1.131   9.340   7.289
55935SOL    HW269703   1.221   9.256   7.377
55936SOL     OW69704   4.155   2.151   7.801
55936SOL    HW169705   4.096   2.078   7.780
55936SOL    HW269706   4.136   2.172   7.892
55937SOL     OW69707   8.887   7.365   4.692
55937SOL    HW169708   8.855   7.293   4.638
55937SOL    HW269709   8.813   7.385   4.750
55938SOL     OW69710   2.892   0.023  14.136
55938SOL    HW169711   2.811  14.862  14.105
55938SOL    HW269712   2.927   0.067  14.059
55939SOL     OW69713   4.002   4.226   6.829
55939SOL    HW169714   3.920   4.206   6.785
55939SOL    HW269715   4.034   4.141   6.860
55940SOL     OW69716   2.136   5.783   8.893
55940SOL    HW169717   2.186   5.848   8.844
55940SOL    HW269718   2.116   5.825   8.976
55941SOL     OW69719   5.906   9.102   7.608
55941SOL    HW169720   5.995   9.133   7.623
55941SOL    HW269721   5.854   9.182   7.600
55942SOL     OW69722   7.978   7.463   9.588
55942SOL    HW169723   7.934   7.409   9.521
55942SOL    HW269724   8.037   7.519   9.537
55943SOL     OW69725  12.821   3.421   2.860
55943SOL    HW169726  12.858   3.364   2.793
55943SOL    HW269727  12.883   3.494   2.867
55944SOL     OW69728   3.175  14.496  13.484
55944SOL    HW169729   3.123  14.574  13.464
55944SOL    HW269730   3.170  14.487  13.579
55945SOL     OW69731   1.579   3.580   1.189
55945SOL    HW169732   1.495   3.536   1.202
55945SOL    HW269733   1.639   3.511   1.164
55946SOL     OW69734   0.260  12.340   3.103
55946SOL    HW169735   0.243  12.317   3.012
55946SOL    HW269736   0.326  12.277   3.132
55947SOL     OW69737  12.391   9.959   9.013
55947SOL    HW169738  12.431  10.018   8.949
55947SOL    HW269739  12.387   9.874   8.968
55948SOL     OW69740   6.238   0.190  14.627
55948SOL    HW169741   6.177   0.150  14.566
55948SOL    HW269742   6.197   0.177  14.713
55949SOL     OW69743  13.737   1.365  10.736
55949SOL    HW169744  13.704   1.359  10.826
55949SOL    HW269745  13.662   1.345  10.681
55950SOL     OW69746   7.099   0.905  12.690
55950SOL    HW169747   7.153   0.976  12.725
55950SOL    HW269748   7.139   0.884  12.606
55951SOL     OW69749   4.773   7.839   1.962
55951SOL    HW169750   4.698   7.781   1.961
55951SOL    HW269751   4.737   7.926   1.945
55952SOL     OW69752  13.385  14.366   3.634
55952SOL    HW169753  13.348  14.279   3.621
55952SOL    HW269754  13.315  14.426   3.609
55953SOL     OW69755  12.466   3.861   6.604
55953SOL    HW169756  12.451   3.918   6.679
55953SOL    HW269757  12.548   3.816   6.625
55954SOL     OW69758   6.696   5.792   0.236
55954SOL    HW169759   6.710   5.825   0.324
55954SOL    HW269760   6.603   5.767   0.234
55955SOL     OW69761  12.513   2.800   0.878
55955SOL    HW169762  12.443   2.856   0.912
55955SOL    HW269763  12.466   2.732   0.830
55956SOL     OW69764   8.542  14.207   8.753
55956SOL    HW169765   8.476  14.247   8.810
55956SOL    HW269766   8.527  14.113   8.762
55957SOL     OW69767   9.377  13.264  14.693
55957SOL    HW169768   9.365  13.198  14.761
55957SOL    HW269769   9.301  13.322  14.700
55958SOL     OW69770   1.638  10.116   7.231
55958SOL    HW169771   1.670  10.074   7.311
55958SOL    HW269772   1.714  10.165   7.198
55959SOL     OW69773   2.546   0.598  14.865
55959SOL    HW169774   2.622   0.654  14.878
55959SOL    HW269775   2.476   0.657  14.836
55960SOL     OW69776  12.689   6.415  10.352
55960SOL    HW169777  12.617   6.398  10.290
55960SOL    HW269778  12.650   6.468  10.420
55961SOL     OW69779  10.246  10.022  11.420
55961SOL    HW169780  10.215  10.026  11.330
55961SOL    HW269781  10.169  10.046  11.472
55962SOL     OW69782   8.082   5.782  13.301
55962SOL    HW169783   8.126   5.702  13.330
55962SOL    HW269784   7.996   5.753  13.271
55963SOL     OW69785  11.948  10.419   6.789
55963SOL    HW169786  11.958  10.388   6.879
55963SOL    HW269787  11.858  10.397   6.765
55964SOL     OW69788  10.864  13.395   2.384
55964SOL    HW169789  10.808  13.442   2.446
55964SOL    HW269790  10.911  13.464   2.337
55965SOL     OW69791   4.572   0.047   8.571
55965SOL    HW169792   4.561  14.832   8.574
55965SOL    HW269793   4.554   0.070   8.480
55966SOL     OW69794   0.676   9.884   6.161
55966SOL    HW169795   0.623   9.811   6.193
55966SOL    HW269796   0.642   9.960   6.208
55967SOL     OW69797   8.466   4.343   9.581
55967SOL    HW169798   8.401   4.399   9.624
55967SOL    HW269799   8.481   4.385   9.496
55968SOL     OW69800   1.874   8.369   8.278
55968SOL    HW169801   1.884   8.462   8.298
55968SOL    HW269802   1.946   8.350   8.218
55969SOL     OW69803  14.730   9.414   2.398
55969SOL    HW169804  14.805   9.376   2.443
55969SOL    HW269805  14.767   9.481   2.341
55970SOL     OW69806   0.102   9.874  13.785
55970SOL    HW169807   0.105   9.781  13.761
55970SOL    HW269808   0.114   9.875  13.880
55971SOL     OW69809   4.156   3.728   5.752
55971SOL    HW169810   4.249   3.717   5.732
55971SOL    HW269811   4.147   3.821   5.773
55972SOL     OW69812  10.147   3.198  14.035
55972SOL    HW169813  10.167   3.258  14.107
55972SOL    HW269814  10.117   3.256  13.965
55973SOL     OW69815   4.937  12.248   8.033
55973SOL    HW169816   4.893  12.331   8.051
55973SOL    HW269817   4.907  12.189   8.103
55974SOL     OW69818   7.390   9.118  11.752
55974SOL    HW169819   7.310   9.074  11.724
55974SOL    HW269820   7.423   9.160  11.672
55975SOL     OW69821  12.060  11.900   9.302
55975SOL    HW169822  11.971  11.932   9.316
55975SOL    HW269823  12.050  11.805   9.294
55976SOL     OW69824   4.269   6.272  10.114
55976SOL    HW169825   4.344   6.214  10.125
55976SOL    HW269826   4.262   6.284  10.019
55977SOL     OW69827   0.699   8.066   2.309
55977SOL    HW169828   0.660   8.151   2.327
55977SOL    HW269829   0.746   8.042   2.389
55978SOL     OW69830   4.673   4.612   0.330
55978SOL    HW169831   4.728   4.675   0.284
55978SOL    HW269832   4.583   4.641   0.315
55979SOL     OW69833   7.790   5.464   9.676
55979SOL    HW169834   7.841   5.507   9.607
55979SOL    HW269835   7.770   5.533   9.739
55980SOL     OW69836  12.301  10.868  14.592
55980SOL    HW169837  12.351  10.809  14.536
55980SOL    HW269838  12.364  10.936  14.617
55981SOL     OW69839   0.513  11.423  13.538
55981SOL    HW169840   0.519  11.429  13.443
55981SOL    HW269841   0.590  11.372  13.564
55982SOL     OW69842   2.859   7.025  13.426
55982SOL    HW169843   2.790   6.973  13.468
55982SOL    HW269844   2.929   6.962  13.409
55983SOL     OW69845   5.043   5.012  10.306
55983SOL    HW169846   5.059   5.039  10.215
55983SOL    HW269847   5.096   4.933  10.316
55984SOL     OW69848   4.129   0.268   3.358
55984SOL    HW169849   4.165   0.336   3.416
55984SOL    HW269850   4.047   0.305   3.327
55985SOL     OW69851   2.426   0.983   2.897
55985SOL    HW169852   2.469   0.900   2.919
55985SOL    HW269853   2.459   1.045   2.962
55986SOL     OW69854  10.958   4.997  10.959
55986SOL    HW169855  10.925   5.058  10.894
55986SOL    HW269856  11.004   4.930  10.908
55987SOL     OW69857   0.106   6.609   5.715
55987SOL    HW169858   0.107   6.673   5.786
55987SOL    HW269859   0.014   6.591   5.699
55988SOL     OW69860   1.558   1.198  12.801
55988SOL    HW169861   1.603   1.154  12.874
55988SOL    HW269862   1.465   1.182  12.817
55989SOL     OW69863   2.144   4.921   5.143
55989SOL    HW169864   2.218   4.939   5.201
55989SOL    HW269865   2.184   4.896   5.060
55990SOL     OW69866   7.833   7.906  14.212
55990SOL    HW169867   7.857   7.918  14.304
55990SOL    HW269868   7.898   7.844  14.179
55991SOL     OW69869   7.513   5.757  12.114
55991SOL    HW169870   7.517   5.772  12.208
55991SOL    HW269871   7.581   5.813  12.077
55992SOL     OW69872   5.776   7.101  10.625
55992SOL    HW169873   5.869   7.099  10.645
55992SOL    HW269874   5.772   7.111  10.530
55993SOL     OW69875   2.243   2.371   0.984
55993SOL    HW169876   2.212   2.327   0.905
55993SOL    HW269877   2.287   2.303   1.035
55994SOL     OW69878   6.748   5.444  10.738
55994SOL    HW169879   6.685   5.493  10.685
55994SOL    HW269880   6.775   5.505  10.807
55995SOL     OW69881  13.065   0.103  14.345
55995SOL    HW169882  12.979   0.109  14.387
55995SOL    HW269883  13.127   0.113  14.416
55996SOL     OW69884   1.536   6.015   9.258
55996SOL    HW169885   1.528   5.959   9.335
55996SOL    HW269886   1.619   6.061   9.271
55997SOL     OW69887   4.626  13.280  14.700
55997SOL    HW169888   4.639  13.190  14.729
55997SOL    HW269889   4.702  13.327  14.734
55998SOL     OW69890  14.451   2.245  10.773
55998SOL    HW169891  14.383   2.312  10.770
55998SOL    HW269892  14.424   2.187  10.845
55999SOL     OW69893   7.378   9.254   4.845
55999SOL    HW169894   7.357   9.329   4.901
55999SOL    HW269895   7.295   9.209   4.832
56000SOL     OW69896  10.966   6.226   6.389
56000SOL    HW169897  11.038   6.274   6.347
56000SOL    HW269898  10.894   6.289   6.392
56001SOL     OW69899  14.203  14.207   4.347
56001SOL    HW169900  14.254  14.126   4.348
56001SOL    HW269901  14.146  14.198   4.271
56002SOL     OW69902   7.714   1.210  12.571
56002SOL    HW169903   7.719   1.127  12.618
56002SOL    HW269904   7.625   1.210  12.533
56003SOL     OW69905   0.137   6.859   8.666
56003SOL    HW169906   0.171   6.775   8.697
56003SOL    HW269907   0.213   6.903   8.627
56004SOL     OW69908  11.108  14.230  11.282
56004SOL    HW169909  11.116  14.200  11.373
56004SOL    HW269910  11.061  14.159  11.237
56005SOL     OW69911   4.625  14.241  14.287
56005SOL    HW169912   4.634  14.242  14.192
56005SOL    HW269913   4.660  14.325  14.315
56006SOL     OW69914   4.271   3.528   1.228
56006SOL    HW169915   4.317   3.588   1.287
56006SOL    HW269916   4.261   3.447   1.278
56007SOL     OW69917  11.853   8.336   2.298
56007SOL    HW169918  11.757   8.341   2.293
56007SOL    HW269919  11.870   8.248   2.332
56008SOL     OW69920  12.454   3.839  12.851
56008SOL    HW169921  12.511   3.843  12.774
56008SOL    HW269922  12.478   3.757  12.895
56009SOL     OW69923   6.498   5.805   4.112
56009SOL    HW169924   6.414   5.822   4.070
56009SOL    HW269925   6.482   5.729   4.168
56010SOL     OW69926   8.825  14.706   0.273
56010SOL    HW169927   8.881  14.752   0.211
56010SOL    HW269928   8.795  14.628   0.225
56011SOL     OW69929   5.970   5.341   2.919
56011SOL    HW169930   6.039   5.391   2.963
56011SOL    HW269931   5.917   5.305   2.990
56012SOL     OW69932   6.659   5.332   0.089
56012SOL    HW169933   6.706   5.277   0.026
56012SOL    HW269934   6.684   5.421   0.065
56013SOL     OW69935   6.893   1.054   9.010
56013SOL    HW169936   6.823   1.114   8.986
56013SOL    HW269937   6.962   1.109   9.045
56014SOL     OW69938  10.054   6.562   4.594
56014SOL    HW169939  10.035   6.656   4.586
56014SOL    HW269940  10.079   6.550   4.685
56015SOL     OW69941   8.612   4.068   6.290
56015SOL    HW169942   8.643   3.978   6.280
56015SOL    HW269943   8.567   4.068   6.374
56016SOL     OW69944   9.458  14.704   2.506
56016SOL    HW169945   9.419  14.746   2.582
56016SOL    HW269946   9.553  14.710   2.521
56017SOL     OW69947   6.381   1.555   3.355
56017SOL    HW169948   6.314   1.568   3.423
56017SOL    HW269949   6.386   1.461   3.344
56018SOL     OW69950   9.945   1.836   8.590
56018SOL    HW169951   9.855   1.835   8.557
56018SOL    HW269952   9.951   1.919   8.638
56019SOL     OW69953   8.215   4.314  14.085
56019SOL    HW169954   8.238   4.321  13.992
56019SOL    HW269955   8.230   4.223  14.107
56020SOL     OW69956   1.912  13.066  12.086
56020SOL    HW169957   1.891  12.985  12.039
56020SOL    HW269958   1.829  13.113  12.089
56021SOL     OW69959   3.147   1.486   3.605
56021SOL    HW169960   3.213   1.418   3.588
56021SOL    HW269961   3.063   1.440   3.602
56022SOL     OW69962  11.199   1.161   7.926
56022SOL    HW169963  11.187   1.143   8.020
56022SOL    HW269964  11.143   1.097   7.883
56023SOL     OW69965   7.843  14.634   1.858
56023SOL    HW169966   7.791  14.604   1.784
56023SOL    HW269967   7.825  14.570   1.928
56024SOL     OW69968   7.609   8.684  14.339
56024SOL    HW169969   7.679   8.728  14.389
56024SOL    HW269970   7.565   8.629  14.403
56025SOL     OW69971  11.884  12.797  14.700
56025SOL    HW169972  11.916  12.885  14.722
56025SOL    HW269973  11.932  12.739  14.759
56026SOL     OW69974  14.225   6.302   2.640
56026SOL    HW169975  14.130   6.304   2.628
56026SOL    HW269976  14.246   6.388   2.675
56027SOL     OW69977   5.129   3.820   1.164
56027SOL    HW169978   5.221   3.799   1.180
56027SOL    HW269979   5.127   3.852   1.074
56028SOL     OW69980  12.546   7.442   8.512
56028SOL    HW169981  12.481   7.511   8.494
56028SOL    HW269982  12.502   7.361   8.488
56029SOL     OW69983  10.543  11.284   7.165
56029SOL    HW169984  10.496  11.329   7.095
56029SOL    HW269985  10.483  11.214   7.192
56030SOL     OW69986   5.863  14.117   0.138
56030SOL    HW169987   5.865  14.073   0.224
56030SOL    HW269988   5.896  14.051   0.077
56031SOL     OW69989  10.179   3.714   6.481
56031SOL    HW169990  10.086   3.696   6.466
56031SOL    HW269991  10.190   3.804   6.452
56032SOL     OW69992   9.363   7.822   2.344
56032SOL    HW169993   9.304   7.868   2.404
56032SOL    HW269994   9.305   7.775   2.284
56033SOL     OW69995  12.346   5.417   3.565
56033SOL    HW169996  12.399   5.391   3.641
56033SOL    HW269997  12.382   5.367   3.492
56034SOL     OW69998   8.612   3.328   9.358
56034SOL    HW169999   8.707   3.333   9.355
56034SOL    HW270000   8.582   3.382   9.285
56035SOL     OW70001  10.785   0.198  11.359
56035SOL    HW170002  10.848   0.267  11.379
56035SOL    HW270003  10.802   0.176  11.267
56036SOL     OW70004  12.495   4.885   3.876
56036SOL    HW170005  12.447   4.965   3.857
56036SOL    HW270006  12.446   4.843   3.947
56037SOL     OW70007   3.400   8.164   2.346
56037SOL    HW170008   3.379   8.198   2.259
56037SOL    HW270009   3.446   8.236   2.389
56038SOL     OW70010   5.679   1.938  12.725
56038SOL    HW170011   5.736   1.880  12.776
56038SOL    HW270012   5.670   2.017  12.778
56039SOL     OW70013   8.461   4.591   6.293
56039SOL    HW170014   8.487   4.584   6.385
56039SOL    HW270015   8.455   4.500   6.263
56040SOL     OW70016   0.389   4.855   4.419
56040SOL    HW170017   0.447   4.811   4.357
56040SOL    HW270018   0.433   4.845   4.504
56041SOL     OW70019  13.336   9.198  12.931
56041SOL    HW170020  13.253   9.242  12.912
56041SOL    HW270021  13.310   9.110  12.960
56042SOL     OW70022   2.494  11.305   2.835
56042SOL    HW170023   2.449  11.232   2.792
56042SOL    HW270024   2.584  11.276   2.847
56043SOL     OW70025   8.216   0.968   1.269
56043SOL    HW170026   8.288   1.027   1.290
56043SOL    HW270027   8.234   0.938   1.179
56044SOL     OW70028   0.573  14.552   4.638
56044SOL    HW170029   0.595  14.470   4.682
56044SOL    HW270030   0.591  14.620   4.702
56045SOL     OW70031  14.688   0.895   4.803
56045SOL    HW170032  14.766   0.900   4.748
56045SOL    HW270033  14.696   0.811   4.848
56046SOL     OW70034   5.847   2.141  11.140
56046SOL    HW170035   5.853   2.237  11.147
56046SOL    HW270036   5.780   2.126  11.074
56047SOL     OW70037   9.696   2.591  14.324
56047SOL    HW170038   9.601   2.592  14.334
56047SOL    HW270039   9.711   2.586  14.230
56048SOL     OW70040  13.425  14.370   8.114
56048SOL    HW170041  13.423  14.275   8.103
56048SOL    HW270042  13.402  14.404   8.028
56049SOL     OW70043   3.795   2.941   6.310
56049SOL    HW170044   3.791   2.887   6.389
56049SOL    HW270045   3.714   2.992   6.311
56050SOL     OW70046   3.578  12.901  11.568
56050SOL    HW170047   3.624  12.820  11.547
56050SOL    HW270048   3.642  12.955  11.614
56051SOL     OW70049  12.632  13.213   9.988
56051SOL    HW170050  12.597  13.151   9.923
56051SOL    HW270051  12.577  13.199  10.065
56052SOL     OW70052  10.547   1.906   1.433
56052SOL    HW170053  10.641   1.914   1.417
56052SOL    HW270054  10.519   1.836   1.374
56053SOL     OW70055  12.880  14.788  10.768
56053SOL    HW170056  12.969  14.753  10.773
56053SOL    HW270057  12.849  14.788  10.859
56054SOL     OW70058   9.760   0.945   8.023
56054SOL    HW170059   9.785   0.904   8.106
56054SOL    HW270060   9.744   0.872   7.964
56055SOL     OW70061   7.550   4.318  13.017
56055SOL    HW170062   7.457   4.299  13.013
56055SOL    HW270063   7.578   4.323  12.926
56056SOL     OW70064  10.658   7.810   6.894
56056SOL    HW170065  10.661   7.823   6.799
56056SOL    HW270066  10.744   7.777   6.917
56057SOL     OW70067   3.970  11.349   0.407
56057SOL    HW170068   4.036  11.362   0.475
56057SOL    HW270069   4.006  11.279   0.353
56058SOL     OW70070   5.289  10.224   5.174
56058SOL    HW170071   5.319  10.267   5.093
56058SOL    HW270072   5.219  10.166   5.146
56059SOL     OW70073   3.951   1.853  14.671
56059SOL    HW170074   3.915   1.801  14.599
56059SOL    HW270075   3.939   1.944  14.643
56060SOL     OW70076   1.061   0.840  13.194
56060SOL    HW170077   0.990   0.897  13.165
56060SOL    HW270078   1.055   0.763  13.138
56061SOL     OW70079  10.881   4.779  13.814
56061SOL    HW170080  10.843   4.775  13.902
56061SOL    HW270081  10.937   4.702  13.809
56062SOL     OW70082   8.967   5.873   7.913
56062SOL    HW170083   8.902   5.892   7.980
56062SOL    HW270084   8.917   5.839   7.839
56063SOL     OW70085  12.831   8.801  12.688
56063SOL    HW170086  12.795   8.735  12.628
56063SOL    HW270087  12.806   8.885  12.650
56064SOL     OW70088   2.594   9.498   8.104
56064SOL    HW170089   2.534   9.564   8.069
56064SOL    HW270090   2.605   9.435   8.033
56065SOL     OW70091  14.751   2.904   1.801
56065SOL    HW170092  14.764   2.876   1.892
56065SOL    HW270093  14.831   2.877   1.756
56066SOL     OW70094  11.621   3.718   1.579
56066SOL    HW170095  11.542   3.772   1.585
56066SOL    HW270096  11.626   3.693   1.487
56067SOL     OW70097   6.920  10.962   3.893
56067SOL    HW170098   6.826  10.958   3.877
56067SOL    HW270099   6.929  11.021   3.968
56068SOL     OW70100   7.503  10.761   8.786
56068SOL    HW170101   7.598  10.756   8.778
56068SOL    HW270102   7.472  10.673   8.765
56069SOL     OW70103   5.445   9.337   9.527
56069SOL    HW170104   5.413   9.315   9.439
56069SOL    HW270105   5.411   9.424   9.544
56070SOL     OW70106   7.028   1.312   1.174
56070SOL    HW170107   7.051   1.394   1.218
56070SOL    HW270108   7.008   1.251   1.245
56071SOL     OW70109   9.829   8.762   0.164
56071SOL    HW170110   9.823   8.850   0.203
56071SOL    HW270111   9.757   8.713   0.204
56072SOL     OW70112   7.929  14.230   6.415
56072SOL    HW170113   7.843  14.266   6.392
56072SOL    HW270114   7.970  14.297   6.467
56073SOL     OW70115  12.644  14.274   0.437
56073SOL    HW170116  12.580  14.333   0.396
56073SOL    HW270117  12.633  14.289   0.531
56074SOL     OW70118  13.201  10.143   8.869
56074SOL    HW170119  13.143  10.112   8.800
56074SOL    HW270120  13.255  10.068   8.892
56075SOL     OW70121  10.052  13.973   9.039
56075SOL    HW170122  10.062  13.958   8.945
56075SOL    HW270123  10.110  14.048   9.057
56076SOL     OW70124  11.079   0.106   4.593
56076SOL    HW170125  11.095   0.053   4.671
56076SOL    HW270126  11.161   0.153   4.579
56077SOL     OW70127   6.308  14.565   5.542
56077SOL    HW170128   6.374  14.497   5.559
56077SOL    HW270129   6.340  14.641   5.590
56078SOL     OW70130   0.272   6.573   5.393
56078SOL    HW170131   0.244   6.482   5.383
56078SOL    HW270132   0.296   6.581   5.485
56079SOL     OW70133   8.783   8.309   3.457
56079SOL    HW170134   8.755   8.219   3.441
56079SOL    HW270135   8.821   8.307   3.545
56080SOL     OW70136   4.124   1.194   9.055
56080SOL    HW170137   4.220   1.200   9.054
56080SOL    HW270138   4.103   1.138   8.980
56081SOL     OW70139   6.573   9.354  11.173
56081SOL    HW170140   6.628   9.285  11.211
56081SOL    HW270141   6.483   9.320  11.180
56082SOL     OW70142   2.005   6.208  11.526
56082SOL    HW170143   1.913   6.234  11.525
56082SOL    HW270144   2.044   6.257  11.598
56083SOL     OW70145   3.973  11.129   5.850
56083SOL    HW170146   3.936  11.069   5.915
56083SOL    HW270147   3.897  11.178   5.817
56084SOL     OW70148   7.176   7.894   7.227
56084SOL    HW170149   7.200   7.828   7.163
56084SOL    HW270150   7.258   7.916   7.272
56085SOL     OW70151   0.533   0.353   7.687
56085SOL    HW170152   0.607   0.311   7.642
56085SOL    HW270153   0.526   0.306   7.770
56086SOL     OW70154   9.519   0.303   1.858
56086SOL    HW170155   9.444   0.250   1.886
56086SOL    HW270156   9.594   0.264   1.903
56087SOL     OW70157  12.754   4.607   7.635
56087SOL    HW170158  12.733   4.611   7.728
56087SOL    HW270159  12.787   4.518   7.622
56088SOL     OW70160  12.194   6.037   5.312
56088SOL    HW170161  12.250   6.002   5.381
56088SOL    HW270162  12.227   6.126   5.298
56089SOL     OW70163   7.216  10.319   1.250
56089SOL    HW170164   7.182  10.324   1.160
56089SOL    HW270165   7.242  10.227   1.260
56090SOL     OW70166   6.373  14.103  11.389
56090SOL    HW170167   6.338  14.015  11.397
56090SOL    HW270168   6.428  14.101  11.310
56091SOL     OW70169   7.350   8.489   0.765
56091SOL    HW170170   7.281   8.482   0.830
56091SOL    HW270171   7.331   8.569   0.717
56092SOL     OW70172   1.419   9.557   3.765
56092SOL    HW170173   1.500   9.527   3.724
56092SOL    HW270174   1.350   9.525   3.708
56093SOL     OW70175  14.344   6.827  12.705
56093SOL    HW170176  14.418   6.783  12.664
56093SOL    HW270177  14.286   6.756  12.733
56094SOL     OW70178  14.651  14.090   6.163
56094SOL    HW170179  14.736  14.117   6.127
56094SOL    HW270180  14.607  14.045   6.090
56095SOL     OW70181   4.842   6.537  14.615
56095SOL    HW170182   4.802   6.616  14.652
56095SOL    HW270183   4.936   6.548  14.632
56096SOL     OW70184   1.427  10.300   9.079
56096SOL    HW170185   1.516  10.313   9.111
56096SOL    HW270186   1.399  10.217   9.118
56097SOL     OW70187   9.425   3.245   8.177
56097SOL    HW170188   9.515   3.267   8.152
56097SOL    HW270189   9.417   3.151   8.161
56098SOL     OW70190  13.767   3.798   6.587
56098SOL    HW170191  13.732   3.711   6.570
56098SOL    HW270192  13.858   3.783   6.613
56099SOL     OW70193   3.051  14.219   9.519
56099SOL    HW170194   3.011  14.156   9.460
56099SOL    HW270195   3.103  14.165   9.580
56100SOL     OW70196   4.612  12.824   5.613
56100SOL    HW170197   4.582  12.825   5.703
56100SOL    HW270198   4.534  12.802   5.562
56101SOL     OW70199   3.601   2.417  13.834
56101SOL    HW170200   3.615   2.368  13.915
56101SOL    HW270201   3.622   2.355  13.765
56102SOL     OW70202   3.915   6.606  11.527
56102SOL    HW170203   3.923   6.683  11.471
56102SOL    HW270204   3.878   6.639  11.608
56103SOL     OW70205  13.295  12.168   2.773
56103SOL    HW170206  13.270  12.250   2.732
56103SOL    HW270207  13.302  12.106   2.700
56104SOL     OW70208   7.968   6.414   0.226
56104SOL    HW170209   8.006   6.477   0.165
56104SOL    HW270210   8.018   6.426   0.307
56105SOL     OW70211  11.762  13.978   1.350
56105SOL    HW170212  11.828  13.990   1.419
56105SOL    HW270213  11.779  13.890   1.316
56106SOL     OW70214   5.929   9.898   4.725
56106SOL    HW170215   5.988   9.827   4.748
56106SOL    HW270216   5.868   9.902   4.798
56107SOL     OW70217  14.661  10.071  13.116
56107SOL    HW170218  14.630   9.989  13.155
56107SOL    HW270219  14.711  10.043  13.039
56108SOL     OW70220   8.228   7.697  13.095
56108SOL    HW170221   8.205   7.607  13.120
56108SOL    HW270222   8.180   7.752  13.156
56109SOL     OW70223   9.931   2.256  10.417
56109SOL    HW170224  10.006   2.297  10.460
56109SOL    HW270225   9.966   2.222  10.335
56110SOL     OW70226  12.189   6.478   1.003
56110SOL    HW170227  12.248   6.425   1.057
56110SOL    HW270228  12.224   6.567   1.009
56111SOL     OW70229   8.662   7.918  13.861
56111SOL    HW170230   8.667   7.993  13.802
56111SOL    HW270231   8.592   7.864  13.825
56112SOL     OW70232  13.625   0.826   7.687
56112SOL    HW170233  13.655   0.902   7.737
56112SOL    HW270234  13.664   0.751   7.732
56113SOL     OW70235  12.472  11.386  10.005
56113SOL    HW170236  12.527  11.394  10.083
56113SOL    HW270237  12.383  11.394  10.039
56114SOL     OW70238   2.045   1.966   5.095
56114SOL    HW170239   1.982   1.895   5.108
56114SOL    HW270240   2.026   2.000   5.008
56115SOL     OW70241   3.117   1.221   9.225
56115SOL    HW170242   3.102   1.275   9.304
56115SOL    HW270243   3.042   1.162   9.221
56116SOL     OW70244  10.840   6.915   4.558
56116SOL    HW170245  10.769   6.929   4.495
56116SOL    HW270246  10.798   6.922   4.643
56117SOL     OW70247   6.329   5.064  13.841
56117SOL    HW170248   6.334   4.969  13.842
56117SOL    HW270249   6.409   5.093  13.885
56118SOL     OW70250   6.631   1.383   0.927
56118SOL    HW170251   6.672   1.466   0.906
56118SOL    HW270252   6.703   1.320   0.932
56119SOL     OW70253   5.653  13.910  14.718
56119SOL    HW170254   5.652  13.958  14.801
56119SOL    HW270255   5.563  13.919  14.684
56120SOL     OW70256   6.867   4.983   3.950
56120SOL    HW170257   6.856   5.069   3.909
56120SOL    HW270258   6.878   4.923   3.877
56121SOL     OW70259   2.759   9.004  13.907
56121SOL    HW170260   2.720   8.918  13.922
56121SOL    HW270261   2.842   8.986  13.864
56122SOL     OW70262  13.353   6.663   4.651
56122SOL    HW170263  13.301   6.584   4.635
56122SOL    HW270264  13.314   6.729   4.594
56123SOL     OW70265  13.761   6.166   5.179
56123SOL    HW170266  13.812   6.130   5.107
56123SOL    HW270267  13.824   6.178   5.250
56124SOL     OW70268   3.282  11.478   2.153
56124SOL    HW170269   3.324  11.480   2.066
56124SOL    HW270270   3.251  11.387   2.161
56125SOL     OW70271  10.547  11.937   1.729
56125SOL    HW170272  10.484  11.867   1.748
56125SOL    HW270273  10.631  11.892   1.717
56126SOL     OW70274   0.631   8.663   3.682
56126SOL    HW170275   0.547   8.702   3.708
56126SOL    HW270276   0.611   8.571   3.666
56127SOL     OW70277   6.208   7.072   0.983
56127SOL    HW170278   6.266   7.025   0.924
56127SOL    HW270279   6.128   7.088   0.932
56128SOL     OW70280  11.480  11.751  11.715
56128SOL    HW170281  11.446  11.829  11.671
56128SOL    HW270282  11.573  11.749  11.693
56129SOL     OW70283  12.821   3.974  13.082
56129SOL    HW170284  12.833   3.886  13.046
56129SOL    HW270285  12.895   4.024  13.047
56130SOL     OW70286   7.222   7.456   6.072
56130SOL    HW170287   7.225   7.549   6.051
56130SOL    HW270288   7.191   7.414   5.992
56131SOL     OW70289   6.452   6.842   8.040
56131SOL    HW170290   6.488   6.878   7.959
56131SOL    HW270291   6.363   6.815   8.017
56132SOL     OW70292  10.693   3.983   6.918
56132SOL    HW170293  10.763   4.035   6.878
56132SOL    HW270294  10.612   4.019   6.881
56133SOL     OW70295   6.841   2.568  13.100
56133SOL    HW170296   6.931   2.582  13.072
56133SOL    HW270297   6.839   2.596  13.191
56134SOL     OW70298   7.502   5.591  13.753
56134SOL    HW170299   7.450   5.664  13.719
56134SOL    HW270300   7.589   5.628  13.768
56135SOL     OW70301   6.722   1.996  12.258
56135SOL    HW170302   6.651   2.013  12.196
56135SOL    HW270303   6.696   2.041  12.338
56136SOL     OW70304   1.881   5.256   1.161
56136SOL    HW170305   1.846   5.174   1.125
56136SOL    HW270306   1.963   5.230   1.203
56137SOL     OW70307   9.383  10.587   6.722
56137SOL    HW170308   9.366  10.523   6.653
56137SOL    HW270309   9.476  10.578   6.742
56138SOL     OW70310  14.222  13.997  10.150
56138SOL    HW170311  14.264  13.978  10.234
56138SOL    HW270312  14.292  13.991  10.086
56139SOL     OW70313   5.216   7.440   4.230
56139SOL    HW170314   5.133   7.398   4.209
56139SOL    HW270315   5.194   7.508   4.293
56140SOL     OW70316   3.017   9.498   7.717
56140SOL    HW170317   3.027   9.510   7.812
56140SOL    HW270318   3.107   9.487   7.685
56141SOL     OW70319   1.915  13.542   5.624
56141SOL    HW170320   1.844  13.550   5.561
56141SOL    HW270321   1.981  13.489   5.580
56142SOL     OW70322   9.977   3.042   0.400
56142SOL    HW170323  10.026   3.123   0.409
56142SOL    HW270324   9.952   3.019   0.489
56143SOL     OW70325   5.666   8.876   3.032
56143SOL    HW170326   5.660   8.882   3.127
56143SOL    HW270327   5.694   8.786   3.015
56144SOL     OW70328   8.280  13.025   2.158
56144SOL    HW170329   8.219  12.982   2.217
56144SOL    HW270330   8.236  13.105   2.132
56145SOL     OW70331   1.013   6.563   4.434
56145SOL    HW170332   1.066   6.637   4.403
56145SOL    HW270333   1.012   6.502   4.361
56146SOL     OW70334   3.635  11.585  10.035
56146SOL    HW170335   3.582  11.606  10.112
56146SOL    HW270336   3.574  11.594   9.961
56147SOL     OW70337   6.913   3.038  13.216
56147SOL    HW170338   6.902   3.113  13.157
56147SOL    HW270339   7.005   3.041  13.242
56148SOL     OW70340  12.095  12.242   6.333
56148SOL    HW170341  12.025  12.291   6.290
56148SOL    HW270342  12.061  12.153   6.338
56149SOL     OW70343   1.674   3.977   6.675
56149SOL    HW170344   1.705   4.063   6.703
56149SOL    HW270345   1.611   3.996   6.606
56150SOL     OW70346  12.796   6.559  11.329
56150SOL    HW170347  12.860   6.597  11.269
56150SOL    HW270348  12.831   6.473  11.351
56151SOL     OW70349   4.237   2.837   7.483
56151SOL    HW170350   4.232   2.883   7.399
56151SOL    HW270351   4.313   2.874   7.526
56152SOL     OW70352   4.427   7.246   4.422
56152SOL    HW170353   4.461   7.262   4.334
56152SOL    HW270354   4.419   7.150   4.427
56153SOL     OW70355   7.817   8.338   5.672
56153SOL    HW170356   7.824   8.297   5.586
56153SOL    HW270357   7.904   8.330   5.711
56154SOL     OW70358   7.651   5.065   5.450
56154SOL    HW170359   7.651   5.156   5.420
56154SOL    HW270360   7.597   5.066   5.529
56155SOL     OW70361  13.371   2.655  12.876
56155SOL    HW170362  13.325   2.662  12.959
56155SOL    HW270363  13.402   2.564  12.873
56156SOL     OW70364  13.199  14.172   2.621
56156SOL    HW170365  13.127  14.219   2.663
56156SOL    HW270366  13.239  14.236   2.563
56157SOL     OW70367  11.209   9.009   1.139
56157SOL    HW170368  11.216   8.956   1.219
56157SOL    HW270369  11.227   8.948   1.068
56158SOL     OW70370   2.830   9.498  10.082
56158SOL    HW170371   2.771   9.426  10.058
56158SOL    HW270372   2.782   9.577  10.058
56159SOL     OW70373  14.307   6.370   6.002
56159SOL    HW170374  14.310   6.380   5.907
56159SOL    HW270375  14.214   6.358   6.022
56160SOL     OW70376  10.652  11.737  11.909
56160SOL    HW170377  10.576  11.773  11.864
56160SOL    HW270378  10.645  11.770  11.999
56161SOL     OW70379   9.046  11.412   4.323
56161SOL    HW170380   8.969  11.406   4.266
56161SOL    HW270381   9.011  11.393   4.411
56162SOL     OW70382   4.326   9.272   5.243
56162SOL    HW170383   4.310   9.180   5.225
56162SOL    HW270384   4.241   9.315   5.233
56163SOL     OW70385  13.947   5.355  12.836
56163SOL    HW170386  13.977   5.267  12.859
56163SOL    HW270387  13.953   5.358  12.741
56164SOL     OW70388   0.581   8.782   6.160
56164SOL    HW170389   0.536   8.842   6.220
56164SOL    HW270390   0.513   8.753   6.099
56165SOL     OW70391  14.521   5.728  11.451
56165SOL    HW170392  14.500   5.722  11.358
56165SOL    HW270393  14.576   5.651  11.468
56166SOL     OW70394   2.971   3.312   5.498
56166SOL    HW170395   2.878   3.326   5.515
56166SOL    HW270396   3.008   3.285   5.582
56167SOL     OW70397   3.882  10.592   8.366
56167SOL    HW170398   3.792  10.570   8.391
56167SOL    HW270399   3.893  10.553   8.279
56168SOL     OW70400   3.425  14.025   5.054
56168SOL    HW170401   3.437  14.062   5.142
56168SOL    HW270402   3.396  13.935   5.070
56169SOL     OW70403  14.091  14.637  13.453
56169SOL    HW170404  14.041  14.604  13.378
56169SOL    HW270405  14.024  14.657  13.519
56170SOL     OW70406   6.408  12.862   4.668
56170SOL    HW170407   6.489  12.882   4.621
56170SOL    HW270408   6.352  12.820   4.603
56171SOL     OW70409   0.200   6.109   1.118
56171SOL    HW170410   0.253   6.030   1.132
56171SOL    HW270411   0.170   6.102   1.027
56172SOL     OW70412  14.823   3.615   3.897
56172SOL    HW170413   0.035   3.595   3.915
56172SOL    HW270414  14.782   3.621   3.983
56173SOL     OW70415  12.213   2.946  11.227
56173SOL    HW170416  12.281   2.899  11.275
56173SOL    HW270417  12.152   2.975  11.295
56174SOL     OW70418   3.378   0.936   9.589
56174SOL    HW170419   3.364   0.847   9.555
56174SOL    HW270420   3.473   0.944   9.593
56175SOL     OW70421   9.383  12.289   2.723
56175SOL    HW170422   9.360  12.296   2.816
56175SOL    HW270423   9.457  12.349   2.713
56176SOL     OW70424  12.767   1.217   4.833
56176SOL    HW170425  12.754   1.127   4.863
56176SOL    HW270426  12.753   1.270   4.911
56177SOL     OW70427  13.112   5.929  10.234
56177SOL    HW170428  13.030   5.915  10.185
56177SOL    HW270429  13.176   5.953  10.167
56178SOL     OW70430   6.115   9.642   6.457
56178SOL    HW170431   6.193   9.596   6.426
56178SOL    HW270432   6.125   9.646   6.552
56179SOL     OW70433  13.086   6.562   0.501
56179SOL    HW170434  13.049   6.494   0.557
56179SOL    HW270435  13.027   6.637   0.512
56180SOL     OW70436   0.576   0.279   2.785
56180SOL    HW170437   0.578   0.319   2.872
56180SOL    HW270438   0.605   0.189   2.799
56181SOL     OW70439   4.535  12.214   8.785
56181SOL    HW170440   4.515  12.199   8.692
56181SOL    HW270441   4.584  12.296   8.786
56182SOL     OW70442  10.295  13.227   3.524
56182SOL    HW170443  10.283  13.322   3.517
56182SOL    HW270444  10.227  13.200   3.586
56183SOL     OW70445   6.009   3.943   2.138
56183SOL    HW170446   6.078   3.996   2.179
56183SOL    HW270447   5.971   3.894   2.210
56184SOL     OW70448   2.876  12.335   1.886
56184SOL    HW170449   2.789  12.315   1.919
56184SOL    HW270450   2.903  12.258   1.837
56185SOL     OW70451   8.248   9.125  13.068
56185SOL    HW170452   8.265   9.204  13.017
56185SOL    HW270453   8.204   9.066  13.007
56186SOL     OW70454   6.435   6.967   5.956
56186SOL    HW170455   6.450   7.025   5.881
56186SOL    HW270456   6.406   6.884   5.917
56187SOL     OW70457   4.053   2.228  14.499
56187SOL    HW170458   4.046   2.262  14.588
56187SOL    HW270459   4.011   2.295  14.444
56188SOL     OW70460  12.401  12.710  13.641
56188SOL    HW170461  12.471  12.649  13.616
56188SOL    HW270462  12.411  12.721  13.735
56189SOL     OW70463  11.411  12.806   6.100
56189SOL    HW170464  11.435  12.794   6.008
56189SOL    HW270465  11.332  12.860   6.098
56190SOL     OW70466  12.960   2.916   7.639
56190SOL    HW170467  12.898   2.916   7.712
56190SOL    HW270468  13.037   2.872   7.674
56191SOL     OW70469   1.533   5.160   1.414
56191SOL    HW170470   1.490   5.245   1.406
56191SOL    HW270471   1.622   5.180   1.444
56192SOL     OW70472  14.476  12.963   7.393
56192SOL    HW170473  14.550  13.021   7.377
56192SOL    HW270474  14.511  12.893   7.448
56193SOL     OW70475   8.095  10.202  10.212
56193SOL    HW170476   8.076  10.109  10.223
56193SOL    HW270477   8.153  10.223  10.285
56194SOL     OW70478   5.750  13.961   6.650
56194SOL    HW170479   5.742  13.867   6.661
56194SOL    HW270480   5.823  13.972   6.588
56195SOL     OW70481   2.775   1.593  14.100
56195SOL    HW170482   2.799   1.502  14.089
56195SOL    HW270483   2.857   1.641  14.092
56196SOL     OW70484   6.874   3.888   4.116
56196SOL    HW170485   6.805   3.949   4.142
56196SOL    HW270486   6.847   3.857   4.030
56197SOL     OW70487   5.445  11.216   4.043
56197SOL    HW170488   5.463  11.129   4.005
56197SOL    HW270489   5.365  11.204   4.094
56198SOL     OW70490   5.872  10.923  12.004
56198SOL    HW170491   5.950  10.867  12.002
56198SOL    HW270492   5.895  10.998  11.951
56199SOL     OW70493   5.233   5.497   3.970
56199SOL    HW170494   5.162   5.460   4.023
56199SOL    HW270495   5.279   5.421   3.936
56200SOL     OW70496   3.660   8.864   9.265
56200SOL    HW170497   3.731   8.818   9.220
56200SOL    HW270498   3.638   8.808   9.339
56201SOL     OW70499   2.284   5.524   1.402
56201SOL    HW170500   2.198   5.491   1.375
56201SOL    HW270501   2.344   5.453   1.379
56202SOL     OW70502  14.286  13.871   5.812
56202SOL    HW170503  14.241  13.795   5.775
56202SOL    HW270504  14.317  13.921   5.737
56203SOL     OW70505   0.121   7.023   3.497
56203SOL    HW170506   0.055   7.033   3.429
56203SOL    HW270507   0.128   6.928   3.509
56204SOL     OW70508   2.684   3.642  12.997
56204SOL    HW170509   2.755   3.681  12.945
56204SOL    HW270510   2.723   3.563  13.034
56205SOL     OW70511  12.243  14.280   4.526
56205SOL    HW170512  12.336  14.292   4.545
56205SOL    HW270513  12.241  14.215   4.456
56206SOL     OW70514   8.807  12.714   6.049
56206SOL    HW170515   8.802  12.630   6.005
56206SOL    HW270516   8.830  12.693   6.139
56207SOL     OW70517  10.002  12.267   6.171
56207SOL    HW170518   9.945  12.199   6.206
56207SOL    HW270519   9.966  12.349   6.207
56208SOL     OW70520  11.838   0.617   3.320
56208SOL    HW170521  11.906   0.580   3.376
56208SOL    HW270522  11.760   0.565   3.341
56209SOL     OW70523   7.751   0.455   9.797
56209SOL    HW170524   7.705   0.372   9.787
56209SOL    HW270525   7.838   0.431   9.830
56210SOL     OW70526   8.467   5.684   4.263
56210SOL    HW170527   8.538   5.643   4.214
56210SOL    HW270528   8.506   5.708   4.346
56211SOL     OW70529  14.264  14.393  12.632
56211SOL    HW170530  14.242  14.482  12.604
56211SOL    HW270531  14.235  14.388  12.723
56212SOL     OW70532   7.183   4.593   0.202
56212SOL    HW170533   7.272   4.559   0.194
56212SOL    HW270534   7.190   4.684   0.172
56213SOL     OW70535   5.607   2.980   5.670
56213SOL    HW170536   5.678   2.960   5.730
56213SOL    HW270537   5.604   2.906   5.610
56214SOL     OW70538   7.271  13.241  13.053
56214SOL    HW170539   7.187  13.243  13.099
56214SOL    HW270540   7.337  13.251  13.121
56215SOL     OW70541  10.399   7.835   8.550
56215SOL    HW170542  10.391   7.930   8.550
56215SOL    HW270543  10.313   7.803   8.578
56216SOL     OW70544  10.644   6.425   6.955
56216SOL    HW170545  10.629   6.383   7.040
56216SOL    HW270546  10.562   6.415   6.908
56217SOL     OW70547  14.570   0.487  11.861
56217SOL    HW170548  14.491   0.452  11.902
56217SOL    HW270549  14.541   0.565  11.814
56218SOL     OW70550  10.816  10.105   0.030
56218SOL    HW170551  10.745  10.057   0.073
56218SOL    HW270552  10.893  10.089   0.085
56219SOL     OW70553   1.479  13.875   7.418
56219SOL    HW170554   1.420  13.843   7.350
56219SOL    HW270555   1.564  13.839   7.395
56220SOL     OW70556  11.307  11.480   1.247
56220SOL    HW170557  11.280  11.388   1.249
56220SOL    HW270558  11.361  11.487   1.168
56221SOL     OW70559  11.971   6.990  11.132
56221SOL    HW170560  11.878   6.975  11.115
56221SOL    HW270561  12.014   6.909  11.105
56222SOL     OW70562  12.397  12.746  10.385
56222SOL    HW170563  12.454  12.819  10.358
56222SOL    HW270564  12.452  12.668  10.374
56223SOL     OW70565   5.060  11.426   1.640
56223SOL    HW170566   5.142  11.455   1.680
56223SOL    HW270567   5.083  11.410   1.548
56224SOL     OW70568   2.285   0.343  11.682
56224SOL    HW170569   2.332   0.262  11.700
56224SOL    HW270570   2.344   0.393  11.625
56225SOL     OW70571   1.053   7.153   3.127
56225SOL    HW170572   0.974   7.136   3.075
56225SOL    HW270573   1.019   7.188   3.210
56226SOL     OW70574  14.456  11.871   3.483
56226SOL    HW170575  14.401  11.945   3.460
56226SOL    HW270576  14.463  11.820   3.402
56227SOL     OW70577   7.423  13.518   0.800
56227SOL    HW170578   7.429  13.481   0.888
56227SOL    HW270579   7.367  13.595   0.810
56228SOL     OW70580  12.515   1.963  10.039
56228SOL    HW170581  12.427   1.949  10.003
56228SOL    HW270582  12.512   2.052  10.075
56229SOL     OW70583  12.503  12.048   0.118
56229SOL    HW170584  12.440  11.982   0.146
56229SOL    HW270585  12.572  12.045   0.185
56230SOL     OW70586   7.267   9.185  10.490
56230SOL    HW170587   7.331   9.255  10.475
56230SOL    HW270588   7.312   9.126  10.550
56231SOL     OW70589   3.692   7.862   7.230
56231SOL    HW170590   3.776   7.891   7.196
56231SOL    HW270591   3.630   7.881   7.159
56232SOL     OW70592  13.258   8.175   8.463
56232SOL    HW170593  13.263   8.268   8.488
56232SOL    HW270594  13.215   8.133   8.537
56233SOL     OW70595   1.482  14.238   6.120
56233SOL    HW170596   1.425  14.205   6.051
56233SOL    HW270597   1.434  14.312   6.157
56234SOL     OW70598  12.059  13.767   8.163
56234SOL    HW170599  12.027  13.844   8.115
56234SOL    HW270600  11.981  13.715   8.179
56235SOL     OW70601   6.285  13.725  14.806
56235SOL    HW170602   6.344  13.752  14.735
56235SOL    HW270603   6.205  13.774  14.791
56236SOL     OW70604   7.320  11.811   1.845
56236SOL    HW170605   7.325  11.852   1.759
56236SOL    HW270606   7.231  11.777   1.850
56237SOL     OW70607  10.824   0.167  14.841
56237SOL    HW170608  10.868   0.107   0.021
56237SOL    HW270609  10.815   0.117  14.759
56238SOL     OW70610   5.606   3.350   7.077
56238SOL    HW170611   5.630   3.287   7.010
56238SOL    HW270612   5.669   3.421   7.067
56239SOL     OW70613  10.409  14.567  14.251
56239SOL    HW170614  10.347  14.580  14.179
56239SOL    HW270615  10.429  14.474  14.250
56240SOL     OW70616   2.749   1.473   6.119
56240SOL    HW170617   2.831   1.511   6.151
56240SOL    HW270618   2.685   1.544   6.127
56241SOL     OW70619   7.996   2.728   2.307
56241SOL    HW170620   8.040   2.801   2.350
56241SOL    HW270621   8.060   2.696   2.243
56242SOL     OW70622   3.474  14.702   5.472
56242SOL    HW170623   3.508  14.773   5.418
56242SOL    HW270624   3.505  14.722   5.560
56243SOL     OW70625   5.716   2.695   8.459
56243SOL    HW170626   5.645   2.706   8.395
56243SOL    HW270627   5.687   2.744   8.536
56244SOL     OW70628  14.090   0.966   3.575
56244SOL    HW170629  14.164   0.910   3.599
56244SOL    HW270630  14.027   0.953   3.645
56245SOL     OW70631   0.340   5.078   0.757
56245SOL    HW170632   0.245   5.076   0.765
56245SOL    HW270633   0.372   5.054   0.844
56246SOL     OW70634   1.256   4.701  10.190
56246SOL    HW170635   1.332   4.674  10.139
56246SOL    HW270636   1.182   4.657  10.148
56247SOL     OW70637   7.932  13.044   8.080
56247SOL    HW170638   7.963  12.957   8.056
56247SOL    HW270639   7.993  13.074   8.148
56248SOL     OW70640   8.830  10.937   6.847
56248SOL    HW170641   8.919  10.958   6.817
56248SOL    HW270642   8.837  10.937   6.943
56249SOL     OW70643  11.432   5.953   5.917
56249SOL    HW170644  11.389   5.867   5.923
56249SOL    HW270645  11.505   5.947   5.978
56250SOL     OW70646  10.375  11.124   6.960
56250SOL    HW170647  10.331  11.094   7.039
56250SOL    HW270648  10.312  11.182   6.918
56251SOL     OW70649  12.788  13.545  12.275
56251SOL    HW170650  12.754  13.518  12.189
56251SOL    HW270651  12.861  13.485  12.292
56252SOL     OW70652  10.291   8.040   2.608
56252SOL    HW170653  10.265   7.976   2.542
56252SOL    HW270654  10.251   8.122   2.580
56253SOL     OW70655  11.149   2.009   0.070
56253SOL    HW170656  11.205   1.981   0.142
56253SOL    HW270657  11.129   1.928   0.022
56254SOL     OW70658   2.628   5.842  14.469
56254SOL    HW170659   2.716   5.814  14.495
56254SOL    HW270660   2.577   5.761  14.469
56255SOL     OW70661  14.625  10.268   3.468
56255SOL    HW170662  14.672  10.186   3.454
56255SOL    HW270663  14.557  10.268   3.401
56256SOL     OW70664  10.783   9.466   8.309
56256SOL    HW170665  10.723   9.486   8.237
56256SOL    HW270666  10.759   9.378   8.337
56257SOL     OW70667   1.092  12.089   0.104
56257SOL    HW170668   1.164  12.027   0.094
56257SOL    HW270669   1.040  12.054   0.176
56258SOL     OW70670   3.183   1.080  10.674
56258SOL    HW170671   3.146   1.146  10.615
56258SOL    HW270672   3.139   1.095  10.757
56259SOL     OW70673   3.933   0.336  14.845
56259SOL    HW170674   3.907   0.246  14.824
56259SOL    HW270675   4.004   0.355  14.784
56260SOL     OW70676   8.399  13.712   5.159
56260SOL    HW170677   8.356  13.689   5.242
56260SOL    HW270678   8.393  13.807   5.155
56261SOL     OW70679  13.472   3.772   0.206
56261SOL    HW170680  13.562   3.794   0.183
56261SOL    HW270681  13.426   3.766   0.122
56262SOL     OW70682   8.607   7.184   6.524
56262SOL    HW170683   8.583   7.224   6.607
56262SOL    HW270684   8.535   7.124   6.505
56263SOL     OW70685  11.868   3.175   0.558
56263SOL    HW170686  11.772   3.180   0.560
56263SOL    HW270687  11.892   3.143   0.645
56264SOL     OW70688  10.641   7.235  14.159
56264SOL    HW170689  10.727   7.223  14.120
56264SOL    HW270690  10.631   7.160  14.218
56265SOL     OW70691  12.594   7.809   1.676
56265SOL    HW170692  12.605   7.898   1.642
56265SOL    HW270693  12.679   7.789   1.716
56266SOL     OW70694  11.240  11.125   2.151
56266SOL    HW170695  11.149  11.125   2.180
56266SOL    HW270696  11.278  11.048   2.191
56267SOL     OW70697   9.911   3.901  12.979
56267SOL    HW170698   9.866   3.828  12.937
56267SOL    HW270699   9.894   3.890  13.073
56268SOL     OW70700   7.596  10.869   4.620
56268SOL    HW170701   7.501  10.862   4.613
56268SOL    HW270702   7.628  10.862   4.530
56269SOL     OW70703   3.612   7.839  12.164
56269SOL    HW170704   3.620   7.778  12.238
56269SOL    HW270705   3.543   7.899  12.190
56270SOL     OW70706   0.372   2.367   6.184
56270SOL    HW170707   0.279   2.355   6.164
56270SOL    HW270708   0.381   2.461   6.204
56271SOL     OW70709  10.533   6.056  14.863
56271SOL    HW170710  10.594   5.982  14.863
56271SOL    HW270711  10.565   6.112   0.055
56272SOL     OW70712   7.064   5.250   8.706
56272SOL    HW170713   7.153   5.218   8.691
56272SOL    HW270714   7.069   5.345   8.693
56273SOL     OW70715   7.014   9.104   1.869
56273SOL    HW170716   7.087   9.054   1.834
56273SOL    HW270717   7.011   9.183   1.814
56274SOL     OW70718  14.620   4.859   1.311
56274SOL    HW170719  14.538   4.809   1.300
56274SOL    HW270720  14.650   4.835   1.399
56275SOL     OW70721  12.235  14.567  14.574
56275SOL    HW170722  12.156  14.586  14.625
56275SOL    HW270723  12.289  14.514  14.633
56276SOL     OW70724  13.118   1.296   2.768
56276SOL    HW170725  13.212   1.308   2.786
56276SOL    HW270726  13.075   1.315   2.851
56277SOL     OW70727   0.372  10.071   2.957
56277SOL    HW170728   0.411  10.063   3.044
56277SOL    HW270729   0.278  10.061   2.973
56278SOL     OW70730   8.347   0.454   8.539
56278SOL    HW170731   8.396   0.454   8.621
56278SOL    HW270732   8.255   0.463   8.566
56279SOL     OW70733  12.925   6.861  11.931
56279SOL    HW170734  12.975   6.797  11.879
56279SOL    HW270735  12.986   6.934  11.943
56280SOL     OW70736   1.168  10.839   3.612
56280SOL    HW170737   1.184  10.747   3.635
56280SOL    HW270738   1.234  10.887   3.662
56281SOL     OW70739   4.462   8.758  13.900
56281SOL    HW170740   4.396   8.826  13.915
56281SOL    HW270741   4.466   8.750  13.805
56282SOL     OW70742  14.373  11.421  11.475
56282SOL    HW170743  14.329  11.457  11.552
56282SOL    HW270744  14.348  11.479  11.403
56283SOL     OW70745  12.924   0.603  12.807
56283SOL    HW170746  12.914   0.528  12.748
56283SOL    HW270747  12.835   0.621  12.838
56284SOL     OW70748   3.661  14.560   0.857
56284SOL    HW170749   3.651  14.519   0.771
56284SOL    HW270750   3.644  14.489   0.919
56285SOL     OW70751   8.519   4.377   7.609
56285SOL    HW170752   8.579   4.430   7.662
56285SOL    HW270753   8.443   4.434   7.595
56286SOL     OW70754   4.298  12.167  12.589
56286SOL    HW170755   4.385  12.175  12.549
56286SOL    HW270756   4.299  12.082  12.633
56287SOL     OW70757   3.405  11.348   3.395
56287SOL    HW170758   3.450  11.407   3.455
56287SOL    HW270759   3.314  11.378   3.395
56288SOL     OW70760  14.599   6.323  13.229
56288SOL    HW170761  14.544   6.253  13.266
56288SOL    HW270762  14.684   6.311  13.272
56289SOL     OW70763   0.825  14.083  13.934
56289SOL    HW170764   0.906  14.087  13.883
56289SOL    HW270765   0.757  14.112  13.873
56290SOL     OW70766   8.168   8.631   3.371
56290SOL    HW170767   8.143   8.549   3.413
56290SOL    HW270768   8.097   8.648   3.308
56291SOL     OW70769   9.414  13.624   8.993
56291SOL    HW170770   9.480  13.615   9.062
56291SOL    HW270771   9.464  13.640   8.913
56292SOL     OW70772   8.989   3.128   3.088
56292SOL    HW170773   9.010   3.215   3.055
56292SOL    HW270774   8.895   3.118   3.072
56293SOL     OW70775  11.262  13.961   1.139
56293SOL    HW170776  11.349  13.973   1.178
56293SOL    HW270777  11.279  13.913   1.058
56294SOL     OW70778   0.275  13.528  13.906
56294SOL    HW170779   0.197  13.577  13.879
56294SOL    HW270780   0.345  13.562  13.850
56295SOL     OW70781   7.523  13.382  10.485
56295SOL    HW170782   7.512  13.449  10.417
56295SOL    HW270783   7.582  13.318  10.446
56296SOL     OW70784  10.411   3.922   7.827
56296SOL    HW170785  10.316   3.936   7.824
56296SOL    HW270786  10.429   3.861   7.756
56297SOL     OW70787   3.613   1.126   9.484
56297SOL    HW170788   3.651   1.062   9.424
56297SOL    HW270789   3.520   1.128   9.460
56298SOL     OW70790   0.852   3.898  13.950
56298SOL    HW170791   0.825   3.970  14.006
56298SOL    HW270792   0.939   3.923  13.919
56299SOL     OW70793   1.288   2.677   7.621
56299SOL    HW170794   1.261   2.624   7.697
56299SOL    HW270795   1.220   2.661   7.556
56300SOL     OW70796   0.505   0.521   8.021
56300SOL    HW170797   0.524   0.470   8.099
56300SOL    HW270798   0.578   0.504   7.962
56301SOL     OW70799  11.249   7.424  12.450
56301SOL    HW170800  11.236   7.329  12.452
56301SOL    HW270801  11.199   7.453  12.374
56302SOL     OW70802   5.410  12.395   8.058
56302SOL    HW170803   5.330  12.353   8.027
56302SOL    HW270804   5.459  12.326   8.102
56303SOL     OW70805   3.025   0.759   9.160
56303SOL    HW170806   3.057   0.840   9.199
56303SOL    HW270807   2.935   0.779   9.134
56304SOL     OW70808   8.663   2.243  11.714
56304SOL    HW170809   8.751   2.220  11.686
56304SOL    HW270810   8.615   2.160  11.715
56305SOL     OW70811   8.504   0.090   8.399
56305SOL    HW170812   8.541   0.175   8.420
56305SOL    HW270813   8.417   0.109   8.362
56306SOL     OW70814   2.887   5.313   1.259
56306SOL    HW170815   2.850   5.388   1.212
56306SOL    HW270816   2.859   5.237   1.207
56307SOL     OW70817   0.024   3.731   5.387
56307SOL    HW170818   0.028   3.760   5.296
56307SOL    HW270819   0.115   3.708   5.408
56308SOL     OW70820  13.123   8.798   9.227
56308SOL    HW170821  13.197   8.822   9.171
56308SOL    HW270822  13.141   8.842   9.310
56309SOL     OW70823   2.654   3.348   3.876
56309SOL    HW170824   2.677   3.439   3.895
56309SOL    HW270825   2.708   3.325   3.801
56310SOL     OW70826  14.343   6.933   8.816
56310SOL    HW170827  14.437   6.952   8.809
56310SOL    HW270828  14.335   6.878   8.894
56311SOL     OW70829  10.120   2.674  10.695
56311SOL    HW170830  10.081   2.732  10.760
56311SOL    HW270831  10.192   2.725  10.657
56312SOL     OW70832   4.640  10.092   2.840
56312SOL    HW170833   4.557  10.127   2.873
56312SOL    HW270834   4.707  10.132   2.896
56313SOL     OW70835   8.717   1.572   7.919
56313SOL    HW170836   8.810   1.565   7.942
56313SOL    HW270837   8.702   1.501   7.857
56314SOL     OW70838  13.381  14.457   7.869
56314SOL    HW170839  13.424  14.411   7.797
56314SOL    HW270840  13.298  14.486   7.832
56315SOL     OW70841   9.945  12.072   1.340
56315SOL    HW170842   9.855  12.041   1.326
56315SOL    HW270843   9.989  11.998   1.381
56316SOL     OW70844   8.183  11.697   1.242
56316SOL    HW170845   8.190  11.612   1.285
56316SOL    HW270846   8.164  11.758   1.312
56317SOL     OW70847  14.454  14.651   1.789
56317SOL    HW170848  14.469  14.727   1.845
56317SOL    HW270849  14.539  14.607   1.785
56318SOL     OW70850  12.401   9.832   0.883
56318SOL    HW170851  12.383   9.786   0.966
56318SOL    HW270852  12.359   9.917   0.893
56319SOL     OW70853   2.678   7.721  13.496
56319SOL    HW170854   2.732   7.741  13.572
56319SOL    HW270855   2.740   7.696  13.428
56320SOL     OW70856  12.001   7.650   4.801
56320SOL    HW170857  12.054   7.575   4.825
56320SOL    HW270858  11.940   7.616   4.735
56321SOL     OW70859  11.917   6.119  13.721
56321SOL    HW170860  11.994   6.170  13.697
56321SOL    HW270861  11.951   6.050  13.779
56322SOL     OW70862   8.284  12.567  12.424
56322SOL    HW170863   8.249  12.531  12.343
56322SOL    HW270864   8.218  12.631  12.453
56323SOL     OW70865   7.743  10.494   8.290
56323SOL    HW170866   7.721  10.539   8.209
56323SOL    HW270867   7.835  10.470   8.280
56324SOL     OW70868   2.426   8.828  10.295
56324SOL    HW170869   2.355   8.827  10.232
56324SOL    HW270870   2.444   8.736  10.313
56325SOL     OW70871   6.200  12.392   3.912
56325SOL    HW170872   6.170  12.456   3.976
56325SOL    HW270873   6.187  12.307   3.956
56326SOL     OW70874   1.850   5.412  13.333
56326SOL    HW170875   1.872   5.320  13.324
56326SOL    HW270876   1.809   5.436  13.250
56327SOL     OW70877   8.277  10.870  13.889
56327SOL    HW170878   8.211  10.807  13.918
56327SOL    HW270879   8.235  10.917  13.817
56328SOL     OW70880  12.958   8.224   5.020
56328SOL    HW170881  12.912   8.179   4.949
56328SOL    HW270882  12.922   8.313   5.019
56329SOL     OW70883   6.158   2.455   4.742
56329SOL    HW170884   6.085   2.517   4.741
56329SOL    HW270885   6.126   2.379   4.694
56330SOL     OW70886   2.635   7.496   1.117
56330SOL    HW170887   2.611   7.501   1.024
56330SOL    HW270888   2.720   7.451   1.117
56331SOL     OW70889   0.230  13.380  14.124
56331SOL    HW170890   0.225  13.435  14.046
56331SOL    HW270891   0.213  13.291  14.093
56332SOL     OW70892   6.689  13.250   5.665
56332SOL    HW170893   6.738  13.261   5.746
56332SOL    HW270894   6.621  13.186   5.686
56333SOL     OW70895  14.670   3.874   1.126
56333SOL    HW170896  14.618   3.898   1.203
56333SOL    HW270897  14.753   3.843   1.163
56334SOL     OW70898   1.575  14.743   9.393
56334SOL    HW170899   1.625  14.663   9.380
56334SOL    HW270900   1.611  14.805   9.329
56335SOL     OW70901  13.801   9.052  12.846
56335SOL    HW170902  13.817   9.017  12.934
56335SOL    HW270903  13.706   9.054  12.838
56336SOL     OW70904   8.368   1.320   4.188
56336SOL    HW170905   8.435   1.280   4.133
56336SOL    HW270906   8.363   1.263   4.265
56337SOL     OW70907   6.855   7.283   9.520
56337SOL    HW170908   6.786   7.222   9.547
56337SOL    HW270909   6.924   7.273   9.586
56338SOL     OW70910   3.727   3.905  12.202
56338SOL    HW170911   3.722   4.000  12.211
56338SOL    HW270912   3.723   3.872  12.292
56339SOL     OW70913  12.826   8.575   8.221
56339SOL    HW170914  12.910   8.530   8.216
56339SOL    HW270915  12.761   8.505   8.216
56340SOL     OW70916   0.807   8.256   5.663
56340SOL    HW170917   0.804   8.284   5.754
56340SOL    HW270918   0.718   8.223   5.645
56341SOL     OW70919  11.721   9.076   8.639
56341SOL    HW170920  11.695   9.110   8.725
56341SOL    HW270921  11.656   9.009   8.619
56342SOL     OW70922  10.449  12.195   7.286
56342SOL    HW170923  10.407  12.129   7.230
56342SOL    HW270924  10.509  12.146   7.341
56343SOL     OW70925   0.688   0.444   6.377
56343SOL    HW170926   0.745   0.409   6.446
56343SOL    HW270927   0.743   0.506   6.330
56344SOL     OW70928  13.066  11.226   5.036
56344SOL    HW170929  13.028  11.285   5.101
56344SOL    HW270930  13.160  11.238   5.045
56345SOL     OW70931   9.545   6.454   4.812
56345SOL    HW170932   9.634   6.486   4.826
56345SOL    HW270933   9.515   6.502   4.735
56346SOL     OW70934  12.122   1.223   1.365
56346SOL    HW170935  12.088   1.178   1.287
56346SOL    HW270936  12.191   1.165   1.398
56347SOL     OW70937   8.026   3.692  14.273
56347SOL    HW170938   8.119   3.705  14.255
56347SOL    HW270939   8.023   3.668  14.366
56348SOL     OW70940  13.418   5.380  11.046
56348SOL    HW170941  13.346   5.373  11.109
56348SOL    HW270942  13.380   5.427  10.972
56349SOL     OW70943  13.824   8.976  12.400
56349SOL    HW170944  13.853   8.887  12.417
56349SOL    HW270945  13.904   9.023  12.375
56350SOL     OW70946   5.080  12.321   0.874
56350SOL    HW170947   4.988  12.343   0.858
56350SOL    HW270948   5.105  12.374   0.949
56351SOL     OW70949   0.654   9.477  10.649
56351SOL    HW170950   0.599   9.401  10.628
56351SOL    HW270951   0.686   9.506  10.564
56352SOL     OW70952   7.696   9.807   2.227
56352SOL    HW170953   7.660   9.718   2.235
56352SOL    HW270954   7.760   9.800   2.157
56353SOL     OW70955  12.294   8.294  13.121
56353SOL    HW170956  12.310   8.365  13.059
56353SOL    HW270957  12.220   8.324  13.174
56354SOL     OW70958   9.108  12.855  12.498
56354SOL    HW170959   9.021  12.814  12.494
56354SOL    HW270960   9.134  12.865  12.407
56355SOL     OW70961   1.238   8.012   3.991
56355SOL    HW170962   1.161   7.997   4.046
56355SOL    HW270963   1.204   8.058   3.914
56356SOL     OW70964   0.573  14.562  12.722
56356SOL    HW170965   0.641  14.497  12.736
56356SOL    HW270966   0.618  14.646  12.724
56357SOL     OW70967   0.536   4.866  14.795
56357SOL    HW170968   0.630   4.887  14.803
56357SOL    HW270969   0.532   4.802  14.724
56358SOL     OW70970   9.549   9.663   7.406
56358SOL    HW170971   9.531   9.582   7.357
56358SOL    HW270972   9.487   9.726   7.369
56359SOL     OW70973  14.553   8.986  11.440
56359SOL    HW170974  14.488   8.947  11.498
56359SOL    HW270975  14.515   9.069  11.411
56360SOL     OW70976   9.367   3.809  10.082
56360SOL    HW170977   9.381   3.899  10.112
56360SOL    HW270978   9.314   3.818  10.003
56361SOL     OW70979   5.534  14.416  14.348
56361SOL    HW170980   5.507  14.325  14.335
56361SOL    HW270981   5.628  14.415  14.333
56362SOL     OW70982   8.554   8.677   3.597
56362SOL    HW170983   8.624   8.691   3.533
56362SOL    HW270984   8.574   8.738   3.668
56363SOL     OW70985   2.052   1.197   6.053
56363SOL    HW170986   2.001   1.277   6.069
56363SOL    HW270987   1.992   1.126   6.076
56364SOL     OW70988  14.670   2.730   6.149
56364SOL    HW170989  14.641   2.820   6.163
56364SOL    HW270990  14.688   2.725   6.055
56365SOL     OW70991  10.118   4.845   7.999
56365SOL    HW170992  10.117   4.755   8.031
56365SOL    HW270993  10.176   4.892   8.060
56366SOL     OW70994   3.765  14.451   0.180
56366SOL    HW170995   3.833  14.518   0.175
56366SOL    HW270996   3.761  14.429   0.273
56367SOL     OW70997   9.596   1.364   5.511
56367SOL    HW170998   9.653   1.319   5.573
56367SOL    HW270999   9.635   1.451   5.501
56368SOL     OW71000   6.409   6.534   0.845
56368SOL    HW171001   6.411   6.553   0.751
56368SOL    HW271002   6.347   6.597   0.881
56369SOL     OW71003  12.373  14.821   2.992
56369SOL    HW171004  12.328  14.781   3.067
56369SOL    HW271005  12.465  14.820   3.016
56370SOL     OW71006   4.724   7.134   5.017
56370SOL    HW171007   4.795   7.092   4.969
56370SOL    HW271008   4.705   7.213   4.967
56371SOL     OW71009  12.408   9.506   0.086
56371SOL    HW171010  12.501   9.522   0.104
56371SOL    HW271011  12.366   9.507   0.172
56372SOL     OW71012   7.408   2.553  13.358
56372SOL    HW171013   7.472   2.585  13.422
56372SOL    HW271014   7.458   2.546  13.276
56373SOL     OW71015  10.912   9.507   8.708
56373SOL    HW171016  10.834   9.560   8.697
56373SOL    HW271017  10.928   9.507   8.803
56374SOL     OW71018   0.770   8.008  10.884
56374SOL    HW171019   0.772   8.089  10.833
56374SOL    HW271020   0.854   7.967  10.866
56375SOL     OW71021   5.968  12.546   1.214
56375SOL    HW171022   5.975  12.601   1.135
56375SOL    HW271023   5.958  12.457   1.181
56376SOL     OW71024   0.504  10.615   0.676
56376SOL    HW171025   0.563  10.592   0.604
56376SOL    HW271026   0.493  10.710   0.669
56377SOL     OW71027   2.310   5.864   4.295
56377SOL    HW171028   2.281   5.794   4.353
56377SOL    HW271029   2.274   5.944   4.335
56378SOL     OW71030   5.476  13.404  13.989
56378SOL    HW171031   5.430  13.487  13.980
56378SOL    HW271032   5.539  13.418  14.060
56379SOL     OW71033   6.493   1.329  11.594
56379SOL    HW171034   6.566   1.321  11.533
56379SOL    HW271035   6.421   1.282  11.553
56380SOL     OW71036  10.517   1.963   8.603
56380SOL    HW171037  10.447   1.923   8.653
56380SOL    HW271038  10.480   2.045   8.571
56381SOL     OW71039   5.966   1.604   1.669
56381SOL    HW171040   5.986   1.520   1.711
56381SOL    HW271041   6.044   1.622   1.616
56382SOL     OW71042   0.091  11.234  13.126
56382SOL    HW171043   0.079  11.179  13.049
56382SOL    HW271044   0.168  11.287  13.107
56383SOL     OW71045  10.422  12.007   1.318
56383SOL    HW171046  10.432  11.953   1.239
56383SOL    HW271047  10.376  11.950   1.380
56384SOL     OW71048   3.085   1.717   6.498
56384SOL    HW171049   3.132   1.722   6.582
56384SOL    HW271050   3.150   1.685   6.436
56385SOL     OW71051   4.474   8.502   2.055
56385SOL    HW171052   4.534   8.428   2.058
56385SOL    HW271053   4.499   8.550   1.975
56386SOL     OW71054  11.359  10.447   4.364
56386SOL    HW171055  11.287  10.508   4.379
56386SOL    HW271056  11.434  10.502   4.340
56387SOL     OW71057  11.614   5.699  12.637
56387SOL    HW171058  11.682   5.636  12.616
56387SOL    HW271059  11.636   5.731  12.724
56388SOL     OW71060   4.376   5.302   2.434
56388SOL    HW171061   4.302   5.300   2.495
56388SOL    HW271062   4.369   5.386   2.390
56389SOL     OW71063  10.997   7.903   9.649
56389SOL    HW171064  11.081   7.874   9.684
56389SOL    HW271065  10.934   7.836   9.678
56390SOL     OW71066  11.646   0.351   2.002
56390SOL    HW171067  11.680   0.364   1.914
56390SOL    HW271068  11.720   0.317   2.053
56391SOL     OW71069  12.732  12.834   7.961
56391SOL    HW171070  12.680  12.808   8.038
56391SOL    HW271071  12.815  12.865   7.997
56392SOL     OW71072   4.047   7.517   9.949
56392SOL    HW171073   4.086   7.433   9.974
56392SOL    HW271074   3.953   7.497   9.939
56393SOL     OW71075   0.008  11.579   7.174
56393SOL    HW171076   0.061  11.644   7.219
56393SOL    HW271077   0.068  11.536   7.113
56394SOL     OW71078   3.480   2.430   4.696
56394SOL    HW171079   3.524   2.509   4.728
56394SOL    HW271080   3.536   2.398   4.626
56395SOL     OW71081  11.275   6.511   2.701
56395SOL    HW171082  11.339   6.498   2.771
56395SOL    HW271083  11.243   6.423   2.681
56396SOL     OW71084   7.039  12.760   5.467
56396SOL    HW171085   6.963  12.714   5.504
56396SOL    HW271086   7.028  12.750   5.372
56397SOL     OW71087   4.811  11.314   9.718
56397SOL    HW171088   4.738  11.288   9.775
56397SOL    HW271089   4.888  11.279   9.762
56398SOL     OW71090   6.852   7.264   3.392
56398SOL    HW171091   6.880   7.354   3.378
56398SOL    HW271092   6.919   7.211   3.347
56399SOL     OW71093   7.127  10.104  10.209
56399SOL    HW171094   7.079  10.032  10.169
56399SOL    HW271095   7.218  10.090  10.183
56400SOL     OW71096  13.969   0.916  11.282
56400SOL    HW171097  14.043   0.856  11.275
56400SOL    HW271098  13.992   0.973  11.355
56401SOL     OW71099   7.300   6.891  11.828
56401SOL    HW171100   7.239   6.867  11.898
56401SOL    HW271101   7.380   6.916  11.873
56402SOL     OW71102   6.375   8.763   5.947
56402SOL    HW171103   6.453   8.801   5.988
56402SOL    HW271104   6.408   8.711   5.874
56403SOL     OW71105   6.995   4.979   4.692
56403SOL    HW171106   6.923   4.947   4.638
56403SOL    HW271107   7.054   5.023   4.631
56404SOL     OW71108   4.136   2.780   6.806
56404SOL    HW171109   4.146   2.713   6.874
56404SOL    HW271110   4.159   2.735   6.725
56405SOL     OW71111   9.275   0.095   1.150
56405SOL    HW171112   9.218   0.020   1.137
56405SOL    HW271113   9.228   0.168   1.110
56406SOL     OW71114  14.744  10.659   6.158
56406SOL    HW171115  14.719  10.582   6.106
56406SOL    HW271116  14.736  10.630   6.249
56407SOL     OW71117   3.494   8.358   3.868
56407SOL    HW171118   3.445   8.372   3.949
56407SOL    HW271119   3.444   8.291   3.821
56408SOL     OW71120   4.990   7.881   6.446
56408SOL    HW171121   4.898   7.874   6.470
56408SOL    HW271122   5.024   7.953   6.499
56409SOL     OW71123   4.658   2.632   3.730
56409SOL    HW171124   4.697   2.548   3.757
56409SOL    HW271125   4.603   2.609   3.655
56410SOL     OW71126   2.784   3.189   2.515
56410SOL    HW171127   2.737   3.161   2.437
56410SOL    HW271128   2.769   3.119   2.579
56411SOL     OW71129  10.516  13.623   7.032
56411SOL    HW171130  10.570  13.577   7.097
56411SOL    HW271131  10.478  13.553   6.979
56412SOL     OW71132   3.614   6.482   0.512
56412SOL    HW171133   3.531   6.475   0.466
56412SOL    HW271134   3.592   6.471   0.604
56413SOL     OW71135  12.433   2.212  13.667
56413SOL    HW171136  12.394   2.193  13.582
56413SOL    HW271137  12.520   2.172  13.663
56414SOL     OW71138  10.648   7.779   9.132
56414SOL    HW171139  10.662   7.742   9.045
56414SOL    HW271140  10.675   7.870   9.124
56415SOL     OW71141   5.208  12.947   9.165
56415SOL    HW171142   5.173  13.036   9.165
56415SOL    HW271143   5.219  12.926   9.073
56416SOL     OW71144   9.619  12.727   2.669
56416SOL    HW171145   9.647  12.749   2.580
56416SOL    HW271146   9.682  12.772   2.726
56417SOL     OW71147   5.401   9.578   1.590
56417SOL    HW171148   5.436   9.493   1.615
56417SOL    HW271149   5.308   9.562   1.574
56418SOL     OW71150  13.784  11.073  14.493
56418SOL    HW171151  13.745  10.987  14.473
56418SOL    HW271152  13.802  11.070  14.587
56419SOL     OW71153   6.229  12.739   2.517
56419SOL    HW171154   6.264  12.793   2.446
56419SOL    HW271155   6.303  12.727   2.576
56420SOL     OW71156   3.507   9.757  14.423
56420SOL    HW171157   3.474   9.673  14.454
56420SOL    HW271158   3.589   9.770  14.470
56421SOL     OW71159   3.360   1.486   5.509
56421SOL    HW171160   3.306   1.552   5.552
56421SOL    HW271161   3.302   1.410   5.499
56422SOL     OW71162  11.961  11.051   5.878
56422SOL    HW171163  11.895  10.983   5.892
56422SOL    HW271164  11.994  11.036   5.790
56423SOL     OW71165   5.600   8.032  11.104
56423SOL    HW171166   5.658   7.985  11.164
56423SOL    HW271167   5.564   7.965  11.046
56424SOL     OW71168  11.295   8.829   2.541
56424SOL    HW171169  11.390   8.840   2.537
56424SOL    HW271170  11.264   8.852   2.454
56425SOL     OW71171  14.798   5.086   9.438
56425SOL    HW171172  14.863   5.051   9.376
56425SOL    HW271173  14.750   5.151   9.387
56426SOL     OW71174  12.750   2.621  13.671
56426SOL    HW171175  12.763   2.612  13.765
56426SOL    HW271176  12.662   2.657  13.661
56427SOL     OW71177   9.145  11.648  12.324
56427SOL    HW171178   9.204  11.695  12.265
56427SOL    HW271179   9.092  11.594  12.266
56428SOL     OW71180  10.177   0.296   4.883
56428SOL    HW171181  10.125   0.375   4.894
56428SOL    HW271182  10.267   0.323   4.900
56429SOL     OW71183   2.713   7.757  12.099
56429SOL    HW171184   2.645   7.692  12.080
56429SOL    HW271185   2.676   7.840  12.068
56430SOL     OW71186  14.471  13.409   5.669
56430SOL    HW171187  14.512  13.470   5.730
56430SOL    HW271188  14.396  13.457   5.634
56431SOL     OW71189   3.033   4.229  10.759
56431SOL    HW171190   3.008   4.237  10.667
56431SOL    HW271191   2.965   4.176  10.799
56432SOL     OW71192  14.656  11.813   1.963
56432SOL    HW171193  14.625  11.843   2.048
56432SOL    HW271194  14.577  11.793   1.914
56433SOL     OW71195  13.817   7.360   4.928
56433SOL    HW171196  13.884   7.292   4.917
56433SOL    HW271197  13.864   7.442   4.914
56434SOL     OW71198   2.687   1.809   4.757
56434SOL    HW171199   2.719   1.792   4.845
56434SOL    HW271200   2.724   1.739   4.704
56435SOL     OW71201   2.611   7.073   8.903
56435SOL    HW171202   2.567   7.106   8.981
56435SOL    HW271203   2.657   7.148   8.867
56436SOL     OW71204   2.283   8.655   7.503
56436SOL    HW171205   2.214   8.603   7.462
56436SOL    HW271206   2.236   8.728   7.545
56437SOL     OW71207   4.712   6.021  10.334
56437SOL    HW171208   4.793   6.015  10.283
56437SOL    HW271209   4.740   6.060  10.417
56438SOL     OW71210   5.038  14.015   3.840
56438SOL    HW171211   5.045  13.991   3.748
56438SOL    HW271212   5.118  13.981   3.881
56439SOL     OW71213   2.878  11.794  10.141
56439SOL    HW171214   2.790  11.770  10.111
56439SOL    HW271215   2.897  11.877  10.098
56440SOL     OW71216   5.493  12.884  11.870
56440SOL    HW171217   5.549  12.820  11.913
56440SOL    HW271218   5.409  12.878  11.915
56441SOL     OW71219   1.954  11.896   1.929
56441SOL    HW171220   1.975  11.964   1.994
56441SOL    HW271221   2.027  11.898   1.868
56442SOL     OW71222   8.091   7.361  14.010
56442SOL    HW171223   8.003   7.390  14.034
56442SOL    HW271224   8.083   7.266  14.002
56443SOL     OW71225  10.865   0.841   8.945
56443SOL    HW171226  10.937   0.902   8.928
56443SOL    HW271227  10.830   0.869   9.030
56444SOL     OW71228   7.095  13.432   1.636
56444SOL    HW171229   7.130  13.419   1.724
56444SOL    HW271230   7.171  13.424   1.579
56445SOL     OW71231  10.612  10.567   6.171
56445SOL    HW171232  10.544  10.539   6.232
56445SOL    HW271233  10.672  10.493   6.166
56446SOL     OW71234   8.425  11.114  14.680
56446SOL    HW171235   8.413  11.058  14.756
56446SOL    HW271236   8.337  11.144  14.657
56447SOL     OW71237  10.805  10.130  13.628
56447SOL    HW171238  10.763  10.151  13.545
56447SOL    HW271239  10.807  10.214  13.676
56448SOL     OW71240  14.082   6.441  12.767
56448SOL    HW171241  14.176   6.427  12.772
56448SOL    HW271242  14.057   6.467  12.856
56449SOL     OW71243   0.692   5.354   6.236
56449SOL    HW171244   0.616   5.318   6.282
56449SOL    HW271245   0.663   5.363   6.145
56450SOL     OW71246   5.459  12.393   3.521
56450SOL    HW171247   5.514  12.316   3.506
56450SOL    HW271248   5.370  12.359   3.523
56451SOL     OW71249   7.004   8.902   7.895
56451SOL    HW171250   7.085   8.951   7.879
56451SOL    HW271251   7.000   8.838   7.824
56452SOL     OW71252   6.056  14.788  10.046
56452SOL    HW171253   5.984  14.728  10.023
56452SOL    HW271254   6.123  14.771   9.980
56453SOL     OW71255   9.259  11.772  10.831
56453SOL    HW171256   9.166  11.795  10.835
56453SOL    HW271257   9.262  11.681  10.861
56454SOL     OW71258  10.185   8.472   8.090
56454SOL    HW171259  10.173   8.460   8.184
56454SOL    HW271260  10.099   8.501   8.058
56455SOL     OW71261  11.434  11.620   4.811
56455SOL    HW171262  11.424  11.681   4.885
56455SOL    HW271263  11.498  11.663   4.754
56456SOL     OW71264  14.474  12.398   9.586
56456SOL    HW171265  14.461  12.304   9.568
56456SOL    HW271266  14.388  12.429   9.615
56457SOL     OW71267   4.713   7.642   0.601
56457SOL    HW171268   4.625   7.678   0.601
56457SOL    HW271269   4.733   7.625   0.509
56458SOL     OW71270  10.954   5.423  13.749
56458SOL    HW171271  10.916   5.454  13.831
56458SOL    HW271272  10.880   5.420  13.688
56459SOL     OW71273   5.906  11.279  12.257
56459SOL    HW171274   5.904  11.340  12.184
56459SOL    HW271275   5.931  11.195  12.218
56460SOL     OW71276  10.463   8.890   3.844
56460SOL    HW171277  10.369   8.898   3.860
56460SOL    HW271278  10.480   8.796   3.841
56461SOL     OW71279  11.660   2.702  10.373
56461SOL    HW171280  11.637   2.778  10.426
56461SOL    HW271281  11.714   2.737  10.302
56462SOL     OW71282   7.892   4.638   9.077
56462SOL    HW171283   7.858   4.626   9.166
56462SOL    HW271284   7.901   4.733   9.067
56463SOL     OW71285   8.819  10.727   2.488
56463SOL    HW171286   8.790  10.818   2.476
56463SOL    HW271287   8.805  10.710   2.581
56464SOL     OW71288   8.561   3.687   1.517
56464SOL    HW171289   8.604   3.771   1.503
56464SOL    HW271290   8.467   3.707   1.509
56465SOL     OW71291   5.529   2.426   6.058
56465SOL    HW171292   5.621   2.416   6.080
56465SOL    HW271293   5.518   2.376   5.977
56466SOL     OW71294   9.351   2.845   1.450
56466SOL    HW171295   9.370   2.786   1.377
56466SOL    HW271296   9.279   2.900   1.419
56467SOL     OW71297   8.991  12.057  12.335
56467SOL    HW171298   9.036  12.140  12.347
56467SOL    HW271299   8.954  12.063  12.247
56468SOL     OW71300   8.717  10.391  13.552
56468SOL    HW171301   8.771  10.379  13.630
56468SOL    HW271302   8.774  10.365  13.479
56469SOL     OW71303  14.401   5.521  11.641
56469SOL    HW171304  14.348   5.588  11.598
56469SOL    HW271305  14.490   5.556  11.639
56470SOL     OW71306  10.375   0.730  10.191
56470SOL    HW171307  10.432   0.690  10.256
56470SOL    HW271308  10.393   0.681  10.110
56471SOL     OW71309   8.674  14.099   9.928
56471SOL    HW171310   8.733  14.137   9.994
56471SOL    HW271311   8.652  14.173   9.871
56472SOL     OW71312   9.336   6.906   0.298
56472SOL    HW171313   9.242   6.888   0.304
56472SOL    HW271314   9.363   6.864   0.217
56473SOL     OW71315  14.277  12.059   3.397
56473SOL    HW171316  14.284  12.146   3.356
56473SOL    HW271317  14.219  12.073   3.472
56474SOL     OW71318   9.377  14.005   7.331
56474SOL    HW171319   9.353  14.021   7.423
56474SOL    HW271320   9.469  13.979   7.334
56475SOL     OW71321   5.113   7.868   8.757
56475SOL    HW171322   5.096   7.802   8.690
56475SOL    HW271323   5.163   7.821   8.825
56476SOL     OW71324   2.190   1.089  14.150
56476SOL    HW171325   2.183   1.154  14.220
56476SOL    HW271326   2.281   1.057  14.156
56477SOL     OW71327  12.863   9.793   9.092
56477SOL    HW171328  12.786   9.822   9.141
56477SOL    HW271329  12.922   9.868   9.094
56478SOL     OW71330   2.436   1.189   2.658
56478SOL    HW171331   2.492   1.234   2.721
56478SOL    HW271332   2.478   1.105   2.644
56479SOL     OW71333   9.267  10.009   9.766
56479SOL    HW171334   9.311   9.963   9.837
56479SOL    HW271335   9.182  10.035   9.803
56480SOL     OW71336  13.526  14.762   2.828
56480SOL    HW171337  13.497  14.688   2.883
56480SOL    HW271338  13.568  14.822   2.889
56481SOL     OW71339   8.894   1.857   1.496
56481SOL    HW171340   8.890   1.838   1.590
56481SOL    HW271341   8.873   1.950   1.489
56482SOL     OW71342   1.515   6.921   0.032
56482SOL    HW171343   1.592   6.865   0.023
56482SOL    HW271344   1.468   6.912  14.829
56483SOL     OW71345   2.885   7.605   7.881
56483SOL    HW171346   2.855   7.521   7.916
56483SOL    HW271347   2.959   7.629   7.938
56484SOL     OW71348   5.307   5.872  13.502
56484SOL    HW171349   5.277   5.954  13.464
56484SOL    HW271350   5.403   5.875  13.493
56485SOL     OW71351   8.990  13.415   2.429
56485SOL    HW171352   8.939  13.348   2.475
56485SOL    HW271353   8.935  13.443   2.356
56486SOL     OW71354   3.596   2.224  13.619
56486SOL    HW171355   3.520   2.180  13.582
56486SOL    HW271356   3.669   2.162  13.607
56487SOL     OW71357  13.676   1.432  12.866
56487SOL    HW171358  13.588   1.459  12.836
56487SOL    HW271359  13.723   1.410  12.785
56488SOL     OW71360   1.205   0.845  13.409
56488SOL    HW171361   1.156   0.853  13.490
56488SOL    HW271362   1.141   0.817  13.344
56489SOL     OW71363  10.067   0.430   5.598
56489SOL    HW171364  10.086   0.338   5.615
56489SOL    HW271365  10.045   0.467   5.685
56490SOL     OW71366  13.974   5.970   3.252
56490SOL    HW171367  13.969   5.964   3.157
56490SOL    HW271368  14.049   5.915   3.276
56491SOL     OW71369  11.618   1.445   5.467
56491SOL    HW171370  11.551   1.469   5.531
56491SOL    HW271371  11.611   1.350   5.459
56492SOL     OW71372  10.069   9.248   9.644
56492SOL    HW171373  10.022   9.171   9.611
56492SOL    HW271374  10.161   9.221   9.644
56493SOL     OW71375   1.267   3.722  10.913
56493SOL    HW171376   1.208   3.789  10.881
56493SOL    HW271377   1.283   3.745  11.005
56494SOL     OW71378   0.745   5.842   5.993
56494SOL    HW171379   0.761   5.851   6.087
56494SOL    HW271380   0.820   5.886   5.952
56495SOL     OW71381  14.559   4.232   5.486
56495SOL    HW171382  14.633   4.287   5.461
56495SOL    HW271383  14.588   4.143   5.469
56496SOL     OW71384  11.530   4.079   3.249
56496SOL    HW171385  11.510   4.044   3.336
56496SOL    HW271386  11.588   4.153   3.265
56497SOL     OW71387  13.426   7.249  10.453
56497SOL    HW171388  13.508   7.221  10.492
56497SOL    HW271389  13.360   7.228  10.518
56498SOL     OW71390   2.807   6.385   3.119
56498SOL    HW171391   2.875   6.384   3.186
56498SOL    HW271392   2.842   6.443   3.051
56499SOL     OW71393   2.528   1.858  12.294
56499SOL    HW171394   2.530   1.873  12.388
56499SOL    HW271395   2.561   1.768  12.283
56500SOL     OW71396   1.539   0.343  11.879
56500SOL    HW171397   1.634   0.344  11.891
56500SOL    HW271398   1.521   0.260  11.835
56501SOL     OW71399   2.285   9.377   1.664
56501SOL    HW171400   2.299   9.315   1.592
56501SOL    HW271401   2.372   9.414   1.681
56502SOL     OW71402   4.795   9.516   7.102
56502SOL    HW171403   4.855   9.501   7.175
56502SOL    HW271404   4.718   9.464   7.124
56503SOL     OW71405   5.708   3.476  10.795
56503SOL    HW171406   5.745   3.480  10.884
56503SOL    HW271407   5.672   3.388  10.789
56504SOL     OW71408   3.855   1.122  10.842
56504SOL    HW171409   3.942   1.161  10.832
56504SOL    HW271410   3.821   1.160  10.923
56505SOL     OW71411   2.583   2.850  13.171
56505SOL    HW171412   2.640   2.811  13.237
56505SOL    HW271413   2.640   2.865  13.095
56506SOL     OW71414  13.922   3.508  13.576
56506SOL    HW171415  13.904   3.417  13.601
56506SOL    HW271416  14.015   3.509  13.557
56507SOL     OW71417   0.778   5.005   4.849
56507SOL    HW171418   0.736   5.003   4.764
56507SOL    HW271419   0.869   4.981   4.832
56508SOL     OW71420   0.688   7.820  10.609
56508SOL    HW171421   0.684   7.898  10.664
56508SOL    HW271422   0.705   7.748  10.670
56509SOL     OW71423  12.522  10.804   0.300
56509SOL    HW171424  12.570  10.725   0.324
56509SOL    HW271425  12.430  10.779   0.307
56510SOL     OW71426   9.329   6.520   9.991
56510SOL    HW171427   9.297   6.600  10.031
56510SOL    HW271428   9.338   6.458  10.064
56511SOL     OW71429   5.138   2.672  10.114
56511SOL    HW171430   5.174   2.673  10.203
56511SOL    HW271431   5.152   2.582  10.084
56512SOL     OW71432   4.430   7.823   3.023
56512SOL    HW171433   4.415   7.779   3.106
56512SOL    HW271434   4.447   7.753   2.961
56513SOL     OW71435   5.585   5.731  11.013
56513SOL    HW171436   5.504   5.698  10.975
56513SOL    HW271437   5.643   5.655  11.017
56514SOL     OW71438   6.320  11.763  13.654
56514SOL    HW171439   6.339  11.768  13.561
56514SOL    HW271440   6.324  11.669  13.674
56515SOL     OW71441   8.854   1.642   9.489
56515SOL    HW171442   8.833   1.685   9.572
56515SOL    HW271443   8.901   1.562   9.515
56516SOL     OW71444   2.118  10.797  12.192
56516SOL    HW171445   2.152  10.748  12.268
56516SOL    HW271446   2.027  10.814  12.214
56517SOL     OW71447   9.715   6.283   4.220
56517SOL    HW171448   9.624   6.306   4.204
56517SOL    HW271449   9.713   6.228   4.298
56518SOL     OW71450  12.198  10.668   9.668
56518SOL    HW171451  12.171  10.717   9.746
56518SOL    HW271452  12.237  10.734   9.610
56519SOL     OW71453   1.766  12.009  12.567
56519SOL    HW171454   1.858  11.983  12.563
56519SOL    HW271455   1.718  11.928  12.584
56520SOL     OW71456  13.256  12.793  14.804
56520SOL    HW171457  13.257  12.853  14.878
56520SOL    HW271458  13.164  12.789  14.778
56521SOL     OW71459   1.812   4.872  11.425
56521SOL    HW171460   1.849   4.946  11.474
56521SOL    HW271461   1.767   4.912  11.351
56522SOL     OW71462   1.294   1.786   4.918
56522SOL    HW171463   1.269   1.694   4.922
56522SOL    HW271464   1.370   1.787   4.860
56523SOL     OW71465   9.472   1.257   9.823
56523SOL    HW171466   9.521   1.273   9.903
56523SOL    HW271467   9.452   1.164   9.825
56524SOL     OW71468   8.149  14.871   0.211
56524SOL    HW171469   8.234  14.861   0.168
56524SOL    HW271470   8.091   0.023   0.141
56525SOL     OW71471   5.243   6.448   6.872
56525SOL    HW171472   5.271   6.431   6.782
56525SOL    HW271473   5.264   6.368   6.920
56526SOL     OW71474   8.030   3.479  14.076
56526SOL    HW171475   8.027   3.404  14.136
56526SOL    HW271476   8.044   3.555  14.132
56527SOL     OW71477   9.644   7.047   1.563
56527SOL    HW171478   9.595   6.992   1.503
56527SOL    HW271479   9.724   6.998   1.581
56528SOL     OW71480   0.572  14.176   2.651
56528SOL    HW171481   0.487  14.214   2.673
56528SOL    HW271482   0.622  14.179   2.733
56529SOL     OW71483  12.842  14.110   0.643
56529SOL    HW171484  12.794  14.190   0.662
56529SOL    HW271485  12.901  14.134   0.571
56530SOL     OW71486  12.362   1.439  14.269
56530SOL    HW171487  12.302   1.494  14.218
56530SOL    HW271488  12.320   1.431  14.354
56531SOL     OW71489   4.363   0.630   1.806
56531SOL    HW171490   4.335   0.678   1.883
56531SOL    HW271491   4.338   0.539   1.824
56532SOL     OW71492  12.024  14.290   1.624
56532SOL    HW171493  12.065  14.217   1.672
56532SOL    HW271494  12.001  14.353   1.692
56533SOL     OW71495   4.988   8.055   2.676
56533SOL    HW171496   4.910   8.002   2.656
56533SOL    HW271497   5.052   8.028   2.610
56534SOL     OW71498   9.941   1.878   0.064
56534SOL    HW171499  10.011   1.826   0.024
56534SOL    HW271500   9.938   1.849   0.155
56535SOL     OW71501  14.622  14.457  11.951
56535SOL    HW171502  14.668  14.392  12.004
56535SOL    HW271503  14.571  14.405  11.889
56536SOL     OW71504   4.916   4.218   1.844
56536SOL    HW171505   5.006   4.252   1.851
56536SOL    HW271506   4.860   4.293   1.865
56537SOL     OW71507   3.364   0.562   2.332
56537SOL    HW171508   3.325   0.612   2.404
56537SOL    HW271509   3.409   0.628   2.279
56538SOL     OW71510   5.004   0.820   2.079
56538SOL    HW171511   4.950   0.796   2.154
56538SOL    HW271512   4.942   0.840   2.009
56539SOL     OW71513   4.719  12.383  12.992
56539SOL    HW171514   4.784  12.330  12.947
56539SOL    HW271515   4.641  12.379  12.936
56540SOL     OW71516   6.025   7.365   0.526
56540SOL    HW171517   5.941   7.383   0.486
56540SOL    HW271518   6.065   7.297   0.471
56541SOL     OW71519   3.050  13.059   9.463
56541SOL    HW171520   3.113  13.116   9.507
56541SOL    HW271521   3.100  12.982   9.439
56542SOL     OW71522  11.387   6.093  13.277
56542SOL    HW171523  11.400   6.113  13.184
56542SOL    HW271524  11.451   6.147  13.322
56543SOL     OW71525   0.808  14.407   4.980
56543SOL    HW171526   0.729  14.448   5.016
56543SOL    HW271527   0.839  14.349   5.050
56544SOL     OW71528   0.663  12.632   7.684
56544SOL    HW171529   0.629  12.543   7.685
56544SOL    HW271530   0.722  12.636   7.759
56545SOL     OW71531   2.212  13.212   7.818
56545SOL    HW171532   2.165  13.155   7.878
56545SOL    HW271533   2.259  13.274   7.874
56546SOL     OW71534   7.702   0.494  10.503
56546SOL    HW171535   7.707   0.400  10.517
56546SOL    HW271536   7.648   0.504  10.425
56547SOL     OW71537  10.968   0.656  10.699
56547SOL    HW171538  10.991   0.564  10.704
56547SOL    HW271539  10.921   0.674  10.781
56548SOL     OW71540  12.888  11.746  14.651
56548SOL    HW171541  12.966  11.738  14.705
56548SOL    HW271542  12.857  11.835  14.668
56549SOL     OW71543   1.533   6.675   8.522
56549SOL    HW171544   1.583   6.726   8.458
56549SOL    HW271545   1.582   6.593   8.530
56550SOL     OW71546  10.226   7.368   3.076
56550SOL    HW171547  10.274   7.450   3.088
56550SOL    HW271548  10.288   7.300   3.100
56551SOL     OW71549  11.933   2.753   4.916
56551SOL    HW171550  12.015   2.776   4.960
56551SOL    HW271551  11.956   2.678   4.861
56552SOL     OW71552   8.519   7.179   8.870
56552SOL    HW171553   8.548   7.155   8.782
56552SOL    HW271554   8.578   7.250   8.896
56553SOL     OW71555  12.226   2.811  14.572
56553SOL    HW171556  12.160   2.861  14.523
56553SOL    HW271557  12.300   2.871  14.579
56554SOL     OW71558  12.389  11.027  10.858
56554SOL    HW171559  12.402  11.095  10.793
56554SOL    HW271560  12.294  11.018  10.865
56555SOL     OW71561   4.821  12.642   5.767
56555SOL    HW171562   4.776  12.664   5.849
56555SOL    HW271563   4.755  12.597   5.715
56556SOL     OW71564   7.758  12.168  14.199
56556SOL    HW171565   7.851  12.146  14.193
56556SOL    HW271566   7.756  12.256  14.237
56557SOL     OW71567   9.602  10.850   5.932
56557SOL    HW171568   9.623  10.882   5.844
56557SOL    HW271569   9.512  10.817   5.924
56558SOL     OW71570  13.228   0.518   1.095
56558SOL    HW171571  13.184   0.498   1.178
56558SOL    HW271572  13.291   0.587   1.117
56559SOL     OW71573  12.274   9.102   6.139
56559SOL    HW171574  12.360   9.069   6.113
56559SOL    HW271575  12.227   9.113   6.056
56560SOL     OW71576   2.254   1.093  12.292
56560SOL    HW171577   2.174   1.064  12.336
56560SOL    HW271578   2.261   1.035  12.216
56561SOL     OW71579   6.372   1.447  11.229
56561SOL    HW171580   6.462   1.476  11.213
56561SOL    HW271581   6.381   1.357  11.259
56562SOL     OW71582  10.956   7.191   8.883
56562SOL    HW171583  10.862   7.204   8.871
56562SOL    HW271584  10.975   7.109   8.839
56563SOL     OW71585  10.598   4.079   6.358
56563SOL    HW171586  10.560   4.147   6.413
56563SOL    HW271587  10.683   4.115   6.330
56564SOL     OW71588  14.835  10.346   4.467
56564SOL    HW171589  14.855  10.304   4.384
56564SOL    HW271590  14.864  10.436   4.457
56565SOL     OW71591  13.444  12.822  14.611
56565SOL    HW171592  13.393  12.798  14.534
56565SOL    HW271593  13.380  12.829  14.681
56566SOL     OW71594  12.920   9.263  12.670
56566SOL    HW171595  12.966   9.294  12.748
56566SOL    HW271596  12.990   9.244  12.608
56567SOL     OW71597   3.194   3.916  11.438
56567SOL    HW171598   3.256   3.949  11.503
56567SOL    HW271599   3.191   3.822  11.454
56568SOL     OW71600  10.909   4.087  10.984
56568SOL    HW171601  10.934   4.169  11.026
56568SOL    HW271602  10.951   4.019  11.036
56569SOL     OW71603  14.513   5.007   0.343
56569SOL    HW171604  14.565   4.929   0.327
56569SOL    HW271605  14.457   4.984   0.417
56570SOL     OW71606   2.070   2.361   6.646
56570SOL    HW171607   2.156   2.336   6.679
56570SOL    HW271608   2.073   2.342   6.552
56571SOL     OW71609  11.139  14.640   6.850
56571SOL    HW171610  11.069  14.603   6.903
56571SOL    HW271611  11.171  14.566   6.798
56572SOL     OW71612   1.470  11.079  14.064
56572SOL    HW171613   1.430  11.040  14.142
56572SOL    HW271614   1.402  11.071  13.996
56573SOL     OW71615   8.827   5.710   6.793
56573SOL    HW171616   8.858   5.799   6.807
56573SOL    HW271617   8.757   5.719   6.727
56574SOL     OW71618   4.246   2.023  11.207
56574SOL    HW171619   4.252   2.048  11.299
56574SOL    HW271620   4.249   2.106  11.160
56575SOL     OW71621  12.071  14.362  13.454
56575SOL    HW171622  12.059  14.420  13.529
56575SOL    HW271623  12.124  14.290  13.488
56576SOL     OW71624   4.328   8.165   3.895
56576SOL    HW171625   4.295   8.080   3.866
56576SOL    HW271626   4.395   8.188   3.831
56577SOL     OW71627   2.419   5.152   7.376
56577SOL    HW171628   2.325   5.133   7.377
56577SOL    HW271629   2.448   5.133   7.466
56578SOL     OW71630   2.369   4.297   8.967
56578SOL    HW171631   2.437   4.235   8.940
56578SOL    HW271632   2.328   4.324   8.885
56579SOL     OW71633   1.549   0.816   8.174
56579SOL    HW171634   1.525   0.743   8.231
56579SOL    HW271635   1.491   0.809   8.099
56580SOL     OW71636   9.480  14.330  10.852
56580SOL    HW171637   9.533  14.264  10.896
56580SOL    HW271638   9.402  14.339  10.907
56581SOL     OW71639  11.634   3.146   3.833
56581SOL    HW171640  11.594   3.154   3.747
56581SOL    HW271641  11.701   3.079   3.823
56582SOL     OW71642   7.929   2.364  12.112
56582SOL    HW171643   7.895   2.453  12.116
56582SOL    HW271644   7.882   2.323  12.039
56583SOL     OW71645   0.325  11.604  10.342
56583SOL    HW171646   0.365  11.532  10.392
56583SOL    HW271647   0.232  11.597  10.362
56584SOL     OW71648   2.433   1.228   9.245
56584SOL    HW171649   2.349   1.273   9.248
56584SOL    HW271650   2.428   1.170   9.169
56585SOL     OW71651   3.197   7.176  11.152
56585SOL    HW171652   3.244   7.225  11.220
56585SOL    HW271653   3.109   7.163  11.188
56586SOL     OW71654   2.171  14.767   1.303
56586SOL    HW171655   2.174  14.678   1.336
56586SOL    HW271656   2.248  14.810   1.341
56587SOL     OW71657   6.516   9.445   7.451
56587SOL    HW171658   6.574   9.427   7.377
56587SOL    HW271659   6.432   9.466   7.411
56588SOL     OW71660   1.499  13.983   5.796
56588SOL    HW171661   1.555  13.998   5.720
56588SOL    HW271662   1.558  13.987   5.871
56589SOL     OW71663   7.487   2.046   9.328
56589SOL    HW171664   7.421   2.060   9.260
56589SOL    HW271665   7.477   2.120   9.387
56590SOL     OW71666   1.644  10.126   8.844
56590SOL    HW171667   1.617  10.091   8.760
56590SOL    HW271668   1.723  10.176   8.824
56591SOL     OW71669   0.703  13.133   5.656
56591SOL    HW171670   0.705  13.099   5.566
56591SOL    HW271671   0.792  13.118   5.689
56592SOL     OW71672  11.847   2.725  10.134
56592SOL    HW171673  11.893   2.793  10.084
56592SOL    HW271674  11.833   2.654  10.071
56593SOL     OW71675  12.666   1.669  14.066
56593SOL    HW171676  12.639   1.666  14.158
56593SOL    HW271677  12.599   1.619  14.019
56594SOL     OW71678   8.314   4.267   5.608
56594SOL    HW171679   8.410   4.263   5.613
56594SOL    HW271680   8.296   4.358   5.582
56595SOL     OW71681  11.872  10.204   2.107
56595SOL    HW171682  11.906  10.146   2.175
56595SOL    HW271683  11.932  10.193   2.033
56596SOL     OW71684   9.243   5.302   7.090
56596SOL    HW171685   9.208   5.319   7.178
56596SOL    HW271686   9.273   5.211   7.093
56597SOL     OW71687   6.495   4.611   6.790
56597SOL    HW171688   6.467   4.636   6.702
56597SOL    HW271689   6.426   4.554   6.822
56598SOL     OW71690   3.634   7.258  11.803
56598SOL    HW171691   3.689   7.204  11.745
56598SOL    HW271692   3.696   7.308  11.855
56599SOL     OW71693  11.870   5.393   8.937
56599SOL    HW171694  11.858   5.381   9.031
56599SOL    HW271695  11.838   5.482   8.919
56600SOL     OW71696   9.544  11.362   3.310
56600SOL    HW171697   9.557  11.280   3.358
56600SOL    HW271698   9.452  11.359   3.283
56601SOL     OW71699  13.558   4.441   0.670
56601SOL    HW171700  13.589   4.532   0.672
56601SOL    HW271701  13.608   4.401   0.599
56602SOL     OW71702   7.997  12.481   0.942
56602SOL    HW171703   8.029  12.560   0.898
56602SOL    HW271704   7.904  12.477   0.918
56603SOL     OW71705  11.180  13.075   7.475
56603SOL    HW171706  11.117  13.118   7.533
56603SOL    HW271707  11.260  13.068   7.526
56604SOL     OW71708   8.904   7.075   0.431
56604SOL    HW171709   8.828   7.103   0.380
56604SOL    HW271710   8.940   7.001   0.382
56605SOL     OW71711   7.784   9.629   7.291
56605SOL    HW171712   7.753   9.717   7.270
56605SOL    HW271713   7.723   9.570   7.246
56606SOL     OW71714  13.585   5.021  12.519
56606SOL    HW171715  13.504   4.994  12.562
56606SOL    HW271716  13.597   5.112  12.545
56607SOL     OW71717   7.465  12.880  13.594
56607SOL    HW171718   7.452  12.972  13.574
56607SOL    HW271719   7.510  12.845  13.516
56608SOL     OW71720  10.008   1.748   3.390
56608SOL    HW171721   9.956   1.677   3.428
56608SOL    HW271722  10.076   1.704   3.339
56609SOL     OW71723   8.357  13.741  10.056
56609SOL    HW171724   8.310  13.819  10.027
56609SOL    HW271725   8.445  13.774  10.078
56610SOL     OW71726  13.987   3.946   4.684
56610SOL    HW171727  13.988   3.851   4.696
56610SOL    HW271728  13.896   3.970   4.702
56611SOL     OW71729   2.902   4.093   6.029
56611SOL    HW171730   2.935   4.033   5.962
56611SOL    HW271731   2.865   4.166   5.979
56612SOL     OW71732   5.375   7.523   8.690
56612SOL    HW171733   5.333   7.537   8.606
56612SOL    HW271734   5.409   7.433   8.686
56613SOL     OW71735   9.539   2.548   6.662
56613SOL    HW171736   9.589   2.620   6.702
56613SOL    HW271737   9.600   2.475   6.660
56614SOL     OW71738  14.032  14.365  12.856
56614SOL    HW171739  13.955  14.328  12.812
56614SOL    HW271740  13.995  14.424  12.923
56615SOL     OW71741   1.032  12.562   0.496
56615SOL    HW171742   1.095  12.502   0.536
56615SOL    HW271743   0.969  12.504   0.451
56616SOL     OW71744   0.432  10.198  11.228
56616SOL    HW171745   0.493  10.264  11.260
56616SOL    HW271746   0.355  10.247  11.201
56617SOL     OW71747  11.124  12.529   3.550
56617SOL    HW171748  11.193  12.482   3.502
56617SOL    HW271749  11.101  12.471   3.622
56618SOL     OW71750   0.364   1.830   1.263
56618SOL    HW171751   0.419   1.757   1.236
56618SOL    HW271752   0.383   1.843   1.355
56619SOL     OW71753   0.328   0.114  12.609
56619SOL    HW171754   0.417   0.110  12.646
56619SOL    HW271755   0.326   0.042  12.546
56620SOL     OW71756  12.471   7.938   6.920
56620SOL    HW171757  12.478   8.014   6.978
56620SOL    HW271758  12.384   7.904   6.936
56621SOL     OW71759  14.813   9.531  13.322
56621SOL    HW171760  14.748   9.481  13.272
56621SOL    HW271761  14.760   9.589  13.377
56622SOL     OW71762   6.620  12.069  14.827
56622SOL    HW171763   6.656  12.026   0.026
56622SOL    HW271764   6.692  12.123  14.794
56623SOL     OW71765  10.125   8.013   1.844
56623SOL    HW171766  10.044   7.995   1.796
56623SOL    HW271767  10.100   8.011   1.936
56624SOL     OW71768  12.669   4.391  13.050
56624SOL    HW171769  12.674   4.389  12.955
56624SOL    HW271770  12.633   4.306  13.074
56625SOL     OW71771   6.088  14.081  14.206
56625SOL    HW171772   6.102  14.017  14.136
56625SOL    HW271773   6.164  14.071  14.263
56626SOL     OW71774  11.754   9.002  12.216
56626SOL    HW171775  11.661   8.994  12.236
56626SOL    HW271776  11.797   9.004  12.301
56627SOL     OW71777   5.893   5.757   0.648
56627SOL    HW171778   5.919   5.846   0.624
56627SOL    HW271779   5.876   5.762   0.742
56628SOL     OW71780   7.327   8.296  12.418
56628SOL    HW171781   7.397   8.313  12.355
56628SOL    HW271782   7.370   8.255  12.493
56629SOL     OW71783   8.418  10.157  14.039
56629SOL    HW171784   8.420  10.174  13.945
56629SOL    HW271785   8.448  10.067  14.048
56630SOL     OW71786   8.104   9.432  12.458
56630SOL    HW171787   8.154   9.460  12.381
56630SOL    HW271788   8.064   9.512  12.491
56631SOL     OW71789   8.592  12.028  12.810
56631SOL    HW171790   8.643  12.072  12.742
56631SOL    HW271791   8.512  12.000  12.765
56632SOL     OW71792   9.308   8.955  13.497
56632SOL    HW171793   9.281   9.000  13.578
56632SOL    HW271794   9.305   9.023  13.430
56633SOL     OW71795  13.962   1.002   0.880
56633SOL    HW171796  13.951   1.056   0.958
56633SOL    HW271797  13.911   1.047   0.812
56634SOL     OW71798   4.457  11.675   8.610
56634SOL    HW171799   4.379  11.622   8.598
56634SOL    HW271800   4.449  11.744   8.543
56635SOL     OW71801   6.869  13.369   6.399
56635SOL    HW171802   6.949  13.317   6.408
56635SOL    HW271803   6.819  13.351   6.479
56636SOL     OW71804   6.202   0.382   9.210
56636SOL    HW171805   6.225   0.422   9.126
56636SOL    HW271806   6.263   0.422   9.273
56637SOL     OW71807   6.902  13.458  12.659
56637SOL    HW171808   6.913  13.506  12.577
56637SOL    HW271809   6.981  13.404  12.665
56638SOL     OW71810  12.171  13.943   8.383
56638SOL    HW171811  12.154  13.872   8.445
56638SOL    HW271812  12.137  13.911   8.299
56639SOL     OW71813   3.587   8.254   4.999
56639SOL    HW171814   3.678   8.231   5.019
56639SOL    HW271815   3.544   8.259   5.084
56640SOL     OW71816   2.812   5.748   3.366
56640SOL    HW171817   2.793   5.775   3.457
56640SOL    HW271818   2.836   5.829   3.322
56641SOL     OW71819   7.387  13.460   9.007
56641SOL    HW171820   7.426  13.379   9.039
56641SOL    HW271821   7.427  13.529   9.060
56642SOL     OW71822   7.018  13.102   9.539
56642SOL    HW171823   6.934  13.148   9.543
56642SOL    HW271824   7.014  13.052   9.457
56643SOL     OW71825   6.979   2.416   5.117
56643SOL    HW171826   7.008   2.326   5.126
56643SOL    HW271827   7.022   2.463   5.189
56644SOL     OW71828   4.408   2.312   8.831
56644SOL    HW171829   4.393   2.334   8.923
56644SOL    HW271830   4.396   2.217   8.827
56645SOL     OW71831  10.381   8.884   6.164
56645SOL    HW171832  10.409   8.811   6.220
56645SOL    HW271833  10.431   8.959   6.197
56646SOL     OW71834  12.765   4.097   5.440
56646SOL    HW171835  12.715   4.054   5.509
56646SOL    HW271836  12.852   4.059   5.446
56647SOL     OW71837  10.966   8.206   4.757
56647SOL    HW171838  10.965   8.120   4.714
56647SOL    HW271839  10.874   8.223   4.778
56648SOL     OW71840   1.298  10.529  13.770
56648SOL    HW171841   1.325  10.438  13.756
56648SOL    HW271842   1.372  10.581  13.741
56649SOL     OW71843   9.220  13.216   0.556
56649SOL    HW171844   9.299  13.270   0.556
56649SOL    HW271845   9.157  13.267   0.608
56650SOL     OW71846   8.112   5.506   5.170
56650SOL    HW171847   8.042   5.518   5.106
56650SOL    HW271848   8.103   5.580   5.229
56651SOL     OW71849   1.209   2.735   2.907
56651SOL    HW171850   1.170   2.725   2.820
56651SOL    HW271851   1.261   2.815   2.900
56652SOL     OW71852   7.558  10.033  12.199
56652SOL    HW171853   7.593  10.117  12.170
56652SOL    HW271854   7.499  10.005  12.129
56653SOL     OW71855   5.022   9.276  14.324
56653SOL    HW171856   5.101   9.243  14.368
56653SOL    HW271857   4.979   9.198  14.291
56654SOL     OW71858   4.096   3.945   6.366
56654SOL    HW171859   4.090   3.925   6.272
56654SOL    HW271860   4.148   3.874   6.402
56655SOL     OW71861   8.705   1.425   4.948
56655SOL    HW171862   8.716   1.453   4.857
56655SOL    HW271863   8.794   1.421   4.983
56656SOL     OW71864   9.704  14.859   3.070
56656SOL    HW171865   9.669   0.052   3.121
56656SOL    HW271866   9.743  14.801   3.136
56657SOL     OW71867   5.718   7.708   9.575
56657SOL    HW171868   5.752   7.714   9.664
56657SOL    HW271869   5.638   7.761   9.577
56658SOL     OW71870  13.325  13.900  13.043
56658SOL    HW171871  13.260  13.935  13.104
56658SOL    HW271872  13.319  13.955  12.966
56659SOL     OW71873   2.189  12.857   9.880
56659SOL    HW171874   2.134  12.784   9.908
56659SOL    HW271875   2.158  12.931   9.933
56660SOL     OW71876   6.865   6.757   1.625
56660SOL    HW171877   6.826   6.845   1.630
56660SOL    HW271878   6.832   6.720   1.543
56661SOL     OW71879   5.826   5.579   5.799
56661SOL    HW171880   5.856   5.586   5.709
56661SOL    HW271881   5.884   5.638   5.848
56662SOL     OW71882   7.413   9.857  12.842
56662SOL    HW171883   7.354   9.918  12.886
56662SOL    HW271884   7.474   9.913  12.793
56663SOL     OW71885   5.696   3.458   0.762
56663SOL    HW171886   5.692   3.528   0.697
56663SOL    HW271887   5.763   3.398   0.728
56664SOL     OW71888   7.149   8.138   1.346
56664SOL    HW171889   7.228   8.087   1.328
56664SOL    HW271890   7.179   8.208   1.404
56665SOL     OW71891  13.257   9.658   1.859
56665SOL    HW171892  13.333   9.599   1.864
56665SOL    HW271893  13.197   9.627   1.926
56666SOL     OW71894  12.574  13.504   3.216
56666SOL    HW171895  12.638  13.569   3.248
56666SOL    HW271896  12.503  13.557   3.180
56667SOL     OW71897  13.890  12.382   7.331
56667SOL    HW171898  13.829  12.389   7.257
56667SOL    HW271899  13.962  12.439   7.307
56668SOL     OW71900   8.645  12.440   8.368
56668SOL    HW171901   8.582  12.506   8.342
56668SOL    HW271902   8.651  12.449   8.463
56669SOL     OW71903   1.784   6.152   4.793
56669SOL    HW171904   1.694   6.186   4.791
56669SOL    HW271905   1.782   6.084   4.861
56670SOL     OW71906   8.820   9.774  13.543
56670SOL    HW171907   8.800   9.684  13.520
56670SOL    HW271908   8.847   9.771  13.635
56671SOL     OW71909  14.141   3.341   4.870
56671SOL    HW171910  14.134   3.369   4.779
56671SOL    HW271911  14.176   3.252   4.865
56672SOL     OW71912  13.041  10.656   8.945
56672SOL    HW171913  13.003  10.662   9.033
56672SOL    HW271914  13.135  10.669   8.959
56673SOL     OW71915   3.444   4.302  10.499
56673SOL    HW171916   3.416   4.358  10.572
56673SOL    HW271917   3.539   4.292  10.510
56674SOL     OW71918   8.101  13.442  14.395
56674SOL    HW171919   8.008  13.430  14.376
56674SOL    HW271920   8.144  13.430  14.311
56675SOL     OW71921  10.983  11.530   2.202
56675SOL    HW171922  11.027  11.510   2.285
56675SOL    HW271923  11.012  11.619   2.180
56676SOL     OW71924   8.673  11.425   8.692
56676SOL    HW171925   8.740  11.452   8.629
56676SOL    HW271926   8.630  11.350   8.650
56677SOL     OW71927  14.251   6.159  12.957
56677SOL    HW171928  14.182   6.094  12.971
56677SOL    HW271929  14.216   6.240  12.994
56678SOL     OW71930   5.835   1.166   5.610
56678SOL    HW171931   5.772   1.196   5.675
56678SOL    HW271932   5.918   1.164   5.658
56679SOL     OW71933   1.559   2.747   6.259
56679SOL    HW171934   1.568   2.780   6.169
56679SOL    HW271935   1.573   2.824   6.314
56680SOL     OW71936   9.245   3.471  10.779
56680SOL    HW171937   9.195   3.437  10.705
56680SOL    HW271938   9.292   3.395  10.813
56681SOL     OW71939  14.842   8.837   4.243
56681SOL    HW171940  14.869   8.852   4.334
56681SOL    HW271941  14.857   8.921   4.199
56682SOL     OW71942   0.754   1.072   6.180
56682SOL    HW171943   0.714   1.153   6.211
56682SOL    HW271944   0.848   1.090   6.182
56683SOL     OW71945   1.885   0.618  14.507
56683SOL    HW171946   1.979   0.636  14.499
56683SOL    HW271947   1.859   0.663  14.588
56684SOL     OW71948  12.831   3.499  12.961
56684SOL    HW171949  12.769   3.433  12.995
56684SOL    HW271950  12.890   3.516  13.035
56685SOL     OW71951  14.007   5.404   4.083
56685SOL    HW171952  13.972   5.443   4.002
56685SOL    HW271953  13.957   5.323   4.094
56686SOL     OW71954   0.867   3.434   2.828
56686SOL    HW171955   0.884   3.448   2.922
56686SOL    HW271956   0.938   3.480   2.784
56687SOL     OW71957   6.592  12.063  12.859
56687SOL    HW171958   6.538  12.049  12.937
56687SOL    HW271959   6.538  12.034  12.787
56688SOL     OW71960   4.974   0.935  10.616
56688SOL    HW171961   4.903   0.951  10.554
56688SOL    HW271962   5.035   1.007  10.603
56689SOL     OW71963   0.751   1.960  13.488
56689SOL    HW171964   0.835   1.935  13.528
56689SOL    HW271965   0.727   1.884  13.435
56690SOL     OW71966   4.991   2.409   8.261
56690SOL    HW171967   4.948   2.471   8.320
56690SOL    HW271968   4.993   2.326   8.310
56691SOL     OW71969  13.420   5.127  11.943
56691SOL    HW171970  13.480   5.157  11.875
56691SOL    HW271971  13.436   5.033  11.949
56692SOL     OW71972   9.468   9.847  10.799
56692SOL    HW171973   9.549   9.842  10.851
56692SOL    HW271974   9.495   9.888  10.717
56693SOL     OW71975   5.354   4.756   7.319
56693SOL    HW171976   5.280   4.702   7.292
56693SOL    HW271977   5.324   4.846   7.305
56694SOL     OW71978   9.318   7.819  10.223
56694SOL    HW171979   9.359   7.764  10.156
56694SOL    HW271980   9.379   7.892  10.234
56695SOL     OW71981   3.557   5.035   0.428
56695SOL    HW171982   3.590   4.947   0.408
56695SOL    HW271983   3.583   5.088   0.354
56696SOL     OW71984   1.707   4.440  13.734
56696SOL    HW171985   1.760   4.403  13.663
56696SOL    HW271986   1.686   4.366  13.790
56697SOL     OW71987   0.728   5.168  11.450
56697SOL    HW171988   0.774   5.106  11.394
56697SOL    HW271989   0.770   5.252  11.433
56698SOL     OW71990   9.854   4.048   4.823
56698SOL    HW171991   9.935   4.072   4.868
56698SOL    HW271992   9.828   4.127   4.775
56699SOL     OW71993   5.159   1.193   0.318
56699SOL    HW171994   5.113   1.272   0.290
56699SOL    HW271995   5.154   1.196   0.414
56700SOL     OW71996  10.943   3.489   2.412
56700SOL    HW171997  10.997   3.499   2.334
56700SOL    HW271998  10.942   3.576   2.451
56701SOL     OW71999   1.837   2.747  10.103
56701SOL    HW172000   1.785   2.674  10.137
56701SOL    HW272001   1.844   2.807  10.177
56702SOL     OW72002  11.345   8.269  14.415
56702SOL    HW172003  11.263   8.240  14.456
56702SOL    HW272004  11.408   8.200  14.434
56703SOL     OW72005  10.684  10.523   6.750
56703SOL    HW172006  10.737  10.448   6.777
56703SOL    HW272007  10.665  10.570   6.831
56704SOL     OW72008  10.290  11.459   1.717
56704SOL    HW172009  10.243  11.501   1.645
56704SOL    HW272010  10.271  11.366   1.707
56705SOL     OW72011   3.875  13.714  11.751
56705SOL    HW172012   3.906  13.630  11.716
56705SOL    HW272013   3.903  13.714  11.842
56706SOL     OW72014   4.037   1.114  10.436
56706SOL    HW172015   3.964   1.053  10.429
56706SOL    HW272016   4.105   1.066  10.483
56707SOL     OW72017   5.136   1.174   2.340
56707SOL    HW172018   5.119   1.250   2.285
56707SOL    HW272019   5.148   1.102   2.279
56708SOL     OW72020   9.248  12.029   9.442
56708SOL    HW172021   9.339  12.038   9.473
56708SOL    HW272022   9.195  12.047   9.519
56709SOL     OW72023   0.077   3.574  10.706
56709SOL    HW172024  14.870   3.584  10.747
56709SOL    HW272025   0.121   3.657  10.723
56710SOL     OW72026   2.162   4.506  11.005
56710SOL    HW172027   2.189   4.590  11.040
56710SOL    HW272028   2.204   4.501  10.919
56711SOL     OW72029  13.965  10.465   3.972
56711SOL    HW172030  13.914  10.445   4.050
56711SOL    HW272031  13.939  10.399   3.907
56712SOL     OW72032  10.582  10.148  10.344
56712SOL    HW172033  10.549  10.154  10.434
56712SOL    HW272034  10.567  10.057  10.319
56713SOL     OW72035   6.849   5.112  11.776
56713SOL    HW172036   6.812   5.151  11.697
56713SOL    HW272037   6.779   5.121  11.842
56714SOL     OW72038  14.453  13.482   9.752
56714SOL    HW172039  14.434  13.576   9.744
56714SOL    HW272040  14.386  13.449   9.813
56715SOL     OW72041  13.146   8.324   3.111
56715SOL    HW172042  13.164   8.264   3.183
56715SOL    HW272043  13.221   8.313   3.052
56716SOL     OW72044  13.041   0.889   6.074
56716SOL    HW172045  12.955   0.926   6.096
56716SOL    HW272046  13.090   0.891   6.157
56717SOL     OW72047   0.112   4.665   3.852
56717SOL    HW172048   0.044   4.732   3.848
56717SOL    HW272049   0.078   4.593   3.799
56718SOL     OW72050   5.121   4.607   3.772
56718SOL    HW172051   5.187   4.561   3.719
56718SOL    HW272052   5.072   4.659   3.709
56719SOL     OW72053   3.404   7.344   6.083
56719SOL    HW172054   3.417   7.276   6.149
56719SOL    HW272055   3.476   7.332   6.022
56720SOL     OW72056   1.819  13.868   7.991
56720SOL    HW172057   1.881  13.823   7.935
56720SOL    HW272058   1.782  13.799   8.046
56721SOL     OW72059   7.610  10.972  14.006
56721SOL    HW172060   7.574  10.924  14.080
56721SOL    HW272061   7.585  11.063  14.022
56722SOL     OW72062  11.936  12.139   8.667
56722SOL    HW172063  11.917  12.229   8.691
56722SOL    HW272064  12.018  12.119   8.713
56723SOL     OW72065   2.267  11.633   3.985
56723SOL    HW172066   2.344  11.608   4.036
56723SOL    HW272067   2.193  11.620   4.044
56724SOL     OW72068   8.719   3.369   8.178
56724SOL    HW172069   8.813   3.357   8.166
56724SOL    HW272070   8.680   3.290   8.142
56725SOL     OW72071   2.941   1.758   2.831
56725SOL    HW172072   2.950   1.832   2.771
56725SOL    HW272073   3.029   1.721   2.837
56726SOL     OW72074  10.042  10.143   2.875
56726SOL    HW172075  10.061  10.107   2.961
56726SOL    HW272076  10.087  10.085   2.814
56727SOL     OW72077  12.767  12.345  11.882
56727SOL    HW172078  12.781  12.360  11.975
56727SOL    HW272079  12.741  12.253  11.876
56728SOL     OW72080   2.297   5.463   5.545
56728SOL    HW172081   2.263   5.548   5.571
56728SOL    HW272082   2.221   5.417   5.508
56729SOL     OW72083   3.050   3.166  12.429
56729SOL    HW172084   2.980   3.120  12.385
56729SOL    HW272085   3.117   3.100  12.445
56730SOL     OW72086   7.939   8.742   1.056
56730SOL    HW172087   7.968   8.688   1.130
56730SOL    HW272088   7.848   8.715   1.041
56731SOL     OW72089   5.994   4.604  12.498
56731SOL    HW172090   5.899   4.602  12.493
56731SOL    HW272091   6.015   4.549  12.573
56732SOL     OW72092  11.361   1.469   7.717
56732SOL    HW172093  11.352   1.510   7.803
56732SOL    HW272094  11.314   1.527   7.658
56733SOL     OW72095   8.749   3.303   4.482
56733SOL    HW172096   8.833   3.331   4.517
56733SOL    HW272097   8.688   3.315   4.554
56734SOL     OW72098  11.947  12.379   8.165
56734SOL    HW172099  11.880  12.431   8.121
56734SOL    HW272100  12.020  12.440   8.178
56735SOL     OW72101  10.746   2.271   3.306
56735SOL    HW172102  10.666   2.224   3.286
56735SOL    HW272103  10.742   2.286   3.401
56736SOL     OW72104   1.173   9.415   1.039
56736SOL    HW172105   1.265   9.419   1.065
56736SOL    HW272106   1.171   9.448   0.949
56737SOL     OW72107   6.754   2.339  14.874
56737SOL    HW172108   6.748   2.420  14.823
56737SOL    HW272109   6.725   2.271  14.814
56738SOL     OW72110   4.533  13.616   0.679
56738SOL    HW172111   4.517  13.707   0.703
56738SOL    HW272112   4.582  13.620   0.597
56739SOL     OW72113   7.509   5.416  12.660
56739SOL    HW172114   7.536   5.506  12.643
56739SOL    HW272115   7.476   5.417  12.750
56740SOL     OW72116   9.021   4.097   5.902
56740SOL    HW172117   9.013   4.192   5.894
56740SOL    HW272118   8.955   4.073   5.967
56741SOL     OW72119  11.904   6.537  10.045
56741SOL    HW172120  11.993   6.541  10.010
56741SOL    HW272121  11.873   6.450  10.022
56742SOL     OW72122  10.627   7.174   6.721
56742SOL    HW172123  10.627   7.177   6.816
56742SOL    HW272124  10.626   7.081   6.700
56743SOL     OW72125   9.282   5.916  13.523
56743SOL    HW172126   9.288   6.004  13.561
56743SOL    HW272127   9.195   5.885  13.547
56744SOL     OW72128  13.047  11.685   8.856
56744SOL    HW172129  13.096  11.609   8.888
56744SOL    HW272130  13.115  11.746   8.826
56745SOL     OW72131   4.347  11.345  10.822
56745SOL    HW172132   4.307  11.375  10.904
56745SOL    HW272133   4.407  11.275  10.849
56746SOL     OW72134   2.596   7.424  14.356
56746SOL    HW172135   2.592   7.430  14.260
56746SOL    HW272136   2.505   7.414  14.383
56747SOL     OW72137   7.235   3.724   7.208
56747SOL    HW172138   7.291   3.799   7.231
56747SOL    HW272139   7.235   3.724   7.112
56748SOL     OW72140  14.631   2.983   9.264
56748SOL    HW172141  14.722   3.014   9.259
56748SOL    HW272142  14.610   2.956   9.175
56749SOL     OW72143  11.481   5.730   4.930
56749SOL    HW172144  11.562   5.776   4.948
56749SOL    HW272145  11.415   5.798   4.923
56750SOL     OW72146   3.448  10.312  14.183
56750SOL    HW172147   3.475  10.381  14.243
56750SOL    HW272148   3.399  10.250  14.238
56751SOL     OW72149   3.186  13.190   2.246
56751SOL    HW172150   3.136  13.179   2.327
56751SOL    HW272151   3.228  13.275   2.254
56752SOL     OW72152  12.457  14.838   6.483
56752SOL    HW172153  12.509   0.032   6.514
56752SOL    HW272154  12.521  14.775   6.450
56753SOL     OW72155   7.576   4.547   3.812
56753SOL    HW172156   7.529   4.506   3.885
56753SOL    HW272157   7.577   4.640   3.833
56754SOL     OW72158   2.032  13.823   6.828
56754SOL    HW172159   1.991  13.844   6.744
56754SOL    HW272160   1.981  13.871   6.893
56755SOL     OW72161   4.587  10.872  10.827
56755SOL    HW172162   4.550  10.872  10.739
56755SOL    HW272163   4.521  10.828  10.881
56756SOL     OW72164  14.170  14.441  14.202
56756SOL    HW172165  14.235  14.434  14.273
56756SOL    HW272166  14.103  14.499  14.237
56757SOL     OW72167   8.618  10.347   5.631
56757SOL    HW172168   8.604  10.261   5.591
56757SOL    HW272169   8.594  10.409   5.562
56758SOL     OW72170   8.462   7.066  13.351
56758SOL    HW172171   8.551   7.052  13.319
56758SOL    HW272172   8.455   7.009  13.428
56759SOL     OW72173   8.707  11.737   6.027
56759SOL    HW172174   8.721  11.643   6.041
56759SOL    HW272175   8.705  11.746   5.932
56760SOL     OW72176   6.301  14.406   2.078
56760SOL    HW172177   6.374  14.363   2.122
56760SOL    HW272178   6.325  14.406   1.986
56761SOL     OW72179   5.737  12.122   1.954
56761SOL    HW172180   5.727  12.063   2.029
56761SOL    HW272181   5.828  12.110   1.926
56762SOL     OW72182   5.433   4.639   4.137
56762SOL    HW172183   5.356   4.653   4.082
56762SOL    HW272184   5.444   4.721   4.184
56763SOL     OW72185   0.123   4.049   6.194
56763SOL    HW172186   0.072   3.968   6.194
56763SOL    HW272187   0.059   4.119   6.187
56764SOL     OW72188   6.396   9.624  12.158
56764SOL    HW172189   6.331   9.693  12.143
56764SOL    HW272190   6.355   9.545  12.124
56765SOL     OW72191   9.719  13.113  10.106
56765SOL    HW172192   9.663  13.036  10.095
56765SOL    HW272193   9.808  13.078  10.108
56766SOL     OW72194  14.178   0.773   9.783
56766SOL    HW172195  14.264   0.790   9.822
56766SOL    HW272196  14.156   0.684   9.812
56767SOL     OW72197  14.736   7.979   8.985
56767SOL    HW172198  14.737   8.011   8.896
56767SOL    HW272199  14.704   7.889   8.978
56768SOL     OW72200   0.358   5.803   7.711
56768SOL    HW172201   0.421   5.770   7.775
56768SOL    HW272202   0.373   5.897   7.709
56769SOL     OW72203   7.909  14.075   5.246
56769SOL    HW172204   7.989  14.025   5.230
56769SOL    HW272205   7.939  14.158   5.283
56770SOL     OW72206   4.101   2.146  12.898
56770SOL    HW172207   4.131   2.067  12.943
56770SOL    HW272208   4.011   2.158  12.927
56771SOL     OW72209   2.989   3.743   5.268
56771SOL    HW172210   2.902   3.752   5.306
56771SOL    HW272211   2.977   3.683   5.195
56772SOL     OW72212   2.319  13.701  13.590
56772SOL    HW172213   2.338  13.608  13.579
56772SOL    HW272214   2.253  13.704  13.660
56773SOL     OW72215  14.150   5.427  11.215
56773SOL    HW172216  14.169   5.335  11.228
56773SOL    HW272217  14.153   5.440  11.121
56774SOL     OW72218  14.872   2.923   0.282
56774SOL    HW172219  14.875   2.847   0.340
56774SOL    HW272220  14.779   2.944   0.274
56775SOL     OW72221   3.467   6.570   2.456
56775SOL    HW172222   3.402   6.503   2.438
56775SOL    HW272223   3.510   6.541   2.536
56776SOL     OW72224  12.741   0.155   0.450
56776SOL    HW172225  12.761   0.184   0.538
56776SOL    HW272226  12.700   0.230   0.408
56777SOL     OW72227   4.128   3.520   5.385
56777SOL    HW172228   4.086   3.492   5.304
56777SOL    HW272229   4.069   3.491   5.455
56778SOL     OW72230  14.491  12.672   1.096
56778SOL    HW172231  14.558  12.713   1.042
56778SOL    HW272232  14.540  12.621   1.160
56779SOL     OW72233   5.648  10.882  13.241
56779SOL    HW172234   5.553  10.870  13.237
56779SOL    HW272235   5.682  10.794  13.257
56780SOL     OW72236   3.444  14.402  12.491
56780SOL    HW172237   3.430  14.490  12.525
56780SOL    HW272238   3.502  14.361  12.555
56781SOL     OW72239   1.899  11.240   2.004
56781SOL    HW172240   1.896  11.271   2.094
56781SOL    HW272241   1.989  11.210   1.991
56782SOL     OW72242  11.315   0.447   3.493
56782SOL    HW172243  11.373   0.397   3.550
56782SOL    HW272244  11.246   0.480   3.550
56783SOL     OW72245   7.436  12.631   8.050
56783SOL    HW172246   7.417  12.557   8.107
56783SOL    HW272247   7.373  12.625   7.979
56784SOL     OW72248   8.743   7.403  13.320
56784SOL    HW172249   8.785   7.321  13.294
56784SOL    HW272250   8.746   7.403  13.416
56785SOL     OW72251   2.589   1.547   0.840
56785SOL    HW172252   2.683   1.552   0.823
56785SOL    HW272253   2.583   1.530   0.934
56786SOL     OW72254   9.847   2.533  13.802
56786SOL    HW172255   9.901   2.608  13.828
56786SOL    HW272256   9.868   2.466  13.866
56787SOL     OW72257  12.443   6.020   7.864
56787SOL    HW172258  12.460   5.966   7.787
56787SOL    HW272259  12.408   5.958   7.929
56788SOL     OW72260   7.343   4.126   4.173
56788SOL    HW172261   7.333   4.031   4.178
56788SOL    HW272262   7.403   4.148   4.244
56789SOL     OW72263   7.213  12.185  11.719
56789SOL    HW172264   7.192  12.139  11.800
56789SOL    HW272265   7.131  12.187  11.670
56790SOL     OW72266   6.351   0.556   6.451
56790SOL    HW172267   6.302   0.475   6.436
56790SOL    HW272268   6.430   0.545   6.398
56791SOL     OW72269   0.972  13.076   4.560
56791SOL    HW172270   0.944  13.002   4.615
56791SOL    HW272271   1.067  13.073   4.562
56792SOL     OW72272  13.166   4.224  13.673
56792SOL    HW172273  13.108   4.251  13.602
56792SOL    HW272274  13.112   4.230  13.751
56793SOL     OW72275   7.357   3.699   0.064
56793SOL    HW172276   7.340   3.635  14.875
56793SOL    HW272277   7.449   3.724   0.052
56794SOL     OW72278   7.514   4.828   3.736
56794SOL    HW172279   7.425   4.794   3.741
56794SOL    HW272280   7.507   4.903   3.676
56795SOL     OW72281  14.557   1.853   2.400
56795SOL    HW172282  14.550   1.940   2.440
56795SOL    HW272283  14.645   1.852   2.362
56796SOL     OW72284   0.314  11.716   5.631
56796SOL    HW172285   0.356  11.801   5.618
56796SOL    HW272286   0.355  11.658   5.567
56797SOL     OW72287  10.659  13.815   9.560
56797SOL    HW172288  10.716  13.784   9.631
56797SOL    HW272289  10.673  13.910   9.558
56798SOL     OW72290   3.459   0.332  11.591
56798SOL    HW172291   3.537   0.281  11.569
56798SOL    HW272292   3.392   0.266  11.610
56799SOL     OW72293   9.321  11.654   6.986
56799SOL    HW172294   9.287  11.587   6.926
56799SOL    HW272295   9.243  11.692   7.026
56800SOL     OW72296   5.940   1.736  14.304
56800SOL    HW172297   5.862   1.704  14.258
56800SOL    HW272298   5.922   1.716  14.396
56801SOL     OW72299   5.681   6.693   2.812
56801SOL    HW172300   5.767   6.676   2.850
56801SOL    HW272301   5.628   6.619   2.839
56802SOL     OW72302   0.191   2.288   7.994
56802SOL    HW172303   0.263   2.265   7.935
56802SOL    HW272304   0.112   2.277   7.941
56803SOL     OW72305   1.606   0.196   4.135
56803SOL    HW172306   1.560   0.280   4.131
56803SOL    HW272307   1.673   0.209   4.202
56804SOL     OW72308   8.482   4.177   2.598
56804SOL    HW172309   8.403   4.228   2.616
56804SOL    HW272310   8.512   4.209   2.513
56805SOL     OW72311  11.465   1.137   2.881
56805SOL    HW172312  11.492   1.062   2.827
56805SOL    HW272313  11.539   1.197   2.877
56806SOL     OW72314  13.294   5.898  14.406
56806SOL    HW172315  13.291   5.948  14.487
56806SOL    HW272316  13.218   5.840  14.412
56807SOL     OW72317   5.005  13.579  12.691
56807SOL    HW172318   5.015  13.497  12.641
56807SOL    HW272319   5.049  13.561  12.774
56808SOL     OW72320  12.360  12.741   5.048
56808SOL    HW172321  12.272  12.717   5.019
56808SOL    HW272322  12.397  12.660   5.084
56809SOL     OW72323   2.815  11.486   8.658
56809SOL    HW172324   2.724  11.474   8.684
56809SOL    HW272325   2.859  11.405   8.685
56810SOL     OW72326   4.232  10.906   2.434
56810SOL    HW172327   4.187  10.867   2.510
56810SOL    HW272328   4.239  10.835   2.371
56811SOL     OW72329  12.427   4.541   4.974
56811SOL    HW172330  12.363   4.525   5.043
56811SOL    HW272331  12.501   4.484   4.995
56812SOL     OW72332   6.677   7.068  13.062
56812SOL    HW172333   6.594   7.104  13.031
56812SOL    HW272334   6.706   7.128  13.130
56813SOL     OW72335   1.516   1.363   3.038
56813SOL    HW172336   1.493   1.397   2.952
56813SOL    HW272337   1.465   1.416   3.099
56814SOL     OW72338   2.621   8.063   9.640
56814SOL    HW172339   2.666   8.097   9.717
56814SOL    HW272340   2.625   7.968   9.650
56815SOL     OW72341   9.601  14.840   7.408
56815SOL    HW172342   9.531  14.780   7.434
56815SOL    HW272343   9.598   0.030   7.473
56816SOL     OW72344  10.110   4.202   5.947
56816SOL    HW172345  10.148   4.186   5.861
56816SOL    HW272346  10.071   4.118   5.972
56817SOL     OW72347   4.761   8.231   1.240
56817SOL    HW172348   4.724   8.181   1.167
56817SOL    HW272349   4.846   8.190   1.256
56818SOL     OW72350   7.803  13.072   8.374
56818SOL    HW172351   7.841  13.114   8.452
56818SOL    HW272352   7.842  12.985   8.372
56819SOL     OW72353   3.052   6.814   4.134
56819SOL    HW172354   3.046   6.726   4.099
56819SOL    HW272355   2.963   6.847   4.132
56820SOL     OW72356   9.811  14.490  10.517
56820SOL    HW172357   9.839  14.581  10.524
56820SOL    HW272358   9.777  14.483  10.427
56821SOL     OW72359   0.925  10.620  11.729
56821SOL    HW172360   0.897  10.529  11.738
56821SOL    HW272361   0.926  10.635  11.635
56822SOL     OW72362   8.556  13.082  12.396
56822SOL    HW172363   8.493  13.150  12.374
56822SOL    HW272364   8.540  13.062  12.488
56823SOL     OW72365  11.140   1.139   0.754
56823SOL    HW172366  11.130   1.074   0.823
56823SOL    HW272367  11.233   1.161   0.754
56824SOL     OW72368  13.024  11.281   2.847
56824SOL    HW172369  13.057  11.224   2.777
56824SOL    HW272370  13.002  11.221   2.918
56825SOL     OW72371   7.829   4.419   1.275
56825SOL    HW172372   7.899   4.354   1.272
56825SOL    HW272373   7.863   4.493   1.226
56826SOL     OW72374  11.022   0.120   9.574
56826SOL    HW172375  10.941   0.114   9.624
56826SOL    HW272376  11.058   0.032   9.576
56827SOL     OW72377  13.826   5.849   3.019
56827SOL    HW172378  13.782   5.931   2.998
56827SOL    HW272379  13.868   5.823   2.937
56828SOL     OW72380   8.389   0.822   3.389
56828SOL    HW172381   8.414   0.913   3.399
56828SOL    HW272382   8.382   0.809   3.295
56829SOL     OW72383   9.730  11.319  14.012
56829SOL    HW172384   9.768  11.344  14.096
56829SOL    HW272385   9.665  11.387  13.993
56830SOL     OW72386  13.308   8.988   8.107
56830SOL    HW172387  13.343   8.906   8.073
56830SOL    HW272388  13.241   8.962   8.169
56831SOL     OW72389   1.908  13.119   4.748
56831SOL    HW172390   1.948  13.100   4.833
56831SOL    HW272391   1.815  13.105   4.761
56832SOL     OW72392  11.954  14.499  12.533
56832SOL    HW172393  11.962  14.433  12.603
56832SOL    HW272394  12.042  14.533  12.523
56833SOL     OW72395   3.557   0.563  12.568
56833SOL    HW172396   3.640   0.516  12.565
56833SOL    HW272397   3.535   0.568  12.661
56834SOL     OW72398  13.733   3.989   9.550
56834SOL    HW172399  13.726   3.966   9.458
56834SOL    HW272400  13.826   4.009   9.564
56835SOL     OW72401   1.617  11.286   1.799
56835SOL    HW172402   1.668  11.207   1.786
56835SOL    HW272403   1.526  11.257   1.796
56836SOL     OW72404  14.415   8.888  13.223
56836SOL    HW172405  14.425   8.979  13.252
56836SOL    HW272406  14.321   8.875  13.217
56837SOL     OW72407  10.808  12.383   0.531
56837SOL    HW172408  10.772  12.443   0.466
56837SOL    HW272409  10.873  12.434   0.579
56838SOL     OW72410   4.387  13.276  10.363
56838SOL    HW172411   4.459  13.333  10.335
56838SOL    HW272412   4.400  13.266  10.457
56839SOL     OW72413  11.781  11.460   1.855
56839SOL    HW172414  11.755  11.542   1.896
56839SOL    HW272415  11.729  11.455   1.775
56840SOL     OW72416  14.577   7.212   8.698
56840SOL    HW172417  14.518   7.182   8.630
56840SOL    HW272418  14.581   7.140   8.761
56841SOL     OW72419   5.084  13.523  12.278
56841SOL    HW172420   5.147  13.526  12.206
56841SOL    HW272421   5.084  13.611  12.314
56842SOL     OW72422   2.869   7.230  13.209
56842SOL    HW172423   2.808   7.283  13.261
56842SOL    HW272424   2.877   7.148  13.258
56843SOL     OW72425  11.388  13.251   4.388
56843SOL    HW172426  11.429  13.337   4.382
56843SOL    HW272427  11.455  13.196   4.430
56844SOL     OW72428   4.343   8.067   5.828
56844SOL    HW172429   4.264   8.072   5.882
56844SOL    HW272430   4.413   8.092   5.888
56845SOL     OW72431   7.887   9.244   1.682
56845SOL    HW172432   7.878   9.215   1.773
56845SOL    HW272433   7.978   9.274   1.675
56846SOL     OW72434  12.087   6.935  14.130
56846SOL    HW172435  12.128   6.852  14.104
56846SOL    HW272436  12.035   6.911  14.207
56847SOL     OW72437   6.113  10.702  11.436
56847SOL    HW172438   6.120  10.702  11.341
56847SOL    HW272439   6.168  10.628  11.464
56848SOL     OW72440  13.319   6.203   0.836
56848SOL    HW172441  13.307   6.143   0.763
56848SOL    HW272442  13.390   6.165   0.888
56849SOL     OW72443  14.782  13.261  13.940
56849SOL    HW172444  14.771  13.325  14.011
56849SOL    HW272445  14.856  13.207  13.968
56850SOL     OW72446  11.070  14.000  10.895
56850SOL    HW172447  10.988  13.963  10.927
56850SOL    HW272448  11.058  14.006  10.800
56851SOL     OW72449   7.264   9.401   3.572
56851SOL    HW172450   7.314   9.447   3.639
56851SOL    HW272451   7.281   9.451   3.492
56852SOL     OW72452  13.556  13.751   1.665
56852SOL    HW172453  13.626  13.773   1.604
56852SOL    HW272454  13.570  13.811   1.738
56853SOL     OW72455  10.414   0.396   7.563
56853SOL    HW172456  10.322   0.397   7.590
56853SOL    HW272457  10.412   0.377   7.470
56854SOL     OW72458   7.726   8.766  11.072
56854SOL    HW172459   7.734   8.822  10.994
56854SOL    HW272460   7.812   8.726  11.081
56855SOL     OW72461   1.554   1.305  14.580
56855SOL    HW172462   1.550   1.393  14.542
56855SOL    HW272463   1.648   1.287  14.589
56856SOL     OW72464  12.746   0.675   0.766
56856SOL    HW172465  12.738   0.752   0.709
56856SOL    HW272466  12.714   0.602   0.712
56857SOL     OW72467  13.194  11.087  14.273
56857SOL    HW172468  13.161  11.008  14.316
56857SOL    HW272469  13.282  11.099  14.309
56858SOL     OW72470   4.894  12.535   7.358
56858SOL    HW172471   4.818  12.514   7.412
56858SOL    HW272472   4.857  12.564   7.275
56859SOL     OW72473   4.986   1.354   0.201
56859SOL    HW172474   5.022   1.438   0.172
56859SOL    HW272475   4.976   1.303   0.121
56860SOL     OW72476  13.884  11.240  11.719
56860SOL    HW172477  13.799  11.198  11.729
56860SOL    HW272478  13.945  11.182  11.765
56861SOL     OW72479  12.353  12.928   3.746
56861SOL    HW172480  12.318  12.956   3.661
56861SOL    HW272481  12.447  12.920   3.732
56862SOL     OW72482   2.860   9.931   3.428
56862SOL    HW172483   2.816   9.878   3.495
56862SOL    HW272484   2.950   9.936   3.458
56863SOL     OW72485  13.837  12.602  14.806
56863SOL    HW172486  13.836  12.586   0.021
56863SOL    HW272487  13.839  12.697  14.798
56864SOL     OW72488  10.526  13.967   5.491
56864SOL    HW172489  10.468  13.901   5.528
56864SOL    HW272490  10.578  13.921   5.425
56865SOL     OW72491  10.594   2.428   8.824
56865SOL    HW172492  10.600   2.365   8.895
56865SOL    HW272493  10.630   2.383   8.748
56866SOL     OW72494   2.582  13.173  14.733
56866SOL    HW172495   2.526  13.100  14.706
56866SOL    HW272496   2.658  13.167  14.675
56867SOL     OW72497   8.687  11.159   9.744
56867SOL    HW172498   8.753  11.126   9.805
56867SOL    HW272499   8.653  11.080   9.702
56868SOL     OW72500   7.057   5.982   8.192
56868SOL    HW172501   7.099   5.979   8.106
56868SOL    HW272502   7.015   6.068   8.196
56869SOL     OW72503   7.221  14.572   9.003
56869SOL    HW172504   7.182  14.506   8.945
56869SOL    HW272505   7.176  14.653   8.980
56870SOL     OW72506   5.563   7.814   7.506
56870SOL    HW172507   5.481   7.781   7.469
56870SOL    HW272508   5.615   7.735   7.523
56871SOL     OW72509  10.674   5.492  14.007
56871SOL    HW172510  10.760   5.511  14.043
56871SOL    HW272511  10.625   5.574  14.015
56872SOL     OW72512   6.646   4.971   1.693
56872SOL    HW172513   6.738   4.977   1.668
56872SOL    HW272514   6.614   5.061   1.688
56873SOL     OW72515   5.688  11.526   9.772
56873SOL    HW172516   5.614  11.467   9.762
56873SOL    HW272517   5.700  11.565   9.685
56874SOL     OW72518   1.804  13.250   0.937
56874SOL    HW172519   1.828  13.158   0.928
56874SOL    HW272520   1.795  13.264   1.031
56875SOL     OW72521   1.858   2.655   3.265
56875SOL    HW172522   1.835   2.578   3.317
56875SOL    HW272523   1.944   2.635   3.229
56876SOL     OW72524   5.988   8.343   5.856
56876SOL    HW172525   5.937   8.382   5.785
56876SOL    HW272526   5.957   8.253   5.861
56877SOL     OW72527   6.486  10.516   6.983
56877SOL    HW172528   6.407  10.465   7.001
56877SOL    HW272529   6.472  10.599   7.029
56878SOL     OW72530   3.019   0.929  10.001
56878SOL    HW172531   3.066   0.967   9.927
56878SOL    HW272532   3.056   0.841  10.010
56879SOL     OW72533   7.076  12.923   5.007
56879SOL    HW172534   6.986  12.954   4.997
56879SOL    HW272535   7.078  12.838   4.965
56880SOL     OW72536   5.661   5.290   7.813
56880SOL    HW172537   5.597   5.351   7.775
56880SOL    HW272538   5.743   5.340   7.814
56881SOL     OW72539   5.927   5.399  14.784
56881SOL    HW172540   5.893   5.380  14.697
56881SOL    HW272541   5.850   5.402  14.840
56882SOL     OW72542  12.861  11.329  13.318
56882SOL    HW172543  12.778  11.346  13.273
56882SOL    HW272544  12.835  11.313  13.409
56883SOL     OW72545   0.053   7.235  12.567
56883SOL    HW172546   0.106   7.313  12.549
56883SOL    HW272547   0.023   7.247  12.657
56884SOL     OW72548  11.782   3.397  12.108
56884SOL    HW172549  11.817   3.452  12.178
56884SOL    HW272550  11.813   3.309  12.127
56885SOL     OW72551   5.706   9.277  10.157
56885SOL    HW172552   5.774   9.235  10.105
56885SOL    HW272553   5.753   9.337  10.216
56886SOL     OW72554  13.789   0.932   0.103
56886SOL    HW172555  13.799   1.020   0.065
56886SOL    HW272556  13.858   0.880   0.060
56887SOL     OW72557   2.851   2.252   8.872
56887SOL    HW172558   2.847   2.175   8.815
56887SOL    HW272559   2.789   2.233   8.942
56888SOL     OW72560   8.902   5.342   4.667
56888SOL    HW172561   8.817   5.373   4.699
56888SOL    HW272562   8.955   5.421   4.659
56889SOL     OW72563  12.954  11.893   9.433
56889SOL    HW172564  12.986  11.853   9.352
56889SOL    HW272565  13.031  11.893   9.491
56890SOL     OW72566   0.841   2.708   5.626
56890SOL    HW172567   0.916   2.695   5.685
56890SOL    HW272568   0.798   2.786   5.660
56891SOL     OW72569   7.614   8.281  14.535
56891SOL    HW172570   7.535   8.277  14.589
56891SOL    HW272571   7.682   8.312  14.595
56892SOL     OW72572   3.124   4.958   5.421
56892SOL    HW172573   3.155   4.913   5.500
56892SOL    HW272574   3.136   4.894   5.351
56893SOL     OW72575   1.156   1.979   8.039
56893SOL    HW172576   1.198   1.926   8.107
56893SOL    HW272577   1.067   1.993   8.070
56894SOL     OW72578   7.352  12.625   2.920
56894SOL    HW172579   7.311  12.620   2.834
56894SOL    HW272580   7.327  12.543   2.963
56895SOL     OW72581  12.259   0.270   2.630
56895SOL    HW172582  12.187   0.324   2.660
56895SOL    HW272583  12.270   0.204   2.698
56896SOL     OW72584  13.164   9.552  14.810
56896SOL    HW172585  13.108   9.525   0.003
56896SOL    HW272586  13.218   9.622  14.847
56897SOL     OW72587   1.724  11.922  14.738
56897SOL    HW172588   1.701  11.970  14.659
56897SOL    HW272589   1.714  11.830  14.713
56898SOL     OW72590  11.809   5.873   3.989
56898SOL    HW172591  11.837   5.941   3.927
56898SOL    HW272592  11.881   5.810   3.990
56899SOL     OW72593   1.322  14.463  13.204
56899SOL    HW172594   1.339  14.469  13.110
56899SOL    HW272595   1.344  14.549  13.239
56900SOL     OW72596  10.508   9.696  11.110
56900SOL    HW172597  10.475   9.651  11.189
56900SOL    HW272598  10.550   9.775  11.144
56901SOL     OW72599   9.844  10.696   8.871
56901SOL    HW172600   9.762  10.660   8.904
56901SOL    HW272601   9.818  10.747   8.794
56902SOL     OW72602   6.373   6.648  13.876
56902SOL    HW172603   6.335   6.684  13.796
56902SOL    HW272604   6.327   6.564  13.888
56903SOL     OW72605  12.411   1.090   7.685
56903SOL    HW172606  12.497   1.105   7.645
56903SOL    HW272607  12.352   1.148   7.638
56904SOL     OW72608   2.695   3.390   5.343
56904SOL    HW172609   2.770   3.393   5.283
56904SOL    HW272610   2.659   3.302   5.332
56905SOL     OW72611   6.486   3.921  13.705
56905SOL    HW172612   6.576   3.901  13.678
56905SOL    HW272613   6.496   3.987  13.773
56906SOL     OW72614   3.000   2.424   4.517
56906SOL    HW172615   2.980   2.380   4.600
56906SOL    HW272616   3.077   2.478   4.537
56907SOL     OW72617  13.243  11.417   3.264
56907SOL    HW172618  13.258  11.509   3.240
56907SOL    HW272619  13.325  11.389   3.305
56908SOL     OW72620   6.190  13.384  12.182
56908SOL    HW172621   6.200  13.414  12.091
56908SOL    HW272622   6.175  13.290  12.174
56909SOL     OW72623   1.216   2.403   4.243
56909SOL    HW172624   1.133   2.418   4.198
56909SOL    HW272625   1.202   2.320   4.290
56910SOL     OW72626   6.972   2.089   6.111
56910SOL    HW172627   7.033   2.066   6.042
56910SOL    HW272628   6.892   2.040   6.091
56911SOL     OW72629   2.935   4.135   2.354
56911SOL    HW172630   2.852   4.161   2.394
56911SOL    HW272631   3.000   4.154   2.422
56912SOL     OW72632   4.763  14.374   0.010
56912SOL    HW172633   4.770  14.468  14.877
56912SOL    HW272634   4.852  14.345   0.028
56913SOL     OW72635   6.954   4.190  11.527
56913SOL    HW172636   6.934   4.256  11.460
56913SOL    HW272637   7.012   4.128  11.482
56914SOL     OW72638  13.987   3.040   7.825
56914SOL    HW172639  13.967   3.087   7.744
56914SOL    HW272640  14.002   2.949   7.797
56915SOL     OW72641  10.343   5.739   7.387
56915SOL    HW172642  10.359   5.823   7.345
56915SOL    HW272643  10.347   5.676   7.315
56916SOL     OW72644  11.187   1.066   3.775
56916SOL    HW172645  11.227   1.147   3.744
56916SOL    HW272646  11.231   1.048   3.858
56917SOL     OW72647  11.871   0.654   8.162
56917SOL    HW172648  11.852   0.671   8.254
56917SOL    HW272649  11.849   0.736   8.118
56918SOL     OW72650   8.325   9.639   1.701
56918SOL    HW172651   8.254   9.680   1.750
56918SOL    HW272652   8.370   9.713   1.658
56919SOL     OW72653  11.569   1.713   0.885
56919SOL    HW172654  11.539   1.632   0.843
56919SOL    HW272655  11.538   1.783   0.827
56920SOL     OW72656   9.021  12.926   1.529
56920SOL    HW172657   9.076  12.953   1.455
56920SOL    HW272658   8.941  12.977   1.519
56921SOL     OW72659   5.651   0.274   0.800
56921SOL    HW172660   5.664   0.364   0.828
56921SOL    HW272661   5.706   0.222   0.858
56922SOL     OW72662   3.796   6.951  14.052
56922SOL    HW172663   3.716   6.911  14.020
56922SOL    HW272664   3.771   6.992  14.134
56923SOL     OW72665  14.839   3.142  13.700
56923SOL    HW172666  14.784   3.069  13.728
56923SOL    HW272667  14.804   3.218  13.745
56924SOL     OW72668   3.971   6.028   2.822
56924SOL    HW172669   3.912   5.953   2.816
56924SOL    HW272670   3.930   6.084   2.889
56925SOL     OW72671   6.951   4.861  11.173
56925SOL    HW172672   6.963   4.785  11.116
56925SOL    HW272673   6.859   4.858  11.198
56926SOL     OW72674   8.143  10.006  10.611
56926SOL    HW172675   8.198  10.060  10.667
56926SOL    HW272676   8.203   9.944  10.571
56927SOL     OW72677   1.004   5.704   9.800
56927SOL    HW172678   0.975   5.682   9.888
56927SOL    HW272679   0.924   5.714   9.750
56928SOL     OW72680  10.924   7.660  13.574
56928SOL    HW172681  11.011   7.698  13.559
56928SOL    HW272682  10.938   7.566  13.575
56929SOL     OW72683  10.673   7.214  13.722
56929SOL    HW172684  10.727   7.247  13.794
56929SOL    HW272685  10.706   7.125  13.706
56930SOL     OW72686   9.249   7.680  12.328
56930SOL    HW172687   9.286   7.619  12.391
56930SOL    HW272688   9.161   7.645  12.310
56931SOL     OW72689   2.399  10.109  14.461
56931SOL    HW172690   2.409  10.017  14.435
56931SOL    HW272691   2.310  10.114  14.496
56932SOL     OW72692   6.804   8.580   4.449
56932SOL    HW172693   6.825   8.519   4.520
56932SOL    HW272694   6.746   8.644   4.489
56933SOL     OW72695   2.560   6.333   2.785
56933SOL    HW172696   2.557   6.397   2.714
56933SOL    HW272697   2.493   6.361   2.846
56934SOL     OW72698  14.453  13.995   9.995
56934SOL    HW172699  14.514  14.069   9.999
56934SOL    HW272700  14.452  13.970   9.903
56935SOL     OW72701  12.043   4.655   6.288
56935SOL    HW172702  12.088   4.737   6.267
56935SOL    HW272703  12.049   4.604   6.207
56936SOL     OW72704  11.019   2.052   5.024
56936SOL    HW172705  10.988   1.969   5.060
56936SOL    HW272706  10.945   2.112   5.034
56937SOL     OW72707   0.615  13.842   8.106
56937SOL    HW172708   0.697  13.893   8.104
56937SOL    HW272709   0.568  13.870   8.027
56938SOL     OW72710   7.620  14.028   0.703
56938SOL    HW172711   7.568  14.108   0.698
56938SOL    HW272712   7.594  13.988   0.786
56939SOL     OW72713   8.988  11.297   7.760
56939SOL    HW172714   8.988  11.329   7.850
56939SOL    HW272715   8.980  11.376   7.707
56940SOL     OW72716   2.107   6.361   8.032
56940SOL    HW172717   2.057   6.389   7.955
56940SOL    HW272718   2.197   6.383   8.011
56941SOL     OW72719  14.404  10.318  10.101
56941SOL    HW172720  14.324  10.330  10.153
56941SOL    HW272721  14.405  10.393  10.041
56942SOL     OW72722   7.356  12.430   0.603
56942SOL    HW172723   7.432  12.375   0.584
56942SOL    HW272724   7.319  12.393   0.683
56943SOL     OW72725   9.822   7.529  14.503
56943SOL    HW172726   9.843   7.501  14.414
56943SOL    HW272727   9.874   7.608  14.517
56944SOL     OW72728  12.351   0.807  12.438
56944SOL    HW172729  12.412   0.734  12.430
56944SOL    HW272730  12.401   0.875  12.484
56945SOL     OW72731   4.788  12.850   0.085
56945SOL    HW172732   4.821  12.774   0.036
56945SOL    HW272733   4.836  12.848   0.168
56946SOL     OW72734   3.823  11.061   1.641
56946SOL    HW172735   3.795  11.083   1.552
56946SOL    HW272736   3.751  11.090   1.697
56947SOL     OW72737   3.709   4.627  14.823
56947SOL    HW172738   3.773   4.697  14.810
56947SOL    HW272739   3.694   4.625   0.038
56948SOL     OW72740   2.889   6.726   7.062
56948SOL    HW172741   2.807   6.733   7.111
56948SOL    HW272742   2.890   6.636   7.029
56949SOL     OW72743   4.518   7.293  13.183
56949SOL    HW172744   4.434   7.289  13.228
56949SOL    HW272745   4.514   7.372  13.130
56950SOL     OW72746  10.559  14.085  12.727
56950SOL    HW172747  10.470  14.057  12.750
56950SOL    HW272748  10.573  14.165  12.778
56951SOL     OW72749   8.754  14.199   4.735
56951SOL    HW172750   8.847  14.217   4.722
56951SOL    HW272751   8.747  14.177   4.828
56952SOL     OW72752  12.707   8.603  10.635
56952SOL    HW172753  12.716   8.579  10.543
56952SOL    HW272754  12.772   8.549  10.680
56953SOL     OW72755   2.008   7.540  12.293
56953SOL    HW172756   2.000   7.475  12.224
56953SOL    HW272757   2.049   7.493  12.366
56954SOL     OW72758   2.186   5.332   7.129
56954SOL    HW172759   2.113   5.364   7.075
56954SOL    HW272760   2.220   5.256   7.080
56955SOL     OW72761   5.420   0.182  12.436
56955SOL    HW172762   5.513   0.200  12.424
56955SOL    HW272763   5.387   0.171  12.346
56956SOL     OW72764   6.670   4.979  13.355
56956SOL    HW172765   6.586   5.023  13.341
56956SOL    HW272766   6.662   4.939  13.442
56957SOL     OW72767  13.666   9.230   5.805
56957SOL    HW172768  13.593   9.266   5.855
56957SOL    HW272769  13.625   9.182   5.733
56958SOL     OW72770  10.517   7.485   5.140
56958SOL    HW172771  10.518   7.397   5.180
56958SOL    HW272772  10.549   7.471   5.051
56959SOL     OW72773   1.934   0.581   5.942
56959SOL    HW172774   1.936   0.620   5.854
56959SOL    HW272775   1.863   0.627   5.987
56960SOL     OW72776   8.108   7.162  14.739
56960SOL    HW172777   8.085   7.079  14.779
56960SOL    HW272778   8.040   7.178  14.674
56961SOL     OW72779  14.218  10.532   7.958
56961SOL    HW172780  14.220  10.474   7.883
56961SOL    HW272781  14.127  10.527   7.990
56962SOL     OW72782   0.074   0.657  11.706
56962SOL    HW172783   0.117   0.615  11.780
56962SOL    HW272784   0.003   0.707  11.744
56963SOL     OW72785  12.535   1.634   9.798
56963SOL    HW172786  12.445   1.640   9.829
56963SOL    HW272787  12.588   1.640   9.878
56964SOL     OW72788   2.835   9.524   2.856
56964SOL    HW172789   2.788   9.590   2.908
56964SOL    HW272790   2.898   9.486   2.917
56965SOL     OW72791   0.338   7.809   7.954
56965SOL    HW172792   0.274   7.817   8.024
56965SOL    HW272793   0.287   7.786   7.877
56966SOL     OW72794   1.034   9.409   3.034
56966SOL    HW172795   0.974   9.456   2.975
56966SOL    HW272796   1.051   9.326   2.990
56967SOL     OW72797  14.614   0.646  13.267
56967SOL    HW172798  14.538   0.625  13.321
56967SOL    HW272799  14.629   0.567  13.215
56968SOL     OW72800   5.487   3.731   9.689
56968SOL    HW172801   5.392   3.728   9.698
56968SOL    HW272802   5.509   3.824   9.697
56969SOL     OW72803   2.141   2.863  13.123
56969SOL    HW172804   2.157   2.906  13.207
56969SOL    HW272805   2.062   2.905  13.089
56970SOL     OW72806   6.369   6.156  14.337
56970SOL    HW172807   6.412   6.131  14.254
56970SOL    HW272808   6.301   6.217  14.311
56971SOL     OW72809   7.244   5.938   2.356
56971SOL    HW172810   7.315   5.934   2.292
56971SOL    HW272811   7.288   5.943   2.441
56972SOL     OW72812   8.961   8.631   9.101
56972SOL    HW172813   8.976   8.726   9.100
56972SOL    HW272814   8.894   8.619   9.169
56973SOL     OW72815   0.240  10.829   4.698
56973SOL    HW172816   0.170  10.887   4.668
56973SOL    HW272817   0.249  10.763   4.629
56974SOL     OW72818   2.024   8.314   0.730
56974SOL    HW172819   1.961   8.322   0.658
56974SOL    HW272820   1.996   8.380   0.793
56975SOL     OW72821  13.890   7.251  10.157
56975SOL    HW172822  13.818   7.288  10.106
56975SOL    HW272823  13.847   7.199  10.225
56976SOL     OW72824  12.218   4.525   0.714
56976SOL    HW172825  12.167   4.505   0.792
56976SOL    HW272826  12.155   4.566   0.654
56977SOL     OW72827   0.339  11.389   3.167
56977SOL    HW172828   0.392  11.319   3.204
56977SOL    HW272829   0.380  11.470   3.199
56978SOL     OW72830   7.786  10.318   9.108
56978SOL    HW172831   7.826  10.381   9.048
56978SOL    HW272832   7.791  10.234   9.062
56979SOL     OW72833   7.267   0.108  14.619
56979SOL    HW172834   7.350   0.136  14.581
56979SOL    HW272835   7.222   0.062  14.548
56980SOL     OW72836  10.023   2.489   4.911
56980SOL    HW172837   9.994   2.575   4.943
56980SOL    HW272838   9.949   2.456   4.860
56981SOL     OW72839   0.550   4.372   2.545
56981SOL    HW172840   0.567   4.369   2.639
56981SOL    HW272841   0.515   4.285   2.524
56982SOL     OW72842   7.404  11.555   8.980
56982SOL    HW172843   7.465  11.626   8.956
56982SOL    HW272844   7.374  11.579   9.067
56983SOL     OW72845   1.330  12.546  10.348
56983SOL    HW172846   1.292  12.471  10.394
56983SOL    HW272847   1.256  12.588  10.305
56984SOL     OW72848   7.288  11.095   4.579
56984SOL    HW172849   7.240  11.178   4.569
56984SOL    HW272850   7.377  11.116   4.552
56985SOL     OW72851   9.343   8.039   5.475
56985SOL    HW172852   9.262   8.040   5.425
56985SOL    HW272853   9.343   7.955   5.521
56986SOL     OW72854  14.059   5.671   8.878
56986SOL    HW172855  13.998   5.669   8.804
56986SOL    HW272856  14.135   5.620   8.848
56987SOL     OW72857  12.729   6.437  11.949
56987SOL    HW172858  12.638   6.409  11.951
56987SOL    HW272859  12.744   6.477  12.034
56988SOL     OW72860  12.490  12.954   5.154
56988SOL    HW172861  12.444  12.880   5.114
56988SOL    HW272862  12.576  12.918   5.178
56989SOL     OW72863  14.732   1.001   2.758
56989SOL    HW172864  14.658   1.061   2.771
56989SOL    HW272865  14.774   0.998   2.844
56990SOL     OW72866  12.476   4.486  11.397
56990SOL    HW172867  12.499   4.564  11.447
56990SOL    HW272868  12.524   4.415  11.439
56991SOL     OW72869   7.822   8.560  12.763
56991SOL    HW172870   7.736   8.529  12.733
56991SOL    HW272871   7.803   8.606  12.845
56992SOL     OW72872   5.086   6.739  12.268
56992SOL    HW172873   5.044   6.659  12.299
56992SOL    HW272874   5.156   6.754  12.332
56993SOL     OW72875  13.546  13.346   2.382
56993SOL    HW172876  13.463  13.346   2.334
56993SOL    HW272877  13.608  13.386   2.321
56994SOL     OW72878  12.749  14.770  11.016
56994SOL    HW172879  12.800  14.789  11.095
56994SOL    HW272880  12.664  14.810  11.032
56995SOL     OW72881  13.871   5.238  11.513
56995SOL    HW172882  13.900   5.323  11.478
56995SOL    HW272883  13.878   5.178  11.439
56996SOL     OW72884  14.181   7.032   1.230
56996SOL    HW172885  14.201   6.962   1.292
56996SOL    HW272886  14.158   7.107   1.284
56997SOL     OW72887  11.356  10.731   4.584
56997SOL    HW172888  11.270  10.752   4.549
56997SOL    HW272889  11.341  10.716   4.677
56998SOL     OW72890   5.391  13.854  12.470
56998SOL    HW172891   5.475  13.855  12.424
56998SOL    HW272892   5.337  13.917  12.423
56999SOL     OW72893   9.010   2.757   7.501
56999SOL    HW172894   9.033   2.699   7.574
56999SOL    HW272895   8.995   2.698   7.428
57000SOL     OW72896   3.710   7.442   9.706
57000SOL    HW172897   3.734   7.371   9.647
57000SOL    HW272898   3.707   7.401   9.793
57001SOL     OW72899   1.021   9.076   7.619
57001SOL    HW172900   0.996   9.026   7.542
57001SOL    HW272901   0.938   9.109   7.654
57002SOL     OW72902  11.036   0.518  12.536
57002SOL    HW172903  10.942   0.534  12.530
57002SOL    HW272904  11.052   0.507  12.629
57003SOL     OW72905   4.044  10.829  12.704
57003SOL    HW172906   4.106  10.799  12.638
57003SOL    HW272907   4.076  10.791  12.786
57004SOL     OW72908   7.702  14.444   9.142
57004SOL    HW172909   7.679  14.352   9.133
57004SOL    HW272910   7.625  14.492   9.113
57005SOL     OW72911  14.467  14.364  14.109
57005SOL    HW172912  14.410  14.368  14.032
57005SOL    HW272913  14.549  14.328  14.076
57006SOL     OW72914   4.488   9.562  13.292
57006SOL    HW172915   4.562   9.623  13.291
57006SOL    HW272916   4.448   9.575  13.379
57007SOL     OW72917   8.079   3.004   3.794
57007SOL    HW172918   7.992   2.985   3.759
57007SOL    HW272919   8.068   3.001   3.889
57008SOL     OW72920   3.668   0.164  11.522
57008SOL    HW172921   3.712   0.107  11.460
57008SOL    HW272922   3.687   0.126  11.608
57009SOL     OW72923   2.027   7.201   2.761
57009SOL    HW172924   1.952   7.166   2.713
57009SOL    HW272925   1.990   7.259   2.827
57010SOL     OW72926   4.808   4.565   9.770
57010SOL    HW172927   4.896   4.546   9.737
57010SOL    HW272928   4.798   4.659   9.761
57011SOL     OW72929   0.985   8.600   7.208
57011SOL    HW172930   0.980   8.590   7.113
57011SOL    HW272931   1.030   8.521   7.239
57012SOL     OW72932   8.155   5.823  14.478
57012SOL    HW172933   8.137   5.880  14.552
57012SOL    HW272934   8.113   5.740  14.500
57013SOL     OW72935   0.489   2.234  11.338
57013SOL    HW172936   0.564   2.188  11.375
57013SOL    HW272937   0.524   2.319  11.311
57014SOL     OW72938  12.165   1.146   8.735
57014SOL    HW172939  12.174   1.211   8.804
57014SOL    HW272940  12.078   1.163   8.697
57015SOL     OW72941   4.102   3.652   9.555
57015SOL    HW172942   4.058   3.568   9.539
57015SOL    HW272943   4.112   3.656   9.651
57016SOL     OW72944   0.957   9.904   6.270
57016SOL    HW172945   0.862   9.912   6.275
57016SOL    HW272946   0.990   9.981   6.316
57017SOL     OW72947  12.857   6.677   0.224
57017SOL    HW172948  12.804   6.709   0.150
57017SOL    HW272949  12.944   6.662   0.187
57018SOL     OW72950   3.270  14.580  10.175
57018SOL    HW172951   3.242  14.489  10.169
57018SOL    HW272952   3.365  14.578  10.165
57019SOL     OW72953  14.826   1.473   6.233
57019SOL    HW172954  14.814   1.499   6.324
57019SOL    HW272955   0.039   1.489   6.216
57020SOL     OW72956  11.158   5.889   7.935
57020SOL    HW172957  11.223   5.905   7.866
57020SOL    HW272958  11.158   5.795   7.948
57021SOL     OW72959  12.585   9.375   2.484
57021SOL    HW172960  12.589   9.449   2.424
57021SOL    HW272961  12.589   9.414   2.571
57022SOL     OW72962   0.928   3.874   3.718
57022SOL    HW172963   0.869   3.801   3.700
57022SOL    HW272964   1.008   3.852   3.670
57023SOL     OW72965   8.311  12.504   3.219
57023SOL    HW172966   8.349  12.533   3.136
57023SOL    HW272967   8.266  12.581   3.253
57024SOL     OW72968  11.581   4.823  12.363
57024SOL    HW172969  11.601   4.896  12.305
57024SOL    HW272970  11.664   4.778  12.376
57025SOL     OW72971   1.319   7.923  10.590
57025SOL    HW172972   1.228   7.948  10.575
57025SOL    HW272973   1.338   7.953  10.679
57026SOL     OW72974   2.927   3.954   0.977
57026SOL    HW172975   2.921   3.982   0.886
57026SOL    HW272976   2.938   4.035   1.027
57027SOL     OW72977   4.258  12.205  11.242
57027SOL    HW172978   4.317  12.173  11.310
57027SOL    HW272979   4.294  12.169  11.160
57028SOL     OW72980  11.088   4.324  12.367
57028SOL    HW172981  11.074   4.267  12.292
57028SOL    HW272982  11.061   4.411  12.336
57029SOL     OW72983   0.506   4.711   3.230
57029SOL    HW172984   0.415   4.681   3.228
57029SOL    HW272985   0.557   4.630   3.233
57030SOL     OW72986   5.097   6.154   8.959
57030SOL    HW172987   5.015   6.150   9.008
57030SOL    HW272988   5.158   6.199   9.017
57031SOL     OW72989  12.644   6.689   7.641
57031SOL    HW172990  12.688   6.712   7.723
57031SOL    HW272991  12.693   6.738   7.574
57032SOL     OW72992  12.355   4.134  10.979
57032SOL    HW172993  12.291   4.205  10.983
57032SOL    HW272994  12.323   4.070  11.043
57033SOL     OW72995   6.248  12.490   0.525
57033SOL    HW172996   6.324  12.547   0.519
57033SOL    HW272997   6.195  12.512   0.449
57034SOL     OW72998   5.720   6.347   1.476
57034SOL    HW172999   5.638   6.347   1.526
57034SOL    HW273000   5.776   6.286   1.523
57035SOL     OW73001   1.093   9.891   7.097
57035SOL    HW173002   1.090   9.830   7.171
57035SOL    HW273003   1.117   9.974   7.136
57036SOL     OW73004  11.391   8.731   6.672
57036SOL    HW173005  11.474   8.778   6.665
57036SOL    HW273006  11.376   8.695   6.585
57037SOL     OW73007   9.911   6.059  14.635
57037SOL    HW173008   9.987   6.008  14.608
57037SOL    HW273009   9.855   6.061  14.558
57038SOL     OW73010   4.985   8.213   8.542
57038SOL    HW173011   4.910   8.206   8.601
57038SOL    HW273012   5.058   8.175   8.592
57039SOL     OW73013   5.317   4.185   1.264
57039SOL    HW173014   5.285   4.275   1.252
57039SOL    HW273015   5.407   4.187   1.232
57040SOL     OW73016  13.718   2.357  10.304
57040SOL    HW173017  13.808   2.390  10.299
57040SOL    HW273018  13.697   2.331  10.214
57041SOL     OW73019  12.914   6.278   6.735
57041SOL    HW173020  13.003   6.263   6.704
57041SOL    HW273021  12.880   6.191   6.753
57042SOL     OW73022  13.243   1.714  10.408
57042SOL    HW173023  13.237   1.723  10.312
57042SOL    HW273024  13.227   1.802  10.441
57043SOL     OW73025   3.753   1.157   5.929
57043SOL    HW173026   3.765   1.251   5.923
57043SOL    HW273027   3.802   1.121   5.855
57044SOL     OW73028   3.268   2.267   8.499
57044SOL    HW173029   3.208   2.193   8.502
57044SOL    HW273030   3.214   2.343   8.517
57045SOL     OW73031   9.704   2.300  10.543
57045SOL    HW173032   9.730   2.216  10.504
57045SOL    HW273033   9.745   2.366  10.488
57046SOL     OW73034   0.448   6.697  13.368
57046SOL    HW173035   0.471   6.604  13.373
57046SOL    HW273036   0.356   6.699  13.344
57047SOL     OW73037  12.801  14.474   2.957
57047SOL    HW173038  12.708  14.495   2.967
57047SOL    HW273039  12.836  14.480   3.045
57048SOL     OW73040   8.522   5.739  10.822
57048SOL    HW173041   8.456   5.808  10.821
57048SOL    HW273042   8.475   5.661  10.850
57049SOL     OW73043  10.777  11.435  14.610
57049SOL    HW173044  10.796  11.527  14.628
57049SOL    HW273045  10.813  11.420  14.522
57050SOL     OW73046   0.260   2.410   4.811
57050SOL    HW173047   0.278   2.346   4.742
57050SOL    HW273048   0.318   2.483   4.792
57051SOL     OW73049  10.432   0.993  10.197
57051SOL    HW173050  10.411   0.900  10.195
57051SOL    HW273051  10.422   1.023  10.106
57052SOL     OW73052   1.459   8.137  13.395
57052SOL    HW173053   1.541   8.166  13.355
57052SOL    HW273054   1.425   8.071  13.335
57053SOL     OW73055  12.518  14.274  11.805
57053SOL    HW173056  12.493  14.348  11.860
57053SOL    HW273057  12.575  14.313  11.738
57054SOL     OW73058   8.027   5.661   8.982
57054SOL    HW173059   8.040   5.713   8.903
57054SOL    HW273060   8.112   5.620   8.999
57055SOL     OW73061   0.009   8.638   0.365
57055SOL    HW173062   0.025   8.545   0.376
57055SOL    HW273063  14.870   8.670   0.453
57056SOL     OW73064   2.566   5.527  11.331
57056SOL    HW173065   2.571   5.601  11.392
57056SOL    HW273066   2.472   5.507  11.324
57057SOL     OW73067   7.498   7.152   8.065
57057SOL    HW173068   7.571   7.175   8.123
57057SOL    HW273069   7.536   7.093   8.001
57058SOL     OW73070   7.628   8.376   3.556
57058SOL    HW173071   7.595   8.401   3.642
57058SOL    HW273072   7.590   8.290   3.539
57059SOL     OW73073  10.729  13.900  10.181
57059SOL    HW173074  10.737  13.875  10.273
57059SOL    HW273075  10.682  13.984  10.183
57060SOL     OW73076   3.989   1.743  13.862
57060SOL    HW173077   3.979   1.747  13.957
57060SOL    HW273078   3.988   1.649  13.842
57061SOL     OW73079   7.287  12.915   7.790
57061SOL    HW173080   7.217  12.948   7.735
57061SOL    HW273081   7.354  12.885   7.728
57062SOL     OW73082   0.972   0.756  11.315
57062SOL    HW173083   1.039   0.796  11.371
57062SOL    HW273084   0.900   0.735  11.375
57063SOL     OW73085   4.639  10.481   9.825
57063SOL    HW173086   4.565  10.424   9.844
57063SOL    HW273087   4.716  10.424   9.833
57064SOL     OW73088   8.353   5.996   8.530
57064SOL    HW173089   8.272   5.946   8.538
57064SOL    HW273090   8.423   5.932   8.544
57065SOL     OW73091   0.213   0.018   6.389
57065SOL    HW173092   0.220  14.823   6.329
57065SOL    HW273093   0.146  14.872   6.451
57066SOL     OW73094  11.698  10.718  14.400
57066SOL    HW173095  11.609  10.752  14.396
57066SOL    HW273096  11.688  10.623  14.401
57067SOL     OW73097   6.931   8.039   1.561
57067SOL    HW173098   6.870   8.010   1.493
57067SOL    HW273099   6.997   8.090   1.514
57068SOL     OW73100   9.691   6.753   0.038
57068SOL    HW173101   9.711   6.760   0.131
57068SOL    HW273102   9.768   6.790  14.874
57069SOL     OW73103  12.646   5.767   3.160
57069SOL    HW173104  12.570   5.816   3.131
57069SOL    HW273105  12.677   5.813   3.237
57070SOL     OW73106   7.557   9.986   9.788
57070SOL    HW173107   7.561  10.078   9.764
57070SOL    HW273108   7.639   9.971   9.836
57071SOL     OW73109   3.623   6.389   8.840
57071SOL    HW173110   3.674   6.310   8.862
57071SOL    HW273111   3.569   6.404   8.917
57072SOL     OW73112   8.485   0.092   9.645
57072SOL    HW173113   8.560   0.150   9.662
57072SOL    HW273114   8.413   0.130   9.696
57073SOL     OW73115   1.583   0.734   2.401
57073SOL    HW173116   1.626   0.814   2.368
57073SOL    HW273117   1.655   0.677   2.427
57074SOL     OW73118  11.111   8.421  14.048
57074SOL    HW173119  11.082   8.421  14.140
57074SOL    HW273120  11.117   8.328  14.025
57075SOL     OW73121   1.124   3.580   3.145
57075SOL    HW173122   1.176   3.619   3.075
57075SOL    HW273123   1.154   3.489   3.149
57076SOL     OW73124  14.142  10.304   5.978
57076SOL    HW173125  14.088  10.327   5.903
57076SOL    HW273126  14.165  10.212   5.965
57077SOL     OW73127   5.259  12.620   2.868
57077SOL    HW173128   5.223  12.599   2.782
57077SOL    HW273129   5.183  12.626   2.925
57078SOL     OW73130  11.372   4.423  11.511
57078SOL    HW173131  11.281   4.421  11.541
57078SOL    HW273132  11.417   4.362  11.570
57079SOL     OW73133   9.076   7.755   6.613
57079SOL    HW173134   9.061   7.762   6.519
57079SOL    HW273135   9.137   7.826   6.633
57080SOL     OW73136   2.049   0.470  10.989
57080SOL    HW173137   1.996   0.436  11.060
57080SOL    HW273138   2.122   0.514  11.032
57081SOL     OW73139   9.941   9.487   3.003
57081SOL    HW173140   9.851   9.500   3.031
57081SOL    HW273141   9.993   9.540   3.064
57082SOL     OW73142   2.509   8.235  12.264
57082SOL    HW173143   2.521   8.199  12.176
57082SOL    HW273144   2.485   8.159  12.318
57083SOL     OW73145  14.797  13.077  10.296
57083SOL    HW173146  14.821  13.100  10.206
57083SOL    HW273147  14.774  12.984  10.292
57084SOL     OW73148  11.207  10.010   5.238
57084SOL    HW173149  11.289  10.035   5.194
57084SOL    HW273150  11.222   9.920   5.266
57085SOL     OW73151  13.663   5.250  13.480
57085SOL    HW173152  13.749   5.287  13.499
57085SOL    HW273153  13.662   5.238  13.385
57086SOL     OW73154   6.131   0.178   9.969
57086SOL    HW173155   6.223   0.155   9.962
57086SOL    HW273156   6.088   0.098   9.998
57087SOL     OW73157  10.816   3.481   6.362
57087SOL    HW173158  10.875   3.443   6.296
57087SOL    HW273159  10.730   3.445   6.340
57088SOL     OW73160   9.590  14.485   5.557
57088SOL    HW173161   9.577  14.571   5.597
57088SOL    HW273162   9.673  14.493   5.509
57089SOL     OW73163   0.890   2.359  10.079
57089SOL    HW173164   0.942   2.393  10.006
57089SOL    HW273165   0.810   2.325  10.038
57090SOL     OW73166   6.537  13.426  13.745
57090SOL    HW173167   6.447  13.403  13.721
57090SOL    HW273168   6.547  13.517  13.717
57091SOL     OW73169   9.896   0.615  10.132
57091SOL    HW173170   9.876   0.671  10.206
57091SOL    HW273171   9.959   0.551  10.166
57092SOL     OW73172  12.230   0.887   9.975
57092SOL    HW173173  12.294   0.953   9.949
57092SOL    HW273174  12.199   0.915  10.061
57093SOL     OW73175   5.809   5.300  12.146
57093SOL    HW173176   5.714   5.312  12.137
57093SOL    HW273177   5.830   5.334  12.233
57094SOL     OW73178   3.155  14.541   3.471
57094SOL    HW173179   3.099  14.466   3.491
57094SOL    HW273180   3.176  14.578   3.557
57095SOL     OW73181  12.332   5.978   5.037
57095SOL    HW173182  12.355   6.050   4.978
57095SOL    HW273183  12.334   6.017   5.124
57096SOL     OW73184   5.794   1.889  12.995
57096SOL    HW173185   5.742   1.927  13.066
57096SOL    HW273186   5.749   1.807  12.973
57097SOL     OW73187   1.984   0.966  11.724
57097SOL    HW173188   2.010   1.046  11.769
57097SOL    HW273189   1.902   0.988  11.679
57098SOL     OW73190   6.431  11.805  13.370
57098SOL    HW173191   6.502  11.743  13.383
57098SOL    HW273192   6.464  11.868  13.306
57099SOL     OW73193   3.657   9.236   9.759
57099SOL    HW173194   3.609   9.272   9.684
57099SOL    HW273195   3.625   9.287   9.833
57100SOL     OW73196   0.029   7.938  11.280
57100SOL    HW173197  14.842   7.936  11.348
57100SOL    HW273198   0.055   8.030  11.274
57101SOL     OW73199   8.861  13.244   4.231
57101SOL    HW173200   8.845  13.287   4.315
57101SOL    HW273201   8.823  13.157   4.241
57102SOL     OW73202   3.299   7.716  13.433
57102SOL    HW173203   3.319   7.663  13.356
57102SOL    HW273204   3.233   7.778  13.403
57103SOL     OW73205   0.731  13.667   0.343
57103SOL    HW173206   0.795  13.687   0.411
57103SOL    HW273207   0.712  13.751   0.302
57104SOL     OW73208   0.803   9.724  13.989
57104SOL    HW173209   0.858   9.650  14.013
57104SOL    HW273210   0.734   9.726  14.055
57105SOL     OW73211   8.796   9.041   9.566
57105SOL    HW173212   8.892   9.038   9.565
57105SOL    HW273213   8.775   9.096   9.641
57106SOL     OW73214  11.172   2.745   4.435
57106SOL    HW173215  11.089   2.720   4.394
57106SOL    HW273216  11.202   2.820   4.385
57107SOL     OW73217   9.716   0.909  11.039
57107SOL    HW173218   9.631   0.946  11.015
57107SOL    HW273219   9.703   0.814  11.036
57108SOL     OW73220   9.198   3.504  12.051
57108SOL    HW173221   9.109   3.479  12.025
57108SOL    HW273222   9.234   3.549  11.975
57109SOL     OW73223   3.861   7.164   6.828
57109SOL    HW173224   3.834   7.130   6.742
57109SOL    HW273225   3.901   7.090   6.872
57110SOL     OW73226   5.302  12.855   0.900
57110SOL    HW173227   5.228  12.800   0.925
57110SOL    HW273228   5.317  12.912   0.975
57111SOL     OW73229   7.763   7.739   3.957
57111SOL    HW173230   7.806   7.807   3.904
57111SOL    HW273231   7.818   7.661   3.944
57112SOL     OW73232   8.545  13.278  13.158
57112SOL    HW173233   8.541  13.253  13.066
57112SOL    HW273234   8.454  13.278  13.187
57113SOL     OW73235   3.313   6.721   1.139
57113SOL    HW173236   3.365   6.802   1.137
57113SOL    HW273237   3.246   6.739   1.205
57114SOL     OW73238  13.824  11.654   4.033
57114SOL    HW173239  13.756  11.588   4.047
57114SOL    HW273240  13.907  11.606   4.040
57115SOL     OW73241   0.112  10.079  11.307
57115SOL    HW173242   0.142  10.170  11.311
57115SOL    HW273243   0.185  10.032  11.267
57116SOL     OW73244   3.348   9.866   2.487
57116SOL    HW173245   3.323   9.801   2.553
57116SOL    HW273246   3.414   9.821   2.433
57117SOL     OW73247   9.931   5.942  12.525
57117SOL    HW173248  10.007   5.976  12.477
57117SOL    HW273249   9.921   5.852  12.493
57118SOL     OW73250   8.196   4.910   4.894
57118SOL    HW173251   8.150   4.994   4.901
57118SOL    HW273252   8.163   4.871   4.814
57119SOL     OW73253   9.339   0.549  10.789
57119SOL    HW173254   9.355   0.510  10.875
57119SOL    HW273255   9.422   0.544  10.743
57120SOL     OW73256   1.053  14.330  11.893
57120SOL    HW173257   1.090  14.335  11.805
57120SOL    HW273258   1.118  14.280  11.943
57121SOL     OW73259   9.808  12.090   5.038
57121SOL    HW173260   9.866  12.037   4.983
57121SOL    HW273261   9.854  12.096   5.122
57122SOL     OW73262   2.341   1.258   7.679
57122SOL    HW173263   2.407   1.318   7.645
57122SOL    HW273264   2.390   1.191   7.726
57123SOL     OW73265   6.296  11.673   5.422
57123SOL    HW173266   6.286  11.681   5.327
57123SOL    HW273267   6.327  11.760   5.450
57124SOL     OW73268   3.073   3.141   2.493
57124SOL    HW173269   3.011   3.082   2.450
57124SOL    HW273270   3.071   3.221   2.440
57125SOL     OW73271   4.760   1.085  12.756
57125SOL    HW173272   4.692   1.021  12.735
57125SOL    HW273273   4.715   1.150  12.810
57126SOL     OW73274   7.384  12.276   4.030
57126SOL    HW173275   7.432  12.277   4.113
57126SOL    HW273276   7.439  12.223   3.972
57127SOL     OW73277   4.425   3.696  10.891
57127SOL    HW173278   4.394   3.649  10.969
57127SOL    HW273279   4.413   3.634  10.819
57128SOL     OW73280   7.465   7.188  10.406
57128SOL    HW173281   7.553   7.226  10.409
57128SOL    HW273282   7.471   7.110  10.462
57129SOL     OW73283   3.126  10.298  13.377
57129SOL    HW173284   3.157  10.209  13.396
57129SOL    HW273285   3.192  10.355  13.416
57130SOL     OW73286   6.940  11.530  11.161
57130SOL    HW173287   6.846  11.539  11.151
57130SOL    HW273288   6.964  11.459  11.101
57131SOL     OW73289   2.169  10.483  12.741
57131SOL    HW173290   2.109  10.480  12.667
57131SOL    HW273291   2.189  10.391  12.759
57132SOL     OW73292  13.702   6.879   4.222
57132SOL    HW173293  13.749   6.940   4.165
57132SOL    HW273294  13.638   6.933   4.269
57133SOL     OW73295  14.143  12.524   7.635
57133SOL    HW173296  14.055  12.559   7.649
57133SOL    HW273297  14.186  12.588   7.579
57134SOL     OW73298   3.846   1.234   4.266
57134SOL    HW173299   3.877   1.152   4.229
57134SOL    HW273300   3.901   1.301   4.226
57135SOL     OW73301  11.845   9.163   5.267
57135SOL    HW173302  11.810   9.206   5.345
57135SOL    HW273303  11.773   9.111   5.233
57136SOL     OW73304   4.927   4.590   0.834
57136SOL    HW173305   4.976   4.575   0.753
57136SOL    HW273306   4.841   4.619   0.804
57137SOL     OW73307  13.223   2.344   8.061
57137SOL    HW173308  13.224   2.249   8.049
57137SOL    HW273309  13.256   2.357   8.150
57138SOL     OW73310   2.411  13.474  11.763
57138SOL    HW173311   2.351  13.446  11.832
57138SOL    HW273312   2.498  13.446  11.793
57139SOL     OW73313   1.453  10.078   4.943
57139SOL    HW173314   1.490  10.007   4.995
57139SOL    HW273315   1.387  10.117   5.000
57140SOL     OW73316   9.261  10.463  10.324
57140SOL    HW173317   9.186  10.495  10.274
57140SOL    HW273318   9.337  10.487  10.271
57141SOL     OW73319   5.598   9.219   3.342
57141SOL    HW173320   5.680   9.240   3.297
57141SOL    HW273321   5.564   9.143   3.295
57142SOL     OW73322  10.387  10.940   5.295
57142SOL    HW173323  10.305  10.962   5.252
57142SOL    HW273324  10.454  10.987   5.244
57143SOL     OW73325  10.978  10.087   9.838
57143SOL    HW173326  11.003  10.090   9.930
57143SOL    HW273327  10.882  10.087   9.839
57144SOL     OW73328   0.821   7.962   7.027
57144SOL    HW173329   0.819   8.045   7.074
57144SOL    HW273330   0.876   7.905   7.082
57145SOL     OW73331  14.338  11.831  13.149
57145SOL    HW173332  14.405  11.778  13.106
57145SOL    HW273333  14.303  11.886  13.079
57146SOL     OW73334   0.039   3.637   4.543
57146SOL    HW173335   0.035   3.542   4.554
57146SOL    HW273336  14.847   3.657   4.483
57147SOL     OW73337   3.101   5.649   3.232
57147SOL    HW173338   3.012   5.681   3.245
57147SOL    HW273339   3.105   5.631   3.138
57148SOL     OW73340   1.241   5.579  13.958
57148SOL    HW173341   1.289   5.498  13.943
57148SOL    HW273342   1.307   5.648  13.953
57149SOL     OW73343   5.297   0.387  12.065
57149SOL    HW173344   5.221   0.365  12.010
57149SOL    HW273345   5.329   0.303  12.097
57150SOL     OW73346  12.265   0.299   9.956
57150SOL    HW173347  12.221   0.358   9.895
57150SOL    HW273348  12.280   0.352  10.034
57151SOL     OW73349   9.097   0.383   1.978
57151SOL    HW173350   9.021   0.394   2.036
57151SOL    HW273351   9.171   0.416   2.029
57152SOL     OW73352  10.456   5.385   7.452
57152SOL    HW173353  10.437   5.445   7.379
57152SOL    HW273354  10.531   5.425   7.497
57153SOL     OW73355   2.994   4.067  10.283
57153SOL    HW173356   2.941   3.992  10.254
57153SOL    HW273357   3.084   4.042  10.262
57154SOL     OW73358  10.899   5.589  10.309
57154SOL    HW173359  10.854   5.508  10.333
57154SOL    HW273360  10.970   5.560  10.251
57155SOL     OW73361  12.652  14.701  12.912
57155SOL    HW173362  12.626  14.697  12.820
57155SOL    HW273363  12.573  14.678  12.961
57156SOL     OW73364   1.689   3.918  13.343
57156SOL    HW173365   1.613   3.913  13.285
57156SOL    HW273366   1.721   3.828  13.348
57157SOL     OW73367  10.987   4.149   7.439
57157SOL    HW173368  11.082   4.152   7.424
57157SOL    HW273369  10.972   4.062   7.475
57158SOL     OW73370  13.159  12.548  14.468
57158SOL    HW173371  13.101  12.588  14.404
57158SOL    HW273372  13.114  12.467  14.494
57159SOL     OW73373   4.696   7.667   3.200
57159SOL    HW173374   4.739   7.587   3.232
57159SOL    HW273375   4.612   7.670   3.245
57160SOL     OW73376   3.586   3.213  13.794
57160SOL    HW173377   3.575   3.170  13.709
57160SOL    HW273378   3.517   3.176  13.849
57161SOL     OW73379   8.034  13.015  11.518
57161SOL    HW173380   8.091  13.086  11.488
57161SOL    HW273381   7.999  12.976  11.438
57162SOL     OW73382  14.390   4.341  13.111
57162SOL    HW173383  14.319   4.383  13.064
57162SOL    HW273384  14.408   4.401  13.184
57163SOL     OW73385  13.236   7.866   1.206
57163SOL    HW173386  13.262   7.798   1.143
57163SOL    HW273387  13.275   7.838   1.289
57164SOL     OW73388  13.374   4.970   5.003
57164SOL    HW173389  13.305   5.031   4.978
57164SOL    HW273390  13.339   4.923   5.079
57165SOL     OW73391  12.469   8.673   1.678
57165SOL    HW173392  12.416   8.706   1.606
57165SOL    HW273393  12.440   8.722   1.754
57166SOL     OW73394  13.138  11.530   5.777
57166SOL    HW173395  13.049  11.560   5.793
57166SOL    HW273396  13.129  11.442   5.742
57167SOL     OW73397   0.604  13.719  12.935
57167SOL    HW173398   0.603  13.772  12.855
57167SOL    HW273399   0.597  13.628  12.904
57168SOL     OW73400  11.700   9.287  14.583
57168SOL    HW173401  11.726   9.314  14.495
57168SOL    HW273402  11.606   9.306  14.588
57169SOL     OW73403   5.942   0.511   0.861
57169SOL    HW173404   5.955   0.455   0.784
57169SOL    HW273405   5.848   0.508   0.878
57170SOL     OW73406  13.050  14.041  13.702
57170SOL    HW173407  13.111  14.024  13.773
57170SOL    HW273408  13.070  13.974  13.636
57171SOL     OW73409   0.140   4.755  10.136
57171SOL    HW173410   0.136   4.726  10.045
57171SOL    HW273411   0.181   4.683  10.183
57172SOL     OW73412  12.119   3.840  13.390
57172SOL    HW173413  12.091   3.929  13.369
57172SOL    HW273414  12.039   3.788  13.386
57173SOL     OW73415  14.216   5.793  12.151
57173SOL    HW173416  14.177   5.711  12.122
57173SOL    HW273417  14.142   5.844  12.184
57174SOL     OW73418  14.047   5.223  11.939
57174SOL    HW173419  14.083   5.283  11.874
57174SOL    HW273420  13.994   5.162  11.889
57175SOL     OW73421   1.700   6.019  13.486
57175SOL    HW173422   1.780   6.071  13.485
57175SOL    HW273423   1.648   6.056  13.557
57176SOL     OW73424  12.520   7.429   3.144
57176SOL    HW173425  12.546   7.337   3.138
57176SOL    HW273426  12.565   7.472   3.071
57177SOL     OW73427   0.937  12.347  10.334
57177SOL    HW173428   0.991  12.269  10.349
57177SOL    HW273429   0.942  12.396  10.416
57178SOL     OW73430   7.932  11.621   5.020
57178SOL    HW173431   7.918  11.581   5.106
57178SOL    HW273432   7.864  11.583   4.964
57179SOL     OW73433   6.304   2.897  13.110
57179SOL    HW173434   6.225   2.950  13.117
57179SOL    HW273435   6.278   2.810  13.141
57180SOL     OW73436   4.425   9.092   3.673
57180SOL    HW173437   4.397   9.134   3.755
57180SOL    HW273438   4.519   9.078   3.684
57181SOL     OW73439   9.184   8.692   7.557
57181SOL    HW173440   9.153   8.773   7.517
57181SOL    HW273441   9.134   8.685   7.638
57182SOL     OW73442  11.678   6.930  11.069
57182SOL    HW173443  11.662   7.011  11.117
57182SOL    HW273444  11.591   6.892  11.057
57183SOL     OW73445  12.797  12.590   4.842
57183SOL    HW173446  12.834  12.643   4.913
57183SOL    HW273447  12.710  12.565   4.874
57184SOL     OW73448   2.297  13.372   9.020
57184SOL    HW173449   2.372  13.331   8.977
57184SOL    HW273450   2.322  13.377   9.113
57185SOL     OW73451  11.480   4.280   7.861
57185SOL    HW173452  11.423   4.204   7.852
57185SOL    HW273453  11.487   4.294   7.956
57186SOL     OW73454   3.947   6.051  10.724
57186SOL    HW173455   4.035   6.025  10.752
57186SOL    HW273456   3.915   6.109  10.793
57187SOL     OW73457   2.620  13.743  14.083
57187SOL    HW173458   2.576  13.668  14.043
57187SOL    HW273459   2.549  13.797  14.116
57188SOL     OW73460  12.390   1.614   0.048
57188SOL    HW173461  12.298   1.614   0.075
57188SOL    HW273462  12.439   1.609   0.131
57189SOL     OW73463   8.051  12.455   7.767
57189SOL    HW173464   7.967  12.411   7.762
57189SOL    HW273465   8.109  12.391   7.809
57190SOL     OW73466   0.762   7.061   9.646
57190SOL    HW173467   0.742   6.981   9.598
57190SOL    HW273468   0.850   7.085   9.617
57191SOL     OW73469  10.839   2.509   9.609
57191SOL    HW173470  10.838   2.546   9.697
57191SOL    HW273471  10.928   2.476   9.597
57192SOL     OW73472  10.759   0.351   0.250
57192SOL    HW173473  10.825   0.374   0.185
57192SOL    HW273474  10.803   0.360   0.334
57193SOL     OW73475   2.248   4.453   5.025
57193SOL    HW173476   2.319   4.500   4.980
57193SOL    HW273477   2.286   4.428   5.109
57194SOL     OW73478   9.900   9.481   9.693
57194SOL    HW173479   9.940   9.395   9.707
57194SOL    HW273480   9.903   9.494   9.598
57195SOL     OW73481  10.808  10.502   5.527
57195SOL    HW173482  10.864  10.425   5.521
57195SOL    HW273483  10.719  10.467   5.522
57196SOL     OW73484   4.411   5.033   2.990
57196SOL    HW173485   4.360   5.113   2.983
57196SOL    HW273486   4.353   4.970   3.032
57197SOL     OW73487   5.055  10.175   4.723
57197SOL    HW173488   5.005  10.204   4.800
57197SOL    HW273489   5.003  10.104   4.686
57198SOL     OW73490   0.305  10.090  10.209
57198SOL    HW173491   0.283  10.032  10.282
57198SOL    HW273492   0.346  10.167  10.250
57199SOL     OW73493   7.181   7.014   9.420
57199SOL    HW173494   7.195   7.095   9.372
57199SOL    HW273495   7.194   6.945   9.355
57200SOL     OW73496   7.367   5.383  11.397
57200SOL    HW173497   7.289   5.431  11.424
57200SOL    HW273498   7.339   5.329  11.324
57201SOL     OW73499   8.952   6.247  12.804
57201SOL    HW173500   9.037   6.285  12.781
57201SOL    HW273501   8.963   6.221  12.896
57202SOL     OW73502   0.964   8.738  13.096
57202SOL    HW173503   0.965   8.784  13.180
57202SOL    HW273504   0.984   8.647  13.119
57203SOL     OW73505   1.575   3.171   5.779
57203SOL    HW173506   1.481   3.182   5.760
57203SOL    HW273507   1.619   3.221   5.710
57204SOL     OW73508   3.240   5.802  10.382
57204SOL    HW173509   3.262   5.757  10.300
57204SOL    HW273510   3.299   5.877  10.385
57205SOL     OW73511   7.470   8.129   3.531
57205SOL    HW173512   7.435   8.167   3.451
57205SOL    HW273513   7.394   8.123   3.589
57206SOL     OW73514  14.678   7.203   4.245
57206SOL    HW173515  14.691   7.298   4.246
57206SOL    HW273516  14.621   7.186   4.320
57207SOL     OW73517  10.634  14.053  14.491
57207SOL    HW173518  10.703  14.100  14.538
57207SOL    HW273519  10.606  13.984  14.552
57208SOL     OW73520  10.409   1.904   0.166
57208SOL    HW173521  10.431   1.833   0.106
57208SOL    HW273522  10.485   1.962   0.164
57209SOL     OW73523  13.100   0.394  11.044
57209SOL    HW173524  13.161   0.407  11.116
57209SOL    HW273525  13.156   0.374  10.968
57210SOL     OW73526  14.522  11.704  13.571
57210SOL    HW173527  14.612  11.678  13.554
57210SOL    HW273528  14.522  11.799  13.561
57211SOL     OW73529  13.967  13.100   6.786
57211SOL    HW173530  13.947  13.129   6.697
57211SOL    HW273531  14.062  13.091   6.788
57212SOL     OW73532  14.762  10.204   1.634
57212SOL    HW173533  14.726  10.242   1.714
57212SOL    HW273534  14.822  10.136   1.664
57213SOL     OW73535  11.361  14.812  12.075
57213SOL    HW173536  11.319  14.729  12.057
57213SOL    HW273537  11.443  14.809  12.025
57214SOL     OW73538  12.967  11.158  13.019
57214SOL    HW173539  12.897  11.094  13.006
57214SOL    HW273540  12.922  11.242  13.026
57215SOL     OW73541  11.773  11.964   9.319
57215SOL    HW173542  11.749  11.980   9.410
57215SOL    HW273543  11.710  12.014   9.268
57216SOL     OW73544   6.402  12.253   5.506
57216SOL    HW173545   6.410  12.258   5.601
57216SOL    HW273546   6.308  12.261   5.489
57217SOL     OW73547  10.721  10.069   0.838
57217SOL    HW173548  10.627  10.054   0.850
57217SOL    HW273549  10.761   9.983   0.852
57218SOL     OW73550  13.476   4.524   8.458
57218SOL    HW173551  13.447   4.433   8.462
57218SOL    HW273552  13.404   4.573   8.497
57219SOL     OW73553   1.187  12.497  12.457
57219SOL    HW173554   1.224  12.456  12.535
57219SOL    HW273555   1.170  12.424  12.397
57220SOL     OW73556   7.134   8.288   4.643
57220SOL    HW173557   7.055   8.294   4.588
57220SOL    HW273558   7.144   8.194   4.659
57221SOL     OW73559   7.235   9.098   5.560
57221SOL    HW173560   7.166   9.106   5.494
57221SOL    HW273561   7.268   9.187   5.571
57222SOL     OW73562   6.156   0.504   9.711
57222SOL    HW173563   6.138   0.410   9.716
57222SOL    HW273564   6.160   0.523   9.617
57223SOL     OW73565  10.688   6.350   6.257
57223SOL    HW173566  10.627   6.319   6.190
57223SOL    HW273567  10.684   6.283   6.325
57224SOL     OW73568   1.032   1.141  12.448
57224SOL    HW173569   1.042   1.186  12.532
57224SOL    HW273570   1.074   1.056  12.461
57225SOL     OW73571   1.362   4.254   2.787
57225SOL    HW173572   1.443   4.241   2.737
57225SOL    HW273573   1.294   4.219   2.731
57226SOL     OW73574  11.296   7.795  12.802
57226SOL    HW173575  11.365   7.774  12.865
57226SOL    HW273576  11.318   7.744  12.724
57227SOL     OW73577  11.513  11.329  13.699
57227SOL    HW173578  11.475  11.396  13.757
57227SOL    HW273579  11.584  11.291  13.750
57228SOL     OW73580   5.942   3.669   7.301
57228SOL    HW173581   5.983   3.717   7.229
57228SOL    HW273582   5.927   3.581   7.266
57229SOL     OW73583  11.101   5.216  13.522
57229SOL    HW173584  11.085   5.138  13.576
57229SOL    HW273585  11.015   5.258  13.514
57230SOL     OW73586   6.151   5.608   2.953
57230SOL    HW173587   6.125   5.691   2.993
57230SOL    HW273588   6.172   5.630   2.863
57231SOL     OW73589   8.622  11.355   4.501
57231SOL    HW173590   8.560  11.320   4.565
57231SOL    HW273591   8.649  11.440   4.537
57232SOL     OW73592   5.518   8.688  11.136
57232SOL    HW173593   5.580   8.616  11.128
57232SOL    HW273594   5.434   8.646  11.155
57233SOL     OW73595   6.431   8.635   4.223
57233SOL    HW173596   6.443   8.571   4.294
57233SOL    HW273597   6.426   8.719   4.268
57234SOL     OW73598   8.560   3.045   1.171
57234SOL    HW173599   8.532   2.992   1.245
57234SOL    HW273600   8.525   3.132   1.189
57235SOL     OW73601   6.481   2.134   7.091
57235SOL    HW173602   6.482   2.095   7.004
57235SOL    HW273603   6.542   2.081   7.142
57236SOL     OW73604  13.199   2.992   6.560
57236SOL    HW173605  13.139   3.007   6.633
57236SOL    HW273606  13.231   3.080   6.537
57237SOL     OW73607   5.949  11.309  12.961
57237SOL    HW173608   5.958  11.239  13.026
57237SOL    HW273609   6.035  11.315  12.920
57238SOL     OW73610  13.566   0.615  14.094
57238SOL    HW173611  13.502   0.622  14.023
57238SOL    HW273612  13.544   0.534  14.139
57239SOL     OW73613   9.998  11.893   5.719
57239SOL    HW173614   9.983  11.800   5.739
57239SOL    HW273615   9.933  11.939   5.772
57240SOL     OW73616   5.964   2.912   9.884
57240SOL    HW173617   5.917   2.848   9.936
57240SOL    HW273618   5.897   2.954   9.830
57241SOL     OW73619   3.809  10.035  13.720
57241SOL    HW173620   3.796  10.017  13.627
57241SOL    HW273621   3.779  10.125  13.732
57242SOL     OW73622   9.661  10.970   2.827
57242SOL    HW173623   9.571  11.000   2.812
57242SOL    HW273624   9.713  11.015   2.760
57243SOL     OW73625   7.065   0.776   0.587
57243SOL    HW173626   6.978   0.763   0.625
57243SOL    HW273627   7.097   0.856   0.628
57244SOL     OW73628   1.004   1.642  11.919
57244SOL    HW173629   1.024   1.688  11.838
57244SOL    HW273630   1.084   1.593  11.939
57245SOL     OW73631   9.478   1.871   6.979
57245SOL    HW173632   9.394   1.825   6.980
57245SOL    HW273633   9.454   1.964   6.969
57246SOL     OW73634   6.741   1.795   2.748
57246SOL    HW173635   6.783   1.789   2.834
57246SOL    HW273636   6.813   1.816   2.688
57247SOL     OW73637   7.844   3.911   6.385
57247SOL    HW173638   7.776   3.915   6.452
57247SOL    HW273639   7.835   3.993   6.336
57248SOL     OW73640   9.390   1.181   7.033
57248SOL    HW173641   9.433   1.112   7.083
57248SOL    HW273642   9.370   1.141   6.948
57249SOL     OW73643   3.355   3.046  13.052
57249SOL    HW173644   3.277   3.071  13.003
57249SOL    HW273645   3.386   3.128  13.091
57250SOL     OW73646  10.158   8.463   1.778
57250SOL    HW173647  10.085   8.402   1.766
57250SOL    HW273648  10.117   8.545   1.805
57251SOL     OW73649   9.769  13.784   2.157
57251SOL    HW173650   9.699  13.751   2.214
57251SOL    HW273651   9.726  13.849   2.101
57252SOL     OW73652   3.107   5.796   9.476
57252SOL    HW173653   3.064   5.842   9.405
57252SOL    HW273654   3.200   5.815   9.464
57253SOL     OW73655   1.766   5.940   4.988
57253SOL    HW173656   1.797   5.868   5.044
57253SOL    HW273657   1.775   6.018   5.042
57254SOL     OW73658  13.753  10.567  13.573
57254SOL    HW173659  13.731  10.482  13.611
57254SOL    HW273660  13.827  10.598  13.624
57255SOL     OW73661   0.954   5.862   2.165
57255SOL    HW173662   0.946   5.946   2.119
57255SOL    HW273663   1.025   5.876   2.228
57256SOL     OW73664  11.354   9.396   5.963
57256SOL    HW173665  11.381   9.317   6.010
57256SOL    HW273666  11.275   9.425   6.009
57257SOL     OW73667  13.983   8.966   1.268
57257SOL    HW173668  14.073   8.986   1.242
57257SOL    HW273669  13.990   8.892   1.328
57258SOL     OW73670   4.689  11.933  10.123
57258SOL    HW173671   4.662  11.937  10.032
57258SOL    HW273672   4.693  12.024  10.152
57259SOL     OW73673   0.329   6.498  10.752
57259SOL    HW173674   0.421   6.516  10.728
57259SOL    HW273675   0.334   6.425  10.813
57260SOL     OW73676   5.838   8.398   9.894
57260SOL    HW173677   5.902   8.423   9.827
57260SOL    HW273678   5.769   8.352   9.846
57261SOL     OW73679  13.645  12.943  12.669
57261SOL    HW173680  13.666  12.857  12.706
57261SOL    HW273681  13.575  12.926  12.606
57262SOL     OW73682   5.583   8.867   0.829
57262SOL    HW173683   5.571   8.893   0.738
57262SOL    HW273684   5.663   8.813   0.828
57263SOL     OW73685   4.000   1.198   6.485
57263SOL    HW173686   4.021   1.223   6.575
57263SOL    HW273687   3.923   1.141   6.493
57264SOL     OW73688   9.972   8.317   5.331
57264SOL    HW173689   9.972   8.403   5.373
57264SOL    HW273690   9.907   8.325   5.261
57265SOL     OW73691  13.006  13.835   9.889
57265SOL    HW173692  12.946  13.770   9.924
57265SOL    HW273693  13.003  13.822   9.794
57266SOL     OW73694  12.027  11.483   5.143
57266SOL    HW173695  12.121  11.476   5.126
57266SOL    HW273696  11.997  11.554   5.087
57267SOL     OW73697   7.918   1.184   2.171
57267SOL    HW173698   7.937   1.275   2.190
57267SOL    HW273699   7.979   1.134   2.226
57268SOL     OW73700   8.896   5.353  10.243
57268SOL    HW173701   8.912   5.293  10.315
57268SOL    HW273702   8.918   5.303  10.164
57269SOL     OW73703   3.322   8.519  14.607
57269SOL    HW173704   3.385   8.448  14.609
57269SOL    HW273705   3.366   8.590  14.559
57270SOL     OW73706   2.201   4.652   4.403
57270SOL    HW173707   2.193   4.686   4.493
57270SOL    HW273708   2.263   4.580   4.411
57271SOL     OW73709   9.824   4.559   5.879
57271SOL    HW173710   9.767   4.636   5.890
57271SOL    HW273711   9.912   4.592   5.898
57272SOL     OW73712   0.298   2.027  11.125
57272SOL    HW173713   0.228   1.997  11.183
57272SOL    HW273714   0.378   1.986  11.160
57273SOL     OW73715   3.496  12.157   7.042
57273SOL    HW173716   3.527  12.247   7.032
57273SOL    HW273717   3.413  12.155   6.993
57274SOL     OW73718   5.068   4.996   7.123
57274SOL    HW173719   5.027   5.081   7.108
57274SOL    HW273720   4.996   4.935   7.131
57275SOL     OW73721   2.962   7.189   9.302
57275SOL    HW173722   2.981   7.193   9.208
57275SOL    HW273723   2.996   7.271   9.337
57276SOL     OW73724  13.896   7.063   3.826
57276SOL    HW173725  13.919   7.119   3.901
57276SOL    HW273726  13.808   7.031   3.846
57277SOL     OW73727   4.459  11.730   8.190
57277SOL    HW173728   4.511  11.756   8.114
57277SOL    HW273729   4.522  11.685   8.247
57278SOL     OW73730   1.214   1.217   8.897
57278SOL    HW173731   1.243   1.140   8.847
57278SOL    HW273732   1.178   1.180   8.978
57279SOL     OW73733   0.403   8.201   7.764
57279SOL    HW173734   0.422   8.263   7.834
57279SOL    HW273735   0.313   8.222   7.737
57280SOL     OW73736   1.658   7.092   7.400
57280SOL    HW173737   1.629   7.041   7.324
57280SOL    HW273738   1.653   7.183   7.370
57281SOL     OW73739   1.683  11.436   3.514
57281SOL    HW173740   1.637  11.449   3.597
57281SOL    HW273741   1.615  11.405   3.454
57282SOL     OW73742   2.587   7.759   2.238
57282SOL    HW173743   2.505   7.766   2.286
57282SOL    HW273744   2.570   7.691   2.172
57283SOL     OW73745  11.468   8.021   2.664
57283SOL    HW173746  11.532   7.985   2.602
57283SOL    HW273747  11.395   8.050   2.609
57284SOL     OW73748   8.709   2.816   4.793
57284SOL    HW173749   8.756   2.899   4.783
57284SOL    HW273750   8.772   2.749   4.767
57285SOL     OW73751   8.121   1.772  10.383
57285SOL    HW173752   8.153   1.712  10.450
57285SOL    HW273753   8.142   1.729  10.300
57286SOL     OW73754   4.011   4.934  12.149
57286SOL    HW173755   3.968   4.897  12.071
57286SOL    HW273756   3.950   5.002  12.179
57287SOL     OW73757   8.701   2.337   7.573
57287SOL    HW173758   8.771   2.344   7.508
57287SOL    HW273759   8.746   2.318   7.655
57288SOL     OW73760  10.568  10.714   2.341
57288SOL    HW173761  10.498  10.778   2.352
57288SOL    HW273762  10.647  10.768   2.332
57289SOL     OW73763   9.690  14.197   7.004
57289SOL    HW173764   9.630  14.243   6.945
57289SOL    HW273765   9.670  14.233   7.091
57290SOL     OW73766  11.389  10.072  13.258
57290SOL    HW173767  11.312  10.098  13.308
57290SOL    HW273768  11.364   9.990  13.216
57291SOL     OW73769  14.856   8.155  10.185
57291SOL    HW173770  14.864   8.250  10.187
57291SOL    HW273771   0.011   8.126  10.269
57292SOL     OW73772  10.909  13.057   6.457
57292SOL    HW173773  10.869  13.084   6.375
57292SOL    HW273774  10.972  13.126   6.477
57293SOL     OW73775   2.117   5.056   6.625
57293SOL    HW173776   2.029   5.028   6.601
57293SOL    HW273777   2.128   5.140   6.581
57294SOL     OW73778  11.308   2.639  14.590
57294SOL    HW173779  11.286   2.558  14.636
57294SOL    HW273780  11.252   2.705  14.629
57295SOL     OW73781  13.413   9.866   9.448
57295SOL    HW173782  13.493   9.827   9.411
57295SOL    HW273783  13.356   9.879   9.372
57296SOL     OW73784   9.026   4.598  12.094
57296SOL    HW173785   9.020   4.583  12.000
57296SOL    HW273786   9.019   4.510  12.132
57297SOL     OW73787   8.809  14.818   4.835
57297SOL    HW173788   8.889  14.765   4.830
57297SOL    HW273789   8.755  14.787   4.762
57298SOL     OW73790   1.261   8.813  13.909
57298SOL    HW173791   1.292   8.790  13.997
57298SOL    HW273792   1.280   8.906  13.901
57299SOL     OW73793  12.493   9.972  14.519
57299SOL    HW173794  12.572   9.947  14.567
57299SOL    HW273795  12.472  10.060  14.550
57300SOL     OW73796  13.025  13.893   4.730
57300SOL    HW173797  13.015  13.973   4.782
57300SOL    HW273798  13.080  13.837   4.783
57301SOL     OW73799  12.556   6.307   9.525
57301SOL    HW173800  12.594   6.377   9.578
57301SOL    HW273801  12.561   6.229   9.581
57302SOL     OW73802   2.091   3.088  12.733
57302SOL    HW173803   2.178   3.127  12.741
57302SOL    HW273804   2.038   3.133  12.798
57303SOL     OW73805  10.628   5.602   4.162
57303SOL    HW173806  10.681   5.538   4.115
57303SOL    HW273807  10.623   5.568   4.252
57304SOL     OW73808  12.900   9.746  11.714
57304SOL    HW173809  12.996   9.749  11.706
57304SOL    HW273810  12.880   9.654  11.729
57305SOL     OW73811  11.015  12.077   3.996
57305SOL    HW173812  10.988  11.987   4.014
57305SOL    HW273813  10.950  12.109   3.933
57306SOL     OW73814   6.544   6.732   3.886
57306SOL    HW173815   6.629   6.774   3.892
57306SOL    HW273816   6.502   6.751   3.970
57307SOL     OW73817  12.676   9.143  11.606
57307SOL    HW173818  12.692   9.218  11.548
57307SOL    HW273819  12.762   9.123  11.643
57308SOL     OW73820   8.128  11.955   5.270
57308SOL    HW173821   8.182  12.027   5.239
57308SOL    HW273822   8.112  11.974   5.363
57309SOL     OW73823   7.775   0.405   2.247
57309SOL    HW173824   7.806   0.314   2.240
57309SOL    HW273825   7.687   0.403   2.208
57310SOL     OW73826  11.373  13.654  14.620
57310SOL    HW173827  11.456  13.701  14.611
57310SOL    HW273828  11.344  13.671  14.709
57311SOL     OW73829   9.721   3.762   7.512
57311SOL    HW173830   9.768   3.708   7.576
57311SOL    HW273831   9.738   3.720   7.428
57312SOL     OW73832   5.376  10.043  11.872
57312SOL    HW173833   5.457  10.030  11.921
57312SOL    HW273834   5.364  10.138  11.870
57313SOL     OW73835   5.000   4.581  11.226
57313SOL    HW173836   5.013   4.591  11.320
57313SOL    HW273837   4.957   4.662  11.199
57314SOL     OW73838   4.461   9.316   9.742
57314SOL    HW173839   4.442   9.374   9.816
57314SOL    HW273840   4.546   9.277   9.763
57315SOL     OW73841   5.551  14.536   6.631
57315SOL    HW173842   5.485  14.545   6.700
57315SOL    HW273843   5.524  14.458   6.583
57316SOL     OW73844   5.315  12.104  14.007
57316SOL    HW173845   5.318  12.102  14.103
57316SOL    HW273846   5.332  12.195  13.984
57317SOL     OW73847   5.067  12.436   0.027
57317SOL    HW173848   5.129  12.507   0.012
57317SOL    HW273849   5.034  12.451   0.116
57318SOL     OW73850   0.562  13.501   6.022
57318SOL    HW173851   0.484  13.449   6.002
57318SOL    HW273852   0.629  13.468   5.962
57319SOL     OW73853   6.720   9.104  12.253
57319SOL    HW173854   6.796   9.162  12.263
57319SOL    HW273855   6.675   9.108  12.337
57320SOL     OW73856   4.632   6.788   2.320
57320SOL    HW173857   4.567   6.783   2.390
57320SOL    HW273858   4.708   6.828   2.361
57321SOL     OW73859  13.944  13.262   2.581
57321SOL    HW173860  13.879  13.328   2.605
57321SOL    HW273861  13.923  13.186   2.634
57322SOL     OW73862   7.220   6.686  10.637
57322SOL    HW173863   7.307   6.679  10.677
57322SOL    HW273864   7.216   6.612  10.576
57323SOL     OW73865   3.176   5.147  11.645
57323SOL    HW173866   3.120   5.097  11.586
57323SOL    HW273867   3.226   5.205  11.588
57324SOL     OW73868   4.364   4.466   2.685
57324SOL    HW173869   4.442   4.520   2.675
57324SOL    HW273870   4.317   4.474   2.602
57325SOL     OW73871   0.906   0.394   0.021
57325SOL    HW173872   0.839   0.328   0.041
57325SOL    HW273873   0.972   0.383   0.089
57326SOL     OW73874   6.374   5.345   0.123
57326SOL    HW173875   6.468   5.350   0.106
57326SOL    HW273876   6.334   5.340   0.036
57327SOL     OW73877   9.365  14.790   8.361
57327SOL    HW173878   9.309  14.862   8.389
57327SOL    HW273879   9.306  14.717   8.345
57328SOL     OW73880   0.769   7.159   4.494
57328SOL    HW173881   0.764   7.254   4.501
57328SOL    HW273882   0.831   7.133   4.562
57329SOL     OW73883   1.773  13.460   0.381
57329SOL    HW173884   1.779  13.440   0.475
57329SOL    HW273885   1.862  13.486   0.357
57330SOL     OW73886  13.210  14.640   6.467
57330SOL    HW173887  13.208  14.635   6.562
57330SOL    HW273888  13.297  14.675   6.447
57331SOL     OW73889   3.406  12.038   3.176
57331SOL    HW173890   3.342  12.100   3.141
57331SOL    HW273891   3.467  12.092   3.227
57332SOL     OW73892   2.495  13.919   3.105
57332SOL    HW173893   2.568  13.868   3.071
57332SOL    HW273894   2.493  13.897   3.199
57333SOL     OW73895   4.619  11.224  14.062
57333SOL    HW173896   4.587  11.144  14.104
57333SOL    HW273897   4.655  11.276  14.134
57334SOL     OW73898   0.938   1.045   8.093
57334SOL    HW173899   0.978   1.084   8.170
57334SOL    HW273900   0.844   1.051   8.108
57335SOL     OW73901  11.140   3.432   9.728
57335SOL    HW173902  11.069   3.469   9.780
57335SOL    HW273903  11.106   3.350   9.694
57336SOL     OW73904   1.724   4.202   9.617
57336SOL    HW173905   1.692   4.112   9.620
57336SOL    HW273906   1.667   4.250   9.676
57337SOL     OW73907   2.615   3.092  14.236
57337SOL    HW173908   2.689   3.048  14.196
57337SOL    HW273909   2.590   3.034  14.309
57338SOL     OW73910   3.553   7.456   2.404
57338SOL    HW173911   3.613   7.465   2.330
57338SOL    HW273912   3.486   7.523   2.389
57339SOL     OW73913   3.203   3.163   1.395
57339SOL    HW173914   3.143   3.227   1.435
57339SOL    HW273915   3.241   3.210   1.321
57340SOL     OW73916  14.604  10.921   0.175
57340SOL    HW173917  14.596  11.013   0.150
57340SOL    HW273918  14.528  10.905   0.231
57341SOL     OW73919   6.214  13.387  12.550
57341SOL    HW173920   6.215  13.455  12.618
57341SOL    HW273921   6.171  13.429  12.475
57342SOL     OW73922   4.384   7.125  11.787
57342SOL    HW173923   4.377   7.206  11.839
57342SOL    HW273924   4.395   7.056  11.853
57343SOL     OW73925   1.734   1.950   6.154
57343SOL    HW173926   1.733   1.968   6.060
57343SOL    HW273927   1.802   2.009   6.188
57344SOL     OW73928   9.738  13.744   3.697
57344SOL    HW173929   9.758  13.819   3.641
57344SOL    HW273930   9.776  13.768   3.782
57345SOL     OW73931   6.107   9.888  10.437
57345SOL    HW173932   6.152   9.803  10.427
57345SOL    HW273933   6.053   9.895  10.358
57346SOL     OW73934  14.184   9.092   3.722
57346SOL    HW173935  14.096   9.120   3.748
57346SOL    HW273936  14.235   9.173   3.719
57347SOL     OW73937   0.807   8.791  13.742
57347SOL    HW173938   0.763   8.831  13.668
57347SOL    HW273939   0.821   8.863  13.804
57348SOL     OW73940   3.886   1.182  13.069
57348SOL    HW173941   3.934   1.191  12.986
57348SOL    HW273942   3.869   1.088  13.077
57349SOL     OW73943   0.816  10.452   5.542
57349SOL    HW173944   0.847  10.528   5.491
57349SOL    HW273945   0.890  10.432   5.600
57350SOL     OW73946  11.903  13.026   5.551
57350SOL    HW173947  11.829  12.968   5.566
57350SOL    HW273948  11.869  13.094   5.493
57351SOL     OW73949   3.684   6.244  12.841
57351SOL    HW173950   3.590   6.252  12.859
57351SOL    HW273951   3.697   6.295  12.761
57352SOL     OW73952   7.922  10.888   5.497
57352SOL    HW173953   7.883  10.811   5.539
57352SOL    HW273954   8.015  10.868   5.492
57353SOL     OW73955   2.829   0.768   2.857
57353SOL    HW173956   2.864   0.679   2.869
57353SOL    HW273957   2.796   0.793   2.943
57354SOL     OW73958  12.828  10.830   5.566
57354SOL    HW173959  12.750  10.780   5.541
57354SOL    HW273960  12.831  10.823   5.661
57355SOL     OW73961   1.780  12.678   7.243
57355SOL    HW173962   1.798  12.746   7.178
57355SOL    HW273963   1.855  12.680   7.302
57356SOL     OW73964   8.171  14.635  13.041
57356SOL    HW173965   8.178  14.700  13.111
57356SOL    HW273966   8.248  14.651  12.986
57357SOL     OW73967   0.859   3.161   6.159
57357SOL    HW173968   0.852   3.183   6.067
57357SOL    HW273969   0.929   3.218   6.192
57358SOL     OW73970  10.387   3.803   5.527
57358SOL    HW173971  10.335   3.757   5.461
57358SOL    HW273972  10.426   3.876   5.480
57359SOL     OW73973   8.402   2.901   7.990
57359SOL    HW173974   8.435   2.828   7.938
57359SOL    HW273975   8.438   2.979   7.948
57360SOL     OW73976  12.579   7.084   9.184
57360SOL    HW173977  12.591   7.174   9.155
57360SOL    HW273978  12.484   7.072   9.187
57361SOL     OW73979  14.692  13.477  13.128
57361SOL    HW173980  14.635  13.444  13.198
57361SOL    HW273981  14.760  13.410  13.121
57362SOL     OW73982   8.764  11.121   7.760
57362SOL    HW173983   8.687  11.163   7.721
57362SOL    HW273984   8.832  11.188   7.755
57363SOL     OW73985   1.204   8.106   1.262
57363SOL    HW173986   1.128   8.158   1.236
57363SOL    HW273987   1.279   8.165   1.252
57364SOL     OW73988   7.633   4.140  12.604
57364SOL    HW173989   7.587   4.200  12.661
57364SOL    HW273990   7.708   4.190  12.571
57365SOL     OW73991   4.645   8.201   7.964
57365SOL    HW173992   4.582   8.133   7.938
57365SOL    HW273993   4.595   8.282   7.962
57366SOL     OW73994   8.729   8.859   3.470
57366SOL    HW173995   8.714   8.902   3.387
57366SOL    HW273996   8.823   8.840   3.471
57367SOL     OW73997   4.929   7.908   8.454
57367SOL    HW173998   4.940   8.000   8.429
57367SOL    HW273999   5.002   7.863   8.412
57368SOL     OW74000   6.478   5.023  14.768
57368SOL    HW174001   6.387   5.002  14.787
57368SOL    HW274002   6.518   5.038  14.854
57369SOL     OW74003   4.119   2.358   3.518
57369SOL    HW174004   4.075   2.273   3.524
57369SOL    HW274005   4.188   2.345   3.453
57370SOL     OW74006  12.265   5.494   7.778
57370SOL    HW174007  12.331   5.431   7.807
57370SOL    HW274008  12.199   5.494   7.847
57371SOL     OW74009   8.864  10.445   1.486
57371SOL    HW174010   8.829  10.504   1.553
57371SOL    HW274011   8.951  10.421   1.517
57372SOL     OW74012  11.801   2.927  10.770
57372SOL    HW174013  11.894   2.910  10.786
57372SOL    HW274014  11.756   2.856  10.816
57373SOL     OW74015   0.220   0.981   0.080
57373SOL    HW174016   0.159   0.915   0.112
57373SOL    HW274017   0.167   1.038   0.024
57374SOL     OW74018  13.998   5.758   0.747
57374SOL    HW174019  13.930   5.690   0.747
57374SOL    HW274020  14.052   5.737   0.670
57375SOL     OW74021   6.682  11.491  11.064
57375SOL    HW174022   6.708  11.440  10.987
57375SOL    HW274023   6.592  11.465  11.080
57376SOL     OW74024   8.054  14.265  14.059
57376SOL    HW174025   8.030  14.203  14.128
57376SOL    HW274026   7.977  14.269  14.003
57377SOL     OW74027   6.250  13.572  11.122
57377SOL    HW174028   6.305  13.586  11.199
57377SOL    HW274029   6.298  13.614  11.051
57378SOL     OW74030  12.554   5.955   6.037
57378SOL    HW174031  12.540   5.861   6.030
57378SOL    HW274032  12.485   5.994   5.982
57379SOL     OW74033   7.626   4.362  13.876
57379SOL    HW174034   7.619   4.291  13.813
57379SOL    HW274035   7.604   4.322  13.960
57380SOL     OW74036  11.442   8.345  10.479
57380SOL    HW174037  11.382   8.418  10.466
57380SOL    HW274038  11.520   8.384  10.518
57381SOL     OW74039   4.656   5.325   1.951
57381SOL    HW174040   4.577   5.378   1.943
57381SOL    HW274041   4.637   5.246   1.902
57382SOL     OW74042   8.213   5.681   4.793
57382SOL    HW174043   8.251   5.708   4.709
57382SOL    HW274044   8.121   5.706   4.786
57383SOL     OW74045   4.629  11.468   9.017
57383SOL    HW174046   4.650  11.433   8.930
57383SOL    HW274047   4.561  11.534   9.000
57384SOL     OW74048   2.886  14.835  13.710
57384SOL    HW174049   2.890   0.040  13.755
57384SOL    HW274050   2.974  14.799  13.717
57385SOL     OW74051   6.185   8.159   6.313
57385SOL    HW174052   6.257   8.187   6.369
57385SOL    HW274053   6.227   8.119   6.237
57386SOL     OW74054  14.570  12.794   5.107
57386SOL    HW174055  14.663  12.778   5.121
57386SOL    HW274056  14.561  12.889   5.113
57387SOL     OW74057  12.384  13.079   2.321
57387SOL    HW174058  12.397  13.170   2.293
57387SOL    HW274059  12.300  13.081   2.368
57388SOL     OW74060  13.110  13.015   1.469
57388SOL    HW174061  13.082  13.086   1.412
57388SOL    HW274062  13.205  13.012   1.457
57389SOL     OW74063  11.865   1.695  13.219
57389SOL    HW174064  11.915   1.761  13.171
57389SOL    HW274065  11.855   1.623  13.156
57390SOL     OW74066   7.083   2.257  13.560
57390SOL    HW174067   7.128   2.179  13.528
57390SOL    HW274068   7.060   2.237  13.650
57391SOL     OW74069   8.905   3.666   9.504
57391SOL    HW174070   8.887   3.652   9.411
57391SOL    HW274071   8.934   3.580   9.536
57392SOL     OW74072   0.191  10.311   9.788
57392SOL    HW174073   0.148  10.290   9.872
57392SOL    HW274074   0.140  10.264   9.723
57393SOL     OW74075   5.619  10.045  11.985
57393SOL    HW174076   5.650   9.970  12.036
57393SOL    HW274077   5.621  10.118  12.047
57394SOL     OW74078   0.506  13.797   6.174
57394SOL    HW174079   0.587  13.847   6.178
57394SOL    HW274080   0.524  13.727   6.112
57395SOL     OW74081  13.607  13.702   8.052
57395SOL    HW174082  13.681  13.729   8.106
57395SOL    HW274083  13.531  13.737   8.097
57396SOL     OW74084  12.878  11.204   0.653
57396SOL    HW174085  12.908  11.181   0.741
57396SOL    HW274086  12.797  11.156   0.642
57397SOL     OW74087   1.969  13.759   7.797
57397SOL    HW174088   2.017  13.806   7.730
57397SOL    HW274089   1.985  13.666   7.777
57398SOL     OW74090   0.563  11.201   4.382
57398SOL    HW174091   0.493  11.263   4.398
57398SOL    HW274092   0.642  11.254   4.378
57399SOL     OW74093   1.624   1.206  11.892
57399SOL    HW174094   1.542   1.228  11.848
57399SOL    HW274095   1.598   1.163  11.973
57400SOL     OW74096   9.980   0.748   8.609
57400SOL    HW174097   9.909   0.708   8.558
57400SOL    HW274098   9.945   0.755   8.698
57401SOL     OW74099  13.764   1.666  13.694
57401SOL    HW174100  13.781   1.758  13.711
57401SOL    HW274101  13.814   1.646  13.615
57402SOL     OW74102  12.128   7.385  11.746
57402SOL    HW174103  12.060   7.410  11.810
57402SOL    HW274104  12.130   7.458  11.684
57403SOL     OW74105  11.126   4.688  11.392
57403SOL    HW174106  11.089   4.672  11.304
57403SOL    HW274107  11.082   4.624  11.448
57404SOL     OW74108  13.140   8.505   4.475
57404SOL    HW174109  13.179   8.530   4.559
57404SOL    HW274110  13.215   8.492   4.417
57405SOL     OW74111  13.783  12.011   7.335
57405SOL    HW174112  13.776  11.986   7.428
57405SOL    HW274113  13.693  12.031   7.310
57406SOL     OW74114   3.793   2.117  14.671
57406SOL    HW174115   3.804   2.095  14.578
57406SOL    HW274116   3.801   2.212  14.674
57407SOL     OW74117  11.792   6.566   2.149
57407SOL    HW174118  11.755   6.479   2.134
57407SOL    HW274119  11.878   6.549   2.188
57408SOL     OW74120   9.975  13.555   5.911
57408SOL    HW174121   9.881  13.548   5.894
57408SOL    HW274122  10.016  13.499   5.846
57409SOL     OW74123  10.969   2.299  10.603
57409SOL    HW174124  11.060   2.274  10.588
57409SOL    HW274125  10.932   2.310  10.516
57410SOL     OW74126   0.771   8.086   5.308
57410SOL    HW174127   0.819   8.138   5.244
57410SOL    HW274128   0.838   8.050   5.366
57411SOL     OW74129  10.331   4.140   7.981
57411SOL    HW174130  10.327   4.171   7.891
57411SOL    HW274131  10.325   4.045   7.974
57412SOL     OW74132   2.004  11.267   5.981
57412SOL    HW174133   1.998  11.201   6.050
57412SOL    HW274134   1.980  11.349   6.024
57413SOL     OW74135   4.964  13.066   7.620
57413SOL    HW174136   4.885  13.065   7.568
57413SOL    HW274137   4.947  13.131   7.688
57414SOL     OW74138  12.855  11.822   1.810
57414SOL    HW174139  12.815  11.883   1.748
57414SOL    HW274140  12.821  11.849   1.896
57415SOL     OW74141  13.488   7.267   5.889
57415SOL    HW174142  13.523   7.209   5.821
57415SOL    HW274143  13.393   7.263   5.877
57416SOL     OW74144  14.682  11.423   7.362
57416SOL    HW174145  14.588  11.410   7.349
57416SOL    HW274146  14.706  11.491   7.299
57417SOL     OW74147   0.097  11.664   9.842
57417SOL    HW174148   0.108  11.636   9.933
57417SOL    HW274149   0.169  11.621   9.796
57418SOL     OW74150   1.756   5.423   1.334
57418SOL    HW174151   1.751   5.345   1.390
57418SOL    HW274152   1.799   5.393   1.254
57419SOL     OW74153   7.748   8.121  10.889
57419SOL    HW174154   7.658   8.153  10.892
57419SOL    HW274155   7.792   8.168  10.960
57420SOL     OW74156  10.669  12.787  13.508
57420SOL    HW174157  10.687  12.867  13.457
57420SOL    HW274158  10.601  12.813  13.570
57421SOL     OW74159  11.773  13.643  11.079
57421SOL    HW174160  11.713  13.717  11.080
57421SOL    HW274161  11.843  13.670  11.019
57422SOL     OW74162  11.203  12.611  11.454
57422SOL    HW174163  11.138  12.679  11.435
57422SOL    HW274164  11.159  12.529  11.433
57423SOL     OW74165   1.963   5.222  10.103
57423SOL    HW174166   2.058   5.223  10.090
57423SOL    HW274167   1.944   5.133  10.133
57424SOL     OW74168   0.133   8.703  10.155
57424SOL    HW174169   0.152   8.620  10.111
57424SOL    HW274170   0.046   8.690  10.193
57425SOL     OW74171  10.538   8.696   7.387
57425SOL    HW174172  10.489   8.757   7.332
57425SOL    HW274173  10.615   8.672   7.335
57426SOL     OW74174   3.925  12.100   0.165
57426SOL    HW174175   3.951  12.179   0.215
57426SOL    HW274176   3.990  12.095   0.095
57427SOL     OW74177   3.470   5.018  13.967
57427SOL    HW174178   3.394   5.032  13.911
57427SOL    HW274179   3.500   4.929  13.945
57428SOL     OW74180   8.963  11.049   4.113
57428SOL    HW174181   8.960  11.053   4.209
57428SOL    HW274182   9.013  11.127   4.087
57429SOL     OW74183   3.993   4.337   7.399
57429SOL    HW174184   3.954   4.306   7.480
57429SOL    HW274185   3.927   4.317   7.332
57430SOL     OW74186   4.422   5.617  10.231
57430SOL    HW174187   4.464   5.531  10.228
57430SOL    HW274188   4.494   5.678  10.244
57431SOL     OW74189   7.429  14.727  14.022
57431SOL    HW174190   7.387  14.798  14.070
57431SOL    HW274191   7.477  14.678  14.088
57432SOL     OW74192   6.716   6.939   6.957
57432SOL    HW174193   6.758   6.944   7.042
57432SOL    HW274194   6.630   6.980   6.971
57433SOL     OW74195   3.018  13.195   2.453
57433SOL    HW174196   3.079  13.224   2.521
57433SOL    HW274197   2.936  13.180   2.500
57434SOL     OW74198   4.348   9.600   6.500
57434SOL    HW174199   4.428   9.560   6.464
57434SOL    HW274200   4.375   9.634   6.585
57435SOL     OW74201  10.005   3.829   5.460
57435SOL    HW174202  10.038   3.885   5.529
57435SOL    HW274203  10.072   3.762   5.448
57436SOL     OW74204   0.711   9.446  11.557
57436SOL    HW174205   0.724   9.505  11.632
57436SOL    HW274206   0.753   9.364  11.583
57437SOL     OW74207  14.711   2.718   9.799
57437SOL    HW174208  14.687   2.717   9.707
57437SOL    HW274209  14.802   2.749   9.801
57438SOL     OW74210  13.659   0.418   0.398
57438SOL    HW174211  13.733   0.432   0.456
57438SOL    HW274212  13.587   0.468   0.438
57439SOL     OW74213   9.440   3.916   0.898
57439SOL    HW174214   9.379   3.908   0.824
57439SOL    HW274215   9.416   3.844   0.956
57440SOL     OW74216   1.691   7.413  12.964
57440SOL    HW174217   1.661   7.352  12.896
57440SOL    HW274218   1.706   7.495  12.918
57441SOL     OW74219  10.750  10.938   2.425
57441SOL    HW174220  10.843  10.954   2.415
57441SOL    HW274221  10.716  11.016   2.468
57442SOL     OW74222  12.147  13.314   9.115
57442SOL    HW174223  12.167  13.311   9.022
57442SOL    HW274224  12.210  13.254   9.155
57443SOL     OW74225   9.835   8.156   6.844
57443SOL    HW174226   9.851   8.062   6.848
57443SOL    HW274227   9.753   8.165   6.794
57444SOL     OW74228   4.054   0.063  10.549
57444SOL    HW174229   4.021   0.122  10.617
57444SOL    HW274230   4.099  14.874  10.597
57445SOL     OW74231   4.812  11.435   7.269
57445SOL    HW174232   4.746  11.505   7.271
57445SOL    HW274233   4.887  11.472   7.315
57446SOL     OW74234   3.394   9.648   8.463
57446SOL    HW174235   3.462   9.690   8.410
57446SOL    HW274236   3.366   9.573   8.411
57447SOL     OW74237  12.325   3.951   8.175
57447SOL    HW174238  12.333   3.901   8.093
57447SOL    HW274239  12.374   4.031   8.159
57448SOL     OW74240  11.845   8.980   1.911
57448SOL    HW174241  11.914   9.037   1.944
57448SOL    HW274242  11.770   8.997   1.969
57449SOL     OW74243   2.816   6.588   7.952
57449SOL    HW174244   2.835   6.642   7.876
57449SOL    HW274245   2.723   6.564   7.943
57450SOL     OW74246   4.072  12.463   8.649
57450SOL    HW174247   4.131  12.433   8.718
57450SOL    HW274248   3.984  12.451   8.686
57451SOL     OW74249   4.949  14.682   4.875
57451SOL    HW174250   4.961  14.587   4.869
57451SOL    HW274251   4.933  14.698   4.967
57452SOL     OW74252   8.201   7.626   5.546
57452SOL    HW174253   8.138   7.586   5.485
57452SOL    HW274254   8.219   7.556   5.610
57453SOL     OW74255   3.487   4.756   9.653
57453SOL    HW174256   3.420   4.781   9.717
57453SOL    HW274257   3.570   4.769   9.699
57454SOL     OW74258  13.033   2.932   0.194
57454SOL    HW174259  13.087   3.009   0.212
57454SOL    HW274260  13.080   2.859   0.235
57455SOL     OW74261  14.289   6.028   2.456
57455SOL    HW174262  14.337   5.992   2.381
57455SOL    HW274263  14.319   5.977   2.531
57456SOL     OW74264  13.729  13.991   0.401
57456SOL    HW174265  13.663  14.045   0.443
57456SOL    HW274266  13.704  13.988   0.309
57457SOL     OW74267   0.430   4.491  14.779
57457SOL    HW174268   0.511   4.488  14.830
57457SOL    HW274269   0.381   4.564  14.816
57458SOL     OW74270   5.132   4.943  12.309
57458SOL    HW174271   5.076   4.923  12.385
57458SOL    HW274272   5.077   4.996  12.252
57459SOL     OW74273   5.427   9.497   0.030
57459SOL    HW174274   5.412   9.588   0.005
57459SOL    HW274275   5.339   9.463   0.048
57460SOL     OW74276   6.821   7.761   0.763
57460SOL    HW174277   6.741   7.739   0.809
57460SOL    HW274278   6.863   7.676   0.746
57461SOL     OW74279   1.009   4.932  13.091
57461SOL    HW174280   0.979   4.868  13.155
57461SOL    HW274281   0.932   4.951  13.037
57462SOL     OW74282   7.166   2.118   0.784
57462SOL    HW174283   7.168   2.208   0.751
57462SOL    HW274284   7.245   2.078   0.746
57463SOL     OW74285   6.004  10.004   7.034
57463SOL    HW174286   5.926   9.988   6.981
57463SOL    HW274287   6.060   9.929   7.016
57464SOL     OW74288   7.576   0.779   8.783
57464SOL    HW174289   7.591   0.791   8.689
57464SOL    HW274290   7.602   0.689   8.800
57465SOL     OW74291  10.936   9.853  14.445
57465SOL    HW174292  10.908   9.935  14.487
57465SOL    HW274293  11.031   9.855  14.450
57466SOL     OW74294   1.888   1.428   9.378
57466SOL    HW174295   1.870   1.379   9.298
57466SOL    HW274296   1.914   1.361   9.442
57467SOL     OW74297   5.499  11.194  13.777
57467SOL    HW174298   5.419  11.206  13.726
57467SOL    HW274299   5.536  11.282  13.785
57468SOL     OW74300   0.262   0.545   1.736
57468SOL    HW174301   0.243   0.451   1.735
57468SOL    HW274302   0.178   0.587   1.716
57469SOL     OW74303   2.192  12.066   0.296
57469SOL    HW174304   2.113  12.060   0.349
57469SOL    HW274305   2.246  11.992   0.324
57470SOL     OW74306   4.575   3.353   3.590
57470SOL    HW174307   4.500   3.334   3.647
57470SOL    HW274308   4.647   3.373   3.649
57471SOL     OW74309  11.092   7.064  10.997
57471SOL    HW174310  11.064   6.976  11.022
57471SOL    HW274311  11.085   7.115  11.077
57472SOL     OW74312   5.757   5.026  14.699
57472SOL    HW174313   5.785   4.954  14.642
57472SOL    HW274314   5.818   5.023  14.773
57473SOL     OW74315  14.515  14.195   9.715
57473SOL    HW174316  14.576  14.264   9.689
57473SOL    HW274317  14.454  14.239   9.775
57474SOL     OW74318   5.442   7.466  10.991
57474SOL    HW174319   5.493   7.446  10.912
57474SOL    HW274320   5.507   7.469  11.061
57475SOL     OW74321   1.461  14.358   6.515
57475SOL    HW174322   1.433  14.271   6.485
57475SOL    HW274323   1.552  14.346   6.541
57476SOL     OW74324   5.851  13.491   7.215
57476SOL    HW174325   5.803  13.570   7.191
57476SOL    HW274326   5.823  13.425   7.153
57477SOL     OW74327  13.790   7.124   5.912
57477SOL    HW174328  13.760   7.142   5.823
57477SOL    HW274329  13.750   7.039   5.934
57478SOL     OW74330   3.729   1.593   9.206
57478SOL    HW174331   3.693   1.507   9.229
57478SOL    HW274332   3.791   1.574   9.135
57479SOL     OW74333  12.336   5.948   9.464
57479SOL    HW174334  12.332   5.878   9.529
57479SOL    HW274335  12.394   5.915   9.396
57480SOL     OW74336   5.184   1.514   5.048
57480SOL    HW174337   5.201   1.526   5.141
57480SOL    HW274338   5.271   1.503   5.008
57481SOL     OW74339   8.641   0.883  13.293
57481SOL    HW174340   8.683   0.800  13.313
57481SOL    HW274341   8.576   0.894  13.362
57482SOL     OW74342   4.271  13.852   8.639
57482SOL    HW174343   4.354  13.823   8.601
57482SOL    HW274344   4.261  13.797   8.717
57483SOL     OW74345  11.107   2.480   9.321
57483SOL    HW174346  11.132   2.570   9.302
57483SOL    HW274347  11.022   2.469   9.277
57484SOL     OW74348  12.977  13.854   7.239
57484SOL    HW174349  12.994  13.842   7.332
57484SOL    HW274350  13.019  13.779   7.197
57485SOL     OW74351   9.106  13.801   0.681
57485SOL    HW174352   9.039  13.760   0.734
57485SOL    HW274353   9.083  13.778   0.591
57486SOL     OW74354   7.811  14.015   9.077
57486SOL    HW174355   7.795  13.960   9.154
57486SOL    HW274356   7.906  14.028   9.076
57487SOL     OW74357  10.823   5.778   4.110
57487SOL    HW174358  10.741   5.736   4.135
57487SOL    HW274359  10.805   5.818   4.025
57488SOL     OW74360  10.010  14.276   5.326
57488SOL    HW174361  10.017  14.302   5.234
57488SOL    HW274362   9.983  14.184   5.323
57489SOL     OW74363   9.417   0.796   6.887
57489SOL    HW174364   9.421   0.727   6.821
57489SOL    HW274365   9.509   0.813   6.910
57490SOL     OW74366  12.677   0.801   4.144
57490SOL    HW174367  12.606   0.772   4.200
57490SOL    HW274368  12.692   0.892   4.168
57491SOL     OW74369   3.811   3.422   4.734
57491SOL    HW174370   3.813   3.422   4.638
57491SOL    HW274371   3.740   3.482   4.757
57492SOL     OW74372  14.062   9.970   5.249
57492SOL    HW174373  14.070   9.884   5.290
57492SOL    HW274374  13.999  10.017   5.304
57493SOL     OW74375   2.366   5.362  10.781
57493SOL    HW174376   2.375   5.267  10.790
57493SOL    HW274377   2.297   5.385  10.842
57494SOL     OW74378   1.809   6.102   2.126
57494SOL    HW174379   1.889   6.152   2.140
57494SOL    HW274380   1.750   6.129   2.197
57495SOL     OW74381   4.431  13.684   0.240
57495SOL    HW174382   4.428  13.777   0.217
57495SOL    HW274383   4.417  13.639   0.157
57496SOL     OW74384   2.168   2.427  13.687
57496SOL    HW174385   2.179   2.335  13.708
57496SOL    HW274386   2.073   2.441  13.686
57497SOL     OW74387   1.593   4.316   0.745
57497SOL    HW174388   1.663   4.251   0.743
57497SOL    HW274389   1.571   4.331   0.653
57498SOL     OW74390   1.152   7.370   9.386
57498SOL    HW174391   1.232   7.364   9.335
57498SOL    HW274392   1.163   7.450   9.439
57499SOL     OW74393   4.276  11.076   7.831
57499SOL    HW174394   4.345  11.097   7.768
57499SOL    HW274395   4.194  11.096   7.785
57500SOL     OW74396   3.254   1.128   4.212
57500SOL    HW174397   3.222   1.071   4.142
57500SOL    HW274398   3.349   1.129   4.201
57501SOL     OW74399   0.694  10.362  10.009
57501SOL    HW174400   0.604  10.331   9.998
57501SOL    HW274401   0.697  10.444   9.960
57502SOL     OW74402  12.585   0.371   6.902
57502SOL    HW174403  12.598   0.293   6.956
57502SOL    HW274404  12.631   0.351   6.820
57503SOL     OW74405  12.800  11.279   2.459
57503SOL    HW174406  12.833  11.338   2.527
57503SOL    HW274407  12.706  11.271   2.477
57504SOL     OW74408   6.504   1.407   1.976
57504SOL    HW174409   6.492   1.391   2.070
57504SOL    HW274410   6.431   1.463   1.952
57505SOL     OW74411   0.488   4.476   5.004
57505SOL    HW174412   0.566   4.483   5.060
57505SOL    HW274413   0.494   4.552   4.946
57506SOL     OW74414  11.831  11.693  14.606
57506SOL    HW174415  11.887  11.768  14.624
57506SOL    HW274416  11.772  11.723  14.536
57507SOL     OW74417  10.213  12.206   3.453
57507SOL    HW174418  10.243  12.255   3.530
57507SOL    HW274419  10.255  12.120   3.462
57508SOL     OW74420   5.884   1.358  12.460
57508SOL    HW174421   5.950   1.323  12.520
57508SOL    HW274422   5.901   1.452  12.459
57509SOL     OW74423   7.139   0.500   2.121
57509SOL    HW174424   7.066   0.537   2.071
57509SOL    HW274425   7.211   0.562   2.108
57510SOL     OW74426   3.616   9.310   3.964
57510SOL    HW174427   3.683   9.284   3.900
57510SOL    HW274428   3.663   9.364   4.027
57511SOL     OW74429   1.055   0.701   7.842
57511SOL    HW174430   0.990   0.636   7.816
57511SOL    HW274431   1.042   0.710   7.937
57512SOL     OW74432  11.672   9.348   9.295
57512SOL    HW174433  11.582   9.317   9.302
57512SOL    HW274434  11.683   9.367   9.202
57513SOL     OW74435  12.976   6.714  10.834
57513SOL    HW174436  12.968   6.675  10.747
57513SOL    HW274437  13.034   6.789  10.821
57514SOL     OW74438   6.964   1.455  10.043
57514SOL    HW174439   7.058   1.468  10.037
57514SOL    HW274440   6.951   1.411  10.127
57515SOL     OW74441   7.733  11.333   8.129
57515SOL    HW174442   7.681  11.370   8.058
57515SOL    HW274443   7.670  11.299   8.191
57516SOL     OW74444   4.895   2.393  12.045
57516SOL    HW174445   4.816   2.354  12.081
57516SOL    HW274446   4.961   2.380  12.113
57517SOL     OW74447   4.444   2.236   6.307
57517SOL    HW174448   4.510   2.258   6.241
57517SOL    HW274449   4.365   2.281   6.279
57518SOL     OW74450   3.458   3.765  12.942
57518SOL    HW174451   3.415   3.681  12.925
57518SOL    HW274452   3.410   3.802  13.017
57519SOL     OW74453   5.023   6.575   1.691
57519SOL    HW174454   5.013   6.565   1.786
57519SOL    HW274455   5.064   6.493   1.663
57520SOL     OW74456   6.356   3.288  13.263
57520SOL    HW174457   6.344   3.364  13.319
57520SOL    HW274458   6.436   3.307  13.214
57521SOL     OW74459   5.334   6.354   2.958
57521SOL    HW174460   5.280   6.323   3.030
57521SOL    HW274461   5.274   6.357   2.883
57522SOL     OW74462   4.293  12.307  14.779
57522SOL    HW174463   4.343  12.285  14.701
57522SOL    HW274464   4.291  12.226  14.830
57523SOL     OW74465   3.043   5.975   9.292
57523SOL    HW174466   2.957   6.007   9.319
57523SOL    HW274467   3.086   6.051   9.255
57524SOL     OW74468   1.441   2.129  13.582
57524SOL    HW174469   1.481   2.052  13.622
57524SOL    HW274470   1.371   2.154  13.642
57525SOL     OW74471   5.114  11.666   5.928
57525SOL    HW174472   5.185  11.730   5.919
57525SOL    HW274473   5.036  11.720   5.942
57526SOL     OW74474   8.677   3.275  14.632
57526SOL    HW174475   8.707   3.359  14.668
57526SOL    HW274476   8.644   3.297  14.545
57527SOL     OW74477   6.129  10.951   4.446
57527SOL    HW174478   6.217  10.924   4.473
57527SOL    HW274479   6.073  10.876   4.468
57528SOL     OW74480  10.409  11.180   0.699
57528SOL    HW174481  10.400  11.096   0.744
57528SOL    HW274482  10.501  11.204   0.713
57529SOL     OW74483  11.723   9.499   5.438
57529SOL    HW174484  11.818   9.503   5.429
57529SOL    HW274485  11.703   9.405   5.443
57530SOL     OW74486   2.196   0.444   3.961
57530SOL    HW174487   2.208   0.440   3.866
57530SOL    HW274488   2.174   0.535   3.979
57531SOL     OW74489  12.158   0.264   1.307
57531SOL    HW174490  12.183   0.254   1.216
57531SOL    HW274491  12.115   0.182   1.330
57532SOL     OW74492   4.190   8.379  14.011
57532SOL    HW174493   4.108   8.401  13.966
57532SOL    HW274494   4.186   8.430  14.093
57533SOL     OW74495   7.729   8.455  10.707
57533SOL    HW174496   7.798   8.504  10.750
57533SOL    HW274497   7.770   8.419  10.628
57534SOL     OW74498  12.393  11.861  11.222
57534SOL    HW174499  12.297  11.853  11.214
57534SOL    HW274500  12.417  11.790  11.282
57535SOL     OW74501   1.607  11.841   9.495
57535SOL    HW174502   1.670  11.879   9.433
57535SOL    HW274503   1.634  11.875   9.580
57536SOL     OW74504   3.129   8.842   0.595
57536SOL    HW174505   3.161   8.752   0.586
57536SOL    HW274506   3.067   8.853   0.522
57537SOL     OW74507   5.272   5.535   5.688
57537SOL    HW174508   5.300   5.463   5.744
57537SOL    HW274509   5.348   5.594   5.684
57538SOL     OW74510   1.636   7.896   2.299
57538SOL    HW174511   1.623   7.935   2.385
57538SOL    HW274512   1.553   7.908   2.253
57539SOL     OW74513   6.044   0.385  11.857
57539SOL    HW174514   6.089   0.462  11.823
57539SOL    HW274515   6.111   0.316  11.856
57540SOL     OW74516  10.451   0.853   5.902
57540SOL    HW174517  10.491   0.780   5.949
57540SOL    HW274518  10.458   0.927   5.963
57541SOL     OW74519  10.969   3.194  11.220
57541SOL    HW174520  11.001   3.174  11.132
57541SOL    HW274521  10.887   3.241  11.205
57542SOL     OW74522   9.789   0.075   9.249
57542SOL    HW174523   9.816   0.073   9.341
57542SOL    HW274524   9.857   0.026   9.203
57543SOL     OW74525   1.111   2.350   0.629
57543SOL    HW174526   1.161   2.431   0.640
57543SOL    HW274527   1.134   2.297   0.705
57544SOL     OW74528   3.922   1.701   8.552
57544SOL    HW174529   3.859   1.771   8.573
57544SOL    HW274530   3.971   1.734   8.477
57545SOL     OW74531  10.338  13.194  14.759
57545SOL    HW174532  10.419  13.194  14.708
57545SOL    HW274533  10.349  13.123  14.822
57546SOL     OW74534   3.701   1.385   9.908
57546SOL    HW174535   3.675   1.304   9.865
57546SOL    HW274536   3.760   1.358   9.978
57547SOL     OW74537   4.501   6.207  11.027
57547SOL    HW174538   4.594   6.201  11.046
57547SOL    HW274539   4.472   6.116  11.022
57548SOL     OW74540   0.612  12.410  10.579
57548SOL    HW174541   0.673  12.383  10.648
57548SOL    HW274542   0.661  12.396  10.498
57549SOL     OW74543   3.965   7.482   6.381
57549SOL    HW174544   3.895   7.519   6.435
57549SOL    HW274545   3.922   7.457   6.299
57550SOL     OW74546   5.628   4.741   5.714
57550SOL    HW174547   5.642   4.827   5.674
57550SOL    HW274548   5.633   4.757   5.808
57551SOL     OW74549  12.379  12.342   1.249
57551SOL    HW174550  12.341  12.292   1.321
57551SOL    HW274551  12.394  12.277   1.180
57552SOL     OW74552  14.190   5.079   6.451
57552SOL    HW174553  14.219   4.989   6.440
57552SOL    HW274554  14.098   5.073   6.473
57553SOL     OW74555  12.812   0.745  11.306
57553SOL    HW174556  12.760   0.763  11.228
57553SOL    HW274557  12.873   0.818  11.312
57554SOL     OW74558   5.355   9.811  14.826
57554SOL    HW174559   5.272   9.787  14.783
57554SOL    HW274560   5.330   9.876   0.012
57555SOL     OW74561   9.722   6.813   8.292
57555SOL    HW174562   9.648   6.770   8.335
57555SOL    HW274563   9.685   6.852   8.213
57556SOL     OW74564   7.564  13.145   1.127
57556SOL    HW174565   7.537  13.142   1.218
57556SOL    HW274566   7.562  13.238   1.104
57557SOL     OW74567   3.930   1.714   9.381
57557SOL    HW174568   3.859   1.678   9.329
57557SOL    HW274569   3.894   1.726   9.468
57558SOL     OW74570   1.293  11.316  13.923
57558SOL    HW174571   1.382  11.327  13.890
57558SOL    HW274572   1.238  11.317  13.845
57559SOL     OW74573  13.388   2.415   3.806
57559SOL    HW174574  13.377   2.359   3.729
57559SOL    HW274575  13.318   2.387   3.865
57560SOL     OW74576   9.016   5.271  14.866
57560SOL    HW174577   9.026   5.176  14.867
57560SOL    HW274578   9.098   5.305   0.022
57561SOL     OW74579  11.994   5.365   7.036
57561SOL    HW174580  11.956   5.285   6.999
57561SOL    HW274581  11.925   5.431   7.027
57562SOL     OW74582   4.985  14.534   8.273
57562SOL    HW174583   5.043  14.459   8.283
57562SOL    HW274584   4.948  14.549   8.360
57563SOL     OW74585  11.298  13.128  12.630
57563SOL    HW174586  11.275  13.129  12.723
57563SOL    HW274587  11.310  13.220  12.608
57564SOL     OW74588   4.418   9.878   6.065
57564SOL    HW174589   4.460   9.807   6.114
57564SOL    HW274590   4.325   9.869   6.086
57565SOL     OW74591   5.372   3.998   8.627
57565SOL    HW174592   5.467   3.984   8.625
57565SOL    HW274593   5.335   3.914   8.600
57566SOL     OW74594   1.758  10.758   6.408
57566SOL    HW174595   1.708  10.781   6.487
57566SOL    HW274596   1.830  10.703   6.440
57567SOL     OW74597  10.758  14.068  13.472
57567SOL    HW174598  10.688  14.101  13.416
57567SOL    HW274599  10.829  14.131  13.460
57568SOL     OW74600   3.547  13.637  10.892
57568SOL    HW174601   3.613  13.568  10.898
57568SOL    HW274602   3.543  13.658  10.799
57569SOL     OW74603   0.444  14.542  13.058
57569SOL    HW174604   0.484  14.619  13.098
57569SOL    HW274605   0.444  14.561  12.964
57570SOL     OW74606  13.874  10.620   4.299
57570SOL    HW174607  13.945  10.672   4.261
57570SOL    HW274608  13.818  10.685   4.343
57571SOL     OW74609   0.800   5.008   6.462
57571SOL    HW174610   0.841   4.941   6.516
57571SOL    HW274611   0.792   4.968   6.375
57572SOL     OW74612  14.606   6.846  10.523
57572SOL    HW174613  14.514   6.836  10.501
57572SOL    HW274614  14.616   6.803  10.608
57573SOL     OW74615  14.857  13.511   4.571
57573SOL    HW174616  14.838  13.590   4.623
57573SOL    HW274617  14.814  13.527   4.487
57574SOL     OW74618   2.783  11.243   2.914
57574SOL    HW174619   2.875  11.220   2.901
57574SOL    HW274620   2.760  11.205   2.999
57575SOL     OW74621  12.735  10.716   9.237
57575SOL    HW174622  12.721  10.809   9.254
57575SOL    HW274623  12.821  10.713   9.195
57576SOL     OW74624  10.271   1.377  11.754
57576SOL    HW174625  10.214   1.425  11.692
57576SOL    HW274626  10.348   1.433  11.763
57577SOL     OW74627  13.064   4.218   0.822
57577SOL    HW174628  12.978   4.201   0.784
57577SOL    HW274629  13.125   4.172   0.765
57578SOL     OW74630  12.220   2.245   5.235
57578SOL    HW174631  12.312   2.272   5.240
57578SOL    HW274632  12.211   2.181   5.306
57579SOL     OW74633  13.109   1.200  11.295
57579SOL    HW174634  13.085   1.286  11.260
57579SOL    HW274635  13.087   1.205  11.388
57580SOL     OW74636   1.185   3.447  14.292
57580SOL    HW174637   1.179   3.368  14.237
57580SOL    HW274638   1.153   3.518  14.236
57581SOL     OW74639  13.477   6.394   5.476
57581SOL    HW174640  13.477   6.346   5.393
57581SOL    HW274641  13.449   6.330   5.541
57582SOL     OW74642   4.401   9.230  14.868
57582SOL    HW174643   4.491   9.200  14.877
57582SOL    HW274644   4.400   9.280  14.786
57583SOL     OW74645   8.048  11.152  14.822
57583SOL    HW174646   8.009  11.190   0.020
57583SOL    HW274647   7.974  11.112  14.775
57584SOL     OW74648  11.285  14.248  10.767
57584SOL    HW174649  11.285  14.160  10.728
57584SOL    HW274650  11.216  14.295  10.719
57585SOL     OW74651   2.282  14.479  10.070
57585SOL    HW174652   2.270  14.573  10.051
57585SOL    HW274653   2.312  14.442   9.987
57586SOL     OW74654   7.872   1.840  14.648
57586SOL    HW174655   7.951   1.894  14.642
57586SOL    HW274656   7.903   1.750  14.639
57587SOL     OW74657   4.874   6.058   0.873
57587SOL    HW174658   4.937   6.093   0.810
57587SOL    HW274659   4.920   6.061   0.956
57588SOL     OW74660   2.203   9.482   5.475
57588SOL    HW174661   2.226   9.530   5.396
57588SOL    HW274662   2.248   9.398   5.466
57589SOL     OW74663   6.094  11.423  12.746
57589SOL    HW174664   6.079  11.419  12.651
57589SOL    HW274665   6.028  11.484  12.778
57590SOL     OW74666   5.374   3.100  14.769
57590SOL    HW174667   5.381   3.019  14.720
57590SOL    HW274668   5.289   3.095  14.812
57591SOL     OW74669  13.580  14.800   6.974
57591SOL    HW174670  13.657  14.857   6.972
57591SOL    HW274671  13.545  14.810   7.062
57592SOL     OW74672   4.299   1.053   4.554
57592SOL    HW174673   4.264   1.135   4.590
57592SOL    HW274674   4.254   0.984   4.604
57593SOL     OW74675   8.325   8.577   7.870
57593SOL    HW174676   8.335   8.525   7.950
57593SOL    HW274677   8.415   8.590   7.839
57594SOL     OW74678   8.484   0.094   3.670
57594SOL    HW174679   8.524   0.023   3.620
57594SOL    HW274680   8.505   0.173   3.620
57595SOL     OW74681   6.305  10.475   1.855
57595SOL    HW174682   6.311  10.418   1.932
57595SOL    HW274683   6.383  10.453   1.803
57596SOL     OW74684  12.698  10.321  13.592
57596SOL    HW174685  12.770  10.379  13.615
57596SOL    HW274686  12.739  10.234  13.585
57597SOL     OW74687   7.393   0.496  13.996
57597SOL    HW174688   7.441   0.574  13.969
57597SOL    HW274689   7.414   0.486  14.088
57598SOL     OW74690  10.817   1.688   7.921
57598SOL    HW174691  10.841   1.733   7.840
57598SOL    HW274692  10.797   1.598   7.893
57599SOL     OW74693  11.319   5.706   3.287
57599SOL    HW174694  11.375   5.691   3.362
57599SOL    HW274695  11.340   5.635   3.226
57600SOL     OW74696  14.212   3.697  14.167
57600SOL    HW174697  14.140   3.741  14.213
57600SOL    HW274698  14.233   3.755  14.094
57601SOL     OW74699  10.577  12.294   3.767
57601SOL    HW174700  10.543  12.205   3.767
57601SOL    HW274701  10.556  12.328   3.679
57602SOL     OW74702   8.388   1.547   5.309
57602SOL    HW174703   8.439   1.602   5.249
57602SOL    HW274704   8.420   1.570   5.396
57603SOL     OW74705   2.906   5.375   7.994
57603SOL    HW174706   2.908   5.378   7.899
57603SOL    HW274707   2.916   5.466   8.021
57604SOL     OW74708   1.653   6.886   2.841
57604SOL    HW174709   1.676   6.920   2.927
57604SOL    HW274710   1.649   6.791   2.854
57605SOL     OW74711   8.222   8.988   5.903
57605SOL    HW174712   8.253   9.079   5.907
57605SOL    HW274713   8.174   8.976   5.985
57606SOL     OW74714   0.746  14.563   1.968
57606SOL    HW174715   0.788  14.591   2.049
57606SOL    HW274716   0.758  14.468   1.966
57607SOL     OW74717   5.099  11.869   6.858
57607SOL    HW174718   5.013  11.851   6.822
57607SOL    HW274719   5.105  11.812   6.935
57608SOL     OW74720   2.223  11.333  13.494
57608SOL    HW174721   2.301  11.291  13.458
57608SOL    HW274722   2.242  11.345  13.587
57609SOL     OW74723   3.807   2.650  12.909
57609SOL    HW174724   3.798   2.668  13.003
57609SOL    HW274725   3.786   2.734  12.867
57610SOL     OW74726  11.992  11.227   7.023
57610SOL    HW174727  12.041  11.283   6.963
57610SOL    HW274728  11.926  11.185   6.969
57611SOL     OW74729   4.509   4.099   0.376
57611SOL    HW174730   4.450   4.028   0.400
57611SOL    HW274731   4.556   4.067   0.299
57612SOL     OW74732   4.185   4.674  14.097
57612SOL    HW174733   4.218   4.722  14.021
57612SOL    HW274734   4.226   4.717  14.172
57613SOL     OW74735   9.101  12.527   0.165
57613SOL    HW174736   9.101  12.607   0.218
57613SOL    HW274737   9.095  12.456   0.229
57614SOL     OW74738   8.649  13.231   6.077
57614SOL    HW174739   8.683  13.320   6.066
57614SOL    HW274740   8.727  13.176   6.077
57615SOL     OW74741  11.774   1.092   6.185
57615SOL    HW174742  11.822   1.021   6.227
57615SOL    HW274743  11.835   1.165   6.183
57616SOL     OW74744  11.812   2.691   0.045
57616SOL    HW174745  11.837   2.599   0.039
57616SOL    HW274746  11.793   2.717  14.834
57617SOL     OW74747   5.804  11.592   8.447
57617SOL    HW174748   5.891  11.619   8.417
57617SOL    HW274749   5.766  11.546   8.372
57618SOL     OW74750   0.342   9.489  13.146
57618SOL    HW174751   0.401   9.414  13.157
57618SOL    HW274752   0.302   9.475  13.060
57619SOL     OW74753  13.516   3.932  10.209
57619SOL    HW174754  13.529   3.902  10.299
57619SOL    HW274755  13.422   3.921  10.193
57620SOL     OW74756   0.936  11.830  13.732
57620SOL    HW174757   0.878  11.846  13.807
57620SOL    HW274758   0.914  11.741  13.704
57621SOL     OW74759  10.689  11.215  14.392
57621SOL    HW174760  10.646  11.129  14.392
57621SOL    HW274761  10.776  11.197  14.430
57622SOL     OW74762   0.672   9.180  12.177
57622SOL    HW174763   0.584   9.209  12.155
57622SOL    HW274764   0.666   9.151  12.269
57623SOL     OW74765   2.327   6.053   3.899
57623SOL    HW174766   2.322   5.979   3.959
57623SOL    HW274767   2.252   6.108   3.922
57624SOL     OW74768   6.106   2.596   2.582
57624SOL    HW174769   6.025   2.640   2.609
57624SOL    HW274770   6.175   2.641   2.630
57625SOL     OW74771   0.590   5.853  14.819
57625SOL    HW174772   0.684   5.865  14.807
57625SOL    HW274773   0.558   5.825  14.734
57626SOL     OW74774   2.332   5.877  11.693
57626SOL    HW174775   2.420   5.906  11.670
57626SOL    HW274776   2.345   5.793  11.737
57627SOL     OW74777  10.571  14.418   9.012
57627SOL    HW174778  10.640  14.396   8.950
57627SOL    HW274779  10.511  14.343   9.008
57628SOL     OW74780  12.117   3.449  13.402
57628SOL    HW174781  12.034   3.402  13.411
57628SOL    HW274782  12.115   3.484  13.313
57629SOL     OW74783   0.761  11.992   5.273
57629SOL    HW174784   0.760  12.085   5.292
57629SOL    HW274785   0.679  11.976   5.226
57630SOL     OW74786   2.042   3.569   7.718
57630SOL    HW174787   2.004   3.648   7.681
57630SOL    HW274788   2.135   3.590   7.728
57631SOL     OW74789   4.249   5.782   2.557
57631SOL    HW174790   4.295   5.700   2.577
57631SOL    HW274791   4.179   5.757   2.498
57632SOL     OW74792   4.252   4.686   3.965
57632SOL    HW174793   4.267   4.597   3.996
57632SOL    HW274794   4.166   4.710   4.000
57633SOL     OW74795   6.745  11.707   7.552
57633SOL    HW174796   6.650  11.698   7.543
57633SOL    HW274797   6.779  11.687   7.464
57634SOL     OW74798   1.912   4.151   0.727
57634SOL    HW174799   1.912   4.224   0.665
57634SOL    HW274800   1.899   4.073   0.672
57635SOL     OW74801  12.671   4.949   4.995
57635SOL    HW174802  12.762   4.973   4.979
57635SOL    HW274803  12.627   5.033   5.011
57636SOL     OW74804   5.354   3.712   8.574
57636SOL    HW174805   5.377   3.681   8.487
57636SOL    HW274806   5.412   3.664   8.633
57637SOL     OW74807  13.813   8.027   9.467
57637SOL    HW174808  13.800   8.063   9.555
57637SOL    HW274809  13.755   7.951   9.464
57638SOL     OW74810   9.209   8.344  12.199
57638SOL    HW174811   9.202   8.303  12.113
57638SOL    HW274812   9.217   8.437  12.181
57639SOL     OW74813   7.734   7.599   2.381
57639SOL    HW174814   7.652   7.648   2.383
57639SOL    HW274815   7.784   7.638   2.309
57640SOL     OW74816   1.555   2.463   2.943
57640SOL    HW174817   1.479   2.435   2.892
57640SOL    HW274818   1.541   2.426   3.030
57641SOL     OW74819   2.331  11.616  13.063
57641SOL    HW174820   2.370  11.593  13.148
57641SOL    HW274821   2.372  11.554  13.002
57642SOL     OW74822   5.238  12.333   8.478
57642SOL    HW174823   5.282  12.367   8.556
57642SOL    HW274824   5.164  12.282   8.512
57643SOL     OW74825   6.645  11.319   1.564
57643SOL    HW174826   6.604  11.238   1.595
57643SOL    HW274827   6.574  11.369   1.524
57644SOL     OW74828   3.144  14.332   0.332
57644SOL    HW174829   3.074  14.388   0.367
57644SOL    HW274830   3.203  14.318   0.406
57645SOL     OW74831  11.230   6.050  12.612
57645SOL    HW174832  11.315   6.007  12.602
57645SOL    HW274833  11.249   6.143  12.604
57646SOL     OW74834   6.393  11.625  11.393
57646SOL    HW174835   6.392  11.715  11.425
57646SOL    HW274836   6.305  11.611  11.358
57647SOL     OW74837   6.652  13.898   1.182
57647SOL    HW174838   6.653  13.875   1.090
57647SOL    HW274839   6.617  13.820   1.226
57648SOL     OW74840   8.831  10.815   5.823
57648SOL    HW174841   8.825  10.738   5.767
57648SOL    HW274842   8.743  10.854   5.821
57649SOL     OW74843  14.077  11.832   4.153
57649SOL    HW174844  14.010  11.870   4.097
57649SOL    HW274845  14.084  11.892   4.227
57650SOL     OW74846  11.673   1.749  13.388
57650SOL    HW174847  11.614   1.674  13.376
57650SOL    HW274848  11.748   1.729  13.332
57651SOL     OW74849  11.760   4.714   7.476
57651SOL    HW174850  11.800   4.634   7.442
57651SOL    HW274851  11.793   4.721   7.566
57652SOL     OW74852  11.870   0.716  13.206
57652SOL    HW174853  11.913   0.797  13.233
57652SOL    HW274854  11.928   0.677  13.141
57653SOL     OW74855  13.323   4.201  11.687
57653SOL    HW174856  13.267   4.167  11.616
57653SOL    HW274857  13.261   4.235  11.752
57654SOL     OW74858  13.108   3.171  10.669
57654SOL    HW174859  13.098   3.265  10.683
57654SOL    HW274860  13.106   3.133  10.757
57655SOL     OW74861   1.561   2.535   0.635
57655SOL    HW174862   1.535   2.627   0.633
57655SOL    HW274863   1.519   2.499   0.713
57656SOL     OW74864   9.476  13.040  11.715
57656SOL    HW174865   9.409  12.991  11.667
57656SOL    HW274866   9.528  13.082  11.647
57657SOL     OW74867  14.853   4.039  14.743
57657SOL    HW174868  14.856   3.995  14.658
57657SOL    HW274869   0.015   3.977  14.804
57658SOL     OW74870   2.817   3.870   3.942
57658SOL    HW174871   2.799   3.941   4.004
57658SOL    HW274872   2.837   3.915   3.860
57659SOL     OW74873   9.883   1.594   1.983
57659SOL    HW174874   9.804   1.625   2.026
57659SOL    HW274875   9.887   1.501   2.004
57660SOL     OW74876   3.995  12.288  14.503
57660SOL    HW174877   4.077  12.327  14.476
57660SOL    HW274878   3.962  12.243  14.425
57661SOL     OW74879   4.675  12.889   7.832
57661SOL    HW174880   4.673  12.805   7.877
57661SOL    HW274881   4.689  12.866   7.740
57662SOL     OW74882   5.863  12.987   4.267
57662SOL    HW174883   5.891  13.000   4.176
57662SOL    HW274884   5.784  12.933   4.261
57663SOL     OW74885   4.949  14.043  12.378
57663SOL    HW174886   4.938  14.064  12.471
57663SOL    HW274887   4.876  14.087  12.335
57664SOL     OW74888   2.825   7.669   0.727
57664SOL    HW174889   2.921   7.666   0.726
57664SOL    HW274890   2.800   7.642   0.639
57665SOL     OW74891   6.201  14.567   2.285
57665SOL    HW174892   6.151  14.644   2.257
57665SOL    HW274893   6.234  14.529   2.204
57666SOL     OW74894   1.931   4.607   0.667
57666SOL    HW174895   1.956   4.630   0.756
57666SOL    HW274896   1.860   4.668   0.645
57667SOL     OW74897   7.377   4.587  13.040
57667SOL    HW174898   7.341   4.519  12.983
57667SOL    HW274899   7.468   4.595  13.011
57668SOL     OW74900   3.121   4.591   7.698
57668SOL    HW174901   3.045   4.574   7.643
57668SOL    HW274902   3.173   4.655   7.648
57669SOL     OW74903   5.255   2.024   5.487
57669SOL    HW174904   5.196   2.011   5.561
57669SOL    HW274905   5.302   1.940   5.479
57670SOL     OW74906   2.468   2.729   1.737
57670SOL    HW174907   2.426   2.696   1.657
57670SOL    HW274908   2.559   2.702   1.729
57671SOL     OW74909  10.385  10.211   5.948
57671SOL    HW174910  10.393  10.188   5.856
57671SOL    HW274911  10.309  10.269   5.952
57672SOL     OW74912   9.170   7.901  13.956
57672SOL    HW174913   9.089   7.865  13.920
57672SOL    HW274914   9.167   7.994  13.934
57673SOL     OW74915   2.057   8.699  13.279
57673SOL    HW174916   2.054   8.780  13.228
57673SOL    HW274917   2.150   8.682  13.293
57674SOL     OW74918   2.340  13.467   6.500
57674SOL    HW174919   2.325  13.561   6.491
57674SOL    HW274920   2.344  13.453   6.595
57675SOL     OW74921   9.704   4.134   1.754
57675SOL    HW174922   9.681   4.194   1.682
57675SOL    HW274923   9.650   4.164   1.827
57676SOL     OW74924   4.748  10.171   2.361
57676SOL    HW174925   4.782  10.127   2.439
57676SOL    HW274926   4.672  10.220   2.392
57677SOL     OW74927  10.828  14.241   7.224
57677SOL    HW174928  10.806  14.153   7.254
57677SOL    HW274929  10.791  14.299   7.290
57678SOL     OW74930   8.049  14.629  12.095
57678SOL    HW174931   7.978  14.677  12.137
57678SOL    HW274932   8.057  14.669  12.009
57679SOL     OW74933  12.219   7.659   2.033
57679SOL    HW174934  12.279   7.629   2.101
57679SOL    HW274935  12.277   7.697   1.966
57680SOL     OW74936   9.655  11.471   4.119
57680SOL    HW174937   9.712  11.464   4.195
57680SOL    HW274938   9.624  11.382   4.103
57681SOL     OW74939   7.356   3.461   7.252
57681SOL    HW174940   7.297   3.422   7.188
57681SOL    HW274941   7.320   3.549   7.266
57682SOL     OW74942  11.584   1.887  11.392
57682SOL    HW174943  11.593   1.982  11.392
57682SOL    HW274944  11.641   1.858  11.463
57683SOL     OW74945   5.011  11.670   8.210
57683SOL    HW174946   5.018  11.591   8.264
57683SOL    HW274947   5.014  11.638   8.120
57684SOL     OW74948  12.461   9.953  12.861
57684SOL    HW174949  12.533   9.940  12.800
57684SOL    HW274950  12.444  10.047  12.859
57685SOL     OW74951   4.893  11.539   9.594
57685SOL    HW174952   4.881  11.448   9.621
57685SOL    HW274953   4.987  11.555   9.607
57686SOL     OW74954  12.419   5.135   8.403
57686SOL    HW174955  12.457   5.205   8.456
57686SOL    HW274956  12.406   5.063   8.464
57687SOL     OW74957   9.554   5.937  11.050
57687SOL    HW174958   9.641   5.951  11.088
57687SOL    HW274959   9.538   6.015  10.997
57688SOL     OW74960   3.268   1.290  13.273
57688SOL    HW174961   3.208   1.221  13.303
57688SOL    HW274962   3.242   1.306  13.182
57689SOL     OW74963  14.453   7.119   4.719
57689SOL    HW174964  14.540   7.081   4.732
57689SOL    HW274965  14.393   7.045   4.728
57690SOL     OW74966   3.510   9.706   7.072
57690SOL    HW174967   3.598   9.720   7.038
57690SOL    HW274968   3.521   9.642   7.143
57691SOL     OW74969   3.644   1.811   6.265
57691SOL    HW174970   3.732   1.774   6.276
57691SOL    HW274971   3.607   1.761   6.192
57692SOL     OW74972   1.653  13.404   5.701
57692SOL    HW174973   1.652  13.493   5.738
57692SOL    HW274974   1.691  13.415   5.614
57693SOL     OW74975   1.924   1.465   0.581
57693SOL    HW174976   1.925   1.401   0.509
57693SOL    HW274977   1.997   1.439   0.637
57694SOL     OW74978   0.795   2.131  10.363
57694SOL    HW174979   0.845   2.109  10.284
57694SOL    HW274980   0.860   2.172  10.421
57695SOL     OW74981  14.458   3.055   2.140
57695SOL    HW174982  14.536   3.017   2.178
57695SOL    HW274983  14.388   2.992   2.159
57696SOL     OW74984  11.517   7.545   3.062
57696SOL    HW174985  11.520   7.591   2.978
57696SOL    HW274986  11.470   7.464   3.044
57697SOL     OW74987  12.132   3.281   7.033
57697SOL    HW174988  12.165   3.344   7.098
57697SOL    HW274989  12.100   3.208   7.085
57698SOL     OW74990   3.873   3.215  12.035
57698SOL    HW174991   3.786   3.178  12.018
57698SOL    HW274992   3.919   3.148  12.086
57699SOL     OW74993   9.347   7.894  14.212
57699SOL    HW174994   9.433   7.856  14.193
57699SOL    HW274995   9.288   7.856  14.146
57700SOL     OW74996  13.518   3.621  12.264
57700SOL    HW174997  13.510   3.711  12.231
57700SOL    HW274998  13.547   3.570  12.188
57701SOL     OW74999   6.511   4.464   8.358
57701SOL    HW175000   6.437   4.450   8.298
57701SOL    HW275001   6.585   4.480   8.300
57702SOL     OW75002  13.200   1.133   4.825
57702SOL    HW175003  13.133   1.104   4.887
57702SOL    HW275004  13.160   1.207   4.779
57703SOL     OW75005   5.497  13.901   6.142
57703SOL    HW175006   5.499  13.848   6.222
57703SOL    HW275007   5.409  13.940   6.142
57704SOL     OW75008  13.490  11.864   6.481
57704SOL    HW175009  13.522  11.883   6.569
57704SOL    HW275010  13.531  11.931   6.426
57705SOL     OW75011   7.145  12.237  14.516
57705SOL    HW175012   7.150  12.305  14.583
57705SOL    HW275013   7.152  12.155  14.565
57706SOL     OW75014   8.046  13.205   9.432
57706SOL    HW175015   8.066  13.113   9.415
57706SOL    HW275016   7.970  13.223   9.378
57707SOL     OW75017  10.424  11.982   4.710
57707SOL    HW175018  10.354  12.047   4.698
57707SOL    HW275019  10.378  11.900   4.725
57708SOL     OW75020   8.717  14.578  11.247
57708SOL    HW175021   8.653  14.513  11.276
57708SOL    HW275022   8.703  14.585  11.153
57709SOL     OW75023   2.430  14.545   5.587
57709SOL    HW175024   2.334  14.543   5.590
57709SOL    HW275025   2.450  14.605   5.515
57710SOL     OW75026  14.519   6.820  11.237
57710SOL    HW175027  14.572   6.815  11.158
57710SOL    HW275028  14.485   6.910  11.238
57711SOL     OW75029   1.289   8.172   5.535
57711SOL    HW175030   1.301   8.092   5.484
57711SOL    HW275031   1.278   8.241   5.470
57712SOL     OW75032  14.521   0.041   5.221
57712SOL    HW175033  14.534  14.829   5.246
57712SOL    HW275034  14.598   0.086   5.257
57713SOL     OW75035   2.635   5.808   7.012
57713SOL    HW175036   2.675   5.895   7.016
57713SOL    HW275037   2.550   5.823   6.970
57714SOL     OW75038  14.276   5.028   1.207
57714SOL    HW175039  14.369   5.005   1.204
57714SOL    HW275040  14.232   4.947   1.232
57715SOL     OW75041   6.198   7.919   4.448
57715SOL    HW175042   6.180   7.959   4.363
57715SOL    HW275043   6.277   7.964   4.479
57716SOL     OW75044  14.569  14.815   6.673
57716SOL    HW175045  14.504  14.753   6.639
57716SOL    HW275046  14.576   0.002   6.605
57717SOL     OW75047   2.525   6.542   2.589
57717SOL    HW175048   2.434   6.567   2.574
57717SOL    HW275049   2.564   6.619   2.631
57718SOL     OW75050   9.803   3.935   8.526
57718SOL    HW175051   9.748   3.950   8.603
57718SOL    HW275052   9.747   3.959   8.452
57719SOL     OW75053  12.417   3.371   4.783
57719SOL    HW175054  12.359   3.441   4.752
57719SOL    HW275055  12.478   3.415   4.842
57720SOL     OW75056   7.101   8.634   6.774
57720SOL    HW175057   7.158   8.562   6.747
57720SOL    HW275058   7.130   8.656   6.863
57721SOL     OW75059   4.382  10.940  10.645
57721SOL    HW175060   4.307  10.983  10.686
57721SOL    HW275061   4.363  10.943  10.551
57722SOL     OW75062   3.567  10.272  14.520
57722SOL    HW175063   3.526  10.309  14.442
57722SOL    HW275064   3.494  10.240  14.573
57723SOL     OW75065   8.232   4.009  10.078
57723SOL    HW175066   8.322   3.978  10.088
57723SOL    HW275067   8.221   4.073  10.148
57724SOL     OW75068  10.452  14.224   1.534
57724SOL    HW175069  10.389  14.171   1.484
57724SOL    HW275070  10.535  14.178   1.525
57725SOL     OW75071   2.216  10.736   2.855
57725SOL    HW175072   2.206  10.702   2.943
57725SOL    HW275073   2.280  10.677   2.814
57726SOL     OW75074  11.158   1.839   8.166
57726SOL    HW175075  11.139   1.762   8.220
57726SOL    HW275076  11.205   1.898   8.224
57727SOL     OW75077   9.518   7.041   3.432
57727SOL    HW175078   9.444   7.097   3.408
57727SOL    HW275079   9.531   7.057   3.526
57728SOL     OW75080   5.262   5.533   9.951
57728SOL    HW175081   5.188   5.594   9.959
57728SOL    HW275082   5.336   5.580   9.989
57729SOL     OW75083  14.128  12.854  10.270
57729SOL    HW175084  14.116  12.938  10.225
57729SOL    HW275085  14.092  12.870  10.358
57730SOL     OW75086   8.785   1.436   3.974
57730SOL    HW175087   8.718   1.494   4.010
57730SOL    HW275088   8.756   1.420   3.884
57731SOL     OW75089   0.653  14.194  13.765
57731SOL    HW175090   0.657  14.283  13.731
57731SOL    HW275091   0.560  14.176  13.776
57732SOL     OW75092  11.082   6.195  14.714
57732SOL    HW175093  11.167   6.182  14.672
57732SOL    HW275094  11.051   6.106  14.735
57733SOL     OW75095   8.631   3.293   1.581
57733SOL    HW175096   8.674   3.208   1.591
57733SOL    HW275097   8.574   3.282   1.505
57734SOL     OW75098   4.293  13.155   2.177
57734SOL    HW175099   4.287  13.245   2.211
57734SOL    HW275100   4.256  13.161   2.089
57735SOL     OW75101   6.639  11.147   2.582
57735SOL    HW175102   6.661  11.057   2.607
57735SOL    HW275103   6.598  11.185   2.660
57736SOL     OW75104   0.196  14.544   7.219
57736SOL    HW175105   0.159  14.478   7.159
57736SOL    HW275106   0.269  14.582   7.170
57737SOL     OW75107   9.114  14.005   4.258
57737SOL    HW175108   9.039  13.954   4.226
57737SOL    HW275109   9.163  14.028   4.179
57738SOL     OW75110   1.513  14.301   5.414
57738SOL    HW175111   1.521  14.270   5.505
57738SOL    HW275112   1.518  14.221   5.361
57739SOL     OW75113   6.568  13.700   7.458
57739SOL    HW175114   6.523  13.686   7.541
57739SOL    HW275115   6.657  13.726   7.483
57740SOL     OW75116  11.559  11.079   1.982
57740SOL    HW175117  11.594  11.092   1.894
57740SOL    HW275118  11.464  11.079   1.970
57741SOL     OW75119   0.042  11.768   9.056
57741SOL    HW175120   0.105  11.712   9.103
57741SOL    HW275121   0.077  11.771   8.967
57742SOL     OW75122   9.605   0.352  14.272
57742SOL    HW175123   9.690   0.370  14.233
57742SOL    HW275124   9.620   0.274  14.326
57743SOL     OW75125  13.993   0.237   2.311
57743SOL    HW175126  14.041   0.249   2.393
57743SOL    HW275127  13.958   0.323   2.291
57744SOL     OW75128  12.306  12.892   6.214
57744SOL    HW175129  12.315  12.985   6.192
57744SOL    HW275130  12.222  12.866   6.177
57745SOL     OW75131   6.553  13.380   8.710
57745SOL    HW175132   6.638  13.399   8.670
57745SOL    HW275133   6.489  13.403   8.642
57746SOL     OW75134   7.472  12.904   0.369
57746SOL    HW175135   7.542  12.839   0.360
57746SOL    HW275136   7.392  12.853   0.376
57747SOL     OW75137  10.052   1.660   5.053
57747SOL    HW175138  10.098   1.684   4.973
57747SOL    HW275139  10.087   1.574   5.076
57748SOL     OW75140   2.895   8.663  10.145
57748SOL    HW175141   2.914   8.694  10.234
57748SOL    HW275142   2.806   8.627  10.152
57749SOL     OW75143   7.248  14.483   3.664
57749SOL    HW175144   7.331  14.508   3.704
57749SOL    HW275145   7.182  14.505   3.730
57750SOL     OW75146   3.512  10.379  10.126
57750SOL    HW175147   3.516  10.451  10.189
57750SOL    HW275148   3.586  10.395  10.067
57751SOL     OW75149  14.731   4.365  10.114
57751SOL    HW175150  14.797   4.421  10.074
57751SOL    HW275151  14.726   4.288  10.056
57752SOL     OW75152  12.451  13.548   9.817
57752SOL    HW175153  12.546  13.543   9.818
57752SOL    HW275154  12.428  13.591   9.899
57753SOL     OW75155   6.707   7.579   8.571
57753SOL    HW175156   6.737   7.587   8.662
57753SOL    HW275157   6.755   7.504   8.537
57754SOL     OW75158  10.908   3.530   7.425
57754SOL    HW175159  10.963   3.480   7.364
57754SOL    HW275160  10.818   3.515   7.394
57755SOL     OW75161   3.648  14.330  13.664
57755SOL    HW175162   3.604  14.292  13.740
57755SOL    HW275163   3.726  14.371  13.700
57756SOL     OW75164  13.710  12.965   0.844
57756SOL    HW175165  13.635  13.006   0.800
57756SOL    HW275166  13.728  13.022   0.918
57757SOL     OW75167   9.038  10.848   6.563
57757SOL    HW175168   9.064  10.908   6.633
57757SOL    HW275169   8.951  10.818   6.590
57758SOL     OW75170   4.862   8.350  11.260
57758SOL    HW175171   4.955   8.352  11.285
57758SOL    HW275172   4.818   8.312  11.337
57759SOL     OW75173   6.954   4.459   9.929
57759SOL    HW175174   6.933   4.541   9.885
57759SOL    HW275175   6.890   4.396   9.896
57760SOL     OW75176   9.780   6.238   2.841
57760SOL    HW175177   9.737   6.162   2.880
57760SOL    HW275178   9.838   6.202   2.774
57761SOL     OW75179   3.390   8.455  11.114
57761SOL    HW175180   3.409   8.469  11.206
57761SOL    HW275181   3.400   8.542  11.074
57762SOL     OW75182  10.704   0.969  14.552
57762SOL    HW175183  10.673   0.881  14.575
57762SOL    HW275184  10.687   0.976  14.458
57763SOL     OW75185  10.301   9.733   3.551
57763SOL    HW175186  10.258   9.780   3.480
57763SOL    HW275187  10.366   9.794   3.585
57764SOL     OW75188   1.287   9.062   1.123
57764SOL    HW175189   1.366   9.113   1.144
57764SOL    HW275190   1.273   9.007   1.200
57765SOL     OW75191   9.529   6.528   3.591
57765SOL    HW175192   9.547   6.618   3.617
57765SOL    HW275193   9.435   6.518   3.600
57766SOL     OW75194   3.684  10.284   9.770
57766SOL    HW175195   3.589  10.278   9.756
57766SOL    HW275196   3.721  10.293   9.683
57767SOL     OW75197   4.000   0.542   3.802
57767SOL    HW175198   3.991   0.621   3.749
57767SOL    HW275199   4.042   0.571   3.883
57768SOL     OW75200   2.774   5.305  13.448
57768SOL    HW175201   2.759   5.390  13.407
57768SOL    HW275202   2.869   5.299  13.455
57769SOL     OW75203   3.179   2.403  10.493
57769SOL    HW175204   3.120   2.370  10.562
57769SOL    HW275205   3.253   2.343  10.494
57770SOL     OW75206   1.407  13.495   3.381
57770SOL    HW175207   1.325  13.496   3.429
57770SOL    HW275208   1.445  13.581   3.395
57771SOL     OW75209   9.931   1.144  14.513
57771SOL    HW175210  10.018   1.157  14.551
57771SOL    HW275211   9.882   1.099  14.581
57772SOL     OW75212   0.276  13.462  14.375
57772SOL    HW175213   0.235  13.400  14.315
57772SOL    HW275214   0.340  13.410  14.423
57773SOL     OW75215   0.824   4.945   2.059
57773SOL    HW175216   0.737   4.927   2.096
57773SOL    HW275217   0.843   5.035   2.085
57774SOL     OW75218   4.903   7.465   2.194
57774SOL    HW175219   4.975   7.514   2.154
57774SOL    HW275220   4.880   7.399   2.129
57775SOL     OW75221   0.013   4.374   4.432
57775SOL    HW175222  14.857   4.286   4.423
57775SOL    HW275223   0.040   4.380   4.523
57776SOL     OW75224   8.748  13.603   1.225
57776SOL    HW175225   8.672  13.660   1.234
57776SOL    HW275226   8.774  13.611   1.133
57777SOL     OW75227  12.666   1.504  10.639
57777SOL    HW175228  12.744   1.530  10.592
57777SOL    HW275229  12.621   1.443  10.580
57778SOL     OW75230  11.528   7.051   5.229
57778SOL    HW175231  11.477   6.979   5.265
57778SOL    HW275232  11.601   7.009   5.184
57779SOL     OW75233   0.393   2.178   9.978
57779SOL    HW175234   0.431   2.149  10.061
57779SOL    HW275235   0.348   2.101   9.944
57780SOL     OW75236  11.652  12.413  10.823
57780SOL    HW175237  11.727  12.461  10.858
57780SOL    HW275238  11.584  12.422  10.891
57781SOL     OW75239   4.258   1.608   8.421
57781SOL    HW175240   4.167   1.599   8.393
57781SOL    HW275241   4.268   1.700   8.445
57782SOL     OW75242  14.486  12.759   3.361
57782SOL    HW175243  14.425  12.758   3.287
57782SOL    HW275244  14.493  12.667   3.388
57783SOL     OW75245  14.412   0.320  10.011
57783SOL    HW175246  14.449   0.402  10.044
57783SOL    HW275247  14.486   0.274   9.973
57784SOL     OW75248   0.130  12.223   3.918
57784SOL    HW175249   0.092  12.276   3.848
57784SOL    HW275250   0.066  12.227   3.989
57785SOL     OW75251   8.411   0.632  13.223
57785SOL    HW175252   8.384   0.589  13.142
57785SOL    HW275253   8.414   0.725  13.201
57786SOL     OW75254   6.160   1.988  13.856
57786SOL    HW175255   6.066   1.980  13.873
57786SOL    HW275256   6.200   1.990  13.942
57787SOL     OW75257   9.476   8.261  13.518
57787SOL    HW175258   9.414   8.334  13.527
57787SOL    HW275259   9.429   8.185  13.553
57788SOL     OW75260  14.763   1.132  13.933
57788SOL    HW175261  14.780   1.060  13.993
57788SOL    HW275262  14.821   1.202  13.963
57789SOL     OW75263   5.838   0.007   1.463
57789SOL    HW175264   5.869   0.023   1.373
57789SOL    HW275265   5.856   0.088   1.509
57790SOL     OW75266  11.146   9.727   2.635
57790SOL    HW175267  11.230   9.688   2.660
57790SOL    HW275268  11.160   9.821   2.642
57791SOL     OW75269   6.657   1.646   2.419
57791SOL    HW175270   6.597   1.627   2.491
57791SOL    HW275271   6.743   1.647   2.460
57792SOL     OW75272   6.202   7.287   4.293
57792SOL    HW175273   6.173   7.278   4.383
57792SOL    HW275274   6.269   7.356   4.296
57793SOL     OW75275   4.947   3.711   8.423
57793SOL    HW175276   4.860   3.749   8.415
57793SOL    HW275277   4.994   3.742   8.346
57794SOL     OW75278   0.157   0.703   2.099
57794SOL    HW175279   0.138   0.712   2.193
57794SOL    HW275280   0.122   0.617   2.076
57795SOL     OW75281   4.832   0.958   6.864
57795SOL    HW175282   4.750   1.007   6.859
57795SOL    HW275283   4.812   0.882   6.917
57796SOL     OW75284   4.978   0.202   8.731
57796SOL    HW175285   4.954   0.254   8.808
57796SOL    HW275286   4.947   0.254   8.656
57797SOL     OW75287  10.499   4.462   0.722
57797SOL    HW175288  10.510   4.440   0.815
57797SOL    HW275289  10.540   4.389   0.675
57798SOL     OW75290   5.101   1.499   1.295
57798SOL    HW175291   5.061   1.586   1.293
57798SOL    HW275292   5.030   1.441   1.322
57799SOL     OW75293  12.248   8.057   0.331
57799SOL    HW175294  12.237   8.022   0.419
57799SOL    HW275295  12.183   8.009   0.278
57800SOL     OW75296   4.227   0.258   3.950
57800SOL    HW175297   4.259   0.273   3.861
57800SOL    HW275298   4.132   0.255   3.942
57801SOL     OW75299  11.586  11.316   6.696
57801SOL    HW175300  11.549  11.308   6.784
57801SOL    HW275301  11.566  11.406   6.669
57802SOL     OW75302   2.693   6.068   6.787
57802SOL    HW175303   2.656   6.034   6.705
57802SOL    HW275304   2.665   6.159   6.790
57803SOL     OW75305   5.383  14.764   8.576
57803SOL    HW175306   5.350  14.778   8.664
57803SOL    HW275307   5.473  14.733   8.588
57804SOL     OW75308   7.920   9.644   8.182
57804SOL    HW175309   7.868   9.669   8.259
57804SOL    HW275310   7.955   9.727   8.149
57805SOL     OW75311   4.124  12.509   9.943
57805SOL    HW175312   4.094  12.514   9.852
57805SOL    HW275313   4.182  12.584   9.953
57806SOL     OW75314   7.192  13.616  14.045
57806SOL    HW175315   7.146  13.577  14.120
57806SOL    HW275316   7.170  13.560  13.971
57807SOL     OW75317   9.282   5.402   4.264
57807SOL    HW175318   9.373   5.430   4.276
57807SOL    HW275319   9.249   5.455   4.192
57808SOL     OW75320  10.760   1.931   5.396
57808SOL    HW175321  10.829   1.977   5.443
57808SOL    HW275322  10.806   1.872   5.337
57809SOL     OW75323  10.696   4.295  14.150
57809SOL    HW175324  10.600   4.288  14.147
57809SOL    HW275325  10.718   4.344  14.070
57810SOL     OW75326   9.075  11.402   5.789
57810SOL    HW175327   8.991  11.401   5.743
57810SOL    HW275328   9.070  11.326   5.848
57811SOL     OW75329   5.585  11.590   7.465
57811SOL    HW175330   5.655  11.587   7.530
57811SOL    HW275331   5.548  11.678   7.473
57812SOL     OW75332  13.408   3.994   6.878
57812SOL    HW175333  13.423   3.923   6.941
57812SOL    HW275334  13.461   3.971   6.802
57813SOL     OW75335   2.916  11.803   2.759
57813SOL    HW175336   2.890  11.721   2.800
57813SOL    HW275337   3.007  11.815   2.786
57814SOL     OW75338   1.249  10.669  10.271
57814SOL    HW175339   1.271  10.738  10.333
57814SOL    HW275340   1.312  10.599  10.290
57815SOL     OW75341   3.168   2.938   0.548
57815SOL    HW175342   3.229   2.934   0.622
57815SOL    HW275343   3.178   3.027   0.514
57816SOL     OW75344   8.647  10.028   5.866
57816SOL    HW175345   8.657   9.933   5.875
57816SOL    HW275346   8.579  10.038   5.799
57817SOL     OW75347   2.413   5.520   4.117
57817SOL    HW175348   2.364   5.438   4.121
57817SOL    HW275349   2.466   5.520   4.196
57818SOL     OW75350  11.817   4.546  10.162
57818SOL    HW175351  11.893   4.493  10.186
57818SOL    HW275352  11.761   4.543  10.240
57819SOL     OW75353   5.153  14.137  11.390
57819SOL    HW175354   5.178  14.109  11.302
57819SOL    HW275355   5.228  14.114  11.445
57820SOL     OW75356   7.728   9.156   2.804
57820SOL    HW175357   7.693   9.085   2.859
57820SOL    HW275358   7.650   9.198   2.768
57821SOL     OW75359   6.256  10.103   1.123
57821SOL    HW175360   6.232  10.011   1.111
57821SOL    HW275361   6.337  10.113   1.072
57822SOL     OW75362   8.175  11.900   4.274
57822SOL    HW175363   8.153  11.809   4.256
57822SOL    HW275364   8.133  11.919   4.358
57823SOL     OW75365   4.318   6.316  12.651
57823SOL    HW175366   4.228   6.348  12.660
57823SOL    HW275367   4.372   6.387  12.686
57824SOL     OW75368   8.755  12.598   9.143
57824SOL    HW175369   8.835  12.564   9.183
57824SOL    HW275370   8.686  12.580   9.207
57825SOL     OW75371  10.419   1.487   8.055
57825SOL    HW175372  10.489   1.478   7.990
57825SOL    HW275373  10.444   1.427   8.125
57826SOL     OW75374   6.562  14.647  14.516
57826SOL    HW175375   6.631  14.689  14.464
57826SOL    HW275376   6.587  14.555  14.518
57827SOL     OW75377   6.648   9.134   5.625
57827SOL    HW175378   6.554   9.154   5.630
57827SOL    HW275379   6.651   9.046   5.587
57828SOL     OW75380  13.207   3.480   2.660
57828SOL    HW175381  13.261   3.446   2.731
57828SOL    HW275382  13.270   3.510   2.594
57829SOL     OW75383  10.791   7.990   7.672
57829SOL    HW175384  10.710   8.027   7.706
57829SOL    HW275385  10.801   8.030   7.585
57830SOL     OW75386   7.532   1.256  12.892
57830SOL    HW175387   7.580   1.176  12.873
57830SOL    HW275388   7.548   1.273  12.985
57831SOL     OW75389   9.347   3.605   2.439
57831SOL    HW175390   9.393   3.521   2.441
57831SOL    HW275391   9.353   3.636   2.530
57832SOL     OW75392   8.192   8.100  10.377
57832SOL    HW175393   8.180   8.008  10.356
57832SOL    HW275394   8.206   8.101  10.472
57833SOL     OW75395   6.793   6.887   5.373
57833SOL    HW175396   6.858   6.906   5.441
57833SOL    HW275397   6.805   6.795   5.352
57834SOL     OW75398  12.808  12.168   6.343
57834SOL    HW175399  12.840  12.079   6.359
57834SOL    HW275400  12.715  12.156   6.322
57835SOL     OW75401  12.524   6.076   1.389
57835SOL    HW175402  12.574   6.150   1.356
57835SOL    HW275403  12.455   6.062   1.324
57836SOL     OW75404   2.817   5.560   9.431
57836SOL    HW175405   2.865   5.497   9.377
57836SOL    HW275406   2.882   5.628   9.450
57837SOL     OW75407   6.255  12.514   4.525
57837SOL    HW175408   6.235  12.603   4.497
57837SOL    HW275409   6.337  12.522   4.573
57838SOL     OW75410  13.395   1.466   3.924
57838SOL    HW175411  13.438   1.389   3.962
57838SOL    HW275412  13.417   1.462   3.831
57839SOL     OW75413   4.843  13.004  13.768
57839SOL    HW175414   4.899  13.006  13.691
57839SOL    HW275415   4.772  13.065  13.750
57840SOL     OW75416  11.544  12.635  14.571
57840SOL    HW175417  11.479  12.657  14.504
57840SOL    HW275418  11.617  12.694  14.554
57841SOL     OW75419  12.432  10.891   0.680
57841SOL    HW175420  12.356  10.900   0.623
57841SOL    HW275421  12.405  10.827   0.747
57842SOL     OW75422   7.188   1.822   9.617
57842SOL    HW175423   7.254   1.814   9.548
57842SOL    HW275424   7.140   1.902   9.595
57843SOL     OW75425   3.872   6.611   0.338
57843SOL    HW175426   3.916   6.588   0.420
57843SOL    HW275427   3.923   6.683   0.303
57844SOL     OW75428   1.616   6.419   0.729
57844SOL    HW175429   1.688   6.440   0.671
57844SOL    HW275430   1.562   6.498   0.731
57845SOL     OW75431  13.082   7.717   8.952
57845SOL    HW175432  13.018   7.663   8.999
57845SOL    HW275433  13.120   7.658   8.887
57846SOL     OW75434  14.791   3.363  12.434
57846SOL    HW175435  14.811   3.410  12.515
57846SOL    HW275436  14.857   3.394  12.372
57847SOL     OW75437  14.027   5.995   4.509
57847SOL    HW175438  14.058   5.955   4.590
57847SOL    HW275439  14.083   6.072   4.498
57848SOL     OW75440   3.780   7.052   3.262
57848SOL    HW175441   3.774   7.072   3.168
57848SOL    HW275442   3.872   7.068   3.284
57849SOL     OW75443   7.449  13.202   6.451
57849SOL    HW175444   7.544  13.199   6.442
57849SOL    HW275445   7.422  13.277   6.398
57850SOL     OW75446   2.369   6.845  11.476
57850SOL    HW175447   2.445   6.792  11.451
57850SOL    HW275448   2.395   6.935  11.454
57851SOL     OW75449   5.553   5.736   6.230
57851SOL    HW175450   5.601   5.769   6.155
57851SOL    HW275451   5.471   5.787   6.231
57852SOL     OW75452  13.812   2.557  13.631
57852SOL    HW175453  13.796   2.475  13.679
57852SOL    HW275454  13.769   2.624  13.683
57853SOL     OW75455   9.225  10.564   4.878
57853SOL    HW175456   9.138  10.526   4.864
57853SOL    HW275457   9.239  10.622   4.803
57854SOL     OW75458   9.728  12.412   1.842
57854SOL    HW175459   9.692  12.383   1.926
57854SOL    HW275460   9.777  12.336   1.809
57855SOL     OW75461   8.563   2.115   2.052
57855SOL    HW175462   8.488   2.110   2.111
57855SOL    HW275463   8.554   2.038   1.995
57856SOL     OW75464   8.896   3.146   2.059
57856SOL    HW175465   8.829   3.214   2.050
57856SOL    HW275466   8.887   3.093   1.980
57857SOL     OW75467  12.629   0.479  13.314
57857SOL    HW175468  12.649   0.477  13.221
57857SOL    HW275469  12.690   0.543  13.350
57858SOL     OW75470   5.939  11.939   0.965
57858SOL    HW175471   5.909  11.930   0.875
57858SOL    HW275472   5.861  11.969   1.013
57859SOL     OW75473  11.732   4.688   1.195
57859SOL    HW175474  11.793   4.650   1.259
57859SOL    HW275475  11.651   4.638   1.208
57860SOL     OW75476  13.832   5.114   7.656
57860SOL    HW175477  13.740   5.141   7.662
57860SOL    HW275478  13.836   5.060   7.576
57861SOL     OW75479   2.722   0.427  14.383
57861SOL    HW175480   2.789   0.477  14.336
57861SOL    HW275481   2.768   0.350  14.415
57862SOL     OW75482   2.714   6.888   2.911
57862SOL    HW175483   2.653   6.962   2.909
57862SOL    HW275484   2.720   6.864   3.003
57863SOL     OW75485   1.130  11.175   3.290
57863SOL    HW175486   1.136  11.083   3.317
57863SOL    HW275487   1.154  11.174   3.197
57864SOL     OW75488   1.987   6.106   6.579
57864SOL    HW175489   2.069   6.153   6.596
57864SOL    HW275490   1.939   6.114   6.662
57865SOL     OW75491   3.643  10.072  11.464
57865SOL    HW175492   3.729  10.044  11.495
57865SOL    HW275493   3.581  10.035  11.526
57866SOL     OW75494   5.055   0.570  13.051
57866SOL    HW175495   5.127   0.620  13.013
57866SOL    HW275496   4.978   0.597  13.001
57867SOL     OW75497  13.617  13.204  12.386
57867SOL    HW175498  13.688  13.201  12.451
57867SOL    HW275499  13.652  13.257  12.314
57868SOL     OW75500   6.576  12.864   0.726
57868SOL    HW175501   6.632  12.885   0.651
57868SOL    HW275502   6.495  12.912   0.709
57869SOL     OW75503   6.173   2.945   8.490
57869SOL    HW175504   6.144   2.854   8.497
57869SOL    HW275505   6.094   2.994   8.468
57870SOL     OW75506   0.792  10.224   4.260
57870SOL    HW175507   0.701  10.196   4.262
57870SOL    HW275508   0.842  10.143   4.250
57871SOL     OW75509   5.625   4.112   5.451
57871SOL    HW175510   5.614   4.206   5.441
57871SOL    HW275511   5.543   4.074   5.417
57872SOL     OW75512  10.376  12.128   9.506
57872SOL    HW175513  10.335  12.176   9.578
57872SOL    HW275514  10.302  12.098   9.452
57873SOL     OW75515  14.140  12.256  12.701
57873SOL    HW175516  14.215  12.258  12.760
57873SOL    HW275517  14.064  12.257  12.759
57874SOL     OW75518   8.054   5.620   6.650
57874SOL    HW175519   7.998   5.696   6.635
57874SOL    HW275520   8.036   5.561   6.577
57875SOL     OW75521  14.359   5.645   1.547
57875SOL    HW175522  14.328   5.570   1.597
57875SOL    HW275523  14.291   5.711   1.556
57876SOL     OW75524   0.827   1.663  14.330
57876SOL    HW175525   0.840   1.679  14.424
57876SOL    HW275526   0.816   1.569  14.323
57877SOL     OW75527  12.820  14.750  12.086
57877SOL    HW175528  12.873  14.779  12.012
57877SOL    HW275529  12.777  14.830  12.118
57878SOL     OW75530  10.900  11.559  13.554
57878SOL    HW175531  10.830  11.616  13.522
57878SOL    HW275532  10.879  11.547  13.647
57879SOL     OW75533  10.656  10.970   8.929
57879SOL    HW175534  10.721  10.902   8.911
57879SOL    HW275535  10.572  10.929   8.907
57880SOL     OW75536   8.520   5.135   4.333
57880SOL    HW175537   8.479   5.188   4.264
57880SOL    HW275538   8.599   5.182   4.356
57881SOL     OW75539   8.446   5.560  12.206
57881SOL    HW175540   8.383   5.626  12.236
57881SOL    HW275541   8.493   5.603  12.134
57882SOL     OW75542  13.443   7.420   6.808
57882SOL    HW175543  13.401   7.339   6.836
57882SOL    HW275544  13.525   7.393   6.767
57883SOL     OW75545   4.893   3.051   8.727
57883SOL    HW175546   4.919   3.143   8.721
57883SOL    HW275547   4.891   3.020   8.637
57884SOL     OW75548  10.737   5.496   5.741
57884SOL    HW175549  10.806   5.430   5.741
57884SOL    HW275550  10.778   5.575   5.776
57885SOL     OW75551   4.261   8.241   7.969
57885SOL    HW175552   4.308   8.304   8.023
57885SOL    HW275553   4.169   8.266   7.977
57886SOL     OW75554   2.893   9.320  14.631
57886SOL    HW175555   2.865   9.234  14.600
57886SOL    HW275556   2.988   9.319  14.621
57887SOL     OW75557  11.483   0.729  14.189
57887SOL    HW175558  11.448   0.818  14.188
57887SOL    HW275559  11.509   0.712  14.098
57888SOL     OW75560  12.665   8.668   3.819
57888SOL    HW175561  12.749   8.676   3.864
57888SOL    HW275562  12.601   8.703   3.881
57889SOL     OW75563   4.642  10.516   7.006
57889SOL    HW175564   4.679  10.430   6.989
57889SOL    HW275565   4.548  10.501   7.016
57890SOL     OW75566   1.286   3.088  11.717
57890SOL    HW175567   1.348   3.129  11.777
57890SOL    HW275568   1.339   3.026  11.666
57891SOL     OW75569  11.260   6.622  11.400
57891SOL    HW175570  11.289   6.701  11.353
57891SOL    HW275571  11.196   6.654  11.464
57892SOL     OW75572   0.311   8.215  14.236
57892SOL    HW175573   0.281   8.170  14.314
57892SOL    HW275574   0.312   8.307  14.260
57893SOL     OW75575  10.493   1.664   1.278
57893SOL    HW175576  10.507   1.577   1.240
57893SOL    HW275577  10.435   1.707   1.216
57894SOL     OW75578  13.863   9.056   9.805
57894SOL    HW175579  13.870   8.983   9.865
57894SOL    HW275580  13.872   9.017   9.718
57895SOL     OW75581   7.992  12.000   3.139
57895SOL    HW175582   7.917  11.940   3.143
57895SOL    HW275583   8.068  11.943   3.153
57896SOL     OW75584   0.115   9.090  10.549
57896SOL    HW175585   0.154   9.004  10.565
57896SOL    HW275586   0.080   9.116  10.634
57897SOL     OW75587   1.725   9.251   9.395
57897SOL    HW175588   1.637   9.285   9.410
57897SOL    HW275589   1.777   9.328   9.373
57898SOL     OW75590   3.442   4.205  12.343
57898SOL    HW175591   3.415   4.127  12.294
57898SOL    HW275592   3.378   4.272  12.318
57899SOL     OW75593   9.702   8.545   4.241
57899SOL    HW175594   9.684   8.611   4.307
57899SOL    HW275595   9.621   8.536   4.192
57900SOL     OW75596   1.908   6.766  11.140
57900SOL    HW175597   1.993   6.772  11.097
57900SOL    HW275598   1.869   6.686  11.105
57901SOL     OW75599  10.419   2.618  11.822
57901SOL    HW175600  10.470   2.692  11.790
57901SOL    HW275601  10.441   2.613  11.915
57902SOL     OW75602   4.612   7.306   5.952
57902SOL    HW175603   4.538   7.365   5.940
57902SOL    HW275604   4.651   7.333   6.035
57903SOL     OW75605  11.992   9.126  10.106
57903SOL    HW175606  12.001   9.142  10.200
57903SOL    HW275607  12.081   9.135  10.072
57904SOL     OW75608   7.668  13.170   7.283
57904SOL    HW175609   7.749  13.156   7.331
57904SOL    HW275610   7.654  13.089   7.235
57905SOL     OW75611   5.672   9.822  10.492
57905SOL    HW175612   5.745   9.852  10.546
57905SOL    HW275613   5.630   9.902  10.462
57906SOL     OW75614  10.405   5.136   3.068
57906SOL    HW175615  10.336   5.157   3.005
57906SOL    HW275616  10.359   5.121   3.150
57907SOL     OW75617  14.018   4.562  13.153
57907SOL    HW175618  13.999   4.580  13.245
57907SOL    HW275619  13.999   4.644  13.107
57908SOL     OW75620  10.704  13.018   5.190
57908SOL    HW175621  10.688  13.096   5.137
57908SOL    HW275622  10.620  13.002   5.235
57909SOL     OW75623  14.156  11.394  14.605
57909SOL    HW175624  14.117  11.350  14.530
57909SOL    HW275625  14.093  11.380  14.676
57910SOL     OW75626  12.388  10.353  10.134
57910SOL    HW175627  12.454  10.326  10.197
57910SOL    HW275628  12.373  10.275  10.079
57911SOL     OW75629   9.530   6.844   6.449
57911SOL    HW175630   9.500   6.874   6.535
57911SOL    HW275631   9.508   6.751   6.447
57912SOL     OW75632   8.881  12.399  12.269
57912SOL    HW175633   8.815  12.460  12.239
57912SOL    HW275634   8.840  12.353  12.342
57913SOL     OW75635   7.212   8.943   3.669
57913SOL    HW175636   7.276   8.918   3.736
57913SOL    HW275637   7.129   8.947   3.716
57914SOL     OW75638   5.885  14.326   8.291
57914SOL    HW175639   5.974  14.295   8.277
57914SOL    HW275640   5.832  14.246   8.294
57915SOL     OW75641   8.460   2.573   2.034
57915SOL    HW175642   8.443   2.665   2.051
57915SOL    HW275643   8.375   2.531   2.045
57916SOL     OW75644   1.242   8.094   6.295
57916SOL    HW175645   1.184   8.170   6.299
57916SOL    HW275646   1.306   8.109   6.364
57917SOL     OW75647   0.092  11.536  10.105
57917SOL    HW175648   0.122  11.467  10.046
57917SOL    HW275649   0.037  11.490  10.169
57918SOL     OW75650  14.648   5.718   7.798
57918SOL    HW175651  14.678   5.760   7.718
57918SOL    HW275652  14.663   5.783   7.867
57919SOL     OW75653   6.822   2.688  10.723
57919SOL    HW175654   6.800   2.661  10.812
57919SOL    HW275655   6.917   2.674  10.717
57920SOL     OW75656   1.821   2.436   9.845
57920SOL    HW175657   1.789   2.521   9.876
57920SOL    HW275658   1.909   2.429   9.881
57921SOL     OW75659  10.305   6.089   7.539
57921SOL    HW175660  10.270   6.013   7.587
57921SOL    HW275661  10.323   6.055   7.451
57922SOL     OW75662   3.173   8.755   1.033
57922SOL    HW175663   3.221   8.709   0.964
57922SOL    HW275664   3.219   8.838   1.042
57923SOL     OW75665   3.569  10.186   8.977
57923SOL    HW175666   3.563  10.236   8.895
57923SOL    HW275667   3.567  10.094   8.949
57924SOL     OW75668   9.408  14.534  11.695
57924SOL    HW175669   9.436  14.457  11.744
57924SOL    HW275670   9.459  14.606  11.733
57925SOL     OW75671   5.555  10.783  13.690
57925SOL    HW175672   5.518  10.704  13.730
57925SOL    HW275673   5.482  10.821  13.641
57926SOL     OW75674  14.624   5.800  12.921
57926SOL    HW175675  14.574   5.858  12.864
57926SOL    HW275676  14.578   5.716  12.917
57927SOL     OW75677   8.202   2.419   3.619
57927SOL    HW175678   8.272   2.360   3.646
57927SOL    HW275679   8.125   2.389   3.667
57928SOL     OW75680   2.707  14.596   4.285
57928SOL    HW175681   2.619  14.562   4.299
57928SOL    HW275682   2.753  14.576   4.367
57929SOL     OW75683   8.009   3.582   0.483
57929SOL    HW175684   8.009   3.492   0.517
57929SOL    HW275685   7.968   3.633   0.553
57930SOL     OW75686   3.858  11.789   5.830
57930SOL    HW175687   3.803  11.814   5.755
57930SOL    HW275688   3.947  11.794   5.797
57931SOL     OW75689   6.140   7.511   1.890
57931SOL    HW175690   6.069   7.467   1.843
57931SOL    HW275691   6.130   7.603   1.868
57932SOL     OW75692   5.453   5.444   7.467
57932SOL    HW175693   5.447   5.472   7.375
57932SOL    HW275694   5.524   5.497   7.503
57933SOL     OW75695  11.995   3.061   9.264
57933SOL    HW175696  11.944   3.130   9.221
57933SOL    HW275697  12.016   3.097   9.350
57934SOL     OW75698   4.382  13.547   9.591
57934SOL    HW175699   4.426  13.615   9.540
57934SOL    HW275700   4.441  13.529   9.664
57935SOL     OW75701  10.898   6.208   6.005
57935SOL    HW175702  10.950   6.195   5.925
57935SOL    HW275703  10.897   6.122   6.047
57936SOL     OW75704   4.736   3.343  14.402
57936SOL    HW175705   4.773   3.418  14.356
57936SOL    HW275706   4.680   3.381  14.470
57937SOL     OW75707   0.906   6.080   9.579
57937SOL    HW175708   0.971   6.070   9.648
57937SOL    HW275709   0.823   6.056   9.621
57938SOL     OW75710   7.372   6.722   2.897
57938SOL    HW175711   7.450   6.666   2.891
57938SOL    HW275712   7.318   6.681   2.964
57939SOL     OW75713   3.680   9.725   8.105
57939SOL    HW175714   3.681   9.691   8.195
57939SOL    HW275715   3.755   9.684   8.062
57940SOL     OW75716   8.498  10.339   2.941
57940SOL    HW175717   8.588  10.318   2.917
57940SOL    HW275718   8.487  10.300   3.028
57941SOL     OW75719   0.727   3.413   4.834
57941SOL    HW175720   0.717   3.483   4.899
57941SOL    HW275721   0.654   3.355   4.850
57942SOL     OW75722  12.193  14.618  12.565
57942SOL    HW175723  12.286  14.640  12.556
57942SOL    HW275724  12.154  14.695  12.606
57943SOL     OW75725  10.192   0.899   7.151
57943SOL    HW175726  10.278   0.913   7.191
57943SOL    HW275727  10.210   0.846   7.073
57944SOL     OW75728   7.180   0.767  10.783
57944SOL    HW175729   7.265   0.731  10.809
57944SOL    HW275730   7.135   0.784  10.866
57945SOL     OW75731  14.764   3.245   2.547
57945SOL    HW175732  14.729   3.166   2.506
57945SOL    HW275733  14.852   3.253   2.510
57946SOL     OW75734  10.117   8.568  13.952
57946SOL    HW175735  10.143   8.558  14.044
57946SOL    HW275736  10.124   8.662  13.936
57947SOL     OW75737  11.690  10.482   5.183
57947SOL    HW175738  11.639  10.559   5.155
57947SOL    HW275739  11.681  10.421   5.110
57948SOL     OW75740   4.719   7.248  13.871
57948SOL    HW175741   4.757   7.166  13.904
57948SOL    HW275742   4.754   7.257  13.783
57949SOL     OW75743  14.803   5.790   1.659
57949SOL    HW175744  14.717   5.780   1.620
57949SOL    HW275745  14.845   5.859   1.607
57950SOL     OW75746   8.344   1.725   3.030
57950SOL    HW175747   8.303   1.810   3.044
57950SOL    HW275748   8.421   1.725   3.087
57951SOL     OW75749  14.817   7.632   6.667
57951SOL    HW175750  14.748   7.695   6.689
57951SOL    HW275751  14.864   7.620   6.749
57952SOL     OW75752  11.674   3.492  11.348
57952SOL    HW175753  11.747   3.516  11.291
57952SOL    HW275754  11.713   3.480  11.434
57953SOL     OW75755   5.971   6.841   4.700
57953SOL    HW175756   5.966   6.934   4.676
57953SOL    HW275757   5.985   6.796   4.617
57954SOL     OW75758   8.257  13.815   0.545
57954SOL    HW175759   8.232  13.861   0.465
57954SOL    HW275760   8.257  13.723   0.520
57955SOL     OW75761   1.903   1.164  11.407
57955SOL    HW175762   1.835   1.100  11.431
57955SOL    HW275763   1.982   1.133  11.452
57956SOL     OW75764   7.028   0.830  14.713
57956SOL    HW175765   7.107   0.884  14.711
57956SOL    HW275766   6.993   0.834  14.624
57957SOL     OW75767   8.784   4.176   8.870
57957SOL    HW175768   8.879   4.182   8.860
57957SOL    HW275769   8.750   4.251   8.823
57958SOL     OW75770  14.198   1.553   5.188
57958SOL    HW175771  14.210   1.561   5.282
57958SOL    HW275772  14.268   1.495   5.159
57959SOL     OW75773   6.123   8.464  14.673
57959SOL    HW175774   6.208   8.436  14.639
57959SOL    HW275775   6.061   8.399  14.640
57960SOL     OW75776   4.403  11.375  12.908
57960SOL    HW175777   4.424  11.306  12.971
57960SOL    HW275778   4.314  11.356  12.880
57961SOL     OW75779   6.208  12.351   5.228
57961SOL    HW175780   6.191  12.382   5.317
57961SOL    HW275781   6.206  12.255   5.234
57962SOL     OW75782   7.471  11.463   6.630
57962SOL    HW175783   7.375  11.458   6.632
57962SOL    HW275784   7.490  11.554   6.651
57963SOL     OW75785  11.947  13.638   0.688
57963SOL    HW175786  12.009  13.705   0.716
57963SOL    HW275787  11.988  13.597   0.612
57964SOL     OW75788   9.898   9.113   5.717
57964SOL    HW175789   9.925   9.176   5.783
57964SOL    HW275790   9.980   9.077   5.683
57965SOL     OW75791  11.169   5.233  12.262
57965SOL    HW175792  11.219   5.195  12.334
57965SOL    HW275793  11.118   5.160  12.227
57966SOL     OW75794  12.172  11.567  14.180
57966SOL    HW175795  12.220  11.650  14.177
57966SOL    HW275796  12.237  11.504  14.211
57967SOL     OW75797   7.979   5.698   2.807
57967SOL    HW175798   7.932   5.747   2.739
57967SOL    HW275799   7.975   5.755   2.884
57968SOL     OW75800  14.304   5.214   8.188
57968SOL    HW175801  14.220   5.232   8.145
57968SOL    HW275802  14.360   5.184   8.117
57969SOL     OW75803  13.760   8.200  12.376
57969SOL    HW175804  13.852   8.191  12.354
57969SOL    HW275805  13.713   8.159  12.303
57970SOL     OW75806   8.188   2.475   7.256
57970SOL    HW175807   8.166   2.549   7.312
57970SOL    HW275808   8.230   2.412   7.315
57971SOL     OW75809   9.278   4.270  12.031
57971SOL    HW175810   9.285   4.351  12.082
57971SOL    HW275811   9.269   4.201  12.097
57972SOL     OW75812   3.608   3.846   7.936
57972SOL    HW175813   3.613   3.753   7.955
57972SOL    HW275814   3.589   3.888   8.020
57973SOL     OW75815   7.349   1.468   6.674
57973SOL    HW175816   7.325   1.528   6.744
57973SOL    HW275817   7.433   1.500   6.642
57974SOL     OW75818   1.008   9.804  10.463
57974SOL    HW175819   1.094   9.830  10.495
57974SOL    HW275820   1.008   9.830  10.371
57975SOL     OW75821   7.107   0.339  13.348
57975SOL    HW175822   7.108   0.293  13.432
57975SOL    HW275823   7.075   0.427  13.369
57976SOL     OW75824   7.563  12.229   0.382
57976SOL    HW175825   7.609  12.212   0.465
57976SOL    HW275826   7.471  12.212   0.402
57977SOL     OW75827   0.607   5.924  11.975
57977SOL    HW175828   0.624   5.927  11.881
57977SOL    HW275829   0.688   5.958  12.014
57978SOL     OW75830   6.773   2.848  13.035
57978SOL    HW175831   6.803   2.869  13.123
57978SOL    HW275832   6.776   2.753  13.030
57979SOL     OW75833   6.736  10.531   5.029
57979SOL    HW175834   6.813  10.579   5.000
57979SOL    HW275835   6.742  10.532   5.125
57980SOL     OW75836   2.587  13.705   4.174
57980SOL    HW175837   2.534  13.634   4.209
57980SOL    HW275838   2.622  13.749   4.252
57981SOL     OW75839   6.130   8.174  11.403
57981SOL    HW175840   6.171   8.099  11.358
57981SOL    HW275841   6.043   8.143  11.427
57982SOL     OW75842   2.915   7.072  11.952
57982SOL    HW175843   2.904   7.159  11.913
57982SOL    HW275844   2.928   7.090  12.045
57983SOL     OW75845   7.394  11.610   1.002
57983SOL    HW175846   7.301  11.595   0.984
57983SOL    HW275847   7.437  11.531   0.969
57984SOL     OW75848   9.218  13.537   6.981
57984SOL    HW175849   9.213  13.458   7.034
57984SOL    HW275850   9.275  13.596   7.031
57985SOL     OW75851  12.314  10.166   7.684
57985SOL    HW175852  12.234  10.147   7.733
57985SOL    HW275853  12.357  10.235   7.734
57986SOL     OW75854   1.229   3.867   7.645
57986SOL    HW175855   1.150   3.920   7.629
57986SOL    HW275856   1.295   3.905   7.587
57987SOL     OW75857  11.804   6.451   4.434
57987SOL    HW175858  11.809   6.356   4.427
57987SOL    HW275859  11.772   6.467   4.523
57988SOL     OW75860   4.392   3.874   1.892
57988SOL    HW175861   4.450   3.798   1.887
57988SOL    HW275862   4.328   3.850   1.960
57989SOL     OW75863  11.569  13.728   1.102
57989SOL    HW175864  11.490  13.674   1.107
57989SOL    HW275865  11.631  13.676   1.051
57990SOL     OW75866   8.620   8.673   6.903
57990SOL    HW175867   8.639   8.642   6.815
57990SOL    HW275868   8.545   8.731   6.892
57991SOL     OW75869   1.667   9.048   6.392
57991SOL    HW175870   1.719   8.968   6.392
57991SOL    HW275871   1.619   9.046   6.475
57992SOL     OW75872   8.441   8.409   2.600
57992SOL    HW175873   8.461   8.431   2.509
57992SOL    HW275874   8.371   8.345   2.595
57993SOL     OW75875   9.379   3.566   6.600
57993SOL    HW175876   9.415   3.484   6.633
57993SOL    HW275877   9.318   3.595   6.668
57994SOL     OW75878  13.897   5.454   9.520
57994SOL    HW175879  13.933   5.418   9.601
57994SOL    HW275880  13.802   5.458   9.535
57995SOL     OW75881   8.452   4.107   7.653
57995SOL    HW175882   8.443   4.203   7.652
57995SOL    HW275883   8.512   4.088   7.582
57996SOL     OW75884   6.178   3.443  10.057
57996SOL    HW175885   6.161   3.434  10.151
57996SOL    HW275886   6.258   3.391  10.043
57997SOL     OW75887   5.436   6.442  14.387
57997SOL    HW175888   5.472   6.393  14.314
57997SOL    HW275889   5.443   6.534  14.361
57998SOL     OW75890   2.191   5.946  13.128
57998SOL    HW175891   2.105   5.904  13.128
57998SOL    HW275892   2.178   6.030  13.086
57999SOL     OW75893   2.557   5.954   9.840
57999SOL    HW175894   2.496   5.881   9.839
57999SOL    HW275895   2.611   5.940   9.918
58000SOL     OW75896   2.467   1.361   9.498
58000SOL    HW175897   2.435   1.287   9.549
58000SOL    HW275898   2.482   1.325   9.411
58001SOL     OW75899   0.894  10.984  14.849
58001SOL    HW175900   0.827  10.921  14.822
58001SOL    HW275901   0.957  10.932   0.019
58002SOL     OW75902   2.892   1.859   5.646
58002SOL    HW175903   2.859   1.946   5.665
58002SOL    HW275904   2.848   1.834   5.564
58003SOL     OW75905   9.880  11.004  13.782
58003SOL    HW175906   9.824  10.996  13.860
58003SOL    HW275907   9.892  10.914  13.752
58004SOL     OW75908   0.027   9.647   5.757
58004SOL    HW175909  14.852   9.714   5.716
58004SOL    HW275910  14.855   9.566   5.749
58005SOL     OW75911  13.409   0.906   2.719
58005SOL    HW175912  13.365   0.938   2.797
58005SOL    HW275913  13.403   0.810   2.725
58006SOL     OW75914  13.284   8.576   9.960
58006SOL    HW175915  13.266   8.482   9.962
58006SOL    HW275916  13.203   8.617   9.991
58007SOL     OW75917   8.837   8.580   1.577
58007SOL    HW175918   8.918   8.534   1.558
58007SOL    HW275919   8.781   8.515   1.619
58008SOL     OW75920   6.532  12.509   5.918
58008SOL    HW175921   6.477  12.436   5.947
58008SOL    HW275922   6.621  12.473   5.918
58009SOL     OW75923   9.508   0.403   4.166
58009SOL    HW175924   9.429   0.349   4.158
58009SOL    HW275925   9.518   0.417   4.261
58010SOL     OW75926  11.424  13.246   5.002
58010SOL    HW175927  11.508  13.234   5.046
58010SOL    HW275928  11.442  13.228   4.910
58011SOL     OW75929   2.694  14.200  13.137
58011SOL    HW175930   2.769  14.213  13.195
58011SOL    HW275931   2.618  14.197  13.195
58012SOL     OW75932  12.257  11.072   4.171
58012SOL    HW175933  12.169  11.036   4.156
58012SOL    HW275934  12.316  11.011   4.127
58013SOL     OW75935   4.886  13.377   7.964
58013SOL    HW175936   4.838  13.299   7.938
58013SOL    HW275937   4.894  13.428   7.883
58014SOL     OW75938   8.794  14.472   8.154
58014SOL    HW175939   8.713  14.508   8.191
58014SOL    HW275940   8.797  14.382   8.186
58015SOL     OW75941   1.494   8.981   6.601
58015SOL    HW175942   1.412   9.025   6.625
58015SOL    HW275943   1.471   8.888   6.596
58016SOL     OW75944  10.267  10.821   7.143
58016SOL    HW175945  10.359  10.808   7.122
58016SOL    HW275946  10.263  10.909   7.181
58017SOL     OW75947   9.693   5.210   9.442
58017SOL    HW175948   9.647   5.284   9.404
58017SOL    HW275949   9.732   5.244   9.522
58018SOL     OW75950   7.110   6.344  11.202
58018SOL    HW175951   7.113   6.250  11.183
58018SOL    HW275952   7.081   6.384  11.121
58019SOL     OW75953   5.549   3.451   1.470
58019SOL    HW175954   5.614   3.458   1.540
58019SOL    HW275955   5.599   3.465   1.390
58020SOL     OW75956   6.586   4.647  13.879
58020SOL    HW175957   6.515   4.710  13.874
58020SOL    HW275958   6.651   4.679  13.816
58021SOL     OW75959   8.774  14.303  12.243
58021SOL    HW175960   8.804  14.351  12.321
58021SOL    HW275961   8.832  14.332  12.173
58022SOL     OW75962   5.541  11.865   9.548
58022SOL    HW175963   5.501  11.898   9.628
58022SOL    HW275964   5.469  11.822   9.501
58023SOL     OW75965   8.084  10.067  14.137
58023SOL    HW175966   8.065  10.060  14.044
58023SOL    HW275967   8.000  10.089  14.177
58024SOL     OW75968   3.334   8.438   5.118
58024SOL    HW175969   3.390   8.369   5.154
58024SOL    HW275970   3.387   8.478   5.049
58025SOL     OW75971  14.664  10.013   3.715
58025SOL    HW175972  14.729   9.943   3.724
58025SOL    HW275973  14.676  10.045   3.625
58026SOL     OW75974   1.107  12.700   8.367
58026SOL    HW175975   1.178  12.761   8.347
58026SOL    HW275976   1.140  12.648   8.440
58027SOL     OW75977  13.288   0.389  14.868
58027SOL    HW175978  13.360   0.449   0.005
58027SOL    HW275979  13.209   0.443  14.876
58028SOL     OW75980  11.101   9.299   1.277
58028SOL    HW175981  11.056   9.231   1.226
58028SOL    HW275982  11.188   9.263   1.293
58029SOL     OW75983   0.480   4.924   7.059
58029SOL    HW175984   0.514   4.997   7.008
58029SOL    HW275985   0.512   4.938   7.148
58030SOL     OW75986  12.356   5.193  10.358
58030SOL    HW175987  12.418   5.265  10.373
58030SOL    HW275988  12.385   5.124  10.417
58031SOL     OW75989   0.503   4.126   3.132
58031SOL    HW175990   0.432   4.189   3.134
58031SOL    HW275991   0.555   4.145   3.210
58032SOL     OW75992  14.015  14.154  10.950
58032SOL    HW175993  14.085  14.119  10.893
58032SOL    HW275994  14.042  14.244  10.969
58033SOL     OW75995   1.787   0.446  14.060
58033SOL    HW175996   1.796   0.527  14.010
58033SOL    HW275997   1.762   0.380  13.995
58034SOL     OW75998   0.239   9.046   9.857
58034SOL    HW175999   0.174   8.983   9.825
58034SOL    HW276000   0.241   9.032   9.952
58035SOL     OW76001   6.559  13.230   8.425
58035SOL    HW176002   6.469  13.228   8.458
58035SOL    HW276003   6.597  13.309   8.463
58036SOL     OW76004   6.153   9.336   3.739
58036SOL    HW176005   6.151   9.349   3.644
58036SOL    HW276006   6.246   9.336   3.762
58037SOL     OW76007  11.866   4.374   8.908
58037SOL    HW176008  11.875   4.290   8.954
58037SOL    HW276009  11.824   4.352   8.825
58038SOL     OW76010   4.661  11.822   6.117
58038SOL    HW176011   4.667  11.750   6.181
58038SOL    HW276012   4.638  11.898   6.169
58039SOL     OW76013   8.499   9.118   4.824
58039SOL    HW176014   8.570   9.120   4.759
58039SOL    HW276015   8.521   9.046   4.882
58040SOL     OW76016   2.291   7.637   1.583
58040SOL    HW176017   2.374   7.674   1.551
58040SOL    HW276018   2.244   7.613   1.503
58041SOL     OW76019   1.767   6.192   4.207
58041SOL    HW176020   1.678   6.221   4.229
58041SOL    HW276021   1.821   6.222   4.279
58042SOL     OW76022   2.335   8.635   1.478
58042SOL    HW176023   2.289   8.666   1.400
58042SOL    HW276024   2.321   8.541   1.479
58043SOL     OW76025   9.495   8.372   1.574
58043SOL    HW176026   9.577   8.421   1.579
58043SOL    HW276027   9.455   8.383   1.660
58044SOL     OW76028   4.659   0.592   7.537
58044SOL    HW176029   4.583   0.646   7.558
58044SOL    HW276030   4.734   0.649   7.553
58045SOL     OW76031   3.569   6.261   4.763
58045SOL    HW176032   3.566   6.224   4.851
58045SOL    HW276033   3.626   6.202   4.714
58046SOL     OW76034   0.955   1.808   4.965
58046SOL    HW176035   1.027   1.760   5.005
58046SOL    HW276036   0.876   1.777   5.010
58047SOL     OW76037  11.343   1.590   2.682
58047SOL    HW176038  11.324   1.505   2.642
58047SOL    HW276039  11.382   1.568   2.767
58048SOL     OW76040   3.177   2.520  10.788
58048SOL    HW176041   3.135   2.501  10.872
58048SOL    HW276042   3.240   2.449  10.776
58049SOL     OW76043   0.368   1.969   5.736
58049SOL    HW176044   0.373   2.058   5.700
58049SOL    HW276045   0.331   1.980   5.823
58050SOL     OW76046   6.453  12.566  11.315
58050SOL    HW176047   6.382  12.539  11.373
58050SOL    HW276048   6.443  12.661  11.306
58051SOL     OW76049  13.605  13.268   8.182
58051SOL    HW176050  13.555  13.210   8.241
58051SOL    HW276051  13.575  13.356   8.205
58052SOL     OW76052  12.719  13.668  11.355
58052SOL    HW176053  12.795  13.632  11.400
58052SOL    HW276054  12.693  13.742  11.409
58053SOL     OW76055   8.720  10.965   2.466
58053SOL    HW176056   8.763  11.013   2.395
58053SOL    HW276057   8.626  10.971   2.445
58054SOL     OW76058   9.129   9.962  12.930
58054SOL    HW176059   9.096   9.938  13.017
58054SOL    HW276060   9.224   9.956  12.938
58055SOL     OW76061  13.923   8.173   5.113
58055SOL    HW176062  13.881   8.245   5.159
58055SOL    HW276063  13.859   8.102   5.115
58056SOL     OW76064   4.321   6.649   8.290
58056SOL    HW176065   4.281   6.618   8.209
58056SOL    HW276066   4.408   6.679   8.264
58057SOL     OW76067   8.809   5.204   8.773
58057SOL    HW176068   8.801   5.123   8.721
58057SOL    HW276069   8.833   5.173   8.860
58058SOL     OW76070  14.822  10.281   7.351
58058SOL    HW176071  14.781  10.195   7.339
58058SOL    HW276072  14.843  10.310   7.262
58059SOL     OW76073  13.552  11.700  14.769
58059SOL    HW176074  13.610  11.743  14.707
58059SOL    HW276075  13.467  11.741  14.755
58060SOL     OW76076  11.043   5.261  12.664
58060SOL    HW176077  11.028   5.295  12.576
58060SOL    HW276078  11.098   5.328  12.706
58061SOL     OW76079  14.118   9.698   5.313
58061SOL    HW176080  14.189   9.729   5.258
58061SOL    HW276081  14.155   9.696   5.402
58062SOL     OW76082   9.892  13.197  11.272
58062SOL    HW176083   9.842  13.187  11.353
58062SOL    HW276084   9.971  13.145  11.285
58063SOL     OW76085  13.024   5.322  13.045
58063SOL    HW176086  12.976   5.298  12.965
58063SOL    HW276087  13.034   5.239  13.092
58064SOL     OW76088  13.232   2.668   8.599
58064SOL    HW176089  13.305   2.623   8.556
58064SOL    HW276090  13.156   2.612   8.581
58065SOL     OW76091  10.129   3.558   0.942
58065SOL    HW176092  10.163   3.471   0.964
58065SOL    HW276093  10.185   3.619   0.989
58066SOL     OW76094   1.171   1.076   8.309
58066SOL    HW176095   1.155   0.983   8.327
58066SOL    HW276096   1.231   1.075   8.234
58067SOL     OW76097   3.090  12.988   4.783
58067SOL    HW176098   3.094  13.041   4.863
58067SOL    HW276099   3.042  12.910   4.807
58068SOL     OW76100   3.027   7.698   4.907
58068SOL    HW176101   3.103   7.676   4.854
58068SOL    HW276102   2.967   7.742   4.847
58069SOL     OW76103   7.079   3.570   5.789
58069SOL    HW176104   6.995   3.568   5.742
58069SOL    HW276105   7.070   3.502   5.856
58070SOL     OW76106   4.031   3.248   6.961
58070SOL    HW176107   4.090   3.323   6.951
58070SOL    HW276108   4.089   3.172   6.956
58071SOL     OW76109  10.631  10.093   9.583
58071SOL    HW176110  10.694  10.087   9.511
58071SOL    HW276111  10.548  10.116   9.542
58072SOL     OW76112   9.963  10.775   7.647
58072SOL    HW176113   9.966  10.782   7.552
58072SOL    HW276114   9.952  10.865   7.678
58073SOL     OW76115  14.021  10.780   7.296
58073SOL    HW176116  14.066  10.803   7.378
58073SOL    HW276117  13.928  10.785   7.318
58074SOL     OW76118   2.854  11.469  14.692
58074SOL    HW176119   2.836  11.396  14.633
58074SOL    HW276120   2.820  11.440  14.777
58075SOL     OW76121   1.466   0.371   1.831
58075SOL    HW176122   1.543   0.426   1.849
58075SOL    HW276123   1.393   0.433   1.830
58076SOL     OW76124   4.645  11.894  14.854
58076SOL    HW176125   4.716  11.837  14.825
58076SOL    HW276126   4.638  11.877   0.068
58077SOL     OW76127   4.217   2.723   2.393
58077SOL    HW176128   4.206   2.793   2.459
58077SOL    HW276129   4.252   2.649   2.443
58078SOL     OW76130  10.337   9.128   1.177
58078SOL    HW176131  10.380   9.175   1.249
58078SOL    HW276132  10.273   9.190   1.142
58079SOL     OW76133  10.551  13.990   3.903
58079SOL    HW176134  10.531  13.953   3.989
58079SOL    HW276135  10.642  14.020   3.910
58080SOL     OW76136  11.190   2.613   0.569
58080SOL    HW176137  11.263   2.569   0.612
58080SOL    HW276138  11.118   2.550   0.575
58081SOL     OW76139   7.214   8.711   7.019
58081SOL    HW176140   7.138   8.683   7.070
58081SOL    HW276141   7.288   8.703   7.080
58082SOL     OW76142  12.975   2.906   8.837
58082SOL    HW176143  12.923   2.971   8.884
58082SOL    HW276144  12.948   2.916   8.745
58083SOL     OW76145   6.581  11.255   0.134
58083SOL    HW176146   6.570  11.212   0.219
58083SOL    HW276147   6.531  11.337   0.142
58084SOL     OW76148   8.298   8.394  11.121
58084SOL    HW176149   8.320   8.440  11.202
58084SOL    HW276150   8.329   8.304  11.136
58085SOL     OW76151   0.388   3.082  14.332
58085SOL    HW176152   0.367   3.124  14.249
58085SOL    HW276153   0.468   3.033  14.315
58086SOL     OW76154  13.130   8.414  11.799
58086SOL    HW176155  13.226   8.416  11.804
58086SOL    HW276156  13.110   8.455  11.715
58087SOL     OW76157   7.338  14.072   1.439
58087SOL    HW176158   7.266  14.076   1.377
58087SOL    HW276159   7.360  14.164   1.457
58088SOL     OW76160   7.588   0.840   2.921
58088SOL    HW176161   7.500   0.839   2.884
58088SOL    HW276162   7.591   0.763   2.978
58089SOL     OW76163   1.837   6.504   1.968
58089SOL    HW176164   1.775   6.543   1.905
58089SOL    HW276165   1.848   6.414   1.938
58090SOL     OW76166   7.752   1.322  10.414
58090SOL    HW176167   7.806   1.272  10.352
58090SOL    HW276168   7.782   1.412  10.405
58091SOL     OW76169  11.924   5.791   1.446
58091SOL    HW176170  11.979   5.723   1.484
58091SOL    HW276171  11.839   5.749   1.431
58092SOL     OW76172   6.297  10.868  11.154
58092SOL    HW176173   6.203  10.850  11.159
58092SOL    HW276174   6.324  10.879  11.245
58093SOL     OW76175   0.914   5.433   9.995
58093SOL    HW176176   0.946   5.438   9.905
58093SOL    HW276177   0.991   5.414  10.047
58094SOL     OW76178  12.174  13.620   5.022
58094SOL    HW176179  12.244  13.559   4.999
58094SOL    HW276180  12.166  13.614   5.117
58095SOL     OW76181  14.028  11.878  10.132
58095SOL    HW176182  14.041  11.951  10.193
58095SOL    HW276183  13.945  11.839  10.158
58096SOL     OW76184   1.026   5.401  12.808
58096SOL    HW176185   0.944   5.432  12.770
58096SOL    HW276186   1.094   5.443  12.755
58097SOL     OW76187  13.243   7.878   5.462
58097SOL    HW176188  13.198   7.961   5.478
58097SOL    HW276189  13.196   7.813   5.514
58098SOL     OW76190   7.635  12.570  13.529
58098SOL    HW176191   7.703  12.634  13.509
58098SOL    HW276192   7.598  12.546  13.444
58099SOL     OW76193  12.608  14.416   6.596
58099SOL    HW176194  12.521  14.378   6.587
58099SOL    HW276195  12.641  14.422   6.507
58100SOL     OW76196   4.179   7.531   3.865
58100SOL    HW176197   4.178   7.604   3.804
58100SOL    HW276198   4.150   7.568   3.949
58101SOL     OW76199   0.228   6.053   8.004
58101SOL    HW176200   0.166   6.090   8.067
58101SOL    HW276201   0.275   6.129   7.969
58102SOL     OW76202   0.399   3.760  13.928
58102SOL    HW176203   0.473   3.754  13.987
58102SOL    HW276204   0.432   3.729  13.844
58103SOL     OW76205   6.172   3.966   4.098
58103SOL    HW176206   6.165   3.871   4.106
58103SOL    HW276207   6.113   4.000   4.165
58104SOL     OW76208   4.974   7.020   4.937
58104SOL    HW176209   4.965   6.925   4.934
58104SOL    HW276210   5.041   7.035   5.003
58105SOL     OW76211   4.569   5.870   3.743
58105SOL    HW176212   4.537   5.783   3.767
58105SOL    HW276213   4.531   5.887   3.657
58106SOL     OW76214   9.315  11.367   4.250
58106SOL    HW176215   9.346  11.457   4.234
58106SOL    HW276216   9.235  11.379   4.302
58107SOL     OW76217   5.934  11.570   3.629
58107SOL    HW176218   5.960  11.592   3.719
58107SOL    HW276219   5.859  11.512   3.639
58108SOL     OW76220   8.689   1.940  11.186
58108SOL    HW176221   8.724   1.868  11.238
58108SOL    HW276222   8.761   1.964  11.127
58109SOL     OW76223  10.742  14.769  14.518
58109SOL    HW176224  10.802  14.695  14.508
58109SOL    HW276225  10.699  14.777  14.433
58110SOL     OW76226   6.450   3.984  11.157
58110SOL    HW176227   6.442   4.060  11.100
58110SOL    HW276228   6.532   3.998  11.206
58111SOL     OW76229   4.849  10.632   5.042
58111SOL    HW176230   4.914  10.584   4.991
58111SOL    HW276231   4.882  10.629   5.132
58112SOL     OW76232   9.090   3.439  10.078
58112SOL    HW176233   9.113   3.454  10.170
58112SOL    HW276234   9.078   3.527  10.042
58113SOL     OW76235  11.769   9.066   5.913
58113SOL    HW176236  11.824   9.108   5.846
58113SOL    HW276237  11.746   9.136   5.973
58114SOL     OW76238  14.537   7.689   2.213
58114SOL    HW176239  14.508   7.675   2.122
58114SOL    HW276240  14.492   7.769   2.240
58115SOL     OW76241   4.553   6.481  10.365
58115SOL    HW176242   4.492   6.533  10.418
58115SOL    HW276243   4.529   6.390  10.383
58116SOL     OW76244  12.368   1.730   7.387
58116SOL    HW176245  12.405   1.650   7.424
58116SOL    HW276246  12.275   1.710   7.374
58117SOL     OW76247   7.542  12.344  13.748
58117SOL    HW176248   7.558  12.438  13.740
58117SOL    HW276249   7.463  12.338  13.802
58118SOL     OW76250   0.834  10.749  13.616
58118SOL    HW176251   0.891  10.820  13.588
58118SOL    HW276252   0.754  10.792  13.645
58119SOL     OW76253   5.588   1.392  11.096
58119SOL    HW176254   5.551   1.358  11.178
58119SOL    HW276255   5.517   1.384  11.033
58120SOL     OW76256   5.977   6.471   7.280
58120SOL    HW176257   5.913   6.533   7.315
58120SOL    HW276258   6.059   6.520   7.276
58121SOL     OW76259  10.004   5.145  13.231
58121SOL    HW176260   9.967   5.179  13.313
58121SOL    HW276261  10.008   5.051  13.244
58122SOL     OW76262   7.294  13.031   6.564
58122SOL    HW176263   7.356  13.094   6.526
58122SOL    HW276264   7.222  13.027   6.501
58123SOL     OW76265   9.872   4.717  12.870
58123SOL    HW176266   9.952   4.745  12.912
58123SOL    HW276267   9.815   4.690  12.941
58124SOL     OW76268   6.097   3.235  11.813
58124SOL    HW176269   6.065   3.199  11.730
58124SOL    HW276270   6.151   3.310  11.788
58125SOL     OW76271   1.031   2.049  13.289
58125SOL    HW176272   1.090   2.116  13.253
58125SOL    HW276273   1.025   1.983  13.221
58126SOL     OW76274   6.757   1.870   8.805
58126SOL    HW176275   6.847   1.892   8.780
58126SOL    HW276276   6.740   1.924   8.882
58127SOL     OW76277  13.793   7.572  12.175
58127SOL    HW176278  13.834   7.507  12.119
58127SOL    HW276279  13.721   7.526  12.218
58128SOL     OW76280   9.720   5.594  12.106
58128SOL    HW176281   9.753   5.592  12.016
58128SOL    HW276282   9.674   5.678  12.113
58129SOL     OW76283  10.707   0.376   7.634
58129SOL    HW176284  10.625   0.345   7.596
58129SOL    HW276285  10.706   0.343   7.724
58130SOL     OW76286  14.424   2.653   6.756
58130SOL    HW176287  14.381   2.570   6.776
58130SOL    HW276288  14.366   2.720   6.793
58131SOL     OW76289   1.535  12.820  11.588
58131SOL    HW176290   1.567  12.849  11.503
58131SOL    HW276291   1.597  12.855  11.651
58132SOL     OW76292   3.887   9.796   2.728
58132SOL    HW176293   3.952   9.866   2.728
58132SOL    HW276294   3.803   9.841   2.728
58133SOL     OW76295   3.779   5.087  14.128
58133SOL    HW176296   3.773   5.015  14.065
58133SOL    HW276297   3.853   5.063  14.184
58134SOL     OW76298   0.406   3.702   5.238
58134SOL    HW176299   0.363   3.616   5.237
58134SOL    HW276300   0.493   3.684   5.201
58135SOL     OW76301  14.411  11.294   1.192
58135SOL    HW176302  14.336  11.286   1.251
58135SOL    HW276303  14.418  11.388   1.173
58136SOL     OW76304   1.344  13.956   6.746
58136SOL    HW176305   1.312  13.886   6.802
58136SOL    HW276306   1.323  14.037   6.794
58137SOL     OW76307   0.522   7.638  14.045
58137SOL    HW176308   0.519   7.583  14.124
58137SOL    HW276309   0.606   7.616  14.004
58138SOL     OW76310  14.014  12.467  14.491
58138SOL    HW176311  14.080  12.535  14.476
58138SOL    HW276312  13.957  12.503  14.558
58139SOL     OW76313   9.089   1.101   3.635
58139SOL    HW176314   9.118   1.189   3.660
58139SOL    HW276315   9.142   1.042   3.689
58140SOL     OW76316  13.216   9.950   1.398
58140SOL    HW176317  13.131   9.993   1.404
58140SOL    HW276318  13.215   9.885   1.468
58141SOL     OW76319   9.283   3.881   3.987
58141SOL    HW176320   9.292   3.942   4.060
58141SOL    HW276321   9.264   3.936   3.911
58142SOL     OW76322   9.975   7.084   6.318
58142SOL    HW176323  10.038   7.018   6.349
58142SOL    HW276324   9.893   7.062   6.363
58143SOL     OW76325   0.960   8.101  14.859
58143SOL    HW176326   1.007   8.085  14.777
58143SOL    HW276327   1.024   8.142   0.037
58144SOL     OW76328   9.201  10.736  12.848
58144SOL    HW176329   9.190  10.646  12.820
58144SOL    HW276330   9.209  10.786  12.767
58145SOL     OW76331  13.299  13.596   0.167
58145SOL    HW176332  13.314  13.505   0.144
58145SOL    HW276333  13.221  13.595   0.222
58146SOL     OW76334   9.445   6.729   1.476
58146SOL    HW176335   9.442   6.704   1.384
58146SOL    HW276336   9.377   6.677   1.518
58147SOL     OW76337  14.462  12.797  14.448
58147SOL    HW176338  14.391  12.858  14.472
58147SOL    HW276339  14.447  12.778  14.356
58148SOL     OW76340   9.845   6.597   5.046
58148SOL    HW176341   9.751   6.611   5.054
58148SOL    HW276342   9.855   6.548   4.964
58149SOL     OW76343   8.744   5.930  14.678
58149SOL    HW176344   8.661   5.971  14.654
58149SOL    HW276345   8.811   5.981  14.631
58150SOL     OW76346   7.054   7.851  11.230
58150SOL    HW176347   7.142   7.853  11.193
58150SOL    HW276348   7.020   7.940  11.214
58151SOL     OW76349   3.731   9.588  13.008
58151SOL    HW176350   3.689   9.504  13.026
58151SOL    HW276351   3.776   9.575  12.924
58152SOL     OW76352   5.093   2.248  13.535
58152SOL    HW176353   5.102   2.335  13.497
58152SOL    HW276354   5.105   2.188  13.462
58153SOL     OW76355  11.598   6.711  12.687
58153SOL    HW176356  11.637   6.644  12.631
58153SOL    HW276357  11.645   6.701  12.770
58154SOL     OW76358   4.265   3.866   3.397
58154SOL    HW176359   4.320   3.894   3.323
58154SOL    HW276360   4.328   3.844   3.466
58155SOL     OW76361   4.229   0.311   9.031
58155SOL    HW176362   4.260   0.398   9.054
58155SOL    HW276363   4.134   0.319   9.027
58156SOL     OW76364   7.334   3.706  14.200
58156SOL    HW176365   7.419   3.749  14.186
58156SOL    HW276366   7.353   3.613  14.195
58157SOL     OW76367  10.561   4.988  14.517
58157SOL    HW176368  10.551   4.936  14.437
58157SOL    HW276369  10.537   4.928  14.587
58158SOL     OW76370   7.568   4.574  13.437
58158SOL    HW176371   7.566   4.669  13.449
58158SOL    HW276372   7.616   4.541  13.513
58159SOL     OW76373  14.875  13.596  13.636
58159SOL    HW176374   0.053  13.660  13.593
58159SOL    HW276375   0.005  13.615  13.729
58160SOL     OW76376  11.746   1.028   1.528
58160SOL    HW176377  11.672   0.999   1.580
58160SOL    HW276378  11.732   1.123   1.517
58161SOL     OW76379   2.567  12.667   6.531
58161SOL    HW176380   2.659  12.653   6.551
58161SOL    HW276381   2.565  12.687   6.437
58162SOL     OW76382   1.274   6.752   8.951
58162SOL    HW176383   1.344   6.691   8.976
58162SOL    HW276384   1.292   6.773   8.860
58163SOL     OW76385   4.006   5.841   8.969
58163SOL    HW176386   3.923   5.805   8.999
58163SOL    HW276387   4.069   5.818   9.037
58164SOL     OW76388  14.021  11.007   7.146
58164SOL    HW176389  14.001  11.069   7.216
58164SOL    HW276390  14.037  10.924   7.191
58165SOL     OW76391   9.995  12.255   4.690
58165SOL    HW176392   9.957  12.171   4.716
58165SOL    HW276393   9.919  12.313   4.678
58166SOL     OW76394   3.504  13.346   5.804
58166SOL    HW176395   3.560  13.362   5.880
58166SOL    HW276396   3.418  13.326   5.841
58167SOL     OW76397   8.189   9.212   6.727
58167SOL    HW176398   8.134   9.135   6.740
58167SOL    HW276399   8.250   9.186   6.658
58168SOL     OW76400  13.918   6.089   4.941
58168SOL    HW176401  13.955   6.042   4.866
58168SOL    HW276402  13.994   6.118   4.991
58169SOL     OW76403   7.465   3.578   5.979
58169SOL    HW176404   7.445   3.667   6.008
58169SOL    HW276405   7.393   3.525   6.012
58170SOL     OW76406   3.488   0.410   1.071
58170SOL    HW176407   3.569   0.425   1.119
58170SOL    HW276408   3.443   0.341   1.120
58171SOL     OW76409   6.710   9.375   2.128
58171SOL    HW176410   6.790   9.428   2.129
58171SOL    HW276411   6.670   9.390   2.214
58172SOL     OW76412  12.325  12.488  13.971
58172SOL    HW176413  12.414  12.485  13.937
58172SOL    HW276414  12.336  12.497  14.066
58173SOL     OW76415   4.685   1.735  10.879
58173SOL    HW176416   4.650   1.646  10.876
58173SOL    HW276417   4.779   1.725  10.867
58174SOL     OW76418   1.485   6.616   9.057
58174SOL    HW176419   1.522   6.611   9.145
58174SOL    HW276420   1.485   6.526   9.026
58175SOL     OW76421   0.863   6.134   0.136
58175SOL    HW176422   0.932   6.070   0.118
58175SOL    HW276423   0.783   6.091   0.106
58176SOL     OW76424   1.016   2.872  11.923
58176SOL    HW176425   1.056   2.785  11.931
58176SOL    HW276426   1.024   2.894  11.830
58177SOL     OW76427  10.186  11.684   7.879
58177SOL    HW176428  10.140  11.709   7.799
58177SOL    HW276429  10.223  11.766   7.912
58178SOL     OW76430   7.050   7.090   7.201
58178SOL    HW176431   7.065   7.134   7.285
58178SOL    HW276432   7.137   7.083   7.162
58179SOL     OW76433   6.889   3.839  10.191
58179SOL    HW176434   6.839   3.830  10.272
58179SOL    HW276435   6.908   3.749  10.165
58180SOL     OW76436   2.456   2.140  14.645
58180SOL    HW176437   2.445   2.125  14.551
58180SOL    HW276438   2.536   2.093  14.668
58181SOL     OW76439  11.183   4.925   4.020
58181SOL    HW176440  11.160   4.914   4.112
58181SOL    HW276441  11.187   4.836   3.985
58182SOL     OW76442  14.591  13.405   9.522
58182SOL    HW176443  14.667  13.463   9.527
58182SOL    HW276444  14.537  13.428   9.597
58183SOL     OW76445   9.551   2.124   8.302
58183SOL    HW176446   9.642   2.136   8.275
58183SOL    HW276447   9.540   2.185   8.375
58184SOL     OW76448  14.107   7.543   9.072
58184SOL    HW176449  14.162   7.570   8.999
58184SOL    HW276450  14.123   7.608   9.141
58185SOL     OW76451   3.506  11.261   7.564
58185SOL    HW176452   3.444  11.265   7.491
58185SOL    HW276453   3.462  11.206   7.630
58186SOL     OW76454   4.927  11.936   6.502
58186SOL    HW176455   4.843  11.922   6.456
58186SOL    HW276456   4.912  11.902   6.590
58187SOL     OW76457  13.177  11.107   3.281
58187SOL    HW176458  13.208  11.197   3.274
58187SOL    HW276459  13.085  11.116   3.308
58188SOL     OW76460   4.570  11.066   1.918
58188SOL    HW176461   4.616  11.150   1.921
58188SOL    HW276462   4.640  11.000   1.924
58189SOL     OW76463   9.165   6.086  14.709
58189SOL    HW176464   9.075   6.111  14.688
58189SOL    HW276465   9.204   6.063  14.625
58190SOL     OW76466   8.697  13.093   9.986
58190SOL    HW176467   8.637  13.098  10.060
58190SOL    HW276468   8.669  13.016   9.937
58191SOL     OW76469   4.190  10.752  12.050
58191SOL    HW176470   4.152  10.686  11.991
58191SOL    HW276471   4.115  10.795  12.090
58192SOL     OW76472  10.173  14.137   7.983
58192SOL    HW176473  10.211  14.223   8.002
58192SOL    HW276474  10.100  14.129   8.044
58193SOL     OW76475   6.607   8.429  11.002
58193SOL    HW176476   6.529   8.473  11.036
58193SOL    HW276477   6.661   8.500  10.967
58194SOL     OW76478   5.075   2.603  14.743
58194SOL    HW176479   5.166   2.583  14.721
58194SOL    HW276480   5.056   2.547  14.819
58195SOL     OW76481   3.709   3.156   7.579
58195SOL    HW176482   3.617   3.132   7.565
58195SOL    HW276483   3.757   3.074   7.565
58196SOL     OW76484   1.484  10.556   6.706
58196SOL    HW176485   1.523  10.495   6.642
58196SOL    HW276486   1.397  10.520   6.722
58197SOL     OW76487   9.068  14.509  10.812
58197SOL    HW176488   8.977  14.492  10.834
58197SOL    HW276489   9.113  14.426  10.830
58198SOL     OW76490   1.261   4.170  13.109
58198SOL    HW176491   1.284   4.083  13.077
58198SOL    HW276492   1.226   4.155  13.197
58199SOL     OW76493   7.316  13.449  12.906
58199SOL    HW176494   7.404  13.470  12.938
58199SOL    HW276495   7.297  13.363  12.944
58200SOL     OW76496   1.962   5.000   1.585
58200SOL    HW176497   2.035   4.943   1.610
58200SOL    HW276498   1.961   5.069   1.652
58201SOL     OW76499   6.086  13.423   7.363
58201SOL    HW176500   6.154  13.391   7.304
58201SOL    HW276501   6.005  13.418   7.311
58202SOL     OW76502   3.146  14.388  11.513
58202SOL    HW176503   3.132  14.305  11.558
58202SOL    HW276504   3.065  14.401  11.462
58203SOL     OW76505   1.259   3.889   5.158
58203SOL    HW176506   1.299   3.847   5.081
58203SOL    HW276507   1.168   3.905   5.132
58204SOL     OW76508   7.571   0.711  12.343
58204SOL    HW176509   7.495   0.719  12.285
58204SOL    HW276510   7.640   0.675  12.288
58205SOL     OW76511  11.912   0.470  10.558
58205SOL    HW176512  11.944   0.459  10.648
58205SOL    HW276513  11.890   0.563  10.552
58206SOL     OW76514   8.349   2.492   6.379
58206SOL    HW176515   8.326   2.478   6.471
58206SOL    HW276516   8.294   2.430   6.331
58207SOL     OW76517  11.235   2.038   3.149
58207SOL    HW176518  11.156   2.019   3.097
58207SOL    HW276519  11.246   2.133   3.142
58208SOL     OW76520   7.779   5.478   1.384
58208SOL    HW176521   7.868   5.494   1.351
58208SOL    HW276522   7.789   5.478   1.479
58209SOL     OW76523  10.953   8.960   4.682
58209SOL    HW176524  11.043   8.990   4.686
58209SOL    HW276525  10.928   8.946   4.774
58210SOL     OW76526   7.461   7.442   2.508
58210SOL    HW176527   7.376   7.431   2.465
58210SOL    HW276528   7.444   7.427   2.601
58211SOL     OW76529  12.068  11.039   0.286
58211SOL    HW176530  12.069  11.062   0.193
58211SOL    HW276531  12.016  10.958   0.289
58212SOL     OW76532  13.146  11.295   9.308
58212SOL    HW176533  13.083  11.258   9.369
58212SOL    HW276534  13.218  11.325   9.364
58213SOL     OW76535   9.074   8.158   3.372
58213SOL    HW176536   9.155   8.131   3.415
58213SOL    HW276537   9.098   8.236   3.322
58214SOL     OW76538   7.242  12.165   3.115
58214SOL    HW176539   7.254  12.259   3.131
58214SOL    HW276540   7.305  12.123   3.173
58215SOL     OW76541  13.806  11.036   6.724
58215SOL    HW176542  13.867  11.104   6.695
58215SOL    HW276543  13.797  11.051   6.818
58216SOL     OW76544  14.286  12.756   8.777
58216SOL    HW176545  14.223  12.723   8.713
58216SOL    HW276546  14.257  12.846   8.795
58217SOL     OW76547   6.819   5.646  10.921
58217SOL    HW176548   6.897   5.644  10.976
58217SOL    HW276549   6.747   5.659  10.982
58218SOL     OW76550  14.096   1.934  14.736
58218SOL    HW176551  14.026   1.992  14.707
58218SOL    HW276552  14.063   1.846  14.718
58219SOL     OW76553   0.855  13.315  13.369
58219SOL    HW176554   0.941  13.356  13.371
58219SOL    HW276555   0.855  13.264  13.288
58220SOL     OW76556   0.491   2.980   3.253
58220SOL    HW176557   0.424   3.034   3.213
58220SOL    HW276558   0.553   2.962   3.183
58221SOL     OW76559   2.440   4.911  14.593
58221SOL    HW176560   2.500   4.941  14.525
58221SOL    HW276561   2.400   4.832  14.555
58222SOL     OW76562   3.133  10.843   9.073
58222SOL    HW176563   3.154  10.836   9.166
58222SOL    HW276564   3.212  10.878   9.032
58223SOL     OW76565   7.558  11.075  10.594
58223SOL    HW176566   7.555  10.994  10.544
58223SOL    HW276567   7.568  11.144  10.528
58224SOL     OW76568   8.434  12.614  12.878
58224SOL    HW176569   8.363  12.581  12.933
58224SOL    HW276570   8.514  12.580  12.919
58225SOL     OW76571   5.961   1.974  14.188
58225SOL    HW176572   5.926   1.966  14.100
58225SOL    HW276573   5.952   1.887  14.226
58226SOL     OW76574   3.058   0.444  14.502
58226SOL    HW176575   3.127   0.462  14.438
58226SOL    HW276576   2.978   0.441  14.450
58227SOL     OW76577  10.263   5.084  13.949
58227SOL    HW176578  10.257   5.082  14.045
58227SOL    HW276579  10.174   5.107  13.921
58228SOL     OW76580   1.979   9.410  13.020
58228SOL    HW176581   1.887   9.388  13.040
58228SOL    HW276582   1.984   9.504  13.031
58229SOL     OW76583  12.058   6.329   8.854
58229SOL    HW176584  12.108   6.285   8.785
58229SOL    HW276585  12.118   6.396   8.887
58230SOL     OW76586  14.472   3.610  11.321
58230SOL    HW176587  14.450   3.679  11.258
58230SOL    HW276588  14.475   3.530  11.268
58231SOL     OW76589   2.816  10.393   5.487
58231SOL    HW176590   2.812  10.411   5.581
58231SOL    HW276591   2.808  10.479   5.445
58232SOL     OW76592   0.471  12.860   3.440
58232SOL    HW176593   0.508  12.817   3.363
58232SOL    HW276594   0.413  12.927   3.404
58233SOL     OW76595  13.987  10.711  13.101
58233SOL    HW176596  14.006  10.792  13.148
58233SOL    HW276597  14.029  10.642  13.153
58234SOL     OW76598   0.547   1.217   4.866
58234SOL    HW176599   0.460   1.234   4.831
58234SOL    HW276600   0.598   1.295   4.845
58235SOL     OW76601  14.427   5.277  12.171
58235SOL    HW176602  14.469   5.364  12.174
58235SOL    HW276603  14.500   5.216  12.164
58236SOL     OW76604   5.044  14.128   5.086
58236SOL    HW176605   5.136  14.134   5.061
58236SOL    HW276606   5.017  14.040   5.059
58237SOL     OW76607   0.686   5.337   3.246
58237SOL    HW176608   0.648   5.251   3.227
58237SOL    HW276609   0.780   5.325   3.233
58238SOL     OW76610   1.278   4.698   5.244
58238SOL    HW176611   1.366   4.689   5.280
58238SOL    HW276612   1.274   4.634   5.173
58239SOL     OW76613   7.097   2.189   2.384
58239SOL    HW176614   7.010   2.229   2.371
58239SOL    HW276615   7.090   2.144   2.468
58240SOL     OW76616   6.927   2.814   2.170
58240SOL    HW176617   6.900   2.893   2.123
58240SOL    HW276618   6.894   2.742   2.116
58241SOL     OW76619  13.003   4.128  12.744
58241SOL    HW176620  13.017   4.080  12.825
58241SOL    HW276621  13.020   4.219  12.767
58242SOL     OW76622   4.102  14.257   4.033
58242SOL    HW176623   4.112  14.277   4.126
58242SOL    HW276624   4.159  14.321   3.989
58243SOL     OW76625  12.169   6.938   3.254
58243SOL    HW176626  12.166   6.872   3.324
58243SOL    HW276627  12.240   6.997   3.279
58244SOL     OW76628   5.215   3.754   9.097
58244SOL    HW176629   5.295   3.756   9.149
58244SOL    HW276630   5.147   3.726   9.159
58245SOL     OW76631   7.264   1.427  13.925
58245SOL    HW176632   7.250   1.342  13.966
58245SOL    HW276633   7.177   1.464  13.915
58246SOL     OW76634   6.735  11.456   2.844
58246SOL    HW176635   6.788  11.428   2.770
58246SOL    HW276636   6.739  11.382   2.905
58247SOL     OW76637   4.930   8.547   3.249
58247SOL    HW176638   4.957   8.622   3.196
58247SOL    HW276639   4.871   8.583   3.315
58248SOL     OW76640   5.593  12.443  13.626
58248SOL    HW176641   5.643  12.381  13.574
58248SOL    HW276642   5.518  12.466  13.571
58249SOL     OW76643   0.192  10.802  13.151
58249SOL    HW176644   0.187  10.896  13.170
58249SOL    HW276645   0.106  10.768  13.173
58250SOL     OW76646   8.203   3.229   0.319
58250SOL    HW176647   8.140   3.276   0.264
58250SOL    HW276648   8.221   3.290   0.391
58251SOL     OW76649   4.559   3.401   9.754
58251SOL    HW176650   4.648   3.374   9.777
58251SOL    HW276651   4.524   3.438   9.835
58252SOL     OW76652   0.738   4.566  12.489
58252SOL    HW176653   0.692   4.648  12.507
58252SOL    HW276654   0.684   4.498  12.531
58253SOL     OW76655   2.905   1.778  13.394
58253SOL    HW176656   2.842   1.769  13.465
58253SOL    HW276657   2.966   1.845  13.425
58254SOL     OW76658   8.432   9.961  13.214
58254SOL    HW176659   8.471   9.894  13.271
58254SOL    HW276660   8.341   9.933  13.203
58255SOL     OW76661   7.838   7.831  11.508
58255SOL    HW176662   7.890   7.791  11.438
58255SOL    HW276663   7.894   7.826  11.585
58256SOL     OW76664  10.413  12.316  10.839
58256SOL    HW176665  10.425  12.236  10.788
58256SOL    HW276666  10.502  12.346  10.857
58257SOL     OW76667  13.453   2.478  11.951
58257SOL    HW176668  13.411   2.550  11.903
58257SOL    HW276669  13.472   2.413  11.884
58258SOL     OW76670  10.817   3.648   1.727
58258SOL    HW176671  10.781   3.595   1.656
58258SOL    HW276672  10.883   3.703   1.685
58259SOL     OW76673   9.995   2.392   8.666
58259SOL    HW176674  10.078   2.437   8.652
58259SOL    HW276675   9.980   2.343   8.585
58260SOL     OW76676   2.148   8.105   9.766
58260SOL    HW176677   2.173   8.072   9.680
58260SOL    HW276678   2.226   8.151   9.798
58261SOL     OW76679  13.685  10.863  12.066
58261SOL    HW176680  13.694  10.820  12.151
58261SOL    HW276681  13.708  10.795  12.002
58262SOL     OW76682   8.138  11.096   6.380
58262SOL    HW176683   8.155  11.145   6.460
58262SOL    HW276684   8.044  11.075   6.385
58263SOL     OW76685   0.696  14.212   2.435
58263SOL    HW176686   0.664  14.188   2.522
58263SOL    HW276687   0.649  14.293   2.413
58264SOL     OW76688   8.032  12.203  13.856
58264SOL    HW176689   7.944  12.167  13.845
58264SOL    HW276690   8.068  12.207  13.768
58265SOL     OW76691  13.912   0.801   3.117
58265SOL    HW176692  13.951   0.851   3.188
58265SOL    HW276693  13.882   0.720   3.157
58266SOL     OW76694   5.508   4.937  13.735
58266SOL    HW176695   5.419   4.938  13.699
58266SOL    HW276696   5.513   4.854  13.782
58267SOL     OW76697   7.907   8.875   3.198
58267SOL    HW176698   7.822   8.883   3.241
58267SOL    HW276699   7.917   8.957   3.149
58268SOL     OW76700   1.152   1.592  10.661
58268SOL    HW176701   1.124   1.622  10.575
58268SOL    HW276702   1.078   1.611  10.719
58269SOL     OW76703   2.242   0.160  11.167
58269SOL    HW176704   2.313   0.224  11.163
58269SOL    HW276705   2.226   0.136  11.076
58270SOL     OW76706   9.860   2.667   6.883
58270SOL    HW176707   9.800   2.730   6.844
58270SOL    HW276708   9.851   2.588   6.829
58271SOL     OW76709   6.633  14.026  12.004
58271SOL    HW176710   6.606  14.108  11.963
58271SOL    HW276711   6.716  14.047  12.047
58272SOL     OW76712  12.694  14.361   6.078
58272SOL    HW176713  12.700  14.354   6.174
58272SOL    HW276714  12.698  14.455   6.061
58273SOL     OW76715   2.821   6.538   6.171
58273SOL    HW176716   2.889   6.526   6.237
58273SOL    HW276717   2.806   6.451   6.135
58274SOL     OW76718   7.513   7.011   1.191
58274SOL    HW176719   7.596   7.058   1.191
58274SOL    HW276720   7.514   6.960   1.110
58275SOL     OW76721   8.299   0.913  13.301
58275SOL    HW176722   8.265   0.963  13.375
58275SOL    HW276723   8.308   0.824  13.333
58276SOL     OW76724   6.916   9.578  12.452
58276SOL    HW176725   6.880   9.634  12.383
58276SOL    HW276726   6.839   9.548  12.501
58277SOL     OW76727   6.367   8.430  11.720
58277SOL    HW176728   6.423   8.409  11.645
58277SOL    HW276729   6.344   8.522  11.707
58278SOL     OW76730   0.457   5.612  10.017
58278SOL    HW176731   0.465   5.581  10.107
58278SOL    HW276732   0.544   5.599   9.979
58279SOL     OW76733   9.746  12.731  11.321
58279SOL    HW176734   9.695  12.650  11.323
58279SOL    HW276735   9.829  12.708  11.361
58280SOL     OW76736  10.189   5.735   1.129
58280SOL    HW176737  10.212   5.765   1.041
58280SOL    HW276738  10.190   5.640   1.123
58281SOL     OW76739   6.306   2.190  12.421
58281SOL    HW176740   6.329   2.186  12.514
58281SOL    HW276741   6.342   2.273  12.390
58282SOL     OW76742   5.288   5.534   2.616
58282SOL    HW176743   5.281   5.582   2.698
58282SOL    HW276744   5.209   5.557   2.567
58283SOL     OW76745   8.582  14.516   8.733
58283SOL    HW176746   8.658  14.572   8.749
58283SOL    HW276747   8.582  14.455   8.807
58284SOL     OW76748   3.820  10.595   1.030
58284SOL    HW176749   3.758  10.666   1.044
58284SOL    HW276750   3.857  10.577   1.116
58285SOL     OW76751  14.580   2.713  13.090
58285SOL    HW176752  14.515   2.722  13.159
58285SOL    HW276753  14.534   2.740  13.010
58286SOL     OW76754  14.762   7.273  10.593
58286SOL    HW176755  14.843   7.227  10.616
58286SOL    HW276756  14.791   7.358  10.560
58287SOL     OW76757   5.665  12.060   0.012
58287SOL    HW176758   5.748  12.076   0.056
58287SOL    HW276759   5.598  12.086   0.076
58288SOL     OW76760   1.073  13.378  11.469
58288SOL    HW176761   1.130  13.346  11.399
58288SOL    HW276762   1.114  13.460  11.498
58289SOL     OW76763  12.785  13.159   2.218
58289SOL    HW176764  12.752  13.226   2.278
58289SOL    HW276765  12.836  13.208   2.153
58290SOL     OW76766  14.755   0.504   2.400
58290SOL    HW176767  14.828   0.442   2.389
58290SOL    HW276768  14.764   0.535   2.490
58291SOL     OW76769   6.899   6.024  14.710
58291SOL    HW176770   6.969   6.015  14.775
58291SOL    HW276771   6.819   6.003  14.758
58292SOL     OW76772  10.675  14.454  12.215
58292SOL    HW176773  10.724  14.458  12.297
58292SOL    HW276774  10.737  14.420  12.151
58293SOL     OW76775   7.165   2.284   9.552
58293SOL    HW176776   7.121   2.201   9.570
58293SOL    HW276777   7.161   2.331   9.635
58294SOL     OW76778   2.253  13.642  13.141
58294SOL    HW176779   2.271  13.728  13.102
58294SOL    HW276780   2.212  13.661  13.225
58295SOL     OW76781   9.794   7.552  12.632
58295SOL    HW176782   9.819   7.494  12.704
58295SOL    HW276783   9.864   7.541  12.568
58296SOL     OW76784   8.992  11.991   7.535
58296SOL    HW176785   8.949  11.906   7.528
58296SOL    HW276786   8.920  12.053   7.544
58297SOL     OW76787  10.003   6.828   3.104
58297SOL    HW176788  10.011   6.920   3.078
58297SOL    HW276789   9.909   6.810   3.099
58298SOL     OW76790   3.178   1.559   8.473
58298SOL    HW176791   3.133   1.479   8.500
58298SOL    HW276792   3.201   1.543   8.381
58299SOL     OW76793   2.951   6.887   2.762
58299SOL    HW176794   2.967   6.960   2.703
58299SOL    HW276795   2.883   6.918   2.822
58300SOL     OW76796  14.149   4.532   1.043
58300SOL    HW176797  14.238   4.514   1.071
58300SOL    HW276798  14.094   4.487   1.108
58301SOL     OW76799   4.558  11.118   5.713
58301SOL    HW176800   4.537  11.203   5.750
58301SOL    HW276801   4.653  11.109   5.725
58302SOL     OW76802   4.171   7.862   5.600
58302SOL    HW176803   4.238   7.891   5.538
58302SOL    HW276804   4.200   7.776   5.629
58303SOL     OW76805   8.957   6.295   1.715
58303SOL    HW176806   9.033   6.349   1.735
58303SOL    HW276807   8.978   6.252   1.633
58304SOL     OW76808   6.952  13.565   4.108
58304SOL    HW176809   6.875  13.560   4.164
58304SOL    HW276810   6.937  13.498   4.041
58305SOL     OW76811   7.666   9.256   8.556
58305SOL    HW176812   7.704   9.179   8.514
58305SOL    HW276813   7.585   9.272   8.507
58306SOL     OW76814   9.248  11.962   1.295
58306SOL    HW176815   9.284  11.942   1.381
58306SOL    HW276816   9.246  12.058   1.292
58307SOL     OW76817   9.914  12.121  13.297
58307SOL    HW176818   9.850  12.184  13.265
58307SOL    HW276819   9.861  12.048  13.330
58308SOL     OW76820   1.438   8.499   5.676
58308SOL    HW176821   1.420   8.541   5.592
58308SOL    HW276822   1.376   8.539   5.737
58309SOL     OW76823   8.456  11.781   7.453
58309SOL    HW176824   8.507  11.792   7.373
58309SOL    HW276825   8.514  11.815   7.522
58310SOL     OW76826   2.629  10.647   3.716
58310SOL    HW176827   2.658  10.562   3.685
58310SOL    HW276828   2.568  10.628   3.787
58311SOL     OW76829   0.176  11.197   4.489
58311SOL    HW176830   0.124  11.235   4.418
58311SOL    HW276831   0.192  11.269   4.549
58312SOL     OW76832   1.481   3.228  12.672
58312SOL    HW176833   1.474   3.312  12.718
58312SOL    HW276834   1.412   3.174  12.709
58313SOL     OW76835  10.470   1.167   0.367
58313SOL    HW176836  10.413   1.164   0.444
58313SOL    HW276837  10.434   1.100   0.308
58314SOL     OW76838   2.097   7.887  13.178
58314SOL    HW176839   2.030   7.857  13.239
58314SOL    HW276840   2.178   7.884  13.228
58315SOL     OW76841   3.625   5.501   2.861
58315SOL    HW176842   3.616   5.407   2.880
58315SOL    HW276843   3.701   5.529   2.911
58316SOL     OW76844   1.029   5.442   9.734
58316SOL    HW176845   1.104   5.413   9.681
58316SOL    HW276846   1.039   5.537   9.739
58317SOL     OW76847  11.212   3.938  13.049
58317SOL    HW176848  11.219   3.971  13.139
58317SOL    HW276849  11.168   4.008  13.001
58318SOL     OW76850  13.543   9.566   7.341
58318SOL    HW176851  13.595   9.548   7.263
58318SOL    HW276852  13.607   9.574   7.411
58319SOL     OW76853   3.440   9.873   2.119
58319SOL    HW176854   3.498   9.837   2.186
58319SOL    HW276855   3.443   9.968   2.135
58320SOL     OW76856   8.221  12.190   2.588
58320SOL    HW176857   8.226  12.140   2.506
58320SOL    HW276858   8.306  12.176   2.630
58321SOL     OW76859  11.261  12.807   1.500
58321SOL    HW176860  11.168  12.790   1.510
58321SOL    HW276861  11.301  12.720   1.491
58322SOL     OW76862  12.178   6.793   5.537
58322SOL    HW176863  12.146   6.751   5.457
58322SOL    HW276864  12.104   6.847   5.566
58323SOL     OW76865  11.580  10.538   2.570
58323SOL    HW176866  11.499  10.556   2.523
58323SOL    HW276867  11.649  10.576   2.516
58324SOL     OW76868   3.794   8.482   0.680
58324SOL    HW176869   3.874   8.465   0.731
58324SOL    HW276870   3.764   8.567   0.711
58325SOL     OW76871   2.226   7.049   3.314
58325SOL    HW176872   2.304   7.059   3.369
58325SOL    HW276873   2.237   7.115   3.245
58326SOL     OW76874   1.835   4.154   3.224
58326SOL    HW176875   1.929   4.139   3.232
58326SOL    HW276876   1.817   4.145   3.130
58327SOL     OW76877   1.240   1.752   8.154
58327SOL    HW176878   1.318   1.735   8.206
58327SOL    HW276879   1.188   1.672   8.162
58328SOL     OW76880  13.685  12.852   3.267
58328SOL    HW176881  13.732  12.786   3.217
58328SOL    HW276882  13.665  12.921   3.204
58329SOL     OW76883   4.015  13.293   9.823
58329SOL    HW176884   3.929  13.333   9.830
58329SOL    HW276885   4.054  13.335   9.746
58330SOL     OW76886   0.221   9.815   3.878
58330SOL    HW176887   0.241   9.898   3.835
58330SOL    HW276888   0.305   9.772   3.889
58331SOL     OW76889  12.033  11.125   1.508
58331SOL    HW176890  11.992  11.121   1.422
58331SOL    HW276891  11.960  11.116   1.570
58332SOL     OW76892   1.397   4.899   5.774
58332SOL    HW176893   1.368   4.989   5.759
58332SOL    HW276894   1.401   4.860   5.687
58333SOL     OW76895  14.656   1.557   7.040
58333SOL    HW176896  14.683   1.604   7.118
58333SOL    HW276897  14.644   1.626   6.974
58334SOL     OW76898   0.464   7.293  11.155
58334SOL    HW176899   0.470   7.325  11.065
58334SOL    HW276900   0.468   7.372  11.209
58335SOL     OW76901   9.390  11.150   0.729
58335SOL    HW176902   9.469  11.202   0.735
58335SOL    HW276903   9.319  11.214   0.724
58336SOL     OW76904   6.279   0.598  12.301
58336SOL    HW176905   6.220   0.589  12.376
58336SOL    HW276906   6.260   0.521  12.246
58337SOL     OW76907   3.441   5.929   4.784
58337SOL    HW176908   3.531   5.956   4.765
58337SOL    HW276909   3.435   5.931   4.879
58338SOL     OW76910  14.395   9.907   6.490
58338SOL    HW176911  14.428   9.997   6.487
58338SOL    HW276912  14.466   9.857   6.530
58339SOL     OW76913  10.670   2.231   2.128
58339SOL    HW176914  10.629   2.311   2.163
58339SOL    HW276915  10.685   2.176   2.205
58340SOL     OW76916  13.843   1.219   4.335
58340SOL    HW176917  13.751   1.238   4.355
58340SOL    HW276918  13.862   1.276   4.260
58341SOL     OW76919  14.842   3.030   8.663
58341SOL    HW176920  14.866   2.971   8.591
58341SOL    HW276921   0.034   3.093   8.668
58342SOL     OW76922  10.246   5.659  10.221
58342SOL    HW176923  10.201   5.581  10.189
58342SOL    HW276924  10.272   5.706  10.142
58343SOL     OW76925   5.572   2.477  12.879
58343SOL    HW176926   5.614   2.560  12.855
58343SOL    HW276927   5.494   2.503  12.929
58344SOL     OW76928   4.361   0.370   7.679
58344SOL    HW176929   4.426   0.299   7.679
58344SOL    HW276930   4.358   0.399   7.588
58345SOL     OW76931   1.433   5.121   2.561
58345SOL    HW176932   1.382   5.042   2.581
58345SOL    HW276933   1.366   5.188   2.545
58346SOL     OW76934   9.033   5.505   1.105
58346SOL    HW176935   9.023   5.587   1.057
58346SOL    HW276936   8.982   5.517   1.185
58347SOL     OW76937  11.127   6.338   4.088
58347SOL    HW176938  11.048   6.287   4.074
58347SOL    HW276939  11.140   6.385   4.006
58348SOL     OW76940   1.476   6.375   7.648
58348SOL    HW176941   1.487   6.467   7.624
58348SOL    HW276942   1.382   6.359   7.643
58349SOL     OW76943   2.219   2.673  11.594
58349SOL    HW176944   2.253   2.590  11.626
58349SOL    HW276945   2.284   2.702  11.530
58350SOL     OW76946  10.358   1.585   1.485
58350SOL    HW176947  10.376   1.615   1.396
58350SOL    HW276948  10.328   1.495   1.474
58351SOL     OW76949   9.695   3.548   3.152
58351SOL    HW176950   9.663   3.559   3.062
58351SOL    HW276951   9.662   3.462   3.178
58352SOL     OW76952  14.695  13.931   4.476
58352SOL    HW176953  14.760  13.985   4.431
58352SOL    HW276954  14.620  13.929   4.418
58353SOL     OW76955   0.504   7.643  10.208
58353SOL    HW176956   0.546   7.558  10.193
58353SOL    HW276957   0.551   7.703  10.151
58354SOL     OW76958   5.744   0.700   5.145
58354SOL    HW176959   5.711   0.646   5.073
58354SOL    HW276960   5.675   0.764   5.160
58355SOL     OW76961   5.678   9.044   1.743
58355SOL    HW176962   5.716   9.120   1.698
58355SOL    HW276963   5.645   9.078   1.825
58356SOL     OW76964  13.055   4.856   3.448
58356SOL    HW176965  13.089   4.835   3.361
58356SOL    HW276966  12.966   4.819   3.449
58357SOL     OW76967   2.819   8.293   8.197
58357SOL    HW176968   2.871   8.370   8.176
58357SOL    HW276969   2.817   8.290   8.292
58358SOL     OW76970   9.520  14.671   9.904
58358SOL    HW176971   9.581  14.611   9.860
58358SOL    HW276972   9.463  14.613   9.955
58359SOL     OW76973   0.860   3.143  13.474
58359SOL    HW176974   0.943   3.165  13.516
58359SOL    HW276975   0.847   3.050  13.495
58360SOL     OW76976   9.657   2.912  10.098
58360SOL    HW176977   9.599   2.888  10.170
58360SOL    HW276978   9.614   2.986  10.055
58361SOL     OW76979   9.591   4.274  13.623
58361SOL    HW176980   9.604   4.195  13.674
58361SOL    HW276981   9.501   4.269  13.593
58362SOL     OW76982   3.112   2.647  12.293
58362SOL    HW176983   3.127   2.626  12.386
58362SOL    HW276984   3.180   2.711  12.272
58363SOL     OW76985   1.351   7.962   4.859
58363SOL    HW176986   1.296   7.917   4.923
58363SOL    HW276987   1.400   7.891   4.816
58364SOL     OW76988   1.262  10.453   6.750
58364SOL    HW176989   1.212  10.509   6.810
58364SOL    HW276990   1.200  10.433   6.680
58365SOL     OW76991   1.044   1.515   7.030
58365SOL    HW176992   0.982   1.588   7.026
58365SOL    HW276993   1.069   1.500   6.939
58366SOL     OW76994   5.031   1.468   5.620
58366SOL    HW176995   5.029   1.391   5.563
58366SOL    HW276996   4.947   1.510   5.608
58367SOL     OW76997   5.393  12.460  14.371
58367SOL    HW176998   5.392  12.493  14.461
58367SOL    HW276999   5.447  12.381  14.375
58368SOL     OW77000  14.692  13.706   6.148
58368SOL    HW177001  14.700  13.611   6.138
58368SOL    HW277002  14.631  13.717   6.221
58369SOL     OW77003  10.850   9.701   4.039
58369SOL    HW177004  10.785   9.772   4.048
58369SOL    HW277005  10.801   9.628   4.003
58370SOL     OW77006  13.326   5.525   9.389
58370SOL    HW177007  13.254   5.581   9.358
58370SOL    HW277008  13.388   5.524   9.316
58371SOL     OW77009   5.706   9.234   5.099
58371SOL    HW177010   5.655   9.273   5.170
58371SOL    HW277011   5.671   9.274   5.020
58372SOL     OW77012  11.195  10.930   3.585
58372SOL    HW177013  11.289  10.922   3.600
58372SOL    HW277014  11.184  10.915   3.491
58373SOL     OW77015   6.934   2.211   6.955
58373SOL    HW177016   6.883   2.290   6.973
58373SOL    HW277017   7.013   2.221   7.008
58374SOL     OW77018   2.671   4.155   7.660
58374SOL    HW177019   2.684   4.127   7.750
58374SOL    HW277020   2.716   4.089   7.607
58375SOL     OW77021  11.398  11.649   3.737
58375SOL    HW177022  11.472  11.710   3.737
58375SOL    HW277023  11.352  11.667   3.819
58376SOL     OW77024   1.488   6.918   6.536
58376SOL    HW177025   1.513   6.939   6.446
58376SOL    HW277026   1.542   6.977   6.590
58377SOL     OW77027  12.991   5.766   5.168
58377SOL    HW177028  13.049   5.691   5.154
58377SOL    HW277029  12.966   5.761   5.260
58378SOL     OW77030   4.225   3.519   8.325
58378SOL    HW177031   4.228   3.606   8.365
58378SOL    HW277032   4.151   3.475   8.367
58379SOL     OW77033  13.241   0.883   9.535
58379SOL    HW177034  13.329   0.912   9.513
58379SOL    HW277035  13.242   0.789   9.523
58380SOL     OW77036   4.024  10.368   2.551
58380SOL    HW177037   3.998  10.425   2.624
58380SOL    HW277038   3.969  10.290   2.560
58381SOL     OW77039   3.832   7.497  14.536
58381SOL    HW177040   3.861   7.517  14.625
58381SOL    HW277041   3.896   7.433  14.505
58382SOL     OW77042   8.511   2.193   6.598
58382SOL    HW177043   8.433   2.193   6.654
58382SOL    HW277044   8.551   2.279   6.612
58383SOL     OW77045  10.674   0.365   3.224
58383SOL    HW177046  10.661   0.319   3.307
58383SOL    HW277047  10.605   0.431   3.223
58384SOL     OW77048  13.197   1.234   2.304
58384SOL    HW177049  13.262   1.263   2.368
58384SOL    HW277050  13.233   1.153   2.268
58385SOL     OW77051   4.718   7.062   1.157
58385SOL    HW177052   4.634   7.099   1.132
58385SOL    HW277053   4.740   7.001   1.086
58386SOL     OW77054   9.429  10.901   8.768
58386SOL    HW177055   9.506  10.863   8.726
58386SOL    HW277056   9.461  10.980   8.811
58387SOL     OW77057  14.368  13.082   3.965
58387SOL    HW177058  14.448  13.044   3.999
58387SOL    HW277059  14.397  13.143   3.897
58388SOL     OW77060  14.801  12.253   7.851
58388SOL    HW177061  14.718  12.298   7.866
58388SOL    HW277062  14.865  12.305   7.900
58389SOL     OW77063   8.336   6.217   8.696
58389SOL    HW177064   8.263   6.230   8.756
58389SOL    HW277065   8.324   6.128   8.662
58390SOL     OW77066  13.279  14.260   4.989
58390SOL    HW177067  13.296  14.168   4.971
58390SOL    HW277068  13.301  14.271   5.082
58391SOL     OW77069  11.537   2.002   0.054
58391SOL    HW177070  11.513   2.016  14.842
58391SOL    HW277071  11.612   2.060   0.068
58392SOL     OW77072  14.712   0.869   2.064
58392SOL    HW177073  14.656   0.937   2.101
58392SOL    HW277074  14.756   0.830   2.140
58393SOL     OW77075   1.883  13.571  13.262
58393SOL    HW177076   1.900  13.635  13.193
58393SOL    HW277077   1.893  13.619  13.343
58394SOL     OW77078  12.834   4.166   5.016
58394SOL    HW177079  12.756   4.144   4.965
58394SOL    HW277080  12.903   4.109   4.980
58395SOL     OW77081   4.000  11.289  13.946
58395SOL    HW177082   3.910  11.309  13.974
58395SOL    HW277083   3.997  11.293  13.851
58396SOL     OW77084   9.586   6.624   0.417
58396SOL    HW177085   9.652   6.566   0.455
58396SOL    HW277086   9.636   6.703   0.393
58397SOL     OW77087  11.897   9.880   7.596
58397SOL    HW177088  11.886   9.963   7.550
58397SOL    HW277089  11.984   9.850   7.571
58398SOL     OW77090   3.613  10.498   4.300
58398SOL    HW177091   3.696  10.453   4.316
58398SOL    HW277092   3.569  10.446   4.233
58399SOL     OW77093   5.452   8.659   2.998
58399SOL    HW177094   5.369   8.627   2.963
58399SOL    HW277095   5.444   8.754   2.998
58400SOL     OW77096  10.153  10.527   2.295
58400SOL    HW177097  10.098  10.491   2.225
58400SOL    HW277098  10.224  10.464   2.305
58401SOL     OW77099  12.665   6.005   7.237
58401SOL    HW177100  12.687   6.010   7.330
58401SOL    HW277101  12.599   6.073   7.225
58402SOL     OW77102   6.583   3.291   9.316
58402SOL    HW177103   6.513   3.348   9.283
58402SOL    HW277104   6.604   3.233   9.243
58403SOL     OW77105   5.562   2.594   2.666
58403SOL    HW177106   5.576   2.550   2.581
58403SOL    HW277107   5.591   2.684   2.651
58404SOL     OW77108   7.106  14.110   1.294
58404SOL    HW177109   7.066  14.034   1.337
58404SOL    HW277110   7.035  14.147   1.240
58405SOL     OW77111   3.213   1.719   3.440
58405SOL    HW177112   3.199   1.660   3.514
58405SOL    HW277113   3.259   1.665   3.375
58406SOL     OW77114   7.162  11.363   5.500
58406SOL    HW177115   7.186  11.284   5.451
58406SOL    HW277116   7.244  11.395   5.537
58407SOL     OW77117  12.588  11.451  14.555
58407SOL    HW177118  12.682  11.437  14.558
58407SOL    HW277119  12.558  11.433  14.644
58408SOL     OW77120   9.834   8.290  14.216
58408SOL    HW177121   9.759   8.315  14.161
58408SOL    HW277122   9.824   8.196  14.228
58409SOL     OW77123   0.534   1.699   1.536
58409SOL    HW177124   0.613   1.753   1.541
58409SOL    HW277125   0.508   1.685   1.627
58410SOL     OW77126  11.370   7.370   8.954
58410SOL    HW177127  11.372   7.415   9.038
58410SOL    HW277128  11.416   7.428   8.894
58411SOL     OW77129   3.087   0.748  14.487
58411SOL    HW177130   3.175   0.713  14.470
58411SOL    HW277131   3.036   0.722  14.411
58412SOL     OW77132   7.558   4.057   8.390
58412SOL    HW177133   7.544   4.005   8.469
58412SOL    HW277134   7.641   4.026   8.355
58413SOL     OW77135  13.872   3.548   1.888
58413SOL    HW177136  13.789   3.507   1.915
58413SOL    HW277137  13.893   3.505   1.804
58414SOL     OW77138  10.777   6.096   7.367
58414SOL    HW177139  10.861   6.138   7.348
58414SOL    HW277140  10.719   6.124   7.296
58415SOL     OW77141   7.450   9.240  13.396
58415SOL    HW177142   7.529   9.275  13.436
58415SOL    HW277143   7.480   9.169  13.339
58416SOL     OW77144   6.337  13.057   8.197
58416SOL    HW177145   6.294  13.020   8.120
58416SOL    HW277146   6.430  13.050   8.178
58417SOL     OW77147  14.445   9.146   5.951
58417SOL    HW177148  14.495   9.104   6.020
58417SOL    HW277149  14.363   9.096   5.946
58418SOL     OW77150  13.031  14.193  10.863
58418SOL    HW177151  12.976  14.263  10.899
58418SOL    HW277152  12.995  14.177  10.776
58419SOL     OW77153   5.052  13.588   1.182
58419SOL    HW177154   4.999  13.614   1.258
58419SOL    HW277155   5.012  13.506   1.152
58420SOL     OW77156  13.670   8.112   9.708
58420SOL    HW177157  13.705   8.084   9.792
58420SOL    HW277158  13.598   8.051   9.690
58421SOL     OW77159   9.244   8.638  13.967
58421SOL    HW177160   9.321   8.664  14.017
58421SOL    HW277161   9.255   8.681  13.882
58422SOL     OW77162   1.330   5.201   4.455
58422SOL    HW177163   1.330   5.110   4.486
58422SOL    HW277164   1.392   5.201   4.382
58423SOL     OW77165   2.789  12.083  14.095
58423SOL    HW177166   2.882  12.061  14.083
58423SOL    HW277167   2.747  12.052  14.015
58424SOL     OW77168   6.573   4.393   0.772
58424SOL    HW177169   6.571   4.488   0.758
58424SOL    HW277170   6.612   4.382   0.859
58425SOL     OW77171   6.566   3.258   5.528
58425SOL    HW177172   6.513   3.189   5.488
58425SOL    HW277173   6.644   3.212   5.559
58426SOL     OW77174  10.921  14.071   1.735
58426SOL    HW177175  10.918  14.042   1.826
58426SOL    HW277176  11.008  14.046   1.705
58427SOL     OW77177   0.470  10.621  12.857
58427SOL    HW177178   0.547  10.667  12.891
58427SOL    HW277179   0.483  10.530  12.882
58428SOL     OW77180  14.701   3.014  13.899
58428SOL    HW177181  14.637   3.074  13.860
58428SOL    HW277182  14.705   3.042  13.991
58429SOL     OW77183   0.555   7.282   5.409
58429SOL    HW177184   0.488   7.231   5.364
58429SOL    HW277185   0.514   7.310   5.490
58430SOL     OW77186   7.281   6.701   8.822
58430SOL    HW177187   7.295   6.770   8.757
58430SOL    HW277188   7.294   6.619   8.774
58431SOL     OW77189   8.093   8.005   8.564
58431SOL    HW177190   8.097   8.057   8.644
58431SOL    HW277191   8.037   8.056   8.505
58432SOL     OW77192   9.184   2.096   2.258
58432SOL    HW177193   9.275   2.126   2.261
58432SOL    HW277194   9.132   2.176   2.264
58433SOL     OW77195   1.101  14.434  13.975
58433SOL    HW177196   1.047  14.378  13.919
58433SOL    HW277197   1.057  14.520  13.971
58434SOL     OW77198   3.844   3.155  13.739
58434SOL    HW177199   3.864   3.094  13.809
58434SOL    HW277200   3.756   3.187  13.759
58435SOL     OW77201  11.811   1.705   7.177
58435SOL    HW177202  11.817   1.663   7.091
58435SOL    HW277203  11.863   1.649   7.234
58436SOL     OW77204  12.904  13.422  13.210
58436SOL    HW177205  12.912  13.464  13.295
58436SOL    HW277206  12.990  13.433  13.170
58437SOL     OW77207   0.499   0.923  14.855
58437SOL    HW177208   0.480   0.842  14.808
58437SOL    HW277209   0.415   0.951   0.010
58438SOL     OW77210   3.489   9.847   8.248
58438SOL    HW177211   3.561   9.802   8.204
58438SOL    HW277212   3.412   9.826   8.195
58439SOL     OW77213   7.704   2.793   4.970
58439SOL    HW177214   7.618   2.823   4.939
58439SOL    HW277215   7.750   2.767   4.891
58440SOL     OW77216   9.733   0.595   3.971
58440SOL    HW177217   9.685   0.591   3.888
58440SOL    HW277218   9.748   0.689   3.986
58441SOL     OW77219   6.248   9.980   9.163
58441SOL    HW177220   6.311   9.947   9.099
58441SOL    HW277221   6.269   9.933   9.244
58442SOL     OW77222   6.604   9.572   5.362
58442SOL    HW177223   6.682   9.556   5.310
58442SOL    HW277224   6.636   9.607   5.445
58443SOL     OW77225  13.624   2.486  12.568
58443SOL    HW177226  13.636   2.447  12.654
58443SOL    HW277227  13.703   2.463  12.520
58444SOL     OW77228   6.940   9.521  14.001
58444SOL    HW177229   6.920   9.588  13.936
58444SOL    HW277230   6.877   9.537  14.071
58445SOL     OW77231   1.123   9.206   8.824
58445SOL    HW177232   1.115   9.117   8.859
58445SOL    HW277233   1.159   9.194   8.737
58446SOL     OW77234   8.339  13.846  11.027
58446SOL    HW177235   8.297  13.884  10.950
58446SOL    HW277236   8.433  13.862  11.014
58447SOL     OW77237   2.424  11.162   5.857
58447SOL    HW177238   2.332  11.146   5.835
58447SOL    HW277239   2.428  11.255   5.876
58448SOL     OW77240   8.307   1.014   6.424
58448SOL    HW177241   8.272   0.941   6.372
58448SOL    HW277242   8.302   1.090   6.365
58449SOL     OW77243  13.388  13.503   3.598
58449SOL    HW177244  13.319  13.451   3.556
58449SOL    HW277245  13.350  13.532   3.680
58450SOL     OW77246   2.503   8.690   3.715
58450SOL    HW177247   2.495   8.597   3.737
58450SOL    HW277248   2.517   8.691   3.620
58451SOL     OW77249  12.201   6.075  11.385
58451SOL    HW177250  12.119   6.093  11.431
58451SOL    HW277251  12.217   6.155  11.334
58452SOL     OW77252   1.771   7.736   9.086
58452SOL    HW177253   1.763   7.774   8.999
58452SOL    HW277254   1.692   7.765   9.133
58453SOL     OW77255   2.898   2.657   5.044
58453SOL    HW177256   2.824   2.678   4.987
58453SOL    HW277257   2.865   2.589   5.102
58454SOL     OW77258   7.695  14.308   0.335
58454SOL    HW177259   7.774  14.255   0.342
58454SOL    HW277260   7.713  14.384   0.391
58455SOL     OW77261   5.311   0.348   4.658
58455SOL    HW177262   5.237   0.370   4.716
58455SOL    HW277263   5.363   0.285   4.708
58456SOL     OW77264   5.873  14.333  13.457
58456SOL    HW177265   5.883  14.275  13.381
58456SOL    HW277266   5.812  14.400  13.428
58457SOL     OW77267   8.728  12.608   6.334
58457SOL    HW177268   8.642  12.600   6.374
58457SOL    HW277269   8.739  12.701   6.317
58458SOL     OW77270   7.081   3.229   8.308
58458SOL    HW177271   7.026   3.208   8.384
58458SOL    HW277272   7.019   3.259   8.242
58459SOL     OW77273  13.371   6.996   2.594
58459SOL    HW177274  13.358   7.083   2.555
58459SOL    HW277275  13.369   7.011   2.688
58460SOL     OW77276  12.711  14.297   1.748
58460SOL    HW177277  12.660  14.223   1.715
58460SOL    HW277278  12.675  14.373   1.703
58461SOL     OW77279  13.074  11.585   8.227
58461SOL    HW177280  13.118  11.501   8.233
58461SOL    HW277281  13.050  11.607   8.317
58462SOL     OW77282  12.976   1.217   3.222
58462SOL    HW177283  13.005   1.152   3.287
58462SOL    HW277284  12.928   1.282   3.273
58463SOL     OW77285  14.851   4.042   7.220
58463SOL    HW177286  14.861   4.041   7.125
58463SOL    HW277287  14.756   4.033   7.233
58464SOL     OW77288  10.808   4.080   1.967
58464SOL    HW177289  10.760   4.078   1.884
58464SOL    HW277290  10.859   3.999   1.967
58465SOL     OW77291   7.262   7.737  13.672
58465SOL    HW177292   7.270   7.677  13.598
58465SOL    HW277293   7.245   7.822  13.632
58466SOL     OW77294   9.083  13.369  12.774
58466SOL    HW177295   9.057  13.341  12.862
58466SOL    HW277296   9.179  13.379  12.780
58467SOL     OW77297  11.400  10.998  11.408
58467SOL    HW177298  11.424  11.091  11.399
58467SOL    HW277299  11.385  10.987  11.502
58468SOL     OW77300  13.484  10.189   8.658
58468SOL    HW177301  13.444  10.125   8.600
58468SOL    HW277302  13.410  10.237   8.695
58469SOL     OW77303   1.300  14.187  10.187
58469SOL    HW177304   1.218  14.224  10.219
58469SOL    HW277305   1.331  14.249  10.122
58470SOL     OW77306   5.357   9.325   0.979
58470SOL    HW177307   5.390   9.406   0.940
58470SOL    HW277308   5.270   9.347   1.011
58471SOL     OW77309   5.628   3.892   2.793
58471SOL    HW177310   5.632   3.986   2.812
58471SOL    HW277311   5.710   3.857   2.828
58472SOL     OW77312   8.518   6.196   8.165
58472SOL    HW177313   8.610   6.178   8.184
58472SOL    HW277314   8.517   6.285   8.132
58473SOL     OW77315   9.712   8.757  12.390
58473SOL    HW177316   9.793   8.788  12.348
58473SOL    HW277317   9.707   8.665  12.366
58474SOL     OW77318   1.859   6.659   4.758
58474SOL    HW177319   1.828   6.569   4.752
58474SOL    HW277320   1.937   6.661   4.701
58475SOL     OW77321   7.505  12.161   3.417
58475SOL    HW177322   7.457  12.078   3.416
58475SOL    HW277323   7.595  12.136   3.439
58476SOL     OW77324   3.251   6.115  10.977
58476SOL    HW177325   3.223   6.026  10.956
58476SOL    HW277326   3.347   6.110  10.980
58477SOL     OW77327   2.205  12.336  10.401
58477SOL    HW177328   2.290  12.296  10.384
58477SOL    HW277329   2.206  12.355  10.495
58478SOL     OW77330  10.677   0.626   2.618
58478SOL    HW177331  10.639   0.539   2.612
58478SOL    HW277332  10.602   0.685   2.629
58479SOL     OW77333   4.017  13.971   8.705
58479SOL    HW177334   4.048  14.050   8.748
58479SOL    HW277335   4.096  13.920   8.688
58480SOL     OW77336   9.533   9.974  12.546
58480SOL    HW177337   9.443   9.976  12.580
58480SOL    HW277338   9.533  10.038  12.475
58481SOL     OW77339   4.588   3.638   0.277
58481SOL    HW177340   4.587   3.728   0.243
58481SOL    HW277341   4.497   3.610   0.272
58482SOL     OW77342   7.256  13.081   8.916
58482SOL    HW177343   7.164  13.056   8.912
58482SOL    HW277344   7.258  13.168   8.877
58483SOL     OW77345   3.928   2.966   0.295
58483SOL    HW177346   3.836   2.937   0.299
58483SOL    HW277347   3.965   2.936   0.378
58484SOL     OW77348  11.597  11.881   2.646
58484SOL    HW177349  11.621  11.796   2.683
58484SOL    HW277350  11.516  11.863   2.597
58485SOL     OW77351   2.121  11.887   4.770
58485SOL    HW177352   2.177  11.815   4.742
58485SOL    HW277353   2.038  11.873   4.725
58486SOL     OW77354   0.530   2.752  12.410
58486SOL    HW177355   0.451   2.785  12.367
58486SOL    HW277356   0.498   2.694  12.479
58487SOL     OW77357  13.365   1.591   8.261
58487SOL    HW177358  13.280   1.588   8.304
58487SOL    HW277359  13.392   1.500   8.253
58488SOL     OW77360   4.571  13.927   4.881
58488SOL    HW177361   4.489  13.965   4.850
58488SOL    HW277362   4.570  13.837   4.848
58489SOL     OW77363  11.328  12.148  13.789
58489SOL    HW177364  11.400  12.102  13.834
58489SOL    HW277365  11.300  12.088  13.721
58490SOL     OW77366   8.245  10.832   6.394
58490SOL    HW177367   8.197  10.794   6.468
58490SOL    HW277368   8.230  10.927   6.403
58491SOL     OW77369  13.407  13.151  11.180
58491SOL    HW177370  13.498  13.175  11.162
58491SOL    HW277371  13.393  13.174  11.272
58492SOL     OW77372   2.784   2.248  10.531
58492SOL    HW177373   2.776   2.156  10.505
58492SOL    HW277374   2.850   2.247  10.601
58493SOL     OW77375   6.033  11.089  13.133
58493SOL    HW177376   5.959  11.049  13.177
58493SOL    HW277377   6.083  11.016  13.098
58494SOL     OW77378   2.728  14.353  10.609
58494SOL    HW177379   2.755  14.433  10.565
58494SOL    HW277380   2.634  14.345  10.588
58495SOL     OW77381  13.236   9.006  11.639
58495SOL    HW177382  13.190   9.081  11.602
58495SOL    HW277383  13.273   8.960  11.564
58496SOL     OW77384   0.689   8.578  10.128
58496SOL    HW177385   0.767   8.556  10.179
58496SOL    HW277386   0.646   8.647  10.178
58497SOL     OW77387   8.941   4.513   9.109
58497SOL    HW177388   8.924   4.452   9.038
58497SOL    HW277389   9.029   4.547   9.092
58498SOL     OW77390  10.689   0.398   8.727
58498SOL    HW177391  10.680   0.486   8.764
58498SOL    HW277392  10.696   0.341   8.803
58499SOL     OW77393   1.876   3.849  12.857
58499SOL    HW177394   1.896   3.917  12.792
58499SOL    HW277395   1.945   3.785  12.847
58500SOL     OW77396   5.699   2.906   9.787
58500SOL    HW177397   5.667   2.957   9.713
58500SOL    HW277398   5.701   2.816   9.755
58501SOL     OW77399  14.030   5.579   7.248
58501SOL    HW177400  14.045   5.630   7.169
58501SOL    HW277401  14.026   5.488   7.218
58502SOL     OW77402   7.855   2.058   4.941
58502SOL    HW177403   7.920   2.128   4.931
58502SOL    HW277404   7.905   1.983   4.973
58503SOL     OW77405   0.274   1.970   5.222
58503SOL    HW177406   0.196   1.940   5.175
58503SOL    HW277407   0.300   2.051   5.178
58504SOL     OW77408  10.183  12.709   1.847
58504SOL    HW177409  10.265  12.687   1.802
58504SOL    HW277410  10.123  12.734   1.777
58505SOL     OW77411   6.646  14.017  10.608
58505SOL    HW177412   6.647  14.094  10.665
58505SOL    HW277413   6.666  14.050  10.521
58506SOL     OW77414   8.481   0.650   7.643
58506SOL    HW177415   8.493   0.742   7.666
58506SOL    HW277416   8.562   0.625   7.599
58507SOL     OW77417   0.595   6.456  12.446
58507SOL    HW177418   0.613   6.459  12.540
58507SOL    HW277419   0.501   6.443  12.440
58508SOL     OW77420   7.392   2.235  13.347
58508SOL    HW177421   7.400   2.327  13.371
58508SOL    HW277422   7.303   2.211  13.373
58509SOL     OW77423   0.936  14.583   7.710
58509SOL    HW177424   0.894  14.497   7.702
58509SOL    HW277425   0.889  14.638   7.646
58510SOL     OW77426   0.419   8.340  10.687
58510SOL    HW177427   0.486   8.322  10.753
58510SOL    HW277428   0.432   8.432  10.662
58511SOL     OW77429   8.813   7.780   7.127
58511SOL    HW177430   8.854   7.825   7.053
58511SOL    HW277431   8.852   7.693   7.127
58512SOL     OW77432   3.115  12.530   1.735
58512SOL    HW177433   3.161  12.449   1.713
58512SOL    HW277434   3.037  12.502   1.781
58513SOL     OW77435   4.169   7.799  14.175
58513SOL    HW177436   4.132   7.789  14.263
58513SOL    HW277437   4.258   7.829  14.190
58514SOL     OW77438   3.762  12.429   4.572
58514SOL    HW177439   3.828  12.499   4.568
58514SOL    HW277440   3.757  12.396   4.482
58515SOL     OW77441   5.321  14.218   8.104
58515SOL    HW177442   5.333  14.268   8.024
58515SOL    HW277443   5.408  14.216   8.145
58516SOL     OW77444  12.823   6.757   3.199
58516SOL    HW177445  12.887   6.820   3.234
58516SOL    HW277446  12.738   6.797   3.217
58517SOL     OW77447   4.642   4.117  12.654
58517SOL    HW177448   4.680   4.165  12.581
58517SOL    HW277449   4.613   4.184  12.715
58518SOL     OW77450  10.938  14.781   4.412
58518SOL    HW177451  10.997  14.722   4.459
58518SOL    HW277452  10.944  14.864   4.461
58519SOL     OW77453  13.829   6.921   8.474
58519SOL    HW177454  13.806   6.926   8.566
58519SOL    HW277455  13.899   6.986   8.463
58520SOL     OW77456   3.651  13.349   8.587
58520SOL    HW177457   3.645  13.375   8.679
58520SOL    HW277458   3.745  13.344   8.570
58521SOL     OW77459  11.231   6.074   6.573
58521SOL    HW177460  11.192   6.161   6.560
58521SOL    HW277461  11.229   6.061   6.668
58522SOL     OW77462  12.978   0.672  13.839
58522SOL    HW177463  12.970   0.681  13.744
58522SOL    HW277464  12.995   0.579  13.853
58523SOL     OW77465  13.990   3.141  13.809
58523SOL    HW177466  14.016   3.129  13.901
58523SOL    HW277467  14.073   3.139  13.761
58524SOL     OW77468   1.083   1.771  13.189
58524SOL    HW177469   1.145   1.750  13.118
58524SOL    HW277470   1.115   1.721  13.264
58525SOL     OW77471   1.525   1.798   4.706
58525SOL    HW177472   1.476   1.872   4.669
58525SOL    HW277473   1.575   1.764   4.632
58526SOL     OW77474   0.164  10.638   6.853
58526SOL    HW177475   0.204  10.589   6.925
58526SOL    HW277476   0.154  10.727   6.886
58527SOL     OW77477  12.158   3.089   5.118
58527SOL    HW177478  12.219   3.060   5.186
58527SOL    HW277479  12.072   3.080   5.157
58528SOL     OW77480   2.549  12.570  14.203
58528SOL    HW177481   2.515  12.617  14.279
58528SOL    HW277482   2.629  12.528  14.234
58529SOL     OW77483  11.576   0.817   9.505
58529SOL    HW177484  11.587   0.837   9.597
58529SOL    HW277485  11.501   0.870   9.477
58530SOL     OW77486  10.085  12.141  13.517
58530SOL    HW177487  10.030  12.204  13.564
58530SOL    HW277488  10.037  12.124  13.436
58531SOL     OW77489   0.997   9.949   1.504
58531SOL    HW177490   1.042   9.888   1.446
58531SOL    HW277491   0.997   9.906   1.590
58532SOL     OW77492   4.821  11.683  10.052
58532SOL    HW177493   4.785  11.648   9.970
58532SOL    HW277494   4.752  11.742  10.084
58533SOL     OW77495   2.524   5.106   0.159
58533SOL    HW177496   2.455   5.149   0.109
58533SOL    HW277497   2.563   5.043   0.098
58534SOL     OW77498  10.102  10.935   3.730
58534SOL    HW177499  10.172  10.942   3.664
58534SOL    HW277500  10.148  10.921   3.812
58535SOL     OW77501   7.852  11.421   1.102
58535SOL    HW177502   7.894  11.359   1.042
58535SOL    HW277503   7.856  11.377   1.187
58536SOL     OW77504  14.294  12.069  12.562
58536SOL    HW177505  14.262  12.141  12.616
58536SOL    HW277506  14.387  12.088  12.551
58537SOL     OW77507   4.885   7.834   7.566
58537SOL    HW177508   4.917   7.916   7.529
58537SOL    HW277509   4.880   7.774   7.491
58538SOL     OW77510  10.497   7.125   6.978
58538SOL    HW177511  10.439   7.147   7.051
58538SOL    HW277512  10.489   7.031   6.968
58539SOL     OW77513  13.126   3.157   8.537
58539SOL    HW177514  13.139   3.249   8.513
58539SOL    HW277515  13.212   3.117   8.524
58540SOL     OW77516   4.627   6.235   9.689
58540SOL    HW177517   4.564   6.188   9.635
58540SOL    HW277518   4.691   6.169   9.715
58541SOL     OW77519  14.578  12.228   8.144
58541SOL    HW177520  14.653  12.170   8.153
58541SOL    HW277521  14.507  12.172   8.112
58542SOL     OW77522  10.104   7.415  10.636
58542SOL    HW177523  10.125   7.508  10.627
58542SOL    HW277524  10.015   7.407  10.603
58543SOL     OW77525  14.022   7.228  12.458
58543SOL    HW177526  14.070   7.167  12.402
58543SOL    HW277527  13.937   7.237  12.417
58544SOL     OW77528   1.707  13.301  12.332
58544SOL    HW177529   1.774  13.368  12.314
58544SOL    HW277530   1.702  13.298  12.428
58545SOL     OW77531   4.295  10.912  14.033
58545SOL    HW177532   4.320  10.976  14.100
58545SOL    HW277533   4.346  10.938  13.955
58546SOL     OW77534  14.653  10.896   6.937
58546SOL    HW177535  14.565  10.877   6.903
58546SOL    HW277536  14.657  10.991   6.940
58547SOL     OW77537   6.271   3.691   9.847
58547SOL    HW177538   6.238   3.611   9.807
58547SOL    HW277539   6.302   3.664   9.934
58548SOL     OW77540   1.739  10.535   3.630
58548SOL    HW177541   1.677  10.513   3.699
58548SOL    HW277542   1.822  10.546   3.675
58549SOL     OW77543   0.924  13.627   4.995
58549SOL    HW177544   0.928  13.693   5.064
58549SOL    HW277545   0.999  13.570   5.012
58550SOL     OW77546   8.903  11.943   3.200
58550SOL    HW177547   8.976  11.972   3.255
58550SOL    HW277548   8.865  12.024   3.166
58551SOL     OW77549  14.183   4.249  10.960
58551SOL    HW177550  14.126   4.323  10.980
58551SOL    HW277551  14.152   4.217  10.876
58552SOL     OW77552   7.602   1.433   3.051
58552SOL    HW177553   7.586   1.515   3.004
58552SOL    HW277554   7.542   1.436   3.125
58553SOL     OW77555  14.723   8.390  13.663
58553SOL    HW177556  14.788   8.320  13.675
58553SOL    HW277557  14.756   8.440  13.588
58554SOL     OW77558   1.568  14.204   3.755
58554SOL    HW177559   1.502  14.144   3.718
58554SOL    HW277560   1.614  14.152   3.821
58555SOL     OW77561  13.446   3.519   0.263
58555SOL    HW177562  13.533   3.494   0.233
58555SOL    HW277563  13.456   3.609   0.293
58556SOL     OW77564   5.271  12.026  12.261
58556SOL    HW177565   5.276  12.122  12.266
58556SOL    HW277566   5.357  11.995  12.289
58557SOL     OW77567   3.622  10.723  11.945
58557SOL    HW177568   3.614  10.665  11.869
58557SOL    HW277569   3.629  10.811  11.907
58558SOL     OW77570  14.582   9.198  13.071
58558SOL    HW177571  14.596   9.283  13.028
58558SOL    HW277572  14.581   9.135  12.999
58559SOL     OW77573   8.401  14.860   4.358
58559SOL    HW177574   8.472  14.799   4.380
58559SOL    HW277575   8.349  14.814   4.291
58560SOL     OW77576   8.781  10.469  14.677
58560SOL    HW177577   8.730  10.403  14.630
58560SOL    HW277578   8.784  10.438  14.767
58561SOL     OW77579   5.803   9.490   5.647
58561SOL    HW177580   5.794   9.402   5.609
58561SOL    HW277581   5.714   9.524   5.649
58562SOL     OW77582  11.534   3.850  14.275
58562SOL    HW177583  11.495   3.931  14.306
58562SOL    HW277584  11.615   3.841  14.325
58563SOL     OW77585   0.079  12.994   4.460
58563SOL    HW177586   0.026  12.988   4.381
58563SOL    HW277587   0.128  12.912   4.462
58564SOL     OW77588  11.279   7.706  13.760
58564SOL    HW177589  11.267   7.740  13.671
58564SOL    HW277590  11.373   7.713  13.776
58565SOL     OW77591   9.845  13.297  14.745
58565SOL    HW177592   9.914  13.317  14.681
58565SOL    HW277593   9.883  13.231  14.802
58566SOL     OW77594   6.039  13.093  11.579
58566SOL    HW177595   6.112  13.062  11.525
58566SOL    HW277596   5.961  13.080  11.524
58567SOL     OW77597  13.462   5.633   7.078
58567SOL    HW177598  13.557   5.628   7.076
58567SOL    HW277599  13.437   5.660   6.990
58568SOL     OW77600   7.414  12.185   9.473
58568SOL    HW177601   7.370  12.256   9.519
58568SOL    HW277602   7.417  12.113   9.536
58569SOL     OW77603   1.432   9.422   5.458
58569SOL    HW177604   1.514   9.373   5.465
58569SOL    HW277605   1.429   9.475   5.537
58570SOL     OW77606   8.338  10.776   8.427
58570SOL    HW177607   8.342  10.868   8.401
58570SOL    HW277608   8.409  10.734   8.378
58571SOL     OW77609   5.703   0.913  10.475
58571SOL    HW177610   5.643   0.981  10.444
58571SOL    HW277611   5.771   0.961  10.523
58572SOL     OW77612  10.554  13.426   7.785
58572SOL    HW177613  10.476  13.371   7.793
58572SOL    HW277614  10.551  13.484   7.862
58573SOL     OW77615   2.746   5.033   5.325
58573SOL    HW177616   2.808   5.064   5.390
58573SOL    HW277617   2.714   4.950   5.360
58574SOL     OW77618   9.678  10.005   8.454
58574SOL    HW177619   9.684   9.961   8.369
58574SOL    HW277620   9.748   9.964   8.506
58575SOL     OW77621   6.605   9.209   6.374
58575SOL    HW177622   6.540   9.258   6.424
58575SOL    HW277623   6.678   9.270   6.363
58576SOL     OW77624   0.311  14.100  11.022
58576SOL    HW177625   0.262  14.163  11.075
58576SOL    HW277626   0.370  14.155  10.970
58577SOL     OW77627  11.811  11.619   9.036
58577SOL    HW177628  11.763  11.610   9.118
58577SOL    HW277629  11.769  11.692   8.992
58578SOL     OW77630  13.092   0.803   6.441
58578SOL    HW177631  13.131   0.762   6.518
58578SOL    HW277632  13.027   0.740   6.409
58579SOL     OW77633  13.608   5.517  14.188
58579SOL    HW177634  13.594   5.543  14.097
58579SOL    HW277635  13.570   5.588  14.240
58580SOL     OW77636   9.653   2.626   2.214
58580SOL    HW177637   9.694   2.576   2.285
58580SOL    HW277638   9.666   2.718   2.238
58581SOL     OW77639   4.334  14.309  12.644
58581SOL    HW177640   4.423  14.323  12.675
58581SOL    HW277641   4.314  14.218  12.666
58582SOL     OW77642   7.599   5.047  10.774
58582SOL    HW177643   7.580   4.970  10.721
58582SOL    HW277644   7.687   5.074  10.746
58583SOL     OW77645   9.513   1.443  12.434
58583SOL    HW177646   9.588   1.427  12.491
58583SOL    HW277647   9.539   1.409  12.349
58584SOL     OW77648   7.171  12.977   9.958
58584SOL    HW177649   7.148  12.930   9.878
58584SOL    HW277650   7.266  12.967   9.965
58585SOL     OW77651   9.606   1.631   9.294
58585SOL    HW177652   9.525   1.621   9.344
58585SOL    HW277653   9.585   1.697   9.228
58586SOL     OW77654   8.795   6.224  10.159
58586SOL    HW177655   8.783   6.296  10.221
58586SOL    HW277656   8.804   6.146  10.214
58587SOL     OW77657  12.026   0.798   2.545
58587SOL    HW177658  12.116   0.828   2.537
58587SOL    HW277659  11.999   0.777   2.455
58588SOL     OW77660  11.507   0.912   4.959
58588SOL    HW177661  11.539   0.823   4.967
58588SOL    HW277662  11.540   0.942   4.874
58589SOL     OW77663  12.940  11.890   7.108
58589SOL    HW177664  12.906  11.907   7.196
58589SOL    HW277665  12.933  11.795   7.098
58590SOL     OW77666  12.354   1.759   4.731
58590SOL    HW177667  12.381   1.840   4.689
58590SOL    HW277668  12.305   1.787   4.808
58591SOL     OW77669   4.877  13.854  13.318
58591SOL    HW177670   4.816  13.886  13.384
58591SOL    HW277671   4.897  13.930  13.264
58592SOL     OW77672   4.964  13.436  13.239
58592SOL    HW177673   4.979  13.342  13.245
58592SOL    HW277674   5.041  13.476  13.279
58593SOL     OW77675  12.144   6.938  14.486
58593SOL    HW177676  12.076   6.873  14.501
58593SOL    HW277677  12.207   6.894  14.428
58594SOL     OW77678  11.685   3.084   1.918
58594SOL    HW177679  11.764   3.032   1.906
58594SOL    HW277680  11.618   3.038   1.867
58595SOL     OW77681  11.221  11.072  14.495
58595SOL    HW177682  11.276  11.078  14.573
58595SOL    HW277683  11.182  11.159  14.485
58596SOL     OW77684  12.044  10.136  12.632
58596SOL    HW177685  11.989  10.110  12.558
58596SOL    HW277686  12.061  10.054  12.679
58597SOL     OW77687   0.870  10.263   9.616
58597SOL    HW177688   0.873  10.171   9.642
58597SOL    HW277689   0.777  10.280   9.601
58598SOL     OW77690   6.000   8.951   9.520
58598SOL    HW177691   5.979   8.886   9.453
58598SOL    HW277692   6.069   8.911   9.572
58599SOL     OW77693   3.085   9.411   5.915
58599SOL    HW177694   3.004   9.452   5.946
58599SOL    HW277695   3.106   9.459   5.834
58600SOL     OW77696   0.695  11.570  10.320
58600SOL    HW177697   0.677  11.610  10.405
58600SOL    HW277698   0.685  11.641  10.257
58601SOL     OW77699   6.526  11.324   4.438
58601SOL    HW177700   6.620  11.323   4.455
58601SOL    HW277701   6.515  11.270   4.359
58602SOL     OW77702  13.041   9.129  10.085
58602SOL    HW177703  13.104   9.123  10.013
58602SOL    HW277704  12.982   9.201  10.059
58603SOL     OW77705  10.447   6.517   3.643
58603SOL    HW177706  10.386   6.450   3.615
58603SOL    HW277707  10.392   6.587   3.677
58604SOL     OW77708   1.762   8.527  12.439
58604SOL    HW177709   1.677   8.525  12.483
58604SOL    HW277710   1.799   8.440  12.453
58605SOL     OW77711   0.577   1.738   2.493
58605SOL    HW177712   0.500   1.786   2.464
58605SOL    HW277713   0.548   1.690   2.571
58606SOL     OW77714  13.082   4.296  11.503
58606SOL    HW177715  13.068   4.204  11.527
58606SOL    HW277716  13.007   4.342  11.541
58607SOL     OW77717   2.868   6.507   4.396
58607SOL    HW177718   2.950   6.460   4.383
58607SOL    HW277719   2.812   6.478   4.324
58608SOL     OW77720  11.987  13.252   6.433
58608SOL    HW177721  12.029  13.245   6.347
58608SOL    HW277722  11.957  13.163   6.452
58609SOL     OW77723  11.026  14.214   8.940
58609SOL    HW177724  11.077  14.133   8.953
58609SOL    HW277725  11.019  14.223   8.845
58610SOL     OW77726  11.026   6.628  13.918
58610SOL    HW177727  11.100   6.688  13.916
58610SOL    HW277728  10.994   6.626  13.828
58611SOL     OW77729   9.187  13.549  12.135
58611SOL    HW177730   9.107  13.497  12.146
58611SOL    HW277731   9.258  13.489  12.157
58612SOL     OW77732   6.384   0.594   0.971
58612SOL    HW177733   6.292   0.573   0.954
58612SOL    HW277734   6.381   0.666   1.034
58613SOL     OW77735   9.920  12.802  13.463
58613SOL    HW177736   9.851  12.803  13.396
58613SOL    HW277737   9.885  12.744  13.531
58614SOL     OW77738  10.799   4.653   7.064
58614SOL    HW177739  10.878   4.604   7.087
58614SOL    HW277740  10.823   4.700   6.985
58615SOL     OW77741  11.201  10.858   0.867
58615SOL    HW177742  11.232  10.939   0.908
58615SOL    HW277743  11.241  10.857   0.781
58616SOL     OW77744   1.755   4.528  10.219
58616SOL    HW177745   1.728   4.579  10.143
58616SOL    HW277746   1.807   4.590  10.271
58617SOL     OW77747   1.063   0.327   7.609
58617SOL    HW177748   1.116   0.373   7.544
58617SOL    HW277749   1.071   0.235   7.585
58618SOL     OW77750   7.222   8.828   4.858
58618SOL    HW177751   7.163   8.785   4.796
58618SOL    HW277752   7.309   8.798   4.834
58619SOL     OW77753   7.775  13.532   6.347
58619SOL    HW177754   7.702  13.561   6.401
58619SOL    HW277755   7.734  13.488   6.272
58620SOL     OW77756   7.418  14.283   7.535
58620SOL    HW177757   7.408  14.377   7.516
58620SOL    HW277758   7.510  14.274   7.562
58621SOL     OW77759  13.492  10.277   4.003
58621SOL    HW177760  13.569  10.317   4.043
58621SOL    HW277761  13.418  10.323   4.044
58622SOL     OW77762  11.599   1.312  10.896
58622SOL    HW177763  11.548   1.250  10.948
58622SOL    HW277764  11.614   1.386  10.954
58623SOL     OW77765  13.518  11.602  13.971
58623SOL    HW177766  13.490  11.510  13.977
58623SOL    HW277767  13.610  11.598  13.944
58624SOL     OW77768   8.279   4.215   4.791
58624SOL    HW177769   8.306   4.305   4.808
58624SOL    HW277770   8.360   4.164   4.796
58625SOL     OW77771   5.475   0.480  11.222
58625SOL    HW177772   5.524   0.542  11.275
58625SOL    HW277773   5.416   0.436  11.283
58626SOL     OW77774   4.945   3.274  13.877
58626SOL    HW177775   4.876   3.250  13.815
58626SOL    HW277776   4.901   3.331  13.941
58627SOL     OW77777  13.677   6.032  11.996
58627SOL    HW177778  13.649   6.123  11.989
58627SOL    HW277779  13.640   6.001  12.078
58628SOL     OW77780   5.802  11.703   3.963
58628SOL    HW177781   5.777  11.643   4.033
58628SOL    HW277782   5.726  11.705   3.905
58629SOL     OW77783  11.084   0.638   5.843
58629SOL    HW177784  11.007   0.588   5.817
58629SOL    HW277785  11.149   0.572   5.865
58630SOL     OW77786   7.028  11.959   9.251
58630SOL    HW177787   7.035  12.050   9.276
58630SOL    HW277788   6.996  11.914   9.329
58631SOL     OW77789   9.013   9.005   8.297
58631SOL    HW177790   9.045   8.929   8.346
58631SOL    HW277791   8.920   9.011   8.321
58632SOL     OW77792   4.069   6.500   4.619
58632SOL    HW177793   4.083   6.494   4.525
58632SOL    HW277794   4.146   6.458   4.658
58633SOL     OW77795  13.890  11.599   3.255
58633SOL    HW177796  13.811  11.640   3.219
58633SOL    HW277797  13.857  11.546   3.328
58634SOL     OW77798   2.334   3.520   8.317
58634SOL    HW177799   2.342   3.569   8.399
58634SOL    HW277800   2.239   3.514   8.303
58635SOL     OW77801  10.610   4.628  11.660
58635SOL    HW177802  10.649   4.628  11.747
58635SOL    HW277803  10.610   4.721  11.634
58636SOL     OW77804  10.211   5.072  12.335
58636SOL    HW177805  10.270   5.085  12.261
58636SOL    HW277806  10.267   5.073  12.412
58637SOL     OW77807  10.589  11.630   6.057
58637SOL    HW177808  10.641  11.610   6.135
58637SOL    HW277809  10.615  11.719   6.033
58638SOL     OW77810   6.911   4.788   5.938
58638SOL    HW177811   6.921   4.775   6.032
58638SOL    HW277812   6.820   4.761   5.919
58639SOL     OW77813   5.580  11.268   2.822
58639SOL    HW177814   5.521  11.339   2.798
58639SOL    HW277815   5.665  11.309   2.834
58640SOL     OW77816   0.087   2.606  11.014
58640SOL    HW177817   0.079   2.702  11.014
58640SOL    HW277818   0.023   2.577  11.078
58641SOL     OW77819   5.106   5.987   4.044
58641SOL    HW177820   5.138   6.067   4.086
58641SOL    HW277821   5.185   5.935   4.031
58642SOL     OW77822   4.282   7.935   6.917
58642SOL    HW177823   4.359   7.880   6.932
58642SOL    HW277824   4.275   7.988   6.997
58643SOL     OW77825   2.908   8.556   9.475
58643SOL    HW177826   2.908   8.546   9.571
58643SOL    HW277827   2.941   8.644   9.460
58644SOL     OW77828   7.298  11.627   3.051
58644SOL    HW177829   7.220  11.658   3.097
58644SOL    HW277830   7.362  11.698   3.062
58645SOL     OW77831  12.247   7.493   5.460
58645SOL    HW177832  12.248   7.426   5.529
58645SOL    HW277833  12.318   7.467   5.401
58646SOL     OW77834   0.985   3.667   8.473
58646SOL    HW177835   0.991   3.641   8.381
58646SOL    HW277836   1.007   3.587   8.521
58647SOL     OW77837  13.700   0.504   4.303
58647SOL    HW177838  13.732   0.582   4.259
58647SOL    HW277839  13.607   0.520   4.317
58648SOL     OW77840   0.035  13.811   0.293
58648SOL    HW177841   0.022  13.837   0.202
58648SOL    HW277842   0.077  13.725   0.288
58649SOL     OW77843   9.995  10.217   7.265
58649SOL    HW177844   9.978  10.250   7.177
58649SOL    HW277845   9.971  10.125   7.262
58650SOL     OW77846  12.078   8.511  10.433
58650SOL    HW177847  12.092   8.421  10.404
58650SOL    HW277848  12.149   8.561  10.394
58651SOL     OW77849   7.608  10.155  14.762
58651SOL    HW177850   7.640  10.088  14.702
58651SOL    HW277851   7.539  10.200  14.714
58652SOL     OW77852  11.489   4.672   5.072
58652SOL    HW177853  11.477   4.667   4.977
58652SOL    HW277854  11.405   4.645   5.108
58653SOL     OW77855   3.027   5.957  12.877
58653SOL    HW177856   3.007   5.893  12.808
58653SOL    HW277857   2.941   5.989  12.905
58654SOL     OW77858  11.557  11.482  12.750
58654SOL    HW177859  11.484  11.426  12.726
58654SOL    HW277860  11.588  11.519  12.667
58655SOL     OW77861   4.991   9.697   1.395
58655SOL    HW177862   4.912   9.647   1.371
58655SOL    HW277863   5.015   9.663   1.481
58656SOL     OW77864   1.023   8.158  10.359
58656SOL    HW177865   1.090   8.103  10.316
58656SOL    HW277866   1.062   8.180  10.444
58657SOL     OW77867   7.067  14.716   9.334
58657SOL    HW177868   7.069  14.812   9.327
58657SOL    HW277869   6.984  14.691   9.292
58658SOL     OW77870   9.139   5.012   3.596
58658SOL    HW177871   9.157   5.065   3.673
58658SOL    HW277872   9.109   5.074   3.530
58659SOL     OW77873   2.904  12.801  10.603
58659SOL    HW177874   2.878  12.888  10.570
58659SOL    HW277875   2.831  12.774  10.658
58660SOL     OW77876   0.981   4.743   3.920
58660SOL    HW177877   0.980   4.738   4.016
58660SOL    HW277878   0.898   4.785   3.897
58661SOL     OW77879  10.782  12.063   7.857
58661SOL    HW177880  10.835  12.113   7.795
58661SOL    HW277881  10.752  12.127   7.922
58662SOL     OW77882   8.149   8.943   9.429
58662SOL    HW177883   8.056   8.931   9.408
58662SOL    HW277884   8.162   9.038   9.428
58663SOL     OW77885   4.316   0.286   0.269
58663SOL    HW177886   4.224   0.313   0.274
58663SOL    HW277887   4.356   0.320   0.349
58664SOL     OW77888   2.291   8.545   4.294
58664SOL    HW177889   2.299   8.571   4.386
58664SOL    HW277890   2.353   8.601   4.248
58665SOL     OW77891  12.086   3.647  14.808
58665SOL    HW177892  12.050   3.679   0.011
58665SOL    HW277893  12.038   3.566  14.791
58666SOL     OW77894   7.960   7.644  12.604
58666SOL    HW177895   7.956   7.624  12.510
58666SOL    HW277896   8.013   7.574  12.641
58667SOL     OW77897  11.343  13.600   1.205
58667SOL    HW177898  11.390  13.563   1.280
58667SOL    HW277899  11.266  13.642   1.244
58668SOL     OW77900   5.756   4.545  14.117
58668SOL    HW177901   5.769   4.550  14.211
58668SOL    HW277902   5.720   4.630  14.093
58669SOL     OW77903  10.833   2.802   0.355
58669SOL    HW177904  10.891   2.822   0.428
58669SOL    HW277905  10.759   2.756   0.395
58670SOL     OW77906   3.186   9.337   1.948
58670SOL    HW177907   3.234   9.413   1.980
58670SOL    HW277908   3.119   9.374   1.890
58671SOL     OW77909  12.620  11.228  10.433
58671SOL    HW177910  12.594  11.201  10.345
58671SOL    HW277911  12.704  11.271  10.421
58672SOL     OW77912  11.586  11.671  10.367
58672SOL    HW177913  11.599  11.583  10.402
58672SOL    HW277914  11.562  11.724  10.443
58673SOL     OW77915   2.182  10.345   8.302
58673SOL    HW177916   2.196  10.279   8.234
58673SOL    HW277917   2.093  10.377   8.285
58674SOL     OW77918  11.786   2.084   9.925
58674SOL    HW177919  11.864   2.036   9.954
58674SOL    HW277920  11.818   2.172   9.907
58675SOL     OW77921  10.865   3.394   8.023
58675SOL    HW177922  10.907   3.380   8.108
58675SOL    HW277923  10.804   3.466   8.037
58676SOL     OW77924   1.361   2.330   7.732
58676SOL    HW177925   1.283   2.352   7.681
58676SOL    HW277926   1.350   2.378   7.814
58677SOL     OW77927   1.098   8.342   2.315
58677SOL    HW177928   1.083   8.436   2.305
58677SOL    HW277929   1.029   8.301   2.262
58678SOL     OW77930  10.052   7.020   7.640
58678SOL    HW177931  10.129   7.044   7.692
58678SOL    HW277932  10.023   7.101   7.599
58679SOL     OW77933   8.814   4.226  14.795
58679SOL    HW177934   8.754   4.163  14.836
58679SOL    HW277935   8.845   4.280  14.868
58680SOL     OW77936   9.612   6.686   2.227
58680SOL    HW177937   9.696   6.704   2.185
58680SOL    HW277938   9.569   6.622   2.170
58681SOL     OW77939  14.376   4.248   2.089
58681SOL    HW177940  14.368   4.267   2.183
58681SOL    HW277941  14.397   4.154   2.086
58682SOL     OW77942  13.493   5.703   1.918
58682SOL    HW177943  13.558   5.634   1.906
58682SOL    HW277944  13.409   5.656   1.920
58683SOL     OW77945   5.782   7.979   0.089
58683SOL    HW177946   5.689   7.963   0.102
58683SOL    HW277947   5.805   7.925   0.013
58684SOL     OW77948  14.053   6.471   5.238
58684SOL    HW177949  14.075   6.558   5.271
58684SOL    HW277950  14.008   6.428   5.311
58685SOL     OW77951   8.884   7.286   6.163
58685SOL    HW177952   8.917   7.260   6.077
58685SOL    HW277953   8.817   7.222   6.183
58686SOL     OW77954   4.568   7.861   4.876
58686SOL    HW177955   4.611   7.945   4.865
58686SOL    HW277956   4.500   7.876   4.941
58687SOL     OW77957  14.079   3.492  14.547
58687SOL    HW177958  14.032   3.465  14.626
58687SOL    HW277959  14.018   3.476  14.475
58688SOL     OW77960   0.191   9.620   7.211
58688SOL    HW177961   0.215   9.534   7.177
58688SOL    HW277962   0.202   9.613   7.306
58689SOL     OW77963  14.636   6.765   3.588
58689SOL    HW177964  14.678   6.687   3.551
58689SOL    HW277965  14.643   6.831   3.519
58690SOL     OW77966  13.275   2.685  12.064
58690SOL    HW177967  13.313   2.666  11.978
58690SOL    HW277968  13.181   2.693  12.048
58691SOL     OW77969  12.576   6.620   1.643
58691SOL    HW177970  12.663   6.605   1.607
58691SOL    HW277971  12.517   6.596   1.571
58692SOL     OW77972   7.095  11.692   5.417
58692SOL    HW177973   7.074  11.700   5.325
58692SOL    HW277974   7.017  11.654   5.457
58693SOL     OW77975   8.405   6.031   7.504
58693SOL    HW177976   8.423   6.083   7.583
58693SOL    HW277977   8.321   5.989   7.521
58694SOL     OW77978   7.520  13.751   7.785
58694SOL    HW177979   7.594  13.697   7.754
58694SOL    HW277980   7.540  13.839   7.753
58695SOL     OW77981   0.763   9.566  11.800
58695SOL    HW177982   0.679   9.523  11.818
58695SOL    HW277983   0.799   9.586  11.886
58696SOL     OW77984   5.259   1.247  13.934
58696SOL    HW177985   5.177   1.235  13.887
58696SOL    HW277986   5.281   1.160  13.967
58697SOL     OW77987  11.080   7.388   8.059
58697SOL    HW177988  11.095   7.389   7.965
58697SOL    HW277989  11.089   7.296   8.084
58698SOL     OW77990  13.444   4.512   6.338
58698SOL    HW177991  13.530   4.535   6.372
58698SOL    HW277992  13.460   4.492   6.245
58699SOL     OW77993   1.883   1.362   9.117
58699SOL    HW177994   1.959   1.345   9.060
58699SOL    HW277995   1.829   1.423   9.066
58700SOL     OW77996   3.428  12.362   6.616
58700SOL    HW177997   3.358  12.303   6.588
58700SOL    HW277998   3.506  12.307   6.618
58701SOL     OW77999  13.068   6.858  10.212
58701SOL    HW178000  13.107   6.930  10.261
58701SOL    HW278001  13.098   6.871  10.122
58702SOL     OW78002   4.218  10.731  11.540
58702SOL    HW178003   4.298  10.782  11.547
58702SOL    HW278004   4.209  10.712  11.446
58703SOL     OW78005   2.529   3.244   7.287
58703SOL    HW178006   2.513   3.206   7.201
58703SOL    HW278007   2.598   3.190   7.326
58704SOL     OW78008  11.152   9.018   9.102
58704SOL    HW178009  11.083   9.070   9.143
58704SOL    HW278010  11.115   8.992   9.017
58705SOL     OW78011   3.028   6.828   5.273
58705SOL    HW178012   3.029   6.915   5.315
58705SOL    HW278013   3.095   6.779   5.320
58706SOL     OW78014   4.260   6.902  13.605
58706SOL    HW178015   4.331   6.960  13.632
58706SOL    HW278016   4.303   6.833  13.554
58707SOL     OW78017   8.007   8.610  10.476
58707SOL    HW178018   7.954   8.690  10.471
58707SOL    HW278019   8.055   8.608  10.394
58708SOL     OW78020   2.183  11.329   2.586
58708SOL    HW178021   2.229  11.309   2.505
58708SOL    HW278022   2.239  11.393   2.631
58709SOL     OW78023   4.667   7.491  10.469
58709SOL    HW178024   4.605   7.433  10.513
58709SOL    HW278025   4.753   7.455  10.492
58710SOL     OW78026   5.295  10.950  14.172
58710SOL    HW178027   5.334  11.023  14.221
58710SOL    HW278028   5.201  10.957  14.190
58711SOL     OW78029   3.232  11.795   5.495
58711SOL    HW178030   3.185  11.721   5.534
58711SOL    HW278031   3.175  11.870   5.510
58712SOL     OW78032  14.045   8.711  12.834
58712SOL    HW178033  13.954   8.685  12.848
58712SOL    HW278034  14.044   8.807  12.840
58713SOL     OW78035   1.079   1.951  12.577
58713SOL    HW178036   0.993   1.991  12.592
58713SOL    HW278037   1.112   1.995  12.499
58714SOL     OW78038  14.519   7.889   5.092
58714SOL    HW178039  14.470   7.964   5.055
58714SOL    HW278040  14.459   7.850   5.155
58715SOL     OW78041   2.447   2.316  12.294
58715SOL    HW178042   2.455   2.325  12.389
58715SOL    HW278043   2.385   2.244  12.282
58716SOL     OW78044   1.490  12.712   7.297
58716SOL    HW178045   1.436  12.669   7.231
58716SOL    HW278046   1.576  12.670   7.290
58717SOL     OW78047  13.230   5.878   6.486
58717SOL    HW178048  13.141   5.864   6.453
58717SOL    HW278049  13.273   5.928   6.417
58718SOL     OW78050   6.497   5.512  11.488
58718SOL    HW178051   6.466   5.471  11.569
58718SOL    HW278052   6.445   5.472  11.419
58719SOL     OW78053  11.372  14.403   2.974
58719SOL    HW178054  11.316  14.473   3.008
58719SOL    HW278055  11.360  14.330   3.035
58720SOL     OW78056   0.828   4.244  10.767
58720SOL    HW178057   0.771   4.307  10.724
58720SOL    HW278058   0.773   4.168  10.784
58721SOL     OW78059  12.069   7.295  10.966
58721SOL    HW178060  12.014   7.259  10.897
58721SOL    HW278061  12.128   7.223  10.990
58722SOL     OW78062  14.315   3.109   9.337
58722SOL    HW178063  14.393   3.076   9.293
58722SOL    HW278064  14.243   3.059   9.299
58723SOL     OW78065  12.408  11.748   9.327
58723SOL    HW178066  12.492  11.765   9.370
58723SOL    HW278067  12.427  11.676   9.267
58724SOL     OW78068   3.928  12.694   9.485
58724SOL    HW178069   3.843  12.728   9.457
58724SOL    HW278070   3.946  12.737   9.568
58725SOL     OW78071   8.636   5.650  13.954
58725SOL    HW178072   8.623   5.604  14.037
58725SOL    HW278073   8.559   5.706  13.945
58726SOL     OW78074   5.812  12.150   4.450
58726SOL    HW178075   5.857  12.232   4.430
58726SOL    HW278076   5.793  12.155   4.543
58727SOL     OW78077   1.671   3.122   8.677
58727SOL    HW178078   1.647   3.042   8.724
58727SOL    HW278079   1.664   3.098   8.584
58728SOL     OW78080   9.625  12.085   0.792
58728SOL    HW178081   9.563  12.013   0.805
58728SOL    HW278082   9.711  12.043   0.790
58729SOL     OW78083  13.602  13.091   3.544
58729SOL    HW178084  13.615  13.021   3.608
58729SOL    HW278085  13.530  13.144   3.579
58730SOL     OW78086  13.589  13.134   2.732
58730SOL    HW178087  13.641  13.202   2.690
58730SOL    HW278088  13.571  13.169   2.819
58731SOL     OW78089   7.555  12.625  10.859
58731SOL    HW178090   7.636  12.651  10.903
58731SOL    HW278091   7.520  12.555  10.914
58732SOL     OW78092  14.800  10.665   5.008
58732SOL    HW178093  14.878  10.720   5.006
58732SOL    HW278094  14.820  10.594   4.947
58733SOL     OW78095  11.251  13.845   3.844
58733SOL    HW178096  11.184  13.791   3.886
58733SOL    HW278097  11.237  13.933   3.879
58734SOL     OW78098   9.273   5.197  10.269
58734SOL    HW178099   9.203   5.135  10.291
58734SOL    HW278100   9.337   5.144  10.221
58735SOL     OW78101  13.312   4.702  10.433
58735SOL    HW178102  13.302   4.609  10.454
58735SOL    HW278103  13.378   4.703  10.363
58736SOL     OW78104   8.829   2.526  14.356
58736SOL    HW178105   8.894   2.458  14.339
58736SOL    HW278106   8.839   2.587  14.283
58737SOL     OW78107  11.160   3.006   2.450
58737SOL    HW178108  11.129   3.060   2.522
58737SOL    HW278109  11.103   3.028   2.376
58738SOL     OW78110   5.971  14.857   4.430
58738SOL    HW178111   6.024  14.782   4.400
58738SOL    HW278112   6.032   0.030   4.481
58739SOL     OW78113   7.907  13.944   0.912
58739SOL    HW178114   7.863  14.029   0.913
58739SOL    HW278115   7.843  13.884   0.951
58740SOL     OW78116   3.575  13.065  12.185
58740SOL    HW178117   3.574  13.050  12.090
58740SOL    HW278118   3.504  13.129  12.199
58741SOL     OW78119  11.806   6.617   1.163
58741SOL    HW178120  11.889   6.648   1.126
58741SOL    HW278121  11.829   6.584   1.249
58742SOL     OW78122   9.285  11.434  10.494
58742SOL    HW178123   9.335  11.510  10.523
58742SOL    HW278124   9.194  11.462  10.500
58743SOL     OW78125   1.440  13.987  12.894
58743SOL    HW178126   1.531  13.981  12.863
58743SOL    HW278127   1.394  14.035  12.825
58744SOL     OW78128   9.540   4.685   1.431
58744SOL    HW178129   9.509   4.737   1.357
58744SOL    HW278130   9.606   4.627   1.394
58745SOL     OW78131   7.646  14.074  14.619
58745SOL    HW178132   7.586  14.002  14.639
58745SOL    HW278133   7.675  14.105  14.704
58746SOL     OW78134  11.950   8.470   9.109
58746SOL    HW178135  11.930   8.563   9.103
58746SOL    HW278136  12.017   8.465   9.178
58747SOL     OW78137   3.739   7.177   9.615
58747SOL    HW178138   3.783   7.136   9.540
58747SOL    HW278139   3.744   7.112   9.685
58748SOL     OW78140  12.583   2.658  11.506
58748SOL    HW178141  12.601   2.678  11.414
58748SOL    HW278142  12.568   2.744  11.546
58749SOL     OW78143   8.171  12.095   6.772
58749SOL    HW178144   8.130  12.169   6.817
58749SOL    HW278145   8.155  12.020   6.830
58750SOL     OW78146  10.170   1.778   7.715
58750SOL    HW178147  10.120   1.779   7.633
58750SOL    HW278148  10.209   1.691   7.719
58751SOL     OW78149  10.049   0.384   6.275
58751SOL    HW178150  10.012   0.314   6.328
58751SOL    HW278151  10.143   0.364   6.269
58752SOL     OW78152   1.227  12.553   5.006
58752SOL    HW178153   1.293  12.570   4.939
58752SOL    HW278154   1.158  12.505   4.960
58753SOL     OW78155   6.749   3.029   1.241
58753SOL    HW178156   6.820   3.092   1.240
58753SOL    HW278157   6.690   3.057   1.171
58754SOL     OW78158   5.799   0.154  10.030
58754SOL    HW178159   5.819   0.229   9.975
58754SOL    HW278160   5.706   0.137  10.014
58755SOL     OW78161   3.816  14.719   5.026
58755SOL    HW178162   3.756  14.650   4.999
58755SOL    HW278163   3.903  14.684   5.007
58756SOL     OW78164  13.457   9.960   6.593
58756SOL    HW178165  13.394   9.930   6.659
58756SOL    HW278166  13.542   9.949   6.635
58757SOL     OW78167   2.173   3.015   8.506
58757SOL    HW178168   2.130   3.074   8.445
58757SOL    HW278169   2.262   3.004   8.471
58758SOL     OW78170  10.470   3.371   4.067
58758SOL    HW178171  10.486   3.461   4.038
58758SOL    HW278172  10.377   3.369   4.090
58759SOL     OW78173  14.863  11.103   3.220
58759SOL    HW178174   0.070  11.114   3.181
58759SOL    HW278175  14.816  11.047   3.159
58760SOL     OW78176  11.598   0.892   6.081
58760SOL    HW178177  11.660   0.955   6.118
58760SOL    HW278178  11.515   0.912   6.125
58761SOL     OW78179  10.966   0.698   7.763
58761SOL    HW178180  10.933   0.619   7.721
58761SOL    HW278181  11.048   0.717   7.718
58762SOL     OW78182   5.123  11.445   9.718
58762SOL    HW178183   5.205  11.486   9.744
58762SOL    HW278184   5.135  11.352   9.738
58763SOL     OW78185   1.364  13.849   4.574
58763SOL    HW178186   1.320  13.893   4.501
58763SOL    HW278187   1.450  13.890   4.577
58764SOL     OW78188  13.399   6.712   9.973
58764SOL    HW178189  13.451   6.702   9.893
58764SOL    HW278190  13.433   6.646  10.033
58765SOL     OW78191   5.262   5.856  14.657
58765SOL    HW178192   5.329   5.789  14.670
58765SOL    HW278193   5.258   5.903  14.741
58766SOL     OW78194   1.724  12.723   7.938
58766SOL    HW178195   1.789  12.654   7.944
58766SOL    HW278196   1.641  12.678   7.921
58767SOL     OW78197   0.489  12.138   8.560
58767SOL    HW178198   0.558  12.117   8.497
58767SOL    HW278199   0.493  12.067   8.624
58768SOL     OW78200  13.339   2.008   7.561
58768SOL    HW178201  13.315   2.071   7.493
58768SOL    HW278202  13.385   1.938   7.514
58769SOL     OW78203  10.653   0.661   2.303
58769SOL    HW178204  10.705   0.731   2.343
58769SOL    HW278205  10.565   0.673   2.338
58770SOL     OW78206   1.029   2.795  10.078
58770SOL    HW178207   1.028   2.861  10.007
58770SOL    HW278208   1.115   2.807  10.120
58771SOL     OW78209   5.779  10.957   5.286
58771SOL    HW178210   5.739  10.885   5.334
58771SOL    HW278211   5.719  10.975   5.214
58772SOL     OW78212  12.015  12.498   0.398
58772SOL    HW178213  11.923  12.498   0.372
58772SOL    HW278214  12.039  12.406   0.405
58773SOL     OW78215  12.463   5.494   5.125
58773SOL    HW178216  12.495   5.582   5.146
58773SOL    HW278217  12.483   5.442   5.203
58774SOL     OW78218  12.472   1.125   9.603
58774SOL    HW178219  12.428   1.084   9.528
58774SOL    HW278220  12.557   1.152   9.569
58775SOL     OW78221  12.370   5.035   7.943
58775SOL    HW178222  12.404   5.099   8.007
58775SOL    HW278223  12.278   5.060   7.931
58776SOL     OW78224  10.223  10.151   4.183
58776SOL    HW178225  10.134  10.133   4.211
58776SOL    HW278226  10.254  10.068   4.146
58777SOL     OW78227   0.587  13.398   5.022
58777SOL    HW178228   0.653  13.446   4.973
58777SOL    HW278229   0.524  13.464   5.049
58778SOL     OW78230  11.635   2.519   3.635
58778SOL    HW178231  11.615   2.605   3.672
58778SOL    HW278232  11.605   2.525   3.544
58779SOL     OW78233   5.978  11.499   2.041
58779SOL    HW178234   6.021  11.455   2.114
58779SOL    HW278235   5.885  11.479   2.052
58780SOL     OW78236   1.676   3.100   8.411
58780SOL    HW178237   1.588   3.128   8.384
58780SOL    HW278238   1.710   3.054   8.334
58781SOL     OW78239  12.491   9.268   2.190
58781SOL    HW178240  12.513   9.197   2.251
58781SOL    HW278241  12.575   9.305   2.165
58782SOL     OW78242   7.191   5.823   4.967
58782SOL    HW178243   7.169   5.737   5.001
58782SOL    HW278244   7.278   5.812   4.927
58783SOL     OW78245   3.611   8.218   6.325
58783SOL    HW178246   3.683   8.257   6.375
58783SOL    HW278247   3.596   8.279   6.253
58784SOL     OW78248   0.601   7.323   3.110
58784SOL    HW178249   0.625   7.377   3.185
58784SOL    HW278250   0.659   7.247   3.116
58785SOL     OW78251  11.637   5.002   6.057
58785SOL    HW178252  11.647   5.057   5.979
58785SOL    HW278253  11.702   4.933   6.045
58786SOL     OW78254   5.213  11.453  13.312
58786SOL    HW178255   5.276  11.515  13.275
58786SOL    HW278256   5.240  11.442  13.403
58787SOL     OW78257  12.881  14.050  14.386
58787SOL    HW178258  12.806  13.995  14.410
58787SOL    HW278259  12.879  14.055  14.291
58788SOL     OW78260   3.321   0.635  12.984
58788SOL    HW178261   3.274   0.671  12.908
58788SOL    HW278262   3.361   0.555  12.951
58789SOL     OW78263  14.240   6.919   5.549
58789SOL    HW178264  14.195   6.897   5.467
58789SOL    HW278265  14.292   6.841   5.568
58790SOL     OW78266   7.378  11.336   7.347
58790SOL    HW178267   7.379  11.286   7.429
58790SOL    HW278268   7.467  11.372   7.339
58791SOL     OW78269  11.654  10.250   0.233
58791SOL    HW178270  11.723  10.312   0.212
58791SOL    HW278271  11.694  10.164   0.220
58792SOL     OW78272   0.092   9.669  11.285
58792SOL    HW178273   0.012   9.639  11.241
58792SOL    HW278274   0.134   9.588  11.315
58793SOL     OW78275  12.917   7.745   3.218
58793SOL    HW178276  12.963   7.732   3.135
58793SOL    HW278277  12.839   7.794   3.195
58794SOL     OW78278   9.649   9.385   8.653
58794SOL    HW178279   9.632   9.435   8.573
58794SOL    HW278280   9.714   9.319   8.627
58795SOL     OW78281  10.666   6.283  12.341
58795SOL    HW178282  10.719   6.260  12.264
58795SOL    HW278283  10.730   6.297  12.411
58796SOL     OW78284   4.902   1.390   7.849
58796SOL    HW178285   4.979   1.435   7.884
58796SOL    HW278286   4.872   1.334   7.921
58797SOL     OW78287   9.521   1.317   3.238
58797SOL    HW178288   9.431   1.284   3.232
58797SOL    HW278289   9.531   1.343   3.330
58798SOL     OW78290   7.723   4.078  14.768
58798SOL    HW178291   7.750   4.003  14.716
58798SOL    HW278292   7.790   4.144  14.753
58799SOL     OW78293   8.931  11.140  10.485
58799SOL    HW178294   8.890  11.220  10.517
58799SOL    HW278295   8.960  11.095  10.564
58800SOL     OW78296   1.041   5.194  10.577
58800SOL    HW178297   0.980   5.257  10.538
58800SOL    HW278298   1.123   5.208  10.529
58801SOL     OW78299  14.237  12.001  12.158
58801SOL    HW178300  14.312  11.958  12.198
58801SOL    HW278301  14.275  12.076  12.111
58802SOL     OW78302   5.181   8.888   0.273
58802SOL    HW178303   5.215   8.804   0.243
58802SOL    HW278304   5.213   8.896   0.363
58803SOL     OW78305   8.749   0.648   3.330
58803SOL    HW178306   8.826   0.595   3.311
58803SOL    HW278307   8.687   0.627   3.259
58804SOL     OW78308   2.892  11.043  13.134
58804SOL    HW178309   2.877  10.961  13.181
58804SOL    HW278310   2.928  11.102  13.199
58805SOL     OW78311   6.412   9.060  12.573
58805SOL    HW178312   6.342   9.115  12.539
58805SOL    HW278313   6.386   8.970  12.550
58806SOL     OW78314  14.855   9.172   0.598
58806SOL    HW178315  14.863   9.225   0.519
58806SOL    HW278316   0.023   9.091   0.578
58807SOL     OW78317  13.456   4.475   9.321
58807SOL    HW178318  13.458   4.458   9.415
58807SOL    HW278319  13.483   4.567   9.313
58808SOL     OW78320  11.002   9.185  11.001
58808SOL    HW178321  10.973   9.208  10.913
58808SOL    HW278322  10.957   9.247  11.059
58809SOL     OW78323   5.734   0.745   5.825
58809SOL    HW178324   5.821   0.785   5.813
58809SOL    HW278325   5.710   0.715   5.737
58810SOL     OW78326   6.844   3.354  11.888
58810SOL    HW178327   6.919   3.403  11.854
58810SOL    HW278328   6.822   3.293  11.817
58811SOL     OW78329   5.933   7.715   4.731
58811SOL    HW178330   5.944   7.620   4.733
58811SOL    HW278331   5.842   7.729   4.757
58812SOL     OW78332   5.965   3.011   2.813
58812SOL    HW178333   5.903   2.959   2.864
58812SOL    HW278334   5.934   3.101   2.822
58813SOL     OW78335   5.701  10.014   7.262
58813SOL    HW178336   5.647  10.002   7.340
58813SOL    HW278337   5.746  10.097   7.276
58814SOL     OW78338   4.210   6.212   6.189
58814SOL    HW178339   4.281   6.148   6.177
58814SOL    HW278340   4.131   6.166   6.161
58815SOL     OW78341  14.283  11.441   9.453
58815SOL    HW178342  14.272  11.391   9.533
58815SOL    HW278343  14.194  11.457   9.423
58816SOL     OW78344  14.763  11.302  13.278
58816SOL    HW178345  14.832  11.287  13.214
58816SOL    HW278346  14.692  11.244  13.251
58817SOL     OW78347  10.534   9.366   0.363
58817SOL    HW178348  10.440   9.371   0.382
58817SOL    HW278349  10.562   9.283   0.401
58818SOL     OW78350  13.848  14.000   1.758
58818SOL    HW178351  13.797  13.963   1.829
58818SOL    HW278352  13.804  14.082   1.737
58819SOL     OW78353   2.033   0.002   6.905
58819SOL    HW178354   1.981   0.066   6.856
58819SOL    HW278355   1.978  14.860   6.981
58820SOL     OW78356  10.917   5.252   5.750
58820SOL    HW178357  10.878   5.177   5.706
58820SOL    HW278358  10.948   5.309   5.680
58821SOL     OW78359  13.131   0.836   7.099
58821SOL    HW178360  13.133   0.762   7.160
58821SOL    HW278361  13.054   0.886   7.125
58822SOL     OW78362   9.557   9.799   2.368
58822SOL    HW178363   9.538   9.882   2.324
58822SOL    HW278364   9.652   9.790   2.362
58823SOL     OW78365  10.923  10.485   0.037
58823SOL    HW178366  10.833  10.492   0.068
58823SOL    HW278367  10.974  10.461   0.114
58824SOL     OW78368   3.145  14.717  13.929
58824SOL    HW178369   3.234  14.735  13.900
58824SOL    HW278370   3.140  14.754  14.017
58825SOL     OW78371   2.807  12.848   3.328
58825SOL    HW178372   2.809  12.780   3.395
58825SOL    HW278373   2.716  12.851   3.299
58826SOL     OW78374   1.116   5.851  10.242
58826SOL    HW178375   1.182   5.901  10.289
58826SOL    HW278376   1.061   5.917  10.200
58827SOL     OW78377   9.983   3.802   4.304
58827SOL    HW178378   9.988   3.878   4.361
58827SOL    HW278379  10.067   3.757   4.317
58828SOL     OW78380  14.544  10.780   9.535
58828SOL    HW178381  14.456  10.810   9.514
58828SOL    HW278382  14.566  10.721   9.463
58829SOL     OW78383  10.395   1.561  14.392
58829SOL    HW178384  10.352   1.643  14.416
58829SOL    HW278385  10.443   1.535  14.470
58830SOL     OW78386   2.828  13.023   9.587
58830SOL    HW178387   2.771  13.087   9.545
58830SOL    HW278388   2.916  13.046   9.557
58831SOL     OW78389   5.817   7.834   8.479
58831SOL    HW178390   5.746   7.782   8.442
58831SOL    HW278391   5.867   7.772   8.532
58832SOL     OW78392   8.852   6.499   5.713
58832SOL    HW178393   8.840   6.519   5.805
58832SOL    HW278394   8.890   6.579   5.675
58833SOL     OW78395   9.658   7.272   1.378
58833SOL    HW178396   9.630   7.213   1.448
58833SOL    HW278397   9.753   7.267   1.378
58834SOL     OW78398   2.651   8.237   8.805
58834SOL    HW178399   2.576   8.177   8.810
58834SOL    HW278400   2.623   8.305   8.744
58835SOL     OW78401   1.765   7.990  12.703
58835SOL    HW178402   1.771   7.951  12.790
58835SOL    HW278403   1.846   7.963  12.659
58836SOL     OW78404   7.660   8.151  10.521
58836SOL    HW178405   7.584   8.195  10.560
58836SOL    HW278406   7.692   8.213  10.456
58837SOL     OW78407   0.376   6.585   5.645
58837SOL    HW178408   0.294   6.596   5.692
58837SOL    HW278409   0.425   6.666   5.664
58838SOL     OW78410   4.778   8.109   9.763
58838SOL    HW178411   4.763   8.030   9.712
58838SOL    HW278412   4.716   8.173   9.727
58839SOL     OW78413  12.699   1.459   2.665
58839SOL    HW178414  12.629   1.521   2.645
58839SOL    HW278415  12.736   1.491   2.748
58840SOL     OW78416  13.805   6.413  11.060
58840SOL    HW178417  13.749   6.356  11.113
58840SOL    HW278418  13.745   6.454  10.998
58841SOL     OW78419   1.382   1.634  10.205
58841SOL    HW178420   1.442   1.663  10.136
58841SOL    HW278421   1.395   1.698  10.276
58842SOL     OW78422  11.975   8.008   8.588
58842SOL    HW178423  11.967   7.960   8.670
58842SOL    HW278424  11.957   8.099   8.612
58843SOL     OW78425  13.780   4.010   1.883
58843SOL    HW178426  13.854   4.045   1.835
58843SOL    HW278427  13.756   4.079   1.944
58844SOL     OW78428   5.760   4.272   0.351
58844SOL    HW178429   5.827   4.325   0.394
58844SOL    HW278430   5.758   4.190   0.401
58845SOL     OW78431  11.277  11.921  13.635
58845SOL    HW178432  11.319  11.835  13.635
58845SOL    HW278433  11.293  11.956  13.548
58846SOL     OW78434   7.762   1.179   1.572
58846SOL    HW178435   7.827   1.172   1.642
58846SOL    HW278436   7.792   1.116   1.506
58847SOL     OW78437   7.410   3.722   3.902
58847SOL    HW178438   7.347   3.654   3.926
58847SOL    HW278439   7.423   3.709   3.807
58848SOL     OW78440   8.346   5.687   0.860
58848SOL    HW178441   8.433   5.713   0.828
58848SOL    HW278442   8.364   5.633   0.937
58849SOL     OW78443  13.648   2.969   6.510
58849SOL    HW178444  13.602   3.049   6.536
58849SOL    HW278445  13.657   2.977   6.415
58850SOL     OW78446   3.071   0.065  14.516
58850SOL    HW178447   3.047  14.879  14.581
58850SOL    HW278448   3.121   0.130  14.565
58851SOL     OW78449   6.764   1.587   8.764
58851SOL    HW178450   6.859   1.583   8.775
58851SOL    HW278451   6.743   1.680   8.766
58852SOL     OW78452   9.452  12.122  10.232
58852SOL    HW178453   9.519  12.088  10.291
58852SOL    HW278454   9.386  12.053  10.229
58853SOL     OW78455   8.241   0.146   8.240
58853SOL    HW178456   8.155   0.161   8.280
58853SOL    HW278457   8.246   0.211   8.170
58854SOL     OW78458  10.200   2.479   8.514
58854SOL    HW178459  10.276   2.537   8.509
58854SOL    HW278460  10.147   2.501   8.437
58855SOL     OW78461  14.122   4.755   9.088
58855SOL    HW178462  14.124   4.671   9.133
58855SOL    HW278463  14.035   4.759   9.047
58856SOL     OW78464   9.551  11.113   3.444
58856SOL    HW178465   9.591  11.127   3.529
58856SOL    HW278466   9.478  11.054   3.461
58857SOL     OW78467   3.637   4.141   0.719
58857SOL    HW178468   3.579   4.186   0.658
58857SOL    HW278469   3.590   4.142   0.802
58858SOL     OW78470   2.393   0.463   5.972
58858SOL    HW178471   2.337   0.502   6.039
58858SOL    HW278472   2.482   0.486   5.999
58859SOL     OW78473  12.548  10.082  13.437
58859SOL    HW178474  12.541  10.171  13.403
58859SOL    HW278475  12.599  10.091  13.518
58860SOL     OW78476   7.159  14.133   5.679
58860SOL    HW178477   7.244  14.138   5.724
58860SOL    HW278478   7.181  14.135   5.586
58861SOL     OW78479   8.327   2.560   0.971
58861SOL    HW178480   8.348   2.482   1.021
58861SOL    HW278481   8.410   2.608   0.965
58862SOL     OW78482   5.419  13.346   7.962
58862SOL    HW178483   5.332  13.325   7.928
58862SOL    HW278484   5.420  13.306   8.049
58863SOL     OW78485  11.006   5.430  11.910
58863SOL    HW178486  10.968   5.347  11.880
58863SOL    HW278487  10.932   5.479  11.944
58864SOL     OW78488   0.564   3.786   9.050
58864SOL    HW178489   0.567   3.709   8.994
58864SOL    HW278490   0.623   3.766   9.122
58865SOL     OW78491  14.759  14.514   6.511
58865SOL    HW178492  14.761  14.430   6.558
58865SOL    HW278493  14.716  14.493   6.428
58866SOL     OW78494   4.981   6.191  14.457
58866SOL    HW178495   5.065   6.162  14.422
58866SOL    HW278496   4.921   6.118  14.438
58867SOL     OW78497   2.703  12.230   5.213
58867SOL    HW178498   2.758  12.152   5.220
58867SOL    HW278499   2.717  12.276   5.296
58868SOL     OW78500   4.887  13.035   5.117
58868SOL    HW178501   4.856  13.081   5.196
58868SOL    HW278502   4.814  12.978   5.093
58869SOL     OW78503   7.049   4.972   9.472
58869SOL    HW178504   7.125   5.009   9.517
58869SOL    HW278505   7.087   4.908   9.411
58870SOL     OW78506  11.722   5.457   9.616
58870SOL    HW178507  11.740   5.456   9.522
58870SOL    HW278508  11.631   5.428   9.624
58871SOL     OW78509  11.887  12.840  12.811
58871SOL    HW178510  11.933  12.776  12.864
58871SOL    HW278511  11.832  12.788  12.752
58872SOL     OW78512   9.212   5.339  13.287
58872SOL    HW178513   9.118   5.325  13.294
58872SOL    HW278514   9.251   5.258  13.320
58873SOL     OW78515   4.984  10.111  10.349
58873SOL    HW178516   5.061  10.146  10.393
58873SOL    HW278517   4.957  10.181  10.290
58874SOL     OW78518   0.449  13.173   7.958
58874SOL    HW178519   0.430  13.178   7.864
58874SOL    HW278520   0.543  13.190   7.965
58875SOL     OW78521   4.784   8.693   9.990
58875SOL    HW178522   4.734   8.772   9.971
58875SOL    HW278523   4.872   8.725  10.010
58876SOL     OW78524  12.197   7.147   2.624
58876SOL    HW178525  12.112   7.192   2.622
58876SOL    HW278526  12.261   7.218   2.634
58877SOL     OW78527  14.614   6.926   9.492
58877SOL    HW178528  14.561   7.002   9.470
58877SOL    HW278529  14.606   6.918   9.587
58878SOL     OW78530  11.940   5.991   7.728
58878SOL    HW178531  11.894   6.037   7.658
58878SOL    HW278532  12.030   6.023   7.722
58879SOL     OW78533   7.871   6.287  13.445
58879SOL    HW178534   7.895   6.201  13.479
58879SOL    HW278535   7.827   6.270  13.362
58880SOL     OW78536   5.028   5.949   8.783
58880SOL    HW178537   5.036   6.006   8.859
58880SOL    HW278538   5.083   5.991   8.716
58881SOL     OW78539  14.520   6.604   3.287
58881SOL    HW178540  14.482   6.548   3.354
58881SOL    HW278541  14.595   6.555   3.253
58882SOL     OW78542   7.663  11.023   2.175
58882SOL    HW178543   7.718  10.948   2.153
58882SOL    HW278544   7.575  10.998   2.146
58883SOL     OW78545  11.131   4.288   1.161
58883SOL    HW178546  11.142   4.202   1.123
58883SOL    HW278547  11.210   4.336   1.138
58884SOL     OW78548   2.547   6.731   6.167
58884SOL    HW178549   2.548   6.683   6.085
58884SOL    HW278550   2.634   6.769   6.174
58885SOL     OW78551   7.400   5.482   0.567
58885SOL    HW178552   7.387   5.414   0.633
58885SOL    HW278553   7.356   5.448   0.489
58886SOL     OW78554   0.084   0.043  14.536
58886SOL    HW178555   0.077   0.122  14.482
58886SOL    HW278556   0.043  14.854  14.483
58887SOL     OW78557  12.464  14.398   5.625
58887SOL    HW178558  12.385  14.394   5.679
58887SOL    HW278559  12.453  14.326   5.562
58888SOL     OW78560   9.121   2.953   9.686
58888SOL    HW178561   9.059   2.936   9.614
58888SOL    HW278562   9.075   2.926   9.765
58889SOL     OW78563   8.327   0.302  12.036
58889SOL    HW178564   8.395   0.281  11.972
58889SOL    HW278565   8.347   0.246  12.111
58890SOL     OW78566  14.592   0.517  13.727
58890SOL    HW178567  14.680   0.555  13.717
58890SOL    HW278568  14.534   0.593  13.730
58891SOL     OW78569   2.737   4.646   6.741
58891SOL    HW178570   2.799   4.630   6.670
58891SOL    HW278571   2.660   4.684   6.697
58892SOL     OW78572   4.703  12.789   7.266
58892SOL    HW178573   4.643  12.852   7.226
58892SOL    HW278574   4.685  12.706   7.222
58893SOL     OW78575   1.134  11.898   7.434
58893SOL    HW178576   1.217  11.905   7.481
58893SOL    HW278577   1.147  11.824   7.374
58894SOL     OW78578   2.608   0.557   0.692
58894SOL    HW178579   2.553   0.566   0.614
58894SOL    HW278580   2.548   0.574   0.765
58895SOL     OW78581   4.531   2.607   2.942
58895SOL    HW178582   4.474   2.563   2.879
58895SOL    HW278583   4.498   2.697   2.945
58896SOL     OW78584   6.035   7.082  12.191
58896SOL    HW178585   5.978   7.059  12.264
58896SOL    HW278586   6.119   7.103  12.232
58897SOL     OW78587   8.469   4.330  11.464
58897SOL    HW178588   8.443   4.322  11.556
58897SOL    HW278589   8.428   4.255  11.421
58898SOL     OW78590   4.156  10.590   7.396
58898SOL    HW178591   4.142  10.643   7.474
58898SOL    HW278592   4.238  10.544   7.412
58899SOL     OW78593  13.254  14.603   3.819
58899SOL    HW178594  13.236  14.637   3.907
58899SOL    HW278595  13.238  14.509   3.827
58900SOL     OW78596   1.964  10.960   5.780
58900SOL    HW178597   1.891  10.989   5.726
58900SOL    HW278598   1.927  10.893   5.838
58901SOL     OW78599   7.775   2.951   1.621
58901SOL    HW178600   7.814   2.917   1.702
58901SOL    HW278601   7.686   2.915   1.619
58902SOL     OW78602  10.785  11.971  11.201
58902SOL    HW178603  10.741  12.046  11.162
58902SOL    HW278604  10.735  11.952  11.281
58903SOL     OW78605   0.235   6.589  14.687
58903SOL    HW178606   0.275   6.634  14.613
58903SOL    HW278607   0.204   6.506  14.650
58904SOL     OW78608   2.275  13.914   5.651
58904SOL    HW178609   2.364  13.949   5.651
58904SOL    HW278610   2.283  13.828   5.693
58905SOL     OW78611   4.257   4.277   2.833
58905SOL    HW178612   4.215   4.322   2.907
58905SOL    HW278613   4.281   4.348   2.773
58906SOL     OW78614  14.051   4.544   0.132
58906SOL    HW178615  14.032   4.589   0.215
58906SOL    HW278616  13.969   4.546   0.084
58907SOL     OW78617   7.310  11.263   8.158
58907SOL    HW178618   7.309  11.179   8.203
58907SOL    HW278619   7.229  11.263   8.106
58908SOL     OW78620   2.056   2.143   4.851
58908SOL    HW178621   2.131   2.201   4.858
58908SOL    HW278622   2.061   2.107   4.762
58909SOL     OW78623   0.653   2.329   2.585
58909SOL    HW178624   0.597   2.355   2.511
58909SOL    HW278625   0.593   2.293   2.649
58910SOL     OW78626   6.934   0.557   4.864
58910SOL    HW178627   6.859   0.501   4.841
58910SOL    HW278628   6.923   0.636   4.811
58911SOL     OW78629   3.195  12.758   7.503
58911SOL    HW178630   3.168  12.789   7.589
58911SOL    HW278631   3.220  12.837   7.455
58912SOL     OW78632  10.589   0.130   4.141
58912SOL    HW178633  10.577   0.215   4.184
58912SOL    HW278634  10.683   0.124   4.125
58913SOL     OW78635   3.403   4.965  12.636
58913SOL    HW178636   3.443   5.052  12.642
58913SOL    HW278637   3.321   4.979  12.590
58914SOL     OW78638   8.991   1.570   4.127
58914SOL    HW178639   9.073   1.579   4.079
58914SOL    HW278640   8.951   1.491   4.091
58915SOL     OW78641   0.567   6.737   0.709
58915SOL    HW178642   0.473   6.736   0.691
58915SOL    HW278643   0.584   6.655   0.755
58916SOL     OW78644   4.223   3.893  10.887
58916SOL    HW178645   4.296   3.834  10.869
58916SOL    HW278646   4.155   3.838  10.925
58917SOL     OW78647  13.906  10.427   7.822
58917SOL    HW178648  13.846  10.501   7.813
58917SOL    HW278649  13.863  10.355   7.775
58918SOL     OW78650  11.004   1.514  12.153
58918SOL    HW178651  11.047   1.466  12.082
58918SOL    HW278652  11.066   1.583  12.177
58919SOL     OW78653   1.379   9.762   8.272
58919SOL    HW178654   1.310   9.735   8.333
58919SOL    HW278655   1.461   9.744   8.319
58920SOL     OW78656   8.877   6.027  12.108
58920SOL    HW178657   8.833   6.104  12.072
58920SOL    HW278658   8.925   5.989  12.034
58921SOL     OW78659   6.035   0.959  14.116
58921SOL    HW178660   5.975   1.033  14.106
58921SOL    HW278661   5.979   0.882  14.117
58922SOL     OW78662   1.681   9.364   1.269
58922SOL    HW178663   1.741   9.380   1.196
58922SOL    HW278664   1.608   9.425   1.255
58923SOL     OW78665   3.117   9.882   3.488
58923SOL    HW178666   3.118   9.902   3.395
58923SOL    HW278667   3.180   9.812   3.499
58924SOL     OW78668   4.688   4.529  11.599
58924SOL    HW178669   4.737   4.460  11.556
58924SOL    HW278670   4.671   4.496  11.687
58925SOL     OW78671   9.444  11.580   0.917
58925SOL    HW178672   9.397  11.514   0.968
58925SOL    HW278673   9.382  11.606   0.848
58926SOL     OW78674   3.919   4.521   4.514
58926SOL    HW178675   3.974   4.505   4.438
58926SOL    HW278676   3.831   4.535   4.479
58927SOL     OW78677  12.267  11.550   3.350
58927SOL    HW178678  12.348  11.600   3.342
58927SOL    HW278679  12.254  11.539   3.444
58928SOL     OW78680  12.018   6.409   4.056
58928SOL    HW178681  11.983   6.431   4.143
58928SOL    HW278682  12.055   6.491   4.025
58929SOL     OW78683   1.288   9.608  10.466
58929SOL    HW178684   1.215   9.549  10.447
58929SOL    HW278685   1.304   9.653  10.383
58930SOL     OW78686   0.874  12.715   1.714
58930SOL    HW178687   0.894  12.773   1.641
58930SOL    HW278688   0.938  12.738   1.781
58931SOL     OW78689   4.333   5.815   4.373
58931SOL    HW178690   4.365   5.790   4.460
58931SOL    HW278691   4.238   5.817   4.383
58932SOL     OW78692   9.389  12.957   0.023
58932SOL    HW178693   9.452  13.001   0.080
58932SOL    HW278694   9.442  12.927  14.828
58933SOL     OW78695  11.345  10.377  11.857
58933SOL    HW178696  11.267  10.433  11.863
58933SOL    HW278697  11.376  10.389  11.768
58934SOL     OW78698   1.308   7.563  13.833
58934SOL    HW178699   1.350   7.546  13.748
58934SOL    HW278700   1.259   7.644  13.819
58935SOL     OW78701  10.153   5.881   7.658
58935SOL    HW178702  10.106   5.811   7.612
58935SOL    HW278703  10.087   5.923   7.713
58936SOL     OW78704   3.423   9.307  11.282
58936SOL    HW178705   3.427   9.392  11.238
58936SOL    HW278706   3.343   9.266  11.249
58937SOL     OW78707  13.789   0.162   0.957
58937SOL    HW178708  13.858   0.190   0.898
58937SOL    HW278709  13.731   0.108   0.903
58938SOL     OW78710   5.368   0.184   3.171
58938SOL    HW178711   5.381   0.114   3.107
58938SOL    HW278712   5.443   0.177   3.230
58939SOL     OW78713  10.106   3.271   0.410
58939SOL    HW178714  10.103   3.327   0.332
58939SOL    HW278715  10.092   3.330   0.483
58940SOL     OW78716  13.495   4.498   6.070
58940SOL    HW178717  13.538   4.583   6.060
58940SOL    HW278718  13.526   4.447   5.996
58941SOL     OW78719   0.405   5.894   8.247
58941SOL    HW178720   0.347   5.831   8.204
58941SOL    HW278721   0.445   5.943   8.175
58942SOL     OW78722   5.738   6.552  14.788
58942SOL    HW178723   5.684   6.497  14.732
58942SOL    HW278724   5.723   6.518  14.877
58943SOL     OW78725  14.680  12.091   9.418
58943SOL    HW178726  14.767  12.053   9.412
58943SOL    HW278727  14.630  12.049   9.347
58944SOL     OW78728   3.253  13.521   1.189
58944SOL    HW178729   3.172  13.471   1.201
58944SOL    HW278730   3.318  13.455   1.167
58945SOL     OW78731   7.687   2.906   7.687
58945SOL    HW178732   7.762   2.947   7.645
58945SOL    HW278733   7.650   2.849   7.619
58946SOL     OW78734   7.949  13.788   7.699
58946SOL    HW178735   7.865  13.748   7.679
58946SOL    HW278736   7.990  13.729   7.762
58947SOL     OW78737  10.432   5.668   6.231
58947SOL    HW178738  10.458   5.681   6.139
58947SOL    HW278739  10.514   5.650   6.276
58948SOL     OW78740  11.114   7.269   0.259
58948SOL    HW178741  11.186   7.279   0.322
58948SOL    HW278742  11.126   7.341   0.198
58949SOL     OW78743   2.928   7.708   5.836
58949SOL    HW178744   2.992   7.686   5.903
58949SOL    HW278745   2.958   7.660   5.758
58950SOL     OW78746   4.035   9.141  10.493
58950SOL    HW178747   4.119   9.117  10.456
58950SOL    HW278748   4.056   9.172  10.581
58951SOL     OW78749   7.967   5.895   0.575
58951SOL    HW178750   8.037   5.831   0.589
58951SOL    HW278751   7.924   5.902   0.661
58952SOL     OW78752  10.547  11.616   0.810
58952SOL    HW178753  10.612  11.555   0.843
58952SOL    HW278754  10.590  11.661   0.738
58953SOL     OW78755  10.667  10.514   1.085
58953SOL    HW178756  10.699  10.424   1.092
58953SOL    HW278757  10.717  10.552   1.012
58954SOL     OW78758   1.531  12.291   4.092
58954SOL    HW178759   1.582  12.318   4.168
58954SOL    HW278760   1.485  12.212   4.120
58955SOL     OW78761  11.826  10.312  10.633
58955SOL    HW178762  11.811  10.310  10.538
58955SOL    HW278763  11.803  10.224  10.663
58956SOL     OW78764   3.645   6.529   9.334
58956SOL    HW178765   3.634   6.588   9.260
58956SOL    HW278766   3.713   6.570   9.388
58957SOL     OW78767  13.318   4.870   9.514
58957SOL    HW178768  13.227   4.840   9.518
58957SOL    HW278769  13.354   4.849   9.599
58958SOL     OW78770   8.331   4.876   2.085
58958SOL    HW178771   8.319   4.784   2.107
58958SOL    HW278772   8.397   4.876   2.016
58959SOL     OW78773  11.030   0.371   4.005
58959SOL    HW178774  10.969   0.311   3.963
58959SOL    HW278775  10.989   0.457   3.997
58960SOL     OW78776   1.981  14.580  12.969
58960SOL    HW178777   2.069  14.562  13.004
58960SOL    HW278778   1.928  14.507  13.002
58961SOL     OW78779   1.790   3.871  14.092
58961SOL    HW178780   1.748   3.788  14.113
58961SOL    HW278781   1.884   3.851  14.094
58962SOL     OW78782  10.727   0.935  14.252
58962SOL    HW178783  10.780   0.870  14.205
58962SOL    HW278784  10.716   1.007  14.189
58963SOL     OW78785  12.044   5.165  12.688
58963SOL    HW178786  11.989   5.217  12.629
58963SOL    HW278787  11.982   5.117  12.743
58964SOL     OW78788   0.537  13.212   6.682
58964SOL    HW178789   0.551  13.212   6.777
58964SOL    HW278790   0.511  13.302   6.662
58965SOL     OW78791  13.037   6.436  14.757
58965SOL    HW178792  13.127   6.466  14.765
58965SOL    HW278793  13.010   6.415  14.846
58966SOL     OW78794   0.133  10.875  14.035
58966SOL    HW178795   0.127  10.781  14.018
58966SOL    HW278796   0.181  10.910  13.960
58967SOL     OW78797   5.486  13.152   4.977
58967SOL    HW178798   5.393  13.159   4.996
58967SOL    HW278799   5.530  13.185   5.055
58968SOL     OW78800  12.908   1.073  10.843
58968SOL    HW178801  12.997   1.100  10.867
58968SOL    HW278802  12.883   1.132  10.772
58969SOL     OW78803   9.953  13.507  11.711
58969SOL    HW178804   9.962  13.493  11.617
58969SOL    HW278805   9.863  13.479  11.731
58970SOL     OW78806   5.805   6.335   2.699
58970SOL    HW178807   5.759   6.266   2.650
58970SOL    HW278808   5.791   6.414   2.647
58971SOL     OW78809   1.370  11.831   1.711
58971SOL    HW178810   1.351  11.775   1.636
58971SOL    HW278811   1.284  11.861   1.742
58972SOL     OW78812   0.416  11.774  12.575
58972SOL    HW178813   0.471  11.850  12.590
58972SOL    HW278814   0.328  11.809  12.562
58973SOL     OW78815   7.791   6.175  12.848
58973SOL    HW178816   7.731   6.103  12.868
58973SOL    HW278817   7.800   6.223  12.930
58974SOL     OW78818   6.823   8.760  10.117
58974SOL    HW178819   6.885   8.787  10.185
58974SOL    HW278820   6.737   8.786  10.152
58975SOL     OW78821   1.316   9.322  11.684
58975SOL    HW178822   1.378   9.395  11.684
58975SOL    HW278823   1.303   9.301  11.592
58976SOL     OW78824   3.374   6.041  13.285
58976SOL    HW178825   3.411   5.970  13.338
58976SOL    HW278826   3.319   5.997  13.220
58977SOL     OW78827  12.127   4.047   9.492
58977SOL    HW178828  12.127   3.979   9.425
58977SOL    HW278829  12.212   4.039   9.535
58978SOL     OW78830   6.858   0.327   3.991
58978SOL    HW178831   6.778   0.342   4.041
58978SOL    HW278832   6.910   0.268   4.045
58979SOL     OW78833   7.801  13.206   6.947
58979SOL    HW178834   7.709  13.179   6.944
58979SOL    HW278835   7.842  13.143   7.006
58980SOL     OW78836   9.297   8.859   2.134
58980SOL    HW178837   9.204   8.880   2.136
58980SOL    HW278838   9.303   8.777   2.085
58981SOL     OW78839   0.131  11.840   3.022
58981SOL    HW178840   0.098  11.930   3.022
58981SOL    HW278841   0.216  11.845   2.977
58982SOL     OW78842  11.023   8.323   7.220
58982SOL    HW178843  11.006   8.379   7.295
58982SOL    HW278844  11.111   8.346   7.191
58983SOL     OW78845  12.923   4.120  11.269
58983SOL    HW178846  12.851   4.074  11.312
58983SOL    HW278847  12.982   4.142  11.340
58984SOL     OW78848   0.438  11.395  14.079
58984SOL    HW178849   0.368  11.364  14.022
58984SOL    HW278850   0.402  11.386  14.168
58985SOL     OW78851  10.778   4.580   5.126
58985SOL    HW178852  10.783   4.500   5.073
58985SOL    HW278853  10.832   4.562   5.203
58986SOL     OW78854   8.453  12.530   9.816
58986SOL    HW178855   8.389  12.600   9.805
58986SOL    HW278856   8.403  12.449   9.807
58987SOL     OW78857   0.906  12.433  14.230
58987SOL    HW178858   0.907  12.413  14.137
58987SOL    HW278859   0.826  12.393  14.263
58988SOL     OW78860   5.487  13.065  14.621
58988SOL    HW178861   5.486  12.985  14.673
58988SOL    HW278862   5.398  13.101  14.631
58989SOL     OW78863  12.370   6.644  12.235
58989SOL    HW178864  12.361   6.729  12.191
58989SOL    HW278865  12.391   6.583  12.164
58990SOL     OW78866   6.768   8.696   2.315
58990SOL    HW178867   6.716   8.765   2.356
58990SOL    HW278868   6.835   8.673   2.380
58991SOL     OW78869   3.839   3.634   6.847
58991SOL    HW178870   3.870   3.637   6.938
58991SOL    HW278871   3.752   3.675   6.850
58992SOL     OW78872  13.892  14.185  10.376
58992SOL    HW178873  13.832  14.125  10.421
58992SOL    HW278874  13.879  14.166  10.283
58993SOL     OW78875   4.135   2.837   3.582
58993SOL    HW178876   4.058   2.883   3.613
58993SOL    HW278877   4.206   2.901   3.589
58994SOL     OW78878  10.336  10.110  14.111
58994SOL    HW178879  10.369  10.021  14.100
58994SOL    HW278880  10.244  10.105  14.086
58995SOL     OW78881   2.126   8.852   4.518
58995SOL    HW178882   2.103   8.861   4.426
58995SOL    HW278883   2.211   8.893   4.527
58996SOL     OW78884   5.583  14.009   0.266
58996SOL    HW178885   5.672  14.001   0.302
58996SOL    HW278886   5.596  14.038   0.176
58997SOL     OW78887   2.987   2.153  11.809
58997SOL    HW178888   2.942   2.086  11.860
58997SOL    HW278889   2.953   2.236  11.843
58998SOL     OW78890   5.634  10.775   5.881
58998SOL    HW178891   5.704  10.754   5.818
58998SOL    HW278892   5.656  10.863   5.913
58999SOL     OW78893   5.725   7.688   3.951
58999SOL    HW178894   5.661   7.726   4.011
58999SOL    HW278895   5.690   7.601   3.930
59000SOL     OW78896   8.740   9.944   5.340
59000SOL    HW178897   8.695   9.861   5.351
59000SOL    HW278898   8.824   9.920   5.300
59001SOL     OW78899  13.654  13.906   4.270
59001SOL    HW178900  13.672  14.000   4.265
59001SOL    HW278901  13.697  13.879   4.352
59002SOL     OW78902   1.503  11.258  14.729
59002SOL    HW178903   1.512  11.296  14.816
59002SOL    HW278904   1.466  11.171  14.744
59003SOL     OW78905  12.911  10.629   8.292
59003SOL    HW178906  12.986  10.574   8.270
59003SOL    HW278907  12.879  10.661   8.208
59004SOL     OW78908   5.063   0.407   2.241
59004SOL    HW178909   5.140   0.453   2.207
59004SOL    HW278910   4.992   0.431   2.180
59005SOL     OW78911  14.674   7.736   2.713
59005SOL    HW178912  14.679   7.685   2.632
59005SOL    HW278913  14.748   7.706   2.765
59006SOL     OW78914   9.158   0.664   5.183
59006SOL    HW178915   9.091   0.599   5.205
59006SOL    HW278916   9.110   0.739   5.150
59007SOL     OW78917   9.089   2.102  13.986
59007SOL    HW178918   9.153   2.121  14.054
59007SOL    HW278919   9.021   2.051  14.030
59008SOL     OW78920   0.701   7.673  13.588
59008SOL    HW178921   0.692   7.615  13.512
59008SOL    HW278922   0.612   7.706  13.603
59009SOL     OW78923  14.013   7.053  14.395
59009SOL    HW178924  13.994   7.137  14.354
59009SOL    HW278925  13.939   6.997  14.372
59010SOL     OW78926   3.187   6.349   2.771
59010SOL    HW178927   3.275   6.363   2.806
59010SOL    HW278928   3.152   6.437   2.760
59011SOL     OW78929  12.184   6.681   2.514
59011SOL    HW178930  12.093   6.708   2.502
59011SOL    HW278931  12.230   6.762   2.539
59012SOL     OW78932   2.093  13.129   6.503
59012SOL    HW178933   2.142  13.092   6.430
59012SOL    HW278934   2.077  13.220   6.478
59013SOL     OW78935   4.489  12.385  14.113
59013SOL    HW178936   4.478  12.433  14.195
59013SOL    HW278937   4.463  12.295  14.134
59014SOL     OW78938   5.520   2.670  13.643
59014SOL    HW178939   5.574   2.748  13.659
59014SOL    HW278940   5.530   2.617  13.722
59015SOL     OW78941   3.269   8.457   1.887
59015SOL    HW178942   3.236   8.399   1.956
59015SOL    HW278943   3.279   8.542   1.930
59016SOL     OW78944   7.451   1.171   9.004
59016SOL    HW178945   7.533   1.123   9.005
59016SOL    HW278946   7.383   1.104   9.012
59017SOL     OW78947   2.154  12.298   5.466
59017SOL    HW178948   2.101  12.370   5.431
59017SOL    HW278949   2.089  12.233   5.494
59018SOL     OW78950   2.675  12.457  10.451
59018SOL    HW178951   2.757  12.493  10.485
59018SOL    HW278952   2.701  12.375  10.410
59019SOL     OW78953   9.878   6.151   6.615
59019SOL    HW178954   9.850   6.164   6.524
59019SOL    HW278955   9.843   6.227   6.662
59020SOL     OW78956   0.979  14.777   5.457
59020SOL    HW178957   0.938  14.727   5.528
59020SOL    HW278958   0.977  14.868   5.488
59021SOL     OW78959   2.513   8.485   7.488
59021SOL    HW178960   2.432   8.531   7.512
59021SOL    HW278961   2.526   8.506   7.396
59022SOL     OW78962   9.202  13.225   6.090
59022SOL    HW178963   9.120  13.246   6.046
59022SOL    HW278964   9.236  13.148   6.043
59023SOL     OW78965  11.640   4.970  14.632
59023SOL    HW178966  11.708   4.970  14.699
59023SOL    HW278967  11.581   4.900  14.658
59024SOL     OW78968  10.219   6.973   4.399
59024SOL    HW178969  10.246   7.055   4.441
59024SOL    HW278970  10.124   6.972   4.409
59025SOL     OW78971   8.170  14.111   0.791
59025SOL    HW178972   8.200  14.104   0.881
59025SOL    HW278973   8.083  14.071   0.792
59026SOL     OW78974   5.422   6.049   3.339
59026SOL    HW178975   5.385   6.137   3.344
59026SOL    HW278976   5.395   6.007   3.421
59027SOL     OW78977  11.023   5.117   9.295
59027SOL    HW178978  11.000   5.198   9.250
59027SOL    HW278979  10.941   5.068   9.301
59028SOL     OW78980  10.488  14.179   8.279
59028SOL    HW178981  10.542  14.221   8.346
59028SOL    HW278982  10.519  14.089   8.277
59029SOL     OW78983   6.186   8.473   2.839
59029SOL    HW178984   6.151   8.496   2.753
59029SOL    HW278985   6.271   8.517   2.843
59030SOL     OW78986   8.625   7.256   3.430
59030SOL    HW178987   8.671   7.195   3.487
59030SOL    HW278988   8.532   7.236   3.442
59031SOL     OW78989  12.097   7.842   8.388
59031SOL    HW178990  12.090   7.880   8.476
59031SOL    HW278991  12.025   7.881   8.339
59032SOL     OW78992   0.901  11.426   2.633
59032SOL    HW178993   0.934  11.505   2.676
59032SOL    HW278994   0.898  11.361   2.703
59033SOL     OW78995   9.267  14.519  12.280
59033SOL    HW178996   9.213  14.509  12.202
59033SOL    HW278997   9.237  14.450  12.339
59034SOL     OW78998   9.124   3.456   9.001
59034SOL    HW178999   9.142   3.420   9.088
59034SOL    HW279000   9.036   3.425   8.980
59035SOL     OW79001  14.043  13.809  11.022
59035SOL    HW179002  14.079  13.745  11.084
59035SOL    HW279003  14.059  13.771  10.936
59036SOL     OW79004  13.616   1.970  13.756
59036SOL    HW179005  13.653   2.032  13.819
59036SOL    HW279006  13.671   1.977  13.679
59037SOL     OW79007   0.336   1.295   1.322
59037SOL    HW179008   0.251   1.319   1.286
59037SOL    HW279009   0.372   1.378   1.355
59038SOL     OW79010   9.788   0.738   2.196
59038SOL    HW179011   9.783   0.643   2.199
59038SOL    HW279012   9.704   0.765   2.158
59039SOL     OW79013   4.394   1.506   2.370
59039SOL    HW179014   4.447   1.475   2.444
59039SOL    HW279015   4.381   1.427   2.317
59040SOL     OW79016   5.968  14.120  13.264
59040SOL    HW179017   5.928  14.035  13.246
59040SOL    HW279018   6.007  14.110  13.351
59041SOL     OW79019  10.266  14.851   4.618
59041SOL    HW179020  10.196   0.003   4.675
59041SOL    HW279021  10.227  14.777   4.572
59042SOL     OW79022   2.633  12.438   9.365
59042SOL    HW179023   2.664  12.529   9.370
59042SOL    HW279024   2.540  12.444   9.386
59043SOL     OW79025  12.769   5.579   7.775
59043SOL    HW179026  12.690   5.597   7.826
59043SOL    HW279027  12.766   5.641   7.703
59044SOL     OW79028  14.289  14.711   2.141
59044SOL    HW179029  14.367  14.745   2.098
59044SOL    HW279030  14.241  14.666   2.072
59045SOL     OW79031   0.226   0.253  10.540
59045SOL    HW179032   0.288   0.215  10.603
59045SOL    HW279033   0.170   0.179  10.515
59046SOL     OW79034   5.832   6.537  10.575
59046SOL    HW179035   5.833   6.469  10.643
59046SOL    HW279036   5.740   6.550  10.555
59047SOL     OW79037   7.031   5.149   9.911
59047SOL    HW179038   7.100   5.212   9.932
59047SOL    HW279039   7.078   5.067   9.896
59048SOL     OW79040  14.619   3.092  13.415
59048SOL    HW179041  14.551   3.083  13.481
59048SOL    HW279042  14.686   3.027  13.440
59049SOL     OW79043   6.830   5.659   3.759
59049SOL    HW179044   6.805   5.751   3.765
59049SOL    HW279045   6.809   5.635   3.668
59050SOL     OW79046   1.839   0.635   4.517
59050SOL    HW179047   1.793   0.564   4.561
59050SOL    HW279048   1.850   0.701   4.585
59051SOL     OW79049   8.155   7.260  12.939
59051SOL    HW179050   8.229   7.239  12.997
59051SOL    HW279051   8.078   7.249  12.994
59052SOL     OW79052   3.322  12.874   7.016
59052SOL    HW179053   3.336  12.889   6.922
59052SOL    HW279054   3.402  12.906   7.058
59053SOL     OW79055  13.713  14.317   6.784
59053SOL    HW179056  13.808  14.329   6.778
59053SOL    HW279057  13.701  14.222   6.787
59054SOL     OW79058   6.789   8.387  12.479
59054SOL    HW179059   6.794   8.472  12.436
59054SOL    HW279060   6.874   8.376  12.521
59055SOL     OW79061   6.613  12.467  11.120
59055SOL    HW179062   6.529  12.492  11.158
59055SOL    HW279063   6.660  12.424  11.191
59056SOL     OW79064  13.738   5.882   4.968
59056SOL    HW179065  13.805   5.940   4.931
59056SOL    HW279066  13.787   5.806   4.999
59057SOL     OW79067   7.629   6.212   4.586
59057SOL    HW179068   7.663   6.123   4.579
59057SOL    HW279069   7.585   6.227   4.502
59058SOL     OW79070  13.989   0.287   6.123
59058SOL    HW179071  13.987   0.199   6.160
59058SOL    HW279072  14.039   0.277   6.042
59059SOL     OW79073   7.734   3.127   4.328
59059SOL    HW179074   7.684   3.183   4.268
59059SOL    HW279075   7.733   3.041   4.287
59060SOL     OW79076  11.211   3.191  13.488
59060SOL    HW179077  11.206   3.109  13.438
59060SOL    HW279078  11.149   3.178  13.560
59061SOL     OW79079   0.418  13.910  13.416
59061SOL    HW179080   0.432  13.877  13.327
59061SOL    HW279081   0.506  13.929  13.448
59062SOL     OW79082   0.973   1.850  13.610
59062SOL    HW179083   1.064   1.842  13.584
59062SOL    HW279084   0.974   1.909  13.686
59063SOL     OW79085  12.107  13.675  10.809
59063SOL    HW179086  12.103  13.746  10.872
59063SOL    HW279087  12.143  13.601  10.858
59064SOL     OW79088   8.361   8.958  11.051
59064SOL    HW179089   8.352   8.873  11.095
59064SOL    HW279090   8.452   8.959  11.021
59065SOL     OW79091   5.281  14.577   8.146
59065SOL    HW179092   5.271  14.635   8.222
59065SOL    HW279093   5.207  14.516   8.152
59066SOL     OW79094   0.579  11.070   3.801
59066SOL    HW179095   0.485  11.050   3.806
59066SOL    HW279096   0.601  11.103   3.888
59067SOL     OW79097   1.118  13.134   3.431
59067SOL    HW179098   1.096  13.197   3.499
59067SOL    HW279099   1.115  13.184   3.349
59068SOL     OW79100   0.377   3.962   7.736
59068SOL    HW179101   0.433   3.972   7.813
59068SOL    HW279102   0.417   4.018   7.669
59069SOL     OW79103  11.309  14.377   4.716
59069SOL    HW179104  11.394  14.399   4.678
59069SOL    HW279105  11.326  14.302   4.774
59070SOL     OW79106   3.149   2.604   4.313
59070SOL    HW179107   3.065   2.560   4.326
59070SOL    HW279108   3.208   2.563   4.376
59071SOL     OW79109   7.629  13.657   1.480
59071SOL    HW179110   7.582  13.725   1.431
59071SOL    HW279111   7.664  13.599   1.412
59072SOL     OW79112   7.551   3.427   1.276
59072SOL    HW179113   7.561   3.438   1.181
59072SOL    HW279114   7.609   3.494   1.313
59073SOL     OW79115   7.483   2.566   9.542
59073SOL    HW179116   7.461   2.529   9.628
59073SOL    HW279117   7.485   2.660   9.556
59074SOL     OW79118   0.707  14.552  11.706
59074SOL    HW179119   0.757  14.579  11.629
59074SOL    HW279120   0.744  14.467  11.730
59075SOL     OW79121   9.695   2.498   8.058
59075SOL    HW179122   9.756   2.441   8.012
59075SOL    HW279123   9.717   2.586   8.027
59076SOL     OW79124  12.801   5.847   4.738
59076SOL    HW179125  12.815   5.818   4.648
59076SOL    HW279126  12.840   5.934   4.742
59077SOL     OW79127  13.949   6.459  14.193
59077SOL    HW179128  13.854   6.469  14.204
59077SOL    HW279129  13.982   6.549  14.193
59078SOL     OW79130   0.032   0.465  12.556
59078SOL    HW179131   0.014   0.450  12.648
59078SOL    HW279132   0.093   0.395  12.532
59079SOL     OW79133  13.718   1.513   9.078
59079SOL    HW179134  13.699   1.437   9.133
59079SOL    HW279135  13.679   1.491   8.993
59080SOL     OW79136   3.904   4.542  13.987
59080SOL    HW179137   3.891   4.573  14.076
59080SOL    HW279138   3.992   4.505  13.987
59081SOL     OW79139   6.994  10.324   9.004
59081SOL    HW179140   6.959  10.263   9.070
59081SOL    HW279141   7.064  10.275   8.962
59082SOL     OW79142   2.322   0.261   0.069
59082SOL    HW179143   2.236   0.225   0.090
59082SOL    HW279144   2.352   0.301   0.150
59083SOL     OW79145   0.840   9.816  12.319
59083SOL    HW179146   0.883   9.901  12.307
59083SOL    HW279147   0.777   9.811  12.247
59084SOL     OW79148   7.629   7.753   3.288
59084SOL    HW179149   7.606   7.714   3.373
59084SOL    HW279150   7.547   7.752   3.239
59085SOL     OW79151   7.516   9.681   4.499
59085SOL    HW179152   7.440   9.670   4.442
59085SOL    HW279153   7.517   9.603   4.555
59086SOL     OW79154   1.373   5.360   3.054
59086SOL    HW179155   1.367   5.441   3.003
59086SOL    HW279156   1.301   5.306   3.021
59087SOL     OW79157  12.794  13.400   2.886
59087SOL    HW179158  12.708  13.420   2.923
59087SOL    HW279159  12.786  13.310   2.854
59088SOL     OW79160  12.311   9.788  11.207
59088SOL    HW179161  12.302   9.868  11.259
59088SOL    HW279162  12.247   9.728  11.244
59089SOL     OW79163   5.139  11.621   5.607
59089SOL    HW179164   5.148  11.528   5.627
59089SOL    HW279165   5.048  11.643   5.628
59090SOL     OW79166  11.646   8.427   7.759
59090SOL    HW179167  11.712   8.492   7.737
59090SOL    HW279168  11.627   8.384   7.676
59091SOL     OW79169   3.236  13.543   9.728
59091SOL    HW179170   3.152  13.559   9.772
59091SOL    HW279171   3.284  13.486   9.789
59092SOL     OW79172  10.766   1.975   2.400
59092SOL    HW179173  10.836   1.954   2.461
59092SOL    HW279174  10.698   2.017   2.453
59093SOL     OW79175  13.039  10.144   2.244
59093SOL    HW179176  13.133  10.142   2.260
59093SOL    HW279177  13.030  10.180   2.156
59094SOL     OW79178  11.249  10.406  13.091
59094SOL    HW179179  11.192  10.443  13.024
59094SOL    HW279180  11.278  10.481  13.143
59095SOL     OW79181  12.882   7.856  12.985
59095SOL    HW179182  12.875   7.796  12.911
59095SOL    HW279183  12.792   7.881  13.005
59096SOL     OW79184   9.500  13.500  11.352
59096SOL    HW179185   9.594  13.505  11.368
59096SOL    HW279186   9.477  13.586  11.316
59097SOL     OW79187   8.860   0.231   4.579
59097SOL    HW179188   8.904   0.222   4.495
59097SOL    HW279189   8.918   0.188   4.641
59098SOL     OW79190   3.319  14.195  14.328
59098SOL    HW179191   3.270  14.115  14.308
59098SOL    HW279192   3.354  14.180  14.416
59099SOL     OW79193   0.648   7.318   6.627
59099SOL    HW179194   0.587   7.338   6.556
59099SOL    HW279195   0.654   7.400   6.677
59100SOL     OW79196   0.937   2.626   6.573
59100SOL    HW179197   0.987   2.670   6.505
59100SOL    HW279198   0.895   2.552   6.529
59101SOL     OW79199   9.220  10.895  14.815
59101SOL    HW179200   9.175  10.957  14.873
59101SOL    HW279201   9.187  10.809  14.842
59102SOL     OW79202  11.391   1.505   7.978
59102SOL    HW179203  11.379   1.481   8.069
59102SOL    HW279204  11.479   1.475   7.957
59103SOL     OW79205   9.233   3.009   6.816
59103SOL    HW179206   9.164   3.067   6.847
59103SOL    HW279207   9.206   2.922   6.844
59104SOL     OW79208   5.132   0.086   4.179
59104SOL    HW179209   5.187   0.120   4.108
59104SOL    HW279210   5.185   0.018   4.220
59105SOL     OW79211   3.107   4.058  13.296
59105SOL    HW179212   3.038   4.118  13.267
59105SOL    HW279213   3.180   4.116  13.321
59106SOL     OW79214   0.275   3.493   7.373
59106SOL    HW179215   0.341   3.468   7.437
59106SOL    HW279216   0.191   3.473   7.415
59107SOL     OW79217   1.657   5.037   8.896
59107SOL    HW179218   1.572   4.994   8.890
59107SOL    HW279219   1.675   5.065   8.806
59108SOL     OW79220   3.672   2.769   4.975
59108SOL    HW179221   3.618   2.791   4.899
59108SOL    HW279222   3.610   2.758   5.046
59109SOL     OW79223   0.324  12.572   2.752
59109SOL    HW179224   0.392  12.596   2.814
59109SOL    HW279225   0.256  12.637   2.764
59110SOL     OW79226  11.195  10.548   1.881
59110SOL    HW179227  11.178  10.545   1.975
59110SOL    HW279228  11.291  10.548   1.875
59111SOL     OW79229   8.687  13.950  12.722
59111SOL    HW179230   8.689  13.855  12.721
59111SOL    HW279231   8.595  13.972  12.739
59112SOL     OW79232   3.889  12.387   5.860
59112SOL    HW179233   3.877  12.382   5.955
59112SOL    HW279234   3.908  12.479   5.843
59113SOL     OW79235  14.287   8.121  10.606
59113SOL    HW179236  14.318   8.185  10.543
59113SOL    HW279237  14.305   8.161  10.691
59114SOL     OW79238   0.141   0.465   1.395
59114SOL    HW179239   0.163   0.433   1.307
59114SOL    HW279240   0.163   0.558   1.392
59115SOL     OW79241  14.517   0.803   4.123
59115SOL    HW179242  14.522   0.897   4.144
59115SOL    HW279243  14.483   0.801   4.033
59116SOL     OW79244   0.697   1.040   4.546
59116SOL    HW179245   0.774   1.049   4.490
59116SOL    HW279246   0.729   1.060   4.634
59117SOL     OW79247   7.559  14.407   1.090
59117SOL    HW179248   7.535  14.484   1.039
59117SOL    HW279249   7.477  14.358   1.100
59118SOL     OW79250   2.888   7.614   0.452
59118SOL    HW179251   2.874   7.562   0.373
59118SOL    HW279252   2.860   7.703   0.428
59119SOL     OW79253   2.169   0.524   7.367
59119SOL    HW179254   2.180   0.457   7.300
59119SOL    HW279255   2.085   0.564   7.346
59120SOL     OW79256   0.717  11.069   6.355
59120SOL    HW179257   0.679  10.999   6.302
59120SOL    HW279258   0.808  11.043   6.367
59121SOL     OW79259   6.994   3.699   6.609
59121SOL    HW179260   7.073   3.652   6.584
59121SOL    HW279261   7.026   3.778   6.652
59122SOL     OW79262   5.889   4.908   1.573
59122SOL    HW179263   5.799   4.898   1.607
59122SOL    HW279264   5.940   4.847   1.626
59123SOL     OW79265   7.726   6.648   9.372
59123SOL    HW179266   7.820   6.645   9.357
59123SOL    HW279267   7.688   6.677   9.289
59124SOL     OW79268  14.716   9.145  11.050
59124SOL    HW179269  14.795   9.192  11.079
59124SOL    HW279270  14.733   9.054  11.073
59125SOL     OW79271   9.130   5.978   1.661
59125SOL    HW179272   9.219   6.012   1.670
59125SOL    HW279273   9.090   6.031   1.592
59126SOL     OW79274   2.067   9.969   0.288
59126SOL    HW179275   2.084   9.928   0.373
59126SOL    HW279276   1.981  10.010   0.298
59127SOL     OW79277   7.181   2.510   2.122
59127SOL    HW179278   7.155   2.419   2.113
59127SOL    HW279279   7.251   2.522   2.059
59128SOL     OW79280   6.196  13.402   2.630
59128SOL    HW179281   6.129  13.466   2.604
59128SOL    HW279282   6.179  13.387   2.723
59129SOL     OW79283   8.224   0.422  12.298
59129SOL    HW179284   8.195   0.369  12.223
59129SOL    HW279285   8.319   0.429  12.286
59130SOL     OW79286  13.909   2.289   2.050
59130SOL    HW179287  13.817   2.263   2.062
59130SOL    HW279288  13.904   2.368   1.996
59131SOL     OW79289  10.207   6.937  13.267
59131SOL    HW179290  10.245   6.995  13.201
59131SOL    HW279291  10.225   6.848  13.234
59132SOL     OW79292   8.115   6.942  14.298
59132SOL    HW179293   8.154   6.969  14.214
59132SOL    HW279294   8.110   6.847  14.292
59133SOL     OW79295   5.562  11.747   0.188
59133SOL    HW179296   5.633  11.725   0.128
59133SOL    HW279297   5.488  11.769   0.131
59134SOL     OW79298  12.178   1.333   4.898
59134SOL    HW179299  12.208   1.259   4.951
59134SOL    HW279300  12.085   1.340   4.917
59135SOL     OW79301   2.107   0.648  10.295
59135SOL    HW179302   2.110   0.571  10.352
59135SOL    HW279303   2.039   0.704  10.333
59136SOL     OW79304   3.523   6.111   3.175
59136SOL    HW179305   3.570   6.085   3.255
59136SOL    HW279306   3.583   6.171   3.131
59137SOL     OW79307  10.225  13.923   7.371
59137SOL    HW179308  10.146  13.952   7.417
59137SOL    HW279309  10.295  13.976   7.409
59138SOL     OW79310  13.766   7.578  13.595
59138SOL    HW179311  13.695   7.606  13.537
59138SOL    HW279312  13.752   7.628  13.675
59139SOL     OW79313  12.437   6.629  12.637
59139SOL    HW179314  12.397   6.688  12.574
59139SOL    HW279315  12.529   6.624  12.610
59140SOL     OW79316   2.793   4.737  14.841
59140SOL    HW179317   2.786   4.695   0.047
59140SOL    HW279318   2.729   4.692  14.787
59141SOL     OW79319  14.546   6.966   3.303
59141SOL    HW179320  14.539   7.053   3.263
59141SOL    HW279321  14.497   6.909   3.245
59142SOL     OW79322   3.164   2.559   3.145
59142SOL    HW179323   3.106   2.492   3.108
59142SOL    HW279324   3.149   2.554   3.239
59143SOL     OW79325   2.488   8.963  14.479
59143SOL    HW179326   2.429   9.021  14.430
59143SOL    HW279327   2.479   8.991  14.570
59144SOL     OW79328   2.416   5.833   6.326
59144SOL    HW179329   2.429   5.750   6.373
59144SOL    HW279330   2.354   5.810   6.256
59145SOL     OW79331   9.148   3.242  13.011
59145SOL    HW179332   9.080   3.195  13.059
59145SOL    HW279333   9.226   3.234  13.065
59146SOL     OW79334  13.704   3.589   2.438
59146SOL    HW179335  13.731   3.630   2.356
59146SOL    HW279336  13.766   3.518   2.452
59147SOL     OW79337  11.218  14.596   3.112
59147SOL    HW179338  11.278  14.624   3.182
59147SOL    HW279339  11.189  14.677   3.071
59148SOL     OW79340   8.169  11.326   5.290
59148SOL    HW179341   8.121  11.343   5.209
59148SOL    HW279342   8.169  11.410   5.336
59149SOL     OW79343   1.473   7.523   7.782
59149SOL    HW179344   1.513   7.510   7.868
59149SOL    HW279345   1.430   7.440   7.762
59150SOL     OW79346   5.793  13.691   7.986
59150SOL    HW179347   5.715  13.706   8.040
59150SOL    HW279348   5.829  13.609   8.019
59151SOL     OW79349   3.018   0.541   7.883
59151SOL    HW179350   3.048   0.543   7.974
59151SOL    HW279351   3.061   0.617   7.843
59152SOL     OW79352  11.321   6.052   0.246
59152SOL    HW179353  11.402   6.029   0.200
59152SOL    HW279354  11.348   6.061   0.337
59153SOL     OW79355   3.438   4.947   7.832
59153SOL    HW179356   3.429   4.968   7.739
59153SOL    HW279357   3.429   4.851   7.835
59154SOL     OW79358   3.913   7.344   3.349
59154SOL    HW179359   3.852   7.277   3.380
59154SOL    HW279360   3.978   7.296   3.298
59155SOL     OW79361   2.511   8.020   7.542
59155SOL    HW179362   2.496   7.926   7.536
59155SOL    HW279363   2.423   8.058   7.542
59156SOL     OW79364   2.641  14.787  14.032
59156SOL    HW179365   2.574  14.810  14.096
59156SOL    HW279366   2.611  14.829  13.951
59157SOL     OW79367   5.057  11.817  10.402
59157SOL    HW179368   5.108  11.862  10.335
59157SOL    HW279369   5.052  11.727  10.373
59158SOL     OW79370   6.988   4.599   2.812
59158SOL    HW179371   6.906   4.602   2.764
59158SOL    HW279372   7.012   4.690   2.824
59159SOL     OW79373   0.288   2.510  13.113
59159SOL    HW179374   0.310   2.543  13.027
59159SOL    HW279375   0.248   2.584  13.158
59160SOL     OW79376  11.043   9.943   7.768
59160SOL    HW179377  11.006  10.030   7.753
59160SOL    HW279378  11.100   9.955   7.844
59161SOL     OW79379   3.530   1.795   2.866
59161SOL    HW179380   3.614   1.751   2.857
59161SOL    HW279381   3.509   1.826   2.778
59162SOL     OW79382  11.537   8.001  12.961
59162SOL    HW179383  11.541   8.081  12.908
59162SOL    HW279384  11.625   7.963  12.953
59163SOL     OW79385   7.280   9.608   9.015
59163SOL    HW179386   7.357   9.551   9.009
59163SOL    HW279387   7.206   9.551   8.993
59164SOL     OW79388  11.788   3.342   5.808
59164SOL    HW179389  11.732   3.281   5.856
59164SOL    HW279390  11.777   3.426   5.853
59165SOL     OW79391  14.084   4.811   2.718
59165SOL    HW179392  14.075   4.740   2.782
59165SOL    HW279393  14.006   4.864   2.731
59166SOL     OW79394   0.046   6.427   7.591
59166SOL    HW179395  14.852   6.398   7.537
59166SOL    HW279396   0.033   6.521   7.602
59167SOL     OW79397   7.497   9.215  11.308
59167SOL    HW179398   7.528   9.128  11.334
59167SOL    HW279399   7.547   9.235  11.228
59168SOL     OW79400  14.367   8.113  12.923
59168SOL    HW179401  14.327   8.174  12.984
59168SOL    HW279402  14.451   8.153  12.901
59169SOL     OW79403   8.876   1.249   8.426
59169SOL    HW179404   8.889   1.158   8.453
59169SOL    HW279405   8.866   1.297   8.508
59170SOL     OW79406  12.805  11.832   4.839
59170SOL    HW179407  12.888  11.860   4.800
59170SOL    HW279408  12.794  11.890   4.915
59171SOL     OW79409  10.390   7.282  14.426
59171SOL    HW179410  10.376   7.242  14.340
59171SOL    HW279411  10.331   7.357  14.427
59172SOL     OW79412   9.935   4.703   8.326
59172SOL    HW179413   9.859   4.748   8.363
59172SOL    HW279414   9.986   4.772   8.285
59173SOL     OW79415  11.888   3.879   1.612
59173SOL    HW179416  11.928   3.843   1.691
59173SOL    HW279417  11.820   3.816   1.590
59174SOL     OW79418  10.865   1.886   4.414
59174SOL    HW179419  10.849   1.961   4.471
59174SOL    HW279420  10.880   1.813   4.475
59175SOL     OW79421  11.566  14.028   7.835
59175SOL    HW179422  11.532  13.990   7.917
59175SOL    HW279423  11.621  13.959   7.798
59176SOL     OW79424  11.421  14.063   7.359
59176SOL    HW179425  11.516  14.073   7.372
59176SOL    HW279426  11.413  14.009   7.281
59177SOL     OW79427  14.128   1.956   5.928
59177SOL    HW179428  14.223   1.946   5.939
59177SOL    HW279429  14.111   1.925   5.839
59178SOL     OW79430   3.578  12.650  13.777
59178SOL    HW179431   3.581  12.740  13.811
59178SOL    HW279432   3.484  12.631  13.771
59179SOL     OW79433   0.578   3.559   1.327
59179SOL    HW179434   0.498   3.525   1.366
59179SOL    HW279435   0.563   3.552   1.232
59180SOL     OW79436   2.780  11.770   0.906
59180SOL    HW179437   2.707  11.711   0.885
59180SOL    HW279438   2.841  11.716   0.956
59181SOL     OW79439  13.502  13.595  13.930
59181SOL    HW179440  13.563  13.650  13.882
59181SOL    HW279441  13.525  13.505  13.904
59182SOL     OW79442   4.002   8.491  12.867
59182SOL    HW179443   3.981   8.577  12.902
59182SOL    HW279444   4.019   8.437  12.944
59183SOL     OW79445  11.140   1.829   1.671
59183SOL    HW179446  11.206   1.828   1.601
59183SOL    HW279447  11.118   1.737   1.685
59184SOL     OW79448  12.270   9.182  10.072
59184SOL    HW179449  12.304   9.100  10.036
59184SOL    HW279450  12.346   9.227  10.107
59185SOL     OW79451  11.688   8.335  14.647
59185SOL    HW179452  11.766   8.335  14.590
59185SOL    HW279453  11.656   8.425  14.643
59186SOL     OW79454   6.043   2.694   5.337
59186SOL    HW179455   6.049   2.711   5.243
59186SOL    HW279456   6.002   2.772   5.373
59187SOL     OW79457   6.775  12.340  12.963
59187SOL    HW179458   6.771  12.428  13.001
59187SOL    HW279459   6.693  12.299  12.989
59188SOL     OW79460   0.351   4.546  10.539
59188SOL    HW179461   0.400   4.619  10.579
59188SOL    HW279462   0.305   4.506  10.613
59189SOL     OW79463   8.031   8.986   2.793
59189SOL    HW179464   8.008   9.005   2.702
59189SOL    HW279465   8.103   9.046   2.813
59190SOL     OW79466  10.435   9.216  11.286
59190SOL    HW179467  10.427   9.161  11.363
59190SOL    HW279468  10.454   9.155  11.215
59191SOL     OW79469  14.115  11.988  13.340
59191SOL    HW179470  14.113  11.950  13.428
59191SOL    HW279471  14.135  12.080  13.355
59192SOL     OW79472  11.587  14.002   2.844
59192SOL    HW179473  11.614  14.071   2.783
59192SOL    HW279474  11.670  13.963   2.874
59193SOL     OW79475   7.935   2.529   4.115
59193SOL    HW179476   7.988   2.565   4.186
59193SOL    HW279477   7.847   2.564   4.131
59194SOL     OW79478  11.526  10.418   7.498
59194SOL    HW179479  11.507  10.497   7.548
59194SOL    HW279480  11.483  10.347   7.546
59195SOL     OW79481   8.437   1.074  11.303
59195SOL    HW179482   8.359   1.032  11.268
59195SOL    HW279483   8.451   1.150  11.246
59196SOL     OW79484  11.138  13.124  14.070
59196SOL    HW179485  11.072  13.160  14.129
59196SOL    HW279486  11.098  13.129  13.983
59197SOL     OW79487   6.701  11.092   8.319
59197SOL    HW179488   6.643  11.165   8.344
59197SOL    HW279489   6.772  11.135   8.270
59198SOL     OW79490   7.170   9.707  13.710
59198SOL    HW179491   7.086   9.727  13.668
59198SOL    HW279492   7.174   9.612  13.712
59199SOL     OW79493  12.444  14.514   3.169
59199SOL    HW179494  12.405  14.427   3.160
59199SOL    HW279495  12.484  14.531   3.084
59200SOL     OW79496   8.030   6.061  13.269
59200SOL    HW179497   8.067   5.974  13.280
59200SOL    HW279498   8.105   6.120  13.281
59201SOL     OW79499   6.394   6.964   0.799
59201SOL    HW179500   6.476   7.012   0.791
59201SOL    HW279501   6.368   6.944   0.709
59202SOL     OW79502   7.203   0.174   0.559
59202SOL    HW179503   7.122   0.223   0.550
59202SOL    HW279504   7.250   0.218   0.630
59203SOL     OW79505   8.115   2.068  10.380
59203SOL    HW179506   8.166   2.114  10.313
59203SOL    HW279507   8.138   1.976  10.369
59204SOL     OW79508  13.765   8.367  11.127
59204SOL    HW179509  13.704   8.324  11.186
59204SOL    HW279510  13.728   8.354  11.040
59205SOL     OW79511   3.691   8.766   0.648
59205SOL    HW179512   3.689   8.807   0.735
59205SOL    HW279513   3.778   8.786   0.614
59206SOL     OW79514   6.486   9.781   0.026
59206SOL    HW179515   6.411   9.726   0.047
59206SOL    HW279516   6.448   9.861  14.870
59207SOL     OW79517   0.375   1.945   4.787
59207SOL    HW179518   0.374   2.014   4.720
59207SOL    HW279519   0.331   1.983   4.862
59208SOL     OW79520   6.568   0.227   0.188
59208SOL    HW179521   6.500   0.275   0.140
59208SOL    HW279522   6.629   0.294   0.218
59209SOL     OW79523  10.021  11.622   4.495
59209SOL    HW179524  10.103  11.630   4.445
59209SOL    HW279525   9.967  11.695   4.464
59210SOL     OW79526  11.478  12.998   0.717
59210SOL    HW179527  11.468  12.912   0.677
59210SOL    HW279528  11.522  13.051   0.650
59211SOL     OW79529   1.033   4.400   6.054
59211SOL    HW179530   1.025   4.485   6.011
59211SOL    HW279531   1.088   4.416   6.130
59212SOL     OW79532  11.552   3.276   7.334
59212SOL    HW179533  11.463   3.293   7.303
59212SOL    HW279534  11.570   3.185   7.311
59213SOL     OW79535   2.944  14.868   2.862
59213SOL    HW179536   2.862  14.838   2.901
59213SOL    HW279537   3.008  14.860   2.933
59214SOL     OW79538   6.893   1.221   9.534
59214SOL    HW179539   6.809   1.244   9.495
59214SOL    HW279540   6.905   1.286   9.604
59215SOL     OW79541   6.534   1.373  14.416
59215SOL    HW179542   6.487   1.305  14.370
59215SOL    HW279543   6.589   1.414  14.349
59216SOL     OW79544   6.426  13.996  12.169
59216SOL    HW179545   6.354  13.964  12.114
59216SOL    HW279546   6.494  14.021  12.107
59217SOL     OW79547   9.046   5.131   7.475
59217SOL    HW179548   8.991   5.179   7.537
59217SOL    HW279549   9.092   5.066   7.529
59218SOL     OW79550   4.064  13.701   5.427
59218SOL    HW179551   4.145  13.741   5.460
59218SOL    HW279552   4.087  13.609   5.415
59219SOL     OW79553   5.841   2.227   3.514
59219SOL    HW179554   5.814   2.154   3.570
59219SOL    HW279555   5.844   2.303   3.572
59220SOL     OW79556  10.336  12.907  11.706
59220SOL    HW179557  10.409  12.877  11.760
59220SOL    HW279558  10.376  12.928  11.622
59221SOL     OW79559  13.305  10.247   8.244
59221SOL    HW179560  13.272  10.177   8.187
59221SOL    HW279561  13.275  10.221   8.332
59222SOL     OW79562   5.225   1.914  10.885
59222SOL    HW179563   5.207   1.946  10.796
59222SOL    HW279564   5.185   1.980  10.942
59223SOL     OW79565  10.549   5.236   0.639
59223SOL    HW179566  10.636   5.198   0.621
59223SOL    HW279567  10.564   5.297   0.711
59224SOL     OW79568   1.104  10.118   5.281
59224SOL    HW179569   1.131  10.152   5.196
59224SOL    HW279570   1.112  10.193   5.340
59225SOL     OW79571  14.858   9.882  11.423
59225SOL    HW179572   0.012   9.940  11.355
59225SOL    HW279573   0.018   9.797  11.404
59226SOL     OW79574  13.944   9.685   4.910
59226SOL    HW179575  13.961   9.614   4.972
59226SOL    HW279576  13.940   9.643   4.824
59227SOL     OW79577   1.587   8.211   3.986
59227SOL    HW179578   1.533   8.132   3.992
59227SOL    HW279579   1.677   8.178   3.992
59228SOL     OW79580   6.331   6.384   6.095
59228SOL    HW179581   6.404   6.405   6.036
59228SOL    HW279582   6.277   6.463   6.095
59229SOL     OW79583   0.610   8.220   8.070
59229SOL    HW179584   0.560   8.143   8.095
59229SOL    HW279585   0.684   8.186   8.019
59230SOL     OW79586   3.083  14.839   8.533
59230SOL    HW179587   3.084  14.778   8.607
59230SOL    HW279588   2.996   0.001   8.537
59231SOL     OW79589   6.725   0.649   0.957
59231SOL    HW179590   6.678   0.686   1.032
59231SOL    HW279591   6.812   0.630   0.991
59232SOL     OW79592   9.825   8.278  14.788
59232SOL    HW179593   9.869   8.324  14.859
59232SOL    HW279594   9.755   8.337  14.760
59233SOL     OW79595   5.868   7.114   2.250
59233SOL    HW179596   5.890   7.207   2.261
59233SOL    HW279597   5.926   7.069   2.311
59234SOL     OW79598   8.868  14.385   5.654
59234SOL    HW179599   8.920  14.319   5.608
59234SOL    HW279600   8.898  14.379   5.745
59235SOL     OW79601   7.920   3.280   8.796
59235SOL    HW179602   7.924   3.305   8.888
59235SOL    HW279603   7.899   3.186   8.798
59236SOL     OW79604   3.933   3.097  14.616
59236SOL    HW179605   3.848   3.055  14.627
59236SOL    HW279606   3.954   3.132  14.702
59237SOL     OW79607   2.068   3.817   7.928
59237SOL    HW179608   2.163   3.804   7.933
59237SOL    HW279609   2.049   3.824   7.835
59238SOL     OW79610   7.871   0.962  11.698
59238SOL    HW179611   7.952   0.941  11.651
59238SOL    HW279612   7.892   1.041  11.747
59239SOL     OW79613   9.716   0.681  14.071
59239SOL    HW179614   9.763   0.699  13.990
59239SOL    HW279615   9.761   0.606  14.109
59240SOL     OW79616   2.415  11.437   1.274
59240SOL    HW179617   2.336  11.383   1.264
59240SOL    HW279618   2.396  11.493   1.349
59241SOL     OW79619  10.259   9.886   6.724
59241SOL    HW179620  10.309   9.858   6.800
59241SOL    HW279621  10.325   9.924   6.665
59242SOL     OW79622   6.851   7.431   0.976
59242SOL    HW179623   6.945   7.418   0.966
59242SOL    HW279624   6.813   7.392   0.897
59243SOL     OW79625  14.299   6.126   1.025
59243SOL    HW179626  14.264   6.064   1.089
59243SOL    HW279627  14.227   6.188   1.009
59244SOL     OW79628   1.333   7.899   1.603
59244SOL    HW179629   1.412   7.950   1.621
59244SOL    HW279630   1.269   7.964   1.572
59245SOL     OW79631  13.324   5.784   2.321
59245SOL    HW179632  13.277   5.865   2.300
59245SOL    HW279633  13.357   5.798   2.410
59246SOL     OW79634   2.856   3.654  11.160
59246SOL    HW179635   2.857   3.671  11.255
59246SOL    HW279636   2.948   3.662  11.134
59247SOL     OW79637   4.743   1.134   9.474
59247SOL    HW179638   4.712   1.220   9.504
59247SOL    HW279639   4.838   1.138   9.487
59248SOL     OW79640   3.290  13.023  10.944
59248SOL    HW179641   3.252  12.937  10.927
59248SOL    HW279642   3.327  13.016  11.032
59249SOL     OW79643   2.507  11.028   4.439
59249SOL    HW179644   2.423  11.000   4.476
59249SOL    HW279645   2.571  11.008   4.507
59250SOL     OW79646  10.764   8.775  13.369
59250SOL    HW179647  10.757   8.811  13.457
59250SOL    HW279648  10.729   8.844  13.312
59251SOL     OW79649   4.152   5.303  13.047
59251SOL    HW179650   4.163   5.396  13.026
59251SOL    HW279651   4.072   5.277  13.001
59252SOL     OW79652  14.220   5.940  10.446
59252SOL    HW179653  14.316   5.942  10.447
59252SOL    HW279654  14.198   5.904  10.360
59253SOL     OW79655  14.204   3.856   1.520
59253SOL    HW179656  14.226   3.792   1.452
59253SOL    HW279657  14.172   3.803   1.593
59254SOL     OW79658   7.876   2.007  10.690
59254SOL    HW179659   7.951   2.012  10.748
59254SOL    HW279660   7.801   1.996  10.748
59255SOL     OW79661  13.924   8.753   3.372
59255SOL    HW179662  13.982   8.713   3.436
59255SOL    HW279663  13.838   8.752   3.414
59256SOL     OW79664   6.188  13.054   4.288
59256SOL    HW179665   6.133  13.072   4.364
59256SOL    HW279666   6.275  13.086   4.312
59257SOL     OW79667   7.163  11.664   4.160
59257SOL    HW179668   7.193  11.753   4.179
59257SOL    HW279669   7.079  11.675   4.117
59258SOL     OW79670  14.527   2.077  10.556
59258SOL    HW179671  14.614   2.040  10.544
59258SOL    HW279672  14.529   2.115  10.643
59259SOL     OW79673   0.879   1.647   1.842
59259SOL    HW179674   0.862   1.553   1.832
59259SOL    HW279675   0.832   1.672   1.921
59260SOL     OW79676  12.128   2.697  14.792
59260SOL    HW179677  12.180   2.750  14.731
59260SOL    HW279678  12.053   2.668  14.741
59261SOL     OW79679  13.428  10.555   0.104
59261SOL    HW179680  13.411  10.506   0.024
59261SOL    HW279681  13.469  10.492   0.164
59262SOL     OW79682   8.055   9.493  14.202
59262SOL    HW179683   8.149   9.481  14.215
59262SOL    HW279684   8.034   9.438  14.126
59263SOL     OW79685   5.725   7.441   9.501
59263SOL    HW179686   5.705   7.529   9.532
59263SOL    HW279687   5.654   7.419   9.441
59264SOL     OW79688  14.407   6.807   1.719
59264SOL    HW179689  14.459   6.754   1.659
59264SOL    HW279690  14.324   6.760   1.728
59265SOL     OW79691   4.015   7.834   1.639
59265SOL    HW179692   4.062   7.826   1.722
59265SOL    HW279693   4.075   7.884   1.583
59266SOL     OW79694   3.322   1.088   6.784
59266SOL    HW179695   3.378   1.034   6.728
59266SOL    HW279696   3.274   1.025   6.837
59267SOL     OW79697  13.422   1.117  11.864
59267SOL    HW179698  13.486   1.067  11.813
59267SOL    HW279699  13.439   1.208  11.840
59268SOL     OW79700   0.216   4.225  12.518
59268SOL    HW179701   0.278   4.160  12.485
59268SOL    HW279702   0.216   4.294  12.452
59269SOL     OW79703   1.759   9.191   4.504
59269SOL    HW179704   1.824   9.194   4.434
59269SOL    HW279705   1.770   9.105   4.544
59270SOL     OW79706  13.042  14.528  12.041
59270SOL    HW179707  13.073  14.616  12.018
59270SOL    HW279708  13.108  14.469  12.004
59271SOL     OW79709  14.367   7.152  14.794
59271SOL    HW179710  14.283   7.108  14.785
59271SOL    HW279711  14.430   7.093  14.755
59272SOL     OW79712   4.744   6.352   4.815
59272SOL    HW179713   4.697   6.316   4.890
59272SOL    HW279714   4.832   6.313   4.821
59273SOL     OW79715  13.077  11.726   5.159
59273SOL    HW179716  13.159  11.747   5.204
59273SOL    HW279717  13.104  11.672   5.084
59274SOL     OW79718  13.066   4.393   7.931
59274SOL    HW179719  13.031   4.464   7.986
59274SOL    HW279720  12.993   4.332   7.923
59275SOL     OW79721   1.690   6.917  14.532
59275SOL    HW179722   1.736   6.856  14.475
59275SOL    HW279723   1.670   6.992  14.476
59276SOL     OW79724  10.135  10.347   5.167
59276SOL    HW179725  10.120  10.434   5.204
59276SOL    HW279726  10.222  10.353   5.127
59277SOL     OW79727  11.781  10.871   0.416
59277SOL    HW179728  11.840  10.851   0.343
59277SOL    HW279729  11.739  10.788   0.437
59278SOL     OW79730  13.781   9.297  11.232
59278SOL    HW179731  13.794   9.347  11.312
59278SOL    HW279732  13.803   9.207  11.257
59279SOL     OW79733   8.784   3.466   3.770
59279SOL    HW179734   8.746   3.431   3.851
59279SOL    HW279735   8.816   3.553   3.793
59280SOL     OW79736  11.463   6.379   6.480
59280SOL    HW179737  11.558   6.378   6.491
59280SOL    HW279738  11.449   6.412   6.392
59281SOL     OW79739   5.912  10.645   7.135
59281SOL    HW179740   5.993  10.593   7.140
59281SOL    HW279741   5.865  10.608   7.060
59282SOL     OW79742  10.188   7.299   3.726
59282SOL    HW179743  10.092   7.300   3.718
59282SOL    HW279744  10.212   7.391   3.741
59283SOL     OW79745   3.542   0.791   7.120
59283SOL    HW179746   3.449   0.812   7.113
59283SOL    HW279747   3.561   0.792   7.213
59284SOL     OW79748   8.692  12.296   6.130
59284SOL    HW179749   8.751  12.359   6.170
59284SOL    HW279750   8.629  12.275   6.199
59285SOL     OW79751   0.864  12.588   9.771
59285SOL    HW179752   0.930  12.523   9.746
59285SOL    HW279753   0.814  12.603   9.690
59286SOL     OW79754   2.791  11.203  11.571
59286SOL    HW179755   2.736  11.152  11.511
59286SOL    HW279756   2.795  11.151  11.651
59287SOL     OW79757   9.297  10.819   2.125
59287SOL    HW179758   9.302  10.912   2.148
59287SOL    HW279759   9.339  10.774   2.198
59288SOL     OW79760   5.829  14.766  11.726
59288SOL    HW179761   5.886  14.739  11.798
59288SOL    HW279762   5.887  14.813  11.666
59289SOL     OW79763  13.516   8.430   8.570
59289SOL    HW179764  13.609   8.418   8.587
59289SOL    HW279765  13.489   8.499   8.630
59290SOL     OW79766   3.029  11.642   8.741
59290SOL    HW179767   3.063  11.666   8.654
59290SOL    HW279768   2.951  11.590   8.723
59291SOL     OW79769  12.226   5.466   0.895
59291SOL    HW179770  12.160   5.531   0.870
59291SOL    HW279771  12.184   5.415   0.965
59292SOL     OW79772  11.002  12.579   8.667
59292SOL    HW179773  11.023  12.488   8.686
59292SOL    HW279774  10.969  12.614   8.750
59293SOL     OW79775  13.526  12.510   9.817
59293SOL    HW179776  13.545  12.495   9.910
59293SOL    HW279777  13.459  12.444   9.796
59294SOL     OW79778   1.883   3.888   2.626
59294SOL    HW179779   1.940   3.835   2.682
59294SOL    HW279780   1.932   3.970   2.614
59295SOL     OW79781   7.857   0.093   4.813
59295SOL    HW179782   7.939   0.138   4.791
59295SOL    HW279783   7.820   0.069   4.728
59296SOL     OW79784   8.840   1.921   0.651
59296SOL    HW179785   8.790   1.910   0.570
59296SOL    HW279786   8.918   1.969   0.624
59297SOL     OW79787   9.472   6.370  12.069
59297SOL    HW179788   9.499   6.320  12.146
59297SOL    HW279789   9.503   6.458  12.086
59298SOL     OW79790  13.839   4.941   2.794
59298SOL    HW179791  13.846   4.863   2.850
59298SOL    HW279792  13.788   5.003   2.846
59299SOL     OW79793   0.081   6.952  11.457
59299SOL    HW179794  14.870   6.920  11.456
59299SOL    HW279795   0.134   6.873  11.454
59300SOL     OW79796  12.284   3.643  13.239
59300SOL    HW179797  12.349   3.709  13.216
59300SOL    HW279798  12.215   3.691  13.285
59301SOL     OW79799   5.671  11.000   3.935
59301SOL    HW179800   5.666  10.942   4.011
59301SOL    HW279801   5.699  10.944   3.863
59302SOL     OW79802   6.866   3.748  13.011
59302SOL    HW179803   6.830   3.660  12.993
59302SOL    HW279804   6.907   3.740  13.097
59303SOL     OW79805  12.399  14.826   1.767
59303SOL    HW179806  12.434  14.758   1.824
59303SOL    HW279807  12.433   0.028   1.804
59304SOL     OW79808   0.943  14.308   7.177
59304SOL    HW179809   1.015  14.338   7.122
59304SOL    HW279810   0.933  14.377   7.243
59305SOL     OW79811   6.802   3.470   1.708
59305SOL    HW179812   6.761   3.523   1.640
59305SOL    HW279813   6.731   3.452   1.770
59306SOL     OW79814   2.921   1.872   0.715
59306SOL    HW179815   2.974   1.929   0.659
59306SOL    HW279816   2.975   1.860   0.794
59307SOL     OW79817  11.976   3.648   8.168
59307SOL    HW179818  12.007   3.582   8.230
59307SOL    HW279819  11.881   3.639   8.169
59308SOL     OW79820  14.733  14.207   5.434
59308SOL    HW179821  14.719  14.186   5.526
59308SOL    HW279822  14.796  14.141   5.404
59309SOL     OW79823   5.902   2.310  10.880
59309SOL    HW179824   5.939   2.329  10.794
59309SOL    HW279825   5.874   2.219  10.875
59310SOL     OW79826  14.337  11.670   1.977
59310SOL    HW179827  14.373  11.629   1.898
59310SOL    HW279828  14.277  11.737   1.944
59311SOL     OW79829   8.653   6.921   0.993
59311SOL    HW179830   8.603   6.996   0.962
59311SOL    HW279831   8.602   6.888   1.068
59312SOL     OW79832  12.482   8.337   5.397
59312SOL    HW179833  12.526   8.419   5.419
59312SOL    HW279834  12.411   8.331   5.461
59313SOL     OW79835   1.724   1.888  11.334
59313SOL    HW179836   1.746   1.796  11.344
59313SOL    HW279837   1.632   1.889  11.307
59314SOL     OW79838  13.776   4.070  13.545
59314SOL    HW179839  13.768   3.990  13.493
59314SOL    HW279840  13.714   4.058  13.617
59315SOL     OW79841   5.335   8.160   7.606
59315SOL    HW179842   5.283   8.080   7.599
59315SOL    HW279843   5.294   8.209   7.677
59316SOL     OW79844   1.838   6.381  14.719
59316SOL    HW179845   1.836   6.287  14.740
59316SOL    HW279846   1.772   6.420  14.776
59317SOL     OW79847   1.437   3.176  12.415
59317SOL    HW179848   1.376   3.250  12.413
59317SOL    HW279849   1.463   3.168  12.507
59318SOL     OW79850  13.529   1.465   3.397
59318SOL    HW179851  13.439   1.467   3.363
59318SOL    HW279852  13.557   1.375   3.383
59319SOL     OW79853  10.911  11.164  14.532
59319SOL    HW179854  10.970  11.236  14.553
59319SOL    HW279855  10.910  11.110  14.611
59320SOL     OW79856  13.189   7.162   7.917
59320SOL    HW179857  13.109   7.112   7.931
59320SOL    HW279858  13.169   7.219   7.843
59321SOL     OW79859   2.385   1.689   5.924
59321SOL    HW179860   2.474   1.707   5.952
59321SOL    HW279861   2.336   1.681   6.006
59322SOL     OW79862  11.104   2.692   9.624
59322SOL    HW179863  11.047   2.683   9.701
59322SOL    HW279864  11.048   2.734   9.558
59323SOL     OW79865   1.633  10.549  12.634
59323SOL    HW179866   1.620  10.644  12.630
59323SOL    HW279867   1.588  10.514  12.557
59324SOL     OW79868   7.034  13.708  12.549
59324SOL    HW179869   6.975  13.781  12.571
59324SOL    HW279870   7.061  13.727  12.459
59325SOL     OW79871   6.833   6.089   4.919
59325SOL    HW179872   6.830   5.998   4.948
59325SOL    HW279873   6.923   6.102   4.889
59326SOL     OW79874  12.111  13.015   7.683
59326SOL    HW179875  12.124  13.008   7.778
59326SOL    HW279876  12.183  13.071   7.653
59327SOL     OW79877   1.738  11.889  13.957
59327SOL    HW179878   1.778  11.864  13.874
59327SOL    HW279879   1.788  11.966  13.985
59328SOL     OW79880   7.076   4.529   1.820
59328SOL    HW179881   7.123   4.521   1.903
59328SOL    HW279882   7.000   4.583   1.841
59329SOL     OW79883   1.401   0.584   6.084
59329SOL    HW179884   1.327   0.639   6.107
59329SOL    HW279885   1.410   0.594   5.989
59330SOL     OW79886   9.359   2.969  12.311
59330SOL    HW179887   9.312   2.945  12.231
59330SOL    HW279888   9.293   3.014  12.364
59331SOL     OW79889   0.966   3.345   6.594
59331SOL    HW179890   0.980   3.430   6.637
59331SOL    HW279891   0.934   3.367   6.507
59332SOL     OW79892   1.842  10.433   4.465
59332SOL    HW179893   1.811  10.454   4.554
59332SOL    HW279894   1.910  10.498   4.448
59333SOL     OW79895   5.093  12.149  10.067
59333SOL    HW179896   5.095  12.201   9.986
59333SOL    HW279897   5.027  12.082  10.049
59334SOL     OW79898   4.570  13.630   1.503
59334SOL    HW179899   4.623  13.691   1.452
59334SOL    HW279900   4.625  13.552   1.511
59335SOL     OW79901   7.919   9.524   3.897
59335SOL    HW179902   7.990   9.503   3.958
59335SOL    HW279903   7.840   9.526   3.952
59336SOL     OW79904   8.514  10.476   2.171
59336SOL    HW179905   8.445  10.450   2.232
59336SOL    HW279906   8.562  10.545   2.216
59337SOL     OW79907  12.950   4.480   3.135
59337SOL    HW179908  13.021   4.499   3.196
59337SOL    HW279909  12.940   4.385   3.139
59338SOL     OW79910   5.243   8.177   4.983
59338SOL    HW179911   5.159   8.133   4.995
59338SOL    HW279912   5.237   8.217   4.896
59339SOL     OW79913   5.885   9.832  11.874
59339SOL    HW179914   5.824   9.805  11.943
59339SOL    HW279915   5.828   9.857  11.801
59340SOL     OW79916   1.845  10.767  11.903
59340SOL    HW179917   1.833  10.795  11.993
59340SOL    HW279918   1.939  10.774  11.887
59341SOL     OW79919   1.520  13.117   3.669
59341SOL    HW179920   1.558  13.128   3.756
59341SOL    HW279921   1.492  13.026   3.666
59342SOL     OW79922   8.378  11.666   8.366
59342SOL    HW179923   8.458  11.626   8.333
59342SOL    HW279924   8.386  11.663   8.462
59343SOL     OW79925   6.068  10.521  12.053
59343SOL    HW179926   5.975  10.544  12.044
59343SOL    HW279927   6.083  10.520  12.148
59344SOL     OW79928   4.147   2.971  12.631
59344SOL    HW179929   4.145   2.878  12.611
59344SOL    HW279930   4.191   2.977  12.716
59345SOL     OW79931   5.298   1.316   7.710
59345SOL    HW179932   5.271   1.242   7.657
59345SOL    HW279933   5.263   1.393   7.664
59346SOL     OW79934  11.260   0.581   2.466
59346SOL    HW179935  11.169   0.586   2.496
59346SOL    HW279936  11.309   0.631   2.531
59347SOL     OW79937   1.495   6.919   4.533
59347SOL    HW179938   1.577   6.965   4.515
59347SOL    HW279939   1.499   6.840   4.480
59348SOL     OW79940   3.494  13.091   5.196
59348SOL    HW179941   3.404  13.094   5.227
59348SOL    HW279942   3.537  13.026   5.253
59349SOL     OW79943   7.583   7.755   4.179
59349SOL    HW179944   7.578   7.692   4.251
59349SOL    HW279945   7.666   7.735   4.135
59350SOL     OW79946   7.031   6.422   6.961
59350SOL    HW179947   7.092   6.382   6.899
59350SOL    HW279948   7.083   6.491   7.004
59351SOL     OW79949  11.130   3.369   7.299
59351SOL    HW179950  11.145   3.284   7.256
59351SOL    HW279951  11.113   3.346   7.390
59352SOL     OW79952  10.917   6.782   4.116
59352SOL    HW179953  10.930   6.791   4.022
59352SOL    HW279954  10.989   6.726   4.145
59353SOL     OW79955   1.212  13.493   4.188
59353SOL    HW179956   1.205  13.416   4.131
59353SOL    HW279957   1.282  13.471   4.249
59354SOL     OW79958   1.305  12.956   9.712
59354SOL    HW179959   1.380  12.944   9.655
59354SOL    HW279960   1.236  12.990   9.656
59355SOL     OW79961  11.505   6.140  11.185
59355SOL    HW179962  11.462   6.085  11.250
59355SOL    HW279963  11.581   6.176  11.230
59356SOL     OW79964  13.728  12.909  12.353
59356SOL    HW179965  13.765  12.993  12.383
59356SOL    HW279966  13.637  12.929  12.332
59357SOL     OW79967  14.371  13.965   4.447
59357SOL    HW179968  14.279  13.937   4.447
59357SOL    HW279969  14.421  13.884   4.454
59358SOL     OW79970   4.909   4.725  11.665
59358SOL    HW179971   4.865   4.659  11.720
59358SOL    HW279972   4.842   4.752  11.603
59359SOL     OW79973   8.697   0.495  11.345
59359SOL    HW179974   8.789   0.510  11.367
59359SOL    HW279975   8.697   0.414  11.295
59360SOL     OW79976   1.819   5.783   9.208
59360SOL    HW179977   1.831   5.831   9.126
59360SOL    HW279978   1.797   5.694   9.182
59361SOL     OW79979   1.289   8.159   8.189
59361SOL    HW179980   1.259   8.219   8.257
59361SOL    HW279981   1.212   8.107   8.167
59362SOL     OW79982  12.993  13.533   7.664
59362SOL    HW179983  13.084  13.556   7.685
59362SOL    HW279984  12.969  13.468   7.729
59363SOL     OW79985  11.588  11.862  10.067
59363SOL    HW179986  11.562  11.867   9.975
59363SOL    HW279987  11.506  11.866  10.116
59364SOL     OW79988   2.869  12.052  13.693
59364SOL    HW179989   2.830  11.982  13.746
59364SOL    HW279990   2.929  12.006  13.634
59365SOL     OW79991   1.280   4.935  13.185
59365SOL    HW179992   1.187   4.947  13.165
59365SOL    HW279993   1.325   4.993  13.124
59366SOL     OW79994   1.004   1.859   4.712
59366SOL    HW179995   0.995   1.850   4.807
59366SOL    HW279996   1.099   1.856   4.697
59367SOL     OW79997   4.768   3.513   3.731
59367SOL    HW179998   4.817   3.532   3.651
59367SOL    HW279999   4.822   3.449   3.778
59368SOL     OW80000   3.336   4.958   2.178
59368SOL    HW180001   3.326   4.922   2.090
59368SOL    HW280002   3.248   4.952   2.217
59369SOL     OW80003   3.829   2.894   2.806
59369SOL    HW180004   3.837   2.877   2.899
59369SOL    HW280005   3.774   2.822   2.774
59370SOL     OW80006  11.499   7.993  10.952
59370SOL    HW180007  11.476   8.022  10.863
59370SOL    HW280008  11.546   8.066  10.990
59371SOL     OW80009  12.418   3.951   9.155
59371SOL    HW180010  12.410   3.901   9.237
59371SOL    HW280011  12.433   4.041   9.184
59372SOL     OW80012   8.906   0.542  14.336
59372SOL    HW180013   8.886   0.635  14.341
59372SOL    HW280014   8.999   0.538  14.311
59373SOL     OW80015   5.865  12.783  10.295
59373SOL    HW180016   5.885  12.823  10.379
59373SOL    HW280017   5.864  12.689  10.313
59374SOL     OW80018   1.450   4.863   6.147
59374SOL    HW180019   1.469   4.769   6.138
59374SOL    HW280020   1.509   4.905   6.084
59375SOL     OW80021   6.715  11.330   1.860
59375SOL    HW180022   6.721  11.238   1.886
59375SOL    HW280023   6.712  11.327   1.764
59376SOL     OW80024  14.855  10.291   7.625
59376SOL    HW180025   0.045  10.328   7.680
59376SOL    HW280026   0.001  10.314   7.536
59377SOL     OW80027  14.500   8.002  11.838
59377SOL    HW180028  14.596   8.003  11.830
59377SOL    HW280029  14.484   8.028  11.929
59378SOL     OW80030  12.281   7.330  14.782
59378SOL    HW180031  12.330   7.413  14.788
59378SOL    HW280032  12.266   7.317  14.689
59379SOL     OW80033   7.649   3.534   3.707
59379SOL    HW180034   7.617   3.458   3.754
59379SOL    HW280035   7.742   3.516   3.691
59380SOL     OW80036  11.991   0.451   3.094
59380SOL    HW180037  11.975   0.540   3.065
59380SOL    HW280038  11.904   0.414   3.108
59381SOL     OW80039  11.645  11.745   4.321
59381SOL    HW180040  11.721  11.723   4.266
59381SOL    HW280041  11.658  11.837   4.344
59382SOL     OW80042   5.389   2.523   1.637
59382SOL    HW180043   5.409   2.588   1.569
59382SOL    HW280044   5.393   2.439   1.592
59383SOL     OW80045   3.274   3.792   9.320
59383SOL    HW180046   3.333   3.867   9.328
59383SOL    HW280047   3.210   3.819   9.255
59384SOL     OW80048   5.473   6.325   8.743
59384SOL    HW180049   5.503   6.407   8.781
59384SOL    HW280050   5.496   6.258   8.808
59385SOL     OW80051  13.416   6.863  10.413
59385SOL    HW180052  13.476   6.802  10.371
59385SOL    HW280053  13.422   6.842  10.506
59386SOL     OW80054   6.236   4.735   8.346
59386SOL    HW180055   6.162   4.715   8.288
59386SOL    HW280056   6.284   4.803   8.299
59387SOL     OW80057  13.786   3.072  10.182
59387SOL    HW180058  13.856   3.041  10.239
59387SOL    HW280059  13.830   3.096  10.100
59388SOL     OW80060   5.353   9.108   5.812
59388SOL    HW180061   5.287   9.130   5.877
59388SOL    HW280062   5.321   9.147   5.731
59389SOL     OW80063  13.378   6.162  13.286
59389SOL    HW180064  13.358   6.118  13.203
59389SOL    HW280065  13.396   6.091  13.347
59390SOL     OW80066  14.101  10.214  13.322
59390SOL    HW180067  14.190  10.248  13.321
59390SOL    HW280068  14.091  10.170  13.238
59391SOL     OW80069   7.405   5.463  13.471
59391SOL    HW180070   7.481   5.515  13.496
59391SOL    HW280071   7.371   5.428  13.554
59392SOL     OW80072   9.145   8.875  11.383
59392SOL    HW180073   9.204   8.930  11.330
59392SOL    HW280074   9.131   8.797  11.329
59393SOL     OW80075   9.747   5.614   6.340
59393SOL    HW180076   9.820   5.674   6.357
59393SOL    HW280077   9.767   5.537   6.393
59394SOL     OW80078  14.203  13.819  14.543
59394SOL    HW180079  14.190  13.822  14.637
59394SOL    HW280080  14.129  13.767  14.510
59395SOL     OW80081   9.423   7.816  13.827
59395SOL    HW180082   9.344   7.861  13.855
59395SOL    HW280083   9.419   7.730  13.869
59396SOL     OW80084   8.264   2.356   1.550
59396SOL    HW180085   8.182   2.387   1.513
59396SOL    HW280086   8.243   2.271   1.588
59397SOL     OW80087  14.069   4.771  10.602
59397SOL    HW180088  14.154   4.780  10.560
59397SOL    HW280089  14.056   4.676  10.611
59398SOL     OW80090  11.871  13.942   2.816
59398SOL    HW180091  11.946  13.983   2.859
59398SOL    HW280092  11.879  13.849   2.838
59399SOL     OW80093  13.825  14.716   4.535
59399SOL    HW180094  13.775  14.763   4.467
59399SOL    HW280095  13.799  14.625   4.524
59400SOL     OW80096  10.431  12.562   0.871
59400SOL    HW180097  10.430  12.530   0.781
59400SOL    HW280098  10.521  12.551   0.899
59401SOL     OW80099   0.636   0.511  10.389
59401SOL    HW180100   0.619   0.604  10.374
59401SOL    HW280101   0.549   0.471  10.386
59402SOL     OW80102   5.393  10.067   7.153
59402SOL    HW180103   5.333  10.060   7.226
59402SOL    HW280104   5.448  10.142   7.174
59403SOL     OW80105  11.694   9.740  12.385
59403SOL    HW180106  11.629   9.809  12.397
59403SOL    HW280107  11.712   9.708  12.473
59404SOL     OW80108   2.360   8.654  13.829
59404SOL    HW180109   2.281   8.698  13.858
59404SOL    HW280110   2.411   8.721  13.784
59405SOL     OW80111  10.048   2.134  13.982
59405SOL    HW180112  10.079   2.051  13.948
59405SOL    HW280113  10.098   2.148  14.062
59406SOL     OW80114  12.393  10.219   5.607
59406SOL    HW180115  12.448  10.149   5.643
59406SOL    HW280116  12.337  10.245   5.680
59407SOL     OW80117   9.532  14.779   9.205
59407SOL    HW180118   9.492  14.800   9.120
59407SOL    HW280119   9.482  14.830   9.268
59408SOL     OW80120   6.368  12.502  11.709
59408SOL    HW180121   6.306  12.511  11.781
59408SOL    HW280122   6.315  12.510  11.630
59409SOL     OW80123   2.385   0.206   5.880
59409SOL    HW180124   2.365   0.296   5.903
59409SOL    HW280125   2.302   0.169   5.850
59410SOL     OW80126   6.001  14.565   5.841
59410SOL    HW180127   6.040  14.512   5.772
59410SOL    HW280128   5.925  14.607   5.800
59411SOL     OW80129   1.848   1.669  13.092
59411SOL    HW180130   1.871   1.753  13.052
59411SOL    HW280131   1.896   1.668  13.175
59412SOL     OW80132   6.898   2.306  12.707
59412SOL    HW180133   6.863   2.380  12.756
59412SOL    HW280134   6.913   2.340  12.619
59413SOL     OW80135   1.413   4.617   4.039
59413SOL    HW180136   1.408   4.706   4.004
59413SOL    HW280137   1.349   4.616   4.110
59414SOL     OW80138   2.319   6.153   2.113
59414SOL    HW180139   2.288   6.189   2.196
59414SOL    HW280140   2.254   6.087   2.090
59415SOL     OW80141   4.590   2.461  12.690
59415SOL    HW180142   4.639   2.538  12.660
59415SOL    HW280143   4.647   2.387  12.672
59416SOL     OW80144   9.379  13.635   3.857
59416SOL    HW180145   9.308  13.571   3.864
59416SOL    HW280146   9.459  13.583   3.861
59417SOL     OW80147   6.503   9.168  12.102
59417SOL    HW180148   6.540   9.256  12.112
59417SOL    HW280149   6.569   9.110  12.141
59418SOL     OW80150   5.532   0.382   3.769
59418SOL    HW180151   5.538   0.289   3.792
59418SOL    HW280152   5.488   0.384   3.684
59419SOL     OW80153  13.132   5.813   3.719
59419SOL    HW180154  13.040   5.838   3.725
59419SOL    HW280155  13.156   5.830   3.628
59420SOL     OW80156   1.067   6.640  14.078
59420SOL    HW180157   0.975   6.657  14.056
59420SOL    HW280158   1.102   6.596  14.001
59421SOL     OW80159   5.248  12.655   6.664
59421SOL    HW180160   5.213  12.743   6.679
59421SOL    HW280161   5.278  12.657   6.573
59422SOL     OW80162  10.028   5.213   1.589
59422SOL    HW180163   9.943   5.198   1.630
59422SOL    HW280164  10.066   5.286   1.639
59423SOL     OW80165   4.218  13.564   7.679
59423SOL    HW180166   4.131  13.531   7.656
59423SOL    HW280167   4.250  13.503   7.745
59424SOL     OW80168   9.652  13.395   0.909
59424SOL    HW180169   9.656  13.321   0.969
59424SOL    HW280170   9.720  13.376   0.844
59425SOL     OW80171   0.957   7.788   1.329
59425SOL    HW180172   0.985   7.745   1.248
59425SOL    HW280173   1.033   7.839   1.357
59426SOL     OW80174  13.604   2.937   9.049
59426SOL    HW180175  13.570   3.009   8.996
59426SOL    HW280176  13.539   2.867   9.040
59427SOL     OW80177   3.431  10.936   9.472
59427SOL    HW180178   3.463  11.025   9.461
59427SOL    HW280179   3.371  10.941   9.546
59428SOL     OW80180   9.283   6.747  10.136
59428SOL    HW180181   9.354   6.801  10.101
59428SOL    HW280182   9.325   6.691  10.202
59429SOL     OW80183   9.744  11.156  10.563
59429SOL    HW180184   9.695  11.157  10.481
59429SOL    HW280185   9.836  11.150  10.536
59430SOL     OW80186  10.445   4.197  14.218
59430SOL    HW180187  10.461   4.130  14.284
59430SOL    HW280188  10.421   4.148  14.139
59431SOL     OW80189  12.041   4.680   5.005
59431SOL    HW180190  12.018   4.761   4.958
59431SOL    HW280191  12.032   4.703   5.097
59432SOL     OW80192  12.243   1.119   5.275
59432SOL    HW180193  12.300   1.161   5.211
59432SOL    HW280194  12.269   1.156   5.359
59433SOL     OW80195   7.566   3.026   9.728
59433SOL    HW180196   7.559   3.075   9.646
59433SOL    HW280197   7.497   3.063   9.783
59434SOL     OW80198  13.656   0.535   0.863
59434SOL    HW180199  13.632   0.608   0.806
59434SOL    HW280200  13.642   0.457   0.810
59435SOL     OW80201   6.889   7.950   0.586
59435SOL    HW180202   6.862   7.894   0.659
59435SOL    HW280203   6.984   7.940   0.583
59436SOL     OW80204   0.481   0.150   7.859
59436SOL    HW180205   0.527   0.148   7.943
59436SOL    HW280206   0.397   0.191   7.879
59437SOL     OW80207  14.308   2.538  12.971
59437SOL    HW180208  14.293   2.613  13.029
59437SOL    HW280209  14.232   2.536  12.913
59438SOL     OW80210   5.129  14.060  10.068
59438SOL    HW180211   5.069  14.076   9.995
59438SOL    HW280212   5.164  13.972  10.051
59439SOL     OW80213   0.269   0.753   9.233
59439SOL    HW180214   0.322   0.746   9.313
59439SOL    HW280215   0.253   0.662   9.208
59440SOL     OW80216  10.114   0.895  10.721
59440SOL    HW180217  10.053   0.950  10.671
59440SOL    HW280218  10.058   0.845  10.780
59441SOL     OW80219   7.790  11.280   5.837
59441SOL    HW180220   7.768  11.207   5.778
59441SOL    HW280221   7.881  11.301   5.816
59442SOL     OW80222   9.238   2.467  10.212
59442SOL    HW180223   9.147   2.437  10.211
59442SOL    HW280224   9.290   2.388  10.194
59443SOL     OW80225  10.366   7.313   8.402
59443SOL    HW180226  10.319   7.254   8.343
59443SOL    HW280227  10.315   7.394   8.400
59444SOL     OW80228   0.727  14.510   0.778
59444SOL    HW180229   0.639  14.477   0.792
59444SOL    HW280230   0.776  14.485   0.857
59445SOL     OW80231  13.322   2.543   3.426
59445SOL    HW180232  13.377   2.580   3.494
59445SOL    HW280233  13.268   2.616   3.395
59446SOL     OW80234   5.173   4.855   7.643
59446SOL    HW180235   5.227   4.929   7.616
59446SOL    HW280236   5.206   4.833   7.731
59447SOL     OW80237   2.342   4.724   2.500
59447SOL    HW180238   2.339   4.729   2.405
59447SOL    HW280239   2.288   4.796   2.530
59448SOL     OW80240   7.837   4.380   7.106
59448SOL    HW180241   7.748   4.399   7.077
59448SOL    HW280242   7.825   4.337   7.191
59449SOL     OW80243   2.409   0.104   0.881
59449SOL    HW180244   2.385   0.179   0.826
59449SOL    HW280245   2.328   0.054   0.891
59450SOL     OW80246   2.405  14.654   1.030
59450SOL    HW180247   2.319  14.695   1.023
59450SOL    HW280248   2.418  14.611   0.946
59451SOL     OW80249   0.489   5.217  12.970
59451SOL    HW180250   0.482   5.191  13.062
59451SOL    HW280251   0.551   5.290  12.970
59452SOL     OW80252  14.178   1.825  11.962
59452SOL    HW180253  14.176   1.747  11.907
59452SOL    HW280254  14.252   1.876  11.929
59453SOL     OW80255   1.924   7.540   7.828
59453SOL    HW180256   1.988   7.595   7.783
59453SOL    HW280257   1.891   7.595   7.899
59454SOL     OW80258   1.947   4.052   3.921
59454SOL    HW180259   2.014   4.083   3.983
59454SOL    HW280260   1.986   4.065   3.835
59455SOL     OW80261  13.157  13.173   2.926
59455SOL    HW180262  13.226  13.109   2.947
59455SOL    HW280263  13.202  13.240   2.875
59456SOL     OW80264  10.834   4.339   4.998
59456SOL    HW180265  10.921   4.300   5.013
59456SOL    HW280266  10.828   4.344   4.902
59457SOL     OW80267   3.520   7.226  13.851
59457SOL    HW180268   3.556   7.313  13.833
59457SOL    HW280269   3.530   7.217  13.946
59458SOL     OW80270  12.082   7.585  12.534
59458SOL    HW180271  11.990   7.614  12.532
59458SOL    HW280272  12.109   7.584  12.442
59459SOL     OW80273  14.819   2.931  14.866
59459SOL    HW180274  14.806   3.024   0.003
59459SOL    HW280275  14.871   2.900   0.060
59460SOL     OW80276   6.486  13.034  12.638
59460SOL    HW180277   6.467  13.117  12.595
59460SOL    HW280278   6.497  12.972  12.566
59461SOL     OW80279   1.313   3.392   1.892
59461SOL    HW180280   1.378   3.391   1.962
59461SOL    HW280281   1.240   3.442   1.928
59462SOL     OW80282   6.583  14.087  11.183
59462SOL    HW180283   6.666  14.129  11.162
59462SOL    HW280284   6.608  14.004  11.224
59463SOL     OW80285  13.931   5.764   2.104
59463SOL    HW180286  13.943   5.742   2.012
59463SOL    HW280287  14.020   5.777   2.137
59464SOL     OW80288   2.239   2.513   7.290
59464SOL    HW180289   2.213   2.577   7.224
59464SOL    HW280290   2.162   2.500   7.345
59465SOL     OW80291   0.823   9.498   7.346
59465SOL    HW180292   0.877   9.569   7.311
59465SOL    HW280293   0.824   9.431   7.278
59466SOL     OW80294   8.279   1.738   2.715
59466SOL    HW180295   8.192   1.705   2.735
59466SOL    HW280296   8.339   1.676   2.757
59467SOL     OW80297   9.128  14.685   1.384
59467SOL    HW180298   9.043  14.646   1.361
59467SOL    HW280299   9.191  14.614   1.369
59468SOL     OW80300  11.033   9.763   2.280
59468SOL    HW180301  10.973   9.707   2.329
59468SOL    HW280302  10.987   9.784   2.199
59469SOL     OW80303   3.547   7.957   3.203
59469SOL    HW180304   3.522   7.928   3.291
59469SOL    HW280305   3.465   7.953   3.153
59470SOL     OW80306   8.091   8.414   2.449
59470SOL    HW180307   8.117   8.435   2.539
59470SOL    HW280308   8.163   8.363   2.414
59471SOL     OW80309  12.810   3.017   2.647
59471SOL    HW180310  12.716   3.003   2.634
59471SOL    HW280311  12.827   2.985   2.735
59472SOL     OW80312  12.113  12.023   0.674
59472SOL    HW180313  12.065  12.039   0.755
59472SOL    HW280314  12.054  11.971   0.620
59473SOL     OW80315  14.430   9.983   3.352
59473SOL    HW180316  14.526   9.988   3.356
59473SOL    HW280317  14.402  10.073   3.341
59474SOL     OW80318   7.078  14.633   9.623
59474SOL    HW180319   7.138  14.667   9.690
59474SOL    HW280320   7.080  14.698   9.553
59475SOL     OW80321   0.019   2.256   7.762
59475SOL    HW180322   0.067   2.252   7.679
59475SOL    HW280323  14.876   2.349   7.772
59476SOL     OW80324   8.650  12.519   3.021
59476SOL    HW180325   8.608  12.434   3.012
59476SOL    HW280326   8.738  12.506   2.986
59477SOL     OW80327   0.611   7.708   2.801
59477SOL    HW180328   0.636   7.797   2.776
59477SOL    HW280329   0.517   7.704   2.783
59478SOL     OW80330   9.642   4.225  11.974
59478SOL    HW180331   9.607   4.248  12.061
59478SOL    HW280332   9.689   4.303  11.947
59479SOL     OW80333  12.679   2.562   3.234
59479SOL    HW180334  12.746   2.621   3.269
59479SOL    HW280335  12.728   2.499   3.181
59480SOL     OW80336   8.519  10.975  13.765
59480SOL    HW180337   8.447  10.920  13.797
59480SOL    HW280338   8.503  10.985  13.672
59481SOL     OW80339   0.140   4.034  11.528
59481SOL    HW180340   0.096   3.950  11.516
59481SOL    HW280341   0.071   4.099  11.513
59482SOL     OW80342   4.001   5.970   5.797
59482SOL    HW180343   4.042   5.926   5.722
59482SOL    HW280344   4.068   6.031   5.829
59483SOL     OW80345   8.848  12.900   8.159
59483SOL    HW180346   8.895  12.843   8.221
59483SOL    HW280347   8.915  12.928   8.096
59484SOL     OW80348   1.253   1.479  12.258
59484SOL    HW180349   1.269   1.514  12.345
59484SOL    HW280350   1.199   1.401  12.272
59485SOL     OW80351  10.586   7.982  12.873
59485SOL    HW180352  10.572   8.007  12.964
59485SOL    HW280353  10.604   7.888  12.877
59486SOL     OW80354   8.175   1.374   4.526
59486SOL    HW180355   8.210   1.307   4.584
59486SOL    HW280356   8.145   1.326   4.449
59487SOL     OW80357   7.781  14.548   2.144
59487SOL    HW180358   7.862  14.597   2.154
59487SOL    HW280359   7.758  14.520   2.233
59488SOL     OW80360  13.307   4.821   9.943
59488SOL    HW180361  13.293   4.913   9.963
59488SOL    HW280362  13.219   4.785   9.930
59489SOL     OW80363   1.740   2.643  14.503
59489SOL    HW180364   1.823   2.690  14.508
59489SOL    HW280365   1.748   2.588  14.425
59490SOL     OW80366   5.062  14.755  13.979
59490SOL    HW180367   5.134  14.706  14.020
59490SOL    HW280368   5.106  14.821  13.925
59491SOL     OW80369   3.814  14.391   3.633
59491SOL    HW180370   3.830  14.305   3.593
59491SOL    HW280371   3.856  14.453   3.574
59492SOL     OW80372   1.621   7.041  13.722
59492SOL    HW180373   1.716   7.031  13.714
59492SOL    HW280374   1.586   6.955  13.697
59493SOL     OW80375   8.268   1.932  12.027
59493SOL    HW180376   8.202   1.998  12.050
59493SOL    HW280377   8.264   1.867  12.097
59494SOL     OW80378   7.417  13.175  14.824
59494SOL    HW180379   7.478  13.178   0.017
59494SOL    HW280380   7.410  13.082  14.802
59495SOL     OW80381  12.512  10.620   8.662
59495SOL    HW180382  12.473  10.706   8.676
59495SOL    HW280383  12.603  10.638   8.642
59496SOL     OW80384   3.274  11.293  11.380
59496SOL    HW180385   3.312  11.381  11.384
59496SOL    HW280386   3.200  11.296  11.440
59497SOL     OW80387  14.173   0.120   9.656
59497SOL    HW180388  14.255   0.098   9.702
59497SOL    HW280389  14.169   0.215   9.659
59498SOL     OW80390  10.684   3.955   7.562
59498SOL    HW180391  10.777   3.932   7.559
59498SOL    HW280392  10.673   3.997   7.647
59499SOL     OW80393   2.017   9.010  10.803
59499SOL    HW180394   1.943   8.958  10.770
59499SOL    HW280395   1.981   9.097  10.817
59500SOL     OW80396   3.855   4.905  10.556
59500SOL    HW180397   3.948   4.927  10.558
59500SOL    HW280398   3.851   4.819  10.598
59501SOL     OW80399   3.379  12.346   1.185
59501SOL    HW180400   3.382  12.266   1.238
59501SOL    HW280401   3.467  12.355   1.149
59502SOL     OW80402   4.034  13.700   1.113
59502SOL    HW180403   4.069  13.755   1.043
59502SOL    HW280404   4.088  13.621   1.111
59503SOL     OW80405   6.873   9.517   9.125
59503SOL    HW180406   6.902   9.565   9.202
59503SOL    HW280407   6.947   9.522   9.064
59504SOL     OW80408   4.920   2.822  14.794
59504SOL    HW180409   4.985   2.755  14.775
59504SOL    HW280410   4.840   2.791  14.752
59505SOL     OW80411  11.492   5.390  13.143
59505SOL    HW180412  11.417   5.352  13.188
59505SOL    HW280413  11.566   5.335  13.168
59506SOL     OW80414   8.405  13.436  14.482
59506SOL    HW180415   8.464  13.493  14.433
59506SOL    HW280416   8.400  13.476  14.569
59507SOL     OW80417  12.992   9.867   2.116
59507SOL    HW180418  12.990   9.963   2.125
59507SOL    HW280419  12.907   9.844   2.081
59508SOL     OW80420   0.538   7.198   6.863
59508SOL    HW180421   0.581   7.201   6.777
59508SOL    HW280422   0.445   7.202   6.843
59509SOL     OW80423  12.888   9.729   1.822
59509SOL    HW180424  12.854   9.654   1.872
59509SOL    HW280425  12.911   9.693   1.737
59510SOL     OW80426  11.246  14.083  11.938
59510SOL    HW180427  11.286  13.996  11.948
59510SOL    HW280428  11.152  14.065  11.927
59511SOL     OW80429   1.691   5.313  10.680
59511SOL    HW180430   1.635   5.276  10.749
59511SOL    HW280431   1.666   5.265  10.601
59512SOL     OW80432   2.175  13.364   3.877
59512SOL    HW180433   2.125  13.401   3.805
59512SOL    HW280434   2.187  13.438   3.938
59513SOL     OW80435   9.370   4.785   5.486
59513SOL    HW180436   9.301   4.813   5.547
59513SOL    HW280437   9.362   4.690   5.482
59514SOL     OW80438  10.685   6.505   1.057
59514SOL    HW180439  10.618   6.437   1.048
59514SOL    HW280440  10.660   6.572   0.993
59515SOL     OW80441   5.341   7.566   8.043
59515SOL    HW180442   5.272   7.500   8.033
59515SOL    HW280443   5.293   7.648   8.060
59516SOL     OW80444   4.432   1.300   0.235
59516SOL    HW180445   4.398   1.349   0.310
59516SOL    HW280446   4.526   1.318   0.236
59517SOL     OW80447  13.779  12.333  11.686
59517SOL    HW180448  13.843  12.291  11.743
59517SOL    HW280449  13.828  12.359  11.608
59518SOL     OW80450   7.653   2.867   8.314
59518SOL    HW180451   7.733   2.828   8.279
59518SOL    HW280452   7.670   2.874   8.408
59519SOL     OW80453   5.563  12.189   8.130
59519SOL    HW180454   5.597  12.122   8.189
59519SOL    HW280455   5.640  12.222   8.083
59520SOL     OW80456   7.863   3.897   8.119
59520SOL    HW180457   7.809   3.929   8.046
59520SOL    HW280458   7.801   3.854   8.177
59521SOL     OW80459   5.109   7.256  12.693
59521SOL    HW180460   5.102   7.328  12.756
59521SOL    HW280461   5.019   7.237  12.669
59522SOL     OW80462  14.661   1.487   4.852
59522SOL    HW180463  14.727   1.519   4.791
59522SOL    HW280464  14.577   1.516   4.815
59523SOL     OW80465  10.953   5.385   1.402
59523SOL    HW180466  10.917   5.360   1.317
59523SOL    HW280467  10.934   5.310   1.459
59524SOL     OW80468   5.313  11.435   9.472
59524SOL    HW180469   5.258  11.382   9.414
59524SOL    HW280470   5.257  11.455   9.547
59525SOL     OW80471   0.071  14.637   0.282
59525SOL    HW180472   0.025  14.672   0.205
59525SOL    HW280473   0.080  14.544   0.264
59526SOL     OW80474   3.801   3.575   0.789
59526SOL    HW180475   3.819   3.631   0.864
59526SOL    HW280476   3.823   3.629   0.713
59527SOL     OW80477   3.728   4.571   1.322
59527SOL    HW180478   3.739   4.477   1.304
59527SOL    HW280479   3.668   4.574   1.397
59528SOL     OW80480   3.673  14.730   4.718
59528SOL    HW180481   3.740  14.729   4.650
59528SOL    HW280482   3.668  14.640   4.749
59529SOL     OW80483   7.082  11.664   1.914
59529SOL    HW180484   7.046  11.714   1.987
59529SOL    HW280485   7.073  11.572   1.940
59530SOL     OW80486  11.120   9.895   1.801
59530SOL    HW180487  11.214   9.908   1.818
59530SOL    HW280488  11.112   9.900   1.706
59531SOL     OW80489   2.788   9.722   5.048
59531SOL    HW180490   2.754   9.637   5.021
59531SOL    HW280491   2.757   9.733   5.138
59532SOL     OW80492  13.327   7.839  10.866
59532SOL    HW180493  13.298   7.903  10.931
59532SOL    HW280494  13.247   7.812  10.821
59533SOL     OW80495  11.092   8.723   0.140
59533SOL    HW180496  11.147   8.799   0.162
59533SOL    HW280497  11.078   8.731   0.045
59534SOL     OW80498   8.874  13.778   7.730
59534SOL    HW180499   8.910  13.709   7.786
59534SOL    HW280500   8.940  13.848   7.734
59535SOL     OW80501  14.802  13.477  12.172
59535SOL    HW180502  14.852  13.439  12.100
59535SOL    HW280503  14.862  13.540  12.213
59536SOL     OW80504   8.044   5.538   4.245
59536SOL    HW180505   8.080   5.619   4.281
59536SOL    HW280506   7.960   5.528   4.290
59537SOL     OW80507   8.903  13.131   2.317
59537SOL    HW180508   8.880  13.162   2.404
59537SOL    HW280509   8.845  13.180   2.258
59538SOL     OW80510   8.537   7.888  12.285
59538SOL    HW180511   8.625   7.923  12.297
59538SOL    HW280512   8.538   7.804  12.331
59539SOL     OW80513   8.064  12.728   2.459
59539SOL    HW180514   7.980  12.748   2.418
59539SOL    HW280515   8.096  12.651   2.412
59540SOL     OW80516  10.150   1.143   6.257
59540SOL    HW180517  10.160   1.197   6.335
59540SOL    HW280518  10.065   1.099   6.269
59541SOL     OW80519   9.695   1.921   1.178
59541SOL    HW180520   9.734   1.841   1.143
59541SOL    HW280521   9.615   1.934   1.127
59542SOL     OW80522  11.681   4.827   1.766
59542SOL    HW180523  11.743   4.854   1.699
59542SOL    HW280524  11.724   4.755   1.812
59543SOL     OW80525  14.713   0.425   3.588
59543SOL    HW180526  14.669   0.480   3.523
59543SOL    HW280527  14.719   0.339   3.546
59544SOL     OW80528   7.440   1.481   3.289
59544SOL    HW180529   7.500   1.455   3.358
59544SOL    HW280530   7.437   1.576   3.294
59545SOL     OW80531   8.854   6.679  11.210
59545SOL    HW180532   8.892   6.736  11.277
59545SOL    HW280533   8.778   6.640  11.252
59546SOL     OW80534  11.548   5.090  11.728
59546SOL    HW180535  11.586   5.178  11.734
59546SOL    HW280536  11.533   5.077  11.634
59547SOL     OW80537   7.924   2.302  10.147
59547SOL    HW180538   7.837   2.336  10.167
59547SOL    HW280539   7.908   2.224  10.094
59548SOL     OW80540  12.639   6.328  14.799
59548SOL    HW180541  12.655   6.239  14.768
59548SOL    HW280542  12.704   6.341  14.868
59549SOL     OW80543   2.918  14.417   0.485
59549SOL    HW180544   2.853  14.472   0.442
59549SOL    HW280545   2.868  14.345   0.522
59550SOL     OW80546   6.347   5.362   5.383
59550SOL    HW180547   6.305   5.447   5.369
59550SOL    HW280548   6.411   5.378   5.452
59551SOL     OW80549   1.778  14.410   3.067
59551SOL    HW180550   1.759  14.422   3.160
59551SOL    HW280551   1.693  14.387   3.028
59552SOL     OW80552   8.997  13.220   6.682
59552SOL    HW180553   8.927  13.181   6.733
59552SOL    HW280554   9.009  13.161   6.608
59553SOL     OW80555   3.448  13.379   6.824
59553SOL    HW180556   3.369  13.326   6.841
59553SOL    HW280557   3.517  13.334   6.872
59554SOL     OW80558   9.513  12.152  12.416
59554SOL    HW180559   9.504  12.212  12.491
59554SOL    HW280560   9.519  12.065  12.456
59555SOL     OW80561   2.424  12.229   7.889
59555SOL    HW180562   2.466  12.248   7.973
59555SOL    HW280563   2.345  12.284   7.888
59556SOL     OW80564   8.926   4.494   6.075
59556SOL    HW180565   8.866   4.423   6.097
59556SOL    HW280566   8.974   4.511   6.157
59557SOL     OW80567   2.717   7.582  13.077
59557SOL    HW180568   2.772   7.607  13.151
59557SOL    HW280569   2.628   7.605  13.104
59558SOL     OW80570   2.651   8.719   1.500
59558SOL    HW180571   2.557   8.723   1.487
59558SOL    HW280572   2.688   8.763   1.423
59559SOL     OW80573  12.792   6.693  14.261
59559SOL    HW180574  12.742   6.773  14.244
59559SOL    HW280575  12.733   6.623  14.232
59560SOL     OW80576   9.124  10.567   2.683
59560SOL    HW180577   9.185  10.504   2.644
59560SOL    HW280578   9.111  10.633   2.614
59561SOL     OW80579   4.534   2.637  13.437
59561SOL    HW180580   4.532   2.702  13.367
59561SOL    HW280581   4.590   2.675  13.504
59562SOL     OW80582  14.141  11.431   8.182
59562SOL    HW180583  14.117  11.517   8.148
59562SOL    HW280584  14.079  11.371   8.141
59563SOL     OW80585   9.307  13.391   5.341
59563SOL    HW180586   9.280  13.479   5.367
59563SOL    HW280587   9.397  13.402   5.309
59564SOL     OW80588  12.099   7.631  11.325
59564SOL    HW180589  12.111   7.658  11.234
59564SOL    HW280590  12.088   7.536  11.320
59565SOL     OW80591   9.234   5.376  12.576
59565SOL    HW180592   9.295   5.302  12.570
59565SOL    HW280593   9.289   5.453  12.558
59566SOL     OW80594   3.186  14.534  12.790
59566SOL    HW180595   3.278  14.547  12.766
59566SOL    HW280596   3.187  14.524  12.886
59567SOL     OW80597  12.009   0.233  12.029
59567SOL    HW180598  11.945   0.217  12.098
59567SOL    HW280599  11.982   0.316  11.990
59568SOL     OW80600   5.223   9.990   9.038
59568SOL    HW180601   5.271   9.943   8.970
59568SOL    HW280602   5.268   9.967   9.119
59569SOL     OW80603   1.293   7.930  12.857
59569SOL    HW180604   1.316   8.005  12.802
59569SOL    HW280605   1.201   7.945  12.880
59570SOL     OW80606  14.531   7.286  11.126
59570SOL    HW180607  14.541   7.320  11.215
59570SOL    HW280608  14.459   7.337  11.088
59571SOL     OW80609   9.253   6.206  14.148
59571SOL    HW180610   9.267   6.288  14.194
59571SOL    HW280611   9.193   6.229  14.076
59572SOL     OW80612  12.670  11.207   5.465
59572SOL    HW180613  12.756  11.166   5.457
59572SOL    HW280614  12.639  11.214   5.374
59573SOL     OW80615   9.976   1.761  10.756
59573SOL    HW180616  10.055   1.774  10.810
59573SOL    HW280617   9.904   1.770  10.818
59574SOL     OW80618   9.935   1.979   6.031
59574SOL    HW180619   9.852   2.018   6.060
59574SOL    HW280620   9.919   1.953   5.940
59575SOL     OW80621  12.941  13.761   9.211
59575SOL    HW180622  12.941  13.666   9.203
59575SOL    HW280623  12.899  13.778   9.295
59576SOL     OW80624   1.967   1.952   6.575
59576SOL    HW180625   2.038   1.998   6.620
59576SOL    HW280626   1.887   1.990   6.610
59577SOL     OW80627   4.740   9.318   7.586
59577SOL    HW180628   4.729   9.236   7.538
59577SOL    HW280629   4.794   9.372   7.529
59578SOL     OW80630   8.870   8.487   8.835
59578SOL    HW180631   8.874   8.401   8.877
59578SOL    HW280632   8.816   8.540   8.893
59579SOL     OW80633  14.576  11.679   3.285
59579SOL    HW180634  14.654  11.687   3.230
59579SOL    HW280635  14.552  11.586   3.279
59580SOL     OW80636  13.979  10.779  11.659
59580SOL    HW180637  13.937  10.703  11.618
59580SOL    HW280638  13.988  10.842  11.588
59581SOL     OW80639   1.554  12.262  13.308
59581SOL    HW180640   1.530  12.320  13.380
59581SOL    HW280641   1.650  12.258  13.311
59582SOL     OW80642   5.382  11.649  14.466
59582SOL    HW180643   5.396  11.555  14.461
59582SOL    HW280644   5.291  11.659  14.495
59583SOL     OW80645   2.980  11.515   0.469
59583SOL    HW180646   3.061  11.545   0.427
59583SOL    HW280647   2.936  11.595   0.497
59584SOL     OW80648  11.332  11.494  13.133
59584SOL    HW180649  11.262  11.557  13.117
59584SOL    HW280650  11.400  11.544  13.177
59585SOL     OW80651  12.733   2.943   2.212
59585SOL    HW180652  12.683   2.864   2.230
59585SOL    HW280653  12.787   2.921   2.137
59586SOL     OW80654   2.339  11.844   2.564
59586SOL    HW180655   2.263  11.817   2.511
59586SOL    HW280656   2.414  11.818   2.511
59587SOL     OW80657   7.410   3.458  12.898
59587SOL    HW180658   7.343   3.390  12.907
59587SOL    HW280659   7.490   3.410  12.874
59588SOL     OW80660  13.826   5.017   8.822
59588SOL    HW180661  13.905   5.071   8.813
59588SOL    HW280662  13.765   5.052   8.757
59589SOL     OW80663   8.396  11.760   7.069
59589SOL    HW180664   8.472  11.816   7.083
59589SOL    HW280665   8.396  11.700   7.143
59590SOL     OW80666   5.634  13.972   5.350
59590SOL    HW180667   5.551  14.018   5.337
59590SOL    HW280668   5.642  13.965   5.445
59591SOL     OW80669  10.471   6.751   5.322
59591SOL    HW180670  10.416   6.675   5.306
59591SOL    HW280671  10.410   6.819   5.353
59592SOL     OW80672   0.160  11.466   1.164
59592SOL    HW180673   0.240  11.513   1.141
59592SOL    HW280674   0.166  11.455   1.259
59593SOL     OW80675   3.511   1.543  10.244
59593SOL    HW180676   3.494   1.609  10.177
59593SOL    HW280677   3.599   1.562  10.275
59594SOL     OW80678   9.981   4.328   1.355
59594SOL    HW180679  10.048   4.396   1.362
59594SOL    HW280680   9.926   4.357   1.282
59595SOL     OW80681   8.465   0.532   3.432
59595SOL    HW180682   8.447   0.626   3.430
59595SOL    HW280683   8.459   0.504   3.340
59596SOL     OW80684  12.947  12.410   9.481
59596SOL    HW180685  12.927  12.345   9.548
59596SOL    HW280686  13.043  12.417   9.484
59597SOL     OW80687   7.972  13.899   1.527
59597SOL    HW180688   7.893  13.902   1.474
59597SOL    HW280689   7.958  13.827   1.588
59598SOL     OW80690   5.409   4.242  12.462
59598SOL    HW180691   5.320   4.221  12.433
59598SOL    HW280692   5.421   4.333  12.437
59599SOL     OW80693   8.399   2.983  14.166
59599SOL    HW180694   8.410   2.889  14.174
59599SOL    HW280695   8.429   3.019  14.249
59600SOL     OW80696  11.001   0.803   6.748
59600SOL    HW180697  11.085   0.847   6.757
59600SOL    HW280698  11.021   0.710   6.753
59601SOL     OW80699   5.275   6.504  12.997
59601SOL    HW180700   5.253   6.565  12.926
59601SOL    HW280701   5.315   6.559  13.064
59602SOL     OW80702   4.083  14.772  11.619
59602SOL    HW180703   4.051  14.708  11.683
59602SOL    HW280704   4.115  14.845  11.671
59603SOL     OW80705   8.441   6.239   2.358
59603SOL    HW180706   8.422   6.321   2.403
59603SOL    HW280707   8.391   6.173   2.406
59604SOL     OW80708   3.361   7.677  12.881
59604SOL    HW180709   3.282   7.714  12.841
59604SOL    HW280710   3.393   7.615  12.816
59605SOL     OW80711   8.485   2.929   1.750
59605SOL    HW180712   8.571   2.952   1.716
59605SOL    HW280713   8.424   2.988   1.706
59606SOL     OW80714   5.055  11.033  14.255
59606SOL    HW180715   5.012  11.118  14.247
59606SOL    HW280716   5.044  11.010  14.347
59607SOL     OW80717  14.485  11.121   5.965
59607SOL    HW180718  14.533  11.151   6.042
59607SOL    HW280719  14.416  11.186   5.953
59608SOL     OW80720  10.165   1.721  14.865
59608SOL    HW180721  10.205   1.655   0.041
59608SOL    HW280722  10.232   1.741  14.800
59609SOL     OW80723  13.220  11.792   8.521
59609SOL    HW180724  13.183  11.878   8.501
59609SOL    HW280725  13.155  11.730   8.489
59610SOL     OW80726   6.685   4.624   3.855
59610SOL    HW180727   6.778   4.600   3.858
59610SOL    HW280728   6.676   4.689   3.925
59611SOL     OW80729   7.518  11.800   2.370
59611SOL    HW180730   7.600  11.769   2.410
59611SOL    HW280731   7.545  11.874   2.315
59612SOL     OW80732   5.032   1.751   3.043
59612SOL    HW180733   4.947   1.747   3.000
59612SOL    HW280734   5.043   1.843   3.067
59613SOL     OW80735   6.903   2.565   9.084
59613SOL    HW180736   6.873   2.594   9.170
59613SOL    HW280737   6.859   2.624   9.022
59614SOL     OW80738  14.762   1.359   2.594
59614SOL    HW180739  14.705   1.308   2.651
59614SOL    HW280740  14.819   1.406   2.655
59615SOL     OW80741  11.091   9.569   1.275
59615SOL    HW180742  11.060   9.585   1.364
59615SOL    HW280743  11.106   9.475   1.271
59616SOL     OW80744  12.131  10.251   1.666
59616SOL    HW180745  12.188  10.320   1.702
59616SOL    HW280746  12.057  10.299   1.628
59617SOL     OW80747   1.815   0.258   9.509
59617SOL    HW180748   1.800   0.166   9.532
59617SOL    HW280749   1.897   0.258   9.461
59618SOL     OW80750   2.364  11.057  12.528
59618SOL    HW180751   2.421  11.013  12.464
59618SOL    HW280752   2.351  11.145  12.492
59619SOL     OW80753  10.541   9.151   3.182
59619SOL    HW180754  10.565   9.175   3.271
59619SOL    HW280755  10.448   9.172   3.176
59620SOL     OW80756  11.215  14.126  12.341
59620SOL    HW180757  11.136  14.100  12.293
59620SOL    HW280758  11.243  14.046  12.385
59621SOL     OW80759   3.840   9.236   8.171
59621SOL    HW180760   3.780   9.252   8.098
59621SOL    HW280761   3.922   9.276   8.145
59622SOL     OW80762  14.848  14.797  13.804
59622SOL    HW180763  14.822   0.009  13.804
59622SOL    HW280764  14.854  14.773  13.712
59623SOL     OW80765   1.245   6.632   2.281
59623SOL    HW180766   1.321   6.672   2.239
59623SOL    HW280767   1.200   6.586   2.210
59624SOL     OW80768   3.915  11.846  12.436
59624SOL    HW180769   3.870  11.767  12.404
59624SOL    HW280770   4.005  11.818  12.450
59625SOL     OW80771   7.070   3.802  13.720
59625SOL    HW180772   7.109   3.731  13.770
59625SOL    HW280773   7.102   3.789  13.631
59626SOL     OW80774   6.442   7.968   4.634
59626SOL    HW180775   6.399   7.883   4.625
59626SOL    HW280776   6.474   7.970   4.724
59627SOL     OW80777  12.849  11.511   2.847
59627SOL    HW180778  12.891  11.596   2.849
59627SOL    HW280779  12.903  11.459   2.788
59628SOL     OW80780   7.743   0.439   2.749
59628SOL    HW180781   7.740   0.440   2.845
59628SOL    HW280782   7.683   0.369   2.724
59629SOL     OW80783   8.855   5.556   6.377
59629SOL    HW180784   8.924   5.571   6.442
59629SOL    HW280785   8.793   5.628   6.391
59630SOL     OW80786   4.059  11.645   0.146
59630SOL    HW180787   4.099  11.563   0.118
59630SOL    HW280788   4.086  11.656   0.237
59631SOL     OW80789   8.671   0.495   7.053
59631SOL    HW180790   8.733   0.521   6.985
59631SOL    HW280791   8.601   0.560   7.048
59632SOL     OW80792  10.528  12.751  10.207
59632SOL    HW180793  10.547  12.662  10.238
59632SOL    HW280794  10.552  12.749  10.114
59633SOL     OW80795   0.999   0.991   3.742
59633SOL    HW180796   1.028   1.072   3.784
59633SOL    HW280797   1.079   0.941   3.728
59634SOL     OW80798   4.618   5.399  10.161
59634SOL    HW180799   4.629   5.311  10.196
59634SOL    HW280800   4.624   5.388  10.066
59635SOL     OW80801  10.570  10.376   5.470
59635SOL    HW180802  10.588  10.331   5.388
59635SOL    HW280803  10.493  10.430   5.452
59636SOL     OW80804  14.863   0.816   7.313
59636SOL    HW180805  14.844   0.726   7.341
59636SOL    HW280806   0.078   0.819   7.305
59637SOL     OW80807   4.269  10.565   3.913
59637SOL    HW180808   4.251  10.629   3.844
59637SOL    HW280809   4.359  10.584   3.940
59638SOL     OW80810  10.165   6.811  12.101
59638SOL    HW180811  10.260   6.810  12.095
59638SOL    HW280812  10.136   6.746  12.037
59639SOL     OW80813   3.811  12.476   8.815
59639SOL    HW180814   3.859  12.494   8.896
59639SOL    HW280815   3.759  12.399   8.834
59640SOL     OW80816  13.192   4.101   9.205
59640SOL    HW180817  13.225   4.070   9.289
59640SOL    HW280818  13.138   4.178   9.227
59641SOL     OW80819   0.355   7.258   3.507
59641SOL    HW180820   0.260   7.268   3.512
59641SOL    HW280821   0.368   7.197   3.435
59642SOL     OW80822   1.408   0.371   2.515
59642SOL    HW180823   1.493   0.346   2.552
59642SOL    HW280824   1.394   0.460   2.547
59643SOL     OW80825   4.874   2.784   8.145
59643SOL    HW180826   4.964   2.812   8.157
59643SOL    HW280827   4.880   2.705   8.091
59644SOL     OW80828   8.338  14.878   7.647
59644SOL    HW180829   8.311   0.059   7.716
59644SOL    HW280830   8.316  14.791   7.681
59645SOL     OW80831   7.132   1.902   6.231
59645SOL    HW180832   7.148   1.823   6.180
59645SOL    HW280833   7.079   1.957   6.174
59646SOL     OW80834   7.225  11.183   7.862
59646SOL    HW180835   7.162  11.123   7.900
59646SOL    HW280836   7.310  11.140   7.872
59647SOL     OW80837   8.387   0.710   1.456
59647SOL    HW180838   8.441   0.642   1.415
59647SOL    HW280839   8.344   0.667   1.529
59648SOL     OW80840   1.859   2.114   0.968
59648SOL    HW180841   1.912   2.164   0.907
59648SOL    HW280842   1.921   2.076   1.030
59649SOL     OW80843   0.807   6.493   5.543
59649SOL    HW180844   0.749   6.532   5.477
59649SOL    HW280845   0.850   6.568   5.584
59650SOL     OW80846   6.670   9.165  10.208
59650SOL    HW180847   6.648   9.253  10.239
59650SOL    HW280848   6.600   9.143  10.147
59651SOL     OW80849  10.739   5.272  12.123
59651SOL    HW180850  10.743   5.323  12.042
59651SOL    HW280851  10.736   5.337  12.193
59652SOL     OW80852   9.954   0.060  13.046
59652SOL    HW180853   9.869   0.073  13.087
59652SOL    HW280854  10.008   0.021  13.114
59653SOL     OW80855   1.605  11.769   7.423
59653SOL    HW180856   1.686  11.774   7.473
59653SOL    HW280857   1.537  11.794   7.486
59654SOL     OW80858   3.725   9.602   6.370
59654SOL    HW180859   3.781   9.655   6.427
59654SOL    HW280860   3.636   9.618   6.401
59655SOL     OW80861   7.948  11.172  12.928
59655SOL    HW180862   7.928  11.079  12.921
59655SOL    HW280863   7.964  11.200  12.838
59656SOL     OW80864   9.252   9.634   2.782
59656SOL    HW180865   9.256   9.587   2.865
59656SOL    HW280866   9.162   9.621   2.751
59657SOL     OW80867   2.426   3.414  13.983
59657SOL    HW180868   2.514   3.389  14.010
59657SOL    HW280869   2.368   3.380  14.052
59658SOL     OW80870  11.596   2.589   9.330
59658SOL    HW180871  11.558   2.560   9.247
59658SOL    HW280872  11.669   2.528   9.346
59659SOL     OW80873  13.602  14.818   5.604
59659SOL    HW180874  13.603   0.024   5.646
59659SOL    HW280875  13.672  14.769   5.648
59660SOL     OW80876  14.243   7.850   7.026
59660SOL    HW180877  14.274   7.916   6.964
59660SOL    HW280878  14.191   7.790   6.973
59661SOL     OW80879   5.763  12.128  13.231
59661SOL    HW180880   5.703  12.112  13.158
59661SOL    HW280881   5.807  12.210  13.209
59662SOL     OW80882  10.910   5.809  13.833
59662SOL    HW180883  10.834   5.754  13.817
59662SOL    HW280884  10.913   5.817  13.929
59663SOL     OW80885   8.724   3.538   6.972
59663SOL    HW180886   8.631   3.527   6.993
59663SOL    HW280887   8.726   3.610   6.908
59664SOL     OW80888   6.228   5.283   4.644
59664SOL    HW180889   6.254   5.191   4.657
59664SOL    HW280890   6.277   5.331   4.711
59665SOL     OW80891   6.360   2.048  10.710
59665SOL    HW180892   6.443   2.001  10.709
59665SOL    HW280893   6.380   2.131  10.753
59666SOL     OW80894  14.488  13.492  10.949
59666SOL    HW180895  14.451  13.424  10.893
59666SOL    HW280896  14.561  13.528  10.899
59667SOL     OW80897  14.018  10.762  14.331
59667SOL    HW180898  14.101  10.752  14.284
59667SOL    HW280899  13.962  10.693  14.296
59668SOL     OW80900   7.456   5.816   8.207
59668SOL    HW180901   7.412   5.811   8.122
59668SOL    HW280902   7.412   5.751   8.261
59669SOL     OW80903   5.596   9.688   6.104
59669SOL    HW180904   5.534   9.704   6.175
59669SOL    HW280905   5.544   9.697   6.024
59670SOL     OW80906   4.980   8.837   4.690
59670SOL    HW180907   5.031   8.831   4.770
59670SOL    HW280908   4.914   8.768   4.698
59671SOL     OW80909   9.854  14.329   1.356
59671SOL    HW180910   9.856  14.390   1.430
59671SOL    HW280911   9.786  14.364   1.298
59672SOL     OW80912   4.323   0.957  12.358
59672SOL    HW180913   4.281   1.029  12.405
59672SOL    HW280914   4.396   0.998  12.312
59673SOL     OW80915   9.212   4.571   0.267
59673SOL    HW180916   9.207   4.506   0.196
59673SOL    HW280917   9.230   4.519   0.345
59674SOL     OW80918   7.818  12.782  13.504
59674SOL    HW180919   7.895  12.726  13.498
59674SOL    HW280920   7.853  12.871  13.498
59675SOL     OW80921   5.253   1.380  12.731
59675SOL    HW180922   5.283   1.379  12.640
59675SOL    HW280923   5.157   1.379  12.724
59676SOL     OW80924   9.157  14.369  13.121
59676SOL    HW180925   9.211  14.430  13.070
59676SOL    HW280926   9.070  14.409  13.122
59677SOL     OW80927   6.017   2.984  14.792
59677SOL    HW180928   5.932   2.949  14.817
59677SOL    HW280929   6.006   3.011  14.701
59678SOL     OW80930   9.856  14.216   4.828
59678SOL    HW180931   9.782  14.277   4.823
59678SOL    HW280932   9.931  14.266   4.795
59679SOL     OW80933  14.721   5.744   2.982
59679SOL    HW180934  14.731   5.838   2.971
59679SOL    HW280935  14.693   5.733   3.072
59680SOL     OW80936   3.862  13.834  11.002
59680SOL    HW180937   3.928  13.873  11.058
59680SOL    HW280938   3.819  13.768  11.057
59681SOL     OW80939   4.486  13.967  10.193
59681SOL    HW180940   4.493  13.951  10.288
59681SOL    HW280941   4.576  13.967  10.162
59682SOL     OW80942   7.429  10.728   4.371
59682SOL    HW180943   7.335  10.732   4.390
59682SOL    HW280944   7.434  10.687   4.284
59683SOL     OW80945   8.362   0.462   6.398
59683SOL    HW180946   8.343   0.481   6.306
59683SOL    HW280947   8.421   0.532   6.425
59684SOL     OW80948   3.081  11.281  12.263
59684SOL    HW180949   3.071  11.309  12.355
59684SOL    HW280950   3.175  11.275  12.250
59685SOL     OW80951   3.039   1.597   4.775
59685SOL    HW180952   3.002   1.581   4.862
59685SOL    HW280953   3.131   1.615   4.790
59686SOL     OW80954   8.458   1.268   2.172
59686SOL    HW180955   8.385   1.260   2.233
59686SOL    HW280956   8.437   1.345   2.119
59687SOL     OW80957   4.650   7.600   4.840
59687SOL    HW180958   4.630   7.694   4.841
59687SOL    HW280959   4.725   7.593   4.782
59688SOL     OW80960  13.756  10.181   9.651
59688SOL    HW180961  13.663  10.157   9.648
59688SOL    HW280962  13.758  10.262   9.702
59689SOL     OW80963   8.898   2.494   4.418
59689SOL    HW180964   8.919   2.415   4.367
59689SOL    HW280965   8.984   2.530   4.442
59690SOL     OW80966   3.250  13.143  10.626
59690SOL    HW180967   3.205  13.218  10.587
59690SOL    HW280968   3.183  13.102  10.682
59691SOL     OW80969   5.712   6.706   4.545
59691SOL    HW180970   5.655   6.781   4.530
59691SOL    HW280971   5.749   6.687   4.459
59692SOL     OW80972   0.370  14.439   5.552
59692SOL    HW180973   0.394  14.350   5.581
59692SOL    HW280974   0.359  14.431   5.458
59693SOL     OW80975   0.215   4.647   4.612
59693SOL    HW180976   0.138   4.649   4.669
59693SOL    HW280977   0.194   4.709   4.542
59694SOL     OW80978   3.052   8.658   9.717
59694SOL    HW180979   3.099   8.690   9.639
59694SOL    HW280980   2.985   8.724   9.733
59695SOL     OW80981   2.752  11.475  11.461
59695SOL    HW180982   2.757  11.530  11.539
59695SOL    HW280983   2.749  11.385  11.496
59696SOL     OW80984   6.413  12.906  11.028
59696SOL    HW180985   6.447  12.854  11.101
59696SOL    HW280986   6.489  12.951  10.993
59697SOL     OW80987  14.022   5.628  13.516
59697SOL    HW180988  14.009   5.710  13.564
59697SOL    HW280989  14.117   5.624  13.503
59698SOL     OW80990   6.060  13.639   6.078
59698SOL    HW180991   6.066  13.729   6.110
59698SOL    HW280992   6.115  13.637   6.000
59699SOL     OW80993  11.956  13.083   9.339
59699SOL    HW180994  11.861  13.082   9.350
59699SOL    HW280995  11.972  13.142   9.265
59700SOL     OW80996   3.689   7.115   6.442
59700SOL    HW180997   3.735   7.141   6.362
59700SOL    HW280998   3.747   7.053   6.485
59701SOL     OW80999   8.089   1.884   5.280
59701SOL    HW181000   8.100   1.959   5.221
59701SOL    HW281001   8.179   1.861   5.306
59702SOL     OW81002  13.803   6.529  11.676
59702SOL    HW181003  13.827   6.603  11.733
59702SOL    HW281004  13.864   6.535  11.603
59703SOL     OW81005   9.427   8.078  11.110
59703SOL    HW181006   9.353   8.017  11.115
59703SOL    HW281007   9.398   8.147  11.051
59704SOL     OW81008  12.475   7.486  10.546
59704SOL    HW181009  12.566   7.515  10.557
59704SOL    HW281010  12.423   7.552  10.592
59705SOL     OW81011   3.635  14.808   0.642
59705SOL    HW181012   3.686  14.735   0.676
59705SOL    HW281013   3.550  14.769   0.620
59706SOL     OW81014   2.707   5.044   7.090
59706SOL    HW181015   2.659   4.961   7.095
59706SOL    HW281016   2.767   5.041   7.165
59707SOL     OW81017  14.814   1.920   2.355
59707SOL    HW181018  14.827   1.999   2.302
59707SOL    HW281019  14.800   1.953   2.444
59708SOL     OW81020   2.740   3.794  14.558
59708SOL    HW181021   2.833   3.784  14.575
59708SOL    HW281022   2.715   3.873  14.605
59709SOL     OW81023   7.140  12.561   5.941
59709SOL    HW181024   7.098  12.644   5.965
59709SOL    HW281025   7.084  12.525   5.872
59710SOL     OW81026  14.386   7.398   2.198
59710SOL    HW181027  14.469   7.434   2.170
59710SOL    HW281028  14.344   7.368   2.117
59711SOL     OW81029   5.875  10.355   5.509
59711SOL    HW181030   5.805  10.297   5.478
59711SOL    HW281031   5.863  10.435   5.459
59712SOL     OW81032  10.186   7.109   8.202
59712SOL    HW181033  10.092   7.117   8.184
59712SOL    HW281034  10.192   7.038   8.266
59713SOL     OW81035   0.818   1.526   4.996
59713SOL    HW181036   0.811   1.496   4.905
59713SOL    HW281037   0.735   1.572   5.011
59714SOL     OW81038  13.768   5.128  12.069
59714SOL    HW181039  13.804   5.182  12.139
59714SOL    HW281040  13.703   5.072  12.113
59715SOL     OW81041   4.994   4.111  12.607
59715SOL    HW181042   5.046   4.187  12.632
59715SOL    HW281043   4.978   4.063  12.689
59716SOL     OW81044  12.163   1.564  14.101
59716SOL    HW181045  12.181   1.568  14.007
59716SOL    HW281046  12.123   1.478  14.114
59717SOL     OW81047  14.100  12.272   2.655
59717SOL    HW181048  14.112  12.250   2.748
59717SOL    HW281049  14.188  12.269   2.618
59718SOL     OW81050   4.620   0.445  12.703
59718SOL    HW181051   4.697   0.459  12.758
59718SOL    HW281052   4.654   0.440  12.614
59719SOL     OW81053  13.905  12.657   7.567
59719SOL    HW181054  13.866  12.569   7.561
59719SOL    HW281055  13.903  12.690   7.478
59720SOL     OW81056   6.920  11.201   8.205
59720SOL    HW181057   6.922  11.268   8.274
59720SOL    HW281058   6.969  11.240   8.133
59721SOL     OW81059   5.507   4.857   6.464
59721SOL    HW181060   5.500   4.941   6.418
59721SOL    HW281061   5.507   4.792   6.394
59722SOL     OW81062   5.547  11.836   7.595
59722SOL    HW181063   5.539  11.797   7.682
59722SOL    HW281064   5.462  11.879   7.580
59723SOL     OW81065  12.089   6.415   7.922
59723SOL    HW181066  12.000   6.439   7.948
59723SOL    HW281067  12.076   6.351   7.852
59724SOL     OW81068   7.797   2.309   8.978
59724SOL    HW181069   7.804   2.404   8.970
59724SOL    HW281070   7.862   2.285   9.045
59725SOL     OW81071   1.876  10.582   9.439
59725SOL    HW181072   1.887  10.629   9.521
59725SOL    HW281073   1.784  10.556   9.438
59726SOL     OW81074   9.628   6.825   4.781
59726SOL    HW181075   9.583   6.873   4.712
59726SOL    HW281076   9.671   6.753   4.736
59727SOL     OW81077   3.397   8.033   5.172
59727SOL    HW181078   3.310   8.006   5.199
59727SOL    HW281079   3.386   8.062   5.081
59728SOL     OW81080   1.103   9.798   5.811
59728SOL    HW181081   1.135   9.877   5.855
59728SOL    HW281082   1.030   9.769   5.865
59729SOL     OW81083   3.425  12.956   1.658
59729SOL    HW181084   3.458  12.891   1.596
59729SOL    HW281085   3.400  12.905   1.735
59730SOL     OW81086   1.192  12.210   2.650
59730SOL    HW181087   1.256  12.278   2.671
59730SOL    HW281088   1.146  12.243   2.573
59731SOL     OW81089  10.822   4.158  10.374
59731SOL    HW181090  10.876   4.107  10.314
59731SOL    HW281091  10.867   4.150  10.459
59732SOL     OW81092   8.071  10.679   2.161
59732SOL    HW181093   8.061  10.598   2.113
59732SOL    HW281094   8.002  10.736   2.128
59733SOL     OW81095   7.788  12.813   5.573
59733SOL    HW181096   7.786  12.834   5.667
59733SOL    HW281097   7.703  12.842   5.540
59734SOL     OW81098  10.869  14.350  12.066
59734SOL    HW181099  10.917  14.285  12.118
59734SOL    HW281100  10.938  14.406  12.029
59735SOL     OW81101   3.408   6.468   1.111
59735SOL    HW181102   3.489   6.516   1.129
59735SOL    HW281103   3.343   6.536   1.097
59736SOL     OW81104   7.351  13.905   9.706
59736SOL    HW181105   7.387  13.987   9.674
59736SOL    HW281106   7.267  13.896   9.660
59737SOL     OW81107   8.081  11.783   7.969
59737SOL    HW181108   8.129  11.818   7.895
59737SOL    HW281109   8.129  11.703   7.993
59738SOL     OW81110   3.564   2.802  14.113
59738SOL    HW181111   3.505   2.835  14.180
59738SOL    HW281112   3.639   2.768  14.161
59739SOL     OW81113  14.389   9.157   4.070
59739SOL    HW181114  14.353   9.131   4.155
59739SOL    HW281115  14.365   9.086   4.011
59740SOL     OW81116   1.281  12.065   9.066
59740SOL    HW181117   1.206  12.123   9.080
59740SOL    HW281118   1.245  11.977   9.065
59741SOL     OW81119  10.575  14.388   6.096
59741SOL    HW181120  10.552  14.481   6.088
59741SOL    HW281121  10.662  14.382   6.056
59742SOL     OW81122   0.742   4.269  11.815
59742SOL    HW181123   0.736   4.192  11.759
59742SOL    HW281124   0.718   4.237  11.902
59743SOL     OW81125   9.483   3.091   6.830
59743SOL    HW181126   9.396   3.055   6.816
59743SOL    HW281127   9.469   3.163   6.893
59744SOL     OW81128  12.360   6.584   4.102
59744SOL    HW181129  12.380   6.552   4.014
59744SOL    HW281130  12.445   6.592   4.144
59745SOL     OW81131  13.839  10.946   0.687
59745SOL    HW181132  13.764  10.971   0.741
59745SOL    HW281133  13.907  10.922   0.750
59746SOL     OW81134   7.737   9.672  13.211
59746SOL    HW181135   7.813   9.726  13.235
59746SOL    HW281136   7.673   9.734  13.176
59747SOL     OW81137  14.108   5.724   7.844
59747SOL    HW181138  14.013   5.728   7.837
59747SOL    HW281139  14.139   5.726   7.753
59748SOL     OW81140  14.329   7.430  11.371
59748SOL    HW181141  14.337   7.502  11.309
59748SOL    HW281142  14.418   7.393  11.376
59749SOL     OW81143   0.177   5.150   7.557
59749SOL    HW181144   0.101   5.170   7.612
59749SOL    HW281145   0.245   5.209   7.589
59750SOL     OW81146  11.308   9.273  12.113
59750SOL    HW181147  11.242   9.206  12.093
59750SOL    HW281148  11.262   9.356  12.102
59751SOL     OW81149   6.059   8.951  14.382
59751SOL    HW181150   6.012   9.032  14.400
59751SOL    HW281151   6.095   8.925  14.467
59752SOL     OW81152   7.548  10.474   2.729
59752SOL    HW181153   7.461  10.498   2.759
59752SOL    HW281154   7.607  10.534   2.776
59753SOL     OW81155   2.793   9.876   6.533
59753SOL    HW181156   2.805   9.896   6.440
59753SOL    HW281157   2.786   9.962   6.576
59754SOL     OW81158   0.682  14.769   9.808
59754SOL    HW181159   0.746  14.786   9.739
59754SOL    HW281160   0.691  14.843   9.868
59755SOL     OW81161   0.459   0.021  10.400
59755SOL    HW181162   0.384   0.015  10.341
59755SOL    HW281163   0.535   0.019  10.342
59756SOL     OW81164  13.198   5.687  10.944
59756SOL    HW181165  13.264   5.754  10.926
59756SOL    HW281166  13.122   5.737  10.975
59757SOL     OW81167  10.693   0.225   5.868
59757SOL    HW181168  10.778   0.267   5.881
59757SOL    HW281169  10.691   0.155   5.933
59758SOL     OW81170   4.416   4.442  11.040
59758SOL    HW181171   4.497   4.490  11.058
59758SOL    HW281172   4.441   4.379  10.972
59759SOL     OW81173  11.099   9.113   1.827
59759SOL    HW181174  11.087   9.134   1.920
59759SOL    HW281175  11.173   9.053   1.825
59760SOL     OW81176   9.659  11.174  14.377
59760SOL    HW181177   9.588  11.123  14.338
59760SOL    HW281178   9.671  11.136  14.464
59761SOL     OW81179   2.666  13.022   8.566
59761SOL    HW181180   2.638  13.071   8.643
59761SOL    HW281181   2.662  12.930   8.594
59762SOL     OW81182   0.882   3.477   1.181
59762SOL    HW181183   0.923   3.531   1.112
59762SOL    HW281184   0.852   3.540   1.246
59763SOL     OW81185   9.712   9.732   9.243
59763SOL    HW181186   9.805   9.711   9.234
59763SOL    HW281187   9.667   9.664   9.193
59764SOL     OW81188   6.113   5.025   3.908
59764SOL    HW181189   6.163   4.966   3.964
59764SOL    HW281190   6.175   5.094   3.884
59765SOL     OW81191   7.547   0.357  11.808
59765SOL    HW181192   7.641   0.377  11.809
59765SOL    HW281193   7.528   0.343  11.715
59766SOL     OW81194  11.943   5.971  13.995
59766SOL    HW181195  11.898   5.894  14.030
59766SOL    HW281196  11.876   6.040  13.998
59767SOL     OW81197   5.934  13.865   0.021
59767SOL    HW181198   5.968  13.897  14.816
59767SOL    HW281199   6.003  13.808   0.054
59768SOL     OW81200   4.064   7.711   6.640
59768SOL    HW181201   4.045   7.777   6.573
59768SOL    HW281202   4.156   7.687   6.624
59769SOL     OW81203   4.301   1.577  10.515
59769SOL    HW181204   4.327   1.523  10.590
59769SOL    HW281205   4.206   1.575  10.517
59770SOL     OW81206   6.966   1.752  10.076
59770SOL    HW181207   7.032   1.685  10.095
59770SOL    HW281208   6.919   1.719  10.000
59771SOL     OW81209   1.602   6.794   2.573
59771SOL    HW181210   1.611   6.832   2.661
59771SOL    HW281211   1.522   6.742   2.577
59772SOL     OW81212   8.885  14.799  14.451
59772SOL    HW181213   8.854  14.722  14.499
59772SOL    HW281214   8.891  14.868  14.516
59773SOL     OW81215   9.800   0.517   8.879
59773SOL    HW181216   9.813   0.612   8.883
59773SOL    HW281217   9.888   0.482   8.860
59774SOL     OW81218   8.200   6.333  11.205
59774SOL    HW181219   8.178   6.332  11.298
59774SOL    HW281220   8.137   6.394  11.166
59775SOL     OW81221   7.868  14.005   0.566
59775SOL    HW181222   7.886  14.095   0.539
59775SOL    HW281223   7.807  14.014   0.639
59776SOL     OW81224   3.078  10.284   6.884
59776SOL    HW181225   3.139  10.327   6.823
59776SOL    HW281226   3.132  10.219   6.930
59777SOL     OW81227  14.137   8.291  13.998
59777SOL    HW181228  14.164   8.382  14.005
59777SOL    HW281229  14.043   8.296  13.978
59778SOL     OW81230  10.387   9.983  14.834
59778SOL    HW181231  10.358   9.905  14.785
59778SOL    HW281232  10.479   9.993  14.809
59779SOL     OW81233  13.285  12.475  10.666
59779SOL    HW181234  13.303  12.537  10.595
59779SOL    HW281235  13.190  12.475  10.675
59780SOL     OW81236   7.386   5.858   9.606
59780SOL    HW181237   7.438   5.831   9.531
59780SOL    HW281238   7.346   5.941   9.578
59781SOL     OW81239  12.302  10.449   9.508
59781SOL    HW181240  12.241  10.522   9.517
59781SOL    HW281241  12.276  10.387   9.577
59782SOL     OW81242   4.788   9.033   8.045
59782SOL    HW181243   4.794   9.116   7.997
59782SOL    HW281244   4.774   9.060   8.136
59783SOL     OW81245  12.689   5.525   9.366
59783SOL    HW181246  12.722   5.614   9.350
59783SOL    HW281247  12.757   5.467   9.331
59784SOL     OW81248  11.738   7.082   4.889
59784SOL    HW181249  11.772   7.158   4.841
59784SOL    HW281250  11.727   7.015   4.822
59785SOL     OW81251   9.189   3.560   4.388
59785SOL    HW181252   9.093   3.562   4.391
59785SOL    HW281253   9.211   3.600   4.304
59786SOL     OW81254  13.387   9.377  14.835
59786SOL    HW181255  13.314   9.438  14.823
59786SOL    HW281256  13.383   9.353   0.048
59787SOL     OW81257  12.306  10.461  13.697
59787SOL    HW181258  12.393  10.466  13.735
59787SOL    HW281259  12.246  10.466  13.772
59788SOL     OW81260   0.960  13.387   5.610
59788SOL    HW181261   1.050  13.415   5.629
59788SOL    HW281262   0.959  13.294   5.635
59789SOL     OW81263   5.560   9.290  10.605
59789SOL    HW181264   5.510   9.310  10.525
59789SOL    HW281265   5.513   9.217  10.644
59790SOL     OW81266   8.124   4.797   1.290
59790SOL    HW181267   8.111   4.891   1.280
59790SOL    HW281268   8.143   4.766   1.201
59791SOL     OW81269   9.222  13.196   1.024
59791SOL    HW181270   9.133  13.168   1.002
59791SOL    HW281271   9.276  13.163   0.952
59792SOL     OW81272  14.738   7.416   4.885
59792SOL    HW181273  14.697   7.498   4.857
59792SOL    HW281274  14.826   7.440   4.911
59793SOL     OW81275   3.327  13.172   8.841
59793SOL    HW181276   3.333  13.236   8.769
59793SOL    HW281277   3.415  13.171   8.879
59794SOL     OW81278  14.784   9.555   7.174
59794SOL    HW181279  14.876   9.581   7.167
59794SOL    HW281280  14.736   9.637   7.178
59795SOL     OW81281  10.405  10.753  13.409
59795SOL    HW181282  10.381  10.737  13.318
59795SOL    HW281283  10.365  10.682  13.458
59796SOL     OW81284   6.393  13.167   0.352
59796SOL    HW181285   6.448  13.202   0.422
59796SOL    HW281286   6.370  13.243   0.299
59797SOL     OW81287  10.403  14.103   3.503
59797SOL    HW181288  10.340  14.162   3.545
59797SOL    HW281289  10.386  14.017   3.542
59798SOL     OW81290  10.993   6.026   2.420
59798SOL    HW181291  11.011   5.980   2.503
59798SOL    HW281292  11.076   6.067   2.397
59799SOL     OW81293   1.735   5.748  10.781
59799SOL    HW181294   1.771   5.697  10.853
59799SOL    HW281295   1.672   5.689  10.739
59800SOL     OW81296  11.726  13.334   4.646
59800SOL    HW181297  11.641  13.291   4.660
59800SOL    HW281298  11.786  13.261   4.628
59801SOL     OW81299   7.257  11.001   1.435
59801SOL    HW181300   7.336  11.046   1.404
59801SOL    HW281301   7.225  10.954   1.358
59802SOL     OW81302  14.312   0.705   1.954
59802SOL    HW181303  14.290   0.631   1.897
59802SOL    HW281304  14.391   0.677   2.000
59803SOL     OW81305   1.132   1.240  10.139
59803SOL    HW181306   1.185   1.234  10.219
59803SOL    HW281307   1.148   1.328  10.106
59804SOL     OW81308  12.265   8.598   3.820
59804SOL    HW181309  12.190   8.594   3.880
59804SOL    HW281310  12.317   8.671   3.852
59805SOL     OW81311   1.834   3.746   0.478
59805SOL    HW181312   1.879   3.815   0.429
59805SOL    HW281313   1.895   3.673   0.478
59806SOL     OW81314   0.444   8.726  13.670
59806SOL    HW181315   0.527   8.725  13.623
59806SOL    HW281316   0.410   8.814  13.657
59807SOL     OW81317   0.341   2.817   1.037
59807SOL    HW181318   0.411   2.877   1.061
59807SOL    HW281319   0.377   2.765   0.965
59808SOL     OW81320  12.551   4.687   7.249
59808SOL    HW181321  12.504   4.669   7.168
59808SOL    HW281322  12.560   4.782   7.251
59809SOL     OW81323  10.728  10.042  14.306
59809SOL    HW181324  10.808  10.086  14.335
59809SOL    HW281325  10.665  10.059  14.375
59810SOL     OW81326  10.929   7.796   0.294
59810SOL    HW181327  10.838   7.769   0.290
59810SOL    HW281328  10.950   7.798   0.388
59811SOL     OW81329   6.144   4.408   7.558
59811SOL    HW181330   6.142   4.316   7.582
59811SOL    HW281331   6.193   4.450   7.628
59812SOL     OW81332   3.855  11.078   4.185
59812SOL    HW181333   3.897  11.021   4.249
59812SOL    HW281334   3.835  11.020   4.112
59813SOL     OW81335   2.452   3.436   8.956
59813SOL    HW181336   2.400   3.356   8.970
59813SOL    HW281337   2.416   3.474   8.876
59814SOL     OW81338   4.735   0.854   9.309
59814SOL    HW181339   4.712   0.935   9.263
59814SOL    HW281340   4.653   0.824   9.348
59815SOL     OW81341  10.425  10.200   3.363
59815SOL    HW181342  10.402  10.249   3.442
59815SOL    HW281343  10.493  10.139   3.392
59816SOL     OW81344   1.725  10.895   4.329
59816SOL    HW181345   1.662  10.834   4.291
59816SOL    HW281346   1.681  10.980   4.323
59817SOL     OW81347   9.385   8.965  10.240
59817SOL    HW181348   9.316   8.978  10.176
59817SOL    HW281349   9.418   9.053  10.259
59818SOL     OW81350   3.439   6.728  10.786
59818SOL    HW181351   3.463   6.713  10.878
59818SOL    HW281352   3.509   6.687  10.736
59819SOL     OW81353   2.848   0.054  10.720
59819SOL    HW181354   2.924   0.054  10.779
59819SOL    HW281355   2.881   0.093  10.639
59820SOL     OW81356   6.335   2.958   6.284
59820SOL    HW181357   6.420   2.984   6.249
59820SOL    HW281358   6.276   2.960   6.209
59821SOL     OW81359   4.573   9.381   0.370
59821SOL    HW181360   4.631   9.327   0.317
59821SOL    HW281361   4.617   9.466   0.374
59822SOL     OW81362   6.482  11.005   7.675
59822SOL    HW181363   6.416  10.942   7.705
59822SOL    HW281364   6.440  11.090   7.685
59823SOL     OW81365   0.080  13.185   4.969
59823SOL    HW181366   0.110  13.128   4.898
59823SOL    HW281367  14.865  13.174   4.971
59824SOL     OW81368  10.752  13.170   2.578
59824SOL    HW181369  10.789  13.084   2.558
59824SOL    HW281370  10.803  13.231   2.526
59825SOL     OW81371  11.605  12.953  12.346
59825SOL    HW181372  11.618  13.023  12.282
59825SOL    HW281373  11.515  12.923  12.330
59826SOL     OW81374   0.374   4.862  12.535
59826SOL    HW181375   0.381   4.955  12.514
59826SOL    HW281376   0.322   4.824  12.464
59827SOL     OW81377  11.159   7.450   6.627
59827SOL    HW181378  11.106   7.399   6.688
59827SOL    HW281379  11.097   7.510   6.586
59828SOL     OW81380   9.822   6.451   3.537
59828SOL    HW181381   9.819   6.401   3.619
59828SOL    HW281382   9.748   6.511   3.543
59829SOL     OW81383   9.336  11.945   7.962
59829SOL    HW181384   9.336  12.036   7.933
59829SOL    HW281385   9.262  11.905   7.917
59830SOL     OW81386   8.066  12.545  10.905
59830SOL    HW181387   8.157  12.575  10.908
59830SOL    HW281388   8.050  12.527  10.813
59831SOL     OW81389  12.752   0.023   7.085
59831SOL    HW181390  12.799   0.033   7.003
59831SOL    HW281391  12.664   0.057   7.068
59832SOL     OW81392   6.964   7.408   4.503
59832SOL    HW181393   6.881   7.402   4.552
59832SOL    HW281394   6.950   7.479   4.441
59833SOL     OW81395   8.423  10.347  11.222
59833SOL    HW181396   8.339  10.323  11.262
59833SOL    HW281397   8.423  10.443  11.221
59834SOL     OW81398   9.215   4.417  13.958
59834SOL    HW181399   9.265   4.475  14.016
59834SOL    HW281400   9.159   4.366  14.018
59835SOL     OW81401   0.545   9.620  13.555
59835SOL    HW181402   0.512   9.687  13.494
59835SOL    HW281403   0.562   9.668  13.636
59836SOL     OW81404   8.115   6.391   4.927
59836SOL    HW181405   8.191   6.430   4.971
59836SOL    HW281406   8.049   6.460   4.928
59837SOL     OW81407   5.870  11.009   8.715
59837SOL    HW181408   5.837  11.083   8.664
59837SOL    HW281409   5.965  11.022   8.718
59838SOL     OW81410  14.814   3.999  12.196
59838SOL    HW181411  14.875   3.938  12.155
59838SOL    HW281412  14.729   3.980  12.156
59839SOL     OW81413   9.907   4.192   2.232
59839SOL    HW181414   9.956   4.130   2.285
59839SOL    HW281415   9.936   4.175   2.142
59840SOL     OW81416   5.086  12.994  13.622
59840SOL    HW181417   5.108  13.075  13.670
59840SOL    HW281418   5.166  12.943  13.622
59841SOL     OW81419   6.236   1.184   0.553
59841SOL    HW181420   6.228   1.091   0.573
59841SOL    HW281421   6.279   1.221   0.630
59842SOL     OW81422   4.801  11.961  14.231
59842SOL    HW181423   4.732  12.027  14.237
59842SOL    HW281424   4.789  11.922  14.144
59843SOL     OW81425   5.359   3.051   3.666
59843SOL    HW181426   5.283   3.005   3.632
59843SOL    HW281427   5.434   3.009   3.622
59844SOL     OW81428  14.173   5.802   8.206
59844SOL    HW181429  14.108   5.832   8.270
59844SOL    HW281430  14.187   5.877   8.149
59845SOL     OW81431   9.032   2.631   8.022
59845SOL    HW181432   8.947   2.588   8.016
59845SOL    HW281433   9.074   2.591   8.098
59846SOL     OW81434   0.727  11.547   0.186
59846SOL    HW181435   0.815  11.583   0.177
59846SOL    HW281436   0.729  11.500   0.270
59847SOL     OW81437  13.932   3.019  11.183
59847SOL    HW181438  13.959   3.095  11.234
59847SOL    HW281439  14.009   2.998  11.129
59848SOL     OW81440  11.839  13.965   5.928
59848SOL    HW181441  11.780  13.891   5.944
59848SOL    HW281442  11.920  13.943   5.973
59849SOL     OW81443   6.632   7.049  11.675
59849SOL    HW181444   6.564   7.048  11.743
59849SOL    HW281445   6.625   7.136  11.636
59850SOL     OW81446   7.828   1.546   5.850
59850SOL    HW181447   7.845   1.457   5.882
59850SOL    HW281448   7.837   1.539   5.755
59851SOL     OW81449  10.040  13.557   4.780
59851SOL    HW181450   9.949  13.586   4.778
59851SOL    HW281451  10.047  13.510   4.863
59852SOL     OW81452  12.092   1.192   4.664
59852SOL    HW181453  12.150   1.185   4.740
59852SOL    HW281454  12.143   1.242   4.600
59853SOL     OW81455   0.912   2.542   9.653
59853SOL    HW181456   0.929   2.623   9.605
59853SOL    HW281457   0.890   2.478   9.586
59854SOL     OW81458  14.392  14.506  14.362
59854SOL    HW181459  14.436  14.456  14.293
59854SOL    HW281460  14.450  14.499  14.438
59855SOL     OW81461   4.375   9.933  14.093
59855SOL    HW181462   4.468   9.951  14.106
59855SOL    HW281463   4.359   9.954  14.001
59856SOL     OW81464   9.743   8.954   0.362
59856SOL    HW181465   9.799   8.936   0.438
59856SOL    HW281466   9.674   8.887   0.367
59857SOL     OW81467   8.712   8.739  12.468
59857SOL    HW181468   8.671   8.672  12.413
59857SOL    HW281469   8.804   8.714  12.472
59858SOL     OW81470   3.992   0.329   2.779
59858SOL    HW181471   4.036   0.322   2.864
59858SOL    HW281472   4.060   0.310   2.715
59859SOL     OW81473   5.835   7.770   1.814
59859SOL    HW181474   5.744   7.758   1.839
59859SOL    HW281475   5.832   7.797   1.722
59860SOL     OW81476   5.194  12.709   1.186
59860SOL    HW181477   5.236  12.657   1.254
59860SOL    HW281478   5.227  12.798   1.199
59861SOL     OW81479  10.394   7.422   9.254
59861SOL    HW181480  10.450   7.404   9.329
59861SOL    HW281481  10.311   7.449   9.292
59862SOL     OW81482  13.825   9.230   1.871
59862SOL    HW181483  13.834   9.297   1.804
59862SOL    HW281484  13.738   9.193   1.856
59863SOL     OW81485   2.526   1.370   4.129
59863SOL    HW181486   2.552   1.458   4.156
59863SOL    HW281487   2.506   1.377   4.036
59864SOL     OW81488   6.890  14.855   3.278
59864SOL    HW181489   6.977  14.870   3.317
59864SOL    HW281490   6.894  14.766   3.243
59865SOL     OW81491   8.628   9.585  12.245
59865SOL    HW181492   8.707   9.582  12.192
59865SOL    HW281493   8.659   9.609  12.332
59866SOL     OW81494  11.630  13.281  14.244
59866SOL    HW181495  11.666  13.369  14.233
59866SOL    HW281496  11.572  13.269  14.168
59867SOL     OW81497   6.872   9.258   8.538
59867SOL    HW181498   6.965   9.238   8.551
59867SOL    HW281499   6.865   9.279   8.445
59868SOL     OW81500   0.885  14.613   5.662
59868SOL    HW181501   0.803  14.614   5.712
59868SOL    HW281502   0.945  14.560   5.715
59869SOL     OW81503   5.968   4.063   7.516
59869SOL    HW181504   5.959   3.968   7.530
59869SOL    HW281505   6.023   4.092   7.589
59870SOL     OW81506   4.347   5.622  14.341
59870SOL    HW181507   4.310   5.711  14.342
59870SOL    HW281508   4.351   5.599  14.249
59871SOL     OW81509  12.042  13.056   2.623
59871SOL    HW181510  12.125  13.066   2.670
59871SOL    HW281511  12.053  13.108   2.544
59872SOL     OW81512  14.172  10.229  14.006
59872SOL    HW181513  14.193  10.292  13.937
59872SOL    HW281514  14.244  10.167  14.005
59873SOL     OW81515  11.226   2.234  10.537
59873SOL    HW181516  11.187   2.161  10.488
59873SOL    HW281517  11.306   2.197  10.575
59874SOL     OW81518   5.757   2.375   4.296
59874SOL    HW181519   5.747   2.300   4.355
59874SOL    HW281520   5.770   2.450   4.354
59875SOL     OW81521   0.255   0.066   2.248
59875SOL    HW181522   0.271  14.863   2.202
59875SOL    HW281523   0.297   0.132   2.193
59876SOL     OW81524  10.494   6.970   4.137
59876SOL    HW181525  10.435   6.942   4.067
59876SOL    HW281526  10.488   7.066   4.137
59877SOL     OW81527  13.507   5.157   4.695
59877SOL    HW181528  13.444   5.130   4.628
59877SOL    HW281529  13.459   5.151   4.777
59878SOL     OW81530   6.082  13.330   9.644
59878SOL    HW181531   6.078  13.240   9.614
59878SOL    HW281532   6.056  13.382   9.567
59879SOL     OW81533  11.982  13.991   3.070
59879SOL    HW181534  12.020  13.906   3.090
59879SOL    HW281535  12.038  14.054   3.114
59880SOL     OW81536   6.438  14.250   2.918
59880SOL    HW181537   6.418  14.342   2.937
59880SOL    HW281538   6.506  14.254   2.851
59881SOL     OW81539   6.518   7.990   4.894
59881SOL    HW181540   6.457   8.037   4.952
59881SOL    HW281541   6.605   8.013   4.928
59882SOL     OW81542   1.664  10.315   6.230
59882SOL    HW181543   1.638  10.406   6.241
59882SOL    HW281544   1.757  10.314   6.253
59883SOL     OW81545   8.316  10.322   8.772
59883SOL    HW181546   8.288  10.383   8.704
59883SOL    HW281547   8.308  10.372   8.854
59884SOL     OW81548   3.127  11.130   4.303
59884SOL    HW181549   3.105  11.039   4.281
59884SOL    HW281550   3.044  11.169   4.329
59885SOL     OW81551   4.458   6.963   3.004
59885SOL    HW181552   4.468   6.868   2.995
59885SOL    HW281553   4.507   6.985   3.083
59886SOL     OW81554  14.830  10.045   8.668
59886SOL    HW181555  14.809   9.968   8.720
59886SOL    HW281556  14.804  10.119   8.723
59887SOL     OW81557   8.945  11.923  12.961
59887SOL    HW181558   8.998  11.854  13.000
59887SOL    HW281559   8.906  11.882  12.884
59888SOL     OW81560   6.743  13.307   3.429
59888SOL    HW181561   6.836  13.331   3.436
59888SOL    HW281562   6.708  13.324   3.517
59889SOL     OW81563   2.500   0.058   5.496
59889SOL    HW181564   2.514   0.101   5.412
59889SOL    HW281565   2.507  14.844   5.477
59890SOL     OW81566   3.206   4.497   5.753
59890SOL    HW181567   3.248   4.575   5.789
59890SOL    HW281568   3.117   4.525   5.732
59891SOL     OW81569  11.526  12.256  12.721
59891SOL    HW181570  11.580  12.195  12.671
59891SOL    HW281571  11.578  12.277  12.798
59892SOL     OW81572  12.119  13.051   4.571
59892SOL    HW181573  12.094  13.019   4.485
59892SOL    HW281574  12.102  13.145   4.569
59893SOL     OW81575   5.366   2.949   2.807
59893SOL    HW181576   5.405   3.036   2.796
59893SOL    HW281577   5.309   2.938   2.731
59894SOL     OW81578  14.170   3.080  10.155
59894SOL    HW181579  14.120   3.070  10.236
59894SOL    HW281580  14.237   3.144  10.176
59895SOL     OW81581   9.952   2.278   9.399
59895SOL    HW181582  10.025   2.237   9.446
59895SOL    HW281583   9.875   2.225   9.423
59896SOL     OW81584   6.832   2.358   0.764
59896SOL    HW181585   6.762   2.322   0.710
59896SOL    HW281586   6.788   2.415   0.827
59897SOL     OW81587   7.984   5.358   1.594
59897SOL    HW181588   7.927   5.347   1.671
59897SOL    HW281589   7.991   5.453   1.583
59898SOL     OW81590   5.813   5.871   3.256
59898SOL    HW181591   5.791   5.900   3.344
59898SOL    HW281592   5.739   5.817   3.229
59899SOL     OW81593   4.777  14.479  14.587
59899SOL    HW181594   4.708  14.412  14.597
59899SOL    HW281595   4.748  14.552  14.641
59900SOL     OW81596  10.797   7.488   3.131
59900SOL    HW181597  10.840   7.453   3.053
59900SOL    HW281598  10.825   7.579   3.135
59901SOL     OW81599  13.763  13.524   1.422
59901SOL    HW181600  13.794  13.614   1.418
59901SOL    HW281601  13.739  13.510   1.513
59902SOL     OW81602   3.584   4.031  13.334
59902SOL    HW181603   3.614   4.110  13.379
59902SOL    HW281604   3.510   4.000  13.385
59903SOL     OW81605  10.060   3.118   5.866
59903SOL    HW181606  10.075   3.134   5.959
59903SOL    HW281607  10.133   3.061   5.840
59904SOL     OW81608  13.928   0.701   1.746
59904SOL    HW181609  13.926   0.717   1.652
59904SOL    HW281610  13.840   0.670   1.768
59905SOL     OW81611  13.564   7.949  13.703
59905SOL    HW181612  13.637   7.981  13.649
59905SOL    HW281613  13.487   7.961  13.648
59906SOL     OW81614  11.043  11.021   5.083
59906SOL    HW181615  11.034  11.049   5.175
59906SOL    HW281616  11.093  11.092   5.042
59907SOL     OW81617   0.317   6.060  14.205
59907SOL    HW181618   0.375   6.124  14.163
59907SOL    HW281619   0.249   6.042  14.140
59908SOL     OW81620   6.421   3.897   0.187
59908SOL    HW181621   6.389   3.883   0.099
59908SOL    HW281622   6.480   3.972   0.180
59909SOL     OW81623  13.894   8.838   9.993
59909SOL    HW181624  13.842   8.815  10.069
59909SOL    HW281625  13.947   8.760   9.974
59910SOL     OW81626  10.613   5.280   1.995
59910SOL    HW181627  10.558   5.202   1.996
59910SOL    HW281628  10.581   5.331   1.921
59911SOL     OW81629  12.087  13.492   9.924
59911SOL    HW181630  12.062  13.532  10.007
59911SOL    HW281631  12.125  13.563   9.873
59912SOL     OW81632   6.446   2.003   3.549
59912SOL    HW181633   6.458   1.932   3.486
59912SOL    HW281634   6.503   2.073   3.519
59913SOL     OW81635  11.653   7.225  11.643
59913SOL    HW181636  11.744   7.233  11.670
59913SOL    HW281637  11.647   7.139  11.604
59914SOL     OW81638   0.810   3.373   4.319
59914SOL    HW181639   0.818   3.325   4.402
59914SOL    HW281640   0.776   3.308   4.258
59915SOL     OW81641   1.937  14.724   7.763
59915SOL    HW181642   1.870  14.784   7.729
59915SOL    HW281643   1.946  14.657   7.696
59916SOL     OW81644   9.420  10.712   7.780
59916SOL    HW181645   9.481  10.773   7.739
59916SOL    HW281646   9.452  10.626   7.753
59917SOL     OW81647  12.256   3.203   9.101
59917SOL    HW181648  12.198   3.268   9.139
59917SOL    HW281649  12.343   3.244   9.102
59918SOL     OW81650   3.706  13.340  12.652
59918SOL    HW181651   3.714  13.248  12.627
59918SOL    HW281652   3.769  13.386  12.597
59919SOL     OW81653  11.492   5.968   4.360
59919SOL    HW181654  11.432   6.002   4.293
59919SOL    HW281655  11.579   5.980   4.322
59920SOL     OW81656   5.048   9.441   4.493
59920SOL    HW181657   4.954   9.427   4.488
59920SOL    HW281658   5.077   9.386   4.566
59921SOL     OW81659   7.470   8.801  11.887
59921SOL    HW181660   7.472   8.879  11.831
59921SOL    HW281661   7.562   8.772  11.889
59922SOL     OW81662  12.303   8.490   5.139
59922SOL    HW181663  12.315   8.398   5.163
59922SOL    HW281664  12.208   8.503   5.143
59923SOL     OW81665  13.141   5.989   2.301
59923SOL    HW181666  13.148   6.011   2.394
59923SOL    HW281667  13.053   5.952   2.291
59924SOL     OW81668  11.601  14.669   9.141
59924SOL    HW181669  11.630  14.596   9.086
59924SOL    HW281670  11.682  14.711   9.169
59925SOL     OW81671   2.758   5.096  12.165
59925SOL    HW181672   2.821   5.142  12.220
59925SOL    HW281673   2.754   5.148  12.084
59926SOL     OW81674   6.184   9.293   1.525
59926SOL    HW181675   6.164   9.385   1.545
59926SOL    HW281676   6.140   9.244   1.595
59927SOL     OW81677  14.054   0.110   9.151
59927SOL    HW181678  13.994   0.139   9.219
59927SOL    HW281679  14.124   0.064   9.199
59928SOL     OW81680   1.786   2.017   4.099
59928SOL    HW181681   1.789   2.111   4.084
59928SOL    HW281682   1.705   1.988   4.058
59929SOL     OW81683   1.440   4.089   6.524
59929SOL    HW181684   1.445   4.183   6.540
59929SOL    HW281685   1.501   4.073   6.453
59930SOL     OW81686   7.499   5.959   3.497
59930SOL    HW181687   7.515   5.883   3.554
59930SOL    HW281688   7.586   5.995   3.482
59931SOL     OW81689  12.405   9.974  13.756
59931SOL    HW181690  12.499   9.988  13.762
59931SOL    HW281691  12.367  10.059  13.777
59932SOL     OW81692   6.089   1.621  10.787
59932SOL    HW181693   6.180   1.595  10.799
59932SOL    HW281694   6.040   1.563  10.846
59933SOL     OW81695  11.449   6.291  14.779
59933SOL    HW181696  11.533   6.295  14.823
59933SOL    HW281697  11.458   6.348  14.703
59934SOL     OW81698   6.407   7.418   4.734
59934SOL    HW181699   6.317   7.449   4.721
59934SOL    HW281700   6.462   7.486   4.696
59935SOL     OW81701   8.312  12.362  11.079
59935SOL    HW181702   8.321  12.325  10.991
59935SOL    HW281703   8.309  12.457  11.064
59936SOL     OW81704   8.084   3.253  10.543
59936SOL    HW181705   8.003   3.207  10.563
59936SOL    HW281706   8.121   3.275  10.629
59937SOL     OW81707   2.576   0.897  11.553
59937SOL    HW181708   2.638   0.914  11.481
59937SOL    HW281709   2.631   0.867  11.625
59938SOL     OW81710  13.576  13.043   5.473
59938SOL    HW181711  13.648  13.061   5.533
59938SOL    HW281712  13.614  12.986   5.406
59939SOL     OW81713   1.585   3.695  12.724
59939SOL    HW181714   1.531   3.773  12.723
59939SOL    HW281715   1.662   3.718  12.672
59940SOL     OW81716   4.679  10.837  11.686
59940SOL    HW181717   4.731  10.795  11.756
59940SOL    HW281718   4.744  10.868  11.624
59941SOL     OW81719   0.406   5.399   7.393
59941SOL    HW181720   0.355   5.400   7.312
59941SOL    HW281721   0.485   5.450   7.372
59942SOL     OW81722  14.285   3.597  13.822
59942SOL    HW181723  14.307   3.519  13.874
59942SOL    HW281724  14.246   3.658  13.885
59943SOL     OW81725   3.917   5.833   7.025
59943SOL    HW181726   3.938   5.750   6.982
59943SOL    HW281727   3.888   5.808   7.113
59944SOL     OW81728   2.661  11.922  13.871
59944SOL    HW181729   2.570  11.936  13.844
59944SOL    HW281730   2.665  11.831  13.900
59945SOL     OW81731  14.610  10.495  12.559
59945SOL    HW181732  14.600  10.511  12.653
59945SOL    HW281733  14.580  10.405  12.545
59946SOL     OW81734   9.189   5.791   0.747
59946SOL    HW181735   9.183   5.798   0.651
59946SOL    HW281736   9.236   5.870   0.774
59947SOL     OW81737   4.001   3.645  14.492
59947SOL    HW181738   4.078   3.627  14.438
59947SOL    HW281739   4.028   3.621  14.581
59948SOL     OW81740  11.692   6.631   8.970
59948SOL    HW181741  11.776   6.605   8.931
59948SOL    HW281742  11.694   6.726   8.969
59949SOL     OW81743   1.402   0.258  10.757
59949SOL    HW181744   1.340   0.192  10.725
59949SOL    HW281745   1.433   0.224  10.841
59950SOL     OW81746   0.004  13.816   3.958
59950SOL    HW181747  14.791  13.830   3.940
59950SOL    HW281748   0.035  13.901   3.988
59951SOL     OW81749  10.084  11.708   2.839
59951SOL    HW181750  10.093  11.618   2.806
59951SOL    HW281751   9.993  11.715   2.866
59952SOL     OW81752  12.450  10.274   2.578
59952SOL    HW181753  12.376  10.318   2.619
59952SOL    HW281754  12.522  10.285   2.639
59953SOL     OW81755  12.994   7.503   2.128
59953SOL    HW181756  12.926   7.471   2.068
59953SOL    HW281757  12.997   7.437   2.197
59954SOL     OW81758   9.512   8.773   1.450
59954SOL    HW181759   9.445   8.828   1.410
59954SOL    HW281760   9.492   8.775   1.544
59955SOL     OW81761   8.131   0.904   1.019
59955SOL    HW181762   8.179   0.831   0.981
59955SOL    HW281763   8.039   0.884   1.003
59956SOL     OW81764  12.543   3.032  13.312
59956SOL    HW181765  12.589   3.081  13.380
59956SOL    HW281766  12.467   2.994  13.356
59957SOL     OW81767  13.570   2.987   8.213
59957SOL    HW181768  13.649   2.999   8.162
59957SOL    HW281769  13.536   3.075   8.226
59958SOL     OW81770  12.866   5.875   9.496
59958SOL    HW181771  12.787   5.901   9.543
59958SOL    HW281772  12.930   5.855   9.565
59959SOL     OW81773   0.104  12.028  13.243
59959SOL    HW181774   0.061  12.098  13.292
59959SOL    HW281775   0.063  12.031  13.156
59960SOL     OW81776   8.980   9.626   7.174
59960SOL    HW181777   9.008   9.552   7.228
59960SOL    HW281778   8.886   9.610   7.159
59961SOL     OW81779  10.268   0.022  12.516
59961SOL    HW181780  10.214  14.823  12.513
59961SOL    HW281781  10.248   0.063  12.600
59962SOL     OW81782   7.775   0.917  10.298
59962SOL    HW181783   7.814   1.000  10.327
59962SOL    HW281784   7.682   0.928  10.315
59963SOL     OW81785   0.638   4.062  10.814
59963SOL    HW181786   0.603   4.123  10.879
59963SOL    HW281787   0.570   4.058  10.747
59964SOL     OW81788   1.899  13.637  10.642
59964SOL    HW181789   1.866  13.628  10.552
59964SOL    HW281790   1.824  13.671  10.691
59965SOL     OW81791   5.941  11.661   9.349
59965SOL    HW181792   5.920  11.632   9.260
59965SOL    HW281793   5.963  11.754   9.339
59966SOL     OW81794  10.525   7.219   4.494
59966SOL    HW181795  10.448   7.214   4.550
59966SOL    HW281796  10.514   7.300   4.445
59967SOL     OW81797   1.789  10.282   5.922
59967SOL    HW181798   1.810  10.278   5.828
59967SOL    HW281799   1.705  10.235   5.929
59968SOL     OW81800   4.354  13.948   9.820
59968SOL    HW181801   4.333  14.031   9.863
59968SOL    HW281802   4.435  13.965   9.771
59969SOL     OW81803  12.405  10.244  10.557
59969SOL    HW181804  12.392  10.331  10.520
59969SOL    HW281805  12.498  10.242  10.581
59970SOL     OW81806   6.783   4.063   6.096
59970SOL    HW181807   6.855   4.052   6.159
59970SOL    HW281808   6.704   4.068   6.150
59971SOL     OW81809   7.228   1.497   3.531
59971SOL    HW181810   7.273   1.573   3.569
59971SOL    HW281811   7.268   1.485   3.445
59972SOL     OW81812   3.879   7.254   5.072
59972SOL    HW181813   3.861   7.218   5.159
59972SOL    HW281814   3.969   7.286   5.078
59973SOL     OW81815   2.145   0.454   1.930
59973SOL    HW181816   2.056   0.467   1.962
59973SOL    HW281817   2.200   0.502   1.993
59974SOL     OW81818  12.683   3.807   3.719
59974SOL    HW181819  12.720   3.889   3.686
59974SOL    HW281820  12.596   3.830   3.751
59975SOL     OW81821   6.394  13.066  13.321
59975SOL    HW181822   6.478  13.033  13.289
59975SOL    HW281823   6.405  13.161  13.324
59976SOL     OW81824   1.757   8.540   3.852
59976SOL    HW181825   1.749   8.620   3.904
59976SOL    HW281826   1.778   8.571   3.764
59977SOL     OW81827   6.675   3.354   8.448
59977SOL    HW181828   6.761   3.315   8.458
59977SOL    HW281829   6.692   3.436   8.402
59978SOL     OW81830   4.319   6.697  10.460
59978SOL    HW181831   4.320   6.613  10.506
59978SOL    HW281832   4.230   6.706  10.428
59979SOL     OW81833   6.453   9.969  11.090
59979SOL    HW181834   6.504  10.047  11.112
59979SOL    HW281835   6.456   9.915  11.169
59980SOL     OW81836  12.315   1.132  10.114
59980SOL    HW181837  12.320   1.129  10.019
59980SOL    HW281838  12.273   1.216  10.133
59981SOL     OW81839  10.848   1.729  11.761
59981SOL    HW181840  10.791   1.670  11.812
59981SOL    HW281841  10.793   1.805  11.743
59982SOL     OW81842  10.918   7.752  14.196
59982SOL    HW181843  10.988   7.744  14.130
59982SOL    HW281844  10.838   7.731  14.148
59983SOL     OW81845  12.071  10.939  10.561
59983SOL    HW181846  12.150  10.899  10.598
59983SOL    HW281847  12.005  10.927  10.629
59984SOL     OW81848   3.822  13.103  10.008
59984SOL    HW181849   3.877  13.172   9.972
59984SOL    HW281850   3.849  13.096  10.100
59985SOL     OW81851   0.977  11.989   0.337
59985SOL    HW181852   0.979  11.954   0.427
59985SOL    HW281853   0.896  11.954   0.300
59986SOL     OW81854   0.039   9.955   6.366
59986SOL    HW181855  14.849   9.984   6.307
59986SOL    HW281856   0.094  10.032   6.378
59987SOL     OW81857   1.220   4.652   9.182
59987SOL    HW181858   1.166   4.602   9.243
59987SOL    HW281859   1.310   4.634   9.208
59988SOL     OW81860   0.249  12.432   0.826
59988SOL    HW181861   0.256  12.509   0.882
59988SOL    HW281862   0.155  12.421   0.813
59989SOL     OW81863   4.486   6.311   7.477
59989SOL    HW181864   4.420   6.252   7.513
59989SOL    HW281865   4.566   6.289   7.523
59990SOL     OW81866   5.356  10.887   6.827
59990SOL    HW181867   5.262  10.882   6.810
59990SOL    HW281868   5.364  10.888   6.922
59991SOL     OW81869  12.891   9.723   2.392
59991SOL    HW181870  12.922   9.766   2.313
59991SOL    HW281871  12.963   9.731   2.454
59992SOL     OW81872   7.666  13.728   6.852
59992SOL    HW181873   7.657  13.677   6.772
59992SOL    HW281874   7.750  13.702   6.888
59993SOL     OW81875  13.144   6.650   6.708
59993SOL    HW181876  13.061   6.645   6.756
59993SOL    HW281877  13.118   6.665   6.617
59994SOL     OW81878   0.916   2.951   1.014
59994SOL    HW181879   0.848   2.990   0.960
59994SOL    HW281880   0.995   2.999   0.992
59995SOL     OW81881   1.609   6.606  11.222
59995SOL    HW181882   1.541   6.671  11.205
59995SOL    HW281883   1.612   6.552  11.143
59996SOL     OW81884   1.020   1.512   0.264
59996SOL    HW181885   1.036   1.594   0.311
59996SOL    HW281886   1.079   1.515   0.189
59997SOL     OW81887  12.749   2.561  12.147
59997SOL    HW181888  12.791   2.635  12.191
59997SOL    HW281889  12.790   2.484  12.185
59998SOL     OW81890  11.956  10.495  13.426
59998SOL    HW181891  11.938  10.437  13.500
59998SOL    HW281892  11.962  10.582  13.465
59999SOL     OW81893  11.204   8.316   2.587
59999SOL    HW181894  11.208   8.314   2.683
59999SOL    HW281895  11.210   8.409   2.564
60000SOL     OW81896   2.981   5.232   6.204
60000SOL    HW181897   3.076   5.221   6.200
60000SOL    HW281898   2.967   5.326   6.198
60001SOL     OW81899   8.718   9.427   1.167
60001SOL    HW181900   8.719   9.520   1.189
60001SOL    HW281901   8.646   9.390   1.218
60002SOL     OW81902  14.444   3.530  12.981
60002SOL    HW181903  14.458   3.478  13.060
60002SOL    HW281904  14.510   3.600  12.986
60003SOL     OW81905   8.156   5.215  12.338
60003SOL    HW181906   8.188   5.142  12.391
60003SOL    HW281907   8.226   5.280  12.342
60004SOL     OW81908  11.828   2.839   2.018
60004SOL    HW181909  11.769   2.764   2.018
60004SOL    HW281910  11.832   2.867   2.109
60005SOL     OW81911  14.617  10.182   4.514
60005SOL    HW181912  14.681  10.252   4.498
60005SOL    HW281913  14.537  10.228   4.541
60006SOL     OW81914   3.242   0.245   2.422
60006SOL    HW181915   3.328   0.287   2.415
60006SOL    HW281916   3.255   0.175   2.486
60007SOL     OW81917  11.492   4.034   8.211
60007SOL    HW181918  11.455   4.056   8.296
60007SOL    HW281919  11.581   4.070   8.213
60008SOL     OW81920   5.371   0.989   2.495
60008SOL    HW181921   5.418   0.954   2.420
60008SOL    HW281922   5.314   1.057   2.457
60009SOL     OW81923  13.474   2.118   9.588
60009SOL    HW181924  13.535   2.160   9.649
60009SOL    HW281925  13.527   2.053   9.542
60010SOL     OW81926   3.431   0.592   4.244
60010SOL    HW181927   3.405   0.673   4.287
60010SOL    HW281928   3.388   0.523   4.295
60011SOL     OW81929   5.247   2.350   0.389
60011SOL    HW181930   5.290   2.343   0.474
60011SOL    HW281931   5.226   2.259   0.366
60012SOL     OW81932   3.805  14.023   7.124
60012SOL    HW181933   3.834  13.947   7.074
60012SOL    HW281934   3.710  14.024   7.114
60013SOL     OW81935   5.922   6.449   1.308
60013SOL    HW181936   5.850   6.430   1.368
60013SOL    HW281937   5.993   6.480   1.364
60014SOL     OW81938   3.877  11.904   1.517
60014SOL    HW181939   3.822  11.929   1.442
60014SOL    HW281940   3.814  11.871   1.581
60015SOL     OW81941  13.694   2.219   6.118
60015SOL    HW181942  13.606   2.195   6.146
60015SOL    HW281943  13.746   2.140   6.130
60016SOL     OW81944  11.781   9.042  11.740
60016SOL    HW181945  11.708   9.053  11.800
60016SOL    HW281946  11.848   9.102  11.772
60017SOL     OW81947   1.724  13.495   9.213
60017SOL    HW181948   1.634  13.485   9.182
60017SOL    HW281949   1.763  13.408   9.201
60018SOL     OW81950  12.101  13.048   8.860
60018SOL    HW181951  12.133  13.138   8.863
60018SOL    HW281952  12.118  13.019   8.770
60019SOL     OW81953   3.383   1.982   3.874
60019SOL    HW181954   3.374   2.077   3.884
60019SOL    HW281955   3.449   1.971   3.806
60020SOL     OW81956   7.786  11.033   6.023
60020SOL    HW181957   7.826  11.089   5.957
60020SOL    HW281958   7.752  11.093   6.089
60021SOL     OW81959  12.736  12.812   5.876
60021SOL    HW181960  12.706  12.752   5.944
60021SOL    HW281961  12.821  12.778   5.848
60022SOL     OW81962   6.304   9.354  10.479
60022SOL    HW181963   6.355   9.293  10.532
60022SOL    HW281964   6.357   9.434  10.477
60023SOL     OW81965   1.814   0.837   8.161
60023SOL    HW181966   1.825   0.784   8.239
60023SOL    HW281967   1.723   0.823   8.134
60024SOL     OW81968  10.836   5.810   7.396
60024SOL    HW181969  10.814   5.903   7.394
60024SOL    HW281970  10.753   5.766   7.412
60025SOL     OW81971   5.687   9.262   9.679
60025SOL    HW181972   5.627   9.263   9.605
60025SOL    HW281973   5.664   9.183   9.728
60026SOL     OW81974   3.096   9.184  14.200
60026SOL    HW181975   3.172   9.163  14.147
60026SOL    HW281976   3.045   9.245  14.147
60027SOL     OW81977  10.307  11.796   9.455
60027SOL    HW181978  10.225  11.843   9.466
60027SOL    HW281979  10.281  11.712   9.417
60028SOL     OW81980  10.794   7.965   1.630
60028SOL    HW181981  10.764   7.889   1.580
60028SOL    HW281982  10.757   7.953   1.717
60029SOL     OW81983   3.484   3.926   1.909
60029SOL    HW181984   3.518   3.883   1.830
60029SOL    HW281985   3.486   3.857   1.976
60030SOL     OW81986  10.688  14.181   5.599
60030SOL    HW181987  10.728  14.124   5.664
60030SOL    HW281988  10.626  14.125   5.553
60031SOL     OW81989  11.463  14.554  14.024
60031SOL    HW181990  11.367  14.548  14.021
60031SOL    HW281991  11.488  14.494  14.094
60032SOL     OW81992  10.282   5.132   0.685
60032SOL    HW181993  10.368   5.166   0.658
60032SOL    HW281994  10.274   5.049   0.639
60033SOL     OW81995  10.993  13.004  12.437
60033SOL    HW181996  11.022  12.971  12.352
60033SOL    HW281997  11.063  13.063  12.465
60034SOL     OW81998   4.323   0.004   6.810
60034SOL    HW181999   4.359  14.816   6.754
60034SOL    HW282000   4.299  14.838   6.890
60035SOL     OW82001  12.471   8.417   8.770
60035SOL    HW182002  12.473   8.324   8.747
60035SOL    HW282003  12.464   8.462   8.685
60036SOL     OW82004   0.558   3.689   2.523
60036SOL    HW182005   0.645   3.649   2.525
60036SOL    HW282006   0.549   3.720   2.432
60037SOL     OW82007   9.840   4.492   5.355
60037SOL    HW182008   9.818   4.528   5.269
60037SOL    HW282009   9.776   4.422   5.369
60038SOL     OW82010   9.377  13.102   8.210
60038SOL    HW182011   9.432  13.031   8.177
60038SOL    HW282012   9.439  13.173   8.229
60039SOL     OW82013   0.534   5.671   7.892
60039SOL    HW182014   0.522   5.745   7.951
60039SOL    HW282015   0.498   5.596   7.939
60040SOL     OW82016  13.434  12.922  14.205
60040SOL    HW182017  13.425  12.840  14.157
60040SOL    HW282018  13.376  12.912  14.280
60041SOL     OW82019   1.026   8.698  13.604
60041SOL    HW182020   0.974   8.677  13.526
60041SOL    HW282021   0.964   8.738  13.664
60042SOL     OW82022   6.446   6.950  11.104
60042SOL    HW182023   6.426   6.975  11.013
60042SOL    HW282024   6.499   6.870  11.095
60043SOL     OW82025   5.397   9.961   5.161
60043SOL    HW182026   5.412   9.997   5.074
60043SOL    HW282027   5.338  10.023   5.203
60044SOL     OW82028   3.515  10.192   5.529
60044SOL    HW182029   3.539  10.264   5.588
60044SOL    HW282030   3.598  10.155   5.500
60045SOL     OW82031   4.307   5.123  10.952
60045SOL    HW182032   4.238   5.157  10.895
60045SOL    HW282033   4.266   5.120  11.039
60046SOL     OW82034  10.433   0.071  11.554
60046SOL    HW182035  10.527   0.057  11.540
60046SOL    HW282036  10.396  14.863  11.559
60047SOL     OW82037  11.172  13.120   3.722
60047SOL    HW182038  11.189  13.172   3.800
60047SOL    HW282039  11.092  13.071   3.743
60048SOL     OW82040   0.507   3.261   2.593
60048SOL    HW182041   0.509   3.226   2.683
60048SOL    HW282042   0.453   3.340   2.600
60049SOL     OW82043   7.695   2.246   2.419
60049SOL    HW182044   7.641   2.318   2.386
60049SOL    HW282045   7.758   2.288   2.478
60050SOL     OW82046   9.571   5.966  10.101
60050SOL    HW182047   9.596   6.052  10.136
60050SOL    HW282048   9.555   5.982  10.008
60051SOL     OW82049   5.529   2.899   5.293
60051SOL    HW182050   5.451   2.865   5.337
60051SOL    HW282051   5.515   2.880   5.201
60052SOL     OW82052   5.716  11.040  10.627
60052SOL    HW182053   5.695  10.953  10.661
60052SOL    HW282054   5.654  11.098  10.671
60053SOL     OW82055   2.529  13.571   9.912
60053SOL    HW182056   2.578  13.569   9.994
60053SOL    HW282057   2.438  13.583   9.938
60054SOL     OW82058   4.798   7.328  11.427
60054SOL    HW182059   4.882   7.345  11.386
60054SOL    HW282060   4.786   7.233  11.421
60055SOL     OW82061   0.087   3.401   5.059
60055SOL    HW182062   0.170   3.387   5.014
60055SOL    HW282063   0.045   3.315   5.060
60056SOL     OW82064  11.626  12.027  12.345
60056SOL    HW182065  11.665  12.059  12.426
60056SOL    HW282066  11.581  11.947  12.370
60057SOL     OW82067   8.184   9.789   0.996
60057SOL    HW182068   8.268   9.832   0.980
60057SOL    HW282069   8.124   9.828   0.933
60058SOL     OW82070  10.723   7.600   0.295
60058SOL    HW182071  10.806   7.557   0.316
60058SOL    HW282072  10.682   7.615   0.380
60059SOL     OW82073   6.598   6.012   8.286
60059SOL    HW182074   6.640   6.050   8.363
60059SOL    HW282075   6.669   6.003   8.222
60060SOL     OW82076   1.947   8.206   9.081
60060SOL    HW182077   1.858   8.224   9.112
60060SOL    HW282078   1.985   8.150   9.149
60061SOL     OW82079   7.219   7.838   0.666
60061SOL    HW182080   7.314   7.851   0.672
60061SOL    HW282081   7.193   7.810   0.754
60062SOL     OW82082   9.615   0.637   9.068
60062SOL    HW182083   9.660   0.648   9.151
60062SOL    HW282084   9.671   0.580   9.017
60063SOL     OW82085   3.786  13.641   8.865
60063SOL    HW182086   3.760  13.729   8.892
60063SOL    HW282087   3.827  13.653   8.779
60064SOL     OW82088   6.190   7.146  11.966
60064SOL    HW182089   6.266   7.172  12.018
60064SOL    HW282090   6.123   7.126  12.031
60065SOL     OW82091   3.285   1.197   3.352
60065SOL    HW182092   3.273   1.132   3.421
60065SOL    HW282093   3.197   1.214   3.318
60066SOL     OW82094   3.384   1.650   0.350
60066SOL    HW182095   3.400   1.628   0.258
60066SOL    HW282096   3.457   1.610   0.397
60067SOL     OW82097  10.792   6.476  14.864
60067SOL    HW182098  10.749   6.429  14.793
60067SOL    HW282099  10.879   6.496  14.830
60068SOL     OW82100  12.260   4.070   6.328
60068SOL    HW182101  12.346   4.046   6.294
60068SOL    HW282102  12.266   4.164   6.344
60069SOL     OW82103  10.482   7.188   8.618
60069SOL    HW182104  10.434   7.241   8.554
60069SOL    HW282105  10.530   7.124   8.565
60070SOL     OW82106   2.416  12.700   7.633
60070SOL    HW182107   2.409  12.640   7.708
60070SOL    HW282108   2.344  12.762   7.646
60071SOL     OW82109  12.347  11.126  13.542
60071SOL    HW182110  12.374  11.099  13.630
60071SOL    HW282111  12.276  11.066  13.519
60072SOL     OW82112  14.371   3.590   4.414
60072SOL    HW182113  14.421   3.671   4.408
60072SOL    HW282114  14.280   3.617   4.400
60073SOL     OW82115   7.268   6.897   8.155
60073SOL    HW182116   7.358   6.914   8.127
60073SOL    HW282117   7.226   6.983   8.155
60074SOL     OW82118  11.099   2.773   3.993
60074SOL    HW182119  11.127   2.700   4.048
60074SOL    HW282120  11.113   2.851   4.046
60075SOL     OW82121  14.562   6.908  13.244
60075SOL    HW182122  14.591   6.834  13.298
60075SOL    HW282123  14.474   6.928  13.277
60076SOL     OW82124  11.448   8.433   9.170
60076SOL    HW182125  11.379   8.370   9.188
60076SOL    HW282126  11.424   8.474   9.087
60077SOL     OW82127  13.878   4.153   3.987
60077SOL    HW182128  13.872   4.247   4.004
60077SOL    HW282129  13.926   4.119   4.062
60078SOL     OW82130   5.882   8.527   2.496
60078SOL    HW182131   5.814   8.469   2.529
60078SOL    HW282132   5.847   8.561   2.413
60079SOL     OW82133  12.868   3.358   9.647
60079SOL    HW182134  12.821   3.279   9.618
60079SOL    HW282135  12.832   3.428   9.593
60080SOL     OW82136  11.145  14.641   2.619
60080SOL    HW182137  11.059  14.602   2.611
60080SOL    HW282138  11.204  14.579   2.577
60081SOL     OW82139   0.106   8.788  12.783
60081SOL    HW182140   0.028   8.750  12.744
60081SOL    HW282141   0.073   8.845  12.852
60082SOL     OW82142  12.810  10.169  14.644
60082SOL    HW182143  12.752  10.238  14.611
60082SOL    HW282144  12.842  10.204  14.727
60083SOL     OW82145   8.000  12.311   6.506
60083SOL    HW182146   8.060  12.341   6.437
60083SOL    HW282147   7.974  12.223   6.480
60084SOL     OW82148   0.210   9.643   0.110
60084SOL    HW182149   0.168   9.651   0.196
60084SOL    HW282150   0.153   9.584   0.061
60085SOL     OW82151   8.616   1.618   6.435
60085SOL    HW182152   8.679   1.688   6.422
60085SOL    HW282153   8.639   1.580   6.520
60086SOL     OW82154  12.833  10.908  12.886
60086SOL    HW182155  12.927  10.914  12.868
60086SOL    HW282156  12.794  10.881  12.803
60087SOL     OW82157   3.678   0.600   7.615
60087SOL    HW182158   3.653   0.689   7.592
60087SOL    HW282159   3.769   0.607   7.644
60088SOL     OW82160   8.794   3.161   6.653
60088SOL    HW182161   8.768   3.244   6.614
60088SOL    HW282162   8.782   3.173   6.747
60089SOL     OW82163   9.409   5.963   8.856
60089SOL    HW182164   9.486   5.956   8.913
60089SOL    HW282165   9.335   5.946   8.913
60090SOL     OW82166   2.451   0.985   8.763
60090SOL    HW182167   2.426   1.032   8.683
60090SOL    HW282168   2.373   0.934   8.785
60091SOL     OW82169  12.547   2.925   2.601
60091SOL    HW182170  12.509   2.844   2.567
60091SOL    HW282171  12.484   2.993   2.577
60092SOL     OW82172  11.050  11.902   8.433
60092SOL    HW182173  11.064  11.862   8.348
60092SOL    HW282174  11.134  11.894   8.479
60093SOL     OW82175  10.317   9.653   9.408
60093SOL    HW182176  10.271   9.575   9.377
60093SOL    HW282177  10.313   9.714   9.335
60094SOL     OW82178   4.207   9.191  13.610
60094SOL    HW182179   4.267   9.211  13.538
60094SOL    HW282180   4.263   9.152  13.677
60095SOL     OW82181   1.971  13.547  12.595
60095SOL    HW182182   2.050  13.519  12.642
60095SOL    HW282183   1.987  13.639  12.573
60096SOL     OW82184  14.561  11.781  11.227
60096SOL    HW182185  14.526  11.761  11.314
60096SOL    HW282186  14.652  11.804  11.243
60097SOL     OW82187  11.475  11.811  12.364
60097SOL    HW182188  11.383  11.798  12.385
60097SOL    HW282189  11.520  11.737  12.406
60098SOL     OW82190  10.614   1.840   9.863
60098SOL    HW182191  10.558   1.845   9.786
60098SOL    HW282192  10.561   1.791   9.927
60099SOL     OW82193   2.007   7.713  10.354
60099SOL    HW182194   2.060   7.635  10.340
60099SOL    HW282195   1.931   7.682  10.403
60100SOL     OW82196  13.558   3.155   0.847
60100SOL    HW182197  13.646   3.183   0.873
60100SOL    HW282198  13.531   3.095   0.916
60101SOL     OW82199   7.230  13.341  12.409
60101SOL    HW182200   7.255  13.253  12.437
60101SOL    HW282201   7.286  13.359  12.333
60102SOL     OW82202   4.422   0.312  10.356
60102SOL    HW182203   4.473   0.268  10.424
60102SOL    HW282204   4.339   0.265  10.354
60103SOL     OW82205  12.232   8.380   9.004
60103SOL    HW182206  12.278   8.301   9.035
60103SOL    HW282207  12.268   8.395   8.917
60104SOL     OW82208  13.352   4.965   3.069
60104SOL    HW182209  13.352   4.915   2.988
60104SOL    HW282210  13.444   4.973   3.093
60105SOL     OW82211   5.191   4.670   0.283
60105SOL    HW182212   5.244   4.656   0.362
60105SOL    HW282213   5.201   4.763   0.264
60106SOL     OW82214   7.616   1.054   6.325
60106SOL    HW182215   7.563   1.083   6.400
60106SOL    HW282216   7.704   1.043   6.361
60107SOL     OW82217  12.636  13.153   8.461
60107SOL    HW182218  12.692  13.146   8.384
60107SOL    HW282219  12.695  13.136   8.535
60108SOL     OW82220   7.160   6.115  12.072
60108SOL    HW182221   7.230   6.055  12.047
60108SOL    HW282222   7.083   6.084  12.024
60109SOL     OW82223  12.387   9.433  12.251
60109SOL    HW182224  12.303   9.471  12.278
60109SOL    HW282225  12.365   9.344  12.225
60110SOL     OW82226   9.088   4.598  13.738
60110SOL    HW182227   9.145   4.536  13.783
60110SOL    HW282228   9.065   4.663  13.805
60111SOL     OW82229   2.603   2.926  14.483
60111SOL    HW182230   2.615   2.967  14.569
60111SOL    HW282231   2.664   2.852  14.483
60112SOL     OW82232   4.630   2.058   2.488
60112SOL    HW182233   4.578   1.998   2.435
60112SOL    HW282234   4.683   2.001   2.543
60113SOL     OW82235   7.674   1.539   3.460
60113SOL    HW182236   7.627   1.496   3.532
60113SOL    HW282237   7.678   1.631   3.486
60114SOL     OW82238   1.627   6.722  13.966
60114SOL    HW182239   1.608   6.810  14.000
60114SOL    HW282240   1.716   6.704  13.997
60115SOL     OW82241   3.112  11.042   3.412
60115SOL    HW182242   3.054  11.057   3.337
60115SOL    HW282243   3.146  10.954   3.400
60116SOL     OW82244   9.120   9.789  13.171
60116SOL    HW182245   9.079   9.830  13.247
60116SOL    HW282246   9.213   9.809  13.181
60117SOL     OW82247   8.289  10.889  10.202
60117SOL    HW182248   8.223  10.850  10.145
60117SOL    HW282249   8.309  10.820  10.266
60118SOL     OW82250   0.507   0.340  14.722
60118SOL    HW182251   0.427   0.313  14.767
60118SOL    HW282252   0.480   0.350  14.630
60119SOL     OW82253  14.819   4.590   9.582
60119SOL    HW182254  14.769   4.568   9.661
60119SOL    HW282255  14.752   4.603   9.514
60120SOL     OW82256  13.660   2.465   3.764
60120SOL    HW182257  13.693   2.478   3.853
60120SOL    HW282258  13.571   2.432   3.775
60121SOL     OW82259  12.175   5.369  14.787
60121SOL    HW182260  12.248   5.405  14.836
60121SOL    HW282261  12.207   5.364  14.697
60122SOL     OW82262   7.489   0.908   1.046
60122SOL    HW182263   7.538   0.826   1.048
60122SOL    HW282264   7.557   0.976   1.050
60123SOL     OW82265  11.358   2.416   5.455
60123SOL    HW182266  11.283   2.362   5.432
60123SOL    HW282267  11.393   2.444   5.370
60124SOL     OW82268   3.212  13.039   5.236
60124SOL    HW182269   3.179  13.074   5.154
60124SOL    HW282270   3.153  12.966   5.256
60125SOL     OW82271   5.738  11.574  10.437
60125SOL    HW182272   5.814  11.521  10.461
60125SOL    HW282273   5.725  11.633  10.511
60126SOL     OW82274  11.912   0.963   5.298
60126SOL    HW182275  11.948   0.881   5.264
60126SOL    HW282276  11.826   0.970   5.256
60127SOL     OW82277  13.419  12.298   5.219
60127SOL    HW182278  13.362  12.271   5.291
60127SOL    HW282279  13.500  12.324   5.261
60128SOL     OW82280   6.476   9.193   2.264
60128SOL    HW182281   6.440   9.169   2.179
60128SOL    HW282282   6.412   9.162   2.327
60129SOL     OW82283   0.662   3.719   3.093
60129SOL    HW182284   0.727   3.783   3.062
60129SOL    HW282285   0.708   3.635   3.092
60130SOL     OW82286   1.893  13.143   2.368
60130SOL    HW182287   1.900  13.184   2.455
60130SOL    HW282288   1.983  13.136   2.337
60131SOL     OW82289  10.303  11.177   3.015
60131SOL    HW182290  10.292  11.146   3.105
60131SOL    HW282291  10.331  11.099   2.967
60132SOL     OW82292   7.955   6.922  12.930
60132SOL    HW182293   7.905   6.922  13.012
60132SOL    HW282294   7.920   6.848  12.880
60133SOL     OW82295   0.656   9.860   8.612
60133SOL    HW182296   0.744   9.831   8.588
60133SOL    HW282297   0.609   9.865   8.528
60134SOL     OW82298  13.233   8.012  14.545
60134SOL    HW182299  13.234   8.086  14.606
60134SOL    HW282300  13.172   8.039  14.476
60135SOL     OW82301   4.041   2.004   4.856
60135SOL    HW182302   4.098   2.030   4.783
60135SOL    HW282303   4.045   2.078   4.916
60136SOL     OW82304  12.018  13.128  11.319
60136SOL    HW182305  11.983  13.051  11.363
60136SOL    HW282306  12.100  13.148  11.365
60137SOL     OW82307  12.864   0.411   7.970
60137SOL    HW182308  12.926   0.355   8.016
60137SOL    HW282309  12.846   0.364   7.888
60138SOL     OW82310  10.108  14.045   5.663
60138SOL    HW182311  10.046  13.984   5.702
60138SOL    HW282312  10.065  14.130   5.669
60139SOL     OW82313   3.200   8.561  10.379
60139SOL    HW182314   3.245   8.645  10.391
60139SOL    HW282315   3.121   8.584  10.330
60140SOL     OW82316   0.570  11.872   5.123
60140SOL    HW182317   0.588  11.796   5.178
60140SOL    HW282318   0.495  11.846   5.070
60141SOL     OW82319   9.163   0.093  10.721
60141SOL    HW182320   9.216   0.142  10.659
60141SOL    HW282321   9.160   0.004  10.685
60142SOL     OW82322   0.360   6.951   8.538
60142SOL    HW182323   0.435   6.893   8.548
60142SOL    HW282324   0.348   6.959   8.443
60143SOL     OW82325   3.389   7.258  11.356
60143SOL    HW182326   3.479   7.289  11.353
60143SOL    HW282327   3.380   7.220  11.444
60144SOL     OW82328   1.851   4.002   5.811
60144SOL    HW182329   1.941   3.979   5.790
60144SOL    HW282330   1.841   3.981   5.904
60145SOL     OW82331  13.283  14.870   6.665
60145SOL    HW182332  13.268  14.834   6.753
60145SOL    HW282333  13.350  14.815   6.627
60146SOL     OW82334   9.598   5.111   0.869
60146SOL    HW182335   9.654   5.126   0.794
60146SOL    HW282336   9.570   5.198   0.897
60147SOL     OW82337  11.652  12.903   0.228
60147SOL    HW182338  11.603  12.986   0.230
60147SOL    HW282339  11.712  12.912   0.155
60148SOL     OW82340  10.886  11.104  13.149
60148SOL    HW182341  10.858  11.033  13.092
60148SOL    HW282342  10.980  11.091  13.160
60149SOL     OW82343   0.063   1.384   7.510
60149SOL    HW182344   0.093   1.303   7.551
60149SOL    HW282345   0.128   1.450   7.535
60150SOL     OW82346   4.476   4.686   8.855
60150SOL    HW182347   4.391   4.671   8.813
60150SOL    HW282348   4.464   4.655   8.945
60151SOL     OW82349  13.137  12.444   4.895
60151SOL    HW182350  13.148  12.352   4.870
60151SOL    HW282351  13.122  12.489   4.812
60152SOL     OW82352  11.341   0.904   6.166
60152SOL    HW182353  11.249   0.891   6.143
60152SOL    HW282354  11.340   0.979   6.226
60153SOL     OW82355   8.687  13.764  14.653
60153SOL    HW182356   8.691  13.824  14.728
60153SOL    HW282357   8.607  13.788  14.607
60154SOL     OW82358  14.088   4.986   0.680
60154SOL    HW182359  14.109   4.896   0.656
60154SOL    HW282360  14.034   4.978   0.759
60155SOL     OW82361  14.241   0.792  14.499
60155SOL    HW182362  14.211   0.834  14.580
60155SOL    HW282363  14.254   0.864  14.438
60156SOL     OW82364   4.457   5.362   3.743
60156SOL    HW182365   4.378   5.386   3.695
60156SOL    HW282366   4.525   5.357   3.676
60157SOL     OW82367   7.313   4.278   3.270
60157SOL    HW182368   7.257   4.213   3.227
60157SOL    HW282369   7.344   4.234   3.349
60158SOL     OW82370   1.310  14.315   3.847
60158SOL    HW182371   1.263  14.302   3.765
60158SOL    HW282372   1.402  14.304   3.825
60159SOL     OW82373  13.959  12.880   2.107
60159SOL    HW182374  13.896  12.871   2.179
60159SOL    HW282375  14.044  12.878   2.150
60160SOL     OW82376   5.648   4.601  11.937
60160SOL    HW182377   5.583   4.671  11.943
60160SOL    HW282378   5.681   4.606  11.847
60161SOL     OW82379   8.977   4.371   5.413
60161SOL    HW182380   8.962   4.466   5.414
60161SOL    HW282381   8.895   4.335   5.379
60162SOL     OW82382   4.333  14.674  11.397
60162SOL    HW182383   4.429  14.676  11.400
60162SOL    HW282384   4.307  14.631  11.478
60163SOL     OW82385  10.888  13.164  14.501
60163SOL    HW182386  10.937  13.154  14.583
60163SOL    HW282387  10.935  13.107  14.439
60164SOL     OW82388  10.521  11.942   0.852
60164SOL    HW182389  10.533  11.999   0.928
60164SOL    HW282390  10.541  11.999   0.777
60165SOL     OW82391   8.931   0.098   6.056
60165SOL    HW182392   8.903   0.006   6.058
60165SOL    HW282393   9.008   0.100   6.112
60166SOL     OW82394   3.536   0.375  13.019
60166SOL    HW182395   3.466   0.310  13.024
60166SOL    HW282396   3.610   0.334  13.065
60167SOL     OW82397  11.891  10.450   1.254
60167SOL    HW182398  11.814  10.421   1.204
60167SOL    HW282399  11.863  10.447   1.345
60168SOL     OW82400  13.652   6.011   4.156
60168SOL    HW182401  13.745   5.996   4.141
60168SOL    HW282402  13.649   6.078   4.225
60169SOL     OW82403  13.527  14.043   9.803
60169SOL    HW182404  13.569  13.968   9.761
60169SOL    HW282405  13.585  14.117   9.784
60170SOL     OW82406   3.971  12.515   9.020
60170SOL    HW182407   4.056  12.479   8.994
60170SOL    HW282408   3.987  12.554   9.106
60171SOL     OW82409   3.756   3.751  14.715
60171SOL    HW182410   3.777   3.695  14.791
60171SOL    HW282411   3.820   3.822  14.719
60172SOL     OW82412   5.671   0.371   4.013
60172SOL    HW182413   5.764   0.361   3.992
60172SOL    HW282414   5.629   0.391   3.929
60173SOL     OW82415  14.733   0.344  14.784
60173SOL    HW182416  14.799   0.410  14.763
60173SOL    HW282417  14.705   0.365  14.873
60174SOL     OW82418   7.393   3.187  12.258
60174SOL    HW182419   7.376   3.275  12.291
60174SOL    HW282420   7.318   3.135  12.289
60175SOL     OW82421  11.216   8.899   1.373
60175SOL    HW182422  11.141   8.912   1.431
60175SOL    HW282423  11.250   8.812   1.397
60176SOL     OW82424   5.483   6.218  13.457
60176SOL    HW182425   5.430   6.156  13.408
60176SOL    HW282426   5.573   6.197  13.432
60177SOL     OW82427  12.520  12.660   6.931
60177SOL    HW182428  12.541  12.582   6.880
60177SOL    HW282429  12.602  12.710   6.933
60178SOL     OW82430   5.472   2.062   8.212
60178SOL    HW182431   5.554   2.111   8.221
60178SOL    HW282432   5.405   2.120   8.248
60179SOL     OW82433   7.699  14.067   2.117
60179SOL    HW182434   7.715  14.082   2.210
60179SOL    HW282435   7.731  13.978   2.101
60180SOL     OW82436  10.932   3.510  10.473
60180SOL    HW182437  10.927   3.593  10.425
60180SOL    HW282438  10.968   3.534  10.559
60181SOL     OW82439   8.261   5.055  12.816
60181SOL    HW182440   8.333   5.078  12.875
60181SOL    HW282441   8.244   5.135  12.766
60182SOL     OW82442  14.333  10.272   7.224
60182SOL    HW182443  14.279  10.202   7.260
60182SOL    HW282444  14.287  10.353   7.248
60183SOL     OW82445  10.886   7.994   6.802
60183SOL    HW182446  10.840   7.948   6.732
60183SOL    HW282447  10.883   7.934   6.877
60184SOL     OW82448   8.515  14.734  10.105
60184SOL    HW182449   8.521  14.805  10.169
60184SOL    HW282450   8.584  14.672  10.129
60185SOL     OW82451   5.881   5.800  13.566
60185SOL    HW182452   5.901   5.706  13.572
60185SOL    HW282453   5.966   5.843  13.567
60186SOL     OW82454  13.937  14.311   1.072
60186SOL    HW182455  13.861  14.340   1.122
60186SOL    HW282456  13.901  14.291   0.985
60187SOL     OW82457   8.220   9.597   4.515
60187SOL    HW182458   8.208   9.503   4.519
60187SOL    HW282459   8.140   9.630   4.473
60188SOL     OW82460   9.018   7.668   4.650
60188SOL    HW182461   9.039   7.575   4.640
60188SOL    HW282462   9.002   7.679   4.744
60189SOL     OW82463  13.096   8.978   2.236
60189SOL    HW182464  13.084   8.928   2.155
60189SOL    HW282465  13.168   8.932   2.281
60190SOL     OW82466  11.556  10.494  14.847
60190SOL    HW182467  11.526  10.568  14.795
60190SOL    HW282468  11.573  10.425  14.782
60191SOL     OW82469  11.185  14.168   7.546
60191SOL    HW182470  11.246  14.145   7.476
60191SOL    HW282471  11.235  14.154   7.627
60192SOL     OW82472   2.203   9.848  14.148
60192SOL    HW182473   2.114   9.814  14.142
60192SOL    HW282474   2.220   9.886  14.062
60193SOL     OW82475   6.835  14.759   3.695
60193SOL    HW182476   6.914  14.812   3.711
60193SOL    HW282477   6.868  14.679   3.655
60194SOL     OW82478  11.114  10.519   2.145
60194SOL    HW182479  11.064  10.452   2.098
60194SOL    HW282480  11.050  10.561   2.203
60195SOL     OW82481  13.721   1.260   0.484
60195SOL    HW182482  13.813   1.279   0.465
60195SOL    HW282483  13.676   1.344   0.472
60196SOL     OW82484   1.962  11.086   9.570
60196SOL    HW182485   1.903  11.011   9.563
60196SOL    HW282486   1.991  11.102   9.480
60197SOL     OW82487   5.531   8.849   8.933
60197SOL    HW182488   5.475   8.842   8.855
60197SOL    HW282489   5.475   8.889   8.999
60198SOL     OW82490   1.751   1.827   0.446
60198SOL    HW182491   1.819   1.893   0.429
60198SOL    HW282492   1.774   1.755   0.388
60199SOL     OW82493  14.555   7.259   8.985
60199SOL    HW182494  14.461   7.266   8.967
60199SOL    HW282495  14.597   7.295   8.907
60200SOL     OW82496   8.021  10.111   8.294
60200SOL    HW182497   7.926  10.104   8.292
60200SOL    HW282498   8.043  10.169   8.221
60201SOL     OW82499  13.755   2.276   4.085
60201SOL    HW182500  13.680   2.217   4.079
60201SOL    HW282501  13.721   2.361   4.059
60202SOL     OW82502   1.552  13.345   4.090
60202SOL    HW182503   1.489  13.314   4.026
60202SOL    HW282504   1.608  13.269   4.108
60203SOL     OW82505  11.018  14.343  10.140
60203SOL    HW182506  11.051  14.255  10.158
60203SOL    HW282507  10.925  14.330  10.123
60204SOL     OW82508  10.126   7.034   3.576
60204SOL    HW182509  10.174   7.025   3.658
60204SOL    HW282510  10.174   6.979   3.514
60205SOL     OW82511   5.496   8.129   5.910
60205SOL    HW182512   5.434   8.197   5.883
60205SOL    HW282513   5.568   8.135   5.847
60206SOL     OW82514   3.207   4.747   3.119
60206SOL    HW182515   3.186   4.661   3.083
60206SOL    HW282516   3.128   4.799   3.102
60207SOL     OW82517   6.651   0.669   9.776
60207SOL    HW182518   6.644   0.575   9.789
60207SOL    HW282519   6.635   0.683   9.683
60208SOL     OW82520   0.162   7.609   8.384
60208SOL    HW182521   0.121   7.569   8.461
60208SOL    HW282522   0.209   7.537   8.342
60209SOL     OW82523   3.391  12.368   9.127
60209SOL    HW182524   3.308  12.323   9.146
60209SOL    HW282525   3.371  12.461   9.144
60210SOL     OW82526  10.269   9.360   7.436
60210SOL    HW182527  10.349   9.412   7.448
60210SOL    HW282528  10.294   9.294   7.372
60211SOL     OW82529   1.915   7.513   0.331
60211SOL    HW182530   1.938   7.598   0.293
60211SOL    HW282531   1.820   7.507   0.319
60212SOL     OW82532  13.651   2.616  13.943
60212SOL    HW182533  13.610   2.671  13.876
60212SOL    HW282534  13.674   2.676  14.014
60213SOL     OW82535  10.309   1.870  14.117
60213SOL    HW182536  10.236   1.839  14.063
60213SOL    HW282537  10.301   1.819  14.198
60214SOL     OW82538   3.960  12.828  14.556
60214SOL    HW182539   3.999  12.864  14.476
60214SOL    HW282540   4.028  12.771  14.592
60215SOL     OW82541  12.896  11.616  13.830
60215SOL    HW182542  12.984  11.596  13.862
60215SOL    HW282543  12.902  11.603  13.735
60216SOL     OW82544   2.486   3.878   2.889
60216SOL    HW182545   2.550   3.888   2.960
60216SOL    HW282546   2.521   3.930   2.817
60217SOL     OW82547   5.143   6.493  14.411
60217SOL    HW182548   5.090   6.430  14.461
60217SOL    HW282549   5.232   6.459  14.415
60218SOL     OW82550  11.125   3.595  11.663
60218SOL    HW182551  11.196   3.659  11.668
60218SOL    HW282552  11.158   3.526  11.605
60219SOL     OW82553   4.198  13.845  10.753
60219SOL    HW182554   4.197  13.940  10.743
60219SOL    HW282555   4.106  13.819  10.748
60220SOL     OW82556   6.851  10.017  12.766
60220SOL    HW182557   6.859  10.101  12.811
60220SOL    HW282558   6.792  10.035  12.693
60221SOL     OW82559   7.692   6.624   5.713
60221SOL    HW182560   7.604   6.619   5.750
60221SOL    HW282561   7.735   6.543   5.743
60222SOL     OW82562   0.823  10.426   1.428
60222SOL    HW182563   0.876  10.347   1.423
60222SOL    HW282564   0.794  10.430   1.520
60223SOL     OW82565   3.513   4.787  11.818
60223SOL    HW182566   3.487   4.840  11.893
60223SOL    HW282567   3.462   4.823  11.745
60224SOL     OW82568   6.491  12.438   8.188
60224SOL    HW182569   6.514  12.443   8.281
60224SOL    HW282570   6.563  12.391   8.148
60225SOL     OW82571  14.638   6.138   4.726
60225SOL    HW182572  14.688   6.201   4.776
60225SOL    HW282573  14.701   6.098   4.667
60226SOL     OW82574   9.412  13.582   3.345
60226SOL    HW182575   9.317  13.596   3.346
60226SOL    HW282576   9.444  13.631   3.420
60227SOL     OW82577  10.279  13.006  10.626
60227SOL    HW182578  10.217  12.938  10.652
60227SOL    HW282579  10.306  12.981  10.537
60228SOL     OW82580   5.699   2.328   4.041
60228SOL    HW182581   5.745   2.396   3.990
60228SOL    HW282582   5.725   2.344   4.131
60229SOL     OW82583  13.850  14.312   9.435
60229SOL    HW182584  13.882  14.225   9.409
60229SOL    HW282585  13.917  14.346   9.494
60230SOL     OW82586   2.747  11.469   9.261
60230SOL    HW182587   2.818  11.528   9.284
60230SOL    HW282588   2.776  11.427   9.180
60231SOL     OW82589  11.670  10.162   4.246
60231SOL    HW182590  11.608  10.194   4.180
60231SOL    HW282591  11.653  10.215   4.323
60232SOL     OW82592   7.383  12.597   2.541
60232SOL    HW182593   7.310  12.640   2.586
60232SOL    HW282594   7.450  12.585   2.607
60233SOL     OW82595  12.324  11.468  14.456
60233SOL    HW182596  12.415  11.451  14.482
60233SOL    HW282597  12.294  11.536  14.515
60234SOL     OW82598   1.629  10.992   9.209
60234SOL    HW182599   1.576  10.942   9.147
60234SOL    HW282600   1.718  10.956   9.199
60235SOL     OW82601  12.541  12.168  11.931
60235SOL    HW182602  12.569  12.077  11.943
60235SOL    HW282603  12.509  12.172  11.841
60236SOL     OW82604  14.109   1.433   9.400
60236SOL    HW182605  14.164   1.491   9.348
60236SOL    HW282606  14.135   1.450   9.490
60237SOL     OW82607  14.324  10.051   5.648
60237SOL    HW182608  14.229  10.055   5.635
60237SOL    HW282609  14.338   9.973   5.701
60238SOL     OW82610  11.966  14.039   9.851
60238SOL    HW182611  11.974  13.987   9.931
60238SOL    HW282612  11.939  14.126   9.881
60239SOL     OW82613   5.512  10.529  12.846
60239SOL    HW182614   5.426  10.494  12.869
60239SOL    HW282615   5.571  10.454  12.855
60240SOL     OW82616   6.252   2.829  10.497
60240SOL    HW182617   6.299   2.835  10.414
60240SOL    HW282618   6.292   2.896  10.552
60241SOL     OW82619   8.891  12.648   8.796
60241SOL    HW182620   8.862  12.734   8.765
60241SOL    HW282621   8.810  12.603   8.820
60242SOL     OW82622   2.406  12.920  11.966
60242SOL    HW182623   2.455  12.993  11.928
60242SOL    HW282624   2.368  12.957  12.046
60243SOL     OW82625   9.326   1.057   8.024
60243SOL    HW182626   9.283   1.032   7.943
60243SOL    HW282627   9.415   1.081   7.998
60244SOL     OW82628   2.104   8.715  10.276
60244SOL    HW182629   2.085   8.808  10.280
60244SOL    HW282630   2.162   8.705  10.201
60245SOL     OW82631   0.709  13.026  12.624
60245SOL    HW182632   0.779  13.039  12.560
60245SOL    HW282633   0.629  13.044  12.576
60246SOL     OW82634   6.038  10.955   0.255
60246SOL    HW182635   5.980  11.019   0.212
60246SOL    HW282636   6.009  10.955   0.346
60247SOL     OW82637   6.839   7.996   5.523
60247SOL    HW182638   6.761   7.980   5.470
60247SOL    HW282639   6.820   8.075   5.573
60248SOL     OW82640  13.867   8.039  11.373
60248SOL    HW182641  13.894   7.951  11.347
60248SOL    HW282642  13.946   8.093  11.362
60249SOL     OW82643   0.931  12.359   1.679
60249SOL    HW182644   0.936  12.321   1.767
60249SOL    HW282645   0.867  12.303   1.633
60250SOL     OW82646   7.723   8.783   0.519
60250SOL    HW182647   7.747   8.691   0.504
60250SOL    HW282648   7.662   8.779   0.592
60251SOL     OW82649   7.109   9.880  13.316
60251SOL    HW182650   7.183   9.904  13.372
60251SOL    HW282651   7.036   9.868  13.377
60252SOL     OW82652   4.624   0.396   5.624
60252SOL    HW182653   4.576   0.439   5.554
60252SOL    HW282654   4.557   0.346   5.671
60253SOL     OW82655   9.275   8.621   1.058
60253SOL    HW182656   9.285   8.715   1.038
60253SOL    HW282657   9.247   8.620   1.150
60254SOL     OW82658  11.175   3.133  12.922
60254SOL    HW182659  11.265   3.108  12.900
60254SOL    HW282660  11.158   3.210  12.868
60255SOL     OW82661   1.318   5.106  12.086
60255SOL    HW182662   1.227   5.125  12.107
60255SOL    HW282663   1.347   5.044  12.153
60256SOL     OW82664   5.818   0.722   1.598
60256SOL    HW182665   5.820   0.815   1.621
60256SOL    HW282666   5.725   0.699   1.598
60257SOL     OW82667   9.290   9.207  13.371
60257SOL    HW182668   9.221   9.252  13.420
60257SOL    HW282669   9.248   9.183  13.288
60258SOL     OW82670   0.024   5.256   1.941
60258SOL    HW182671   0.081   5.327   1.912
60258SOL    HW282672  14.852   5.293   2.013
60259SOL     OW82673   5.476   9.416   7.509
60259SOL    HW182674   5.477   9.399   7.415
60259SOL    HW282675   5.387   9.395   7.537
60260SOL     OW82676   6.651  14.543   1.791
60260SOL    HW182677   6.705  14.470   1.761
60260SOL    HW282678   6.713  14.603   1.832
60261SOL     OW82679   8.412  11.171   0.716
60261SOL    HW182680   8.444  11.213   0.637
60261SOL    HW282681   8.461  11.089   0.721
60262SOL     OW82682  11.038   3.667  13.400
60262SOL    HW182683  11.048   3.579  13.364
60262SOL    HW282684  11.059   3.657  13.493
60263SOL     OW82685  14.189   4.678  12.777
60263SOL    HW182686  14.101   4.714  12.765
60263SOL    HW282687  14.179   4.584  12.761
60264SOL     OW82688   1.731  13.041   1.427
60264SOL    HW182689   1.722  13.013   1.336
60264SOL    HW282690   1.649  13.016   1.468
60265SOL     OW82691  14.131  13.904   9.381
60265SOL    HW182692  14.100  13.829   9.431
60265SOL    HW282693  14.193  13.867   9.318
60266SOL     OW82694   3.110   3.995   9.236
60266SOL    HW182695   3.017   4.011   9.253
60266SOL    HW282696   3.146   4.082   9.215
60267SOL     OW82697   5.158   6.975  13.220
60267SOL    HW182698   5.208   7.047  13.258
60267SOL    HW282699   5.078   7.015  13.188
60268SOL     OW82700   7.126   2.315  14.425
60268SOL    HW182701   7.175   2.280  14.350
60268SOL    HW282702   7.042   2.268  14.422
60269SOL     OW82703   8.926   3.764   7.239
60269SOL    HW182704   9.018   3.762   7.211
60269SOL    HW282705   8.879   3.800   7.164
60270SOL     OW82706  11.213   8.834   2.161
60270SOL    HW182707  11.162   8.906   2.197
60270SOL    HW282708  11.147   8.771   2.131
60271SOL     OW82709   4.926  14.693   6.996
60271SOL    HW182710   4.872  14.626   6.955
60271SOL    HW282711   4.923  14.767   6.934
60272SOL     OW82712  14.746   5.235   7.420
60272SOL    HW182713  14.687   5.166   7.388
60272SOL    HW282714  14.796   5.193   7.490
60273SOL     OW82715  14.133   5.602   4.482
60273SOL    HW182716  14.122   5.533   4.546
60273SOL    HW282717  14.068   5.583   4.414
60274SOL     OW82718   2.450  12.604  14.495
60274SOL    HW182719   2.374  12.611  14.553
60274SOL    HW282720   2.470  12.694  14.471
60275SOL     OW82721   4.732   8.818   0.054
60275SOL    HW182722   4.808   8.861   0.094
60275SOL    HW282723   4.710   8.873  14.859
60276SOL     OW82724  12.176  10.135  14.308
60276SOL    HW182725  12.086  10.113  14.282
60276SOL    HW282726  12.229  10.063  14.273
60277SOL     OW82727   0.888   8.658   3.519
60277SOL    HW182728   0.822   8.660   3.588
60277SOL    HW282729   0.844   8.692   3.441
60278SOL     OW82730   0.120   7.742   2.615
60278SOL    HW182731   0.073   7.708   2.691
60278SOL    HW282732   0.075   7.824   2.595
60279SOL     OW82733  13.460   1.453   7.929
60279SOL    HW182734  13.366   1.441   7.941
60279SOL    HW282735  13.470   1.547   7.909
60280SOL     OW82736   4.344   5.696   5.624
60280SOL    HW182737   4.427   5.728   5.589
60280SOL    HW282738   4.363   5.677   5.716
60281SOL     OW82739   9.932   6.397  13.091
60281SOL    HW182740   9.858   6.452  13.065
60281SOL    HW282741  10.008   6.454  13.082
60282SOL     OW82742   3.958   5.380  11.660
60282SOL    HW182743   4.007   5.383  11.578
60282SOL    HW282744   4.009   5.323  11.717
60283SOL     OW82745  11.017  10.087   3.852
60283SOL    HW182746  11.085  10.030   3.817
60283SOL    HW282747  11.063  10.168   3.874
60284SOL     OW82748   6.025  13.647   2.920
60284SOL    HW182749   6.076  13.566   2.913
60284SOL    HW282750   6.038  13.690   2.836
60285SOL     OW82751   9.373   5.380  12.175
60285SOL    HW182752   9.364   5.286  12.161
60285SOL    HW282753   9.365   5.418  12.088
60286SOL     OW82754  13.994   2.684  11.028
60286SOL    HW182755  14.024   2.684  11.119
60286SOL    HW282756  13.903   2.654  11.032
60287SOL     OW82757  10.245   2.784  12.734
60287SOL    HW182758  10.174   2.759  12.675
60287SOL    HW282759  10.218   2.868  12.769
60288SOL     OW82760   5.326   4.404   3.673
60288SOL    HW182761   5.372   4.370   3.749
60288SOL    HW282762   5.385   4.470   3.636
60289SOL     OW82763  12.464   8.231   6.974
60289SOL    HW182764  12.482   8.252   6.883
60289SOL    HW282765  12.453   8.316   7.017
60290SOL     OW82766   9.736  14.066   8.978
60290SOL    HW182767   9.827  14.038   8.983
60290SOL    HW282768   9.686  13.989   9.005
60291SOL     OW82769   4.006   7.188  11.904
60291SOL    HW182770   4.093   7.199  11.943
60291SOL    HW282771   3.967   7.116  11.954
60292SOL     OW82772  11.903   2.071   2.095
60292SOL    HW182773  11.932   2.047   2.007
60292SOL    HW282774  11.905   2.167   2.095
60293SOL     OW82775  13.524   5.763  14.347
60293SOL    HW182776  13.536   5.707  14.424
60293SOL    HW282777  13.434   5.793  14.353
60294SOL     OW82778   9.192  14.604   6.247
60294SOL    HW182779   9.157  14.620   6.335
60294SOL    HW282780   9.261  14.539   6.260
60295SOL     OW82781   1.982   3.672   9.569
60295SOL    HW182782   2.069   3.633   9.561
60295SOL    HW282783   1.979   3.705   9.659
60296SOL     OW82784   5.832   2.798   0.541
60296SOL    HW182785   5.786   2.723   0.503
60296SOL    HW282786   5.902   2.759   0.594
60297SOL     OW82787   5.597  12.347   2.886
60297SOL    HW182788   5.664  12.372   2.949
60297SOL    HW282789   5.514  12.359   2.933
60298SOL     OW82790   7.393  13.806   6.141
60298SOL    HW182791   7.436  13.891   6.130
60298SOL    HW282792   7.352  13.811   6.227
60299SOL     OW82793   5.291  10.293   3.067
60299SOL    HW182794   5.365  10.263   3.120
60299SOL    HW282795   5.273  10.221   3.007
60300SOL     OW82796   4.160  13.742  13.058
60300SOL    HW182797   4.231  13.677  13.055
60300SOL    HW282798   4.100  13.714  12.989
60301SOL     OW82799   8.804   3.271   0.658
60301SOL    HW182800   8.796   3.249   0.565
60301SOL    HW282801   8.714   3.275   0.690
60302SOL     OW82802  11.695   4.280   5.227
60302SOL    HW182803  11.756   4.250   5.160
60302SOL    HW282804  11.741   4.267   5.310
60303SOL     OW82805   3.031   9.571  10.609
60303SOL    HW182806   3.118   9.555  10.646
60303SOL    HW282807   2.979   9.494  10.635
60304SOL     OW82808  11.798  12.738  14.023
60304SOL    HW182809  11.760  12.823  14.003
60304SOL    HW282810  11.873  12.731  13.963
60305SOL     OW82811   6.645   4.840   7.408
60305SOL    HW182812   6.687   4.787   7.340
60305SOL    HW282813   6.697   4.920   7.412
60306SOL     OW82814   7.769   8.438   8.734
60306SOL    HW182815   7.788   8.510   8.673
60306SOL    HW282816   7.750   8.363   8.677
60307SOL     OW82817   0.305   8.065   5.090
60307SOL    HW182818   0.249   7.989   5.109
60307SOL    HW282819   0.263   8.106   5.015
60308SOL     OW82820   5.416   8.940   2.616
60308SOL    HW182821   5.377   8.889   2.545
60308SOL    HW282822   5.356   9.014   2.628
60309SOL     OW82823   8.644   9.203   3.883
60309SOL    HW182824   8.607   9.119   3.911
60309SOL    HW282825   8.568   9.260   3.872
60310SOL     OW82826   1.988  11.337   2.812
60310SOL    HW182827   1.925  11.315   2.744
60310SOL    HW282828   2.073  11.338   2.767
60311SOL     OW82829   2.818   0.388   8.148
60311SOL    HW182830   2.880   0.318   8.127
60311SOL    HW282831   2.740   0.342   8.180
60312SOL     OW82832   2.470   6.037  11.014
60312SOL    HW182833   2.510   5.985  10.945
60312SOL    HW282834   2.506   6.125  11.003
60313SOL     OW82835  14.471   8.310  13.646
60313SOL    HW182836  14.566   8.312  13.637
60313SOL    HW282837  14.447   8.220  13.625
60314SOL     OW82838   2.427  10.639  12.724
60314SOL    HW182839   2.365  10.574  12.690
60314SOL    HW282840   2.387  10.672  12.804
60315SOL     OW82841   4.539   6.184  11.511
60315SOL    HW182842   4.479   6.204  11.439
60315SOL    HW282843   4.500   6.109  11.555
60316SOL     OW82844   8.610   7.882   6.257
60316SOL    HW182845   8.566   7.964   6.277
60316SOL    HW282846   8.631   7.844   6.342
60317SOL     OW82847   9.172   7.980   3.721
60317SOL    HW182848   9.153   7.897   3.677
60317SOL    HW282849   9.228   8.027   3.660
60318SOL     OW82850   0.406   8.683   4.612
60318SOL    HW182851   0.391   8.605   4.665
60318SOL    HW282852   0.370   8.755   4.664
60319SOL     OW82853   7.310  11.033   9.731
60319SOL    HW182854   7.404  11.044   9.721
60319SOL    HW282855   7.274  11.122   9.728
60320SOL     OW82856   2.134   2.922   9.867
60320SOL    HW182857   2.200   2.853   9.877
60320SOL    HW282858   2.143   2.951   9.777
60321SOL     OW82859   9.588   7.251   6.469
60321SOL    HW182860   9.675   7.280   6.495
60321SOL    HW282861   9.547   7.328   6.430
60322SOL     OW82862   1.226  13.467   5.617
60322SOL    HW182863   1.268  13.553   5.616
60322SOL    HW282864   1.280  13.414   5.557
60323SOL     OW82865   9.118   7.557   3.423
60323SOL    HW182866   9.096   7.491   3.358
60323SOL    HW282867   9.062   7.538   3.498
60324SOL     OW82868   8.118   0.251  13.701
60324SOL    HW182869   8.105   0.187  13.770
60324SOL    HW282870   8.106   0.201  13.620
60325SOL     OW82871  13.825   3.057   4.835
60325SOL    HW182872  13.778   2.982   4.870
60325SOL    HW282873  13.913   3.024   4.817
60326SOL     OW82874  13.554  13.321  13.270
60326SOL    HW182875  13.579  13.391  13.210
60326SOL    HW282876  13.561  13.241  13.218
60327SOL     OW82877  10.313  11.441   5.948
60327SOL    HW182878  10.221  11.449   5.973
60327SOL    HW282879  10.337  11.351   5.971
60328SOL     OW82880   3.326  14.841   1.619
60328SOL    HW182881   3.379  14.787   1.677
60328SOL    HW282882   3.235  14.820   1.643
60329SOL     OW82883  14.073   2.393  11.005
60329SOL    HW182884  14.118   2.362  10.926
60329SOL    HW282885  14.017   2.464  10.974
60330SOL     OW82886  10.371   4.946   5.445
60330SOL    HW182887  10.294   4.996   5.471
60330SOL    HW282888  10.338   4.884   5.379
60331SOL     OW82889  14.520   5.363   4.265
60331SOL    HW182890  14.574   5.431   4.225
60331SOL    HW282891  14.527   5.378   4.359
60332SOL     OW82892  11.061   6.195   9.443
60332SOL    HW182893  11.055   6.289   9.461
60332SOL    HW282894  11.155   6.177   9.438
60333SOL     OW82895  14.172   0.030  13.406
60333SOL    HW182896  14.264   0.012  13.425
60333SOL    HW282897  14.133  14.823  13.394
60334SOL     OW82898  12.429   9.887   3.534
60334SOL    HW182899  12.434   9.816   3.598
60334SOL    HW282900  12.474   9.961   3.576
60335SOL     OW82901   7.348   6.279  13.864
60335SOL    HW182902   7.275   6.237  13.818
60335SOL    HW282903   7.322   6.279  13.955
60336SOL     OW82904   8.214   7.722   1.955
60336SOL    HW182905   8.264   7.775   2.016
60336SOL    HW282906   8.272   7.709   1.881
60337SOL     OW82907   7.537   8.782  12.280
60337SOL    HW182908   7.600   8.711  12.271
60337SOL    HW282909   7.527   8.794  12.374
60338SOL     OW82910  13.390   1.649  11.856
60338SOL    HW182911  13.388   1.681  11.946
60338SOL    HW282912  13.477   1.609  11.847
60339SOL     OW82913   9.181   9.365   0.446
60339SOL    HW182914   9.110   9.314   0.486
60339SOL    HW282915   9.170   9.453   0.481
60340SOL     OW82916   3.161   8.950   2.246
60340SOL    HW182917   3.186   9.040   2.268
60340SOL    HW282918   3.090   8.960   2.183
60341SOL     OW82919  12.433  12.065   2.667
60341SOL    HW182920  12.413  12.157   2.652
60341SOL    HW282921  12.376  12.040   2.740
60342SOL     OW82922  12.214   2.919  12.268
60342SOL    HW182923  12.164   2.950  12.343
60342SOL    HW282924  12.208   2.823  12.273
60343SOL     OW82925  13.774   8.646   9.752
60343SOL    HW182926  13.769   8.611   9.841
60343SOL    HW282927  13.867   8.641   9.731
60344SOL     OW82928   0.601   2.244  14.300
60344SOL    HW182929   0.602   2.334  14.267
60344SOL    HW282930   0.542   2.198  14.241
60345SOL     OW82931   1.980  11.205  12.938
60345SOL    HW182932   2.050  11.169  12.992
60345SOL    HW282933   2.013  11.197  12.848
60346SOL     OW82934   6.925   3.716   0.204
60346SOL    HW182935   6.844   3.667   0.187
60346SOL    HW282936   6.973   3.662   0.268
60347SOL     OW82937   4.844  11.292  12.277
60347SOL    HW182938   4.938  11.278  12.288
60347SOL    HW282939   4.836  11.335  12.193
60348SOL     OW82940   2.605   4.082   6.792
60348SOL    HW182941   2.664   4.140   6.744
60348SOL    HW282942   2.590   4.008   6.732
60349SOL     OW82943   5.358  13.710  14.665
60349SOL    HW182944   5.437  13.661  14.690
60349SOL    HW282945   5.303  13.708  14.744
60350SOL     OW82946   6.630  13.292   0.941
60350SOL    HW182947   6.664  13.352   0.874
60350SOL    HW282948   6.567  13.343   0.990
60351SOL     OW82949  10.437   5.422  14.402
60351SOL    HW182950  10.505   5.489  14.393
60351SOL    HW282951  10.417   5.421  14.496
60352SOL     OW82952   3.355   3.630   9.007
60352SOL    HW182953   3.345   3.724   9.021
60352SOL    HW282954   3.429   3.605   9.063
60353SOL     OW82955   3.087  12.145  13.859
60353SOL    HW182956   3.085  12.099  13.943
60353SOL    HW282957   3.001  12.129  13.821
60354SOL     OW82958   5.964  13.733   5.284
60354SOL    HW182959   6.028  13.788   5.327
60354SOL    HW282960   5.949  13.661   5.346
60355SOL     OW82961   9.304   5.964   0.319
60355SOL    HW182962   9.254   5.996   0.244
60355SOL    HW282963   9.336   6.043   0.363
60356SOL     OW82964   5.303   9.621   5.325
60356SOL    HW182965   5.380   9.675   5.341
60356SOL    HW282966   5.235   9.683   5.300
60357SOL     OW82967   5.423  11.297   9.915
60357SOL    HW182968   5.478  11.288   9.993
60357SOL    HW282969   5.341  11.253   9.938
60358SOL     OW82970   8.221   9.104   2.289
60358SOL    HW182971   8.224   9.191   2.327
60358SOL    HW282972   8.261   9.114   2.202
60359SOL     OW82973  10.475   1.011  12.131
60359SOL    HW182974  10.386   0.991  12.101
60359SOL    HW282975  10.504   0.932  12.176
60360SOL     OW82976  13.481   8.491  12.474
60360SOL    HW182977  13.472   8.539  12.556
60360SOL    HW282978  13.494   8.400  12.501
60361SOL     OW82979   4.898   3.787   2.459
60361SOL    HW182980   4.918   3.849   2.390
60361SOL    HW282981   4.982   3.768   2.501
60362SOL     OW82982  10.033  12.816  12.599
60362SOL    HW182983   9.967  12.748  12.611
60362SOL    HW282984  10.102  12.775  12.548
60363SOL     OW82985   0.653   4.169   0.115
60363SOL    HW182986   0.574   4.182   0.064
60363SOL    HW282987   0.624   4.171   0.206
60364SOL     OW82988   7.836   7.435  14.079
60364SOL    HW182989   7.854   7.427  14.172
60364SOL    HW282990   7.778   7.511  14.072
60365SOL     OW82991  11.713   5.043   4.717
60365SOL    HW182992  11.677   5.025   4.630
60365SOL    HW282993  11.752   4.960   4.745
60366SOL     OW82994  14.508  14.091  12.268
60366SOL    HW182995  14.455  14.029  12.218
60366SOL    HW282996  14.492  14.067  12.360
60367SOL     OW82997  13.427   9.624   6.281
60367SOL    HW182998  13.387   9.592   6.362
60367SOL    HW282999  13.382   9.706   6.262
60368SOL     OW83000   4.869   3.617   1.790
60368SOL    HW183001   4.955   3.627   1.748
60368SOL    HW283002   4.809   3.665   1.732
60369SOL     OW83003  10.692   3.386   4.738
60369SOL    HW183004  10.608   3.341   4.731
60369SOL    HW283005  10.741   3.335   4.802
60370SOL     OW83006   7.171   9.363   6.611
60370SOL    HW183007   7.223   9.370   6.532
60370SOL    HW283008   7.197   9.439   6.664
60371SOL     OW83009   9.654   1.454  13.014
60371SOL    HW183010   9.738   1.409  13.003
60371SOL    HW283011   9.589   1.384  13.008
60372SOL     OW83012  14.580   6.513  10.613
60372SOL    HW183013  14.502   6.513  10.668
60372SOL    HW283014  14.546   6.495  10.525
60373SOL     OW83015  10.650  13.265   5.082
60373SOL    HW183016  10.590  13.338   5.093
60373SOL    HW283017  10.730  13.304   5.046
60374SOL     OW83018  11.934   3.853  12.819
60374SOL    HW183019  11.904   3.923  12.878
60374SOL    HW283020  12.028   3.848  12.833
60375SOL     OW83021  10.673   4.214   9.897
60375SOL    HW183022  10.581   4.224   9.920
60375SOL    HW283023  10.671   4.183   9.806
60376SOL     OW83024   5.998  11.925   1.662
60376SOL    HW183025   6.014  11.985   1.590
60376SOL    HW283026   6.076  11.868   1.663
60377SOL     OW83027   0.516   7.611   8.008
60377SOL    HW183028   0.461   7.689   7.994
60377SOL    HW283029   0.541   7.583   7.920
60378SOL     OW83030  14.333   3.054   5.212
60378SOL    HW183031  14.287   3.046   5.296
60378SOL    HW283032  14.330   3.148   5.192
60379SOL     OW83033  13.542   2.761  12.645
60379SOL    HW183034  13.483   2.739  12.717
60379SOL    HW283035  13.548   2.681  12.594
60380SOL     OW83036   4.985   8.742  13.838
60380SOL    HW183037   5.028   8.665  13.875
60380SOL    HW283038   4.994   8.809  13.905
60381SOL     OW83039   3.387   2.025  10.447
60381SOL    HW183040   3.294   2.008  10.433
60381SOL    HW283041   3.399   2.014  10.542
60382SOL     OW83042   2.914   0.561   8.385
60382SOL    HW183043   2.835   0.556   8.439
60382SOL    HW283044   2.904   0.491   8.321
60383SOL     OW83045   0.177   3.175   7.202
60383SOL    HW183046   0.159   3.108   7.137
60383SOL    HW283047   0.143   3.256   7.163
60384SOL     OW83048   4.922  14.217   9.621
60384SOL    HW183049   4.872  14.153   9.571
60384SOL    HW283050   4.895  14.302   9.586
60385SOL     OW83051  10.526  11.265   8.033
60385SOL    HW183052  10.498  11.198   8.096
60385SOL    HW283053  10.453  11.327   8.031
60386SOL     OW83054  10.565   0.659   5.371
60386SOL    HW183055  10.565   0.727   5.439
60386SOL    HW283056  10.644   0.607   5.389
60387SOL     OW83057   7.930   3.329   3.418
60387SOL    HW183058   8.014   3.320   3.373
60387SOL    HW283059   7.865   3.297   3.355
60388SOL     OW83060   3.277   4.868   1.444
60388SOL    HW183061   3.302   4.957   1.469
60388SOL    HW283062   3.278   4.869   1.348
60389SOL     OW83063   1.120   9.962  13.638
60389SOL    HW183064   1.045  10.020  13.652
60389SOL    HW283065   1.151   9.941  13.726
60390SOL     OW83066   8.226   4.534  12.698
60390SOL    HW183067   8.305   4.497  12.738
60390SOL    HW283068   8.236   4.628  12.711
60391SOL     OW83069   7.842   5.020   5.111
60391SOL    HW183070   7.760   5.049   5.152
60391SOL    HW283071   7.895   5.100   5.106
60392SOL     OW83072   3.821  10.168  13.462
60392SOL    HW183073   3.858  10.240  13.513
60392SOL    HW283074   3.877  10.163  13.384
60393SOL     OW83075  10.932   0.223  11.658
60393SOL    HW183076  10.938   0.308  11.701
60393SOL    HW283077  10.957   0.240  11.568
60394SOL     OW83078   1.889   4.108  10.952
60394SOL    HW183079   1.944   4.038  10.915
60394SOL    HW283080   1.829   4.063  11.011
60395SOL     OW83081   8.557  12.650  12.403
60395SOL    HW183082   8.464  12.670  12.409
60395SOL    HW283083   8.568  12.613  12.315
60396SOL     OW83084   5.077  12.969   8.150
60396SOL    HW183085   5.115  12.999   8.232
60396SOL    HW283086   5.061  13.049   8.100
60397SOL     OW83087   8.652   6.452   6.547
60397SOL    HW183088   8.557   6.453   6.533
60397SOL    HW283089   8.684   6.379   6.493
60398SOL     OW83090   3.546   5.752  12.108
60398SOL    HW183091   3.582   5.841  12.108
60398SOL    HW283092   3.492   5.748  12.187
60399SOL     OW83093  14.455   2.723  10.239
60399SOL    HW183094  14.514   2.728  10.164
60399SOL    HW283095  14.375   2.768  10.211
60400SOL     OW83096  11.920   3.246  11.303
60400SOL    HW183097  11.934   3.340  11.310
60400SOL    HW283098  12.007   3.210  11.287
60401SOL     OW83099   9.329  11.649   0.682
60401SOL    HW183100   9.364  11.628   0.596
60401SOL    HW283101   9.234  11.643   0.671
60402SOL     OW83102   0.300   0.021  14.260
60402SOL    HW183103   0.392  14.875  14.273
60402SOL    HW283104   0.250  14.824  14.290
60403SOL     OW83105   7.636  11.286   6.486
60403SOL    HW183106   7.571  11.348   6.519
60403SOL    HW283107   7.586  11.206   6.468
60404SOL     OW83108  13.258  10.675   1.314
60404SOL    HW183109  13.179  10.714   1.278
60404SOL    HW283110  13.277  10.726   1.393
60405SOL     OW83111   8.852   2.709  13.115
60405SOL    HW183112   8.855   2.791  13.066
60405SOL    HW283113   8.769   2.713  13.163
60406SOL     OW83114  10.681   9.693   4.912
60406SOL    HW183115  10.708   9.650   4.831
60406SOL    HW283116  10.762   9.716   4.956
60407SOL     OW83117   0.449   0.963   4.484
60407SOL    HW183118   0.533   0.993   4.519
60407SOL    HW283119   0.417   0.900   4.549
60408SOL     OW83120   9.255   5.680   4.414
60408SOL    HW183121   9.201   5.675   4.335
60408SOL    HW283122   9.338   5.717   4.384
60409SOL     OW83123   7.805   1.495  11.317
60409SOL    HW183124   7.862   1.423  11.290
60409SOL    HW283125   7.746   1.507  11.242
60410SOL     OW83126   6.922   8.145   9.108
60410SOL    HW183127   6.939   8.174   9.198
60410SOL    HW283128   7.006   8.153   9.064
60411SOL     OW83129  10.778   0.137  12.151
60411SOL    HW183130  10.768   0.189  12.071
60411SOL    HW283131  10.843   0.184  12.202
60412SOL     OW83132   7.917   8.673   7.229
60412SOL    HW183133   7.924   8.584   7.194
60412SOL    HW283134   8.003   8.711   7.215
60413SOL     OW83135   0.414   2.036   8.272
60413SOL    HW183136   0.362   1.992   8.205
60413SOL    HW283137   0.429   1.969   8.339
60414SOL     OW83138   1.236   1.554  13.003
60414SOL    HW183139   1.166   1.535  12.941
60414SOL    HW283140   1.290   1.475  13.004
60415SOL     OW83141   8.051  12.672   3.238
60415SOL    HW183142   7.990  12.610   3.277
60415SOL    HW283143   8.040  12.661   3.143
60416SOL     OW83144  13.337   6.572   8.203
60416SOL    HW183145  13.362   6.587   8.294
60416SOL    HW283146  13.322   6.659   8.168
60417SOL     OW83147  10.636   9.794   9.299
60417SOL    HW183148  10.611   9.705   9.323
60417SOL    HW283149  10.708   9.782   9.237
60418SOL     OW83150   1.071   7.393  10.111
60418SOL    HW183151   0.976   7.403  10.098
60418SOL    HW283152   1.079   7.332  10.184
60419SOL     OW83153   1.424   2.030   4.591
60419SOL    HW183154   1.344   1.982   4.570
60419SOL    HW283155   1.477   2.025   4.512
60420SOL     OW83156   3.372   9.799   4.390
60420SOL    HW183157   3.326   9.776   4.470
60420SOL    HW283158   3.385   9.894   4.395
60421SOL     OW83159   1.584   3.713   3.516
60421SOL    HW183160   1.615   3.734   3.428
60421SOL    HW283161   1.647   3.756   3.574
60422SOL     OW83162   3.558   0.806  10.717
60422SOL    HW183163   3.637   0.859  10.709
60422SOL    HW283164   3.488   0.860  10.682
60423SOL     OW83165  12.948   4.810   7.834
60423SOL    HW183166  12.996   4.738   7.793
60423SOL    HW283167  12.976   4.808   7.926
60424SOL     OW83168  12.951   3.062   5.807
60424SOL    HW183169  13.016   3.003   5.846
60424SOL    HW283170  12.984   3.150   5.826
60425SOL     OW83171   1.825  12.232   0.866
60425SOL    HW183172   1.903  12.284   0.846
60425SOL    HW283173   1.781  12.281   0.936
60426SOL     OW83174   8.301  12.366  11.856
60426SOL    HW183175   8.319  12.352  11.763
60426SOL    HW283176   8.209  12.392  11.859
60427SOL     OW83177   5.289   4.758  10.672
60427SOL    HW183178   5.321   4.678  10.630
60427SOL    HW283179   5.282   4.821  10.601
60428SOL     OW83180  11.019   2.972  11.524
60428SOL    HW183181  11.086   2.926  11.475
60428SOL    HW283182  10.945   2.912  11.526
60429SOL     OW83183  10.675   4.388  10.319
60429SOL    HW183184  10.727   4.457  10.360
60429SOL    HW283185  10.707   4.307  10.359
60430SOL     OW83186  13.630   9.741   1.163
60430SOL    HW183187  13.706   9.681   1.161
60430SOL    HW283188  13.611   9.752   1.256
60431SOL     OW83189   4.168   0.695   7.028
60431SOL    HW183190   4.162   0.614   7.079
60431SOL    HW283191   4.087   0.742   7.047
60432SOL     OW83192  12.252   2.375   7.002
60432SOL    HW183193  12.208   2.297   6.969
60432SOL    HW283194  12.191   2.447   6.984
60433SOL     OW83195  13.411   4.123  12.185
60433SOL    HW183196  13.378   4.114  12.095
60433SOL    HW283197  13.359   4.194  12.222
60434SOL     OW83198  10.680   8.668  13.658
60434SOL    HW183199  10.615   8.703  13.719
60434SOL    HW283200  10.643   8.584  13.630
60435SOL     OW83201   3.119   8.900  14.189
60435SOL    HW183202   3.095   8.992  14.198
60435SOL    HW283203   3.161   8.895  14.103
60436SOL     OW83204  12.168  12.221   5.274
60436SOL    HW183205  12.119  12.302   5.258
60436SOL    HW283206  12.130  12.186   5.354
60437SOL     OW83207  11.583  11.266   9.700
60437SOL    HW183208  11.599  11.360   9.715
60437SOL    HW283209  11.521  11.263   9.628
60438SOL     OW83210   9.102  10.528   3.257
60438SOL    HW183211   9.010  10.544   3.277
60438SOL    HW283212   9.146  10.609   3.280
60439SOL     OW83213   2.366   7.450  14.011
60439SOL    HW183214   2.459   7.461  13.993
60439SOL    HW283215   2.348   7.512  14.083
60440SOL     OW83216  14.097   7.521  11.943
60440SOL    HW183217  14.126   7.563  11.862
60440SOL    HW283218  14.012   7.483  11.922
60441SOL     OW83219  13.187   7.249   1.708
60441SOL    HW183220  13.242   7.199   1.648
60441SOL    HW283221  13.247   7.283   1.774
60442SOL     OW83222   4.374   2.872  14.400
60442SOL    HW183223   4.304   2.936  14.413
60442SOL    HW283224   4.334   2.805  14.345
60443SOL     OW83225   0.533   4.709   8.408
60443SOL    HW183226   0.619   4.751   8.406
60443SOL    HW283227   0.538   4.641   8.341
60444SOL     OW83228  13.614   2.984  13.302
60444SOL    HW183229  13.668   2.969  13.224
60444SOL    HW283230  13.562   3.062  13.280
60445SOL     OW83231  13.329   2.867   3.788
60445SOL    HW183232  13.251   2.908   3.751
60445SOL    HW283233  13.315   2.773   3.779
60446SOL     OW83234  11.522   8.871  10.565
60446SOL    HW183235  11.434   8.906  10.553
60446SOL    HW283236  11.548   8.902  10.652
60447SOL     OW83237   5.555  11.140   7.324
60447SOL    HW183238   5.596  11.055   7.335
60447SOL    HW283239   5.568  11.161   7.231
60448SOL     OW83240   1.601   7.635   4.884
60448SOL    HW183241   1.683   7.672   4.851
60448SOL    HW283242   1.615   7.624   4.978
60449SOL     OW83243   5.277   7.113   6.566
60449SOL    HW183244   5.255   7.112   6.659
60449SOL    HW283245   5.230   7.188   6.531
60450SOL     OW83246  13.420  10.780   9.676
60450SOL    HW183247  13.355  10.799   9.743
60450SOL    HW283248  13.395  10.694   9.641
60451SOL     OW83249   7.561   5.351   9.754
60451SOL    HW183250   7.643   5.381   9.714
60451SOL    HW283251   7.583   5.340   9.847
60452SOL     OW83252  12.524  10.986   8.210
60452SOL    HW183253  12.566  11.014   8.128
60452SOL    HW283254  12.450  11.045   8.221
60453SOL     OW83255  14.508   6.334   6.191
60453SOL    HW183256  14.436   6.351   6.131
60453SOL    HW283257  14.556   6.261   6.151
60454SOL     OW83258  11.605   4.503  10.312
60454SOL    HW183259  11.511   4.493  10.296
60454SOL    HW283260  11.610   4.567  10.383
60455SOL     OW83261  11.167   1.429   1.906
60455SOL    HW183262  11.258   1.452   1.888
60455SOL    HW283263  11.117   1.501   1.868
60456SOL     OW83264   0.166   4.950  14.641
60456SOL    HW183265   0.097   5.009  14.612
60456SOL    HW283266   0.243   5.006  14.654
60457SOL     OW83267   1.102   0.718   7.470
60457SOL    HW183268   1.131   0.793   7.418
60457SOL    HW283269   1.035   0.755   7.528
60458SOL     OW83270   3.913   8.696  13.013
60458SOL    HW183271   3.894   8.785  12.983
60458SOL    HW283272   3.975   8.707  13.085
60459SOL     OW83273   3.207   8.710  14.794
60459SOL    HW183274   3.203   8.633  14.738
60459SOL    HW283275   3.116   8.739  14.803
60460SOL     OW83276   6.054   0.820  13.538
60460SOL    HW183277   6.147   0.807  13.559
60460SOL    HW283278   6.027   0.892  13.596
60461SOL     OW83279   7.598   5.646  14.473
60461SOL    HW183280   7.682   5.692  14.482
60461SOL    HW283281   7.562   5.677  14.390
60462SOL     OW83282   2.807   6.867  13.084
60462SOL    HW183283   2.787   6.783  13.042
60462SOL    HW283284   2.895   6.888  13.055
60463SOL     OW83285   0.195   7.399   0.137
60463SOL    HW183286   0.106   7.363   0.136
60463SOL    HW283287   0.184   7.492   0.119
60464SOL     OW83288   0.561   3.408  13.121
60464SOL    HW183289   0.623   3.427  13.051
60464SOL    HW283290   0.600   3.335  13.169
60465SOL     OW83291  12.066   2.933  14.139
60465SOL    HW183292  12.114   2.858  14.102
60465SOL    HW283293  11.996   2.950  14.076
60466SOL     OW83294  12.468   4.768   3.248
60466SOL    HW183295  12.510   4.854   3.254
60466SOL    HW283296  12.424   4.769   3.163
60467SOL     OW83297  11.274  11.200   4.903
60467SOL    HW183298  11.227  11.146   4.840
60467SOL    HW283299  11.286  11.284   4.859
60468SOL     OW83300   9.528   9.719   2.737
60468SOL    HW183301   9.436   9.707   2.714
60468SOL    HW283302   9.529   9.798   2.791
60469SOL     OW83303  13.791  14.459   4.953
60469SOL    HW183304  13.782  14.538   4.901
60469SOL    HW283305  13.852  14.483   5.023
60470SOL     OW83306  14.039   2.612   0.813
60470SOL    HW183307  14.013   2.624   0.904
60470SOL    HW283308  13.963   2.641   0.762
60471SOL     OW83309   1.174  10.254   4.153
60471SOL    HW183310   1.117  10.330   4.143
60471SOL    HW283311   1.205  10.234   4.065
60472SOL     OW83312  10.422   5.631   6.930
60472SOL    HW183313  10.500   5.580   6.908
60472SOL    HW283314  10.456   5.715   6.961
60473SOL     OW83315   4.181   3.220   8.369
60473SOL    HW183316   4.114   3.157   8.343
60473SOL    HW283317   4.215   3.186   8.451
60474SOL     OW83318   3.585  12.720   9.876
60474SOL    HW183319   3.538  12.802   9.892
60474SOL    HW283320   3.556  12.693   9.789
60475SOL     OW83321   2.278   1.334   4.259
60475SOL    HW183322   2.275   1.384   4.340
60475SOL    HW283323   2.362   1.359   4.219
60476SOL     OW83324   5.512   2.795   1.738
60476SOL    HW183325   5.578   2.833   1.796
60476SOL    HW283326   5.553   2.793   1.652
60477SOL     OW83327  13.831   1.353   0.842
60477SOL    HW183328  13.878   1.314   0.768
60477SOL    HW283329  13.744   1.313   0.838
60478SOL     OW83330   1.305   9.583   6.459
60478SOL    HW183331   1.270   9.632   6.384
60478SOL    HW283332   1.313   9.493   6.428
60479SOL     OW83333  11.547   1.808   5.002
60479SOL    HW183334  11.593   1.829   5.083
60479SOL    HW283335  11.522   1.716   5.012
60480SOL     OW83336  13.517   1.357   2.132
60480SOL    HW183337  13.501   1.451   2.143
60480SOL    HW283338  13.514   1.344   2.037
60481SOL     OW83339   3.456  14.041   3.908
60481SOL    HW183340   3.438  13.948   3.918
60481SOL    HW283341   3.376  14.085   3.937
60482SOL     OW83342   7.377   7.961   4.543
60482SOL    HW183343   7.394   7.998   4.629
60482SOL    HW283344   7.463   7.943   4.506
60483SOL     OW83345   5.763   2.194   3.785
60483SOL    HW183346   5.682   2.148   3.806
60483SOL    HW283347   5.776   2.255   3.857
60484SOL     OW83348  10.530   4.777   7.403
60484SOL    HW183349  10.452   4.807   7.450
60484SOL    HW283350  10.552   4.693   7.444
60485SOL     OW83351   8.203  14.868   0.803
60485SOL    HW183352   8.165   0.062   0.755
60485SOL    HW283353   8.174  14.791   0.754
60486SOL     OW83354  13.378  12.352   7.227
60486SOL    HW183355  13.434  12.425   7.202
60486SOL    HW283356  13.345  12.375   7.313
60487SOL     OW83357   3.521  10.498   5.122
60487SOL    HW183358   3.443  10.460   5.083
60487SOL    HW283359   3.594  10.451   5.081
60488SOL     OW83360  11.329  13.124   8.191
60488SOL    HW183361  11.310  13.070   8.268
60488SOL    HW283362  11.421  13.105   8.171
60489SOL     OW83363   0.863   0.776  10.086
60489SOL    HW183364   0.911   0.819  10.156
60489SOL    HW283365   0.932   0.742  10.027
60490SOL     OW83366  13.121   9.792   4.691
60490SOL    HW183367  13.204   9.751   4.715
60490SOL    HW283368  13.067   9.720   4.657
60491SOL     OW83369  12.130   7.592   2.707
60491SOL    HW183370  12.180   7.561   2.631
60491SOL    HW283371  12.151   7.685   2.714
60492SOL     OW83372   4.492   4.064   7.514
60492SOL    HW183373   4.569   4.009   7.498
60492SOL    HW283374   4.522   4.131   7.576
60493SOL     OW83375  10.876   4.358  11.874
60493SOL    HW183376  10.819   4.364  11.797
60493SOL    HW283377  10.853   4.274  11.914
60494SOL     OW83378   6.938   3.078   0.367
60494SOL    HW183379   6.900   3.127   0.294
60494SOL    HW283380   7.015   3.128   0.393
60495SOL     OW83381   8.168   2.172   6.496
60495SOL    HW183382   8.177   2.077   6.485
60495SOL    HW283383   8.190   2.187   6.588
60496SOL     OW83384   4.985   5.159   3.134
60496SOL    HW183385   5.067   5.182   3.177
60496SOL    HW283386   4.951   5.085   3.185
60497SOL     OW83387   7.139   4.822  10.248
60497SOL    HW183388   7.218   4.824  10.194
60497SOL    HW283389   7.087   4.751  10.211
60498SOL     OW83390   2.436   3.262  14.862
60498SOL    HW183391   2.437   3.174  14.824
60498SOL    HW283392   2.414   3.319  14.789
60499SOL     OW83393   9.627   0.676   3.532
60499SOL    HW183394   9.568   0.604   3.512
60499SOL    HW283395   9.681   0.685   3.453
60500SOL     OW83396   7.363  10.976   8.915
60500SOL    HW183397   7.374  10.987   9.010
60500SOL    HW283398   7.424  10.906   8.893
60501SOL     OW83399   1.606   4.676  11.749
60501SOL    HW183400   1.608   4.662  11.654
60501SOL    HW283401   1.686   4.725  11.768
60502SOL     OW83402   3.429   8.122   8.707
60502SOL    HW183403   3.436   8.027   8.715
60502SOL    HW283404   3.352   8.136   8.653
60503SOL     OW83405   0.159   9.888   7.219
60503SOL    HW183406   0.143   9.793   7.222
60503SOL    HW283407   0.236   9.901   7.275
60504SOL     OW83408   8.770   1.158   1.658
60504SOL    HW183409   8.849   1.197   1.619
60504SOL    HW283410   8.759   1.075   1.613
60505SOL     OW83411   8.734   1.530   0.785
60505SOL    HW183412   8.668   1.595   0.809
60505SOL    HW283413   8.746   1.478   0.865
60506SOL     OW83414   2.476   3.056   3.690
60506SOL    HW183415   2.495   2.975   3.736
60506SOL    HW283416   2.561   3.100   3.682
60507SOL     OW83417   9.732   1.660   4.158
60507SOL    HW183418   9.788   1.596   4.202
60507SOL    HW283419   9.788   1.738   4.148
60508SOL     OW83420   8.123  13.236  11.369
60508SOL    HW183421   8.188  13.294  11.408
60508SOL    HW283422   8.164  13.204  11.289
60509SOL     OW83423   9.012   3.158  10.293
60509SOL    HW183424   9.105   3.159  10.272
60509SOL    HW283425   8.971   3.110  10.221
60510SOL     OW83426   9.143   0.301  10.925
60510SOL    HW183427   9.059   0.296  10.971
60510SOL    HW283428   9.140   0.229  10.862
60511SOL     OW83429   3.811   0.238   9.211
60511SOL    HW183430   3.745   0.192   9.160
60511SOL    HW283431   3.881   0.257   9.149
60512SOL     OW83432   9.643   8.294   4.386
60512SOL    HW183433   9.652   8.302   4.481
60512SOL    HW283434   9.550   8.307   4.369
60513SOL     OW83435   3.488  13.988   7.988
60513SOL    HW183436   3.526  14.070   8.021
60513SOL    HW283437   3.463  14.008   7.898
60514SOL     OW83438   0.404  12.048   4.956
60514SOL    HW183439   0.488  12.034   5.000
60514SOL    HW283440   0.381  11.962   4.920
60515SOL     OW83441  11.319  12.882   0.168
60515SOL    HW183442  11.228  12.862   0.191
60515SOL    HW283443  11.346  12.809   0.112
60516SOL     OW83444  14.317   9.744   5.096
60516SOL    HW183445  14.265   9.675   5.057
60516SOL    HW283446  14.353   9.793   5.022
60517SOL     OW83447  12.415   0.292   8.267
60517SOL    HW183448  12.442   0.380   8.240
60517SOL    HW283449  12.376   0.253   8.188
60518SOL     OW83450   8.574   9.790   8.163
60518SOL    HW183451   8.492   9.825   8.197
60518SOL    HW283452   8.635   9.864   8.167
60519SOL     OW83453  14.348   7.355  13.014
60519SOL    HW183454  14.338   7.447  12.991
60519SOL    HW283455  14.301   7.308  12.944
60520SOL     OW83456   9.355   3.677   2.721
60520SOL    HW183457   9.435   3.674   2.774
60520SOL    HW283458   9.297   3.612   2.761
60521SOL     OW83459   5.186  13.314  10.100
60521SOL    HW183460   5.092  13.305  10.087
60521SOL    HW283461   5.226  13.264  10.029
60522SOL     OW83462  13.758  11.103   0.160
60522SOL    HW183463  13.734  11.026   0.107
60522SOL    HW283464  13.843  11.080   0.198
60523SOL     OW83465   7.679  10.746   0.425
60523SOL    HW183466   7.594  10.750   0.468
60523SOL    HW283467   7.687  10.655   0.395
60524SOL     OW83468   8.030   3.930   1.987
60524SOL    HW183469   8.040   4.015   2.028
60524SOL    HW283470   8.119   3.902   1.965
60525SOL     OW83471   6.918   8.289   0.922
60525SOL    HW183472   6.923   8.193   0.921
60525SOL    HW283473   6.847   8.309   0.983
60526SOL     OW83474  14.121   8.580   5.058
60526SOL    HW183475  14.107   8.556   5.149
60526SOL    HW283476  14.179   8.512   5.023
60527SOL     OW83477  10.448  14.235   3.902
60527SOL    HW183478  10.481  14.147   3.885
60527SOL    HW283479  10.414  14.266   3.818
60528SOL     OW83480   7.019  11.979  12.794
60528SOL    HW183481   6.984  12.031  12.722
60528SOL    HW283482   7.114  11.993  12.789
60529SOL     OW83483   8.098  10.346  10.661
60529SOL    HW183484   8.004  10.358  10.675
60529SOL    HW283485   8.123  10.277  10.723
60530SOL     OW83486  10.628   4.625   6.796
60530SOL    HW183487  10.708   4.575   6.809
60530SOL    HW283488  10.571   4.598   6.868
60531SOL     OW83489  11.809   5.249  14.342
60531SOL    HW183490  11.809   5.156  14.362
60531SOL    HW283491  11.787   5.292  14.425
60532SOL     OW83492  12.580  12.810   9.040
60532SOL    HW183493  12.506  12.749   9.044
60532SOL    HW283494  12.631  12.780   8.964
60533SOL     OW83495  13.638  13.991  13.798
60533SOL    HW183496  13.662  14.075  13.837
60533SOL    HW283497  13.694  13.985  13.720
60534SOL     OW83498   5.106  12.115  12.961
60534SOL    HW183499   5.196  12.148  12.953
60534SOL    HW283500   5.115  12.020  12.959
60535SOL     OW83501   5.393  14.862   3.012
60535SOL    HW183502   5.444  14.859   2.931
60535SOL    HW283503   5.375  14.770   3.032
60536SOL     OW83504  11.386   8.013   7.324
60536SOL    HW183505  11.388   7.976   7.412
60536SOL    HW283506  11.302   7.987   7.288
60537SOL     OW83507  14.877  14.877   3.908
60537SOL    HW183508  14.821   0.051   3.965
60537SOL    HW283509   0.016   0.054   3.833
60538SOL     OW83510   1.102   7.317   6.707
60538SOL    HW183511   1.013   7.305   6.737
60538SOL    HW283512   1.120   7.410   6.722
60539SOL     OW83513   2.362  13.162   1.082
60539SOL    HW183514   2.266  13.163   1.072
60539SOL    HW283515   2.392  13.237   1.032
60540SOL     OW83516   2.709   2.335   1.544
60540SOL    HW183517   2.752   2.332   1.630
60540SOL    HW283518   2.691   2.428   1.529
60541SOL     OW83519   1.869   6.100  12.260
60541SOL    HW183520   1.898   6.107  12.170
60541SOL    HW283521   1.799   6.034  12.257
60542SOL     OW83522   8.954   1.282   3.219
60542SOL    HW183523   8.978   1.321   3.135
60542SOL    HW283524   8.864   1.251   3.206
60543SOL     OW83525   7.645   8.115   3.001
60543SOL    HW183526   7.689   8.165   3.070
60543SOL    HW283527   7.707   8.046   2.978
60544SOL     OW83528   3.505  13.405   4.009
60544SOL    HW183529   3.521  13.462   3.934
60544SOL    HW283530   3.561  13.440   4.078
60545SOL     OW83531   0.435   8.415   7.951
60545SOL    HW183532   0.508   8.402   8.011
60545SOL    HW283533   0.474   8.460   7.876
60546SOL     OW83534  13.029   5.925  11.871
60546SOL    HW183535  13.041   5.962  11.783
60546SOL    HW283536  12.949   5.873  11.864
60547SOL     OW83537   0.897  10.849   1.160
60547SOL    HW183538   0.982  10.855   1.204
60547SOL    HW283539   0.888  10.756   1.139
60548SOL     OW83540   0.175   2.780   2.353
60548SOL    HW183541   0.209   2.827   2.277
60548SOL    HW283542   0.253   2.750   2.399
60549SOL     OW83543  11.515   5.722   0.638
60549SOL    HW183544  11.563   5.795   0.600
60549SOL    HW283545  11.425   5.734   0.608
60550SOL     OW83546   9.419   7.194   5.618
60550SOL    HW183547   9.380   7.260   5.560
60550SOL    HW283548   9.392   7.221   5.706
60551SOL     OW83549   5.283   7.544   4.776
60551SOL    HW183550   5.217   7.565   4.710
60551SOL    HW283551   5.302   7.628   4.818
60552SOL     OW83552   7.739   7.735  11.844
60552SOL    HW183553   7.754   7.692  11.760
60552SOL    HW283554   7.649   7.710  11.867
60553SOL     OW83555   8.636   2.259   6.252
60553SOL    HW183556   8.719   2.211   6.251
60553SOL    HW283557   8.576   2.200   6.298
60554SOL     OW83558   0.750  10.031   5.146
60554SOL    HW183559   0.786  10.086   5.216
60554SOL    HW283560   0.823  10.020   5.085
60555SOL     OW83561  11.168  13.671  14.415
60555SOL    HW183562  11.221  13.688  14.493
60555SOL    HW283563  11.171  13.753  14.366
60556SOL     OW83564   1.541   4.470  11.958
60556SOL    HW183565   1.563   4.515  11.877
60556SOL    HW283566   1.477   4.528  12.001
60557SOL     OW83567  12.561   1.870  12.504
60557SOL    HW183568  12.626   1.827  12.448
60557SOL    HW283569  12.586   1.963  12.502
60558SOL     OW83570   9.157  11.845  10.499
60558SOL    HW183571   9.089  11.910  10.514
60558SOL    HW283572   9.140  11.777  10.565
60559SOL     OW83573   0.891   7.796   9.311
60559SOL    HW183574   0.832   7.850   9.364
60559SOL    HW283575   0.950   7.756   9.374
60560SOL     OW83576   1.806  14.430  14.606
60560SOL    HW183577   1.820  14.494  14.537
60560SOL    HW283578   1.747  14.474  14.667
60561SOL     OW83579  10.871   8.111   3.865
60561SOL    HW183580  10.827   8.027   3.862
60561SOL    HW283581  10.964   8.089   3.875
60562SOL     OW83582  10.517   6.960   3.836
60562SOL    HW183583  10.565   6.877   3.836
60562SOL    HW283584  10.555   7.010   3.763
60563SOL     OW83585   4.939   0.459  13.504
60563SOL    HW183586   4.928   0.389  13.568
60563SOL    HW283587   4.868   0.520  13.523
60564SOL     OW83588   4.635   0.418  14.153
60564SOL    HW183589   4.677   0.496  14.118
60564SOL    HW283590   4.645   0.426  14.248
60565SOL     OW83591   4.519   3.025   2.422
60565SOL    HW183592   4.483   2.987   2.502
60565SOL    HW283593   4.535   2.950   2.365
60566SOL     OW83594   4.960  10.470  13.035
60566SOL    HW183595   4.955  10.552  13.083
60566SOL    HW283596   5.053  10.455  13.021
60567SOL     OW83597  12.156   0.908   3.136
60567SOL    HW183598  12.169   0.943   3.048
60567SOL    HW283599  12.185   0.817   3.129
60568SOL     OW83600  12.317  10.503   1.296
60568SOL    HW183601  12.233  10.456   1.305
60568SOL    HW283602  12.301  10.587   1.339
60569SOL     OW83603   9.554   6.404  10.818
60569SOL    HW183604   9.640   6.444  10.831
60569SOL    HW283605   9.549   6.388  10.724
60570SOL     OW83606  12.269   6.736  12.465
60570SOL    HW183607  12.293   6.682  12.391
60570SOL    HW283608  12.277   6.826  12.433
60571SOL     OW83609   2.873   5.258   2.944
60571SOL    HW183610   2.852   5.350   2.958
60571SOL    HW283611   2.967   5.252   2.963
60572SOL     OW83612  10.205   9.148  11.773
60572SOL    HW183613  10.199   9.219  11.837
60572SOL    HW283614  10.267   9.086  11.812
60573SOL     OW83615  11.307   8.425   9.692
60573SOL    HW183616  11.302   8.521   9.700
60573SOL    HW283617  11.398   8.404   9.712
60574SOL     OW83618  11.228   2.776  10.353
60574SOL    HW183619  11.290   2.703  10.345
60574SOL    HW283620  11.258   2.840  10.289
60575SOL     OW83621   1.356  12.658  10.011
60575SOL    HW183622   1.286  12.595  10.022
60575SOL    HW283623   1.390  12.642   9.923
60576SOL     OW83624   2.771   3.158   1.413
60576SOL    HW183625   2.764   3.105   1.492
60576SOL    HW283626   2.699   3.221   1.420
60577SOL     OW83627   3.159   3.699   7.600
60577SOL    HW183628   3.156   3.762   7.672
60577SOL    HW283629   3.117   3.744   7.527
60578SOL     OW83630  11.377  12.193  14.851
60578SOL    HW183631  11.423  12.246  14.785
60578SOL    HW283632  11.439  12.187   0.044
60579SOL     OW83633   2.651   1.856   6.625
60579SOL    HW183634   2.693   1.883   6.543
60579SOL    HW283635   2.641   1.762   6.617
60580SOL     OW83636  13.990   4.876   3.596
60580SOL    HW183637  13.973   4.967   3.572
60580SOL    HW283638  13.938   4.862   3.675
60581SOL     OW83639  11.373  10.317   5.524
60581SOL    HW183640  11.415  10.400   5.505
60581SOL    HW283641  11.434  10.271   5.582
60582SOL     OW83642  10.960  14.807  12.396
60582SOL    HW183643  11.009  14.819  12.477
60582SOL    HW283644  10.876  14.850  12.412
60583SOL     OW83645   1.936  14.327   6.866
60583SOL    HW183646   1.856  14.344   6.816
60583SOL    HW283647   1.998  14.294   6.801
60584SOL     OW83648  12.188   5.293   8.628
60584SOL    HW183649  12.160   5.241   8.552
60584SOL    HW283650  12.134   5.261   8.700
60585SOL     OW83651  12.092   8.783  13.328
60585SOL    HW183652  12.063   8.846  13.261
60585SOL    HW283653  12.029   8.793  13.399
60586SOL     OW83654  13.726   5.295   6.681
60586SOL    HW183655  13.661   5.338   6.625
60586SOL    HW283656  13.717   5.202   6.660
60587SOL     OW83657   9.025   7.576   2.742
60587SOL    HW183658   8.976   7.622   2.674
60587SOL    HW283659   9.005   7.624   2.823
60588SOL     OW83660   2.705   7.091  14.644
60588SOL    HW183661   2.728   7.132  14.727
60588SOL    HW283662   2.664   7.008  14.668
60589SOL     OW83663   6.107   8.566  14.169
60589SOL    HW183664   6.148   8.514  14.239
60589SOL    HW283665   6.023   8.523  14.153
60590SOL     OW83666   7.913   1.187   3.888
60590SOL    HW183667   7.925   1.139   3.970
60590SOL    HW283668   7.842   1.141   3.844
60591SOL     OW83669   4.200   0.792   9.484
60591SOL    HW183670   4.269   0.832   9.536
60591SOL    HW283671   4.123   0.847   9.498
60592SOL     OW83672  12.074   9.816   4.679
60592SOL    HW183673  12.064   9.849   4.590
60592SOL    HW283674  12.101   9.893   4.730
60593SOL     OW83675   3.715  13.812   6.434
60593SOL    HW183676   3.792  13.838   6.485
60593SOL    HW283677   3.643  13.860   6.475
60594SOL     OW83678  14.626   0.954   6.216
60594SOL    HW183679  14.618   0.863   6.187
60594SOL    HW283680  14.536   0.983   6.230
60595SOL     OW83681   7.971   9.846   2.372
60595SOL    HW183682   8.018   9.891   2.301
60595SOL    HW283683   7.884   9.829   2.337
60596SOL     OW83684   9.971   9.021  13.932
60596SOL    HW183685   9.967   9.098  13.875
60596SOL    HW283686   9.914   9.044  14.006
60597SOL     OW83687   8.986  11.170   1.379
60597SOL    HW183688   9.028  11.247   1.339
60597SOL    HW283689   8.967  11.113   1.305
60598SOL     OW83690  10.919   8.027   3.270
60598SOL    HW183691  10.924   8.096   3.205
60598SOL    HW283692  10.825   8.013   3.282
60599SOL     OW83693   8.987  14.342  11.377
60599SOL    HW183694   8.991  14.367  11.285
60599SOL    HW283695   9.071  14.371  11.413
60600SOL     OW83696   2.058  14.830   6.477
60600SOL    HW183697   2.098  14.745   6.494
60600SOL    HW283698   2.091  14.856   6.392
60601SOL     OW83699  13.101  10.123   5.456
60601SOL    HW183700  13.065  10.203   5.494
60601SOL    HW283701  13.196  10.135   5.460
60602SOL     OW83702   3.819   8.052   6.850
60602SOL    HW183703   3.878   7.985   6.815
60602SOL    HW283704   3.876   8.109   6.901
60603SOL     OW83705   3.366   3.127   8.504
60603SOL    HW183706   3.416   3.059   8.549
60603SOL    HW283707   3.283   3.086   8.482
60604SOL     OW83708   8.997   2.555   5.888
60604SOL    HW183709   8.923   2.514   5.931
60604SOL    HW283710   9.027   2.622   5.949
60605SOL     OW83711   6.281   4.563   2.436
60605SOL    HW183712   6.235   4.568   2.520
60605SOL    HW283713   6.258   4.477   2.401
60606SOL     OW83714  14.088   6.738   0.785
60606SOL    HW183715  14.039   6.793   0.724
60606SOL    HW283716  14.044   6.653   0.781
60607SOL     OW83717  11.357   7.660  12.533
60607SOL    HW183718  11.317   7.577  12.505
60607SOL    HW283719  11.437   7.634  12.578
60608SOL     OW83720   7.006  12.364  10.426
60608SOL    HW183721   7.070  12.424  10.464
60608SOL    HW283722   6.998  12.293  10.490
60609SOL     OW83723  11.180   6.233   2.960
60609SOL    HW183724  11.233   6.244   3.038
60609SOL    HW283725  11.116   6.304   2.963
60610SOL     OW83726   0.454   6.798   4.282
60610SOL    HW183727   0.401   6.719   4.289
60610SOL    HW283728   0.440   6.843   4.366
60611SOL     OW83729   4.640  12.141   5.966
60611SOL    HW183730   4.727  12.156   6.004
60611SOL    HW283731   4.656  12.139   5.871
60612SOL     OW83732   8.112  14.527  13.576
60612SOL    HW183733   8.129  14.521  13.670
60612SOL    HW283734   8.053  14.602  13.568
60613SOL     OW83735  10.932  12.849   8.838
60613SOL    HW183736  11.014  12.864   8.883
60613SOL    HW283737  10.922  12.923   8.779
60614SOL     OW83738  10.961   2.444   7.765
60614SOL    HW183739  11.037   2.451   7.708
60614SOL    HW283740  10.892   2.410   7.709
60615SOL     OW83741   8.603   2.868   8.881
60615SOL    HW183742   8.576   2.934   8.816
60615SOL    HW283743   8.579   2.907   8.965
60616SOL     OW83744  14.013   4.533  14.096
60616SOL    HW183745  13.954   4.463  14.124
60616SOL    HW283746  14.061   4.496  14.022
60617SOL     OW83747   2.500   8.575  13.492
60617SOL    HW183748   2.535   8.635  13.558
60617SOL    HW283749   2.570   8.567  13.428
60618SOL     OW83750   7.593   0.966   4.752
60618SOL    HW183751   7.643   1.047   4.757
60618SOL    HW283752   7.540   0.975   4.672
60619SOL     OW83753   0.741   3.386   7.550
60619SOL    HW183754   0.782   3.469   7.526
60619SOL    HW283755   0.688   3.363   7.474
60620SOL     OW83756   1.139  13.444   6.711
60620SOL    HW183757   1.163  13.461   6.620
60620SOL    HW283758   1.064  13.500   6.728
60621SOL     OW83759  10.549   0.967   2.058
60621SOL    HW183760  10.457   0.952   2.079
60621SOL    HW283761  10.572   1.047   2.106
60622SOL     OW83762   0.596  12.003  14.198
60622SOL    HW183763   0.691  12.001  14.187
60622SOL    HW283764   0.582  12.001  14.292
60623SOL     OW83765  12.540  11.681   9.697
60623SOL    HW183766  12.574  11.696   9.785
60623SOL    HW283767  12.617  11.663   9.644
60624SOL     OW83768   0.825   2.219   4.534
60624SOL    HW183769   0.791   2.281   4.598
60624SOL    HW283770   0.757   2.212   4.467
60625SOL     OW83771  13.226   8.853  12.370
60625SOL    HW183772  13.275   8.786  12.322
60625SOL    HW283773  13.245   8.836  12.462
60626SOL     OW83774  12.259  11.418  13.577
60626SOL    HW183775  12.268  11.338  13.527
60626SOL    HW283776  12.348  11.453  13.584
60627SOL     OW83777   6.277  13.591   6.671
60627SOL    HW183778   6.232  13.596   6.756
60627SOL    HW283779   6.340  13.663   6.673
60628SOL     OW83780   0.084  10.999  12.868
60628SOL    HW183781   0.143  10.949  12.813
60628SOL    HW283782   0.021  11.039  12.807
60629SOL     OW83783   1.241  13.195   4.028
60629SOL    HW183784   1.202  13.168   3.945
60629SOL    HW283785   1.272  13.113   4.068
60630SOL     OW83786  11.227  10.403  10.296
60630SOL    HW183787  11.177  10.425  10.218
60630SOL    HW283788  11.165  10.356  10.352
60631SOL     OW83789   6.977   3.320  12.226
60631SOL    HW183790   6.982   3.415  12.216
60631SOL    HW283791   6.919   3.306  12.301
60632SOL     OW83792  11.794  13.243  13.405
60632SOL    HW183793  11.755  13.282  13.327
60632SOL    HW283794  11.813  13.317  13.462
60633SOL     OW83795   0.949  13.821  11.160
60633SOL    HW183796   1.013  13.809  11.090
60633SOL    HW283797   0.875  13.767  11.134
60634SOL     OW83798  14.651  11.302  11.473
60634SOL    HW183799  14.652  11.219  11.522
60634SOL    HW283800  14.561  11.332  11.480
60635SOL     OW83801   0.802   8.436   0.909
60635SOL    HW183802   0.838   8.353   0.942
60635SOL    HW283803   0.712   8.414   0.886
60636SOL     OW83804  10.524   4.403   1.731
60636SOL    HW183805  10.488   4.380   1.817
60636SOL    HW283806  10.502   4.496   1.719
60637SOL     OW83807   7.879   1.185   6.618
60637SOL    HW183808   7.811   1.243   6.582
60637SOL    HW283809   7.861   1.100   6.578
60638SOL     OW83810  10.309   2.158   8.793
60638SOL    HW183811  10.393   2.162   8.838
60638SOL    HW283812  10.243   2.158   8.863
60639SOL     OW83813   0.036  11.385  13.791
60639SOL    HW183814   0.090  11.350  13.720
60639SOL    HW283815  14.827  11.354  13.770
60640SOL     OW83816  10.167   8.001   6.398
60640SOL    HW183817  10.098   7.952   6.355
60640SOL    HW283818  10.240   8.000   6.336
60641SOL     OW83819   1.576   7.606  10.913
60641SOL    HW183820   1.554   7.551  10.838
60641SOL    HW283821   1.491   7.636  10.946
60642SOL     OW83822   8.493   6.034  14.318
60642SOL    HW183823   8.559   5.973  14.288
60642SOL    HW283824   8.410   5.998  14.286
60643SOL     OW83825   7.012   6.965   1.898
60643SOL    HW183826   7.047   7.054   1.908
60643SOL    HW283827   7.019   6.926   1.985
60644SOL     OW83828   5.885   6.823  11.592
60644SOL    HW183829   5.869   6.910  11.630
60644SOL    HW283830   5.803   6.800  11.549
60645SOL     OW83831   3.377  12.103   2.677
60645SOL    HW183832   3.382  12.182   2.730
60645SOL    HW283833   3.418  12.035   2.730
60646SOL     OW83834   4.224   6.181  11.916
60646SOL    HW183835   4.259   6.102  11.956
60646SOL    HW283836   4.249   6.252  11.975
60647SOL     OW83837   3.894  13.981  11.913
60647SOL    HW183838   3.975  13.932  11.899
60647SOL    HW283839   3.891  13.996  12.007
60648SOL     OW83840  13.322  13.873   5.507
60648SOL    HW183841  13.404  13.904   5.545
60648SOL    HW283842  13.327  13.778   5.514
60649SOL     OW83843   3.672  11.306  13.443
60649SOL    HW183844   3.650  11.306  13.536
60649SOL    HW283845   3.751  11.360  13.438
60650SOL     OW83846  11.591  14.105   3.902
60650SOL    HW183847  11.515  14.109   3.959
60650SOL    HW283848  11.624  14.015   3.913
60651SOL     OW83849  14.507   0.883   7.577
60651SOL    HW183850  14.490   0.971   7.545
60651SOL    HW283851  14.602   0.874   7.575
60652SOL     OW83852  12.406   2.701   1.601
60652SOL    HW183853  12.433   2.791   1.584
60652SOL    HW283854  12.334   2.708   1.664
60653SOL     OW83855   0.859   2.372  11.071
60653SOL    HW183856   0.825   2.430  11.003
60653SOL    HW283857   0.802   2.295  11.067
60654SOL     OW83858   8.780   2.384   8.512
60654SOL    HW183859   8.788   2.314   8.576
60654SOL    HW283860   8.797   2.341   8.428
60655SOL     OW83861   9.697  11.622   0.143
60655SOL    HW183862   9.679  11.701   0.194
60655SOL    HW283863   9.645  11.554   0.185
60656SOL     OW83864  14.777   7.253  12.844
60656SOL    HW183865  14.704   7.286  12.792
60656SOL    HW283866  14.770   7.299  12.928
60657SOL     OW83867   6.869   6.156   0.597
60657SOL    HW183868   6.851   6.223   0.662
60657SOL    HW283869   6.882   6.205   0.515
60658SOL     OW83870   1.723   4.274   2.242
60658SOL    HW183871   1.645   4.244   2.193
60658SOL    HW283872   1.745   4.358   2.202
60659SOL     OW83873   5.203   3.127   8.143
60659SOL    HW183874   5.159   3.160   8.221
60659SOL    HW283875   5.189   3.196   8.077
60660SOL     OW83876  14.561   6.189   0.038
60660SOL    HW183877  14.497   6.164  14.850
60660SOL    HW283878  14.561   6.285   0.036
60661SOL     OW83879  14.040   5.765   1.013
60661SOL    HW183880  14.133   5.778   1.034
60661SOL    HW283881  14.039   5.751   0.918
60662SOL     OW83882   1.421   2.099   0.035
60662SOL    HW183883   1.484   2.040  14.874
60662SOL    HW283884   1.422   2.076   0.128
60663SOL     OW83885  13.740   3.463  12.703
60663SOL    HW183886  13.758   3.403  12.630
60663SOL    HW283887  13.794   3.430  12.775
60664SOL     OW83888  11.146   7.574  10.252
60664SOL    HW183889  11.066   7.536  10.216
60664SOL    HW283890  11.137   7.668  10.237
60665SOL     OW83891   9.492   6.977  14.851
60665SOL    HW183892   9.572   7.028  14.856
60665SOL    HW283893   9.512   6.897   0.021
60666SOL     OW83894   7.002  13.897   1.455
60666SOL    HW183895   7.033  13.852   1.533
60666SOL    HW283896   6.976  13.827   1.395
60667SOL     OW83897   2.316   4.510   0.802
60667SOL    HW183898   2.312   4.430   0.750
60667SOL    HW283899   2.284   4.484   0.888
60668SOL     OW83900   0.888   1.483   6.397
60668SOL    HW183901   0.833   1.527   6.462
60668SOL    HW283902   0.977   1.510   6.419
60669SOL     OW83903   0.974   0.503   2.626
60669SOL    HW183904   0.936   0.548   2.551
60669SOL    HW283905   1.062   0.541   2.635
60670SOL     OW83906  14.123   5.751  10.971
60670SOL    HW183907  14.050   5.794  11.017
60670SOL    HW283908  14.090   5.736  10.883
60671SOL     OW83909   2.483   7.600  10.676
60671SOL    HW183910   2.392   7.569  10.684
60671SOL    HW283911   2.530   7.552  10.744
60672SOL     OW83912   6.967  12.310   0.594
60672SOL    HW183913   7.022  12.254   0.648
60672SOL    HW283914   6.981  12.279   0.505
60673SOL     OW83915  14.385   3.502  10.080
60673SOL    HW183916  14.395   3.416  10.120
60673SOL    HW283917  14.475   3.531  10.062
60674SOL     OW83918   9.942   4.567   9.517
60674SOL    HW183919   9.951   4.660   9.498
60674SOL    HW283920   9.940   4.562   9.613
60675SOL     OW83921   7.306   4.455   8.768
60675SOL    HW183922   7.319   4.407   8.686
60675SOL    HW283923   7.290   4.387   8.834
60676SOL     OW83924  12.950   3.789   1.065
60676SOL    HW183925  12.924   3.733   0.992
60676SOL    HW283926  13.004   3.857   1.026
60677SOL     OW83927  14.600   3.694   7.890
60677SOL    HW183928  14.683   3.682   7.842
60677SOL    HW283929  14.611   3.643   7.970
60678SOL     OW83930   4.291   7.763   2.668
60678SOL    HW183931   4.286   7.704   2.593
60678SOL    HW283932   4.209   7.749   2.715
60679SOL     OW83933   7.123  13.238  11.163
60679SOL    HW183934   7.166  13.229  11.079
60679SOL    HW283935   7.076  13.322  11.158
60680SOL     OW83936   2.416   4.735   5.201
60680SOL    HW183937   2.400   4.641   5.194
60680SOL    HW283938   2.362   4.764   5.274
60681SOL     OW83939  10.178   8.910   1.202
60681SOL    HW183940  10.168   8.865   1.119
60681SOL    HW283941  10.238   8.983   1.183
60682SOL     OW83942   5.175   4.147  12.374
60682SOL    HW183943   5.149   4.129  12.464
60682SOL    HW283944   5.093   4.164  12.328
60683SOL     OW83945   0.695   7.645  12.930
60683SOL    HW183946   0.615   7.698  12.934
60683SOL    HW283947   0.666   7.557  12.953
60684SOL     OW83948  10.157   2.867  10.237
60684SOL    HW183949  10.199   2.781  10.244
60684SOL    HW283950  10.228   2.926  10.210
60685SOL     OW83951  12.257   4.257   8.959
60685SOL    HW183952  12.308   4.287   9.034
60685SOL    HW283953  12.182   4.211   8.997
60686SOL     OW83954   9.408   5.074   9.414
60686SOL    HW183955   9.358   5.156   9.413
60686SOL    HW283956   9.461   5.077   9.334
60687SOL     OW83957   8.290   0.249  12.671
60687SOL    HW183958   8.368   0.226  12.622
60687SOL    HW283959   8.323   0.286  12.753
60688SOL     OW83960  13.141   3.163   9.048
60688SOL    HW183961  13.093   3.180   8.967
60688SOL    HW283962  13.150   3.248   9.089
60689SOL     OW83963   3.204   5.565   7.102
60689SOL    HW183964   3.131   5.580   7.041
60689SOL    HW283965   3.281   5.597   7.055
60690SOL     OW83966  12.006   3.495   1.706
60690SOL    HW183967  12.020   3.586   1.733
60690SOL    HW283968  11.911   3.484   1.708
60691SOL     OW83969  14.168  14.205  14.066
60691SOL    HW183970  14.150  14.277  14.126
60691SOL    HW283971  14.228  14.148  14.114
60692SOL     OW83972  14.738   6.748   8.648
60692SOL    HW183973  14.710   6.702   8.568
60692SOL    HW283974  14.818   6.794   8.624
60693SOL     OW83975   9.325   0.282  10.598
60693SOL    HW183976   9.372   0.364  10.584
60693SOL    HW283977   9.388   0.225  10.644
60694SOL     OW83978   3.532   2.029  12.220
60694SOL    HW183979   3.544   2.117  12.256
60694SOL    HW283980   3.501   2.044  12.131
60695SOL     OW83981   0.317   2.740  12.977
60695SOL    HW183982   0.234   2.787  12.980
60695SOL    HW283983   0.374   2.788  13.038
60696SOL     OW83984   7.379   6.783   0.489
60696SOL    HW183985   7.355   6.835   0.413
60696SOL    HW283986   7.463   6.743   0.465
60697SOL     OW83987  11.504   8.152  13.669
60697SOL    HW183988  11.486   8.067  13.629
60697SOL    HW283989  11.575   8.134  13.731
60698SOL     OW83990  13.850   0.146   7.824
60698SOL    HW183991  13.862   0.098   7.906
60698SOL    HW283992  13.938   0.155   7.788
60699SOL     OW83993   3.892   2.724   1.997
60699SOL    HW183994   3.797   2.730   1.996
60699SOL    HW283995   3.921   2.790   1.934
60700SOL     OW83996   0.527  13.092   8.430
60700SOL    HW183997   0.600  13.041   8.466
60700SOL    HW283998   0.538  13.179   8.467
60701SOL     OW83999  12.198   1.790   6.446
60701SOL    HW184000  12.190   1.767   6.538
60701SOL    HW284001  12.281   1.837   6.440
60702SOL     OW84002  14.843   6.712   1.924
60702SOL    HW184003  14.825   6.769   1.849
60702SOL    HW284004  14.812   6.762   2.000
60703SOL     OW84005  12.374   3.351   3.679
60703SOL    HW184006  12.286   3.367   3.713
60703SOL    HW284007  12.366   3.361   3.585
60704SOL     OW84008   6.349   5.796   8.664
60704SOL    HW184009   6.361   5.847   8.744
60704SOL    HW284010   6.273   5.836   8.621
60705SOL     OW84011   4.730   4.443   8.667
60705SOL    HW184012   4.821   4.422   8.688
60705SOL    HW284013   4.729   4.538   8.657
60706SOL     OW84014   1.837   8.375   6.776
60706SOL    HW184015   1.882   8.398   6.858
60706SOL    HW284016   1.908   8.352   6.716
60707SOL     OW84017   9.013   8.834  12.338
60707SOL    HW184018   8.953   8.901  12.369
60707SOL    HW284019   9.079   8.881  12.287
60708SOL     OW84020   6.713   4.907   6.553
60708SOL    HW184021   6.645   4.887   6.617
60708SOL    HW284022   6.676   4.976   6.498
60709SOL     OW84023  12.983   9.199   0.881
60709SOL    HW184024  12.899   9.180   0.839
60709SOL    HW284025  13.023   9.267   0.827
60710SOL     OW84026   9.064   3.216   6.912
60710SOL    HW184027   8.968   3.225   6.911
60710SOL    HW284028   9.088   3.231   7.004
60711SOL     OW84029   1.728   1.108  11.120
60711SOL    HW184030   1.821   1.131  11.115
60711SOL    HW284031   1.714   1.053  11.043
60712SOL     OW84032  12.022   9.724   1.982
60712SOL    HW184033  11.943   9.753   2.028
60712SOL    HW284034  12.046   9.641   2.023
60713SOL     OW84035   9.775   9.452   6.271
60713SOL    HW184036   9.740   9.437   6.359
60713SOL    HW284037   9.701   9.487   6.221
60714SOL     OW84038   4.908   1.732   2.277
60714SOL    HW184039   4.959   1.809   2.252
60714SOL    HW284040   4.939   1.663   2.217
60715SOL     OW84041  10.620  14.667   1.805
60715SOL    HW184042  10.671  14.747   1.794
60715SOL    HW284043  10.565  14.683   1.882
60716SOL     OW84044   1.834  13.751   6.242
60716SOL    HW184045   1.755  13.805   6.240
60716SOL    HW284046   1.833  13.711   6.329
60717SOL     OW84047   6.159   2.369   9.755
60717SOL    HW184048   6.251   2.345   9.764
60717SOL    HW284049   6.145   2.435   9.823
60718SOL     OW84050   1.189   7.986  10.231
60718SOL    HW184051   1.269   8.007  10.281
60718SOL    HW284052   1.190   7.890  10.224
60719SOL     OW84053  10.693  11.889   5.994
60719SOL    HW184054  10.776  11.857   6.029
60719SOL    HW284055  10.708  11.982   5.977
60720SOL     OW84056  10.323   7.903   5.429
60720SOL    HW184057  10.328   7.986   5.381
60720SOL    HW284058  10.282   7.842   5.367
60721SOL     OW84059   9.833   3.544  10.444
60721SOL    HW184060   9.877   3.621  10.408
60721SOL    HW284061   9.898   3.503  10.499
60722SOL     OW84062   5.500  14.116  14.397
60722SOL    HW184063   5.463  14.086  14.480
60722SOL    HW284064   5.428  14.109  14.335
60723SOL     OW84065   0.627  13.877  12.690
60723SOL    HW184066   0.570  13.953  12.699
60723SOL    HW284067   0.667  13.888  12.603
60724SOL     OW84068   7.641   5.835   8.873
60724SOL    HW184069   7.685   5.823   8.957
60724SOL    HW284070   7.561   5.784   8.881
60725SOL     OW84071   2.796  13.643  14.415
60725SOL    HW184072   2.832  13.662  14.329
60725SOL    HW284073   2.716  13.696  14.420
60726SOL     OW84074   9.108   3.842   8.007
60726SOL    HW184075   9.086   3.809   7.920
60726SOL    HW284076   9.200   3.819   8.019
60727SOL     OW84077   9.969   8.196   2.228
60727SOL    HW184078   9.890   8.147   2.206
60727SOL    HW284079   9.992   8.242   2.148
60728SOL     OW84080   0.311  10.487   9.057
60728SOL    HW184081   0.296  10.405   9.010
60728SOL    HW284082   0.364  10.462   9.133
60729SOL     OW84083   8.614   0.447   6.543
60729SOL    HW184084   8.698   0.464   6.500
60729SOL    HW284085   8.561   0.525   6.525
60730SOL     OW84086   3.243   2.212  12.527
60730SOL    HW184087   3.297   2.279  12.569
60730SOL    HW284088   3.227   2.246  12.439
60731SOL     OW84089   9.189  14.222   6.162
60731SOL    HW184090   9.122  14.236   6.228
60731SOL    HW284091   9.184  14.299   6.105
60732SOL     OW84092   2.529   6.180   7.802
60732SOL    HW184093   2.556   6.150   7.715
60732SOL    HW284094   2.581   6.127   7.863
60733SOL     OW84095   2.004  11.029   5.455
60733SOL    HW184096   2.057  10.960   5.413
60733SOL    HW284097   2.066  11.101   5.470
60734SOL     OW84098   9.932   9.960   5.724
60734SOL    HW184099   9.947  10.053   5.712
60734SOL    HW284100   9.876   9.935   5.650
60735SOL     OW84101  10.478  13.779  13.016
60735SOL    HW184102  10.461  13.793  12.923
60735SOL    HW284103  10.403  13.820  13.060
60736SOL     OW84104  14.321   8.587   5.395
60736SOL    HW184105  14.335   8.503   5.351
60736SOL    HW284106  14.226   8.596   5.400
60737SOL     OW84107   0.760   8.580   2.559
60737SOL    HW184108   0.701   8.610   2.490
60737SOL    HW284109   0.702   8.542   2.625
60738SOL     OW84110   1.645   4.038   2.731
60738SOL    HW184111   1.598   4.083   2.660
60738SOL    HW284112   1.707   3.980   2.686
60739SOL     OW84113  10.087   2.204   9.019
60739SOL    HW184114  10.119   2.160   9.097
60739SOL    HW284115   9.994   2.216   9.035
60740SOL     OW84116  10.526   8.032   8.955
60740SOL    HW184117  10.580   8.085   9.013
60740SOL    HW284118  10.589   7.988   8.897
60741SOL     OW84119   8.821   4.925   0.018
60741SOL    HW184120   8.882   4.962  14.834
60741SOL    HW284121   8.739   4.916  14.850
60742SOL     OW84122   3.633   8.307   6.672
60742SOL    HW184123   3.673   8.251   6.605
60742SOL    HW284124   3.543   8.320   6.642
60743SOL     OW84125  12.545  11.093  12.778
60743SOL    HW184126  12.556  11.009  12.733
60743SOL    HW284127  12.634  11.120  12.801
60744SOL     OW84128   5.393   0.296   9.004
60744SOL    HW184129   5.444   0.342   8.938
60744SOL    HW284130   5.414   0.341   9.086
60745SOL     OW84131  12.798   0.895   3.327
60745SOL    HW184132  12.769   0.862   3.412
60745SOL    HW284133  12.807   0.990   3.341
60746SOL     OW84134   3.065  11.581   5.185
60746SOL    HW184135   3.009  11.559   5.260
60746SOL    HW284136   3.121  11.504   5.173
60747SOL     OW84137   6.374  11.222   5.011
60747SOL    HW184138   6.287  11.225   4.972
60747SOL    HW284139   6.424  11.290   4.966
60748SOL     OW84140  13.421  12.314   8.281
60748SOL    HW184141  13.434  12.266   8.199
60748SOL    HW284142  13.492  12.378   8.283
60749SOL     OW84143   6.353   9.576   3.682
60749SOL    HW184144   6.267   9.609   3.707
60749SOL    HW284145   6.377   9.515   3.752
60750SOL     OW84146  12.125   0.551   8.145
60750SOL    HW184147  12.034   0.581   8.143
60750SOL    HW284148  12.175   0.631   8.164
60751SOL     OW84149   8.182   8.983   3.141
60751SOL    HW184150   8.103   9.016   3.098
60751SOL    HW284151   8.236   8.951   3.069
60752SOL     OW84152   3.832  10.638  14.555
60752SOL    HW184153   3.801  10.568  14.497
60752SOL    HW284154   3.882  10.696  14.497
60753SOL     OW84155  12.130  10.026   5.168
60753SOL    HW184156  12.144  10.050   5.259
60753SOL    HW284157  12.213  10.048   5.124
60754SOL     OW84158   8.518  13.504  11.200
60754SOL    HW184159   8.542  13.504  11.107
60754SOL    HW284160   8.424  13.487  11.201
60755SOL     OW84161   7.427   9.571   0.930
60755SOL    HW184162   7.381   9.636   0.984
60755SOL    HW284163   7.511   9.612   0.910
60756SOL     OW84164   3.799  10.046   3.052
60756SOL    HW184165   3.728   9.989   3.081
60756SOL    HW284166   3.878  10.006   3.088
60757SOL     OW84167  13.273   1.735  12.104
60757SOL    HW184168  13.252   1.828  12.108
60757SOL    HW284169  13.337   1.722  12.173
60758SOL     OW84170   2.327   8.550   5.598
60758SOL    HW184171   2.250   8.500   5.571
60758SOL    HW284172   2.338   8.616   5.530
60759SOL     OW84173   7.915  11.161   1.755
60759SOL    HW184174   7.993  11.209   1.783
60759SOL    HW284175   7.842  11.212   1.791
60760SOL     OW84176   7.133   6.125  10.875
60760SOL    HW184177   7.203   6.098  10.934
60760SOL    HW284178   7.063   6.061  10.889
60761SOL     OW84179   5.132   9.649   6.194
60761SOL    HW184180   5.076   9.674   6.268
60761SOL    HW284181   5.107   9.709   6.124
60762SOL     OW84182   6.451   4.279  13.399
60762SOL    HW184183   6.503   4.201  13.377
60762SOL    HW284184   6.512   4.352  13.388
60763SOL     OW84185  10.718  12.870  11.048
60763SOL    HW184186  10.773  12.827  10.983
60763SOL    HW284187  10.654  12.920  10.997
60764SOL     OW84188  11.117   7.223  13.367
60764SOL    HW184189  11.198   7.266  13.340
60764SOL    HW284190  11.139   7.130  13.370
60765SOL     OW84191   1.029   3.344   1.777
60765SOL    HW184192   1.020   3.390   1.694
60765SOL    HW284193   0.961   3.381   1.833
60766SOL     OW84194  10.109  13.778  10.911
60766SOL    HW184195  10.095  13.697  10.863
60766SOL    HW284196  10.161  13.752  10.987
60767SOL     OW84197   2.979   1.142   0.574
60767SOL    HW184198   2.998   1.199   0.498
60767SOL    HW284199   2.955   1.203   0.644
60768SOL     OW84200  12.525   1.514   7.486
60768SOL    HW184201  12.461   1.454   7.525
60768SOL    HW284202  12.554   1.471   7.406
60769SOL     OW84203   8.099   7.050  10.211
60769SOL    HW184204   8.047   6.971  10.223
60769SOL    HW284205   8.104   7.089  10.299
60770SOL     OW84206  14.309   5.840   8.733
60770SOL    HW184207  14.314   5.757   8.780
60770SOL    HW284208  14.371   5.831   8.661
60771SOL     OW84209   2.701  13.246   6.629
60771SOL    HW184210   2.639  13.175   6.609
60771SOL    HW284211   2.697  13.304   6.554
60772SOL     OW84212   6.488   5.373   1.028
60772SOL    HW184213   6.516   5.395   0.940
60772SOL    HW284214   6.411   5.428   1.044
60773SOL     OW84215   1.422   3.372  10.064
60773SOL    HW184216   1.452   3.444  10.120
60773SOL    HW284217   1.329   3.363  10.084
60774SOL     OW84218   9.262  14.017  10.220
60774SOL    HW184219   9.279  14.036  10.128
60774SOL    HW284220   9.293  14.095  10.267
60775SOL     OW84221   9.005  11.479  14.226
60775SOL    HW184222   9.054  11.561  14.221
60775SOL    HW284223   8.943  11.492  14.298
60776SOL     OW84224   6.570   9.734   5.792
60776SOL    HW184225   6.559   9.734   5.887
60776SOL    HW284226   6.574   9.642   5.768
60777SOL     OW84227  14.578   5.355   9.655
60777SOL    HW184228  14.514   5.307   9.706
60777SOL    HW284229  14.550   5.446   9.661
60778SOL     OW84230   6.518   4.578   2.762
60778SOL    HW184231   6.485   4.657   2.720
60778SOL    HW284232   6.453   4.558   2.829
60779SOL     OW84233   1.281   9.529   6.760
60779SOL    HW184234   1.274   9.513   6.666
60779SOL    HW284235   1.211   9.593   6.779
60780SOL     OW84236  14.821   3.368   0.498
60780SOL    HW184237  14.805   3.333   0.410
60780SOL    HW284238  14.788   3.457   0.494
60781SOL     OW84239   2.505   7.805   8.150
60781SOL    HW184240   2.519   7.778   8.060
60781SOL    HW284241   2.440   7.744   8.184
60782SOL     OW84242   1.861  11.980   4.365
60782SOL    HW184243   1.863  12.075   4.370
60782SOL    HW284244   1.788  11.961   4.305
60783SOL     OW84245   7.425   5.133  13.803
60783SOL    HW184246   7.389   5.209  13.758
60783SOL    HW284247   7.379   5.058  13.765
60784SOL     OW84248   2.373   4.352   3.960
60784SOL    HW184249   2.322   4.360   3.879
60784SOL    HW284250   2.447   4.412   3.947
60785SOL     OW84251   0.210  14.564   1.291
60785SOL    HW184252   0.194  14.520   1.375
60785SOL    HW284253   0.123  14.579   1.255
60786SOL     OW84254   1.763   3.288   5.990
60786SOL    HW184255   1.799   3.221   5.932
60786SOL    HW284256   1.670   3.292   5.969
60787SOL     OW84257  10.598   6.369  12.645
60787SOL    HW184258  10.678   6.324  12.619
60787SOL    HW284259  10.619   6.462  12.636
60788SOL     OW84260   1.123  13.047  12.999
60788SOL    HW184261   1.211  13.081  12.982
60788SOL    HW284262   1.091  13.098  13.073
60789SOL     OW84263  14.666  14.433   3.690
60789SOL    HW184264  14.654  14.374   3.616
60789SOL    HW284265  14.577  14.465   3.709
60790SOL     OW84266  12.692   7.385   8.266
60790SOL    HW184267  12.608   7.371   8.222
60790SOL    HW284268  12.672   7.448   8.335
60791SOL     OW84269   7.703   9.136   2.148
60791SOL    HW184270   7.721   9.226   2.175
60791SOL    HW284271   7.747   9.082   2.214
60792SOL     OW84272  14.394  10.461   3.980
60792SOL    HW184273  14.335  10.413   3.922
60792SOL    HW284274  14.338  10.487   4.054
60793SOL     OW84275  13.378   8.658  12.269
60793SOL    HW184276  13.450   8.712  12.237
60793SOL    HW284277  13.418   8.601  12.335
60794SOL     OW84278   9.762   4.203   5.427
60794SOL    HW184279   9.774   4.182   5.335
60794SOL    HW284280   9.678   4.164   5.450
60795SOL     OW84281   7.627  13.410   7.947
60795SOL    HW184282   7.644  13.434   7.856
60795SOL    HW284283   7.626  13.314   7.947
60796SOL     OW84284   4.776   2.021  12.891
60796SOL    HW184285   4.733   1.979  12.966
60796SOL    HW284286   4.866   1.989  12.893
60797SOL     OW84287   3.552   9.868  11.820
60797SOL    HW184288   3.621   9.822  11.868
60797SOL    HW284289   3.479   9.874  11.881
60798SOL     OW84290   7.553   6.198   2.100
60798SOL    HW184291   7.578   6.195   2.192
60798SOL    HW284292   7.489   6.127   2.090
60799SOL     OW84293  14.713   6.493   3.575
60799SOL    HW184294  14.713   6.411   3.624
60799SOL    HW284295  14.797   6.494   3.530
60800SOL     OW84296   1.495  12.381  13.560
60800SOL    HW184297   1.403  12.389  13.534
60800SOL    HW284298   1.492  12.372  13.655
60801SOL     OW84299   0.502  12.438   7.902
60801SOL    HW184300   0.580  12.480   7.939
60801SOL    HW284301   0.462  12.506   7.847
60802SOL     OW84302   3.627  11.419  10.592
60802SOL    HW184303   3.601  11.509  10.614
60802SOL    HW284304   3.682  11.392  10.664
60803SOL     OW84305  14.692   4.958  10.432
60803SOL    HW184306  14.642   4.893  10.481
60803SOL    HW284307  14.707   4.918  10.346
60804SOL     OW84308   7.811  11.076  12.478
60804SOL    HW184309   7.905  11.061  12.490
60804SOL    HW284310   7.773  10.988  12.478
60805SOL     OW84311  13.118   8.384   9.282
60805SOL    HW184312  13.129   8.297   9.320
60805SOL    HW284313  13.106   8.369   9.189
60806SOL     OW84314  13.974  12.524  10.752
60806SOL    HW184315  14.014  12.530  10.665
60806SOL    HW284316  13.935  12.610  10.766
60807SOL     OW84317   5.915   0.831  10.790
60807SOL    HW184318   5.834   0.788  10.764
60807SOL    HW284319   5.973   0.821  10.713
60808SOL     OW84320  13.648  12.473   8.255
60808SOL    HW184321  13.667  12.519   8.173
60808SOL    HW284322  13.650  12.542   8.322
60809SOL     OW84323   2.655   9.077  10.690
60809SOL    HW184324   2.711   9.032  10.753
60809SOL    HW284325   2.623   9.008  10.633
60810SOL     OW84326   8.113  13.718   8.396
60810SOL    HW184327   8.143  13.790   8.340
60810SOL    HW284328   8.191  13.664   8.410
60811SOL     OW84329   1.724   9.998   1.279
60811SOL    HW184330   1.728   9.925   1.217
60811SOL    HW284331   1.649  10.050   1.250
60812SOL     OW84332   6.818   4.101   0.885
60812SOL    HW184333   6.908   4.119   0.859
60812SOL    HW284334   6.779   4.059   0.809
60813SOL     OW84335  12.895  12.004  11.082
60813SOL    HW184336  12.860  12.070  11.022
60813SOL    HW284337  12.892  12.047  11.168
60814SOL     OW84338   1.601   6.753   3.338
60814SOL    HW184339   1.682   6.805   3.336
60814SOL    HW284340   1.602   6.703   3.256
60815SOL     OW84341   4.406   5.819   9.126
60815SOL    HW184342   4.486   5.766   9.124
60815SOL    HW284343   4.337   5.759   9.099
60816SOL     OW84344  14.732  14.199   1.997
60816SOL    HW184345  14.682  14.174   2.074
60816SOL    HW284346  14.678  14.170   1.923
60817SOL     OW84347  12.661   5.236   2.920
60817SOL    HW184348  12.623   5.195   2.843
60817SOL    HW284349  12.590   5.238   2.984
60818SOL     OW84350  13.129   4.137   3.430
60818SOL    HW184351  13.195   4.098   3.487
60818SOL    HW284352  13.068   4.066   3.411
60819SOL     OW84353  14.748   1.831  14.194
60819SOL    HW184354  14.720   1.811  14.105
60819SOL    HW284355  14.780   1.921  14.190
60820SOL     OW84356   0.462   1.708  11.117
60820SOL    HW184357   0.449   1.764  11.194
60820SOL    HW284358   0.402   1.635  11.131
60821SOL     OW84359   6.166   4.730  10.457
60821SOL    HW184360   6.174   4.821  10.431
60821SOL    HW284361   6.185   4.730  10.551
60822SOL     OW84362   0.852   7.269   6.792
60822SOL    HW184363   0.779   7.255   6.732
60822SOL    HW284364   0.815   7.253   6.879
60823SOL     OW84365  12.354  13.395  11.184
60823SOL    HW184366  12.431  13.440  11.150
60823SOL    HW284367  12.388  13.328  11.243
60824SOL     OW84368   7.311  11.924   4.691
60824SOL    HW184369   7.321  11.895   4.782
60824SOL    HW284370   7.328  11.846   4.638
60825SOL     OW84371  13.704  11.357   6.872
60825SOL    HW184372  13.698  11.284   6.934
60825SOL    HW284373  13.766  11.417   6.914
60826SOL     OW84374   9.181  10.216   1.221
60826SOL    HW184375   9.275  10.234   1.215
60826SOL    HW284376   9.155  10.252   1.306
60827SOL     OW84377   6.932   9.714  13.575
60827SOL    HW184378   6.887   9.728  13.492
60827SOL    HW284379   6.862   9.706  13.640
60828SOL     OW84380  10.673   0.973  11.576
60828SOL    HW184381  10.654   0.932  11.660
60828SOL    HW284382  10.622   1.054  11.577
60829SOL     OW84383   1.975  10.772  10.076
60829SOL    HW184384   1.972  10.866  10.063
60829SOL    HW284385   2.060  10.756  10.118
60830SOL     OW84386  13.842   4.605  14.525
60830SOL    HW184387  13.804   4.625  14.439
60830SOL    HW284388  13.785   4.536  14.561
60831SOL     OW84389  12.016   7.332   1.182
60831SOL    HW184390  12.096   7.378   1.156
60831SOL    HW284391  12.031   7.308   1.274
60832SOL     OW84392  11.004  11.639   5.991
60832SOL    HW184393  11.043  11.553   6.003
60832SOL    HW284394  11.072  11.701   6.018
60833SOL     OW84395   6.840   8.218   0.520
60833SOL    HW184396   6.786   8.241   0.596
60833SOL    HW284397   6.850   8.123   0.526
60834SOL     OW84398   4.556   4.619  12.783
60834SOL    HW184399   4.499   4.543  12.793
60834SOL    HW284400   4.504   4.692  12.815
60835SOL     OW84401   5.947   2.619  10.241
60835SOL    HW184402   5.969   2.605  10.333
60835SOL    HW284403   5.916   2.710  10.237
60836SOL     OW84404   9.790  13.324   4.637
60836SOL    HW184405   9.712  13.272   4.653
60836SOL    HW284406   9.812  13.306   4.546
60837SOL     OW84407   6.975   0.281   0.438
60837SOL    HW184408   7.012   0.323   0.361
60837SOL    HW284409   6.932   0.203   0.404
60838SOL     OW84410   2.643   4.760   4.771
60838SOL    HW184411   2.690   4.812   4.836
60838SOL    HW284412   2.704   4.690   4.749
60839SOL     OW84413   8.756   8.472  11.496
60839SOL    HW184414   8.778   8.415  11.422
60839SOL    HW284415   8.840   8.508  11.524
60840SOL     OW84416  10.102   0.792   6.694
60840SOL    HW184417  10.122   0.885   6.687
60840SOL    HW284418  10.012   0.789   6.726
60841SOL     OW84419   5.967   5.595  10.190
60841SOL    HW184420   5.903   5.525  10.185
60841SOL    HW284421   6.050   5.553  10.169
60842SOL     OW84422   8.060   3.642   0.776
60842SOL    HW184423   8.084   3.570   0.834
60842SOL    HW284424   7.976   3.672   0.808
60843SOL     OW84425  12.233   6.270  11.625
60843SOL    HW184426  12.160   6.207  11.626
60843SOL    HW284427  12.207   6.336  11.560
60844SOL     OW84428   3.147  10.124  13.091
60844SOL    HW184429   3.183  10.195  13.144
60844SOL    HW284430   3.189  10.134  13.005
60845SOL     OW84431  12.577   6.197   4.894
60845SOL    HW184432  12.596   6.132   4.961
60845SOL    HW284433  12.485   6.218   4.907
60846SOL     OW84434   3.622   3.619   3.528
60846SOL    HW184435   3.701   3.651   3.571
60846SOL    HW284436   3.630   3.650   3.438
60847SOL     OW84437  11.155  14.824  10.593
60847SOL    HW184438  11.191   0.033  10.586
60847SOL    HW284439  11.230  14.769  10.616
60848SOL     OW84440   0.331   8.110   1.134
60848SOL    HW184441   0.347   8.090   1.041
60848SOL    HW284442   0.418   8.112   1.173
60849SOL     OW84443   4.886   3.432  13.538
60849SOL    HW184444   4.957   3.382  13.580
60849SOL    HW284445   4.914   3.442  13.447
60850SOL     OW84446  14.824   7.122  14.682
60850SOL    HW184447  14.803   7.029  14.671
60850SOL    HW284448   0.016   7.123  14.746
60851SOL     OW84449   0.446   2.977  13.884
60851SOL    HW184450   0.401   3.022  13.955
60851SOL    HW284451   0.462   3.046  13.819
60852SOL     OW84452   8.119   3.386   5.491
60852SOL    HW184453   8.040   3.439   5.478
60852SOL    HW284454   8.102   3.337   5.571
60853SOL     OW84455   4.616  10.401   2.437
60853SOL    HW184456   4.555  10.407   2.363
60853SOL    HW284457   4.700  10.427   2.401
60854SOL     OW84458   8.521  14.775  10.718
60854SOL    HW184459   8.613  14.783  10.690
60854SOL    HW284460   8.525  14.776  10.814
60855SOL     OW84461   1.555   6.831   0.831
60855SOL    HW184462   1.499   6.893   0.879
60855SOL    HW284463   1.618   6.800   0.896
60856SOL     OW84464  13.474  10.418   0.949
60856SOL    HW184465  13.417  10.351   0.987
60856SOL    HW284466  13.558  10.374   0.936
60857SOL     OW84467   7.975  11.974  14.533
60857SOL    HW184468   7.937  12.052  14.574
60857SOL    HW284469   7.916  11.955  14.460
60858SOL     OW84470   1.898  12.603  14.754
60858SOL    HW184471   1.965  12.655  14.798
60858SOL    HW284472   1.815  12.635  14.790
60859SOL     OW84473  13.073  14.662   2.954
60859SOL    HW184474  13.125  14.742   2.945
60859SOL    HW284475  13.007  14.670   2.885
60860SOL     OW84476  10.807   0.382   1.676
60860SOL    HW184477  10.718   0.417   1.677
60860SOL    HW284478  10.818   0.348   1.587
60861SOL     OW84479  14.712   1.319  12.201
60861SOL    HW184480  14.730   1.408  12.231
60861SOL    HW284481  14.769   1.264  12.255
60862SOL     OW84482   8.038   5.524   7.740
60862SOL    HW184483   8.039   5.592   7.672
60862SOL    HW284484   8.077   5.447   7.698
60863SOL     OW84485   4.187   6.922   4.906
60863SOL    HW184486   4.206   6.947   4.996
60863SOL    HW284487   4.199   6.827   4.904
60864SOL     OW84488   1.299  11.478   5.298
60864SOL    HW184489   1.336  11.535   5.366
60864SOL    HW284490   1.275  11.398   5.345
60865SOL     OW84491   5.866   0.973   0.474
60865SOL    HW184492   5.885   0.883   0.498
60865SOL    HW284493   5.950   1.007   0.441
60866SOL     OW84494   2.809  11.656   2.278
60866SOL    HW184495   2.877  11.604   2.320
60866SOL    HW284496   2.802  11.619   2.190
60867SOL     OW84497  13.337   0.573   5.794
60867SOL    HW184498  13.254   0.619   5.801
60867SOL    HW284499  13.402   0.638   5.820
60868SOL     OW84500   3.626  10.061   2.500
60868SOL    HW184501   3.578  10.142   2.517
60868SOL    HW284502   3.624  10.014   2.583
60869SOL     OW84503   1.504  12.535  14.271
60869SOL    HW184504   1.554  12.508  14.349
60869SOL    HW284505   1.509  12.630  14.272
60870SOL     OW84506   5.055   7.552   6.200
60870SOL    HW184507   5.066   7.533   6.293
60870SOL    HW284508   5.117   7.623   6.182
60871SOL     OW84509   5.284   0.959   3.754
60871SOL    HW184510   5.243   1.038   3.718
60871SOL    HW284511   5.340   0.927   3.684
60872SOL     OW84512   5.094  10.981   8.509
60872SOL    HW184513   5.129  11.044   8.572
60872SOL    HW284514   5.001  11.004   8.501
60873SOL     OW84515  12.667  10.021  13.771
60873SOL    HW184516  12.703  10.079  13.837
60873SOL    HW284517  12.733  10.018  13.702
60874SOL     OW84518   6.230   6.194   1.051
60874SOL    HW184519   6.216   6.211   1.144
60874SOL    HW284520   6.142   6.188   1.014
60875SOL     OW84521   0.529   1.280  14.180
60875SOL    HW184522   0.567   1.197  14.152
60875SOL    HW284523   0.603   1.331  14.212
60876SOL     OW84524   4.064  12.514  10.479
60876SOL    HW184525   4.047  12.602  10.513
60876SOL    HW284526   4.049  12.521  10.385
60877SOL     OW84527  11.912  11.009   0.618
60877SOL    HW184528  11.848  11.009   0.690
60877SOL    HW284529  11.870  10.960   0.548
60878SOL     OW84530   3.569  11.195   9.528
60878SOL    HW184531   3.601  11.200   9.438
60878SOL    HW284532   3.577  11.285   9.561
60879SOL     OW84533   4.773   1.024  13.499
60879SOL    HW184534   4.746   0.956  13.439
60879SOL    HW284535   4.865   1.040  13.478
60880SOL     OW84536  14.447   7.279  13.362
60880SOL    HW184537  14.407   7.251  13.280
60880SOL    HW284538  14.436   7.205  13.421
60881SOL     OW84539   7.274   5.354   2.408
60881SOL    HW184540   7.212   5.284   2.427
60881SOL    HW284541   7.320   5.368   2.491
60882SOL     OW84542  14.094   1.433  13.807
60882SOL    HW184543  14.183   1.454  13.837
60882SOL    HW284544  14.108   1.386  13.725
60883SOL     OW84545  14.434   6.262   4.258
60883SOL    HW184546  14.392   6.177   4.247
60883SOL    HW284547  14.437   6.299   4.170
60884SOL     OW84548   6.023  12.681   9.403
60884SOL    HW184549   6.089  12.623   9.439
60884SOL    HW284550   6.054  12.769   9.425
60885SOL     OW84551   9.870   4.185  14.412
60885SOL    HW184552   9.871   4.099  14.455
60885SOL    HW284553   9.872   4.165  14.319
60886SOL     OW84554   3.382  11.563   5.884
60886SOL    HW184555   3.446  11.538   5.818
60886SOL    HW284556   3.331  11.484   5.901
60887SOL     OW84557  10.125   9.487   5.851
60887SOL    HW184558  10.078   9.529   5.779
60887SOL    HW284559  10.216   9.481   5.821
60888SOL     OW84560   7.818   9.591   7.837
60888SOL    HW184561   7.786   9.592   7.747
60888SOL    HW284562   7.764   9.657   7.882
60889SOL     OW84563   0.647  12.428   5.558
60889SOL    HW184564   0.597  12.429   5.639
60889SOL    HW284565   0.666  12.336   5.542
60890SOL     OW84566   1.590   9.825  11.716
60890SOL    HW184567   1.528   9.880  11.668
60890SOL    HW284568   1.561   9.828  11.807
60891SOL     OW84569  11.404   1.376   1.533
60891SOL    HW184570  11.419   1.403   1.623
60891SOL    HW284571  11.477   1.318   1.512
60892SOL     OW84572   3.055   8.372  11.414
60892SOL    HW184573   3.024   8.328  11.335
60892SOL    HW284574   3.058   8.464  11.391
60893SOL     OW84575   8.737   8.921   8.821
60893SOL    HW184576   8.772   8.847   8.773
60893SOL    HW284577   8.653   8.889   8.855
60894SOL     OW84578  11.560   5.743   5.288
60894SOL    HW184579  11.644   5.721   5.328
60894SOL    HW284580  11.583   5.771   5.199
60895SOL     OW84581   6.469  14.015   6.442
60895SOL    HW184582   6.411  14.050   6.509
60895SOL    HW284583   6.520  14.090   6.412
60896SOL     OW84584   5.429   7.778   4.895
60896SOL    HW184585   5.430   7.863   4.940
60896SOL    HW284586   5.410   7.715   4.964
60897SOL     OW84587  13.013  10.763   1.262
60897SOL    HW184588  12.963  10.735   1.339
60897SOL    HW284589  12.958  10.741   1.188
60898SOL     OW84590  14.835   0.431  13.112
60898SOL    HW184591   0.004   0.391  13.184
60898SOL    HW284592  14.858   0.524  13.115
60899SOL     OW84593   0.736  14.729  13.573
60899SOL    HW184594   0.810  14.779  13.608
60899SOL    HW284595   0.662  14.790  13.579
60900SOL     OW84596   7.303   2.119   5.660
60900SOL    HW184597   7.255   2.067   5.596
60900SOL    HW284598   7.242   2.190   5.684
60901SOL     OW84599  13.302   1.854  10.835
60901SOL    HW184600  13.387   1.842  10.793
60901SOL    HW284601  13.291   1.949  10.841
60902SOL     OW84602  12.978  12.397  13.293
60902SOL    HW184603  13.061  12.410  13.339
60902SOL    HW284604  12.984  12.308  13.259
60903SOL     OW84605   0.124  14.290  14.099
60903SOL    HW184606   0.094  14.341  14.174
60903SOL    HW284607   0.207  14.331  14.074
60904SOL     OW84608   7.791  10.617   2.394
60904SOL    HW184609   7.697  10.626   2.381
60904SOL    HW284610   7.823  10.707   2.403
60905SOL     OW84611  13.715   6.727   7.405
60905SOL    HW184612  13.692   6.766   7.320
60905SOL    HW284613  13.664   6.646   7.408
60906SOL     OW84614  10.703  13.802  10.767
60906SOL    HW184615  10.780  13.746  10.777
60906SOL    HW284616  10.737  13.891  10.773
60907SOL     OW84617   3.752  12.547  10.021
60907SOL    HW184618   3.694  12.594   9.961
60907SOL    HW284619   3.797  12.616  10.069
60908SOL     OW84620  12.409  10.808   1.096
60908SOL    HW184621  12.328  10.823   1.048
60908SOL    HW284622  12.465  10.883   1.073
60909SOL     OW84623   5.603  13.863   9.540
60909SOL    HW184624   5.563  13.890   9.622
60909SOL    HW284625   5.532  13.821   9.491
60910SOL     OW84626   1.559   2.884   2.741
60910SOL    HW184627   1.605   2.809   2.779
60910SOL    HW284628   1.628   2.933   2.696
60911SOL     OW84629  14.599  12.236   2.261
60911SOL    HW184630  14.543  12.310   2.285
60911SOL    HW284631  14.627  12.198   2.344
60912SOL     OW84632   4.445   5.054  10.079
60912SOL    HW184633   4.352   5.038  10.065
60912SOL    HW284634   4.481   5.069   9.992
60913SOL     OW84635  14.696   0.184   1.847
60913SOL    HW184636  14.731   0.144   1.768
60913SOL    HW284637  14.758   0.161   1.916
60914SOL     OW84638   6.024   8.858  14.118
60914SOL    HW184639   6.050   8.767  14.129
60914SOL    HW284640   6.039   8.897  14.204
60915SOL     OW84641   0.006   6.933   8.437
60915SOL    HW184642   0.069   6.951   8.368
60915SOL    HW284643   0.059   6.919   8.515
60916SOL     OW84644  11.754   7.985  14.477
60916SOL    HW184645  11.796   7.910  14.520
60916SOL    HW284646  11.725   7.950  14.393
60917SOL     OW84647  12.192   5.221   7.146
60917SOL    HW184648  12.144   5.176   7.215
60917SOL    HW284649  12.128   5.279   7.105
60918SOL     OW84650   7.312   4.334   8.526
60918SOL    HW184651   7.263   4.413   8.505
60918SOL    HW284652   7.335   4.296   8.442
60919SOL     OW84653   1.427   5.266  14.218
60919SOL    HW184654   1.440   5.183  14.264
60919SOL    HW284655   1.450   5.332  14.282
60920SOL     OW84656   2.461   3.994  13.101
60920SOL    HW184657   2.470   4.037  13.016
60920SOL    HW284658   2.397   4.047  13.148
60921SOL     OW84659  11.279   5.096   9.199
60921SOL    HW184660  11.186   5.094   9.218
60921SOL    HW284661  11.288   5.155   9.124
60922SOL     OW84662   0.633   1.726  13.862
60922SOL    HW184663   0.670   1.684  13.939
60922SOL    HW284664   0.610   1.814  13.891
60923SOL     OW84665   6.820   3.698   4.844
60923SOL    HW184666   6.824   3.660   4.757
60923SOL    HW284667   6.911   3.717   4.867
60924SOL     OW84668   9.165   3.152  11.959
60924SOL    HW184669   9.156   3.184  11.869
60924SOL    HW284670   9.253   3.114  11.963
60925SOL     OW84671   3.124   7.932   2.907
60925SOL    HW184672   3.119   7.962   2.817
60925SOL    HW284673   3.040   7.956   2.946
60926SOL     OW84674   9.211   1.560  13.195
60926SOL    HW184675   9.120   1.567  13.165
60926SOL    HW284676   9.213   1.478  13.245
60927SOL     OW84677   7.814   8.141   0.801
60927SOL    HW184678   7.733   8.091   0.809
60927SOL    HW284679   7.836   8.164   0.891
60928SOL     OW84680   5.871  11.125   3.540
60928SOL    HW184681   5.788  11.096   3.578
60928SOL    HW284682   5.851  11.209   3.499
60929SOL     OW84683   2.469   9.350   2.186
60929SOL    HW184684   2.401   9.396   2.138
60929SOL    HW284685   2.423   9.275   2.226
60930SOL     OW84686  12.500   7.492   5.286
60930SOL    HW184687  12.573   7.458   5.234
60930SOL    HW284688  12.538   7.563   5.337
60931SOL     OW84689   7.101  11.294  13.447
60931SOL    HW184690   7.116  11.308  13.541
60931SOL    HW284691   7.079  11.381  13.413
60932SOL     OW84692  11.601   2.770   3.717
60932SOL    HW184693  11.519   2.777   3.765
60932SOL    HW284694  11.590   2.827   3.641
60933SOL     OW84695  11.248   6.772  10.585
60933SOL    HW184696  11.287   6.822  10.513
60933SOL    HW284697  11.181   6.831  10.621
60934SOL     OW84698   3.321  12.463   8.176
60934SOL    HW184699   3.302  12.555   8.197
60934SOL    HW284700   3.380  12.467   8.100
60935SOL     OW84701  13.836   1.393  12.280
60935SOL    HW184702  13.773   1.438  12.336
60935SOL    HW284703  13.794   1.310  12.258
60936SOL     OW84704   4.191   7.801  12.858
60936SOL    HW184705   4.139   7.879  12.877
60936SOL    HW284706   4.127   7.730  12.852
60937SOL     OW84707  10.777  13.751   6.919
60937SOL    HW184708  10.795  13.816   6.988
60937SOL    HW284709  10.683  13.733   6.927
60938SOL     OW84710  11.254   1.791   2.214
60938SOL    HW184711  11.336   1.743   2.203
60938SOL    HW284712  11.224   1.767   2.302
60939SOL     OW84713  14.728   0.850   0.880
60939SOL    HW184714  14.634   0.844   0.895
60939SOL    HW284715  14.741   0.935   0.839
60940SOL     OW84716   5.777  10.069  14.723
60940SOL    HW184717   5.780  10.088  14.630
60940SOL    HW284718   5.774   9.974  14.728
60941SOL     OW84719   0.558  11.609   1.605
60941SOL    HW184720   0.583  11.699   1.622
60941SOL    HW284721   0.642  11.562   1.600
60942SOL     OW84722   5.814   8.717   9.379
60942SOL    HW184723   5.805   8.685   9.290
60942SOL    HW284724   5.759   8.796   9.382
60943SOL     OW84725  10.073   9.404  13.173
60943SOL    HW184726  10.050   9.320  13.132
60943SOL    HW284727  10.073   9.466  13.100
60944SOL     OW84728   5.920  10.361  10.886
60944SOL    HW184729   5.965  10.446  10.887
60944SOL    HW284730   5.982  10.301  10.844
60945SOL     OW84731   0.242   8.901  14.587
60945SOL    HW184732   0.192   8.854  14.520
60945SOL    HW284733   0.209   8.866  14.670
60946SOL     OW84734   7.655  10.513  10.878
60946SOL    HW184735   7.573  10.539  10.919
60946SOL    HW284736   7.678  10.586  10.821
60947SOL     OW84737   9.748   7.838  13.157
60947SOL    HW184738   9.706   7.923  13.145
60947SOL    HW284739   9.835   7.859  13.192
60948SOL     OW84740  10.496  11.643   4.315
60948SOL    HW184741  10.437  11.569   4.304
60948SOL    HW284742  10.574  11.605   4.356
60949SOL     OW84743   6.479   9.010  10.032
60949SOL    HW184744   6.454   9.085   9.976
60949SOL    HW284745   6.490   8.938   9.971
60950SOL     OW84746   1.573   6.665   0.201
60950SOL    HW184747   1.519   6.604   0.251
60950SOL    HW284748   1.630   6.706   0.267
60951SOL     OW84749  14.750  11.004  10.873
60951SOL    HW184750  14.717  11.093  10.855
60951SOL    HW284751  14.718  10.984  10.961
60952SOL     OW84752  10.821  10.000   8.463
60952SOL    HW184753  10.903   9.964   8.496
60952SOL    HW284754  10.774   9.924   8.428
60953SOL     OW84755   2.748   3.041   7.306
60953SOL    HW184756   2.818   2.977   7.318
60953SOL    HW284757   2.667   2.989   7.308
60954SOL     OW84758  14.160   6.115   9.495
60954SOL    HW184759  14.174   6.021   9.497
60954SOL    HW284760  14.154   6.140   9.587
60955SOL     OW84761  12.792   3.570   5.073
60955SOL    HW184762  12.842   3.623   5.011
60955SOL    HW284763  12.793   3.621   5.154
60956SOL     OW84764   3.683   4.672   0.214
60956SOL    HW184765   3.674   4.686   0.308
60956SOL    HW284766   3.622   4.734   0.174
60957SOL     OW84767  14.663  13.633   5.458
60957SOL    HW184768  14.696  13.543   5.454
60957SOL    HW284769  14.610  13.643   5.379
60958SOL     OW84770   3.688  10.460  10.963
60958SOL    HW184771   3.728  10.499  11.040
60958SOL    HW284772   3.600  10.496  10.959
60959SOL     OW84773   2.329   0.883   0.051
60959SOL    HW184774   2.291   0.798   0.030
60959SOL    HW284775   2.307   0.898   0.142
60960SOL     OW84776   4.060  14.307  14.772
60960SOL    HW184777   4.038  14.398  14.754
60960SOL    HW284778   3.999  14.256  14.719
60961SOL     OW84779   9.235  13.285   1.600
60961SOL    HW184780   9.284  13.206   1.579
60961SOL    HW284781   9.212  13.322   1.515
60962SOL     OW84782  12.249   1.782  11.167
60962SOL    HW184783  12.233   1.874  11.188
60962SOL    HW284784  12.290   1.784  11.081
60963SOL     OW84785   3.238  13.934   1.105
60963SOL    HW184786   3.226  13.841   1.086
60963SOL    HW284787   3.273  13.971   1.024
60964SOL     OW84788   3.500   9.111  10.988
60964SOL    HW184789   3.478   9.201  11.011
60964SOL    HW284790   3.495   9.109  10.892
60965SOL     OW84791   0.036   5.193   6.542
60965SOL    HW184792   0.129   5.203   6.522
60965SOL    HW284793   0.034   5.153   6.629
60966SOL     OW84794   4.992   2.643   8.763
60966SOL    HW184795   5.031   2.680   8.842
60966SOL    HW284796   4.992   2.716   8.700
60967SOL     OW84797   4.402   6.262  14.650
60967SOL    HW184798   4.436   6.345  14.685
60967SOL    HW284799   4.317   6.252  14.693
60968SOL     OW84800   7.081   2.568  12.214
60968SOL    HW184801   7.001   2.552  12.163
60968SOL    HW284802   7.119   2.646  12.174
60969SOL     OW84803   2.984   0.188   7.648
60969SOL    HW184804   3.003   0.105   7.603
60969SOL    HW284805   2.895   0.210   7.620
60970SOL     OW84806  13.426   3.614   6.716
60970SOL    HW184807  13.494   3.670   6.753
60970SOL    HW284808  13.471   3.564   6.648
60971SOL     OW84809   0.062   7.660   4.466
60971SOL    HW184810  14.877   7.717   4.425
60971SOL    HW284811   0.106   7.717   4.530
60972SOL     OW84812   1.175  11.070   6.559
60972SOL    HW184813   1.222  11.031   6.632
60972SOL    HW284814   1.152  11.157   6.589
60973SOL     OW84815   1.516   6.117   8.702
60973SOL    HW184816   1.455   6.056   8.742
60973SOL    HW284817   1.560   6.066   8.633
60974SOL     OW84818   6.263   6.004   1.377
60974SOL    HW184819   6.244   6.010   1.471
60974SOL    HW284820   6.240   6.090   1.342
60975SOL     OW84821   9.284   9.472   1.918
60975SOL    HW184822   9.376   9.454   1.902
60975SOL    HW284823   9.283   9.556   1.963
60976SOL     OW84824   2.556  12.276  13.725
60976SOL    HW184825   2.463  12.258  13.726
60976SOL    HW284826   2.590  12.225  13.651
60977SOL     OW84827   6.458  12.141   9.548
60977SOL    HW184828   6.483  12.226   9.512
60977SOL    HW284829   6.439  12.087   9.470
60978SOL     OW84830   6.579  10.611   8.211
60978SOL    HW184831   6.526  10.650   8.141
60978SOL    HW284832   6.573  10.674   8.283
60979SOL     OW84833   6.144  10.742   6.306
60979SOL    HW184834   6.159  10.822   6.256
60979SOL    HW284835   6.197  10.753   6.385
60980SOL     OW84836   8.402   6.479   6.205
60980SOL    HW184837   8.405   6.425   6.126
60980SOL    HW284838   8.327   6.537   6.191
60981SOL     OW84839   2.112   7.287   4.094
60981SOL    HW184840   2.039   7.247   4.046
60981SOL    HW284841   2.116   7.237   4.176
60982SOL     OW84842  13.777   8.430   4.450
60982SOL    HW184843  13.839   8.363   4.421
60982SOL    HW284844  13.807   8.456   4.537
60983SOL     OW84845  10.664  11.277   9.712
60983SOL    HW184846  10.756  11.277   9.740
60983SOL    HW284847  10.617  11.234   9.784
60984SOL     OW84848   0.160   3.486   2.789
60984SOL    HW184849   0.179   3.558   2.850
60984SOL    HW284850   0.237   3.481   2.733
60985SOL     OW84851   2.610  12.833   5.890
60985SOL    HW184852   2.565  12.750   5.909
60985SOL    HW284853   2.628  12.829   5.796
60986SOL     OW84854  13.452  11.155  12.743
60986SOL    HW184855  13.470  11.182  12.653
60986SOL    HW284856  13.431  11.062  12.737
60987SOL     OW84857  10.778  10.180   5.730
60987SOL    HW184858  10.813  10.188   5.642
60987SOL    HW284859  10.724  10.258   5.742
60988SOL     OW84860  12.243   1.684   3.704
60988SOL    HW184861  12.151   1.667   3.725
60988SOL    HW284862  12.255   1.777   3.720
60989SOL     OW84863   4.029  13.675  11.303
60989SOL    HW184864   4.081  13.673  11.383
60989SOL    HW284865   4.057  13.756  11.259
60990SOL     OW84866   0.506  10.030  12.756
60990SOL    HW184867   0.500   9.941  12.790
60990SOL    HW284868   0.557  10.077  12.822
60991SOL     OW84869   5.652   3.122  10.263
60991SOL    HW184870   5.697   3.182  10.323
60991SOL    HW284871   5.598   3.067  10.320
60992SOL     OW84872   5.109   1.245  10.597
60992SOL    HW184873   5.056   1.266  10.521
60992SOL    HW284874   5.198   1.270  10.573
60993SOL     OW84875   2.323   2.839   1.253
60993SOL    HW184876   2.373   2.805   1.179
60993SOL    HW284877   2.239   2.865   1.214
60994SOL     OW84878  12.747  13.469  11.754
60994SOL    HW184879  12.806  13.489  11.681
60994SOL    HW284880  12.706  13.553  11.775
60995SOL     OW84881  14.627   0.152   8.328
60995SOL    HW184882  14.590   0.220   8.384
60995SOL    HW284883  14.631   0.192   8.241
60996SOL     OW84884  12.415   5.762   1.528
60996SOL    HW184885  12.500   5.799   1.551
60996SOL    HW284886  12.354   5.802   1.589
60997SOL     OW84887   7.703   9.915   6.095
60997SOL    HW184888   7.754   9.971   6.153
60997SOL    HW284889   7.652   9.977   6.041
60998SOL     OW84890   4.144   8.958   8.302
60998SOL    HW184891   4.128   8.906   8.223
60998SOL    HW284892   4.201   8.904   8.356
60999SOL     OW84893   7.250   2.588  10.474
60999SOL    HW184894   7.268   2.499  10.505
60999SOL    HW284895   7.333   2.618  10.438
61000SOL     OW84896  10.779   3.831  11.989
61000SOL    HW184897  10.690   3.810  11.963
61000SOL    HW284898  10.823   3.747  11.996
61001SOL     OW84899  13.660   4.512   4.505
61001SOL    HW184900  13.718   4.449   4.463
61001SOL    HW284901  13.706   4.538   4.585
61002SOL     OW84902  13.048  13.243  13.646
61002SOL    HW184903  13.126  13.299  13.640
61002SOL    HW284904  12.977  13.303  13.669
61003SOL     OW84905   2.982   6.283  11.800
61003SOL    HW184906   3.001   6.224  11.873
61003SOL    HW284907   2.991   6.228  11.722
61004SOL     OW84908   9.707   2.436   3.322
61004SOL    HW184909   9.747   2.433   3.409
61004SOL    HW284910   9.637   2.370   3.325
61005SOL     OW84911   8.342   1.703   4.308
61005SOL    HW184912   8.328   1.652   4.388
61005SOL    HW284913   8.342   1.794   4.336
61006SOL     OW84914   8.235  13.932   1.491
61006SOL    HW184915   8.143  13.911   1.510
61006SOL    HW284916   8.236  13.952   1.397
61007SOL     OW84917   6.476   4.740   7.067
61007SOL    HW184918   6.454   4.819   7.018
61007SOL    HW284919   6.406   4.732   7.132
61008SOL     OW84920  11.737   3.530  13.334
61008SOL    HW184921  11.720   3.486  13.417
61008SOL    HW284922  11.804   3.477  13.292
61009SOL     OW84923  10.895   9.603   2.648
61009SOL    HW184924  10.894   9.638   2.737
61009SOL    HW284925  10.972   9.644   2.608
61010SOL     OW84926   4.818   3.944   4.803
61010SOL    HW184927   4.902   3.980   4.772
61010SOL    HW284928   4.770   3.922   4.723
61011SOL     OW84929   2.548   7.205  10.790
61011SOL    HW184930   2.594   7.232  10.711
61011SOL    HW284931   2.456   7.229  10.774
61012SOL     OW84932   2.641   5.566   3.293
61012SOL    HW184933   2.706   5.627   3.329
61012SOL    HW284934   2.557   5.611   3.305
61013SOL     OW84935   9.454   1.014   8.307
61013SOL    HW184936   9.422   1.028   8.218
61013SOL    HW284937   9.540   1.056   8.307
61014SOL     OW84938   3.014  14.379   4.840
61014SOL    HW184939   3.107  14.401   4.832
61014SOL    HW284940   2.991  14.404   4.929
61015SOL     OW84941   1.359   8.149  12.701
61015SOL    HW184942   1.443   8.170  12.661
61015SOL    HW284943   1.330   8.231  12.742
61016SOL     OW84944  13.773  12.756   3.986
61016SOL    HW184945  13.741  12.713   4.065
61016SOL    HW284946  13.708  12.823   3.967
61017SOL     OW84947  13.437   9.090  13.514
61017SOL    HW184948  13.399   9.140  13.443
61017SOL    HW284949  13.466   9.008  13.473
61018SOL     OW84950  12.842  12.809   3.803
61018SOL    HW184951  12.809  12.899   3.804
61018SOL    HW284952  12.886  12.801   3.718
61019SOL     OW84953   8.545   5.074  10.301
61019SOL    HW184954   8.483   5.094  10.231
61019SOL    HW284955   8.610   5.018  10.259
61020SOL     OW84956  12.387   8.990   7.414
61020SOL    HW184957  12.454   8.969   7.478
61020SOL    HW284958  12.304   8.983   7.462
61021SOL     OW84959   9.875   6.416   9.826
61021SOL    HW184960   9.790   6.399   9.786
61021SOL    HW284961   9.858   6.408   9.920
61022SOL     OW84962  14.765   7.855  11.960
61022SOL    HW184963  14.770   7.793  12.033
61022SOL    HW284964  14.851   7.852  11.919
61023SOL     OW84965  11.810   8.709  10.021
61023SOL    HW184966  11.791   8.732   9.930
61023SOL    HW284967  11.779   8.784  10.072
61024SOL     OW84968  12.046   3.007  11.434
61024SOL    HW184969  11.977   3.058  11.476
61024SOL    HW284970  12.069   2.940  11.499
61025SOL     OW84971   5.969   4.422   7.348
61025SOL    HW184972   5.967   4.440   7.442
61025SOL    HW284973   6.062   4.407   7.329
61026SOL     OW84974   2.847  10.300   7.672
61026SOL    HW184975   2.829  10.389   7.641
61026SOL    HW284976   2.805  10.296   7.757
61027SOL     OW84977   2.257   1.860   7.632
61027SOL    HW184978   2.321   1.792   7.655
61027SOL    HW284979   2.287   1.894   7.548
61028SOL     OW84980  13.244   1.849   1.621
61028SOL    HW184981  13.323   1.839   1.567
61028SOL    HW284982  13.178   1.795   1.577
61029SOL     OW84983  11.817   6.898   7.997
61029SOL    HW184984  11.732   6.941   7.994
61029SOL    HW284985  11.837   6.890   8.090
61030SOL     OW84986  14.363   8.129   2.926
61030SOL    HW184987  14.288   8.070   2.921
61030SOL    HW284988  14.330   8.213   2.894
61031SOL     OW84989   9.071   4.134   0.689
61031SOL    HW184990   8.993   4.121   0.742
61031SOL    HW284991   9.084   4.051   0.643
61032SOL     OW84992   3.461  13.485   5.440
61032SOL    HW184993   3.425  13.490   5.351
61032SOL    HW284994   3.412  13.550   5.490
61033SOL     OW84995   6.924   8.172   2.060
61033SOL    HW184996   6.896   8.110   1.992
61033SOL    HW284997   6.962   8.117   2.128
61034SOL     OW84998   9.930  10.000  10.207
61034SOL    HW184999   9.937   9.994  10.112
61034SOL    HW285000  10.002  10.057  10.232
61035SOL     OW85001   8.680   1.526   6.679
61035SOL    HW185002   8.655   1.434   6.670
61035SOL    HW285003   8.742   1.527   6.751
61036SOL     OW85004  12.429  13.404   3.431
61036SOL    HW185005  12.342  13.443   3.427
61036SOL    HW285006  12.477  13.445   3.359
61037SOL     OW85007   6.155  10.814   7.695
61037SOL    HW185008   6.144  10.790   7.603
61037SOL    HW285009   6.219  10.750   7.728
61038SOL     OW85010  12.909  13.906   3.332
61038SOL    HW185011  12.868  13.951   3.406
61038SOL    HW285012  13.000  13.895   3.359
61039SOL     OW85013  10.962   5.371   6.128
61039SOL    HW185014  11.038   5.381   6.071
61039SOL    HW285015  10.919   5.291   6.096
61040SOL     OW85016   5.991   2.514  13.889
61040SOL    HW185017   5.962   2.598  13.926
61040SOL    HW285018   5.985   2.527  13.795
61041SOL     OW85019   4.224   0.572   2.961
61041SOL    HW185020   4.217   0.613   3.047
61041SOL    HW285021   4.183   0.486   2.973
61042SOL     OW85022   8.804   0.976   2.165
61042SOL    HW185023   8.848   1.061   2.165
61042SOL    HW285024   8.829   0.935   2.082
61043SOL     OW85025   7.060   6.603   7.995
61043SOL    HW185026   7.108   6.593   7.913
61043SOL    HW285027   6.968   6.611   7.968
61044SOL     OW85028  14.013  12.853   5.168
61044SOL    HW185029  14.069  12.882   5.096
61044SOL    HW285030  13.964  12.778   5.132
61045SOL     OW85031   9.859   0.272   1.100
61045SOL    HW185032   9.944   0.269   1.056
61045SOL    HW285033   9.796   0.290   1.030
61046SOL     OW85034   4.061   3.117  11.189
61046SOL    HW185035   3.997   3.140  11.121
61046SOL    HW285036   4.020   3.146  11.271
61047SOL     OW85037   1.070   4.792   7.923
61047SOL    HW185038   1.138   4.804   7.858
61047SOL    HW285039   1.112   4.814   8.006
61048SOL     OW85040   3.889   9.707   9.518
61048SOL    HW185041   3.964   9.696   9.576
61048SOL    HW285042   3.885   9.626   9.468
61049SOL     OW85043   7.408   4.194  10.499
61049SOL    HW185044   7.319   4.207  10.531
61049SOL    HW285045   7.457   4.165  10.575
61050SOL     OW85046  11.319   5.630   6.136
61050SOL    HW185047  11.280   5.717   6.138
61050SOL    HW285048  11.263   5.578   6.193
61051SOL     OW85049   2.598   1.579   1.923
61051SOL    HW185050   2.637   1.559   1.838
61051SOL    HW285051   2.518   1.528   1.925
61052SOL     OW85052   3.135  11.890  12.081
61052SOL    HW185053   3.229  11.876  12.071
61052SOL    HW285054   3.095  11.812  12.044
61053SOL     OW85055   2.206   6.011  13.963
61053SOL    HW185056   2.148   6.031  13.890
61053SOL    HW285057   2.243   5.925  13.942
61054SOL     OW85058   8.274  14.724   2.283
61054SOL    HW185059   8.241  14.770   2.360
61054SOL    HW285060   8.288  14.793   2.218
61055SOL     OW85061  11.858   6.206  14.752
61055SOL    HW185062  11.878   6.299  14.741
61055SOL    HW285063  11.931   6.172  14.804
61056SOL     OW85064   7.394   6.384  14.698
61056SOL    HW185065   7.326   6.422  14.643
61056SOL    HW285066   7.382   6.426  14.784
61057SOL     OW85067  13.686   3.574   4.346
61057SOL    HW185068  13.682   3.520   4.267
61057SOL    HW285069  13.743   3.526   4.406
61058SOL     OW85070  13.840   4.257  10.675
61058SOL    HW185071  13.775   4.221  10.735
61058SOL    HW285072  13.809   4.234  10.588
61059SOL     OW85073   7.326  11.605  13.660
61059SOL    HW185074   7.235  11.614  13.631
61059SOL    HW285075   7.375  11.591  13.579
61060SOL     OW85076   1.118  12.741   0.850
61060SOL    HW185077   1.088  12.650   0.853
61060SOL    HW285078   1.044  12.791   0.883
61061SOL     OW85079   4.946  13.666   4.806
61061SOL    HW185080   4.974  13.608   4.878
61061SOL    HW285081   4.957  13.613   4.727
61062SOL     OW85082  10.178   4.549  11.616
61062SOL    HW185083  10.194   4.554  11.522
61062SOL    HW285084  10.217   4.629  11.652
61063SOL     OW85085   3.505  10.682  12.185
61063SOL    HW185086   3.536  10.742  12.253
61063SOL    HW285087   3.537  10.719  12.103
61064SOL     OW85088   2.921   4.559  14.501
61064SOL    HW185089   2.995   4.508  14.467
61064SOL    HW285090   2.904   4.625  14.434
61065SOL     OW85091   2.784   4.392   0.173
61065SOL    HW185092   2.741   4.426   0.095
61065SOL    HW285093   2.816   4.305   0.148
61066SOL     OW85094  12.636   2.636   5.492
61066SOL    HW185095  12.581   2.589   5.430
61066SOL    HW285096  12.644   2.724   5.455
61067SOL     OW85097  14.258   0.116   1.313
61067SOL    HW185098  14.229   0.161   1.233
61067SOL    HW285099  14.177   0.093   1.358
61068SOL     OW85100   9.814   7.800   1.697
61068SOL    HW185101   9.740   7.804   1.637
61068SOL    HW285102   9.888   7.834   1.647
61069SOL     OW85103   3.360   7.224  14.623
61069SOL    HW185104   3.306   7.223  14.544
61069SOL    HW285105   3.309   7.275  14.686
61070SOL     OW85106   3.643  13.327  10.107
61070SOL    HW185107   3.703  13.349  10.178
61070SOL    HW285108   3.601  13.246  10.136
61071SOL     OW85109   8.579  10.730   9.110
61071SOL    HW185110   8.555  10.638   9.096
61071SOL    HW285111   8.619  10.731   9.198
61072SOL     OW85112   5.161   1.144  11.915
61072SOL    HW185113   5.105   1.132  11.992
61072SOL    HW285114   5.226   1.208  11.943
61073SOL     OW85115   2.925  12.467  10.563
61073SOL    HW185116   2.931  12.432  10.652
61073SOL    HW285117   2.970  12.551  10.567
61074SOL     OW85118   2.366  14.233   7.350
61074SOL    HW185119   2.460  14.240   7.363
61074SOL    HW285120   2.328  14.266   7.432
61075SOL     OW85121   1.612   3.350  10.529
61075SOL    HW185122   1.583   3.283  10.466
61075SOL    HW285123   1.536   3.408  10.538
61076SOL     OW85124   3.765   2.123   0.693
61076SOL    HW185125   3.750   2.211   0.728
61076SOL    HW285126   3.763   2.066   0.769
61077SOL     OW85127  11.664  12.651   6.419
61077SOL    HW185128  11.589  12.623   6.366
61077SOL    HW285129  11.704  12.722   6.369
61078SOL     OW85130  12.142  11.782   3.271
61078SOL    HW185131  12.181  11.810   3.188
61078SOL    HW285132  12.186  11.698   3.290
61079SOL     OW85133  14.131  12.889   9.112
61079SOL    HW185134  14.197  12.944   9.155
61079SOL    HW285135  14.182  12.819   9.070
61080SOL     OW85136   2.722   3.702   0.539
61080SOL    HW185137   2.646   3.757   0.522
61080SOL    HW285138   2.690   3.613   0.527
61081SOL     OW85139  14.149   0.870   4.723
61081SOL    HW185140  14.085   0.934   4.691
61081SOL    HW285141  14.105   0.786   4.712
61082SOL     OW85142   8.227   6.486  13.831
61082SOL    HW185143   8.254   6.514  13.743
61082SOL    HW285144   8.288   6.530  13.890
61083SOL     OW85145   4.899  11.652  12.248
61083SOL    HW185146   4.921  11.598  12.324
61083SOL    HW285147   4.894  11.591  12.175
61084SOL     OW85148   8.108   4.341   9.647
61084SOL    HW185149   8.055   4.370   9.573
61084SOL    HW285150   8.096   4.246   9.650
61085SOL     OW85151   8.935   3.808   8.458
61085SOL    HW185152   8.900   3.726   8.423
61085SOL    HW285153   8.968   3.854   8.381
61086SOL     OW85154  14.479   4.306  10.235
61086SOL    HW185155  14.453   4.372  10.299
61086SOL    HW285156  14.571   4.326  10.217
61087SOL     OW85157   1.461  14.033   0.828
61087SOL    HW185158   1.458  13.940   0.849
61087SOL    HW285159   1.525  14.069   0.890
61088SOL     OW85160   6.690   3.008  11.497
61088SOL    HW185161   6.725   2.939  11.553
61088SOL    HW285162   6.721   2.986  11.410
61089SOL     OW85163   8.045   1.001   0.693
61089SOL    HW185164   7.999   1.083   0.673
61089SOL    HW285165   7.976   0.943   0.726
61090SOL     OW85166   0.370  10.222   4.988
61090SOL    HW185167   0.460  10.252   4.974
61090SOL    HW285168   0.379  10.138   5.033
61091SOL     OW85169  11.054   7.140   0.722
61091SOL    HW185170  11.044   7.057   0.769
61091SOL    HW285171  11.042   7.116   0.630
61092SOL     OW85172   8.361  11.401  13.626
61092SOL    HW185173   8.388  11.342  13.696
61092SOL    HW285174   8.410  11.372  13.549
61093SOL     OW85175  13.095  10.482   0.387
61093SOL    HW185176  13.092  10.421   0.313
61093SOL    HW285177  13.067  10.430   0.462
61094SOL     OW85178   4.787   3.178  12.351
61094SOL    HW185179   4.757   3.186  12.260
61094SOL    HW285180   4.719   3.222  12.402
61095SOL     OW85181  12.868   7.586   7.644
61095SOL    HW185182  12.837   7.629   7.724
61095SOL    HW285183  12.853   7.493   7.659
61096SOL     OW85184   8.379  11.493   9.935
61096SOL    HW185185   8.377  11.470  10.028
61096SOL    HW285186   8.468  11.472   9.907
61097SOL     OW85187   0.794   2.252   3.314
61097SOL    HW185188   0.859   2.316   3.344
61097SOL    HW285189   0.844   2.191   3.261
61098SOL     OW85190  11.139  13.670  13.782
61098SOL    HW185191  11.127  13.585  13.741
61098SOL    HW285192  11.146  13.651  13.876
61099SOL     OW85193   4.154   2.753  14.675
61099SOL    HW185194   4.073   2.745  14.624
61099SOL    HW285195   4.190   2.838  14.649
61100SOL     OW85196  10.651   0.702   4.295
61100SOL    HW185197  10.680   0.630   4.351
61100SOL    HW285198  10.729   0.755   4.282
61101SOL     OW85199  11.753   3.738   6.558
61101SOL    HW185200  11.836   3.736   6.511
61101SOL    HW285201  11.724   3.829   6.552
61102SOL     OW85202  12.336  12.582  14.271
61102SOL    HW185203  12.262  12.634  14.301
61102SOL    HW285204  12.396  12.646  14.233
61103SOL     OW85205   3.025   9.580   7.380
61103SOL    HW185206   2.942   9.579   7.428
61103SOL    HW285207   3.080   9.518   7.426
61104SOL     OW85208   0.114   5.019   0.413
61104SOL    HW185209   0.134   5.111   0.432
61104SOL    HW285210   0.063   5.022   0.333
61105SOL     OW85211   1.661   8.308  13.766
61105SOL    HW185212   1.635   8.223  13.730
61105SOL    HW285213   1.737   8.334  13.714
61106SOL     OW85214  12.873  14.649   0.159
61106SOL    HW185215  12.915  14.690   0.235
61106SOL    HW285216  12.930  14.575   0.138
61107SOL     OW85217  11.525   7.750   2.540
61107SOL    HW185218  11.513   7.816   2.472
61107SOL    HW285219  11.439   7.709   2.549
61108SOL     OW85220   0.261   8.410   8.661
61108SOL    HW185221   0.319   8.440   8.731
61108SOL    HW285222   0.286   8.462   8.585
61109SOL     OW85223  14.722   2.809   8.447
61109SOL    HW185224  14.645   2.775   8.402
61109SOL    HW285225  14.750   2.883   8.394
61110SOL     OW85226   3.608   1.666  14.164
61110SOL    HW185227   3.598   1.607  14.239
61110SOL    HW285228   3.612   1.608  14.088
61111SOL     OW85229   0.543  11.850   6.637
61111SOL    HW185230   0.612  11.917   6.641
61111SOL    HW285231   0.476  11.887   6.579
61112SOL     OW85232   7.283   9.161   0.268
61112SOL    HW185233   7.323   9.094   0.324
61112SOL    HW285234   7.214   9.115   0.221
61113SOL     OW85235   8.877  10.186   5.329
61113SOL    HW185236   8.807  10.122   5.343
61113SOL    HW285237   8.901  10.176   5.237
61114SOL     OW85238   7.771   5.296  14.683
61114SOL    HW185239   7.746   5.215  14.727
61114SOL    HW285240   7.691   5.325  14.640
61115SOL     OW85241   0.978   0.007   2.922
61115SOL    HW185242   1.013  14.799   2.909
61115SOL    HW285243   0.996   0.026   3.014
61116SOL     OW85244   1.229  10.449   3.406
61116SOL    HW185245   1.211  10.376   3.347
61116SOL    HW285246   1.316  10.478   3.382
61117SOL     OW85247   8.157   3.819   5.880
61117SOL    HW185248   8.246   3.817   5.844
61117SOL    HW285249   8.136   3.912   5.885
61118SOL     OW85250   1.632   1.479  10.359
61118SOL    HW185251   1.714   1.527  10.348
61118SOL    HW285252   1.593   1.479  10.272
61119SOL     OW85253   2.320  13.136  10.306
61119SOL    HW185254   2.229  13.158  10.328
61119SOL    HW285255   2.350  13.082  10.379
61120SOL     OW85256  14.407   4.925  13.559
61120SOL    HW185257  14.470   4.853  13.563
61120SOL    HW285258  14.334   4.890  13.508
61121SOL     OW85259   4.223   2.669   5.324
61121SOL    HW185260   4.312   2.634   5.313
61121SOL    HW285261   4.217   2.738   5.258
61122SOL     OW85262   1.216  13.007   6.660
61122SOL    HW185263   1.291  12.980   6.713
61122SOL    HW285264   1.175  12.925   6.633
61123SOL     OW85265  11.036   6.345   7.062
61123SOL    HW185266  10.989   6.422   7.031
61123SOL    HW285267  11.117   6.345   7.010
61124SOL     OW85268   4.277   5.283   6.655
61124SOL    HW185269   4.261   5.299   6.562
61124SOL    HW285270   4.190   5.276   6.693
61125SOL     OW85271   6.117   4.806  12.044
61125SOL    HW185272   6.077   4.892  12.027
61125SOL    HW285273   6.059   4.765  12.108
61126SOL     OW85274   9.989   4.356  10.758
61126SOL    HW185275   9.984   4.262  10.773
61126SOL    HW285276   9.993   4.394  10.846
61127SOL     OW85277   3.614  14.397   9.610
61127SOL    HW185278   3.648  14.486   9.613
61127SOL    HW285279   3.572  14.391   9.524
61128SOL     OW85280  14.667   1.213  11.930
61128SOL    HW185281  14.719   1.134  11.942
61128SOL    HW285282  14.722   1.283  11.966
61129SOL     OW85283  13.185  12.335   1.132
61129SOL    HW185284  13.090  12.331   1.140
61129SOL    HW285285  13.208  12.423   1.162
61130SOL     OW85286   3.668  11.576   0.981
61130SOL    HW185287   3.619  11.540   1.055
61130SOL    HW285288   3.625  11.659   0.962
61131SOL     OW85289  10.500   4.314   4.090
61131SOL    HW185290  10.455   4.231   4.076
61131SOL    HW285291  10.477   4.338   4.180
61132SOL     OW85292  14.632   2.104   7.018
61132SOL    HW185293  14.677   2.036   7.067
61132SOL    HW285294  14.625   2.177   7.079
61133SOL     OW85295   4.392  13.795  12.058
61133SOL    HW185296   4.351  13.776  12.142
61133SOL    HW285297   4.449  13.720  12.041
61134SOL     OW85298   6.908  11.666   6.045
61134SOL    HW185299   6.977  11.635   6.103
61134SOL    HW285300   6.945  11.745   6.003
61135SOL     OW85301   1.452   3.509  12.352
61135SOL    HW185302   1.460   3.511  12.257
61135SOL    HW285303   1.374   3.456  12.368
61136SOL     OW85304   5.473   4.661  13.447
61136SOL    HW185305   5.415   4.734  13.427
61136SOL    HW285306   5.418   4.601  13.499
61137SOL     OW85307   8.924   0.143  12.813
61137SOL    HW185308   8.899   0.233  12.838
61137SOL    HW285309   8.923   0.095  12.896
61138SOL     OW85310  13.014   4.154   7.337
61138SOL    HW185311  13.092   4.108   7.305
61138SOL    HW285312  12.951   4.085   7.356
61139SOL     OW85313   9.849   8.911   8.836
61139SOL    HW185314   9.785   8.888   8.903
61139SOL    HW285315   9.819   8.866   8.757
61140SOL     OW85316   7.751  11.617  14.211
61140SOL    HW185317   7.749  11.526  14.179
61140SOL    HW285318   7.844  11.634  14.226
61141SOL     OW85319   2.558  14.691   4.799
61141SOL    HW185320   2.506  14.631   4.745
61141SOL    HW285321   2.620  14.731   4.737
61142SOL     OW85322   0.624   9.522   1.546
61142SOL    HW185323   0.586   9.467   1.477
61142SOL    HW285324   0.710   9.547   1.512
61143SOL     OW85325   6.111   4.691   9.945
61143SOL    HW185326   6.119   4.786   9.959
61143SOL    HW285327   6.141   4.652  10.027
61144SOL     OW85328  14.447   3.412   7.684
61144SOL    HW185329  14.517   3.399   7.620
61144SOL    HW285330  14.434   3.507   7.685
61145SOL     OW85331   0.807  11.205   6.569
61145SOL    HW185332   0.879  11.143   6.557
61145SOL    HW285333   0.746  11.185   6.498
61146SOL     OW85334   1.636  13.208  10.622
61146SOL    HW185335   1.550  13.170  10.604
61146SOL    HW285336   1.688  13.187  10.545
61147SOL     OW85337  10.438   8.338   0.724
61147SOL    HW185338  10.439   8.249   0.689
61147SOL    HW285339  10.515   8.380   0.688
61148SOL     OW85340  10.381   3.257  11.669
61148SOL    HW185341  10.469   3.296  11.677
61148SOL    HW285342  10.363   3.260  11.575
61149SOL     OW85343   8.258   1.800   7.642
61149SOL    HW185344   8.274   1.733   7.575
61149SOL    HW285345   8.246   1.751   7.723
61150SOL     OW85346   4.306   4.913   9.275
61150SOL    HW185347   4.309   4.843   9.340
61150SOL    HW285348   4.370   4.977   9.305
61151SOL     OW85349   1.568  10.060   2.380
61151SOL    HW185350   1.653  10.023   2.402
61151SOL    HW285351   1.554  10.036   2.288
61152SOL     OW85352   6.710   4.450  11.344
61152SOL    HW185353   6.796   4.408  11.343
61152SOL    HW285354   6.699   4.478  11.435
61153SOL     OW85355   2.701  13.498   1.442
61153SOL    HW185356   2.685  13.462   1.355
61153SOL    HW285357   2.615  13.529   1.471
61154SOL     OW85358   6.623   9.662   4.245
61154SOL    HW185359   6.642   9.746   4.287
61154SOL    HW285360   6.708   9.618   4.241
61155SOL     OW85361  11.465   7.786  10.318
61155SOL    HW185362  11.398   7.851  10.338
61155SOL    HW285363  11.492   7.806  10.229
61156SOL     OW85364   5.554  10.239   3.109
61156SOL    HW185365   5.593  10.220   3.194
61156SOL    HW285366   5.598  10.180   3.049
61157SOL     OW85367  11.204   6.036   2.175
61157SOL    HW185368  11.184   6.105   2.112
61157SOL    HW285369  11.263   6.078   2.238
61158SOL     OW85370   0.478   7.674   6.411
61158SOL    HW185371   0.500   7.721   6.492
61158SOL    HW285372   0.384   7.686   6.401
61159SOL     OW85373   8.077   6.297   3.561
61159SOL    HW185374   8.025   6.269   3.636
61159SOL    HW285375   8.090   6.391   3.575
61160SOL     OW85376  11.128  12.750  10.767
61160SOL    HW185377  11.178  12.735  10.848
61160SOL    HW285378  11.195  12.768  10.701
61161SOL     OW85379   0.174  14.768   1.585
61161SOL    HW185380   0.232  14.793   1.513
61161SOL    HW285381   0.154  14.676   1.569
61162SOL     OW85382   2.258  12.444  12.786
61162SOL    HW185383   2.210  12.491  12.855
61162SOL    HW285384   2.348  12.442  12.817
61163SOL     OW85385   6.513  11.888  14.503
61163SOL    HW185386   6.505  11.919  14.413
61163SOL    HW285387   6.506  11.793  14.498
61164SOL     OW85388  14.391   4.580   8.980
61164SOL    HW185389  14.306   4.616   8.955
61164SOL    HW285390  14.395   4.592   9.075
61165SOL     OW85391  13.001  14.658   9.818
61165SOL    HW185392  12.922  14.697   9.779
61165SOL    HW285393  12.971  14.626   9.903
61166SOL     OW85394  11.237   8.183   9.588
61166SOL    HW185395  11.271   8.262   9.630
61166SOL    HW285396  11.180   8.144   9.654
61167SOL     OW85397   3.978   6.923   2.276
61167SOL    HW185398   3.907   6.889   2.221
61167SOL    HW285399   4.029   6.979   2.217
61168SOL     OW85400   5.892  10.443   4.437
61168SOL    HW185401   5.821  10.409   4.384
61168SOL    HW285402   5.891  10.537   4.421
61169SOL     OW85403   9.056   9.113  14.167
61169SOL    HW185404   9.121   9.135  14.233
61169SOL    HW285405   9.031   9.197  14.129
61170SOL     OW85406  13.264  11.527   7.496
61170SOL    HW185407  13.267  11.620   7.518
61170SOL    HW285408  13.258  11.483   7.581
61171SOL     OW85409  10.428  13.559   8.343
61171SOL    HW185410  10.396  13.640   8.304
61171SOL    HW285411  10.362  13.494   8.321
61172SOL     OW85412   1.325   2.928  12.845
61172SOL    HW185413   1.238   2.934  12.805
61172SOL    HW285414   1.312   2.872  12.922
61173SOL     OW85415   2.117   0.920   1.444
61173SOL    HW185416   2.065   0.989   1.484
61173SOL    HW285417   2.147   0.867   1.518
61174SOL     OW85418   9.759   7.418   9.384
61174SOL    HW185419   9.687   7.364   9.416
61174SOL    HW285420   9.729   7.508   9.396
61175SOL     OW85421   4.824   1.943   4.129
61175SOL    HW185422   4.784   1.981   4.208
61175SOL    HW285423   4.756   1.887   4.092
61176SOL     OW85424   5.583   6.332  10.756
61176SOL    HW185425   5.535   6.410  10.783
61176SOL    HW285426   5.646   6.317  10.827
61177SOL     OW85427   1.553  14.342  12.139
61177SOL    HW185428   1.583  14.394  12.214
61177SOL    HW285429   1.551  14.252  12.171
61178SOL     OW85430  13.699   8.219   0.728
61178SOL    HW185431  13.628   8.177   0.680
61178SOL    HW285432  13.676   8.312   0.729
61179SOL     OW85433  14.164   7.155  14.108
61179SOL    HW185434  14.133   7.103  14.033
61179SOL    HW285435  14.214   7.226  14.069
61180SOL     OW85436   2.919  10.376   6.168
61180SOL    HW185437   2.834  10.358   6.129
61180SOL    HW285438   2.971  10.298   6.147
61181SOL     OW85439   1.761  13.326  13.734
61181SOL    HW185440   1.856  13.318  13.730
61181SOL    HW285441   1.743  13.340  13.827
61182SOL     OW85442   7.127   5.624   6.579
61182SOL    HW185443   7.042   5.633   6.535
61182SOL    HW285444   7.158   5.714   6.591
61183SOL     OW85445   8.372  10.596  14.810
61183SOL    HW185446   8.412  10.515  14.780
61183SOL    HW285447   8.389  10.659  14.741
61184SOL     OW85448   7.843   7.741  10.694
61184SOL    HW185449   7.829   7.747  10.789
61184SOL    HW285450   7.766   7.782  10.655
61185SOL     OW85451  11.949   1.224   3.837
61185SOL    HW185452  11.865   1.189   3.809
61185SOL    HW285453  11.965   1.299   3.780
61186SOL     OW85454   0.299  10.057  10.475
61186SOL    HW185455   0.297  10.149  10.503
61186SOL    HW285456   0.222  10.018  10.515
61187SOL     OW85457   7.681   3.798   2.232
61187SOL    HW185458   7.618   3.852   2.184
61187SOL    HW285459   7.730   3.859   2.286
61188SOL     OW85460   3.044   0.227  12.577
61188SOL    HW185461   2.959   0.242  12.618
61188SOL    HW285462   3.100   0.297  12.612
61189SOL     OW85463  11.899  14.797   1.567
61189SOL    HW185464  11.894  14.719   1.511
61189SOL    HW285465  11.993  14.813   1.577
61190SOL     OW85466  11.864   6.218   2.395
61190SOL    HW185467  11.890   6.310   2.400
61190SOL    HW285468  11.901   6.187   2.312
61191SOL     OW85469   0.582   8.299  10.022
61191SOL    HW185470   0.662   8.253  10.045
61191SOL    HW285471   0.609   8.365   9.958
61192SOL     OW85472  14.234   1.773   1.284
61192SOL    HW185473  14.159   1.800   1.336
61192SOL    HW285474  14.252   1.848   1.227
61193SOL     OW85475   8.481   1.915   0.624
61193SOL    HW185476   8.476   1.827   0.587
61193SOL    HW285477   8.540   1.905   0.699
61194SOL     OW85478   3.913   5.764  14.640
61194SOL    HW185479   3.848   5.711  14.593
61194SOL    HW285480   3.868   5.847  14.658
61195SOL     OW85481  12.216   9.617   3.672
61195SOL    HW185482  12.284   9.552   3.688
61195SOL    HW285483  12.206   9.618   3.577
61196SOL     OW85484   1.905   6.487   4.126
61196SOL    HW185485   1.879   6.397   4.145
61196SOL    HW285486   1.822   6.536   4.123
61197SOL     OW85487   0.786   4.435  14.675
61197SOL    HW185488   0.852   4.369  14.655
61197SOL    HW285489   0.714   4.416  14.615
61198SOL     OW85490  10.837   1.392   4.821
61198SOL    HW185491  10.836   1.303   4.787
61198SOL    HW285492  10.759   1.399   4.876
61199SOL     OW85493   1.108   8.337  13.107
61199SOL    HW185494   1.106   8.385  13.190
61199SOL    HW285495   1.115   8.245  13.132
61200SOL     OW85496   8.821  13.057   2.753
61200SOL    HW185497   8.896  13.004   2.781
61200SOL    HW285498   8.752  12.993   2.737
61201SOL     OW85499   2.202  12.677   6.935
61201SOL    HW185500   2.297  12.666   6.926
61201SOL    HW285501   2.174  12.717   6.853
61202SOL     OW85502   0.857   6.417  13.662
61202SOL    HW185503   0.923   6.353  13.689
61202SOL    HW285504   0.802   6.427  13.740
61203SOL     OW85505  11.831   3.916   3.503
61203SOL    HW185506  11.874   3.925   3.588
61203SOL    HW285507  11.766   3.987   3.501
61204SOL     OW85508  14.093   5.238   0.329
61204SOL    HW185509  14.139   5.229   0.246
61204SOL    HW285510  14.037   5.161   0.334
61205SOL     OW85511  12.762   1.277   0.479
61205SOL    HW185512  12.674   1.245   0.499
61205SOL    HW285513  12.747   1.349   0.418
61206SOL     OW85514   2.898   5.180   0.797
61206SOL    HW185515   2.806   5.205   0.790
61206SOL    HW285516   2.943   5.237   0.734
61207SOL     OW85517   8.875  11.462   0.075
61207SOL    HW185518   8.829  11.401   0.017
61207SOL    HW285519   8.835  11.547   0.056
61208SOL     OW85520   1.712  13.635  10.429
61208SOL    HW185521   1.627  13.623  10.473
61208SOL    HW285522   1.691  13.690  10.353
61209SOL     OW85523   8.192   7.868   8.899
61209SOL    HW185524   8.223   7.958   8.901
61209SOL    HW285525   8.100   7.874   8.925
61210SOL     OW85526   6.101  13.922  10.913
61210SOL    HW185527   6.063  13.997  10.869
61210SOL    HW285528   6.026  13.870  10.941
61211SOL     OW85529  10.642   4.734  13.150
61211SOL    HW185530  10.714   4.697  13.200
61211SOL    HW285531  10.681   4.804  13.098
61212SOL     OW85532   1.828  11.451  14.856
61212SOL    HW185533   1.846  11.405   0.058
61212SOL    HW285534   1.907  11.439  14.803
61213SOL     OW85535   0.532  10.362  11.716
61213SOL    HW185536   0.610  10.362  11.660
61213SOL    HW285537   0.459  10.356  11.655
61214SOL     OW85538   5.250   3.357   5.244
61214SOL    HW185539   5.178   3.403   5.287
61214SOL    HW285540   5.326   3.414   5.258
61215SOL     OW85541   9.642   5.714   5.554
61215SOL    HW185542   9.718   5.763   5.586
61215SOL    HW285543   9.659   5.624   5.579
61216SOL     OW85544   5.201  10.668  14.634
61216SOL    HW185545   5.137  10.618  14.583
61216SOL    HW285546   5.214  10.616  14.713
61217SOL     OW85547   1.908   5.058   7.727
61217SOL    HW185548   1.901   5.133   7.786
61217SOL    HW285549   1.970   5.000   7.770
61218SOL     OW85550   3.886  10.135   2.458
61218SOL    HW185551   3.794  10.110   2.468
61218SOL    HW285552   3.921  10.074   2.393
61219SOL     OW85553  13.611   2.512   6.491
61219SOL    HW185554  13.628   2.443   6.556
61219SOL    HW285555  13.538   2.479   6.440
61220SOL     OW85556   2.173  11.753   8.221
61220SOL    HW185557   2.195  11.795   8.304
61220SOL    HW285558   2.251  11.702   8.198
61221SOL     OW85559   8.028   8.299  10.277
61221SOL    HW185560   8.074   8.362  10.334
61221SOL    HW285561   8.081   8.220  10.282
61222SOL     OW85562   8.716   7.675  11.036
61222SOL    HW185563   8.800   7.684  11.081
61222SOL    HW285564   8.734   7.615  10.964
61223SOL     OW85565   4.470   9.111  10.109
61223SOL    HW185566   4.390   9.060  10.119
61223SOL    HW285567   4.527   9.081  10.180
61224SOL     OW85568   0.692   6.384   3.261
61224SOL    HW185569   0.618   6.432   3.298
61224SOL    HW285570   0.723   6.441   3.190
61225SOL     OW85571   4.101  12.371   0.247
61225SOL    HW185572   4.174  12.310   0.233
61225SOL    HW285573   4.121  12.414   0.330
61226SOL     OW85574   8.736  10.405   2.812
61226SOL    HW185575   8.822  10.364   2.809
61226SOL    HW285576   8.753  10.499   2.816
61227SOL     OW85577   3.944   8.318  13.376
61227SOL    HW185578   4.017   8.374  13.353
61227SOL    HW285579   3.924   8.340  13.467
61228SOL     OW85580   4.724   7.152   4.228
61228SOL    HW185581   4.696   7.068   4.190
61228SOL    HW285582   4.778   7.127   4.303
61229SOL     OW85583   0.690   8.334   3.439
61229SOL    HW185584   0.695   8.378   3.355
61229SOL    HW285585   0.638   8.255   3.422
61230SOL     OW85586   3.323   2.080   6.003
61230SOL    HW185587   3.269   2.152   5.968
61230SOL    HW285588   3.335   2.101   6.095
61231SOL     OW85589  14.751   2.086  11.178
61231SOL    HW185590  14.825   2.028  11.162
61231SOL    HW285591  14.729   2.073  11.270
61232SOL     OW85592   9.915   1.033  13.603
61232SOL    HW185593   9.978   1.086  13.553
61232SOL    HW285594   9.853   1.002  13.538
61233SOL     OW85595   0.545   8.930   1.516
61233SOL    HW185596   0.589   8.991   1.575
61233SOL    HW285597   0.554   8.844   1.558
61234SOL     OW85598  12.121   2.893   8.748
61234SOL    HW185599  12.106   2.862   8.837
61234SOL    HW285600  12.059   2.844   8.695
61235SOL     OW85601   1.579   2.310   8.769
61235SOL    HW185602   1.612   2.221   8.785
61235SOL    HW285603   1.657   2.365   8.777
61236SOL     OW85604   5.508   6.931   0.667
61236SOL    HW185605   5.467   6.969   0.745
61236SOL    HW285606   5.597   6.910   0.695
61237SOL     OW85607   4.995   3.326  11.889
61237SOL    HW185608   5.015   3.285  11.805
61237SOL    HW285609   5.026   3.416  11.879
61238SOL     OW85610   7.568  11.081   9.709
61238SOL    HW185611   7.560  11.176   9.720
61238SOL    HW285612   7.657  11.061   9.740
61239SOL     OW85613   4.525   9.479  11.568
61239SOL    HW185614   4.510   9.496  11.661
61239SOL    HW285615   4.613   9.512  11.552
61240SOL     OW85616  13.688   7.853  10.550
61240SOL    HW185617  13.673   7.785  10.485
61240SOL    HW285618  13.677   7.810  10.634
61241SOL     OW85619  14.551   4.210   4.726
61241SOL    HW185620  14.504   4.290   4.701
61241SOL    HW285621  14.600   4.235   4.805
61242SOL     OW85622  11.046   7.662  11.596
61242SOL    HW185623  10.984   7.627  11.533
61242SOL    HW285624  11.080   7.742  11.555
61243SOL     OW85625   6.306  10.876  13.249
61243SOL    HW185626   6.293  10.877  13.154
61243SOL    HW285627   6.218  10.872  13.285
61244SOL     OW85628  14.659   1.627   8.428
61244SOL    HW185629  14.675   1.604   8.520
61244SOL    HW285630  14.678   1.721   8.423
61245SOL     OW85631  14.195  12.000  13.974
61245SOL    HW185632  14.235  11.996  14.061
61245SOL    HW285633  14.114  12.048  13.988
61246SOL     OW85634   7.233   2.341   3.945
61246SOL    HW185635   7.183   2.422   3.958
61246SOL    HW285636   7.320   2.361   3.978
61247SOL     OW85637   7.484  14.024   1.012
61247SOL    HW185638   7.569  14.040   1.054
61247SOL    HW285639   7.431  14.100   1.035
61248SOL     OW85640   8.965   8.517   1.242
61248SOL    HW185641   9.035   8.471   1.196
61248SOL    HW285642   8.904   8.448   1.268
61249SOL     OW85643   2.375  13.576   3.868
61249SOL    HW185644   2.298  13.634   3.874
61249SOL    HW285645   2.380  13.553   3.775
61250SOL     OW85646  10.848  10.970   6.663
61250SOL    HW185647  10.752  10.967   6.668
61250SOL    HW285648  10.872  10.889   6.618
61251SOL     OW85649   4.368  14.606   6.115
61251SOL    HW185650   4.440  14.545   6.099
61251SOL    HW285651   4.410  14.691   6.126
61252SOL     OW85652   5.051   6.715  12.568
61252SOL    HW185653   4.960   6.727  12.542
61252SOL    HW285654   5.093   6.798  12.546
61253SOL     OW85655   1.792   3.172   7.608
61253SOL    HW185656   1.784   3.084   7.572
61253SOL    HW285657   1.702   3.205   7.612
61254SOL     OW85658   8.836   5.653   5.874
61254SOL    HW185659   8.885   5.707   5.813
61254SOL    HW285660   8.745   5.680   5.863
61255SOL     OW85661   3.677  13.622  12.047
61255SOL    HW185662   3.679  13.530  12.022
61255SOL    HW285663   3.584  13.645  12.043
61256SOL     OW85664   5.748  14.308  13.763
61256SOL    HW185665   5.782  14.288  13.676
61256SOL    HW285666   5.825  14.340  13.811
61257SOL     OW85667  11.899   5.318   0.264
61257SOL    HW185668  11.876   5.355   0.349
61257SOL    HW285669  11.868   5.228   0.268
61258SOL     OW85670  14.748   4.315   8.792
61258SOL    HW185671  14.674   4.254   8.791
61258SOL    HW285672  14.813   4.273   8.847
61259SOL     OW85673   3.621   3.162   4.513
61259SOL    HW185674   3.649   3.201   4.596
61259SOL    HW285675   3.553   3.221   4.480
61260SOL     OW85676   1.537  13.047  10.209
61260SOL    HW185677   1.501  13.104  10.142
61260SOL    HW285678   1.461  13.000  10.244
61261SOL     OW85679  13.841   0.441   4.891
61261SOL    HW185680  13.876   0.358   4.861
61261SOL    HW285681  13.747   0.436   4.874
61262SOL     OW85682  10.961  11.896   1.076
61262SOL    HW185683  11.039  11.842   1.066
61262SOL    HW285684  10.991  11.986   1.064
61263SOL     OW85685   9.885  11.177   4.206
61263SOL    HW185686   9.907  11.181   4.112
61263SOL    HW285687   9.905  11.264   4.239
61264SOL     OW85688   2.308  14.511   8.318
61264SOL    HW185689   2.397  14.536   8.291
61264SOL    HW285690   2.268  14.592   8.349
61265SOL     OW85691   3.894  13.236  11.549
61265SOL    HW185692   3.849  13.178  11.610
61265SOL    HW285693   3.854  13.216  11.464
61266SOL     OW85694   1.684  10.247  13.341
61266SOL    HW185695   1.756  10.186  13.330
61266SOL    HW285696   1.726  10.333  13.345
61267SOL     OW85697  14.408   9.953   9.539
61267SOL    HW185698  14.413   9.924   9.630
61267SOL    HW285699  14.320   9.989   9.530
61268SOL     OW85700   8.634   9.860  12.047
61268SOL    HW185701   8.686   9.924  11.998
61268SOL    HW285702   8.662   9.775  12.012
61269SOL     OW85703   9.032   9.449  11.838
61269SOL    HW185704   9.125   9.431  11.823
61269SOL    HW285705   9.030   9.538  11.874
61270SOL     OW85706   8.908   7.825   9.869
61270SOL    HW185707   9.000   7.819   9.892
61270SOL    HW285708   8.905   7.805   9.775
61271SOL     OW85709  12.992  14.111  12.023
61271SOL    HW185710  12.981  14.172  11.950
61271SOL    HW285711  13.084  14.087  12.021
61272SOL     OW85712   1.282   4.839   7.749
61272SOL    HW185713   1.333   4.785   7.690
61272SOL    HW285714   1.322   4.926   7.744
61273SOL     OW85715  13.449   2.655  10.049
61273SOL    HW185716  13.449   2.717   9.975
61273SOL    HW285717  13.363   2.666  10.089
61274SOL     OW85718  13.283  14.074  13.839
61274SOL    HW185719  13.282  14.121  13.922
61274SOL    HW285720  13.376  14.062  13.819
61275SOL     OW85721   5.344  13.732   2.370
61275SOL    HW185722   5.308  13.814   2.405
61275SOL    HW285723   5.388  13.692   2.445
61276SOL     OW85724   7.277  12.017   2.779
61276SOL    HW185725   7.331  11.981   2.708
61276SOL    HW285726   7.319  12.100   2.801
61277SOL     OW85727   9.435  11.290   8.089
61277SOL    HW185728   9.454  11.343   8.166
61277SOL    HW285729   9.413  11.204   8.125
61278SOL     OW85730   0.012   8.187   9.900
61278SOL    HW185731  14.850   8.141   9.973
61278SOL    HW285732   0.106   8.175   9.914
61279SOL     OW85733  10.176  13.847   5.234
61279SOL    HW185734  10.123  13.892   5.169
61279SOL    HW285735  10.191  13.913   5.303
61280SOL     OW85736  13.930  14.821  12.976
61280SOL    HW185737  13.966  14.863  12.898
61280SOL    HW285738  13.890   0.013  13.026
61281SOL     OW85739  11.849   7.903   7.621
61281SOL    HW185740  11.817   7.990   7.597
61281SOL    HW285741  11.910   7.919   7.693
61282SOL     OW85742   6.248   6.570   3.100
61282SOL    HW185743   6.192   6.493   3.109
61282SOL    HW285744   6.337   6.536   3.102
61283SOL     OW85745   4.033  13.544  11.014
61283SOL    HW185746   4.010  13.624  11.060
61283SOL    HW285747   4.021  13.474  11.078
61284SOL     OW85748   1.159  13.460   3.556
61284SOL    HW185749   1.068  13.430   3.553
61284SOL    HW285750   1.180  13.462   3.649
61285SOL     OW85751   2.366   1.406  13.390
61285SOL    HW185752   2.320   1.382  13.309
61285SOL    HW285753   2.456   1.423  13.363
61286SOL     OW85754   9.937   8.425   6.025
61286SOL    HW185755   9.914   8.484   6.097
61286SOL    HW285756   9.901   8.466   5.947
61287SOL     OW85757   8.068   2.472   1.061
61287SOL    HW185758   8.144   2.521   1.028
61287SOL    HW285759   8.106   2.390   1.094
61288SOL     OW85760   8.486  14.227  13.832
61288SOL    HW185761   8.494  14.146  13.782
61288SOL    HW285762   8.485  14.199  13.923
61289SOL     OW85763   6.161  11.641   0.602
61289SOL    HW185764   6.173  11.563   0.656
61289SOL    HW285765   6.072  11.632   0.568
61290SOL     OW85766  13.370   7.696   1.041
61290SOL    HW185767  13.417   7.634   0.985
61290SOL    HW285768  13.410   7.686   1.127
61291SOL     OW85769   5.660   9.744  12.011
61291SOL    HW185770   5.636   9.675  11.949
61291SOL    HW285771   5.587   9.747  12.073
61292SOL     OW85772   9.077   3.540  11.785
61292SOL    HW185773   9.004   3.499  11.831
61292SOL    HW285774   9.052   3.633  11.780
61293SOL     OW85775   5.345   1.835  13.399
61293SOL    HW185776   5.350   1.739  13.406
61293SOL    HW285777   5.258   1.851  13.363
61294SOL     OW85778   4.728   5.690  12.308
61294SOL    HW185779   4.766   5.774  12.281
61294SOL    HW285780   4.794   5.625  12.283
61295SOL     OW85781  13.938   5.832   5.670
61295SOL    HW185782  13.987   5.904   5.709
61295SOL    HW285783  14.000   5.759   5.666
61296SOL     OW85784  13.162  13.432   1.964
61296SOL    HW185785  13.076  13.402   1.995
61296SOL    HW285786  13.144  13.517   1.925
61297SOL     OW85787   2.261  13.531  14.041
61297SOL    HW185788   2.262  13.535  14.136
61297SOL    HW285789   2.218  13.447  14.020
61298SOL     OW85790  10.831   4.900   1.500
61298SOL    HW185791  10.739   4.916   1.521
61298SOL    HW285792  10.830   4.818   1.450
61299SOL     OW85793   9.128   9.615   4.768
61299SOL    HW185794   9.085   9.662   4.839
61299SOL    HW285795   9.063   9.551   4.739
61300SOL     OW85796  13.970  13.568   9.780
61300SOL    HW185797  13.966  13.473   9.772
61300SOL    HW285798  13.971  13.585   9.874
61301SOL     OW85799  11.514  12.066   9.269
61301SOL    HW185800  11.504  12.073   9.364
61301SOL    HW285801  11.452  12.130   9.234
61302SOL     OW85802   3.215   5.546  12.448
61302SOL    HW185803   3.190   5.530  12.357
61302SOL    HW285804   3.286   5.610  12.442
61303SOL     OW85805   4.096   8.589   7.511
61303SOL    HW185806   4.068   8.556   7.597
61303SOL    HW285807   4.160   8.524   7.481
61304SOL     OW85808  11.072  14.301   7.133
61304SOL    HW185809  10.993  14.270   7.177
61304SOL    HW285810  11.066  14.396   7.135
61305SOL     OW85811   2.577   9.533   0.328
61305SOL    HW185812   2.604   9.442   0.341
61305SOL    HW285813   2.593   9.575   0.413
61306SOL     OW85814   6.600   3.922   0.434
61306SOL    HW185815   6.551   3.998   0.403
61306SOL    HW285816   6.540   3.875   0.491
61307SOL     OW85817  10.506  10.080   4.768
61307SOL    HW185818  10.581  10.136   4.748
61307SOL    HW285819  10.506  10.014   4.698
61308SOL     OW85820   2.349   3.182   7.493
61308SOL    HW185821   2.400   3.231   7.428
61308SOL    HW285822   2.297   3.248   7.538
61309SOL     OW85823   2.735  13.989   2.888
61309SOL    HW185824   2.758  14.074   2.848
61309SOL    HW285825   2.801  13.976   2.956
61310SOL     OW85826   5.669   9.164   4.772
61310SOL    HW185827   5.617   9.173   4.692
61310SOL    HW285828   5.725   9.241   4.774
61311SOL     OW85829  13.460   3.032  14.412
61311SOL    HW185830  13.497   2.945  14.403
61311SOL    HW285831  13.397   3.025  14.483
61312SOL     OW85832   7.604  10.362   4.061
61312SOL    HW185833   7.668  10.341   4.130
61312SOL    HW285834   7.595  10.457   4.064
61313SOL     OW85835   2.364  13.886   4.065
61313SOL    HW185836   2.460  13.888   4.072
61313SOL    HW285837   2.344  13.796   4.039
61314SOL     OW85838  10.724   6.657   8.187
61314SOL    HW185839  10.635   6.649   8.221
61314SOL    HW285840  10.727   6.744   8.147
61315SOL     OW85841   4.991   4.656  12.951
61315SOL    HW185842   4.935   4.588  12.987
61315SOL    HW285843   4.963   4.736  12.993
61316SOL     OW85844  11.996   8.404   0.650
61316SOL    HW185845  12.008   8.435   0.560
61316SOL    HW285846  12.085   8.396   0.685
61317SOL     OW85847   7.703  13.841   5.709
61317SOL    HW185848   7.713  13.767   5.769
61317SOL    HW285849   7.776  13.832   5.647
61318SOL     OW85850   6.333   5.678  13.429
61318SOL    HW185851   6.368   5.696  13.342
61318SOL    HW285852   6.400   5.626  13.472
61319SOL     OW85853   2.455   6.826   8.812
61319SOL    HW185854   2.454   6.832   8.716
61319SOL    HW285855   2.469   6.916   8.841
61320SOL     OW85856  10.184  10.233   6.597
61320SOL    HW185857  10.166  10.165   6.532
61320SOL    HW285858  10.113  10.296   6.587
61321SOL     OW85859   3.638   8.281   7.748
61321SOL    HW185860   3.682   8.205   7.785
61321SOL    HW285861   3.547   8.253   7.737
61322SOL     OW85862   4.955   3.001   3.901
61322SOL    HW185863   5.018   3.045   3.844
61322SOL    HW285864   4.918   3.071   3.955
61323SOL     OW85865   9.098  13.510  11.244
61323SOL    HW185866   9.010  13.488  11.276
61323SOL    HW285867   9.082  13.556  11.162
61324SOL     OW85868   7.173   0.902   6.362
61324SOL    HW185869   7.104   0.963   6.385
61324SOL    HW285870   7.250   0.958   6.345
61325SOL     OW85871   6.914   1.145   0.360
61325SOL    HW185872   6.883   1.194   0.284
61325SOL    HW285873   6.945   1.062   0.325
61326SOL     OW85874  13.864  12.706   6.057
61326SOL    HW185875  13.790  12.747   6.013
61326SOL    HW285876  13.880  12.625   6.007
61327SOL     OW85877   3.660   5.310  10.251
61327SOL    HW185878   3.601   5.365  10.200
61327SOL    HW285879   3.605   5.273  10.321
61328SOL     OW85880   0.438  12.196   5.990
61328SOL    HW185881   0.353  12.194   5.946
61328SOL    HW285882   0.420  12.168   6.080
61329SOL     OW85883   4.987   7.982  11.061
61329SOL    HW185884   4.914   7.939  11.017
61329SOL    HW285885   4.995   7.937  11.145
61330SOL     OW85886   2.034   1.766   6.988
61330SOL    HW185887   2.062   1.699   7.049
61330SOL    HW285888   2.030   1.846   7.040
61331SOL     OW85889   7.889  10.710  11.120
61331SOL    HW185890   7.897  10.796  11.079
61331SOL    HW285891   7.827  10.663  11.064
61332SOL     OW85892  14.370  13.246   9.863
61332SOL    HW185893  14.459  13.281   9.850
61332SOL    HW285894  14.384  13.155   9.889
61333SOL     OW85895   6.818   4.039   4.709
61333SOL    HW185896   6.882   4.094   4.663
61333SOL    HW285897   6.856   4.026   4.796
61334SOL     OW85898   6.205   3.850   0.017
61334SOL    HW185899   6.178   3.774  14.846
61334SOL    HW285900   6.122   3.894   0.038
61335SOL     OW85901   3.496   2.213  14.517
61335SOL    HW185902   3.513   2.119  14.513
61335SOL    HW285903   3.404   2.220  14.541
61336SOL     OW85904   6.382  13.301   7.698
61336SOL    HW185905   6.470  13.292   7.660
61336SOL    HW285906   6.375  13.394   7.720
61337SOL     OW85907   5.008   9.158   7.425
61337SOL    HW185908   4.982   9.114   7.506
61337SOL    HW285909   4.941   9.132   7.361
61338SOL     OW85910   9.593  10.599   2.117
61338SOL    HW185911   9.512  10.599   2.168
61338SOL    HW285912   9.646  10.669   2.156
61339SOL     OW85913   4.128   1.513   1.096
61339SOL    HW185914   4.041   1.551   1.106
61339SOL    HW285915   4.114   1.434   1.044
61340SOL     OW85916  13.673   3.817  13.465
61340SOL    HW185917  13.758   3.776  13.455
61340SOL    HW285918  13.610   3.751  13.435
61341SOL     OW85919   7.335  13.342   3.324
61341SOL    HW185920   7.417  13.391   3.313
61341SOL    HW285921   7.318  13.345   3.418
61342SOL     OW85922  13.392   4.030   6.467
61342SOL    HW185923  13.479   4.022   6.507
61342SOL    HW285924  13.351   3.945   6.480
61343SOL     OW85925  13.747  10.388   4.128
61343SOL    HW185926  13.709  10.383   4.216
61343SOL    HW285927  13.774  10.298   4.109
61344SOL     OW85928   4.537  11.185   6.378
61344SOL    HW185929   4.521  11.250   6.446
61344SOL    HW285930   4.462  11.192   6.320
61345SOL     OW85931   8.520  10.221   2.049
61345SOL    HW185932   8.576  10.167   2.106
61345SOL    HW285933   8.534  10.310   2.079
61346SOL     OW85934   6.860   0.332   2.546
61346SOL    HW185935   6.817   0.246   2.550
61346SOL    HW285936   6.830   0.370   2.464
61347SOL     OW85937   7.473  11.148   0.942
61347SOL    HW185938   7.386  11.168   0.908
61347SOL    HW285939   7.460  11.133   1.036
61348SOL     OW85940  14.409   3.319   3.478
61348SOL    HW185941  14.322   3.355   3.465
61348SOL    HW285942  14.444   3.365   3.554
61349SOL     OW85943   7.954   2.903   4.272
61349SOL    HW185944   8.002   2.838   4.220
61349SOL    HW285945   7.980   2.987   4.235
61350SOL     OW85946   8.732   2.767   9.283
61350SOL    HW185947   8.775   2.820   9.217
61350SOL    HW285948   8.685   2.699   9.234
61351SOL     OW85949   3.888   9.434  11.448
61351SOL    HW185950   3.816   9.373  11.433
61351SOL    HW285951   3.944   9.424  11.371
61352SOL     OW85952   5.550  14.830   1.536
61352SOL    HW185953   5.540  14.755   1.595
61352SOL    HW285954   5.644  14.833   1.517
61353SOL     OW85955   9.011  14.697   2.111
61353SOL    HW185956   9.023  14.783   2.151
61353SOL    HW285957   9.006  14.637   2.184
61354SOL     OW85958   4.377   4.155   6.063
61354SOL    HW185959   4.288   4.120   6.061
61354SOL    HW285960   4.432   4.078   6.077
61355SOL     OW85961   7.130   0.808  13.018
61355SOL    HW185962   7.130   0.899  12.989
61355SOL    HW285963   7.091   0.759  12.945
61356SOL     OW85964   9.580   2.897  12.177
61356SOL    HW185965   9.586   2.810  12.216
61356SOL    HW285966   9.499   2.934  12.213
61357SOL     OW85967  14.449  11.255   4.756
61357SOL    HW185968  14.525  11.292   4.800
61357SOL    HW285969  14.410  11.195   4.820
61358SOL     OW85970   7.631   5.907  10.883
61358SOL    HW185971   7.585   5.849  10.822
61358SOL    HW285972   7.701   5.946  10.831
61359SOL     OW85973  12.778   6.691  12.123
61359SOL    HW185974  12.822   6.714  12.041
61359SOL    HW285975  12.836   6.726  12.191
61360SOL     OW85976  10.253   0.253   3.452
61360SOL    HW185977  10.170   0.299   3.459
61360SOL    HW285978  10.319   0.320   3.470
61361SOL     OW85979  13.322   9.606   5.901
61361SOL    HW185980  13.382   9.666   5.858
61361SOL    HW285981  13.375   9.528   5.920
61362SOL     OW85982   6.314  10.860   8.826
61362SOL    HW185983   6.318  10.955   8.841
61362SOL    HW285984   6.388  10.825   8.876
61363SOL     OW85985   4.554   2.025  10.539
61363SOL    HW185986   4.483   1.972  10.504
61363SOL    HW285987   4.544   2.110  10.497
61364SOL     OW85988   5.862  10.726  11.689
61364SOL    HW185989   5.945  10.772  11.698
61364SOL    HW285990   5.885  10.633  11.695
61365SOL     OW85991  12.378  13.149   0.160
61365SOL    HW185992  12.312  13.100   0.112
61365SOL    HW285993  12.439  13.082   0.192
61366SOL     OW85994   9.464  11.008   7.664
61366SOL    HW185995   9.533  11.012   7.598
61366SOL    HW285996   9.510  11.017   7.747
61367SOL     OW85997   8.612  13.249   5.466
61367SOL    HW185998   8.665  13.328   5.456
61367SOL    HW285999   8.672  13.178   5.442
61368SOL     OW86000   2.416  12.526  10.209
61368SOL    HW186001   2.502  12.486  10.219
61368SOL    HW286002   2.378  12.482  10.132
61369SOL     OW86003  10.871   3.179  12.754
61369SOL    HW186004  10.932   3.204  12.684
61369SOL    HW286005  10.837   3.262  12.787
61370SOL     OW86006   8.798   8.170  13.735
61370SOL    HW186007   8.754   8.224  13.669
61370SOL    HW286008   8.825   8.232  13.802
61371SOL     OW86009   0.421   8.053   7.235
61371SOL    HW186010   0.427   7.971   7.186
61371SOL    HW286011   0.475   8.039   7.313
61372SOL     OW86012   1.940  13.704   0.605
61372SOL    HW186013   1.997  13.645   0.556
61372SOL    HW286014   1.989  13.724   0.685
61373SOL     OW86015   8.107   5.466  10.621
61373SOL    HW186016   8.021   5.505  10.639
61373SOL    HW286017   8.120   5.478  10.527
61374SOL     OW86018  14.137   0.665  13.962
61374SOL    HW186019  14.045   0.654  13.988
61374SOL    HW286020  14.168   0.576  13.946
61375SOL     OW86021   8.443   3.288   8.405
61375SOL    HW186022   8.436   3.258   8.314
61375SOL    HW286023   8.431   3.209   8.458
61376SOL     OW86024  12.006   1.246  10.061
61376SOL    HW186025  11.989   1.172  10.003
61376SOL    HW286026  11.922   1.290  10.069
61377SOL     OW86027   5.588   6.916   3.022
61377SOL    HW186028   5.615   6.992   2.970
61377SOL    HW286029   5.611   6.840   2.969
61378SOL     OW86030   6.875  11.896   2.638
61378SOL    HW186031   6.808  11.859   2.695
61378SOL    HW286032   6.952  11.840   2.652
61379SOL     OW86033  10.732   6.681   5.018
61379SOL    HW186034  10.801   6.711   5.078
61379SOL    HW286035  10.775   6.673   4.933
61380SOL     OW86036   0.807   9.491   9.594
61380SOL    HW186037   0.827   9.585   9.595
61380SOL    HW286038   0.731   9.483   9.536
61381SOL     OW86039  13.998   1.274   3.773
61381SOL    HW186040  14.004   1.235   3.861
61381SOL    HW286041  14.011   1.368   3.787
61382SOL     OW86042   7.060   9.551   4.626
61382SOL    HW186043   7.116   9.492   4.576
61382SOL    HW286044   7.031   9.499   4.701
61383SOL     OW86045   2.466   8.010  14.638
61383SOL    HW186046   2.436   7.920  14.624
61383SOL    HW286047   2.420   8.062  14.572
61384SOL     OW86048   8.241  12.787  14.236
61384SOL    HW186049   8.234  12.711  14.294
61384SOL    HW286050   8.214  12.755  14.150
61385SOL     OW86051   2.213   7.275  14.812
61385SOL    HW186052   2.172   7.216  14.875
61385SOL    HW286053   2.182   7.244  14.727
61386SOL     OW86054   9.375   9.359   0.161
61386SOL    HW186055   9.442   9.359   0.093
61386SOL    HW286056   9.420   9.325   0.239
61387SOL     OW86057  12.642   6.019   0.428
61387SOL    HW186058  12.719   6.028   0.485
61387SOL    HW286059  12.677   5.983   0.347
61388SOL     OW86060   7.198  12.627   0.863
61388SOL    HW186061   7.105  12.640   0.883
61388SOL    HW286062   7.214  12.534   0.883
61389SOL     OW86063   2.547   4.751  13.717
61389SOL    HW186064   2.615   4.813  13.690
61389SOL    HW286065   2.540   4.690  13.644
61390SOL     OW86066   7.156  10.216   0.279
61390SOL    HW186067   7.187  10.305   0.291
61390SOL    HW286068   7.084  10.224   0.216
61391SOL     OW86069   2.368   7.797   1.241
61391SOL    HW186070   2.377   7.747   1.159
61391SOL    HW286071   2.297   7.858   1.224
61392SOL     OW86072   3.072   5.661  13.646
61392SOL    HW186073   2.986   5.656  13.604
61392SOL    HW286074   3.054   5.657  13.739
61393SOL     OW86075   9.447   4.847   3.248
61393SOL    HW186076   9.538   4.866   3.269
61393SOL    HW286077   9.397   4.884   3.321
61394SOL     OW86078  10.430   0.404   5.840
61394SOL    HW186079  10.477   0.325   5.814
61394SOL    HW286080  10.403   0.444   5.758
61395SOL     OW86081   3.984   6.538   6.017
61395SOL    HW186082   3.934   6.590   6.080
61395SOL    HW286083   3.924   6.470   5.987
61396SOL     OW86084   2.532  12.587  13.747
61396SOL    HW186085   2.608  12.630  13.784
61396SOL    HW286086   2.548  12.493  13.760
61397SOL     OW86087   5.384  11.868   4.019
61397SOL    HW186088   5.388  11.903   3.930
61397SOL    HW286089   5.314  11.803   4.015
61398SOL     OW86090   5.105   9.548   2.928
61398SOL    HW186091   5.100   9.562   3.022
61398SOL    HW286092   5.046   9.474   2.912
61399SOL     OW86093  13.396   7.069   5.312
61399SOL    HW186094  13.317   7.040   5.265
61399SOL    HW286095  13.468   7.042   5.255
61400SOL     OW86096   0.779   8.161   1.066
61400SOL    HW186097   0.759   8.102   0.994
61400SOL    HW286098   0.735   8.121   1.142
61401SOL     OW86099   2.681   7.249   4.264
61401SOL    HW186100   2.669   7.343   4.278
61401SOL    HW286101   2.596   7.218   4.233
61402SOL     OW86102   5.672  13.379  11.069
61402SOL    HW186103   5.617  13.457  11.073
61402SOL    HW286104   5.631  13.324  11.001
61403SOL     OW86105   9.828   9.284  10.598
61403SOL    HW186106   9.810   9.368  10.554
61403SOL    HW286107   9.915   9.260  10.568
61404SOL     OW86108   5.988   9.441  10.795
61404SOL    HW186109   5.989   9.374  10.726
61404SOL    HW286110   6.007   9.523  10.749
61405SOL     OW86111   6.051   7.284   6.816
61405SOL    HW186112   5.978   7.238   6.774
61405SOL    HW286113   6.129   7.248   6.774
61406SOL     OW86114   5.305   2.781   1.445
61406SOL    HW186115   5.345   2.695   1.429
61406SOL    HW286116   5.379   2.838   1.465
61407SOL     OW86117  14.383   6.445   8.415
61407SOL    HW186118  14.339   6.515   8.464
61407SOL    HW286119  14.434   6.399   8.481
61408SOL     OW86120   6.493   8.459   4.450
61408SOL    HW186121   6.485   8.377   4.499
61408SOL    HW286122   6.525   8.522   4.514
61409SOL     OW86123   3.615   6.799  12.298
61409SOL    HW186124   3.555   6.863  12.261
61409SOL    HW286125   3.650   6.752  12.223
61410SOL     OW86126   9.059   2.677   2.716
61410SOL    HW186127   9.148   2.707   2.699
61410SOL    HW286128   9.069   2.588   2.749
61411SOL     OW86129   4.106   6.744  10.113
61411SOL    HW186130   4.195   6.774  10.131
61411SOL    HW286131   4.118   6.666  10.058
61412SOL     OW86132   5.760   2.773   3.257
61412SOL    HW186133   5.764   2.698   3.317
61412SOL    HW286134   5.676   2.763   3.212
61413SOL     OW86135   6.862   8.712   4.220
61413SOL    HW186136   6.860   8.657   4.141
61413SOL    HW286137   6.833   8.654   4.290
61414SOL     OW86138   0.021  10.548  13.698
61414SOL    HW186139  14.871  10.566  13.608
61414SOL    HW286140   0.114  10.528  13.689
61415SOL     OW86141  13.727   3.536  13.385
61415SOL    HW186142  13.781   3.577  13.317
61415SOL    HW286143  13.786   3.528  13.460
61416SOL     OW86144  10.746   9.874   7.610
61416SOL    HW186145  10.822   9.911   7.565
61416SOL    HW286146  10.697   9.950   7.642
61417SOL     OW86147  13.333  10.321   3.677
61417SOL    HW186148  13.391  10.351   3.608
61417SOL    HW286149  13.311  10.401   3.726
61418SOL     OW86150   4.594   0.521  11.160
61418SOL    HW186151   4.617   0.596  11.215
61418SOL    HW286152   4.539   0.467  11.216
61419SOL     OW86153   7.104   5.298   9.222
61419SOL    HW186154   7.022   5.250   9.211
61419SOL    HW286155   7.122   5.335   9.136
61420SOL     OW86156   7.919   1.775   4.992
61420SOL    HW186157   7.860   1.706   5.021
61420SOL    HW286158   7.987   1.728   4.942
61421SOL     OW86159   0.730  11.375   7.514
61421SOL    HW186160   0.667  11.306   7.533
61421SOL    HW286161   0.814  11.330   7.507
61422SOL     OW86162   0.798   1.236   4.079
61422SOL    HW186163   0.706   1.255   4.101
61422SOL    HW286164   0.795   1.205   3.989
61423SOL     OW86165  11.693   1.638   6.909
61423SOL    HW186166  11.605   1.620   6.875
61423SOL    HW286167  11.745   1.564   6.880
61424SOL     OW86168  12.817   2.590   8.522
61424SOL    HW186169  12.903   2.549   8.538
61424SOL    HW286170  12.816   2.666   8.580
61425SOL     OW86171  11.592   3.554   9.628
61425SOL    HW186172  11.563   3.463   9.629
61425SOL    HW286173  11.520   3.603   9.667
61426SOL     OW86174  14.783   4.602   6.292
61426SOL    HW186175  14.727   4.680   6.287
61426SOL    HW286176  14.853   4.626   6.353
61427SOL     OW86177   3.839   1.396   0.103
61427SOL    HW186178   3.755   1.353   0.086
61427SOL    HW286179   3.856   1.447   0.024
61428SOL     OW86180  10.946   4.906   0.683
61428SOL    HW186181  10.893   4.829   0.702
61428SOL    HW286182  11.011   4.876   0.619
61429SOL     OW86183   3.405   0.244  14.747
61429SOL    HW186184   3.323   0.207  14.779
61429SOL    HW286185   3.461   0.248  14.824
61430SOL     OW86186  11.915   4.654   8.858
61430SOL    HW186187  11.999   4.625   8.823
61430SOL    HW286188  11.863   4.574   8.864
61431SOL     OW86189   0.348   0.822   0.888
61431SOL    HW186190   0.263   0.863   0.874
61431SOL    HW286191   0.404   0.860   0.820
61432SOL     OW86192   6.984   2.185   6.584
61432SOL    HW186193   6.888   2.192   6.587
61432SOL    HW286194   7.008   2.217   6.497
61433SOL     OW86195   2.351   4.703   7.571
61433SOL    HW186196   2.445   4.717   7.563
61433SOL    HW286197   2.323   4.765   7.639
61434SOL     OW86198  11.621   2.205   9.206
61434SOL    HW186199  11.693   2.154   9.169
61434SOL    HW286200  11.663   2.265   9.267
61435SOL     OW86201   7.820   7.794  10.046
61435SOL    HW186202   7.911   7.816  10.027
61435SOL    HW286203   7.806   7.711  10.000
61436SOL     OW86204  10.725  14.166  13.069
61436SOL    HW186205  10.632  14.185  13.078
61436SOL    HW286206  10.729  14.070  13.060
61437SOL     OW86207   5.659   1.086  14.766
61437SOL    HW186208   5.633   1.058  14.678
61437SOL    HW286209   5.644   1.180  14.767
61438SOL     OW86210   5.626   8.669   1.864
61438SOL    HW186211   5.700   8.627   1.821
61438SOL    HW286212   5.608   8.614   1.941
61439SOL     OW86213   3.511  10.857   8.045
61439SOL    HW186214   3.606  10.861   8.030
61439SOL    HW286215   3.500  10.788   8.111
61440SOL     OW86216  12.051   5.283  14.479
61440SOL    HW186217  12.087   5.364  14.515
61440SOL    HW286218  11.966   5.308  14.442
61441SOL     OW86219  13.881  13.764  13.563
61441SOL    HW186220  13.919  13.849  13.539
61441SOL    HW286221  13.826  13.742  13.488
61442SOL     OW86222  11.296   4.215  11.838
61442SOL    HW186223  11.275   4.135  11.789
61442SOL    HW286224  11.383   4.240  11.807
61443SOL     OW86225   2.364   0.072  11.450
61443SOL    HW186226   2.414   0.153  11.459
61443SOL    HW286227   2.297   0.092  11.385
61444SOL     OW86228   7.709  12.703   1.715
61444SOL    HW186229   7.694  12.612   1.742
61444SOL    HW286230   7.633  12.750   1.749
61445SOL     OW86231   5.971   8.522  11.712
61445SOL    HW186232   5.960   8.427  11.713
61445SOL    HW286233   5.954   8.547  11.622
61446SOL     OW86234   7.931   3.552   5.058
61446SOL    HW186235   7.853   3.499   5.046
61446SOL    HW286236   7.992   3.522   4.990
61447SOL     OW86237  10.403  11.597  10.312
61447SOL    HW186238  10.421  11.535  10.242
61447SOL    HW286239  10.311  11.620  10.300
61448SOL     OW86240  14.426   1.942   9.150
61448SOL    HW186241  14.494   1.879   9.126
61448SOL    HW286242  14.445   1.964   9.242
61449SOL     OW86243  12.561   3.507   9.758
61449SOL    HW186244  12.597   3.419   9.768
61449SOL    HW286245  12.619   3.562   9.811
61450SOL     OW86246   9.652   7.662  12.261
61450SOL    HW186247   9.680   7.580  12.301
61450SOL    HW286248   9.728   7.720  12.268
61451SOL     OW86249  11.206   0.913   1.932
61451SOL    HW186250  11.219   0.917   1.837
61451SOL    HW286251  11.204   1.004   1.960
61452SOL     OW86252   6.279   6.035  10.830
61452SOL    HW186253   6.309   5.946  10.846
61452SOL    HW286254   6.357   6.083  10.803
61453SOL     OW86255   2.597   8.387  13.044
61453SOL    HW186256   2.593   8.296  13.074
61453SOL    HW286257   2.657   8.430  13.105
61454SOL     OW86258   7.707   2.772  10.902
61454SOL    HW186259   7.794   2.739  10.879
61454SOL    HW286260   7.647   2.713  10.858
61455SOL     OW86261  10.776   7.995   2.189
61455SOL    HW186262  10.708   7.939   2.152
61455SOL    HW286263  10.854   7.974   2.138
61456SOL     OW86264   9.428   4.408   6.612
61456SOL    HW186265   9.458   4.450   6.531
61456SOL    HW286266   9.473   4.455   6.682
61457SOL     OW86267  14.120   3.550   9.066
61457SOL    HW186268  14.213   3.574   9.061
61457SOL    HW286269  14.118   3.458   9.041
61458SOL     OW86270  12.300  13.916   9.229
61458SOL    HW186271  12.350  13.870   9.161
61458SOL    HW286272  12.262  13.845   9.282
61459SOL     OW86273   6.117   5.000   6.428
61459SOL    HW186274   6.110   5.030   6.337
61459SOL    HW286275   6.094   5.077   6.480
61460SOL     OW86276   6.342  11.798  11.787
61460SOL    HW186277   6.364  11.849  11.710
61460SOL    HW286278   6.389  11.840  11.859
61461SOL     OW86279   0.477   1.632  11.662
61461SOL    HW186280   0.533   1.604  11.734
61461SOL    HW286281   0.531   1.696  11.614
61462SOL     OW86282   0.409   6.268   8.942
61462SOL    HW186283   0.413   6.330   8.869
61462SOL    HW286284   0.487   6.213   8.932
61463SOL     OW86285  13.642   6.374  12.309
61463SOL    HW186286  13.606   6.379  12.221
61463SOL    HW286287  13.712   6.439  12.311
61464SOL     OW86288   9.444  12.801  14.383
61464SOL    HW186289   9.440  12.894  14.406
61464SOL    HW286290   9.366  12.764  14.424
61465SOL     OW86291  12.081   4.135   8.235
61465SOL    HW186292  12.050   4.062   8.288
61465SOL    HW286293  12.173   4.146   8.260
61466SOL     OW86294   0.435   7.636  14.339
61466SOL    HW186295   0.378   7.684  14.279
61466SOL    HW286296   0.374   7.591  14.398
61467SOL     OW86297  11.578   0.304   9.128
61467SOL    HW186298  11.485   0.310   9.148
61467SOL    HW286299  11.591   0.214   9.098
61468SOL     OW86300   3.046  12.014   1.434
61468SOL    HW186301   3.020  12.007   1.526
61468SOL    HW286302   2.993  11.947   1.389
61469SOL     OW86303   8.982   9.811   3.941
61469SOL    HW186304   9.069   9.792   3.975
61469SOL    HW286305   8.952   9.728   3.905
61470SOL     OW86306   7.298   8.093   8.183
61470SOL    HW186307   7.291   7.999   8.196
61470SOL    HW286308   7.227   8.131   8.233
61471SOL     OW86309  14.826   0.531  10.787
61471SOL    HW186310  14.840   0.621  10.756
61471SOL    HW286311   0.025   0.484  10.759
61472SOL     OW86312   7.318   9.657   0.215
61472SOL    HW186313   7.271   9.651   0.132
61472SOL    HW286314   7.376   9.581   0.216
61473SOL     OW86315   7.758  12.320  11.722
61473SOL    HW186316   7.739  12.269  11.801
61473SOL    HW286317   7.671  12.345  11.689
61474SOL     OW86318  12.373   2.266   3.711
61474SOL    HW186319  12.362   2.354   3.746
61474SOL    HW286320  12.285   2.228   3.713
61475SOL     OW86321   2.595  13.434  10.578
61475SOL    HW186322   2.554  13.520  10.583
61475SOL    HW286323   2.685  13.449  10.606
61476SOL     OW86324  13.374   9.166   7.626
61476SOL    HW186325  13.377   9.221   7.703
61476SOL    HW286326  13.435   9.207   7.564
61477SOL     OW86327  12.660   6.651   2.200
61477SOL    HW186328  12.568   6.665   2.180
61477SOL    HW286329  12.696   6.739   2.210
61478SOL     OW86330  11.301  10.382  14.190
61478SOL    HW186331  11.303  10.288  14.172
61478SOL    HW286332  11.368  10.419  14.132
61479SOL     OW86333   5.605   6.322  14.193
61479SOL    HW186334   5.695   6.292  14.208
61479SOL    HW286335   5.613   6.386  14.123
61480SOL     OW86336   1.960  12.648   1.075
61480SOL    HW186337   1.962  12.744   1.077
61480SOL    HW286338   1.981  12.626   0.984
61481SOL     OW86339   0.676  13.539   5.304
61481SOL    HW186340   0.611  13.506   5.242
61481SOL    HW286341   0.625  13.589   5.368
61482SOL     OW86342  11.670   1.597   5.780
61482SOL    HW186343  11.591   1.549   5.754
61482SOL    HW286344  11.704   1.547   5.854
61483SOL     OW86345   4.384   1.178   8.945
61483SOL    HW186346   4.337   1.211   8.868
61483SOL    HW286347   4.469   1.222   8.942
61484SOL     OW86348   3.334  14.011  11.014
61484SOL    HW186349   3.323  14.030  11.107
61484SOL    HW286350   3.427  13.992  11.004
61485SOL     OW86351   5.256   1.797  12.014
61485SOL    HW186352   5.287   1.787  11.925
61485SOL    HW286353   5.260   1.891  12.031
61486SOL     OW86354   3.028  11.230   0.946
61486SOL    HW186355   2.932  11.229   0.950
61486SOL    HW286356   3.049  11.305   0.890
61487SOL     OW86357   1.378   8.657   8.273
61487SOL    HW186358   1.395   8.571   8.311
61487SOL    HW286359   1.363   8.641   8.180
61488SOL     OW86360  13.642  12.122  11.349
61488SOL    HW186361  13.674  12.079  11.428
61488SOL    HW286362  13.693  12.083  11.278
61489SOL     OW86363   0.845   3.880   0.796
61489SOL    HW186364   0.885   3.925   0.871
61489SOL    HW286365   0.904   3.807   0.778
61490SOL     OW86366   6.558  10.232   2.297
61490SOL    HW186367   6.496  10.170   2.258
61490SOL    HW286368   6.538  10.230   2.391
61491SOL     OW86369  12.911   8.377  13.057
61491SOL    HW186370  12.918   8.315  12.985
61491SOL    HW286371  12.824   8.416  13.047
61492SOL     OW86372  11.727   0.405   3.843
61492SOL    HW186373  11.772   0.449   3.915
61492SOL    HW286374  11.781   0.423   3.766
61493SOL     OW86375  12.574   7.683   4.898
61493SOL    HW186376  12.609   7.598   4.872
61493SOL    HW286377  12.498   7.661   4.952
61494SOL     OW86378   1.775   7.749   3.043
61494SOL    HW186379   1.712   7.774   2.976
61494SOL    HW286380   1.857   7.791   3.016
61495SOL     OW86381   1.829   6.139  11.271
61495SOL    HW186382   1.749   6.152  11.322
61495SOL    HW286383   1.873   6.224  11.273
61496SOL     OW86384   5.177   2.891  12.389
61496SOL    HW186385   5.164   2.985  12.373
61496SOL    HW286386   5.265   2.885  12.428
61497SOL     OW86387   4.142   0.604   7.992
61497SOL    HW186388   4.207   0.546   8.030
61497SOL    HW286389   4.182   0.634   7.910
61498SOL     OW86390   8.962  13.189  10.074
61498SOL    HW186391   8.871  13.175  10.049
61498SOL    HW286392   8.962  13.273  10.120
61499SOL     OW86393   4.877  11.022   1.012
61499SOL    HW186394   4.860  10.929   1.029
61499SOL    HW286395   4.791  11.059   0.992
61500SOL     OW86396  10.921   0.879   8.455
61500SOL    HW186397  10.893   0.947   8.395
61500SOL    HW286398  10.919   0.798   8.404
61501SOL     OW86399   3.251   9.795   9.390
61501SOL    HW186400   3.339   9.821   9.364
61501SOL    HW286401   3.263   9.716   9.442
61502SOL     OW86402   9.345   6.054   7.984
61502SOL    HW186403   9.380   6.141   7.968
61502SOL    HW286404   9.371   6.034   8.074
61503SOL     OW86405   8.950   6.952   9.133
61503SOL    HW186406   8.897   7.018   9.088
61503SOL    HW286407   9.022   6.935   9.073
61504SOL     OW86408   9.190   3.924   6.944
61504SOL    HW186409   9.267   3.978   6.925
61504SOL    HW286410   9.131   3.982   6.993
61505SOL     OW86411  12.897   1.273  13.041
61505SOL    HW186412  12.851   1.319  13.112
61505SOL    HW286413  12.909   1.184  13.074
61506SOL     OW86414   2.153   2.878  14.776
61506SOL    HW186415   2.193   2.871  14.689
61506SOL    HW286416   2.209   2.823  14.832
61507SOL     OW86417   3.445  12.947  14.383
61507SOL    HW186418   3.521  12.896  14.355
61507SOL    HW286419   3.372  12.886  14.377
61508SOL     OW86420   7.285  11.869   9.511
61508SOL    HW186421   7.261  11.778   9.528
61508SOL    HW286422   7.250  11.918   9.586
61509SOL     OW86423   8.027  14.498  14.577
61509SOL    HW186424   8.066  14.468  14.495
61509SOL    HW286425   8.071  14.447  14.645
61510SOL     OW86426   3.489  11.841   9.862
61510SOL    HW186427   3.540  11.896   9.922
61510SOL    HW286428   3.503  11.881   9.776
61511SOL     OW86429   7.330   4.811  12.240
61511SOL    HW186430   7.307   4.893  12.197
61511SOL    HW286431   7.257   4.752  12.220
61512SOL     OW86432   8.100   3.268   5.745
61512SOL    HW186433   8.075   3.216   5.821
61512SOL    HW286434   8.083   3.358   5.771
61513SOL     OW86435   9.892   4.240  12.239
61513SOL    HW186436   9.873   4.334  12.236
61513SOL    HW286437   9.815   4.201  12.281
61514SOL     OW86438  13.883   3.386  10.121
61514SOL    HW186439  13.895   3.294  10.097
61514SOL    HW286440  13.968   3.427  10.104
61515SOL     OW86441  13.302  12.920  10.213
61515SOL    HW186442  13.336  12.993  10.265
61515SOL    HW286443  13.257  12.962  10.140
61516SOL     OW86444  14.209   0.148   2.145
61516SOL    HW186445  14.127   0.172   2.189
61516SOL    HW286446  14.182   0.122   2.057
61517SOL     OW86447   4.154   3.561   4.136
61517SOL    HW186448   4.090   3.605   4.192
61517SOL    HW286449   4.236   3.564   4.185
61518SOL     OW86450   5.120   2.863   8.117
61518SOL    HW186451   5.124   2.821   8.031
61518SOL    HW286452   5.159   2.949   8.105
61519SOL     OW86453   3.475   0.473  13.288
61519SOL    HW186454   3.468   0.430  13.203
61519SOL    HW286455   3.547   0.535  13.278
61520SOL     OW86456   4.626   9.683   6.204
61520SOL    HW186457   4.629   9.684   6.299
61520SOL    HW286458   4.593   9.595   6.182
61521SOL     OW86459  12.768  14.369  14.783
61521SOL    HW186460  12.743  14.451  14.740
61521SOL    HW286461  12.838  14.333  14.729
61522SOL     OW86462   9.442   3.748   7.481
61522SOL    HW186463   9.441   3.772   7.388
61522SOL    HW286464   9.534   3.754   7.507
61523SOL     OW86465  13.607  10.971  13.910
61523SOL    HW186466  13.659  10.904  13.955
61523SOL    HW286467  13.520  10.963  13.949
61524SOL     OW86468   5.365   2.438   5.677
61524SOL    HW186469   5.401   2.393   5.600
61524SOL    HW286470   5.409   2.397   5.752
61525SOL     OW86471  10.562   6.028   9.099
61525SOL    HW186472  10.633   6.087   9.123
61525SOL    HW286473  10.570   6.018   9.004
61526SOL     OW86474   9.527   1.693  13.505
61526SOL    HW186475   9.621   1.709  13.516
61526SOL    HW286476   9.496   1.666  13.591
61527SOL     OW86477  10.721  10.020   7.320
61527SOL    HW186478  10.758   9.956   7.260
61527SOL    HW286479  10.641  10.050   7.277
61528SOL     OW86480   0.255  13.099   1.832
61528SOL    HW186481   0.160  13.087   1.841
61528SOL    HW286482   0.278  13.045   1.756
61529SOL     OW86483   5.084   4.094   0.657
61529SOL    HW186484   5.161   4.095   0.599
61529SOL    HW286485   5.010   4.099   0.597
61530SOL     OW86486   2.969   5.160  12.755
61530SOL    HW186487   3.048   5.185  12.707
61530SOL    HW286488   2.927   5.243  12.778
61531SOL     OW86489  13.026   0.278  10.698
61531SOL    HW186490  13.113   0.267  10.737
61531SOL    HW286491  13.029   0.227  10.617
61532SOL     OW86492   7.867   4.385  10.567
61532SOL    HW186493   7.869   4.410  10.474
61532SOL    HW286494   7.902   4.296  10.569
61533SOL     OW86495   8.546   1.868  10.749
61533SOL    HW186496   8.458   1.900  10.769
61533SOL    HW286497   8.588   1.941  10.703
61534SOL     OW86498   3.476  13.518   2.473
61534SOL    HW186499   3.458  13.448   2.536
61534SOL    HW286500   3.443  13.484   2.389
61535SOL     OW86501  13.616   2.465   2.301
61535SOL    HW186502  13.558   2.464   2.378
61535SOL    HW286503  13.671   2.387   2.312
61536SOL     OW86504   8.144   3.255   6.941
61536SOL    HW186505   8.122   3.221   7.028
61536SOL    HW286506   8.236   3.278   6.947
61537SOL     OW86507   5.433   5.788   1.533
61537SOL    HW186508   5.466   5.878   1.533
61537SOL    HW286509   5.459   5.753   1.618
61538SOL     OW86510  11.281   9.154  11.574
61538SOL    HW186511  11.303   9.244  11.549
61538SOL    HW286512  11.366   9.111  11.583
61539SOL     OW86513   7.313   7.240   8.512
61539SOL    HW186514   7.248   7.172   8.525
61539SOL    HW286515   7.281   7.290   8.438
61540SOL     OW86516   1.577   9.681   4.370
61540SOL    HW186517   1.662   9.714   4.402
61540SOL    HW286518   1.563   9.600   4.419
61541SOL     OW86519   0.271  13.751  13.585
61541SOL    HW186520   0.342  13.703  13.629
61541SOL    HW286521   0.316  13.813  13.529
61542SOL     OW86522   7.370   9.667   2.065
61542SOL    HW186523   7.439   9.702   2.009
61542SOL    HW286524   7.386   9.572   2.066
61543SOL     OW86525   1.824   8.957   6.789
61543SOL    HW186526   1.793   9.035   6.742
61543SOL    HW286527   1.863   8.992   6.869
61544SOL     OW86528   2.408   0.457   4.131
61544SOL    HW186529   2.445   0.540   4.103
61544SOL    HW286530   2.317   0.460   4.102
61545SOL     OW86531  12.934  11.082  12.573
61545SOL    HW186532  12.872  11.018  12.608
61545SOL    HW286533  13.006  11.084  12.636
61546SOL     OW86534  13.342  14.038   7.460
61546SOL    HW186535  13.395  14.015   7.536
61546SOL    HW286536  13.404  14.075   7.397
61547SOL     OW86537  12.067   4.827   6.830
61547SOL    HW186538  12.150   4.869   6.808
61547SOL    HW286539  12.041   4.783   6.749
61548SOL     OW86540   8.327   8.122  10.644
61548SOL    HW186541   8.401   8.085  10.595
61548SOL    HW286542   8.329   8.215  10.624
61549SOL     OW86543   2.155   7.212  12.634
61549SOL    HW186544   2.158   7.278  12.703
61549SOL    HW286545   2.121   7.259  12.558
61550SOL     OW86546  12.284  13.959   5.938
61550SOL    HW186547  12.246  13.958   5.851
61550SOL    HW286548  12.375  13.931   5.925
61551SOL     OW86549  14.709  11.483   5.734
61551SOL    HW186550  14.782  11.503   5.792
61551SOL    HW286551  14.715  11.389   5.719
61552SOL     OW86552   8.532   3.281   0.696
61552SOL    HW186553   8.522   3.188   0.711
61552SOL    HW286554   8.450   3.309   0.657
61553SOL     OW86555  14.073   3.450   2.736
61553SOL    HW186556  14.101   3.479   2.649
61553SOL    HW286557  14.074   3.355   2.731
61554SOL     OW86558   3.511   1.134   2.883
61554SOL    HW186559   3.431   1.145   2.832
61554SOL    HW286560   3.545   1.048   2.855
61555SOL     OW86561  14.874   9.157  10.772
61555SOL    HW186562   0.065   9.162  10.836
61555SOL    HW286563  14.794   9.152  10.825
61556SOL     OW86564   5.397   3.447   9.194
61556SOL    HW186565   5.305   3.454   9.168
61556SOL    HW286566   5.394   3.425   9.287
61557SOL     OW86567   3.481   5.642  12.403
61557SOL    HW186568   3.556   5.629  12.461
61557SOL    HW286569   3.469   5.557  12.360
61558SOL     OW86570   9.845   3.491   5.837
61558SOL    HW186571   9.816   3.576   5.804
61558SOL    HW286572   9.912   3.463   5.775
61559SOL     OW86573   8.031   3.474   9.502
61559SOL    HW186574   7.987   3.558   9.514
61559SOL    HW286575   8.123   3.492   9.523
61560SOL     OW86576   9.296   3.351   2.081
61560SOL    HW186577   9.267   3.273   2.035
61560SOL    HW286578   9.270   3.336   2.172
61561SOL     OW86579  13.661   4.414   2.495
61561SOL    HW186580  13.622   4.435   2.580
61561SOL    HW286581  13.754   4.437   2.506
61562SOL     OW86582   0.789  12.926  11.956
61562SOL    HW186583   0.805  12.894  12.044
61562SOL    HW286584   0.876  12.948  11.922
61563SOL     OW86585  10.616   8.969   8.506
61563SOL    HW186586  10.669   8.921   8.569
61563SOL    HW286587  10.599   8.905   8.436
61564SOL     OW86588   6.557  10.785   5.637
61564SOL    HW186589   6.641  10.815   5.671
61564SOL    HW286590   6.503  10.771   5.715
61565SOL     OW86591   8.003   2.694  11.903
61565SOL    HW186592   8.086   2.648  11.914
61565SOL    HW286593   8.011   2.738  11.818
61566SOL     OW86594   4.652  14.352   8.917
61566SOL    HW186595   4.703  14.381   8.841
61566SOL    HW286596   4.679  14.410   8.987
61567SOL     OW86597  14.008  10.651   5.382
61567SOL    HW186598  14.085  10.633   5.328
61567SOL    HW286599  13.939  10.671   5.319
61568SOL     OW86600  12.898   9.139  11.336
61568SOL    HW186601  12.870   9.190  11.260
61568SOL    HW286602  12.887   9.048  11.309
61569SOL     OW86603   7.150   7.079  14.503
61569SOL    HW186604   7.195   7.096  14.420
61569SOL    HW286605   7.062   7.116  14.490
61570SOL     OW86606   1.842   1.975  12.152
61570SOL    HW186607   1.818   2.057  12.108
61570SOL    HW286608   1.905   2.001  12.219
61571SOL     OW86609  11.820   1.705  11.189
61571SOL    HW186610  11.808   1.731  11.098
61571SOL    HW286611  11.735   1.671  11.216
61572SOL     OW86612   3.034   5.191   2.036
61572SOL    HW186613   2.998   5.171   1.950
61572SOL    HW286614   2.980   5.140   2.097
61573SOL     OW86615   1.579  13.345   1.703
61573SOL    HW186616   1.615  13.372   1.618
61573SOL    HW286617   1.656  13.315   1.753
61574SOL     OW86618  14.027   0.761  13.455
61574SOL    HW186619  14.035   0.692  13.521
61574SOL    HW286620  14.078   0.729  13.381
61575SOL     OW86621  10.469  14.158   9.358
61575SOL    HW186622  10.449  14.130   9.447
61575SOL    HW286623  10.531  14.094   9.326
61576SOL     OW86624   1.247   2.271  14.262
61576SOL    HW186625   1.177   2.267  14.327
61576SOL    HW286626   1.327   2.276  14.313
61577SOL     OW86627   7.124   1.586   5.779
61577SOL    HW186628   7.118   1.671   5.736
61577SOL    HW286629   7.038   1.573   5.818
61578SOL     OW86630   4.154  12.811   6.970
61578SOL    HW186631   4.142  12.880   7.034
61578SOL    HW286632   4.248  12.814   6.949
61579SOL     OW86633  13.610  14.336  11.721
61579SOL    HW186634  13.541  14.330  11.654
61579SOL    HW286635  13.637  14.428  11.719
61580SOL     OW86636   5.862   1.276   5.963
61580SOL    HW186637   5.874   1.181   5.957
61580SOL    HW286638   5.945   1.309   5.996
61581SOL     OW86639   8.738  13.349   1.514
61581SOL    HW186640   8.693  13.361   1.430
61581SOL    HW286641   8.676  13.378   1.580
61582SOL     OW86642   5.992   8.074  11.962
61582SOL    HW186643   5.975   8.083  11.868
61582SOL    HW286644   6.005   7.980  11.975
61583SOL     OW86645   3.972   4.452   5.613
61583SOL    HW186646   3.940   4.540   5.632
61583SOL    HW286647   3.980   4.449   5.518
61584SOL     OW86648   0.160  10.276   4.809
61584SOL    HW186649   0.229  10.284   4.875
61584SOL    HW286650   0.170  10.186   4.776
61585SOL     OW86651  10.044   2.916   8.872
61585SOL    HW186652   9.991   2.837   8.886
61585SOL    HW286653  10.133   2.883   8.861
61586SOL     OW86654   7.927   6.782  10.978
61586SOL    HW186655   8.021   6.771  10.987
61586SOL    HW286656   7.889   6.703  11.017
61587SOL     OW86657   1.675   9.635  10.108
61587SOL    HW186658   1.653   9.724  10.081
61587SOL    HW286659   1.752   9.613  10.055
61588SOL     OW86660  12.139   2.684   0.215
61588SOL    HW186661  12.115   2.665   0.124
61588SOL    HW286662  12.183   2.604   0.244
61589SOL     OW86663   2.290   4.217  13.665
61589SOL    HW186664   2.255   4.128  13.673
61589SOL    HW286665   2.306   4.228  13.571
61590SOL     OW86666   2.058   0.603   3.263
61590SOL    HW186667   1.978   0.612   3.315
61590SOL    HW286668   2.116   0.549   3.318
61591SOL     OW86669   9.529   6.985  10.410
61591SOL    HW186670   9.443   6.964  10.373
61591SOL    HW286671   9.526   7.080  10.424
61592SOL     OW86672  13.713   9.208   6.325
61592SOL    HW186673  13.747   9.144   6.387
61592SOL    HW286674  13.779   9.211   6.256
61593SOL     OW86675  10.634   9.294   0.060
61593SOL    HW186676  10.602   9.204   0.057
61593SOL    HW286677  10.628   9.319   0.152
61594SOL     OW86678  14.777   5.492   7.109
61594SOL    HW186679  14.851   5.460   7.161
61594SOL    HW286680  14.705   5.500   7.172
61595SOL     OW86681  11.697  13.387   8.815
61595SOL    HW186682  11.791  13.370   8.824
61595SOL    HW286683  11.683  13.471   8.857
61596SOL     OW86684   8.533   0.954   1.023
61596SOL    HW186685   8.523   1.041   1.061
61596SOL    HW286686   8.499   0.894   1.089
61597SOL     OW86687  11.518   2.901   1.160
61597SOL    HW186688  11.611   2.905   1.181
61597SOL    HW286689  11.495   2.991   1.135
61598SOL     OW86690   7.036   0.759  11.427
61598SOL    HW186691   7.050   0.849  11.401
61598SOL    HW286692   7.123   0.728  11.453
61599SOL     OW86693  13.150  12.231   3.980
61599SOL    HW186694  13.165  12.165   4.048
61599SOL    HW286695  13.058  12.257   3.992
61600SOL     OW86696  10.852   8.469   9.405
61600SOL    HW186697  10.786   8.463   9.474
61600SOL    HW286698  10.935   8.452   9.449
61601SOL     OW86699   0.096   7.285  13.807
61601SOL    HW186700   0.168   7.301  13.746
61601SOL    HW286701   0.036   7.228  13.759
61602SOL     OW86702  10.806   4.524   2.369
61602SOL    HW186703  10.716   4.514   2.401
61602SOL    HW286704  10.800   4.586   2.297
61603SOL     OW86705   5.746   4.868   2.143
61603SOL    HW186706   5.675   4.893   2.202
61603SOL    HW286707   5.759   4.775   2.159
61604SOL     OW86708   2.284   5.098   7.834
61604SOL    HW186709   2.338   5.139   7.766
61604SOL    HW286710   2.221   5.166   7.860
61605SOL     OW86711  12.398   6.177   4.409
61605SOL    HW186712  12.366   6.257   4.368
61605SOL    HW286713  12.343   6.167   4.487
61606SOL     OW86714  12.763   8.120   7.987
61606SOL    HW186715  12.826   8.185   8.019
61606SOL    HW286716  12.808   8.078   7.913
61607SOL     OW86717   7.531  14.274   0.817
61607SOL    HW186718   7.439  14.285   0.793
61607SOL    HW286719   7.575  14.350   0.780
61608SOL     OW86720   3.618   5.994  11.458
61608SOL    HW186721   3.610   6.072  11.404
61608SOL    HW286722   3.588   6.021  11.545
61609SOL     OW86723  14.519  13.192   1.173
61609SOL    HW186724  14.450  13.250   1.206
61609SOL    HW286725  14.572  13.172   1.250
61610SOL     OW86726  14.861  13.892   6.698
61610SOL    HW186727   0.048  13.919   6.635
61610SOL    HW286728   0.030  13.855   6.772
61611SOL     OW86729   0.976   5.559   6.603
61611SOL    HW186730   1.023   5.523   6.678
61611SOL    HW286731   0.937   5.482   6.560
61612SOL     OW86732   6.900  12.149  14.735
61612SOL    HW186733   6.981  12.200  14.736
61612SOL    HW286734   6.923  12.068  14.689
61613SOL     OW86735  14.235  12.424  10.145
61613SOL    HW186736  14.267  12.334  10.143
61613SOL    HW286737  14.155  12.422  10.092
61614SOL     OW86738   6.474   5.964  13.532
61614SOL    HW186739   6.523   5.884  13.552
61614SOL    HW286740   6.520   6.003  13.458
61615SOL     OW86741   5.177   9.698   1.896
61615SOL    HW186742   5.162   9.605   1.909
61615SOL    HW286743   5.264   9.714   1.932
61616SOL     OW86744   6.183  13.943  13.092
61616SOL    HW186745   6.170  14.018  13.149
61616SOL    HW286746   6.278  13.938  13.079
61617SOL     OW86747  10.562   8.258   7.397
61617SOL    HW186748  10.538   8.265   7.489
61617SOL    HW286749  10.584   8.166   7.384
61618SOL     OW86750   4.080   4.850   3.355
61618SOL    HW186751   4.108   4.784   3.292
61618SOL    HW286752   4.026   4.910   3.305
61619SOL     OW86753   7.824   7.048   4.181
61619SOL    HW186754   7.888   6.978   4.170
61619SOL    HW286755   7.816   7.088   4.094
61620SOL     OW86756  13.808  14.660   7.184
61620SOL    HW186757  13.740  14.685   7.246
61620SOL    HW286758  13.802  14.564   7.178
61621SOL     OW86759  11.070   7.034  14.042
61621SOL    HW186760  11.155   7.057  14.004
61621SOL    HW286761  11.088   6.961  14.101
61622SOL     OW86762  13.195   8.098   8.009
61622SOL    HW186763  13.281   8.113   7.970
61622SOL    HW286764  13.213   8.077   8.100
61623SOL     OW86765   6.596  11.948  11.698
61623SOL    HW186766   6.635  11.871  11.657
61623SOL    HW286767   6.587  12.011  11.626
61624SOL     OW86768   6.774  12.429   3.695
61624SOL    HW186769   6.760  12.387   3.610
61624SOL    HW286770   6.785  12.356   3.756
61625SOL     OW86771   1.983   9.194   3.123
61625SOL    HW186772   1.890   9.206   3.143
61625SOL    HW286773   2.005   9.267   3.066
61626SOL     OW86774   8.851  11.746   1.787
61626SOL    HW186775   8.813  11.666   1.822
61626SOL    HW286776   8.942  11.722   1.766
61627SOL     OW86777  11.689   2.425  10.763
61627SOL    HW186778  11.758   2.491  10.770
61627SOL    HW286779  11.731   2.350  10.722
61628SOL     OW86780  10.432  14.085  13.057
61628SOL    HW186781  10.382  14.165  13.038
61628SOL    HW286782  10.370  14.014  13.041
61629SOL     OW86783   6.366   5.862   1.705
61629SOL    HW186784   6.367   5.924   1.778
61629SOL    HW286785   6.428   5.899   1.642
61630SOL     OW86786   3.430   7.876   3.816
61630SOL    HW186787   3.367   7.919   3.758
61630SOL    HW286788   3.402   7.785   3.820
61631SOL     OW86789  12.235   1.955   2.030
61631SOL    HW186790  12.201   1.907   2.105
61631SOL    HW286791  12.164   1.952   1.965
61632SOL     OW86792   9.978   1.755  11.728
61632SOL    HW186793   9.916   1.805  11.781
61632SOL    HW286794  10.043   1.723  11.791
61633SOL     OW86795   1.609   8.759   4.839
61633SOL    HW186796   1.561   8.677   4.852
61633SOL    HW286797   1.655   8.747   4.756
61634SOL     OW86798   4.467  11.425   2.467
61634SOL    HW186799   4.375  11.433   2.442
61634SOL    HW286800   4.511  11.400   2.385
61635SOL     OW86801   3.461   3.061  12.236
61635SOL    HW186802   3.548   3.097  12.252
61635SOL    HW286803   3.419   3.126  12.178
61636SOL     OW86804   1.564   4.685  13.675
61636SOL    HW186805   1.485   4.671  13.728
61636SOL    HW286806   1.609   4.601  13.676
61637SOL     OW86807   1.809  10.513   6.662
61637SOL    HW186808   1.752  10.470   6.599
61637SOL    HW286809   1.750  10.547   6.729
61638SOL     OW86810   9.026   2.338   2.259
61638SOL    HW186811   9.024   2.367   2.167
61638SOL    HW286812   9.028   2.419   2.310
61639SOL     OW86813  10.568   2.443   6.131
61639SOL    HW186814  10.499   2.415   6.191
61639SOL    HW286815  10.531   2.519   6.086
61640SOL     OW86816  11.181  14.610   9.310
61640SOL    HW186817  11.176  14.514   9.315
61640SOL    HW286818  11.139  14.632   9.227
61641SOL     OW86819   0.870  14.266   4.422
61641SOL    HW186820   0.830  14.183   4.396
61641SOL    HW286821   0.943  14.240   4.479
61642SOL     OW86822   3.157   8.680   6.686
61642SOL    HW186823   3.111   8.617   6.630
61642SOL    HW286824   3.234   8.704   6.635
61643SOL     OW86825   5.148  10.400   8.464
61643SOL    HW186826   5.183  10.321   8.423
61643SOL    HW286827   5.114  10.370   8.548
61644SOL     OW86828   7.768   3.615  14.183
61644SOL    HW186829   7.699   3.642  14.121
61644SOL    HW286830   7.823   3.693  14.192
61645SOL     OW86831   4.122   7.377  11.586
61645SOL    HW186832   4.124   7.447  11.521
61645SOL    HW286833   4.178   7.410  11.657
61646SOL     OW86834   5.749  13.578   3.093
61646SOL    HW186835   5.832  13.604   3.052
61646SOL    HW286836   5.756  13.611   3.183
61647SOL     OW86837   1.536   8.957   8.099
61647SOL    HW186838   1.494   8.944   8.014
61647SOL    HW286839   1.583   8.875   8.115
61648SOL     OW86840   3.817  13.788   3.330
61648SOL    HW186841   3.820  13.695   3.309
61648SOL    HW286842   3.890  13.801   3.391
61649SOL     OW86843   6.284   6.544   9.524
61649SOL    HW186844   6.247   6.484   9.590
61649SOL    HW286845   6.210   6.563   9.466
61650SOL     OW86846   2.288   7.313   5.799
61650SOL    HW186847   2.210   7.289   5.748
61650SOL    HW286848   2.357   7.322   5.734
61651SOL     OW86849   1.269   0.726   2.031
61651SOL    HW186850   1.303   0.658   2.089
61651SOL    HW286851   1.233   0.792   2.091
61652SOL     OW86852  11.380  14.860  14.024
61652SOL    HW186853  11.299  14.829  14.063
61652SOL    HW286854  11.444  14.792  14.045
61653SOL     OW86855   2.809  10.398   3.669
61653SOL    HW186856   2.885  10.455   3.657
61653SOL    HW286857   2.822  10.327   3.606
61654SOL     OW86858   1.692   7.673   0.544
61654SOL    HW186859   1.756   7.699   0.478
61654SOL    HW286860   1.640   7.752   0.559
61655SOL     OW86861  10.162   1.174  11.862
61655SOL    HW186862  10.210   1.251  11.831
61655SOL    HW286863  10.086   1.169  11.805
61656SOL     OW86864  11.993   3.013   5.343
61656SOL    HW186865  11.982   2.919   5.353
61656SOL    HW286866  11.903   3.047   5.333
61657SOL     OW86867   7.601   8.713   4.435
61657SOL    HW186868   7.619   8.639   4.493
61657SOL    HW286869   7.530   8.683   4.379
61658SOL     OW86870   5.545   6.065   1.468
61658SOL    HW186871   5.499   6.030   1.391
61658SOL    HW286872   5.636   6.042   1.454
61659SOL     OW86873   7.228  10.202   8.936
61659SOL    HW186874   7.307  10.184   8.988
61659SOL    HW286875   7.248  10.168   8.849
61660SOL     OW86876  14.015   5.008  10.132
61660SOL    HW186877  13.959   4.938  10.164
61660SOL    HW286878  14.043   5.054  10.211
61661SOL     OW86879   0.792  13.193  13.135
61661SOL    HW186880   0.788  13.102  13.107
61661SOL    HW286881   0.791  13.244  13.054
61662SOL     OW86882  12.917  14.720  14.159
61662SOL    HW186883  12.892  14.690  14.072
61662SOL    HW286884  12.910  14.816  14.154
61663SOL     OW86885   5.960   1.273   9.126
61663SOL    HW186886   5.982   1.329   9.199
61663SOL    HW286887   5.868   1.250   9.140
61664SOL     OW86888   9.357   5.791  12.390
61664SOL    HW186889   9.353   5.700  12.362
61664SOL    HW286890   9.445   5.820  12.367
61665SOL     OW86891   8.212   9.927   7.641
61665SOL    HW186892   8.189   9.851   7.695
61665SOL    HW286893   8.211   9.894   7.551
61666SOL     OW86894   7.537  10.300   8.978
61666SOL    HW186895   7.593  10.310   9.054
61666SOL    HW286896   7.598  10.293   8.904
61667SOL     OW86897  10.043  14.508  11.640
61667SOL    HW186898  10.054  14.601  11.618
61667SOL    HW286899  10.096  14.462  11.575
61668SOL     OW86900  13.052  11.374   7.001
61668SOL    HW186901  13.131  11.381   7.055
61668SOL    HW286902  13.086  11.358   6.913
61669SOL     OW86903  12.850   5.109   5.617
61669SOL    HW186904  12.865   5.184   5.675
61669SOL    HW286905  12.922   5.113   5.554
61670SOL     OW86906   6.853   3.763   7.636
61670SOL    HW186907   6.935   3.775   7.588
61670SOL    HW286908   6.815   3.850   7.640
61671SOL     OW86909   2.220   7.702  12.809
61671SOL    HW186910   2.167   7.780  12.793
61671SOL    HW286911   2.292   7.708  12.746
61672SOL     OW86912   3.886   1.120   7.209
61672SOL    HW186913   3.854   1.135   7.298
61672SOL    HW286914   3.807   1.120   7.154
61673SOL     OW86915   3.443   5.270   9.693
61673SOL    HW186916   3.421   5.356   9.729
61673SOL    HW286917   3.528   5.248   9.732
61674SOL     OW86918  11.973  14.053   0.305
61674SOL    HW186919  11.976  13.960   0.283
61674SOL    HW286920  11.917  14.058   0.382
61675SOL     OW86921   4.501   3.115   1.726
61675SOL    HW186922   4.495   3.179   1.798
61675SOL    HW286923   4.595   3.099   1.717
61676SOL     OW86924   3.224  11.198  13.442
61676SOL    HW186925   3.205  11.117  13.490
61676SOL    HW286926   3.290  11.242  13.496
61677SOL     OW86927  13.739  14.540   2.932
61677SOL    HW186928  13.692  14.581   2.859
61677SOL    HW286929  13.689  14.461   2.952
61678SOL     OW86930   4.837   4.386   3.709
61678SOL    HW186931   4.923   4.363   3.674
61678SOL    HW286932   4.797   4.442   3.641
61679SOL     OW86933   7.347  14.342   5.896
61679SOL    HW186934   7.376  14.381   5.978
61679SOL    HW286935   7.272  14.289   5.920
61680SOL     OW86936  14.372  11.447   3.470
61680SOL    HW186937  14.296  11.391   3.455
61680SOL    HW286938  14.354  11.491   3.553
61681SOL     OW86939   9.827   6.247   5.335
61681SOL    HW186940   9.868   6.329   5.365
61681SOL    HW286941   9.863   6.181   5.394
61682SOL     OW86942  10.844  10.714  11.352
61682SOL    HW186943  10.882  10.652  11.414
61682SOL    HW286944  10.904  10.715  11.278
61683SOL     OW86945  13.718  10.239   7.722
61683SOL    HW186946  13.647  10.301   7.709
61683SOL    HW286947  13.696  10.194   7.804
61684SOL     OW86948   0.398  14.085   0.203
61684SOL    HW186949   0.326  14.053   0.149
61684SOL    HW286950   0.431  14.162   0.157
61685SOL     OW86951   2.840   3.637   1.002
61685SOL    HW186952   2.771   3.703   1.009
61685SOL    HW286953   2.917   3.685   0.971
61686SOL     OW86954   9.685   1.371   9.695
61686SOL    HW186955   9.764   1.359   9.747
61686SOL    HW286956   9.614   1.344   9.753
61687SOL     OW86957  10.148  14.624   3.838
61687SOL    HW186958  10.087  14.650   3.769
61687SOL    HW286959  10.116  14.539   3.867
61688SOL     OW86960   3.536   1.965  14.190
61688SOL    HW186961   3.509   2.053  14.162
61688SOL    HW286962   3.562   1.976  14.281
61689SOL     OW86963   2.799   0.298  13.244
61689SOL    HW186964   2.730   0.314  13.180
61689SOL    HW286965   2.872   0.264  13.193
61690SOL     OW86966  12.496   7.272   8.808
61690SOL    HW186967  12.451   7.320   8.738
61690SOL    HW286968  12.437   7.199   8.828
61691SOL     OW86969   5.366   7.517   8.385
61691SOL    HW186970   5.300   7.582   8.363
61691SOL    HW286971   5.352   7.446   8.322
61692SOL     OW86972   0.818   4.979  12.496
61692SOL    HW186973   0.795   5.067  12.465
61692SOL    HW286974   0.763   4.964  12.572
61693SOL     OW86975  11.052   0.216  11.992
61693SOL    HW186976  11.077   0.218  12.084
61693SOL    HW286977  11.010   0.131  11.981
61694SOL     OW86978   2.537  11.528   3.742
61694SOL    HW186979   2.624  11.496   3.718
61694SOL    HW286980   2.503  11.462   3.802
61695SOL     OW86981  13.591  11.554   3.802
61695SOL    HW186982  13.583  11.533   3.895
61695SOL    HW286983  13.501  11.569   3.774
61696SOL     OW86984   9.778   8.844   4.652
61696SOL    HW186985   9.732   8.927   4.663
61696SOL    HW286986   9.730   8.782   4.707
61697SOL     OW86987  14.302  10.225   6.892
61697SOL    HW186988  14.355  10.234   6.971
61697SOL    HW286989  14.216  10.261   6.917
61698SOL     OW86990   3.262  10.786  11.108
61698SOL    HW186991   3.273  10.775  11.202
61698SOL    HW286992   3.168  10.800  11.096
61699SOL     OW86993  13.396   3.914  10.713
61699SOL    HW186994  13.441   3.886  10.634
61699SOL    HW286995  13.315   3.955  10.682
61700SOL     OW86996   3.522   0.048   2.803
61700SOL    HW186997   3.587   0.118   2.805
61700SOL    HW286998   3.553  14.864   2.867
61701SOL     OW86999  11.395   5.600   2.636
61701SOL    HW187000  11.348   5.518   2.623
61701SOL    HW287001  11.441   5.588   2.718
61702SOL     OW87002   3.903   8.681   2.330
61702SOL    HW187003   3.928   8.590   2.321
61702SOL    HW287004   3.916   8.702   2.422
61703SOL     OW87005   9.215  11.256   5.060
61703SOL    HW187006   9.184  11.336   5.103
61703SOL    HW287007   9.164  11.251   4.979
61704SOL     OW87008  11.768  11.938   7.937
61704SOL    HW187009  11.863  11.924   7.942
61704SOL    HW287010  11.740  11.883   7.863
61705SOL     OW87011  12.611  14.037   2.068
61705SOL    HW187012  12.659  14.022   1.987
61705SOL    HW287013  12.673  14.082   2.126
61706SOL     OW87014  14.566   6.589   7.257
61706SOL    HW187015  14.504   6.590   7.330
61706SOL    HW287016  14.511   6.590   7.179
61707SOL     OW87017   4.199   3.341   2.621
61707SOL    HW187018   4.280   3.386   2.643
61707SOL    HW287019   4.219   3.291   2.542
61708SOL     OW87020   1.068  14.689   4.439
61708SOL    HW187021   1.156  14.656   4.420
61708SOL    HW287022   1.027  14.699   4.352
61709SOL     OW87023   6.628  14.324   6.592
61709SOL    HW187024   6.655  14.308   6.501
61709SOL    HW287025   6.636  14.238   6.634
61710SOL     OW87026  14.515   6.623   9.542
61710SOL    HW187027  14.450   6.555   9.526
61710SOL    HW287028  14.556   6.638   9.457
61711SOL     OW87029   9.139   8.817   3.062
61711SOL    HW187030   9.164   8.726   3.051
61711SOL    HW287031   9.202   8.866   3.009
61712SOL     OW87032   7.039   3.374  13.279
61712SOL    HW187033   7.066   3.413  13.361
61712SOL    HW287034   7.101   3.303  13.263
61713SOL     OW87035   1.584   5.551   0.289
61713SOL    HW187036   1.634   5.630   0.309
61713SOL    HW287037   1.636   5.479   0.325
61714SOL     OW87038  14.322  10.973   1.275
61714SOL    HW187039  14.312  11.048   1.333
61714SOL    HW287040  14.235  10.931   1.276
61715SOL     OW87041   2.673   5.194   4.176
61715SOL    HW187042   2.634   5.259   4.234
61715SOL    HW287043   2.707   5.245   4.103
61716SOL     OW87044  11.675   7.862   4.706
61716SOL    HW187045  11.721   7.856   4.622
61716SOL    HW287046  11.702   7.783   4.753
61717SOL     OW87047   2.597  13.151   7.947
61717SOL    HW187048   2.643  13.103   8.016
61717SOL    HW287049   2.546  13.217   7.994
61718SOL     OW87050   0.377   8.948   2.952
61718SOL    HW187051   0.395   8.854   2.950
61718SOL    HW287052   0.459   8.989   2.925
61719SOL     OW87053  13.266   1.459   3.313
61719SOL    HW187054  13.171   1.447   3.311
61719SOL    HW287055  13.283   1.527   3.248
61720SOL     OW87056   2.427  12.277   0.159
61720SOL    HW187057   2.405  12.337   0.088
61720SOL    HW287058   2.400  12.324   0.238
61721SOL     OW87059  13.533   4.601   4.298
61721SOL    HW187060  13.601   4.612   4.364
61721SOL    HW287061  13.454   4.579   4.348
61722SOL     OW87062   1.139   6.522  10.853
61722SOL    HW187063   1.198   6.457  10.814
61722SOL    HW287064   1.100   6.476  10.927
61723SOL     OW87065   5.977  14.615   6.748
61723SOL    HW187066   5.995  14.679   6.680
61723SOL    HW287067   5.916  14.659   6.807
61724SOL     OW87068   0.884  11.354  14.769
61724SOL    HW187069   0.840  11.435  14.743
61724SOL    HW287070   0.816  11.287  14.766
61725SOL     OW87071  11.494  13.071   2.447
61725SOL    HW187072  11.490  13.166   2.435
61725SOL    HW287073  11.504  13.036   2.359
61726SOL     OW87074   0.822   0.350   5.724
61726SOL    HW187075   0.798   0.290   5.795
61726SOL    HW287076   0.815   0.437   5.764
61727SOL     OW87077   5.482  10.729   1.715
61727SOL    HW187078   5.575  10.743   1.730
61727SOL    HW287079   5.472  10.634   1.720
61728SOL     OW87080   3.560   9.199   7.806
61728SOL    HW187081   3.588   9.181   7.717
61728SOL    HW287082   3.640   9.223   7.853
61729SOL     OW87083   4.832   7.090   4.476
61729SOL    HW187084   4.791   7.139   4.547
61729SOL    HW287085   4.875   7.016   4.519
61730SOL     OW87086  10.795   8.009  10.683
61730SOL    HW187087  10.712   8.034  10.642
61730SOL    HW287088  10.786   8.037  10.774
61731SOL     OW87089   9.484   0.646   7.239
61731SOL    HW187090   9.559   0.638   7.297
61731SOL    HW287091   9.410   0.612   7.291
61732SOL     OW87092   0.117   3.562   0.713
61732SOL    HW187093   0.060   3.629   0.676
61732SOL    HW287094   0.069   3.531   0.790
61733SOL     OW87095   5.816  13.819   6.355
61733SOL    HW187096   5.728  13.784   6.370
61733SOL    HW287097   5.873  13.743   6.363
61734SOL     OW87098   3.120   5.379   8.205
61734SOL    HW187099   3.054   5.352   8.142
61734SOL    HW287100   3.199   5.392   8.153
61735SOL     OW87101   5.966   8.174   3.203
61735SOL    HW187102   6.008   8.248   3.158
61735SOL    HW287103   5.877   8.204   3.220
61736SOL     OW87104   5.852  14.336  12.215
61736SOL    HW187105   5.944  14.351  12.237
61736SOL    HW287106   5.845  14.356  12.122
61737SOL     OW87107   2.528   7.409   6.796
61737SOL    HW187108   2.474   7.346   6.748
61737SOL    HW287109   2.562   7.359   6.870
61738SOL     OW87110  13.089   8.486   1.424
61738SOL    HW187111  13.028   8.475   1.352
61738SOL    HW287112  13.127   8.573   1.410
61739SOL     OW87113  11.709   4.613  11.560
61739SOL    HW187114  11.784   4.673  11.566
61739SOL    HW287115  11.747   4.526  11.567
61740SOL     OW87116   0.250  12.935  10.537
61740SOL    HW187117   0.188  12.869  10.567
61740SOL    HW287118   0.318  12.884  10.492
61741SOL     OW87119   3.725  13.660  12.402
61741SOL    HW187120   3.725  13.569  12.374
61741SOL    HW287121   3.793  13.702  12.349
61742SOL     OW87122   4.943   3.613   9.625
61742SOL    HW187123   4.917   3.633   9.715
61742SOL    HW287124   4.861   3.599   9.578
61743SOL     OW87125   2.883  12.007   9.272
61743SOL    HW187126   2.900  12.011   9.366
61743SOL    HW287127   2.947  11.944   9.239
61744SOL     OW87128  14.220   3.877  13.373
61744SOL    HW187129  14.201   3.971  13.369
61744SOL    HW287130  14.299   3.866  13.319
61745SOL     OW87131   7.243   9.419  14.324
61745SOL    HW187132   7.236   9.451  14.234
61745SOL    HW287133   7.156   9.387  14.345
61746SOL     OW87134   8.553   3.687   1.796
61746SOL    HW187135   8.539   3.659   1.706
61746SOL    HW287136   8.611   3.763   1.789
61747SOL     OW87137  11.716   6.384   9.541
61747SOL    HW187138  11.718   6.465   9.490
61747SOL    HW287139  11.642   6.394   9.600
61748SOL     OW87140   7.685   8.038   1.340
61748SOL    HW187141   7.774   8.062   1.363
61748SOL    HW287142   7.674   8.071   1.251
61749SOL     OW87143  14.391   6.451  10.797
61749SOL    HW187144  14.358   6.374  10.751
61749SOL    HW287145  14.408   6.420  10.886
61750SOL     OW87146   2.649  11.088  13.361
61750SOL    HW187147   2.669  11.081  13.455
61750SOL    HW287148   2.733  11.113  13.321
61751SOL     OW87149  14.562   3.784  10.919
61751SOL    HW187150  14.582   3.873  10.888
61751SOL    HW287151  14.627   3.729  10.876
61752SOL     OW87152   8.007   4.763  13.868
61752SOL    HW187153   7.969   4.762  13.780
61752SOL    HW287154   7.964   4.835  13.913
61753SOL     OW87155  14.343   4.190   0.727
61753SOL    HW187156  14.372   4.179   0.636
61753SOL    HW287157  14.247   4.187   0.722
61754SOL     OW87158  10.522  14.019  14.764
61754SOL    HW187159  10.586  14.087  14.783
61754SOL    HW287160  10.569  13.937  14.778
61755SOL     OW87161   9.465  14.724  10.285
61755SOL    HW187162   9.558  14.701  10.277
61755SOL    HW287163   9.452  14.793  10.220
61756SOL     OW87164   4.022   8.588   1.446
61756SOL    HW187165   3.995   8.634   1.525
61756SOL    HW287166   4.112   8.618   1.430
61757SOL     OW87167   9.460   5.000  11.428
61757SOL    HW187168   9.523   5.065  11.396
61757SOL    HW287169   9.382   5.014  11.374
61758SOL     OW87170   4.560  14.024  12.260
61758SOL    HW187171   4.557  14.074  12.178
61758SOL    HW287172   4.568  13.933  12.231
61759SOL     OW87173  14.320   6.807   7.252
61759SOL    HW187174  14.401   6.854   7.234
61759SOL    HW287175  14.281   6.793   7.165
61760SOL     OW87176   2.886  10.685   1.915
61760SOL    HW187177   2.808  10.737   1.933
61760SOL    HW287178   2.851  10.600   1.887
61761SOL     OW87179   0.090   9.881   5.328
61761SOL    HW187180   0.133   9.810   5.280
61761SOL    HW287181   0.019   9.909   5.270
61762SOL     OW87182   3.540   5.139  11.458
61762SOL    HW187183   3.608   5.169  11.517
61762SOL    HW287184   3.501   5.219  11.423
61763SOL     OW87185   8.680   7.482   0.697
61763SOL    HW187186   8.606   7.542   0.692
61763SOL    HW287187   8.682   7.453   0.788
61764SOL     OW87188  14.729   0.891   3.734
61764SOL    HW187189  14.721   0.980   3.766
61764SOL    HW287190  14.680   0.890   3.651
61765SOL     OW87191   7.227  10.026   6.683
61765SOL    HW187192   7.312  10.031   6.639
61765SOL    HW287193   7.236   9.955   6.746
61766SOL     OW87194  13.305   5.622   7.834
61766SOL    HW187195  13.214   5.610   7.807
61766SOL    HW287196  13.316   5.717   7.841
61767SOL     OW87197   7.564   1.148  14.052
61767SOL    HW187198   7.607   1.111  13.975
61767SOL    HW287199   7.605   1.104  14.126
61768SOL     OW87200  13.049   8.303   6.349
61768SOL    HW187201  13.057   8.331   6.440
61768SOL    HW287202  13.117   8.352   6.303
61769SOL     OW87203  12.965   0.621  14.484
61769SOL    HW187204  12.947   0.710  14.512
61769SOL    HW287205  12.926   0.566  14.553
61770SOL     OW87206   4.790   9.111   2.078
61770SOL    HW187207   4.756   9.158   2.002
61770SOL    HW287208   4.727   9.128   2.148
61771SOL     OW87209   2.404   3.474   4.481
61771SOL    HW187210   2.314   3.495   4.506
61771SOL    HW287211   2.398   3.450   4.388
61772SOL     OW87212  13.043  12.317   0.727
61772SOL    HW187213  12.967  12.260   0.725
61772SOL    HW287214  13.070  12.324   0.635
61773SOL     OW87215   5.701   6.524  12.039
61773SOL    HW187216   5.747   6.599  12.077
61773SOL    HW287217   5.608   6.541  12.057
61774SOL     OW87218   5.279   9.206   1.662
61774SOL    HW187219   5.237   9.145   1.724
61774SOL    HW287220   5.344   9.252   1.715
61775SOL     OW87221   2.144   4.319   7.080
61775SOL    HW187222   2.177   4.311   6.990
61775SOL    HW287223   2.081   4.391   7.076
61776SOL     OW87224   1.989   2.025  13.681
61776SOL    HW187225   1.983   2.034  13.776
61776SOL    HW287226   1.918   2.080  13.648
61777SOL     OW87227   4.451   5.867   7.855
61777SOL    HW187228   4.435   5.877   7.762
61777SOL    HW287229   4.428   5.776   7.875
61778SOL     OW87230   8.583   2.406   5.214
61778SOL    HW187231   8.623   2.491   5.231
61778SOL    HW287232   8.649   2.359   5.163
61779SOL     OW87233   7.064   7.919   6.059
61779SOL    HW187234   7.057   7.964   5.975
61779SOL    HW287235   6.974   7.902   6.085
61780SOL     OW87236   1.044   5.407   3.279
61780SOL    HW187237   1.014   5.331   3.330
61780SOL    HW287238   1.084   5.465   3.343
61781SOL     OW87239  11.099   0.333  10.390
61781SOL    HW187240  11.020   0.387  10.388
61781SOL    HW287241  11.114   0.315  10.483
61782SOL     OW87242  10.277   9.735   5.396
61782SOL    HW187243  10.263   9.682   5.317
61782SOL    HW287244  10.307   9.820   5.364
61783SOL     OW87245  14.658   2.819   4.002
61783SOL    HW187246  14.572   2.856   4.022
61783SOL    HW287247  14.647   2.777   3.917
61784SOL     OW87248   2.481  14.806   0.530
61784SOL    HW187249   2.445  14.878   0.479
61784SOL    HW287250   2.556  14.775   0.480
61785SOL     OW87251   4.599   6.564   2.837
61785SOL    HW187252   4.638   6.651   2.848
61785SOL    HW287253   4.511   6.582   2.803
61786SOL     OW87254   2.817   2.779   6.728
61786SOL    HW187255   2.833   2.738   6.813
61786SOL    HW287256   2.767   2.714   6.679
61787SOL     OW87257   8.980  11.237  10.097
61787SOL    HW187258   9.051  11.269  10.041
61787SOL    HW287259   8.909  11.300  10.084
61788SOL     OW87260   1.399   0.994  12.562
61788SOL    HW187261   1.333   0.983  12.493
61788SOL    HW287262   1.446   1.074  12.538
61789SOL     OW87263  11.689  14.225  11.707
61789SOL    HW187264  11.600  14.193  11.725
61789SOL    HW287265  11.676  14.302  11.652
61790SOL     OW87266   5.790   9.664   9.012
61790SOL    HW187267   5.822   9.752   9.030
61790SOL    HW287268   5.855   9.626   8.953
61791SOL     OW87269   0.185   3.067  12.414
61791SOL    HW187270   0.120   3.022  12.468
61791SOL    HW287271   0.235   3.120  12.476
61792SOL     OW87272   7.092  12.137   5.217
61792SOL    HW187273   7.125  12.078   5.284
61792SOL    HW287274   7.086  12.222   5.262
61793SOL     OW87275   5.325  13.099   2.728
61793SOL    HW187276   5.348  13.084   2.636
61793SOL    HW287277   5.326  13.011   2.767
61794SOL     OW87278   2.848   3.507   1.830
61794SOL    HW187279   2.865   3.415   1.851
61794SOL    HW287280   2.830   3.548   1.915
61795SOL     OW87281   2.156  13.426   2.409
61795SOL    HW187282   2.104  13.422   2.489
61795SOL    HW287283   2.212  13.348   2.413
61796SOL     OW87284  11.712  13.232   5.503
61796SOL    HW187285  11.711  13.314   5.454
61796SOL    HW287286  11.660  13.171   5.451
61797SOL     OW87287   1.726   5.265  11.038
61797SOL    HW187288   1.763   5.354  11.034
61797SOL    HW287289   1.632   5.278  11.044
61798SOL     OW87290  12.583   3.514   0.730
61798SOL    HW187291  12.555   3.427   0.701
61798SOL    HW287292  12.509   3.547   0.782
61799SOL     OW87293   4.767  11.022  13.826
61799SOL    HW187294   4.753  10.938  13.782
61799SOL    HW287295   4.730  11.010  13.914
61800SOL     OW87296   6.868   7.502   7.954
61800SOL    HW187297   6.902   7.496   8.043
61800SOL    HW287298   6.773   7.495   7.963
61801SOL     OW87299  10.314   8.901   9.633
61801SOL    HW187300  10.300   8.898   9.539
61801SOL    HW287301  10.362   8.983   9.648
61802SOL     OW87302   4.389   2.369  12.863
61802SOL    HW187303   4.324   2.426  12.904
61802SOL    HW287304   4.451   2.428  12.820
61803SOL     OW87305  10.837   6.061  13.588
61803SOL    HW187306  10.758   6.010  13.570
61803SOL    HW287307  10.892   6.002  13.640
61804SOL     OW87308   3.290  13.784   5.888
61804SOL    HW187309   3.347  13.851   5.926
61804SOL    HW287310   3.201  13.815   5.907
61805SOL     OW87311  13.093   4.223  11.861
61805SOL    HW187312  13.104   4.304  11.910
61805SOL    HW287313  13.039   4.168  11.918
61806SOL     OW87314   6.328  13.007   8.812
61806SOL    HW187315   6.264  13.059   8.862
61806SOL    HW287316   6.307  12.916   8.834
61807SOL     OW87317   8.162   9.879  13.284
61807SOL    HW187318   8.194   9.861  13.373
61807SOL    HW287319   8.067   9.877  13.292
61808SOL     OW87320  13.441   5.603  13.190
61808SOL    HW187321  13.491   5.648  13.122
61808SOL    HW287322  13.508   5.567  13.249
61809SOL     OW87323   2.513  14.689   5.363
61809SOL    HW187324   2.578  14.711   5.297
61809SOL    HW287325   2.432  14.672   5.313
61810SOL     OW87326  10.156   9.511   6.130
61810SOL    HW187327  10.223   9.451   6.162
61810SOL    HW287328  10.168   9.514   6.035
61811SOL     OW87329   2.817   5.187  14.635
61811SOL    HW187330   2.763   5.248  14.685
61811SOL    HW287331   2.789   5.100  14.664
61812SOL     OW87332  12.897  11.414  11.725
61812SOL    HW187333  12.821  11.410  11.784
61812SOL    HW287334  12.865  11.376  11.643
61813SOL     OW87335   3.187   2.346  12.928
61813SOL    HW187336   3.146   2.366  13.012
61813SOL    HW287337   3.264   2.404  12.926
61814SOL     OW87338   6.817  13.173   4.546
61814SOL    HW187339   6.889  13.165   4.483
61814SOL    HW287340   6.856  13.217   4.622
61815SOL     OW87341  11.775  10.831   4.080
61815SOL    HW187342  11.733  10.917   4.077
61815SOL    HW287343  11.783  10.805   3.989
61816SOL     OW87344   2.442   4.983   0.943
61816SOL    HW187345   2.406   5.022   0.863
61816SOL    HW287346   2.425   4.889   0.933
61817SOL     OW87347   3.601  10.774   8.566
61817SOL    HW187348   3.688  10.813   8.575
61817SOL    HW287349   3.544  10.830   8.619
61818SOL     OW87350  11.536   0.882   2.738
61818SOL    HW187351  11.553   0.804   2.790
61818SOL    HW287352  11.617   0.896   2.688
61819SOL     OW87353  13.643  13.662   2.829
61819SOL    HW187354  13.577  13.598   2.804
61819SOL    HW287355  13.597  13.746   2.828
61820SOL     OW87356   0.242   7.432  14.513
61820SOL    HW187357   0.197   7.381  14.446
61820SOL    HW287358   0.308   7.373  14.548
61821SOL     OW87359   1.639   2.313   4.178
61821SOL    HW187360   1.560   2.268   4.152
61821SOL    HW287361   1.696   2.310   4.101
61822SOL     OW87362   3.814   7.149  11.336
61822SOL    HW187363   3.884   7.138  11.271
61822SOL    HW287364   3.738   7.105  11.297
61823SOL     OW87365   3.552   9.497   9.860
61823SOL    HW187366   3.457   9.500   9.850
61823SOL    HW287367   3.586   9.554   9.791
61824SOL     OW87368  14.246   3.103  13.952
61824SOL    HW187369  14.309   3.124  14.021
61824SOL    HW287370  14.248   3.008  13.946
61825SOL     OW87371  13.746   9.778   1.408
61825SOL    HW187372  13.828   9.813   1.373
61825SOL    HW287373  13.696   9.856   1.433
61826SOL     OW87374   6.988  10.544   4.553
61826SOL    HW187375   7.074  10.585   4.562
61826SOL    HW287376   6.985  10.515   4.462
61827SOL     OW87377   9.791  14.027   1.390
61827SOL    HW187378   9.769  14.117   1.367
61827SOL    HW287379   9.791  13.980   1.307
61828SOL     OW87380   1.953   3.479   5.649
61828SOL    HW187381   1.903   3.560   5.639
61828SOL    HW287382   2.009   3.494   5.725
61829SOL     OW87383   8.907   0.193  13.151
61829SOL    HW187384   8.827   0.222  13.196
61829SOL    HW287385   8.933   0.114  13.196
61830SOL     OW87386   9.591   3.523   2.822
61830SOL    HW187387   9.510   3.476   2.844
61830SOL    HW287388   9.591   3.528   2.727
61831SOL     OW87389   2.265   0.616   4.821
61831SOL    HW187390   2.180   0.586   4.855
61831SOL    HW287391   2.327   0.548   4.848
61832SOL     OW87392   1.856  12.210  11.025
61832SOL    HW187393   1.919  12.230  11.094
61832SOL    HW287394   1.859  12.286  10.967
61833SOL     OW87395   7.938   8.043  12.405
61833SOL    HW187396   7.998   8.112  12.378
61833SOL    HW287397   7.991   7.986  12.461
61834SOL     OW87398   1.663   2.699   8.672
61834SOL    HW187399   1.711   2.726   8.593
61834SOL    HW287400   1.641   2.781   8.716
61835SOL     OW87401  10.632   0.212   1.885
61835SOL    HW187402  10.667   0.277   1.824
61835SOL    HW287403  10.550   0.184   1.846
61836SOL     OW87404   8.937  13.040  14.602
61836SOL    HW187405   8.966  13.125  14.569
61836SOL    HW287406   9.011  13.008  14.654
61837SOL     OW87407  11.359   1.187  14.865
61837SOL    HW187408  11.418   1.198  14.791
61837SOL    HW287409  11.414   1.199   0.063
61838SOL     OW87410   5.027  13.243  12.280
61838SOL    HW187411   4.938  13.213  12.299
61838SOL    HW287412   5.020  13.338  12.272
61839SOL     OW87413   0.712  11.850   7.633
61839SOL    HW187414   0.761  11.928   7.660
61839SOL    HW287415   0.621  11.871   7.651
61840SOL     OW87416   5.046  14.559   3.336
61840SOL    HW187417   4.981  14.545   3.404
61840SOL    HW287418   5.084  14.645   3.355
61841SOL     OW87419   3.279  10.902   0.496
61841SOL    HW187420   3.266  10.828   0.554
61841SOL    HW287421   3.298  10.863   0.410
61842SOL     OW87422  12.791   7.357   6.828
61842SOL    HW187423  12.799   7.357   6.732
61842SOL    HW287424  12.713   7.409   6.845
61843SOL     OW87425   5.391  11.702   2.423
61843SOL    HW187426   5.401  11.615   2.460
61843SOL    HW287427   5.473  11.719   2.377
61844SOL     OW87428   1.832  10.185   4.158
61844SOL    HW187429   1.880  10.115   4.203
61844SOL    HW287430   1.897  10.256   4.149
61845SOL     OW87431   3.818  12.569   7.900
61845SOL    HW187432   3.889  12.616   7.857
61845SOL    HW287433   3.799  12.496   7.841
61846SOL     OW87434  14.632  10.452  13.597
61846SOL    HW187435  14.705  10.393  13.613
61846SOL    HW287436  14.653  10.531  13.647
61847SOL     OW87437   0.248   0.199   6.704
61847SOL    HW187438   0.320   0.206   6.642
61847SOL    HW287439   0.169   0.218   6.653
61848SOL     OW87440  12.306   9.613   4.534
61848SOL    HW187441  12.294   9.614   4.439
61848SOL    HW287442  12.254   9.687   4.566
61849SOL     OW87443   3.775   8.346   2.176
61849SOL    HW187444   3.709   8.381   2.117
61849SOL    HW287445   3.751   8.380   2.262
61850SOL     OW87446   7.609   4.798  14.000
61850SOL    HW187447   7.694   4.842  14.000
61850SOL    HW287448   7.549   4.863  14.038
61851SOL     OW87449   1.409  11.644  13.037
61851SOL    HW187450   1.362  11.721  13.007
61851SOL    HW287451   1.498  11.655  13.004
61852SOL     OW87452   4.867   5.901  14.381
61852SOL    HW187453   4.930   5.845  14.336
61852SOL    HW287454   4.871   5.872  14.472
61853SOL     OW87455   4.899  10.065  10.996
61853SOL    HW187456   4.851  10.095  10.919
61853SOL    HW287457   4.832  10.040  11.059
61854SOL     OW87458   3.391   4.023   3.138
61854SOL    HW187459   3.361   3.939   3.104
61854SOL    HW287460   3.480   4.006   3.170
61855SOL     OW87461   7.233  14.213   0.469
61855SOL    HW187462   7.154  14.249   0.430
61855SOL    HW287463   7.205  14.132   0.512
61856SOL     OW87464   9.347   5.054   1.411
61856SOL    HW187465   9.296   4.975   1.431
61856SOL    HW287466   9.334   5.111   1.486
61857SOL     OW87467  10.044   3.063   7.700
61857SOL    HW187468  10.096   3.054   7.620
61857SOL    HW287469  10.046   2.977   7.741
61858SOL     OW87470   9.913  13.710  11.205
61858SOL    HW187471   9.853  13.729  11.133
61858SOL    HW287472   9.920  13.793  11.252
61859SOL     OW87473   2.938  13.120   3.506
61859SOL    HW187474   2.957  13.100   3.414
61859SOL    HW287475   2.846  13.144   3.507
61860SOL     OW87476   8.678   8.769   3.829
61860SOL    HW187477   8.705   8.844   3.882
61860SOL    HW287478   8.620   8.718   3.886
61861SOL     OW87479   4.289   2.206   2.406
61861SOL    HW187480   4.286   2.285   2.461
61861SOL    HW287481   4.253   2.234   2.323
61862SOL     OW87482   5.675  10.047   8.966
61862SOL    HW187483   5.593  10.074   9.008
61862SOL    HW287484   5.650   9.973   8.911
61863SOL     OW87485  13.421   3.290  10.586
61863SOL    HW187486  13.373   3.241  10.519
61863SOL    HW287487  13.401   3.245  10.668
61864SOL     OW87488  10.660   1.691   2.574
61864SOL    HW187489  10.598   1.740   2.629
61864SOL    HW287490  10.641   1.720   2.485
61865SOL     OW87491  10.827   7.044  11.413
61865SOL    HW187492  10.761   7.028  11.346
61865SOL    HW287493  10.813   6.975  11.478
61866SOL     OW87494  13.640   2.403   8.512
61866SOL    HW187495  13.605   2.408   8.601
61866SOL    HW287496  13.617   2.315   8.482
61867SOL     OW87497   9.688   6.487   5.692
61867SOL    HW187498   9.743   6.560   5.663
61867SOL    HW287499   9.749   6.429   5.737
61868SOL     OW87500  11.613  13.087   9.782
61868SOL    HW187501  11.659  13.169   9.766
61868SOL    HW287502  11.557  13.076   9.705
61869SOL     OW87503  14.833   7.549  10.712
61869SOL    HW187504   0.018   7.597  10.762
61869SOL    HW287505  14.803   7.480  10.771
61870SOL     OW87506  13.400   7.877  10.011
61870SOL    HW187507  13.427   7.862   9.920
61870SOL    HW287508  13.414   7.971  10.025
61871SOL     OW87509   3.760   8.172   3.623
61871SOL    HW187510   3.688   8.226   3.592
61871SOL    HW287511   3.796   8.133   3.543
61872SOL     OW87512   5.476   4.222   7.092
61872SOL    HW187513   5.544   4.243   7.028
61872SOL    HW287514   5.523   4.204   7.173
61873SOL     OW87515   6.609  11.406  10.011
61873SOL    HW187516   6.583  11.433   9.923
61873SOL    HW287517   6.694  11.448  10.025
61874SOL     OW87518   7.369   4.735   3.080
61874SOL    HW187519   7.448   4.788   3.093
61874SOL    HW287520   7.372   4.671   3.152
61875SOL     OW87521  12.825   2.720  13.955
61875SOL    HW187522  12.738   2.748  13.985
61875SOL    HW287523  12.867   2.802  13.926
61876SOL     OW87524   7.727   0.564   4.379
61876SOL    HW187525   7.817   0.554   4.412
61876SOL    HW287526   7.728   0.522   4.293
61877SOL     OW87527   0.757   0.377  12.808
61877SOL    HW187528   0.778   0.469  12.796
61877SOL    HW287529   0.712   0.373  12.892
61878SOL     OW87530   5.672   9.837  14.215
61878SOL    HW187531   5.644   9.929  14.217
61878SOL    HW287532   5.599   9.791  14.172
61879SOL     OW87533   7.799   4.940   3.213
61879SOL    HW187534   7.820   4.871   3.149
61879SOL    HW287535   7.708   4.923   3.238
61880SOL     OW87536   4.530   3.168   7.477
61880SOL    HW187537   4.494   3.119   7.551
61880SOL    HW287538   4.465   3.237   7.461
61881SOL     OW87539   4.685  10.166   0.105
61881SOL    HW187540   4.668  10.143   0.196
61881SOL    HW287541   4.750  10.103   0.076
61882SOL     OW87542   3.349   3.289   2.882
61882SOL    HW187543   3.272   3.261   2.832
61882SOL    HW287544   3.312   3.329   2.961
61883SOL     OW87545  12.484   7.565  14.793
61883SOL    HW187546  12.545   7.633  14.768
61883SOL    HW287547  12.399   7.595  14.761
61884SOL     OW87548   2.710   6.750   3.783
61884SOL    HW187549   2.711   6.845   3.774
61884SOL    HW287550   2.644   6.733   3.851
61885SOL     OW87551  13.720   0.096  11.897
61885SOL    HW187552  13.766   0.042  11.833
61885SOL    HW287553  13.771   0.177  11.901
61886SOL     OW87554   5.395  12.661  12.240
61886SOL    HW187555   5.401  12.660  12.335
61886SOL    HW287556   5.463  12.599  12.211
61887SOL     OW87557  12.986   5.011   6.437
61887SOL    HW187558  13.002   5.051   6.523
61887SOL    HW287559  12.950   4.925   6.458
61888SOL     OW87560  14.157   5.557   3.035
61888SOL    HW187561  14.213   5.586   2.964
61888SOL    HW287562  14.069   5.557   2.998
61889SOL     OW87563   8.200   1.353   3.907
61889SOL    HW187564   8.247   1.389   3.982
61889SOL    HW287565   8.125   1.307   3.945
61890SOL     OW87566  14.301   1.124  13.835
61890SOL    HW187567  14.278   1.207  13.878
61890SOL    HW287568  14.387   1.102  13.869
61891SOL     OW87569   2.062  13.827   9.744
61891SOL    HW187570   1.974  13.792   9.760
61891SOL    HW287571   2.059  13.856   9.653
61892SOL     OW87572   9.452  13.619   9.434
61892SOL    HW187573   9.436  13.574   9.351
61892SOL    HW287574   9.548  13.624   9.440
61893SOL     OW87575   7.323   3.569   4.540
61893SOL    HW187576   7.259   3.640   4.532
61893SOL    HW287577   7.387   3.587   4.470
61894SOL     OW87578   5.895   5.463   9.424
61894SOL    HW187579   5.894   5.388   9.484
61894SOL    HW287580   5.810   5.459   9.380
61895SOL     OW87581  14.103   7.208   1.426
61895SOL    HW187582  14.109   7.134   1.486
61895SOL    HW287583  14.032   7.262   1.461
61896SOL     OW87584   5.568  10.517   7.214
61896SOL    HW187585   5.620  10.569   7.153
61896SOL    HW287586   5.620  10.515   7.294
61897SOL     OW87587   3.005   1.427   5.228
61897SOL    HW187588   3.076   1.486   5.206
61897SOL    HW287589   3.042   1.371   5.297
61898SOL     OW87590  10.664  10.435   1.701
61898SOL    HW187591  10.673  10.420   1.607
61898SOL    HW287592  10.743  10.397   1.739
61899SOL     OW87593   2.449  10.067   1.349
61899SOL    HW187594   2.510  10.096   1.282
61899SOL    HW287595   2.363  10.091   1.315
61900SOL     OW87596   5.859  12.317   9.306
61900SOL    HW187597   5.906  12.333   9.224
61900SOL    HW287598   5.790  12.254   9.283
61901SOL     OW87599  10.433   0.070   8.678
61901SOL    HW187600  10.519   0.033   8.698
61901SOL    HW287601  10.371   0.014   8.723
61902SOL     OW87602  14.295   8.388  14.238
61902SOL    HW187603  14.292   8.373  14.333
61902SOL    HW287604  14.247   8.314  14.201
61903SOL     OW87605  14.414   8.927   9.338
61903SOL    HW187606  14.475   8.962   9.272
61903SOL    HW287607  14.370   9.005   9.372
61904SOL     OW87608  14.670   2.186  10.052
61904SOL    HW187609  14.650   2.203   9.960
61904SOL    HW287610  14.710   2.268  10.083
61905SOL     OW87611   8.747   9.021  13.948
61905SOL    HW187612   8.801   9.093  13.914
61905SOL    HW287613   8.658   9.056  13.946
61906SOL     OW87614   1.693  10.872  13.865
61906SOL    HW187615   1.725  10.833  13.947
61906SOL    HW287616   1.716  10.808  13.798
61907SOL     OW87617   4.915   2.422   7.096
61907SOL    HW187618   4.967   2.344   7.079
61907SOL    HW287619   4.830   2.388   7.125
61908SOL     OW87620   1.439  13.210   8.025
61908SOL    HW187621   1.368  13.202   7.961
61908SOL    HW287622   1.519  13.205   7.973
61909SOL     OW87623   5.353   3.369  11.872
61909SOL    HW187624   5.380   3.461  11.880
61909SOL    HW287625   5.281   3.371  11.809
61910SOL     OW87626   5.578   9.894   3.114
61910SOL    HW187627   5.500   9.938   3.078
61910SOL    HW287628   5.639   9.891   3.040
61911SOL     OW87629   0.387   0.816   2.352
61911SOL    HW187630   0.450   0.804   2.281
61911SOL    HW287631   0.440   0.822   2.431
61912SOL     OW87632   1.858  12.625   8.586
61912SOL    HW187633   1.922  12.660   8.648
61912SOL    HW287634   1.788  12.690   8.584
61913SOL     OW87635   2.038   7.220   1.921
61913SOL    HW187636   2.072   7.283   1.985
61913SOL    HW287637   2.030   7.271   1.840
61914SOL     OW87638  10.271  12.301   6.108
61914SOL    HW187639  10.179  12.323   6.124
61914SOL    HW287640  10.273  12.205   6.113
61915SOL     OW87641   2.620   2.703  10.676
61915SOL    HW187642   2.674   2.652  10.737
61915SOL    HW287643   2.532   2.698  10.713
61916SOL     OW87644   4.535   0.090   6.572
61916SOL    HW187645   4.498   0.130   6.493
61916SOL    HW287646   4.507  14.878   6.567
61917SOL     OW87647   3.662   9.001  12.510
61917SOL    HW187648   3.681   9.023  12.419
61917SOL    HW287649   3.726   8.932  12.532
61918SOL     OW87650  12.267  12.274   9.210
61918SOL    HW187651  12.332  12.205   9.196
61918SOL    HW287652  12.190  12.246   9.161
61919SOL     OW87653   3.213   2.255   4.210
61919SOL    HW187654   3.161   2.213   4.279
61919SOL    HW287655   3.200   2.200   4.133
61920SOL     OW87656  11.521  12.550   5.160
61920SOL    HW187657  11.478  12.603   5.228
61920SOL    HW287658  11.457  12.547   5.089
61921SOL     OW87659   7.699   3.332   7.606
61921SOL    HW187660   7.693   3.298   7.516
61921SOL    HW287661   7.742   3.417   7.596
61922SOL     OW87662  13.164   3.381   8.402
61922SOL    HW187663  13.251   3.421   8.410
61922SOL    HW287664  13.147   3.378   8.308
61923SOL     OW87665   3.255   7.165   1.511
61923SOL    HW187666   3.309   7.239   1.483
61923SOL    HW287667   3.166   7.199   1.514
61924SOL     OW87668  10.286   2.687   3.467
61924SOL    HW187669  10.198   2.723   3.456
61924SOL    HW287670  10.275   2.618   3.533
61925SOL     OW87671   5.566  10.515   2.085
61925SOL    HW187672   5.626  10.584   2.056
61925SOL    HW287673   5.588  10.439   2.030
61926SOL     OW87674  10.204   3.650  12.179
61926SOL    HW187675  10.172   3.575  12.128
61926SOL    HW287676  10.219   3.718  12.113
61927SOL     OW87677   0.338  12.113   9.200
61927SOL    HW187678   0.350  12.090   9.292
61927SOL    HW287679   0.246  12.135   9.193
61928SOL     OW87680   8.722   7.659   3.504
61928SOL    HW187681   8.746   7.721   3.573
61928SOL    HW287682   8.746   7.703   3.422
61929SOL     OW87683  13.728   7.628   8.880
61929SOL    HW187684  13.645   7.596   8.916
61929SOL    HW287685  13.712   7.636   8.786
61930SOL     OW87686   9.609   6.302  12.340
61930SOL    HW187687   9.661   6.361  12.395
61930SOL    HW287688   9.581   6.232  12.399
61931SOL     OW87689   8.157   1.556   0.685
61931SOL    HW187690   8.171   1.639   0.731
61931SOL    HW287691   8.107   1.580   0.607
61932SOL     OW87692   1.339  11.408   8.911
61932SOL    HW187693   1.368  11.486   8.958
61932SOL    HW287694   1.252  11.390   8.945
61933SOL     OW87695   1.284  12.959   5.166
61933SOL    HW187696   1.342  12.937   5.238
61933SOL    HW287697   1.232  13.033   5.198
61934SOL     OW87698   6.991   0.326   1.068
61934SOL    HW187699   6.910   0.279   1.090
61934SOL    HW287700   7.059   0.279   1.117
61935SOL     OW87701   6.770   7.062   8.691
61935SOL    HW187702   6.859   7.066   8.727
61935SOL    HW287703   6.781   7.081   8.598
61936SOL     OW87704  13.696   5.398  10.625
61936SOL    HW187705  13.681   5.338  10.552
61936SOL    HW287706  13.766   5.356  10.675
61937SOL     OW87707   3.432  11.380  14.353
61937SOL    HW187708   3.437  11.392  14.448
61937SOL    HW287709   3.511  11.331  14.331
61938SOL     OW87710  10.997  13.962   8.540
61938SOL    HW187711  11.025  14.048   8.572
61938SOL    HW287712  11.052  13.900   8.587
61939SOL     OW87713   1.707  12.021  14.488
61939SOL    HW187714   1.670  11.945  14.445
61939SOL    HW287715   1.637  12.086  14.487
61940SOL     OW87716   7.564   9.123   6.548
61940SOL    HW187717   7.484   9.169   6.524
61940SOL    HW287718   7.573   9.053   6.483
61941SOL     OW87719  10.774  10.894  12.942
61941SOL    HW187720  10.687  10.856  12.944
61941SOL    HW287721  10.834  10.820  12.950
61942SOL     OW87722   7.371   4.865  12.519
61942SOL    HW187723   7.378   4.865  12.423
61942SOL    HW287724   7.336   4.778  12.541
61943SOL     OW87725   3.994   8.237   6.950
61943SOL    HW187726   3.958   8.321   6.977
61943SOL    HW287727   4.046   8.257   6.872
61944SOL     OW87728   3.058  14.104   5.882
61944SOL    HW187729   3.094  14.125   5.968
61944SOL    HW287730   3.049  14.009   5.882
61945SOL     OW87731  11.755  12.300   0.718
61945SOL    HW187732  11.770  12.388   0.685
61945SOL    HW287733  11.776  12.306   0.812
61946SOL     OW87734   2.479  10.442   0.623
61946SOL    HW187735   2.392  10.472   0.599
61946SOL    HW287736   2.474  10.424   0.717
61947SOL     OW87737   0.515   9.841  14.500
61947SOL    HW187738   0.550   9.753  14.483
61947SOL    HW287739   0.568   9.899  14.446
61948SOL     OW87740   5.934   9.188   0.218
61948SOL    HW187741   5.935   9.241   0.298
61948SOL    HW287742   5.988   9.111   0.239
61949SOL     OW87743  13.566   5.270   2.348
61949SOL    HW187744  13.600   5.192   2.304
61949SOL    HW287745  13.556   5.335   2.278
61950SOL     OW87746   5.760   5.785   4.353
61950SOL    HW187747   5.713   5.774   4.435
61950SOL    HW287748   5.838   5.834   4.376
61951SOL     OW87749   4.193  13.656   7.089
61951SOL    HW187750   4.281  13.632   7.118
61951SOL    HW287751   4.207  13.725   7.024
61952SOL     OW87752   9.522   8.414   0.728
61952SOL    HW187753   9.575   8.335   0.723
61952SOL    HW287754   9.510   8.430   0.821
61953SOL     OW87755   6.672   5.178   7.661
61953SOL    HW187756   6.692   5.209   7.750
61953SOL    HW287757   6.576   5.175   7.658
61954SOL     OW87758  13.574   9.656   5.023
61954SOL    HW187759  13.492   9.706   5.024
61954SOL    HW287760  13.597   9.647   5.115
61955SOL     OW87761   7.706  12.230   9.027
61955SOL    HW187762   7.666  12.260   8.946
61955SOL    HW287763   7.719  12.136   9.014
61956SOL     OW87764   2.390  11.950  13.746
61956SOL    HW187765   2.431  11.888  13.686
61956SOL    HW287766   2.320  11.900  13.787
61957SOL     OW87767  14.004  12.618   0.860
61957SOL    HW187768  14.099  12.631   0.868
61957SOL    HW287769  13.991  12.593   0.768
61958SOL     OW87770   3.680   0.135   5.775
61958SOL    HW187771   3.640   0.222   5.770
61958SOL    HW287772   3.768   0.147   5.740
61959SOL     OW87773   8.539   6.870  14.109
61959SOL    HW187774   8.625   6.911  14.111
61959SOL    HW287775   8.478   6.942  14.121
61960SOL     OW87776  12.262   1.352   3.863
61960SOL    HW187777  12.326   1.407   3.908
61960SOL    HW287778  12.209   1.414   3.812
61961SOL     OW87779   9.998   6.949  12.649
61961SOL    HW187780  10.012   6.895  12.571
61961SOL    HW287781   9.914   6.993  12.633
61962SOL     OW87782   3.243   7.491   7.292
61962SOL    HW187783   3.200   7.569   7.325
61962SOL    HW287784   3.256   7.509   7.198
61963SOL     OW87785   9.927   2.119   0.377
61963SOL    HW187786   9.930   2.029   0.345
61963SOL    HW287787   9.963   2.115   0.466
61964SOL     OW87788   3.387   3.336  10.682
61964SOL    HW187789   3.338   3.278  10.740
61964SOL    HW287790   3.320   3.388  10.637
61965SOL     OW87791  11.818  14.165   0.741
61965SOL    HW187792  11.869  14.106   0.796
61965SOL    HW287793  11.828  14.251   0.783
61966SOL     OW87794   5.392   5.938   3.584
61966SOL    HW187795   5.369   5.867   3.644
61966SOL    HW287796   5.477   5.969   3.615
61967SOL     OW87797   2.624   0.961   9.242
61967SOL    HW187798   2.667   0.901   9.181
61967SOL    HW287799   2.539   0.979   9.201
61968SOL     OW87800   2.967   8.360   1.316
61968SOL    HW187801   2.960   8.279   1.366
61968SOL    HW287802   3.049   8.399   1.346
61969SOL     OW87803   3.750   6.363   6.082
61969SOL    HW187804   3.795   6.299   6.027
61969SOL    HW287805   3.686   6.310   6.130
61970SOL     OW87806  13.630  10.273   3.681
61970SOL    HW187807  13.558  10.288   3.742
61970SOL    HW287808  13.591  10.223   3.609
61971SOL     OW87809  12.296  14.159   3.409
61971SOL    HW187810  12.313  14.095   3.478
61971SOL    HW287811  12.383  14.183   3.377
61972SOL     OW87812  14.149  13.380   5.040
61972SOL    HW187813  14.166  13.380   4.946
61972SOL    HW287814  14.236  13.383   5.080
61973SOL     OW87815   8.676   7.296   9.334
61973SOL    HW187816   8.721   7.263   9.412
61973SOL    HW287817   8.585   7.266   9.345
61974SOL     OW87818   6.291  13.496  10.568
61974SOL    HW187819   6.271  13.477  10.659
61974SOL    HW287820   6.209  13.531  10.532
61975SOL     OW87821   2.002   7.711   2.661
61975SOL    HW187822   1.909   7.703   2.642
61975SOL    HW287823   2.041   7.632   2.624
61976SOL     OW87824   4.455  10.101  10.629
61976SOL    HW187825   4.518  10.169  10.605
61976SOL    HW287826   4.465  10.090  10.724
61977SOL     OW87827   5.416  11.468   2.546
61977SOL    HW187828   5.512  11.476   2.539
61977SOL    HW287829   5.402  11.380   2.580
61978SOL     OW87830   4.949  12.905  14.022
61978SOL    HW187831   4.925  12.952  14.103
61978SOL    HW287832   4.926  12.966  13.952
61979SOL     OW87833  10.539   3.080  13.299
61979SOL    HW187834  10.496   2.995  13.300
61979SOL    HW287835  10.561   3.095  13.207
61980SOL     OW87836   8.826  11.501  11.274
61980SOL    HW187837   8.757  11.549  11.229
61980SOL    HW287838   8.876  11.459  11.203
61981SOL     OW87839  13.840   7.253  13.388
61981SOL    HW187840  13.785   7.316  13.340
61981SOL    HW287841  13.930   7.278  13.366
61982SOL     OW87842   9.354   5.643   0.935
61982SOL    HW187843   9.383   5.730   0.965
61982SOL    HW287844   9.301   5.661   0.858
61983SOL     OW87845   8.234   3.125   5.311
61983SOL    HW187846   8.277   3.211   5.311
61983SOL    HW287847   8.229   3.100   5.403
61984SOL     OW87848   3.785   0.829  11.192
61984SOL    HW187849   3.757   0.768  11.260
61984SOL    HW287850   3.828   0.774  11.126
61985SOL     OW87851   2.918   2.272   7.974
61985SOL    HW187852   2.974   2.294   7.900
61985SOL    HW287853   2.831   2.262   7.936
61986SOL     OW87854  14.769   9.888   8.419
61986SOL    HW187855  14.690   9.938   8.401
61986SOL    HW287856  14.818   9.942   8.482
61987SOL     OW87857  13.943   0.603  11.751
61987SOL    HW187858  13.864   0.625  11.701
61987SOL    HW287859  14.009   0.584  11.685
61988SOL     OW87860  14.835  11.901   0.641
61988SOL    HW187861   0.015  11.945   0.581
61988SOL    HW287862  14.764  11.869   0.585
61989SOL     OW87863   0.955   2.069   2.428
61989SOL    HW187864   1.003   1.986   2.429
61989SOL    HW287865   0.880   2.051   2.371
61990SOL     OW87866   7.149  13.179  11.417
61990SOL    HW187867   7.184  13.192  11.329
61990SOL    HW287868   7.055  13.174  11.406
61991SOL     OW87869   6.227   4.524   0.232
61991SOL    HW187870   6.272   4.588   0.177
61991SOL    HW287871   6.215   4.570   0.316
61992SOL     OW87872  11.807   2.378   9.399
61992SOL    HW187873  11.890   2.405   9.438
61992SOL    HW287874  11.814   2.283   9.392
61993SOL     OW87875   1.741  10.683  10.399
61993SOL    HW187876   1.799  10.742  10.448
61993SOL    HW287877   1.663  10.676  10.453
61994SOL     OW87878   2.703   1.183   3.841
61994SOL    HW187879   2.688   1.155   3.931
61994SOL    HW287880   2.615   1.191   3.803
61995SOL     OW87881   6.900  14.686  12.050
61995SOL    HW187882   6.850  14.632  11.989
61995SOL    HW287883   6.920  14.766  12.001
61996SOL     OW87884   8.499   4.794  13.822
61996SOL    HW187885   8.417   4.761  13.859
61996SOL    HW287886   8.480   4.884  13.797
61997SOL     OW87887   8.318  10.709   2.261
61997SOL    HW187888   8.353  10.744   2.179
61997SOL    HW287889   8.225  10.695   2.244
61998SOL     OW87890  13.227  13.498   6.430
61998SOL    HW187891  13.133  13.480   6.427
61998SOL    HW287892  13.254  13.502   6.338
61999SOL     OW87893   4.686   3.810   5.010
61999SOL    HW187894   4.601   3.853   5.018
61999SOL    HW287895   4.728   3.852   4.935
62000SOL     OW87896   3.761   8.141   4.193
62000SOL    HW187897   3.766   8.108   4.103
62000SOL    HW287898   3.730   8.066   4.243
62001SOL     OW87899   5.267   4.675   5.205
62001SOL    HW187900   5.339   4.655   5.145
62001SOL    HW287901   5.290   4.761   5.241
62002SOL     OW87902  12.838  13.148   7.711
62002SOL    HW187903  12.769  13.214   7.711
62002SOL    HW287904  12.793  13.065   7.699
62003SOL     OW87905   4.818   2.258   6.495
62003SOL    HW187906   4.874   2.273   6.571
62003SOL    HW287907   4.872   2.208   6.434
62004SOL     OW87908   3.162   1.304  14.781
62004SOL    HW187909   3.087   1.308  14.840
62004SOL    HW287910   3.175   1.210  14.766
62005SOL     OW87911   4.349   2.042  10.098
62005SOL    HW187912   4.296   2.016  10.173
62005SOL    HW287913   4.423   2.089  10.136
62006SOL     OW87914   2.119   3.250   6.715
62006SOL    HW187915   2.077   3.294   6.641
62006SOL    HW287916   2.055   3.185   6.744
62007SOL     OW87917  13.020  12.495  11.234
62007SOL    HW187918  13.050  12.571  11.286
62007SOL    HW287919  13.039  12.420  11.289
62008SOL     OW87920  10.059   3.445  11.588
62008SOL    HW187921  10.026   3.497  11.661
62008SOL    HW287922  10.112   3.507  11.536
62009SOL     OW87923  10.832   4.381  14.828
62009SOL    HW187924  10.815   4.475  14.833
62009SOL    HW287925  10.824   4.360  14.735
62010SOL     OW87926  11.086   1.223  13.381
62010SOL    HW187927  11.160   1.165  13.364
62010SOL    HW287928  11.117   1.310  13.355
62011SOL     OW87929   3.016   8.581  12.512
62011SOL    HW187930   2.996   8.529  12.434
62011SOL    HW287931   2.957   8.656  12.506
62012SOL     OW87932   1.806   8.408   4.425
62012SOL    HW187933   1.814   8.446   4.338
62012SOL    HW287934   1.896   8.393   4.454
62013SOL     OW87935  11.527   9.316   4.644
62013SOL    HW187936  11.577   9.273   4.574
62013SOL    HW287937  11.436   9.295   4.624
62014SOL     OW87938  10.497   5.233   3.922
62014SOL    HW187939  10.546   5.173   3.866
62014SOL    HW287940  10.532   5.219   4.009
62015SOL     OW87941   4.697   7.062  13.147
62015SOL    HW187942   4.641   6.995  13.106
62015SOL    HW287943   4.636   7.132  13.170
62016SOL     OW87944   6.470   9.781   6.909
62016SOL    HW187945   6.481   9.818   6.821
62016SOL    HW287946   6.479   9.856   6.968
62017SOL     OW87947   9.939   7.757   2.293
62017SOL    HW187948   9.905   7.690   2.354
62017SOL    HW287949   9.868   7.821   2.287
62018SOL     OW87950   2.131  13.704  13.376
62018SOL    HW187951   2.186  13.746  13.442
62018SOL    HW287952   2.042  13.719  13.405
62019SOL     OW87953   4.638   0.307   7.595
62019SOL    HW187954   4.651   0.402   7.605
62019SOL    HW287955   4.727   0.271   7.596
62020SOL     OW87956   6.333   1.020   7.122
62020SOL    HW187957   6.336   1.114   7.103
62020SOL    HW287958   6.398   1.008   7.192
62021SOL     OW87959  13.142  12.189   3.571
62021SOL    HW187960  13.184  12.107   3.596
62021SOL    HW287961  13.111  12.174   3.482
62022SOL     OW87962  10.561   9.613  12.661
62022SOL    HW187963  10.619   9.641  12.589
62022SOL    HW287964  10.607   9.640  12.740
62023SOL     OW87965  13.090  10.167  12.491
62023SOL    HW187966  13.110  10.128  12.576
62023SOL    HW287967  12.995  10.159  12.483
62024SOL     OW87968  11.479  11.231   8.861
62024SOL    HW187969  11.394  11.187   8.861
62024SOL    HW287970  11.491  11.262   8.772
62025SOL     OW87971   2.092   6.509   3.930
62025SOL    HW187972   2.032   6.503   4.004
62025SOL    HW287973   2.043   6.555   3.862
62026SOL     OW87974   6.775   9.820  11.211
62026SOL    HW187975   6.817   9.758  11.151
62026SOL    HW287976   6.684   9.793  11.214
62027SOL     OW87977   3.544  11.192  14.875
62027SOL    HW187978   3.505  11.279  14.864
62027SOL    HW287979   3.602  11.201   0.071
62028SOL     OW87980  14.501   3.928   2.298
62028SOL    HW187981  14.444   3.986   2.350
62028SOL    HW287982  14.467   3.935   2.209
62029SOL     OW87983   3.853   3.204   2.102
62029SOL    HW187984   3.773   3.252   2.080
62029SOL    HW287985   3.900   3.263   2.161
62030SOL     OW87986   6.256   6.723  14.678
62030SOL    HW187987   6.249   6.807  14.724
62030SOL    HW287988   6.314   6.742  14.604
62031SOL     OW87989   0.976  14.262   2.508
62031SOL    HW187990   0.998  14.185   2.561
62031SOL    HW287991   0.883  14.251   2.487
62032SOL     OW87992   9.178   8.829  14.277
62032SOL    HW187993   9.253   8.782  14.241
62032SOL    HW287994   9.139   8.875  14.203
62033SOL     OW87995   3.760   6.618   9.948
62033SOL    HW187996   3.679   6.568   9.941
62033SOL    HW287997   3.799   6.591  10.031
62034SOL     OW87998   4.966   6.661  10.889
62034SOL    HW187999   4.877   6.682  10.916
62034SOL    HW288000   4.968   6.679  10.795
62035SOL     OW88001   2.145   9.313   3.572
62035SOL    HW188002   2.188   9.398   3.569
62035SOL    HW288003   2.216   9.250   3.564
62036SOL     OW88004  10.241  10.331   6.258
62036SOL    HW188005  10.187  10.253   6.270
62036SOL    HW288006  10.331  10.297   6.250
62037SOL     OW88007  12.466   2.132  14.396
62037SOL    HW188008  12.469   2.191  14.471
62037SOL    HW288009  12.452   2.189  14.321
62038SOL     OW88010   9.818  11.969   8.489
62038SOL    HW188011   9.848  12.052   8.525
62038SOL    HW288012   9.898  11.922   8.465
62039SOL     OW88013   1.803   8.108  14.162
62039SOL    HW188014   1.720   8.155  14.152
62039SOL    HW288015   1.837   8.138  14.247
62040SOL     OW88016  11.814   2.618   7.691
62040SOL    HW188017  11.737   2.567   7.718
62040SOL    HW288018  11.881   2.595   7.755
62041SOL     OW88019  10.194  10.152   6.893
62041SOL    HW188020  10.176  10.133   6.801
62041SOL    HW288021  10.276  10.202   6.892
62042SOL     OW88022   6.423  14.198  12.963
62042SOL    HW188023   6.453  14.110  12.982
62042SOL    HW288024   6.335  14.203  13.000
62043SOL     OW88025   0.959   3.987  10.569
62043SOL    HW188026   1.040   3.952  10.532
62043SOL    HW288027   0.958   3.953  10.659
62044SOL     OW88028   7.590   6.533   9.571
62044SOL    HW188029   7.520   6.471   9.550
62044SOL    HW288030   7.623   6.561   9.486
62045SOL     OW88031   8.327   0.353   0.436
62045SOL    HW188032   8.284   0.268   0.422
62045SOL    HW288033   8.255   0.416   0.435
62046SOL     OW88034   3.827   7.620  12.226
62046SOL    HW188035   3.887   7.547  12.240
62046SOL    HW288036   3.869   7.695  12.269
62047SOL     OW88037  11.017   1.807   8.603
62047SOL    HW188038  11.073   1.850   8.667
62047SOL    HW288039  10.950   1.872   8.582
62048SOL     OW88040   1.816  14.215  10.219
62048SOL    HW188041   1.885  14.221  10.153
62048SOL    HW288042   1.735  14.230  10.171
62049SOL     OW88043   7.293  12.153   0.476
62049SOL    HW188044   7.271  12.156   0.569
62049SOL    HW288045   7.210  12.173   0.432
62050SOL     OW88046  12.973   4.790  11.738
62050SOL    HW188047  13.062   4.775  11.769
62050SOL    HW288048  12.982   4.859  11.672
62051SOL     OW88049   6.953   2.610  10.980
62051SOL    HW188050   6.867   2.652  10.972
62051SOL    HW288051   6.971   2.611  11.074
62052SOL     OW88052   8.244   1.603   7.831
62052SOL    HW188053   8.173   1.540   7.821
62052SOL    HW288054   8.324   1.550   7.831
62053SOL     OW88055   2.425   4.915  13.200
62053SOL    HW188056   2.449   5.003  13.172
62053SOL    HW288057   2.496   4.888  13.258
62054SOL     OW88058   6.328   5.580   4.543
62054SOL    HW188059   6.242   5.619   4.558
62054SOL    HW288060   6.327   5.553   4.451
62055SOL     OW88061   7.277   0.506  12.515
62055SOL    HW188062   7.357   0.558  12.508
62055SOL    HW288063   7.272   0.457  12.433
62056SOL     OW88064  10.858  10.227  10.262
62056SOL    HW188065  10.763  10.214  10.270
62056SOL    HW288066  10.867  10.318  10.233
62057SOL     OW88067   0.878  11.823  14.298
62057SOL    HW188068   0.878  11.899  14.239
62057SOL    HW288069   0.922  11.755  14.248
62058SOL     OW88070  14.220   1.974   1.116
62058SOL    HW188071  14.222   1.915   1.041
62058SOL    HW288072  14.174   2.051   1.085
62059SOL     OW88073   6.909  14.760  13.998
62059SOL    HW188074   6.975  14.803  13.944
62059SOL    HW288075   6.856  14.710  13.935
62060SOL     OW88076  10.125   4.094  10.092
62060SOL    HW188077  10.095   4.074  10.003
62060SOL    HW288078  10.056   4.060  10.148
62061SOL     OW88079  14.417  14.144   3.793
62061SOL    HW188080  14.333  14.155   3.750
62061SOL    HW288081  14.461  14.075   3.744
62062SOL     OW88082   9.241   1.344   2.787
62062SOL    HW188083   9.187   1.317   2.861
62062SOL    HW288084   9.178   1.373   2.721
62063SOL     OW88085   8.280  10.452   1.828
62063SOL    HW188086   8.236  10.418   1.906
62063SOL    HW288087   8.290  10.377   1.770
62064SOL     OW88088   3.473  10.074   5.065
62064SOL    HW188089   3.451  10.015   5.137
62064SOL    HW288090   3.532  10.138   5.104
62065SOL     OW88091  13.712   4.571   9.063
62065SOL    HW188092  13.751   4.651   9.027
62065SOL    HW288093  13.704   4.513   8.988
62066SOL     OW88094   5.320   7.658  10.152
62066SOL    HW188095   5.380   7.692  10.085
62066SOL    HW288096   5.369   7.586  10.193
62067SOL     OW88097   6.489   8.262   2.787
62067SOL    HW188098   6.412   8.233   2.835
62067SOL    HW288099   6.486   8.357   2.794
62068SOL     OW88100  13.962   8.926   9.569
62068SOL    HW188101  13.974   8.918   9.474
62068SOL    HW288102  14.007   8.849   9.605
62069SOL     OW88103   7.436  11.335   4.891
62069SOL    HW188104   7.440  11.429   4.908
62069SOL    HW288105   7.490  11.296   4.960
62070SOL     OW88106   5.904   3.573   0.911
62070SOL    HW188107   5.949   3.593   0.828
62070SOL    HW288108   5.813   3.558   0.886
62071SOL     OW88109  10.666  11.691  13.442
62071SOL    HW188110  10.645  11.759  13.505
62071SOL    HW288111  10.632  11.723  13.358
62072SOL     OW88112   0.998  14.336  13.037
62072SOL    HW188113   0.905  14.348  13.058
62072SOL    HW288114   1.017  14.405  12.974
62073SOL     OW88115  10.145   3.331  14.285
62073SOL    HW188116  10.168   3.408  14.232
62073SOL    HW288117  10.091   3.367  14.356
62074SOL     OW88118   4.649  12.883   2.405
62074SOL    HW188119   4.598  12.804   2.424
62074SOL    HW288120   4.583  12.952   2.392
62075SOL     OW88121   9.334   4.995   2.439
62075SOL    HW188122   9.376   4.910   2.424
62075SOL    HW288123   9.315   4.995   2.532
62076SOL     OW88124  14.227   7.081   4.142
62076SOL    HW188125  14.299   7.138   4.114
62076SOL    HW288126  14.150   7.138   4.141
62077SOL     OW88127   1.361  10.168   1.629
62077SOL    HW188128   1.406  10.253   1.627
62077SOL    HW288129   1.268  10.190   1.634
62078SOL     OW88130   1.400   9.942   5.316
62078SOL    HW188131   1.324   9.925   5.260
62078SOL    HW288132   1.394   9.875   5.384
62079SOL     OW88133   0.234   5.741   1.919
62079SOL    HW188134   0.153   5.752   1.969
62079SOL    HW288135   0.297   5.799   1.962
62080SOL     OW88136   5.478   6.018  10.899
62080SOL    HW188137   5.477   5.974  10.984
62080SOL    HW288138   5.395   5.993  10.859
62081SOL     OW88139  12.145   1.680   9.293
62081SOL    HW188140  12.214   1.618   9.269
62081SOL    HW288141  12.170   1.709   9.381
62082SOL     OW88142   3.011   0.873   4.801
62082SOL    HW188143   3.030   0.913   4.886
62082SOL    HW288144   3.010   0.779   4.819
62083SOL     OW88145   6.184   3.707  14.094
62083SOL    HW188146   6.220   3.659  14.169
62083SOL    HW288147   6.212   3.656  14.018
62084SOL     OW88148  11.502   0.712   0.737
62084SOL    HW188149  11.501   0.617   0.752
62084SOL    HW288150  11.578   0.726   0.679
62085SOL     OW88151  13.392   5.764   0.574
62085SOL    HW188152  13.406   5.820   0.651
62085SOL    HW288153  13.465   5.702   0.576
62086SOL     OW88154   4.253   5.579   8.797
62086SOL    HW188155   4.335   5.565   8.749
62086SOL    HW288156   4.208   5.648   8.748
62087SOL     OW88157  13.692   9.572   7.558
62087SOL    HW188158  13.782   9.544   7.547
62087SOL    HW288159  13.698   9.661   7.592
62088SOL     OW88160   4.102  14.667   9.569
62088SOL    HW188161   4.185  14.623   9.591
62088SOL    HW288162   4.040  14.633   9.633
62089SOL     OW88163   9.393  12.300   0.039
62089SOL    HW188164   9.482  12.285   0.007
62089SOL    HW288165   9.343  12.223   0.008
62090SOL     OW88166  10.134   5.503   6.007
62090SOL    HW188167  10.045   5.538   6.005
62090SOL    HW288168  10.171   5.536   6.089
62091SOL     OW88169   4.405   6.568   7.361
62091SOL    HW188170   4.340   6.498   7.359
62091SOL    HW288171   4.484   6.527   7.396
62092SOL     OW88172   1.402  14.854   7.955
62092SOL    HW188173   1.455  14.779   7.925
62092SOL    HW288174   1.358   0.005   7.876
62093SOL     OW88175  14.334  11.775  14.401
62093SOL    HW188176  14.428  11.755  14.399
62093SOL    HW288177  14.315  11.813  14.315
62094SOL     OW88178   0.759   8.922   9.269
62094SOL    HW188179   0.733   8.984   9.201
62094SOL    HW288180   0.720   8.955   9.349
62095SOL     OW88181  11.751  10.312  12.119
62095SOL    HW188182  11.764  10.295  12.025
62095SOL    HW288183  11.765  10.406  12.128
62096SOL     OW88184   8.878  13.937  13.103
62096SOL    HW188185   8.897  13.859  13.051
62096SOL    HW288186   8.929  14.007  13.062
62097SOL     OW88187  13.889  13.007  14.088
62097SOL    HW188188  13.805  13.021  14.043
62097SOL    HW288189  13.888  12.914  14.111
62098SOL     OW88190   7.053  11.349   4.506
62098SOL    HW188191   7.025  11.438   4.483
62098SOL    HW288192   7.097  11.359   4.590
62099SOL     OW88193   6.383  14.435   4.118
62099SOL    HW188194   6.402  14.489   4.194
62099SOL    HW288195   6.302  14.389   4.141
62100SOL     OW88196  10.848   3.112   2.483
62100SOL    HW188197  10.813   3.201   2.483
62100SOL    HW288198  10.890   3.102   2.398
62101SOL     OW88199   8.024   2.277   7.598
62101SOL    HW188200   8.099   2.219   7.587
62101SOL    HW288201   8.004   2.309   7.510
62102SOL     OW88202   7.297   3.413   4.773
62102SOL    HW188203   7.337   3.431   4.859
62102SOL    HW288204   7.329   3.483   4.717
62103SOL     OW88205  14.116   0.276   4.177
62103SOL    HW188206  14.021   0.289   4.184
62103SOL    HW288207  14.141   0.237   4.261
62104SOL     OW88208  12.803   1.300   7.351
62104SOL    HW188209  12.894   1.305   7.378
62104SOL    HW288210  12.800   1.343   7.266
62105SOL     OW88211   6.771  10.868   7.127
62105SOL    HW188212   6.766  10.856   7.222
62105SOL    HW288213   6.782  10.780   7.092
62106SOL     OW88214  10.040   2.354   7.136
62106SOL    HW188215   9.997   2.438   7.126
62106SOL    HW288216  10.083   2.339   7.052
62107SOL     OW88217   1.570   4.094   4.085
62107SOL    HW188218   1.645   4.036   4.099
62107SOL    HW288219   1.499   4.036   4.058
62108SOL     OW88220   8.115   4.968  11.744
62108SOL    HW188221   8.136   5.058  11.770
62108SOL    HW288222   8.107   4.972  11.649
62109SOL     OW88223   6.417   0.809  11.651
62109SOL    HW188224   6.456   0.726  11.680
62109SOL    HW288225   6.476   0.876  11.685
62110SOL     OW88226  13.814  10.286  14.254
62110SOL    HW188227  13.761  10.272  14.332
62110SOL    HW288228  13.874  10.212  14.253
62111SOL     OW88229  10.491   2.849   5.040
62111SOL    HW188230  10.510   2.929   4.993
62111SOL    HW288231  10.398   2.832   5.023
62112SOL     OW88232   6.913   3.851   5.617
62112SOL    HW188233   6.979   3.919   5.607
62112SOL    HW288234   6.843   3.893   5.667
62113SOL     OW88235  13.695  10.685   7.036
62113SOL    HW188236  13.788  10.666   7.043
62113SOL    HW288237  13.690  10.780   7.025
62114SOL     OW88238   0.755   1.828   1.453
62114SOL    HW188239   0.783   1.806   1.364
62114SOL    HW288240   0.836   1.829   1.504
62115SOL     OW88241   6.278   8.450  12.670
62115SOL    HW188242   6.244   8.363  12.647
62115SOL    HW288243   6.215   8.485  12.733
62116SOL     OW88244   5.865   3.107   2.003
62116SOL    HW188245   5.879   3.140   1.915
62116SOL    HW288246   5.819   3.178   2.048
62117SOL     OW88247   2.151   6.207   9.532
62117SOL    HW188248   2.208   6.275   9.498
62117SOL    HW288249   2.210   6.134   9.551
62118SOL     OW88250   7.584   5.358   3.841
62118SOL    HW188251   7.492   5.368   3.816
62118SOL    HW288252   7.584   5.289   3.907
62119SOL     OW88253   8.779   9.513  13.489
62119SOL    HW188254   8.864   9.470  13.476
62119SOL    HW288255   8.727   9.487  13.413
62120SOL     OW88256   1.679   9.211   4.933
62120SOL    HW188257   1.652   9.145   4.868
62120SOL    HW288258   1.601   9.264   4.948
62121SOL     OW88259   5.501   0.192   3.562
62121SOL    HW188260   5.547   0.133   3.622
62121SOL    HW288261   5.538   0.172   3.476
62122SOL     OW88262   7.184   8.273  10.478
62122SOL    HW188263   7.263   8.218  10.474
62122SOL    HW288264   7.168   8.297  10.387
62123SOL     OW88265   0.124   0.388   2.574
62123SOL    HW188266   0.180   0.351   2.641
62123SOL    HW288267   0.176   0.458   2.534
62124SOL     OW88268  11.314   7.024   0.027
62124SOL    HW188269  11.350   6.975  14.832
62124SOL    HW288270  11.223   7.039   0.003
62125SOL     OW88271   3.255   2.982  12.411
62125SOL    HW188272   3.278   2.977  12.504
62125SOL    HW288273   3.339   2.992  12.366
62126SOL     OW88274   3.118  11.720   8.504
62126SOL    HW188275   3.040  11.711   8.449
62126SOL    HW288276   3.184  11.759   8.447
62127SOL     OW88277   3.826  14.087   3.615
62127SOL    HW188278   3.847  14.037   3.694
62127SOL    HW288279   3.740  14.125   3.633
62128SOL     OW88280   3.367   2.763   4.667
62128SOL    HW188281   3.306   2.769   4.740
62128SOL    HW288282   3.374   2.853   4.634
62129SOL     OW88283   2.791   4.493   3.597
62129SOL    HW188284   2.707   4.540   3.601
62129SOL    HW288285   2.840   4.539   3.529
62130SOL     OW88286   4.811   4.871   0.684
62130SOL    HW188287   4.874   4.939   0.706
62130SOL    HW288288   4.782   4.893   0.595
62131SOL     OW88289   0.529  11.954   8.753
62131SOL    HW188290   0.498  11.878   8.801
62131SOL    HW288291   0.619  11.966   8.782
62132SOL     OW88292   6.444   8.563  11.202
62132SOL    HW188293   6.373   8.627  11.194
62132SOL    HW288294   6.517   8.614  11.237
62133SOL     OW88295   9.901  13.258   0.339
62133SOL    HW188296   9.956  13.336   0.332
62133SOL    HW288297   9.892  13.226   0.249
62134SOL     OW88298   2.707   2.537   9.821
62134SOL    HW188299   2.773   2.474   9.850
62134SOL    HW288300   2.743   2.622   9.844
62135SOL     OW88301   4.895  12.432   5.996
62135SOL    HW188302   4.938  12.479   6.068
62135SOL    HW288303   4.809  12.473   5.991
62136SOL     OW88304  10.703   1.499   6.179
62136SOL    HW188305  10.682   1.440   6.107
62136SOL    HW288306  10.618   1.522   6.217
62137SOL     OW88307  12.011  14.620   8.387
62137SOL    HW188308  12.098  14.586   8.364
62137SOL    HW288309  12.017  14.714   8.373
62138SOL     OW88310   0.839  11.022   8.416
62138SOL    HW188311   0.837  11.003   8.510
62138SOL    HW288312   0.790  11.104   8.407
62139SOL     OW88313   0.645  13.441  11.277
62139SOL    HW188314   0.692  13.524  11.266
62139SOL    HW288315   0.585  13.457  11.350
62140SOL     OW88316  10.596  12.153  12.889
62140SOL    HW188317  10.576  12.061  12.903
62140SOL    HW288318  10.538  12.200  12.949
62141SOL     OW88319   7.324   8.641   5.807
62141SOL    HW188320   7.293   8.709   5.748
62141SOL    HW288321   7.419   8.653   5.809
62142SOL     OW88322   3.005  10.665   9.645
62142SOL    HW188323   2.928  10.621   9.683
62142SOL    HW288324   3.078  10.609   9.668
62143SOL     OW88325  12.569   6.986   8.363
62143SOL    HW188326  12.654   6.951   8.336
62143SOL    HW288327  12.512   6.909   8.367
62144SOL     OW88328   9.582  13.572   7.392
62144SOL    HW188329   9.607  13.569   7.299
62144SOL    HW288330   9.587  13.482   7.422
62145SOL     OW88331   6.486   9.888   0.794
62145SOL    HW188332   6.464   9.813   0.739
62145SOL    HW288333   6.558   9.931   0.749
62146SOL     OW88334   3.950   6.416  11.348
62146SOL    HW188335   3.972   6.340  11.402
62146SOL    HW288336   3.949   6.489  11.409
62147SOL     OW88337  12.319   9.235   1.173
62147SOL    HW188338  12.284   9.239   1.084
62147SOL    HW288339  12.276   9.307   1.219
62148SOL     OW88340   4.395   0.056  10.698
62148SOL    HW188341   4.341   0.114  10.752
62148SOL    HW288342   4.457   0.114  10.655
62149SOL     OW88343   7.924   2.014   2.829
62149SOL    HW188344   7.939   2.106   2.810
62149SOL    HW288345   7.910   2.010   2.924
62150SOL     OW88346  11.055   0.016  10.288
62150SOL    HW188347  11.105  14.835  10.343
62150SOL    HW288348  11.090   0.002  10.200
62151SOL     OW88349   8.077   2.374  14.395
62151SOL    HW188350   8.047   2.462  14.374
62151SOL    HW288351   8.147   2.387  14.459
62152SOL     OW88352   4.893  10.353   9.238
62152SOL    HW188353   4.826  10.341   9.305
62152SOL    HW288354   4.967  10.301   9.268
62153SOL     OW88355   5.167   7.533  13.557
62153SOL    HW188356   5.140   7.446  13.585
62153SOL    HW288357   5.115   7.550  13.478
62154SOL     OW88358   1.916  11.568  12.778
62154SOL    HW188359   1.956  11.573  12.865
62154SOL    HW288360   1.848  11.635  12.779
62155SOL     OW88361  13.625  14.382   8.312
62155SOL    HW188362  13.676  14.301   8.306
62155SOL    HW288363  13.563  14.376   8.239
62156SOL     OW88364   4.315   5.939   8.467
62156SOL    HW188365   4.399   5.893   8.474
62156SOL    HW288366   4.324   5.993   8.388
62157SOL     OW88367   0.341   4.389   5.419
62157SOL    HW188368   0.332   4.451   5.347
62157SOL    HW288369   0.286   4.315   5.394
62158SOL     OW88370   4.628   4.502   6.150
62158SOL    HW188371   4.542   4.467   6.171
62158SOL    HW288372   4.664   4.442   6.084
62159SOL     OW88373   3.090  11.549  14.659
62159SOL    HW188374   3.087  11.644  14.646
62159SOL    HW288375   3.000  11.523  14.678
62160SOL     OW88376   7.043  10.323  10.765
62160SOL    HW188377   7.044  10.402  10.710
62160SOL    HW288378   7.117  10.272  10.734
62161SOL     OW88379   4.983  13.863  13.879
62161SOL    HW188380   4.976  13.887  13.971
62161SOL    HW288381   5.014  13.943  13.836
62162SOL     OW88382  10.941   6.872   8.951
62162SOL    HW188383  10.981   6.887   8.865
62162SOL    HW288384  10.862   6.926   8.950
62163SOL     OW88385   1.723  14.443   3.340
62163SOL    HW188386   1.712  14.512   3.406
62163SOL    HW288387   1.662  14.374   3.367
62164SOL     OW88388  14.302   8.499   0.706
62164SOL    HW188389  14.271   8.427   0.762
62164SOL    HW288390  14.231   8.563   0.708
62165SOL     OW88391   7.727   1.384   7.090
62165SOL    HW188392   7.690   1.469   7.065
62165SOL    HW288393   7.787   1.363   7.018
62166SOL     OW88394  11.268   9.657  13.661
62166SOL    HW188395  11.191   9.603  13.648
62166SOL    HW288396  11.295   9.684  13.573
62167SOL     OW88397  12.096   1.400  12.181
62167SOL    HW188398  12.167   1.414  12.119
62167SOL    HW288399  12.056   1.486  12.192
62168SOL     OW88400  12.986   3.938   3.251
62168SOL    HW188401  12.930   3.891   3.312
62168SOL    HW288402  12.964   3.903   3.165
62169SOL     OW88403   2.453   8.740   4.130
62169SOL    HW188404   2.522   8.685   4.093
62169SOL    HW288405   2.381   8.734   4.067
62170SOL     OW88406   5.099  11.784   0.744
62170SOL    HW188407   5.094  11.880   0.744
62170SOL    HW288408   5.019  11.756   0.790
62171SOL     OW88409   6.120   7.190   4.841
62171SOL    HW188410   6.072   7.162   4.919
62171SOL    HW288411   6.072   7.152   4.768
62172SOL     OW88412   2.963   1.898   4.753
62172SOL    HW188413   2.922   1.880   4.669
62172SOL    HW288414   2.976   1.812   4.792
62173SOL     OW88415   0.900   5.113   0.938
62173SOL    HW188416   0.956   5.037   0.924
62173SOL    HW288417   0.961   5.187   0.944
62174SOL     OW88418   8.330  11.309  10.583
62174SOL    HW188419   8.290  11.226  10.557
62174SOL    HW288420   8.273  11.342  10.652
62175SOL     OW88421  13.819   5.042  13.333
62175SOL    HW188422  13.729   5.011  13.339
62175SOL    HW288423  13.857   5.022  13.419
62176SOL     OW88424   8.756   8.351  13.958
62176SOL    HW188425   8.706   8.296  14.019
62176SOL    HW288426   8.807   8.409  14.014
62177SOL     OW88427   6.317   9.107   2.453
62177SOL    HW188428   6.295   9.018   2.424
62177SOL    HW288429   6.340   9.097   2.545
62178SOL     OW88430   0.636   0.645   8.389
62178SOL    HW188431   0.648   0.605   8.475
62178SOL    HW288432   0.542   0.663   8.384
62179SOL     OW88433   2.992   7.189   8.459
62179SOL    HW188434   2.954   7.252   8.521
62179SOL    HW288435   2.917   7.140   8.426
62180SOL     OW88436  14.547   3.391  12.287
62180SOL    HW188437  14.530   3.483  12.306
62180SOL    HW288438  14.640   3.379  12.308
62181SOL     OW88439   8.390  11.029   8.618
62181SOL    HW188440   8.387  11.043   8.713
62181SOL    HW288441   8.408  10.935   8.609
62182SOL     OW88442   3.764   5.208   6.380
62182SOL    HW188443   3.727   5.158   6.453
62182SOL    HW288444   3.810   5.280   6.421
62183SOL     OW88445   7.732  11.482   8.495
62183SOL    HW188446   7.657  11.444   8.541
62183SOL    HW288447   7.787  11.407   8.473
62184SOL     OW88448  14.123  13.098   8.133
62184SOL    HW188449  14.174  13.025   8.168
62184SOL    HW288450  14.050  13.108   8.194
62185SOL     OW88451   0.477  12.793   1.063
62185SOL    HW188452   0.527  12.772   0.984
62185SOL    HW288453   0.537  12.774   1.135
62186SOL     OW88454   1.434   8.605   7.215
62186SOL    HW188455   1.525   8.578   7.205
62186SOL    HW288456   1.399   8.605   7.126
62187SOL     OW88457  12.314   8.778   7.788
62187SOL    HW188458  12.268   8.722   7.726
62187SOL    HW288459  12.400   8.737   7.798
62188SOL     OW88460   9.895   5.126   2.640
62188SOL    HW188461   9.879   5.046   2.590
62188SOL    HW288462   9.959   5.101   2.706
62189SOL     OW88463  11.537   1.687   2.248
62189SOL    HW188464  11.500   1.698   2.335
62189SOL    HW288465  11.621   1.734   2.251
62190SOL     OW88466  13.631  11.564   1.734
62190SOL    HW188467  13.602  11.653   1.711
62190SOL    HW288468  13.711  11.552   1.684
62191SOL     OW88469   7.652   6.952  11.132
62191SOL    HW188470   7.681   6.918  11.047
62191SOL    HW288471   7.731   6.953  11.185
62192SOL     OW88472   5.622  11.431  13.891
62192SOL    HW188473   5.571  11.438  13.971
62192SOL    HW288474   5.711  11.410  13.920
62193SOL     OW88475   3.476  10.557   7.692
62193SOL    HW188476   3.452  10.533   7.781
62193SOL    HW288477   3.406  10.520   7.637
62194SOL     OW88478   2.230   9.173   6.353
62194SOL    HW188479   2.325   9.156   6.351
62194SOL    HW288480   2.213   9.224   6.274
62195SOL     OW88481   2.517   5.249   2.579
62195SOL    HW188482   2.602   5.263   2.620
62195SOL    HW288483   2.506   5.324   2.520
62196SOL     OW88484   9.525   5.440  14.157
62196SOL    HW188485   9.457   5.418  14.093
62196SOL    HW288486   9.478   5.479  14.230
62197SOL     OW88487   7.294   9.253  14.029
62197SOL    HW188488   7.350   9.177  14.016
62197SOL    HW288489   7.277   9.255  14.123
62198SOL     OW88490   3.553  10.772   5.567
62198SOL    HW188491   3.641  10.800   5.543
62198SOL    HW288492   3.519  10.729   5.488
62199SOL     OW88493  10.274  12.721   0.503
62199SOL    HW188494  10.349  12.765   0.461
62199SOL    HW288495  10.314  12.652   0.555
62200SOL     OW88496   2.014   7.567  11.839
62200SOL    HW188497   2.100   7.592  11.805
62200SOL    HW288498   1.975   7.515  11.769
62201SOL     OW88499   0.144   2.658   1.473
62201SOL    HW188500   0.065   2.682   1.425
62201SOL    HW288501   0.131   2.566   1.496
62202SOL     OW88502   0.655   3.009  12.353
62202SOL    HW188503   0.610   2.925  12.360
62202SOL    HW288504   0.729   3.000  12.413
62203SOL     OW88505   9.270   5.141  14.241
62203SOL    HW188506   9.287   5.050  14.214
62203SOL    HW288507   9.196   5.135  14.301
62204SOL     OW88508  14.824   5.101   9.792
62204SOL    HW188509  14.828   5.070   9.702
62204SOL    HW288510   0.011   5.051   9.839
62205SOL     OW88511   1.007   9.224   9.439
62205SOL    HW188512   1.070   9.288   9.470
62205SOL    HW288513   0.985   9.252   9.350
62206SOL     OW88514  10.289  12.610   4.263
62206SOL    HW188515  10.273  12.516   4.271
62206SOL    HW288516  10.336  12.634   4.342
62207SOL     OW88517   3.538   9.766  10.879
62207SOL    HW188518   3.593   9.779  10.957
62207SOL    HW288519   3.527   9.854  10.842
62208SOL     OW88520  10.855   7.795   4.089
62208SOL    HW188521  10.845   7.705   4.058
62208SOL    HW288522  10.767   7.823   4.113
62209SOL     OW88523   8.356   8.970   5.097
62209SOL    HW188524   8.409   9.046   5.118
62209SOL    HW288525   8.270   9.006   5.075
62210SOL     OW88526   7.000   3.518   6.863
62210SOL    HW188527   7.041   3.601   6.839
62210SOL    HW288528   7.047   3.490   6.942
62211SOL     OW88529   7.391   5.172  10.924
62211SOL    HW188530   7.441   5.117  10.864
62211SOL    HW288531   7.318   5.204  10.872
62212SOL     OW88532   8.322   1.456   9.922
62212SOL    HW188533   8.227   1.462   9.935
62212SOL    HW288534   8.342   1.364   9.936
62213SOL     OW88535   0.905  11.303  11.822
62213SOL    HW188536   0.837  11.237  11.807
62213SOL    HW288537   0.977  11.254  11.863
62214SOL     OW88538  14.401   7.093  13.860
62214SOL    HW188539  14.336   7.053  13.802
62214SOL    HW288540  14.368   7.181  13.875
62215SOL     OW88541  11.997  13.274   4.185
62215SOL    HW188542  11.975  13.320   4.103
62215SOL    HW288543  12.091  13.284   4.194
62216SOL     OW88544   0.500   7.500   9.163
62216SOL    HW188545   0.590   7.467   9.160
62216SOL    HW288546   0.507   7.593   9.142
62217SOL     OW88547   9.268   6.494   6.164
62217SOL    HW188548   9.313   6.425   6.116
62217SOL    HW288549   9.175   6.478   6.149
62218SOL     OW88550   2.789   6.994  14.100
62218SOL    HW188551   2.809   6.948  14.181
62218SOL    HW288552   2.824   7.082  14.112
62219SOL     OW88553  12.628   1.476  14.361
62219SOL    HW188554  12.593   1.417  14.428
62219SOL    HW288555  12.552   1.495  14.305
62220SOL     OW88556  13.114   3.251   8.140
62220SOL    HW188557  13.104   3.156   8.137
62220SOL    HW288558  13.041   3.284   8.087
62221SOL     OW88559   1.116   9.786  12.460
62221SOL    HW188560   1.080   9.786  12.549
62221SOL    HW288561   1.050   9.739  12.408
62222SOL     OW88562   0.915   8.398   6.024
62222SOL    HW188563   0.841   8.377   6.081
62222SOL    HW288564   0.960   8.314   6.011
62223SOL     OW88565   5.697   7.844  13.487
62223SOL    HW188566   5.616   7.836  13.538
62223SOL    HW288567   5.668   7.844  13.396
62224SOL     OW88568   0.073  14.360   7.029
62224SOL    HW188569  14.866  14.344   6.991
62224SOL    HW288570   0.134  14.325   6.965
62225SOL     OW88571  10.931   3.921   5.463
62225SOL    HW188572  10.865   3.975   5.505
62225SOL    HW288573  10.948   3.850   5.525
62226SOL     OW88574   3.742   2.034   6.638
62226SOL    HW188575   3.809   1.970   6.616
62226SOL    HW288576   3.764   2.061   6.728
62227SOL     OW88577  11.000  10.983   0.693
62227SOL    HW188578  10.936  11.038   0.737
62227SOL    HW288579  11.074  11.041   0.676
62228SOL     OW88580   8.437   1.138   1.787
62228SOL    HW188581   8.490   1.113   1.863
62228SOL    HW288582   8.435   1.059   1.732
62229SOL     OW88583   3.447   4.216   9.112
62229SOL    HW188584   3.460   4.171   9.029
62229SOL    HW288585   3.509   4.289   9.111
62230SOL     OW88586  11.558   6.091  12.753
62230SOL    HW188587  11.533   6.065  12.664
62230SOL    HW288588  11.573   6.008  12.799
62231SOL     OW88589   7.431   6.180   1.519
62231SOL    HW188590   7.344   6.147   1.496
62231SOL    HW288591   7.430   6.272   1.492
62232SOL     OW88592  12.841  10.280  12.057
62232SOL    HW188593  12.824  10.214  11.989
62232SOL    HW288594  12.783  10.352  12.036
62233SOL     OW88595   3.711  12.516   9.117
62233SOL    HW188596   3.670  12.429   9.109
62233SOL    HW288597   3.804  12.499   9.106
62234SOL     OW88598  11.037  12.924   7.051
62234SOL    HW188599  11.011  12.869   6.977
62234SOL    HW288600  11.094  12.990   7.012
62235SOL     OW88601   8.599   1.899   2.965
62235SOL    HW188602   8.555   1.845   2.900
62235SOL    HW288603   8.689   1.867   2.968
62236SOL     OW88604  13.297   7.621   6.673
62236SOL    HW188605  13.353   7.572   6.735
62236SOL    HW288606  13.213   7.576   6.677
62237SOL     OW88607  14.024   9.754   7.246
62237SOL    HW188608  14.083   9.756   7.170
62237SOL    HW288609  13.938   9.775   7.210
62238SOL     OW88610  12.046  11.505   9.611
62238SOL    HW188611  11.998  11.565   9.668
62238SOL    HW288612  12.137  11.510   9.641
62239SOL     OW88613   0.939   5.648   6.915
62239SOL    HW188614   0.882   5.622   6.987
62239SOL    HW288615   0.924   5.742   6.905
62240SOL     OW88616   2.909   8.270   3.765
62240SOL    HW188617   2.968   8.257   3.839
62240SOL    HW288618   2.887   8.363   3.768
62241SOL     OW88619   4.372   4.306  11.369
62241SOL    HW188620   4.463   4.278  11.355
62241SOL    HW288621   4.339   4.323  11.281
62242SOL     OW88622  12.715  10.883   1.299
62242SOL    HW188623  12.714  10.828   1.378
62242SOL    HW288624  12.694  10.971   1.331
62243SOL     OW88625  11.296   9.917   2.897
62243SOL    HW188626  11.287   9.982   2.966
62243SOL    HW288627  11.315   9.835   2.943
62244SOL     OW88628   1.415   9.583   5.697
62244SOL    HW188629   1.438   9.499   5.736
62244SOL    HW288630   1.407   9.643   5.771
62245SOL     OW88631   2.717   7.405   8.515
62245SOL    HW188632   2.675   7.474   8.567
62245SOL    HW288633   2.785   7.451   8.465
62246SOL     OW88634   8.437   7.790  13.330
62246SOL    HW188635   8.429   7.750  13.244
62246SOL    HW288636   8.482   7.725  13.383
62247SOL     OW88637   5.746  12.400   9.752
62247SOL    HW188638   5.810  12.470   9.752
62247SOL    HW288639   5.798  12.320   9.761
62248SOL     OW88640   2.497  10.386   3.017
62248SOL    HW188641   2.580  10.354   2.982
62248SOL    HW288642   2.465  10.313   3.071
62249SOL     OW88643   9.851   4.860  13.117
62249SOL    HW188644   9.887   4.846  13.205
62249SOL    HW288645   9.762   4.891  13.132
62250SOL     OW88646   4.963  11.437   7.680
62250SOL    HW188647   4.916  11.418   7.760
62250SOL    HW288648   4.990  11.351   7.646
62251SOL     OW88649   3.007   6.343  10.025
62251SOL    HW188650   3.027   6.366   9.934
62251SOL    HW288651   3.084   6.293  10.053
62252SOL     OW88652   0.041   5.254   0.892
62252SOL    HW188653  14.847   5.309   0.919
62252SOL    HW288654   0.002   5.168   0.877
62253SOL     OW88655   3.508   3.281  11.983
62253SOL    HW188656   3.574   3.333  12.028
62253SOL    HW288657   3.552   3.247  11.906
62254SOL     OW88658   6.603   2.779   0.493
62254SOL    HW188659   6.558   2.849   0.445
62254SOL    HW288660   6.561   2.777   0.578
62255SOL     OW88661   2.442   8.112  10.228
62255SOL    HW188662   2.480   8.142  10.310
62255SOL    HW288663   2.478   8.025  10.215
62256SOL     OW88664   7.281   8.094  10.987
62256SOL    HW188665   7.276   8.051  10.902
62256SOL    HW288666   7.190   8.099  11.017
62257SOL     OW88667   5.716   4.378  10.114
62257SOL    HW188668   5.764   4.429  10.049
62257SOL    HW288669   5.702   4.293  10.071
62258SOL     OW88670  13.991  11.681  12.485
62258SOL    HW188671  14.039  11.629  12.421
62258SOL    HW288672  14.059  11.720  12.540
62259SOL     OW88673   2.211   4.086  13.939
62259SOL    HW188674   2.227   4.151  13.870
62259SOL    HW288675   2.252   4.123  14.017
62260SOL     OW88676   3.099   1.575  13.345
62260SOL    HW188677   3.175   1.593  13.399
62260SOL    HW288678   3.034   1.640  13.372
62261SOL     OW88679   9.002   0.419   9.992
62261SOL    HW188680   9.087   0.453  10.021
62261SOL    HW288681   9.003   0.327  10.018
62262SOL     OW88682   3.387  13.240   1.284
62262SOL    HW188683   3.447  13.293   1.231
62262SOL    HW288684   3.303  13.247   1.238
62263SOL     OW88685  14.323  12.236   1.938
62263SOL    HW188686  14.383  12.174   1.980
62263SOL    HW288687  14.381  12.299   1.894
62264SOL     OW88688   3.455   4.029   4.806
62264SOL    HW188689   3.508   4.033   4.886
62264SOL    HW288690   3.378   4.082   4.825
62265SOL     OW88691   7.748   2.668   0.297
62265SOL    HW188692   7.769   2.761   0.285
62265SOL    HW288693   7.815   2.623   0.246
62266SOL     OW88694   8.026   0.556   3.387
62266SOL    HW188695   8.015   0.607   3.307
62266SOL    HW288696   8.047   0.467   3.357
62267SOL     OW88697  13.844   5.970   3.662
62267SOL    HW188698  13.912   6.033   3.641
62267SOL    HW288699  13.868   5.892   3.612
62268SOL     OW88700   1.664  10.077   4.407
62268SOL    HW188701   1.620  10.112   4.330
62268SOL    HW288702   1.757  10.077   4.385
62269SOL     OW88703   1.400   7.478   5.484
62269SOL    HW188704   1.485   7.446   5.453
62269SOL    HW288705   1.357   7.511   5.405
62270SOL     OW88706  11.320   4.476   8.239
62270SOL    HW188707  11.234   4.473   8.196
62270SOL    HW288708  11.370   4.406   8.197
62271SOL     OW88709   6.368  13.597   9.501
62271SOL    HW188710   6.350  13.534   9.571
62271SOL    HW288711   6.462  13.590   9.486
62272SOL     OW88712  13.233  11.067   5.665
62272SOL    HW188713  13.325  11.078   5.641
62272SOL    HW288714  13.198  11.005   5.601
62273SOL     OW88715   6.812   8.120  10.281
62273SOL    HW188716   6.775   8.183  10.343
62273SOL    HW288717   6.859   8.174  10.217
62274SOL     OW88718  14.064   4.487   4.511
62274SOL    HW188719  14.117   4.475   4.433
62274SOL    HW288720  14.025   4.574   4.501
62275SOL     OW88721  12.851  13.796   7.787
62275SOL    HW188722  12.838  13.854   7.863
62275SOL    HW288723  12.934  13.753   7.805
62276SOL     OW88724  11.254   2.363  11.311
62276SOL    HW188725  11.325   2.413  11.351
62276SOL    HW288726  11.295   2.317  11.239
62277SOL     OW88727  12.094   1.193   9.151
62277SOL    HW188728  12.147   1.242   9.089
62277SOL    HW288729  12.103   1.102   9.123
62278SOL     OW88730   4.335   2.900   1.883
62278SOL    HW188731   4.429   2.916   1.873
62278SOL    HW288732   4.294   2.955   1.816
62279SOL     OW88733   3.889   5.816   6.417
62279SOL    HW188734   3.796   5.791   6.415
62279SOL    HW288735   3.921   5.792   6.330
62280SOL     OW88736   4.115   0.986  14.754
62280SOL    HW188737   4.148   0.901  14.727
62280SOL    HW288738   4.133   1.045  14.681
62281SOL     OW88739   7.306   0.376  13.160
62281SOL    HW188740   7.242   0.368  13.231
62281SOL    HW288741   7.310   0.470  13.143
62282SOL     OW88742   9.405  10.327   8.373
62282SOL    HW188743   9.334  10.378   8.412
62282SOL    HW288744   9.485  10.369   8.407
62283SOL     OW88745   1.232  11.949  11.224
62283SOL    HW188746   1.312  11.952  11.277
62283SOL    HW288747   1.262  11.956  11.134
62284SOL     OW88748   8.949   3.920   4.972
62284SOL    HW188749   9.043   3.936   4.980
62284SOL    HW288750   8.939   3.830   5.002
62285SOL     OW88751   0.500   9.713   4.086
62285SOL    HW188752   0.481   9.681   3.998
62285SOL    HW288753   0.575   9.771   4.074
62286SOL     OW88754   6.925   5.309   0.195
62286SOL    HW188755   6.837   5.322   0.230
62286SOL    HW288756   6.979   5.373   0.240
62287SOL     OW88757   1.889  11.832   4.640
62287SOL    HW188758   1.856  11.888   4.570
62287SOL    HW288759   1.830  11.757   4.641
62288SOL     OW88760  11.073  12.152   0.984
62288SOL    HW188761  11.049  12.235   0.943
62288SOL    HW288762  11.167  12.161   1.004
62289SOL     OW88763   8.115  10.192   7.757
62289SOL    HW188764   8.023  10.214   7.774
62289SOL    HW288765   8.111  10.106   7.714
62290SOL     OW88766  13.392   4.288  13.513
62290SOL    HW188767  13.460   4.266  13.577
62290SOL    HW288768  13.311   4.257  13.554
62291SOL     OW88769   9.559   2.646  12.314
62291SOL    HW188770   9.545   2.562  12.269
62291SOL    HW288771   9.631   2.629  12.375
62292SOL     OW88772  14.187   5.848   9.559
62292SOL    HW188773  14.095   5.830   9.536
62292SOL    HW288774  14.191   5.831   9.654
62293SOL     OW88775   6.221   5.947   3.227
62293SOL    HW188776   6.283   5.895   3.176
62293SOL    HW288777   6.135   5.916   3.199
62294SOL     OW88778   9.276   3.082   4.383
62294SOL    HW188779   9.271   3.049   4.293
62294SOL    HW288780   9.234   3.168   4.379
62295SOL     OW88781   0.464   3.254   8.627
62295SOL    HW188782   0.386   3.282   8.578
62295SOL    HW288783   0.533   3.313   8.597
62296SOL     OW88784   1.329  11.033   3.713
62296SOL    HW188785   1.374  11.035   3.628
62296SOL    HW288786   1.321  11.125   3.739
62297SOL     OW88787  14.493  14.760   8.245
62297SOL    HW188788  14.443  14.716   8.314
62297SOL    HW288789  14.485  14.853   8.266
62298SOL     OW88790  10.529   5.270   5.056
62298SOL    HW188791  10.490   5.297   5.140
62298SOL    HW288792  10.507   5.177   5.048
62299SOL     OW88793   2.414   2.747   0.759
62299SOL    HW188794   2.415   2.755   0.855
62299SOL    HW288795   2.368   2.665   0.742
62300SOL     OW88796  12.102   7.293   0.787
62300SOL    HW188797  12.153   7.246   0.853
62300SOL    HW288798  12.046   7.352   0.837
62301SOL     OW88799   8.833  10.913  11.750
62301SOL    HW188800   8.819  10.854  11.676
62301SOL    HW288801   8.921  10.891  11.781
62302SOL     OW88802  11.200  11.029   9.083
62302SOL    HW188803  11.233  11.074   9.006
62302SOL    HW288804  11.216  11.091   9.155
62303SOL     OW88805   1.122   4.398   7.338
62303SOL    HW188806   1.138   4.420   7.429
62303SOL    HW288807   1.055   4.330   7.341
62304SOL     OW88808   5.465   4.953   0.226
62304SOL    HW188809   5.559   4.971   0.231
62304SOL    HW288810   5.451   4.926   0.136
62305SOL     OW88811  10.061   5.734   3.122
62305SOL    HW188812  10.110   5.733   3.040
62305SOL    HW288813   9.979   5.778   3.100
62306SOL     OW88814   0.949   1.041   5.818
62306SOL    HW188815   0.972   1.043   5.726
62306SOL    HW288816   0.900   1.122   5.833
62307SOL     OW88817   8.919   2.644   4.765
62307SOL    HW188818   8.960   2.687   4.840
62307SOL    HW288819   8.990   2.630   4.703
62308SOL     OW88820  14.344   7.790   9.557
62308SOL    HW188821  14.429   7.763   9.594
62308SOL    HW288822  14.327   7.875   9.598
62309SOL     OW88823   9.360   1.800  10.945
62309SOL    HW188824   9.444   1.818  10.902
62309SOL    HW288825   9.355   1.864  11.015
62310SOL     OW88826   5.523   1.980   2.692
62310SOL    HW188827   5.509   1.927   2.614
62310SOL    HW288828   5.525   2.070   2.661
62311SOL     OW88829  14.815   6.364  10.552
62311SOL    HW188830   0.020   6.407  10.561
62311SOL    HW288831  14.752   6.436  10.549
62312SOL     OW88832   1.411  10.063   7.407
62312SOL    HW188833   1.450   9.978   7.424
62312SOL    HW288834   1.476  10.109   7.354
62313SOL     OW88835   5.638   4.982   9.050
62313SOL    HW188836   5.662   5.073   9.069
62313SOL    HW288837   5.667   4.969   8.960
62314SOL     OW88838  11.359   7.149  13.652
62314SOL    HW188839  11.411   7.219  13.612
62314SOL    HW288840  11.303   7.195  13.714
62315SOL     OW88841   4.584  12.921  10.851
62315SOL    HW188842   4.563  13.012  10.876
62315SOL    HW288843   4.675  12.925  10.824
62316SOL     OW88844   2.738  14.056   6.744
62316SOL    HW188845   2.820  14.104   6.732
62316SOL    HW288846   2.695  14.099   6.817
62317SOL     OW88847   5.613   5.233   2.770
62317SOL    HW188848   5.552   5.281   2.826
62317SOL    HW288849   5.683   5.296   2.752
62318SOL     OW88850  11.686   4.833   5.728
62318SOL    HW188851  11.593   4.810   5.720
62318SOL    HW288852  11.723   4.764   5.782
62319SOL     OW88853  14.624   3.272  11.411
62319SOL    HW188854  14.596   3.307  11.327
62319SOL    HW288855  14.557   3.300  11.473
62320SOL     OW88856   3.898   1.638   7.438
62320SOL    HW188857   3.961   1.566   7.442
62320SOL    HW288858   3.864   1.646   7.527
62321SOL     OW88859   2.412   8.662   1.990
62321SOL    HW188860   2.460   8.732   1.947
62321SOL    HW288861   2.346   8.634   1.926
62322SOL     OW88862   5.114  10.092   8.159
62322SOL    HW188863   5.034  10.084   8.210
62322SOL    HW288864   5.105  10.175   8.112
62323SOL     OW88865   9.278   4.592   7.136
62323SOL    HW188866   9.244   4.512   7.176
62323SOL    HW288867   9.227   4.663   7.176
62324SOL     OW88868   5.898   3.146   5.201
62324SOL    HW188869   5.869   3.236   5.186
62324SOL    HW288870   5.919   3.142   5.294
62325SOL     OW88871   3.825  12.049  13.291
62325SOL    HW188872   3.893  12.036  13.357
62325SOL    HW288873   3.793  11.961  13.273
62326SOL     OW88874  14.361   0.267  13.102
62326SOL    HW188875  14.332   0.183  13.067
62326SOL    HW288876  14.392   0.247  13.191
62327SOL     OW88877   1.102   8.933   8.928
62327SOL    HW188878   1.081   8.908   9.018
62327SOL    HW288879   1.079   8.855   8.876
62328SOL     OW88880   0.854  12.076  10.979
62328SOL    HW188881   0.945  12.094  10.957
62328SOL    HW288882   0.834  12.135  11.052
62329SOL     OW88883   8.682   4.429  13.296
62329SOL    HW188884   8.751   4.386  13.347
62329SOL    HW288885   8.614   4.448  13.361
62330SOL     OW88886   1.416   3.477  13.702
62330SOL    HW188887   1.381   3.393  13.731
62330SOL    HW288888   1.463   3.512  13.778
62331SOL     OW88889   8.892   2.013   3.417
62331SOL    HW188890   8.944   2.064   3.355
62331SOL    HW288891   8.854   2.079   3.476
62332SOL     OW88892   3.831   3.226   9.710
62332SOL    HW188893   3.810   3.319   9.701
62332SOL    HW288894   3.917   3.217   9.669
62333SOL     OW88895   9.155  12.202   1.679
62333SOL    HW188896   9.165  12.110   1.701
62333SOL    HW288897   9.244  12.232   1.661
62334SOL     OW88898   0.507   7.688   0.137
62334SOL    HW188899   0.484   7.620   0.074
62334SOL    HW288900   0.555   7.642   0.206
62335SOL     OW88901   7.913  11.209  10.751
62335SOL    HW188902   7.885  11.295  10.782
62335SOL    HW288903   8.001  11.197  10.788
62336SOL     OW88904   1.414   2.885  11.409
62336SOL    HW188905   1.444   2.974  11.392
62336SOL    HW288906   1.445   2.834  11.334
62337SOL     OW88907   0.106   3.285  13.525
62337SOL    HW188908   0.082   3.378  13.530
62337SOL    HW288909   0.038   3.241  13.576
62338SOL     OW88910  10.261  10.479   8.539
62338SOL    HW188911  10.290  10.447   8.624
62338SOL    HW288912  10.167  10.497   8.552
62339SOL     OW88913   7.923   7.015   0.726
62339SOL    HW188914   7.895   6.998   0.636
62339SOL    HW288915   7.902   6.936   0.774
62340SOL     OW88916   6.895  12.486  12.365
62340SOL    HW188917   6.945  12.413  12.403
62340SOL    HW288918   6.932  12.497  12.278
62341SOL     OW88919  13.751   9.930  10.312
62341SOL    HW188920  13.669   9.910  10.358
62341SOL    HW288921  13.815   9.942  10.382
62342SOL     OW88922   9.492   6.435   2.125
62342SOL    HW188923   9.403   6.414   2.151
62342SOL    HW288924   9.483   6.481   2.042
62343SOL     OW88925   8.082   6.416   1.353
62343SOL    HW188926   7.987   6.417   1.348
62343SOL    HW288927   8.107   6.328   1.328
62344SOL     OW88928  14.716   2.372   9.581
62344SOL    HW188929  14.806   2.349   9.558
62344SOL    HW288930  14.672   2.384   9.497
62345SOL     OW88931   4.803   0.120  12.982
62345SOL    HW188932   4.847   0.156  13.060
62345SOL    HW288933   4.828   0.178  12.911
62346SOL     OW88934  12.410  10.532  12.535
62346SOL    HW188935  12.383  10.583  12.611
62346SOL    HW288936  12.477  10.586  12.493
62347SOL     OW88937  11.096  14.302   4.565
62347SOL    HW188938  11.112  14.268   4.477
62347SOL    HW288939  11.183  14.324   4.598
62348SOL     OW88940  13.001  11.853   2.667
62348SOL    HW188941  13.056  11.919   2.623
62348SOL    HW288942  12.968  11.799   2.595
62349SOL     OW88943   4.455   5.029  11.288
62349SOL    HW188944   4.492   5.074  11.364
62349SOL    HW288945   4.510   4.951  11.277
62350SOL     OW88946  10.015   5.721   4.776
62350SOL    HW188947   9.996   5.629   4.799
62350SOL    HW288948  10.091   5.743   4.831
62351SOL     OW88949  11.085  10.130   8.668
62351SOL    HW188950  11.049  10.163   8.750
62351SOL    HW288951  11.084  10.035   8.677
62352SOL     OW88952   3.051   1.199  12.665
62352SOL    HW188953   3.138   1.163  12.650
62352SOL    HW288954   3.051   1.226  12.757
62353SOL     OW88955  13.590   2.879   8.468
62353SOL    HW188956  13.662   2.818   8.451
62353SOL    HW288957  13.578   2.926   8.385
62354SOL     OW88958   4.164  12.974  12.550
62354SOL    HW188959   4.213  12.898  12.518
62354SOL    HW288960   4.219  13.011  12.618
62355SOL     OW88961  14.242  14.701   6.312
62355SOL    HW188962  14.233  14.793   6.287
62355SOL    HW288963  14.153  14.674   6.337
62356SOL     OW88964   2.743  11.626   4.114
62356SOL    HW188965   2.769  11.666   4.197
62356SOL    HW288966   2.778  11.683   4.047
62357SOL     OW88967   1.521  13.478  10.605
62357SOL    HW188968   1.573  13.397  10.613
62357SOL    HW288969   1.441  13.450  10.562
62358SOL     OW88970   3.896  10.921  11.137
62358SOL    HW188971   3.857  10.858  11.076
62358SOL    HW288972   3.970  10.874  11.175
62359SOL     OW88973   4.838   6.503  10.460
62359SOL    HW188974   4.744   6.515  10.456
62359SOL    HW288975   4.852   6.449  10.538
62360SOL     OW88976   2.797  13.264   4.248
62360SOL    HW188977   2.868  13.328   4.242
62360SOL    HW288978   2.839  13.183   4.274
62361SOL     OW88979   8.952   2.372  13.522
62361SOL    HW188980   8.959   2.295  13.466
62361SOL    HW288981   9.037   2.415  13.515
62362SOL     OW88982   9.344   5.634   4.060
62362SOL    HW188983   9.418   5.684   4.027
62362SOL    HW288984   9.268   5.676   4.020
62363SOL     OW88985   6.841   2.864   4.808
62363SOL    HW188986   6.847   2.941   4.864
62363SOL    HW288987   6.817   2.793   4.868
62364SOL     OW88988  13.092  10.706  13.130
62364SOL    HW188989  13.105  10.611  13.139
62364SOL    HW288990  13.152  10.745  13.193
62365SOL     OW88991   6.647  14.844   8.954
62365SOL    HW188992   6.591  14.767   8.960
62365SOL    HW288993   6.674  14.862   9.044
62366SOL     OW88994   6.663   2.360   6.457
62366SOL    HW188995   6.675   2.453   6.475
62366SOL    HW288996   6.698   2.316   6.534
62367SOL     OW88997   2.341  11.562   2.820
62367SOL    HW188998   2.406  11.631   2.811
62367SOL    HW288999   2.392  11.481   2.824
62368SOL     OW89000  14.500   8.169   3.248
62368SOL    HW189001  14.433   8.228   3.213
62368SOL    HW289002  14.540   8.218   3.320
62369SOL     OW89003   5.204   8.158   9.315
62369SOL    HW189004   5.112   8.167   9.339
62369SOL    HW289005   5.252   8.170   9.397
62370SOL     OW89006   9.275   7.754   3.246
62370SOL    HW189007   9.237   7.705   3.319
62370SOL    HW289008   9.228   7.837   3.246
62371SOL     OW89009  12.876   8.902   3.963
62371SOL    HW189010  12.943   8.970   3.960
62371SOL    HW289011  12.816   8.930   4.033
62372SOL     OW89012   4.778   5.420   3.689
62372SOL    HW189013   4.737   5.372   3.617
62372SOL    HW289014   4.791   5.508   3.655
62373SOL     OW89015  10.331  10.042   4.984
62373SOL    HW189016  10.340   9.955   5.023
62373SOL    HW289017  10.397  10.044   4.914
62374SOL     OW89018  13.713   1.920   0.759
62374SOL    HW189019  13.660   1.871   0.821
62374SOL    HW289020  13.718   1.864   0.682
62375SOL     OW89021  12.257   5.868  12.112
62375SOL    HW189022  12.244   5.812  12.189
62375SOL    HW289023  12.277   5.807  12.041
62376SOL     OW89024   2.937   4.495  11.054
62376SOL    HW189025   2.861   4.481  11.111
62376SOL    HW289026   2.980   4.410  11.051
62377SOL     OW89027  10.200  13.751   4.560
62377SOL    HW189028  10.292  13.728   4.566
62377SOL    HW289029  10.153  13.672   4.584
62378SOL     OW89030   6.851   6.015  10.670
62378SOL    HW189031   6.849   5.942  10.732
62378SOL    HW289032   6.929   5.999  10.617
62379SOL     OW89033  11.325   1.708   5.473
62379SOL    HW189034  11.287   1.650   5.407
62379SOL    HW289035  11.361   1.649   5.539
62380SOL     OW89036  13.858   2.864   2.549
62380SOL    HW189037  13.871   2.775   2.515
62380SOL    HW289038  13.885   2.922   2.478
62381SOL     OW89039   2.601   9.384  12.525
62381SOL    HW189040   2.616   9.365  12.618
62381SOL    HW289041   2.588   9.298  12.485
62382SOL     OW89042  11.812   3.170  13.514
62382SOL    HW189043  11.766   3.149  13.433
62382SOL    HW289044  11.905   3.167  13.490
62383SOL     OW89045   1.768  10.144   7.673
62383SOL    HW189046   1.811  10.229   7.670
62383SOL    HW289047   1.674  10.164   7.665
62384SOL     OW89048   5.194   9.044   7.069
62384SOL    HW189049   5.151   9.018   6.988
62384SOL    HW289050   5.136   9.013   7.139
62385SOL     OW89051   3.756   4.042   2.967
62385SOL    HW189052   3.724   4.125   2.932
62385SOL    HW289053   3.757   3.983   2.892
62386SOL     OW89054  10.357   0.664   6.267
62386SOL    HW189055  10.376   0.619   6.184
62386SOL    HW289056  10.277   0.622   6.299
62387SOL     OW89057   3.494   3.680   8.620
62387SOL    HW189058   3.426   3.622   8.655
62387SOL    HW289059   3.469   3.767   8.650
62388SOL     OW89060   4.807  14.524   7.835
62388SOL    HW189061   4.818  14.594   7.900
62388SOL    HW289062   4.803  14.444   7.887
62389SOL     OW89063  13.279   2.156  14.256
62389SOL    HW189064  13.236   2.087  14.207
62389SOL    HW289065  13.287   2.229  14.194
62390SOL     OW89066  12.287   8.916   9.993
62390SOL    HW189067  12.331   8.833  10.012
62390SOL    HW289068  12.197   8.890   9.971
62391SOL     OW89069   5.463   0.800   1.403
62391SOL    HW189070   5.455   0.805   1.498
62391SOL    HW289071   5.388   0.850   1.370
62392SOL     OW89072   8.999   9.786   8.251
62392SOL    HW189073   8.964   9.854   8.309
62392SOL    HW289074   8.975   9.815   8.163
62393SOL     OW89075   1.994   2.188   8.749
62393SOL    HW189076   2.001   2.107   8.699
62393SOL    HW289077   2.038   2.169   8.832
62394SOL     OW89078  13.376   6.499  10.172
62394SOL    HW189079  13.427   6.499  10.254
62394SOL    HW289080  13.298   6.550  10.193
62395SOL     OW89081  10.511   1.182   8.837
62395SOL    HW189082  10.526   1.235   8.759
62395SOL    HW289083  10.504   1.245   8.908
62396SOL     OW89084   2.238   6.344   2.308
62396SOL    HW189085   2.229   6.352   2.403
62396SOL    HW289086   2.311   6.401   2.285
62397SOL     OW89087  10.523   7.269   2.821
62397SOL    HW189088  10.554   7.348   2.777
62397SOL    HW289089  10.452   7.237   2.767
62398SOL     OW89090  14.674   7.257  10.032
62398SOL    HW189091  14.686   7.212   9.948
62398SOL    HW289092  14.754   7.237  10.081
62399SOL     OW89093   8.071   2.084  12.090
62399SOL    HW189094   8.036   2.173  12.078
62399SOL    HW289095   8.006   2.040  12.146
62400SOL     OW89096   9.043   2.195   1.200
62400SOL    HW189097   9.000   2.253   1.263
62400SOL    HW289098   8.973   2.165   1.142
62401SOL     OW89099   4.547   5.536   0.461
62401SOL    HW189100   4.536   5.453   0.416
62401SOL    HW289101   4.472   5.541   0.521
62402SOL     OW89102   8.782  14.260   4.140
62402SOL    HW189103   8.781  14.197   4.212
62402SOL    HW289104   8.875  14.281   4.128
62403SOL     OW89105  10.541  12.804  11.887
62403SOL    HW189106  10.613  12.854  11.925
62403SOL    HW289107  10.532  12.728  11.944
62404SOL     OW89108  10.295  14.344   8.833
62404SOL    HW189109  10.206  14.323   8.860
62404SOL    HW289110  10.287  14.429   8.789
62405SOL     OW89111  11.343   5.395   2.885
62405SOL    HW189112  11.364   5.448   2.962
62405SOL    HW289113  11.256   5.424   2.859
62406SOL     OW89114   2.008  14.623  11.982
62406SOL    HW189115   2.019  14.676  12.060
62406SOL    HW289116   2.055  14.542  12.000
62407SOL     OW89117   6.019  13.633   2.008
62407SOL    HW189118   6.071  13.673   2.078
62407SOL    HW289119   5.966  13.704   1.973
62408SOL     OW89120  14.170  12.008   2.103
62408SOL    HW189121  14.227  11.934   2.126
62408SOL    HW289122  14.159  12.002   2.008
62409SOL     OW89123   7.723   7.758   8.496
62409SOL    HW189124   7.745   7.703   8.571
62409SOL    HW289125   7.682   7.836   8.534
62410SOL     OW89126   5.980   9.619   3.796
62410SOL    HW189127   5.890   9.619   3.830
62410SOL    HW289128   6.028   9.562   3.856
62411SOL     OW89129  11.166  13.440  13.997
62411SOL    HW189130  11.209  13.393  14.069
62411SOL    HW289131  11.143  13.371  13.935
62412SOL     OW89132  14.066  12.213   1.911
62412SOL    HW189133  14.161  12.216   1.923
62412SOL    HW289134  14.030  12.235   1.998
62413SOL     OW89135   6.927  14.783   3.993
62413SOL    HW189136   6.836  14.802   3.969
62413SOL    HW289137   6.964  14.868   4.018
62414SOL     OW89138   7.975   5.210  10.066
62414SOL    HW189139   8.064   5.245  10.075
62414SOL    HW289140   7.961   5.159  10.145
62415SOL     OW89141   6.037   5.021   9.572
62415SOL    HW189142   5.997   4.960   9.510
62415SOL    HW289143   6.099   5.072   9.519
62416SOL     OW89144   4.862   2.647   4.332
62416SOL    HW189145   4.921   2.595   4.277
62416SOL    HW289146   4.920   2.688   4.396
62417SOL     OW89147  10.558   5.473   6.585
62417SOL    HW189148  10.618   5.543   6.561
62417SOL    HW289149  10.592   5.396   6.541
62418SOL     OW89150  14.000   4.362   1.210
62418SOL    HW189151  13.908   4.353   1.233
62418SOL    HW289152  14.032   4.272   1.201
62419SOL     OW89153   6.876  13.092   1.818
62419SOL    HW189154   6.893  13.089   1.912
62419SOL    HW289155   6.962  13.098   1.777
62420SOL     OW89156   4.415   1.033  14.324
62420SOL    HW189157   4.496   1.082  14.331
62420SOL    HW289158   4.401   1.021  14.230
62421SOL     OW89159   4.054   9.320  11.740
62421SOL    HW189160   4.112   9.362  11.676
62421SOL    HW289161   4.066   9.226  11.725
62422SOL     OW89162  14.108   0.385  13.074
62422SOL    HW189163  14.123   0.468  13.028
62422SOL    HW289164  14.195   0.358  13.104
62423SOL     OW89165   8.874   1.883  10.941
62423SOL    HW189166   8.912   1.944  11.004
62423SOL    HW289167   8.884   1.927  10.856
62424SOL     OW89168   0.031  13.187   0.024
62424SOL    HW189169  14.831  13.137   0.009
62424SOL    HW289170   0.102  13.129  14.875
62425SOL     OW89171  11.995  10.631   0.592
62425SOL    HW189172  12.035  10.561   0.644
62425SOL    HW289173  11.941  10.585   0.528
62426SOL     OW89174  11.773   0.215   9.546
62426SOL    HW189175  11.847   0.165   9.580
62426SOL    HW289176  11.739   0.262   9.622
62427SOL     OW89177   1.847  12.989   7.727
62427SOL    HW189178   1.809  12.954   7.646
62427SOL    HW289179   1.892  12.914   7.766
62428SOL     OW89180   6.981  14.007   4.586
62428SOL    HW189181   6.999  14.101   4.582
62428SOL    HW289182   7.043  13.974   4.652
62429SOL     OW89183  14.771   4.590   6.713
62429SOL    HW189184  14.705   4.528   6.681
62429SOL    HW289185  14.750   4.672   6.669
62430SOL     OW89186   5.767   6.228   3.337
62430SOL    HW189187   5.744   6.164   3.404
62430SOL    HW289188   5.862   6.240   3.345
62431SOL     OW89189   0.929   7.069   4.238
62431SOL    HW189190   0.872   7.076   4.315
62431SOL    HW289191   0.909   6.982   4.202
62432SOL     OW89192   9.602   9.720   1.566
62432SOL    HW189193   9.571   9.646   1.619
62432SOL    HW289194   9.624   9.788   1.630
62433SOL     OW89195   0.567   9.654  10.827
62433SOL    HW189196   0.472   9.644  10.834
62433SOL    HW289197   0.593   9.595  10.757
62434SOL     OW89198   4.638  14.774   4.248
62434SOL    HW189199   4.657  14.848   4.190
62434SOL    HW289200   4.663  14.805   4.335
62435SOL     OW89201  10.368  13.905  10.286
62435SOL    HW189202  10.461  13.883  10.294
62435SOL    HW289203  10.364  13.965  10.211
62436SOL     OW89204   6.121   0.101   1.526
62436SOL    HW189205   6.077   0.134   1.604
62436SOL    HW289206   6.214   0.115   1.543
62437SOL     OW89207   8.700  12.934  12.213
62437SOL    HW189208   8.655  12.960  12.294
62437SOL    HW289209   8.777  12.887  12.243
62438SOL     OW89210  12.768   0.860  13.088
62438SOL    HW189211  12.742   0.917  13.016
62438SOL    HW289212  12.863   0.868  13.091
62439SOL     OW89213  13.167   9.905  10.977
62439SOL    HW189214  13.195   9.991  10.946
62439SOL    HW289215  13.161   9.851  10.898
62440SOL     OW89216   9.227   4.249  14.751
62440SOL    HW189217   9.307   4.301  14.744
62440SOL    HW289218   9.199   4.236  14.661
62441SOL     OW89219   3.933   0.569   7.766
62441SOL    HW189220   3.956   0.661   7.772
62441SOL    HW289221   3.958   0.533   7.851
62442SOL     OW89222   3.322  12.859  14.773
62442SOL    HW189223   3.314  12.905  14.857
62442SOL    HW289224   3.379  12.915  14.720
62443SOL     OW89225   2.377   3.033   2.562
62443SOL    HW189226   2.336   3.093   2.500
62443SOL    HW289227   2.400   2.957   2.509
62444SOL     OW89228  14.712   6.729  14.329
62444SOL    HW189229  14.735   6.820  14.310
62444SOL    HW289230  14.774   6.677  14.278
62445SOL     OW89231  10.858   0.812   3.654
62445SOL    HW189232  10.901   0.895   3.632
62445SOL    HW289233  10.889   0.751   3.587
62446SOL     OW89234  14.184   4.725  11.977
62446SOL    HW189235  14.224   4.672  12.046
62446SOL    HW289236  14.183   4.813  12.012
62447SOL     OW89237  12.309   9.676  10.359
62447SOL    HW189238  12.265   9.611  10.305
62447SOL    HW289239  12.388   9.631  10.391
62448SOL     OW89240   2.004   2.667   0.850
62448SOL    HW189241   1.923   2.659   0.900
62448SOL    HW289242   2.073   2.661   0.916
62449SOL     OW89243   5.571   1.810  10.411
62449SOL    HW189244   5.626   1.822  10.489
62449SOL    HW289245   5.593   1.721  10.381
62450SOL     OW89246  12.784   2.101  12.555
62450SOL    HW189247  12.853   2.042  12.585
62450SOL    HW289248  12.743   2.132  12.636
62451SOL     OW89249   1.135   2.993   9.487
62451SOL    HW189250   1.166   2.965   9.573
62451SOL    HW289251   1.204   2.964   9.426
62452SOL     OW89252   9.314   4.622  10.765
62452SOL    HW189253   9.261   4.548  10.737
62452SOL    HW289254   9.390   4.621  10.707
62453SOL     OW89255  13.065  10.332   4.995
62453SOL    HW189256  13.093  10.395   4.928
62453SOL    HW289257  13.146  10.293   5.027
62454SOL     OW89258   8.921   8.237   6.850
62454SOL    HW189259   8.845   8.179   6.847
62454SOL    HW289260   8.990   8.183   6.891
62455SOL     OW89261   8.880  12.186   2.026
62455SOL    HW189262   8.824  12.113   2.000
62455SOL    HW289263   8.923  12.214   1.946
62456SOL     OW89264   6.754   8.228  14.778
62456SOL    HW189265   6.805   8.161  14.731
62456SOL    HW289266   6.718   8.182  14.854
62457SOL     OW89267   2.783   6.041   7.045
62457SOL    HW189268   2.878   6.028   7.038
62457SOL    HW289269   2.756   6.063   6.956
62458SOL     OW89270   2.655  13.774   3.903
62458SOL    HW189271   2.626  13.763   3.994
62458SOL    HW289272   2.595  13.719   3.852
62459SOL     OW89273   1.453   8.009   8.950
62459SOL    HW189274   1.540   8.044   8.971
62459SOL    HW289275   1.392   8.066   8.997
62460SOL     OW89276  12.156   9.434   1.251
62460SOL    HW189277  12.163   9.490   1.173
62460SOL    HW289278  12.071   9.456   1.288
62461SOL     OW89279   8.108   0.115   4.451
62461SOL    HW189280   8.137   0.056   4.521
62461SOL    HW289281   8.013   0.122   4.462
62462SOL     OW89282   8.853   9.783   2.194
62462SOL    HW189283   8.801   9.702   2.193
62462SOL    HW289284   8.923   9.765   2.258
62463SOL     OW89285   0.530   5.408   6.548
62463SOL    HW189286   0.554   5.321   6.580
62463SOL    HW289287   0.492   5.392   6.461
62464SOL     OW89288   5.313   4.851  12.733
62464SOL    HW189289   5.403   4.843  12.764
62464SOL    HW289290   5.320   4.902  12.652
62465SOL     OW89291   3.029   5.492   0.928
62465SOL    HW189292   3.054   5.579   0.958
62465SOL    HW289293   3.015   5.442   1.008
62466SOL     OW89294   8.275   2.837   1.151
62466SOL    HW189295   8.307   2.919   1.114
62466SOL    HW289296   8.277   2.775   1.077
62467SOL     OW89297   4.982  11.959   8.826
62467SOL    HW189298   4.987  12.046   8.786
62467SOL    HW289299   4.899  11.958   8.873
62468SOL     OW89300   5.467   4.020   0.034
62468SOL    HW189301   5.550   3.973   0.029
62468SOL    HW289302   5.458   4.063  14.828
62469SOL     OW89303  13.901   6.699  11.865
62469SOL    HW189304  13.989   6.713  11.830
62469SOL    HW289305  13.900   6.748  11.947
62470SOL     OW89306  12.320  12.173   7.492
62470SOL    HW189307  12.250  12.238   7.500
62470SOL    HW289308  12.274  12.090   7.476
62471SOL     OW89309   9.715   6.378  14.392
62471SOL    HW189310   9.676   6.463  14.374
62471SOL    HW289311   9.642   6.322  14.415
62472SOL     OW89312   0.947  13.814  10.795
62472SOL    HW189313   1.038  13.822  10.764
62472SOL    HW289314   0.949  13.739  10.855
62473SOL     OW89315   7.147   9.043   4.518
62473SOL    HW189316   7.242   9.053   4.515
62473SOL    HW289317   7.133   8.949   4.525
62474SOL     OW89318   8.055   5.699  12.296
62474SOL    HW189319   8.080   5.624  12.242
62474SOL    HW289320   8.113   5.694  12.372
62475SOL     OW89321   9.502   1.553   3.075
62475SOL    HW189322   9.545   1.485   3.127
62475SOL    HW289323   9.409   1.543   3.094
62476SOL     OW89324   2.779  12.020   5.865
62476SOL    HW189325   2.819  12.086   5.808
62476SOL    HW289326   2.842  11.947   5.865
62477SOL     OW89327   6.620  14.282   0.144
62477SOL    HW189328   6.711  14.256   0.157
62477SOL    HW289329   6.611  14.294   0.049
62478SOL     OW89330  14.170  13.474   6.534
62478SOL    HW189331  14.098  13.452   6.593
62478SOL    HW289332  14.230  13.401   6.542
62479SOL     OW89333  13.226   8.111   0.848
62479SOL    HW189334  13.198   8.145   0.763
62479SOL    HW289335  13.223   8.016   0.837
62480SOL     OW89336   1.285  13.415   9.594
62480SOL    HW189337   1.190  13.406   9.587
62480SOL    HW289338   1.308  13.480   9.528
62481SOL     OW89339  13.305   7.266   2.548
62481SOL    HW189340  13.305   7.347   2.496
62481SOL    HW289341  13.218   7.264   2.587
62482SOL     OW89342   6.177   8.055  13.912
62482SOL    HW189343   6.212   8.134  13.954
62482SOL    HW289344   6.179   8.075  13.818
62483SOL     OW89345   5.956   5.972   4.436
62483SOL    HW189346   5.952   6.025   4.516
62483SOL    HW289347   6.044   5.935   4.437
62484SOL     OW89348  13.043  12.319   2.487
62484SOL    HW189349  13.071  12.340   2.398
62484SOL    HW289350  13.005  12.400   2.520
62485SOL     OW89351   7.365  11.068   7.242
62485SOL    HW189352   7.397  11.072   7.151
62485SOL    HW289353   7.376  11.157   7.275
62486SOL     OW89354  13.324  12.325  12.872
62486SOL    HW189355  13.339  12.236  12.843
62486SOL    HW289356  13.257  12.359  12.812
62487SOL     OW89357   7.778   8.141   7.358
62487SOL    HW189358   7.771   8.064   7.414
62487SOL    HW289359   7.821   8.109   7.278
62488SOL     OW89360   8.286  10.983   7.392
62488SOL    HW189361   8.329  10.903   7.361
62488SOL    HW289362   8.345  11.018   7.458
62489SOL     OW89363   1.307   9.534   1.314
62489SOL    HW189364   1.266   9.620   1.317
62489SOL    HW289365   1.356   9.534   1.231
62490SOL     OW89366   6.265   6.541   9.989
62490SOL    HW189367   6.280   6.596   9.912
62490SOL    HW289368   6.177   6.564  10.018
62491SOL     OW89369  13.240  10.803  11.474
62491SOL    HW189370  13.239  10.892  11.507
62491SOL    HW289371  13.247  10.748  11.552
62492SOL     OW89372   1.095  10.889   0.155
62492SOL    HW189373   1.055  10.852   0.234
62492SOL    HW289374   1.101  10.983   0.173
62493SOL     OW89375   6.327  14.052  14.701
62493SOL    HW189376   6.322  14.134  14.653
62493SOL    HW289377   6.279  14.068  14.782
62494SOL     OW89378  14.160   9.144   5.641
62494SOL    HW189379  14.173   9.054   5.612
62494SOL    HW289380  14.065   9.152   5.654
62495SOL     OW89381   6.551   2.276   4.127
62495SOL    HW189382   6.545   2.187   4.161
62495SOL    HW289383   6.643   2.300   4.138
62496SOL     OW89384  13.424   1.016   1.957
62496SOL    HW189385  13.353   0.969   2.001
62496SOL    HW289386  13.480   1.047   2.028
62497SOL     OW89387  12.372   9.077  12.743
62497SOL    HW189388  12.385   9.095  12.836
62497SOL    HW289389  12.459   9.050  12.712
62498SOL     OW89390   7.928   2.398   3.731
62498SOL    HW189391   7.887   2.352   3.804
62498SOL    HW289392   7.977   2.470   3.771
62499SOL     OW89393   7.542  11.569   4.963
62499SOL    HW189394   7.543  11.624   4.885
62499SOL    HW289395   7.549  11.631   5.036
62500SOL     OW89396  12.441   8.202  11.607
62500SOL    HW189397  12.364   8.197  11.551
62500SOL    HW289398  12.456   8.296  11.618
62501SOL     OW89399   0.460   8.039   8.214
62501SOL    HW189400   0.498   8.014   8.299
62501SOL    HW289401   0.396   7.970   8.195
62502SOL     OW89402  11.561  10.898   4.671
62502SOL    HW189403  11.508  10.848   4.609
62502SOL    HW289404  11.564  10.844   4.750
62503SOL     OW89405   4.430   3.525  12.589
62503SOL    HW189406   4.385   3.502  12.507
62503SOL    HW289407   4.360   3.557  12.646
62504SOL     OW89408   7.578   8.930   6.365
62504SOL    HW189409   7.658   8.979   6.346
62504SOL    HW289410   7.569   8.869   6.292
62505SOL     OW89411   3.594   9.822   0.481
62505SOL    HW189412   3.681   9.790   0.503
62505SOL    HW289413   3.582   9.898   0.538
62506SOL     OW89414   9.418   2.413   3.538
62506SOL    HW189415   9.387   2.496   3.576
62506SOL    HW289416   9.342   2.380   3.489
62507SOL     OW89417   5.443  10.393  12.508
62507SOL    HW189418   5.491  10.311  12.514
62507SOL    HW289419   5.353  10.369  12.531
62508SOL     OW89420   7.039   7.696   8.686
62508SOL    HW189421   7.109   7.633   8.703
62508SOL    HW289422   6.984   7.693   8.765
62509SOL     OW89423   1.586  11.976   5.426
62509SOL    HW189424   1.509  11.966   5.482
62509SOL    HW289425   1.630  11.891   5.430
62510SOL     OW89426  11.076   2.827   6.772
62510SOL    HW189427  11.147   2.884   6.801
62510SOL    HW289428  10.996   2.869   6.804
62511SOL     OW89429   4.072   6.849   1.319
62511SOL    HW189430   4.001   6.870   1.258
62511SOL    HW289431   4.124   6.928   1.323
62512SOL     OW89432  12.229   4.735  13.466
62512SOL    HW189433  12.241   4.741  13.371
62512SOL    HW289434  12.171   4.807  13.488
62513SOL     OW89435   9.740   8.212   1.412
62513SOL    HW189436   9.744   8.308   1.406
62513SOL    HW289437   9.747   8.193   1.505
62514SOL     OW89438   4.583  14.005   0.480
62514SOL    HW189439   4.632  13.941   0.428
62514SOL    HW289440   4.597  14.088   0.435
62515SOL     OW89441   5.269  12.728   6.355
62515SOL    HW189442   5.191  12.709   6.303
62515SOL    HW289443   5.266  12.822   6.370
62516SOL     OW89444   7.119  13.905   8.093
62516SOL    HW189445   7.191  13.846   8.117
62516SOL    HW289446   7.137  13.928   8.001
62517SOL     OW89447   9.996   4.343   0.890
62517SOL    HW189448  10.011   4.249   0.886
62517SOL    HW289449   9.983   4.370   0.799
62518SOL     OW89450   8.196   8.313   9.252
62518SOL    HW189451   8.251   8.332   9.177
62518SOL    HW289452   8.115   8.278   9.215
62519SOL     OW89453   4.487  12.372  11.054
62519SOL    HW189454   4.462  12.449  11.003
62519SOL    HW289455   4.419  12.307  11.036
62520SOL     OW89456   0.413   6.028   4.668
62520SOL    HW189457   0.428   6.011   4.576
62520SOL    HW289458   0.318   6.026   4.678
62521SOL     OW89459   2.011   9.554   7.344
62521SOL    HW189460   2.016   9.554   7.248
62521SOL    HW289461   1.973   9.469   7.365
62522SOL     OW89462   5.861   9.825   8.112
62522SOL    HW189463   5.887   9.747   8.160
62522SOL    HW289464   5.871   9.801   8.020
62523SOL     OW89465   2.907   0.010   6.654
62523SOL    HW189466   2.921   0.058   6.572
62523SOL    HW289467   2.948  14.805   6.638
62524SOL     OW89468   5.093  10.544   1.024
62524SOL    HW189469   5.053  10.477   0.968
62524SOL    HW289470   5.174  10.505   1.056
62525SOL     OW89471   4.335  12.415   9.565
62525SOL    HW189472   4.408  12.471   9.538
62525SOL    HW289473   4.351  12.398   9.658
62526SOL     OW89474   5.013  11.589  10.239
62526SOL    HW189475   5.075  11.545  10.182
62526SOL    HW289476   4.950  11.629  10.179
62527SOL     OW89477  10.915  12.489  13.750
62527SOL    HW189478  10.918  12.451  13.662
62527SOL    HW289479  10.999  12.467  13.788
62528SOL     OW89480  13.040   7.491  12.908
62528SOL    HW189481  13.004   7.404  12.926
62528SOL    HW289482  13.115   7.499  12.967
62529SOL     OW89483   9.665   8.428   3.573
62529SOL    HW189484   9.691   8.345   3.613
62529SOL    HW289485   9.696   8.494   3.634
62530SOL     OW89486  13.483  12.582   0.583
62530SOL    HW189487  13.480  12.563   0.677
62530SOL    HW289488  13.546  12.654   0.576
62531SOL     OW89489   4.199  10.739   3.705
62531SOL    HW189490   4.219  10.696   3.622
62531SOL    HW289491   4.104  10.748   3.705
62532SOL     OW89492   1.832   9.040   1.758
62532SOL    HW189493   1.924   9.018   1.746
62532SOL    HW289494   1.785   8.977   1.704
62533SOL     OW89495   8.436  10.384   4.474
62533SOL    HW189496   8.530  10.392   4.457
62533SOL    HW289497   8.414  10.463   4.524
62534SOL     OW89498   5.413  13.750   2.972
62534SOL    HW189499   5.489  13.741   3.030
62534SOL    HW289500   5.412  13.668   2.922
62535SOL     OW89501   9.356  13.734  10.065
62535SOL    HW189502   9.268  13.710  10.095
62535SOL    HW289503   9.408  13.738  10.145
62536SOL     OW89504  11.375   9.712   9.578
62536SOL    HW189505  11.317   9.679   9.510
62536SOL    HW289506  11.368   9.807   9.573
62537SOL     OW89507   2.633  13.657   6.331
62537SOL    HW189508   2.564  13.592   6.318
62537SOL    HW289509   2.617  13.693   6.418
62538SOL     OW89510   5.392  14.183  14.049
62538SOL    HW189511   5.484  14.208  14.047
62538SOL    HW289512   5.348  14.245  13.992
62539SOL     OW89513  12.777  14.465   5.338
62539SOL    HW189514  12.866  14.440   5.315
62539SOL    HW289515  12.722  14.400   5.294
62540SOL     OW89516   0.235   2.857   7.431
62540SOL    HW189517   0.162   2.908   7.466
62540SOL    HW289518   0.197   2.806   7.360
62541SOL     OW89519  10.135   2.502   1.020
62541SOL    HW189520  10.152   2.418   0.978
62541SOL    HW289521  10.124   2.481   1.113
62542SOL     OW89522   4.082   2.272   4.974
62542SOL    HW189523   4.028   2.351   4.971
62542SOL    HW289524   4.172   2.304   4.974
62543SOL     OW89525   2.056   8.190   1.486
62543SOL    HW189526   2.004   8.210   1.563
62543SOL    HW289527   2.057   8.094   1.482
62544SOL     OW89528  10.615   7.431   0.506
62544SOL    HW189529  10.708   7.412   0.495
62544SOL    HW289530  10.570   7.348   0.487
62545SOL     OW89531   5.326  12.394   8.747
62545SOL    HW189532   5.414  12.383   8.710
62545SOL    HW289533   5.310  12.314   8.795
62546SOL     OW89534  13.712   0.091   6.197
62546SOL    HW189535  13.677   0.022   6.142
62546SOL    HW289536  13.652   0.165   6.184
62547SOL     OW89537   5.948  10.276   6.081
62547SOL    HW189538   5.905  10.340   6.025
62547SOL    HW289539   5.990  10.328   6.149
62548SOL     OW89540   6.067   7.503  12.206
62548SOL    HW189541   6.045   7.425  12.258
62548SOL    HW289542   6.108   7.562  12.269
62549SOL     OW89543  11.341   8.766   5.931
62549SOL    HW189544  11.291   8.700   5.882
62549SOL    HW289545  11.281   8.840   5.940
62550SOL     OW89546  11.087   0.417   1.376
62550SOL    HW189547  11.059   0.495   1.424
62550SOL    HW289548  11.102   0.448   1.286
62551SOL     OW89549   4.195  10.604  11.806
62551SOL    HW189550   4.170  10.662  11.734
62551SOL    HW289551   4.125  10.539  11.810
62552SOL     OW89552   5.558  12.646   8.893
62552SOL    HW189553   5.624  12.692   8.946
62552SOL    HW289554   5.544  12.564   8.939
62553SOL     OW89555   0.664   0.485   8.608
62553SOL    HW189556   0.708   0.425   8.548
62553SOL    HW289557   0.598   0.431   8.652
62554SOL     OW89558   2.024   6.176  14.505
62554SOL    HW189559   1.974   6.227  14.570
62554SOL    HW289560   2.094   6.135  14.556
62555SOL     OW89561   8.746   0.629  12.438
62555SOL    HW189562   8.776   0.595  12.353
62555SOL    HW289563   8.826   0.666  12.477
62556SOL     OW89564   7.328   3.122   2.474
62556SOL    HW189565   7.293   3.151   2.390
62556SOL    HW289566   7.254   3.128   2.534
62557SOL     OW89567   7.004  10.002  11.455
62557SOL    HW189568   6.994   9.996  11.550
62557SOL    HW289569   7.010   9.911  11.425
62558SOL     OW89570   8.877   0.431   2.893
62558SOL    HW189571   8.872   0.337   2.909
62558SOL    HW289572   8.858   0.440   2.800
62559SOL     OW89573   4.972   4.421  13.796
62559SOL    HW189574   4.921   4.482  13.848
62559SOL    HW289575   5.056   4.414  13.841
62560SOL     OW89576   0.659   6.140   7.902
62560SOL    HW189577   0.664   6.136   7.806
62560SOL    HW289578   0.595   6.209   7.920
62561SOL     OW89579   2.861   7.754   2.293
62561SOL    HW189580   2.774   7.789   2.276
62561SOL    HW289581   2.863   7.740   2.388
62562SOL     OW89582   5.960  11.092   2.456
62562SOL    HW189583   5.914  11.100   2.539
62562SOL    HW289584   5.920  11.015   2.414
62563SOL     OW89585  12.055   0.530   0.692
62563SOL    HW189586  12.131   0.535   0.750
62563SOL    HW289587  11.989   0.485   0.744
62564SOL     OW89588   4.936   2.667   5.942
62564SOL    HW189589   4.861   2.706   5.896
62564SOL    HW289590   4.905   2.582   5.971
62565SOL     OW89591   4.823  11.418   1.106
62565SOL    HW189592   4.771  11.377   1.036
62565SOL    HW289593   4.758  11.455   1.165
62566SOL     OW89594   1.949   2.596  12.919
62566SOL    HW189595   1.997   2.623  12.840
62566SOL    HW289596   2.005   2.529  12.960
62567SOL     OW89597   0.973   2.898   8.293
62567SOL    HW189598   0.929   2.980   8.316
62567SOL    HW289599   1.066   2.918   8.299
62568SOL     OW89600  13.076   0.375   1.975
62568SOL    HW189601  13.009   0.322   2.019
62568SOL    HW289602  13.038   0.462   1.969
62569SOL     OW89603   4.329  14.133   3.707
62569SOL    HW189604   4.358  14.099   3.622
62569SOL    HW289605   4.384  14.088   3.771
62570SOL     OW89606  10.925   9.038  13.941
62570SOL    HW189607  10.964   9.001  14.020
62570SOL    HW289608  10.994   9.031  13.874
62571SOL     OW89609   8.677   4.737   4.282
62571SOL    HW189610   8.652   4.683   4.206
62571SOL    HW289611   8.771   4.750   4.271
62572SOL     OW89612   7.400   0.346  10.816
62572SOL    HW189613   7.369   0.266  10.773
62572SOL    HW289614   7.415   0.407  10.744
62573SOL     OW89615   3.810   8.653   5.874
62573SOL    HW189616   3.827   8.686   5.962
62573SOL    HW289617   3.756   8.575   5.888
62574SOL     OW89618  14.080   8.781   8.706
62574SOL    HW189619  14.138   8.706   8.692
62574SOL    HW289620  14.003   8.744   8.749
62575SOL     OW89621   6.082   1.566   2.904
62575SOL    HW189622   6.169   1.592   2.933
62575SOL    HW289623   6.037   1.648   2.886
62576SOL     OW89624  11.151  12.066  10.066
62576SOL    HW189625  11.230  12.109  10.100
62576SOL    HW289626  11.081  12.096  10.123
62577SOL     OW89627  12.938  10.687  14.410
62577SOL    HW189628  13.011  10.635  14.377
62577SOL    HW289629  12.948  10.772  14.369
62578SOL     OW89630   6.380   8.805   6.337
62578SOL    HW189631   6.402   8.898   6.332
62578SOL    HW289632   6.315   8.792   6.269
62579SOL     OW89633  13.715   2.456   0.451
62579SOL    HW189634  13.745   2.462   0.541
62579SOL    HW289635  13.762   2.380   0.415
62580SOL     OW89636  12.611  11.911   1.344
62580SOL    HW189637  12.547  11.965   1.390
62580SOL    HW289638  12.558  11.857   1.286
62581SOL     OW89639   1.009  11.019   8.863
62581SOL    HW189640   1.098  10.985   8.874
62581SOL    HW289641   0.958  10.976   8.932
62582SOL     OW89642   4.924   9.677  12.411
62582SOL    HW189643   4.928   9.707  12.502
62582SOL    HW289644   4.926   9.582  12.417
62583SOL     OW89645   5.756   5.157   6.002
62583SOL    HW189646   5.698   5.082   6.010
62583SOL    HW289647   5.818   5.132   5.934
62584SOL     OW89648  13.632   7.436   0.220
62584SOL    HW189649  13.638   7.503   0.151
62584SOL    HW289650  13.538   7.426   0.235
62585SOL     OW89651   8.252   2.136   4.311
62585SOL    HW189652   8.270   2.125   4.218
62585SOL    HW289653   8.165   2.175   4.315
62586SOL     OW89654   5.611   9.289   7.909
62586SOL    HW189655   5.620   9.210   7.856
62586SOL    HW289656   5.516   9.303   7.915
62587SOL     OW89657   1.984   0.942  13.642
62587SOL    HW189658   1.952   0.852  13.628
62587SOL    HW289659   1.948   0.967  13.727
62588SOL     OW89660   4.740   0.632  10.169
62588SOL    HW189661   4.677   0.640  10.097
62588SOL    HW289662   4.761   0.723  10.192
62589SOL     OW89663   6.550   7.534  14.344
62589SOL    HW189664   6.529   7.573  14.428
62589SOL    HW289665   6.470   7.545  14.292
62590SOL     OW89666   3.581  10.089   1.164
62590SOL    HW189667   3.514  10.056   1.224
62590SOL    HW289668   3.532  10.114   1.085
62591SOL     OW89669   0.496   7.849   2.429
62591SOL    HW189670   0.457   7.762   2.432
62591SOL    HW289671   0.546   7.850   2.348
62592SOL     OW89672   7.275   5.550   5.083
62592SOL    HW189673   7.356   5.585   5.045
62592SOL    HW289674   7.263   5.465   5.040
62593SOL     OW89675   9.552   7.318  11.432
62593SOL    HW189676   9.635   7.317  11.480
62593SOL    HW289677   9.545   7.230  11.395
62594SOL     OW89678   9.332   7.254   4.233
62594SOL    HW189679   9.333   7.346   4.206
62594SOL    HW289680   9.297   7.207   4.157
62595SOL     OW89681   6.595   7.393   6.038
62595SOL    HW189682   6.637   7.468   6.082
62595SOL    HW289683   6.524   7.368   6.097
62596SOL     OW89684   3.195  11.234   3.103
62596SOL    HW189685   3.170  11.223   3.012
62596SOL    HW289686   3.289  11.254   3.101
62597SOL     OW89687   1.157  12.345   7.992
62597SOL    HW189688   1.218  12.325   8.063
62597SOL    HW289689   1.101  12.414   8.028
62598SOL     OW89690  13.594   4.444   1.218
62598SOL    HW189691  13.565   4.423   1.129
62598SOL    HW289692  13.641   4.365   1.246
62599SOL     OW89693   8.721  10.334   4.443
62599SOL    HW189694   8.746  10.275   4.514
62599SOL    HW289695   8.793  10.328   4.380
62600SOL     OW89696   2.819   3.248   7.076
62600SOL    HW189697   2.912   3.226   7.076
62600SOL    HW289698   2.784   3.203   7.153
62601SOL     OW89699  11.949   9.287   5.982
62601SOL    HW189700  11.931   9.334   6.063
62601SOL    HW289701  11.910   9.341   5.913
62602SOL     OW89702  11.629   9.308   6.076
62602SOL    HW189703  11.572   9.245   6.118
62602SOL    HW289704  11.609   9.391   6.119
62603SOL     OW89705   4.623  11.267   0.508
62603SOL    HW189706   4.669  11.263   0.592
62603SOL    HW289707   4.531  11.261   0.530
62604SOL     OW89708  10.233  10.432   7.285
62604SOL    HW189709  10.289  10.372   7.334
62604SOL    HW289710  10.160  10.377   7.255
62605SOL     OW89711   6.443   6.302   9.179
62605SOL    HW189712   6.456   6.218   9.223
62605SOL    HW289713   6.470   6.367   9.244
62606SOL     OW89714   1.305   3.409   9.249
62606SOL    HW189715   1.292   3.504   9.240
62606SOL    HW289716   1.276   3.389   9.338
62607SOL     OW89717   2.820   2.647   3.703
62607SOL    HW189718   2.752   2.596   3.659
62607SOL    HW289719   2.783   2.668   3.789
62608SOL     OW89720  10.999  12.051  12.512
62608SOL    HW189721  10.984  12.116  12.580
62608SOL    HW289722  10.928  11.988  12.523
62609SOL     OW89723  11.151  14.386   1.363
62609SOL    HW189724  11.149  14.428   1.277
62609SOL    HW289725  11.094  14.310   1.354
62610SOL     OW89726   9.732   8.223   1.977
62610SOL    HW189727   9.783   8.147   2.005
62610SOL    HW289728   9.776   8.297   2.019
62611SOL     OW89729   6.787   5.339   6.352
62611SOL    HW189730   6.810   5.405   6.286
62611SOL    HW289731   6.870   5.295   6.371
62612SOL     OW89732   6.871   0.875   6.773
62612SOL    HW189733   6.777   0.888   6.786
62612SOL    HW289734   6.903   0.960   6.741
62613SOL     OW89735  14.687   4.212   9.334
62613SOL    HW189736  14.638   4.206   9.252
62613SOL    HW289737  14.636   4.273   9.388
62614SOL     OW89738   1.525   7.359   8.507
62614SOL    HW189739   1.444   7.354   8.557
62614SOL    HW289740   1.593   7.332   8.568
62615SOL     OW89741  12.267  12.301   8.647
62615SOL    HW189742  12.261  12.328   8.555
62615SOL    HW289743  12.211  12.363   8.694
62616SOL     OW89744  13.223   5.692  12.751
62616SOL    HW189745  13.165   5.640  12.808
62616SOL    HW289746  13.233   5.637  12.672
62617SOL     OW89747  11.461   6.306   4.972
62617SOL    HW189748  11.535   6.271   4.923
62617SOL    HW289749  11.398   6.334   4.905
62618SOL     OW89750   3.375  11.949   6.158
62618SOL    HW189751   3.416  11.888   6.219
62618SOL    HW289752   3.351  12.025   6.211
62619SOL     OW89753  10.039   3.073  14.362
62619SOL    HW189754  10.108   3.007  14.363
62619SOL    HW289755  10.086   3.157  14.361
62620SOL     OW89756  11.781   2.498   0.543
62620SOL    HW189757  11.733   2.521   0.623
62620SOL    HW289758  11.833   2.575   0.522
62621SOL     OW89759  13.855   3.032   1.374
62621SOL    HW189760  13.816   3.012   1.459
62621SOL    HW289761  13.780   3.055   1.319
62622SOL     OW89762   9.995   7.100   4.893
62622SOL    HW189763   9.916   7.050   4.914
62622SOL    HW289764   9.963   7.184   4.861
62623SOL     OW89765   0.874   7.830  12.444
62623SOL    HW189766   0.876   7.799  12.353
62623SOL    HW289767   0.961   7.867  12.458
62624SOL     OW89768  12.744   8.434   7.125
62624SOL    HW189769  12.783   8.494   7.188
62624SOL    HW289770  12.804   8.434   7.051
62625SOL     OW89771   5.982  11.107   1.067
62625SOL    HW189772   5.893  11.073   1.053
62625SOL    HW289773   6.032  11.071   0.993
62626SOL     OW89774   8.193   9.838  11.867
62626SOL    HW189775   8.286   9.822  11.852
62626SOL    HW289776   8.160   9.757  11.907
62627SOL     OW89777   7.783   9.574   9.172
62627SOL    HW189778   7.764   9.485   9.144
62627SOL    HW289779   7.796   9.623   9.090
62628SOL     OW89780  10.130   1.362   2.258
62628SOL    HW189781  10.094   1.449   2.240
62628SOL    HW289782  10.225   1.374   2.251
62629SOL     OW89783  11.128   2.341   0.089
62629SOL    HW189784  11.105   2.250   0.108
62629SOL    HW289785  11.196   2.362   0.152
62630SOL     OW89786   0.335   6.895  12.834
62630SOL    HW189787   0.268   6.851  12.782
62630SOL    HW289788   0.401   6.828  12.852
62631SOL     OW89789   4.721   9.533   5.482
62631SOL    HW189790   4.663   9.493   5.418
62631SOL    HW289791   4.684   9.621   5.496
62632SOL     OW89792   9.580   4.622   0.296
62632SOL    HW189793   9.508   4.620   0.358
62632SOL    HW289794   9.603   4.530   0.282
62633SOL     OW89795  10.537   5.157   1.057
62633SOL    HW189796  10.589   5.119   1.128
62633SOL    HW289797  10.481   5.084   1.027
62634SOL     OW89798   2.910   9.477   8.742
62634SOL    HW189799   2.933   9.449   8.831
62634SOL    HW289800   2.821   9.510   8.750
62635SOL     OW89801   5.767  10.152   2.952
62635SOL    HW189802   5.812  10.189   2.875
62635SOL    HW289803   5.719  10.077   2.917
62636SOL     OW89804   0.196   2.169   0.634
62636SOL    HW189805   0.140   2.219   0.575
62636SOL    HW289806   0.206   2.084   0.591
62637SOL     OW89807  11.484  12.669  11.441
62637SOL    HW189808  11.402  12.622  11.451
62637SOL    HW289809  11.473  12.721  11.361
62638SOL     OW89810  14.829   0.343  11.013
62638SOL    HW189811   0.006   0.278  10.973
62638SOL    HW289812  14.833   0.419  10.954
62639SOL     OW89813  13.772  14.190   3.820
62639SOL    HW189814  13.686  14.167   3.856
62639SOL    HW289815  13.759  14.192   3.726
62640SOL     OW89816   0.854  10.267   5.979
62640SOL    HW189817   0.807  10.281   5.897
62640SOL    HW289818   0.928  10.329   5.976
62641SOL     OW89819   2.225   6.593   7.627
62641SOL    HW189820   2.171   6.525   7.586
62641SOL    HW289821   2.186   6.605   7.713
62642SOL     OW89822   3.817   8.187  11.625
62642SOL    HW189823   3.850   8.250  11.561
62642SOL    HW289824   3.824   8.102  11.582
62643SOL     OW89825  10.743   2.670   8.271
62643SOL    HW189826  10.689   2.739   8.310
62643SOL    HW289827  10.742   2.600   8.335
62644SOL     OW89828   7.222   8.855   3.376
62644SOL    HW189829   7.135   8.889   3.396
62644SOL    HW289830   7.232   8.780   3.435
62645SOL     OW89831   5.654   1.791  11.606
62645SOL    HW189832   5.698   1.819  11.526
62645SOL    HW289833   5.586   1.730  11.576
62646SOL     OW89834   5.775  13.554  10.269
62646SOL    HW189835   5.697  13.578  10.220
62646SOL    HW289836   5.773  13.610  10.347
62647SOL     OW89837  14.543   2.888  14.376
62647SOL    HW189838  14.602   2.958  14.406
62647SOL    HW289839  14.577   2.863  14.290
62648SOL     OW89840   8.906   6.367   4.321
62648SOL    HW189841   8.969   6.439   4.333
62648SOL    HW289842   8.821   6.409   4.331
62649SOL     OW89843   2.253   4.459   2.014
62649SOL    HW189844   2.312   4.439   1.942
62649SOL    HW289845   2.269   4.390   2.079
62650SOL     OW89846   0.576   2.742  13.976
62650SOL    HW189847   0.649   2.749  13.915
62650SOL    HW289848   0.515   2.810  13.948
62651SOL     OW89849   3.392   3.694   3.659
62651SOL    HW189850   3.476   3.661   3.625
62651SOL    HW289851   3.366   3.631   3.726
62652SOL     OW89852   9.193   1.079  13.056
62652SOL    HW189853   9.178   1.150  12.993
62652SOL    HW289854   9.133   1.097  13.128
62653SOL     OW89855  13.278   0.320  10.836
62653SOL    HW189856  13.355   0.274  10.869
62653SOL    HW289857  13.313   0.382  10.772
62654SOL     OW89858   1.691   6.254   3.131
62654SOL    HW189859   1.726   6.343   3.124
62654SOL    HW289860   1.768   6.197   3.126
62655SOL     OW89861   3.376  11.815   1.816
62655SOL    HW189862   3.417  11.729   1.824
62655SOL    HW289863   3.351  11.839   1.905
62656SOL     OW89864   4.240   3.307  10.122
62656SOL    HW189865   4.192   3.268  10.194
62656SOL    HW289866   4.331   3.282  10.138
62657SOL     OW89867   9.397   5.107  14.681
62657SOL    HW189868   9.413   5.077  14.591
62657SOL    HW289869   9.413   5.030  14.735
62658SOL     OW89870   7.302   4.701  10.977
62658SOL    HW189871   7.385   4.687  10.932
62658SOL    HW289872   7.324   4.703  11.070
62659SOL     OW89873   4.696   3.465  10.763
62659SOL    HW189874   4.708   3.398  10.696
62659SOL    HW289875   4.673   3.544  10.713
62660SOL     OW89876  14.778  13.398   3.655
62660SOL    HW189877  14.854  13.352   3.687
62660SOL    HW289878  14.781  13.483   3.699
62661SOL     OW89879  14.137   9.867   6.212
62661SOL    HW189880  14.135   9.948   6.263
62661SOL    HW289881  14.150   9.798   6.278
62662SOL     OW89882   4.749   0.629  11.588
62662SOL    HW189883   4.685   0.623  11.658
62662SOL    HW289884   4.753   0.541  11.551
62663SOL     OW89885  14.603   3.197   3.324
62663SOL    HW189886  14.540   3.254   3.368
62663SOL    HW289887  14.629   3.247   3.246
62664SOL     OW89888   3.484   1.931   7.507
62664SOL    HW189889   3.560   1.957   7.454
62664SOL    HW289890   3.427   1.883   7.446
62665SOL     OW89891  11.455   4.868   2.250
62665SOL    HW189892  11.366   4.834   2.239
62665SOL    HW289893  11.506   4.792   2.278
62666SOL     OW89894   4.386  14.746  14.878
62666SOL    HW189895   4.415  14.724  14.790
62666SOL    HW289896   4.291  14.737  14.875
62667SOL     OW89897   0.460   8.726  14.089
62667SOL    HW189898   0.554   8.739  14.097
62667SOL    HW289899   0.428   8.720  14.179
62668SOL     OW89900  14.631  14.559   1.178
62668SOL    HW189901  14.706  14.610   1.209
62668SOL    HW289902  14.565  14.625   1.158
62669SOL     OW89903   2.755  10.486  11.702
62669SOL    HW189904   2.757  10.517  11.792
62669SOL    HW289905   2.827  10.423  11.696
62670SOL     OW89906  11.746   3.791   9.175
62670SOL    HW189907  11.694   3.857   9.130
62670SOL    HW289908  11.687   3.715   9.181
62671SOL     OW89909   1.165   5.598   5.708
62671SOL    HW189910   1.177   5.655   5.632
62671SOL    HW289911   1.125   5.653   5.775
62672SOL     OW89912  12.262  14.277   5.985
62672SOL    HW189913  12.174  14.294   6.019
62672SOL    HW289914  12.268  14.182   5.982
62673SOL     OW89915   7.853   5.111   1.913
62673SOL    HW189916   7.842   5.128   2.007
62673SOL    HW289917   7.861   5.016   1.906
62674SOL     OW89918  13.608  11.169   4.881
62674SOL    HW189919  13.635  11.118   4.805
62674SOL    HW289920  13.563  11.245   4.844
62675SOL     OW89921   4.621   9.002   7.835
62675SOL    HW189922   4.669   9.085   7.831
62675SOL    HW289923   4.683   8.940   7.872
62676SOL     OW89924  12.955  11.375   9.079
62676SOL    HW189925  13.025  11.330   9.127
62676SOL    HW289926  12.991  11.461   9.059
62677SOL     OW89927  13.010  10.202   8.103
62677SOL    HW189928  13.055  10.155   8.032
62677SOL    HW289929  12.919  10.171   8.098
62678SOL     OW89930   9.382   5.694  10.677
62678SOL    HW189931   9.424   5.610  10.656
62678SOL    HW289932   9.339   5.720  10.596
62679SOL     OW89933   3.079  14.001   0.051
62679SOL    HW189934   3.128  13.929   0.092
62679SOL    HW289935   3.119  14.081   0.086
62680SOL     OW89936  13.511  12.471  12.716
62680SOL    HW189937  13.514  12.393  12.660
62680SOL    HW289938  13.441  12.452  12.778
62681SOL     OW89939  10.071  14.504   1.902
62681SOL    HW189940  10.085  14.409   1.899
62681SOL    HW289941  10.153  14.542   1.871
62682SOL     OW89942   1.955   4.268   3.543
62682SOL    HW189943   1.860   4.270   3.555
62682SOL    HW289944   1.983   4.358   3.562
62683SOL     OW89945   4.748   5.447  12.036
62683SOL    HW189946   4.669   5.502  12.031
62683SOL    HW289947   4.715   5.358  12.028
62684SOL     OW89948  11.776   4.028  11.881
62684SOL    HW189949  11.730   4.003  11.800
62684SOL    HW289950  11.852   3.971  11.883
62685SOL     OW89951   9.442  10.768   3.723
62685SOL    HW189952   9.350  10.768   3.696
62685SOL    HW289953   9.492  10.769   3.641
62686SOL     OW89954   8.467  14.105   7.806
62686SOL    HW189955   8.404  14.045   7.846
62686SOL    HW289956   8.485  14.170   7.874
62687SOL     OW89957   9.401   2.326  14.376
62687SOL    HW189958   9.377   2.414  14.349
62687SOL    HW289959   9.387   2.325  14.470
62688SOL     OW89960  11.691   4.124  13.401
62688SOL    HW189961  11.654   4.035  13.402
62688SOL    HW289962  11.706   4.143  13.309
62689SOL     OW89963   0.729   5.001  14.498
62689SOL    HW189964   0.762   4.944  14.428
62689SOL    HW289965   0.791   5.074  14.502
62690SOL     OW89966   7.888  13.567  11.228
62690SOL    HW189967   7.841  13.494  11.270
62690SOL    HW289968   7.832  13.643  11.244
62691SOL     OW89969   4.215  14.315   7.339
62691SOL    HW189970   4.234  14.292   7.430
62691SOL    HW289971   4.154  14.249   7.309
62692SOL     OW89972   8.522   2.368  13.865
62692SOL    HW189973   8.586   2.430  13.830
62692SOL    HW289974   8.463   2.349  13.792
62693SOL     OW89975   6.819   9.913   3.685
62693SOL    HW189976   6.853   9.827   3.659
62693SOL    HW289977   6.832   9.969   3.609
62694SOL     OW89978  14.266   5.825  13.244
62694SOL    HW189979  14.198   5.847  13.180
62694SOL    HW289980  14.349   5.842  13.199
62695SOL     OW89981   3.699  13.116   1.129
62695SOL    HW189982   3.624  13.072   1.169
62695SOL    HW289983   3.672  13.132   1.038
62696SOL     OW89984  14.001   2.217   3.937
62696SOL    HW189985  13.929   2.237   3.997
62696SOL    HW289986  14.006   2.121   3.938
62697SOL     OW89987   2.103  10.751   8.388
62697SOL    HW189988   2.013  10.780   8.374
62697SOL    HW289989   2.153  10.832   8.398
62698SOL     OW89990   5.928  11.694   0.470
62698SOL    HW189991   5.837  11.717   0.489
62698SOL    HW289992   5.928  11.673   0.377
62699SOL     OW89993  12.002  11.429   4.133
62699SOL    HW189994  12.094  11.456   4.130
62699SOL    HW289995  12.003  11.350   4.187
62700SOL     OW89996   5.388  11.079   3.696
62700SOL    HW189997   5.379  11.046   3.785
62700SOL    HW289998   5.329  11.025   3.643
62701SOL     OW89999   8.292   1.153   7.683
62701SOL    HW190000   8.253   1.090   7.623
62701SOL    HW290001   8.274   1.117   7.770
62702SOL     OW90002   6.909   5.732   4.167
62702SOL    HW190003   6.938   5.752   4.255
62702SOL    HW290004   6.836   5.793   4.151
62703SOL     OW90005   5.158  12.115   4.307
62703SOL    HW190006   5.114  12.036   4.276
62703SOL    HW290007   5.212  12.085   4.380
62704SOL     OW90008   9.641  14.207   0.837
62704SOL    HW190009   9.700  14.247   0.772
62704SOL    HW290010   9.650  14.263   0.914
62705SOL     OW90011   5.153   4.040  14.577
62705SOL    HW190012   5.144   4.047  14.482
62705SOL    HW290013   5.239   3.999  14.590
62706SOL     OW90014  14.741  10.527   9.638
62706SOL    HW190015  14.692  10.521   9.556
62706SOL    HW290016  14.829  10.552   9.612
62707SOL     OW90017   8.287  13.726  14.237
62707SOL    HW190018   8.378  13.745  14.217
62707SOL    HW290019   8.285  13.717  14.333
62708SOL     OW90020   7.689  11.411  12.890
62708SOL    HW190021   7.704  11.469  12.816
62708SOL    HW290022   7.700  11.323  12.855
62709SOL     OW90023   2.184   1.803   3.420
62709SOL    HW190024   2.205   1.710   3.423
62709SOL    HW290025   2.090   1.808   3.438
62710SOL     OW90026   4.697  10.040  14.360
62710SOL    HW190027   4.656  10.001  14.283
62710SOL    HW290028   4.769   9.980  14.381
62711SOL     OW90029  12.530  10.451   1.590
62711SOL    HW190030  12.554  10.540   1.564
62711SOL    HW290031  12.439  10.457   1.619
62712SOL     OW90032   1.309   1.812  11.943
62712SOL    HW190033   1.378   1.804  11.877
62712SOL    HW290034   1.333   1.890  11.993
62713SOL     OW90035   4.194   7.208  12.098
62713SOL    HW190036   4.288   7.194  12.087
62713SOL    HW290037   4.173   7.166  12.182
62714SOL     OW90038   2.133  13.409   0.809
62714SOL    HW190039   2.052  13.362   0.791
62714SOL    HW290040   2.194  13.378   0.742
62715SOL     OW90041   0.280   4.445   0.557
62715SOL    HW190042   0.374   4.446   0.574
62715SOL    HW290043   0.270   4.497   0.477
62716SOL     OW90044   9.432   0.411  12.529
62716SOL    HW190045   9.400   0.468  12.460
62716SOL    HW290046   9.357   0.400  12.587
62717SOL     OW90047  10.313  13.889   4.331
62717SOL    HW190048  10.277  13.827   4.395
62717SOL    HW290049  10.236  13.920   4.282
62718SOL     OW90050  11.518  11.740  14.081
62718SOL    HW190051  11.433  11.717  14.119
62718SOL    HW290052  11.500  11.814  14.024
62719SOL     OW90053   5.777   5.213   9.088
62719SOL    HW190054   5.740   5.288   9.135
62719SOL    HW290055   5.811   5.250   9.007
62720SOL     OW90056   9.754   7.546  13.907
62720SOL    HW190057   9.707   7.527  13.826
62720SOL    HW290058   9.844   7.517  13.890
62721SOL     OW90059   0.445   7.242   7.313
62721SOL    HW190060   0.441   7.149   7.291
62721SOL    HW290061   0.417   7.286   7.233
62722SOL     OW90062   3.215   7.508  11.653
62722SOL    HW190063   3.207   7.536  11.744
62722SOL    HW290064   3.307   7.486  11.642
62723SOL     OW90065  14.697   3.728   6.874
62723SOL    HW190066  14.725   3.696   6.788
62723SOL    HW290067  14.625   3.787   6.855
62724SOL     OW90068   1.184  11.908   2.504
62724SOL    HW190069   1.225  11.907   2.417
62724SOL    HW290070   1.214  11.989   2.544
62725SOL     OW90071   6.684  13.568   7.862
62725SOL    HW190072   6.713  13.496   7.918
62725SOL    HW290073   6.590  13.576   7.880
62726SOL     OW90074  10.788  10.807   8.304
62726SOL    HW190075  10.749  10.764   8.379
62726SOL    HW290076  10.714  10.837   8.251
62727SOL     OW90077   8.041   8.067   0.375
62727SOL    HW190078   8.128   8.100   0.354
62727SOL    HW290079   8.005   8.131   0.437
62728SOL     OW90080   1.375   6.677   9.372
62728SOL    HW190081   1.403   6.588   9.355
62728SOL    HW290082   1.279   6.674   9.366
62729SOL     OW90083   0.889   3.386  11.307
62729SOL    HW190084   0.961   3.443  11.281
62729SOL    HW290085   0.927   3.328  11.373
62730SOL     OW90086   5.589  14.257   5.212
62730SOL    HW190087   5.655  14.221   5.153
62730SOL    HW290088   5.639  14.295   5.284
62731SOL     OW90089   8.746   5.525   2.866
62731SOL    HW190090   8.728   5.500   2.957
62731SOL    HW290091   8.840   5.540   2.863
62732SOL     OW90092   5.191  14.763   9.630
62732SOL    HW190093   5.099  14.787   9.619
62732SOL    HW290094   5.239  14.841   9.602
62733SOL     OW90095  13.493   0.121   4.683
62733SOL    HW190096  13.518   0.195   4.739
62733SOL    HW290097  13.418   0.154   4.633
62734SOL     OW90098   3.780   4.016   8.834
62734SOL    HW190099   3.758   4.027   8.741
62734SOL    HW290100   3.812   4.102   8.861
62735SOL     OW90101   9.769   8.536   2.157
62735SOL    HW190102   9.757   8.500   2.245
62735SOL    HW290103   9.841   8.598   2.165
62736SOL     OW90104  14.358   9.342  10.212
62736SOL    HW190105  14.420   9.348  10.285
62736SOL    HW290106  14.275   9.374  10.248
62737SOL     OW90107  10.973   3.432  10.913
62737SOL    HW190108  11.013   3.348  10.935
62737SOL    HW290109  11.017   3.459  10.832
62738SOL     OW90110  12.123   6.895  12.242
62738SOL    HW190111  12.138   6.862  12.153
62738SOL    HW290112  12.199   6.950  12.260
62739SOL     OW90113  13.695   4.578   5.714
62739SOL    HW190114  13.665   4.513   5.652
62739SOL    HW290115  13.787   4.558   5.728
62740SOL     OW90116   6.739   3.532   1.083
62740SOL    HW190117   6.795   3.565   1.013
62740SOL    HW290118   6.764   3.585   1.160
62741SOL     OW90119   1.591  12.452  12.775
62741SOL    HW190120   1.634  12.387  12.720
62741SOL    HW290121   1.539  12.401  12.836
62742SOL     OW90122   7.947   7.917  12.702
62742SOL    HW190123   7.958   7.838  12.649
62742SOL    HW290124   7.996   7.899  12.782
62743SOL     OW90125   3.081  14.159  11.656
62743SOL    HW190126   2.986  14.167  11.646
62743SOL    HW290127   3.096  14.065  11.665
62744SOL     OW90128  10.927  13.886   7.857
62744SOL    HW190129  10.874  13.966   7.856
62744SOL    HW290130  11.005  13.910   7.907
62745SOL     OW90131  11.373   1.856   5.233
62745SOL    HW190132  11.354   1.808   5.313
62745SOL    HW290133  11.301   1.834   5.174
62746SOL     OW90134   2.015   1.088  11.084
62746SOL    HW190135   2.014   1.077  10.989
62746SOL    HW290136   2.046   1.005  11.118
62747SOL     OW90137  12.870   6.221  10.496
62747SOL    HW190138  12.835   6.303  10.461
62747SOL    HW290139  12.929   6.248  10.566
62748SOL     OW90140   2.136  14.720   9.473
62748SOL    HW190141   2.161  14.662   9.545
62748SOL    HW290142   2.140  14.664   9.395
62749SOL     OW90143  11.298   8.915   1.896
62749SOL    HW190144  11.297   8.819   1.888
62749SOL    HW290145  11.309   8.931   1.989
62750SOL     OW90146   8.116   0.043   8.011
62750SOL    HW190147   8.143   0.032   8.102
62750SOL    HW290148   8.192   0.084   7.968
62751SOL     OW90149  11.613  11.504   4.994
62751SOL    HW190150  11.661  11.581   5.024
62751SOL    HW290151  11.528  11.538   4.964
62752SOL     OW90152  13.760   1.018   0.622
62752SOL    HW190153  13.753   1.098   0.571
62752SOL    HW290154  13.771   0.948   0.557
62753SOL     OW90155   0.604   9.867   4.798
62753SOL    HW190156   0.525   9.841   4.845
62753SOL    HW290157   0.617   9.959   4.820
62754SOL     OW90158   0.465  12.269   9.000
62754SOL    HW190159   0.411  12.343   9.026
62754SOL    HW290160   0.427  12.193   9.045
62755SOL     OW90161   1.381   8.974   2.851
62755SOL    HW190162   1.458   9.031   2.843
62755SOL    HW290163   1.377   8.928   2.767
62756SOL     OW90164   0.889   4.372   9.517
62756SOL    HW190165   0.839   4.372   9.435
62756SOL    HW290166   0.823   4.374   9.586
62757SOL     OW90167   5.323  14.682  13.731
62757SOL    HW190168   5.271  14.652  13.657
62757SOL    HW290169   5.396  14.621  13.735
62758SOL     OW90170   2.962   6.284   6.915
62758SOL    HW190171   3.009   6.210   6.954
62758SOL    HW290172   2.999   6.291   6.827
62759SOL     OW90173   1.371  10.758   5.773
62759SOL    HW190174   1.396  10.824   5.838
62759SOL    HW290175   1.332  10.808   5.701
62760SOL     OW90176  11.629  10.443  11.880
62760SOL    HW190177  11.627  10.512  11.814
62760SOL    HW290178  11.587  10.483  11.957
62761SOL     OW90179  11.735   6.235   4.050
62761SOL    HW190180  11.660   6.221   3.991
62761SOL    HW290181  11.696   6.241   4.137
62762SOL     OW90182   6.278   2.691  12.268
62762SOL    HW190183   6.265   2.598  12.287
62762SOL    HW290184   6.199   2.717  12.220
62763SOL     OW90185  10.972  12.758  11.473
62763SOL    HW190186  10.931  12.690  11.528
62763SOL    HW290187  10.904  12.782  11.410
62764SOL     OW90188   6.096   4.640  11.086
62764SOL    HW190189   6.161   4.636  11.016
62764SOL    HW290190   6.012   4.649  11.040
62765SOL     OW90191   6.776  13.160   5.423
62765SOL    HW190192   6.750  13.197   5.507
62765SOL    HW290193   6.810  13.235   5.373
62766SOL     OW90194  13.757   7.814   1.442
62766SOL    HW190195  13.690   7.874   1.409
62766SOL    HW290196  13.726   7.788   1.529
62767SOL     OW90197  10.198   6.294   0.409
62767SOL    HW190198  10.283   6.255   0.432
62767SOL    HW290199  10.213   6.335   0.324
62768SOL     OW90200  13.466  10.923   4.300
62768SOL    HW190201  13.420  10.872   4.234
62768SOL    HW290202  13.517  10.858   4.349
62769SOL     OW90203   7.494  10.948  12.808
62769SOL    HW190204   7.411  10.959  12.853
62769SOL    HW290205   7.526  10.862  12.837
62770SOL     OW90206   9.893   4.545   7.201
62770SOL    HW190207   9.938   4.460   7.201
62770SOL    HW290208   9.916   4.584   7.286
62771SOL     OW90209   2.724   8.501   1.667
62771SOL    HW190210   2.716   8.568   1.599
62771SOL    HW290211   2.817   8.477   1.665
62772SOL     OW90212   5.817  12.204  12.152
62772SOL    HW190213   5.730  12.167  12.135
62772SOL    HW290214   5.854  12.220  12.065
62773SOL     OW90215   8.491   1.475   1.979
62773SOL    HW190216   8.419   1.534   1.954
62773SOL    HW290217   8.552   1.532   2.025
62774SOL     OW90218  12.426   4.319  10.609
62774SOL    HW190219  12.441   4.236  10.654
62774SOL    HW290220  12.470   4.384  10.664
62775SOL     OW90221   2.706   0.333   5.154
62775SOL    HW190222   2.681   0.418   5.192
62775SOL    HW290223   2.636   0.274   5.182
62776SOL     OW90224  13.040  13.608   0.309
62776SOL    HW190225  13.026  13.686   0.362
62776SOL    HW290226  12.989  13.540   0.353
62777SOL     OW90227   0.622  14.683   3.529
62777SOL    HW190228   0.653  14.709   3.442
62777SOL    HW290229   0.528  14.672   3.519
62778SOL     OW90230   2.208   1.483   5.310
62778SOL    HW190231   2.290   1.436   5.323
62778SOL    HW290232   2.145   1.441   5.368
62779SOL     OW90233   4.751   6.705  13.189
62779SOL    HW190234   4.713   6.623  13.220
62779SOL    HW290235   4.826   6.679  13.136
62780SOL     OW90236   0.546   4.249   5.566
62780SOL    HW190237   0.508   4.307   5.500
62780SOL    HW290238   0.474   4.194   5.595
62781SOL     OW90239   7.037   0.900   0.253
62781SOL    HW190240   7.105   0.935   0.195
62781SOL    HW290241   7.083   0.834   0.306
62782SOL     OW90242   7.794   2.833   6.723
62782SOL    HW190243   7.795   2.924   6.753
62782SOL    HW290244   7.822   2.783   6.799
62783SOL     OW90245   9.883   6.115  11.829
62783SOL    HW190246   9.792   6.088  11.827
62783SOL    HW290247   9.882   6.198  11.877
62784SOL     OW90248  13.119   1.543   4.245
62784SOL    HW190249  13.103   1.603   4.318
62784SOL    HW290250  13.101   1.594   4.167
62785SOL     OW90251   1.245   9.393   1.925
62785SOL    HW190252   1.331   9.368   1.958
62785SOL    HW290253   1.224   9.326   1.860
62786SOL     OW90254  10.587   1.240   9.675
62786SOL    HW190255  10.577   1.320   9.726
62786SOL    HW290256  10.679   1.217   9.683
62787SOL     OW90257  11.230   4.315   3.811
62787SOL    HW190258  11.209   4.384   3.874
62787SOL    HW290259  11.145   4.285   3.779
62788SOL     OW90260   8.702   3.345   2.752
62788SOL    HW190261   8.795   3.351   2.734
62788SOL    HW290262   8.686   3.252   2.769
62789SOL     OW90263   3.677   9.960  13.964
62789SOL    HW190264   3.713   9.983  13.878
62789SOL    HW290265   3.653  10.044  14.003
62790SOL     OW90266   5.451  14.334  13.138
62790SOL    HW190267   5.546  14.322  13.148
62790SOL    HW290268   5.413  14.255  13.177
62791SOL     OW90269   8.501   4.529  10.330
62791SOL    HW190270   8.477   4.612  10.371
62791SOL    HW290271   8.439   4.519  10.258
62792SOL     OW90272   0.132   8.119  11.780
62792SOL    HW190273   0.140   8.127  11.685
62792SOL    HW290274   0.157   8.028  11.798
62793SOL     OW90275   2.446   3.042   3.382
62793SOL    HW190276   2.432   3.128   3.341
62793SOL    HW290277   2.462   3.062   3.474
62794SOL     OW90278   1.506   8.467  12.531
62794SOL    HW190279   1.463   8.511  12.605
62794SOL    HW290280   1.537   8.384  12.567
62795SOL     OW90281  12.479   9.177   2.955
62795SOL    HW190282  12.535   9.104   2.982
62795SOL    HW290283  12.531   9.227   2.894
62796SOL     OW90284  13.121   2.626   5.197
62796SOL    HW190285  13.110   2.583   5.113
62796SOL    HW290286  13.112   2.719   5.178
62797SOL     OW90287   3.101   2.458  11.137
62797SOL    HW190288   3.159   2.424  11.205
62797SOL    HW290289   3.086   2.549  11.163
62798SOL     OW90290   5.502  11.806   8.733
62798SOL    HW190291   5.557  11.732   8.710
62798SOL    HW290292   5.423  11.767   8.770
62799SOL     OW90293   0.705   2.876   4.264
62799SOL    HW190294   0.800   2.868   4.258
62799SOL    HW290295   0.683   2.836   4.348
62800SOL     OW90296  14.678  14.511   1.868
62800SOL    HW190297  14.735  14.588   1.859
62800SOL    HW290298  14.672  14.497   1.962
62801SOL     OW90299   7.508   5.736   3.949
62801SOL    HW190300   7.502   5.831   3.944
62801SOL    HW290301   7.578   5.720   4.012
62802SOL     OW90302   5.688   9.389  14.738
62802SOL    HW190303   5.682   9.402  14.833
62802SOL    HW290304   5.780   9.405  14.718
62803SOL     OW90305  10.836   3.492   1.216
62803SOL    HW190306  10.771   3.492   1.145
62803SOL    HW290307  10.891   3.416   1.197
62804SOL     OW90308  13.781  13.912  14.600
62804SOL    HW190309  13.740  13.840  14.553
62804SOL    HW290310  13.862  13.875  14.637
62805SOL     OW90311   2.782   0.776   4.116
62805SOL    HW190312   2.840   0.701   4.133
62805SOL    HW290313   2.787   0.790   4.022
62806SOL     OW90314  12.903  11.571   2.015
62806SOL    HW190315  12.861  11.502   2.067
62806SOL    HW290316  12.996  11.554   2.024
62807SOL     OW90317  10.008   7.019   2.174
62807SOL    HW190318  10.093   7.017   2.218
62807SOL    HW290319  10.023   6.973   2.091
62808SOL     OW90320  14.229   1.182   9.832
62808SOL    HW190321  14.297   1.162   9.768
62808SOL    HW290322  14.232   1.108   9.893
62809SOL     OW90323   7.642  14.861  14.754
62809SOL    HW190324   7.684  14.834  14.835
62809SOL    HW290325   7.659   0.076  14.748
62810SOL     OW90326   0.299   5.671   8.127
62810SOL    HW190327   0.209   5.694   8.105
62810SOL    HW290328   0.293   5.584   8.165
62811SOL     OW90329   1.256  11.769   9.588
62811SOL    HW190330   1.202  11.840   9.551
62811SOL    HW290331   1.346  11.795   9.568
62812SOL     OW90332   0.406   1.299   5.426
62812SOL    HW190333   0.397   1.304   5.331
62812SOL    HW290334   0.472   1.232   5.440
62813SOL     OW90335   6.269   6.655  12.385
62813SOL    HW190336   6.194   6.656  12.445
62813SOL    HW290337   6.345   6.668  12.442
62814SOL     OW90338   5.855   5.318   2.226
62814SOL    HW190339   5.839   5.255   2.156
62814SOL    HW290340   5.950   5.319   2.237
62815SOL     OW90341  11.379   6.859   3.412
62815SOL    HW190342  11.316   6.918   3.369
62815SOL    HW290343  11.328   6.780   3.430
62816SOL     OW90344   7.770  13.712   9.873
62816SOL    HW190345   7.826  13.651   9.825
62816SOL    HW290346   7.795  13.798   9.839
62817SOL     OW90347   4.505   1.209   6.274
62817SOL    HW190348   4.578   1.148   6.261
62817SOL    HW290349   4.547   1.294   6.288
62818SOL     OW90350   0.872   1.729   7.036
62818SOL    HW190351   0.798   1.699   6.982
62818SOL    HW290352   0.833   1.788   7.100
62819SOL     OW90353  11.225   6.334  11.356
62819SOL    HW190354  11.231   6.414  11.409
62819SOL    HW290355  11.291   6.345  11.288
62820SOL     OW90356   2.270   8.029   3.548
62820SOL    HW190357   2.353   7.983   3.558
62820SOL    HW290358   2.294   8.119   3.528
62821SOL     OW90359   9.112   0.191   7.652
62821SOL    HW190360   9.089   0.185   7.745
62821SOL    HW290361   9.043   0.246   7.614
62822SOL     OW90362   0.076   4.111   0.648
62822SOL    HW190363   0.011   4.181   0.640
62822SOL    HW290364   0.056   4.069   0.732
62823SOL     OW90365   6.801  13.447  13.856
62823SOL    HW190366   6.812  13.396  13.937
62823SOL    HW290367   6.714  13.423  13.824
62824SOL     OW90368  10.099   5.789  14.865
62824SOL    HW190369  10.108   5.730  14.790
62824SOL    HW290370  10.134   5.873  14.834
62825SOL     OW90371  14.669   5.592   6.649
62825SOL    HW190372  14.714   5.646   6.584
62825SOL    HW290373  14.583   5.632   6.658
62826SOL     OW90374  12.946   7.358   9.004
62826SOL    HW190375  12.958   7.275   9.051
62826SOL    HW290376  13.032   7.377   8.966
62827SOL     OW90377  14.496   4.835   3.783
62827SOL    HW190378  14.475   4.863   3.872
62827SOL    HW290379  14.495   4.916   3.732
62828SOL     OW90380   9.339  11.530   0.417
62828SOL    HW190381   9.362  11.439   0.434
62828SOL    HW290382   9.247  11.526   0.389
62829SOL     OW90383   3.844   4.759   9.017
62829SOL    HW190384   3.921   4.729   8.970
62829SOL    HW290385   3.800   4.679   9.045
62830SOL     OW90386   2.568  14.585   8.284
62830SOL    HW190387   2.613  14.547   8.359
62830SOL    HW290388   2.627  14.569   8.210
62831SOL     OW90389   3.867   0.430   3.521
62831SOL    HW190390   3.961   0.414   3.521
62831SOL    HW290391   3.841   0.423   3.429
62832SOL     OW90392  11.861  12.740   1.924
62832SOL    HW190393  11.882  12.649   1.945
62832SOL    HW290394  11.789  12.734   1.861
62833SOL     OW90395   4.459   4.363  13.053
62833SOL    HW190396   4.368   4.334  13.040
62833SOL    HW290397   4.453   4.430  13.120
62834SOL     OW90398   4.378  11.519   5.231
62834SOL    HW190399   4.450  11.475   5.277
62834SOL    HW290400   4.394  11.612   5.245
62835SOL     OW90401   1.160   4.015   1.653
62835SOL    HW190402   1.136   3.951   1.585
62835SOL    HW290403   1.214   3.965   1.714
62836SOL     OW90404   5.574   2.735   6.387
62836SOL    HW190405   5.537   2.819   6.360
62836SOL    HW290406   5.662   2.733   6.348
62837SOL     OW90407   6.000   8.672  12.234
62837SOL    HW190408   6.042   8.670  12.320
62837SOL    HW290409   6.070   8.700  12.175
62838SOL     OW90410   2.134   8.303   6.738
62838SOL    HW190411   2.163   8.355   6.813
62838SOL    HW290412   2.189   8.333   6.666
62839SOL     OW90413   8.056  11.520   9.831
62839SOL    HW190414   7.975  11.505   9.783
62839SOL    HW290415   8.105  11.581   9.775
62840SOL     OW90416   7.544   5.320  10.059
62840SOL    HW190417   7.596   5.268  10.121
62840SOL    HW290418   7.459   5.276  10.057
62841SOL     OW90419   9.662   1.846   1.976
62841SOL    HW190420   9.596   1.912   1.998
62841SOL    HW290421   9.687   1.866   1.886
62842SOL     OW90422   9.760   7.256  11.596
62842SOL    HW190423   9.791   7.206  11.672
62842SOL    HW290424   9.835   7.260  11.537
62843SOL     OW90425  10.898   3.809  10.430
62843SOL    HW190426  10.920   3.822  10.522
62843SOL    HW290427  10.806   3.780  10.432
62844SOL     OW90428   3.681   9.536   3.496
62844SOL    HW190429   3.670   9.627   3.471
62844SOL    HW290430   3.685   9.488   3.413
62845SOL     OW90431  10.606   6.683  12.924
62845SOL    HW190432  10.597   6.605  12.978
62845SOL    HW290433  10.516   6.716  12.916
62846SOL     OW90434   6.873  13.909   3.126
62846SOL    HW190435   6.918  13.826   3.115
62846SOL    HW290436   6.914  13.968   3.064
62847SOL     OW90437   1.715   1.770  13.389
62847SOL    HW190438   1.754   1.837  13.332
62847SOL    HW290439   1.669   1.711  13.329
62848SOL     OW90440  13.374   0.345  14.583
62848SOL    HW190441  13.329   0.279  14.637
62848SOL    HW290442  13.304   0.385  14.531
62849SOL     OW90443   9.143  11.080   0.556
62849SOL    HW190444   9.143  11.017   0.483
62849SOL    HW290445   9.138  11.165   0.514
62850SOL     OW90446   5.574  12.270   0.656
62850SOL    HW190447   5.529  12.340   0.703
62850SOL    HW290448   5.577  12.198   0.718
62851SOL     OW90449   7.578  12.516   2.712
62851SOL    HW190450   7.647  12.552   2.766
62851SOL    HW290451   7.617  12.440   2.670
62852SOL     OW90452  14.063   2.995   2.395
62852SOL    HW190453  14.039   3.051   2.321
62852SOL    HW290454  14.125   2.932   2.358
62853SOL     OW90455  10.201  11.112   9.361
62853SOL    HW190456  10.293  11.122   9.384
62853SOL    HW290457  10.175  11.028   9.400
62854SOL     OW90458   6.858  11.717   1.201
62854SOL    HW190459   6.788  11.691   1.261
62854SOL    HW290460   6.837  11.674   1.119
62855SOL     OW90461   5.910  11.016   4.753
62855SOL    HW190462   5.992  11.066   4.752
62855SOL    HW290463   5.937  10.926   4.772
62856SOL     OW90464  11.192   3.520   6.728
62856SOL    HW190465  11.250   3.447   6.750
62856SOL    HW290466  11.203   3.582   6.801
62857SOL     OW90467  10.297   7.546   8.613
62857SOL    HW190468  10.236   7.606   8.656
62857SOL    HW290469  10.316   7.587   8.529
62858SOL     OW90470   0.985   7.252   7.369
62858SOL    HW190471   0.900   7.217   7.397
62858SOL    HW290472   1.033   7.175   7.338
62859SOL     OW90473   9.801   9.752   6.801
62859SOL    HW190474   9.862   9.724   6.732
62859SOL    HW290475   9.781   9.672   6.849
62860SOL     OW90476   5.322   3.029   7.768
62860SOL    HW190477   5.288   3.118   7.757
62860SOL    HW290478   5.363   3.009   7.685
62861SOL     OW90479   2.282  12.971  14.161
62861SOL    HW190480   2.342  12.976  14.086
62861SOL    HW290481   2.201  12.937  14.124
62862SOL     OW90482   9.830   5.546   8.208
62862SOL    HW190483   9.838   5.627   8.258
62862SOL    HW290484   9.920   5.522   8.186
62863SOL     OW90485   3.732   1.222   8.237
62863SOL    HW190486   3.703   1.311   8.221
62863SOL    HW290487   3.696   1.171   8.165
62864SOL     OW90488   2.584   6.949   2.335
62864SOL    HW190489   2.638   6.953   2.413
62864SOL    HW290490   2.644   6.969   2.263
62865SOL     OW90491   1.326   5.743  13.441
62865SOL    HW190492   1.312   5.676  13.509
62865SOL    HW290493   1.292   5.824  13.479
62866SOL     OW90494  12.676  10.168   9.662
62866SOL    HW190495  12.610  10.216   9.713
62866SOL    HW290496  12.753  10.165   9.720
62867SOL     OW90497  10.242   4.595   4.309
62867SOL    HW190498  10.214   4.684   4.290
62867SOL    HW290499  10.258   4.556   4.224
62868SOL     OW90500   9.836   0.120   7.332
62868SOL    HW190501   9.833   0.073   7.249
62868SOL    HW290502   9.787   0.066   7.393
62869SOL     OW90503   1.386   6.053  12.296
62869SOL    HW190504   1.324   5.994  12.339
62869SOL    HW290505   1.447   6.079  12.365
62870SOL     OW90506   9.611  12.987   5.169
62870SOL    HW190507   9.661  12.949   5.097
62870SOL    HW290508   9.568  12.912   5.210
62871SOL     OW90509   6.050   1.707  13.034
62871SOL    HW190510   5.967   1.744  13.065
62871SOL    HW290511   6.109   1.713  13.109
62872SOL     OW90512  10.205   7.313   8.723
62872SOL    HW190513  10.214   7.351   8.810
62872SOL    HW290514  10.248   7.376   8.665
62873SOL     OW90515   5.573   2.570  13.346
62873SOL    HW190516   5.484   2.598  13.327
62873SOL    HW290517   5.562   2.496  13.406
62874SOL     OW90518  13.977   0.213  13.515
62874SOL    HW190519  14.014   0.147  13.457
62874SOL    HW290520  13.918   0.264  13.459
62875SOL     OW90521   8.726   4.580  11.936
62875SOL    HW190522   8.695   4.670  11.925
62875SOL    HW290523   8.728   4.567  12.031
62876SOL     OW90524   8.346  12.094   2.954
62876SOL    HW190525   8.341  12.027   2.886
62876SOL    HW290526   8.410  12.061   3.017
62877SOL     OW90527  12.101   8.523  12.939
62877SOL    HW190528  12.115   8.523  12.845
62877SOL    HW290529  12.163   8.588  12.973
62878SOL     OW90530   0.633   4.084   1.296
62878SOL    HW190531   0.632   4.034   1.378
62878SOL    HW290532   0.725   4.085   1.269
62879SOL     OW90533   2.295  12.084  13.063
62879SOL    HW190534   2.262  12.001  13.097
62879SOL    HW290535   2.221  12.122  13.015
62880SOL     OW90536   0.593   3.465   2.858
62880SOL    HW190537   0.686   3.477   2.839
62880SOL    HW290538   0.565   3.549   2.894
62881SOL     OW90539   1.140   5.691  12.878
62881SOL    HW190540   1.078   5.628  12.914
62881SOL    HW290541   1.218   5.638  12.857
62882SOL     OW90542   8.926   6.817  13.366
62882SOL    HW190543   8.912   6.905  13.403
62882SOL    HW290544   9.019   6.800  13.378
62883SOL     OW90545   4.006  11.380   2.665
62883SOL    HW190546   4.004  11.434   2.586
62883SOL    HW290547   4.071  11.312   2.646
62884SOL     OW90548   1.591   6.777  14.269
62884SOL    HW190549   1.561   6.711  14.332
62884SOL    HW290550   1.511   6.818  14.237
62885SOL     OW90551  13.914   2.773   2.165
62885SOL    HW190552  13.948   2.685   2.179
62885SOL    HW290553  13.957   2.803   2.085
62886SOL     OW90554  13.027  12.306  14.451
62886SOL    HW190555  13.084  12.303  14.374
62886SOL    HW290556  13.066  12.243  14.512
62887SOL     OW90557  10.657   2.233   8.051
62887SOL    HW190558  10.689   2.182   7.976
62887SOL    HW290559  10.623   2.167   8.112
62888SOL     OW90560  11.551   0.429   5.823
62888SOL    HW190561  11.552   0.482   5.903
62888SOL    HW290562  11.463   0.392   5.820
62889SOL     OW90563   4.108   7.774   4.711
62889SOL    HW190564   4.067   7.709   4.654
62889SOL    HW290565   4.037   7.803   4.769
62890SOL     OW90566   5.723   5.030   4.574
62890SOL    HW190567   5.748   5.060   4.487
62890SOL    HW290568   5.749   5.102   4.632
62891SOL     OW90569   9.156   4.348   6.977
62891SOL    HW190570   9.197   4.282   7.032
62891SOL    HW290571   9.185   4.326   6.888
62892SOL     OW90572  13.392   4.482   9.856
62892SOL    HW190573  13.436   4.400   9.837
62892SOL    HW290574  13.342   4.464   9.936
62893SOL     OW90575   7.175   1.486   4.413
62893SOL    HW190576   7.088   1.507   4.378
62893SOL    HW290577   7.234   1.546   4.368
62894SOL     OW90578   2.473   0.244   6.713
62894SOL    HW190579   2.550   0.298   6.735
62894SOL    HW290580   2.478   0.170   6.773
62895SOL     OW90581   8.661  12.625   1.917
62895SOL    HW190582   8.716  12.700   1.895
62895SOL    HW290583   8.677  12.562   1.847
62896SOL     OW90584   9.796   0.056  13.648
62896SOL    HW190585   9.833   0.014  13.570
62896SOL    HW290586   9.779  14.863  13.708
62897SOL     OW90587  11.731  10.225   6.489
62897SOL    HW190588  11.767  10.140   6.465
62897SOL    HW290589  11.785  10.288   6.440
62898SOL     OW90590  13.296  13.548   5.971
62898SOL    HW190591  13.374  13.555   6.026
62898SOL    HW290592  13.229  13.512   6.028
62899SOL     OW90593   4.989   9.964   6.440
62899SOL    HW190594   4.971   9.873   6.416
62899SOL    HW290595   5.042   9.957   6.520
62900SOL     OW90596  14.672  11.369   6.067
62900SOL    HW190597  14.597  11.429   6.068
62900SOL    HW290598  14.748  11.427   6.077
62901SOL     OW90599  13.960   3.176   3.814
62901SOL    HW190600  13.887   3.232   3.788
62901SOL    HW290601  14.038   3.227   3.794
62902SOL     OW90602   5.590   9.302  12.305
62902SOL    HW190603   5.652   9.260  12.245
62902SOL    HW290604   5.504   9.281  12.268
62903SOL     OW90605   8.120  11.553   2.666
62903SOL    HW190606   8.137  11.516   2.580
62903SOL    HW290607   8.024  11.557   2.672
62904SOL     OW90608   2.836   2.477   9.159
62904SOL    HW190609   2.841   2.545   9.226
62904SOL    HW290610   2.826   2.525   9.077
62905SOL     OW90611   5.069   1.789   6.597
62905SOL    HW190612   5.002   1.795   6.529
62905SOL    HW290613   5.066   1.698   6.625
62906SOL     OW90614   8.158   6.447   2.327
62906SOL    HW190615   8.081   6.473   2.378
62906SOL    HW290616   8.231   6.465   2.386
62907SOL     OW90617   2.899  14.647   6.509
62907SOL    HW190618   2.831  14.609   6.565
62907SOL    HW290619   2.852  14.700   6.445
62908SOL     OW90620  14.407  11.134   0.773
62908SOL    HW190621  14.336  11.128   0.710
62908SOL    HW290622  14.373  11.094   0.853
62909SOL     OW90623   1.147   7.198  13.366
62909SOL    HW190624   1.105   7.199  13.451
62909SOL    HW290625   1.125   7.282  13.326
62910SOL     OW90626   0.779   0.004   4.215
62910SOL    HW190627   0.771   0.089   4.259
62910SOL    HW290628   0.705  14.833   4.249
62911SOL     OW90629   4.301   8.753  10.060
62911SOL    HW190630   4.216   8.795  10.043
62911SOL    HW290631   4.335   8.800  10.136
62912SOL     OW90632   4.699  10.397   5.041
62912SOL    HW190633   4.714  10.486   5.011
62912SOL    HW290634   4.607  10.396   5.068
62913SOL     OW90635   2.728   9.974  13.588
62913SOL    HW190636   2.633   9.983  13.577
62913SOL    HW290637   2.743   9.993  13.680
62914SOL     OW90638  12.483   0.685   5.002
62914SOL    HW190639  12.450   0.620   5.064
62914SOL    HW290640  12.475   0.642   4.916
62915SOL     OW90641   9.750   1.461   8.302
62915SOL    HW190642   9.740   1.394   8.234
62915SOL    HW290643   9.727   1.543   8.259
62916SOL     OW90644   8.079   8.517   8.235
62916SOL    HW190645   8.129   8.487   8.311
62916SOL    HW290646   8.021   8.586   8.269
62917SOL     OW90647  10.430   2.678  14.070
62917SOL    HW190648  10.410   2.608  14.008
62917SOL    HW290649  10.427   2.635  14.156
62918SOL     OW90650  12.806   0.322   2.689
62918SOL    HW190651  12.841   0.411   2.692
62918SOL    HW290652  12.726   0.325   2.741
62919SOL     OW90653   3.878   6.152   2.110
62919SOL    HW190654   3.942   6.149   2.180
62919SOL    HW290655   3.811   6.213   2.141
62920SOL     OW90656   1.808  10.113   0.244
62920SOL    HW190657   1.830  10.190   0.191
62920SOL    HW290658   1.816  10.039   0.184
62921SOL     OW90659   0.683   6.032  14.556
62921SOL    HW190660   0.607   6.090  14.569
62921SOL    HW290661   0.647   5.954  14.515
62922SOL     OW90662  14.695   1.106  11.502
62922SOL    HW190663  14.723   1.151  11.422
62922SOL    HW290664  14.724   1.016  11.491
62923SOL     OW90665   1.340   4.025   6.285
62923SOL    HW190666   1.261   4.068   6.253
62923SOL    HW290667   1.332   4.025   6.380
62924SOL     OW90668   4.294   4.483  12.248
62924SOL    HW190669   4.320   4.518  12.334
62924SOL    HW290670   4.357   4.520  12.187
62925SOL     OW90671   8.783  14.250  14.177
62925SOL    HW190672   8.865  14.205  14.197
62925SOL    HW290673   8.767  14.230  14.085
62926SOL     OW90674  10.687   6.849  10.936
62926SOL    HW190675  10.701   6.943  10.925
62926SOL    HW290676  10.762   6.819  10.987
62927SOL     OW90677   1.790   4.800  13.776
62927SOL    HW190678   1.832   4.863  13.717
62927SOL    HW290679   1.725   4.756  13.721
62928SOL     OW90680   6.221   4.284  10.587
62928SOL    HW190681   6.300   4.338  10.592
62928SOL    HW290682   6.224   4.228  10.664
62929SOL     OW90683   6.658  12.808  10.457
62929SOL    HW190684   6.597  12.866  10.503
62929SOL    HW290685   6.602  12.750  10.407
62930SOL     OW90686   0.268  12.218   4.196
62930SOL    HW190687   0.324  12.244   4.122
62930SOL    HW290688   0.187  12.187   4.154
62931SOL     OW90689  13.383   9.815   5.138
62931SOL    HW190690  13.399   9.906   5.111
62931SOL    HW290691  13.363   9.821   5.231
62932SOL     OW90692   2.369   0.845   9.775
62932SOL    HW190693   2.383   0.750   9.771
62932SOL    HW290694   2.425   0.874   9.848
62933SOL     OW90695   4.136  12.038   7.186
62933SOL    HW190696   4.179  11.990   7.115
62933SOL    HW290697   4.043  12.014   7.179
62934SOL     OW90698   2.915  10.922   9.258
62934SOL    HW190699   2.904  10.832   9.289
62934SOL    HW290700   2.940  10.912   9.166
62935SOL     OW90701  14.780   9.925  13.634
62935SOL    HW190702  14.861   9.918  13.685
62935SOL    HW290703  14.714   9.951  13.699
62936SOL     OW90704  11.965  10.846   6.837
62936SOL    HW190705  12.029  10.831   6.907
62936SOL    HW290706  11.906  10.912   6.872
62937SOL     OW90707   2.123  12.569   6.369
62937SOL    HW190708   2.141  12.541   6.459
62937SOL    HW290709   2.209  12.573   6.328
62938SOL     OW90710   6.531  13.705  11.138
62938SOL    HW190711   6.477  13.783  11.130
62938SOL    HW290712   6.616  13.738  11.168
62939SOL     OW90713  12.987   1.952   6.821
62939SOL    HW190714  13.009   2.035   6.780
62939SOL    HW290715  13.053   1.940   6.890
62940SOL     OW90716   6.246  12.683  12.494
62940SOL    HW190717   6.337  12.672  12.523
62940SOL    HW290718   6.195  12.683  12.574
62941SOL     OW90719   1.428  11.707   1.305
62941SOL    HW190720   1.416  11.643   1.375
62941SOL    HW290721   1.487  11.664   1.243
62942SOL     OW90722  13.802   8.907   0.681
62942SOL    HW190723  13.811   8.813   0.692
62942SOL    HW290724  13.751   8.936   0.757
62943SOL     OW90725   4.883  12.422   8.772
62943SOL    HW190726   4.793  12.445   8.750
62943SOL    HW290727   4.886  12.428   8.868
62944SOL     OW90728   9.138  13.015   8.341
62944SOL    HW190729   9.209  13.029   8.278
62944SOL    HW290730   9.162  12.935   8.387
62945SOL     OW90731  10.606   1.119  11.900
62945SOL    HW190732  10.694   1.082  11.903
62945SOL    HW290733  10.563   1.086  11.979
62946SOL     OW90734  10.388   3.708   7.335
62946SOL    HW190735  10.401   3.803   7.333
62946SOL    HW290736  10.294   3.697   7.349
62947SOL     OW90737   0.427  13.801   1.401
62947SOL    HW190738   0.388  13.768   1.320
62947SOL    HW290739   0.496  13.738   1.422
62948SOL     OW90740   2.891  11.733   3.240
62948SOL    HW190741   2.871  11.651   3.285
62948SOL    HW290742   2.849  11.724   3.154
62949SOL     OW90743  12.270   6.177  10.455
62949SOL    HW190744  12.288   6.270  10.462
62949SOL    HW290745  12.272   6.159  10.360
62950SOL     OW90746  11.126   0.053   5.238
62950SOL    HW190747  11.055   0.080   5.297
62950SOL    HW290748  11.202   0.043   5.296
62951SOL     OW90749  13.166  11.403   6.329
62951SOL    HW190750  13.237  11.467   6.324
62951SOL    HW290751  13.202  11.332   6.382
62952SOL     OW90752  11.762   5.338   7.493
62952SOL    HW190753  11.769   5.297   7.407
62952SOL    HW290754  11.668   5.354   7.504
62953SOL     OW90755   1.797   8.190  13.295
62953SOL    HW190756   1.826   8.281  13.283
62953SOL    HW290757   1.774   8.161  13.206
62954SOL     OW90758   0.628   8.081   3.120
62954SOL    HW190759   0.705   8.129   3.091
62954SOL    HW290760   0.626   8.003   3.064
62955SOL     OW90761   9.485   0.761  10.238
62955SOL    HW190762   9.436   0.755  10.320
62955SOL    HW290763   9.421   0.739  10.170
62956SOL     OW90764  10.850   1.477   4.117
62956SOL    HW190765  10.885   1.566   4.128
62956SOL    HW290766  10.867   1.435   4.202
62957SOL     OW90767   2.078   6.566  12.103
62957SOL    HW190768   2.136   6.532  12.036
62957SOL    HW290769   1.991   6.541  12.075
62958SOL     OW90770   6.817   9.339   3.845
62958SOL    HW190771   6.868   9.393   3.785
62958SOL    HW290772   6.835   9.376   3.932
62959SOL     OW90773   3.858   6.741   0.019
62959SOL    HW190774   3.787   6.770  14.841
62959SOL    HW290775   3.938   6.766  14.853
62960SOL     OW90776   1.796   4.633   5.615
62960SOL    HW190777   1.757   4.720   5.601
62960SOL    HW290778   1.722   4.573   5.612
62961SOL     OW90779  11.575  10.935   7.365
62961SOL    HW190780  11.515  10.892   7.305
62961SOL    HW290781  11.546  10.908   7.452
62962SOL     OW90782   4.623   6.178   9.395
62962SOL    HW190783   4.570   6.098   9.390
62962SOL    HW290784   4.713   6.146   9.402
62963SOL     OW90785   3.133   2.732   4.865
62963SOL    HW190786   3.089   2.649   4.846
62963SOL    HW290787   3.064   2.798   4.861
62964SOL     OW90788  13.270   9.323   2.220
62964SOL    HW190789  13.360   9.347   2.243
62964SOL    HW290790  13.280   9.259   2.150
62965SOL     OW90791  14.178   7.317   0.533
62965SOL    HW190792  14.208   7.231   0.501
62965SOL    HW290793  14.221   7.380   0.476
62966SOL     OW90794   6.672   8.556   9.761
62966SOL    HW190795   6.742   8.548   9.695
62966SOL    HW290796   6.719   8.564   9.844
62967SOL     OW90797   1.112  13.210   3.151
62967SOL    HW190798   1.184  13.228   3.091
62967SOL    HW290799   1.046  13.276   3.129
62968SOL     OW90800   7.143   5.813   1.786
62968SOL    HW190801   7.055   5.848   1.771
62968SOL    HW290802   7.185   5.818   1.701
62969SOL     OW90803   8.632  12.520   7.035
62969SOL    HW190804   8.550  12.537   7.080
62969SOL    HW290805   8.625  12.568   6.952
62970SOL     OW90806   5.940   8.166   4.638
62970SOL    HW190807   5.855   8.129   4.662
62970SOL    HW290808   6.004   8.105   4.676
62971SOL     OW90809   6.267  11.522   9.356
62971SOL    HW190810   6.177  11.504   9.382
62971SOL    HW290811   6.267  11.615   9.332
62972SOL     OW90812   2.840   8.673  14.572
62972SOL    HW190813   2.754   8.661  14.532
62972SOL    HW290814   2.884   8.738  14.516
62973SOL     OW90815  12.080   4.622   3.702
62973SOL    HW190816  12.109   4.586   3.618
62973SOL    HW290817  12.158   4.618   3.758
62974SOL     OW90818   2.423   5.947   0.308
62974SOL    HW190819   2.423   6.038   0.275
62974SOL    HW290820   2.516   5.924   0.311
62975SOL     OW90821  13.032  13.885   8.012
62975SOL    HW190822  13.076  13.940   8.077
62975SOL    HW290823  13.098  13.871   7.944
62976SOL     OW90824   6.236   6.972   7.508
62976SOL    HW190825   6.285   7.002   7.585
62976SOL    HW290826   6.227   7.050   7.454
62977SOL     OW90827   1.736   7.464   6.267
62977SOL    HW190828   1.703   7.546   6.231
62977SOL    HW290829   1.733   7.476   6.362
62978SOL     OW90830   8.163   3.210   0.813
62978SOL    HW190831   8.152   3.296   0.854
62978SOL    HW290832   8.074   3.186   0.786
62979SOL     OW90833  13.850   7.866  12.182
62979SOL    HW190834  13.892   7.845  12.098
62979SOL    HW290835  13.813   7.783  12.212
62980SOL     OW90836   6.407   4.268   4.414
62980SOL    HW190837   6.403   4.187   4.465
62980SOL    HW290838   6.353   4.330   4.464
62981SOL     OW90839  13.422   7.706  11.108
62981SOL    HW190840  13.509   7.666  11.102
62981SOL    HW290841  13.411   7.753  11.025
62982SOL     OW90842  13.541  12.634  14.876
62982SOL    HW190843  13.626  12.607  14.841
62982SOL    HW290844  13.498  12.678  14.802
62983SOL     OW90845   8.155  13.102   9.140
62983SOL    HW190846   8.192  13.089   9.053
62983SOL    HW290847   8.066  13.066   9.134
62984SOL     OW90848  11.940  14.400   6.651
62984SOL    HW190849  12.029  14.380   6.620
62984SOL    HW290850  11.882  14.360   6.586
62985SOL     OW90851   7.526   3.585   8.409
62985SOL    HW190852   7.448   3.579   8.353
62985SOL    HW290853   7.498   3.636   8.484
62986SOL     OW90854  10.745   7.989   4.825
62986SOL    HW190855  10.689   7.963   4.898
62986SOL    HW290856  10.688   8.042   4.769
62987SOL     OW90857   9.746   4.400  13.911
62987SOL    HW190858   9.807   4.373  13.842
62987SOL    HW290859   9.675   4.337  13.907
62988SOL     OW90860  13.222   4.486  11.738
62988SOL    HW190861  13.164   4.489  11.662
62988SOL    HW290862  13.300   4.533  11.709
62989SOL     OW90863  13.079  13.867   4.431
62989SOL    HW190864  13.110  13.776   4.440
62989SOL    HW290865  13.100  13.908   4.515
62990SOL     OW90866  14.495   5.291  12.908
62990SOL    HW190867  14.485   5.198  12.927
62990SOL    HW290868  14.458   5.336  12.984
62991SOL     OW90869   8.733  14.150   5.843
62991SOL    HW190870   8.798  14.219   5.856
62991SOL    HW290871   8.653  14.184   5.883
62992SOL     OW90872   8.877   2.003  12.762
62992SOL    HW190873   8.905   2.093  12.743
62992SOL    HW290874   8.810   1.986  12.696
62993SOL     OW90875  13.748   2.548  13.110
62993SOL    HW190876  13.750   2.520  13.018
62993SOL    HW290877  13.728   2.468  13.159
62994SOL     OW90878   3.891   4.296  11.481
62994SOL    HW190879   3.813   4.295  11.426
62994SOL    HW290880   3.936   4.377  11.457
62995SOL     OW90881   0.079   5.305   6.146
62995SOL    HW190882   0.056   5.213   6.156
62995SOL    HW290883   0.053   5.327   6.056
62996SOL     OW90884   9.480   8.413  11.971
62996SOL    HW190885   9.558   8.469  11.974
62996SOL    HW290886   9.449   8.420  11.881
62997SOL     OW90887   4.480   0.091   7.365
62997SOL    HW190888   4.507   0.182   7.377
62997SOL    HW290889   4.472   0.055   7.453
62998SOL     OW90890  11.206  11.598  14.485
62998SOL    HW190891  11.119  11.637  14.486
62998SOL    HW290892  11.266  11.673  14.490
62999SOL     OW90893   3.688  11.925  13.023
62999SOL    HW190894   3.773  11.890  13.052
62999SOL    HW290895   3.706  12.018  13.004
63000SOL     OW90896   5.353   2.023  12.392
63000SOL    HW190897   5.364   2.088  12.462
63000SOL    HW290898   5.281   2.058  12.339
63001SOL     OW90899   7.995   2.726  12.679
63001SOL    HW190900   7.990   2.650  12.737
63001SOL    HW290901   8.073   2.711  12.626
63002SOL     OW90902  10.329  12.420   4.895
63002SOL    HW190903  10.363  12.420   4.984
63002SOL    HW290904  10.235  12.431   4.904
63003SOL     OW90905   9.439   2.250   0.870
63003SOL    HW190906   9.427   2.201   0.789
63003SOL    HW290907   9.371   2.218   0.929
63004SOL     OW90908   9.832   7.129   6.836
63004SOL    HW190909   9.829   7.041   6.801
63004SOL    HW290910   9.760   7.133   6.898
63005SOL     OW90911  10.776  12.009   6.917
63005SOL    HW190912  10.868  12.006   6.942
63005SOL    HW290913  10.732  12.054   6.989
63006SOL     OW90914   0.174   9.319   5.522
63006SOL    HW190915   0.205   9.410   5.524
63006SOL    HW290916   0.206   9.285   5.438
63007SOL     OW90917   6.133   0.037   1.122
63007SOL    HW190918   6.067   0.069   1.183
63007SOL    HW290919   6.118  14.823   1.117
63008SOL     OW90920   1.674   3.855   8.522
63008SOL    HW190921   1.684   3.950   8.523
63008SOL    HW290922   1.757   3.823   8.486
63009SOL     OW90923   8.431  11.023  11.056
63009SOL    HW190924   8.482  11.046  11.133
63009SOL    HW290925   8.455  11.088  10.990
63010SOL     OW90926   6.510   6.575  11.295
63010SOL    HW190927   6.573   6.643  11.271
63010SOL    HW290928   6.442   6.621  11.345
63011SOL     OW90929   6.764   3.241   7.643
63011SOL    HW190930   6.859   3.250   7.646
63011SOL    HW290931   6.749   3.169   7.582
63012SOL     OW90932  14.568   2.237   6.107
63012SOL    HW190933  14.581   2.332   6.101
63012SOL    HW290934  14.590   2.205   6.020
63013SOL     OW90935   7.794   5.974   0.805
63013SOL    HW190936   7.793   6.037   0.733
63013SOL    HW290937   7.705   5.940   0.809
63014SOL     OW90938  11.559  12.959   8.757
63014SOL    HW190939  11.511  13.010   8.822
63014SOL    HW290940  11.491  12.916   8.706
63015SOL     OW90941   5.619   7.266  13.969
63015SOL    HW190942   5.605   7.269  13.874
63015SOL    HW290943   5.551   7.324  14.005
63016SOL     OW90944   6.860   7.349   8.458
63016SOL    HW190945   6.812   7.268   8.443
63016SOL    HW290946   6.923   7.328   8.526
63017SOL     OW90947   1.441   2.837   0.176
63017SOL    HW190948   1.438   2.767   0.242
63017SOL    HW290949   1.519   2.887   0.197
63018SOL     OW90950   9.718   8.836   9.367
63018SOL    HW190951   9.658   8.888   9.420
63018SOL    HW290952   9.684   8.842   9.278
63019SOL     OW90953   2.107   2.658   8.173
63019SOL    HW190954   2.135   2.571   8.143
63019SOL    HW290955   2.022   2.643   8.214
63020SOL     OW90956   2.868   5.213   3.232
63020SOL    HW190957   2.793   5.247   3.282
63020SOL    HW290958   2.836   5.210   3.141
63021SOL     OW90959   9.212   9.598  13.403
63021SOL    HW190960   9.305   9.616  13.389
63021SOL    HW290961   9.169   9.683  13.396
63022SOL     OW90962   7.743  10.004   1.698
63022SOL    HW190963   7.786  10.011   1.613
63022SOL    HW290964   7.655  10.037   1.683
63023SOL     OW90965   3.489   8.369   6.139
63023SOL    HW190966   3.448   8.348   6.055
63023SOL    HW290967   3.421   8.350   6.204
63024SOL     OW90968  12.731  14.595   8.073
63024SOL    HW190969  12.812  14.636   8.102
63024SOL    HW290970  12.725  14.616   7.980
63025SOL     OW90971   4.839  11.178   3.531
63025SOL    HW190972   4.821  11.090   3.563
63025SOL    HW290973   4.816  11.176   3.439
63026SOL     OW90974   6.939   4.939   1.671
63026SOL    HW190975   6.990   4.869   1.631
63026SOL    HW290976   7.004   5.004   1.698
63027SOL     OW90977  10.194   8.445   7.674
63027SOL    HW190978  10.260   8.439   7.604
63027SOL    HW290979  10.245   8.467   7.752
63028SOL     OW90980   4.293   2.735  10.676
63028SOL    HW190981   4.322   2.825  10.692
63028SOL    HW290982   4.361   2.698  10.619
63029SOL     OW90983   6.328   0.975   3.977
63029SOL    HW190984   6.312   1.066   4.002
63029SOL    HW290985   6.316   0.925   4.058
63030SOL     OW90986   8.801  11.925   4.829
63030SOL    HW190987   8.786  12.017   4.807
63030SOL    HW290988   8.889  11.924   4.868
63031SOL     OW90989   2.893  12.054   4.884
63031SOL    HW190990   2.832  12.128   4.881
63031SOL    HW290991   2.949  12.065   4.807
63032SOL     OW90992   3.188   3.903   2.458
63032SOL    HW190993   3.169   3.812   2.482
63032SOL    HW290994   3.206   3.899   2.364
63033SOL     OW90995   0.483  13.965   7.883
63033SOL    HW190996   0.514  13.998   7.799
63033SOL    HW290997   0.430  14.037   7.918
63034SOL     OW90998  13.549  13.221   3.003
63034SOL    HW190999  13.556  13.211   3.098
63034SOL    HW291000  13.568  13.313   2.987
63035SOL     OW91001   8.061   9.443  13.835
63035SOL    HW191002   7.987   9.419  13.891
63035SOL    HW291003   8.078   9.365  13.783
63036SOL     OW91004  12.742   0.181   5.520
63036SOL    HW191005  12.763   0.156   5.610
63036SOL    HW291006  12.788   0.116   5.466
63037SOL     OW91007  11.955   3.976   9.245
63037SOL    HW191008  11.871   3.931   9.255
63037SOL    HW291009  11.995   3.934   9.169
63038SOL     OW91010   0.995   4.158   2.943
63038SOL    HW191011   0.916   4.108   2.963
63038SOL    HW291012   0.966   4.227   2.884
63039SOL     OW91013   4.770   9.047  13.091
63039SOL    HW191014   4.750   9.112  13.159
63039SOL    HW291015   4.864   9.032  13.101
63040SOL     OW91016  10.305  10.530   6.421
63040SOL    HW191017  10.277  10.469   6.353
63040SOL    HW291018  10.300  10.616   6.379
63041SOL     OW91019  10.182  11.860  14.222
63041SOL    HW191020  10.123  11.807  14.169
63041SOL    HW291021  10.172  11.825  14.311
63042SOL     OW91022  10.793  11.696   8.739
63042SOL    HW191023  10.756  11.758   8.677
63042SOL    HW291024  10.793  11.612   8.692
63043SOL     OW91025  12.707   6.952  14.242
63043SOL    HW191026  12.644   7.019  14.215
63043SOL    HW291027  12.779   7.001  14.282
63044SOL     OW91028   9.855  14.776   3.337
63044SOL    HW191029   9.895  14.764   3.424
63044SOL    HW291030   9.879  14.865   3.312
63045SOL     OW91031  12.718   8.437  13.668
63045SOL    HW191032  12.791   8.376  13.654
63045SOL    HW291033  12.665   8.429  13.589
63046SOL     OW91034   3.201   3.926  13.877
63046SOL    HW191035   3.275   3.865  13.873
63046SOL    HW291036   3.125   3.872  13.855
63047SOL     OW91037   9.851   5.353  14.466
63047SOL    HW191038   9.890   5.439  14.453
63047SOL    HW291039   9.757   5.369  14.469
63048SOL     OW91040   8.007   4.608   8.419
63048SOL    HW191041   7.945   4.681   8.430
63048SOL    HW291042   8.072   4.641   8.356
63049SOL     OW91043  12.140   4.258   9.310
63049SOL    HW191044  12.234   4.258   9.295
63049SOL    HW291045  12.127   4.192   9.379
63050SOL     OW91046  10.666   1.160  10.074
63050SOL    HW191047  10.633   1.078  10.037
63050SOL    HW291048  10.591   1.219  10.072
63051SOL     OW91049  11.420  11.081   5.106
63051SOL    HW191050  11.516  11.073   5.101
63051SOL    HW291051  11.393  11.105   5.018
63052SOL     OW91052   5.166   2.746   9.728
63052SOL    HW191053   5.250   2.738   9.775
63052SOL    HW291054   5.137   2.656   9.716
63053SOL     OW91055   9.266   2.507   1.645
63053SOL    HW191056   9.319   2.527   1.723
63053SOL    HW291057   9.209   2.436   1.673
63054SOL     OW91058   5.330  11.203   2.213
63054SOL    HW191059   5.304  11.129   2.268
63054SOL    HW291060   5.332  11.167   2.125
63055SOL     OW91061  12.031   0.840   8.395
63055SOL    HW191062  12.124   0.864   8.405
63055SOL    HW291063  11.989   0.921   8.364
63056SOL     OW91064   2.783   0.159  12.047
63056SOL    HW191065   2.835   0.170  12.127
63056SOL    HW291066   2.839   0.104  11.990
63057SOL     OW91067  13.767   1.119   5.500
63057SOL    HW191068  13.853   1.154   5.521
63057SOL    HW291069  13.722   1.115   5.585
63058SOL     OW91070   8.604   0.302  12.775
63058SOL    HW191071   8.617   0.207  12.778
63058SOL    HW291072   8.670   0.333  12.713
63059SOL     OW91073  12.887  12.464   6.625
63059SOL    HW191074  12.980  12.485   6.630
63059SOL    HW291075  12.871  12.408   6.701
63060SOL     OW91076   4.746   7.824   2.972
63060SOL    HW191077   4.660   7.827   2.930
63060SOL    HW291078   4.731   7.777   3.054
63061SOL     OW91079   7.561   0.509   2.070
63061SOL    HW191080   7.625   0.547   2.010
63061SOL    HW291081   7.496   0.578   2.082
63062SOL     OW91082   8.910  11.489   0.495
63062SOL    HW191083   8.939  11.426   0.561
63062SOL    HW291084   8.968  11.475   0.420
63063SOL     OW91085   7.411   8.048   2.627
63063SOL    HW191086   7.419   8.082   2.537
63063SOL    HW291087   7.404   8.127   2.681
63064SOL     OW91088   4.423   4.220   7.957
63064SOL    HW191089   4.422   4.181   7.869
63064SOL    HW291090   4.498   4.179   8.000
63065SOL     OW91091  11.177  11.512   6.647
63065SOL    HW191092  11.243  11.509   6.716
63065SOL    HW291093  11.213  11.458   6.577
63066SOL     OW91094   3.438  11.664   5.384
63066SOL    HW191095   3.358  11.713   5.402
63066SOL    HW291096   3.430  11.638   5.293
63067SOL     OW91097  12.799   7.813   0.457
63067SOL    HW191098  12.725   7.875   0.456
63067SOL    HW291099  12.861   7.851   0.519
63068SOL     OW91100   2.366   1.321   1.107
63068SOL    HW191101   2.377   1.272   1.188
63068SOL    HW291102   2.407   1.406   1.124
63069SOL     OW91103   2.367   9.048   7.282
63069SOL    HW191104   2.408   9.135   7.281
63069SOL    HW291105   2.405   9.004   7.357
63070SOL     OW91106  11.120   0.919   4.779
63070SOL    HW191107  11.111   1.000   4.729
63070SOL    HW291108  11.159   0.945   4.862
63071SOL     OW91109  12.892  11.175  13.771
63071SOL    HW191110  12.822  11.162  13.835
63071SOL    HW291111  12.937  11.091  13.767
63072SOL     OW91112   2.967  14.413   6.108
63072SOL    HW191113   3.000  14.484   6.163
63072SOL    HW291114   2.888  14.449   6.067
63073SOL     OW91115  13.235   6.148   6.612
63073SOL    HW191116  13.230   6.054   6.628
63073SOL    HW291117  13.263   6.185   6.696
63074SOL     OW91118  12.508   7.963   0.730
63074SOL    HW191119  12.505   7.992   0.821
63074SOL    HW291120  12.541   7.873   0.734
63075SOL     OW91121  10.298  11.438   1.059
63075SOL    HW191122  10.203  11.440   1.070
63075SOL    HW291123  10.312  11.427   0.965
63076SOL     OW91124  11.150   4.567   5.688
63076SOL    HW191125  11.077   4.514   5.657
63076SOL    HW291126  11.221   4.505   5.701
63077SOL     OW91127  12.417   1.508  13.148
63077SOL    HW191128  12.325   1.483  13.141
63077SOL    HW291129  12.435   1.556  13.067
63078SOL     OW91130   3.545   2.552  11.747
63078SOL    HW191131   3.499   2.487  11.694
63078SOL    HW291132   3.559   2.510  11.831
63079SOL     OW91133   5.096   4.503   0.585
63079SOL    HW191134   5.080   4.447   0.509
63079SOL    HW291135   5.178   4.547   0.566
63080SOL     OW91136   9.042   9.061   5.129
63080SOL    HW191137   8.947   9.063   5.144
63080SOL    HW291138   9.053   9.007   5.050
63081SOL     OW91139  11.172   1.873  12.664
63081SOL    HW191140  11.132   1.913  12.741
63081SOL    HW291141  11.145   1.928  12.591
63082SOL     OW91142   6.364  14.522   3.656
63082SOL    HW191143   6.342  14.445   3.602
63082SOL    HW291144   6.452  14.503   3.689
63083SOL     OW91145  13.574  12.326   4.766
63083SOL    HW191146  13.537  12.345   4.679
63083SOL    HW291147  13.620  12.243   4.754
63084SOL     OW91148   3.017   1.782   1.913
63084SOL    HW191149   3.023   1.716   1.982
63084SOL    HW291150   3.084   1.757   1.850
63085SOL     OW91151   6.370  12.534   0.810
63085SOL    HW191152   6.319  12.611   0.784
63085SOL    HW291153   6.452  12.544   0.762
63086SOL     OW91154  12.308   4.169   3.577
63086SOL    HW191155  12.303   4.074   3.591
63086SOL    HW291156  12.269   4.182   3.491
63087SOL     OW91157   7.395  11.055  11.386
63087SOL    HW191158   7.406  11.081  11.478
63087SOL    HW291159   7.339  10.977  11.390
63088SOL     OW91160  13.314   1.211   9.996
63088SOL    HW191161  13.225   1.182  10.014
63088SOL    HW291162  13.322   1.206   9.900
63089SOL     OW91163   1.110   0.009   0.237
63089SOL    HW191164   1.180  14.836   0.276
63089SOL    HW291165   1.084  14.840   0.159
63090SOL     OW91166   7.312   6.372   4.496
63090SOL    HW191167   7.404   6.372   4.470
63090SOL    HW291168   7.265   6.342   4.419
63091SOL     OW91169  10.780   5.064   5.052
63091SOL    HW191170  10.759   4.972   5.066
63091SOL    HW291171  10.702   5.101   5.011
63092SOL     OW91172   8.097   8.210   1.936
63092SOL    HW191173   8.148   8.266   1.994
63092SOL    HW291174   8.044   8.157   1.995
63093SOL     OW91175   3.066   3.693  10.795
63093SOL    HW191176   3.073   3.780  10.835
63093SOL    HW291177   2.998   3.703  10.729
63094SOL     OW91178   6.014  13.945   1.317
63094SOL    HW191179   6.002  14.025   1.266
63094SOL    HW291180   6.075  13.969   1.386
63095SOL     OW91181  13.565   0.964  11.670
63095SOL    HW191182  13.650   0.925  11.647
63095SOL    HW291183  13.511   0.889  11.697
63096SOL     OW91184  12.863   5.906   7.048
63096SOL    HW191185  12.924   5.872   7.113
63096SOL    HW291186  12.807   5.966   7.097
63097SOL     OW91187  12.450  12.751   5.454
63097SOL    HW191188  12.520  12.738   5.390
63097SOL    HW291189  12.398  12.671   5.449
63098SOL     OW91190   6.810   5.313  13.898
63098SOL    HW191191   6.901   5.327  13.871
63098SOL    HW291192   6.767   5.278  13.820
63099SOL     OW91193   8.900  12.608  14.314
63099SOL    HW191194   8.839  12.675  14.285
63099SOL    HW291195   8.845  12.535  14.340
63100SOL     OW91196   1.335  14.410   6.265
63100SOL    HW191197   1.362  14.423   6.356
63100SOL    HW291198   1.240  14.403   6.269
63101SOL     OW91199   2.705   0.610  12.255
63101SOL    HW191200   2.724   0.679  12.319
63101SOL    HW291201   2.711   0.528  12.304
63102SOL     OW91202   0.815   1.440   3.446
63102SOL    HW191203   0.727   1.427   3.480
63102SOL    HW291204   0.872   1.430   3.523
63103SOL     OW91205  14.281   5.474   9.960
63103SOL    HW191206  14.300   5.483  10.053
63103SOL    HW291207  14.367   5.457   9.920
63104SOL     OW91208   1.706  14.342   1.107
63104SOL    HW191209   1.664  14.355   1.192
63104SOL    HW291210   1.799  14.357   1.123
63105SOL     OW91211   5.227  11.003   2.390
63105SOL    HW191212   5.134  10.981   2.397
63105SOL    HW291213   5.266  10.926   2.348
63106SOL     OW91214   6.935   1.947   7.134
63106SOL    HW191215   6.957   1.918   7.223
63106SOL    HW291216   6.876   2.021   7.147
63107SOL     OW91217   2.481   2.365   6.142
63107SOL    HW191218   2.561   2.378   6.091
63107SOL    HW291219   2.511   2.346   6.231
63108SOL     OW91220   0.241  13.905   2.128
63108SOL    HW191221   0.305  13.837   2.148
63108SOL    HW291222   0.247  13.916   2.033
63109SOL     OW91223  11.717  12.755   0.785
63109SOL    HW191224  11.630  12.731   0.753
63109SOL    HW291225  11.777  12.715   0.722
63110SOL     OW91226   5.537  11.861  11.902
63110SOL    HW191227   5.493  11.823  11.826
63110SOL    HW291228   5.563  11.785  11.955
63111SOL     OW91229  12.613   0.014   4.494
63111SOL    HW191230  12.530   0.023   4.540
63111SOL    HW291231  12.597   0.054   4.408
63112SOL     OW91232  14.694   5.049   8.027
63112SOL    HW191233  14.775   5.005   8.000
63112SOL    HW291234  14.709   5.072   8.118
63113SOL     OW91235   2.756   2.379  12.151
63113SOL    HW191236   2.666   2.408  12.133
63113SOL    HW291237   2.783   2.431  12.226
63114SOL     OW91238   8.704   9.322  10.335
63114SOL    HW191239   8.743   9.344  10.251
63114SOL    HW291240   8.731   9.393  10.393
63115SOL     OW91241   0.862   2.661   3.227
63115SOL    HW191242   0.795   2.597   3.205
63115SOL    HW291243   0.938   2.636   3.175
63116SOL     OW91244  11.055  10.236  13.190
63116SOL    HW191245  11.088  10.205  13.275
63116SOL    HW291246  11.119  10.300  13.161
63117SOL     OW91247  12.284  14.223   8.386
63117SOL    HW191248  12.239  14.264   8.460
63117SOL    HW291249  12.248  14.135   8.381
63118SOL     OW91250   9.905   2.942   0.913
63118SOL    HW191251   9.931   2.864   0.962
63118SOL    HW291252   9.980   2.963   0.859
63119SOL     OW91253  11.307   5.826   8.709
63119SOL    HW191254  11.335   5.739   8.683
63119SOL    HW291255  11.351   5.842   8.793
63120SOL     OW91256  14.567  14.053  14.633
63120SOL    HW191257  14.516  13.973  14.627
63120SOL    HW291258  14.657  14.024  14.648
63121SOL     OW91259  14.654   3.350  13.378
63121SOL    HW191260  14.635   3.256  13.381
63121SOL    HW291261  14.747   3.354  13.353
63122SOL     OW91262   6.315   6.330   2.871
63122SOL    HW191263   6.367   6.379   2.807
63122SOL    HW291264   6.227   6.367   2.864
63123SOL     OW91265  14.749  14.234  13.264
63123SOL    HW191266  14.810  14.290  13.217
63123SOL    HW291267  14.663  14.274  13.249
63124SOL     OW91268   1.608   6.472   2.403
63124SOL    HW191269   1.628   6.533   2.332
63124SOL    HW291270   1.527   6.505   2.441
63125SOL     OW91271   5.894   1.512   1.081
63125SOL    HW191272   5.841   1.489   1.005
63125SOL    HW291273   5.971   1.556   1.045
63126SOL     OW91274  14.039   1.862   2.136
63126SOL    HW191275  14.090   1.803   2.192
63126SOL    HW291276  14.074   1.949   2.155
63127SOL     OW91277   7.129   7.462   3.555
63127SOL    HW191278   7.181   7.539   3.533
63127SOL    HW291279   7.175   7.421   3.628
63128SOL     OW91280   2.200  14.337  14.471
63128SOL    HW191281   2.186  14.415  14.525
63128SOL    HW291282   2.209  14.371  14.382
63129SOL     OW91283   9.688   7.030   9.129
63129SOL    HW191284   9.724   6.998   9.212
63129SOL    HW291285   9.730   7.115   9.115
63130SOL     OW91286   8.828  14.842   9.298
63130SOL    HW191287   8.841  14.774   9.364
63130SOL    HW291288   8.910   0.012   9.298
63131SOL     OW91289  10.720  13.793  10.450
63131SOL    HW191290  10.686  13.867  10.500
63131SOL    HW291291  10.649  13.728  10.452
63132SOL     OW91292  13.006   3.444   1.294
63132SOL    HW191293  13.073   3.476   1.234
63132SOL    HW291294  12.952   3.521   1.313
63133SOL     OW91295   9.288  14.102   7.889
63133SOL    HW191296   9.340  14.181   7.873
63133SOL    HW291297   9.216  14.132   7.944
63134SOL     OW91298   6.459  10.543   4.963
63134SOL    HW191299   6.553  10.545   4.979
63134SOL    HW291300   6.420  10.526   5.049
63135SOL     OW91301  13.981   2.779  10.747
63135SOL    HW191302  14.046   2.742  10.806
63135SOL    HW291303  13.897   2.756  10.786
63136SOL     OW91304  11.433  12.572  10.982
63136SOL    HW191305  11.383  12.637  11.031
63136SOL    HW291306  11.432  12.605  10.892
63137SOL     OW91307   0.172   4.055   0.229
63137SOL    HW191308   0.154   4.149   0.229
63137SOL    HW291309   0.265   4.048   0.211
63138SOL     OW91310  10.357  11.248   6.351
63138SOL    HW191311  10.443  11.283   6.328
63138SOL    HW291312  10.376  11.161   6.388
63139SOL     OW91313   9.319   4.615   2.774
63139SOL    HW191314   9.269   4.662   2.840
63139SOL    HW291315   9.259   4.547   2.743
63140SOL     OW91316   2.383  10.797   8.697
63140SOL    HW191317   2.459  10.837   8.739
63140SOL    HW291318   2.420  10.732   8.637
63141SOL     OW91319   8.069  12.595   6.671
63141SOL    HW191320   8.049  12.602   6.577
63141SOL    HW291321   8.052  12.683   6.705
63142SOL     OW91322   5.884   1.432   7.280
63142SOL    HW191323   5.921   1.459   7.363
63142SOL    HW291324   5.837   1.351   7.300
63143SOL     OW91325   9.956   3.697   7.859
63143SOL    HW191326   9.939   3.645   7.937
63143SOL    HW291327   9.887   3.671   7.798
63144SOL     OW91328   1.326   2.762   9.402
63144SOL    HW191329   1.340   2.836   9.343
63144SOL    HW291330   1.250   2.717   9.366
63145SOL     OW91331   8.299   9.350  11.647
63145SOL    HW191332   8.230   9.317  11.703
63145SOL    HW291333   8.378   9.348  11.702
63146SOL     OW91334   5.478  13.320   2.519
63146SOL    HW191335   5.493  13.226   2.505
63146SOL    HW291336   5.504  13.361   2.436
63147SOL     OW91337   2.659   7.558   7.149
63147SOL    HW191338   2.567   7.542   7.131
63147SOL    HW291339   2.674   7.649   7.123
63148SOL     OW91340   0.418   9.322  10.859
63148SOL    HW191341   0.393   9.412  10.836
63148SOL    HW291342   0.407   9.318  10.954
63149SOL     OW91343   2.283  11.103  11.451
63149SOL    HW191344   2.296  11.031  11.512
63149SOL    HW291345   2.235  11.064  11.377
63150SOL     OW91346   0.021   8.328   0.417
63150SOL    HW191347  14.850   8.311   0.497
63150SOL    HW291348   0.003   8.253   0.360
63151SOL     OW91349   0.372   5.336   9.280
63151SOL    HW191350   0.282   5.351   9.309
63151SOL    HW291351   0.370   5.250   9.238
63152SOL     OW91352  11.304  10.724   4.843
63152SOL    HW191353  11.219  10.696   4.878
63152SOL    HW291354  11.353  10.754   4.920
63153SOL     OW91355  14.697  14.120   3.988
63153SOL    HW191356  14.693  14.193   4.050
63153SOL    HW291357  14.613  14.122   3.943
63154SOL     OW91358  12.117   5.807   4.494
63154SOL    HW191359  12.100   5.846   4.580
63154SOL    HW291360  12.049   5.740   4.484
63155SOL     OW91361  14.470   1.128  14.234
63155SOL    HW191362  14.539   1.105  14.296
63155SOL    HW291363  14.394   1.078  14.264
63156SOL     OW91364   9.905   2.688  10.503
63156SOL    HW191365   9.984   2.677  10.557
63156SOL    HW291366   9.934   2.738  10.427
63157SOL     OW91367   6.823   5.391   7.262
63157SOL    HW191368   6.825   5.307   7.310
63157SOL    HW291369   6.882   5.447   7.311
63158SOL     OW91370  14.318   5.343   4.103
63158SOL    HW191371  14.239   5.301   4.138
63158SOL    HW291372  14.385   5.327   4.169
63159SOL     OW91373  14.106   4.280   1.579
63159SOL    HW191374  14.127   4.204   1.524
63159SOL    HW291375  14.186   4.333   1.577
63160SOL     OW91376   7.374   5.952   7.317
63160SOL    HW191377   7.283   5.942   7.287
63160SOL    HW291378   7.373   5.918   7.407
63161SOL     OW91379   1.942   0.477   4.299
63161SOL    HW191380   1.879   0.466   4.228
63161SOL    HW291381   1.926   0.566   4.332
63162SOL     OW91382   8.208   1.097   5.328
63162SOL    HW191383   8.201   1.192   5.334
63162SOL    HW291384   8.132   1.064   5.378
63163SOL     OW91385   4.637   1.333   4.296
63163SOL    HW191386   4.584   1.379   4.231
63163SOL    HW291387   4.595   1.354   4.380
63164SOL     OW91388   9.790  12.770  11.036
63164SOL    HW191389   9.882  12.792  11.050
63164SOL    HW291390   9.755  12.758  11.125
63165SOL     OW91391   8.130   3.958   4.782
63165SOL    HW191392   8.042   3.990   4.802
63165SOL    HW291393   8.188   4.029   4.811
63166SOL     OW91394   6.604  11.994  10.622
63166SOL    HW191395   6.567  11.948  10.697
63166SOL    HW291396   6.692  11.958  10.613
63167SOL     OW91397   1.439  13.302   5.448
63167SOL    HW191398   1.459  13.223   5.399
63167SOL    HW291399   1.522  13.350   5.452
63168SOL     OW91400  10.095   5.820   4.291
63168SOL    HW191401  10.034   5.894   4.291
63168SOL    HW291402  10.057   5.757   4.351
63169SOL     OW91403   9.996   2.852  14.676
63169SOL    HW191404  10.019   2.805  14.595
63169SOL    HW291405  10.080   2.870  14.718
63170SOL     OW91406   7.597   5.101   3.949
63170SOL    HW191407   7.577   5.040   4.020
63170SOL    HW291408   7.623   5.045   3.876
63171SOL     OW91409  12.388  13.480  13.313
63171SOL    HW191410  12.354  13.505  13.227
63171SOL    HW291411  12.472  13.439  13.295
63172SOL     OW91412   9.850  14.422  14.660
63172SOL    HW191413   9.843  14.503  14.712
63172SOL    HW291414   9.801  14.441  14.580
63173SOL     OW91415   4.881   5.751  11.685
63173SOL    HW191416   4.938   5.727  11.758
63173SOL    HW291417   4.797   5.711  11.706
63174SOL     OW91418  12.120   0.637  12.414
63174SOL    HW191419  12.181   0.696  12.459
63174SOL    HW291420  12.176   0.569  12.377
63175SOL     OW91421  14.443   0.505  11.282
63175SOL    HW191422  14.424   0.483  11.373
63175SOL    HW291423  14.538   0.496  11.275
63176SOL     OW91424   2.400   0.001   4.962
63176SOL    HW191425   2.454  14.830   4.901
63176SOL    HW291426   2.356  14.815   5.016
63177SOL     OW91427  12.275   2.567   1.357
63177SOL    HW191428  12.301   2.603   1.442
63177SOL    HW291429  12.285   2.639   1.295
63178SOL     OW91430   8.449  12.436   1.308
63178SOL    HW191431   8.434  12.471   1.220
63178SOL    HW291432   8.516  12.492   1.345
63179SOL     OW91433   2.000   9.640   6.451
63179SOL    HW191434   2.074   9.618   6.508
63179SOL    HW291435   1.924   9.636   6.509
63180SOL     OW91436   1.729  14.617  11.045
63180SOL    HW191437   1.722  14.698  10.996
63180SOL    HW291438   1.769  14.643  11.128
63181SOL     OW91439   5.599   7.853  12.120
63181SOL    HW191440   5.648   7.771  12.128
63181SOL    HW291441   5.545   7.855  12.198
63182SOL     OW91442   5.273   7.241  10.894
63182SOL    HW191443   5.364   7.266  10.911
63182SOL    HW291444   5.231   7.322  10.862
63183SOL     OW91445  13.048   1.807   3.114
63183SOL    HW191446  13.062   1.859   3.035
63183SOL    HW291447  13.066   1.717   3.087
63184SOL     OW91448   2.564  10.862  11.582
63184SOL    HW191449   2.579  10.819  11.666
63184SOL    HW291450   2.468  10.862  11.572
63185SOL     OW91451   0.034  10.348  10.428
63185SOL    HW191452   0.047  10.437  10.396
63185SOL    HW291453   0.121  10.320  10.456
63186SOL     OW91454   0.700   9.064  12.419
63186SOL    HW191455   0.675   9.124  12.489
63186SOL    HW291456   0.791   9.041  12.439
63187SOL     OW91457  11.777  13.521   3.002
63187SOL    HW191458  11.732  13.528   3.086
63187SOL    HW291459  11.711  13.487   2.942
63188SOL     OW91460   9.295   4.121  14.099
63188SOL    HW191461   9.345   4.194  14.136
63188SOL    HW291462   9.334   4.106  14.013
63189SOL     OW91463  12.134   4.428   6.435
63189SOL    HW191464  12.224   4.401   6.453
63189SOL    HW291465  12.142   4.501   6.373
63190SOL     OW91466   9.196  14.486   3.580
63190SOL    HW191467   9.220  14.459   3.668
63190SOL    HW291468   9.278  14.479   3.530
63191SOL     OW91469  12.265   6.718   6.812
63191SOL    HW191470  12.260   6.706   6.717
63191SOL    HW291471  12.234   6.807   6.826
63192SOL     OW91472   8.552  12.219   0.730
63192SOL    HW191473   8.617  12.159   0.696
63192SOL    HW291474   8.527  12.183   0.814
63193SOL     OW91475   3.069   6.329   6.300
63193SOL    HW191476   3.017   6.288   6.369
63193SOL    HW291477   3.076   6.421   6.327
63194SOL     OW91478   3.436  14.809   3.564
63194SOL    HW191479   3.413  14.850   3.647
63194SOL    HW291480   3.380  14.852   3.499
63195SOL     OW91481  12.979   1.416  13.292
63195SOL    HW191482  12.961   1.338  13.345
63195SOL    HW291483  13.070   1.438  13.312
63196SOL     OW91484   2.400   6.368   7.940
63196SOL    HW191485   2.456   6.312   7.886
63196SOL    HW291486   2.449   6.449   7.948
63197SOL     OW91487  10.763   7.711   5.442
63197SOL    HW191488  10.755   7.789   5.497
63197SOL    HW291489  10.844   7.725   5.393
63198SOL     OW91490   1.328   9.383   8.865
63198SOL    HW191491   1.346   9.378   8.959
63198SOL    HW291492   1.267   9.312   8.848
63199SOL     OW91493  14.071   5.314   7.544
63199SOL    HW191494  14.109   5.250   7.605
63199SOL    HW291495  14.043   5.262   7.469
63200SOL     OW91496  10.522  11.278   3.203
63200SOL    HW191497  10.544  11.350   3.144
63200SOL    HW291498  10.468  11.318   3.271
63201SOL     OW91499   0.017   9.786  13.065
63201SOL    HW191500   0.078   9.767  13.137
63201SOL    HW291501  14.824   9.725  13.080
63202SOL     OW91502  13.693  13.433   2.152
63202SOL    HW191503  13.755  13.360   2.138
63202SOL    HW291504  13.637  13.431   2.075
63203SOL     OW91505   1.080   3.047   6.461
63203SOL    HW191506   1.134   2.970   6.448
63203SOL    HW291507   1.099   3.102   6.385
63204SOL     OW91508   8.417   8.686   9.617
63204SOL    HW191509   8.388   8.622   9.682
63204SOL    HW291510   8.340   8.701   9.562
63205SOL     OW91511  13.598  14.687   8.770
63205SOL    HW191512  13.605  14.621   8.702
63205SOL    HW291513  13.539  14.649   8.835
63206SOL     OW91514   9.700   5.449  12.712
63206SOL    HW191515   9.628   5.401  12.753
63206SOL    HW291516   9.694   5.537  12.748
63207SOL     OW91517   1.601  13.972  13.785
63207SOL    HW191518   1.596  13.930  13.871
63207SOL    HW291519   1.511  13.998  13.767
63208SOL     OW91520   0.151   1.281   8.943
63208SOL    HW191521   0.201   1.249   8.868
63208SOL    HW291522   0.134   1.202   8.995
63209SOL     OW91523  13.011  11.906   0.089
63209SOL    HW191524  12.994  12.000   0.084
63209SOL    HW291525  13.105  11.898   0.070
63210SOL     OW91526   7.983   8.449  12.586
63210SOL    HW191527   8.046   8.516  12.560
63210SOL    HW291528   7.928   8.493  12.652
63211SOL     OW91529   7.945  11.393  12.409
63211SOL    HW191530   7.988  11.461  12.462
63211SOL    HW291531   8.016  11.349  12.364
63212SOL     OW91532   7.914   4.120  13.676
63212SOL    HW191533   7.985   4.061  13.651
63212SOL    HW291534   7.955   4.206  13.679
63213SOL     OW91535   1.574   5.738   3.179
63213SOL    HW191536   1.558   5.794   3.103
63213SOL    HW291537   1.616   5.796   3.243
63214SOL     OW91538  10.399   6.273   2.517
63214SOL    HW191539  10.439   6.191   2.487
63214SOL    HW291540  10.312   6.247   2.547
63215SOL     OW91541   0.570   5.482   5.145
63215SOL    HW191542   0.562   5.389   5.166
63215SOL    HW291543   0.640   5.486   5.079
63216SOL     OW91544   0.130  13.127   8.649
63216SOL    HW191545   0.127  13.050   8.705
63216SOL    HW291546   0.133  13.201   8.709
63217SOL     OW91547   1.428   0.841  14.320
63217SOL    HW191548   1.451   0.866  14.409
63217SOL    HW291549   1.403   0.749  14.326
63218SOL     OW91550   8.236   9.096   7.371
63218SOL    HW191551   8.204   9.027   7.428
63218SOL    HW291552   8.282   9.157   7.429
63219SOL     OW91553   6.832   9.880   9.859
63219SOL    HW191554   6.903   9.845   9.805
63219SOL    HW291555   6.858   9.861   9.949
63220SOL     OW91556  10.995   0.114   7.361
63220SOL    HW191557  10.902   0.104   7.344
63220SOL    HW291558  11.018   0.038   7.415
63221SOL     OW91559   3.025   4.941  12.898
63221SOL    HW191560   3.009   5.024  12.854
63221SOL    HW291561   3.097   4.960  12.959
63222SOL     OW91562   6.929   1.665  12.252
63222SOL    HW191563   6.967   1.704  12.330
63222SOL    HW291564   6.865   1.601  12.285
63223SOL     OW91565  14.135   0.664  12.304
63223SOL    HW191566  14.048   0.624  12.306
63223SOL    HW291567  14.121   0.753  12.337
63224SOL     OW91568   3.439   5.326  13.023
63224SOL    HW191569   3.526   5.293  13.045
63224SOL    HW291570   3.446   5.421  13.031
63225SOL     OW91571   7.906  13.755   6.209
63225SOL    HW191572   7.988  13.714   6.181
63225SOL    HW291573   7.856  13.683   6.250
63226SOL     OW91574   4.862   7.330   5.565
63226SOL    HW191575   4.802   7.263   5.533
63226SOL    HW291576   4.914   7.286   5.632
63227SOL     OW91577   0.343  13.136  11.009
63227SOL    HW191578   0.345  13.065  10.945
63227SOL    HW291579   0.342  13.216  10.957
63228SOL     OW91580  12.608   5.036   6.301
63228SOL    HW191581  12.649   5.049   6.386
63228SOL    HW291582  12.673   4.989   6.249
63229SOL     OW91583  12.128   7.971   0.576
63229SOL    HW191584  12.059   8.036   0.589
63229SOL    HW291585  12.168   7.959   0.662
63230SOL     OW91586   7.992   7.602  12.318
63230SOL    HW191587   7.990   7.642  12.231
63230SOL    HW291588   8.080   7.567  12.327
63231SOL     OW91589   2.585   5.999  14.786
63231SOL    HW191590   2.674   6.034  14.797
63231SOL    HW291591   2.584   5.919  14.839
63232SOL     OW91592   0.081   6.275   4.237
63232SOL    HW191593   0.012   6.211   4.223
63232SOL    HW291594   0.094   6.316   4.152
63233SOL     OW91595   0.888   3.090   6.696
63233SOL    HW191596   0.917   3.119   6.783
63233SOL    HW291597   0.934   3.146   6.635
63234SOL     OW91598   5.814  14.843   3.869
63234SOL    HW191599   5.879  14.863   3.803
63234SOL    HW291600   5.847  14.764   3.912
63235SOL     OW91601   2.196  10.940  14.460
63235SOL    HW191602   2.137  11.015  14.455
63235SOL    HW291603   2.211  10.927  14.554
63236SOL     OW91604  14.347   1.087   1.276
63236SOL    HW191605  14.304   1.062   1.358
63236SOL    HW291606  14.377   1.004   1.238
63237SOL     OW91607   4.890  10.721   6.711
63237SOL    HW191608   4.796  10.718   6.730
63237SOL    HW291609   4.903  10.651   6.647
63238SOL     OW91610  12.184   3.549   7.581
63238SOL    HW191611  12.121   3.496   7.630
63238SOL    HW291612  12.200   3.625   7.636
63239SOL     OW91613   1.994   7.845  14.182
63239SOL    HW191614   1.946   7.843  14.099
63239SOL    HW291615   1.973   7.762  14.224
63240SOL     OW91616   7.445   0.068   4.184
63240SOL    HW191617   7.418   0.066   4.276
63240SOL    HW291618   7.538   0.089   4.187
63241SOL     OW91619   2.856   8.605   7.555
63241SOL    HW191620   2.786   8.611   7.620
63241SOL    HW291621   2.844   8.681   7.499
63242SOL     OW91622   3.472   5.202   7.875
63242SOL    HW191623   3.553   5.197   7.925
63242SOL    HW291624   3.439   5.112   7.874
63243SOL     OW91625   6.538  10.018   7.613
63243SOL    HW191626   6.568   9.928   7.624
63243SOL    HW291627   6.505  10.022   7.523
63244SOL     OW91628   6.696   2.893  14.712
63244SOL    HW191629   6.739   2.867  14.631
63244SOL    HW291630   6.644   2.817  14.738
63245SOL     OW91631   3.265   6.801  12.622
63245SOL    HW191632   3.255   6.753  12.704
63245SOL    HW291633   3.175   6.813  12.590
63246SOL     OW91634  12.110  13.155   3.680
63246SOL    HW191635  12.136  13.176   3.590
63246SOL    HW291636  12.038  13.093   3.670
63247SOL     OW91637   9.294  12.146   5.080
63247SOL    HW191638   9.278  12.133   4.987
63247SOL    HW291639   9.380  12.187   5.084
63248SOL     OW91640  13.844   9.914   7.092
63248SOL    HW191641  13.846  10.004   7.124
63248SOL    HW291642  13.920   9.907   7.034
63249SOL     OW91643   7.204  14.232   3.488
63249SOL    HW191644   7.239  14.300   3.430
63249SOL    HW291645   7.267  14.226   3.559
63250SOL     OW91646   1.191   3.110   5.133
63250SOL    HW191647   1.256   3.043   5.112
63250SOL    HW291648   1.111   3.061   5.152
63251SOL     OW91649   0.217   6.512  14.354
63251SOL    HW191650   0.219   6.597  14.398
63251SOL    HW291651   0.309   6.493  14.335
63252SOL     OW91652   8.380  11.641   6.833
63252SOL    HW191653   8.454  11.589   6.866
63252SOL    HW291654   8.356  11.697   6.906
63253SOL     OW91655   4.391  12.721   8.803
63253SOL    HW191656   4.296  12.723   8.791
63253SOL    HW291657   4.425  12.696   8.717
63254SOL     OW91658  14.752   6.484  12.571
63254SOL    HW191659  14.761   6.406  12.626
63254SOL    HW291660  14.826   6.540  12.596
63255SOL     OW91661   1.100   0.387   7.028
63255SOL    HW191662   1.143   0.467   6.995
63255SOL    HW291663   1.078   0.338   6.949
63256SOL     OW91664  10.801   6.007   4.802
63256SOL    HW191665  10.783   5.935   4.742
63256SOL    HW291666  10.729   6.069   4.786
63257SOL     OW91667   9.814   2.047  11.491
63257SOL    HW191668   9.806   2.113  11.422
63257SOL    HW291669   9.875   1.983  11.455
63258SOL     OW91670   8.610  13.494  10.769
63258SOL    HW191671   8.560  13.444  10.833
63258SOL    HW291672   8.674  13.432  10.734
63259SOL     OW91673   2.017   2.647  14.128
63259SOL    HW191674   2.046   2.738  14.131
63259SOL    HW291675   2.052   2.613  14.045
63260SOL     OW91676   4.999   2.716   9.464
63260SOL    HW191677   4.935   2.668   9.411
63260SOL    HW291678   4.947   2.758   9.532
63261SOL     OW91679  14.702   9.636  11.262
63261SOL    HW191680  14.672   9.629  11.352
63261SOL    HW291681  14.633   9.685  11.217
63262SOL     OW91682   8.944   3.615   5.959
63262SOL    HW191683   8.911   3.566   5.883
63262SOL    HW291684   9.030   3.646   5.931
63263SOL     OW91685  14.246  12.986   5.034
63263SOL    HW191686  14.231  13.014   5.124
63263SOL    HW291687  14.336  13.012   5.015
63264SOL     OW91688   3.184   3.605   0.461
63264SOL    HW191689   3.130   3.667   0.509
63264SOL    HW291690   3.133   3.523   0.463
63265SOL     OW91691   3.338  12.094  12.570
63265SOL    HW191692   3.326  12.051  12.485
63265SOL    HW291693   3.421  12.059  12.602
63266SOL     OW91694   7.320  12.421   9.889
63266SOL    HW191695   7.298  12.438   9.981
63266SOL    HW291696   7.376  12.344   9.891
63267SOL     OW91697  10.235   8.771   5.146
63267SOL    HW191698  10.181   8.692   5.149
63267SOL    HW291699  10.198   8.827   5.214
63268SOL     OW91700   7.700  10.441  11.201
63268SOL    HW191701   7.788  10.405  11.212
63268SOL    HW291702   7.696  10.469  11.110
63269SOL     OW91703   1.068   0.560  10.543
63269SOL    HW191704   1.052   0.630  10.480
63269SOL    HW291705   1.131   0.598  10.605
63270SOL     OW91706   8.513  10.678   5.643
63270SOL    HW191707   8.534  10.761   5.686
63270SOL    HW291708   8.573  10.674   5.568
63271SOL     OW91709   9.184   3.414   7.778
63271SOL    HW191710   9.097   3.443   7.806
63271SOL    HW291711   9.169   3.377   7.691
63272SOL     OW91712   3.060   3.779   8.824
63272SOL    HW191713   3.051   3.827   8.742
63272SOL    HW291714   3.046   3.687   8.800
63273SOL     OW91715   4.438   9.653   7.983
63273SOL    HW191716   4.427   9.741   7.946
63273SOL    HW291717   4.480   9.602   7.914
63274SOL     OW91718   5.177  13.666   6.860
63274SOL    HW191719   5.147  13.754   6.885
63274SOL    HW291720   5.097  13.613   6.860
63275SOL     OW91721   6.539   4.280   8.558
63275SOL    HW191722   6.507   4.353   8.505
63275SOL    HW291723   6.599   4.233   8.500
63276SOL     OW91724   8.822   0.545   8.706
63276SOL    HW191725   8.860   0.461   8.731
63276SOL    HW291726   8.894   0.592   8.665
63277SOL     OW91727   6.488   3.681  12.706
63277SOL    HW191728   6.549   3.747  12.740
63277SOL    HW291729   6.455   3.719  12.624
63278SOL     OW91730   5.006   2.759   0.366
63278SOL    HW191731   5.010   2.682   0.422
63278SOL    HW291732   5.086   2.807   0.384
63279SOL     OW91733   6.084   0.999   7.423
63279SOL    HW191734   6.086   1.044   7.338
63279SOL    HW291735   6.163   1.029   7.467
63280SOL     OW91736  12.744  14.637   5.558
63280SOL    HW191737  12.738  14.578   5.483
63280SOL    HW291738  12.725  14.581   5.634
63281SOL     OW91739   6.143   7.128   2.942
63281SOL    HW191740   6.202   7.192   2.903
63281SOL    HW291741   6.189   7.098   3.021
63282SOL     OW91742   8.957   6.877   8.591
63282SOL    HW191743   8.991   6.915   8.672
63282SOL    HW291744   9.034   6.868   8.535
63283SOL     OW91745  11.211   4.645   3.002
63283SOL    HW191746  11.192   4.629   2.910
63283SOL    HW291747  11.256   4.730   3.002
63284SOL     OW91748   6.399   3.422   0.135
63284SOL    HW191749   6.406   3.367   0.057
63284SOL    HW291750   6.329   3.485   0.114
63285SOL     OW91751   0.866   2.116  12.612
63285SOL    HW191752   0.900   2.169  12.540
63285SOL    HW291753   0.773   2.141  12.618
63286SOL     OW91754  12.438   5.945  13.499
63286SOL    HW191755  12.439   5.852  13.522
63286SOL    HW291756  12.497   5.951  13.423
63287SOL     OW91757   8.368  11.687  11.781
63287SOL    HW191758   8.429  11.753  11.747
63287SOL    HW291759   8.356  11.625  11.709
63288SOL     OW91760   9.696   3.425   0.613
63288SOL    HW191761   9.608   3.435   0.650
63288SOL    HW291762   9.736   3.355   0.664
63289SOL     OW91763   0.461   9.986   7.067
63289SOL    HW191764   0.478   9.925   6.996
63289SOL    HW291765   0.507   9.949   7.142
63290SOL     OW91766   4.122   2.953   2.567
63290SOL    HW191767   4.114   3.022   2.500
63290SOL    HW291768   4.032   2.923   2.582
63291SOL     OW91769   7.434   0.638   2.352
63291SOL    HW191770   7.494   0.699   2.308
63291SOL    HW291771   7.480   0.611   2.431
63292SOL     OW91772  12.329  10.839   6.158
63292SOL    HW191773  12.263  10.906   6.142
63292SOL    HW291774  12.339  10.836   6.253
63293SOL     OW91775   9.235   2.568   4.731
63293SOL    HW191776   9.250   2.495   4.792
63293SOL    HW291777   9.304   2.630   4.752
63294SOL     OW91778   5.790   1.272  12.219
63294SOL    HW191779   5.818   1.308  12.303
63294SOL    HW291780   5.763   1.183  12.239
63295SOL     OW91781   3.038   5.822   7.264
63295SOL    HW191782   3.030   5.807   7.169
63295SOL    HW291783   3.044   5.734   7.301
63296SOL     OW91784   6.417   9.409   5.252
63296SOL    HW191785   6.467   9.455   5.319
63296SOL    HW291786   6.452   9.443   5.169
63297SOL     OW91787   6.391   5.648   2.264
63297SOL    HW191788   6.318   5.587   2.279
63297SOL    HW291789   6.371   5.689   2.180
63298SOL     OW91790   2.966  13.175   0.790
63298SOL    HW191791   2.964  13.088   0.830
63298SOL    HW291792   2.918  13.164   0.708
63299SOL     OW91793  10.636   1.945   6.933
63299SOL    HW191794  10.694   1.886   6.885
63299SOL    HW291795  10.655   2.032   6.897
63300SOL     OW91796  13.214   5.848   3.451
63300SOL    HW191797  13.136   5.864   3.397
63300SOL    HW291798  13.242   5.934   3.480
63301SOL     OW91799   0.046   4.057   2.351
63301SOL    HW191800  14.840   4.017   2.334
63301SOL    HW291801   0.033   4.110   2.430
63302SOL     OW91802   7.201   1.334  14.837
63302SOL    HW191803   7.229   1.373   0.040
63302SOL    HW291804   7.108   1.356  14.831
63303SOL     OW91805  14.317   5.118   5.552
63303SOL    HW191806  14.388   5.158   5.502
63303SOL    HW291807  14.275   5.059   5.489
63304SOL     OW91808   0.115   4.587   9.188
63304SOL    HW191809   0.037   4.638   9.164
63304SOL    HW291810   0.163   4.644   9.249
63305SOL     OW91811   8.669   8.108   2.686
63305SOL    HW191812   8.628   8.037   2.635
63305SOL    HW291813   8.663   8.079   2.777
63306SOL     OW91814   3.309   1.377   1.366
63306SOL    HW191815   3.214   1.381   1.353
63306SOL    HW291816   3.340   1.320   1.296
63307SOL     OW91817   1.534   7.621   3.221
63307SOL    HW191818   1.612   7.646   3.171
63307SOL    HW291819   1.555   7.646   3.311
63308SOL     OW91820   8.798   1.676  10.218
63308SOL    HW191821   8.871   1.616  10.204
63308SOL    HW291822   8.785   1.719  10.134
63309SOL     OW91823   3.254  12.805  11.696
63309SOL    HW191824   3.299  12.883  11.729
63309SOL    HW291825   3.321  12.758  11.647
63310SOL     OW91826   6.919   3.220   3.680
63310SOL    HW191827   6.958   3.307   3.675
63310SOL    HW291828   6.883   3.205   3.592
63311SOL     OW91829   9.558   3.336   6.971
63311SOL    HW191830   9.518   3.273   7.031
63311SOL    HW291831   9.486   3.394   6.946
63312SOL     OW91832  13.063   4.678  12.978
63312SOL    HW191833  13.124   4.750  12.994
63312SOL    HW291834  12.993   4.717  12.926
63313SOL     OW91835   9.989  13.786  10.329
63313SOL    HW191836   9.994  13.742  10.414
63313SOL    HW291837  10.024  13.874  10.346
63314SOL     OW91838   1.018   6.211  14.562
63314SOL    HW191839   0.955   6.278  14.534
63314SOL    HW291840   1.028   6.154  14.486
63315SOL     OW91841   7.102  11.094  11.783
63315SOL    HW191842   7.035  11.107  11.717
63315SOL    HW291843   7.072  11.018  11.834
63316SOL     OW91844   9.846   8.952   2.871
63316SOL    HW191845   9.760   8.922   2.841
63316SOL    HW291846   9.896   8.871   2.885
63317SOL     OW91847  10.872   6.154  10.131
63317SOL    HW191848  10.777   6.155  10.143
63317SOL    HW291849  10.903   6.088  10.193
63318SOL     OW91850   2.898   4.910  13.315
63318SOL    HW191851   2.939   4.990  13.282
63318SOL    HW291852   2.958   4.840  13.289
63319SOL     OW91853   6.687   2.501   4.362
63319SOL    HW191854   6.646   2.586   4.349
63319SOL    HW291855   6.739   2.487   4.283
63320SOL     OW91856   1.629  10.459  10.249
63320SOL    HW191857   1.682  10.388  10.285
63320SOL    HW291858   1.660  10.537  10.295
63321SOL     OW91859  14.630  11.038  11.625
63321SOL    HW191860  14.628  11.022  11.720
63321SOL    HW291861  14.570  10.974  11.588
63322SOL     OW91862   6.700   3.985  11.323
63322SOL    HW191863   6.784   4.005  11.282
63322SOL    HW291864   6.671   4.069  11.360
63323SOL     OW91865   5.604  12.257  14.424
63323SOL    HW191866   5.601  12.262  14.520
63323SOL    HW291867   5.639  12.170  14.406
63324SOL     OW91868  11.348  14.479   2.439
63324SOL    HW191869  11.342  14.503   2.347
63324SOL    HW291870  11.318  14.388   2.443
63325SOL     OW91871  11.571   2.601   2.844
63325SOL    HW191872  11.523   2.521   2.825
63325SOL    HW291873  11.609   2.627   2.760
63326SOL     OW91874  12.726  13.929   7.209
63326SOL    HW191875  12.806  13.876   7.209
63326SOL    HW291876  12.757  14.018   7.229
63327SOL     OW91877   5.789   1.829   2.667
63327SOL    HW191878   5.780   1.797   2.577
63327SOL    HW291879   5.712   1.886   2.679
63328SOL     OW91880  14.375   3.072  12.766
63328SOL    HW191881  14.396   3.114  12.850
63328SOL    HW291882  14.422   3.124  12.701
63329SOL     OW91883   2.439   1.743   0.325
63329SOL    HW191884   2.436   1.809   0.256
63329SOL    HW291885   2.431   1.660   0.279
63330SOL     OW91886   4.398   0.108   2.464
63330SOL    HW191887   4.458   0.128   2.536
63330SOL    HW291888   4.417   0.018   2.441
63331SOL     OW91889  10.920   9.889  12.676
63331SOL    HW191890  10.909   9.979  12.643
63331SOL    HW291891  11.011   9.885  12.705
63332SOL     OW91892  14.156   5.392  14.613
63332SOL    HW191893  14.188   5.303  14.596
63332SOL    HW291894  14.118   5.387  14.701
63333SOL     OW91895  13.458   8.307  12.678
63333SOL    HW191896  13.490   8.250  12.607
63333SOL    HW291897  13.537   8.340  12.719
63334SOL     OW91898   8.806   1.165  12.816
63334SOL    HW191899   8.869   1.134  12.881
63334SOL    HW291900   8.740   1.213  12.866
63335SOL     OW91901   4.479   2.477  10.242
63335SOL    HW191902   4.545   2.512  10.181
63335SOL    HW291903   4.396   2.500  10.201
63336SOL     OW91904   6.972  14.078   2.915
63336SOL    HW191905   6.979  14.009   2.849
63336SOL    HW291906   7.063  14.099   2.938
63337SOL     OW91907   4.069  11.748   8.776
63337SOL    HW191908   4.036  11.837   8.772
63337SOL    HW291909   4.153  11.756   8.821
63338SOL     OW91910   8.043   7.565   8.056
63338SOL    HW191911   7.983   7.587   7.985
63338SOL    HW291912   7.987   7.554   8.133
63339SOL     OW91913   9.215   5.255  13.599
63339SOL    HW191914   9.298   5.295  13.574
63339SOL    HW291915   9.239   5.185  13.659
63340SOL     OW91916  12.281   4.562   4.265
63340SOL    HW191917  12.317   4.629   4.323
63340SOL    HW291918  12.347   4.492   4.265
63341SOL     OW91919   9.167   2.990   1.764
63341SOL    HW191920   9.203   3.043   1.693
63341SOL    HW291921   9.082   2.961   1.731
63342SOL     OW91922   6.258  11.103   2.145
63342SOL    HW191923   6.165  11.118   2.125
63342SOL    HW291924   6.295  11.191   2.152
63343SOL     OW91925   5.015   9.660   5.064
63343SOL    HW191926   5.017   9.728   5.132
63343SOL    HW291927   5.058   9.700   4.989
63344SOL     OW91928  13.264   3.349  11.444
63344SOL    HW191929  13.204   3.400  11.390
63344SOL    HW291930  13.246   3.258  11.422
63345SOL     OW91931   2.476  10.645   2.938
63345SOL    HW191932   2.488  10.553   2.962
63345SOL    HW291933   2.432  10.683   3.014
63346SOL     OW91934   3.216   5.099   4.999
63346SOL    HW191935   3.222   5.175   4.942
63346SOL    HW291936   3.139   5.051   4.967
63347SOL     OW91937   1.781   0.505   5.285
63347SOL    HW191938   1.741   0.451   5.353
63347SOL    HW291939   1.781   0.594   5.322
63348SOL     OW91940   8.630  14.728   5.670
63348SOL    HW191941   8.674  14.803   5.710
63348SOL    HW291942   8.684  14.706   5.594
63349SOL     OW91943   9.357  11.812   3.962
63349SOL    HW191944   9.370  11.884   3.901
63349SOL    HW291945   9.311  11.745   3.912
63350SOL     OW91946   0.736  13.783   7.082
63350SOL    HW191947   0.679  13.763   7.157
63350SOL    HW291948   0.806  13.718   7.088
63351SOL     OW91949   2.156   3.594   1.054
63351SOL    HW191950   2.240   3.617   1.017
63351SOL    HW291951   2.142   3.503   1.028
63352SOL     OW91952   1.872  13.413   2.312
63352SOL    HW191953   1.857  13.320   2.330
63352SOL    HW291954   1.965  13.426   2.330
63353SOL     OW91955   7.049  13.944  13.414
63353SOL    HW191956   7.039  13.852  13.388
63353SOL    HW291957   6.972  13.962  13.468
63354SOL     OW91958  13.943  13.267   7.816
63354SOL    HW191959  13.996  13.282   7.738
63354SOL    HW291960  13.907  13.354   7.837
63355SOL     OW91961   4.284  14.595   8.391
63355SOL    HW191962   4.255  14.652   8.319
63355SOL    HW291963   4.203  14.564   8.431
63356SOL     OW91964  13.506   5.501  10.037
63356SOL    HW191965  13.581   5.458   9.997
63356SOL    HW291966  13.517   5.487  10.131
63357SOL     OW91967   8.315   7.452   3.573
63357SOL    HW191968   8.289   7.384   3.635
63357SOL    HW291969   8.243   7.516   3.576
63358SOL     OW91970   5.478  13.930   8.826
63358SOL    HW191971   5.441  14.015   8.849
63358SOL    HW291972   5.557  13.923   8.879
63359SOL     OW91973   0.438  10.283   1.491
63359SOL    HW191974   0.479  10.260   1.575
63359SOL    HW291975   0.345  10.293   1.512
63360SOL     OW91976  10.958   4.686   8.664
63360SOL    HW191977  10.957   4.703   8.569
63360SOL    HW291978  11.043   4.716   8.693
63361SOL     OW91979   9.394   0.767   7.577
63361SOL    HW191980   9.347   0.696   7.534
63361SOL    HW291981   9.378   0.844   7.521
63362SOL     OW91982   0.887   2.871   7.166
63362SOL    HW191983   0.955   2.852   7.102
63362SOL    HW291984   0.807   2.835   7.128
63363SOL     OW91985   7.152  11.783   3.491
63363SOL    HW191986   7.082  11.831   3.447
63363SOL    HW291987   7.232  11.827   3.464
63364SOL     OW91988  13.780   6.372   0.695
63364SOL    HW191989  13.715   6.308   0.663
63364SOL    HW291990  13.808   6.419   0.617
63365SOL     OW91991   4.477  12.074  10.767
63365SOL    HW191992   4.517  11.987  10.758
63365SOL    HW291993   4.447  12.096  10.679
63366SOL     OW91994   3.895  11.909   7.089
63366SOL    HW191995   3.874  11.873   7.002
63366SOL    HW291996   3.811  11.908   7.136
63367SOL     OW91997   9.206  14.146   9.096
63367SOL    HW191998   9.120  14.142   9.055
63367SOL    HW291999   9.245  14.061   9.079
63368SOL     OW92000   4.388  11.523   8.873
63368SOL    HW192001   4.406  11.513   8.779
63368SOL    HW292002   4.332  11.601   8.878
63369SOL     OW92003  13.947   0.743   8.047
63369SOL    HW192004  13.898   0.660   8.042
63369SOL    HW292005  13.880   0.811   8.039
63370SOL     OW92006   9.970   0.274  14.624
63370SOL    HW192007   9.880   0.296  14.646
63370SOL    HW292008  10.021   0.349  14.653
63371SOL     OW92009   0.795   9.274   0.011
63371SOL    HW192010   0.724   9.318  14.844
63371SOL    HW292011   0.854   9.244  14.821
63372SOL     OW92012   0.467   2.014  13.339
63372SOL    HW192013   0.484   2.106  13.321
63372SOL    HW292014   0.531   1.991  13.406
63373SOL     OW92015  10.974  12.072  11.684
63373SOL    HW192016  10.890  12.027  11.678
63373SOL    HW292017  10.954  12.163  11.660
63374SOL     OW92018   8.935   2.105  11.118
63374SOL    HW192019   8.942   2.101  11.214
63374SOL    HW292020   8.910   2.196  11.100
63375SOL     OW92021   4.535  10.663  12.385
63375SOL    HW192022   4.503  10.599  12.449
63375SOL    HW292023   4.557  10.740  12.438
63376SOL     OW92024  10.136   9.779   7.527
63376SOL    HW192025  10.111   9.722   7.455
63376SOL    HW292026  10.231   9.771   7.533
63377SOL     OW92027  12.991  14.402   5.672
63377SOL    HW192028  13.022  14.339   5.608
63377SOL    HW292029  12.897  14.385   5.678
63378SOL     OW92030  11.201   2.748  12.488
63378SOL    HW192031  11.220   2.813  12.420
63378SOL    HW292032  11.140   2.792  12.547
63379SOL     OW92033   0.602  11.146   7.987
63379SOL    HW192034   0.659  11.080   8.027
63379SOL    HW292035   0.662  11.206   7.943
63380SOL     OW92036   0.351  12.127   9.931
63380SOL    HW192037   0.345  12.212   9.887
63380SOL    HW292038   0.272  12.081   9.902
63381SOL     OW92039   2.349   7.200   7.002
63381SOL    HW192040   2.325   7.120   6.956
63381SOL    HW292041   2.443   7.208   6.990
63382SOL     OW92042  14.248   4.404   8.550
63382SOL    HW192043  14.229   4.461   8.476
63382SOL    HW292044  14.317   4.345   8.518
63383SOL     OW92045   1.566   4.117   1.074
63383SOL    HW192046   1.585   4.026   1.095
63383SOL    HW292047   1.624   4.138   1.000
63384SOL     OW92048  12.962   7.493   3.321
63384SOL    HW192049  12.963   7.588   3.312
63384SOL    HW292050  13.033   7.462   3.264
63385SOL     OW92051   0.939  13.801   5.514
63385SOL    HW192052   0.981  13.887   5.508
63385SOL    HW292053   0.988  13.747   5.452
63386SOL     OW92054  14.527  10.095   1.918
63386SOL    HW192055  14.580  10.172   1.897
63386SOL    HW292056  14.495  10.111   2.007
63387SOL     OW92057  13.037   5.196  14.383
63387SOL    HW192058  12.988   5.131  14.333
63387SOL    HW292059  13.107   5.224  14.324
63388SOL     OW92060   2.723   0.534  10.106
63388SOL    HW192061   2.792   0.504  10.166
63388SOL    HW292062   2.758   0.615  10.069
63389SOL     OW92063  10.017   0.129   3.669
63389SOL    HW192064  10.017   0.222   3.648
63389SOL    HW292065  10.094   0.117   3.724
63390SOL     OW92066   4.194   6.136   7.855
63390SOL    HW192067   4.283   6.136   7.890
63390SOL    HW292068   4.138   6.133   7.933
63391SOL     OW92069  11.777  13.826   2.236
63391SOL    HW192070  11.825  13.743   2.234
63391SOL    HW292071  11.829  13.882   2.293
63392SOL     OW92072  14.529   0.345   4.391
63392SOL    HW192073  14.473   0.363   4.467
63392SOL    HW292074  14.475   0.365   4.315
63393SOL     OW92075   0.180  10.089  11.797
63393SOL    HW192076   0.126  10.141  11.737
63393SOL    HW292077   0.230  10.031  11.739
63394SOL     OW92078   9.027   7.866   6.038
63394SOL    HW192079   8.932   7.873   6.049
63394SOL    HW292080   9.044   7.772   6.032
63395SOL     OW92081   5.349   1.445   1.404
63395SOL    HW192082   5.377   1.537   1.400
63395SOL    HW292083   5.257   1.447   1.377
63396SOL     OW92084  12.131   3.801   0.556
63396SOL    HW192085  12.157   3.801   0.648
63396SOL    HW292086  12.098   3.713   0.539
63397SOL     OW92087   3.563  12.640   0.207
63397SOL    HW192088   3.630  12.594   0.258
63397SOL    HW292089   3.568  12.602   0.120
63398SOL     OW92090  12.385   6.101  14.053
63398SOL    HW192091  12.375   6.081  13.960
63398SOL    HW292092  12.442   6.032  14.087
63399SOL     OW92093   9.432   2.714   4.832
63399SOL    HW192094   9.398   2.804   4.835
63399SOL    HW292095   9.521   2.721   4.868
63400SOL     OW92096  11.695   1.002  12.956
63400SOL    HW192097  11.675   0.923  13.007
63400SOL    HW292098  11.664   0.982  12.868
63401SOL     OW92099  12.936  12.346  11.638
63401SOL    HW192100  12.892  12.397  11.705
63401SOL    HW292101  13.029  12.349  11.662
63402SOL     OW92102   9.487   6.851   5.263
63402SOL    HW192103   9.547   6.924   5.246
63402SOL    HW292104   9.405   6.894   5.288
63403SOL     OW92105   1.720   1.431  12.731
63403SOL    HW192106   1.661   1.356  12.717
63403SOL    HW292107   1.795   1.413  12.673
63404SOL     OW92108  10.390   0.190  10.867
63404SOL    HW192109  10.465   0.229  10.822
63404SOL    HW292110  10.339   0.264  10.899
63405SOL     OW92111  10.527  12.497  12.287
63405SOL    HW192112  10.483  12.414  12.270
63405SOL    HW292113  10.518  12.510  12.382
63406SOL     OW92114   2.873  14.310   8.229
63406SOL    HW192115   2.938  14.255   8.187
63406SOL    HW292116   2.790  14.285   8.188
63407SOL     OW92117   9.976  14.245  10.332
63407SOL    HW192118  10.028  14.165  10.340
63407SOL    HW292119  10.018  14.293  10.261
63408SOL     OW92120   2.592  11.826   7.594
63408SOL    HW192121   2.551  11.900   7.639
63408SOL    HW292122   2.521  11.763   7.581
63409SOL     OW92123   4.930  11.351   4.350
63409SOL    HW192124   4.903  11.414   4.283
63409SOL    HW292125   4.923  11.399   4.432
63410SOL     OW92126   0.459   8.752   9.266
63410SOL    HW192127   0.521   8.794   9.325
63410SOL    HW292128   0.390   8.718   9.323
63411SOL     OW92129   1.413  14.181   4.562
63411SOL    HW192130   1.441  14.116   4.627
63411SOL    HW292131   1.372  14.129   4.493
63412SOL     OW92132   8.460  13.696   8.635
63412SOL    HW192133   8.534  13.708   8.576
63412SOL    HW292134   8.397  13.763   8.608
63413SOL     OW92135   3.739   2.721  14.824
63413SOL    HW192136   3.705   2.672   0.020
63413SOL    HW292137   3.832   2.698  14.822
63414SOL     OW92138  14.202   9.363   5.863
63414SOL    HW192139  14.184   9.316   5.781
63414SOL    HW292140  14.124   9.348   5.917
63415SOL     OW92141   7.468  12.820   3.425
63415SOL    HW192142   7.392  12.849   3.474
63415SOL    HW292143   7.474  12.881   3.351
63416SOL     OW92144  14.369   2.735   0.054
63416SOL    HW192145  14.439   2.762  14.875
63416SOL    HW292146  14.297   2.710  14.876
63417SOL     OW92147   0.175  12.667   4.752
63417SOL    HW192148   0.084  12.674   4.779
63417SOL    HW292149   0.175  12.691   4.659
63418SOL     OW92150   7.034   1.272   8.839
63418SOL    HW192151   6.963   1.207   8.835
63418SOL    HW292152   7.111   1.222   8.864
63419SOL     OW92153  10.920  11.124   2.996
63419SOL    HW192154  10.993  11.171   2.956
63419SOL    HW292155  10.843  11.150   2.945
63420SOL     OW92156   1.172   0.879   2.493
63420SOL    HW192157   1.246   0.927   2.455
63420SOL    HW292158   1.146   0.818   2.424
63421SOL     OW92159   9.649   5.121   4.633
63421SOL    HW192160   9.738   5.147   4.654
63421SOL    HW292161   9.607   5.200   4.599
63422SOL     OW92162   2.591   5.731  14.872
63422SOL    HW192163   2.569   5.689  14.789
63422SOL    HW292164   2.559   5.670   0.059
63423SOL     OW92165   4.332  14.355  12.182
63423SOL    HW192166   4.342  14.444  12.148
63423SOL    HW292167   4.325  14.300  12.103
63424SOL     OW92168   5.256   8.029  10.920
63424SOL    HW192169   5.167   8.034  10.955
63424SOL    HW292170   5.244   8.027  10.825
63425SOL     OW92171   8.953   2.174   4.024
63425SOL    HW192172   8.912   2.092   3.996
63425SOL    HW292173   8.947   2.231   3.948
63426SOL     OW92174   1.896   7.144   3.994
63426SOL    HW192175   1.864   7.083   4.061
63426SOL    HW292176   1.936   7.088   3.928
63427SOL     OW92177   3.077   4.107   6.763
63427SOL    HW192178   3.171   4.090   6.756
63427SOL    HW292179   3.061   4.179   6.703
63428SOL     OW92180  10.734   5.924   8.155
63428SOL    HW192181  10.799   5.971   8.104
63428SOL    HW292182  10.740   5.833   8.124
63429SOL     OW92183  13.167   0.162   2.351
63429SOL    HW192184  13.121   0.232   2.305
63429SOL    HW292185  13.260   0.185   2.341
63430SOL     OW92186   2.006   6.629   8.860
63430SOL    HW192187   1.927   6.575   8.851
63430SOL    HW292188   2.069   6.589   8.800
63431SOL     OW92189   8.707   3.818   3.477
63431SOL    HW192190   8.726   3.724   3.471
63431SOL    HW292191   8.782   3.860   3.435
63432SOL     OW92192   6.440   8.291   0.509
63432SOL    HW192193   6.461   8.327   0.595
63432SOL    HW292194   6.451   8.364   0.449
63433SOL     OW92195   6.492   8.002   3.574
63433SOL    HW192196   6.573   7.976   3.618
63433SOL    HW292197   6.437   7.923   3.576
63434SOL     OW92198   9.945  14.840   0.665
63434SOL    HW192199   9.999   0.040   0.662
63434SOL    HW292200  10.003  14.773   0.700
63435SOL     OW92201   3.431   3.690  10.554
63435SOL    HW192202   3.414   3.644  10.472
63435SOL    HW292203   3.395   3.777  10.541
63436SOL     OW92204  10.344  10.959   6.722
63436SOL    HW192205  10.315  11.001   6.803
63436SOL    HW292206  10.439  10.950   6.732
63437SOL     OW92207  11.010  10.922   4.324
63437SOL    HW192208  11.045  11.005   4.357
63437SOL    HW292209  11.031  10.922   4.231
63438SOL     OW92210   8.860   6.927  11.580
63438SOL    HW192211   8.895   6.842  11.552
63438SOL    HW292212   8.765   6.916  11.575
63439SOL     OW92213  13.719  10.265   0.987
63439SOL    HW192214  13.713  10.186   1.040
63439SOL    HW292215  13.754  10.235   0.903
63440SOL     OW92216   9.877   0.216   6.414
63440SOL    HW192217   9.799   0.162   6.428
63440SOL    HW292218   9.848   0.305   6.435
63441SOL     OW92219  12.327   5.632  14.229
63441SOL    HW192220  12.289   5.620  14.316
63441SOL    HW292221  12.277   5.704  14.191
63442SOL     OW92222  14.512   0.996   1.559
63442SOL    HW192223  14.536   1.023   1.647
63442SOL    HW292224  14.419   1.020   1.551
63443SOL     OW92225  11.115  10.482   2.826
63443SOL    HW192226  11.074  10.448   2.906
63443SOL    HW292227  11.059  10.452   2.755
63444SOL     OW92228   1.581   7.020   7.139
63444SOL    HW192229   1.619   6.991   7.056
63444SOL    HW292230   1.505   7.073   7.114
63445SOL     OW92231  10.312  11.296   5.028
63445SOL    HW192232  10.336  11.272   5.117
63445SOL    HW292233  10.332  11.390   5.023
63446SOL     OW92234   0.823  13.362   8.383
63446SOL    HW192235   0.823  13.267   8.386
63446SOL    HW292236   0.732  13.387   8.396
63447SOL     OW92237   1.266  11.015   9.420
63447SOL    HW192238   1.203  10.990   9.353
63447SOL    HW292239   1.220  11.003   9.503
63448SOL     OW92240   0.747   1.254  12.188
63448SOL    HW192241   0.660   1.216  12.186
63448SOL    HW292242   0.765   1.278  12.097
63449SOL     OW92243  14.743  10.248   1.018
63449SOL    HW192244  14.814  10.185   1.002
63449SOL    HW292245  14.668  10.210   0.972
63450SOL     OW92246   1.828   8.366   0.550
63450SOL    HW192247   1.765   8.304   0.513
63450SOL    HW292248   1.886   8.388   0.478
63451SOL     OW92249  12.215   6.546   3.065
63451SOL    HW192250  12.273   6.497   3.006
63451SOL    HW292251  12.172   6.478   3.117
63452SOL     OW92252   8.321  10.147   0.430
63452SOL    HW192253   8.351  10.061   0.460
63452SOL    HW292254   8.235  10.131   0.392
63453SOL     OW92255  14.746  12.804  10.316
63453SOL    HW192256  14.732  12.716  10.281
63453SOL    HW292257  14.721  12.796  10.408
63454SOL     OW92258  10.951   3.779   2.917
63454SOL    HW192259  10.967   3.696   2.873
63454SOL    HW292260  10.980   3.846   2.856
63455SOL     OW92261  13.108  12.382  12.104
63455SOL    HW192262  13.015  12.369  12.122
63455SOL    HW292263  13.139  12.434  12.178
63456SOL     OW92264  10.479   0.796  12.307
63456SOL    HW192265  10.447   0.740  12.378
63456SOL    HW292266  10.553   0.843  12.346
63457SOL     OW92267   8.025   0.216  12.223
63457SOL    HW192268   8.019   0.169  12.139
63457SOL    HW292269   8.029   0.147  12.289
63458SOL     OW92270   1.212  10.865   1.737
63458SOL    HW192271   1.127  10.870   1.693
63458SOL    HW292272   1.229  10.771   1.744
63459SOL     OW92273  11.780   1.692   1.051
63459SOL    HW192274  11.821   1.623   1.103
63459SOL    HW292275  11.722   1.646   0.991
63460SOL     OW92276   3.575   2.209   9.624
63460SOL    HW192277   3.493   2.256   9.638
63460SOL    HW292278   3.581   2.199   9.529
63461SOL     OW92279  12.395   9.851   2.027
63461SOL    HW192280  12.465   9.856   1.961
63461SOL    HW292281  12.323   9.900   1.989
63462SOL     OW92282   8.141   3.904  11.283
63462SOL    HW192283   8.058   3.945  11.311
63462SOL    HW292284   8.161   3.842  11.352
63463SOL     OW92285  13.956   1.655   0.535
63463SOL    HW192286  13.980   1.718   0.604
63463SOL    HW292287  14.009   1.578   0.555
63464SOL     OW92288  11.241   3.424   5.092
63464SOL    HW192289  11.290   3.371   5.155
63464SOL    HW292290  11.192   3.360   5.039
63465SOL     OW92291   2.170   2.597  13.113
63465SOL    HW192292   2.135   2.686  13.120
63465SOL    HW292293   2.124   2.547  13.180
63466SOL     OW92294   3.810   7.825   2.180
63466SOL    HW192295   3.834   7.809   2.089
63466SOL    HW292296   3.761   7.907   2.178
63467SOL     OW92297   6.995  13.476  14.219
63467SOL    HW192298   6.951  13.401  14.181
63467SOL    HW292299   6.953  13.488  14.304
63468SOL     OW92300   2.585   2.190   5.217
63468SOL    HW192301   2.665   2.193   5.269
63468SOL    HW292302   2.523   2.243   5.267
63469SOL     OW92303  12.950  10.262   6.330
63469SOL    HW192304  12.988  10.223   6.251
63469SOL    HW292305  12.859  10.233   6.329
63470SOL     OW92306   5.592   8.536   5.104
63470SOL    HW192307   5.575   8.614   5.051
63470SOL    HW292308   5.515   8.527   5.161
63471SOL     OW92309   8.430   2.596  12.471
63471SOL    HW192310   8.504   2.614  12.413
63471SOL    HW292311   8.374   2.537  12.420
63472SOL     OW92312   8.161   0.636   5.454
63472SOL    HW192313   8.180   0.710   5.511
63472SOL    HW292314   8.242   0.584   5.454
63473SOL     OW92315   4.779   1.758   0.612
63473SOL    HW192316   4.722   1.831   0.586
63473SOL    HW292317   4.837   1.745   0.538
63474SOL     OW92318  14.146   9.995   9.515
63474SOL    HW192319  14.065   9.945   9.501
63474SOL    HW292320  14.118  10.073   9.563
63475SOL     OW92321   7.802  10.678   6.517
63475SOL    HW192322   7.812  10.750   6.578
63475SOL    HW292323   7.807  10.599   6.572
63476SOL     OW92324  13.123   4.522   7.706
63476SOL    HW192325  13.035   4.496   7.679
63476SOL    HW292326  13.130   4.491   7.797
63477SOL     OW92327   8.459  10.209   9.150
63477SOL    HW192328   8.368  10.213   9.180
63477SOL    HW292329   8.456  10.151   9.073
63478SOL     OW92330   9.026  10.918   2.825
63478SOL    HW192331   8.966  10.977   2.780
63478SOL    HW292332   9.075  10.875   2.755
63479SOL     OW92333   7.491   5.830  10.640
63479SOL    HW192334   7.450   5.794  10.562
63479SOL    HW292335   7.456   5.919  10.647
63480SOL     OW92336  10.109   0.239   0.614
63480SOL    HW192337  10.197   0.219   0.583
63480SOL    HW292338  10.058   0.256   0.535
63481SOL     OW92339   5.064   8.082  11.460
63481SOL    HW192340   5.081   8.021  11.388
63481SOL    HW292341   5.138   8.143  11.458
63482SOL     OW92342   6.269   4.117  11.986
63482SOL    HW192343   6.286   4.191  12.045
63482SOL    HW292344   6.324   4.134  11.909
63483SOL     OW92345   8.163  10.239   4.145
63483SOL    HW192346   8.190  10.316   4.194
63483SOL    HW292347   8.074  10.222   4.175
63484SOL     OW92348  14.527   7.906   4.304
63484SOL    HW192349  14.462   7.874   4.366
63484SOL    HW292350  14.487   7.983   4.264
63485SOL     OW92351   3.188  10.686   0.663
63485SOL    HW192352   3.268  10.634   0.660
63485SOL    HW292353   3.177  10.705   0.756
63486SOL     OW92354   4.929  11.192   2.080
63486SOL    HW192355   4.845  11.229   2.053
63486SOL    HW292356   4.995  11.246   2.036
63487SOL     OW92357   4.177   7.395   1.761
63487SOL    HW192358   4.118   7.427   1.692
63487SOL    HW292359   4.139   7.311   1.787
63488SOL     OW92360   4.978  10.046   7.557
63488SOL    HW192361   4.925  10.112   7.512
63488SOL    HW292362   5.049  10.096   7.598
63489SOL     OW92363   4.993   8.740  13.343
63489SOL    HW192364   4.942   8.795  13.402
63489SOL    HW292365   5.073   8.720  13.393
63490SOL     OW92366   2.647  10.464   1.599
63490SOL    HW192367   2.689  10.425   1.523
63490SOL    HW292368   2.690  10.422   1.674
63491SOL     OW92369   1.227   9.770   0.629
63491SOL    HW192370   1.250   9.862   0.633
63491SOL    HW292371   1.195   9.757   0.539
63492SOL     OW92372   7.957  14.100   9.936
63492SOL    HW192373   7.895  14.131   9.870
63492SOL    HW292374   7.902  14.074  10.010
63493SOL     OW92375  12.833  13.331   3.827
63493SOL    HW192376  12.878  13.263   3.877
63493SOL    HW292377  12.755  13.350   3.878
63494SOL     OW92378   0.129   3.578   8.664
63494SOL    HW192379   0.111   3.607   8.754
63494SOL    HW292380   0.073   3.502   8.652
63495SOL     OW92381  12.720   8.163   8.429
63495SOL    HW192382  12.748   8.250   8.459
63495SOL    HW292383  12.628   8.175   8.406
63496SOL     OW92384   1.894   3.671  10.356
63496SOL    HW192385   1.805   3.693  10.328
63496SOL    HW292386   1.950   3.721  10.298
63497SOL     OW92387  11.047  12.978   4.570
63497SOL    HW192388  11.045  12.897   4.621
63497SOL    HW292389  11.116  13.030   4.610
63498SOL     OW92390   1.107   7.443   9.818
63498SOL    HW192391   1.199   7.440   9.791
63498SOL    HW292392   1.109   7.477   9.908
63499SOL     OW92393   9.908   1.147   8.597
63499SOL    HW192394   9.988   1.102   8.623
63499SOL    HW292395   9.938   1.229   8.557
63500SOL     OW92396  10.666   1.018   4.886
63500SOL    HW192397  10.678   0.934   4.843
63500SOL    HW292398  10.740   1.024   4.948
63501SOL     OW92399   1.655   7.624  12.796
63501SOL    HW192400   1.565   7.651  12.810
63501SOL    HW292401   1.657   7.594  12.705
63502SOL     OW92402   6.593   3.412   9.005
63502SOL    HW192403   6.499   3.423   8.991
63502SOL    HW292404   6.600   3.330   9.053
63503SOL     OW92405   7.561   3.624  14.622
63503SOL    HW192406   7.648   3.619  14.663
63503SOL    HW292407   7.571   3.575  14.540
63504SOL     OW92408   5.189  11.395  13.853
63504SOL    HW192409   5.109  11.342  13.863
63504SOL    HW292410   5.157  11.482  13.831
63505SOL     OW92411   0.427   2.109  14.147
63505SOL    HW192412   0.434   2.128  14.053
63505SOL    HW292413   0.400   2.018  14.152
63506SOL     OW92414   1.484  13.066   1.990
63506SOL    HW192415   1.473  13.160   1.977
63506SOL    HW292416   1.455  13.050   2.079
63507SOL     OW92417   6.527   4.682   0.744
63507SOL    HW192418   6.576   4.710   0.667
63507SOL    HW292419   6.549   4.747   0.811
63508SOL     OW92420  11.046   6.364   8.138
63508SOL    HW192421  11.055   6.388   8.046
63508SOL    HW292422  11.126   6.317   8.159
63509SOL     OW92423  11.473  12.907   4.273
63509SOL    HW192424  11.398  12.955   4.236
63509SOL    HW292425  11.450  12.814   4.262
63510SOL     OW92426   8.225   9.908   6.621
63510SOL    HW192427   8.227   9.886   6.714
63510SOL    HW292428   8.308   9.952   6.604
63511SOL     OW92429  13.370   6.101   3.785
63511SOL    HW192430  13.460   6.106   3.816
63511SOL    HW292431  13.331   6.031   3.838
63512SOL     OW92432  14.306   1.089  10.899
63512SOL    HW192433  14.389   1.129  10.923
63512SOL    HW292434  14.323   1.044  10.816
63513SOL     OW92435  13.608   4.692   6.683
63513SOL    HW192436  13.601   4.767   6.742
63513SOL    HW292437  13.518   4.662   6.673
63514SOL     OW92438   2.810   5.209  11.412
63514SOL    HW192439   2.831   5.119  11.388
63514SOL    HW292440   2.807   5.256  11.328
63515SOL     OW92441   0.430  11.338   0.503
63515SOL    HW192442   0.368  11.278   0.547
63515SOL    HW292443   0.399  11.342   0.413
63516SOL     OW92444   6.936   1.949  11.506
63516SOL    HW192445   6.905   1.896  11.580
63516SOL    HW292446   6.992   2.016  11.546
63517SOL     OW92447   1.699   0.682   6.092
63517SOL    HW192448   1.677   0.774   6.102
63517SOL    HW292449   1.636   0.635   6.146
63518SOL     OW92450   8.344  14.390   6.609
63518SOL    HW192451   8.290  14.467   6.590
63518SOL    HW292452   8.434  14.419   6.594
63519SOL     OW92453   5.645   1.169   0.796
63519SOL    HW192454   5.635   1.136   0.707
63519SOL    HW292455   5.736   1.196   0.802
63520SOL     OW92456   9.084   8.456   1.525
63520SOL    HW192457   9.149   8.486   1.462
63520SOL    HW292458   9.105   8.364   1.539
63521SOL     OW92459   8.256   6.146   2.562
63521SOL    HW192460   8.201   6.096   2.502
63521SOL    HW292461   8.264   6.089   2.639
63522SOL     OW92462   0.694  11.512   4.249
63522SOL    HW192463   0.627  11.581   4.254
63522SOL    HW292464   0.700  11.479   4.339
63523SOL     OW92465   1.655   6.992   2.346
63523SOL    HW192466   1.625   6.949   2.426
63523SOL    HW292467   1.580   6.985   2.286
63524SOL     OW92468   6.922   5.138   2.090
63524SOL    HW192469   6.994   5.079   2.113
63524SOL    HW292470   6.952   5.225   2.116
63525SOL     OW92471   7.307   2.839  13.240
63525SOL    HW192472   7.312   2.744  13.255
63525SOL    HW292473   7.237   2.869  13.297
63526SOL     OW92474   9.601   8.595   8.028
63526SOL    HW192475   9.557   8.612   7.945
63526SOL    HW292476   9.531   8.568   8.087
63527SOL     OW92477   4.714   0.003   3.795
63527SOL    HW192478   4.672  14.801   3.769
63527SOL    HW292479   4.671   0.070   3.741
63528SOL     OW92480   8.012   4.086   6.856
63528SOL    HW192481   8.079   4.112   6.793
63528SOL    HW292482   8.040   4.000   6.888
63529SOL     OW92483   7.584  13.053   5.907
63529SOL    HW192484   7.514  13.014   5.854
63529SOL    HW292485   7.648  13.084   5.844
63530SOL     OW92486   3.851   8.692   7.666
63530SOL    HW192487   3.850   8.704   7.571
63530SOL    HW292488   3.799   8.613   7.680
63531SOL     OW92489  10.284   2.572   8.225
63531SOL    HW192490  10.290   2.668   8.224
63531SOL    HW292491  10.195   2.553   8.193
63532SOL     OW92492  13.751  10.000   5.117
63532SOL    HW192493  13.773   9.935   5.183
63532SOL    HW292494  13.731   9.948   5.039
63533SOL     OW92495   3.315   9.667  11.472
63533SOL    HW192496   3.373   9.675  11.547
63533SOL    HW292497   3.266   9.586  11.489
63534SOL     OW92498  10.553  14.619   5.116
63534SOL    HW192499  10.625  14.557   5.116
63534SOL    HW292500  10.541  14.642   5.024
63535SOL     OW92501   0.892   0.389  11.733
63535SOL    HW192502   0.857   0.330  11.666
63535SOL    HW292503   0.884   0.476  11.693
63536SOL     OW92504   9.991   8.891   2.571
63536SOL    HW192505  10.059   8.861   2.510
63536SOL    HW292506   9.919   8.920   2.514
63537SOL     OW92507  10.237   9.840  12.565
63537SOL    HW192508  10.325   9.865  12.593
63537SOL    HW292509  10.182   9.913  12.592
63538SOL     OW92510   5.405   3.871   5.571
63538SOL    HW192511   5.325   3.822   5.552
63538SOL    HW292512   5.384   3.962   5.550
63539SOL     OW92513   5.947   5.733   1.889
63539SOL    HW192514   5.867   5.719   1.939
63539SOL    HW292515   5.935   5.819   1.847
63540SOL     OW92516  10.495  13.700  11.717
63540SOL    HW192517  10.471  13.652  11.637
63540SOL    HW292518  10.590  13.708  11.713
63541SOL     OW92519   4.839  11.446   9.193
63541SOL    HW192520   4.911  11.400   9.150
63541SOL    HW292521   4.771  11.454   9.126
63542SOL     OW92522   2.645   3.412   0.546
63542SOL    HW192523   2.689   3.338   0.504
63542SOL    HW292524   2.617   3.379   0.631
63543SOL     OW92525   3.128  11.320   5.504
63543SOL    HW192526   3.069  11.371   5.559
63543SOL    HW292527   3.120  11.230   5.536
63544SOL     OW92528   7.295   6.058  12.740
63544SOL    HW192529   7.273   6.151  12.750
63544SOL    HW292530   7.270   6.037  12.650
63545SOL     OW92531  11.122  12.642   6.423
63545SOL    HW192532  11.168  12.624   6.505
63545SOL    HW292533  11.176  12.602   6.356
63546SOL     OW92534   6.572   0.471  12.880
63546SOL    HW192535   6.665   0.491  12.868
63546SOL    HW292536   6.536   0.470  12.791
63547SOL     OW92537   1.220  12.458  13.492
63547SOL    HW192538   1.153  12.411  13.542
63547SOL    HW292539   1.204  12.433  13.401
63548SOL     OW92540   4.014   4.409   2.362
63548SOL    HW192541   3.998   4.345   2.292
63548SOL    HW292542   4.102   4.389   2.393
63549SOL     OW92543   1.673  12.199   9.614
63549SOL    HW192544   1.711  12.279   9.652
63549SOL    HW292545   1.715  12.128   9.662
63550SOL     OW92546  10.105   1.460  14.649
63550SOL    HW192547  10.185   1.420  14.616
63550SOL    HW292548  10.082   1.408  14.726
63551SOL     OW92549  14.864  14.111  14.648
63551SOL    HW192550   0.059  14.151  14.691
63551SOL    HW292551  14.820  14.183  14.602
63552SOL     OW92552   2.778   2.912  14.127
63552SOL    HW192553   2.788   2.902  14.033
63552SOL    HW292554   2.851   2.861  14.164
63553SOL     OW92555   3.436   8.005  11.627
63553SOL    HW192556   3.375   8.053  11.571
63553SOL    HW292557   3.448   8.061  11.703
63554SOL     OW92558   2.396   5.101  10.787
63554SOL    HW192559   2.418   5.018  10.828
63554SOL    HW292560   2.316   5.083  10.737
63555SOL     OW92561   1.890   8.581   4.221
63555SOL    HW192562   1.853   8.654   4.173
63555SOL    HW292563   1.985   8.587   4.205
63556SOL     OW92564   8.436  11.280   8.324
63556SOL    HW192565   8.412  11.194   8.290
63556SOL    HW292566   8.529  11.272   8.345
63557SOL     OW92567   9.192   0.821   2.195
63557SOL    HW192568   9.195   0.908   2.156
63557SOL    HW292569   9.169   0.836   2.287
63558SOL     OW92570   5.603  12.455   5.788
63558SOL    HW192571   5.634  12.538   5.824
63558SOL    HW292572   5.519  12.477   5.747
63559SOL     OW92573   9.899   9.165  12.152
63559SOL    HW192574   9.934   9.217  12.080
63559SOL    HW292575   9.856   9.091  12.110
63560SOL     OW92576   7.982  14.302  12.117
63560SOL    HW192577   8.073  14.279  12.132
63560SOL    HW292578   7.975  14.394  12.144
63561SOL     OW92579  12.574   2.395   6.521
63561SOL    HW192580  12.523   2.458   6.573
63561SOL    HW292581  12.555   2.419   6.430
63562SOL     OW92582   3.617   3.341   2.011
63562SOL    HW192583   3.638   3.396   1.935
63562SOL    HW292584   3.526   3.316   1.997
63563SOL     OW92585  12.977   0.244  12.681
63563SOL    HW192586  12.992   0.160  12.639
63563SOL    HW292587  13.063   0.284  12.687
63564SOL     OW92588   5.027  11.798   9.194
63564SOL    HW192589   5.030  11.804   9.289
63564SOL    HW292590   5.073  11.716   9.174
63565SOL     OW92591   5.242   8.307   5.418
63565SOL    HW192592   5.238   8.312   5.513
63565SOL    HW292593   5.167   8.358   5.388
63566SOL     OW92594   8.361   4.000   4.254
63566SOL    HW192595   8.445   3.991   4.299
63566SOL    HW292596   8.324   4.082   4.287
63567SOL     OW92597   6.674   8.207   9.328
63567SOL    HW192598   6.749   8.160   9.366
63567SOL    HW292599   6.646   8.267   9.397
63568SOL     OW92600   1.085   5.986   9.770
63568SOL    HW192601   1.136   5.906   9.765
63568SOL    HW292602   1.048   5.986   9.858
63569SOL     OW92603   1.008  13.296  14.849
63569SOL    HW192604   0.929  13.338   0.003
63569SOL    HW292605   1.079  13.352  14.879
63570SOL     OW92606   0.392   6.527   9.555
63570SOL    HW192607   0.441   6.450   9.526
63570SOL    HW292608   0.303   6.513   9.522
63571SOL     OW92609   7.948   1.721   3.527
63571SOL    HW192610   7.968   1.631   3.503
63571SOL    HW292611   7.895   1.714   3.606
63572SOL     OW92612   3.723  14.346   7.547
63572SOL    HW192613   3.805  14.395   7.538
63572SOL    HW292614   3.712  14.304   7.461
63573SOL     OW92615   5.622  12.892  10.067
63573SOL    HW192616   5.668  12.976  10.077
63573SOL    HW292617   5.692  12.829  10.049
63574SOL     OW92618   7.169  12.691  12.710
63574SOL    HW192619   7.264  12.686  12.702
63574SOL    HW292620   7.143  12.604  12.740
63575SOL     OW92621   5.296   6.852   7.652
63575SOL    HW192622   5.382   6.828   7.618
63575SOL    HW292623   5.238   6.781   7.623
63576SOL     OW92624   7.627   6.523   0.066
63576SOL    HW192625   7.698   6.587   0.062
63576SOL    HW292626   7.549   6.573   0.089
63577SOL     OW92627   0.597   8.738   8.134
63577SOL    HW192628   0.535   8.749   8.206
63577SOL    HW292629   0.669   8.797   8.154
63578SOL     OW92630   3.817   0.422  11.323
63578SOL    HW192631   3.873   0.392  11.395
63578SOL    HW292632   3.815   0.517  11.333
63579SOL     OW92633   2.017   6.530   6.034
63579SOL    HW192634   1.982   6.532   6.123
63579SOL    HW292635   2.000   6.440   6.004
63580SOL     OW92636   4.075  11.881   3.278
63580SOL    HW192637   4.152  11.876   3.221
63580SOL    HW292638   4.008  11.922   3.224
63581SOL     OW92639   1.553   0.666  11.698
63581SOL    HW192640   1.477   0.718  11.724
63581SOL    HW292641   1.604   0.657  11.778
63582SOL     OW92642   0.957   3.862   5.289
63582SOL    HW192643   0.949   3.957   5.294
63582SOL    HW292644   1.036   3.842   5.339
63583SOL     OW92645   3.911  10.539   6.920
63583SOL    HW192646   3.995  10.506   6.887
63583SOL    HW292647   3.919  10.534   7.015
63584SOL     OW92648  11.874   9.570   0.152
63584SOL    HW192649  11.876   9.594   0.059
63584SOL    HW292650  11.802   9.621   0.188
63585SOL     OW92651   6.645   8.851   2.521
63585SOL    HW192652   6.603   8.766   2.512
63585SOL    HW292653   6.610   8.886   2.603
63586SOL     OW92654  11.834   5.060   6.728
63586SOL    HW192655  11.894   5.099   6.664
63586SOL    HW292656  11.747   5.073   6.690
63587SOL     OW92657   3.148  10.495  11.893
63587SOL    HW192658   3.189  10.537  11.818
63587SOL    HW292659   3.221  10.460  11.944
63588SOL     OW92660  14.097  14.727  11.486
63588SOL    HW192661  14.101  14.640  11.447
63588SOL    HW292662  14.180  14.737  11.533
63589SOL     OW92663  12.276  11.111  12.800
63589SOL    HW192664  12.370  11.092  12.806
63589SOL    HW292665  12.251  11.133  12.890
63590SOL     OW92666   8.468  10.385   1.055
63590SOL    HW192667   8.500  10.296   1.066
63590SOL    HW292668   8.411  10.381   0.978
63591SOL     OW92669  10.472   3.452   8.740
63591SOL    HW192670  10.523   3.402   8.676
63591SOL    HW292671  10.523   3.445   8.821
63592SOL     OW92672  11.792  12.010  13.809
63592SOL    HW192673  11.710  11.973  13.777
63592SOL    HW292674  11.848  11.934  13.826
63593SOL     OW92675  14.534   7.938   1.917
63593SOL    HW192676  14.448   7.900   1.900
63593SOL    HW292677  14.532   8.024   1.875
63594SOL     OW92678  12.898   5.538   6.447
63594SOL    HW192679  12.889   5.477   6.374
63594SOL    HW292680  12.906   5.481   6.524
63595SOL     OW92681   7.198   1.791  11.246
63595SOL    HW192682   7.176   1.767  11.156
63595SOL    HW292683   7.278   1.743  11.266
63596SOL     OW92684   5.068  10.397  11.115
63596SOL    HW192685   5.112  10.398  11.200
63596SOL    HW292686   5.028  10.483  11.108
63597SOL     OW92687   2.714  13.494   8.931
63597SOL    HW192688   2.692  13.546   9.008
63597SOL    HW292689   2.804  13.464   8.948
63598SOL     OW92690   7.993  10.952   7.435
63598SOL    HW192691   7.940  10.885   7.391
63598SOL    HW292692   8.080  10.943   7.396
63599SOL     OW92693   3.644  12.805   9.422
63599SOL    HW192694   3.662  12.893   9.455
63599SOL    HW292695   3.640  12.816   9.327
63600SOL     OW92696   8.044   3.407   6.129
63600SOL    HW192697   8.097   3.464   6.073
63600SOL    HW292698   8.064   3.319   6.098
63601SOL     OW92699   2.747  11.525   7.600
63601SOL    HW192700   2.797  11.588   7.549
63601SOL    HW292701   2.766  11.440   7.559
63602SOL     OW92702   7.378   1.095   3.093
63602SOL    HW192703   7.431   1.124   3.019
63602SOL    HW292704   7.346   1.176   3.133
63603SOL     OW92705   6.653   1.212   4.363
63603SOL    HW192706   6.680   1.298   4.330
63603SOL    HW292707   6.640   1.160   4.284
63604SOL     OW92708   5.378   6.440   2.480
63604SOL    HW192709   5.300   6.451   2.425
63604SOL    HW292710   5.370   6.509   2.546
63605SOL     OW92711   1.598  14.744  14.682
63605SOL    HW192712   1.611  14.811  14.615
63605SOL    HW292713   1.559  14.671  14.635
63606SOL     OW92714   4.571   3.282  12.481
63606SOL    HW192715   4.534   3.315  12.563
63606SOL    HW292716   4.520   3.325  12.413
63607SOL     OW92717  12.256   1.614   4.442
63607SOL    HW192718  12.252   1.561   4.522
63607SOL    HW292719  12.187   1.679   4.453
63608SOL     OW92720  12.046  13.414  11.231
63608SOL    HW192721  12.022  13.322  11.235
63608SOL    HW292722  12.140  13.413  11.211
63609SOL     OW92723   7.833   9.636   1.681
63609SOL    HW192724   7.744   9.631   1.646
63609SOL    HW292725   7.885   9.676   1.611
63610SOL     OW92726  11.401   1.604  12.522
63610SOL    HW192727  11.311   1.586  12.496
63610SOL    HW292728  11.414   1.551  12.601
63611SOL     OW92729   7.336   4.101   9.148
63611SOL    HW192730   7.356   4.007   9.144
63611SOL    HW292731   7.264   4.113   9.086
63612SOL     OW92732  14.031  14.693   4.914
63612SOL    HW192733  13.948  14.699   4.867
63612SOL    HW292734  14.009  14.649   4.996
63613SOL     OW92735  12.167  11.165  13.059
63613SOL    HW192736  12.149  11.098  13.125
63613SOL    HW292737  12.082  11.206  13.043
63614SOL     OW92738   3.047  12.265   5.986
63614SOL    HW192739   3.006  12.191   6.031
63614SOL    HW292740   3.132  12.276   6.030
63615SOL     OW92741   4.857   2.747  10.275
63615SOL    HW192742   4.880   2.765  10.366
63615SOL    HW292743   4.892   2.659  10.258
63616SOL     OW92744  11.927   3.455  12.678
63616SOL    HW192745  12.011   3.476  12.719
63616SOL    HW292746  11.863   3.509  12.725
63617SOL     OW92747   8.324   8.875   1.072
63617SOL    HW192748   8.351   8.820   0.998
63617SOL    HW292749   8.395   8.865   1.136
63618SOL     OW92750   7.685   5.404   2.296
63618SOL    HW192751   7.752   5.364   2.241
63618SOL    HW292752   7.704   5.498   2.294
63619SOL     OW92753   0.359  13.162   4.054
63619SOL    HW192754   0.373  13.157   3.960
63619SOL    HW292755   0.438  13.123   4.092
63620SOL     OW92756   3.143  12.642  14.809
63620SOL    HW192757   3.200  12.605  14.877
63620SOL    HW292758   3.179  12.729  14.794
63621SOL     OW92759  10.950   2.142   9.062
63621SOL    HW192760  10.893   2.177   9.130
63621SOL    HW292761  11.008   2.081   9.108
63622SOL     OW92762   5.938  10.262   4.139
63622SOL    HW192763   5.854  10.247   4.182
63622SOL    HW292764   5.956  10.181   4.091
63623SOL     OW92765   3.133  10.900   2.109
63623SOL    HW192766   3.212  10.947   2.083
63623SOL    HW292767   3.112  10.845   2.033
63624SOL     OW92768   2.326   7.780   5.219
63624SOL    HW192769   2.397   7.787   5.283
63624SOL    HW292770   2.257   7.836   5.256
63625SOL     OW92771  12.995  14.020   6.863
63625SOL    HW192772  12.922  13.969   6.899
63625SOL    HW292773  12.996  14.100   6.915
63626SOL     OW92774   9.350   2.014   4.473
63626SOL    HW192775   9.360   2.062   4.555
63626SOL    HW292776   9.414   1.943   4.479
63627SOL     OW92777   7.505   6.690   9.100
63627SOL    HW192778   7.590   6.652   9.078
63627SOL    HW292779   7.491   6.757   9.033
63628SOL     OW92780   0.080  12.180   9.225
63628SOL    HW192781   0.035  12.250   9.273
63628SOL    HW292782   0.016  12.153   9.158
63629SOL     OW92783   0.767   9.172   3.620
63629SOL    HW192784   0.801   9.118   3.692
63629SOL    HW292785   0.726   9.109   3.560
63630SOL     OW92786  13.656   2.046   3.756
63630SOL    HW192787  13.678   2.107   3.685
63630SOL    HW292788  13.561   2.043   3.757
63631SOL     OW92789   4.772   2.711  12.881
63631SOL    HW192790   4.678   2.726  12.872
63631SOL    HW292791   4.811   2.753  12.805
63632SOL     OW92792   6.278   9.859  12.072
63632SOL    HW192793   6.277   9.952  12.096
63632SOL    HW292794   6.201   9.848  12.017
63633SOL     OW92795   1.379   9.335  13.437
63633SOL    HW192796   1.402   9.427  13.452
63633SOL    HW292797   1.388   9.294  13.524
63634SOL     OW92798   7.174   0.690   0.350
63634SOL    HW192799   7.133   0.715   0.432
63634SOL    HW292800   7.267   0.677   0.372
63635SOL     OW92801   5.883   9.981   1.133
63635SOL    HW192802   5.892  10.003   1.040
63635SOL    HW292803   5.817   9.912   1.136
63636SOL     OW92804   1.045  11.482  13.207
63636SOL    HW192805   1.062  11.536  13.129
63636SOL    HW292806   1.132  11.453  13.235
63637SOL     OW92807  10.186  14.068   3.013
63637SOL    HW192808  10.136  14.003   2.964
63637SOL    HW292809  10.212  14.023   3.093
63638SOL     OW92810   0.902   9.282  14.333
63638SOL    HW192811   0.933   9.193  14.316
63638SOL    HW292812   0.821   9.290  14.283
63639SOL     OW92813   7.998  12.331  12.048
63639SOL    HW192814   7.986  12.240  12.022
63639SOL    HW292815   7.995  12.380  11.966
63640SOL     OW92816   8.489   5.821  10.151
63640SOL    HW192817   8.491   5.811  10.056
63640SOL    HW292818   8.402   5.856  10.170
63641SOL     OW92819   3.995  11.843   0.927
63641SOL    HW192820   3.949  11.895   0.993
63641SOL    HW292821   4.024  11.906   0.862
63642SOL     OW92822  13.846   5.912  13.377
63642SOL    HW192823  13.873   5.821  13.363
63642SOL    HW292824  13.872   5.958  13.298
63643SOL     OW92825  12.454   5.508   1.550
63643SOL    HW192826  12.442   5.603   1.543
63643SOL    HW292827  12.481   5.480   1.463
63644SOL     OW92828  11.869   2.932  14.618
63644SOL    HW192829  11.799   2.965  14.562
63644SOL    HW292830  11.825   2.903  14.697
63645SOL     OW92831  14.435  11.165   9.328
63645SOL    HW192832  14.395  11.251   9.336
63645SOL    HW292833  14.413  11.136   9.240
63646SOL     OW92834   8.733   4.230   8.511
63646SOL    HW192835   8.666   4.263   8.571
63646SOL    HW292836   8.789   4.305   8.493
63647SOL     OW92837   4.894   7.620  10.626
63647SOL    HW192838   4.884   7.715  10.635
63647SOL    HW292839   4.883   7.586  10.715
63648SOL     OW92840   0.193  12.357  11.425
63648SOL    HW192841   0.235  12.429  11.473
63648SOL    HW292842   0.264  12.296  11.407
63649SOL     OW92843   4.575  13.400  10.115
63649SOL    HW192844   4.571  13.310  10.081
63649SOL    HW292845   4.526  13.452  10.052
63650SOL     OW92846   7.407   7.703   8.872
63650SOL    HW192847   7.364   7.618   8.871
63650SOL    HW292848   7.476   7.695   8.937
63651SOL     OW92849   1.883  11.278   3.707
63651SOL    HW192850   1.940  11.314   3.639
63651SOL    HW292851   1.817  11.345   3.720
63652SOL     OW92852  13.430   6.480   1.954
63652SOL    HW192853  13.507   6.425   1.971
63652SOL    HW292854  13.459   6.543   1.888
63653SOL     OW92855   1.961  10.720  11.121
63653SOL    HW192856   2.023  10.723  11.048
63653SOL    HW292857   1.938  10.812  11.136
63654SOL     OW92858  10.940   3.302  10.291
63654SOL    HW192859  10.949   3.375  10.353
63654SOL    HW292860  10.955   3.224  10.345
63655SOL     OW92861   6.887   7.887   6.730
63655SOL    HW192862   6.907   7.843   6.813
63655SOL    HW292863   6.969   7.886   6.682
63656SOL     OW92864   8.260  10.637  10.586
63656SOL    HW192865   8.181  10.691  10.577
63656SOL    HW292866   8.231  10.563  10.639
63657SOL     OW92867  11.746   2.867   7.756
63657SOL    HW192868  11.810   2.931   7.787
63657SOL    HW292869  11.798   2.798   7.716
63658SOL     OW92870   5.907  13.600   7.732
63658SOL    HW192871   5.838  13.576   7.793
63658SOL    HW292872   5.933  13.688   7.759
63659SOL     OW92873  11.294   5.388   5.573
63659SOL    HW192874  11.386   5.413   5.583
63659SOL    HW292875  11.276   5.401   5.480
63660SOL     OW92876  14.280   1.769  10.253
63660SOL    HW192877  14.186   1.765  10.269
63660SOL    HW292878  14.302   1.862  10.261
63661SOL     OW92879   9.374   3.814  12.206
63661SOL    HW192880   9.307   3.745  12.218
63661SOL    HW292881   9.327   3.895  12.225
63662SOL     OW92882  10.017   8.895   9.284
63662SOL    HW192883   9.982   8.823   9.231
63662SOL    HW292884  10.112   8.883   9.281
63663SOL     OW92885   7.155  10.332   9.857
63663SOL    HW192886   7.083  10.272   9.875
63663SOL    HW292887   7.159  10.337   9.761
63664SOL     OW92888  13.906   3.296   2.213
63664SOL    HW192889  13.977   3.234   2.200
63664SOL    HW292890  13.946   3.383   2.204
63665SOL     OW92891   2.627  13.289  13.446
63665SOL    HW192892   2.630  13.200  13.410
63665SOL    HW292893   2.677  13.341  13.383
63666SOL     OW92894   7.865   1.518   8.382
63666SOL    HW192895   7.854   1.611   8.400
63666SOL    HW292896   7.909   1.516   8.297
63667SOL     OW92897   8.861   5.882   3.128
63667SOL    HW192898   8.811   5.956   3.160
63667SOL    HW292899   8.822   5.806   3.171
63668SOL     OW92900   0.885  13.546  11.841
63668SOL    HW192901   0.887  13.452  11.859
63668SOL    HW292902   0.854  13.553  11.751
63669SOL     OW92903   6.803  10.340  12.785
63669SOL    HW192904   6.896  10.349  12.807
63669SOL    HW292905   6.776  10.427  12.755
63670SOL     OW92906   9.809  13.945   3.519
63670SOL    HW192907   9.875  13.895   3.471
63670SOL    HW292908   9.835  14.036   3.509
63671SOL     OW92909  14.255   1.693   7.858
63671SOL    HW192910  14.294   1.620   7.811
63671SOL    HW292911  14.193   1.731   7.796
63672SOL     OW92912   3.858   7.883   0.375
63672SOL    HW192913   3.774   7.918   0.344
63672SOL    HW292914   3.879   7.935   0.453
63673SOL     OW92915   9.295   6.580  12.334
63673SOL    HW192916   9.280   6.621  12.249
63673SOL    HW292917   9.214   6.533  12.353
63674SOL     OW92918  14.649  10.511   3.570
63674SOL    HW192919  14.645  10.418   3.549
63674SOL    HW292920  14.598  10.553   3.500
63675SOL     OW92921   9.121   2.706   2.156
63675SOL    HW192922   9.124   2.799   2.178
63675SOL    HW292923   9.213   2.678   2.162
63676SOL     OW92924  11.387  11.324   4.469
63676SOL    HW192925  11.444  11.401   4.476
63676SOL    HW292926  11.437  11.254   4.512
63677SOL     OW92927   1.314  11.570  12.704
63677SOL    HW192928   1.374  11.506  12.741
63677SOL    HW292929   1.228  11.528  12.708
63678SOL     OW92930   7.056   8.040   7.535
63678SOL    HW192931   7.022   8.119   7.493
63678SOL    HW292932   7.151   8.051   7.534
63679SOL     OW92933   7.059  12.866   2.148
63679SOL    HW192934   7.082  12.785   2.102
63679SOL    HW292935   7.140  12.917   2.149
63680SOL     OW92936  12.207   8.374   7.068
63680SOL    HW192937  12.151   8.442   7.032
63680SOL    HW292938  12.287   8.420   7.095
63681SOL     OW92939  13.474  13.839  11.961
63681SOL    HW192940  13.566  13.862  11.954
63681SOL    HW292941  13.452  13.802  11.875
63682SOL     OW92942   7.804  11.490   9.675
63682SOL    HW192943   7.715  11.459   9.655
63682SOL    HW292944   7.860  11.415   9.654
63683SOL     OW92945   9.573  13.735   7.777
63683SOL    HW192946   9.516  13.681   7.832
63683SOL    HW292947   9.660  13.696   7.787
63684SOL     OW92948   0.233  11.413   1.449
63684SOL    HW192949   0.218  11.321   1.426
63684SOL    HW292950   0.250  11.412   1.543
63685SOL     OW92951   4.617   3.707  12.695
63685SOL    HW192952   4.560   3.644  12.652
63685SOL    HW292953   4.558   3.774  12.730
63686SOL     OW92954   5.124   0.003   5.452
63686SOL    HW192955   5.205  14.856   5.497
63686SOL    HW292956   5.096   0.081   5.499
63687SOL     OW92957   6.554  11.422  10.277
63687SOL    HW192958   6.548  11.440  10.183
63687SOL    HW292959   6.623  11.356  10.284
63688SOL     OW92960   4.715  12.178   0.917
63688SOL    HW192961   4.649  12.218   0.974
63688SOL    HW292962   4.794  12.231   0.932
63689SOL     OW92963   3.424  10.657   8.834
63689SOL    HW192964   3.373  10.583   8.867
63689SOL    HW292965   3.515  10.629   8.841
63690SOL     OW92966   0.193  12.593   5.467
63690SOL    HW192967   0.213  12.573   5.558
63690SOL    HW292968   0.247  12.668   5.446
63691SOL     OW92969   5.843  14.097   2.164
63691SOL    HW192970   5.932  14.106   2.130
63691SOL    HW292971   5.788  14.093   2.086
63692SOL     OW92972   9.260   4.147   3.453
63692SOL    HW192973   9.336   4.088   3.450
63692SOL    HW292974   9.271   4.197   3.534
63693SOL     OW92975  10.995   6.595   6.450
63693SOL    HW192976  10.902   6.572   6.453
63693SOL    HW292977  11.004   6.648   6.371
63694SOL     OW92978   1.487  13.573   5.276
63694SOL    HW192979   1.468  13.657   5.236
63694SOL    HW292980   1.496  13.512   5.203
63695SOL     OW92981   0.742   0.758  12.602
63695SOL    HW192982   0.812   0.749  12.537
63695SOL    HW292983   0.680   0.688  12.580
63696SOL     OW92984   7.437  13.926  13.712
63696SOL    HW192985   7.366  13.977  13.673
63696SOL    HW292986   7.505  13.991  13.731
63697SOL     OW92987   2.370   8.984   0.781
63697SOL    HW192988   2.431   8.909   0.787
63697SOL    HW292989   2.285   8.944   0.762
63698SOL     OW92990   2.669  11.968   3.645
63698SOL    HW192991   2.677  12.002   3.555
63698SOL    HW292992   2.614  12.033   3.690
63699SOL     OW92993  13.365  13.208   5.939
63699SOL    HW192994  13.275  13.215   5.969
63699SOL    HW292995  13.379  13.286   5.886
63700SOL     OW92996  10.416   2.252  11.556
63700SOL    HW192997  10.496   2.286  11.595
63700SOL    HW292998  10.351   2.258  11.626
63701SOL     OW92999  14.073   6.765   7.629
63701SOL    HW193000  14.056   6.782   7.537
63701SOL    HW293001  13.995   6.720   7.661
63702SOL     OW93002   9.438   4.541   6.359
63702SOL    HW193003   9.382   4.473   6.321
63702SOL    HW293004   9.452   4.603   6.287
63703SOL     OW93005  12.536   6.234  12.402
63703SOL    HW193006  12.492   6.168  12.349
63703SOL    HW293007  12.578   6.292  12.338
63704SOL     OW93008  14.450  11.794   1.380
63704SOL    HW193009  14.545  11.787   1.368
63704SOL    HW293010  14.420  11.704   1.386
63705SOL     OW93011   9.561   4.357   2.297
63705SOL    HW193012   9.636   4.400   2.337
63705SOL    HW293013   9.502   4.429   2.273
63706SOL     OW93014  13.364   0.245   7.636
63706SOL    HW193015  13.444   0.298   7.642
63706SOL    HW293016  13.343   0.244   7.542
63707SOL     OW93017   7.917   3.946  12.481
63707SOL    HW193018   7.891   4.009  12.414
63707SOL    HW293019   7.836   3.927  12.529
63708SOL     OW93020  11.644  11.186  10.697
63708SOL    HW193021  11.569  11.139  10.663
63708SOL    HW293022  11.608  11.240  10.768
63709SOL     OW93023  10.637  11.791  14.516
63709SOL    HW193024  10.557  11.744  14.492
63709SOL    HW293025  10.637  11.869  14.461
63710SOL     OW93026  10.461   2.819   1.670
63710SOL    HW193027  10.545   2.837   1.628
63710SOL    HW293028  10.474   2.847   1.761
63711SOL     OW93029   7.828  10.758   9.199
63711SOL    HW193030   7.797  10.809   9.275
63711SOL    HW293031   7.821  10.819   9.125
63712SOL     OW93032  13.447  12.785  12.539
63712SOL    HW193033  13.402  12.748  12.615
63712SOL    HW293034  13.517  12.723  12.519
63713SOL     OW93035   5.439   7.621  11.851
63713SOL    HW193036   5.380   7.560  11.807
63713SOL    HW293037   5.381   7.686  11.891
63714SOL     OW93038  12.516   0.167  10.470
63714SOL    HW193039  12.534   0.103  10.538
63714SOL    HW293040  12.430   0.142  10.436
63715SOL     OW93041  14.160   8.676  13.667
63715SOL    HW193042  14.111   8.603  13.703
63715SOL    HW293043  14.193   8.644  13.582
63716SOL     OW93044   7.038  12.103   2.647
63716SOL    HW193045   6.960  12.048   2.636
63716SOL    HW293046   7.093  12.056   2.710
63717SOL     OW93047   8.252  12.740  11.812
63717SOL    HW193048   8.250  12.666  11.872
63717SOL    HW293049   8.190  12.717  11.743
63718SOL     OW93050   4.273  10.946   2.804
63718SOL    HW193051   4.354  10.897   2.789
63718SOL    HW293052   4.205  10.879   2.809
63719SOL     OW93053   6.825   6.249   0.221
63719SOL    HW193054   6.885   6.285   0.287
63719SOL    HW293055   6.743   6.234   0.269
63720SOL     OW93056   7.659  12.619   7.850
63720SOL    HW193057   7.738  12.671   7.868
63720SOL    HW293058   7.596  12.649   7.915
63721SOL     OW93059  11.437   8.968  12.200
63721SOL    HW193060  11.400   8.883  12.178
63721SOL    HW293061  11.416   9.024  12.124
63722SOL     OW93062   5.533   4.645   2.894
63722SOL    HW193063   5.448   4.609   2.919
63722SOL    HW293064   5.568   4.682   2.975
63723SOL     OW93065  12.158   9.336  13.023
63723SOL    HW193066  12.089   9.307  13.082
63723SOL    HW293067  12.174   9.427  13.046
63724SOL     OW93068   3.542  11.776   6.948
63724SOL    HW193069   3.563  11.828   7.025
63724SOL    HW293070   3.463  11.728   6.972
63725SOL     OW93071   6.245   8.830   0.027
63725SOL    HW193072   6.317   8.817  14.846
63725SOL    HW293073   6.225   8.923   0.021
63726SOL     OW93074   4.836  11.412   5.583
63726SOL    HW193075   4.828  11.460   5.665
63726SOL    HW293076   4.845  11.320   5.609
63727SOL     OW93077  13.766   0.669  13.372
63727SOL    HW193078  13.840   0.728  13.387
63727SOL    HW293079  13.784   0.628  13.288
63728SOL     OW93080   5.845   3.735   4.698
63728SOL    HW193081   5.898   3.767   4.770
63728SOL    HW293082   5.799   3.659   4.735
63729SOL     OW93083   1.519   2.246   5.623
63729SOL    HW193084   1.507   2.185   5.696
63729SOL    HW293085   1.515   2.333   5.662
63730SOL     OW93086  14.443  13.949  13.189
63730SOL    HW193087  14.372  13.992  13.141
63730SOL    HW293088  14.469  14.013  13.256
63731SOL     OW93089  14.001   2.782   7.671
63731SOL    HW193090  13.915   2.815   7.646
63731SOL    HW293091  14.053   2.788   7.591
63732SOL     OW93092  11.268  12.181   9.145
63732SOL    HW193093  11.213  12.127   9.087
63732SOL    HW293094  11.233  12.165   9.232
63733SOL     OW93095   4.865  14.326   5.166
63733SOL    HW193096   4.944  14.285   5.130
63733SOL    HW293097   4.794  14.292   5.112
63734SOL     OW93098   0.337   4.024   3.712
63734SOL    HW193099   0.387   3.975   3.647
63734SOL    HW293100   0.275   3.960   3.747
63735SOL     OW93101  11.290  10.521   3.167
63735SOL    HW193102  11.319  10.576   3.094
63735SOL    HW293103  11.195  10.517   3.157
63736SOL     OW93104   7.679  13.128   8.047
63736SOL    HW193105   7.618  13.055   8.055
63736SOL    HW293106   7.766  13.087   8.050
63737SOL     OW93107  11.853   6.820  10.662
63737SOL    HW193108  11.847   6.885  10.591
63737SOL    HW293109  11.796   6.855  10.731
63738SOL     OW93110   2.521   7.720   1.469
63738SOL    HW193111   2.544   7.768   1.389
63738SOL    HW293112   2.604   7.711   1.515
63739SOL     OW93113   3.280  11.186  11.891
63739SOL    HW193114   3.355  11.218  11.841
63739SOL    HW293115   3.309  11.193  11.983
63740SOL     OW93116   3.666   0.930   3.475
63740SOL    HW193117   3.674   0.996   3.544
63740SOL    HW293118   3.583   0.887   3.492
63741SOL     OW93119  11.848   0.921   5.573
63741SOL    HW193120  11.755   0.898   5.576
63741SOL    HW293121  11.861   0.953   5.484
63742SOL     OW93122  14.120  10.277  10.936
63742SOL    HW193123  14.056  10.319  10.879
63742SOL    HW293124  14.086  10.291  11.024
63743SOL     OW93125  14.571   6.815   5.111
63743SOL    HW193126  14.640   6.751   5.092
63743SOL    HW293127  14.614   6.900   5.104
63744SOL     OW93128   3.658   0.380  14.191
63744SOL    HW193129   3.614   0.394  14.275
63744SOL    HW293130   3.619   0.301  14.156
63745SOL     OW93131  13.193   0.687  11.298
63745SOL    HW193132  13.278   0.697  11.255
63745SOL    HW293133  13.169   0.776  11.324
63746SOL     OW93134   6.898  11.260   7.136
63746SOL    HW193135   6.833  11.241   7.203
63746SOL    HW293136   6.919  11.353   7.148
63747SOL     OW93137   5.387  10.546   4.678
63747SOL    HW193138   5.404  10.527   4.586
63747SOL    HW293139   5.454  10.609   4.702
63748SOL     OW93140   4.756   6.825   6.148
63748SOL    HW193141   4.710   6.743   6.130
63748SOL    HW293142   4.688   6.886   6.176
63749SOL     OW93143   9.544   8.022   4.991
63749SOL    HW193144   9.501   7.996   4.910
63749SOL    HW293145   9.603   7.949   5.011
63750SOL     OW93146   1.162   3.567  10.375
63750SOL    HW193147   1.145   3.475  10.354
63750SOL    HW293148   1.117   3.582  10.458
63751SOL     OW93149   1.094   6.255   1.369
63751SOL    HW193150   1.139   6.198   1.431
63751SOL    HW293151   1.036   6.196   1.320
63752SOL     OW93152   9.076   0.186  10.173
63752SOL    HW193153   8.993   0.216  10.211
63752SOL    HW293154   9.143   0.232  10.223
63753SOL     OW93155   0.853   1.651   3.264
63753SOL    HW193156   0.859   1.567   3.309
63753SOL    HW293157   0.772   1.690   3.297
63754SOL     OW93158   0.802  10.160  11.482
63754SOL    HW193159   0.827  10.113  11.402
63754SOL    HW293160   0.743  10.101  11.528
63755SOL     OW93161   0.155   5.053   7.283
63755SOL    HW193162   0.229   5.102   7.247
63755SOL    HW293163   0.143   5.090   7.371
63756SOL     OW93164   5.910   5.390   6.097
63756SOL    HW193165   5.840   5.340   6.056
63756SOL    HW293166   5.887   5.482   6.083
63757SOL     OW93167  10.614   2.120   6.462
63757SOL    HW193168  10.535   2.070   6.441
63757SOL    HW293169  10.673   2.104   6.388
63758SOL     OW93170   6.418   9.561  12.967
63758SOL    HW193171   6.450   9.471  12.977
63758SOL    HW293172   6.450   9.607  13.045
63759SOL     OW93173   8.340   3.989   5.018
63759SOL    HW193174   8.394   3.941   5.081
63759SOL    HW293175   8.252   3.953   5.030
63760SOL     OW93176   7.017   8.242   0.074
63760SOL    HW193177   7.009   8.216  14.862
63760SOL    HW293178   6.946   8.306   0.086
63761SOL     OW93179   5.136  11.630   7.920
63761SOL    HW193180   5.152  11.540   7.893
63761SOL    HW293181   5.223  11.671   7.922
63762SOL     OW93182   3.840  12.702  11.808
63762SOL    HW193183   3.798  12.638  11.865
63762SOL    HW293184   3.841  12.662  11.722
63763SOL     OW93185   3.499   7.687   6.787
63763SOL    HW193186   3.450   7.619   6.742
63763SOL    HW293187   3.514   7.653   6.875
63764SOL     OW93188  14.778  14.718  14.067
63764SOL    HW193189  14.816  14.721  13.979
63764SOL    HW293190  14.757  14.626  14.080
63765SOL     OW93191   1.932   0.746   6.235
63765SOL    HW193192   1.858   0.689   6.213
63765SOL    HW293193   1.926   0.819   6.174
63766SOL     OW93194   2.428   4.345   4.236
63766SOL    HW193195   2.474   4.266   4.204
63766SOL    HW293196   2.390   4.383   4.157
63767SOL     OW93197  11.485   0.755  10.900
63767SOL    HW193198  11.570   0.796  10.914
63767SOL    HW293199  11.431   0.823  10.859
63768SOL     OW93200   0.983  14.213  10.328
63768SOL    HW193201   1.024  14.162  10.397
63768SOL    HW293202   0.928  14.276  10.374
63769SOL     OW93203   7.271  14.473   2.993
63769SOL    HW193204   7.271  14.403   2.928
63769SOL    HW293205   7.200  14.531   2.966
63770SOL     OW93206  11.769  12.734   0.402
63770SOL    HW193207  11.703  12.783   0.354
63770SOL    HW293208  11.837  12.798   0.422
63771SOL     OW93209  11.496  12.875   8.011
63771SOL    HW193210  11.522  12.942   8.073
63771SOL    HW293211  11.565  12.809   8.017
63772SOL     OW93212   2.997  11.188   6.271
63772SOL    HW193213   2.933  11.248   6.233
63772SOL    HW293214   2.945  11.122   6.316
63773SOL     OW93215  10.611   1.595   1.623
63773SOL    HW193216  10.535   1.570   1.570
63773SOL    HW293217  10.580   1.669   1.675
63774SOL     OW93218   8.877   8.706  14.280
63774SOL    HW193219   8.922   8.790  14.292
63774SOL    HW293220   8.815   8.721  14.210
63775SOL     OW93221   8.171   5.585   0.177
63775SOL    HW193222   8.148   5.630   0.258
63775SOL    HW293223   8.265   5.599   0.168
63776SOL     OW93224   9.446   8.016   6.282
63776SOL    HW193225   9.462   7.993   6.191
63776SOL    HW293226   9.373   7.961   6.309
63777SOL     OW93227   6.711   9.844  11.493
63777SOL    HW193228   6.784   9.829  11.433
63777SOL    HW293229   6.700   9.761  11.538
63778SOL     OW93230   1.537   5.226   6.511
63778SOL    HW193231   1.452   5.187   6.534
63778SOL    HW293232   1.537   5.228   6.416
63779SOL     OW93233   0.108   9.045   7.037
63779SOL    HW193234   0.110   8.974   6.973
63779SOL    HW293235   0.030   9.096   7.014
63780SOL     OW93236   0.601  14.593   5.526
63780SOL    HW193237   0.527  14.533   5.534
63780SOL    HW293238   0.609  14.632   5.613
63781SOL     OW93239   8.493  14.523   0.320
63781SOL    HW193240   8.427  14.532   0.251
63781SOL    HW293241   8.576  14.518   0.273
63782SOL     OW93242   6.037  10.903   7.044
63782SOL    HW193243   6.001  10.858   7.120
63782SOL    HW293244   6.083  10.979   7.080
63783SOL     OW93245   4.788   6.795  12.240
63783SOL    HW193246   4.794   6.845  12.322
63783SOL    HW293247   4.855   6.728  12.248
63784SOL     OW93248   1.736   6.791  11.894
63784SOL    HW193249   1.674   6.756  11.958
63784SOL    HW293250   1.682   6.813  11.818
63785SOL     OW93251  12.806  13.725   9.712
63785SOL    HW193252  12.764  13.639   9.711
63785SOL    HW293253  12.836  13.739   9.622
63786SOL     OW93254  11.583   8.263  12.299
63786SOL    HW193255  11.652   8.217  12.250
63786SOL    HW293256  11.615   8.353  12.305
63787SOL     OW93257   4.467   8.333  13.186
63787SOL    HW193258   4.507   8.402  13.241
63787SOL    HW293259   4.535   8.312  13.122
63788SOL     OW93260   8.163   1.306  14.653
63788SOL    HW193261   8.108   1.344  14.586
63788SOL    HW293262   8.216   1.240  14.607
63789SOL     OW93263   5.354   3.581   4.080
63789SOL    HW193264   5.387   3.523   4.149
63789SOL    HW293265   5.353   3.668   4.121
63790SOL     OW93266   3.170   6.609   6.588
63790SOL    HW193267   3.253   6.580   6.550
63790SOL    HW293268   3.196   6.662   6.664
63791SOL     OW93269   4.153   2.700  13.213
63791SOL    HW193270   4.215   2.677  13.283
63791SOL    HW293271   4.145   2.621  13.161
63792SOL     OW93272   1.495   3.063   7.099
63792SOL    HW193273   1.518   3.098   7.185
63792SOL    HW293274   1.404   3.090   7.086
63793SOL     OW93275  14.418   3.428   4.796
63793SOL    HW193276  14.328   3.456   4.779
63793SOL    HW293277  14.409   3.348   4.848
63794SOL     OW93278   4.840   5.322   9.511
63794SOL    HW193279   4.808   5.403   9.552
63794SOL    HW293280   4.884   5.352   9.431
63795SOL     OW93281   9.466  13.111   1.800
63795SOL    HW193282   9.378  13.123   1.837
63795SOL    HW293283   9.451  13.057   1.722
63796SOL     OW93284   5.675   2.859  13.758
63796SOL    HW193285   5.749   2.887  13.704
63796SOL    HW293286   5.690   2.899  13.843
63797SOL     OW93287  12.653   1.096   5.411
63797SOL    HW193288  12.740   1.084   5.372
63797SOL    HW293289  12.648   1.189   5.430
63798SOL     OW93290  11.756   1.627  14.745
63798SOL    HW193291  11.815   1.659  14.677
63798SOL    HW293292  11.694   1.570  14.699
63799SOL     OW93293   3.904   4.773  11.953
63799SOL    HW193294   3.861   4.721  11.885
63799SOL    HW293295   3.996   4.775  11.926
63800SOL     OW93296   4.321   9.446   5.488
63800SOL    HW193297   4.395   9.502   5.509
63800SOL    HW293298   4.341   9.412   5.400
63801SOL     OW93299   0.372   3.841   1.152
63801SOL    HW193300   0.362   3.890   1.071
63801SOL    HW293301   0.413   3.758   1.125
63802SOL     OW93302   8.767  11.405  12.816
63802SOL    HW193303   8.672  11.396  12.823
63802SOL    HW293304   8.786  11.385  12.724
63803SOL     OW93305  13.246   0.368  12.019
63803SOL    HW193306  13.247   0.408  12.106
63803SOL    HW293307  13.305   0.293  12.026
63804SOL     OW93308   8.895   7.513   2.459
63804SOL    HW193309   8.894   7.457   2.537
63804SOL    HW293310   8.909   7.453   2.386
63805SOL     OW93311   0.164   2.220   5.832
63805SOL    HW193312   0.229   2.280   5.866
63805SOL    HW293313   0.195   2.133   5.857
63806SOL     OW93314   3.404  14.503  13.858
63806SOL    HW193315   3.396  14.425  13.914
63806SOL    HW293316   3.390  14.470  13.769
63807SOL     OW93317   5.289   2.429   4.100
63807SOL    HW193318   5.263   2.420   4.009
63807SOL    HW293319   5.345   2.353   4.117
63808SOL     OW93320  10.018  13.925  11.979
63808SOL    HW193321  10.045  14.015  11.962
63808SOL    HW293322   9.969  13.899  11.901
63809SOL     OW93323   7.055  10.285  14.740
63809SOL    HW193324   7.101  10.367  14.722
63809SOL    HW293325   7.116  10.235  14.794
63810SOL     OW93326   8.518   7.636   7.029
63810SOL    HW193327   8.555   7.676   6.950
63810SOL    HW293328   8.549   7.545   7.026
63811SOL     OW93329   6.328   1.931  12.331
63811SOL    HW193330   6.276   1.873  12.387
63811SOL    HW293331   6.310   2.019  12.364
63812SOL     OW93332  13.357   8.283   5.443
63812SOL    HW193333  13.415   8.214   5.410
63812SOL    HW293334  13.279   8.237   5.474
63813SOL     OW93335  11.702  10.789   3.355
63813SOL    HW193336  11.767  10.745   3.410
63813SOL    HW293337  11.644  10.718   3.326
63814SOL     OW93338  13.391  13.520  11.237
63814SOL    HW193339  13.394  13.575  11.316
63814SOL    HW293340  13.309  13.471  11.245
63815SOL     OW93341   8.540   8.129   6.293
63815SOL    HW193342   8.579   8.161   6.374
63815SOL    HW293343   8.451   8.164   6.293
63816SOL     OW93344   1.053   1.749   3.641
63816SOL    HW193345   1.079   1.657   3.643
63816SOL    HW293346   1.078   1.783   3.727
63817SOL     OW93347   2.242   3.836  14.529
63817SOL    HW193348   2.322   3.885  14.548
63817SOL    HW293349   2.196   3.890  14.465
63818SOL     OW93350   5.840   9.409   6.784
63818SOL    HW193351   5.869   9.492   6.822
63818SOL    HW293352   5.812   9.432   6.695
63819SOL     OW93353   3.616   6.854  12.823
63819SOL    HW193354   3.583   6.897  12.745
63819SOL    HW293355   3.622   6.761  12.799
63820SOL     OW93356   2.120   6.616   0.549
63820SOL    HW193357   2.111   6.674   0.473
63820SOL    HW293358   2.212   6.592   0.549
63821SOL     OW93359   5.300  12.362  12.214
63821SOL    HW193360   5.367  12.347  12.281
63821SOL    HW293361   5.349  12.368  12.132
63822SOL     OW93362   0.405   9.247   2.815
63822SOL    HW193363   0.312   9.235   2.829
63822SOL    HW293364   0.437   9.160   2.790
63823SOL     OW93365   6.068   1.969   0.884
63823SOL    HW193366   6.048   2.044   0.829
63823SOL    HW293367   6.157   1.944   0.858
63824SOL     OW93368   7.746   3.363   0.626
63824SOL    HW193369   7.747   3.457   0.643
63824SOL    HW293370   7.811   3.352   0.556
63825SOL     OW93371  14.598  12.117   0.035
63825SOL    HW193372  14.640  12.060   0.100
63825SOL    HW293373  14.668  12.175   0.005
63826SOL     OW93374   4.169   1.566   9.403
63826SOL    HW193375   4.128   1.484   9.376
63826SOL    HW293376   4.099   1.632   9.394
63827SOL     OW93377   1.678   5.653   4.094
63827SOL    HW193378   1.740   5.614   4.033
63827SOL    HW293379   1.728   5.720   4.141
63828SOL     OW93380  10.729  10.523   2.663
63828SOL    HW193381  10.766  10.610   2.650
63828SOL    HW293382  10.636  10.533   2.642
63829SOL     OW93383  13.963   1.386   4.164
63829SOL    HW193384  13.940   1.466   4.117
63829SOL    HW293385  14.037   1.412   4.219
63830SOL     OW93386   0.092   5.276  12.275
63830SOL    HW193387   0.169   5.333  12.284
63830SOL    HW293388   0.018   5.336  12.278
63831SOL     OW93389  14.064   3.963  14.747
63831SOL    HW193390  14.043   3.911  14.670
63831SOL    HW293391  14.149   3.930  14.776
63832SOL     OW93392   6.524  13.839   6.046
63832SOL    HW193393   6.459  13.862   5.980
63832SOL    HW293394   6.533  13.744   6.038
63833SOL     OW93395   6.142   2.918   1.738
63833SOL    HW193396   6.231   2.953   1.747
63833SOL    HW293397   6.151   2.825   1.756
63834SOL     OW93398   7.691   0.479   0.979
63834SOL    HW193399   7.771   0.432   0.954
63834SOL    HW293400   7.676   0.453   1.070
63835SOL     OW93401  12.547  10.237   8.864
63835SOL    HW193402  12.603  10.312   8.882
63835SOL    HW293403  12.461  10.261   8.899
63836SOL     OW93404   1.089   4.552   9.406
63836SOL    HW193405   1.173   4.510   9.422
63836SOL    HW293406   1.024   4.484   9.426
63837SOL     OW93407   1.637   7.951   6.615
63837SOL    HW193408   1.673   7.875   6.570
63837SOL    HW293409   1.683   7.953   6.699
63838SOL     OW93410   5.489   0.659   8.107
63838SOL    HW193411   5.452   0.613   8.182
63838SOL    HW293412   5.571   0.613   8.088
63839SOL     OW93413   3.425   7.715   2.756
63839SOL    HW193414   3.446   7.789   2.699
63839SOL    HW293415   3.339   7.685   2.725
63840SOL     OW93416   2.329   2.148  10.436
63840SOL    HW193417   2.396   2.201  10.394
63840SOL    HW293418   2.376   2.101  10.506
63841SOL     OW93419   3.237  13.299  14.230
63841SOL    HW193420   3.202  13.249  14.303
63841SOL    HW293421   3.232  13.240  14.155
63842SOL     OW93422  13.394   3.919   0.444
63842SOL    HW193423  13.409   3.885   0.356
63842SOL    HW293424  13.458   3.990   0.453
63843SOL     OW93425   0.035   0.394  12.849
63843SOL    HW193426  14.871   0.368  12.930
63843SOL    HW293427   0.018   0.488  12.842
63844SOL     OW93428   3.288   6.865   0.897
63844SOL    HW193429   3.348   6.876   0.824
63844SOL    HW293430   3.287   6.771   0.914
63845SOL     OW93431   6.876   9.446   4.093
63845SOL    HW193432   6.874   9.540   4.110
63845SOL    HW293433   6.968   9.428   4.072
63846SOL     OW93434  13.923  12.254   4.183
63846SOL    HW193435  13.964  12.168   4.188
63846SOL    HW293436  13.994  12.314   4.161
63847SOL     OW93437   5.393   0.726   9.077
63847SOL    HW193438   5.426   0.695   8.993
63847SOL    HW293439   5.457   0.791   9.105
63848SOL     OW93440   6.393  10.893  12.755
63848SOL    HW193441   6.414  10.864  12.667
63848SOL    HW293442   6.352  10.818  12.797
63849SOL     OW93443  11.699   9.389   8.671
63849SOL    HW193444  11.656   9.319   8.721
63849SOL    HW293445  11.627   9.439   8.633
63850SOL     OW93446  13.826   0.632  13.098
63850SOL    HW193447  13.866   0.569  13.037
63850SOL    HW293448  13.769   0.686  13.043
63851SOL     OW93449   5.460   2.442   8.107
63851SOL    HW193450   5.445   2.404   8.021
63851SOL    HW293451   5.435   2.373   8.168
63852SOL     OW93452  11.852  10.007  13.752
63852SOL    HW193453  11.758  10.012  13.734
63852SOL    HW293454  11.857   9.993  13.847
63853SOL     OW93455   9.401   1.531   8.175
63853SOL    HW193456   9.388   1.553   8.083
63853SOL    HW293457   9.387   1.437   8.179
63854SOL     OW93458   6.735  10.152   7.931
63854SOL    HW193459   6.769  10.151   8.020
63854SOL    HW293460   6.706  10.243   7.918
63855SOL     OW93461  12.066  14.099  13.745
63855SOL    HW193462  12.045  14.079  13.837
63855SOL    HW293463  11.988  14.143  13.712
63856SOL     OW93464  13.207  10.201   8.513
63856SOL    HW193465  13.162  10.250   8.581
63856SOL    HW293466  13.158  10.119   8.507
63857SOL     OW93467   4.362   8.842   0.477
63857SOL    HW193468   4.443   8.880   0.442
63857SOL    HW293469   4.305   8.833   0.401
63858SOL     OW93470   8.454   4.658   1.299
63858SOL    HW193471   8.365   4.636   1.327
63858SOL    HW293472   8.465   4.612   1.216
63859SOL     OW93473   6.040  11.848  13.868
63859SOL    HW193474   5.954  11.888  13.885
63859SOL    HW293475   6.093  11.874  13.943
63860SOL     OW93476  11.741  13.637   1.594
63860SOL    HW193477  11.819  13.588   1.566
63860SOL    HW293478  11.704  13.671   1.512
63861SOL     OW93479   1.583   7.896   7.019
63861SOL    HW193480   1.502   7.885   6.969
63861SOL    HW293481   1.553   7.908   7.109
63862SOL     OW93482  14.560  13.981  13.485
63862SOL    HW193483  14.595  13.903  13.528
63862SOL    HW293484  14.637  14.029  13.455
63863SOL     OW93485   6.548   0.865   6.232
63863SOL    HW193486   6.592   0.796   6.183
63863SOL    HW293487   6.465   0.826   6.260
63864SOL     OW93488   9.803   7.436   3.830
63864SOL    HW193489   9.716   7.400   3.842
63864SOL    HW293490   9.792   7.502   3.761
63865SOL     OW93491   0.906   7.346  13.919
63865SOL    HW193492   0.998   7.369  13.926
63865SOL    HW293493   0.860   7.428  13.940
63866SOL     OW93494   3.616   7.932   2.625
63866SOL    HW193495   3.574   7.914   2.541
63866SOL    HW293496   3.643   7.845   2.657
63867SOL     OW93497   5.861  11.587   6.204
63867SOL    HW193498   5.941  11.566   6.157
63867SOL    HW293499   5.790  11.563   6.143
63868SOL     OW93500   7.488   2.248   3.068
63868SOL    HW193501   7.448   2.299   2.998
63868SOL    HW293502   7.461   2.293   3.148
63869SOL     OW93503  10.224  14.147   9.201
63869SOL    HW193504  10.311  14.163   9.238
63869SOL    HW293505  10.199  14.231   9.163
63870SOL     OW93506   3.098  11.256  14.529
63870SOL    HW193507   3.024  11.249  14.589
63870SOL    HW293508   3.126  11.347  14.537
63871SOL     OW93509   7.948   4.150   9.928
63871SOL    HW193510   7.919   4.091   9.998
63871SOL    HW293511   8.042   4.135   9.922
63872SOL     OW93512   5.172   5.951   1.465
63872SOL    HW193513   5.239   5.883   1.470
63872SOL    HW293514   5.093   5.906   1.435
63873SOL     OW93515  11.013   3.541   4.964
63873SOL    HW193516  10.961   3.532   5.044
63873SOL    HW293517  11.104   3.533   4.994
63874SOL     OW93518   7.249  12.716   4.822
63874SOL    HW193519   7.263  12.716   4.727
63874SOL    HW293520   7.337  12.712   4.859
63875SOL     OW93521   3.197  11.335  13.768
63875SOL    HW193522   3.251  11.260  13.791
63875SOL    HW293523   3.245  11.378  13.697
63876SOL     OW93524   1.730   1.535   5.961
63876SOL    HW193525   1.686   1.615   5.989
63876SOL    HW293526   1.704   1.524   5.870
63877SOL     OW93527   7.728  14.583   2.417
63877SOL    HW193528   7.653  14.525   2.400
63877SOL    HW293529   7.724  14.600   2.511
63878SOL     OW93530   0.809   1.060   8.739
63878SOL    HW193531   0.788   1.142   8.693
63878SOL    HW293532   0.851   1.089   8.820
63879SOL     OW93533   8.462  13.414   8.684
63879SOL    HW193534   8.367  13.426   8.679
63879SOL    HW293535   8.498  13.502   8.674
63880SOL     OW93536   8.514  13.983  14.249
63880SOL    HW193537   8.473  13.937  14.322
63880SOL    HW293538   8.606  13.957  14.254
63881SOL     OW93539   2.637  13.488   0.369
63881SOL    HW193540   2.687  13.530   0.299
63881SOL    HW293541   2.702  13.473   0.438
63882SOL     OW93542   9.885  13.972   6.290
63882SOL    HW193543   9.814  14.008   6.343
63882SOL    HW293544   9.963  14.021   6.317
63883SOL     OW93545   7.399  13.338  10.747
63883SOL    HW193546   7.342  13.413  10.765
63883SOL    HW293547   7.436  13.356  10.661
63884SOL     OW93548  13.138   5.209   3.465
63884SOL    HW193549  13.220   5.163   3.485
63884SOL    HW293550  13.090   5.208   3.547
63885SOL     OW93551   2.360  13.240   8.380
63885SOL    HW193552   2.303  13.163   8.381
63885SOL    HW293553   2.301  13.313   8.397
63886SOL     OW93554   4.524  14.052   1.512
63886SOL    HW193555   4.606  14.095   1.488
63886SOL    HW293556   4.456  14.110   1.475
63887SOL     OW93557  14.569  10.652  12.852
63887SOL    HW193558  14.555  10.668  12.945
63887SOL    HW293559  14.663  10.633  12.844
63888SOL     OW93560  13.243  14.443  12.649
63888SOL    HW193561  13.236  14.366  12.594
63888SOL    HW293562  13.167  14.440  12.706
63889SOL     OW93563   5.705   9.555   4.240
63889SOL    HW193564   5.650   9.476   4.243
63889SOL    HW293565   5.683   9.602   4.320
63890SOL     OW93566   0.017   5.611   3.900
63890SOL    HW193567   0.073   5.578   3.970
63890SOL    HW293568   0.021   5.543   3.832
63891SOL     OW93569   8.012  13.607   9.716
63891SOL    HW193570   8.099  13.646   9.728
63891SOL    HW293571   7.968  13.664   9.654
63892SOL     OW93572   1.464   8.918   0.179
63892SOL    HW193573   1.432   8.897   0.091
63892SOL    HW293574   1.530   8.851   0.197
63893SOL     OW93575   1.191   3.879  10.457
63893SOL    HW193576   1.142   3.836  10.387
63893SOL    HW293577   1.279   3.892  10.419
63894SOL     OW93578   9.885   8.761   7.647
63894SOL    HW193579   9.901   8.683   7.594
63894SOL    HW293580   9.957   8.764   7.709
63895SOL     OW93581   6.280   0.473   0.692
63895SOL    HW193582   6.326   0.465   0.609
63895SOL    HW293583   6.349   0.481   0.758
63896SOL     OW93584  12.510   0.836   2.381
63896SOL    HW193585  12.519   0.924   2.344
63896SOL    HW293586  12.561   0.780   2.323
63897SOL     OW93587  10.644   9.913  11.229
63897SOL    HW193588  10.616   9.938  11.317
63897SOL    HW293589  10.729   9.954  11.218
63898SOL     OW93590   8.491   6.844   9.107
63898SOL    HW193591   8.470   6.911   9.171
63898SOL    HW293592   8.502   6.892   9.025
63899SOL     OW93593   4.119  14.284  12.358
63899SOL    HW193594   4.182  14.309  12.290
63899SOL    HW293595   4.163  14.307  12.440
63900SOL     OW93596  11.839   6.500   2.853
63900SOL    HW193597  11.923   6.503   2.808
63900SOL    HW293598  11.857   6.537   2.940
63901SOL     OW93599   5.717   8.371   8.134
63901SOL    HW193600   5.773   8.428   8.186
63901SOL    HW293601   5.761   8.286   8.133
63902SOL     OW93602  12.558   8.854  11.260
63902SOL    HW193603  12.558   8.759  11.261
63902SOL    HW293604  12.519   8.879  11.343
63903SOL     OW93605  11.169   8.577   5.910
63903SOL    HW193606  11.079   8.599   5.934
63903SOL    HW293607  11.180   8.487   5.942
63904SOL     OW93608   0.186  12.307  11.981
63904SOL    HW193609   0.121  12.373  12.006
63904SOL    HW293610   0.134  12.237  11.942
63905SOL     OW93611  13.331  11.016   8.608
63905SOL    HW193612  13.290  10.977   8.531
63905SOL    HW293613  13.403  10.956   8.630
63906SOL     OW93614   2.810   2.217  12.886
63906SOL    HW193615   2.803   2.131  12.929
63906SOL    HW293616   2.725   2.258  12.901
63907SOL     OW93617   4.649  14.700   8.951
63907SOL    HW193618   4.564  14.693   8.995
63907SOL    HW293619   4.651  14.789   8.917
63908SOL     OW93620   2.296  10.271   7.951
63908SOL    HW193621   2.274  10.195   8.005
63908SOL    HW293622   2.213  10.316   7.936
63909SOL     OW93623   3.897  11.291   4.595
63909SOL    HW193624   3.958  11.270   4.525
63909SOL    HW293625   3.888  11.386   4.593
63910SOL     OW93626  14.286   8.095   7.601
63910SOL    HW193627  14.260   8.005   7.618
63910SOL    HW293628  14.364   8.087   7.546
63911SOL     OW93629  11.308   0.236   8.724
63911SOL    HW193630  11.327   0.147   8.753
63911SOL    HW293631  11.299   0.228   8.628
63912SOL     OW93632   2.086   7.661   9.531
63912SOL    HW193633   2.111   7.753   9.521
63912SOL    HW293634   1.991   7.661   9.524
63913SOL     OW93635  14.844   4.835   5.775
63913SOL    HW193636  14.820   4.909   5.719
63913SOL    HW293637  14.804   4.855   5.860
63914SOL     OW93638  10.589   4.381   0.391
63914SOL    HW193639  10.566   4.354   0.302
63914SOL    HW293640  10.564   4.307   0.446
63915SOL     OW93641   5.672  12.662   7.010
63915SOL    HW193642   5.705  12.572   7.016
63915SOL    HW293643   5.587  12.654   6.967
63916SOL     OW93644   7.478   8.953   8.384
63916SOL    HW193645   7.503   8.937   8.475
63916SOL    HW293646   7.545   8.908   8.333
63917SOL     OW93647   3.558   7.745   1.595
63917SOL    HW193648   3.622   7.777   1.531
63917SOL    HW293649   3.524   7.665   1.555
63918SOL     OW93650  13.508   9.461   4.047
63918SOL    HW193651  13.522   9.556   4.039
63918SOL    HW293652  13.439   9.454   4.114
63919SOL     OW93653   4.442  10.824  12.174
63919SOL    HW193654   4.352  10.821  12.139
63919SOL    HW293655   4.479  10.738  12.151
63920SOL     OW93656   7.526   4.650   7.313
63920SOL    HW193657   7.517   4.574   7.371
63920SOL    HW293658   7.444   4.697   7.323
63921SOL     OW93659  12.447   7.402   8.116
63921SOL    HW193660  12.435   7.374   8.026
63921SOL    HW293661  12.435   7.497   8.114
63922SOL     OW93662   7.251   2.334  12.222
63922SOL    HW193663   7.195   2.410  12.206
63922SOL    HW293664   7.337   2.371  12.241
63923SOL     OW93665   7.690  12.402  12.775
63923SOL    HW193666   7.745  12.336  12.733
63923SOL    HW293667   7.735  12.421  12.857
63924SOL     OW93668   5.820   2.298  11.402
63924SOL    HW193669   5.792   2.218  11.446
63924SOL    HW293670   5.742   2.354  11.400
63925SOL     OW93671   6.594   9.992   1.007
63925SOL    HW193672   6.689   9.994   0.995
63925SOL    HW293673   6.561   9.945   0.930
63926SOL     OW93674   9.987   1.479  10.975
63926SOL    HW193675  10.072   1.458  11.012
63926SOL    HW293676   9.999   1.564  10.933
63927SOL     OW93677  10.716   4.360  11.635
63927SOL    HW193678  10.751   4.326  11.552
63927SOL    HW293679  10.658   4.432  11.609
63928SOL     OW93680   9.210   4.186   9.108
63928SOL    HW193681   9.193   4.124   9.178
63928SOL    HW293682   9.133   4.181   9.052
63929SOL     OW93683   7.903  14.360   8.279
63929SOL    HW193684   7.837  14.320   8.336
63929SOL    HW293685   7.888  14.318   8.194
63930SOL     OW93686  12.189   9.603   1.021
63930SOL    HW193687  12.161   9.529   0.967
63930SOL    HW293688  12.190   9.677   0.961
63931SOL     OW93689  11.056   3.012  13.138
63931SOL    HW193690  11.116   3.020  13.064
63931SOL    HW293691  10.988   3.077  13.121
63932SOL     OW93692   9.748  12.053  12.980
63932SOL    HW193693   9.802  12.089  12.909
63932SOL    HW293694   9.775  12.102  13.058
63933SOL     OW93695   6.816   1.633   1.554
63933SOL    HW193696   6.755   1.668   1.619
63933SOL    HW293697   6.760   1.588   1.491
63934SOL     OW93698   1.395  10.670  14.335
63934SOL    HW193699   1.377  10.703  14.423
63934SOL    HW293700   1.491  10.670  14.329
63935SOL     OW93701   9.024  11.754  14.028
63935SOL    HW193702   8.978  11.700  13.963
63935SOL    HW293703   9.113  11.763  13.992
63936SOL     OW93704   9.250   6.732   1.864
63936SOL    HW193705   9.221   6.823   1.862
63936SOL    HW293706   9.174   6.682   1.834
63937SOL     OW93707  13.522  10.872   5.300
63937SOL    HW193708  13.599  10.901   5.349
63937SOL    HW293709  13.550  10.791   5.257
63938SOL     OW93710   4.127   7.246   6.446
63938SOL    HW193711   4.078   7.326   6.425
63938SOL    HW293712   4.189   7.236   6.373
63939SOL     OW93713   9.463  13.613  12.381
63939SOL    HW193714   9.437  13.684  12.440
63939SOL    HW293715   9.429  13.638  12.296
63940SOL     OW93716   3.838  14.792  11.056
63940SOL    HW193717   3.821  14.866  10.998
63940SOL    HW293718   3.786  14.810  11.134
63941SOL     OW93719   6.679   8.902   9.572
63941SOL    HW193720   6.639   8.841   9.510
63941SOL    HW293721   6.626   8.982   9.564
63942SOL     OW93722   9.870  11.841  10.163
63942SOL    HW193723   9.786  11.860  10.121
63942SOL    HW293724   9.851  11.769  10.223
63943SOL     OW93725  10.874   7.654  12.702
63943SOL    HW193726  10.814   7.581  12.715
63943SOL    HW293727  10.881   7.663  12.607
63944SOL     OW93728  12.874  10.574   4.749
63944SOL    HW193729  12.922  10.495   4.724
63944SOL    HW293730  12.937  10.645   4.738
63945SOL     OW93731   7.698  14.416  13.103
63945SOL    HW193732   7.665  14.444  13.188
63945SOL    HW293733   7.712  14.322  13.112
63946SOL     OW93734  13.568   5.938  12.502
63946SOL    HW193735  13.554   5.988  12.421
63946SOL    HW293736  13.509   5.863  12.493
63947SOL     OW93737  11.092  11.497  13.903
63947SOL    HW193738  11.014  11.550  13.891
63947SOL    HW293739  11.084  11.428  13.837
63948SOL     OW93740   2.064   6.663   7.872
63948SOL    HW193741   1.993   6.684   7.811
63948SOL    HW293742   2.050   6.722   7.947
63949SOL     OW93743   4.864   5.096   6.298
63949SOL    HW193744   4.811   5.159   6.347
63949SOL    HW293745   4.853   5.014   6.346
63950SOL     OW93746  12.556  12.428  14.310
63950SOL    HW193747  12.636  12.473  14.282
63950SOL    HW293748  12.488  12.494  14.300
63951SOL     OW93749  11.552   9.988  13.738
63951SOL    HW193750  11.542  10.051  13.667
63951SOL    HW293751  11.531   9.903  13.698
63952SOL     OW93752   6.368   8.270  10.688
63952SOL    HW193753   6.344   8.288  10.597
63952SOL    HW293754   6.452   8.225  10.682
63953SOL     OW93755   6.147   3.364  12.142
63953SOL    HW193756   6.158   3.459  12.132
63953SOL    HW293757   6.079   3.341  12.080
63954SOL     OW93758   0.505  13.793   0.639
63954SOL    HW193759   0.555  13.873   0.626
63954SOL    HW293760   0.422  13.822   0.677
63955SOL     OW93761   3.290  12.217  13.104
63955SOL    HW193762   3.351  12.276  13.148
63955SOL    HW293763   3.260  12.267  13.028
63956SOL     OW93764  14.513   1.628   2.705
63956SOL    HW193765  14.445   1.693   2.688
63956SOL    HW293766  14.593   1.680   2.716
63957SOL     OW93767   5.368   3.812  11.450
63957SOL    HW193768   5.277   3.834  11.470
63957SOL    HW293769   5.420   3.867  11.508
63958SOL     OW93770  12.674   3.973   5.998
63958SOL    HW193771  12.696   4.034   5.927
63958SOL    HW293772  12.578   3.974   6.001
63959SOL     OW93773   6.760   1.100  13.920
63959SOL    HW193774   6.734   1.014  13.888
63959SOL    HW293775   6.760   1.156  13.842
63960SOL     OW93776  14.050   5.321   8.116
63960SOL    HW193777  13.982   5.316   8.049
63960SOL    HW293778  14.088   5.408   8.104
63961SOL     OW93779  11.441  13.602  11.321
63961SOL    HW193780  11.416  13.689  11.352
63961SOL    HW293781  11.462  13.554  11.402
63962SOL     OW93782   1.967   5.276   2.120
63962SOL    HW193783   1.877   5.267   2.149
63962SOL    HW293784   1.963   5.338   2.046
63963SOL     OW93785   1.834   6.664   7.713
63963SOL    HW193786   1.822   6.626   7.626
63963SOL    HW293787   1.790   6.749   7.709
63964SOL     OW93788  12.802   2.022  12.283
63964SOL    HW193789  12.740   2.054  12.218
63964SOL    HW293790  12.775   2.064  12.365
63965SOL     OW93791   0.861   4.938   3.463
63965SOL    HW193792   0.865   4.845   3.484
63965SOL    HW293793   0.781   4.947   3.410
63966SOL     OW93794  11.287   5.191   5.000
63966SOL    HW193795  11.256   5.250   4.932
63966SOL    HW293796  11.210   5.139   5.023
63967SOL     OW93797  11.066   3.562   8.226
63967SOL    HW193798  10.993   3.600   8.275
63967SOL    HW293799  11.094   3.632   8.167
63968SOL     OW93800  13.735   3.704   8.640
63968SOL    HW193801  13.766   3.647   8.570
63968SOL    HW293802  13.815   3.730   8.687
63969SOL     OW93803   4.263   3.762   8.463
63969SOL    HW193804   4.339   3.719   8.502
63969SOL    HW293805   4.250   3.841   8.515
63970SOL     OW93806   5.289   3.336  12.120
63970SOL    HW193807   5.301   3.425  12.151
63970SOL    HW293808   5.302   3.341  12.026
63971SOL     OW93809  12.672  11.195   2.000
63971SOL    HW193810  12.702  11.121   1.947
63971SOL    HW293811  12.658  11.266   1.937
63972SOL     OW93812  10.836  10.880   0.132
63972SOL    HW193813  10.747  10.902   0.101
63972SOL    HW293814  10.823  10.806   0.191
63973SOL     OW93815   2.614   7.826  10.970
63973SOL    HW193816   2.519   7.834  10.957
63973SOL    HW293817   2.625   7.743  11.016
63974SOL     OW93818   8.482  11.611   9.098
63974SOL    HW193819   8.387  11.595   9.103
63974SOL    HW293820   8.493  11.666   9.021
63975SOL     OW93821   0.903  11.196  13.939
63975SOL    HW193822   0.935  11.260  13.875
63975SOL    HW293823   0.818  11.229  13.967
63976SOL     OW93824   5.226   4.827   6.210
63976SOL    HW193825   5.213   4.761   6.142
63976SOL    HW293826   5.160   4.807   6.276
63977SOL     OW93827  13.953   9.522   2.804
63977SOL    HW193828  13.991   9.459   2.865
63977SOL    HW293829  13.912   9.588   2.860
63978SOL     OW93830  11.934   9.174   9.725
63978SOL    HW193831  11.878   9.108   9.763
63978SOL    HW293832  11.908   9.178   9.633
63979SOL     OW93833   3.400   4.395  13.612
63979SOL    HW193834   3.446   4.394  13.696
63979SOL    HW293835   3.323   4.449  13.627
63980SOL     OW93836   8.425   1.414   9.449
63980SOL    HW193837   8.422   1.343   9.514
63980SOL    HW293838   8.341   1.459   9.459
63981SOL     OW93839  12.962   3.542   1.963
63981SOL    HW193840  13.026   3.557   2.033
63981SOL    HW293841  13.008   3.567   1.883
63982SOL     OW93842   1.527   5.741   7.479
63982SOL    HW193843   1.560   5.831   7.481
63982SOL    HW293844   1.488   5.732   7.392
63983SOL     OW93845  14.220   9.851  10.369
63983SOL    HW193846  14.166   9.772  10.359
63983SOL    HW293847  14.272   9.854  10.288
63984SOL     OW93848   2.802  12.675   6.642
63984SOL    HW193849   2.890  12.651   6.612
63984SOL    HW293850   2.817  12.746   6.705
63985SOL     OW93851   2.786  14.207  10.296
63985SOL    HW193852   2.863  14.264  10.299
63985SOL    HW293853   2.796  14.150  10.373
63986SOL     OW93854  10.135  14.400  13.931
63986SOL    HW193855  10.118  14.331  13.996
63986SOL    HW293856  10.147  14.353  13.849
63987SOL     OW93857  12.623  10.437   3.032
63987SOL    HW193858  12.583  10.420   3.117
63987SOL    HW293859  12.565  10.501   2.990
63988SOL     OW93860  13.004   6.369   1.390
63988SOL    HW193861  13.069   6.305   1.421
63988SOL    HW293862  12.984   6.422   1.467
63989SOL     OW93863  12.880   1.215   8.814
63989SOL    HW193864  12.864   1.140   8.872
63989SOL    HW293865  12.835   1.192   8.733
63990SOL     OW93866  14.641   7.623  14.358
63990SOL    HW193867  14.647   7.633  14.263
63990SOL    HW293868  14.568   7.563  14.371
63991SOL     OW93869   5.346  14.657  10.556
63991SOL    HW193870   5.366  14.748  10.579
63991SOL    HW293871   5.326  14.615  10.640
63992SOL     OW93872   7.904  13.844   3.934
63992SOL    HW193873   7.878  13.932   3.906
63992SOL    HW293874   7.925  13.798   3.853
63993SOL     OW93875  14.279   9.827   9.262
63993SOL    HW193876  14.290   9.860   9.351
63993SOL    HW293877  14.202   9.770   9.266
63994SOL     OW93878   8.024   1.645  10.758
63994SOL    HW193879   7.962   1.580  10.724
63994SOL    HW293880   7.980   1.729  10.745
63995SOL     OW93881   6.094   9.595  12.187
63995SOL    HW193882   6.034   9.577  12.114
63995SOL    HW293883   6.108   9.510  12.227
63996SOL     OW93884  11.890   4.070   8.512
63996SOL    HW193885  11.870   4.077   8.606
63996SOL    HW293886  11.985   4.084   8.507
63997SOL     OW93887   2.213   2.555   0.733
63997SOL    HW193888   2.148   2.623   0.746
63997SOL    HW293889   2.190   2.515   0.649
63998SOL     OW93890   0.077   4.939   7.982
63998SOL    HW193891   0.109   5.021   8.020
63998SOL    HW293892   0.149   4.908   7.927
63999SOL     OW93893   7.645   0.519   1.564
63999SOL    HW193894   7.608   0.606   1.580
63999SOL    HW293895   7.569   0.462   1.555
64000SOL     OW93896   6.065  13.271   0.395
64000SOL    HW193897   6.009  13.348   0.383
64000SOL    HW293898   6.098  13.279   0.485
64001SOL     OW93899   6.414  14.791   4.831
64001SOL    HW193900   6.403  14.847   4.755
64001SOL    HW293901   6.433  14.851   4.903
64002SOL     OW93902  12.536  14.633  10.660
64002SOL    HW193903  12.501  14.704  10.607
64002SOL    HW293904  12.549  14.561  10.597
64003SOL     OW93905   4.447   1.284  10.230
64003SOL    HW193906   4.466   1.269  10.322
64003SOL    HW293907   4.441   1.379  10.222
64004SOL     OW93908   3.916  13.967   7.487
64004SOL    HW193909   3.978  13.896   7.505
64004SOL    HW293910   3.969  14.038   7.452
64005SOL     OW93911   3.571   0.811  12.924
64005SOL    HW193912   3.548   0.726  12.962
64005SOL    HW293913   3.572   0.794  12.829
64006SOL     OW93914   4.536   2.244   5.292
64006SOL    HW193915   4.442   2.245   5.311
64006SOL    HW293916   4.572   2.317   5.343
64007SOL     OW93917   9.793   9.247  14.626
64007SOL    HW193918   9.856   9.244  14.697
64007SOL    HW293919   9.832   9.193  14.557
64008SOL     OW93920   8.686   1.162  14.003
64008SOL    HW193921   8.738   1.237  14.030
64008SOL    HW293922   8.658   1.182  13.914
64009SOL     OW93923  12.361   3.459   0.422
64009SOL    HW193924  12.445   3.424   0.451
64009SOL    HW293925  12.347   3.421   0.335
64010SOL     OW93926   4.710   2.091   7.002
64010SOL    HW193927   4.765   2.040   6.942
64010SOL    HW293928   4.747   2.074   7.088
64011SOL     OW93929   1.514   0.409   5.094
64011SOL    HW193930   1.534   0.502   5.085
64011SOL    HW293931   1.439   0.406   5.154
64012SOL     OW93932   3.888   3.645   3.040
64012SOL    HW193933   3.941   3.719   3.011
64012SOL    HW293934   3.853   3.608   2.959
64013SOL     OW93935   8.054  14.158   2.378
64013SOL    HW193936   8.150  14.149   2.374
64013SOL    HW293937   8.024  14.125   2.294
64014SOL     OW93938   4.569  12.086   9.423
64014SOL    HW193939   4.488  12.115   9.380
64014SOL    HW293940   4.593  12.005   9.378
64015SOL     OW93941   0.938   5.971   1.737
64015SOL    HW193942   0.881   5.898   1.760
64015SOL    HW293943   0.944   6.023   1.817
64016SOL     OW93944  12.539   0.630  12.268
64016SOL    HW193945  12.606   0.690  12.301
64016SOL    HW293946  12.558   0.624  12.174
64017SOL     OW93947   5.981  11.609  14.177
64017SOL    HW193948   5.961  11.678  14.114
64017SOL    HW293949   5.903  11.603  14.232
64018SOL     OW93950   3.695   5.540   7.722
64018SOL    HW193951   3.649   5.623   7.734
64018SOL    HW293952   3.730   5.519   7.809
64019SOL     OW93953   2.412   3.472   1.357
64019SOL    HW193954   2.491   3.504   1.314
64019SOL    HW293955   2.391   3.391   1.311
64020SOL     OW93956   3.946  14.493   5.708
64020SOL    HW193957   3.877  14.525   5.767
64020SOL    HW293958   3.986  14.421   5.756
64021SOL     OW93959  10.888   1.037   8.689
64021SOL    HW193960  10.891   0.969   8.621
64021SOL    HW293961  10.974   1.034   8.730
64022SOL     OW93962   6.022   0.797  10.518
64022SOL    HW193963   5.964   0.730  10.482
64022SOL    HW293964   6.110   0.769  10.492
64023SOL     OW93965   5.558   3.697   2.389
64023SOL    HW193966   5.574   3.792   2.386
64023SOL    HW293967   5.466   3.688   2.362
64024SOL     OW93968   0.480   0.007   4.256
64024SOL    HW193969   0.453  14.849   4.172
64024SOL    HW293970   0.414  14.858   4.318
64025SOL     OW93971  14.404   8.734   3.089
64025SOL    HW193972  14.339   8.764   3.026
64025SOL    HW293973  14.485   8.776   3.062
64026SOL     OW93974  11.320  10.602  10.779
64026SOL    HW193975  11.330  10.507  10.774
64026SOL    HW293976  11.382  10.629  10.847
64027SOL     OW93977  11.376   3.354  14.476
64027SOL    HW193978  11.320   3.290  14.521
64027SOL    HW293979  11.335   3.366  14.390
64028SOL     OW93980   8.080  12.476   1.219
64028SOL    HW193981   8.021  12.415   1.264
64028SOL    HW293982   8.050  12.477   1.129
64029SOL     OW93983  11.834  14.043  10.510
64029SOL    HW193984  11.912  14.048  10.565
64029SOL    HW293985  11.822  13.950  10.493
64030SOL     OW93986   9.477  11.360   8.784
64030SOL    HW193987   9.405  11.419   8.759
64030SOL    HW293988   9.556  11.410   8.766
64031SOL     OW93989   1.229   7.605   5.688
64031SOL    HW193990   1.274   7.598   5.604
64031SOL    HW293991   1.300   7.604   5.753
64032SOL     OW93992   0.275  14.260   8.650
64032SOL    HW193993   0.308  14.182   8.604
64032SOL    HW293994   0.181  14.260   8.634
64033SOL     OW93995   4.565  12.198  12.493
64033SOL    HW193996   4.646  12.168  12.536
64033SOL    HW293997   4.577  12.292  12.482
64034SOL     OW93998  13.471  14.719   7.843
64034SOL    HW193999  13.429  14.758   7.766
64034SOL    HW294000  13.436  14.630   7.846
64035SOL     OW94001   2.835   7.362   2.909
64035SOL    HW194002   2.760   7.418   2.930
64035SOL    HW294003   2.849   7.309   2.988
64036SOL     OW94004   0.101   2.345   5.006
64036SOL    HW194005   0.052   2.283   4.951
64036SOL    HW294006   0.158   2.392   4.945
64037SOL     OW94007   9.625  14.038   9.549
64037SOL    HW194008   9.670  13.955   9.562
64037SOL    HW294009   9.557  14.040   9.616
64038SOL     OW94010   2.665   8.038   3.363
64038SOL    HW194011   2.684   8.125   3.397
64038SOL    HW294012   2.691   8.042   3.271
64039SOL     OW94013   4.936   8.762   4.248
64039SOL    HW194014   4.943   8.799   4.160
64039SOL    HW294015   4.952   8.836   4.306
64040SOL     OW94016   8.375   8.007   3.027
64040SOL    HW194017   8.321   7.969   3.097
64040SOL    HW294018   8.425   8.077   3.071
64041SOL     OW94019  10.965  13.878   3.185
64041SOL    HW194020  11.011  13.794   3.187
64041SOL    HW294021  10.967  13.908   3.276
64042SOL     OW94022   3.680  14.463   4.044
64042SOL    HW194023   3.641  14.460   3.957
64042SOL    HW294024   3.759  14.515   4.034
64043SOL     OW94025  12.946  11.907   6.387
64043SOL    HW194026  12.983  11.820   6.378
64043SOL    HW294027  13.021  11.965   6.393
64044SOL     OW94028   4.085   5.295   5.202
64044SOL    HW194029   4.082   5.218   5.144
64044SOL    HW294030   4.118   5.260   5.285
64045SOL     OW94031  11.446   8.624   8.106
64045SOL    HW194032  11.417   8.714   8.123
64045SOL    HW294033  11.466   8.589   8.193
64046SOL     OW94034   7.055  12.759   8.565
64046SOL    HW194035   7.114  12.686   8.547
64046SOL    HW294036   7.043  12.758   8.659
64047SOL     OW94037   8.846   5.673  14.623
64047SOL    HW194038   8.877   5.703  14.537
64047SOL    HW294039   8.828   5.753  14.672
64048SOL     OW94040  12.147   6.144  14.847
64048SOL    HW194041  12.221   6.203  14.829
64048SOL    HW294042  12.187   6.066   0.006
64049SOL     OW94043   6.371   6.545   3.868
64049SOL    HW194044   6.446   6.601   3.848
64049SOL    HW294045   6.303   6.572   3.806
64050SOL     OW94046   5.388  13.783   9.389
64050SOL    HW194047   5.393  13.741   9.303
64050SOL    HW294048   5.302  13.824   9.390
64051SOL     OW94049   3.981   3.527   7.111
64051SOL    HW194050   4.065   3.509   7.070
64051SOL    HW294051   3.973   3.460   7.179
64052SOL     OW94052  14.504   4.614   7.301
64052SOL    HW194053  14.558   4.621   7.223
64052SOL    HW294054  14.552   4.661   7.369
64053SOL     OW94055   8.193   8.961   0.105
64053SOL    HW194056   8.256   8.902   0.063
64053SOL    HW294057   8.163   9.019   0.035
64054SOL     OW94058   9.195   3.877   6.119
64054SOL    HW194059   9.285   3.862   6.148
64054SOL    HW294060   9.191   3.837   6.032
64055SOL     OW94061  12.369  11.768   1.615
64055SOL    HW194062  12.444  11.732   1.662
64055SOL    HW294063  12.404  11.844   1.567
64056SOL     OW94064  10.494   9.499  13.297
64056SOL    HW194065  10.574   9.447  13.290
64056SOL    HW294066  10.463   9.508  13.207
64057SOL     OW94067   5.103  12.336  12.660
64057SOL    HW194068   5.183  12.375  12.696
64057SOL    HW294069   5.110  12.348  12.566
64058SOL     OW94070  11.602   2.453   0.067
64058SOL    HW194071  11.537   2.497   0.013
64058SOL    HW294072  11.558   2.442   0.152
64059SOL     OW94073   1.501   0.091   3.557
64059SOL    HW194074   1.566   0.136   3.504
64059SOL    HW294075   1.432   0.156   3.572
64060SOL     OW94076   8.292   6.200  11.499
64060SOL    HW194077   8.278   6.132  11.433
64060SOL    HW294078   8.388   6.206  11.507
64061SOL     OW94079   4.295   3.368   7.438
64061SOL    HW194080   4.208   3.384   7.474
64061SOL    HW294081   4.307   3.436   7.372
64062SOL     OW94082   3.852   3.359   6.490
64062SOL    HW194083   3.919   3.308   6.444
64062SOL    HW294084   3.778   3.360   6.430
64063SOL     OW94085   0.646   0.339   5.269
64063SOL    HW194086   0.658   0.428   5.301
64063SOL    HW294087   0.664   0.283   5.344
64064SOL     OW94088   7.617  11.711   2.691
64064SOL    HW194089   7.618  11.657   2.611
64064SOL    HW294090   7.524  11.725   2.709
64065SOL     OW94091  13.320  13.451  13.293
64065SOL    HW194092  13.258  13.408  13.235
64065SOL    HW294093  13.400  13.400  13.284
64066SOL     OW94094   7.678   3.029  11.010
64066SOL    HW194095   7.597   3.045  11.059
64066SOL    HW294096   7.689   2.934  11.012
64067SOL     OW94097   4.433  11.202   3.459
64067SOL    HW194098   4.342  11.171   3.455
64067SOL    HW294099   4.450  11.236   3.371
64068SOL     OW94100  14.206   4.921   5.382
64068SOL    HW194101  14.133   4.960   5.335
64068SOL    HW294102  14.173   4.836   5.411
64069SOL     OW94103   3.855   1.289   4.607
64069SOL    HW194104   3.840   1.383   4.610
64069SOL    HW294105   3.853   1.268   4.513
64070SOL     OW94106   6.011   5.456   7.282
64070SOL    HW194107   5.947   5.481   7.215
64070SOL    HW294108   5.958   5.427   7.356
64071SOL     OW94109   3.797  14.150   5.183
64071SOL    HW194110   3.841  14.076   5.226
64071SOL    HW294111   3.832  14.149   5.093
64072SOL     OW94112   8.349  11.144   3.775
64072SOL    HW194113   8.325  11.127   3.866
64072SOL    HW294114   8.395  11.065   3.747
64073SOL     OW94115  13.188   5.565   8.329
64073SOL    HW194116  13.262   5.554   8.269
64073SOL    HW294117  13.131   5.629   8.285
64074SOL     OW94118   9.520   9.522   1.063
64074SOL    HW194119   9.442   9.576   1.076
64074SOL    HW294120   9.538   9.485   1.149
64075SOL     OW94121  11.930  11.145  11.899
64075SOL    HW194122  11.935  11.155  11.994
64075SOL    HW294123  11.890  11.059  11.886
64076SOL     OW94124  13.834  11.219   5.547
64076SOL    HW194125  13.879  11.196   5.466
64076SOL    HW294126  13.805  11.309   5.535
64077SOL     OW94127   2.883   7.741   9.834
64077SOL    HW194128   2.929   7.718   9.753
64077SOL    HW294129   2.795   7.703   9.823
64078SOL     OW94130  13.622   4.175   0.769
64078SOL    HW194131  13.658   4.100   0.722
64078SOL    HW294132  13.616   4.244   0.703
64079SOL     OW94133   1.450   8.171   5.771
64079SOL    HW194134   1.426   8.194   5.682
64079SOL    HW294135   1.535   8.128   5.763
64080SOL     OW94136  13.237   6.068  14.614
64080SOL    HW194137  13.225   6.051  14.708
64080SOL    HW294138  13.151   6.096  14.583
64081SOL     OW94139  13.019  11.684   6.317
64081SOL    HW194140  12.957  11.632   6.368
64081SOL    HW294141  13.064  11.619   6.262
64082SOL     OW94142   4.384  11.811   3.627
64082SOL    HW194143   4.372  11.732   3.680
64082SOL    HW294144   4.295  11.835   3.600
64083SOL     OW94145  12.472  12.286   3.837
64083SOL    HW194146  12.383  12.321   3.846
64083SOL    HW294147  12.518  12.351   3.784
64084SOL     OW94148  12.136   2.020   2.887
64084SOL    HW194149  12.211   2.026   2.827
64084SOL    HW294150  12.165   2.065   2.966
64085SOL     OW94151   2.746  13.992   4.696
64085SOL    HW194152   2.693  14.014   4.773
64085SOL    HW294153   2.683  13.957   4.633
64086SOL     OW94154  11.380   1.925   3.343
64086SOL    HW194155  11.315   1.972   3.292
64086SOL    HW294156  11.392   1.842   3.296
64087SOL     OW94157  11.992   3.800   1.848
64087SOL    HW194158  11.971   3.868   1.911
64087SOL    HW294159  12.080   3.770   1.871
64088SOL     OW94160   7.705  12.000   3.487
64088SOL    HW194161   7.694  11.961   3.400
64088SOL    HW294162   7.792  11.971   3.516
64089SOL     OW94163  14.485  10.176   2.814
64089SOL    HW194164  14.404  10.227   2.818
64089SOL    HW294165  14.535  10.205   2.890
64090SOL     OW94166  14.775  13.615   3.794
64090SOL    HW194167  14.704  13.636   3.855
64090SOL    HW294168  14.852  13.661   3.829
64091SOL     OW94169   7.343  14.398   9.198
64091SOL    HW194170   7.391  14.325   9.159
64091SOL    HW294171   7.290  14.433   9.126
64092SOL     OW94172   3.207  13.948  14.459
64092SOL    HW194173   3.177  13.863  14.427
64092SOL    HW294174   3.289  13.928  14.505
64093SOL     OW94175   0.640  10.357   7.847
64093SOL    HW194176   0.600  10.366   7.934
64093SOL    HW294177   0.689  10.275   7.852
64094SOL     OW94178  11.051   4.151   3.673
64094SOL    HW194179  11.060   4.222   3.609
64094SOL    HW294180  11.007   4.081   3.625
64095SOL     OW94181   4.621   4.592  11.089
64095SOL    HW194182   4.665   4.643  11.021
64095SOL    HW294183   4.691   4.569  11.150
64096SOL     OW94184   2.424   7.925  12.038
64096SOL    HW194185   2.342   7.969  12.061
64096SOL    HW294186   2.401   7.832  12.036
64097SOL     OW94187   6.526   5.628   9.137
64097SOL    HW194188   6.527   5.557   9.201
64097SOL    HW294189   6.617   5.636   9.108
64098SOL     OW94190   5.052   0.267  13.924
64098SOL    HW194191   5.086   0.271  14.014
64098SOL    HW294192   5.130   0.271  13.869
64099SOL     OW94193   6.994   6.913   3.704
64099SOL    HW194194   7.034   6.959   3.630
64099SOL    HW294195   7.067   6.874   3.752
64100SOL     OW94196  10.007   0.298  12.932
64100SOL    HW194197  10.078   0.329  12.988
64100SOL    HW294198   9.973   0.221  12.977
64101SOL     OW94199   7.505   0.796  11.480
64101SOL    HW194200   7.443   0.865  11.455
64101SOL    HW294201   7.589   0.826  11.446
64102SOL     OW94202   4.355  13.776   8.033
64102SOL    HW194203   4.408  13.810   7.960
64102SOL    HW294204   4.385  13.825   8.109
64103SOL     OW94205   1.703   8.641   2.078
64103SOL    HW194206   1.776   8.702   2.088
64103SOL    HW294207   1.654   8.674   2.003
64104SOL     OW94208  11.779   5.491   1.009
64104SOL    HW194209  11.808   5.421   0.951
64104SOL    HW294210  11.785   5.571   0.956
64105SOL     OW94211   3.853   1.375  12.493
64105SOL    HW194212   3.897   1.304  12.447
64105SOL    HW294213   3.766   1.378  12.454
64106SOL     OW94214  12.580   5.587   4.085
64106SOL    HW194215  12.532   5.598   4.003
64106SOL    HW294216  12.611   5.675   4.107
64107SOL     OW94217  13.322   9.627   2.349
64107SOL    HW194218  13.311   9.701   2.289
64107SOL    HW294219  13.392   9.575   2.310
64108SOL     OW94220   9.367   6.680   1.217
64108SOL    HW194221   9.300   6.748   1.217
64108SOL    HW294222   9.320   6.601   1.190
64109SOL     OW94223  11.317   5.636   9.391
64109SOL    HW194224  11.262   5.700   9.437
64109SOL    HW294225  11.404   5.647   9.429
64110SOL     OW94226   6.731  10.630   9.102
64110SOL    HW194227   6.775  10.660   9.182
64110SOL    HW294228   6.794  10.571   9.061
64111SOL     OW94229  14.417  11.860  14.723
64111SOL    HW194230  14.435  11.836  14.813
64111SOL    HW294231  14.358  11.792  14.690
64112SOL     OW94232   5.632   3.234   9.164
64112SOL    HW194233   5.689   3.294   9.212
64112SOL    HW294234   5.544   3.271   9.174
64113SOL     OW94235  14.422   9.439   0.894
64113SOL    HW194236  14.511   9.450   0.859
64113SOL    HW294237  14.374   9.398   0.822
64114SOL     OW94238   2.980   4.114  11.674
64114SOL    HW194239   3.027   4.042  11.631
64114SOL    HW294240   2.980   4.090  11.767
64115SOL     OW94241   9.037  14.346   6.805
64115SOL    HW194242   9.080  14.262   6.788
64115SOL    HW294243   9.096  14.392   6.864
64116SOL     OW94244  12.052  14.581   6.847
64116SOL    HW194245  12.006  14.523   6.786
64116SOL    HW294246  12.122  14.620   6.794
64117SOL     OW94247   6.763   6.559  10.886
64117SOL    HW194248   6.857   6.568  10.898
64117SOL    HW294249   6.752   6.471  10.849
64118SOL     OW94250   9.188  12.891  12.241
64118SOL    HW194251   9.177  12.982  12.215
64118SOL    HW294252   9.212  12.846  12.160
64119SOL     OW94253   3.375   7.404   3.332
64119SOL    HW194254   3.424   7.322   3.326
64119SOL    HW294255   3.434   7.465   3.375
64120SOL     OW94256   3.925   8.617   5.462
64120SOL    HW194257   3.991   8.586   5.399
64120SOL    HW294258   3.962   8.595   5.547
64121SOL     OW94259   3.232  13.957   3.434
64121SOL    HW194260   3.274  14.040   3.412
64121SOL    HW294261   3.239  13.905   3.353
64122SOL     OW94262   1.924   4.426  14.439
64122SOL    HW194263   1.882   4.485  14.377
64122SOL    HW294264   1.858   4.411  14.507
64123SOL     OW94265   4.484   4.794  13.183
64123SOL    HW194266   4.574   4.780  13.212
64123SOL    HW294267   4.455   4.871  13.231
64124SOL     OW94268   0.158  14.723   9.313
64124SOL    HW194269   0.094  14.655   9.335
64124SOL    HW294270   0.144  14.738   9.219
64125SOL     OW94271  14.660   2.538   5.460
64125SOL    HW194272  14.725   2.467   5.457
64125SOL    HW294273  14.712   2.618   5.452
64126SOL     OW94274  12.585   4.781   3.624
64126SOL    HW194275  12.500   4.754   3.587
64126SOL    HW294276  12.567   4.795   3.717
64127SOL     OW94277   0.031   3.531   6.238
64127SOL    HW194278   0.103   3.543   6.300
64127SOL    HW294279   0.006   3.439   6.246
64128SOL     OW94280   4.852  11.496   4.582
64128SOL    HW194281   4.867  11.569   4.641
64128SOL    HW294282   4.762  11.469   4.599
64129SOL     OW94283   5.488   0.928  12.764
64129SOL    HW194284   5.470   0.834  12.761
64129SOL    HW294285   5.420   0.968  12.711
64130SOL     OW94286   7.457   9.084  14.425
64130SOL    HW194287   7.477   9.110  14.335
64130SOL    HW294288   7.479   9.160  14.478
64131SOL     OW94289  14.781   4.387   1.485
64131SOL    HW194290  14.851   4.441   1.521
64131SOL    HW294291  14.790   4.303   1.531
64132SOL     OW94292   0.696   7.617   8.869
64132SOL    HW194293   0.782   7.577   8.880
64132SOL    HW294294   0.634   7.547   8.891
64133SOL     OW94295   6.957   9.876  12.459
64133SOL    HW194296   7.049   9.855  12.478
64133SOL    HW294297   6.959   9.913  12.370
64134SOL     OW94298  10.442  13.436   5.723
64134SOL    HW194299  10.407  13.448   5.811
64134SOL    HW294300  10.375  13.474   5.666
64135SOL     OW94301   6.263   2.430   7.629
64135SOL    HW194302   6.216   2.472   7.557
64135SOL    HW294303   6.356   2.440   7.606
64136SOL     OW94304   6.119   8.955   4.481
64136SOL    HW194305   6.034   8.941   4.439
64136SOL    HW294306   6.137   8.872   4.526
64137SOL     OW94307   5.347   8.837   9.984
64137SOL    HW194308   5.317   8.885  10.061
64137SOL    HW294309   5.337   8.745  10.008
64138SOL     OW94310   9.190   6.870   1.129
64138SOL    HW194311   9.230   6.945   1.086
64138SOL    HW294312   9.096   6.890   1.130
64139SOL     OW94313  10.369  10.742  11.413
64139SOL    HW194314  10.394  10.672  11.353
64139SOL    HW294315  10.438  10.807  11.403
64140SOL     OW94316  10.817  10.750   8.928
64140SOL    HW194317  10.890  10.689   8.936
64140SOL    HW294318  10.748  10.698   8.885
64141SOL     OW94319   6.727  10.130  13.841
64141SOL    HW194320   6.689  10.050  13.875
64141SOL    HW294321   6.708  10.196  13.908
64142SOL     OW94322   7.816   0.069   0.810
64142SOL    HW194323   7.891   0.108   0.855
64142SOL    HW294324   7.740   0.113   0.848
64143SOL     OW94325   7.075   2.601  10.675
64143SOL    HW194326   7.115   2.576  10.592
64143SOL    HW294327   7.134   2.667  10.711
64144SOL     OW94328   5.615  11.017  13.958
64144SOL    HW194329   5.579  10.928  13.949
64144SOL    HW294330   5.569  11.068  13.892
64145SOL     OW94331   8.393   2.082   0.241
64145SOL    HW194332   8.382   2.159   0.185
64145SOL    HW294333   8.442   2.020   0.188
64146SOL     OW94334   4.020   4.477  14.871
64146SOL    HW194335   3.946   4.426  14.838
64146SOL    HW294336   4.073   4.414   0.041
64147SOL     OW94337  11.466  12.009  11.500
64147SOL    HW194338  11.452  11.988  11.407
64147SOL    HW294339  11.559  12.029  11.506
64148SOL     OW94340   9.919   1.593   9.899
64148SOL    HW194341   9.872   1.658   9.951
64148SOL    HW294342   9.909   1.511   9.947
64149SOL     OW94343   8.902  12.213  12.712
64149SOL    HW194344   8.895  12.307  12.696
64149SOL    HW294345   8.868  12.201  12.801
64150SOL     OW94346  11.723   8.724   0.962
64150SOL    HW194347  11.669   8.677   0.898
64150SOL    HW294348  11.809   8.683   0.954
64151SOL     OW94349  14.294   4.037  12.663
64151SOL    HW194350  14.312   3.987  12.742
64151SOL    HW294351  14.229   4.101  12.689
64152SOL     OW94352   6.402   3.170  10.312
64152SOL    HW194353   6.384   3.195  10.221
64152SOL    HW294354   6.349   3.230  10.364
64153SOL     OW94355   9.397   4.083   6.884
64153SOL    HW194356   9.470   4.048   6.835
64153SOL    HW294357   9.434   4.106   6.969
64154SOL     OW94358   8.492   1.597  13.790
64154SOL    HW194359   8.445   1.678  13.810
64154SOL    HW294360   8.553   1.586  13.862
64155SOL     OW94361   2.788   7.410   3.597
64155SOL    HW194362   2.727   7.471   3.556
64155SOL    HW294363   2.736   7.334   3.619
64156SOL     OW94364   3.050   4.995  11.450
64156SOL    HW194365   3.124   4.986  11.389
64156SOL    HW294366   2.979   4.947  11.409
64157SOL     OW94367  13.414  12.862  12.282
64157SOL    HW194368  13.440  12.827  12.368
64157SOL    HW294369  13.389  12.953  12.300
64158SOL     OW94370  14.266   1.872   0.868
64158SOL    HW194371  14.288   1.873   0.774
64158SOL    HW294372  14.309   1.793   0.901
64159SOL     OW94373  13.790   0.677  14.476
64159SOL    HW194374  13.744   0.629  14.546
64159SOL    HW294375  13.828   0.752  14.521
64160SOL     OW94376   6.316  12.749  10.817
64160SOL    HW194377   6.355  12.807  10.882
64160SOL    HW294378   6.381  12.680  10.805
64161SOL     OW94379   4.724   9.614   1.360
64161SOL    HW194380   4.748   9.589   1.271
64161SOL    HW294381   4.651   9.556   1.382
64162SOL     OW94382   8.278   1.301   0.066
64162SOL    HW194383   8.217   1.275  14.876
64162SOL    HW294384   8.288   1.222   0.119
64163SOL     OW94385   1.491  14.145  13.165
64163SOL    HW194386   1.535  14.218  13.120
64163SOL    HW294387   1.492  14.074  13.101
64164SOL     OW94388   7.457   5.679  13.176
64164SOL    HW194389   7.461   5.725  13.092
64164SOL    HW294390   7.464   5.749  13.241
64165SOL     OW94391   5.742   7.171   7.911
64165SOL    HW194392   5.767   7.176   7.819
64165SOL    HW294393   5.757   7.259   7.945
64166SOL     OW94394   5.545   5.295   6.581
64166SOL    HW194395   5.581   5.329   6.663
64166SOL    HW294396   5.614   5.309   6.517
64167SOL     OW94397   3.020   1.328  13.558
64167SOL    HW194398   2.929   1.305  13.576
64167SOL    HW294399   3.035   1.408  13.607
64168SOL     OW94400  11.496   6.865   8.317
64168SOL    HW194401  11.528   6.830   8.400
64168SOL    HW294402  11.545   6.818   8.250
64169SOL     OW94403   5.921   0.228   9.377
64169SOL    HW194404   6.011   0.196   9.373
64169SOL    HW294405   5.929   0.323   9.366
64170SOL     OW94406   4.757  10.437   1.276
64170SOL    HW194407   4.714  10.423   1.192
64170SOL    HW294408   4.684  10.450   1.338
64171SOL     OW94409   4.811  14.300  13.840
64171SOL    HW194410   4.733  14.271  13.887
64171SOL    HW294411   4.877  14.233  13.859
64172SOL     OW94412   2.467   7.548   5.680
64172SOL    HW194413   2.450   7.549   5.774
64172SOL    HW294414   2.383   7.571   5.640
64173SOL     OW94415   3.421   4.725  13.885
64173SOL    HW194416   3.389   4.644  13.845
64173SOL    HW294417   3.481   4.695  13.954
64174SOL     OW94418   4.986   3.294   8.727
64174SOL    HW194419   5.052   3.296   8.796
64174SOL    HW294420   5.009   3.367   8.669
64175SOL     OW94421   5.575   6.714   3.277
64175SOL    HW194422   5.612   6.659   3.208
64175SOL    HW294423   5.481   6.713   3.260
64176SOL     OW94424   3.204   5.291   3.710
64176SOL    HW194425   3.219   5.344   3.788
64176SOL    HW294426   3.175   5.353   3.643
64177SOL     OW94427   5.694   0.616   4.467
64177SOL    HW194428   5.736   0.698   4.440
64177SOL    HW294429   5.608   0.619   4.426
64178SOL     OW94430   8.369   8.097  11.142
64178SOL    HW194431   8.421   8.018  11.157
64178SOL    HW294432   8.334   8.085  11.054
64179SOL     OW94433   1.947   2.438  11.858
64179SOL    HW194434   1.883   2.500  11.824
64179SOL    HW294435   2.023   2.491  11.882
64180SOL     OW94436   7.776   5.240   7.448
64180SOL    HW194437   7.805   5.323   7.412
64180SOL    HW294438   7.838   5.176   7.413
64181SOL     OW94439   3.251  12.558   4.800
64181SOL    HW194440   3.254  12.602   4.715
64181SOL    HW294441   3.282  12.469   4.781
64182SOL     OW94442   3.517   7.315   1.951
64182SOL    HW194443   3.476   7.398   1.976
64182SOL    HW294444   3.465   7.249   1.996
64183SOL     OW94445   7.933   4.362   8.502
64183SOL    HW194446   7.940   4.457   8.496
64183SOL    HW294447   7.957   4.330   8.415
64184SOL     OW94448   9.009   5.405  13.595
64184SOL    HW194449   9.039   5.486  13.638
64184SOL    HW294450   9.089   5.354  13.580
64185SOL     OW94451   5.807   9.412   7.220
64185SOL    HW194452   5.831   9.328   7.180
64185SOL    HW294453   5.828   9.478   7.155
64186SOL     OW94454   2.134   3.583  13.956
64186SOL    HW194455   2.141   3.604  13.863
64186SOL    HW294456   2.224   3.564  13.984
64187SOL     OW94457   3.037  13.882  11.183
64187SOL    HW194458   3.043  13.845  11.095
64187SOL    HW294459   3.128  13.900  11.207
64188SOL     OW94460  14.574   4.154  13.068
64188SOL    HW194461  14.518   4.078  13.053
64188SOL    HW294462  14.514   4.227  13.080
64189SOL     OW94463  11.257  12.082  14.408
64189SOL    HW194464  11.260  12.178  14.408
64189SOL    HW294465  11.325  12.057  14.345
64190SOL     OW94466   5.763   1.543   3.617
64190SOL    HW194467   5.858   1.543   3.610
64190SOL    HW294468   5.737   1.632   3.594
64191SOL     OW94469   1.498  11.700  13.303
64191SOL    HW194470   1.537  11.779  13.266
64191SOL    HW294471   1.436  11.671  13.236
64192SOL     OW94472  13.967   9.835   2.563
64192SOL    HW194473  13.987   9.900   2.496
64192SOL    HW294474  13.873   9.845   2.579
64193SOL     OW94475   5.813   9.326   7.485
64193SOL    HW194476   5.788   9.342   7.394
64193SOL    HW294477   5.739   9.357   7.537
64194SOL     OW94478   0.574   6.119   0.301
64194SOL    HW194479   0.579   6.138   0.207
64194SOL    HW294480   0.645   6.170   0.339
64195SOL     OW94481   5.323  10.850   9.743
64195SOL    HW194482   5.240  10.804   9.757
64195SOL    HW294483   5.390  10.785   9.762
64196SOL     OW94484   7.140  13.892   6.896
64196SOL    HW194485   7.140  13.946   6.975
64196SOL    HW294486   7.232  13.868   6.884
64197SOL     OW94487  13.405  14.498  13.971
64197SOL    HW194488  13.382  14.537  14.056
64197SOL    HW294489  13.353  14.547  13.908
64198SOL     OW94490   5.072   4.615   7.564
64198SOL    HW194491   5.114   4.693   7.600
64198SOL    HW294492   4.978   4.634   7.570
64199SOL     OW94493   2.124   5.333   5.288
64199SOL    HW194494   2.182   5.257   5.290
64199SOL    HW294495   2.142   5.375   5.204
64200SOL     OW94496   3.473   2.109   3.338
64200SOL    HW194497   3.525   2.044   3.291
64200SOL    HW294498   3.385   2.072   3.343
64201SOL     OW94499   5.310   1.003   7.076
64201SOL    HW194500   5.386   1.054   7.047
64201SOL    HW294501   5.234   1.057   7.053
64202SOL     OW94502  10.916   9.298   7.242
64202SOL    HW194503  10.872   9.268   7.163
64202SOL    HW294504  10.892   9.390   7.250
64203SOL     OW94505   2.025   1.359   8.860
64203SOL    HW194506   1.998   1.402   8.779
64203SOL    HW294507   2.057   1.273   8.832
64204SOL     OW94508  12.038   6.205  10.285
64204SOL    HW194509  12.004   6.287  10.322
64204SOL    HW294510  11.995   6.136  10.334
64205SOL     OW94511   4.175   8.095   5.111
64205SOL    HW194512   4.127   8.176   5.097
64205SOL    HW294513   4.142   8.061   5.194
64206SOL     OW94514  14.832   8.927   3.816
64206SOL    HW194515   0.040   8.964   3.809
64206SOL    HW294516  14.776   9.001   3.836
64207SOL     OW94517   8.829  11.396   4.176
64207SOL    HW194518   8.788  11.324   4.128
64207SOL    HW294519   8.838  11.465   4.111
64208SOL     OW94520   8.016   6.142   0.494
64208SOL    HW194521   7.973   6.136   0.408
64208SOL    HW294522   7.974   6.074   0.547
64209SOL     OW94523   2.904   0.100   0.985
64209SOL    HW194524   2.908   0.096   0.889
64209SOL    HW294525   2.914   0.009   1.013
64210SOL     OW94526   9.243   1.646  10.182
64210SOL    HW194527   9.200   1.720  10.139
64210SOL    HW294528   9.285   1.685  10.259
64211SOL     OW94529  11.813   8.842  14.412
64211SOL    HW194530  11.840   8.857  14.503
64211SOL    HW294531  11.765   8.922  14.388
64212SOL     OW94532  11.128  11.350   3.028
64212SOL    HW194533  11.122  11.271   3.082
64212SOL    HW294534  11.220  11.354   3.002
64213SOL     OW94535  12.148   5.078   9.321
64213SOL    HW194536  12.126   4.985   9.319
64213SOL    HW294537  12.121   5.106   9.409
64214SOL     OW94538  14.138  14.539   9.805
64214SOL    HW194539  14.190  14.512   9.881
64214SOL    HW294540  14.171  14.625   9.783
64215SOL     OW94541   0.740   3.674   3.671
64215SOL    HW194542   0.674   3.625   3.721
64215SOL    HW294543   0.745   3.628   3.587
64216SOL     OW94544   9.432   8.174   1.040
64216SOL    HW194545   9.458   8.248   0.986
64216SOL    HW294546   9.502   8.166   1.105
64217SOL     OW94547  11.147   9.540   8.609
64217SOL    HW194548  11.070   9.557   8.663
64217SOL    HW294549  11.112   9.504   8.528
64218SOL     OW94550  12.642  14.744   2.823
64218SOL    HW194551  12.601  14.792   2.751
64218SOL    HW294552  12.653  14.808   2.893
64219SOL     OW94553   9.760  12.332  10.053
64219SOL    HW194554   9.806  12.249  10.040
64219SOL    HW294555   9.820  12.385  10.106
64220SOL     OW94556  12.140  10.681   5.421
64220SOL    HW194557  12.100  10.644   5.342
64220SOL    HW294558  12.207  10.741   5.388
64221SOL     OW94559   8.263   2.038   3.210
64221SOL    HW194560   8.210   2.027   3.131
64221SOL    HW294561   8.202   2.020   3.282
64222SOL     OW94562   3.836   1.362   2.598
64222SOL    HW194563   3.859   1.290   2.539
64222SOL    HW294564   3.741   1.355   2.610
64223SOL     OW94565   6.359   9.978  14.753
64223SOL    HW194566   6.340   9.975  14.660
64223SOL    HW294567   6.322  10.062  14.783
64224SOL     OW94568   3.991   4.625   4.045
64224SOL    HW194569   3.914   4.676   4.070
64224SOL    HW294570   4.001   4.640   3.951
64225SOL     OW94571   6.438   8.842   8.028
64225SOL    HW194572   6.383   8.857   8.105
64225SOL    HW294573   6.451   8.747   8.026
64226SOL     OW94574  11.935   6.969   4.305
64226SOL    HW194575  11.840   6.956   4.294
64226SOL    HW294576  11.945   7.002   4.394
64227SOL     OW94577  11.642  14.588   1.687
64227SOL    HW194578  11.673  14.528   1.756
64227SOL    HW294579  11.548  14.597   1.704
64228SOL     OW94580   5.062   0.227  14.191
64228SOL    HW194581   5.007   0.267  14.258
64228SOL    HW294582   5.105   0.154  14.235
64229SOL     OW94583   1.027   1.429   8.966
64229SOL    HW194584   1.075   1.358   8.923
64229SOL    HW294585   1.083   1.455   9.039
64230SOL     OW94586   8.030   9.319   9.955
64230SOL    HW194587   8.093   9.390   9.949
64230SOL    HW294588   7.949   9.356   9.920
64231SOL     OW94589   5.958   2.654  12.166
64231SOL    HW194590   5.879   2.660  12.220
64231SOL    HW294591   5.948   2.724  12.101
64232SOL     OW94592   0.300   8.987  13.672
64232SOL    HW194593   0.285   8.940  13.754
64232SOL    HW294594   0.230   9.052  13.669
64233SOL     OW94595  13.986   3.578   6.101
64233SOL    HW194596  13.942   3.647   6.150
64233SOL    HW294597  13.960   3.497   6.144
64234SOL     OW94598   1.691   8.356   6.464
64234SOL    HW194599   1.764   8.415   6.484
64234SOL    HW294600   1.730   8.289   6.407
64235SOL     OW94601  12.861  13.551   4.127
64235SOL    HW194602  12.935  13.562   4.067
64235SOL    HW294603  12.786  13.583   4.078
64236SOL     OW94604   5.012  12.234   3.275
64236SOL    HW194605   4.970  12.320   3.267
64236SOL    HW294606   5.038  12.212   3.185
64237SOL     OW94607  12.309  12.597   7.958
64237SOL    HW194608  12.324  12.553   7.875
64237SOL    HW294609  12.275  12.529   8.016
64238SOL     OW94610  11.973  11.864   5.487
64238SOL    HW194611  11.950  11.789   5.433
64238SOL    HW294612  11.916  11.934   5.457
64239SOL     OW94613  14.493   6.545  13.637
64239SOL    HW194614  14.519   6.622  13.689
64239SOL    HW294615  14.574   6.517  13.594
64240SOL     OW94616   6.386   5.306   5.722
64240SOL    HW194617   6.455   5.337   5.663
64240SOL    HW294618   6.431   5.295   5.806
64241SOL     OW94619  14.190  10.799   4.539
64241SOL    HW194620  14.218  10.814   4.449
64241SOL    HW294621  14.222  10.712   4.560
64242SOL     OW94622   4.107  11.076   7.333
64242SOL    HW194623   4.183  11.039   7.289
64242SOL    HW294624   4.065  11.001   7.376
64243SOL     OW94625   0.248  10.957   9.070
64243SOL    HW194626   0.284  10.883   9.118
64243SOL    HW294627   0.325  11.005   9.038
64244SOL     OW94628  10.787   2.510   3.846
64244SOL    HW194629  10.845   2.437   3.866
64244SOL    HW294630  10.712   2.498   3.906
64245SOL     OW94631  13.816   4.057   8.726
64245SOL    HW194632  13.905   4.022   8.724
64245SOL    HW294633  13.823   4.135   8.781
64246SOL     OW94634  13.546  10.559  11.116
64246SOL    HW194635  13.546  10.654  11.104
64246SOL    HW294636  13.590  10.524  11.039
64247SOL     OW94637   4.242  12.288   1.419
64247SOL    HW194638   4.257  12.356   1.353
64247SOL    HW294639   4.295  12.316   1.494
64248SOL     OW94640   6.473   7.515   9.086
64248SOL    HW194641   6.558   7.488   9.051
64248SOL    HW294642   6.478   7.611   9.086
64249SOL     OW94643  10.455   4.898   6.712
64249SOL    HW194644  10.530   4.839   6.721
64249SOL    HW294645  10.432   4.893   6.619
64250SOL     OW94646   7.947   6.489   8.647
64250SOL    HW194647   7.903   6.404   8.647
64250SOL    HW294648   7.987   6.495   8.734
64251SOL     OW94649   5.251   7.124   0.572
64251SOL    HW194650   5.244   7.061   0.644
64251SOL    HW294651   5.336   7.166   0.586
64252SOL     OW94652  13.539   1.406   8.614
64252SOL    HW194653  13.599   1.426   8.542
64252SOL    HW294654  13.562   1.317   8.641
64253SOL     OW94655   2.972   6.909   3.642
64253SOL    HW194656   3.026   6.884   3.717
64253SOL    HW294657   2.899   6.958   3.680
64254SOL     OW94658   2.941   7.984   8.966
64254SOL    HW194659   2.927   7.892   8.945
64254SOL    HW294660   2.868   8.008   9.022
64255SOL     OW94661   3.668   5.320   5.312
64255SOL    HW194662   3.674   5.412   5.286
64255SOL    HW294663   3.710   5.272   5.240
64256SOL     OW94664   4.597   9.754   0.298
64256SOL    HW194665   4.634   9.783   0.382
64256SOL    HW294666   4.504   9.775   0.305
64257SOL     OW94667   9.123   5.872  12.533
64257SOL    HW194668   9.200   5.850  12.481
64257SOL    HW294669   9.063   5.799  12.519
64258SOL     OW94670  10.463   6.164   2.785
64258SOL    HW194671  10.471   6.249   2.743
64258SOL    HW294672  10.464   6.101   2.713
64259SOL     OW94673   3.756  11.804   3.564
64259SOL    HW194674   3.721  11.781   3.650
64259SOL    HW294675   3.811  11.729   3.539
64260SOL     OW94676   3.044   6.577   2.285
64260SOL    HW194677   3.045   6.645   2.352
64260SOL    HW294678   3.017   6.498   2.332
64261SOL     OW94679   5.809   4.555   3.756
64261SOL    HW194680   5.747   4.598   3.816
64261SOL    HW294681   5.886   4.611   3.756
64262SOL     OW94682   5.734   7.600   2.824
64262SOL    HW194683   5.733   7.510   2.791
64262SOL    HW294684   5.819   7.609   2.866
64263SOL     OW94685   0.261   0.539   0.048
64263SOL    HW194686   0.332   0.491   0.091
64263SOL    HW294687   0.259   0.624   0.093
64264SOL     OW94688   0.370   3.128   4.193
64264SOL    HW194689   0.421   3.120   4.113
64264SOL    HW294690   0.373   3.041   4.232
64265SOL     OW94691   2.645  11.055   3.103
64265SOL    HW194692   2.554  11.071   3.128
64265SOL    HW294693   2.640  10.994   3.029
64266SOL     OW94694   2.839  10.518  10.817
64266SOL    HW194695   2.861  10.430  10.785
64266SOL    HW294696   2.759  10.541  10.770
64267SOL     OW94697   4.635   9.111   8.607
64267SOL    HW194698   4.670   9.108   8.518
64267SOL    HW294699   4.693   9.054   8.658
64268SOL     OW94700   3.258   0.285   5.839
64268SOL    HW194701   3.189   0.285   5.906
64268SOL    HW294702   3.211   0.276   5.756
64269SOL     OW94703   8.288   3.199   2.632
64269SOL    HW194704   8.339   3.195   2.551
64269SOL    HW294705   8.203   3.236   2.606
64270SOL     OW94706  11.201   1.777   7.618
64270SOL    HW194707  11.118   1.729   7.619
64270SOL    HW294708  11.203   1.823   7.702
64271SOL     OW94709  14.815   2.328   5.396
64271SOL    HW194710  14.825   2.239   5.428
64271SOL    HW294711  14.783   2.318   5.306
64272SOL     OW94712  14.584   7.328  11.391
64272SOL    HW194713  14.624   7.262  11.447
64272SOL    HW294714  14.657   7.364  11.340
64273SOL     OW94715  13.550   6.876   4.590
64273SOL    HW194716  13.495   6.932   4.534
64273SOL    HW294717  13.490   6.810   4.624
64274SOL     OW94718   6.435   9.510   6.845
64274SOL    HW194719   6.430   9.602   6.872
64274SOL    HW294720   6.365   9.467   6.893
64275SOL     OW94721  10.176   9.230   5.425
64275SOL    HW194722  10.183   9.325   5.419
64275SOL    HW294723  10.092   9.210   5.383
64276SOL     OW94724   8.976   2.385   1.388
64276SOL    HW194725   8.931   2.469   1.395
64276SOL    HW294726   9.063   2.401   1.423
64277SOL     OW94727   9.419   2.682   9.275
64277SOL    HW194728   9.390   2.597   9.242
64277SOL    HW294729   9.344   2.716   9.323
64278SOL     OW94730   1.647   1.892   0.056
64278SOL    HW194731   1.618   1.809   0.018
64278SOL    HW294732   1.678   1.942  14.860
64279SOL     OW94733  14.871  13.284   3.417
64279SOL    HW194734  14.820  13.322   3.489
64279SOL    HW294735   0.021  13.360   3.367
64280SOL     OW94736   1.911  11.076   6.127
64280SOL    HW194737   1.892  11.031   6.045
64280SOL    HW294738   1.856  11.033   6.192
64281SOL     OW94739   4.144   8.834  10.496
64281SOL    HW194740   4.065   8.877  10.462
64281SOL    HW294741   4.121   8.812  10.587
64282SOL     OW94742   0.976  11.042   5.005
64282SOL    HW194743   0.939  11.123   4.968
64282SOL    HW294744   0.932  11.032   5.089
64283SOL     OW94745   8.136   0.524   9.027
64283SOL    HW194746   8.178   0.609   9.037
64283SOL    HW294747   8.208   0.462   9.017
64284SOL     OW94748   7.971   4.929  10.556
64284SOL    HW194749   8.065   4.920  10.542
64284SOL    HW294750   7.942   4.842  10.583
64285SOL     OW94751  14.033  14.545   3.576
64285SOL    HW194752  14.111  14.546   3.630
64285SOL    HW294753  14.000  14.455   3.583
64286SOL     OW94754   3.397   1.434   6.145
64286SOL    HW194755   3.380   1.385   6.225
64286SOL    HW294756   3.356   1.381   6.076
64287SOL     OW94757  14.225   8.662   5.701
64287SOL    HW194758  14.159   8.655   5.770
64287SOL    HW294759  14.275   8.581   5.707
64288SOL     OW94760   3.163   3.611   2.293
64288SOL    HW194761   3.138   3.609   2.386
64288SOL    HW294762   3.258   3.622   2.294
64289SOL     OW94763   1.505   1.588   2.402
64289SOL    HW194764   1.573   1.646   2.435
64289SOL    HW294765   1.478   1.627   2.320
64290SOL     OW94766   5.029   4.892   3.245
64290SOL    HW194767   5.070   4.904   3.331
64290SOL    HW294768   4.992   4.804   3.248
64291SOL     OW94769   9.965   5.346   3.874
64291SOL    HW194770  10.049   5.386   3.855
64291SOL    HW294771   9.932   5.394   3.950
64292SOL     OW94772   7.704  11.812   6.430
64292SOL    HW194773   7.725  11.754   6.356
64292SOL    HW294774   7.768  11.789   6.497
64293SOL     OW94775   7.037   1.528  13.858
64293SOL    HW194776   7.028   1.582  13.779
64293SOL    HW294777   6.976   1.568  13.920
64294SOL     OW94778   1.638  11.500  12.628
64294SOL    HW194779   1.720  11.497  12.677
64294SOL    HW294780   1.586  11.427  12.663
64295SOL     OW94781   6.851   1.641  11.273
64295SOL    HW194782   6.889   1.716  11.319
64295SOL    HW294783   6.914   1.570  11.289
64296SOL     OW94784   1.552   6.284  11.116
64296SOL    HW194785   1.644   6.309  11.106
64296SOL    HW294786   1.549   6.235  11.198
64297SOL     OW94787   9.842   4.535   0.157
64297SOL    HW194788   9.895   4.483   0.097
64297SOL    HW294789   9.895   4.612   0.176
64298SOL     OW94790   1.147  12.051   6.184
64298SOL    HW194791   1.064  12.073   6.142
64298SOL    HW294792   1.209  12.116   6.152
64299SOL     OW94793   3.180  12.366   9.766
64299SOL    HW194794   3.120  12.292   9.751
64299SOL    HW294795   3.141  12.413   9.839
64300SOL     OW94796   9.186  13.625   2.667
64300SOL    HW194797   9.219  13.565   2.734
64300SOL    HW294798   9.199  13.579   2.585
64301SOL     OW94799   2.077   9.721   1.175
64301SOL    HW194800   2.031   9.643   1.205
64301SOL    HW294801   2.040   9.792   1.227
64302SOL     OW94802   1.606   8.578   7.821
64302SOL    HW194803   1.605   8.519   7.897
64302SOL    HW294804   1.550   8.652   7.847
64303SOL     OW94805   0.264   7.704  13.163
64303SOL    HW194806   0.238   7.788  13.126
64303SOL    HW294807   0.208   7.640  13.118
64304SOL     OW94808   2.450   8.780   2.415
64304SOL    HW194809   2.487   8.704   2.369
64304SOL    HW294810   2.518   8.846   2.411
64305SOL     OW94811   7.755  11.089   3.925
64305SOL    HW194812   7.754  11.071   3.831
64305SOL    HW294813   7.763  11.184   3.931
64306SOL     OW94814   2.581   3.309  11.183
64306SOL    HW194815   2.531   3.279  11.259
64306SOL    HW294816   2.604   3.228  11.136
64307SOL     OW94817   9.254   5.050   8.608
64307SOL    HW194818   9.320   5.047   8.538
64307SOL    HW294819   9.195   5.120   8.582
64308SOL     OW94820  10.260   4.638   7.384
64308SOL    HW194821  10.165   4.629   7.390
64308SOL    HW294822  10.280   4.623   7.292
64309SOL     OW94823  10.935   5.459   5.191
64309SOL    HW194824  10.984   5.529   5.148
64309SOL    HW294825  10.857   5.447   5.136
64310SOL     OW94826  10.734   2.203   1.109
64310SOL    HW194827  10.810   2.155   1.075
64310SOL    HW294828  10.668   2.136   1.126
64311SOL     OW94829   3.119   2.263   5.460
64311SOL    HW194830   3.160   2.348   5.444
64311SOL    HW294831   3.078   2.241   5.376
64312SOL     OW94832   0.122   3.675   9.736
64312SOL    HW194833   0.045   3.645   9.785
64312SOL    HW294834   0.113   3.633   9.650
64313SOL     OW94835  12.295   1.193   8.284
64313SOL    HW194836  12.374   1.182   8.231
64313SOL    HW294837  12.326   1.197   8.374
64314SOL     OW94838  13.196  10.365   9.054
64314SOL    HW194839  13.213  10.318   8.972
64314SOL    HW294840  13.283  10.382   9.090
64315SOL     OW94841   1.421  12.176  14.193
64315SOL    HW194842   1.488  12.168  14.124
64315SOL    HW294843   1.373  12.255  14.170
64316SOL     OW94844   1.188   4.788  10.789
64316SOL    HW194845   1.191   4.692  10.789
64316SOL    HW294846   1.187   4.811  10.882
64317SOL     OW94847  10.317   2.385   0.006
64317SOL    HW194848  10.322   2.465  14.833
64317SOL    HW294849  10.255   2.329  14.838
64318SOL     OW94850   6.563   7.876   5.388
64318SOL    HW194851   6.492   7.845   5.445
64318SOL    HW294852   6.536   7.851   5.300
64319SOL     OW94853  10.218   5.281   2.269
64319SOL    HW194854  10.149   5.231   2.313
64319SOL    HW294855  10.172   5.337   2.207
64320SOL     OW94856  10.664  12.888   4.564
64320SOL    HW194857  10.607  12.964   4.551
64320SOL    HW294858  10.656  12.837   4.484
64321SOL     OW94859  11.394   7.060   0.943
64321SOL    HW194860  11.426   7.035   1.030
64321SOL    HW294861  11.396   7.156   0.943
64322SOL     OW94862  11.514  10.905  14.086
64322SOL    HW194863  11.607  10.916  14.066
64322SOL    HW294864  11.472  10.898  14.000
64323SOL     OW94865   8.241   9.905   3.654
64323SOL    HW194866   8.166   9.858   3.691
64323SOL    HW294867   8.298   9.922   3.729
64324SOL     OW94868  11.472   6.398   9.963
64324SOL    HW194869  11.399   6.461   9.963
64324SOL    HW294870  11.458   6.347  10.043
64325SOL     OW94871  10.261   2.721  11.155
64325SOL    HW194872  10.245   2.807  11.194
64325SOL    HW294873  10.258   2.660  11.229
64326SOL     OW94874  12.332   5.686   4.395
64326SOL    HW194875  12.393   5.755   4.420
64326SOL    HW294876  12.247   5.716   4.429
64327SOL     OW94877   3.267   8.339  12.069
64327SOL    HW194878   3.208   8.264  12.080
64327SOL    HW294879   3.225   8.394  12.003
64328SOL     OW94880   2.562  10.813  13.801
64328SOL    HW194881   2.500  10.845  13.867
64328SOL    HW294882   2.540  10.861  13.722
64329SOL     OW94883  13.967   2.024  11.976
64329SOL    HW194884  13.974   1.940  12.021
64329SOL    HW294885  13.881   2.023  11.935
64330SOL     OW94886  11.827   0.408   4.683
64330SOL    HW194887  11.784   0.329   4.717
64330SOL    HW294888  11.917   0.402   4.716
64331SOL     OW94889   8.705   7.469   8.469
64331SOL    HW194890   8.778   7.467   8.407
64331SOL    HW294891   8.742   7.509   8.548
64332SOL     OW94892   5.509   5.870  14.347
64332SOL    HW194893   5.588   5.820  14.366
64332SOL    HW294894   5.536   5.932  14.279
64333SOL     OW94895  12.599   1.625   6.981
64333SOL    HW194896  12.682   1.607   6.937
64333SOL    HW294897  12.622   1.684   7.053
64334SOL     OW94898   3.244  11.385   5.247
64334SOL    HW194899   3.311  11.316   5.240
64334SOL    HW294900   3.185  11.353   5.316
64335SOL     OW94901   9.699   4.176   0.452
64335SOL    HW194902   9.712   4.247   0.388
64335SOL    HW294903   9.610   4.190   0.484
64336SOL     OW94904   6.606   2.804   8.771
64336SOL    HW194905   6.540   2.863   8.806
64336SOL    HW294906   6.560   2.751   8.707
64337SOL     OW94907  12.920   5.289  12.057
64337SOL    HW194908  13.004   5.291  12.012
64337SOL    HW294909  12.943   5.273  12.149
64338SOL     OW94910   4.330  13.930  12.968
64338SOL    HW194911   4.248  13.892  13.000
64338SOL    HW294912   4.386  13.934  13.045
64339SOL     OW94913   4.245   0.837   7.273
64339SOL    HW194914   4.229   0.777   7.200
64339SOL    HW294915   4.160   0.875   7.293
64340SOL     OW94916  14.127   7.508   2.745
64340SOL    HW194917  14.204   7.478   2.697
64340SOL    HW294918  14.147   7.490   2.836
64341SOL     OW94919  13.526   3.311  11.163
64341SOL    HW194920  13.602   3.317  11.106
64341SOL    HW294921  13.522   3.218  11.188
64342SOL     OW94922   6.011   6.901   2.860
64342SOL    HW194923   6.080   6.849   2.817
64342SOL    HW294924   6.054   6.983   2.884
64343SOL     OW94925  11.896   4.192   5.075
64343SOL    HW194926  11.934   4.264   5.025
64343SOL    HW294927  11.871   4.128   5.009
64344SOL     OW94928  11.829  14.183   7.766
64344SOL    HW194929  11.787  14.104   7.800
64344SOL    HW294930  11.764  14.252   7.777
64345SOL     OW94931  14.674   8.879  11.087
64345SOL    HW194932  14.583   8.907  11.088
64345SOL    HW294933  14.683   8.828  11.006
64346SOL     OW94934   9.294   9.536  12.138
64346SOL    HW194935   9.362   9.533  12.205
64346SOL    HW294936   9.342   9.536  12.055
64347SOL     OW94937   0.471   9.782   3.603
64347SOL    HW194938   0.494   9.874   3.588
64347SOL    HW294939   0.511   9.736   3.529
64348SOL     OW94940  14.160  11.412   0.316
64348SOL    HW194941  14.148  11.330   0.268
64348SOL    HW294942  14.230  11.393   0.378
64349SOL     OW94943   2.566   8.124   0.410
64349SOL    HW194944   2.585   8.070   0.333
64349SOL    HW294945   2.471   8.134   0.410
64350SOL     OW94946   4.313   5.110  14.037
64350SOL    HW194947   4.396   5.151  14.060
64350SOL    HW294948   4.250   5.147  14.100
64351SOL     OW94949  14.250  11.685  13.367
64351SOL    HW194950  14.324  11.701  13.426
64351SOL    HW294951  14.257  11.753  13.300
64352SOL     OW94952   4.564  11.280  13.760
64352SOL    HW194953   4.484  11.304  13.807
64352SOL    HW294954   4.615  11.230  13.824
64353SOL     OW94955   5.858   9.821   1.849
64353SOL    HW194956   5.874   9.740   1.800
64353SOL    HW294957   5.884   9.891   1.790
64354SOL     OW94958  14.271  13.782   9.008
64354SOL    HW194959  14.212  13.849   9.043
64354SOL    HW294960  14.222  13.743   8.935
64355SOL     OW94961  12.332   0.314   4.130
64355SOL    HW194962  12.278   0.377   4.177
64355SOL    HW294963  12.289   0.230   4.146
64356SOL     OW94964  13.620   7.003  13.043
64356SOL    HW194965  13.557   6.936  13.017
64356SOL    HW294966  13.571   7.060  13.103
64357SOL     OW94967   6.099  14.652   9.257
64357SOL    HW194968   6.018  14.614   9.223
64357SOL    HW294969   6.101  14.740   9.220
64358SOL     OW94970  11.802   5.291   4.415
64358SOL    HW194971  11.840   5.225   4.357
64358SOL    HW294972  11.731   5.246   4.460
64359SOL     OW94973  13.357   5.908   9.280
64359SOL    HW194974  13.438   5.892   9.232
64359SOL    HW294975  13.373   5.872   9.367
64360SOL     OW94976   3.583   9.084   9.424
64360SOL    HW194977   3.644   9.021   9.385
64360SOL    HW294978   3.585   9.159   9.364
64361SOL     OW94979  12.412   4.395   9.843
64361SOL    HW194980  12.431   4.389   9.749
64361SOL    HW294981  12.324   4.358   9.852
64362SOL     OW94982  11.152   1.334   5.461
64362SOL    HW194983  11.059   1.336   5.438
64362SOL    HW294984  11.189   1.267   5.404
64363SOL     OW94985   2.971   7.127   8.815
64363SOL    HW194986   2.993   7.066   8.886
64363SOL    HW294987   2.903   7.081   8.764
64364SOL     OW94988  11.879   7.021  12.260
64364SOL    HW194989  11.852   7.021  12.168
64364SOL    HW294990  11.973   7.000  12.257
64365SOL     OW94991   7.375   6.531  13.684
64365SOL    HW194992   7.354   6.446  13.721
64365SOL    HW294993   7.389   6.514  13.591
64366SOL     OW94994  12.863  10.464  10.557
64366SOL    HW194995  12.903  10.502  10.635
64366SOL    HW294996  12.934  10.463  10.492
64367SOL     OW94997  12.290  13.416   2.656
64367SOL    HW194998  12.272  13.391   2.566
64367SOL    HW294999  12.213  13.389   2.705
64368SOL     OW95000  13.546  11.171   1.504
64368SOL    HW195001  13.637  11.172   1.534
64368SOL    HW295002  13.496  11.209   1.577
64369SOL     OW95003   9.284  12.037   2.362
64369SOL    HW195004   9.262  12.123   2.325
64369SOL    HW295005   9.356  12.055   2.422
64370SOL     OW95006   0.953   7.189   9.487
64370SOL    HW195007   0.934   7.143   9.405
64370SOL    HW295008   1.044   7.217   9.478
64371SOL     OW95009   1.797   3.944   3.422
64371SOL    HW195010   1.794   3.892   3.341
64371SOL    HW295011   1.807   4.034   3.392
64372SOL     OW95012   2.149  10.594   3.100
64372SOL    HW195013   2.150  10.505   3.135
64372SOL    HW295014   2.057  10.618   3.098
64373SOL     OW95015   3.390   0.516  10.433
64373SOL    HW195016   3.306   0.477  10.456
64373SOL    HW295017   3.444   0.506  10.512
64374SOL     OW95018   3.202   7.525  13.871
64374SOL    HW195019   3.159   7.440  13.878
64374SOL    HW295020   3.179   7.571  13.951
64375SOL     OW95021   2.227  12.281   1.670
64375SOL    HW195022   2.299  12.223   1.695
64375SOL    HW295023   2.174  12.291   1.749
64376SOL     OW95024   0.048  14.486  11.427
64376SOL    HW195025   0.067  14.542  11.503
64376SOL    HW295026  14.838  14.508  11.402
64377SOL     OW95027  14.586   6.853   6.828
64377SOL    HW195028  14.556   6.935   6.868
64377SOL    HW295029  14.678   6.847   6.853
64378SOL     OW95030   6.783   5.664   6.753
64378SOL    HW195031   6.792   5.569   6.741
64378SOL    HW295032   6.692   5.676   6.779
64379SOL     OW95033   0.641   2.747   4.482
64379SOL    HW195034   0.552   2.719   4.501
64379SOL    HW295035   0.672   2.786   4.564
64380SOL     OW95036   5.068   7.297  10.105
64380SOL    HW195037   5.051   7.283  10.197
64380SOL    HW295038   5.021   7.227  10.060
64381SOL     OW95039  14.819   8.984   2.477
64381SOL    HW195040  14.725   8.971   2.490
64381SOL    HW295041  14.828   9.009   2.385
64382SOL     OW95042  14.186   8.345  11.348
64382SOL    HW195043  14.177   8.438  11.365
64382SOL    HW295044  14.137   8.331  11.266
64383SOL     OW95045  13.845   0.266  12.714
64383SOL    HW195046  13.754   0.286  12.739
64383SOL    HW295047  13.898   0.322  12.770
64384SOL     OW95048   2.968  13.911  10.194
64384SOL    HW195049   3.024  13.957  10.258
64384SOL    HW295050   3.025  13.843  10.157
64385SOL     OW95051   7.124   6.474   0.615
64385SOL    HW195052   7.063   6.436   0.678
64385SOL    HW295053   7.173   6.539   0.666
64386SOL     OW95054   8.206   0.079   5.544
64386SOL    HW195055   8.271   0.011   5.563
64386SOL    HW295056   8.218   0.099   5.451
64387SOL     OW95057  12.394   7.688  10.749
64387SOL    HW195058  12.369   7.780  10.762
64387SOL    HW295059  12.364   7.644  10.829
64388SOL     OW95060   3.073   6.723  10.207
64388SOL    HW195061   3.065   6.811  10.244
64388SOL    HW295062   3.000   6.674  10.246
64389SOL     OW95063   1.449   1.126   2.112
64389SOL    HW195064   1.383   1.192   2.131
64389SOL    HW295065   1.532   1.172   2.123
64390SOL     OW95066   9.535   3.416   5.020
64390SOL    HW195067   9.454   3.414   4.969
64390SOL    HW295068   9.601   3.450   4.960
64391SOL     OW95069  14.527   2.703   7.361
64391SOL    HW195070  14.546   2.654   7.441
64391SOL    HW295071  14.485   2.640   7.304
64392SOL     OW95072  12.917  11.120   3.388
64392SOL    HW195073  12.872  11.057   3.444
64392SOL    HW295074  12.848  11.179   3.357
64393SOL     OW95075  10.363  12.923   8.927
64393SOL    HW195076  10.282  12.879   8.903
64393SOL    HW295077  10.357  13.009   8.884
64394SOL     OW95078   5.487   7.717   1.129
64394SOL    HW195079   5.392   7.722   1.137
64394SOL    HW295080   5.502   7.699   1.037
64395SOL     OW95081   5.409   8.144   7.870
64395SOL    HW195082   5.356   8.212   7.911
64395SOL    HW295083   5.454   8.188   7.798
64396SOL     OW95084   9.320  11.013  10.401
64396SOL    HW195085   9.243  11.029  10.347
64396SOL    HW295086   9.364  11.098  10.406
64397SOL     OW95087  10.841   7.704  14.654
64397SOL    HW195088  10.893   7.717  14.574
64397SOL    HW295089  10.750   7.705  14.623
64398SOL     OW95090  12.745   7.831   8.590
64398SOL    HW195091  12.662   7.861   8.553
64398SOL    HW295092  12.811   7.874   8.537
64399SOL     OW95093   9.353   2.523   0.790
64399SOL    HW195094   9.413   2.449   0.798
64399SOL    HW295095   9.298   2.518   0.868
64400SOL     OW95096   6.775   7.903   1.302
64400SOL    HW195097   6.721   7.867   1.372
64400SOL    HW295098   6.759   7.845   1.227
64401SOL     OW95099   6.771   5.470   5.767
64401SOL    HW195100   6.855   5.514   5.757
64401SOL    HW295101   6.712   5.537   5.801
64402SOL     OW95102   3.804   9.711   7.286
64402SOL    HW195103   3.753   9.633   7.266
64402SOL    HW295104   3.799   9.764   7.207
64403SOL     OW95105   0.981   3.809   1.860
64403SOL    HW195106   0.898   3.783   1.901
64403SOL    HW295107   0.999   3.895   1.898
64404SOL     OW95108   0.205  10.610  12.962
64404SOL    HW195109   0.287  10.640  12.921
64404SOL    HW295110   0.179  10.683  13.018
64405SOL     OW95111   8.906   7.789   6.843
64405SOL    HW195112   8.818   7.755   6.829
64405SOL    HW295113   8.947   7.787   6.756
64406SOL     OW95114   2.887  11.063   1.568
64406SOL    HW195115   2.982  11.068   1.553
64406SOL    HW295116   2.848  11.091   1.485
64407SOL     OW95117   1.802   8.758   9.533
64407SOL    HW195118   1.805   8.673   9.576
64407SOL    HW295119   1.723   8.799   9.568
64408SOL     OW95120   4.330  12.909  13.619
64408SOL    HW195121   4.370  12.876  13.539
64408SOL    HW295122   4.247  12.948  13.590
64409SOL     OW95123   7.688   4.908  10.980
64409SOL    HW195124   7.772   4.951  10.963
64409SOL    HW295125   7.626   4.955  10.924
64410SOL     OW95126   4.326   7.018   1.434
64410SOL    HW195127   4.368   6.956   1.374
64410SOL    HW295128   4.397   7.076   1.462
64411SOL     OW95129   6.208   9.790   5.377
64411SOL    HW195130   6.247   9.809   5.292
64411SOL    HW295131   6.164   9.706   5.365
64412SOL     OW95132  13.719   7.200  13.995
64412SOL    HW195133  13.675   7.254  13.930
64412SOL    HW295134  13.702   7.244  14.079
64413SOL     OW95135   9.360   6.989   1.439
64413SOL    HW195136   9.304   6.978   1.516
64413SOL    HW295137   9.425   6.919   1.447
64414SOL     OW95138   9.784  14.400   4.133
64414SOL    HW195139   9.719  14.382   4.066
64414SOL    HW295140   9.748  14.475   4.181
64415SOL     OW95141  14.462   7.095  13.006
64415SOL    HW195142  14.413   7.066  13.084
64415SOL    HW295143  14.451   7.190  13.005
64416SOL     OW95144  10.118   2.981   3.474
64416SOL    HW195145  10.143   3.071   3.496
64416SOL    HW295146  10.154   2.967   3.386
64417SOL     OW95147   2.508  13.473   4.639
64417SOL    HW195148   2.460  13.508   4.563
64417SOL    HW295149   2.592  13.517   4.636
64418SOL     OW95150   2.975   9.131   3.659
64418SOL    HW195151   2.969   9.112   3.752
64418SOL    HW295152   3.038   9.069   3.625
64419SOL     OW95153  12.794   9.485   9.104
64419SOL    HW195154  12.778   9.468   9.197
64419SOL    HW295155  12.827   9.575   9.101
64420SOL     OW95156   8.823  14.052  11.005
64420SOL    HW195157   8.866  13.968  10.990
64420SOL    HW295158   8.814  14.091  10.918
64421SOL     OW95159  10.615  13.528   4.002
64421SOL    HW195160  10.565  13.587   3.946
64421SOL    HW295161  10.636  13.454   3.947
64422SOL     OW95162   1.825  11.989   1.424
64422SOL    HW195163   1.792  11.965   1.510
64422SOL    HW295164   1.894  12.054   1.442
64423SOL     OW95165  11.530  10.668  10.256
64423SOL    HW195166  11.464  10.605  10.228
64423SOL    HW295167  11.591  10.673  10.183
64424SOL     OW95168  14.626   2.180   7.507
64424SOL    HW195169  14.581   2.150   7.585
64424SOL    HW295170  14.558   2.222   7.454
64425SOL     OW95171   9.925  10.244   5.629
64425SOL    HW195172   9.912  10.300   5.706
64425SOL    HW295173   9.866  10.281   5.563
64426SOL     OW95174   2.780   6.562   0.336
64426SOL    HW195175   2.709   6.584   0.396
64426SOL    HW295176   2.805   6.645   0.297
64427SOL     OW95177   0.554   9.369   1.319
64427SOL    HW195178   0.596   9.340   1.237
64427SOL    HW295179   0.492   9.300   1.340
64428SOL     OW95180   5.106   3.667  11.237
64428SOL    HW195181   5.061   3.724  11.175
64428SOL    HW295182   5.120   3.585  11.188
64429SOL     OW95183   1.742   8.097  10.330
64429SOL    HW195184   1.826   8.052  10.335
64429SOL    HW295185   1.730   8.136  10.417
64430SOL     OW95186  12.959   1.946   5.716
64430SOL    HW195187  12.949   1.998   5.796
64430SOL    HW295188  12.960   2.011   5.646
64431SOL     OW95189   0.989   9.322  13.225
64431SOL    HW195190   0.907   9.298  13.267
64431SOL    HW295191   1.054   9.317  13.295
64432SOL     OW95192  11.639  11.384   1.312
64432SOL    HW195193  11.660  11.413   1.401
64432SOL    HW295194  11.600  11.461   1.270
64433SOL     OW95195   4.906  13.449   2.330
64433SOL    HW195196   4.996  13.418   2.333
64433SOL    HW295197   4.873  13.437   2.419
64434SOL     OW95198  12.584   4.476   0.903
64434SOL    HW195199  12.604   4.511   0.990
64434SOL    HW295200  12.632   4.392   0.899
64435SOL     OW95201   7.797   9.892   6.896
64435SOL    HW195202   7.857   9.965   6.912
64435SOL    HW295203   7.849   9.828   6.847
64436SOL     OW95204   0.239  11.850   2.344
64436SOL    HW195205   0.306  11.917   2.329
64436SOL    HW295206   0.238  11.839   2.439
64437SOL     OW95207  14.424   4.672   9.563
64437SOL    HW195208  14.346   4.705   9.607
64437SOL    HW295209  14.402   4.677   9.470
64438SOL     OW95210   9.290   0.792  14.275
64438SOL    HW195211   9.380   0.820  14.258
64438SOL    HW295212   9.280   0.711  14.226
64439SOL     OW95213   0.172   2.745   8.811
64439SOL    HW195214   0.228   2.747   8.734
64439SOL    HW295215   0.148   2.653   8.821
64440SOL     OW95216   2.761  10.653   4.270
64440SOL    HW195217   2.758  10.744   4.299
64440SOL    HW295218   2.764  10.658   4.174
64441SOL     OW95219   7.806  12.554   5.402
64441SOL    HW195220   7.725  12.571   5.353
64441SOL    HW295221   7.781  12.567   5.494
64442SOL     OW95222   8.195   5.052  14.665
64442SOL    HW195223   8.218   5.082  14.753
64442SOL    HW295224   8.140   5.122  14.630
64443SOL     OW95225   7.769   3.000  11.837
64443SOL    HW195226   7.720   2.932  11.790
64443SOL    HW295227   7.701   3.059  11.871
64444SOL     OW95228  13.168   0.179   9.296
64444SOL    HW195229  13.143   0.197   9.205
64444SOL    HW295230  13.150   0.261   9.343
64445SOL     OW95231   3.940   9.574   1.233
64445SOL    HW195232   3.885   9.535   1.165
64445SOL    HW295233   3.878   9.612   1.296
64446SOL     OW95234   8.174  10.799   9.055
64446SOL    HW195235   8.125  10.833   8.980
64446SOL    HW295236   8.120  10.727   9.088
64447SOL     OW95237   1.682   4.898   9.122
64447SOL    HW195238   1.638   4.834   9.067
64447SOL    HW295239   1.677   4.981   9.073
64448SOL     OW95240  14.246   7.362  13.906
64448SOL    HW195241  14.284   7.443  13.940
64448SOL    HW295242  14.180   7.391  13.843
64449SOL     OW95243   2.100   5.521  11.593
64449SOL    HW195244   2.065   5.470  11.521
64449SOL    HW295245   2.155   5.588  11.550
64450SOL     OW95246   2.644   6.537  13.232
64450SOL    HW195247   2.588   6.579  13.166
64450SOL    HW295248   2.615   6.576  13.315
64451SOL     OW95249   6.385   9.366  11.761
64451SOL    HW195250   6.366   9.304  11.691
64451SOL    HW295251   6.473   9.399  11.740
64452SOL     OW95252   3.907   8.457   7.063
64452SOL    HW195253   3.822   8.430   7.029
64452SOL    HW295254   3.895   8.465   7.157
64453SOL     OW95255   6.666   7.578   5.180
64453SOL    HW195256   6.634   7.666   5.199
64453SOL    HW295257   6.736   7.564   5.244
64454SOL     OW95258  12.064   1.058   2.265
64454SOL    HW195259  12.029   0.970   2.277
64454SOL    HW295260  11.994   1.116   2.297
64455SOL     OW95261  14.215   1.586   7.560
64455SOL    HW195262  14.248   1.542   7.639
64455SOL    HW295263  14.278   1.562   7.492
64456SOL     OW95264   5.637   6.247  12.611
64456SOL    HW195265   5.664   6.231  12.520
64456SOL    HW295266   5.574   6.178  12.630
64457SOL     OW95267  10.346  13.591  14.724
64457SOL    HW195268  10.377  13.544  14.646
64457SOL    HW295269  10.419  13.584  14.786
64458SOL     OW95270  14.288  11.596  12.751
64458SOL    HW195271  14.209  11.627  12.796
64458SOL    HW295272  14.289  11.644  12.668
64459SOL     OW95273   5.014  12.417   5.747
64459SOL    HW195274   5.089  12.400   5.803
64459SOL    HW295275   4.943  12.439   5.808
64460SOL     OW95276   2.386   0.090   2.515
64460SOL    HW195277   2.468   0.042   2.524
64460SOL    HW295278   2.318   0.024   2.532
64461SOL     OW95279  12.295   7.619   2.485
64461SOL    HW195280  12.379   7.607   2.531
64461SOL    HW295281  12.309   7.581   2.399
64462SOL     OW95282   9.851  12.604  14.795
64462SOL    HW195283   9.779  12.547  14.768
64462SOL    HW295284   9.843  12.608   0.010
64463SOL     OW95285   2.971  10.742   7.017
64463SOL    HW195286   2.888  10.722   6.974
64463SOL    HW295287   2.992  10.831   6.987
64464SOL     OW95288  11.756  10.034  11.981
64464SOL    HW195289  11.735  10.050  11.889
64464SOL    HW295290  11.852  10.036  11.984
64465SOL     OW95291   0.312  10.085   3.328
64465SOL    HW195292   0.391  10.134   3.354
64465SOL    HW295293   0.341   9.994   3.325
64466SOL     OW95294   7.331  13.759   8.153
64466SOL    HW195295   7.286  13.700   8.213
64466SOL    HW295296   7.419  13.723   8.145
64467SOL     OW95297  14.197  12.770   7.509
64467SOL    HW195298  14.124  12.831   7.492
64467SOL    HW295299  14.245  12.810   7.581
64468SOL     OW95300   3.446  13.714   7.635
64468SOL    HW195301   3.525  13.680   7.593
64468SOL    HW295302   3.436  13.662   7.714
64469SOL     OW95303  12.506   9.964   0.371
64469SOL    HW195304  12.438   9.951   0.438
64469SOL    HW295305  12.478   9.910   0.297
64470SOL     OW95306   9.136   3.039   1.417
64470SOL    HW195307   9.192   3.113   1.437
64470SOL    HW295308   9.143   3.028   1.322
64471SOL     OW95309   6.417   6.449  10.687
64471SOL    HW195310   6.476   6.411  10.621
64471SOL    HW295311   6.475   6.496  10.746
64472SOL     OW95312   5.494   5.013   5.789
64472SOL    HW195313   5.462   5.075   5.855
64472SOL    HW295314   5.556   5.063   5.737
64473SOL     OW95315  10.688   3.912  10.703
64473SOL    HW195316  10.690   4.008  10.699
64473SOL    HW295317  10.625   3.887  10.636
64474SOL     OW95318   5.952  10.247   9.500
64474SOL    HW195319   5.969  10.333   9.461
64474SOL    HW295320   6.035  10.222   9.539
64475SOL     OW95321   4.072   6.423   9.534
64475SOL    HW195322   4.166   6.412   9.548
64475SOL    HW295323   4.031   6.375   9.606
64476SOL     OW95324   3.109  10.054   3.880
64476SOL    HW195325   3.181  10.097   3.924
64476SOL    HW295326   3.146   9.972   3.847
64477SOL     OW95327   6.016   1.106   8.261
64477SOL    HW195328   6.073   1.120   8.186
64477SOL    HW295329   6.028   1.184   8.315
64478SOL     OW95330  12.709   7.701   9.511
64478SOL    HW195331  12.758   7.756   9.450
64478SOL    HW295332  12.632   7.753   9.534
64479SOL     OW95333  11.506   2.166  10.629
64479SOL    HW195334  11.558   2.086  10.624
64479SOL    HW295335  11.570   2.236  10.639
64480SOL     OW95336  14.834   5.215   4.379
64480SOL    HW195337  14.786   5.132   4.376
64480SOL    HW295338  14.845   5.240   4.287
64481SOL     OW95339   1.070   9.615   5.313
64481SOL    HW195340   1.085   9.563   5.392
64481SOL    HW295341   1.119   9.570   5.245
64482SOL     OW95342   6.864   6.844   2.489
64482SOL    HW195343   6.884   6.911   2.424
64482SOL    HW295344   6.769   6.849   2.501
64483SOL     OW95345   1.612  10.884   1.291
64483SOL    HW195346   1.656  10.836   1.361
64483SOL    HW295347   1.601  10.820   1.220
64484SOL     OW95348   4.344   6.420  12.048
64484SOL    HW195349   4.306   6.494  12.095
64484SOL    HW295350   4.395   6.460  11.978
64485SOL     OW95351   9.743   8.590   0.604
64485SOL    HW195352   9.689   8.669   0.597
64485SOL    HW295353   9.699   8.537   0.670
64486SOL     OW95354   5.153  12.990   1.966
64486SOL    HW195355   5.216  13.023   2.029
64486SOL    HW295356   5.203  12.976   1.886
64487SOL     OW95357  12.755   2.273   3.230
64487SOL    HW195358  12.730   2.307   3.316
64487SOL    HW295359  12.836   2.224   3.246
64488SOL     OW95360   7.997   3.241   5.201
64488SOL    HW195361   8.073   3.197   5.238
64488SOL    HW295362   7.999   3.220   5.108
64489SOL     OW95363   8.200   5.041   6.411
64489SOL    HW195364   8.281   4.999   6.381
64489SOL    HW295365   8.217   5.135   6.405
64490SOL     OW95366   7.799   9.425   6.313
64490SOL    HW195367   7.798   9.380   6.229
64490SOL    HW295368   7.799   9.518   6.290
64491SOL     OW95369   9.190   4.240   6.315
64491SOL    HW195370   9.151   4.153   6.305
64491SOL    HW295371   9.283   4.222   6.333
64492SOL     OW95372   0.338   0.560  12.367
64492SOL    HW195373   0.251   0.600  12.362
64492SOL    HW295374   0.321   0.466  12.358
64493SOL     OW95375   0.328   0.671  13.427
64493SOL    HW195376   0.333   0.711  13.340
64493SOL    HW295377   0.317   0.745  13.487
64494SOL     OW95378   8.251   3.078   5.639
64494SOL    HW195379   8.193   3.149   5.667
64494SOL    HW295380   8.330   3.088   5.693
64495SOL     OW95381  13.072   9.290   8.697
64495SOL    HW195382  13.094   9.340   8.619
64495SOL    HW295383  13.156   9.257   8.729
64496SOL     OW95384   2.346   6.968   1.341
64496SOL    HW195385   2.285   7.037   1.367
64496SOL    HW295386   2.412   6.967   1.410
64497SOL     OW95387   5.937   8.875   5.587
64497SOL    HW195388   5.885   8.854   5.665
64497SOL    HW295389   5.879   8.855   5.513
64498SOL     OW95390   3.291   7.501   8.523
64498SOL    HW195391   3.363   7.549   8.564
64498SOL    HW295392   3.307   7.511   8.429
64499SOL     OW95393   1.311  11.062  14.463
64499SOL    HW195394   1.325  11.154  14.439
64499SOL    HW295395   1.229  11.039  14.419
64500SOL     OW95396   2.246   0.526   9.490
64500SOL    HW195397   2.226   0.551   9.581
64500SOL    HW295398   2.222   0.434   9.485
64501SOL     OW95399   7.427   4.701  11.480
64501SOL    HW195400   7.342   4.706  11.523
64501SOL    HW295401   7.487   4.670  11.548
64502SOL     OW95402  12.774   1.437   8.410
64502SOL    HW195403  12.780   1.507   8.346
64502SOL    HW295404  12.835   1.462   8.479
64503SOL     OW95405   9.346  11.660  11.484
64503SOL    HW195406   9.257  11.669  11.449
64503SOL    HW295407   9.344  11.708  11.567
64504SOL     OW95408   2.160   5.485  13.622
64504SOL    HW195409   2.088   5.524  13.572
64504SOL    HW295410   2.225   5.462  13.555
64505SOL     OW95411   9.514   7.879   8.366
64505SOL    HW195412   9.553   7.929   8.437
64505SOL    HW295413   9.448   7.824   8.408
64506SOL     OW95414   5.175   4.300  13.001
64506SOL    HW195415   5.237   4.324  13.070
64506SOL    HW295416   5.105   4.254  13.047
64507SOL     OW95417  10.230   4.686   7.668
64507SOL    HW195418  10.308   4.734   7.695
64507SOL    HW295419  10.241   4.674   7.574
64508SOL     OW95420   8.909  10.605   6.940
64508SOL    HW195421   8.989  10.555   6.924
64508SOL    HW295422   8.874  10.568   7.021
64509SOL     OW95423  14.786   5.037  13.042
64509SOL    HW195424  14.812   5.082  12.962
64509SOL    HW295425  14.867   4.998  13.075
64510SOL     OW95426  11.538  10.916   1.388
64510SOL    HW195427  11.460  10.875   1.350
64510SOL    HW295428  11.522  11.010   1.381
64511SOL     OW95429   0.229   7.645  10.456
64511SOL    HW195430   0.256   7.555  10.440
64511SOL    HW295431   0.309   7.691  10.480
64512SOL     OW95432   0.280   9.605   4.240
64512SOL    HW195433   0.349   9.663   4.208
64512SOL    HW295434   0.322   9.554   4.309
64513SOL     OW95435  12.564  14.035   4.457
64513SOL    HW195436  12.574  13.991   4.373
64513SOL    HW295437  12.621  14.111   4.452
64514SOL     OW95438   8.524   1.226  13.386
64514SOL    HW195439   8.466   1.202  13.315
64514SOL    HW295440   8.469   1.277  13.446
64515SOL     OW95441   3.793   8.738   9.501
64515SOL    HW195442   3.751   8.813   9.543
64515SOL    HW295443   3.877   8.772   9.470
64516SOL     OW95444   4.216   5.147  12.125
64516SOL    HW195445   4.133   5.103  12.138
64516SOL    HW295446   4.248   5.115  12.041
64517SOL     OW95447   6.581   5.336   7.159
64517SOL    HW195448   6.656   5.384   7.193
64517SOL    HW295449   6.614   5.247   7.145
64518SOL     OW95450   4.695   9.757  12.131
64518SOL    HW195451   4.759   9.698  12.094
64518SOL    HW295452   4.745   9.813  12.191
64519SOL     OW95453  12.183   6.367  11.300
64519SOL    HW195454  12.097   6.376  11.259
64519SOL    HW295455  12.225   6.452  11.288
64520SOL     OW95456  12.540  14.575   9.112
64520SOL    HW195457  12.588  14.637   9.168
64520SOL    HW295458  12.474  14.629   9.068
64521SOL     OW95459   3.830   2.393  12.609
64521SOL    HW195460   3.920   2.388  12.577
64521SOL    HW295461   3.805   2.485  12.596
64522SOL     OW95462   5.824   9.411   2.114
64522SOL    HW195463   5.803   9.348   2.183
64522SOL    HW295464   5.914   9.389   2.089
64523SOL     OW95465   4.743   8.270   6.532
64523SOL    HW195466   4.805   8.252   6.603
64523SOL    HW295467   4.667   8.216   6.553
64524SOL     OW95468  10.405   1.121  12.832
64524SOL    HW195469  10.472   1.063  12.796
64524SOL    HW295470  10.326   1.099  12.783
64525SOL     OW95471  12.495  10.900   6.705
64525SOL    HW195472  12.432  10.880   6.774
64525SOL    HW295473  12.507  10.818   6.658
64526SOL     OW95474   8.447   9.409  12.068
64526SOL    HW195475   8.520   9.466  12.093
64526SOL    HW295476   8.486   9.344  12.010
64527SOL     OW95477   9.929  14.740   3.641
64527SOL    HW195478   9.895  14.752   3.730
64527SOL    HW295479   9.963  14.826   3.617
64528SOL     OW95480   5.711   3.990   9.711
64528SOL    HW195481   5.787   4.048   9.714
64528SOL    HW295482   5.648   4.030   9.769
64529SOL     OW95483  14.001   2.147   4.916
64529SOL    HW195484  14.080   2.200   4.906
64529SOL    HW295485  14.011   2.105   5.002
64530SOL     OW95486   4.851  11.662  14.866
64530SOL    HW195487   4.875  11.621   0.069
64530SOL    HW295488   4.917  11.631  14.804
64531SOL     OW95489  10.128   1.910  11.103
64531SOL    HW195490  10.050   1.861  11.128
64531SOL    HW295491  10.109   1.943  11.015
64532SOL     OW95492   4.088   2.183   1.893
64532SOL    HW195493   4.026   2.113   1.872
64532SOL    HW295494   4.072   2.203   1.985
64533SOL     OW95495   7.875   9.766  12.593
64533SOL    HW195496   7.813   9.706  12.552
64533SOL    HW295497   7.846   9.773  12.684
64534SOL     OW95498   1.550   0.681   8.503
64534SOL    HW195499   1.493   0.643   8.436
64534SOL    HW295500   1.490   0.712   8.571
64535SOL     OW95501   1.416   2.924   7.594
64535SOL    HW195502   1.373   2.842   7.571
64535SOL    HW295503   1.503   2.898   7.626
64536SOL     OW95504  14.388   9.555   3.495
64536SOL    HW195505  14.466   9.566   3.549
64536SOL    HW295506  14.409   9.480   3.438
64537SOL     OW95507   4.228   0.390   2.115
64537SOL    HW195508   4.307   0.386   2.168
64537SOL    HW295509   4.234   0.313   2.058
64538SOL     OW95510   2.996   7.896   9.396
64538SOL    HW195511   2.923   7.870   9.339
64538SOL    HW295512   3.043   7.962   9.346
64539SOL     OW95513  10.685   3.210   9.644
64539SOL    HW195514  10.696   3.192   9.550
64539SOL    HW295515  10.592   3.234   9.652
64540SOL     OW95516   1.944   2.691   4.235
64540SOL    HW195517   1.957   2.600   4.207
64540SOL    HW295518   2.012   2.740   4.190
64541SOL     OW95519   5.909   3.562  14.424
64541SOL    HW195520   5.896   3.609  14.341
64541SOL    HW295521   5.924   3.630  14.489
64542SOL     OW95522   4.752   4.847   6.390
64542SOL    HW195523   4.707   4.828   6.472
64542SOL    HW295524   4.747   4.765   6.341
64543SOL     OW95525  12.012   3.053   4.695
64543SOL    HW195526  12.099   3.090   4.712
64543SOL    HW295527  12.027   2.960   4.684
64544SOL     OW95528  10.582   3.157   1.207
64544SOL    HW195529  10.578   3.138   1.301
64544SOL    HW295530  10.550   3.077   1.165
64545SOL     OW95531  11.221   2.828   5.340
64545SOL    HW195532  11.313   2.803   5.343
64545SOL    HW295533  11.198   2.826   5.247
64546SOL     OW95534  12.802   8.984   0.101
64546SOL    HW195535  12.854   8.923   0.049
64546SOL    HW295536  12.725   9.003   0.048
64547SOL     OW95537   2.775   1.767  11.127
64547SOL    HW195538   2.831   1.817  11.186
64547SOL    HW295539   2.791   1.676  11.150
64548SOL     OW95540  10.143   6.021   1.991
64548SOL    HW195541  10.051   6.024   1.964
64548SOL    HW295542  10.186   6.085   1.935
64549SOL     OW95543   9.248   9.797   4.051
64549SOL    HW195544   9.276   9.706   4.058
64549SOL    HW295545   9.279   9.838   4.132
64550SOL     OW95546  14.672   5.795   3.282
64550SOL    HW195547  14.715   5.831   3.360
64550SOL    HW295548  14.618   5.866   3.249
64551SOL     OW95549   8.971   2.112   8.047
64551SOL    HW195550   8.887   2.066   8.047
64551SOL    HW295551   8.984   2.137   8.139
64552SOL     OW95552  14.236  11.600   4.135
64552SOL    HW195553  14.177  11.556   4.073
64552SOL    HW295554  14.185  11.673   4.170
64553SOL     OW95555   3.138   8.107   1.143
64553SOL    HW195556   3.049   8.075   1.130
64553SOL    HW295557   3.135   8.156   1.225
64554SOL     OW95558  14.223   9.668   6.386
64554SOL    HW195559  14.316   9.663   6.407
64554SOL    HW295560  14.205   9.591   6.332
64555SOL     OW95561  12.455  11.241   3.831
64555SOL    HW195562  12.541  11.241   3.790
64555SOL    HW295563  12.393  11.243   3.757
64556SOL     OW95564  11.515  10.923  12.694
64556SOL    HW195565  11.469  10.964  12.768
64556SOL    HW295566  11.586  10.985  12.673
64557SOL     OW95567   7.029   9.912  11.725
64557SOL    HW195568   7.077   9.836  11.693
64557SOL    HW295569   6.956   9.875  11.774
64558SOL     OW95570   6.325   6.655  10.972
64558SOL    HW195571   6.248   6.667  11.027
64558SOL    HW295572   6.297   6.679  10.884
64559SOL     OW95573   3.201   6.608   3.128
64559SOL    HW195574   3.205   6.669   3.054
64559SOL    HW295575   3.174   6.525   3.089
64560SOL     OW95576  10.209   8.234  11.977
64560SOL    HW195577  10.164   8.297  11.921
64560SOL    HW295578  10.299   8.267  11.983
64561SOL     OW95579  13.464   7.104   4.051
64561SOL    HW195580  13.418   7.134   4.129
64561SOL    HW295581  13.470   7.182   3.995
64562SOL     OW95582  12.917   8.782   4.904
64562SOL    HW195583  12.888   8.798   4.994
64562SOL    HW295584  13.008   8.811   4.903
64563SOL     OW95585   5.053   9.726  10.911
64563SOL    HW195586   5.125   9.739  10.849
64563SOL    HW295587   4.988   9.792  10.886
64564SOL     OW95588   8.225   7.186  11.010
64564SOL    HW195589   8.308   7.223  11.041
64564SOL    HW295590   8.158   7.232  11.059
64565SOL     OW95591  13.921   7.889   6.742
64565SOL    HW195592  13.841   7.891   6.691
64565SOL    HW295593  13.903   7.828   6.814
64566SOL     OW95594   7.184  12.747   2.665
64566SOL    HW195595   7.179  12.835   2.700
64566SOL    HW295596   7.123  12.747   2.591
64567SOL     OW95597   7.435  12.030  13.480
64567SOL    HW195598   7.461  12.023  13.388
64567SOL    HW295599   7.356  12.085  13.478
64568SOL     OW95600   9.737   4.035   7.502
64568SOL    HW195601   9.749   4.034   7.597
64568SOL    HW295602   9.712   3.946   7.479
64569SOL     OW95603   7.789   9.373   2.255
64569SOL    HW195604   7.855   9.355   2.322
64569SOL    HW295605   7.815   9.457   2.217
64570SOL     OW95606  10.047   2.813   5.317
64570SOL    HW195607  10.124   2.861   5.347
64570SOL    HW295608   9.990   2.809   5.394
64571SOL     OW95609   1.996  13.992   3.771
64571SOL    HW195610   1.942  13.938   3.829
64571SOL    HW295611   2.021  13.932   3.700
64572SOL     OW95612   9.525  12.834  10.922
64572SOL    HW195613   9.535  12.929  10.927
64572SOL    HW295614   9.576  12.800  10.995
64573SOL     OW95615   5.842  14.679  12.373
64573SOL    HW195616   5.755  14.712  12.396
64573SOL    HW295617   5.861  14.614  12.441
64574SOL     OW95618  10.031   9.768   8.705
64574SOL    HW195619  10.076   9.730   8.629
64574SOL    HW295620   9.951   9.716   8.714
64575SOL     OW95621   2.109   1.053  13.410
64575SOL    HW195622   2.154   1.128  13.449
64575SOL    HW295623   2.056   1.017  13.481
64576SOL     OW95624   1.186  13.753  10.149
64576SOL    HW195625   1.130  13.824  10.183
64576SOL    HW295626   1.161  13.676  10.201
64577SOL     OW95627   9.643   5.788   8.434
64577SOL    HW195628   9.693   5.717   8.474
64577SOL    HW295629   9.698   5.819   8.362
64578SOL     OW95630   0.346   3.247   0.202
64578SOL    HW195631   0.277   3.206   0.254
64578SOL    HW295632   0.300   3.300   0.138
64579SOL     OW95633  13.262  14.846   2.850
64579SOL    HW195634  13.257   0.053   2.811
64579SOL    HW295635  13.349  14.814   2.825
64580SOL     OW95636  14.832   3.704  12.597
64580SOL    HW195637  14.849   3.676  12.687
64580SOL    HW295638  14.789   3.789  12.607
64581SOL     OW95639   2.709   9.821   7.192
64581SOL    HW195640   2.701   9.763   7.115
64581SOL    HW295641   2.801   9.816   7.216
64582SOL     OW95642   0.233  14.001   6.596
64582SOL    HW195643   0.298  14.033   6.534
64582SOL    HW295644   0.224  13.908   6.576
64583SOL     OW95645   5.846  12.422   7.471
64583SOL    HW195646   5.886  12.471   7.542
64583SOL    HW295647   5.769  12.381   7.511
64584SOL     OW95648   9.041  11.530  12.784
64584SOL    HW195649   9.002  11.613  12.755
64584SOL    HW295650   8.971  11.486  12.833
64585SOL     OW95651   5.363  11.742  10.607
64585SOL    HW195652   5.391  11.691  10.683
64585SOL    HW295653   5.366  11.680  10.534
64586SOL     OW95654   3.654   7.297  13.566
64586SOL    HW195655   3.662   7.392  13.573
64586SOL    HW295656   3.739   7.268  13.533
64587SOL     OW95657  14.603   3.949   8.024
64587SOL    HW195658  14.693   3.951   8.055
64587SOL    HW295659  14.600   3.875   7.962
64588SOL     OW95660  11.474  12.338  14.656
64588SOL    HW195661  11.399  12.316  14.600
64588SOL    HW295662  11.513  12.415  14.615
64589SOL     OW95663  12.510   1.503   1.350
64589SOL    HW195664  12.604   1.499   1.367
64589SOL    HW295665  12.471   1.505   1.438
64590SOL     OW95666   7.069   4.105   5.877
64590SOL    HW195667   6.980   4.138   5.893
64590SOL    HW295668   7.077   4.027   5.932
64591SOL     OW95669   5.732   0.051   4.926
64591SOL    HW195670   5.795   0.067   4.996
64591SOL    HW295671   5.739   0.128   4.870
64592SOL     OW95672   9.942  12.602  12.880
64592SOL    HW195673   9.901  12.632  12.799
64592SOL    HW295674   9.942  12.679  12.937
64593SOL     OW95675   8.798  11.371  10.543
64593SOL    HW195676   8.723  11.424  10.571
64593SOL    HW295677   8.765  11.321  10.468
64594SOL     OW95678   5.888   3.025   6.361
64594SOL    HW195679   5.883   3.049   6.268
64594SOL    HW295680   5.798   3.034   6.393
64595SOL     OW95681  13.900   4.381  11.734
64595SOL    HW195682  13.933   4.432  11.660
64595SOL    HW295683  13.809   4.407  11.743
64596SOL     OW95684   6.026   6.294   3.411
64596SOL    HW195685   6.020   6.386   3.438
64596SOL    HW295686   6.075   6.296   3.329
64597SOL     OW95687   3.924   4.742   0.761
64597SOL    HW195688   3.981   4.695   0.700
64597SOL    HW295689   3.849   4.684   0.774
64598SOL     OW95690   0.938   7.911   8.696
64598SOL    HW195691   0.944   7.817   8.683
64598SOL    HW295692   1.018   7.934   8.745
64599SOL     OW95693   2.537   9.478   1.709
64599SOL    HW195694   2.577   9.467   1.795
64599SOL    HW295695   2.601   9.442   1.647
64600SOL     OW95696  11.206  13.987   4.642
64600SOL    HW195697  11.278  13.983   4.579
64600SOL    HW295698  11.244  14.027   4.720
64601SOL     OW95699  14.654   2.639  12.164
64601SOL    HW195700  14.725   2.685  12.209
64601SOL    HW295701  14.627   2.699  12.094
64602SOL     OW95702   6.803   5.372   8.874
64602SOL    HW195703   6.779   5.358   8.782
64602SOL    HW295704   6.845   5.290   8.900
64603SOL     OW95705   6.657   0.080  11.393
64603SOL    HW195706   6.647   0.044  11.481
64603SOL    HW295707   6.624   0.170  11.401
64604SOL     OW95708  11.582   8.974   0.695
64604SOL    HW195709  11.556   8.905   0.634
64604SOL    HW295710  11.507   8.986   0.752
64605SOL     OW95711   7.638   1.718  14.095
64605SOL    HW195712   7.555   1.733  14.049
64605SOL    HW295713   7.613   1.671  14.174
64606SOL     OW95714   5.722   3.517   1.226
64606SOL    HW195715   5.671   3.460   1.168
64606SOL    HW295716   5.804   3.469   1.240
64607SOL     OW95717   1.167  13.639   8.570
64607SOL    HW195718   1.123  13.673   8.492
64607SOL    HW295719   1.204  13.555   8.543
64608SOL     OW95720   0.131  13.469   3.204
64608SOL    HW195721   0.215  13.456   3.161
64608SOL    HW295722   0.136  13.557   3.242
64609SOL     OW95723  11.656   5.140  10.310
64609SOL    HW195724  11.596   5.092  10.368
64609SOL    HW295725  11.734   5.084  10.304
64610SOL     OW95726  10.785   3.610   4.597
64610SOL    HW195727  10.749   3.532   4.641
64610SOL    HW295728  10.780   3.589   4.504
64611SOL     OW95729   2.243   2.981   1.464
64611SOL    HW195730   2.224   3.064   1.421
64611SOL    HW295731   2.283   2.927   1.395
64612SOL     OW95732   0.823   1.371  10.604
64612SOL    HW195733   0.895   1.418  10.562
64612SOL    HW295734   0.794   1.429  10.674
64613SOL     OW95735   3.676   6.997   9.317
64613SOL    HW195736   3.711   6.909   9.312
64613SOL    HW295737   3.583   6.985   9.338
64614SOL     OW95738  11.548   3.753  11.472
64614SOL    HW195739  11.474   3.761  11.412
64614SOL    HW295740  11.603   3.685  11.434
64615SOL     OW95741   1.303   7.943  13.929
64615SOL    HW195742   1.303   8.037  13.943
64615SOL    HW295743   1.341   7.906  14.009
64616SOL     OW95744   0.842   4.259   1.472
64616SOL    HW195745   0.849   4.316   1.395
64616SOL    HW295746   0.755   4.277   1.507
64617SOL     OW95747   6.182   1.962   7.101
64617SOL    HW195748   6.114   2.021   7.068
64617SOL    HW295749   6.263   1.993   7.059
64618SOL     OW95750   1.033   2.359   2.306
64618SOL    HW195751   1.082   2.389   2.382
64618SOL    HW295752   1.088   2.290   2.267
64619SOL     OW95753  12.554   9.666  13.460
64619SOL    HW195754  12.629   9.725  13.465
64619SOL    HW295755  12.478   9.724  13.457
64620SOL     OW95756   8.104  13.351  14.681
64620SOL    HW195757   8.129  13.353  14.589
64620SOL    HW295758   8.134  13.435  14.716
64621SOL     OW95759  13.897  12.008   0.666
64621SOL    HW195760  13.832  12.078   0.667
64621SOL    HW295761  13.854  11.935   0.711
64622SOL     OW95762   0.513  14.172   5.616
64622SOL    HW195763   0.563  14.093   5.597
64622SOL    HW295764   0.422  14.144   5.611
64623SOL     OW95765   4.510   8.974   8.289
64623SOL    HW195766   4.460   8.938   8.216
64623SOL    HW295767   4.449   8.971   8.363
64624SOL     OW95768   0.177   1.289   2.505
64624SOL    HW195769   0.107   1.341   2.464
64624SOL    HW295770   0.136   1.249   2.581
64625SOL     OW95771  14.216   1.833   3.718
64625SOL    HW195772  14.137   1.801   3.674
64625SOL    HW295773  14.183   1.882   3.793
64626SOL     OW95774   7.602   5.817   7.302
64626SOL    HW195775   7.525   5.874   7.298
64626SOL    HW295776   7.649   5.848   7.380
64627SOL     OW95777   5.930   5.704   5.289
64627SOL    HW195778   5.842   5.677   5.316
64627SOL    HW295779   5.920   5.795   5.262
64628SOL     OW95780   6.540   8.476   8.867
64628SOL    HW195781   6.464   8.521   8.903
64628SOL    HW295782   6.525   8.478   8.772
64629SOL     OW95783   3.734  11.543  14.525
64629SOL    HW195784   3.683  11.493  14.589
64629SOL    HW295785   3.668  11.582  14.467
64630SOL     OW95786   6.081   8.936   8.108
64630SOL    HW195787   6.001   8.931   8.056
64630SOL    HW295788   6.136   8.999   8.061
64631SOL     OW95789   9.910   2.999   8.344
64631SOL    HW195790   9.977   3.066   8.359
64631SOL    HW295791   9.882   2.973   8.432
64632SOL     OW95792  14.503   8.716   8.966
64632SOL    HW195793  14.540   8.640   8.919
64632SOL    HW295794  14.518   8.790   8.908
64633SOL     OW95795  13.536   7.189   3.722
64633SOL    HW195796  13.569   7.258   3.779
64633SOL    HW295797  13.568   7.108   3.762
64634SOL     OW95798   1.613   3.312  14.270
64634SOL    HW195799   1.691   3.302  14.324
64634SOL    HW295800   1.647   3.323  14.181
64635SOL     OW95801   7.533   6.818  14.074
64635SOL    HW195802   7.528   6.732  14.118
64635SOL    HW295803   7.508   6.800  13.983
64636SOL     OW95804  12.466   6.270  10.717
64636SOL    HW195805  12.383   6.318  10.719
64636SOL    HW295806  12.452   6.199  10.655
64637SOL     OW95807   6.714  10.041  11.966
64637SOL    HW195808   6.797  10.000  11.992
64637SOL    HW295809   6.726  10.061  11.873
64638SOL     OW95810   2.736   4.415   9.609
64638SOL    HW195811   2.674   4.379   9.672
64638SOL    HW295812   2.812   4.357   9.614
64639SOL     OW95813   8.547   6.335   5.714
64639SOL    HW195814   8.633   6.313   5.749
64639SOL    HW295815   8.524   6.262   5.657
64640SOL     OW95816   0.583   2.513   5.572
64640SOL    HW195817   0.584   2.540   5.664
64640SOL    HW295818   0.674   2.519   5.544
64641SOL     OW95819   9.002   5.412  11.931
64641SOL    HW195820   8.984   5.323  11.960
64641SOL    HW295821   8.957   5.467  11.995
64642SOL     OW95822   9.672   2.261   0.672
64642SOL    HW195823   9.747   2.206   0.648
64642SOL    HW295824   9.683   2.340   0.620
64643SOL     OW95825  10.245   5.924   0.263
64643SOL    HW195826  10.193   5.944   0.185
64643SOL    HW295827  10.236   5.830   0.274
64644SOL     OW95828  13.462   5.090   9.757
64644SOL    HW195829  13.485   5.168   9.707
64644SOL    HW295830  13.395   5.120   9.819
64645SOL     OW95831   6.533   1.747   4.899
64645SOL    HW195832   6.451   1.775   4.859
64645SOL    HW295833   6.598   1.808   4.863
64646SOL     OW95834   3.941   2.257   9.860
64646SOL    HW195835   4.005   2.203   9.907
64646SOL    HW295836   3.871   2.196   9.836
64647SOL     OW95837  13.475  11.599  11.371
64647SOL    HW195838  13.552  11.655  11.381
64647SOL    HW295839  13.489  11.555  11.287
64648SOL     OW95840  13.079   3.284  13.970
64648SOL    HW195841  13.022   3.290  13.894
64648SOL    HW295842  13.072   3.370  14.012
64649SOL     OW95843   7.687  14.548   0.458
64649SOL    HW195844   7.744  14.623   0.474
64649SOL    HW295845   7.612  14.584   0.412
64650SOL     OW95846  10.570   2.770  11.191
64650SOL    HW195847  10.598   2.849  11.236
64650SOL    HW295848  10.484   2.792  11.154
64651SOL     OW95849  13.936   9.646  11.393
64651SOL    HW195850  13.881   9.568  11.388
64651SOL    HW295851  14.020   9.614  11.428
64652SOL     OW95852  13.963   9.939   9.863
64652SOL    HW195853  14.043   9.888   9.879
64652SOL    HW295854  13.992  10.014   9.811
64653SOL     OW95855   6.075   4.447  12.249
64653SOL    HW195856   6.033   4.530  12.230
64653SOL    HW295857   6.121   4.462  12.332
64654SOL     OW95858   9.262  14.284  14.298
64654SOL    HW195859   9.205  14.358  14.277
64654SOL    HW295860   9.342  14.299  14.249
64655SOL     OW95861   5.655   8.348  14.400
64655SOL    HW195862   5.595   8.350  14.325
64655SOL    HW295863   5.667   8.255  14.419
64656SOL     OW95864   0.979  11.221   7.520
64656SOL    HW195865   1.032  11.247   7.445
64656SOL    HW295866   0.973  11.126   7.514
64657SOL     OW95867   9.606  10.572   3.857
64657SOL    HW195868   9.546  10.641   3.826
64657SOL    HW295869   9.655  10.548   3.778
64658SOL     OW95870  10.031   0.279   7.767
64658SOL    HW195871  10.034   0.215   7.838
64658SOL    HW295872  10.033   0.227   7.687
64659SOL     OW95873   6.473   7.131   5.405
64659SOL    HW195874   6.514   7.202   5.358
64659SOL    HW295875   6.384   7.162   5.423
64660SOL     OW95876   6.647   7.110   7.442
64660SOL    HW195877   6.589   7.182   7.465
64660SOL    HW295878   6.592   7.052   7.388
64661SOL     OW95879   3.787   6.100  13.925
64661SOL    HW195880   3.822   6.018  13.959
64661SOL    HW295881   3.824   6.108  13.837
64662SOL     OW95882   2.647  13.769   8.671
64662SOL    HW195883   2.647  13.801   8.761
64662SOL    HW295884   2.733  13.792   8.636
64663SOL     OW95885   7.402   7.107   0.318
64663SOL    HW195886   7.427   7.179   0.260
64663SOL    HW295887   7.481   7.089   0.369
64664SOL     OW95888   7.581   7.635   0.757
64664SOL    HW195889   7.532   7.569   0.708
64664SOL    HW295890   7.563   7.615   0.849
64665SOL     OW95891  11.708  10.783  11.275
64665SOL    HW195892  11.678  10.839  11.203
64665SOL    HW295893  11.764  10.840  11.327
64666SOL     OW95894  13.576   4.906   6.821
64666SOL    HW195895  13.618   4.933   6.903
64666SOL    HW295896  13.486   4.936   6.829
64667SOL     OW95897  14.613   8.833   5.786
64667SOL    HW195898  14.598   8.757   5.729
64667SOL    HW295899  14.529   8.849   5.827
64668SOL     OW95900   6.395   1.425   1.385
64668SOL    HW195901   6.389   1.455   1.476
64668SOL    HW295902   6.489   1.431   1.364
64669SOL     OW95903  14.041  13.424  11.222
64669SOL    HW195904  14.097  13.392  11.293
64669SOL    HW295905  13.974  13.476  11.266
64670SOL     OW95906  13.850   0.177   6.634
64670SOL    HW195907  13.766   0.223   6.627
64670SOL    HW295908  13.905   0.220   6.568
64671SOL     OW95909   9.845   7.575   6.390
64671SOL    HW195910   9.784   7.560   6.462
64671SOL    HW295911   9.824   7.508   6.325
64672SOL     OW95912   9.925   3.900   3.431
64672SOL    HW195913   9.854   3.838   3.418
64672SOL    HW295914   9.899   3.977   3.379
64673SOL     OW95915  12.600  13.662   2.829
64673SOL    HW195916  12.692  13.652   2.805
64673SOL    HW295917  12.586  13.756   2.831
64674SOL     OW95918   3.017   0.020   6.897
64674SOL    HW195919   3.079  14.854   6.840
64674SOL    HW295920   2.957   0.064   6.836
64675SOL     OW95921  10.335  12.357  13.721
64675SOL    HW195922  10.293  12.298  13.783
64675SOL    HW295923  10.412  12.309  13.691
64676SOL     OW95924  10.430   1.642   4.808
64676SOL    HW195925  10.507   1.698   4.809
64676SOL    HW295926  10.404   1.636   4.900
64677SOL     OW95927   9.169  14.403  13.912
64677SOL    HW195928   9.103  14.431  13.976
64677SOL    HW295929   9.216  14.484  13.890
64678SOL     OW95930  12.357   3.321  14.547
64678SOL    HW195931  12.264   3.331  14.525
64678SOL    HW295932  12.361   3.335  14.641
64679SOL     OW95933   1.487  12.374   3.641
64679SOL    HW195934   1.483  12.321   3.562
64679SOL    HW295935   1.433  12.327   3.704
64680SOL     OW95936   9.326   4.283  12.380
64680SOL    HW195937   9.242   4.270  12.338
64680SOL    HW295938   9.327   4.218  12.451
64681SOL     OW95939   5.400   0.158   4.847
64681SOL    HW195940   5.480   0.141   4.797
64681SOL    HW295941   5.353   0.074   4.847
64682SOL     OW95942   6.408  10.111  12.921
64682SOL    HW195943   6.335  10.107  12.859
64682SOL    HW295944   6.456  10.189  12.895
64683SOL     OW95945  10.151   2.936  14.134
64683SOL    HW195946  10.084   2.992  14.096
64683SOL    HW295947  10.233   2.982  14.116
64684SOL     OW95948  13.934   4.937   4.884
64684SOL    HW195949  13.922   5.002   4.952
64684SOL    HW295950  13.855   4.942   4.830
64685SOL     OW95951   5.538   3.101   3.372
64685SOL    HW195952   5.509   3.111   3.463
64685SOL    HW295953   5.458   3.084   3.323
64686SOL     OW95954   9.628   5.314  13.823
64686SOL    HW195955   9.576   5.305  13.743
64686SOL    HW295956   9.565   5.346  13.888
64687SOL     OW95957   0.406  10.124   9.390
64687SOL    HW195958   0.319  10.135   9.428
64687SOL    HW295959   0.450  10.062   9.449
64688SOL     OW95960   1.405   8.672   4.535
64688SOL    HW195961   1.365   8.662   4.449
64688SOL    HW295962   1.386   8.590   4.580
64689SOL     OW95963   0.707   5.321   0.664
64689SOL    HW195964   0.612   5.317   0.652
64689SOL    HW295965   0.743   5.277   0.587
64690SOL     OW95966   7.375   2.214   2.439
64690SOL    HW195967   7.433   2.281   2.402
64690SOL    HW295968   7.287   2.244   2.416
64691SOL     OW95969   7.580   8.984  11.175
64691SOL    HW195970   7.624   8.900  11.157
64691SOL    HW295971   7.630   9.048  11.124
64692SOL     OW95972   4.958   9.021   5.201
64692SOL    HW195973   5.022   9.011   5.270
64692SOL    HW295974   4.923   8.933   5.187
64693SOL     OW95975  14.235  13.957   9.632
64693SOL    HW195976  14.298  14.028   9.621
64693SOL    HW295977  14.184  13.958   9.551
64694SOL     OW95978   7.593   2.865  11.675
64694SOL    HW195979   7.527   2.796  11.680
64694SOL    HW295980   7.638   2.849  11.591
64695SOL     OW95981   9.236  12.590   7.115
64695SOL    HW195982   9.154  12.630   7.085
64695SOL    HW295983   9.247  12.623   7.204
64696SOL     OW95984   4.155  13.361  14.411
64696SOL    HW195985   4.074  13.398  14.375
64696SOL    HW295986   4.206  13.336  14.334
64697SOL     OW95987  13.626   1.151   8.647
64697SOL    HW195988  13.704   1.134   8.593
64697SOL    HW295989  13.640   1.098   8.726
64698SOL     OW95990   5.423   2.717  11.014
64698SOL    HW195991   5.444   2.753  11.100
64698SOL    HW295992   5.346   2.767  10.986
64699SOL     OW95993   3.632   1.065   5.637
64699SOL    HW195994   3.657   1.152   5.608
64699SOL    HW295995   3.700   1.008   5.602
64700SOL     OW95996   2.860   8.272  13.456
64700SOL    HW195997   2.909   8.342  13.413
64700SOL    HW295998   2.887   8.275  13.548
64701SOL     OW95999   5.129   0.586  14.130
64701SOL    HW196000   5.157   0.510  14.180
64701SOL    HW296001   5.107   0.552  14.044
64702SOL     OW96002   2.964  12.259   0.453
64702SOL    HW196003   2.961  12.293   0.363
64702SOL    HW296004   2.875  12.228   0.470
64703SOL     OW96005  14.585  10.431  11.605
64703SOL    HW196006  14.659  10.439  11.545
64703SOL    HW296007  14.512  10.472  11.560
64704SOL     OW96008   8.399  11.285  12.314
64704SOL    HW196009   8.327  11.233  12.351
64704SOL    HW296010   8.468  11.280  12.379
64705SOL     OW96011  14.607  11.754   5.070
64705SOL    HW196012  14.525  11.795   5.100
64705SOL    HW296013  14.579  11.691   5.004
64706SOL     OW96014   7.574  13.899  11.976
64706SOL    HW196015   7.658  13.880  11.935
64706SOL    HW296016   7.588  13.981  12.023
64707SOL     OW96017  13.020  12.308   7.864
64707SOL    HW196018  12.936  12.301   7.818
64707SOL    HW296019  13.081  12.339   7.796
64708SOL     OW96020   6.735   1.167   4.696
64708SOL    HW196021   6.759   1.122   4.777
64708SOL    HW296022   6.720   1.258   4.722
64709SOL     OW96023   3.664   3.610   2.450
64709SOL    HW196024   3.678   3.517   2.469
64709SOL    HW296025   3.624   3.645   2.529
64710SOL     OW96026  11.135  13.938   2.816
64710SOL    HW196027  11.086  14.016   2.845
64710SOL    HW296028  11.216  13.941   2.867
64711SOL     OW96029  11.009  10.664   4.043
64711SOL    HW196030  11.040  10.750   4.071
64711SOL    HW296031  10.919  10.660   4.074
64712SOL     OW96032   5.418   0.243  11.667
64712SOL    HW196033   5.465   0.163  11.687
64712SOL    HW296034   5.445   0.305  11.736
64713SOL     OW96035   2.645  12.941   2.487
64713SOL    HW196036   2.591  12.891   2.547
64713SOL    HW296037   2.690  12.875   2.435
64714SOL     OW96038   8.178   8.687   7.120
64714SOL    HW196039   8.204   8.634   7.044
64714SOL    HW296040   8.242   8.758   7.123
64715SOL     OW96041   8.654  13.590   4.190
64715SOL    HW196042   8.631  13.589   4.282
64715SOL    HW296043   8.704  13.671   4.179
64716SOL     OW96044   7.310   9.171   1.726
64716SOL    HW196045   7.367   9.163   1.802
64716SOL    HW296046   7.325   9.259   1.692
64717SOL     OW96047   0.727   5.852  11.732
64717SOL    HW196048   0.730   5.780  11.669
64717SOL    HW296049   0.699   5.928  11.680
64718SOL     OW96050  11.854  10.679  10.978
64718SOL    HW196051  11.888  10.664  10.890
64718SOL    HW296052  11.921  10.732  11.021
64719SOL     OW96053  14.563  14.810   0.865
64719SOL    HW196054  14.636  14.813   0.804
64719SOL    HW296055  14.603  14.829   0.950
64720SOL     OW96056   3.432  12.537   1.899
64720SOL    HW196057   3.517  12.576   1.918
64720SOL    HW296058   3.387  12.602   1.844
64721SOL     OW96059  12.511   8.676  13.808
64721SOL    HW196060  12.475   8.621  13.878
64721SOL    HW296061  12.535   8.614  13.739
64722SOL     OW96062  13.211   8.495   2.411
64722SOL    HW196063  13.187   8.486   2.503
64722SOL    HW296064  13.128   8.497   2.364
64723SOL     OW96065  14.133   2.500   5.505
64723SOL    HW196066  14.215   2.520   5.552
64723SOL    HW296067  14.103   2.418   5.543
64724SOL     OW96068   8.878  13.803  10.486
64724SOL    HW196069   8.846  13.756  10.408
64724SOL    HW296070   8.856  13.746  10.559
64725SOL     OW96071   3.765   5.301  14.441
64725SOL    HW196072   3.816   5.362  14.495
64725SOL    HW296073   3.789   5.323  14.351
64726SOL     OW96074  14.784   9.053   6.724
64726SOL    HW196075  14.848   8.982   6.727
64726SOL    HW296076  14.831   9.126   6.684
64727SOL     OW96077   2.365   9.901  13.529
64727SOL    HW196078   2.291   9.916  13.589
64727SOL    HW296079   2.329   9.919  13.442
64728SOL     OW96080  14.503   9.149   5.409
64728SOL    HW196081  14.583   9.099   5.421
64728SOL    HW296082  14.435   9.083   5.391
64729SOL     OW96083   7.196   1.614   0.629
64729SOL    HW196084   7.244   1.669   0.568
64729SOL    HW296085   7.130   1.672   0.667
64730SOL     OW96086   8.576   6.095  13.466
64730SOL    HW196087   8.597   6.014  13.512
64730SOL    HW296088   8.520   6.143  13.526
64731SOL     OW96089   1.084   5.815   2.941
64731SOL    HW196090   1.013   5.760   2.976
64731SOL    HW296091   1.163   5.781   2.983
64732SOL     OW96092   8.714   6.459   1.984
64732SOL    HW196093   8.672   6.385   2.029
64732SOL    HW296094   8.682   6.536   2.031
64733SOL     OW96095  10.652  14.538   5.484
64733SOL    HW196096  10.712  14.474   5.446
64733SOL    HW296097  10.665  14.531   5.578
64734SOL     OW96098   1.989   4.151   5.489
64734SOL    HW196099   2.072   4.166   5.534
64734SOL    HW296100   2.015   4.111   5.405
64735SOL     OW96101   0.755   9.458   3.619
64735SOL    HW196102   0.769   9.363   3.619
64735SOL    HW296103   0.660   9.468   3.630
64736SOL     OW96104   2.547   7.581   9.226
64736SOL    HW196105   2.519   7.542   9.309
64736SOL    HW296106   2.532   7.675   9.237
64737SOL     OW96107   9.435   3.357   3.540
64737SOL    HW196108   9.436   3.281   3.482
64737SOL    HW296109   9.470   3.325   3.623
64738SOL     OW96110  13.936   4.827   7.154
64738SOL    HW196111  13.885   4.750   7.179
64738SOL    HW296112  14.008   4.828   7.216
64739SOL     OW96113   7.608  10.249   1.433
64739SOL    HW196114   7.615  10.289   1.520
64739SOL    HW296115   7.515  10.256   1.411
64740SOL     OW96116   6.013   6.602  13.866
64740SOL    HW196117   6.064   6.616  13.787
64740SOL    HW296118   5.943   6.542  13.839
64741SOL     OW96119   6.627   3.510  14.289
64741SOL    HW196120   6.670   3.500  14.204
64741SOL    HW296121   6.667   3.587  14.327
64742SOL     OW96122   5.215   2.540  13.885
64742SOL    HW196123   5.255   2.514  13.802
64742SOL    HW296124   5.268   2.497  13.952
64743SOL     OW96125  12.989   5.214   3.236
64743SOL    HW196126  13.041   5.211   3.316
64743SOL    HW296127  13.053   5.212   3.165
64744SOL     OW96128   0.917  11.338   0.454
64744SOL    HW196129   0.879  11.251   0.443
64744SOL    HW296130   0.842  11.396   0.463
64745SOL     OW96131   9.392   0.353   9.230
64745SOL    HW196132   9.382   0.306   9.147
64745SOL    HW296133   9.472   0.318   9.268
64746SOL     OW96134   2.696   8.467  12.722
64746SOL    HW196135   2.624   8.445  12.781
64746SOL    HW296136   2.671   8.431  12.638
64747SOL     OW96137   4.347  10.137   1.462
64747SOL    HW196138   4.404  10.103   1.531
64747SOL    HW296139   4.306  10.215   1.501
64748SOL     OW96140   8.575  11.966   3.769
64748SOL    HW196141   8.633  12.021   3.822
64748SOL    HW296142   8.629  11.891   3.745
64749SOL     OW96143   4.012   0.233   9.629
64749SOL    HW196144   3.993   0.300   9.563
64749SOL    HW296145   3.928   0.191   9.647
64750SOL     OW96146  10.239   9.080  14.847
64750SOL    HW196147  10.260   8.993  14.814
64750SOL    HW296148  10.241   9.072   0.062
64751SOL     OW96149  10.843   3.645   9.608
64751SOL    HW196150  10.906   3.575   9.592
64751SOL    HW296151  10.759   3.608   9.582
64752SOL     OW96152   4.944   7.658  12.831
64752SOL    HW196153   4.877   7.678  12.897
64752SOL    HW296154   4.893   7.637  12.752
64753SOL     OW96155   8.582   1.019   7.253
64753SOL    HW196156   8.611   1.102   7.215
64753SOL    HW296157   8.504   1.041   7.303
64754SOL     OW96158   3.648   0.337   3.004
64754SOL    HW196159   3.663   0.270   2.938
64754SOL    HW296160   3.651   0.419   2.956
64755SOL     OW96161   1.855   8.207   9.600
64755SOL    HW196162   1.936   8.209   9.549
64755SOL    HW296163   1.873   8.145   9.671
64756SOL     OW96164  14.496  10.380   2.299
64756SOL    HW196165  14.469  10.424   2.219
64756SOL    HW296166  14.416  10.369   2.350
64757SOL     OW96167   1.967   0.344  11.664
64757SOL    HW196168   1.949   0.252  11.647
64757SOL    HW296169   2.061   0.354  11.646
64758SOL     OW96170  11.739  10.905  14.612
64758SOL    HW196171  11.692  10.973  14.563
64758SOL    HW296172  11.748  10.833  14.549
64759SOL     OW96173   4.779   6.055   9.815
64759SOL    HW196174   4.742   6.004   9.887
64759SOL    HW296175   4.846   6.110   9.856
64760SOL     OW96176   7.958  10.930   5.220
64760SOL    HW196177   7.939  10.995   5.288
64760SOL    HW296178   8.039  10.888   5.250
64761SOL     OW96179   0.942   6.520   7.193
64761SOL    HW196180   0.935   6.424   7.194
64761SOL    HW296181   0.890   6.547   7.117
64762SOL     OW96182   2.048   3.440  12.690
64762SOL    HW196183   2.063   3.532  12.709
64762SOL    HW296184   2.047   3.397  12.776
64763SOL     OW96185  11.999   4.876   4.746
64763SOL    HW196186  11.922   4.822   4.763
64763SOL    HW296187  12.031   4.846   4.661
64764SOL     OW96188  13.620   9.013   0.870
64764SOL    HW196189  13.536   9.057   0.863
64764SOL    HW296190  13.640   9.014   0.964
64765SOL     OW96191   5.815  13.284  10.360
64765SOL    HW196192   5.833  13.241  10.444
64765SOL    HW296193   5.810  13.377  10.381
64766SOL     OW96194   4.235   9.143   6.556
64766SOL    HW196195   4.168   9.184   6.502
64766SOL    HW296196   4.246   9.056   6.520
64767SOL     OW96197  10.543   7.561   2.376
64767SOL    HW196198  10.575   7.472   2.389
64767SOL    HW296199  10.494   7.581   2.455
64768SOL     OW96200  13.139   1.912  10.146
64768SOL    HW196201  13.047   1.924  10.124
64768SOL    HW296202  13.172   1.851  10.080
64769SOL     OW96203   9.668   7.133   5.762
64769SOL    HW196204   9.591   7.113   5.709
64769SOL    HW296205   9.741   7.097   5.713
64770SOL     OW96206  13.004   7.011   4.390
64770SOL    HW196207  12.919   6.967   4.391
64770SOL    HW296208  13.010   7.051   4.304
64771SOL     OW96209  11.059  10.226   0.847
64771SOL    HW196210  11.110  10.273   0.781
64771SOL    HW296211  10.986  10.188   0.798
64772SOL     OW96212   7.503  12.729   0.901
64772SOL    HW196213   7.511  12.676   0.981
64772SOL    HW296214   7.418  12.703   0.865
64773SOL     OW96215  13.251  12.811   2.285
64773SOL    HW196216  13.212  12.897   2.298
64773SOL    HW296217  13.177  12.755   2.259
64774SOL     OW96218  10.114   3.519   7.007
64774SOL    HW196219  10.123   3.437   7.054
64774SOL    HW296220  10.203   3.553   7.001
64775SOL     OW96221   9.778   8.868   6.859
64775SOL    HW196222   9.803   8.897   6.947
64775SOL    HW296223   9.740   8.781   6.872
64776SOL     OW96224   7.623   9.316  11.633
64776SOL    HW196225   7.646   9.373  11.706
64776SOL    HW296226   7.700   9.316  11.577
64777SOL     OW96227   7.094  12.610   9.875
64777SOL    HW196228   7.135  12.525   9.886
64777SOL    HW296229   7.077  12.640   9.965
64778SOL     OW96230   4.759   2.915   0.623
64778SOL    HW196231   4.807   2.941   0.702
64778SOL    HW296232   4.679   2.968   0.625
64779SOL     OW96233  13.378   0.115   8.888
64779SOL    HW196234  13.352   0.190   8.941
64779SOL    HW296235  13.473   0.113   8.894
64780SOL     OW96236   4.060   9.794  11.096
64780SOL    HW196237   4.146   9.832  11.114
64780SOL    HW296238   4.007   9.820  11.172
64781SOL     OW96239   5.292   3.687  14.609
64781SOL    HW196240   5.272   3.595  14.625
64781SOL    HW296241   5.275   3.730  14.693
64782SOL     OW96242   3.661   9.113  13.040
64782SOL    HW196243   3.636   9.127  13.132
64782SOL    HW296244   3.629   9.025  13.019
64783SOL     OW96245   1.426   5.536  13.624
64783SOL    HW196246   1.487   5.515  13.552
64783SOL    HW296247   1.468   5.610  13.669
64784SOL     OW96248   8.851   4.786  14.220
64784SOL    HW196249   8.824   4.751  14.304
64784SOL    HW296250   8.791   4.746  14.157
64785SOL     OW96251  12.555   7.975   2.004
64785SOL    HW196252  12.497   8.039   1.962
64785SOL    HW296253  12.642   8.012   1.993
64786SOL     OW96254   0.941  12.291   1.164
64786SOL    HW196255   0.961  12.279   1.071
64786SOL    HW296256   0.984  12.217   1.208
64787SOL     OW96257  12.339   1.477   9.349
64787SOL    HW196258  12.376   1.414   9.287
64787SOL    HW296259  12.284   1.425   9.407
64788SOL     OW96260  10.455   6.478   2.134
64788SOL    HW196261  10.505   6.416   2.081
64788SOL    HW296262  10.494   6.563   2.117
64789SOL     OW96263   3.254   3.583   7.250
64789SOL    HW196264   3.169   3.621   7.273
64789SOL    HW296265   3.234   3.490   7.234
64790SOL     OW96266   4.287  14.017   0.490
64790SOL    HW196267   4.295  14.077   0.416
64790SOL    HW296268   4.370  13.968   0.490
64791SOL     OW96269  13.370  12.271   6.104
64791SOL    HW196270  13.374  12.319   6.187
64791SOL    HW296271  13.360  12.180   6.130
64792SOL     OW96272   0.128  11.452  13.360
64792SOL    HW196273   0.103  11.406  13.280
64792SOL    HW296274   0.077  11.533  13.356
64793SOL     OW96275  10.292   5.592   7.857
64793SOL    HW196276  10.293   5.509   7.810
64793SOL    HW296277  10.363   5.643   7.818
64794SOL     OW96278  14.809   7.419  11.247
64794SOL    HW196279  14.854   7.439  11.166
64794SOL    HW296280  14.878   7.405  11.311
64795SOL     OW96281   6.115   0.108   7.880
64795SOL    HW196282   6.182   0.042   7.902
64795SOL    HW296283   6.090   0.145   7.965
64796SOL     OW96284   1.674   5.347  14.522
64796SOL    HW196285   1.767   5.338  14.500
64796SOL    HW296286   1.642   5.415  14.463
64797SOL     OW96287   0.321  14.473  14.027
64797SOL    HW196288   0.387  14.481  14.096
64797SOL    HW296289   0.285  14.561  14.017
64798SOL     OW96290  11.584  12.926   9.357
64798SOL    HW196291  11.619  12.994   9.299
64798SOL    HW296292  11.492  12.919   9.332
64799SOL     OW96293   2.235   8.474   0.101
64799SOL    HW196294   2.279   8.446   0.021
64799SOL    HW296295   2.272   8.560   0.121
64800SOL     OW96296   5.240  12.917   9.434
64800SOL    HW196297   5.214  12.919   9.342
64800SOL    HW296298   5.307  12.850   9.439
64801SOL     OW96299   6.865  11.489  10.076
64801SOL    HW196300   6.876  11.395  10.090
64801SOL    HW296301   6.952  11.520  10.050
64802SOL     OW96302   7.040  13.827  13.873
64802SOL    HW196303   6.999  13.804  13.789
64802SOL    HW296304   6.994  13.774  13.938
64803SOL     OW96305  13.877  13.132  10.567
64803SOL    HW196306  13.855  13.132  10.473
64803SOL    HW296307  13.796  13.160  10.610
64804SOL     OW96308   9.355   8.469  11.395
64804SOL    HW196309   9.317   8.452  11.309
64804SOL    HW296310   9.430   8.526  11.378
64805SOL     OW96311   1.219   6.457   2.759
64805SOL    HW196312   1.170   6.535   2.784
64805SOL    HW296313   1.209   6.397   2.833
64806SOL     OW96314   0.362   1.213   3.516
64806SOL    HW196315   0.351   1.183   3.426
64806SOL    HW296316   0.293   1.169   3.566
64807SOL     OW96317   4.083   3.618  12.025
64807SOL    HW196318   4.111   3.627  11.934
64807SOL    HW296319   3.996   3.658  12.027
64808SOL     OW96320   7.295   6.831   6.879
64808SOL    HW196321   7.383   6.863   6.861
64808SOL    HW296322   7.294   6.741   6.846
64809SOL     OW96323   1.941   6.369   9.589
64809SOL    HW196324   1.938   6.343   9.681
64809SOL    HW296325   2.017   6.324   9.553
64810SOL     OW96326  13.178  11.276  12.456
64810SOL    HW196327  13.245  11.339  12.482
64810SOL    HW296328  13.191  11.264  12.362
64811SOL     OW96329  12.132   0.307   5.449
64811SOL    HW196330  12.080   0.365   5.394
64811SOL    HW296331  12.120   0.220   5.410
64812SOL     OW96332   0.917  12.701   7.846
64812SOL    HW196333   0.999  12.703   7.894
64812SOL    HW296334   0.873  12.783   7.868
64813SOL     OW96335   8.351   1.844   5.387
64813SOL    HW196336   8.364   1.790   5.465
64813SOL    HW296337   8.439   1.875   5.365
64814SOL     OW96338   6.416   3.963  10.582
64814SOL    HW196339   6.345   3.998  10.636
64814SOL    HW296340   6.374   3.897  10.527
64815SOL     OW96341   4.146   0.401  14.676
64815SOL    HW196342   4.218   0.348  14.711
64815SOL    HW296343   4.144   0.379  14.583
64816SOL     OW96344  14.035  13.515   6.111
64816SOL    HW196345  13.984  13.566   6.174
64816SOL    HW296346  14.097  13.466   6.165
64817SOL     OW96347   2.775   6.989   4.468
64817SOL    HW196348   2.820   7.027   4.392
64817SOL    HW296349   2.747   6.903   4.439
64818SOL     OW96350  13.425   8.332   7.414
64818SOL    HW196351  13.450   8.421   7.440
64818SOL    HW296352  13.501   8.298   7.368
64819SOL     OW96353   5.741   7.445  14.708
64819SOL    HW196354   5.696   7.412  14.787
64819SOL    HW296355   5.674   7.496  14.662
64820SOL     OW96356   6.149   7.967   3.062
64820SOL    HW196357   6.078   8.005   3.115
64820SOL    HW296358   6.198   7.912   3.123
64821SOL     OW96359   9.119  13.199   2.910
64821SOL    HW196360   9.207  13.204   2.947
64821SOL    HW296361   9.131  13.220   2.817
64822SOL     OW96362   6.269   3.746   5.591
64822SOL    HW196363   6.285   3.699   5.673
64822SOL    HW296364   6.183   3.788   5.604
64823SOL     OW96365  13.471   3.197   6.270
64823SOL    HW196366  13.543   3.221   6.212
64823SOL    HW296367  13.396   3.184   6.212
64824SOL     OW96368   6.687  10.971   2.900
64824SOL    HW196369   6.712  10.880   2.919
64824SOL    HW296370   6.665  11.008   2.986
64825SOL     OW96371   8.810   5.250   2.533
64825SOL    HW196372   8.874   5.315   2.504
64825SOL    HW296373   8.781   5.207   2.453
64826SOL     OW96374  11.155   2.940   1.367
64826SOL    HW196375  11.123   2.876   1.431
64826SOL    HW296376  11.237   2.973   1.404
64827SOL     OW96377   5.137   8.906   2.276
64827SOL    HW196378   5.104   8.939   2.191
64827SOL    HW296379   5.176   8.983   2.317
64828SOL     OW96380   9.743   8.352   3.300
64828SOL    HW196381   9.706   8.382   3.383
64828SOL    HW296382   9.783   8.429   3.261
64829SOL     OW96383  14.615  10.758  12.499
64829SOL    HW196384  14.635  10.664  12.501
64829SOL    HW296385  14.696  10.800  12.528
64830SOL     OW96386  14.027  12.852   5.626
64830SOL    HW196387  13.957  12.909   5.594
64830SOL    HW296388  14.106  12.881   5.580
64831SOL     OW96389   5.660   4.024   2.078
64831SOL    HW196390   5.728   4.027   2.011
64831SOL    HW296391   5.625   3.935   2.073
64832SOL     OW96392   6.662   4.854   2.897
64832SOL    HW196393   6.594   4.801   2.856
64832SOL    HW296394   6.683   4.808   2.979
64833SOL     OW96395   1.000   0.575  12.383
64833SOL    HW196396   1.047   0.498  12.351
64833SOL    HW296397   1.030   0.585  12.474
64834SOL     OW96398   7.999   4.228   2.053
64834SOL    HW196399   7.968   4.265   1.970
64834SOL    HW296400   8.080   4.276   2.071
64835SOL     OW96401   5.000  13.881   6.367
64835SOL    HW196402   4.977  13.807   6.311
64835SOL    HW296403   5.015  13.842   6.453
64836SOL     OW96404   6.098   3.571  13.107
64836SOL    HW196405   6.169   3.634  13.099
64836SOL    HW296406   6.023   3.623  13.137
64837SOL     OW96407  10.992   4.069   1.576
64837SOL    HW196408  10.959   4.148   1.619
64837SOL    HW296409  11.004   4.096   1.484
64838SOL     OW96410  12.649   8.860   7.295
64838SOL    HW196411  12.625   8.936   7.243
64838SOL    HW296412  12.723   8.889   7.348
64839SOL     OW96413   9.784   9.064   3.924
64839SOL    HW196414   9.816   8.979   3.953
64839SOL    HW296415   9.841   9.127   3.969
64840SOL     OW96416   0.918  14.056   7.256
64840SOL    HW196417   0.911  14.145   7.220
64840SOL    HW296418   1.011  14.036   7.253
64841SOL     OW96419   6.872   9.490   9.660
64841SOL    HW196420   6.844   9.414   9.711
64841SOL    HW296421   6.908   9.454   9.579
64842SOL     OW96422   9.323  14.673   5.335
64842SOL    HW196423   9.249  14.678   5.396
64842SOL    HW296424   9.371  14.755   5.350
64843SOL     OW96425   7.006  13.885   6.438
64843SOL    HW196426   6.935  13.848   6.385
64843SOL    HW296427   7.014  13.975   6.408
64844SOL     OW96428   1.108   6.312   6.487
64844SOL    HW196429   1.023   6.275   6.461
64844SOL    HW296430   1.090   6.404   6.504
64845SOL     OW96431   0.864   8.145  14.443
64845SOL    HW196432   0.902   8.231  14.424
64845SOL    HW296433   0.789   8.139  14.383
64846SOL     OW96434   9.718   2.290   0.314
64846SOL    HW196435   9.788   2.225   0.322
64846SOL    HW296436   9.763   2.371   0.291
64847SOL     OW96437   0.390   0.253   5.394
64847SOL    HW196438   0.402   0.168   5.436
64847SOL    HW296439   0.475   0.274   5.357
64848SOL     OW96440   9.872  14.377   8.632
64848SOL    HW196441   9.919  14.313   8.579
64848SOL    HW296442   9.797  14.329   8.667
64849SOL     OW96443   0.677  13.731  14.859
64849SOL    HW196444   0.734  13.787   0.031
64849SOL    HW296445   0.722  13.720  14.775
64850SOL     OW96446  10.801   5.534   8.796
64850SOL    HW196447  10.794   5.548   8.701
64850SOL    HW296448  10.762   5.613   8.835
64851SOL     OW96449  13.547   6.387  11.590
64851SOL    HW196450  13.589   6.307  11.559
64851SOL    HW296451  13.619   6.441  11.622
64852SOL     OW96452  13.054   4.706  12.657
64852SOL    HW196453  13.052   4.748  12.571
64852SOL    HW296454  12.986   4.751  12.707
64853SOL     OW96455  13.271  14.071   2.895
64853SOL    HW196456  13.256  14.128   2.819
64853SOL    HW296457  13.272  14.130   2.970
64854SOL     OW96458  14.537   8.451   9.126
64854SOL    HW196459  14.594   8.376   9.106
64854SOL    HW296460  14.550   8.511   9.054
64855SOL     OW96461   2.589  11.630  10.594
64855SOL    HW196462   2.633  11.556  10.637
64855SOL    HW296463   2.498  11.622  10.621
64856SOL     OW96464   8.182   4.149  12.904
64856SOL    HW196465   8.263   4.100  12.896
64856SOL    HW296466   8.157   4.168  12.814
64857SOL     OW96467   9.806   4.319   6.069
64857SOL    HW196468   9.786   4.401   6.023
64857SOL    HW296469   9.895   4.332   6.102
64858SOL     OW96470  13.569   3.187   8.452
64858SOL    HW196471  13.635   3.246   8.416
64858SOL    HW296472  13.610   3.151   8.531
64859SOL     OW96473   6.328   4.977   9.270
64859SOL    HW196474   6.292   4.892   9.294
64859SOL    HW296475   6.301   4.990   9.179
64860SOL     OW96476   2.075   0.204  12.132
64860SOL    HW196477   2.067   0.183  12.039
64860SOL    HW296478   2.151   0.262  12.138
64861SOL     OW96479   5.657   1.985   6.556
64861SOL    HW196480   5.685   1.961   6.467
64861SOL    HW296481   5.724   1.948   6.613
64862SOL     OW96482  10.389  13.557   8.818
64862SOL    HW196483  10.381  13.493   8.888
64862SOL    HW296484  10.325  13.625   8.840
64863SOL     OW96485   9.499   0.536  10.557
64863SOL    HW196486   9.433   0.557  10.491
64863SOL    HW296487   9.576   0.508  10.507
64864SOL     OW96488  13.686   3.433   7.600
64864SOL    HW196489  13.649   3.501   7.657
64864SOL    HW296490  13.772   3.467   7.575
64865SOL     OW96491  14.564   0.676   1.319
64865SOL    HW196492  14.647   0.684   1.273
64865SOL    HW296493  14.531   0.589   1.295
64866SOL     OW96494  14.279   8.883   3.572
64866SOL    HW196495  14.262   8.961   3.625
64866SOL    HW296496  14.318   8.821   3.634
64867SOL     OW96497   8.148   9.479   4.063
64867SOL    HW196498   8.225   9.442   4.107
64867SOL    HW296499   8.165   9.573   4.060
64868SOL     OW96500   6.266   3.490   3.990
64868SOL    HW196501   6.235   3.574   4.024
64868SOL    HW296502   6.342   3.512   3.936
64869SOL     OW96503   7.038   3.949   0.366
64869SOL    HW196504   7.007   3.894   0.295
64869SOL    HW296505   7.061   3.888   0.436
64870SOL     OW96506   2.578   3.410   7.645
64870SOL    HW196507   2.657   3.368   7.611
64870SOL    HW296508   2.604   3.502   7.659
64871SOL     OW96509   8.917   3.216   9.498
64871SOL    HW196510   8.931   3.124   9.476
64871SOL    HW296511   8.871   3.214   9.582
64872SOL     OW96512   4.497   7.265   8.494
64872SOL    HW196513   4.516   7.171   8.494
64872SOL    HW296514   4.582   7.307   8.494
64873SOL     OW96515   8.779   6.482  10.266
64873SOL    HW196516   8.738   6.484  10.353
64873SOL    HW296517   8.844   6.552  10.269
64874SOL     OW96518   7.204   0.110   1.521
64874SOL    HW196519   7.208   0.062   1.604
64874SOL    HW296520   7.272   0.177   1.528
64875SOL     OW96521  10.110  14.643  12.583
64875SOL    HW196522  10.084  14.559  12.620
64875SOL    HW296523  10.105  14.704  12.656
64876SOL     OW96524  11.076   5.766   3.069
64876SOL    HW196525  11.147   5.742   3.128
64876SOL    HW296526  11.039   5.683   3.041
64877SOL     OW96527  11.610   4.631   0.782
64877SOL    HW196528  11.522   4.613   0.749
64877SOL    HW296529  11.630   4.720   0.751
64878SOL     OW96530  14.361  11.934   7.158
64878SOL    HW196531  14.357  11.999   7.228
64878SOL    HW296532  14.418  11.865   7.192
64879SOL     OW96533   1.411   0.630   2.621
64879SOL    HW196534   1.478   0.676   2.570
64879SOL    HW296535   1.343   0.695   2.636
64880SOL     OW96536  11.427   1.286   9.105
64880SOL    HW196537  11.473   1.206   9.132
64880SOL    HW296538  11.348   1.287   9.158
64881SOL     OW96539   4.272   9.088   7.084
64881SOL    HW196540   4.252   9.118   6.995
64881SOL    HW296541   4.281   9.168   7.135
64882SOL     OW96542   3.102   4.485   8.339
64882SOL    HW196543   3.128   4.402   8.379
64882SOL    HW296544   3.115   4.471   8.245
64883SOL     OW96545   1.717   5.250   0.643
64883SOL    HW196546   1.766   5.247   0.725
64883SOL    HW296547   1.671   5.333   0.646
64884SOL     OW96548   5.701   3.852   7.392
64884SOL    HW196549   5.695   3.757   7.404
64884SOL    HW296550   5.662   3.888   7.472
64885SOL     OW96551   3.825  10.247   6.822
64885SOL    HW196552   3.741  10.227   6.865
64885SOL    HW296553   3.838  10.340   6.837
64886SOL     OW96554   8.254   7.529  13.876
64886SOL    HW196555   8.271   7.591  13.947
64886SOL    HW296556   8.196   7.463  13.915
64887SOL     OW96557  14.141   0.713   7.116
64887SOL    HW196558  14.181   0.780   7.171
64887SOL    HW296559  14.099   0.653   7.177
64888SOL     OW96560   1.911   7.347   2.966
64888SOL    HW196561   1.816   7.342   2.955
64888SOL    HW296562   1.924   7.416   3.032
64889SOL     OW96563   9.610  10.130   6.192
64889SOL    HW196564   9.693  10.142   6.146
64889SOL    HW296565   9.558  10.207   6.169
64890SOL     OW96566   1.964   8.129   6.933
64890SOL    HW196567   1.927   8.198   6.988
64890SOL    HW296568   2.011   8.176   6.864
64891SOL     OW96569  10.920   0.767   9.871
64891SOL    HW196570  10.955   0.783   9.784
64891SOL    HW296571  10.958   0.683   9.897
64892SOL     OW96572  12.057   9.055  13.226
64892SOL    HW196573  12.026   9.140  13.257
64892SOL    HW296574  12.003   9.036  13.149
64893SOL     OW96575   5.516   7.713   4.151
64893SOL    HW196576   5.479   7.788   4.198
64893SOL    HW296577   5.544   7.653   4.220
64894SOL     OW96578   0.059   6.366   0.496
64894SOL    HW196579   0.136   6.417   0.518
64894SOL    HW296580  14.872   6.431   0.472
64895SOL     OW96581   0.264  13.103  12.323
64895SOL    HW196582   0.224  13.186  12.349
64895SOL    HW296583   0.245  13.043  12.395
64896SOL     OW96584   9.425   4.249  14.442
64896SOL    HW196585   9.429   4.295  14.358
64896SOL    HW296586   9.338   4.210  14.444
64897SOL     OW96587  10.572   1.379   7.310
64897SOL    HW196588  10.596   1.402   7.220
64897SOL    HW296589  10.541   1.461   7.348
64898SOL     OW96590   7.089   2.538  12.867
64898SOL    HW196591   7.168   2.591  12.855
64898SOL    HW296592   7.102   2.496  12.952
64899SOL     OW96593  11.100   1.621   0.634
64899SOL    HW196594  11.057   1.706   0.643
64899SOL    HW296595  11.134   1.602   0.721
64900SOL     OW96596   9.922   7.878   7.489
64900SOL    HW196597   9.991   7.817   7.512
64900SOL    HW296598   9.965   7.946   7.438
64901SOL     OW96599   5.447   9.076   0.536
64901SOL    HW196600   5.439   9.105   0.445
64901SOL    HW296601   5.528   9.025   0.538
64902SOL     OW96602   2.893   0.674   0.671
64902SOL    HW196603   2.897   0.738   0.599
64902SOL    HW296604   2.807   0.634   0.662
64903SOL     OW96605   6.763   5.952   7.989
64903SOL    HW196606   6.780   5.858   7.994
64903SOL    HW296607   6.755   5.970   7.896
64904SOL     OW96608   4.996   0.777   9.610
64904SOL    HW196609   4.991   0.850   9.671
64904SOL    HW296610   4.922   0.721   9.633
64905SOL     OW96611   0.995   5.851   0.312
64905SOL    HW196612   0.960   5.904   0.384
64905SOL    HW296613   1.090   5.854   0.323
64906SOL     OW96614  12.122  13.599   0.102
64906SOL    HW196615  12.208  13.575   0.137
64906SOL    HW296616  12.123  13.567   0.012
64907SOL     OW96617  10.520   9.861   4.558
64907SOL    HW196618  10.603   9.892   4.523
64907SOL    HW296619  10.468   9.838   4.481
64908SOL     OW96620  10.283  12.971   6.343
64908SOL    HW196621  10.273  12.876   6.335
64908SOL    HW296622  10.196  13.001   6.369
64909SOL     OW96623   6.789  11.140  13.576
64909SOL    HW196624   6.764  11.055  13.538
64909SOL    HW296625   6.811  11.195  13.501
64910SOL     OW96626   2.165   3.291  13.472
64910SOL    HW196627   2.254   3.326  13.471
64910SOL    HW296628   2.110   3.367  13.491
64911SOL     OW96629   4.890   6.089  11.856
64911SOL    HW196630   4.976   6.095  11.814
64911SOL    HW296631   4.828   6.119  11.789
64912SOL     OW96632  10.971   6.875  13.270
64912SOL    HW196633  10.899   6.815  13.251
64912SOL    HW296634  10.932   6.962  13.260
64913SOL     OW96635   1.956  10.571   3.805
64913SOL    HW196636   2.032  10.517   3.828
64913SOL    HW296637   1.922  10.601   3.889
64914SOL     OW96638  14.265   5.088   4.317
64914SOL    HW196639  14.302   5.009   4.279
64914SOL    HW296640  14.257   5.069   4.410
64915SOL     OW96641  14.757  11.667   4.153
64915SOL    HW196642  14.679  11.626   4.116
64915SOL    HW296643  14.829  11.634   4.100
64916SOL     OW96644  10.241   9.058   1.844
64916SOL    HW196645  10.281   8.979   1.806
64916SOL    HW296646  10.270   9.058   1.935
64917SOL     OW96647   5.999  13.957   6.495
64917SOL    HW196648   5.943  13.912   6.432
64917SOL    HW296649   6.035  13.888   6.550
64918SOL     OW96650  14.110   8.393   9.565
64918SOL    HW196651  14.082   8.349   9.485
64918SOL    HW296652  14.194   8.352   9.587
64919SOL     OW96653   7.443   8.153   1.352
64919SOL    HW196654   7.528   8.109   1.349
64919SOL    HW296655   7.430   8.187   1.263
64920SOL     OW96656   1.065   6.630   5.181
64920SOL    HW196657   1.077   6.640   5.087
64920SOL    HW296658   1.040   6.539   5.193
64921SOL     OW96659   1.484  11.279   0.732
64921SOL    HW196660   1.481  11.207   0.794
64921SOL    HW296661   1.407  11.332   0.752
64922SOL     OW96662   1.888  10.614  12.458
64922SOL    HW196663   1.812  10.577  12.502
64922SOL    HW296664   1.907  10.553  12.387
64923SOL     OW96665  10.774   5.872   6.885
64923SOL    HW196666  10.804   5.847   6.972
64923SOL    HW296667  10.798   5.965   6.877
64924SOL     OW96668   5.358   1.735  12.469
64924SOL    HW196669   5.337   1.824  12.438
64924SOL    HW296670   5.453   1.728  12.458
64925SOL     OW96671  12.851  11.204  11.091
64925SOL    HW196672  12.939  11.242  11.092
64925SOL    HW296673  12.867  11.110  11.082
64926SOL     OW96674   5.104   5.088  10.002
64926SOL    HW196675   5.021   5.119   9.966
64926SOL    HW296676   5.170   5.138   9.954
64927SOL     OW96677  10.503  10.083  12.452
64927SOL    HW196678  10.501  10.122  12.539
64927SOL    HW296679  10.443  10.136  12.400
64928SOL     OW96680   2.639   4.759   4.300
64928SOL    HW196681   2.605   4.761   4.389
64928SOL    HW296682   2.732   4.781   4.309
64929SOL     OW96683   2.856   0.230   2.098
64929SOL    HW196684   2.857   0.322   2.073
64929SOL    HW296685   2.947   0.210   2.120
64930SOL     OW96686   5.814   2.230   5.670
64930SOL    HW196687   5.858   2.245   5.587
64930SOL    HW296688   5.880   2.188   5.725
64931SOL     OW96689  14.016   1.756   1.874
64931SOL    HW196690  14.014   1.835   1.820
64931SOL    HW296691  14.012   1.788   1.964
64932SOL     OW96692   4.042   0.265   2.325
64932SOL    HW196693   4.088   0.312   2.256
64932SOL    HW296694   3.968   0.322   2.349
64933SOL     OW96695   3.057   7.720   9.618
64933SOL    HW196696   3.108   7.643   9.595
64933SOL    HW296697   3.073   7.782   9.546
64934SOL     OW96698   7.189   6.884  12.672
64934SOL    HW196699   7.185   6.879  12.576
64934SOL    HW296700   7.171   6.795  12.702
64935SOL     OW96701  10.758   9.576   7.342
64935SOL    HW196702  10.804   9.656   7.369
64935SOL    HW296703  10.735   9.533   7.424
64936SOL     OW96704   8.972   5.643   6.120
64936SOL    HW196705   8.926   5.634   6.036
64936SOL    HW296706   8.911   5.610   6.185
64937SOL     OW96707   8.316  13.997   7.266
64937SOL    HW196708   8.399  13.950   7.267
64937SOL    HW296709   8.326  14.066   7.331
64938SOL     OW96710   4.317   4.947   5.618
64938SOL    HW196711   4.339   4.986   5.702
64938SOL    HW296712   4.383   4.983   5.557
64939SOL     OW96713  10.690   1.376  13.099
64939SOL    HW196714  10.746   1.308  13.137
64939SOL    HW296715  10.736   1.458  13.116
64940SOL     OW96716   6.344   3.625   2.133
64940SOL    HW196717   6.314   3.559   2.071
64940SOL    HW296718   6.370   3.699   2.078
64941SOL     OW96719   3.311  13.093  13.449
64941SOL    HW196720   3.352  13.027  13.505
64941SOL    HW296721   3.230  13.052  13.419
64942SOL     OW96722   0.200   2.003   9.696
64942SOL    HW196723   0.239   1.943   9.760
64942SOL    HW296724   0.242   2.087   9.713
64943SOL     OW96725   3.292   6.377   2.381
64943SOL    HW196726   3.224   6.365   2.447
64943SOL    HW296727   3.243   6.390   2.299
64944SOL     OW96728   5.859   5.425  12.731
64944SOL    HW196729   5.769   5.394  12.725
64944SOL    HW296730   5.863   5.499  12.670
64945SOL     OW96731  11.861  10.919  11.585
64945SOL    HW196732  11.907  10.912  11.669
64945SOL    HW296733  11.840  10.828  11.562
64946SOL     OW96734   8.838  12.773   5.012
64946SOL    HW196735   8.797  12.687   5.005
64946SOL    HW296736   8.856  12.784   5.105
64947SOL     OW96737   0.280  10.642  11.793
64947SOL    HW196738   0.233  10.721  11.768
64947SOL    HW296739   0.287  10.592  11.712
64948SOL     OW96740  13.333  14.358   0.916
64948SOL    HW196741  13.273  14.328   0.848
64948SOL    HW296742  13.277  14.368   0.994
64949SOL     OW96743   2.844   6.591   1.908
64949SOL    HW196744   2.924   6.641   1.926
64949SOL    HW296745   2.782   6.620   1.976
64950SOL     OW96746  10.435  11.362  10.149
64950SOL    HW196747  10.458  11.298  10.216
64950SOL    HW296748  10.466  11.323  10.067
64951SOL     OW96749   6.569  10.239   8.587
64951SOL    HW196750   6.648  10.216   8.637
64951SOL    HW296751   6.584  10.329   8.558
64952SOL     OW96752   2.322   5.307  14.580
64952SOL    HW196753   2.394   5.290  14.642
64952SOL    HW296754   2.347   5.260  14.501
64953SOL     OW96755  10.789   6.038   7.736
64953SOL    HW196756  10.778   6.069   7.646
64953SOL    HW296757  10.821   6.115   7.784
64954SOL     OW96758  10.359  14.627  14.537
64954SOL    HW196759  10.424  14.580  14.485
64954SOL    HW296760  10.283  14.569  14.538
64955SOL     OW96761  11.569   7.067   9.543
64955SOL    HW196762  11.581   7.141   9.484
64955SOL    HW296763  11.590   7.101   9.630
64956SOL     OW96764  12.551  14.562   8.260
64956SOL    HW196765  12.598  14.538   8.340
64956SOL    HW296766  12.612  14.540   8.189
64957SOL     OW96767  10.714   9.045   2.549
64957SOL    HW196768  10.778   9.018   2.483
64957SOL    HW296769  10.726   9.140   2.557
64958SOL     OW96770  10.385   2.671   4.244
64958SOL    HW196771  10.374   2.698   4.153
64958SOL    HW296772  10.479   2.664   4.257
64959SOL     OW96773   3.077   1.968   0.483
64959SOL    HW196774   3.169   1.943   0.482
64959SOL    HW296775   3.077   2.062   0.500
64960SOL     OW96776   0.246   1.754   5.572
64960SOL    HW196777   0.227   1.728   5.662
64960SOL    HW296778   0.324   1.809   5.578
64961SOL     OW96779  12.854   2.230   1.110
64961SOL    HW196780  12.867   2.291   1.037
64961SOL    HW296781  12.761   2.211   1.109
64962SOL     OW96782  11.175   7.195  12.169
64962SOL    HW196783  11.130   7.171  12.088
64962SOL    HW296784  11.105   7.218  12.230
64963SOL     OW96785   2.119   3.403   9.105
64963SOL    HW196786   2.097   3.450   9.025
64963SOL    HW296787   2.161   3.469   9.160
64964SOL     OW96788   7.062  11.741   3.131
64964SOL    HW196789   7.010  11.800   3.076
64964SOL    HW296790   7.058  11.780   3.218
64965SOL     OW96791   5.767   4.189   7.016
64965SOL    HW196792   5.861   4.193   7.034
64965SOL    HW296793   5.745   4.276   6.983
64966SOL     OW96794   3.952   5.014   6.465
64966SOL    HW196795   3.967   5.108   6.471
64966SOL    HW296796   3.863   5.002   6.498
64967SOL     OW96797   3.144   7.304   3.096
64967SOL    HW196798   3.171   7.327   3.185
64967SOL    HW296799   3.200   7.357   3.039
64968SOL     OW96800   9.067   7.491  14.552
64968SOL    HW196801   9.064   7.445  14.636
64968SOL    HW296802   8.992   7.550  14.554
64969SOL     OW96803   4.146   1.674   1.729
64969SOL    HW196804   4.091   1.673   1.808
64969SOL    HW296805   4.090   1.710   1.661
64970SOL     OW96806  11.278  12.396   9.362
64970SOL    HW196807  11.242  12.328   9.306
64970SOL    HW296808  11.366  12.411   9.327
64971SOL     OW96809   0.791   4.970  13.351
64971SOL    HW196810   0.791   5.065  13.343
64971SOL    HW296811   0.818   4.952  13.441
64972SOL     OW96812   0.143   8.626   7.990
64972SOL    HW196813   0.075   8.565   8.018
64972SOL    HW296814   0.128   8.638   7.896
64973SOL     OW96815   0.401   5.501   2.078
64973SOL    HW196816   0.418   5.407   2.078
64973SOL    HW296817   0.402   5.526   2.170
64974SOL     OW96818  13.656  14.054  10.576
64974SOL    HW196819  13.702  13.987  10.526
64974SOL    HW296820  13.573  14.066  10.530
64975SOL     OW96821   6.499  10.872   3.163
64975SOL    HW196822   6.563  10.800   3.168
64975SOL    HW296823   6.422  10.838   3.208
64976SOL     OW96824   0.972   9.847   0.870
64976SOL    HW196825   0.954   9.754   0.859
64976SOL    HW296826   1.049   9.864   0.816
64977SOL     OW96827   1.567   4.692   7.341
64977SOL    HW196828   1.624   4.763   7.311
64977SOL    HW296829   1.567   4.629   7.268
64978SOL     OW96830   6.707   7.650  12.929
64978SOL    HW196831   6.631   7.618  12.977
64978SOL    HW296832   6.681   7.646  12.837
64979SOL     OW96833   3.235   4.286   0.407
64979SOL    HW196834   3.254   4.372   0.369
64979SOL    HW296835   3.141   4.275   0.397
64980SOL     OW96836   3.072  11.346  11.850
64980SOL    HW196837   3.137  11.281  11.876
64980SOL    HW296838   3.120  11.408  11.795
64981SOL     OW96839   1.843   6.837   3.512
64981SOL    HW196840   1.774   6.779   3.542
64981SOL    HW296841   1.829   6.918   3.561
64982SOL     OW96842   3.748  10.290  10.326
64982SOL    HW196843   3.677  10.306  10.388
64982SOL    HW296844   3.824  10.272  10.382
64983SOL     OW96845  12.304  13.611   8.920
64983SOL    HW196846  12.232  13.620   8.982
64983SOL    HW296847  12.262  13.612   8.834
64984SOL     OW96848   1.242   9.534   9.827
64984SOL    HW196849   1.330   9.497   9.835
64984SOL    HW296850   1.185   9.466   9.860
64985SOL     OW96851  11.629   7.194  11.182
64985SOL    HW196852  11.659   7.278  11.147
64985SOL    HW296853  11.580   7.217  11.261
64986SOL     OW96854   1.394   2.566   4.109
64986SOL    HW196855   1.337   2.505   4.156
64986SOL    HW296856   1.479   2.558   4.151
64987SOL     OW96857  14.742   3.214   1.440
64987SOL    HW196858  14.739   3.121   1.419
64987SOL    HW296859  14.674   3.226   1.506
64988SOL     OW96860   9.505  14.363  14.195
64988SOL    HW196861   9.544  14.283  14.231
64988SOL    HW296862   9.579  14.417  14.170
64989SOL     OW96863   6.801   8.581  12.749
64989SOL    HW196864   6.714   8.550  12.725
64989SOL    HW296865   6.818   8.653  12.688
64990SOL     OW96866  14.335  12.192  13.801
64990SOL    HW196867  14.299  12.134  13.868
64990SOL    HW296868  14.428  12.198  13.822
64991SOL     OW96869   6.187   7.185   8.906
64991SOL    HW196870   6.210   7.261   8.960
64991SOL    HW296871   6.184   7.220   8.817
64992SOL     OW96872   3.156   7.821   3.618
64992SOL    HW196873   3.061   7.810   3.627
64992SOL    HW296874   3.188   7.735   3.592
64993SOL     OW96875  10.114  14.188  14.082
64993SOL    HW196876  10.061  14.174  14.160
64993SOL    HW296877  10.194  14.137  14.098
64994SOL     OW96878   3.517   4.246   3.603
64994SOL    HW196879   3.508   4.225   3.510
64994SOL    HW296880   3.536   4.340   3.605
64995SOL     OW96881   9.173   2.106   7.846
64995SOL    HW196882   9.114   2.132   7.916
64995SOL    HW296883   9.260   2.133   7.875
64996SOL     OW96884   6.267   1.488   7.797
64996SOL    HW196885   6.205   1.487   7.870
64996SOL    HW296886   6.325   1.562   7.816
64997SOL     OW96887   9.606   0.275   9.400
64997SOL    HW196888   9.637   0.200   9.349
64997SOL    HW296889   9.681   0.334   9.404
64998SOL     OW96890  11.689   6.490   0.475
64998SOL    HW196891  11.718   6.483   0.384
64998SOL    HW296892  11.643   6.408   0.492
64999SOL     OW96893  12.278   0.882   8.470
64999SOL    HW196894  12.349   0.824   8.496
64999SOL    HW296895  12.298   0.965   8.513
65000SOL     OW96896   9.707  13.045   5.917
65000SOL    HW196897   9.734  12.973   5.974
65000SOL    HW296898   9.708  13.008   5.829
65001SOL     OW96899   5.396   7.072   5.668
65001SOL    HW196900   5.440   6.997   5.629
65001SOL    HW296901   5.463   7.115   5.721
65002SOL     OW96902   3.424   2.105   9.920
65002SOL    HW196903   3.413   2.200   9.927
65002SOL    HW296904   3.441   2.076  10.010
65003SOL     OW96905   9.841   4.549   3.592
65003SOL    HW196906   9.809   4.533   3.680
65003SOL    HW296907   9.784   4.619   3.558
65004SOL     OW96908   2.517  11.800   2.786
65004SOL    HW196909   2.599  11.830   2.749
65004SOL    HW296910   2.454  11.807   2.714
65005SOL     OW96911   1.281   1.592  13.372
65005SOL    HW196912   1.213   1.530  13.345
65005SOL    HW296913   1.259   1.614  13.462
65006SOL     OW96914   8.239  13.466   5.419
65006SOL    HW196915   8.201  13.446   5.504
65006SOL    HW296916   8.310  13.528   5.437
65007SOL     OW96917   5.067   2.529   2.423
65007SOL    HW196918   5.042   2.514   2.514
65007SOL    HW296919   4.986   2.517   2.374
65008SOL     OW96920   6.354   4.787  13.842
65008SOL    HW196921   6.313   4.787  13.756
65008SOL    HW296922   6.309   4.717  13.890
65009SOL     OW96923   0.129  14.790  10.729
65009SOL    HW196924   0.049  14.751  10.765
65009SOL    HW296925   0.200  14.745  10.775
65010SOL     OW96926  10.512   3.718   0.102
65010SOL    HW196927  10.513   3.630   0.063
65010SOL    HW296928  10.603   3.733   0.128
65011SOL     OW96929  10.774   0.007   1.745
65011SOL    HW196930  10.868   0.000   1.727
65011SOL    HW296931  10.765   0.085   1.799
65012SOL     OW96932   4.777   2.057   1.729
65012SOL    HW196933   4.793   2.130   1.669
65012SOL    HW296934   4.861   2.044   1.773
65013SOL     OW96935   9.067   3.178   8.726
65013SOL    HW196936   9.109   3.258   8.759
65013SOL    HW296937   9.007   3.209   8.658
65014SOL     OW96938   1.700   2.166   9.184
65014SOL    HW196939   1.771   2.216   9.143
65014SOL    HW296940   1.690   2.088   9.129
65015SOL     OW96941   6.816   0.681  14.231
65015SOL    HW196942   6.791   0.588  14.229
65015SOL    HW296943   6.780   0.713  14.314
65016SOL     OW96944   7.635   8.845   1.544
65016SOL    HW196945   7.591   8.774   1.496
65016SOL    HW296946   7.712   8.865   1.491
65017SOL     OW96947   0.894   7.555   1.456
65017SOL    HW196948   0.914   7.626   1.395
65017SOL    HW296949   0.979   7.532   1.494
65018SOL     OW96950   0.761   5.697   2.238
65018SOL    HW196951   0.847   5.725   2.206
65018SOL    HW296952   0.699   5.754   2.191
65019SOL     OW96953  11.689   9.045   4.659
65019SOL    HW196954  11.736   8.963   4.642
65019SOL    HW296955  11.710   9.101   4.584
65020SOL     OW96956  10.958   2.937   9.159
65020SOL    HW196957  11.013   3.011   9.134
65020SOL    HW296958  10.869   2.971   9.155
65021SOL     OW96959   6.151  12.285   3.649
65021SOL    HW196960   6.114  12.372   3.636
65021SOL    HW296961   6.185  12.286   3.739
65022SOL     OW96962   4.445   8.151  14.479
65022SOL    HW196963   4.350   8.146  14.490
65022SOL    HW296964   4.471   8.062  14.455
65023SOL     OW96965   5.829  12.598   5.332
65023SOL    HW196966   5.897  12.642   5.281
65023SOL    HW296967   5.860  12.604   5.423
65024SOL     OW96968   7.828   0.078  11.750
65024SOL    HW196969   7.798   0.143  11.813
65024SOL    HW296970   7.755   0.068  11.689
65025SOL     OW96971   5.577   8.776   4.971
65025SOL    HW196972   5.506   8.802   4.912
65025SOL    HW296973   5.639   8.849   4.968
65026SOL     OW96974  12.141  13.165  11.729
65026SOL    HW196975  12.062  13.211  11.703
65026SOL    HW296976  12.125  13.140  11.820
65027SOL     OW96977   6.252   4.774   3.546
65027SOL    HW196978   6.335   4.757   3.591
65027SOL    HW296979   6.255   4.867   3.524
65028SOL     OW96980   7.074   9.192  13.657
65028SOL    HW196981   7.055   9.203  13.750
65028SOL    HW296982   7.123   9.270  13.632
65029SOL     OW96983   7.264   3.878  12.128
65029SOL    HW196984   7.177   3.898  12.094
65029SOL    HW296985   7.301   3.964  12.150
65030SOL     OW96986  13.043  10.782  10.526
65030SOL    HW196987  13.104  10.857  10.526
65030SOL    HW296988  12.971  10.810  10.471
65031SOL     OW96989  12.115  11.509   7.549
65031SOL    HW196990  12.146  11.494   7.638
65031SOL    HW296991  12.113  11.421   7.510
65032SOL     OW96992   9.624  12.112   7.739
65032SOL    HW196993   9.675  12.073   7.810
65032SOL    HW296994   9.624  12.045   7.670
65033SOL     OW96995   1.363  14.185   6.877
65033SOL    HW196996   1.369  14.278   6.854
65033SOL    HW296997   1.420  14.176   6.953
65034SOL     OW96998   7.778  10.105  10.716
65034SOL    HW196999   7.812  10.165  10.782
65034SOL    HW297000   7.716  10.049  10.762
65035SOL     OW97001  11.104   1.951   2.034
65035SOL    HW197002  11.027   1.911   1.994
65035SOL    HW297003  11.146   1.880   2.083
65036SOL     OW97004   8.765   4.866  12.179
65036SOL    HW197005   8.726   4.881  12.093
65036SOL    HW297006   8.733   4.779  12.205
65037SOL     OW97007   2.699   9.819   9.047
65037SOL    HW197008   2.784   9.862   9.038
65037SOL    HW297009   2.654   9.837   8.965
65038SOL     OW97010   2.861   0.458   8.773
65038SOL    HW197011   2.880   0.503   8.855
65038SOL    HW297012   2.828   0.372   8.799
65039SOL     OW97013   8.513   3.133   6.511
65039SOL    HW197014   8.464   3.110   6.432
65039SOL    HW297015   8.510   3.229   6.513
65040SOL     OW97016   7.538   9.980   4.615
65040SOL    HW197017   7.462  10.037   4.604
65040SOL    HW297018   7.605  10.037   4.653
65041SOL     OW97019   9.749  13.653  10.197
65041SOL    HW197020   9.796  13.724  10.241
65041SOL    HW297021   9.745  13.680  10.106
65042SOL     OW97022   9.716   8.656  11.755
65042SOL    HW197023   9.740   8.645  11.847
65042SOL    HW297024   9.798   8.678  11.710
65043SOL     OW97025   4.380  11.468  11.555
65043SOL    HW197026   4.404  11.556  11.529
65043SOL    HW297027   4.288  11.459  11.529
65044SOL     OW97028   1.718   8.555  11.481
65044SOL    HW197029   1.722   8.616  11.407
65044SOL    HW297030   1.805   8.561  11.521
65045SOL     OW97031   2.101  10.792  11.844
65045SOL    HW197032   2.175  10.753  11.890
65045SOL    HW297033   2.135  10.874  11.809
65046SOL     OW97034   2.872   3.454   2.475
65046SOL    HW197035   2.919   3.424   2.398
65046SOL    HW297036   2.809   3.384   2.493
65047SOL     OW97037  11.030  12.250   8.018
65047SOL    HW197038  11.064  12.204   7.941
65047SOL    HW297039  11.015  12.181   8.082
65048SOL     OW97040  11.193  11.084   7.367
65048SOL    HW197041  11.285  11.061   7.356
65048SOL    HW297042  11.183  11.102   7.461
65049SOL     OW97043   7.273  12.331   1.404
65049SOL    HW197044   7.249  12.255   1.458
65049SOL    HW297045   7.338  12.377   1.456
65050SOL     OW97046   9.911   0.770   8.884
65050SOL    HW197047  10.000   0.782   8.918
65050SOL    HW297048   9.858   0.832   8.934
65051SOL     OW97049   3.826  14.605  12.334
65051SOL    HW197050   3.781  14.649  12.406
65051SOL    HW297051   3.849  14.519  12.369
65052SOL     OW97052   1.714   7.092   4.493
65052SOL    HW197053   1.770   7.142   4.434
65052SOL    HW297054   1.755   7.100   4.579
65053SOL     OW97055   5.755  11.323   2.158
65053SOL    HW197056   5.700  11.356   2.087
65053SOL    HW297057   5.695  11.276   2.216
65054SOL     OW97058  12.704   5.350   7.605
65054SOL    HW197059  12.690   5.383   7.694
65054SOL    HW297060  12.668   5.418   7.548
65055SOL     OW97061  13.052   4.434   5.463
65055SOL    HW197062  12.999   4.511   5.442
65055SOL    HW297063  13.132   4.445   5.411
65056SOL     OW97064   4.488  10.795   2.733
65056SOL    HW197065   4.581  10.818   2.736
65056SOL    HW297066   4.477  10.754   2.647
65057SOL     OW97067   8.756   0.008  13.777
65057SOL    HW197068   8.819   0.051  13.836
65057SOL    HW297069   8.682   0.068  13.772
65058SOL     OW97070   7.895   3.501   1.959
65058SOL    HW197071   7.861   3.585   1.989
65058SOL    HW297072   7.975   3.487   2.011
65059SOL     OW97073   5.845   6.510   6.036
65059SOL    HW197074   5.907   6.531   6.106
65059SOL    HW297075   5.772   6.466   6.081
65060SOL     OW97076  14.097   4.221  10.714
65060SOL    HW197077  14.141   4.227  10.629
65060SOL    HW297078  14.004   4.225  10.693
65061SOL     OW97079   0.443   2.478   0.541
65061SOL    HW197080   0.390   2.539   0.491
65061SOL    HW297081   0.488   2.533   0.605
65062SOL     OW97082   2.218  11.244   4.090
65062SOL    HW197083   2.295  11.218   4.139
65062SOL    HW297084   2.170  11.302   4.150
65063SOL     OW97085  10.985   6.378  11.785
65063SOL    HW197086  10.914   6.385  11.721
65063SOL    HW297087  10.942   6.350  11.866
65064SOL     OW97088   6.035   3.759   3.512
65064SOL    HW197089   6.013   3.678   3.558
65064SOL    HW297090   6.110   3.736   3.457
65065SOL     OW97091  11.455  10.674  12.309
65065SOL    HW197092  11.430  10.761  12.340
65065SOL    HW297093  11.521  10.644  12.373
65066SOL     OW97094   9.813   4.479   7.619
65066SOL    HW197095   9.853   4.393   7.636
65066SOL    HW297096   9.819   4.525   7.702
65067SOL     OW97097   5.693   3.776   1.279
65067SOL    HW197098   5.712   3.683   1.263
65067SOL    HW297099   5.695   3.817   1.193
65068SOL     OW97100   9.217   7.913  13.047
65068SOL    HW197101   9.269   7.983  13.008
65068SOL    HW297102   9.129   7.949  13.053
65069SOL     OW97103   8.892   8.976   4.793
65069SOL    HW197104   8.988   8.975   4.801
65069SOL    HW297105   8.862   8.917   4.862
65070SOL     OW97106  12.172   8.960   7.562
65070SOL    HW197107  12.092   9.009   7.542
65070SOL    HW297108  12.149   8.905   7.637
65071SOL     OW97109   6.280   8.393   0.769
65071SOL    HW197110   6.315   8.467   0.719
65071SOL    HW297111   6.188   8.388   0.742
65072SOL     OW97112   7.113   5.566  11.435
65072SOL    HW197113   7.107   5.570  11.531
65072SOL    HW297114   7.023   5.554  11.406
65073SOL     OW97115   3.588   9.400  10.369
65073SOL    HW197116   3.671   9.353  10.360
65073SOL    HW297117   3.522   9.334  10.348
65074SOL     OW97118  12.362   2.862   9.665
65074SOL    HW197119  12.287   2.827   9.713
65074SOL    HW297120  12.361   2.956   9.684
65075SOL     OW97121   9.887   9.254   1.327
65075SOL    HW197122   9.850   9.312   1.261
65075SOL    HW297123   9.891   9.168   1.283
65076SOL     OW97124  13.935  10.151   8.315
65076SOL    HW197125  13.994  10.150   8.390
65076SOL    HW297126  13.870  10.217   8.337
65077SOL     OW97127   8.842   5.886  12.992
65077SOL    HW197128   8.933   5.903  13.016
65077SOL    HW297129   8.798   5.970  13.003
65078SOL     OW97130  12.839  13.836  11.591
65078SOL    HW197131  12.771  13.897  11.621
65078SOL    HW297132  12.908  13.893  11.556
65079SOL     OW97133   3.191  12.924   3.045
65079SOL    HW197134   3.110  12.974   3.061
65079SOL    HW297135   3.182  12.846   3.101
65080SOL     OW97136   4.637   5.699   9.026
65080SOL    HW197137   4.694   5.747   9.086
65080SOL    HW297138   4.637   5.609   9.061
65081SOL     OW97139   5.835   0.373   1.899
65081SOL    HW197140   5.799   0.459   1.879
65081SOL    HW297141   5.857   0.377   1.992
65082SOL     OW97142  11.608   1.542  11.031
65082SOL    HW197143  11.569   1.530  11.118
65082SOL    HW297144  11.619   1.637  11.024
65083SOL     OW97145   5.528  13.724   5.810
65083SOL    HW197146   5.464  13.655   5.827
65083SOL    HW297147   5.534  13.773   5.892
65084SOL     OW97148   9.179   6.613  13.141
65084SOL    HW197149   9.230   6.653  13.212
65084SOL    HW297150   9.166   6.523  13.169
65085SOL     OW97151   3.730   7.464  13.102
65085SOL    HW197152   3.784   7.462  13.181
65085SOL    HW297153   3.692   7.552  13.102
65086SOL     OW97154   4.469   5.639   3.793
65086SOL    HW197155   4.424   5.661   3.875
65086SOL    HW297156   4.484   5.545   3.800
65087SOL     OW97157   7.079   9.047   6.404
65087SOL    HW197158   7.114   8.963   6.373
65087SOL    HW297159   7.014   9.071   6.339
65088SOL     OW97160   8.554  10.793   4.842
65088SOL    HW197161   8.477  10.804   4.899
65088SOL    HW297162   8.558  10.699   4.825
65089SOL     OW97163   9.843  10.878   3.704
65089SOL    HW197164   9.931  10.907   3.729
65089SOL    HW297165   9.833  10.793   3.747
65090SOL     OW97166   3.849   6.015  14.759
65090SOL    HW197167   3.843   6.064  14.841
65090SOL    HW297168   3.801   6.069  14.696
65091SOL     OW97169   1.199   3.594  13.564
65091SOL    HW197170   1.292   3.581  13.581
65091SOL    HW297171   1.172   3.516  13.517
65092SOL     OW97172  14.805   4.573  14.329
65092SOL    HW197173  14.779   4.492  14.284
65092SOL    HW297174  14.731   4.592  14.388
65093SOL     OW97175   9.159   5.230   8.929
65093SOL    HW197176   9.089   5.175   8.964
65093SOL    HW297177   9.112   5.302   8.885
65094SOL     OW97178  14.606   1.836  13.622
65094SOL    HW197179  14.642   1.888  13.551
65094SOL    HW297180  14.540   1.892  13.662
65095SOL     OW97181  12.642   3.016   9.993
65095SOL    HW197182  12.678   3.063   9.917
65095SOL    HW297183  12.609   2.934   9.957
65096SOL     OW97184  14.537   1.464  11.078
65096SOL    HW197185  14.551   1.469  11.173
65096SOL    HW297186  14.472   1.532  11.060
65097SOL     OW97187   7.231  12.014  14.189
65097SOL    HW197188   7.136  12.011  14.184
65097SOL    HW297189   7.261  11.964  14.113
65098SOL     OW97190   9.390  11.888  12.589
65098SOL    HW197191   9.297  11.866  12.586
65098SOL    HW297192   9.401  11.935  12.672
65099SOL     OW97193  11.926  13.072   6.867
65099SOL    HW197194  11.985  13.128   6.918
65099SOL    HW297195  11.922  12.990   6.917
65100SOL     OW97196   4.402   2.978   7.658
65100SOL    HW197197   4.309   2.956   7.657
65100SOL    HW297198   4.423   2.988   7.751
65101SOL     OW97199   7.782   8.754  13.693
65101SOL    HW197200   7.777   8.779  13.785
65101SOL    HW297201   7.736   8.824  13.647
65102SOL     OW97202   2.547  10.470   4.152
65102SOL    HW197203   2.590  10.398   4.198
65102SOL    HW297204   2.605  10.544   4.164
65103SOL     OW97205   8.085   5.107  13.689
65103SOL    HW197206   8.117   5.117  13.599
65103SOL    HW297207   7.991   5.091  13.680
65104SOL     OW97208  13.358   8.709   8.054
65104SOL    HW197209  13.356   8.672   8.142
65104SOL    HW297210  13.374   8.634   7.997
65105SOL     OW97211   5.765  10.313   7.997
65105SOL    HW197212   5.718  10.365   8.062
65105SOL    HW297213   5.822  10.256   8.048
65106SOL     OW97214   2.887  10.867   6.246
65106SOL    HW197215   2.797  10.865   6.214
65106SOL    HW297216   2.881  10.912   6.331
65107SOL     OW97217  12.256  10.178   9.172
65107SOL    HW197218  12.259  10.083   9.160
65107SOL    HW297219  12.227  10.213   9.087
65108SOL     OW97220   5.037  13.639  10.193
65108SOL    HW197221   4.965  13.607  10.248
65108SOL    HW297222   4.998  13.648  10.106
65109SOL     OW97223   8.195   4.446   5.352
65109SOL    HW197224   8.103   4.467   5.367
65109SOL    HW297225   8.202   4.431   5.258
65110SOL     OW97226  11.850   8.603  11.354
65110SOL    HW197227  11.800   8.524  11.374
65110SOL    HW297228  11.784   8.673  11.351
65111SOL     OW97229  14.761   1.082   1.108
65111SOL    HW197230  14.676   1.060   1.069
65111SOL    HW297231  14.796   1.150   1.051
65112SOL     OW97232  12.305   7.054   9.931
65112SOL    HW197233  12.283   7.147   9.934
65112SOL    HW297234  12.281   7.027   9.842
65113SOL     OW97235   5.493   1.201  13.774
65113SOL    HW197236   5.417   1.238  13.820
65113SOL    HW297237   5.486   1.107  13.787
65114SOL     OW97238   5.562  12.687   8.342
65114SOL    HW197239   5.626  12.635   8.391
65114SOL    HW297240   5.602  12.773   8.336
65115SOL     OW97241   0.678   0.212   0.005
65115SOL    HW197242   0.719   0.139  14.838
65115SOL    HW297243   0.618   0.250  14.822
65116SOL     OW97244   7.576   2.364   7.882
65116SOL    HW197245   7.607   2.308   7.953
65116SOL    HW297246   7.655   2.388   7.834
65117SOL     OW97247   1.625  12.759  10.039
65117SOL    HW197248   1.635  12.832   9.979
65117SOL    HW297249   1.530  12.748  10.049
65118SOL     OW97250  12.073  13.319   4.604
65118SOL    HW197251  11.993  13.371   4.596
65118SOL    HW297252  12.144  13.383   4.601
65119SOL     OW97253   2.499   8.451  11.300
65119SOL    HW197254   2.474   8.367  11.339
65119SOL    HW297255   2.427   8.472  11.240
65120SOL     OW97256   3.802   7.569   9.413
65120SOL    HW197257   3.801   7.574   9.508
65120SOL    HW297258   3.837   7.653   9.384
65121SOL     OW97259   7.409  12.033   9.710
65121SOL    HW197260   7.315  12.030   9.731
65121SOL    HW297261   7.434  12.123   9.730
65122SOL     OW97262   4.075   6.323   0.428
65122SOL    HW197263   4.118   6.353   0.347
65122SOL    HW297264   4.099   6.231   0.435
65123SOL     OW97265   1.765  10.223  10.333
65123SOL    HW197266   1.725  10.136  10.328
65123SOL    HW297267   1.857  10.206  10.354
65124SOL     OW97268   2.397  13.229  10.059
65124SOL    HW197269   2.402  13.190  10.146
65124SOL    HW297270   2.488  13.253  10.039
65125SOL     OW97271   6.618   7.982   6.745
65125SOL    HW197272   6.562   7.984   6.668
65125SOL    HW297273   6.694   7.929   6.719
65126SOL     OW97274  11.689   8.437   6.798
65126SOL    HW197275  11.713   8.460   6.708
65126SOL    HW297276  11.719   8.347   6.808
65127SOL     OW97277   7.718   6.985   9.676
65127SOL    HW197278   7.735   7.079   9.686
65127SOL    HW297279   7.693   6.974   9.585
65128SOL     OW97280  14.577  12.282  11.339
65128SOL    HW197281  14.673  12.277  11.335
65128SOL    HW297282  14.552  12.329  11.260
65129SOL     OW97283  14.159   7.684  11.714
65129SOL    HW197284  14.171   7.720  11.626
65129SOL    HW297285  14.064   7.678  11.725
65130SOL     OW97286   5.426   5.642  14.765
65130SOL    HW197287   5.422   5.582  14.691
65130SOL    HW297288   5.413   5.587  14.842
65131SOL     OW97289   4.792  10.767   6.026
65131SOL    HW197290   4.717  10.768   5.967
65131SOL    HW297291   4.818  10.675   6.028
65132SOL     OW97292  11.816   6.172   3.499
65132SOL    HW197293  11.788   6.258   3.468
65132SOL    HW297294  11.907   6.184   3.526
65133SOL     OW97295  11.575   5.174   3.721
65133SOL    HW197296  11.578   5.128   3.637
65133SOL    HW297297  11.485   5.162   3.752
65134SOL     OW97298   8.634   5.526   4.087
65134SOL    HW197299   8.669   5.437   4.080
65134SOL    HW297300   8.690   5.569   4.151
65135SOL     OW97301   5.018   9.284  11.663
65135SOL    HW197302   5.027   9.189  11.659
65135SOL    HW297303   4.998   9.310  11.573
65136SOL     OW97304   0.941   7.842   7.667
65136SOL    HW197305   0.904   7.894   7.738
65136SOL    HW297306   0.971   7.907   7.603
65137SOL     OW97307   0.294   0.051   3.310
65137SOL    HW197308   0.321   0.059   3.401
65137SOL    HW297309   0.342  14.855   3.277
65138SOL     OW97310  11.583   2.723   6.022
65138SOL    HW197311  11.555   2.729   6.113
65138SOL    HW297312  11.571   2.812   5.987
65139SOL     OW97313   0.151  13.087  12.027
65139SOL    HW197314   0.197  13.052  11.951
65139SOL    HW297315   0.211  13.073  12.100
65140SOL     OW97316   8.351   5.395   0.393
65140SOL    HW197317   8.418   5.462   0.409
65140SOL    HW297318   8.270   5.432   0.427
65141SOL     OW97319  12.996   2.411   8.269
65141SOL    HW197320  12.982   2.496   8.227
65141SOL    HW297321  13.091   2.406   8.281
65142SOL     OW97322   2.743   8.869   4.101
65142SOL    HW197323   2.671   8.905   4.153
65142SOL    HW297324   2.816   8.930   4.116
65143SOL     OW97325   8.482  12.803  12.106
65143SOL    HW197326   8.540  12.853  12.164
65143SOL    HW297327   8.526  12.719  12.096
65144SOL     OW97328   6.958   7.559   7.110
65144SOL    HW197329   7.045   7.566   7.149
65144SOL    HW297330   6.943   7.465   7.100
65145SOL     OW97331   9.564  12.755   9.285
65145SOL    HW197332   9.545  12.718   9.198
65145SOL    HW297333   9.497  12.822   9.297
65146SOL     OW97334   7.442   7.222   5.099
65146SOL    HW197335   7.372   7.265   5.149
65146SOL    HW297336   7.508   7.291   5.088
65147SOL     OW97337   5.554  14.631   4.578
65147SOL    HW197338   5.501  14.584   4.513
65147SOL    HW297339   5.531  14.589   4.661
65148SOL     OW97340   8.365   1.967   1.748
65148SOL    HW197341   8.445   1.994   1.703
65148SOL    HW297342   8.396   1.920   1.825
65149SOL     OW97343   7.283   8.631   9.003
65149SOL    HW197344   7.226   8.703   9.031
65149SOL    HW297345   7.262   8.559   9.062
65150SOL     OW97346  11.587   6.831   5.912
65150SOL    HW197347  11.642   6.899   5.951
65150SOL    HW297348  11.646   6.784   5.853
65151SOL     OW97349   7.675  14.093   2.651
65151SOL    HW197350   7.753  14.094   2.707
65151SOL    HW297351   7.651  14.185   2.641
65152SOL     OW97352   5.933   3.003   1.587
65152SOL    HW197353   6.008   2.988   1.644
65152SOL    HW297354   5.970   3.041   1.508
65153SOL     OW97355   8.165  14.204   0.543
65153SOL    HW197356   8.161  14.155   0.625
65153SOL    HW297357   8.258  14.201   0.518
65154SOL     OW97358   0.491   1.809   2.035
65154SOL    HW197359   0.409   1.776   2.072
65154SOL    HW297360   0.489   1.903   2.053
65155SOL     OW97361   4.000   3.202  11.478
65155SOL    HW197362   4.063   3.168  11.542
65155SOL    HW297363   3.951   3.269  11.525
65156SOL     OW97364  12.852   9.348  10.636
65156SOL    HW197365  12.889   9.416  10.692
65156SOL    HW297366  12.802   9.292  10.696
65157SOL     OW97367  14.153   8.157   8.245
65157SOL    HW197368  14.172   8.249   8.265
65157SOL    HW297369  14.096   8.129   8.317
65158SOL     OW97370   4.901  12.253  12.845
65158SOL    HW197371   4.933  12.304  12.771
65158SOL    HW297372   4.976  12.199  12.871
65159SOL     OW97373   9.873   8.330  11.971
65159SOL    HW197374   9.855   8.237  11.965
65159SOL    HW297375   9.918   8.351  11.889
65160SOL     OW97376   7.625  11.453   7.289
65160SOL    HW197377   7.680  11.511   7.341
65160SOL    HW297378   7.636  11.484   7.199
65161SOL     OW97379  12.528  14.455   0.842
65161SOL    HW197380  12.458  14.411   0.892
65161SOL    HW297381  12.523  14.546   0.869
65162SOL     OW97382   2.965   8.702   0.149
65162SOL    HW197383   2.933   8.634   0.089
65162SOL    HW297384   2.956   8.784   0.100
65163SOL     OW97385  14.744   4.407   7.079
65163SOL    HW197386  14.685   4.334   7.100
65163SOL    HW297387  14.698   4.485   7.109
65164SOL     OW97388   9.457   4.416   5.687
65164SOL    HW197389   9.424   4.327   5.698
65164SOL    HW297390   9.551   4.410   5.703
65165SOL     OW97391  13.085   5.011  12.162
65165SOL    HW197392  13.011   4.955  12.139
65165SOL    HW297393  13.079   5.085  12.102
65166SOL     OW97394   3.126   4.690  10.314
65166SOL    HW197395   3.139   4.619  10.251
65166SOL    HW297396   3.166   4.767  10.273
65167SOL     OW97397   3.775   6.882   4.756
65167SOL    HW197398   3.732   6.904   4.674
65167SOL    HW297399   3.813   6.965   4.786
65168SOL     OW97400  13.059   9.028   4.239
65168SOL    HW197401  13.015   9.015   4.323
65168SOL    HW297402  13.078   8.940   4.208
65169SOL     OW97403   0.601  13.780   3.370
65169SOL    HW197404   0.629  13.806   3.458
65169SOL    HW297405   0.660  13.827   3.311
65170SOL     OW97406   1.300   2.736   1.603
65170SOL    HW197407   1.357   2.794   1.653
65170SOL    HW297408   1.233   2.793   1.565
65171SOL     OW97409  10.138   6.350   4.891
65171SOL    HW197410  10.219   6.402   4.894
65171SOL    HW297411  10.121   6.326   4.982
65172SOL     OW97412   1.622  14.866   8.215
65172SOL    HW197413   1.637   0.019   8.126
65172SOL    HW297414   1.644  14.773   8.210
65173SOL     OW97415   3.841   3.729  10.016
65173SOL    HW197416   3.763   3.773   9.982
65173SOL    HW297417   3.809   3.645  10.048
65174SOL     OW97418   7.630   1.324   0.381
65174SOL    HW197419   7.707   1.380   0.392
65174SOL    HW297420   7.663   1.248   0.333
65175SOL     OW97421  10.470   3.400   5.033
65175SOL    HW197422  10.396   3.391   4.972
65175SOL    HW297423  10.434   3.376   5.118
65176SOL     OW97424   7.945   4.922   8.083
65176SOL    HW197425   7.987   4.999   8.122
65176SOL    HW297426   7.991   4.847   8.121
65177SOL     OW97427  13.508   6.670  14.422
65177SOL    HW197428  13.463   6.618  14.356
65177SOL    HW297429  13.483   6.761  14.402
65178SOL     OW97430   0.880   6.757   7.327
65178SOL    HW197431   0.931   6.684   7.293
65178SOL    HW297432   0.922   6.778   7.411
65179SOL     OW97433  10.694  14.475   3.846
65179SOL    HW197434  10.686  14.552   3.902
65179SOL    HW297435  10.647  14.406   3.893
65180SOL     OW97436   2.565  10.248   6.148
65180SOL    HW197437   2.618  10.188   6.096
65180SOL    HW297438   2.551  10.201   6.231
65181SOL     OW97439  13.738   2.509   0.777
65181SOL    HW197440  13.724   2.583   0.837
65181SOL    HW297441  13.666   2.448   0.796
65182SOL     OW97442   3.372   6.434   5.118
65182SOL    HW197443   3.366   6.390   5.203
65182SOL    HW297444   3.367   6.363   5.054
65183SOL     OW97445   4.653  14.209   0.289
65183SOL    HW197446   4.611  14.292   0.269
65183SOL    HW297447   4.739  14.233   0.323
65184SOL     OW97448   0.029  12.926   1.141
65184SOL    HW197449   0.112  12.972   1.152
65184SOL    HW297450   0.025  12.864   1.214
65185SOL     OW97451   7.637   3.643   1.416
65185SOL    HW197452   7.615   3.594   1.496
65185SOL    HW297453   7.710   3.699   1.442
65186SOL     OW97454   0.547   1.973   7.522
65186SOL    HW197455   0.496   2.008   7.448
65186SOL    HW297456   0.581   2.051   7.566
65187SOL     OW97457   1.051   8.973   3.106
65187SOL    HW197458   0.957   8.967   3.090
65187SOL    HW297459   1.061   9.043   3.170
65188SOL     OW97460   7.590  13.414   1.030
65188SOL    HW197461   7.633  13.500   1.033
65188SOL    HW297462   7.626  13.371   0.953
65189SOL     OW97463  13.184   9.335  14.116
65189SOL    HW197464  13.206   9.322  14.208
65189SOL    HW297465  13.229   9.264  14.070
65190SOL     OW97466  13.803   5.763  12.425
65190SOL    HW197467  13.792   5.747  12.332
65190SOL    HW297468  13.725   5.813  12.450
65191SOL     OW97469   7.666   9.618  12.480
65191SOL    HW197470   7.636   9.671  12.406
65191SOL    HW297471   7.591   9.564  12.503
65192SOL     OW97472   4.310  14.002   1.137
65192SOL    HW197473   4.382  13.990   1.075
65192SOL    HW297474   4.298  13.916   1.177
65193SOL     OW97475   6.512  14.831  11.191
65193SOL    HW197476   6.522  14.838  11.097
65193SOL    HW297477   6.594  14.865  11.227
65194SOL     OW97478   3.113   5.898  12.528
65194SOL    HW197479   3.064   5.846  12.464
65194SOL    HW297480   3.143   5.834  12.593
65195SOL     OW97481  12.557   4.744  14.115
65195SOL    HW197482  12.601   4.781  14.191
65195SOL    HW297483  12.480   4.799  14.103
65196SOL     OW97484   1.788   0.769   2.126
65196SOL    HW197485   1.826   0.847   2.087
65196SOL    HW297486   1.759   0.796   2.213
65197SOL     OW97487   6.401   3.553  10.770
65197SOL    HW197488   6.481   3.552  10.717
65197SOL    HW297489   6.403   3.639  10.813
65198SOL     OW97490  10.643  10.189  13.419
65198SOL    HW197491  10.578  10.229  13.477
65198SOL    HW297492  10.593  10.125  13.368
65199SOL     OW97493   7.232  11.749   8.141
65199SOL    HW197494   7.248  11.661   8.177
65199SOL    HW297495   7.180  11.733   8.063
65200SOL     OW97496  12.286  11.828  14.173
65200SOL    HW197497  12.277  11.914  14.134
65200SOL    HW297498  12.365  11.833  14.225
65201SOL     OW97499   4.030   9.347   6.960
65201SOL    HW197500   3.974   9.393   7.023
65201SOL    HW297501   4.103   9.406   6.945
65202SOL     OW97502   6.460   1.161  14.275
65202SOL    HW197503   6.415   1.144  14.192
65202SOL    HW297504   6.553   1.157  14.253
65203SOL     OW97505   4.294   1.768  14.339
65203SOL    HW197506   4.346   1.777  14.419
65203SOL    HW297507   4.216   1.822  14.354
65204SOL     OW97508   8.415   0.446  10.414
65204SOL    HW197509   8.344   0.385  10.435
65204SOL    HW297510   8.378   0.505  10.349
65205SOL     OW97511   7.496  11.931  12.931
65205SOL    HW197512   7.579  11.943  12.885
65205SOL    HW297513   7.492  11.837  12.948
65206SOL     OW97514   9.041   9.381   5.634
65206SOL    HW197515   9.111   9.433   5.673
65206SOL    HW297516   9.078   9.349   5.552
65207SOL     OW97517   4.007   4.276  12.584
65207SOL    HW197518   4.055   4.357  12.602
65207SOL    HW297519   3.918   4.293  12.614
65208SOL     OW97520  13.669   9.009  10.325
65208SOL    HW197521  13.637   9.049  10.406
65208SOL    HW297522  13.764   9.013  10.332
65209SOL     OW97523   4.534   6.767   7.224
65209SOL    HW197524   4.547   6.736   7.134
65209SOL    HW297525   4.470   6.706   7.261
65210SOL     OW97526   8.205  14.814   8.511
65210SOL    HW197527   8.235  14.754   8.579
65210SOL    HW297528   8.236   0.020   8.539
65211SOL     OW97529  14.423   5.531   5.228
65211SOL    HW197530  14.495   5.516   5.290
65211SOL    HW297531  14.461   5.585   5.159
65212SOL     OW97532   0.054   3.879  11.899
65212SOL    HW197533   0.059   3.973  11.912
65212SOL    HW297534  14.859   3.867  11.840
65213SOL     OW97535   2.980  13.793  12.775
65213SOL    HW197536   3.021  13.859  12.831
65213SOL    HW297537   2.886  13.808  12.784
65214SOL     OW97538   4.110   2.683  12.593
65214SOL    HW197539   4.116   2.685  12.688
65214SOL    HW297540   4.132   2.593  12.569
65215SOL     OW97541   1.646   6.864   5.796
65215SOL    HW197542   1.658   6.914   5.877
65215SOL    HW297543   1.687   6.780   5.813
65216SOL     OW97544   5.968   7.693   3.817
65216SOL    HW197545   5.891   7.689   3.873
65216SOL    HW297546   5.960   7.777   3.771
65217SOL     OW97547   3.306   9.735  10.512
65217SOL    HW197548   3.274   9.725  10.422
65217SOL    HW297549   3.401   9.735  10.503
65218SOL     OW97550  11.730   6.788   9.429
65218SOL    HW197551  11.649   6.756   9.468
65218SOL    HW297552  11.760   6.717   9.373
65219SOL     OW97553   9.079   2.904  12.458
65219SOL    HW197554   9.020   2.864  12.522
65219SOL    HW297555   9.153   2.843  12.453
65220SOL     OW97556  11.662   2.530   9.702
65220SOL    HW197557  11.672   2.456   9.642
65220SOL    HW297558  11.624   2.492   9.781
65221SOL     OW97559   3.197   1.250   1.117
65221SOL    HW197560   3.128   1.298   1.162
65221SOL    HW297561   3.153   1.172   1.082
65222SOL     OW97562   9.629  14.085   4.166
65222SOL    HW197563   9.716  14.066   4.202
65222SOL    HW297564   9.578  14.006   4.185
65223SOL     OW97565   8.476  10.906   2.832
65223SOL    HW197566   8.520  10.989   2.815
65223SOL    HW297567   8.406  10.929   2.894
65224SOL     OW97568   0.343   0.228   6.464
65224SOL    HW197569   0.296   0.148   6.442
65224SOL    HW297570   0.436   0.203   6.459
65225SOL     OW97571  10.791  10.381   4.187
65225SOL    HW197572  10.771  10.448   4.253
65225SOL    HW297573  10.861  10.329   4.227
65226SOL     OW97574  12.951   1.434  10.909
65226SOL    HW197575  13.041   1.403  10.921
65226SOL    HW297576  12.957   1.503  10.843
65227SOL     OW97577   2.813   6.511   9.403
65227SOL    HW197578   2.829   6.541   9.493
65227SOL    HW297579   2.729   6.551   9.380
65228SOL     OW97580  14.615   8.039   8.741
65228SOL    HW197581  14.639   7.997   8.659
65228SOL    HW297582  14.521   8.027   8.748
65229SOL     OW97583   8.282  14.417   3.543
65229SOL    HW197584   8.368  14.394   3.579
65229SOL    HW297585   8.242  14.471   3.610
65230SOL     OW97586  12.817   6.175  13.411
65230SOL    HW197587  12.765   6.210  13.484
65230SOL    HW297588  12.759   6.112  13.369
65231SOL     OW97589   0.964   9.329  10.666
65231SOL    HW197590   0.904   9.355  10.736
65231SOL    HW297591   1.045   9.377  10.685
65232SOL     OW97592   9.598   4.700   6.548
65232SOL    HW197593   9.655   4.754   6.493
65232SOL    HW297594   9.546   4.649   6.486
65233SOL     OW97595   6.755  12.339   0.205
65233SOL    HW197596   6.707  12.384   0.275
65233SOL    HW297597   6.764  12.249   0.236
65234SOL     OW97598   3.364   1.263   2.375
65234SOL    HW197599   3.430   1.327   2.348
65234SOL    HW297600   3.355   1.276   2.469
65235SOL     OW97601   3.399   2.356   0.884
65235SOL    HW197602   3.380   2.271   0.844
65235SOL    HW297603   3.338   2.361   0.957
65236SOL     OW97604   9.829  12.919   3.885
65236SOL    HW197605   9.881  12.979   3.939
65236SOL    HW297606   9.751  12.970   3.861
65237SOL     OW97607   8.612   0.097   8.859
65237SOL    HW197608   8.551   0.059   8.796
65237SOL    HW297609   8.606   0.040   8.936
65238SOL     OW97610   4.367   7.380  10.607
65238SOL    HW197611   4.361   7.297  10.653
65238SOL    HW297612   4.397   7.357  10.519
65239SOL     OW97613  14.345  10.380   2.572
65239SOL    HW197614  14.370  10.462   2.614
65239SOL    HW297615  14.283  10.339   2.633
65240SOL     OW97616   0.723   7.587  12.441
65240SOL    HW197617   0.734   7.499  12.477
65240SOL    HW297618   0.768   7.644  12.503
65241SOL     OW97619   3.216   2.149   4.679
65241SOL    HW197620   3.263   2.203   4.615
65241SOL    HW297621   3.285   2.108   4.730
65242SOL     OW97622   5.702  13.611   9.201
65242SOL    HW197623   5.758  13.535   9.212
65242SOL    HW297624   5.741  13.678   9.257
65243SOL     OW97625  12.471   5.668  11.443
65243SOL    HW197626  12.461   5.666  11.348
65243SOL    HW297627  12.565   5.657  11.458
65244SOL     OW97628   5.515   4.669   1.659
65244SOL    HW197629   5.519   4.594   1.599
65244SOL    HW297630   5.478   4.740   1.607
65245SOL     OW97631  13.698   1.047   4.057
65245SOL    HW197632  13.653   1.033   3.974
65245SOL    HW297633  13.791   1.049   4.034
65246SOL     OW97634  14.562   3.138   9.933
65246SOL    HW197635  14.595   3.126   9.844
65246SOL    HW297636  14.612   3.212   9.968
65247SOL     OW97637  10.435   0.768   2.644
65247SOL    HW197638  10.397   0.851   2.614
65247SOL    HW297639  10.385   0.746   2.722
65248SOL     OW97640   6.046   7.214   7.087
65248SOL    HW197641   5.972   7.153   7.079
65248SOL    HW297642   6.060   7.246   6.998
65249SOL     OW97643   6.855   1.689   5.460
65249SOL    HW197644   6.876   1.738   5.381
65249SOL    HW297645   6.761   1.674   5.455
65250SOL     OW97646   7.815  13.943   4.271
65250SOL    HW197647   7.883  13.875   4.271
65250SOL    HW297648   7.851  14.013   4.324
65251SOL     OW97649   9.094  12.056   4.157
65251SOL    HW197650   9.105  12.093   4.070
65251SOL    HW297651   9.153  11.981   4.159
65252SOL     OW97652  12.762  14.353   8.935
65252SOL    HW197653  12.677  14.363   8.979
65252SOL    HW297654  12.786  14.262   8.949
65253SOL     OW97655   3.418   7.699  13.794
65253SOL    HW197656   3.344   7.649  13.828
65253SOL    HW297657   3.425   7.775  13.852
65254SOL     OW97658   5.487   0.928   1.651
65254SOL    HW197659   5.465   0.974   1.732
65254SOL    HW297660   5.582   0.927   1.649
65255SOL     OW97661   8.032  13.531   1.472
65255SOL    HW197662   8.010  13.492   1.388
65255SOL    HW297663   8.124  13.510   1.486
65256SOL     OW97664   2.124   2.620   0.192
65256SOL    HW197665   2.080   2.547   0.148
65256SOL    HW297666   2.200   2.640   0.137
65257SOL     OW97667   5.017   2.502   0.449
65257SOL    HW197668   4.953   2.458   0.394
65257SOL    HW297669   5.101   2.464   0.424
65258SOL     OW97670  12.244  14.353  11.376
65258SOL    HW197671  12.166  14.404  11.353
65258SOL    HW297672  12.232  14.331  11.468
65259SOL     OW97673   3.259  13.558   4.648
65259SOL    HW197674   3.186  13.571   4.709
65259SOL    HW297675   3.230  13.598   4.566
65260SOL     OW97676   3.061   6.368  14.723
65260SOL    HW197677   2.996   6.421  14.768
65260SOL    HW297678   3.011   6.306  14.670
65261SOL     OW97679  14.299   0.838  14.161
65261SOL    HW197680  14.329   0.756  14.198
65261SOL    HW297681  14.275   0.817  14.071
65262SOL     OW97682  14.698   4.524  14.004
65262SOL    HW197683  14.741   4.610  14.011
65262SOL    HW297684  14.698   4.490  14.093
65263SOL     OW97685  11.937   3.777   5.759
65263SOL    HW197686  11.867   3.738   5.812
65263SOL    HW297687  11.930   3.871   5.776
65264SOL     OW97688   5.159   1.811   3.907
65264SOL    HW197689   5.231   1.749   3.900
65264SOL    HW297690   5.113   1.787   3.987
65265SOL     OW97691   5.465  12.273  12.412
65265SOL    HW197692   5.486  12.181  12.396
65265SOL    HW297693   5.498  12.290  12.500
65266SOL     OW97694   9.063   4.992  10.461
65266SOL    HW197695   9.122   4.975  10.535
65266SOL    HW297696   9.032   5.081  10.475
65267SOL     OW97697  11.141   6.172  10.950
65267SOL    HW197698  11.083   6.236  10.991
65267SOL    HW297699  11.226   6.215  10.944
65268SOL     OW97700  11.204   1.270   9.234
65268SOL    HW197701  11.189   1.250   9.327
65268SOL    HW297702  11.142   1.340   9.214
65269SOL     OW97703  11.999   0.423   1.442
65269SOL    HW197704  12.063   0.365   1.401
65269SOL    HW297705  12.032   0.437   1.531
65270SOL     OW97706  12.251   5.369  11.289
65270SOL    HW197707  12.159   5.395  11.279
65270SOL    HW297708  12.299   5.426  11.229
65271SOL     OW97709   4.487  10.138   8.556
65271SOL    HW197710   4.510  10.059   8.607
65271SOL    HW297711   4.437  10.192   8.618
65272SOL     OW97712   0.232   6.303   9.644
65272SOL    HW197713   0.176   6.238   9.686
65272SOL    HW297714   0.177   6.380   9.636
65273SOL     OW97715   2.478  12.956  13.726
65273SOL    HW197716   2.551  12.992  13.775
65273SOL    HW297717   2.408  13.021  13.733
65274SOL     OW97718   1.376   3.782   5.990
65274SOL    HW197719   1.407   3.707   6.041
65274SOL    HW297720   1.457   3.827   5.962
65275SOL     OW97721   3.194   0.255   0.616
65275SOL    HW197722   3.214   0.349   0.611
65275SOL    HW297723   3.099   0.250   0.614
65276SOL     OW97724   3.792   3.879  11.362
65276SOL    HW197725   3.745   3.912  11.286
65276SOL    HW297726   3.884   3.893  11.342
65277SOL     OW97727  14.039  10.467   0.131
65277SOL    HW197728  14.112  10.528   0.136
65277SOL    HW297729  13.979  10.506   0.068
65278SOL     OW97730  14.635   3.565   2.463
65278SOL    HW197731  14.608   3.480   2.430
65278SOL    HW297732  14.723   3.550   2.499
65279SOL     OW97733   8.142  10.207  14.410
65279SOL    HW197734   8.204  10.191  14.339
65279SOL    HW297735   8.195  10.249  14.478
65280SOL     OW97736   1.363  10.806   3.147
65280SOL    HW197737   1.354  10.813   3.052
65280SOL    HW297738   1.432  10.741   3.160
65281SOL     OW97739  11.105   6.862   5.574
65281SOL    HW197740  11.129   6.905   5.656
65281SOL    HW297741  11.048   6.790   5.601
65282SOL     OW97742  14.515   2.638   9.137
65282SOL    HW197743  14.530   2.725   9.098
65282SOL    HW297744  14.578   2.634   9.210
65283SOL     OW97745  10.057  13.181   3.226
65283SOL    HW197746   9.968  13.216   3.233
65283SOL    HW297747  10.114  13.255   3.247
65284SOL     OW97748   3.276   5.989   8.639
65284SOL    HW197749   3.317   6.069   8.671
65284SOL    HW297750   3.349   5.934   8.612
65285SOL     OW97751   3.940  10.422   5.192
65285SOL    HW197752   3.911  10.467   5.271
65285SOL    HW297753   3.859  10.388   5.153
65286SOL     OW97754  13.116  11.956   1.584
65286SOL    HW197755  13.127  12.037   1.533
65286SOL    HW297756  13.097  11.889   1.518
65287SOL     OW97757   2.973   4.757   4.788
65287SOL    HW197758   3.055   4.744   4.740
65287SOL    HW297759   2.976   4.849   4.816
65288SOL     OW97760   0.181  10.198   0.594
65288SOL    HW197761   0.100  10.226   0.552
65288SOL    HW297762   0.161  10.112   0.630
65289SOL     OW97763   7.592  10.617  13.825
65289SOL    HW197764   7.586  10.537  13.877
65289SOL    HW297765   7.653  10.673  13.873
65290SOL     OW97766   2.452   5.612  14.662
65290SOL    HW197767   2.384   5.565  14.710
65290SOL    HW297768   2.456   5.568  14.577
65291SOL     OW97769   5.787   3.932  11.432
65291SOL    HW197770   5.695   3.904  11.438
65291SOL    HW297771   5.785   4.024  11.458
65292SOL     OW97772  14.481  10.646  12.240
65292SOL    HW197773  14.566  10.688  12.252
65292SOL    HW297774  14.442  10.644  12.327
65293SOL     OW97775   8.236  12.092  14.550
65293SOL    HW197776   8.157  12.040  14.559
65293SOL    HW297777   8.207  12.174  14.512
65294SOL     OW97778  12.503   1.899   7.658
65294SOL    HW197779  12.447   1.870   7.586
65294SOL    HW297780  12.442   1.921   7.729
65295SOL     OW97781   3.345  11.005  12.814
65295SOL    HW197782   3.322  11.062  12.742
65295SOL    HW297783   3.291  10.926  12.800
65296SOL     OW97784  10.890   0.339  10.154
65296SOL    HW197785  10.889   0.416  10.210
65296SOL    HW297786  10.828   0.360  10.084
65297SOL     OW97787  13.444  10.611   8.539
65297SOL    HW197788  13.467  10.528   8.497
65297SOL    HW297789  13.401  10.585   8.621
65298SOL     OW97790   8.717  13.723   2.082
65298SOL    HW197791   8.784  13.785   2.053
65298SOL    HW297792   8.655  13.720   2.009
65299SOL     OW97793   3.431  14.250   0.943
65299SOL    HW197794   3.432  14.161   0.908
65299SOL    HW297795   3.510  14.255   0.998
65300SOL     OW97796  13.608  14.215   5.785
65300SOL    HW197797  13.541  14.170   5.734
65300SOL    HW297798  13.688  14.165   5.768
65301SOL     OW97799   6.572   0.486   6.833
65301SOL    HW197800   6.517   0.560   6.809
65301SOL    HW297801   6.532   0.450   6.911
65302SOL     OW97802   1.667   5.221   2.501
65302SOL    HW197803   1.575   5.194   2.509
65302SOL    HW297804   1.715   5.155   2.551
65303SOL     OW97805   9.272   5.575   6.513
65303SOL    HW197806   9.351   5.521   6.515
65303SOL    HW297807   9.295   5.649   6.458
65304SOL     OW97808  10.028   5.383   3.059
65304SOL    HW197809  10.016   5.440   3.135
65304SOL    HW297810   9.946   5.334   3.053
65305SOL     OW97811   1.997   7.704  11.121
65305SOL    HW197812   1.950   7.634  11.075
65305SOL    HW297813   1.929   7.765  11.148
65306SOL     OW97814  14.879   9.705   9.790
65306SOL    HW197815  14.854   9.645   9.860
65306SOL    HW297816   0.086   9.674   9.762
65307SOL     OW97817   0.834   1.997   5.799
65307SOL    HW197818   0.898   2.068   5.805
65307SOL    HW297819   0.848   1.946   5.879
65308SOL     OW97820   3.524   7.567   6.517
65308SOL    HW197821   3.515   7.480   6.554
65308SOL    HW297822   3.619   7.581   6.512
65309SOL     OW97823   5.467   2.496   7.280
65309SOL    HW197824   5.513   2.414   7.297
65309SOL    HW297825   5.401   2.474   7.213
65310SOL     OW97826  14.135   0.427   9.182
65310SOL    HW197827  14.187   0.502   9.153
65310SOL    HW297828  14.058   0.428   9.125
65311SOL     OW97829   7.395  11.607   6.171
65311SOL    HW197830   7.411  11.537   6.107
65311SOL    HW297831   7.472  11.605   6.228
65312SOL     OW97832   1.475   9.724   6.819
65312SOL    HW197833   1.383   9.750   6.819
65312SOL    HW297834   1.479   9.653   6.755
65313SOL     OW97835  13.769   7.307   6.381
65313SOL    HW197836  13.804   7.243   6.319
65313SOL    HW297837  13.808   7.390   6.354
65314SOL     OW97838   6.574   8.880  12.278
65314SOL    HW197839   6.546   8.854  12.191
65314SOL    HW297840   6.648   8.939  12.264
65315SOL     OW97841   0.981   3.471  12.353
65315SOL    HW197842   0.965   3.500  12.263
65315SOL    HW297843   0.964   3.377  12.352
65316SOL     OW97844  11.583   9.196  11.203
65316SOL    HW197845  11.591   9.228  11.293
65316SOL    HW297846  11.506   9.140  11.205
65317SOL     OW97847   6.323  11.195  11.892
65317SOL    HW197848   6.292  11.283  11.913
65317SOL    HW297849   6.412  11.192  11.925
65318SOL     OW97850   9.898  14.334  10.723
65318SOL    HW197851   9.906  14.397  10.795
65318SOL    HW297852   9.880  14.387  10.646
65319SOL     OW97853   2.633   1.921   1.652
65319SOL    HW197854   2.668   1.889   1.569
65319SOL    HW297855   2.574   1.852   1.682
65320SOL     OW97856   8.578   6.816   3.083
65320SOL    HW197857   8.505   6.754   3.085
65320SOL    HW297858   8.554   6.879   3.014
65321SOL     OW97859   5.409   6.754  12.332
65321SOL    HW197860   5.487   6.761  12.388
65321SOL    HW297861   5.350   6.822  12.365
65322SOL     OW97862   3.180   9.828   8.512
65322SOL    HW197863   3.274   9.821   8.500
65322SOL    HW297864   3.146   9.741   8.494
65323SOL     OW97865  10.609   7.728   7.236
65323SOL    HW197866  10.535   7.698   7.182
65323SOL    HW297867  10.663   7.650   7.247
65324SOL     OW97868   1.299   7.053   9.412
65324SOL    HW197869   1.255   6.971   9.386
65324SOL    HW297870   1.349   7.078   9.334
65325SOL     OW97871   8.977   9.708  11.871
65325SOL    HW197872   9.042   9.724  11.802
65325SOL    HW297873   9.003   9.765  11.942
65326SOL     OW97874   1.178   1.934   5.192
65326SOL    HW197875   1.207   1.852   5.153
65326SOL    HW297876   1.115   1.907   5.259
65327SOL     OW97877   9.129   8.787   8.376
65327SOL    HW197878   9.158   8.766   8.288
65327SOL    HW297879   9.209   8.809   8.423
65328SOL     OW97880  11.456   4.864   9.580
65328SOL    HW197881  11.429   4.842   9.491
65328SOL    HW297882  11.530   4.806   9.597
65329SOL     OW97883   4.056  13.931  11.170
65329SOL    HW197884   4.123  13.943  11.238
65329SOL    HW297885   4.033  14.019  11.143
65330SOL     OW97886   9.179   5.578   9.429
65330SOL    HW197887   9.227   5.642   9.482
65330SOL    HW297888   9.187   5.610   9.339
65331SOL     OW97889  12.808  10.453   5.029
65331SOL    HW197890  12.901  10.437   5.048
65331SOL    HW297891  12.808  10.499   4.945
65332SOL     OW97892   7.360   8.295   9.318
65332SOL    HW197893   7.335   8.261   9.403
65332SOL    HW297894   7.415   8.228   9.279
65333SOL     OW97895   2.814  14.057   0.059
65333SOL    HW197896   2.898  14.019   0.083
65333SOL    HW297897   2.813  14.056  14.843
65334SOL     OW97898   0.256  13.143   4.572
65334SOL    HW197899   0.231  13.232   4.549
65334SOL    HW297900   0.180  13.090   4.546
65335SOL     OW97901   0.914  13.528   6.508
65335SOL    HW197902   0.915  13.503   6.416
65335SOL    HW297903   0.861  13.462   6.551
65336SOL     OW97904   0.417  10.397  13.267
65336SOL    HW197905   0.406  10.492  13.262
65336SOL    HW297906   0.333  10.365  13.300
65337SOL     OW97907   0.011   2.232  13.109
65337SOL    HW197908   0.074   2.176  13.154
65337SOL    HW297909  14.862   2.179  13.034
65338SOL     OW97910  14.657   7.292   1.439
65338SOL    HW197911  14.599   7.217   1.454
65338SOL    HW297912  14.725   7.283   1.506
65339SOL     OW97913   4.922   7.059   0.246
65339SOL    HW197914   4.979   7.088   0.176
65339SOL    HW297915   4.881   7.140   0.278
65340SOL     OW97916  10.287   2.373   4.086
65340SOL    HW197917  10.229   2.330   4.024
65340SOL    HW297918  10.239   2.372   4.169
65341SOL     OW97919  14.657  10.019  14.097
65341SOL    HW197920  14.727  10.082  14.117
65341SOL    HW297921  14.620   9.997  14.183
65342SOL     OW97922   2.434  13.133  13.155
65342SOL    HW197923   2.434  13.228  13.143
65342SOL    HW297924   2.405  13.120  13.245
65343SOL     OW97925   5.807  12.035   1.403
65343SOL    HW197926   5.800  12.130   1.402
65343SOL    HW297927   5.899  12.016   1.385
65344SOL     OW97928  14.301  12.894   1.437
65344SOL    HW197929  14.249  12.963   1.396
65344SOL    HW297930  14.336  12.934   1.517
65345SOL     OW97931   3.748   4.478  13.329
65345SOL    HW197932   3.685   4.419  13.370
65345SOL    HW297933   3.832   4.433  13.337
65346SOL     OW97934  11.610   0.852   9.780
65346SOL    HW197935  11.674   0.782   9.774
65346SOL    HW297936  11.617   0.885   9.870
65347SOL     OW97937   9.907  10.832   9.880
65347SOL    HW197938  10.000  10.820   9.860
65347SOL    HW297939   9.872  10.743   9.884
65348SOL     OW97940  14.387   0.595  12.252
65348SOL    HW197941  14.416   0.534  12.320
65348SOL    HW297942  14.302   0.627  12.283
65349SOL     OW97943   2.846   1.820  14.342
65349SOL    HW197944   2.788   1.778  14.405
65349SOL    HW297945   2.934   1.792  14.368
65350SOL     OW97946   6.023   6.110  14.350
65350SOL    HW197947   6.055   6.198  14.331
65350SOL    HW297948   6.092   6.070  14.402
65351SOL     OW97949   0.871   7.361   0.309
65351SOL    HW197950   0.858   7.453   0.332
65351SOL    HW297951   0.844   7.313   0.388
65352SOL     OW97952   6.273   5.545   7.149
65352SOL    HW197953   6.209   5.496   7.202
65352SOL    HW297954   6.256   5.517   7.059
65353SOL     OW97955   3.683   6.027   9.871
65353SOL    HW197956   3.593   6.052   9.891
65353SOL    HW297957   3.723   6.011   9.956
65354SOL     OW97958   0.661   7.888  11.692
65354SOL    HW197959   0.577   7.931  11.706
65354SOL    HW297960   0.704   7.891  11.778
65355SOL     OW97961  14.551   6.649   7.641
65355SOL    HW197962  14.639   6.620   7.620
65355SOL    HW297963  14.495   6.605   7.577
65356SOL     OW97964   5.104  11.793  10.674
65356SOL    HW197965   5.169  11.724  10.662
65356SOL    HW297966   5.086  11.824  10.585
65357SOL     OW97967  11.060   1.802   3.997
65357SOL    HW197968  11.151   1.778   3.978
65357SOL    HW297969  11.020   1.813   3.911
65358SOL     OW97970   1.919   4.139   4.302
65358SOL    HW197971   1.849   4.130   4.367
65358SOL    HW297972   1.888   4.091   4.226
65359SOL     OW97973   0.134  11.793   7.307
65359SOL    HW197974   0.188  11.872   7.303
65359SOL    HW297975   0.127  11.774   7.401
65360SOL     OW97976  12.366   2.521   9.736
65360SOL    HW197977  12.349   2.580   9.662
65360SOL    HW297978  12.454   2.544   9.765
65361SOL     OW97979  13.609  10.672   1.174
65361SOL    HW197980  13.563  10.732   1.115
65361SOL    HW297981  13.642  10.603   1.116
65362SOL     OW97982  12.199   3.542   1.262
65362SOL    HW197983  12.157   3.456   1.252
65362SOL    HW297984  12.191   3.560   1.356
65363SOL     OW97985   4.528  11.541   4.985
65363SOL    HW197986   4.469  11.576   5.052
65363SOL    HW297987   4.488  11.458   4.958
65364SOL     OW97988   8.965   0.762   1.299
65364SOL    HW197989   8.975   0.727   1.211
65364SOL    HW297990   8.886   0.816   1.295
65365SOL     OW97991  14.134   5.626   0.128
65365SOL    HW197992  14.213   5.571   0.125
65365SOL    HW297993  14.164   5.710   0.163
65366SOL     OW97994   8.160   4.925  10.895
65366SOL    HW197995   8.175   4.955  10.985
65366SOL    HW297996   8.230   4.965  10.844
65367SOL     OW97997   4.800   5.775   6.691
65367SOL    HW197998   4.793   5.703   6.753
65367SOL    HW297999   4.889   5.770   6.658
65368SOL     OW98000   9.776   4.443  11.919
65368SOL    HW198001   9.856   4.446  11.866
65368SOL    HW298002   9.736   4.528  11.906
65369SOL     OW98003   8.105  11.934   3.791
65369SOL    HW198004   8.055  11.868   3.839
65369SOL    HW298005   8.188  11.892   3.771
65370SOL     OW98006   8.598  14.293   4.515
65370SOL    HW198007   8.645  14.254   4.589
65370SOL    HW298008   8.641  14.377   4.501
65371SOL     OW98009   4.814  10.427  12.754
65371SOL    HW198010   4.728  10.463  12.731
65371SOL    HW298011   4.863  10.502  12.789
65372SOL     OW98012   8.552   9.318  10.757
65372SOL    HW198013   8.486   9.249  10.747
65372SOL    HW298014   8.635   9.273  10.739
65373SOL     OW98015   6.768  10.014  14.489
65373SOL    HW198016   6.845  10.069  14.476
65373SOL    HW298017   6.732  10.043  14.573
65374SOL     OW98018  14.484   6.304   1.131
65374SOL    HW198019  14.414   6.320   1.195
65374SOL    HW298020  14.450   6.232   1.077
65375SOL     OW98021  12.778   5.761   9.253
65375SOL    HW198022  12.819   5.797   9.174
65375SOL    HW298023  12.820   5.807   9.325
65376SOL     OW98024  13.772   3.791   2.250
65376SOL    HW198025  13.733   3.879   2.247
65376SOL    HW298026  13.806   3.777   2.162
65377SOL     OW98027  12.966   8.259   5.707
65377SOL    HW198028  12.880   8.279   5.670
65377SOL    HW298029  12.975   8.318   5.781
65378SOL     OW98030   0.509  11.045   2.137
65378SOL    HW198031   0.414  11.032   2.142
65378SOL    HW298032   0.533  11.083   2.222
65379SOL     OW98033  11.039   8.004   7.396
65379SOL    HW198034  10.980   8.066   7.437
65379SOL    HW298035  10.991   7.921   7.396
65380SOL     OW98036   4.729   4.728  10.881
65380SOL    HW198037   4.807   4.782  10.879
65380SOL    HW298038   4.668   4.771  10.820
65381SOL     OW98039  10.140   6.446   8.260
65381SOL    HW198040  10.136   6.476   8.351
65381SOL    HW298041  10.087   6.509   8.211
65382SOL     OW98042  11.641  13.650   5.052
65382SOL    HW198043  11.593  13.571   5.076
65382SOL    HW298044  11.703  13.621   4.985
65383SOL     OW98045   3.063   4.386  11.698
65383SOL    HW198046   3.051   4.292  11.681
65383SOL    HW298047   3.038   4.428  11.616
65384SOL     OW98048  11.395  10.470   4.908
65384SOL    HW198049  11.383  10.551   4.858
65384SOL    HW298050  11.396  10.498   4.999
65385SOL     OW98051   1.881  12.027   8.040
65385SOL    HW198052   1.914  11.940   8.019
65385SOL    HW298053   1.791  12.013   8.071
65386SOL     OW98054   7.313  11.433  11.105
65386SOL    HW198055   7.271  11.382  11.036
65386SOL    HW298056   7.303  11.379  11.184
65387SOL     OW98057   1.109   1.793   7.624
65387SOL    HW198058   1.167   1.864   7.650
65387SOL    HW298059   1.167   1.725   7.590
65388SOL     OW98060   8.728   3.905   1.747
65388SOL    HW198061   8.771   3.930   1.828
65388SOL    HW298062   8.738   3.981   1.690
65389SOL     OW98063   0.957   2.358  14.087
65389SOL    HW198064   0.934   2.331  14.176
65389SOL    HW298065   0.874   2.386  14.048
65390SOL     OW98066  12.513  13.725   9.098
65390SOL    HW198067  12.467  13.656   9.050
65390SOL    HW298068  12.555  13.678   9.171
65391SOL     OW98069   8.701   6.627   0.334
65391SOL    HW198070   8.662   6.546   0.365
65391SOL    HW298071   8.687   6.627   0.240
65392SOL     OW98072   3.835   9.157   4.174
65392SOL    HW198073   3.788   9.119   4.099
65392SOL    HW298074   3.927   9.140   4.156
65393SOL     OW98075  11.387   0.271  14.599
65393SOL    HW198076  11.476   0.257  14.566
65393SOL    HW298077  11.394   0.258  14.693
65394SOL     OW98078  11.088   3.365   4.727
65394SOL    HW198079  11.107   3.301   4.796
65394SOL    HW298080  10.995   3.386   4.739
65395SOL     OW98081  11.622   4.476  12.470
65395SOL    HW198082  11.566   4.471  12.548
65395SOL    HW298083  11.568   4.439  12.400
65396SOL     OW98084  11.211   8.566  10.794
65396SOL    HW198085  11.296   8.574  10.749
65396SOL    HW298086  11.180   8.656  10.802
65397SOL     OW98087  11.342   5.230  12.819
65397SOL    HW198088  11.278   5.299  12.804
65397SOL    HW298089  11.293   5.161  12.864
65398SOL     OW98090  12.667   0.749   3.855
65398SOL    HW198091  12.678   0.756   3.950
65398SOL    HW298092  12.641   0.837   3.828
65399SOL     OW98093   4.854   5.935   0.081
65399SOL    HW198094   4.859   5.847   0.043
65399SOL    HW298095   4.785   5.929   0.147
65400SOL     OW98096   6.001   8.414  10.638
65400SOL    HW198097   6.061   8.379  10.703
65400SOL    HW298098   6.054   8.424  10.559
65401SOL     OW98099   8.698  10.757   2.118
65401SOL    HW198100   8.752  10.738   2.042
65401SOL    HW298101   8.692  10.675   2.166
65402SOL     OW98102   7.294   8.824   5.627
65402SOL    HW198103   7.253   8.907   5.607
65402SOL    HW298104   7.385   8.834   5.597
65403SOL     OW98105  10.308  11.943  11.674
65403SOL    HW198106  10.316  11.861  11.626
65403SOL    HW298107  10.233  11.987  11.633
65404SOL     OW98108  13.258   6.708   8.619
65404SOL    HW198109  13.230   6.748   8.701
65404SOL    HW298110  13.342   6.748   8.600
65405SOL     OW98111   6.719   2.189   1.404
65405SOL    HW198112   6.795   2.227   1.361
65405SOL    HW298113   6.709   2.240   1.485
65406SOL     OW98114  11.335   0.208   0.001
65406SOL    HW198115  11.354   0.121   0.036
65406SOL    HW298116  11.262   0.240   0.054
65407SOL     OW98117   7.615   6.563  12.392
65407SOL    HW198118   7.578   6.639  12.438
65407SOL    HW298119   7.610   6.588  12.299
65408SOL     OW98120  11.987   8.005   0.907
65408SOL    HW198121  11.971   7.920   0.866
65408SOL    HW298122  11.967   8.070   0.840
65409SOL     OW98123   9.079   2.944   0.495
65409SOL    HW198124   9.144   2.956   0.425
65409SOL    HW298125   9.095   2.855   0.528
65410SOL     OW98126   3.198   9.145   6.833
65410SOL    HW198127   3.152   9.072   6.875
65410SOL    HW298128   3.258   9.102   6.771
65411SOL     OW98129   7.053   8.466  14.570
65411SOL    HW198130   7.027   8.552  14.605
65411SOL    HW298131   7.018   8.465  14.481
65412SOL     OW98132   3.419  10.818   3.154
65412SOL    HW198133   3.466  10.750   3.202
65412SOL    HW298134   3.332  10.819   3.194
65413SOL     OW98135   3.462   7.024  10.782
65413SOL    HW198136   3.385   7.080  10.792
65413SOL    HW298137   3.427   6.935  10.787
65414SOL     OW98138   2.726  10.637   8.237
65414SOL    HW198139   2.710  10.687   8.317
65414SOL    HW298140   2.718  10.701   8.166
65415SOL     OW98141  11.709   9.441  11.875
65415SOL    HW198142  11.726   9.360  11.923
65415SOL    HW298143  11.786   9.453  11.819
65416SOL     OW98144   8.387   8.427   7.527
65416SOL    HW198145   8.349   8.343   7.502
65416SOL    HW298146   8.330   8.492   7.486
65417SOL     OW98147  10.199  10.736   5.084
65417SOL    HW198148  10.172  10.725   4.993
65417SOL    HW298149  10.132  10.690   5.135
65418SOL     OW98150   2.209   1.243  11.287
65418SOL    HW198151   2.167   1.159  11.304
65418SOL    HW298152   2.303   1.222  11.284
65419SOL     OW98153   8.683   5.583  12.010
65419SOL    HW198154   8.691   5.581  11.915
65419SOL    HW298155   8.772   5.597  12.042
65420SOL     OW98156   6.408   2.755   4.167
65420SOL    HW198157   6.449   2.749   4.080
65420SOL    HW298158   6.370   2.668   4.181
65421SOL     OW98159  14.500  10.686   9.798
65421SOL    HW198160  14.497  10.773   9.838
65421SOL    HW298161  14.513  10.704   9.704
65422SOL     OW98162  13.369   6.177  11.235
65422SOL    HW198163  13.322   6.103  11.195
65422SOL    HW298164  13.304   6.248  11.237
65423SOL     OW98165  10.151   0.432   1.163
65423SOL    HW198166  10.092   0.416   1.236
65423SOL    HW298167  10.190   0.347   1.144
65424SOL     OW98168   8.224  14.441   5.528
65424SOL    HW198169   8.318  14.443   5.513
65424SOL    HW298170   8.192  14.524   5.495
65425SOL     OW98171   7.583  13.814  14.712
65425SOL    HW198172   7.591  13.844  14.802
65425SOL    HW298173   7.532  13.733  14.718
65426SOL     OW98174  10.035   0.096   6.960
65426SOL    HW198175  10.116   0.074   6.914
65426SOL    HW298176   9.985   0.149   6.898
65427SOL     OW98177   7.757  14.196   4.595
65427SOL    HW198178   7.801  14.280   4.606
65427SOL    HW298179   7.746  14.163   4.684
65428SOL     OW98180  10.085   2.603   0.780
65428SOL    HW198181  10.088   2.581   0.873
65428SOL    HW298182  10.094   2.519   0.735
65429SOL     OW98183   7.755  12.132  13.166
65429SOL    HW198184   7.810  12.199  13.207
65429SOL    HW298185   7.800  12.049  13.183
65430SOL     OW98186   9.874   8.023   9.178
65430SOL    HW198187   9.793   8.066   9.152
65430SOL    HW298188   9.940   8.093   9.180
65431SOL     OW98189  13.637  12.029   6.340
65431SOL    HW198190  13.696  12.071   6.277
65431SOL    HW298191  13.692  12.014   6.417
65432SOL     OW98192   8.577  14.062   3.107
65432SOL    HW198193   8.626  14.068   3.025
65432SOL    HW298194   8.495  14.107   3.089
65433SOL     OW98195   5.496   9.178   4.017
65433SOL    HW198196   5.492   9.099   3.963
65433SOL    HW298197   5.493   9.250   3.954
65434SOL     OW98198   3.377  12.332   0.759
65434SOL    HW198199   3.290  12.326   0.720
65434SOL    HW298200   3.392  12.245   0.796
65435SOL     OW98201   0.286   0.314   9.134
65435SOL    HW198202   0.351   0.301   9.203
65435SOL    HW298203   0.329   0.286   9.054
65436SOL     OW98204   7.970  13.223  14.089
65436SOL    HW198205   8.062  13.246  14.094
65436SOL    HW298206   7.969  13.138  14.045
65437SOL     OW98207  12.315  13.112   6.916
65437SOL    HW198208  12.290  13.029   6.875
65437SOL    HW298209  12.402  13.097   6.952
65438SOL     OW98210   9.742  14.256   3.254
65438SOL    HW198211   9.760  14.337   3.302
65438SOL    HW298212   9.777  14.271   3.167
65439SOL     OW98213   4.971   1.023   5.906
65439SOL    HW198214   5.044   1.042   5.847
65439SOL    HW298215   4.936   0.940   5.875
65440SOL     OW98216   1.612   0.391   0.650
65440SOL    HW198217   1.526   0.431   0.665
65440SOL    HW298218   1.615   0.318   0.711
65441SOL     OW98219  13.422  13.874   4.055
65441SOL    HW198220  13.486  13.861   4.125
65441SOL    HW298221  13.459  13.942   4.000
65442SOL     OW98222  14.447   2.888  11.614
65442SOL    HW198223  14.507   2.814  11.612
65442SOL    HW298224  14.504   2.965  11.613
65443SOL     OW98225   4.886   3.771  12.424
65443SOL    HW198226   4.894   3.821  12.506
65443SOL    HW298227   4.830   3.826  12.368
65444SOL     OW98228   5.817  11.058   6.917
65444SOL    HW198229   5.852  11.144   6.892
65444SOL    HW298230   5.886  11.019   6.971
65445SOL     OW98231   9.688   3.932   9.811
65445SOL    HW198232   9.709   3.851   9.857
65445SOL    HW298233   9.734   3.924   9.727
65446SOL     OW98234   6.987   2.486   2.549
65446SOL    HW198235   6.924   2.537   2.498
65446SOL    HW298236   7.072   2.526   2.529
65447SOL     OW98237   8.475   4.596  14.436
65447SOL    HW198238   8.424   4.567  14.512
65447SOL    HW298239   8.436   4.551  14.362
65448SOL     OW98240   1.349   7.277   3.861
65448SOL    HW198241   1.414   7.302   3.927
65448SOL    HW298242   1.366   7.337   3.788
65449SOL     OW98243   3.250   2.955   8.023
65449SOL    HW198244   3.318   2.953   7.955
65449SOL    HW298245   3.292   2.915   8.100
65450SOL     OW98246   1.454   6.945   9.117
65450SOL    HW198247   1.411   6.865   9.149
65450SOL    HW298248   1.441   6.941   9.022
65451SOL     OW98249   3.300  10.430   5.831
65451SOL    HW198250   3.255  10.510   5.857
65451SOL    HW298251   3.393  10.453   5.833
65452SOL     OW98252   8.923   7.668  11.204
65452SOL    HW198253   8.924   7.611  11.280
65452SOL    HW298254   8.956   7.752  11.236
65453SOL     OW98255  10.238   2.755   5.632
65453SOL    HW198256  10.269   2.828   5.578
65453SOL    HW298257  10.293   2.681   5.605
65454SOL     OW98258  13.261   3.608  14.479
65454SOL    HW198259  13.298   3.584  14.564
65454SOL    HW298260  13.170   3.581  14.485
65455SOL     OW98261  14.537  11.470  11.913
65455SOL    HW198262  14.466  11.464  11.977
65455SOL    HW298263  14.584  11.387  11.922
65456SOL     OW98264   2.861  14.811   9.996
65456SOL    HW198265   2.956  14.817   9.996
65456SOL    HW298266   2.841  14.740   9.934
65457SOL     OW98267  11.714   1.702  12.502
65457SOL    HW198268  11.649   1.737  12.441
65457SOL    HW298269  11.761   1.635  12.452
65458SOL     OW98270   5.991  10.482  13.634
65458SOL    HW198271   6.061  10.523  13.684
65458SOL    HW298272   5.984  10.534  13.554
65459SOL     OW98273   6.801   4.685   6.853
65459SOL    HW198274   6.771   4.763   6.808
65459SOL    HW298275   6.896   4.696   6.862
65460SOL     OW98276   5.061   7.666  10.914
65460SOL    HW198277   4.971   7.694  10.927
65460SOL    HW298278   5.108   7.746  10.889
65461SOL     OW98279   2.365   3.779  10.140
65461SOL    HW198280   2.383   3.856  10.086
65461SOL    HW298281   2.286   3.802  10.189
65462SOL     OW98282  14.380   1.072   9.620
65462SOL    HW198283  14.310   1.017   9.584
65462SOL    HW298284  14.453   1.012   9.635
65463SOL     OW98285  11.004   9.536  13.562
65463SOL    HW198286  11.029   9.444  13.568
65463SOL    HW298287  10.912   9.535  13.536
65464SOL     OW98288  12.528   3.229   9.432
65464SOL    HW198289  12.570   3.273   9.358
65464SOL    HW298290  12.440   3.267   9.436
65465SOL     OW98291  10.980  12.700  12.349
65465SOL    HW198292  11.050  12.700  12.284
65465SOL    HW298293  11.004  12.631  12.410
65466SOL     OW98294  14.856  11.845  14.403
65466SOL    HW198295   0.070  11.830  14.398
65466SOL    HW298296  14.837  11.907  14.333
65467SOL     OW98297   4.694   1.964  11.950
65467SOL    HW198298   4.626   1.938  11.887
65467SOL    HW298299   4.703   2.058  11.938
65468SOL     OW98300   9.684  13.839  10.507
65468SOL    HW198301   9.706  13.924  10.545
65468SOL    HW298302   9.760  13.784  10.526
65469SOL     OW98303  14.311   8.894   7.012
65469SOL    HW198304  14.346   8.953   6.946
65469SOL    HW298305  14.252   8.948   7.065
65470SOL     OW98306   7.331   4.904  10.663
65470SOL    HW198307   7.370   4.965  10.601
65470SOL    HW298308   7.305   4.829  10.609
65471SOL     OW98309  13.330  14.669   2.435
65471SOL    HW198310  13.387  14.746   2.437
65471SOL    HW298311  13.343  14.632   2.347
65472SOL     OW98312   5.721   2.935   4.308
65472SOL    HW198313   5.692   2.845   4.323
65472SOL    HW298314   5.751   2.964   4.394
65473SOL     OW98315  12.457   9.720  11.729
65473SOL    HW198316  12.374   9.691  11.768
65473SOL    HW298317  12.510   9.641  11.725
65474SOL     OW98318   5.968   6.024   5.458
65474SOL    HW198319   5.927   5.985   5.380
65474SOL    HW298320   5.896   6.068   5.503
65475SOL     OW98321  13.067  12.847  12.382
65475SOL    HW198322  13.057  12.880  12.293
65475SOL    HW298323  12.977  12.839  12.414
65476SOL     OW98324   2.313  14.132   3.621
65476SOL    HW198325   2.365  14.210   3.600
65476SOL    HW298326   2.245  14.129   3.554
65477SOL     OW98327  13.377   6.629   0.535
65477SOL    HW198328  13.300   6.585   0.498
65477SOL    HW298329  13.400   6.696   0.470
65478SOL     OW98330  11.274   5.653   0.501
65478SOL    HW198331  11.215   5.577   0.499
65478SOL    HW298332  11.320   5.650   0.417
65479SOL     OW98333   5.670   7.569   7.554
65479SOL    HW198334   5.748   7.514   7.561
65479SOL    HW298335   5.645   7.588   7.644
65480SOL     OW98336   4.673   5.880  13.221
65480SOL    HW198337   4.728   5.801  13.221
65480SOL    HW298338   4.618   5.870  13.298
65481SOL     OW98339   6.383  13.540   5.249
65481SOL    HW198340   6.463  13.529   5.196
65481SOL    HW298341   6.313  13.549   5.185
65482SOL     OW98342   0.230   4.292   7.510
65482SOL    HW198343   0.184   4.350   7.449
65482SOL    HW298344   0.223   4.205   7.470
65483SOL     OW98345  14.720   5.155   8.292
65483SOL    HW198346  14.626   5.138   8.300
65483SOL    HW298347  14.761   5.086   8.345
65484SOL     OW98348   9.438   0.960   9.811
65484SOL    HW198349   9.423   0.954   9.717
65484SOL    HW298350   9.353   0.942   9.850
65485SOL     OW98351   3.167   5.238   7.593
65485SOL    HW198352   3.109   5.252   7.667
65485SOL    HW298353   3.109   5.238   7.516
65486SOL     OW98354   9.071  11.640  11.358
65486SOL    HW198355   9.073  11.644  11.262
65486SOL    HW298356   8.981  11.616  11.380
65487SOL     OW98357  10.690   9.921   0.190
65487SOL    HW198358  10.723   9.841   0.151
65487SOL    HW298359  10.601   9.899   0.219
65488SOL     OW98360   2.857  13.781  11.830
65488SOL    HW198361   2.947  13.804  11.809
65488SOL    HW298362   2.821  13.747  11.748
65489SOL     OW98363   4.593   8.777   3.404
65489SOL    HW198364   4.590   8.792   3.498
65489SOL    HW298365   4.665   8.715   3.391
65490SOL     OW98366   0.779   7.679   2.497
65490SOL    HW198367   0.698   7.723   2.521
65490SOL    HW298368   0.754   7.621   2.425
65491SOL     OW98369   5.367  14.569   6.818
65491SOL    HW198370   5.356  14.499   6.881
65491SOL    HW298371   5.387  14.646   6.872
65492SOL     OW98372   7.443   4.847   4.821
65492SOL    HW198373   7.387   4.892   4.758
65492SOL    HW298374   7.518   4.906   4.832
65493SOL     OW98375  12.159   3.301   9.676
65493SOL    HW198376  12.131   3.219   9.636
65493SOL    HW298377  12.107   3.368   9.631
65494SOL     OW98378   9.864   1.235  13.857
65494SOL    HW198379   9.910   1.189  13.787
65494SOL    HW298380   9.784   1.267  13.816
65495SOL     OW98381  14.592  12.984   6.484
65495SOL    HW198382  14.583  13.012   6.393
65495SOL    HW298383  14.550  12.899   6.488
65496SOL     OW98384   4.767  10.202   5.530
65496SOL    HW198385   4.772  10.196   5.435
65496SOL    HW298386   4.836  10.264   5.554
65497SOL     OW98387   0.493  12.932   1.395
65497SOL    HW198388   0.539  12.858   1.358
65497SOL    HW298389   0.473  12.989   1.321
65498SOL     OW98390   7.354  13.965  12.188
65498SOL    HW198391   7.425  14.019  12.153
65498SOL    HW298392   7.321  14.015  12.263
65499SOL     OW98393   1.075  14.191   2.922
65499SOL    HW198394   1.141  14.260   2.911
65499SOL    HW298395   1.045  14.173   2.833
65500SOL     OW98396   0.035   0.883   1.877
65500SOL    HW198397   0.102   0.938   1.916
65500SOL    HW298398  14.849   0.873   1.945
65501SOL     OW98399   9.628   8.847   2.802
65501SOL    HW198400   9.635   8.903   2.724
65501SOL    HW298401   9.538   8.859   2.831
65502SOL     OW98402   7.059   4.658   2.304
65502SOL    HW198403   7.093   4.584   2.354
65502SOL    HW298404   7.099   4.735   2.346
65503SOL     OW98405  12.072   7.371  10.385
65503SOL    HW198406  12.163   7.349  10.366
65503SOL    HW298407  12.043   7.418  10.307
65504SOL     OW98408  11.178   8.753   2.846
65504SOL    HW198409  11.254   8.810   2.837
65504SOL    HW298410  11.214   8.664   2.847
65505SOL     OW98411  14.107  11.668   6.633
65505SOL    HW198412  14.172  11.617   6.586
65505SOL    HW298413  14.040  11.604   6.657
65506SOL     OW98414   9.580  12.180   0.526
65506SOL    HW198415   9.562  12.096   0.484
65506SOL    HW298416   9.611  12.157   0.614
65507SOL     OW98417  10.457   6.461  12.998
65507SOL    HW198418  10.384   6.399  12.996
65507SOL    HW298419  10.523   6.419  13.053
65508SOL     OW98420   8.371  12.688   3.033
65508SOL    HW198421   8.458  12.718   3.008
65508SOL    HW298422   8.314  12.763   3.018
65509SOL     OW98423   4.103   5.476   3.810
65509SOL    HW198424   4.029   5.422   3.783
65509SOL    HW298425   4.113   5.540   3.739
65510SOL     OW98426   8.174   0.576   8.336
65510SOL    HW198427   8.247   0.598   8.278
65510SOL    HW298428   8.214   0.526   8.407
65511SOL     OW98429   8.436   8.811   4.540
65511SOL    HW198430   8.361   8.766   4.578
65511SOL    HW298431   8.498   8.820   4.613
65512SOL     OW98432   3.319   2.732   0.949
65512SOL    HW198433   3.334   2.704   1.039
65512SOL    HW298434   3.394   2.788   0.929
65513SOL     OW98435  14.110   2.673   9.933
65513SOL    HW198436  14.163   2.731   9.986
65513SOL    HW298437  14.031   2.658   9.984
65514SOL     OW98438   5.649   8.954   9.398
65514SOL    HW198439   5.583   8.966   9.329
65514SOL    HW298440   5.598   8.955   9.479
65515SOL     OW98441  11.392  11.915   0.223
65515SOL    HW198442  11.462  11.978   0.205
65515SOL    HW298443  11.389  11.909   0.319
65516SOL     OW98444   3.710   4.850   5.393
65516SOL    HW198445   3.718   4.933   5.347
65516SOL    HW298446   3.791   4.803   5.372
65517SOL     OW98447  12.663   1.560   4.155
65517SOL    HW198448  12.705   1.641   4.126
65517SOL    HW298449  12.596   1.588   4.217
65518SOL     OW98450   6.173  12.964   2.802
65518SOL    HW198451   6.257  12.955   2.757
65518SOL    HW298452   6.193  12.946   2.894
65519SOL     OW98453   3.547  10.431  13.912
65519SOL    HW198454   3.531  10.522  13.934
65519SOL    HW298455   3.508  10.381  13.984
65520SOL     OW98456  11.961   1.376  10.941
65520SOL    HW198457  12.049   1.344  10.922
65520SOL    HW298458  11.972   1.435  11.015
65521SOL     OW98459  12.402   6.623   3.288
65521SOL    HW198460  12.376   6.612   3.197
65521SOL    HW298461  12.440   6.711   3.291
65522SOL     OW98462  11.407   6.511   5.139
65522SOL    HW198463  11.421   6.446   5.070
65522SOL    HW298464  11.448   6.590   5.105
65523SOL     OW98465  11.332   4.361   8.774
65523SOL    HW198466  11.255   4.377   8.828
65523SOL    HW298467  11.299   4.363   8.684
65524SOL     OW98468  12.048   6.232   8.138
65524SOL    HW198469  12.041   6.311   8.084
65524SOL    HW298470  11.998   6.166   8.091
65525SOL     OW98471   0.438  11.560   5.419
65525SOL    HW198472   0.422  11.467   5.434
65525SOL    HW298473   0.388  11.580   5.340
65526SOL     OW98474   1.189  12.030   8.195
65526SOL    HW198475   1.117  12.031   8.132
65526SOL    HW298476   1.154  12.075   8.272
65527SOL     OW98477   6.077  10.694   4.217
65527SOL    HW198478   6.145  10.674   4.153
65527SOL    HW298479   6.093  10.786   4.241
65528SOL     OW98480   5.265   6.256   3.955
65528SOL    HW198481   5.292   6.164   3.959
65528SOL    HW298482   5.334   6.299   3.904
65529SOL     OW98483  11.630  12.883  11.979
65529SOL    HW198484  11.655  12.806  11.928
65529SOL    HW298485  11.711  12.911  12.022
65530SOL     OW98486  13.918   5.536   1.146
65530SOL    HW198487  13.989   5.478   1.173
65530SOL    HW298488  13.958   5.593   1.080
65531SOL     OW98489  14.667   6.791   3.859
65531SOL    HW198490  14.649   6.783   3.765
65531SOL    HW298491  14.611   6.725   3.900
65532SOL     OW98492   0.607  13.126  14.369
65532SOL    HW198493   0.694  13.103  14.400
65532SOL    HW298494   0.619  13.151  14.278
65533SOL     OW98495   7.751   8.662   3.336
65533SOL    HW198496   7.754   8.751   3.371
65533SOL    HW298497   7.779   8.607   3.409
65534SOL     OW98498  14.536   6.294   8.594
65534SOL    HW198499  14.565   6.209   8.562
65534SOL    HW298500  14.511   6.279   8.685
65535SOL     OW98501   0.678   1.475   0.949
65535SOL    HW198502   0.617   1.530   0.900
65535SOL    HW298503   0.707   1.409   0.887
65536SOL     OW98504  13.687   0.628   8.683
65536SOL    HW198505  13.757   0.626   8.618
65536SOL    HW298506  13.607   0.617   8.632
65537SOL     OW98507   2.473   6.210  10.001
65537SOL    HW198508   2.531   6.134  10.004
65537SOL    HW298509   2.395   6.183  10.050
65538SOL     OW98510  14.592  13.057   2.013
65538SOL    HW198511  14.497  13.053   2.006
65538SOL    HW298512  14.624  13.044   1.924
65539SOL     OW98513   8.803  10.889   4.899
65539SOL    HW198514   8.837  10.810   4.857
65539SOL    HW298515   8.708  10.883   4.888
65540SOL     OW98516  13.631   0.895  12.874
65540SOL    HW198517  13.541   0.863  12.860
65540SOL    HW298518  13.633   0.981  12.832
65541SOL     OW98519   5.511   7.840  13.999
65541SOL    HW198520   5.447   7.864  13.932
65541SOL    HW298521   5.559   7.766  13.963
65542SOL     OW98522   9.447   2.145   5.424
65542SOL    HW198523   9.438   2.240   5.437
65542SOL    HW298524   9.535   2.134   5.388
65543SOL     OW98525   2.667   2.286   9.275
65543SOL    HW198526   2.724   2.334   9.215
65543SOL    HW298527   2.724   2.220   9.314
65544SOL     OW98528   1.179  12.871   9.952
65544SOL    HW198529   1.248  12.808   9.971
65544SOL    HW298530   1.207  12.914   9.871
65545SOL     OW98531   0.689   7.365   4.837
65545SOL    HW198532   0.625   7.297   4.860
65545SOL    HW298533   0.675   7.434   4.901
65546SOL     OW98534  13.368   4.469   0.856
65546SOL    HW198535  13.436   4.466   0.788
65546SOL    HW298536  13.298   4.522   0.817
65547SOL     OW98537   2.099   7.884   6.964
65547SOL    HW198538   2.142   7.858   6.882
65547SOL    HW298539   2.077   7.976   6.951
65548SOL     OW98540   6.319  13.562  13.233
65548SOL    HW198541   6.349  13.629  13.294
65548SOL    HW298542   6.226  13.577  13.222
65549SOL     OW98543  10.471   8.598  12.182
65549SOL    HW198544  10.468   8.689  12.211
65549SOL    HW298545  10.541   8.596  12.116
65550SOL     OW98546   8.875  11.009   0.929
65550SOL    HW198547   8.824  11.080   0.968
65550SOL    HW298548   8.810  10.942   0.907
65551SOL     OW98549   9.766   6.004  13.157
65551SOL    HW198550   9.676   5.980  13.135
65551SOL    HW298551   9.817   5.977  13.080
65552SOL     OW98552  11.776   5.710   0.084
65552SOL    HW198553  11.778   5.731  14.870
65552SOL    HW298554  11.730   5.627   0.089
65553SOL     OW98555  14.592   6.383   1.619
65553SOL    HW198556  14.630   6.362   1.704
65553SOL    HW298557  14.646   6.335   1.556
65554SOL     OW98558   2.770   4.788   5.999
65554SOL    HW198559   2.817   4.861   5.960
65554SOL    HW298560   2.697   4.828   6.045
65555SOL     OW98561   9.708   9.351  12.365
65555SOL    HW198562   9.691   9.259  12.346
65555SOL    HW298563   9.798   9.366  12.336
65556SOL     OW98564   9.958   2.718  12.638
65556SOL    HW198565  10.007   2.748  12.562
65556SOL    HW298566   9.888   2.665  12.602
65557SOL     OW98567   2.272  13.061   8.910
65557SOL    HW198568   2.185  13.077   8.948
65557SOL    HW298569   2.288  12.968   8.926
65558SOL     OW98570  14.719  13.069   7.294
65558SOL    HW198571  14.783  13.108   7.354
65558SOL    HW298572  14.771  13.036   7.222
65559SOL     OW98573   0.827   8.494  13.435
65559SOL    HW198574   0.792   8.426  13.493
65559SOL    HW298575   0.751   8.548  13.414
65560SOL     OW98576  14.329  13.572   6.042
65560SOL    HW198577  14.300  13.480   6.039
65560SOL    HW298578  14.262  13.620   5.995
65561SOL     OW98579   5.868   1.970   7.038
65561SOL    HW198580   5.811   1.920   7.096
65561SOL    HW298581   5.823   1.969   6.954
65562SOL     OW98582  14.201   2.444  12.165
65562SOL    HW198583  14.192   2.401  12.079
65562SOL    HW298584  14.291   2.426  12.191
65563SOL     OW98585   6.866   3.067  10.433
65563SOL    HW198586   6.813   3.146  10.421
65563SOL    HW298587   6.861   3.049  10.527
65564SOL     OW98588   6.414   3.275   1.598
65564SOL    HW198589   6.373   3.354   1.564
65564SOL    HW298590   6.507   3.285   1.575
65565SOL     OW98591   4.927   8.002  12.645
65565SOL    HW198592   4.834   7.984  12.655
65565SOL    HW298593   4.965   7.979  12.729
65566SOL     OW98594  14.843   4.001  12.494
65566SOL    HW198595   0.048   4.016  12.536
65566SOL    HW298596  14.866   3.979  12.403
65567SOL     OW98597   0.215  13.960   0.016
65567SOL    HW198598   0.135  13.918  14.864
65567SOL    HW298599   0.269  13.888   0.048
65568SOL     OW98600   2.718   4.939   4.996
65568SOL    HW198601   2.693   5.024   5.034
65568SOL    HW298602   2.796   4.913   5.045
65569SOL     OW98603   5.782   6.798   0.064
65569SOL    HW198604   5.765   6.734  14.875
65569SOL    HW298605   5.743   6.760   0.143
65570SOL     OW98606   5.487   4.917   2.339
65570SOL    HW198607   5.492   4.960   2.425
65570SOL    HW298608   5.470   4.989   2.278
65571SOL     OW98609  11.900  13.049   4.917
65571SOL    HW198610  11.993  13.047   4.940
65571SOL    HW298611  11.886  12.968   4.869
65572SOL     OW98612   2.140   0.902   6.875
65572SOL    HW198613   2.152   0.816   6.835
65572SOL    HW298614   2.066   0.890   6.935
65573SOL     OW98615   3.967   4.334  11.988
65573SOL    HW198616   4.030   4.266  12.012
65573SOL    HW298617   3.977   4.401  12.056
65574SOL     OW98618   3.594  11.528  13.313
65574SOL    HW198619   3.506  11.565  13.325
65574SOL    HW298620   3.594  11.450  13.368
65575SOL     OW98621   2.129   8.468   5.077
65575SOL    HW198622   2.224   8.465   5.072
65575SOL    HW298623   2.106   8.402   5.143
65576SOL     OW98624  13.095   3.874  13.905
65576SOL    HW198625  13.078   3.868  13.999
65576SOL    HW298626  13.017   3.836  13.864
65577SOL     OW98627   7.511   8.889  11.413
65577SOL    HW198628   7.445   8.821  11.398
65577SOL    HW298629   7.532   8.921  11.325
65578SOL     OW98630   6.041   2.547   4.403
65578SOL    HW198631   6.122   2.597   4.408
65578SOL    HW298632   6.070   2.455   4.401
65579SOL     OW98633  12.823   4.832   0.475
65579SOL    HW198634  12.797   4.891   0.545
65579SOL    HW298635  12.788   4.872   0.395
65580SOL     OW98636   9.778   5.284   8.600
65580SOL    HW198637   9.739   5.319   8.681
65580SOL    HW298638   9.722   5.317   8.530
65581SOL     OW98639   8.150  11.703   6.193
65581SOL    HW198640   8.087  11.639   6.160
65581SOL    HW298641   8.217  11.707   6.125
65582SOL     OW98642  10.391   5.811   8.086
65582SOL    HW198643  10.376   5.846   7.998
65582SOL    HW298644  10.420   5.721   8.071
65583SOL     OW98645  11.498   7.791   3.170
65583SOL    HW198646  11.493   7.697   3.150
65583SOL    HW298647  11.583   7.818   3.136
65584SOL     OW98648  11.364   2.587   9.685
65584SOL    HW198649  11.434   2.564   9.624
65584SOL    HW298650  11.298   2.631   9.631
65585SOL     OW98651   9.710   0.535   1.857
65585SOL    HW198652   9.712   0.607   1.794
65585SOL    HW298653   9.631   0.485   1.834
65586SOL     OW98654   3.098   8.050  11.246
65586SOL    HW198655   3.151   8.020  11.173
65586SOL    HW298656   3.025   8.096  11.206
65587SOL     OW98657   4.027   1.895   0.791
65587SOL    HW198658   3.975   1.817   0.769
65587SOL    HW298659   4.111   1.860   0.821
65588SOL     OW98660   6.757  10.464  10.676
65588SOL    HW198661   6.771  10.398  10.608
65588SOL    HW298662   6.811  10.435  10.750
65589SOL     OW98663   6.028   5.825   3.088
65589SOL    HW198664   6.000   5.899   3.033
65589SOL    HW298665   5.957   5.815   3.152
65590SOL     OW98666  10.062   7.046  11.181
65590SOL    HW198667  10.080   7.136  11.156
65590SOL    HW298668  10.017   7.008  11.105
65591SOL     OW98669   0.828  12.644   2.928
65591SOL    HW198670   0.821  12.559   2.886
65591SOL    HW298671   0.834  12.625   3.021
65592SOL     OW98672   8.422  14.262   2.390
65592SOL    HW198673   8.402  14.308   2.472
65592SOL    HW298674   8.409  14.329   2.322
65593SOL     OW98675  12.218   8.475   0.836
65593SOL    HW198676  12.296   8.428   0.806
65593SOL    HW298677  12.219   8.465   0.932
65594SOL     OW98678  13.193   1.118   0.180
65594SOL    HW198679  13.209   1.024   0.195
65594SOL    HW298680  13.205   1.158   0.267
65595SOL     OW98681  13.254   0.200   1.872
65595SOL    HW198682  13.207   0.272   1.913
65595SOL    HW298683  13.241   0.126   1.932
65596SOL     OW98684  11.748   7.418   7.057
65596SOL    HW198685  11.739   7.405   7.152
65596SOL    HW298686  11.841   7.438   7.045
65597SOL     OW98687   0.930   7.525   2.706
65597SOL    HW198688   0.915   7.435   2.679
65597SOL    HW298689   0.858   7.574   2.666
65598SOL     OW98690   9.300   0.541  13.122
65598SOL    HW198691   9.351   0.557  13.042
65598SOL    HW298692   9.209   0.541  13.092
65599SOL     OW98693   3.923   0.403  12.529
65599SOL    HW198694   3.955   0.323  12.486
65599SOL    HW298695   3.855   0.372  12.589
65600SOL     OW98696  11.604   3.646  13.674
65600SOL    HW198697  11.641   3.568  13.634
65600SOL    HW298698  11.618   3.635  13.767
65601SOL     OW98699   7.967   2.949   3.253
65601SOL    HW198700   7.894   3.010   3.244
65601SOL    HW298701   8.004   2.943   3.165
65602SOL     OW98702  12.076   2.008   4.643
65602SOL    HW198703  12.148   2.063   4.613
65602SOL    HW298704  11.999   2.064   4.637
65603SOL     OW98705   1.309   5.800   3.930
65603SOL    HW198706   1.290   5.864   3.999
65603SOL    HW298707   1.374   5.843   3.874
65604SOL     OW98708   2.283   8.923   5.220
65604SOL    HW198709   2.292   8.860   5.148
65604SOL    HW298710   2.343   8.890   5.287
65605SOL     OW98711   1.109   5.461   6.832
65605SOL    HW198712   1.197   5.494   6.816
65605SOL    HW298713   1.064   5.532   6.878
65606SOL     OW98714  11.041   2.315   4.610
65606SOL    HW198715  11.111   2.376   4.587
65606SOL    HW298716  11.076   2.265   4.684
65607SOL     OW98717   8.432   4.654   7.329
65607SOL    HW198718   8.416   4.747   7.311
65607SOL    HW298719   8.422   4.646   7.424
65608SOL     OW98720  11.877  10.632   6.198
65608SOL    HW198721  11.832  10.584   6.128
65608SOL    HW298722  11.821  10.707   6.215
65609SOL     OW98723  13.346   6.098   8.469
65609SOL    HW198724  13.362   6.151   8.547
65609SOL    HW298725  13.251   6.089   8.465
65610SOL     OW98726   6.636   4.595  10.054
65610SOL    HW198727   6.672   4.680  10.079
65610SOL    HW298728   6.542   4.610  10.047
65611SOL     OW98729   5.157   2.952   2.102
65611SOL    HW198730   5.211   2.886   2.058
65611SOL    HW298731   5.220   3.015   2.138
65612SOL     OW98732  10.107   6.628   7.351
65612SOL    HW198733  10.079   6.671   7.270
65612SOL    HW298734  10.159   6.553   7.321
65613SOL     OW98735  14.703   6.720   0.904
65613SOL    HW198736  14.686   6.805   0.864
65613SOL    HW298737  14.784   6.690   0.864
65614SOL     OW98738   1.890  13.526   4.184
65614SOL    HW198739   1.813  13.561   4.139
65614SOL    HW298740   1.902  13.583   4.260
65615SOL     OW98741   0.278   9.571  10.824
65615SOL    HW198742   0.243   9.650  10.782
65615SOL    HW298743   0.223   9.500  10.791
65616SOL     OW98744  11.398  11.769   6.150
65616SOL    HW198745  11.475  11.742   6.100
65616SOL    HW298746  11.365  11.688   6.188
65617SOL     OW98747   0.452  13.534  13.394
65617SOL    HW198748   0.459  13.616  13.344
65617SOL    HW298749   0.442  13.466  13.327
65618SOL     OW98750   3.343   4.262   5.893
65618SOL    HW198751   3.420   4.318   5.896
65618SOL    HW298752   3.286   4.303   5.828
65619SOL     OW98753  10.615   1.440   2.140
65619SOL    HW198754  10.644   1.488   2.062
65619SOL    HW298755  10.570   1.506   2.193
65620SOL     OW98756   0.014   0.975   3.332
65620SOL    HW198757  14.842   1.054   3.317
65620SOL    HW298758  14.830   0.905   3.339
65621SOL     OW98759   1.112   8.941   5.778
65621SOL    HW198760   1.142   8.864   5.729
65621SOL    HW298761   1.036   8.911   5.827
65622SOL     OW98762   7.888   9.534   0.254
65622SOL    HW198763   7.941   9.461   0.284
65622SOL    HW298764   7.821   9.544   0.322
65623SOL     OW98765   6.628  10.284  13.232
65623SOL    HW198766   6.608  10.242  13.316
65623SOL    HW298767   6.622  10.378  13.249
65624SOL     OW98768   8.392   1.981   2.698
65624SOL    HW198769   8.358   1.894   2.717
65624SOL    HW298770   8.487   1.969   2.694
65625SOL     OW98771   2.885   5.760  14.519
65625SOL    HW198772   2.963   5.813  14.502
65625SOL    HW298773   2.889   5.742  14.613
65626SOL     OW98774  11.930   5.283   4.105
65626SOL    HW198775  12.023   5.281   4.129
65626SOL    HW298776  11.891   5.211   4.154
65627SOL     OW98777   1.814   6.518  11.005
65627SOL    HW198778   1.899   6.477  10.988
65627SOL    HW298779   1.785   6.549  10.919
65628SOL     OW98780   2.908   6.285  10.456
65628SOL    HW198781   2.871   6.210  10.503
65628SOL    HW298782   2.854   6.292  10.377
65629SOL     OW98783   5.889  14.457   6.073
65629SOL    HW198784   5.961  14.460   6.136
65629SOL    HW298785   5.924  14.500   5.995
65630SOL     OW98786   2.178   8.054   2.305
65630SOL    HW198787   2.152   8.140   2.338
65630SOL    HW298788   2.106   8.028   2.246
65631SOL     OW98789   6.476  13.565  10.877
65631SOL    HW198790   6.533  13.575  10.800
65631SOL    HW298791   6.524  13.608  10.947
65632SOL     OW98792   3.470   5.740  14.314
65632SOL    HW198793   3.534   5.704  14.375
65632SOL    HW298794   3.505   5.826  14.291
65633SOL     OW98795   9.194  10.806   4.378
65633SOL    HW198796   9.122  10.748   4.399
65633SOL    HW298797   9.214  10.786   4.286
65634SOL     OW98798   3.080   1.718  14.539
65634SOL    HW198799   3.087   1.655  14.468
65634SOL    HW298800   3.143   1.787  14.516
65635SOL     OW98801  14.492   9.639   5.630
65635SOL    HW198802  14.466   9.559   5.585
65635SOL    HW298803  14.521   9.698   5.560
65636SOL     OW98804  11.207   7.832   3.135
65636SOL    HW198805  11.267   7.870   3.072
65636SOL    HW298806  11.263   7.786   3.198
65637SOL     OW98807   8.832   0.302  13.766
65637SOL    HW198808   8.747   0.260  13.781
65637SOL    HW298809   8.814   0.396  13.777
65638SOL     OW98810   7.720   0.028   4.103
65638SOL    HW198811   7.686   0.043   4.015
65638SOL    HW298812   7.787  14.841   4.091
65639SOL     OW98813  14.706   8.844   1.110
65639SOL    HW198814  14.771   8.892   1.162
65639SOL    HW298815  14.712   8.754   1.142
65640SOL     OW98816   9.220  12.772   5.109
65640SOL    HW198817   9.290  12.749   5.047
65640SOL    HW298818   9.156  12.701   5.101
65641SOL     OW98819   2.719   0.054  10.193
65641SOL    HW198820   2.638   0.011  10.164
65641SOL    HW298821   2.784   0.029  10.128
65642SOL     OW98822   4.263   2.708  11.234
65642SOL    HW198823   4.354   2.714  11.264
65642SOL    HW298824   4.259   2.623  11.189
65643SOL     OW98825  12.568   4.956   7.204
65643SOL    HW198826  12.498   4.993   7.151
65643SOL    HW298827  12.568   5.010   7.284
65644SOL     OW98828  12.311   0.260  12.125
65644SOL    HW198829  12.365   0.261  12.046
65644SOL    HW298830  12.228   0.221  12.097
65645SOL     OW98831   0.660  12.006   2.517
65645SOL    HW198832   0.732  12.051   2.473
65645SOL    HW298833   0.596  11.989   2.447
65646SOL     OW98834  12.019   1.653   7.564
65646SOL    HW198835  11.927   1.653   7.590
65646SOL    HW298836  12.067   1.676   7.643
65647SOL     OW98837  11.770   8.285   5.993
65647SOL    HW198838  11.803   8.338   5.920
65647SOL    HW298839  11.675   8.296   5.990
65648SOL     OW98840   2.810  10.292  14.157
65648SOL    HW198841   2.716  10.304  14.146
65648SOL    HW298842   2.842  10.376  14.189
65649SOL     OW98843   5.793   5.726  12.942
65649SOL    HW198844   5.761   5.704  13.029
65649SOL    HW298845   5.748   5.807  12.920
65650SOL     OW98846   9.831   8.663  13.381
65650SOL    HW198847   9.926   8.654  13.389
65650SOL    HW298848   9.808   8.609  13.305
65651SOL     OW98849  14.587   9.940  11.343
65651SOL    HW198850  14.536   9.922  11.422
65651SOL    HW298851  14.677   9.917  11.367
65652SOL     OW98852   2.544  13.239  11.419
65652SOL    HW198853   2.502  13.159  11.453
65652SOL    HW298854   2.474  13.303  11.416
65653SOL     OW98855   7.565   6.596   4.310
65653SOL    HW198856   7.540   6.689   4.309
65653SOL    HW298857   7.655   6.595   4.277
65654SOL     OW98858  10.257  10.654   2.648
65654SOL    HW198859  10.333  10.629   2.596
65654SOL    HW298860  10.188  10.592   2.623
65655SOL     OW98861  14.698  11.690   8.543
65655SOL    HW198862  14.792  11.685   8.562
65655SOL    HW298863  14.664  11.752   8.608
65656SOL     OW98864   4.601   1.876   6.700
65656SOL    HW198865   4.633   1.795   6.660
65656SOL    HW298866   4.587   1.936   6.627
65657SOL     OW98867  14.633  13.592   8.421
65657SOL    HW198868  14.631  13.601   8.326
65657SOL    HW298869  14.694  13.661   8.450
65658SOL     OW98870   1.012   9.352   9.200
65658SOL    HW198871   1.093   9.362   9.150
65658SOL    HW298872   0.979   9.442   9.210
65659SOL     OW98873   4.197  14.093  11.672
65659SOL    HW198874   4.274  14.060  11.624
65659SOL    HW298875   4.174  14.021  11.731
65660SOL     OW98876   1.224   5.360   2.488
65660SOL    HW198877   1.162   5.312   2.433
65660SOL    HW298878   1.170   5.402   2.555
65661SOL     OW98879   8.525   1.212   5.026
65661SOL    HW198880   8.602   1.184   5.075
65661SOL    HW298881   8.555   1.287   4.974
65662SOL     OW98882   7.840   1.724  11.559
65662SOL    HW198883   7.794   1.675  11.490
65662SOL    HW298884   7.919   1.757  11.517
65663SOL     OW98885   6.681   6.765   9.720
65663SOL    HW198886   6.733   6.779   9.799
65663SOL    HW298887   6.676   6.670   9.711
65664SOL     OW98888   2.883  11.018   6.485
65664SOL    HW198889   2.819  11.067   6.537
65664SOL    HW298890   2.931  10.966   6.550
65665SOL     OW98891  10.950  14.284  12.417
65665SOL    HW198892  10.891  14.210  12.404
65665SOL    HW298893  10.896  14.349  12.463
65666SOL     OW98894   3.767  12.178   6.252
65666SOL    HW198895   3.763  12.241   6.180
65666SOL    HW298896   3.676  12.164   6.276
65667SOL     OW98897   3.461  10.351  12.801
65667SOL    HW198898   3.521  10.327  12.872
65667SOL    HW298899   3.389  10.290  12.810
65668SOL     OW98900   3.436  10.457   2.350
65668SOL    HW198901   3.445  10.543   2.392
65668SOL    HW298902   3.351  10.461   2.307
65669SOL     OW98903  14.551   6.556   6.782
65669SOL    HW198904  14.642   6.527   6.788
65669SOL    HW298905  14.556   6.647   6.754
65670SOL     OW98906   5.259   4.192   6.124
65670SOL    HW198907   5.302   4.110   6.148
65670SOL    HW298908   5.324   4.239   6.073
65671SOL     OW98909   5.661   3.343   2.463
65671SOL    HW198910   5.576   3.374   2.492
65671SOL    HW298911   5.703   3.420   2.426
65672SOL     OW98912   4.571   7.639   2.032
65672SOL    HW198913   4.606   7.571   2.090
65672SOL    HW298914   4.487   7.603   2.002
65673SOL     OW98915   9.868   6.244  14.184
65673SOL    HW198916   9.853   6.312  14.249
65673SOL    HW298917   9.926   6.286  14.119
65674SOL     OW98918   2.140   6.901   4.452
65674SOL    HW198919   2.122   6.977   4.398
65674SOL    HW298920   2.103   6.827   4.403
65675SOL     OW98921   1.983   4.565   8.991
65675SOL    HW198922   2.030   4.533   9.069
65675SOL    HW298923   1.903   4.604   9.026
65676SOL     OW98924   6.039  10.823   9.350
65676SOL    HW198925   6.123  10.850   9.388
65676SOL    HW298926   6.058  10.740   9.306
65677SOL     OW98927   7.728  13.346   8.760
65677SOL    HW198928   7.713  13.385   8.846
65677SOL    HW298929   7.665  13.389   8.702
65678SOL     OW98930  11.032  10.225  12.658
65678SOL    HW198931  11.032  10.243  12.564
65678SOL    HW298932  11.117  10.187  12.676
65679SOL     OW98933   7.874  13.021   4.831
65679SOL    HW198934   7.837  12.966   4.761
65679SOL    HW298935   7.802  13.030   4.894
65680SOL     OW98936   8.083   2.501   4.881
65680SOL    HW198937   8.172   2.532   4.863
65680SOL    HW298938   8.047   2.566   4.941
65681SOL     OW98939   5.555  13.148   1.741
65681SOL    HW198940   5.577  13.099   1.661
65681SOL    HW298941   5.639  13.170   1.780
65682SOL     OW98942   0.360   2.794  10.527
65682SOL    HW198943   0.320   2.753  10.451
65682SOL    HW298944   0.429   2.851  10.492
65683SOL     OW98945   8.698  13.223   0.858
65683SOL    HW198946   8.622  13.257   0.906
65683SOL    HW298947   8.722  13.295   0.799
65684SOL     OW98948   2.243   9.890   8.558
65684SOL    HW198949   2.220   9.971   8.602
65684SOL    HW298950   2.183   9.825   8.594
65685SOL     OW98951   6.959   8.793  10.349
65685SOL    HW198952   6.931   8.872  10.395
65685SOL    HW298953   7.054   8.789  10.364
65686SOL     OW98954  11.988   8.539   6.844
65686SOL    HW198955  12.016   8.576   6.760
65686SOL    HW298956  11.958   8.451   6.823
65687SOL     OW98957  11.803   9.478  13.778
65687SOL    HW198958  11.839   9.390  13.769
65687SOL    HW298959  11.879   9.536  13.776
65688SOL     OW98960   9.524  11.666  12.161
65688SOL    HW198961   9.438  11.699  12.136
65688SOL    HW298962   9.584  11.705  12.097
65689SOL     OW98963   8.172  13.214   3.191
65689SOL    HW198964   8.220  13.131   3.191
65689SOL    HW298965   8.091  13.195   3.143
65690SOL     OW98966   6.826  13.304   1.575
65690SOL    HW198967   6.770  13.329   1.648
65690SOL    HW298968   6.915  13.302   1.611
65691SOL     OW98969   5.052  10.490   9.013
65691SOL    HW198970   4.986  10.560   9.008
65691SOL    HW298971   5.032  10.444   9.094
65692SOL     OW98972  12.830   6.444   4.210
65692SOL    HW198973  12.764   6.514   4.205
65692SOL    HW298974  12.788   6.376   4.264
65693SOL     OW98975   2.271   3.310   2.048
65693SOL    HW198976   2.366   3.312   2.036
65693SOL    HW298977   2.258   3.333   2.140
65694SOL     OW98978   8.171  11.391  11.021
65694SOL    HW198979   8.168  11.354  11.109
65694SOL    HW298980   8.103  11.458  11.021
65695SOL     OW98981   2.574   5.118   3.759
65695SOL    HW198982   2.497   5.087   3.711
65695SOL    HW298983   2.567   5.075   3.845
65696SOL     OW98984   8.647  14.577   7.898
65696SOL    HW198985   8.586  14.529   7.842
65696SOL    HW298986   8.710  14.511   7.928
65697SOL     OW98987   9.814   0.061  12.795
65697SOL    HW198988   9.727   0.065  12.836
65697SOL    HW298989   9.873   0.040  12.867
65698SOL     OW98990   2.068   3.401   3.510
65698SOL    HW198991   2.052   3.487   3.549
65698SOL    HW298992   1.995   3.347   3.541
65699SOL     OW98993   5.544   7.080  14.165
65699SOL    HW198994   5.568   7.148  14.102
65699SOL    HW298995   5.627   7.057  14.208
65700SOL     OW98996   1.035   9.045   8.008
65700SOL    HW198997   0.997   9.117   7.956
65700SOL    HW298998   1.056   8.978   7.944
65701SOL     OW98999   9.632   6.853   6.170
65701SOL    HW199000   9.606   6.837   6.260
65701SOL    HW299001   9.549   6.867   6.123
65702SOL     OW99002   0.688   4.260   0.930
65702SOL    HW199003   0.696   4.328   0.997
65702SOL    HW299004   0.681   4.178   0.980
65703SOL     OW99005   1.038   9.541   2.090
65703SOL    HW199006   1.076   9.590   2.163
65703SOL    HW299007   1.111   9.495   2.050
65704SOL     OW99008  14.683  10.739   2.056
65704SOL    HW199009  14.736  10.819   2.049
65704SOL    HW299010  14.738  10.678   2.105
65705SOL     OW99011   8.970   6.604   1.798
65705SOL    HW199012   8.920   6.670   1.847
65705SOL    HW299013   8.911   6.578   1.727
65706SOL     OW99014   6.109  13.877  14.704
65706SOL    HW199015   6.057  13.853  14.627
65706SOL    HW299016   6.166  13.948  14.673
65707SOL     OW99017  13.667  11.101   5.126
65707SOL    HW199018  13.665  11.179   5.182
65707SOL    HW299019  13.643  11.134   5.039
65708SOL     OW99020   9.332  14.277   1.959
65708SOL    HW199021   9.329  14.243   1.870
65708SOL    HW299022   9.374  14.207   2.009
65709SOL     OW99023   7.004  12.891  12.818
65709SOL    HW199024   7.055  12.823  12.773
65709SOL    HW299025   7.069  12.959  12.838
65710SOL     OW99026   3.009   0.205   2.731
65710SOL    HW199027   3.103   0.212   2.747
65710SOL    HW299028   2.988   0.113   2.745
65711SOL     OW99029  10.510  10.174   6.879
65711SOL    HW199030  10.518  10.186   6.974
65711SOL    HW299031  10.598  10.149   6.851
65712SOL     OW99032   5.638   6.357  11.139
65712SOL    HW199033   5.577   6.284  11.141
65712SOL    HW299034   5.692   6.342  11.061
65713SOL     OW99035   7.934   8.374   5.370
65713SOL    HW199036   8.027   8.355   5.382
65713SOL    HW299037   7.888   8.297   5.403
65714SOL     OW99038   6.557   5.624   2.881
65714SOL    HW199039   6.625   5.614   2.947
65714SOL    HW299040   6.599   5.672   2.809
65715SOL     OW99041  14.386  14.174  11.935
65715SOL    HW199042  14.373  14.251  11.991
65715SOL    HW299043  14.301  14.161  11.892
65716SOL     OW99044   7.789   1.096   5.350
65716SOL    HW199045   7.749   1.156   5.287
65716SOL    HW299046   7.735   1.017   5.346
65717SOL     OW99047   8.967  14.411   9.684
65717SOL    HW199048   8.942  14.364   9.763
65717SOL    HW299049   8.977  14.343   9.617
65718SOL     OW99050   6.641  10.883   4.539
65718SOL    HW199051   6.640  10.815   4.607
65718SOL    HW299052   6.549  10.907   4.528
65719SOL     OW99053   9.483   4.633   7.563
65719SOL    HW199054   9.499   4.712   7.614
65719SOL    HW299055   9.549   4.571   7.593
65720SOL     OW99056   4.984   1.210   7.583
65720SOL    HW199057   4.964   1.209   7.676
65720SOL    HW299058   5.064   1.157   7.575
65721SOL     OW99059  11.985   2.615   7.909
65721SOL    HW199060  11.954   2.693   7.956
65721SOL    HW299061  11.965   2.542   7.968
65722SOL     OW99062  13.718   9.396  10.352
65722SOL    HW199063  13.779   9.438  10.413
65722SOL    HW299064  13.635   9.442  10.366
65723SOL     OW99065   4.552  10.320  11.775
65723SOL    HW199066   4.518  10.341  11.688
65723SOL    HW299067   4.568  10.404  11.817
65724SOL     OW99068  14.372   4.748   2.940
65724SOL    HW199069  14.347   4.719   2.853
65724SOL    HW299070  14.375   4.668   2.993
65725SOL     OW99071  10.471   8.514   1.754
65725SOL    HW199072  10.404   8.507   1.686
65725SOL    HW299073  10.544   8.558   1.711
65726SOL     OW99074   0.106   5.577   1.303
65726SOL    HW199075   0.107   5.514   1.375
65726SOL    HW299076   0.013   5.590   1.284
65727SOL     OW99077  13.146  11.523  12.034
65727SOL    HW199078  13.053  11.542  12.021
65727SOL    HW299079  13.181  11.604  12.072
65728SOL     OW99080   2.579   0.334   4.544
65728SOL    HW199081   2.487   0.311   4.558
65728SOL    HW299082   2.628   0.265   4.589
65729SOL     OW99083  11.937   1.287  12.953
65729SOL    HW199084  11.859   1.317  12.999
65729SOL    HW299085  11.935   1.336  12.870
65730SOL     OW99086   0.978   2.229   0.091
65730SOL    HW199087   0.905   2.238   0.030
65730SOL    HW299088   1.028   2.310   0.082
65731SOL     OW99089  14.085   3.795   8.531
65731SOL    HW199090  14.030   3.809   8.608
65731SOL    HW299091  14.149   3.866   8.534
65732SOL     OW99092   9.955   5.168  11.621
65732SOL    HW199093   9.871   5.214  11.619
65732SOL    HW299094   9.976   5.160  11.714
65733SOL     OW99095  12.894   4.358  12.139
65733SOL    HW199096  12.894   4.351  12.043
65733SOL    HW299097  12.819   4.307  12.167
65734SOL     OW99098   3.706   0.178  10.722
65734SOL    HW199099   3.645   0.151  10.653
65734SOL    HW299100   3.664   0.254  10.762
65735SOL     OW99101  12.384   1.007  11.191
65735SOL    HW199102  12.453   1.009  11.258
65735SOL    HW299103  12.387   1.095  11.152
65736SOL     OW99104   0.567   6.129   3.768
65736SOL    HW199105   0.660   6.147   3.756
65736SOL    HW299106   0.530   6.211   3.800
65737SOL     OW99107   1.720   8.262   7.426
65737SOL    HW199108   1.699   8.170   7.440
65737SOL    HW299109   1.647   8.309   7.465
65738SOL     OW99110   6.841   8.503   7.566
65738SOL    HW199111   6.925   8.466   7.539
65738SOL    HW299112   6.854   8.598   7.564
65739SOL     OW99113   0.313   0.514   9.420
65739SOL    HW199114   0.366   0.513   9.500
65739SOL    HW299115   0.347   0.441   9.369
65740SOL     OW99116  13.096   3.963   6.846
65740SOL    HW199117  13.079   4.055   6.827
65740SOL    HW299118  13.191   3.955   6.844
65741SOL     OW99119   1.277   3.054   2.248
65741SOL    HW199120   1.302   2.962   2.248
65741SOL    HW299121   1.318   3.091   2.169
65742SOL     OW99122   1.103   1.167   9.204
65742SOL    HW199123   1.050   1.150   9.126
65742SOL    HW299124   1.043   1.154   9.277
65743SOL     OW99125   2.973  14.095   1.129
65743SOL    HW199126   3.060  14.057   1.116
65743SOL    HW299127   2.972  14.173   1.073
65744SOL     OW99128   8.577   4.633  10.901
65744SOL    HW199129   8.509   4.623  10.968
65744SOL    HW299130   8.642   4.567  10.924
65745SOL     OW99131   1.518  10.252   7.747
65745SOL    HW199132   1.526  10.305   7.826
65745SOL    HW299133   1.493  10.165   7.779
65746SOL     OW99134   9.636   8.765   2.364
65746SOL    HW199135   9.670   8.701   2.426
65746SOL    HW299136   9.543   8.770   2.384
65747SOL     OW99137   4.415  11.278   3.195
65747SOL    HW199138   4.410  11.225   3.115
65747SOL    HW299139   4.329  11.320   3.200
65748SOL     OW99140   5.370   3.838  14.383
65748SOL    HW199141   5.326   3.786  14.451
65748SOL    HW299142   5.329   3.811  14.301
65749SOL     OW99143   3.002  13.919  13.767
65749SOL    HW199144   2.933  13.902  13.702
65749SOL    HW299145   2.956  13.923  13.850
65750SOL     OW99146   8.909  10.815   0.100
65750SOL    HW199147   8.862  10.816   0.016
65750SOL    HW299148   8.845  10.782   0.163
65751SOL     OW99149   0.321   0.441   2.041
65751SOL    HW199150   0.343   0.530   2.014
65751SOL    HW299151   0.402   0.391   2.028
65752SOL     OW99152   3.020  11.483   4.395
65752SOL    HW199153   2.953  11.445   4.451
65752SOL    HW299154   2.989  11.572   4.378
65753SOL     OW99155   0.973  10.075   3.927
65753SOL    HW199156   0.926  10.004   3.883
65753SOL    HW299157   0.911  10.148   3.929
65754SOL     OW99158   0.606   7.787  10.958
65754SOL    HW199159   0.660   7.865  10.943
65754SOL    HW299160   0.523   7.821  10.990
65755SOL     OW99161   4.756  13.163   8.357
65755SOL    HW199162   4.666  13.195   8.355
65755SOL    HW299163   4.753  13.081   8.307
65756SOL     OW99164   8.128   4.325   2.883
65756SOL    HW199165   8.053   4.384   2.885
65756SOL    HW299166   8.174   4.341   2.966
65757SOL     OW99167  11.444   1.322  10.550
65757SOL    HW199168  11.387   1.337  10.625
65757SOL    HW299169  11.455   1.227  10.547
65758SOL     OW99170   7.626   1.950   1.591
65758SOL    HW199171   7.705   1.932   1.641
65758SOL    HW299172   7.637   2.039   1.559
65759SOL     OW99173   9.289   7.916   6.618
65759SOL    HW199174   9.266   8.009   6.622
65759SOL    HW299175   9.329   7.897   6.703
65760SOL     OW99176  12.252   1.046   9.365
65760SOL    HW199177  12.281   1.126   9.320
65760SOL    HW299178  12.254   0.979   9.297
65761SOL     OW99179  10.042   7.528  13.861
65761SOL    HW199180  10.086   7.559  13.940
65761SOL    HW299181  10.100   7.553  13.790
65762SOL     OW99182   2.439   6.791  10.228
65762SOL    HW199183   2.392   6.873  10.245
65762SOL    HW299184   2.370   6.726  10.215
65763SOL     OW99185   5.788   4.096  12.145
65763SOL    HW199186   5.882   4.090  12.129
65763SOL    HW299187   5.777   4.179  12.192
65764SOL     OW99188  11.354   7.155   2.327
65764SOL    HW199189  11.345   7.062   2.305
65764SOL    HW299190  11.269   7.179   2.362
65765SOL     OW99191   3.581  14.423   2.976
65765SOL    HW199192   3.641  14.443   2.903
65765SOL    HW299193   3.639  14.406   3.050
65766SOL     OW99194   9.969   4.869   2.306
65766SOL    HW199195   9.890   4.909   2.343
65766SOL    HW299196  10.012   4.828   2.381
65767SOL     OW99197   6.490  13.040   9.764
65767SOL    HW199198   6.450  13.102   9.825
65767SOL    HW299199   6.525  12.971   9.820
65768SOL     OW99200  11.579   0.648   5.627
65768SOL    HW199201  11.485   0.626   5.630
65768SOL    HW299202  11.620   0.585   5.686
65769SOL     OW99203   6.995   7.225   5.524
65769SOL    HW199204   7.086   7.209   5.552
65769SOL    HW299205   6.947   7.147   5.553
65770SOL     OW99206   7.768   6.642   9.031
65770SOL    HW199207   7.848   6.591   9.044
65770SOL    HW299208   7.787   6.698   8.956
65771SOL     OW99209   0.985   4.875   6.828
65771SOL    HW199210   1.031   4.943   6.877
65771SOL    HW299211   0.955   4.813   6.894
65772SOL     OW99212   4.148   4.029   2.366
65772SOL    HW199213   4.204   3.956   2.392
65772SOL    HW299214   4.188   4.063   2.286
65773SOL     OW99215   0.559  14.825   7.191
65773SOL    HW199216   0.573   0.032   7.153
65773SOL    HW299217   0.526  14.843   7.280
65774SOL     OW99218   6.077   3.529   9.605
65774SOL    HW199219   6.048   3.530   9.514
65774SOL    HW299220   6.002   3.564   9.654
65775SOL     OW99221   4.483   2.439   5.784
65775SOL    HW199222   4.578   2.437   5.795
65775SOL    HW299223   4.461   2.353   5.746
65776SOL     OW99224  11.981   8.609   7.095
65776SOL    HW199225  11.914   8.541   7.104
65776SOL    HW299226  12.009   8.602   7.003
65777SOL     OW99227   8.797   2.596   7.836
65777SOL    HW199228   8.800   2.504   7.860
65777SOL    HW299229   8.715   2.629   7.873
65778SOL     OW99230   1.573  11.456   5.982
65778SOL    HW199231   1.501  11.396   5.997
65778SOL    HW299232   1.596  11.490   6.069
65779SOL     OW99233   0.140  14.090   7.354
65779SOL    HW199234   0.071  14.134   7.305
65779SOL    HW299235   0.218  14.099   7.300
65780SOL     OW99236   9.118  14.527  12.041
65780SOL    HW199237   9.110  14.503  11.949
65780SOL    HW299238   9.048  14.590  12.056
65781SOL     OW99239   8.376   8.635   4.354
65781SOL    HW199240   8.426   8.691   4.413
65781SOL    HW299241   8.292   8.681   4.344
65782SOL     OW99242   0.672   5.307   9.234
65782SOL    HW199243   0.711   5.236   9.284
65782SOL    HW299244   0.580   5.308   9.261
65783SOL     OW99245   8.369   2.526   3.353
65783SOL    HW199246   8.389   2.432   3.346
65783SOL    HW299247   8.279   2.534   3.322
65784SOL     OW99248  12.218   0.053  13.275
65784SOL    HW199249  12.154  14.864  13.291
65784SOL    HW299250  12.221   0.103  13.357
65785SOL     OW99251  11.719   9.605  12.626
65785SOL    HW199252  11.660   9.531  12.611
65785SOL    HW299253  11.692   9.641  12.710
65786SOL     OW99254  13.997  13.835   3.093
65786SOL    HW199255  14.087  13.812   3.068
65786SOL    HW299256  13.945  13.759   3.067
65787SOL     OW99257  10.288  12.071   3.156
65787SOL    HW199258  10.326  12.153   3.126
65787SOL    HW299259  10.260  12.026   3.077
65788SOL     OW99260   7.173   3.911   8.528
65788SOL    HW199261   7.132   3.956   8.453
65788SOL    HW299262   7.190   3.981   8.591
65789SOL     OW99263   1.068   6.669   2.821
65789SOL    HW199264   1.019   6.709   2.893
65789SOL    HW299265   1.015   6.686   2.743
65790SOL     OW99266   9.089   2.276   5.550
65790SOL    HW199267   9.068   2.290   5.458
65790SOL    HW299268   9.169   2.223   5.548
65791SOL     OW99269   6.978   9.246  10.455
65791SOL    HW199270   6.994   9.180  10.522
65791SOL    HW299271   7.058   9.249  10.403
65792SOL     OW99272   0.369   7.490   6.871
65792SOL    HW199273   0.394   7.575   6.907
65792SOL    HW299274   0.448   7.458   6.828
65793SOL     OW99275  12.350   9.567   7.578
65793SOL    HW199276  12.412   9.639   7.582
65793SOL    HW299277  12.363   9.520   7.660
65794SOL     OW99278   9.134   8.331  12.947
65794SOL    HW199279   9.174   8.245  12.953
65794SOL    HW299280   9.197   8.383  12.896
65795SOL     OW99281   6.062   9.448   3.101
65795SOL    HW199282   6.146   9.402   3.103
65795SOL    HW299283   6.030   9.436   3.011
65796SOL     OW99284  10.244   7.260   2.761
65796SOL    HW199285  10.271   7.286   2.849
65796SOL    HW299286  10.169   7.315   2.741
65797SOL     OW99287   1.249  10.741  10.002
65797SOL    HW199288   1.330  10.791  10.003
65797SOL    HW299289   1.232  10.719  10.094
65798SOL     OW99290  10.972  12.442  11.364
65798SOL    HW199291  10.961  12.348  11.378
65798SOL    HW299292  10.931  12.483  11.440
65799SOL     OW99293   1.745   3.003   0.543
65799SOL    HW199294   1.697   3.024   0.463
65799SOL    HW299295   1.835   2.987   0.513
65800SOL     OW99296   3.814   3.398   8.467
65800SOL    HW199297   3.898   3.442   8.481
65800SOL    HW299298   3.829   3.341   8.392
65801SOL     OW99299   7.427  11.780   9.824
65801SOL    HW199300   7.458  11.866   9.795
65801SOL    HW299301   7.469  11.767   9.909
65802SOL     OW99302  11.925   6.749  11.511
65802SOL    HW199303  11.932   6.721  11.602
65802SOL    HW299304  11.989   6.820  11.503
65803SOL     OW99305   4.601   8.289  12.350
65803SOL    HW199306   4.642   8.202  12.353
65803SOL    HW299307   4.590   8.307  12.257
65804SOL     OW99308  10.504  13.158   7.352
65804SOL    HW199309  10.440  13.156   7.281
65804SOL    HW299310  10.466  13.218   7.417
65805SOL     OW99311  13.900  10.772   1.026
65805SOL    HW199312  13.842  10.716   0.974
65805SOL    HW299313  13.858  10.778   1.111
65806SOL     OW99314   1.254   8.257   2.529
65806SOL    HW199315   1.332   8.313   2.530
65806SOL    HW299316   1.191   8.304   2.475
65807SOL     OW99317  10.537   8.343  11.628
65807SOL    HW199318  10.445   8.369  11.630
65807SOL    HW299319  10.583   8.419  11.592
65808SOL     OW99320   3.267   0.615  13.977
65808SOL    HW199321   3.227   0.578  13.898
65808SOL    HW299322   3.361   0.605  13.964
65809SOL     OW99323  11.718   2.137  12.282
65809SOL    HW199324  11.749   2.105  12.367
65809SOL    HW299325  11.627   2.108  12.278
65810SOL     OW99326   4.040   4.652   8.869
65810SOL    HW199327   3.988   4.649   8.789
65810SOL    HW299328   4.091   4.570   8.868
65811SOL     OW99329   8.927  12.235   0.761
65811SOL    HW199330   8.949  12.325   0.785
65811SOL    HW299331   8.891  12.196   0.841
65812SOL     OW99332   5.170  14.373   1.207
65812SOL    HW199333   5.230  14.402   1.138
65812SOL    HW299334   5.131  14.292   1.172
65813SOL     OW99335  13.737   5.867   8.170
65813SOL    HW199336  13.647   5.862   8.139
65813SOL    HW299337  13.788   5.893   8.093
65814SOL     OW99338   6.259   3.564  12.796
65814SOL    HW199339   6.301   3.489  12.838
65814SOL    HW299340   6.326   3.599  12.738
65815SOL     OW99341   2.046   4.379   5.256
65815SOL    HW199342   1.993   4.432   5.315
65815SOL    HW299343   2.090   4.442   5.200
65816SOL     OW99344   1.796   5.606   4.881
65816SOL    HW199345   1.706   5.617   4.850
65816SOL    HW299346   1.850   5.636   4.809
65817SOL     OW99347  13.696   1.895   6.863
65817SOL    HW199348  13.652   1.831   6.920
65817SOL    HW299349  13.738   1.842   6.796
65818SOL     OW99350   4.134   8.358   9.012
65818SOL    HW199351   4.196   8.418   8.969
65818SOL    HW299352   4.186   8.280   9.030
65819SOL     OW99353  12.150  12.717   4.351
65819SOL    HW199354  12.073  12.774   4.351
65819SOL    HW299355  12.117  12.632   4.381
65820SOL     OW99356   0.426   6.670   1.144
65820SOL    HW199357   0.429   6.667   1.240
65820SOL    HW299358   0.336   6.695   1.124
65821SOL     OW99359  13.688  11.772  12.224
65821SOL    HW199360  13.637  11.719  12.285
65821SOL    HW299361  13.711  11.851  12.274
65822SOL     OW99362   2.403  13.081   4.167
65822SOL    HW199363   2.431  13.157   4.117
65822SOL    HW299364   2.393  13.114   4.257
65823SOL     OW99365   8.000   5.853   9.616
65823SOL    HW199366   8.022   5.946   9.629
65823SOL    HW299367   7.905   5.849   9.623
65824SOL     OW99368   5.397   5.899   9.624
65824SOL    HW199369   5.448   5.940   9.693
65824SOL    HW299370   5.452   5.905   9.546
65825SOL     OW99371   2.222  10.770   0.377
65825SOL    HW199372   2.305  10.813   0.355
65825SOL    HW299373   2.155  10.835   0.357
65826SOL     OW99374   6.990   5.410   2.103
65826SOL    HW199375   7.006   5.457   2.021
65826SOL    HW299376   7.023   5.468   2.171
65827SOL     OW99377  12.944   8.193   5.299
65827SOL    HW199378  12.852   8.177   5.318
65827SOL    HW299379  12.953   8.178   5.205
65828SOL     OW99380   9.405   8.145   4.640
65828SOL    HW199381   9.419   8.060   4.682
65828SOL    HW299382   9.481   8.197   4.665
65829SOL     OW99383  10.100   3.110   9.292
65829SOL    HW199384  10.155   3.035   9.318
65829SOL    HW299385  10.013   3.089   9.325
65830SOL     OW99386   5.735  12.797   2.886
65830SOL    HW199387   5.797  12.760   2.822
65830SOL    HW299388   5.791  12.832   2.955
65831SOL     OW99389   5.459   2.215   5.422
65831SOL    HW199390   5.377   2.255   5.394
65831SOL    HW299391   5.433   2.136   5.469
65832SOL     OW99392  14.079   6.262  14.047
65832SOL    HW199393  14.026   6.184  14.035
65832SOL    HW299394  14.029   6.316  14.108
65833SOL     OW99395   0.872   8.482   6.651
65833SOL    HW199396   0.784   8.512   6.671
65833SOL    HW299397   0.863   8.431   6.571
65834SOL     OW99398  10.234   0.817   8.203
65834SOL    HW199399  10.278   0.767   8.272
65834SOL    HW299400  10.221   0.755   8.132
65835SOL     OW99401  13.861  14.522   9.250
65835SOL    HW199402  13.833  14.448   9.303
65835SOL    HW299403  13.943  14.493   9.209
65836SOL     OW99404  10.272   7.499  12.353
65836SOL    HW199405  10.281   7.493  12.258
65836SOL    HW299406  10.309   7.584  12.376
65837SOL     OW99407   7.265   1.074  10.728
65837SOL    HW199408   7.335   1.009  10.736
65837SOL    HW299409   7.262   1.116  10.814
65838SOL     OW99410   3.015  11.586   2.461
65838SOL    HW199411   3.107  11.558   2.467
65838SOL    HW299412   3.017  11.680   2.481
65839SOL     OW99413   6.439  12.569   7.908
65839SOL    HW199414   6.442  12.651   7.956
65839SOL    HW299415   6.460  12.502   7.974
65840SOL     OW99416   6.347   7.869  12.832
65840SOL    HW199417   6.424   7.908  12.791
65840SOL    HW299418   6.346   7.906  12.921
65841SOL     OW99419   5.484   4.790  14.861
65841SOL    HW199420   5.516   4.756  14.778
65841SOL    HW299421   5.506   4.722   0.045
65842SOL     OW99422  11.810  11.296  10.353
65842SOL    HW199423  11.823  11.308  10.259
65842SOL    HW299424  11.896  11.268  10.386
65843SOL     OW99425  13.234   1.335  14.320
65843SOL    HW199426  13.225   1.242  14.339
65843SOL    HW299427  13.252   1.339  14.226
65844SOL     OW99428   3.244   2.346  12.294
65844SOL    HW199429   3.163   2.397  12.299
65844SOL    HW299430   3.296   2.390  12.228
65845SOL     OW99431   2.876   7.576   0.190
65845SOL    HW199432   2.841   7.512   0.127
65845SOL    HW299433   2.920   7.641   0.135
65846SOL     OW99434  12.067   7.491  12.850
65846SOL    HW199435  12.136   7.541  12.893
65846SOL    HW299436  12.077   7.512  12.757
65847SOL     OW99437  13.496  13.101   3.289
65847SOL    HW199438  13.410  13.139   3.304
65847SOL    HW299439  13.528  13.078   3.376
65848SOL     OW99440   9.684   2.561  10.377
65848SOL    HW199441   9.631   2.641  10.378
65848SOL    HW299442   9.766   2.586  10.418
65849SOL     OW99443   1.575   0.019  13.356
65849SOL    HW199444   1.669   0.034  13.368
65849SOL    HW299445   1.535   0.104  13.374
65850SOL     OW99446  13.321   2.158   2.344
65850SOL    HW199447  13.346   2.151   2.252
65850SOL    HW299448  13.315   2.252   2.360
65851SOL     OW99449  10.256   3.713   5.991
65851SOL    HW199450  10.188   3.749   6.048
65851SOL    HW299451  10.219   3.630   5.960
65852SOL     OW99452   3.275   3.129   1.698
65852SOL    HW199453   3.295   3.182   1.621
65852SOL    HW299454   3.218   3.059   1.665
65853SOL     OW99455   2.551   8.171   1.135
65853SOL    HW199456   2.556   8.239   1.202
65853SOL    HW299457   2.531   8.091   1.184
65854SOL     OW99458   0.343   8.361   6.824
65854SOL    HW199459   0.291   8.291   6.784
65854SOL    HW299460   0.287   8.395   6.894
65855SOL     OW99461  13.744  14.865   1.503
65855SOL    HW199462  13.768   0.070   1.539
65855SOL    HW299463  13.688  14.825   1.570
65856SOL     OW99464  13.175  13.938   9.408
65856SOL    HW199465  13.084  13.953   9.433
65856SOL    HW299466  13.219  13.918   9.491
65857SOL     OW99467   1.093   5.680   2.452
65857SOL    HW199468   1.092   5.698   2.546
65857SOL    HW299469   1.126   5.760   2.413
65858SOL     OW99470   0.075   2.318  11.958
65858SOL    HW199471   0.028   2.243  11.995
65858SOL    HW299472   0.033   2.333  11.873
65859SOL     OW99473   4.640  14.544   3.310
65859SOL    HW199474   4.676  14.457   3.326
65859SOL    HW299475   4.632  14.550   3.215
65860SOL     OW99476  11.712   8.543   4.721
65860SOL    HW199477  11.752   8.484   4.786
65860SOL    HW299478  11.627   8.565   4.759
65861SOL     OW99479   6.249   6.090   5.487
65861SOL    HW199480   6.235   6.168   5.433
65861SOL    HW299481   6.161   6.053   5.499
65862SOL     OW99482   2.906   0.800  11.308
65862SOL    HW199483   2.993   0.816  11.273
65862SOL    HW299484   2.921   0.775  11.399
65863SOL     OW99485   8.738   1.906   2.163
65863SOL    HW199486   8.826   1.918   2.127
65863SOL    HW299487   8.695   1.991   2.153
65864SOL     OW99488  12.104  12.427   5.626
65864SOL    HW199489  12.119  12.444   5.533
65864SOL    HW299490  12.097  12.514   5.665
65865SOL     OW99491   1.265   7.865   7.249
65865SOL    HW199492   1.245   7.812   7.326
65865SOL    HW299493   1.184   7.912   7.230
65866SOL     OW99494   1.750   2.076   2.687
65866SOL    HW199495   1.783   2.113   2.605
65866SOL    HW299496   1.752   2.150   2.749
65867SOL     OW99497  11.878   4.809  11.589
65867SOL    HW199498  11.968   4.800  11.557
65867SOL    HW299499  11.882   4.882  11.651
65868SOL     OW99500  11.426  13.312   6.729
65868SOL    HW199501  11.408  13.221   6.704
65868SOL    HW299502  11.451  13.307   6.821
65869SOL     OW99503   0.870   8.475  10.296
65869SOL    HW199504   0.831   8.416  10.360
65869SOL    HW299505   0.949   8.509  10.339
65870SOL     OW99506  11.969   7.958   1.197
65870SOL    HW199507  11.934   7.994   1.115
65870SOL    HW299508  12.013   7.877   1.171
65871SOL     OW99509  12.248   9.538   6.049
65871SOL    HW199510  12.208   9.454   6.025
65871SOL    HW299511  12.246   9.590   5.969
65872SOL     OW99512  13.903   1.583  13.930
65872SOL    HW199513  13.840   1.583  13.858
65872SOL    HW299514  13.969   1.519  13.904
65873SOL     OW99515   4.160  12.437  14.009
65873SOL    HW199516   4.184  12.384  13.934
65873SOL    HW299517   4.082  12.485  13.981
65874SOL     OW99518   0.068  14.594   5.970
65874SOL    HW199519   0.122  14.581   5.892
65874SOL    HW299520  14.862  14.557   5.947
65875SOL     OW99521   0.491   7.172  10.350
65875SOL    HW199522   0.587   7.178  10.351
65875SOL    HW299523   0.474   7.078  10.363
65876SOL     OW99524   3.384   1.538   0.086
65876SOL    HW199525   3.299   1.556   0.044
65876SOL    HW299526   3.434   1.492   0.018
65877SOL     OW99527   7.657  10.724  13.564
65877SOL    HW199528   7.652  10.686  13.652
65877SOL    HW299529   7.566  10.742  13.540
65878SOL     OW99530   2.071   9.579  14.287
65878SOL    HW199531   2.053   9.673  14.298
65878SOL    HW299532   2.036   9.558  14.201
65879SOL     OW99533   1.968   8.767   6.187
65879SOL    HW199534   1.980   8.672   6.189
65879SOL    HW299535   1.970   8.793   6.279
65880SOL     OW99536   0.150   0.541   0.679
65880SOL    HW199537   0.217   0.527   0.746
65880SOL    HW299538   0.082   0.592   0.724
65881SOL     OW99539  10.454   2.572   1.886
65881SOL    HW199540  10.373   2.542   1.845
65881SOL    HW299541  10.447   2.668   1.885
65882SOL     OW99542   2.735  12.029   7.973
65882SOL    HW199543   2.711  12.056   7.885
65882SOL    HW299544   2.759  12.110   8.018
65883SOL     OW99545  13.311  11.023   7.154
65883SOL    HW199546  13.223  11.060   7.152
65883SOL    HW299547  13.306  10.951   7.217
65884SOL     OW99548  11.792   6.941   3.606
65884SOL    HW199549  11.728   6.907   3.544
65884SOL    HW299550  11.785   7.036   3.599
65885SOL     OW99551   6.663  10.900  10.785
65885SOL    HW199552   6.705  10.901  10.871
65885SOL    HW299553   6.704  10.827  10.739
65886SOL     OW99554   8.735   7.499  10.814
65886SOL    HW199555   8.641   7.485  10.802
65886SOL    HW299556   8.776   7.435  10.756
65887SOL     OW99557  14.859   9.544   8.708
65887SOL    HW199558  14.855   9.570   8.616
65887SOL    HW299559   0.021   9.458   8.707
65888SOL     OW99560   2.590   2.545   5.521
65888SOL    HW199561   2.666   2.603   5.524
65888SOL    HW299562   2.605   2.482   5.592
65889SOL     OW99563   2.685   8.561   3.106
65889SOL    HW199564   2.637   8.486   3.072
65889SOL    HW299565   2.777   8.538   3.097
65890SOL     OW99566   3.359   6.511   5.599
65890SOL    HW199567   3.273   6.539   5.633
65890SOL    HW299568   3.393   6.453   5.666
65891SOL     OW99569   4.156  10.810   9.971
65891SOL    HW199570   4.244  10.843   9.990
65891SOL    HW299571   4.142  10.829   9.878
65892SOL     OW99572   6.633  11.981   5.296
65892SOL    HW199573   6.702  12.043   5.273
65892SOL    HW299574   6.608  11.941   5.212
65893SOL     OW99575   5.136  10.846   6.435
65893SOL    HW199576   5.213  10.789   6.431
65893SOL    HW299577   5.077  10.813   6.367
65894SOL     OW99578   4.739   0.012   5.094
65894SOL    HW199579   4.646   0.035   5.094
65894SOL    HW299580   4.752  14.845   5.177
65895SOL     OW99581  14.282   2.225   7.066
65895SOL    HW199582  14.187   2.236   7.075
65895SOL    HW299583  14.304   2.276   6.988
65896SOL     OW99584   9.082   0.659   9.656
65896SOL    HW199585   9.045   0.707   9.581
65896SOL    HW299586   9.037   0.696   9.732
65897SOL     OW99587  11.417   1.028  11.488
65897SOL    HW199588  11.495   0.994  11.444
65897SOL    HW299589  11.451   1.090  11.553
65898SOL     OW99590   4.602   1.025   8.701
65898SOL    HW199591   4.541   1.081   8.749
65898SOL    HW299592   4.565   1.019   8.613
65899SOL     OW99593   1.789  13.357  14.807
65899SOL    HW199594   1.784  13.343  14.712
65899SOL    HW299595   1.806  13.451  14.817
65900SOL     OW99596   5.575   5.883  12.817
65900SOL    HW199597   5.525   5.952  12.772
65900SOL    HW299598   5.513   5.810  12.824
65901SOL     OW99599   1.828   9.355  14.335
65901SOL    HW199600   1.815   9.260  14.332
65901SOL    HW299601   1.901   9.367  14.397
65902SOL     OW99602   1.434  13.290  10.063
65902SOL    HW199603   1.396  13.273   9.977
65902SOL    HW299604   1.377  13.356  10.102
65903SOL     OW99605   5.445   1.873   0.022
65903SOL    HW199606   5.444   1.966   0.044
65903SOL    HW299607   5.359   1.856  14.863
65904SOL     OW99608  10.361   6.856  12.829
65904SOL    HW199609  10.329   6.771  12.797
65904SOL    HW299610  10.345   6.917  12.757
65905SOL     OW99611   3.077  14.146   2.397
65905SOL    HW199612   3.028  14.218   2.437
65905SOL    HW299613   3.009  14.086   2.366
65906SOL     OW99614   3.332   5.576   0.264
65906SOL    HW199615   3.351   5.500   0.209
65906SOL    HW299616   3.334   5.542   0.353
65907SOL     OW99617   7.788   9.331   1.095
65907SOL    HW199618   7.875   9.292   1.083
65907SOL    HW299619   7.741   9.307   1.015
65908SOL     OW99620   7.736  10.675   2.786
65908SOL    HW199621   7.815  10.636   2.746
65908SOL    HW299622   7.759  10.683   2.878
65909SOL     OW99623  13.050   9.621   9.933
65909SOL    HW199624  12.965   9.628   9.890
65909SOL    HW299625  13.089   9.542   9.898
65910SOL     OW99626   1.013   8.069   7.569
65910SOL    HW199627   0.955   8.085   7.644
65910SOL    HW299628   1.044   8.156   7.545
65911SOL     OW99629  11.145  10.673   3.798
65911SOL    HW199630  11.088  10.659   3.874
65911SOL    HW299631  11.085  10.689   3.726
65912SOL     OW99632   1.943   4.939   2.572
65912SOL    HW199633   1.935   4.844   2.581
65912SOL    HW299634   1.853   4.970   2.562
65913SOL     OW99635   6.746   0.758   3.194
65913SOL    HW199636   6.763   0.667   3.172
65913SOL    HW299637   6.687   0.789   3.125
65914SOL     OW99638  14.688   5.558  11.619
65914SOL    HW199639  14.776   5.594  11.605
65914SOL    HW299640  14.700   5.491  11.686
65915SOL     OW99641   2.321   7.639  14.242
65915SOL    HW199642   2.387   7.670  14.304
65915SOL    HW299643   2.255   7.595  14.296
65916SOL     OW99644   6.399  14.529   6.363
65916SOL    HW199645   6.409  14.614   6.404
65916SOL    HW299646   6.384  14.468   6.436
65917SOL     OW99647  12.001   5.766   8.598
65917SOL    HW199648  12.002   5.680   8.641
65917SOL    HW299649  11.908   5.782   8.581
65918SOL     OW99650  13.913  12.272  10.159
65918SOL    HW199651  13.863  12.339  10.206
65918SOL    HW299652  13.879  12.274  10.070
65919SOL     OW99653  13.052   0.549   3.455
65919SOL    HW199654  13.025   0.584   3.540
65919SOL    HW299655  13.144   0.574   3.448
65920SOL     OW99656   4.117   0.186   2.567
65920SOL    HW199657   4.210   0.162   2.561
65920SOL    HW299658   4.090   0.197   2.476
65921SOL     OW99659  13.671   6.766   5.762
65921SOL    HW199660  13.715   6.723   5.836
65921SOL    HW299661  13.594   6.711   5.746
65922SOL     OW99662   3.271  10.438   8.389
65922SOL    HW199663   3.261  10.434   8.484
65922SOL    HW299664   3.183  10.424   8.354
65923SOL     OW99665   8.775   2.747   0.147
65923SOL    HW199666   8.718   2.751   0.224
65923SOL    HW299667   8.715   2.752   0.073
65924SOL     OW99668   9.513  14.814  13.788
65924SOL    HW199669   9.573  14.742  13.771
65924SOL    HW299670   9.473  14.833  13.703
65925SOL     OW99671  14.808   2.006   9.238
65925SOL    HW199672  14.769   2.092   9.219
65925SOL    HW299673   0.003   2.000   9.179
65926SOL     OW99674   0.780   6.848   7.827
65926SOL    HW199675   0.811   6.773   7.776
65926SOL    HW299676   0.774   6.815   7.917
65927SOL     OW99677  14.172   5.970   7.257
65927SOL    HW199678  14.148   6.060   7.236
65927SOL    HW299679  14.254   5.977   7.306
65928SOL     OW99680  13.428  13.509   5.142
65928SOL    HW199681  13.345  13.483   5.102
65928SOL    HW299682  13.487  13.523   5.068
65929SOL     OW99683   5.803  11.495  14.633
65929SOL    HW199684   5.722  11.463  14.595
65929SOL    HW299685   5.858  11.417  14.642
65930SOL     OW99686   9.710  14.422  11.424
65930SOL    HW199687   9.751  14.336  11.413
65930SOL    HW299688   9.660  14.415  11.506
65931SOL     OW99689  10.594   7.562   8.231
65931SOL    HW199690  10.539   7.527   8.161
65931SOL    HW299691  10.568   7.654   8.238
65932SOL     OW99692  12.586  11.656  12.053
65932SOL    HW199693  12.593  11.607  11.971
65932SOL    HW299694  12.628  11.740  12.035
65933SOL     OW99695   0.315   2.873   4.203
65933SOL    HW199696   0.289   2.808   4.269
65933SOL    HW299697   0.241   2.876   4.142
65934SOL     OW99698   5.238  12.637   0.659
65934SOL    HW199699   5.294  12.690   0.602
65934SOL    HW299700   5.175  12.700   0.695
65935SOL     OW99701   0.898   7.000  14.420
65935SOL    HW199702   0.918   6.947  14.342
65935SOL    HW299703   0.825   7.055  14.392
65936SOL     OW99704   6.176  10.308   4.330
65936SOL    HW199705   6.132  10.385   4.293
65936SOL    HW299706   6.104  10.253   4.361
65937SOL     OW99707   3.524   1.161   7.345
65937SOL    HW199708   3.557   1.119   7.265
65937SOL    HW299709   3.492   1.247   7.316
65938SOL     OW99710  14.041   9.924   4.946
65938SOL    HW199711  14.014   9.833   4.957
65938SOL    HW299712  14.041   9.960   5.034
65939SOL     OW99713  12.906   8.688  11.913
65939SOL    HW199714  12.935   8.734  11.992
65939SOL    HW299715  12.959   8.724  11.842
65940SOL     OW99716   6.245   2.267  13.757
65940SOL    HW199717   6.231   2.203  13.826
65940SOL    HW299718   6.310   2.327  13.792
65941SOL     OW99719   4.235  11.619   3.747
65941SOL    HW199720   4.232  11.532   3.787
65941SOL    HW299721   4.156  11.663   3.777
65942SOL     OW99722  10.448   5.216  11.631
65942SOL    HW199723  10.370   5.242  11.581
65942SOL    HW299724  10.515   5.280  11.605
65943SOL     OW99725  14.629  12.717  13.635
65943SOL    HW199726  14.642  12.797  13.584
65943SOL    HW299727  14.651  12.647  13.575
65944SOL     OW99728   6.148   6.474   7.002
65944SOL    HW199729   6.196   6.496   7.082
65944SOL    HW299730   6.187   6.530   6.935
65945SOL     OW99731   9.558  13.249  10.281
65945SOL    HW199732   9.497  13.176  10.292
65945SOL    HW299733   9.638  13.209  10.247
65946SOL     OW99734   1.817   5.932   8.435
65946SOL    HW199735   1.867   5.979   8.369
65946SOL    HW299736   1.865   5.946   8.516
65947SOL     OW99737   4.066   2.130   4.018
65947SOL    HW199738   4.124   2.201   4.045
65947SOL    HW299739   4.097   2.106   3.931
65948SOL     OW99740   0.025  10.839   7.442
65948SOL    HW199741   0.062  10.861   7.527
65948SOL    HW299742   0.079  10.768   7.409
65949SOL     OW99743   2.025   5.494   0.786
65949SOL    HW199744   2.027   5.529   0.875
65949SOL    HW299745   1.945   5.530   0.747
65950SOL     OW99746   5.790   7.608  12.815
65950SOL    HW199747   5.703   7.645  12.828
65950SOL    HW299748   5.796   7.595  12.720
65951SOL     OW99749  13.998  10.498   2.533
65951SOL    HW199750  13.972  10.525   2.621
65951SOL    HW299751  13.931  10.435   2.507
65952SOL     OW99752   6.708   3.133   0.142
65952SOL    HW199753   6.769   3.132   0.068
65952SOL    HW299754   6.705   3.042   0.172
65953SOL     OW99755   3.621   5.876   2.500
65953SOL    HW199756   3.623   5.784   2.527
65953SOL    HW299757   3.713   5.899   2.487
65954SOL     OW99758  12.161   6.334   6.835
65954SOL    HW199759  12.176   6.241   6.851
65954SOL    HW299760  12.068   6.347   6.853
65955SOL     OW99761  12.984  10.194   1.164
65955SOL    HW199762  12.982  10.273   1.109
65955SOL    HW299763  12.915  10.210   1.229
65956SOL     OW99764   0.832   5.837   8.109
65956SOL    HW199765   0.849   5.755   8.154
65956SOL    HW299766   0.897   5.898   8.145
65957SOL     OW99767   2.116   2.875   9.390
65957SOL    HW199768   2.026   2.897   9.415
65957SOL    HW299769   2.134   2.932   9.315
65958SOL     OW99770  12.986   5.688   7.438
65958SOL    HW199771  13.004   5.763   7.381
65958SOL    HW299772  13.073   5.660   7.468
65959SOL     OW99773   3.842   3.231   9.370
65959SOL    HW199774   3.748   3.226   9.387
65959SOL    HW299775   3.849   3.275   9.286
65960SOL     OW99776  13.492   0.885   3.900
65960SOL    HW199777  13.508   0.822   3.830
65960SOL    HW299778  13.420   0.848   3.950
65961SOL     OW99779   1.907   2.864   6.372
65961SOL    HW199780   1.979   2.912   6.331
65961SOL    HW299781   1.829   2.896   6.328
65962SOL     OW99782   4.532   6.048  13.082
65962SOL    HW199783   4.455   6.031  13.137
65962SOL    HW299784   4.595   5.981  13.108
65963SOL     OW99785   7.151   6.933   2.949
65963SOL    HW199786   7.108   7.017   2.966
65963SOL    HW299787   7.121   6.877   3.020
65964SOL     OW99788  11.032   1.046   5.822
65964SOL    HW199789  11.120   1.055   5.787
65964SOL    HW299790  11.024   1.116   5.886
65965SOL     OW99791   8.184  14.103  11.143
65965SOL    HW199792   8.209  14.191  11.170
65965SOL    HW299793   8.258  14.048  11.167
65966SOL     OW99794   9.641   8.591   0.303
65966SOL    HW199795   9.579   8.532   0.261
65966SOL    HW299796   9.671   8.544   0.381
65967SOL     OW99797   6.570  10.638   6.413
65967SOL    HW199798   6.583  10.545   6.431
65967SOL    HW299799   6.640  10.682   6.461
65968SOL     OW99800   1.599   1.472   5.045
65968SOL    HW199801   1.689   1.444   5.060
65968SOL    HW299802   1.607   1.563   5.016
65969SOL     OW99803   6.122   6.453  11.337
65969SOL    HW199804   6.175   6.490  11.407
65969SOL    HW299805   6.035   6.444  11.375
65970SOL     OW99806   9.656  10.842   0.328
65970SOL    HW199807   9.636  10.905   0.397
65970SOL    HW299808   9.571  10.821   0.290
65971SOL     OW99809   3.462   5.359  10.037
65971SOL    HW199810   3.401   5.414   9.988
65971SOL    HW299811   3.496   5.297   9.972
65972SOL     OW99812   9.116  10.442   0.540
65972SOL    HW199813   9.150  10.433   0.629
65972SOL    HW299814   9.115  10.352   0.506
65973SOL     OW99815  10.201   5.800   9.331
65973SOL    HW199816  10.240   5.823   9.416
65973SOL    HW299817  10.276   5.779   9.275
65974SOL     OW99818   2.155   5.060   1.953
65974SOL    HW199819   2.240   5.016   1.946
65974SOL    HW299820   2.121   5.033   2.038
65975SOL     OW99821   4.116   3.969   4.791
65975SOL    HW199822   4.128   4.029   4.864
65975SOL    HW299823   4.067   4.018   4.726
65976SOL     OW99824   8.786   6.833  10.950
65976SOL    HW199825   8.823   6.803  11.033
65976SOL    HW299826   8.765   6.925  10.966
65977SOL     OW99827   7.213  14.856   1.751
65977SOL    HW199828   7.160  14.794   1.801
65977SOL    HW299829   7.301  14.846   1.787
65978SOL     OW99830  11.807   3.323   8.013
65978SOL    HW199831  11.738   3.305   7.948
65978SOL    HW299832  11.777   3.403   8.057
65979SOL     OW99833   0.507   9.371  13.454
65979SOL    HW199834   0.516   9.453  13.503
65979SOL    HW299835   0.417   9.371  13.424
65980SOL     OW99836   2.854  12.441   5.891
65980SOL    HW199837   2.899  12.500   5.830
65980SOL    HW299838   2.920  12.376   5.915
65981SOL     OW99839   9.160   9.021   4.856
65981SOL    HW199840   9.175   9.084   4.785
65981SOL    HW299841   9.231   8.957   4.846
65982SOL     OW99842  12.213   4.469  14.387
65982SOL    HW199843  12.298   4.480  14.344
65982SOL    HW299844  12.148   4.488  14.319
65983SOL     OW99845   5.495   6.183  10.120
65983SOL    HW199846   5.509   6.228  10.037
65983SOL    HW299847   5.532   6.096  10.107
65984SOL     OW99848  12.104  12.703   4.947
65984SOL    HW199849  12.086  12.714   4.854
65984SOL    HW299850  12.084  12.789   4.986
65985SOL     OW99851   3.694  14.789  12.499
65985SOL    HW199852   3.660  14.750  12.580
65985SOL    HW299853   3.672   0.002  12.506
65986SOL     OW99854  12.440  14.212  14.401
65986SOL    HW199855  12.370  14.266  14.363
65986SOL    HW299856  12.504  14.203  14.330
65987SOL     OW99857   0.300   0.183  11.944
65987SOL    HW199858   0.348   0.180  11.861
65987SOL    HW299859   0.258   0.097  11.950
65988SOL     OW99860  10.846   8.931   8.683
65988SOL    HW199861  10.871   9.021   8.662
65988SOL    HW299862  10.911   8.877   8.638
65989SOL     OW99863  14.547   1.543  13.656
65989SOL    HW199864  14.637   1.526  13.682
65989SOL    HW299865  14.551   1.626  13.608
65990SOL     OW99866   8.080   6.130   9.582
65990SOL    HW199867   7.987   6.146   9.590
65990SOL    HW299868   8.118   6.169   9.661
65991SOL     OW99869   5.242   9.212   3.614
65991SOL    HW199870   5.264   9.239   3.703
65991SOL    HW299871   5.326   9.202   3.570
65992SOL     OW99872  13.896   1.627   4.510
65992SOL    HW199873  13.934   1.643   4.424
65992SOL    HW299874  13.814   1.677   4.510
65993SOL     OW99875   5.963   5.115   7.272
65993SOL    HW199876   5.912   5.034   7.262
65993SOL    HW299877   5.955   5.159   7.187
65994SOL     OW99878   4.846   6.916  13.315
65994SOL    HW199879   4.837   6.975  13.240
65994SOL    HW299880   4.828   6.829  13.279
65995SOL     OW99881   2.556   9.523  13.451
65995SOL    HW199882   2.530   9.589  13.386
65995SOL    HW299883   2.553   9.570  13.535
65996SOL     OW99884   8.391   5.201   1.825
65996SOL    HW199885   8.312   5.149   1.841
65996SOL    HW299886   8.450   5.142   1.779
65997SOL     OW99887   0.480   9.575   6.515
65997SOL    HW199888   0.506   9.505   6.455
65997SOL    HW299889   0.541   9.568   6.588
65998SOL     OW99890   5.174  13.808   4.717
65998SOL    HW199891   5.090  13.766   4.734
65998SOL    HW299892   5.186  13.800   4.622
65999SOL     OW99893  11.645   5.475   6.270
65999SOL    HW199894  11.566   5.424   6.250
65999SOL    HW299895  11.611   5.554   6.314
66000SOL     OW99896  12.487   7.921  14.143
66000SOL    HW199897  12.403   7.965  14.154
66000SOL    HW299898  12.552   7.988  14.166
66001SOL     OW99899   7.404   3.156   7.183
66001SOL    HW199900   7.336   3.212   7.146
66001SOL    HW299901   7.433   3.203   7.262
66002SOL     OW99902   5.622   5.596   2.022
66002SOL    HW199903   5.657   5.665   2.079
66002SOL    HW299904   5.616   5.519   2.078
66003SOL     OW99905   1.298   5.961   5.956
66003SOL    HW199906   1.245   5.905   5.899
66003SOL    HW299907   1.243   6.038   5.972
66004SOL     OW99908   8.661   6.892   7.450
66004SOL    HW199909   8.586   6.920   7.503
66004SOL    HW299910   8.662   6.954   7.377
66005SOL     OW99911   7.187   6.000   9.083
66005SOL    HW199912   7.277   5.972   9.067
66005SOL    HW299913   7.134   5.923   9.066
66006SOL     OW99914   0.738   2.935  13.098
66006SOL    HW199915   0.769   2.893  13.178
66006SOL    HW299916   0.704   2.862  13.045
66007SOL     OW99917   6.731   1.989   4.482
66007SOL    HW199918   6.719   2.084   4.490
66007SOL    HW299919   6.654   1.959   4.433
66008SOL     OW99920  10.917  12.422   7.309
66008SOL    HW199921  10.869  12.398   7.230
66008SOL    HW299922  11.008  12.401   7.289
66009SOL     OW99923   8.549   5.406   2.525
66009SOL    HW199924   8.642   5.392   2.508
66009SOL    HW299925   8.507   5.328   2.489
66010SOL     OW99926   6.742   9.787   5.549
66010SOL    HW199927   6.836   9.773   5.559
66010SOL    HW299928   6.706   9.774   5.637
66011SOL     OW99929   2.597   2.626  14.861
66011SOL    HW199930   2.598   2.722  14.868
66011SOL    HW299931   2.605   2.595   0.071
66012SOL     OW99932   1.867   5.036  13.670
66012SOL    HW199933   1.946   5.088  13.657
66012SOL    HW299934   1.804   5.072  13.607
66013SOL     OW99935   8.508  10.136   8.880
66013SOL    HW199936   8.434  10.155   8.822
66013SOL    HW299937   8.531  10.045   8.861
66014SOL     OW99938   3.905   7.349   8.299
66014SOL    HW199939   3.813   7.326   8.296
66014SOL    HW299940   3.943   7.290   8.365
66015SOL     OW99941  13.138  14.467   1.077
66015SOL    HW199942  13.048  14.434   1.083
66015SOL    HW299943  13.133  14.556   1.113
66016SOL     OW99944   9.083  10.528   5.360
66016SOL    HW199945   9.046  10.478   5.433
66016SOL    HW299946   9.046  10.488   5.282
66017SOL     OW99947   4.614  10.889  14.066
66017SOL    HW199948   4.536  10.850  14.105
66017SOL    HW299949   4.686  10.857  14.120
66018SOL     OW99950   2.832  13.107   3.962
66018SOL    HW199951   2.919  13.098   4.000
66018SOL    HW299952   2.842  13.176   3.896
66019SOL     OW99953   8.513   9.711   0.186
66019SOL    HW199954   8.532   9.620   0.164
66019SOL    HW299955   8.420   9.722   0.163
66020SOL     OW99956   4.809   9.781   2.915
66020SOL    HW199957   4.814   9.703   2.970
66020SOL    HW299958   4.874   9.841   2.952
66021SOL     OW99959   1.829  12.381   5.105
66021SOL    HW199960   1.839  12.288   5.124
66021SOL    HW299961   1.839  12.424   5.190
66022SOL     OW99962  13.890   2.380  11.623
66022SOL    HW199963  13.858   2.386  11.532
66022SOL    HW299964  13.863   2.293  11.651
66023SOL     OW99965   5.291   9.255   5.551
66023SOL    HW199966   5.197   9.265   5.536
66023SOL    HW299967   5.331   9.282   5.468
66024SOL     OW99968  12.547   0.356  12.919
66024SOL    HW199969  12.488   0.319  12.985
66024SOL    HW299970  12.556   0.448  12.943
66025SOL     OW99971  12.684   7.843  14.766
66025SOL    HW199972  12.718   7.773  14.822
66025SOL    HW299973  12.639   7.903  14.825
66026SOL     OW99974   9.631   6.841   5.562
66026SOL    HW199975   9.660   6.906   5.498
66026SOL    HW299976   9.535   6.847   5.560
66027SOL     OW99977  11.310  12.237  10.752
66027SOL    HW199978  11.300  12.331  10.742
66027SOL    HW299979  11.318  12.224  10.847
66028SOL     OW99980   4.027   1.548   9.828
66028SOL    HW199981   4.108   1.595   9.808
66028SOL    HW299982   4.056   1.466   9.868
66029SOL     OW99983  10.887   5.715   9.961
66029SOL    HW199984  10.796   5.734   9.939
66029SOL    HW299985  10.891   5.620   9.970
66030SOL     OW99986   7.168   1.917   5.419
66030SOL    HW199987   7.099   1.983   5.414
66030SOL    HW299988   7.188   1.896   5.328
66031SOL     OW99989   2.584   5.461   4.933
66031SOL    HW199990   2.648   5.449   4.863
66031SOL    HW299991   2.635   5.454   5.014
66032SOL     OW99992   5.979  14.162   4.016
66032SOL    HW199993   5.889  14.131   4.004
66032SOL    HW299994   6.004  14.131   4.103
66033SOL     OW99995   0.062   2.019   0.129
66033SOL    HW199996   0.104   1.982   0.051
66033SOL    HW299997   0.135   2.039   0.188
66034SOL     OW99998   5.130   2.949   7.351
66034SOL    HW199999   5.187   2.876   7.326
66034SOL    HW2    0   5.182   2.999   7.414
66035SOL     OW    1   3.878  14.361  12.443
66035SOL    HW1    2   3.931  14.337  12.367
66035SOL    HW2    3   3.907  14.302  12.512
66036SOL     OW    4   9.217   6.813   9.845
66036SOL    HW1    5   9.275   6.879   9.807
66036SOL    HW2    6   9.262   6.784   9.925
66037SOL     OW    7   7.654   1.749   9.321
66037SOL    HW1    8   7.681   1.775   9.232
66037SOL    HW2    9   7.735   1.753   9.372
66038SOL     OW   10  10.191   8.974   5.941
66038SOL    HW1   11  10.223   8.898   5.989
66038SOL    HW2   12  10.104   8.992   5.978
66039SOL     OW   13   0.956   9.101  11.450
66039SOL    HW1   14   1.033   9.084  11.505
66039SOL    HW2   15   0.887   9.125  11.511
66040SOL     OW   16   6.129   3.004   9.577
66040SOL    HW1   17   6.071   2.929   9.587
66040SOL    HW2   18   6.077   3.079   9.607
66041SOL     OW   19   2.582   3.595   8.233
66041SOL    HW1   20   2.487   3.585   8.233
66041SOL    HW2   21   2.605   3.613   8.324
66042SOL     OW   22  12.708  10.900   2.139
66042SOL    HW1   23  12.785  10.869   2.092
66042SOL    HW2   24  12.709  10.995   2.126
66043SOL     OW   25   5.847   0.355   3.304
66043SOL    HW1   26   5.937   0.337   3.279
66043SOL    HW2   27   5.842   0.450   3.311
66044SOL     OW   28   4.589   3.177   9.323
66044SOL    HW1   29   4.583   3.189   9.229
66044SOL    HW2   30   4.672   3.130   9.336
66045SOL     OW   31   9.724   4.818   8.433
66045SOL    HW1   32   9.670   4.897   8.431
66045SOL    HW2   33   9.677   4.758   8.491
66046SOL     OW   34   4.826  10.112   3.417
66046SOL    HW1   35   4.841  10.105   3.511
66046SOL    HW2   36   4.818  10.021   3.387
66047SOL     OW   37  12.838  13.154  10.238
66047SOL    HW1   38  12.900  13.084  10.257
66047SOL    HW2   39  12.754  13.110  10.231
66048SOL     OW   40   3.905  12.155   9.217
66048SOL    HW1   41   3.851  12.079   9.243
66048SOL    HW2   42   3.995  12.124   9.225
66049SOL     OW   43   5.657  11.277   7.108
66049SOL    HW1   44   5.628  11.275   7.017
66049SOL    HW2   45   5.608  11.349   7.148
66050SOL     OW   46   8.550   9.305  12.654
66050SOL    HW1   47   8.577   9.328  12.565
66050SOL    HW2   48   8.457   9.325  12.657
66051SOL     OW   49   6.241   4.967  10.360
66051SOL    HW1   50   6.204   5.055  10.350
66051SOL    HW2   51   6.322   4.968  10.310
66052SOL     OW   52  14.275   4.798  10.934
66052SOL    HW1   53  14.340   4.852  10.978
66052SOL    HW2   54  14.222   4.861  10.883
66053SOL     OW   55   2.754   2.457   5.189
66053SOL    HW1   56   2.665   2.470   5.223
66053SOL    HW2   57   2.782   2.373   5.226
66054SOL     OW   58  13.637  10.413   4.365
66054SOL    HW1   59  13.605  10.322   4.368
66054SOL    HW2   60  13.685  10.424   4.447
66055SOL     OW   61   2.154   6.044   7.979
66055SOL    HW1   62   2.190   6.074   7.895
66055SOL    HW2   63   2.068   6.010   7.957
66056SOL     OW   64  14.701  12.851   2.400
66056SOL    HW1   65  14.693  12.756   2.395
66056SOL    HW2   66  14.637  12.884   2.337
66057SOL     OW   67   3.332   2.770   1.599
66057SOL    HW1   68   3.284   2.846   1.631
66057SOL    HW2   69   3.278   2.734   1.529
66058SOL     OW   70   4.946  10.699   6.285
66058SOL    HW1   71   4.957  10.629   6.221
66058SOL    HW2   72   4.890  10.763   6.240
66059SOL     OW   73   8.466  13.978   6.088
66059SOL    HW1   74   8.510  14.063   6.089
66059SOL    HW2   75   8.411  13.979   6.166
66060SOL     OW   76   8.693   3.074   2.820
66060SOL    HW1   77   8.621   3.061   2.759
66060SOL    HW2   78   8.758   3.009   2.794
66061SOL     OW   79  14.594  11.746   6.251
66061SOL    HW1   80  14.590  11.822   6.194
66061SOL    HW2   81  14.684  11.714   6.243
66062SOL     OW   82  14.766   9.285  14.014
66062SOL    HW1   83  14.810   9.200  14.016
66062SOL    HW2   84  14.673   9.265  14.027
66063SOL     OW   85  10.077   4.008   8.543
66063SOL    HW1   86  10.061   3.985   8.634
66063SOL    HW2   87  10.000   3.976   8.496
66064SOL     OW   88   8.783  10.769   9.744
66064SOL    HW1   89   8.714  10.823   9.706
66064SOL    HW2   90   8.832  10.736   9.669
66065SOL     OW   91   9.201   0.841   0.249
66065SOL    HW1   92   9.116   0.885   0.246
66065SOL    HW2   93   9.185   0.755   0.209
66066SOL     OW   94  11.318   8.044  13.098
66066SOL    HW1   95  11.381   8.016  13.032
66066SOL    HW2   96  11.260   7.969  13.110
66067SOL     OW   97  14.782   9.376  13.764
66067SOL    HW1   98  14.771   9.336  13.850
66067SOL    HW2   99  14.744   9.313  13.703
66068SOL     OW  100   4.649   6.486   4.594
66068SOL    HW1  101   4.718   6.501   4.530
66068SOL    HW2  102   4.695   6.453   4.671
66069SOL     OW  103  13.819   2.740   5.777
66069SOL    HW1  104  13.855   2.784   5.700
66069SOL    HW2  105  13.763   2.671   5.742
66070SOL     OW  106   9.654   4.939   0.550
66070SOL    HW1  107   9.567   4.960   0.517
66070SOL    HW2  108   9.692   5.023   0.573
66071SOL     OW  109   0.235  11.942  12.143
66071SOL    HW1  110   0.304  11.950  12.209
66071SOL    HW2  111   0.281  11.920  12.062
66072SOL     OW  112  10.526   2.868   1.933
66072SOL    HW1  113  10.611   2.911   1.926
66072SOL    HW2  114  10.470   2.932   1.976
66073SOL     OW  115  13.156  12.030  14.183
66073SOL    HW1  116  13.138  12.021  14.090
66073SOL    HW2  117  13.161  11.941  14.216
66074SOL     OW  118   3.513  13.500   2.138
66074SOL    HW1  119   3.514  13.407   2.115
66074SOL    HW2  120   3.437  13.536   2.092
66075SOL     OW  121  12.809  10.982   9.577
66075SOL    HW1  122  12.832  11.049   9.513
66075SOL    HW2  123  12.720  10.956   9.554
66076SOL     OW  124   0.796   4.773   8.232
66076SOL    HW1  125   0.847   4.696   8.259
66076SOL    HW2  126   0.857   4.846   8.242
66077SOL     OW  127   7.209   7.830   2.838
66077SOL    HW1  128   7.192   7.754   2.894
66077SOL    HW2  129   7.300   7.854   2.858
66078SOL     OW  130   3.149   1.310  12.880
66078SOL    HW1  131   3.130   1.376  12.947
66078SOL    HW2  132   3.160   1.228  12.929
66079SOL     OW  133   4.347  14.143  11.902
66079SOL    HW1  134   4.279  14.120  11.965
66079SOL    HW2  135   4.303  14.138  11.817
66080SOL     OW  136   2.049   2.479  10.514
66080SOL    HW1  137   2.017   2.569  10.503
66080SOL    HW2  138   2.094   2.479  10.599
66081SOL     OW  139   3.556   1.589  12.259
66081SOL    HW1  140   3.537   1.610  12.351
66081SOL    HW2  141   3.649   1.607  12.249
66082SOL     OW  142   1.246   2.596   5.929
66082SOL    HW1  143   1.324   2.624   5.881
66082SOL    HW2  144   1.222   2.673   5.981
66083SOL     OW  145   1.116   9.517  11.812
66083SOL    HW1  146   1.049   9.476  11.867
66083SOL    HW2  147   1.157   9.445  11.765
66084SOL     OW  148  10.682  10.325   3.433
66084SOL    HW1  149  10.625  10.399   3.451
66084SOL    HW2  150  10.714  10.297   3.519
66085SOL     OW  151   0.062   4.350   4.726
66085SOL    HW1  152   0.138   4.394   4.764
66085SOL    HW2  153   0.091   4.260   4.711
66086SOL     OW  154   1.541   2.242   4.782
66086SOL    HW1  155   1.506   2.163   4.742
66086SOL    HW2  156   1.623   2.259   4.735
66087SOL     OW  157   9.248   7.175   3.964
66087SOL    HW1  158   9.343   7.161   3.957
66087SOL    HW2  159   9.210   7.087   3.965
66088SOL     OW  160  12.497   6.480  14.605
66088SOL    HW1  161  12.546   6.429  14.669
66088SOL    HW2  162  12.555   6.553  14.583
66089SOL     OW  163   9.491  10.162  10.364
66089SOL    HW1  164   9.524  10.242  10.404
66089SOL    HW2  165   9.398  10.162  10.383
66090SOL     OW  166   2.013  14.536  14.192
66090SOL    HW1  167   1.949  14.468  14.216
66090SOL    HW2  168   1.959  14.614  14.175
66091SOL     OW  169   4.309   9.698   1.822
66091SOL    HW1  170   4.372   9.673   1.754
66091SOL    HW2  171   4.361   9.701   1.903
66092SOL     OW  172  13.429  11.832   7.794
66092SOL    HW1  173  13.395  11.911   7.836
66092SOL    HW2  174  13.509  11.860   7.750
66093SOL     OW  175   5.154   4.949   4.703
66093SOL    HW1  176   5.100   4.901   4.641
66093SOL    HW2  177   5.229   4.891   4.719
66094SOL     OW  178   7.951  12.730  14.427
66094SOL    HW1  179   7.966  12.655  14.486
66094SOL    HW2  180   8.023  12.790  14.448
66095SOL     OW  181   0.602  10.345   5.203
66095SOL    HW1  182   0.597  10.330   5.108
66095SOL    HW2  183   0.680  10.298   5.230
66096SOL     OW  184  11.015   4.687   7.376
66096SOL    HW1  185  11.081   4.723   7.435
66096SOL    HW2  186  11.035   4.593   7.372
66097SOL     OW  187   4.462   9.658  13.555
66097SOL    HW1  188   4.414   9.684  13.634
66097SOL    HW2  189   4.514   9.735  13.532
66098SOL     OW  190  14.137  12.348   6.083
66098SOL    HW1  191  14.157  12.281   6.148
66098SOL    HW2  192  14.222  12.370   6.044
66099SOL     OW  193   9.565  11.513   9.964
66099SOL    HW1  194   9.586  11.480  10.051
66099SOL    HW2  195   9.492  11.573   9.977
66100SOL     OW  196   6.446   8.414   1.613
66100SOL    HW1  197   6.350   8.408   1.609
66100SOL    HW2  198   6.463   8.487   1.673
66101SOL     OW  199  13.518  12.911   0.152
66101SOL    HW1  200  13.519  12.822   0.188
66101SOL    HW2  201  13.426  12.935   0.148
66102SOL     OW  202  14.576   0.926   8.491
66102SOL    HW1  203  14.665   0.892   8.478
66102SOL    HW2  204  14.586   1.021   8.488
66103SOL     OW  205  14.744   1.354   5.415
66103SOL    HW1  206  14.665   1.309   5.385
66103SOL    HW2  207  14.778   1.397   5.336
66104SOL     OW  208  10.616   8.219   1.916
66104SOL    HW1  209  10.577   8.273   1.985
66104SOL    HW2  210  10.544   8.200   1.856
66105SOL     OW  211   9.891   5.413   1.973
66105SOL    HW1  212   9.833   5.394   2.047
66105SOL    HW2  213   9.871   5.344   1.909
66106SOL     OW  214  12.033   2.868  11.688
66106SOL    HW1  215  12.004   2.931  11.755
66106SOL    HW2  216  12.123   2.847  11.712
66107SOL     OW  217   1.865   3.880   4.431
66107SOL    HW1  218   1.831   3.896   4.519
66107SOL    HW2  219   1.959   3.867   4.443
66108SOL     OW  220  13.284   9.957   0.542
66108SOL    HW1  221  13.314   9.969   0.632
66108SOL    HW2  222  13.343  10.011   0.490
66109SOL     OW  223   1.025   8.191   8.600
66109SOL    HW1  224   1.060   8.278   8.620
66109SOL    HW2  225   1.071   8.132   8.660
66110SOL     OW  226   9.610   4.685  13.346
66110SOL    HW1  227   9.592   4.595  13.316
66110SOL    HW2  228   9.697   4.679  13.385
66111SOL     OW  229  12.032  11.657  11.691
66111SOL    HW1  230  11.977  11.728  11.658
66111SOL    HW2  231  11.974  11.582  11.696
66112SOL     OW  232  10.476   0.330  12.955
66112SOL    HW1  233  10.397   0.375  12.927
66112SOL    HW2  234  10.536   0.400  12.981
66113SOL     OW  235  14.484  14.780   4.587
66113SOL    HW1  236  14.540  14.850   4.552
66113SOL    HW2  237  14.502  14.780   4.681
66114SOL     OW  238   1.330   8.197   3.561
66114SOL    HW1  239   1.321   8.141   3.484
66114SOL    HW2  240   1.360   8.281   3.526
66115SOL     OW  241  13.230   1.725  13.899
66115SOL    HW1  242  13.293   1.702  13.831
66115SOL    HW2  243  13.273   1.701  13.981
66116SOL     OW  244   3.534   7.526   7.945
66116SOL    HW1  245   3.526   7.618   7.968
66116SOL    HW2  246   3.448   7.502   7.910
66117SOL     OW  247   4.726   2.211   7.886
66117SOL    HW1  248   4.690   2.214   7.797
66117SOL    HW2  249   4.817   2.186   7.874
66118SOL     OW  250   1.231   3.656  12.076
66118SOL    HW1  251   1.242   3.678  11.984
66118SOL    HW2  252   1.305   3.599  12.097
66119SOL     OW  253   2.944  13.061   3.241
66119SOL    HW1  254   2.910  12.972   3.256
66119SOL    HW2  255   2.889  13.096   3.171
66120SOL     OW  256   6.469   5.509  14.230
66120SOL    HW1  257   6.549   5.548  14.193
66120SOL    HW2  258   6.500   5.440  14.288
66121SOL     OW  259   7.541   2.753   6.780
66121SOL    HW1  260   7.616   2.811   6.762
66121SOL    HW2  261   7.548   2.684   6.715
66122SOL     OW  262   6.924   5.489   4.307
66122SOL    HW1  263   6.910   5.579   4.277
66122SOL    HW2  264   6.934   5.439   4.226
66123SOL     OW  265  12.825   5.120  10.736
66123SOL    HW1  266  12.904   5.171  10.715
66123SOL    HW2  267  12.852   5.064  10.808
66124SOL     OW  268   5.573  11.109   6.115
66124SOL    HW1  269   5.613  11.149   6.038
66124SOL    HW2  270   5.645  11.101   6.178
66125SOL     OW  271  12.236  10.774   3.342
66125SOL    HW1  272  12.252  10.731   3.425
66125SOL    HW2  273  12.200  10.860   3.366
66126SOL     OW  274   8.349   7.752  11.077
66126SOL    HW1  275   8.266   7.800  11.083
66126SOL    HW2  276   8.398   7.781  11.154
66127SOL     OW  277   9.964   1.976   5.766
66127SOL    HW1  278   9.953   2.052   5.709
66127SOL    HW2  279  10.057   1.956   5.762
66128SOL     OW  280   2.596   2.275   5.755
66128SOL    HW1  281   2.582   2.262   5.848
66128SOL    HW2  282   2.691   2.284   5.745
66129SOL     OW  283   6.105   8.634  11.934
66129SOL    HW1  284   6.147   8.562  11.979
66129SOL    HW2  285   6.062   8.594  11.859
66130SOL     OW  286  14.722   6.564   5.059
66130SOL    HW1  287  14.649   6.509   5.084
66130SOL    HW2  288  14.767   6.584   5.141
66131SOL     OW  289  10.719   9.083   4.334
66131SOL    HW1  290  10.792   9.023   4.354
66131SOL    HW2  291  10.670   9.039   4.264
66132SOL     OW  292  10.293   8.490   9.820
66132SOL    HW1  293  10.343   8.413   9.791
66132SOL    HW2  294  10.225   8.500   9.754
66133SOL     OW  295   8.313  10.493   3.281
66133SOL    HW1  296   8.241  10.538   3.325
66133SOL    HW2  297   8.359  10.563   3.233
66134SOL     OW  298   2.825   4.020   0.185
66134SOL    HW1  299   2.837   3.926   0.202
66134SOL    HW2  300   2.735   4.027   0.155
66135SOL     OW  301   4.601  14.481  12.263
66135SOL    HW1  302   4.669  14.487  12.196
66135SOL    HW2  303   4.534  14.424  12.225
66136SOL     OW  304   4.473   1.652   6.857
66136SOL    HW1  305   4.542   1.589   6.876
66136SOL    HW2  306   4.519   1.728   6.821
66137SOL     OW  307   9.503  11.805   8.116
66137SOL    HW1  308   9.446  11.861   8.063
66137SOL    HW2  309   9.443  11.754   8.170
66138SOL     OW  310   9.800   9.601   8.776
66138SOL    HW1  311   9.784   9.522   8.724
66138SOL    HW2  312   9.716   9.647   8.774
66139SOL     OW  313   5.264   5.189   2.507
66139SOL    HW1  314   5.212   5.213   2.585
66139SOL    HW2  315   5.302   5.105   2.529
66140SOL     OW  316   2.661  12.491   5.085
66140SOL    HW1  317   2.665  12.399   5.110
66140SOL    HW2  318   2.753  12.520   5.088
66141SOL     OW  319   3.180   8.857   9.951
66141SOL    HW1  320   3.158   8.944   9.918
66141SOL    HW2  321   3.263   8.835   9.908
66142SOL     OW  322   1.462  10.454   4.835
66142SOL    HW1  323   1.435  10.530   4.784
66142SOL    HW2  324   1.386  10.396   4.837
66143SOL     OW  325   0.768  13.674  11.071
66143SOL    HW1  326   0.715  13.716  11.003
66143SOL    HW2  327   0.717  13.686  11.152
66144SOL     OW  328   8.080  12.136   0.320
66144SOL    HW1  329   8.134  12.057   0.311
66144SOL    HW2  330   7.990  12.104   0.320
66145SOL     OW  331   5.620   4.604  11.265
66145SOL    HW1  332   5.534   4.643  11.283
66145SOL    HW2  333   5.600   4.515  11.236
66146SOL     OW  334   5.327   5.393   6.276
66146SOL    HW1  335   5.323   5.301   6.303
66146SOL    HW2  336   5.409   5.400   6.227
66147SOL     OW  337   3.203   1.409   4.978
66147SOL    HW1  338   3.255   1.396   4.898
66147SOL    HW2  339   3.127   1.352   4.967
66148SOL     OW  340   6.755   6.513   1.711
66148SOL    HW1  341   6.820   6.452   1.745
66148SOL    HW2  342   6.800   6.597   1.708
66149SOL     OW  343   9.384   6.231  13.395
66149SOL    HW1  344   9.453   6.268  13.451
66149SOL    HW2  345   9.400   6.136  13.397
66150SOL     OW  346   3.693   5.616   2.600
66150SOL    HW1  347   3.649   5.575   2.675
66150SOL    HW2  348   3.666   5.563   2.525
66151SOL     OW  349   1.543  12.229   2.333
66151SOL    HW1  350   1.499  12.269   2.258
66151SOL    HW2  351   1.635  12.255   2.324
66152SOL     OW  352   3.383  12.796   4.375
66152SOL    HW1  353   3.361  12.815   4.467
66152SOL    HW2  354   3.462  12.743   4.380
66153SOL     OW  355  11.123  14.351  10.538
66153SOL    HW1  356  11.141  14.263  10.507
66153SOL    HW2  357  11.172  14.408  10.479
66154SOL     OW  358   1.369   7.274  12.301
66154SOL    HW1  359   1.388   7.202  12.241
66154SOL    HW2  360   1.279   7.258  12.330
66155SOL     OW  361   4.812   6.111  12.556
66155SOL    HW1  362   4.758   6.173  12.606
66155SOL    HW2  363   4.887   6.163  12.527
66156SOL     OW  364  14.336   7.921  13.318
66156SOL    HW1  365  14.394   7.996  13.335
66156SOL    HW2  366  14.255   7.942  13.364
66157SOL     OW  367   2.586   3.469  12.286
66157SOL    HW1  368   2.527   3.539  12.258
66157SOL    HW2  369   2.533   3.390  12.284
66158SOL     OW  370   8.002  13.917  11.665
66158SOL    HW1  371   8.044  13.977  11.603
66158SOL    HW2  372   8.038  13.941  11.750
66159SOL     OW  373   3.480  11.299   6.000
66159SOL    HW1  374   3.410  11.319   6.061
66159SOL    HW2  375   3.557  11.287   6.055
66160SOL     OW  376  13.790   7.337   2.354
66160SOL    HW1  377  13.739   7.308   2.429
66160SOL    HW2  378  13.840   7.413   2.387
66161SOL     OW  379   8.425   3.860   5.783
66161SOL    HW1  380   8.465   3.878   5.868
66161SOL    HW2  381   8.386   3.943   5.756
66162SOL     OW  382   4.609   3.130   3.877
66162SOL    HW1  383   4.618   3.106   3.970
66162SOL    HW2  384   4.543   3.199   3.877
66163SOL     OW  385   8.882   6.278   8.634
66163SOL    HW1  386   8.876   6.223   8.556
66163SOL    HW2  387   8.821   6.239   8.697
66164SOL     OW  388  12.814   5.021   3.655
66164SOL    HW1  389  12.903   4.988   3.642
66164SOL    HW2  390  12.788   4.988   3.741
66165SOL     OW  391   1.132   4.046  13.347
66165SOL    HW1  392   1.047   4.070  13.309
66165SOL    HW2  393   1.133   3.951  13.346
66166SOL     OW  394  12.024  12.770   7.591
66166SOL    HW1  395  12.056  12.859   7.605
66166SOL    HW2  396  12.095  12.726   7.545
66167SOL     OW  397   5.791   7.536   7.237
66167SOL    HW1  398   5.838   7.589   7.172
66167SOL    HW2  399   5.831   7.560   7.321
66168SOL     OW  400   5.878  13.212   6.696
66168SOL    HW1  401   5.853  13.154   6.768
66168SOL    HW2  402   5.863  13.160   6.617
66169SOL     OW  403   0.994   5.097   9.844
66169SOL    HW1  404   1.026   5.007   9.833
66169SOL    HW2  405   1.038   5.129   9.922
66170SOL     OW  406  11.083  12.039   5.186
66170SOL    HW1  407  11.111  12.045   5.277
66170SOL    HW2  408  11.158  11.999   5.141
66171SOL     OW  409  10.131   1.047   6.789
66171SOL    HW1  410  10.062   1.082   6.845
66171SOL    HW2  411  10.209   1.043   6.845
66172SOL     OW  412   7.921  13.564   3.063
66172SOL    HW1  413   7.945  13.478   3.030
66172SOL    HW2  414   7.987  13.583   3.130
66173SOL     OW  415   1.018  10.141   0.959
66173SOL    HW1  416   0.968  10.078   0.907
66173SOL    HW2  417   0.971  10.223   0.948
66174SOL     OW  418   0.917   8.707  14.559
66174SOL    HW1  419   0.838   8.715  14.505
66174SOL    HW2  420   0.987   8.692  14.496
66175SOL     OW  421   7.984  12.060   4.449
66175SOL    HW1  422   8.032  12.138   4.475
66175SOL    HW2  423   7.971  12.071   4.354
66176SOL     OW  424   2.565   7.512   0.205
66176SOL    HW1  425   2.614   7.504   0.123
66176SOL    HW2  426   2.479   7.545   0.179
66177SOL     OW  427   3.988   3.894   4.237
66177SOL    HW1  428   4.079   3.918   4.221
66177SOL    HW2  429   3.993   3.823   4.301
66178SOL     OW  430   6.758   6.789   0.817
66178SOL    HW1  431   6.839   6.832   0.789
66178SOL    HW2  432   6.702   6.791   0.740
66179SOL     OW  433   3.419   5.364   1.495
66179SOL    HW1  434   3.352   5.297   1.488
66179SOL    HW2  435   3.375   5.446   1.473
66180SOL     OW  436   3.644   0.251   7.531
66180SOL    HW1  437   3.609   0.308   7.600
66180SOL    HW2  438   3.572   0.192   7.508
66181SOL     OW  439   4.755  14.573  12.974
66181SOL    HW1  440   4.846  14.598  12.963
66181SOL    HW2  441   4.710  14.654  12.996
66182SOL     OW  442  13.199   5.944  10.775
66182SOL    HW1  443  13.159   5.962  10.690
66182SOL    HW2  444  13.271   5.884  10.756
66183SOL     OW  445  12.412  11.648   5.866
66183SOL    HW1  446  12.359  11.725   5.842
66183SOL    HW2  447  12.371  11.575   5.820
66184SOL     OW  448   8.753  11.876  11.369
66184SOL    HW1  449   8.661  11.893  11.352
66184SOL    HW2  450   8.790  11.853  11.283
66185SOL     OW  451  11.293   1.423  11.197
66185SOL    HW1  452  11.234   1.357  11.234
66185SOL    HW2  453  11.359   1.436  11.265
66186SOL     OW  454  13.276   4.408  10.430
66186SOL    HW1  455  13.222   4.435  10.356
66186SOL    HW2  456  13.233   4.330  10.464
66187SOL     OW  457   5.220   0.956   7.335
66187SOL    HW1  458   5.225   0.861   7.350
66187SOL    HW2  459   5.257   0.969   7.248
66188SOL     OW  460  14.334  11.098   3.204
66188SOL    HW1  461  14.256  11.057   3.165
66188SOL    HW2  462  14.319  11.192   3.195
66189SOL     OW  463   1.658   8.021   7.536
66189SOL    HW1  464   1.601   7.955   7.496
66189SOL    HW2  465   1.646   8.009   7.630
66190SOL     OW  466   2.676  14.306   3.875
66190SOL    HW1  467   2.606  14.316   3.940
66190SOL    HW2  468   2.689  14.211   3.868
66191SOL     OW  469   1.072  14.713   9.759
66191SOL    HW1  470   1.073  14.768   9.681
66191SOL    HW2  471   1.052  14.626   9.727
66192SOL     OW  472   6.244   0.634   0.007
66192SOL    HW1  473   6.278   0.710  14.840
66192SOL    HW2  474   6.206   0.579  14.818
66193SOL     OW  475  13.348   9.384  10.322
66193SOL    HW1  476  13.300   9.397  10.240
66193SOL    HW2  477  13.386   9.296  10.313
66194SOL     OW  478  14.685   4.361  14.241
66194SOL    HW1  479  14.604   4.310  14.247
66194SOL    HW2  480  14.755   4.296  14.247
66195SOL     OW  481   6.143   2.677   9.858
66195SOL    HW1  482   6.055   2.640   9.852
66195SOL    HW2  483   6.140   2.735   9.935
66196SOL     OW  484   0.003   3.270  12.665
66196SOL    HW1  485   0.091   3.243  12.640
66196SOL    HW2  486  14.834   3.189  12.672
66197SOL     OW  487   8.490   8.069   7.144
66197SOL    HW1  488   8.556   8.084   7.211
66197SOL    HW2  489   8.496   7.975   7.125
66198SOL     OW  490   2.646  10.893   0.039
66198SOL    HW1  491   2.701  10.934   0.105
66198SOL    HW2  492   2.642  10.801   0.065
66199SOL     OW  493  12.823  10.050   9.882
66199SOL    HW1  494  12.867  10.009   9.957
66199SOL    HW2  495  12.806   9.977   9.823
66200SOL     OW  496  12.074  14.114   6.966
66200SOL    HW1  497  12.058  14.204   6.995
66200SOL    HW2  498  12.084  14.064   7.047
66201SOL     OW  499  12.989  11.854   7.873
66201SOL    HW1  500  12.902  11.835   7.837
66201SOL    HW2  501  13.049  11.835   7.800
66202SOL     OW  502  12.207   1.467   0.399
66202SOL    HW1  503  12.294   1.468   0.439
66202SOL    HW2  504  12.215   1.524   0.322
66203SOL     OW  505   7.209   8.947   8.897
66203SOL    HW1  506   7.266   9.005   8.947
66203SOL    HW2  507   7.121   8.968   8.928
66204SOL     OW  508   9.456   9.793  13.513
66204SOL    HW1  509   9.507   9.813  13.434
66204SOL    HW2  510   9.503   9.720  13.554
66205SOL     OW  511   4.222  10.995   9.448
66205SOL    HW1  512   4.194  10.950   9.368
66205SOL    HW2  513   4.143  11.038   9.480
66206SOL     OW  514   0.007   1.734   0.193
66206SOL    HW1  515  14.844   1.813   0.158
66206SOL    HW2  516   0.048   1.693   0.117
66207SOL     OW  517  12.268   3.681   3.425
66207SOL    HW1  518  12.200   3.613   3.425
66207SOL    HW2  519  12.221   3.762   3.443
66208SOL     OW  520   5.398  12.365  13.968
66208SOL    HW1  521   5.332  12.410  14.022
66208SOL    HW2  522   5.477  12.419  13.978
66209SOL     OW  523  10.464   6.734  13.393
66209SOL    HW1  524  10.387   6.736  13.336
66209SOL    HW2  525  10.464   6.646  13.429
66210SOL     OW  526   8.810   7.470  12.174
66210SOL    HW1  527   8.757   7.537  12.131
66210SOL    HW2  528   8.765   7.388  12.154
66211SOL     OW  529  12.561  13.684   4.950
66211SOL    HW1  530  12.504  13.607   4.943
66211SOL    HW2  531  12.626  13.672   4.881
66212SOL     OW  532  12.080  11.573   2.666
66212SOL    HW1  533  12.137  11.645   2.642
66212SOL    HW2  534  12.012  11.613   2.720
66213SOL     OW  535  11.252  13.295  13.286
66213SOL    HW1  536  11.322  13.343  13.330
66213SOL    HW2  537  11.295  13.252  13.212
66214SOL     OW  538   1.258  12.295   7.172
66214SOL    HW1  539   1.307  12.315   7.251
66214SOL    HW2  540   1.279  12.367   7.112
66215SOL     OW  541   3.629   4.279   5.546
66215SOL    HW1  542   3.611   4.336   5.471
66215SOL    HW2  543   3.647   4.194   5.506
66216SOL     OW  544  14.399   1.413   8.755
66216SOL    HW1  545  14.426   1.433   8.665
66216SOL    HW2  546  14.398   1.317   8.759
66217SOL     OW  547  13.486   3.202   6.534
66217SOL    HW1  548  13.525   3.288   6.548
66217SOL    HW2  549  13.476   3.196   6.439
66218SOL     OW  550  10.128   0.128  11.908
66218SOL    HW1  551  10.219   0.099  11.899
66218SOL    HW2  552  10.135   0.218  11.940
66219SOL     OW  553   3.794   9.362   1.088
66219SOL    HW1  554   3.730   9.292   1.075
66219SOL    HW2  555   3.743   9.443   1.088
66220SOL     OW  556   3.780   3.709  12.021
66220SOL    HW1  557   3.801   3.763  11.945
66220SOL    HW2  558   3.761   3.771  12.091
66221SOL     OW  559   9.739   5.435   8.881
66221SOL    HW1  560   9.659   5.439   8.830
66221SOL    HW2  561   9.738   5.347   8.920
66222SOL     OW  562   5.096  13.270   7.185
66222SOL    HW1  563   5.180  13.241   7.222
66222SOL    HW2  564   5.034  13.203   7.210
66223SOL     OW  565  13.988   8.996  14.027
66223SOL    HW1  566  14.003   8.975  13.935
66223SOL    HW2  567  14.036   8.928  14.076
66224SOL     OW  568   2.184   9.306  10.468
66224SOL    HW1  569   2.092   9.281  10.459
66224SOL    HW2  570   2.232   9.226  10.446
66225SOL     OW  571   7.137   1.217   4.427
66225SOL    HW1  572   7.151   1.312   4.421
66225SOL    HW2  573   7.208   1.186   4.482
66226SOL     OW  574  11.405   1.534   5.656
66226SOL    HW1  575  11.364   1.447   5.655
66226SOL    HW2  576  11.381   1.571   5.741
66227SOL     OW  577  12.364  12.198   6.324
66227SOL    HW1  578  12.274  12.229   6.327
66227SOL    HW2  579  12.418  12.276   6.340
66228SOL     OW  580   1.664   5.797   8.806
66228SOL    HW1  581   1.593   5.735   8.825
66228SOL    HW2  582   1.652   5.868   8.868
66229SOL     OW  583  12.677   0.112   5.913
66229SOL    HW1  584  12.732   0.057   5.856
66229SOL    HW2  585  12.592   0.113   5.871
66230SOL     OW  586  14.812   1.464  13.215
66230SOL    HW1  587  14.786   1.396  13.277
66230SOL    HW2  588  14.790   1.428  13.129
66231SOL     OW  589   2.183   6.040   3.040
66231SOL    HW1  590   2.247   6.109   3.054
66231SOL    HW2  591   2.201   6.008   2.952
66232SOL     OW  592   8.720  14.855  11.154
66232SOL    HW1  593   8.724  14.778  11.210
66232SOL    HW2  594   8.677  14.824  11.074
66233SOL     OW  595  10.707   3.462   7.036
66233SOL    HW1  596  10.758   3.381   7.025
66233SOL    HW2  597  10.767   3.532   7.010
66234SOL     OW  598   9.770   3.775   6.232
66234SOL    HW1  599   9.818   3.776   6.149
66234SOL    HW2  600   9.709   3.702   6.224
66235SOL     OW  601   2.087   6.930   0.943
66235SOL    HW1  602   2.027   7.004   0.936
66235SOL    HW2  603   2.156   6.961   1.002
66236SOL     OW  604   3.517   9.381   9.537
66236SOL    HW1  605   3.542   9.472   9.554
66236SOL    HW2  606   3.513   9.375   9.442
66237SOL     OW  607   6.037   2.423   3.997
66237SOL    HW1  608   6.026   2.334   4.030
66237SOL    HW2  609   5.993   2.478   4.062
66238SOL     OW  610  12.883  14.608   2.737
66238SOL    HW1  611  12.855  14.572   2.821
66238SOL    HW2  612  12.825  14.683   2.722
66239SOL     OW  613   9.922   7.479   1.318
66239SOL    HW1  614   9.890   7.528   1.242
66239SOL    HW2  615   9.919   7.388   1.290
66240SOL     OW  616  11.589   8.180   8.415
66240SOL    HW1  617  11.548   8.100   8.382
66240SOL    HW2  618  11.527   8.213   8.480
66241SOL     OW  619   3.029  11.849   8.895
66241SOL    HW1  620   3.040  11.927   8.841
66241SOL    HW2  621   3.023  11.777   8.833
66242SOL     OW  622   0.146  12.307   9.738
66242SOL    HW1  623   0.067  12.348   9.704
66242SOL    HW2  624   0.195  12.281   9.661
66243SOL     OW  625   8.953   4.776  11.293
66243SOL    HW1  626   8.934   4.702  11.350
66243SOL    HW2  627   8.926   4.746  11.206
66244SOL     OW  628   2.258   9.133   1.896
66244SOL    HW1  629   2.309   9.057   1.867
66244SOL    HW2  630   2.292   9.206   1.845
66245SOL     OW  631   3.140   4.257   6.460
66245SOL    HW1  632   3.044   4.256   6.457
66245SOL    HW2  633   3.166   4.279   6.370
66246SOL     OW  634   7.586   5.084   8.011
66246SOL    HW1  635   7.665   5.138   8.005
66246SOL    HW2  636   7.515   5.147   8.024
66247SOL     OW  637   2.323  14.835  11.984
66247SOL    HW1  638   2.341  14.778  11.909
66247SOL    HW2  639   2.232  14.863  11.972
66248SOL     OW  640   6.749  11.571   7.307
66248SOL    HW1  641   6.688  11.631   7.265
66248SOL    HW2  642   6.824  11.566   7.248
66249SOL     OW  643  10.567  13.270   6.677
66249SOL    HW1  644  10.579  13.178   6.700
66249SOL    HW2  645  10.629  13.285   6.606
66250SOL     OW  646   9.466   4.222   0.580
66250SOL    HW1  647   9.408   4.197   0.651
66250SOL    HW2  648   9.411   4.272   0.520
66251SOL     OW  649  14.864   6.610   2.309
66251SOL    HW1  650  14.782   6.586   2.266
66251SOL    HW2  651   0.052   6.567   2.256
66252SOL     OW  652  14.717   4.969  14.346
66252SOL    HW1  653  14.675   4.992  14.428
66252SOL    HW2  654  14.808   4.996  14.357
66253SOL     OW  655  13.946  14.473   2.063
66253SOL    HW1  656  13.988  14.556   2.085
66253SOL    HW2  657  14.017  14.408   2.066
66254SOL     OW  658   6.561   5.395  10.393
66254SOL    HW1  659   6.519   5.430  10.471
66254SOL    HW2  660   6.573   5.471  10.336
66255SOL     OW  661   5.698   7.090   9.947
66255SOL    HW1  662   5.674   7.175   9.982
66255SOL    HW2  663   5.752   7.050  10.016
66256SOL     OW  664  11.862  14.872  12.525
66256SOL    HW1  665  11.852  14.778  12.540
66256SOL    HW2  666  11.807   0.010  12.449
66257SOL     OW  667   5.046   2.668  14.472
66257SOL    HW1  668   5.034   2.630  14.559
66257SOL    HW2  669   4.958   2.691  14.443
66258SOL     OW  670   3.668   0.723   6.483
66258SOL    HW1  671   3.724   0.646   6.469
66258SOL    HW2  672   3.586   0.701   6.439
66259SOL     OW  673   5.057   6.137   9.720
66259SOL    HW1  674   5.136   6.134   9.775
66259SOL    HW2  675   5.066   6.061   9.662
66260SOL     OW  676   2.344  14.411   9.812
66260SOL    HW1  677   2.407  14.344   9.787
66260SOL    HW2  678   2.345  14.473   9.739
66261SOL     OW  679   8.248   5.720   8.584
66261SOL    HW1  680   8.205   5.647   8.539
66261SOL    HW2  681   8.328   5.683   8.620
66262SOL     OW  682   6.810  14.543   2.918
66262SOL    HW1  683   6.803  14.481   2.846
66262SOL    HW2  684   6.903  14.562   2.925
66263SOL     OW  685   3.847   9.012   5.276
66263SOL    HW1  686   3.895   9.094   5.266
66263SOL    HW2  687   3.890   8.952   5.215
66264SOL     OW  688  13.308   5.579   4.897
66264SOL    HW1  689  13.364   5.656   4.889
66264SOL    HW2  690  13.247   5.587   4.823
66265SOL     OW  691   7.990  13.328   0.813
66265SOL    HW1  692   8.025  13.409   0.776
66265SOL    HW2  693   7.945  13.285   0.740
66266SOL     OW  694   3.364   1.065  14.650
66266SOL    HW1  695   3.319   1.121  14.586
66266SOL    HW2  696   3.294   1.023  14.699
66267SOL     OW  697   5.790   3.424   5.135
66267SOL    HW1  698   5.847   3.415   5.059
66267SOL    HW2  699   5.722   3.485   5.107
66268SOL     OW  700  13.989   4.453  12.465
66268SOL    HW1  701  13.911   4.453  12.521
66268SOL    HW2  702  14.026   4.540  12.477
66269SOL     OW  703   8.888  13.103   9.771
66269SOL    HW1  704   8.838  13.159   9.711
66269SOL    HW2  705   8.834  13.098   9.850
66270SOL     OW  706  12.544  13.182  12.408
66270SOL    HW1  707  12.459  13.208  12.372
66270SOL    HW2  708  12.603  13.181  12.333
66271SOL     OW  709   4.541  13.089   3.641
66271SOL    HW1  710   4.494  13.017   3.683
66271SOL    HW2  711   4.499  13.096   3.555
66272SOL     OW  712  14.878   1.461   6.883
66272SOL    HW1  713  14.850   1.473   6.792
66272SOL    HW2  714  14.798   1.472   6.934
66273SOL     OW  715  13.100   0.666   5.906
66273SOL    HW1  716  13.119   0.589   5.961
66273SOL    HW2  717  13.067   0.731   5.968
66274SOL     OW  718   9.164   5.973   4.526
66274SOL    HW1  719   9.108   5.997   4.452
66274SOL    HW2  720   9.252   5.970   4.489
66275SOL     OW  721   3.416   2.256   7.296
66275SOL    HW1  722   3.474   2.238   7.222
66275SOL    HW2  723   3.371   2.337   7.273
66276SOL     OW  724   4.004   7.975  11.928
66276SOL    HW1  725   3.929   7.916  11.926
66276SOL    HW2  726   3.995   8.028  11.850
66277SOL     OW  727   1.235   4.250  14.555
66277SOL    HW1  728   1.265   4.291  14.474
66277SOL    HW2  729   1.209   4.161  14.529
66278SOL     OW  730   9.603   0.110   6.798
66278SOL    HW1  731   9.594   0.030   6.746
66278SOL    HW2  732   9.583   0.083   6.887
66279SOL     OW  733  12.734   1.889   9.229
66279SOL    HW1  734  12.819   1.857   9.259
66279SOL    HW2  735  12.685   1.811   9.206
66280SOL     OW  736   5.460  13.856  10.861
66280SOL    HW1  737   5.548  13.884  10.884
66280SOL    HW2  738   5.429  13.922  10.799
66281SOL     OW  739   9.977   8.617  11.295
66281SOL    HW1  740  10.072   8.626  11.283
66281SOL    HW2  741   9.950   8.558  11.225
66282SOL     OW  742   8.556   4.621   0.704
66282SOL    HW1  743   8.605   4.615   0.621
66282SOL    HW2  744   8.580   4.542   0.752
66283SOL     OW  745   9.705  10.682   1.514
66283SOL    HW1  746   9.725  10.594   1.481
66283SOL    HW2  747   9.787  10.710   1.556
66284SOL     OW  748  14.485  12.684   0.742
66284SOL    HW1  749  14.491  12.595   0.709
66284SOL    HW2  750  14.488  12.739   0.663
66285SOL     OW  751   9.946   1.025   4.068
66285SOL    HW1  752  10.037   1.054   4.064
66285SOL    HW2  753   9.895   1.104   4.052
66286SOL     OW  754   8.912  12.502   3.690
66286SOL    HW1  755   8.980  12.436   3.680
66286SOL    HW2  756   8.855  12.468   3.759
66287SOL     OW  757  12.209   3.401  12.070
66287SOL    HW1  758  12.243   3.487  12.045
66287SOL    HW2  759  12.122   3.397  12.031
66288SOL     OW  760  13.899   8.973  14.754
66288SOL    HW1  761  13.941   8.892  14.783
66288SOL    HW2  762  13.846   8.947  14.678
66289SOL     OW  763   6.421   8.602   2.836
66289SOL    HW1  764   6.497   8.584   2.891
66289SOL    HW2  765   6.443   8.684   2.791
66290SOL     OW  766   7.606   9.582   1.546
66290SOL    HW1  767   7.601   9.563   1.452
66290SOL    HW2  768   7.611   9.496   1.588
66291SOL     OW  769  12.319  13.350   5.289
66291SOL    HW1  770  12.224  13.344   5.279
66291SOL    HW2  771  12.331  13.413   5.360
66292SOL     OW  772   3.651   7.418   0.428
66292SOL    HW1  773   3.652   7.375   0.342
66292SOL    HW2  774   3.726   7.381   0.474
66293SOL     OW  775   0.031   8.306   1.020
66293SOL    HW1  776  14.870   8.221   1.001
66293SOL    HW2  777   0.045   8.346   0.935
66294SOL     OW  778  11.502   9.388  12.280
66294SOL    HW1  779  11.444   9.344  12.218
66294SOL    HW2  780  11.583   9.402  12.230
66295SOL     OW  781  13.916  14.261  11.751
66295SOL    HW1  782  13.904  14.181  11.700
66295SOL    HW2  783  13.849  14.321  11.716
66296SOL     OW  784   8.055   1.475   9.940
66296SOL    HW1  785   7.991   1.546   9.937
66296SOL    HW2  786   8.029   1.415   9.871
66297SOL     OW  787   3.234   5.186  12.259
66297SOL    HW1  788   3.198   5.107  12.301
66297SOL    HW2  789   3.165   5.251  12.269
66298SOL     OW  790   5.487  14.498   4.806
66298SOL    HW1  791   5.522  14.411   4.822
66298SOL    HW2  792   5.534  14.555   4.867
66299SOL     OW  793  11.541   3.780  14.659
66299SOL    HW1  794  11.587   3.708  14.617
66299SOL    HW2  795  11.596   3.856  14.644
66300SOL     OW  796   4.333  13.008   9.869
66300SOL    HW1  797   4.370  12.975   9.787
66300SOL    HW2  798   4.246  13.040   9.844
66301SOL     OW  799  11.418  14.553   1.008
66301SOL    HW1  800  11.335  14.559   1.057
66301SOL    HW2  801  11.444  14.462   1.018
66302SOL     OW  802  14.645   0.098   4.490
66302SOL    HW1  803  14.613   0.177   4.446
66302SOL    HW2  804  14.674   0.129   4.576
66303SOL     OW  805   1.842   3.814   1.308
66303SOL    HW1  806   1.901   3.803   1.233
66303SOL    HW2  807   1.769   3.865   1.273
66304SOL     OW  808  12.685   6.613  13.606
66304SOL    HW1  809  12.766   6.656  13.631
66304SOL    HW2  810  12.640   6.677  13.550
66305SOL     OW  811   1.200  10.843   7.152
66305SOL    HW1  812   1.237  10.855   7.240
66305SOL    HW2  813   1.107  10.823   7.168
66306SOL     OW  814   9.106  10.482   5.863
66306SOL    HW1  815   9.096  10.400   5.815
66306SOL    HW2  816   9.193  10.514   5.840
66307SOL     OW  817   0.906   0.768   4.326
66307SOL    HW1  818   0.921   0.785   4.419
66307SOL    HW2  819   0.811   0.762   4.317
66308SOL     OW  820   2.945   3.697   3.435
66308SOL    HW1  821   2.911   3.665   3.519
66308SOL    HW2  822   2.902   3.782   3.423
66309SOL     OW  823   5.052   7.902   1.854
66309SOL    HW1  824   5.104   7.915   1.775
66309SOL    HW2  825   4.972   7.859   1.824
66310SOL     OW  826   4.614  11.163   8.817
66310SOL    HW1  827   4.610  11.073   8.787
66310SOL    HW2  828   4.621  11.157   8.912
66311SOL     OW  829  12.861   9.868   7.851
66311SOL    HW1  830  12.860   9.947   7.796
66311SOL    HW2  831  12.819   9.801   7.797
66312SOL     OW  832   3.182  10.482  14.393
66312SOL    HW1  833   3.275  10.462  14.404
66312SOL    HW2  834   3.138  10.421  14.452
66313SOL     OW  835   4.717   5.207   4.689
66313SOL    HW1  836   4.771   5.157   4.750
66313SOL    HW2  837   4.725   5.298   4.718
66314SOL     OW  838   7.461   9.667   3.656
66314SOL    HW1  839   7.483   9.758   3.640
66314SOL    HW2  840   7.529   9.617   3.611
66315SOL     OW  841   7.943  12.965  12.517
66315SOL    HW1  842   7.936  12.922  12.432
66315SOL    HW2  843   7.869  13.025  12.520
66316SOL     OW  844   2.286   7.000  10.306
66316SOL    HW1  845   2.238   6.979  10.386
66316SOL    HW2  846   2.219   7.018  10.240
66317SOL     OW  847   8.544   1.061   2.960
66317SOL    HW1  848   8.556   0.975   3.001
66317SOL    HW2  849   8.508   1.042   2.874
66318SOL     OW  850   2.909   6.593   6.470
66318SOL    HW1  851   2.856   6.572   6.547
66318SOL    HW2  852   2.999   6.588   6.502
66319SOL     OW  853  11.550   1.439   8.537
66319SOL    HW1  854  11.483   1.502   8.511
66319SOL    HW2  855  11.621   1.453   8.474
66320SOL     OW  856  13.357  14.029   9.215
66320SOL    HW1  857  13.283  13.990   9.261
66320SOL    HW2  858  13.322  14.111   9.180
66321SOL     OW  859   1.786   3.322  11.930
66321SOL    HW1  860   1.751   3.290  12.013
66321SOL    HW2  861   1.881   3.309  11.939
66322SOL     OW  862   7.082  13.855   2.754
66322SOL    HW1  863   7.101  13.873   2.662
66322SOL    HW2  864   7.040  13.769   2.754
66323SOL     OW  865   3.335   6.576   1.574
66323SOL    HW1  866   3.324   6.627   1.494
66323SOL    HW2  867   3.261   6.515   1.574
66324SOL     OW  868  14.049  11.378   7.764
66324SOL    HW1  869  14.055  11.367   7.859
66324SOL    HW2  870  14.063  11.471   7.749
66325SOL     OW  871   5.501  13.582  11.087
66325SOL    HW1  872   5.560  13.658  11.080
66325SOL    HW2  873   5.425  13.606  11.033
66326SOL     OW  874  10.381   8.059   2.319
66326SOL    HW1  875  10.286   8.047   2.319
66326SOL    HW2  876  10.416   7.971   2.330
66327SOL     OW  877   3.263  10.953  12.414
66327SOL    HW1  878   3.278  11.028  12.472
66327SOL    HW2  879   3.263  10.877  12.472
66328SOL     OW  880   2.744  13.748   1.617
66328SOL    HW1  881   2.784  13.834   1.629
66328SOL    HW2  882   2.778  13.719   1.532
66329SOL     OW  883  10.084  14.561   5.561
66329SOL    HW1  884  10.022  14.518   5.502
66329SOL    HW2  885  10.147  14.603   5.503
66330SOL     OW  886  13.406  14.095  11.664
66330SOL    HW1  887  13.411  14.122  11.756
66330SOL    HW2  888  13.340  14.152  11.625
66331SOL     OW  889  12.261   7.504   3.147
66331SOL    HW1  890  12.220   7.472   3.067
66331SOL    HW2  891  12.344   7.455   3.152
66332SOL     OW  892  12.846   1.573   9.692
66332SOL    HW1  893  12.776   1.549   9.632
66332SOL    HW2  894  12.852   1.668   9.685
66333SOL     OW  895   5.587   5.371  14.179
66333SOL    HW1  896   5.629   5.441  14.231
66333SOL    HW2  897   5.505   5.410  14.149
66334SOL     OW  898   3.481  13.717  13.672
66334SOL    HW1  899   3.415  13.664  13.715
66334SOL    HW2  900   3.555  13.719  13.733
66335SOL     OW  901   5.162   1.395   4.253
66335SOL    HW1  902   5.182   1.471   4.308
66335SOL    HW2  903   5.098   1.345   4.303
66336SOL     OW  904   2.631  10.260  13.336
66336SOL    HW1  905   2.637  10.307  13.252
66336SOL    HW2  906   2.697  10.191  13.329
66337SOL     OW  907   9.593  12.673   6.113
66337SOL    HW1  908   9.577  12.638   6.201
66337SOL    HW2  909   9.650  12.608   6.072
66338SOL     OW  910   0.530  13.315  12.381
66338SOL    HW1  911   0.586  13.301  12.305
66338SOL    HW2  912   0.574  13.385  12.430
66339SOL     OW  913   8.679   2.621  13.801
66339SOL    HW1  914   8.693   2.715  13.814
66339SOL    HW2  915   8.587   2.614  13.775
66340SOL     OW  916   5.397  14.642   7.702
66340SOL    HW1  917   5.421  14.711   7.640
66340SOL    HW2  918   5.449  14.566   7.675
66341SOL     OW  919   1.345  13.814   5.209
66341SOL    HW1  920   1.338  13.880   5.279
66341SOL    HW2  921   1.414  13.848   5.152
66342SOL     OW  922   3.155  12.197   3.089
66342SOL    HW1  923   3.066  12.189   3.122
66342SOL    HW2  924   3.145  12.225   2.998
66343SOL     OW  925  10.724  13.346   1.765
66343SOL    HW1  926  10.657  13.281   1.783
66343SOL    HW2  927  10.795  13.297   1.723
66344SOL     OW  928   5.314   3.227  10.327
66344SOL    HW1  929   5.369   3.303  10.345
66344SOL    HW2  930   5.373   3.163  10.288
66345SOL     OW  931   6.987  12.184   1.349
66345SOL    HW1  932   6.894  12.171   1.364
66345SOL    HW2  933   7.029  12.108   1.391
66346SOL     OW  934   2.747   3.945   7.523
66346SOL    HW1  935   2.718   4.009   7.458
66346SOL    HW2  936   2.789   3.876   7.472
66347SOL     OW  937   9.180  12.616   8.299
66347SOL    HW1  938   9.168  12.687   8.363
66347SOL    HW2  939   9.154  12.655   8.215
66348SOL     OW  940   1.879   9.568   0.473
66348SOL    HW1  941   1.789   9.553   0.501
66348SOL    HW2  942   1.872   9.639   0.408
66349SOL     OW  943  12.423  12.782  11.121
66349SOL    HW1  944  12.368  12.844  11.170
66349SOL    HW2  945  12.513  12.810  11.139
66350SOL     OW  946  14.549  12.627  13.108
66350SOL    HW1  947  14.489  12.699  13.126
66350SOL    HW2  948  14.497  12.548  13.123
66351SOL     OW  949   7.722  11.563  11.592
66351SOL    HW1  950   7.756  11.651  11.576
66351SOL    HW2  951   7.664  11.573  11.668
66352SOL     OW  952   6.438  11.801  12.407
66352SOL    HW1  953   6.478  11.887  12.394
66352SOL    HW2  954   6.403  11.777  12.321
66353SOL     OW  955   6.482  14.181   1.518
66353SOL    HW1  956   6.561  14.128   1.506
66353SOL    HW2  957   6.501  14.263   1.473
66354SOL     OW  958   2.947  13.531   8.498
66354SOL    HW1  959   2.957  13.529   8.402
66354SOL    HW2  960   2.944  13.624   8.520
66355SOL     OW  961   0.623   7.222   9.235
66355SOL    HW1  962   0.590   7.205   9.323
66355SOL    HW2  963   0.688   7.291   9.247
66356SOL     OW  964   1.693   9.062  12.125
66356SOL    HW1  965   1.635   9.041  12.051
66356SOL    HW2  966   1.636   9.054  12.202
66357SOL     OW  967  10.530  11.897  13.246
66357SOL    HW1  968  10.461  11.852  13.198
66357SOL    HW2  969  10.494  11.984  13.263
66358SOL     OW  970   0.934   1.447   6.082
66358SOL    HW1  971   0.919   1.473   6.173
66358SOL    HW2  972   0.958   1.529   6.038
66359SOL     OW  973  13.362   0.451   4.644
66359SOL    HW1  974  13.371   0.383   4.711
66359SOL    HW2  975  13.367   0.402   4.561
66360SOL     OW  976   1.932   7.581  12.710
66360SOL    HW1  977   1.907   7.589  12.802
66360SOL    HW2  978   1.849   7.571  12.663
66361SOL     OW  979   7.753  14.192  14.858
66361SOL    HW1  980   7.758  14.153   0.066
66361SOL    HW2  981   7.719  14.280  14.873
66362SOL     OW  982   5.817   2.486   6.074
66362SOL    HW1  983   5.819   2.479   6.169
66362SOL    HW2  984   5.876   2.417   6.044
66363SOL     OW  985   2.196   1.178   6.306
66363SOL    HW1  986   2.236   1.263   6.325
66363SOL    HW2  987   2.153   1.190   6.222
66364SOL     OW  988   0.497   1.172   0.721
66364SOL    HW1  989   0.592   1.168   0.736
66364SOL    HW2  990   0.465   1.233   0.787
66365SOL     OW  991   0.488   2.057   0.613
66365SOL    HW1  992   0.410   2.112   0.601
66365SOL    HW2  993   0.514   2.032   0.524
66366SOL     OW  994   7.253   1.327   3.197
66366SOL    HW1  995   7.314   1.397   3.220
66366SOL    HW2  996   7.167   1.368   3.201
66367SOL     OW  997  13.900   2.971  13.522
66367SOL    HW1  998  13.889   2.923  13.604
66367SOL    HW2  999  13.874   2.908  13.455
66368SOL     OW 1000  14.303   2.003   6.365
66368SOL    HW1 1001  14.225   2.006   6.419
66368SOL    HW2 1002  14.288   2.069   6.297
66369SOL     OW 1003   4.509   8.069   2.752
66369SOL    HW1 1004   4.594   8.105   2.728
66369SOL    HW2 1005   4.490   8.004   2.684
66370SOL     OW 1006   7.887   1.622  14.067
66370SOL    HW1 1007   7.808   1.675  14.071
66370SOL    HW2 1008   7.868   1.545  14.122
66371SOL     OW 1009  11.371  12.847  12.299
66371SOL    HW1 1010  11.386  12.756  12.326
66371SOL    HW2 1011  11.297  12.842  12.239
66372SOL     OW 1012   1.462  13.874  11.877
66372SOL    HW1 1013   1.388  13.826  11.914
66372SOL    HW2 1014   1.528  13.873  11.946
66373SOL     OW 1015   5.872   8.326   2.199
66373SOL    HW1 1016   5.950   8.275   2.219
66373SOL    HW2 1017   5.804   8.291   2.257
66374SOL     OW 1018   2.382  13.808   6.419
66374SOL    HW1 1019   2.402  13.901   6.433
66374SOL    HW2 1020   2.293  13.798   6.453
66375SOL     OW 1021  13.353   3.641   9.293
66375SOL    HW1 1022  13.426   3.648   9.354
66375SOL    HW2 1023  13.277   3.673   9.343
66376SOL     OW 1024   8.716   2.653   8.790
66376SOL    HW1 1025   8.658   2.637   8.715
66376SOL    HW2 1026   8.675   2.725   8.838
66377SOL     OW 1027   2.152   6.720   6.546
66377SOL    HW1 1028   2.090   6.722   6.619
66377SOL    HW2 1029   2.193   6.633   6.552
66378SOL     OW 1030   8.225   8.233   4.282
66378SOL    HW1 1031   8.250   8.296   4.214
66378SOL    HW2 1032   8.243   8.147   4.244
66379SOL     OW 1033  13.034  14.126   1.026
66379SOL    HW1 1034  13.104  14.061   1.020
66379SOL    HW2 1035  12.971  14.088   1.087
66380SOL     OW 1036  11.651   4.858  11.852
66380SOL    HW1 1037  11.598   4.829  11.778
66380SOL    HW2 1038  11.711   4.922  11.815
66381SOL     OW 1039   5.292  12.476  11.389
66381SOL    HW1 1040   5.241  12.555  11.376
66381SOL    HW2 1041   5.330  12.486  11.476
66382SOL     OW 1042   4.687   8.951   6.804
66382SOL    HW1 1043   4.697   8.864   6.844
66382SOL    HW2 1044   4.593   8.958   6.786
66383SOL     OW 1045   2.927   8.770   7.228
66383SOL    HW1 1046   2.937   8.851   7.179
66383SOL    HW2 1047   2.874   8.795   7.304
66384SOL     OW 1048  12.619   4.114  11.129
66384SOL    HW1 1049  12.643   4.028  11.163
66384SOL    HW2 1050  12.536   4.099  11.084
66385SOL     OW 1051   6.804   7.738   1.699
66385SOL    HW1 1052   6.878   7.678   1.685
66385SOL    HW2 1053   6.782   7.729   1.791
66386SOL     OW 1054   7.702   9.591  11.558
66386SOL    HW1 1055   7.771   9.531  11.529
66386SOL    HW2 1056   7.720   9.673  11.512
66387SOL     OW 1057   1.377   8.196  11.335
66387SOL    HW1 1058   1.351   8.175  11.425
66387SOL    HW2 1059   1.328   8.275  11.313
66388SOL     OW 1060   7.602   4.432  12.048
66388SOL    HW1 1061   7.570   4.372  11.980
66388SOL    HW2 1062   7.668   4.485  12.004
66389SOL     OW 1063   8.891   6.483  11.026
66389SOL    HW1 1064   8.884   6.559  11.084
66389SOL    HW2 1065   8.981   6.451  11.039
66390SOL     OW 1066  13.597   7.269  13.536
66390SOL    HW1 1067  13.686   7.297  13.514
66390SOL    HW2 1068  13.597   7.175  13.519
66391SOL     OW 1069  10.338   6.821   9.407
66391SOL    HW1 1070  10.411   6.868   9.448
66391SOL    HW2 1071  10.294   6.888   9.354
66392SOL     OW 1072  13.694  14.338   2.429
66392SOL    HW1 1073  13.746  14.379   2.360
66392SOL    HW2 1074  13.730  14.250   2.436
66393SOL     OW 1075   7.300   8.502  10.821
66393SOL    HW1 1076   7.375   8.528  10.875
66393SOL    HW2 1077   7.337   8.442  10.757
66394SOL     OW 1078   4.116  14.700   0.830
66394SOL    HW1 1079   4.073  14.614   0.832
66394SOL    HW2 1080   4.048  14.761   0.857
66395SOL     OW 1081   2.762   5.673   8.227
66395SOL    HW1 1082   2.822   5.696   8.297
66395SOL    HW2 1083   2.818   5.663   8.150
66396SOL     OW 1084   9.631   5.594   2.359
66396SOL    HW1 1085   9.587   5.678   2.352
66396SOL    HW2 1086   9.602   5.545   2.282
66397SOL     OW 1087   7.890   7.015  13.671
66397SOL    HW1 1088   7.962   6.996  13.611
66397SOL    HW2 1089   7.848   6.930  13.685
66398SOL     OW 1090   5.374  13.738  12.722
66398SOL    HW1 1091   5.365  13.647  12.695
66398SOL    HW2 1092   5.384  13.786  12.640
66399SOL     OW 1093  10.332   9.098  13.020
66399SOL    HW1 1094  10.355   9.006  13.022
66399SOL    HW2 1095  10.237   9.100  13.037
66400SOL     OW 1096  12.611   8.848  10.961
66400SOL    HW1 1097  12.673   8.829  10.890
66400SOL    HW2 1098  12.539   8.787  10.946
66401SOL     OW 1099   6.967   7.426  13.427
66401SOL    HW1 1100   6.950   7.461  13.515
66401SOL    HW2 1101   6.905   7.473  13.371
66402SOL     OW 1102   3.908   2.761  11.682
66402SOL    HW1 1103   3.932   2.670  11.701
66402SOL    HW2 1104   3.927   2.772  11.589
66403SOL     OW 1105  11.960  14.722   1.106
66403SOL    HW1 1106  11.961  14.714   1.010
66403SOL    HW2 1107  11.877  14.682   1.132
66404SOL     OW 1108   8.974   0.393   9.661
66404SOL    HW1 1109   9.014   0.477   9.686
66404SOL    HW2 1110   9.046   0.341   9.628
66405SOL     OW 1111   2.362   7.526  10.157
66405SOL    HW1 1112   2.441   7.571  10.189
66405SOL    HW2 1113   2.322   7.587  10.096
66406SOL     OW 1114   2.172  12.061   8.347
66406SOL    HW1 1115   2.118  12.138   8.366
66406SOL    HW2 1116   2.155  12.002   8.421
66407SOL     OW 1117   9.232  14.427   6.982
66407SOL    HW1 1118   9.171  14.475   7.038
66407SOL    HW2 1119   9.314  14.425   7.030
66408SOL     OW 1120   8.662   2.946  11.724
66408SOL    HW1 1121   8.585   2.899  11.692
66408SOL    HW2 1122   8.696   2.892  11.795
66409SOL     OW 1123   9.933   9.968   0.674
66409SOL    HW1 1124   9.857   9.995   0.622
66409SOL    HW2 1125   9.896   9.925   0.751
66410SOL     OW 1126   4.905   1.779  14.081
66410SOL    HW1 1127   4.954   1.705  14.045
66410SOL    HW2 1128   4.864   1.819  14.005
66411SOL     OW 1129  13.246   8.271   5.091
66411SOL    HW1 1130  13.277   8.186   5.122
66411SOL    HW2 1131  13.152   8.259   5.077
66412SOL     OW 1132  12.418  14.824   2.151
66412SOL    HW1 1133  12.345  14.763   2.148
66412SOL    HW2 1134  12.398   0.002   2.225
66413SOL     OW 1135   7.326   3.156   1.814
66413SOL    HW1 1136   7.347   3.154   1.721
66413SOL    HW2 1137   7.374   3.081   1.851
66414SOL     OW 1138   7.770   3.989   3.052
66414SOL    HW1 1139   7.818   3.974   2.971
66414SOL    HW2 1140   7.794   4.078   3.078
66415SOL     OW 1141   4.545   9.503   7.411
66415SOL    HW1 1142   4.532   9.411   7.391
66415SOL    HW2 1143   4.639   9.517   7.404
66416SOL     OW 1144  11.235   3.402   3.255
66416SOL    HW1 1145  11.173   3.473   3.236
66416SOL    HW2 1146  11.305   3.414   3.192
66417SOL     OW 1147   3.572  10.472   0.206
66417SOL    HW1 1148   3.575  10.540   0.139
66417SOL    HW2 1149   3.657  10.478   0.250
66418SOL     OW 1150  12.508   0.822   6.085
66418SOL    HW1 1151  12.475   0.912   6.086
66418SOL    HW2 1152  12.583   0.824   6.026
66419SOL     OW 1153   7.650   2.777   9.720
66419SOL    HW1 1154   7.625   2.868   9.709
66419SOL    HW2 1155   7.732   2.768   9.672
66420SOL     OW 1156  13.341  13.157   9.734
66420SOL    HW1 1157  13.351  13.225   9.800
66420SOL    HW2 1158  13.264  13.107   9.762
66421SOL     OW 1159   7.515  12.745   5.798
66421SOL    HW1 1160   7.608  12.762   5.816
66421SOL    HW2 1161   7.483  12.702   5.878
66422SOL     OW 1162   3.790   6.745   2.438
66422SOL    HW1 1163   3.794   6.679   2.368
66422SOL    HW2 1164   3.866   6.801   2.421
66423SOL     OW 1165   1.479  10.204   1.894
66423SOL    HW1 1166   1.444  10.292   1.904
66423SOL    HW2 1167   1.410  10.155   1.848
66424SOL     OW 1168   3.988   0.973  14.258
66424SOL    HW1 1169   4.012   0.940  14.171
66424SOL    HW2 1170   4.040   0.921  14.319
66425SOL     OW 1171  10.578   5.918   5.103
66425SOL    HW1 1172  10.640   5.989   5.123
66425SOL    HW2 1173  10.632   5.839   5.104
66426SOL     OW 1174   3.622  12.511   5.082
66426SOL    HW1 1175   3.556  12.562   5.035
66426SOL    HW2 1176   3.704  12.530   5.036
66427SOL     OW 1177   3.143   5.662   5.219
66427SOL    HW1 1178   3.141   5.690   5.311
66427SOL    HW2 1179   3.205   5.589   5.218
66428SOL     OW 1180   2.256  12.945   9.575
66428SOL    HW1 1181   2.221  13.022   9.619
66428SOL    HW2 1182   2.178  12.892   9.555
66429SOL     OW 1183   1.153   5.374  12.297
66429SOL    HW1 1184   1.098   5.424  12.237
66429SOL    HW2 1185   1.159   5.287  12.257
66430SOL     OW 1186  13.407   8.979   5.864
66430SOL    HW1 1187  13.414   8.884   5.872
66430SOL    HW2 1188  13.418   9.011   5.954
66431SOL     OW 1189   6.669   7.581   7.540
66431SOL    HW1 1190   6.736   7.559   7.475
66431SOL    HW2 1191   6.719   7.611   7.616
66432SOL     OW 1192  14.839  10.141  12.431
66432SOL    HW1 1193  14.784  10.193  12.372
66432SOL    HW2 1194   0.018  10.205  12.472
66433SOL     OW 1195   1.061   2.565   3.069
66433SOL    HW1 1196   1.079   2.475   3.042
66433SOL    HW2 1197   1.125   2.618   3.021
66434SOL     OW 1198  12.926  11.619   0.426
66434SOL    HW1 1199  12.897  11.530   0.447
66434SOL    HW2 1200  13.021  11.614   0.422
66435SOL     OW 1201  12.489   2.283  13.063
66435SOL    HW1 1202  12.484   2.372  13.099
66435SOL    HW2 1203  12.482   2.226  13.140
66436SOL     OW 1204  14.039   8.271  13.291
66436SOL    HW1 1205  14.055   8.177  13.302
66436SOL    HW2 1206  14.114   8.312  13.334
66437SOL     OW 1207   8.283   5.766   2.872
66437SOL    HW1 1208   8.203   5.766   2.924
66437SOL    HW2 1209   8.282   5.682   2.826
66438SOL     OW 1210   7.964   3.479   2.315
66438SOL    HW1 1211   8.016   3.442   2.244
66438SOL    HW2 1212   7.874   3.451   2.296
66439SOL     OW 1213   3.618   5.739   6.786
66439SOL    HW1 1214   3.643   5.658   6.833
66439SOL    HW2 1215   3.523   5.734   6.778
66440SOL     OW 1216   0.830   6.692  13.965
66440SOL    HW1 1217   0.854   6.706  13.874
66440SOL    HW2 1218   0.755   6.749  13.980
66441SOL     OW 1219   4.793   5.621   5.817
66441SOL    HW1 1220   4.857   5.565   5.773
66441SOL    HW2 1221   4.708   5.595   5.781
66442SOL     OW 1222   7.886   7.154  12.792
66442SOL    HW1 1223   7.916   7.099  12.865
66442SOL    HW2 1224   7.809   7.107  12.758
66443SOL     OW 1225  14.274   1.594   8.322
66443SOL    HW1 1226  14.272   1.666   8.258
66443SOL    HW2 1227  14.188   1.597   8.363
66444SOL     OW 1228   0.779  14.158  12.767
66444SOL    HW1 1229   0.740  14.081  12.726
66444SOL    HW2 1230   0.729  14.168  12.849
66445SOL     OW 1231   5.914   6.750   9.840
66445SOL    HW1 1232   5.973   6.800   9.896
66445SOL    HW2 1233   5.848   6.715   9.899
66446SOL     OW 1234   9.522   2.801  11.538
66446SOL    HW1 1235   9.592   2.863  11.516
66446SOL    HW2 1236   9.457   2.855  11.583
66447SOL     OW 1237   4.480   4.524   4.262
66447SOL    HW1 1238   4.487   4.615   4.234
66447SOL    HW2 1239   4.421   4.526   4.337
66448SOL     OW 1240   9.847   9.668   0.362
66448SOL    HW1 1241   9.920   9.634   0.309
66448SOL    HW2 1242   9.883   9.744   0.407
66449SOL     OW 1243   6.780   5.254   5.957
66449SOL    HW1 1244   6.775   5.331   5.900
66449SOL    HW2 1245   6.869   5.257   5.993
66450SOL     OW 1246   5.766   7.442   0.462
66450SOL    HW1 1247   5.675   7.448   0.432
66450SOL    HW2 1248   5.774   7.511   0.529
66451SOL     OW 1249  14.204   1.986  14.344
66451SOL    HW1 1250  14.260   2.042  14.291
66451SOL    HW2 1251  14.162   1.927  14.281
66452SOL     OW 1252   2.757   7.016   5.830
66452SOL    HW1 1253   2.811   7.078   5.879
66452SOL    HW2 1254   2.798   7.012   5.744
66453SOL     OW 1255   3.322   6.486   7.802
66453SOL    HW1 1256   3.351   6.396   7.816
66453SOL    HW2 1257   3.235   6.490   7.841
66454SOL     OW 1258   1.751   7.284   4.270
66454SOL    HW1 1259   1.680   7.240   4.316
66454SOL    HW2 1260   1.708   7.333   4.200
66455SOL     OW 1261   4.302  14.530  12.473
66455SOL    HW1 1262   4.357  14.504  12.400
66455SOL    HW2 1263   4.315  14.462  12.539
66456SOL     OW 1264   6.370   5.242   7.672
66456SOL    HW1 1265   6.332   5.209   7.591
66456SOL    HW2 1266   6.352   5.174   7.737
66457SOL     OW 1267   9.537   9.363   3.057
66457SOL    HW1 1268   9.558   9.453   3.083
66457SOL    HW2 1269   9.583   9.350   2.974
66458SOL     OW 1270   1.595   6.655   1.845
66458SOL    HW1 1271   1.573   6.586   1.782
66458SOL    HW2 1272   1.605   6.734   1.792
66459SOL     OW 1273   2.744  10.615  12.064
66459SOL    HW1 1274   2.822  10.615  12.120
66459SOL    HW2 1275   2.737  10.524  12.034
66460SOL     OW 1276   2.973   7.707   7.213
66460SOL    HW1 1277   2.902   7.752   7.259
66460SOL    HW2 1278   3.053   7.739   7.255
66461SOL     OW 1279   3.851  11.198   7.348
66461SOL    HW1 1280   3.844  11.173   7.440
66461SOL    HW2 1281   3.943  11.182   7.326
66462SOL     OW 1282  11.519   4.638   2.072
66462SOL    HW1 1283  11.521   4.721   2.024
66462SOL    HW2 1284  11.430   4.604   2.058
66463SOL     OW 1285   7.613  13.733  13.753
66463SOL    HW1 1286   7.649  13.791  13.821
66463SOL    HW2 1287   7.518  13.744  13.761
66464SOL     OW 1288   1.622   2.683   3.584
66464SOL    HW1 1289   1.685   2.747   3.553
66464SOL    HW2 1290   1.672   2.623   3.639
66465SOL     OW 1291   6.016   6.935   0.405
66465SOL    HW1 1292   6.085   6.986   0.364
66465SOL    HW2 1293   5.951   7.000   0.432
66466SOL     OW 1294   8.586   4.725   3.834
66466SOL    HW1 1295   8.514   4.758   3.887
66466SOL    HW2 1296   8.551   4.720   3.746
66467SOL     OW 1297   9.106  13.605  10.000
66467SOL    HW1 1298   9.032  13.552   9.970
66467SOL    HW2 1299   9.066  13.680  10.043
66468SOL     OW 1300   4.756  14.474  10.940
66468SOL    HW1 1301   4.741  14.569  10.938
66468SOL    HW2 1302   4.730  14.444  10.853
66469SOL     OW 1303   4.046   0.396   9.976
66469SOL    HW1 1304   4.079   0.326   9.919
66469SOL    HW2 1305   4.042   0.355  10.063
66470SOL     OW 1306   1.078   3.773  13.357
66470SOL    HW1 1307   1.058   3.709  13.289
66470SOL    HW2 1308   1.098   3.720  13.435
66471SOL     OW 1309   3.066  13.355   9.955
66471SOL    HW1 1310   3.054  13.282  10.016
66471SOL    HW2 1311   2.993  13.414   9.973
66472SOL     OW 1312   2.176   5.774  11.504
66472SOL    HW1 1313   2.228   5.819  11.570
66472SOL    HW2 1314   2.104   5.835  11.485
66473SOL     OW 1315   3.705   6.650  11.261
66473SOL    HW1 1316   3.700   6.574  11.320
66473SOL    HW2 1317   3.694   6.726  11.318
66474SOL     OW 1318  10.546   8.977   6.667
66474SOL    HW1 1319  10.515   8.984   6.577
66474SOL    HW2 1320  10.575   8.887   6.676
66475SOL     OW 1321   9.046   7.692   3.059
66475SOL    HW1 1322   9.138   7.685   3.087
66475SOL    HW2 1323   9.009   7.759   3.116
66476SOL     OW 1324   9.953   9.020  11.734
66476SOL    HW1 1325   9.920   9.057  11.652
66476SOL    HW2 1326  10.036   9.066  11.749
66477SOL     OW 1327  14.489   0.151  12.087
66477SOL    HW1 1328  14.405   0.106  12.088
66477SOL    HW2 1329  14.472   0.232  12.039
66478SOL     OW 1330  10.032   8.270   8.226
66478SOL    HW1 1331   9.997   8.339   8.283
66478SOL    HW2 1332   9.961   8.251   8.165
66479SOL     OW 1333   2.727  12.461  12.194
66479SOL    HW1 1334   2.706  12.478  12.286
66479SOL    HW2 1335   2.771  12.541  12.164
66480SOL     OW 1336   3.231   3.301   9.047
66480SOL    HW1 1337   3.317   3.342   9.055
66480SOL    HW2 1338   3.215   3.298   8.952
66481SOL     OW 1339   0.275   3.378   0.600
66481SOL    HW1 1340   0.230   3.460   0.621
66481SOL    HW2 1341   0.210   3.310   0.618
66482SOL     OW 1342  12.996   8.648  10.522
66482SOL    HW1 1343  12.984   8.572  10.579
66482SOL    HW2 1344  13.084   8.639  10.487
66483SOL     OW 1345   2.296   7.133  12.334
66483SOL    HW1 1346   2.340   7.218  12.333
66483SOL    HW2 1347   2.321   7.092  12.251
66484SOL     OW 1348  11.192   4.675   3.922
66484SOL    HW1 1349  11.159   4.634   3.843
66484SOL    HW2 1350  11.160   4.620   3.993
66485SOL     OW 1351   6.434  10.422   3.391
66485SOL    HW1 1352   6.418  10.441   3.298
66485SOL    HW2 1353   6.465  10.331   3.391
66486SOL     OW 1354   2.975  12.635   4.228
66486SOL    HW1 1355   3.033  12.626   4.303
66486SOL    HW2 1356   2.948  12.727   4.229
66487SOL     OW 1357   5.572   8.132  12.579
66487SOL    HW1 1358   5.478   8.120  12.593
66487SOL    HW2 1359   5.614   8.081  12.648
66488SOL     OW 1360   2.010  10.180   8.047
66488SOL    HW1 1361   1.982  10.132   7.969
66488SOL    HW2 1362   1.947  10.155   8.114
66489SOL     OW 1363  14.274  14.286   9.581
66489SOL    HW1 1364  14.181  14.276   9.561
66489SOL    HW2 1365  14.276  14.311   9.674
66490SOL     OW 1366   3.770  11.731  11.343
66490SOL    HW1 1367   3.743  11.823  11.337
66490SOL    HW2 1368   3.828  11.718  11.268
66491SOL     OW 1369   5.829   7.646  12.179
66491SOL    HW1 1370   5.906   7.594  12.160
66491SOL    HW2 1371   5.764   7.619  12.114
66492SOL     OW 1372  14.846   6.499   2.572
66492SOL    HW1 1373  14.839   6.558   2.497
66492SOL    HW2 1374  14.814   6.551   2.646
66493SOL     OW 1375   6.236  13.218  13.555
66493SOL    HW1 1376   6.214  13.310  13.563
66493SOL    HW2 1377   6.297  13.213  13.482
66494SOL     OW 1378  12.340   6.599   0.606
66494SOL    HW1 1379  12.324   6.693   0.612
66494SOL    HW2 1380  12.305   6.574   0.521
66495SOL     OW 1381   9.242   0.271  11.616
66495SOL    HW1 1382   9.247   0.186  11.573
66495SOL    HW2 1383   9.295   0.261  11.695
66496SOL     OW 1384   6.121   1.721   6.245
66496SOL    HW1 1385   6.032   1.688   6.233
66496SOL    HW2 1386   6.110   1.810   6.277
66497SOL     OW 1387   0.629   4.125   3.752
66497SOL    HW1 1388   0.604   4.037   3.723
66497SOL    HW2 1389   0.652   4.171   3.671
66498SOL     OW 1390  10.520  12.913   1.039
66498SOL    HW1 1391  10.452  12.966   1.081
66498SOL    HW2 1392  10.546  12.964   0.963
66499SOL     OW 1393  14.068   1.051  11.519
66499SOL    HW1 1394  14.125   1.020  11.590
66499SOL    HW2 1395  14.109   1.132  11.490
66500SOL     OW 1396   8.634  11.637   2.156
66500SOL    HW1 1397   8.574  11.627   2.082
66500SOL    HW2 1398   8.652  11.731   2.160
66501SOL     OW 1399   7.599   4.439  10.637
66501SOL    HW1 1400   7.596   4.478  10.550
66501SOL    HW2 1401   7.693   4.424  10.653
66502SOL     OW 1402   3.240   0.471   2.104
66502SOL    HW1 1403   3.294   0.459   2.182
66502SOL    HW2 1404   3.265   0.557   2.070
66503SOL     OW 1405   4.672   2.473   7.629
66503SOL    HW1 1406   4.708   2.519   7.705
66503SOL    HW2 1407   4.674   2.537   7.559
66504SOL     OW 1408  10.159   3.964  11.122
66504SOL    HW1 1409  10.208   3.887  11.149
66504SOL    HW2 1410  10.223   4.020  11.079
66505SOL     OW 1411   3.361   4.340   4.229
66505SOL    HW1 1412   3.285   4.360   4.174
66505SOL    HW2 1413   3.425   4.303   4.168
66506SOL     OW 1414  13.699   7.147   2.887
66506SOL    HW1 1415  13.775   7.151   2.945
66506SOL    HW2 1416  13.683   7.238   2.862
66507SOL     OW 1417  14.261   3.373   3.082
66507SOL    HW1 1418  14.303   3.402   3.163
66507SOL    HW2 1419  14.297   3.432   3.015
66508SOL     OW 1420   0.512   0.789  14.033
66508SOL    HW1 1421   0.430   0.743  14.052
66508SOL    HW2 1422   0.575   0.720  14.014
66509SOL     OW 1423   2.258   0.811  13.661
66509SOL    HW1 1424   2.220   0.723  13.669
66509SOL    HW2 1425   2.183   0.870  13.669
66510SOL     OW 1426   6.802   8.148   7.298
66510SOL    HW1 1427   6.780   8.125   7.389
66510SOL    HW2 1428   6.844   8.234   7.305
66511SOL     OW 1429  12.679   9.929   5.144
66511SOL    HW1 1430  12.684   9.985   5.067
66511SOL    HW2 1431  12.767   9.933   5.182
66512SOL     OW 1432   7.408   8.554   9.423
66512SOL    HW1 1433   7.347   8.619   9.388
66512SOL    HW2 1434   7.404   8.481   9.361
66513SOL     OW 1435   0.820   3.051  10.326
66513SOL    HW1 1436   0.903   3.069  10.370
66513SOL    HW2 1437   0.813   3.119  10.258
66514SOL     OW 1438   3.548   4.563   1.030
66514SOL    HW1 1439   3.518   4.500   1.094
66514SOL    HW2 1440   3.473   4.620   1.015
66515SOL     OW 1441   8.851   5.078   5.567
66515SOL    HW1 1442   8.872   5.168   5.590
66515SOL    HW2 1443   8.934   5.032   5.571
66516SOL     OW 1444   3.522   8.296   5.248
66516SOL    HW1 1445   3.490   8.245   5.323
66516SOL    HW2 1446   3.586   8.356   5.286
66517SOL     OW 1447   9.945  11.199   1.107
66517SOL    HW1 1448   9.913  11.172   1.193
66517SOL    HW2 1449   9.997  11.125   1.076
66518SOL     OW 1450  14.402   3.995   0.911
66518SOL    HW1 1451  14.387   4.070   0.853
66518SOL    HW2 1452  14.461   3.938   0.861
66519SOL     OW 1453   6.899   1.557  11.919
66519SOL    HW1 1454   6.969   1.605  11.963
66519SOL    HW2 1455   6.818   1.595  11.955
66520SOL     OW 1456  11.937   0.537   0.156
66520SOL    HW1 1457  11.881   0.460   0.147
66520SOL    HW2 1458  11.946   0.570   0.066
66521SOL     OW 1459   6.336   7.309  14.351
66521SOL    HW1 1460   6.332   7.229  14.299
66521SOL    HW2 1461   6.421   7.306  14.394
66522SOL     OW 1462   6.525  10.841   2.602
66522SOL    HW1 1463   6.474  10.918   2.576
66522SOL    HW2 1464   6.467  10.791   2.659
66523SOL     OW 1465   6.122  14.790   2.872
66523SOL    HW1 1466   6.090   0.000   2.869
66523SOL    HW2 1467   6.164  14.776   2.787
66524SOL     OW 1468   8.393   6.142  13.662
66524SOL    HW1 1469   8.429   6.142  13.750
66524SOL    HW2 1470   8.298   6.145  13.674
66525SOL     OW 1471   3.514   6.474   9.573
66525SOL    HW1 1472   3.446   6.537   9.595
66525SOL    HW2 1473   3.542   6.498   9.485
66526SOL     OW 1474  13.014   4.365  13.495
66526SOL    HW1 1475  13.019   4.459  13.514
66526SOL    HW2 1476  12.951   4.359  13.423
66527SOL     OW 1477  11.127   8.920  13.094
66527SOL    HW1 1478  11.167   8.867  13.163
66527SOL    HW2 1479  11.056   8.967  13.139
66528SOL     OW 1480  10.287  10.953   1.638
66528SOL    HW1 1481  10.370  10.985   1.603
66528SOL    HW2 1482  10.221  11.013   1.605
66529SOL     OW 1483  12.041  10.048  12.287
66529SOL    HW1 1484  12.136  10.038  12.284
66529SOL    HW2 1485  12.010   9.968  12.329
66530SOL     OW 1486   8.551  13.728  13.162
66530SOL    HW1 1487   8.535  13.798  13.099
66530SOL    HW2 1488   8.621  13.676  13.123
66531SOL     OW 1489   9.289  10.845   9.604
66531SOL    HW1 1490   9.223  10.850   9.673
66531SOL    HW2 1491   9.303  10.752   9.590
66532SOL     OW 1492  13.605   2.409   9.529
66532SOL    HW1 1493  13.562   2.456   9.600
66532SOL    HW2 1494  13.533   2.376   9.475
66533SOL     OW 1495  13.536   6.493   7.386
66533SOL    HW1 1496  13.449   6.502   7.425
66533SOL    HW2 1497  13.521   6.504   7.292
66534SOL     OW 1498  10.594   6.525   7.791
66534SOL    HW1 1499  10.627   6.459   7.730
66534SOL    HW2 1500  10.650   6.516   7.868
66535SOL     OW 1501   9.660   7.921   7.180
66535SOL    HW1 1502   9.593   7.855   7.198
66535SOL    HW2 1503   9.741   7.882   7.214
66536SOL     OW 1504  12.481   7.385  12.587
66536SOL    HW1 1505  12.496   7.381  12.493
66536SOL    HW2 1506  12.550   7.331  12.625
66537SOL     OW 1507   8.953  11.487   2.695
66537SOL    HW1 1508   8.863  11.471   2.721
66537SOL    HW2 1509   8.947  11.513   2.603
66538SOL     OW 1510   1.888   7.963  10.093
66538SOL    HW1 1511   1.921   7.935  10.179
66538SOL    HW2 1512   1.882   8.058  10.100
66539SOL     OW 1513  10.755   3.522   0.491
66539SOL    HW1 1514  10.679   3.484   0.447
66539SOL    HW2 1515  10.811   3.553   0.420
66540SOL     OW 1516   3.905   4.507   2.947
66540SOL    HW1 1517   3.846   4.572   2.910
66540SOL    HW2 1518   3.869   4.423   2.916
66541SOL     OW 1519   8.212  11.241  11.247
66541SOL    HW1 1520   8.177  11.155  11.272
66541SOL    HW2 1521   8.222  11.287  11.331
66542SOL     OW 1522   8.240   4.095   9.406
66542SOL    HW1 1523   8.199   4.069   9.488
66542SOL    HW2 1524   8.333   4.076   9.419
66543SOL     OW 1525  10.753   2.823   7.425
66543SOL    HW1 1526  10.825   2.868   7.380
66543SOL    HW2 1527  10.739   2.743   7.374
66544SOL     OW 1528   8.972   4.539  11.453
66544SOL    HW1 1529   8.911   4.489  11.507
66544SOL    HW2 1530   9.008   4.475  11.392
66545SOL     OW 1531  11.059   1.873  10.164
66545SOL    HW1 1532  11.147   1.907  10.145
66545SOL    HW2 1533  11.007   1.895  10.087
66546SOL     OW 1534   6.697   8.692   2.059
66546SOL    HW1 1535   6.724   8.688   2.151
66546SOL    HW2 1536   6.779   8.706   2.011
66547SOL     OW 1537   9.478   3.979  11.499
66547SOL    HW1 1538   9.399   3.990  11.552
66547SOL    HW2 1539   9.495   4.066  11.463
66548SOL     OW 1540   9.965   7.213   3.128
66548SOL    HW1 1541  10.045   7.262   3.112
66548SOL    HW2 1542   9.970   7.188   3.220
66549SOL     OW 1543  14.547  12.509   9.353
66549SOL    HW1 1544  14.528  12.471   9.439
66549SOL    HW2 1545  14.462  12.540   9.322
66550SOL     OW 1546   0.114   8.131   1.374
66550SOL    HW1 1547   0.130   8.216   1.335
66550SOL    HW2 1548   0.088   8.075   1.301
66551SOL     OW 1549   6.856   3.072   5.723
66551SOL    HW1 1550   6.869   3.022   5.804
66551SOL    HW2 1551   6.820   3.155   5.753
66552SOL     OW 1552   8.543   4.341   4.181
66552SOL    HW1 1553   8.559   4.433   4.163
66552SOL    HW2 1554   8.546   4.299   4.094
66553SOL     OW 1555   1.204   9.189   5.838
66553SOL    HW1 1556   1.140   9.243   5.791
66553SOL    HW2 1557   1.178   9.099   5.819
66554SOL     OW 1558   2.882   3.759   0.207
66554SOL    HW1 1559   2.948   3.733   0.142
66554SOL    HW2 1560   2.827   3.681   0.217
66555SOL     OW 1561  12.920  11.713  12.247
66555SOL    HW1 1562  12.923  11.704  12.152
66555SOL    HW2 1563  12.858  11.646  12.275
66556SOL     OW 1564   9.398   9.183   0.413
66556SOL    HW1 1565   9.330   9.251   0.411
66556SOL    HW2 1566   9.437   9.190   0.500
66557SOL     OW 1567   5.682   3.240   5.522
66557SOL    HW1 1568   5.704   3.195   5.603
66557SOL    HW2 1569   5.613   3.302   5.547
66558SOL     OW 1570   7.516  14.878   7.934
66558SOL    HW1 1571   7.551   0.087   7.924
66558SOL    HW2 1572   7.584  14.831   7.982
66559SOL     OW 1573  11.853   1.597   2.115
66559SOL    HW1 1574  11.822   1.589   2.205
66559SOL    HW2 1575  11.920   1.529   2.106
66560SOL     OW 1576  11.208  14.052   9.911
66560SOL    HW1 1577  11.236  13.961   9.900
66560SOL    HW2 1578  11.289  14.100   9.931
66561SOL     OW 1579   3.233   0.956   4.658
66561SOL    HW1 1580   3.280   0.872   4.654
66561SOL    HW2 1581   3.147   0.933   4.692
66562SOL     OW 1582   1.479  10.715   1.888
66562SOL    HW1 1583   1.537  10.655   1.935
66562SOL    HW2 1584   1.497  10.801   1.926
66563SOL     OW 1585  10.153  12.339   7.928
66563SOL    HW1 1586  10.203  12.292   7.995
66563SOL    HW2 1587  10.218  12.395   7.885
66564SOL     OW 1588  14.624  12.282   3.061
66564SOL    HW1 1589  14.692  12.280   3.129
66564SOL    HW2 1590  14.583  12.195   3.066
66565SOL     OW 1591  12.021   8.290   7.471
66565SOL    HW1 1592  12.037   8.381   7.448
66565SOL    HW2 1593  12.087   8.241   7.422
66566SOL     OW 1594   3.723   4.273   4.273
66566SOL    HW1 1595   3.653   4.232   4.222
66566SOL    HW2 1596   3.801   4.221   4.253
66567SOL     OW 1597   7.830  12.737   2.295
66567SOL    HW1 1598   7.746  12.773   2.323
66567SOL    HW2 1599   7.816  12.713   2.203
66568SOL     OW 1600  14.325   3.196   7.362
66568SOL    HW1 1601  14.368   3.111   7.370
66568SOL    HW2 1602  14.273   3.204   7.443
66569SOL     OW 1603  11.558  13.866  11.623
66569SOL    HW1 1604  11.629  13.927  11.605
66569SOL    HW2 1605  11.536  13.828  11.538
66570SOL     OW 1606   0.143   2.794  10.716
66570SOL    HW1 1607   0.224   2.792  10.666
66570SOL    HW2 1608   0.150   2.873  10.770
66571SOL     OW 1609   5.922   1.053  10.566
66571SOL    HW1 1610   5.961   0.968  10.548
66571SOL    HW2 1611   5.983   1.117  10.528
66572SOL     OW 1612   3.878   5.490   3.009
66572SOL    HW1 1613   3.924   5.560   3.055
66572SOL    HW2 1614   3.914   5.492   2.920
66573SOL     OW 1615   7.075  14.134   3.236
66573SOL    HW1 1616   7.141  14.168   3.176
66573SOL    HW2 1617   7.116  14.141   3.322
66574SOL     OW 1618  12.709  11.421  11.923
66574SOL    HW1 1619  12.667  11.357  11.865
66574SOL    HW2 1620  12.730  11.372  12.002
66575SOL     OW 1621  10.080   8.532   3.094
66575SOL    HW1 1622  10.131   8.514   3.174
66575SOL    HW2 1623   9.995   8.561   3.126
66576SOL     OW 1624   1.905  12.976   3.556
66576SOL    HW1 1625   1.986  12.947   3.599
66576SOL    HW2 1626   1.913  12.945   3.466
66577SOL     OW 1627   8.357   7.238  13.689
66577SOL    HW1 1628   8.408   7.283  13.757
66577SOL    HW2 1629   8.275   7.286  13.684
66578SOL     OW 1630   7.944   9.234   6.518
66578SOL    HW1 1631   7.859   9.269   6.545
66578SOL    HW2 1632   8.004   9.307   6.531
66579SOL     OW 1633   0.335   8.734   3.727
66579SOL    HW1 1634   0.333   8.661   3.789
66579SOL    HW2 1635   0.274   8.708   3.658
66580SOL     OW 1636   5.095   5.764   5.122
66580SOL    HW1 1637   5.133   5.723   5.200
66580SOL    HW2 1638   5.162   5.825   5.092
66581SOL     OW 1639   2.793   8.894   5.473
66581SOL    HW1 1640   2.755   8.858   5.553
66581SOL    HW2 1641   2.887   8.877   5.481
66582SOL     OW 1642   8.609   9.925   6.403
66582SOL    HW1 1643   8.671   9.995   6.386
66582SOL    HW2 1644   8.660   9.844   6.392
66583SOL     OW 1645  11.653  14.579  11.185
66583SOL    HW1 1646  11.616  14.621  11.108
66583SOL    HW2 1647  11.743  14.611  11.189
66584SOL     OW 1648   4.453  11.716   7.049
66584SOL    HW1 1649   4.376  11.758   7.010
66584SOL    HW2 1650   4.504  11.788   7.086
66585SOL     OW 1651   3.530   6.433  13.029
66585SOL    HW1 1652   3.438   6.411  13.016
66585SOL    HW2 1653   3.559   6.377  13.101
66586SOL     OW 1654   5.892   8.904   7.925
66586SOL    HW1 1655   5.848   8.820   7.940
66586SOL    HW2 1656   5.833   8.953   7.869
66587SOL     OW 1657  14.328   5.753   3.618
66587SOL    HW1 1658  14.318   5.841   3.580
66587SOL    HW2 1659  14.377   5.768   3.699
66588SOL     OW 1660   8.951   1.841  13.708
66588SOL    HW1 1661   8.892   1.835  13.783
66588SOL    HW2 1662   9.024   1.783  13.729
66589SOL     OW 1663   4.842   5.875   9.121
66589SOL    HW1 1664   4.915   5.937   9.128
66589SOL    HW2 1665   4.764   5.929   9.132
66590SOL     OW 1666   6.535  14.553  11.203
66590SOL    HW1 1667   6.534  14.648  11.191
66590SOL    HW2 1668   6.468  14.521  11.143
66591SOL     OW 1669  13.737   0.063   4.998
66591SOL    HW1 1670  13.812   0.090   4.944
66591SOL    HW2 1671  13.740  14.847   4.998
66592SOL     OW 1672   0.528   0.731   6.938
66592SOL    HW1 1673   0.622   0.721   6.925
66592SOL    HW2 1674   0.521   0.788   7.015
66593SOL     OW 1675   9.781   4.650   4.760
66593SOL    HW1 1676   9.736   4.584   4.706
66593SOL    HW2 1677   9.724   4.726   4.758
66594SOL     OW 1678   0.548   4.285  10.013
66594SOL    HW1 1679   0.453   4.299  10.014
66594SOL    HW2 1680   0.557   4.190  10.004
66595SOL     OW 1681  14.235   3.498   5.819
66595SOL    HW1 1682  14.175   3.549   5.765
66595SOL    HW2 1683  14.210   3.518   5.909
66596SOL     OW 1684  11.064  11.675   9.839
66596SOL    HW1 1685  11.103  11.736   9.902
66596SOL    HW2 1686  10.992  11.635   9.887
66597SOL     OW 1687  13.840   3.398   6.275
66597SOL    HW1 1688  13.783   3.459   6.322
66597SOL    HW2 1689  13.918   3.391   6.331
66598SOL     OW 1690   3.614   8.545   2.071
66598SOL    HW1 1691   3.567   8.526   1.990
66598SOL    HW2 1692   3.611   8.640   2.080
66599SOL     OW 1693   1.503  12.325   2.002
66599SOL    HW1 1694   1.427  12.312   1.945
66599SOL    HW2 1695   1.529  12.416   1.987
66600SOL     OW 1696   4.258   9.443   7.743
66600SOL    HW1 1697   4.203   9.504   7.694
66600SOL    HW2 1698   4.220   9.442   7.831
66601SOL     OW 1699   0.646   7.812   5.234
66601SOL    HW1 1700   0.717   7.858   5.279
66601SOL    HW2 1701   0.681   7.724   5.218
66602SOL     OW 1702   2.369  12.676  10.691
66602SOL    HW1 1703   2.339  12.668  10.601
66602SOL    HW2 1704   2.343  12.593  10.733
66603SOL     OW 1705   9.212   2.710  11.350
66603SOL    HW1 1706   9.300   2.681  11.326
66603SOL    HW2 1707   9.186   2.653  11.421
66604SOL     OW 1708   5.780   2.613   5.309
66604SOL    HW1 1709   5.870   2.584   5.301
66604SOL    HW2 1710   5.786   2.708   5.319
66605SOL     OW 1711   9.398   1.191  13.481
66605SOL    HW1 1712   9.428   1.118  13.535
66605SOL    HW2 1713   9.473   1.213  13.426
66606SOL     OW 1714   7.375  10.332  10.019
66606SOL    HW1 1715   7.292  10.324   9.971
66606SOL    HW2 1716   7.380  10.252  10.071
66607SOL     OW 1717   2.103   4.918   1.182
66607SOL    HW1 1718   2.153   4.978   1.237
66607SOL    HW2 1719   2.107   4.957   1.095
66608SOL     OW 1720  10.803  12.140   0.440
66608SOL    HW1 1721  10.804  12.233   0.464
66608SOL    HW2 1722  10.711  12.121   0.422
66609SOL     OW 1723  14.227   3.584   4.133
66609SOL    HW1 1724  14.318   3.556   4.126
66609SOL    HW2 1725  14.176   3.505   4.117
66610SOL     OW 1726   8.272   5.212  10.488
66610SOL    HW1 1727   8.343   5.276  10.497
66610SOL    HW2 1728   8.210   5.254  10.428
66611SOL     OW 1729   5.619  14.023  13.596
66611SOL    HW1 1730   5.555  14.090  13.573
66611SOL    HW2 1731   5.573  13.940  13.583
66612SOL     OW 1732   8.274   3.534   3.470
66612SOL    HW1 1733   8.253   3.457   3.418
66612SOL    HW2 1734   8.368   3.525   3.489
66613SOL     OW 1735   0.208   8.715   5.684
66613SOL    HW1 1736   0.254   8.692   5.603
66613SOL    HW2 1737   0.148   8.642   5.699
66614SOL     OW 1738  14.600   1.210   6.799
66614SOL    HW1 1739  14.671   1.169   6.848
66614SOL    HW2 1740  14.643   1.255   6.726
66615SOL     OW 1741   9.556  11.671  13.758
66615SOL    HW1 1742   9.626  11.657  13.694
66615SOL    HW2 1743   9.480  11.694  13.705
66616SOL     OW 1744  10.424   5.086   2.769
66616SOL    HW1 1745  10.460   5.090   2.858
66616SOL    HW2 1746  10.347   5.143   2.772
66617SOL     OW 1747   8.898   6.896   3.484
66617SOL    HW1 1748   8.880   6.913   3.577
66617SOL    HW2 1749   8.963   6.826   3.485
66618SOL     OW 1750   9.670  10.249  13.943
66618SOL    HW1 1751   9.673  10.201  14.026
66618SOL    HW2 1752   9.577  10.264  13.927
66619SOL     OW 1753  11.889  12.868   8.194
66619SOL    HW1 1754  11.965  12.918   8.222
66619SOL    HW2 1755  11.836  12.930   8.144
66620SOL     OW 1756  14.243  12.281   8.019
66620SOL    HW1 1757  14.308  12.211   8.030
66620SOL    HW2 1758  14.271  12.325   7.938
66621SOL     OW 1759   5.029   8.198   6.289
66621SOL    HW1 1760   4.974   8.196   6.368
66621SOL    HW2 1761   5.118   8.186   6.321
66622SOL     OW 1762  12.224   9.842  10.585
66622SOL    HW1 1763  12.312   9.876  10.602
66622SOL    HW2 1764  12.237   9.775  10.518
66623SOL     OW 1765   3.918   6.112  12.879
66623SOL    HW1 1766   3.925   6.050  12.806
66623SOL    HW2 1767   3.826   6.141  12.876
66624SOL     OW 1768   3.258  14.201   4.036
66624SOL    HW1 1769   3.236  14.286   3.999
66624SOL    HW2 1770   3.318  14.221   4.107
66625SOL     OW 1771  10.880  12.501   7.989
66625SOL    HW1 1772  10.963  12.546   8.007
66625SOL    HW2 1773  10.899  12.409   8.001
66626SOL     OW 1774   3.007   3.701  13.317
66626SOL    HW1 1775   3.092   3.739  13.338
66626SOL    HW2 1776   2.966   3.765  13.260
66627SOL     OW 1777  12.743  11.661   8.830
66627SOL    HW1 1778  12.726  11.687   8.739
66627SOL    HW2 1779  12.837  11.676   8.842
66628SOL     OW 1780  11.041   0.948  12.549
66628SOL    HW1 1781  10.985   1.007  12.497
66628SOL    HW2 1782  11.086   0.894  12.484
66629SOL     OW 1783   2.400  11.516  14.133
66629SOL    HW1 1784   2.456  11.576  14.182
66629SOL    HW2 1785   2.313  11.555  14.140
66630SOL     OW 1786   4.249  13.781   1.321
66630SOL    HW1 1787   4.282  13.752   1.406
66630SOL    HW2 1788   4.163  13.739   1.313
66631SOL     OW 1789   9.220   5.683   9.887
66631SOL    HW1 1790   9.256   5.767   9.913
66631SOL    HW2 1791   9.215   5.632   9.968
66632SOL     OW 1792   6.693  12.764  11.053
66632SOL    HW1 1793   6.678  12.671  11.037
66632SOL    HW2 1794   6.675  12.806  10.969
66633SOL     OW 1795   7.109   3.927   4.241
66633SOL    HW1 1796   7.020   3.930   4.205
66633SOL    HW2 1797   7.166   3.932   4.164
66634SOL     OW 1798   4.277   4.493  10.733
66634SOL    HW1 1799   4.233   4.451  10.806
66634SOL    HW2 1800   4.347   4.433  10.708
66635SOL     OW 1801  10.541  13.680   5.682
66635SOL    HW1 1802  10.513  13.589   5.687
66635SOL    HW2 1803  10.520  13.717   5.768
66636SOL     OW 1804  11.735   7.141   0.729
66636SOL    HW1 1805  11.797   7.164   0.798
66636SOL    HW2 1806  11.693   7.223   0.706
66637SOL     OW 1807   8.159  11.080   0.209
66637SOL    HW1 1808   8.082  11.135   0.195
66637SOL    HW2 1809   8.145  11.043   0.296
66638SOL     OW 1810   2.289   5.122   5.771
66638SOL    HW1 1811   2.319   5.054   5.831
66638SOL    HW2 1812   2.262   5.074   5.693
66639SOL     OW 1813   1.000  12.547  13.916
66639SOL    HW1 1814   1.093  12.549  13.940
66639SOL    HW2 1815   0.972  12.457  13.937
66640SOL     OW 1816  12.486   5.390   3.811
66640SOL    HW1 1817  12.449   5.478   3.825
66640SOL    HW2 1818  12.573   5.394   3.852
66641SOL     OW 1819  13.135   6.961   1.318
66641SOL    HW1 1820  13.125   6.867   1.301
66641SOL    HW2 1821  13.213   6.986   1.269
66642SOL     OW 1822   6.907   5.025  10.712
66642SOL    HW1 1823   6.978   4.967  10.740
66642SOL    HW2 1824   6.933   5.054  10.624
66643SOL     OW 1825   2.684   0.318   3.347
66643SOL    HW1 1826   2.710   0.388   3.406
66643SOL    HW2 1827   2.597   0.293   3.376
66644SOL     OW 1828   4.039   9.974   1.139
66644SOL    HW1 1829   4.044  10.070   1.142
66644SOL    HW2 1830   4.131   9.945   1.142
66645SOL     OW 1831  13.857   3.801   7.957
66645SOL    HW1 1832  13.868   3.887   7.915
66645SOL    HW2 1833  13.923   3.799   8.026
66646SOL     OW 1834   2.202   0.627   6.780
66646SOL    HW1 1835   2.295   0.646   6.776
66646SOL    HW2 1836   2.194   0.539   6.743
66647SOL     OW 1837  14.231   2.583   1.439
66647SOL    HW1 1838  14.271   2.663   1.406
66647SOL    HW2 1839  14.170   2.612   1.507
66648SOL     OW 1840  11.459   7.530   1.202
66648SOL    HW1 1841  11.388   7.468   1.186
66648SOL    HW2 1842  11.538   7.485   1.173
66649SOL     OW 1843   2.958   2.456   7.190
66649SOL    HW1 1844   3.011   2.530   7.161
66649SOL    HW2 1845   2.884   2.497   7.236
66650SOL     OW 1846   6.367   4.151   1.279
66650SOL    HW1 1847   6.462   4.158   1.284
66650SOL    HW2 1848   6.339   4.232   1.236
66651SOL     OW 1849   9.716   5.410   7.837
66651SOL    HW1 1850   9.663   5.352   7.783
66651SOL    HW2 1851   9.745   5.479   7.776
66652SOL     OW 1852  12.634   6.024  11.847
66652SOL    HW1 1853  12.685   5.952  11.885
66652SOL    HW2 1854  12.584   5.984  11.776
66653SOL     OW 1855   6.640   9.199   5.289
66653SOL    HW1 1856   6.559   9.249   5.282
66653SOL    HW2 1857   6.645   9.175   5.382
66654SOL     OW 1858  10.985   9.946   6.438
66654SOL    HW1 1859  11.026   9.926   6.522
66654SOL    HW2 1860  11.055   9.984   6.386
66655SOL     OW 1861   4.798   9.562   3.082
66655SOL    HW1 1862   4.753   9.478   3.096
66655SOL    HW2 1863   4.881   9.552   3.128
66656SOL     OW 1864   5.360  14.828   9.267
66656SOL    HW1 1865   5.293  14.770   9.303
66656SOL    HW2 1866   5.311   0.017   9.221
66657SOL     OW 1867  13.557  13.435  11.539
66657SOL    HW1 1868  13.608  13.428  11.620
66657SOL    HW2 1869  13.615  13.402  11.471
66658SOL     OW 1870  10.381  13.660   5.302
66658SOL    HW1 1871  10.380  13.648   5.397
66658SOL    HW2 1872  10.306  13.715   5.283
66659SOL     OW 1873  11.344  11.997   5.157
66659SOL    HW1 1874  11.356  12.033   5.069
66659SOL    HW2 1875  11.369  11.905   5.148
66660SOL     OW 1876   6.135  14.131   7.553
66660SOL    HW1 1877   6.040  14.127   7.553
66660SOL    HW2 1878   6.156  14.188   7.478
66661SOL     OW 1879   4.216  11.958   2.630
66661SOL    HW1 1880   4.212  11.880   2.575
66661SOL    HW2 1881   4.127  11.969   2.663
66662SOL     OW 1882   6.429   5.683   5.601
66662SOL    HW1 1883   6.461   5.768   5.630
66662SOL    HW2 1884   6.460   5.675   5.511
66663SOL     OW 1885  11.709  11.262  12.933
66663SOL    HW1 1886  11.626  11.297  12.902
66663SOL    HW2 1887  11.748  11.221  12.856
66664SOL     OW 1888  12.839  14.630   2.383
66664SOL    HW1 1889  12.758  14.675   2.357
66664SOL    HW2 1890  12.887  14.696   2.433
66665SOL     OW 1891   8.896   3.273   5.061
66665SOL    HW1 1892   8.808   3.312   5.065
66665SOL    HW2 1893   8.948   3.323   5.124
66666SOL     OW 1894  13.593   1.177   5.315
66666SOL    HW1 1895  13.646   1.117   5.368
66666SOL    HW2 1896  13.513   1.128   5.297
66667SOL     OW 1897   6.301   6.595   6.827
66667SOL    HW1 1898   6.297   6.660   6.757
66667SOL    HW2 1899   6.380   6.544   6.808
66668SOL     OW 1900   6.814   7.626   4.018
66668SOL    HW1 1901   6.875   7.601   3.949
66668SOL    HW2 1902   6.789   7.543   4.059
66669SOL     OW 1903   6.388   4.677   8.558
66669SOL    HW1 1904   6.339   4.695   8.477
66669SOL    HW2 1905   6.440   4.599   8.538
66670SOL     OW 1906  13.952  14.549  13.955
66670SOL    HW1 1907  13.892  14.519  14.023
66670SOL    HW2 1908  14.029  14.579  14.003
66671SOL     OW 1909   8.257   7.163  11.664
66671SOL    HW1 1910   8.218   7.077  11.676
66671SOL    HW2 1911   8.342   7.145  11.625
66672SOL     OW 1912  12.241  11.445   8.369
66672SOL    HW1 1913  12.251  11.535   8.338
66672SOL    HW2 1914  12.172  11.450   8.435
66673SOL     OW 1915   1.123  13.055   8.362
66673SOL    HW1 1916   1.048  12.996   8.354
66673SOL    HW2 1917   1.104  13.126   8.301
66674SOL     OW 1918  12.542   5.769   5.171
66674SOL    HW1 1919  12.614   5.787   5.110
66674SOL    HW2 1920  12.583   5.770   5.258
66675SOL     OW 1921  12.383  11.740   6.395
66675SOL    HW1 1922  12.401  11.831   6.418
66675SOL    HW2 1923  12.387  11.738   6.299
66676SOL     OW 1924  14.270   2.827   2.257
66676SOL    HW1 1925  14.257   2.736   2.233
66676SOL    HW2 1926  14.339   2.825   2.322
66677SOL     OW 1927   4.242   8.633   8.302
66677SOL    HW1 1928   4.337   8.634   8.313
66677SOL    HW2 1929   4.229   8.608   8.210
66678SOL     OW 1930   6.951   1.753   0.398
66678SOL    HW1 1931   6.991   1.821   0.344
66678SOL    HW2 1932   6.975   1.671   0.355
66679SOL     OW 1933   5.710   8.218   1.139
66679SOL    HW1 1934   5.689   8.130   1.106
66679SOL    HW2 1935   5.665   8.277   1.078
66680SOL     OW 1936   8.087   1.980   3.437
66680SOL    HW1 1937   8.078   1.890   3.470
66680SOL    HW2 1938   8.012   2.027   3.474
66681SOL     OW 1939   5.450   9.683  10.209
66681SOL    HW1 1940   5.523   9.685  10.271
66681SOL    HW2 1941   5.461   9.601  10.161
66682SOL     OW 1942  12.709   1.009   4.320
66682SOL    HW1 1943  12.624   1.052   4.329
66682SOL    HW2 1944  12.768   1.079   4.292
66683SOL     OW 1945   6.720   1.169   8.261
66683SOL    HW1 1946   6.671   1.237   8.306
66683SOL    HW2 1947   6.653   1.114   8.219
66684SOL     OW 1948  12.611  12.951   2.331
66684SOL    HW1 1949  12.682  13.011   2.311
66684SOL    HW2 1950  12.534  13.007   2.340
66685SOL     OW 1951   9.407   9.167   5.073
66685SOL    HW1 1952   9.383   9.074   5.074
66685SOL    HW2 1953   9.323   9.213   5.075
66686SOL     OW 1954   1.164   0.077  12.390
66686SOL    HW1 1955   1.085   0.033  12.360
66686SOL    HW2 1956   1.147   0.170  12.376
66687SOL     OW 1957   1.714   5.407  12.774
66687SOL    HW1 1958   1.725   5.357  12.694
66687SOL    HW2 1959   1.788   5.381  12.829
66688SOL     OW 1960   2.022   9.829  11.215
66688SOL    HW1 1961   2.028   9.923  11.199
66688SOL    HW2 1962   2.110   9.796  11.198
66689SOL     OW 1963  13.036   9.055   7.342
66689SOL    HW1 1964  13.066   9.020   7.427
66689SOL    HW2 1965  12.952   9.096   7.361
66690SOL     OW 1966   6.904   8.264   5.344
66690SOL    HW1 1967   6.881   8.349   5.305
66690SOL    HW2 1968   6.821   8.216   5.347
66691SOL     OW 1969   1.732   3.263   6.575
66691SOL    HW1 1970   1.659   3.255   6.636
66691SOL    HW2 1971   1.792   3.192   6.599
66692SOL     OW 1972  14.154  12.702   6.670
66692SOL    HW1 1973  14.226  12.751   6.710
66692SOL    HW2 1974  14.118  12.762   6.604
66693SOL     OW 1975   2.652   9.360  11.737
66693SOL    HW1 1976   2.661   9.429  11.671
66693SOL    HW2 1977   2.687   9.281  11.694
66694SOL     OW 1978   0.530  13.928  13.910
66694SOL    HW1 1979   0.541  13.913  14.004
66694SOL    HW2 1980   0.509  14.021  13.903
66695SOL     OW 1981   0.759  12.943   6.781
66695SOL    HW1 1982   0.761  13.031   6.744
66695SOL    HW2 1983   0.728  12.887   6.710
66696SOL     OW 1984   0.413   9.050   8.642
66696SOL    HW1 1985   0.346   8.984   8.659
66696SOL    HW2 1986   0.489   9.021   8.693
66697SOL     OW 1987   6.396   7.511   4.256
66697SOL    HW1 1988   6.316   7.564   4.249
66697SOL    HW2 1989   6.410   7.479   4.167
66698SOL     OW 1990   1.494  11.167   3.162
66698SOL    HW1 1991   1.434  11.103   3.123
66698SOL    HW2 1992   1.535  11.210   3.086
66699SOL     OW 1993  11.065  12.960  14.423
66699SOL    HW1 1994  11.085  12.942  14.331
66699SOL    HW2 1995  11.124  12.902  14.472
66700SOL     OW 1996  13.357   6.803   0.277
66700SOL    HW1 1997  13.418   6.775   0.209
66700SOL    HW2 1998  13.408   6.864   0.331
66701SOL     OW 1999   9.008   4.775   2.324
66701SOL    HW1 2000   9.037   4.707   2.385
66701SOL    HW2 2001   8.921   4.747   2.297
66702SOL     OW 2002   8.387   5.563  11.823
66702SOL    HW1 2003   8.477   5.593  11.809
66702SOL    HW2 2004   8.391   5.468  11.807
66703SOL     OW 2005   6.839   7.678  14.175
66703SOL    HW1 2006   6.932   7.672  14.157
66703SOL    HW2 2007   6.803   7.728  14.102
66704SOL     OW 2008  12.361   9.946   8.184
66704SOL    HW1 2009  12.268   9.935   8.166
66704SOL    HW2 2010  12.405   9.894   8.117
66705SOL     OW 2011   7.225  10.581   3.851
66705SOL    HW1 2012   7.252  10.654   3.796
66705SOL    HW2 2013   7.220  10.618   3.939
66706SOL     OW 2014   1.766  12.449  13.529
66706SOL    HW1 2015   1.678  12.430  13.563
66706SOL    HW2 2016   1.793  12.528  13.575
66707SOL     OW 2017  12.907   1.728   3.815
66707SOL    HW1 2018  12.983   1.714   3.872
66707SOL    HW2 2019  12.886   1.640   3.782
66708SOL     OW 2020   4.773   0.722  14.598
66708SOL    HW1 2021   4.766   0.806  14.553
66708SOL    HW2 2022   4.707   0.725  14.667
66709SOL     OW 2023   5.257   9.129   2.367
66709SOL    HW1 2024   5.292   9.198   2.424
66709SOL    HW2 2025   5.225   9.176   2.291
66710SOL     OW 2026  12.552   1.169  11.687
66710SOL    HW1 2027  12.480   1.106  11.688
66710SOL    HW2 2028  12.619   1.128  11.631
66711SOL     OW 2029   5.070   3.421   9.484
66711SOL    HW1 2030   5.054   3.421   9.390
66711SOL    HW2 2031   5.012   3.488   9.519
66712SOL     OW 2032  12.457   5.266   3.129
66712SOL    HW1 2033  12.393   5.223   3.185
66712SOL    HW2 2034  12.405   5.313   3.064
66713SOL     OW 2035   3.674  13.759  14.420
66713SOL    HW1 2036   3.636  13.682  14.377
66713SOL    HW2 2037   3.730  13.722  14.489
66714SOL     OW 2038  11.691  14.709   3.303
66714SOL    HW1 2039  11.743  14.710   3.384
66714SOL    HW2 2040  11.627  14.779   3.316
66715SOL     OW 2041  11.780  12.194   9.957
66715SOL    HW1 2042  11.864  12.159   9.930
66715SOL    HW2 2043  11.737  12.121  10.003
66716SOL     OW 2044   1.718   0.194   8.999
66716SOL    HW1 2045   1.692   0.116   8.950
66716SOL    HW2 2046   1.650   0.258   8.980
66717SOL     OW 2047   1.583   1.209   6.289
66717SOL    HW1 2048   1.517   1.196   6.357
66717SOL    HW2 2049   1.667   1.201   6.334
66718SOL     OW 2050   4.675  13.666   9.222
66718SOL    HW1 2051   4.720  13.713   9.152
66718SOL    HW2 2052   4.582  13.684   9.208
66719SOL     OW 2053  13.070   5.509  10.782
66719SOL    HW1 2054  13.120   5.580  10.823
66719SOL    HW2 2055  12.979   5.528  10.804
66720SOL     OW 2056   0.814   9.458  10.880
66720SOL    HW1 2057   0.728   9.480  10.844
66720SOL    HW2 2058   0.871   9.527  10.848
66721SOL     OW 2059   8.232  10.152   9.298
66721SOL    HW1 2060   8.178  10.157   9.220
66721SOL    HW2 2061   8.171  10.163   9.371
66722SOL     OW 2062   4.118  10.610  10.810
66722SOL    HW1 2063   4.064  10.679  10.771
66722SOL    HW2 2064   4.198  10.608  10.757
66723SOL     OW 2065   6.210   7.148   9.245
66723SOL    HW1 2066   6.305   7.156   9.234
66723SOL    HW2 2067   6.173   7.217   9.190
66724SOL     OW 2068   6.126  12.141   5.552
66724SOL    HW1 2069   6.045  12.174   5.514
66724SOL    HW2 2070   6.176  12.106   5.478
66725SOL     OW 2071  13.224   4.474   7.231
66725SOL    HW1 2072  13.273   4.439   7.157
66725SOL    HW2 2073  13.132   4.454   7.211
66726SOL     OW 2074   4.004  11.214   2.883
66726SOL    HW1 2075   3.919  11.173   2.871
66726SOL    HW2 2076   4.003  11.290   2.825
66727SOL     OW 2077   5.473  10.511  13.787
66727SOL    HW1 2078   5.531  10.461  13.730
66727SOL    HW2 2079   5.455  10.452  13.861
66728SOL     OW 2080   7.360  12.386   3.463
66728SOL    HW1 2081   7.403  12.300   3.465
66728SOL    HW2 2082   7.409  12.439   3.526
66729SOL     OW 2083  14.743  12.431   9.736
66729SOL    HW1 2084  14.666  12.467   9.692
66729SOL    HW2 2085  14.726  12.444   9.829
66730SOL     OW 2086   5.624  10.501   9.297
66730SOL    HW1 2087   5.624  10.557   9.219
66730SOL    HW2 2088   5.631  10.412   9.262
66731SOL     OW 2089  11.205   6.777   7.442
66731SOL    HW1 2090  11.172   6.849   7.388
66731SOL    HW2 2091  11.191   6.699   7.388
66732SOL     OW 2092   0.962   4.419   7.955
66732SOL    HW1 2093   0.955   4.367   7.876
66732SOL    HW2 2094   0.928   4.505   7.930
66733SOL     OW 2095   3.459   0.033   7.465
66733SOL    HW1 2096   3.429  14.872   7.546
66733SOL    HW2 2097   3.477  14.839   7.407
66734SOL     OW 2098  14.508   0.222  10.287
66734SOL    HW1 2099  14.456   0.274  10.347
66734SOL    HW2 2100  14.532   0.283  10.217
66735SOL     OW 2101   4.486   5.201   6.326
66735SOL    HW1 2102   4.579   5.222   6.334
66735SOL    HW2 2103   4.484   5.120   6.274
66736SOL     OW 2104   9.576  12.406   9.788
66736SOL    HW1 2105   9.619  12.490   9.802
66736SOL    HW2 2106   9.635  12.343   9.830
66737SOL     OW 2107   4.804   0.654   2.242
66737SOL    HW1 2108   4.714   0.628   2.263
66737SOL    HW2 2109   4.823   0.609   2.159
66738SOL     OW 2110   2.520   1.599  13.978
66738SOL    HW1 2111   2.485   1.602  14.067
66738SOL    HW2 2112   2.614   1.582  13.989
66739SOL     OW 2113  11.088   0.364  14.371
66739SOL    HW1 2114  11.133   0.345  14.289
66739SOL    HW2 2115  11.105   0.287  14.426
66740SOL     OW 2116   0.167  10.028   5.696
66740SOL    HW1 2117   0.077  10.010   5.723
66740SOL    HW2 2118   0.157  10.082   5.617
66741SOL     OW 2119  13.046   9.114   3.999
66741SOL    HW1 2120  13.131   9.150   3.972
66741SOL    HW2 2121  13.058   9.094   4.092
66742SOL     OW 2122   0.857   1.146  10.371
66742SOL    HW1 2123   0.862   1.197  10.452
66742SOL    HW2 2124   0.795   1.076  10.390
66743SOL     OW 2125  12.431   5.321   5.870
66743SOL    HW1 2126  12.492   5.249   5.854
66743SOL    HW2 2127  12.393   5.302   5.955
66744SOL     OW 2128  10.487   9.892   3.675
66744SOL    HW1 2129  10.552   9.823   3.692
66744SOL    HW2 2130  10.524   9.942   3.603
66745SOL     OW 2131   6.233   4.380   7.179
66745SOL    HW1 2132   6.256   4.470   7.203
66745SOL    HW2 2133   6.264   4.327   7.253
66746SOL     OW 2134   2.594   5.264   7.209
66746SOL    HW1 2135   2.556   5.222   7.286
66746SOL    HW2 2136   2.618   5.191   7.152
66747SOL     OW 2137   5.790   6.148  13.384
66747SOL    HW1 2138   5.786   6.092  13.306
66747SOL    HW2 2139   5.806   6.236  13.351
66748SOL     OW 2140   4.450   9.069   6.290
66748SOL    HW1 2141   4.468   9.068   6.384
66748SOL    HW2 2142   4.516   9.011   6.253
66749SOL     OW 2143   5.342   4.126   4.582
66749SOL    HW1 2144   5.347   4.074   4.663
66749SOL    HW2 2145   5.361   4.215   4.609
66750SOL     OW 2146   2.154  11.525   3.743
66750SOL    HW1 2147   2.147  11.430   3.750
66750SOL    HW2 2148   2.205  11.551   3.820
66751SOL     OW 2149  10.246  12.944  13.883
66751SOL    HW1 2150  10.166  12.983  13.847
66751SOL    HW2 2151  10.317  12.998  13.848
66752SOL     OW 2152   2.788   4.917  11.337
66752SOL    HW1 2153   2.772   4.901  11.244
66752SOL    HW2 2154   2.705   4.896  11.379
66753SOL     OW 2155  13.792   1.322  10.168
66753SOL    HW1 2156  13.792   1.286  10.257
66753SOL    HW2 2157  13.721   1.276  10.123
66754SOL     OW 2158   0.544  11.431   9.215
66754SOL    HW1 2159   0.600  11.396   9.146
66754SOL    HW2 2160   0.491  11.498   9.171
66755SOL     OW 2161   1.382   2.720   1.079
66755SOL    HW1 2162   1.407   2.811   1.062
66755SOL    HW2 2163   1.307   2.727   1.138
66756SOL     OW 2164  10.452   9.050   1.624
66756SOL    HW1 2165  10.475   9.018   1.711
66756SOL    HW2 2166  10.359   9.030   1.615
66757SOL     OW 2167   6.855   4.551  11.783
66757SOL    HW1 2168   6.920   4.609  11.822
66757SOL    HW2 2169   6.906   4.478  11.748
66758SOL     OW 2170   5.648   4.521   0.256
66758SOL    HW1 2171   5.612   4.579   0.324
66758SOL    HW2 2172   5.671   4.441   0.302
66759SOL     OW 2173   9.461   8.389   7.238
66759SOL    HW1 2174   9.446   8.448   7.164
66759SOL    HW2 2175   9.373   8.371   7.272
66760SOL     OW 2176   4.079   0.967  13.679
66760SOL    HW1 2177   4.040   0.956  13.592
66760SOL    HW2 2178   4.167   1.002  13.662
66761SOL     OW 2179   9.508  12.379  10.130
66761SOL    HW1 2180   9.493  12.295  10.174
66761SOL    HW2 2181   9.598  12.372  10.097
66762SOL     OW 2182  11.262   9.599  12.320
66762SOL    HW1 2183  11.179   9.555  12.306
66762SOL    HW2 2184  11.310   9.587  12.238
66763SOL     OW 2185  10.591  10.826  10.287
66763SOL    HW1 2186  10.507  10.790  10.257
66763SOL    HW2 2187  10.638  10.849  10.207
66764SOL     OW 2188   6.351   7.072  13.363
66764SOL    HW1 2189   6.268   7.086  13.407
66764SOL    HW2 2190   6.399   7.011  13.419
66765SOL     OW 2191   2.640   4.395   0.398
66765SOL    HW1 2192   2.707   4.419   0.462
66765SOL    HW2 2193   2.687   4.396   0.314
66766SOL     OW 2194   9.350   3.590   6.298
66766SOL    HW1 2195   9.262   3.571   6.267
66766SOL    HW2 2196   9.346   3.576   6.392
66767SOL     OW 2197   8.498   9.451   1.762
66767SOL    HW1 2198   8.574   9.503   1.737
66767SOL    HW2 2199   8.424   9.512   1.754
66768SOL     OW 2200   7.665   4.082  11.431
66768SOL    HW1 2201   7.722   4.039  11.368
66768SOL    HW2 2202   7.672   4.175  11.410
66769SOL     OW 2203   8.982   6.313   2.193
66769SOL    HW1 2204   9.029   6.243   2.240
66769SOL    HW2 2205   8.895   6.314   2.234
66770SOL     OW 2206   7.452   9.243   3.738
66770SOL    HW1 2207   7.497   9.184   3.677
66770SOL    HW2 2208   7.359   9.223   3.726
66771SOL     OW 2209   1.483  13.929  10.668
66771SOL    HW1 2210   1.458  13.899  10.581
66771SOL    HW2 2211   1.532  13.856  10.706
66772SOL     OW 2212  10.837   1.051  14.778
66772SOL    HW1 2213  10.790   0.993  14.718
66772SOL    HW2 2214  10.923   1.011  14.788
66773SOL     OW 2215   4.457   4.760   2.907
66773SOL    HW1 2216   4.456   4.856   2.907
66773SOL    HW2 2217   4.549   4.737   2.911
66774SOL     OW 2218   0.537  10.944   3.464
66774SOL    HW1 2219   0.569  10.886   3.533
66774SOL    HW2 2220   0.454  10.977   3.498
66775SOL     OW 2221  12.596  10.264  10.301
66775SOL    HW1 2222  12.663  10.300  10.359
66775SOL    HW2 2223  12.618  10.298  10.215
66776SOL     OW 2224   7.862   2.702   5.761
66776SOL    HW1 2225   7.863   2.770   5.693
66776SOL    HW2 2226   7.835   2.749   5.840
66777SOL     OW 2227  10.151  13.102   5.665
66777SOL    HW1 2228  10.133  13.045   5.740
66777SOL    HW2 2229  10.242  13.083   5.642
66778SOL     OW 2230   1.448   9.383   0.758
66778SOL    HW1 2231   1.441   9.305   0.704
66778SOL    HW2 2232   1.529   9.372   0.807
66779SOL     OW 2233  11.341  11.634   0.212
66779SOL    HW1 2234  11.341  11.729   0.196
66779SOL    HW2 2235  11.378  11.625   0.300
66780SOL     OW 2236   8.894   8.899   9.337
66780SOL    HW1 2237   8.981   8.903   9.375
66780SOL    HW2 2238   8.835   8.917   9.410
66781SOL     OW 2239   7.345   9.077  14.858
66781SOL    HW1 2240   7.427   9.069   0.028
66781SOL    HW2 2241   7.277   9.087   0.045
66782SOL     OW 2242   0.128   7.194  13.274
66782SOL    HW1 2243   0.175   7.194  13.191
66782SOL    HW2 2244   0.037   7.211  13.250
66783SOL     OW 2245   4.790   0.006   1.387
66783SOL    HW1 2246   4.709   0.057   1.381
66783SOL    HW2 2247   4.855   0.058   1.340
66784SOL     OW 2248   6.231  11.339   8.703
66784SOL    HW1 2249   6.324  11.343   8.723
66784SOL    HW2 2250   6.225  11.365   8.611
66785SOL     OW 2251   2.817   5.922  11.723
66785SOL    HW1 2252   2.729   5.959  11.732
66785SOL    HW2 2253   2.837   5.930  11.630
66786SOL     OW 2254   6.802   8.278  11.658
66786SOL    HW1 2255   6.859   8.222  11.711
66786SOL    HW2 2256   6.714   8.247  11.677
66787SOL     OW 2257   2.765   8.456  14.297
66787SOL    HW1 2258   2.805   8.463  14.384
66787SOL    HW2 2259   2.815   8.518  14.243
66788SOL     OW 2260   1.590  12.255   7.771
66788SOL    HW1 2261   1.616  12.319   7.704
66788SOL    HW2 2262   1.494  12.251   7.763
66789SOL     OW 2263   2.473   4.291   6.929
66789SOL    HW1 2264   2.390   4.281   6.884
66789SOL    HW2 2265   2.526   4.217   6.900
66790SOL     OW 2266   8.348  13.527  13.110
66790SOL    HW1 2267   8.269  13.550  13.160
66790SOL    HW2 2268   8.404  13.604  13.118
66791SOL     OW 2269   7.931   6.636   8.176
66791SOL    HW1 2270   8.005   6.664   8.121
66791SOL    HW2 2271   7.970   6.619   8.262
66792SOL     OW 2272   7.310  11.565  14.711
66792SOL    HW1 2273   7.303  11.489  14.653
66792SOL    HW2 2274   7.221  11.578  14.744
66793SOL     OW 2275  10.866  10.804   0.509
66793SOL    HW1 2276  10.927  10.876   0.527
66793SOL    HW2 2277  10.785  10.831   0.554
66794SOL     OW 2278   8.366  13.934   1.727
66794SOL    HW1 2279   8.309  13.947   1.651
66794SOL    HW2 2280   8.410  14.018   1.739
66795SOL     OW 2281  11.594  12.485   7.436
66795SOL    HW1 2282  11.609  12.555   7.499
66795SOL    HW2 2283  11.611  12.525   7.351
66796SOL     OW 2284  12.354   1.147  12.117
66796SOL    HW1 2285  12.282   1.156  12.178
66796SOL    HW2 2286  12.432   1.164  12.169
66797SOL     OW 2287  11.876   4.153   3.958
66797SOL    HW1 2288  11.927   4.121   4.033
66797SOL    HW2 2289  11.791   4.177   3.995
66798SOL     OW 2290   5.352  13.604   1.740
66798SOL    HW1 2291   5.366  13.509   1.737
66798SOL    HW2 2292   5.311  13.625   1.657
66799SOL     OW 2293   4.208   1.661  12.938
66799SOL    HW1 2294   4.240   1.695  12.855
66799SOL    HW2 2295   4.152   1.587  12.914
66800SOL     OW 2296  10.707  14.877   8.728
66800SOL    HW1 2297  10.748   0.045   8.801
66800SOL    HW2 2298  10.760  14.799   8.718
66801SOL     OW 2299   5.906  11.219  11.111
66801SOL    HW1 2300   5.850  11.294  11.092
66801SOL    HW2 2301   5.879  11.189  11.198
66802SOL     OW 2302   3.184  13.373   0.281
66802SOL    HW1 2303   3.137  13.387   0.198
66802SOL    HW2 2304   3.114  13.363   0.346
66803SOL     OW 2305  11.598  10.975   2.267
66803SOL    HW1 2306  11.672  10.997   2.325
66803SOL    HW2 2307  11.629  10.998   2.179
66804SOL     OW 2308  14.387   3.366   6.895
66804SOL    HW1 2309  14.432   3.298   6.945
66804SOL    HW2 2310  14.298   3.332   6.883
66805SOL     OW 2311   4.539  13.488  14.529
66805SOL    HW1 2312   4.564  13.399  14.553
66805SOL    HW2 2313   4.608  13.543  14.567
66806SOL     OW 2314   6.493   8.485  11.997
66806SOL    HW1 2315   6.427   8.436  12.046
66806SOL    HW2 2316   6.465   8.478  11.906
66807SOL     OW 2317   5.373   1.178   3.063
66807SOL    HW1 2318   5.368   1.264   3.022
66807SOL    HW2 2319   5.449   1.136   3.023
66808SOL     OW 2320  12.147   0.470  12.774
66808SOL    HW1 2321  12.234   0.433  12.767
66808SOL    HW2 2322  12.160   0.565  12.768
66809SOL     OW 2323   7.703  11.810   1.543
66809SOL    HW1 2324   7.791  11.847   1.550
66809SOL    HW2 2325   7.715  11.726   1.500
66810SOL     OW 2326   1.594   6.209   5.904
66810SOL    HW1 2327   1.629   6.213   5.994
66810SOL    HW2 2328   1.593   6.115   5.884
66811SOL     OW 2329   5.541   8.023   9.351
66811SOL    HW1 2330   5.461   8.000   9.399
66811SOL    HW2 2331   5.558   7.946   9.296
66812SOL     OW 2332   7.015   7.826   8.197
66812SOL    HW1 2333   7.048   7.811   8.109
66812SOL    HW2 2334   7.091   7.859   8.245
66813SOL     OW 2335   2.850   8.888  10.773
66813SOL    HW1 2336   2.836   8.862  10.683
66813SOL    HW2 2337   2.914   8.825  10.807
66814SOL     OW 2338   8.678  14.478   9.414
66814SOL    HW1 2339   8.681  14.519   9.328
66814SOL    HW2 2340   8.622  14.536   9.467
66815SOL     OW 2341   4.596   6.655   3.125
66815SOL    HW1 2342   4.537   6.591   3.165
66815SOL    HW2 2343   4.571   6.655   3.032
66816SOL     OW 2344   8.468   9.474  13.714
66816SOL    HW1 2345   8.510   9.412  13.655
66816SOL    HW2 2346   8.409   9.525  13.658
66817SOL     OW 2347   8.497   1.566  11.274
66817SOL    HW1 2348   8.527   1.633  11.211
66817SOL    HW2 2349   8.546   1.488  11.250
66818SOL     OW 2350   5.199   7.689   1.090
66818SOL    HW1 2351   5.186   7.772   1.045
66818SOL    HW2 2352   5.111   7.656   1.105
66819SOL     OW 2353  12.955   0.464  11.737
66819SOL    HW1 2354  12.975   0.375  11.707
66819SOL    HW2 2355  12.865   0.479  11.710
66820SOL     OW 2356   1.334   5.187   8.748
66820SOL    HW1 2357   1.355   5.095   8.732
66820SOL    HW2 2358   1.417   5.233   8.736
66821SOL     OW 2359   8.222   0.704  12.539
66821SOL    HW1 2360   8.208   0.644  12.466
66821SOL    HW2 2361   8.237   0.789  12.498
66822SOL     OW 2362   4.490   1.550   4.475
66822SOL    HW1 2363   4.560   1.614   4.484
66822SOL    HW2 2364   4.418   1.599   4.436
66823SOL     OW 2365   8.126  13.819   0.952
66823SOL    HW1 2366   8.087  13.738   0.986
66823SOL    HW2 2367   8.052  13.869   0.918
66824SOL     OW 2368  10.470   7.993   3.801
66824SOL    HW1 2369  10.393   7.981   3.746
66824SOL    HW2 2370  10.476   7.911   3.852
66825SOL     OW 2371  11.359   5.855   7.757
66825SOL    HW1 2372  11.350   5.774   7.707
66825SOL    HW2 2373  11.450   5.855   7.787
66826SOL     OW 2374   3.458  13.667   1.730
66826SOL    HW1 2375   3.499  13.728   1.669
66826SOL    HW2 2376   3.420  13.599   1.675
66827SOL     OW 2377   2.347   0.136  10.893
66827SOL    HW1 2378   2.417   0.072  10.907
66827SOL    HW2 2379   2.271   0.083  10.870
66828SOL     OW 2380   3.984   8.435   0.442
66828SOL    HW1 2381   3.992   8.507   0.380
66828SOL    HW2 2382   3.922   8.466   0.508
66829SOL     OW 2383   9.179  11.255   8.690
66829SOL    HW1 2384   9.197  11.196   8.763
66829SOL    HW2 2385   9.241  11.327   8.701
66830SOL     OW 2386  10.604  10.874  11.400
66830SOL    HW1 2387  10.697  10.859  11.383
66830SOL    HW2 2388  10.603  10.920  11.484
66831SOL     OW 2389   5.530   1.874   5.333
66831SOL    HW1 2390   5.581   1.816   5.276
66831SOL    HW2 2391   5.583   1.953   5.341
66832SOL     OW 2392  13.096   4.898   7.100
66832SOL    HW1 2393  13.144   4.847   7.166
66832SOL    HW2 2394  13.008   4.860   7.100
66833SOL     OW 2395   0.241   3.868   7.978
66833SOL    HW1 2396   0.256   3.873   7.883
66833SOL    HW2 2397   0.211   3.956   8.002
66834SOL     OW 2398   3.157   2.830   2.309
66834SOL    HW1 2399   3.150   2.841   2.404
66834SOL    HW2 2400   3.199   2.745   2.297
66835SOL     OW 2401   6.678  13.270  12.986
66835SOL    HW1 2402   6.678  13.347  12.928
66835SOL    HW2 2403   6.712  13.199  12.932
66836SOL     OW 2404  10.159  13.769   9.933
66836SOL    HW1 2405  10.186  13.798   9.846
66836SOL    HW2 2406  10.228  13.709   9.961
66837SOL     OW 2407   2.323   4.649   2.207
66837SOL    HW1 2408   2.268   4.586   2.161
66837SOL    HW2 2409   2.412   4.631   2.174
66838SOL     OW 2410   8.610   4.915   2.421
66838SOL    HW1 2411   8.693   4.956   2.396
66838SOL    HW2 2412   8.555   4.988   2.451
66839SOL     OW 2413  14.408  10.820   1.962
66839SOL    HW1 2414  14.421  10.902   1.914
66839SOL    HW2 2415  14.493  10.777   1.960
66840SOL     OW 2416   2.156  10.525   2.495
66840SOL    HW1 2417   2.165  10.447   2.550
66840SOL    HW2 2418   2.087  10.576   2.537
66841SOL     OW 2419  10.541  10.428  11.606
66841SOL    HW1 2420  10.494  10.510  11.621
66841SOL    HW2 2421  10.553  10.424  11.512
66842SOL     OW 2422   0.655   1.583   6.939
66842SOL    HW1 2423   0.718   1.514   6.956
66842SOL    HW2 2424   0.615   1.560   6.855
66843SOL     OW 2425   5.014   6.411   2.831
66843SOL    HW1 2426   4.932   6.397   2.878
66843SOL    HW2 2427   4.987   6.443   2.745
66844SOL     OW 2428   1.466   8.850   5.425
66844SOL    HW1 2429   1.409   8.775   5.407
66844SOL    HW2 2430   1.482   8.846   5.520
66845SOL     OW 2431   8.688   3.071  14.349
66845SOL    HW1 2432   8.658   2.989  14.388
66845SOL    HW2 2433   8.775   3.085  14.386
66846SOL     OW 2434  11.750   7.464   1.298
66846SOL    HW1 2435  11.837   7.443   1.333
66846SOL    HW2 2436  11.704   7.505   1.372
66847SOL     OW 2437  11.418   8.291   6.564
66847SOL    HW1 2438  11.442   8.229   6.634
66847SOL    HW2 2439  11.354   8.243   6.511
66848SOL     OW 2440   4.306   8.903  10.784
66848SOL    HW1 2441   4.373   8.970  10.797
66848SOL    HW2 2442   4.223   8.950  10.790
66849SOL     OW 2443   0.254   3.860   2.378
66849SOL    HW1 2444   0.205   3.781   2.356
66849SOL    HW2 2445   0.192   3.931   2.366
66850SOL     OW 2446   3.073  13.007  11.292
66850SOL    HW1 2447   3.164  12.981  11.275
66850SOL    HW2 2448   3.048  12.956  11.369
66851SOL     OW 2449  11.594  14.637  14.686
66851SOL    HW1 2450  11.592  14.663  14.594
66851SOL    HW2 2451  11.595  14.720  14.735
66852SOL     OW 2452   4.170   0.519   6.766
66852SOL    HW1 2453   4.169   0.549   6.857
66852SOL    HW2 2454   4.242   0.456   6.762
66853SOL     OW 2455   6.701   9.482   9.407
66853SOL    HW1 2456   6.661   9.467   9.492
66853SOL    HW2 2457   6.651   9.428   9.347
66854SOL     OW 2458   0.061   4.227  14.242
66854SOL    HW1 2459   0.136   4.169  14.223
66854SOL    HW2 2460   0.098   4.295  14.298
66855SOL     OW 2461   3.876   7.117   5.330
66855SOL    HW1 2462   3.913   7.035   5.296
66855SOL    HW2 2463   3.947   7.154   5.384
66856SOL     OW 2464   1.215  10.500   3.023
66856SOL    HW1 2465   1.217  10.438   3.096
66856SOL    HW2 2466   1.242  10.584   3.061
66857SOL     OW 2467   4.423  13.988  11.558
66857SOL    HW1 2468   4.463  13.902  11.562
66857SOL    HW2 2469   4.490  14.048  11.593
66858SOL     OW 2470  11.816  14.632  12.137
66858SOL    HW1 2471  11.730  14.613  12.175
66858SOL    HW2 2472  11.876  14.573  12.182
66859SOL     OW 2473   0.556  12.525  13.167
66859SOL    HW1 2474   0.611  12.460  13.122
66859SOL    HW2 2475   0.615  12.565  13.230
66860SOL     OW 2476  13.976   9.067   7.275
66860SOL    HW1 2477  13.956   8.985   7.321
66860SOL    HW2 2478  14.011   9.124   7.343
66861SOL     OW 2479  12.873   5.661   2.850
66861SOL    HW1 2480  12.964   5.691   2.842
66861SOL    HW2 2481  12.876   5.593   2.917
66862SOL     OW 2482   6.141   5.959   1.646
66862SOL    HW1 2483   6.219   5.908   1.672
66862SOL    HW2 2484   6.125   6.017   1.721
66863SOL     OW 2485  14.671   2.886  10.883
66863SOL    HW1 2486  14.646   2.800  10.850
66863SOL    HW2 2487  14.610   2.946  10.840
66864SOL     OW 2488   2.221   7.941   7.392
66864SOL    HW1 2489   2.140   7.952   7.343
66864SOL    HW2 2490   2.261   7.863   7.354
66865SOL     OW 2491   9.242   6.437   9.222
66865SOL    HW1 2492   9.285   6.509   9.175
66865SOL    HW2 2493   9.209   6.479   9.302
66866SOL     OW 2494   7.393   7.159  12.258
66866SOL    HW1 2495   7.480   7.132  12.286
66866SOL    HW2 2496   7.334   7.096  12.299
66867SOL     OW 2497   7.351  10.169   3.427
66867SOL    HW1 2498   7.398  10.159   3.510
66867SOL    HW2 2499   7.305  10.253   3.436
66868SOL     OW 2500   0.630   0.822   9.684
66868SOL    HW1 2501   0.552   0.793   9.732
66868SOL    HW2 2502   0.659   0.899   9.732
66869SOL     OW 2503   5.676   4.829  10.843
66869SOL    HW1 2504   5.735   4.899  10.871
66869SOL    HW2 2505   5.677   4.835  10.747
66870SOL     OW 2506   1.778   1.239  12.130
66870SOL    HW1 2507   1.866   1.254  12.162
66870SOL    HW2 2508   1.788   1.235  12.034
66871SOL     OW 2509   1.467   7.466  12.155
66871SOL    HW1 2510   1.384   7.490  12.114
66871SOL    HW2 2511   1.442   7.408  12.227
66872SOL     OW 2512   0.898   6.637   1.509
66872SOL    HW1 2513   0.971   6.698   1.507
66872SOL    HW2 2514   0.858   6.644   1.422
66873SOL     OW 2515   5.192   0.193   3.695
66873SOL    HW1 2516   5.166   0.283   3.714
66873SOL    HW2 2517   5.183   0.185   3.600
66874SOL     OW 2518   2.236   2.135  12.366
66874SOL    HW1 2519   2.266   2.093  12.447
66874SOL    HW2 2520   2.240   2.066  12.300
66875SOL     OW 2521  12.378  11.365  12.351
66875SOL    HW1 2522  12.428  11.437  12.311
66875SOL    HW2 2523  12.403  11.368  12.444
66876SOL     OW 2524   6.800   6.616  14.787
66876SOL    HW1 2525   6.786   6.535  14.836
66876SOL    HW2 2526   6.733   6.614  14.718
66877SOL     OW 2527   4.244   1.713   0.860
66877SOL    HW1 2528   4.316   1.739   0.917
66877SOL    HW2 2529   4.205   1.637   0.904
66878SOL     OW 2530   6.009   5.108   9.125
66878SOL    HW1 2531   5.943   5.176   9.114
66878SOL    HW2 2532   6.014   5.065   9.040
66879SOL     OW 2533   6.994   1.479  13.158
66879SOL    HW1 2534   6.912   1.529  13.166
66879SOL    HW2 2535   6.993   1.418  13.231
66880SOL     OW 2536   8.546   2.427  11.545
66880SOL    HW1 2537   8.577   2.367  11.613
66880SOL    HW2 2538   8.467   2.386  11.510
66881SOL     OW 2539  10.262   3.990  10.381
66881SOL    HW1 2540  10.173   4.026  10.377
66881SOL    HW2 2541  10.316   4.056  10.337
66882SOL     OW 2542   0.756   0.832  14.436
66882SOL    HW1 2543   0.817   0.839  14.509
66882SOL    HW2 2544   0.676   0.874  14.467
66883SOL     OW 2545   1.897  12.097  14.003
66883SOL    HW1 2546   1.935  12.150  14.073
66883SOL    HW2 2547   1.913  12.147  13.923
66884SOL     OW 2548  13.835   2.729   9.426
66884SOL    HW1 2549  13.900   2.671   9.465
66884SOL    HW2 2550  13.878   2.765   9.349
66885SOL     OW 2551   9.951   1.754  12.029
66885SOL    HW1 2552   9.876   1.813  12.018
66885SOL    HW2 2553   9.970   1.757  12.123
66886SOL     OW 2554   4.144   1.163  10.206
66886SOL    HW1 2555   4.097   1.140  10.285
66886SOL    HW2 2556   4.109   1.249  10.181
66887SOL     OW 2557   2.197   8.358  10.184
66887SOL    HW1 2558   2.177   8.407  10.264
66887SOL    HW2 2559   2.263   8.295  10.210
66888SOL     OW 2560   1.249  13.353   2.267
66888SOL    HW1 2561   1.312  13.345   2.195
66888SOL    HW2 2562   1.259  13.443   2.298
66889SOL     OW 2563   4.863  13.574   7.756
66889SOL    HW1 2564   4.882  13.627   7.678
66889SOL    HW2 2565   4.796  13.624   7.803
66890SOL     OW 2566  14.640   2.583   3.414
66890SOL    HW1 2567  14.688   2.503   3.390
66890SOL    HW2 2568  14.640   2.635   3.334
66891SOL     OW 2569   0.134   1.810  11.475
66891SOL    HW1 2570   0.174   1.761  11.547
66891SOL    HW2 2571   0.107   1.893  11.516
66892SOL     OW 2572  12.403  13.579   4.069
66892SOL    HW1 2573  12.455  13.604   4.145
66892SOL    HW2 2574  12.426  13.643   4.002
66893SOL     OW 2575   0.217   2.065  10.251
66893SOL    HW1 2576   0.283   1.999  10.233
66893SOL    HW2 2577   0.156   2.059  10.177
66894SOL     OW 2578  11.554  14.094  10.523
66894SOL    HW1 2579  11.648  14.111  10.532
66894SOL    HW2 2580  11.543  14.071  10.431
66895SOL     OW 2581   4.841   7.769  11.971
66895SOL    HW1 2582   4.870   7.834  12.036
66895SOL    HW2 2583   4.872   7.804  11.887
66896SOL     OW 2584  13.921   0.308  11.416
66896SOL    HW1 2585  13.981   0.358  11.472
66896SOL    HW2 2586  13.928   0.350  11.330
66897SOL     OW 2587   1.222  12.738   6.306
66897SOL    HW1 2588   1.156  12.706   6.244
66897SOL    HW2 2589   1.211  12.684   6.384
66898SOL     OW 2590   9.962   8.820  14.821
66898SOL    HW1 2591  10.026   8.880  14.857
66898SOL    HW2 2592   9.909   8.792   0.016
66899SOL     OW 2593   9.849  11.149   3.677
66899SOL    HW1 2594   9.821  11.059   3.660
66899SOL    HW2 2595   9.768  11.201   3.676
66900SOL     OW 2596   3.197   2.288   1.094
66900SOL    HW1 2597   3.115   2.319   1.134
66900SOL    HW2 2598   3.242   2.241   1.165
66901SOL     OW 2599   8.144  13.096   4.032
66901SOL    HW1 2600   8.097  13.041   4.095
66901SOL    HW2 2601   8.099  13.181   4.036
66902SOL     OW 2602  11.289   9.068   0.477
66902SOL    HW1 2603  11.257   9.106   0.395
66902SOL    HW2 2604  11.318   9.144   0.528
66903SOL     OW 2605  14.420  10.935   2.204
66903SOL    HW1 2606  14.483  10.914   2.273
66903SOL    HW2 2607  14.451  10.887   2.128
66904SOL     OW 2608   4.932   6.057  10.199
66904SOL    HW1 2609   5.015   6.010  10.201
66904SOL    HW2 2610   4.948   6.130  10.138
66905SOL     OW 2611   9.975   2.156   0.742
66905SOL    HW1 2612  10.034   2.082   0.729
66905SOL    HW2 2613   9.932   2.137   0.826
66906SOL     OW 2614   6.174   2.019  13.077
66906SOL    HW1 2615   6.172   1.949  13.143
66906SOL    HW2 2616   6.215   2.093  13.122
66907SOL     OW 2617   2.117  10.455   7.562
66907SOL    HW1 2618   2.180  10.390   7.594
66907SOL    HW2 2619   2.166  10.537   7.562
66908SOL     OW 2620   5.664  10.383  13.631
66908SOL    HW1 2621   5.692  10.321  13.698
66908SOL    HW2 2622   5.745  10.421  13.597
66909SOL     OW 2623  11.635  12.762   1.413
66909SOL    HW1 2624  11.573  12.799   1.350
66909SOL    HW2 2625  11.708  12.733   1.359
66910SOL     OW 2626   4.428   0.188   4.401
66910SOL    HW1 2627   4.484   0.159   4.330
66910SOL    HW2 2628   4.481   0.253   4.448
66911SOL     OW 2629   4.903   2.605   9.859
66911SOL    HW1 2630   4.933   2.566   9.777
66911SOL    HW2 2631   4.943   2.550   9.927
66912SOL     OW 2632   0.478   4.222   9.305
66912SOL    HW1 2633   0.428   4.218   9.224
66912SOL    HW2 2634   0.531   4.143   9.304
66913SOL     OW 2635  11.726   1.307  10.063
66913SOL    HW1 2636  11.637   1.275  10.079
66913SOL    HW2 2637  11.714   1.401  10.046
66914SOL     OW 2638  10.360  11.488  13.909
66914SOL    HW1 2639  10.272  11.473  13.944
66914SOL    HW2 2640  10.398  11.401  13.900
66915SOL     OW 2641  12.323   5.249   0.425
66915SOL    HW1 2642  12.395   5.206   0.471
66915SOL    HW2 2643  12.297   5.321   0.483
66916SOL     OW 2644   1.147  14.609   4.692
66916SOL    HW1 2645   1.124  14.645   4.606
66916SOL    HW2 2646   1.068  14.564   4.721
66917SOL     OW 2647   9.153   5.151   5.828
66917SOL    HW1 2648   9.071   5.153   5.878
66917SOL    HW2 2649   9.148   5.229   5.772
66918SOL     OW 2650  14.728  11.542   0.852
66918SOL    HW1 2651  14.643  11.507   0.824
66918SOL    HW2 2652  14.736  11.516   0.944
66919SOL     OW 2653  14.003  14.256   1.556
66919SOL    HW1 2654  13.947  14.236   1.481
66919SOL    HW2 2655  14.091  14.228   1.529
66920SOL     OW 2656  10.483   1.642   8.831
66920SOL    HW1 2657  10.438   1.685   8.757
66920SOL    HW2 2658  10.576   1.651   8.810
66921SOL     OW 2659   7.675   5.485   8.750
66921SOL    HW1 2660   7.713   5.565   8.714
66921SOL    HW2 2661   7.699   5.487   8.843
66922SOL     OW 2662  12.460   8.826   0.259
66922SOL    HW1 2663  12.529   8.762   0.240
66922SOL    HW2 2664  12.421   8.794   0.341
66923SOL     OW 2665  13.789   2.705   9.823
66923SOL    HW1 2666  13.831   2.649   9.888
66923SOL    HW2 2667  13.695   2.692   9.836
66924SOL     OW 2668  13.410   4.949   5.944
66924SOL    HW1 2669  13.424   4.924   5.853
66924SOL    HW2 2670  13.387   4.867   5.989
66925SOL     OW 2671   0.535   2.732  13.512
66925SOL    HW1 2672   0.487   2.810  13.484
66925SOL    HW2 2673   0.508   2.663  13.452
66926SOL     OW 2674   1.198  10.655  11.784
66926SOL    HW1 2675   1.103  10.652  11.769
66926SOL    HW2 2676   1.214  10.588  11.851
66927SOL     OW 2677   8.134   2.018   4.885
66927SOL    HW1 2678   8.121   1.939   4.938
66927SOL    HW2 2679   8.206   1.995   4.826
66928SOL     OW 2680   7.072   3.076   1.806
66928SOL    HW1 2681   7.163   3.097   1.829
66928SOL    HW2 2682   7.033   3.160   1.783
66929SOL     OW 2683   0.343   9.056   7.650
66929SOL    HW1 2684   0.293   9.101   7.718
66929SOL    HW2 2685   0.324   9.105   7.570
66930SOL     OW 2686   7.471   5.897   1.412
66930SOL    HW1 2687   7.395   5.930   1.364
66930SOL    HW2 2688   7.493   5.967   1.473
66931SOL     OW 2689   8.257   2.977  10.538
66931SOL    HW1 2690   8.190   2.910  10.538
66931SOL    HW2 2691   8.210   3.059  10.523
66932SOL     OW 2692   2.920   6.207   1.742
66932SOL    HW1 2693   2.852   6.149   1.709
66932SOL    HW2 2694   2.890   6.234   1.829
66933SOL     OW 2695   4.854   9.559  12.036
66933SOL    HW1 2696   4.895   9.579  11.952
66933SOL    HW2 2697   4.811   9.475  12.022
66934SOL     OW 2698   5.302   9.395   8.213
66934SOL    HW1 2699   5.258   9.461   8.159
66934SOL    HW2 2700   5.235   9.367   8.275
66935SOL     OW 2701  12.621  13.299   2.462
66935SOL    HW1 2702  12.648  13.386   2.491
66935SOL    HW2 2703  12.551  13.315   2.398
66936SOL     OW 2704   6.360   0.109  10.198
66936SOL    HW1 2705   6.351   0.203  10.213
66936SOL    HW2 2706   6.411   0.078  10.274
66937SOL     OW 2707   8.613   5.744   6.631
66937SOL    HW1 2708   8.624   5.759   6.537
66937SOL    HW2 2709   8.524   5.774   6.649
66938SOL     OW 2710  11.679   9.094   8.290
66938SOL    HW1 2711  11.728   9.171   8.260
66938SOL    HW2 2712  11.708   9.024   8.232
66939SOL     OW 2713   7.289   5.930  14.359
66939SOL    HW1 2714   7.314   6.022  14.356
66939SOL    HW2 2715   7.223   5.925  14.428
66940SOL     OW 2716   0.913  13.142  10.835
66940SOL    HW1 2717   0.908  13.071  10.898
66940SOL    HW2 2718   0.854  13.209  10.870
66941SOL     OW 2719   1.534   7.428   3.939
66941SOL    HW1 2720   1.629   7.417   3.944
66941SOL    HW2 2721   1.521   7.507   3.887
66942SOL     OW 2722   6.494   7.939   5.806
66942SOL    HW1 2723   6.522   7.960   5.895
66942SOL    HW2 2724   6.432   7.867   5.817
66943SOL     OW 2725   6.658   2.435  13.638
66943SOL    HW1 2726   6.575   2.421  13.683
66943SOL    HW2 2727   6.673   2.529  13.646
66944SOL     OW 2728   7.495   2.708   7.849
66944SOL    HW1 2729   7.518   2.745   7.763
66944SOL    HW2 2730   7.532   2.770   7.912
66945SOL     OW 2731   4.590   6.029   1.974
66945SOL    HW1 2732   4.540   6.109   1.991
66945SOL    HW2 2733   4.640   6.048   1.894
66946SOL     OW 2734   1.470   0.033  10.534
66946SOL    HW1 2735   1.501   0.114  10.494
66946SOL    HW2 2736   1.550  14.868  10.563
66947SOL     OW 2737   8.124  13.964   5.015
66947SOL    HW1 2738   8.075  13.885   5.035
66947SOL    HW2 2739   8.200  13.961   5.074
66948SOL     OW 2740   6.650  12.573  14.085
66948SOL    HW1 2741   6.704  12.574  14.007
66948SOL    HW2 2742   6.707  12.537  14.153
66949SOL     OW 2743   1.422   7.170  11.574
66949SOL    HW1 2744   1.514   7.191  11.589
66949SOL    HW2 2745   1.377   7.197  11.654
66950SOL     OW 2746   6.491  13.972   8.969
66950SOL    HW1 2747   6.435  13.939   9.040
66950SOL    HW2 2748   6.429  14.010   8.907
66951SOL     OW 2749   4.258   1.770   1.295
66951SOL    HW1 2750   4.167   1.797   1.289
66951SOL    HW2 2751   4.306   1.833   1.242
66952SOL     OW 2752   0.243   7.392   5.341
66952SOL    HW1 2753   0.305   7.329   5.377
66952SOL    HW2 2754   0.158   7.349   5.348
66953SOL     OW 2755  13.193   8.001   4.090
66953SOL    HW1 2756  13.122   7.975   4.031
66953SOL    HW2 2757  13.153   8.064   4.150
66954SOL     OW 2758   1.479   8.615   0.709
66954SOL    HW1 2759   1.545   8.679   0.735
66954SOL    HW2 2760   1.528   8.533   0.702
66955SOL     OW 2761  11.999  12.570  14.879
66955SOL    HW1 2762  11.978  12.535  14.792
66955SOL    HW2 2763  11.970  12.501   0.060
66956SOL     OW 2764   3.082  12.307   2.773
66956SOL    HW1 2765   3.122  12.227   2.741
66956SOL    HW2 2766   3.119  12.376   2.718
66957SOL     OW 2767   9.364  13.992   3.580
66957SOL    HW1 2768   9.386  13.899   3.583
66957SOL    HW2 2769   9.436  14.033   3.532
66958SOL     OW 2770  13.802   3.226  13.497
66958SOL    HW1 2771  13.864   3.153  13.497
66958SOL    HW2 2772  13.740   3.205  13.567
66959SOL     OW 2773   9.169  14.800   5.568
66959SOL    HW1 2774   9.190   0.011   5.590
66959SOL    HW2 2775   9.135  14.762   5.650
66960SOL     OW 2776   3.677  13.692   8.024
66960SOL    HW1 2777   3.706  13.780   8.000
66960SOL    HW2 2778   3.598  13.707   8.077
66961SOL     OW 2779   8.914  11.617  13.838
66961SOL    HW1 2780   8.918  11.525  13.812
66961SOL    HW2 2781   8.832  11.648  13.800
66962SOL     OW 2782  13.857   7.580   6.296
66962SOL    HW1 2783  13.910   7.657   6.314
66962SOL    HW2 2784  13.824   7.592   6.207
66963SOL     OW 2785   9.889   9.708  14.494
66963SOL    HW1 2786   9.871   9.686  14.585
66963SOL    HW2 2787   9.853   9.796  14.482
66964SOL     OW 2788   2.604   2.019  12.074
66964SOL    HW1 2789   2.527   2.036  12.021
66964SOL    HW2 2790   2.574   1.959  12.142
66965SOL     OW 2791  10.120   4.837  11.988
66965SOL    HW1 2792  10.146   4.916  11.941
66965SOL    HW2 2793  10.104   4.866  12.077
66966SOL     OW 2794  13.830   8.616   6.617
66966SOL    HW1 2795  13.839   8.661   6.700
66966SOL    HW2 2796  13.854   8.525   6.635
66967SOL     OW 2797   9.416   4.733   0.505
66967SOL    HW1 2798   9.328   4.771   0.499
66967SOL    HW2 2799   9.432   4.726   0.599
66968SOL     OW 2800   8.500   5.531  10.260
66968SOL    HW1 2801   8.463   5.584  10.189
66968SOL    HW2 2802   8.550   5.463  10.215
66969SOL     OW 2803   1.381   9.492   7.823
66969SOL    HW1 2804   1.310   9.427   7.823
66969SOL    HW2 2805   1.381   9.528   7.911
66970SOL     OW 2806   9.852   0.342  11.324
66970SOL    HW1 2807   9.777   0.368  11.377
66970SOL    HW2 2808   9.855   0.247  11.329
66971SOL     OW 2809  12.679  12.861   3.038
66971SOL    HW1 2810  12.712  12.857   2.948
66971SOL    HW2 2811  12.692  12.953   3.064
66972SOL     OW 2812   5.705   3.157  13.588
66972SOL    HW1 2813   5.709   3.185  13.497
66972SOL    HW2 2814   5.783   3.195  13.629
66973SOL     OW 2815   2.429   4.226   9.850
66973SOL    HW1 2816   2.342   4.189   9.863
66973SOL    HW2 2817   2.472   4.167   9.789
66974SOL     OW 2818   5.117  11.497   7.363
66974SOL    HW1 2819   5.171  11.440   7.309
66974SOL    HW2 2820   5.176  11.531   7.429
66975SOL     OW 2821  14.556   4.054   8.577
66975SOL    HW1 2822  14.534   3.963   8.557
66975SOL    HW2 2823  14.651   4.056   8.581
66976SOL     OW 2824   3.980   5.186   9.026
66976SOL    HW1 2825   4.065   5.213   8.989
66976SOL    HW2 2826   4.003   5.128   9.099
66977SOL     OW 2827   9.592   1.102  11.302
66977SOL    HW1 2828   9.522   1.038  11.287
66977SOL    HW2 2829   9.639   1.106  11.219
66978SOL     OW 2830  10.406   8.252  12.800
66978SOL    HW1 2831  10.354   8.301  12.864
66978SOL    HW2 2832  10.481   8.219  12.851
66979SOL     OW 2833   1.637   4.422   6.706
66979SOL    HW1 2834   1.544   4.426   6.726
66979SOL    HW2 2835   1.665   4.513   6.702
66980SOL     OW 2836   4.102   0.597   2.264
66980SOL    HW1 2837   4.132   0.538   2.195
66980SOL    HW2 2838   4.007   0.601   2.252
66981SOL     OW 2839   2.525  13.857   7.864
66981SOL    HW1 2840   2.587  13.810   7.808
66981SOL    HW2 2841   2.537  13.949   7.840
66982SOL     OW 2842  11.888  12.231  14.669
66982SOL    HW1 2843  11.888  12.326  14.654
66982SOL    HW2 2844  11.843  12.195  14.593
66983SOL     OW 2845  14.551   4.098   7.813
66983SOL    HW1 2846  14.556   4.061   7.902
66983SOL    HW2 2847  14.474   4.057   7.774
66984SOL     OW 2848  13.452   3.980   9.903
66984SOL    HW1 2849  13.542   3.958   9.926
66984SOL    HW2 2850  13.399   3.924   9.959
66985SOL     OW 2851  13.926   8.132  12.711
66985SOL    HW1 2852  13.946   8.168  12.797
66985SOL    HW2 2853  13.984   8.178  12.651
66986SOL     OW 2854   7.733  10.278  13.365
66986SOL    HW1 2855   7.758  10.313  13.451
66986SOL    HW2 2856   7.721  10.356  13.310
66987SOL     OW 2857   3.630   7.482   2.662
66987SOL    HW1 2858   3.694   7.411   2.669
66987SOL    HW2 2859   3.599   7.477   2.572
66988SOL     OW 2860   8.552  14.390   6.967
66988SOL    HW1 2861   8.482  14.372   6.904
66988SOL    HW2 2862   8.612  14.316   6.958
66989SOL     OW 2863  11.373   2.684  13.539
66989SOL    HW1 2864  11.345   2.737  13.614
66989SOL    HW2 2865  11.297   2.680  13.482
66990SOL     OW 2866   6.234   4.548  13.901
66990SOL    HW1 2867   6.237   4.532  13.996
66990SOL    HW2 2868   6.242   4.461  13.862
66991SOL     OW 2869   0.403  14.371  11.324
66991SOL    HW1 2870   0.353  14.350  11.403
66991SOL    HW2 2871   0.336  14.381  11.256
66992SOL     OW 2872  10.725   6.838   0.641
66992SOL    HW1 2873  10.693   6.766   0.695
66992SOL    HW2 2874  10.820   6.831   0.646
66993SOL     OW 2875  14.009  14.339  12.050
66993SOL    HW1 2876  13.988  14.331  11.957
66993SOL    HW2 2877  13.955  14.412  12.080
66994SOL     OW 2878   9.416   0.815  12.183
66994SOL    HW1 2879   9.456   0.729  12.173
66994SOL    HW2 2880   9.329   0.806  12.144
66995SOL     OW 2881   4.643   0.548  14.399
66995SOL    HW1 2882   4.612   0.630  14.359
66995SOL    HW2 2883   4.702   0.577  14.469
66996SOL     OW 2884  11.287  12.830  13.675
66996SOL    HW1 2885  11.243  12.915  13.680
66996SOL    HW2 2886  11.379  12.850  13.694
66997SOL     OW 2887   7.864  12.213   7.790
66997SOL    HW1 2888   7.797  12.253   7.845
66997SOL    HW2 2889   7.891  12.135   7.839
66998SOL     OW 2890   8.467   1.523  12.868
66998SOL    HW1 2891   8.484   1.610  12.833
66998SOL    HW2 2892   8.474   1.534  12.963
66999SOL     OW 2893  12.417   5.703   8.351
66999SOL    HW1 2894  12.512   5.705   8.337
66999SOL    HW2 2895  12.405   5.632   8.414
67000SOL     OW 2896  12.893  13.935  12.993
67000SOL    HW1 2897  12.938  13.917  13.076
67000SOL    HW2 2898  12.836  13.859  12.981
67001SOL     OW 2899   9.166   2.043   1.673
67001SOL    HW1 2900   9.217   2.070   1.750
67001SOL    HW2 2901   9.193   1.953   1.656
67002SOL     OW 2902   2.762   5.350  13.107
67002SOL    HW1 2903   2.827   5.413  13.075
67002SOL    HW2 2904   2.809   5.266  13.109
67003SOL     OW 2905   6.656   1.229   3.321
67003SOL    HW1 2906   6.562   1.237   3.336
67003SOL    HW2 2907   6.667   1.140   3.288
67004SOL     OW 2908   9.243   1.240  11.467
67004SOL    HW1 2909   9.202   1.268  11.385
67004SOL    HW2 2910   9.287   1.318  11.500
67005SOL     OW 2911  14.546   5.081   9.167
67005SOL    HW1 2912  14.520   5.123   9.250
67005SOL    HW2 2913  14.536   5.150   9.102
67006SOL     OW 2914  12.478  13.127   3.270
67006SOL    HW1 2915  12.511  13.165   3.188
67006SOL    HW2 2916  12.536  13.161   3.337
67007SOL     OW 2917   9.537  13.401  11.035
67007SOL    HW1 2918   9.601  13.391  11.105
67007SOL    HW2 2919   9.568  13.344  10.965
67008SOL     OW 2920  14.218   7.907   1.078
67008SOL    HW1 2921  14.220   7.952   1.163
67008SOL    HW2 2922  14.127   7.910   1.051
67009SOL     OW 2923   8.396  11.833   5.744
67009SOL    HW1 2924   8.489  11.857   5.740
67009SOL    HW2 2925   8.350  11.910   5.711
67010SOL     OW 2926   8.251  12.630   7.679
67010SOL    HW1 2927   8.257  12.665   7.768
67010SOL    HW2 2928   8.193  12.555   7.686
67011SOL     OW 2929   6.865  13.603  10.570
67011SOL    HW1 2930   6.871  13.684  10.621
67011SOL    HW2 2931   6.771  13.585  10.565
67012SOL     OW 2932  11.962   8.230   0.160
67012SOL    HW1 2933  11.997   8.142   0.165
67012SOL    HW2 2934  11.871   8.219   0.133
67013SOL     OW 2935  13.288   9.389  13.653
67013SOL    HW1 2936  13.284   9.474  13.697
67013SOL    HW2 2937  13.282   9.410  13.560
67014SOL     OW 2938   7.878   4.294  12.829
67014SOL    HW1 2939   7.919   4.352  12.893
67014SOL    HW2 2940   7.913   4.322  12.745
67015SOL     OW 2941  10.923   0.616   4.138
67015SOL    HW1 2942  10.876   0.643   4.058
67015SOL    HW2 2943  10.873   0.541   4.170
67016SOL     OW 2944   5.230  12.857   1.539
67016SOL    HW1 2945   5.180  12.898   1.469
67016SOL    HW2 2946   5.164  12.816   1.596
67017SOL     OW 2947   6.288   4.385  12.058
67017SOL    HW1 2948   6.288   4.427  11.973
67017SOL    HW2 2949   6.196   4.378  12.082
67018SOL     OW 2950   2.831  14.039   8.100
67018SOL    HW1 2951   2.873  14.030   8.015
67018SOL    HW2 2952   2.739  14.053   8.081
67019SOL     OW 2953   6.246   8.565   2.347
67019SOL    HW1 2954   6.322   8.511   2.326
67019SOL    HW2 2955   6.216   8.598   2.262
67020SOL     OW 2956   8.963   3.922   8.219
67020SOL    HW1 2957   9.005   3.885   8.142
67020SOL    HW2 2958   8.881   3.960   8.187
67021SOL     OW 2959  11.970  14.562   1.752
67021SOL    HW1 2960  12.053  14.599   1.724
67021SOL    HW2 2961  11.908  14.636   1.748
67022SOL     OW 2962   5.290  12.264  10.511
67022SOL    HW1 2963   5.197  12.278  10.495
67022SOL    HW2 2964   5.299  12.169  10.519
67023SOL     OW 2965   6.458   3.293   2.302
67023SOL    HW1 2966   6.499   3.379   2.293
67023SOL    HW2 2967   6.365   3.310   2.292
67024SOL     OW 2968   2.256   0.207  14.457
67024SOL    HW1 2969   2.340   0.172  14.426
67024SOL    HW2 2970   2.190   0.159  14.407
67025SOL     OW 2971   8.865   9.807   3.293
67025SOL    HW1 2972   8.793   9.823   3.232
67025SOL    HW2 2973   8.941   9.847   3.251
67026SOL     OW 2974   9.591  13.905   6.701
67026SOL    HW1 2975   9.578  13.909   6.607
67026SOL    HW2 2976   9.503  13.903   6.738
67027SOL     OW 2977   0.058   4.636  11.427
67027SOL    HW1 2978   0.105   4.599  11.352
67027SOL    HW2 2979  14.846   4.614  11.411
67028SOL     OW 2980   8.272  13.495   2.235
67028SOL    HW1 2981   8.347  13.551   2.251
67028SOL    HW2 2982   8.246  13.462   2.321
67029SOL     OW 2983   6.957  11.794   9.455
67029SOL    HW1 2984   6.969  11.703   9.481
67029SOL    HW2 2985   6.953  11.843   9.537
67030SOL     OW 2986  10.335  11.987   7.030
67030SOL    HW1 2987  10.325  11.944   7.115
67030SOL    HW2 2988  10.333  11.916   6.966
67031SOL     OW 2989   9.143   3.368  10.545
67031SOL    HW1 2990   9.214   3.363  10.482
67031SOL    HW2 2991   9.069   3.402  10.496
67032SOL     OW 2992  14.437   2.986  10.482
67032SOL    HW1 2993  14.469   2.900  10.508
67032SOL    HW2 2994  14.476   3.000  10.395
67033SOL     OW 2995   2.927   4.029   3.080
67033SOL    HW1 2996   2.856   4.073   3.127
67033SOL    HW2 2997   3.007   4.066   3.117
67034SOL     OW 2998   1.906   7.807   6.522
67034SOL    HW1 2999   1.905   7.751   6.599
67034SOL    HW2 3000   1.963   7.880   6.547
67035SOL     OW 3001   7.487   0.475   8.499
67035SOL    HW1 3002   7.445   0.396   8.532
67035SOL    HW2 3003   7.565   0.443   8.453
67036SOL     OW 3004  11.740   2.822  12.604
67036SOL    HW1 3005  11.817   2.783  12.645
67036SOL    HW2 3006  11.666   2.788  12.653
67037SOL     OW 3007   3.312   9.670   5.727
67037SOL    HW1 3008   3.361   9.718   5.660
67037SOL    HW2 3009   3.378   9.621   5.776
67038SOL     OW 3010  12.764  10.663  10.069
67038SOL    HW1 3011  12.804  10.584  10.032
67038SOL    HW2 3012  12.671  10.640  10.078
67039SOL     OW 3013   7.905   2.639   9.305
67039SOL    HW1 3014   7.867   2.553   9.319
67039SOL    HW2 3015   7.976   2.625   9.243
67040SOL     OW 3016  12.042   0.531   2.237
67040SOL    HW1 3017  12.136   0.549   2.237
67040SOL    HW2 3018  12.001   0.617   2.228
67041SOL     OW 3019  13.057   2.497  12.345
67041SOL    HW1 3020  13.096   2.460  12.424
67041SOL    HW2 3021  13.098   2.450  12.273
67042SOL     OW 3022  12.882   6.361   1.110
67042SOL    HW1 3023  12.922   6.348   1.196
67042SOL    HW2 3024  12.884   6.274   1.069
67043SOL     OW 3025   1.098  14.641   5.242
67043SOL    HW1 3026   1.087  14.695   5.321
67043SOL    HW2 3027   1.082  14.552   5.272
67044SOL     OW 3028   4.218   4.326   1.950
67044SOL    HW1 3029   4.185   4.332   1.860
67044SOL    HW2 3030   4.308   4.296   1.940
67045SOL     OW 3031  13.265  13.013   0.094
67045SOL    HW1 3032  13.252  13.032   0.001
67045SOL    HW2 3033  13.184  13.041   0.136
67046SOL     OW 3034   2.592  13.646   5.021
67046SOL    HW1 3035   2.587  13.573   4.959
67046SOL    HW2 3036   2.582  13.606   5.107
67047SOL     OW 3037  10.131   2.272   5.035
67047SOL    HW1 3038  10.110   2.361   5.006
67047SOL    HW2 3039  10.142   2.222   4.954
67048SOL     OW 3040  12.584  12.179   6.951
67048SOL    HW1 3041  12.621  12.123   7.020
67048SOL    HW2 3042  12.620  12.265   6.969
67049SOL     OW 3043   5.961  12.468   0.796
67049SOL    HW1 3044   6.056  12.459   0.785
67049SOL    HW2 3045   5.929  12.490   0.708
67050SOL     OW 3046   3.273   8.846  13.935
67050SOL    HW1 3047   3.306   8.765  13.895
67050SOL    HW2 3048   3.261   8.905  13.861
67051SOL     OW 3049   2.620   0.445   2.618
67051SOL    HW1 3050   2.598   0.402   2.701
67051SOL    HW2 3051   2.657   0.530   2.644
67052SOL     OW 3052   5.378   3.056   6.574
67052SOL    HW1 3053   5.405   3.146   6.561
67052SOL    HW2 3054   5.314   3.060   6.645
67053SOL     OW 3055   9.121   8.456   4.117
67053SOL    HW1 3056   9.136   8.513   4.042
67053SOL    HW2 3057   9.127   8.514   4.193
67054SOL     OW 3058   0.735  10.630   4.054
67054SOL    HW1 3059   0.744  10.539   4.027
67054SOL    HW2 3060   0.718  10.625   4.148
67055SOL     OW 3061   2.776   6.820  13.610
67055SOL    HW1 3062   2.805   6.729  13.616
67055SOL    HW2 3063   2.833   6.867  13.671
67056SOL     OW 3064   6.683  12.200   1.441
67056SOL    HW1 3065   6.624  12.185   1.515
67056SOL    HW2 3066   6.662  12.131   1.379
67057SOL     OW 3067   3.694   4.509   2.228
67057SOL    HW1 3068   3.754   4.556   2.169
67057SOL    HW2 3069   3.722   4.418   2.222
67058SOL     OW 3070   2.472   2.481   5.295
67058SOL    HW1 3071   2.487   2.485   5.390
67058SOL    HW2 3072   2.441   2.568   5.272
67059SOL     OW 3073   6.007   2.366  10.133
67059SOL    HW1 3074   6.001   2.453  10.173
67059SOL    HW2 3075   6.099   2.355  10.111
67060SOL     OW 3076   8.662   3.679   7.376
67060SOL    HW1 3077   8.601   3.750   7.356
67060SOL    HW2 3078   8.747   3.712   7.348
67061SOL     OW 3079   7.786   1.862  13.507
67061SOL    HW1 3080   7.817   1.950  13.489
67061SOL    HW2 3081   7.831   1.807  13.443
67062SOL     OW 3082  10.925   9.940  11.118
67062SOL    HW1 3083  10.906   9.850  11.090
67062SOL    HW2 3084  11.021   9.945  11.118
67063SOL     OW 3085   8.816  14.182   5.389
67063SOL    HW1 3086   8.894  14.136   5.421
67063SOL    HW2 3087   8.850  14.260   5.346
67064SOL     OW 3088   3.733   7.610  10.697
67064SOL    HW1 3089   3.718   7.615  10.791
67064SOL    HW2 3090   3.785   7.688  10.677
67065SOL     OW 3091  10.121   9.873   8.929
67065SOL    HW1 3092  10.039   9.915   8.957
67065SOL    HW2 3093  10.107   9.850   8.838
67066SOL     OW 3094  13.509  13.842   2.427
67066SOL    HW1 3095  13.559  13.900   2.370
67066SOL    HW2 3096  13.576  13.794   2.478
67067SOL     OW 3097   1.094   8.167   6.012
67067SOL    HW1 3098   1.074   8.079   5.980
67067SOL    HW2 3099   1.189   8.177   5.998
67068SOL     OW 3100   0.277   7.606   6.190
67068SOL    HW1 3101   0.215   7.669   6.224
67068SOL    HW2 3102   0.248   7.522   6.225
67069SOL     OW 3103   4.152  10.390   8.780
67069SOL    HW1 3104   4.119  10.462   8.727
67069SOL    HW2 3105   4.194  10.432   8.855
67070SOL     OW 3106  11.095  14.204   3.374
67070SOL    HW1 3107  11.016  14.156   3.399
67070SOL    HW2 3108  11.152  14.138   3.335
67071SOL     OW 3109   4.818   2.038   8.489
67071SOL    HW1 3110   4.831   2.131   8.508
67071SOL    HW2 3111   4.759   2.038   8.413
67072SOL     OW 3112   3.916  12.384  11.805
67072SOL    HW1 3113   3.972  12.376  11.728
67072SOL    HW2 3114   3.930  12.303  11.854
67073SOL     OW 3115   2.286   7.258   4.696
67073SOL    HW1 3116   2.296   7.162   4.699
67073SOL    HW2 3117   2.361   7.287   4.643
67074SOL     OW 3118   4.724  13.767   1.012
67074SOL    HW1 3119   4.752  13.700   1.075
67074SOL    HW2 3120   4.764  13.740   0.930
67075SOL     OW 3121   4.020   8.423   2.267
67075SOL    HW1 3122   4.081   8.367   2.220
67075SOL    HW2 3123   3.934   8.391   2.243
67076SOL     OW 3124   0.786   2.574   5.383
67076SOL    HW1 3125   0.750   2.644   5.328
67076SOL    HW2 3126   0.807   2.617   5.466
67077SOL     OW 3127  14.456   9.244   1.381
67077SOL    HW1 3128  14.362   9.247   1.399
67077SOL    HW2 3129  14.483   9.156   1.408
67078SOL     OW 3130   4.981  14.066   9.851
67078SOL    HW1 3131   4.961  14.138   9.791
67078SOL    HW2 3132   4.992  13.990   9.794
67079SOL     OW 3133   6.250  10.115   6.936
67079SOL    HW1 3134   6.189  10.041   6.941
67079SOL    HW2 3135   6.240  10.147   6.846
67080SOL     OW 3136  10.175   1.517   4.085
67080SOL    HW1 3137  10.161   1.542   4.177
67080SOL    HW2 3138  10.160   1.423   4.083
67081SOL     OW 3139   4.722   2.410   9.564
67081SOL    HW1 3140   4.671   2.490   9.577
67081SOL    HW2 3141   4.779   2.405   9.641
67082SOL     OW 3142   0.683   6.351  14.345
67082SOL    HW1 3143   0.601   6.301  14.338
67082SOL    HW2 3144   0.705   6.347  14.438
67083SOL     OW 3145  14.297  12.921  12.282
67083SOL    HW1 3146  14.210  12.886  12.262
67083SOL    HW2 3147  14.322  12.969  12.203
67084SOL     OW 3148   3.582   5.959  14.164
67084SOL    HW1 3149   3.635   6.027  14.206
67084SOL    HW2 3150   3.520   6.008  14.109
67085SOL     OW 3151   7.669  14.221   1.469
67085SOL    HW1 3152   7.759  14.252   1.459
67085SOL    HW2 3153   7.615  14.292   1.435
67086SOL     OW 3154   9.871   2.424  13.566
67086SOL    HW1 3155   9.816   2.345  13.567
67086SOL    HW2 3156   9.872   2.454  13.657
67087SOL     OW 3157  12.736   6.596   1.061
67087SOL    HW1 3158  12.777   6.651   1.128
67087SOL    HW2 3159  12.780   6.511   1.069
67088SOL     OW 3160   8.308   0.916   0.726
67088SOL    HW1 3161   8.227   0.956   0.695
67088SOL    HW2 3162   8.335   0.971   0.799
67089SOL     OW 3163  13.236   8.223   4.402
67089SOL    HW1 3164  13.185   8.235   4.482
67089SOL    HW2 3165  13.171   8.219   4.332
67090SOL     OW 3166   1.158   5.161  11.638
67090SOL    HW1 3167   1.174   5.120  11.553
67090SOL    HW2 3168   1.125   5.091  11.693
67091SOL     OW 3169  13.536  12.603   8.978
67091SOL    HW1 3170  13.443  12.580   8.980
67091SOL    HW2 3171  13.582  12.520   8.987
67092SOL     OW 3172   8.712   9.325   9.406
67092SOL    HW1 3173   8.725   9.352   9.497
67092SOL    HW2 3174   8.796   9.288   9.380
67093SOL     OW 3175   4.772   8.732  12.296
67093SOL    HW1 3176   4.822   8.781  12.231
67093SOL    HW2 3177   4.832   8.664  12.326
67094SOL     OW 3178  10.575   5.049  10.025
67094SOL    HW1 3179  10.490   5.055  10.069
67094SOL    HW2 3180  10.567   4.972   9.968
67095SOL     OW 3181   7.676  12.590   4.124
67095SOL    HW1 3182   7.597  12.608   4.175
67095SOL    HW2 3183   7.643  12.551   4.043
67096SOL     OW 3184   4.574  11.866  12.017
67096SOL    HW1 3185   4.486  11.895  12.040
67096SOL    HW2 3186   4.588  11.787  12.069
67097SOL     OW 3187   5.140  11.325   8.446
67097SOL    HW1 3188   5.047  11.338   8.428
67097SOL    HW2 3189   5.148  11.331   8.541
67098SOL     OW 3190   8.454   4.906  11.681
67098SOL    HW1 3191   8.412   4.922  11.596
67098SOL    HW2 3192   8.467   4.993  11.718
67099SOL     OW 3193  12.149   3.247   6.649
67099SOL    HW1 3194  12.130   3.185   6.719
67099SOL    HW2 3195  12.128   3.199   6.568
67100SOL     OW 3196  13.362   7.492  13.247
67100SOL    HW1 3197  13.315   7.412  13.268
67100SOL    HW2 3198  13.351   7.503  13.153
67101SOL     OW 3199   7.446   5.919   2.933
67101SOL    HW1 3200   7.463   6.013   2.941
67101SOL    HW2 3201   7.462   5.884   3.020
67102SOL     OW 3202   4.041   1.901   2.942
67102SOL    HW1 3203   4.076   1.825   2.894
67102SOL    HW2 3204   4.115   1.961   2.948
67103SOL     OW 3205  12.605   7.561   2.928
67103SOL    HW1 3206  12.628   7.654   2.933
67103SOL    HW2 3207  12.555   7.553   2.847
67104SOL     OW 3208   4.104  13.524  12.072
67104SOL    HW1 3209   4.046  13.594  12.040
67104SOL    HW2 3210   4.084  13.450  12.016
67105SOL     OW 3211   3.264   3.916  10.524
67105SOL    HW1 3212   3.196   3.850  10.509
67105SOL    HW2 3213   3.236   3.961  10.604
67106SOL     OW 3214   9.651  14.654  13.410
67106SOL    HW1 3215   9.598  14.633  13.332
67106SOL    HW2 3216   9.608  14.606  13.481
67107SOL     OW 3217   0.638   8.514  11.160
67107SOL    HW1 3218   0.637   8.603  11.197
67107SOL    HW2 3219   0.548   8.499  11.131
67108SOL     OW 3220  13.447   3.312   7.234
67108SOL    HW1 3221  13.467   3.274   7.319
67108SOL    HW2 3222  13.458   3.240   7.172
67109SOL     OW 3223  10.495  12.282   8.725
67109SOL    HW1 3224  10.573  12.336   8.717
67109SOL    HW2 3225  10.520  12.198   8.686
67110SOL     OW 3226   1.520   5.906   0.498
67110SOL    HW1 3227   1.442   5.905   0.554
67110SOL    HW2 3228   1.486   5.896   0.409
67111SOL     OW 3229   0.848   2.714   2.912
67111SOL    HW1 3230   0.815   2.655   2.844
67111SOL    HW2 3231   0.915   2.662   2.957
67112SOL     OW 3232  12.672  14.181   5.898
67112SOL    HW1 3233  12.688  14.228   5.980
67112SOL    HW2 3234  12.757  14.147   5.872
67113SOL     OW 3235   1.236  11.361   3.452
67113SOL    HW1 3236   1.203  11.293   3.393
67113SOL    HW2 3237   1.329  11.344   3.460
67114SOL     OW 3238  10.342   5.997   7.291
67114SOL    HW1 3239  10.414   5.991   7.228
67114SOL    HW2 3240  10.264   6.010   7.238
67115SOL     OW 3241  14.135  11.867   1.864
67115SOL    HW1 3242  14.144  11.877   1.769
67115SOL    HW2 3243  14.041  11.873   1.880
67116SOL     OW 3244   2.627   0.170  10.836
67116SOL    HW1 3245   2.663   0.252  10.802
67116SOL    HW2 3246   2.693   0.104  10.814
67117SOL     OW 3247   0.153  11.913   5.175
67117SOL    HW1 3248   0.117  11.878   5.093
67117SOL    HW2 3249   0.086  11.974   5.206
67118SOL     OW 3250   2.114   6.479   7.013
67118SOL    HW1 3251   2.206   6.462   6.992
67118SOL    HW2 3252   2.116   6.526   7.096
67119SOL     OW 3253  10.229   1.330   1.503
67119SOL    HW1 3254  10.217   1.268   1.574
67119SOL    HW2 3255  10.140   1.347   1.471
67120SOL     OW 3256   7.918   5.482   5.459
67120SOL    HW1 3257   7.935   5.561   5.407
67120SOL    HW2 3258   7.963   5.498   5.542
67121SOL     OW 3259   8.750   1.054  11.604
67121SOL    HW1 3260   8.759   1.043  11.510
67121SOL    HW2 3261   8.691   0.983  11.631
67122SOL     OW 3262   2.802   7.870  10.299
67122SOL    HW1 3263   2.805   7.961  10.327
67122SOL    HW2 3264   2.848   7.822  10.368
67123SOL     OW 3265  14.615  11.629  10.814
67123SOL    HW1 3266  14.556  11.643  10.740
67123SOL    HW2 3267  14.597  11.703  10.872
67124SOL     OW 3268  13.865   1.632  13.443
67124SOL    HW1 3269  13.809   1.579  13.387
67124SOL    HW2 3270  13.897   1.702  13.386
67125SOL     OW 3271   6.575   5.534   1.984
67125SOL    HW1 3272   6.480   5.521   1.992
67125SOL    HW2 3273   6.613   5.461   2.034
67126SOL     OW 3274   9.868   8.062  11.761
67126SOL    HW1 3275   9.896   7.971  11.762
67126SOL    HW2 3276   9.874   8.089  11.670
67127SOL     OW 3277   3.842  10.817   5.539
67127SOL    HW1 3278   3.878  10.899   5.507
67127SOL    HW2 3279   3.870  10.811   5.630
67128SOL     OW 3280   3.853   9.749   7.782
67128SOL    HW1 3281   3.760   9.755   7.800
67128SOL    HW2 3282   3.859   9.694   7.704
67129SOL     OW 3283  13.196   6.198   6.895
67129SOL    HW1 3284  13.128   6.190   6.962
67129SOL    HW2 3285  13.181   6.285   6.857
67130SOL     OW 3286  10.373   1.538  12.734
67130SOL    HW1 3287  10.444   1.567  12.676
67130SOL    HW2 3288  10.414   1.476  12.793
67131SOL     OW 3289  12.442   4.114   8.482
67131SOL    HW1 3290  12.418   4.122   8.575
67131SOL    HW2 3291  12.471   4.201   8.457
67132SOL     OW 3292   9.764   3.783  14.737
67132SOL    HW1 3293   9.812   3.846  14.791
67132SOL    HW2 3294   9.807   3.699  14.755
67133SOL     OW 3295  12.388   2.330  10.519
67133SOL    HW1 3296  12.328   2.256  10.509
67133SOL    HW2 3297  12.335   2.407  10.500
67134SOL     OW 3298  12.558   5.963   2.013
67134SOL    HW1 3299  12.581   6.010   2.092
67134SOL    HW2 3300  12.569   5.870   2.036
67135SOL     OW 3301   1.164  11.420  14.148
67135SOL    HW1 3302   1.213  11.395  14.069
67135SOL    HW2 3303   1.121  11.502  14.125
67136SOL     OW 3304   5.720   4.944   3.367
67136SOL    HW1 3305   5.761   5.031   3.367
67136SOL    HW2 3306   5.793   4.883   3.356
67137SOL     OW 3307  14.282   0.775   8.216
67137SOL    HW1 3308  14.297   0.841   8.284
67137SOL    HW2 3309  14.197   0.798   8.178
67138SOL     OW 3310   4.180   7.815   0.315
67138SOL    HW1 3311   4.219   7.899   0.339
67138SOL    HW2 3312   4.086   7.827   0.330
67139SOL     OW 3313   8.950   8.914   9.053
67139SOL    HW1 3314   8.877   8.947   9.000
67139SOL    HW2 3315   8.924   8.928   9.143
67140SOL     OW 3316   2.770   5.457  14.730
67140SOL    HW1 3317   2.729   5.425  14.810
67140SOL    HW2 3318   2.819   5.534  14.756
67141SOL     OW 3319   5.021  12.652   3.006
67141SOL    HW1 3320   4.961  12.584   2.977
67141SOL    HW2 3321   4.967  12.731   3.010
67142SOL     OW 3322   3.884  13.187   7.544
67142SOL    HW1 3323   3.820  13.205   7.475
67142SOL    HW2 3324   3.967  13.180   7.498
67143SOL     OW 3325  10.723   5.920  12.506
67143SOL    HW1 3326  10.813   5.950  12.518
67143SOL    HW2 3327  10.717   5.900  12.413
67144SOL     OW 3328   0.793  10.522  13.473
67144SOL    HW1 3329   0.850  10.473  13.533
67144SOL    HW2 3330   0.820  10.613  13.484
67145SOL     OW 3331  14.561  12.906  13.284
67145SOL    HW1 3332  14.470  12.880  13.271
67145SOL    HW2 3333  14.609  12.860  13.215
67146SOL     OW 3334   2.389   7.314   9.349
67146SOL    HW1 3335   2.453   7.301   9.419
67146SOL    HW2 3336   2.304   7.302   9.392
67147SOL     OW 3337   0.038   5.682   0.872
67147SOL    HW1 3338   0.002   5.640   0.794
67147SOL    HW2 3339   0.118   5.725   0.842
67148SOL     OW 3340  13.188   3.422   0.091
67148SOL    HW1 3341  13.194   3.510   0.054
67148SOL    HW2 3342  13.237   3.426   0.173
67149SOL     OW 3343  10.824  14.314   6.966
67149SOL    HW1 3344  10.863  14.400   6.981
67149SOL    HW2 3345  10.830  14.269   7.050
67150SOL     OW 3346  13.442   8.518   0.380
67150SOL    HW1 3347  13.381   8.520   0.306
67150SOL    HW2 3348  13.516   8.466   0.348
67151SOL     OW 3349   9.687   9.142   4.682
67151SOL    HW1 3350   9.691   9.236   4.662
67151SOL    HW2 3351   9.756   9.130   4.748
67152SOL     OW 3352  11.528   7.497  12.271
67152SOL    HW1 3353  11.435   7.478  12.258
67152SOL    HW2 3354  11.552   7.445  12.348
67153SOL     OW 3355   3.490  10.803  14.555
67153SOL    HW1 3356   3.477  10.713  14.586
67153SOL    HW2 3357   3.443  10.806  14.471
67154SOL     OW 3358   4.686   2.918  11.600
67154SOL    HW1 3359   4.652   2.838  11.561
67154SOL    HW2 3360   4.733   2.889  11.678
67155SOL     OW 3361   8.726   6.765  10.664
67155SOL    HW1 3362   8.725   6.715  10.746
67155SOL    HW2 3363   8.794   6.831  10.677
67156SOL     OW 3364   3.155   4.474   1.936
67156SOL    HW1 3365   3.145   4.414   2.011
67156SOL    HW2 3366   3.216   4.429   1.878
67157SOL     OW 3367  10.830   3.522   8.980
67157SOL    HW1 3368  10.776   3.478   9.046
67157SOL    HW2 3369  10.780   3.599   8.956
67158SOL     OW 3370   2.212   0.016   4.524
67158SOL    HW1 3371   2.297  14.853   4.514
67158SOL    HW2 3372   2.159  14.861   4.452
67159SOL     OW 3373  12.624   6.468   8.562
67159SOL    HW1 3374  12.581   6.389   8.529
67159SOL    HW2 3375  12.681   6.496   8.490
67160SOL     OW 3376  14.125   3.178   2.633
67160SOL    HW1 3377  14.106   3.142   2.547
67160SOL    HW2 3378  14.179   3.112   2.676
67161SOL     OW 3379   2.839   0.529   2.116
67161SOL    HW1 3380   2.895   0.607   2.109
67161SOL    HW2 3381   2.814   0.526   2.208
67162SOL     OW 3382  14.508   7.654   6.108
67162SOL    HW1 3383  14.425   7.618   6.075
67162SOL    HW2 3384  14.507   7.634   6.201
67163SOL     OW 3385  12.765   8.425   9.082
67163SOL    HW1 3386  12.696   8.487   9.056
67163SOL    HW2 3387  12.828   8.478   9.130
67164SOL     OW 3388   8.740   0.368   1.509
67164SOL    HW1 3389   8.816   0.323   1.547
67164SOL    HW2 3390   8.671   0.356   1.574
67165SOL     OW 3391   5.242   4.374  11.614
67165SOL    HW1 3392   5.304   4.416  11.674
67165SOL    HW2 3393   5.205   4.302  11.665
67166SOL     OW 3394   0.006   3.952   5.033
67166SOL    HW1 3395   0.077   3.897   5.065
67166SOL    HW2 3396  14.819   3.891   5.003
67167SOL     OW 3397  12.363   7.422  13.546
67167SOL    HW1 3398  12.305   7.382  13.482
67167SOL    HW2 3399  12.434   7.458  13.494
67168SOL     OW 3400   9.771   3.433  12.651
67168SOL    HW1 3401   9.825   3.492  12.598
67168SOL    HW2 3402   9.716   3.387  12.587
67169SOL     OW 3403   1.691   5.495   7.877
67169SOL    HW1 3404   1.636   5.522   7.804
67169SOL    HW2 3405   1.631   5.488   7.951
67170SOL     OW 3406   6.638  11.442  11.623
67170SOL    HW1 3407   6.702  11.393  11.675
67170SOL    HW2 3408   6.608  11.380  11.557
67171SOL     OW 3409   6.346   6.911  11.677
67171SOL    HW1 3410   6.328   6.979  11.612
67171SOL    HW2 3411   6.336   6.956  11.761
67172SOL     OW 3412  14.736  13.655  11.723
67172SOL    HW1 3413  14.708  13.718  11.657
67172SOL    HW2 3414  14.708  13.693  11.806
67173SOL     OW 3415   8.204   4.453   3.527
67173SOL    HW1 3416   8.210   4.546   3.507
67173SOL    HW2 3417   8.294   4.422   3.525
67174SOL     OW 3418   4.471   0.079  14.133
67174SOL    HW1 3419   4.492   0.172  14.130
67174SOL    HW2 3420   4.523   0.040  14.063
67175SOL     OW 3421   9.954  10.472   7.504
67175SOL    HW1 3422   9.881  10.445   7.558
67175SOL    HW2 3423   9.978  10.394   7.454
67176SOL     OW 3424   9.396   5.042   2.723
67176SOL    HW1 3425   9.384   5.021   2.815
67176SOL    HW2 3426   9.390   5.137   2.719
67177SOL     OW 3427   2.759   8.940   4.405
67177SOL    HW1 3428   2.846   8.920   4.440
67177SOL    HW2 3429   2.772   9.017   4.350
67178SOL     OW 3430   0.899   3.247   3.842
67178SOL    HW1 3431   0.886   3.200   3.760
67178SOL    HW2 3432   0.961   3.317   3.820
67179SOL     OW 3433  11.515   5.219   6.569
67179SOL    HW1 3434  11.461   5.290   6.536
67179SOL    HW2 3435  11.476   5.196   6.653
67180SOL     OW 3436  13.877  10.132  12.669
67180SOL    HW1 3437  13.857  10.172  12.754
67180SOL    HW2 3438  13.827  10.183  12.606
67181SOL     OW 3439   0.998  14.579  12.521
67181SOL    HW1 3440   1.093  14.570  12.528
67181SOL    HW2 3441   0.971  14.513  12.458
67182SOL     OW 3442   4.129   9.097   9.026
67182SOL    HW1 3443   4.135   9.044   8.946
67182SOL    HW2 3444   4.220   9.116   9.050
67183SOL     OW 3445   3.397   6.238   8.675
67183SOL    HW1 3446   3.467   6.253   8.612
67183SOL    HW2 3447   3.421   6.292   8.750
67184SOL     OW 3448   4.346   9.575   0.542
67184SOL    HW1 3449   4.403   9.530   0.604
67184SOL    HW2 3450   4.257   9.551   0.568
67185SOL     OW 3451   9.967  12.886   1.676
67185SOL    HW1 3452  10.051  12.927   1.699
67185SOL    HW2 3453   9.902  12.935   1.726
67186SOL     OW 3454  12.497   5.507  10.805
67186SOL    HW1 3455  12.534   5.593  10.825
67186SOL    HW2 3456  12.558   5.445  10.845
67187SOL     OW 3457  13.798   2.714   6.545
67187SOL    HW1 3458  13.740   2.638   6.543
67187SOL    HW2 3459  13.739   2.789   6.537
67188SOL     OW 3460  14.865   1.013   8.493
67188SOL    HW1 3461   0.043   1.075   8.448
67188SOL    HW2 3462  14.830   1.063   8.567
67189SOL     OW 3463   6.867   3.512   5.311
67189SOL    HW1 3464   6.829   3.591   5.272
67189SOL    HW2 3465   6.821   3.501   5.394
67190SOL     OW 3466   5.208   1.572   8.524
67190SOL    HW1 3467   5.227   1.568   8.618
67190SOL    HW2 3468   5.123   1.529   8.514
67191SOL     OW 3469   1.148   8.543   0.355
67191SOL    HW1 3470   1.053   8.550   0.354
67191SOL    HW2 3471   1.177   8.617   0.409
67192SOL     OW 3472   7.503   5.292   4.678
67192SOL    HW1 3473   7.570   5.288   4.746
67192SOL    HW2 3474   7.509   5.207   4.634
67193SOL     OW 3475   5.376   7.373   2.471
67193SOL    HW1 3476   5.454   7.398   2.519
67193SOL    HW2 3477   5.323   7.453   2.468
67194SOL     OW 3478  11.625   9.127  10.314
67194SOL    HW1 3479  11.636   9.222  10.313
67194SOL    HW2 3480  11.531   9.115  10.327
67195SOL     OW 3481  14.834   9.389   1.396
67195SOL    HW1 3482   0.039   9.376   1.440
67195SOL    HW2 3483  14.829   9.315   1.334
67196SOL     OW 3484   1.863  13.666   2.201
67196SOL    HW1 3485   1.845  13.578   2.234
67196SOL    HW2 3486   1.939  13.695   2.252
67197SOL     OW 3487   5.791   6.070   4.260
67197SOL    HW1 3488   5.842   6.039   4.335
67197SOL    HW2 3489   5.714   6.013   4.259
67198SOL     OW 3490   3.484  10.036   3.654
67198SOL    HW1 3491   3.558  10.058   3.597
67198SOL    HW2 3492   3.520   9.972   3.715
67199SOL     OW 3493   6.797  13.801   6.930
67199SOL    HW1 3494   6.728  13.835   6.873
67199SOL    HW2 3495   6.753  13.782   7.013
67200SOL     OW 3496   7.560   8.837  14.131
67200SOL    HW1 3497   7.611   8.776  14.077
67200SOL    HW2 3498   7.556   8.795  14.217
67201SOL     OW 3499   2.622  10.211   2.368
67201SOL    HW1 3500   2.675  10.131   2.365
67201SOL    HW2 3501   2.558  10.195   2.438
67202SOL     OW 3502   2.085   2.931   4.571
67202SOL    HW1 3503   2.064   3.022   4.550
67202SOL    HW2 3504   2.045   2.916   4.657
67203SOL     OW 3505   7.981  10.127   5.563
67203SOL    HW1 3506   7.935  10.059   5.613
67203SOL    HW2 3507   8.038  10.079   5.503
67204SOL     OW 3508   2.972  13.751   3.154
67204SOL    HW1 3509   2.990  13.743   3.061
67204SOL    HW2 3510   2.914  13.827   3.162
67205SOL     OW 3511   1.507   8.542  14.267
67205SOL    HW1 3512   1.463   8.466  14.304
67205SOL    HW2 3513   1.600   8.529  14.288
67206SOL     OW 3514  13.263   1.567   9.021
67206SOL    HW1 3515  13.184   1.586   9.071
67206SOL    HW2 3516  13.293   1.482   9.054
67207SOL     OW 3517   7.043   9.232  11.213
67207SOL    HW1 3518   7.058   9.198  11.301
67207SOL    HW2 3519   6.997   9.315  11.226
67208SOL     OW 3520   7.171   0.452  10.969
67208SOL    HW1 3521   7.250   0.478  10.922
67208SOL    HW2 3522   7.201   0.389  11.034
67209SOL     OW 3523   2.430   2.647  13.967
67209SOL    HW1 3524   2.493   2.633  13.897
67209SOL    HW2 3525   2.483   2.656  14.046
67210SOL     OW 3526   4.898  12.291  14.713
67210SOL    HW1 3527   4.887  12.311  14.806
67210SOL    HW2 3528   4.988  12.315  14.694
67211SOL     OW 3529  10.651   6.994   6.388
67211SOL    HW1 3530  10.650   6.923   6.325
67211SOL    HW2 3531  10.558   7.014   6.403
67212SOL     OW 3532  11.871   5.583   2.463
67212SOL    HW1 3533  11.869   5.593   2.368
67212SOL    HW2 3534  11.938   5.645   2.492
67213SOL     OW 3535   5.117   0.142  11.991
67213SOL    HW1 3536   5.196   0.095  11.965
67213SOL    HW2 3537   5.056   0.128  11.918
67214SOL     OW 3538  11.362   1.083   6.359
67214SOL    HW1 3539  11.417   1.147   6.313
67214SOL    HW2 3540  11.301   1.136   6.410
67215SOL     OW 3541   0.276   4.455   2.258
67215SOL    HW1 3542   0.308   4.365   2.265
67215SOL    HW2 3543   0.185   4.450   2.287
67216SOL     OW 3544  11.588   7.469   8.115
67216SOL    HW1 3545  11.579   7.482   8.210
67216SOL    HW2 3546  11.551   7.548   8.077
67217SOL     OW 3547   0.879   5.121   4.119
67217SOL    HW1 3548   0.932   5.042   4.129
67217SOL    HW2 3549   0.799   5.091   4.076
67218SOL     OW 3550   5.598   6.189  11.539
67218SOL    HW1 3551   5.646   6.263  11.501
67218SOL    HW2 3552   5.626   6.188  11.630
67219SOL     OW 3553  13.377  10.172  13.469
67219SOL    HW1 3554  13.373  10.251  13.414
67219SOL    HW2 3555  13.310  10.114  13.432
67220SOL     OW 3556   0.455  12.110  10.748
67220SOL    HW1 3557   0.540  12.083  10.712
67220SOL    HW2 3558   0.398  12.117  10.672
67221SOL     OW 3559   1.597   2.226  10.474
67221SOL    HW1 3560   1.640   2.191  10.552
67221SOL    HW2 3561   1.587   2.151  10.416
67222SOL     OW 3562   3.804   5.523  13.668
67222SOL    HW1 3563   3.846   5.497  13.586
67222SOL    HW2 3564   3.835   5.459  13.732
67223SOL     OW 3565   8.250  12.896   6.725
67223SOL    HW1 3566   8.192  12.891   6.650
67223SOL    HW2 3567   8.214  12.833   6.788
67224SOL     OW 3568   0.562  14.378  10.338
67224SOL    HW1 3569   0.533  14.359  10.249
67224SOL    HW2 3570   0.517  14.460  10.360
67225SOL     OW 3571   3.278   6.769   1.776
67225SOL    HW1 3572   3.315   6.684   1.753
67225SOL    HW2 3573   3.205   6.748   1.833
67226SOL     OW 3574  12.415   3.666  10.559
67226SOL    HW1 3575  12.356   3.615  10.614
67226SOL    HW2 3576  12.460   3.602  10.505
67227SOL     OW 3577   8.519  13.575   7.152
67227SOL    HW1 3578   8.540  13.546   7.241
67227SOL    HW2 3579   8.428  13.548   7.139
67228SOL     OW 3580   6.297   0.524  13.492
67228SOL    HW1 3581   6.257   0.590  13.435
67228SOL    HW2 3582   6.390   0.547  13.493
67229SOL     OW 3583   5.015   2.474  14.144
67229SOL    HW1 3584   4.994   2.415  14.216
67229SOL    HW2 3585   4.974   2.434  14.067
67230SOL     OW 3586   1.097  13.798   8.365
67230SOL    HW1 3587   1.053  13.875   8.402
67230SOL    HW2 3588   1.153  13.833   8.296
67231SOL     OW 3589   2.357  11.907   1.548
67231SOL    HW1 3590   2.406  11.969   1.493
67231SOL    HW2 3591   2.283  11.881   1.494
67232SOL     OW 3592  12.415  13.193  14.472
67232SOL    HW1 3593  12.385  13.105  14.450
67232SOL    HW2 3594  12.490  13.207  14.415
67233SOL     OW 3595   8.192  13.520  10.202
67233SOL    HW1 3596   8.156  13.542  10.289
67233SOL    HW2 3597   8.233  13.602  10.172
67234SOL     OW 3598  10.306   9.446   4.590
67234SOL    HW1 3599  10.288   9.475   4.500
67234SOL    HW2 3600  10.350   9.520   4.630
67235SOL     OW 3601   5.684   2.492   2.405
67235SOL    HW1 3602   5.664   2.480   2.312
67235SOL    HW2 3603   5.693   2.586   2.416
67236SOL     OW 3604   9.176  14.535   2.638
67236SOL    HW1 3605   9.129  14.500   2.562
67236SOL    HW2 3606   9.244  14.470   2.656
67237SOL     OW 3607   1.309   3.200   5.770
67237SOL    HW1 3608   1.258   3.152   5.835
67237SOL    HW2 3609   1.256   3.197   5.691
67238SOL     OW 3610   2.088  11.907   1.692
67238SOL    HW1 3611   2.061  11.823   1.654
67238SOL    HW2 3612   2.068  11.971   1.624
67239SOL     OW 3613   7.851   7.214  11.182
67239SOL    HW1 3614   7.781   7.278  11.195
67239SOL    HW2 3615   7.857   7.204  11.087
67240SOL     OW 3616   5.603  11.951  10.040
67240SOL    HW1 3617   5.536  11.973  10.105
67240SOL    HW2 3618   5.675  12.011  10.059
67241SOL     OW 3619  11.962  13.018   5.234
67241SOL    HW1 3620  12.040  12.962   5.240
67241SOL    HW2 3621  11.897  12.964   5.190
67242SOL     OW 3622  10.600   6.216   8.121
67242SOL    HW1 3623  10.617   6.138   8.173
67242SOL    HW2 3624  10.513   6.201   8.083
67243SOL     OW 3625   6.636  11.161  10.545
67243SOL    HW1 3626   6.554  11.210  10.540
67243SOL    HW2 3627   6.619  11.080  10.498
67244SOL     OW 3628   0.683  11.687   8.656
67244SOL    HW1 3629   0.724  11.757   8.707
67244SOL    HW2 3630   0.754  11.625   8.640
67245SOL     OW 3631   0.851  14.171   5.145
67245SOL    HW1 3632   0.802  14.094   5.174
67245SOL    HW2 3633   0.925  14.135   5.096
67246SOL     OW 3634  11.744  10.348  10.380
67246SOL    HW1 3635  11.792  10.431  10.381
67246SOL    HW2 3636  11.654  10.372  10.403
67247SOL     OW 3637   1.589   0.729  13.037
67247SOL    HW1 3638   1.591   0.671  13.114
67247SOL    HW2 3639   1.620   0.674  12.965
67248SOL     OW 3640   9.261   9.143   8.327
67248SOL    HW1 3641   9.170   9.120   8.344
67248SOL    HW2 3642   9.274   9.124   8.234
67249SOL     OW 3643   1.897  10.050   9.917
67249SOL    HW1 3644   1.909  10.124   9.858
67249SOL    HW2 3645   1.963  10.063   9.985
67250SOL     OW 3646   5.564   7.165   5.838
67250SOL    HW1 3647   5.588   7.114   5.915
67250SOL    HW2 3648   5.619   7.243   5.843
67251SOL     OW 3649   9.950   2.215   7.347
67251SOL    HW1 3650   9.887   2.255   7.407
67251SOL    HW2 3651   9.960   2.279   7.276
67252SOL     OW 3652   5.840  12.897   1.064
67252SOL    HW1 3653   5.888  12.826   1.022
67252SOL    HW2 3654   5.893  12.975   1.046
67253SOL     OW 3655  11.178   9.973   7.997
67253SOL    HW1 3656  11.260  10.019   7.981
67253SOL    HW2 3657  11.133  10.026   8.063
67254SOL     OW 3658  14.463   0.314   8.898
67254SOL    HW1 3659  14.493   0.389   8.950
67254SOL    HW2 3660  14.368   0.323   8.897
67255SOL     OW 3661  12.357   7.237   2.885
67255SOL    HW1 3662  12.275   7.237   2.934
67255SOL    HW2 3663  12.335   7.283   2.803
67256SOL     OW 3664   4.403   3.508  10.707
67256SOL    HW1 3665   4.367   3.471  10.788
67256SOL    HW2 3666   4.444   3.434  10.663
67257SOL     OW 3667  10.577   8.519   2.960
67257SOL    HW1 3668  10.592   8.607   2.994
67257SOL    HW2 3669  10.638   8.464   3.008
67258SOL     OW 3670   7.007   3.457   2.038
67258SOL    HW1 3671   6.912   3.465   2.051
67258SOL    HW2 3672   7.045   3.522   2.097
67259SOL     OW 3673   1.345   6.936   0.999
67259SOL    HW1 3674   1.387   7.022   1.010
67259SOL    HW2 3675   1.253   6.951   1.019
67260SOL     OW 3676  14.351   9.312   3.687
67260SOL    HW1 3677  14.295   9.375   3.641
67260SOL    HW2 3678  14.351   9.342   3.778
67261SOL     OW 3679   9.536  12.883  14.071
67261SOL    HW1 3680   9.490  12.814  14.025
67261SOL    HW2 3681   9.500  12.881  14.160
67262SOL     OW 3682   1.349  13.153  13.329
67262SOL    HW1 3683   1.420  13.214  13.311
67262SOL    HW2 3684   1.322  13.173  13.418
67263SOL     OW 3685   5.668   5.479   5.497
67263SOL    HW1 3686   5.644   5.546   5.433
67263SOL    HW2 3687   5.752   5.509   5.532
67264SOL     OW 3688   5.617   6.131   5.163
67264SOL    HW1 3689   5.601   6.175   5.079
67264SOL    HW2 3690   5.587   6.194   5.229
67265SOL     OW 3691   5.357   3.872   6.998
67265SOL    HW1 3692   5.300   3.890   7.072
67265SOL    HW2 3693   5.309   3.904   6.922
67266SOL     OW 3694   7.157   5.090   1.758
67266SOL    HW1 3695   7.181   5.129   1.842
67266SOL    HW2 3696   7.144   5.165   1.700
67267SOL     OW 3697  13.774   1.346  12.610
67267SOL    HW1 3698  13.868   1.351  12.597
67267SOL    HW2 3699  13.737   1.399  12.539
67268SOL     OW 3700  11.580   4.689   3.827
67268SOL    HW1 3701  11.673   4.674   3.845
67268SOL    HW2 3702  11.542   4.710   3.912
67269SOL     OW 3703  14.310   3.504   6.158
67269SOL    HW1 3704  14.382   3.441   6.168
67269SOL    HW2 3705  14.231   3.452   6.171
67270SOL     OW 3706   8.568   8.556  14.207
67270SOL    HW1 3707   8.564   8.463  14.183
67270SOL    HW2 3708   8.579   8.602  14.124
67271SOL     OW 3709   5.217   6.164  11.974
67271SOL    HW1 3710   5.248   6.190  12.061
67271SOL    HW2 3711   5.295   6.136  11.927
67272SOL     OW 3712   3.798   1.771   1.511
67272SOL    HW1 3713   3.776   1.698   1.568
67272SOL    HW2 3714   3.735   1.839   1.533
67273SOL     OW 3715  10.979   7.918   2.026
67273SOL    HW1 3716  11.070   7.909   2.055
67273SOL    HW2 3717  10.967   7.846   1.964
67274SOL     OW 3718  14.738   2.101  12.067
67274SOL    HW1 3719  14.703   2.015  12.044
67274SOL    HW2 3720  14.672   2.163  12.037
67275SOL     OW 3721  11.061   8.761   4.994
67275SOL    HW1 3722  11.020   8.786   5.078
67275SOL    HW2 3723  11.004   8.693   4.959
67276SOL     OW 3724   0.123  11.281   4.022
67276SOL    HW1 3725   0.072  11.227   4.082
67276SOL    HW2 3726   0.213  11.250   4.033
67277SOL     OW 3727   3.867   1.530   9.612
67277SOL    HW1 3728   3.933   1.527   9.543
67277SOL    HW2 3729   3.917   1.528   9.694
67278SOL     OW 3730  13.753   0.556  13.668
67278SOL    HW1 3731  13.848   0.563  13.661
67278SOL    HW2 3732  13.722   0.562  13.577
67279SOL     OW 3733   1.550  14.287   4.798
67279SOL    HW1 3734   1.470  14.307   4.750
67279SOL    HW2 3735   1.576  14.371   4.837
67280SOL     OW 3736   9.068  14.508   3.932
67280SOL    HW1 3737   9.019  14.581   3.970
67280SOL    HW2 3738   9.158  14.540   3.923
67281SOL     OW 3739   0.135  11.332  10.966
67281SOL    HW1 3740   0.229  11.347  10.981
67281SOL    HW2 3741   0.099  11.420  10.954
67282SOL     OW 3742   2.806   7.393   7.004
67282SOL    HW1 3743   2.765   7.443   7.075
67282SOL    HW2 3744   2.837   7.461   6.943
67283SOL     OW 3745   0.176  13.504   1.506
67283SOL    HW1 3746   0.104  13.461   1.460
67283SOL    HW2 3747   0.175  13.594   1.475
67284SOL     OW 3748   7.128   5.692  12.055
67284SOL    HW1 3749   7.169   5.691  11.968
67284SOL    HW2 3750   7.201   5.705  12.115
67285SOL     OW 3751   8.409  14.494   2.232
67285SOL    HW1 3752   8.383  14.582   2.259
67285SOL    HW2 3753   8.370  14.483   2.145
67286SOL     OW 3754  13.414   1.216   5.005
67286SOL    HW1 3755  13.382   1.190   5.092
67286SOL    HW2 3756  13.353   1.174   4.944
67287SOL     OW 3757   8.199   2.771   1.742
67287SOL    HW1 3758   8.151   2.733   1.669
67287SOL    HW2 3759   8.290   2.747   1.726
67288SOL     OW 3760   6.172   9.926   6.677
67288SOL    HW1 3761   6.177   9.974   6.595
67288SOL    HW2 3762   6.079   9.907   6.689
67289SOL     OW 3763  10.795  13.334  13.937
67289SOL    HW1 3764  10.739  13.314  14.013
67289SOL    HW2 3765  10.765  13.420  13.908
67290SOL     OW 3766   1.371  12.130   0.327
67290SOL    HW1 3767   1.289  12.156   0.371
67290SOL    HW2 3768   1.342  12.076   0.254
67291SOL     OW 3769   1.118   0.680   3.812
67291SOL    HW1 3770   1.204   0.704   3.780
67291SOL    HW2 3771   1.134   0.608   3.874
67292SOL     OW 3772   0.112  11.041   5.096
67292SOL    HW1 3773   0.150  11.074   5.178
67292SOL    HW2 3774   0.020  11.064   5.101
67293SOL     OW 3775   8.759   8.122  10.515
67293SOL    HW1 3776   8.820   8.142  10.585
67293SOL    HW2 3777   8.684   8.083  10.558
67294SOL     OW 3778  10.030  10.798   1.374
67294SOL    HW1 3779  10.108  10.744   1.383
67294SOL    HW2 3780  10.001  10.815   1.463
67295SOL     OW 3781   7.542   0.008   6.533
67295SOL    HW1 3782   7.516   0.098   6.552
67295SOL    HW2 3783   7.520  14.876   6.441
67296SOL     OW 3784  11.681  14.375  13.144
67296SOL    HW1 3785  11.670  14.315  13.071
67296SOL    HW2 3786  11.594  14.382  13.183
67297SOL     OW 3787   2.619   1.276   2.831
67297SOL    HW1 3788   2.600   1.235   2.915
67297SOL    HW2 3789   2.619   1.370   2.848
67298SOL     OW 3790   5.365  13.207   0.368
67298SOL    HW1 3791   5.382  13.186   0.277
67298SOL    HW2 3792   5.343  13.301   0.368
67299SOL     OW 3793  13.204  12.913   5.008
67299SOL    HW1 3794  13.284  12.860   5.005
67299SOL    HW2 3795  13.210  12.961   5.090
67300SOL     OW 3796   1.867  13.654   5.024
67300SOL    HW1 3797   1.882  13.647   5.118
67300SOL    HW2 3798   1.939  13.710   4.993
67301SOL     OW 3799   6.537  14.098   7.340
67301SOL    HW1 3800   6.519  14.011   7.306
67301SOL    HW2 3801   6.586  14.083   7.420
67302SOL     OW 3802   6.847  13.471  11.705
67302SOL    HW1 3803   6.795  13.529  11.650
67302SOL    HW2 3804   6.840  13.385  11.662
67303SOL     OW 3805   9.368   5.099  12.035
67303SOL    HW1 3806   9.273   5.086  12.041
67303SOL    HW2 3807   9.386   5.102  11.941
67304SOL     OW 3808   4.702  10.578   0.646
67304SOL    HW1 3809   4.665  10.566   0.559
67304SOL    HW2 3810   4.797  10.579   0.633
67305SOL     OW 3811   6.143  13.665   9.300
67305SOL    HW1 3812   6.193  13.654   9.381
67305SOL    HW2 3813   6.186  13.605   9.238
67306SOL     OW 3814   0.587  11.315   5.572
67306SOL    HW1 3815   0.541  11.357   5.645
67306SOL    HW2 3816   0.652  11.259   5.614
67307SOL     OW 3817   5.636   4.716   8.366
67307SOL    HW1 3818   5.692   4.661   8.420
67307SOL    HW2 3819   5.691   4.744   8.293
67308SOL     OW 3820  14.032  10.150   9.687
67308SOL    HW1 3821  14.067  10.235   9.662
67308SOL    HW2 3822  13.938  10.157   9.668
67309SOL     OW 3823  10.299   8.201   1.371
67309SOL    HW1 3824  10.376   8.254   1.349
67309SOL    HW2 3825  10.328   8.111   1.363
67310SOL     OW 3826   1.782   9.416   2.710
67310SOL    HW1 3827   1.772   9.376   2.797
67310SOL    HW2 3828   1.697   9.455   2.692
67311SOL     OW 3829   0.184  13.570  13.097
67311SOL    HW1 3830   0.165  13.479  13.122
67311SOL    HW2 3831   0.143  13.580  13.012
67312SOL     OW 3832  10.963   9.993   4.117
67312SOL    HW1 3833  10.882   9.942   4.126
67312SOL    HW2 3834  10.969  10.012   4.024
67313SOL     OW 3835   8.200  13.809   3.570
67313SOL    HW1 3836   8.187  13.833   3.661
67313SOL    HW2 3837   8.283  13.762   3.568
67314SOL     OW 3838   8.158   0.831  13.883
67314SOL    HW1 3839   8.247   0.837  13.917
67314SOL    HW2 3840   8.166   0.850  13.790
67315SOL     OW 3841   4.408   5.400   6.147
67315SOL    HW1 3842   4.472   5.471   6.152
67315SOL    HW2 3843   4.440   5.334   6.208
67316SOL     OW 3844   1.482  13.671   6.464
67316SOL    HW1 3845   1.392  13.638   6.466
67316SOL    HW2 3846   1.535  13.594   6.443
67317SOL     OW 3847   0.721   8.047  10.469
67317SOL    HW1 3848   0.719   7.954  10.489
67317SOL    HW2 3849   0.703   8.052  10.376
67318SOL     OW 3850   6.849  12.698  12.048
67318SOL    HW1 3851   6.904  12.630  12.008
67318SOL    HW2 3852   6.888  12.712  12.135
67319SOL     OW 3853  10.426   1.574   9.205
67319SOL    HW1 3854  10.371   1.530   9.140
67319SOL    HW2 3855  10.491   1.622   9.154
67320SOL     OW 3856  14.329   3.240  10.462
67320SOL    HW1 3857  14.333   3.285  10.547
67320SOL    HW2 3858  14.358   3.151  10.481
67321SOL     OW 3859   4.581  10.039   5.924
67321SOL    HW1 3860   4.633  10.074   5.996
67321SOL    HW2 3861   4.526   9.972   5.965
67322SOL     OW 3862   6.026   1.677  13.459
67322SOL    HW1 3863   6.033   1.596  13.408
67322SOL    HW2 3864   6.012   1.648  13.549
67323SOL     OW 3865   2.308   2.821   6.105
67323SOL    HW1 3866   2.368   2.888   6.072
67323SOL    HW2 3867   2.324   2.819   6.200
67324SOL     OW 3868   6.021  13.123   6.049
67324SOL    HW1 3869   5.946  13.090   6.099
67324SOL    HW2 3870   6.083  13.050   6.047
67325SOL     OW 3871  14.057   0.387   8.701
67325SOL    HW1 3872  14.009   0.348   8.628
67325SOL    HW2 3873  14.126   0.439   8.659
67326SOL     OW 3874   0.888   2.730   1.791
67326SOL    HW1 3875   0.863   2.820   1.813
67326SOL    HW2 3876   0.981   2.726   1.810
67327SOL     OW 3877   5.071   6.995  12.212
67327SOL    HW1 3878   5.087   6.902  12.227
67327SOL    HW2 3879   5.152   7.028  12.175
67328SOL     OW 3880   4.979   5.283   5.878
67328SOL    HW1 3881   5.005   5.286   5.786
67328SOL    HW2 3882   5.059   5.303   5.927
67329SOL     OW 3883   9.345  12.743   9.526
67329SOL    HW1 3884   9.438  12.759   9.509
67329SOL    HW2 3885   9.300  12.809   9.474
67330SOL     OW 3886  10.573   1.791   8.294
67330SOL    HW1 3887  10.537   1.767   8.380
67330SOL    HW2 3888  10.656   1.743   8.289
67331SOL     OW 3889   5.736  11.961   2.170
67331SOL    HW1 3890   5.722  11.883   2.225
67331SOL    HW2 3891   5.749  12.032   2.233
67332SOL     OW 3892  14.422   2.446  13.276
67332SOL    HW1 3893  14.507   2.435  13.234
67332SOL    HW2 3894  14.373   2.504  13.217
67333SOL     OW 3895  13.983   0.136   4.905
67333SOL    HW1 3896  14.051   0.087   4.859
67333SOL    HW2 3897  14.014   0.140   4.996
67334SOL     OW 3898   5.398  12.046   3.509
67334SOL    HW1 3899   5.330  12.111   3.495
67334SOL    HW2 3900   5.463  12.063   3.440
67335SOL     OW 3901  13.391  11.906  13.602
67335SOL    HW1 3902  13.447  11.915  13.679
67335SOL    HW2 3903  13.318  11.851  13.631
67336SOL     OW 3904  11.263   7.313   1.216
67336SOL    HW1 3905  11.323   7.332   1.288
67336SOL    HW2 3906  11.188   7.270   1.258
67337SOL     OW 3907   4.855  11.802   5.038
67337SOL    HW1 3908   4.914  11.876   5.027
67337SOL    HW2 3909   4.904  11.741   5.093
67338SOL     OW 3910  10.994  11.779   2.603
67338SOL    HW1 3911  11.072  11.722   2.597
67338SOL    HW2 3912  11.007  11.828   2.684
67339SOL     OW 3913   4.384  13.391  12.646
67339SOL    HW1 3914   4.366  13.347  12.729
67339SOL    HW2 3915   4.298  13.412  12.611
67340SOL     OW 3916   8.366   1.074   9.063
67340SOL    HW1 3917   8.339   1.165   9.077
67340SOL    HW2 3918   8.355   1.060   8.969
67341SOL     OW 3919   7.016   7.345   5.003
67341SOL    HW1 3920   6.927   7.379   5.004
67341SOL    HW2 3921   7.029   7.307   5.090
67342SOL     OW 3922  10.229   7.184   9.062
67342SOL    HW1 3923  10.192   7.268   9.033
67342SOL    HW2 3924  10.241   7.195   9.156
67343SOL     OW 3925   8.211  10.104  11.823
67343SOL    HW1 3926   8.287  10.087  11.766
67343SOL    HW2 3927   8.190  10.018  11.860
67344SOL     OW 3928  11.888  14.731   3.528
67344SOL    HW1 3929  11.955  14.732   3.596
67344SOL    HW2 3930  11.805  14.733   3.575
67345SOL     OW 3931   2.467   1.287  12.071
67345SOL    HW1 3932   2.495   1.215  12.014
67345SOL    HW2 3933   2.548   1.333  12.093
67346SOL     OW 3934   3.583   2.556  11.444
67346SOL    HW1 3935   3.606   2.642  11.477
67346SOL    HW2 3936   3.488   2.558  11.433
67347SOL     OW 3937   5.070   9.912   9.720
67347SOL    HW1 3938   5.065   9.934   9.813
67347SOL    HW2 3939   5.011   9.974   9.677
67348SOL     OW 3940  10.469   8.903   3.220
67348SOL    HW1 3941  10.377   8.917   3.244
67348SOL    HW2 3942  10.503   8.990   3.203
67349SOL     OW 3943   1.660  11.904   4.208
67349SOL    HW1 3944   1.578  11.857   4.197
67349SOL    HW2 3945   1.727  11.845   4.172
67350SOL     OW 3946   9.415   4.678  12.921
67350SOL    HW1 3947   9.494   4.627  12.940
67350SOL    HW2 3948   9.394   4.655  12.830
67351SOL     OW 3949   9.377   4.969   3.857
67351SOL    HW1 3950   9.385   4.931   3.945
67351SOL    HW2 3951   9.300   5.025   3.862
67352SOL     OW 3952   6.975   5.412   3.335
67352SOL    HW1 3953   7.007   5.502   3.342
67352SOL    HW2 3954   7.039   5.367   3.282
67353SOL     OW 3955  14.604   3.442  11.707
67353SOL    HW1 3956  14.623   3.434  11.800
67353SOL    HW2 3957  14.682   3.410  11.663
67354SOL     OW 3958   8.475  10.042   6.600
67354SOL    HW1 3959   8.524  10.006   6.526
67354SOL    HW2 3960   8.437  10.123   6.567
67355SOL     OW 3961   4.577   5.048   9.825
67355SOL    HW1 3962   4.504   5.007   9.778
67355SOL    HW2 3963   4.654   4.998   9.797
67356SOL     OW 3964   5.165   8.658   9.705
67356SOL    HW1 3965   5.121   8.737   9.676
67356SOL    HW2 3966   5.095   8.595   9.722
67357SOL     OW 3967  13.825   6.958  10.790
67357SOL    HW1 3968  13.880   7.030  10.759
67357SOL    HW2 3969  13.884   6.884  10.797
67358SOL     OW 3970   0.571   8.425  10.439
67358SOL    HW1 3971   0.589   8.345  10.489
67358SOL    HW2 3972   0.512   8.397  10.369
67359SOL     OW 3973   2.497   1.190  12.412
67359SOL    HW1 3974   2.413   1.166  12.372
67359SOL    HW2 3975   2.495   1.286  12.415
67360SOL     OW 3976   1.314   7.232   8.004
67360SOL    HW1 3977   1.271   7.153   7.969
67360SOL    HW2 3978   1.259   7.304   7.975
67361SOL     OW 3979   9.618  13.040  12.627
67361SOL    HW1 3980   9.554  13.097  12.670
67361SOL    HW2 3981   9.659  12.992  12.699
67362SOL     OW 3982   0.909   1.320   0.788
67362SOL    HW1 3983   0.912   1.414   0.806
67362SOL    HW2 3984   0.931   1.313   0.695
67363SOL     OW 3985  13.170   2.796  10.661
67363SOL    HW1 3986  13.205   2.735  10.596
67363SOL    HW2 3987  13.091   2.831  10.620
67364SOL     OW 3988  14.610   1.358  10.851
67364SOL    HW1 3989  14.615   1.263  10.860
67364SOL    HW2 3990  14.578   1.389  10.936
67365SOL     OW 3991  14.261   5.592   7.009
67365SOL    HW1 3992  14.257   5.572   6.916
67365SOL    HW2 3993  14.182   5.642   7.027
67366SOL     OW 3994   8.702  12.264  11.947
67366SOL    HW1 3995   8.643  12.209  11.895
67366SOL    HW2 3996   8.677  12.353  11.926
67367SOL     OW 3997  10.220   6.103  13.297
67367SOL    HW1 3998  10.130   6.134  13.290
67367SOL    HW2 3999  10.226   6.031  13.234
67368SOL     OW 4000  13.659  11.234  10.737
67368SOL    HW1 4001  13.603  11.304  10.771
67368SOL    HW2 4002  13.609  11.154  10.751
67369SOL     OW 4003   1.360  10.350   6.382
67369SOL    HW1 4004   1.321  10.307   6.457
67369SOL    HW2 4005   1.394  10.278   6.328
67370SOL     OW 4006  14.592   6.318   7.920
67370SOL    HW1 4007  14.625   6.257   7.854
67370SOL    HW2 4008  14.553   6.263   7.987
67371SOL     OW 4009   2.500   0.293  13.706
67371SOL    HW1 4010   2.479   0.380  13.740
67371SOL    HW2 4011   2.416   0.255  13.683
67372SOL     OW 4012   4.681   2.976  10.843
67372SOL    HW1 4013   4.747   3.006  10.906
67372SOL    HW2 4014   4.668   2.884  10.865
67373SOL     OW 4015   3.926   3.377  11.700
67373SOL    HW1 4016   3.934   3.349  11.791
67373SOL    HW2 4017   4.014   3.405  11.676
67374SOL     OW 4018   7.488   1.596   6.024
67374SOL    HW1 4019   7.542   1.518   6.017
67374SOL    HW2 4020   7.549   1.667   6.043
67375SOL     OW 4021   0.432  14.403   9.967
67375SOL    HW1 4022   0.363  14.338   9.958
67375SOL    HW2 4023   0.508  14.364   9.922
67376SOL     OW 4024   8.085   7.894  13.307
67376SOL    HW1 4025   8.053   7.808  13.332
67376SOL    HW2 4026   8.023   7.925  13.242
67377SOL     OW 4027   7.535   6.194   4.925
67377SOL    HW1 4028   7.521   6.268   4.865
67377SOL    HW2 4029   7.629   6.192   4.939
67378SOL     OW 4030  13.452   7.996   9.213
67378SOL    HW1 4031  13.464   8.091   9.211
67378SOL    HW2 4032  13.391   7.978   9.142
67379SOL     OW 4033  13.177   9.576  10.478
67379SOL    HW1 4034  13.225   9.564  10.396
67379SOL    HW2 4035  13.087   9.595  10.451
67380SOL     OW 4036   9.512  13.583   4.944
67380SOL    HW1 4037   9.539  13.607   4.856
67380SOL    HW2 4038   9.531  13.490   4.950
67381SOL     OW 4039  12.898   7.973   8.415
67381SOL    HW1 4040  12.973   7.979   8.474
67381SOL    HW2 4041  12.845   8.050   8.436
67382SOL     OW 4042   5.220   7.941   0.957
67382SOL    HW1 4043   5.247   7.940   0.865
67382SOL    HW2 4044   5.130   7.975   0.955
67383SOL     OW 4045   8.825   4.030  11.713
67383SOL    HW1 4046   8.782   4.114  11.733
67383SOL    HW2 4047   8.765   3.987  11.652
67384SOL     OW 4048   2.858   3.673  11.428
67384SOL    HW1 4049   2.900   3.647  11.510
67384SOL    HW2 4050   2.803   3.749  11.452
67385SOL     OW 4051   7.754   0.804   8.101
67385SOL    HW1 4052   7.834   0.771   8.141
67385SOL    HW2 4053   7.781   0.881   8.051
67386SOL     OW 4054   0.761   6.443  13.909
67386SOL    HW1 4055   0.780   6.533  13.936
67386SOL    HW2 4056   0.790   6.389  13.982
67387SOL     OW 4057  12.158   0.215   8.694
67387SOL    HW1 4058  12.163   0.218   8.599
67387SOL    HW2 4059  12.109   0.293   8.718
67388SOL     OW 4060   7.096   8.130   8.358
67388SOL    HW1 4061   7.002   8.128   8.343
67388SOL    HW2 4062   7.106   8.120   8.453
67389SOL     OW 4063   2.141   7.072   5.264
67389SOL    HW1 4064   2.084   7.040   5.335
67389SOL    HW2 4065   2.217   7.108   5.308
67390SOL     OW 4066  11.878   8.247  10.011
67390SOL    HW1 4067  11.937   8.174  10.032
67390SOL    HW2 4068  11.792   8.206   9.997
67391SOL     OW 4069  12.206  14.011   1.436
67391SOL    HW1 4070  12.258  13.944   1.392
67391SOL    HW2 4071  12.119  13.972   1.447
67392SOL     OW 4072   2.795  12.661   0.700
67392SOL    HW1 4073   2.857  12.607   0.749
67392SOL    HW2 4074   2.849  12.704   0.634
67393SOL     OW 4075   0.884   4.165   8.719
67393SOL    HW1 4076   0.823   4.115   8.665
67393SOL    HW2 4077   0.839   4.248   8.736
67394SOL     OW 4078  13.483   1.511   1.185
67394SOL    HW1 4079  13.415   1.565   1.145
67394SOL    HW2 4080  13.437   1.463   1.255
67395SOL     OW 4081  14.860  12.217   3.696
67395SOL    HW1 4082   0.020  12.152   3.638
67395SOL    HW2 4083  14.820  12.281   3.636
67396SOL     OW 4084  13.827   3.534  10.402
67396SOL    HW1 4085  13.752   3.502  10.453
67396SOL    HW2 4086  13.846   3.464  10.340
67397SOL     OW 4087   4.621  11.410   5.391
67397SOL    HW1 4088   4.669  11.434   5.312
67397SOL    HW2 4089   4.685  11.416   5.462
67398SOL     OW 4090   3.281   1.865  11.322
67398SOL    HW1 4091   3.244   1.944  11.361
67398SOL    HW2 4092   3.374   1.884  11.313
67399SOL     OW 4093   2.185   4.646  13.576
67399SOL    HW1 4094   2.218   4.735  13.566
67399SOL    HW2 4095   2.127   4.633  13.501
67400SOL     OW 4096  13.722   7.751   6.869
67400SOL    HW1 4097  13.742   7.672   6.819
67400SOL    HW2 4098  13.649   7.725   6.926
67401SOL     OW 4099   4.447   5.677   5.877
67401SOL    HW1 4100   4.505   5.753   5.871
67401SOL    HW2 4101   4.366   5.712   5.914
67402SOL     OW 4102  10.932   1.057  13.957
67402SOL    HW1 4103  10.898   0.994  13.893
67402SOL    HW2 4104  10.869   1.129  13.955
67403SOL     OW 4105   5.599   3.497   9.546
67403SOL    HW1 4106   5.538   3.441   9.594
67403SOL    HW2 4107   5.571   3.586   9.566
67404SOL     OW 4108  11.822   7.335  13.162
67404SOL    HW1 4109  11.837   7.312  13.071
67404SOL    HW2 4110  11.851   7.426  13.170
67405SOL     OW 4111   4.887  11.266   4.933
67405SOL    HW1 4112   4.915  11.261   4.841
67405SOL    HW2 4113   4.889  11.175   4.963
67406SOL     OW 4114  13.444   5.037   2.098
67406SOL    HW1 4115  13.436   5.036   2.193
67406SOL    HW2 4116  13.490   4.956   2.077
67407SOL     OW 4117   2.125   0.367   6.512
67407SOL    HW1 4118   2.127   0.460   6.491
67407SOL    HW2 4119   2.213   0.336   6.493
67408SOL     OW 4120   6.935  11.514   3.184
67408SOL    HW1 4121   6.979  11.596   3.162
67408SOL    HW2 4122   6.898  11.530   3.271
67409SOL     OW 4123   2.143  11.763   3.074
67409SOL    HW1 4124   2.064  11.811   3.049
67409SOL    HW2 4125   2.121  11.671   3.056
67410SOL     OW 4126  14.771  10.746  12.147
67410SOL    HW1 4127  14.740  10.702  12.068
67410SOL    HW2 4128  14.865  10.729  12.148
67411SOL     OW 4129   3.195  11.683   0.543
67411SOL    HW1 4130   3.126  11.749   0.550
67411SOL    HW2 4131   3.274  11.733   0.523
67412SOL     OW 4132   8.106   4.214  10.292
67412SOL    HW1 4133   8.044   4.284  10.270
67412SOL    HW2 4134   8.093   4.199  10.386
67413SOL     OW 4135   5.423   5.015   3.361
67413SOL    HW1 4136   5.512   5.012   3.396
67413SOL    HW2 4137   5.371   4.965   3.424
67414SOL     OW 4138   8.250  14.010   2.812
67414SOL    HW1 4139   8.345  14.009   2.802
67414SOL    HW2 4140   8.236  14.002   2.907
67415SOL     OW 4141  11.381   1.547  13.135
67415SOL    HW1 4142  11.421   1.489  13.070
67415SOL    HW2 4143  11.425   1.527  13.217
67416SOL     OW 4144   0.833   0.508  11.100
67416SOL    HW1 4145   0.880   0.500  11.183
67416SOL    HW2 4146   0.744   0.532  11.124
67417SOL     OW 4147  13.903   7.428   2.636
67417SOL    HW1 4148  13.985   7.456   2.677
67417SOL    HW2 4149  13.915   7.335   2.618
67418SOL     OW 4150  10.036   0.493   2.154
67418SOL    HW1 4151  10.091   0.570   2.156
67418SOL    HW2 4152   9.949   0.526   2.129
67419SOL     OW 4153   3.504  12.333   3.925
67419SOL    HW1 4154   3.510  12.330   3.829
67419SOL    HW2 4155   3.410  12.334   3.943
67420SOL     OW 4156   1.726   2.637   5.431
67420SOL    HW1 4157   1.774   2.577   5.488
67420SOL    HW2 4158   1.773   2.720   5.439
67421SOL     OW 4159   0.850  12.622   7.317
67421SOL    HW1 4160   0.847  12.713   7.286
67421SOL    HW2 4161   0.854  12.630   7.412
67422SOL     OW 4162   9.882   8.128   5.517
67422SOL    HW1 4163   9.788   8.133   5.536
67422SOL    HW2 4164   9.896   8.188   5.444
67423SOL     OW 4165  11.049  11.069   1.051
67423SOL    HW1 4166  10.988  10.996   1.052
67423SOL    HW2 4167  11.132  11.031   1.080
67424SOL     OW 4168   8.758  12.793   5.271
67424SOL    HW1 4169   8.671  12.764   5.299
67424SOL    HW2 4170   8.794  12.836   5.348
67425SOL     OW 4171   6.244  14.787   3.608
67425SOL    HW1 4172   6.307  14.717   3.626
67425SOL    HW2 4173   6.291  14.848   3.551
67426SOL     OW 4174   8.867  11.549   5.515
67426SOL    HW1 4175   8.892  11.640   5.499
67426SOL    HW2 4176   8.873  11.539   5.610
67427SOL     OW 4177  12.732  13.137   1.370
67427SOL    HW1 4178  12.775  13.066   1.322
67427SOL    HW2 4179  12.687  13.093   1.443
67428SOL     OW 4180   0.821  11.359   7.785
67428SOL    HW1 4181   0.861  11.298   7.723
67428SOL    HW2 4182   0.770  11.418   7.729
67429SOL     OW 4183   2.154   1.323   5.020
67429SOL    HW1 4184   2.077   1.271   5.041
67429SOL    HW2 4185   2.153   1.394   5.084
67430SOL     OW 4186  10.254   2.964   5.806
67430SOL    HW1 4187  10.349   2.977   5.814
67430SOL    HW2 4188  10.245   2.883   5.755
67431SOL     OW 4189   6.627   0.441   0.790
67431SOL    HW1 4190   6.652   0.524   0.831
67431SOL    HW2 4191   6.705   0.415   0.740
67432SOL     OW 4192   0.981   9.147  11.870
67432SOL    HW1 4193   1.011   9.094  11.796
67432SOL    HW2 4194   0.886   9.138  11.869
67433SOL     OW 4195   6.506   8.166  11.046
67433SOL    HW1 4196   6.544   8.253  11.033
67433SOL    HW2 4197   6.423   8.182  11.090
67434SOL     OW 4198   0.552   7.630  12.243
67434SOL    HW1 4199   0.568   7.551  12.191
67434SOL    HW2 4200   0.615   7.625  12.315
67435SOL     OW 4201  10.048   5.881  11.469
67435SOL    HW1 4202  10.090   5.911  11.388
67435SOL    HW2 4203  10.116   5.893  11.536
67436SOL     OW 4204   8.768  10.310  10.890
67436SOL    HW1 4205   8.822  10.237  10.918
67436SOL    HW2 4206   8.679  10.284  10.913
67437SOL     OW 4207   0.015   7.648   3.409
67437SOL    HW1 4208   0.090   7.612   3.456
67437SOL    HW2 4209  14.823   7.646   3.472
67438SOL     OW 4210  12.297  11.025   0.057
67438SOL    HW1 4211  12.259  11.075  14.865
67438SOL    HW2 4212  12.392  11.033   0.045
67439SOL     OW 4213   7.873  13.708   8.522
67439SOL    HW1 4214   7.961  13.718   8.485
67439SOL    HW2 4215   7.838  13.629   8.481
67440SOL     OW 4216   2.937  12.696   8.741
67440SOL    HW1 4217   3.030  12.715   8.758
67440SOL    HW2 4218   2.906  12.655   8.821
67441SOL     OW 4219  14.322   1.459   2.584
67441SOL    HW1 4220  14.276   1.407   2.651
67441SOL    HW2 4221  14.388   1.507   2.633
67442SOL     OW 4222  13.788  11.499   8.691
67442SOL    HW1 4223  13.830  11.564   8.635
67442SOL    HW2 4224  13.855  11.431   8.701
67443SOL     OW 4225   1.167   3.897   3.596
67443SOL    HW1 4226   1.214   3.977   3.618
67443SOL    HW2 4227   1.158   3.899   3.501
67444SOL     OW 4228  10.032  10.866   0.552
67444SOL    HW1 4229  10.109  10.910   0.515
67444SOL    HW2 4230   9.968  10.936   0.564
67445SOL     OW 4231   3.009  10.229   9.701
67445SOL    HW1 4232   3.011  10.258   9.610
67445SOL    HW2 4233   3.034  10.137   9.698
67446SOL     OW 4234   3.756   3.528   9.812
67446SOL    HW1 4235   3.729   3.508   9.901
67446SOL    HW2 4236   3.728   3.619   9.798
67447SOL     OW 4237   1.454  12.614  11.278
67447SOL    HW1 4238   1.428  12.696  11.238
67447SOL    HW2 4239   1.473  12.637  11.369
67448SOL     OW 4240   5.182  11.084   5.810
67448SOL    HW1 4241   5.198  11.114   5.899
67448SOL    HW2 4242   5.140  10.999   5.819
67449SOL     OW 4243   9.252   2.860   0.250
67449SOL    HW1 4244   9.225   2.899   0.167
67449SOL    HW2 4245   9.214   2.772   0.249
67450SOL     OW 4246   0.821   1.501  12.276
67450SOL    HW1 4247   0.786   1.412  12.273
67450SOL    HW2 4248   0.870   1.504  12.358
67451SOL     OW 4249  14.064   4.865   1.229
67451SOL    HW1 4250  14.018   4.823   1.303
67451SOL    HW2 4251  14.020   4.949   1.219
67452SOL     OW 4252  13.671  12.461  13.706
67452SOL    HW1 4253  13.666  12.458  13.610
67452SOL    HW2 4254  13.680  12.370  13.732
67453SOL     OW 4255  12.186   3.107  14.734
67453SOL    HW1 4256  12.281   3.100  14.734
67453SOL    HW2 4257  12.164   3.128  14.825
67454SOL     OW 4258  13.843  13.979  12.358
67454SOL    HW1 4259  13.920  13.976  12.301
67454SOL    HW2 4260  13.870  13.932  12.437
67455SOL     OW 4261   1.595   2.028  10.969
67455SOL    HW1 4262   1.553   1.952  11.009
67455SOL    HW2 4263   1.689   2.010  10.976
67456SOL     OW 4264   9.225   6.263  12.748
67456SOL    HW1 4265   9.291   6.250  12.816
67456SOL    HW2 4266   9.208   6.175  12.714
67457SOL     OW 4267  11.239  13.734   5.788
67457SOL    HW1 4268  11.260  13.657   5.842
67457SOL    HW2 4269  11.315  13.790   5.797
67458SOL     OW 4270   0.431  14.761   4.007
67458SOL    HW1 4271   0.426  14.666   3.999
67458SOL    HW2 4272   0.457  14.792   3.920
67459SOL     OW 4273  12.931  11.530   6.761
67459SOL    HW1 4274  12.857  11.553   6.817
67459SOL    HW2 4275  12.896  11.536   6.672
67460SOL     OW 4276  13.453  11.574   6.960
67460SOL    HW1 4277  13.443  11.661   6.922
67460SOL    HW2 4278  13.413  11.515   6.896
67461SOL     OW 4279  12.159  11.553   3.605
67461SOL    HW1 4280  12.109  11.473   3.619
67461SOL    HW2 4281  12.209  11.565   3.686
67462SOL     OW 4282   4.179   5.859   6.742
67462SOL    HW1 4283   4.157   5.886   6.831
67462SOL    HW2 4284   4.239   5.927   6.710
67463SOL     OW 4285   4.835   1.023  13.798
67463SOL    HW1 4286   4.797   0.939  13.824
67463SOL    HW2 4287   4.828   1.024  13.703
67464SOL     OW 4288   8.114   7.729   8.394
67464SOL    HW1 4289   8.126   7.747   8.487
67464SOL    HW2 4290   8.200   7.746   8.355
67465SOL     OW 4291  13.943   8.676  11.488
67465SOL    HW1 4292  13.889   8.754  11.479
67465SOL    HW2 4293  13.970   8.655  11.399
67466SOL     OW 4294   3.646   5.400   9.272
67466SOL    HW1 4295   3.674   5.336   9.206
67466SOL    HW2 4296   3.718   5.403   9.335
67467SOL     OW 4297   6.067   0.242   8.911
67467SOL    HW1 4298   6.000   0.297   8.952
67467SOL    HW2 4299   6.139   0.303   8.892
67468SOL     OW 4300   3.124   2.589   2.626
67468SOL    HW1 4301   3.111   2.496   2.646
67468SOL    HW2 4302   3.169   2.589   2.542
67469SOL     OW 4303   8.213   3.834  11.714
67469SOL    HW1 4304   8.306   3.844  11.695
67469SOL    HW2 4305   8.174   3.811  11.630
67470SOL     OW 4306  12.662   6.192   9.323
67470SOL    HW1 4307  12.607   6.236   9.387
67470SOL    HW2 4308  12.601   6.148   9.264
67471SOL     OW 4309   6.685   2.266   4.525
67471SOL    HW1 4310   6.664   2.332   4.459
67471SOL    HW2 4311   6.664   2.309   4.608
67472SOL     OW 4312   8.209  13.927  10.402
67472SOL    HW1 4313   8.155  13.849  10.387
67472SOL    HW2 4314   8.297  13.901  10.378
67473SOL     OW 4315   4.193   1.798   5.153
67473SOL    HW1 4316   4.149   1.771   5.234
67473SOL    HW2 4317   4.140   1.759   5.083
67474SOL     OW 4318   0.334   4.479  13.108
67474SOL    HW1 4319   0.368   4.552  13.158
67474SOL    HW2 4320   0.242   4.473  13.133
67475SOL     OW 4321   2.960   9.387   1.336
67475SOL    HW1 4322   3.022   9.393   1.409
67475SOL    HW2 4323   3.006   9.335   1.270
67476SOL     OW 4324   3.541   6.818   9.945
67476SOL    HW1 4325   3.456   6.780   9.967
67476SOL    HW2 4326   3.585   6.830  10.030
67477SOL     OW 4327   0.162  10.652   3.845
67477SOL    HW1 4328   0.109  10.678   3.771
67477SOL    HW2 4329   0.187  10.734   3.888
67478SOL     OW 4330  14.567   1.295   4.378
67478SOL    HW1 4331  14.603   1.207   4.392
67478SOL    HW2 4332  14.608   1.348   4.446
67479SOL     OW 4333   1.698   2.827   2.016
67479SOL    HW1 4334   1.736   2.910   1.984
67479SOL    HW2 4335   1.674   2.780   1.936
67480SOL     OW 4336  13.484   1.821   1.529
67480SOL    HW1 4337  13.560   1.857   1.573
67480SOL    HW2 4338  13.506   1.729   1.513
67481SOL     OW 4339  14.849   4.854   0.578
67481SOL    HW1 4340   0.019   4.912   0.521
67481SOL    HW2 4341   0.035   4.816   0.636
67482SOL     OW 4342  14.312   6.498   8.796
67482SOL    HW1 4343  14.275   6.432   8.737
67482SOL    HW2 4344  14.387   6.454   8.836
67483SOL     OW 4345   4.059  11.651  10.752
67483SOL    HW1 4346   4.107  11.692  10.824
67483SOL    HW2 4347   4.046  11.722  10.689
67484SOL     OW 4348   5.206   4.233   6.460
67484SOL    HW1 4349   5.158   4.293   6.403
67484SOL    HW2 4350   5.296   4.237   6.429
67485SOL     OW 4351   9.144  10.381   9.354
67485SOL    HW1 4352   9.153  10.358   9.261
67485SOL    HW2 4353   9.053  10.362   9.375
67486SOL     OW 4354   2.165   5.132   3.197
67486SOL    HW1 4355   2.095   5.108   3.257
67486SOL    HW2 4356   2.125   5.131   3.111
67487SOL     OW 4357   0.844   9.770   1.758
67487SOL    HW1 4358   0.904   9.699   1.734
67487SOL    HW2 4359   0.795   9.736   1.832
67488SOL     OW 4360  11.323   4.475  12.020
67488SOL    HW1 4361  11.328   4.389  11.977
67488SOL    HW2 4362  11.230   4.496  12.020
67489SOL     OW 4363   3.554  14.148   0.564
67489SOL    HW1 4364   3.613  14.128   0.636
67489SOL    HW2 4365   3.488  14.078   0.566
67490SOL     OW 4366   1.698   7.971   2.827
67490SOL    HW1 4367   1.742   8.046   2.788
67490SOL    HW2 4368   1.632   8.010   2.885
67491SOL     OW 4369   1.358   5.096   7.701
67491SOL    HW1 4370   1.319   5.161   7.642
67491SOL    HW2 4371   1.392   5.148   7.774
67492SOL     OW 4372  13.543   5.504   8.275
67492SOL    HW1 4373  13.519   5.417   8.306
67492SOL    HW2 4374  13.520   5.504   8.182
67493SOL     OW 4375  13.331  12.813   0.397
67493SOL    HW1 4376  13.385  12.821   0.475
67493SOL    HW2 4377  13.370  12.739   0.349
67494SOL     OW 4378  12.321   6.378   6.025
67494SOL    HW1 4379  12.235   6.358   6.062
67494SOL    HW2 4380  12.362   6.292   6.013
67495SOL     OW 4381  13.411  10.776  14.453
67495SOL    HW1 4382  13.433  10.717  14.525
67495SOL    HW2 4383  13.485  10.837  14.449
67496SOL     OW 4384   2.873   1.304   2.279
67496SOL    HW1 4385   2.807   1.234   2.289
67496SOL    HW2 4386   2.838   1.360   2.210
67497SOL     OW 4387   5.500   3.919   6.417
67497SOL    HW1 4388   5.507   3.883   6.329
67497SOL    HW2 4389   5.418   3.882   6.451
67498SOL     OW 4390   9.109  11.221   3.955
67498SOL    HW1 4391   9.132  11.312   3.936
67498SOL    HW2 4392   9.179  11.170   3.914
67499SOL     OW 4393  12.696   4.319   9.150
67499SOL    HW1 4394  12.770   4.285   9.202
67499SOL    HW2 4395  12.716   4.292   9.060
67500SOL     OW 4396  13.971   3.858  12.221
67500SOL    HW1 4397  14.023   3.778  12.215
67500SOL    HW2 4398  13.952   3.882  12.131
67501SOL     OW 4399   0.228  10.931  10.615
67501SOL    HW1 4400   0.249  10.920  10.707
67501SOL    HW2 4401   0.133  10.923  10.610
67502SOL     OW 4402   5.733   6.173   9.539
67502SOL    HW1 4403   5.802   6.236   9.521
67502SOL    HW2 4404   5.764   6.124   9.615
67503SOL     OW 4405   0.041   3.725   7.131
67503SOL    HW1 4406  14.845   3.673   7.157
67503SOL    HW2 4407   0.100   3.662   7.088
67504SOL     OW 4408  12.089  12.044   9.042
67504SOL    HW1 4409  12.100  11.983   9.115
67504SOL    HW2 4410  12.000  12.078   9.052
67505SOL     OW 4411  12.683   2.479   3.745
67505SOL    HW1 4412  12.590   2.473   3.763
67505SOL    HW2 4413  12.692   2.452   3.653
67506SOL     OW 4414   5.097   5.559   7.073
67506SOL    HW1 4415   5.065   5.621   7.139
67506SOL    HW2 4416   5.074   5.473   7.109
67507SOL     OW 4417   9.284   5.951   4.784
67507SOL    HW1 4418   9.327   6.036   4.788
67507SOL    HW2 4419   9.194   5.970   4.760
67508SOL     OW 4420   9.123   6.019  12.237
67508SOL    HW1 4421   9.048   6.018  12.176
67508SOL    HW2 4422   9.099   6.085  12.302
67509SOL     OW 4423  13.171   2.301   5.575
67509SOL    HW1 4424  13.191   2.389   5.544
67509SOL    HW2 4425  13.233   2.286   5.646
67510SOL     OW 4426   3.166   9.864  11.578
67510SOL    HW1 4427   3.207   9.812  11.509
67510SOL    HW2 4428   3.165   9.806  11.654
67511SOL     OW 4429   2.763  10.040  10.676
67511SOL    HW1 4430   2.720  10.114  10.718
67511SOL    HW2 4431   2.856  10.052  10.696
67512SOL     OW 4432   1.136   3.427   7.197
67512SOL    HW1 4433   1.056   3.479   7.187
67512SOL    HW2 4434   1.124   3.378   7.278
67513SOL     OW 4435  10.994   1.059   3.576
67513SOL    HW1 4436  11.051   1.091   3.646
67513SOL    HW2 4437  11.045   1.073   3.496
67514SOL     OW 4438   0.293  12.424  10.238
67514SOL    HW1 4439   0.249  12.500  10.275
67514SOL    HW2 4440   0.229  12.353  10.248
67515SOL     OW 4441   8.167   9.415  10.386
67515SOL    HW1 4442   8.253   9.402  10.346
67515SOL    HW2 4443   8.116   9.339  10.359
67516SOL     OW 4444  11.845   7.680  11.431
67516SOL    HW1 4445  11.767   7.674  11.376
67516SOL    HW2 4446  11.916   7.648  11.375
67517SOL     OW 4447   1.173   4.815   8.743
67517SOL    HW1 4448   1.149   4.725   8.721
67517SOL    HW2 4449   1.158   4.821   8.838
67518SOL     OW 4450   7.665   0.848   6.653
67518SOL    HW1 4451   7.583   0.799   6.663
67518SOL    HW2 4452   7.733   0.782   6.664
67519SOL     OW 4453  13.915   5.646   1.548
67519SOL    HW1 4454  13.925   5.550   1.546
67519SOL    HW2 4455  13.884   5.668   1.460
67520SOL     OW 4456  14.029   2.553   9.513
67520SOL    HW1 4457  14.071   2.575   9.596
67520SOL    HW2 4458  14.002   2.461   9.523
67521SOL     OW 4459  12.679   1.388   5.378
67521SOL    HW1 4460  12.701   1.480   5.363
67521SOL    HW2 4461  12.762   1.341   5.366
67522SOL     OW 4462   8.904  13.157   3.580
67522SOL    HW1 4463   8.842  13.161   3.507
67522SOL    HW2 4464   8.849  13.151   3.658
67523SOL     OW 4465   4.440   2.876   8.023
67523SOL    HW1 4466   4.521   2.915   8.055
67523SOL    HW2 4467   4.371   2.936   8.051
67524SOL     OW 4468   3.489  11.289   3.991
67524SOL    HW1 4469   3.397  11.279   4.015
67524SOL    HW2 4470   3.491  11.364   3.932
67525SOL     OW 4471   1.694  14.428   6.676
67525SOL    HW1 4472   1.779  14.462   6.647
67525SOL    HW2 4473   1.672  14.481   6.753
67526SOL     OW 4474   9.947   2.922   8.069
67526SOL    HW1 4475  10.040   2.930   8.049
67526SOL    HW2 4476   9.940   2.944   8.162
67527SOL     OW 4477   9.166  14.384   1.593
67527SOL    HW1 4478   9.182  14.303   1.640
67527SOL    HW2 4479   9.173  14.452   1.660
67528SOL     OW 4480   8.511   5.196   3.493
67528SOL    HW1 4481   8.480   5.263   3.554
67528SOL    HW2 4482   8.501   5.114   3.541
67529SOL     OW 4483   5.930  13.396   8.891
67529SOL    HW1 4484   5.838  13.412   8.913
67529SOL    HW2 4485   5.974  13.477   8.914
67530SOL     OW 4486  11.675   1.788  13.847
67530SOL    HW1 4487  11.764   1.801  13.878
67530SOL    HW2 4488  11.641   1.876  13.832
67531SOL     OW 4489   1.887   4.428  12.231
67531SOL    HW1 4490   1.851   4.418  12.143
67531SOL    HW2 4491   1.978   4.400  12.223
67532SOL     OW 4492   5.907   9.602   7.047
67532SOL    HW1 4493   5.987   9.635   7.007
67532SOL    HW2 4494   5.871   9.678   7.093
67533SOL     OW 4495   7.259  10.462  11.920
67533SOL    HW1 4496   7.249  10.448  11.826
67533SOL    HW2 4497   7.293  10.551  11.928
67534SOL     OW 4498   2.032   7.557  13.237
67534SOL    HW1 4499   2.033   7.647  13.272
67534SOL    HW2 4500   2.047   7.502  13.314
67535SOL     OW 4501   9.153   4.952   1.651
67535SOL    HW1 4502   9.074   4.901   1.665
67535SOL    HW2 4503   9.222   4.887   1.637
67536SOL     OW 4504   1.074   5.418  14.337
67536SOL    HW1 4505   1.160   5.459  14.349
67536SOL    HW2 4506   1.026   5.479  14.281
67537SOL     OW 4507   0.547   4.627   3.923
67537SOL    HW1 4508   0.505   4.590   4.000
67537SOL    HW2 4509   0.483   4.688   3.887
67538SOL     OW 4510   7.055   6.058   4.275
67538SOL    HW1 4511   7.008   6.036   4.195
67538SOL    HW2 4512   7.118   6.125   4.248
67539SOL     OW 4513   5.588  11.022   2.564
67539SOL    HW1 4514   5.531  10.953   2.598
67539SOL    HW2 4515   5.635  11.055   2.641
67540SOL     OW 4516   2.654  10.756  10.302
67540SOL    HW1 4517   2.569  10.758  10.345
67540SOL    HW2 4518   2.633  10.756  10.208
67541SOL     OW 4519  11.901  12.342   9.279
67541SOL    HW1 4520  11.889  12.433   9.307
67541SOL    HW2 4521  11.861  12.290   9.349
67542SOL     OW 4522  13.819   1.623   3.027
67542SOL    HW1 4523  13.800   1.711   2.995
67542SOL    HW2 4524  13.848   1.575   2.949
67543SOL     OW 4525   7.685   2.251   3.606
67543SOL    HW1 4526   7.662   2.299   3.686
67543SOL    HW2 4527   7.765   2.205   3.628
67544SOL     OW 4528  12.583   7.943   6.650
67544SOL    HW1 4529  12.520   8.004   6.610
67544SOL    HW2 4530  12.562   7.945   6.743
67545SOL     OW 4531  13.555   3.044  12.955
67545SOL    HW1 4532  13.538   2.961  12.999
67545SOL    HW2 4533  13.637   3.031  12.909
67546SOL     OW 4534   7.667  12.566  14.063
67546SOL    HW1 4535   7.664  12.639  14.001
67546SOL    HW2 4536   7.735  12.509  14.029
67547SOL     OW 4537   9.970  13.654   0.879
67547SOL    HW1 4538   9.934  13.673   0.966
67547SOL    HW2 4539  10.057  13.693   0.880
67548SOL     OW 4540   0.258  11.836   2.620
67548SOL    HW1 4541   0.337  11.883   2.648
67548SOL    HW2 4542   0.192  11.859   2.685
67549SOL     OW 4543   9.156   7.570  13.483
67549SOL    HW1 4544   9.104   7.563  13.403
67549SOL    HW2 4545   9.214   7.494  13.481
67550SOL     OW 4546  11.848  12.685  11.880
67550SOL    HW1 4547  11.910  12.750  11.847
67550SOL    HW2 4548  11.902  12.622  11.927
67551SOL     OW 4549   6.060   6.142   0.471
67551SOL    HW1 4550   6.051   6.079   0.541
67551SOL    HW2 4551   6.040   6.227   0.511
67552SOL     OW 4552   8.731   0.546   0.576
67552SOL    HW1 4553   8.687   0.489   0.513
67552SOL    HW2 4554   8.752   0.625   0.526
67553SOL     OW 4555   9.303  14.090   7.050
67553SOL    HW1 4556   9.211  14.114   7.062
67553SOL    HW2 4557   9.327  14.048   7.132
67554SOL     OW 4558   6.516   5.956  13.017
67554SOL    HW1 4559   6.460   5.917  12.950
67554SOL    HW2 4560   6.602   5.963  12.976
67555SOL     OW 4561   8.720  14.124   3.323
67555SOL    HW1 4562   8.681  14.096   3.240
67555SOL    HW2 4563   8.680  14.068   3.389
67556SOL     OW 4564   6.946   6.827   6.320
67556SOL    HW1 4565   7.037   6.819   6.292
67556SOL    HW2 4566   6.950   6.888   6.394
67557SOL     OW 4567  14.701   7.724  14.107
67557SOL    HW1 4568  14.768   7.792  14.095
67557SOL    HW2 4569  14.686   7.690  14.019
67558SOL     OW 4570   9.960   8.796   7.950
67558SOL    HW1 4571   9.932   8.729   8.013
67558SOL    HW2 4572   9.878   8.839   7.925
67559SOL     OW 4573   4.215  12.221   0.515
67559SOL    HW1 4574   4.121  12.212   0.495
67559SOL    HW2 4575   4.219  12.285   0.586
67560SOL     OW 4576   4.204   1.347  13.983
67560SOL    HW1 4577   4.228   1.392  14.064
67560SOL    HW2 4578   4.274   1.369  13.922
67561SOL     OW 4579  11.539  13.072   6.530
67561SOL    HW1 4580  11.551  13.017   6.452
67561SOL    HW2 4581  11.444  13.081   6.538
67562SOL     OW 4582   3.949  10.282  10.491
67562SOL    HW1 4583   3.932  10.313  10.580
67562SOL    HW2 4584   4.045  10.286  10.482
67563SOL     OW 4585   0.049   9.983  10.544
67563SOL    HW1 4586  14.858   9.939  10.592
67563SOL    HW2 4587   0.043   9.948  10.455
67564SOL     OW 4588   0.183   6.851   9.680
67564SOL    HW1 4589   0.125   6.900   9.738
67564SOL    HW2 4590   0.131   6.837   9.600
67565SOL     OW 4591  11.190   9.475  10.456
67565SOL    HW1 4592  11.146   9.400  10.416
67565SOL    HW2 4593  11.279   9.472  10.422
67566SOL     OW 4594   7.842  11.710   9.288
67566SOL    HW1 4595   7.922  11.755   9.261
67566SOL    HW2 4596   7.873  11.632   9.334
67567SOL     OW 4597   2.121   0.982   9.743
67567SOL    HW1 4598   2.092   0.960   9.655
67567SOL    HW2 4599   2.196   0.924   9.759
67568SOL     OW 4600  14.502  13.372  10.175
67568SOL    HW1 4601  14.519  13.331  10.090
67568SOL    HW2 4602  14.437  13.316  10.216
67569SOL     OW 4603   2.853   3.526   7.597
67569SOL    HW1 4604   2.862   3.521   7.692
67569SOL    HW2 4605   2.847   3.434   7.568
67570SOL     OW 4606   8.715  11.924   6.552
67570SOL    HW1 4607   8.637  11.869   6.545
67570SOL    HW2 4608   8.683  12.006   6.588
67571SOL     OW 4609   7.316  14.287  13.297
67571SOL    HW1 4610   7.238  14.259  13.344
67571SOL    HW2 4611   7.289  14.289  13.205
67572SOL     OW 4612  12.171  12.077   8.142
67572SOL    HW1 4613  12.117  12.029   8.079
67572SOL    HW2 4614  12.140  12.048   8.227
67573SOL     OW 4615   1.080   7.581   2.127
67573SOL    HW1 4616   1.072   7.627   2.211
67573SOL    HW2 4617   1.101   7.650   2.064
67574SOL     OW 4618   5.937  10.930   5.522
67574SOL    HW1 4619   6.005  10.996   5.540
67574SOL    HW2 4620   5.900  10.957   5.438
67575SOL     OW 4621   9.349   2.733   2.728
67575SOL    HW1 4622   9.371   2.666   2.663
67575SOL    HW2 4623   9.387   2.814   2.693
67576SOL     OW 4624   0.064  13.012   2.464
67576SOL    HW1 4625  14.861  12.968   2.443
67576SOL    HW2 4626   0.092  13.051   2.382
67577SOL     OW 4627  10.209   5.927   1.665
67577SOL    HW1 4628  10.180   5.865   1.731
67577SOL    HW2 4629  10.207   5.878   1.583
67578SOL     OW 4630   7.951   9.799   0.178
67578SOL    HW1 4631   7.862   9.808   0.146
67578SOL    HW2 4632   7.962   9.705   0.193
67579SOL     OW 4633   8.036   2.863   7.999
67579SOL    HW1 4634   8.130   2.857   7.985
67579SOL    HW2 4635   8.024   2.841   8.091
67580SOL     OW 4636   9.529   7.592  14.815
67580SOL    HW1 4637   9.451   7.551  14.777
67580SOL    HW2 4638   9.584   7.518  14.841
67581SOL     OW 4639  11.270   3.656   6.975
67581SOL    HW1 4640  11.345   3.674   7.032
67581SOL    HW2 4641  11.198   3.636   7.035
67582SOL     OW 4642  12.927   0.105   4.797
67582SOL    HW1 4643  12.904   0.178   4.739
67582SOL    HW2 4644  12.871   0.116   4.873
67583SOL     OW 4645   6.294   9.707   1.440
67583SOL    HW1 4646   6.377   9.686   1.396
67583SOL    HW2 4647   6.230   9.713   1.368
67584SOL     OW 4648   2.435   0.103  10.628
67584SOL    HW1 4649   2.461   0.133  10.716
67584SOL    HW2 4650   2.507   0.131  10.572
67585SOL     OW 4651   1.833  10.873  12.234
67585SOL    HW1 4652   1.748  10.899  12.198
67585SOL    HW2 4653   1.878  10.956  12.250
67586SOL     OW 4654   7.560   6.147  12.460
67586SOL    HW1 4655   7.616   6.207  12.509
67586SOL    HW2 4656   7.525   6.199  12.389
67587SOL     OW 4657  14.584   4.590  10.055
67587SOL    HW1 4658  14.615   4.503  10.082
67587SOL    HW2 4659  14.586   4.587   9.959
67588SOL     OW 4660   7.015   2.975  11.612
67588SOL    HW1 4661   7.098   3.007  11.647
67588SOL    HW2 4662   6.949   3.010  11.671
67589SOL     OW 4663  14.111   5.705  13.863
67589SOL    HW1 4664  14.184   5.707  13.926
67589SOL    HW2 4665  14.075   5.794  13.867
67590SOL     OW 4666   0.653   2.165  14.876
67590SOL    HW1 4667   0.664   2.259   0.007
67590SOL    HW2 4668   0.562   2.154  14.847
67591SOL     OW 4669   8.417   7.945   5.138
67591SOL    HW1 4670   8.422   7.852   5.160
67591SOL    HW2 4671   8.480   7.957   5.067
67592SOL     OW 4672   5.586  13.131   4.553
67592SOL    HW1 4673   5.632  13.202   4.598
67592SOL    HW2 4674   5.537  13.086   4.622
67593SOL     OW 4675   9.721   6.981   9.399
67593SOL    HW1 4676   9.788   6.961   9.465
67593SOL    HW2 4677   9.658   6.909   9.405
67594SOL     OW 4678   0.400  10.423   5.446
67594SOL    HW1 4679   0.429  10.455   5.361
67594SOL    HW2 4680   0.477  10.428   5.502
67595SOL     OW 4681   4.298   2.700   6.590
67595SOL    HW1 4682   4.316   2.732   6.502
67595SOL    HW2 4683   4.382   2.710   6.636
67596SOL     OW 4684  11.786   1.087   6.981
67596SOL    HW1 4685  11.769   1.061   6.890
67596SOL    HW2 4686  11.700   1.110   7.016
67597SOL     OW 4687  13.967  13.108  14.763
67597SOL    HW1 4688  13.952  13.020  14.730
67597SOL    HW2 4689  13.886  13.156  14.741
67598SOL     OW 4690  12.556  13.890   3.386
67598SOL    HW1 4691  12.575  13.984   3.382
67598SOL    HW2 4692  12.543  13.865   3.294
67599SOL     OW 4693   0.979   9.660  13.303
67599SOL    HW1 4694   0.967   9.580  13.252
67599SOL    HW2 4695   0.896   9.707  13.296
67600SOL     OW 4696  11.915   0.602   6.807
67600SOL    HW1 4697  11.829   0.614   6.766
67600SOL    HW2 4698  11.925   0.508   6.814
67601SOL     OW 4699  14.249  11.610   5.628
67601SOL    HW1 4700  14.163  11.609   5.669
67601SOL    HW2 4701  14.307  11.570   5.693
67602SOL     OW 4702   2.220  11.632   4.685
67602SOL    HW1 4703   2.142  11.634   4.629
67602SOL    HW2 4704   2.200  11.568   4.752
67603SOL     OW 4705  13.593   7.450  12.984
67603SOL    HW1 4706  13.498   7.464  12.987
67603SOL    HW2 4707  13.628   7.534  12.954
67604SOL     OW 4708   2.417   0.499  10.804
67604SOL    HW1 4709   2.477   0.552  10.857
67604SOL    HW2 4710   2.474   0.442  10.753
67605SOL     OW 4711  11.167  11.326   0.303
67605SOL    HW1 4712  11.098  11.322   0.236
67605SOL    HW2 4713  11.161  11.415   0.338
67606SOL     OW 4714   2.962  12.813   1.589
67606SOL    HW1 4715   3.002  12.834   1.674
67606SOL    HW2 4716   2.876  12.776   1.611
67607SOL     OW 4717  11.834  10.333   8.098
67607SOL    HW1 4718  11.897  10.339   8.170
67607SOL    HW2 4719  11.749  10.352   8.139
67608SOL     OW 4720   3.136  13.869  10.901
67608SOL    HW1 4721   3.165  13.782  10.874
67608SOL    HW2 4722   3.217  13.915  10.924
67609SOL     OW 4723   8.330   8.714  14.220
67609SOL    HW1 4724   8.385   8.636  14.212
67609SOL    HW2 4725   8.248   8.682  14.259
67610SOL     OW 4726   6.945   5.395  12.636
67610SOL    HW1 4727   6.929   5.382  12.543
67610SOL    HW2 4728   6.858   5.411  12.674
67611SOL     OW 4729  10.533   7.085  10.266
67611SOL    HW1 4730  10.572   7.170  10.251
67611SOL    HW2 4731  10.461   7.080  10.203
67612SOL     OW 4732  12.763   5.143   3.408
67612SOL    HW1 4733  12.842   5.154   3.354
67612SOL    HW2 4734  12.796   5.104   3.490
67613SOL     OW 4735  13.536   3.021  10.399
67613SOL    HW1 4736  13.449   2.985  10.417
67613SOL    HW2 4737  13.521   3.082  10.327
67614SOL     OW 4738   3.776  14.288   5.869
67614SOL    HW1 4739   3.745  14.254   5.785
67614SOL    HW2 4740   3.872  14.289   5.860
67615SOL     OW 4741   1.850  10.873   8.382
67615SOL    HW1 4742   1.766  10.867   8.337
67615SOL    HW2 4743   1.900  10.937   8.332
67616SOL     OW 4744  11.252   6.566  13.461
67616SOL    HW1 4745  11.338   6.592  13.494
67616SOL    HW2 4746  11.242   6.613  13.379
67617SOL     OW 4747  13.426   6.208  11.838
67617SOL    HW1 4748  13.332   6.218  11.854
67617SOL    HW2 4749  13.433   6.186  11.745
67618SOL     OW 4750   4.799   8.688   4.898
67618SOL    HW1 4751   4.750   8.768   4.882
67618SOL    HW2 4752   4.751   8.620   4.849
67619SOL     OW 4753   6.910   0.229   3.056
67619SOL    HW1 4754   6.860   0.188   3.127
67619SOL    HW2 4755   6.853   0.220   2.979
67620SOL     OW 4756  11.123  11.740  13.434
67620SOL    HW1 4757  11.068  11.685  13.489
67620SOL    HW2 4758  11.212  11.709  13.451
67621SOL     OW 4759   9.158   0.633   5.728
67621SOL    HW1 4760   9.125   0.591   5.808
67621SOL    HW2 4761   9.186   0.720   5.756
67622SOL     OW 4762   1.047   3.181   3.562
67622SOL    HW1 4763   1.087   3.265   3.539
67622SOL    HW2 4764   1.114   3.116   3.540
67623SOL     OW 4765   4.301  12.826   4.826
67623SOL    HW1 4766   4.381  12.784   4.796
67623SOL    HW2 4767   4.299  12.910   4.780
67624SOL     OW 4768  14.448   5.963  12.643
67624SOL    HW1 4769  14.355   5.965  12.620
67624SOL    HW2 4770  14.469   6.053  12.667
67625SOL     OW 4771   8.237  12.237   7.176
67625SOL    HW1 4772   8.272  12.207   7.260
67625SOL    HW2 4773   8.209  12.158   7.131
67626SOL     OW 4774   7.668   9.412   0.032
67626SOL    HW1 4775   7.738   9.366   0.078
67626SOL    HW2 4776   7.689   9.402  14.819
67627SOL     OW 4777   1.521   7.528  14.447
67627SOL    HW1 4778   1.572   7.520  14.367
67627SOL    HW2 4779   1.431   7.507  14.420
67628SOL     OW 4780   1.635   2.770  10.869
67628SOL    HW1 4781   1.647   2.690  10.920
67628SOL    HW2 4782   1.656   2.841  10.930
67629SOL     OW 4783   9.120   3.647  11.265
67629SOL    HW1 4784   9.176   3.634  11.188
67629SOL    HW2 4785   9.064   3.721  11.242
67630SOL     OW 4786   9.926   5.479   4.832
67630SOL    HW1 4787  10.013   5.439   4.837
67630SOL    HW2 4788   9.870   5.422   4.885
67631SOL     OW 4789  10.425   7.654   4.466
67631SOL    HW1 4790  10.507   7.628   4.507
67631SOL    HW2 4791  10.388   7.572   4.433
67632SOL     OW 4792   3.631  14.366   5.480
67632SOL    HW1 4793   3.701  14.308   5.510
67632SOL    HW2 4794   3.590  14.398   5.561
67633SOL     OW 4795  11.399  13.277   9.424
67633SOL    HW1 4796  11.475  13.334   9.433
67633SOL    HW2 4797  11.354  13.309   9.346
67634SOL     OW 4798   5.458   4.622   5.019
67634SOL    HW1 4799   5.420   4.548   4.970
67634SOL    HW2 4800   5.552   4.615   5.002
67635SOL     OW 4801   9.985  11.288   3.417
67635SOL    HW1 4802   9.980  11.263   3.509
67635SOL    HW2 4803   9.932  11.222   3.372
67636SOL     OW 4804   8.715   9.377   0.597
67636SOL    HW1 4805   8.630   9.421   0.608
67636SOL    HW2 4806   8.768   9.410   0.670
67637SOL     OW 4807   3.359  11.601  10.168
67637SOL    HW1 4808   3.397  11.614  10.255
67637SOL    HW2 4809   3.349  11.507  10.160
67638SOL     OW 4810  13.811   8.240   2.987
67638SOL    HW1 4811  13.865   8.315   2.964
67638SOL    HW2 4812  13.873   8.167   2.996
67639SOL     OW 4813   0.271   3.824   6.376
67639SOL    HW1 4814   0.256   3.800   6.467
67639SOL    HW2 4815   0.212   3.898   6.361
67640SOL     OW 4816   9.948  12.206   4.386
67640SOL    HW1 4817   9.895  12.154   4.447
67640SOL    HW2 4818  10.013  12.248   4.442
67641SOL     OW 4819   2.911   1.052   9.192
67641SOL    HW1 4820   2.868   1.047   9.107
67641SOL    HW2 4821   2.842   1.077   9.253
67642SOL     OW 4822   7.887  11.376   6.366
67642SOL    HW1 4823   7.804  11.373   6.412
67642SOL    HW2 4824   7.867  11.414   6.281
67643SOL     OW 4825  10.703   6.992   8.911
67643SOL    HW1 4826  10.694   7.043   8.830
67643SOL    HW2 4827  10.617   6.998   8.953
67644SOL     OW 4828  12.541  12.301  10.780
67644SOL    HW1 4829  12.511  12.390  10.762
67644SOL    HW2 4830  12.463  12.247  10.773
67645SOL     OW 4831  13.853   3.788   6.254
67645SOL    HW1 4832  13.814   3.855   6.198
67645SOL    HW2 4833  13.903   3.838   6.319
67646SOL     OW 4834   7.921   5.513  14.685
67646SOL    HW1 4835   7.876   5.565  14.751
67646SOL    HW2 4836   7.877   5.428  14.687
67647SOL     OW 4837  11.246   7.920  10.435
67647SOL    HW1 4838  11.178   7.954  10.493
67647SOL    HW2 4839  11.201   7.905  10.352
67648SOL     OW 4840  12.483   7.822   6.184
67648SOL    HW1 4841  12.462   7.881   6.112
67648SOL    HW2 4842  12.537   7.875   6.244
67649SOL     OW 4843   8.740   0.550  10.134
67649SOL    HW1 4844   8.781   0.542  10.047
67649SOL    HW2 4845   8.731   0.644  10.147
67650SOL     OW 4846   6.448   9.042   4.195
67650SOL    HW1 4847   6.428   8.973   4.132
67650SOL    HW2 4848   6.491   9.110   4.142
67651SOL     OW 4849   3.526  14.129   4.834
67651SOL    HW1 4850   3.460  14.091   4.893
67651SOL    HW2 4851   3.567  14.053   4.792
67652SOL     OW 4852   0.403  12.803   8.314
67652SOL    HW1 4853   0.465  12.861   8.270
67652SOL    HW2 4854   0.352  12.861   8.371
67653SOL     OW 4855  13.574   1.217   1.512
67653SOL    HW1 4856  13.513   1.143   1.517
67653SOL    HW2 4857  13.660   1.180   1.533
67654SOL     OW 4858   3.430  11.359  12.778
67654SOL    HW1 4859   3.393  11.350  12.866
67654SOL    HW2 4860   3.415  11.451  12.755
67655SOL     OW 4861   0.991   6.382   4.230
67655SOL    HW1 4862   0.903   6.358   4.259
67655SOL    HW2 4863   0.986   6.381   4.135
67656SOL     OW 4864   2.568  12.589  11.506
67656SOL    HW1 4865   2.480  12.619  11.482
67656SOL    HW2 4866   2.581  12.509  11.455
67657SOL     OW 4867   0.952   3.315   4.719
67657SOL    HW1 4868   0.874   3.354   4.758
67657SOL    HW2 4869   0.974   3.372   4.646
67658SOL     OW 4870   0.069  10.156   2.679
67658SOL    HW1 4871   0.070  10.112   2.764
67658SOL    HW2 4872  14.861  10.193   2.673
67659SOL     OW 4873   4.118  11.796  14.466
67659SOL    HW1 4874   4.039  11.797  14.520
67659SOL    HW2 4875   4.111  11.715  14.415
67660SOL     OW 4876   8.385   5.350  12.356
67660SOL    HW1 4877   8.412   5.371  12.446
67660SOL    HW2 4878   8.424   5.420  12.303
67661SOL     OW 4879  10.040   8.771   3.788
67661SOL    HW1 4880  10.083   8.764   3.703
67661SOL    HW2 4881  10.079   8.701   3.840
67662SOL     OW 4882  14.070   8.141  12.979
67662SOL    HW1 4883  14.128   8.197  13.030
67662SOL    HW2 4884  14.091   8.052  13.009
67663SOL     OW 4885   9.824   6.613  13.327
67663SOL    HW1 4886   9.752   6.554  13.349
67663SOL    HW2 4887   9.903   6.563  13.347
67664SOL     OW 4888  10.463   6.303   8.933
67664SOL    HW1 4889  10.368   6.315   8.927
67664SOL    HW2 4890  10.489   6.274   8.846
67665SOL     OW 4891   5.295   4.392   9.073
67665SOL    HW1 4892   5.292   4.478   9.032
67665SOL    HW2 4893   5.233   4.398   9.146
67666SOL     OW 4894   7.008   9.507   2.335
67666SOL    HW1 4895   6.944   9.487   2.403
67666SOL    HW2 4896   6.963   9.567   2.276
67667SOL     OW 4897   6.143   3.449   5.089
67667SOL    HW1 4898   6.069   3.440   5.028
67667SOL    HW2 4899   6.216   3.478   5.034
67668SOL     OW 4900   7.897   3.841   9.289
67668SOL    HW1 4901   7.879   3.933   9.311
67668SOL    HW2 4902   7.987   3.827   9.318
67669SOL     OW 4903  14.414  10.937   7.351
67669SOL    HW1 4904  14.488  10.883   7.377
67669SOL    HW2 4905  14.353  10.934   7.425
67670SOL     OW 4906   0.517  14.290   0.090
67670SOL    HW1 4907   0.611  14.298   0.077
67670SOL    HW2 4908   0.489  14.378   0.114
67671SOL     OW 4909   6.354   9.500   6.356
67671SOL    HW1 4910   6.300   9.424   6.332
67671SOL    HW2 4911   6.401   9.472   6.434
67672SOL     OW 4912   0.475   5.418   8.068
67672SOL    HW1 4913   0.411   5.373   8.014
67672SOL    HW2 4914   0.449   5.398   8.158
67673SOL     OW 4915   5.913   7.936   3.741
67673SOL    HW1 4916   5.858   7.963   3.667
67673SOL    HW2 4917   5.867   7.968   3.818
67674SOL     OW 4918   9.792   6.531  10.774
67674SOL    HW1 4919   9.787   6.585  10.696
67674SOL    HW2 4920   9.800   6.593  10.846
67675SOL     OW 4921  12.344   6.293   0.229
67675SOL    HW1 4922  12.376   6.210   0.265
67675SOL    HW2 4923  12.402   6.359   0.266
67676SOL     OW 4924  14.800  10.978   2.454
67676SOL    HW1 4925  14.770  11.036   2.383
67676SOL    HW2 4926   0.011  11.002   2.468
67677SOL     OW 4927  12.286  12.562   2.909
67677SOL    HW1 4928  12.364  12.586   2.959
67677SOL    HW2 4929  12.215  12.564   2.972
67678SOL     OW 4930   2.871   0.341  14.820
67678SOL    HW1 4931   2.805   0.272  14.819
67678SOL    HW2 4932   2.833   0.412  14.768
67679SOL     OW 4933   6.514   2.124   4.952
67679SOL    HW1 4934   6.470   2.145   5.035
67679SOL    HW2 4935   6.543   2.034   4.962
67680SOL     OW 4936   6.558   9.326  10.722
67680SOL    HW1 4937   6.468   9.294  10.720
67680SOL    HW2 4938   6.611   9.250  10.699
67681SOL     OW 4939  12.435   2.708   6.243
67681SOL    HW1 4940  12.472   2.785   6.285
67681SOL    HW2 4941  12.433   2.641   6.312
67682SOL     OW 4942   8.151   6.232   8.895
67682SOL    HW1 4943   8.064   6.193   8.889
67682SOL    HW2 4944   8.136   6.326   8.899
67683SOL     OW 4945   4.812   7.192   1.670
67683SOL    HW1 4946   4.740   7.235   1.716
67683SOL    HW2 4947   4.881   7.258   1.666
67684SOL     OW 4948  10.846   2.438   3.128
67684SOL    HW1 4949  10.853   2.365   3.191
67684SOL    HW2 4950  10.780   2.408   3.065
67685SOL     OW 4951   4.232   7.539   6.376
67685SOL    HW1 4952   4.137   7.527   6.379
67685SOL    HW2 4953   4.259   7.498   6.294
67686SOL     OW 4954  13.137  11.994   4.183
67686SOL    HW1 4955  13.055  11.959   4.150
67686SOL    HW2 4956  13.193  11.918   4.194
67687SOL     OW 4957   7.787   6.569   7.460
67687SOL    HW1 4958   7.845   6.513   7.512
67687SOL    HW2 4959   7.832   6.581   7.377
67688SOL     OW 4960   6.719  10.878   0.289
67688SOL    HW1 4961   6.775  10.936   0.238
67688SOL    HW2 4962   6.644  10.932   0.314
67689SOL     OW 4963  12.132  13.545   4.096
67689SOL    HW1 4964  12.084  13.540   4.013
67689SOL    HW2 4965  12.223  13.558   4.070
67690SOL     OW 4966  13.276  10.749   3.647
67690SOL    HW1 4967  13.203  10.712   3.697
67690SOL    HW2 4968  13.235  10.788   3.570
67691SOL     OW 4969  14.736  12.215  14.666
67691SOL    HW1 4970  14.746  12.271  14.588
67691SOL    HW2 4971  14.719  12.128  14.631
67692SOL     OW 4972   0.191  14.370   0.221
67692SOL    HW1 4973   0.201  14.298   0.283
67692SOL    HW2 4974   0.278  14.411   0.217
67693SOL     OW 4975   4.787   3.439  14.041
67693SOL    HW1 4976   4.751   3.487  14.116
67693SOL    HW2 4977   4.712   3.392  14.004
67694SOL     OW 4978   2.712  11.622   5.609
67694SOL    HW1 4979   2.637  11.681   5.609
67694SOL    HW2 4980   2.704  11.574   5.692
67695SOL     OW 4981   7.854  10.285  11.507
67695SOL    HW1 4982   7.921  10.280  11.575
67695SOL    HW2 4983   7.795  10.355  11.536
67696SOL     OW 4984  10.112  11.704   6.317
67696SOL    HW1 4985  10.023  11.726   6.291
67696SOL    HW2 4986  10.107  11.612   6.344
67697SOL     OW 4987   6.764   2.134  13.781
67697SOL    HW1 4988   6.714   2.092  13.711
67697SOL    HW2 4989   6.699   2.184  13.830
67698SOL     OW 4990   1.277  12.694   0.062
67698SOL    HW1 4991   1.347  12.717   0.123
67698SOL    HW2 4992   1.282  12.599   0.054
67699SOL     OW 4993   5.009   7.109   8.275
67699SOL    HW1 4994   5.034   7.099   8.183
67699SOL    HW2 4995   5.090   7.095   8.324
67700SOL     OW 4996   5.933  13.397   0.110
67700SOL    HW1 4997   6.012  13.424   0.063
67700SOL    HW2 4998   5.930  13.302   0.097
67701SOL     OW 4999   8.442   0.856   5.879
67701SOL    HW1 5000   8.510   0.907   5.835
67701SOL    HW2 5001   8.366   0.915   5.882
67702SOL     OW 5002   5.473   6.192  14.796
67702SOL    HW1 5003   5.527   6.123  14.759
67702SOL    HW2 5004   5.384   6.158  14.790
67703SOL     OW 5005   2.754  10.445   1.861
67703SOL    HW1 5006   2.687  10.420   1.924
67703SOL    HW2 5007   2.819  10.375   1.866
67704SOL     OW 5008   1.735   4.759   4.243
67704SOL    HW1 5009   1.778   4.819   4.303
67704SOL    HW2 5010   1.806   4.727   4.186
67705SOL     OW 5011   5.377   9.005  14.529
67705SOL    HW1 5012   5.413   8.940  14.589
67705SOL    HW2 5013   5.304   9.045  14.577
67706SOL     OW 5014  12.668   2.391  10.805
67706SOL    HW1 5015  12.729   2.430  10.867
67706SOL    HW2 5016  12.583   2.429  10.828
67707SOL     OW 5017  13.958   9.408  10.889
67707SOL    HW1 5018  13.915   9.323  10.892
67707SOL    HW2 5019  13.896   9.468  10.930
67708SOL     OW 5020  12.403  12.603   3.976
67708SOL    HW1 5021  12.363  12.687   4.000
67708SOL    HW2 5022  12.497  12.621   3.973
67709SOL     OW 5023   6.941   3.351   9.704
67709SOL    HW1 5024   6.848   3.369   9.720
67709SOL    HW2 5025   6.950   3.351   9.609
67710SOL     OW 5026   4.057  12.522  13.418
67710SOL    HW1 5027   4.077  12.429  13.408
67710SOL    HW2 5028   4.029  12.550  13.331
67711SOL     OW 5029   8.092   4.958   8.408
67711SOL    HW1 5030   8.129   4.963   8.320
67711SOL    HW2 5031   8.151   4.899   8.455
67712SOL     OW 5032   8.168   5.802   9.851
67712SOL    HW1 5033   8.111   5.826   9.777
67712SOL    HW2 5034   8.137   5.715   9.876
67713SOL     OW 5035   5.197  11.730   3.039
67713SOL    HW1 5036   5.267  11.789   3.012
67713SOL    HW2 5037   5.187  11.747   3.133
67714SOL     OW 5038  14.162   7.459   6.354
67714SOL    HW1 5039  14.076   7.473   6.393
67714SOL    HW2 5040  14.224   7.487   6.421
67715SOL     OW 5041   8.365  13.755  12.226
67715SOL    HW1 5042   8.350  13.704  12.305
67715SOL    HW2 5043   8.292  13.816  12.222
67716SOL     OW 5044   8.563   5.752   0.691
67716SOL    HW1 5045   8.632   5.698   0.730
67716SOL    HW2 5046   8.606   5.834   0.670
67717SOL     OW 5047  14.172  13.074   7.174
67717SOL    HW1 5048  14.118  13.065   7.095
67717SOL    HW2 5049  14.260  13.052   7.146
67718SOL     OW 5050   6.725  12.648   3.511
67718SOL    HW1 5051   6.777  12.592   3.568
67718SOL    HW2 5052   6.762  12.735   3.523
67719SOL     OW 5053   3.672   8.076   0.287
67719SOL    HW1 5054   3.584   8.075   0.249
67719SOL    HW2 5055   3.670   8.146   0.352
67720SOL     OW 5056   4.254  10.271   0.489
67720SOL    HW1 5057   4.347  10.295   0.489
67720SOL    HW2 5058   4.253  10.176   0.482
67721SOL     OW 5059   0.131  12.800   1.357
67721SOL    HW1 5060   0.105  12.724   1.408
67721SOL    HW2 5061   0.217  12.776   1.320
67722SOL     OW 5062   1.977   7.893   7.239
67722SOL    HW1 5063   2.034   7.932   7.173
67722SOL    HW2 5064   1.889   7.924   7.216
67723SOL     OW 5065   5.727  12.977  12.470
67723SOL    HW1 5066   5.644  12.994  12.515
67723SOL    HW2 5067   5.782  13.053  12.491
67724SOL     OW 5068   7.119  10.243  12.047
67724SOL    HW1 5069   7.141  10.328  12.009
67724SOL    HW2 5070   7.153  10.179  11.984
67725SOL     OW 5071   3.807   8.105  13.269
67725SOL    HW1 5072   3.809   8.052  13.349
67725SOL    HW2 5073   3.855   8.185  13.293
67726SOL     OW 5074   6.951  10.920   2.594
67726SOL    HW1 5075   6.938  10.918   2.689
67726SOL    HW2 5076   7.043  10.898   2.582
67727SOL     OW 5077  14.740   5.806  10.570
67727SOL    HW1 5078  14.727   5.713  10.589
67727SOL    HW2 5079  14.831   5.812  10.542
67728SOL     OW 5080   3.773  12.393   4.283
67728SOL    HW1 5081   3.864  12.386   4.312
67728SOL    HW2 5082   3.772  12.353   4.196
67729SOL     OW 5083   7.045  11.014  10.095
67729SOL    HW1 5084   7.120  10.968  10.058
67729SOL    HW2 5085   7.011  10.954  10.162
67730SOL     OW 5086  11.017   1.147   1.674
67730SOL    HW1 5087  10.996   1.191   1.757
67730SOL    HW2 5088  11.018   1.218   1.610
67731SOL     OW 5089   8.809   6.944  14.780
67731SOL    HW1 5090   8.853   7.004  14.720
67731SOL    HW2 5091   8.724   6.927  14.740
67732SOL     OW 5092   6.662   1.076   5.358
67732SOL    HW1 5093   6.652   1.009   5.425
67732SOL    HW2 5094   6.676   1.027   5.277
67733SOL     OW 5095   6.506   9.887   3.032
67733SOL    HW1 5096   6.548   9.918   3.112
67733SOL    HW2 5097   6.413   9.906   3.046
67734SOL     OW 5098   0.411   2.867  13.200
67734SOL    HW1 5099   0.344   2.817  13.246
67734SOL    HW2 5100   0.369   2.950  13.179
67735SOL     OW 5101   1.323   4.548   5.009
67735SOL    HW1 5102   1.259   4.576   4.943
67735SOL    HW2 5103   1.391   4.503   4.959
67736SOL     OW 5104   9.570   8.816   0.601
67736SOL    HW1 5105   9.595   8.904   0.630
67736SOL    HW2 5106   9.475   8.821   0.588
67737SOL     OW 5107   3.779   2.998  12.797
67737SOL    HW1 5108   3.835   3.009  12.720
67737SOL    HW2 5109   3.718   3.071  12.793
67738SOL     OW 5110   8.751   8.792   7.637
67738SOL    HW1 5111   8.801   8.790   7.556
67738SOL    HW2 5112   8.810   8.755   7.703
67739SOL     OW 5113   9.284   9.689   2.064
67739SOL    HW1 5114   9.275   9.642   2.147
67739SOL    HW2 5115   9.199   9.730   2.051
67740SOL     OW 5116   9.650   2.158  10.779
67740SOL    HW1 5117   9.684   2.215  10.709
67740SOL    HW2 5118   9.693   2.074  10.764
67741SOL     OW 5119   2.222   4.825   9.932
67741SOL    HW1 5120   2.222   4.775   9.850
67741SOL    HW2 5121   2.309   4.812   9.968
67742SOL     OW 5122  13.398   5.876  10.997
67742SOL    HW1 5123  13.439   5.821  11.065
67742SOL    HW2 5124  13.472   5.911  10.947
67743SOL     OW 5125   8.754  13.920   7.302
67743SOL    HW1 5126   8.794  13.848   7.254
67743SOL    HW2 5127   8.663  13.894   7.315
67744SOL     OW 5128   5.571   9.845  10.014
67744SOL    HW1 5129   5.540   9.805  10.095
67744SOL    HW2 5130   5.529   9.794   9.945
67745SOL     OW 5131   4.366  12.627   8.322
67745SOL    HW1 5132   4.286  12.586   8.356
67745SOL    HW2 5133   4.334  12.692   8.259
67746SOL     OW 5134  13.821   0.913   6.440
67746SOL    HW1 5135  13.755   0.879   6.500
67746SOL    HW2 5136  13.897   0.932   6.496
67747SOL     OW 5137   3.128   0.584  11.510
67747SOL    HW1 5138   3.068   0.643  11.556
67747SOL    HW2 5139   3.078   0.503  11.499
67748SOL     OW 5140   4.384  12.354   1.624
67748SOL    HW1 5141   4.456  12.294   1.643
67748SOL    HW2 5142   4.396  12.425   1.687
67749SOL     OW 5143   7.921   5.413  14.272
67749SOL    HW1 5144   7.999   5.421  14.218
67749SOL    HW2 5145   7.848   5.412  14.210
67750SOL     OW 5146  11.367  12.634   1.022
67750SOL    HW1 5147  11.291  12.677   1.063
67750SOL    HW2 5148  11.362  12.543   1.051
67751SOL     OW 5149   6.504  12.750  11.629
67751SOL    HW1 5150   6.441  12.684  11.660
67751SOL    HW2 5151   6.476  12.831  11.671
67752SOL     OW 5152   7.875  11.256   7.119
67752SOL    HW1 5153   7.881  11.164   7.091
67752SOL    HW2 5154   7.935  11.303   7.061
67753SOL     OW 5155   6.146  13.164   3.811
67753SOL    HW1 5156   6.190  13.248   3.805
67753SOL    HW2 5157   6.209  13.107   3.855
67754SOL     OW 5158   8.854   4.280   7.009
67754SOL    HW1 5159   8.864   4.287   6.915
67754SOL    HW2 5160   8.864   4.370   7.041
67755SOL     OW 5161  11.032   2.176  12.276
67755SOL    HW1 5162  11.027   2.268  12.251
67755SOL    HW2 5163  10.942   2.146  12.275
67756SOL     OW 5164   7.550   5.431   4.218
67756SOL    HW1 5165   7.538   5.456   4.310
67756SOL    HW2 5166   7.615   5.493   4.184
67757SOL     OW 5167   9.442   3.062   2.207
67757SOL    HW1 5168   9.433   3.109   2.125
67757SOL    HW2 5169   9.529   3.023   2.204
67758SOL     OW 5170   9.819   6.545  12.125
67758SOL    HW1 5171   9.753   6.600  12.167
67758SOL    HW2 5172   9.850   6.487  12.194
67759SOL     OW 5173   7.781   0.057   6.666
67759SOL    HW1 5174   7.693   0.060   6.627
67759SOL    HW2 5175   7.834   0.010   6.602
67760SOL     OW 5176  10.675   8.966  11.884
67760SOL    HW1 5177  10.676   8.933  11.794
67760SOL    HW2 5178  10.739   8.912  11.930
67761SOL     OW 5179  11.165   0.725  12.395
67761SOL    HW1 5180  11.138   0.668  12.467
67761SOL    HW2 5181  11.216   0.669  12.337
67762SOL     OW 5182   9.074   9.836   2.017
67762SOL    HW1 5183   8.994   9.875   2.051
67762SOL    HW2 5184   9.098   9.891   1.942
67763SOL     OW 5185   8.126   8.968   7.841
67763SOL    HW1 5186   8.162   8.914   7.911
67763SOL    HW2 5187   8.200   9.019   7.808
67764SOL     OW 5188   8.223   2.308   3.908
67764SOL    HW1 5189   8.269   2.257   3.974
67764SOL    HW2 5190   8.277   2.301   3.829
67765SOL     OW 5191   4.138  13.627   8.021
67765SOL    HW1 5192   4.231  13.649   8.029
67765SOL    HW2 5193   4.121  13.568   8.095
67766SOL     OW 5194   8.003   4.230   1.130
67766SOL    HW1 5195   8.027   4.145   1.092
67766SOL    HW2 5196   7.954   4.208   1.209
67767SOL     OW 5197   3.954   5.877   5.136
67767SOL    HW1 5198   3.906   5.937   5.193
67767SOL    HW2 5199   4.020   5.837   5.193
67768SOL     OW 5200   7.092   4.883   2.072
67768SOL    HW1 5201   7.015   4.835   2.103
67768SOL    HW2 5202   7.141   4.904   2.152
67769SOL     OW 5203   3.314   7.900  11.914
67769SOL    HW1 5204   3.381   7.833  11.925
67769SOL    HW2 5205   3.278   7.914  12.002
67770SOL     OW 5206  11.575   6.247   5.389
67770SOL    HW1 5207  11.533   6.177   5.340
67770SOL    HW2 5208  11.555   6.227   5.481
67771SOL     OW 5209   1.805  13.114   9.671
67771SOL    HW1 5210   1.818  13.176   9.744
67771SOL    HW2 5211   1.756  13.164   9.606
67772SOL     OW 5212  10.007   2.471   2.155
67772SOL    HW1 5213   9.982   2.526   2.230
67772SOL    HW2 5214  10.060   2.529   2.101
67773SOL     OW 5215   6.955  11.954   3.798
67773SOL    HW1 5216   6.978  11.952   3.705
67773SOL    HW2 5217   7.037  11.973   3.843
67774SOL     OW 5218   5.843   0.639  13.559
67774SOL    HW1 5219   5.863   0.619  13.467
67774SOL    HW2 5220   5.841   0.734  13.563
67775SOL     OW 5221   6.215   4.093   2.269
67775SOL    HW1 5222   6.307   4.088   2.297
67775SOL    HW2 5223   6.169   4.123   2.347
67776SOL     OW 5224   4.353   2.685   4.942
67776SOL    HW1 5225   4.308   2.654   4.864
67776SOL    HW2 5226   4.354   2.780   4.933
67777SOL     OW 5227   3.087   4.759   9.256
67777SOL    HW1 5228   3.009   4.795   9.298
67777SOL    HW2 5229   3.072   4.774   9.162
67778SOL     OW 5230   5.364   9.688   4.508
67778SOL    HW1 5231   5.373   9.763   4.567
67778SOL    HW2 5232   5.450   9.678   4.468
67779SOL     OW 5233   0.968  10.460   0.717
67779SOL    HW1 5234   1.049  10.419   0.687
67779SOL    HW2 5235   0.990  10.553   0.723
67780SOL     OW 5236  14.358   9.559   1.792
67780SOL    HW1 5237  14.412   9.507   1.852
67780SOL    HW2 5238  14.357   9.647   1.832
67781SOL     OW 5239  10.680  11.002   9.418
67781SOL    HW1 5240  10.711  10.991   9.328
67781SOL    HW2 5241  10.592  11.038   9.409
67782SOL     OW 5242  12.154   9.465   5.253
67782SOL    HW1 5243  12.159   9.559   5.269
67782SOL    HW2 5244  12.222   9.449   5.187
67783SOL     OW 5245  13.144   4.683   2.229
67783SOL    HW1 5246  13.120   4.591   2.233
67783SOL    HW2 5247  13.181   4.695   2.142
67784SOL     OW 5248   3.813   2.006   8.244
67784SOL    HW1 5249   3.740   2.010   8.182
67784SOL    HW2 5250   3.810   2.091   8.289
67785SOL     OW 5251   3.089   3.916   0.696
67785SOL    HW1 5252   3.064   4.008   0.691
67785SOL    HW2 5253   3.052   3.876   0.618
67786SOL     OW 5254   2.913   6.935  10.899
67786SOL    HW1 5255   2.819   6.949  10.887
67786SOL    HW2 5256   2.944   7.016  10.939
67787SOL     OW 5257   8.984   4.855  11.930
67787SOL    HW1 5258   8.897   4.816  11.924
67787SOL    HW2 5259   9.043   4.781  11.946
67788SOL     OW 5260   2.889   4.529   1.950
67788SOL    HW1 5261   2.983   4.517   1.939
67788SOL    HW2 5262   2.850   4.448   1.918
67789SOL     OW 5263   6.588   2.760   4.395
67789SOL    HW1 5264   6.614   2.815   4.469
67789SOL    HW2 5265   6.536   2.819   4.339
67790SOL     OW 5266   3.853  14.178  13.926
67790SOL    HW1 5267   3.891  14.108  13.874
67790SOL    HW2 5268   3.879  14.258  13.881
67791SOL     OW 5269   2.279   7.426   5.242
67791SOL    HW1 5270   2.240   7.490   5.182
67791SOL    HW2 5271   2.216   7.418   5.313
67792SOL     OW 5272  13.916   5.654   4.225
67792SOL    HW1 5273  13.987   5.622   4.169
67792SOL    HW2 5274  13.836   5.621   4.184
67793SOL     OW 5275   9.878   3.677   8.450
67793SOL    HW1 5276   9.853   3.769   8.454
67793SOL    HW2 5277   9.851   3.641   8.534
67794SOL     OW 5278   5.588  13.327  10.206
67794SOL    HW1 5279   5.666  13.336  10.260
67794SOL    HW2 5280   5.580  13.411  10.161
67795SOL     OW 5281   7.271   3.152   6.457
67795SOL    HW1 5282   7.282   3.241   6.423
67795SOL    HW2 5283   7.352   3.136   6.506
67796SOL     OW 5284   0.045  13.191  10.061
67796SOL    HW1 5285  14.879  13.275  10.069
67796SOL    HW2 5286   0.083  13.192   9.973
67797SOL     OW 5287  10.210   1.362   5.509
67797SOL    HW1 5288  10.156   1.284   5.493
67797SOL    HW2 5289  10.149   1.435   5.500
67798SOL     OW 5290   2.830   4.990   0.055
67798SOL    HW1 5291   2.808   4.897   0.044
67798SOL    HW2 5292   2.755   5.037   0.017
67799SOL     OW 5293   7.169   2.730  10.198
67799SOL    HW1 5294   7.077   2.751  10.214
67799SOL    HW2 5295   7.207   2.718  10.285
67800SOL     OW 5296   3.641   7.451   5.672
67800SOL    HW1 5297   3.575   7.508   5.634
67800SOL    HW2 5298   3.659   7.386   5.604
67801SOL     OW 5299  13.776   1.823  14.080
67801SOL    HW1 5300  13.811   1.789  13.998
67801SOL    HW2 5301  13.704   1.763  14.103
67802SOL     OW 5302   6.127   8.450   2.554
67802SOL    HW1 5303   6.183   8.470   2.479
67802SOL    HW2 5304   6.041   8.486   2.530
67803SOL     OW 5305   6.629   2.267   2.982
67803SOL    HW1 5306   6.679   2.193   2.949
67803SOL    HW2 5307   6.692   2.339   2.985
67804SOL     OW 5308   4.432  10.370  13.525
67804SOL    HW1 5309   4.508  10.358  13.582
67804SOL    HW2 5310   4.459  10.437  13.463
67805SOL     OW 5311   3.842   0.490   2.209
67805SOL    HW1 5312   3.784   0.556   2.172
67805SOL    HW2 5313   3.787   0.412   2.217
67806SOL     OW 5314   8.086   6.450  13.473
67806SOL    HW1 5315   8.009   6.399  13.448
67806SOL    HW2 5316   8.157   6.412  13.422
67807SOL     OW 5317   4.857   4.495  14.427
67807SOL    HW1 5318   4.864   4.552  14.350
67807SOL    HW2 5319   4.860   4.555  14.501
67808SOL     OW 5320  12.688   0.856   5.580
67808SOL    HW1 5321  12.646   0.922   5.525
67808SOL    HW2 5322  12.748   0.906   5.636
67809SOL     OW 5323   0.214   7.818  12.311
67809SOL    HW1 5324   0.194   7.911  12.319
67809SOL    HW2 5325   0.215   7.785  12.401
67810SOL     OW 5326  13.587   6.682  10.345
67810SOL    HW1 5327  13.551   6.616  10.403
67810SOL    HW2 5328  13.667   6.643  10.310
67811SOL     OW 5329   2.097   3.901   5.752
67811SOL    HW1 5330   2.085   3.916   5.658
67811SOL    HW2 5331   2.180   3.853   5.758
67812SOL     OW 5332   3.325   5.926   7.079
67812SOL    HW1 5333   3.395   5.970   7.127
67812SOL    HW2 5334   3.280   5.873   7.145
67813SOL     OW 5335   5.279   4.743   3.938
67813SOL    HW1 5336   5.350   4.768   3.878
67813SOL    HW2 5337   5.219   4.692   3.884
67814SOL     OW 5338   1.646   9.522  11.863
67814SOL    HW1 5339   1.660   9.543  11.955
67814SOL    HW2 5340   1.609   9.602  11.825
67815SOL     OW 5341   9.109   3.950  11.512
67815SOL    HW1 5342   9.075   3.988  11.593
67815SOL    HW2 5343   9.156   3.872  11.540
67816SOL     OW 5344   1.095   3.522   2.081
67816SOL    HW1 5345   1.141   3.548   2.160
67816SOL    HW2 5346   1.006   3.555   2.093
67817SOL     OW 5347   2.992   9.113  11.696
67817SOL    HW1 5348   3.046   9.051  11.744
67817SOL    HW2 5349   3.054   9.169  11.649
67818SOL     OW 5350  12.744  11.774  10.590
67818SOL    HW1 5351  12.742  11.680  10.607
67818SOL    HW2 5352  12.653  11.801  10.592
67819SOL     OW 5353  11.587  12.798  13.716
67819SOL    HW1 5354  11.670  12.808  13.764
67819SOL    HW2 5355  11.591  12.710  13.680
67820SOL     OW 5356   3.373  12.511   5.287
67820SOL    HW1 5357   3.392  12.535   5.197
67820SOL    HW2 5358   3.350  12.418   5.283
67821SOL     OW 5359   7.166  13.369  12.685
67821SOL    HW1 5360   7.223  13.411  12.749
67821SOL    HW2 5361   7.210  13.382  12.601
67822SOL     OW 5362  12.630   8.327  12.109
67822SOL    HW1 5363  12.614   8.263  12.179
67822SOL    HW2 5364  12.717   8.361  12.129
67823SOL     OW 5365  13.997   9.136   4.983
67823SOL    HW1 5366  14.000   9.047   4.948
67823SOL    HW2 5367  14.017   9.125   5.076
67824SOL     OW 5368   7.142  11.977   9.770
67824SOL    HW1 5369   7.057  11.936   9.755
67824SOL    HW2 5370   7.161  11.958   9.862
67825SOL     OW 5371  10.773   1.760   6.496
67825SOL    HW1 5372  10.701   1.733   6.439
67825SOL    HW2 5373  10.793   1.681   6.547
67826SOL     OW 5374   5.873  12.944   9.155
67826SOL    HW1 5375   5.794  12.997   9.168
67826SOL    HW2 5376   5.941  12.991   9.204
67827SOL     OW 5377  11.880  12.420   6.221
67827SOL    HW1 5378  11.817  12.350   6.239
67827SOL    HW2 5379  11.838  12.473   6.154
67828SOL     OW 5380   4.784  11.153  12.009
67828SOL    HW1 5381   4.848  11.116  12.071
67828SOL    HW2 5382   4.699  11.138  12.051
67829SOL     OW 5383  14.256  11.050   9.079
67829SOL    HW1 5384  14.222  10.971   9.120
67829SOL    HW2 5385  14.181  11.111   9.080
67830SOL     OW 5386   7.927   4.638   0.708
67830SOL    HW1 5387   7.952   4.571   0.771
67830SOL    HW2 5388   7.832   4.632   0.702
67831SOL     OW 5389   7.709   5.084   9.624
67831SOL    HW1 5390   7.726   5.123   9.710
67831SOL    HW2 5391   7.781   5.114   9.569
67832SOL     OW 5392  14.056   1.069   2.857
67832SOL    HW1 5393  13.997   1.101   2.925
67832SOL    HW2 5394  14.112   1.005   2.902
67833SOL     OW 5395   8.805   0.261   8.760
67833SOL    HW1 5396   8.883   0.255   8.816
67833SOL    HW2 5397   8.743   0.199   8.798
67834SOL     OW 5398  11.953   0.758   1.123
67834SOL    HW1 5399  11.987   0.745   1.211
67834SOL    HW2 5400  11.863   0.725   1.126
67835SOL     OW 5401   0.062   6.320  12.961
67835SOL    HW1 5402   0.045   6.243  13.016
67835SOL    HW2 5403  14.864   6.329  12.907
67836SOL     OW 5404   1.648   4.260   3.482
67836SOL    HW1 5405   1.595   4.188   3.517
67836SOL    HW2 5406   1.654   4.242   3.388
67837SOL     OW 5407  13.966   1.598   6.450
67837SOL    HW1 5408  13.981   1.588   6.356
67837SOL    HW2 5409  13.874   1.573   6.462
67838SOL     OW 5410  12.786  10.583  12.653
67838SOL    HW1 5411  12.867  10.607  12.607
67838SOL    HW2 5412  12.743  10.521  12.595
67839SOL     OW 5413   8.221   8.403   4.740
67839SOL    HW1 5414   8.190   8.322   4.699
67839SOL    HW2 5415   8.285   8.374   4.805
67840SOL     OW 5416  12.355   4.103   1.413
67840SOL    HW1 5417  12.368   4.185   1.459
67840SOL    HW2 5418  12.385   4.120   1.324
67841SOL     OW 5419   6.393  13.516   2.328
67841SOL    HW1 5420   6.402  13.611   2.327
67841SOL    HW2 5421   6.467  13.484   2.276
67842SOL     OW 5422  13.346  11.210  13.543
67842SOL    HW1 5423  13.287  11.137  13.526
67842SOL    HW2 5424  13.420  11.171  13.590
67843SOL     OW 5425  13.713   7.897   6.605
67843SOL    HW1 5426  13.636   7.843   6.588
67843SOL    HW2 5427  13.685   7.987   6.587
67844SOL     OW 5428  12.743  14.161   9.417
67844SOL    HW1 5429  12.661  14.146   9.370
67844SOL    HW2 5430  12.717  14.188   9.505
67845SOL     OW 5431   5.599   4.570   9.187
67845SOL    HW1 5432   5.597   4.580   9.092
67845SOL    HW2 5433   5.590   4.476   9.202
67846SOL     OW 5434  12.673   0.762  11.069
67846SOL    HW1 5435  12.593   0.710  11.071
67846SOL    HW2 5436  12.723   0.727  10.994
67847SOL     OW 5437   0.610   3.315  12.697
67847SOL    HW1 5438   0.653   3.366  12.766
67847SOL    HW2 5439   0.528   3.361  12.680
67848SOL     OW 5440   3.154   4.798   3.961
67848SOL    HW1 5441   3.094   4.794   3.886
67848SOL    HW2 5442   3.233   4.839   3.925
67849SOL     OW 5443  10.920  12.465   6.445
67849SOL    HW1 5444  10.978  12.393   6.422
67849SOL    HW2 5445  10.965  12.511   6.515
67850SOL     OW 5446   3.614   4.648   7.340
67850SOL    HW1 5447   3.586   4.740   7.337
67850SOL    HW2 5448   3.691   4.649   7.398
67851SOL     OW 5449   5.866   5.553   7.030
67851SOL    HW1 5450   5.883   5.572   6.937
67851SOL    HW2 5451   5.874   5.638   7.074
67852SOL     OW 5452   1.935   7.892   0.116
67852SOL    HW1 5453   1.914   7.828   0.048
67852SOL    HW2 5454   1.854   7.939   0.132
67853SOL     OW 5455   4.108   3.863  13.160
67853SOL    HW1 5456   4.037   3.812  13.200
67853SOL    HW2 5457   4.108   3.946  13.209
67854SOL     OW 5458  14.085  14.854   7.746
67854SOL    HW1 5459  14.078  14.765   7.779
67854SOL    HW2 5460  14.162   0.011   7.790
67855SOL     OW 5461   8.534   3.408   0.941
67855SOL    HW1 5462   8.514   3.353   0.865
67855SOL    HW2 5463   8.620   3.378   0.971
67856SOL     OW 5464   9.864  13.609   3.474
67856SOL    HW1 5465   9.855  13.514   3.473
67856SOL    HW2 5466   9.827  13.636   3.559
67857SOL     OW 5467   1.154   3.001   4.592
67857SOL    HW1 5468   1.192   2.915   4.575
67857SOL    HW2 5469   1.081   3.008   4.530
67858SOL     OW 5470   5.331  11.527  11.299
67858SOL    HW1 5471   5.300  11.510  11.210
67858SOL    HW2 5472   5.317  11.444  11.346
67859SOL     OW 5473  11.500  13.905   7.141
67859SOL    HW1 5474  11.421  13.943   7.104
67859SOL    HW2 5475  11.502  13.815   7.107
67860SOL     OW 5476   5.258  12.190   8.241
67860SOL    HW1 5477   5.249  12.254   8.312
67860SOL    HW2 5478   5.342  12.149   8.257
67861SOL     OW 5479   1.240  11.320  12.071
67861SOL    HW1 5480   1.240  11.255  12.001
67861SOL    HW2 5481   1.309  11.382  12.047
67862SOL     OW 5482  12.650   8.049   1.581
67862SOL    HW1 5483  12.712   8.099   1.527
67862SOL    HW2 5484  12.649   8.096   1.665
67863SOL     OW 5485   1.027  13.097   5.477
67863SOL    HW1 5486   0.984  13.020   5.438
67863SOL    HW2 5487   1.103  13.061   5.523
67864SOL     OW 5488   2.184   7.484   7.615
67864SOL    HW1 5489   2.140   7.405   7.644
67864SOL    HW2 5490   2.132   7.556   7.651
67865SOL     OW 5491   9.259   5.359  11.901
67865SOL    HW1 5492   9.227   5.269  11.899
67865SOL    HW2 5493   9.183   5.411  11.927
67866SOL     OW 5494   3.688   3.646  13.781
67866SOL    HW1 5495   3.671   3.596  13.861
67866SOL    HW2 5496   3.676   3.583  13.710
67867SOL     OW 5497   2.707   2.138  12.392
67867SOL    HW1 5498   2.636   2.202  12.398
67867SOL    HW2 5499   2.711   2.116  12.299
67868SOL     OW 5500   4.128  10.553   4.604
67868SOL    HW1 5501   4.115  10.613   4.677
67868SOL    HW2 5502   4.115  10.466   4.641
67869SOL     OW 5503  13.210   7.595   2.662
67869SOL    HW1 5504  13.261   7.676   2.669
67869SOL    HW2 5505  13.243   7.553   2.582
67870SOL     OW 5506  13.394   6.263   6.123
67870SOL    HW1 5507  13.324   6.329   6.116
67870SOL    HW2 5508  13.473   6.315   6.138
67871SOL     OW 5509   8.059   1.259   3.018
67871SOL    HW1 5510   8.112   1.338   3.020
67871SOL    HW2 5511   8.122   1.188   3.030
67872SOL     OW 5512   7.102   0.649   3.456
67872SOL    HW1 5513   7.114   0.707   3.382
67872SOL    HW2 5514   7.091   0.562   3.418
67873SOL     OW 5515   9.562   4.347  12.220
67873SOL    HW1 5516   9.600   4.292  12.288
67873SOL    HW2 5517   9.469   4.349  12.240
67874SOL     OW 5518   2.898  11.755   0.672
67874SOL    HW1 5519   2.903  11.835   0.618
67874SOL    HW2 5520   2.852  11.783   0.751
67875SOL     OW 5521   7.613   3.460   7.199
67875SOL    HW1 5522   7.519   3.463   7.180
67875SOL    HW2 5523   7.625   3.376   7.244
67876SOL     OW 5524  12.889   1.020   7.942
67876SOL    HW1 5525  12.925   1.006   7.855
67876SOL    HW2 5526  12.853   1.109   7.939
67877SOL     OW 5527  14.501   2.395   5.784
67877SOL    HW1 5528  14.521   2.442   5.865
67877SOL    HW2 5529  14.556   2.317   5.787
67878SOL     OW 5530   0.515  13.435  12.065
67878SOL    HW1 5531   0.435  13.482  12.089
67878SOL    HW2 5532   0.494  13.395  11.981
67879SOL     OW 5533   5.974   0.170   1.300
67879SOL    HW1 5534   5.928   0.252   1.316
67879SOL    HW2 5535   6.048   0.171   1.360
67880SOL     OW 5536  11.024   7.075   0.447
67880SOL    HW1 5537  11.045   6.983   0.434
67880SOL    HW2 5538  11.035   7.115   0.360
67881SOL     OW 5539  10.944  14.169   7.868
67881SOL    HW1 5540  11.016  14.221   7.831
67881SOL    HW2 5541  10.963  14.165   7.962
67882SOL     OW 5542   2.625  14.041   0.374
67882SOL    HW1 5543   2.530  14.033   0.364
67882SOL    HW2 5544   2.660  13.974   0.316
67883SOL     OW 5545   3.455   6.834   5.785
67883SOL    HW1 5546   3.375   6.825   5.734
67883SOL    HW2 5547   3.458   6.926   5.811
67884SOL     OW 5548   5.766  10.313  11.115
67884SOL    HW1 5549   5.816  10.322  11.034
67884SOL    HW2 5550   5.685  10.270  11.089
67885SOL     OW 5551   8.563   3.953   3.239
67885SOL    HW1 5552   8.615   3.900   3.299
67885SOL    HW2 5553   8.563   3.904   3.157
67886SOL     OW 5554   6.608   6.322   7.924
67886SOL    HW1 5555   6.626   6.259   7.854
67886SOL    HW2 5556   6.662   6.291   7.997
67887SOL     OW 5557   3.268   7.091  13.160
67887SOL    HW1 5558   3.328   7.152  13.202
67887SOL    HW2 5559   3.322   7.015  13.139
67888SOL     OW 5560  14.508  10.221  14.289
67888SOL    HW1 5561  14.547  10.255  14.209
67888SOL    HW2 5562  14.578  10.170  14.330
67889SOL     OW 5563   3.842  11.575  12.429
67889SOL    HW1 5564   3.937  11.581  12.437
67889SOL    HW2 5565   3.827  11.570  12.334
67890SOL     OW 5566   4.057   7.464  10.737
67890SOL    HW1 5567   3.998   7.450  10.811
67890SOL    HW2 5568   4.142   7.433  10.769
67891SOL     OW 5569  10.341   9.146  12.416
67891SOL    HW1 5570  10.371   9.058  12.441
67891SOL    HW2 5571  10.401   9.173  12.347
67892SOL     OW 5572   3.837   1.083   9.904
67892SOL    HW1 5573   3.835   1.144   9.978
67892SOL    HW2 5574   3.914   1.029   9.920
67893SOL     OW 5575  14.230   8.310   2.249
67893SOL    HW1 5576  14.320   8.293   2.221
67893SOL    HW2 5577  14.225   8.405   2.257
67894SOL     OW 5578  11.320   4.746  10.433
67894SOL    HW1 5579  11.310   4.674  10.370
67894SOL    HW2 5580  11.249   4.733  10.495
67895SOL     OW 5581   7.461  11.030   6.954
67895SOL    HW1 5582   7.439  11.108   6.903
67895SOL    HW2 5583   7.551  11.010   6.929
67896SOL     OW 5584   5.470   9.748  13.567
67896SOL    HW1 5585   5.526   9.766  13.492
67896SOL    HW2 5586   5.528   9.758  13.643
67897SOL     OW 5587   9.029   1.554   4.434
67897SOL    HW1 5588   9.044   1.607   4.356
67897SOL    HW2 5589   8.974   1.609   4.490
67898SOL     OW 5590  10.667   2.966   2.252
67898SOL    HW1 5591  10.724   2.891   2.240
67898SOL    HW2 5592  10.697   3.007   2.333
67899SOL     OW 5593   2.634   4.266  11.590
67899SOL    HW1 5594   2.595   4.193  11.639
67899SOL    HW2 5595   2.613   4.343  11.644
67900SOL     OW 5596  10.610   3.914  13.591
67900SOL    HW1 5597  10.659   3.848  13.543
67900SOL    HW2 5598  10.639   3.998  13.556
67901SOL     OW 5599   2.674   8.567   4.714
67901SOL    HW1 5600   2.753   8.526   4.748
67901SOL    HW2 5601   2.664   8.647   4.766
67902SOL     OW 5602   5.520  14.864   7.543
67902SOL    HW1 5603   5.464   0.027   7.478
67902SOL    HW2 5604   5.588  14.821   7.492
67903SOL     OW 5605   7.699   4.445  14.522
67903SOL    HW1 5606   7.715   4.534  14.491
67903SOL    HW2 5607   7.751   4.389  14.464
67904SOL     OW 5608   4.540   0.539  12.264
67904SOL    HW1 5609   4.470   0.604  12.270
67904SOL    HW2 5610   4.571   0.529  12.354
67905SOL     OW 5611   8.827   5.979   6.410
67905SOL    HW1 5612   8.797   5.972   6.501
67905SOL    HW2 5613   8.921   5.968   6.415
67906SOL     OW 5614   3.464   7.848   3.442
67906SOL    HW1 5615   3.465   7.754   3.430
67906SOL    HW2 5616   3.408   7.862   3.519
67907SOL     OW 5617   1.978   5.452   2.685
67907SOL    HW1 5618   2.035   5.508   2.632
67907SOL    HW2 5619   1.994   5.364   2.651
67908SOL     OW 5620   7.119   7.276  12.855
67908SOL    HW1 5621   7.210   7.303  12.865
67908SOL    HW2 5622   7.072   7.357  12.832
67909SOL     OW 5623   9.093  13.254   0.291
67909SOL    HW1 5624   9.150  13.226   0.362
67909SOL    HW2 5625   9.152  13.266   0.216
67910SOL     OW 5626  13.073  10.446  12.917
67910SOL    HW1 5627  12.996  10.476  12.966
67910SOL    HW2 5628  13.112  10.525  12.881
67911SOL     OW 5629   1.159   0.559   9.369
67911SOL    HW1 5630   1.136   0.649   9.394
67911SOL    HW2 5631   1.254   0.560   9.360
67912SOL     OW 5632   0.442   3.190   7.271
67912SOL    HW1 5633   0.448   3.175   7.366
67912SOL    HW2 5634   0.348   3.191   7.253
67913SOL     OW 5635  14.199   4.458   9.366
67913SOL    HW1 5636  14.174   4.543   9.328
67913SOL    HW2 5637  14.246   4.413   9.296
67914SOL     OW 5638  11.133  13.235  11.852
67914SOL    HW1 5639  11.171  13.305  11.800
67914SOL    HW2 5640  11.144  13.264  11.943
67915SOL     OW 5641  10.111   4.654   5.093
67915SOL    HW1 5642  10.025   4.622   5.066
67915SOL    HW2 5643  10.171   4.623   5.026
67916SOL     OW 5644   3.098   5.660   9.745
67916SOL    HW1 5645   3.122   5.583   9.693
67916SOL    HW2 5646   3.084   5.729   9.680
67917SOL     OW 5647  12.371   0.447   5.953
67917SOL    HW1 5648  12.361   0.525   6.008
67917SOL    HW2 5649  12.325   0.468   5.872
67918SOL     OW 5650  11.680  11.761   5.166
67918SOL    HW1 5651  11.760  11.813   5.158
67918SOL    HW2 5652  11.616  11.808   5.113
67919SOL     OW 5653  13.663   1.247  13.909
67919SOL    HW1 5654  13.735   1.261  13.971
67919SOL    HW2 5655  13.701   1.191  13.842
67920SOL     OW 5656  13.191  10.825   9.846
67920SOL    HW1 5657  13.130  10.820   9.773
67920SOL    HW2 5658  13.143  10.872   9.915
67921SOL     OW 5659  13.341   0.494   4.317
67921SOL    HW1 5660  13.248   0.473   4.304
67921SOL    HW2 5661  13.340   0.561   4.386
67922SOL     OW 5662   9.264   5.067  13.797
67922SOL    HW1 5663   9.197   5.079  13.865
67922SOL    HW2 5664   9.346   5.057  13.845
67923SOL     OW 5665   8.280   4.476   7.577
67923SOL    HW1 5666   8.277   4.531   7.656
67923SOL    HW2 5667   8.215   4.514   7.519
67924SOL     OW 5668   1.004   9.502   8.206
67924SOL    HW1 5669   0.956   9.583   8.221
67924SOL    HW2 5670   1.021   9.467   8.294
67925SOL     OW 5671   1.807  11.305   5.457
67925SOL    HW1 5672   1.803  11.399   5.474
67925SOL    HW2 5673   1.893  11.292   5.416
67926SOL     OW 5674   8.344   0.826   3.125
67926SOL    HW1 5675   8.304   0.774   3.054
67926SOL    HW2 5676   8.438   0.818   3.110
67927SOL     OW 5677  11.809   2.758   3.881
67927SOL    HW1 5678  11.780   2.682   3.931
67927SOL    HW2 5679  11.735   2.778   3.823
67928SOL     OW 5680   5.852   8.147   5.263
67928SOL    HW1 5681   5.920   8.213   5.277
67928SOL    HW2 5682   5.839   8.146   5.168
67929SOL     OW 5683   3.165  10.060  10.048
67929SOL    HW1 5684   3.223  10.091  10.118
67929SOL    HW2 5685   3.086  10.113  10.057
67930SOL     OW 5686   4.304  11.419  12.000
67930SOL    HW1 5687   4.310  11.439  12.093
67930SOL    HW2 5688   4.339  11.497  11.956
67931SOL     OW 5689   4.890   1.340   1.320
67931SOL    HW1 5690   4.823   1.331   1.388
67931SOL    HW2 5691   4.850   1.302   1.242
67932SOL     OW 5692  12.693   1.837   0.292
67932SOL    HW1 5693  12.620   1.889   0.258
67932SOL    HW2 5694  12.738   1.806   0.214
67933SOL     OW 5695  11.996  10.332  13.910
67933SOL    HW1 5696  11.944  10.253  13.929
67933SOL    HW2 5697  12.087  10.302  13.913
67934SOL     OW 5698   7.273   7.230   7.546
67934SOL    HW1 5699   7.314   7.160   7.497
67934SOL    HW2 5700   7.192   7.249   7.498
67935SOL     OW 5701   0.288   3.445  14.786
67935SOL    HW1 5702   0.358   3.391  14.748
67935SOL    HW2 5703   0.209   3.418  14.739
67936SOL     OW 5704   7.878   4.407  10.271
67936SOL    HW1 5705   7.807   4.397  10.207
67936SOL    HW2 5706   7.909   4.497  10.259
67937SOL     OW 5707  10.429   9.307   9.959
67937SOL    HW1 5708  10.456   9.334  10.047
67937SOL    HW2 5709  10.412   9.213   9.966
67938SOL     OW 5710   4.169   9.556   0.231
67938SOL    HW1 5711   4.086   9.511   0.250
67938SOL    HW2 5712   4.235   9.486   0.232
67939SOL     OW 5713   4.720   3.455   0.411
67939SOL    HW1 5714   4.688   3.512   0.341
67939SOL    HW2 5715   4.700   3.367   0.382
67940SOL     OW 5716   9.139   8.864  14.762
67940SOL    HW1 5717   9.172   8.858  14.852
67940SOL    HW2 5718   9.094   8.781  14.747
67941SOL     OW 5719   2.630   0.144   3.078
67941SOL    HW1 5720   2.565   0.212   3.098
67941SOL    HW2 5721   2.712   0.192   3.070
67942SOL     OW 5722   7.583   3.796  10.658
67942SOL    HW1 5723   7.629   3.715  10.679
67942SOL    HW2 5724   7.589   3.803  10.562
67943SOL     OW 5725   3.118   6.306   4.204
67943SOL    HW1 5726   3.127   6.338   4.114
67943SOL    HW2 5727   3.156   6.376   4.258
67944SOL     OW 5728   6.079   4.470   5.721
67944SOL    HW1 5729   6.169   4.454   5.748
67944SOL    HW2 5730   6.047   4.538   5.780
67945SOL     OW 5731   3.478   7.628  11.888
67945SOL    HW1 5732   3.383   7.611  11.894
67945SOL    HW2 5733   3.511   7.558  11.832
67946SOL     OW 5734   6.518   8.211   2.491
67946SOL    HW1 5735   6.482   8.241   2.575
67946SOL    HW2 5736   6.613   8.214   2.503
67947SOL     OW 5737   8.614   1.359   9.263
67947SOL    HW1 5738   8.542   1.396   9.313
67947SOL    HW2 5739   8.685   1.423   9.273
67948SOL     OW 5740   5.523  14.032   4.529
67948SOL    HW1 5741   5.520  14.100   4.462
67948SOL    HW2 5742   5.472  14.067   4.602
67949SOL     OW 5743  13.077  12.543   0.086
67949SOL    HW1 5744  13.103  12.584   0.169
67949SOL    HW2 5745  12.993  12.584   0.065
67950SOL     OW 5746   4.082  13.008   9.489
67950SOL    HW1 5747   4.056  12.923   9.453
67950SOL    HW2 5748   4.092  13.065   9.412
67951SOL     OW 5749  12.715  13.715  12.651
67951SOL    HW1 5750  12.681  13.765  12.576
67951SOL    HW2 5751  12.656  13.640  12.659
67952SOL     OW 5752   4.953  11.084   3.988
67952SOL    HW1 5753   5.016  11.036   3.935
67952SOL    HW2 5754   4.871  11.035   3.978
67953SOL     OW 5755   8.224   1.959   6.259
67953SOL    HW1 5756   8.136   1.933   6.232
67953SOL    HW2 5757   8.269   1.979   6.177
67954SOL     OW 5758   9.184  10.467   8.745
67954SOL    HW1 5759   9.126  10.536   8.714
67954SOL    HW2 5760   9.178  10.399   8.678
67955SOL     OW 5761   0.062  13.437   0.102
67955SOL    HW1 5762   0.132  13.502   0.109
67955SOL    HW2 5763   0.102  13.364   0.055
67956SOL     OW 5764  10.257   6.108   8.766
67956SOL    HW1 5765  10.222   6.021   8.785
67956SOL    HW2 5766  10.215   6.165   8.830
67957SOL     OW 5767   4.785   2.727   3.980
67957SOL    HW1 5768   4.874   2.713   3.948
67957SOL    HW2 5769   4.750   2.639   3.994
67958SOL     OW 5770  11.878   3.250   9.076
67958SOL    HW1 5771  11.888   3.219   8.986
67958SOL    HW2 5772  11.788   3.227   9.100
67959SOL     OW 5773   5.371   2.017   9.693
67959SOL    HW1 5774   5.306   2.087   9.705
67959SOL    HW2 5775   5.368   1.968   9.775
67960SOL     OW 5776   3.783  12.308   5.512
67960SOL    HW1 5777   3.772  12.402   5.500
67960SOL    HW2 5778   3.722  12.285   5.583
67961SOL     OW 5779   5.391   3.021  11.621
67961SOL    HW1 5780   5.380   3.027  11.715
67961SOL    HW2 5781   5.438   3.101  11.596
67962SOL     OW 5782  14.820  14.703  11.944
67962SOL    HW1 5783  14.773  14.625  11.975
67962SOL    HW2 5784  14.755  14.773  11.946
67963SOL     OW 5785   1.324   6.048   7.245
67963SOL    HW1 5786   1.381   6.125   7.253
67963SOL    HW2 5787   1.238   6.080   7.272
67964SOL     OW 5788  10.188   2.405   5.272
67964SOL    HW1 5789  10.187   2.344   5.197
67964SOL    HW2 5790  10.213   2.351   5.347
67965SOL     OW 5791   7.989   3.202   6.566
67965SOL    HW1 5792   8.009   3.118   6.606
67965SOL    HW2 5793   7.922   3.241   6.623
67966SOL     OW 5794   8.177   2.713  11.475
67966SOL    HW1 5795   8.125   2.772  11.530
67966SOL    HW2 5796   8.160   2.626  11.511
67967SOL     OW 5797  11.185   1.192   1.997
67967SOL    HW1 5798  11.278   1.181   1.978
67967SOL    HW2 5799  11.165   1.282   1.974
67968SOL     OW 5800  12.156   6.037  10.679
67968SOL    HW1 5801  12.183   6.063  10.590
67968SOL    HW2 5802  12.170   6.116  10.731
67969SOL     OW 5803   6.405   7.398  13.079
67969SOL    HW1 5804   6.335   7.462  13.091
67969SOL    HW2 5805   6.483   7.440  13.117
67970SOL     OW 5806  12.037   6.947   7.119
67970SOL    HW1 5807  12.087   7.014   7.167
67970SOL    HW2 5808  11.946   6.973   7.131
67971SOL     OW 5809  10.187   1.228  12.172
67971SOL    HW1 5810  10.133   1.195  12.244
67971SOL    HW2 5811  10.214   1.149  12.125
67972SOL     OW 5812   4.150  11.687   2.869
67972SOL    HW1 5813   4.142  11.671   2.963
67972SOL    HW2 5814   4.234  11.648   2.844
67973SOL     OW 5815  14.833  12.958   4.219
67973SOL    HW1 5816  14.858  13.043   4.184
67973SOL    HW2 5817  14.769  12.924   4.157
67974SOL     OW 5818   1.373   6.939   6.825
67974SOL    HW1 5819   1.349   7.011   6.883
67974SOL    HW2 5820   1.468   6.931   6.834
67975SOL     OW 5821  14.695   5.422   7.791
67975SOL    HW1 5822  14.612   5.384   7.764
67975SOL    HW2 5823  14.676   5.515   7.801
67976SOL     OW 5824  11.824   2.111  12.540
67976SOL    HW1 5825  11.843   2.204  12.534
67976SOL    HW2 5826  11.739   2.106  12.583
67977SOL     OW 5827   8.107  11.392  14.697
67977SOL    HW1 5828   8.013  11.413  14.695
67977SOL    HW2 5829   8.112  11.312  14.748
67978SOL     OW 5830   2.535   6.039   5.887
67978SOL    HW1 5831   2.618   5.992   5.899
67978SOL    HW2 5832   2.523   6.088   5.968
67979SOL     OW 5833  11.803   5.542  13.196
67979SOL    HW1 5834  11.755   5.566  13.275
67979SOL    HW2 5835  11.777   5.606  13.130
67980SOL     OW 5836  11.081   7.168   2.442
67980SOL    HW1 5837  10.995   7.141   2.475
67980SOL    HW2 5838  11.085   7.262   2.461
67981SOL     OW 5839   9.468   3.500   9.017
67981SOL    HW1 5840   9.418   3.581   9.026
67981SOL    HW2 5841   9.498   3.501   8.926
67982SOL     OW 5842  12.907   7.271   5.327
67982SOL    HW1 5843  12.880   7.290   5.417
67982SOL    HW2 5844  12.991   7.227   5.336
67983SOL     OW 5845   7.586  10.700   7.901
67983SOL    HW1 5846   7.523  10.771   7.891
67983SOL    HW2 5847   7.609  10.676   7.811
67984SOL     OW 5848   6.317  14.249   6.222
67984SOL    HW1 5849   6.295  14.234   6.314
67984SOL    HW2 5850   6.402  14.207   6.210
67985SOL     OW 5851   4.263   0.351   6.509
67985SOL    HW1 5852   4.335   0.316   6.456
67985SOL    HW2 5853   4.283   0.444   6.517
67986SOL     OW 5854   3.602   2.181  13.000
67986SOL    HW1 5855   3.686   2.178  12.956
67986SOL    HW2 5856   3.558   2.100  12.974
67987SOL     OW 5857  11.154  11.355   1.576
67987SOL    HW1 5858  11.068  11.396   1.585
67987SOL    HW2 5859  11.213  11.427   1.555
67988SOL     OW 5860   7.085   9.656   9.296
67988SOL    HW1 5861   7.163   9.607   9.322
67988SOL    HW2 5862   7.118   9.726   9.240
67989SOL     OW 5863  13.523   5.350   7.605
67989SOL    HW1 5864  13.467   5.368   7.529
67989SOL    HW2 5865  13.463   5.313   7.670
67990SOL     OW 5866   7.432   0.406   4.944
67990SOL    HW1 5867   7.378   0.328   4.959
67990SOL    HW2 5868   7.370   0.473   4.918
67991SOL     OW 5869   7.936   2.132   7.101
67991SOL    HW1 5870   7.955   2.194   7.171
67991SOL    HW2 5871   7.865   2.172   7.052
67992SOL     OW 5872   1.833   5.372   8.619
67992SOL    HW1 5873   1.923   5.342   8.604
67992SOL    HW2 5874   1.809   5.417   8.539
67993SOL     OW 5875   7.976   4.324  12.148
67993SOL    HW1 5876   7.947   4.330  12.057
67993SOL    HW2 5877   7.953   4.408  12.187
67994SOL     OW 5878  12.565   6.854   1.462
67994SOL    HW1 5879  12.530   6.789   1.401
67994SOL    HW2 5880  12.488   6.892   1.504
67995SOL     OW 5881   5.351  13.488  13.710
67995SOL    HW1 5882   5.322  13.519  13.795
67995SOL    HW2 5883   5.437  13.449  13.726
67996SOL     OW 5884  10.737   7.303  13.463
67996SOL    HW1 5885  10.815   7.350  13.492
67996SOL    HW2 5886  10.695   7.274  13.544
67997SOL     OW 5887   9.812   0.556   6.168
67997SOL    HW1 5888   9.796   0.488   6.103
67997SOL    HW2 5889   9.892   0.529   6.212
67998SOL     OW 5890  11.393  13.960  12.806
67998SOL    HW1 5891  11.306  14.001  12.806
67998SOL    HW2 5892  11.434  13.991  12.887
67999SOL     OW 5893   3.490   4.058   6.248
67999SOL    HW1 5894   3.431   4.032   6.178
67999SOL    HW2 5895   3.578   4.046   6.212
68000SOL     OW 5896  10.700   4.742  10.337
68000SOL    HW1 5897  10.752   4.681  10.391
68000SOL    HW2 5898  10.747   4.745  10.254
68001SOL     OW 5899   2.253   4.909  13.850
68001SOL    HW1 5900   2.298   4.993  13.849
68001SOL    HW2 5901   2.247   4.884  13.758
68002SOL     OW 5902   1.535   5.488   0.664
68002SOL    HW1 5903   1.485   5.507   0.584
68002SOL    HW2 5904   1.472   5.500   0.735
68003SOL     OW 5905   9.187   2.499   8.614
68003SOL    HW1 5906   9.247   2.450   8.669
68003SOL    HW2 5907   9.240   2.530   8.540
68004SOL     OW 5908   7.261   2.785  12.054
68004SOL    HW1 5909   7.203   2.744  11.990
68004SOL    HW2 5910   7.316   2.714  12.085
68005SOL     OW 5911   2.589  13.872  11.535
68005SOL    HW1 5912   2.602  13.936  11.606
68005SOL    HW2 5913   2.503  13.834  11.553
68006SOL     OW 5914   8.610   8.573  12.302
68006SOL    HW1 5915   8.552   8.508  12.342
68006SOL    HW2 5916   8.627   8.540  12.214
68007SOL     OW 5917   8.640  11.578   8.263
68007SOL    HW1 5918   8.687  11.496   8.280
68007SOL    HW2 5919   8.706  11.646   8.277
68008SOL     OW 5920   0.582   3.587  14.724
68008SOL    HW1 5921   0.575   3.548  14.811
68008SOL    HW2 5922   0.674   3.614  14.717
68009SOL     OW 5923   0.326   7.187  11.764
68009SOL    HW1 5924   0.290   7.186  11.675
68009SOL    HW2 5925   0.329   7.280  11.788
68010SOL     OW 5926  10.285   2.069  10.505
68010SOL    HW1 5927  10.211   2.032  10.456
68010SOL    HW2 5928  10.338   2.113  10.438
68011SOL     OW 5929   0.043  12.779   2.624
68011SOL    HW1 5930  14.869  12.717   2.575
68011SOL    HW2 5931   0.082  12.835   2.557
68012SOL     OW 5932  13.331   6.866  10.792
68012SOL    HW1 5933  13.422   6.839  10.806
68012SOL    HW2 5934  13.330   6.958  10.816
68013SOL     OW 5935   0.858   4.176   5.589
68013SOL    HW1 5936   0.888   4.200   5.677
68013SOL    HW2 5937   0.764   4.189   5.592
68014SOL     OW 5938  11.615   6.762  11.323
68014SOL    HW1 5939  11.524   6.787  11.313
68014SOL    HW2 5940  11.654   6.774  11.237
68015SOL     OW 5941  11.564  13.978   6.875
68015SOL    HW1 5942  11.477  13.966   6.836
68015SOL    HW2 5943  11.546  14.016   6.961
68016SOL     OW 5944   8.602   2.531   2.527
68016SOL    HW1 5945   8.641   2.526   2.440
68016SOL    HW2 5946   8.626   2.449   2.570
68017SOL     OW 5947  11.044   0.538   9.957
68017SOL    HW1 5948  11.122   0.533  10.012
68017SOL    HW2 5949  11.049   0.461   9.900
68018SOL     OW 5950   5.879  13.609   5.795
68018SOL    HW1 5951   5.858  13.603   5.888
68018SOL    HW2 5952   5.796  13.593   5.750
68019SOL     OW 5953   2.938   4.946   8.640
68019SOL    HW1 5954   2.994   4.891   8.585
68019SOL    HW2 5955   2.867   4.888   8.668
68020SOL     OW 5956   3.524   0.252   4.957
68020SOL    HW1 5957   3.566   0.281   4.876
68020SOL    HW2 5958   3.571   0.172   4.981
68021SOL     OW 5959   3.410  14.207  12.919
68021SOL    HW1 5960   3.496  14.218  12.959
68021SOL    HW2 5961   3.388  14.293  12.885
68022SOL     OW 5962   3.906   3.657  13.944
68022SOL    HW1 5963   3.909   3.564  13.966
68022SOL    HW2 5964   3.825   3.668  13.895
68023SOL     OW 5965   1.861   1.437   8.449
68023SOL    HW1 5966   1.882   1.468   8.361
68023SOL    HW2 5967   1.839   1.516   8.498
68024SOL     OW 5968   8.424  13.665   3.566
68024SOL    HW1 5969   8.452  13.632   3.650
68024SOL    HW2 5970   8.503  13.666   3.512
68025SOL     OW 5971   3.027   0.552   0.366
68025SOL    HW1 5972   3.105   0.587   0.409
68025SOL    HW2 5973   2.982   0.502   0.434
68026SOL     OW 5974   8.234  12.830   5.985
68026SOL    HW1 5975   8.264  12.894   5.921
68026SOL    HW2 5976   8.212  12.882   6.063
68027SOL     OW 5977   9.961   7.002   8.832
68027SOL    HW1 5978   9.888   6.972   8.778
68027SOL    HW2 5979  10.033   7.016   8.770
68028SOL     OW 5980  11.201   6.318   6.834
68028SOL    HW1 5981  11.167   6.311   6.745
68028SOL    HW2 5982  11.274   6.380   6.826
68029SOL     OW 5983  14.035  14.703   2.193
68029SOL    HW1 5984  14.127  14.726   2.180
68029SOL    HW2 5985  14.007  14.758   2.266
68030SOL     OW 5986   1.703  10.176   5.113
68030SOL    HW1 5987   1.729  10.157   5.023
68030SOL    HW2 5988   1.610  10.155   5.117
68031SOL     OW 5989  14.805   8.847   4.855
68031SOL    HW1 5990  14.806   8.934   4.814
68031SOL    HW2 5991  14.770   8.789   4.787
68032SOL     OW 5992  14.117   8.824   2.487
68032SOL    HW1 5993  14.117   8.907   2.439
68032SOL    HW2 5994  14.046   8.834   2.551
68033SOL     OW 5995  14.406   3.659  13.486
68033SOL    HW1 5996  14.455   3.709  13.421
68033SOL    HW2 5997  14.462   3.585  13.507
68034SOL     OW 5998   6.641   7.150   6.327
68034SOL    HW1 5999   6.558   7.176   6.288
68034SOL    HW2 6000   6.688   7.105   6.257
68035SOL     OW 6001  12.584   1.521   3.214
68035SOL    HW1 6002  12.673   1.487   3.204
68035SOL    HW2 6003  12.542   1.460   3.275
68036SOL     OW 6004  11.307  11.407   6.396
68036SOL    HW1 6005  11.372  11.475   6.415
68036SOL    HW2 6006  11.344  11.327   6.434
68037SOL     OW 6007   0.726  12.084   2.139
68037SOL    HW1 6008   0.749  11.991   2.144
68037SOL    HW2 6009   0.718  12.112   2.230
68038SOL     OW 6010  10.260  10.713   1.773
68038SOL    HW1 6011  10.344  10.668   1.771
68038SOL    HW2 6012  10.271  10.787   1.713
68039SOL     OW 6013   8.518  11.598   7.245
68039SOL    HW1 6014   8.519  11.563   7.334
68039SOL    HW2 6015   8.609  11.592   7.215
68040SOL     OW 6016   1.027   3.311  10.373
68040SOL    HW1 6017   1.059   3.253  10.443
68040SOL    HW2 6018   0.932   3.312  10.385
68041SOL     OW 6019  14.539   7.480  14.625
68041SOL    HW1 6020  14.621   7.528  14.613
68041SOL    HW2 6021  14.513   7.500  14.715
68042SOL     OW 6022   4.577   3.843   2.272
68042SOL    HW1 6023   4.580   3.914   2.336
68042SOL    HW2 6024   4.623   3.878   2.195
68043SOL     OW 6025   9.593   3.280   1.576
68043SOL    HW1 6026   9.586   3.198   1.528
68043SOL    HW2 6027   9.687   3.290   1.592
68044SOL     OW 6028   0.541   7.885   9.873
68044SOL    HW1 6029   0.449   7.909   9.882
68044SOL    HW2 6030   0.577   7.948   9.811
68045SOL     OW 6031   4.157  14.111   5.363
68045SOL    HW1 6032   4.237  14.082   5.321
68045SOL    HW2 6033   4.128  14.186   5.311
68046SOL     OW 6034  14.652  12.598  11.280
68046SOL    HW1 6035  14.572  12.550  11.300
68046SOL    HW2 6036  14.697  12.545  11.214
68047SOL     OW 6037   5.605  14.576  10.350
68047SOL    HW1 6038   5.689  14.544  10.383
68047SOL    HW2 6039   5.588  14.522  10.273
68048SOL     OW 6040   8.924   1.139   3.939
68048SOL    HW1 6041   8.954   1.053   3.967
68048SOL    HW2 6042   8.853   1.161   3.999
68049SOL     OW 6043   7.359  12.274  14.232
68049SOL    HW1 6044   7.288  12.210  14.223
68049SOL    HW2 6045   7.436  12.222  14.254
68050SOL     OW 6046   5.644   2.014   2.303
68050SOL    HW1 6047   5.722   2.031   2.356
68050SOL    HW2 6048   5.595   2.096   2.306
68051SOL     OW 6049   9.646   9.077   5.830
68051SOL    HW1 6050   9.623   9.061   5.738
68051SOL    HW2 6051   9.734   9.114   5.827
68052SOL     OW 6052  12.458  12.995   0.574
68052SOL    HW1 6053  12.479  12.969   0.664
68052SOL    HW2 6054  12.534  13.048   0.547
68053SOL     OW 6055   2.729   7.890   5.972
68053SOL    HW1 6056   2.817   7.853   5.962
68053SOL    HW2 6057   2.676   7.816   6.002
68054SOL     OW 6058   7.853  10.640   5.231
68054SOL    HW1 6059   7.869  10.718   5.178
68054SOL    HW2 6060   7.779  10.663   5.287
68055SOL     OW 6061   8.797  10.501   0.419
68055SOL    HW1 6062   8.789  10.592   0.390
68055SOL    HW2 6063   8.879  10.471   0.381
68056SOL     OW 6064   8.649   9.061   4.387
68056SOL    HW1 6065   8.672   8.980   4.341
68056SOL    HW2 6066   8.553   9.058   4.393
68057SOL     OW 6067   4.501  14.747   2.347
68057SOL    HW1 6068   4.557  14.671   2.333
68057SOL    HW2 6069   4.425  14.713   2.394
68058SOL     OW 6070   4.827   7.640   8.659
68058SOL    HW1 6071   4.803   7.549   8.642
68058SOL    HW2 6072   4.922   7.642   8.646
68059SOL     OW 6073   6.668   4.416  14.323
68059SOL    HW1 6074   6.600   4.390  14.386
68059SOL    HW2 6075   6.631   4.492  14.278
68060SOL     OW 6076   7.380   2.649   4.237
68060SOL    HW1 6077   7.339   2.655   4.150
68060SOL    HW2 6078   7.325   2.703   4.293
68061SOL     OW 6079  13.200   5.278  11.926
68061SOL    HW1 6080  13.279   5.226  11.940
68061SOL    HW2 6081  13.174   5.257  11.836
68062SOL     OW 6082   6.808   9.589   2.518
68062SOL    HW1 6083   6.830   9.538   2.596
68062SOL    HW2 6084   6.712   9.585   2.514
68063SOL     OW 6085   9.872   1.115  10.270
68063SOL    HW1 6086   9.890   1.209  10.264
68063SOL    HW2 6087   9.959   1.075  10.279
68064SOL     OW 6088   5.973  12.743   0.706
68064SOL    HW1 6089   5.937  12.816   0.756
68064SOL    HW2 6090   5.919  12.739   0.626
68065SOL     OW 6091   1.965   2.632   2.205
68065SOL    HW1 6092   1.965   2.728   2.205
68065SOL    HW2 6093   2.038   2.608   2.148
68066SOL     OW 6094  12.857   5.304   6.308
68066SOL    HW1 6095  12.807   5.249   6.248
68066SOL    HW2 6096  12.818   5.288   6.393
68067SOL     OW 6097  12.942  10.985   0.108
68067SOL    HW1 6098  13.036  10.977   0.095
68067SOL    HW2 6099  12.929  10.981   0.202
68068SOL     OW 6100   4.845   8.126   5.956
68068SOL    HW1 6101   4.840   8.117   6.051
68068SOL    HW2 6102   4.936   8.105   5.934
68069SOL     OW 6103  14.021   1.612  14.436
68069SOL    HW1 6104  13.982   1.694  14.464
68069SOL    HW2 6105  13.952   1.569  14.385
68070SOL     OW 6106   9.022   2.548   7.685
68070SOL    HW1 6107   9.027   2.606   7.761
68070SOL    HW2 6108   8.952   2.486   7.706
68071SOL     OW 6109  10.686   1.703   0.743
68071SOL    HW1 6110  10.747   1.646   0.696
68071SOL    HW2 6111  10.742   1.767   0.787
68072SOL     OW 6112   1.962   3.473   5.122
68072SOL    HW1 6113   2.055   3.451   5.112
68072SOL    HW2 6114   1.943   3.531   5.049
68073SOL     OW 6115  11.529   6.138   7.050
68073SOL    HW1 6116  11.492   6.221   7.019
68073SOL    HW2 6117  11.594   6.164   7.115
68074SOL     OW 6118   5.547  12.754  14.789
68074SOL    HW1 6119   5.523  12.677  14.840
68074SOL    HW2 6120   5.481  12.819  14.813
68075SOL     OW 6121   3.583  13.254   5.559
68075SOL    HW1 6122   3.540  13.335   5.534
68075SOL    HW2 6123   3.571  13.249   5.654
68076SOL     OW 6124  11.999  13.581   6.029
68076SOL    HW1 6125  12.016  13.498   6.072
68076SOL    HW2 6126  12.072  13.592   5.968
68077SOL     OW 6127   1.112   7.962   9.533
68077SOL    HW1 6128   1.136   8.030   9.470
68077SOL    HW2 6129   1.116   8.006   9.618
68078SOL     OW 6130   0.739   0.694   6.249
68078SOL    HW1 6131   0.816   0.735   6.210
68078SOL    HW2 6132   0.681   0.767   6.271
68079SOL     OW 6133   4.890   7.912   0.964
68079SOL    HW1 6134   4.879   7.825   0.925
68079SOL    HW2 6135   4.877   7.973   0.891
68080SOL     OW 6136   9.887   6.947   5.879
68080SOL    HW1 6137   9.884   6.927   5.973
68080SOL    HW2 6138   9.817   7.010   5.865
68081SOL     OW 6139   5.524  11.682   3.334
68081SOL    HW1 6140   5.439  11.716   3.310
68081SOL    HW2 6141   5.581  11.702   3.260
68082SOL     OW 6142   9.688  14.751   0.104
68082SOL    HW1 6143   9.707  14.844   0.093
68082SOL    HW2 6144   9.717  14.731   0.193
68083SOL     OW 6145  14.452   7.490   5.178
68083SOL    HW1 6146  14.417   7.494   5.089
68083SOL    HW2 6147  14.546   7.506   5.167
68084SOL     OW 6148  14.085   2.752   3.209
68084SOL    HW1 6149  14.133   2.673   3.186
68084SOL    HW2 6150  14.144   2.800   3.267
68085SOL     OW 6151   5.309   5.243   8.390
68085SOL    HW1 6152   5.368   5.218   8.462
68085SOL    HW2 6153   5.226   5.262   8.433
68086SOL     OW 6154  11.069  14.777   1.720
68086SOL    HW1 6155  11.023  14.701   1.687
68086SOL    HW2 6156  11.136  14.742   1.779
68087SOL     OW 6157  13.515   3.413   1.149
68087SOL    HW1 6158  13.433   3.413   1.098
68087SOL    HW2 6159  13.566   3.485   1.112
68088SOL     OW 6160   5.799   8.118   4.982
68088SOL    HW1 6161   5.786   8.083   4.894
68088SOL    HW2 6162   5.744   8.196   4.985
68089SOL     OW 6163   7.114   1.963   0.282
68089SOL    HW1 6164   7.091   1.989   0.193
68089SOL    HW2 6165   7.180   2.026   0.310
68090SOL     OW 6166   6.086  14.293   9.006
68090SOL    HW1 6167   6.023  14.296   9.078
68090SOL    HW2 6168   6.033  14.305   8.927
68091SOL     OW 6169   2.490  12.436   4.510
68091SOL    HW1 6170   2.412  12.491   4.515
68091SOL    HW2 6171   2.559  12.488   4.551
68092SOL     OW 6172   8.606   1.198   2.673
68092SOL    HW1 6173   8.692   1.215   2.710
68092SOL    HW2 6174   8.622   1.182   2.580
68093SOL     OW 6175   9.498  10.618  12.164
68093SOL    HW1 6176   9.483  10.526  12.185
68093SOL    HW2 6177   9.580  10.639  12.209
68094SOL     OW 6178   6.593   0.151   8.087
68094SOL    HW1 6179   6.565   0.068   8.047
68094SOL    HW2 6180   6.669   0.127   8.140
68095SOL     OW 6181   4.451  14.250   2.690
68095SOL    HW1 6182   4.469  14.297   2.771
68095SOL    HW2 6183   4.393  14.178   2.716
68096SOL     OW 6184   7.315  12.549   5.511
68096SOL    HW1 6185   7.268  12.493   5.572
68096SOL    HW2 6186   7.267  12.542   5.429
68097SOL     OW 6187   3.826   3.827   2.438
68097SOL    HW1 6188   3.758   3.770   2.401
68097SOL    HW2 6189   3.908   3.793   2.402
68098SOL     OW 6190   0.989   8.816  14.006
68098SOL    HW1 6191   0.960   8.725  13.997
68098SOL    HW2 6192   1.080   8.815  13.976
68099SOL     OW 6193   3.177  11.616   0.192
68099SOL    HW1 6194   3.252  11.675   0.190
68099SOL    HW2 6195   3.102  11.670   0.168
68100SOL     OW 6196   6.612  14.727   4.408
68100SOL    HW1 6197   6.665  14.709   4.486
68100SOL    HW2 6198   6.668  14.780   4.352
68101SOL     OW 6199   6.017   2.949   0.997
68101SOL    HW1 6200   5.960   2.953   1.074
68101SOL    HW2 6201   5.972   3.002   0.931
68102SOL     OW 6202   1.701   3.940   4.650
68102SOL    HW1 6203   1.656   3.866   4.608
68102SOL    HW2 6204   1.693   3.923   4.744
68103SOL     OW 6205  13.293  12.169   9.934
68103SOL    HW1 6206  13.250  12.166  10.020
68103SOL    HW2 6207  13.348  12.090   9.933
68104SOL     OW 6208   5.418  12.750   5.890
68104SOL    HW1 6209   5.368  12.815   5.841
68104SOL    HW2 6210   5.375  12.667   5.871
68105SOL     OW 6211  10.744  11.935   9.578
68105SOL    HW1 6212  10.756  11.840   9.569
68105SOL    HW2 6213  10.674  11.956   9.516
68106SOL     OW 6214  11.930   7.721   7.437
68106SOL    HW1 6215  11.877   7.773   7.498
68106SOL    HW2 6216  12.016   7.715   7.479
68107SOL     OW 6217   1.611  14.711   4.391
68107SOL    HW1 6218   1.631  14.658   4.315
68107SOL    HW2 6219   1.590  14.648   4.460
68108SOL     OW 6220   0.410   8.715   5.942
68108SOL    HW1 6221   0.418   8.625   5.912
68108SOL    HW2 6222   0.453   8.767   5.874
68109SOL     OW 6223  10.722  11.392   3.542
68109SOL    HW1 6224  10.729  11.298   3.528
68109SOL    HW2 6225  10.637  11.404   3.585
68110SOL     OW 6226  11.780  12.164   2.653
68110SOL    HW1 6227  11.730  12.154   2.572
68110SOL    HW2 6228  11.775  12.078   2.694
68111SOL     OW 6229   8.763   2.737  14.183
68111SOL    HW1 6230   8.678   2.769  14.153
68111SOL    HW2 6231   8.805   2.703  14.103
68112SOL     OW 6232   5.582   7.628   6.660
68112SOL    HW1 6233   5.532   7.607   6.581
68112SOL    HW2 6234   5.661   7.671   6.628
68113SOL     OW 6235   3.339   6.994   5.128
68113SOL    HW1 6236   3.330   6.901   5.105
68113SOL    HW2 6237   3.429   7.003   5.157
68114SOL     OW 6238   3.434   3.152   5.139
68114SOL    HW1 6239   3.424   3.222   5.074
68114SOL    HW2 6240   3.402   3.073   5.094
68115SOL     OW 6241   9.939   2.045  10.935
68115SOL    HW1 6242   9.942   2.114  11.001
68115SOL    HW2 6243   9.985   2.081  10.860
68116SOL     OW 6244   9.372   6.235   9.037
68116SOL    HW1 6245   9.343   6.321   9.008
68116SOL    HW2 6246   9.444   6.213   8.978
68117SOL     OW 6247  14.817   2.068   4.204
68117SOL    HW1 6248   0.014   2.039   4.155
68117SOL    HW2 6249  14.841   2.054   4.296
68118SOL     OW 6250  13.889  11.383   7.070
68118SOL    HW1 6251  13.982  11.367   7.081
68118SOL    HW2 6252  13.857  11.399   7.159
68119SOL     OW 6253  11.463  14.128  10.972
68119SOL    HW1 6254  11.435  14.168  10.890
68119SOL    HW2 6255  11.394  14.066  10.994
68120SOL     OW 6256   5.231   5.668  10.612
68120SOL    HW1 6257   5.303   5.619  10.652
68120SOL    HW2 6258   5.247   5.759  10.638
68121SOL     OW 6259   6.312   8.685   7.533
68121SOL    HW1 6260   6.280   8.685   7.443
68121SOL    HW2 6261   6.286   8.600   7.567
68122SOL     OW 6262   0.991   9.048   1.410
68122SOL    HW1 6263   0.932   8.992   1.360
68122SOL    HW2 6264   0.963   9.137   1.389
68123SOL     OW 6265   3.176  13.326   1.842
68123SOL    HW1 6266   3.158  13.405   1.892
68123SOL    HW2 6267   3.213  13.357   1.759
68124SOL     OW 6268  12.924   9.076   9.305
68124SOL    HW1 6269  12.958   9.022   9.376
68124SOL    HW2 6270  12.996   9.081   9.242
68125SOL     OW 6271   7.322   3.427  11.585
68125SOL    HW1 6272   7.311   3.454  11.494
68125SOL    HW2 6273   7.417   3.424  11.598
68126SOL     OW 6274   6.403   1.595  11.491
68126SOL    HW1 6275   6.425   1.578  11.399
68126SOL    HW2 6276   6.364   1.514  11.522
68127SOL     OW 6277  11.220   2.113   5.442
68127SOL    HW1 6278  11.144   2.171   5.433
68127SOL    HW2 6279  11.258   2.111   5.354
68128SOL     OW 6280  14.096  10.585   5.627
68128SOL    HW1 6281  14.050  10.605   5.545
68128SOL    HW2 6282  14.141  10.503   5.609
68129SOL     OW 6283  14.250  14.805  10.059
68129SOL    HW1 6284  14.171  14.832  10.012
68129SOL    HW2 6285  14.257  14.868  10.131
68130SOL     OW 6286   9.471   8.773   3.697
68130SOL    HW1 6287   9.484   8.759   3.603
68130SOL    HW2 6288   9.384   8.812   3.704
68131SOL     OW 6289   8.033   8.421  10.689
68131SOL    HW1 6290   8.023   8.487  10.620
68131SOL    HW2 6291   7.977   8.348  10.661
68132SOL     OW 6292  11.186   3.630   6.144
68132SOL    HW1 6293  11.226   3.627   6.231
68132SOL    HW2 6294  11.259   3.613   6.084
68133SOL     OW 6295   9.376  10.843  10.978
68133SOL    HW1 6296   9.355  10.808  11.065
68133SOL    HW2 6297   9.426  10.923  10.996
68134SOL     OW 6298   6.482   9.989   7.100
68134SOL    HW1 6299   6.430  10.058   7.058
68134SOL    HW2 6300   6.560  10.034   7.134
68135SOL     OW 6301   0.002  13.370   1.366
68135SOL    HW1 6302  14.838  13.329   1.291
68135SOL    HW2 6303  14.819  13.433   1.399
68136SOL     OW 6304  13.367   7.562   7.400
68136SOL    HW1 6305  13.401   7.497   7.461
68136SOL    HW2 6306  13.277   7.534   7.383
68137SOL     OW 6307   0.191  12.810  14.869
68137SOL    HW1 6308   0.199  12.897  14.829
68137SOL    HW2 6309   0.100  12.785  14.854
68138SOL     OW 6310   1.723   2.442  10.778
68138SOL    HW1 6311   1.752   2.353  10.757
68138SOL    HW2 6312   1.685   2.434  10.866
68139SOL     OW 6313   2.735  10.030  14.623
68139SOL    HW1 6314   2.651  10.006  14.662
68139SOL    HW2 6315   2.721  10.118  14.587
68140SOL     OW 6316  14.336   1.630   6.314
68140SOL    HW1 6317  14.324   1.681   6.234
68140SOL    HW2 6318  14.283   1.675   6.379
68141SOL     OW 6319  12.034  13.487   5.641
68141SOL    HW1 6320  12.107  13.440   5.599
68141SOL    HW2 6321  12.060  13.495   5.732
68142SOL     OW 6322   7.651  11.779  13.631
68142SOL    HW1 6323   7.611  11.714  13.573
68142SOL    HW2 6324   7.686  11.846  13.571
68143SOL     OW 6325   5.444  12.104  11.650
68143SOL    HW1 6326   5.523  12.109  11.704
68143SOL    HW2 6327   5.375  12.140  11.705
68144SOL     OW 6328  10.711   4.440  14.512
68144SOL    HW1 6329  10.641   4.451  14.447
68144SOL    HW2 6330  10.781   4.498  14.482
68145SOL     OW 6331   5.187   7.649   9.662
68145SOL    HW1 6332   5.162   7.558   9.643
68145SOL    HW2 6333   5.159   7.698   9.585
68146SOL     OW 6334   1.260   2.772   6.434
68146SOL    HW1 6335   1.250   2.696   6.377
68146SOL    HW2 6336   1.320   2.829   6.387
68147SOL     OW 6337   2.921   0.540   4.108
68147SOL    HW1 6338   2.932   0.557   4.201
68147SOL    HW2 6339   2.968   0.458   4.092
68148SOL     OW 6340  14.151   9.504  11.549
68148SOL    HW1 6341  14.186   9.470  11.466
68148SOL    HW2 6342  14.228   9.535  11.597
68149SOL     OW 6343  10.582  10.631  14.045
68149SOL    HW1 6344  10.567  10.707  14.101
68149SOL    HW2 6345  10.674  10.609  14.057
68150SOL     OW 6346   9.341  11.883   0.463
68150SOL    HW1 6347   9.292  11.915   0.539
68150SOL    HW2 6348   9.423  11.851   0.499
68151SOL     OW 6349   6.378  14.045  13.417
68151SOL    HW1 6350   6.371  14.123  13.472
68151SOL    HW2 6351   6.461  14.054  13.372
68152SOL     OW 6352  14.731  12.378   6.345
68152SOL    HW1 6353  14.720  12.349   6.436
68152SOL    HW2 6354  14.652  12.347   6.300
68153SOL     OW 6355   9.211   7.471  11.588
68153SOL    HW1 6356   9.271   7.480  11.663
68153SOL    HW2 6357   9.232   7.385  11.551
68154SOL     OW 6358   7.308   7.837  14.655
68154SOL    HW1 6359   7.402   7.829  14.636
68154SOL    HW2 6360   7.292   7.931  14.656
68155SOL     OW 6361  10.759   1.200   3.583
68155SOL    HW1 6362  10.844   1.155   3.580
68155SOL    HW2 6363  10.781   1.291   3.601
68156SOL     OW 6364  12.374   9.563   2.925
68156SOL    HW1 6365  12.295   9.616   2.927
68156SOL    HW2 6366  12.356   9.490   2.984
68157SOL     OW 6367   3.763   6.486   3.210
68157SOL    HW1 6368   3.721   6.570   3.190
68157SOL    HW2 6369   3.853   6.508   3.233
68158SOL     OW 6370   7.063   3.930   3.526
68158SOL    HW1 6371   7.022   3.958   3.444
68158SOL    HW2 6372   7.155   3.952   3.515
68159SOL     OW 6373  13.604   2.167   0.133
68159SOL    HW1 6374  13.527   2.112   0.120
68159SOL    HW2 6375  13.669   2.108   0.172
68160SOL     OW 6376   4.805   8.910   2.763
68160SOL    HW1 6377   4.719   8.869   2.759
68160SOL    HW2 6378   4.789   9.002   2.742
68161SOL     OW 6379   8.848   0.318   1.037
68161SOL    HW1 6380   8.760   0.319   1.001
68161SOL    HW2 6381   8.905   0.337   0.962
68162SOL     OW 6382   0.525   1.747   5.034
68162SOL    HW1 6383   0.499   1.833   5.066
68162SOL    HW2 6384   0.488   1.686   5.098
68163SOL     OW 6385   4.386   5.947  11.661
68163SOL    HW1 6386   4.422   5.931  11.748
68163SOL    HW2 6387   4.400   5.865  11.614
68164SOL     OW 6388   9.337   8.791   6.941
68164SOL    HW1 6389   9.362   8.852   7.011
68164SOL    HW2 6390   9.375   8.829   6.862
68165SOL     OW 6391  13.700  14.562   2.617
68165SOL    HW1 6392  13.701  14.484   2.561
68165SOL    HW2 6393  13.607  14.583   2.628
68166SOL     OW 6394   7.802  14.738   0.110
68166SOL    HW1 6395   7.762  14.653   0.091
68166SOL    HW2 6396   7.857  14.721   0.187
68167SOL     OW 6397   0.990   1.973  13.875
68167SOL    HW1 6398   0.940   2.049  13.845
68167SOL    HW2 6399   1.041   2.005  13.949
68168SOL     OW 6400   7.244   9.303  11.061
68168SOL    HW1 6401   7.279   9.214  11.058
68168SOL    HW2 6402   7.175   9.299  11.127
68169SOL     OW 6403  13.059   2.976   1.073
68169SOL    HW1 6404  13.092   2.886   1.082
68169SOL    HW2 6405  13.010   2.974   0.991
68170SOL     OW 6406  10.725   6.166   9.698
68170SOL    HW1 6407  10.761   6.227   9.762
68170SOL    HW2 6408  10.646   6.132   9.741
68171SOL     OW 6409  11.975  14.365   1.936
68171SOL    HW1 6410  11.966  14.410   2.020
68171SOL    HW2 6411  11.951  14.431   1.871
68172SOL     OW 6412   4.835   0.897   8.640
68172SOL    HW1 6413   4.771   0.960   8.606
68172SOL    HW2 6414   4.815   0.890   8.733
68173SOL     OW 6415   7.609   2.060  12.652
68173SOL    HW1 6416   7.536   2.118  12.631
68173SOL    HW2 6417   7.664   2.111  12.712
68174SOL     OW 6418   8.665   0.560   5.197
68174SOL    HW1 6419   8.638   0.641   5.240
68174SOL    HW2 6420   8.761   0.561   5.202
68175SOL     OW 6421   7.871   1.159  12.111
68175SOL    HW1 6422   7.838   1.192  12.195
68175SOL    HW2 6423   7.871   1.064  12.121
68176SOL     OW 6424   5.511   8.510  12.313
68176SOL    HW1 6425   5.543   8.426  12.280
68176SOL    HW2 6426   5.419   8.496  12.331
68177SOL     OW 6427   3.610  14.536   4.983
68177SOL    HW1 6428   3.652  14.508   5.065
68177SOL    HW2 6429   3.632  14.467   4.920
68178SOL     OW 6430  11.755  10.880   8.527
68178SOL    HW1 6431  11.686  10.900   8.463
68178SOL    HW2 6432  11.711  10.826   8.593
68179SOL     OW 6433   4.462   5.870   3.506
68179SOL    HW1 6434   4.452   5.821   3.424
68179SOL    HW2 6435   4.411   5.950   3.494
68180SOL     OW 6436  13.908   0.944  12.853
68180SOL    HW1 6437  13.813   0.935  12.866
68180SOL    HW2 6438  13.925   0.898  12.770
68181SOL     OW 6439  11.685   1.346   7.909
68181SOL    HW1 6440  11.638   1.268   7.879
68181SOL    HW2 6441  11.729   1.379   7.830
68182SOL     OW 6442   2.332   6.805  12.215
68182SOL    HW1 6443   2.407   6.747  12.225
68182SOL    HW2 6444   2.261   6.761  12.263
68183SOL     OW 6445  12.384  13.015   1.306
68183SOL    HW1 6446  12.464  12.984   1.264
68183SOL    HW2 6447  12.318  13.010   1.237
68184SOL     OW 6448   5.446   4.046   3.798
68184SOL    HW1 6449   5.442   4.125   3.852
68184SOL    HW2 6450   5.529   4.053   3.751
68185SOL     OW 6451   1.993  14.357  11.668
68185SOL    HW1 6452   1.935  14.361  11.592
68185SOL    HW2 6453   1.935  14.365  11.744
68186SOL     OW 6454  13.903   6.758  13.762
68186SOL    HW1 6455  13.965   6.822  13.727
68186SOL    HW2 6456  13.842   6.810  13.815
68187SOL     OW 6457  14.555   0.574   0.788
68187SOL    HW1 6458  14.524   0.515   0.857
68187SOL    HW2 6459  14.603   0.518   0.727
68188SOL     OW 6460   3.187   7.833   7.332
68188SOL    HW1 6461   3.215   7.911   7.284
68188SOL    HW2 6462   3.203   7.854   7.424
68189SOL     OW 6463   9.328  13.735  11.567
68189SOL    HW1 6464   9.293  13.649  11.591
68189SOL    HW2 6465   9.313  13.741  11.473
68190SOL     OW 6466   6.415  11.565   4.534
68190SOL    HW1 6467   6.480  11.597   4.596
68190SOL    HW2 6468   6.456  11.491   4.491
68191SOL     OW 6469   3.505  13.743  12.769
68191SOL    HW1 6470   3.479  13.823  12.723
68191SOL    HW2 6471   3.486  13.672  12.707
68192SOL     OW 6472   8.791   4.285   3.748
68192SOL    HW1 6473   8.871   4.263   3.701
68192SOL    HW2 6474   8.815   4.283   3.841
68193SOL     OW 6475   7.496   5.505   4.487
68193SOL    HW1 6476   7.477   5.437   4.552
68193SOL    HW2 6477   7.420   5.563   4.489
68194SOL     OW 6478   4.607  12.478   8.820
68194SOL    HW1 6479   4.622  12.561   8.866
68194SOL    HW2 6480   4.539  12.498   8.756
68195SOL     OW 6481   6.420  14.476  14.004
68195SOL    HW1 6482   6.409  14.403  14.065
68195SOL    HW2 6483   6.511  14.502  14.013
68196SOL     OW 6484   8.708  12.935   3.794
68196SOL    HW1 6485   8.687  12.889   3.875
68196SOL    HW2 6486   8.712  13.028   3.819
68197SOL     OW 6487   0.898   9.390  12.462
68197SOL    HW1 6488   0.877   9.303  12.428
68197SOL    HW2 6489   0.968   9.374  12.525
68198SOL     OW 6490   2.099  11.489   9.120
68198SOL    HW1 6491   2.117  11.431   9.194
68198SOL    HW2 6492   2.172  11.473   9.059
68199SOL     OW 6493   0.756  13.767   1.906
68199SOL    HW1 6494   0.779  13.717   1.984
68199SOL    HW2 6495   0.782  13.712   1.832
68200SOL     OW 6496  11.845   1.084  11.129
68200SOL    HW1 6497  11.842   1.019  11.199
68200SOL    HW2 6498  11.933   1.121  11.135
68201SOL     OW 6499   4.898   3.738   7.339
68201SOL    HW1 6500   4.948   3.658   7.324
68201SOL    HW2 6501   4.961   3.809   7.323
68202SOL     OW 6502   8.074   4.221  11.050
68202SOL    HW1 6503   8.007   4.273  11.004
68202SOL    HW2 6504   8.154   4.236  11.000
68203SOL     OW 6505  13.534   7.129  12.655
68203SOL    HW1 6506  13.616   7.101  12.615
68203SOL    HW2 6507  13.467   7.079  12.609
68204SOL     OW 6508   1.005  11.632   2.737
68204SOL    HW1 6509   0.982  11.696   2.670
68204SOL    HW2 6510   1.055  11.683   2.802
68205SOL     OW 6511  13.702   5.852   0.316
68205SOL    HW1 6512  13.711   5.762   0.346
68205SOL    HW2 6513  13.730   5.850   0.224
68206SOL     OW 6514   6.714   5.024   2.209
68206SOL    HW1 6515   6.761   5.084   2.151
68206SOL    HW2 6516   6.714   4.940   2.162
68207SOL     OW 6517   0.162   7.002   7.437
68207SOL    HW1 6518   0.196   7.026   7.350
68207SOL    HW2 6519   0.067   7.012   7.430
68208SOL     OW 6520  14.093  14.194   7.726
68208SOL    HW1 6521  14.141  14.113   7.715
68208SOL    HW2 6522  14.078  14.200   7.820
68209SOL     OW 6523  11.576   1.546   7.453
68209SOL    HW1 6524  11.506   1.482   7.437
68209SOL    HW2 6525  11.657   1.495   7.449
68210SOL     OW 6526   6.701   7.520   8.894
68210SOL    HW1 6527   6.626   7.544   8.840
68210SOL    HW2 6528   6.730   7.602   8.933
68211SOL     OW 6529  14.874   0.605  13.537
68211SOL    HW1 6530   0.052   0.565  13.472
68211SOL    HW2 6531  14.803   0.644  13.485
68212SOL     OW 6532   2.658   3.936   1.654
68212SOL    HW1 6533   2.673   3.997   1.726
68212SOL    HW2 6534   2.738   3.883   1.651
68213SOL     OW 6535   7.416  12.628  11.987
68213SOL    HW1 6536   7.380  12.700  11.936
68213SOL    HW2 6537   7.351  12.611  12.055
68214SOL     OW 6538  11.199   1.701   2.465
68214SOL    HW1 6539  11.163   1.616   2.438
68214SOL    HW2 6540  11.250   1.681   2.544
68215SOL     OW 6541   4.370   2.987   2.667
68215SOL    HW1 6542   4.286   2.967   2.626
68215SOL    HW2 6543   4.347   3.028   2.751
68216SOL     OW 6544   9.501   3.293   6.618
68216SOL    HW1 6545   9.490   3.230   6.688
68216SOL    HW2 6546   9.477   3.245   6.538
68217SOL     OW 6547   6.636   9.429   8.323
68217SOL    HW1 6548   6.688   9.353   8.297
68217SOL    HW2 6549   6.572   9.394   8.386
68218SOL     OW 6550  14.285   3.021   5.488
68218SOL    HW1 6551  14.314   2.932   5.508
68218SOL    HW2 6552  14.192   3.022   5.511
68219SOL     OW 6553   2.373  12.215  11.275
68219SOL    HW1 6554   2.350  12.149  11.341
68219SOL    HW2 6555   2.326  12.187  11.196
68220SOL     OW 6556   3.215   8.778   7.691
68220SOL    HW1 6557   3.188   8.699   7.643
68220SOL    HW2 6558   3.187   8.851   7.635
68221SOL     OW 6559   7.134   2.710   7.686
68221SOL    HW1 6560   7.127   2.618   7.660
68221SOL    HW2 6561   7.061   2.724   7.746
68222SOL     OW 6562   4.369  11.873  14.238
68222SOL    HW1 6563   4.283  11.873  14.197
68222SOL    HW2 6564   4.366  11.799  14.299
68223SOL     OW 6565  10.801   1.004   1.525
68223SOL    HW1 6566  10.867   1.068   1.502
68223SOL    HW2 6567  10.803   1.001   1.621
68224SOL     OW 6568   1.117  14.020  10.498
68224SOL    HW1 6569   1.113  13.929  10.527
68224SOL    HW2 6570   1.193  14.056  10.544
68225SOL     OW 6571  13.369   5.612   3.461
68225SOL    HW1 6572  13.319   5.694   3.464
68225SOL    HW2 6573  13.353   5.571   3.546
68226SOL     OW 6574   2.384  10.698  10.500
68226SOL    HW1 6575   2.367  10.735  10.587
68226SOL    HW2 6576   2.310  10.639  10.485
68227SOL     OW 6577  12.360   6.304   9.180
68227SOL    HW1 6578  12.419   6.359   9.128
68227SOL    HW2 6579  12.358   6.347   9.266
68228SOL     OW 6580   6.088   4.923  13.263
68228SOL    HW1 6581   6.174   4.932  13.304
68228SOL    HW2 6582   6.098   4.847  13.204
68229SOL     OW 6583  10.499   6.119   9.425
68229SOL    HW1 6584  10.460   6.183   9.364
68229SOL    HW2 6585  10.424   6.085   9.474
68230SOL     OW 6586  13.981   7.234   4.058
68230SOL    HW1 6587  14.014   7.286   3.985
68230SOL    HW2 6588  13.967   7.297   4.128
68231SOL     OW 6589   2.980  10.043  11.654
68231SOL    HW1 6590   3.007  10.049  11.746
68231SOL    HW2 6591   3.045   9.985  11.614
68232SOL     OW 6592   5.654  10.764   0.935
68232SOL    HW1 6593   5.580  10.767   0.996
68232SOL    HW2 6594   5.675  10.671   0.927
68233SOL     OW 6595   4.351   7.412  10.325
68233SOL    HW1 6596   4.340   7.491  10.273
68233SOL    HW2 6597   4.270   7.363  10.311
68234SOL     OW 6598   5.339   8.076  14.548
68234SOL    HW1 6599   5.357   8.153  14.602
68234SOL    HW2 6600   5.357   8.105  14.458
68235SOL     OW 6601  10.319   9.849   1.717
68235SOL    HW1 6602  10.295   9.789   1.646
68235SOL    HW2 6603  10.357   9.925   1.673
68236SOL     OW 6604   8.865   8.861   4.526
68236SOL    HW1 6605   8.880   8.768   4.508
68236SOL    HW2 6606   8.877   8.869   4.620
68237SOL     OW 6607   7.020  13.589   2.761
68237SOL    HW1 6608   6.971  13.526   2.814
68237SOL    HW2 6609   6.991  13.573   2.671
68238SOL     OW 6610   4.583   9.166  11.754
68238SOL    HW1 6611   4.568   9.252  11.794
68238SOL    HW2 6612   4.650   9.125  11.809
68239SOL     OW 6613   2.303   8.339   1.434
68239SOL    HW1 6614   2.373   8.300   1.486
68239SOL    HW2 6615   2.223   8.296   1.465
68240SOL     OW 6616  10.202   1.821  12.906
68240SOL    HW1 6617  10.239   1.906  12.884
68240SOL    HW2 6618  10.225   1.807  12.998
68241SOL     OW 6619  13.386  13.581   3.128
68241SOL    HW1 6620  13.469  13.563   3.085
68241SOL    HW2 6621  13.345  13.649   3.075
68242SOL     OW 6622   8.742   7.846   3.713
68242SOL    HW1 6623   8.660   7.885   3.744
68242SOL    HW2 6624   8.805   7.918   3.716
68243SOL     OW 6625  10.229   1.504   5.235
68243SOL    HW1 6626  10.176   1.532   5.311
68243SOL    HW2 6627  10.200   1.414   5.219
68244SOL     OW 6628   2.285  11.624  13.570
68244SOL    HW1 6629   2.312  11.612  13.479
68244SOL    HW2 6630   2.358  11.671  13.611
68245SOL     OW 6631  13.659   0.196  10.194
68245SOL    HW1 6632  13.582   0.239  10.229
68245SOL    HW2 6633  13.632   0.164  10.107
68246SOL     OW 6634  12.640   3.530  11.324
68246SOL    HW1 6635  12.559   3.486  11.300
68246SOL    HW2 6636  12.646   3.519  11.419
68247SOL     OW 6637   6.637  10.632   3.269
68247SOL    HW1 6638   6.599  10.544   3.262
68247SOL    HW2 6639   6.704  10.624   3.336
68248SOL     OW 6640   6.584  14.072   8.588
68248SOL    HW1 6641   6.596  13.983   8.621
68248SOL    HW2 6642   6.621  14.128   8.656
68249SOL     OW 6643   5.510  10.095   6.356
68249SOL    HW1 6644   5.547  10.072   6.441
68249SOL    HW2 6645   5.551  10.179   6.334
68250SOL     OW 6646   0.238   2.911   8.391
68250SOL    HW1 6647   0.277   2.996   8.372
68250SOL    HW2 6648   0.265   2.892   8.481
68251SOL     OW 6649   0.729   8.857   6.546
68251SOL    HW1 6650   0.644   8.893   6.574
68251SOL    HW2 6651   0.707   8.770   6.512
68252SOL     OW 6652  12.826   5.445   7.255
68252SOL    HW1 6653  12.847   5.379   7.321
68252SOL    HW2 6654  12.900   5.505   7.257
68253SOL     OW 6655  13.008  12.889   4.044
68253SOL    HW1 6656  12.957  12.955   3.997
68253SOL    HW2 6657  12.954  12.866   4.120
68254SOL     OW 6658  13.784   1.640   0.915
68254SOL    HW1 6659  13.799   1.686   0.832
68254SOL    HW2 6660  13.828   1.556   0.904
68255SOL     OW 6661  11.798  11.871   3.177
68255SOL    HW1 6662  11.704  11.868   3.196
68255SOL    HW2 6663  11.838  11.819   3.247
68256SOL     OW 6664   4.886   1.912  10.508
68256SOL    HW1 6665   4.889   1.986  10.447
68256SOL    HW2 6666   4.801   1.921  10.552
68257SOL     OW 6667   1.824  10.474  13.376
68257SOL    HW1 6668   1.913  10.496  13.348
68257SOL    HW2 6669   1.780  10.558  13.385
68258SOL     OW 6670   8.391  11.808   3.985
68258SOL    HW1 6671   8.362  11.756   4.060
68258SOL    HW2 6672   8.449  11.874   4.023
68259SOL     OW 6673  13.213   0.056  14.649
68259SOL    HW1 6674  13.118   0.062  14.650
68259SOL    HW2 6675  13.231  14.847  14.680
68260SOL     OW 6676   1.771   3.123   7.272
68260SOL    HW1 6677   1.684   3.141   7.308
68260SOL    HW2 6678   1.825   3.103   7.349
68261SOL     OW 6679  12.266   3.131   8.827
68261SOL    HW1 6680  12.261   3.110   8.920
68261SOL    HW2 6681  12.280   3.046   8.784
68262SOL     OW 6682  12.267   4.806  11.703
68262SOL    HW1 6683  12.219   4.864  11.644
68262SOL    HW2 6684  12.329   4.864  11.747
68263SOL     OW 6685   0.675  12.589   1.571
68263SOL    HW1 6686   0.618  12.532   1.623
68263SOL    HW2 6687   0.742  12.618   1.632
68264SOL     OW 6688   0.960  14.256   8.826
68264SOL    HW1 6689   0.974  14.263   8.920
68264SOL    HW2 6690   0.970  14.162   8.807
68265SOL     OW 6691   9.190  11.695   3.753
68265SOL    HW1 6692   9.235  11.653   3.680
68265SOL    HW2 6693   9.123  11.750   3.712
68266SOL     OW 6694  11.987   1.124   1.632
68266SOL    HW1 6695  11.909   1.090   1.588
68266SOL    HW2 6696  11.969   1.217   1.644
68267SOL     OW 6697   6.520   8.449  11.497
68267SOL    HW1 6698   6.535   8.361  11.463
68267SOL    HW2 6699   6.567   8.507  11.437
68268SOL     OW 6700   7.810   5.065   4.411
68268SOL    HW1 6701   7.783   5.116   4.334
68268SOL    HW2 6702   7.727   5.041   4.453
68269SOL     OW 6703   5.372  11.922   3.737
68269SOL    HW1 6704   5.386  11.971   3.656
68269SOL    HW2 6705   5.325  11.844   3.710
68270SOL     OW 6706  11.307  13.925   6.828
68270SOL    HW1 6707  11.256  13.854   6.866
68270SOL    HW2 6708  11.247  13.998   6.821
68271SOL     OW 6709   0.512   6.189   2.408
68271SOL    HW1 6710   0.429   6.177   2.362
68271SOL    HW2 6711   0.515   6.283   2.426
68272SOL     OW 6712   4.054   3.433   7.576
68272SOL    HW1 6713   3.965   3.402   7.594
68272SOL    HW2 6714   4.048   3.528   7.587
68273SOL     OW 6715   8.175   7.902   5.531
68273SOL    HW1 6716   8.204   7.811   5.525
68273SOL    HW2 6717   8.121   7.905   5.610
68274SOL     OW 6718   5.789  12.001   6.681
68274SOL    HW1 6719   5.703  12.007   6.721
68274SOL    HW2 6720   5.799  12.082   6.631
68275SOL     OW 6721   2.424   3.873  11.047
68275SOL    HW1 6722   2.358   3.902  11.110
68275SOL    HW2 6723   2.501   3.854  11.100
68276SOL     OW 6724   2.372   5.816   2.936
68276SOL    HW1 6725   2.459   5.792   2.904
68276SOL    HW2 6726   2.346   5.890   2.881
68277SOL     OW 6727   8.111   4.698   8.188
68277SOL    HW1 6728   8.198   4.736   8.183
68277SOL    HW2 6729   8.106   4.641   8.111
68278SOL     OW 6730   2.132  12.104   3.530
68278SOL    HW1 6731   2.113  12.013   3.506
68278SOL    HW2 6732   2.047  12.140   3.555
68279SOL     OW 6733   7.359  12.912   8.652
68279SOL    HW1 6734   7.441  12.913   8.603
68279SOL    HW2 6735   7.364  12.990   8.708
68280SOL     OW 6736   5.349   6.320   6.224
68280SOL    HW1 6737   5.280   6.265   6.187
68280SOL    HW2 6738   5.307   6.404   6.242
68281SOL     OW 6739   6.950  10.019  13.069
68281SOL    HW1 6740   6.885   9.949  13.074
68281SOL    HW2 6741   7.022   9.988  13.124
68282SOL     OW 6742   5.638  11.635   0.578
68282SOL    HW1 6743   5.660  11.719   0.619
68282SOL    HW2 6744   5.673  11.570   0.639
68283SOL     OW 6745   4.978  12.107  11.857
68283SOL    HW1 6746   4.974  12.192  11.901
68283SOL    HW2 6747   4.997  12.044  11.927
68284SOL     OW 6748  10.443   0.598   1.386
68284SOL    HW1 6749  10.486   0.598   1.300
68284SOL    HW2 6750  10.375   0.664   1.379
68285SOL     OW 6751   2.112  10.330  14.788
68285SOL    HW1 6752   2.123  10.397  14.856
68285SOL    HW2 6753   2.018  10.322  14.777
68286SOL     OW 6754   1.753   4.531   2.439
68286SOL    HW1 6755   1.718   4.547   2.351
68286SOL    HW2 6756   1.841   4.496   2.424
68287SOL     OW 6757   4.009   3.647  11.563
68287SOL    HW1 6758   4.094   3.659  11.521
68287SOL    HW2 6759   3.953   3.610  11.495
68288SOL     OW 6760   1.544   8.152   4.661
68288SOL    HW1 6761   1.453   8.161   4.690
68288SOL    HW2 6762   1.561   8.058   4.665
68289SOL     OW 6763   5.421   1.726   2.427
68289SOL    HW1 6764   5.348   1.672   2.395
68289SOL    HW2 6765   5.467   1.668   2.488
68290SOL     OW 6766  10.580   2.149  12.463
68290SOL    HW1 6767  10.650   2.150  12.399
68290SOL    HW2 6768  10.549   2.058  12.463
68291SOL     OW 6769   5.202   4.794  10.404
68291SOL    HW1 6770   5.249   4.824  10.325
68291SOL    HW2 6771   5.223   4.701  10.409
68292SOL     OW 6772   0.231   5.855  14.578
68292SOL    HW1 6773   0.165   5.799  14.619
68292SOL    HW2 6774   0.204   5.944  14.601
68293SOL     OW 6775   4.728   5.969   6.502
68293SOL    HW1 6776   4.735   5.913   6.579
68293SOL    HW2 6777   4.722   6.058   6.537
68294SOL     OW 6778  11.430   0.861   2.290
68294SOL    HW1 6779  11.453   0.875   2.198
68294SOL    HW2 6780  11.413   0.767   2.296
68295SOL     OW 6781  12.448   9.740   6.238
68295SOL    HW1 6782  12.453   9.763   6.146
68295SOL    HW2 6783  12.406   9.654   6.240
68296SOL     OW 6784  14.196   2.834  11.496
68296SOL    HW1 6785  14.272   2.857  11.549
68296SOL    HW2 6786  14.147   2.771  11.550
68297SOL     OW 6787  14.546  13.027  11.549
68297SOL    HW1 6788  14.527  13.067  11.464
68297SOL    HW2 6789  14.530  12.934  11.535
68298SOL     OW 6790   5.985   9.255   5.034
68298SOL    HW1 6791   5.978   9.349   5.013
68298SOL    HW2 6792   5.897   9.231   5.063
68299SOL     OW 6793  10.860   6.862   0.150
68299SOL    HW1 6794  10.816   6.943   0.173
68299SOL    HW2 6795  10.800   6.793   0.178
68300SOL     OW 6796   6.965   3.993  11.254
68300SOL    HW1 6797   7.043   4.047  11.239
68300SOL    HW2 6798   6.999   3.904  11.266
68301SOL     OW 6799   2.098   6.364   2.618
68301SOL    HW1 6800   2.012   6.395   2.589
68301SOL    HW2 6801   2.084   6.273   2.645
68302SOL     OW 6802   6.022  10.598   2.597
68302SOL    HW1 6803   5.956  10.551   2.547
68302SOL    HW2 6804   6.065  10.655   2.533
68303SOL     OW 6805  13.483   5.791  10.412
68303SOL    HW1 6806  13.541   5.717  10.432
68303SOL    HW2 6807  13.432   5.803  10.492
68304SOL     OW 6808   6.676  14.540   8.118
68304SOL    HW1 6809   6.634  14.500   8.043
68304SOL    HW2 6810   6.608  14.592   8.160
68305SOL     OW 6811   1.943  12.339  14.185
68305SOL    HW1 6812   2.037  12.353  14.199
68305SOL    HW2 6813   1.912  12.308  14.270
68306SOL     OW 6814   4.722   0.608   1.229
68306SOL    HW1 6815   4.730   0.522   1.188
68306SOL    HW2 6816   4.811   0.642   1.232
68307SOL     OW 6817   1.225   4.030   6.741
68307SOL    HW1 6818   1.274   4.038   6.659
68307SOL    HW2 6819   1.261   4.097   6.799
68308SOL     OW 6820  10.200   0.983  10.966
68308SOL    HW1 6821  10.120   1.028  10.993
68308SOL    HW2 6822  10.172   0.926  10.894
68309SOL     OW 6823   9.041   2.135   3.243
68309SOL    HW1 6824   9.036   2.047   3.207
68309SOL    HW2 6825   9.121   2.173   3.205
68310SOL     OW 6826   3.181  10.751   3.334
68310SOL    HW1 6827   3.198  10.756   3.428
68310SOL    HW2 6828   3.121  10.677   3.324
68311SOL     OW 6829  13.204  12.164   4.759
68311SOL    HW1 6830  13.252  12.209   4.829
68311SOL    HW2 6831  13.267  12.104   4.721
68312SOL     OW 6832  10.411   2.660  12.418
68312SOL    HW1 6833  10.465   2.651  12.496
68312SOL    HW2 6834  10.322   2.674  12.451
68313SOL     OW 6835  12.508  12.127  14.672
68313SOL    HW1 6836  12.486  12.097  14.760
68313SOL    HW2 6837  12.562  12.057  14.636
68314SOL     OW 6838  10.444  11.464   6.914
68314SOL    HW1 6839  10.538  11.460   6.930
68314SOL    HW2 6840  10.436  11.451   6.819
68315SOL     OW 6841   4.037   1.008   4.340
68315SOL    HW1 6842   4.093   1.068   4.390
68315SOL    HW2 6843   4.073   1.009   4.251
68316SOL     OW 6844   5.374   2.144  14.473
68316SOL    HW1 6845   5.417   2.087  14.409
68316SOL    HW2 6846   5.293   2.099  14.496
68317SOL     OW 6847   2.694   0.986  11.306
68317SOL    HW1 6848   2.768   0.927  11.314
68317SOL    HW2 6849   2.730   1.073  11.325
68318SOL     OW 6850   1.194   2.716  10.778
68318SOL    HW1 6851   1.258   2.773  10.735
68318SOL    HW2 6852   1.243   2.671  10.846
68319SOL     OW 6853   2.427   4.457   4.481
68319SOL    HW1 6854   2.372   4.398   4.533
68319SOL    HW2 6855   2.432   4.414   4.395
68320SOL     OW 6856   4.803   4.201  10.851
68320SOL    HW1 6857   4.828   4.119  10.809
68320SOL    HW2 6858   4.857   4.267  10.808
68321SOL     OW 6859  14.040   7.783   6.424
68321SOL    HW1 6860  14.035   7.856   6.362
68321SOL    HW2 6861  13.980   7.808   6.494
68322SOL     OW 6862   7.271   8.914  12.867
68322SOL    HW1 6863   7.194   8.891  12.920
68322SOL    HW2 6864   7.293   8.833  12.822
68323SOL     OW 6865   0.910   2.741   0.161
68323SOL    HW1 6866   0.881   2.829   0.182
68323SOL    HW2 6867   0.988   2.728   0.214
68324SOL     OW 6868   8.489  14.418  13.002
68324SOL    HW1 6869   8.489  14.367  13.083
68324SOL    HW2 6870   8.581  14.435  12.984
68325SOL     OW 6871   5.020  10.687  13.212
68325SOL    HW1 6872   5.081  10.614  13.221
68325SOL    HW2 6873   5.019  10.728  13.299
68326SOL     OW 6874   3.025   8.757   5.548
68326SOL    HW1 6875   3.104   8.789   5.504
68326SOL    HW2 6876   3.034   8.662   5.547
68327SOL     OW 6877   6.937   8.237   9.653
68327SOL    HW1 6878   6.954   8.147   9.681
68327SOL    HW2 6879   6.974   8.291   9.723
68328SOL     OW 6880   4.900   7.018   0.718
68328SOL    HW1 6881   4.984   6.980   0.747
68328SOL    HW2 6882   4.856   6.947   0.673
68329SOL     OW 6883   6.560  14.386   8.801
68329SOL    HW1 6884   6.563  14.360   8.893
68329SOL    HW2 6885   6.632  14.337   8.760
68330SOL     OW 6886   3.958   1.058  11.181
68330SOL    HW1 6887   3.920   1.127  11.127
68330SOL    HW2 6888   3.886   0.997  11.196
68331SOL     OW 6889   6.592  10.275  10.040
68331SOL    HW1 6890   6.603  10.182  10.060
68331SOL    HW2 6891   6.502  10.294  10.064
68332SOL     OW 6892  14.857  12.101  12.999
68332SOL    HW1 6893  14.828  12.191  13.019
68332SOL    HW2 6894  14.776  12.053  12.981
68333SOL     OW 6895   8.310  13.976   5.204
68333SOL    HW1 6896   8.247  14.007   5.269
68333SOL    HW2 6897   8.389  14.026   5.223
68334SOL     OW 6898   4.197  12.299   4.591
68334SOL    HW1 6899   4.203  12.393   4.610
68334SOL    HW2 6900   4.272  12.281   4.535
68335SOL     OW 6901  12.672   0.704   9.821
68335SOL    HW1 6902  12.652   0.626   9.769
68335SOL    HW2 6903  12.676   0.775   9.757
68336SOL     OW 6904   5.937  11.904   0.655
68336SOL    HW1 6905   5.932  11.964   0.581
68336SOL    HW2 6906   5.959  11.819   0.616
68337SOL     OW 6907   1.181  14.451  10.992
68337SOL    HW1 6908   1.109  14.389  11.003
68337SOL    HW2 6909   1.195  14.455  10.898
68338SOL     OW 6910   6.456   5.288  10.655
68338SOL    HW1 6911   6.486   5.370  10.694
68338SOL    HW2 6912   6.384   5.314  10.597
68339SOL     OW 6913   6.629   5.764   8.681
68339SOL    HW1 6914   6.670   5.738   8.763
68339SOL    HW2 6915   6.536   5.772   8.704
68340SOL     OW 6916   0.083   4.035   7.455
68340SOL    HW1 6917   0.153   3.971   7.444
68340SOL    HW2 6918   0.034   4.031   7.372
68341SOL     OW 6919   3.132   2.668   7.115
68341SOL    HW1 6920   3.092   2.752   7.136
68341SOL    HW2 6921   3.172   2.680   7.030
68342SOL     OW 6922   1.176  13.746   6.223
68342SOL    HW1 6923   1.158  13.748   6.317
68342SOL    HW2 6924   1.162  13.836   6.194
68343SOL     OW 6925   6.502   6.020   1.263
68343SOL    HW1 6926   6.412   5.989   1.275
68343SOL    HW2 6927   6.493   6.102   1.215
68344SOL     OW 6928  11.489  14.302  12.666
68344SOL    HW1 6929  11.396  14.319  12.648
68344SOL    HW2 6930  11.517  14.245  12.594
68345SOL     OW 6931  10.934   0.894  10.554
68345SOL    HW1 6932  10.902   0.850  10.475
68345SOL    HW2 6933  10.970   0.823  10.607
68346SOL     OW 6934   1.175   7.424   7.870
68346SOL    HW1 6935   1.131   7.504   7.839
68346SOL    HW2 6936   1.156   7.359   7.803
68347SOL     OW 6937  12.540   2.409   6.250
68347SOL    HW1 6938  12.538   2.323   6.208
68347SOL    HW2 6939  12.536   2.472   6.177
68348SOL     OW 6940  13.907   9.513  10.527
68348SOL    HW1 6941  13.857   9.548  10.601
68348SOL    HW2 6942  13.996   9.547  10.539
68349SOL     OW 6943   0.613  11.589   4.801
68349SOL    HW1 6944   0.699  11.597   4.843
68349SOL    HW2 6945   0.580  11.504   4.831
68350SOL     OW 6946   7.344  14.495   5.404
68350SOL    HW1 6947   7.292  14.482   5.484
68350SOL    HW2 6948   7.423  14.540   5.433
68351SOL     OW 6949   2.813  12.685   9.372
68351SOL    HW1 6950   2.795  12.771   9.410
68351SOL    HW2 6951   2.891  12.699   9.319
68352SOL     OW 6952   1.467   4.722   1.454
68352SOL    HW1 6953   1.549   4.768   1.474
68352SOL    HW2 6954   1.447   4.747   1.364
68353SOL     OW 6955  11.463   2.818   2.090
68353SOL    HW1 6956  11.376   2.779   2.088
68353SOL    HW2 6957  11.473   2.851   2.179
68354SOL     OW 6958   3.075  12.213  10.237
68354SOL    HW1 6959   3.113  12.219  10.324
68354SOL    HW2 6960   3.088  12.122  10.211
68355SOL     OW 6961   5.832   5.913  10.817
68355SOL    HW1 6962   5.779   5.982  10.777
68355SOL    HW2 6963   5.871   5.954  10.894
68356SOL     OW 6964   8.472   0.902   6.177
68356SOL    HW1 6965   8.476   0.859   6.091
68356SOL    HW2 6966   8.436   0.989   6.159
68357SOL     OW 6967  14.462   9.883  11.570
68357SOL    HW1 6968  14.369   9.892  11.590
68357SOL    HW2 6969  14.506   9.948  11.625
68358SOL     OW 6970   5.788  10.517   3.855
68358SOL    HW1 6971   5.820  10.545   3.941
68358SOL    HW2 6972   5.796  10.422   3.856
68359SOL     OW 6973  11.930   5.140   2.426
68359SOL    HW1 6974  11.901   5.181   2.508
68359SOL    HW2 6975  11.852   5.099   2.391
68360SOL     OW 6976  12.709   0.925   7.610
68360SOL    HW1 6977  12.787   0.955   7.655
68360SOL    HW2 6978  12.673   1.003   7.569
68361SOL     OW 6979   2.775  12.816  10.904
68361SOL    HW1 6980   2.829  12.886  10.941
68361SOL    HW2 6981   2.689  12.856  10.892
68362SOL     OW 6982  14.769  14.198   0.490
68362SOL    HW1 6983  14.849  14.147   0.478
68362SOL    HW2 6984  14.739  14.216   0.401
68363SOL     OW 6985   3.215   4.824   6.630
68363SOL    HW1 6986   3.270   4.828   6.708
68363SOL    HW2 6987   3.189   4.733   6.623
68364SOL     OW 6988   0.763   9.919   9.356
68364SOL    HW1 6989   0.811   9.916   9.273
68364SOL    HW2 6990   0.729  10.008   9.361
68365SOL     OW 6991   8.676   3.296  10.994
68365SOL    HW1 6992   8.675   3.219  11.051
68365SOL    HW2 6993   8.765   3.298  10.958
68366SOL     OW 6994   5.476  11.716   4.234
68366SOL    HW1 6995   5.451  11.755   4.151
68366SOL    HW2 6996   5.427  11.765   4.300
68367SOL     OW 6997  11.725   4.699  14.861
68367SOL    HW1 6998  11.708   4.707  14.768
68367SOL    HW2 6999  11.806   4.648  14.867
68368SOL     OW 7000  11.051   7.772   6.524
68368SOL    HW1 7001  11.016   7.854   6.489
68368SOL    HW2 7002  10.985   7.741   6.586
68369SOL     OW 7003  14.647   9.315   6.189
68369SOL    HW1 7004  14.626   9.368   6.112
68369SOL    HW2 7005  14.725   9.357   6.225
68370SOL     OW 7006   1.473  12.466   8.461
68370SOL    HW1 7007   1.540  12.418   8.412
68370SOL    HW2 7008   1.465  12.419   8.544
68371SOL     OW 7009   4.206   6.671   4.143
68371SOL    HW1 7010   4.128   6.669   4.088
68371SOL    HW2 7011   4.259   6.598   4.113
68372SOL     OW 7012   4.722   6.537  12.508
68372SOL    HW1 7013   4.663   6.477  12.464
68372SOL    HW2 7014   4.740   6.496  12.593
68373SOL     OW 7015   2.133   9.495   8.805
68373SOL    HW1 7016   2.169   9.456   8.725
68373SOL    HW2 7017   2.172   9.443   8.876
68374SOL     OW 7018   2.753   8.842  10.519
68374SOL    HW1 7019   2.755   8.870  10.427
68374SOL    HW2 7020   2.660   8.835  10.540
68375SOL     OW 7021   8.409  13.796  12.680
68375SOL    HW1 7022   8.428  13.738  12.755
68375SOL    HW2 7023   8.370  13.738  12.615
68376SOL     OW 7024   8.243   3.204   9.673
68376SOL    HW1 7025   8.282   3.188   9.587
68376SOL    HW2 7026   8.192   3.284   9.662
68377SOL     OW 7027   7.753  10.106   4.711
68377SOL    HW1 7028   7.767  10.106   4.806
68377SOL    HW2 7029   7.752  10.199   4.687
68378SOL     OW 7030   7.097   5.790   8.631
68378SOL    HW1 7031   7.156   5.851   8.585
68378SOL    HW2 7032   7.010   5.815   8.602
68379SOL     OW 7033  13.253  11.690  13.244
68379SOL    HW1 7034  13.176  11.641  13.274
68379SOL    HW2 7035  13.325  11.628  13.255
68380SOL     OW 7036   7.791  10.636  12.784
68380SOL    HW1 7037   7.839  10.599  12.858
68380SOL    HW2 7038   7.853  10.634  12.712
68381SOL     OW 7039  12.984   3.240   6.238
68381SOL    HW1 7040  12.918   3.195   6.185
68381SOL    HW2 7041  12.935   3.276   6.312
68382SOL     OW 7042   3.678  10.185   0.096
68382SOL    HW1 7043   3.677  10.230   0.011
68382SOL    HW2 7044   3.651  10.252   0.159
68383SOL     OW 7045   4.112   3.069  12.187
68383SOL    HW1 7046   4.195   3.086  12.232
68383SOL    HW2 7047   4.137   3.056  12.096
68384SOL     OW 7048   8.071  11.228   6.095
68384SOL    HW1 7049   8.019  11.227   6.176
68384SOL    HW2 7050   8.071  11.137   6.066
68385SOL     OW 7051   8.488   0.233   2.340
68385SOL    HW1 7052   8.486   0.315   2.290
68385SOL    HW2 7053   8.408   0.236   2.393
68386SOL     OW 7054   2.525  13.726  13.200
68386SOL    HW1 7055   2.435  13.695  13.188
68386SOL    HW2 7056   2.557  13.680  13.277
68387SOL     OW 7057   2.199   5.282   2.786
68387SOL    HW1 7058   2.266   5.281   2.854
68387SOL    HW2 7059   2.179   5.190   2.770
68388SOL     OW 7060   5.411   0.155  12.137
68388SOL    HW1 7061   5.482   0.114  12.088
68388SOL    HW2 7062   5.346   0.085  12.147
68389SOL     OW 7063   8.624   6.381  11.691
68389SOL    HW1 7064   8.593   6.317  11.628
68389SOL    HW2 7065   8.638   6.331  11.772
68390SOL     OW 7066   3.041   1.658   8.748
68390SOL    HW1 7067   3.078   1.616   8.671
68390SOL    HW2 7068   3.022   1.585   8.808
68391SOL     OW 7069   0.868  10.556   1.168
68391SOL    HW1 7070   0.813  10.533   1.243
68391SOL    HW2 7071   0.855  10.485   1.106
68392SOL     OW 7072  13.400  14.707  11.247
68392SOL    HW1 7073  13.339  14.636  11.268
68392SOL    HW2 7074  13.474  14.663  11.206
68393SOL     OW 7075  14.871  12.902  14.195
68393SOL    HW1 7076  14.807  12.929  14.261
68393SOL    HW2 7077  14.849  12.811  14.177
68394SOL     OW 7078   8.340   6.560  12.211
68394SOL    HW1 7079   8.309   6.650  12.196
68394SOL    HW2 7080   8.260   6.509  12.222
68395SOL     OW 7081  12.422  14.521  11.471
68395SOL    HW1 7082  12.355  14.588  11.463
68395SOL    HW2 7083  12.388  14.447  11.421
68396SOL     OW 7084  14.324   9.985   2.639
68396SOL    HW1 7085  14.241  10.017   2.676
68396SOL    HW2 7086  14.392  10.032   2.689
68397SOL     OW 7087  14.595   3.680   0.932
68397SOL    HW1 7088  14.593   3.765   0.974
68397SOL    HW2 7089  14.688   3.663   0.917
68398SOL     OW 7090  14.447   0.078   2.268
68398SOL    HW1 7091  14.361   0.098   2.234
68398SOL    HW2 7092  14.501   0.153   2.244
68399SOL     OW 7093  14.843  14.501   3.003
68399SOL    HW1 7094   0.024  14.473   3.072
68399SOL    HW2 7095  14.758  14.505   3.046
68400SOL     OW 7096   0.070   4.059   4.654
68400SOL    HW1 7097   0.069   4.030   4.563
68400SOL    HW2 7098   0.009   4.000   4.699
68401SOL     OW 7099  11.990  14.609  11.388
68401SOL    HW1 7100  11.930  14.652  11.449
68401SOL    HW2 7101  11.957  14.631  11.301
68402SOL     OW 7102  10.326   5.659   3.249
68402SOL    HW1 7103  10.264   5.643   3.320
68402SOL    HW2 7104  10.273   5.697   3.179
68403SOL     OW 7105   9.515  11.446  12.353
68403SOL    HW1 7106   9.518  11.510  12.282
68403SOL    HW2 7107   9.441  11.388  12.330
68404SOL     OW 7108  13.307  13.162   9.205
68404SOL    HW1 7109  13.356  13.233   9.246
68404SOL    HW2 7110  13.327  13.170   9.112
68405SOL     OW 7111  12.072   2.902  13.092
68405SOL    HW1 7112  12.074   2.815  13.131
68405SOL    HW2 7113  12.098   2.888  13.001
68406SOL     OW 7114   0.834   1.508   7.377
68406SOL    HW1 7115   0.912   1.490   7.430
68406SOL    HW2 7116   0.837   1.442   7.308
68407SOL     OW 7117   1.296   7.415   5.148
68407SOL    HW1 7118   1.290   7.360   5.070
68407SOL    HW2 7119   1.206   7.435   5.171
68408SOL     OW 7120   4.384  12.566  10.889
68408SOL    HW1 7121   4.442  12.570  10.813
68408SOL    HW2 7122   4.331  12.645  10.883
68409SOL     OW 7123  12.281   2.558   9.195
68409SOL    HW1 7124  12.215   2.505   9.152
68409SOL    HW2 7125  12.321   2.499   9.259
68410SOL     OW 7126  11.566   1.914   9.985
68410SOL    HW1 7127  11.631   1.981   9.971
68410SOL    HW2 7128  11.523   1.902   9.900
68411SOL     OW 7129  14.755  11.097  12.684
68411SOL    HW1 7130  14.686  11.092  12.617
68411SOL    HW2 7131  14.784  11.189  12.681
68412SOL     OW 7132   2.346  14.822   7.642
68412SOL    HW1 7133   2.365   0.034   7.661
68412SOL    HW2 7134   2.419  14.792   7.589
68413SOL     OW 7135  10.707  11.951   1.119
68413SOL    HW1 7136  10.676  12.034   1.082
68413SOL    HW2 7137  10.801  11.952   1.103
68414SOL     OW 7138  12.634   4.470   0.159
68414SOL    HW1 7139  12.636   4.383   0.198
68414SOL    HW2 7140  12.554   4.510   0.194
68415SOL     OW 7141   3.813  11.083   1.077
68415SOL    HW1 7142   3.776  11.041   0.999
68415SOL    HW2 7143   3.884  11.025   1.104
68416SOL     OW 7144   4.027   3.840   5.385
68416SOL    HW1 7145   4.045   3.768   5.445
68416SOL    HW2 7146   4.048   3.919   5.436
68417SOL     OW 7147   0.409   4.225  14.879
68417SOL    HW1 7148   0.438   4.288  14.814
68417SOL    HW2 7149   0.344   4.172  14.834
68418SOL     OW 7150   3.094   0.354   0.128
68418SOL    HW1 7151   3.026   0.347   0.061
68418SOL    HW2 7152   3.050   0.395   0.203
68419SOL     OW 7153  13.364  10.448  10.392
68419SOL    HW1 7154  13.429  10.510  10.358
68419SOL    HW2 7155  13.395  10.362  10.363
68420SOL     OW 7156   9.650   9.021   6.219
68420SOL    HW1 7157   9.700   9.048   6.296
68420SOL    HW2 7158   9.633   9.102   6.172
68421SOL     OW 7159   9.367   2.296  14.638
68421SOL    HW1 7160   9.434   2.359  14.665
68421SOL    HW2 7161   9.397   2.213  14.673
68422SOL     OW 7162   2.745   3.896  10.490
68422SOL    HW1 7163   2.763   3.810  10.450
68422SOL    HW2 7164   2.765   3.884  10.583
68423SOL     OW 7165  10.952   9.372   0.133
68423SOL    HW1 7166  10.901   9.411   0.203
68423SOL    HW2 7167  10.887   9.327   0.078
68424SOL     OW 7168   7.222   9.993   9.827
68424SOL    HW1 7169   7.316   9.991   9.809
68424SOL    HW2 7170   7.181  10.005   9.742
68425SOL     OW 7171   1.095  14.605   6.853
68425SOL    HW1 7172   1.010  14.621   6.812
68425SOL    HW2 7173   1.073  14.583   6.944
68426SOL     OW 7174   9.746   6.047  14.403
68426SOL    HW1 7175   9.693   5.968  14.410
68426SOL    HW2 7176   9.697   6.104  14.344
68427SOL     OW 7177   8.282   4.591   3.076
68427SOL    HW1 7178   8.297   4.651   3.150
68427SOL    HW2 7179   8.355   4.608   3.017
68428SOL     OW 7180  13.775  13.294   4.293
68428SOL    HW1 7181  13.700  13.253   4.336
68428SOL    HW2 7182  13.752  13.296   4.200
68429SOL     OW 7183  12.899   1.569   7.125
68429SOL    HW1 7184  12.837   1.639   7.146
68429SOL    HW2 7185  12.923   1.585   7.033
68430SOL     OW 7186  13.404   3.129   7.936
68430SOL    HW1 7187  13.418   3.215   7.895
68430SOL    HW2 7188  13.357   3.149   8.017
68431SOL     OW 7189   1.063   6.769   1.841
68431SOL    HW1 7190   1.073   6.816   1.758
68431SOL    HW2 7191   1.151   6.768   1.879
68432SOL     OW 7192  13.480   8.191  10.014
68432SOL    HW1 7193  13.513   8.258   9.955
68432SOL    HW2 7194  13.391   8.219  10.036
68433SOL     OW 7195   2.885   8.762   8.675
68433SOL    HW1 7196   2.870   8.692   8.738
68433SOL    HW2 7197   2.828   8.833   8.704
68434SOL     OW 7198   4.314  14.626   2.528
68434SOL    HW1 7199   4.219  14.636   2.520
68434SOL    HW2 7200   4.336  14.677   2.606
68435SOL     OW 7201  14.230  10.545  11.783
68435SOL    HW1 7202  14.197  10.456  11.771
68435SOL    HW2 7203  14.288  10.540  11.859
68436SOL     OW 7204   3.461   2.422   0.508
68436SOL    HW1 7205   3.426   2.336   0.532
68436SOL    HW2 7206   3.397   2.458   0.447
68437SOL     OW 7207  13.624   2.192   5.845
68437SOL    HW1 7208  13.654   2.102   5.855
68437SOL    HW2 7209  13.639   2.232   5.931
68438SOL     OW 7210  10.198  14.178   8.365
68438SOL    HW1 7211  10.275  14.180   8.308
68438SOL    HW2 7212  10.127  14.147   8.309
68439SOL     OW 7213   6.386   9.985   3.601
68439SOL    HW1 7214   6.310   9.944   3.641
68439SOL    HW2 7215   6.433  10.025   3.674
68440SOL     OW 7216  14.026  13.923  10.590
68440SOL    HW1 7217  14.070  13.984  10.649
68440SOL    HW2 7218  14.097  13.882  10.541
68441SOL     OW 7219   0.805   0.378  13.413
68441SOL    HW1 7220   0.727   0.425  13.442
68441SOL    HW2 7221   0.809   0.393  13.319
68442SOL     OW 7222   2.820   4.835   5.562
68442SOL    HW1 7223   2.913   4.835   5.540
68442SOL    HW2 7224   2.775   4.813   5.480
68443SOL     OW 7225   1.483   3.548  12.094
68443SOL    HW1 7226   1.521   3.615  12.036
68443SOL    HW2 7227   1.551   3.481  12.100
68444SOL     OW 7228   6.261   1.358   3.022
68444SOL    HW1 7229   6.205   1.410   2.965
68444SOL    HW2 7230   6.303   1.295   2.964
68445SOL     OW 7231   5.777  12.767   3.315
68445SOL    HW1 7232   5.747  12.837   3.372
68445SOL    HW2 7233   5.827  12.709   3.373
68446SOL     OW 7234  14.017   2.317  10.589
68446SOL    HW1 7235  14.048   2.233  10.554
68446SOL    HW2 7236  14.089   2.348  10.645
68447SOL     OW 7237   3.374   8.906  11.905
68447SOL    HW1 7238   3.422   8.886  11.986
68447SOL    HW2 7239   3.409   8.843  11.841
68448SOL     OW 7240   1.695   9.197   7.296
68448SOL    HW1 7241   1.627   9.199   7.228
68448SOL    HW2 7242   1.653   9.154   7.370
68449SOL     OW 7243  13.595  12.190  13.730
68449SOL    HW1 7244  13.616  12.154  13.816
68449SOL    HW2 7245  13.612  12.119  13.669
68450SOL     OW 7246   4.569   7.159   7.415
68450SOL    HW1 7247   4.645   7.116   7.454
68450SOL    HW2 7248   4.545   7.227   7.478
68451SOL     OW 7249  11.844   3.476   3.966
68451SOL    HW1 7250  11.756   3.446   3.987
68451SOL    HW2 7251  11.834   3.532   3.889
68452SOL     OW 7252  13.770  12.157  13.156
68452SOL    HW1 7253  13.723  12.200  13.085
68452SOL    HW2 7254  13.782  12.225  13.222
68453SOL     OW 7255   1.248   4.770  14.396
68453SOL    HW1 7256   1.269   4.789  14.488
68453SOL    HW2 7257   1.269   4.851  14.349
68454SOL     OW 7258  14.302   8.569   2.638
68454SOL    HW1 7259  14.315   8.639   2.574
68454SOL    HW2 7260  14.261   8.498   2.588
68455SOL     OW 7261   1.780   8.604  14.759
68455SOL    HW1 7262   1.826   8.576  14.679
68455SOL    HW2 7263   1.689   8.616  14.731
68456SOL     OW 7264   5.868  13.833   0.979
68456SOL    HW1 7265   5.811  13.886   1.035
68456SOL    HW2 7266   5.878  13.750   1.027
68457SOL     OW 7267  10.130  14.575   4.904
68457SOL    HW1 7268  10.039  14.604   4.897
68457SOL    HW2 7269  10.181  14.656   4.903
68458SOL     OW 7270  14.777   3.234  12.167
68458SOL    HW1 7271  14.769   3.144  12.135
68458SOL    HW2 7272  14.800   3.226  12.259
68459SOL     OW 7273   5.514  13.076   7.498
68459SOL    HW1 7274   5.514  13.171   7.486
68459SOL    HW2 7275   5.541  13.063   7.589
68460SOL     OW 7276  13.525   8.534   4.411
68460SOL    HW1 7277  13.489   8.537   4.500
68460SOL    HW2 7278  13.619   8.520   4.424
68461SOL     OW 7279   3.734  12.307  13.355
68461SOL    HW1 7280   3.723  12.310  13.450
68461SOL    HW2 7281   3.782  12.225  13.340
68462SOL     OW 7282   0.026   8.965   6.226
68462SOL    HW1 7283   0.067   8.996   6.307
68462SOL    HW2 7284   0.098   8.959   6.164
68463SOL     OW 7285   7.245   9.203  14.599
68463SOL    HW1 7286   7.307   9.193  14.527
68463SOL    HW2 7287   7.295   9.178  14.677
68464SOL     OW 7288  10.097   9.029  12.336
68464SOL    HW1 7289  10.165   9.088  12.369
68464SOL    HW2 7290  10.029   9.088  12.302
68465SOL     OW 7291   8.149   3.669   7.376
68465SOL    HW1 7292   8.149   3.714   7.461
68465SOL    HW2 7293   8.157   3.576   7.398
68466SOL     OW 7294   6.050   1.698   3.936
68466SOL    HW1 7295   5.975   1.640   3.919
68466SOL    HW2 7296   6.031   1.777   3.885
68467SOL     OW 7297   1.896   1.703   9.458
68467SOL    HW1 7298   1.851   1.686   9.541
68467SOL    HW2 7299   1.899   1.618   9.414
68468SOL     OW 7300   3.705  11.910   8.621
68468SOL    HW1 7301   3.730  11.917   8.713
68468SOL    HW2 7302   3.633  11.972   8.610
68469SOL     OW 7303   8.007  13.437  12.901
68469SOL    HW1 7304   7.983  13.500  12.970
68469SOL    HW2 7305   8.039  13.492  12.830
68470SOL     OW 7306  11.982   3.552  13.110
68470SOL    HW1 7307  12.035   3.571  13.033
68470SOL    HW2 7308  11.956   3.461  13.100
68471SOL     OW 7309   2.933   5.969   4.490
68471SOL    HW1 7310   2.955   6.007   4.575
68471SOL    HW2 7311   2.903   6.044   4.438
68472SOL     OW 7312   2.452   2.128   5.570
68472SOL    HW1 7313   2.407   2.184   5.507
68472SOL    HW2 7314   2.482   2.188   5.638
68473SOL     OW 7315   1.896   6.716   3.270
68473SOL    HW1 7316   1.873   6.769   3.346
68473SOL    HW2 7317   1.989   6.694   3.282
68474SOL     OW 7318   1.185   2.577   6.235
68474SOL    HW1 7319   1.230   2.501   6.199
68474SOL    HW2 7320   1.092   2.554   6.233
68475SOL     OW 7321   3.403  12.635   7.857
68475SOL    HW1 7322   3.424  12.554   7.810
68475SOL    HW2 7323   3.314  12.656   7.829
68476SOL     OW 7324   4.542   2.997   9.739
68476SOL    HW1 7325   4.466   3.031   9.785
68476SOL    HW2 7326   4.514   2.910   9.709
68477SOL     OW 7327   6.018  11.073   1.347
68477SOL    HW1 7328   6.037  11.158   1.386
68477SOL    HW2 7329   6.049  11.080   1.257
68478SOL     OW 7330   4.494   6.777  11.644
68478SOL    HW1 7331   4.562   6.803  11.706
68478SOL    HW2 7332   4.530   6.800  11.558
68479SOL     OW 7333   5.513   3.895   3.524
68479SOL    HW1 7334   5.487   3.840   3.598
68479SOL    HW2 7335   5.565   3.966   3.563
68480SOL     OW 7336  10.731   5.440   4.968
68480SOL    HW1 7337  10.671   5.379   5.011
68480SOL    HW2 7338  10.767   5.390   4.894
68481SOL     OW 7339  13.093  12.964   6.973
68481SOL    HW1 7340  13.127  13.041   6.928
68481SOL    HW2 7341  13.069  12.904   6.902
68482SOL     OW 7342  12.587   5.199   5.502
68482SOL    HW1 7343  12.536   5.237   5.574
68482SOL    HW2 7344  12.629   5.122   5.541
68483SOL     OW 7345  12.068  13.318   2.793
68483SOL    HW1 7346  12.076  13.227   2.819
68483SOL    HW2 7347  11.980  13.324   2.755
68484SOL     OW 7348   7.656   2.232  10.347
68484SOL    HW1 7349   7.748   2.228  10.375
68484SOL    HW2 7350   7.649   2.317  10.303
68485SOL     OW 7351   5.356  13.561  12.129
68485SOL    HW1 7352   5.354  13.543  12.223
68485SOL    HW2 7353   5.421  13.630  12.119
68486SOL     OW 7354  10.633   9.376   9.751
68486SOL    HW1 7355  10.656   9.283   9.746
68486SOL    HW2 7356  10.573   9.382   9.826
68487SOL     OW 7357  10.330   9.606  11.878
68487SOL    HW1 7358  10.251   9.661  11.877
68487SOL    HW2 7359  10.394   9.657  11.927
68488SOL     OW 7360   5.085   0.156   4.568
68488SOL    HW1 7361   5.072   0.165   4.662
68488SOL    HW2 7362   5.078   0.245   4.534
68489SOL     OW 7363   3.401  12.800   5.457
68489SOL    HW1 7364   3.365  12.754   5.381
68489SOL    HW2 7365   3.335  12.790   5.525
68490SOL     OW 7366  14.164  14.400  11.748
68490SOL    HW1 7367  14.086  14.351  11.773
68490SOL    HW2 7368  14.146  14.428  11.658
68491SOL     OW 7369   4.924  10.411   3.518
68491SOL    HW1 7370   4.893  10.326   3.548
68491SOL    HW2 7371   5.014  10.395   3.489
68492SOL     OW 7372  13.545   4.178  13.710
68492SOL    HW1 7373  13.564   4.085  13.710
68492SOL    HW2 7374  13.631   4.220  13.705
68493SOL     OW 7375  12.371  13.467   4.968
68493SOL    HW1 7376  12.317  13.408   4.915
68493SOL    HW2 7377  12.427  13.409   5.020
68494SOL     OW 7378   6.166  13.152  10.096
68494SOL    HW1 7379   6.120  13.227  10.132
68494SOL    HW2 7380   6.207  13.110  10.171
68495SOL     OW 7381   1.005   5.582  13.790
68495SOL    HW1 7382   0.946   5.640  13.839
68495SOL    HW2 7383   1.079   5.568  13.849
68496SOL     OW 7384  12.178   7.302  13.027
68496SOL    HW1 7385  12.126   7.368  12.982
68496SOL    HW2 7386  12.259   7.296  12.976
68497SOL     OW 7387  11.930   3.795   8.497
68497SOL    HW1 7388  11.992   3.820   8.428
68497SOL    HW2 7389  11.905   3.879   8.537
68498SOL     OW 7390  11.393   8.518  14.376
68498SOL    HW1 7391  11.389   8.422  14.375
68498SOL    HW2 7392  11.437   8.541  14.294
68499SOL     OW 7393  12.284   3.652   4.712
68499SOL    HW1 7394  12.269   3.741   4.744
68499SOL    HW2 7395  12.238   3.648   4.628
68500SOL     OW 7396  14.348  11.372   3.163
68500SOL    HW1 7397  14.321  11.425   3.238
68500SOL    HW2 7398  14.417  11.423   3.120
68501SOL     OW 7399   5.582  11.756  14.606
68501SOL    HW1 7400   5.523  11.685  14.582
68501SOL    HW2 7401   5.629  11.723  14.683
68502SOL     OW 7402  13.992   6.295  11.978
68502SOL    HW1 7403  14.034   6.287  11.892
68502SOL    HW2 7404  13.934   6.371  11.969
68503SOL     OW 7405  12.019   4.482   3.053
68503SOL    HW1 7406  11.937   4.530   3.050
68503SOL    HW2 7407  11.995   4.391   3.035
68504SOL     OW 7408   8.716   4.195   2.058
68504SOL    HW1 7409   8.735   4.272   2.112
68504SOL    HW2 7410   8.725   4.226   1.968
68505SOL     OW 7411  10.747   9.706  11.904
68505SOL    HW1 7412  10.680   9.774  11.907
68505SOL    HW2 7413  10.749   9.678  11.813
68506SOL     OW 7414   1.278   7.291   7.359
68506SOL    HW1 7415   1.191   7.330   7.349
68506SOL    HW2 7416   1.336   7.365   7.374
68507SOL     OW 7417   1.268  11.959  14.178
68507SOL    HW1 7418   1.219  11.957  14.260
68507SOL    HW2 7419   1.325  12.035  14.186
68508SOL     OW 7420  14.731   1.797   7.796
68508SOL    HW1 7421  14.681   1.811   7.716
68508SOL    HW2 7422  14.740   1.702   7.803
68509SOL     OW 7423  11.223   8.992   4.597
68509SOL    HW1 7424  11.239   8.955   4.510
68509SOL    HW2 7425  11.278   9.070   4.601
68510SOL     OW 7426   2.127  11.085   2.018
68510SOL    HW1 7427   2.117  11.072   1.923
68510SOL    HW2 7428   2.218  11.059   2.036
68511SOL     OW 7429   7.226   7.904   5.101
68511SOL    HW1 7430   7.167   7.955   5.046
68511SOL    HW2 7431   7.310   7.951   5.096
68512SOL     OW 7432   5.304   2.124   6.897
68512SOL    HW1 7433   5.379   2.180   6.915
68512SOL    HW2 7434   5.340   2.051   6.846
68513SOL     OW 7435   3.738   4.399   5.763
68513SOL    HW1 7436   3.818   4.440   5.732
68513SOL    HW2 7437   3.710   4.341   5.692
68514SOL     OW 7438  12.020   0.703  10.074
68514SOL    HW1 7439  12.040   0.743   9.989
68514SOL    HW2 7440  12.049   0.767  10.138
68515SOL     OW 7441  13.431  12.453   6.951
68515SOL    HW1 7442  13.494  12.484   6.886
68515SOL    HW2 7443  13.439  12.357   6.949
68516SOL     OW 7444  12.061   5.070  12.042
68516SOL    HW1 7445  12.099   4.999  12.094
68516SOL    HW2 7446  12.132   5.135  12.035
68517SOL     OW 7447   1.478  13.632  10.199
68517SOL    HW1 7448   1.463  13.711  10.148
68517SOL    HW2 7449   1.397  13.582  10.190
68518SOL     OW 7450   3.870  11.689   9.973
68518SOL    HW1 7451   3.788  11.656  10.009
68518SOL    HW2 7452   3.877  11.778  10.007
68519SOL     OW 7453   1.274   7.491  11.151
68519SOL    HW1 7454   1.357   7.537  11.164
68519SOL    HW2 7455   1.288   7.438  11.072
68520SOL     OW 7456  10.195  12.871  10.046
68520SOL    HW1 7457  10.158  12.797   9.999
68520SOL    HW2 7458  10.273  12.895   9.996
68521SOL     OW 7459   4.292   2.729   8.282
68521SOL    HW1 7460   4.338   2.805   8.317
68521SOL    HW2 7461   4.360   2.663   8.270
68522SOL     OW 7462   9.166   0.482   1.427
68522SOL    HW1 7463   9.091   0.457   1.374
68522SOL    HW2 7464   9.174   0.412   1.492
68523SOL     OW 7465   6.501   7.120   7.000
68523SOL    HW1 7466   6.535   7.208   7.014
68523SOL    HW2 7467   6.438   7.130   6.928
68524SOL     OW 7468  12.451   6.958   4.548
68524SOL    HW1 7469  12.387   6.898   4.588
68524SOL    HW2 7470  12.397   7.028   4.511
68525SOL     OW 7471  13.009  13.021   7.882
68525SOL    HW1 7472  12.935  13.073   7.851
68525SOL    HW2 7473  13.085  13.062   7.842
68526SOL     OW 7474  12.916   3.704  11.851
68526SOL    HW1 7475  12.982   3.711  11.782
68526SOL    HW2 7476  12.960   3.656  11.922
68527SOL     OW 7477   2.375   8.478   8.169
68527SOL    HW1 7478   2.318   8.401   8.169
68527SOL    HW2 7479   2.315   8.552   8.163
68528SOL     OW 7480   6.731  12.610  12.957
68528SOL    HW1 7481   6.696  12.699  12.962
68528SOL    HW2 7482   6.732  12.589  12.864
68529SOL     OW 7483  11.157  12.377  13.882
68529SOL    HW1 7484  11.192  12.293  13.852
68529SOL    HW2 7485  11.209  12.442  13.836
68530SOL     OW 7486   3.121   6.342   0.326
68530SOL    HW1 7487   3.071   6.312   0.402
68530SOL    HW2 7488   3.057   6.392   0.274
68531SOL     OW 7489  13.492   2.553   2.911
68531SOL    HW1 7490  13.492   2.458   2.922
68531SOL    HW2 7491  13.560   2.570   2.846
68532SOL     OW 7492   4.282   9.792   9.540
68532SOL    HW1 7493   4.322   9.705   9.540
68532SOL    HW2 7494   4.280   9.818   9.632
68533SOL     OW 7495   8.681   9.417  13.941
68533SOL    HW1 7496   8.657   9.494  13.890
68533SOL    HW2 7497   8.627   9.346  13.905
68534SOL     OW 7498   4.637   3.709   5.426
68534SOL    HW1 7499   4.576   3.639   5.450
68534SOL    HW2 7500   4.590   3.761   5.361
68535SOL     OW 7501   5.070   6.881   0.442
68535SOL    HW1 7502   5.060   6.976   0.442
68535SOL    HW2 7503   5.137   6.863   0.376
68536SOL     OW 7504   1.257   0.174  13.646
68536SOL    HW1 7505   1.182   0.203  13.592
68536SOL    HW2 7506   1.247   0.079  13.652
68537SOL     OW 7507   8.779  10.078  11.913
68537SOL    HW1 7508   8.748  10.147  11.972
68537SOL    HW2 7509   8.792  10.122  11.829
68538SOL     OW 7510   1.733  14.174   6.456
68538SOL    HW1 7511   1.781  14.114   6.513
68538SOL    HW2 7512   1.644  14.137   6.451
68539SOL     OW 7513  12.866   8.923   6.812
68539SOL    HW1 7514  12.930   8.861   6.849
68539SOL    HW2 7515  12.916   8.972   6.746
68540SOL     OW 7516   3.048  14.872   7.474
68540SOL    HW1 7517   3.132  14.874   7.427
68540SOL    HW2 7518   3.046  14.787   7.517
68541SOL     OW 7519   5.447   5.585  11.289
68541SOL    HW1 7520   5.510   5.528  11.243
68541SOL    HW2 7521   5.501   5.643  11.342
68542SOL     OW 7522   5.675   3.926   1.494
68542SOL    HW1 7523   5.679   3.877   1.412
68542SOL    HW2 7524   5.582   3.926   1.517
68543SOL     OW 7525  14.677  11.345   8.625
68543SOL    HW1 7526  14.630  11.412   8.673
68543SOL    HW2 7527  14.675  11.374   8.534
68544SOL     OW 7528  12.262  12.478  13.421
68544SOL    HW1 7529  12.339  12.503  13.472
68544SOL    HW2 7530  12.246  12.553  13.363
68545SOL     OW 7531   2.279   2.161   4.495
68545SOL    HW1 7532   2.354   2.210   4.462
68545SOL    HW2 7533   2.266   2.195   4.584
68546SOL     OW 7534   9.372   4.269   9.802
68546SOL    HW1 7535   9.441   4.331   9.778
68546SOL    HW2 7536   9.414   4.183   9.797
68547SOL     OW 7537  12.994  10.800  13.547
68547SOL    HW1 7538  12.989  10.715  13.502
68547SOL    HW2 7539  12.958  10.862  13.484
68548SOL     OW 7540  12.145   7.590   7.125
68548SOL    HW1 7541  12.143   7.556   7.036
68548SOL    HW2 7542  12.108   7.678   7.118
68549SOL     OW 7543   8.144  11.756   4.942
68549SOL    HW1 7544   8.074  11.705   4.983
68549SOL    HW2 7545   8.172  11.704   4.868
68550SOL     OW 7546   6.705   4.554   3.378
68550SOL    HW1 7547   6.740   4.492   3.313
68550SOL    HW2 7548   6.782   4.589   3.422
68551SOL     OW 7549   0.459   6.248  14.077
68551SOL    HW1 7550   0.469   6.343  14.065
68551SOL    HW2 7551   0.504   6.210  14.001
68552SOL     OW 7552   8.827   6.821   9.329
68552SOL    HW1 7553   8.832   6.735   9.288
68552SOL    HW2 7554   8.869   6.880   9.267
68553SOL     OW 7555   6.549  10.091   1.859
68553SOL    HW1 7556   6.492  10.120   1.787
68553SOL    HW2 7557   6.603  10.167   1.879
68554SOL     OW 7558   6.247  12.768   0.769
68554SOL    HW1 7559   6.277  12.837   0.710
68554SOL    HW2 7560   6.161  12.742   0.734
68555SOL     OW 7561   4.377   6.289  11.269
68555SOL    HW1 7562   4.439   6.279  11.197
68555SOL    HW2 7563   4.299   6.241  11.240
68556SOL     OW 7564  14.683  12.619   5.764
68556SOL    HW1 7565  14.661  12.646   5.675
68556SOL    HW2 7566  14.656  12.527   5.770
68557SOL     OW 7567   5.006   5.207   5.595
68557SOL    HW1 7568   5.100   5.193   5.599
68557SOL    HW2 7569   4.996   5.288   5.543
68558SOL     OW 7570  10.770  10.980   9.165
68558SOL    HW1 7571  10.733  10.937   9.088
68558SOL    HW2 7572  10.793  11.068   9.134
68559SOL     OW 7573  12.584   4.410   2.177
68559SOL    HW1 7574  12.520   4.465   2.132
68559SOL    HW2 7575  12.537   4.377   2.253
68560SOL     OW 7576   6.581   0.587  10.490
68560SOL    HW1 7577   6.497   0.615  10.454
68560SOL    HW2 7578   6.638   0.578  10.413
68561SOL     OW 7579  10.798   9.011   9.241
68561SOL    HW1 7580  10.739   9.070   9.195
68561SOL    HW2 7581  10.792   8.929   9.192
68562SOL     OW 7582   3.811   6.348   2.799
68562SOL    HW1 7583   3.858   6.419   2.841
68562SOL    HW2 7584   3.826   6.360   2.705
68563SOL     OW 7585   5.044  13.279   4.055
68563SOL    HW1 7586   5.044  13.361   4.104
68563SOL    HW2 7587   5.119  13.231   4.089
68564SOL     OW 7588   6.239   3.669   3.352
68564SOL    HW1 7589   6.281   3.610   3.290
68564SOL    HW2 7590   6.279   3.754   3.335
68565SOL     OW 7591   1.997   7.723   2.197
68565SOL    HW1 7592   2.028   7.680   2.277
68565SOL    HW2 7593   2.077   7.746   2.150
68566SOL     OW 7594   0.144   7.697   1.913
68566SOL    HW1 7595   0.152   7.646   1.833
68566SOL    HW2 7596   0.059   7.672   1.949
68567SOL     OW 7597   8.909   7.452   3.150
68567SOL    HW1 7598   8.932   7.543   3.131
68567SOL    HW2 7599   8.832   7.459   3.206
68568SOL     OW 7600   0.742   2.102  11.021
68568SOL    HW1 7601   0.657   2.084  10.980
68568SOL    HW2 7602   0.805   2.055  10.966
68569SOL     OW 7603   7.479   7.836   3.523
68569SOL    HW1 7604   7.504   7.807   3.611
68569SOL    HW2 7605   7.468   7.931   3.532
68570SOL     OW 7606   6.055   7.873   6.780
68570SOL    HW1 7607   5.965   7.869   6.748
68570SOL    HW2 7608   6.063   7.962   6.817
68571SOL     OW 7609   8.011   6.220  12.318
68571SOL    HW1 7610   7.938   6.213  12.380
68571SOL    HW2 7611   8.002   6.143  12.262
68572SOL     OW 7612   6.494  13.297   3.323
68572SOL    HW1 7613   6.484  13.382   3.280
68572SOL    HW2 7614   6.588  13.288   3.338
68573SOL     OW 7615  13.523  13.962   2.798
68573SOL    HW1 7616  13.451  13.994   2.853
68573SOL    HW2 7617  13.501  13.993   2.710
68574SOL     OW 7618   1.710  11.930   2.220
68574SOL    HW1 7619   1.763  11.988   2.274
68574SOL    HW2 7620   1.690  11.981   2.142
68575SOL     OW 7621   8.692  12.507  13.853
68575SOL    HW1 7622   8.710  12.470  13.767
68575SOL    HW2 7623   8.755  12.465  13.911
68576SOL     OW 7624   3.332  13.873   1.400
68576SOL    HW1 7625   3.349  13.925   1.321
68576SOL    HW2 7626   3.411  13.820   1.412
68577SOL     OW 7627   6.919   3.201   2.317
68577SOL    HW1 7628   6.887   3.289   2.337
68577SOL    HW2 7629   6.843   3.144   2.325
68578SOL     OW 7630   4.425   3.888  13.870
68578SOL    HW1 7631   4.431   3.835  13.790
68578SOL    HW2 7632   4.478   3.965  13.852
68579SOL     OW 7633   5.044  11.950  14.350
68579SOL    HW1 7634   4.959  11.956  14.306
68579SOL    HW2 7635   5.053  12.033  14.397
68580SOL     OW 7636   2.833   2.619   9.459
68580SOL    HW1 7637   2.792   2.538   9.490
68580SOL    HW2 7638   2.765   2.663   9.408
68581SOL     OW 7639   8.374   9.050   7.743
68581SOL    HW1 7640   8.396   8.958   7.730
68581SOL    HW2 7641   8.457   9.092   7.764
68582SOL     OW 7642  13.551   3.412   0.727
68582SOL    HW1 7643  13.535   3.337   0.785
68582SOL    HW2 7644  13.464   3.448   0.710
68583SOL     OW 7645   3.411  14.793  10.398
68583SOL    HW1 7646   3.323  14.830  10.402
68583SOL    HW2 7647   3.405  14.711  10.447
68584SOL     OW 7648  10.961  13.583   7.147
68584SOL    HW1 7649  10.989  13.670   7.118
68584SOL    HW2 7650  10.867  13.591   7.158
68585SOL     OW 7651   4.304   3.631   9.780
68585SOL    HW1 7652   4.218   3.644   9.820
68585SOL    HW2 7653   4.362   3.615   9.854
68586SOL     OW 7654  12.486   4.967  11.833
68586SOL    HW1 7655  12.559   4.945  11.774
68586SOL    HW2 7656  12.492   5.062  11.844
68587SOL     OW 7657  14.645   3.254   0.778
68587SOL    HW1 7658  14.556   3.219   0.776
68587SOL    HW2 7659  14.701   3.180   0.752
68588SOL     OW 7660   6.173   0.501   1.985
68588SOL    HW1 7661   6.162   0.592   1.959
68588SOL    HW2 7662   6.214   0.460   1.909
68589SOL     OW 7663   8.648   4.864  14.670
68589SOL    HW1 7664   8.732   4.894  14.636
68589SOL    HW2 7665   8.584   4.926  14.635
68590SOL     OW 7666  10.068   9.129  10.824
68590SOL    HW1 7667   9.975   9.141  10.844
68590SOL    HW2 7668  10.076   9.152  10.732
68591SOL     OW 7669  10.326   2.221   8.533
68591SOL    HW1 7670  10.299   2.312   8.518
68591SOL    HW2 7671  10.358   2.221   8.624
68592SOL     OW 7672  12.867  13.791   2.808
68592SOL    HW1 7673  12.891  13.807   2.899
68592SOL    HW2 7674  12.893  13.871   2.762
68593SOL     OW 7675  12.859   1.174   4.541
68593SOL    HW1 7676  12.769   1.180   4.573
68593SOL    HW2 7677  12.862   1.232   4.465
68594SOL     OW 7678   6.842  10.556  13.419
68594SOL    HW1 7679   6.884  10.471  13.404
68594SOL    HW2 7680   6.756  10.547  13.378
68595SOL     OW 7681   2.272   8.166   0.169
68595SOL    HW1 7682   2.246   8.258   0.159
68595SOL    HW2 7683   2.361   8.163   0.135
68596SOL     OW 7684   7.793   1.713  13.283
68596SOL    HW1 7685   7.706   1.727  13.321
68596SOL    HW2 7686   7.786   1.629  13.238
68597SOL     OW 7687  13.059   5.192   4.526
68597SOL    HW1 7688  13.095   5.261   4.471
68597SOL    HW2 7689  12.982   5.161   4.479
68598SOL     OW 7690   4.318   8.316   9.337
68598SOL    HW1 7691   4.258   8.241   9.337
68598SOL    HW2 7692   4.331   8.336   9.245
68599SOL     OW 7693   2.482  11.658   1.081
68599SOL    HW1 7694   2.543  11.643   1.153
68599SOL    HW2 7695   2.465  11.571   1.045
68600SOL     OW 7696   0.978   5.971   1.227
68600SOL    HW1 7697   0.927   6.005   1.300
68600SOL    HW2 7698   1.034   5.904   1.266
68601SOL     OW 7699   8.253   5.140  13.150
68601SOL    HW1 7700   8.182   5.167  13.092
68601SOL    HW2 7701   8.324   5.116  13.091
68602SOL     OW 7702   8.563  11.250   2.468
68602SOL    HW1 7703   8.647  11.211   2.490
68602SOL    HW2 7704   8.584  11.340   2.443
68603SOL     OW 7705  12.616  14.509   1.612
68603SOL    HW1 7706  12.668  14.471   1.541
68603SOL    HW2 7707  12.601  14.599   1.585
68604SOL     OW 7708   5.366  11.298   0.256
68604SOL    HW1 7709   5.424  11.302   0.180
68604SOL    HW2 7710   5.375  11.383   0.298
68605SOL     OW 7711   4.008   4.065  14.220
68605SOL    HW1 7712   3.978   3.978  14.246
68605SOL    HW2 7713   4.020   4.059  14.125
68606SOL     OW 7714   7.467   2.863   4.823
68606SOL    HW1 7715   7.478   2.925   4.751
68606SOL    HW2 7716   7.374   2.844   4.824
68607SOL     OW 7717   7.493   7.821   1.420
68607SOL    HW1 7718   7.499   7.775   1.504
68607SOL    HW2 7719   7.573   7.873   1.415
68608SOL     OW 7720  14.037   5.360  10.729
68608SOL    HW1 7721  14.014   5.391  10.642
68608SOL    HW2 7722  13.959   5.313  10.759
68609SOL     OW 7723   3.380  12.980  11.208
68609SOL    HW1 7724   3.422  13.031  11.278
68609SOL    HW2 7725   3.434  12.902  11.199
68610SOL     OW 7726   6.437  14.679  12.422
68610SOL    HW1 7727   6.443  14.600  12.476
68610SOL    HW2 7728   6.477  14.654  12.338
68611SOL     OW 7729  13.109   4.860   2.591
68611SOL    HW1 7730  13.143   4.771   2.580
68611SOL    HW2 7731  13.018   4.848   2.619
68612SOL     OW 7732   3.224  12.747  10.959
68612SOL    HW1 7733   3.209  12.749  11.054
68612SOL    HW2 7734   3.309  12.703  10.949
68613SOL     OW 7735   3.620   3.919   9.519
68613SOL    HW1 7736   3.571   3.945   9.441
68613SOL    HW2 7737   3.666   3.839   9.493
68614SOL     OW 7738  13.726   3.915  13.954
68614SOL    HW1 7739  13.779   3.837  13.968
68614SOL    HW2 7740  13.677   3.898  13.874
68615SOL     OW 7741   6.837   1.429   5.176
68615SOL    HW1 7742   6.768   1.443   5.110
68615SOL    HW2 7743   6.907   1.487   5.149
68616SOL     OW 7744  10.291   4.541   0.311
68616SOL    HW1 7745  10.272   4.458   0.354
68616SOL    HW2 7746  10.213   4.595   0.328
68617SOL     OW 7747   1.313   7.748  13.358
68617SOL    HW1 7748   1.260   7.707  13.290
68617SOL    HW2 7749   1.335   7.676  13.418
68618SOL     OW 7750   3.532  14.776   9.906
68618SOL    HW1 7751   3.530  14.793  10.000
68618SOL    HW2 7752   3.574  14.691   9.897
68619SOL     OW 7753  12.861   1.662  11.259
68619SOL    HW1 7754  12.924   1.730  11.236
68619SOL    HW2 7755  12.782   1.684  11.210
68620SOL     OW 7756   0.032   4.505  12.871
68620SOL    HW1 7757  14.862   4.513  12.790
68620SOL    HW2 7758   0.106   4.448  12.849
68621SOL     OW 7759   4.652  13.027  14.797
68621SOL    HW1 7760   4.701  12.987  14.869
68621SOL    HW2 7761   4.567  12.983  14.798
68622SOL     OW 7762   9.036   5.186  11.481
68622SOL    HW1 7763   9.118   5.223  11.514
68622SOL    HW2 7764   8.974   5.258  11.484
68623SOL     OW 7765   8.162   9.788   9.402
68623SOL    HW1 7766   8.126   9.867   9.443
68623SOL    HW2 7767   8.086   9.730   9.392
68624SOL     OW 7768  13.236   2.516   0.588
68624SOL    HW1 7769  13.279   2.449   0.641
68624SOL    HW2 7770  13.145   2.514   0.617
68625SOL     OW 7771   4.568   0.184   0.545
68625SOL    HW1 7772   4.602   0.188   0.634
68625SOL    HW2 7773   4.498   0.119   0.548
68626SOL     OW 7774   1.076  10.625   1.936
68626SOL    HW1 7775   0.999  10.663   1.895
68626SOL    HW2 7776   1.094  10.683   2.010
68627SOL     OW 7777   7.202  14.201   3.799
68627SOL    HW1 7778   7.195  14.289   3.762
68627SOL    HW2 7779   7.113  14.180   3.826
68628SOL     OW 7780  10.399  14.238   5.377
68628SOL    HW1 7781  10.450  14.177   5.324
68628SOL    HW2 7782  10.379  14.310   5.318
68629SOL     OW 7783   9.623   0.146   8.097
68629SOL    HW1 7784   9.668   0.068   8.131
68629SOL    HW2 7785   9.543   0.112   8.056
68630SOL     OW 7786  14.838   4.468  10.601
68630SOL    HW1 7787  14.859   4.432  10.688
68630SOL    HW2 7788  14.752   4.508  10.612
68631SOL     OW 7789   6.349   7.221  11.609
68631SOL    HW1 7790   6.280   7.192  11.549
68631SOL    HW2 7791   6.302   7.246  11.688
68632SOL     OW 7792  12.577   8.907   5.700
68632SOL    HW1 7793  12.505   8.845   5.703
68632SOL    HW2 7794  12.582   8.935   5.609
68633SOL     OW 7795  11.063   6.348  13.278
68633SOL    HW1 7796  11.093   6.361  13.368
68633SOL    HW2 7797  11.016   6.264  13.280
68634SOL     OW 7798   7.907  10.812  11.389
68634SOL    HW1 7799   7.822  10.841  11.422
68634SOL    HW2 7800   7.892  10.791  11.297
68635SOL     OW 7801   6.175   9.112  10.971
68635SOL    HW1 7802   6.138   9.190  11.013
68635SOL    HW2 7803   6.102   9.075  10.921
68636SOL     OW 7804   0.039   7.270   1.548
68636SOL    HW1 7805   0.064   7.361   1.534
68636SOL    HW2 7806   0.084   7.222   1.478
68637SOL     OW 7807   9.840   3.968   6.599
68637SOL    HW1 7808   9.898   4.043   6.594
68637SOL    HW2 7809   9.883   3.900   6.547
68638SOL     OW 7810   7.530  14.798   4.749
68638SOL    HW1 7811   7.538   0.009   4.719
68638SOL    HW2 7812   7.522  14.747   4.668
68639SOL     OW 7813   7.648  12.595  14.613
68639SOL    HW1 7814   7.690  12.653  14.676
68639SOL    HW2 7815   7.583  12.650  14.569
68640SOL     OW 7816  10.309  11.413   8.072
68640SOL    HW1 7817  10.273  11.502   8.062
68640SOL    HW2 7818  10.240  11.356   8.038
68641SOL     OW 7819   5.080   4.206   3.602
68641SOL    HW1 7820   5.116   4.118   3.612
68641SOL    HW2 7821   5.157   4.263   3.599
68642SOL     OW 7822   0.984   0.848   9.305
68642SOL    HW1 7823   0.934   0.927   9.285
68642SOL    HW2 7824   1.075   0.875   9.304
68643SOL     OW 7825   9.175  12.570   1.745
68643SOL    HW1 7826   9.233  12.617   1.805
68643SOL    HW2 7827   9.231  12.543   1.673
68644SOL     OW 7828  11.648  14.115  14.469
68644SOL    HW1 7829  11.629  14.198  14.512
68644SOL    HW2 7830  11.669  14.055  14.540
68645SOL     OW 7831   4.596   9.983  11.786
68645SOL    HW1 7832   4.583  10.078  11.783
68645SOL    HW2 7833   4.579   9.954  11.696
68646SOL     OW 7834   1.336   6.455  12.094
68646SOL    HW1 7835   1.288   6.400  12.157
68646SOL    HW2 7836   1.272   6.518  12.063
68647SOL     OW 7837   7.911   8.856   4.570
68647SOL    HW1 7838   7.920   8.761   4.567
68647SOL    HW2 7839   7.944   8.881   4.656
68648SOL     OW 7840   2.127   3.068   7.308
68648SOL    HW1 7841   2.137   3.113   7.225
68648SOL    HW2 7842   2.187   3.115   7.367
68649SOL     OW 7843   1.840   0.771  14.734
68649SOL    HW1 7844   1.872   0.710  14.801
68649SOL    HW2 7845   1.863   0.857  14.768
68650SOL     OW 7846  14.801  12.660  10.921
68650SOL    HW1 7847  14.832  12.640  11.009
68650SOL    HW2 7848  14.811  12.577  10.873
68651SOL     OW 7849   7.320   6.264   0.546
68651SOL    HW1 7850   7.254   6.199   0.522
68651SOL    HW2 7851   7.272   6.346   0.551
68652SOL     OW 7852   1.840  10.764   9.188
68652SOL    HW1 7853   1.880  10.709   9.256
68652SOL    HW2 7854   1.911  10.780   9.125
68653SOL     OW 7855   1.729   5.706   6.628
68653SOL    HW1 7856   1.773   5.679   6.548
68653SOL    HW2 7857   1.690   5.790   6.606
68654SOL     OW 7858   7.603   0.538   8.178
68654SOL    HW1 7859   7.669   0.590   8.131
68654SOL    HW2 7860   7.648   0.509   8.258
68655SOL     OW 7861   7.412   5.770   7.928
68655SOL    HW1 7862   7.483   5.807   7.875
68655SOL    HW2 7863   7.368   5.708   7.869
68656SOL     OW 7864  12.792   4.603  11.057
68656SOL    HW1 7865  12.776   4.641  10.970
68656SOL    HW2 7866  12.879   4.636  11.082
68657SOL     OW 7867   6.137   8.561   5.361
68657SOL    HW1 7868   6.207   8.575   5.426
68657SOL    HW2 7869   6.178   8.582   5.277
68658SOL     OW 7870   7.578   5.397   2.839
68658SOL    HW1 7871   7.630   5.397   2.759
68658SOL    HW2 7872   7.596   5.481   2.880
68659SOL     OW 7873   0.532   7.331  12.277
68659SOL    HW1 7874   0.460   7.343  12.216
68659SOL    HW2 7875   0.490   7.325  12.363
68660SOL     OW 7876   9.796   7.023   2.372
68660SOL    HW1 7877   9.859   7.048   2.304
68660SOL    HW2 7878   9.710   7.038   2.332
68661SOL     OW 7879  10.692   8.727   8.384
68661SOL    HW1 7880  10.710   8.664   8.313
68661SOL    HW2 7881  10.675   8.672   8.460
68662SOL     OW 7882   4.110   1.017   7.011
68662SOL    HW1 7883   4.040   1.037   7.072
68662SOL    HW2 7884   4.066   0.978   6.935
68663SOL     OW 7885  10.607   0.223   3.454
68663SOL    HW1 7886  10.582   0.307   3.493
68663SOL    HW2 7887  10.524   0.177   3.441
68664SOL     OW 7888   7.953   5.259   0.964
68664SOL    HW1 7889   7.922   5.210   0.887
68664SOL    HW2 7890   8.020   5.317   0.929
68665SOL     OW 7891  13.462  14.220  13.485
68665SOL    HW1 7892  13.541  14.179  13.451
68665SOL    HW2 7893  13.456  14.303  13.438
68666SOL     OW 7894   0.680   4.934  10.737
68666SOL    HW1 7895   0.771   4.956  10.720
68666SOL    HW2 7896   0.633   5.016  10.727
68667SOL     OW 7897   4.246  14.170   1.596
68667SOL    HW1 7898   4.236  14.081   1.628
68667SOL    HW2 7899   4.272  14.221   1.674
68668SOL     OW 7900  11.068   3.783   4.238
68668SOL    HW1 7901  11.066   3.874   4.269
68668SOL    HW2 7902  11.074   3.730   4.317
68669SOL     OW 7903  11.655   7.577  13.004
68669SOL    HW1 7904  11.605   7.624  13.071
68669SOL    HW2 7905  11.746   7.602  13.020
68670SOL     OW 7906  12.378  10.207   3.303
68670SOL    HW1 7907  12.325  10.226   3.225
68670SOL    HW2 7908  12.443  10.278   3.305
68671SOL     OW 7909   4.480  12.821   2.706
68671SOL    HW1 7910   4.430  12.776   2.774
68671SOL    HW2 7911   4.425  12.816   2.628
68672SOL     OW 7912   1.827  13.562   9.686
68672SOL    HW1 7913   1.789  13.605   9.610
68672SOL    HW2 7914   1.760  13.500   9.716
68673SOL     OW 7915   5.801   4.666   4.135
68673SOL    HW1 7916   5.889   4.699   4.118
68673SOL    HW2 7917   5.750   4.744   4.155
68674SOL     OW 7918  11.595   7.749   8.069
68674SOL    HW1 7919  11.523   7.774   8.126
68674SOL    HW2 7920  11.637   7.831   8.045
68675SOL     OW 7921   6.353   9.431   1.154
68675SOL    HW1 7922   6.316   9.350   1.187
68675SOL    HW2 7923   6.403   9.467   1.228
68676SOL     OW 7924  11.688   8.249   0.044
68676SOL    HW1 7925  11.706   8.273  14.832
68676SOL    HW2 7926  11.709   8.156   0.048
68677SOL     OW 7927   1.433   9.090  12.265
68677SOL    HW1 7928   1.440   9.156  12.197
68677SOL    HW2 7929   1.392   9.135  12.339
68678SOL     OW 7930   1.865   5.561  11.333
68678SOL    HW1 7931   1.900   5.472  11.334
68678SOL    HW2 7932   1.881   5.594  11.422
68679SOL     OW 7933   9.923   5.344  14.772
68679SOL    HW1 7934   9.911   5.296  14.690
68679SOL    HW2 7935   9.835   5.374  14.794
68680SOL     OW 7936   2.012   0.515   0.043
68680SOL    HW1 7937   1.920   0.540   0.051
68680SOL    HW2 7938   2.010   0.424   0.014
68681SOL     OW 7939   4.604  13.314   9.736
68681SOL    HW1 7940   4.570  13.387   9.788
68681SOL    HW2 7941   4.584  13.236   9.787
68682SOL     OW 7942  10.272   3.893   4.559
68682SOL    HW1 7943  10.356   3.930   4.583
68682SOL    HW2 7944  10.279   3.876   4.465
68683SOL     OW 7945  11.945   6.717   0.721
68683SOL    HW1 7946  11.870   6.775   0.740
68683SOL    HW2 7947  11.942   6.704   0.627
68684SOL     OW 7948  11.621  12.382  10.111
68684SOL    HW1 7949  11.642  12.333  10.191
68684SOL    HW2 7950  11.682  12.347  10.045
68685SOL     OW 7951   0.150  13.916   8.307
68685SOL    HW1 7952   0.186  14.003   8.291
68685SOL    HW2 7953   0.226  13.858   8.310
68686SOL     OW 7954  11.031  11.585   0.377
68686SOL    HW1 7955  10.955  11.621   0.332
68686SOL    HW2 7956  11.069  11.658   0.425
68687SOL     OW 7957   9.157   6.480   7.148
68687SOL    HW1 7958   9.126   6.448   7.232
68687SOL    HW2 7959   9.088   6.459   7.086
68688SOL     OW 7960  10.198   2.917   9.813
68688SOL    HW1 7961  10.259   2.954   9.877
68688SOL    HW2 7962  10.210   2.823   9.821
68689SOL     OW 7963   4.928   2.720  10.525
68689SOL    HW1 7964   5.004   2.675  10.562
68689SOL    HW2 7965   4.852   2.677  10.565
68690SOL     OW 7966   8.476   5.510  12.889
68690SOL    HW1 7967   8.411   5.496  12.958
68690SOL    HW2 7968   8.560   5.508  12.935
68691SOL     OW 7969  11.423   3.398   5.340
68691SOL    HW1 7970  11.436   3.340   5.415
68691SOL    HW2 7971  11.478   3.362   5.271
68692SOL     OW 7972   7.394  10.486   8.781
68692SOL    HW1 7973   7.406  10.442   8.697
68692SOL    HW2 7974   7.402  10.417   8.847
68693SOL     OW 7975   0.147   5.739  11.254
68693SOL    HW1 7976   0.217   5.804  11.260
68693SOL    HW2 7977   0.072   5.782  11.296
68694SOL     OW 7978  11.854  12.810   6.290
68694SOL    HW1 7979  11.898  12.732   6.326
68694SOL    HW2 7980  11.913  12.841   6.222
68695SOL     OW 7981   8.965   0.976   7.621
68695SOL    HW1 7982   8.884   0.964   7.672
68695SOL    HW2 7983   8.939   1.031   7.548
68696SOL     OW 7984   9.132  10.289   1.561
68696SOL    HW1 7985   9.204  10.249   1.609
68696SOL    HW2 7986   9.143  10.383   1.575
68697SOL     OW 7987   3.740   9.367   6.697
68697SOL    HW1 7988   3.804   9.439   6.700
68697SOL    HW2 7989   3.722   9.355   6.604
68698SOL     OW 7990   4.182   2.606   9.402
68698SOL    HW1 7991   4.095   2.600   9.362
68698SOL    HW2 7992   4.189   2.696   9.433
68699SOL     OW 7993   2.128   5.430  10.903
68699SOL    HW1 7994   2.064   5.403  10.837
68699SOL    HW2 7995   2.117   5.524  10.910
68700SOL     OW 7996   6.753   4.571   2.621
68700SOL    HW1 7997   6.731   4.637   2.554
68700SOL    HW2 7998   6.680   4.574   2.682
68701SOL     OW 7999  10.214  10.209   5.575
68701SOL    HW1 8000  10.125  10.238   5.595
68701SOL    HW2 8001  10.212  10.187   5.482
68702SOL     OW 8002   6.215  12.686   9.164
68702SOL    HW1 8003   6.161  12.700   9.242
68702SOL    HW2 8004   6.220  12.591   9.155
68703SOL     OW 8005   8.142   7.250  10.400
68703SOL    HW1 8006   8.155   7.321  10.337
68703SOL    HW2 8007   8.224   7.245  10.449
68704SOL     OW 8008   5.688  12.248   8.861
68704SOL    HW1 8009   5.701  12.155   8.879
68704SOL    HW2 8010   5.693  12.290   8.947
68705SOL     OW 8011   3.126   5.158   4.628
68705SOL    HW1 8012   3.095   5.188   4.542
68705SOL    HW2 8013   3.193   5.092   4.608
68706SOL     OW 8014   9.358   1.192  12.403
68706SOL    HW1 8015   9.407   1.140  12.338
68706SOL    HW2 8016   9.408   1.273  12.412
68707SOL     OW 8017   2.885   7.416   6.236
68707SOL    HW1 8018   2.790   7.427   6.242
68707SOL    HW2 8019   2.920   7.504   6.249
68708SOL     OW 8020   8.887  11.421   9.137
68708SOL    HW1 8021   8.959  11.358   9.136
68708SOL    HW2 8022   8.868  11.436   9.044
68709SOL     OW 8023  11.393   9.364  14.542
68709SOL    HW1 8024  11.433   9.433  14.489
68709SOL    HW2 8025  11.320   9.408  14.587
68710SOL     OW 8026   8.313   4.492   9.755
68710SOL    HW1 8027   8.240   4.443   9.717
68710SOL    HW2 8028   8.286   4.584   9.750
68711SOL     OW 8029  12.515  14.491   2.867
68711SOL    HW1 8030  12.527  14.573   2.819
68711SOL    HW2 8031  12.421  14.477   2.868
68712SOL     OW 8032   3.033   1.128   8.869
68712SOL    HW1 8033   3.117   1.082   8.878
68712SOL    HW2 8034   2.970   1.072   8.914
68713SOL     OW 8035   3.741   2.291   6.512
68713SOL    HW1 8036   3.830   2.324   6.507
68713SOL    HW2 8037   3.747   2.215   6.570
68714SOL     OW 8038  10.580  14.289   2.353
68714SOL    HW1 8039  10.660  14.238   2.357
68714SOL    HW2 8040  10.553  14.299   2.445
68715SOL     OW 8041   7.050   1.779   1.448
68715SOL    HW1 8042   7.052   1.855   1.507
68715SOL    HW2 8043   6.972   1.731   1.473
68716SOL     OW 8044  10.743   7.887   1.324
68716SOL    HW1 8045  10.763   7.892   1.231
68716SOL    HW2 8046  10.827   7.869   1.366
68717SOL     OW 8047   3.831   8.561   8.882
68717SOL    HW1 8048   3.911   8.598   8.921
68717SOL    HW2 8049   3.765   8.568   8.951
68718SOL     OW 8050  13.194   8.755  13.379
68718SOL    HW1 8051  13.106   8.761  13.417
68718SOL    HW2 8052  13.180   8.750  13.285
68719SOL     OW 8053  13.055   1.280  10.424
68719SOL    HW1 8054  13.052   1.329  10.342
68719SOL    HW2 8055  13.064   1.188  10.397
68720SOL     OW 8056   2.430  11.466   9.554
68720SOL    HW1 8057   2.471  11.542   9.511
68720SOL    HW2 8058   2.476  11.391   9.516
68721SOL     OW 8059   4.090   3.113   3.498
68721SOL    HW1 8060   4.069   3.179   3.431
68721SOL    HW2 8061   4.185   3.103   3.491
68722SOL     OW 8062   4.195  10.696   5.383
68722SOL    HW1 8063   4.210  10.790   5.395
68722SOL    HW2 8064   4.279  10.662   5.354
68723SOL     OW 8065   5.302   9.289  14.385
68723SOL    HW1 8066   5.390   9.267  14.417
68723SOL    HW2 8067   5.269   9.352  14.448
68724SOL     OW 8068   8.278   6.274  13.343
68724SOL    HW1 8069   8.324   6.328  13.279
68724SOL    HW2 8070   8.300   6.184  13.320
68725SOL     OW 8071  14.785   2.582   0.675
68725SOL    HW1 8072  14.752   2.657   0.724
68725SOL    HW2 8073  14.724   2.511   0.696
68726SOL     OW 8074   9.521   5.526   4.786
68726SOL    HW1 8075   9.435   5.552   4.754
68726SOL    HW2 8076   9.505   5.484   4.871
68727SOL     OW 8077   8.093   4.991  12.152
68727SOL    HW1 8078   8.145   4.934  12.095
68727SOL    HW2 8079   8.108   5.079  12.118
68728SOL     OW 8080  12.359   4.672  13.077
68728SOL    HW1 8081  12.347   4.594  13.130
68728SOL    HW2 8082  12.404   4.641  12.998
68729SOL     OW 8083   3.051   3.580   8.166
68729SOL    HW1 8084   2.996   3.631   8.106
68729SOL    HW2 8085   3.033   3.489   8.144
68730SOL     OW 8086   7.764   5.642   7.866
68730SOL    HW1 8087   7.833   5.709   7.867
68730SOL    HW2 8088   7.721   5.653   7.781
68731SOL     OW 8089   3.031   2.190   3.261
68731SOL    HW1 8090   3.117   2.187   3.218
68731SOL    HW2 8091   3.051   2.206   3.353
68732SOL     OW 8092   4.467  13.775   0.962
68732SOL    HW1 8093   4.476  13.814   0.875
68732SOL    HW2 8094   4.556  13.761   0.992
68733SOL     OW 8095   4.344   8.388   1.569
68733SOL    HW1 8096   4.291   8.425   1.640
68733SOL    HW2 8097   4.409   8.456   1.550
68734SOL     OW 8098   0.887  10.205   4.511
68734SOL    HW1 8099   0.978  10.220   4.484
68734SOL    HW2 8100   0.836  10.215   4.430
68735SOL     OW 8101  14.728   9.852   1.936
68735SOL    HW1 8102  14.725   9.867   2.031
68735SOL    HW2 8103  14.710   9.938   1.898
68736SOL     OW 8104  11.576   6.407  12.810
68736SOL    HW1 8105  11.607   6.403  12.720
68736SOL    HW2 8106  11.578   6.316  12.840
68737SOL     OW 8107   0.280   3.746   4.545
68737SOL    HW1 8108   0.186   3.730   4.537
68737SOL    HW2 8109   0.319   3.658   4.543
68738SOL     OW 8110   8.953  11.254   7.088
68738SOL    HW1 8111   9.042  11.247   7.124
68738SOL    HW2 8112   8.902  11.192   7.138
68739SOL     OW 8113  11.715   8.586   4.235
68739SOL    HW1 8114  11.630   8.593   4.190
68739SOL    HW2 8115  11.698   8.525   4.306
68740SOL     OW 8116  10.249  14.386   6.331
68740SOL    HW1 8117  10.271  14.378   6.424
68740SOL    HW2 8118  10.270  14.477   6.309
68741SOL     OW 8119   4.823   0.560   9.714
68741SOL    HW1 8120   4.746   0.529   9.666
68741SOL    HW2 8121   4.894   0.503   9.685
68742SOL     OW 8122   9.543   1.975  13.622
68742SOL    HW1 8123   9.505   1.923  13.693
68742SOL    HW2 8124   9.547   1.916  13.547
68743SOL     OW 8125  10.336  10.668   3.725
68743SOL    HW1 8126  10.274  10.673   3.798
68743SOL    HW2 8127  10.409  10.616   3.759
68744SOL     OW 8128   6.270   1.903   8.729
68744SOL    HW1 8129   6.219   1.983   8.746
68744SOL    HW2 8130   6.342   1.907   8.792
68745SOL     OW 8131  11.145   7.402   8.790
68745SOL    HW1 8132  11.069   7.350   8.817
68745SOL    HW2 8133  11.216   7.371   8.845
68746SOL     OW 8134  10.503   5.503   1.813
68746SOL    HW1 8135  10.589   5.514   1.774
68746SOL    HW2 8136  10.447   5.566   1.767
68747SOL     OW 8137   4.422   9.794  12.356
68747SOL    HW1 8138   4.351   9.730  12.349
68747SOL    HW2 8139   4.495   9.756  12.307
68748SOL     OW 8140   4.950  14.308   5.890
68748SOL    HW1 8141   5.020  14.360   5.849
68748SOL    HW2 8142   4.936  14.350   5.974
68749SOL     OW 8143   5.970  13.276  11.926
68749SOL    HW1 8144   5.928  13.195  11.955
68749SOL    HW2 8145   5.941  13.342  11.988
68750SOL     OW 8146   2.065  10.106   0.575
68750SOL    HW1 8147   1.970  10.095   0.569
68750SOL    HW2 8148   2.097  10.023   0.609
68751SOL     OW 8149  13.879   0.943  10.185
68751SOL    HW1 8150  13.783   0.942  10.195
68751SOL    HW2 8151  13.893   0.932  10.091
68752SOL     OW 8152   3.428  11.422  13.082
68752SOL    HW1 8153   3.421  11.517  13.095
68752SOL    HW2 8154   3.522  11.404  13.089
68753SOL     OW 8155   3.992   3.657   0.066
68753SOL    HW1 8156   4.047   3.617  14.879
68753SOL    HW2 8157   4.032   3.742   0.082
68754SOL     OW 8158  13.049   4.861   6.712
68754SOL    HW1 8159  13.140   4.874   6.683
68754SOL    HW2 8160  13.029   4.938   6.765
68755SOL     OW 8161   2.252   2.168  13.745
68755SOL    HW1 8162   2.175   2.116  13.769
68755SOL    HW2 8163   2.321   2.137  13.804
68756SOL     OW 8164   4.783  10.568   2.314
68756SOL    HW1 8165   4.776  10.547   2.221
68756SOL    HW2 8166   4.875  10.591   2.326
68757SOL     OW 8167   3.387   5.239   1.121
68757SOL    HW1 8168   3.448   5.255   1.192
68757SOL    HW2 8169   3.433   5.177   1.064
68758SOL     OW 8170   2.414   9.180   1.530
68758SOL    HW1 8171   2.494   9.153   1.575
68758SOL    HW2 8172   2.377   9.099   1.496
68759SOL     OW 8173  11.617   5.445   0.093
68759SOL    HW1 8174  11.549   5.490   0.042
68759SOL    HW2 8175  11.570   5.402   0.165
68760SOL     OW 8176  10.737   9.467  14.772
68760SOL    HW1 8177  10.665   9.504  14.720
68760SOL    HW2 8178  10.693   9.408  14.833
68761SOL     OW 8179   3.434  10.822   7.785
68761SOL    HW1 8180   3.478  10.842   7.868
68761SOL    HW2 8181   3.460  10.732   7.766
68762SOL     OW 8182   0.715   2.136   7.256
68762SOL    HW1 8183   0.732   2.213   7.202
68762SOL    HW2 8184   0.627   2.149   7.290
68763SOL     OW 8185   2.433  14.799  14.185
68763SOL    HW1 8186   2.457  14.852  14.261
68763SOL    HW2 8187   2.368  14.738  14.219
68764SOL     OW 8188  14.602   2.203   9.784
68764SOL    HW1 8189  14.629   2.280   9.734
68764SOL    HW2 8190  14.532   2.164   9.731
68765SOL     OW 8191   2.559  13.749   2.794
68765SOL    HW1 8192   2.593  13.819   2.850
68765SOL    HW2 8193   2.589  13.668   2.837
68766SOL     OW 8194  12.693   4.129  10.087
68766SOL    HW1 8195  12.697   4.059  10.023
68766SOL    HW2 8196  12.601   4.133  10.113
68767SOL     OW 8197   9.090   5.266   0.444
68767SOL    HW1 8198   9.136   5.183   0.456
68767SOL    HW2 8199   9.011   5.258   0.497
68768SOL     OW 8200  12.827  10.107   7.253
68768SOL    HW1 8201  12.846  10.015   7.234
68768SOL    HW2 8202  12.738  10.121   7.220
68769SOL     OW 8203  14.764   4.421  13.730
68769SOL    HW1 8204  14.731   4.445  13.817
68769SOL    HW2 8205  14.783   4.505  13.688
68770SOL     OW 8206   9.676   4.207   7.154
68770SOL    HW1 8207   9.626   4.265   7.097
68770SOL    HW2 8208   9.668   4.247   7.241
68771SOL     OW 8209  12.603   5.307   8.547
68771SOL    HW1 8210  12.633   5.263   8.626
68771SOL    HW2 8211  12.629   5.398   8.558
68772SOL     OW 8212  13.968   5.049   9.129
68772SOL    HW1 8213  13.892   5.074   9.077
68772SOL    HW2 8214  13.931   5.025   9.214
68773SOL     OW 8215  12.389   3.060   0.558
68773SOL    HW1 8216  12.311   3.087   0.509
68773SOL    HW2 8217  12.390   2.965   0.551
68774SOL     OW 8218   8.376  12.429  14.150
68774SOL    HW1 8219   8.380  12.390  14.237
68774SOL    HW2 8220   8.439  12.502  14.154
68775SOL     OW 8221   8.795  13.893   0.247
68775SOL    HW1 8222   8.747  13.814   0.271
68775SOL    HW2 8223   8.814  13.936   0.330
68776SOL     OW 8224   0.636   9.014   4.398
68776SOL    HW1 8225   0.576   9.085   4.377
68776SOL    HW2 8226   0.662   9.031   4.488
68777SOL     OW 8227   2.159   3.356  10.456
68777SOL    HW1 8228   2.214   3.431  10.431
68777SOL    HW2 8229   2.091   3.394  10.511
68778SOL     OW 8230   1.463   1.862   5.623
68778SOL    HW1 8231   1.371   1.872   5.601
68778SOL    HW2 8232   1.465   1.862   5.719
68779SOL     OW 8233   2.214   8.353   2.839
68779SOL    HW1 8234   2.164   8.273   2.854
68779SOL    HW2 8235   2.183   8.414   2.906
68780SOL     OW 8236   2.514   8.076  10.479
68780SOL    HW1 8237   2.550   8.157  10.515
68780SOL    HW2 8238   2.563   8.006  10.523
68781SOL     OW 8239   8.316   3.902   0.879
68781SOL    HW1 8240   8.339   3.811   0.894
68781SOL    HW2 8241   8.268   3.901   0.796
68782SOL     OW 8242  14.159  14.650  10.390
68782SOL    HW1 8243  14.076  14.666  10.344
68782SOL    HW2 8244  14.226  14.670  10.325
68783SOL     OW 8245  14.768  12.734  11.519
68783SOL    HW1 8246  14.748  12.673  11.448
68783SOL    HW2 8247  14.687  12.739  11.569
68784SOL     OW 8248   7.452   6.835   4.264
68784SOL    HW1 8249   7.507   6.906   4.232
68784SOL    HW2 8250   7.369   6.876   4.287
68785SOL     OW 8251   2.624   1.679  14.478
68785SOL    HW1 8252   2.579   1.597  14.457
68785SOL    HW2 8253   2.655   1.667  14.567
68786SOL     OW 8254   4.104   7.145   7.754
68786SOL    HW1 8255   4.087   7.063   7.708
68786SOL    HW2 8256   4.021   7.165   7.798
68787SOL     OW 8257   9.640  12.224  11.246
68787SOL    HW1 8258   9.666  12.142  11.204
68787SOL    HW2 8259   9.628  12.286  11.173
68788SOL     OW 8260   1.722   3.712   8.965
68788SOL    HW1 8261   1.774   3.671   8.896
68788SOL    HW2 8262   1.757   3.677   9.046
68789SOL     OW 8263   5.644   1.274   8.666
68789SOL    HW1 8264   5.677   1.187   8.690
68789SOL    HW2 8265   5.565   1.256   8.615
68790SOL     OW 8266   1.834  13.768   3.904
68790SOL    HW1 8267   1.756  13.758   3.958
68790SOL    HW2 8268   1.904  13.788   3.965
68791SOL     OW 8269  12.299  14.415  10.113
68791SOL    HW1 8270  12.244  14.340  10.091
68791SOL    HW2 8271  12.386  14.377  10.128
68792SOL     OW 8272   2.789  11.108  10.474
68792SOL    HW1 8273   2.865  11.139  10.425
68792SOL    HW2 8274   2.824  11.042  10.535
68793SOL     OW 8275  13.074   6.917  11.473
68793SOL    HW1 8276  13.067   6.904  11.378
68793SOL    HW2 8277  13.001   6.975  11.494
68794SOL     OW 8278   8.140  13.253   2.096
68794SOL    HW1 8279   8.090  13.330   2.123
68794SOL    HW2 8280   8.088  13.213   2.026
68795SOL     OW 8281   0.207  12.042   1.024
68795SOL    HW1 8282   0.142  12.112   1.034
68795SOL    HW2 8283   0.275  12.081   0.969
68796SOL     OW 8284   1.183   6.286   3.752
68796SOL    HW1 8285   1.199   6.376   3.782
68796SOL    HW2 8286   1.247   6.273   3.683
68797SOL     OW 8287   0.928   1.609   4.591
68797SOL    HW1 8288   0.884   1.665   4.527
68797SOL    HW2 8289   0.911   1.651   4.675
68798SOL     OW 8290   2.895  10.628   1.548
68798SOL    HW1 8291   2.834  10.565   1.509
68798SOL    HW2 8292   2.961  10.573   1.590
68799SOL     OW 8293   3.874   7.589   5.714
68799SOL    HW1 8294   3.792   7.548   5.686
68799SOL    HW2 8295   3.939   7.519   5.706
68800SOL     OW 8296   8.528  11.927  12.469
68800SOL    HW1 8297   8.605  11.972  12.504
68800SOL    HW2 8298   8.527  11.949  12.376
68801SOL     OW 8299  11.816  13.478   2.718
68801SOL    HW1 8300  11.726  13.500   2.743
68801SOL    HW2 8301  11.812  13.385   2.695
68802SOL     OW 8302   2.666  11.742   2.491
68802SOL    HW1 8303   2.701  11.714   2.407
68802SOL    HW2 8304   2.664  11.838   2.486
68803SOL     OW 8305   7.829  11.086  12.173
68803SOL    HW1 8306   7.747  11.040  12.193
68803SOL    HW2 8307   7.802  11.173  12.145
68804SOL     OW 8308   5.031   6.314  12.509
68804SOL    HW1 8309   5.031   6.346  12.599
68804SOL    HW2 8310   5.092   6.372  12.463
68805SOL     OW 8311   2.667  12.689  13.213
68805SOL    HW1 8312   2.739  12.692  13.150
68805SOL    HW2 8313   2.680  12.608  13.261
68806SOL     OW 8314   9.623   4.631  13.943
68806SOL    HW1 8315   9.657   4.547  13.914
68806SOL    HW2 8316   9.698   4.674  13.984
68807SOL     OW 8317  12.809   3.070   9.006
68807SOL    HW1 8318  12.729   3.018   9.002
68807SOL    HW2 8319  12.779   3.160   9.012
68808SOL     OW 8320   6.309   3.353  11.664
68808SOL    HW1 8321   6.362   3.350  11.744
68808SOL    HW2 8322   6.310   3.263  11.631
68809SOL     OW 8323  10.761   0.417   4.179
68809SOL    HW1 8324  10.764   0.379   4.266
68809SOL    HW2 8325  10.774   0.343   4.119
68810SOL     OW 8326  10.827  13.279   4.015
68810SOL    HW1 8327  10.757  13.276   3.950
68810SOL    HW2 8328  10.831  13.191   4.050
68811SOL     OW 8329   3.728   1.585   0.238
68811SOL    HW1 8330   3.768   1.504   0.206
68811SOL    HW2 8331   3.734   1.646   0.165
68812SOL     OW 8332  10.984  11.509  12.422
68812SOL    HW1 8333  10.915  11.450  12.390
68812SOL    HW2 8334  10.949  11.544  12.504
68813SOL     OW 8335  10.786  12.394   7.061
68813SOL    HW1 8336  10.723  12.447   7.012
68813SOL    HW2 8337  10.865  12.396   7.008
68814SOL     OW 8338   0.557   1.627   0.770
68814SOL    HW1 8339   0.478   1.681   0.771
68814SOL    HW2 8340   0.620   1.677   0.718
68815SOL     OW 8341  10.175   7.478  11.789
68815SOL    HW1 8342  10.202   7.431  11.709
68815SOL    HW2 8343  10.095   7.432  11.817
68816SOL     OW 8344   7.100   3.964  10.053
68816SOL    HW1 8345   7.004   3.964  10.058
68816SOL    HW2 8346   7.125   3.878  10.086
68817SOL     OW 8347  13.603   8.586   2.798
68817SOL    HW1 8348  13.603   8.511   2.739
68817SOL    HW2 8349  13.541   8.648   2.759
68818SOL     OW 8350   9.501   6.769  11.694
68818SOL    HW1 8351   9.413   6.732  11.689
68818SOL    HW2 8352   9.494   6.838  11.759
68819SOL     OW 8353   2.143  10.004   4.148
68819SOL    HW1 8354   2.221  10.028   4.199
68819SOL    HW2 8355   2.146  10.061   4.072
68820SOL     OW 8356  13.131   1.880   1.019
68820SOL    HW1 8357  13.074   1.895   0.943
68820SOL    HW2 8358  13.211   1.927   0.998
68821SOL     OW 8359  11.289  13.715   7.259
68821SOL    HW1 8360  11.212  13.771   7.249
68821SOL    HW2 8361  11.296  13.668   7.175
68822SOL     OW 8362   0.849  10.544  12.764
68822SOL    HW1 8363   0.806  10.483  12.704
68822SOL    HW2 8364   0.941  10.539  12.741
68823SOL     OW 8365  11.781   8.793   4.600
68823SOL    HW1 8366  11.744   8.713   4.639
68823SOL    HW2 8367  11.841   8.761   4.533
68824SOL     OW 8368   9.443  14.488   6.207
68824SOL    HW1 8369   9.425  14.532   6.124
68824SOL    HW2 8370   9.429  14.395   6.188
68825SOL     OW 8371   2.859  10.934   8.580
68825SOL    HW1 8372   2.868  10.961   8.489
68825SOL    HW2 8373   2.948  10.912   8.607
68826SOL     OW 8374   3.388   8.648  11.826
68826SOL    HW1 8375   3.395   8.632  11.920
68826SOL    HW2 8376   3.476   8.630  11.792
68827SOL     OW 8377   7.913  13.130   7.425
68827SOL    HW1 8378   7.952  13.208   7.386
68827SOL    HW2 8379   7.976  13.060   7.407
68828SOL     OW 8380   1.733  13.072   9.322
68828SOL    HW1 8381   1.745  13.136   9.252
68828SOL    HW2 8382   1.762  13.117   9.401
68829SOL     OW 8383   9.538   1.278   2.265
68829SOL    HW1 8384   9.480   1.287   2.341
68829SOL    HW2 8385   9.626   1.284   2.302
68830SOL     OW 8386   0.494   2.251  11.028
68830SOL    HW1 8387   0.431   2.192  11.070
68830SOL    HW2 8388   0.511   2.319  11.094
68831SOL     OW 8389   2.178   5.667   0.594
68831SOL    HW1 8390   2.266   5.703   0.580
68831SOL    HW2 8391   2.193   5.586   0.642
68832SOL     OW 8392  13.564  11.872  13.828
68832SOL    HW1 8393  13.597  11.926  13.899
68832SOL    HW2 8394  13.530  11.794  13.871
68833SOL     OW 8395   2.397   2.046   4.975
68833SOL    HW1 8396   2.418   2.046   5.068
68833SOL    HW2 8397   2.482   2.040   4.931
68834SOL     OW 8398   6.284   5.979   3.698
68834SOL    HW1 8399   6.289   6.040   3.625
68834SOL    HW2 8400   6.374   5.972   3.730
68835SOL     OW 8401   6.755   9.905   5.300
68835SOL    HW1 8402   6.723   9.861   5.378
68835SOL    HW2 8403   6.679   9.952   5.266
68836SOL     OW 8404  12.903   0.431   0.004
68836SOL    HW1 8405  12.870   0.414  14.796
68836SOL    HW2 8406  12.977   0.490  14.870
68837SOL     OW 8407   8.957   1.443   6.470
68837SOL    HW1 8408   8.998   1.441   6.384
68837SOL    HW2 8409   8.982   1.527   6.508
68838SOL     OW 8410   8.697   7.379   5.055
68838SOL    HW1 8411   8.677   7.289   5.081
68838SOL    HW2 8412   8.684   7.381   4.961
68839SOL     OW 8413  11.175   1.113  13.856
68839SOL    HW1 8414  11.095   1.095  13.907
68839SOL    HW2 8415  11.143   1.147  13.773
68840SOL     OW 8416   8.522   2.983   2.639
68840SOL    HW1 8417   8.566   3.023   2.564
68840SOL    HW2 8418   8.504   2.893   2.612
68841SOL     OW 8419   0.976   2.786  12.991
68841SOL    HW1 8420   1.004   2.764  12.902
68841SOL    HW2 8421   0.881   2.771  12.990
68842SOL     OW 8422  13.362   1.149   8.516
68842SOL    HW1 8423  13.386   1.123   8.427
68842SOL    HW2 8424  13.445   1.157   8.562
68843SOL     OW 8425  12.109   5.590   7.174
68843SOL    HW1 8426  12.062   5.507   7.163
68843SOL    HW2 8427  12.163   5.598   7.095
68844SOL     OW 8428   4.022  12.362   4.347
68844SOL    HW1 8429   4.113  12.345   4.325
68844SOL    HW2 8430   4.001  12.296   4.413
68845SOL     OW 8431   2.596   6.860  10.003
68845SOL    HW1 8432   2.521   6.826  10.051
68845SOL    HW2 8433   2.664   6.872  10.070
68846SOL     OW 8434   1.271   7.787   9.748
68846SOL    HW1 8435   1.349   7.807   9.800
68846SOL    HW2 8436   1.270   7.854   9.679
68847SOL     OW 8437   1.459   5.151  11.110
68847SOL    HW1 8438   1.490   5.104  11.187
68847SOL    HW2 8439   1.402   5.220  11.144
68848SOL     OW 8440   0.435   8.870  12.906
68848SOL    HW1 8441   0.458   8.953  12.866
68848SOL    HW2 8442   0.488   8.805  12.860
68849SOL     OW 8443   4.980   0.031   9.039
68849SOL    HW1 8444   4.886   0.046   9.052
68849SOL    HW2 8445   5.019   0.118   9.040
68850SOL     OW 8446  10.699  12.298   1.725
68850SOL    HW1 8447  10.661  12.246   1.654
68850SOL    HW2 8448  10.626  12.313   1.785
68851SOL     OW 8449   6.894   7.131  14.564
68851SOL    HW1 8450   6.826   7.199  14.562
68851SOL    HW2 8451   6.931   7.138  14.652
68852SOL     OW 8452  10.685  14.126   5.896
68852SOL    HW1 8453  10.593  14.124   5.871
68852SOL    HW2 8454  10.711  14.033   5.898
68853SOL     OW 8455   3.988  14.279  13.599
68853SOL    HW1 8456   3.967  14.360  13.646
68853SOL    HW2 8457   3.959  14.295  13.510
68854SOL     OW 8458  13.367   0.884   8.344
68854SOL    HW1 8459  13.455   0.899   8.378
68854SOL    HW2 8460  13.328   0.821   8.404
68855SOL     OW 8461  13.826  12.887  12.980
68855SOL    HW1 8462  13.864  12.817  12.928
68855SOL    HW2 8463  13.833  12.965  12.925
68856SOL     OW 8464   0.165  13.280  11.616
68856SOL    HW1 8465   0.069  13.282  11.615
68856SOL    HW2 8466   0.190  13.369  11.641
68857SOL     OW 8467   8.746   3.452  12.674
68857SOL    HW1 8468   8.774   3.364  12.651
68857SOL    HW2 8469   8.659   3.461  12.636
68858SOL     OW 8470   2.128   3.603   1.706
68858SOL    HW1 8471   2.149   3.518   1.667
68858SOL    HW2 8472   2.111   3.584   1.798
68859SOL     OW 8473   7.260   6.578   6.809
68859SOL    HW1 8474   7.238   6.578   6.716
68859SOL    HW2 8475   7.344   6.533   6.813
68860SOL     OW 8476  13.548   4.051   8.249
68860SOL    HW1 8477  13.641   4.036   8.231
68860SOL    HW2 8478  13.535   4.144   8.234
68861SOL     OW 8479   5.561   4.309   4.928
68861SOL    HW1 8480   5.633   4.347   4.979
68861SOL    HW2 8481   5.604   4.259   4.859
68862SOL     OW 8482  14.064   2.755   8.130
68862SOL    HW1 8483  14.118   2.677   8.135
68862SOL    HW2 8484  14.004   2.739   8.057
68863SOL     OW 8485   8.637  10.248  12.578
68863SOL    HW1 8486   8.673  10.291  12.501
68863SOL    HW2 8487   8.565  10.194  12.544
68864SOL     OW 8488   5.260   7.931   0.659
68864SOL    HW1 8489   5.188   7.984   0.625
68864SOL    HW2 8490   5.334   7.991   0.666
68865SOL     OW 8491   3.240   2.841  11.508
68865SOL    HW1 8492   3.212   2.883  11.427
68865SOL    HW2 8493   3.162   2.843  11.565
68866SOL     OW 8494  12.478  13.813   0.685
68866SOL    HW1 8495  12.574  13.811   0.682
68866SOL    HW2 8496  12.458  13.903   0.711
68867SOL     OW 8497   2.218  12.441   7.496
68867SOL    HW1 8498   2.208  12.493   7.576
68867SOL    HW2 8499   2.219  12.350   7.527
68868SOL     OW 8500  10.002  11.982   7.508
68868SOL    HW1 8501  10.029  12.049   7.570
68868SOL    HW2 8502   9.920  12.014   7.470
68869SOL     OW 8503   0.011   3.634  14.705
68869SOL    HW1 8504   0.012   3.695  14.631
68869SOL    HW2 8505   0.050   3.682  14.777
68870SOL     OW 8506  10.616   1.735  11.114
68870SOL    HW1 8507  10.632   1.731  11.208
68870SOL    HW2 8508  10.522   1.718  11.105
68871SOL     OW 8509   5.903   1.263   7.698
68871SOL    HW1 8510   5.912   1.326   7.770
68871SOL    HW2 8511   5.818   1.282   7.660
68872SOL     OW 8512   9.246   2.302   6.547
68872SOL    HW1 8513   9.251   2.385   6.499
68872SOL    HW2 8514   9.173   2.256   6.507
68873SOL     OW 8515  11.397  12.030   2.362
68873SOL    HW1 8516  11.322  12.072   2.404
68873SOL    HW2 8517  11.359  11.964   2.304
68874SOL     OW 8518   2.503   1.070   8.505
68874SOL    HW1 8519   2.520   1.162   8.482
68874SOL    HW2 8520   2.589   1.031   8.514
68875SOL     OW 8521   5.093   3.455   4.583
68875SOL    HW1 8522   5.002   3.444   4.611
68875SOL    HW2 8523   5.143   3.397   4.641
68876SOL     OW 8524   2.788   5.495   9.048
68876SOL    HW1 8525   2.755   5.481   8.960
68876SOL    HW2 8526   2.725   5.449   9.104
68877SOL     OW 8527   3.635  12.812   0.562
68877SOL    HW1 8528   3.660  12.730   0.520
68877SOL    HW2 8529   3.712  12.838   0.612
68878SOL     OW 8530   3.878  10.498   3.710
68878SOL    HW1 8531   3.901  10.557   3.781
68878SOL    HW2 8532   3.957  10.445   3.695
68879SOL     OW 8533   9.240  13.741   1.888
68879SOL    HW1 8534   9.220  13.680   1.817
68879SOL    HW2 8535   9.327  13.715   1.918
68880SOL     OW 8536   1.860   2.250  11.571
68880SOL    HW1 8537   1.869   2.295  11.655
68880SOL    HW2 8538   1.767   2.229  11.564
68881SOL     OW 8539  13.648  12.146   4.186
68881SOL    HW1 8540  13.728  12.200   4.184
68881SOL    HW2 8541  13.591  12.186   4.120
68882SOL     OW 8542   1.149  14.420   6.645
68882SOL    HW1 8543   1.153  14.492   6.708
68882SOL    HW2 8544   1.218  14.360   6.672
68883SOL     OW 8545  14.705  11.822   7.502
68883SOL    HW1 8546  14.718  11.804   7.409
68883SOL    HW2 8547  14.637  11.889   7.504
68884SOL     OW 8548   1.720   9.948   7.476
68884SOL    HW1 8549   1.762  10.002   7.544
68884SOL    HW2 8550   1.705   9.864   7.519
68885SOL     OW 8551   2.829  13.848   9.097
68885SOL    HW1 8552   2.916  13.811   9.115
68885SOL    HW2 8553   2.768  13.781   9.128
68886SOL     OW 8554  11.504   0.435   0.800
68886SOL    HW1 8555  11.514   0.362   0.860
68886SOL    HW2 8556  11.545   0.405   0.719
68887SOL     OW 8557  11.165  11.517   0.006
68887SOL    HW1 8558  11.228  11.460  14.842
68887SOL    HW2 8559  11.211  11.548   0.085
68888SOL     OW 8560   0.651  13.543  14.077
68888SOL    HW1 8561   0.680  13.506  14.161
68888SOL    HW2 8562   0.623  13.466  14.026
68889SOL     OW 8563  14.657  12.852  12.688
68889SOL    HW1 8564  14.715  12.894  12.625
68889SOL    HW2 8565  14.670  12.900  12.769
68890SOL     OW 8566  12.680   7.358  14.850
68890SOL    HW1 8567  12.639   7.274  14.872
68890SOL    HW2 8568  12.606   7.419  14.842
68891SOL     OW 8569  13.165  13.500   3.259
68891SOL    HW1 8570  13.110  13.493   3.181
68891SOL    HW2 8571  13.254  13.501   3.225
68892SOL     OW 8572   4.068   1.282   6.730
68892SOL    HW1 8573   4.139   1.325   6.778
68892SOL    HW2 8574   3.988   1.319   6.768
68893SOL     OW 8575  11.073   6.628  10.286
68893SOL    HW1 8576  10.991   6.607  10.242
68893SOL    HW2 8577  11.060   6.600  10.377
68894SOL     OW 8578   1.722   4.321  14.174
68894SOL    HW1 8579   1.710   4.390  14.238
68894SOL    HW2 8580   1.785   4.357  14.111
68895SOL     OW 8581  10.900   0.557   2.480
68895SOL    HW1 8582  10.903   0.464   2.503
68895SOL    HW2 8583  10.828   0.592   2.532
68896SOL     OW 8584  14.254   6.801   9.524
68896SOL    HW1 8585  14.330   6.746   9.541
68896SOL    HW2 8586  14.201   6.751   9.462
68897SOL     OW 8587   3.515   4.470   2.493
68897SOL    HW1 8588   3.438   4.519   2.463
68897SOL    HW2 8589   3.585   4.534   2.497
68898SOL     OW 8590   4.744   4.727  13.272
68898SOL    HW1 8591   4.710   4.757  13.356
68898SOL    HW2 8592   4.745   4.631  13.280
68899SOL     OW 8593   2.165   9.590  11.420
68899SOL    HW1 8594   2.181   9.642  11.498
68899SOL    HW2 8595   2.173   9.652  11.347
68900SOL     OW 8596   1.644   0.148   5.159
68900SOL    HW1 8597   1.618   0.240   5.167
68900SOL    HW2 8598   1.606   0.120   5.075
68901SOL     OW 8599   9.817   4.102  11.424
68901SOL    HW1 8600   9.794   4.187  11.387
68901SOL    HW2 8601   9.832   4.120  11.517
68902SOL     OW 8602  12.435   9.051  11.073
68902SOL    HW1 8603  12.402   8.997  11.145
68902SOL    HW2 8604  12.497   8.994  11.027
68903SOL     OW 8605   1.482   0.524  10.733
68903SOL    HW1 8606   1.453   0.436  10.754
68903SOL    HW2 8607   1.449   0.579  10.804
68904SOL     OW 8608  11.907  12.954   6.011
68904SOL    HW1 8609  11.850  13.014   5.963
68904SOL    HW2 8610  11.993  12.966   5.970
68905SOL     OW 8611  13.934   8.517   5.573
68905SOL    HW1 8612  13.839   8.519   5.559
68905SOL    HW2 8613  13.947   8.443   5.632
68906SOL     OW 8614   6.562   8.013  12.694
68906SOL    HW1 8615   6.642   8.058  12.723
68906SOL    HW2 8616   6.549   8.044  12.605
68907SOL     OW 8617   5.177   6.792   6.750
68907SOL    HW1 8618   5.254   6.735   6.748
68907SOL    HW2 8619   5.185   6.841   6.831
68908SOL     OW 8620  10.389   7.137   4.839
68908SOL    HW1 8621  10.309   7.111   4.886
68908SOL    HW2 8622  10.392   7.232   4.849
68909SOL     OW 8623   5.181   7.051   9.390
68909SOL    HW1 8624   5.135   7.004   9.320
68909SOL    HW2 8625   5.117   7.057   9.460
68910SOL     OW 8626  14.726   2.425   4.805
68910SOL    HW1 8627  14.635   2.423   4.776
68910SOL    HW2 8628  14.774   2.459   4.730
68911SOL     OW 8629  11.578   4.525   7.169
68911SOL    HW1 8630  11.629   4.595   7.127
68911SOL    HW2 8631  11.511   4.503   7.104
68912SOL     OW 8632   6.740  11.078  12.317
68912SOL    HW1 8633   6.779  11.157  12.280
68912SOL    HW2 8634   6.646  11.088  12.299
68913SOL     OW 8635  12.740   6.497   6.068
68913SOL    HW1 8636  12.754   6.582   6.026
68913SOL    HW2 8637  12.774   6.434   6.005
68914SOL     OW 8638  14.686   3.841  11.770
68914SOL    HW1 8639  14.636   3.904  11.822
68914SOL    HW2 8640  14.698   3.766  11.828
68915SOL     OW 8641   7.874  13.160   5.155
68915SOL    HW1 8642   7.873  13.255   5.145
68915SOL    HW2 8643   7.936  13.144   5.227
68916SOL     OW 8644  11.377   5.540  10.798
68916SOL    HW1 8645  11.435   5.583  10.861
68916SOL    HW2 8646  11.316   5.608  10.771
68917SOL     OW 8647   1.336   8.704   0.485
68917SOL    HW1 8648   1.400   8.664   0.543
68917SOL    HW2 8649   1.387   8.760   0.427
68918SOL     OW 8650   0.885   4.141  14.569
68918SOL    HW1 8651   0.877   4.168  14.661
68918SOL    HW2 8652   0.934   4.059  14.572
68919SOL     OW 8653   6.257  10.156   2.752
68919SOL    HW1 8654   6.205  10.236   2.755
68919SOL    HW2 8655   6.205  10.095   2.699
68920SOL     OW 8656   1.807  13.065   2.995
68920SOL    HW1 8657   1.779  13.051   2.905
68920SOL    HW2 8658   1.842  12.980   3.023
68921SOL     OW 8659   7.070   2.000  13.171
68921SOL    HW1 8660   7.064   2.083  13.123
68921SOL    HW2 8661   7.164   1.981  13.175
68922SOL     OW 8662   2.249   9.721   4.919
68922SOL    HW1 8663   2.184   9.693   4.983
68922SOL    HW2 8664   2.200   9.771   4.854
68923SOL     OW 8665   3.438   3.541   6.643
68923SOL    HW1 8666   3.459   3.480   6.574
68923SOL    HW2 8667   3.496   3.518   6.715
68924SOL     OW 8668   8.931   7.962   2.747
68924SOL    HW1 8669   8.899   8.051   2.738
68924SOL    HW2 8670   8.852   7.908   2.753
68925SOL     OW 8671   0.702   8.019   7.403
68925SOL    HW1 8672   0.672   8.077   7.473
68925SOL    HW2 8673   0.721   7.936   7.446
68926SOL     OW 8674   4.032  14.110   7.285
68926SOL    HW1 8675   4.099  14.041   7.290
68926SOL    HW2 8676   3.986  14.093   7.203
68927SOL     OW 8677   1.951   9.069  12.267
68927SOL    HW1 8678   1.945   9.158  12.232
68927SOL    HW2 8679   1.870   9.027  12.238
68928SOL     OW 8680   9.933   2.650   1.433
68928SOL    HW1 8681   9.977   2.682   1.512
68928SOL    HW2 8682   9.884   2.574   1.463
68929SOL     OW 8683   6.710  10.724   1.763
68929SOL    HW1 8684   6.721  10.784   1.689
68929SOL    HW2 8685   6.615  10.717   1.774
68930SOL     OW 8686   2.690   4.438   5.058
68930SOL    HW1 8687   2.755   4.446   4.988
68930SOL    HW2 8688   2.611   4.478   5.022
68931SOL     OW 8689  13.620   7.965   0.137
68931SOL    HW1 8690  13.639   8.016   0.058
68931SOL    HW2 8691  13.639   8.025   0.209
68932SOL     OW 8692   0.426   7.079  11.281
68932SOL    HW1 8693   0.483   7.075  11.357
68932SOL    HW2 8694   0.452   7.159  11.235
68933SOL     OW 8695   8.616   3.223   4.281
68933SOL    HW1 8696   8.608   3.134   4.316
68933SOL    HW2 8697   8.677   3.267   4.339
68934SOL     OW 8698   6.217   7.380   9.090
68934SOL    HW1 8699   6.169   7.459   9.115
68934SOL    HW2 8700   6.307   7.410   9.076
68935SOL     OW 8701  10.259  12.260   1.993
68935SOL    HW1 8702  10.209  12.193   2.040
68935SOL    HW2 8703  10.208  12.340   2.005
68936SOL     OW 8704   8.021   8.089  14.742
68936SOL    HW1 8705   7.999   7.997  14.758
68936SOL    HW2 8706   8.109   8.098  14.778
68937SOL     OW 8707   8.756  12.124   3.069
68937SOL    HW1 8708   8.728  12.201   3.020
68937SOL    HW2 8709   8.681  12.064   3.066
68938SOL     OW 8710  13.645   0.914   5.109
68938SOL    HW1 8711  13.720   0.896   5.165
68938SOL    HW2 8712  13.637   1.009   5.109
68939SOL     OW 8713   1.081  14.694   1.907
68939SOL    HW1 8714   1.099  14.719   1.816
68939SOL    HW2 8715   1.152  14.734   1.957
68940SOL     OW 8716  12.377   4.369   1.472
68940SOL    HW1 8717  12.381   4.396   1.564
68940SOL    HW2 8718  12.451   4.415   1.431
68941SOL     OW 8719  10.955   2.903  14.726
68941SOL    HW1 8720  10.915   2.904  14.639
68941SOL    HW2 8721  10.918   2.980  14.770
68942SOL     OW 8722   6.470  11.644   2.273
68942SOL    HW1 8723   6.506  11.569   2.227
68942SOL    HW2 8724   6.376  11.628   2.275
68943SOL     OW 8725  13.971   4.659   7.537
68943SOL    HW1 8726  14.006   4.602   7.604
68943SOL    HW2 8727  14.038   4.726   7.525
68944SOL     OW 8728   7.722   1.428   1.671
68944SOL    HW1 8729   7.720   1.335   1.650
68944SOL    HW2 8730   7.806   1.442   1.715
68945SOL     OW 8731  10.763   9.159  14.156
68945SOL    HW1 8732  10.849   9.148  14.197
68945SOL    HW2 8733  10.756   9.088  14.093
68946SOL     OW 8734  11.958  10.275   9.307
68946SOL    HW1 8735  12.028  10.312   9.253
68946SOL    HW2 8736  11.908  10.352   9.335
68947SOL     OW 8737   3.318   7.273   9.953
68947SOL    HW1 8738   3.261   7.228  10.016
68947SOL    HW2 8739   3.404   7.272   9.994
68948SOL     OW 8740  10.863   3.550   5.849
68948SOL    HW1 8741  10.768   3.540   5.841
68948SOL    HW2 8742  10.896   3.461   5.862
68949SOL     OW 8743  10.374   3.633   4.837
68949SOL    HW1 8744  10.406   3.603   4.752
68949SOL    HW2 8745  10.452   3.637   4.892
68950SOL     OW 8746   0.287  13.678   9.729
68950SOL    HW1 8747   0.274  13.621   9.805
68950SOL    HW2 8748   0.206  13.669   9.679
68951SOL     OW 8749  10.057   9.555   7.354
68951SOL    HW1 8750  10.100   9.473   7.381
68951SOL    HW2 8751  10.105   9.582   7.275
68952SOL     OW 8752   2.814   6.835  11.999
68952SOL    HW1 8753   2.870   6.911  11.985
68952SOL    HW2 8754   2.874   6.763  12.020
68953SOL     OW 8755   0.843  12.653   3.503
68953SOL    HW1 8756   0.899  12.731   3.506
68953SOL    HW2 8757   0.768  12.677   3.557
68954SOL     OW 8758   0.029   4.322  13.383
68954SOL    HW1 8759   0.072   4.399  13.346
68954SOL    HW2 8760  14.820   4.324  13.348
68955SOL     OW 8761   2.390   1.734   8.740
68955SOL    HW1 8762   2.333   1.759   8.812
68955SOL    HW2 8763   2.337   1.746   8.661
68956SOL     OW 8764   0.534   9.091   3.167
68956SOL    HW1 8765   0.454   9.041   3.180
68956SOL    HW2 8766   0.527   9.165   3.228
68957SOL     OW 8767   1.037  11.143   0.925
68957SOL    HW1 8768   1.087  11.195   0.989
68957SOL    HW2 8769   1.012  11.206   0.858
68958SOL     OW 8770   6.138  14.587  12.890
68958SOL    HW1 8771   6.211  14.542  12.846
68958SOL    HW2 8772   6.138  14.675  12.852
68959SOL     OW 8773   4.718   4.119  13.075
68959SOL    HW1 8774   4.643   4.075  13.115
68959SOL    HW2 8775   4.681   4.163  12.998
68960SOL     OW 8776   6.743  12.717   0.351
68960SOL    HW1 8777   6.682  12.644   0.360
68960SOL    HW2 8778   6.730  12.750   0.263
68961SOL     OW 8779  12.269   6.951  13.804
68961SOL    HW1 8780  12.179   6.972  13.778
68961SOL    HW2 8781  12.285   7.007  13.880
68962SOL     OW 8782   5.014   2.417   7.740
68962SOL    HW1 8783   5.094   2.372   7.712
68962SOL    HW2 8784   4.954   2.406   7.666
68963SOL     OW 8785   4.718  13.985  14.371
68963SOL    HW1 8786   4.638  13.931  14.369
68963SOL    HW2 8787   4.691  14.068  14.332
68964SOL     OW 8788  14.853   6.089  11.327
68964SOL    HW1 8789   0.029   6.153  11.371
68964SOL    HW2 8790  14.851   6.014  11.386
68965SOL     OW 8791   6.743   2.318   6.156
68965SOL    HW1 8792   6.809   2.277   6.211
68965SOL    HW2 8793   6.790   2.385   6.108
68966SOL     OW 8794   7.450   2.494   2.029
68966SOL    HW1 8795   7.458   2.430   1.958
68966SOL    HW2 8796   7.536   2.537   2.031
68967SOL     OW 8797   5.582   5.219   4.041
68967SOL    HW1 8798   5.512   5.211   4.106
68967SOL    HW2 8799   5.636   5.292   4.072
68968SOL     OW 8800   0.022   4.232   8.145
68968SOL    HW1 8801   0.034   4.178   8.067
68968SOL    HW2 8802  14.834   4.296   8.120
68969SOL     OW 8803   2.041  11.564  13.678
68969SOL    HW1 8804   1.994  11.556  13.595
68969SOL    HW2 8805   2.133  11.562  13.653
68970SOL     OW 8806  12.178   1.786   8.054
68970SOL    HW1 8807  12.237   1.815   8.123
68970SOL    HW2 8808  12.105   1.848   8.058
68971SOL     OW 8809   7.182  14.229  14.175
68971SOL    HW1 8810   7.125  14.267  14.108
68971SOL    HW2 8811   7.163  14.280  14.254
68972SOL     OW 8812   6.878   2.368  11.691
68972SOL    HW1 8813   6.798   2.412  11.662
68972SOL    HW2 8814   6.939   2.380  11.618
68973SOL     OW 8815  12.160   0.906  10.230
68973SOL    HW1 8816  12.207   0.877  10.308
68973SOL    HW2 8817  12.078   0.942  10.264
68974SOL     OW 8818  10.766  11.601  13.035
68974SOL    HW1 8819  10.825  11.562  13.100
68974SOL    HW2 8820  10.741  11.529  12.978
68975SOL     OW 8821   9.993   2.152   8.459
68975SOL    HW1 8822  10.074   2.192   8.427
68975SOL    HW2 8823   9.924   2.195   8.408
68976SOL     OW 8824   6.687  10.408   7.889
68976SOL    HW1 8825   6.633  10.435   7.814
68976SOL    HW2 8826   6.754  10.476   7.895
68977SOL     OW 8827  11.956  12.210  14.308
68977SOL    HW1 8828  12.020  12.277  14.328
68977SOL    HW2 8829  11.992  12.164  14.232
68978SOL     OW 8830  12.365   6.110  13.060
68978SOL    HW1 8831  12.459   6.125  13.074
68978SOL    HW2 8832  12.356   6.015  13.058
68979SOL     OW 8833  13.655  11.865   8.710
68979SOL    HW1 8834  13.608  11.862   8.793
68979SOL    HW2 8835  13.691  11.777   8.700
68980SOL     OW 8836  11.980  10.584   5.226
68980SOL    HW1 8837  12.008  10.548   5.142
68980SOL    HW2 8838  11.886  10.566   5.230
68981SOL     OW 8839  14.001   0.418   6.845
68981SOL    HW1 8840  14.020   0.327   6.825
68981SOL    HW2 8841  14.084   0.464   6.831
68982SOL     OW 8842   0.229   6.315  14.591
68982SOL    HW1 8843   0.242   6.362  14.509
68982SOL    HW2 8844   0.136   6.296  14.594
68983SOL     OW 8845   0.803  11.449  14.272
68983SOL    HW1 8846   0.779  11.514  14.339
68983SOL    HW2 8847   0.865  11.392  14.317
68984SOL     OW 8848  10.892  14.238   0.460
68984SOL    HW1 8849  10.798  14.241   0.475
68984SOL    HW2 8850  10.901  14.232   0.365
68985SOL     OW 8851   9.262   9.733   8.118
68985SOL    HW1 8852   9.252   9.722   8.023
68985SOL    HW2 8853   9.183   9.694   8.155
68986SOL     OW 8854   9.286   5.460  10.273
68986SOL    HW1 8855   9.361   5.453  10.332
68986SOL    HW2 8856   9.262   5.369  10.253
68987SOL     OW 8857   2.240  14.399   9.129
68987SOL    HW1 8858   2.223  14.327   9.068
68987SOL    HW2 8859   2.329  14.382   9.162
68988SOL     OW 8860  13.069   6.485  14.326
68988SOL    HW1 8861  13.139   6.533  14.282
68988SOL    HW2 8862  13.020   6.552  14.374
68989SOL     OW 8863   1.487   0.369  11.561
68989SOL    HW1 8864   1.553   0.425  11.602
68989SOL    HW2 8865   1.477   0.405  11.472
68990SOL     OW 8866  13.172   0.578  14.148
68990SOL    HW1 8867  13.243   0.578  14.085
68990SOL    HW2 8868  13.122   0.658  14.128
68991SOL     OW 8869  10.846   2.944   6.826
68991SOL    HW1 8870  10.790   2.897   6.888
68991SOL    HW2 8871  10.788   3.010   6.787
68992SOL     OW 8872  11.444   4.183   4.796
68992SOL    HW1 8873  11.436   4.175   4.891
68992SOL    HW2 8874  11.494   4.106   4.770
68993SOL     OW 8875  13.953   3.973   4.384
68993SOL    HW1 8876  14.038   3.998   4.349
68993SOL    HW2 8877  13.973   3.904   4.448
68994SOL     OW 8878  13.782   8.454   8.100
68994SOL    HW1 8879  13.728   8.500   8.164
68994SOL    HW2 8880  13.757   8.494   8.016
68995SOL     OW 8881   7.115  14.240   5.234
68995SOL    HW1 8882   7.158  14.186   5.300
68995SOL    HW2 8883   7.165  14.224   5.154
68996SOL     OW 8884   0.588   7.756   9.083
68996SOL    HW1 8885   0.637   7.707   9.017
68996SOL    HW2 8886   0.540   7.822   9.033
68997SOL     OW 8887  13.166   1.168   5.922
68997SOL    HW1 8888  13.188   1.077   5.938
68997SOL    HW2 8889  13.122   1.197   6.002
68998SOL     OW 8890   8.961   8.108   1.128
68998SOL    HW1 8891   9.024   8.178   1.142
68998SOL    HW2 8892   9.012   8.036   1.091
68999SOL     OW 8893   0.041   8.495   5.845
68999SOL    HW1 8894  14.827   8.489   5.823
68999SOL    HW2 8895   0.069   8.404   5.855
69000SOL     OW 8896   6.932   0.829  14.048
69000SOL    HW1 8897   7.014   0.785  14.028
69000SOL    HW2 8898   6.887   0.769  14.108
69001SOL     OW 8899   6.293   0.721   7.148
69001SOL    HW1 8900   6.306   0.790   7.214
69001SOL    HW2 8901   6.200   0.698   7.155
69002SOL     OW 8902   2.724  10.617   4.560
69002SOL    HW1 8903   2.689  10.698   4.597
69002SOL    HW2 8904   2.697  10.619   4.468
69003SOL     OW 8905  14.835   4.706  13.636
69003SOL    HW1 8906   0.038   4.754  13.626
69003SOL    HW2 8907  14.796   4.709  13.548
69004SOL     OW 8908   6.193  14.734  12.636
69004SOL    HW1 8909   6.158  14.667  12.577
69004SOL    HW2 8910   6.282  14.750  12.605
69005SOL     OW 8911  10.892   3.453  13.128
69005SOL    HW1 8912  10.956   3.447  13.057
69005SOL    HW2 8913  10.945   3.451  13.208
69006SOL     OW 8914  10.450   0.221   8.223
69006SOL    HW1 8915  10.484   0.255   8.141
69006SOL    HW2 8916  10.355   0.237   8.218
69007SOL     OW 8917  11.712   7.386   8.585
69007SOL    HW1 8918  11.627   7.415   8.618
69007SOL    HW2 8919  11.692   7.310   8.531
69008SOL     OW 8920   2.928  10.338  11.929
69008SOL    HW1 8921   2.966  10.360  11.844
69008SOL    HW2 8922   3.000  10.351  11.991
69009SOL     OW 8923   3.787  11.491   0.767
69009SOL    HW1 8924   3.829  11.410   0.796
69009SOL    HW2 8925   3.729  11.515   0.839
69010SOL     OW 8926  13.026  11.951  13.344
69010SOL    HW1 8927  13.110  11.910  13.365
69010SOL    HW2 8928  12.978  11.884  13.296
69011SOL     OW 8929  11.194   5.384   5.980
69011SOL    HW1 8930  11.232   5.330   5.911
69011SOL    HW2 8931  11.266   5.400   6.041
69012SOL     OW 8932   9.006   9.256  10.254
69012SOL    HW1 8933   8.953   9.322  10.209
69012SOL    HW2 8934   9.050   9.304  10.324
69013SOL     OW 8935  10.538   9.801  11.539
69013SOL    HW1 8936  10.479   9.801  11.615
69013SOL    HW2 8937  10.494   9.746  11.475
69014SOL     OW 8938   8.238   6.966  14.052
69014SOL    HW1 8939   8.227   7.058  14.026
69014SOL    HW2 8940   8.218   6.916  13.973
69015SOL     OW 8941   7.235   7.245   9.283
69015SOL    HW1 8942   7.312   7.228   9.229
69015SOL    HW2 8943   7.162   7.243   9.221
69016SOL     OW 8944  12.177   7.166   2.247
69016SOL    HW1 8945  12.149   7.076   2.267
69016SOL    HW2 8946  12.267   7.156   2.216
69017SOL     OW 8947  11.002   6.975   1.247
69017SOL    HW1 8948  10.940   6.905   1.269
69017SOL    HW2 8949  11.059   6.936   1.181
69018SOL     OW 8950   3.648   6.994  10.581
69018SOL    HW1 8951   3.606   7.026  10.661
69018SOL    HW2 8952   3.673   6.904  10.602
69019SOL     OW 8953   1.598  14.312   5.138
69019SOL    HW1 8954   1.511  14.278   5.117
69019SOL    HW2 8955   1.655  14.235   5.139
69020SOL     OW 8956  10.157   8.825  13.915
69020SOL    HW1 8957  10.202   8.851  13.835
69020SOL    HW2 8958  10.102   8.900  13.938
69021SOL     OW 8959   2.671   0.290   1.020
69021SOL    HW1 8960   2.736   0.220   1.026
69021SOL    HW2 8961   2.630   0.277   0.934
69022SOL     OW 8962   7.794   7.256  11.684
69022SOL    HW1 8963   7.728   7.317  11.717
69022SOL    HW2 8964   7.759   7.226  11.601
69023SOL     OW 8965  13.131   0.439   2.327
69023SOL    HW1 8966  13.110   0.521   2.372
69023SOL    HW2 8967  13.116   0.372   2.393
69024SOL     OW 8968  12.627  10.230   5.816
69024SOL    HW1 8969  12.566  10.302   5.832
69024SOL    HW2 8970  12.614  10.170   5.889
69025SOL     OW 8971   8.741  13.676  11.455
69025SOL    HW1 8972   8.648  13.692  11.466
69025SOL    HW2 8973   8.781  13.708  11.536
69026SOL     OW 8974   8.334   7.781  14.029
69026SOL    HW1 8975   8.270   7.850  14.048
69026SOL    HW2 8976   8.394   7.820  13.965
69027SOL     OW 8977   1.299   4.135   3.454
69027SOL    HW1 8978   1.379   4.095   3.487
69027SOL    HW2 8979   1.325   4.175   3.371
69028SOL     OW 8980   1.943   7.253   8.414
69028SOL    HW1 8981   1.857   7.211   8.421
69028SOL    HW2 8982   1.994   7.215   8.487
69029SOL     OW 8983  10.890   0.273   2.440
69029SOL    HW1 8984  10.863   0.318   2.360
69029SOL    HW2 8985  10.876   0.180   2.422
69030SOL     OW 8986   1.101   5.862   2.677
69030SOL    HW1 8987   1.073   5.857   2.768
69030SOL    HW2 8988   1.039   5.923   2.636
69031SOL     OW 8989   6.281   3.821   8.240
69031SOL    HW1 8990   6.311   3.730   8.231
69031SOL    HW2 8991   6.197   3.823   8.195
69032SOL     OW 8992   3.184   7.664   2.611
69032SOL    HW1 8993   3.122   7.737   2.609
69032SOL    HW2 8994   3.229   7.668   2.526
69033SOL     OW 8995   4.026   6.062   6.940
69033SOL    HW1 8996   3.961   6.115   6.894
69033SOL    HW2 8997   3.978   5.985   6.968
69034SOL     OW 8998   6.871  14.026  13.618
69034SOL    HW1 8999   6.848  14.002  13.708
69034SOL    HW2 9000   6.905  14.115  13.626
69035SOL     OW 9001  13.953  10.334  14.667
69035SOL    HW1 9002  13.970  10.419  14.625
69035SOL    HW2 9003  13.861  10.317  14.650
69036SOL     OW 9004   4.584  13.353   0.404
69036SOL    HW1 9005   4.637  13.324   0.479
69036SOL    HW2 9006   4.496  13.364   0.441
69037SOL     OW 9007  13.001   9.180   6.927
69037SOL    HW1 9008  12.939   9.145   6.864
69037SOL    HW2 9009  13.078   9.205   6.875
69038SOL     OW 9010   2.851   6.175  11.119
69038SOL    HW1 9011   2.935   6.180  11.164
69038SOL    HW2 9012   2.872   6.186  11.026
69039SOL     OW 9013   4.649   6.468   2.472
69039SOL    HW1 9014   4.631   6.488   2.380
69039SOL    HW2 9015   4.572   6.421   2.502
69040SOL     OW 9016  13.194  13.811   6.029
69040SOL    HW1 9017  13.104  13.779   6.041
69040SOL    HW2 9018  13.244  13.733   6.006
69041SOL     OW 9019   2.676   1.879  14.053
69041SOL    HW1 9020   2.736   1.804  14.059
69041SOL    HW2 9021   2.610   1.863  14.121
69042SOL     OW 9022   8.713   7.755   0.961
69042SOL    HW1 9023   8.745   7.820   1.023
69042SOL    HW2 9024   8.789   7.731   0.909
69043SOL     OW 9025   4.218   3.944   3.797
69043SOL    HW1 9026   4.308   3.939   3.829
69043SOL    HW2 9027   4.181   3.858   3.815
69044SOL     OW 9028  14.288   8.818   9.114
69044SOL    HW1 9029  14.359   8.777   9.064
69044SOL    HW2 9030  14.323   8.824   9.203
69045SOL     OW 9031   6.338   5.896  12.820
69045SOL    HW1 9032   6.355   5.819  12.767
69045SOL    HW2 9033   6.302   5.960  12.759
69046SOL     OW 9034  13.134   2.857   5.869
69046SOL    HW1 9035  13.152   2.875   5.777
69046SOL    HW2 9036  13.138   2.762   5.876
69047SOL     OW 9037   6.753   8.074   3.768
69047SOL    HW1 9038   6.784   8.034   3.849
69047SOL    HW2 9039   6.771   8.008   3.701
69048SOL     OW 9040   6.510   0.269  14.190
69048SOL    HW1 9041   6.448   0.221  14.135
69048SOL    HW2 9042   6.573   0.203  14.218
69049SOL     OW 9043  12.276   3.193   1.192
69049SOL    HW1 9044  12.310   3.112   1.154
69049SOL    HW2 9045  12.337   3.261   1.164
69050SOL     OW 9046   2.452   1.099   7.872
69050SOL    HW1 9047   2.412   1.133   7.952
69050SOL    HW2 9048   2.541   1.135   7.873
69051SOL     OW 9049   3.345   3.577  14.866
69051SOL    HW1 9050   3.345   3.535   0.072
69051SOL    HW2 9051   3.402   3.653  14.876
69052SOL     OW 9052   6.056   0.812   3.460
69052SOL    HW1 9053   6.016   0.889   3.421
69052SOL    HW2 9054   6.011   0.802   3.544
69053SOL     OW 9055  10.352   6.884   3.055
69053SOL    HW1 9056  10.315   6.811   3.004
69053SOL    HW2 9057  10.322   6.867   3.144
69054SOL     OW 9058   6.173   9.733   6.950
69054SOL    HW1 9059   6.246   9.672   6.938
69054SOL    HW2 9060   6.170   9.784   6.870
69055SOL     OW 9061   7.171  12.285  13.151
69055SOL    HW1 9062   7.113  12.276  13.076
69055SOL    HW2 9063   7.127  12.235  13.221
69056SOL     OW 9064  12.720  12.035  10.667
69056SOL    HW1 9065  12.650  12.023  10.602
69056SOL    HW2 9066  12.778  11.960  10.653
69057SOL     OW 9067   6.530   0.687   9.524
69057SOL    HW1 9068   6.566   0.729   9.446
69057SOL    HW2 9069   6.463   0.748   9.555
69058SOL     OW 9070   6.355   3.389   3.225
69058SOL    HW1 9071   6.307   3.364   3.304
69058SOL    HW2 9072   6.353   3.310   3.170
69059SOL     OW 9073   6.224   5.607   9.972
69059SOL    HW1 9074   6.190   5.571   9.891
69059SOL    HW2 9075   6.246   5.698   9.950
69060SOL     OW 9076   1.828   3.913  11.869
69060SOL    HW1 9077   1.796   3.827  11.898
69060SOL    HW2 9078   1.891   3.939  11.936
69061SOL     OW 9079   7.748   9.387   4.539
69061SOL    HW1 9080   7.794   9.402   4.456
69061SOL    HW2 9081   7.691   9.313   4.522
69062SOL     OW 9082   9.751   5.413   6.552
69062SOL    HW1 9083   9.798   5.430   6.633
69062SOL    HW2 9084   9.658   5.426   6.574
69063SOL     OW 9085   6.782   9.912   2.412
69063SOL    HW1 9086   6.790   9.994   2.363
69063SOL    HW2 9087   6.873   9.882   2.422
69064SOL     OW 9088   3.779  12.047   3.432
69064SOL    HW1 9089   3.786  11.966   3.481
69064SOL    HW2 9090   3.868  12.082   3.430
69065SOL     OW 9091  13.715   2.842   4.090
69065SOL    HW1 9092  13.727   2.895   4.169
69065SOL    HW2 9093  13.730   2.902   4.017
69066SOL     OW 9094  14.126  14.844   4.261
69066SOL    HW1 9095  14.104   0.047   4.305
69066SOL    HW2 9096  14.212  14.859   4.222
69067SOL     OW 9097   7.281   1.769   2.580
69067SOL    HW1 9098   7.317   1.844   2.627
69067SOL    HW2 9099   7.357   1.728   2.538
69068SOL     OW 9100   6.468  13.103   5.760
69068SOL    HW1 9101   6.441  13.040   5.827
69068SOL    HW2 9102   6.407  13.176   5.769
69069SOL     OW 9103   9.019  10.702  13.114
69069SOL    HW1 9104   9.066  10.776  13.152
69069SOL    HW2 9105   9.029  10.714  13.019
69070SOL     OW 9106  11.595  10.398   8.206
69070SOL    HW1 9107  11.524  10.425   8.148
69070SOL    HW2 9108  11.553  10.341   8.270
69071SOL     OW 9109   9.809   6.669  13.822
69071SOL    HW1 9110   9.801   6.701  13.732
69071SOL    HW2 9111   9.842   6.579  13.812
69072SOL     OW 9112  10.939   6.595  13.645
69072SOL    HW1 9113  11.007   6.632  13.589
69072SOL    HW2 9114  10.909   6.516  13.599
69073SOL     OW 9115   1.259   0.637   1.509
69073SOL    HW1 9116   1.313   0.713   1.530
69073SOL    HW2 9117   1.183   0.644   1.567
69074SOL     OW 9118   2.616  10.365  13.837
69074SOL    HW1 9119   2.709  10.382  13.848
69074SOL    HW2 9120   2.574  10.414  13.907
69075SOL     OW 9121   9.927   8.922  10.355
69075SOL    HW1 9122   9.914   8.896  10.446
69075SOL    HW2 9123   9.930   8.839  10.306
69076SOL     OW 9124  10.399   6.112   6.796
69076SOL    HW1 9125  10.342   6.050   6.842
69076SOL    HW2 9126  10.340   6.161   6.739
69077SOL     OW 9127  14.811   5.386  14.194
69077SOL    HW1 9128  14.844   5.462  14.242
69077SOL    HW2 9129  14.726   5.413  14.160
69078SOL     OW 9130   2.192   3.287   0.485
69078SOL    HW1 9131   2.127   3.306   0.553
69078SOL    HW2 9132   2.226   3.201   0.507
69079SOL     OW 9133   3.467   9.162  10.675
69079SOL    HW1 9134   3.546   9.215  10.689
69079SOL    HW2 9135   3.471   9.136  10.583
69080SOL     OW 9136   1.359  14.240   5.068
69080SOL    HW1 9137   1.367  14.309   5.003
69080SOL    HW2 9138   1.264  14.230   5.081
69081SOL     OW 9139  11.143   5.851   0.153
69081SOL    HW1 9140  11.073   5.837   0.216
69081SOL    HW2 9141  11.202   5.913   0.195
69082SOL     OW 9142   9.586  10.262   4.471
69082SOL    HW1 9143   9.639  10.202   4.418
69082SOL    HW2 9144   9.542  10.318   4.406
69083SOL     OW 9145   2.643   4.931  14.422
69083SOL    HW1 9146   2.642   4.924  14.326
69083SOL    HW2 9147   2.734   4.909  14.446
69084SOL     OW 9148   7.734   5.037  13.409
69084SOL    HW1 9149   7.791   4.979  13.358
69084SOL    HW2 9150   7.735   5.120  13.360
69085SOL     OW 9151  13.020  11.561   4.145
69085SOL    HW1 9152  13.046  11.472   4.120
69085SOL    HW2 9153  12.980  11.597   4.066
69086SOL     OW 9154   0.450   0.245   4.457
69086SOL    HW1 9155   0.368   0.278   4.420
69086SOL    HW2 9156   0.497   0.208   4.382
69087SOL     OW 9157  14.755  12.749   7.344
69087SOL    HW1 9158  14.684  12.732   7.405
69087SOL    HW2 9159  14.821  12.795   7.396
69088SOL     OW 9160  10.959   0.011   4.135
69088SOL    HW1 9161  10.921  14.871   4.221
69088SOL    HW2 9162  11.053   0.006   4.148
69089SOL     OW 9163  10.876   0.560   5.009
69089SOL    HW1 9164  10.877   0.541   5.103
69089SOL    HW2 9165  10.859   0.475   4.968
69090SOL     OW 9166   8.748  11.698  10.911
69090SOL    HW1 9167   8.779  11.637  10.844
69090SOL    HW2 9168   8.724  11.643  10.985
69091SOL     OW 9169   7.381  14.012   8.280
69091SOL    HW1 9170   7.386  13.942   8.214
69091SOL    HW2 9171   7.414  13.971   8.360
69092SOL     OW 9172  11.223   3.800   0.795
69092SOL    HW1 9173  11.202   3.837   0.709
69092SOL    HW2 9174  11.233   3.877   0.852
69093SOL     OW 9175   5.583   3.146   3.856
69093SOL    HW1 9176   5.525   3.085   3.811
69093SOL    HW2 9177   5.625   3.094   3.924
69094SOL     OW 9178   0.806   1.434  10.970
69094SOL    HW1 9179   0.779   1.511  10.919
69094SOL    HW2 9180   0.731   1.415  11.026
69095SOL     OW 9181   0.219   4.167   1.596
69095SOL    HW1 9182   0.247   4.241   1.650
69095SOL    HW2 9183   0.133   4.144   1.629
69096SOL     OW 9184   3.372  10.954   1.988
69096SOL    HW1 9185   3.436  10.892   1.954
69096SOL    HW2 9186   3.423  11.017   2.039
69097SOL     OW 9187  10.276  13.896  10.629
69097SOL    HW1 9188  10.205  13.951  10.662
69097SOL    HW2 9189  10.314  13.856  10.708
69098SOL     OW 9190   3.951  10.636   1.682
69098SOL    HW1 9191   3.954  10.688   1.602
69098SOL    HW2 9192   3.890  10.684   1.739
69099SOL     OW 9193  13.243   9.661   3.939
69099SOL    HW1 9194  13.253   9.573   3.904
69099SOL    HW2 9195  13.150   9.667   3.962
69100SOL     OW 9196   3.490   8.300   3.485
69100SOL    HW1 9197   3.437   8.238   3.435
69100SOL    HW2 9198   3.449   8.304   3.571
69101SOL     OW 9199  11.246   2.390   3.454
69101SOL    HW1 9200  11.294   2.308   3.462
69101SOL    HW2 9201  11.310   2.453   3.421
69102SOL     OW 9202   7.432   5.844  13.385
69102SOL    HW1 9203   7.401   5.823  13.473
69102SOL    HW2 9204   7.498   5.912  13.398
69103SOL     OW 9205   7.663   3.657   9.665
69103SOL    HW1 9206   7.659   3.697   9.752
69103SOL    HW2 9207   7.692   3.567   9.682
69104SOL     OW 9208   6.444  11.198   9.466
69104SOL    HW1 9209   6.465  11.288   9.488
69104SOL    HW2 9210   6.423  11.200   9.372
69105SOL     OW 9211  11.613   4.992   4.191
69105SOL    HW1 9212  11.538   5.041   4.222
69105SOL    HW2 9213  11.576   4.922   4.137
69106SOL     OW 9214   3.834   0.260  14.431
69106SOL    HW1 9215   3.796   0.348  14.425
69106SOL    HW2 9216   3.763   0.207  14.469
69107SOL     OW 9217  10.153  11.112   2.551
69107SOL    HW1 9218  10.134  11.080   2.640
69107SOL    HW2 9219  10.144  11.034   2.496
69108SOL     OW 9220  12.102   4.123   0.017
69108SOL    HW1 9221  12.043   4.088  14.830
69108SOL    HW2 9222  12.055   4.109   0.099
69109SOL     OW 9223  11.967  13.718  12.090
69109SOL    HW1 9224  11.965  13.622  12.090
69109SOL    HW2 9225  12.027  13.740  12.161
69110SOL     OW 9226   1.135   9.106   8.287
69110SOL    HW1 9227   1.117   9.115   8.193
69110SOL    HW2 9228   1.140   9.011   8.300
69111SOL     OW 9229  10.460   5.969  12.650
69111SOL    HW1 9230  10.534   5.922  12.611
69111SOL    HW2 9231  10.418   5.904  12.707
69112SOL     OW 9232   4.827   7.770  10.971
69112SOL    HW1 9233   4.765   7.753  11.042
69112SOL    HW2 9234   4.773   7.783  10.894
69113SOL     OW 9235  10.242   6.686   2.876
69113SOL    HW1 9236  10.237   6.739   2.797
69113SOL    HW2 9237  10.190   6.608   2.856
69114SOL     OW 9238  13.391   3.053   9.972
69114SOL    HW1 9239  13.361   3.117   9.907
69114SOL    HW2 9240  13.451   3.103  10.028
69115SOL     OW 9241   1.375   9.917   9.476
69115SOL    HW1 9242   1.448   9.965   9.515
69115SOL    HW2 9243   1.328   9.881   9.551
69116SOL     OW 9244  14.284   8.153   5.602
69116SOL    HW1 9245  14.260   8.062   5.615
69116SOL    HW2 9246  14.369   8.149   5.558
69117SOL     OW 9247   8.321  13.109   1.625
69117SOL    HW1 9248   8.372  13.150   1.694
69117SOL    HW2 9249   8.386  13.087   1.558
69118SOL     OW 9250  12.231   6.869   3.552
69118SOL    HW1 9251  12.175   6.793   3.566
69118SOL    HW2 9252  12.272   6.884   3.637
69119SOL     OW 9253   6.187   7.703   4.965
69119SOL    HW1 9254   6.137   7.622   4.977
69119SOL    HW2 9255   6.134   7.770   5.008
69120SOL     OW 9256   9.929   0.703   1.831
69120SOL    HW1 9257   9.857   0.653   1.869
69120SOL    HW2 9258   9.935   0.673   1.741
69121SOL     OW 9259   0.361   8.055   0.873
69121SOL    HW1 9260   0.353   7.967   0.909
69121SOL    HW2 9261   0.302   8.057   0.798
69122SOL     OW 9262   0.007   3.273  11.338
69122SOL    HW1 9263   0.008   3.270  11.242
69122SOL    HW2 9264  14.794   3.263  11.361
69123SOL     OW 9265  12.241   2.949   1.661
69123SOL    HW1 9266  12.225   3.039   1.687
69123SOL    HW2 9267  12.230   2.949   1.566
69124SOL     OW 9268  12.009   8.855   0.845
69124SOL    HW1 9269  11.978   8.869   0.755
69124SOL    HW2 9270  11.975   8.769   0.869
69125SOL     OW 9271  12.076  12.243   2.926
69125SOL    HW1 9272  12.081  12.170   2.864
69125SOL    HW2 9273  12.159  12.240   2.974
69126SOL     OW 9274   7.382  10.761   8.149
69126SOL    HW1 9275   7.304  10.711   8.174
69126SOL    HW2 9276   7.439  10.696   8.109
69127SOL     OW 9277  10.614   9.828   3.007
69127SOL    HW1 9278  10.566   9.906   2.978
69127SOL    HW2 9279  10.696   9.863   3.043
69128SOL     OW 9280   8.372   6.786  12.683
69128SOL    HW1 9281   8.468   6.780  12.679
69128SOL    HW2 9282   8.354   6.830  12.766
69129SOL     OW 9283  10.477   9.482   0.695
69129SOL    HW1 9284  10.441   9.404   0.737
69129SOL    HW2 9285  10.567   9.458   0.673
69130SOL     OW 9286  11.350  11.341   1.778
69130SOL    HW1 9287  11.290  11.336   1.704
69130SOL    HW2 9288  11.330  11.264   1.831
69131SOL     OW 9289   3.251   5.760  12.115
69131SOL    HW1 9290   3.226   5.830  12.054
69131SOL    HW2 9291   3.267   5.684  12.059
69132SOL     OW 9292   4.795  13.161   2.586
69132SOL    HW1 9293   4.722  13.130   2.639
69132SOL    HW2 9294   4.871  13.116   2.622
69133SOL     OW 9295   0.666   5.065   8.396
69133SOL    HW1 9296   0.580   5.103   8.412
69133SOL    HW2 9297   0.692   5.030   8.481
69134SOL     OW 9298   0.308   2.187   5.405
69134SOL    HW1 9299   0.234   2.171   5.464
69134SOL    HW2 9300   0.302   2.116   5.341
69135SOL     OW 9301  13.909  12.969   1.678
69135SOL    HW1 9302  13.899  12.879   1.707
69135SOL    HW2 9303  13.861  13.021   1.743
69136SOL     OW 9304   3.153   0.734  12.777
69136SOL    HW1 9305   3.077   0.756  12.832
69136SOL    HW2 9306   3.141   0.785  12.698
69137SOL     OW 9307   2.973  13.176   6.066
69137SOL    HW1 9308   2.927  13.092   6.071
69137SOL    HW2 9309   3.037  13.172   6.138
69138SOL     OW 9310  12.105   4.933  13.612
69138SOL    HW1 9311  12.067   4.936  13.699
69138SOL    HW2 9312  12.064   5.006  13.565
69139SOL     OW 9313   8.609   2.178   1.156
69139SOL    HW1 9314   8.637   2.156   1.067
69139SOL    HW2 9315   8.607   2.274   1.158
69140SOL     OW 9316   1.033   1.146   6.447
69140SOL    HW1 9317   1.043   1.236   6.416
69140SOL    HW2 9318   0.941   1.139   6.472
69141SOL     OW 9319   9.021   1.196  12.539
69141SOL    HW1 9320   9.084   1.181  12.610
69141SOL    HW2 9321   9.025   1.117  12.486
69142SOL     OW 9322   0.553  11.840   3.793
69142SOL    HW1 9323   0.575  11.789   3.715
69142SOL    HW2 9324   0.531  11.927   3.760
69143SOL     OW 9325  11.155   8.301   6.931
69143SOL    HW1 9326  11.235   8.322   6.979
69143SOL    HW2 9327  11.084   8.316   6.993
69144SOL     OW 9328   9.072  12.527  12.958
69144SOL    HW1 9329   9.044  12.496  12.872
69144SOL    HW2 9330   9.166  12.545  12.948
69145SOL     OW 9331   8.276   2.645  11.240
69145SOL    HW1 9332   8.351   2.704  11.236
69145SOL    HW2 9333   8.244   2.652  11.330
69146SOL     OW 9334   4.606   1.404   7.954
69146SOL    HW1 9335   4.649   1.484   7.986
69146SOL    HW2 9336   4.513   1.422   7.964
69147SOL     OW 9337  11.973   4.370   2.482
69147SOL    HW1 9338  12.039   4.435   2.506
69147SOL    HW2 9339  12.019   4.312   2.421
69148SOL     OW 9340  11.564  14.650   5.723
69148SOL    HW1 9341  11.600  14.628   5.637
69148SOL    HW2 9342  11.614  14.595   5.784
69149SOL     OW 9343   6.852   5.852   6.092
69149SOL    HW1 9344   6.813   5.917   6.033
69149SOL    HW2 9345   6.784   5.785   6.101
69150SOL     OW 9346   3.089   6.471  14.429
69150SOL    HW1 9347   3.083   6.438  14.519
69150SOL    HW2 9348   3.183   6.470  14.410
69151SOL     OW 9349   3.383   3.105  14.526
69151SOL    HW1 9350   3.326   3.070  14.595
69151SOL    HW2 9351   3.350   3.194  14.510
69152SOL     OW 9352   8.962   0.127  11.098
69152SOL    HW1 9353   8.929   0.122  11.008
69152SOL    HW2 9354   8.887   0.101  11.151
69153SOL     OW 9355  11.728   7.972   7.945
69153SOL    HW1 9356  11.713   8.026   8.023
69153SOL    HW2 9357  11.780   8.028   7.887
69154SOL     OW 9358  14.132  10.571  10.484
69154SOL    HW1 9359  14.063  10.626  10.446
69154SOL    HW2 9360  14.174  10.626  10.550
69155SOL     OW 9361  13.692   4.650  14.315
69155SOL    HW1 9362  13.633   4.606  14.254
69155SOL    HW2 9363  13.725   4.726  14.267
69156SOL     OW 9364  14.235   4.887  11.243
69156SOL    HW1 9365  14.165   4.844  11.193
69156SOL    HW2 9366  14.313   4.876  11.189
69157SOL     OW 9367  14.602  13.487   1.187
69157SOL    HW1 9368  14.549  13.466   1.109
69157SOL    HW2 9369  14.542  13.536   1.243
69158SOL     OW 9370  13.615  11.904   8.084
69158SOL    HW1 9371  13.670  11.879   8.009
69158SOL    HW2 9372  13.598  11.821   8.129
69159SOL     OW 9373  14.171  13.414   1.529
69159SOL    HW1 9374  14.081  13.381   1.530
69159SOL    HW2 9375  14.163  13.503   1.495
69160SOL     OW 9376  12.630   3.872  12.620
69160SOL    HW1 9377  12.717   3.887  12.584
69160SOL    HW2 9378  12.585   3.822  12.552
69161SOL     OW 9379  14.392  10.832   2.573
69161SOL    HW1 9380  14.383  10.927   2.589
69161SOL    HW2 9381  14.466  10.825   2.513
69162SOL     OW 9382  11.636   6.081  10.509
69162SOL    HW1 9383  11.666   6.144  10.574
69162SOL    HW2 9384  11.700   6.088  10.437
69163SOL     OW 9385   9.176  12.170   6.125
69163SOL    HW1 9386   9.193  12.076   6.124
69163SOL    HW2 9387   9.081  12.177   6.116
69164SOL     OW 9388   6.425   9.735  10.192
69164SOL    HW1 9389   6.361   9.704  10.256
69164SOL    HW2 9390   6.404   9.828  10.180
69165SOL     OW 9391   5.717   8.443  12.860
69165SOL    HW1 9392   5.718   8.424  12.766
69165SOL    HW2 9393   5.716   8.538  12.865
69166SOL     OW 9394   5.095   8.717  14.430
69166SOL    HW1 9395   5.128   8.801  14.398
69166SOL    HW2 9396   5.114   8.717  14.523
69167SOL     OW 9397   9.216   8.541  14.418
69167SOL    HW1 9398   9.167   8.482  14.361
69167SOL    HW2 9399   9.202   8.628  14.382
69168SOL     OW 9400  11.313   1.389   2.501
69168SOL    HW1 9401  11.360   1.307   2.484
69168SOL    HW2 9402  11.231   1.380   2.452
69169SOL     OW 9403   0.312   9.562   8.226
69169SOL    HW1 9404   0.342   9.571   8.316
69169SOL    HW2 9405   0.251   9.635   8.213
69170SOL     OW 9406  13.615   1.505  11.818
69170SOL    HW1 9407  13.683   1.514  11.885
69170SOL    HW2 9408  13.664   1.495  11.736
69171SOL     OW 9409  11.630   0.581   1.067
69171SOL    HW1 9410  11.589   0.540   1.144
69171SOL    HW2 9411  11.569   0.651   1.043
69172SOL     OW 9412   2.629   9.154  12.321
69172SOL    HW1 9413   2.715   9.194  12.309
69172SOL    HW2 9414   2.631   9.122  12.412
69173SOL     OW 9415   0.588   5.821  14.338
69173SOL    HW1 9416   0.532   5.854  14.268
69173SOL    HW2 9417   0.658   5.774  14.292
69174SOL     OW 9418   8.594  13.048  14.001
69174SOL    HW1 9419   8.646  13.129  14.001
69174SOL    HW2 9420   8.540  13.054  14.080
69175SOL     OW 9421   1.393   7.979  13.200
69175SOL    HW1 9422   1.382   7.891  13.236
69175SOL    HW2 9423   1.447   7.967  13.122
69176SOL     OW 9424  13.829   1.257   6.692
69176SOL    HW1 9425  13.880   1.243   6.612
69176SOL    HW2 9426  13.788   1.173   6.710
69177SOL     OW 9427   2.335   7.551   3.656
69177SOL    HW1 9428   2.361   7.463   3.683
69177SOL    HW2 9429   2.239   7.546   3.648
69178SOL     OW 9430   2.038   7.779  13.706
69178SOL    HW1 9431   1.974   7.840  13.743
69178SOL    HW2 9432   2.111   7.780  13.768
69179SOL     OW 9433   1.483   3.327   8.658
69179SOL    HW1 9434   1.462   3.421   8.657
69179SOL    HW2 9435   1.578   3.324   8.666
69180SOL     OW 9436  13.958   5.702   9.550
69180SOL    HW1 9437  13.904   5.741   9.481
69180SOL    HW2 9438  13.960   5.609   9.529
69181SOL     OW 9439   4.721   9.487   4.202
69181SOL    HW1 9440   4.687   9.430   4.133
69181SOL    HW2 9441   4.699   9.576   4.173
69182SOL     OW 9442   0.582   7.266  12.738
69182SOL    HW1 9443   0.557   7.187  12.784
69182SOL    HW2 9444   0.556   7.337  12.797
69183SOL     OW 9445   5.096   8.094   4.270
69183SOL    HW1 9446   5.097   8.023   4.335
69183SOL    HW2 9447   5.141   8.166   4.314
69184SOL     OW 9448  13.568   6.205   9.352
69184SOL    HW1 9449  13.620   6.244   9.422
69184SOL    HW2 9450  13.632   6.178   9.287
69185SOL     OW 9451   8.172  14.176   3.693
69185SOL    HW1 9452   8.248  14.176   3.634
69185SOL    HW2 9453   8.199  14.227   3.769
69186SOL     OW 9454   6.912   0.844  12.354
69186SOL    HW1 9455   7.003   0.840  12.385
69186SOL    HW2 9456   6.869   0.904  12.415
69187SOL     OW 9457   8.608   7.400   4.782
69187SOL    HW1 9458   8.590   7.478   4.728
69187SOL    HW2 9459   8.532   7.344   4.769
69188SOL     OW 9460  10.795   2.714   9.428
69188SOL    HW1 9461  10.783   2.641   9.488
69188SOL    HW2 9462  10.799   2.674   9.341
69189SOL     OW 9463  11.943  13.203   5.825
69189SOL    HW1 9464  11.877  13.175   5.762
69189SOL    HW2 9465  12.025  13.165   5.791
69190SOL     OW 9466  14.124  11.074   3.796
69190SOL    HW1 9467  14.073  11.032   3.727
69190SOL    HW2 9468  14.174  11.142   3.751
69191SOL     OW 9469   1.942  10.417   0.916
69191SOL    HW1 9470   1.885  10.474   0.967
69191SOL    HW2 9471   2.020  10.405   0.970
69192SOL     OW 9472   8.968   8.512   4.503
69192SOL    HW1 9473   8.895   8.462   4.541
69192SOL    HW2 9474   9.040   8.449   4.499
69193SOL     OW 9475  12.341   8.675   1.075
69193SOL    HW1 9476  12.323   8.676   1.169
69193SOL    HW2 9477  12.319   8.764   1.046
69194SOL     OW 9478   6.112   1.079   9.569
69194SOL    HW1 9479   6.098   1.164   9.527
69194SOL    HW2 9480   6.171   1.033   9.509
69195SOL     OW 9481   5.785   3.712  12.176
69195SOL    HW1 9482   5.766   3.625  12.139
69195SOL    HW2 9483   5.701   3.759  12.171
69196SOL     OW 9484   5.509  12.184  10.743
69196SOL    HW1 9485   5.434  12.129  10.763
69196SOL    HW2 9486   5.534  12.222  10.827
69197SOL     OW 9487   6.681   8.279   7.803
69197SOL    HW1 9488   6.735   8.251   7.876
69197SOL    HW2 9489   6.718   8.363   7.776
69198SOL     OW 9490   1.833   3.241  12.580
69198SOL    HW1 9491   1.767   3.309  12.593
69198SOL    HW2 9492   1.914   3.281  12.613
69199SOL     OW 9493   7.801   5.104   9.283
69199SOL    HW1 9494   7.849   5.172   9.330
69199SOL    HW2 9495   7.717   5.144   9.261
69200SOL     OW 9496  10.241   2.860   8.217
69200SOL    HW1 9497  10.223   2.919   8.144
69200SOL    HW2 9498  10.240   2.918   8.294
69201SOL     OW 9499   8.768  13.270   2.124
69201SOL    HW1 9500   8.778  13.221   2.042
69201SOL    HW2 9501   8.675  13.292   2.127
69202SOL     OW 9502   7.008   6.719  11.417
69202SOL    HW1 9503   7.072   6.728  11.487
69202SOL    HW2 9504   6.948   6.793  11.429
69203SOL     OW 9505   6.720  12.137  14.040
69203SOL    HW1 9506   6.661  12.196  13.993
69203SOL    HW2 9507   6.785  12.111  13.975
69204SOL     OW 9508   6.769   6.053   1.601
69204SOL    HW1 9509   6.709   5.993   1.557
69204SOL    HW2 9510   6.840   5.998   1.634
69205SOL     OW 9511  12.561   7.833   1.125
69205SOL    HW1 9512  12.527   7.852   1.212
69205SOL    HW2 9513  12.542   7.911   1.074
69206SOL     OW 9514   3.358   5.244   0.490
69206SOL    HW1 9515   3.413   5.166   0.505
69206SOL    HW2 9516   3.343   5.244   0.396
69207SOL     OW 9517   6.140  13.630  11.740
69207SOL    HW1 9518   6.103  13.571  11.675
69207SOL    HW2 9519   6.073  13.697  11.753
69208SOL     OW 9520  11.515   4.702   6.261
69208SOL    HW1 9521  11.608   4.681   6.273
69208SOL    HW2 9522  11.508   4.794   6.288
69209SOL     OW 9523  11.829   8.009  11.289
69209SOL    HW1 9524  11.817   7.937  11.228
69209SOL    HW2 9525  11.868   8.079  11.237
69210SOL     OW 9526   2.821   7.750  14.180
69210SOL    HW1 9527   2.822   7.838  14.141
69210SOL    HW2 9528   2.772   7.761  14.262
69211SOL     OW 9529   2.820  14.604   9.454
69211SOL    HW1 9530   2.806  14.579   9.545
69211SOL    HW2 9531   2.837  14.522   9.409
69212SOL     OW 9532  13.291  11.541  10.346
69212SOL    HW1 9533  13.202  11.559  10.378
69212SOL    HW2 9534  13.281  11.538  10.250
69213SOL     OW 9535   6.187   3.935   9.751
69213SOL    HW1 9536   6.214   3.860   9.804
69213SOL    HW2 9537   6.268   3.965   9.710
69214SOL     OW 9538   4.590  12.532   3.218
69214SOL    HW1 9539   4.596  12.564   3.127
69214SOL    HW2 9540   4.677  12.547   3.254
69215SOL     OW 9541   3.149   1.304   0.846
69215SOL    HW1 9542   3.060   1.304   0.810
69215SOL    HW2 9543   3.137   1.320   0.939
69216SOL     OW 9544   9.410   1.808  13.796
69216SOL    HW1 9545   9.394   1.716  13.817
69216SOL    HW2 9546   9.401   1.854  13.879
69217SOL     OW 9547   5.680   8.402   6.655
69217SOL    HW1 9548   5.608   8.341   6.644
69217SOL    HW2 9549   5.729   8.368   6.730
69218SOL     OW 9550   3.325   7.798  14.603
69218SOL    HW1 9551   3.372   7.737  14.546
69218SOL    HW2 9552   3.336   7.883  14.562
69219SOL     OW 9553   3.766  13.687  12.691
69219SOL    HW1 9554   3.680  13.721  12.718
69219SOL    HW2 9555   3.749  13.641  12.609
69220SOL     OW 9556   0.943   3.297   8.178
69220SOL    HW1 9557   0.888   3.375   8.181
69220SOL    HW2 9558   0.888   3.228   8.215
69221SOL     OW 9559   9.796   3.038  11.091
69221SOL    HW1 9560   9.722   2.976  11.093
69221SOL    HW2 9561   9.798   3.069  11.001
69222SOL     OW 9562   9.059  13.224   9.351
69222SOL    HW1 9563   9.057  13.319   9.358
69222SOL    HW2 9564   8.978  13.194   9.392
69223SOL     OW 9565   3.894   8.436  10.349
69223SOL    HW1 9566   3.882   8.405  10.260
69223SOL    HW2 9567   3.942   8.365  10.393
69224SOL     OW 9568   5.016   9.394   4.187
69224SOL    HW1 9569   4.939   9.427   4.140
69224SOL    HW2 9570   5.090   9.440   4.148
69225SOL     OW 9571   9.552   9.869  13.253
69225SOL    HW1 9572   9.578   9.961  13.255
69225SOL    HW2 9573   9.599   9.832  13.179
69226SOL     OW 9574   2.531  12.825   3.274
69226SOL    HW1 9575   2.477  12.760   3.319
69226SOL    HW2 9576   2.481  12.906   3.281
69227SOL     OW 9577  12.648  12.081  10.919
69227SOL    HW1 9578  12.671  12.057  10.830
69227SOL    HW2 9579  12.634  12.176  10.916
69228SOL     OW 9580  13.837  11.574  10.872
69228SOL    HW1 9581  13.784  11.539  10.944
69228SOL    HW2 9582  13.861  11.662  10.899
69229SOL     OW 9583  11.214   1.974  12.157
69229SOL    HW1 9584  11.162   2.051  12.178
69229SOL    HW2 9585  11.264   1.999  12.080
69230SOL     OW 9586   2.247   6.525  11.427
69230SOL    HW1 9587   2.157   6.559  11.427
69230SOL    HW2 9588   2.238   6.433  11.405
69231SOL     OW 9589   4.358   3.478   7.865
69231SOL    HW1 9590   4.385   3.514   7.781
69231SOL    HW2 9591   4.263   3.487   7.866
69232SOL     OW 9592   6.436   0.299   7.077
69232SOL    HW1 9593   6.523   0.261   7.063
69232SOL    HW2 9594   6.418   0.284   7.170
69233SOL     OW 9595   0.459  10.409   2.295
69233SOL    HW1 9596   0.453  10.317   2.268
69233SOL    HW2 9597   0.427  10.459   2.219
69234SOL     OW 9598  11.915   3.653  13.610
69234SOL    HW1 9599  11.962   3.638  13.693
69234SOL    HW2 9600  11.869   3.570  13.594
69235SOL     OW 9601  10.269   8.352  14.552
69235SOL    HW1 9602  10.209   8.308  14.492
69235SOL    HW2 9603  10.215   8.375  14.627
69236SOL     OW 9604   4.354   1.353   5.452
69236SOL    HW1 9605   4.280   1.298   5.478
69236SOL    HW2 9606   4.346   1.358   5.357
69237SOL     OW 9607   1.753  12.879   7.070
69237SOL    HW1 9608   1.683  12.944   7.077
69237SOL    HW2 9609   1.820  12.921   7.015
69238SOL     OW 9610  13.408   9.983  11.220
69238SOL    HW1 9611  13.454   9.960  11.139
69238SOL    HW2 9612  13.319  10.005  11.192
69239SOL     OW 9613   0.996  10.973  11.791
69239SOL    HW1 9614   0.923  10.981  11.730
69239SOL    HW2 9615   1.056  10.911  11.748
69240SOL     OW 9616  14.448  13.239   0.041
69240SOL    HW1 9617  14.363  13.282   0.033
69240SOL    HW2 9618  14.511  13.312   0.044
69241SOL     OW 9619   5.387  11.003   9.512
69241SOL    HW1 9620   5.401  10.978   9.604
69241SOL    HW2 9621   5.413  10.926   9.462
69242SOL     OW 9622  10.880  13.059   9.861
69242SOL    HW1 9623  10.917  13.013   9.936
69242SOL    HW2 9624  10.911  13.149   9.871
69243SOL     OW 9625   7.213  10.662  12.270
69243SOL    HW1 9626   7.261  10.587  12.236
69243SOL    HW2 9627   7.195  10.640  12.361
69244SOL     OW 9628   5.063   8.006   7.927
69244SOL    HW1 9629   5.114   8.016   8.007
69244SOL    HW2 9630   5.059   8.094   7.890
69245SOL     OW 9631   5.229   0.441   0.068
69245SOL    HW1 9632   5.313   0.450   0.114
69245SOL    HW2 9633   5.243   0.368   0.007
69246SOL     OW 9634   9.348   2.383   4.913
69246SOL    HW1 9635   9.283   2.410   4.978
69246SOL    HW2 9636   9.431   2.387   4.960
69247SOL     OW 9637   1.843   8.458   2.276
69247SOL    HW1 9638   1.789   8.506   2.214
69247SOL    HW2 9639   1.818   8.494   2.362
69248SOL     OW 9640   2.864  12.682  14.746
69248SOL    HW1 9641   2.958  12.665  14.739
69248SOL    HW2 9642   2.824  12.616  14.690
69249SOL     OW 9643  10.496   8.717   0.254
69249SOL    HW1 9644  10.486   8.623   0.241
69249SOL    HW2 9645  10.583   8.736   0.219
69250SOL     OW 9646  13.970   3.485   8.229
69250SOL    HW1 9647  13.942   3.482   8.321
69250SOL    HW2 9648  14.060   3.454   8.230
69251SOL     OW 9649   0.587   6.954   0.862
69251SOL    HW1 9650   0.606   6.877   0.808
69251SOL    HW2 9651   0.662   7.012   0.849
69252SOL     OW 9652  12.944   7.210   6.563
69252SOL    HW1 9653  12.981   7.122   6.553
69252SOL    HW2 9654  12.899   7.226   6.480
69253SOL     OW 9655   7.363   3.672   8.181
69253SOL    HW1 9656   7.443   3.723   8.166
69253SOL    HW2 9657   7.297   3.715   8.126
69254SOL     OW 9658   7.069  14.005   0.511
69254SOL    HW1 9659   6.999  14.015   0.446
69254SOL    HW2 9660   7.103  13.917   0.496
69255SOL     OW 9661   5.353   9.154   8.889
69255SOL    HW1 9662   5.296   9.225   8.859
69255SOL    HW2 9663   5.417   9.196   8.945
69256SOL     OW 9664   1.537   8.543   4.063
69256SOL    HW1 9665   1.627   8.521   4.039
69256SOL    HW2 9666   1.483   8.502   3.995
69257SOL     OW 9667   7.480   1.707  11.637
69257SOL    HW1 9668   7.486   1.798  11.665
69257SOL    HW2 9669   7.423   1.666  11.701
69258SOL     OW 9670   8.530  14.099   5.288
69258SOL    HW1 9671   8.596  14.034   5.309
69258SOL    HW2 9672   8.533  14.161   5.360
69259SOL     OW 9673   8.870   6.886   6.049
69259SOL    HW1 9674   8.904   6.934   6.125
69259SOL    HW2 9675   8.910   6.800   6.056
69260SOL     OW 9676   9.147  10.569   2.170
69260SOL    HW1 9677   9.224  10.511   2.175
69260SOL    HW2 9678   9.184  10.656   2.154
69261SOL     OW 9679   9.923   2.724   5.068
69261SOL    HW1 9680   9.970   2.778   5.004
69261SOL    HW2 9681   9.976   2.730   5.148
69262SOL     OW 9682   7.111  10.316  10.368
69262SOL    HW1 9683   7.114  10.251  10.298
69262SOL    HW2 9684   7.183  10.292  10.426
69263SOL     OW 9685   7.135   9.975   9.567
69263SOL    HW1 9686   7.143   9.880   9.559
69263SOL    HW2 9687   7.128  10.007   9.477
69264SOL     OW 9688  10.795  12.231   9.696
69264SOL    HW1 9689  10.715  12.207   9.743
69264SOL    HW2 9690  10.865  12.186   9.742
69265SOL     OW 9691  10.645  14.353   0.591
69265SOL    HW1 9692  10.571  14.388   0.541
69265SOL    HW2 9693  10.621  14.367   0.683
69266SOL     OW 9694  10.485  13.535   3.573
69266SOL    HW1 9695  10.494  13.596   3.646
69266SOL    HW2 9696  10.529  13.455   3.602
69267SOL     OW 9697   8.272  13.972   7.933
69267SOL    HW1 9698   8.230  14.047   7.976
69267SOL    HW2 9699   8.199  13.922   7.897
69268SOL     OW 9700   5.579   3.902  13.485
69268SOL    HW1 9701   5.532   3.908  13.568
69268SOL    HW2 9702   5.609   3.811  13.481
69269SOL     OW 9703   1.856  10.626   3.113
69269SOL    HW1 9704   1.852  10.720   3.093
69269SOL    HW2 9705   1.833  10.620   3.205
69270SOL     OW 9706   2.571   6.019   7.547
69270SOL    HW1 9707   2.661   6.007   7.518
69270SOL    HW2 9708   2.533   5.931   7.544
69271SOL     OW 9709  12.392  10.414  11.367
69271SOL    HW1 9710  12.396  10.345  11.300
69271SOL    HW2 9711  12.422  10.492  11.321
69272SOL     OW 9712   3.717   9.675   8.389
69272SOL    HW1 9713   3.734   9.729   8.466
69272SOL    HW2 9714   3.803   9.641   8.364
69273SOL     OW 9715  12.646   6.331   6.692
69273SOL    HW1 9716  12.730   6.374   6.708
69273SOL    HW2 9717  12.659   6.282   6.611
69274SOL     OW 9718  12.483  14.676   4.225
69274SOL    HW1 9719  12.559  14.696   4.170
69274SOL    HW2 9720  12.467  14.756   4.274
69275SOL     OW 9721   0.325   4.821  10.987
69275SOL    HW1 9722   0.243   4.869  10.975
69275SOL    HW2 9723   0.351   4.841  11.077
69276SOL     OW 9724   2.795   9.869   8.278
69276SOL    HW1 9725   2.886   9.897   8.277
69276SOL    HW2 9726   2.799   9.775   8.297
69277SOL     OW 9727   3.243   4.644   7.264
69277SOL    HW1 9728   3.314   4.694   7.304
69277SOL    HW2 9729   3.222   4.691   7.184
69278SOL     OW 9730   5.766  11.264   5.260
69278SOL    HW1 9731   5.780  11.358   5.254
69278SOL    HW2 9732   5.839  11.232   5.314
69279SOL     OW 9733   1.075   1.720   0.441
69279SOL    HW1 9734   1.077   1.814   0.458
69279SOL    HW2 9735   1.142   1.684   0.499
69280SOL     OW 9736   3.675  12.944   8.945
69280SOL    HW1 9737   3.613  13.007   8.910
69280SOL    HW2 9738   3.676  12.872   8.881
69281SOL     OW 9739   9.307   5.319   1.557
69281SOL    HW1 9740   9.348   5.405   1.557
69281SOL    HW2 9741   9.215   5.336   1.539
69282SOL     OW 9742   4.532   1.773  12.257
69282SOL    HW1 9743   4.488   1.784  12.172
69282SOL    HW2 9744   4.595   1.703  12.242
69283SOL     OW 9745  14.387   7.297   7.044
69283SOL    HW1 9746  14.435   7.321   7.122
69283SOL    HW2 9747  14.295   7.296   7.071
69284SOL     OW 9748   4.100   6.474   0.132
69284SOL    HW1 9749   4.166   6.406   0.146
69284SOL    HW2 9750   4.149   6.546   0.091
69285SOL     OW 9751   8.495   9.076   7.269
69285SOL    HW1 9752   8.407   9.076   7.306
69285SOL    HW2 9753   8.518   9.169   7.263
69286SOL     OW 9754  10.887   2.301  12.798
69286SOL    HW1 9755  10.896   2.346  12.881
69286SOL    HW2 9756  10.926   2.360  12.733
69287SOL     OW 9757  13.503  14.472  10.709
69287SOL    HW1 9758  13.520  14.421  10.788
69287SOL    HW2 9759  13.418  14.440  10.679
69288SOL     OW 9760  11.112   1.975  10.902
69288SOL    HW1 9761  11.207   1.986  10.911
69288SOL    HW2 9762  11.076   2.060  10.929
69289SOL     OW 9763  14.034  11.371   8.710
69289SOL    HW1 9764  14.049  11.368   8.616
69289SOL    HW2 9765  14.030  11.279   8.737
69290SOL     OW 9766  12.197   5.349   2.466
69290SOL    HW1 9767  12.261   5.344   2.537
69290SOL    HW2 9768  12.250   5.348   2.387
69291SOL     OW 9769   0.039  14.305  10.922
69291SOL    HW1 9770  14.865  14.373  10.964
69291SOL    HW2 9771   0.020  14.226  10.973
69292SOL     OW 9772  10.100   6.327  12.557
69292SOL    HW1 9773  10.153   6.295  12.630
69292SOL    HW2 9774  10.014   6.287  12.570
69293SOL     OW 9775  10.067   3.841   2.721
69293SOL    HW1 9776  10.030   3.822   2.807
69293SOL    HW2 9777   9.990   3.854   2.664
69294SOL     OW 9778   8.120  14.448   0.439
69294SOL    HW1 9779   8.053  14.437   0.372
69294SOL    HW2 9780   8.135  14.359   0.472
69295SOL     OW 9781  11.585   9.116   7.051
69295SOL    HW1 9782  11.558   9.114   7.143
69295SOL    HW2 9783  11.511   9.157   7.006
69296SOL     OW 9784   0.131   4.836   1.249
69296SOL    HW1 9785   0.094   4.885   1.175
69296SOL    HW2 9786   0.137   4.900   1.320
69297SOL     OW 9787   5.696   3.941   3.122
69297SOL    HW1 9788   5.638   3.873   3.088
69297SOL    HW2 9789   5.776   3.932   3.071
69298SOL     OW 9790  12.814   9.635   0.463
69298SOL    HW1 9791  12.814   9.582   0.543
69298SOL    HW2 9792  12.730   9.680   0.465
69299SOL     OW 9793   5.845  10.788   2.726
69299SOL    HW1 9794   5.762  10.743   2.737
69299SOL    HW2 9795   5.903  10.723   2.685
69300SOL     OW 9796  13.181  13.399  13.896
69300SOL    HW1 9797  13.215  13.449  13.822
69300SOL    HW2 9798  13.222  13.439  13.973
69301SOL     OW 9799  10.371   0.493   4.682
69301SOL    HW1 9800  10.392   0.449   4.764
69301SOL    HW2 9801  10.367   0.423   4.617
69302SOL     OW 9802   5.000   6.775   5.728
69302SOL    HW1 9803   5.037   6.705   5.675
69302SOL    HW2 9804   5.004   6.742   5.818
69303SOL     OW 9805   0.391   4.000   4.601
69303SOL    HW1 9806   0.357   3.990   4.690
69303SOL    HW2 9807   0.333   3.946   4.548
69304SOL     OW 9808   9.051   7.177   6.694
69304SOL    HW1 9809   8.991   7.138   6.630
69304SOL    HW2 9810   9.050   7.270   6.674
69305SOL     OW 9811   5.101   8.954  10.460
69305SOL    HW1 9812   5.081   8.974  10.551
69305SOL    HW2 9813   5.029   8.897  10.431
69306SOL     OW 9814   2.446   8.928   1.883
69306SOL    HW1 9815   2.538   8.931   1.854
69306SOL    HW2 9816   2.399   8.892   1.808
69307SOL     OW 9817   9.732   1.356  12.557
69307SOL    HW1 9818   9.770   1.395  12.636
69307SOL    HW2 9819   9.788   1.385  12.486
69308SOL     OW 9820   5.311   7.449  10.477
69308SOL    HW1 9821   5.332   7.420  10.389
69308SOL    HW2 9822   5.396   7.469  10.517
69309SOL     OW 9823   4.866  12.088   7.037
69309SOL    HW1 9824   4.855  12.033   6.959
69309SOL    HW2 9825   4.777  12.108   7.065
69310SOL     OW 9826   0.839   4.493   1.194
69310SOL    HW1 9827   0.837   4.578   1.237
69310SOL    HW2 9828   0.749   4.480   1.163
69311SOL     OW 9829  13.879   0.921   5.301
69311SOL    HW1 9830  13.931   0.841   5.307
69311SOL    HW2 9831  13.941   0.992   5.318
69312SOL     OW 9832   8.146  14.274   5.098
69312SOL    HW1 9833   8.235  14.256   5.069
69312SOL    HW2 9834   8.095  14.201   5.064
69313SOL     OW 9835   9.423   0.584   0.709
69313SOL    HW1 9836   9.395   0.661   0.660
69313SOL    HW2 9837   9.481   0.537   0.650
69314SOL     OW 9838   0.805  10.623  10.758
69314SOL    HW1 9839   0.727  10.679  10.756
69314SOL    HW2 9840   0.876  10.681  10.729
69315SOL     OW 9841   6.227   0.929   9.789
69315SOL    HW1 9842   6.170   0.854   9.803
69315SOL    HW2 9843   6.187   0.977   9.716
69316SOL     OW 9844   0.150   0.600  12.020
69316SOL    HW1 9845   0.063   0.635  12.039
69316SOL    HW2 9846   0.143   0.506  12.039
69317SOL     OW 9847   4.059   3.611   3.647
69317SOL    HW1 9848   3.981   3.647   3.605
69317SOL    HW2 9849   4.075   3.668   3.722
69318SOL     OW 9850   7.074  10.074   2.250
69318SOL    HW1 9851   7.060  10.068   2.155
69318SOL    HW2 9852   6.989  10.099   2.285
69319SOL     OW 9853  14.434   8.568   7.869
69319SOL    HW1 9854  14.384   8.504   7.919
69319SOL    HW2 9855  14.375   8.643   7.860
69320SOL     OW 9856   7.829   4.219   3.836
69320SOL    HW1 9857   7.749   4.177   3.802
69320SOL    HW2 9858   7.873   4.252   3.758
69321SOL     OW 9859   2.904   7.184   3.124
69321SOL    HW1 9860   2.980   7.239   3.103
69321SOL    HW2 9861   2.909   7.112   3.062
69322SOL     OW 9862   1.011  11.355  14.400
69322SOL    HW1 9863   1.055  11.306  14.470
69322SOL    HW2 9864   1.065  11.340  14.322
69323SOL     OW 9865   9.237  14.037   4.492
69323SOL    HW1 9866   9.280  14.121   4.473
69323SOL    HW2 9867   9.172  14.027   4.422
69324SOL     OW 9868   2.156   6.949   8.630
69324SOL    HW1 9869   2.164   6.998   8.712
69324SOL    HW2 9870   2.240   6.964   8.585
69325SOL     OW 9871  10.235   8.163   5.047
69325SOL    HW1 9872  10.141   8.157   5.064
69325SOL    HW2 9873  10.247   8.116   4.964
69326SOL     OW 9874  11.977   2.614   6.400
69326SOL    HW1 9875  12.048   2.672   6.371
69326SOL    HW2 9876  11.935   2.663   6.471
69327SOL     OW 9877   6.505   9.275   3.187
69327SOL    HW1 9878   6.484   9.349   3.131
69327SOL    HW2 9879   6.546   9.315   3.264
69328SOL     OW 9880  13.139   5.440   8.836
69328SOL    HW1 9881  13.205   5.509   8.841
69328SOL    HW2 9882  13.186   5.363   8.805
69329SOL     OW 9883   2.920  14.080   9.330
69329SOL    HW1 9884   2.989  14.063   9.266
69329SOL    HW2 9885   2.852  14.016   9.311
69330SOL     OW 9886  10.489   6.037  13.051
69330SOL    HW1 9887  10.568   6.050  12.999
69330SOL    HW2 9888  10.512   6.068  13.138
69331SOL     OW 9889  11.676   1.304   0.684
69331SOL    HW1 9890  11.653   1.316   0.591
69331SOL    HW2 9891  11.751   1.245   0.683
69332SOL     OW 9892   5.308  10.010   0.701
69332SOL    HW1 9893   5.297   9.961   0.782
69332SOL    HW2 9894   5.374   9.962   0.652
69333SOL     OW 9895  10.537   0.251   0.024
69333SOL    HW1 9896  10.590   0.310   0.078
69333SOL    HW2 9897  10.601   0.194  14.860
69334SOL     OW 9898  13.951   5.406   4.377
69334SOL    HW1 9899  13.899   5.453   4.312
69334SOL    HW2 9900  13.987   5.331   4.331
69335SOL     OW 9901   5.636  13.261   2.766
69335SOL    HW1 9902   5.626  13.171   2.798
69335SOL    HW2 9903   5.588  13.262   2.683
69336SOL     OW 9904   8.877   7.626   3.830
69336SOL    HW1 9905   8.834   7.578   3.901
69336SOL    HW2 9906   8.811   7.687   3.799
69337SOL     OW 9907  11.927  14.318  12.991
69337SOL    HW1 9908  11.978  14.398  13.006
69337SOL    HW2 9909  11.852  14.326  13.050
69338SOL     OW 9910  10.332   4.056   8.609
69338SOL    HW1 9911  10.367   4.126   8.555
69338SOL    HW2 9912  10.243   4.044   8.578
69339SOL     OW 9913  13.669  14.228   1.463
69339SOL    HW1 9914  13.695  14.317   1.438
69339SOL    HW2 9915  13.710  14.214   1.548
69340SOL     OW 9916   8.572   7.284  12.319
69340SOL    HW1 9917   8.528   7.302  12.402
69340SOL    HW2 9918   8.571   7.188  12.313
69341SOL     OW 9919  12.041   5.054   0.798
69341SOL    HW1 9920  12.027   4.999   0.875
69341SOL    HW2 9921  12.064   4.993   0.728
69342SOL     OW 9922   3.264  11.274  10.719
69342SOL    HW1 9923   3.214  11.193  10.703
69342SOL    HW2 9924   3.343  11.264  10.666
69343SOL     OW 9925   2.811   4.034  12.224
69343SOL    HW1 9926   2.772   3.983  12.295
69343SOL    HW2 9927   2.903   4.046  12.250
69344SOL     OW 9928   4.266  12.171   1.877
69344SOL    HW1 9929   4.326  12.150   1.806
69344SOL    HW2 9930   4.227  12.087   1.902
69345SOL     OW 9931  13.058  10.000  10.640
69345SOL    HW1 9932  13.045   9.909  10.615
69345SOL    HW2 9933  13.080  10.045  10.559
69346SOL     OW 9934   6.453  14.706  13.783
69346SOL    HW1 9935   6.525  14.662  13.738
69346SOL    HW2 9936   6.440  14.655  13.863
69347SOL     OW 9937  10.451   3.937   1.788
69347SOL    HW1 9938  10.393   3.982   1.850
69347SOL    HW2 9939  10.515   3.892   1.843
69348SOL     OW 9940  14.811   2.176  13.622
69348SOL    HW1 9941  14.783   2.266  13.605
69348SOL    HW2 9942  14.816   2.170  13.718
69349SOL     OW 9943   0.235   8.096  13.992
69349SOL    HW1 9944   0.319   8.056  14.013
69349SOL    HW2 9945   0.225   8.166  14.057
69350SOL     OW 9946  13.806  10.544   6.025
69350SOL    HW1 9947  13.878  10.518   6.083
69350SOL    HW2 9948  13.731  10.555   6.084
69351SOL     OW 9949   3.321   0.147   8.371
69351SOL    HW1 9950   3.286   0.174   8.286
69351SOL    HW2 9951   3.255   0.087   8.407
69352SOL     OW 9952   8.208   7.695  14.515
69352SOL    HW1 9953   8.237   7.649  14.435
69352SOL    HW2 9954   8.231   7.635  14.586
69353SOL     OW 9955   6.544   5.922   5.676
69353SOL    HW1 9956   6.630   5.901   5.638
69353SOL    HW2 9957   6.510   5.992   5.620
69354SOL     OW 9958   0.857   2.973   5.378
69354SOL    HW1 9959   0.951   2.990   5.383
69354SOL    HW2 9960   0.850   2.893   5.325
69355SOL     OW 9961   4.478   7.808   0.585
69355SOL    HW1 9962   4.471   7.843   0.496
69355SOL    HW2 9963   4.424   7.866   0.638
69356SOL     OW 9964   0.036   8.798   2.928
69356SOL    HW1 9965  14.872   8.733   2.983
69356SOL    HW2 9966  14.869   8.880   2.948
69357SOL     OW 9967  14.068   3.645   6.692
69357SOL    HW1 9968  14.155   3.646   6.732
69357SOL    HW2 9969  14.013   3.693   6.754
69358SOL     OW 9970   1.754   8.093  13.048
69358SOL    HW1 9971   1.780   8.163  12.988
69358SOL    HW2 9972   1.792   8.014  13.011
69359SOL     OW 9973   1.294   6.711   3.086
69359SOL    HW1 9974   1.315   6.705   2.992
69359SOL    HW2 9975   1.203   6.685   3.091
69360SOL     OW 9976   7.127   3.010   4.971
69360SOL    HW1 9977   7.143   3.008   5.066
69360SOL    HW2 9978   7.034   3.032   4.963
69361SOL     OW 9979   4.607   3.089  12.696
69361SOL    HW1 9980   4.530   3.129  12.736
69361SOL    HW2 9981   4.582   3.072  12.605
69362SOL     OW 9982   7.584  13.932   3.291
69362SOL    HW1 9983   7.652  13.865   3.296
69362SOL    HW2 9984   7.629  14.014   3.313
69363SOL     OW 9985  12.309   1.766   5.013
69363SOL    HW1 9986  12.294   1.673   5.032
69363SOL    HW2 9987  12.292   1.810   5.097
69364SOL     OW 9988   2.468  13.696   3.610
69364SOL    HW1 9989   2.435  13.774   3.655
69364SOL    HW2 9990   2.392  13.637   3.607
69365SOL     OW 9991   0.165  14.123   1.560
69365SOL    HW1 9992   0.207  14.200   1.599
69365SOL    HW2 9993   0.125  14.077   1.633
69366SOL     OW 9994   5.007   1.311   6.260
69366SOL    HW1 9995   5.076   1.375   6.241
69366SOL    HW2 9996   4.975   1.285   6.174
69367SOL     OW 9997  14.619   9.410  11.082
69367SOL    HW1 9998  14.622   9.320  11.049
69367SOL    HW2 9999  14.651   9.403  11.172
69368SOL     OW10000  13.298   4.980   7.453
69368SOL    HW110001  13.266   5.069   7.440
69368SOL    HW210002  13.353   4.963   7.376
69369SOL     OW10003  13.425  13.954  14.106
69369SOL    HW110004  13.463  14.036  14.139
69369SOL    HW210005  13.499  13.908  14.065
69370SOL     OW10006   7.950  13.718   4.300
69370SOL    HW110007   7.995  13.666   4.233
69370SOL    HW210008   8.013  13.723   4.372
69371SOL     OW10009   4.191  12.238  14.201
69371SOL    HW110010   4.180  12.287  14.120
69371SOL    HW210011   4.105  12.201  14.219
69372SOL     OW10012   5.373  11.674   5.144
69372SOL    HW110013   5.414  11.594   5.112
69372SOL    HW210014   5.437  11.713   5.203
69373SOL     OW10015  10.406   3.837  12.461
69373SOL    HW110016  10.329   3.784  12.479
69373SOL    HW210017  10.426   3.881  12.544
69374SOL     OW10018   4.658   7.756  10.448
69374SOL    HW110019   4.704   7.800  10.520
69374SOL    HW210020   4.672   7.663  10.465
69375SOL     OW10021   2.693  14.765   8.932
69375SOL    HW110022   2.639  14.687   8.919
69375SOL    HW210023   2.675  14.792   9.022
69376SOL     OW10024  12.200   2.058  14.529
69376SOL    HW110025  12.293   2.078  14.521
69376SOL    HW210026  12.156   2.141  14.512
69377SOL     OW10027  13.729   9.486   6.794
69377SOL    HW110028  13.797   9.438   6.746
69377SOL    HW210029  13.752   9.476   6.886
69378SOL     OW10030   4.288   7.829   4.491
69378SOL    HW110031   4.208   7.847   4.442
69378SOL    HW210032   4.258   7.802   4.578
69379SOL     OW10033  10.259   7.166   4.581
69379SOL    HW110034  10.292   7.153   4.670
69379SOL    HW210035  10.233   7.258   4.578
69380SOL     OW10036   0.735   2.998   9.951
69380SOL    HW110037   0.723   3.000   9.856
69380SOL    HW210038   0.698   2.914   9.978
69381SOL     OW10039   3.303   6.102   0.710
69381SOL    HW110040   3.256   6.052   0.776
69381SOL    HW210041   3.323   6.038   0.641
69382SOL     OW10042   1.507   5.050   0.981
69382SOL    HW110043   1.531   5.142   0.994
69382SOL    HW210044   1.485   5.018   1.068
69383SOL     OW10045   9.646   4.551  13.646
69383SOL    HW110046   9.637   4.455  13.646
69383SOL    HW210047   9.704   4.569  13.572
69384SOL     OW10048   2.640   0.233   2.419
69384SOL    HW110049   2.730   0.241   2.387
69384SOL    HW210050   2.631   0.302   2.484
69385SOL     OW10051   3.286   1.354   3.000
69385SOL    HW110052   3.369   1.402   3.002
69385SOL    HW210053   3.236   1.391   3.074
69386SOL     OW10054   6.569   9.325  12.999
69386SOL    HW110055   6.551   9.237  12.966
69386SOL    HW210056   6.644   9.313  13.058
69387SOL     OW10057  11.819  12.006  10.538
69387SOL    HW110058  11.869  11.950  10.597
69387SOL    HW210059  11.817  11.959  10.455
69388SOL     OW10060   5.537   4.285   7.636
69388SOL    HW110061   5.609   4.256   7.580
69388SOL    HW210062   5.473   4.323   7.575
69389SOL     OW10063   1.452   8.234   7.189
69389SOL    HW110064   1.433   8.248   7.282
69389SOL    HW210065   1.368   8.207   7.152
69390SOL     OW10066  10.027   4.731   4.675
69390SOL    HW110067  10.045   4.712   4.583
69390SOL    HW210068   9.955   4.673   4.699
69391SOL     OW10069   2.281   7.047  10.952
69391SOL    HW110070   2.321   7.054  10.865
69391SOL    HW210071   2.214   7.115  10.952
69392SOL     OW10072   7.590   4.061   1.334
69392SOL    HW110073   7.581   4.084   1.426
69392SOL    HW210074   7.609   4.145   1.290
69393SOL     OW10075   8.785   1.741   4.158
69393SOL    HW110076   8.871   1.701   4.152
69393SOL    HW210077   8.730   1.690   4.099
69394SOL     OW10078  11.906   2.160  12.064
69394SOL    HW110079  11.893   2.176  12.157
69394SOL    HW210080  11.823   2.122  12.034
69395SOL     OW10081   5.400  11.941   0.367
69395SOL    HW110082   5.417  11.878   0.297
69395SOL    HW210083   5.456  12.016   0.346
69396SOL     OW10084   1.056  14.678  14.864
69396SOL    HW110085   1.147  14.706  14.860
69396SOL    HW210086   1.049  14.630   0.067
69397SOL     OW10087   3.845  10.133   7.610
69397SOL    HW110088   3.765  10.086   7.632
69397SOL    HW210089   3.818  10.200   7.547
69398SOL     OW10090  10.684   6.925   3.466
69398SOL    HW110091  10.594   6.926   3.434
69398SOL    HW210092  10.725   7.002   3.427
69399SOL     OW10093  14.238  11.789   9.727
69399SOL    HW110094  14.166  11.735   9.759
69399SOL    HW210095  14.235  11.867   9.782
69400SOL     OW10096   2.770  11.123   1.320
69400SOL    HW110097   2.758  11.186   1.249
69400SOL    HW210098   2.817  11.050   1.281
69401SOL     OW10099   5.671  11.477  11.015
69401SOL    HW110100   5.724  11.494  11.093
69401SOL    HW210101   5.628  11.394  11.032
69402SOL     OW10102   2.487   9.613  12.622
69402SOL    HW110103   2.552   9.560  12.576
69402SOL    HW210104   2.431   9.647  12.553
69403SOL     OW10105  14.824   9.679   3.637
69403SOL    HW110106   0.040   9.686   3.642
69403SOL    HW210107  14.807   9.585   3.641
69404SOL     OW10108   6.208   7.219   5.193
69404SOL    HW110109   6.219   7.307   5.156
69404SOL    HW210110   6.222   7.231   5.287
69405SOL     OW10111  13.507   3.051   6.781
69405SOL    HW110112  13.523   2.963   6.748
69405SOL    HW210113  13.486   3.102   6.703
69406SOL     OW10114   7.477   9.944   3.681
69406SOL    HW110115   7.382   9.949   3.692
69406SOL    HW210116   7.513   9.992   3.756
69407SOL     OW10117   4.769   5.589   9.671
69407SOL    HW110118   4.786   5.677   9.704
69407SOL    HW210119   4.703   5.602   9.602
69408SOL     OW10120   5.031   1.015   2.843
69408SOL    HW110121   5.028   1.061   2.759
69408SOL    HW210122   5.000   0.926   2.822
69409SOL     OW10123   0.509   4.137  14.377
69409SOL    HW110124   0.514   4.078  14.302
69409SOL    HW210125   0.418   4.167  14.378
69410SOL     OW10126   0.675  14.712   4.842
69410SOL    HW110127   0.665  14.796   4.796
69410SOL    HW210128   0.742  14.729   4.908
69411SOL     OW10129   2.405   5.678   8.840
69411SOL    HW110130   2.332   5.694   8.900
69411SOL    HW210131   2.362   5.651   8.758
69412SOL     OW10132  10.670   4.858   1.030
69412SOL    HW110133  10.715   4.937   1.061
69412SOL    HW210134  10.627   4.885   0.949
69413SOL     OW10135   4.271   8.655   7.046
69413SOL    HW110136   4.289   8.743   7.080
69413SOL    HW210137   4.349   8.633   6.994
69414SOL     OW10138  10.392   2.370   9.367
69414SOL    HW110139  10.414   2.432   9.299
69414SOL    HW210140  10.436   2.404   9.446
69415SOL     OW10141  14.499   0.480   2.620
69415SOL    HW110142  14.495   0.553   2.682
69415SOL    HW210143  14.573   0.427   2.651
69416SOL     OW10144   1.810  13.169   6.547
69416SOL    HW110145   1.767  13.085   6.535
69416SOL    HW210146   1.902  13.152   6.529
69417SOL     OW10147   4.937   8.938  12.591
69417SOL    HW110148   4.901   8.959  12.505
69417SOL    HW210149   4.955   8.844  12.586
69418SOL     OW10150   6.475  12.940   1.641
69418SOL    HW110151   6.469  12.921   1.734
69418SOL    HW210152   6.569  12.942   1.622
69419SOL     OW10153   3.551  10.381  13.631
69419SOL    HW110154   3.609  10.456  13.617
69419SOL    HW210155   3.523  10.389  13.722
69420SOL     OW10156   1.711   2.264  14.821
69420SOL    HW110157   1.706   2.341  14.764
69420SOL    HW210158   1.690   2.298   0.028
69421SOL     OW10159   0.787   1.606   2.943
69421SOL    HW110160   0.699   1.569   2.937
69421SOL    HW210161   0.804   1.612   3.037
69422SOL     OW10162   6.643  10.285   9.792
69422SOL    HW110163   6.562  10.266   9.745
69422SOL    HW210164   6.619  10.278   9.884
69423SOL     OW10165   1.009   8.120   4.442
69423SOL    HW110166   0.968   8.037   4.466
69423SOL    HW210167   1.101   8.099   4.432
69424SOL     OW10168   7.190  12.605   7.049
69424SOL    HW110169   7.127  12.635   6.984
69424SOL    HW210170   7.211  12.684   7.100
69425SOL     OW10171  12.991   5.253   3.690
69425SOL    HW110172  12.906   5.216   3.712
69425SOL    HW210173  12.982   5.346   3.709
69426SOL     OW10174   1.101   0.916  13.924
69426SOL    HW110175   1.182   0.936  13.972
69426SOL    HW210176   1.099   0.821  13.918
69427SOL     OW10177   6.046   7.086   2.466
69427SOL    HW110178   6.050   7.055   2.556
69427SOL    HW210179   6.137   7.094   2.439
69428SOL     OW10180   2.640   6.483   1.324
69428SOL    HW110181   2.554   6.442   1.316
69428SOL    HW210182   2.663   6.471   1.417
69429SOL     OW10183  13.849   0.793   9.359
69429SOL    HW110184  13.810   0.862   9.413
69429SOL    HW210185  13.915   0.838   9.306
69430SOL     OW10186   5.629   2.981   8.533
69430SOL    HW110187   5.598   2.963   8.444
69430SOL    HW210188   5.552   2.968   8.588
69431SOL     OW10189   9.573  13.835   8.555
69431SOL    HW110190   9.578  13.861   8.463
69431SOL    HW210191   9.524  13.905   8.597
69432SOL     OW10192   2.260   1.443   2.870
69432SOL    HW110193   2.224   1.393   2.943
69432SOL    HW210194   2.343   1.477   2.902
69433SOL     OW10195   1.917   3.328   2.754
69433SOL    HW110196   1.946   3.238   2.761
69433SOL    HW210197   1.997   3.379   2.743
69434SOL     OW10198   7.214   1.521   6.284
69434SOL    HW110199   7.218   1.581   6.209
69434SOL    HW210200   7.220   1.578   6.361
69435SOL     OW10201   8.940  12.679  14.005
69435SOL    HW110202   8.903  12.598  14.042
69435SOL    HW210203   8.898  12.749  14.054
69436SOL     OW10204   1.039   6.715   9.626
69436SOL    HW110205   1.033   6.753   9.714
69436SOL    HW210206   0.950   6.723   9.591
69437SOL     OW10207   9.132   5.803   0.451
69437SOL    HW110208   9.165   5.724   0.409
69437SOL    HW210209   9.176   5.874   0.403
69438SOL     OW10210   0.727  10.490   1.709
69438SOL    HW110211   0.650  10.524   1.755
69438SOL    HW210212   0.788  10.465   1.779
69439SOL     OW10213   7.514   8.881  14.614
69439SOL    HW110214   7.491   8.953  14.555
69439SOL    HW210215   7.606   8.894  14.634
69440SOL     OW10216   6.149  12.867  10.222
69440SOL    HW110217   6.059  12.849  10.196
69440SOL    HW210218   6.142  12.921  10.300
69441SOL     OW10219   7.024   3.793   1.792
69441SOL    HW110220   6.939   3.837   1.793
69441SOL    HW210221   7.037   3.768   1.701
69442SOL     OW10222  10.322   4.263  11.104
69442SOL    HW110223  10.389   4.298  11.044
69442SOL    HW210224  10.256   4.332  11.108
69443SOL     OW10225   9.557   8.424  11.057
69443SOL    HW110226   9.481   8.474  11.087
69443SOL    HW210227   9.527   8.333  11.055
69444SOL     OW10228   1.293   0.188  13.344
69444SOL    HW110229   1.258   0.114  13.394
69444SOL    HW210230   1.220   0.215  13.288
69445SOL     OW10231   5.539   3.075  14.293
69445SOL    HW110232   5.514   3.098  14.204
69445SOL    HW210233   5.472   3.117  14.348
69446SOL     OW10234   1.848  11.630   6.820
69446SOL    HW110235   1.938  11.663   6.823
69446SOL    HW210236   1.803  11.677   6.890
69447SOL     OW10237   0.065  11.384   8.941
69447SOL    HW110238   0.028  11.426   9.019
69447SOL    HW210239  14.876  11.324   8.912
69448SOL     OW10240  12.928   0.304   8.627
69448SOL    HW110241  13.021   0.302   8.603
69448SOL    HW210242  12.923   0.264   8.713
69449SOL     OW10243   4.088   7.218   9.974
69449SOL    HW110244   4.156   7.250   9.915
69449SOL    HW210245   4.135   7.191  10.053
69450SOL     OW10246   8.376  12.102   8.563
69450SOL    HW110247   8.301  12.055   8.527
69450SOL    HW210248   8.341  12.148   8.639
69451SOL     OW10249   2.354   6.509   3.480
69451SOL    HW110250   2.379   6.498   3.388
69451SOL    HW210251   2.409   6.446   3.527
69452SOL     OW10252   5.727   4.813   0.801
69452SOL    HW110253   5.657   4.825   0.737
69452SOL    HW210254   5.801   4.861   0.764
69453SOL     OW10255   6.647   9.482  12.534
69453SOL    HW110256   6.554   9.498  12.517
69453SOL    HW210257   6.649   9.424  12.610
69454SOL     OW10258   5.177   7.846   1.611
69454SOL    HW110259   5.144   7.830   1.522
69454SOL    HW210260   5.261   7.891   1.598
69455SOL     OW10261  10.847   7.648   9.537
69455SOL    HW110262  10.811   7.605   9.615
69455SOL    HW210263  10.776   7.648   9.474
69456SOL     OW10264   9.434  12.990   0.459
69456SOL    HW110265   9.377  12.987   0.382
69456SOL    HW210266   9.513  13.036   0.429
69457SOL     OW10267   2.284   1.776   3.111
69457SOL    HW110268   2.250   1.687   3.107
69457SOL    HW210269   2.278   1.800   3.204
69458SOL     OW10270  12.000   7.632  14.092
69458SOL    HW110271  11.974   7.611  14.182
69458SOL    HW210272  12.093   7.610  14.088
69459SOL     OW10273   0.096   3.097   4.716
69459SOL    HW110274   0.167   3.045   4.753
69459SOL    HW210275   0.036   3.032   4.679
69460SOL     OW10276   7.913   4.514   5.712
69460SOL    HW110277   7.943   4.585   5.769
69460SOL    HW210278   7.975   4.443   5.729
69461SOL     OW10279   9.914   1.161   9.765
69461SOL    HW110280   9.844   1.118   9.813
69461SOL    HW210281   9.961   1.089   9.722
69462SOL     OW10282   3.335   2.618  14.220
69462SOL    HW110283   3.279   2.658  14.287
69462SOL    HW210284   3.349   2.687  14.156
69463SOL     OW10285  13.420   3.163   9.262
69463SOL    HW110286  13.473   3.166   9.342
69463SOL    HW210287  13.459   3.093   9.211
69464SOL     OW10288  12.218   1.837   7.068
69464SOL    HW110289  12.130   1.874   7.057
69464SOL    HW210290  12.275   1.895   7.017
69465SOL     OW10291   2.313  11.759   7.042
69465SOL    HW110292   2.372  11.713   7.101
69465SOL    HW210293   2.358  11.760   6.958
69466SOL     OW10294   3.434   1.396   6.507
69466SOL    HW110295   3.354   1.389   6.559
69466SOL    HW210296   3.421   1.334   6.435
69467SOL     OW10297   0.056  12.405  12.863
69467SOL    HW110298  14.868  12.422  12.797
69467SOL    HW210299   0.036  12.466  12.934
69468SOL     OW10300   5.438   4.732   2.038
69468SOL    HW110301   5.442   4.659   1.976
69468SOL    HW210302   5.410   4.806   1.985
69469SOL     OW10303   2.093   6.130  13.720
69469SOL    HW110304   2.181   6.100  13.695
69469SOL    HW210305   2.105   6.221  13.748
69470SOL     OW10306   5.621   4.844   7.453
69470SOL    HW110307   5.585   4.928   7.426
69470SOL    HW210308   5.710   4.844   7.419
69471SOL     OW10309   0.174   3.950   9.155
69471SOL    HW110310   0.129   3.933   9.073
69471SOL    HW210311   0.105   3.966   9.219
69472SOL     OW10312  10.221  10.680   4.132
69472SOL    HW110313  10.245  10.770   4.109
69472SOL    HW210314  10.163  10.690   4.208
69473SOL     OW10315   8.224  11.443   6.768
69473SOL    HW110316   8.283  11.515   6.792
69473SOL    HW210317   8.176  11.476   6.692
69474SOL     OW10318   4.531  10.592  11.388
69474SOL    HW110319   4.472  10.587  11.463
69474SOL    HW210320   4.474  10.618  11.315
69475SOL     OW10321   6.211  10.129  11.945
69475SOL    HW110322   6.224  10.086  11.860
69475SOL    HW210323   6.293  10.174  11.963
69476SOL     OW10324   7.125   9.425  14.674
69476SOL    HW110325   7.034   9.423  14.704
69476SOL    HW210326   7.149   9.332  14.666
69477SOL     OW10327   2.732   2.397   3.346
69477SOL    HW110328   2.731   2.352   3.261
69477SOL    HW210329   2.739   2.326   3.410
69478SOL     OW10330  12.419   3.728   2.459
69478SOL    HW110331  12.492   3.759   2.406
69478SOL    HW210332  12.427   3.777   2.541
69479SOL     OW10333  10.549   2.169   7.601
69479SOL    HW110334  10.477   2.215   7.645
69479SOL    HW210335  10.523   2.077   7.603
69480SOL     OW10336   8.032   9.839   8.572
69480SOL    HW110337   8.006   9.748   8.582
69480SOL    HW210338   8.126   9.839   8.590
69481SOL     OW10339   6.148  12.223   8.624
69481SOL    HW110340   6.132  12.144   8.675
69481SOL    HW210341   6.183  12.190   8.541
69482SOL     OW10342   8.148   4.112  14.780
69482SOL    HW110343   8.156   4.069  14.695
69482SOL    HW210344   8.067   4.163  14.774
69483SOL     OW10345  12.514   2.781   3.015
69483SOL    HW110346  12.567   2.721   2.963
69483SOL    HW210347  12.573   2.813   3.083
69484SOL     OW10348   4.715   1.482  14.045
69484SOL    HW110349   4.663   1.403  14.063
69484SOL    HW210350   4.784   1.480  14.111
69485SOL     OW10351  14.447   9.825  10.178
69485SOL    HW110352  14.413   9.842  10.090
69485SOL    HW210353  14.531   9.781  10.163
69486SOL     OW10354  12.470   3.351   3.207
69486SOL    HW110355  12.426   3.427   3.170
69486SOL    HW210356  12.531   3.322   3.139
69487SOL     OW10357   6.857   2.355  11.208
69487SOL    HW110358   6.880   2.284  11.148
69487SOL    HW210359   6.765   2.372  11.191
69488SOL     OW10360   3.155   5.637   6.822
69488SOL    HW110361   3.210   5.702   6.778
69488SOL    HW210362   3.165   5.558   6.769
69489SOL     OW10363   3.708   9.323  12.867
69489SOL    HW110364   3.690   9.249  12.925
69489SOL    HW210365   3.802   9.319  12.851
69490SOL     OW10366   7.789  12.148   5.949
69490SOL    HW110367   7.858  12.186   5.895
69490SOL    HW210368   7.829  12.139   6.036
69491SOL     OW10369  14.703  11.650  12.684
69491SOL    HW110370  14.736  11.672  12.597
69491SOL    HW210371  14.611  11.675  12.682
69492SOL     OW10372   8.556   7.810  11.438
69492SOL    HW110373   8.543   7.792  11.345
69492SOL    HW210374   8.649   7.792  11.453
69493SOL     OW10375  14.238   4.339   6.396
69493SOL    HW110376  14.203   4.422   6.364
69493SOL    HW210377  14.161   4.283   6.408
69494SOL     OW10378  10.092   2.758   6.325
69494SOL    HW110379  10.033   2.785   6.255
69494SOL    HW210380  10.095   2.662   6.318
69495SOL     OW10381   0.166  12.775   2.875
69495SOL    HW110382   0.093  12.762   2.937
69495SOL    HW210383   0.124  12.776   2.789
69496SOL     OW10384   3.444   8.957   6.992
69496SOL    HW110385   3.494   8.962   6.910
69496SOL    HW210386   3.426   9.049   7.013
69497SOL     OW10387   3.498   7.178   3.599
69497SOL    HW110388   3.526   7.265   3.626
69497SOL    HW210389   3.527   7.120   3.670
69498SOL     OW10390   9.890  14.530   1.518
69498SOL    HW110391   9.929  14.613   1.544
69498SOL    HW210392   9.817  14.554   1.460
69499SOL     OW10393   6.021   4.840   5.037
69499SOL    HW110394   6.017   4.760   5.090
69499SOL    HW210395   5.989   4.909   5.095
69500SOL     OW10396  12.710   0.954   8.207
69500SOL    HW110397  12.762   0.992   8.136
69500SOL    HW210398  12.692   1.028   8.266
69501SOL     OW10399   9.601  11.061   7.406
69501SOL    HW110400   9.516  11.085   7.370
69501SOL    HW210401   9.657  11.048   7.330
69502SOL     OW10402   1.858  10.252  14.011
69502SOL    HW110403   1.949  10.251  14.038
69502SOL    HW210404   1.842  10.164  13.977
69503SOL     OW10405   5.833   6.539  12.411
69503SOL    HW110406   5.845   6.444  12.415
69503SOL    HW210407   5.921   6.575  12.422
69504SOL     OW10408   9.861   6.400  10.099
69504SOL    HW110409   9.792   6.464  10.081
69504SOL    HW210410   9.840   6.365  10.185
69505SOL     OW10411   5.975  11.317   1.506
69505SOL    HW110412   5.967  11.405   1.544
69505SOL    HW210413   5.888  11.298   1.471
69506SOL     OW10414   2.103  12.504  13.222
69506SOL    HW110415   2.054  12.579  13.255
69506SOL    HW210416   2.038  12.452  13.174
69507SOL     OW10417   4.480  12.056   2.622
69507SOL    HW110418   4.396  12.010   2.615
69507SOL    HW210419   4.483  12.087   2.712
69508SOL     OW10420  11.503   2.290   8.736
69508SOL    HW110421  11.493   2.211   8.683
69508SOL    HW210422  11.418   2.301   8.778
69509SOL     OW10423   6.735   1.230   8.907
69509SOL    HW110424   6.719   1.281   8.827
69509SOL    HW210425   6.648   1.215   8.943
69510SOL     OW10426  12.254   0.629   8.803
69510SOL    HW110427  12.257   0.651   8.710
69510SOL    HW210428  12.346   0.619   8.829
69511SOL     OW10429  13.384   5.918  11.811
69511SOL    HW110430  13.415   5.995  11.858
69511SOL    HW210431  13.392   5.847  11.874
69512SOL     OW10432   5.792   0.087  12.922
69512SOL    HW110433   5.870   0.054  12.877
69512SOL    HW210434   5.756   0.153  12.864
69513SOL     OW10435   9.098  12.704   2.435
69513SOL    HW110436   9.100  12.740   2.524
69513SOL    HW210437   9.100  12.782   2.378
69514SOL     OW10438  12.459   6.937   7.247
69514SOL    HW110439  12.516   6.966   7.317
69514SOL    HW210440  12.475   6.999   7.175
69515SOL     OW10441  13.744  11.561   9.345
69515SOL    HW110442  13.743  11.472   9.310
69515SOL    HW210443  13.658  11.596   9.322
69516SOL     OW10444  13.821   4.077  14.837
69516SOL    HW110445  13.855   4.160  14.872
69516SOL    HW210446  13.892   4.044  14.781
69517SOL     OW10447   7.810  12.739  10.287
69517SOL    HW110448   7.903  12.757  10.305
69517SOL    HW210449   7.777  12.821  10.250
69518SOL     OW10450  13.270   3.761   6.097
69518SOL    HW110451  13.228   3.805   6.171
69518SOL    HW210452  13.234   3.803   6.020
69519SOL     OW10453   6.363   4.709   1.268
69519SOL    HW110454   6.269   4.691   1.268
69519SOL    HW210455   6.371   4.798   1.302
69520SOL     OW10456  13.604   6.063   8.763
69520SOL    HW110457  13.668   6.017   8.709
69520SOL    HW210458  13.525   6.008   8.760
69521SOL     OW10459   3.121   5.492   3.478
69521SOL    HW110460   3.030   5.478   3.505
69521SOL    HW210461   3.116   5.551   3.404
69522SOL     OW10462   2.149   2.076   5.927
69522SOL    HW110463   2.088   2.132   5.975
69522SOL    HW210464   2.094   2.028   5.864
69523SOL     OW10465   3.811  11.165   8.740
69523SOL    HW110466   3.762  11.246   8.752
69523SOL    HW210467   3.891  11.176   8.791
69524SOL     OW10468   1.243  10.230   4.783
69524SOL    HW110469   1.234  10.253   4.691
69524SOL    HW210470   1.199  10.146   4.792
69525SOL     OW10471   9.792   3.024  14.246
69525SOL    HW110472   9.750   2.972  14.315
69525SOL    HW210473   9.877   3.047  14.282
69526SOL     OW10474   4.664  11.140  14.412
69526SOL    HW110475   4.626  11.228  14.404
69526SOL    HW210476   4.759  11.155  14.412
69527SOL     OW10477  11.769   4.049   2.059
69527SOL    HW110478  11.809   4.060   1.973
69527SOL    HW210479  11.743   3.957   2.062
69528SOL     OW10480  13.912   1.572   9.530
69528SOL    HW110481  13.958   1.586   9.447
69528SOL    HW210482  13.934   1.483   9.555
69529SOL     OW10483  10.460  10.474   0.334
69529SOL    HW110484  10.438  10.558   0.374
69529SOL    HW210485  10.385  10.454   0.279
69530SOL     OW10486  10.314   9.495   6.599
69530SOL    HW110487  10.324   9.539   6.514
69530SOL    HW210488  10.393   9.440   6.607
69531SOL     OW10489   1.361   6.253   3.567
69531SOL    HW110490   1.395   6.174   3.524
69531SOL    HW210491   1.438   6.304   3.589
69532SOL     OW10492   1.336   2.594  14.322
69532SOL    HW110493   1.325   2.678  14.366
69532SOL    HW210494   1.341   2.617  14.229
69533SOL     OW10495   9.187   3.046   8.433
69533SOL    HW110496   9.165   3.045   8.526
69533SOL    HW210497   9.103   3.042   8.388
69534SOL     OW10498   4.107  14.326   8.615
69534SOL    HW110499   4.110  14.330   8.711
69534SOL    HW210500   4.179  14.268   8.592
69535SOL     OW10501  10.616   5.665   5.337
69535SOL    HW110502  10.597   5.739   5.394
69535SOL    HW210503  10.585   5.588   5.385
69536SOL     OW10504  12.204   7.591  12.299
69536SOL    HW110505  12.154   7.618  12.222
69536SOL    HW210506  12.194   7.496  12.302
69537SOL     OW10507   9.204  12.933   6.841
69537SOL    HW110508   9.174  12.894   6.923
69537SOL    HW210509   9.240  12.859   6.791
69538SOL     OW10510   1.195   6.289   9.951
69538SOL    HW110511   1.113   6.243   9.933
69538SOL    HW210512   1.262   6.234   9.911
69539SOL     OW10513   0.021  11.777   5.461
69539SOL    HW110514   0.111  11.772   5.493
69539SOL    HW210515  14.847  11.765   5.538
69540SOL     OW10516   7.850   6.169   0.196
69540SOL    HW110517   7.893   6.250   0.224
69540SOL    HW210518   7.868   6.163   0.102
69541SOL     OW10519   9.833   3.833  13.224
69541SOL    HW110520   9.818   3.742  13.250
69541SOL    HW210521   9.749   3.877  13.239
69542SOL     OW10522  11.692   7.510  12.039
69542SOL    HW110523  11.677   7.605  12.037
69542SOL    HW210524  11.632   7.478  12.106
69543SOL     OW10525   8.380   9.317   4.138
69543SOL    HW110526   8.383   9.247   4.202
69543SOL    HW210527   8.420   9.392   4.182
69544SOL     OW10528  12.094   3.853   8.290
69544SOL    HW110529  12.177   3.875   8.248
69544SOL    HW210530  12.061   3.777   8.241
69545SOL     OW10531   3.623   2.604   1.011
69545SOL    HW110532   3.531   2.590   0.987
69545SOL    HW210533   3.670   2.600   0.928
69546SOL     OW10534  11.702   1.417   8.280
69546SOL    HW110535  11.742   1.358   8.216
69546SOL    HW210536  11.748   1.500   8.267
69547SOL     OW10537   7.670  14.668   3.584
69547SOL    HW110538   7.666  14.702   3.495
69547SOL    HW210539   7.747  14.710   3.622
69548SOL     OW10540  13.539   5.660   0.180
69548SOL    HW110541  13.519   5.741   0.134
69548SOL    HW210542  13.458   5.609   0.175
69549SOL     OW10543   0.684   9.569   8.534
69549SOL    HW110544   0.769   9.550   8.572
69549SOL    HW210545   0.703   9.595   8.443
69550SOL     OW10546   7.285   7.872   1.254
69550SOL    HW110547   7.359   7.853   1.311
69550SOL    HW210548   7.215   7.816   1.286
69551SOL     OW10549   9.021   1.924   3.086
69551SOL    HW110550   8.933   1.901   3.056
69551SOL    HW210551   9.048   1.848   3.138
69552SOL     OW10552  14.128  12.172   7.035
69552SOL    HW110553  14.179  12.228   7.094
69552SOL    HW210554  14.189  12.148   6.966
69553SOL     OW10555   2.401   0.802   1.080
69553SOL    HW110556   2.312   0.766   1.086
69553SOL    HW210557   2.394   0.890   1.116
69554SOL     OW10558   9.767  14.034   9.874
69554SOL    HW110559   9.784  14.053   9.966
69554SOL    HW210560   9.823  13.960   9.854
69555SOL     OW10561   4.781  11.986   8.597
69555SOL    HW110562   4.845  12.007   8.528
69555SOL    HW210563   4.792  11.893   8.611
69556SOL     OW10564   6.898  11.118  11.578
69556SOL    HW110565   6.863  11.173  11.648
69556SOL    HW210566   6.878  11.167  11.498
69557SOL     OW10567  12.354   5.519  13.699
69557SOL    HW110568  12.327   5.428  13.688
69557SOL    HW210569  12.272   5.569  13.700
69558SOL     OW10570  10.321   9.457   3.632
69558SOL    HW110571  10.267   9.536   3.634
69558SOL    HW210572  10.338   9.437   3.724
69559SOL     OW10573   0.094   8.304  13.302
69559SOL    HW110574   0.039   8.270  13.232
69559SOL    HW210575   0.120   8.226  13.352
69560SOL     OW10576   4.401   6.936  12.352
69560SOL    HW110577   4.403   6.845  12.382
69560SOL    HW210578   4.462   6.938  12.278
69561SOL     OW10579   9.202   6.508  14.734
69561SOL    HW110580   9.203   6.515  14.829
69561SOL    HW210581   9.292   6.527  14.707
69562SOL     OW10582   3.639  13.180   0.238
69562SOL    HW110583   3.575  13.246   0.266
69562SOL    HW210584   3.605  13.147   0.154
69563SOL     OW10585  14.463   5.560   3.298
69563SOL    HW110586  14.488   5.472   3.271
69563SOL    HW210587  14.546   5.609   3.300
69564SOL     OW10588   6.600   8.412  10.480
69564SOL    HW110589   6.586   8.373  10.566
69564SOL    HW210590   6.692   8.393  10.460
69565SOL     OW10591   3.662   9.442   1.428
69565SOL    HW110592   3.752   9.412   1.444
69565SOL    HW210593   3.667   9.537   1.438
69566SOL     OW10594   3.799   1.313   8.829
69566SOL    HW110595   3.736   1.385   8.824
69566SOL    HW210596   3.851   1.322   8.749
69567SOL     OW10597  14.210  10.756   4.900
69567SOL    HW110598  14.192  10.709   4.818
69567SOL    HW210599  14.303  10.738   4.917
69568SOL     OW10600   3.352  14.328   0.532
69568SOL    HW110601   3.325  14.345   0.623
69568SOL    HW210602   3.433  14.278   0.540
69569SOL     OW10603   6.867  14.644  12.865
69569SOL    HW110604   6.801  14.666  12.799
69569SOL    HW210605   6.949  14.676  12.828
69570SOL     OW10606   4.336   9.196   1.187
69570SOL    HW110607   4.415   9.144   1.171
69570SOL    HW210608   4.370   9.280   1.219
69571SOL     OW10609   9.115   8.959   6.150
69571SOL    HW110610   9.129   8.900   6.223
69571SOL    HW210611   9.055   8.912   6.092
69572SOL     OW10612   1.602   3.091   0.781
69572SOL    HW110613   1.577   3.079   0.690
69572SOL    HW210614   1.695   3.066   0.784
69573SOL     OW10615   0.266   7.348   4.245
69573SOL    HW110616   0.216   7.267   4.240
69573SOL    HW210617   0.357   7.320   4.245
69574SOL     OW10618   6.686   5.788   9.468
69574SOL    HW110619   6.728   5.706   9.441
69574SOL    HW210620   6.594   5.777   9.445
69575SOL     OW10621   7.769   4.021  12.238
69575SOL    HW110622   7.724   3.956  12.183
69575SOL    HW210623   7.719   4.101  12.225
69576SOL     OW10624  13.713   9.844   4.609
69576SOL    HW110625  13.630   9.797   4.599
69576SOL    HW210626  13.705   9.889   4.693
69577SOL     OW10627   0.459   6.808   9.665
69577SOL    HW110628   0.473   6.751   9.590
69577SOL    HW210629   0.367   6.833   9.660
69578SOL     OW10630   1.171   2.661  10.361
69578SOL    HW110631   1.131   2.605  10.429
69578SOL    HW210632   1.259   2.678  10.393
69579SOL     OW10633   1.532  13.090  13.967
69579SOL    HW110634   1.508  12.998  13.981
69579SOL    HW210635   1.532  13.101  13.872
69580SOL     OW10636  12.427   9.085   8.162
69580SOL    HW110637  12.374   9.081   8.083
69580SOL    HW210638  12.380   9.030   8.225
69581SOL     OW10639  10.106   2.148   4.805
69581SOL    HW110640  10.170   2.095   4.758
69581SOL    HW210641  10.078   2.215   4.743
69582SOL     OW10642  12.700   6.341  13.589
69582SOL    HW110643  12.687   6.436  13.590
69582SOL    HW210644  12.734   6.320  13.676
69583SOL     OW10645  11.777  13.504  14.195
69583SOL    HW110646  11.871  13.502  14.212
69583SOL    HW210647  11.764  13.586  14.148
69584SOL     OW10648   8.976   7.156  11.677
69584SOL    HW110649   8.938   7.069  11.661
69584SOL    HW210650   8.901   7.214  11.685
69585SOL     OW10651   3.537  14.753   1.830
69585SOL    HW110652   3.536  14.822   1.897
69585SOL    HW210653   3.462  14.698   1.851
69586SOL     OW10654   0.358  11.119   4.942
69586SOL    HW110655   0.400  11.046   4.896
69586SOL    HW210656   0.299  11.077   5.004
69587SOL     OW10657   7.950   0.386   0.924
69587SOL    HW110658   8.031   0.437   0.921
69587SOL    HW210659   7.976   0.301   0.959
69588SOL     OW10660   2.655  12.114  10.606
69588SOL    HW110661   2.593  12.074  10.666
69588SOL    HW210662   2.611  12.113  10.521
69589SOL     OW10663  12.896   1.077  13.984
69589SOL    HW110664  12.873   1.123  13.904
69589SOL    HW210665  12.898   1.145  14.051
69590SOL     OW10666  12.274  12.059  12.404
69590SOL    HW110667  12.348  12.076  12.347
69590SOL    HW210668  12.243  12.146  12.430
69591SOL     OW10669   7.997   5.643   2.237
69591SOL    HW110670   8.055   5.679   2.304
69591SOL    HW210671   7.913   5.686   2.253
69592SOL     OW10672   6.180   8.986   8.486
69592SOL    HW110673   6.150   9.007   8.574
69592SOL    HW210674   6.129   9.042   8.429
69593SOL     OW10675   7.150   0.075   6.824
69593SOL    HW110676   7.184   0.125   6.750
69593SOL    HW210677   7.217   0.083   6.891
69594SOL     OW10678   0.895  13.054   3.759
69594SOL    HW110679   0.990  13.059   3.757
69594SOL    HW210680   0.876  12.960   3.761
69595SOL     OW10681  10.010   6.969  12.934
69595SOL    HW110682  10.071   7.042  12.947
69595SOL    HW210683  10.006   6.960  12.838
69596SOL     OW10684   6.931   5.961   2.450
69596SOL    HW110685   6.911   6.033   2.509
69596SOL    HW210686   7.026   5.954   2.451
69597SOL     OW10687   3.383  12.262   2.884
69597SOL    HW110688   3.365  12.321   2.957
69597SOL    HW210689   3.472  12.231   2.901
69598SOL     OW10690  13.713  10.148  14.461
69598SOL    HW110691  13.754  10.062  14.451
69598SOL    HW210692  13.660  10.141  14.541
69599SOL     OW10693   0.946  13.858   4.379
69599SOL    HW110694   0.872  13.830   4.325
69599SOL    HW210695   0.907  13.877   4.465
69600SOL     OW10696   3.250   6.684  12.898
69600SOL    HW110697   3.260   6.606  12.953
69600SOL    HW210698   3.272   6.757  12.955
69601SOL     OW10699  12.163   6.697  13.968
69601SOL    HW110700  12.152   6.611  13.929
69601SOL    HW210701  12.243   6.732  13.928
69602SOL     OW10702   1.001   4.063   3.420
69602SOL    HW110703   0.968   4.153   3.424
69602SOL    HW210704   1.097   4.073   3.423
69603SOL     OW10705   3.344  14.375   2.844
69603SOL    HW110706   3.416  14.418   2.890
69603SOL    HW210707   3.378  14.359   2.756
69604SOL     OW10708   6.090   5.865   2.428
69604SOL    HW110709   6.179   5.858   2.463
69604SOL    HW210710   6.049   5.782   2.452
69605SOL     OW10711   7.769   0.848   2.691
69605SOL    HW110712   7.847   0.855   2.746
69605SOL    HW210713   7.696   0.844   2.752
69606SOL     OW10714   3.674  11.226  13.067
69606SOL    HW110715   3.683  11.234  12.972
69606SOL    HW210716   3.588  11.186  13.079
69607SOL     OW10717  12.746   1.245   3.381
69607SOL    HW110718  12.777   1.238   3.472
69607SOL    HW210719  12.651   1.255   3.389
69608SOL     OW10720   8.049  12.265   0.027
69608SOL    HW110721   7.966  12.296  14.869
69608SOL    HW210722   8.043  12.288   0.119
69609SOL     OW10723   2.231  13.679   6.678
69609SOL    HW110724   2.166  13.710   6.740
69609SOL    HW210725   2.282  13.613   6.727
69610SOL     OW10726   2.802   2.124  11.542
69610SOL    HW110727   2.862   2.170  11.600
69610SOL    HW210728   2.733   2.187  11.523
69611SOL     OW10729  11.156  12.778   4.232
69611SOL    HW110730  11.067  12.776   4.269
69611SOL    HW210731  11.143  12.786   4.138
69612SOL     OW10732   2.494  11.446  12.900
69612SOL    HW110733   2.502  11.407  12.813
69612SOL    HW210734   2.564  11.405  12.951
69613SOL     OW10735   8.278  10.113   1.172
69613SOL    HW110736   8.201  10.056   1.172
69613SOL    HW210737   8.337  10.074   1.107
69614SOL     OW10738   7.766  11.624  10.651
69614SOL    HW110739   7.792  11.645  10.561
69614SOL    HW210740   7.823  11.677  10.706
69615SOL     OW10741  13.794   3.039  12.787
69615SOL    HW110742  13.839   2.955  12.777
69615SOL    HW210743  13.725   3.038  12.721
69616SOL     OW10744   2.889   8.322   4.339
69616SOL    HW110745   2.852   8.251   4.287
69616SOL    HW210746   2.813   8.371   4.371
69617SOL     OW10747   4.052   6.583   5.718
69617SOL    HW110748   4.111   6.575   5.793
69617SOL    HW210749   4.081   6.514   5.658
69618SOL     OW10750   4.561   3.392   2.925
69618SOL    HW110751   4.472   3.380   2.957
69618SOL    HW210752   4.576   3.317   2.867
69619SOL     OW10753   4.221  13.569  10.811
69619SOL    HW110754   4.228  13.662  10.788
69619SOL    HW210755   4.148  13.564  10.872
69620SOL     OW10756   8.564   0.390   2.715
69620SOL    HW110757   8.528   0.302   2.729
69620SOL    HW210758   8.646   0.375   2.667
69621SOL     OW10759  13.134   6.781   1.941
69621SOL    HW110760  13.074   6.719   1.982
69621SOL    HW210761  13.215   6.731   1.930
69622SOL     OW10762  13.654   5.562  13.383
69622SOL    HW110763  13.735   5.585  13.338
69622SOL    HW210764  13.640   5.635  13.444
69623SOL     OW10765   9.462   8.403  10.755
69623SOL    HW110766   9.418   8.473  10.707
69623SOL    HW210767   9.511   8.447  10.824
69624SOL     OW10768   5.740  10.665  14.817
69624SOL    HW110769   5.801  10.697  14.750
69624SOL    HW210770   5.653  10.691  14.785
69625SOL     OW10771   1.140   8.834   2.900
69625SOL    HW110772   1.122   8.871   2.987
69625SOL    HW210773   1.236   8.834   2.894
69626SOL     OW10774  13.184   7.651  10.057
69626SOL    HW110775  13.163   7.665   9.965
69626SOL    HW210776  13.150   7.564  10.077
69627SOL     OW10777  13.236  10.377   4.117
69627SOL    HW110778  13.200  10.363   4.204
69627SOL    HW210779  13.207  10.300   4.067
69628SOL     OW10780  11.697  12.540   6.045
69628SOL    HW110781  11.645  12.511   5.970
69628SOL    HW210782  11.767  12.593   6.007
69629SOL     OW10783  13.199  10.062  12.263
69629SOL    HW110784  13.181  10.095  12.351
69629SOL    HW210785  13.237  10.137  12.217
69630SOL     OW10786   7.802  12.003   4.051
69630SOL    HW110787   7.766  11.914   4.049
69630SOL    HW210788   7.896  11.990   4.041
69631SOL     OW10789   1.076   6.650  10.220
69631SOL    HW110790   1.121   6.570  10.195
69631SOL    HW210791   1.114   6.718  10.165
69632SOL     OW10792  12.534   1.451   0.771
69632SOL    HW110793  12.616   1.499   0.784
69632SOL    HW210794  12.491   1.453   0.856
69633SOL     OW10795   4.934  10.596   5.301
69633SOL    HW110796   4.990  10.519   5.297
69633SOL    HW210797   4.993  10.668   5.325
69634SOL     OW10798   9.051   1.029  11.477
69634SOL    HW110799   9.087   1.116  11.489
69634SOL    HW210800   9.126   0.975  11.452
69635SOL     OW10801  13.328   1.989  13.697
69635SOL    HW110802  13.273   1.910  13.695
69635SOL    HW210803  13.411   1.959  13.733
69636SOL     OW10804   9.940   3.998   8.217
69636SOL    HW110805   9.876   4.063   8.246
69636SOL    HW210806   9.995   4.045   8.154
69637SOL     OW10807   4.532   8.982  13.401
69637SOL    HW110808   4.480   9.043  13.349
69637SOL    HW210809   4.621   9.018  13.400
69638SOL     OW10810   0.377   6.880   1.652
69638SOL    HW110811   0.420   6.917   1.729
69638SOL    HW210812   0.330   6.803   1.685
69639SOL     OW10813   5.696   5.346   1.041
69639SOL    HW110814   5.606   5.350   1.010
69639SOL    HW210815   5.750   5.351   0.962
69640SOL     OW10816   7.468   1.143   6.531
69640SOL    HW110817   7.505   1.203   6.596
69640SOL    HW210818   7.381   1.179   6.513
69641SOL     OW10819  14.007   4.762   3.872
69641SOL    HW110820  14.023   4.706   3.949
69641SOL    HW210821  14.063   4.724   3.804
69642SOL     OW10822  10.309   7.137   3.931
69642SOL    HW110823  10.253   7.178   3.865
69642SOL    HW210824  10.377   7.092   3.880
69643SOL     OW10825  14.780   0.724   0.586
69643SOL    HW110826  14.734   0.753   0.664
69643SOL    HW210827  14.871   0.749   0.601
69644SOL     OW10828   7.855   8.441   6.006
69644SOL    HW110829   7.897   8.524   5.986
69644SOL    HW210830   7.920   8.392   6.057
69645SOL     OW10831   9.343   9.334   5.712
69645SOL    HW110832   9.394   9.278   5.653
69645SOL    HW210833   9.329   9.415   5.662
69646SOL     OW10834   4.399  13.252  13.279
69646SOL    HW110835   4.428  13.161  13.271
69646SOL    HW210836   4.480  13.302  13.288
69647SOL     OW10837   9.817   6.123  12.217
69647SOL    HW110838   9.766   6.203  12.206
69647SOL    HW210839   9.885   6.146  12.280
69648SOL     OW10840   7.915  10.073  14.351
69648SOL    HW110841   7.982  10.134  14.380
69648SOL    HW210842   7.914  10.004  14.418
69649SOL     OW10843   6.713   9.033   7.812
69649SOL    HW110844   6.638   9.065   7.863
69649SOL    HW210845   6.680   8.953   7.770
69650SOL     OW10846   1.647  11.090   8.746
69650SOL    HW110847   1.561  11.132   8.740
69650SOL    HW210848   1.636  11.007   8.699
69651SOL     OW10849   9.752  13.438   8.659
69651SOL    HW110850   9.846  13.428   8.674
69651SOL    HW210851   9.715  13.354   8.684
69652SOL     OW10852   5.057   1.699  10.497
69652SOL    HW110853   4.990   1.767  10.499
69652SOL    HW210854   5.012   1.621  10.530
69653SOL     OW10855  11.131  10.411  11.119
69653SOL    HW110856  11.080  10.480  11.161
69653SOL    HW210857  11.222  10.437  11.132
69654SOL     OW10858  14.505   2.414   8.725
69654SOL    HW110859  14.534   2.349   8.789
69654SOL    HW210860  14.573   2.482   8.727
69655SOL     OW10861   6.144   5.672   4.267
69655SOL    HW110862   6.204   5.643   4.199
69655SOL    HW210863   6.179   5.757   4.296
69656SOL     OW10864   5.798   9.132   2.962
69656SOL    HW110865   5.778   9.171   3.047
69656SOL    HW210866   5.737   9.058   2.954
69657SOL     OW10867   2.256   0.104   9.730
69657SOL    HW110868   2.312   0.158   9.674
69657SOL    HW210869   2.169   0.144   9.722
69658SOL     OW10870  12.660   4.950   0.695
69658SOL    HW110871  12.655   5.043   0.715
69658SOL    HW210872  12.696   4.910   0.774
69659SOL     OW10873   3.030  14.509   8.324
69659SOL    HW110874   2.980  14.433   8.295
69659SOL    HW210875   3.005  14.579   8.263
69660SOL     OW10876   8.538   0.176  11.576
69660SOL    HW110877   8.499   0.192  11.489
69660SOL    HW210878   8.597   0.249  11.590
69661SOL     OW10879   7.963   6.402  12.767
69661SOL    HW110880   7.979   6.314  12.799
69661SOL    HW210881   7.974   6.396  12.672
69662SOL     OW10882   0.099   1.320   1.684
69662SOL    HW110883   0.192   1.308   1.701
69662SOL    HW210884   0.081   1.264   1.609
69663SOL     OW10885   7.079   6.124   6.662
69663SOL    HW110886   7.110   6.129   6.752
69663SOL    HW210887   7.054   6.214   6.640
69664SOL     OW10888   7.385  10.253  14.635
69664SOL    HW110889   7.353  10.222  14.720
69664SOL    HW210890   7.376  10.348  14.639
69665SOL     OW10891   6.024  13.956   1.891
69665SOL    HW110892   6.042  13.955   1.797
69665SOL    HW210893   6.108  13.940   1.932
69666SOL     OW10894  10.598   7.505  10.597
69666SOL    HW110895  10.553   7.588  10.616
69666SOL    HW210896  10.527   7.442  10.584
69667SOL     OW10897   2.943  14.389   7.891
69667SOL    HW110898   2.978  14.300   7.881
69667SOL    HW210899   3.013  14.437   7.935
69668SOL     OW10900   8.520   9.748  10.843
69668SOL    HW110901   8.533   9.816  10.909
69668SOL    HW210902   8.579   9.772  10.772
69669SOL     OW10903  10.463   8.149   5.288
69669SOL    HW110904  10.508   8.211   5.345
69669SOL    HW210905  10.370   8.164   5.306
69670SOL     OW10906  11.385   7.274   4.188
69670SOL    HW110907  11.321   7.225   4.136
69670SOL    HW210908  11.439   7.320   4.123
69671SOL     OW10909  10.534  13.493  10.178
69671SOL    HW110910  10.530  13.505  10.273
69671SOL    HW210911  10.574  13.408  10.166
69672SOL     OW10912  13.454   8.300   4.044
69672SOL    HW110913  13.444   8.252   3.962
69672SOL    HW210914  13.493   8.237   4.104
69673SOL     OW10915  11.018  12.537   0.161
69673SOL    HW110916  10.949  12.519   0.097
69673SOL    HW210917  11.041  12.628   0.145
69674SOL     OW10918  11.832   8.476   2.604
69674SOL    HW110919  11.805   8.537   2.536
69674SOL    HW210920  11.915   8.510   2.636
69675SOL     OW10921   1.816   6.438  12.080
69675SOL    HW110922   1.820   6.407  11.990
69675SOL    HW210923   1.740   6.393  12.118
69676SOL     OW10924   1.603   5.206  12.260
69676SOL    HW110925   1.582   5.298  12.276
69676SOL    HW210926   1.540   5.158  12.314
69677SOL     OW10927   9.950   6.816   4.545
69677SOL    HW110928   9.866   6.771   4.552
69677SOL    HW210929   9.965   6.823   4.450
69678SOL     OW10930  14.494   8.327   8.165
69678SOL    HW110931  14.423   8.347   8.104
69678SOL    HW210932  14.520   8.412   8.200
69679SOL     OW10933   2.241   7.758  10.979
69679SOL    HW110934   2.279   7.778  11.065
69679SOL    HW210935   2.149   7.785  10.987
69680SOL     OW10936   1.760  13.562  11.002
69680SOL    HW110937   1.804  13.478  10.991
69680SOL    HW210938   1.831  13.627  10.996
69681SOL     OW10939   8.763   0.619   3.596
69681SOL    HW110940   8.708   0.583   3.526
69681SOL    HW210941   8.700   0.649   3.662
69682SOL     OW10942   6.405  13.256   4.411
69682SOL    HW110943   6.365  13.308   4.342
69682SOL    HW210944   6.454  13.188   4.365
69683SOL     OW10945   6.468  11.881   8.234
69683SOL    HW110946   6.526  11.818   8.277
69683SOL    HW210947   6.489  11.873   8.141
69684SOL     OW10948  13.937  12.737  14.168
69684SOL    HW110949  13.914  12.723  14.260
69684SOL    HW210950  13.878  12.680  14.120
69685SOL     OW10951   9.820   1.571   3.722
69685SOL    HW110952   9.731   1.604   3.730
69685SOL    HW210953   9.867   1.608   3.796
69686SOL     OW10954   3.967   8.814   9.154
69686SOL    HW110955   3.970   8.719   9.163
69686SOL    HW210956   4.039   8.835   9.095
69687SOL     OW10957  14.317  14.503   8.714
69687SOL    HW110958  14.358  14.419   8.691
69687SOL    HW210959  14.305  14.547   8.631
69688SOL     OW10960   5.900   8.398   1.103
69688SOL    HW110961   5.993   8.387   1.124
69688SOL    HW210962   5.861   8.313   1.123
69689SOL     OW10963  14.052  10.116  10.625
69689SOL    HW110964  14.103  10.090  10.702
69689SOL    HW210965  14.005  10.036  10.601
69690SOL     OW10966   9.129   3.282   3.680
69690SOL    HW110967   9.159   3.295   3.590
69690SOL    HW210968   9.118   3.188   3.688
69691SOL     OW10969   4.480   6.665   4.749
69691SOL    HW110970   4.552   6.616   4.709
69691SOL    HW210971   4.422   6.685   4.676
69692SOL     OW10972   0.372   7.777   2.726
69692SOL    HW110973   0.410   7.812   2.646
69692SOL    HW210974   0.281   7.758   2.705
69693SOL     OW10975   8.315   2.878   1.973
69693SOL    HW110976   8.276   2.828   1.901
69693SOL    HW210977   8.402   2.903   1.940
69694SOL     OW10978   1.300   8.829   1.887
69694SOL    HW110979   1.234   8.764   1.909
69694SOL    HW210980   1.360   8.828   1.962
69695SOL     OW10981  10.873   1.835   6.001
69695SOL    HW110982  10.901   1.927   5.994
69695SOL    HW210983  10.935   1.787   5.947
69696SOL     OW10984  12.712   3.939   9.877
69696SOL    HW110985  12.633   3.968   9.831
69696SOL    HW210986  12.780   4.000   9.847
69697SOL     OW10987   9.134   5.390   9.976
69697SOL    HW110988   9.061   5.357   9.924
69697SOL    HW210989   9.092   5.443  10.044
69698SOL     OW10990   3.962   0.955  13.432
69698SOL    HW110991   3.870   0.973  13.409
69698SOL    HW210992   4.001   0.923  13.351
69699SOL     OW10993   5.592  10.723   4.672
69699SOL    HW110994   5.657  10.654   4.685
69699SOL    HW210995   5.604  10.782   4.746
69700SOL     OW10996   0.194   0.499   1.122
69700SOL    HW110997   0.151   0.533   1.044
69700SOL    HW210998   0.277   0.546   1.126
69701SOL     OW10999   8.516  13.723   0.245
69701SOL    HW111000   8.561  13.638   0.245
69701SOL    HW211001   8.424  13.702   0.229
69702SOL     OW11002  12.147   4.762   7.955
69702SOL    HW111003  12.134   4.793   7.866
69702SOL    HW211004  12.156   4.842   8.008
69703SOL     OW11005  14.617   2.450  14.411
69703SOL    HW111006  14.536   2.443  14.461
69703SOL    HW211007  14.676   2.501  14.466
69704SOL     OW11008  13.505   8.063   0.571
69704SOL    HW111009  13.550   7.981   0.553
69704SOL    HW211010  13.414   8.038   0.587
69705SOL     OW11011  14.119   6.592   5.703
69705SOL    HW111012  14.087   6.535   5.633
69705SOL    HW211013  14.058   6.665   5.704
69706SOL     OW11014  11.182   6.150   9.071
69706SOL    HW111015  11.095   6.118   9.046
69706SOL    HW211016  11.208   6.093   9.143
69707SOL     OW11017   5.076  10.577   4.229
69707SOL    HW111018   4.988  10.545   4.209
69707SOL    HW211019   5.133  10.530   4.168
69708SOL     OW11020   4.234   9.217   6.183
69708SOL    HW111021   4.289   9.179   6.251
69708SOL    HW211022   4.193   9.142   6.140
69709SOL     OW11023  14.052   4.841  13.111
69709SOL    HW111024  14.081   4.863  13.200
69709SOL    HW211025  14.087   4.911  13.056
69710SOL     OW11026  14.683  13.255   3.908
69710SOL    HW111027  14.704  13.162   3.898
69710SOL    HW211028  14.657  13.283   3.819
69711SOL     OW11029   5.298  14.408  12.939
69711SOL    HW111030   5.336  14.381  13.023
69711SOL    HW211031   5.223  14.462  12.963
69712SOL     OW11032   8.939   2.273   4.289
69712SOL    HW111033   8.943   2.246   4.197
69712SOL    HW211034   9.010   2.225   4.331
69713SOL     OW11035  10.977   6.417  10.996
69713SOL    HW111036  10.900   6.364  11.016
69713SOL    HW211037  10.969   6.493  11.053
69714SOL     OW11038   2.638   8.735   5.054
69714SOL    HW111039   2.672   8.709   5.140
69714SOL    HW211040   2.545   8.714   5.058
69715SOL     OW11041   4.322   2.376   5.052
69715SOL    HW111042   4.317   2.383   5.148
69715SOL    HW211043   4.416   2.381   5.033
69716SOL     OW11044   8.626   4.509   5.562
69716SOL    HW111045   8.548   4.542   5.607
69716SOL    HW211046   8.627   4.555   5.478
69717SOL     OW11047   8.624   1.462  12.600
69717SOL    HW111048   8.599   1.533  12.660
69717SOL    HW211049   8.558   1.395  12.614
69718SOL     OW11050  12.317  13.649   8.255
69718SOL    HW111051  12.240  13.698   8.225
69718SOL    HW211052  12.283  13.562   8.275
69719SOL     OW11053   9.013   7.902   2.256
69719SOL    HW111054   9.015   7.835   2.188
69719SOL    HW211055   8.933   7.951   2.239
69720SOL     OW11056   8.630   8.672   6.394
69720SOL    HW111057   8.672   8.664   6.480
69720SOL    HW211058   8.666   8.752   6.357
69721SOL     OW11059   4.094   7.125   2.064
69721SOL    HW111060   4.057   7.147   1.978
69721SOL    HW211061   4.097   7.209   2.111
69722SOL     OW11062   3.559   7.159   4.756
69722SOL    HW111063   3.471   7.125   4.743
69722SOL    HW211064   3.569   7.227   4.690
69723SOL     OW11065   9.267   0.808   5.908
69723SOL    HW111066   9.308   0.731   5.948
69723SOL    HW211067   9.335   0.875   5.907
69724SOL     OW11068   0.545  14.237  12.490
69724SOL    HW111069   0.503  14.187  12.559
69724SOL    HW211070   0.508  14.203  12.409
69725SOL     OW11071  13.695   4.965   4.725
69725SOL    HW111072  13.658   5.053   4.720
69725SOL    HW211073  13.637   4.911   4.670
69726SOL     OW11074   5.381   7.147   7.427
69726SOL    HW111075   5.420   7.233   7.438
69726SOL    HW211076   5.384   7.108   7.514
69727SOL     OW11077   0.783   4.961   8.625
69727SOL    HW111078   0.756   4.984   8.714
69727SOL    HW211079   0.819   4.873   8.634
69728SOL     OW11080  10.738  13.278   7.308
69728SOL    HW111081  10.647  13.248   7.307
69728SOL    HW211082  10.789  13.199   7.288
69729SOL     OW11083  13.320   1.690   2.600
69729SOL    HW111084  13.300   1.763   2.541
69729SOL    HW211085  13.234   1.656   2.627
69730SOL     OW11086   8.746   2.847  14.593
69730SOL    HW111087   8.761   2.910  14.664
69730SOL    HW211088   8.814   2.781  14.604
69731SOL     OW11089  12.443  12.885   7.681
69731SOL    HW111090  12.536  12.899   7.667
69731SOL    HW211091  12.417  12.825   7.611
69732SOL     OW11092   0.999   2.634   1.017
69732SOL    HW111093   1.023   2.696   0.949
69732SOL    HW211094   1.059   2.653   1.089
69733SOL     OW11095   1.851  12.697   2.027
69733SOL    HW111096   1.770  12.747   2.037
69733SOL    HW211097   1.907  12.753   1.972
69734SOL     OW11098   9.658  13.721   8.220
69734SOL    HW111099   9.691  13.652   8.278
69734SOL    HW211100   9.602  13.675   8.158
69735SOL     OW11101   7.075   6.384   5.135
69735SOL    HW111102   7.122   6.414   5.213
69735SOL    HW211103   7.120   6.304   5.109
69736SOL     OW11104   2.943  10.055  14.078
69736SOL    HW111105   2.900  10.138  14.100
69736SOL    HW211106   3.010  10.045  14.146
69737SOL     OW11107   4.361   9.192  14.242
69737SOL    HW111108   4.406   9.264  14.197
69737SOL    HW211109   4.411   9.114  14.219
69738SOL     OW11110   2.724   1.494   5.597
69738SOL    HW111111   2.747   1.465   5.685
69738SOL    HW211112   2.788   1.562   5.577
69739SOL     OW11113   8.028   2.263   2.795
69739SOL    HW111114   8.097   2.256   2.860
69739SOL    HW211115   7.957   2.311   2.839
69740SOL     OW11116  12.456  14.616   3.816
69740SOL    HW111117  12.485  14.526   3.806
69740SOL    HW211118  12.526  14.659   3.866
69741SOL     OW11119  12.863  11.445  10.404
69741SOL    HW111120  12.942  11.498  10.417
69741SOL    HW211121  12.896  11.358  10.380
69742SOL     OW11122   4.168  13.490   9.027
69742SOL    HW111123   4.095  13.436   9.058
69742SOL    HW211124   4.138  13.526   8.944
69743SOL     OW11125   2.262   1.467   8.217
69743SOL    HW111126   2.308   1.452   8.300
69743SOL    HW211127   2.278   1.387   8.167
69744SOL     OW11128   9.918  11.828   8.903
69744SOL    HW111129  10.008  11.860   8.914
69744SOL    HW211130   9.912  11.752   8.961
69745SOL     OW11131   9.842  11.823   9.487
69745SOL    HW111132   9.811  11.807   9.397
69745SOL    HW211133   9.824  11.741   9.533
69746SOL     OW11134   2.436   8.123   2.281
69746SOL    HW111135   2.344   8.099   2.277
69746SOL    HW211136   2.447   8.163   2.368
69747SOL     OW11137   6.366   2.678   5.335
69747SOL    HW111138   6.344   2.718   5.251
69747SOL    HW211139   6.331   2.739   5.400
69748SOL     OW11140   9.946   2.407   1.624
69748SOL    HW111141   9.979   2.357   1.549
69748SOL    HW211142   9.916   2.340   1.686
69749SOL     OW11143   3.619   2.289  11.431
69749SOL    HW111144   3.601   2.272  11.338
69749SOL    HW211145   3.597   2.381  11.443
69750SOL     OW11146  13.523   5.507   5.549
69750SOL    HW111147  13.547   5.454   5.472
69750SOL    HW211148  13.594   5.570   5.557
69751SOL     OW11149   7.570   7.725   3.767
69751SOL    HW111150   7.638   7.733   3.833
69751SOL    HW211151   7.490   7.704   3.816
69752SOL     OW11152   3.879  10.619   1.317
69752SOL    HW111153   3.793  10.582   1.338
69752SOL    HW211154   3.886  10.695   1.375
69753SOL     OW11155  14.199   3.728   6.011
69753SOL    HW111156  14.234   3.713   6.099
69753SOL    HW211157  14.119   3.676   6.008
69754SOL     OW11158   2.796  11.312   4.787
69754SOL    HW111159   2.778  11.406   4.792
69754SOL    HW211160   2.714  11.270   4.815
69755SOL     OW11161   6.043  10.527   1.461
69755SOL    HW111162   6.021  10.620   1.455
69755SOL    HW211163   6.053  10.498   1.371
69756SOL     OW11164   8.859  13.444  11.761
69756SOL    HW111165   8.936  13.422  11.814
69756SOL    HW211166   8.868  13.390  11.683
69757SOL     OW11167   5.173  10.185   7.654
69757SOL    HW111168   5.208  10.154   7.738
69757SOL    HW211169   5.245  10.234   7.615
69758SOL     OW11170  13.812   2.530   8.684
69758SOL    HW111171  13.787   2.477   8.608
69758SOL    HW211172  13.835   2.465   8.751
69759SOL     OW11173  10.748   5.911   0.048
69759SOL    HW111174  10.802   5.865   0.112
69759SOL    HW211175  10.808   5.930  14.855
69760SOL     OW11176   3.717  12.732  10.483
69760SOL    HW111177   3.720  12.818  10.442
69760SOL    HW211178   3.640  12.690  10.444
69761SOL     OW11179   9.733   5.551  10.395
69761SOL    HW111180   9.686   5.570  10.313
69761SOL    HW211181   9.730   5.455  10.402
69762SOL     OW11182   8.359  10.412   9.415
69762SOL    HW111183   8.380  10.366   9.334
69762SOL    HW211184   8.272  10.380   9.439
69763SOL     OW11185  13.700   3.988  13.242
69763SOL    HW111186  13.635   4.048  13.205
69763SOL    HW211187  13.651   3.937  13.307
69764SOL     OW11188   6.625   0.822   0.093
69764SOL    HW111189   6.708   0.866   0.075
69764SOL    HW211190   6.582   0.817   0.007
69765SOL     OW11191   8.517  12.249   5.686
69765SOL    HW111192   8.518  12.276   5.777
69765SOL    HW211193   8.609  12.231   5.665
69766SOL     OW11194   8.331  13.965   3.397
69766SOL    HW111195   8.295  13.925   3.477
69766SOL    HW211196   8.298  13.910   3.326
69767SOL     OW11197  11.392   1.417   4.446
69767SOL    HW111198  11.459   1.372   4.394
69767SOL    HW211199  11.316   1.424   4.387
69768SOL     OW11200  10.756   3.552  12.550
69768SOL    HW111201  10.783   3.574  12.461
69768SOL    HW211202  10.739   3.636  12.592
69769SOL     OW11203   1.189   3.426   4.919
69769SOL    HW111204   1.119   3.481   4.884
69769SOL    HW211205   1.181   3.344   4.870
69770SOL     OW11206   7.625  10.132   5.960
69770SOL    HW111207   7.589  10.140   5.872
69770SOL    HW211208   7.697  10.195   5.963
69771SOL     OW11209   0.367   3.839  12.727
69771SOL    HW111210   0.277   3.839  12.696
69771SOL    HW211211   0.376   3.920  12.777
69772SOL     OW11212   3.640   1.107   7.102
69772SOL    HW111213   3.607   1.156   7.027
69772SOL    HW211214   3.617   1.016   7.083
69773SOL     OW11215  12.161  10.938  13.462
69773SOL    HW111216  12.117  10.937  13.377
69773SOL    HW211217  12.176  10.846  13.483
69774SOL     OW11218   5.827   0.557   3.036
69774SOL    HW111219   5.886   0.616   2.989
69774SOL    HW211220   5.832   0.587   3.127
69775SOL     OW11221   6.218   4.372   3.569
69775SOL    HW111222   6.267   4.388   3.649
69775SOL    HW211223   6.285   4.356   3.502
69776SOL     OW11224   4.267  10.141   2.593
69776SOL    HW111225   4.204  10.213   2.591
69776SOL    HW211226   4.330  10.167   2.660
69777SOL     OW11227   5.743  14.645   5.274
69777SOL    HW111228   5.702  14.568   5.235
69777SOL    HW211229   5.725  14.636   5.368
69778SOL     OW11230   3.886   4.959   0.229
69778SOL    HW111231   3.901   4.873   0.189
69778SOL    HW211232   3.963   4.974   0.283
69779SOL     OW11233  11.456   5.918   9.700
69779SOL    HW111234  11.459   5.842   9.642
69779SOL    HW211235  11.546   5.929   9.731
69780SOL     OW11236  11.509   5.610   7.643
69780SOL    HW111237  11.533   5.582   7.731
69780SOL    HW211238  11.580   5.668   7.616
69781SOL     OW11239   9.933   6.610   1.270
69781SOL    HW111240   9.863   6.563   1.317
69781SOL    HW211241  10.014   6.576   1.309
69782SOL     OW11242   3.378  10.149  10.173
69782SOL    HW111243   3.398  10.242  10.158
69782SOL    HW211244   3.463  10.105  10.165
69783SOL     OW11245   3.066  12.987   0.550
69783SOL    HW111246   3.117  12.930   0.607
69783SOL    HW211247   3.117  13.069   0.546
69784SOL     OW11248  11.248  10.692  10.496
69784SOL    HW111249  11.292  10.769  10.462
69784SOL    HW211250  11.285  10.679  10.583
69785SOL     OW11251   6.020   4.357  14.210
69785SOL    HW111252   6.027   4.413  14.288
69785SOL    HW211253   6.097   4.300  14.215
69786SOL     OW11254   4.168   9.739   7.879
69786SOL    HW111255   4.170   9.789   7.960
69786SOL    HW211256   4.090   9.771   7.833
69787SOL     OW11257  10.662   1.370  14.701
69787SOL    HW111258  10.604   1.357  14.626
69787SOL    HW211259  10.690   1.282  14.726
69788SOL     OW11260  10.957  13.331   5.047
69788SOL    HW111261  11.028  13.301   5.104
69788SOL    HW211262  10.948  13.424   5.069
69789SOL     OW11263   8.485   4.838   0.541
69789SOL    HW111264   8.559   4.855   0.483
69789SOL    HW211265   8.516   4.770   0.601
69790SOL     OW11266  12.008  12.094  10.275
69790SOL    HW111267  12.038  12.107  10.365
69790SOL    HW211268  11.937  12.157  10.263
69791SOL     OW11269   8.670   9.555   7.719
69791SOL    HW111270   8.630   9.483   7.670
69791SOL    HW211271   8.598   9.591   7.771
69792SOL     OW11272   8.941  10.204   5.074
69792SOL    HW111273   8.888  10.147   5.018
69792SOL    HW211274   9.028  10.165   5.073
69793SOL     OW11275   2.936   0.300   0.567
69793SOL    HW111276   2.912   0.261   0.483
69793SOL    HW211277   2.855   0.298   0.618
69794SOL     OW11278   6.663   0.735   6.560
69794SOL    HW111279   6.658   0.647   6.598
69794SOL    HW211280   6.642   0.794   6.633
69795SOL     OW11281   8.664   7.481   3.290
69795SOL    HW111282   8.667   7.403   3.346
69795SOL    HW211283   8.656   7.554   3.351
69796SOL     OW11284  14.425   4.243   2.982
69796SOL    HW111285  14.519   4.255   2.966
69796SOL    HW211286  14.394   4.329   3.008
69797SOL     OW11287   3.240   3.139   3.125
69797SOL    HW111288   3.180   3.183   3.186
69797SOL    HW211289   3.184   3.079   3.075
69798SOL     OW11290   3.575  11.630  14.337
69798SOL    HW111291   3.515  11.685  14.286
69798SOL    HW211292   3.529  11.546  14.344
69799SOL     OW11293  11.878   8.586   6.302
69799SOL    HW111294  11.961   8.611   6.344
69799SOL    HW211295  11.868   8.493   6.322
69800SOL     OW11296   5.086   7.642   8.567
69800SOL    HW111297   5.085   7.550   8.541
69800SOL    HW211298   5.114   7.689   8.489
69801SOL     OW11299  10.211  11.538   7.013
69801SOL    HW111300  10.223  11.522   7.107
69801SOL    HW211301  10.300  11.539   6.977
69802SOL     OW11302   2.726   8.771   2.084
69802SOL    HW111303   2.701   8.794   1.995
69802SOL    HW211304   2.667   8.823   2.139
69803SOL     OW11305   7.135   4.507  14.435
69803SOL    HW111306   7.202   4.443  14.412
69803SOL    HW211307   7.056   4.455  14.450
69804SOL     OW11308  12.178  14.272   6.639
69804SOL    HW111309  12.246  14.251   6.575
69804SOL    HW211310  12.118  14.197   6.635
69805SOL     OW11311   7.319  10.239   2.165
69805SOL    HW111312   7.298  10.150   2.138
69805SOL    HW211313   7.415  10.241   2.169
69806SOL     OW11314   9.718   0.666  10.330
69806SOL    HW111315   9.708   0.571  10.329
69806SOL    HW211316   9.647   0.698  10.274
69807SOL     OW11317   6.180   0.874   4.493
69807SOL    HW111318   6.131   0.792   4.492
69807SOL    HW211319   6.241   0.866   4.566
69808SOL     OW11320   0.276   5.837  13.462
69808SOL    HW111321   0.192   5.884  13.461
69808SOL    HW211322   0.300   5.833  13.555
69809SOL     OW11323  11.062   6.068  10.325
69809SOL    HW111324  11.151   6.037  10.308
69809SOL    HW211325  11.059   6.155  10.284
69810SOL     OW11326   8.858   4.602  13.175
69810SOL    HW111327   8.791   4.560  13.229
69810SOL    HW211328   8.923   4.635  13.237
69811SOL     OW11329   8.329  11.513   8.127
69811SOL    HW111330   8.370  11.431   8.154
69811SOL    HW211331   8.334  11.569   8.205
69812SOL     OW11332   6.476  13.848   2.647
69812SOL    HW111333   6.463  13.757   2.672
69812SOL    HW211334   6.557  13.848   2.596
69813SOL     OW11335   0.601  10.058  14.373
69813SOL    HW111336   0.630  10.116  14.443
69813SOL    HW211337   0.640  10.095  14.294
69814SOL     OW11338  13.841   8.837   7.867
69814SOL    HW111339  13.796   8.890   7.933
69814SOL    HW211340  13.795   8.753   7.868
69815SOL     OW11341   1.576   5.084   5.222
69815SOL    HW111342   1.629   5.127   5.155
69815SOL    HW211343   1.485   5.106   5.199
69816SOL     OW11344   1.547   7.530   9.131
69816SOL    HW111345   1.556   7.620   9.100
69816SOL    HW211346   1.608   7.480   9.078
69817SOL     OW11347   2.666   1.775  10.307
69817SOL    HW111348   2.747   1.732  10.279
69817SOL    HW211349   2.622   1.798  10.225
69818SOL     OW11350   2.389   4.716   0.968
69818SOL    HW111351   2.434   4.675   1.042
69818SOL    HW211352   2.353   4.642   0.918
69819SOL     OW11353  11.061   5.152   3.032
69819SOL    HW111354  11.039   5.059   3.040
69819SOL    HW211355  11.143   5.161   3.080
69820SOL     OW11356  14.352   3.333   1.543
69820SOL    HW111357  14.427   3.386   1.516
69820SOL    HW211358  14.390   3.253   1.578
69821SOL     OW11359   5.925   8.355   0.833
69821SOL    HW111360   5.908   8.395   0.919
69821SOL    HW211361   5.943   8.263   0.853
69822SOL     OW11362   8.919   5.907   0.976
69822SOL    HW111363   9.010   5.883   0.987
69822SOL    HW211364   8.877   5.829   0.941
69823SOL     OW11365   5.902   3.497   2.626
69823SOL    HW111366   5.949   3.572   2.591
69823SOL    HW211367   5.823   3.491   2.573
69824SOL     OW11368   0.997  13.972   4.975
69824SOL    HW111369   1.065  13.936   4.917
69824SOL    HW211370   0.960  13.895   5.018
69825SOL     OW11371   7.946   3.250   8.191
69825SOL    HW111372   7.879   3.314   8.212
69825SOL    HW211373   7.923   3.219   8.103
69826SOL     OW11374   4.194  13.807   0.900
69826SOL    HW111375   4.287  13.807   0.923
69826SOL    HW211376   4.182  13.884   0.845
69827SOL     OW11377   6.357   2.414   1.138
69827SOL    HW111378   6.302   2.492   1.137
69827SOL    HW211379   6.319   2.357   1.072
69828SOL     OW11380   8.969   4.451   9.810
69828SOL    HW111381   8.888   4.502   9.803
69828SOL    HW211382   9.034   4.501   9.761
69829SOL     OW11383   1.396   7.872   6.792
69829SOL    HW111384   1.318   7.888   6.739
69829SOL    HW211385   1.467   7.866   6.728
69830SOL     OW11386   6.469  10.357  11.769
69830SOL    HW111387   6.492  10.308  11.690
69830SOL    HW211388   6.455  10.447  11.739
69831SOL     OW11389  14.057   4.488   1.891
69831SOL    HW111390  14.115   4.557   1.922
69831SOL    HW211391  14.115   4.414   1.872
69832SOL     OW11392   5.611  10.916   4.907
69832SOL    HW111393   5.624  10.841   4.964
69832SOL    HW211394   5.619  10.992   4.965
69833SOL     OW11395  13.779   2.076   7.242
69833SOL    HW111396  13.794   2.117   7.327
69833SOL    HW211397  13.866   2.045   7.214
69834SOL     OW11398   3.845  10.868   6.509
69834SOL    HW111399   3.890  10.852   6.592
69834SOL    HW211400   3.856  10.785   6.461
69835SOL     OW11401  11.499  13.847   9.946
69835SOL    HW111402  11.583  13.887   9.969
69835SOL    HW211403  11.500  13.762   9.991
69836SOL     OW11404   7.698   5.794   1.687
69836SOL    HW111405   7.715   5.700   1.693
69836SOL    HW211406   7.706   5.814   1.594
69837SOL     OW11407   9.250   4.949   5.287
69837SOL    HW111408   9.176   4.912   5.336
69837SOL    HW211409   9.328   4.911   5.328
69838SOL     OW11410   1.422  14.516  14.590
69838SOL    HW111411   1.332  14.512  14.623
69838SOL    HW211412   1.472  14.461  14.651
69839SOL     OW11413   1.180   7.349   6.420
69839SOL    HW111414   1.146   7.323   6.506
69839SOL    HW211415   1.102   7.359   6.366
69840SOL     OW11416  12.979   6.697   8.513
69840SOL    HW111417  13.069   6.672   8.534
69840SOL    HW211418  12.940   6.617   8.477
69841SOL     OW11419   5.681   3.946   5.882
69841SOL    HW111420   5.743   3.929   5.811
69841SOL    HW211421   5.680   4.041   5.892
69842SOL     OW11422   2.734   8.760   3.300
69842SOL    HW111423   2.760   8.807   3.221
69842SOL    HW211424   2.678   8.689   3.268
69843SOL     OW11425  10.776   9.645  10.242
69843SOL    HW111426  10.818   9.679  10.163
69843SOL    HW211427  10.695   9.696  10.250
69844SOL     OW11428  11.201   2.547   4.877
69844SOL    HW111429  11.251   2.528   4.798
69844SOL    HW211430  11.138   2.615   4.850
69845SOL     OW11431   4.112   9.439   6.302
69845SOL    HW111432   4.161   9.384   6.240
69845SOL    HW211433   4.178   9.467   6.365
69846SOL     OW11434   0.937   1.849   1.651
69846SOL    HW111435   0.942   1.795   1.729
69846SOL    HW211436   1.006   1.915   1.664
69847SOL     OW11437   1.245  10.176   1.159
69847SOL    HW111438   1.227  10.146   1.070
69847SOL    HW211439   1.186  10.124   1.213
69848SOL     OW11440   2.425  12.367   2.344
69848SOL    HW111441   2.446  12.438   2.283
69848SOL    HW211442   2.469  12.391   2.425
69849SOL     OW11443  14.132   2.055  10.571
69849SOL    HW111444  14.149   2.035  10.479
69849SOL    HW211445  14.203   2.010  10.619
69850SOL     OW11446   2.744   0.974   1.560
69850SOL    HW111447   2.794   0.918   1.620
69850SOL    HW211448   2.768   0.943   1.472
69851SOL     OW11449   9.031   1.066   7.056
69851SOL    HW111450   9.097   1.023   7.110
69851SOL    HW211451   8.961   1.002   7.046
69852SOL     OW11452  11.479   3.301   9.653
69852SOL    HW111453  11.494   3.210   9.626
69852SOL    HW211454  11.416   3.295   9.725
69853SOL     OW11455  14.342   9.802  12.035
69853SOL    HW111456  14.316   9.838  12.120
69853SOL    HW211457  14.372   9.714  12.055
69854SOL     OW11458   3.944  14.659   8.524
69854SOL    HW111459   3.916  14.734   8.472
69854SOL    HW211460   3.933  14.583   8.466
69855SOL     OW11461  13.621   9.351   9.090
69855SOL    HW111462  13.531   9.366   9.063
69855SOL    HW211463  13.623   9.378   9.182
69856SOL     OW11464   6.029   4.253   0.065
69856SOL    HW111465   6.071   4.269   0.149
69856SOL    HW211466   5.937   4.272   0.080
69857SOL     OW11467   4.151  12.709   5.222
69857SOL    HW111468   4.193  12.624   5.235
69857SOL    HW211469   4.084  12.692   5.155
69858SOL     OW11470   1.098   7.952  13.453
69858SOL    HW111471   1.155   7.888  13.496
69858SOL    HW211472   1.066   8.007  13.525
69859SOL     OW11473   2.049   4.318   8.793
69859SOL    HW111474   2.035   4.371   8.871
69859SOL    HW211475   1.975   4.337   8.736
69860SOL     OW11476  13.702   6.600  14.721
69860SOL    HW111477  13.757   6.533  14.682
69860SOL    HW211478  13.674   6.654  14.647
69861SOL     OW11479   5.645   2.323  10.223
69861SOL    HW111480   5.682   2.333  10.135
69861SOL    HW211481   5.640   2.228  10.235
69862SOL     OW11482   6.208   8.863   2.098
69862SOL    HW111483   6.185   8.917   2.022
69862SOL    HW211484   6.302   8.876   2.109
69863SOL     OW11485   8.278  10.110  13.475
69863SOL    HW111486   8.210  10.132  13.411
69863SOL    HW211487   8.331  10.189  13.482
69864SOL     OW11488   4.144   9.820   6.490
69864SOL    HW111489   4.177   9.814   6.400
69864SOL    HW211490   4.193   9.754   6.538
69865SOL     OW11491   4.429   3.652  11.924
69865SOL    HW111492   4.503   3.704  11.893
69865SOL    HW211493   4.356   3.679  11.868
69866SOL     OW11494   0.922   6.950   6.026
69866SOL    HW111495   0.861   7.024   6.028
69866SOL    HW211496   0.866   6.874   6.007
69867SOL     OW11497   8.267   7.743  12.275
69867SOL    HW111498   8.255   7.659  12.318
69867SOL    HW211499   8.323   7.793  12.335
69868SOL     OW11500   7.453  11.538  10.480
69868SOL    HW111501   7.464  11.572  10.569
69868SOL    HW211502   7.542  11.520  10.449
69869SOL     OW11503  13.663   6.171   3.294
69869SOL    HW111504  13.623   6.086   3.308
69869SOL    HW211505  13.631   6.226   3.365
69870SOL     OW11506  12.736   6.456   9.295
69870SOL    HW111507  12.689   6.373   9.281
69870SOL    HW211508  12.784   6.470   9.213
69871SOL     OW11509   8.194  11.068  14.093
69871SOL    HW111510   8.265  11.131  14.106
69871SOL    HW211511   8.227  11.009  14.025
69872SOL     OW11512   5.827  12.440   6.068
69872SOL    HW111513   5.809  12.505   5.999
69872SOL    HW211514   5.862  12.492   6.141
69873SOL     OW11515   3.151   8.006   5.256
69873SOL    HW111516   3.084   8.065   5.291
69873SOL    HW211517   3.119   7.918   5.278
69874SOL     OW11518   7.431   5.022   4.200
69874SOL    HW111519   7.478   5.016   4.282
69874SOL    HW211520   7.406   4.932   4.179
69875SOL     OW11521  14.374  14.561   0.796
69875SOL    HW111522  14.458  14.599   0.823
69875SOL    HW211523  14.355  14.494   0.861
69876SOL     OW11524  14.284   4.593  10.217
69876SOL    HW111525  14.274   4.618  10.125
69876SOL    HW211526  14.197   4.560  10.242
69877SOL     OW11527   3.756   5.779  11.304
69877SOL    HW111528   3.744   5.854  11.246
69877SOL    HW211529   3.685   5.785  11.367
69878SOL     OW11530   6.338   0.181   1.259
69878SOL    HW111531   6.327   0.267   1.298
69878SOL    HW211532   6.292   0.186   1.175
69879SOL     OW11533   4.300  14.675  12.124
69879SOL    HW111534   4.309  14.770  12.128
69879SOL    HW211535   4.222  14.656  12.177
69880SOL     OW11536   7.459   9.392   0.722
69880SOL    HW111537   7.416   9.307   0.735
69880SOL    HW211538   7.455   9.434   0.808
69881SOL     OW11539   6.461   4.673   3.694
69881SOL    HW111540   6.492   4.763   3.703
69881SOL    HW211541   6.534   4.619   3.723
69882SOL     OW11542   5.010   2.074   7.796
69882SOL    HW111543   5.023   1.986   7.761
69882SOL    HW211544   5.075   2.081   7.867
69883SOL     OW11545   7.771  14.837  12.842
69883SOL    HW111546   7.796  14.755  12.886
69883SOL    HW211547   7.848  14.860  12.790
69884SOL     OW11548   5.387   7.567   1.872
69884SOL    HW111549   5.359   7.514   1.947
69884SOL    HW211550   5.304   7.595   1.831
69885SOL     OW11551   0.757  14.552   4.141
69885SOL    HW111552   0.709  14.493   4.083
69885SOL    HW211553   0.790  14.496   4.211
69886SOL     OW11554   0.662   9.495   9.320
69886SOL    HW111555   0.682   9.533   9.234
69886SOL    HW211556   0.631   9.406   9.301
69887SOL     OW11557  13.259   4.039   4.109
69887SOL    HW111558  13.311   3.962   4.083
69887SOL    HW211559  13.187   4.040   4.046
69888SOL     OW11560   1.093   7.534   8.637
69888SOL    HW111561   1.012   7.495   8.604
69888SOL    HW211562   1.121   7.594   8.567
69889SOL     OW11563   7.536   9.813   7.663
69889SOL    HW111564   7.524   9.904   7.637
69889SOL    HW211565   7.592   9.776   7.595
69890SOL     OW11566  14.252   8.150  10.194
69890SOL    HW111567  14.242   8.080  10.129
69890SOL    HW211568  14.328   8.125  10.246
69891SOL     OW11569   0.968   2.806   9.765
69891SOL    HW111570   0.936   2.726   9.806
69891SOL    HW211571   1.062   2.805   9.782
69892SOL     OW11572   0.785   7.947   0.187
69892SOL    HW111573   0.823   7.861   0.171
69892SOL    HW211574   0.853   8.009   0.160
69893SOL     OW11575   7.415  13.527  14.338
69893SOL    HW111576   7.506  13.536  14.310
69893SOL    HW211577   7.380  13.456  14.284
69894SOL     OW11578   7.642  13.405   2.628
69894SOL    HW111579   7.626  13.320   2.588
69894SOL    HW211580   7.577  13.463   2.589
69895SOL     OW11581  10.024  11.032   4.842
69895SOL    HW111582   9.951  10.972   4.831
69895SOL    HW211583  10.043  11.029   4.936
69896SOL     OW11584  11.965   4.475  14.505
69896SOL    HW111585  11.900   4.511  14.445
69896SOL    HW211586  12.049   4.507  14.471
69897SOL     OW11587  11.375  10.521  11.146
69897SOL    HW111588  11.449  10.541  11.089
69897SOL    HW211589  11.376  10.591  11.212
69898SOL     OW11590   0.118   0.359   5.381
69898SOL    HW111591   0.207   0.326   5.396
69898SOL    HW211592   0.128   0.420   5.307
69899SOL     OW11593  13.651  14.792   5.996
69899SOL    HW111594  13.623  14.733   5.926
69899SOL    HW211595  13.744  14.809   5.979
69900SOL     OW11596   5.551   1.088  10.384
69900SOL    HW111597   5.510   1.107  10.468
69900SOL    HW211598   5.545   1.171  10.336
69901SOL     OW11599   1.388   5.811   5.160
69901SOL    HW111600   1.394   5.775   5.071
69901SOL    HW211601   1.471   5.857   5.172
69902SOL     OW11602   6.137   9.943  11.434
69902SOL    HW111603   6.154   9.991  11.353
69902SOL    HW211604   6.055   9.980  11.466
69903SOL     OW11605   4.204  10.152   6.959
69903SOL    HW111606   4.280  10.107   6.995
69903SOL    HW211607   4.141  10.156   7.031
69904SOL     OW11608   8.629   3.731   4.627
69904SOL    HW111609   8.578   3.750   4.705
69904SOL    HW211610   8.610   3.639   4.608
69905SOL     OW11611   4.561  13.989   9.581
69905SOL    HW111612   4.654  13.995   9.561
69905SOL    HW211613   4.523  14.069   9.545
69906SOL     OW11614   7.933   1.089   7.060
69906SOL    HW111615   7.878   1.053   6.990
69906SOL    HW211616   8.016   1.043   7.050
69907SOL     OW11617   5.316  12.703   3.204
69907SOL    HW111618   5.249  12.771   3.215
69907SOL    HW211619   5.373  12.738   3.136
69908SOL     OW11620   0.144   2.436   2.088
69908SOL    HW111621   0.119   2.484   2.009
69908SOL    HW211622   0.164   2.348   2.056
69909SOL     OW11623   3.701  12.521   5.337
69909SOL    HW111624   3.787  12.511   5.297
69909SOL    HW211625   3.640  12.520   5.264
69910SOL     OW11626  10.788   2.666   4.083
69910SOL    HW111627  10.834   2.633   4.006
69910SOL    HW211628  10.710   2.709   4.047
69911SOL     OW11629   3.851   4.661  11.240
69911SOL    HW111630   3.765   4.637  11.273
69911SOL    HW211631   3.912   4.610  11.294
69912SOL     OW11632  11.958   5.042   9.081
69912SOL    HW111633  11.912   5.007   9.005
69912SOL    HW211634  12.041   4.995   9.083
69913SOL     OW11635  13.558  14.141   5.136
69913SOL    HW111636  13.557  14.180   5.223
69913SOL    HW211637  13.551  14.047   5.152
69914SOL     OW11638   5.891  10.750  14.604
69914SOL    HW111639   5.950  10.676  14.589
69914SOL    HW211640   5.881  10.790  14.518
69915SOL     OW11641   5.117   7.154   3.913
69915SOL    HW111642   5.106   7.245   3.884
69915SOL    HW211643   5.054   7.104   3.861
69916SOL     OW11644   5.949   8.205  13.486
69916SOL    HW111645   5.907   8.291  13.500
69916SOL    HW211646   5.900   8.166  13.414
69917SOL     OW11647  10.482   1.332   5.456
69917SOL    HW111648  10.507   1.270   5.387
69917SOL    HW211649  10.389   1.314   5.472
69918SOL     OW11650   4.903   6.461   2.561
69918SOL    HW111651   4.810   6.457   2.539
69918SOL    HW211652   4.933   6.544   2.523
69919SOL     OW11653   0.560   8.955  10.460
69919SOL    HW111654   0.587   9.006  10.537
69919SOL    HW211655   0.552   8.866  10.492
69920SOL     OW11656  10.443   0.795   7.231
69920SOL    HW111657  10.387   0.756   7.298
69920SOL    HW211658  10.522   0.740   7.231
69921SOL     OW11659   4.855   8.398  10.523
69921SOL    HW111660   4.842   8.363  10.612
69921SOL    HW211661   4.775   8.375  10.476
69922SOL     OW11662   0.772   5.706   9.672
69922SOL    HW111663   0.732   5.793   9.665
69922SOL    HW211664   0.701   5.650   9.702
69923SOL     OW11665  14.781   2.305   2.384
69923SOL    HW111666  14.771   2.331   2.293
69923SOL    HW211667  14.876   2.300   2.397
69924SOL     OW11668  14.463   7.109   5.522
69924SOL    HW111669  14.480   7.153   5.438
69924SOL    HW211670  14.419   7.028   5.498
69925SOL     OW11671   1.252   5.533   0.473
69925SOL    HW111672   1.233   5.454   0.422
69925SOL    HW211673   1.186   5.533   0.542
69926SOL     OW11674  10.964  11.765   7.440
69926SOL    HW111675  10.946  11.673   7.423
69926SOL    HW211676  10.990  11.767   7.532
69927SOL     OW11677   6.892   0.392   7.736
69927SOL    HW111678   6.967   0.333   7.748
69927SOL    HW211679   6.831   0.367   7.805
69928SOL     OW11680   2.781   9.703   9.284
69928SOL    HW111681   2.762   9.794   9.306
69928SOL    HW211682   2.761   9.696   9.191
69929SOL     OW11683   3.345   8.991   5.110
69929SOL    HW111684   3.288   8.989   5.187
69929SOL    HW211685   3.429   9.025   5.142
69930SOL     OW11686   5.491   8.831   9.757
69930SOL    HW111687   5.430   8.840   9.831
69930SOL    HW211688   5.472   8.906   9.701
69931SOL     OW11689   9.968   6.886  11.731
69931SOL    HW111690   9.921   6.807  11.704
69931SOL    HW211691   9.957   6.946  11.657
69932SOL     OW11692   5.681   0.747   8.419
69932SOL    HW111693   5.739   0.803   8.367
69932SOL    HW211694   5.656   0.677   8.359
69933SOL     OW11695   0.893   0.682   3.414
69933SOL    HW111696   0.932   0.646   3.493
69933SOL    HW211697   0.964   0.679   3.349
69934SOL     OW11698   8.076  10.268  13.373
69934SOL    HW111699   8.038  10.293  13.457
69934SOL    HW211700   8.005  10.281  13.310
69935SOL     OW11701   4.654  13.717   7.853
69935SOL    HW111702   4.677  13.793   7.907
69935SOL    HW211703   4.565  13.735   7.822
69936SOL     OW11704   2.277   6.023   2.768
69936SOL    HW111705   2.290   5.980   2.683
69936SOL    HW211706   2.205   6.084   2.753
69937SOL     OW11707  14.498   7.321   8.262
69937SOL    HW111708  14.414   7.302   8.219
69937SOL    HW211709  14.521   7.409   8.233
69938SOL     OW11710   9.706  13.081   8.027
69938SOL    HW111711   9.793  13.047   8.007
69938SOL    HW211712   9.653  13.058   7.950
69939SOL     OW11713   0.940   8.090  12.722
69939SOL    HW111714   1.016   8.052  12.678
69939SOL    HW211715   0.936   8.045  12.807
69940SOL     OW11716   8.095  12.663  11.623
69940SOL    HW111717   8.055  12.746  11.595
69940SOL    HW211718   8.126  12.623  11.542
69941SOL     OW11719   5.298   7.211  12.516
69941SOL    HW111720   5.312   7.295  12.471
69941SOL    HW211721   5.229   7.229  12.580
69942SOL     OW11722   3.300  12.500   2.168
69942SOL    HW111723   3.360  12.522   2.097
69942SOL    HW211724   3.225  12.459   2.125
69943SOL     OW11725  14.226   0.436   2.079
69943SOL    HW111726  14.235   0.341   2.089
69943SOL    HW211727  14.234   0.450   1.984
69944SOL     OW11728   8.498   5.893   5.649
69944SOL    HW111729   8.587   5.863   5.632
69944SOL    HW211730   8.481   5.956   5.579
69945SOL     OW11731   5.718   2.482   8.054
69945SOL    HW111732   5.706   2.576   8.064
69945SOL    HW211733   5.634   2.444   8.078
69946SOL     OW11734  12.327   3.984   0.059
69946SOL    HW111735  12.241   4.017   0.032
69946SOL    HW211736  12.308   3.927   0.134
69947SOL     OW11737  11.124  11.982   6.395
69947SOL    HW111738  11.201  11.925   6.399
69947SOL    HW211739  11.074  11.950   6.320
69948SOL     OW11740   8.051   2.610   1.562
69948SOL    HW111741   7.967   2.611   1.517
69948SOL    HW211742   8.116   2.592   1.494
69949SOL     OW11743   3.103   8.525   6.022
69949SOL    HW111744   3.077   8.440   5.986
69949SOL    HW211745   3.021   8.567   6.047
69950SOL     OW11746   9.601   7.879   6.493
69950SOL    HW111747   9.610   7.804   6.433
69950SOL    HW211748   9.521   7.923   6.464
69951SOL     OW11749   5.757   4.745  13.293
69951SOL    HW111750   5.729   4.656  13.315
69951SOL    HW211751   5.692   4.775  13.228
69952SOL     OW11752   0.934   8.471   7.858
69952SOL    HW111753   1.009   8.435   7.906
69952SOL    HW211754   0.872   8.497   7.925
69953SOL     OW11755   4.005   0.842   9.940
69953SOL    HW111756   4.044   0.758   9.963
69953SOL    HW211757   4.079   0.903   9.936
69954SOL     OW11758  12.086   6.187  14.136
69954SOL    HW111759  12.164   6.134  14.153
69954SOL    HW211760  12.023   6.126  14.099
69955SOL     OW11761   3.445   1.451   8.482
69955SOL    HW111762   3.357   1.443   8.445
69955SOL    HW211763   3.446   1.388   8.555
69956SOL     OW11764  14.012   2.399   3.320
69956SOL    HW111765  14.027   2.356   3.236
69956SOL    HW211766  14.031   2.331   3.385
69957SOL     OW11767  10.900  12.668   4.082
69957SOL    HW111768  10.902  12.582   4.125
69957SOL    HW211769  10.961  12.661   4.009
69958SOL     OW11770   9.600  11.911   7.556
69958SOL    HW111771   9.532  11.859   7.599
69958SOL    HW211772   9.552  11.966   7.494
69959SOL     OW11773   5.852  12.698  13.455
69959SOL    HW111774   5.903  12.627  13.415
69959SOL    HW211775   5.764  12.688  13.419
69960SOL     OW11776   9.016   3.686   7.509
69960SOL    HW111777   8.999   3.762   7.564
69960SOL    HW211778   9.015   3.720   7.419
69961SOL     OW11779  11.550   0.565  10.674
69961SOL    HW111780  11.594   0.509  10.738
69961SOL    HW211781  11.513   0.636  10.726
69962SOL     OW11782   4.576   2.330   4.954
69962SOL    HW111783   4.575   2.250   5.006
69962SOL    HW211784   4.639   2.387   4.998
69963SOL     OW11785  12.944   5.617   8.736
69963SOL    HW111786  12.974   5.548   8.795
69963SOL    HW211787  13.017   5.629   8.675
69964SOL     OW11788  12.405   0.531   2.930
69964SOL    HW111789  12.347   0.460   2.900
69964SOL    HW211790  12.385   0.541   3.023
69965SOL     OW11791   4.390  13.073   0.612
69965SOL    HW111792   4.327  13.135   0.649
69965SOL    HW211793   4.338  12.997   0.587
69966SOL     OW11794   4.410  14.481  13.314
69966SOL    HW111795   4.339  14.541  13.290
69966SOL    HW211796   4.427  14.431  13.233
69967SOL     OW11797   5.624  11.509   5.100
69967SOL    HW111798   5.633  11.464   5.016
69967SOL    HW211799   5.712  11.508   5.137
69968SOL     OW11800   1.234   0.050   8.450
69968SOL    HW111801   1.214   0.054   8.356
69968SOL    HW211802   1.313  14.875   8.455
69969SOL     OW11803  11.674   1.994  14.131
69969SOL    HW111804  11.763   1.967  14.108
69969SOL    HW211805  11.677   2.090  14.127
69970SOL     OW11806   6.896   5.516   9.664
69970SOL    HW111807   6.911   5.497   9.757
69970SOL    HW211808   6.979   5.499   9.622
69971SOL     OW11809  13.570  13.559   4.924
69971SOL    HW111810  13.658  13.578   4.892
69971SOL    HW211811  13.541  13.484   4.871
69972SOL     OW11812   1.840  11.524   7.915
69972SOL    HW111813   1.845  11.584   7.840
69972SOL    HW211814   1.786  11.570   7.979
69973SOL     OW11815   4.152   1.008  10.913
69973SOL    HW111816   4.073   0.954  10.910
69973SOL    HW211817   4.214   0.958  10.966
69974SOL     OW11818   1.598   4.456   7.758
69974SOL    HW111819   1.643   4.540   7.749
69974SOL    HW211820   1.516   4.468   7.709
69975SOL     OW11821  10.080   0.598   4.935
69975SOL    HW111822  10.076   0.690   4.912
69975SOL    HW211823  10.129   0.596   5.017
69976SOL     OW11824   6.609   7.795   2.578
69976SOL    HW111825   6.633   7.855   2.507
69976SOL    HW211826   6.683   7.799   2.638
69977SOL     OW11827   7.049   6.585   4.739
69977SOL    HW111828   7.094   6.563   4.821
69977SOL    HW211829   7.111   6.639   4.691
69978SOL     OW11830  10.131   2.794   3.782
69978SOL    HW111831  10.065   2.791   3.713
69978SOL    HW211832  10.156   2.886   3.788
69979SOL     OW11833   9.682  13.923   2.480
69979SOL    HW111834   9.630  13.934   2.560
69979SOL    HW211835   9.724  13.838   2.491
69980SOL     OW11836  13.658   9.552   8.731
69980SOL    HW111837  13.584   9.613   8.734
69980SOL    HW211838  13.722   9.596   8.675
69981SOL     OW11839   0.820   5.584   7.859
69981SOL    HW111840   0.726   5.604   7.852
69981SOL    HW211841   0.824   5.512   7.922
69982SOL     OW11842   3.168  12.721   8.177
69982SOL    HW111843   3.125  12.677   8.104
69982SOL    HW211844   3.097  12.761   8.227
69983SOL     OW11845   8.469   4.509  13.018
69983SOL    HW111846   8.381   4.481  13.043
69983SOL    HW211847   8.510   4.535  13.101
69984SOL     OW11848   4.633  11.784   2.561
69984SOL    HW111849   4.684  11.812   2.485
69984SOL    HW211850   4.545  11.819   2.545
69985SOL     OW11851   5.393   8.322   1.509
69985SOL    HW111852   5.320   8.311   1.570
69985SOL    HW211853   5.408   8.417   1.507
69986SOL     OW11854   7.768   5.177   6.140
69986SOL    HW111855   7.757   5.127   6.059
69986SOL    HW211856   7.799   5.113   6.203
69987SOL     OW11857   9.967  14.215  14.363
69987SOL    HW111858  10.012  14.205  14.447
69987SOL    HW211859   9.904  14.143  14.361
69988SOL     OW11860   7.461   0.624  11.126
69988SOL    HW111861   7.390   0.579  11.171
69988SOL    HW211862   7.533   0.560  11.126
69989SOL     OW11863  12.323   7.072   8.860
69989SOL    HW111864  12.307   6.985   8.824
69989SOL    HW211865  12.242   7.120   8.840
69990SOL     OW11866   2.569  10.335   2.055
69990SOL    HW111867   2.545  10.254   2.099
69990SOL    HW211868   2.551  10.403   2.120
69991SOL     OW11869   7.993   2.723   5.070
69991SOL    HW111870   7.909   2.747   5.109
69991SOL    HW211871   8.057   2.771   5.121
69992SOL     OW11872   1.816   4.052  11.424
69992SOL    HW111873   1.839   3.961  11.443
69992SOL    HW211874   1.798   4.090  11.510
69993SOL     OW11875   7.720   3.365   5.256
69993SOL    HW111876   7.815   3.374   5.254
69993SOL    HW211877   7.701   3.325   5.341
69994SOL     OW11878   1.758   1.736  14.348
69994SOL    HW111879   1.836   1.687  14.322
69994SOL    HW211880   1.685   1.678  14.330
69995SOL     OW11881   6.246   4.298  13.811
69995SOL    HW111882   6.226   4.232  13.745
69995SOL    HW211883   6.335   4.277  13.840
69996SOL     OW11884  12.535   2.283  12.788
69996SOL    HW111885  12.523   2.281  12.883
69996SOL    HW211886  12.590   2.360  12.772
69997SOL     OW11887  12.096  11.073   1.085
69997SOL    HW111888  12.035  11.079   1.159
69997SOL    HW211889  12.086  10.983   1.053
69998SOL     OW11890   1.223   8.914  10.223
69998SOL    HW111891   1.146   8.888  10.273
69998SOL    HW211892   1.251   8.835  10.177
69999SOL     OW11893   0.994   2.170  10.580
69999SOL    HW111894   0.958   2.244  10.628
69999SOL    HW211895   1.085   2.195  10.562
70000SOL     OW11896   4.416   9.083   4.543
70000SOL    HW111897   4.382   9.016   4.483
70000SOL    HW211898   4.380   9.165   4.510
70001SOL     OW11899   6.775   1.049   7.555
70001SOL    HW111900   6.693   1.004   7.573
70001SOL    HW211901   6.796   1.025   7.464
70002SOL     OW11902   6.049   2.123   5.176
70002SOL    HW111903   6.089   2.133   5.089
70002SOL    HW211904   6.113   2.162   5.236
70003SOL     OW11905   1.377  12.064   4.140
70003SOL    HW111906   1.417  12.007   4.206
70003SOL    HW211907   1.329  12.005   4.082
70004SOL     OW11908   1.119   1.243  12.679
70004SOL    HW111909   1.097   1.319  12.733
70004SOL    HW211910   1.188   1.198  12.729
70005SOL     OW11911   6.577   9.605   0.429
70005SOL    HW111912   6.626   9.581   0.508
70005SOL    HW211913   6.644   9.634   0.367
70006SOL     OW11914   2.872  10.117  13.430
70006SOL    HW111915   2.827  10.049  13.479
70006SOL    HW211916   2.919  10.168  13.496
70007SOL     OW11917  13.888   7.419   8.954
70007SOL    HW111918  13.979   7.443   8.969
70007SOL    HW211919  13.840   7.502   8.952
70008SOL     OW11920   3.666   0.805   3.161
70008SOL    HW111921   3.683   0.892   3.197
70008SOL    HW211922   3.747   0.783   3.114
70009SOL     OW11923   5.271   1.712   2.906
70009SOL    HW111924   5.187   1.702   2.951
70009SOL    HW211925   5.249   1.757   2.824
70010SOL     OW11926  13.850  13.359   7.084
70010SOL    HW111927  13.937  13.369   7.122
70010SOL    HW211928  13.797  13.426   7.127
70011SOL     OW11929   7.720  13.430   9.020
70011SOL    HW111930   7.803  13.418   9.067
70011SOL    HW211931   7.728  13.517   8.980
70012SOL     OW11932   9.573   4.034   6.644
70012SOL    HW111933   9.572   4.127   6.619
70012SOL    HW211934   9.665   4.009   6.637
70013SOL     OW11935  10.720   2.810   6.239
70013SOL    HW111936  10.738   2.831   6.147
70013SOL    HW211937  10.805   2.820   6.283
70014SOL     OW11938   7.588   4.528   4.127
70014SOL    HW111939   7.674   4.486   4.135
70014SOL    HW211940   7.531   4.475   4.182
70015SOL     OW11941  12.116   7.576   8.323
70015SOL    HW111942  12.118   7.666   8.356
70015SOL    HW211943  12.023   7.554   8.318
70016SOL     OW11944   2.680   2.408   9.510
70016SOL    HW111945   2.683   2.360   9.428
70016SOL    HW211946   2.726   2.352   9.573
70017SOL     OW11947  13.870   2.104   9.839
70017SOL    HW111948  13.963   2.083   9.835
70017SOL    HW211949  13.826   2.019   9.827
70018SOL     OW11950  12.456   4.145   0.734
70018SOL    HW111951  12.481   4.224   0.685
70018SOL    HW211952  12.485   4.073   0.679
70019SOL     OW11953   5.368  11.224   4.635
70019SOL    HW111954   5.437  11.234   4.569
70019SOL    HW211955   5.352  11.129   4.639
70020SOL     OW11956   9.088  12.874  14.276
70020SOL    HW111957   9.009  12.820  14.283
70020SOL    HW211958   9.142  12.849  14.351
70021SOL     OW11959   3.528  10.139   2.867
70021SOL    HW111960   3.441  10.157   2.831
70021SOL    HW211961   3.518  10.148   2.962
70022SOL     OW11962  12.727  13.588   1.825
70022SOL    HW111963  12.753  13.503   1.789
70022SOL    HW211964  12.648  13.611   1.777
70023SOL     OW11965   5.910   1.148   2.592
70023SOL    HW111966   5.974   1.217   2.613
70023SOL    HW211967   5.952   1.098   2.522
70024SOL     OW11968   2.270  13.836   0.784
70024SOL    HW111969   2.346  13.803   0.831
70024SOL    HW211970   2.249  13.919   0.827
70025SOL     OW11971   2.355   2.053   8.401
70025SOL    HW111972   2.321   1.966   8.382
70025SOL    HW211973   2.417   2.039   8.473
70026SOL     OW11974   5.841   1.405  11.010
70026SOL    HW111975   5.748   1.385  11.022
70026SOL    HW211976   5.851   1.492  11.047
70027SOL     OW11977   3.435   2.841   2.205
70027SOL    HW111978   3.391   2.790   2.136
70027SOL    HW211979   3.363   2.873   2.260
70028SOL     OW11980  14.195   2.087   7.555
70028SOL    HW111981  14.268   2.091   7.618
70028SOL    HW211982  14.182   2.178   7.529
70029SOL     OW11983   3.157   0.026  12.228
70029SOL    HW111984   3.231   0.081  12.255
70029SOL    HW211985   3.198  14.835  12.178
70030SOL     OW11986   6.675  10.392   2.727
70030SOL    HW111987   6.716  10.469   2.687
70030SOL    HW211988   6.744  10.354   2.782
70031SOL     OW11989   2.463   4.537   4.898
70031SOL    HW111990   2.511   4.491   4.830
70031SOL    HW211991   2.511   4.619   4.910
70032SOL     OW11992  14.031   1.787   8.431
70032SOL    HW111993  13.958   1.833   8.390
70032SOL    HW211994  14.106   1.846   8.421
70033SOL     OW11995   5.574   0.331   5.005
70033SOL    HW111996   5.499   0.294   4.958
70033SOL    HW211997   5.614   0.257   5.050
70034SOL     OW11998   7.753  12.956   0.663
70034SOL    HW111999   7.690  13.000   0.721
70034SOL    HW212000   7.720  12.867   0.656
70035SOL     OW12001  13.332   8.095   7.098
70035SOL    HW112002  13.328   8.022   7.037
70035SOL    HW212003  13.285   8.166   7.054
70036SOL     OW12004   4.540   0.645   8.966
70036SOL    HW112005   4.508   0.725   9.008
70036SOL    HW212006   4.635   0.650   8.974
70037SOL     OW12007   7.619   0.432  12.636
70037SOL    HW112008   7.619   0.346  12.679
70037SOL    HW212009   7.561   0.485  12.691
70038SOL     OW12010   7.686   8.831   7.777
70038SOL    HW112011   7.633   8.819   7.698
70038SOL    HW212012   7.776   8.835   7.745
70039SOL     OW12013   4.839   4.003   5.739
70039SOL    HW112014   4.880   4.066   5.680
70039SOL    HW212015   4.905   3.934   5.750
70040SOL     OW12016   3.783  14.878   3.529
70040SOL    HW112017   3.827  14.822   3.465
70040SOL    HW212018   3.692  14.848   3.527
70041SOL     OW12019   9.611  10.183   1.725
70041SOL    HW112020   9.637  10.109   1.780
70041SOL    HW212021   9.578  10.249   1.786
70042SOL     OW12022   5.635   9.493  13.804
70042SOL    HW112023   5.628   9.421  13.741
70042SOL    HW212024   5.728   9.518  13.802
70043SOL     OW12025   1.851   7.834   8.836
70043SOL    HW112026   1.870   7.927   8.829
70043SOL    HW212027   1.874   7.798   8.750
70044SOL     OW12028   2.228   5.866  10.386
70044SOL    HW112029   2.177   5.815  10.322
70044SOL    HW212030   2.319   5.848  10.364
70045SOL     OW12031  10.439   3.233   1.579
70045SOL    HW112032  10.368   3.252   1.518
70045SOL    HW212033  10.484   3.317   1.590
70046SOL     OW12034   6.403   0.368   5.389
70046SOL    HW112035   6.328   0.311   5.373
70046SOL    HW212036   6.446   0.331   5.466
70047SOL     OW12037   2.882   8.100   1.423
70047SOL    HW112038   2.800   8.061   1.451
70047SOL    HW212039   2.907   8.050   1.346
70048SOL     OW12040   1.071  13.977   7.982
70048SOL    HW112041   1.155  13.945   8.016
70048SOL    HW212042   1.007  13.945   8.045
70049SOL     OW12043   7.032   9.714   9.734
70049SOL    HW112044   7.115   9.704   9.688
70049SOL    HW212045   6.977   9.643   9.700
70050SOL     OW12046   5.545   1.918   1.250
70050SOL    HW112047   5.557   1.944   1.341
70050SOL    HW212048   5.610   1.849   1.236
70051SOL     OW12049   9.641   3.593   8.309
70051SOL    HW112050   9.600   3.518   8.352
70051SOL    HW212051   9.729   3.596   8.346
70052SOL     OW12052  11.313  13.327   9.169
70052SOL    HW112053  11.244  13.381   9.132
70052SOL    HW212054  11.372  13.309   9.096
70053SOL     OW12055   7.737  13.382  12.220
70053SOL    HW112056   7.827  13.387  12.189
70053SOL    HW212057   7.689  13.442  12.163
70054SOL     OW12058   1.782  11.011  13.321
70054SOL    HW112059   1.771  11.079  13.255
70054SOL    HW212060   1.751  11.052  13.402
70055SOL     OW12061  12.535   9.206  14.267
70055SOL    HW112062  12.550   9.195  14.361
70055SOL    HW212063  12.441   9.195  14.257
70056SOL     OW12064   6.793  10.725  10.628
70056SOL    HW112065   6.821  10.635  10.644
70056SOL    HW212066   6.850  10.756  10.557
70057SOL     OW12067   0.228   4.744   5.779
70057SOL    HW112068   0.137   4.773   5.776
70057SOL    HW212069   0.227   4.657   5.740
70058SOL     OW12070   7.535   3.990   6.880
70058SOL    HW112071   7.527   4.051   6.807
70058SOL    HW212072   7.602   4.029   6.937
70059SOL     OW12073   8.269  14.676   3.266
70059SOL    HW112074   8.216  14.649   3.341
70059SOL    HW212075   8.299  14.594   3.227
70060SOL     OW12076   5.312   8.190   9.975
70060SOL    HW112077   5.231   8.232   9.945
70060SOL    HW212078   5.308   8.196  10.070
70061SOL     OW12079   4.508   4.664   3.302
70061SOL    HW112080   4.471   4.712   3.377
70061SOL    HW212081   4.433   4.619   3.263
70062SOL     OW12082  13.333   2.626  13.937
70062SOL    HW112083  13.239   2.625  13.920
70062SOL    HW212084  13.373   2.611  13.851
70063SOL     OW12085   6.727   8.328  12.022
70063SOL    HW112086   6.672   8.406  12.031
70063SOL    HW212087   6.669   8.255  12.043
70064SOL     OW12088   0.509   2.735  11.771
70064SOL    HW112089   0.578   2.709  11.832
70064SOL    HW212090   0.553   2.787  11.705
70065SOL     OW12091  13.521  13.358   4.691
70065SOL    HW112092  13.460  13.289   4.716
70065SOL    HW212093  13.464  13.434   4.674
70066SOL     OW12094   6.400  10.156   4.724
70066SOL    HW112095   6.402  10.167   4.629
70066SOL    HW212096   6.385  10.244   4.758
70067SOL     OW12097   4.252   3.962   7.475
70067SOL    HW112098   4.344   3.983   7.490
70067SOL    HW212099   4.225   4.021   7.405
70068SOL     OW12100   0.246   6.659   1.872
70068SOL    HW112101   0.157   6.624   1.876
70068SOL    HW212102   0.246   6.732   1.934
70069SOL     OW12103   8.755   5.089  12.356
70069SOL    HW112104   8.743   5.017  12.294
70069SOL    HW212105   8.706   5.062  12.434
70070SOL     OW12106   3.141   0.660   2.776
70070SOL    HW112107   3.080   0.588   2.788
70070SOL    HW212108   3.089   0.739   2.794
70071SOL     OW12109  13.401   5.553   7.346
70071SOL    HW112110  13.404   5.609   7.269
70071SOL    HW212111  13.335   5.594   7.402
70072SOL     OW12112  11.230  12.774   3.590
70072SOL    HW112113  11.165  12.842   3.572
70072SOL    HW212114  11.189  12.693   3.561
70073SOL     OW12115   2.027   1.092   9.979
70073SOL    HW112116   2.071   1.063   9.899
70073SOL    HW212117   2.072   1.047  10.050
70074SOL     OW12118  13.691  12.631   8.032
70074SOL    HW112119  13.686  12.719   8.068
70074SOL    HW212120  13.750  12.638   7.957
70075SOL     OW12121   1.592   1.164   8.141
70075SOL    HW112122   1.662   1.141   8.080
70075SOL    HW212123   1.635   1.214   8.210
70076SOL     OW12124   0.641  13.052   1.791
70076SOL    HW112125   0.583  13.083   1.861
70076SOL    HW212126   0.619  12.959   1.782
70077SOL     OW12127  11.863  11.430  11.002
70077SOL    HW112128  11.917  11.475  10.937
70077SOL    HW212129  11.793  11.390  10.951
70078SOL     OW12130   5.611   1.978   1.504
70078SOL    HW112131   5.635   2.063   1.543
70078SOL    HW212132   5.690   1.926   1.510
70079SOL     OW12133   9.084  10.969  11.002
70079SOL    HW112134   9.122  11.025  10.934
70079SOL    HW212135   9.090  10.880  10.965
70080SOL     OW12136   1.240   3.210  13.514
70080SOL    HW112137   1.209   3.251  13.595
70080SOL    HW212138   1.211   3.269  13.445
70081SOL     OW12139  14.419   6.009   6.217
70081SOL    HW112140  14.463   6.065   6.153
70081SOL    HW212141  14.464   6.028   6.300
70082SOL     OW12142  13.212   1.154   9.455
70082SOL    HW112143  13.215   1.064   9.487
70082SOL    HW212144  13.174   1.147   9.367
70083SOL     OW12145   5.614   2.589  11.972
70083SOL    HW112146   5.611   2.665  12.030
70083SOL    HW212147   5.589   2.515  12.026
70084SOL     OW12148  13.308   5.271   5.957
70084SOL    HW112149  13.246   5.343   5.969
70084SOL    HW212150  13.296   5.216   6.035
70085SOL     OW12151  11.939   6.225   0.562
70085SOL    HW112152  12.002   6.230   0.634
70085SOL    HW212153  11.854   6.217   0.605
70086SOL     OW12154   3.682   0.678  13.580
70086SOL    HW112155   3.720   0.707  13.497
70086SOL    HW212156   3.733   0.722  13.647
70087SOL     OW12157  11.037   1.489   9.253
70087SOL    HW112158  10.970   1.479   9.322
70087SOL    HW212159  11.108   1.536   9.296
70088SOL     OW12160   2.672   7.281  10.535
70088SOL    HW112161   2.646   7.331  10.457
70088SOL    HW212162   2.644   7.192  10.516
70089SOL     OW12163   4.563  13.076   2.745
70089SOL    HW112164   4.545  12.983   2.730
70089SOL    HW212165   4.483  13.110   2.783
70090SOL     OW12166  12.068   7.032  13.004
70090SOL    HW112167  12.128   6.959  12.985
70090SOL    HW212168  12.124   7.101  13.038
70091SOL     OW12169   0.512  10.620   6.635
70091SOL    HW112170   0.518  10.628   6.540
70091SOL    HW212171   0.578  10.556   6.659
70092SOL     OW12172   1.985  14.393   1.096
70092SOL    HW112173   1.972  14.374   1.003
70092SOL    HW212174   2.008  14.486   1.099
70093SOL     OW12175  10.563   4.171   6.063
70093SOL    HW112176  10.512   4.238   6.109
70093SOL    HW212177  10.509   4.092   6.069
70094SOL     OW12178   7.699  13.954   1.431
70094SOL    HW112179   7.670  14.043   1.448
70094SOL    HW212180   7.668  13.904   1.507
70095SOL     OW12181  11.517   7.912   3.408
70095SOL    HW112182  11.519   7.871   3.321
70095SOL    HW212183  11.608   7.913   3.436
70096SOL     OW12184   1.642   7.313   8.223
70096SOL    HW112185   1.610   7.311   8.313
70096SOL    HW212186   1.596   7.387   8.182
70097SOL     OW12187  14.362   6.695   5.633
70097SOL    HW112188  14.431   6.676   5.697
70097SOL    HW212189  14.284   6.654   5.670
70098SOL     OW12190   5.985  12.005   2.568
70098SOL    HW112191   6.050  11.936   2.581
70098SOL    HW212192   6.012  12.049   2.488
70099SOL     OW12193   3.194   1.846   2.803
70099SOL    HW112194   3.184   1.873   2.894
70099SOL    HW212195   3.215   1.752   2.808
70100SOL     OW12196   4.915  11.269   7.050
70100SOL    HW112197   4.874  11.314   7.124
70100SOL    HW212198   4.931  11.338   6.986
70101SOL     OW12199   9.631  12.318   6.817
70101SOL    HW112200   9.600  12.356   6.735
70101SOL    HW212201   9.676  12.238   6.790
70102SOL     OW12202   1.511  13.850   8.005
70102SOL    HW112203   1.509  13.847   7.910
70102SOL    HW212204   1.549  13.935   8.026
70103SOL     OW12205  13.544  12.927   7.769
70103SOL    HW112206  13.620  12.922   7.827
70103SOL    HW212207  13.556  12.854   7.708
70104SOL     OW12208   0.760  11.901  14.843
70104SOL    HW112209   0.826  11.954  14.798
70104SOL    HW212210   0.771  11.924   0.056
70105SOL     OW12211  14.017   0.965   3.313
70105SOL    HW112212  14.009   1.056   3.283
70105SOL    HW212213  14.055   0.971   3.400
70106SOL     OW12214   5.456   3.955  12.943
70106SOL    HW112215   5.478   3.864  12.963
70106SOL    HW212216   5.435   3.954  12.850
70107SOL     OW12217  14.335  12.776  10.602
70107SOL    HW112218  14.389  12.724  10.661
70107SOL    HW212219  14.282  12.831  10.659
70108SOL     OW12220  14.134   3.248   6.172
70108SOL    HW112221  14.227   3.248   6.195
70108SOL    HW212222  14.090   3.223   6.253
70109SOL     OW12223   2.837  12.247  10.737
70109SOL    HW112224   2.807  12.256  10.827
70109SOL    HW212225   2.763  12.206  10.691
70110SOL     OW12226   8.257  10.956   6.751
70110SOL    HW112227   8.183  11.013   6.730
70110SOL    HW212228   8.334  11.008   6.726
70111SOL     OW12229  14.725   6.342   6.577
70111SOL    HW112230  14.770   6.411   6.626
70111SOL    HW212231  14.750   6.261   6.621
70112SOL     OW12232   4.449  12.182   4.855
70112SOL    HW112233   4.491  12.117   4.798
70112SOL    HW212234   4.471  12.266   4.815
70113SOL     OW12235   7.575   1.783   3.629
70113SOL    HW112236   7.642   1.739   3.683
70113SOL    HW212237   7.614   1.868   3.608
70114SOL     OW12238   5.493   6.269   2.291
70114SOL    HW112239   5.486   6.301   2.381
70114SOL    HW212240   5.536   6.184   2.298
70115SOL     OW12241   0.044  10.293   4.210
70115SOL    HW112242  14.870  10.364   4.177
70115SOL    HW212243   0.021  10.218   4.155
70116SOL     OW12244   4.811  12.599   3.365
70116SOL    HW112245   4.813  12.529   3.430
70116SOL    HW212246   4.901  12.606   3.333
70117SOL     OW12247   8.680   2.946   4.314
70117SOL    HW112248   8.769   2.974   4.335
70117SOL    HW212249   8.682   2.926   4.220
70118SOL     OW12250   0.187   6.896   0.565
70118SOL    HW112251   0.260   6.918   0.507
70118SOL    HW212252   0.217   6.819   0.613
70119SOL     OW12253  11.417   0.611   0.094
70119SOL    HW112254  11.450   0.639   0.179
70119SOL    HW212255  11.405   0.693   0.045
70120SOL     OW12256   9.831  10.226  11.247
70120SOL    HW112257   9.926  10.231  11.251
70120SOL    HW212258   9.800  10.266  11.328
70121SOL     OW12259   7.537   9.416  14.056
70121SOL    HW112260   7.533   9.482  14.125
70121SOL    HW212261   7.529   9.333  14.103
70122SOL     OW12262   6.113  10.499   7.254
70122SOL    HW112263   6.152  10.437   7.192
70122SOL    HW212264   6.140  10.465   7.340
70123SOL     OW12265  14.782  14.221  13.696
70123SOL    HW112266  14.695  14.259  13.707
70123SOL    HW212267  14.768  14.126  13.701
70124SOL     OW12268  11.173   3.164   8.500
70124SOL    HW112269  11.141   3.114   8.574
70124SOL    HW212270  11.116   3.241   8.496
70125SOL     OW12271  13.119   9.923   3.659
70125SOL    HW112272  13.181   9.943   3.729
70125SOL    HW212273  13.120  10.000   3.603
70126SOL     OW12274  12.606   1.221  13.382
70126SOL    HW112275  12.681   1.173  13.417
70126SOL    HW212276  12.568   1.163  13.316
70127SOL     OW12277   7.468   0.453   0.155
70127SOL    HW112278   7.514   0.532   0.184
70127SOL    HW212279   7.436   0.412   0.235
70128SOL     OW12280   0.253   3.057  10.709
70128SOL    HW112281   0.347   3.057  10.689
70128SOL    HW212282   0.219   3.136  10.668
70129SOL     OW12283  10.887   6.386   3.837
70129SOL    HW112284  10.899   6.312   3.896
70129SOL    HW212285  10.851   6.348   3.757
70130SOL     OW12286   6.858  11.549   1.592
70130SOL    HW112287   6.936  11.501   1.565
70130SOL    HW212288   6.791  11.482   1.603
70131SOL     OW12289   0.545   2.740  10.073
70131SOL    HW112290   0.530   2.712  10.163
70131SOL    HW212291   0.628   2.698  10.049
70132SOL     OW12292   8.684   1.302   5.807
70132SOL    HW112293   8.746   1.319   5.736
70132SOL    HW212294   8.735   1.256   5.873
70133SOL     OW12295  11.801  11.382  11.350
70133SOL    HW112296  11.867  11.448  11.328
70133SOL    HW212297  11.851  11.311  11.390
70134SOL     OW12298   5.783  10.650  13.268
70134SOL    HW112299   5.732  10.570  13.282
70134SOL    HW212300   5.840  10.630  13.194
70135SOL     OW12301  14.787   0.423   1.555
70135SOL    HW112302  14.871   0.422   1.509
70135SOL    HW212303  14.791   0.501   1.611
70136SOL     OW12304   9.565   4.436  13.231
70136SOL    HW112305   9.604   4.467  13.149
70136SOL    HW212306   9.500   4.370  13.203
70137SOL     OW12307  13.770   8.678   5.813
70137SOL    HW112308  13.804   8.713   5.731
70137SOL    HW212309  13.696   8.622   5.786
70138SOL     OW12310  11.126   4.253  13.987
70138SOL    HW112311  11.039   4.293  13.996
70138SOL    HW212312  11.108   4.162  13.965
70139SOL     OW12313   9.940  12.910   9.844
70139SOL    HW112314   9.905  12.925   9.932
70139SOL    HW212315   9.862  12.892   9.791
70140SOL     OW12316  13.671   0.498  14.627
70140SOL    HW112317  13.591   0.474  14.579
70140SOL    HW212318  13.641   0.559  14.695
70141SOL     OW12319  12.704   8.452   6.486
70141SOL    HW112320  12.784   8.492   6.522
70141SOL    HW212321  12.638   8.521   6.492
70142SOL     OW12322   4.173   6.449   7.223
70142SOL    HW112323   4.153   6.507   7.296
70142SOL    HW212324   4.117   6.479   7.152
70143SOL     OW12325   3.157   9.268   1.199
70143SOL    HW112326   3.147   9.261   1.104
70143SOL    HW212327   3.139   9.180   1.232
70144SOL     OW12328   0.689  12.256  14.326
70144SOL    HW112329   0.593  12.251  14.324
70144SOL    HW212330   0.712  12.244  14.418
70145SOL     OW12331   1.681  14.074  11.849
70145SOL    HW112332   1.734  14.081  11.928
70145SOL    HW212333   1.603  14.025  11.876
70146SOL     OW12334  13.742  13.782   5.477
70146SOL    HW112335  13.777  13.758   5.392
70146SOL    HW212336  13.813  13.829   5.520
70147SOL     OW12337  10.739   3.195   7.875
70147SOL    HW112338  10.645   3.210   7.878
70147SOL    HW212339  10.775   3.264   7.932
70148SOL     OW12340  10.704   6.689  11.367
70148SOL    HW112341  10.787   6.701  11.413
70148SOL    HW212342  10.689   6.771  11.321
70149SOL     OW12343   3.650  11.317   4.695
70149SOL    HW112344   3.616  11.339   4.608
70149SOL    HW212345   3.740  11.287   4.678
70150SOL     OW12346  11.237   9.197   7.575
70150SOL    HW112347  11.222   9.210   7.481
70150SOL    HW212348  11.299   9.266   7.599
70151SOL     OW12349  14.657   7.905  10.150
70151SOL    HW112350  14.717   7.834  10.174
70151SOL    HW212351  14.712   7.983  10.144
70152SOL     OW12352  12.588   3.901   1.644
70152SOL    HW112353  12.654   3.888   1.575
70152SOL    HW212354  12.564   3.994   1.636
70153SOL     OW12355   3.147   9.949  14.250
70153SOL    HW112356   3.214   9.920  14.312
70153SOL    HW212357   3.143   9.879  14.184
70154SOL     OW12358   2.161   2.482   1.238
70154SOL    HW112359   2.205   2.443   1.162
70154SOL    HW212360   2.187   2.428   1.312
70155SOL     OW12361  12.717   6.182  11.057
70155SOL    HW112362  12.807   6.161  11.034
70155SOL    HW212363  12.703   6.270  11.022
70156SOL     OW12364   2.358   2.040  13.408
70156SOL    HW112365   2.266   2.014  13.413
70156SOL    HW212366   2.404   1.977  13.463
70157SOL     OW12367  14.284   8.295   8.601
70157SOL    HW112368  14.298   8.207   8.635
70157SOL    HW212369  14.352   8.307   8.535
70158SOL     OW12370   5.698  14.264   6.385
70158SOL    HW112371   5.625  14.256   6.447
70158SOL    HW212372   5.768  14.305   6.435
70159SOL     OW12373   3.929   3.172  12.614
70159SOL    HW112374   3.959   3.252  12.569
70159SOL    HW212375   4.001   3.150  12.673
70160SOL     OW12376  10.459  14.251  13.977
70160SOL    HW112377  10.415  14.210  13.902
70160SOL    HW212378  10.545  14.209  13.980
70161SOL     OW12379   3.919   7.679  12.921
70161SOL    HW112380   3.870   7.685  13.003
70161SOL    HW212381   3.892   7.756  12.871
70162SOL     OW12382   9.347   9.306   7.479
70162SOL    HW112383   9.297   9.359   7.416
70162SOL    HW212384   9.382   9.234   7.427
70163SOL     OW12385  10.798  11.630   0.213
70163SOL    HW112386  10.837  11.638   0.126
70163SOL    HW212387  10.758  11.543   0.213
70164SOL     OW12388  10.225   6.850   0.375
70164SOL    HW112389  10.297   6.791   0.353
70164SOL    HW212390  10.208   6.834   0.467
70165SOL     OW12391  13.647  10.613   8.174
70165SOL    HW112392  13.666  10.637   8.264
70165SOL    HW212393  13.618  10.694   8.133
70166SOL     OW12394   1.006  12.671   7.545
70166SOL    HW112395   0.956  12.665   7.627
70166SOL    HW212396   1.094  12.698   7.573
70167SOL     OW12397   7.613  11.114  11.767
70167SOL    HW112398   7.641  11.103  11.858
70167SOL    HW212399   7.668  11.184  11.732
70168SOL     OW12400  12.075  12.776   7.090
70168SOL    HW112401  12.142  12.817   7.144
70168SOL    HW212402  12.121  12.709   7.040
70169SOL     OW12403   8.632   2.097  12.281
70169SOL    HW112404   8.641   2.192  12.276
70169SOL    HW212405   8.594   2.072  12.197
70170SOL     OW12406  10.448   4.699   9.956
70170SOL    HW112407  10.454   4.779   9.904
70170SOL    HW212408  10.538   4.671   9.968
70171SOL     OW12409  13.425   5.449  11.502
70171SOL    HW112410  13.485   5.451  11.576
70171SOL    HW212411  13.472   5.492  11.430
70172SOL     OW12412   1.366   4.692  13.042
70172SOL    HW112413   1.334   4.752  13.110
70172SOL    HW212414   1.311   4.614  13.051
70173SOL     OW12415   0.259   9.612   6.881
70173SOL    HW112416   0.259   9.524   6.917
70173SOL    HW212417   0.225   9.667   6.951
70174SOL     OW12418   5.687  10.839   4.150
70174SOL    HW112419   5.719  10.868   4.235
70174SOL    HW212420   5.706  10.745   4.148
70175SOL     OW12421   3.305   6.422   3.443
70175SOL    HW112422   3.269   6.355   3.386
70175SOL    HW212423   3.393   6.391   3.464
70176SOL     OW12424  14.180   1.305   7.068
70176SOL    HW112425  14.252   1.367   7.080
70176SOL    HW212426  14.170   1.298   6.973
70177SOL     OW12427  14.336   9.680  12.400
70177SOL    HW112428  14.381   9.747  12.350
70177SOL    HW212429  14.256   9.662  12.350
70178SOL     OW12430   4.795   7.902   0.687
70178SOL    HW112431   4.725   7.959   0.657
70178SOL    HW212432   4.781   7.820   0.640
70179SOL     OW12433  11.502   2.381   1.284
70179SOL    HW112434  11.569   2.313   1.292
70179SOL    HW212435  11.495   2.418   1.372
70180SOL     OW12436   5.081   9.606   7.435
70180SOL    HW112437   5.161   9.566   7.400
70180SOL    HW212438   5.104   9.698   7.449
70181SOL     OW12439  11.009   5.700   8.559
70181SOL    HW112440  10.940   5.699   8.493
70181SOL    HW212441  11.084   5.739   8.516
70182SOL     OW12442   3.258  12.787  14.288
70182SOL    HW112443   3.185  12.767  14.229
70182SOL    HW212444   3.312  12.709  14.289
70183SOL     OW12445  10.997   7.269  14.691
70183SOL    HW112446  10.929   7.242  14.630
70183SOL    HW212447  10.951   7.317  14.759
70184SOL     OW12448  13.703   4.843   6.218
70184SOL    HW112449  13.709   4.934   6.190
70184SOL    HW212450  13.672   4.796   6.140
70185SOL     OW12451   8.386  12.676   3.709
70185SOL    HW112452   8.367  12.628   3.628
70185SOL    HW212453   8.322  12.748   3.710
70186SOL     OW12454  14.419  12.751   9.640
70186SOL    HW112455  14.386  12.661   9.643
70186SOL    HW212456  14.371  12.792   9.569
70187SOL     OW12457  10.716   1.056   1.777
70187SOL    HW112458  10.634   1.063   1.827
70187SOL    HW212459  10.784   1.082   1.839
70188SOL     OW12460   4.586  14.391   3.889
70188SOL    HW112461   4.621  14.312   3.848
70188SOL    HW212462   4.656  14.422   3.946
70189SOL     OW12463   3.874   6.615   9.487
70189SOL    HW112464   3.918   6.640   9.569
70189SOL    HW212465   3.938   6.562   9.440
70190SOL     OW12466   7.575   1.889   6.791
70190SOL    HW112467   7.604   1.971   6.750
70190SOL    HW212468   7.489   1.872   6.752
70191SOL     OW12469  10.764   9.824   0.602
70191SOL    HW112470  10.818   9.893   0.641
70191SOL    HW212471  10.791   9.821   0.510
70192SOL     OW12472   3.843  13.158   2.192
70192SOL    HW112473   3.891  13.238   2.171
70192SOL    HW212474   3.902  13.108   2.248
70193SOL     OW12475   7.872  11.427   4.636
70193SOL    HW112476   7.908  11.339   4.649
70193SOL    HW212477   7.896  11.449   4.546
70194SOL     OW12478   8.457   4.896  11.146
70194SOL    HW112479   8.507   4.921  11.067
70194SOL    HW212480   8.517   4.913  11.218
70195SOL     OW12481  13.445   9.307   2.836
70195SOL    HW112482  13.453   9.382   2.894
70195SOL    HW212483  13.518   9.316   2.774
70196SOL     OW12484  10.414  13.681   9.506
70196SOL    HW112485  10.481  13.743   9.536
70196SOL    HW212486  10.410  13.695   9.411
70197SOL     OW12487   2.380   0.684   1.836
70197SOL    HW112488   2.465   0.644   1.818
70197SOL    HW212489   2.361   0.661   1.927
70198SOL     OW12490   0.474   9.415   3.661
70198SOL    HW112491   0.490   9.376   3.575
70198SOL    HW212492   0.384   9.389   3.682
70199SOL     OW12493   2.107  12.861   8.524
70199SOL    HW112494   2.074  12.823   8.605
70199SOL    HW212495   2.199  12.880   8.542
70200SOL     OW12496  10.836   2.819   8.084
70200SOL    HW112497  10.785   2.766   8.145
70200SOL    HW212498  10.845   2.765   8.006
70201SOL     OW12499   9.582   7.027  12.844
70201SOL    HW112500   9.648   7.080  12.799
70201SOL    HW212501   9.504   7.033  12.789
70202SOL     OW12502  11.602   0.788   7.570
70202SOL    HW112503  11.543   0.830   7.633
70202SOL    HW212504  11.557   0.799   7.486
70203SOL     OW12505   0.327   3.266   2.260
70203SOL    HW112506   0.373   3.189   2.293
70203SOL    HW212507   0.389   3.308   2.200
70204SOL     OW12508  11.642   3.776   4.232
70204SOL    HW112509  11.623   3.746   4.321
70204SOL    HW212510  11.721   3.829   4.242
70205SOL     OW12511  10.599  13.235  11.819
70205SOL    HW112512  10.667  13.292  11.856
70205SOL    HW212513  10.639  13.147  11.821
70206SOL     OW12514   9.524  13.707   1.973
70206SOL    HW112515   9.543  13.724   2.065
70206SOL    HW212516   9.535  13.613   1.963
70207SOL     OW12517   8.874  11.097   5.694
70207SOL    HW112518   8.968  11.106   5.708
70207SOL    HW212519   8.864  11.018   5.641
70208SOL     OW12520  12.592   2.013   8.974
70208SOL    HW112521  12.579   2.056   8.889
70208SOL    HW212522  12.671   1.960   8.962
70209SOL     OW12523   1.917  11.565   9.517
70209SOL    HW112524   1.980  11.621   9.471
70209SOL    HW212525   1.874  11.624   9.579
70210SOL     OW12526   1.210   9.833   4.182
70210SOL    HW112527   1.254   9.758   4.141
70210SOL    HW212528   1.122   9.802   4.203
70211SOL     OW12529   7.296   5.969   8.465
70211SOL    HW112530   7.284   6.035   8.396
70211SOL    HW212531   7.339   5.896   8.421
70212SOL     OW12532   6.511   9.304   9.255
70212SOL    HW112533   6.563   9.300   9.175
70212SOL    HW212534   6.422   9.323   9.225
70213SOL     OW12535   8.980   1.531   7.578
70213SOL    HW112536   9.032   1.455   7.606
70213SOL    HW212537   8.956   1.511   7.488
70214SOL     OW12538   4.256   0.031   1.168
70214SOL    HW112539   4.238  14.860   1.248
70214SOL    HW212540   4.173   0.073   1.147
70215SOL     OW12541   7.550  13.441  13.044
70215SOL    HW112542   7.627  13.393  13.013
70215SOL    HW212543   7.582  13.494  13.117
70216SOL     OW12544  14.439   8.969   8.698
70216SOL    HW112545  14.363   8.955   8.754
70216SOL    HW212546  14.512   8.932   8.747
70217SOL     OW12547  14.374   2.490   2.296
70217SOL    HW112548  14.300   2.517   2.351
70217SOL    HW212549  14.451   2.528   2.339
70218SOL     OW12550   9.733  13.675  11.453
70218SOL    HW112551   9.822  13.644  11.437
70218SOL    HW212552   9.735  13.768  11.431
70219SOL     OW12553   2.241   8.400   0.519
70219SOL    HW112554   2.171   8.415   0.454
70219SOL    HW212555   2.321   8.393   0.466
70220SOL     OW12556   5.139   7.010   5.151
70220SOL    HW112557   5.161   7.085   5.207
70220SOL    HW212558   5.072   6.962   5.200
70221SOL     OW12559  13.467  13.193   7.301
70221SOL    HW112560  13.547  13.235   7.332
70221SOL    HW212561  13.437  13.140   7.374
70222SOL     OW12562  14.480  12.061  11.182
70222SOL    HW112563  14.572  12.046  11.199
70222SOL    HW212564  14.434  12.004  11.243
70223SOL     OW12565   7.533  13.784  10.950
70223SOL    HW112566   7.444  13.761  10.924
70223SOL    HW212567   7.522  13.861  11.006
70224SOL     OW12568   5.900   0.262   5.205
70224SOL    HW112569   5.888   0.173   5.174
70224SOL    HW212570   5.910   0.254   5.300
70225SOL     OW12571   2.169   5.665  14.213
70225SOL    HW112572   2.147   5.581  14.172
70225SOL    HW212573   2.244   5.698  14.163
70226SOL     OW12574  10.224   3.442   4.516
70226SOL    HW112575  10.285   3.368   4.510
70226SOL    HW212576  10.143   3.404   4.547
70227SOL     OW12577   6.643   6.274   4.235
70227SOL    HW112578   6.570   6.263   4.296
70227SOL    HW212579   6.716   6.303   4.289
70228SOL     OW12580   2.248   1.533   7.797
70228SOL    HW112581   2.202   1.495   7.722
70228SOL    HW212582   2.327   1.573   7.759
70229SOL     OW12583   5.664  14.197   3.248
70229SOL    HW112584   5.635  14.140   3.319
70229SOL    HW212585   5.741  14.242   3.282
70230SOL     OW12586   7.331   1.968  11.445
70230SOL    HW112587   7.274   2.030  11.490
70230SOL    HW212588   7.271   1.908  11.401
70231SOL     OW12589   2.945  12.493  12.855
70231SOL    HW112590   2.993  12.416  12.885
70231SOL    HW212591   2.880  12.460  12.794
70232SOL     OW12592   0.987  11.155  13.257
70232SOL    HW112593   0.891  11.153  13.255
70232SOL    HW212594   1.009  11.246  13.240
70233SOL     OW12595   4.653   1.209   7.103
70233SOL    HW112596   4.609   1.127   7.081
70233SOL    HW212597   4.744   1.184   7.117
70234SOL     OW12598  12.524   6.791   5.951
70234SOL    HW112599  12.545   6.843   5.873
70234SOL    HW212600  12.569   6.837   6.023
70235SOL     OW12601   7.652  12.652   3.281
70235SOL    HW112602   7.628  12.671   3.372
70235SOL    HW212603   7.593  12.707   3.229
70236SOL     OW12604   5.683   8.472  11.616
70236SOL    HW112605   5.734   8.402  11.658
70236SOL    HW212606   5.730   8.490  11.535
70237SOL     OW12607  13.689  10.543  14.236
70237SOL    HW112608  13.768  10.494  14.213
70237SOL    HW212609  13.633  10.478  14.279
70238SOL     OW12610   3.721  10.127   7.274
70238SOL    HW112611   3.659  10.057   7.296
70238SOL    HW212612   3.698  10.199   7.332
70239SOL     OW12613   1.927   9.311  12.132
70239SOL    HW112614   1.892   9.398  12.149
70239SOL    HW212615   2.002   9.326  12.074
70240SOL     OW12616   7.767   5.933   7.499
70240SOL    HW112617   7.860   5.925   7.478
70240SOL    HW212618   7.762   6.006   7.560
70241SOL     OW12619   5.967  14.855   8.806
70241SOL    HW112620   5.999   0.046   8.863
70241SOL    HW212621   5.930   0.020   8.730
70242SOL     OW12622  10.166   4.992   8.275
70242SOL    HW112623  10.201   4.972   8.362
70242SOL    HW212624  10.079   5.027   8.292
70243SOL     OW12625   5.938   1.289   3.951
70243SOL    HW112626   5.997   1.303   3.876
70243SOL    HW212627   5.898   1.204   3.934
70244SOL     OW12628  12.486  14.315   2.507
70244SOL    HW112629  12.476  14.409   2.489
70244SOL    HW212630  12.396  14.281   2.508
70245SOL     OW12631  12.245   8.397   1.094
70245SOL    HW112632  12.205   8.374   1.179
70245SOL    HW212633  12.269   8.489   1.103
70246SOL     OW12634   0.818   9.297   2.282
70246SOL    HW112635   0.811   9.317   2.189
70246SOL    HW212636   0.874   9.220   2.287
70247SOL     OW12637   4.768   4.831   9.631
70247SOL    HW112638   4.836   4.887   9.669
70247SOL    HW212639   4.737   4.880   9.554
70248SOL     OW12640   3.467   6.188   7.172
70248SOL    HW112641   3.531   6.119   7.158
70248SOL    HW212642   3.515   6.256   7.219
70249SOL     OW12643  14.758  12.353   1.970
70249SOL    HW112644  14.709  12.428   2.006
70249SOL    HW212645  14.777  12.298   2.045
70250SOL     OW12646   9.932   3.835   0.997
70250SOL    HW112647   9.842   3.865   1.012
70250SOL    HW212648   9.923   3.763   0.934
70251SOL     OW12649   5.031  14.598   7.227
70251SOL    HW112650   4.974  14.649   7.169
70251SOL    HW212651   5.008  14.628   7.315
70252SOL     OW12652   2.281   0.041   8.497
70252SOL    HW112653   2.280   0.030   8.592
70252SOL    HW212654   2.370   0.071   8.478
70253SOL     OW12655   1.250   6.097  10.728
70253SOL    HW112656   1.249   6.128  10.818
70253SOL    HW212657   1.212   6.169  10.677
70254SOL     OW12658   1.024   8.038   5.443
70254SOL    HW112659   0.982   8.042   5.528
70254SOL    HW212660   1.080   8.116   5.440
70255SOL     OW12661   9.473   0.814   0.333
70255SOL    HW112662   9.389   0.837   0.295
70255SOL    HW212663   9.533   0.881   0.300
70256SOL     OW12664   8.308   8.603   1.835
70256SOL    HW112665   8.260   8.660   1.895
70256SOL    HW212666   8.396   8.641   1.831
70257SOL     OW12667   1.592   0.493   4.115
70257SOL    HW112668   1.526   0.504   4.184
70257SOL    HW212669   1.611   0.582   4.087
70258SOL     OW12670  10.398  12.023   3.513
70258SOL    HW112671  10.455  12.026   3.589
70258SOL    HW212672  10.457  12.022   3.437
70259SOL     OW12673  12.424   1.062   4.219
70259SOL    HW112674  12.440   1.069   4.125
70259SOL    HW212675  12.389   0.973   4.231
70260SOL     OW12676   0.981   6.722   8.948
70260SOL    HW112677   0.970   6.631   8.976
70260SOL    HW212678   1.074   6.740   8.964
70261SOL     OW12679   9.490  11.944   0.112
70261SOL    HW112680   9.444  11.915   0.034
70261SOL    HW212681   9.457  12.033   0.128
70262SOL     OW12682  12.006   9.680   3.081
70262SOL    HW112683  12.038   9.681   2.991
70262SOL    HW212684  12.072   9.729   3.131
70263SOL     OW12685   7.283   9.040   9.182
70263SOL    HW112686   7.347   9.026   9.113
70263SOL    HW212687   7.273   8.954   9.223
70264SOL     OW12688   9.316   6.818   4.356
70264SOL    HW112689   9.292   6.801   4.265
70264SOL    HW212690   9.237   6.856   4.396
70265SOL     OW12691   3.197   1.623  13.922
70265SOL    HW112692   3.267   1.687  13.915
70265SOL    HW212693   3.228   1.548  13.871
70266SOL     OW12694   5.114   2.954  14.499
70266SOL    HW112695   5.060   2.927  14.425
70266SOL    HW212696   5.160   2.875  14.526
70267SOL     OW12697   1.057   6.640   8.632
70267SOL    HW112698   1.072   6.548   8.613
70267SOL    HW212699   0.962   6.646   8.645
70268SOL     OW12700   0.851  14.802   6.208
70268SOL    HW112701   0.803  14.757   6.139
70268SOL    HW212702   0.943  14.782   6.190
70269SOL     OW12703  10.771  12.850  13.100
70269SOL    HW112704  10.755  12.759  13.124
70269SOL    HW212705  10.706  12.869  13.031
70270SOL     OW12706  12.827  12.587   8.145
70270SOL    HW112707  12.780  12.541   8.075
70270SOL    HW212708  12.882  12.650   8.099
70271SOL     OW12709   8.521  10.930  10.510
70271SOL    HW112710   8.551  10.944  10.600
70271SOL    HW212711   8.601  10.922  10.459
70272SOL     OW12712   2.860  10.149  12.359
70272SOL    HW112713   2.874  10.072  12.305
70272SOL    HW212714   2.809  10.209  12.304
70273SOL     OW12715   1.588  14.211   4.338
70273SOL    HW112716   1.527  14.242   4.271
70273SOL    HW212717   1.625  14.291   4.375
70274SOL     OW12718   7.955   6.497  12.484
70274SOL    HW112719   7.939   6.541  12.400
70274SOL    HW212720   8.038   6.533  12.514
70275SOL     OW12721  10.455   1.003  14.313
70275SOL    HW112722  10.440   1.059  14.237
70275SOL    HW212723  10.544   0.969  14.300
70276SOL     OW12724  13.595  13.688   3.594
70276SOL    HW112725  13.523  13.687   3.532
70276SOL    HW212726  13.674  13.694   3.541
70277SOL     OW12727   3.123   4.080   3.479
70277SOL    HW112728   3.097   4.075   3.571
70277SOL    HW212729   3.199   4.022   3.472
70278SOL     OW12730  13.720  12.968   7.140
70278SOL    HW112731  13.752  12.903   7.203
70278SOL    HW212732  13.706  13.047   7.193
70279SOL     OW12733   7.929   6.070  12.630
70279SOL    HW112734   7.886   5.985  12.618
70279SOL    HW212735   7.877   6.113  12.697
70280SOL     OW12736   7.818   6.192   9.959
70280SOL    HW112737   7.770   6.272   9.979
70280SOL    HW212738   7.783   6.163   9.874
70281SOL     OW12739  11.599   0.888   8.704
70281SOL    HW112740  11.549   0.939   8.641
70281SOL    HW212741  11.690   0.900   8.677
70282SOL     OW12742   1.830  10.811   7.285
70282SOL    HW112743   1.820  10.748   7.214
70282SOL    HW212744   1.918  10.794   7.320
70283SOL     OW12745   5.167   7.207   1.052
70283SOL    HW112746   5.186   7.267   1.124
70283SOL    HW212747   5.073   7.214   1.040
70284SOL     OW12748   9.599  11.671   6.177
70284SOL    HW112749   9.644  11.633   6.253
70284SOL    HW212750   9.523  11.716   6.215
70285SOL     OW12751   3.196   8.902   6.358
70285SOL    HW112752   3.231   8.837   6.298
70285SOL    HW212753   3.218   8.987   6.319
70286SOL     OW12754   6.525   6.894   0.316
70286SOL    HW112755   6.560   6.974   0.278
70286SOL    HW212756   6.465   6.924   0.385
70287SOL     OW12757   9.565  12.728   5.264
70287SOL    HW112758   9.600  12.678   5.191
70287SOL    HW212759   9.491  12.676   5.295
70288SOL     OW12760  14.243  10.370   3.779
70288SOL    HW112761  14.201  10.289   3.748
70288SOL    HW212762  14.210  10.438   3.720
70289SOL     OW12763  12.456   6.716  14.835
70289SOL    HW112764  12.423   6.802  14.862
70289SOL    HW212765  12.403   6.653   0.005
70290SOL     OW12766   3.610   6.234   8.513
70290SOL    HW112767   3.694   6.276   8.495
70290SOL    HW212768   3.565   6.235   8.428
70291SOL     OW12769   9.096   6.155   2.432
70291SOL    HW112770   9.043   6.156   2.512
70291SOL    HW212771   9.180   6.192   2.459
70292SOL     OW12772   5.327   6.645  11.724
70292SOL    HW112773   5.268   6.624  11.797
70292SOL    HW212774   5.297   6.590  11.652
70293SOL     OW12775   9.694   0.083  13.170
70293SOL    HW112776   9.633   0.153  13.144
70293SOL    HW212777   9.677   0.070  13.263
70294SOL     OW12778  14.180   1.337  12.914
70294SOL    HW112779  14.249   1.396  12.884
70294SOL    HW212780  14.201   1.253  12.875
70295SOL     OW12781  13.990   0.461   1.248
70295SOL    HW112782  13.980   0.553   1.223
70295SOL    HW212783  14.039   0.464   1.330
70296SOL     OW12784   5.993   6.764  10.488
70296SOL    HW112785   5.927   6.715  10.536
70296SOL    HW212786   6.074   6.749  10.536
70297SOL     OW12787   7.926   7.137  10.473
70297SOL    HW112788   7.994   7.193  10.435
70297SOL    HW212789   7.975   7.070  10.521
70298SOL     OW12790   6.683   2.411   9.258
70298SOL    HW112791   6.613   2.471   9.284
70298SOL    HW212792   6.707   2.440   9.170
70299SOL     OW12793   2.500   8.598   3.476
70299SOL    HW112794   2.424   8.597   3.417
70299SOL    HW212795   2.569   8.554   3.426
70300SOL     OW12796   1.996  12.721   0.505
70300SOL    HW112797   1.910  12.761   0.516
70300SOL    HW212798   2.044  12.746   0.585
70301SOL     OW12799   9.677   7.107   7.255
70301SOL    HW112800   9.679   7.157   7.337
70301SOL    HW212801   9.595   7.057   7.260
70302SOL     OW12802   9.348  14.355  13.472
70302SOL    HW112803   9.363  14.261  13.467
70302SOL    HW212804   9.354  14.385  13.381
70303SOL     OW12805   1.575   4.320   9.800
70303SOL    HW112806   1.484   4.349   9.805
70303SOL    HW212807   1.626   4.401   9.798
70304SOL     OW12808   1.205   7.658   5.333
70304SOL    HW112809   1.121   7.668   5.378
70304SOL    HW212810   1.192   7.702   5.249
70305SOL     OW12811   2.364  12.069   1.751
70305SOL    HW112812   2.373  12.019   1.832
70305SOL    HW212813   2.376  12.005   1.682
70306SOL     OW12814   3.382  13.300  13.033
70306SOL    HW112815   3.369  13.304  13.128
70306SOL    HW212816   3.315  13.360  12.998
70307SOL     OW12817   9.373   0.909   4.059
70307SOL    HW112818   9.462   0.932   4.035
70307SOL    HW212819   9.383   0.843   4.128
70308SOL     OW12820   4.873  13.620   9.006
70308SOL    HW112821   4.952  13.565   9.003
70308SOL    HW212822   4.804  13.566   8.968
70309SOL     OW12823   4.490  14.176   2.022
70309SOL    HW112824   4.503  14.264   2.056
70309SOL    HW212825   4.490  14.120   2.100
70310SOL     OW12826   4.844  11.881   3.334
70310SOL    HW112827   4.897  11.869   3.255
70310SOL    HW212828   4.784  11.807   3.334
70311SOL     OW12829  12.860   6.012   0.585
70311SOL    HW112830  12.782   6.025   0.640
70311SOL    HW212831  12.898   5.930   0.615
70312SOL     OW12832   6.353   3.891   7.217
70312SOL    HW112833   6.322   3.824   7.277
70312SOL    HW212834   6.292   3.887   7.143
70313SOL     OW12835   2.856  12.203   3.147
70313SOL    HW112836   2.883  12.131   3.204
70313SOL    HW212837   2.827  12.161   3.066
70314SOL     OW12838  11.835   9.108   4.184
70314SOL    HW112839  11.868   9.181   4.132
70314SOL    HW212840  11.779   9.059   4.124
70315SOL     OW12841   2.369   9.306   2.647
70315SOL    HW112842   2.287   9.283   2.603
70315SOL    HW212843   2.342   9.331   2.735
70316SOL     OW12844   5.033   9.312   2.675
70316SOL    HW112845   5.049   9.406   2.671
70316SOL    HW212846   4.947   9.301   2.635
70317SOL     OW12847   6.271   9.739  14.450
70317SOL    HW112848   6.234   9.819  14.487
70317SOL    HW212849   6.202   9.704  14.394
70318SOL     OW12850   2.843   0.537   9.547
70318SOL    HW112851   2.903   0.560   9.476
70318SOL    HW212852   2.830   0.619   9.594
70319SOL     OW12853   5.769   8.744   8.336
70319SOL    HW112854   5.764   8.838   8.320
70319SOL    HW212855   5.818   8.710   8.261
70320SOL     OW12856   9.562   9.593   7.847
70320SOL    HW112857   9.621   9.630   7.781
70320SOL    HW212858   9.531   9.511   7.808
70321SOL     OW12859  14.848   8.545   3.129
70321SOL    HW112860  14.765   8.504   3.153
70321SOL    HW212861  14.840   8.635   3.161
70322SOL     OW12862   0.543   3.659   3.982
70322SOL    HW112863   0.614   3.598   3.959
70322SOL    HW212864   0.578   3.745   3.963
70323SOL     OW12865   6.023  14.604   1.042
70323SOL    HW112866   6.028  14.512   1.017
70323SOL    HW212867   5.965  14.605   1.118
70324SOL     OW12868   6.423  12.689   0.455
70324SOL    HW112869   6.406  12.765   0.399
70324SOL    HW212870   6.481  12.722   0.524
70325SOL     OW12871   9.063   9.979   6.250
70325SOL    HW112872   9.048  10.011   6.339
70325SOL    HW212873   8.988  10.012   6.200
70326SOL     OW12874  13.938  10.618   8.151
70326SOL    HW112875  13.927  10.708   8.181
70326SOL    HW212876  13.849  10.583   8.146
70327SOL     OW12877   7.642   2.611   3.573
70327SOL    HW112878   7.722   2.639   3.529
70327SOL    HW212879   7.572   2.647   3.519
70328SOL     OW12880   5.413   3.419   2.532
70328SOL    HW112881   5.352   3.378   2.592
70328SOL    HW212882   5.400   3.513   2.544
70329SOL     OW12883   1.514   1.643  13.232
70329SOL    HW112884   1.432   1.619  13.274
70329SOL    HW212885   1.503   1.617  13.140
70330SOL     OW12886   8.076   8.569   8.989
70330SOL    HW112887   8.120   8.630   9.048
70330SOL    HW212888   8.140   8.499   8.974
70331SOL     OW12889   2.639   3.480   6.496
70331SOL    HW112890   2.685   3.509   6.575
70331SOL    HW212891   2.642   3.385   6.499
70332SOL     OW12892   3.721   8.570  12.705
70332SOL    HW112893   3.633   8.550  12.739
70332SOL    HW212894   3.780   8.540  12.774
70333SOL     OW12895   5.180  13.680   2.710
70333SOL    HW112896   5.203  13.751   2.649
70333SOL    HW212897   5.211  13.600   2.667
70334SOL     OW12898   2.825  10.208   0.179
70334SOL    HW112899   2.905  10.179   0.136
70334SOL    HW212900   2.798  10.134   0.232
70335SOL     OW12901   8.547   4.524   6.536
70335SOL    HW112902   8.537   4.584   6.611
70335SOL    HW212903   8.575   4.441   6.575
70336SOL     OW12904  11.772  10.378   3.920
70336SOL    HW112905  11.769  10.308   3.856
70336SOL    HW212906  11.686  10.419   3.916
70337SOL     OW12907   2.069   6.869  10.486
70337SOL    HW112908   2.115   6.843  10.566
70337SOL    HW212909   1.993   6.812  10.481
70338SOL     OW12910   2.724   6.831   8.982
70338SOL    HW112911   2.756   6.873   9.061
70338SOL    HW212912   2.675   6.900   8.936
70339SOL     OW12913   1.870   0.125   1.771
70339SOL    HW112914   1.829   0.051   1.816
70339SOL    HW212915   1.940   0.085   1.719
70340SOL     OW12916   7.542   2.390   1.772
70340SOL    HW112917   7.615   2.438   1.732
70340SOL    HW212918   7.486   2.366   1.698
70341SOL     OW12919  13.052   6.517   4.370
70341SOL    HW112920  12.990   6.484   4.305
70341SOL    HW212921  13.004   6.513   4.453
70342SOL     OW12922  10.953   3.025   7.201
70342SOL    HW112923  11.038   3.068   7.201
70342SOL    HW212924  10.895   3.084   7.250
70343SOL     OW12925   7.509  13.442   8.639
70343SOL    HW112926   7.479  13.360   8.599
70343SOL    HW212927   7.447  13.456   8.711
70344SOL     OW12928   3.473   4.971  10.521
70344SOL    HW112929   3.499   4.950  10.611
70344SOL    HW212930   3.474   4.887  10.476
70345SOL     OW12931  11.078   0.172   5.790
70345SOL    HW112932  11.153   0.165   5.850
70345SOL    HW212933  11.036   0.086   5.795
70346SOL     OW12934   6.448   0.737  14.127
70346SOL    HW112935   6.424   0.662  14.181
70346SOL    HW212936   6.458   0.809  14.188
70347SOL     OW12937   5.642   5.492   1.640
70347SOL    HW112938   5.729   5.529   1.629
70347SOL    HW212939   5.588   5.565   1.672
70348SOL     OW12940  14.067  14.651   7.328
70348SOL    HW112941  13.984  14.666   7.282
70348SOL    HW212942  14.134  14.676   7.264
70349SOL     OW12943  12.831   4.981  11.430
70349SOL    HW112944  12.806   5.035  11.355
70349SOL    HW212945  12.924   5.002  11.444
70350SOL     OW12946  13.965   6.512  14.693
70350SOL    HW112947  14.039   6.484  14.748
70350SOL    HW212948  13.953   6.441  14.631
70351SOL     OW12949   3.889   1.446  10.898
70351SOL    HW112950   3.925   1.530  10.869
70351SOL    HW212951   3.963   1.386  10.895
70352SOL     OW12952   1.596   7.938   1.358
70352SOL    HW112953   1.543   7.916   1.434
70352SOL    HW212954   1.573   8.029   1.338
70353SOL     OW12955  12.243   3.560  11.523
70353SOL    HW112956  12.327   3.586  11.560
70353SOL    HW212957  12.186   3.545  11.599
70354SOL     OW12958  14.049   6.059   7.554
70354SOL    HW112959  14.020   5.984   7.503
70354SOL    HW212960  14.115   6.024   7.614
70355SOL     OW12961   6.900  11.461   9.563
70355SOL    HW112962   6.931  11.518   9.633
70355SOL    HW212963   6.817  11.425   9.596
70356SOL     OW12964  14.180   8.304   7.728
70356SOL    HW112965  14.126   8.348   7.663
70356SOL    HW212966  14.209   8.224   7.684
70357SOL     OW12967   9.906   3.599   4.644
70357SOL    HW112968   9.975   3.655   4.678
70357SOL    HW212969   9.830   3.657   4.636
70358SOL     OW12970   8.697   9.822  10.650
70358SOL    HW112971   8.769   9.759  10.650
70358SOL    HW212972   8.739   9.906  10.629
70359SOL     OW12973   9.705  14.331   5.242
70359SOL    HW112974   9.711  14.261   5.177
70359SOL    HW212975   9.633  14.306   5.299
70360SOL     OW12976  13.619   7.023  12.376
70360SOL    HW112977  13.566   6.951  12.409
70360SOL    HW212978  13.699   6.982  12.344
70361SOL     OW12979   6.923   5.670  14.675
70361SOL    HW112980   6.945   5.617  14.752
70361SOL    HW212981   6.869   5.741  14.709
70362SOL     OW12982   0.872  14.050   2.269
70362SOL    HW112983   0.928  14.026   2.343
70362SOL    HW212984   0.797  14.094   2.310
70363SOL     OW12985   8.628  11.925   7.603
70363SOL    HW112986   8.672  11.885   7.678
70363SOL    HW212987   8.695  11.981   7.562
70364SOL     OW12988  13.447   6.946  14.291
70364SOL    HW112989  13.352   6.944  14.280
70364SOL    HW212990  13.469   7.038  14.300
70365SOL     OW12991   8.862  12.767  10.941
70365SOL    HW112992   8.832  12.695  10.996
70365SOL    HW212993   8.884  12.726  10.857
70366SOL     OW12994   5.026  14.413  14.500
70366SOL    HW112995   4.944  14.454  14.529
70366SOL    HW212996   5.012  14.319  14.515
70367SOL     OW12997  10.198  10.830  12.539
70367SOL    HW112998  10.129  10.890  12.510
70367SOL    HW212999  10.194  10.833  12.635
70368SOL     OW13000   4.680   1.469   6.898
70368SOL    HW113001   4.696   1.384   6.939
70368SOL    HW213002   4.665   1.448   6.806
70369SOL     OW13003   1.764  10.489  11.136
70369SOL    HW113004   1.760  10.537  11.054
70369SOL    HW213005   1.815  10.411  11.117
70370SOL     OW13006   7.865   2.536   1.764
70370SOL    HW113007   7.920   2.614   1.775
70370SOL    HW213008   7.926   2.469   1.732
70371SOL     OW13009   6.434  12.989  14.673
70371SOL    HW113010   6.427  13.064  14.731
70371SOL    HW213011   6.520  12.998  14.632
70372SOL     OW13012   9.749   2.861   9.190
70372SOL    HW113013   9.667   2.903   9.217
70372SOL    HW213014   9.771   2.803   9.262
70373SOL     OW13015   1.971   3.395   0.952
70373SOL    HW113016   1.969   3.425   0.862
70373SOL    HW213017   1.881   3.405   0.984
70374SOL     OW13018   7.539   9.580   5.804
70374SOL    HW113019   7.551   9.486   5.805
70374SOL    HW213020   7.547   9.605   5.711
70375SOL     OW13021  11.303   0.796   0.305
70375SOL    HW113022  11.280   0.755   0.388
70375SOL    HW213023  11.223   0.789   0.252
70376SOL     OW13024   4.331   7.994  13.636
70376SOL    HW113025   4.322   7.963  13.546
70376SOL    HW213026   4.252   7.963  13.680
70377SOL     OW13027   8.593  13.265  10.405
70377SOL    HW113028   8.619  13.230  10.490
70377SOL    HW213029   8.522  13.327  10.425
70378SOL     OW13030   8.144   1.760   8.027
70378SOL    HW113031   8.056   1.731   8.004
70378SOL    HW213032   8.202   1.691   7.992
70379SOL     OW13033   4.039  13.242   4.391
70379SOL    HW113034   4.103  13.300   4.350
70379SOL    HW213035   3.958  13.294   4.395
70380SOL     OW13036   5.696   3.298   8.056
70380SOL    HW113037   5.609   3.287   8.095
70380SOL    HW213038   5.679   3.302   7.962
70381SOL     OW13039   5.758   8.314   3.293
70381SOL    HW113040   5.715   8.315   3.378
70381SOL    HW213041   5.832   8.374   3.302
70382SOL     OW13042  11.334  13.911  12.545
70382SOL    HW113043  11.399  13.929  12.613
70382SOL    HW213044  11.257  13.880  12.592
70383SOL     OW13045   6.373  10.849   5.025
70383SOL    HW113046   6.381  10.754   5.034
70383SOL    HW213047   6.427  10.884   5.096
70384SOL     OW13048   9.406   6.487   9.474
70384SOL    HW113049   9.391   6.464   9.565
70384SOL    HW213050   9.347   6.560   9.457
70385SOL     OW13051   5.949   1.743   8.514
70385SOL    HW113052   5.865   1.696   8.523
70385SOL    HW213053   5.938   1.822   8.567
70386SOL     OW13054   1.053   4.815   2.676
70386SOL    HW113055   1.030   4.728   2.645
70386SOL    HW213056   0.969   4.859   2.692
70387SOL     OW13057  13.380  13.151   5.629
70387SOL    HW113058  13.298  13.182   5.592
70387SOL    HW213059  13.433  13.125   5.553
70388SOL     OW13060   0.070   0.347   6.923
70388SOL    HW113061   0.094   0.270   6.870
70388SOL    HW213062  14.862   0.369   6.893
70389SOL     OW13063  14.698  10.101  14.439
70389SOL    HW113064  14.781  10.130  14.402
70389SOL    HW213065  14.708  10.112  14.534
70390SOL     OW13066   9.190  11.352   1.696
70390SOL    HW113067   9.177  11.405   1.617
70390SOL    HW213068   9.226  11.269   1.664
70391SOL     OW13069   6.142   8.419  10.394
70391SOL    HW113070   6.170   8.332  10.365
70391SOL    HW213071   6.083   8.449  10.325
70392SOL     OW13072   4.679  13.131  10.402
70392SOL    HW113073   4.586  13.107  10.401
70392SOL    HW213074   4.684  13.208  10.457
70393SOL     OW13075   1.717  10.612  10.885
70393SOL    HW113076   1.791  10.665  10.852
70393SOL    HW213077   1.709  10.541  10.821
70394SOL     OW13078   2.618   6.368  14.664
70394SOL    HW113079   2.592   6.419  14.587
70394SOL    HW213080   2.569   6.286  14.657
70395SOL     OW13081   6.549  11.127   0.392
70395SOL    HW113082   6.460  11.093   0.393
70395SOL    HW213083   6.544  11.211   0.437
70396SOL     OW13084   9.267  12.522  11.463
70396SOL    HW113085   9.241  12.499  11.373
70396SOL    HW213086   9.192  12.495  11.517
70397SOL     OW13087   3.768   4.651  13.757
70397SOL    HW113088   3.833   4.607  13.811
70397SOL    HW213089   3.742   4.728  13.809
70398SOL     OW13090   1.406   9.175   0.571
70398SOL    HW113091   1.359   9.096   0.599
70398SOL    HW213092   1.402   9.171   0.475
70399SOL     OW13093   9.796   3.861   0.514
70399SOL    HW113094   9.710   3.820   0.515
70399SOL    HW213095   9.778   3.955   0.507
70400SOL     OW13096   1.262  11.379   9.842
70400SOL    HW113097   1.198  11.316   9.810
70400SOL    HW213098   1.306  11.334   9.914
70401SOL     OW13099   9.802  13.068  10.925
70401SOL    HW113100   9.877  13.115  10.962
70401SOL    HW213101   9.833  12.979  10.912
70402SOL     OW13102   3.589   4.087   5.746
70402SOL    HW113103   3.556   4.155   5.687
70402SOL    HW213104   3.614   4.133   5.825
70403SOL     OW13105   5.787  12.724   9.023
70403SOL    HW113106   5.858  12.664   9.001
70403SOL    HW213107   5.829  12.792   9.076
70404SOL     OW13108  12.526   8.865   4.551
70404SOL    HW113109  12.576   8.845   4.631
70404SOL    HW213110  12.589   8.856   4.480
70405SOL     OW13111   5.065   2.659  10.881
70405SOL    HW113112   5.081   2.752  10.895
70405SOL    HW213113   5.097   2.642  10.792
70406SOL     OW13114   9.357  11.345   7.685
70406SOL    HW113115   9.398  11.423   7.648
70406SOL    HW213116   9.428  11.297   7.727
70407SOL     OW13117   5.770  10.448   1.583
70407SOL    HW113118   5.760  10.529   1.634
70407SOL    HW213119   5.865  10.436   1.577
70408SOL     OW13120  13.145   0.149   3.934
70408SOL    HW113121  13.210   0.079   3.926
70408SOL    HW213122  13.138   0.185   3.846
70409SOL     OW13123   4.069   9.749   8.365
70409SOL    HW113124   4.136   9.733   8.298
70409SOL    HW213125   4.111   9.811   8.425
70410SOL     OW13126   9.311  11.422  14.028
70410SOL    HW113127   9.264  11.465  14.099
70410SOL    HW213128   9.393  11.471  14.019
70411SOL     OW13129   5.606  10.351   6.329
70411SOL    HW113130   5.521  10.377   6.365
70411SOL    HW213131   5.670  10.392   6.386
70412SOL     OW13132  10.728   3.835  11.689
70412SOL    HW113133  10.734   3.886  11.608
70412SOL    HW213134  10.715   3.900  11.758
70413SOL     OW13135  11.491  10.110   0.038
70413SOL    HW113136  11.530  10.147   0.117
70413SOL    HW213137  11.521  10.019   0.036
70414SOL     OW13138   5.080   5.714  14.285
70414SOL    HW113139   5.113   5.713  14.195
70414SOL    HW213140   5.128   5.786  14.327
70415SOL     OW13141   8.282  13.512   8.380
70415SOL    HW113142   8.340  13.437   8.370
70415SOL    HW213143   8.261  13.513   8.474
70416SOL     OW13144   4.937   0.077   7.090
70416SOL    HW113145   5.015   0.133   7.083
70416SOL    HW213146   4.910   0.085   7.182
70417SOL     OW13147   1.133   9.435  12.213
70417SOL    HW113148   1.186   9.389  12.147
70417SOL    HW213149   1.164   9.400  12.296
70418SOL     OW13150   0.194   6.960  10.140
70418SOL    HW113151   0.255   6.919  10.079
70418SOL    HW213152   0.219   6.926  10.225
70419SOL     OW13153   7.306  14.220   1.120
70419SOL    HW113154   7.219  14.259   1.111
70419SOL    HW213155   7.293  14.147   1.180
70420SOL     OW13156  10.507   4.089   0.223
70420SOL    HW113157  10.594   4.081   0.261
70420SOL    HW213158  10.505   4.176   0.184
70421SOL     OW13159   0.715   5.420  14.373
70421SOL    HW113160   0.764   5.421  14.455
70421SOL    HW213161   0.781   5.433  14.305
70422SOL     OW13162   8.695   5.924  10.948
70422SOL    HW113163   8.650   5.854  10.901
70422SOL    HW213164   8.719   5.987  10.880
70423SOL     OW13165   4.226   1.282   5.886
70423SOL    HW113166   4.277   1.363   5.896
70423SOL    HW213167   4.229   1.241   5.972
70424SOL     OW13168   4.079   5.599   6.886
70424SOL    HW113169   4.100   5.507   6.870
70424SOL    HW213170   4.050   5.632   6.801
70425SOL     OW13171  13.824   2.550   2.487
70425SOL    HW113172  13.761   2.552   2.415
70425SOL    HW213173  13.903   2.510   2.449
70426SOL     OW13174   1.353   9.280   4.376
70426SOL    HW113175   1.338   9.186   4.389
70426SOL    HW213176   1.420   9.303   4.440
70427SOL     OW13177   5.041   8.284   1.021
70427SOL    HW113178   5.066   8.300   1.113
70427SOL    HW213179   5.112   8.323   0.970
70428SOL     OW13180   4.410   4.258   4.148
70428SOL    HW113181   4.463   4.330   4.183
70428SOL    HW213182   4.380   4.210   4.225
70429SOL     OW13183   4.484   2.704   9.882
70429SOL    HW113184   4.470   2.796   9.902
70429SOL    HW213185   4.532   2.670   9.958
70430SOL     OW13186  13.534   4.661   8.208
70430SOL    HW113187  13.490   4.617   8.280
70430SOL    HW213188  13.519   4.754   8.224
70431SOL     OW13189   1.811   3.538   9.167
70431SOL    HW113190   1.900   3.509   9.147
70431SOL    HW213191   1.799   3.515   9.259
70432SOL     OW13192   6.004  11.611   5.449
70432SOL    HW113193   6.099  11.616   5.442
70432SOL    HW213194   5.974  11.697   5.420
70433SOL     OW13195   6.550   3.239   4.261
70433SOL    HW113196   6.462   3.240   4.222
70433SOL    HW213197   6.593   3.164   4.220
70434SOL     OW13198  10.697   0.926   7.488
70434SOL    HW113199  10.690   0.831   7.483
70434SOL    HW213200  10.750   0.951   7.413
70435SOL     OW13201  13.226   7.831   0.723
70435SOL    HW113202  13.233   7.820   0.628
70435SOL    HW213203  13.212   7.743   0.757
70436SOL     OW13204   7.602  11.885   9.520
70436SOL    HW113205   7.565  11.847   9.440
70436SOL    HW213206   7.526  11.901   9.576
70437SOL     OW13207   3.806   5.552   8.570
70437SOL    HW113208   3.715   5.559   8.598
70437SOL    HW213209   3.831   5.642   8.548
70438SOL     OW13210  11.570  13.896   3.572
70438SOL    HW113211  11.563  13.883   3.477
70438SOL    HW213212  11.518  13.975   3.589
70439SOL     OW13213   6.309   1.930  10.949
70439SOL    HW113214   6.285   2.006  11.002
70439SOL    HW213215   6.323   1.966  10.861
70440SOL     OW13216  13.952  12.407   2.083
70440SOL    HW113217  13.950  12.414   2.178
70440SOL    HW213218  13.861  12.388   2.059
70441SOL     OW13219   9.891  10.340   2.968
70441SOL    HW113220   9.828  10.370   2.903
70441SOL    HW213221   9.936  10.266   2.926
70442SOL     OW13222   3.116  13.224   9.696
70442SOL    HW113223   3.096  13.265   9.781
70442SOL    HW213224   3.085  13.287   9.631
70443SOL     OW13225  12.294   8.625  11.095
70443SOL    HW113226  12.379   8.611  11.138
70443SOL    HW213227  12.315   8.676  11.016
70444SOL     OW13228  14.680   6.688  11.676
70444SOL    HW113229  14.769   6.652  11.685
70444SOL    HW213230  14.690   6.757  11.610
70445SOL     OW13231   1.446  13.248   9.371
70445SOL    HW113232   1.366  13.294   9.344
70445SOL    HW213233   1.421  13.155   9.374
70446SOL     OW13234   3.692   0.168   6.494
70446SOL    HW113235   3.769   0.222   6.512
70446SOL    HW213236   3.719   0.110   6.423
70447SOL     OW13237   4.993  10.990  12.473
70447SOL    HW113238   5.084  11.002  12.445
70447SOL    HW213239   4.996  10.923  12.541
70448SOL     OW13240   9.696  11.571   9.396
70448SOL    HW113241   9.681  11.586   9.303
70448SOL    HW213242   9.791  11.567   9.405
70449SOL     OW13243  10.803  11.580   9.911
70449SOL    HW113244  10.711  11.574   9.887
70449SOL    HW213245  10.817  11.507   9.972
70450SOL     OW13246  13.672   6.396   3.871
70450SOL    HW113247  13.730   6.330   3.908
70450SOL    HW213248  13.593   6.391   3.925
70451SOL     OW13249  11.592  12.411   9.097
70451SOL    HW113250  11.541  12.362   9.033
70451SOL    HW213251  11.607  12.496   9.055
70452SOL     OW13252   5.310  10.667   6.301
70452SOL    HW113253   5.333  10.668   6.208
70452SOL    HW213254   5.375  10.724   6.342
70453SOL     OW13255   0.819  11.881  13.457
70453SOL    HW113256   0.907  11.876  13.494
70453SOL    HW213257   0.773  11.807  13.496
70454SOL     OW13258   1.498   2.543   5.316
70454SOL    HW113259   1.574   2.581   5.361
70454SOL    HW213260   1.428   2.547   5.381
70455SOL     OW13261   1.519  10.108  11.696
70455SOL    HW113262   1.533  10.155  11.614
70455SOL    HW213263   1.434  10.140  11.727
70456SOL     OW13264   7.919   3.013   7.568
70456SOL    HW113265   7.999   2.969   7.594
70456SOL    HW213266   7.925   3.100   7.606
70457SOL     OW13267   0.754  10.117  11.823
70457SOL    HW113268   0.671  10.104  11.868
70457SOL    HW213269   0.765  10.040  11.768
70458SOL     OW13270  12.718  10.110   6.412
70458SOL    HW113271  12.718  10.071   6.500
70458SOL    HW213272  12.656  10.183   6.419
70459SOL     OW13273  10.529   2.161   1.749
70459SOL    HW113274  10.495   2.225   1.686
70459SOL    HW213275  10.479   2.081   1.732
70460SOL     OW13276   3.849   4.665  10.675
70460SOL    HW113277   3.907   4.697  10.744
70460SOL    HW213278   3.898   4.594  10.633
70461SOL     OW13279   1.444   4.448   0.001
70461SOL    HW113280   1.517   4.460   0.061
70461SOL    HW213281   1.484   4.426  14.796
70462SOL     OW13282  14.570   5.169  10.381
70462SOL    HW113283  14.615   5.085  10.393
70462SOL    HW213284  14.517   5.156  10.302
70463SOL     OW13285   1.489   6.857  11.761
70463SOL    HW113286   1.451   6.924  11.818
70463SOL    HW213287   1.452   6.875  11.675
70464SOL     OW13288   1.687   8.916   5.043
70464SOL    HW113289   1.648   8.855   4.979
70464SOL    HW213290   1.756   8.961   4.994
70465SOL     OW13291   2.502   3.005   0.667
70465SOL    HW113292   2.491   2.911   0.681
70465SOL    HW213293   2.575   3.030   0.724
70466SOL     OW13294   2.207  11.319  10.628
70466SOL    HW113295   2.261  11.394  10.654
70466SOL    HW213296   2.241  11.293  10.543
70467SOL     OW13297   4.367   7.799  10.435
70467SOL    HW113298   4.455   7.826  10.460
70467SOL    HW213299   4.368   7.795  10.340
70468SOL     OW13300   9.397  13.534   2.917
70468SOL    HW113301   9.454  13.507   2.845
70468SOL    HW213302   9.438  13.497   2.995
70469SOL     OW13303   1.277   2.674  11.690
70469SOL    HW113304   1.317   2.591  11.664
70469SOL    HW213305   1.235   2.655  11.774
70470SOL     OW13306   2.690  13.875  13.029
70470SOL    HW113307   2.763  13.901  13.085
70470SOL    HW213308   2.627  13.835  13.089
70471SOL     OW13309   1.086  11.445  12.679
70471SOL    HW113310   1.040  11.453  12.596
70471SOL    HW213311   1.097  11.351  12.691
70472SOL     OW13312  11.854   8.694   2.435
70472SOL    HW113313  11.776   8.710   2.382
70472SOL    HW213314  11.893   8.780   2.449
70473SOL     OW13315   4.081   4.335  11.738
70473SOL    HW113316   4.021   4.310  11.808
70473SOL    HW213317   4.102   4.253  11.694
70474SOL     OW13318  13.981   2.910   6.257
70474SOL    HW113319  13.885   2.905   6.257
70474SOL    HW213320  14.006   2.883   6.169
70475SOL     OW13321   7.313   7.240   0.900
70475SOL    HW113322   7.230   7.273   0.865
70475SOL    HW213323   7.363   7.319   0.921
70476SOL     OW13324   6.995   7.189   3.004
70476SOL    HW113325   7.012   7.186   3.098
70476SOL    HW213326   6.989   7.282   2.983
70477SOL     OW13327   5.519   9.386   5.757
70477SOL    HW113328   5.466   9.391   5.837
70477SOL    HW213329   5.472   9.441   5.694
70478SOL     OW13330  13.719   8.604   7.842
70478SOL    HW113331  13.758   8.568   7.763
70478SOL    HW213332  13.628   8.574   7.840
70479SOL     OW13333  13.118  12.971  11.565
70479SOL    HW113334  13.193  12.947  11.619
70479SOL    HW213335  13.156  13.004  11.484
70480SOL     OW13336  14.695  14.813   8.863
70480SOL    HW113337  14.694  14.809   8.767
70480SOL    HW213338  14.614  14.769   8.889
70481SOL     OW13339  11.996   6.835   5.892
70481SOL    HW113340  11.994   6.890   5.814
70481SOL    HW213341  12.089   6.827   5.913
70482SOL     OW13342  13.588   4.705   0.650
70482SOL    HW113343  13.604   4.746   0.735
70482SOL    HW213344  13.523   4.761   0.607
70483SOL     OW13345   8.260   1.384  13.114
70483SOL    HW113346   8.294   1.301  13.145
70483SOL    HW213347   8.253   1.439  13.192
70484SOL     OW13348   9.965   1.736   9.642
70484SOL    HW113349   9.918   1.695   9.569
70484SOL    HW213350   9.930   1.693   9.720
70485SOL     OW13351   1.025   2.177   5.753
70485SOL    HW113352   0.975   2.254   5.778
70485SOL    HW213353   1.015   2.171   5.658
70486SOL     OW13354   7.325  13.231   7.705
70486SOL    HW113355   7.417  13.256   7.696
70486SOL    HW213356   7.296  13.276   7.784
70487SOL     OW13357  13.869   7.469   3.681
70487SOL    HW113358  13.799   7.452   3.619
70487SOL    HW213359  13.885   7.563   3.674
70488SOL     OW13360   9.230   9.280   1.193
70488SOL    HW113361   9.151   9.334   1.192
70488SOL    HW213362   9.280   9.310   1.117
70489SOL     OW13363   8.559   2.733   5.008
70489SOL    HW113364   8.633   2.746   4.950
70489SOL    HW213365   8.538   2.820   5.042
70490SOL     OW13366  10.494  12.650   6.552
70490SOL    HW113367  10.551  12.685   6.483
70490SOL    HW213368  10.534  12.679   6.634
70491SOL     OW13369   0.165   9.642   5.163
70491SOL    HW113370   0.115   9.561   5.174
70491SOL    HW213371   0.255   9.613   5.148
70492SOL     OW13372   6.104   7.161   9.986
70492SOL    HW113373   6.111   7.141  10.079
70492SOL    HW213374   6.188   7.135   9.949
70493SOL     OW13375   7.494   1.194  11.444
70493SOL    HW113376   7.530   1.254  11.509
70493SOL    HW213377   7.567   1.136  11.422
70494SOL     OW13378   6.586   9.557  13.648
70494SOL    HW113379   6.541   9.557  13.563
70494SOL    HW213380   6.572   9.469  13.683
70495SOL     OW13381   5.334  12.544   5.699
70495SOL    HW113382   5.381  12.595   5.632
70495SOL    HW213383   5.326  12.457   5.661
70496SOL     OW13384   7.215   3.478   3.199
70496SOL    HW113385   7.270   3.544   3.156
70496SOL    HW213386   7.160   3.528   3.259
70497SOL     OW13387   0.825   2.132   8.800
70497SOL    HW113388   0.841   2.092   8.886
70497SOL    HW213389   0.878   2.079   8.740
70498SOL     OW13390   6.301   7.131   6.736
70498SOL    HW113391   6.377   7.184   6.713
70498SOL    HW213392   6.337   7.045   6.756
70499SOL     OW13393   2.638   1.441   9.148
70499SOL    HW113394   2.659   1.494   9.072
70499SOL    HW213395   2.601   1.360   9.111
70500SOL     OW13396   5.179   8.263   3.945
70500SOL    HW113397   5.162   8.174   3.975
70500SOL    HW213398   5.162   8.260   3.850
70501SOL     OW13399   5.089  12.063   0.740
70501SOL    HW113400   5.096  12.155   0.766
70501SOL    HW213401   5.161  12.050   0.678
70502SOL     OW13402   1.598  14.565  12.371
70502SOL    HW113403   1.528  14.629  12.357
70502SOL    HW213404   1.575  14.523  12.454
70503SOL     OW13405   3.651   9.046  14.826
70503SOL    HW113406   3.673   9.129  14.869
70503SOL    HW213407   3.700   8.980  14.874
70504SOL     OW13408   4.656   1.093   4.133
70504SOL    HW113409   4.648   1.172   4.186
70504SOL    HW213410   4.742   1.058   4.155
70505SOL     OW13411   6.213   2.184  11.054
70505SOL    HW113412   6.173   2.270  11.050
70505SOL    HW213413   6.304   2.200  11.079
70506SOL     OW13414   0.127   4.622   6.484
70506SOL    HW113415   0.154   4.640   6.574
70506SOL    HW213416   0.175   4.543   6.460
70507SOL     OW13417  10.919   9.692  14.689
70507SOL    HW113418  10.861   9.633  14.737
70507SOL    HW213419  10.862   9.734  14.625
70508SOL     OW13420   5.819   7.557  14.333
70508SOL    HW113421   5.833   7.626  14.398
70508SOL    HW213422   5.899   7.505  14.337
70509SOL     OW13423  12.838   0.359   1.797
70509SOL    HW113424  12.749   0.388   1.779
70509SOL    HW213425  12.893   0.420   1.748
70510SOL     OW13426   6.441  11.710   0.949
70510SOL    HW113427   6.382  11.772   0.906
70510SOL    HW213428   6.524  11.718   0.902
70511SOL     OW13429  12.650   7.526   0.855
70511SOL    HW113430  12.604   7.465   0.797
70511SOL    HW213431  12.589   7.599   0.866
70512SOL     OW13432  14.309   0.895   0.273
70512SOL    HW113433  14.369   0.865   0.341
70512SOL    HW213434  14.333   0.845   0.195
70513SOL     OW13435   8.454   3.883   3.599
70513SOL    HW113436   8.535   3.852   3.558
70513SOL    HW213437   8.421   3.949   3.539
70514SOL     OW13438   8.047  12.603   0.567
70514SOL    HW113439   7.983  12.536   0.587
70514SOL    HW213440   8.028  12.674   0.628
70515SOL     OW13441   2.043   7.127   0.080
70515SOL    HW113442   1.990   7.075   0.019
70515SOL    HW213443   1.979   7.169   0.138
70516SOL     OW13444   3.100  14.795   9.180
70516SOL    HW113445   3.059  14.790   9.267
70516SOL    HW213446   3.042  14.744   9.124
70517SOL     OW13447  13.925   7.774  11.324
70517SOL    HW113448  13.937   7.763  11.229
70517SOL    HW213449  13.952   7.690  11.361
70518SOL     OW13450   2.659   1.632   4.989
70518SOL    HW113451   2.653   1.697   5.059
70518SOL    HW213452   2.570   1.597   4.981
70519SOL     OW13453  14.728  12.578   2.760
70519SOL    HW113454  14.730  12.560   2.854
70519SOL    HW213455  14.655  12.640   2.749
70520SOL     OW13456   2.528   5.598   9.482
70520SOL    HW113457   2.623   5.611   9.492
70520SOL    HW213458   2.502   5.548   9.560
70521SOL     OW13459   2.271  10.960  10.330
70521SOL    HW113460   2.177  10.975  10.324
70521SOL    HW213461   2.294  10.985  10.419
70522SOL     OW13462  13.397   0.147   5.463
70522SOL    HW113463  13.459   0.111   5.399
70522SOL    HW213464  13.452   0.172   5.538
70523SOL     OW13465   8.408   5.464   4.797
70523SOL    HW113466   8.400   5.434   4.888
70523SOL    HW213467   8.353   5.543   4.793
70524SOL     OW13468   6.771  13.177   1.331
70524SOL    HW113469   6.792  13.227   1.410
70524SOL    HW213470   6.764  13.086   1.361
70525SOL     OW13471   1.847  10.766  13.387
70525SOL    HW113472   1.811  10.850  13.361
70525SOL    HW213473   1.900  10.737  13.312
70526SOL     OW13474   2.223   3.577   4.787
70526SOL    HW113475   2.131   3.591   4.812
70526SOL    HW213476   2.270   3.577   4.871
70527SOL     OW13477   3.052   4.473  11.438
70527SOL    HW113478   3.143   4.444  11.427
70527SOL    HW213479   3.055   4.568  11.423
70528SOL     OW13480   9.566   8.598   1.995
70528SOL    HW113481   9.641   8.568   2.046
70528SOL    HW213482   9.539   8.679   2.037
70529SOL     OW13483   1.582   9.887   5.100
70529SOL    HW113484   1.553   9.800   5.073
70529SOL    HW213485   1.529   9.907   5.177
70530SOL     OW13486  12.443   6.142  12.664
70530SOL    HW113487  12.465   6.132  12.571
70530SOL    HW213488  12.385   6.068  12.682
70531SOL     OW13489  10.953   4.494   5.324
70531SOL    HW113490  10.926   4.494   5.416
70531SOL    HW213491  11.032   4.548   5.322
70532SOL     OW13492   4.866  12.200   6.518
70532SOL    HW113493   4.906  12.114   6.519
70532SOL    HW213494   4.939  12.261   6.505
70533SOL     OW13495   1.291   6.806   0.177
70533SOL    HW113496   1.360   6.855   0.132
70533SOL    HW213497   1.238   6.872   0.220
70534SOL     OW13498   1.985  11.663   1.612
70534SOL    HW113499   1.915  11.673   1.547
70534SOL    HW213500   1.972  11.576   1.648
70535SOL     OW13501  12.877   6.822  13.279
70535SOL    HW113502  12.800   6.833  13.335
70535SOL    HW213503  12.850   6.754  13.216
70536SOL     OW13504  13.107   2.276   2.671
70536SOL    HW113505  13.126   2.264   2.578
70536SOL    HW213506  13.011   2.267   2.678
70537SOL     OW13507   4.462  14.667   6.553
70537SOL    HW113508   4.379  14.696   6.516
70537SOL    HW213509   4.482  14.586   6.506
70538SOL     OW13510   7.774   5.830  10.555
70538SOL    HW113511   7.758   5.739  10.579
70538SOL    HW213512   7.699   5.853  10.500
70539SOL     OW13513   2.334  13.257   2.101
70539SOL    HW113514   2.410  13.198   2.092
70539SOL    HW213515   2.372  13.345   2.106
70540SOL     OW13516   7.533  11.518   7.018
70540SOL    HW113517   7.450  11.529   6.972
70540SOL    HW213518   7.532  11.427   7.048
70541SOL     OW13519   6.999   2.633  14.845
70541SOL    HW113520   7.085   2.676  14.847
70541SOL    HW213521   6.969   2.633   0.056
70542SOL     OW13522   4.368   4.888   0.031
70542SOL    HW113523   4.358   4.851  14.823
70542SOL    HW213524   4.328   4.823   0.089
70543SOL     OW13525   5.300   0.886  13.222
70543SOL    HW113526   5.276   0.886  13.315
70543SOL    HW213527   5.335   0.974  13.206
70544SOL     OW13528   2.093  14.061  10.533
70544SOL    HW113529   2.160  14.068  10.465
70544SOL    HW213530   2.052  13.975  10.518
70545SOL     OW13531  10.954  10.495  11.475
70545SOL    HW113532  11.032  10.503  11.420
70545SOL    HW213533  10.906  10.422  11.436
70546SOL     OW13534  14.761  12.704   4.439
70546SOL    HW113535  14.812  12.708   4.358
70546SOL    HW213536  14.824  12.684   4.507
70547SOL     OW13537   6.380  14.157  11.010
70547SOL    HW113538   6.461  14.150  11.060
70547SOL    HW213539   6.343  14.242  11.035
70548SOL     OW13540   1.879  11.054   4.922
70548SOL    HW113541   1.892  11.114   4.995
70548SOL    HW213542   1.862  10.969   4.963
70549SOL     OW13543   5.677   8.139   2.325
70549SOL    HW113544   5.701   8.097   2.242
70549SOL    HW213545   5.609   8.082   2.362
70550SOL     OW13546   5.443   8.045   7.014
70550SOL    HW113547   5.414   7.970   7.067
70550SOL    HW213548   5.536   8.054   7.035
70551SOL     OW13549   2.791  14.804   3.259
70551SOL    HW113550   2.840   0.006   3.242
70551SOL    HW213551   2.803  14.789   3.352
70552SOL     OW13552   1.221   0.484   7.927
70552SOL    HW113553   1.181   0.566   7.898
70552SOL    HW213554   1.310   0.508   7.951
70553SOL     OW13555  13.702   3.871   0.111
70553SOL    HW113556  13.711   3.949   0.057
70553SOL    HW213557  13.747   3.802   0.063
70554SOL     OW13558   2.304   9.794   2.285
70554SOL    HW113559   2.356   9.858   2.332
70554SOL    HW213560   2.315   9.712   2.334
70555SOL     OW13561  10.911   5.093  13.979
70555SOL    HW113562  10.883   5.101  13.888
70555SOL    HW213563  10.829   5.087  14.029
70556SOL     OW13564   4.972  11.492   3.076
70556SOL    HW113565   4.904  11.485   3.009
70556SOL    HW213566   4.945  11.566   3.129
70557SOL     OW13567  10.321   7.074  10.476
70557SOL    HW113568  10.303   6.991  10.520
70557SOL    HW213569  10.357   7.049  10.391
70558SOL     OW13570   5.446  10.122   4.953
70558SOL    HW113571   5.388  10.152   4.882
70558SOL    HW213572   5.531  10.112   4.911
70559SOL     OW13573  13.226   4.919  11.220
70559SOL    HW113574  13.165   4.992  11.221
70559SOL    HW213575  13.307   4.956  11.184
70560SOL     OW13576   0.044   8.653  13.134
70560SOL    HW113577  14.844   8.655  13.187
70560SOL    HW213578   0.037   8.572  13.084
70561SOL     OW13579   4.742   4.772   7.037
70561SOL    HW113580   4.779   4.786   6.950
70561SOL    HW213581   4.746   4.678   7.051
70562SOL     OW13582   9.041  11.848  12.518
70562SOL    HW113583   9.072  11.768  12.476
70562SOL    HW213584   9.028  11.909  12.446
70563SOL     OW13585   5.834   4.931   3.062
70563SOL    HW113586   5.789   4.847   3.059
70563SOL    HW213587   5.834   4.962   2.971
70564SOL     OW13588   8.779  11.362  14.003
70564SOL    HW113589   8.856  11.308  14.017
70564SOL    HW213590   8.758  11.350  13.910
70565SOL     OW13591   8.411  12.523   9.013
70565SOL    HW113592   8.411  12.612   8.976
70565SOL    HW213593   8.419  12.466   8.936
70566SOL     OW13594   9.359   1.799  14.579
70566SOL    HW113595   9.300   1.823  14.507
70566SOL    HW213596   9.412   1.728  14.543
70567SOL     OW13597  13.501   2.743   6.743
70567SOL    HW113598  13.540   2.657   6.725
70567SOL    HW213599  13.428   2.750   6.681
70568SOL     OW13600   6.698   2.695   6.280
70568SOL    HW113601   6.692   2.742   6.363
70568SOL    HW213602   6.657   2.753   6.216
70569SOL     OW13603   8.400   2.159   4.034
70569SOL    HW113604   8.442   2.089   3.984
70569SOL    HW213605   8.461   2.178   4.105
70570SOL     OW13606   9.102   5.977   9.204
70570SOL    HW113607   9.065   6.065   9.190
70570SOL    HW213608   9.045   5.937   9.269
70571SOL     OW13609   9.643   4.803  14.462
70571SOL    HW113610   9.563   4.754  14.481
70571SOL    HW213611   9.624   4.892  14.491
70572SOL     OW13612   2.250   4.477  10.277
70572SOL    HW113613   2.294   4.420  10.339
70572SOL    HW213614   2.318   4.537  10.246
70573SOL     OW13615  13.925   2.448  14.367
70573SOL    HW113616  13.913   2.535  14.330
70573SOL    HW213617  13.967   2.398  14.297
70574SOL     OW13618   5.660   5.698   4.104
70574SOL    HW113619   5.691   5.758   4.036
70574SOL    HW213620   5.712   5.720   4.181
70575SOL     OW13621   1.485   0.049   8.634
70575SOL    HW113622   1.442   0.107   8.571
70575SOL    HW213623   1.571   0.089   8.649
70576SOL     OW13624   0.876   1.849   6.723
70576SOL    HW113625   0.961   1.889   6.703
70576SOL    HW213626   0.825   1.920   6.761
70577SOL     OW13627   6.866  10.807   0.526
70577SOL    HW113628   6.892  10.717   0.507
70577SOL    HW213629   6.793  10.824   0.467
70578SOL     OW13630  11.563   8.916  10.833
70578SOL    HW113631  11.540   8.826  10.855
70578SOL    HW213632  11.648   8.930  10.874
70579SOL     OW13633   6.658   7.028   8.192
70579SOL    HW113634   6.611   7.044   8.274
70579SOL    HW213635   6.589   7.014   8.128
70580SOL     OW13636  12.500   1.069   3.974
70580SOL    HW113637  12.467   1.025   3.896
70580SOL    HW213638  12.551   1.143   3.941
70581SOL     OW13639  11.946   9.500   1.461
70581SOL    HW113640  11.962   9.513   1.555
70581SOL    HW213641  11.851   9.491   1.454
70582SOL     OW13642   7.633   3.301   4.543
70582SOL    HW113643   7.661   3.268   4.458
70582SOL    HW213644   7.670   3.389   4.548
70583SOL     OW13645   7.236  11.219   6.874
70583SOL    HW113646   7.142  11.234   6.863
70583SOL    HW213647   7.267  11.297   6.920
70584SOL     OW13648   7.527   8.850   1.797
70584SOL    HW113649   7.572   8.768   1.816
70584SOL    HW213650   7.550   8.870   1.707
70585SOL     OW13651   2.386   3.067  11.856
70585SOL    HW113652   2.400   3.128  11.784
70585SOL    HW213653   2.329   3.113  11.917
70586SOL     OW13654   2.083  12.334   8.357
70586SOL    HW113655   1.989  12.335   8.376
70586SOL    HW213656   2.092  12.389   8.279
70587SOL     OW13657  10.337   2.498  13.899
70587SOL    HW113658  10.397   2.428  13.875
70587SOL    HW213659  10.313   2.479  13.990
70588SOL     OW13660  10.756  13.113  13.627
70588SOL    HW113661  10.754  13.092  13.533
70588SOL    HW213662  10.686  13.177  13.639
70589SOL     OW13663   3.880   4.277   8.558
70589SOL    HW113664   3.967   4.279   8.518
70589SOL    HW213665   3.852   4.187   8.549
70590SOL     OW13666  13.934  10.272   2.362
70590SOL    HW113667  13.884  10.284   2.281
70590SOL    HW213668  13.870  10.283   2.432
70591SOL     OW13669   7.634   9.835  14.208
70591SOL    HW113670   7.572   9.900  14.242
70591SOL    HW213671   7.598   9.810  14.123
70592SOL     OW13672   7.548  10.745   2.604
70592SOL    HW113673   7.615  10.716   2.666
70592SOL    HW213674   7.536  10.838   2.622
70593SOL     OW13675   5.291   3.180  14.469
70593SOL    HW113676   5.353   3.165  14.540
70593SOL    HW213677   5.213   3.131  14.495
70594SOL     OW13678   5.045   3.350  14.408
70594SOL    HW113679   5.049   3.293  14.484
70594SOL    HW213680   4.962   3.397  14.417
70595SOL     OW13681   0.316   3.636  10.324
70595SOL    HW113682   0.234   3.667  10.363
70595SOL    HW213683   0.308   3.541  10.326
70596SOL     OW13684   6.268   6.610   4.727
70596SOL    HW113685   6.292   6.689   4.777
70596SOL    HW213686   6.343   6.596   4.669
70597SOL     OW13687   9.235   7.757  11.549
70597SOL    HW113688   9.176   7.781  11.621
70597SOL    HW213689   9.245   7.663  11.557
70598SOL     OW13690   1.648  13.866  12.067
70598SOL    HW113691   1.717  13.933  12.070
70598SOL    HW213692   1.693  13.785  12.090
70599SOL     OW13693   8.696   5.846  11.220
70599SOL    HW113694   8.656   5.857  11.134
70599SOL    HW213695   8.755   5.921  11.228
70600SOL     OW13696  10.124   3.429   6.488
70600SOL    HW113697  10.074   3.443   6.568
70600SOL    HW213698  10.209   3.470   6.505
70601SOL     OW13699  13.903   0.209  13.067
70601SOL    HW113700  13.827   0.255  13.032
70601SOL    HW213701  13.971   0.276  13.075
70602SOL     OW13702   2.938   8.356   0.723
70602SOL    HW113703   2.986   8.276   0.740
70602SOL    HW213704   2.851   8.326   0.695
70603SOL     OW13705   6.262   7.229  12.247
70603SOL    HW113706   6.309   7.177  12.312
70603SOL    HW213707   6.289   7.319  12.263
70604SOL     OW13708  11.765   8.471   7.053
70604SOL    HW113709  11.752   8.485   6.959
70604SOL    HW213710  11.707   8.398   7.075
70605SOL     OW13711  13.976  13.245  10.803
70605SOL    HW113712  13.889  13.275  10.829
70605SOL    HW213713  13.964  13.207  10.716
70606SOL     OW13714   7.912   6.473   5.516
70606SOL    HW113715   7.910   6.568   5.521
70606SOL    HW213716   8.002   6.449   5.537
70607SOL     OW13717   6.905  14.851   1.321
70607SOL    HW113718   6.915   0.010   1.408
70607SOL    HW213719   6.811  14.836   1.312
70608SOL     OW13720   7.906  13.431  10.561
70608SOL    HW113721   7.952  13.494  10.616
70608SOL    HW213722   7.840  13.483  10.516
70609SOL     OW13723   1.553   2.265  11.807
70609SOL    HW113724   1.554   2.229  11.719
70609SOL    HW213725   1.631   2.229  11.849
70610SOL     OW13726   1.671   0.439   4.619
70610SOL    HW113727   1.665   0.426   4.714
70610SOL    HW213728   1.580   0.446   4.590
70611SOL     OW13729   6.236   1.017  12.190
70611SOL    HW113730   6.291   0.939  12.193
70611SOL    HW213731   6.168   1.001  12.256
70612SOL     OW13732  10.229  14.784   1.154
70612SOL    HW113733  10.271  14.840   1.220
70612SOL    HW213734  10.302  14.743   1.108
70613SOL     OW13735  11.341   0.761   9.892
70613SOL    HW113736  11.307   0.688   9.840
70613SOL    HW213737  11.410   0.799   9.838
70614SOL     OW13738  11.874   8.095   3.263
70614SOL    HW113739  11.818   8.114   3.338
70614SOL    HW213740  11.814   8.069   3.194
70615SOL     OW13741   8.831   4.719   9.645
70615SOL    HW113742   8.918   4.680   9.634
70615SOL    HW213743   8.777   4.647   9.678
70616SOL     OW13744  13.555   0.194   9.310
70616SOL    HW113745  13.497   0.156   9.376
70616SOL    HW213746  13.512   0.275   9.284
70617SOL     OW13747   5.892  11.500  12.099
70617SOL    HW113748   5.823  11.507  12.033
70617SOL    HW213749   5.912  11.590  12.124
70618SOL     OW13750   9.155   2.379  11.321
70618SOL    HW113751   9.243   2.346  11.305
70618SOL    HW213752   9.100   2.333  11.258
70619SOL     OW13753   0.643   3.702  12.186
70619SOL    HW113754   0.691   3.746  12.255
70619SOL    HW213755   0.677   3.613  12.184
70620SOL     OW13756   7.801   1.435   7.757
70620SOL    HW113757   7.715   1.395   7.770
70620SOL    HW213758   7.863   1.364   7.773
70621SOL     OW13759   0.713   0.780   5.613
70621SOL    HW113760   0.641   0.843   5.619
70621SOL    HW213761   0.786   0.829   5.576
70622SOL     OW13762   9.165   6.002  12.762
70622SOL    HW113763   9.226   5.938  12.801
70622SOL    HW213764   9.145   5.966  12.676
70623SOL     OW13765  10.875  14.316   4.117
70623SOL    HW113766  10.884  14.408   4.091
70623SOL    HW213767  10.814  14.318   4.190
70624SOL     OW13768   0.603   5.462   9.602
70624SOL    HW113769   0.593   5.368   9.583
70624SOL    HW213770   0.672   5.491   9.543
70625SOL     OW13771   4.254   8.718   1.360
70625SOL    HW113772   4.347   8.705   1.378
70625SOL    HW213773   4.244   8.813   1.351
70626SOL     OW13774   2.504   9.442   8.607
70626SOL    HW113775   2.540   9.428   8.519
70626SOL    HW213776   2.549   9.379   8.662
70627SOL     OW13777   9.325   2.491  11.038
70627SOL    HW113778   9.354   2.581  11.023
70627SOL    HW213779   9.368   2.467  11.120
70628SOL     OW13780  12.898   2.624  11.338
70628SOL    HW113781  12.925   2.676  11.414
70628SOL    HW213782  12.861   2.544  11.375
70629SOL     OW13783   4.544   6.407   6.090
70629SOL    HW113784   4.575   6.472   6.026
70629SOL    HW213785   4.450   6.402   6.073
70630SOL     OW13786   5.372  11.888   0.056
70630SOL    HW113787   5.334  11.968   0.093
70630SOL    HW213788   5.313  11.865  14.864
70631SOL     OW13789   1.790   7.900  12.267
70631SOL    HW113790   1.806   7.993  12.250
70631SOL    HW213791   1.822   7.856  12.188
70632SOL     OW13792   4.486   6.570  14.159
70632SOL    HW113793   4.508   6.515  14.084
70632SOL    HW213794   4.563   6.626  14.171
70633SOL     OW13795   5.928   0.718   0.568
70633SOL    HW113796   5.998   0.664   0.531
70633SOL    HW213797   5.894   0.666   0.641
70634SOL     OW13798   8.925   3.431  13.086
70634SOL    HW113799   8.831   3.436  13.104
70634SOL    HW213800   8.941   3.337  13.072
70635SOL     OW13801   1.224  11.084   1.493
70635SOL    HW113802   1.298  11.034   1.529
70635SOL    HW213803   1.217  11.053   1.403
70636SOL     OW13804  12.606  12.531  10.551
70636SOL    HW113805  12.554  12.559  10.626
70636SOL    HW213806  12.594  12.436  10.548
70637SOL     OW13807   9.605   3.371   7.732
70637SOL    HW113808   9.576   3.386   7.822
70637SOL    HW213809   9.528   3.338   7.687
70638SOL     OW13810  14.641   5.085  13.511
70638SOL    HW113811  14.694   5.108  13.587
70638SOL    HW213812  14.562   5.044  13.549
70639SOL     OW13813   6.844   9.404  14.724
70639SOL    HW113814   6.811   9.486  14.688
70639SOL    HW213815   6.844   9.417  14.819
70640SOL     OW13816  11.173   6.908   7.685
70640SOL    HW113817  11.193   6.850   7.612
70640SOL    HW213818  11.224   6.987   7.668
70641SOL     OW13819  13.823   8.460  12.541
70641SOL    HW113820  13.783   8.427  12.461
70641SOL    HW213821  13.782   8.409  12.611
70642SOL     OW13822   9.636   5.772   0.196
70642SOL    HW113823   9.615   5.865   0.185
70642SOL    HW213824   9.551   5.729   0.206
70643SOL     OW13825   6.801  12.119   2.421
70643SOL    HW113826   6.850  12.157   2.493
70643SOL    HW213827   6.722  12.083   2.462
70644SOL     OW13828   3.787   5.599   3.755
70644SOL    HW113829   3.763   5.691   3.743
70644SOL    HW213830   3.807   5.568   3.667
70645SOL     OW13831   5.456  13.554   0.666
70645SOL    HW113832   5.399  13.523   0.596
70645SOL    HW213833   5.405  13.541   0.746
70646SOL     OW13834   1.552   5.458   5.138
70646SOL    HW113835   1.514   5.438   5.223
70646SOL    HW213836   1.477   5.477   5.082
70647SOL     OW13837   7.269   3.535   0.253
70647SOL    HW113838   7.286   3.585   0.173
70647SOL    HW213839   7.319   3.581   0.321
70648SOL     OW13840   6.129   0.902   8.490
70648SOL    HW113841   6.065   0.836   8.514
70648SOL    HW213842   6.087   0.954   8.422
70649SOL     OW13843   4.098   1.449   7.451
70649SOL    HW113844   4.178   1.442   7.503
70649SOL    HW213845   4.111   1.390   7.377
70650SOL     OW13846   1.718   7.225   5.585
70650SOL    HW113847   1.666   7.145   5.573
70650SOL    HW213848   1.780   7.203   5.654
70651SOL     OW13849   2.282   4.156   3.103
70651SOL    HW113850   2.373   4.133   3.123
70651SOL    HW213851   2.241   4.165   3.189
70652SOL     OW13852   0.282   1.056   3.248
70652SOL    HW113853   0.195   1.017   3.260
70652SOL    HW213854   0.337   0.983   3.218
70653SOL     OW13855   2.634   8.389   1.948
70653SOL    HW113856   2.551   8.424   1.980
70653SOL    HW213857   2.657   8.446   1.874
70654SOL     OW13858  12.497   8.330   7.582
70654SOL    HW113859  12.507   8.251   7.635
70654SOL    HW213860  12.587   8.360   7.567
70655SOL     OW13861   1.970   3.174  11.324
70655SOL    HW113862   2.019   3.159  11.243
70655SOL    HW213863   2.036   3.171  11.393
70656SOL     OW13864   9.928   7.715  11.632
70656SOL    HW113865   9.952   7.671  11.550
70656SOL    HW213866   9.999   7.776  11.648
70657SOL     OW13867  14.055   8.485  14.866
70657SOL    HW113868  14.140   8.442  14.853
70657SOL    HW213869  14.003   8.421   0.035
70658SOL     OW13870   5.330  14.367   0.621
70658SOL    HW113871   5.417  14.371   0.662
70658SOL    HW213872   5.280  14.307   0.677
70659SOL     OW13873  14.118  12.556   7.329
70659SOL    HW113874  14.104  12.622   7.262
70659SOL    HW213875  14.166  12.602   7.398
70660SOL     OW13876  10.775   5.024   6.687
70660SOL    HW113877  10.725   4.993   6.762
70660SOL    HW213878  10.778   5.119   6.698
70661SOL     OW13879  12.404   4.328   4.570
70661SOL    HW113880  12.316   4.326   4.533
70661SOL    HW213881  12.420   4.420   4.591
70662SOL     OW13882   9.020   4.982  12.472
70662SOL    HW113883   8.932   5.003  12.502
70662SOL    HW213884   9.009   4.905  12.415
70663SOL     OW13885  10.055   5.423  13.178
70663SOL    HW113886  10.030   5.335  13.153
70663SOL    HW213887  10.033   5.477  13.102
70664SOL     OW13888  12.633  10.568  10.432
70664SOL    HW113889  12.705  10.526  10.480
70664SOL    HW213890  12.675  10.601  10.352
70665SOL     OW13891   7.434   5.236  12.023
70665SOL    HW113892   7.449   5.319  12.068
70665SOL    HW213893   7.522   5.207  11.996
70666SOL     OW13894   4.859   3.363   8.359
70666SOL    HW113895   4.947   3.376   8.393
70666SOL    HW213896   4.843   3.439   8.303
70667SOL     OW13897   0.970   9.609   5.039
70667SOL    HW113898   0.942   9.596   5.130
70667SOL    HW213899   0.893   9.646   4.996
70668SOL     OW13900  10.651  14.859   9.523
70668SOL    HW113901  10.675   0.009   9.610
70668SOL    HW213902  10.728  14.811   9.491
70669SOL     OW13903   1.439   2.817   4.257
70669SOL    HW113904   1.497   2.867   4.315
70669SOL    HW213905   1.497   2.755   4.213
70670SOL     OW13906  11.030  10.500  10.554
70670SOL    HW113907  10.982  10.579  10.576
70670SOL    HW213908  11.121  10.529  10.542
70671SOL     OW13909  12.922   4.084   0.399
70671SOL    HW113910  12.845   4.047   0.355
70671SOL    HW213911  12.994   4.026   0.373
70672SOL     OW13912   7.169   2.159   7.373
70672SOL    HW113913   7.124   2.226   7.321
70672SOL    HW213914   7.104   2.130   7.437
70673SOL     OW13915   1.084   0.013   9.535
70673SOL    HW113916   1.158   0.058   9.575
70673SOL    HW213917   1.092   0.032   9.442
70674SOL     OW13918   9.407   3.211   7.622
70674SOL    HW113919   9.325   3.198   7.670
70674SOL    HW213920   9.425   3.126   7.583
70675SOL     OW13921   2.601   9.846   3.697
70675SOL    HW113922   2.517   9.892   3.701
70675SOL    HW213923   2.665   9.910   3.726
70676SOL     OW13924   4.699   1.714   3.540
70676SOL    HW113925   4.681   1.659   3.616
70676SOL    HW213926   4.758   1.661   3.486
70677SOL     OW13927  10.658   1.804  12.768
70677SOL    HW113928  10.691   1.892  12.785
70677SOL    HW213929  10.646   1.801  12.673
70678SOL     OW13930  10.875   1.926   9.968
70678SOL    HW113931  10.920   1.866   9.908
70678SOL    HW213932  10.787   1.889   9.977
70679SOL     OW13933   2.386  12.687   4.291
70679SOL    HW113934   2.333  12.766   4.278
70679SOL    HW213935   2.353  12.649   4.373
70680SOL     OW13936   6.059   3.341  14.417
70680SOL    HW113937   5.985   3.400  14.436
70680SOL    HW213938   6.035   3.297  14.336
70681SOL     OW13939   9.763  14.343  12.963
70681SOL    HW113940   9.698  14.283  12.999
70681SOL    HW213941   9.748  14.425  13.011
70682SOL     OW13942   0.278   2.967   4.538
70682SOL    HW113943   0.300   2.881   4.501
70682SOL    HW213944   0.193   2.989   4.499
70683SOL     OW13945  14.544   8.733   6.099
70683SOL    HW113946  14.531   8.692   6.014
70683SOL    HW213947  14.602   8.807   6.082
70684SOL     OW13948  14.324   7.484   4.909
70684SOL    HW113949  14.356   7.487   4.819
70684SOL    HW213950  14.266   7.408   4.912
70685SOL     OW13951   3.846   7.012  13.519
70685SOL    HW113952   3.883   6.950  13.581
70685SOL    HW213953   3.900   7.090  13.528
70686SOL     OW13954  13.952   0.904  14.688
70686SOL    HW113955  13.965   0.835  14.753
70686SOL    HW213956  14.040   0.922  14.654
70687SOL     OW13957   8.114  10.060   1.623
70687SOL    HW113958   8.037  10.116   1.612
70687SOL    HW213959   8.112  10.002   1.547
70688SOL     OW13960   3.788   6.365  11.136
70688SOL    HW113961   3.835   6.377  11.218
70688SOL    HW213962   3.769   6.454  11.107
70689SOL     OW13963   6.204   7.016   6.467
70689SOL    HW113964   6.222   7.081   6.535
70689SOL    HW213965   6.227   7.060   6.385
70690SOL     OW13966  11.769   6.977  12.720
70690SOL    HW113967  11.850   6.930  12.699
70690SOL    HW213968  11.778   7.062  12.677
70691SOL     OW13969   2.868   9.486   7.133
70691SOL    HW113970   2.823   9.469   7.216
70691SOL    HW213971   2.951   9.440   7.141
70692SOL     OW13972   8.349   2.648   8.412
70692SOL    HW113973   8.299   2.714   8.363
70692SOL    HW213974   8.284   2.582   8.437
70693SOL     OW13975   7.764   0.876  11.376
70693SOL    HW113976   7.768   0.969  11.398
70693SOL    HW213977   7.843   0.838  11.415
70694SOL     OW13978   9.210  12.937  13.823
70694SOL    HW113979   9.181  12.849  13.798
70694SOL    HW213980   9.143  12.969  13.883
70695SOL     OW13981  13.664   7.097   9.406
70695SOL    HW113982  13.687   7.079   9.315
70695SOL    HW213983  13.604   7.172   9.401
70696SOL     OW13984  10.843   6.853  14.010
70696SOL    HW113985  10.855   6.771  13.962
70696SOL    HW213986  10.915   6.909  13.981
70697SOL     OW13987  14.635   0.287  14.354
70697SOL    HW113988  14.665   0.237  14.278
70697SOL    HW213989  14.543   0.306  14.335
70698SOL     OW13990   6.087  10.415  14.854
70698SOL    HW113991   6.064  10.322  14.854
70698SOL    HW213992   6.031  10.453   0.042
70699SOL     OW13993   4.629   1.081  10.995
70699SOL    HW113994   4.615   1.166  10.952
70699SOL    HW213995   4.673   1.028  10.929
70700SOL     OW13996  13.743   1.031   3.319
70700SOL    HW113997  13.749   1.027   3.224
70700SOL    HW213998  13.829   1.002   3.350
70701SOL     OW13999  13.016  13.494   8.177
70701SOL    HW114000  13.004  13.399   8.171
70701SOL    HW214001  12.931  13.531   8.153
70702SOL     OW14002   4.689   8.694   6.961
70702SOL    HW114003   4.749   8.626   6.932
70702SOL    HW214004   4.611   8.682   6.907
70703SOL     OW14005   3.029   4.404  14.734
70703SOL    HW114006   3.058   4.382  14.646
70703SOL    HW214007   3.002   4.495  14.728
70704SOL     OW14008  10.412   3.886   3.327
70704SOL    HW114009  10.462   3.966   3.344
70704SOL    HW214010  10.348   3.882   3.398
70705SOL     OW14011  11.958   1.082   8.279
70705SOL    HW114012  12.023   1.055   8.215
70705SOL    HW214013  11.899   1.140   8.231
70706SOL     OW14014  10.311   1.227   2.586
70706SOL    HW114015  10.319   1.322   2.592
70706SOL    HW214016  10.270   1.202   2.669
70707SOL     OW14017  11.124   8.224  14.646
70707SOL    HW114018  11.068   8.245  14.721
70707SOL    HW214019  11.132   8.129  14.647
70708SOL     OW14020  14.313   0.161   5.504
70708SOL    HW114021  14.369   0.173   5.581
70708SOL    HW214022  14.364   0.198   5.432
70709SOL     OW14023  13.784  11.440   7.818
70709SOL    HW114024  13.870  11.400   7.810
70709SOL    HW214025  13.726  11.383   7.768
70710SOL     OW14026   4.045   9.356   4.930
70710SOL    HW114027   3.976   9.405   4.885
70710SOL    HW214028   4.126   9.384   4.886
70711SOL     OW14029   9.181   5.717   8.028
70711SOL    HW114030   9.172   5.746   8.119
70711SOL    HW214031   9.113   5.765   7.980
70712SOL     OW14032   3.505   6.601  10.232
70712SOL    HW114033   3.511   6.544  10.156
70712SOL    HW214034   3.430   6.567  10.281
70713SOL     OW14035   1.330   8.360  11.752
70713SOL    HW114036   1.369   8.370  11.665
70713SOL    HW214037   1.382   8.292  11.794
70714SOL     OW14038   7.255  12.216   8.941
70714SOL    HW114039   7.285  12.130   8.912
70714SOL    HW214040   7.279  12.220   9.034
70715SOL     OW14041   2.230   6.259   6.123
70715SOL    HW114042   2.272   6.257   6.037
70715SOL    HW214043   2.145   6.217   6.108
70716SOL     OW14044   8.918   9.807   9.745
70716SOL    HW114045   8.885   9.881   9.797
70716SOL    HW214046   8.855   9.798   9.674
70717SOL     OW14047  14.728  11.936   5.273
70717SOL    HW114048  14.785  11.887   5.332
70717SOL    HW214049  14.690  11.869   5.216
70718SOL     OW14050   3.569  14.153   2.582
70718SOL    HW114051   3.482  14.124   2.554
70718SOL    HW214052   3.610  14.074   2.618
70719SOL     OW14053  12.109  11.594   1.866
70719SOL    HW114054  12.035  11.577   1.923
70719SOL    HW214055  12.094  11.683   1.833
70720SOL     OW14056   3.069   9.737   8.790
70720SOL    HW114057   3.115   9.786   8.722
70720SOL    HW214058   2.990   9.788   8.807
70721SOL     OW14059  12.945  10.503  14.053
70721SOL    HW114060  13.017  10.525  13.994
70721SOL    HW214061  12.876  10.565  14.030
70722SOL     OW14062   3.340  13.956   9.369
70722SOL    HW114063   3.375  14.005   9.294
70722SOL    HW214064   3.365  13.865   9.352
70723SOL     OW14065   7.239  11.094   5.052
70723SOL    HW114066   7.289  11.073   4.973
70723SOL    HW214067   7.271  11.033   5.118
70724SOL     OW14068  14.159   8.694   0.318
70724SOL    HW114069  14.145   8.616   0.371
70724SOL    HW214070  14.196   8.759   0.378
70725SOL     OW14071  13.637  11.682  12.490
70725SOL    HW114072  13.657  11.605  12.544
70725SOL    HW214073  13.622  11.752  12.553
70726SOL     OW14074   3.375   6.203   7.797
70726SOL    HW114075   3.468   6.201   7.776
70726SOL    HW214076   3.362   6.127   7.855
70727SOL     OW14077   1.608  10.943   0.522
70727SOL    HW114078   1.663  10.977   0.592
70727SOL    HW214079   1.531  11.000   0.523
70728SOL     OW14080   7.192   5.445   4.462
70728SOL    HW114081   7.218   5.377   4.399
70728SOL    HW214082   7.099   5.458   4.446
70729SOL     OW14083  12.825   8.784   5.717
70729SOL    HW114084  12.729   8.785   5.719
70729SOL    HW214085  12.847   8.697   5.684
70730SOL     OW14086  10.556  11.999  14.747
70730SOL    HW114087  10.614  12.008  14.671
70730SOL    HW214088  10.612  11.962  14.815
70731SOL     OW14089   2.493  14.045  12.932
70731SOL    HW114090   2.522  14.136  12.936
70731SOL    HW214091   2.567  13.995  12.965
70732SOL     OW14092   2.744   1.631  11.952
70732SOL    HW114093   2.654   1.626  11.984
70732SOL    HW214094   2.790   1.560  11.997
70733SOL     OW14095   4.410   3.500  10.260
70733SOL    HW114096   4.406   3.435  10.330
70733SOL    HW214097   4.500   3.533  10.264
70734SOL     OW14098   2.303   8.202   3.075
70734SOL    HW114099   2.370   8.237   3.016
70734SOL    HW214100   2.344   8.125   3.115
70735SOL     OW14101   5.943   7.364   2.375
70735SOL    HW114102   5.864   7.413   2.397
70735SOL    HW214103   6.006   7.430   2.349
70736SOL     OW14104   3.792   8.870  10.801
70736SOL    HW114105   3.849   8.797  10.781
70736SOL    HW214106   3.836   8.946  10.764
70737SOL     OW14107  14.847   5.039  12.777
70737SOL    HW114108  14.770   5.090  12.749
70737SOL    HW214109   0.039   5.102  12.778
70738SOL     OW14110   6.174   2.797   8.146
70738SOL    HW114111   6.151   2.754   8.064
70738SOL    HW214112   6.106   2.863   8.159
70739SOL     OW14113   5.405   0.505   4.452
70739SOL    HW114114   5.475   0.454   4.411
70739SOL    HW214115   5.391   0.462   4.536
70740SOL     OW14116   7.107   4.013  12.610
70740SOL    HW114117   7.147   3.926  12.604
70740SOL    HW214118   7.154   4.066  12.546
70741SOL     OW14119   6.403   4.711  14.539
70741SOL    HW114120   6.387   4.791  14.488
70741SOL    HW214121   6.329   4.707  14.600
70742SOL     OW14122  10.975   8.361  13.252
70742SOL    HW114123  10.997   8.268  13.262
70742SOL    HW214124  11.009   8.385  13.166
70743SOL     OW14125   4.740   3.851  11.101
70743SOL    HW114126   4.825   3.836  11.059
70743SOL    HW214127   4.676   3.823  11.036
70744SOL     OW14128  13.695   0.130   7.193
70744SOL    HW114129  13.737   0.121   7.107
70744SOL    HW214130  13.611   0.171   7.175
70745SOL     OW14131   4.165  13.407   4.224
70745SOL    HW114132   4.132  13.497   4.219
70745SOL    HW214133   4.186  13.385   4.133
70746SOL     OW14134   0.227   0.315   4.042
70746SOL    HW114135   0.165   0.270   4.099
70746SOL    HW214136   0.181   0.322   3.958
70747SOL     OW14137   6.629   8.804  12.557
70747SOL    HW114138   6.615   8.801  12.462
70747SOL    HW214139   6.701   8.866  12.568
70748SOL     OW14140   9.418   5.077   0.488
70748SOL    HW114141   9.449   5.074   0.397
70748SOL    HW214142   9.417   5.171   0.509
70749SOL     OW14143   3.640   1.351   9.271
70749SOL    HW114144   3.596   1.310   9.345
70749SOL    HW214145   3.662   1.278   9.213
70750SOL     OW14146   1.290  13.380  11.268
70750SOL    HW114147   1.371  13.405  11.224
70750SOL    HW214148   1.222  13.398  11.204
70751SOL     OW14149  13.886   6.441   3.545
70751SOL    HW114150  13.861   6.463   3.455
70751SOL    HW214151  13.806   6.403   3.582
70752SOL     OW14152   4.432   3.879   1.632
70752SOL    HW114153   4.406   3.877   1.724
70752SOL    HW214154   4.435   3.972   1.610
70753SOL     OW14155   1.507  11.726  10.779
70753SOL    HW114156   1.474  11.696  10.694
70753SOL    HW214157   1.600  11.743  10.763
70754SOL     OW14158  14.121   9.844  11.873
70754SOL    HW114159  14.197   9.857  11.930
70754SOL    HW214160  14.063   9.788  11.924
70755SOL     OW14161  14.068  10.030   2.802
70755SOL    HW114162  13.973  10.020   2.793
70755SOL    HW214163  14.090   9.984   2.883
70756SOL     OW14164  13.818   6.481   0.269
70756SOL    HW114165  13.744   6.446   0.319
70756SOL    HW214166  13.863   6.404   0.234
70757SOL     OW14167   9.181   6.369  13.260
70757SOL    HW114168   9.260   6.326  13.295
70757SOL    HW214169   9.133   6.397  13.338
70758SOL     OW14170   7.482  11.389  13.074
70758SOL    HW114171   7.484  11.294  13.073
70758SOL    HW214172   7.550  11.415  13.011
70759SOL     OW14173   6.803   6.556  14.456
70759SOL    HW114174   6.724   6.563  14.509
70759SOL    HW214175   6.827   6.463  14.459
70760SOL     OW14176  13.348   8.143  13.099
70760SOL    HW114177  13.443   8.132  13.103
70760SOL    HW214178  13.318   8.124  13.188
70761SOL     OW14179  12.627   2.835  14.094
70761SOL    HW114180  12.543   2.881  14.100
70761SOL    HW214181  12.612   2.752  14.140
70762SOL     OW14182   1.482  11.306  10.687
70762SOL    HW114183   1.512  11.279  10.600
70762SOL    HW214184   1.561  11.342  10.729
70763SOL     OW14185  14.316  14.505   7.435
70763SOL    HW114186  14.401  14.550   7.442
70763SOL    HW214187  14.328  14.424   7.486
70764SOL     OW14188  12.581  12.727   6.110
70764SOL    HW114189  12.631  12.665   6.163
70764SOL    HW214190  12.543  12.788   6.175
70765SOL     OW14191  13.993   6.743  10.907
70765SOL    HW114192  14.086   6.720  10.907
70765SOL    HW214193  13.965   6.729  10.998
70766SOL     OW14194  10.382  14.246  12.171
70766SOL    HW114195  10.355  14.227  12.261
70766SOL    HW214196  10.372  14.340  12.162
70767SOL     OW14197   7.082  13.455   2.227
70767SOL    HW114198   7.120  13.374   2.193
70767SOL    HW214199   7.138  13.524   2.192
70768SOL     OW14200   1.076   1.145   2.553
70768SOL    HW114201   1.067   1.239   2.572
70768SOL    HW214202   1.124   1.142   2.470
70769SOL     OW14203  14.051   2.554   6.737
70769SOL    HW114204  13.999   2.483   6.698
70769SOL    HW214205  14.020   2.633   6.693
70770SOL     OW14206  13.007   4.238  13.888
70770SOL    HW114207  12.924   4.282  13.905
70770SOL    HW214208  13.035   4.205  13.974
70771SOL     OW14209   1.486   4.064   4.353
70771SOL    HW114210   1.533   4.056   4.270
70771SOL    HW214211   1.546   4.113   4.410
70772SOL     OW14212  11.381   8.816  13.538
70772SOL    HW114213  11.392   8.867  13.618
70772SOL    HW214214  11.437   8.740  13.549
70773SOL     OW14215  11.154   8.913   7.860
70773SOL    HW114216  11.201   8.831   7.846
70773SOL    HW214217  11.065   8.886   7.883
70774SOL     OW14218   6.308   3.162  12.116
70774SOL    HW114219   6.364   3.191  12.044
70774SOL    HW214220   6.231   3.219  12.112
70775SOL     OW14221   3.941   2.861   1.649
70775SOL    HW114222   3.869   2.923   1.658
70775SOL    HW214223   4.018   2.917   1.636
70776SOL     OW14224   8.617   2.607   2.835
70776SOL    HW114225   8.602   2.623   2.742
70776SOL    HW214226   8.539   2.561   2.864
70777SOL     OW14227   2.568   4.147  13.409
70777SOL    HW114228   2.627   4.102  13.348
70777SOL    HW214229   2.590   4.112  13.495
70778SOL     OW14230   3.024  10.964  14.107
70778SOL    HW114231   3.063  10.879  14.126
70778SOL    HW214232   2.933  10.955  14.134
70779SOL     OW14233   2.244   8.520   6.879
70779SOL    HW114234   2.158   8.555   6.855
70779SOL    HW214235   2.255   8.544   6.971
70780SOL     OW14236   4.612   3.571   0.645
70780SOL    HW114237   4.642   3.557   0.555
70780SOL    HW214238   4.628   3.487   0.689
70781SOL     OW14239   6.688  14.016   1.474
70781SOL    HW114240   6.653  13.939   1.519
70781SOL    HW214241   6.717  13.983   1.389
70782SOL     OW14242  10.967   2.201   2.070
70782SOL    HW114243  10.997   2.110   2.074
70782SOL    HW214244  10.872   2.196   2.079
70783SOL     OW14245  14.791  13.371   3.109
70783SOL    HW114246  14.880  13.387   3.140
70783SOL    HW214247  14.802  13.317   3.030
70784SOL     OW14248  10.863   9.448   6.531
70784SOL    HW114249  10.850   9.503   6.607
70784SOL    HW214250  10.948   9.473   6.496
70785SOL     OW14251   5.806   2.611   5.039
70785SOL    HW114252   5.728   2.591   4.987
70785SOL    HW214253   5.775   2.608   5.130
70786SOL     OW14254   1.003  13.210   1.576
70786SOL    HW114255   0.985  13.160   1.656
70786SOL    HW214256   1.052  13.287   1.606
70787SOL     OW14257   2.810   8.695  12.839
70787SOL    HW114258   2.728   8.744  12.830
70787SOL    HW214259   2.801   8.621  12.779
70788SOL     OW14260   4.080  14.829   3.672
70788SOL    HW114261   3.999  14.841   3.721
70788SOL    HW214262   4.112  14.743   3.698
70789SOL     OW14263  13.969   2.067   7.762
70789SOL    HW114264  14.018   2.075   7.844
70789SOL    HW214265  14.032   2.089   7.693
70790SOL     OW14266   0.100   9.253  10.319
70790SOL    HW114267   0.181   9.275  10.273
70790SOL    HW214268   0.129   9.205  10.397
70791SOL     OW14269   1.697   1.182   1.455
70791SOL    HW114270   1.652   1.183   1.539
70791SOL    HW214271   1.633   1.217   1.393
70792SOL     OW14272   0.737   4.829   3.835
70792SOL    HW114273   0.689   4.768   3.890
70792SOL    HW214274   0.678   4.850   3.763
70793SOL     OW14275   7.816  10.739   3.056
70793SOL    HW114276   7.911  10.743   3.066
70793SOL    HW214277   7.782  10.797   3.124
70794SOL     OW14278   2.664   6.709   4.884
70794SOL    HW114279   2.729   6.644   4.854
70794SOL    HW214280   2.580   6.668   4.867
70795SOL     OW14281  14.400   6.051  11.079
70795SOL    HW114282  14.343   6.121  11.112
70795SOL    HW214283  14.369   6.036  10.990
70796SOL     OW14284  13.009   8.247  11.074
70796SOL    HW114285  13.055   8.289  11.146
70796SOL    HW214286  12.916   8.266  11.091
70797SOL     OW14287   2.235   1.450  14.598
70797SOL    HW114288   2.261   1.408  14.681
70797SOL    HW214289   2.277   1.536  14.601
70798SOL     OW14290   0.593   5.910   8.042
70798SOL    HW114291   0.610   5.993   7.997
70798SOL    HW214292   0.679   5.878   8.068
70799SOL     OW14293   5.529   9.834  14.577
70799SOL    HW114294   5.465   9.842  14.507
70799SOL    HW214295   5.478   9.846  14.658
70800SOL     OW14296  13.141   1.914   7.053
70800SOL    HW114297  13.071   1.975   7.078
70800SOL    HW214298  13.208   1.924   7.121
70801SOL     OW14299  10.236   1.138  10.461
70801SOL    HW114300  10.272   1.049  10.452
70801SOL    HW214301  10.303   1.186  10.510
70802SOL     OW14302   7.832   4.029   8.433
70802SOL    HW114303   7.903   4.035   8.369
70802SOL    HW214304   7.857   4.090   8.502
70803SOL     OW14305   0.514   3.565   3.472
70803SOL    HW114306   0.490   3.539   3.561
70803SOL    HW214307   0.603   3.532   3.461
70804SOL     OW14308  13.798   9.366   0.705
70804SOL    HW114309  13.744   9.411   0.770
70804SOL    HW214310  13.735   9.332   0.641
70805SOL     OW14311   9.509  12.614   3.866
70805SOL    HW114312   9.496  12.520   3.855
70805SOL    HW214313   9.513  12.648   3.776
70806SOL     OW14314   5.770  10.553   2.463
70806SOL    HW114315   5.720  10.624   2.423
70806SOL    HW214316   5.705  10.501   2.509
70807SOL     OW14317   8.159   6.086  11.702
70807SOL    HW114318   8.203   6.119  11.623
70807SOL    HW214319   8.215   6.015  11.732
70808SOL     OW14320   8.684   8.390  10.496
70808SOL    HW114321   8.732   8.315  10.530
70808SOL    HW214322   8.735   8.466  10.524
70809SOL     OW14323   2.983   3.780   0.494
70809SOL    HW114324   2.907   3.727   0.518
70809SOL    HW214325   2.992   3.769   0.400
70810SOL     OW14326   0.336   5.565   2.402
70810SOL    HW114327   0.270   5.510   2.445
70810SOL    HW214328   0.391   5.597   2.473
70811SOL     OW14329   9.498  10.205   0.047
70811SOL    HW114330   9.577  10.151   0.047
70811SOL    HW214331   9.526  10.290   0.014
70812SOL     OW14332   2.087   1.567   3.162
70812SOL    HW114333   2.137   1.488   3.142
70812SOL    HW214334   1.995   1.540   3.156
70813SOL     OW14335  11.564   4.382   2.021
70813SOL    HW114336  11.473   4.352   2.018
70813SOL    HW214337  11.558   4.476   2.039
70814SOL     OW14338   3.125   0.262  11.006
70814SOL    HW114339   3.035   0.295  11.004
70814SOL    HW214340   3.153   0.276  11.097
70815SOL     OW14341  12.413   4.992   9.113
70815SOL    HW114342  12.417   5.021   9.204
70815SOL    HW214343  12.498   4.949   9.098
70816SOL     OW14344  14.097  13.964  12.287
70816SOL    HW114345  14.155  13.967  12.211
70816SOL    HW214346  14.128  14.034  12.344
70817SOL     OW14347   6.548   5.436   7.999
70817SOL    HW114348   6.553   5.341   7.989
70817SOL    HW214349   6.497   5.448   8.079
70818SOL     OW14350   9.846   2.659   2.768
70818SOL    HW114351   9.882   2.604   2.837
70818SOL    HW214352   9.752   2.663   2.787
70819SOL     OW14353   1.402   2.047   3.619
70819SOL    HW114354   1.476   2.059   3.560
70819SOL    HW214355   1.332   2.015   3.562
70820SOL     OW14356   2.187   7.015  11.751
70820SOL    HW114357   2.269   7.053  11.720
70820SOL    HW214358   2.200   7.004  11.845
70821SOL     OW14359   6.636  14.134  14.566
70821SOL    HW114360   6.589  14.096  14.640
70821SOL    HW214361   6.724  14.097  14.571
70822SOL     OW14362   7.235   8.679   3.572
70822SOL    HW114363   7.170   8.625   3.617
70822SOL    HW214364   7.247   8.755   3.629
70823SOL     OW14365  10.570   9.972   3.423
70823SOL    HW114366  10.658   9.952   3.391
70823SOL    HW214367  10.511   9.933   3.358
70824SOL     OW14368  11.299   2.089   3.855
70824SOL    HW114369  11.216   2.130   3.830
70824SOL    HW214370  11.361   2.120   3.790
70825SOL     OW14371   5.130   9.698   4.280
70825SOL    HW114372   5.142   9.684   4.374
70825SOL    HW214373   5.037   9.680   4.265
70826SOL     OW14374  11.466  10.851   8.947
70826SOL    HW114375  11.445  10.788   8.878
70826SOL    HW214376  11.394  10.843   9.010
70827SOL     OW14377   7.976   1.450  13.143
70827SOL    HW114378   7.986   1.443  13.049
70827SOL    HW214379   7.980   1.360  13.175
70828SOL     OW14380  10.473   9.628  13.527
70828SOL    HW114381  10.447   9.589  13.443
70828SOL    HW214382  10.533   9.564  13.565
70829SOL     OW14383   0.138   9.164   4.484
70829SOL    HW114384   0.079   9.216   4.430
70829SOL    HW214385   0.219   9.159   4.433
70830SOL     OW14386  11.657  13.398   3.967
70830SOL    HW114387  11.709  13.353   3.901
70830SOL    HW214388  11.711  13.395   4.046
70831SOL     OW14389   7.330   3.517   0.991
70831SOL    HW114390   7.406   3.481   1.035
70831SOL    HW214391   7.274   3.441   0.974
70832SOL     OW14392   4.785  12.541  13.386
70832SOL    HW114393   4.708  12.546  13.442
70832SOL    HW214394   4.771  12.608  13.319
70833SOL     OW14395   5.618  13.098   8.806
70833SOL    HW114396   5.549  13.041   8.838
70833SOL    HW214397   5.699  13.057   8.837
70834SOL     OW14398   1.450   2.132   5.887
70834SOL    HW114399   1.474   2.158   5.975
70834SOL    HW214400   1.355   2.118   5.891
70835SOL     OW14401   7.127  13.525   0.003
70835SOL    HW114402   7.121  13.431   0.017
70835SOL    HW214403   7.123  13.536  14.787
70836SOL     OW14404   6.299  10.314   7.113
70836SOL    HW114405   6.383  10.292   7.155
70836SOL    HW214406   6.285  10.244   7.050
70837SOL     OW14407  10.585   9.127   5.458
70837SOL    HW114408  10.588   9.161   5.369
70837SOL    HW214409  10.658   9.171   5.503
70838SOL     OW14410   9.831   8.015  14.279
70838SOL    HW114411   9.777   7.955  14.329
70838SOL    HW214412   9.839   7.975  14.193
70839SOL     OW14413   4.038  10.056   8.120
70839SOL    HW114414   3.972  10.083   8.183
70839SOL    HW214415   4.012  10.098   8.038
70840SOL     OW14416   3.565  13.887   3.372
70840SOL    HW114417   3.557  13.959   3.309
70840SOL    HW214418   3.657  13.860   3.365
70841SOL     OW14419   8.136  12.714   8.634
70841SOL    HW114420   8.063  12.763   8.670
70841SOL    HW214421   8.205  12.721   8.699
70842SOL     OW14422  12.576   3.788   7.768
70842SOL    HW114423  12.585   3.862   7.707
70842SOL    HW214424  12.656   3.791   7.820
70843SOL     OW14425   8.863  11.293   9.390
70843SOL    HW114426   8.805  11.358   9.429
70843SOL    HW214427   8.889  11.331   9.306
70844SOL     OW14428   2.526   3.211  12.402
70844SOL    HW114429   2.612   3.237  12.434
70844SOL    HW214430   2.541   3.128  12.357
70845SOL     OW14431   8.503   9.314   9.153
70845SOL    HW114432   8.490   9.237   9.097
70845SOL    HW214433   8.594   9.306   9.183
70846SOL     OW14434  10.485  10.429   4.304
70846SOL    HW114435  10.524  10.344   4.323
70846SOL    HW214436  10.434  10.450   4.383
70847SOL     OW14437  12.568  11.635   3.575
70847SOL    HW114438  12.639  11.649   3.638
70847SOL    HW214439  12.570  11.542   3.555
70848SOL     OW14440   1.320   5.921   6.846
70848SOL    HW114441   1.399   5.966   6.873
70848SOL    HW214442   1.348   5.861   6.777
70849SOL     OW14443   7.127   8.005   8.596
70849SOL    HW114444   7.047   7.966   8.561
70849SOL    HW214445   7.131   7.973   8.686
70850SOL     OW14446   7.022   1.125  14.051
70850SOL    HW114447   6.995   1.033  14.058
70850SOL    HW214448   7.011   1.146  13.958
70851SOL     OW14449   0.414   5.727   3.587
70851SOL    HW114450   0.481   5.783   3.625
70851SOL    HW214451   0.451   5.639   3.589
70852SOL     OW14452   5.648  10.863   7.197
70852SOL    HW114453   5.706  10.794   7.165
70852SOL    HW214454   5.696  10.901   7.272
70853SOL     OW14455   9.435   3.654  12.877
70853SOL    HW114456   9.347   3.640  12.843
70853SOL    HW214457   9.480   3.571  12.861
70854SOL     OW14458   6.931   9.285   0.597
70854SOL    HW114459   6.942   9.190   0.596
70854SOL    HW214460   7.007   9.319   0.551
70855SOL     OW14461   3.249   9.732  14.138
70855SOL    HW114462   3.209   9.695  14.059
70855SOL    HW214463   3.337   9.693  14.140
70856SOL     OW14464   6.277   1.259   6.836
70856SOL    HW114465   6.195   1.303   6.815
70856SOL    HW214466   6.266   1.170   6.803
70857SOL     OW14467  11.082  10.781  13.198
70857SOL    HW114468  11.041  10.750  13.117
70857SOL    HW214469  11.104  10.873  13.180
70858SOL     OW14470   3.360   1.062   5.294
70858SOL    HW114471   3.361   1.015   5.377
70858SOL    HW214472   3.268   1.084   5.280
70859SOL     OW14473   3.711  14.476   6.475
70859SOL    HW114474   3.630  14.473   6.526
70859SOL    HW214475   3.703  14.405   6.412
70860SOL     OW14476   4.203  14.191   3.367
70860SOL    HW114477   4.231  14.107   3.405
70860SOL    HW214478   4.177  14.244   3.443
70861SOL     OW14479   3.817   2.338   9.286
70861SOL    HW114480   3.783   2.250   9.306
70861SOL    HW214481   3.775   2.395   9.351
70862SOL     OW14482   1.347   7.236   2.374
70862SOL    HW114483   1.284   7.173   2.408
70862SOL    HW214484   1.393   7.268   2.451
70863SOL     OW14485   7.478   6.160  14.196
70863SOL    HW114486   7.486   6.153  14.291
70863SOL    HW214487   7.397   6.209  14.182
70864SOL     OW14488   6.395   1.532  10.220
70864SOL    HW114489   6.429   1.450  10.256
70864SOL    HW214490   6.448   1.600  10.262
70865SOL     OW14491   2.778   9.217   8.666
70865SOL    HW114492   2.792   9.179   8.579
70865SOL    HW214493   2.846   9.285   8.674
70866SOL     OW14494   7.058  12.638   3.198
70866SOL    HW114495   7.063  12.651   3.293
70866SOL    HW214496   6.991  12.571   3.187
70867SOL     OW14497   9.422   5.551   1.493
70867SOL    HW114498   9.363   5.626   1.491
70867SOL    HW214499   9.509   5.588   1.475
70868SOL     OW14500   2.555   4.275   1.152
70868SOL    HW114501   2.584   4.212   1.086
70868SOL    HW214502   2.460   4.266   1.154
70869SOL     OW14503   1.770  12.417   3.569
70869SOL    HW114504   1.687  12.373   3.553
70869SOL    HW214505   1.834  12.365   3.520
70870SOL     OW14506   1.220  13.348   9.264
70870SOL    HW114507   1.168  13.301   9.199
70870SOL    HW214508   1.179  13.434   9.270
70871SOL     OW14509  14.201   7.466   0.933
70871SOL    HW114510  14.189   7.483   1.027
70871SOL    HW214511  14.241   7.379   0.929
70872SOL     OW14512   3.914   2.534   3.463
70872SOL    HW114513   3.978   2.464   3.474
70872SOL    HW214514   3.862   2.533   3.544
70873SOL     OW14515   5.666   6.236   0.769
70873SOL    HW114516   5.640   6.153   0.729
70873SOL    HW214517   5.592   6.260   0.824
70874SOL     OW14518  10.668   8.711  12.406
70874SOL    HW114519  10.626   8.635  12.446
70874SOL    HW214520  10.716   8.676  12.332
70875SOL     OW14521   8.670   6.313   6.109
70875SOL    HW114522   8.712   6.388   6.068
70875SOL    HW214523   8.634   6.262   6.036
70876SOL     OW14524  11.712   8.864   1.525
70876SOL    HW114525  11.753   8.863   1.611
70876SOL    HW214526  11.784   8.877   1.463
70877SOL     OW14527   1.891   2.617  13.552
70877SOL    HW114528   1.837   2.586  13.625
70877SOL    HW214529   1.966   2.659  13.594
70878SOL     OW14530   8.498  14.463   3.754
70878SOL    HW114531   8.542  14.385   3.788
70878SOL    HW214532   8.565  14.507   3.701
70879SOL     OW14533   0.401   1.575   2.692
70879SOL    HW114534   0.405   1.634   2.767
70879SOL    HW214535   0.311   1.584   2.660
70880SOL     OW14536   6.422   5.983   6.965
70880SOL    HW114537   6.437   6.064   6.917
70880SOL    HW214538   6.343   5.999   7.016
70881SOL     OW14539   4.439   5.031  13.325
70881SOL    HW114540   4.516   5.088  13.316
70881SOL    HW214541   4.366   5.086  13.298
70882SOL     OW14542   5.002  12.781   9.551
70882SOL    HW114543   5.088  12.799   9.514
70882SOL    HW214544   5.011  12.697   9.595
70883SOL     OW14545   3.461   4.062   4.550
70883SOL    HW114546   3.458   4.028   4.640
70883SOL    HW214547   3.408   4.000   4.500
70884SOL     OW14548   0.649  12.541   2.148
70884SOL    HW114549   0.651  12.575   2.237
70884SOL    HW214550   0.557  12.517   2.133
70885SOL     OW14551   1.019   7.742  11.107
70885SOL    HW114552   0.948   7.683  11.082
70885SOL    HW214553   1.017   7.741  11.203
70886SOL     OW14554  10.994   1.267   5.992
70886SOL    HW114555  10.921   1.314   5.952
70886SOL    HW214556  11.054   1.335   6.021
70887SOL     OW14557  14.489   8.429   0.226
70887SOL    HW114558  14.505   8.450   0.318
70887SOL    HW214559  14.433   8.351   0.229
70888SOL     OW14560   9.183   7.183   4.870
70888SOL    HW114561   9.249   7.114   4.875
70888SOL    HW214562   9.120   7.152   4.806
70889SOL     OW14563   1.529   8.911  13.074
70889SOL    HW114564   1.507   8.835  13.020
70889SOL    HW214565   1.467   8.979  13.046
70890SOL     OW14566   7.435   7.353  12.591
70890SOL    HW114567   7.381   7.380  12.517
70890SOL    HW214568   7.396   7.396  12.667
70891SOL     OW14569  13.068   2.367   3.463
70891SOL    HW114570  13.138   2.429   3.483
70891SOL    HW214571  13.012   2.369   3.541
70892SOL     OW14572   7.051  13.373  10.560
70892SOL    HW114573   6.989  13.444  10.579
70892SOL    HW214574   7.115  13.379  10.631
70893SOL     OW14575  12.815   6.872  10.360
70893SOL    HW114576  12.776   6.959  10.365
70893SOL    HW214577  12.901   6.885  10.321
70894SOL     OW14578   6.163   5.027   2.828
70894SOL    HW114579   6.068   5.030   2.833
70894SOL    HW214580   6.185   5.078   2.750
70895SOL     OW14581  10.921   8.879   2.994
70895SOL    HW114582  10.970   8.809   2.950
70895SOL    HW214583  10.862   8.913   2.926
70896SOL     OW14584   9.008  12.138   8.819
70896SOL    HW114585   9.026  12.189   8.740
70896SOL    HW214586   8.970  12.057   8.787
70897SOL     OW14587   9.873   4.117  11.695
70897SOL    HW114588   9.815   4.120  11.771
70897SOL    HW214589   9.947   4.172  11.719
70898SOL     OW14590   0.645   4.536  10.067
70898SOL    HW114591   0.602   4.453  10.047
70898SOL    HW214592   0.577   4.590  10.108
70899SOL     OW14593   0.771  13.935   7.681
70899SOL    HW114594   0.690  13.885   7.676
70899SOL    HW214595   0.764  13.983   7.763
70900SOL     OW14596   4.861   7.400   2.787
70900SOL    HW114597   4.925   7.454   2.833
70900SOL    HW214598   4.872   7.313   2.824
70901SOL     OW14599  10.828   5.245  10.840
70901SOL    HW114600  10.851   5.305  10.911
70901SOL    HW214601  10.890   5.265  10.771
70902SOL     OW14602   9.095  10.922   9.859
70902SOL    HW114603   9.152  10.912   9.935
70902SOL    HW214604   9.088  10.834   9.823
70903SOL     OW14605   4.541  13.250   6.983
70903SOL    HW114606   4.563  13.245   6.890
70903SOL    HW214607   4.445  13.259   6.984
70904SOL     OW14608   0.147   5.833   3.270
70904SOL    HW114609   0.152   5.803   3.180
70904SOL    HW214610   0.113   5.922   3.265
70905SOL     OW14611   7.877   7.166  14.583
70905SOL    HW114612   7.835   7.242  14.623
70905SOL    HW214613   7.810   7.098  14.582
70906SOL     OW14614   6.152   8.287   9.868
70906SOL    HW114615   6.189   8.199   9.873
70906SOL    HW214616   6.077   8.285   9.928
70907SOL     OW14617  10.613   8.767   6.366
70907SOL    HW114618  10.559   8.844   6.381
70907SOL    HW214619  10.703   8.796   6.382
70908SOL     OW14620   1.263  13.273   9.831
70908SOL    HW114621   1.170  13.268   9.851
70908SOL    HW214622   1.270  13.340   9.763
70909SOL     OW14623   4.356   3.003   9.957
70909SOL    HW114624   4.283   3.019   9.898
70909SOL    HW214625   4.316   2.976  10.039
70910SOL     OW14626   8.065  11.504  10.703
70910SOL    HW114627   8.036  11.507  10.794
70910SOL    HW214628   7.992  11.463  10.656
70911SOL     OW14629   7.116   6.472  13.133
70911SOL    HW114630   7.052   6.520  13.186
70911SOL    HW214631   7.097   6.498  13.043
70912SOL     OW14632  14.576  14.538   3.081
70912SOL    HW114633  14.525  14.558   3.003
70912SOL    HW214634  14.517  14.487   3.136
70913SOL     OW14635  11.145   5.354   4.793
70913SOL    HW114636  11.133   5.447   4.812
70913SOL    HW214637  11.161   5.350   4.699
70914SOL     OW14638  12.883   6.960   5.827
70914SOL    HW114639  12.788   6.949   5.824
70914SOL    HW214640  12.898   7.050   5.800
70915SOL     OW14641  10.933  10.163   8.055
70915SOL    HW114642  10.946  10.077   8.095
70915SOL    HW214643  10.883  10.145   7.975
70916SOL     OW14644   7.325   0.247   9.424
70916SOL    HW114645   7.306   0.294   9.505
70916SOL    HW214646   7.343   0.316   9.360
70917SOL     OW14647  10.390   9.822   2.785
70917SOL    HW114648  10.481   9.797   2.770
70917SOL    HW214649  10.396   9.901   2.839
70918SOL     OW14650   9.168  10.922   1.596
70918SOL    HW114651   9.188  10.914   1.690
70918SOL    HW214652   9.072  10.926   1.593
70919SOL     OW14653   4.660   9.368   8.722
70919SOL    HW114654   4.608   9.344   8.799
70919SOL    HW214655   4.656   9.292   8.666
70920SOL     OW14656   8.330   0.219   6.799
70920SOL    HW114657   8.374   0.264   6.871
70920SOL    HW214658   8.397   0.215   6.730
70921SOL     OW14659  10.782   4.649  11.029
70921SOL    HW114660  10.723   4.634  10.956
70921SOL    HW214661  10.747   4.593  11.099
70922SOL     OW14662   7.267   6.999  13.376
70922SOL    HW114663   7.239   7.091  13.379
70922SOL    HW214664   7.343   6.996  13.434
70923SOL     OW14665   9.505   9.829   5.774
70923SOL    HW114666   9.562   9.759   5.744
70923SOL    HW214667   9.564   9.903   5.790
70924SOL     OW14668   8.971  14.406  11.111
70924SOL    HW114669   9.017  14.340  11.059
70924SOL    HW214670   9.033  14.479  11.117
70925SOL     OW14671   8.727   2.628   5.217
70925SOL    HW114672   8.754   2.693   5.281
70925SOL    HW214673   8.649   2.666   5.175
70926SOL     OW14674   5.938   0.952   6.672
70926SOL    HW114675   5.955   0.879   6.612
70926SOL    HW214676   6.024   0.975   6.706
70927SOL     OW14677   7.620   3.129   8.775
70927SOL    HW114678   7.701   3.094   8.813
70927SOL    HW214679   7.578   3.176   8.847
70928SOL     OW14680   8.693   2.497   2.264
70928SOL    HW114681   8.693   2.403   2.285
70928SOL    HW214682   8.663   2.501   2.173
70929SOL     OW14683  14.351   3.876   7.268
70929SOL    HW114684  14.371   3.790   7.231
70929SOL    HW214685  14.255   3.876   7.277
70930SOL     OW14686   2.741   0.093   4.154
70930SOL    HW114687   2.680   0.163   4.178
70930SOL    HW214688   2.804   0.092   4.226
70931SOL     OW14689   3.244   8.842   7.162
70931SOL    HW114690   3.306   8.889   7.107
70931SOL    HW214691   3.217   8.767   7.109
70932SOL     OW14692   1.791   4.371  11.981
70932SOL    HW114693   1.823   4.422  11.906
70932SOL    HW214694   1.701   4.400  11.993
70933SOL     OW14695  13.907   5.839   0.071
70933SOL    HW114696  13.887   5.746   0.064
70933SOL    HW214697  13.948   5.861  14.867
70934SOL     OW14698  12.501   8.532  13.176
70934SOL    HW114699  12.424   8.580  13.206
70934SOL    HW214700  12.471   8.484  13.099
70935SOL     OW14701   5.729   3.762   5.017
70935SOL    HW114702   5.803   3.779   4.959
70935SOL    HW214703   5.767   3.765   5.105
70936SOL     OW14704   6.307   0.641  11.986
70936SOL    HW114705   6.364   0.579  12.031
70936SOL    HW214706   6.220   0.626  12.024
70937SOL     OW14707  13.743   8.916  14.083
70937SOL    HW114708  13.835   8.938  14.066
70937SOL    HW214709  13.731   8.830  14.042
70938SOL     OW14710   1.851  14.080  12.069
70938SOL    HW114711   1.859  14.153  12.131
70938SOL    HW214712   1.910  14.013  12.104
70939SOL     OW14713  10.136   8.925   8.103
70939SOL    HW114714  10.088   8.876   8.037
70939SOL    HW214715  10.093   9.010   8.106
70940SOL     OW14716  12.400   5.021   7.622
70940SOL    HW114717  12.347   5.007   7.543
70940SOL    HW214718  12.341   5.068   7.682
70941SOL     OW14719   0.647  14.787   1.581
70941SOL    HW114720   0.688  14.868   1.549
70941SOL    HW214721   0.718  14.741   1.626
70942SOL     OW14722   9.294   7.778   2.026
70942SOL    HW114723   9.199   7.763   2.018
70942SOL    HW214724   9.330   7.740   1.946
70943SOL     OW14725  13.817   2.941  14.593
70943SOL    HW114726  13.897   2.924  14.644
70943SOL    HW214727  13.831   3.029  14.557
70944SOL     OW14728  11.712  13.519   2.042
70944SOL    HW114729  11.630  13.555   2.075
70944SOL    HW214730  11.750  13.589   1.990
70945SOL     OW14731  11.988   1.426   5.398
70945SOL    HW114732  12.026   1.371   5.330
70945SOL    HW214733  11.940   1.365   5.454
70946SOL     OW14734  12.578   5.070   5.920
70946SOL    HW114735  12.662   5.025   5.933
70946SOL    HW214736  12.514   4.999   5.910
70947SOL     OW14737   3.046   4.179   2.633
70947SOL    HW114738   2.997   4.152   2.710
70947SOL    HW214739   3.116   4.114   2.625
70948SOL     OW14740  11.401   6.261  14.370
70948SOL    HW114741  11.411   6.174  14.409
70948SOL    HW214742  11.432   6.252  14.280
70949SOL     OW14743   6.079  11.629   9.803
70949SOL    HW114744   6.145  11.566   9.833
70949SOL    HW214745   6.104  11.711   9.845
70950SOL     OW14746   1.813   2.838   3.072
70950SOL    HW114747   1.788   2.765   3.015
70950SOL    HW214748   1.832   2.796   3.156
70951SOL     OW14749   1.531  12.325   6.597
70951SOL    HW114750   1.457  12.270   6.625
70951SOL    HW214751   1.504  12.361   6.513
70952SOL     OW14752   6.996   7.730   5.688
70952SOL    HW114753   7.001   7.638   5.664
70952SOL    HW214754   7.020   7.732   5.781
70953SOL     OW14755   7.653   3.800   4.386
70953SOL    HW114756   7.614   3.805   4.474
70953SOL    HW214757   7.582   3.823   4.327
70954SOL     OW14758   7.910   4.541   0.337
70954SOL    HW114759   7.896   4.469   0.399
70954SOL    HW214760   7.841   4.531   0.272
70955SOL     OW14761  13.007  11.282   4.412
70955SOL    HW114762  13.056  11.324   4.482
70955SOL    HW214763  12.940  11.345   4.387
70956SOL     OW14764   1.196   0.767   4.862
70956SOL    HW114765   1.129   0.828   4.891
70956SOL    HW214766   1.180   0.687   4.913
70957SOL     OW14767   6.735   6.374  14.863
70957SOL    HW114768   6.649   6.342  14.834
70957SOL    HW214769   6.753   6.324   0.063
70958SOL     OW14770   6.244   2.829   2.372
70958SOL    HW114771   6.175   2.845   2.436
70958SOL    HW214772   6.324   2.859   2.415
70959SOL     OW14773   0.422  11.421   4.013
70959SOL    HW114774   0.390  11.464   4.093
70959SOL    HW214775   0.431  11.329   4.037
70960SOL     OW14776   4.536  12.368   0.648
70960SOL    HW114777   4.602  12.374   0.579
70960SOL    HW214778   4.514  12.460   0.667
70961SOL     OW14779  12.699  13.058   4.352
70961SOL    HW114780  12.651  13.008   4.419
70961SOL    HW214781  12.631  13.104   4.303
70962SOL     OW14782  13.374  14.169  14.816
70962SOL    HW114783  13.284  14.151  14.791
70962SOL    HW214784  13.424  14.097  14.778
70963SOL     OW14785   3.298  13.687   0.982
70963SOL    HW114786   3.211  13.653   0.963
70963SOL    HW214787   3.328  13.636   1.057
70964SOL     OW14788   4.098   4.588   7.220
70964SOL    HW114789   4.038   4.517   7.199
70964SOL    HW214790   4.045   4.667   7.218
70965SOL     OW14791   5.071   2.390   5.504
70965SOL    HW114792   5.110   2.349   5.581
70965SOL    HW214793   5.035   2.473   5.536
70966SOL     OW14794   0.097   5.094  12.471
70966SOL    HW114795   0.094   5.145  12.390
70966SOL    HW214796   0.169   5.133  12.521
70967SOL     OW14797  14.807  10.884   9.703
70967SOL    HW114798  14.784  10.912   9.615
70967SOL    HW214799  14.820  10.966   9.751
70968SOL     OW14800  11.104   9.511   2.018
70968SOL    HW114801  11.023   9.509   1.967
70968SOL    HW214802  11.089   9.450   2.090
70969SOL     OW14803   6.815   3.868  14.328
70969SOL    HW114804   6.853   3.815  14.257
70969SOL    HW214805   6.756   3.808  14.374
70970SOL     OW14806   1.358   3.487   2.658
70970SOL    HW114807   1.404   3.407   2.632
70970SOL    HW214808   1.415   3.558   2.631
70971SOL     OW14809   4.470  11.143   9.209
70971SOL    HW114810   4.495  11.105   9.293
70971SOL    HW214811   4.501  11.079   9.144
70972SOL     OW14812   6.152   8.552   1.804
70972SOL    HW114813   6.245   8.577   1.805
70972SOL    HW214814   6.141   8.501   1.724
70973SOL     OW14815   8.384   6.900  11.883
70973SOL    HW114816   8.346   6.839  11.947
70973SOL    HW214817   8.316   6.910  11.817
70974SOL     OW14818   3.857   6.402   6.843
70974SOL    HW114819   3.847   6.342   6.769
70974SOL    HW214820   3.770   6.405   6.883
70975SOL     OW14821   0.040  11.555   3.964
70975SOL    HW114822   0.073  11.605   3.889
70975SOL    HW214823   0.026  11.467   3.929
70976SOL     OW14824   4.111  11.278   3.118
70976SOL    HW114825   4.108  11.235   3.033
70976SOL    HW214826   4.101  11.208   3.181
70977SOL     OW14827  12.649   5.837  12.316
70977SOL    HW114828  12.571   5.885  12.289
70977SOL    HW214829  12.622   5.787  12.393
70978SOL     OW14830  13.068   1.560   9.841
70978SOL    HW114831  12.992   1.563   9.783
70978SOL    HW214832  13.137   1.520   9.789
70979SOL     OW14833   9.573  14.826   8.525
70979SOL    HW114834   9.493  14.806   8.475
70979SOL    HW214835   9.587   0.040   8.511
70980SOL     OW14836   8.757  14.120   0.474
70980SOL    HW114837   8.758  14.074   0.558
70980SOL    HW214838   8.848  14.145   0.460
70981SOL     OW14839   6.058   4.741   4.724
70981SOL    HW114840   6.143   4.703   4.748
70981SOL    HW214841   6.015   4.758   4.808
70982SOL     OW14842   0.966  10.880  10.770
70982SOL    HW114843   1.060  10.881  10.789
70982SOL    HW214844   0.925  10.869  10.856
70983SOL     OW14845   9.982   6.590   6.666
70983SOL    HW114846  10.002   6.684   6.672
70983SOL    HW214847   9.910   6.578   6.728
70984SOL     OW14848  10.888   8.618  13.195
70984SOL    HW114849  10.853   8.651  13.277
70984SOL    HW214850  10.907   8.526  13.213
70985SOL     OW14851   9.291   8.715  13.421
70985SOL    HW114852   9.270   8.725  13.328
70985SOL    HW214853   9.319   8.802  13.449
70986SOL     OW14854  13.231  11.082   9.614
70986SOL    HW114855  13.153  11.077   9.669
70986SOL    HW214856  13.301  11.104   9.675
70987SOL     OW14857   9.826   6.599  14.620
70987SOL    HW114858   9.744   6.608  14.571
70987SOL    HW214859   9.881   6.671  14.589
70988SOL     OW14860   9.205   8.046   2.764
70988SOL    HW114861   9.176   8.002   2.684
70988SOL    HW214862   9.148   8.012   2.833
70989SOL     OW14863   9.899   1.304   9.204
70989SOL    HW114864   9.901   1.311   9.300
70989SOL    HW214865   9.916   1.212   9.187
70990SOL     OW14866  10.244   3.649   3.903
70990SOL    HW114867  10.229   3.741   3.880
70990SOL    HW214868  10.252   3.605   3.819
70991SOL     OW14869  14.064  10.555   2.832
70991SOL    HW114870  14.146  10.533   2.787
70991SOL    HW214871  14.053  10.649   2.817
70992SOL     OW14872  14.237  11.605   5.090
70992SOL    HW114873  14.275  11.518   5.108
70992SOL    HW214874  14.163  11.588   5.033
70993SOL     OW14875  11.680  13.185   1.601
70993SOL    HW114876  11.666  13.185   1.507
70993SOL    HW214877  11.683  13.277   1.625
70994SOL     OW14878  10.346   2.328   0.712
70994SOL    HW114879  10.417   2.264   0.716
70994SOL    HW214880  10.285   2.301   0.780
70995SOL     OW14881  14.695   9.238   1.743
70995SOL    HW114882  14.641   9.287   1.681
70995SOL    HW214883  14.772   9.293   1.757
70996SOL     OW14884   8.872  12.294  10.834
70996SOL    HW114885   8.850  12.224  10.897
70996SOL    HW214886   8.798  12.355  10.840
70997SOL     OW14887   3.144  10.823   8.596
70997SOL    HW114888   3.095  10.771   8.532
70997SOL    HW214889   3.122  10.784   8.681
70998SOL     OW14890   1.931   1.372   2.554
70998SOL    HW114891   1.988   1.301   2.585
70998SOL    HW214892   1.974   1.452   2.586
70999SOL     OW14893  12.273   0.955   0.769
70999SOL    HW114894  12.266   0.871   0.722
70999SOL    HW214895  12.226   0.939   0.851
71000SOL     OW14896   9.984   8.532   7.534
71000SOL    HW114897   9.947   8.467   7.474
71000SOL    HW214898  10.069   8.496   7.559
71001SOL     OW14899   5.784   1.238   3.403
71001SOL    HW114900   5.799   1.232   3.309
71001SOL    HW214901   5.723   1.312   3.413
71002SOL     OW14902   6.140   1.086   1.882
71002SOL    HW114903   6.106   1.017   1.939
71002SOL    HW214904   6.235   1.075   1.884
71003SOL     OW14905   6.960   6.211  13.366
71003SOL    HW114906   6.980   6.139  13.425
71003SOL    HW214907   6.949   6.288  13.423
71004SOL     OW14908   4.265   2.909   0.033
71004SOL    HW114909   4.348   2.903   0.081
71004SOL    HW214910   4.266   2.833  14.854
71005SOL     OW14911   2.019   0.531  14.136
71005SOL    HW114912   2.023   0.622  14.107
71005SOL    HW214913   1.925   0.513  14.144
71006SOL     OW14914   0.359   6.049   0.449
71006SOL    HW114915   0.442   6.074   0.409
71006SOL    HW214916   0.293   6.083   0.388
71007SOL     OW14917   6.022  11.361   1.132
71007SOL    HW114918   6.007  11.286   1.075
71007SOL    HW214919   5.957  11.351   1.202
71008SOL     OW14920   5.582   3.919  13.771
71008SOL    HW114921   5.655   3.860  13.790
71008SOL    HW214922   5.609   4.003  13.810
71009SOL     OW14923   0.094   0.989   0.871
71009SOL    HW114924   0.036   0.963   0.800
71009SOL    HW214925   0.067   1.078   0.893
71010SOL     OW14926  12.219  14.198   4.783
71010SOL    HW114927  12.220  14.214   4.688
71010SOL    HW214928  12.237  14.104   4.791
71011SOL     OW14929   7.127   0.477  11.737
71011SOL    HW114930   7.126   0.526  11.819
71011SOL    HW214931   7.179   0.532  11.677
71012SOL     OW14932  11.456   9.868  12.786
71012SOL    HW114933  11.384   9.924  12.758
71012SOL    HW214934  11.421   9.779  12.776
71013SOL     OW14935  10.514   3.105   8.919
71013SOL    HW114936  10.489   3.092   8.827
71013SOL    HW214937  10.434   3.088   8.969
71014SOL     OW14938  12.750   1.137  14.608
71014SOL    HW114939  12.762   1.049  14.572
71014SOL    HW214940  12.815   1.144  14.678
71015SOL     OW14941  11.125   2.774   9.251
71015SOL    HW114942  11.046   2.818   9.218
71015SOL    HW214943  11.178   2.845   9.286
71016SOL     OW14944  11.207  13.145   1.905
71016SOL    HW114945  11.194  13.101   1.820
71016SOL    HW214946  11.193  13.076   1.970
71017SOL     OW14947   7.869   2.917   5.594
71017SOL    HW114948   7.805   2.902   5.524
71017SOL    HW214949   7.835   2.994   5.641
71018SOL     OW14950   9.302  12.172   7.836
71018SOL    HW114951   9.221  12.200   7.795
71018SOL    HW214952   9.371  12.197   7.774
71019SOL     OW14953   5.955   7.249   0.122
71019SOL    HW114954   5.872   7.219   0.086
71019SOL    HW214955   6.019   7.231   0.054
71020SOL     OW14956  13.987   3.066   7.502
71020SOL    HW114957  13.947   3.125   7.439
71020SOL    HW214958  14.065   3.112   7.532
71021SOL     OW14959   4.411   3.229   0.426
71021SOL    HW114960   4.351   3.179   0.371
71021SOL    HW214961   4.428   3.310   0.377
71022SOL     OW14962  13.141  13.306  11.190
71022SOL    HW114963  13.097  13.229  11.228
71022SOL    HW214964  13.217  13.270  11.144
71023SOL     OW14965  13.989   5.271  13.255
71023SOL    HW114966  13.939   5.338  13.301
71023SOL    HW214967  13.974   5.191  13.306
71024SOL     OW14968   2.574   9.052   0.374
71024SOL    HW114969   2.567   8.961   0.401
71024SOL    HW214970   2.538   9.102   0.448
71025SOL     OW14971   3.615  11.627   3.220
71025SOL    HW114972   3.703  11.661   3.206
71025SOL    HW214973   3.563  11.668   3.152
71026SOL     OW14974  14.474  13.778  14.544
71026SOL    HW114975  14.385  13.808  14.528
71026SOL    HW214976  14.516  13.781  14.458
71027SOL     OW14977   0.376  11.164   4.101
71027SOL    HW114978   0.320  11.108   4.154
71027SOL    HW214979   0.463  11.154   4.139
71028SOL     OW14980  10.512   1.451   5.982
71028SOL    HW114981  10.484   1.457   5.890
71028SOL    HW214982  10.484   1.533   6.021
71029SOL     OW14983   5.636   9.491   2.407
71029SOL    HW114984   5.663   9.566   2.353
71029SOL    HW214985   5.712   9.433   2.407
71030SOL     OW14986   6.478  11.499   0.095
71030SOL    HW114987   6.483  11.504  14.879
71030SOL    HW214988   6.442  11.584   0.121
71031SOL     OW14989  13.903   8.325  11.788
71031SOL    HW114990  13.859   8.316  11.873
71031SOL    HW214991  13.929   8.236  11.764
71032SOL     OW14992  12.640   9.272   0.981
71032SOL    HW114993  12.593   9.355   0.979
71032SOL    HW214994  12.703   9.282   1.053
71033SOL     OW14995   7.476   7.400   6.159
71033SOL    HW114996   7.400   7.446   6.122
71033SOL    HW214997   7.475   7.315   6.116
71034SOL     OW14998   0.046   0.572   4.367
71034SOL    HW114999   0.029   0.645   4.426
71034SOL    HW215000   0.111   0.519   4.414
71035SOL     OW15001   2.337  10.549  13.503
71035SOL    HW115002   2.305  10.625  13.553
71035SOL    HW215003   2.386  10.497  13.567
71036SOL     OW15004   5.424   7.104  13.095
71036SOL    HW115005   5.435   7.020  13.140
71036SOL    HW215006   5.483   7.098  13.019
71037SOL     OW15007  11.169   6.553  12.932
71037SOL    HW115008  11.219   6.497  12.991
71037SOL    HW215009  11.192   6.642  12.959
71038SOL     OW15010   7.747  10.688   3.945
71038SOL    HW115011   7.830  10.677   3.992
71038SOL    HW215012   7.705  10.763   3.989
71039SOL     OW15013   7.939   7.221   0.272
71039SOL    HW115014   7.927   7.178   0.187
71039SOL    HW215015   7.885   7.300   0.267
71040SOL     OW15016  12.002   8.306  12.284
71040SOL    HW115017  12.045   8.227  12.250
71040SOL    HW215018  11.953   8.340  12.209
71041SOL     OW15019   7.040  14.415  12.944
71041SOL    HW115020   7.096  14.452  13.012
71041SOL    HW215021   6.984  14.488  12.917
71042SOL     OW15022   9.042  11.871   0.889
71042SOL    HW115023   9.052  11.892   0.982
71042SOL    HW215024   9.078  11.782   0.881
71043SOL     OW15025  13.033   7.727  10.377
71043SOL    HW115026  13.117   7.761  10.346
71043SOL    HW215027  13.027   7.639  10.340
71044SOL     OW15028  12.561   4.074   4.932
71044SOL    HW115029  12.535   4.044   4.845
71044SOL    HW215030  12.507   4.152   4.948
71045SOL     OW15031   5.725   5.204   4.847
71045SOL    HW115032   5.770   5.120   4.834
71045SOL    HW215033   5.650   5.183   4.902
71046SOL     OW15034  14.675   3.450   0.008
71046SOL    HW115035  14.710   3.490  14.808
71046SOL    HW215036  14.665   3.524   0.069
71047SOL     OW15037   2.522   4.878   6.089
71047SOL    HW115038   2.435   4.888   6.050
71047SOL    HW215039   2.510   4.814   6.159
71048SOL     OW15040   1.987   8.406  14.876
71048SOL    HW115041   2.065   8.456   0.021
71048SOL    HW215042   1.914   8.462   0.019
71049SOL     OW15043   6.865   8.174   2.486
71049SOL    HW115044   6.951   8.144   2.456
71049SOL    HW215045   6.858   8.143   2.576
71050SOL     OW15046   2.251   7.795  10.060
71050SOL    HW115047   2.169   7.758  10.027
71050SOL    HW215048   2.229   7.885  10.086
71051SOL     OW15049   3.910  12.111   5.900
71051SOL    HW115050   3.839  12.072   5.849
71051SOL    HW215051   3.910  12.204   5.875
71052SOL     OW15052   6.231   4.122   0.491
71052SOL    HW115053   6.185   4.127   0.576
71052SOL    HW215054   6.222   4.031   0.464
71053SOL     OW15055   1.420   1.664   0.130
71053SOL    HW115056   1.468   1.615   0.063
71053SOL    HW215057   1.424   1.609   0.208
71054SOL     OW15058   5.389   2.365  14.295
71054SOL    HW115059   5.415   2.331  14.381
71054SOL    HW215060   5.323   2.432  14.314
71055SOL     OW15061   4.771   2.715   3.173
71055SOL    HW115062   4.715   2.757   3.109
71055SOL    HW215063   4.769   2.774   3.249
71056SOL     OW15064  13.285   4.514   4.395
71056SOL    HW115065  13.285   4.442   4.333
71056SOL    HW215066  13.297   4.472   4.481
71057SOL     OW15067  14.299   7.844   6.516
71057SOL    HW115068  14.218   7.798   6.493
71057SOL    HW215069  14.368   7.798   6.467
71058SOL     OW15070   2.488   6.807   6.451
71058SOL    HW115071   2.531   6.730   6.414
71058SOL    HW215072   2.452   6.777   6.534
71059SOL     OW15073   5.731   7.720   4.466
71059SOL    HW115074   5.814   7.766   4.484
71059SOL    HW215075   5.751   7.664   4.392
71060SOL     OW15076  12.743   8.380   5.579
71060SOL    HW115077  12.782   8.404   5.495
71060SOL    HW215078  12.735   8.463   5.626
71061SOL     OW15079  14.391   0.753  11.139
71061SOL    HW115080  14.417   0.752  11.047
71061SOL    HW215081  14.435   0.677  11.177
71062SOL     OW15082  13.174   1.376  11.915
71062SOL    HW115083  13.155   1.283  11.931
71062SOL    HW215084  13.260   1.376  11.873
71063SOL     OW15085  14.660  12.380   4.433
71063SOL    HW115086  14.626  12.423   4.511
71063SOL    HW215087  14.599  12.405   4.363
71064SOL     OW15088  14.183  13.878   7.414
71064SOL    HW115089  14.180  13.802   7.356
71064SOL    HW215090  14.187  13.953   7.354
71065SOL     OW15091   1.651   5.513   2.004
71065SOL    HW115092   1.614   5.464   2.077
71065SOL    HW215093   1.673   5.447   1.939
71066SOL     OW15094   4.951   7.091  13.048
71066SOL    HW115095   4.956   7.092  12.952
71066SOL    HW215096   4.857   7.099  13.067
71067SOL     OW15097   9.127   7.322  10.660
71067SOL    HW115098   9.185   7.252  10.691
71067SOL    HW215099   9.186   7.393  10.636
71068SOL     OW15100   0.337   8.006   6.278
71068SOL    HW115101   0.399   8.063   6.324
71068SOL    HW215102   0.257   8.010   6.331
71069SOL     OW15103  12.961  12.553  12.358
71069SOL    HW115104  12.887  12.600  12.320
71069SOL    HW215105  13.002  12.616  12.416
71070SOL     OW15106   1.910  12.095   9.842
71070SOL    HW115107   1.936  12.012   9.881
71070SOL    HW215108   1.992  12.135   9.813
71071SOL     OW15109   3.867   1.548  14.757
71071SOL    HW115110   3.951   1.537  14.714
71071SOL    HW215111   3.804   1.505  14.699
71072SOL     OW15112  13.405   2.829  11.498
71072SOL    HW115113  13.443   2.873  11.574
71072SOL    HW215114  13.311   2.850  11.502
71073SOL     OW15115   5.415  10.912   4.550
71073SOL    HW115116   5.488  10.853   4.570
71073SOL    HW215117   5.355  10.860   4.497
71074SOL     OW15118  12.837   6.591   9.051
71074SOL    HW115119  12.817   6.543   8.971
71074SOL    HW215120  12.786   6.672   9.043
71075SOL     OW15121  12.428   7.943  10.928
71075SOL    HW115122  12.414   7.862  10.977
71075SOL    HW215123  12.515   7.934  10.890
71076SOL     OW15124  14.613   1.340   3.620
71076SOL    HW115125  14.653   1.368   3.702
71076SOL    HW215126  14.687   1.318   3.563
71077SOL     OW15127   8.846  14.729   6.084
71077SOL    HW115128   8.874  14.639   6.098
71077SOL    HW215129   8.772  14.723   6.024
71078SOL     OW15130   1.391   9.473  13.127
71078SOL    HW115131   1.450   9.489  13.201
71078SOL    HW215132   1.377   9.379  13.127
71079SOL     OW15133  10.578   7.733   5.202
71079SOL    HW115134  10.622   7.720   5.286
71079SOL    HW215135  10.556   7.645   5.173
71080SOL     OW15136   1.891  11.873   3.760
71080SOL    HW115137   1.920  11.905   3.846
71080SOL    HW215138   1.964  11.819   3.729
71081SOL     OW15139   9.626   9.555  11.379
71081SOL    HW115140   9.699   9.495  11.390
71081SOL    HW215141   9.558   9.504  11.335
71082SOL     OW15142  13.523  14.356   0.123
71082SOL    HW115143  13.500  14.286   0.062
71082SOL    HW215144  13.460  14.347   0.195
71083SOL     OW15145  13.031  10.101   2.791
71083SOL    HW115146  13.068  10.034   2.734
71083SOL    HW215147  12.948  10.125   2.749
71084SOL     OW15148   5.768  11.801  13.673
71084SOL    HW115149   5.842  11.782  13.615
71084SOL    HW215150   5.803  11.863  13.737
71085SOL     OW15151  10.486  13.415   3.231
71085SOL    HW115152  10.559  13.450   3.283
71085SOL    HW215153  10.516  13.422   3.140
71086SOL     OW15154   6.389   4.979   6.957
71086SOL    HW115155   6.386   5.062   6.911
71086SOL    HW215156   6.335   4.993   7.035
71087SOL     OW15157   9.857   4.821   3.776
71087SOL    HW115158   9.779   4.800   3.724
71087SOL    HW215159   9.920   4.855   3.712
71088SOL     OW15160  11.519   5.878   1.258
71088SOL    HW115161  11.585   5.871   1.190
71088SOL    HW215162  11.453   5.812   1.235
71089SOL     OW15163   2.103   6.625   9.368
71089SOL    HW115164   2.038   6.694   9.381
71089SOL    HW215165   2.140   6.609   9.455
71090SOL     OW15166   7.347  12.172  13.897
71090SOL    HW115167   7.358  12.101  13.834
71090SOL    HW215168   7.417  12.158  13.961
71091SOL     OW15169   0.049   1.306  14.069
71091SOL    HW115170   0.111   1.321  14.141
71091SOL    HW215171  14.872   1.383  14.070
71092SOL     OW15172   8.173  10.097   5.788
71092SOL    HW115173   8.097  10.074   5.841
71092SOL    HW215174   8.136  10.120   5.702
71093SOL     OW15175   1.065   9.544   6.237
71093SOL    HW115176   1.090   9.471   6.180
71093SOL    HW215177   1.026   9.609   6.179
71094SOL     OW15178   8.571   6.878  11.470
71094SOL    HW115179   8.484   6.860  11.432
71094SOL    HW215180   8.570   6.835  11.555
71095SOL     OW15181  12.576   9.386  13.516
71095SOL    HW115182  12.586   9.400  13.611
71095SOL    HW215183  12.556   9.472  13.481
71096SOL     OW15184  14.521   0.049   9.424
71096SOL    HW115185  14.532   0.086   9.511
71096SOL    HW215186  14.610   0.046   9.388
71097SOL     OW15187  14.042  14.529   7.567
71097SOL    HW115188  14.127  14.486   7.579
71097SOL    HW215189  14.059  14.601   7.506
71098SOL     OW15190   2.243   9.231   5.852
71098SOL    HW115191   2.235   9.183   5.935
71098SOL    HW215192   2.163   9.283   5.847
71099SOL     OW15193   1.234   0.154  12.632
71099SOL    HW115194   1.282   0.237  12.623
71099SOL    HW215195   1.202   0.135  12.544
71100SOL     OW15196   4.949   1.391  13.233
71100SOL    HW115197   5.018   1.353  13.179
71100SOL    HW215198   4.995   1.424  13.310
71101SOL     OW15199  12.944   9.140   5.106
71101SOL    HW115200  12.871   9.142   5.168
71101SOL    HW215201  13.023   9.145   5.161
71102SOL     OW15202   3.120   1.102   1.986
71102SOL    HW115203   3.212   1.077   1.991
71102SOL    HW215204   3.103   1.146   2.069
71103SOL     OW15205   4.989   4.743   3.568
71103SOL    HW115206   4.966   4.681   3.498
71103SOL    HW215207   4.981   4.829   3.526
71104SOL     OW15208  13.128  10.151  11.967
71104SOL    HW115209  13.113  10.110  11.882
71104SOL    HW215210  13.057  10.117  12.023
71105SOL     OW15211   5.584  11.182   2.339
71105SOL    HW115212   5.589  11.124   2.415
71105SOL    HW215213   5.490  11.198   2.326
71106SOL     OW15214   9.055   8.772   2.794
71106SOL    HW115215   9.110   8.786   2.718
71106SOL    HW215216   8.989   8.708   2.766
71107SOL     OW15217   0.070  14.004   5.490
71107SOL    HW115218   0.077  13.956   5.408
71107SOL    HW215219   0.007  13.955   5.542
71108SOL     OW15220   6.053   6.073  10.667
71108SOL    HW115221   6.140   6.072  10.707
71108SOL    HW215222   6.005   6.004  10.712
71109SOL     OW15223   9.410   0.295  10.133
71109SOL    HW115224   9.393   0.202  10.122
71109SOL    HW215225   9.503   0.300  10.156
71110SOL     OW15226   2.820  10.785   3.547
71110SOL    HW115227   2.746  10.741   3.588
71110SOL    HW215228   2.811  10.768   3.454
71111SOL     OW15229   2.783   7.461   5.228
71111SOL    HW115230   2.733   7.504   5.297
71111SOL    HW215231   2.723   7.395   5.192
71112SOL     OW15232   3.491   1.312  13.597
71112SOL    HW115233   3.510   1.271  13.512
71112SOL    HW215234   3.516   1.246  13.661
71113SOL     OW15235   1.798   9.002   2.578
71113SOL    HW115236   1.863   8.948   2.534
71113SOL    HW215237   1.736   9.025   2.509
71114SOL     OW15238   2.526   1.406  10.133
71114SOL    HW115239   2.444   1.441  10.098
71114SOL    HW215240   2.510   1.396  10.227
71115SOL     OW15241   2.144   3.315   4.726
71115SOL    HW115242   2.177   3.395   4.767
71115SOL    HW215243   2.127   3.256   4.800
71116SOL     OW15244   6.341   8.726  11.700
71116SOL    HW115245   6.323   8.819  11.715
71116SOL    HW215246   6.436   8.719  11.703
71117SOL     OW15247   5.584   1.977  14.274
71117SOL    HW115248   5.548   2.029  14.202
71117SOL    HW215249   5.660   2.027  14.305
71118SOL     OW15250  14.485   8.346   7.673
71118SOL    HW115251  14.444   8.412   7.729
71118SOL    HW215252  14.451   8.364   7.586
71119SOL     OW15253  11.558  14.287   5.505
71119SOL    HW115254  11.636  14.243   5.472
71119SOL    HW215255  11.547  14.253   5.594
71120SOL     OW15256   1.243   3.014   2.897
71120SOL    HW115257   1.171   3.075   2.915
71120SOL    HW215258   1.316   3.046   2.951
71121SOL     OW15259  13.638   1.675   8.089
71121SOL    HW115260  13.685   1.659   8.171
71121SOL    HW215261  13.546   1.676   8.114
71122SOL     OW15262   2.633  10.246   9.626
71122SOL    HW115263   2.671  10.254   9.539
71122SOL    HW215264   2.548  10.289   9.620
71123SOL     OW15265   4.276   8.987  14.837
71123SOL    HW115266   4.317   9.070  14.862
71123SOL    HW215267   4.339   8.946  14.779
71124SOL     OW15268   3.520  10.659   0.489
71124SOL    HW115269   3.494  10.646   0.398
71124SOL    HW215270   3.487  10.581   0.535
71125SOL     OW15271   2.235   3.840  10.434
71125SOL    HW115272   2.309   3.887  10.472
71125SOL    HW215273   2.163   3.903  10.434
71126SOL     OW15274   0.963   3.983   6.736
71126SOL    HW115275   0.945   3.916   6.801
71126SOL    HW215276   1.058   3.995   6.739
71127SOL     OW15277   6.976   8.429   5.588
71127SOL    HW115278   7.065   8.426   5.623
71127SOL    HW215279   6.977   8.368   5.515
71128SOL     OW15280   4.408   7.530   3.083
71128SOL    HW115281   4.380   7.472   3.154
71128SOL    HW215282   4.482   7.484   3.043
71129SOL     OW15283   2.483  13.227   1.363
71129SOL    HW115284   2.394  13.209   1.333
71129SOL    HW215285   2.514  13.298   1.305
71130SOL     OW15286   6.437   3.606  13.953
71130SOL    HW115287   6.431   3.527  13.900
71130SOL    HW215288   6.518   3.648  13.924
71131SOL     OW15289  10.546   8.190   6.369
71131SOL    HW115290  10.545   8.135   6.448
71131SOL    HW215291  10.626   8.241   6.377
71132SOL     OW15292   5.601   0.343   8.788
71132SOL    HW115293   5.578   0.385   8.705
71132SOL    HW215294   5.605   0.250   8.766
71133SOL     OW15295   4.897   4.175  13.858
71133SOL    HW115296   4.958   4.107  13.830
71133SOL    HW215297   4.926   4.254  13.812
71134SOL     OW15298   2.720  11.425   4.483
71134SOL    HW115299   2.634  11.448   4.448
71134SOL    HW215300   2.729  11.479   4.561
71135SOL     OW15301   0.832   1.454   2.525
71135SOL    HW115302   0.923   1.442   2.553
71135SOL    HW215303   0.786   1.376   2.557
71136SOL     OW15304   0.831  13.052   8.382
71136SOL    HW115305   0.791  13.036   8.296
71136SOL    HW215306   0.800  12.980   8.437
71137SOL     OW15307   8.465  12.870   7.473
71137SOL    HW115308   8.482  12.961   7.450
71137SOL    HW215309   8.543  12.843   7.522
71138SOL     OW15310   9.184  14.457  12.698
71138SOL    HW115311   9.178  14.429  12.606
71138SOL    HW215312   9.228  14.384  12.742
71139SOL     OW15313   5.000   0.793   9.340
71139SOL    HW115314   4.910   0.824   9.339
71139SOL    HW215315   5.026   0.797   9.432
71140SOL     OW15316  13.599   2.642   4.953
71140SOL    HW115317  13.602   2.557   4.911
71140SOL    HW215318  13.507   2.653   4.979
71141SOL     OW15319  13.797   3.725   7.159
71141SOL    HW115320  13.877   3.673   7.168
71141SOL    HW215321  13.728   3.671   7.197
71142SOL     OW15322   7.286   1.525  13.447
71142SOL    HW115323   7.323   1.460  13.506
71142SOL    HW215324   7.288   1.482  13.361
71143SOL     OW15325  11.085   1.304  11.409
71143SOL    HW115326  11.058   1.279  11.498
71143SOL    HW215327  11.002   1.321  11.364
71144SOL     OW15328   9.570   9.815   0.089
71144SOL    HW115329   9.561   9.829   0.183
71144SOL    HW215330   9.635   9.880   0.062
71145SOL     OW15331   7.897   4.353   4.518
71145SOL    HW115332   7.889   4.281   4.456
71145SOL    HW215333   7.926   4.311   4.599
71146SOL     OW15334   6.806   0.811  11.638
71146SOL    HW115335   6.782   0.727  11.678
71146SOL    HW215336   6.892   0.795  11.597
71147SOL     OW15337   8.432  11.969  12.205
71147SOL    HW115338   8.498  11.953  12.137
71147SOL    HW215339   8.377  12.039  12.169
71148SOL     OW15340   5.629   3.669  14.642
71148SOL    HW115341   5.535   3.667  14.625
71148SOL    HW215342   5.662   3.591  14.596
71149SOL     OW15343   3.209   1.599   1.763
71149SOL    HW115344   3.287   1.654   1.754
71149SOL    HW215345   3.243   1.510   1.760
71150SOL     OW15346   0.023  13.584  14.324
71150SOL    HW115347   0.053  13.653  14.264
71150SOL    HW215348   0.102  13.532  14.342
71151SOL     OW15349   9.097  12.327  13.934
71151SOL    HW115350   9.097  12.237  13.967
71151SOL    HW215351   9.127  12.319  13.843
71152SOL     OW15352  12.280  14.357  12.725
71152SOL    HW115353  12.260  14.414  12.799
71152SOL    HW215354  12.375  14.365  12.713
71153SOL     OW15355   4.330   7.766   9.025
71153SOL    HW115356   4.330   7.673   9.004
71153SOL    HW215357   4.423   7.790   9.027
71154SOL     OW15358   6.786  14.037   8.399
71154SOL    HW115359   6.705  14.059   8.446
71154SOL    HW215360   6.841  14.114   8.409
71155SOL     OW15361  11.408  12.754  10.759
71155SOL    HW115362  11.383  12.845  10.740
71155SOL    HW215363  11.492  12.761  10.804
71156SOL     OW15364   4.129  11.097   6.125
71156SOL    HW115365   4.138  11.003   6.110
71156SOL    HW215366   4.096  11.131   6.042
71157SOL     OW15367  14.437  11.469  13.128
71157SOL    HW115368  14.481  11.387  13.152
71157SOL    HW215369  14.354  11.466  13.177
71158SOL     OW15370  14.079   1.842   7.673
71158SOL    HW115371  14.116   1.854   7.586
71158SOL    HW215372  14.031   1.923   7.690
71159SOL     OW15373  14.520   9.970   4.223
71159SOL    HW115374  14.559   9.941   4.305
71159SOL    HW215375  14.566  10.051   4.202
71160SOL     OW15376   1.872   4.593   3.716
71160SOL    HW115377   1.854   4.679   3.755
71160SOL    HW215378   1.789   4.566   3.678
71161SOL     OW15379   7.644   3.299  13.089
71161SOL    HW115380   7.655   3.362  13.017
71161SOL    HW215381   7.651   3.213  13.048
71162SOL     OW15382   7.407   4.208   2.633
71162SOL    HW115383   7.395   4.151   2.709
71162SOL    HW215384   7.319   4.222   2.599
71163SOL     OW15385  11.502   1.516  14.204
71163SOL    HW115386  11.591   1.522  14.239
71163SOL    HW215387  11.509   1.551  14.115
71164SOL     OW15388  11.142  12.763   5.458
71164SOL    HW115389  11.176  12.837   5.509
71164SOL    HW215390  11.047  12.772   5.464
71165SOL     OW15391   8.266  12.054   5.672
71165SOL    HW115392   8.303  12.135   5.637
71165SOL    HW215393   8.191  12.035   5.614
71166SOL     OW15394   3.374  14.659  12.520
71166SOL    HW115395   3.351  14.750  12.505
71166SOL    HW215396   3.291  14.611  12.517
71167SOL     OW15397  10.010  10.387   6.829
71167SOL    HW115398  10.093  10.357   6.868
71167SOL    HW215399   9.951  10.312   6.838
71168SOL     OW15400   2.767   6.014   9.355
71168SOL    HW115401   2.721   5.957   9.294
71168SOL    HW215402   2.745   5.979   9.442
71169SOL     OW15403   0.873   8.580  12.544
71169SOL    HW115404   0.846   8.634  12.619
71169SOL    HW215405   0.866   8.490  12.575
71170SOL     OW15406   6.708   6.727   0.163
71170SOL    HW115407   6.619   6.760   0.172
71170SOL    HW215408   6.722   6.720   0.069
71171SOL     OW15409   5.061   0.520   2.898
71171SOL    HW115410   5.081   0.544   2.988
71171SOL    HW215411   5.147   0.510   2.856
71172SOL     OW15412   6.435  12.671  14.259
71172SOL    HW115413   6.391  12.745  14.217
71172SOL    HW215414   6.491  12.634  14.190
71173SOL     OW15415   8.073   2.436   5.245
71173SOL    HW115416   8.023   2.395   5.175
71173SOL    HW215417   8.157   2.390   5.245
71174SOL     OW15418  11.751   5.336   5.621
71174SOL    HW115419  11.825   5.344   5.560
71174SOL    HW215420  11.701   5.261   5.588
71175SOL     OW15421   7.545   2.246   8.909
71175SOL    HW115422   7.636   2.262   8.936
71175SOL    HW215423   7.550   2.164   8.860
71176SOL     OW15424   8.690   3.527   8.806
71176SOL    HW115425   8.608   3.562   8.771
71176SOL    HW215426   8.747   3.521   8.729
71177SOL     OW15427   8.349   7.785   7.162
71177SOL    HW115428   8.429   7.808   7.209
71177SOL    HW215429   8.378   7.725   7.093
71178SOL     OW15430   2.084   7.902   1.403
71178SOL    HW115431   1.992   7.898   1.427
71178SOL    HW215432   2.087   7.873   1.312
71179SOL     OW15433   1.135  11.685   2.199
71179SOL    HW115434   1.180  11.757   2.155
71179SOL    HW215435   1.111  11.625   2.128
71180SOL     OW15436   1.764  11.230  12.737
71180SOL    HW115437   1.807  11.167  12.795
71180SOL    HW215438   1.835  11.286  12.705
71181SOL     OW15439  12.219   1.482  14.509
71181SOL    HW115440  12.139   1.461  14.558
71181SOL    HW215441  12.224   1.577  14.511
71182SOL     OW15442   8.245   3.516   8.338
71182SOL    HW115443   8.322   3.521   8.282
71182SOL    HW215444   8.254   3.590   8.398
71183SOL     OW15445   4.472   1.072  13.518
71183SOL    HW115446   4.551   1.085  13.571
71183SOL    HW215447   4.404   1.122  13.563
71184SOL     OW15448   7.317  13.957   4.130
71184SOL    HW115449   7.410  13.939   4.117
71184SOL    HW215450   7.280  13.872   4.155
71185SOL     OW15451   7.710  12.468   8.576
71185SOL    HW115452   7.656  12.478   8.498
71185SOL    HW215453   7.697  12.549   8.625
71186SOL     OW15454   4.265   8.245  13.345
71186SOL    HW115455   4.351   8.271  13.313
71186SOL    HW215456   4.239   8.316  13.405
71187SOL     OW15457   5.413  14.617   7.313
71187SOL    HW115458   5.502  14.637   7.286
71187SOL    HW215459   5.358  14.655   7.244
71188SOL     OW15460  11.238  14.257   9.149
71188SOL    HW115461  11.230  14.162   9.137
71188SOL    HW215462  11.255  14.291   9.061
71189SOL     OW15463  12.566   7.494   6.994
71189SOL    HW115464  12.519   7.526   7.071
71189SOL    HW215465  12.658   7.497   7.020
71190SOL     OW15466   2.838  12.401  12.587
71190SOL    HW115467   2.826  12.421  12.495
71190SOL    HW215468   2.872  12.311  12.588
71191SOL     OW15469  10.959   6.449  12.164
71191SOL    HW115470  10.950   6.354  12.171
71191SOL    HW215471  10.870   6.482  12.172
71192SOL     OW15472   9.904   3.403   4.218
71192SOL    HW115473   9.952   3.451   4.150
71192SOL    HW215474   9.872   3.471   4.278
71193SOL     OW15475   6.112   8.360   3.062
71193SOL    HW115476   6.145   8.400   2.982
71193SOL    HW215477   6.120   8.429   3.128
71194SOL     OW15478  13.544   5.419   6.528
71194SOL    HW115479  13.496   5.382   6.454
71194SOL    HW215480  13.521   5.512   6.527
71195SOL     OW15481   9.666  13.154   8.782
71195SOL    HW115482   9.697  13.127   8.695
71195SOL    HW215483   9.652  13.071   8.829
71196SOL     OW15484   1.877   4.658  14.727
71196SOL    HW115485   1.931   4.736  14.727
71196SOL    HW215486   1.794   4.685  14.767
71197SOL     OW15487   9.286  13.218   4.921
71197SOL    HW115488   9.366  13.261   4.891
71197SOL    HW215489   9.298  13.207   5.015
71198SOL     OW15490   9.177   1.341   7.689
71198SOL    HW115491   9.211   1.338   7.599
71198SOL    HW215492   9.254   1.327   7.744
71199SOL     OW15493  10.282  13.790  11.124
71199SOL    HW115494  10.276  13.857  11.192
71199SOL    HW215495  10.375  13.771  11.117
71200SOL     OW15496   5.831   6.578   1.058
71200SOL    HW115497   5.870   6.544   1.138
71200SOL    HW215498   5.737   6.565   1.071
71201SOL     OW15499   8.832  14.498   2.000
71201SOL    HW115500   8.910  14.461   2.041
71201SOL    HW215501   8.856  14.589   1.981
71202SOL     OW15502   4.926   6.482   7.566
71202SOL    HW115503   4.992   6.551   7.560
71202SOL    HW215504   4.918   6.449   7.476
71203SOL     OW15505   4.150   2.876   1.190
71203SOL    HW115506   4.105   2.823   1.125
71203SOL    HW215507   4.135   2.966   1.163
71204SOL     OW15508   7.042   1.847   5.669
71204SOL    HW115509   6.955   1.882   5.650
71204SOL    HW215510   7.090   1.858   5.586
71205SOL     OW15511   6.588   6.324   5.294
71205SOL    HW115512   6.514   6.301   5.236
71205SOL    HW215513   6.665   6.313   5.239
71206SOL     OW15514   4.605   4.616  14.805
71206SOL    HW115515   4.639   4.527  14.800
71206SOL    HW215516   4.588   4.631   0.018
71207SOL     OW15517   5.448  11.558  10.801
71207SOL    HW115518   5.519  11.557  10.864
71207SOL    HW215519   5.473  11.493  10.735
71208SOL     OW15520  12.903   9.348  13.230
71208SOL    HW115521  12.994   9.329  13.255
71208SOL    HW215522  12.851   9.311  13.300
71209SOL     OW15523  14.436   5.836  14.343
71209SOL    HW115524  14.367   5.793  14.394
71209SOL    HW215525  14.396   5.916  14.310
71210SOL     OW15526   0.530   2.998   1.077
71210SOL    HW115527   0.470   3.047   1.133
71210SOL    HW215528   0.572   3.063   1.022
71211SOL     OW15529   9.569   3.515  10.512
71211SOL    HW115530   9.518   3.583  10.468
71211SOL    HW215531   9.659   3.549  10.512
71212SOL     OW15532   2.447   7.973   2.042
71212SOL    HW115533   2.424   8.044   1.982
71212SOL    HW215534   2.459   8.017   2.127
71213SOL     OW15535  10.812  11.533   2.457
71213SOL    HW115536  10.800  11.577   2.373
71213SOL    HW215537  10.762  11.587   2.520
71214SOL     OW15538   6.840   2.584  12.785
71214SOL    HW115539   6.927   2.573  12.824
71214SOL    HW215540   6.828   2.678  12.779
71215SOL     OW15541  13.811   1.118   8.449
71215SOL    HW115542  13.900   1.149   8.432
71215SOL    HW215543  13.766   1.126   8.365
71216SOL     OW15544   6.949  13.557   4.704
71216SOL    HW115545   7.007  13.609   4.649
71216SOL    HW215546   6.932  13.613   4.780
71217SOL     OW15547  13.893  13.627   2.687
71217SOL    HW115548  13.799  13.611   2.697
71217SOL    HW215549  13.903  13.721   2.704
71218SOL     OW15550  10.640  12.023   4.879
71218SOL    HW115551  10.584  12.018   4.802
71218SOL    HW215552  10.707  11.956   4.865
71219SOL     OW15553   8.767   6.871  12.091
71219SOL    HW115554   8.817   6.884  12.011
71219SOL    HW215555   8.829   6.890  12.162
71220SOL     OW15556   5.660  13.407   7.862
71220SOL    HW115557   5.578  13.381   7.902
71220SOL    HW215558   5.638  13.424   7.770
71221SOL     OW15559   8.502   5.204   2.733
71221SOL    HW115560   8.564   5.273   2.759
71221SOL    HW215561   8.521   5.189   2.640
71222SOL     OW15562   8.563   5.135  10.600
71222SOL    HW115563   8.631   5.202  10.600
71222SOL    HW215564   8.572   5.092  10.515
71223SOL     OW15565   7.084   2.124  10.127
71223SOL    HW115566   7.159   2.179  10.151
71223SOL    HW215567   7.091   2.114  10.032
71224SOL     OW15568   1.898  11.560  13.439
71224SOL    HW115569   1.858  11.481  13.401
71224SOL    HW215570   1.826  11.623  13.445
71225SOL     OW15571   3.265   9.963   0.439
71225SOL    HW115572   3.199   9.894   0.440
71225SOL    HW215573   3.298   9.965   0.529
71226SOL     OW15574   5.572  12.643   1.215
71226SOL    HW115575   5.653  12.636   1.265
71226SOL    HW215576   5.575  12.569   1.154
71227SOL     OW15577   1.245   7.140  13.830
71227SOL    HW115578   1.183   7.212  13.838
71227SOL    HW215579   1.331   7.182  13.823
71228SOL     OW15580   2.387   2.791   2.722
71228SOL    HW115581   2.363   2.884   2.723
71228SOL    HW215582   2.456   2.783   2.788
71229SOL     OW15583   0.295  14.588   4.588
71229SOL    HW115584   0.299  14.665   4.531
71229SOL    HW215585   0.387  14.562   4.600
71230SOL     OW15586  10.719   6.552   1.671
71230SOL    HW115587  10.744   6.636   1.632
71230SOL    HW215588  10.770   6.487   1.622
71231SOL     OW15589  13.188   7.332   0.835
71231SOL    HW115590  13.131   7.405   0.810
71231SOL    HW215591  13.269   7.347   0.788
71232SOL     OW15592   3.141  11.820   6.267
71232SOL    HW115593   3.187  11.739   6.289
71232SOL    HW215594   3.201  11.868   6.209
71233SOL     OW15595   3.988   0.886   0.209
71233SOL    HW115596   3.919   0.861   0.147
71233SOL    HW215597   4.070   0.862   0.165
71234SOL     OW15598   0.598   8.168   0.775
71234SOL    HW115599   0.522   8.119   0.807
71234SOL    HW215600   0.573   8.260   0.785
71235SOL     OW15601  10.954   3.896  10.675
71235SOL    HW115602  10.981   3.988  10.674
71235SOL    HW215603  10.877   3.894  10.731
71236SOL     OW15604   0.134   0.698  11.418
71236SOL    HW115605   0.137   0.667  11.508
71236SOL    HW215606   0.115   0.619  11.367
71237SOL     OW15607   1.845  13.930   2.267
71237SOL    HW115608   1.812  13.845   2.239
71237SOL    HW215609   1.807  13.944   2.353
71238SOL     OW15610   4.843   0.053  10.455
71238SOL    HW115611   4.854  14.837  10.458
71238SOL    HW215612   4.897   0.085  10.526
71239SOL     OW15613  13.172  13.458  10.835
71239SOL    HW115614  13.197  13.544  10.868
71239SOL    HW215615  13.079  13.449  10.858
71240SOL     OW15616  13.733   2.577   2.012
71240SOL    HW115617  13.714   2.670   2.022
71240SOL    HW215618  13.678   2.535   2.078
71241SOL     OW15619  13.736   7.292  12.352
71241SOL    HW115620  13.688   7.355  12.405
71241SOL    HW215621  13.700   7.207  12.377
71242SOL     OW15622  11.461   9.230   2.677
71242SOL    HW115623  11.403   9.164   2.715
71242SOL    HW215624  11.436   9.311   2.720
71243SOL     OW15625  14.596  10.153  12.104
71243SOL    HW115626  14.554  10.203  12.034
71243SOL    HW215627  14.583  10.206  12.183
71244SOL     OW15628   1.159  10.450  11.560
71244SOL    HW115629   1.238  10.481  11.515
71244SOL    HW215630   1.087  10.500  11.520
71245SOL     OW15631   9.608   2.532   9.933
71245SOL    HW115632   9.637   2.572   9.851
71245SOL    HW215633   9.545   2.595   9.969
71246SOL     OW15634   7.692   4.287   8.579
71246SOL    HW115635   7.657   4.243   8.502
71246SOL    HW215636   7.782   4.309   8.555
71247SOL     OW15637   1.741   0.062  12.043
71247SOL    HW115638   1.753  14.847  12.040
71247SOL    HW215639   1.703   0.080  12.129
71248SOL     OW15640   6.057   2.732   5.863
71248SOL    HW115641   6.040   2.682   5.943
71248SOL    HW215642   6.092   2.667   5.802
71249SOL     OW15643   1.471   7.127  13.066
71249SOL    HW115644   1.442   7.214  13.095
71249SOL    HW215645   1.544   7.145  13.006
71250SOL     OW15646   7.856  13.412   9.869
71250SOL    HW115647   7.906  13.449   9.796
71250SOL    HW215648   7.850  13.318   9.848
71251SOL     OW15649   4.361  12.656   7.268
71251SOL    HW115650   4.285  12.711   7.284
71251SOL    HW215651   4.399  12.691   7.187
71252SOL     OW15652   1.928   8.691   0.098
71252SOL    HW115653   1.863   8.667   0.032
71252SOL    HW215654   1.998   8.734   0.049
71253SOL     OW15655   2.945   2.956   5.475
71253SOL    HW115656   3.026   3.001   5.501
71253SOL    HW215657   2.958   2.938   5.382
71254SOL     OW15658   8.200   2.780  13.967
71254SOL    HW115659   8.199   2.837  13.890
71254SOL    HW215660   8.197   2.692  13.931
71255SOL     OW15661   3.641   8.523   4.144
71255SOL    HW115662   3.694   8.444   4.141
71255SOL    HW215663   3.617   8.539   4.053
71256SOL     OW15664  10.345   9.221   7.216
71256SOL    HW115665  10.426   9.190   7.175
71256SOL    HW215666  10.285   9.236   7.144
71257SOL     OW15667   9.496  12.630  10.189
71257SOL    HW115668   9.409  12.645  10.226
71257SOL    HW215669   9.486  12.549  10.139
71258SOL     OW15670   4.239   0.594   9.165
71258SOL    HW115671   4.179   0.659   9.129
71258SOL    HW215672   4.320   0.643   9.182
71259SOL     OW15673  13.502   8.863   6.291
71259SOL    HW115674  13.570   8.816   6.339
71259SOL    HW215675  13.514   8.837   6.200
71260SOL     OW15676   9.254   1.692   3.372
71260SOL    HW115677   9.161   1.715   3.368
71260SOL    HW215678   9.299   1.775   3.386
71261SOL     OW15679   6.307   0.796  13.704
71261SOL    HW115680   6.305   0.827  13.794
71261SOL    HW215681   6.388   0.833  13.668
71262SOL     OW15682  12.198  11.594   8.009
71262SOL    HW115683  12.163  11.526   8.066
71262SOL    HW215684  12.199  11.673   8.064
71263SOL     OW15685   7.498   3.848  10.032
71263SOL    HW115686   7.485   3.938  10.063
71263SOL    HW215687   7.485   3.853   9.937
71264SOL     OW15688   6.534   8.135  12.079
71264SOL    HW115689   6.528   8.087  11.997
71264SOL    HW215690   6.463   8.101  12.133
71265SOL     OW15691  13.386   4.350   8.909
71265SOL    HW115692  13.340   4.284   8.857
71265SOL    HW215693  13.443   4.395   8.846
71266SOL     OW15694   8.203   5.497   3.583
71266SOL    HW115695   8.173   5.500   3.492
71266SOL    HW215696   8.198   5.587   3.613
71267SOL     OW15697   8.701  12.131   7.297
71267SOL    HW115698   8.659  12.125   7.211
71267SOL    HW215699   8.758  12.207   7.292
71268SOL     OW15700   3.015   2.389   9.798
71268SOL    HW115701   3.023   2.477   9.833
71268SOL    HW215702   3.087   2.340   9.837
71269SOL     OW15703   1.123  10.492   0.033
71269SOL    HW115704   1.038  10.487  14.868
71269SOL    HW215705   1.149  10.400   0.044
71270SOL     OW15706   3.807  12.692   6.457
71270SOL    HW115707   3.741  12.626   6.478
71270SOL    HW215708   3.760  12.775   6.455
71271SOL     OW15709   1.502  11.862   0.028
71271SOL    HW115710   1.548  11.912  14.840
71271SOL    HW215711   1.570  11.842   0.093
71272SOL     OW15712   0.761   5.409  14.648
71272SOL    HW115713   0.701   5.474  14.686
71272SOL    HW215714   0.753   5.333  14.706
71273SOL     OW15715  13.334   6.587   3.363
71273SOL    HW115716  13.346   6.603   3.456
71273SOL    HW215717  13.397   6.646   3.321
71274SOL     OW15718  10.786   1.615  12.345
71274SOL    HW115719  10.857   1.565  12.305
71274SOL    HW215720  10.753   1.669  12.273
71275SOL     OW15721   7.306   4.318   9.318
71275SOL    HW115722   7.223   4.306   9.364
71275SOL    HW215723   7.326   4.232   9.281
71276SOL     OW15724   9.089   6.635  11.936
71276SOL    HW115725   9.126   6.671  12.017
71276SOL    HW215726   9.138   6.554  11.922
71277SOL     OW15727  13.794   9.077   5.230
71277SOL    HW115728  13.872   9.131   5.221
71277SOL    HW215729  13.823   9.002   5.283
71278SOL     OW15730   0.839  14.656  12.132
71278SOL    HW115731   0.875  14.614  12.054
71278SOL    HW215732   0.820  14.583  12.191
71279SOL     OW15733   7.197   9.508  11.306
71279SOL    HW115734   7.277   9.509  11.359
71279SOL    HW215735   7.227   9.515  11.216
71280SOL     OW15736  14.340   8.397   1.907
71280SOL    HW115737  14.413   8.438   1.953
71280SOL    HW215738  14.303   8.335   1.970
71281SOL     OW15739   2.752   5.692  12.940
71281SOL    HW115740   2.810   5.727  12.872
71281SOL    HW215741   2.754   5.757  13.010
71282SOL     OW15742   6.096   8.003   7.297
71282SOL    HW115743   6.186   7.970   7.300
71282SOL    HW215744   6.104   8.097   7.309
71283SOL     OW15745   0.610  10.248  10.642
71283SOL    HW115746   0.541  10.227  10.706
71283SOL    HW215747   0.579  10.328  10.600
71284SOL     OW15748  12.179  11.956   8.756
71284SOL    HW115749  12.129  11.914   8.827
71284SOL    HW215750  12.256  11.993   8.800
71285SOL     OW15751  13.128   9.509   8.526
71285SOL    HW115752  13.211   9.557   8.527
71285SOL    HW215753  13.108   9.498   8.433
71286SOL     OW15754   2.212  12.791   7.885
71286SOL    HW115755   2.121  12.814   7.906
71286SOL    HW215756   2.260  12.873   7.897
71287SOL     OW15757   1.638   3.708   5.357
71287SOL    HW115758   1.591   3.777   5.404
71287SOL    HW215759   1.594   3.702   5.272
71288SOL     OW15760   3.939   9.946   1.773
71288SOL    HW115761   3.927  10.012   1.705
71288SOL    HW215762   3.853   9.939   1.815
71289SOL     OW15763   2.042  10.586   4.357
71289SOL    HW115764   2.110  10.549   4.413
71289SOL    HW215765   2.078  10.670   4.329
71290SOL     OW15766  10.879  10.414   8.772
71290SOL    HW115767  10.885  10.359   8.694
71290SOL    HW215768  10.785  10.423   8.789
71291SOL     OW15769  10.346  11.380   2.566
71291SOL    HW115770  10.387  11.375   2.653
71291SOL    HW215771  10.382  11.305   2.519
71292SOL     OW15772   8.109  12.286   4.527
71292SOL    HW115773   8.204  12.280   4.534
71292SOL    HW215774   8.093  12.371   4.485
71293SOL     OW15775   9.790   2.655   4.816
71293SOL    HW115776   9.752   2.719   4.876
71293SOL    HW215777   9.717   2.623   4.764
71294SOL     OW15778   4.833  10.190   7.368
71294SOL    HW115779   4.865  10.197   7.278
71294SOL    HW215780   4.807  10.279   7.392
71295SOL     OW15781   0.356   6.123   1.336
71295SOL    HW115782   0.287   6.139   1.271
71295SOL    HW215783   0.427   6.082   1.286
71296SOL     OW15784  12.978  10.117   4.165
71296SOL    HW115785  13.014  10.140   4.079
71296SOL    HW215786  12.994  10.194   4.219
71297SOL     OW15787  12.284  10.199   2.903
71297SOL    HW115788  12.357  10.185   2.842
71297SOL    HW215789  12.247  10.111   2.916
71298SOL     OW15790   6.128  12.225  11.600
71298SOL    HW115791   6.201  12.221  11.663
71298SOL    HW215792   6.095  12.315  11.609
71299SOL     OW15793   8.834   9.863   4.163
71299SOL    HW115794   8.757   9.806   4.157
71299SOL    HW215795   8.891   9.833   4.092
71300SOL     OW15796   0.530   6.944   1.408
71300SOL    HW115797   0.452   6.966   1.458
71300SOL    HW215798   0.536   6.849   1.414
71301SOL     OW15799  13.826  11.016  12.593
71301SOL    HW115800  13.779  11.017  12.676
71301SOL    HW215801  13.864  11.103  12.586
71302SOL     OW15802   3.473  11.502   8.541
71302SOL    HW115803   3.520  11.542   8.469
71302SOL    HW215804   3.416  11.437   8.499
71303SOL     OW15805   1.784   2.415   4.803
71303SOL    HW115806   1.800   2.438   4.895
71303SOL    HW215807   1.717   2.478   4.774
71304SOL     OW15808   7.549  10.308   8.089
71304SOL    HW115809   7.501  10.373   8.141
71304SOL    HW215810   7.531  10.332   7.998
71305SOL     OW15811  14.522  13.622   5.859
71305SOL    HW115812  14.465  13.609   5.936
71305SOL    HW215813  14.462  13.646   5.789
71306SOL     OW15814   8.035  10.863   0.814
71306SOL    HW115815   8.019  10.819   0.731
71306SOL    HW215816   7.955  10.914   0.830
71307SOL     OW15817   3.225   5.478   9.584
71307SOL    HW115818   3.230   5.386   9.609
71307SOL    HW215819   3.300   5.492   9.526
71308SOL     OW15820   4.584   7.400   9.698
71308SOL    HW115821   4.571   7.478   9.645
71308SOL    HW215822   4.674   7.407   9.729
71309SOL     OW15823   5.923  11.341   6.346
71309SOL    HW115824   5.900  11.430   6.318
71309SOL    HW215825   6.016  11.346   6.365
71310SOL     OW15826  13.006   3.010   9.236
71310SOL    HW115827  13.061   3.051   9.168
71310SOL    HW215828  12.922   2.996   9.193
71311SOL     OW15829  12.786   4.333  10.472
71311SOL    HW115830  12.778   4.395  10.400
71311SOL    HW215831  12.765   4.248  10.433
71312SOL     OW15832   3.803  11.296  14.159
71312SOL    HW115833   3.742  11.360  14.124
71312SOL    HW215834   3.830  11.331  14.244
71313SOL     OW15835  13.793   2.003  13.554
71313SOL    HW115836  13.848   1.971  13.626
71313SOL    HW215837  13.856   2.034  13.488
71314SOL     OW15838  13.818   3.685  14.785
71314SOL    HW115839  13.804   3.749  14.715
71314SOL    HW215840  13.833   3.602  14.739
71315SOL     OW15841   3.364  14.320  13.376
71315SOL    HW115842   3.310  14.240  13.375
71315SOL    HW215843   3.303  14.389  13.401
71316SOL     OW15844  14.310   9.446  11.317
71316SOL    HW115845  14.323   9.523  11.261
71316SOL    HW215846  14.261   9.384  11.263
71317SOL     OW15847   6.530   1.078   8.066
71317SOL    HW115848   6.470   1.131   8.120
71317SOL    HW215849   6.472   1.021   8.015
71318SOL     OW15850   8.914   2.324   7.382
71318SOL    HW115851   8.976   2.329   7.455
71318SOL    HW215852   8.966   2.290   7.309
71319SOL     OW15853  10.846   6.460   6.087
71319SOL    HW115854  10.772   6.438   6.143
71319SOL    HW215855  10.889   6.376   6.070
71320SOL     OW15856   2.808   4.711   3.189
71320SOL    HW115857   2.736   4.773   3.194
71320SOL    HW215858   2.815   4.689   3.096
71321SOL     OW15859  14.311  12.322   0.253
71321SOL    HW115860  14.331  12.281   0.337
71321SOL    HW215861  14.221  12.353   0.262
71322SOL     OW15862  13.771   1.344  11.215
71322SOL    HW115863  13.704   1.336  11.146
71322SOL    HW215864  13.727   1.317  11.295
71323SOL     OW15865   7.283  11.387   7.087
71323SOL    HW115866   7.253  11.478   7.091
71323SOL    HW215867   7.295  11.362   7.178
71324SOL     OW15868   4.493   3.480   8.297
71324SOL    HW115869   4.398   3.483   8.308
71324SOL    HW215870   4.507   3.413   8.230
71325SOL     OW15871   8.483   0.915   7.780
71325SOL    HW115872   8.508   1.005   7.757
71325SOL    HW215873   8.492   0.912   7.875
71326SOL     OW15874  11.582   2.225   9.846
71326SOL    HW115875  11.552   2.204   9.757
71326SOL    HW215876  11.634   2.149   9.873
71327SOL     OW15877   4.286  11.189   2.246
71327SOL    HW115878   4.275  11.106   2.291
71327SOL    HW215879   4.291  11.166   2.153
71328SOL     OW15880   2.464  12.741   1.002
71328SOL    HW115881   2.397  12.757   1.068
71328SOL    HW215882   2.523  12.817   1.009
71329SOL     OW15883   8.328  14.072   1.958
71329SOL    HW115884   8.331  14.003   1.891
71329SOL    HW215885   8.353  14.028   2.039
71330SOL     OW15886   4.363  10.490   4.452
71330SOL    HW115887   4.426  10.542   4.503
71330SOL    HW215888   4.277  10.522   4.480
71331SOL     OW15889   7.548  14.372   2.717
71331SOL    HW115890   7.519  14.411   2.635
71331SOL    HW215891   7.496  14.416   2.785
71332SOL     OW15892  10.442  11.463   5.684
71332SOL    HW115893  10.404  11.473   5.772
71332SOL    HW215894  10.536  11.453   5.700
71333SOL     OW15895   4.005   3.398  12.451
71333SOL    HW115896   3.962   3.480  12.475
71333SOL    HW215897   4.043   3.416  12.365
71334SOL     OW15898   6.384   6.176   5.139
71334SOL    HW115899   6.435   6.096   5.153
71334SOL    HW215900   6.293   6.145   5.133
71335SOL     OW15901  11.140   6.624  12.053
71335SOL    HW115902  11.164   6.693  12.115
71335SOL    HW215903  11.105   6.554  12.108
71336SOL     OW15904  10.495  11.358  12.769
71336SOL    HW115905  10.504  11.364  12.864
71336SOL    HW215906  10.548  11.430  12.735
71337SOL     OW15907   2.603  11.825  10.035
71337SOL    HW115908   2.534  11.889  10.050
71337SOL    HW215909   2.635  11.844   9.947
71338SOL     OW15910   3.046  14.013   4.143
71338SOL    HW115911   3.076  14.046   4.059
71338SOL    HW215912   3.125  14.012   4.198
71339SOL     OW15913  12.818   3.820  14.508
71339SOL    HW115914  12.733   3.862  14.522
71339SOL    HW215915  12.796   3.733  14.473
71340SOL     OW15916   9.745   8.817   8.334
71340SOL    HW115917   9.792   8.743   8.295
71340SOL    HW215918   9.660   8.781   8.358
71341SOL     OW15919   7.343   0.448  12.774
71341SOL    HW115920   7.306   0.470  12.688
71341SOL    HW215921   7.355   0.354  12.771
71342SOL     OW15922   2.797   9.269   4.089
71342SOL    HW115923   2.767   9.279   4.179
71342SOL    HW215924   2.752   9.338   4.041
71343SOL     OW15925   4.690   8.522   9.600
71343SOL    HW115926   4.638   8.515   9.680
71343SOL    HW215927   4.641   8.582   9.544
71344SOL     OW15928   8.867   4.806  10.478
71344SOL    HW115929   8.790   4.841  10.434
71344SOL    HW215930   8.940   4.856  10.442
71345SOL     OW15931   0.258   6.852   2.090
71345SOL    HW115932   0.195   6.909   2.133
71345SOL    HW215933   0.254   6.770   2.139
71346SOL     OW15934   2.080   8.473   9.649
71346SOL    HW115935   2.057   8.396   9.702
71346SOL    HW215936   2.006   8.532   9.659
71347SOL     OW15937  12.066  11.198  10.437
71347SOL    HW115938  12.110  11.259  10.497
71347SOL    HW215939  12.027  11.132  10.495
71348SOL     OW15940   1.324  10.806  14.580
71348SOL    HW115941   1.299  10.895  14.556
71348SOL    HW215942   1.283  10.790  14.665
71349SOL     OW15943  11.772   0.422  11.657
71349SOL    HW115944  11.749   0.434  11.564
71349SOL    HW215945  11.794   0.510  11.687
71350SOL     OW15946   0.141  11.743   0.372
71350SOL    HW115947   0.237  11.745   0.372
71350SOL    HW215948   0.116  11.824   0.417
71351SOL     OW15949   5.109  12.080   9.655
71351SOL    HW115950   5.194  12.118   9.634
71351SOL    HW215951   5.074  12.138   9.724
71352SOL     OW15952  10.818  12.283   8.331
71352SOL    HW115953  10.868  12.265   8.411
71352SOL    HW215954  10.811  12.378   8.328
71353SOL     OW15955   6.642  12.251  10.139
71353SOL    HW115956   6.645  12.231  10.045
71353SOL    HW215957   6.669  12.170  10.182
71354SOL     OW15958  12.122  11.494  11.343
71354SOL    HW115959  12.128  11.400  11.326
71354SOL    HW215960  12.204  11.516  11.387
71355SOL     OW15961  12.890   5.156   9.853
71355SOL    HW115962  12.891   5.175   9.759
71355SOL    HW215963  12.800   5.131   9.872
71356SOL     OW15964   8.673   0.062   4.211
71356SOL    HW115965   8.600   0.031   4.265
71356SOL    HW215966   8.636   0.131   4.156
71357SOL     OW15967  14.415   0.068   9.746
71357SOL    HW115968  14.448  14.879   9.803
71357SOL    HW215969  14.485   0.133   9.742
71358SOL     OW15970   7.890  10.734   0.242
71358SOL    HW115971   7.956  10.671   0.273
71358SOL    HW215972   7.825  10.737   0.312
71359SOL     OW15973   6.755  10.511   3.483
71359SOL    HW115974   6.811  10.530   3.557
71359SOL    HW215975   6.763  10.416   3.470
71360SOL     OW15976   1.553   1.480  13.005
71360SOL    HW115977   1.541   1.401  13.059
71360SOL    HW215978   1.576   1.446  12.919
71361SOL     OW15979   5.353   2.335   9.241
71361SOL    HW115980   5.267   2.379   9.240
71361SOL    HW215981   5.380   2.334   9.149
71362SOL     OW15982   8.016  13.279  11.806
71362SOL    HW115983   7.991  13.327  11.885
71362SOL    HW215984   8.074  13.210  11.839
71363SOL     OW15985   5.379   3.534  11.487
71363SOL    HW115986   5.442   3.544  11.558
71363SOL    HW215987   5.379   3.619  11.443
71364SOL     OW15988   8.971  12.640   4.727
71364SOL    HW115989   8.914  12.640   4.649
71364SOL    HW215990   8.914  12.671   4.798
71365SOL     OW15991   3.798   9.194  13.817
71365SOL    HW115992   3.718   9.246  13.827
71365SOL    HW215993   3.810   9.186  13.722
71366SOL     OW15994   5.162   6.876   6.441
71366SOL    HW115995   5.139   6.953   6.389
71366SOL    HW215996   5.152   6.904   6.532
71367SOL     OW15997   3.932  11.046   9.498
71367SOL    HW115998   3.916  11.141   9.505
71367SOL    HW215999   3.942  11.031   9.404
71368SOL     OW16000   2.494  11.521   4.108
71368SOL    HW116001   2.568  11.568   4.070
71368SOL    HW216002   2.492  11.438   4.060
71369SOL     OW16003   9.177  14.467   0.379
71369SOL    HW116004   9.083  14.479   0.395
71369SOL    HW216005   9.207  14.413   0.452
71370SOL     OW16006   7.448  11.064   6.426
71370SOL    HW116007   7.482  10.978   6.401
71370SOL    HW216008   7.396  11.047   6.505
71371SOL     OW16009   8.682   6.899  10.370
71371SOL    HW116010   8.680   6.980  10.422
71371SOL    HW216011   8.775   6.878  10.362
71372SOL     OW16012   9.705   0.576   6.685
71372SOL    HW116013   9.669   0.503   6.736
71372SOL    HW216014   9.710   0.542   6.596
71373SOL     OW16015   7.980  11.138   7.830
71373SOL    HW116016   8.058  11.150   7.883
71373SOL    HW216017   8.012  11.137   7.740
71374SOL     OW16018   9.699   7.309   2.063
71374SOL    HW116019   9.607   7.285   2.077
71374SOL    HW216020   9.705   7.398   2.097
71375SOL     OW16021  12.563   9.087   1.502
71375SOL    HW116022  12.540   9.046   1.419
71375SOL    HW216023  12.585   9.178   1.479
71376SOL     OW16024   6.874   6.263   6.022
71376SOL    HW116025   6.811   6.281   6.092
71376SOL    HW216026   6.832   6.195   5.969
71377SOL     OW16027  13.455   6.859   1.480
71377SOL    HW116028  13.523   6.826   1.539
71377SOL    HW216029  13.499   6.869   1.396
71378SOL     OW16030   1.180   6.745   6.822
71378SOL    HW116031   1.176   6.711   6.911
71378SOL    HW216032   1.253   6.807   6.824
71379SOL     OW16033   6.754   6.912   5.689
71379SOL    HW116034   6.743   6.832   5.740
71379SOL    HW216035   6.849   6.916   5.672
71380SOL     OW16036   6.272  13.359   1.733
71380SOL    HW116037   6.361  13.360   1.696
71380SOL    HW216038   6.237  13.274   1.707
71381SOL     OW16039   3.829  14.224   4.066
71381SOL    HW116040   3.915  14.242   4.030
71381SOL    HW216041   3.786  14.309   4.072
71382SOL     OW16042   9.203   2.621   9.070
71382SOL    HW116043   9.117   2.656   9.047
71382SOL    HW216044   9.204   2.533   9.031
71383SOL     OW16045   0.035   2.119   2.124
71383SOL    HW116046   0.124   2.093   2.100
71383SOL    HW216047  14.859   2.059   2.074
71384SOL     OW16048   6.946   7.186   9.253
71384SOL    HW116049   6.959   7.091   9.249
71384SOL    HW216050   6.934   7.204   9.346
71385SOL     OW16051   4.077  10.408   0.665
71385SOL    HW116052   4.139  10.362   0.608
71385SOL    HW216053   3.994  10.406   0.618
71386SOL     OW16054  12.920  13.123   9.938
71386SOL    HW116055  12.868  13.069   9.879
71386SOL    HW216056  12.883  13.106  10.025
71387SOL     OW16057   6.750  11.660   2.037
71387SOL    HW116058   6.833  11.682   1.995
71387SOL    HW216059   6.770  11.584   2.091
71388SOL     OW16060   9.479   5.315   0.974
71388SOL    HW116061   9.467   5.262   1.053
71388SOL    HW216062   9.470   5.406   1.005
71389SOL     OW16063   1.652   0.362   5.496
71389SOL    HW116064   1.690   0.297   5.554
71389SOL    HW216065   1.571   0.390   5.540
71390SOL     OW16066  12.604  11.059   7.708
71390SOL    HW116067  12.648  10.976   7.721
71390SOL    HW216068  12.514  11.035   7.684
71391SOL     OW16069  11.287   6.401   3.871
71391SOL    HW116070  11.329   6.486   3.884
71391SOL    HW216071  11.345   6.339   3.915
71392SOL     OW16072   7.626  14.381   9.745
71392SOL    HW116073   7.594  14.314   9.685
71392SOL    HW216074   7.556  14.446   9.750
71393SOL     OW16075  12.310   9.604   8.577
71393SOL    HW116076  12.343   9.684   8.536
71393SOL    HW216077  12.385   9.544   8.576
71394SOL     OW16078   4.402   6.114   5.703
71394SOL    HW116079   4.408   6.166   5.622
71394SOL    HW216080   4.412   6.023   5.674
71395SOL     OW16081   7.615   6.890   5.098
71395SOL    HW116082   7.658   6.805   5.104
71395SOL    HW216083   7.668   6.948   5.153
71396SOL     OW16084  10.951   6.943  10.103
71396SOL    HW116085  11.029   6.996  10.123
71396SOL    HW216086  10.892   7.004  10.058
71397SOL     OW16087   4.644   5.275  13.710
71397SOL    HW116088   4.596   5.335  13.768
71397SOL    HW216089   4.687   5.332  13.647
71398SOL     OW16090   2.074  13.719  11.035
71398SOL    HW116091   2.064  13.664  11.112
71398SOL    HW216092   2.130  13.668  10.976
71399SOL     OW16093  13.628  12.762  10.627
71399SOL    HW116094  13.569  12.715  10.686
71399SOL    HW216095  13.572  12.825  10.582
71400SOL     OW16096   2.090   4.759   4.630
71400SOL    HW116097   2.043   4.836   4.662
71400SOL    HW216098   2.132   4.722   4.708
71401SOL     OW16099  12.190  11.316   4.779
71401SOL    HW116100  12.163  11.309   4.688
71401SOL    HW216101  12.120  11.273   4.828
71402SOL     OW16102   4.989   0.389  11.509
71402SOL    HW116103   5.057   0.323  11.508
71402SOL    HW216104   4.935   0.368  11.585
71403SOL     OW16105   8.494   1.637   0.586
71403SOL    HW116106   8.448   1.563   0.625
71403SOL    HW216107   8.587   1.612   0.590
71404SOL     OW16108   5.449   4.545   1.874
71404SOL    HW116109   5.499   4.464   1.870
71404SOL    HW216110   5.472   4.591   1.793
71405SOL     OW16111   8.662  12.304  12.432
71405SOL    HW116112   8.619  12.275  12.351
71405SOL    HW216113   8.627  12.392  12.447
71406SOL     OW16114   4.276   4.139   0.896
71406SOL    HW116115   4.292   4.228   0.864
71406SOL    HW216116   4.337   4.084   0.846
71407SOL     OW16117   2.092  12.738   1.899
71407SOL    HW116118   2.157  12.785   1.845
71407SOL    HW216119   2.133  12.653   1.916
71408SOL     OW16120  12.651   8.873   6.496
71408SOL    HW116121  12.580   8.880   6.559
71408SOL    HW216122  12.698   8.956   6.504
71409SOL     OW16123   3.514   6.606  12.785
71409SOL    HW116124   3.432   6.655  12.782
71409SOL    HW216125   3.519   6.571  12.873
71410SOL     OW16126   6.103  10.713  12.575
71410SOL    HW116127   6.073  10.751  12.493
71410SOL    HW216128   6.198  10.722  12.573
71411SOL     OW16129  12.733  10.294   1.649
71411SOL    HW116130  12.646  10.327   1.626
71411SOL    HW216131  12.766  10.357   1.714
71412SOL     OW16132   6.943   1.414  14.393
71412SOL    HW116133   6.859   1.448  14.361
71412SOL    HW216134   6.919   1.351  14.461
71413SOL     OW16135   3.304   5.409  12.012
71413SOL    HW116136   3.375   5.426  11.950
71413SOL    HW216137   3.244   5.352  11.965
71414SOL     OW16138   5.100   3.878  10.274
71414SOL    HW116139   5.103   3.971  10.252
71414SOL    HW216140   5.024   3.844  10.227
71415SOL     OW16141  14.409  13.598   3.759
71415SOL    HW116142  14.451  13.677   3.724
71415SOL    HW216143  14.343  13.575   3.695
71416SOL     OW16144   9.984  14.228   6.393
71416SOL    HW116145   9.911  14.282   6.361
71416SOL    HW216146  10.062  14.278   6.372
71417SOL     OW16147  12.164  14.695   0.420
71417SOL    HW116148  12.078  14.656   0.438
71417SOL    HW216149  12.211  14.627   0.372
71418SOL     OW16150   8.078  10.729   0.547
71418SOL    HW116151   8.149  10.674   0.579
71418SOL    HW216152   8.110  10.762   0.463
71419SOL     OW16153  12.631  13.202  11.578
71419SOL    HW116154  12.713  13.153  11.579
71419SOL    HW216155  12.651  13.283  11.625
71420SOL     OW16156   2.180   5.575   5.904
71420SOL    HW116157   2.085   5.571   5.895
71420SOL    HW216158   2.207   5.649   5.850
71421SOL     OW16159   2.854  11.703  10.589
71421SOL    HW116160   2.760  11.709  10.571
71421SOL    HW216161   2.885  11.793  10.587
71422SOL     OW16162   5.188  12.948   5.204
71422SOL    HW116163   5.123  12.894   5.250
71422SOL    HW216164   5.143  12.978   5.125
71423SOL     OW16165   8.020   2.767   9.518
71423SOL    HW116166   7.967   2.732   9.446
71423SOL    HW216167   8.095   2.708   9.523
71424SOL     OW16168   1.011   7.877  10.479
71424SOL    HW116169   0.976   7.964  10.459
71424SOL    HW216170   1.022   7.835  10.394
71425SOL     OW16171   9.545   4.515   9.854
71425SOL    HW116172   9.581   4.504   9.766
71425SOL    HW216173   9.604   4.466   9.911
71426SOL     OW16174   5.534   3.583  12.553
71426SOL    HW116175   5.519   3.660  12.498
71426SOL    HW216176   5.448   3.563  12.590
71427SOL     OW16177   1.605   3.820  11.618
71427SOL    HW116178   1.647   3.735  11.612
71427SOL    HW216179   1.661   3.871  11.678
71428SOL     OW16180   0.524   2.437   7.027
71428SOL    HW116181   0.583   2.416   6.954
71428SOL    HW216182   0.446   2.473   6.986
71429SOL     OW16183   0.861   4.505   5.633
71429SOL    HW116184   0.841   4.450   5.709
71429SOL    HW216185   0.947   4.543   5.654
71430SOL     OW16186   9.847   6.194  12.908
71430SOL    HW116187   9.852   6.249  12.830
71430SOL    HW216188   9.864   6.253  12.981
71431SOL     OW16189  14.342  12.175   8.756
71431SOL    HW116190  14.260  12.197   8.713
71431SOL    HW216191  14.403  12.244   8.729
71432SOL     OW16192   4.517   8.030  12.979
71432SOL    HW116193   4.427   8.040  13.009
71432SOL    HW216194   4.524   7.938  12.953
71433SOL     OW16195   0.522   8.178   5.659
71433SOL    HW116196   0.437   8.162   5.701
71433SOL    HW216197   0.501   8.224   5.578
71434SOL     OW16198  12.380   5.178  14.022
71434SOL    HW116199  12.414   5.205  14.107
71434SOL    HW216200  12.297   5.225  14.013
71435SOL     OW16201  12.736  11.841   9.060
71435SOL    HW116202  12.681  11.919   9.046
71435SOL    HW216203  12.740  11.799   8.974
71436SOL     OW16204   0.929  12.063   6.027
71436SOL    HW116205   0.850  12.088   5.981
71436SOL    HW216206   0.903  11.990   6.083
71437SOL     OW16207   8.023   0.232  10.947
71437SOL    HW116208   8.050   0.324  10.946
71437SOL    HW216209   7.927   0.236  10.947
71438SOL     OW16210   5.144  10.468   1.890
71438SOL    HW116211   5.091  10.398   1.929
71438SOL    HW216212   5.154  10.442   1.798
71439SOL     OW16213   6.389  12.534   2.132
71439SOL    HW116214   6.361  12.493   2.214
71439SOL    HW216215   6.483  12.518   2.128
71440SOL     OW16216  12.293  12.135   0.377
71440SOL    HW116217  12.289  12.040   0.364
71440SOL    HW216218  12.271  12.172   0.291
71441SOL     OW16219   7.109  13.309   5.176
71441SOL    HW116220   7.145  13.230   5.217
71441SOL    HW216221   7.154  13.381   5.220
71442SOL     OW16222  11.707   3.263   5.559
71442SOL    HW116223  11.739   3.285   5.646
71442SOL    HW216224  11.740   3.333   5.503
71443SOL     OW16225   6.804   2.167  11.974
71443SOL    HW116226   6.720   2.121  11.978
71443SOL    HW216227   6.797   2.221  11.895
71444SOL     OW16228   4.847   2.181   4.584
71444SOL    HW116229   4.941   2.193   4.602
71444SOL    HW216230   4.814   2.271   4.572
71445SOL     OW16231   4.783  10.637   7.940
71445SOL    HW116232   4.823  10.582   8.007
71445SOL    HW216233   4.707  10.587   7.910
71446SOL     OW16234   7.433  11.310  10.042
71446SOL    HW116235   7.363  11.342  10.099
71446SOL    HW216236   7.471  11.237  10.090
71447SOL     OW16237   4.795   9.182   0.391
71447SOL    HW116238   4.803   9.197   0.486
71447SOL    HW216239   4.885   9.168   0.362
71448SOL     OW16240   7.119   2.727   1.050
71448SOL    HW116241   7.046   2.734   1.111
71448SOL    HW216242   7.166   2.811   1.059
71449SOL     OW16243   2.120   9.143   4.920
71449SOL    HW116244   2.121   9.158   5.014
71449SOL    HW216245   2.048   9.082   4.905
71450SOL     OW16246   7.913   6.214   9.330
71450SOL    HW116247   7.877   6.158   9.399
71450SOL    HW216248   7.840   6.227   9.269
71451SOL     OW16249   5.296   3.204   8.643
71451SOL    HW116250   5.300   3.241   8.731
71451SOL    HW216251   5.365   3.249   8.595
71452SOL     OW16252  10.420  13.428   9.060
71452SOL    HW116253  10.386  13.341   9.081
71452SOL    HW216254  10.465  13.455   9.140
71453SOL     OW16255   4.016   1.411   0.708
71453SOL    HW116256   3.969   1.353   0.767
71453SOL    HW216257   4.097   1.363   0.687
71454SOL     OW16258  11.287  12.636   3.860
71454SOL    HW116259  11.196  12.665   3.862
71454SOL    HW216260  11.301  12.607   3.770
71455SOL     OW16261  11.907   6.879   9.070
71455SOL    HW116262  11.896   6.952   9.131
71455SOL    HW216263  11.832   6.885   9.011
71456SOL     OW16264   1.270   0.779   0.658
71456SOL    HW116265   1.189   0.729   0.648
71456SOL    HW216266   1.289   0.811   0.570
71457SOL     OW16267   6.270   3.131   3.157
71457SOL    HW116268   6.304   3.082   3.082
71457SOL    HW216269   6.175   3.135   3.142
71458SOL     OW16270   7.251   5.772  12.312
71458SOL    HW116271   7.232   5.714  12.386
71458SOL    HW216272   7.336   5.742  12.280
71459SOL     OW16273   6.524  10.187   0.714
71459SOL    HW116274   6.582  10.250   0.756
71459SOL    HW216275   6.460  10.241   0.668
71460SOL     OW16276  10.192   0.703   7.702
71460SOL    HW116277  10.113   0.651   7.687
71460SOL    HW216278  10.240   0.656   7.771
71461SOL     OW16279   9.126   5.390   8.104
71461SOL    HW116280   9.119   5.398   8.009
71461SOL    HW216281   9.193   5.454   8.128
71462SOL     OW16282   8.277  12.573   5.462
71462SOL    HW116283   8.341  12.632   5.421
71462SOL    HW216284   8.193  12.617   5.450
71463SOL     OW16285   2.722  14.703   5.630
71463SOL    HW116286   2.744  14.629   5.574
71463SOL    HW216287   2.790  14.704   5.698
71464SOL     OW16288   5.646  12.164  10.510
71464SOL    HW116289   5.588  12.200  10.443
71464SOL    HW216290   5.591  12.153  10.587
71465SOL     OW16291   3.640   5.954  13.560
71465SOL    HW116292   3.710   5.931  13.622
71465SOL    HW216293   3.563   5.966  13.615
71466SOL     OW16294   0.749  10.117   7.958
71466SOL    HW116295   0.686  10.099   8.027
71466SOL    HW216296   0.811  10.043   7.962
71467SOL     OW16297  14.535  14.825   3.574
71467SOL    HW116298  14.520   0.015   3.510
71467SOL    HW216299  14.448  14.791   3.594
71468SOL     OW16300   7.477  13.696   9.117
71468SOL    HW116301   7.465  13.722   9.026
71468SOL    HW216302   7.452  13.774   9.167
71469SOL     OW16303   0.395  14.772   9.462
71469SOL    HW116304   0.333  14.757   9.389
71469SOL    HW216305   0.476  14.731   9.432
71470SOL     OW16306   4.710  14.812   0.216
71470SOL    HW116307   4.631  14.865   0.223
71470SOL    HW216308   4.775  14.870   0.176
71471SOL     OW16309   3.149   8.672   2.083
71471SOL    HW116310   3.074   8.615   2.065
71471SOL    HW216311   3.111   8.759   2.095
71472SOL     OW16312   7.781  10.382   6.253
71472SOL    HW116313   7.851  10.417   6.198
71472SOL    HW216314   7.717  10.346   6.191
71473SOL     OW16315   5.584   7.377  11.494
71473SOL    HW116316   5.636   7.348  11.570
71473SOL    HW216317   5.510   7.317  11.492
71474SOL     OW16318   9.890   5.821   9.251
71474SOL    HW116319   9.977   5.821   9.212
71474SOL    HW216320   9.840   5.759   9.198
71475SOL     OW16321   9.953  12.924   0.339
71475SOL    HW116322   9.896  12.847   0.341
71475SOL    HW216323   9.916  12.984   0.403
71476SOL     OW16324   0.916   5.323  13.745
71476SOL    HW116325   0.922   5.406  13.792
71476SOL    HW216326   0.937   5.345  13.654
71477SOL     OW16327  12.503   1.426  11.616
71477SOL    HW116328  12.586   1.453  11.577
71477SOL    HW216329  12.526   1.352  11.673
71478SOL     OW16330  11.864   5.042   4.252
71478SOL    HW116331  11.770   5.036   4.239
71478SOL    HW216332  11.894   4.951   4.255
71479SOL     OW16333   9.585  11.724   1.652
71479SOL    HW116334   9.629  11.642   1.631
71479SOL    HW216335   9.651  11.776   1.698
71480SOL     OW16336  11.555  10.479  14.348
71480SOL    HW116337  11.485  10.478  14.414
71480SOL    HW216338  11.516  10.437  14.271
71481SOL     OW16339   4.958   6.353  13.521
71481SOL    HW116340   4.916   6.291  13.581
71481SOL    HW216341   4.899   6.359  13.446
71482SOL     OW16342  14.674   4.686   7.107
71482SOL    HW116343  14.662   4.752   7.039
71482SOL    HW216344  14.761   4.705   7.144
71483SOL     OW16345  11.663  14.295   7.388
71483SOL    HW116346  11.680  14.219   7.332
71483SOL    HW216347  11.643  14.257   7.474
71484SOL     OW16348   4.266   8.524   0.992
71484SOL    HW116349   4.288   8.460   0.924
71484SOL    HW216350   4.215   8.474   1.056
71485SOL     OW16351   1.753   2.999  12.686
71485SOL    HW116352   1.774   3.084  12.649
71485SOL    HW216353   1.805   2.937  12.636
71486SOL     OW16354  11.852  13.571  10.181
71486SOL    HW116355  11.847  13.590  10.275
71486SOL    HW216356  11.866  13.476  10.177
71487SOL     OW16357  11.262  14.045   8.932
71487SOL    HW116358  11.291  14.117   8.877
71487SOL    HW216359  11.342  13.998   8.955
71488SOL     OW16360   0.130   3.338   4.582
71488SOL    HW116361   0.209   3.306   4.538
71488SOL    HW216362   0.114   3.275   4.652
71489SOL     OW16363   4.262   8.569  11.531
71489SOL    HW116364   4.257   8.663  11.546
71489SOL    HW216365   4.224   8.556  11.444
71490SOL     OW16366   8.004   7.254   3.687
71490SOL    HW116367   8.088   7.264   3.731
71490SOL    HW216368   8.014   7.174   3.634
71491SOL     OW16369   9.193   4.059   1.673
71491SOL    HW116370   9.237   4.055   1.758
71491SOL    HW216371   9.265   4.070   1.610
71492SOL     OW16372   4.917   2.403   3.534
71492SOL    HW116373   4.931   2.424   3.442
71492SOL    HW216374   4.842   2.344   3.535
71493SOL     OW16375   2.434   8.890   5.935
71493SOL    HW116376   2.455   8.805   5.897
71493SOL    HW216377   2.350   8.914   5.898
71494SOL     OW16378   9.300   0.033   6.938
71494SOL    HW116379   9.232   0.076   6.990
71494SOL    HW216380   9.379   0.041   6.990
71495SOL     OW16381  13.366   7.177   7.458
71495SOL    HW116382  13.459   7.163   7.478
71495SOL    HW216383  13.343   7.106   7.398
71496SOL     OW16384   5.524  11.055  12.395
71496SOL    HW116385   5.527  11.150  12.386
71496SOL    HW216386   5.584  11.022  12.327
71497SOL     OW16387  13.448   7.991  10.265
71497SOL    HW116388  13.515   7.925  10.251
71497SOL    HW216389  13.469   8.061  10.203
71498SOL     OW16390   5.754   5.588   2.660
71498SOL    HW116391   5.713   5.552   2.581
71498SOL    HW216392   5.765   5.681   2.641
71499SOL     OW16393   7.425   4.685   8.845
71499SOL    HW116394   7.479   4.647   8.915
71499SOL    HW216395   7.373   4.611   8.813
71500SOL     OW16396   0.044   9.841   6.993
71500SOL    HW116397   0.105   9.847   7.067
71500SOL    HW216398   0.054   9.924   6.947
71501SOL     OW16399  12.023   7.586  11.055
71501SOL    HW116400  11.985   7.621  10.975
71501SOL    HW216401  11.991   7.496  11.060
71502SOL     OW16402   1.060   3.426  11.790
71502SOL    HW116403   0.987   3.367  11.810
71502SOL    HW216404   1.134   3.389  11.839
71503SOL     OW16405   7.093  11.649   7.939
71503SOL    HW116406   7.162  11.614   7.883
71503SOL    HW216407   7.051  11.717   7.886
71504SOL     OW16408  10.375   9.182   3.831
71504SOL    HW116409  10.381   9.211   3.922
71504SOL    HW216410  10.460   9.141   3.812
71505SOL     OW16411   8.918   2.518  10.655
71505SOL    HW116412   8.831   2.481  10.637
71505SOL    HW216413   8.949   2.550  10.571
71506SOL     OW16414   0.340   2.156   3.273
71506SOL    HW116415   0.382   2.096   3.334
71506SOL    HW216416   0.314   2.231   3.326
71507SOL     OW16417   1.171  11.644   9.846
71507SOL    HW116418   1.220  11.656   9.765
71507SOL    HW216419   1.179  11.551   9.866
71508SOL     OW16420  14.807   6.581   5.305
71508SOL    HW116421  14.733   6.588   5.366
71508SOL    HW216422  14.855   6.504   5.335
71509SOL     OW16423   9.382  10.740  11.955
71509SOL    HW116424   9.312  10.680  11.927
71509SOL    HW216425   9.435  10.688  12.015
71510SOL     OW16426   9.276  12.077   6.821
71510SOL    HW116427   9.357  12.079   6.873
71510SOL    HW216428   9.298  12.023   6.745
71511SOL     OW16429   7.500   4.695  12.063
71511SOL    HW116430   7.501   4.605  12.096
71511SOL    HW216431   7.433   4.739  12.115
71512SOL     OW16432  11.047   9.356  14.124
71512SOL    HW116433  10.983   9.388  14.060
71512SOL    HW216434  11.044   9.420  14.195
71513SOL     OW16435   3.066   6.430   7.936
71513SOL    HW116436   2.986   6.432   7.987
71513SOL    HW216437   3.038   6.445   7.845
71514SOL     OW16438  12.714   9.194   9.147
71514SOL    HW116439  12.692   9.280   9.182
71514SOL    HW216440  12.792   9.168   9.196
71515SOL     OW16441   9.465  14.862   3.461
71515SOL    HW116442   9.496   0.027   3.540
71515SOL    HW216443   9.370  14.855   3.473
71516SOL     OW16444  10.206   8.801   8.785
71516SOL    HW116445  10.248   8.720   8.757
71516SOL    HW216446  10.124   8.772   8.826
71517SOL     OW16447   9.471   4.607  10.440
71517SOL    HW116448   9.381   4.578  10.423
71517SOL    HW216449   9.517   4.592  10.358
71518SOL     OW16450   0.249  13.910   4.347
71518SOL    HW116451   0.206  13.826   4.327
71518SOL    HW216452   0.277  13.901   4.438
71519SOL     OW16453   4.281  13.974  14.360
71519SOL    HW116454   4.197  13.959  14.318
71519SOL    HW216455   4.261  14.027  14.437
71520SOL     OW16456   8.123   0.744   8.719
71520SOL    HW116457   8.113   0.653   8.690
71520SOL    HW216458   8.123   0.739   8.815
71521SOL     OW16459   0.408   2.019   4.245
71521SOL    HW116460   0.330   2.074   4.235
71521SOL    HW216461   0.475   2.062   4.193
71522SOL     OW16462   8.545   2.088   9.480
71522SOL    HW116463   8.544   2.075   9.385
71522SOL    HW216464   8.638   2.100   9.501
71523SOL     OW16465  13.948   0.757   1.479
71523SOL    HW116466  14.029   0.763   1.429
71523SOL    HW216467  13.878   0.776   1.415
71524SOL     OW16468  12.476   7.085   1.278
71524SOL    HW116469  12.515   7.001   1.254
71524SOL    HW216470  12.545   7.150   1.262
71525SOL     OW16471   2.923   3.576   5.589
71525SOL    HW116472   3.000   3.522   5.569
71525SOL    HW216473   2.852   3.534   5.540
71526SOL     OW16474   2.659  12.883  11.766
71526SOL    HW116475   2.702  12.887  11.681
71526SOL    HW216476   2.637  12.791  11.778
71527SOL     OW16477   4.107   0.987   5.245
71527SOL    HW116478   4.196   1.016   5.264
71527SOL    HW216479   4.115   0.892   5.232
71528SOL     OW16480   8.226   1.747  12.227
71528SOL    HW116481   8.264   1.764  12.313
71528SOL    HW216482   8.216   1.652  12.225
71529SOL     OW16483   1.955   4.955   6.004
71529SOL    HW116484   1.964   5.021   6.072
71529SOL    HW216485   1.910   4.882   6.047
71530SOL     OW16486   1.666   8.602   6.923
71530SOL    HW116487   1.718   8.608   7.003
71530SOL    HW216488   1.655   8.508   6.909
71531SOL     OW16489   0.413   3.518   4.579
71531SOL    HW116490   0.383   3.450   4.519
71531SOL    HW216491   0.508   3.514   4.574
71532SOL     OW16492  13.635   2.081  10.414
71532SOL    HW116493  13.620   2.048  10.325
71532SOL    HW216494  13.657   2.173  10.401
71533SOL     OW16495   7.189   9.787  10.009
71533SOL    HW116496   7.196   9.702   9.966
71533SOL    HW216497   7.169   9.848   9.938
71534SOL     OW16498   4.036   3.945   9.972
71534SOL    HW116499   4.084   3.950  10.055
71534SOL    HW216500   3.953   3.904   9.995
71535SOL     OW16501   2.068   6.301   5.236
71535SOL    HW116502   2.057   6.210   5.263
71535SOL    HW216503   2.067   6.351   5.318
71536SOL     OW16504   1.276   1.351   2.123
71536SOL    HW116505   1.355   1.398   2.097
71536SOL    HW216506   1.216   1.363   2.049
71537SOL     OW16507  13.105   9.235   7.990
71537SOL    HW116508  13.122   9.146   8.021
71537SOL    HW216509  13.009   9.242   7.992
71538SOL     OW16510  10.541   1.251   7.814
71538SOL    HW116511  10.459   1.203   7.808
71538SOL    HW216512  10.581   1.243   7.728
71539SOL     OW16513   7.085  14.500   0.903
71539SOL    HW116514   7.071  14.405   0.906
71539SOL    HW216515   7.022  14.532   0.838
71540SOL     OW16516   4.039  11.053  14.446
71540SOL    HW116517   3.998  11.023  14.365
71540SOL    HW216518   4.077  11.137  14.423
71541SOL     OW16519   9.912   5.743   9.721
71541SOL    HW116520   9.830   5.702   9.747
71541SOL    HW216521   9.899   5.768   9.630
71542SOL     OW16522   0.575   7.485   0.592
71542SOL    HW116523   0.574   7.390   0.594
71542SOL    HW216524   0.576   7.511   0.684
71543SOL     OW16525  11.713   3.754  10.846
71543SOL    HW116526  11.774   3.700  10.797
71543SOL    HW216527  11.646   3.779  10.782
71544SOL     OW16528   1.706   1.962  10.332
71544SOL    HW116529   1.657   1.975  10.251
71544SOL    HW216530   1.788   2.009  10.319
71545SOL     OW16531   2.729  14.578   6.715
71545SOL    HW116532   2.812  14.572   6.762
71545SOL    HW216533   2.721  14.493   6.670
71546SOL     OW16534   5.316   8.741   6.021
71546SOL    HW116535   5.398   8.710   6.060
71546SOL    HW216536   5.253   8.671   6.040
71547SOL     OW16537   1.665   0.459   9.607
71547SOL    HW116538   1.739   0.403   9.582
71547SOL    HW216539   1.687   0.545   9.571
71548SOL     OW16540   9.939   3.679  14.293
71548SOL    HW116541   9.935   3.654  14.201
71548SOL    HW216542  10.001   3.752  14.296
71549SOL     OW16543  12.987   5.223   5.842
71549SOL    HW116544  13.019   5.133   5.853
71549SOL    HW216545  12.999   5.263   5.928
71550SOL     OW16546   7.365   1.056  14.386
71550SOL    HW116547   7.398   0.986  14.329
71550SOL    HW216548   7.345   1.012  14.469
71551SOL     OW16549   7.966   3.836   5.605
71551SOL    HW116550   7.934   3.926   5.599
71551SOL    HW216551   7.987   3.824   5.698
71552SOL     OW16552   9.841   2.509   3.563
71552SOL    HW116553   9.859   2.601   3.580
71552SOL    HW216554   9.831   2.470   3.650
71553SOL     OW16555  10.068  11.764   1.477
71553SOL    HW116556  10.113  11.754   1.393
71553SOL    HW216557  10.136  11.796   1.536
71554SOL     OW16558   7.245   6.321   4.757
71554SOL    HW116559   7.318   6.361   4.805
71554SOL    HW216560   7.261   6.345   4.666
71555SOL     OW16561   9.945   7.920   3.776
71555SOL    HW116562   9.873   7.893   3.834
71555SOL    HW216563   9.943   7.856   3.704
71556SOL     OW16564   7.777   9.787   0.431
71556SOL    HW116565   7.723   9.709   0.421
71556SOL    HW216566   7.796   9.815   0.341
71557SOL     OW16567  13.334   6.698   2.549
71557SOL    HW116568  13.307   6.712   2.458
71557SOL    HW216569  13.347   6.786   2.584
71558SOL     OW16570   5.586   4.921  11.836
71558SOL    HW116571   5.671   4.932  11.793
71558SOL    HW216572   5.587   4.986  11.907
71559SOL     OW16573   2.092  13.847   6.128
71559SOL    HW116574   2.024  13.834   6.195
71559SOL    HW216575   2.075  13.934   6.093
71560SOL     OW16576  10.458  13.580   2.739
71560SOL    HW116577  10.468  13.675   2.737
71560SOL    HW216578  10.364  13.566   2.751
71561SOL     OW16579   2.406   9.263  13.468
71561SOL    HW116580   2.453   9.343  13.445
71561SOL    HW216581   2.322   9.293  13.504
71562SOL     OW16582   4.192   6.734   7.040
71562SOL    HW116583   4.131   6.759   7.110
71562SOL    HW216584   4.138   6.725   6.962
71563SOL     OW16585  11.765   3.574   5.958
71563SOL    HW116586  11.801   3.592   6.045
71563SOL    HW216587  11.734   3.658   5.927
71564SOL     OW16588   6.529   7.961  13.244
71564SOL    HW116589   6.445   7.971  13.199
71564SOL    HW216590   6.591   7.940  13.174
71565SOL     OW16591  10.567  13.366   0.072
71565SOL    HW116592  10.502  13.301   0.046
71565SOL    HW216593  10.647  13.316   0.088
71566SOL     OW16594  11.996   2.865   9.031
71566SOL    HW116595  11.999   2.918   9.110
71566SOL    HW216596  11.974   2.777   9.062
71567SOL     OW16597  13.379   3.421  14.250
71567SOL    HW116598  13.350   3.331  14.266
71567SOL    HW216599  13.326   3.475  14.309
71568SOL     OW16600   5.896   6.346   7.056
71568SOL    HW116601   5.886   6.396   7.138
71568SOL    HW216602   5.974   6.384   7.015
71569SOL     OW16603  14.583   9.803  13.225
71569SOL    HW116604  14.572   9.776  13.316
71569SOL    HW216605  14.551   9.729  13.174
71570SOL     OW16606   4.744  10.460   6.278
71570SOL    HW116607   4.827  10.412   6.283
71570SOL    HW216608   4.678  10.397   6.306
71571SOL     OW16609   1.541   5.555   6.400
71571SOL    HW116610   1.556   5.593   6.313
71571SOL    HW216611   1.618   5.500   6.416
71572SOL     OW16612  10.511   4.532  12.150
71572SOL    HW116613  10.522   4.516  12.056
71572SOL    HW216614  10.427   4.578  12.158
71573SOL     OW16615   0.771   7.152  12.060
71573SOL    HW116616   0.802   7.061  12.064
71573SOL    HW216617   0.790   7.188  12.147
71574SOL     OW16618   6.713   6.834   1.939
71574SOL    HW116619   6.778   6.836   1.869
71574SOL    HW216620   6.703   6.741   1.960
71575SOL     OW16621   9.332   8.308   3.724
71575SOL    HW116622   9.282   8.264   3.792
71575SOL    HW216623   9.334   8.400   3.750
71576SOL     OW16624   2.973  14.496   9.909
71576SOL    HW116625   3.052  14.444   9.897
71576SOL    HW216626   2.933  14.461   9.989
71577SOL     OW16627   9.222   4.263   6.727
71577SOL    HW116628   9.298   4.298   6.682
71577SOL    HW216629   9.251   4.179   6.762
71578SOL     OW16630   2.443   4.388   7.385
71578SOL    HW116631   2.408   4.304   7.356
71578SOL    HW216632   2.488   4.423   7.309
71579SOL     OW16633  13.082   8.864  11.325
71579SOL    HW116634  13.093   8.783  11.276
71579SOL    HW216635  12.994   8.894  11.303
71580SOL     OW16636  12.968   4.341   7.149
71580SOL    HW116637  12.873   4.344   7.141
71580SOL    HW216638  12.984   4.286   7.226
71581SOL     OW16639   5.540  14.193  12.315
71581SOL    HW116640   5.546  14.213  12.222
71581SOL    HW216641   5.610  14.244  12.356
71582SOL     OW16642  14.233   5.074   0.928
71582SOL    HW116643  14.239   5.099   1.020
71582SOL    HW216644  14.144   5.098   0.903
71583SOL     OW16645  14.509   9.019  12.408
71583SOL    HW116646  14.525   9.007  12.315
71583SOL    HW216647  14.446   9.091  12.413
71584SOL     OW16648  10.223   1.118  11.535
71584SOL    HW116649  10.241   1.076  11.451
71584SOL    HW216650  10.310   1.132  11.574
71585SOL     OW16651   6.349   0.093   2.418
71585SOL    HW116652   6.390   0.132   2.495
71585SOL    HW216653   6.258   0.123   2.423
71586SOL     OW16654   3.010   4.190   5.151
71586SOL    HW116655   2.961   4.199   5.232
71586SOL    HW216656   3.048   4.102   5.155
71587SOL     OW16657  14.158   4.251  14.744
71587SOL    HW116658  14.133   4.182  14.682
71587SOL    HW216659  14.245   4.226  14.774
71588SOL     OW16660   1.584   2.797   0.709
71588SOL    HW116661   1.643   2.861   0.671
71588SOL    HW216662   1.557   2.836   0.793
71589SOL     OW16663   4.486   9.281   6.660
71589SOL    HW116664   4.482   9.313   6.570
71589SOL    HW216665   4.400   9.242   6.676
71590SOL     OW16666  10.640  13.070   3.310
71590SOL    HW116667  10.545  13.068   3.305
71590SOL    HW216668  10.667  13.118   3.230
71591SOL     OW16669   4.123   4.515  12.613
71591SOL    HW116670   4.061   4.575  12.656
71591SOL    HW216671   4.191   4.572  12.577
71592SOL     OW16672   1.497   4.566   6.134
71592SOL    HW116673   1.528   4.611   6.055
71592SOL    HW216674   1.576   4.554   6.187
71593SOL     OW16675   0.468  11.249   8.208
71593SOL    HW116676   0.434  11.333   8.180
71593SOL    HW216677   0.497  11.206   8.128
71594SOL     OW16678   3.864   8.920   2.159
71594SOL    HW116679   3.871   8.839   2.210
71594SOL    HW216680   3.770   8.929   2.141
71595SOL     OW16681  10.188   6.259   9.006
71595SOL    HW116682  10.134   6.326   9.047
71595SOL    HW216683  10.169   6.179   9.056
71596SOL     OW16684  12.402  11.394   9.526
71596SOL    HW116685  12.362  11.368   9.443
71596SOL    HW216686  12.342  11.459   9.563
71597SOL     OW16687   2.306   4.681   8.908
71597SOL    HW116688   2.365   4.752   8.880
71597SOL    HW216689   2.238   4.679   8.840
71598SOL     OW16690   7.215   6.991   0.840
71598SOL    HW116691   7.282   6.978   0.773
71598SOL    HW216692   7.223   7.083   0.866
71599SOL     OW16693   6.111   4.706   6.579
71599SOL    HW116694   6.136   4.708   6.672
71599SOL    HW216695   6.111   4.798   6.553
71600SOL     OW16696  11.832  13.084   8.058
71600SOL    HW116697  11.837  13.177   8.036
71600SOL    HW216698  11.833  13.040   7.973
71601SOL     OW16699   9.264  12.302   1.985
71601SOL    HW116700   9.270  12.218   1.938
71601SOL    HW216701   9.331  12.357   1.944
71602SOL     OW16702   5.351   3.701   6.723
71602SOL    HW116703   5.428   3.750   6.752
71602SOL    HW216704   5.311   3.757   6.657
71603SOL     OW16705   8.725   5.933   3.436
71603SOL    HW116706   8.722   6.003   3.371
71603SOL    HW216707   8.633   5.915   3.455
71604SOL     OW16708   9.643   1.032   0.382
71604SOL    HW116709   9.667   0.985   0.462
71604SOL    HW216710   9.556   1.069   0.401
71605SOL     OW16711  14.478   6.513  11.606
71605SOL    HW116712  14.544   6.577  11.633
71605SOL    HW216713  14.523   6.457  11.544
71606SOL     OW16714   9.973  11.622  11.981
71606SOL    HW116715  10.034  11.560  12.020
71606SOL    HW216716  10.015  11.708  11.991
71607SOL     OW16717   7.015  13.455   7.199
71607SOL    HW116718   7.065  13.529   7.163
71607SOL    HW216719   6.924  13.477   7.181
71608SOL     OW16720   6.584   6.559   3.400
71608SOL    HW116721   6.639   6.582   3.474
71608SOL    HW216722   6.502   6.606   3.416
71609SOL     OW16723   9.368  11.298   2.774
71609SOL    HW116724   9.344  11.233   2.839
71609SOL    HW216725   9.463  11.302   2.778
71610SOL     OW16726   2.920   2.387  11.930
71610SOL    HW116727   3.002   2.401  11.977
71610SOL    HW216728   2.854   2.431  11.984
71611SOL     OW16729  11.804   9.312   2.258
71611SOL    HW116730  11.792   9.326   2.352
71611SOL    HW216731  11.888   9.268   2.250
71612SOL     OW16732  11.339   2.666   1.516
71612SOL    HW116733  11.332   2.664   1.421
71612SOL    HW216734  11.250   2.649   1.547
71613SOL     OW16735   0.412   8.447   7.300
71613SOL    HW116736   0.321   8.419   7.298
71613SOL    HW216737   0.458   8.382   7.248
71614SOL     OW16738   8.751  11.942   5.357
71614SOL    HW116739   8.656  11.937   5.365
71614SOL    HW216740   8.768  11.932   5.263
71615SOL     OW16741   9.555   2.853   5.223
71615SOL    HW116742   9.612   2.777   5.207
71615SOL    HW216743   9.471   2.815   5.249
71616SOL     OW16744   3.100  11.457   6.383
71616SOL    HW116745   3.153  11.403   6.441
71616SOL    HW216746   3.079  11.399   6.309
71617SOL     OW16747  10.000   8.089   7.289
71617SOL    HW116748  10.091   8.103   7.317
71617SOL    HW216749  10.007   8.066   7.196
71618SOL     OW16750   1.382  12.569   4.299
71618SOL    HW116751   1.324  12.642   4.322
71618SOL    HW216752   1.386  12.571   4.203
71619SOL     OW16753  12.338   3.750   1.658
71619SOL    HW116754  12.389   3.825   1.628
71619SOL    HW216755  12.310   3.773   1.747
71620SOL     OW16756   1.660   7.450   5.891
71620SOL    HW116757   1.578   7.433   5.844
71620SOL    HW216758   1.659   7.386   5.963
71621SOL     OW16759   8.746  11.985   1.883
71621SOL    HW116760   8.791  11.918   1.832
71621SOL    HW216761   8.653  11.962   1.875
71622SOL     OW16762   2.073   8.897  12.512
71622SOL    HW116763   2.060   8.929  12.602
71622SOL    HW216764   2.035   8.965  12.457
71623SOL     OW16765  14.823   8.452   4.243
71623SOL    HW116766  14.742   8.403   4.230
71623SOL    HW216767  14.859   8.462   4.155
71624SOL     OW16768   2.754   0.094   5.606
71624SOL    HW116769   2.737   0.000   5.603
71624SOL    HW216770   2.672   0.132   5.639
71625SOL     OW16771   7.673   6.116   8.898
71625SOL    HW116772   7.638   6.200   8.869
71625SOL    HW216773   7.606   6.052   8.875
71626SOL     OW16774   7.512   3.804  13.528
71626SOL    HW116775   7.592   3.794  13.579
71626SOL    HW216776   7.515   3.894  13.494
71627SOL     OW16777  10.631   7.228   4.028
71627SOL    HW116778  10.596   7.212   3.941
71627SOL    HW216779  10.707   7.169   4.035
71628SOL     OW16780   7.016   1.857   1.056
71628SOL    HW116781   6.962   1.928   1.021
71628SOL    HW216782   7.022   1.794   0.984
71629SOL     OW16783   7.708   6.469   1.333
71629SOL    HW116784   7.721   6.388   1.381
71629SOL    HW216785   7.703   6.442   1.241
71630SOL     OW16786   6.642   7.747   5.684
71630SOL    HW116787   6.577   7.811   5.712
71630SOL    HW216788   6.699   7.795   5.624
71631SOL     OW16789   8.183   0.508   4.544
71631SOL    HW116790   8.227   0.530   4.627
71631SOL    HW216791   8.091   0.498   4.568
71632SOL     OW16792   3.024   4.740   7.426
71632SOL    HW116793   3.115   4.712   7.415
71632SOL    HW216794   3.003   4.784   7.344
71633SOL     OW16795  12.169  14.507   0.815
71633SOL    HW116796  12.202  14.483   0.901
71633SOL    HW216797  12.248  14.518   0.761
71634SOL     OW16798   4.604  12.281   2.524
71634SOL    HW116799   4.625  12.261   2.433
71634SOL    HW216800   4.564  12.201   2.559
71635SOL     OW16801   7.553   3.694  11.066
71635SOL    HW116802   7.612   3.621  11.084
71635SOL    HW216803   7.596   3.744  10.997
71636SOL     OW16804   8.183   7.671   4.217
71636SOL    HW116805   8.087   7.670   4.218
71636SOL    HW216806   8.208   7.720   4.296
71637SOL     OW16807   0.165   9.699   8.920
71637SOL    HW116808   0.202   9.750   8.992
71637SOL    HW216809   0.128   9.621   8.962
71638SOL     OW16810  10.926   6.154  12.846
71638SOL    HW116811  10.966   6.240  12.829
71638SOL    HW216812  10.981   6.116  12.915
71639SOL     OW16813  11.271   0.403   1.947
71639SOL    HW116814  11.282   0.375   1.856
71639SOL    HW216815  11.263   0.498   1.942
71640SOL     OW16816  11.143   2.893  12.719
71640SOL    HW116817  11.106   2.978  12.742
71640SOL    HW216818  11.085   2.829  12.761
71641SOL     OW16819   0.357   3.900  10.614
71641SOL    HW116820   0.440   3.928  10.576
71641SOL    HW216821   0.371   3.809  10.641
71642SOL     OW16822  11.093   2.511  10.037
71642SOL    HW116823  11.162   2.452  10.006
71642SOL    HW216824  11.096   2.504  10.132
71643SOL     OW16825   6.742   0.275  10.019
71643SOL    HW116826   6.685   0.324   9.960
71643SOL    HW216827   6.783   0.342  10.074
71644SOL     OW16828   9.066   5.636   4.844
71644SOL    HW116829   9.028   5.691   4.775
71644SOL    HW216830   9.157   5.622   4.815
71645SOL     OW16831  11.092   0.233   9.988
71645SOL    HW116832  11.161   0.240  10.054
71645SOL    HW216833  11.013   0.262  10.032
71646SOL     OW16834   8.024  11.859   5.947
71646SOL    HW116835   8.094  11.924   5.952
71646SOL    HW216836   8.067  11.775   5.956
71647SOL     OW16837   4.695   2.085   4.359
71647SOL    HW116838   4.605   2.088   4.391
71647SOL    HW216839   4.749   2.110   4.434
71648SOL     OW16840   2.482   5.731   1.335
71648SOL    HW116841   2.497   5.787   1.412
71648SOL    HW216842   2.421   5.665   1.366
71649SOL     OW16843   1.200   2.350   7.485
71649SOL    HW116844   1.196   2.396   7.402
71649SOL    HW216845   1.115   2.366   7.526
71650SOL     OW16846   6.175   7.355  13.558
71650SOL    HW116847   6.233   7.283  13.583
71650SOL    HW216848   6.163   7.405  13.639
71651SOL     OW16849  10.806   9.206  11.803
71651SOL    HW116850  10.809   9.180  11.711
71651SOL    HW216851  10.768   9.131  11.849
71652SOL     OW16852   7.910  13.100   5.807
71652SOL    HW116853   7.982  13.066   5.754
71652SOL    HW216854   7.836  13.104   5.746
71653SOL     OW16855   9.069  13.145  13.566
71653SOL    HW116856   9.037  13.101  13.487
71653SOL    HW216857   8.990  13.157  13.619
71654SOL     OW16858   4.913  13.016  12.791
71654SOL    HW116859   4.914  13.096  12.843
71654SOL    HW216860   4.948  12.948  12.849
71655SOL     OW16861  10.486   7.633  12.492
71655SOL    HW116862  10.535   7.715  12.496
71655SOL    HW216863  10.404   7.652  12.537
71656SOL     OW16864  13.315   9.846   7.424
71656SOL    HW116865  13.370   9.775   7.458
71656SOL    HW216866  13.376   9.904   7.379
71657SOL     OW16867  11.679   1.215   2.071
71657SOL    HW116868  11.646   1.298   2.108
71657SOL    HW216869  11.743   1.184   2.135
71658SOL     OW16870   1.330   6.038  10.323
71658SOL    HW116871   1.425   6.032  10.312
71658SOL    HW216872   1.315   6.024  10.416
71659SOL     OW16873   3.988   6.396   4.154
71659SOL    HW116874   3.925   6.422   4.221
71659SOL    HW216875   3.989   6.470   4.093
71660SOL     OW16876   2.724   4.531   5.578
71660SOL    HW116877   2.701   4.518   5.486
71660SOL    HW216878   2.642   4.558   5.619
71661SOL     OW16879   7.461   6.153  14.472
71661SOL    HW116880   7.485   6.228  14.526
71661SOL    HW216881   7.457   6.079  14.533
71662SOL     OW16882  13.353   5.167   6.560
71662SOL    HW116883  13.293   5.218   6.506
71662SOL    HW216884  13.413   5.127   6.497
71663SOL     OW16885   4.940   7.385   0.037
71663SOL    HW116886   4.882   7.459   0.020
71663SOL    HW216887   4.923   7.362   0.128
71664SOL     OW16888   6.977   1.380   6.823
71664SOL    HW116889   6.957   1.420   6.739
71664SOL    HW216890   7.034   1.444   6.867
71665SOL     OW16891  12.598  14.024   4.017
71665SOL    HW116892  12.544  14.020   3.937
71665SOL    HW216893  12.547  13.977   4.083
71666SOL     OW16894  10.117   4.366   3.104
71666SOL    HW116895  10.155   4.425   3.168
71666SOL    HW216896  10.192   4.333   3.054
71667SOL     OW16897   6.277   4.238  14.230
71667SOL    HW116898   6.361   4.216  14.270
71667SOL    HW216899   6.263   4.170  14.164
71668SOL     OW16900  14.517   8.043   7.451
71668SOL    HW116901  14.581   7.975   7.430
71668SOL    HW216902  14.462   8.049   7.373
71669SOL     OW16903   3.863  13.156  12.263
71669SOL    HW116904   3.889  13.077  12.310
71669SOL    HW216905   3.941  13.211  12.263
71670SOL     OW16906  12.961   4.407   4.159
71670SOL    HW116907  12.984   4.478   4.218
71670SOL    HW216908  12.871   4.426   4.133
71671SOL     OW16909   2.999  10.808  14.857
71671SOL    HW116910   2.976  10.725   0.018
71671SOL    HW216911   2.946  10.873   0.024
71672SOL     OW16912   0.704   3.273  12.449
71672SOL    HW116913   0.661   3.191  12.425
71672SOL    HW216914   0.680   3.287  12.541
71673SOL     OW16915   0.076   9.116  11.274
71673SOL    HW116916   0.018   9.042  11.290
71673SOL    HW216917   0.149   9.104  11.334
71674SOL     OW16918  13.577   1.021   7.067
71674SOL    HW116919  13.554   0.955   7.132
71674SOL    HW216920  13.642   1.077   7.111
71675SOL     OW16921   7.475   1.360   0.586
71675SOL    HW116922   7.523   1.432   0.626
71675SOL    HW216923   7.526   1.337   0.508
71676SOL     OW16924   8.781   8.025  11.972
71676SOL    HW116925   8.711   7.959  11.975
71676SOL    HW216926   8.857   7.981  12.011
71677SOL     OW16927   7.689  11.084   4.905
71677SOL    HW116928   7.767  11.136   4.884
71677SOL    HW216929   7.650  11.128   4.980
71678SOL     OW16930   1.896  10.720   9.665
71678SOL    HW116931   1.848  10.677   9.736
71678SOL    HW216932   1.986  10.724   9.697
71679SOL     OW16933  14.052   2.883   1.487
71679SOL    HW116934  13.979   2.894   1.425
71679SOL    HW216935  14.090   2.970   1.496
71680SOL     OW16936  11.796   6.880   6.331
71680SOL    HW116937  11.766   6.963   6.295
71680SOL    HW216938  11.778   6.885   6.424
71681SOL     OW16939   1.141  10.070   4.333
71681SOL    HW116940   1.155  10.150   4.283
71681SOL    HW216941   1.187  10.002   4.283
71682SOL     OW16942   9.932   3.097   6.849
71682SOL    HW116943   9.895   3.176   6.887
71682SOL    HW216944   9.910   3.101   6.756
71683SOL     OW16945  12.270  14.110  12.908
71683SOL    HW116946  12.315  14.183  12.865
71683SOL    HW216947  12.241  14.054  12.836
71684SOL     OW16948  12.076   8.743   4.777
71684SOL    HW116949  12.135   8.773   4.708
71684SOL    HW216950  12.015   8.683   4.732
71685SOL     OW16951  14.068   0.995   6.854
71685SOL    HW116952  13.979   0.979   6.824
71685SOL    HW216953  14.067   0.970   6.946
71686SOL     OW16954   0.760   6.842   8.270
71686SOL    HW116955   0.836   6.792   8.298
71686SOL    HW216956   0.784   6.934   8.287
71687SOL     OW16957  10.125   6.883   5.748
71687SOL    HW116958  10.034   6.900   5.773
71687SOL    HW216959  10.153   6.963   5.704
71688SOL     OW16960  12.330   5.268   0.155
71688SOL    HW116961  12.421   5.299   0.152
71688SOL    HW216962  12.310   5.263   0.249
71689SOL     OW16963   0.802  11.594   9.016
71689SOL    HW116964   0.888  11.561   8.988
71689SOL    HW216965   0.747  11.587   8.938
71690SOL     OW16966   7.798   0.338   6.016
71690SOL    HW116967   7.744   0.411   5.984
71690SOL    HW216968   7.846   0.309   5.939
71691SOL     OW16969   3.735  12.987  10.407
71691SOL    HW116970   3.814  13.023  10.365
71691SOL    HW216971   3.711  13.053  10.472
71692SOL     OW16972  10.298   4.548   5.761
71692SOL    HW116973  10.262   4.484   5.700
71692SOL    HW216974  10.355   4.497   5.819
71693SOL     OW16975   8.820  14.838   2.703
71693SOL    HW116976   8.871   0.008   2.640
71693SOL    HW216977   8.806   0.018   2.776
71694SOL     OW16978   1.329  12.340  12.108
71694SOL    HW116979   1.340  12.373  12.019
71694SOL    HW216980   1.418  12.318  12.136
71695SOL     OW16981   6.005   5.597   2.470
71695SOL    HW116982   6.048   5.573   2.388
71695SOL    HW216983   5.913   5.576   2.456
71696SOL     OW16984  13.922   7.880  13.878
71696SOL    HW116985  13.963   7.803  13.838
71696SOL    HW216986  13.901   7.853  13.967
71697SOL     OW16987   7.057   3.139  10.112
71697SOL    HW116988   6.988   3.073  10.103
71697SOL    HW216989   7.050   3.168  10.203
71698SOL     OW16990   1.364  12.509   7.691
71698SOL    HW116991   1.349  12.525   7.785
71698SOL    HW216992   1.458  12.496   7.683
71699SOL     OW16993  11.234   9.623  11.158
71699SOL    HW116994  11.237   9.532  11.128
71699SOL    HW216995  11.190   9.670  11.087
71700SOL     OW16996   7.311   4.451   8.057
71700SOL    HW116997   7.248   4.442   8.128
71700SOL    HW216998   7.397   4.444   8.099
71701SOL     OW16999   7.291   1.168  13.965
71701SOL    HW117000   7.234   1.136  14.036
71701SOL    HW217001   7.378   1.170  14.004
71702SOL     OW17002   2.400   5.456   6.021
71702SOL    HW117003   2.333   5.503   5.970
71702SOL    HW217004   2.352   5.416   6.093
71703SOL     OW17005   3.893   1.708   6.362
71703SOL    HW117006   3.904   1.614   6.343
71703SOL    HW217007   3.932   1.719   6.449
71704SOL     OW17008  14.789  11.823   9.616
71704SOL    HW117009  14.827  11.857   9.535
71704SOL    HW217010  14.861  11.777   9.659
71705SOL     OW17011  12.997   0.634   1.940
71705SOL    HW117012  12.924   0.634   1.879
71705SOL    HW217013  12.977   0.703   2.003
71706SOL     OW17014   4.562   8.185  11.112
71706SOL    HW117015   4.653   8.204  11.089
71706SOL    HW217016   4.515   8.190  11.029
71707SOL     OW17017   0.691   3.406   6.936
71707SOL    HW117018   0.783   3.423   6.915
71707SOL    HW217019   0.688   3.313   6.957
71708SOL     OW17020  12.256   2.975  12.590
71708SOL    HW117021  12.323   2.983  12.522
71708SOL    HW217022  12.175   2.960  12.541
71709SOL     OW17023   0.939   2.844   8.736
71709SOL    HW117024   0.868   2.907   8.723
71709SOL    HW217025   0.905   2.762   8.700
71710SOL     OW17026   0.203   3.908   5.786
71710SOL    HW117027   0.144   3.943   5.719
71710SOL    HW217028   0.145   3.863   5.847
71711SOL     OW17029   2.157   6.532   8.671
71711SOL    HW117030   2.250   6.554   8.662
71711SOL    HW217031   2.119   6.557   8.587
71712SOL     OW17032   6.705   0.998  11.207
71712SOL    HW117033   6.780   1.035  11.253
71712SOL    HW217034   6.641   0.981  11.276
71713SOL     OW17035   4.321   9.067   2.077
71713SOL    HW117036   4.257   9.000   2.100
71713SOL    HW217037   4.279   9.149   2.104
71714SOL     OW17038   6.255   9.131  13.248
71714SOL    HW117039   6.316   9.077  13.198
71714SOL    HW217040   6.194   9.067  13.287
71715SOL     OW17041   6.432  11.747   3.510
71715SOL    HW117042   6.476  11.832   3.518
71715SOL    HW217043   6.344  11.770   3.478
71716SOL     OW17044   2.239   5.036   8.361
71716SOL    HW117045   2.284   5.114   8.395
71716SOL    HW217046   2.270   5.028   8.271
71717SOL     OW17047   6.571   9.465   6.134
71717SOL    HW117048   6.559   9.370   6.128
71717SOL    HW217049   6.482   9.501   6.127
71718SOL     OW17050  11.680   3.254  14.501
71718SOL    HW117051  11.720   3.209  14.427
71718SOL    HW217052  11.597   3.288  14.466
71719SOL     OW17053   9.984   0.314  10.835
71719SOL    HW117054  10.013   0.389  10.885
71719SOL    HW217055   9.929   0.264  10.896
71720SOL     OW17056   3.655   1.748   0.762
71720SOL    HW117057   3.739   1.725   0.722
71720SOL    HW217058   3.675   1.759   0.855
71721SOL     OW17059   9.223   5.955   5.061
71721SOL    HW117060   9.243   5.967   4.968
71721SOL    HW217061   9.286   5.890   5.091
71722SOL     OW17062  13.051  10.315   7.209
71722SOL    HW117063  12.992  10.251   7.251
71722SOL    HW217064  12.996  10.392   7.195
71723SOL     OW17065   1.578   5.986  12.041
71723SOL    HW117066   1.505   5.993  12.103
71723SOL    HW217067   1.628   5.911  12.072
71724SOL     OW17068  12.784   7.016  11.579
71724SOL    HW117069  12.809   6.928  11.605
71724SOL    HW217070  12.718   7.042  11.643
71725SOL     OW17071   3.508   4.910  10.815
71725SOL    HW117072   3.582   4.956  10.856
71725SOL    HW217073   3.516   4.820  10.846
71726SOL     OW17074  13.030   2.920  12.300
71726SOL    HW117075  13.035   3.004  12.254
71726SOL    HW217076  13.115   2.913  12.344
71727SOL     OW17077   9.807   4.019  12.670
71727SOL    HW117078   9.733   4.067  12.707
71727SOL    HW217079   9.769   3.937  12.639
71728SOL     OW17080  10.677   8.258   0.262
71728SOL    HW117081  10.676   8.294   0.173
71728SOL    HW217082  10.730   8.321   0.312
71729SOL     OW17083   8.333  12.013  13.319
71729SOL    HW117084   8.324  11.967  13.403
71729SOL    HW217085   8.418  11.984  13.285
71730SOL     OW17086   1.526   1.053   2.602
71730SOL    HW117087   1.489   1.043   2.514
71730SOL    HW217088   1.453   1.089   2.653
71731SOL     OW17089   9.983   4.096  10.873
71731SOL    HW117090  10.076   4.073  10.873
71731SOL    HW217091   9.957   4.094  10.965
71732SOL     OW17092   2.763  10.282   2.960
71732SOL    HW117093   2.815  10.204   2.938
71732SOL    HW217094   2.782  10.298   3.053
71733SOL     OW17095   1.760   1.215   3.215
71733SOL    HW117096   1.829   1.200   3.150
71733SOL    HW217097   1.679   1.202   3.166
71734SOL     OW17098   5.543   5.019  12.286
71734SOL    HW117099   5.545   5.043  12.194
71734SOL    HW217100   5.585   5.092  12.331
71735SOL     OW17101   9.701   8.833  14.355
71735SOL    HW117102   9.703   8.755  14.300
71735SOL    HW217103   9.740   8.805  14.438
71736SOL     OW17104  14.588  12.389  14.337
71736SOL    HW117105  14.557  12.365  14.249
71736SOL    HW217106  14.518  12.359  14.396
71737SOL     OW17107  10.967  12.280  13.564
71737SOL    HW117108  11.026  12.327  13.505
71737SOL    HW217109  11.020  12.209  13.600
71738SOL     OW17110   8.702  10.786  14.326
71738SOL    HW117111   8.762  10.741  14.265
71738SOL    HW217112   8.753  10.861  14.357
71739SOL     OW17113  14.054   5.807   4.958
71739SOL    HW117114  13.983   5.750   4.986
71739SOL    HW217115  14.066   5.787   4.865
71740SOL     OW17116   5.602  13.180   0.601
71740SOL    HW117117   5.557  13.182   0.686
71740SOL    HW217118   5.561  13.250   0.551
71741SOL     OW17119   7.813  10.156   2.155
71741SOL    HW117120   7.848  10.243   2.171
71741SOL    HW217121   7.887  10.097   2.171
71742SOL     OW17122   7.951   7.689  11.317
71742SOL    HW117123   7.956   7.623  11.248
71742SOL    HW217124   8.039   7.691  11.355
71743SOL     OW17125  10.044  11.437   6.017
71743SOL    HW117126  10.026  11.372   6.085
71743SOL    HW217127   9.966  11.493   6.016
71744SOL     OW17128   2.695   3.708  13.399
71744SOL    HW117129   2.673   3.783  13.344
71744SOL    HW217130   2.714   3.637  13.337
71745SOL     OW17131   4.978   4.431  10.738
71745SOL    HW117132   5.055   4.376  10.725
71745SOL    HW217133   5.011   4.521  10.733
71746SOL     OW17134   3.703  10.630  13.606
71746SOL    HW117135   3.617  10.669  13.616
71746SOL    HW217136   3.763  10.705  13.602
71747SOL     OW17137   6.872  14.770   6.390
71747SOL    HW117138   6.830  14.713   6.454
71747SOL    HW217139   6.893  14.850   6.438
71748SOL     OW17140   4.007   5.484  10.315
71748SOL    HW117141   4.038   5.511  10.401
71748SOL    HW217142   3.937   5.546  10.294
71749SOL     OW17143   6.032  11.396   4.848
71749SOL    HW117144   6.063  11.369   4.762
71749SOL    HW217145   6.067  11.330   4.908
71750SOL     OW17146   1.885   2.444  11.357
71750SOL    HW117147   1.871   2.524  11.407
71750SOL    HW217148   1.867   2.373  11.419
71751SOL     OW17149   9.268   1.976   1.110
71751SOL    HW117150   9.268   2.035   1.185
71751SOL    HW217151   9.233   1.894   1.143
71752SOL     OW17152  13.742   8.133  13.610
71752SOL    HW117153  13.815   8.099  13.662
71752SOL    HW217154  13.747   8.228  13.620
71753SOL     OW17155  12.431   0.928   5.400
71753SOL    HW117156  12.493   0.996   5.377
71753SOL    HW217157  12.345   0.971   5.396
71754SOL     OW17158  12.469   4.296  12.650
71754SOL    HW117159  12.466   4.364  12.718
71754SOL    HW217160  12.496   4.342  12.571
71755SOL     OW17161   0.538  14.865   6.201
71755SOL    HW117162   0.500  14.782   6.231
71755SOL    HW217163   0.604  14.840   6.137
71756SOL     OW17164   1.883   5.823   1.561
71756SOL    HW117165   1.812   5.810   1.498
71756SOL    HW217166   1.947   5.877   1.515
71757SOL     OW17167  14.673  14.019   1.637
71757SOL    HW117168  14.665  14.025   1.541
71757SOL    HW217169  14.692  14.109   1.664
71758SOL     OW17170   8.197  12.198  12.749
71758SOL    HW117171   8.218  12.109  12.724
71758SOL    HW217172   8.255  12.253  12.696
71759SOL     OW17173   1.404   6.041   7.571
71759SOL    HW117174   1.354   5.961   7.560
71759SOL    HW217175   1.471   6.038   7.502
71760SOL     OW17176  13.696  12.867  11.262
71760SOL    HW117177  13.677  12.773  11.263
71760SOL    HW217178  13.638  12.902  11.195
71761SOL     OW17179   0.037   0.509  10.474
71761SOL    HW117180   0.025   0.494  10.380
71761SOL    HW217181   0.024   0.424  10.514
71762SOL     OW17182   0.100   9.398   2.547
71762SOL    HW117183   0.181   9.449   2.554
71762SOL    HW217184   0.130   9.307   2.541
71763SOL     OW17185   8.665   9.796  10.011
71763SOL    HW117186   8.634   9.877  10.052
71763SOL    HW217187   8.753   9.783  10.048
71764SOL     OW17188  11.912   2.465  12.688
71764SOL    HW117189  11.900   2.445  12.595
71764SOL    HW217190  11.935   2.381  12.728
71765SOL     OW17191  14.725   5.283   9.994
71765SOL    HW117192  14.772   5.233  10.061
71765SOL    HW217193  14.760   5.250   9.911
71766SOL     OW17194   3.094   0.129  11.942
71766SOL    HW117195   3.184   0.120  11.973
71766SOL    HW217196   3.070   0.218  11.965
71767SOL     OW17197  11.495  11.966  13.906
71767SOL    HW117198  11.526  11.935  13.821
71767SOL    HW217199  11.551  12.041  13.926
71768SOL     OW17200   8.343  13.616  12.489
71768SOL    HW117201   8.417  13.556  12.492
71768SOL    HW217202   8.268  13.560  12.469
71769SOL     OW17203  10.411   0.198   9.167
71769SOL    HW117204  10.494   0.177   9.210
71769SOL    HW217205  10.366   0.114   9.160
71770SOL     OW17206  13.451   3.185   2.740
71770SOL    HW117207  13.497   3.103   2.721
71770SOL    HW217208  13.520   3.252   2.741
71771SOL     OW17209   3.793  13.561   9.292
71771SOL    HW117210   3.870  13.617   9.297
71771SOL    HW217211   3.744  13.581   9.371
71772SOL     OW17212  12.185   7.462   4.867
71772SOL    HW117213  12.169   7.378   4.912
71772SOL    HW217214  12.269   7.491   4.901
71773SOL     OW17215   1.784  13.979   1.710
71773SOL    HW117216   1.711  14.035   1.737
71773SOL    HW217217   1.812  13.935   1.791
71774SOL     OW17218   6.082   3.052   7.578
71774SOL    HW117219   6.002   3.103   7.596
71774SOL    HW217220   6.098   3.065   7.485
71775SOL     OW17221  10.357  13.937   8.028
71775SOL    HW117222  10.448  13.938   7.997
71775SOL    HW217223  10.321  14.021   7.999
71776SOL     OW17224  12.825   9.214   7.856
71776SOL    HW117225  12.873   9.133   7.844
71776SOL    HW217226  12.771   9.222   7.778
71777SOL     OW17227   9.962   5.487  12.598
71777SOL    HW117228   9.948   5.401  12.558
71777SOL    HW217229   9.878   5.507  12.642
71778SOL     OW17230   5.606   9.263  13.654
71778SOL    HW117231   5.528   9.302  13.614
71778SOL    HW217232   5.574   9.182  13.695
71779SOL     OW17233   8.590  10.098   5.522
71779SOL    HW117234   8.519  10.053   5.569
71779SOL    HW217235   8.636  10.029   5.475
71780SOL     OW17236   6.354   7.806  10.149
71780SOL    HW117237   6.365   7.826  10.242
71780SOL    HW217238   6.432   7.843  10.107
71781SOL     OW17239  13.016  14.569  13.441
71781SOL    HW117240  13.007  14.517  13.361
71781SOL    HW217241  13.107  14.599  13.439
71782SOL     OW17242  10.823  12.798   6.076
71782SOL    HW117243  10.848  12.810   6.168
71782SOL    HW217244  10.815  12.703   6.065
71783SOL     OW17245  12.443   1.243   9.267
71783SOL    HW117246  12.462   1.230   9.174
71783SOL    HW217247  12.528   1.232   9.311
71784SOL     OW17248  12.446   3.034  12.409
71784SOL    HW117249  12.525   2.980  12.405
71784SOL    HW217250  12.395   3.009  12.332
71785SOL     OW17251   0.611   5.649   8.654
71785SOL    HW117252   0.563   5.728   8.677
71785SOL    HW217253   0.611   5.648   8.558
71786SOL     OW17254   6.777   7.885   4.018
71786SOL    HW117255   6.731   7.895   4.101
71786SOL    HW217256   6.816   7.797   4.023
71787SOL     OW17257   7.014  12.599   3.713
71787SOL    HW117258   7.079  12.567   3.775
71787SOL    HW217259   6.930  12.585   3.756
71788SOL     OW17260  14.101   3.020  12.204
71788SOL    HW117261  14.132   3.051  12.289
71788SOL    HW217262  14.010   3.048  12.200
71789SOL     OW17263   8.298   8.107   3.350
71789SOL    HW117264   8.217   8.126   3.303
71789SOL    HW217265   8.328   8.191   3.383
71790SOL     OW17266   9.278   0.925   0.972
71790SOL    HW117267   9.258   0.908   1.064
71790SOL    HW217268   9.366   0.889   0.959
71791SOL     OW17269  13.704   1.877   5.309
71791SOL    HW117270  13.725   1.883   5.216
71791SOL    HW217271  13.675   1.787   5.321
71792SOL     OW17272   0.148   8.072   4.500
71792SOL    HW117273   0.102   8.143   4.456
71792SOL    HW217274   0.237   8.104   4.512
71793SOL     OW17275   4.375  12.722   5.477
71793SOL    HW117276   4.310  12.711   5.408
71793SOL    HW217277   4.330  12.695   5.557
71794SOL     OW17278   2.040   3.021   3.206
71794SOL    HW117279   1.946   3.019   3.188
71794SOL    HW217280   2.046   3.042   3.300
71795SOL     OW17281  14.193   2.881   7.096
71795SOL    HW117282  14.206   2.828   7.018
71795SOL    HW217283  14.100   2.874   7.115
71796SOL     OW17284  11.036  11.391   0.575
71796SOL    HW117285  11.023  11.429   0.489
71796SOL    HW217286  10.996  11.453   0.636
71797SOL     OW17287  13.167   7.988   0.345
71797SOL    HW117288  13.237   7.928   0.370
71797SOL    HW217289  13.127   7.947   0.268
71798SOL     OW17290   7.994   1.710  12.865
71798SOL    HW117291   7.994   1.630  12.814
71798SOL    HW217292   7.917   1.758  12.836
71799SOL     OW17293   6.454  14.542   4.951
71799SOL    HW117294   6.480  14.569   5.038
71799SOL    HW217295   6.433  14.624   4.906
71800SOL     OW17296   4.109   6.429  10.317
71800SOL    HW117297   4.166   6.403  10.245
71800SOL    HW217298   4.075   6.347  10.353
71801SOL     OW17299   5.114   5.110  11.005
71801SOL    HW117300   5.069   5.133  11.086
71801SOL    HW217301   5.207   5.105  11.030
71802SOL     OW17302  11.355   1.084   1.331
71802SOL    HW117303  11.415   1.033   1.276
71802SOL    HW217304  11.399   1.088   1.416
71803SOL     OW17305   6.476  11.101  12.247
71803SOL    HW117306   6.449  11.060  12.165
71803SOL    HW217307   6.417  11.065  12.312
71804SOL     OW17308  11.390   6.266  10.927
71804SOL    HW117309  11.457   6.328  10.900
71804SOL    HW217310  11.437   6.202  10.981
71805SOL     OW17311  12.443   5.809   0.724
71805SOL    HW117312  12.524   5.859   0.731
71805SOL    HW217313  12.438   5.761   0.807
71806SOL     OW17314   3.523   2.380   3.639
71806SOL    HW117315   3.602   2.357   3.590
71806SOL    HW217316   3.511   2.474   3.623
71807SOL     OW17317   5.331  14.243   5.113
71807SOL    HW117318   5.319  14.151   5.089
71807SOL    HW217319   5.418  14.246   5.154
71808SOL     OW17320  10.518   4.354  11.359
71808SOL    HW117321  10.550   4.342  11.269
71808SOL    HW217322  10.487   4.444  11.361
71809SOL     OW17323   7.129  12.670   4.099
71809SOL    HW117324   7.181  12.750   4.096
71809SOL    HW217325   7.184  12.607   4.144
71810SOL     OW17326   5.101  14.801   3.731
71810SOL    HW117327   5.101   0.013   3.757
71810SOL    HW217328   5.074  14.801   3.639
71811SOL     OW17329  11.067   1.795   9.848
71811SOL    HW117330  11.119   1.823   9.772
71811SOL    HW217331  11.124   1.734   9.894
71812SOL     OW17332   9.521  13.721   1.160
71812SOL    HW117333   9.509  13.681   1.074
71812SOL    HW217334   9.602  13.682   1.194
71813SOL     OW17335  13.682   0.144   4.102
71813SOL    HW117336  13.595   0.183   4.102
71813SOL    HW217337  13.667   0.053   4.076
71814SOL     OW17338   9.405   1.462  10.483
71814SOL    HW117339   9.382   1.371  10.501
71814SOL    HW217340   9.321   1.506  10.470
71815SOL     OW17341   3.540  13.911   6.706
71815SOL    HW117342   3.533  13.818   6.727
71815SOL    HW217343   3.459  13.949   6.738
71816SOL     OW17344  13.479   7.687  10.178
71816SOL    HW117345  13.427   7.720  10.105
71816SOL    HW217346  13.438   7.603  10.199
71817SOL     OW17347   3.485   2.191   5.756
71817SOL    HW117348   3.430   2.134   5.811
71817SOL    HW217349   3.516   2.133   5.686
71818SOL     OW17350   6.535   3.900  11.925
71818SOL    HW117351   6.478   3.948  11.864
71818SOL    HW217352   6.489   3.905  12.009
71819SOL     OW17353   1.601   8.698   8.840
71819SOL    HW117354   1.604   8.630   8.908
71819SOL    HW217355   1.690   8.734   8.838
71820SOL     OW17356  14.339  12.256   9.144
71820SOL    HW117357  14.387  12.197   9.086
71820SOL    HW217358  14.315  12.330   9.088
71821SOL     OW17359   2.148   4.750  11.591
71821SOL    HW117360   2.139   4.657  11.610
71821SOL    HW217361   2.230   4.756  11.542
71822SOL     OW17362  12.950  12.320   9.182
71822SOL    HW117363  12.885  12.285   9.242
71822SOL    HW217364  12.936  12.415   9.183
71823SOL     OW17365   1.061   8.694   8.838
71823SOL    HW117366   1.095   8.623   8.892
71823SOL    HW217367   0.967   8.677   8.832
71824SOL     OW17368   2.425   4.893  11.730
71824SOL    HW117369   2.468   4.878  11.814
71824SOL    HW217370   2.335   4.918  11.753
71825SOL     OW17371   2.768  13.806  13.668
71825SOL    HW117372   2.760  13.711  13.679
71825SOL    HW217373   2.682  13.834  13.638
71826SOL     OW17374  13.144   2.737  14.609
71826SOL    HW117375  13.229   2.782  14.610
71826SOL    HW217376  13.089   2.788  14.668
71827SOL     OW17377   8.129  12.045   8.274
71827SOL    HW117378   8.123  11.990   8.352
71827SOL    HW217379   8.187  12.116   8.299
71828SOL     OW17380   0.080   2.033   6.575
71828SOL    HW117381   0.041   2.069   6.655
71828SOL    HW217382   0.172   2.017   6.597
71829SOL     OW17383   6.297   5.910   7.962
71829SOL    HW117384   6.379   5.874   7.929
71829SOL    HW217385   6.321   5.951   8.045
71830SOL     OW17386   3.142  12.073  13.253
71830SOL    HW117387   3.199  12.137  13.211
71830SOL    HW217388   3.118  12.013  13.182
71831SOL     OW17389   8.191   6.493   5.564
71831SOL    HW117390   8.226   6.550   5.632
71831SOL    HW217391   8.205   6.542   5.482
71832SOL     OW17392  14.563   9.161  14.396
71832SOL    HW117393  14.636   9.223  14.402
71832SOL    HW217394  14.518   9.185  14.316
71833SOL     OW17395   8.404  12.984   6.152
71833SOL    HW117396   8.435  13.073   6.138
71833SOL    HW217397   8.309  12.992   6.160
71834SOL     OW17398   0.936   9.295   7.933
71834SOL    HW117399   1.012   9.349   7.910
71834SOL    HW217400   0.896   9.342   8.007
71835SOL     OW17401   8.814  12.496   5.881
71835SOL    HW117402   8.723  12.467   5.877
71835SOL    HW217403   8.857  12.450   5.810
71836SOL     OW17404   5.146   7.976   7.272
71836SOL    HW117405   5.093   7.972   7.351
71836SOL    HW217406   5.099   7.923   7.208
71837SOL     OW17407   3.550   6.200   9.582
71837SOL    HW117408   3.537   6.294   9.593
71837SOL    HW217409   3.468   6.169   9.541
71838SOL     OW17410   7.119   0.750   5.720
71838SOL    HW117411   7.150   0.688   5.654
71838SOL    HW217412   7.153   0.835   5.690
71839SOL     OW17413   7.326   4.726   2.043
71839SOL    HW117414   7.242   4.754   2.005
71839SOL    HW217415   7.390   4.785   2.004
71840SOL     OW17416   6.887  10.638   0.029
71840SOL    HW117417   6.823  10.697  14.868
71840SOL    HW217418   6.967  10.691   0.037
71841SOL     OW17419   1.552   3.739   4.154
71841SOL    HW117420   1.554   3.644   4.160
71841SOL    HW217421   1.492   3.757   4.082
71842SOL     OW17422   9.059   3.633   8.798
71842SOL    HW117423   9.085   3.584   8.876
71842SOL    HW217424   9.003   3.573   8.750
71843SOL     OW17425  12.982   9.103  13.091
71843SOL    HW117426  12.899   9.106  13.043
71843SOL    HW217427  12.957   9.104  13.183
71844SOL     OW17428  12.690   9.139   3.739
71844SOL    HW117429  12.764   9.190   3.708
71844SOL    HW217430  12.680   9.069   3.674
71845SOL     OW17431   2.535   8.228   0.868
71845SOL    HW117432   2.448   8.194   0.848
71845SOL    HW217433   2.535   8.241   0.962
71846SOL     OW17434  12.122   0.833  14.643
71846SOL    HW117435  12.137   0.824  14.737
71846SOL    HW217436  12.185   0.901  14.616
71847SOL     OW17437  10.541  11.271  13.896
71847SOL    HW117438  10.497  11.233  13.972
71847SOL    HW217439  10.632  11.243  13.906
71848SOL     OW17440   9.549   1.213   4.201
71848SOL    HW117441   9.482   1.258   4.149
71848SOL    HW217442   9.588   1.283   4.254
71849SOL     OW17443  12.545  12.099   5.808
71849SOL    HW117444  12.520  12.062   5.723
71849SOL    HW217445  12.609  12.037   5.843
71850SOL     OW17446   1.560   9.472   7.422
71850SOL    HW117447   1.509   9.395   7.396
71850SOL    HW217448   1.624   9.484   7.352
71851SOL     OW17449   0.482   6.394   3.697
71851SOL    HW117450   0.556   6.454   3.708
71851SOL    HW217451   0.423   6.416   3.769
71852SOL     OW17452   5.280   2.620  10.354
71852SOL    HW117453   5.285   2.527  10.335
71852SOL    HW217454   5.241   2.625  10.442
71853SOL     OW17455   6.814   6.813   8.138
71853SOL    HW117456   6.756   6.875   8.183
71853SOL    HW217457   6.885   6.868   8.104
71854SOL     OW17458   3.262   0.117   5.578
71854SOL    HW117459   3.184   0.113   5.633
71854SOL    HW217460   3.253   0.043   5.517
71855SOL     OW17461   0.527   3.125   3.952
71855SOL    HW117462   0.543   3.119   3.858
71855SOL    HW217463   0.613   3.113   3.993
71856SOL     OW17464   2.092   6.583  13.228
71856SOL    HW117465   2.092   6.598  13.134
71856SOL    HW217466   2.000   6.593  13.254
71857SOL     OW17467   8.712  14.544   3.580
71857SOL    HW117468   8.807  14.543   3.571
71857SOL    HW217469   8.685  14.454   3.560
71858SOL     OW17470  12.118   7.330   4.591
71858SOL    HW117471  12.186   7.376   4.542
71858SOL    HW217472  12.122   7.368   4.679
71859SOL     OW17473   4.513   0.908   6.122
71859SOL    HW117474   4.420   0.892   6.107
71859SOL    HW217475   4.551   0.913   6.034
71860SOL     OW17476   2.720   9.868   4.149
71860SOL    HW117477   2.800   9.835   4.109
71860SOL    HW217478   2.728   9.845   4.241
71861SOL     OW17479   5.095   5.867   0.960
71861SOL    HW117480   5.150   5.791   0.981
71861SOL    HW217481   5.027   5.831   0.902
71862SOL     OW17482   7.249   9.211   9.820
71862SOL    HW117483   7.222   9.299   9.847
71862SOL    HW217484   7.176   9.178   9.769
71863SOL     OW17485   2.125   5.208   4.259
71863SOL    HW117486   2.169   5.222   4.175
71863SOL    HW217487   2.187   5.158   4.311
71864SOL     OW17488  12.729   3.625   0.311
71864SOL    HW117489  12.698   3.541   0.277
71864SOL    HW217490  12.812   3.640   0.267
71865SOL     OW17491   8.098   5.710  12.609
71865SOL    HW117492   8.023   5.763  12.580
71865SOL    HW217493   8.173   5.768  12.599
71866SOL     OW17494  10.019   7.937   2.558
71866SOL    HW117495  10.075   7.927   2.635
71866SOL    HW217496  10.078   7.968   2.489
71867SOL     OW17497   5.590   5.286  13.639
71867SOL    HW117498   5.508   5.261  13.680
71867SOL    HW217499   5.652   5.217  13.664
71868SOL     OW17500  12.887   0.378   6.980
71868SOL    HW117501  12.809   0.429   6.957
71868SOL    HW217502  12.959   0.420   6.934
71869SOL     OW17503   5.652   7.570   1.901
71869SOL    HW117504   5.682   7.510   1.833
71869SOL    HW217505   5.562   7.591   1.876
71870SOL     OW17506   1.689  10.889  13.041
71870SOL    HW117507   1.648  10.845  13.115
71870SOL    HW217508   1.783  10.875  13.054
71871SOL     OW17509   6.418   5.065  10.804
71871SOL    HW117510   6.408   5.150  10.761
71871SOL    HW217511   6.352   5.066  10.874
71872SOL     OW17512  12.030   9.041  12.139
71872SOL    HW117513  12.029   9.136  12.155
71872SOL    HW217514  11.940   9.020  12.114
71873SOL     OW17515   3.364  11.631  13.420
71873SOL    HW117516   3.305  11.679  13.361
71873SOL    HW217517   3.373  11.688  13.496
71874SOL     OW17518   6.497   1.062   9.891
71874SOL    HW117519   6.553   1.098   9.960
71874SOL    HW217520   6.414   1.042   9.935
71875SOL     OW17521   5.708   8.241   5.682
71875SOL    HW117522   5.662   8.317   5.719
71875SOL    HW217523   5.692   8.248   5.588
71876SOL     OW17524   8.129  14.314   8.392
71876SOL    HW117525   8.123  14.249   8.462
71876SOL    HW217526   8.047  14.306   8.344
71877SOL     OW17527   4.869   4.748   9.362
71877SOL    HW117528   4.850   4.747   9.456
71877SOL    HW217529   4.959   4.778   9.356
71878SOL     OW17530   4.572  12.613  14.604
71878SOL    HW117531   4.649  12.567  14.637
71878SOL    HW217532   4.545  12.670  14.675
71879SOL     OW17533  10.553  11.427   9.447
71879SOL    HW117534  10.503  11.464   9.520
71879SOL    HW217535  10.637  11.402   9.486
71880SOL     OW17536  10.492   9.189   4.921
71880SOL    HW117537  10.412   9.144   4.948
71880SOL    HW217538  10.528   9.134   4.852
71881SOL     OW17539   2.365  14.155  13.535
71881SOL    HW117540   2.413  14.218  13.589
71881SOL    HW217541   2.293  14.126  13.590
71882SOL     OW17542  10.956   8.538   1.946
71882SOL    HW117543  11.039   8.495   1.966
71882SOL    HW217544  10.920   8.488   1.873
71883SOL     OW17545  11.649   7.387  10.428
71883SOL    HW117546  11.714   7.458  10.423
71883SOL    HW217547  11.567   7.432  10.447
71884SOL     OW17548  12.784  14.197   7.130
71884SOL    HW117549  12.762  14.193   7.037
71884SOL    HW217550  12.872  14.159   7.135
71885SOL     OW17551   7.495   9.113   1.930
71885SOL    HW117552   7.544   9.120   2.012
71885SOL    HW217553   7.526   9.032   1.890
71886SOL     OW17554   2.884  13.559   3.917
71886SOL    HW117555   2.968  13.600   3.938
71886SOL    HW217556   2.826  13.633   3.898
71887SOL     OW17557   2.095   4.070   3.661
71887SOL    HW117558   2.181   4.089   3.623
71887SOL    HW217559   2.037   4.136   3.624
71888SOL     OW17560  10.173  12.401   6.741
71888SOL    HW117561  10.201  12.347   6.815
71888SOL    HW217562  10.243  12.466   6.731
71889SOL     OW17563  10.953  12.942   6.755
71889SOL    HW117564  10.891  12.965   6.686
71889SOL    HW217565  10.953  13.017   6.814
71890SOL     OW17566   7.019  10.140   2.607
71890SOL    HW117567   6.946  10.111   2.661
71890SOL    HW217568   7.004  10.234   2.596
71891SOL     OW17569  10.211   7.816   2.851
71891SOL    HW117570  10.259   7.748   2.898
71891SOL    HW217571  10.274   7.852   2.789
71892SOL     OW17572   4.944   1.458   8.192
71892SOL    HW117573   4.959   1.537   8.140
71892SOL    HW217574   4.849   1.458   8.209
71893SOL     OW17575   5.292   0.953   9.556
71893SOL    HW117576   5.238   1.019   9.599
71893SOL    HW217577   5.297   0.881   9.618
71894SOL     OW17578   6.052   3.056  14.527
71894SOL    HW117579   6.146   3.069  14.518
71894SOL    HW217580   6.015   3.144  14.522
71895SOL     OW17581  12.668   3.379   1.049
71895SOL    HW117582  12.701   3.462   1.083
71895SOL    HW217583  12.741   3.318   1.059
71896SOL     OW17584   5.059   2.697   3.161
71896SOL    HW117585   5.095   2.611   3.138
71896SOL    HW217586   4.969   2.695   3.127
71897SOL     OW17587   3.618   5.824   4.045
71897SOL    HW117588   3.523   5.812   4.048
71897SOL    HW217589   3.646   5.820   4.136
71898SOL     OW17590   6.284   3.106   1.445
71898SOL    HW117591   6.327   3.148   1.519
71898SOL    HW217592   6.328   3.143   1.368
71899SOL     OW17593   1.964   6.696  13.909
71899SOL    HW117594   1.943   6.656  13.994
71899SOL    HW217595   2.049   6.737  13.923
71900SOL     OW17596  10.051   8.174  12.775
71900SOL    HW117597  10.128   8.198  12.723
71900SOL    HW217598   9.983   8.157  12.710
71901SOL     OW17599   9.727   6.935   1.314
71901SOL    HW117600   9.812   6.978   1.300
71901SOL    HW217601   9.741   6.845   1.282
71902SOL     OW17602   5.171   5.372  10.876
71902SOL    HW117603   5.173   5.362  10.780
71902SOL    HW217604   5.169   5.282  10.909
71903SOL     OW17605  13.245   9.988   5.741
71903SOL    HW117606  13.242  10.047   5.666
71903SOL    HW217607  13.323   9.934   5.727
71904SOL     OW17608   3.901   8.827   2.568
71904SOL    HW117609   3.963   8.886   2.523
71904SOL    HW217610   3.821   8.880   2.578
71905SOL     OW17611   9.919  10.222   9.840
71905SOL    HW117612   9.834  10.217   9.885
71905SOL    HW217613   9.898  10.209   9.748
71906SOL     OW17614  11.349  13.982   2.970
71906SOL    HW117615  11.435  13.985   2.928
71906SOL    HW217616  11.343  14.065   3.018
71907SOL     OW17617  14.365  12.338   2.599
71907SOL    HW117618  14.378  12.428   2.626
71907SOL    HW217619  14.389  12.286   2.676
71908SOL     OW17620  10.136  13.667   7.295
71908SOL    HW117621  10.180  13.752   7.303
71908SOL    HW217622  10.149  13.626   7.381
71909SOL     OW17623   5.291  11.197   2.600
71909SOL    HW117624   5.282  11.163   2.689
71909SOL    HW217625   5.323  11.123   2.548
71910SOL     OW17626   4.660   2.903   1.566
71910SOL    HW117627   4.601   2.942   1.501
71910SOL    HW217628   4.718   2.846   1.514
71911SOL     OW17629  10.821   5.612   2.031
71911SOL    HW117630  10.847   5.694   2.071
71911SOL    HW217631  10.840   5.545   2.097
71912SOL     OW17632   8.099   9.452   6.558
71912SOL    HW117633   8.106   9.436   6.652
71912SOL    HW217634   8.081   9.546   6.551
71913SOL     OW17635   3.430  11.503   2.886
71913SOL    HW117636   3.414  11.539   2.973
71913SOL    HW217637   3.525  11.492   2.882
71914SOL     OW17638  11.853  12.429   2.893
71914SOL    HW117639  11.926  12.395   2.944
71914SOL    HW217640  11.887  12.435   2.804
71915SOL     OW17641   1.462   3.957  14.253
71915SOL    HW117642   1.538   3.905  14.228
71915SOL    HW217643   1.447   3.937  14.345
71916SOL     OW17644   0.377  14.219  12.962
71916SOL    HW117645   0.341  14.204  13.050
71916SOL    HW217646   0.346  14.306  12.938
71917SOL     OW17647  14.701   0.005   4.913
71917SOL    HW117648  14.685   0.094   4.883
71917SOL    HW217649  14.750   0.015   4.994
71918SOL     OW17650   1.279   2.560  11.005
71918SOL    HW117651   1.253   2.519  11.088
71918SOL    HW217652   1.317   2.488  10.955
71919SOL     OW17653   5.029   8.560   1.232
71919SOL    HW117654   5.055   8.578   1.141
71919SOL    HW217655   5.068   8.475   1.252
71920SOL     OW17656   1.573  12.150  11.898
71920SOL    HW117657   1.610  12.148  11.986
71920SOL    HW217658   1.532  12.064  11.888
71921SOL     OW17659   4.056  12.185   8.986
71921SOL    HW117660   3.983  12.194   9.048
71921SOL    HW217661   4.126  12.144   9.038
71922SOL     OW17662   0.393   2.988   2.472
71922SOL    HW117663   0.393   2.943   2.556
71922SOL    HW217664   0.441   3.069   2.488
71923SOL     OW17665   9.042   9.294   3.321
71923SOL    HW117666   9.130   9.298   3.358
71923SOL    HW217667   9.018   9.385   3.304
71924SOL     OW17668   2.493  11.862   0.763
71924SOL    HW117669   2.482  11.956   0.779
71924SOL    HW217670   2.560  11.857   0.695
71925SOL     OW17671   6.457   7.535   7.848
71925SOL    HW117672   6.498   7.611   7.888
71925SOL    HW217673   6.486   7.461   7.901
71926SOL     OW17674   9.480   0.128   1.318
71926SOL    HW117675   9.405   0.121   1.259
71926SOL    HW217676   9.447   0.182   1.390
71927SOL     OW17677   9.308   4.518  12.128
71927SOL    HW117678   9.222   4.557  12.112
71927SOL    HW217679   9.369   4.592  12.130
71928SOL     OW17680   5.542  14.538   8.274
71928SOL    HW117681   5.582  14.618   8.308
71928SOL    HW217682   5.466  14.569   8.224
71929SOL     OW17683   4.264   9.014   9.451
71929SOL    HW117684   4.312   8.971   9.381
71929SOL    HW217685   4.319   9.088   9.476
71930SOL     OW17686   7.775   4.150  13.156
71930SOL    HW117687   7.722   4.226  13.180
71930SOL    HW217688   7.744   4.126  13.068
71931SOL     OW17689   4.707   1.663   5.856
71931SOL    HW117690   4.672   1.575   5.845
71931SOL    HW217691   4.791   1.660   5.810
71932SOL     OW17692   9.118   0.338  10.429
71932SOL    HW117693   9.037   0.354  10.479
71932SOL    HW217694   9.175   0.291  10.490
71933SOL     OW17695   7.703  11.342   3.857
71933SOL    HW117696   7.727  11.350   3.765
71933SOL    HW217697   7.627  11.399   3.867
71934SOL     OW17698   9.007   7.604  12.280
71934SOL    HW117699   8.963   7.678  12.322
71934SOL    HW217700   8.937   7.562  12.228
71935SOL     OW17701  11.001   2.898   6.501
71935SOL    HW117702  10.972   2.818   6.458
71935SOL    HW217703  11.019   2.871   6.591
71936SOL     OW17704   7.760   5.198   7.728
71936SOL    HW117705   7.781   5.104   7.732
71936SOL    HW217706   7.795   5.226   7.643
71937SOL     OW17707   4.051   8.703   2.991
71937SOL    HW117708   4.104   8.665   3.061
71937SOL    HW217709   4.015   8.627   2.945
71938SOL     OW17710   9.406   7.079   2.024
71938SOL    HW117711   9.372   7.162   1.991
71938SOL    HW217712   9.331   7.020   2.022
71939SOL     OW17713   6.423   0.813  12.213
71939SOL    HW117714   6.387   0.726  12.232
71939SOL    HW217715   6.483   0.799  12.140
71940SOL     OW17716   6.475   9.240  11.539
71940SOL    HW117717   6.540   9.310  11.539
71940SOL    HW217718   6.429   9.251  11.456
71941SOL     OW17719   6.524   2.859   9.426
71941SOL    HW117720   6.597   2.863   9.489
71941SOL    HW217721   6.452   2.904   9.470
71942SOL     OW17722   4.544  14.286   9.570
71942SOL    HW117723   4.621  14.302   9.516
71942SOL    HW217724   4.515  14.374   9.597
71943SOL     OW17725  11.392   3.534  11.247
71943SOL    HW117726  11.357   3.450  11.218
71943SOL    HW217727  11.466   3.551  11.189
71944SOL     OW17728  13.659  14.298  14.468
71944SOL    HW117729  13.753  14.280  14.467
71944SOL    HW217730  13.619  14.215  14.493
71945SOL     OW17731  14.139  12.521   6.934
71945SOL    HW117732  14.133  12.589   6.867
71945SOL    HW217733  14.069  12.460   6.913
71946SOL     OW17734  13.279   0.236   4.498
71946SOL    HW117735  13.244   0.149   4.478
71946SOL    HW217736  13.207   0.295   4.478
71947SOL     OW17737   5.231   3.509  10.816
71947SOL    HW117738   5.247   3.592  10.771
71947SOL    HW217739   5.136   3.498  10.814
71948SOL     OW17740   1.876  14.235  10.479
71948SOL    HW117741   1.951  14.185  10.511
71948SOL    HW217742   1.858  14.200  10.392
71949SOL     OW17743  10.531  13.488  13.826
71949SOL    HW117744  10.464  13.556  13.820
71949SOL    HW217745  10.490  13.410  13.788
71950SOL     OW17746   8.925  12.671   4.007
71950SOL    HW117747   9.003  12.655   3.954
71950SOL    HW217748   8.944  12.629   4.091
71951SOL     OW17749   7.445  10.317   9.713
71951SOL    HW117750   7.371  10.311   9.652
71951SOL    HW217751   7.404  10.315   9.800
71952SOL     OW17752   4.010  14.109   8.453
71952SOL    HW117753   4.010  14.075   8.542
71952SOL    HW217754   3.917  14.113   8.429
71953SOL     OW17755   3.728   9.813   5.304
71953SOL    HW117756   3.737   9.800   5.398
71953SOL    HW217757   3.663   9.749   5.276
71954SOL     OW17758   6.033   3.859   6.437
71954SOL    HW117759   5.983   3.905   6.369
71954SOL    HW217760   6.005   3.768   6.429
71955SOL     OW17761   2.461  12.095   5.011
71955SOL    HW117762   2.541  12.119   5.058
71955SOL    HW217763   2.483  12.107   4.918
71956SOL     OW17764  13.254   5.203   8.734
71956SOL    HW117765  13.324   5.146   8.702
71956SOL    HW217766  13.174   5.154   8.718
71957SOL     OW17767  14.051   6.984  13.348
71957SOL    HW117768  14.025   7.070  13.381
71957SOL    HW217769  13.977   6.955  13.295
71958SOL     OW17770  13.038   3.639  13.292
71958SOL    HW117771  12.982   3.709  13.326
71958SOL    HW217772  13.122   3.681  13.274
71959SOL     OW17773   0.551  14.512   1.662
71959SOL    HW117774   0.539  14.600   1.624
71959SOL    HW217775   0.498  14.455   1.607
71960SOL     OW17776   9.086  12.447  10.958
71960SOL    HW117777   9.032  12.384  10.909
71960SOL    HW217778   9.060  12.532  10.923
71961SOL     OW17779   0.799   0.431   6.994
71961SOL    HW117780   0.844   0.347   6.998
71961SOL    HW217781   0.763   0.444   7.082
71962SOL     OW17782   1.410   3.550  11.724
71962SOL    HW117783   1.348   3.611  11.683
71962SOL    HW217784   1.355   3.494  11.779
71963SOL     OW17785   6.224   9.503   2.843
71963SOL    HW117786   6.214   9.407   2.846
71963SOL    HW217787   6.251   9.521   2.753
71964SOL     OW17788  13.789  10.610   2.694
71964SOL    HW117789  13.836  10.650   2.766
71964SOL    HW217790  13.751  10.683   2.645
71965SOL     OW17791   2.547   1.507   8.079
71965SOL    HW117792   2.610   1.486   8.010
71965SOL    HW217793   2.461   1.487   8.041
71966SOL     OW17794   0.657   4.927   3.291
71966SOL    HW117795   0.633   4.842   3.254
71966SOL    HW217796   0.626   4.991   3.227
71967SOL     OW17797   3.175   3.235   3.913
71967SOL    HW117798   3.197   3.147   3.944
71967SOL    HW217799   3.118   3.271   3.981
71968SOL     OW17800   5.767  14.300  11.617
71968SOL    HW117801   5.735  14.219  11.656
71968SOL    HW217802   5.816  14.272  11.540
71969SOL     OW17803   4.411   8.405   4.658
71969SOL    HW117804   4.424   8.408   4.564
71969SOL    HW217805   4.400   8.312   4.678
71970SOL     OW17806   4.541   5.536   7.411
71970SOL    HW117807   4.523   5.520   7.318
71970SOL    HW217808   4.546   5.449   7.450
71971SOL     OW17809   1.826   4.795  11.043
71971SOL    HW117810   1.781   4.752  10.970
71971SOL    HW217811   1.854   4.723  11.100
71972SOL     OW17812  13.385   9.859  10.425
71972SOL    HW117813  13.390   9.954  10.437
71972SOL    HW217814  13.408   9.823  10.510
71973SOL     OW17815  12.428  12.340   7.243
71973SOL    HW117816  12.399  12.250   7.254
71973SOL    HW217817  12.347  12.388   7.223
71974SOL     OW17818   9.506   9.899  10.532
71974SOL    HW117819   9.559   9.974  10.504
71974SOL    HW217820   9.528   9.830  10.470
71975SOL     OW17821   8.336   6.855  10.261
71975SOL    HW117822   8.393   6.795  10.212
71975SOL    HW217823   8.307   6.803  10.336
71976SOL     OW17824   1.499   5.670  14.006
71976SOL    HW117825   1.485   5.670  14.101
71976SOL    HW217826   1.579   5.618  13.994
71977SOL     OW17827   3.849   3.843  13.289
71977SOL    HW117828   3.841   3.938  13.275
71977SOL    HW217829   3.828   3.831  13.382
71978SOL     OW17830   5.254   8.937  10.217
71978SOL    HW117831   5.189   8.980  10.272
71978SOL    HW217832   5.314   8.895  10.278
71979SOL     OW17833   3.867   9.700   0.373
71979SOL    HW117834   3.910   9.762   0.315
71979SOL    HW217835   3.887   9.730   0.461
71980SOL     OW17836   3.941   3.383   2.316
71980SOL    HW117837   3.851   3.411   2.334
71980SOL    HW217838   3.991   3.464   2.307
71981SOL     OW17839  10.182   9.189   7.691
71981SOL    HW117840  10.092   9.219   7.687
71981SOL    HW217841  10.221   9.218   7.608
71982SOL     OW17842   8.439   6.506   7.375
71982SOL    HW117843   8.534   6.516   7.380
71982SOL    HW217844   8.405   6.595   7.381
71983SOL     OW17845   3.698  11.088  11.270
71983SOL    HW117846   3.686  11.162  11.210
71983SOL    HW217847   3.759  11.030  11.225
71984SOL     OW17848   4.440  12.926   8.582
71984SOL    HW117849   4.453  12.894   8.671
71984SOL    HW217850   4.473  13.016   8.584
71985SOL     OW17851  13.707   8.921   7.634
71985SOL    HW117852  13.793   8.887   7.659
71985SOL    HW217853  13.707   8.918   7.538
71986SOL     OW17854   2.686   2.606   6.411
71986SOL    HW117855   2.727   2.561   6.485
71986SOL    HW217856   2.759   2.625   6.352
71987SOL     OW17857  11.348   2.546   3.911
71987SOL    HW117858  11.438   2.516   3.895
71987SOL    HW217859  11.299   2.465   3.929
71988SOL     OW17860  11.788   4.929   7.321
71988SOL    HW117861  11.778   4.852   7.377
71988SOL    HW217862  11.714   4.926   7.261
71989SOL     OW17863   4.294   6.996  13.195
71989SOL    HW117864   4.304   7.081  13.152
71989SOL    HW217865   4.209   7.002  13.240
71990SOL     OW17866   9.366   4.546  12.400
71990SOL    HW117867   9.382   4.453  12.410
71990SOL    HW217868   9.363   4.561  12.306
71991SOL     OW17869   8.071  10.594  12.014
71991SOL    HW117870   8.018  10.516  12.034
71991SOL    HW217871   8.007  10.661  11.989
71992SOL     OW17872   6.574   8.817   6.583
71992SOL    HW117873   6.501   8.758   6.561
71992SOL    HW217874   6.597   8.795   6.673
71993SOL     OW17875   0.160  12.597   2.131
71993SOL    HW117876   0.156  12.645   2.048
71993SOL    HW217877   0.074  12.554   2.137
71994SOL     OW17878   3.215  12.274   6.471
71994SOL    HW117879   3.196  12.181   6.476
71994SOL    HW217880   3.136  12.316   6.505
71995SOL     OW17881   2.365   0.734   7.043
71995SOL    HW117882   2.311   0.812   7.026
71995SOL    HW217883   2.320   0.689   7.115
71996SOL     OW17884   6.117   5.135  14.550
71996SOL    HW117885   6.126   5.059  14.493
71996SOL    HW217886   6.182   5.197  14.517
71997SOL     OW17887   5.436   9.351   7.257
71997SOL    HW117888   5.467   9.261   7.246
71997SOL    HW217889   5.349   9.351   7.217
71998SOL     OW17890   8.659  10.662  11.608
71998SOL    HW117891   8.720  10.710  11.553
71998SOL    HW217892   8.600  10.728  11.644
71999SOL     OW17893   7.169   3.517   9.220
71999SOL    HW117894   7.195   3.486   9.133
71999SOL    HW217895   7.157   3.612   9.208
72000SOL     OW17896   5.694  10.043   6.919
72000SOL    HW117897   5.599  10.038   6.906
72000SOL    HW217898   5.705  10.069   7.010
72001SOL     OW17899  13.672   2.363  12.250
72001SOL    HW117900  13.738   2.374  12.319
72001SOL    HW217901  13.715   2.307  12.185
72002SOL     OW17902  13.217  14.690   1.246
72002SOL    HW117903  13.185  14.751   1.180
72002SOL    HW217904  13.142  14.636   1.269
72003SOL     OW17905  11.442  13.145   5.823
72003SOL    HW117906  11.520  13.195   5.849
72003SOL    HW217907  11.381  13.211   5.789
72004SOL     OW17908  11.218  10.764   9.048
72004SOL    HW117909  11.123  10.754   9.055
72004SOL    HW217910  11.233  10.859   9.048
72005SOL     OW17911   2.100   7.372  13.478
72005SOL    HW117912   2.082   7.301  13.540
72005SOL    HW217913   2.179   7.345  13.432
72006SOL     OW17914   2.430  13.649  14.652
72006SOL    HW117915   2.361  13.583  14.647
72006SOL    HW217916   2.502  13.605  14.696
72007SOL     OW17917   4.209   2.624   3.432
72007SOL    HW117918   4.131   2.576   3.405
72007SOL    HW217919   4.175   2.705   3.470
72008SOL     OW17920   5.356  12.787   0.463
72008SOL    HW117921   5.360  12.830   0.377
72008SOL    HW217922   5.362  12.859   0.526
72009SOL     OW17923   8.282   9.770   8.091
72009SOL    HW117924   8.218   9.790   8.160
72009SOL    HW217925   8.260   9.681   8.063
72010SOL     OW17926   4.011   7.721   3.083
72010SOL    HW117927   4.005   7.748   2.992
72010SOL    HW217928   3.956   7.783   3.130
72011SOL     OW17929   6.024   9.788  11.174
72011SOL    HW117930   6.087   9.856  11.199
72011SOL    HW217931   6.074   9.706  11.179
72012SOL     OW17932   7.554   5.370   6.380
72012SOL    HW117933   7.523   5.280   6.368
72012SOL    HW217934   7.477   5.424   6.366
72013SOL     OW17935  11.867   3.275  14.186
72013SOL    HW117936  11.933   3.259  14.254
72013SOL    HW217937  11.803   3.204  14.197
72014SOL     OW17938   3.411   8.171   4.426
72014SOL    HW117939   3.330   8.134   4.460
72014SOL    HW217940   3.471   8.170   4.501
72015SOL     OW17941   0.615   1.611  14.748
72015SOL    HW117942   0.669   1.679  14.708
72015SOL    HW217943   0.606   1.638  14.839
72016SOL     OW17944  11.076   5.022   3.550
72016SOL    HW117945  11.103   5.102   3.596
72016SOL    HW217946  11.143   5.009   3.483
72017SOL     OW17947   1.599   2.743   4.880
72017SOL    HW117948   1.693   2.738   4.862
72017SOL    HW217949   1.593   2.739   4.975
72018SOL     OW17950  10.571   6.824   2.681
72018SOL    HW117951  10.481   6.808   2.709
72018SOL    HW217952  10.596   6.905   2.727
72019SOL     OW17953  11.183   7.767   7.702
72019SOL    HW117954  11.253   7.766   7.637
72019SOL    HW217955  11.126   7.694   7.676
72020SOL     OW17956   3.975   3.516  10.464
72020SOL    HW117957   3.993   3.521  10.370
72020SOL    HW217958   4.052   3.555  10.505
72021SOL     OW17959   3.016  10.987   7.297
72021SOL    HW117960   3.046  10.896   7.295
72021SOL    HW217961   3.016  11.014   7.205
72022SOL     OW17962   3.080   4.892   3.472
72022SOL    HW117963   3.131   4.957   3.521
72022SOL    HW217964   3.033   4.942   3.406
72023SOL     OW17965   9.167   4.885   6.150
72023SOL    HW117966   9.231   4.820   6.121
72023SOL    HW217967   9.174   4.886   6.245
72024SOL     OW17968   1.796   3.255   8.843
72024SOL    HW117969   1.743   3.199   8.786
72024SOL    HW217970   1.886   3.224   8.830
72025SOL     OW17971   2.107   5.269   8.657
72025SOL    HW117972   2.109   5.321   8.577
72025SOL    HW217973   2.192   5.285   8.698
72026SOL     OW17974   4.992   5.072   7.990
72026SOL    HW117975   4.930   5.100   7.923
72026SOL    HW217976   5.031   4.992   7.954
72027SOL     OW17977   5.714   3.877  12.631
72027SOL    HW117978   5.664   3.943  12.583
72027SOL    HW217979   5.720   3.911  12.720
72028SOL     OW17980   1.395   1.416  14.234
72028SOL    HW117981   1.317   1.441  14.284
72028SOL    HW217982   1.392   1.321  14.230
72029SOL     OW17983  10.692   0.151   6.952
72029SOL    HW117984  10.656   0.062   6.956
72029SOL    HW217985  10.637   0.201   7.013
72030SOL     OW17986   9.934   6.837   5.353
72030SOL    HW117987   9.855   6.802   5.311
72030SOL    HW217988  10.006   6.792   5.309
72031SOL     OW17989   2.184  10.289   2.675
72031SOL    HW117990   2.276  10.270   2.657
72031SOL    HW217991   2.167  10.250   2.760
72032SOL     OW17992   5.956  11.647  12.862
72032SOL    HW117993   5.876  11.595  12.875
72032SOL    HW217994   5.932  11.711  12.795
72033SOL     OW17995   8.579  14.497   9.133
72033SOL    HW117996   8.533  14.423   9.172
72033SOL    HW217997   8.510  14.553   9.099
72034SOL     OW17998   6.323  12.915   2.331
72034SOL    HW117999   6.315  12.956   2.417
72034SOL    HW218000   6.380  12.974   2.281
72035SOL     OW18001   6.140   4.170   3.781
72035SOL    HW118002   6.093   4.229   3.722
72035SOL    HW218003   6.108   4.192   3.868
72036SOL     OW18004   2.467   8.536  12.438
72036SOL    HW118005   2.552   8.534  12.394
72036SOL    HW218006   2.404   8.526  12.366
72037SOL     OW18007  11.203   9.636   3.681
72037SOL    HW118008  11.145   9.692   3.630
72037SOL    HW218009  11.148   9.562   3.708
72038SOL     OW18010   0.622   5.614   0.108
72038SOL    HW118011   0.633   5.649   0.020
72038SOL    HW218012   0.698   5.648   0.156
72039SOL     OW18013   6.384   5.222  12.311
72039SOL    HW118014   6.414   5.248  12.224
72039SOL    HW218015   6.463   5.187  12.353
72040SOL     OW18016  10.546   0.665  12.604
72040SOL    HW118017  10.485   0.600  12.570
72040SOL    HW218018  10.623   0.656  12.548
72041SOL     OW18019  14.357   5.202   1.898
72041SOL    HW118020  14.374   5.287   1.937
72041SOL    HW218021  14.291   5.220   1.831
72042SOL     OW18022   3.412   5.328   5.807
72042SOL    HW118023   3.486   5.365   5.759
72042SOL    HW218024   3.340   5.389   5.792
72043SOL     OW18025  13.294   3.938  12.363
72043SOL    HW118026  13.372   3.896  12.398
72043SOL    HW218027  13.328   4.000  12.299
72044SOL     OW18028   4.129   2.121  11.852
72044SOL    HW118029   4.185   2.050  11.882
72044SOL    HW218030   4.107   2.170  11.932
72045SOL     OW18031  14.692  13.677   2.434
72045SOL    HW118032  14.614  13.659   2.381
72045SOL    HW218033  14.761  13.695   2.370
72046SOL     OW18034   2.841  12.132   4.419
72046SOL    HW118035   2.853  12.182   4.338
72046SOL    HW218036   2.929  12.126   4.457
72047SOL     OW18037  14.310  13.855   8.349
72047SOL    HW118038  14.319  13.799   8.426
72047SOL    HW218039  14.275  13.798   8.281
72048SOL     OW18040   4.941   1.674   2.697
72048SOL    HW118041   4.869   1.657   2.636
72048SOL    HW218042   4.918   1.622   2.775
72049SOL     OW18043   9.418   7.680   5.265
72049SOL    HW118044   9.450   7.768   5.249
72049SOL    HW218045   9.328   7.680   5.232
72050SOL     OW18046   9.465  12.987  10.405
72050SOL    HW118047   9.460  12.897  10.437
72050SOL    HW218048   9.419  12.985  10.321
72051SOL     OW18049  14.347  14.292  14.827
72051SOL    HW118050  14.260  14.275  14.863
72051SOL    HW218051  14.394  14.337   0.017
72052SOL     OW18052  12.538  11.307   1.667
72052SOL    HW118053  12.450  11.326   1.698
72052SOL    HW218054  12.596  11.338   1.737
72053SOL     OW18055   4.539   8.073  12.646
72053SOL    HW118056   4.461   8.060  12.592
72053SOL    HW218057   4.581   7.987  12.648
72054SOL     OW18058   0.598   8.203   7.577
72054SOL    HW118059   0.608   8.294   7.551
72054SOL    HW218060   0.525   8.203   7.639
72055SOL     OW18061   6.106   1.863   4.203
72055SOL    HW118062   6.112   1.873   4.109
72055SOL    HW218063   6.182   1.810   4.228
72056SOL     OW18064   7.022  13.241   6.595
72056SOL    HW118065   6.959  13.213   6.661
72056SOL    HW218066   7.050  13.160   6.553
72057SOL     OW18067   8.895  13.026   8.431
72057SOL    HW118068   8.846  13.105   8.457
72057SOL    HW218069   8.976  13.059   8.393
72058SOL     OW18070   2.466   8.649   5.799
72058SOL    HW118071   2.406   8.602   5.741
72058SOL    HW218072   2.483   8.588   5.870
72059SOL     OW18073   9.285   8.444  13.488
72059SOL    HW118074   9.254   8.412  13.403
72059SOL    HW218075   9.302   8.537  13.473
72060SOL     OW18076   6.170  11.850  12.490
72060SOL    HW118077   6.253  11.804  12.499
72060SOL    HW218078   6.113  11.787  12.445
72061SOL     OW18079   7.915   6.032   8.263
72061SOL    HW118080   7.926   6.077   8.179
72061SOL    HW218081   7.826   5.997   8.260
72062SOL     OW18082   1.191   5.414   1.527
72062SOL    HW118083   1.205   5.415   1.622
72062SOL    HW218084   1.116   5.472   1.513
72063SOL     OW18085   8.164  10.643  11.438
72063SOL    HW118086   8.162  10.668  11.530
72063SOL    HW218087   8.088  10.687  11.400
72064SOL     OW18088   0.804   2.489  13.545
72064SOL    HW118089   0.862   2.528  13.480
72064SOL    HW218090   0.818   2.395  13.537
72065SOL     OW18091   7.097   0.147  10.518
72065SOL    HW118092   7.077   0.148  10.425
72065SOL    HW218093   7.059   0.229  10.551
72066SOL     OW18094   6.318  13.532   8.253
72066SOL    HW118095   6.229  13.550   8.222
72066SOL    HW218096   6.312  13.445   8.292
72067SOL     OW18097  10.481   3.752  14.370
72067SOL    HW118098  10.467   3.664  14.405
72067SOL    HW218099  10.570   3.751  14.335
72068SOL     OW18100  10.493   5.874   6.440
72068SOL    HW118101  10.436   5.847   6.512
72068SOL    HW218102  10.455   5.833   6.362
72069SOL     OW18103   6.665  14.341   6.856
72069SOL    HW118104   6.675  14.366   6.764
72069SOL    HW218105   6.755  14.337   6.889
72070SOL     OW18106   6.096   0.852   8.069
72070SOL    HW118107   6.150   0.807   8.004
72070SOL    HW218108   6.158   0.874   8.139
72071SOL     OW18109  13.325   0.476  11.778
72071SOL    HW118110  13.254   0.479  11.714
72071SOL    HW218111  13.283   0.451  11.860
72072SOL     OW18112   6.562  10.132   6.366
72072SOL    HW118113   6.470  10.112   6.380
72072SOL    HW218114   6.574  10.122   6.271
72073SOL     OW18115   8.958   2.684   8.930
72073SOL    HW118116   8.961   2.768   8.885
72073SOL    HW218117   8.870   2.650   8.912
72074SOL     OW18118   3.160   0.133  11.458
72074SOL    HW118119   3.080   0.093  11.492
72074SOL    HW218120   3.218   0.140  11.533
72075SOL     OW18121   6.996   0.385  10.589
72075SOL    HW118122   6.970   0.426  10.672
72075SOL    HW218123   6.962   0.443  10.522
72076SOL     OW18124   0.935   8.573   3.178
72076SOL    HW118125   0.924   8.661   3.214
72076SOL    HW218126   0.849   8.532   3.187
72077SOL     OW18127   0.090   6.808   5.321
72077SOL    HW118128   0.152   6.740   5.345
72077SOL    HW218129   0.025   6.764   5.265
72078SOL     OW18130   6.011   7.551   2.906
72078SOL    HW118131   6.072   7.617   2.874
72078SOL    HW218132   6.044   7.528   2.993
72079SOL     OW18133  10.262  13.810   8.863
72079SOL    HW118134  10.312  13.858   8.929
72079SOL    HW218135  10.308  13.828   8.781
72080SOL     OW18136   7.182   7.436   0.379
72080SOL    HW118137   7.218   7.451   0.292
72080SOL    HW218138   7.154   7.523   0.409
72081SOL     OW18139   8.094  11.530   6.519
72081SOL    HW118140   8.176  11.537   6.470
72081SOL    HW218141   8.050  11.455   6.480
72082SOL     OW18142   4.650  14.489   8.246
72082SOL    HW118143   4.556  14.470   8.251
72082SOL    HW218144   4.688  14.439   8.319
72083SOL     OW18145   2.206  13.007   8.312
72083SOL    HW118146   2.263  12.981   8.239
72083SOL    HW218147   2.215  12.935   8.375
72084SOL     OW18148   6.500   9.055  11.718
72084SOL    HW118149   6.591   9.030  11.733
72084SOL    HW218150   6.505   9.124  11.651
72085SOL     OW18151  14.681  10.338   6.178
72085SOL    HW118152  14.638  10.352   6.093
72085SOL    HW218153  14.634  10.395   6.239
72086SOL     OW18154   7.869  14.313   7.389
72086SOL    HW118155   7.876  14.363   7.308
72086SOL    HW218156   7.920  14.234   7.373
72087SOL     OW18157   2.048   2.058   4.579
72087SOL    HW118158   2.122   2.103   4.538
72087SOL    HW218159   1.993   2.030   4.505
72088SOL     OW18160   1.980   1.484   7.657
72088SOL    HW118161   1.920   1.484   7.582
72088SOL    HW218162   1.928   1.451   7.730
72089SOL     OW18163   0.597   9.241   9.249
72089SOL    HW118164   0.513   9.209   9.218
72089SOL    HW218165   0.661   9.204   9.188
72090SOL     OW18166   4.967   7.778   7.214
72090SOL    HW118167   4.882   7.753   7.249
72090SOL    HW218168   5.022   7.701   7.229
72091SOL     OW18169  14.804  13.922   7.986
72091SOL    HW118170   0.001  13.877   8.021
72091SOL    HW218171  14.745  13.931   8.061
72092SOL     OW18172   7.308  13.256  12.051
72092SOL    HW118173   7.356  13.277  12.132
72092SOL    HW218174   7.248  13.186  12.077
72093SOL     OW18175   4.938  12.680   7.909
72093SOL    HW118176   4.957  12.719   7.824
72093SOL    HW218177   5.024  12.655   7.944
72094SOL     OW18178  11.874  14.602  10.349
72094SOL    HW118179  11.783  14.602  10.379
72094SOL    HW218180  11.923  14.640  10.421
72095SOL     OW18181  13.194   5.784   2.973
72095SOL    HW118182  13.287   5.770   2.958
72095SOL    HW218183  13.179   5.875   2.950
72096SOL     OW18184   0.660   4.506   0.051
72096SOL    HW118185   0.703   4.469  14.853
72096SOL    HW218186   0.731   4.543   0.103
72097SOL     OW18187   3.395  14.183   9.785
72097SOL    HW118188   3.456  14.182   9.711
72097SOL    HW218189   3.450  14.168   9.862
72098SOL     OW18190   2.617  11.451   8.104
72098SOL    HW118191   2.653  11.471   8.018
72098SOL    HW218192   2.680  11.487   8.166
72099SOL     OW18193   1.820   0.960  12.283
72099SOL    HW118194   1.879   0.974  12.357
72099SOL    HW218195   1.800   1.049  12.252
72100SOL     OW18196   0.789   8.762   5.435
72100SOL    HW118197   0.804   8.836   5.494
72100SOL    HW218198   0.846   8.780   5.360
72101SOL     OW18199   5.052   5.247   6.399
72101SOL    HW118200   5.085   5.174   6.452
72101SOL    HW218201   4.977   5.211   6.351
72102SOL     OW18202   4.652   5.117   1.260
72102SOL    HW118203   4.717   5.142   1.325
72102SOL    HW218204   4.694   5.046   1.210
72103SOL     OW18205   7.090   9.630   3.444
72103SOL    HW118206   7.073   9.711   3.396
72103SOL    HW218207   7.178   9.604   3.417
72104SOL     OW18208  14.448   9.145  13.305
72104SOL    HW118209  14.432   9.228  13.351
72104SOL    HW218210  14.476   9.172  13.217
72105SOL     OW18211   2.495   8.879   7.881
72105SOL    HW118212   2.410   8.917   7.860
72105SOL    HW218213   2.476   8.787   7.899
72106SOL     OW18214   0.490   3.221   2.864
72106SOL    HW118215   0.573   3.175   2.879
72106SOL    HW218216   0.515   3.312   2.848
72107SOL     OW18217   7.613  13.828   8.281
72107SOL    HW118218   7.586  13.747   8.237
72107SOL    HW218219   7.696  13.852   8.239
72108SOL     OW18220   9.177  14.288   0.165
72108SOL    HW118221   9.180  14.312   0.072
72108SOL    HW218222   9.173  14.372   0.211
72109SOL     OW18223  10.918   5.581   6.968
72109SOL    HW118224  10.985   5.595   6.902
72109SOL    HW218225  10.910   5.665   7.013
72110SOL     OW18226   1.636  14.416  13.381
72110SOL    HW118227   1.648  14.508  13.361
72110SOL    HW218228   1.618  14.375  13.296
72111SOL     OW18229  11.504   3.005   3.590
72111SOL    HW118230  11.440   3.019   3.660
72111SOL    HW218231  11.454   3.020   3.509
72112SOL     OW18232   6.186   2.097   9.359
72112SOL    HW118233   6.261   2.072   9.305
72112SOL    HW218234   6.111   2.088   9.301
72113SOL     OW18235  13.139  14.621  10.989
72113SOL    HW118236  13.145  14.591  10.898
72113SOL    HW218237  13.175  14.710  10.988
72114SOL     OW18238  10.248   1.882   2.851
72114SOL    HW118239  10.320   1.864   2.911
72114SOL    HW218240  10.197   1.801   2.850
72115SOL     OW18241   4.480   6.962  13.369
72115SOL    HW118242   4.520   6.885  13.328
72115SOL    HW218243   4.399   6.975  13.320
72116SOL     OW18244   1.244  12.469  11.281
72116SOL    HW118245   1.227  12.432  11.194
72116SOL    HW218246   1.328  12.514  11.272
72117SOL     OW18247   2.495  11.003   7.878
72117SOL    HW118248   2.411  10.983   7.837
72117SOL    HW218249   2.483  11.089   7.917
72118SOL     OW18250   2.271  12.525   0.847
72118SOL    HW118251   2.295  12.487   0.931
72118SOL    HW218252   2.348  12.576   0.821
72119SOL     OW18253   8.879  12.118   6.058
72119SOL    HW118254   8.890  12.058   6.132
72119SOL    HW218255   8.814  12.181   6.088
72120SOL     OW18256   6.032   2.543  12.959
72120SOL    HW118257   6.000   2.623  12.917
72120SOL    HW218258   5.964   2.478  12.942
72121SOL     OW18259   8.687   4.119   7.468
72121SOL    HW118260   8.699   4.165   7.551
72121SOL    HW218261   8.645   4.184   7.411
72122SOL     OW18262   8.538   0.784  12.417
72122SOL    HW118263   8.557   0.876  12.431
72122SOL    HW218264   8.622   0.740  12.431
72123SOL     OW18265   5.195   8.397  10.297
72123SOL    HW118266   5.215   8.304  10.288
72123SOL    HW218267   5.166   8.423  10.210
72124SOL     OW18268  14.257  10.240  14.603
72124SOL    HW118269  14.168  10.274  14.602
72124SOL    HW218270  14.300  10.290  14.673
72125SOL     OW18271  12.629  14.199   6.834
72125SOL    HW118272  12.535  14.205   6.855
72125SOL    HW218273  12.631  14.178   6.741
72126SOL     OW18274  14.643   8.770  14.578
72126SOL    HW118275  14.610   8.854  14.610
72126SOL    HW218276  14.569   8.731  14.533
72127SOL     OW18277   5.294  11.018  11.545
72127SOL    HW118278   5.305  10.930  11.507
72127SOL    HW218279   5.226  11.007  11.611
72128SOL     OW18280   2.403  14.593   7.456
72128SOL    HW118281   2.492  14.561   7.439
72128SOL    HW218282   2.399  14.678   7.411
72129SOL     OW18283  11.782  10.494   0.493
72129SOL    HW118284  11.747  10.407   0.511
72129SOL    HW218285  11.708  10.543   0.457
72130SOL     OW18286  14.162  13.969   3.410
72130SOL    HW118287  14.145  14.004   3.323
72130SOL    HW218288  14.229  14.026   3.446
72131SOL     OW18289   6.215  12.814   7.261
72131SOL    HW118290   6.279  12.883   7.242
72131SOL    HW218291   6.176  12.841   7.344
72132SOL     OW18292   5.640   4.466   5.716
72132SOL    HW118293   5.714   4.488   5.658
72132SOL    HW218294   5.599   4.550   5.736
72133SOL     OW18295  12.628  14.775  14.802
72133SOL    HW118296  12.578  14.815  14.730
72133SOL    HW218297  12.668  14.849  14.847
72134SOL     OW18298   6.588  11.176   7.937
72134SOL    HW118299   6.536  11.096   7.936
72134SOL    HW218300   6.677  11.147   7.915
72135SOL     OW18301  13.005   5.130   6.766
72135SOL    HW118302  12.947   5.137   6.842
72135SOL    HW218303  13.076   5.192   6.785
72136SOL     OW18304  11.135   8.073   8.828
72136SOL    HW118305  11.075   7.998   8.819
72136SOL    HW218306  11.107   8.116   8.909
72137SOL     OW18307   5.069  11.198  14.578
72137SOL    HW118308   5.043  11.218  14.668
72137SOL    HW218309   5.105  11.109  14.583
72138SOL     OW18310  10.360   8.729   8.456
72138SOL    HW118311  10.376   8.749   8.548
72138SOL    HW218312  10.277   8.773   8.436
72139SOL     OW18313   2.383   6.886   0.494
72139SOL    HW118314   2.387   6.981   0.481
72139SOL    HW218315   2.318   6.874   0.564
72140SOL     OW18316  14.166   9.638  10.151
72140SOL    HW118317  14.204   9.597  10.073
72140SOL    HW218318  14.122   9.566  10.197
72141SOL     OW18319   3.824  12.124  12.344
72141SOL    HW118320   3.859  12.036  12.345
72141SOL    HW218321   3.885  12.176  12.397
72142SOL     OW18322  13.826  12.470   4.818
72142SOL    HW118323  13.806  12.408   4.747
72142SOL    HW218324  13.772  12.441   4.891
72143SOL     OW18325  10.430   4.835   8.362
72143SOL    HW118326  10.435   4.836   8.266
72143SOL    HW218327  10.398   4.922   8.386
72144SOL     OW18328  14.092  12.133   9.517
72144SOL    HW118329  14.129  12.129   9.605
72144SOL    HW218330  14.076  12.041   9.494
72145SOL     OW18331   5.683   5.594   9.799
72145SOL    HW118332   5.643   5.618   9.883
72145SOL    HW218333   5.711   5.504   9.811
72146SOL     OW18334  11.358   8.570   1.228
72146SOL    HW118335  11.430   8.585   1.168
72146SOL    HW218336  11.280   8.599   1.180
72147SOL     OW18337   0.893  13.428   7.116
72147SOL    HW118338   0.956  13.452   7.185
72147SOL    HW218339   0.915  13.338   7.094
72148SOL     OW18340   0.699  10.179   9.340
72148SOL    HW118341   0.605  10.184   9.323
72148SOL    HW218342   0.729  10.270   9.332
72149SOL     OW18343   2.497  13.102   2.293
72149SOL    HW118344   2.546  13.062   2.364
72149SOL    HW218345   2.426  13.150   2.336
72150SOL     OW18346   8.668   7.159  14.870
72150SOL    HW118347   8.730   7.218  14.828
72150SOL    HW218348   8.708   7.072  14.862
72151SOL     OW18349   7.867  13.536   0.098
72151SOL    HW118350   7.843  13.593   0.171
72151SOL    HW218351   7.785  13.496   0.070
72152SOL     OW18352   2.603   5.746  11.491
72152SOL    HW118353   2.561   5.830  11.511
72152SOL    HW218354   2.693   5.770  11.467
72153SOL     OW18355   6.329   6.517   6.405
72153SOL    HW118356   6.311   6.601   6.362
72153SOL    HW218357   6.416   6.528   6.443
72154SOL     OW18358   3.943  12.603   5.548
72154SOL    HW118359   3.923  12.514   5.518
72154SOL    HW218360   3.861  12.634   5.588
72155SOL     OW18361  11.055   3.189  10.948
72155SOL    HW118362  11.113   3.127  10.904
72155SOL    HW218363  10.967   3.158  10.928
72156SOL     OW18364   2.030   6.468  10.644
72156SOL    HW118365   1.993   6.440  10.559
72156SOL    HW218366   2.120   6.494  10.623
72157SOL     OW18367   8.492   9.453   2.857
72157SOL    HW118368   8.435   9.529   2.851
72157SOL    HW218369   8.494   9.432   2.950
72158SOL     OW18370  11.442   8.717   1.450
72158SOL    HW118371  11.440   8.689   1.358
72158SOL    HW218372  11.535   8.728   1.470
72159SOL     OW18373   9.713  14.865   4.080
72159SOL    HW118374   9.807  14.874   4.093
72159SOL    HW218375   9.687   0.067   4.037
72160SOL     OW18376   1.805   4.129   2.965
72160SOL    HW118377   1.852   4.202   2.925
72160SOL    HW218378   1.754   4.090   2.894
72161SOL     OW18379   9.292   1.288   1.187
72161SOL    HW118380   9.281   1.366   1.132
72161SOL    HW218381   9.264   1.215   1.131
72162SOL     OW18382  14.342   2.007  10.292
72162SOL    HW118383  14.386   2.021  10.208
72162SOL    HW218384  14.412   2.007  10.356
72163SOL     OW18385  11.281   4.594   9.275
72163SOL    HW118386  11.260   4.674   9.324
72163SOL    HW218387  11.320   4.626   9.193
72164SOL     OW18388   2.719   3.006   3.282
72164SOL    HW118389   2.646   3.046   3.328
72164SOL    HW218390   2.707   3.033   3.191
72165SOL     OW18391   8.012   0.710   4.417
72165SOL    HW118392   8.101   0.686   4.443
72165SOL    HW218393   7.963   0.712   4.499
72166SOL     OW18394   3.909   0.615  11.044
72166SOL    HW118395   3.939   0.542  11.098
72166SOL    HW218396   3.825   0.584  11.008
72167SOL     OW18397   0.074   9.630   7.471
72167SOL    HW118398  14.860   9.643   7.482
72167SOL    HW218399   0.114   9.687   7.537
72168SOL     OW18400  13.434  12.321   1.985
72168SOL    HW118401  13.513  12.366   1.959
72168SOL    HW218402  13.413  12.263   1.912
72169SOL     OW18403   8.131   3.772   9.456
72169SOL    HW118404   8.182   3.788   9.377
72169SOL    HW218405   8.193   3.788   9.528
72170SOL     OW18406   9.631   8.843  13.472
72170SOL    HW118407   9.711   8.798  13.447
72170SOL    HW218408   9.604   8.891  13.394
72171SOL     OW18409   9.048   8.044   6.961
72171SOL    HW118410   9.012   8.048   7.050
72171SOL    HW218411   9.019   7.959   6.928
72172SOL     OW18412   4.069   7.947  12.456
72172SOL    HW118413   4.053   8.024  12.401
72172SOL    HW218414   4.145   7.971  12.508
72173SOL     OW18415   5.075   9.426   8.380
72173SOL    HW118416   5.040   9.496   8.326
72173SOL    HW218417   5.120   9.472   8.452
72174SOL     OW18418  11.907   9.609   9.506
72174SOL    HW118419  11.832   9.615   9.448
72174SOL    HW218420  11.882   9.543   9.571
72175SOL     OW18421  12.771  11.373   1.541
72175SOL    HW118422  12.837  11.311   1.571
72175SOL    HW218423  12.688  11.337   1.573
72176SOL     OW18424  14.858   1.987   5.263
72176SOL    HW118425   0.003   2.025   5.179
72176SOL    HW218426  14.769   2.020   5.279
72177SOL     OW18427  12.207   7.623   0.533
72177SOL    HW118428  12.120   7.658   0.514
72177SOL    HW218429  12.237   7.672   0.610
72178SOL     OW18430  14.858   0.655   1.691
72178SOL    HW118431  14.798   0.699   1.630
72178SOL    HW218432  14.871   0.719   1.761
72179SOL     OW18433  14.639  12.926   4.546
72179SOL    HW118434  14.666  12.847   4.497
72179SOL    HW218435  14.715  12.948   4.600
72180SOL     OW18436   1.311   8.728  14.202
72180SOL    HW118437   1.383   8.665  14.210
72180SOL    HW218438   1.352   8.812  14.220
72181SOL     OW18439   2.191   1.434   7.502
72181SOL    HW118440   2.227   1.356   7.545
72181SOL    HW218441   2.104   1.444   7.542
72182SOL     OW18442  11.582  14.020   1.057
72182SOL    HW118443  11.573  13.925   1.066
72182SOL    HW218444  11.645  14.045   1.125
72183SOL     OW18445  11.771  13.208   2.728
72183SOL    HW118446  11.686  13.180   2.761
72183SOL    HW218447  11.811  13.128   2.694
72184SOL     OW18448   0.765  11.673   2.506
72184SOL    HW118449   0.859  11.688   2.491
72184SOL    HW218450   0.744  11.726   2.583
72185SOL     OW18451   2.166  12.037  14.154
72185SOL    HW118452   2.181  12.128  14.177
72185SOL    HW218453   2.237  11.989  14.198
72186SOL     OW18454   6.845   9.576   5.240
72186SOL    HW118455   6.871   9.651   5.293
72186SOL    HW218456   6.922   9.555   5.188
72187SOL     OW18457  14.723   0.004   5.636
72187SOL    HW118458  14.800   0.052   5.606
72187SOL    HW218459  14.682   0.062   5.701
72188SOL     OW18460  10.301   0.071   1.358
72188SOL    HW118461  10.396   0.074   1.372
72188SOL    HW218462  10.271   0.159   1.379
72189SOL     OW18463  11.314  14.343   9.396
72189SOL    HW118464  11.278  14.283   9.331
72189SOL    HW218465  11.400  14.367   9.362
72190SOL     OW18466  11.200   8.945   4.338
72190SOL    HW118467  11.137   9.016   4.324
72190SOL    HW218468  11.168   8.874   4.283
72191SOL     OW18469   9.380   2.647  10.048
72191SOL    HW118470   9.313   2.592  10.088
72191SOL    HW218471   9.368   2.733  10.089
72192SOL     OW18472   3.986  12.697   8.196
72192SOL    HW118473   3.935  12.637   8.250
72192SOL    HW218474   3.940  12.701   8.113
72193SOL     OW18475  12.028  11.618  10.411
72193SOL    HW118476  11.972  11.638  10.486
72193SOL    HW218477  11.970  11.630  10.335
72194SOL     OW18478   8.450   4.871   4.242
72194SOL    HW118479   8.524   4.814   4.260
72194SOL    HW218480   8.489   4.958   4.232
72195SOL     OW18481  12.603  10.316  12.948
72195SOL    HW118482  12.639  10.405  12.952
72195SOL    HW218483  12.680  10.260  12.938
72196SOL     OW18484   3.725  12.017   8.944
72196SOL    HW118485   3.659  11.958   8.906
72196SOL    HW218486   3.676  12.093   8.973
72197SOL     OW18487  13.969   9.908  11.454
72197SOL    HW118488  13.881   9.943  11.466
72197SOL    HW218489  13.956   9.816  11.430
72198SOL     OW18490  14.642  12.149   5.443
72198SOL    HW118491  14.681  12.068   5.409
72198SOL    HW218492  14.717  12.203   5.467
72199SOL     OW18493   8.750   1.390   6.263
72199SOL    HW118494   8.785   1.429   6.343
72199SOL    HW218495   8.658   1.418   6.261
72200SOL     OW18496   1.786   4.054  14.283
72200SOL    HW118497   1.744   4.135  14.254
72200SOL    HW218498   1.776   3.994  14.209
72201SOL     OW18499   5.263   2.931  13.178
72201SOL    HW118500   5.252   3.021  13.146
72201SOL    HW218501   5.174   2.898  13.189
72202SOL     OW18502   3.064  14.721   9.754
72202SOL    HW118503   3.015  14.647   9.791
72202SOL    HW218504   3.155  14.692   9.754
72203SOL     OW18505   4.554   5.033  10.935
72203SOL    HW118506   4.468   5.067  10.957
72203SOL    HW218507   4.605   5.041  11.016
72204SOL     OW18508   3.677  12.541   3.965
72204SOL    HW118509   3.675  12.602   3.892
72204SOL    HW218510   3.603  12.483   3.950
72205SOL     OW18511   9.638   4.334   0.229
72205SOL    HW118512   9.653   4.246   0.195
72205SOL    HW218513   9.689   4.390   0.171
72206SOL     OW18514   6.422  14.189  11.751
72206SOL    HW118515   6.419  14.176  11.657
72206SOL    HW218516   6.340  14.152  11.783
72207SOL     OW18517   9.345  12.929   3.339
72207SOL    HW118518   9.362  13.022   3.321
72207SOL    HW218519   9.250  12.924   3.353
72208SOL     OW18520   0.509   2.795   3.442
72208SOL    HW118521   0.506   2.867   3.379
72208SOL    HW218522   0.455   2.825   3.515
72209SOL     OW18523   9.128   8.537   8.515
72209SOL    HW118524   9.097   8.611   8.463
72209SOL    HW218525   9.215   8.518   8.479
72210SOL     OW18526   5.711  12.458   3.774
72210SOL    HW118527   5.728  12.371   3.810
72210SOL    HW218528   5.632  12.447   3.720
72211SOL     OW18529   1.620   2.567  11.542
72211SOL    HW118530   1.607   2.521  11.459
72211SOL    HW218531   1.615   2.660  11.518
72212SOL     OW18532  11.952   5.400   2.200
72212SOL    HW118533  11.924   5.318   2.160
72212SOL    HW218534  11.982   5.374   2.288
72213SOL     OW18535   0.421   1.610   5.309
72213SOL    HW118536   0.370   1.602   5.389
72213SOL    HW218537   0.480   1.683   5.326
72214SOL     OW18538  11.919  10.052   3.336
72214SOL    HW118539  11.934  10.038   3.429
72214SOL    HW218540  11.858  10.126   3.332
72215SOL     OW18541  11.649   5.520   6.695
72215SOL    HW118542  11.584   5.544   6.629
72215SOL    HW218543  11.726   5.572   6.674
72216SOL     OW18544  11.374  14.331  12.028
72216SOL    HW118545  11.363  14.236  12.018
72216SOL    HW218546  11.297  14.360  12.075
72217SOL     OW18547   6.843   6.432  11.775
72217SOL    HW118548   6.918   6.380  11.744
72217SOL    HW218549   6.833   6.501  11.709
72218SOL     OW18550   9.645  11.970   4.305
72218SOL    HW118551   9.641  11.877   4.328
72218SOL    HW218552   9.706  12.008   4.368
72219SOL     OW18553   5.124   4.786  11.804
72219SOL    HW118554   5.111   4.853  11.871
72219SOL    HW218555   5.040   4.783  11.757
72220SOL     OW18556   4.414   6.336   2.480
72220SOL    HW118557   4.348   6.394   2.444
72220SOL    HW218558   4.386   6.248   2.454
72221SOL     OW18559  12.724   2.028  14.380
72221SOL    HW118560  12.779   2.103  14.401
72221SOL    HW218561  12.635   2.062  14.379
72222SOL     OW18562   4.395  10.337  10.378
72222SOL    HW118563   4.472  10.355  10.323
72222SOL    HW218564   4.345  10.273  10.329
72223SOL     OW18565  14.152   1.858   0.266
72223SOL    HW118566  14.154   1.769   0.302
72223SOL    HW218567  14.084   1.902   0.316
72224SOL     OW18568   5.689   0.532   6.226
72224SOL    HW118569   5.600   0.520   6.259
72224SOL    HW218570   5.699   0.627   6.217
72225SOL     OW18571  13.003  14.834   4.059
72225SOL    HW118572  13.051   0.031   4.028
72225SOL    HW218573  12.993  14.848   4.153
72226SOL     OW18574   9.878  11.952   7.867
72226SOL    HW118575   9.898  11.859   7.859
72226SOL    HW218576   9.827  11.958   7.948
72227SOL     OW18577   9.838   4.366   3.834
72227SOL    HW118578   9.823   4.300   3.901
72227SOL    HW218579   9.877   4.318   3.761
72228SOL     OW18580  13.964  13.469   6.771
72228SOL    HW118581  13.896  13.514   6.720
72228SOL    HW218582  13.924  13.386   6.797
72229SOL     OW18583   9.569  10.426  14.731
72229SOL    HW118584   9.616  10.414  14.649
72229SOL    HW218585   9.493  10.480  14.709
72230SOL     OW18586   9.053  11.346   9.748
72230SOL    HW118587   8.965  11.379   9.762
72230SOL    HW218588   9.094  11.348   9.835
72231SOL     OW18589   7.564   2.063  10.827
72231SOL    HW118590   7.471   2.073  10.810
72231SOL    HW218591   7.577   2.096  10.916
72232SOL     OW18592   7.508  11.736   5.175
72232SOL    HW118593   7.587  11.766   5.219
72232SOL    HW218594   7.458  11.691   5.244
72233SOL     OW18595  11.812   3.516   6.727
72233SOL    HW118596  11.825   3.604   6.691
72233SOL    HW218597  11.793   3.461   6.651
72234SOL     OW18598   5.760  11.754   4.700
72234SOL    HW118599   5.839  11.806   4.684
72234SOL    HW218600   5.767  11.726   4.791
72235SOL     OW18601  10.135   6.356  13.909
72235SOL    HW118602  10.194   6.404  13.968
72235SOL    HW218603  10.189   6.334  13.834
72236SOL     OW18604   6.017   2.781  14.515
72236SOL    HW118605   5.993   2.765  14.424
72236SOL    HW218606   6.033   2.876  14.518
72237SOL     OW18607   9.062  13.382   7.701
72237SOL    HW118608   9.047  13.410   7.611
72237SOL    HW218609   9.023  13.450   7.755
72238SOL     OW18610   9.103   9.138   5.415
72238SOL    HW118611   9.068   9.149   5.327
72238SOL    HW218612   9.142   9.050   5.415
72239SOL     OW18613   2.392  13.066   0.778
72239SOL    HW118614   2.313  13.120   0.782
72239SOL    HW218615   2.365  12.982   0.814
72240SOL     OW18616  11.780   8.460   3.236
72240SOL    HW118617  11.782   8.414   3.320
72240SOL    HW218618  11.773   8.390   3.171
72241SOL     OW18619  10.416   1.540   3.978
72241SOL    HW118620  10.428   1.603   3.907
72241SOL    HW218621  10.325   1.550   4.005
72242SOL     OW18622   6.297  11.643  12.220
72242SOL    HW118623   6.260  11.659  12.133
72242SOL    HW218624   6.221  11.643  12.279
72243SOL     OW18625   4.028   8.206   7.356
72243SOL    HW118626   4.018   8.299   7.340
72243SOL    HW218627   4.008   8.195   7.449
72244SOL     OW18628  10.400  13.879   2.698
72244SOL    HW118629  10.343  13.950   2.668
72244SOL    HW218630  10.391  13.880   2.794
72245SOL     OW18631  13.986   1.090   1.636
72245SOL    HW118632  13.898   1.055   1.640
72245SOL    HW218633  13.975   1.185   1.643
72246SOL     OW18634   0.608  12.663   3.663
72246SOL    HW118635   0.520  12.682   3.629
72246SOL    HW218636   0.646  12.749   3.680
72247SOL     OW18637   1.169   9.898  11.198
72247SOL    HW118638   1.133   9.984  11.217
72247SOL    HW218639   1.188   9.859  11.283
72248SOL     OW18640  14.658  10.962  11.149
72248SOL    HW118641  14.611  10.880  11.164
72248SOL    HW218642  14.601  11.030  11.186
72249SOL     OW18643  13.396   8.217   5.827
72249SOL    HW118644  13.430   8.152   5.888
72249SOL    HW218645  13.334   8.269   5.878
72250SOL     OW18646  13.854   2.103  10.848
72250SOL    HW118647  13.863   2.056  10.765
72250SOL    HW218648  13.792   2.050  10.898
72251SOL     OW18649  11.950   5.599   4.393
72251SOL    HW118650  11.960   5.521   4.448
72251SOL    HW218651  11.895   5.571   4.321
72252SOL     OW18652  14.131   7.632   7.266
72252SOL    HW118653  14.187   7.583   7.326
72252SOL    HW218654  14.098   7.706   7.318
72253SOL     OW18655   4.162   5.091   1.821
72253SOL    HW118656   4.106   5.165   1.845
72253SOL    HW218657   4.213   5.124   1.747
72254SOL     OW18658   2.271  12.258  13.409
72254SOL    HW118659   2.274  12.353  13.411
72254SOL    HW218660   2.334  12.233  13.342
72255SOL     OW18661  10.616  13.330   9.280
72255SOL    HW118662  10.651  13.249   9.242
72255SOL    HW218663  10.588  13.305   9.368
72256SOL     OW18664   4.672   1.156  14.318
72256SOL    HW118665   4.633   1.191  14.398
72256SOL    HW218666   4.766   1.165  14.331
72257SOL     OW18667   2.007   7.806   4.940
72257SOL    HW118668   1.981   7.898   4.934
72257SOL    HW218669   1.973   7.765   4.861
72258SOL     OW18670   5.660   4.812  14.038
72258SOL    HW118671   5.646   4.886  13.980
72258SOL    HW218672   5.635   4.844  14.125
72259SOL     OW18673  10.094   3.291   7.156
72259SOL    HW118674  10.175   3.253   7.191
72259SOL    HW218675  10.064   3.228   7.090
72260SOL     OW18676   4.927   7.218   7.311
72260SOL    HW118677   5.007   7.212   7.363
72260SOL    HW218678   4.884   7.134   7.324
72261SOL     OW18679   5.386   3.602   1.045
72261SOL    HW118680   5.447   3.530   1.026
72261SOL    HW218681   5.304   3.558   1.067
72262SOL     OW18682   1.099   0.568  13.582
72262SOL    HW118683   1.032   0.500  13.587
72262SOL    HW218684   1.054   0.648  13.609
72263SOL     OW18685  11.828   9.998   2.491
72263SOL    HW118686  11.734   9.998   2.503
72263SOL    HW218687  11.862   9.952   2.568
72264SOL     OW18688   8.043  11.916  10.307
72264SOL    HW118689   8.060  11.969  10.228
72264SOL    HW218690   8.102  11.842  10.299
72265SOL     OW18691   5.203   5.772   2.064
72265SOL    HW118692   5.144   5.711   2.021
72265SOL    HW218693   5.238   5.826   1.993
72266SOL     OW18694  12.206   0.695   0.295
72266SOL    HW118695  12.215   0.600   0.303
72266SOL    HW218696  12.159   0.721   0.374
72267SOL     OW18697  12.445   0.788   9.068
72267SOL    HW118698  12.369   0.844   9.051
72267SOL    HW218699  12.421   0.738   9.146
72268SOL     OW18700   4.046   3.829   2.918
72268SOL    HW118701   4.058   3.897   2.852
72268SOL    HW218702   4.121   3.838   2.976
72269SOL     OW18703   1.273  14.282   8.479
72269SOL    HW118704   1.208  14.341   8.441
72269SOL    HW218705   1.300  14.226   8.407
72270SOL     OW18706   2.852   0.748   3.142
72270SOL    HW118707   2.829   0.775   3.231
72270SOL    HW218708   2.948   0.755   3.139
72271SOL     OW18709  11.104   6.111  13.058
72271SOL    HW118710  11.047   6.085  13.130
72271SOL    HW218711  11.192   6.109  13.095
72272SOL     OW18712   5.642  12.232   1.068
72272SOL    HW118713   5.727  12.237   1.112
72272SOL    HW218714   5.640  12.309   1.011
72273SOL     OW18715   3.524  10.989   0.400
72273SOL    HW118716   3.494  10.923   0.462
72273SOL    HW218717   3.616  10.969   0.387
72274SOL     OW18718  14.189   5.123   7.184
72274SOL    HW118719  14.157   5.150   7.098
72274SOL    HW218720  14.184   5.028   7.183
72275SOL     OW18721   3.284   5.324  11.432
72275SOL    HW118722   3.276   5.283  11.346
72275SOL    HW218723   3.228   5.402  11.427
72276SOL     OW18724   9.801   7.536   2.413
72276SOL    HW118725   9.761   7.472   2.471
72276SOL    HW218726   9.739   7.609   2.412
72277SOL     OW18727   1.144  12.289   8.768
72277SOL    HW118728   1.107  12.347   8.834
72277SOL    HW218729   1.099  12.205   8.782
72278SOL     OW18730   6.455   0.516   2.628
72278SOL    HW118731   6.520   0.578   2.594
72278SOL    HW218732   6.407   0.566   2.693
72279SOL     OW18733   7.044   0.342   0.002
72279SOL    HW118734   6.998   0.307  14.806
72279SOL    HW218735   7.137   0.328  14.863
72280SOL     OW18736   9.093   0.721   9.242
72280SOL    HW118737   9.034   0.646   9.242
72280SOL    HW218738   9.172   0.689   9.198
72281SOL     OW18739   6.275   9.953   3.953
72281SOL    HW118740   6.238  10.007   4.022
72281SOL    HW218741   6.353   9.913   3.994
72282SOL     OW18742   6.303   8.942   3.183
72282SOL    HW118743   6.274   9.033   3.194
72282SOL    HW218744   6.226   8.897   3.147
72283SOL     OW18745  11.844   4.209   7.128
72283SOL    HW118746  11.881   4.252   7.205
72283SOL    HW218747  11.879   4.258   7.053
72284SOL     OW18748   9.547  11.616   6.853
72284SOL    HW118749   9.576  11.704   6.878
72284SOL    HW218750   9.480  11.594   6.918
72285SOL     OW18751   3.206   7.467   4.957
72285SOL    HW118752   3.275   7.423   5.007
72285SOL    HW218753   3.179   7.541   5.012
72286SOL     OW18754  13.541   8.978   0.584
72286SOL    HW118755  13.578   8.978   0.673
72286SOL    HW218756  13.585   8.906   0.540
72287SOL     OW18757  12.673   8.736   4.385
72287SOL    HW118758  12.758   8.729   4.429
72287SOL    HW218759  12.617   8.674   4.431
72288SOL     OW18760  13.835   5.908   2.439
72288SOL    HW118761  13.867   5.819   2.429
72288SOL    HW218762  13.761   5.914   2.378
72289SOL     OW18763  11.864   0.100  13.091
72289SOL    HW118764  11.951   0.060  13.085
72289SOL    HW218765  11.839   0.118  13.000
72290SOL     OW18766   3.959   9.820  11.375
72290SOL    HW118767   3.918   9.761  11.439
72290SOL    HW218768   3.998   9.889  11.428
72291SOL     OW18769   8.381   3.514   2.551
72291SOL    HW118770   8.396   3.561   2.469
72291SOL    HW218771   8.419   3.428   2.538
72292SOL     OW18772  11.388   6.904   3.071
72292SOL    HW118773  11.313   6.944   3.028
72292SOL    HW218774  11.351   6.857   3.146
72293SOL     OW18775   0.998   4.011   1.013
72293SOL    HW118776   1.057   3.971   1.076
72293SOL    HW218777   0.977   4.097   1.050
72294SOL     OW18778   0.992   4.657   5.985
72294SOL    HW118779   0.897   4.661   5.994
72294SOL    HW218780   1.025   4.708   6.059
72295SOL     OW18781   4.871   9.869   0.234
72295SOL    HW118782   4.777   9.855   0.248
72295SOL    HW218783   4.914   9.808   0.293
72296SOL     OW18784  11.520   7.619   1.481
72296SOL    HW118785  11.456   7.556   1.448
72296SOL    HW218786  11.520   7.606   1.576
72297SOL     OW18787   8.162   7.366   8.307
72297SOL    HW118788   8.187   7.354   8.398
72297SOL    HW218789   8.240   7.403   8.265
72298SOL     OW18790  12.483   8.710  11.805
72298SOL    HW118791  12.526   8.769  11.744
72298SOL    HW218792  12.552   8.682  11.865
72299SOL     OW18793  12.821   9.414  11.236
72299SOL    HW118794  12.827   9.505  11.208
72299SOL    HW218795  12.783   9.368  11.161
72300SOL     OW18796   9.945   0.377   1.355
72300SOL    HW118797   9.875   0.354   1.417
72300SOL    HW218798   9.914   0.343   1.271
72301SOL     OW18799   2.447   6.518   8.709
72301SOL    HW118800   2.540   6.525   8.686
72301SOL    HW218801   2.436   6.580   8.782
72302SOL     OW18802   7.838  11.941   2.190
72302SOL    HW118803   7.876  11.934   2.278
72302SOL    HW218804   7.754  11.897   2.197
72303SOL     OW18805  11.021   2.739   1.562
72303SOL    HW118806  10.995   2.819   1.610
72303SOL    HW218807  10.941   2.687   1.559
72304SOL     OW18808   7.311   4.672   6.817
72304SOL    HW118809   7.405   4.663   6.836
72304SOL    HW218810   7.298   4.623   6.736
72305SOL     OW18811   9.578   9.843  10.018
72305SOL    HW118812   9.559   9.937  10.024
72305SOL    HW218813   9.494   9.803   9.995
72306SOL     OW18814   1.103   5.922  13.106
72306SOL    HW118815   1.143   5.973  13.177
72306SOL    HW218816   1.144   5.955  13.026
72307SOL     OW18817   7.465  13.902  10.157
72307SOL    HW118818   7.526  13.828  10.168
72307SOL    HW218819   7.429  13.915  10.245
72308SOL     OW18820  10.249   2.925  14.489
72308SOL    HW118821  10.303   2.905  14.566
72308SOL    HW218822  10.304   2.981  14.435
72309SOL     OW18823   1.313   2.366   6.077
72309SOL    HW118824   1.290   2.410   5.995
72309SOL    HW218825   1.294   2.273   6.061
72310SOL     OW18826   2.545   1.467  10.818
72310SOL    HW118827   2.541   1.422  10.734
72310SOL    HW218828   2.638   1.463  10.843
72311SOL     OW18829   7.238   3.068   4.418
72311SOL    HW118830   7.293   3.050   4.494
72311SOL    HW218831   7.223   3.163   4.422
72312SOL     OW18832  14.752   1.867  10.267
72312SOL    HW118833  14.753   1.885  10.361
72312SOL    HW218834  14.783   1.948  10.226
72313SOL     OW18835   9.353  13.717  13.671
72313SOL    HW118836   9.279  13.735  13.613
72313SOL    HW218837   9.350  13.787  13.737
72314SOL     OW18838   7.495  12.991   9.538
72314SOL    HW118839   7.466  13.038   9.459
72314SOL    HW218840   7.525  12.906   9.505
72315SOL     OW18841   8.878  11.135  11.976
72315SOL    HW118842   8.962  11.149  11.933
72315SOL    HW218843   8.821  11.099  11.907
72316SOL     OW18844  11.071   8.358   3.123
72316SOL    HW118845  11.063   8.354   3.028
72316SOL    HW218846  11.042   8.272   3.153
72317SOL     OW18847   7.722  10.609   0.015
72317SOL    HW118848   7.765  10.635   0.096
72317SOL    HW218849   7.748  10.676  14.831
72318SOL     OW18850   0.095   0.901  14.282
72318SOL    HW118851   0.022   0.951  14.245
72318SOL    HW218852   0.053   0.837  14.339
72319SOL     OW18853   3.413   9.319   4.976
72319SOL    HW118854   3.499   9.342   4.940
72319SOL    HW218855   3.433   9.269   5.055
72320SOL     OW18856   1.008  13.647  12.954
72320SOL    HW118857   0.953  13.648  13.033
72320SOL    HW218858   0.993  13.732  12.914
72321SOL     OW18859   8.038   5.262   6.791
72321SOL    HW118860   7.958   5.303   6.758
72321SOL    HW218861   8.055   5.307   6.874
72322SOL     OW18862  13.391  12.694  11.270
72322SOL    HW118863  13.351  12.762  11.216
72322SOL    HW218864  13.419  12.628  11.207
72323SOL     OW18865   9.931  14.577   0.730
72323SOL    HW118866   9.848  14.611   0.696
72323SOL    HW218867   9.943  14.493   0.687
72324SOL     OW18868   3.892  11.904   6.770
72324SOL    HW118869   3.980  11.901   6.806
72324SOL    HW218870   3.891  11.837   6.702
72325SOL     OW18871  12.456   3.558   6.703
72325SOL    HW118872  12.375   3.591   6.743
72325SOL    HW218873  12.445   3.463   6.701
72326SOL     OW18874  10.157  14.677  12.323
72326SOL    HW118875  10.142  14.646  12.413
72326SOL    HW218876  10.252  14.681  12.315
72327SOL     OW18877  12.335   2.476  13.683
72327SOL    HW118878  12.375   2.389  13.679
72327SOL    HW218879  12.241   2.460  13.679
72328SOL     OW18880   2.824   7.575  13.732
72328SOL    HW118881   2.888   7.574  13.660
72328SOL    HW218882   2.836   7.490  13.774
72329SOL     OW18883   5.083   5.671   0.428
72329SOL    HW118884   5.033   5.607   0.376
72329SOL    HW218885   5.105   5.624   0.508
72330SOL     OW18886   0.145   6.775   3.624
72330SOL    HW118887   0.157   6.681   3.638
72330SOL    HW218888   0.107   6.808   3.705
72331SOL     OW18889   2.719  13.281   3.556
72331SOL    HW118890   2.796  13.293   3.611
72331SOL    HW218891   2.683  13.369   3.547
72332SOL     OW18892  12.611   1.680   1.896
72332SOL    HW118893  12.633   1.618   1.826
72332SOL    HW218894  12.670   1.657   1.967
72333SOL     OW18895   7.457   7.185  12.919
72333SOL    HW118896   7.430   7.100  12.883
72333SOL    HW218897   7.437   7.247  12.849
72334SOL     OW18898   4.532  13.709  11.432
72334SOL    HW118899   4.581  13.649  11.377
72334SOL    HW218900   4.444  13.672  11.436
72335SOL     OW18901   9.366   3.418  11.629
72335SOL    HW118902   9.408   3.483  11.574
72335SOL    HW218903   9.417   3.418  11.710
72336SOL     OW18904   8.881   7.791  12.424
72336SOL    HW118905   8.805   7.846  12.443
72336SOL    HW218906   8.942   7.809  12.496
72337SOL     OW18907   6.372  10.923   2.313
72337SOL    HW118908   6.399  10.967   2.394
72337SOL    HW218909   6.323  10.990   2.265
72338SOL     OW18910  11.747   6.142   1.798
72338SOL    HW118911  11.772   6.110   1.712
72338SOL    HW218912  11.774   6.073   1.859
72339SOL     OW18913   8.512   0.937   6.609
72339SOL    HW118914   8.461   0.903   6.682
72339SOL    HW218915   8.447   0.963   6.544
72340SOL     OW18916   3.966   6.391  11.746
72340SOL    HW118917   4.059   6.385  11.725
72340SOL    HW218918   3.962   6.453  11.818
72341SOL     OW18919   0.497   4.607   6.228
72341SOL    HW118920   0.442   4.564   6.293
72341SOL    HW218921   0.454   4.590   6.145
72342SOL     OW18922  10.691   7.048   7.718
72342SOL    HW118923  10.695   7.074   7.626
72342SOL    HW218924  10.598   7.045   7.738
72343SOL     OW18925   5.221  14.753   7.080
72343SOL    HW118926   5.152  14.787   7.023
72343SOL    HW218927   5.174  14.700   7.145
72344SOL     OW18928  14.337  11.274  13.545
72344SOL    HW118929  14.406  11.307  13.487
72344SOL    HW218930  14.332  11.338  13.616
72345SOL     OW18931   7.061   4.227   5.452
72345SOL    HW118932   7.042   4.272   5.370
72345SOL    HW218933   6.975   4.217   5.494
72346SOL     OW18934   1.541   3.783   8.775
72346SOL    HW118935   1.604   3.757   8.842
72346SOL    HW218936   1.594   3.826   8.708
72347SOL     OW18937  11.233   5.994   5.208
72347SOL    HW118938  11.310   5.974   5.262
72347SOL    HW218939  11.194   6.071   5.248
72348SOL     OW18940   5.704   3.989   6.580
72348SOL    HW118941   5.624   3.965   6.533
72348SOL    HW218942   5.691   3.956   6.669
72349SOL     OW18943   6.142   0.767  12.575
72349SOL    HW118944   6.096   0.814  12.645
72349SOL    HW218945   6.233   0.764  12.604
72350SOL     OW18946   0.697   9.028   6.990
72350SOL    HW118947   0.786   8.996   6.996
72350SOL    HW218948   0.685   9.082   7.068
72351SOL     OW18949   1.144   5.690  14.187
72351SOL    HW118950   1.206   5.762  14.190
72351SOL    HW218951   1.173   5.635  14.114
72352SOL     OW18952   3.047   5.530   6.549
72352SOL    HW118953   3.115   5.481   6.502
72352SOL    HW218954   3.071   5.622   6.535
72353SOL     OW18955  11.832   1.868   0.063
72353SOL    HW118956  11.799   1.813  14.871
72353SOL    HW218957  11.910   1.911   0.026
72354SOL     OW18958   6.675   2.834  12.361
72354SOL    HW118959   6.652   2.895  12.292
72354SOL    HW218960   6.766   2.809  12.342
72355SOL     OW18961   3.540   1.073   8.714
72355SOL    HW118962   3.580   1.086   8.628
72355SOL    HW218963   3.471   1.139   8.717
72356SOL     OW18964   1.135   7.443  13.234
72356SOL    HW118965   1.044   7.422  13.215
72356SOL    HW218966   1.148   7.531  13.198
72357SOL     OW18967   5.617   6.011  12.389
72357SOL    HW118968   5.564   5.996  12.311
72357SOL    HW218969   5.704   6.034  12.356
72358SOL     OW18970   5.252  14.626  12.462
72358SOL    HW118971   5.286  14.695  12.519
72358SOL    HW218972   5.330  14.591  12.418
72359SOL     OW18973   7.932   9.829  10.806
72359SOL    HW118974   7.992   9.756  10.797
72359SOL    HW218975   7.954   9.888  10.733
72360SOL     OW18976  12.548  12.172   8.424
72360SOL    HW118977  12.553  12.082   8.391
72360SOL    HW218978  12.593  12.168   8.509
72361SOL     OW18979  12.980   3.600   0.192
72361SOL    HW118980  13.025   3.638   0.117
72361SOL    HW218981  13.042   3.611   0.265
72362SOL     OW18982   2.938   9.791  14.332
72362SOL    HW118983   2.996   9.858  14.297
72362SOL    HW218984   2.853   9.810  14.293
72363SOL     OW18985   9.673  11.204   1.051
72363SOL    HW118986   9.696  11.250   0.970
72363SOL    HW218987   9.752  11.155   1.073
72364SOL     OW18988  13.425  14.577   0.753
72364SOL    HW118989  13.416  14.506   0.816
72364SOL    HW218990  13.511  14.563   0.712
72365SOL     OW18991   1.682   7.454   6.565
72365SOL    HW118992   1.688   7.497   6.651
72365SOL    HW218993   1.598   7.482   6.530
72366SOL     OW18994   3.278   3.421   3.101
72366SOL    HW118995   3.302   3.372   3.180
72366SOL    HW218996   3.291   3.513   3.125
72367SOL     OW18997  10.501   6.903   4.846
72367SOL    HW118998  10.556   6.907   4.924
72367SOL    HW218999  10.477   6.995   4.830
72368SOL     OW19000  10.517  13.342   0.748
72368SOL    HW119001  10.498  13.260   0.795
72368SOL    HW219002  10.492  13.324   0.658
72369SOL     OW19003   4.565  11.757  13.013
72369SOL    HW119004   4.611  11.724  13.090
72369SOL    HW219005   4.487  11.800  13.049
72370SOL     OW19006   9.327   1.157  14.619
72370SOL    HW119007   9.353   1.066  14.629
72370SOL    HW219008   9.249   1.154  14.563
72371SOL     OW19009   9.483  11.721   8.991
72371SOL    HW119010   9.388  11.726   8.978
72371SOL    HW219011   9.517  11.800   8.948
72372SOL     OW19012   3.272   2.995   7.348
72372SOL    HW119013   3.293   3.025   7.260
72372SOL    HW219014   3.211   3.061   7.381
72373SOL     OW19015  13.590   8.614  10.857
72373SOL    HW119016  13.509   8.587  10.899
72373SOL    HW219017  13.563   8.657  10.776
72374SOL     OW19018  13.236  11.069  11.617
72374SOL    HW119019  13.212  11.156  11.650
72374SOL    HW219020  13.226  11.011  11.693
72375SOL     OW19021   4.615   6.046   4.474
72375SOL    HW119022   4.623   6.054   4.379
72375SOL    HW219023   4.601   5.952   4.489
72376SOL     OW19024   2.669  11.850   7.276
72376SOL    HW119025   2.622  11.860   7.193
72376SOL    HW219026   2.619  11.902   7.338
72377SOL     OW19027   7.465   4.638   5.369
72377SOL    HW119028   7.402   4.710   5.365
72377SOL    HW219029   7.525   4.654   5.296
72378SOL     OW19030   6.944   2.677   0.241
72378SOL    HW119031   6.912   2.633   0.320
72378SOL    HW219032   7.033   2.703   0.262
72379SOL     OW19033   7.044   2.437   7.308
72379SOL    HW119034   7.020   2.515   7.358
72379SOL    HW219035   7.062   2.469   7.220
72380SOL     OW19036   4.960   4.078  10.095
72380SOL    HW119037   4.917   4.135  10.159
72380SOL    HW219038   4.890   4.024  10.059
72381SOL     OW19039  11.745   6.227   8.900
72381SOL    HW119040  11.663   6.274   8.881
72381SOL    HW219041  11.800   6.244   8.823
72382SOL     OW19042   8.446   9.145   9.401
72382SOL    HW119043   8.536   9.169   9.424
72382SOL    HW219044   8.415   9.217   9.347
72383SOL     OW19045   3.875   9.512   6.191
72383SOL    HW119046   3.814   9.542   6.259
72383SOL    HW219047   3.957   9.496   6.238
72384SOL     OW19048   4.912  12.423   2.269
72384SOL    HW119049   4.863  12.483   2.213
72384SOL    HW219050   4.859  12.344   2.272
72385SOL     OW19051   7.841   9.261   7.138
72385SOL    HW119052   7.795   9.291   7.216
72385SOL    HW219053   7.805   9.313   7.067
72386SOL     OW19054   4.113  14.843  13.043
72386SOL    HW119055   4.127  14.788  12.966
72386SOL    HW219056   4.038   0.017  13.021
72387SOL     OW19057   1.562   8.886  10.229
72387SOL    HW119058   1.609   8.898  10.311
72387SOL    HW219059   1.524   8.972  10.209
72388SOL     OW19060  12.111   7.595  10.572
72388SOL    HW119061  12.102   7.525  10.507
72388SOL    HW219062  12.195   7.578  10.614
72389SOL     OW19063   7.982   6.541  14.719
72389SOL    HW119064   7.900   6.494  14.701
72389SOL    HW219065   7.981   6.615  14.658
72390SOL     OW19066   6.420   4.962   3.732
72390SOL    HW119067   6.395   4.927   3.817
72390SOL    HW219068   6.369   5.042   3.723
72391SOL     OW19069   8.766   6.306   5.505
72391SOL    HW119070   8.788   6.342   5.419
72391SOL    HW219071   8.775   6.380   5.565
72392SOL     OW19072  12.395   3.861  11.410
72392SOL    HW119073  12.399   3.955  11.393
72392SOL    HW219074  12.326   3.829  11.352
72393SOL     OW19075  12.971   3.699  11.376
72393SOL    HW119076  13.055   3.745  11.372
72393SOL    HW219077  12.981   3.625  11.315
72394SOL     OW19078   1.877  14.720   8.071
72394SOL    HW119079   1.959  14.754   8.107
72394SOL    HW219080   1.894  14.713   7.977
72395SOL     OW19081  14.812   4.187   3.258
72395SOL    HW119082   0.018   4.157   3.290
72395SOL    HW219083  14.810   4.159   3.166
72396SOL     OW19084   0.924   7.927  14.565
72396SOL    HW119085   1.015   7.944  14.589
72396SOL    HW219086   0.897   8.007  14.520
72397SOL     OW19087  13.032  10.195   6.044
72397SOL    HW119088  13.076  10.281   6.046
72397SOL    HW219089  13.093  10.136   6.088
72398SOL     OW19090   5.618   1.747   1.844
72398SOL    HW119091   5.710   1.724   1.860
72398SOL    HW219092   5.569   1.691   1.904
72399SOL     OW19093  13.101   2.279  11.107
72399SOL    HW119094  13.139   2.218  11.170
72399SOL    HW219095  13.115   2.365  11.145
72400SOL     OW19096   1.130   5.453   3.579
72400SOL    HW119097   1.132   5.451   3.674
72400SOL    HW219098   1.222   5.457   3.553
72401SOL     OW19099   2.226  10.725   5.028
72401SOL    HW119100   2.240  10.809   4.984
72401SOL    HW219101   2.152  10.685   4.981
72402SOL     OW19102  12.366   3.299   6.147
72402SOL    HW119103  12.429   3.311   6.076
72402SOL    HW219104  12.417   3.312   6.227
72403SOL     OW19105  13.635   7.638  10.392
72403SOL    HW119106  13.581   7.670  10.320
72403SOL    HW219107  13.678   7.560  10.358
72404SOL     OW19108   5.749   6.323   4.519
72404SOL    HW119109   5.773   6.237   4.555
72404SOL    HW219110   5.821   6.380   4.545
72405SOL     OW19111   3.846  10.118  12.009
72405SOL    HW119112   3.769  10.170  12.031
72405SOL    HW219113   3.886  10.096  12.093
72406SOL     OW19114  13.293   4.813   2.819
72406SOL    HW119115  13.307   4.719   2.827
72406SOL    HW219116  13.243   4.823   2.738
72407SOL     OW19117  12.980  14.263   5.925
72407SOL    HW119118  13.027  14.309   5.855
72407SOL    HW219119  12.932  14.333   5.971
72408SOL     OW19120   0.839  11.453  10.104
72408SOL    HW119121   0.792  11.468  10.187
72408SOL    HW219122   0.922  11.498  10.115
72409SOL     OW19123   0.770   2.115   1.755
72409SOL    HW119124   0.780   2.032   1.708
72409SOL    HW219125   0.724   2.091   1.835
72410SOL     OW19126  14.533   7.554   0.038
72410SOL    HW119127  14.597   7.554   0.109
72410SOL    HW219128  14.463   7.496   0.067
72411SOL     OW19129   3.315   7.099   2.383
72411SOL    HW119130   3.381   7.127   2.447
72411SOL    HW219131   3.284   7.015   2.417
72412SOL     OW19132   4.163   1.117   9.668
72412SOL    HW119133   4.070   1.140   9.658
72412SOL    HW219134   4.196   1.180   9.732
72413SOL     OW19135  14.484   5.886  12.188
72413SOL    HW119136  14.395   5.858  12.164
72413SOL    HW219137  14.501   5.961  12.131
72414SOL     OW19138  13.234  13.687   9.305
72414SOL    HW119139  13.290  13.705   9.380
72414SOL    HW219140  13.159  13.745   9.316
72415SOL     OW19141   0.075   3.030   3.186
72415SOL    HW119142   0.034   3.076   3.113
72415SOL    HW219143   0.158   3.076   3.201
72416SOL     OW19144   9.932   6.341   3.044
72416SOL    HW119145   9.904   6.332   3.135
72416SOL    HW219146   9.868   6.290   2.994
72417SOL     OW19147   7.120  13.073   8.614
72417SOL    HW119148   7.033  13.033   8.617
72417SOL    HW219149   7.180  13.000   8.624
72418SOL     OW19150  10.553   3.100  12.697
72418SOL    HW119151  10.597   3.170  12.649
72418SOL    HW219152  10.573   3.020  12.648
72419SOL     OW19153   5.112   8.704   6.854
72419SOL    HW119154   5.192   8.740   6.814
72419SOL    HW219155   5.138   8.682   6.943
72420SOL     OW19156   2.256   1.866   7.233
72420SOL    HW119157   2.325   1.929   7.212
72420SOL    HW219158   2.175   1.909   7.207
72421SOL     OW19159  11.508   8.994  11.508
72421SOL    HW119160  11.484   8.903  11.495
72421SOL    HW219161  11.603   8.993  11.517
72422SOL     OW19162   5.248   3.644   6.327
72422SOL    HW119163   5.271   3.624   6.237
72422SOL    HW219164   5.220   3.560   6.364
72423SOL     OW19165   2.928   5.228  12.302
72423SOL    HW119166   2.873   5.301  12.329
72423SOL    HW219167   2.932   5.172  12.380
72424SOL     OW19168   2.941  11.966   6.721
72424SOL    HW119169   2.881  11.902   6.758
72424SOL    HW219170   2.956  12.029   6.792
72425SOL     OW19171  12.915  13.023   0.840
72425SOL    HW119172  12.988  13.010   0.899
72425SOL    HW219173  12.884  12.935   0.818
72426SOL     OW19174  11.055   0.397  10.691
72426SOL    HW119175  11.121   0.345  10.738
72426SOL    HW219176  10.980   0.339  10.684
72427SOL     OW19177   5.743   9.904   0.427
72427SOL    HW119178   5.828   9.944   0.445
72427SOL    HW219179   5.763   9.815   0.399
72428SOL     OW19180   9.241  12.288  11.656
72428SOL    HW119181   9.266  12.216  11.714
72428SOL    HW219182   9.309  12.289  11.588
72429SOL     OW19183   9.845   0.131   6.004
72429SOL    HW119184   9.897   0.103   5.928
72429SOL    HW219185   9.880   0.081   6.077
72430SOL     OW19186   6.034   2.226  13.318
72430SOL    HW119187   6.013   2.145  13.365
72430SOL    HW219188   6.122   2.211  13.285
72431SOL     OW19189   7.126   6.993   3.998
72431SOL    HW119190   7.192   6.940   3.953
72431SOL    HW219191   7.176   7.058   4.048
72432SOL     OW19192   8.524  13.652   9.341
72432SOL    HW119193   8.597  13.621   9.286
72432SOL    HW219194   8.446  13.614   9.300
72433SOL     OW19195  12.254   0.171   3.848
72433SOL    HW119196  12.291   0.088   3.817
72433SOL    HW219197  12.331   0.222   3.874
72434SOL     OW19198  10.924  11.090   1.931
72434SOL    HW119199  10.836  11.122   1.950
72434SOL    HW219200  10.929  11.087   1.836
72435SOL     OW19201   9.340   7.080   8.620
72435SOL    HW119202   9.387   7.074   8.703
72435SOL    HW219203   9.326   7.174   8.607
72436SOL     OW19204   0.234   2.991   5.686
72436SOL    HW119205   0.215   2.950   5.601
72436SOL    HW219206   0.309   3.048   5.668
72437SOL     OW19207   1.418   8.421  12.794
72437SOL    HW119208   1.385   8.421  12.884
72437SOL    HW219209   1.513   8.414  12.803
72438SOL     OW19210  12.863  12.190   7.415
72438SOL    HW119211  12.813  12.237   7.348
72438SOL    HW219212  12.833  12.099   7.407
72439SOL     OW19213   1.903  11.770   2.805
72439SOL    HW119214   1.847  11.791   2.729
72439SOL    HW219215   1.964  11.704   2.771
72440SOL     OW19216   8.885   1.930  11.733
72440SOL    HW119217   8.833   1.917  11.654
72440SOL    HW219218   8.841   1.879  11.800
72441SOL     OW19219   3.500  14.641   9.036
72441SOL    HW119220   3.485  14.622   8.944
72441SOL    HW219221   3.457  14.726   9.050
72442SOL     OW19222  12.836   0.387  12.125
72442SOL    HW119223  12.896   0.457  12.098
72442SOL    HW219224  12.812   0.343  12.044
72443SOL     OW19225   8.785  14.589   5.492
72443SOL    HW119226   8.866  14.611   5.446
72443SOL    HW219227   8.812  14.530   5.562
72444SOL     OW19228   0.236   3.579   1.000
72444SOL    HW119229   0.324   3.582   1.036
72444SOL    HW219230   0.239   3.634   0.922
72445SOL     OW19231   4.068   7.055  13.879
72445SOL    HW119232   3.980   7.068  13.914
72445SOL    HW219233   4.075   6.960  13.864
72446SOL     OW19234   5.484   6.572   6.999
72446SOL    HW119235   5.437   6.599   6.920
72446SOL    HW219236   5.560   6.523   6.966
72447SOL     OW19237   5.691  14.161  10.277
72447SOL    HW119238   5.604  14.195  10.301
72447SOL    HW219239   5.735  14.236  10.237
72448SOL     OW19240   3.542   1.653   2.170
72448SOL    HW119241   3.616   1.656   2.109
72448SOL    HW219242   3.466   1.671   2.116
72449SOL     OW19243   6.551  12.593  12.075
72449SOL    HW119244   6.605  12.664  12.041
72449SOL    HW219245   6.609  12.544  12.133
72450SOL     OW19246   7.193   3.205   2.230
72450SOL    HW119247   7.220   3.252   2.151
72450SOL    HW219248   7.099   3.222   2.237
72451SOL     OW19249  14.290   3.845   9.675
72451SOL    HW119250  14.200   3.856   9.705
72451SOL    HW219251  14.313   3.931   9.637
72452SOL     OW19252   4.462  12.994  10.544
72452SOL    HW119253   4.478  12.941  10.622
72452SOL    HW219254   4.450  13.083  10.578
72453SOL     OW19255   9.706   4.002   0.930
72453SOL    HW119256   9.705   4.068   0.861
72453SOL    HW219257   9.633   3.944   0.909
72454SOL     OW19258   1.993   6.005   9.421
72454SOL    HW119259   1.964   5.977   9.508
72454SOL    HW219260   2.056   6.075   9.438
72455SOL     OW19261   1.748  13.737   4.325
72455SOL    HW119262   1.828  13.768   4.368
72455SOL    HW219263   1.746  13.784   4.242
72456SOL     OW19264   1.423   1.476   8.240
72456SOL    HW119265   1.456   1.524   8.315
72456SOL    HW219266   1.502   1.452   8.190
72457SOL     OW19267   3.451  14.364   9.403
72457SOL    HW119268   3.488  14.410   9.328
72457SOL    HW219269   3.358  14.384   9.401
72458SOL     OW19270   2.973  12.739   4.739
72458SOL    HW119271   2.909  12.796   4.697
72458SOL    HW219272   3.033  12.715   4.669
72459SOL     OW19273   1.673  14.491   9.352
72459SOL    HW119274   1.691  14.490   9.258
72459SOL    HW219275   1.665  14.399   9.376
72460SOL     OW19276   4.462   5.594   7.969
72460SOL    HW119277   4.544   5.574   8.015
72460SOL    HW219278   4.464   5.539   7.890
72461SOL     OW19279  11.176   8.231   7.567
72461SOL    HW119280  11.227   8.173   7.625
72461SOL    HW219281  11.121   8.171   7.516
72462SOL     OW19282  13.455  14.154   6.825
72462SOL    HW119283  13.396  14.123   6.756
72462SOL    HW219284  13.516  14.082   6.838
72463SOL     OW19285   6.054  13.779  12.535
72463SOL    HW119286   6.053  13.773  12.439
72463SOL    HW219287   6.140  13.747  12.560
72464SOL     OW19288   0.889   3.638   4.201
72464SOL    HW119289   0.886   3.553   4.245
72464SOL    HW219290   0.957   3.628   4.134
72465SOL     OW19291  13.376   0.420   9.796
72465SOL    HW119292  13.454   0.424   9.852
72465SOL    HW219293  13.335   0.337   9.818
72466SOL     OW19294  12.251   9.917   3.020
72466SOL    HW119295  12.181   9.975   3.049
72466SOL    HW219296  12.307   9.907   3.097
72467SOL     OW19297   9.689   3.194   8.453
72467SOL    HW119298   9.595   3.183   8.442
72467SOL    HW219299   9.714   3.124   8.514
72468SOL     OW19300  10.047   4.316   5.395
72468SOL    HW119301   9.973   4.370   5.367
72468SOL    HW219302  10.014   4.269   5.472
72469SOL     OW19303   6.750   5.087   7.418
72469SOL    HW119304   6.840   5.117   7.427
72469SOL    HW219305   6.706   5.116   7.498
72470SOL     OW19306   2.173   8.076  12.043
72470SOL    HW119307   2.173   8.131  12.121
72470SOL    HW219308   2.134   7.993  12.073
72471SOL     OW19309   2.291  14.280   2.654
72471SOL    HW119310   2.311  14.202   2.603
72471SOL    HW219311   2.323  14.353   2.600
72472SOL     OW19312   0.205  14.165  12.392
72472SOL    HW119313   0.291  14.144  12.356
72472SOL    HW219314   0.194  14.259  12.374
72473SOL     OW19315   4.639   7.605   6.543
72473SOL    HW119316   4.663   7.691   6.508
72473SOL    HW219317   4.714   7.579   6.596
72474SOL     OW19318   7.394   8.182   3.269
72474SOL    HW119319   7.396   8.260   3.214
72474SOL    HW219320   7.378   8.109   3.209
72475SOL     OW19321   1.968   9.218  11.543
72475SOL    HW119322   1.886   9.200  11.590
72475SOL    HW219323   2.024   9.259  11.608
72476SOL     OW19324   8.558  11.881   1.464
72476SOL    HW119325   8.509  11.834   1.397
72476SOL    HW219326   8.628  11.821   1.490
72477SOL     OW19327   2.065  11.702   9.305
72477SOL    HW119328   2.146  11.753   9.306
72477SOL    HW219329   2.080  11.637   9.236
72478SOL     OW19330   6.012   0.428  13.604
72478SOL    HW119331   6.104   0.439  13.582
72478SOL    HW219332   5.969   0.507  13.571
72479SOL     OW19333   2.069  11.612  11.976
72479SOL    HW119334   1.982  11.649  11.989
72479SOL    HW219335   2.127  11.671  12.024
72480SOL     OW19336  11.959   2.415   8.106
72480SOL    HW119337  12.011   2.387   8.181
72480SOL    HW219338  11.871   2.381   8.123
72481SOL     OW19339   5.609  11.086   6.611
72481SOL    HW119340   5.630  11.159   6.552
72481SOL    HW219341   5.646  11.009   6.568
72482SOL     OW19342   0.545   8.278  13.845
72482SOL    HW119343   0.562   8.288  13.751
72482SOL    HW219344   0.518   8.187  13.854
72483SOL     OW19345  14.322   5.452   5.536
72483SOL    HW119346  14.386   5.392   5.498
72483SOL    HW219347  14.364   5.484   5.616
72484SOL     OW19348   4.420  11.163   4.521
72484SOL    HW119349   4.363  11.218   4.575
72484SOL    HW219350   4.366  11.088   4.496
72485SOL     OW19351  13.002   1.535   9.192
72485SOL    HW119352  12.954   1.543   9.110
72485SOL    HW219353  12.979   1.614   9.241
72486SOL     OW19354   8.207   1.998   2.934
72486SOL    HW119355   8.262   2.055   2.881
72486SOL    HW219356   8.128   1.984   2.881
72487SOL     OW19357   7.648  14.483   9.434
72487SOL    HW119358   7.649  14.532   9.352
72487SOL    HW219359   7.602  14.542   9.495
72488SOL     OW19360   8.915  11.444   7.496
72488SOL    HW119361   8.995  11.392   7.487
72488SOL    HW219362   8.851  11.400   7.441
72489SOL     OW19363   5.705   5.200   5.200
72489SOL    HW119364   5.750   5.237   5.124
72489SOL    HW219365   5.619   5.174   5.168
72490SOL     OW19366   2.493   5.784   7.485
72490SOL    HW119367   2.472   5.772   7.392
72490SOL    HW219368   2.440   5.719   7.531
72491SOL     OW19369   1.161   6.658   7.074
72491SOL    HW119370   1.077   6.618   7.097
72491SOL    HW219371   1.224   6.586   7.077
72492SOL     OW19372  10.024  12.430  11.973
72492SOL    HW119373   9.982  12.506  11.931
72492SOL    HW219374   9.968  12.356  11.949
72493SOL     OW19375   5.431   2.659   7.945
72493SOL    HW119376   5.452   2.581   7.997
72493SOL    HW219377   5.465   2.732   7.996
72494SOL     OW19378   2.038   5.351   0.013
72494SOL    HW119379   2.011   5.419   0.075
72494SOL    HW219380   1.985   5.275   0.036
72495SOL     OW19381  13.236  12.014   9.038
72495SOL    HW119382  13.217  11.966   8.957
72495SOL    HW219383  13.219  11.951   9.108
72496SOL     OW19384   6.326   0.148   5.926
72496SOL    HW119385   6.421   0.147   5.936
72496SOL    HW219386   6.309   0.095   5.849
72497SOL     OW19387   9.994  13.817   3.369
72497SOL    HW119388   9.954  13.736   3.401
72497SOL    HW219389  10.088  13.798   3.366
72498SOL     OW19390   0.016   1.913   0.848
72498SOL    HW119391   0.046   1.886   0.935
72498SOL    HW219392  14.819   1.858   0.831
72499SOL     OW19393   7.430  11.279   6.246
72499SOL    HW119394   7.444  11.194   6.286
72499SOL    HW219395   7.341  11.303   6.271
72500SOL     OW19396   7.427  12.676  12.571
72500SOL    HW119397   7.408  12.609  12.505
72500SOL    HW219398   7.522  12.684  12.572
72501SOL     OW19399   6.002   9.952   4.274
72501SOL    HW119400   6.003   9.879   4.212
72501SOL    HW219401   6.050   9.920   4.350
72502SOL     OW19402  12.577   0.899  13.460
72502SOL    HW119403  12.593   0.928  13.549
72502SOL    HW219404  12.483   0.880  13.457
72503SOL     OW19405  13.325  10.270  12.695
72503SOL    HW119406  13.338  10.284  12.601
72503SOL    HW219407  13.249  10.212  12.700
72504SOL     OW19408   7.425   9.438  12.208
72504SOL    HW119409   7.443   9.384  12.285
72504SOL    HW219410   7.434   9.378  12.134
72505SOL     OW19411   0.470   1.837   3.801
72505SOL    HW119412   0.516   1.919   3.817
72505SOL    HW219413   0.538   1.769   3.807
72506SOL     OW19414   8.511  10.261   2.581
72506SOL    HW119415   8.478  10.343   2.618
72506SOL    HW219416   8.489  10.195   2.646
72507SOL     OW19417  12.890  14.842   8.609
72507SOL    HW119418  12.923   0.021   8.541
72507SOL    HW219419  12.885   0.018   8.687
72508SOL     OW19420  13.828  11.115   7.819
72508SOL    HW119421  13.738  11.109   7.851
72508SOL    HW219422  13.858  11.024   7.811
72509SOL     OW19423  11.460   9.353  10.712
72509SOL    HW119424  11.473   9.295  10.787
72509SOL    HW219425  11.382   9.404  10.734
72510SOL     OW19426   7.950  10.194   0.689
72510SOL    HW119427   7.862  10.157   0.687
72510SOL    HW219428   8.007  10.119   0.704
72511SOL     OW19429  13.477   3.196   1.969
72511SOL    HW119430  13.406   3.147   2.009
72511SOL    HW219431  13.437   3.241   1.895
72512SOL     OW19432  11.680   1.988   7.506
72512SOL    HW119433  11.680   2.057   7.440
72512SOL    HW219434  11.749   1.928   7.478
72513SOL     OW19435  12.243   0.379   9.169
72513SOL    HW119436  12.325   0.392   9.217
72513SOL    HW219437  12.270   0.348   9.082
72514SOL     OW19438  11.206  11.069   2.705
72514SOL    HW119439  11.142  11.115   2.650
72514SOL    HW219440  11.243  11.138   2.760
72515SOL     OW19441   0.270  10.506   7.089
72515SOL    HW119442   0.256  10.413   7.110
72515SOL    HW219443   0.330  10.504   7.015
72516SOL     OW19444  11.629   8.918   5.046
72516SOL    HW119445  11.577   8.970   4.985
72516SOL    HW219446  11.719   8.931   5.017
72517SOL     OW19447  10.639   1.022   0.729
72517SOL    HW119448  10.681   1.032   0.644
72517SOL    HW219449  10.546   1.035   0.713
72518SOL     OW19450   8.956  11.573  10.262
72518SOL    HW119451   8.965  11.537  10.174
72518SOL    HW219452   8.876  11.626  10.259
72519SOL     OW19453   8.258  14.487   8.559
72519SOL    HW119454   8.199  14.445   8.497
72519SOL    HW219455   8.346  14.465   8.528
72520SOL     OW19456  11.907   0.016   6.269
72520SOL    HW119457  11.871  14.819   6.225
72520SOL    HW219458  11.871   0.090   6.220
72521SOL     OW19459   3.482  11.341  10.091
72521SOL    HW119460   3.474  11.303  10.178
72521SOL    HW219461   3.577  11.351  10.078
72522SOL     OW19462   1.034   8.333   5.448
72522SOL    HW119463   0.953   8.366   5.486
72522SOL    HW219464   1.091   8.318   5.523
72523SOL     OW19465   3.926   2.998   3.697
72523SOL    HW119466   3.971   3.055   3.635
72523SOL    HW219467   3.848   2.968   3.650
72524SOL     OW19468  10.854   1.250  12.132
72524SOL    HW119469  10.903   1.329  12.106
72524SOL    HW219470  10.834   1.206  12.049
72525SOL     OW19471   9.446   7.271   9.371
72525SOL    HW119472   9.476   7.354   9.335
72525SOL    HW219473   9.505   7.253   9.444
72526SOL     OW19474   9.188   8.202   1.582
72526SOL    HW119475   9.161   8.158   1.501
72526SOL    HW219476   9.200   8.131   1.645
72527SOL     OW19477   0.636  13.233   7.396
72527SOL    HW119478   0.626  13.296   7.325
72527SOL    HW219479   0.645  13.148   7.351
72528SOL     OW19480  13.368   2.305   3.281
72528SOL    HW119481  13.307   2.317   3.354
72528SOL    HW219482  13.443   2.360   3.303
72529SOL     OW19483  14.465  14.197  11.592
72529SOL    HW119484  14.496  14.186  11.502
72529SOL    HW219485  14.404  14.125  11.606
72530SOL     OW19486   1.650   1.681   6.228
72530SOL    HW119487   1.711   1.631   6.282
72530SOL    HW219488   1.700   1.759   6.202
72531SOL     OW19489   7.256   0.192  12.090
72531SOL    HW119490   7.258   0.254  12.163
72531SOL    HW219491   7.349   0.173  12.072
72532SOL     OW19492   8.117   8.398   3.486
72532SOL    HW119493   8.101   8.303   3.480
72532SOL    HW219494   8.030   8.436   3.496
72533SOL     OW19495   6.357   4.832  11.124
72533SOL    HW119496   6.401   4.823  11.209
72533SOL    HW219497   6.293   4.901  11.138
72534SOL     OW19498  11.394  12.090   4.922
72534SOL    HW119499  11.315  12.142   4.915
72534SOL    HW219500  11.452  12.124   4.853
72535SOL     OW19501   4.948  14.397   9.825
72535SOL    HW119502   4.895  14.476   9.822
72535SOL    HW219503   4.930  14.353   9.742
72536SOL     OW19504  14.060   0.627   5.261
72536SOL    HW119505  14.001   0.559   5.229
72536SOL    HW219506  14.123   0.640   5.190
72537SOL     OW19507   5.262   5.501   5.408
72537SOL    HW119508   5.305   5.416   5.403
72537SOL    HW219509   5.284   5.533   5.496
72538SOL     OW19510  14.801  10.730   0.130
72538SOL    HW119511   0.004  10.755   0.171
72538SOL    HW219512  14.744  10.806   0.146
72539SOL     OW19513   5.899   8.526   0.596
72539SOL    HW119514   5.925   8.488   0.680
72539SOL    HW219515   5.942   8.471   0.531
72540SOL     OW19516   2.407   2.756   3.027
72540SOL    HW119517   2.352   2.827   2.994
72540SOL    HW219518   2.380   2.745   3.118
72541SOL     OW19519   3.814  10.578   9.765
72541SOL    HW119520   3.739  10.627   9.801
72541SOL    HW219521   3.800  10.488   9.795
72542SOL     OW19522   1.228   2.574   0.739
72542SOL    HW119523   1.308   2.545   0.782
72542SOL    HW219524   1.221   2.667   0.762
72543SOL     OW19525  14.347   0.101  12.365
72543SOL    HW119526  14.311   0.106  12.277
72543SOL    HW219527  14.442   0.108  12.352
72544SOL     OW19528  14.784  10.706  11.428
72544SOL    HW119529  14.769  10.693  11.521
72544SOL    HW219530  14.799  10.800  11.418
72545SOL     OW19531  14.276   7.150   7.343
72545SOL    HW119532  14.268   7.072   7.396
72545SOL    HW219533  14.263   7.223   7.404
72546SOL     OW19534   0.213   1.806   4.289
72546SOL    HW119535   0.296   1.853   4.296
72546SOL    HW219536   0.218   1.738   4.355
72547SOL     OW19537   2.746   6.099   4.932
72547SOL    HW119538   2.697   6.030   4.976
72547SOL    HW219539   2.831   6.059   4.912
72548SOL     OW19540  14.114   9.336   0.887
72548SOL    HW119541  14.046   9.270   0.903
72548SOL    HW219542  14.078   9.392   0.819
72549SOL     OW19543   7.891   9.020   5.334
72549SOL    HW119544   7.869   8.941   5.384
72549SOL    HW219545   7.838   9.013   5.254
72550SOL     OW19546   0.922   4.422   3.276
72550SOL    HW119547   0.970   4.487   3.224
72550SOL    HW219548   0.989   4.381   3.330
72551SOL     OW19549   2.954   0.099   9.732
72551SOL    HW119550   2.993   0.013   9.744
72551SOL    HW219551   2.925   0.125   9.820
72552SOL     OW19552   0.039  14.411   3.829
72552SOL    HW119553   0.088  14.357   3.767
72552SOL    HW219554  14.827  14.398   3.804
72553SOL     OW19555   6.340   8.930  12.020
72553SOL    HW119556   6.254   8.950  11.981
72553SOL    HW219557   6.389   9.012  12.011
72554SOL     OW19558   0.607   3.068  11.871
72554SOL    HW119559   0.532   3.010  11.884
72554SOL    HW219560   0.655   3.064  11.953
72555SOL     OW19561  11.865   8.714   9.748
72555SOL    HW119562  11.891   8.632   9.791
72555SOL    HW219563  11.899   8.706   9.659
72556SOL     OW19564   1.012  10.954   7.432
72556SOL    HW119565   1.050  10.878   7.475
72556SOL    HW219566   1.009  10.931   7.339
72557SOL     OW19567  10.023   4.728   0.227
72557SOL    HW119568   9.991   4.799   0.171
72557SOL    HW219569   9.999   4.754   0.315
72558SOL     OW19570  12.606   9.438   5.327
72558SOL    HW119571  12.635   9.495   5.256
72558SOL    HW219572  12.522   9.403   5.297
72559SOL     OW19573   9.736  11.630   3.908
72559SOL    HW119574   9.760  11.709   3.956
72559SOL    HW219575   9.678  11.582   3.967
72560SOL     OW19576  13.723   2.610   4.588
72560SOL    HW119577  13.727   2.629   4.495
72560SOL    HW219578  13.711   2.515   4.593
72561SOL     OW19579   3.436   9.602  13.403
72561SOL    HW119580   3.417   9.508  13.398
72561SOL    HW219581   3.501   9.610  13.473
72562SOL     OW19582   7.201   9.168   7.648
72562SOL    HW119583   7.211   9.117   7.728
72562SOL    HW219584   7.262   9.241   7.658
72563SOL     OW19585   4.229   4.286   9.366
72563SOL    HW119586   4.307   4.310   9.316
72563SOL    HW219587   4.198   4.205   9.326
72564SOL     OW19588   3.233   8.929   1.750
72564SOL    HW119589   3.260   8.896   1.665
72564SOL    HW219590   3.292   8.888   1.812
72565SOL     OW19591   3.784  10.459   9.282
72565SOL    HW119592   3.716  10.416   9.229
72565SOL    HW219593   3.766  10.428   9.371
72566SOL     OW19594   9.618   1.746   9.012
72566SOL    HW119595   9.712   1.733   9.002
72566SOL    HW219596   9.579   1.684   8.950
72567SOL     OW19597   8.525   4.243   3.870
72567SOL    HW119598   8.457   4.307   3.850
72567SOL    HW219599   8.598   4.266   3.812
72568SOL     OW19600   6.457   9.660  11.574
72568SOL    HW119601   6.493   9.571  11.577
72568SOL    HW219602   6.467   9.693  11.664
72569SOL     OW19603   7.930   1.545   0.506
72569SOL    HW119604   7.853   1.565   0.452
72569SOL    HW219605   7.976   1.477   0.456
72570SOL     OW19606   8.192   8.318   6.556
72570SOL    HW119607   8.125   8.379   6.525
72570SOL    HW219608   8.203   8.256   6.484
72571SOL     OW19609  13.841  10.573  14.869
72571SOL    HW119610  13.822  10.592  14.777
72571SOL    HW219611  13.864  10.658   0.027
72572SOL     OW19612   1.172  10.880   2.865
72572SOL    HW119613   1.166  10.849   2.775
72572SOL    HW219614   1.242  10.828   2.904
72573SOL     OW19615   5.397   8.131  13.481
72573SOL    HW119616   5.400   8.198  13.550
72573SOL    HW219617   5.413   8.180  13.401
72574SOL     OW19618   1.386   1.336   7.444
72574SOL    HW119619   1.458   1.274   7.452
72574SOL    HW219620   1.428   1.418   7.416
72575SOL     OW19621  14.147  12.832   9.992
72575SOL    HW119622  14.139  12.782  10.073
72575SOL    HW219623  14.103  12.915  10.011
72576SOL     OW19624  11.039   7.124   6.241
72576SOL    HW119625  11.050   7.029   6.246
72576SOL    HW219626  10.948   7.136   6.213
72577SOL     OW19627   8.471  14.755   4.022
72577SOL    HW119628   8.426  14.810   3.959
72577SOL    HW219629   8.408  14.687   4.045
72578SOL     OW19630  14.427   9.746   9.049
72578SOL    HW119631  14.386   9.762   9.134
72578SOL    HW219632  14.492   9.678   9.066
72579SOL     OW19633   6.647   9.396   9.018
72579SOL    HW119634   6.684   9.384   8.930
72579SOL    HW219635   6.722   9.421   9.072
72580SOL     OW19636   0.734   5.403   3.821
72580SOL    HW119637   0.662   5.340   3.819
72580SOL    HW219638   0.803   5.362   3.769
72581SOL     OW19639  14.264   6.231  11.200
72581SOL    HW119640  14.180   6.277  11.207
72581SOL    HW219641  14.278   6.195  11.288
72582SOL     OW19642   1.910  14.862  12.686
72582SOL    HW119643   1.818  14.869  12.713
72582SOL    HW219644   1.929   0.067  12.645
72583SOL     OW19645   4.074  13.646   9.667
72583SOL    HW119646   4.116  13.564   9.640
72583SOL    HW219647   4.093  13.653   9.761
72584SOL     OW19648  11.486  10.143  13.531
72584SOL    HW119649  11.462  10.091  13.454
72584SOL    HW219650  11.408  10.194  13.551
72585SOL     OW19651   9.726   7.572   3.581
72585SOL    HW119652   9.651   7.558   3.638
72585SOL    HW219653   9.713   7.513   3.507
72586SOL     OW19654   9.535  10.658   8.433
72586SOL    HW119655   9.471  10.665   8.504
72586SOL    HW219656   9.483  10.665   8.353
72587SOL     OW19657   5.620   7.246   0.701
72587SOL    HW119658   5.566   7.245   0.622
72587SOL    HW219659   5.561   7.216   0.770
72588SOL     OW19660  11.154   8.735   4.176
72588SOL    HW119661  11.192   8.661   4.224
72588SOL    HW219662  11.063   8.708   4.160
72589SOL     OW19663  11.677  12.707   5.380
72589SOL    HW119664  11.710  12.762   5.309
72589SOL    HW219665  11.708  12.619   5.359
72590SOL     OW19666  11.217   1.511  13.978
72590SOL    HW119667  11.237   1.598  13.944
72590SOL    HW219668  11.301   1.465  13.978
72591SOL     OW19669  13.371  10.543   8.182
72591SOL    HW119670  13.336  10.454   8.187
72591SOL    HW219671  13.465  10.532   8.196
72592SOL     OW19672   5.589   8.442  10.349
72592SOL    HW119673   5.534   8.386  10.404
72592SOL    HW219674   5.561   8.421  10.260
72593SOL     OW19675   6.251   4.110   1.976
72593SOL    HW119676   6.345   4.125   1.980
72593SOL    HW219677   6.222   4.114   2.067
72594SOL     OW19678   6.188   5.729   7.498
72594SOL    HW119679   6.273   5.758   7.530
72594SOL    HW219680   6.188   5.634   7.511
72595SOL     OW19681  12.423   8.180   6.223
72595SOL    HW119682  12.373   8.261   6.231
72595SOL    HW219683  12.514   8.209   6.210
72596SOL     OW19684   9.356   3.625  11.863
72596SOL    HW119685   9.406   3.543  11.860
72596SOL    HW219686   9.411   3.684  11.916
72597SOL     OW19687   9.363  10.910   8.505
72597SOL    HW119688   9.362  10.890   8.599
72597SOL    HW219689   9.284  10.868   8.471
72598SOL     OW19690  11.071   3.194   4.374
72598SOL    HW119691  10.983   3.230   4.385
72598SOL    HW219692  11.087   3.197   4.280
72599SOL     OW19693   1.494   9.973   0.615
72599SOL    HW119694   1.539  10.018   0.686
72599SOL    HW219695   1.542   9.998   0.536
72600SOL     OW19696   6.353  11.816   8.583
72600SOL    HW119697   6.430  11.869   8.604
72600SOL    HW219698   6.327  11.777   8.666
72601SOL     OW19699  10.925  10.231  14.199
72601SOL    HW119700  10.834  10.234  14.169
72601SOL    HW219701  10.964  10.311  14.165
72602SOL     OW19702   3.809  10.131   5.896
72602SOL    HW119703   3.898  10.132   5.932
72602SOL    HW219704   3.815  10.182   5.815
72603SOL     OW19705  10.765  13.483   9.069
72603SOL    HW119706  10.697  13.448   9.125
72603SOL    HW219707  10.825  13.529   9.128
72604SOL     OW19708   7.980  11.601   6.952
72604SOL    HW119709   8.015  11.664   7.015
72604SOL    HW219710   8.028  11.520   6.970
72605SOL     OW19711   6.791  10.929   4.990
72605SOL    HW119712   6.741  10.996   4.944
72605SOL    HW219713   6.855  10.897   4.925
72606SOL     OW19714   9.861   1.322   0.043
72606SOL    HW119715   9.869   1.405  14.876
72606SOL    HW219716   9.949   1.285   0.040
72607SOL     OW19717   2.951  13.895   9.836
72607SOL    HW119718   3.012  13.962   9.806
72607SOL    HW219719   2.960  13.824   9.771
72608SOL     OW19720   3.001   9.073   2.450
72608SOL    HW119721   2.965   9.023   2.376
72608SOL    HW219722   2.947   9.152   2.454
72609SOL     OW19723   6.259   7.828   2.332
72609SOL    HW119724   6.190   7.829   2.266
72609SOL    HW219725   6.296   7.739   2.326
72610SOL     OW19726   7.960   7.959  13.806
72610SOL    HW119727   7.941   7.908  13.884
72610SOL    HW219728   7.914   7.915  13.735
72611SOL     OW19729   5.908  10.750   9.984
72611SOL    HW119730   5.933  10.747   9.892
72611SOL    HW219731   5.843  10.820   9.989
72612SOL     OW19732  10.694   6.572   1.320
72612SOL    HW119733  10.717   6.509   1.388
72612SOL    HW219734  10.697   6.522   1.238
72613SOL     OW19735  10.266   8.318   4.490
72613SOL    HW119736  10.203   8.284   4.554
72613SOL    HW219737  10.222   8.393   4.451
72614SOL     OW19738   8.215   8.363  11.541
72614SOL    HW119739   8.181   8.438  11.590
72614SOL    HW219740   8.305   8.354  11.570
72615SOL     OW19741   8.539   9.704   2.147
72615SOL    HW119742   8.448   9.675   2.145
72615SOL    HW219743   8.544   9.761   2.224
72616SOL     OW19744  14.117   2.953   4.122
72616SOL    HW119745  14.129   2.897   4.198
72616SOL    HW219746  14.058   3.022   4.153
72617SOL     OW19747  12.221   2.176   3.088
72617SOL    HW119748  12.181   2.208   3.168
72617SOL    HW219749  12.295   2.235   3.072
72618SOL     OW19750  12.117   3.062   0.481
72618SOL    HW119751  12.043   3.103   0.526
72618SOL    HW219752  12.080   2.984   0.439
72619SOL     OW19753   4.788   5.978  12.286
72619SOL    HW119754   4.729   5.970  12.360
72619SOL    HW219755   4.873   6.001  12.324
72620SOL     OW19756   4.507  13.376  11.550
72620SOL    HW119757   4.452  13.356  11.625
72620SOL    HW219758   4.570  13.440  11.582
72621SOL     OW19759   5.433  11.976   6.962
72621SOL    HW119760   5.434  12.054   7.017
72621SOL    HW219761   5.485  12.000   6.885
72622SOL     OW19762   0.970  10.596   8.432
72622SOL    HW119763   0.909  10.527   8.406
72622SOL    HW219764   1.008  10.565   8.514
72623SOL     OW19765  14.860   9.213   1.188
72623SOL    HW119766  14.823   9.263   1.115
72623SOL    HW219767   0.038   9.149   1.147
72624SOL     OW19768  11.414  13.095   7.645
72624SOL    HW119769  11.509  13.105   7.651
72624SOL    HW219770  11.385  13.089   7.737
72625SOL     OW19771   8.015   0.916  14.589
72625SOL    HW119772   8.059   0.835  14.616
72625SOL    HW219773   8.019   0.914  14.493
72626SOL     OW19774  14.485   7.504   3.947
72626SOL    HW119775  14.399   7.494   3.905
72626SOL    HW219776  14.467   7.552   4.027
72627SOL     OW19777   2.954  10.993   9.583
72627SOL    HW119778   3.041  11.031   9.572
72627SOL    HW219779   2.951  10.921   9.521
72628SOL     OW19780  14.757   0.629   7.047
72628SOL    HW119781  14.718   0.550   7.011
72628SOL    HW219782  14.807   0.599   7.122
72629SOL     OW19783  11.035  12.762  13.142
72629SOL    HW119784  11.062  12.786  13.231
72629SOL    HW219785  10.950  12.804  13.131
72630SOL     OW19786   7.482   3.627  13.097
72630SOL    HW119787   7.443   3.571  13.031
72630SOL    HW219788   7.573   3.597  13.103
72631SOL     OW19789   7.833   1.830   2.667
72631SOL    HW119790   7.859   1.881   2.743
72631SOL    HW219791   7.768   1.884   2.622
72632SOL     OW19792   0.206   4.878  11.526
72632SOL    HW119793   0.133   4.932  11.496
72632SOL    HW219794   0.204   4.802  11.468
72633SOL     OW19795   2.077   9.214   1.549
72633SOL    HW119796   2.133   9.264   1.609
72633SOL    HW219797   2.076   9.265   1.468
72634SOL     OW19798   7.105   5.987   0.713
72634SOL    HW119799   7.092   5.893   0.702
72634SOL    HW219800   7.104   6.023   0.624
72635SOL     OW19801   2.548  14.546   1.240
72635SOL    HW119802   2.521  14.591   1.160
72635SOL    HW219803   2.599  14.612   1.289
72636SOL     OW19804   9.988   9.112   2.710
72636SOL    HW119805   9.916   9.074   2.761
72636SOL    HW219806  10.012   9.043   2.648
72637SOL     OW19807  14.101   3.037   4.675
72637SOL    HW119808  14.167   2.997   4.619
72637SOL    HW219809  14.151   3.081   4.744
72638SOL     OW19810  12.876   2.583  14.744
72638SOL    HW119811  12.945   2.645  14.725
72638SOL    HW219812  12.888   2.559  14.836
72639SOL     OW19813   4.914  14.554   3.108
72639SOL    HW119814   4.972  14.553   3.184
72639SOL    HW219815   4.931  14.637   3.065
72640SOL     OW19816   7.530  11.458   1.709
72640SOL    HW119817   7.474  11.464   1.631
72640SOL    HW219818   7.618  11.477   1.676
72641SOL     OW19819   6.317   5.014   7.849
72641SOL    HW119820   6.222   5.014   7.835
72641SOL    HW219821   6.342   4.923   7.841
72642SOL     OW19822   9.761  14.491   1.766
72642SOL    HW119823   9.807  14.466   1.846
72642SOL    HW219824   9.824  14.476   1.696
72643SOL     OW19825   4.828   7.433   6.079
72643SOL    HW119826   4.808   7.481   5.999
72643SOL    HW219827   4.898   7.484   6.121
72644SOL     OW19828   2.070   9.218   6.575
72644SOL    HW119829   2.101   9.209   6.485
72644SOL    HW219830   2.023   9.136   6.592
72645SOL     OW19831   0.494   7.075   0.146
72645SOL    HW119832   0.483   7.047   0.237
72645SOL    HW219833   0.529   6.998   0.101
72646SOL     OW19834  13.105   6.021   5.916
72646SOL    HW119835  13.142   6.109   5.907
72646SOL    HW219836  13.011   6.034   5.907
72647SOL     OW19837   6.866   2.227   1.082
72647SOL    HW119838   6.952   2.193   1.105
72647SOL    HW219839   6.855   2.304   1.139
72648SOL     OW19840   1.153   1.605   6.792
72648SOL    HW119841   1.146   1.686   6.843
72648SOL    HW219842   1.169   1.635   6.702
72649SOL     OW19843   6.473   1.111  12.858
72649SOL    HW119844   6.430   1.035  12.898
72649SOL    HW219845   6.402   1.172  12.840
72650SOL     OW19846  10.865   9.706   6.338
72650SOL    HW119847  10.801   9.708   6.409
72650SOL    HW219848  10.924   9.780   6.356
72651SOL     OW19849   1.211   6.102   5.696
72651SOL    HW119850   1.260   6.170   5.743
72651SOL    HW219851   1.137   6.149   5.658
72652SOL     OW19852  11.858   4.906   3.163
72652SOL    HW119853  11.786   4.871   3.216
72652SOL    HW219854  11.853   4.857   3.081
72653SOL     OW19855   2.147   8.835  14.851
72653SOL    HW119856   2.224   8.789   0.005
72653SOL    HW219857   2.153   8.827  14.756
72654SOL     OW19858  13.698   7.234   5.654
72654SOL    HW119859  13.660   7.243   5.567
72654SOL    HW219860  13.733   7.320   5.674
72655SOL     OW19861   0.902   4.706   3.625
72655SOL    HW119862   0.974   4.735   3.682
72655SOL    HW219863   0.838   4.669   3.685
72656SOL     OW19864  11.482  13.676   8.262
72656SOL    HW119865  11.473  13.604   8.325
72656SOL    HW219866  11.402  13.727   8.273
72657SOL     OW19867  11.552  14.242   7.643
72657SOL    HW119868  11.519  14.325   7.679
72657SOL    HW219869  11.562  14.186   7.720
72658SOL     OW19870  14.165  11.335   7.031
72658SOL    HW119871  14.194  11.301   6.947
72658SOL    HW219872  14.204  11.277   7.096
72659SOL     OW19873  11.130   1.628   0.937
72659SOL    HW119874  11.046   1.667   0.961
72659SOL    HW219875  11.129   1.542   0.979
72660SOL     OW19876  11.941   3.029   2.491
72660SOL    HW119877  11.989   2.951   2.520
72660SOL    HW219878  11.937   3.084   2.569
72661SOL     OW19879  13.488  11.022  14.640
72661SOL    HW119880  13.488  11.053  14.550
72661SOL    HW219881  13.399  11.034  14.671
72662SOL     OW19882  11.299   9.206   1.529
72662SOL    HW119883  11.335   9.251   1.605
72662SOL    HW219884  11.349   9.124   1.524
72663SOL     OW19885   5.311   6.246  11.038
72663SOL    HW119886   5.331   6.219  10.948
72663SOL    HW219887   5.278   6.335  11.029
72664SOL     OW19888   4.431  14.807  10.082
72664SOL    HW119889   4.505  14.861  10.110
72664SOL    HW219890   4.377  14.865  10.029
72665SOL     OW19891   8.075   8.320   5.787
72665SOL    HW119892   8.121   8.315   5.871
72665SOL    HW219893   8.144   8.311   5.721
72666SOL     OW19894  14.366   1.437  13.820
72666SOL    HW119895  14.439   1.471  13.769
72666SOL    HW219896  14.406   1.404  13.901
72667SOL     OW19897   9.454   7.903  12.389
72667SOL    HW119898   9.432   7.815  12.357
72667SOL    HW219899   9.431   7.961  12.317
72668SOL     OW19900  10.702  14.731  14.164
72668SOL    HW119901  10.764  14.800  14.189
72668SOL    HW219902  10.620  14.755  14.206
72669SOL     OW19903   9.739   5.788   4.208
72669SOL    HW119904   9.697   5.840   4.277
72669SOL    HW219905   9.678   5.791   4.135
72670SOL     OW19906   9.265   5.043  10.629
72670SOL    HW119907   9.321   4.985  10.681
72670SOL    HW219908   9.258   5.123  10.681
72671SOL     OW19909   1.786   1.430   7.451
72671SOL    HW119910   1.700   1.468   7.466
72671SOL    HW219911   1.807   1.452   7.360
72672SOL     OW19912   9.730   6.496   2.879
72672SOL    HW119913   9.745   6.404   2.857
72672SOL    HW219914   9.805   6.520   2.934
72673SOL     OW19915   7.171   4.216   7.935
72673SOL    HW119916   7.131   4.130   7.948
72673SOL    HW219917   7.263   4.204   7.959
72674SOL     OW19918   9.890  10.961   9.376
72674SOL    HW119919   9.887  10.868   9.354
72674SOL    HW219920   9.973  10.973   9.422
72675SOL     OW19921  10.705   5.677   5.085
72675SOL    HW119922  10.668   5.661   5.171
72675SOL    HW219923  10.715   5.589   5.047
72676SOL     OW19924   4.741   2.408   0.753
72676SOL    HW119925   4.822   2.357   0.748
72676SOL    HW219926   4.683   2.366   0.689
72677SOL     OW19927   0.253  13.794   9.052
72677SOL    HW119928   0.199  13.871   9.067
72677SOL    HW219929   0.287  13.805   8.963
72678SOL     OW19930   3.914   2.236  10.185
72678SOL    HW119931   4.005   2.208  10.190
72678SOL    HW219932   3.919   2.332  10.193
72679SOL     OW19933  13.123   7.869   6.226
72679SOL    HW119934  13.042   7.857   6.177
72679SOL    HW219935  13.169   7.939   6.180
72680SOL     OW19936   3.541   4.163   7.332
72680SOL    HW119937   3.585   4.129   7.410
72680SOL    HW219938   3.496   4.087   7.295
72681SOL     OW19939   1.396  13.164   2.899
72681SOL    HW119940   1.448  13.095   2.940
72681SOL    HW219941   1.327  13.118   2.852
72682SOL     OW19942   0.245  14.708  12.838
72682SOL    HW119943   0.221  14.800  12.828
72682SOL    HW219944   0.329  14.700  12.793
72683SOL     OW19945   3.118   1.496   3.180
72683SOL    HW119946   3.054   1.549   3.132
72683SOL    HW219947   3.192   1.555   3.193
72684SOL     OW19948   5.890  10.799   3.471
72684SOL    HW119949   5.876  10.796   3.566
72684SOL    HW219950   5.869  10.710   3.441
72685SOL     OW19951   5.722  11.282   9.244
72685SOL    HW119952   5.792  11.228   9.281
72685SOL    HW219953   5.672  11.312   9.320
72686SOL     OW19954   1.943   5.542   2.993
72686SOL    HW119955   1.981   5.621   3.031
72686SOL    HW219956   1.979   5.537   2.905
72687SOL     OW19957   3.258  10.541  11.369
72687SOL    HW119958   3.192  10.524  11.302
72687SOL    HW219959   3.222  10.611  11.423
72688SOL     OW19960  12.045  14.601   3.358
72688SOL    HW119961  11.980  14.660   3.394
72688SOL    HW219962  12.043  14.524   3.415
72689SOL     OW19963   8.412   3.414   0.067
72689SOL    HW119964   8.385   3.326   0.040
72689SOL    HW219965   8.330   3.460   0.083
72690SOL     OW19966   3.420   4.337  12.836
72690SOL    HW119967   3.456   4.422  12.862
72690SOL    HW219968   3.467   4.313  12.757
72691SOL     OW19969  14.059  14.153   1.833
72691SOL    HW119970  14.019  14.238   1.813
72691SOL    HW219971  13.991  14.089   1.816
72692SOL     OW19972   2.781   4.081   6.293
72692SOL    HW119973   2.837   4.115   6.223
72692SOL    HW219974   2.835   4.087   6.372
72693SOL     OW19975   5.562   4.869  14.295
72693SOL    HW119976   5.586   4.961  14.303
72693SOL    HW219977   5.482   4.860  14.347
72694SOL     OW19978   1.319   1.095   8.056
72694SOL    HW119979   1.327   1.086   7.961
72694SOL    HW219980   1.407   1.117   8.086
72695SOL     OW19981  14.519  14.249  12.613
72695SOL    HW119982  14.443  14.306  12.618
72695SOL    HW219983  14.512  14.192  12.689
72696SOL     OW19984  12.997   7.200   3.116
72696SOL    HW119985  13.070   7.238   3.165
72696SOL    HW219986  12.933   7.175   3.183
72697SOL     OW19987   5.526   5.084   7.382
72697SOL    HW119988   5.589   5.137   7.334
72697SOL    HW219989   5.441   5.124   7.364
72698SOL     OW19990   2.677  10.584  13.127
72698SOL    HW119991   2.649  10.508  13.075
72698SOL    HW219992   2.755  10.553  13.173
72699SOL     OW19993  13.082   0.413   4.400
72699SOL    HW119994  12.991   0.412   4.372
72699SOL    HW219995  13.086   0.481   4.467
72700SOL     OW19996  13.923   9.640   5.819
72700SOL    HW119997  13.892   9.550   5.824
72700SOL    HW219998  13.884   9.684   5.894
72701SOL     OW19999   9.627   3.459   2.563
72701SOL    HW120000   9.670   3.450   2.478
72701SOL    HW220001   9.631   3.372   2.602
72702SOL     OW20002  14.553  14.623   0.336
72702SOL    HW120003  14.493  14.639   0.410
72702SOL    HW220004  14.620  14.565   0.371
72703SOL     OW20005   1.738   2.570   7.451
72703SOL    HW120006   1.682   2.493   7.439
72703SOL    HW220007   1.692   2.623   7.517
72704SOL     OW20008  13.509  12.818  13.694
72704SOL    HW120009  13.556  12.784  13.618
72704SOL    HW220010  13.439  12.872  13.656
72705SOL     OW20011   9.939  13.233   6.192
72705SOL    HW120012   9.948  13.244   6.098
72705SOL    HW220013   9.893  13.150   6.203
72706SOL     OW20014  11.268   4.600   6.235
72706SOL    HW120015  11.293   4.581   6.144
72706SOL    HW220016  11.347   4.636   6.274
72707SOL     OW20017   7.505   3.520   9.883
72707SOL    HW120018   7.568   3.454   9.854
72707SOL    HW220019   7.559   3.597   9.902
72708SOL     OW20020  10.478   5.915   1.472
72708SOL    HW120021  10.542   5.961   1.419
72708SOL    HW220022  10.396   5.924   1.424
72709SOL     OW20023   4.245   4.596   5.340
72709SOL    HW120024   4.223   4.637   5.424
72709SOL    HW220025   4.259   4.669   5.280
72710SOL     OW20026   8.353   3.258   3.259
72710SOL    HW120027   8.280   3.227   3.313
72710SOL    HW220028   8.339   3.216   3.174
72711SOL     OW20029  14.730  13.445   6.086
72711SOL    HW120030  14.802  13.419   6.142
72711SOL    HW220031  14.724  13.376   6.020
72712SOL     OW20032  11.476  13.342   3.659
72712SOL    HW120033  11.446  13.394   3.734
72712SOL    HW220034  11.399  13.334   3.603
72713SOL     OW20035   3.046   4.185   3.873
72713SOL    HW120036   3.124   4.203   3.821
72713SOL    HW220037   2.999   4.117   3.825
72714SOL     OW20038   9.911   5.104  14.358
72714SOL    HW120039   9.940   5.180  14.409
72714SOL    HW220040   9.833   5.135  14.312
72715SOL     OW20041   6.803   9.776   3.955
72715SOL    HW120042   6.809   9.744   3.865
72715SOL    HW220043   6.717   9.817   3.960
72716SOL     OW20044   6.085   1.145  11.952
72716SOL    HW120045   6.137   1.069  11.925
72716SOL    HW220046   6.000   1.108  11.975
72717SOL     OW20047   4.679   1.380   9.595
72717SOL    HW120048   4.737   1.455   9.582
72717SOL    HW220049   4.604   1.396   9.538
72718SOL     OW20050   4.373   3.114  11.787
72718SOL    HW120051   4.413   3.027  11.784
72718SOL    HW220052   4.426   3.163  11.849
72719SOL     OW20053  10.006   4.897   5.181
72719SOL    HW120054  10.085   4.948   5.197
72719SOL    HW220055  10.038   4.810   5.157
72720SOL     OW20056  14.480   8.069   6.622
72720SOL    HW120057  14.554   8.129   6.613
72720SOL    HW220058  14.454   8.050   6.532
72721SOL     OW20059   8.854  11.974   8.243
72721SOL    HW120060   8.796  11.978   8.166
72721SOL    HW220061   8.799  12.006   8.315
72722SOL     OW20062   6.717   6.268   7.485
72722SOL    HW120063   6.688   6.358   7.468
72722SOL    HW220064   6.636   6.216   7.482
72723SOL     OW20065  14.833   8.410   8.160
72723SOL    HW120066  14.795   8.326   8.136
72723SOL    HW220067   0.045   8.391   8.180
72724SOL     OW20068   2.057   5.893   0.892
72724SOL    HW120069   2.015   5.920   0.810
72724SOL    HW220070   2.008   5.815   0.920
72725SOL     OW20071   0.672  14.754  11.398
72725SOL    HW120072   0.614  14.715  11.333
72725SOL    HW220073   0.749  14.697  11.399
72726SOL     OW20074   2.331   9.092   2.355
72726SOL    HW120075   2.408   9.087   2.412
72726SOL    HW220076   2.260   9.119   2.413
72727SOL     OW20077   3.010   6.106   5.627
72727SOL    HW120078   2.999   6.200   5.636
72727SOL    HW220079   2.926   6.075   5.591
72728SOL     OW20080  13.119   3.681  11.647
72728SOL    HW120081  13.182   3.609  11.647
72728SOL    HW220082  13.096   3.693  11.555
72729SOL     OW20083   4.559   2.148   3.436
72729SOL    HW120084   4.627   2.136   3.502
72729SOL    HW220085   4.608   2.154   3.353
72730SOL     OW20086   0.351   9.070   7.143
72730SOL    HW120087   0.265   9.058   7.103
72730SOL    HW220088   0.404   8.997   7.109
72731SOL     OW20089   1.728  14.638   2.477
72731SOL    HW120090   1.731  14.691   2.556
72731SOL    HW220091   1.669  14.685   2.418
72732SOL     OW20092   0.568   1.078   3.626
72732SOL    HW120093   0.522   1.137   3.566
72732SOL    HW220094   0.537   0.991   3.603
72733SOL     OW20095  10.417   3.984   8.297
72733SOL    HW120096  10.352   4.054   8.289
72733SOL    HW220097  10.498   4.029   8.321
72734SOL     OW20098   3.818   3.426   4.474
72734SOL    HW120099   3.727   3.433   4.447
72734SOL    HW220100   3.849   3.345   4.433
72735SOL     OW20101  14.137  12.403   1.080
72735SOL    HW120102  14.216  12.413   1.027
72735SOL    HW220103  14.068  12.383   1.017
72736SOL     OW20104   7.161   8.190   8.971
72736SOL    HW120105   7.245   8.148   8.950
72736SOL    HW220106   7.138   8.237   8.890
72737SOL     OW20107  10.860   6.668   5.579
72737SOL    HW120108  10.822   6.702   5.497
72737SOL    HW220109  10.856   6.741   5.640
72738SOL     OW20110  11.517   6.651  13.497
72738SOL    HW120111  11.497   6.741  13.523
72738SOL    HW220112  11.608   6.654  13.471
72739SOL     OW20113  13.527   7.955  12.559
72739SOL    HW120114  13.539   8.030  12.502
72739SOL    HW220115  13.455   7.906  12.520
72740SOL     OW20116   1.750   7.944   1.883
72740SOL    HW120117   1.742   7.930   1.977
72740SOL    HW220118   1.748   7.856   1.845
72741SOL     OW20119  12.503   4.500  10.797
72741SOL    HW120120  12.503   4.593  10.819
72741SOL    HW220121  12.535   4.457  10.876
72742SOL     OW20122   3.917   9.200   2.255
72742SOL    HW120123   3.965   9.177   2.334
72742SOL    HW220124   3.910   9.118   2.206
72743SOL     OW20125   0.413   2.897   3.679
72743SOL    HW120126   0.469   2.973   3.660
72743SOL    HW220127   0.334   2.935   3.717
72744SOL     OW20128   1.057   7.427   9.131
72744SOL    HW120129   1.129   7.387   9.084
72744SOL    HW220130   1.080   7.418   9.224
72745SOL     OW20131   9.380   7.192   6.628
72745SOL    HW120132   9.446   7.221   6.565
72745SOL    HW220133   9.416   7.218   6.713
72746SOL     OW20134  14.427  11.353   4.499
72746SOL    HW120135  14.362  11.423   4.499
72746SOL    HW220136  14.446  11.338   4.592
72747SOL     OW20137   8.458   1.691   1.657
72747SOL    HW120138   8.482   1.601   1.638
72747SOL    HW220139   8.542   1.737   1.665
72748SOL     OW20140   8.593   1.411   0.154
72748SOL    HW120141   8.505   1.390   0.123
72748SOL    HW220142   8.584   1.497   0.195
72749SOL     OW20143   2.746  11.556   6.566
72749SOL    HW120144   2.767  11.508   6.646
72749SOL    HW220145   2.652  11.572   6.571
72750SOL     OW20146   1.619   5.300   0.996
72750SOL    HW120147   1.692   5.265   0.946
72750SOL    HW220148   1.659   5.359   1.061
72751SOL     OW20149   5.399   4.643   2.283
72751SOL    HW120150   5.409   4.653   2.188
72751SOL    HW220151   5.443   4.720   2.320
72752SOL     OW20152  10.945  14.179   0.874
72752SOL    HW120153  11.032  14.158   0.841
72752SOL    HW220154  10.938  14.128   0.955
72753SOL     OW20155   2.298  11.712   5.462
72753SOL    HW120156   2.305  11.630   5.413
72753SOL    HW220157   2.256  11.773   5.401
72754SOL     OW20158   9.499  12.311  14.208
72754SOL    HW120159   9.579  12.358  14.184
72754SOL    HW220160   9.431  12.348  14.152
72755SOL     OW20161   4.295   7.628  13.358
72755SOL    HW120162   4.289   7.718  13.392
72755SOL    HW220163   4.387   7.617  13.335
72756SOL     OW20164   7.652   2.519   8.756
72756SOL    HW120165   7.655   2.493   8.848
72756SOL    HW220166   7.604   2.449   8.713
72757SOL     OW20167  11.862  10.810   1.756
72757SOL    HW120168  11.789  10.795   1.695
72757SOL    HW220169  11.858  10.904   1.774
72758SOL     OW20170  11.357   7.287   2.092
72758SOL    HW120171  11.351   7.240   2.176
72758SOL    HW220172  11.277   7.263   2.046
72759SOL     OW20173  12.836   0.025   7.815
72759SOL    HW120174  12.838   0.010   7.721
72759SOL    HW220175  12.913   0.078   7.833
72760SOL     OW20176   4.789   8.543  11.097
72760SOL    HW120177   4.880   8.561  11.074
72760SOL    HW220178   4.794   8.463  11.149
72761SOL     OW20179   5.305   9.917  14.450
72761SOL    HW120180   5.250   9.994  14.459
72761SOL    HW220181   5.354   9.932  14.369
72762SOL     OW20182   8.461   6.002  12.644
72762SOL    HW120183   8.500   6.008  12.557
72762SOL    HW220184   8.435   5.910  12.651
72763SOL     OW20185  11.750   6.823   7.437
72763SOL    HW120186  11.717   6.838   7.348
72763SOL    HW220187  11.825   6.882   7.445
72764SOL     OW20188   2.872   1.276   4.185
72764SOL    HW120189   2.782   1.301   4.162
72764SOL    HW220190   2.883   1.189   4.145
72765SOL     OW20191  12.912   5.054  12.409
72765SOL    HW120192  12.980   5.116  12.386
72765SOL    HW220193  12.955   4.969  12.408
72766SOL     OW20194  14.675  10.129   5.400
72766SOL    HW120195  14.712  10.077   5.471
72766SOL    HW220196  14.721  10.213   5.405
72767SOL     OW20197   7.193   7.697   5.942
72767SOL    HW120198   7.157   7.783   5.963
72767SOL    HW220199   7.287   7.711   5.936
72768SOL     OW20200   3.617   7.043   2.201
72768SOL    HW120201   3.575   6.967   2.241
72768SOL    HW220202   3.664   7.009   2.126
72769SOL     OW20203  14.866   3.997   9.610
72769SOL    HW120204  14.776   3.968   9.623
72769SOL    HW220205   0.029   3.983   9.695
72770SOL     OW20206   4.118  13.070   9.205
72770SOL    HW120207   4.214  13.074   9.203
72770SOL    HW220208   4.091  13.162   9.207
72771SOL     OW20209   3.958   9.037  11.965
72771SOL    HW120210   3.983   8.967  12.025
72771SOL    HW220211   3.912   9.101  12.020
72772SOL     OW20212   4.727   2.084   2.003
72772SOL    HW120213   4.724   2.125   1.916
72772SOL    HW220214   4.803   2.124   2.045
72773SOL     OW20215   6.078   3.271   6.434
72773SOL    HW120216   6.042   3.332   6.370
72773SOL    HW220217   6.021   3.195   6.430
72774SOL     OW20218   7.266   6.857  13.132
72774SOL    HW120219   7.265   6.906  13.214
72774SOL    HW220220   7.174   6.833  13.118
72775SOL     OW20221   3.375   2.055   8.998
72775SOL    HW120222   3.349   1.972   9.039
72775SOL    HW220223   3.361   2.039   8.904
72776SOL     OW20224   0.117   8.095   2.707
72776SOL    HW120225   0.114   8.174   2.760
72776SOL    HW220226   0.210   8.074   2.702
72777SOL     OW20227  12.991   6.818   5.041
72777SOL    HW120228  13.058   6.835   4.975
72777SOL    HW220229  13.019   6.736   5.082
72778SOL     OW20230  14.103  11.464  11.030
72778SOL    HW120231  14.087  11.415  10.949
72778SOL    HW220232  14.108  11.396  11.098
72779SOL     OW20233   6.876   3.308   6.757
72779SOL    HW120234   6.921   3.390   6.776
72779SOL    HW220235   6.799   3.334   6.705
72780SOL     OW20236   0.915   0.457   1.211
72780SOL    HW120237   0.924   0.394   1.140
72780SOL    HW220238   0.826   0.491   1.202
72781SOL     OW20239  11.714   0.138  11.691
72781SOL    HW120240  11.722   0.111  11.783
72781SOL    HW220241  11.735   0.231  11.692
72782SOL     OW20242   1.765  13.265   8.861
72782SOL    HW120243   1.778  13.193   8.800
72782SOL    HW220244   1.827  13.332   8.832
72783SOL     OW20245   8.821  10.998  14.428
72783SOL    HW120246   8.838  11.073  14.484
72783SOL    HW220247   8.810  11.036  14.341
72784SOL     OW20248  14.378   8.587   4.838
72784SOL    HW120249  14.449   8.623   4.891
72784SOL    HW220250  14.359   8.502   4.878
72785SOL     OW20251  10.092  13.269   2.280
72785SOL    HW120252  10.115  13.354   2.243
72785SOL    HW220253  10.175  13.222   2.285
72786SOL     OW20254   4.258   4.442   4.468
72786SOL    HW120255   4.198   4.479   4.404
72786SOL    HW220256   4.240   4.348   4.468
72787SOL     OW20257   4.904  13.468   2.595
72787SOL    HW120258   4.976  13.520   2.629
72787SOL    HW220259   4.927  13.377   2.616
72788SOL     OW20260   8.028  14.197  12.721
72788SOL    HW120261   8.086  14.273  12.715
72788SOL    HW220262   8.042  14.163  12.810
72789SOL     OW20263   9.008  13.600   4.908
72789SOL    HW120264   9.072  13.536   4.877
72789SOL    HW220265   9.019  13.675   4.850
72790SOL     OW20266   2.530  10.127   9.367
72790SOL    HW120267   2.511  10.033   9.357
72790SOL    HW220268   2.446  10.165   9.391
72791SOL     OW20269   6.378  13.233   9.904
72791SOL    HW120270   6.448  13.241   9.969
72791SOL    HW220271   6.297  13.230   9.954
72792SOL     OW20272   5.127   9.691   0.166
72792SOL    HW120273   5.117   9.753   0.094
72792SOL    HW220274   5.205   9.720   0.212
72793SOL     OW20275   0.396  11.660   3.194
72793SOL    HW120276   0.325  11.647   3.256
72793SOL    HW220277   0.405  11.755   3.187
72794SOL     OW20278   4.124   4.157   8.116
72794SOL    HW120279   4.183   4.088   8.086
72794SOL    HW220280   4.182   4.226   8.148
72795SOL     OW20281   5.709  14.002  11.785
72795SOL    HW120282   5.720  13.937  11.716
72795SOL    HW220283   5.615  14.003  11.802
72796SOL     OW20284   0.302   6.736  14.465
72796SOL    HW120285   0.379   6.767  14.417
72796SOL    HW220286   0.245   6.813  14.472
72797SOL     OW20287   4.092  11.216   5.201
72797SOL    HW120288   4.074  11.122   5.201
72797SOL    HW220289   4.092  11.241   5.109
72798SOL     OW20290   6.113  10.320   9.878
72798SOL    HW120291   6.063  10.242   9.859
72798SOL    HW220292   6.163  10.337   9.798
72799SOL     OW20293   1.019   3.744   2.401
72799SOL    HW120294   0.931   3.711   2.421
72799SOL    HW220295   1.005   3.812   2.336
72800SOL     OW20296  14.051  10.122   1.988
72800SOL    HW120297  13.976  10.144   2.044
72800SOL    HW220298  14.079  10.036   2.018
72801SOL     OW20299  14.515  10.058   9.982
72801SOL    HW120300  14.608  10.055   9.961
72801SOL    HW220301  14.506  10.136  10.038
72802SOL     OW20302   3.695   8.761  12.077
72802SOL    HW120303   3.687   8.817  12.155
72802SOL    HW220304   3.631   8.691  12.092
72803SOL     OW20305   2.625   2.444  11.238
72803SOL    HW120306   2.705   2.496  11.243
72803SOL    HW220307   2.612   2.431  11.144
72804SOL     OW20308   5.459  11.939  13.286
72804SOL    HW120309   5.458  11.863  13.345
72804SOL    HW220310   5.538  11.987  13.310
72805SOL     OW20311   8.084   8.981   6.490
72805SOL    HW120312   8.033   9.053   6.527
72805SOL    HW220313   8.070   8.908   6.550
72806SOL     OW20314   3.363  11.585   6.459
72806SOL    HW120315   3.278  11.581   6.415
72806SOL    HW220316   3.397  11.671   6.436
72807SOL     OW20317  11.732   0.104   7.885
72807SOL    HW120318  11.732   0.147   7.971
72807SOL    HW220319  11.643   0.069   7.876
72808SOL     OW20320  12.980   0.969   7.682
72808SOL    HW120321  13.054   1.028   7.677
72808SOL    HW220322  13.013   0.886   7.648
72809SOL     OW20323   3.992  13.729  13.299
72809SOL    HW120324   4.044  13.770  13.230
72809SOL    HW220325   3.991  13.635  13.277
72810SOL     OW20326  14.660  14.701  12.244
72810SOL    HW120327  14.726  14.667  12.304
72810SOL    HW220328  14.580  14.653  12.267
72811SOL     OW20329  14.600  11.496   5.214
72811SOL    HW120330  14.553  11.514   5.295
72811SOL    HW220331  14.608  11.582   5.171
72812SOL     OW20332  10.219  13.411   3.272
72812SOL    HW120333  10.194  13.438   3.360
72812SOL    HW220334  10.314  13.401   3.277
72813SOL     OW20335   4.255   5.023   8.308
72813SOL    HW120336   4.282   4.950   8.363
72813SOL    HW220337   4.317   5.023   8.235
72814SOL     OW20338  10.004   5.607   2.196
72814SOL    HW120339   9.946   5.683   2.181
72814SOL    HW220340   9.977   5.543   2.130
72815SOL     OW20341  12.974  14.513  12.438
72815SOL    HW120342  13.018  14.476  12.515
72815SOL    HW220343  12.987  14.448  12.369
72816SOL     OW20344  10.735   9.801   5.475
72816SOL    HW120345  10.680   9.866   5.517
72816SOL    HW220346  10.823   9.818   5.508
72817SOL     OW20347  11.269   0.201   4.435
72817SOL    HW120348  11.344   0.261   4.429
72817SOL    HW220349  11.208   0.232   4.368
72818SOL     OW20350   4.695   1.349   8.216
72818SOL    HW120351   4.674   1.323   8.126
72818SOL    HW220352   4.615   1.391   8.247
72819SOL     OW20353  10.005   1.142   7.474
72819SOL    HW120354   9.931   1.192   7.508
72819SOL    HW220355  10.081   1.179   7.517
72820SOL     OW20356  12.954   3.872   4.699
72820SOL    HW120357  12.956   3.818   4.620
72820SOL    HW220358  12.869   3.916   4.697
72821SOL     OW20359   6.784   2.434   1.238
72821SOL    HW120360   6.699   2.478   1.250
72821SOL    HW220361   6.844   2.505   1.216
72822SOL     OW20362   1.042  11.427   4.987
72822SOL    HW120363   1.126  11.419   4.942
72822SOL    HW220364   1.064  11.439   5.079
72823SOL     OW20365   0.517  14.820  12.307
72823SOL    HW120366   0.494   0.022  12.264
72823SOL    HW220367   0.534  14.759  12.235
72824SOL     OW20368   5.918   9.424  14.588
72824SOL    HW120369   5.984   9.358  14.609
72824SOL    HW220370   5.896   9.406  14.496
72825SOL     OW20371   3.474  13.206   1.550
72825SOL    HW120372   3.483  13.113   1.572
72825SOL    HW220373   3.408  13.208   1.481
72826SOL     OW20374   6.827  12.981   9.717
72826SOL    HW120375   6.910  12.992   9.763
72826SOL    HW220376   6.769  13.046   9.756
72827SOL     OW20377   7.849   6.421  10.240
72827SOL    HW120378   7.937   6.458  10.242
72827SOL    HW220379   7.794   6.490  10.203
72828SOL     OW20380   0.070   0.475  14.733
72828SOL    HW120381   0.117   0.520  14.662
72828SOL    HW220382   0.117   0.500  14.812
72829SOL     OW20383   8.746   8.811   1.433
72829SOL    HW120384   8.827   8.862   1.429
72829SOL    HW220385   8.774   8.726   1.467
72830SOL     OW20386  13.331   6.377   2.201
72830SOL    HW120387  13.360   6.397   2.112
72830SOL    HW220388  13.364   6.288   2.218
72831SOL     OW20389   6.726   4.418   2.262
72831SOL    HW120390   6.652   4.384   2.211
72831SOL    HW220391   6.708   4.512   2.269
72832SOL     OW20392  12.178   8.703  11.829
72832SOL    HW120393  12.165   8.767  11.900
72832SOL    HW220394  12.272   8.689  11.826
72833SOL     OW20395   7.924  13.806   2.346
72833SOL    HW120396   7.913  13.790   2.439
72833SOL    HW220397   8.013  13.776   2.326
72834SOL     OW20398   1.287   4.942   4.547
72834SOL    HW120399   1.212   4.889   4.522
72834SOL    HW220400   1.316   4.904   4.630
72835SOL     OW20401  11.883   9.962  14.028
72835SOL    HW120402  11.841   9.884  14.065
72835SOL    HW220403  11.917  10.009  14.104
72836SOL     OW20404   1.807  14.510   0.472
72836SOL    HW120405   1.897  14.538   0.491
72836SOL    HW220406   1.813  14.415   0.462
72837SOL     OW20407  13.639  14.623   9.154
72837SOL    HW120408  13.630  14.718   9.150
72837SOL    HW220409  13.733  14.608   9.165
72838SOL     OW20410   6.317  11.107   6.329
72838SOL    HW120411   6.395  11.080   6.379
72838SOL    HW220412   6.253  11.132   6.395
72839SOL     OW20413  13.838  14.302   6.296
72839SOL    HW120414  13.916  14.257   6.329
72839SOL    HW220415  13.767  14.272   6.353
72840SOL     OW20416   0.786   0.958   3.079
72840SOL    HW120417   0.752   0.950   3.169
72840SOL    HW220418   0.749   0.883   3.033
72841SOL     OW20419  13.020   0.122   9.704
72841SOL    HW120420  13.010   0.092   9.614
72841SOL    HW220421  12.964   0.064   9.755
72842SOL     OW20422  14.852  10.631   1.059
72842SOL    HW120423  14.785  10.568   1.086
72842SOL    HW220424  14.803  10.706   1.026
72843SOL     OW20425   4.702  13.869  11.032
72843SOL    HW120426   4.691  13.953  10.987
72843SOL    HW220427   4.643  13.875  11.108
72844SOL     OW20428  11.199  12.102   9.389
72844SOL    HW120429  11.205  12.046   9.467
72844SOL    HW220430  11.123  12.158   9.405
72845SOL     OW20431   9.997  12.711   2.324
72845SOL    HW120432  10.066  12.754   2.274
72845SOL    HW220433   9.946  12.663   2.259
72846SOL     OW20434   0.289   3.549   7.842
72846SOL    HW120435   0.343   3.499   7.904
72846SOL    HW220436   0.268   3.630   7.888
72847SOL     OW20437   8.989  12.627  10.760
72847SOL    HW120438   9.024  12.710  10.726
72847SOL    HW220439   9.045  12.560  10.721
72848SOL     OW20440   0.737   0.954   9.934
72848SOL    HW120441   0.784   1.028   9.972
72848SOL    HW220442   0.771   0.878   9.980
72849SOL     OW20443  11.111   3.212   1.746
72849SOL    HW120444  11.177   3.261   1.697
72849SOL    HW220445  11.161   3.151   1.800
72850SOL     OW20446   7.579   7.292   9.615
72850SOL    HW120447   7.549   7.271   9.703
72850SOL    HW220448   7.543   7.223   9.560
72851SOL     OW20449   3.629   1.948  13.277
72851SOL    HW120450   3.601   1.869  13.230
72851SOL    HW220451   3.577   1.948  13.357
72852SOL     OW20452   4.759   1.305   1.567
72852SOL    HW120453   4.697   1.242   1.531
72852SOL    HW220454   4.752   1.294   1.662
72853SOL     OW20455  11.395  11.079   7.038
72853SOL    HW120456  11.467  11.101   7.096
72853SOL    HW220457  11.417  10.993   7.003
72854SOL     OW20458  13.253   5.378   0.302
72854SOL    HW120459  13.168   5.338   0.324
72854SOL    HW220460  13.312   5.347   0.371
72855SOL     OW20461   9.180   2.769   4.085
72855SOL    HW120462   9.203   2.678   4.065
72855SOL    HW220463   9.098   2.784   4.037
72856SOL     OW20464  11.914   1.568  10.565
72856SOL    HW120465  12.008   1.551  10.561
72856SOL    HW220466  11.881   1.505  10.629
72857SOL     OW20467   5.059  14.638   0.517
72857SOL    HW120468   5.038  14.571   0.582
72857SOL    HW220469   5.080  14.588   0.438
72858SOL     OW20470  13.521   6.226   5.269
72858SOL    HW120471  13.592   6.224   5.205
72858SOL    HW220472  13.467   6.150   5.247
72859SOL     OW20473   2.513   6.039  10.601
72859SOL    HW120474   2.424   6.039  10.568
72859SOL    HW220475   2.563   6.088  10.536
72860SOL     OW20476  13.164   5.248  13.640
72860SOL    HW120477  13.099   5.258  13.710
72860SOL    HW220478  13.198   5.336  13.626
72861SOL     OW20479   0.083   5.727   9.188
72861SOL    HW120480   0.028   5.698   9.261
72861SOL    HW220481   0.147   5.787   9.229
72862SOL     OW20482   0.151   1.938   9.003
72862SOL    HW120483   0.206   1.970   8.931
72862SOL    HW220484   0.211   1.888   9.059
72863SOL     OW20485  14.692   6.396   7.421
72863SOL    HW120486  14.653   6.469   7.373
72863SOL    HW220487  14.617   6.339   7.443
72864SOL     OW20488   4.610   3.977   8.268
72864SOL    HW120489   4.647   3.966   8.356
72864SOL    HW220490   4.574   3.890   8.247
72865SOL     OW20491   5.955   7.486  13.463
72865SOL    HW120492   5.972   7.576  13.492
72865SOL    HW220493   6.033   7.437  13.488
72866SOL     OW20494   5.985   8.857  11.608
72866SOL    HW120495   6.051   8.920  11.636
72866SOL    HW220496   6.035   8.781  11.578
72867SOL     OW20497   1.620  12.095   7.395
72867SOL    HW120498   1.601  12.035   7.467
72867SOL    HW220499   1.549  12.159   7.398
72868SOL     OW20500   4.399   1.023   6.988
72868SOL    HW120501   4.406   0.934   6.954
72868SOL    HW220502   4.305   1.037   7.001
72869SOL     OW20503   8.466   5.837   3.430
72869SOL    HW120504   8.514   5.773   3.378
72869SOL    HW220505   8.378   5.800   3.439
72870SOL     OW20506   3.494   5.740  13.323
72870SOL    HW120507   3.520   5.654  13.356
72870SOL    HW220508   3.434   5.774  13.390
72871SOL     OW20509   7.304   1.169   9.566
72871SOL    HW120510   7.263   1.173   9.653
72871SOL    HW220511   7.297   1.077   9.541
72872SOL     OW20512  10.873  11.495   6.726
72872SOL    HW120513  10.820  11.482   6.648
72872SOL    HW220514  10.948  11.547   6.696
72873SOL     OW20515  11.148   2.419   1.532
72873SOL    HW120516  11.064   2.396   1.572
72873SOL    HW220517  11.191   2.335   1.518
72874SOL     OW20518  12.986   3.189  14.264
72874SOL    HW120519  12.924   3.116  14.273
72874SOL    HW220520  13.020   3.180  14.175
72875SOL     OW20521   4.514   2.248   2.657
72875SOL    HW120522   4.552   2.198   2.585
72875SOL    HW220523   4.523   2.191   2.734
72876SOL     OW20524   4.564   6.324   8.243
72876SOL    HW120525   4.640   6.286   8.199
72876SOL    HW220526   4.595   6.342   8.332
72877SOL     OW20527  10.284   0.220  12.269
72877SOL    HW120528  10.307   0.161  12.197
72877SOL    HW220529  10.248   0.162  12.336
72878SOL     OW20530   7.935  11.684  14.851
72878SOL    HW120531   7.910  11.776  14.858
72878SOL    HW220532   7.959  11.659   0.060
72879SOL     OW20533   9.354  11.736   8.535
72879SOL    HW120534   9.440  11.774   8.519
72879SOL    HW220535   9.301  11.810   8.565
72880SOL     OW20536  13.322   2.699   1.380
72880SOL    HW120537  13.359   2.762   1.442
72880SOL    HW220538  13.237   2.736   1.356
72881SOL     OW20539  11.984   3.113   5.912
72881SOL    HW120540  11.972   3.042   5.848
72881SOL    HW220541  11.987   3.192   5.858
72882SOL     OW20542   1.474  12.456   6.821
72882SOL    HW120543   1.501  12.387   6.761
72882SOL    HW220544   1.545  12.463   6.885
72883SOL     OW20545   9.647   2.533  14.068
72883SOL    HW120546   9.562   2.575  14.059
72883SOL    HW220547   9.642   2.456  14.011
72884SOL     OW20548   6.470   3.494   0.653
72884SOL    HW120549   6.412   3.552   0.702
72884SOL    HW220550   6.539   3.552   0.620
72885SOL     OW20551   0.323   1.643  14.729
72885SOL    HW120552   0.406   1.687  14.711
72885SOL    HW220553   0.274   1.649  14.647
72886SOL     OW20554   7.703  10.598   0.841
72886SOL    HW120555   7.681  10.509   0.869
72886SOL    HW220556   7.763  10.585   0.767
72887SOL     OW20557   3.341  11.891   9.299
72887SOL    HW120558   3.344  11.874   9.204
72887SOL    HW220559   3.250  11.877   9.322
72888SOL     OW20560   7.444   7.458   1.001
72888SOL    HW120561   7.531   7.499   1.003
72888SOL    HW220562   7.403   7.485   1.083
72889SOL     OW20563   1.990   2.099   1.962
72889SOL    HW120564   2.046   2.144   2.026
72889SOL    HW220565   2.047   2.087   1.886
72890SOL     OW20566  12.759  14.371   7.682
72890SOL    HW120567  12.813  14.294   7.665
72890SOL    HW220568  12.671  14.336   7.695
72891SOL     OW20569   3.805   5.404   0.465
72891SOL    HW120570   3.765   5.359   0.539
72891SOL    HW220571   3.796   5.497   0.486
72892SOL     OW20572   2.637  13.353  12.133
72892SOL    HW120573   2.704  13.347  12.201
72892SOL    HW220574   2.647  13.442  12.099
72893SOL     OW20575  10.026  14.285   8.859
72893SOL    HW120576   9.950  14.337   8.833
72893SOL    HW220577  10.011  14.199   8.820
72894SOL     OW20578  14.488   4.254   6.336
72894SOL    HW120579  14.481   4.164   6.370
72894SOL    HW220580  14.400   4.290   6.346
72895SOL     OW20581   7.193   4.359  13.233
72895SOL    HW120582   7.276   4.356  13.281
72895SOL    HW220583   7.217   4.391  13.146
72896SOL     OW20584   1.070   9.174   6.299
72896SOL    HW120585   1.123   9.096   6.284
72896SOL    HW220586   1.095   9.235   6.229
72897SOL     OW20587  10.285   5.142   8.062
72897SOL    HW120588  10.248   5.075   8.120
72897SOL    HW220589  10.223   5.214   8.065
72898SOL     OW20590  11.247   9.669   9.949
72898SOL    HW120591  11.304   9.600   9.982
72898SOL    HW220592  11.219   9.717  10.027
72899SOL     OW20593   7.022   4.336   7.258
72899SOL    HW120594   7.089   4.281   7.217
72899SOL    HW220595   6.982   4.279   7.325
72900SOL     OW20596   8.534   5.325   9.156
72900SOL    HW120597   8.581   5.395   9.201
72900SOL    HW220598   8.516   5.360   9.069
72901SOL     OW20599  13.638  12.863   6.831
72901SOL    HW120600  13.691  12.933   6.868
72901SOL    HW220601  13.557  12.906   6.805
72902SOL     OW20602   8.656   3.500   2.215
72902SOL    HW120603   8.745   3.536   2.212
72902SOL    HW220604   8.603   3.571   2.251
72903SOL     OW20605   4.235   8.119   8.989
72903SOL    HW120606   4.320   8.107   9.030
72903SOL    HW220607   4.217   8.037   8.944
72904SOL     OW20608   1.408   1.096   0.793
72904SOL    HW120609   1.349   1.029   0.829
72904SOL    HW220610   1.458   1.127   0.869
72905SOL     OW20611   3.512   4.648   7.628
72905SOL    HW120612   3.606   4.656   7.612
72905SOL    HW220613   3.489   4.563   7.591
72906SOL     OW20614   1.366   0.389  11.303
72906SOL    HW120615   1.286   0.338  11.298
72906SOL    HW220616   1.433   0.332  11.265
72907SOL     OW20617  13.467  14.188   1.807
72907SOL    HW120618  13.388  14.224   1.846
72907SOL    HW220619  13.522  14.164   1.882
72908SOL     OW20620   5.055  11.779  12.830
72908SOL    HW120621   5.069  11.867  12.794
72908SOL    HW220622   5.030  11.726  12.754
72909SOL     OW20623   6.894   2.064   8.411
72909SOL    HW120624   6.989   2.062   8.419
72909SOL    HW220625   6.868   1.972   8.403
72910SOL     OW20626   9.826   6.729   5.724
72910SOL    HW120627   9.857   6.792   5.789
72910SOL    HW220628   9.768   6.780   5.667
72911SOL     OW20629   8.739   0.215   6.284
72911SOL    HW120630   8.666   0.161   6.312
72911SOL    HW220631   8.795   0.155   6.234
72912SOL     OW20632   8.672   8.741  14.010
72912SOL    HW120633   8.602   8.806  14.008
72912SOL    HW220634   8.736   8.773  13.947
72913SOL     OW20635  11.626  11.192   7.152
72913SOL    HW120636  11.614  11.125   7.220
72913SOL    HW220637  11.712  11.229   7.170
72914SOL     OW20638   0.135   8.678  13.624
72914SOL    HW120639   0.212   8.631  13.655
72914SOL    HW220640   0.118   8.744  13.690
72915SOL     OW20641  12.976   0.215   7.500
72915SOL    HW120642  13.021   0.132   7.512
72915SOL    HW220643  12.891   0.191   7.464
72916SOL     OW20644   8.405  11.597   1.559
72916SOL    HW120645   8.496  11.570   1.576
72916SOL    HW220646   8.383  11.555   1.476
72917SOL     OW20647   5.269   2.421   1.304
72917SOL    HW120648   5.231   2.498   1.263
72917SOL    HW220649   5.207   2.350   1.285
72918SOL     OW20650  14.494  11.361  12.837
72918SOL    HW120651  14.448  11.445  12.830
72918SOL    HW220652  14.517  11.355  12.930
72919SOL     OW20653   1.024   2.574   5.765
72919SOL    HW120654   1.099   2.576   5.824
72919SOL    HW220655   0.983   2.489   5.780
72920SOL     OW20656   5.400   8.513   1.099
72920SOL    HW120657   5.444   8.552   1.174
72920SOL    HW220658   5.319   8.562   1.090
72921SOL     OW20659   7.161   2.592   1.330
72921SOL    HW120660   7.158   2.513   1.277
72921SOL    HW220661   7.075   2.598   1.370
72922SOL     OW20662   8.513   8.506   2.365
72922SOL    HW120663   8.446   8.525   2.299
72922SOL    HW220664   8.594   8.540   2.327
72923SOL     OW20665   2.065   9.383   8.332
72923SOL    HW120666   1.989   9.333   8.362
72923SOL    HW220667   2.040   9.416   8.246
72924SOL     OW20668   7.568  11.167   8.295
72924SOL    HW120669   7.575  11.079   8.332
72924SOL    HW220670   7.501  11.158   8.226
72925SOL     OW20671  13.918   5.502  11.720
72925SOL    HW120672  13.989   5.437  11.719
72925SOL    HW220673  13.949   5.571  11.778
72926SOL     OW20674  14.367   6.278   4.775
72926SOL    HW120675  14.457   6.244   4.784
72926SOL    HW220676  14.377   6.358   4.723
72927SOL     OW20677   6.830   4.493   7.122
72927SOL    HW120678   6.843   4.471   7.214
72927SOL    HW220679   6.869   4.420   7.074
72928SOL     OW20680  14.854   9.350   2.863
72928SOL    HW120681  14.879   9.415   2.797
72928SOL    HW220682   0.057   9.311   2.892
72929SOL     OW20683  11.763   7.468   3.023
72929SOL    HW120684  11.788   7.521   2.947
72929SOL    HW220685  11.677   7.502   3.048
72930SOL     OW20686   4.259  13.483   0.843
72930SOL    HW120687   4.302  13.569   0.845
72930SOL    HW220688   4.221  13.474   0.931
72931SOL     OW20689   8.187  12.724   8.253
72931SOL    HW120690   8.117  12.781   8.286
72931SOL    HW220691   8.157  12.697   8.166
72932SOL     OW20692  13.128  10.436  11.799
72932SOL    HW120693  13.047  10.385  11.803
72932SOL    HW220694  13.179  10.406  11.874
72933SOL     OW20695   5.533   5.818   3.270
72933SOL    HW120696   5.458   5.774   3.309
72933SOL    HW220697   5.526   5.909   3.301
72934SOL     OW20698   4.133  10.740   0.408
72934SOL    HW120699   4.157  10.757   0.499
72934SOL    HW220700   4.187  10.665   0.382
72935SOL     OW20701  13.614  10.576   5.526
72935SOL    HW120702  13.554  10.593   5.599
72935SOL    HW220703  13.690  10.535   5.567
72936SOL     OW20704   6.484   3.284   9.720
72936SOL    HW120705   6.393   3.275   9.750
72936SOL    HW220706   6.487   3.235   9.638
72937SOL     OW20707   3.972   1.192   0.894
72937SOL    HW120708   4.066   1.196   0.909
72937SOL    HW220709   3.939   1.135   0.964
72938SOL     OW20710   3.421  11.994  12.849
72938SOL    HW120711   3.453  12.022  12.935
72938SOL    HW220712   3.501  11.982  12.797
72939SOL     OW20713   0.840   8.278   2.585
72939SOL    HW120714   0.764   8.288   2.528
72939SOL    HW220715   0.887   8.361   2.579
72940SOL     OW20716   1.209   4.981  10.147
72940SOL    HW120717   1.294   4.998  10.106
72940SOL    HW220718   1.215   4.890  10.177
72941SOL     OW20719  13.591   3.009  13.995
72941SOL    HW120720  13.620   3.070  13.927
72941SOL    HW220721  13.514   2.967  13.958
72942SOL     OW20722   0.354   1.556   3.762
72942SOL    HW120723   0.357   1.615   3.687
72942SOL    HW220724   0.421   1.490   3.744
72943SOL     OW20725   6.512   9.094   7.992
72943SOL    HW120726   6.478   9.007   8.011
72943SOL    HW220727   6.484   9.147   8.067
72944SOL     OW20728   7.817   5.377   7.942
72944SOL    HW120729   7.818   5.473   7.940
72944SOL    HW220730   7.795   5.351   7.852
72945SOL     OW20731   7.474   6.795  12.509
72945SOL    HW120732   7.415   6.852  12.458
72945SOL    HW220733   7.415   6.736  12.556
72946SOL     OW20734   0.380   4.887   9.625
72946SOL    HW120735   0.320   4.812   9.615
72946SOL    HW220736   0.402   4.889   9.718
72947SOL     OW20737  12.319  12.238  13.287
72947SOL    HW120738  12.306  12.170  13.353
72947SOL    HW220739  12.294  12.319  13.331
72948SOL     OW20740   0.732   7.172   7.036
72948SOL    HW120741   0.757   7.080   7.050
72948SOL    HW220742   0.649   7.166   6.988
72949SOL     OW20743   3.375   2.668  12.866
72949SOL    HW120744   3.435   2.598  12.890
72949SOL    HW220745   3.405   2.744  12.915
72950SOL     OW20746   8.026  10.406   6.129
72950SOL    HW120747   8.107  10.422   6.081
72950SOL    HW220748   8.025  10.473   6.198
72951SOL     OW20749   4.975   3.070   1.332
72951SOL    HW120750   4.887   3.108   1.329
72951SOL    HW220751   4.974   3.015   1.410
72952SOL     OW20752  13.192  11.103   2.704
72952SOL    HW120753  13.228  11.054   2.630
72952SOL    HW220754  13.234  11.065   2.781
72953SOL     OW20755   8.197  12.934   3.578
72953SOL    HW120756   8.281  12.968   3.609
72953SOL    HW220757   8.144  12.926   3.657
72954SOL     OW20758  13.138   2.858  11.501
72954SOL    HW120759  13.103   2.945  11.522
72954SOL    HW220760  13.066   2.799  11.520
72955SOL     OW20761  13.660   0.534   6.300
72955SOL    HW120762  13.568   0.515   6.318
72955SOL    HW220763  13.657   0.606   6.237
72956SOL     OW20764   7.504   5.063  14.060
72956SOL    HW120765   7.507   5.141  14.115
72956SOL    HW220766   7.495   5.097  13.971
72957SOL     OW20767  11.533   5.679   3.445
72957SOL    HW120768  11.561   5.668   3.536
72957SOL    HW220769  11.578   5.759   3.416
72958SOL     OW20770  13.362   6.975   9.351
72958SOL    HW120771  13.446   7.019   9.340
72958SOL    HW220772  13.349   6.970   9.446
72959SOL     OW20773   8.895   3.930  10.280
72959SOL    HW120774   8.879   3.851  10.332
72959SOL    HW220775   8.842   3.998  10.323
72960SOL     OW20776  12.555   0.631  12.711
72960SOL    HW120777  12.567   0.543  12.677
72960SOL    HW220778  12.461   0.639  12.726
72961SOL     OW20779  13.873   9.472   7.360
72961SOL    HW120780  13.925   9.525   7.299
72961SOL    HW220781  13.849   9.394   7.310
72962SOL     OW20782   0.752  13.162   8.741
72962SOL    HW120783   0.682  13.097   8.739
72962SOL    HW220784   0.816  13.131   8.677
72963SOL     OW20785   8.579  14.528  10.507
72963SOL    HW120786   8.516  14.504  10.575
72963SOL    HW220787   8.618  14.610  10.538
72964SOL     OW20788   2.421   5.015   4.297
72964SOL    HW120789   2.460   4.931   4.321
72964SOL    HW220790   2.427   5.068   4.377
72965SOL     OW20791  12.653  11.067   1.530
72965SOL    HW120792  12.601  11.126   1.584
72965SOL    HW220793  12.719  11.032   1.590
72966SOL     OW20794   7.833   3.851   1.457
72966SOL    HW120795   7.791   3.937   1.452
72966SOL    HW220796   7.862   3.843   1.547
72967SOL     OW20797  13.977   5.049   8.222
72967SOL    HW120798  14.016   5.121   8.172
72967SOL    HW220799  13.888   5.040   8.188
72968SOL     OW20800   9.617  11.920   9.761
72968SOL    HW120801   9.620  11.834   9.719
72968SOL    HW220802   9.670  11.976   9.705
72969SOL     OW20803   2.230   3.809   3.849
72969SOL    HW120804   2.267   3.873   3.909
72969SOL    HW220805   2.230   3.727   3.898
72970SOL     OW20806   8.081  13.382   7.755
72970SOL    HW120807   8.135  13.388   7.834
72970SOL    HW220808   8.053  13.472   7.740
72971SOL     OW20809   2.497   2.170   1.558
72971SOL    HW120810   2.570   2.231   1.569
72971SOL    HW220811   2.498   2.117   1.638
72972SOL     OW20812  12.997   9.047   8.934
72972SOL    HW120813  12.935   9.118   8.913
72972SOL    HW220814  13.057   9.045   8.860
72973SOL     OW20815   1.024   4.911   7.603
72973SOL    HW120816   1.021   4.966   7.524
72973SOL    HW220817   1.115   4.886   7.611
72974SOL     OW20818   5.276  12.459   9.426
72974SOL    HW120819   5.277  12.418   9.339
72974SOL    HW220820   5.313  12.546   9.412
72975SOL     OW20821   5.781  12.879   7.145
72975SOL    HW120822   5.872  12.852   7.134
72975SOL    HW220823   5.732  12.825   7.083
72976SOL     OW20824  10.084   8.150   5.682
72976SOL    HW120825  10.122   8.237   5.673
72976SOL    HW220826  10.002   8.155   5.631
72977SOL     OW20827  12.559  11.361   6.269
72977SOL    HW120828  12.605  11.392   6.191
72977SOL    HW220829  12.579  11.426   6.336
72978SOL     OW20830  10.497  10.764   8.533
72978SOL    HW120831  10.453  10.755   8.449
72978SOL    HW220832  10.504  10.859   8.546
72979SOL     OW20833   7.607  11.766   4.370
72979SOL    HW120834   7.537  11.708   4.401
72979SOL    HW220835   7.663  11.778   4.447
72980SOL     OW20836   9.895   1.017   2.989
72980SOL    HW120837   9.879   1.056   3.075
72980SOL    HW220838   9.933   0.931   3.009
72981SOL     OW20839   6.652   1.996   1.992
72981SOL    HW120840   6.609   2.013   2.076
72981SOL    HW220841   6.721   1.934   2.012
72982SOL     OW20842   8.363  11.950  12.688
72982SOL    HW120843   8.415  11.930  12.611
72982SOL    HW220844   8.326  11.866  12.716
72983SOL     OW20845   1.148  14.848  11.704
72983SOL    HW120846   1.082  14.793  11.661
72983SOL    HW220847   1.228  14.797  11.699
72984SOL     OW20848   6.766  12.525   2.682
72984SOL    HW120849   6.777  12.488   2.769
72984SOL    HW220850   6.727  12.454   2.630
72985SOL     OW20851  11.486   6.389  13.321
72985SOL    HW120852  11.574   6.423  13.340
72985SOL    HW220853  11.445   6.381  13.407
72986SOL     OW20854  13.645  11.345   5.263
72986SOL    HW120855  13.619  11.431   5.229
72986SOL    HW220856  13.740  11.350   5.273
72987SOL     OW20857   0.395   9.252   4.338
72987SOL    HW120858   0.416   9.323   4.399
72987SOL    HW220859   0.391   9.295   4.252
72988SOL     OW20860  13.674   9.452   5.602
72988SOL    HW120861  13.612   9.387   5.569
72988SOL    HW220862  13.626   9.535   5.597
72989SOL     OW20863   4.648   6.998   6.489
72989SOL    HW120864   4.735   7.014   6.452
72989SOL    HW220865   4.658   6.917   6.540
72990SOL     OW20866   3.307   5.614   1.471
72990SOL    HW120867   3.347   5.648   1.551
72990SOL    HW220868   3.319   5.684   1.407
72991SOL     OW20869   3.341   2.915   6.412
72991SOL    HW120870   3.402   2.863   6.360
72991SOL    HW220871   3.287   2.850   6.457
72992SOL     OW20872   4.008   4.967   1.479
72992SOL    HW120873   4.035   5.038   1.421
72992SOL    HW220874   3.945   5.008   1.539
72993SOL     OW20875  10.285   9.489  10.911
72993SOL    HW120876  10.361   9.515  10.964
72993SOL    HW220877  10.300   9.532  10.826
72994SOL     OW20878   6.626  11.550   0.347
72994SOL    HW120879   6.611  11.644   0.356
72994SOL    HW220880   6.581  11.527   0.266
72995SOL     OW20881   1.987   4.014   9.669
72995SOL    HW120882   1.987   3.971   9.584
72995SOL    HW220883   1.895   4.020   9.693
72996SOL     OW20884   4.272   2.241  11.067
72996SOL    HW120885   4.244   2.318  11.117
72996SOL    HW220886   4.296   2.276  10.981
72997SOL     OW20887  10.668   1.497  11.754
72997SOL    HW120888  10.738   1.438  11.725
72997SOL    HW220889  10.610   1.505  11.679
72998SOL     OW20890   5.390  14.388   2.666
72998SOL    HW120891   5.460  14.407   2.603
72998SOL    HW220892   5.309  14.411   2.619
72999SOL     OW20893   4.870   3.968  14.276
72999SOL    HW120894   4.936   3.944  14.211
72999SOL    HW220895   4.895   4.056  14.303
73000SOL     OW20896  10.145   7.186   6.692
73000SOL    HW120897  10.079   7.255   6.688
73000SOL    HW220898  10.200   7.209   6.766
73001SOL     OW20899   1.483   5.813   2.916
73001SOL    HW120900   1.487   5.736   2.860
73001SOL    HW220901   1.549   5.873   2.880
73002SOL     OW20902  13.061   0.664   2.462
73002SOL    HW120903  12.990   0.640   2.521
73002SOL    HW220904  13.074   0.758   2.475
73003SOL     OW20905  14.812   6.199   6.252
73003SOL    HW120906   0.006   6.158   6.206
73003SOL    HW220907  14.830   6.293   6.246
73004SOL     OW20908   5.678  10.917  11.592
73004SOL    HW120909   5.726  10.836  11.608
73004SOL    HW220910   5.747  10.981  11.572
73005SOL     OW20911  10.157  11.819   4.228
73005SOL    HW120912  10.239  11.862   4.252
73005SOL    HW220913  10.130  11.864   4.147
73006SOL     OW20914   3.264  10.784   1.566
73006SOL    HW120915   3.305  10.870   1.557
73006SOL    HW220916   3.239  10.760   1.476
73007SOL     OW20917   8.165   6.951  11.225
73007SOL    HW120918   8.207   6.867  11.205
73007SOL    HW220919   8.162   6.997  11.140
73008SOL     OW20920  10.357   0.617   2.382
73008SOL    HW120921  10.386   0.657   2.464
73008SOL    HW220922  10.321   0.532   2.408
73009SOL     OW20923  12.181  14.025   3.883
73009SOL    HW120924  12.117  14.077   3.834
73009SOL    HW220925  12.128  13.956   3.923
73010SOL     OW20926   6.025   5.591   1.355
73010SOL    HW120927   6.092   5.637   1.303
73010SOL    HW220928   5.951   5.583   1.295
73011SOL     OW20929  13.154  12.904  12.625
73011SOL    HW120930  13.169  12.812  12.649
73011SOL    HW220931  13.130  12.901  12.533
73012SOL     OW20932   8.888   2.867  10.542
73012SOL    HW120933   8.883   2.954  10.582
73012SOL    HW220934   8.976   2.864  10.503
73013SOL     OW20935   9.414  10.396  13.370
73013SOL    HW120936   9.466  10.456  13.316
73013SOL    HW220937   9.336  10.446  13.394
73014SOL     OW20938   8.301   9.832  13.522
73014SOL    HW120939   8.285   9.926  13.520
73014SOL    HW220940   8.263   9.803  13.605
73015SOL     OW20941   5.088   2.194   8.390
73015SOL    HW120942   5.049   2.177   8.476
73015SOL    HW220943   5.036   2.142   8.329
73016SOL     OW20944  11.736   5.587   4.861
73016SOL    HW120945  11.793   5.658   4.891
73016SOL    HW220946  11.647   5.622   4.869
73017SOL     OW20947   6.924   6.659  12.261
73017SOL    HW120948   6.897   6.596  12.195
73017SOL    HW220949   6.843   6.683  12.306
73018SOL     OW20950   7.757  10.134   8.238
73018SOL    HW120951   7.801  10.090   8.165
73018SOL    HW220952   7.670  10.156   8.205
73019SOL     OW20953   1.237   4.074  12.349
73019SOL    HW120954   1.164   4.107  12.298
73019SOL    HW220955   1.266   3.996  12.302
73020SOL     OW20956   6.242  13.315   4.093
73020SOL    HW120957   6.293  13.395   4.098
73020SOL    HW220958   6.235  13.297   3.999
73021SOL     OW20959   5.098   9.760   1.135
73021SOL    HW120960   5.056   9.746   1.219
73021SOL    HW220961   5.153   9.837   1.147
73022SOL     OW20962  10.757   8.762   9.084
73022SOL    HW120963  10.769   8.667   9.084
73022SOL    HW220964  10.677   8.777   9.035
73023SOL     OW20965  14.323   5.744   9.835
73023SOL    HW120966  14.282   5.831   9.836
73023SOL    HW220967  14.275   5.694   9.901
73024SOL     OW20968   7.082   0.417   1.634
73024SOL    HW120969   6.996   0.455   1.614
73024SOL    HW220970   7.062   0.342   1.690
73025SOL     OW20971   0.407   1.641  12.124
73025SOL    HW120972   0.465   1.611  12.053
73025SOL    HW220973   0.337   1.687  12.078
73026SOL     OW20974  12.261   4.475  13.537
73026SOL    HW120975  12.183   4.452  13.587
73026SOL    HW220976  12.249   4.566  13.513
73027SOL     OW20977  10.597   9.517   9.370
73027SOL    HW120978  10.562   9.539   9.456
73027SOL    HW220979  10.554   9.435   9.346
73028SOL     OW20980  10.118  12.613   1.545
73028SOL    HW120981  10.139  12.536   1.493
73028SOL    HW220982  10.030  12.596   1.579
73029SOL     OW20983   5.897   1.446  14.391
73029SOL    HW120984   5.935   1.533  14.384
73029SOL    HW220985   5.969   1.390  14.421
73030SOL     OW20986   2.108   0.809  14.130
73030SOL    HW120987   2.082   0.772  14.214
73030SOL    HW220988   2.137   0.898  14.150
73031SOL     OW20989   6.238   1.563   2.012
73031SOL    HW120990   6.308   1.625   2.034
73031SOL    HW220991   6.157   1.608   2.035
73032SOL     OW20992   2.092   3.177  14.226
73032SOL    HW120993   2.093   3.082  14.231
73032SOL    HW220994   2.100   3.197  14.133
73033SOL     OW20995   6.459   4.421  10.587
73033SOL    HW120996   6.434   4.492  10.528
73033SOL    HW220997   6.491   4.466  10.666
73034SOL     OW20998   2.254   1.557   5.626
73034SOL    HW120999   2.318   1.485   5.630
73034SOL    HW221000   2.299   1.631   5.666
73035SOL     OW21001   8.951  10.644   7.590
73035SOL    HW121002   9.019  10.637   7.657
73035SOL    HW221003   8.909  10.728   7.606
73036SOL     OW21004  12.268   1.764   3.348
73036SOL    HW121005  12.181   1.796   3.324
73036SOL    HW221006  12.328   1.826   3.308
73037SOL     OW21007   6.504   2.693  13.892
73037SOL    HW121008   6.495   2.681  13.987
73037SOL    HW221009   6.417   2.723  13.865
73038SOL     OW21010   7.015   1.961   8.738
73038SOL    HW121011   7.084   1.984   8.675
73038SOL    HW221012   7.059   1.907   8.803
73039SOL     OW21013  13.344   3.529  13.553
73039SOL    HW121014  13.271   3.545  13.614
73039SOL    HW221015  13.401   3.467  13.600
73040SOL     OW21016   2.633   4.301   8.189
73040SOL    HW121017   2.538   4.310   8.179
73040SOL    HW221018   2.668   4.323   8.102
73041SOL     OW21019  13.278   9.307  14.370
73041SOL    HW121020  13.295   9.401  14.375
73041SOL    HW221021  13.323   9.271  14.446
73042SOL     OW21022   5.030  11.702   2.308
73042SOL    HW121023   5.000  11.729   2.221
73042SOL    HW221024   5.068  11.615   2.294
73043SOL     OW21025  10.212  13.208   4.941
73043SOL    HW121026  10.272  13.177   4.874
73043SOL    HW221027  10.128  13.169   4.917
73044SOL     OW21028   2.893  13.876  13.230
73044SOL    HW121029   2.850  13.945  13.281
73044SOL    HW221030   2.909  13.806  13.293
73045SOL     OW21031   2.619   1.698   6.086
73045SOL    HW121032   2.688   1.705   6.021
73045SOL    HW221033   2.600   1.788   6.112
73046SOL     OW21034  12.095   9.946   6.128
73046SOL    HW121035  12.135   9.861   6.145
73046SOL    HW221036  12.103   9.958   6.033
73047SOL     OW21037   8.835   4.958   8.065
73047SOL    HW121038   8.844   4.894   7.995
73047SOL    HW221039   8.916   5.010   8.061
73048SOL     OW21040   8.000   0.313   8.216
73048SOL    HW121041   7.938   0.384   8.236
73048SOL    HW221042   8.063   0.353   8.157
73049SOL     OW21043   3.047   4.916   9.692
73049SOL    HW121044   3.034   4.898   9.785
73049SOL    HW221045   2.959   4.921   9.656
73050SOL     OW21046  14.290   6.898   0.650
73050SOL    HW121047  14.239   6.841   0.708
73050SOL    HW221048  14.345   6.949   0.710
73051SOL     OW21049   3.677   8.353   6.959
73051SOL    HW121050   3.593   8.342   7.004
73051SOL    HW221051   3.653   8.360   6.866
73052SOL     OW21052   2.024  11.757   7.748
73052SOL    HW121053   2.041  11.839   7.795
73052SOL    HW221054   2.079  11.692   7.791
73053SOL     OW21055   4.154  12.114   9.543
73053SOL    HW121056   4.200  12.149   9.467
73053SOL    HW221057   4.087  12.056   9.506
73054SOL     OW21058   3.243   1.653   6.286
73054SOL    HW121059   3.295   1.591   6.234
73054SOL    HW221060   3.260   1.738   6.245
73055SOL     OW21061  13.924  13.178   4.817
73055SOL    HW121062  13.884  13.261   4.791
73055SOL    HW221063  13.899  13.167   4.909
73056SOL     OW21064   0.450   7.330  14.296
73056SOL    HW121065   0.405   7.348  14.213
73056SOL    HW221066   0.504   7.407  14.312
73057SOL     OW21067   2.830   2.762   2.444
73057SOL    HW121068   2.830   2.799   2.356
73057SOL    HW221069   2.749   2.794   2.483
73058SOL     OW21070   7.695  13.894   9.351
73058SOL    HW121071   7.606  13.927   9.340
73058SOL    HW221072   7.741  13.964   9.397
73059SOL     OW21073  12.070   4.835  12.579
73059SOL    HW121074  12.097   4.761  12.633
73059SOL    HW221075  11.983   4.859  12.612
73060SOL     OW21076  14.415   3.296   8.613
73060SOL    HW121077  14.494   3.242   8.612
73060SOL    HW221078  14.345   3.234   8.633
73061SOL     OW21079  12.911   9.258   3.621
73061SOL    HW121080  13.000   9.271   3.588
73061SOL    HW221081  12.871   9.198   3.558
73062SOL     OW21082   9.582   1.294  10.865
73062SOL    HW121083   9.639   1.330  10.932
73062SOL    HW221084   9.500   1.343  10.874
73063SOL     OW21085   3.221  12.994   1.992
73063SOL    HW121086   3.250  13.061   2.054
73063SOL    HW221087   3.299  12.943   1.974
73064SOL     OW21088  11.279  11.738   1.723
73064SOL    HW121089  11.295  11.644   1.721
73064SOL    HW221090  11.198  11.750   1.674
73065SOL     OW21091   7.194   3.636   1.933
73065SOL    HW121092   7.163   3.615   2.021
73065SOL    HW221093   7.137   3.708   1.905
73066SOL     OW21094   7.312   6.576   9.228
73066SOL    HW121095   7.241   6.638   9.216
73066SOL    HW221096   7.389   6.620   9.191
73067SOL     OW21097  12.437   2.562   2.748
73067SOL    HW121098  12.393   2.609   2.677
73067SOL    HW221099  12.379   2.572   2.823
73068SOL     OW21100  14.601   0.185  14.607
73068SOL    HW121101  14.586   0.241  14.532
73068SOL    HW221102  14.651   0.239  14.669
73069SOL     OW21103   2.994   6.530   3.329
73069SOL    HW121104   2.951   6.594   3.386
73069SOL    HW221105   3.064   6.579   3.285
73070SOL     OW21106   9.925   2.396   2.891
73070SOL    HW121107   9.962   2.374   2.976
73070SOL    HW221108   9.997   2.437   2.843
73071SOL     OW21109  13.466   7.102   3.145
73071SOL    HW121110  13.474   7.193   3.116
73071SOL    HW221111  13.531   7.094   3.215
73072SOL     OW21112   7.423   3.730   6.815
73072SOL    HW121113   7.469   3.718   6.732
73072SOL    HW221114   7.466   3.805   6.856
73073SOL     OW21115  14.613   2.686  13.692
73073SOL    HW121116  14.685   2.704  13.753
73073SOL    HW221117  14.621   2.593  13.673
73074SOL     OW21118  12.104   1.601   0.620
73074SOL    HW121119  12.179   1.658   0.601
73074SOL    HW221120  12.105   1.536   0.550
73075SOL     OW21121   0.010  11.446   5.151
73075SOL    HW121122   0.060  11.436   5.232
73075SOL    HW221123  14.802  11.413   5.174
73076SOL     OW21124   2.548   5.958   2.003
73076SOL    HW121125   2.640   5.969   1.982
73076SOL    HW221126   2.527   6.035   2.056
73077SOL     OW21127   1.260   4.256   1.996
73077SOL    HW121128   1.344   4.214   2.015
73077SOL    HW221129   1.260   4.333   2.053
73078SOL     OW21130   2.052   2.045   9.664
73078SOL    HW121131   1.958   2.049   9.685
73078SOL    HW221132   2.095   2.037   9.749
73079SOL     OW21133   6.020  13.228   8.073
73079SOL    HW121134   6.090  13.285   8.107
73079SOL    HW221135   6.065  13.148   8.048
73080SOL     OW21136   9.080   2.174   4.997
73080SOL    HW121137   9.097   2.134   4.912
73080SOL    HW221138   9.147   2.242   5.006
73081SOL     OW21139   4.411   3.259   9.590
73081SOL    HW121140   4.479   3.302   9.642
73081SOL    HW221141   4.452   3.243   9.505
73082SOL     OW21142   7.216  11.013  12.902
73082SOL    HW121143   7.201  10.961  12.823
73082SOL    HW221144   7.128  11.033  12.935
73083SOL     OW21145  11.430   5.788   2.442
73083SOL    HW121146  11.413   5.716   2.502
73083SOL    HW221147  11.472   5.855   2.495
73084SOL     OW21148  12.687  10.963  13.553
73084SOL    HW121149  12.593  10.957  13.567
73084SOL    HW221150  12.724  10.903  13.618
73085SOL     OW21151   0.357  14.248   1.750
73085SOL    HW121152   0.403  14.167   1.725
73085SOL    HW221153   0.382  14.263   1.841
73086SOL     OW21154   4.582  13.722   2.379
73086SOL    HW121155   4.657  13.722   2.318
73086SOL    HW221156   4.622  13.730   2.466
73087SOL     OW21157  14.651   4.600   9.355
73087SOL    HW121158  14.714   4.605   9.283
73087SOL    HW221159  14.568   4.632   9.318
73088SOL     OW21160   4.355   6.696   2.961
73088SOL    HW121161   4.299   6.673   3.035
73088SOL    HW221162   4.295   6.717   2.890
73089SOL     OW21163  12.155   4.784  10.816
73089SOL    HW121164  12.093   4.839  10.769
73089SOL    HW221165  12.200   4.734  10.748
73090SOL     OW21166  10.501   3.443   7.220
73090SOL    HW121167  10.576   3.455   7.162
73090SOL    HW221168  10.474   3.532   7.243
73091SOL     OW21169  12.882  11.290   5.285
73091SOL    HW121170  12.879  11.208   5.334
73091SOL    HW221171  12.954  11.339   5.324
73092SOL     OW21172   2.192   9.107   9.144
73092SOL    HW121173   2.225   9.034   9.196
73092SOL    HW221174   2.098   9.094   9.139
73093SOL     OW21175  13.433   2.920  11.207
73093SOL    HW121176  13.526   2.908  11.185
73093SOL    HW221177  13.421   2.869  11.287
73094SOL     OW21178  13.407   8.584   3.203
73094SOL    HW121179  13.421   8.508   3.147
73094SOL    HW221180  13.481   8.642   3.185
73095SOL     OW21181   8.176   1.140  10.800
73095SOL    HW121182   8.108   1.124  10.866
73095SOL    HW221183   8.238   1.068  10.812
73096SOL     OW21184   8.945  10.135   8.836
73096SOL    HW121185   8.960  10.086   8.756
73096SOL    HW221186   8.867  10.188   8.818
73097SOL     OW21187   4.440   3.373  12.986
73097SOL    HW121188   4.526   3.414  12.974
73097SOL    HW221189   4.452   3.317  13.063
73098SOL     OW21190   6.751   3.955   1.416
73098SOL    HW121191   6.680   3.891   1.408
73098SOL    HW221192   6.761   3.992   1.328
73099SOL     OW21193  13.389   3.902   5.378
73099SOL    HW121194  13.345   3.831   5.331
73099SOL    HW221195  13.322   3.968   5.390
73100SOL     OW21196   6.436   6.909   6.782
73100SOL    HW121197   6.430   6.898   6.877
73100SOL    HW221198   6.377   6.842   6.747
73101SOL     OW21199   2.086   3.915   6.902
73101SOL    HW121200   2.037   3.891   6.823
73101SOL    HW221201   2.173   3.939   6.870
73102SOL     OW21202  13.578  12.107   7.821
73102SOL    HW121203  13.555  12.109   7.914
73102SOL    HW221204  13.560  12.196   7.790
73103SOL     OW21205  11.118   2.999  13.895
73103SOL    HW121206  11.178   3.069  13.919
73103SOL    HW221207  11.034   3.043  13.881
73104SOL     OW21208  14.461   9.176   7.694
73104SOL    HW121209  14.504   9.217   7.769
73104SOL    HW221210  14.525   9.112   7.661
73105SOL     OW21211   9.485   7.086   5.047
73105SOL    HW121212   9.426   7.121   5.114
73105SOL    HW221213   9.429   7.030   4.993
73106SOL     OW21214   4.317   1.098   7.387
73106SOL    HW121215   4.259   1.161   7.343
73106SOL    HW221216   4.324   1.025   7.325
73107SOL     OW21217  13.743   3.500   0.196
73107SOL    HW121218  13.747   3.503   0.101
73107SOL    HW221219  13.776   3.414   0.220
73108SOL     OW21220   3.264   7.263  14.333
73108SOL    HW121221   3.196   7.316  14.375
73108SOL    HW221222   3.231   7.246  14.245
73109SOL     OW21223   4.706   8.309   3.204
73109SOL    HW121224   4.799   8.328   3.213
73109SOL    HW221225   4.697   8.217   3.225
73110SOL     OW21226   3.973  14.473   7.589
73110SOL    HW121227   3.933  14.544   7.638
73110SOL    HW221228   4.057  14.457   7.632
73111SOL     OW21229   6.301  14.669   3.909
73111SOL    HW121230   6.297  14.603   3.979
73111SOL    HW221231   6.299  14.619   3.828
73112SOL     OW21232   2.807   6.084   5.938
73112SOL    HW121233   2.805   6.022   5.866
73112SOL    HW221234   2.871   6.048   5.999
73113SOL     OW21235   0.585   4.635   1.673
73113SOL    HW121236   0.493   4.663   1.680
73113SOL    HW221237   0.635   4.714   1.693
73114SOL     OW21238  14.808  13.254   9.055
73114SOL    HW121239  14.715  13.276   9.059
73114SOL    HW221240  14.847  13.323   9.001
73115SOL     OW21241  11.814  11.728  13.899
73115SOL    HW121242  11.884  11.787  13.928
73115SOL    HW221243  11.785  11.684  13.979
73116SOL     OW21244   1.150  12.063  14.399
73116SOL    HW121245   1.183  12.130  14.460
73116SOL    HW221246   1.067  12.099  14.366
73117SOL     OW21247   9.049  13.824  12.623
73117SOL    HW121248   9.068  13.736  12.589
73117SOL    HW221249   9.030  13.876  12.545
73118SOL     OW21250   6.092  14.469   7.557
73118SOL    HW121251   6.149  14.434   7.489
73118SOL    HW221252   6.004  14.454   7.525
73119SOL     OW21253  14.410   8.074  11.575
73119SOL    HW121254  14.436   8.045  11.662
73119SOL    HW221255  14.465   8.024  11.515
73120SOL     OW21256  12.059   1.569  11.129
73120SOL    HW121257  11.973   1.607  11.142
73120SOL    HW221258  12.120   1.642  11.141
73121SOL     OW21259   7.986   8.991   4.845
73121SOL    HW121260   8.070   9.025   4.815
73121SOL    HW221261   7.995   8.896   4.837
73122SOL     OW21262   8.830   8.703   8.664
73122SOL    HW121263   8.850   8.631   8.725
73122SOL    HW221264   8.787   8.660   8.590
73123SOL     OW21265  12.035   9.648   8.529
73123SOL    HW121266  12.014   9.616   8.616
73123SOL    HW221267  12.131   9.652   8.527
73124SOL     OW21268   4.470  12.117   0.423
73124SOL    HW121269   4.436  12.031   0.396
73124SOL    HW221270   4.393  12.164   0.455
73125SOL     OW21271  13.235   7.734  14.867
73125SOL    HW121272  13.237   7.644  14.834
73125SOL    HW221273  13.280   7.785  14.800
73126SOL     OW21274   2.899   7.206  10.037
73126SOL    HW121275   2.807   7.229  10.028
73126SOL    HW221276   2.946   7.289  10.029
73127SOL     OW21277   8.403   4.468   0.243
73127SOL    HW121278   8.373   4.545   0.292
73127SOL    HW221279   8.340   4.457   0.173
73128SOL     OW21280  12.054   5.573   6.623
73128SOL    HW121281  11.988   5.625   6.669
73128SOL    HW221282  12.072   5.623   6.542
73129SOL     OW21283   7.623  11.594   8.790
73129SOL    HW121284   7.713  11.607   8.761
73129SOL    HW221285   7.569  11.624   8.717
73130SOL     OW21286   9.219   3.667   4.145
73130SOL    HW121287   9.227   3.745   4.090
73130SOL    HW221288   9.296   3.615   4.124
73131SOL     OW21289   1.082   3.498  11.522
73131SOL    HW121290   1.156   3.437  11.514
73131SOL    HW221291   1.042   3.476  11.606
73132SOL     OW21292  10.096  13.492  10.839
73132SOL    HW121293  10.110  13.420  10.777
73132SOL    HW221294  10.044  13.452  10.909
73133SOL     OW21295   7.206   3.816   0.884
73133SOL    HW121296   7.144   3.874   0.838
73133SOL    HW221297   7.259   3.876   0.937
73134SOL     OW21298  14.796   5.121   6.325
73134SOL    HW121299  14.826   5.147   6.412
73134SOL    HW221300  14.876   5.094   6.280
73135SOL     OW21301  12.763   4.880  10.260
73135SOL    HW121302  12.759   4.974  10.281
73135SOL    HW221303  12.687   4.865  10.203
73136SOL     OW21304   7.635  14.878  13.792
73136SOL    HW121305   7.686   0.055  13.851
73136SOL    HW221306   7.687  14.798  13.785
73137SOL     OW21307   8.869   8.811   5.030
73137SOL    HW121308   8.889   8.808   5.123
73137SOL    HW221309   8.786   8.858   5.024
73138SOL     OW21310  12.178  12.475   7.220
73138SOL    HW121311  12.181  12.525   7.138
73138SOL    HW221312  12.104  12.415   7.208
73139SOL     OW21313  13.262   8.214   4.813
73139SOL    HW121314  13.264   8.228   4.908
73139SOL    HW221315  13.343   8.165   4.795
73140SOL     OW21316   5.879   8.679   1.103
73140SOL    HW121317   5.844   8.703   1.189
73140SOL    HW221318   5.874   8.583   1.101
73141SOL     OW21319  12.009   6.673  12.496
73141SOL    HW121320  11.967   6.673  12.410
73141SOL    HW221321  12.090   6.722  12.484
73142SOL     OW21322   4.362  11.105   0.361
73142SOL    HW121323   4.269  11.082   0.367
73142SOL    HW221324   4.389  11.119   0.451
73143SOL     OW21325   6.494   3.683   2.770
73143SOL    HW121326   6.417   3.698   2.825
73143SOL    HW221327   6.463   3.628   2.698
73144SOL     OW21328  10.616   4.298   3.030
73144SOL    HW121329  10.691   4.355   3.046
73144SOL    HW221330  10.654   4.213   3.011
73145SOL     OW21331   6.404   6.752   8.835
73145SOL    HW121332   6.315   6.718   8.837
73145SOL    HW221333   6.451   6.700   8.901
73146SOL     OW21334   5.622   1.424   8.339
73146SOL    HW121335   5.616   1.411   8.244
73146SOL    HW221336   5.605   1.338   8.376
73147SOL     OW21337   2.232   9.620   6.694
73147SOL    HW121338   2.186   9.540   6.719
73147SOL    HW221339   2.251   9.664   6.777
73148SOL     OW21340   0.348   2.608  11.615
73148SOL    HW121341   0.400   2.635  11.691
73148SOL    HW221342   0.364   2.675  11.549
73149SOL     OW21343  14.245   3.972   3.798
73149SOL    HW121344  14.320   4.005   3.747
73149SOL    HW221345  14.227   3.886   3.761
73150SOL     OW21346  13.118   6.878  11.184
73150SOL    HW121347  13.192   6.830  11.147
73150SOL    HW221348  13.057   6.888  11.111
73151SOL     OW21349   2.525  12.199   8.626
73151SOL    HW121350   2.449  12.193   8.683
73151SOL    HW221351   2.522  12.119   8.573
73152SOL     OW21352   0.814   6.274   7.609
73152SOL    HW121353   0.868   6.252   7.533
73152SOL    HW221354   0.871   6.327   7.665
73153SOL     OW21355   9.046   4.279  14.182
73153SOL    HW121356   9.096   4.198  14.195
73153SOL    HW221357   8.966   4.252  14.137
73154SOL     OW21358   9.306   9.019   1.337
73154SOL    HW121359   9.218   8.997   1.366
73154SOL    HW221360   9.296   9.097   1.284
73155SOL     OW21361   3.860   4.833   2.545
73155SOL    HW121362   3.941   4.846   2.496
73155SOL    HW221363   3.856   4.738   2.560
73156SOL     OW21364   5.631   9.286   9.192
73156SOL    HW121365   5.660   9.364   9.240
73156SOL    HW221366   5.692   9.217   9.217
73157SOL     OW21367  14.167   0.715  13.226
73157SOL    HW121368  14.136   0.795  13.185
73157SOL    HW221369  14.189   0.657  13.153
73158SOL     OW21370  13.856   0.565   6.509
73158SOL    HW121371  13.804   0.517   6.573
73158SOL    HW221372  13.802   0.566   6.430
73159SOL     OW21373   0.653   5.457   4.614
73159SOL    HW121374   0.651   5.370   4.575
73159SOL    HW221375   0.652   5.517   4.539
73160SOL     OW21376  12.119  14.555  12.075
73160SOL    HW121377  12.105  14.497  12.000
73160SOL    HW221378  12.066  14.517  12.145
73161SOL     OW21379   9.549   2.046  10.267
73161SOL    HW121380   9.492   1.996  10.209
73161SOL    HW221381   9.522   2.021  10.355
73162SOL     OW21382   4.905   2.861   5.428
73162SOL    HW121383   4.947   2.876   5.513
73162SOL    HW221384   4.813   2.846   5.449
73163SOL     OW21385  12.059   2.320  10.319
73163SOL    HW121386  12.100   2.370  10.389
73163SOL    HW221387  12.063   2.229  10.349
73164SOL     OW21388   8.733  12.409   7.612
73164SOL    HW121389   8.663  12.473   7.601
73164SOL    HW221390   8.735  12.391   7.706
73165SOL     OW21391  10.717   4.081   7.185
73165SOL    HW121392  10.801   4.128   7.181
73165SOL    HW221393  10.706   4.043   7.098
73166SOL     OW21394  11.695  11.011   0.776
73166SOL    HW121395  11.610  11.015   0.733
73166SOL    HW221396  11.689  10.934   0.833
73167SOL     OW21397   0.703   2.119   7.960
73167SOL    HW121398   0.746   2.048   8.007
73167SOL    HW221399   0.651   2.164   8.027
73168SOL     OW21400   8.128   1.660   5.923
73168SOL    HW121401   8.145   1.749   5.893
73168SOL    HW221402   8.061   1.627   5.864
73169SOL     OW21403   6.778   8.296   8.820
73169SOL    HW121404   6.780   8.255   8.734
73169SOL    HW221405   6.699   8.351   8.819
73170SOL     OW21406  12.024   8.352  11.634
73170SOL    HW121407  11.929   8.339  11.637
73170SOL    HW221408  12.061   8.264  11.643
73171SOL     OW21409   7.066   5.794  10.499
73171SOL    HW121410   7.080   5.855  10.426
73171SOL    HW221411   7.075   5.707  10.460
73172SOL     OW21412   6.000   0.562  11.133
73172SOL    HW121413   5.933   0.548  11.066
73172SOL    HW221414   6.038   0.648  11.112
73173SOL     OW21415   6.463  10.989   9.183
73173SOL    HW121416   6.506  11.067   9.217
73173SOL    HW221417   6.534  10.926   9.170
73174SOL     OW21418  12.965   6.095  10.960
73174SOL    HW121419  13.038   6.064  11.014
73174SOL    HW221420  12.969   6.041  10.881
73175SOL     OW21421   7.730  14.442  11.005
73175SOL    HW121422   7.793  14.388  11.053
73175SOL    HW221423   7.676  14.481  11.073
73176SOL     OW21424   9.742  12.004   5.860
73176SOL    HW121425   9.684  12.009   5.784
73176SOL    HW221426   9.722  12.083   5.910
73177SOL     OW21427  14.267   0.406   3.810
73177SOL    HW121428  14.338   0.366   3.759
73177SOL    HW221429  14.214   0.332   3.839
73178SOL     OW21430  10.908   4.419  10.912
73178SOL    HW121431  10.832   4.477  10.906
73178SOL    HW221432  10.953   4.447  10.992
73179SOL     OW21433   8.660   0.619  14.599
73179SOL    HW121434   8.705   0.666  14.529
73179SOL    HW221435   8.619   0.544  14.556
73180SOL     OW21436   0.548  11.078  12.299
73180SOL    HW121437   0.469  11.132  12.302
73180SOL    HW221438   0.540  11.019  12.374
73181SOL     OW21439   5.089   4.569   6.011
73181SOL    HW121440   5.088   4.483   5.969
73181SOL    HW221441   5.003   4.577   6.052
73182SOL     OW21442   4.218   4.426   9.693
73182SOL    HW121443   4.180   4.494   9.638
73182SOL    HW221444   4.231   4.352   9.634
73183SOL     OW21445  11.933   7.721   6.365
73183SOL    HW121446  11.908   7.749   6.277
73183SOL    HW221447  11.875   7.647   6.384
73184SOL     OW21448   8.605   8.905  12.927
73184SOL    HW121449   8.638   8.971  12.866
73184SOL    HW221450   8.581   8.831  12.873
73185SOL     OW21451   2.104   7.458   2.620
73185SOL    HW121452   2.100   7.372   2.661
73185SOL    HW221453   2.126   7.441   2.529
73186SOL     OW21454  13.862   8.282  13.961
73186SOL    HW121455  13.841   8.357  14.018
73186SOL    HW221456  13.776   8.249  13.934
73187SOL     OW21457  14.578   9.290   5.094
73187SOL    HW121458  14.625   9.237   5.157
73187SOL    HW221459  14.542   9.363   5.145
73188SOL     OW21460   3.516  12.657   2.790
73188SOL    HW121461   3.436  12.709   2.802
73188SOL    HW221462   3.519  12.641   2.695
73189SOL     OW21463  13.895   3.532   7.475
73189SOL    HW121464  13.923   3.560   7.388
73189SOL    HW221465  13.975   3.531   7.527
73190SOL     OW21466  11.751   4.698  14.238
73190SOL    HW121467  11.739   4.603  14.229
73190SOL    HW221468  11.719   4.734  14.155
73191SOL     OW21469   3.684   3.574   8.018
73191SOL    HW121470   3.677   3.591   8.112
73191SOL    HW221471   3.755   3.510   8.010
73192SOL     OW21472   0.837  13.868   2.594
73192SOL    HW121473   0.764  13.811   2.570
73192SOL    HW221474   0.904  13.851   2.528
73193SOL     OW21475   2.311   3.051   5.170
73193SOL    HW121476   2.323   2.956   5.169
73193SOL    HW221477   2.343   3.080   5.084
73194SOL     OW21478   4.955   6.194   6.745
73194SOL    HW121479   4.955   6.245   6.826
73194SOL    HW221480   5.006   6.116   6.766
73195SOL     OW21481   5.868   6.287  12.761
73195SOL    HW121482   5.795   6.271  12.701
73195SOL    HW221483   5.858   6.220  12.829
73196SOL     OW21484  12.520   8.849   5.094
73196SOL    HW121485  12.429   8.861   5.120
73196SOL    HW221486  12.542   8.928   5.044
73197SOL     OW21487   3.808   0.209   1.031
73197SOL    HW121488   3.735   0.148   1.020
73197SOL    HW221489   3.769   0.286   1.071
73198SOL     OW21490  10.789   8.926   4.910
73198SOL    HW121491  10.775   8.958   4.999
73198SOL    HW221492  10.758   8.835   4.912
73199SOL     OW21493   0.292   6.737   3.371
73199SOL    HW121494   0.256   6.789   3.299
73199SOL    HW221495   0.284   6.794   3.448
73200SOL     OW21496  14.660   3.244   7.031
73200SOL    HW121497  14.740   3.192   7.030
73200SOL    HW221498  14.589   3.180   7.035
73201SOL     OW21499   7.813  11.724  10.315
73201SOL    HW121500   7.868  11.787  10.362
73201SOL    HW221501   7.874  11.661  10.277
73202SOL     OW21502  14.230   2.777  12.150
73202SOL    HW121503  14.191   2.860  12.176
73202SOL    HW221504  14.246   2.731  12.232
73203SOL     OW21505  11.224   1.802   4.587
73203SOL    HW121506  11.261   1.851   4.661
73203SOL    HW221507  11.299   1.788   4.528
73204SOL     OW21508  13.752   2.287   2.634
73204SOL    HW121509  13.742   2.251   2.546
73204SOL    HW221510  13.664   2.320   2.656
73205SOL     OW21511  10.058  11.234   0.790
73205SOL    HW121512  10.130  11.296   0.799
73205SOL    HW221513  10.075  11.168   0.857
73206SOL     OW21514   3.600  12.253   5.723
73206SOL    HW121515   3.550  12.173   5.742
73206SOL    HW221516   3.584  12.310   5.799
73207SOL     OW21517   1.884   2.514  12.494
73207SOL    HW121518   1.857   2.575  12.425
73207SOL    HW221519   1.929   2.444  12.446
73208SOL     OW21520   4.286   7.279  10.911
73208SOL    HW121521   4.352   7.214  10.884
73208SOL    HW221522   4.247   7.242  10.990
73209SOL     OW21523   1.860   6.500   0.575
73209SOL    HW121524   1.840   6.528   0.485
73209SOL    HW221525   1.920   6.567   0.607
73210SOL     OW21526   5.750   1.543   0.871
73210SOL    HW121527   5.658   1.558   0.889
73210SOL    HW221528   5.766   1.586   0.788
73211SOL     OW21529   3.098   2.772   6.599
73211SOL    HW121530   3.137   2.850   6.639
73211SOL    HW221531   3.016   2.759   6.646
73212SOL     OW21532   5.217  14.697   6.315
73212SOL    HW121533   5.296  14.747   6.290
73212SOL    HW221534   5.251  14.615   6.350
73213SOL     OW21535   9.706   2.303  11.007
73213SOL    HW121536   9.758   2.354  10.945
73213SOL    HW221537   9.669   2.232  10.954
73214SOL     OW21538   5.486  11.196  14.219
73214SOL    HW121539   5.516  11.146  14.143
73214SOL    HW221540   5.518  11.146  14.294
73215SOL     OW21541   5.506   8.978  14.297
73215SOL    HW121542   5.445   8.939  14.233
73215SOL    HW221543   5.449   9.011  14.367
73216SOL     OW21544  14.714  11.213   8.886
73216SOL    HW121545  14.672  11.134   8.919
73216SOL    HW221546  14.654  11.284   8.911
73217SOL     OW21547   3.722   7.596   4.756
73217SOL    HW121548   3.666   7.629   4.686
73217SOL    HW221549   3.758   7.514   4.722
73218SOL     OW21550   4.592   9.377   1.326
73218SOL    HW121551   4.608   9.314   1.396
73218SOL    HW221552   4.636   9.340   1.249
73219SOL     OW21553  12.410   0.242   8.899
73219SOL    HW121554  12.484   0.184   8.882
73219SOL    HW221555  12.342   0.211   8.839
73220SOL     OW21556   8.254   9.639  12.098
73220SOL    HW121557   8.314   9.578  12.054
73220SOL    HW221558   8.193   9.582  12.146
73221SOL     OW21559   7.132   9.709  10.813
73221SOL    HW121560   7.216   9.726  10.770
73221SOL    HW221561   7.151   9.716  10.907
73222SOL     OW21562   3.410   3.412  12.496
73222SOL    HW121563   3.372   3.385  12.412
73222SOL    HW221564   3.361   3.363  12.562
73223SOL     OW21565  13.015   2.179   8.685
73223SOL    HW121566  12.974   2.220   8.761
73223SOL    HW221567  13.088   2.128   8.721
73224SOL     OW21568   9.476   7.335   6.861
73224SOL    HW121569   9.564   7.309   6.890
73224SOL    HW221570   9.433   7.368   6.940
73225SOL     OW21571   3.380  12.042  11.891
73225SOL    HW121572   3.403  11.956  11.856
73225SOL    HW221573   3.307  12.071  11.836
73226SOL     OW21574   0.715  13.877   3.613
73226SOL    HW121575   0.726  13.971   3.626
73226SOL    HW221576   0.690  13.843   3.699
73227SOL     OW21577  13.176   1.556   3.051
73227SOL    HW121578  13.255   1.547   2.997
73227SOL    HW221579  13.120   1.484   3.024
73228SOL     OW21580   4.741   0.337   1.082
73228SOL    HW121581   4.659   0.296   1.109
73228SOL    HW221582   4.725   0.367   0.992
73229SOL     OW21583  10.958  13.705   6.524
73229SOL    HW121584  10.936  13.783   6.575
73229SOL    HW221585  11.018  13.655   6.580
73230SOL     OW21586   0.353  10.841  11.338
73230SOL    HW121587   0.430  10.795  11.304
73230SOL    HW221588   0.284  10.775  11.337
73231SOL     OW21589  12.206  11.177   9.688
73231SOL    HW121590  12.296  11.159   9.713
73231SOL    HW221591  12.213  11.237   9.614
73232SOL     OW21592   7.219  10.858   0.529
73232SOL    HW121593   7.261  10.800   0.593
73232SOL    HW221594   7.226  10.811   0.446
73233SOL     OW21595  10.441   9.565   2.512
73233SOL    HW121596  10.444   9.484   2.563
73233SOL    HW221597  10.455   9.634   2.577
73234SOL     OW21598  11.237  12.741   8.555
73234SOL    HW121599  11.165  12.699   8.603
73234SOL    HW221600  11.295  12.669   8.532
73235SOL     OW21601  12.631   6.522   4.476
73235SOL    HW121602  12.596   6.446   4.523
73235SOL    HW221603  12.623   6.594   4.538
73236SOL     OW21604   7.050   7.213   4.282
73236SOL    HW121605   6.971   7.217   4.228
73236SOL    HW221606   7.028   7.264   4.360
73237SOL     OW21607  14.366   5.710  10.657
73237SOL    HW121608  14.407   5.757  10.584
73237SOL    HW221609  14.440   5.670  10.704
73238SOL     OW21610   6.360   3.842  12.520
73238SOL    HW121611   6.415   3.918  12.542
73238SOL    HW221612   6.372   3.831  12.426
73239SOL     OW21613   0.405   2.069  12.097
73239SOL    HW121614   0.495   2.081  12.066
73239SOL    HW221615   0.369   2.158  12.100
73240SOL     OW21616   7.438   2.803   5.405
73240SOL    HW121617   7.497   2.867   5.445
73240SOL    HW221618   7.426   2.834   5.315
73241SOL     OW21619  13.926  13.837   1.202
73241SOL    HW121620  13.885  13.865   1.120
73241SOL    HW221621  13.994  13.775   1.175
73242SOL     OW21622   8.603   7.823  12.035
73242SOL    HW121623   8.628   7.731  12.045
73242SOL    HW221624   8.572   7.849  12.121
73243SOL     OW21625   2.628   5.511  11.068
73243SOL    HW121626   2.574   5.548  10.998
73243SOL    HW221627   2.593   5.548  11.148
73244SOL     OW21628   1.616   8.227  12.636
73244SOL    HW121629   1.655   8.140  12.637
73244SOL    HW221630   1.671   8.280  12.693
73245SOL     OW21631   6.621   3.259   2.090
73245SOL    HW121632   6.674   3.337   2.103
73245SOL    HW221633   6.571   3.250   2.171
73246SOL     OW21634   3.022  13.843   5.949
73246SOL    HW121635   3.026  13.823   6.042
73246SOL    HW221636   2.970  13.772   5.911
73247SOL     OW21637   2.679  11.053   9.326
73247SOL    HW121638   2.676  11.094   9.240
73247SOL    HW221639   2.758  10.998   9.324
73248SOL     OW21640   2.491  12.602  13.460
73248SOL    HW121641   2.499  12.605  13.555
73248SOL    HW221642   2.553  12.534  13.433
73249SOL     OW21643   4.689  10.062   4.156
73249SOL    HW121644   4.611  10.095   4.201
73249SOL    HW221645   4.678   9.967   4.155
73250SOL     OW21646  10.587   8.700   6.678
73250SOL    HW121647  10.555   8.670   6.763
73250SOL    HW221648  10.564   8.629   6.618
73251SOL     OW21649   6.925  11.043  10.784
73251SOL    HW121650   6.958  11.007  10.701
73251SOL    HW221651   6.833  11.020  10.786
73252SOL     OW21652   2.892  10.462  13.530
73252SOL    HW121653   2.958  10.513  13.578
73252SOL    HW221654   2.928  10.373  13.528
73253SOL     OW21655   5.584   3.985   9.445
73253SOL    HW121656   5.614   3.985   9.536
73253SOL    HW221657   5.637   4.053   9.403
73254SOL     OW21658   9.413   6.911  14.158
73254SOL    HW121659   9.466   6.873  14.089
73254SOL    HW221660   9.465   6.985  14.190
73255SOL     OW21661  11.775   0.317   0.115
73255SOL    HW121662  11.689   0.339   0.081
73255SOL    HW221663  11.825   0.290   0.038
73256SOL     OW21664   4.061   6.644   0.899
73256SOL    HW121665   4.085   6.679   0.814
73256SOL    HW221666   3.984   6.695   0.926
73257SOL     OW21667  11.174  10.279   5.032
73257SOL    HW121668  11.146  10.197   4.991
73257SOL    HW221669  11.217  10.327   4.961
73258SOL     OW21670  10.440   3.333  13.508
73258SOL    HW121671  10.532   3.308  13.518
73258SOL    HW221672  10.419   3.380  13.589
73259SOL     OW21673  14.793   5.704  10.945
73259SOL    HW121674  14.742   5.780  10.973
73259SOL    HW221675  14.811   5.656  11.026
73260SOL     OW21676   0.460   3.409  11.210
73260SOL    HW121677   0.390   3.365  11.257
73260SOL    HW221678   0.416   3.473  11.154
73261SOL     OW21679   8.428  13.842  14.550
73261SOL    HW121680   8.361  13.773  14.545
73261SOL    HW221681   8.377  13.922  14.561
73262SOL     OW21682   1.607  13.458  14.162
73262SOL    HW121683   1.636  13.507  14.239
73262SOL    HW221684   1.552  13.520  14.114
73263SOL     OW21685  14.048   3.788   3.410
73263SOL    HW121686  13.986   3.819   3.476
73263SOL    HW221687  13.996   3.735   3.350
73264SOL     OW21688   8.788  10.762  13.965
73264SOL    HW121689   8.705  10.717  13.982
73264SOL    HW221690   8.764  10.855  13.960
73265SOL     OW21691   6.780  14.220   3.194
73265SOL    HW121692   6.778  14.207   3.288
73265SOL    HW221693   6.873  14.215   3.171
73266SOL     OW21694  13.431   3.714  10.409
73266SOL    HW121695  13.512   3.751  10.446
73266SOL    HW221696  13.370   3.788  10.407
73267SOL     OW21697   2.408   6.467   3.179
73267SOL    HW121698   2.482   6.406   3.174
73267SOL    HW221699   2.341   6.428   3.123
73268SOL     OW21700   9.541  12.684  12.334
73268SOL    HW121701   9.546  12.777  12.310
73268SOL    HW221702   9.536  12.638  12.251
73269SOL     OW21703   0.894   8.670   1.024
73269SOL    HW121704   0.852   8.591   0.990
73269SOL    HW221705   0.864   8.740   0.966
73270SOL     OW21706  12.945  10.979   2.031
73270SOL    HW121707  12.957  10.927   1.952
73270SOL    HW221708  13.033  10.996   2.062
73271SOL     OW21709  10.526   5.719  13.057
73271SOL    HW121710  10.566   5.804  13.077
73271SOL    HW221711  10.451   5.714  13.116
73272SOL     OW21712  10.122   4.583   0.687
73272SOL    HW121713  10.123   4.489   0.669
73272SOL    HW221714  10.056   4.594   0.756
73273SOL     OW21715  11.001   4.148   0.842
73273SOL    HW121716  11.087   4.131   0.882
73273SOL    HW221717  11.019   4.156   0.749
73274SOL     OW21718   5.914   6.770   8.413
73274SOL    HW121719   5.933   6.863   8.419
73274SOL    HW221720   5.987   6.727   8.458
73275SOL     OW21721  13.818  12.105  10.966
73275SOL    HW121722  13.853  12.107  11.055
73275SOL    HW221723  13.875  12.164  10.916
73276SOL     OW21724   3.944  11.651   0.636
73276SOL    HW121725   3.879  11.601   0.684
73276SOL    HW221726   4.025  11.600   0.644
73277SOL     OW21727  12.104   8.633   0.148
73277SOL    HW121728  12.096   8.727   0.138
73277SOL    HW221729  12.020   8.604   0.182
73278SOL     OW21730  12.109   4.887   5.786
73278SOL    HW121731  12.093   4.955   5.852
73278SOL    HW221732  12.064   4.918   5.708
73279SOL     OW21733   4.386   3.242  12.754
73279SOL    HW121734   4.300   3.276  12.728
73279SOL    HW221735   4.396   3.272  12.845
73280SOL     OW21736   9.278  11.267   6.938
73280SOL    HW121737   9.274  11.184   6.986
73280SOL    HW221738   9.227  11.328   6.992
73281SOL     OW21739   4.970  11.662   3.730
73281SOL    HW121740   4.968  11.566   3.731
73281SOL    HW221741   5.056  11.685   3.764
73282SOL     OW21742  10.671   6.320   5.888
73282SOL    HW121743  10.726   6.346   5.814
73282SOL    HW221744  10.734   6.289   5.954
73283SOL     OW21745  12.332   4.607   9.105
73283SOL    HW121746  12.355   4.613   9.198
73283SOL    HW221747  12.252   4.660   9.098
73284SOL     OW21748   5.400   3.365   6.280
73284SOL    HW121749   5.408   3.348   6.374
73284SOL    HW221750   5.316   3.325   6.255
73285SOL     OW21751  10.905   0.424   0.026
73285SOL    HW121752  10.898   0.333  14.877
73285SOL    HW221753  10.998   0.434   0.050
73286SOL     OW21754   2.717   9.926   6.876
73286SOL    HW121755   2.627   9.955   6.865
73286SOL    HW221756   2.711   9.832   6.893
73287SOL     OW21757   0.107  10.866   4.253
73287SOL    HW121758   0.184  10.914   4.286
73287SOL    HW221759   0.129  10.774   4.265
73288SOL     OW21760   9.272   1.297   1.932
73288SOL    HW121761   9.227   1.381   1.925
73288SOL    HW221762   9.365   1.319   1.934
73289SOL     OW21763   3.444  11.807  11.517
73289SOL    HW121764   3.523  11.825  11.567
73289SOL    HW221765   3.461  11.845  11.431
73290SOL     OW21766   0.443   6.804   9.096
73290SOL    HW121767   0.538   6.791   9.092
73290SOL    HW221768   0.407   6.718   9.075
73291SOL     OW21769  10.063   0.472  10.281
73291SOL    HW121770  10.062   0.527  10.360
73291SOL    HW221771  10.135   0.411  10.296
73292SOL     OW21772   0.833   0.880   8.531
73292SOL    HW121773   0.852   0.952   8.591
73292SOL    HW221774   0.738   0.867   8.538
73293SOL     OW21775   1.845   3.100   2.973
73293SOL    HW121776   1.840   3.008   2.998
73293SOL    HW221777   1.909   3.102   2.902
73294SOL     OW21778  12.973  13.583   0.760
73294SOL    HW121779  12.894  13.609   0.808
73294SOL    HW221780  12.940  13.545   0.679
73295SOL     OW21781  10.913   5.431   9.379
73295SOL    HW121782  10.923   5.392   9.292
73295SOL    HW221783  10.924   5.525   9.365
73296SOL     OW21784   0.745  13.620   5.661
73296SOL    HW121785   0.685  13.646   5.591
73296SOL    HW221786   0.821  13.583   5.615
73297SOL     OW21787   9.563  12.086   9.137
73297SOL    HW121788   9.564  12.132   9.054
73297SOL    HW221789   9.479  12.039   9.138
73298SOL     OW21790   9.615   8.398  14.029
73298SOL    HW121791   9.564   8.453  13.970
73298SOL    HW221792   9.618   8.313  13.985
73299SOL     OW21793  13.613   7.197   2.159
73299SOL    HW121794  13.676   7.254   2.204
73299SOL    HW221795  13.596   7.127   2.221
73300SOL     OW21796   2.709  13.922   7.063
73300SOL    HW121797   2.657  13.950   6.988
73300SOL    HW221798   2.792  13.970   7.054
73301SOL     OW21799   7.386   0.019  12.453
73301SOL    HW121800   7.405  14.805  12.459
73301SOL    HW221801   7.301   0.024  12.409
73302SOL     OW21802   4.491   2.701  12.933
73302SOL    HW121803   4.499   2.628  12.994
73302SOL    HW221804   4.468   2.776  12.989
73303SOL     OW21805   2.125   4.793   1.642
73303SOL    HW121806   2.123   4.699   1.629
73303SOL    HW221807   2.196   4.808   1.704
73304SOL     OW21808   2.251   1.315  14.308
73304SOL    HW121809   2.225   1.367  14.384
73304SOL    HW221810   2.274   1.379  14.241
73305SOL     OW21811  14.819   8.490   3.578
73305SOL    HW121812  14.840   8.403   3.612
73305SOL    HW221813   0.023   8.537   3.580
73306SOL     OW21814   3.022   4.202   4.898
73306SOL    HW121815   3.009   4.192   4.992
73306SOL    HW221816   3.048   4.115   4.868
73307SOL     OW21817  12.185   3.925  10.348
73307SOL    HW121818  12.270   3.889  10.324
73307SOL    HW221819  12.130   3.911  10.271
73308SOL     OW21820   1.627   2.501  12.114
73308SOL    HW121821   1.717   2.481  12.139
73308SOL    HW221822   1.620   2.596  12.122
73309SOL     OW21823  10.626   8.923   0.616
73309SOL    HW121824  10.536   8.889   0.615
73309SOL    HW221825  10.649   8.926   0.709
73310SOL     OW21826  10.962  10.302  11.915
73310SOL    HW121827  10.948  10.217  11.875
73310SOL    HW221828  10.903  10.361  11.869
73311SOL     OW21829  13.748   2.122   6.583
73311SOL    HW121830  13.807   2.062   6.538
73311SOL    HW221831  13.672   2.128   6.524
73312SOL     OW21832  13.500   3.826   6.240
73312SOL    HW121833  13.447   3.867   6.308
73312SOL    HW221834  13.437   3.782   6.184
73313SOL     OW21835   9.433  13.701   7.052
73313SOL    HW121836   9.514  13.653   7.071
73313SOL    HW221837   9.445  13.734   6.963
73314SOL     OW21838   8.724   6.077   1.362
73314SOL    HW121839   8.770   6.030   1.431
73314SOL    HW221840   8.663   6.135   1.409
73315SOL     OW21841  14.563   5.341   6.686
73315SOL    HW121842  14.522   5.345   6.600
73315SOL    HW221843  14.603   5.427   6.699
73316SOL     OW21844  12.649   6.252   6.979
73316SOL    HW121845  12.676   6.293   6.897
73316SOL    HW221846  12.591   6.316   7.020
73317SOL     OW21847   8.643   8.876   0.907
73317SOL    HW121848   8.703   8.832   0.967
73317SOL    HW221849   8.561   8.826   0.915
73318SOL     OW21850  10.755   4.644  14.873
73318SOL    HW121851  10.740   4.737  14.857
73318SOL    HW221852  10.672   4.611   0.027
73319SOL     OW21853   9.747   4.292   8.585
73319SOL    HW121854   9.696   4.235   8.528
73319SOL    HW221855   9.838   4.278   8.559
73320SOL     OW21856   0.067   3.180   6.310
73320SOL    HW121857   0.103   3.123   6.378
73320SOL    HW221858   0.142   3.202   6.254
73321SOL     OW21859  10.074  10.887   2.378
73321SOL    HW121860  10.035  10.803   2.354
73321SOL    HW221861  10.013  10.952   2.344
73322SOL     OW21862   0.976   9.370   9.760
73322SOL    HW121863   0.959   9.441   9.822
73322SOL    HW221864   0.929   9.396   9.681
73323SOL     OW21865   7.121  11.858   6.788
73323SOL    HW121866   7.031  11.826   6.797
73323SOL    HW221867   7.131  11.920   6.860
73324SOL     OW21868  12.890  12.073   0.694
73324SOL    HW121869  12.868  12.006   0.629
73324SOL    HW221870  12.805  12.108   0.721
73325SOL     OW21871  14.449   8.175  14.406
73325SOL    HW121872  14.354   8.163  14.413
73325SOL    HW221873  14.481   8.092  14.371
73326SOL     OW21874   2.987   6.505  10.583
73326SOL    HW121875   3.074   6.506  10.622
73326SOL    HW221876   2.980   6.419  10.541
73327SOL     OW21877   1.865   1.565   4.851
73327SOL    HW121878   1.806   1.638   4.871
73327SOL    HW221879   1.932   1.603   4.794
73328SOL     OW21880   7.799  11.785   9.679
73328SOL    HW121881   7.725  11.800   9.621
73328SOL    HW221882   7.811  11.690   9.680
73329SOL     OW21883   9.326  13.187   9.420
73329SOL    HW121884   9.232  13.205   9.410
73329SOL    HW221885   9.356  13.252   9.483
73330SOL     OW21886   2.106   6.392   1.315
73330SOL    HW121887   2.016   6.370   1.293
73330SOL    HW221888   2.125   6.471   1.265
73331SOL     OW21889   8.520   0.515  13.548
73331SOL    HW121890   8.538   0.536  13.456
73331SOL    HW221891   8.583   0.568  13.597
73332SOL     OW21892   0.135   9.261   5.807
73332SOL    HW121893   0.086   9.179   5.815
73332SOL    HW221894   0.131   9.283   5.714
73333SOL     OW21895   9.194   4.502  11.098
73333SOL    HW121896   9.237   4.437  11.042
73333SOL    HW221897   9.140   4.450  11.157
73334SOL     OW21898   1.716  12.592  13.779
73334SOL    HW121899   1.681  12.512  13.819
73334SOL    HW221900   1.791  12.615  13.833
73335SOL     OW21901   0.071   1.566  14.198
73335SOL    HW121902  14.858   1.546  14.183
73335SOL    HW221903   0.097   1.617  14.121
73336SOL     OW21904   0.923   7.848   5.000
73336SOL    HW121905   0.887   7.767   5.036
73336SOL    HW221906   0.856   7.914   5.017
73337SOL     OW21907   6.872   4.359   8.464
73337SOL    HW121908   6.869   4.264   8.450
73337SOL    HW221909   6.815   4.395   8.397
73338SOL     OW21910   8.712   0.987  12.633
73338SOL    HW121911   8.737   0.899  12.659
73338SOL    HW221912   8.776   1.044  12.676
73339SOL     OW21913   5.336   2.611   0.339
73339SOL    HW121914   5.357   2.624   0.247
73339SOL    HW221915   5.310   2.519   0.345
73340SOL     OW21916   9.785  12.743   5.430
73340SOL    HW121917   9.765  12.654   5.460
73340SOL    HW221918   9.701  12.776   5.397
73341SOL     OW21919   3.853   0.954   5.187
73341SOL    HW121920   3.943   0.986   5.197
73341SOL    HW221921   3.862   0.858   5.183
73342SOL     OW21922  11.572  10.421   7.805
73342SOL    HW121923  11.518  10.349   7.772
73342SOL    HW221924  11.576  10.407   7.899
73343SOL     OW21925   6.460  13.584   6.093
73343SOL    HW121926   6.419  13.497   6.086
73343SOL    HW221927   6.519  13.576   6.167
73344SOL     OW21928   8.564   1.875   0.116
73344SOL    HW121929   8.537   1.801   0.171
73344SOL    HW221930   8.629   1.838   0.056
73345SOL     OW21931   5.557   7.367   6.772
73345SOL    HW121932   5.644   7.347   6.808
73345SOL    HW221933   5.559   7.461   6.755
73346SOL     OW21934   8.537   9.277  13.565
73346SOL    HW121935   8.593   9.199  13.559
73346SOL    HW221936   8.503   9.289  13.476
73347SOL     OW21937   1.725   8.214   2.212
73347SOL    HW121938   1.776   8.295   2.220
73347SOL    HW221939   1.791   8.146   2.198
73348SOL     OW21940   3.677   1.240   6.592
73348SOL    HW121941   3.650   1.310   6.533
73348SOL    HW221942   3.697   1.166   6.534
73349SOL     OW21943   7.511   0.140   9.951
73349SOL    HW121944   7.551   0.190   9.880
73349SOL    HW221945   7.530   0.192  10.030
73350SOL     OW21946  14.875  12.420  10.806
73350SOL    HW121947   0.068  12.406  10.746
73350SOL    HW221948  14.805  12.364  10.772
73351SOL     OW21949   9.635   1.648   9.832
73351SOL    HW121950   9.604   1.613   9.915
73351SOL    HW221951   9.671   1.573   9.786
73352SOL     OW21952   7.028   2.812   4.617
73352SOL    HW121953   6.969   2.835   4.689
73352SOL    HW221954   6.985   2.739   4.573
73353SOL     OW21955   6.380  10.151   1.656
73353SOL    HW121956   6.299  10.200   1.646
73353SOL    HW221957   6.359  10.063   1.624
73354SOL     OW21958   6.150  14.396   4.882
73354SOL    HW121959   6.179  14.449   4.808
73354SOL    HW221960   6.088  14.334   4.845
73355SOL     OW21961  13.394   6.249  14.286
73355SOL    HW121962  13.309   6.206  14.281
73355SOL    HW221963  13.416   6.248  14.379
73356SOL     OW21964  10.507   4.812  14.310
73356SOL    HW121965  10.514   4.718  14.326
73356SOL    HW221966  10.429   4.821  14.256
73357SOL     OW21967  10.397   3.100   0.901
73357SOL    HW121968  10.376   3.031   0.838
73357SOL    HW221969  10.447   3.056   0.969
73358SOL     OW21970  11.153  10.890   8.707
73358SOL    HW121971  11.141  10.795   8.717
73358SOL    HW221972  11.246  10.901   8.686
73359SOL     OW21973   2.863  12.233   8.091
73359SOL    HW121974   2.946  12.268   8.058
73359SOL    HW221975   2.861  12.259   8.183
73360SOL     OW21976   5.777   2.770   9.111
73360SOL    HW121977   5.684   2.793   9.101
73360SOL    HW221978   5.810   2.766   9.021
73361SOL     OW21979   6.292  11.084   6.879
73361SOL    HW121980   6.236  11.124   6.945
73361SOL    HW221981   6.342  11.018   6.926
73362SOL     OW21982   4.750   6.207   5.500
73362SOL    HW121983   4.791   6.183   5.417
73362SOL    HW221984   4.698   6.285   5.480
73363SOL     OW21985   6.191  11.254  13.314
73363SOL    HW121986   6.144  11.203  13.248
73363SOL    HW221987   6.139  11.333  13.325
73364SOL     OW21988  10.942   6.954   3.098
73364SOL    HW121989  10.856   6.918   3.119
73364SOL    HW221990  10.976   6.897   3.029
73365SOL     OW21991   4.363  14.191   1.298
73365SOL    HW121992   4.275  14.228   1.310
73365SOL    HW221993   4.352  14.124   1.230
73366SOL     OW21994   3.887   0.158  14.192
73366SOL    HW121995   3.929   0.223  14.136
73366SOL    HW221996   3.867   0.205  14.273
73367SOL     OW21997  14.500  12.124  11.967
73367SOL    HW121998  14.461  12.192  12.021
73367SOL    HW221999  14.590  12.152  11.953
73368SOL     OW22000   4.298  11.216   5.382
73368SOL    HW122001   4.226  11.228   5.320
73368SOL    HW222002   4.346  11.299   5.379
73369SOL     OW22003   8.113  13.709  10.974
73369SOL    HW122004   8.203  13.738  10.989
73369SOL    HW222005   8.059  13.780  11.009
73370SOL     OW22006   0.594  12.365   6.527
73370SOL    HW122007   0.553  12.283   6.552
73370SOL    HW222008   0.578  12.424   6.600
73371SOL     OW22009   0.521  13.091   4.501
73371SOL    HW122010   0.571  13.150   4.557
73371SOL    HW222011   0.429  13.110   4.523
73372SOL     OW22012   6.125   7.762   2.793
73372SOL    HW122013   6.168   7.814   2.725
73372SOL    HW222014   6.101   7.825   2.860
73373SOL     OW22015  14.790   9.806   8.820
73373SOL    HW122016  14.776   9.723   8.774
73373SOL    HW222017  14.871   9.793   8.870
73374SOL     OW22018   0.774   7.468   0.081
73374SOL    HW122019   0.678   7.471   0.074
73374SOL    HW222020   0.790   7.412   0.157
73375SOL     OW22021   5.211   9.560   9.128
73375SOL    HW122022   5.287   9.604   9.167
73375SOL    HW222023   5.192   9.612   9.050
73376SOL     OW22024   1.366  11.184   1.745
73376SOL    HW122025   1.330  11.097   1.763
73376SOL    HW222026   1.382  11.184   1.650
73377SOL     OW22027   9.107   5.490   0.700
73377SOL    HW122028   9.171   5.420   0.704
73377SOL    HW222029   9.096   5.508   0.606
73378SOL     OW22030   7.669  13.767   2.543
73378SOL    HW122031   7.623  13.749   2.625
73378SOL    HW222032   7.744  13.821   2.569
73379SOL     OW22033   6.530   9.877   2.258
73379SOL    HW122034   6.487   9.839   2.334
73379SOL    HW222035   6.623   9.859   2.270
73380SOL     OW22036   9.274   0.507  13.585
73380SOL    HW122037   9.252   0.438  13.522
73380SOL    HW222038   9.315   0.461  13.658
73381SOL     OW22039   9.166  13.873   6.451
73381SOL    HW122040   9.103  13.929   6.405
73381SOL    HW222041   9.142  13.784   6.426
73382SOL     OW22042   9.697  14.742   8.851
73382SOL    HW122043   9.621  14.776   8.804
73382SOL    HW222044   9.670  14.655   8.881
73383SOL     OW22045   4.138   0.108  12.027
73383SOL    HW122046   4.065   0.054  11.996
73383SOL    HW222047   4.175   0.147  11.948
73384SOL     OW22048   2.908   0.306   6.964
73384SOL    HW122049   2.818   0.290   6.992
73384SOL    HW222050   2.961   0.284   7.041
73385SOL     OW22051   5.246   9.401   8.879
73385SOL    HW122052   5.233   9.438   8.966
73385SOL    HW222053   5.187   9.450   8.822
73386SOL     OW22054  13.357   1.020  12.687
73386SOL    HW122055  13.407   1.078  12.630
73386SOL    HW222056  13.274   1.006  12.641
73387SOL     OW22057   3.558  14.591   3.496
73387SOL    HW122058   3.510  14.512   3.518
73387SOL    HW222059   3.502  14.663   3.526
73388SOL     OW22060  12.242   5.365   9.956
73388SOL    HW122061  12.233   5.419  10.035
73388SOL    HW222062  12.164   5.308   9.958
73389SOL     OW22063   9.592   2.387   4.476
73389SOL    HW122064   9.513   2.384   4.422
73389SOL    HW222065   9.590   2.474   4.516
73390SOL     OW22066  10.595   0.873   0.413
73390SOL    HW122067  10.642   0.867   0.329
73390SOL    HW222068  10.588   0.967   0.430
73391SOL     OW22069   2.396   3.218  11.624
73391SOL    HW122070   2.360   3.306  11.639
73391SOL    HW222071   2.426   3.220  11.534
73392SOL     OW22072  10.644   1.235   1.609
73392SOL    HW122073  10.572   1.199   1.558
73392SOL    HW222074  10.663   1.168   1.675
73393SOL     OW22075  14.835  13.943   0.719
73393SOL    HW122076  14.857  13.950   0.812
73393SOL    HW222077  14.743  13.968   0.714
73394SOL     OW22078   0.036   1.740  13.496
73394SOL    HW122079  14.832   1.756  13.451
73394SOL    HW222080   0.087   1.820  13.480
73395SOL     OW22081  10.110   8.610  12.175
73395SOL    HW122082  10.155   8.526  12.175
73395SOL    HW222083  10.159   8.664  12.237
73396SOL     OW22084  12.254  13.956   5.658
73396SOL    HW122085  12.298  14.032   5.619
73396SOL    HW222086  12.181  13.937   5.599
73397SOL     OW22087   0.477  13.569   1.537
73397SOL    HW122088   0.482  13.474   1.548
73397SOL    HW222089   0.390  13.592   1.570
73398SOL     OW22090  14.675   7.679   4.999
73398SOL    HW122091  14.679   7.698   4.906
73398SOL    HW222092  14.601   7.730   5.031
73399SOL     OW22093   2.310   6.466   6.558
73399SOL    HW122094   2.286   6.382   6.598
73399SOL    HW222095   2.253   6.474   6.483
73400SOL     OW22096  10.684   7.858   9.757
73400SOL    HW122097  10.595   7.834   9.785
73400SOL    HW222098  10.716   7.917   9.826
73401SOL     OW22099   6.553   5.723   6.868
73401SOL    HW122100   6.598   5.731   6.952
73401SOL    HW222101   6.484   5.790   6.872
73402SOL     OW22102   7.355   4.268   1.105
73402SOL    HW122103   7.438   4.309   1.082
73402SOL    HW222104   7.314   4.330   1.165
73403SOL     OW22105  11.483   6.796   9.532
73403SOL    HW122106  11.525   6.879   9.510
73403SOL    HW222107  11.413   6.786   9.468
73404SOL     OW22108   3.225   4.321   2.156
73404SOL    HW122109   3.209   4.252   2.220
73404SOL    HW222110   3.296   4.287   2.101
73405SOL     OW22111  14.440   3.093  10.793
73405SOL    HW122112  14.420   3.010  10.752
73405SOL    HW222113  14.356   3.124  10.827
73406SOL     OW22114   1.876   8.092   3.883
73406SOL    HW122115   1.949   8.108   3.943
73406SOL    HW222116   1.875   8.169   3.826
73407SOL     OW22117   1.197  11.901   4.838
73407SOL    HW122118   1.256  11.976   4.835
73407SOL    HW222119   1.132  11.919   4.770
73408SOL     OW22120   7.212   2.125   9.221
73408SOL    HW122121   7.143   2.061   9.239
73408SOL    HW222122   7.175   2.209   9.248
73409SOL     OW22123  10.079   4.543  12.306
73409SOL    HW122124  10.038   4.533  12.393
73409SOL    HW222125  10.006   4.535  12.245
73410SOL     OW22126   2.360   6.513   0.676
73410SOL    HW122127   2.271   6.495   0.706
73410SOL    HW222128   2.416   6.468   0.740
73411SOL     OW22129   4.421   2.502   2.639
73411SOL    HW122130   4.331   2.485   2.666
73411SOL    HW222131   4.463   2.415   2.639
73412SOL     OW22132  11.925   1.040   0.243
73412SOL    HW122133  11.849   1.011   0.293
73412SOL    HW222134  11.996   1.045   0.307
73413SOL     OW22135   6.283   0.489   6.063
73413SOL    HW122136   6.191   0.478   6.038
73413SOL    HW222137   6.301   0.415   6.120
73414SOL     OW22138   9.796   3.789  11.239
73414SOL    HW122139   9.712   3.825  11.266
73414SOL    HW222140   9.814   3.830  11.154
73415SOL     OW22141  12.825   7.776   6.214
73415SOL    HW122142  12.827   7.802   6.122
73415SOL    HW222143  12.829   7.859   6.262
73416SOL     OW22144   1.210   2.072  12.907
73416SOL    HW122145   1.257   1.989  12.907
73416SOL    HW222146   1.120   2.049  12.928
73417SOL     OW22147  14.755   9.796  11.674
73417SOL    HW122148  14.798   9.846  11.605
73417SOL    HW222149  14.684   9.853  11.704
73418SOL     OW22150   9.459   9.699   9.681
73418SOL    HW122151   9.395   9.702   9.610
73418SOL    HW222152   9.544   9.710   9.637
73419SOL     OW22153   6.040  11.594  10.218
73419SOL    HW122154   5.978  11.619  10.150
73419SOL    HW222155   6.028  11.660  10.286
73420SOL     OW22156   6.954  11.112   0.576
73420SOL    HW122157   7.032  11.122   0.522
73420SOL    HW222158   6.921  11.025   0.556
73421SOL     OW22159  13.231  13.355   0.411
73421SOL    HW122160  13.184  13.428   0.453
73421SOL    HW222161  13.217  13.281   0.470
73422SOL     OW22162   7.784   1.645   3.211
73422SOL    HW122163   7.804   1.609   3.297
73422SOL    HW222164   7.744   1.573   3.163
73423SOL     OW22165   9.019   8.539  11.913
73423SOL    HW122166   8.948   8.601  11.935
73423SOL    HW222167   8.975   8.455  11.902
73424SOL     OW22168  14.286   2.173  13.388
73424SOL    HW122169  14.259   2.214  13.306
73424SOL    HW222170  14.334   2.242  13.434
73425SOL     OW22171  12.524   6.370  11.353
73425SOL    HW122172  12.493   6.441  11.409
73425SOL    HW222173  12.477   6.382  11.271
73426SOL     OW22174   7.324  13.364  11.547
73426SOL    HW122175   7.399  13.305  11.559
73426SOL    HW222176   7.263  13.315  11.493
73427SOL     OW22177   5.589  14.687   4.980
73427SOL    HW122178   5.507  14.711   5.022
73427SOL    HW222179   5.640  14.767   4.977
73428SOL     OW22180   3.241   0.611   0.490
73428SOL    HW122181   3.224   0.627   0.583
73428SOL    HW222182   3.299   0.535   0.488
73429SOL     OW22183   5.555   2.887   8.283
73429SOL    HW122184   5.552   2.955   8.216
73429SOL    HW222185   5.463   2.861   8.294
73430SOL     OW22186  14.817   6.968   3.306
73430SOL    HW122187  14.822   6.873   3.317
73430SOL    HW222188  14.728   6.984   3.276
73431SOL     OW22189  12.427   1.919  13.349
73431SOL    HW122190  12.335   1.913  13.322
73431SOL    HW222191  12.471   1.963  13.276
73432SOL     OW22192  10.816   3.706   8.357
73432SOL    HW122193  10.824   3.791   8.313
73432SOL    HW222194  10.772   3.726   8.440
73433SOL     OW22195  10.934  10.280   0.422
73433SOL    HW122196  10.994  10.292   0.349
73433SOL    HW222197  10.848  10.303   0.387
73434SOL     OW22198  10.729   3.081   2.012
73434SOL    HW122199  10.665   3.146   1.986
73434SOL    HW222200  10.702   3.055   2.100
73435SOL     OW22201  10.595  11.207   4.206
73435SOL    HW122202  10.542  11.134   4.239
73435SOL    HW222203  10.534  11.258   4.152
73436SOL     OW22204  11.216  13.220  10.250
73436SOL    HW122205  11.218  13.239  10.344
73436SOL    HW222206  11.167  13.139  10.243
73437SOL     OW22207   5.830   3.002   2.371
73437SOL    HW122208   5.855   3.091   2.395
73437SOL    HW222209   5.742   3.011   2.334
73438SOL     OW22210   2.091   1.218   4.102
73438SOL    HW122211   2.076   1.139   4.154
73438SOL    HW222212   2.163   1.263   4.146
73439SOL     OW22213  12.062  14.384   3.520
73439SOL    HW122214  12.113  14.433   3.584
73439SOL    HW222215  12.098  14.295   3.524
73440SOL     OW22216   0.108  11.505  10.460
73440SOL    HW122217   0.092  11.553  10.541
73440SOL    HW222218   0.135  11.417  10.488
73441SOL     OW22219   2.378  14.286   8.156
73441SOL    HW122220   2.343  14.356   8.211
73441SOL    HW222221   2.346  14.306   8.068
73442SOL     OW22222  14.044   6.648   9.383
73442SOL    HW122223  13.978   6.619   9.446
73442SOL    HW222224  14.104   6.574   9.376
73443SOL     OW22225   3.411   3.303   5.364
73443SOL    HW122226   3.477   3.256   5.415
73443SOL    HW222227   3.384   3.240   5.297
73444SOL     OW22228   1.556   3.847  10.644
73444SOL    HW122229   1.474   3.897  10.646
73444SOL    HW222230   1.599   3.875  10.563
73445SOL     OW22231  12.860   5.011   2.834
73445SOL    HW122232  12.764   5.006   2.835
73445SOL    HW222233  12.887   4.989   2.923
73446SOL     OW22234  14.412   9.188   6.335
73446SOL    HW122235  14.436   9.202   6.243
73446SOL    HW222236  14.439   9.268   6.380
73447SOL     OW22237   4.046   2.693   1.018
73447SOL    HW122238   3.995   2.628   1.067
73447SOL    HW222239   4.058   2.655   0.932
73448SOL     OW22240  10.953   1.018   3.903
73448SOL    HW122241  10.966   1.110   3.929
73448SOL    HW222242  11.020   1.002   3.838
73449SOL     OW22243   7.829   5.448  11.422
73449SOL    HW122244   7.835   5.521  11.361
73449SOL    HW222245   7.801   5.374  11.368
73450SOL     OW22246  13.310   8.517  10.780
73450SOL    HW122247  13.302   8.603  10.738
73450SOL    HW222248  13.298   8.454  10.708
73451SOL     OW22249   3.711  12.932   7.964
73451SOL    HW122250   3.662  12.869   8.016
73451SOL    HW222251   3.648  13.002   7.945
73452SOL     OW22252  13.840   3.896   2.508
73452SOL    HW122253  13.751   3.862   2.522
73452SOL    HW222254  13.863   3.869   2.419
73453SOL     OW22255  11.436   2.073  12.287
73453SOL    HW122256  11.410   2.124  12.364
73453SOL    HW222257  11.359   2.019  12.267
73454SOL     OW22258  13.500  14.463   1.945
73454SOL    HW122259  13.531  14.483   1.857
73454SOL    HW222260  13.578  14.472   2.000
73455SOL     OW22261   4.077  12.084   4.117
73455SOL    HW122262   4.046  12.150   4.056
73455SOL    HW222263   4.048  12.115   4.203
73456SOL     OW22264   3.364   2.316  11.876
73456SOL    HW122265   3.352   2.256  11.949
73456SOL    HW222266   3.440   2.368  11.901
73457SOL     OW22267   2.419  12.607   2.230
73457SOL    HW122268   2.479  12.665   2.183
73457SOL    HW222269   2.368  12.666   2.286
73458SOL     OW22270   4.399   6.400   4.992
73458SOL    HW122271   4.416   6.468   5.056
73458SOL    HW222272   4.440   6.321   5.029
73459SOL     OW22273   1.307   0.815   3.256
73459SOL    HW122274   1.336   0.794   3.167
73459SOL    HW222275   1.218   0.781   3.261
73460SOL     OW22276  12.168  12.923  13.062
73460SOL    HW122277  12.147  12.875  13.142
73460SOL    HW222278  12.117  12.879  12.994
73461SOL     OW22279   7.376   5.354  14.149
73461SOL    HW122280   7.440   5.406  14.101
73461SOL    HW222281   7.340   5.414  14.214
73462SOL     OW22282  13.238   7.081   6.193
73462SOL    HW122283  13.217   7.171   6.218
73462SOL    HW222284  13.323   7.064   6.235
73463SOL     OW22285   8.334   1.177   9.928
73463SOL    HW122286   8.310   1.084   9.933
73463SOL    HW222287   8.352   1.192   9.836
73464SOL     OW22288   6.484  11.144   2.806
73464SOL    HW122289   6.405  11.152   2.860
73464SOL    HW222290   6.537  11.079   2.851
73465SOL     OW22291   6.443  11.856   7.686
73465SOL    HW122292   6.447  11.762   7.669
73465SOL    HW222293   6.463  11.897   7.602
73466SOL     OW22294   4.162   7.757   2.126
73466SOL    HW122295   4.133   7.689   2.065
73466SOL    HW222296   4.126   7.731   2.211
73467SOL     OW22297  12.502   6.029   6.930
73467SOL    HW122298  12.538   6.108   6.971
73467SOL    HW222299  12.424   6.009   6.982
73468SOL     OW22300   2.076   6.268  12.835
73468SOL    HW122301   2.129   6.240  12.909
73468SOL    HW222302   2.090   6.362  12.829
73469SOL     OW22303   0.651  11.283   9.461
73469SOL    HW122304   0.624  11.232   9.537
73469SOL    HW222305   0.600  11.249   9.389
73470SOL     OW22306   0.461   5.009   7.337
73470SOL    HW122307   0.455   4.966   7.422
73470SOL    HW222308   0.511   5.089   7.354
73471SOL     OW22309   0.968  14.248   1.900
73471SOL    HW122310   0.904  14.277   1.964
73471SOL    HW222311   0.941  14.159   1.878
73472SOL     OW22312   3.915   8.027   4.873
73472SOL    HW122313   3.926   7.937   4.902
73472SOL    HW222314   3.889   8.074   4.952
73473SOL     OW22315  11.049   1.898   1.397
73473SOL    HW122316  11.071   1.815   1.439
73473SOL    HW222317  11.105   1.902   1.320
73474SOL     OW22318  13.262   6.059  11.615
73474SOL    HW122319  13.338   6.041  11.561
73474SOL    HW222320  13.273   6.003  11.692
73475SOL     OW22321   4.413   9.700   2.723
73475SOL    HW122322   4.348   9.750   2.773
73475SOL    HW222323   4.497   9.739   2.745
73476SOL     OW22324  10.788   0.095   4.750
73476SOL    HW122325  10.877   0.078   4.717
73476SOL    HW222326  10.748   0.008   4.755
73477SOL     OW22327  12.501  11.340  12.594
73477SOL    HW122328  12.475  11.254  12.628
73477SOL    HW222329  12.585  11.325  12.552
73478SOL     OW22330   3.606   8.538  11.714
73478SOL    HW122331   3.665   8.613  11.705
73478SOL    HW222332   3.656   8.474  11.764
73479SOL     OW22333   9.075   7.517  11.967
73479SOL    HW122334   9.053   7.551  12.054
73479SOL    HW222335   9.166   7.487  11.975
73480SOL     OW22336  13.387  10.279   3.231
73480SOL    HW122337  13.403  10.355   3.174
73480SOL    HW222338  13.395  10.204   3.172
73481SOL     OW22339  14.277   8.079   4.669
73481SOL    HW122340  14.195   8.089   4.717
73481SOL    HW222341  14.343   8.121   4.724
73482SOL     OW22342   7.172   1.318   2.158
73482SOL    HW122343   7.139   1.266   2.084
73482SOL    HW222344   7.246   1.366   2.122
73483SOL     OW22345   6.691   4.188  13.095
73483SOL    HW122346   6.681   4.156  13.185
73483SOL    HW222347   6.769   4.244  13.099
73484SOL     OW22348  13.104   2.341  12.852
73484SOL    HW122349  13.026   2.396  12.860
73484SOL    HW222350  13.073   2.252  12.868
73485SOL     OW22351   1.797  10.493  14.086
73485SOL    HW122352   1.713  10.498  14.041
73485SOL    HW222353   1.827  10.403  14.071
73486SOL     OW22354   5.414   6.326   1.404
73486SOL    HW122355   5.445   6.388   1.338
73486SOL    HW222356   5.483   6.260   1.409
73487SOL     OW22357   2.726   2.901   2.183
73487SOL    HW122358   2.761   2.949   2.108
73487SOL    HW222359   2.633   2.924   2.185
73488SOL     OW22360   1.318  12.904  10.305
73488SOL    HW122361   1.355  12.859  10.381
73488SOL    HW222362   1.258  12.840  10.266
73489SOL     OW22363  11.044  10.296   3.567
73489SOL    HW122364  11.050  10.367   3.504
73489SOL    HW222365  11.124  10.303   3.619
73490SOL     OW22366  13.224  10.226   2.934
73490SOL    HW122367  13.151  10.200   2.878
73490SOL    HW222368  13.296  10.169   2.908
73491SOL     OW22369  10.983  14.575  13.135
73491SOL    HW122370  10.895  14.574  13.098
73491SOL    HW222371  10.982  14.645  13.200
73492SOL     OW22372   7.497   8.987   9.030
73492SOL    HW122373   7.556   9.018   8.961
73492SOL    HW222374   7.508   8.892   9.030
73493SOL     OW22375  12.079   5.682  11.497
73493SOL    HW122376  12.039   5.690  11.410
73493SOL    HW222377  12.161   5.634  11.481
73494SOL     OW22378  11.173   7.845   7.186
73494SOL    HW122379  11.169   7.783   7.259
73494SOL    HW222380  11.094   7.898   7.195
73495SOL     OW22381  10.998   7.831   1.452
73495SOL    HW122382  11.000   7.763   1.519
73495SOL    HW222383  11.061   7.896   1.483
73496SOL     OW22384   9.179   4.387  10.594
73496SOL    HW122385   9.091   4.426  10.596
73496SOL    HW222386   9.164   4.296  10.568
73497SOL     OW22387   3.434   8.657  11.458
73497SOL    HW122388   3.399   8.569  11.448
73497SOL    HW222389   3.513   8.646  11.511
73498SOL     OW22390   4.944  10.208   6.315
73498SOL    HW122391   5.025  10.256   6.330
73498SOL    HW222392   4.958  10.122   6.355
73499SOL     OW22393  13.134  13.967  10.398
73499SOL    HW122394  13.140  13.946  10.492
73499SOL    HW222395  13.099  13.888  10.358
73500SOL     OW22396   6.084  12.669  12.713
73500SOL    HW122397   6.085  12.653  12.807
73500SOL    HW222398   6.046  12.756  12.704
73501SOL     OW22399   6.809  13.772  14.064
73501SOL    HW122400   6.783  13.803  14.151
73501SOL    HW222401   6.735  13.718  14.035
73502SOL     OW22402   7.956   2.150   5.788
73502SOL    HW122403   7.993   2.215   5.728
73502SOL    HW222404   7.862   2.168   5.786
73503SOL     OW22405   7.820   1.115   7.663
73503SOL    HW122406   7.913   1.110   7.642
73503SOL    HW222407   7.780   1.159   7.588
73504SOL     OW22408  12.886  13.132  11.297
73504SOL    HW122409  12.834  13.212  11.293
73504SOL    HW222410  12.948  13.147  11.369
73505SOL     OW22411  14.070  13.815  13.074
73505SOL    HW122412  14.142  13.790  13.132
73505SOL    HW222413  14.069  13.748  13.006
73506SOL     OW22414   6.942   2.652   6.146
73506SOL    HW122415   6.849   2.631   6.152
73506SOL    HW222416   6.954   2.729   6.202
73507SOL     OW22417  11.609   5.427   5.349
73507SOL    HW122418  11.650   5.348   5.387
73507SOL    HW222419  11.565   5.468   5.424
73508SOL     OW22420   5.432   1.243   8.465
73508SOL    HW122421   5.340   1.258   8.442
73508SOL    HW222422   5.435   1.151   8.492
73509SOL     OW22423   6.991   7.570   6.632
73509SOL    HW122424   6.984   7.662   6.606
73509SOL    HW222425   7.070   7.539   6.588
73510SOL     OW22426   6.488   2.701  11.955
73510SOL    HW122427   6.418   2.651  11.913
73510SOL    HW222428   6.447   2.742  12.031
73511SOL     OW22429   2.751  12.959   8.097
73511SOL    HW122430   2.703  13.009   8.162
73511SOL    HW222431   2.842  12.964   8.126
73512SOL     OW22432  13.107   1.774  14.499
73512SOL    HW122433  13.026   1.826  14.497
73512SOL    HW222434  13.090   1.701  14.438
73513SOL     OW22435  11.609   2.267   5.997
73513SOL    HW122436  11.628   2.183   5.956
73513SOL    HW222437  11.650   2.261   6.084
73514SOL     OW22438   5.844   7.665  11.679
73514SOL    HW122439   5.899   7.637  11.606
73514SOL    HW222440   5.897   7.729  11.726
73515SOL     OW22441  14.686   0.641   8.930
73515SOL    HW122442  14.665   0.726   8.970
73515SOL    HW222443  14.633   0.578   8.979
73516SOL     OW22444   1.883  11.445   2.523
73516SOL    HW122445   1.946  11.504   2.482
73516SOL    HW222446   1.879  11.370   2.464
73517SOL     OW22447   9.791  10.842   3.260
73517SOL    HW122448   9.769  10.751   3.239
73517SOL    HW222449   9.864  10.835   3.321
73518SOL     OW22450   2.139  10.946  13.240
73518SOL    HW122451   2.126  10.936  13.334
73518SOL    HW222452   2.233  10.934  13.227
73519SOL     OW22453   9.745   4.627   1.216
73519SOL    HW122454   9.791   4.696   1.170
73519SOL    HW222455   9.774   4.546   1.173
73520SOL     OW22456  11.127   2.908  10.558
73520SOL    HW122457  11.166   2.877  10.476
73520SOL    HW222458  11.071   2.836  10.586
73521SOL     OW22459   6.675   9.205   0.644
73521SOL    HW122460   6.618   9.281   0.635
73521SOL    HW222461   6.764   9.240   0.640
73522SOL     OW22462  14.635  10.398  14.462
73522SOL    HW122463  14.657  10.467  14.399
73522SOL    HW222464  14.569  10.345  14.418
73523SOL     OW22465  12.183   3.793  13.747
73523SOL    HW122466  12.198   3.712  13.797
73523SOL    HW222467  12.106   3.774  13.694
73524SOL     OW22468   7.047   8.204   5.054
73524SOL    HW122469   7.094   8.287   5.048
73524SOL    HW222470   7.104   8.140   5.011
73525SOL     OW22471  11.514   7.549   8.355
73525SOL    HW122472  11.448   7.482   8.371
73525SOL    HW222473  11.503   7.611   8.427
73526SOL     OW22474   7.835   5.200   9.835
73526SOL    HW122475   7.861   5.271   9.776
73526SOL    HW222476   7.894   5.207   9.910
73527SOL     OW22477   5.849   6.039  12.256
73527SOL    HW122478   5.841   6.112  12.194
73527SOL    HW222479   5.878   6.081  12.338
73528SOL     OW22480   7.378  11.733  12.000
73528SOL    HW122481   7.467  11.744  11.966
73528SOL    HW222482   7.346  11.652  11.960
73529SOL     OW22483  14.263  10.467   9.183
73529SOL    HW122484  14.199  10.440   9.117
73529SOL    HW222485  14.226  10.547   9.221
73530SOL     OW22486   9.309   0.502   9.603
73530SOL    HW122487   9.357   0.500   9.686
73530SOL    HW222488   9.227   0.545   9.624
73531SOL     OW22489  10.855  12.036   5.673
73531SOL    HW122490  10.925  12.027   5.608
73531SOL    HW222491  10.797  11.962   5.656
73532SOL     OW22492   1.957  10.001   9.146
73532SOL    HW122493   1.883  10.021   9.205
73532SOL    HW222494   1.987   9.915   9.174
73533SOL     OW22495  12.772   4.762   6.793
73533SOL    HW122496  12.738   4.732   6.708
73533SOL    HW222497  12.826   4.838   6.771
73534SOL     OW22498   1.062   5.338   0.626
73534SOL    HW122499   0.987   5.352   0.569
73534SOL    HW222500   1.125   5.292   0.571
73535SOL     OW22501   5.291   2.814   8.326
73535SOL    HW122502   5.266   2.729   8.362
73535SOL    HW222503   5.222   2.834   8.263
73536SOL     OW22504   4.724   9.692   8.961
73536SOL    HW122505   4.742   9.674   8.869
73536SOL    HW222506   4.630   9.707   8.965
73537SOL     OW22507  11.088   4.434   8.093
73537SOL    HW122508  11.044   4.519   8.099
73537SOL    HW222509  11.131   4.434   8.008
73538SOL     OW22510   4.709  10.171   9.057
73538SOL    HW122511   4.757  10.224   9.120
73538SOL    HW222512   4.728  10.081   9.081
73539SOL     OW22513   8.775  11.425  10.054
73539SOL    HW122514   8.813  11.502  10.012
73539SOL    HW222515   8.694  11.410  10.006
73540SOL     OW22516   3.729   4.145   4.592
73540SOL    HW122517   3.648   4.100   4.612
73540SOL    HW222518   3.714   4.188   4.508
73541SOL     OW22519  11.858   9.508  13.025
73541SOL    HW122520  11.902   9.592  13.025
73541SOL    HW222521  11.766   9.529  13.043
73542SOL     OW22522  13.306  14.368   2.474
73542SOL    HW122523  13.233  14.428   2.455
73542SOL    HW222524  13.364  14.377   2.399
73543SOL     OW22525   4.491  14.558   0.710
73543SOL    HW122526   4.501  14.476   0.759
73543SOL    HW222527   4.405  14.552   0.669
73544SOL     OW22528   4.928  14.777  11.397
73544SOL    HW122529   4.978  14.780  11.479
73544SOL    HW222530   4.986  14.818  11.332
73545SOL     OW22531   9.486   1.569   6.612
73545SOL    HW122532   9.496   1.504   6.682
73545SOL    HW222533   9.448   1.519   6.539
73546SOL     OW22534   3.139  13.021   8.724
73546SOL    HW122535   3.156  12.935   8.762
73546SOL    HW222536   3.178  13.082   8.786
73547SOL     OW22537   7.761  14.453  14.006
73547SOL    HW122538   7.797  14.379  13.958
73547SOL    HW222539   7.667  14.450  13.989
73548SOL     OW22540   5.051   7.949  13.954
73548SOL    HW122541   5.023   7.932  14.044
73548SOL    HW222542   5.000   8.025  13.927
73549SOL     OW22543  12.832   2.397   5.467
73549SOL    HW122544  12.876   2.386   5.383
73549SOL    HW222545  12.797   2.486   5.465
73550SOL     OW22546   7.338  14.618   0.760
73550SOL    HW122547   7.328  14.575   0.676
73550SOL    HW222548   7.254  14.605   0.804
73551SOL     OW22549   4.322   7.262   9.086
73551SOL    HW122550   4.352   7.197   9.022
73551SOL    HW222551   4.283   7.331   9.032
73552SOL     OW22552   1.324   8.346   9.810
73552SOL    HW122553   1.239   8.388   9.795
73552SOL    HW222554   1.388   8.414   9.789
73553SOL     OW22555   6.978   4.633  10.167
73553SOL    HW122556   6.950   4.567  10.104
73553SOL    HW222557   6.916   4.705  10.155
73554SOL     OW22558   8.248   9.716   5.719
73554SOL    HW122559   8.212   9.735   5.806
73554SOL    HW222560   8.313   9.647   5.734
73555SOL     OW22561   7.855  13.156   8.634
73555SOL    HW122562   7.812  13.222   8.689
73555SOL    HW222563   7.893  13.094   8.696
73556SOL     OW22564   9.528   7.881   1.707
73556SOL    HW122565   9.442   7.920   1.721
73556SOL    HW222566   9.554   7.847   1.792
73557SOL     OW22567  12.393   0.510   6.645
73557SOL    HW122568  12.383   0.501   6.550
73557SOL    HW222569  12.356   0.596   6.664
73558SOL     OW22570   7.166   7.748   7.699
73558SOL    HW122571   7.232   7.789   7.643
73558SOL    HW222572   7.210   7.671   7.736
73559SOL     OW22573  14.730  11.514  10.326
73559SOL    HW122574  14.649  11.490  10.370
73559SOL    HW222575  14.798  11.503  10.392
73560SOL     OW22576   2.686   0.772   1.352
73560SOL    HW122577   2.603   0.726   1.357
73560SOL    HW222578   2.745   0.722   1.409
73561SOL     OW22579  11.672   4.284   1.410
73561SOL    HW122580  11.718   4.210   1.450
73561SOL    HW222581  11.652   4.253   1.321
73562SOL     OW22582  13.408   7.552   9.428
73562SOL    HW122583  13.436   7.628   9.376
73562SOL    HW222584  13.313   7.548   9.414
73563SOL     OW22585   7.472   7.589  14.514
73563SOL    HW122586   7.514   7.673  14.530
73563SOL    HW222587   7.475   7.544  14.599
73564SOL     OW22588  13.292   3.461  12.167
73564SOL    HW122589  13.369   3.494  12.214
73564SOL    HW222590  13.317   3.373  12.139
73565SOL     OW22591   7.039   6.004   9.869
73565SOL    HW122592   7.006   5.935   9.926
73565SOL    HW222593   6.965   6.064   9.857
73566SOL     OW22594  14.036  12.402   1.362
73566SOL    HW122595  14.102  12.404   1.293
73566SOL    HW222596  13.960  12.447   1.324
73567SOL     OW22597  12.105   0.056   9.647
73567SOL    HW122598  12.017   0.020   9.664
73567SOL    HW222599  12.104   0.075   9.553
73568SOL     OW22600   0.645   7.171   1.509
73568SOL    HW122601   0.639   7.256   1.467
73568SOL    HW222602   0.597   7.112   1.451
73569SOL     OW22603   9.932   8.809  12.243
73569SOL    HW122604   9.973   8.735  12.198
73569SOL    HW222605   9.922   8.875  12.175
73570SOL     OW22606  11.051   0.944   7.903
73570SOL    HW122607  11.015   0.872   7.852
73570SOL    HW222608  11.017   0.932   7.991
73571SOL     OW22609   5.593   4.102   7.310
73571SOL    HW122610   5.648   4.145   7.376
73571SOL    HW222611   5.647   4.029   7.278
73572SOL     OW22612  13.887   7.979  14.335
73572SOL    HW122613  13.954   7.958  14.400
73572SOL    HW222614  13.888   8.074  14.328
73573SOL     OW22615  13.759   6.551   6.831
73573SOL    HW122616  13.711   6.473   6.801
73573SOL    HW222617  13.828   6.517   6.888
73574SOL     OW22618  12.751   3.422  11.056
73574SOL    HW122619  12.728   3.471  11.135
73574SOL    HW222620  12.778   3.488  10.993
73575SOL     OW22621   5.189  11.428  12.737
73575SOL    HW122622   5.136  11.461  12.809
73575SOL    HW222623   5.166  11.336  12.729
73576SOL     OW22624   3.954   4.960  11.606
73576SOL    HW122625   3.945   4.989  11.515
73576SOL    HW222626   3.904   5.024  11.657
73577SOL     OW22627   0.421   3.451  12.312
73577SOL    HW122628   0.509   3.416  12.300
73577SOL    HW222629   0.390   3.471  12.224
73578SOL     OW22630  12.294   4.400  10.396
73578SOL    HW122631  12.362   4.370  10.457
73578SOL    HW222632  12.314   4.354  10.315
73579SOL     OW22633   6.280  10.897   9.426
73579SOL    HW122634   6.316  10.812   9.450
73579SOL    HW222635   6.332  10.924   9.350
73580SOL     OW22636   6.712  10.132   7.174
73580SOL    HW122637   6.755  10.091   7.249
73580SOL    HW222638   6.781  10.143   7.109
73581SOL     OW22639  12.456  11.735   1.177
73581SOL    HW122640  12.424  11.738   1.087
73581SOL    HW222641  12.502  11.652   1.183
73582SOL     OW22642   5.948  11.375   2.602
73582SOL    HW122643   5.985  11.362   2.515
73582SOL    HW222644   6.019  11.413   2.654
73583SOL     OW22645   5.509   4.272   2.566
73583SOL    HW122646   5.481   4.355   2.602
73583SOL    HW222647   5.523   4.289   2.473
73584SOL     OW22648  14.440  11.801   8.955
73584SOL    HW122649  14.441  11.752   8.872
73584SOL    HW222650  14.508  11.759   9.008
73585SOL     OW22651   7.656   8.673   0.892
73585SOL    HW122652   7.604   8.662   0.972
73585SOL    HW222653   7.604   8.731   0.837
73586SOL     OW22654  11.079   6.500   5.003
73586SOL    HW122655  11.151   6.437   4.989
73586SOL    HW222656  11.040   6.510   4.916
73587SOL     OW22657   3.878  14.446  13.816
73587SOL    HW122658   3.955  14.497  13.791
73587SOL    HW222659   3.854  14.479  13.903
73588SOL     OW22660   4.581   6.181   6.233
73588SOL    HW122661   4.585   6.249   6.166
73588SOL    HW222662   4.541   6.224   6.308
73589SOL     OW22663   8.762   2.086   1.465
73589SOL    HW122664   8.769   2.154   1.398
73589SOL    HW222665   8.696   2.119   1.526
73590SOL     OW22666  10.716   8.313  14.862
73590SOL    HW122667  10.783   8.352  14.806
73590SOL    HW222668  10.727   8.218  14.850
73591SOL     OW22669   1.128   6.564   6.569
73591SOL    HW122670   1.223   6.551   6.570
73591SOL    HW222671   1.115   6.651   6.607
73592SOL     OW22672  14.709   0.487   5.306
73592SOL    HW122673  14.782   0.529   5.351
73592SOL    HW222674  14.634   0.502   5.363
73593SOL     OW22675   2.772   1.795   9.407
73593SOL    HW122676   2.676   1.786   9.407
73593SOL    HW222677   2.787   1.889   9.404
73594SOL     OW22678   9.844   0.694   2.576
73594SOL    HW122679   9.930   0.682   2.618
73594SOL    HW222680   9.840   0.625   2.510
73595SOL     OW22681   1.248   1.322   4.593
73595SOL    HW122682   1.185   1.342   4.663
73595SOL    HW222683   1.296   1.246   4.625
73596SOL     OW22684  14.179  12.985   0.642
73596SOL    HW122685  14.174  12.952   0.552
73596SOL    HW222686  14.242  13.056   0.638
73597SOL     OW22687  13.215   4.239   0.442
73597SOL    HW122688  13.209   4.179   0.368
73597SOL    HW222689  13.125   4.266   0.459
73598SOL     OW22690   1.882   7.203   7.155
73598SOL    HW122691   1.942   7.253   7.099
73598SOL    HW222692   1.840   7.269   7.210
73599SOL     OW22693  11.073   3.479  12.939
73599SOL    HW122694  11.083   3.445  12.850
73599SOL    HW222695  11.054   3.572  12.927
73600SOL     OW22696   7.179   4.001   1.384
73600SOL    HW122697   7.234   4.068   1.426
73600SOL    HW222698   7.225   3.919   1.401
73601SOL     OW22699   3.086   5.655   1.175
73601SOL    HW122700   3.145   5.579   1.178
73601SOL    HW222701   3.005   5.624   1.216
73602SOL     OW22702   4.086  13.212   0.395
73602SOL    HW122703   4.014  13.186   0.337
73602SOL    HW222704   4.146  13.260   0.339
73603SOL     OW22705  10.952  10.796   7.009
73603SOL    HW122706  11.026  10.739   7.032
73603SOL    HW222707  10.989  10.859   6.947
73604SOL     OW22708  14.661   3.457   3.738
73604SOL    HW122709  14.718   3.385   3.711
73604SOL    HW222710  14.713   3.506   3.802
73605SOL     OW22711  14.677   0.189  10.746
73605SOL    HW122712  14.646   0.099  10.735
73605SOL    HW222713  14.766   0.180  10.781
73606SOL     OW22714  14.331   4.206   5.713
73606SOL    HW122715  14.253   4.183   5.763
73606SOL    HW222716  14.396   4.141   5.739
73607SOL     OW22717  12.259   0.728   1.970
73607SOL    HW122718  12.171   0.700   1.994
73607SOL    HW222719  12.246   0.790   1.898
73608SOL     OW22720   2.806  11.363   4.227
73608SOL    HW122721   2.827  11.441   4.176
73608SOL    HW222722   2.795  11.395   4.316
73609SOL     OW22723  13.435   9.118   4.188
73609SOL    HW122724  13.457   9.164   4.268
73609SOL    HW222725  13.491   9.040   4.188
73610SOL     OW22726   0.451   2.510   2.959
73610SOL    HW122727   0.533   2.480   2.996
73610SOL    HW222728   0.430   2.590   3.008
73611SOL     OW22729   2.473   4.865   6.366
73611SOL    HW122730   2.424   4.876   6.447
73611SOL    HW222731   2.548   4.925   6.375
73612SOL     OW22732   3.123   8.245   5.565
73612SOL    HW122733   3.069   8.250   5.486
73612SOL    HW222734   3.124   8.152   5.587
73613SOL     OW22735   6.266  11.996   4.490
73613SOL    HW122736   6.306  12.006   4.404
73613SOL    HW222737   6.216  12.077   4.503
73614SOL     OW22738  11.089   3.588   5.408
73614SOL    HW122739  11.091   3.604   5.313
73614SOL    HW222740  11.067   3.496   5.416
73615SOL     OW22741   0.835  14.544   8.127
73615SOL    HW122742   0.747  14.510   8.140
73615SOL    HW222743   0.830  14.635   8.153
73616SOL     OW22744  12.302  13.017   9.509
73616SOL    HW122745  12.223  13.028   9.561
73616SOL    HW222746  12.282  13.059   9.425
73617SOL     OW22747  11.234   4.019   0.919
73617SOL    HW122748  11.265   3.979   1.000
73617SOL    HW222749  11.313   4.046   0.874
73618SOL     OW22750   0.397   2.281  13.214
73618SOL    HW122751   0.328   2.215  13.221
73618SOL    HW222752   0.360   2.348  13.157
73619SOL     OW22753   5.025  14.756  14.389
73619SOL    HW122754   5.106  14.709  14.369
73619SOL    HW222755   4.955  14.692  14.373
73620SOL     OW22756  10.733  13.427  11.983
73620SOL    HW122757  10.711  13.505  12.033
73620SOL    HW222758  10.720  13.355  12.045
73621SOL     OW22759   4.856  10.914  13.385
73621SOL    HW122760   4.788  10.849  13.406
73621SOL    HW222761   4.841  10.934  13.293
73622SOL     OW22762  14.793   3.156   6.730
73622SOL    HW122763  14.814   3.121   6.817
73622SOL    HW222764  14.822   3.089   6.669
73623SOL     OW22765   4.559   8.592   1.801
73623SOL    HW122766   4.520   8.677   1.780
73623SOL    HW222767   4.605   8.566   1.721
73624SOL     OW22768  11.639   3.838  13.452
73624SOL    HW122769  11.627   3.817  13.359
73624SOL    HW222770  11.609   3.759  13.498
73625SOL     OW22771  14.854   7.734   8.067
73625SOL    HW122772  14.835   7.671   7.998
73625SOL    HW222773  14.827   7.689   8.148
73626SOL     OW22774  11.527   8.253   0.618
73626SOL    HW122775  11.576   8.286   0.542
73626SOL    HW222776  11.451   8.311   0.624
73627SOL     OW22777   3.600  10.596  10.387
73627SOL    HW122778   3.681  10.607  10.436
73627SOL    HW222779   3.578  10.684  10.357
73628SOL     OW22780   2.377  11.310   1.900
73628SOL    HW122781   2.357  11.221   1.928
73628SOL    HW222782   2.316  11.328   1.829
73629SOL     OW22783   5.614  11.770   3.772
73629SOL    HW122784   5.540  11.829   3.754
73629SOL    HW222785   5.675  11.785   3.700
73630SOL     OW22786   4.329   9.776   0.287
73630SOL    HW122787   4.279   9.696   0.271
73630SOL    HW222788   4.326   9.786   0.382
73631SOL     OW22789   4.994   8.749   3.653
73631SOL    HW122790   4.981   8.818   3.588
73631SOL    HW222791   4.991   8.795   3.737
73632SOL     OW22792   8.834   5.909   4.927
73632SOL    HW122793   8.758   5.951   4.887
73632SOL    HW222794   8.868   5.850   4.860
73633SOL     OW22795   7.329   3.279   5.273
73633SOL    HW122796   7.286   3.333   5.339
73633SOL    HW222797   7.284   3.195   5.278
73634SOL     OW22798  12.868  14.804   9.013
73634SOL    HW122799  12.963  14.813   9.024
73634SOL    HW222800  12.840  14.753   9.090
73635SOL     OW22801   7.661   0.590   5.322
73635SOL    HW122802   7.733   0.628   5.373
73635SOL    HW222803   7.662   0.497   5.345
73636SOL     OW22804  14.051   3.195  11.507
73636SOL    HW122805  14.002   3.271  11.539
73636SOL    HW222806  14.117   3.233  11.449
73637SOL     OW22807   6.519  11.410   4.889
73637SOL    HW122808   6.565  11.442   4.811
73637SOL    HW222809   6.544  11.470   4.959
73638SOL     OW22810  12.482   0.318   3.918
73638SOL    HW122811  12.565   0.363   3.935
73638SOL    HW222812  12.434   0.324   4.001
73639SOL     OW22813   1.146   6.932  14.530
73639SOL    HW122814   1.140   6.840  14.555
73639SOL    HW222815   1.064   6.950  14.485
73640SOL     OW22816   5.969  10.798  13.901
73640SOL    HW122817   5.917  10.725  13.935
73640SOL    HW222818   5.905  10.853  13.855
73641SOL     OW22819   0.954   0.096   8.373
73641SOL    HW122820   0.982   0.027   8.433
73641SOL    HW222821   1.032   0.148   8.358
73642SOL     OW22822  10.238  12.137  13.937
73642SOL    HW122823  10.175  12.208  13.952
73642SOL    HW222824  10.249  12.096  14.023
73643SOL     OW22825  14.417   9.424   0.199
73643SOL    HW122826  14.355   9.478   0.248
73643SOL    HW222827  14.368   9.394   0.123
73644SOL     OW22828   6.000  11.965  12.303
73644SOL    HW122829   6.088  12.001  12.288
73644SOL    HW222830   5.959  12.027  12.363
73645SOL     OW22831   7.230   9.492   6.278
73645SOL    HW122832   7.163   9.457   6.219
73645SOL    HW222833   7.310   9.491   6.226
73646SOL     OW22834   5.398   2.877  14.638
73646SOL    HW122835   5.370   2.788  14.656
73646SOL    HW222836   5.457   2.869  14.563
73647SOL     OW22837  10.404   5.670   5.701
73647SOL    HW122838  10.370   5.615   5.772
73647SOL    HW222839  10.499   5.665   5.711
73648SOL     OW22840   9.810   5.658   3.832
73648SOL    HW122841   9.865   5.705   3.895
73648SOL    HW222842   9.784   5.725   3.768
73649SOL     OW22843   3.625  12.031   2.049
73649SOL    HW122844   3.583  12.097   1.994
73649SOL    HW222845   3.568  12.025   2.126
73650SOL     OW22846   7.001  12.376   2.448
73650SOL    HW122847   6.923  12.371   2.393
73650SOL    HW222848   6.979  12.443   2.513
73651SOL     OW22849   0.551   2.755   2.730
73651SOL    HW122850   0.600   2.680   2.764
73651SOL    HW222851   0.459   2.735   2.750
73652SOL     OW22852  10.532   3.617   2.153
73652SOL    HW122853  10.445   3.618   2.114
73652SOL    HW222854  10.516   3.626   2.247
73653SOL     OW22855  11.631  14.194  12.902
73653SOL    HW122856  11.567  14.232  12.842
73653SOL    HW222857  11.587  14.117  12.938
73654SOL     OW22858  14.395  10.060  12.442
73654SOL    HW122859  14.301  10.069  12.427
73654SOL    HW222860  14.432  10.036  12.357
73655SOL     OW22861   0.916   9.310   5.380
73655SOL    HW122862   0.949   9.237   5.432
73655SOL    HW222863   0.929   9.387   5.436
73656SOL     OW22864   9.415   1.196  10.498
73656SOL    HW122865   9.492   1.148  10.527
73656SOL    HW222866   9.407   1.174  10.405
73657SOL     OW22867  12.639   2.036  13.698
73657SOL    HW122868  12.662   2.091  13.773
73657SOL    HW222869  12.724   2.010  13.661
73658SOL     OW22870  13.403  10.479   9.621
73658SOL    HW122871  13.326  10.477   9.564
73658SOL    HW222872  13.447  10.396   9.606
73659SOL     OW22873  11.731   8.922   6.888
73659SOL    HW122874  11.708   9.013   6.906
73659SOL    HW222875  11.685   8.901   6.807
73660SOL     OW22876  13.385   3.521   2.064
73660SOL    HW122877  13.350   3.465   1.994
73660SOL    HW222878  13.472   3.484   2.083
73661SOL     OW22879   5.755   1.407   1.842
73661SOL    HW122880   5.669   1.442   1.864
73661SOL    HW222881   5.756   1.403   1.746
73662SOL     OW22882   2.656   8.467  14.794
73662SOL    HW122883   2.596   8.537  14.767
73662SOL    HW222884   2.735   8.513  14.824
73663SOL     OW22885  13.000   9.673  12.339
73663SOL    HW122886  13.029   9.585  12.365
73663SOL    HW222887  13.080   9.726  12.341
73664SOL     OW22888   0.016   5.545  13.962
73664SOL    HW122889  14.842   5.479  14.006
73664SOL    HW222890  14.858   5.552  13.875
73665SOL     OW22891   9.588  10.931   5.300
73665SOL    HW122892   9.555  10.841   5.293
73665SOL    HW222893   9.616  10.953   5.211
73666SOL     OW22894   1.664   9.062  12.426
73666SOL    HW122895   1.575   9.041  12.398
73666SOL    HW222896   1.711   8.979  12.420
73667SOL     OW22897   8.048   1.772   0.049
73667SOL    HW122898   7.961   1.813   0.043
73667SOL    HW222899   8.109   1.844   0.035
73668SOL     OW22900   9.230   4.051   4.476
73668SOL    HW122901   9.296   4.112   4.509
73668SOL    HW222902   9.188   4.017   4.555
73669SOL     OW22903  11.522   3.014   7.058
73669SOL    HW122904  11.561   3.081   7.002
73669SOL    HW222905  11.585   3.002   7.129
73670SOL     OW22906   5.681   5.557  14.349
73670SOL    HW122907   5.768   5.580  14.315
73670SOL    HW222908   5.690   5.566  14.444
73671SOL     OW22909   4.029   4.980  11.004
73671SOL    HW122910   4.073   5.024  11.076
73671SOL    HW222911   3.978   5.050  10.961
73672SOL     OW22912   0.546  14.539   5.019
73672SOL    HW122913   0.465  14.507   4.979
73672SOL    HW222914   0.596  14.577   4.947
73673SOL     OW22915   5.332   0.719   8.400
73673SOL    HW122916   5.307   0.798   8.353
73673SOL    HW222917   5.420   0.737   8.433
73674SOL     OW22918  11.754   6.729   5.706
73674SOL    HW122919  11.802   6.666   5.758
73674SOL    HW222920  11.817   6.761   5.642
73675SOL     OW22921   7.438   3.980  12.430
73675SOL    HW122922   7.514   4.024  12.468
73675SOL    HW222923   7.378   4.050  12.409
73676SOL     OW22924   5.479  14.693   9.655
73676SOL    HW122925   5.428  14.687   9.736
73676SOL    HW222926   5.420  14.658   9.587
73677SOL     OW22927   0.215   4.446   8.628
73677SOL    HW122928   0.120   4.447   8.643
73677SOL    HW222929   0.226   4.487   8.542
73678SOL     OW22930   6.379   9.247  12.362
73678SOL    HW122931   6.293   9.208  12.370
73678SOL    HW222932   6.408   9.224  12.274
73679SOL     OW22933  14.485   9.340   5.741
73679SOL    HW122934  14.461   9.278   5.810
73679SOL    HW222935  14.422   9.323   5.671
73680SOL     OW22936   3.322   6.777   4.847
73680SOL    HW122937   3.413   6.752   4.862
73680SOL    HW222938   3.278   6.758   4.930
73681SOL     OW22939   5.211   4.661   8.269
73681SOL    HW122940   5.215   4.589   8.332
73681SOL    HW222941   5.174   4.623   8.190
73682SOL     OW22942   0.642   9.123   6.284
73682SOL    HW122943   0.695   9.093   6.210
73682SOL    HW222944   0.568   9.062   6.286
73683SOL     OW22945  12.196   9.090  10.468
73683SOL    HW122946  12.170   9.102  10.559
73683SOL    HW222947  12.118   9.113  10.418
73684SOL     OW22948  14.361   9.111  10.042
73684SOL    HW122949  14.384   9.177  10.108
73684SOL    HW222950  14.269   9.128  10.022
73685SOL     OW22951  11.341   3.485  12.973
73685SOL    HW122952  11.253   3.461  12.945
73685SOL    HW222953  11.348   3.451  13.063
73686SOL     OW22954  12.255   7.935   8.754
73686SOL    HW122955  12.294   7.870   8.812
73686SOL    HW222956  12.161   7.916   8.757
73687SOL     OW22957   3.304   3.439   3.819
73687SOL    HW122958   3.388   3.447   3.865
73687SOL    HW222959   3.268   3.357   3.851
73688SOL     OW22960   2.500   4.825   7.795
73688SOL    HW122961   2.549   4.814   7.877
73688SOL    HW222962   2.496   4.920   7.783
73689SOL     OW22963  13.410  12.218  11.231
73689SOL    HW122964  13.486  12.201  11.287
73689SOL    HW222965  13.442  12.203  11.142
73690SOL     OW22966  10.316   8.304  12.543
73690SOL    HW122967  10.282   8.215  12.553
73690SOL    HW222968  10.368   8.318  12.622
73691SOL     OW22969   1.309  10.481   1.913
73691SOL    HW122970   1.234  10.521   1.956
73691SOL    HW222971   1.371  10.552   1.901
73692SOL     OW22972   6.495   3.637   5.160
73692SOL    HW122973   6.468   3.636   5.252
73692SOL    HW222974   6.525   3.726   5.144
73693SOL     OW22975  13.553  11.931   2.733
73693SOL    HW122976  13.522  11.840   2.739
73693SOL    HW222977  13.646  11.923   2.711
73694SOL     OW22978  13.272  14.264   5.270
73694SOL    HW122979  13.203  14.202   5.292
73694SOL    HW222980  13.349  14.232   5.317
73695SOL     OW22981   5.489   3.324   8.473
73695SOL    HW122982   5.584   3.329   8.486
73695SOL    HW222983   5.465   3.409   8.435
73696SOL     OW22984  12.428   6.168   9.969
73696SOL    HW122985  12.348   6.182  10.020
73696SOL    HW222986  12.399   6.175   9.878
73697SOL     OW22987  14.597   5.674   0.854
73697SOL    HW122988  14.583   5.586   0.820
73697SOL    HW222989  14.691   5.679   0.870
73698SOL     OW22990   2.789   9.074  14.549
73698SOL    HW122991   2.839   9.010  14.498
73698SOL    HW222992   2.700   9.066  14.515
73699SOL     OW22993   0.382   2.667   6.240
73699SOL    HW122994   0.289   2.677   6.222
73699SOL    HW222995   0.422   2.748   6.208
73700SOL     OW22996   1.770   6.690   7.460
73700SOL    HW122997   1.779   6.693   7.365
73700SOL    HW222998   1.806   6.773   7.490
73701SOL     OW22999   6.152   0.854  11.819
73701SOL    HW123000   6.198   0.791  11.874
73701SOL    HW223001   6.221   0.914  11.789
73702SOL     OW23002   1.387   2.021  12.134
73702SOL    HW123003   1.423   1.980  12.212
73702SOL    HW223004   1.448   2.093  12.114
73703SOL     OW23005   1.797   7.828  12.926
73703SOL    HW123006   1.872   7.770  12.932
73703SOL    HW223007   1.727   7.774  12.890
73704SOL     OW23008   2.172   3.691   5.086
73704SOL    HW123009   2.093   3.715   5.038
73704SOL    HW223010   2.232   3.765   5.073
73705SOL     OW23011  10.676   3.909  12.537
73705SOL    HW123012  10.760   3.956  12.545
73705SOL    HW223013  10.685   3.857  12.457
73706SOL     OW23014   7.068   3.832   3.776
73706SOL    HW123015   7.022   3.752   3.799
73706SOL    HW223016   7.069   3.833   3.681
73707SOL     OW23017  12.441   3.795   2.730
73707SOL    HW123018  12.510   3.730   2.743
73707SOL    HW223019  12.391   3.793   2.811
73708SOL     OW23020   6.164   5.673  12.593
73708SOL    HW123021   6.242   5.621  12.611
73708SOL    HW223022   6.108   5.659  12.669
73709SOL     OW23023   5.674   8.669   7.349
73709SOL    HW123024   5.746   8.672   7.285
73709SOL    HW223025   5.717   8.680   7.434
73710SOL     OW23026  10.377   8.676   5.772
73710SOL    HW123027  10.411   8.757   5.809
73710SOL    HW223028  10.330   8.703   5.693
73711SOL     OW23029  10.321   1.831   0.909
73711SOL    HW123030  10.273   1.751   0.888
73711SOL    HW223031  10.385   1.804   0.975
73712SOL     OW23032   3.335  11.876   7.267
73712SOL    HW123033   3.299  11.803   7.217
73712SOL    HW223034   3.258  11.922   7.302
73713SOL     OW23035   3.735   1.246  11.544
73713SOL    HW123036   3.650   1.278  11.575
73713SOL    HW223037   3.738   1.154  11.572
73714SOL     OW23038  11.611   5.085   9.251
73714SOL    HW123039  11.554   5.095   9.174
73714SOL    HW223040  11.699   5.100   9.217
73715SOL     OW23041  10.371   4.989   2.405
73715SOL    HW123042  10.299   4.968   2.464
73715SOL    HW223043  10.410   5.069   2.440
73716SOL     OW23044   8.421  11.865   2.807
73716SOL    HW123045   8.498  11.842   2.859
73716SOL    HW223046   8.401  11.785   2.758
73717SOL     OW23047  13.400   7.384   9.927
73717SOL    HW123048  13.398   7.424   9.840
73717SOL    HW223049  13.492   7.386   9.953
73718SOL     OW23050  13.694   3.696   2.706
73718SOL    HW123051  13.701   3.656   2.619
73718SOL    HW223052  13.770   3.661   2.754
73719SOL     OW23053   1.872   2.331   9.011
73719SOL    HW123054   1.813   2.406   9.010
73719SOL    HW223055   1.902   2.322   8.921
73720SOL     OW23056  11.381   3.894   1.099
73720SOL    HW123057  11.423   3.933   1.176
73720SOL    HW223058  11.362   3.804   1.125
73721SOL     OW23059   5.390   9.765   6.249
73721SOL    HW123060   5.303   9.725   6.248
73721SOL    HW223061   5.378   9.850   6.207
73722SOL     OW23062   4.828  14.475   3.994
73722SOL    HW123063   4.852  14.561   3.961
73722SOL    HW223064   4.895  14.416   3.961
73723SOL     OW23065  12.178   7.909  14.663
73723SOL    HW123066  12.186   7.937  14.572
73723SOL    HW223067  12.244   7.959  14.710
73724SOL     OW23068   4.270  11.986   6.419
73724SOL    HW123069   4.246  12.055   6.357
73724SOL    HW223070   4.194  11.928   6.421
73725SOL     OW23071   5.432   0.134   5.517
73725SOL    HW123072   5.445   0.045   5.552
73725SOL    HW223073   5.396   0.183   5.591
73726SOL     OW23074  14.539   8.922   6.628
73726SOL    HW123075  14.581   8.911   6.543
73726SOL    HW223076  14.611   8.922   6.691
73727SOL     OW23077   4.044   1.661   4.990
73727SOL    HW123078   3.988   1.591   5.022
73727SOL    HW223079   4.098   1.621   4.923
73728SOL     OW23080  11.115  12.730  12.863
73728SOL    HW123081  11.119  12.756  12.956
73728SOL    HW223082  11.045  12.666  12.859
73729SOL     OW23083   2.309   7.469   4.107
73729SOL    HW123084   2.223   7.425   4.102
73729SOL    HW223085   2.297   7.550   4.058
73730SOL     OW23086   4.277  12.652   6.154
73730SOL    HW123087   4.259  12.746   6.149
73730SOL    HW223088   4.328  12.642   6.235
73731SOL     OW23089  11.290  14.325   4.079
73731SOL    HW123090  11.286  14.233   4.108
73731SOL    HW223091  11.382  14.348   4.087
73732SOL     OW23092  10.159  13.386  14.845
73732SOL    HW123093  10.194  13.310  14.797
73732SOL    HW223094  10.184  13.461  14.792
73733SOL     OW23095  13.650  11.915  10.681
73733SOL    HW123096  13.583  11.925  10.749
73733SOL    HW223097  13.658  12.002  10.643
73734SOL     OW23098  11.343   9.591   3.406
73734SOL    HW123099  11.326   9.620   3.496
73734SOL    HW223100  11.376   9.669   3.361
73735SOL     OW23101   9.914   5.397  10.101
73735SOL    HW123102   9.957   5.344  10.168
73735SOL    HW223103   9.864   5.335  10.049
73736SOL     OW23104  13.918   4.768   8.908
73736SOL    HW123105  13.882   4.856   8.898
73736SOL    HW223106  13.948   4.744   8.820
73737SOL     OW23107   7.336   4.407   6.132
73737SOL    HW123108   7.248   4.438   6.149
73737SOL    HW223109   7.339   4.320   6.173
73738SOL     OW23110   2.167   8.131   4.986
73738SOL    HW123111   2.254   8.159   5.012
73738SOL    HW223112   2.128   8.097   5.067
73739SOL     OW23113   7.935  13.430   1.822
73739SOL    HW123114   7.857  13.477   1.793
73739SOL    HW223115   7.902  13.367   1.887
73740SOL     OW23116  12.808   9.451   0.241
73740SOL    HW123117  12.783   9.543   0.256
73740SOL    HW223118  12.749   9.401   0.298
73741SOL     OW23119   7.988  14.078   2.121
73741SOL    HW123120   7.989  14.145   2.053
73741SOL    HW223121   7.910  14.026   2.102
73742SOL     OW23122   6.689  13.030  14.622
73742SOL    HW123123   6.750  13.053  14.552
73742SOL    HW223124   6.745  13.014  14.698
73743SOL     OW23125   7.307   9.534   9.388
73743SOL    HW123126   7.401   9.545   9.371
73743SOL    HW223127   7.291   9.441   9.370
73744SOL     OW23128   0.076  13.359  12.004
73744SOL    HW123129   0.089  13.267  12.026
73744SOL    HW223130   0.123  13.371  11.922
73745SOL     OW23131   4.990   7.041  10.716
73745SOL    HW123132   4.963   6.975  10.651
73745SOL    HW223133   5.012   7.118  10.664
73746SOL     OW23134   0.119   7.568   9.272
73746SOL    HW123135   0.046   7.530   9.321
73746SOL    HW223136   0.078   7.607   9.195
73747SOL     OW23137  13.812   6.415  13.833
73747SOL    HW123138  13.882   6.459  13.785
73747SOL    HW223139  13.818   6.448  13.922
73748SOL     OW23140   4.224   0.651  10.764
73748SOL    HW123141   4.282   0.589  10.720
73748SOL    HW223142   4.269   0.671  10.847
73749SOL     OW23143   4.798   5.545   6.866
73749SOL    HW123144   4.878   5.580   6.905
73749SOL    HW223145   4.826   5.464   6.823
73750SOL     OW23146  10.618   0.877   5.216
73750SOL    HW123147  10.610   0.801   5.273
73750SOL    HW223148  10.601   0.842   5.128
73751SOL     OW23149   5.969   5.652   0.124
73751SOL    HW123150   6.039   5.604   0.168
73751SOL    HW223151   5.914   5.584   0.086
73752SOL     OW23152   9.619   9.949   7.291
73752SOL    HW123153   9.611   9.978   7.382
73752SOL    HW223154   9.663  10.022   7.247
73753SOL     OW23155   1.509   7.301   2.626
73753SOL    HW123156   1.453   7.297   2.704
73753SOL    HW223157   1.580   7.239   2.644
73754SOL     OW23158  11.366   4.941  13.412
73754SOL    HW123159  11.273   4.919  13.405
73754SOL    HW223160  11.411   4.857  13.408
73755SOL     OW23161   6.984   0.190  12.052
73755SOL    HW123162   6.937   0.250  12.111
73755SOL    HW223163   7.075   0.219  12.055
73756SOL     OW23164  10.111   2.519  12.561
73756SOL    HW123165  10.165   2.491  12.635
73756SOL    HW223166  10.032   2.557  12.601
73757SOL     OW23167   7.901  14.113  14.231
73757SOL    HW123168   7.831  14.054  14.202
73757SOL    HW223169   7.856  14.183  14.277
73758SOL     OW23170   2.745   4.356   6.795
73758SOL    HW123171   2.765   4.364   6.888
73758SOL    HW223172   2.704   4.439   6.772
73759SOL     OW23173  14.327   6.157   6.855
73759SOL    HW123174  14.393   6.089   6.874
73759SOL    HW223175  14.356   6.194   6.771
73760SOL     OW23176  12.945   7.516   7.955
73760SOL    HW123177  12.885   7.581   7.917
73760SOL    HW223178  12.888   7.457   8.004
73761SOL     OW23179   8.931   0.998   2.528
73761SOL    HW123180   8.845   0.958   2.519
73761SOL    HW223181   8.988   0.945   2.472
73762SOL     OW23182  13.438  10.230  13.744
73762SOL    HW123183  13.402  10.158  13.795
73762SOL    HW223184  13.421  10.205  13.653
73763SOL     OW23185   9.318   6.281   5.100
73763SOL    HW123186   9.278   6.196   5.085
73763SOL    HW223187   9.248   6.334   5.137
73764SOL     OW23188   2.611  13.116   8.312
73764SOL    HW123189   2.528  13.163   8.318
73764SOL    HW223190   2.612  13.058   8.388
73765SOL     OW23191   0.606  10.029  11.065
73765SOL    HW123192   0.615  10.066  10.977
73765SOL    HW223193   0.542  10.086  11.108
73766SOL     OW23194   2.286  10.004   0.742
73766SOL    HW123195   2.286   9.929   0.801
73766SOL    HW223196   2.374  10.040   0.749
73767SOL     OW23197  10.157   3.350  12.474
73767SOL    HW123198  10.078   3.368  12.422
73767SOL    HW223199  10.146   3.259  12.504
73768SOL     OW23200   0.237   1.627   4.006
73768SOL    HW123201   0.276   1.601   3.923
73768SOL    HW223202   0.144   1.640   3.986
73769SOL     OW23203  13.807  12.369   6.527
73769SOL    HW123204  13.898  12.341   6.520
73769SOL    HW223205  13.790  12.415   6.444
73770SOL     OW23206   5.272   0.990   7.906
73770SOL    HW123207   5.316   0.907   7.887
73770SOL    HW223208   5.329   1.056   7.868
73771SOL     OW23209   6.063   3.436   4.653
73771SOL    HW123210   6.157   3.454   4.660
73771SOL    HW223211   6.056   3.370   4.584
73772SOL     OW23212   4.158  12.968   3.824
73772SOL    HW123213   4.109  12.934   3.749
73772SOL    HW223214   4.095  13.022   3.871
73773SOL     OW23215   2.067   9.484  13.831
73773SOL    HW123216   2.029   9.572  13.841
73773SOL    HW223217   2.029   9.434  13.903
73774SOL     OW23218   8.028  14.158   3.172
73774SOL    HW123219   8.074  14.202   3.244
73774SOL    HW223220   7.955  14.112   3.214
73775SOL     OW23221   6.168   4.834   6.829
73775SOL    HW123222   6.157   4.808   6.921
73775SOL    HW223223   6.255   4.873   6.825
73776SOL     OW23224   0.661  10.075   1.980
73776SOL    HW123225   0.665  10.026   2.062
73776SOL    HW223226   0.592  10.032   1.930
73777SOL     OW23227   0.668   4.063   4.645
73777SOL    HW123228   0.690   4.119   4.719
73777SOL    HW223229   0.574   4.048   4.653
73778SOL     OW23230   6.981   2.742  14.120
73778SOL    HW123231   6.969   2.690  14.041
73778SOL    HW223232   7.003   2.677  14.188
73779SOL     OW23233  11.838  13.735   1.255
73779SOL    HW123234  11.786  13.675   1.201
73779SOL    HW223235  11.908  13.680   1.290
73780SOL     OW23236   8.293  14.229   3.329
73780SOL    HW123237   8.299  14.139   3.359
73780SOL    HW223238   8.307  14.282   3.407
73781SOL     OW23239  11.057   9.613   2.977
73781SOL    HW123240  11.027   9.523   2.959
73781SOL    HW223241  10.985   9.668   2.946
73782SOL     OW23242  14.537   9.066   9.103
73782SOL    HW123243  14.591   9.122   9.158
73782SOL    HW223244  14.455   9.114   9.091
73783SOL     OW23245  13.473   3.133   5.707
73783SOL    HW123246  13.511   3.184   5.635
73783SOL    HW223247  13.403   3.188   5.741
73784SOL     OW23248   0.824  10.208   2.229
73784SOL    HW123249   0.853  10.123   2.195
73784SOL    HW223250   0.749  10.232   2.175
73785SOL     OW23251  12.887   9.420   7.537
73785SOL    HW123252  12.910   9.446   7.448
73785SOL    HW223253  12.956   9.458   7.592
73786SOL     OW23254   5.278   5.209   5.634
73786SOL    HW123255   5.330   5.166   5.702
73786SOL    HW223256   5.342   5.233   5.567
73787SOL     OW23257   9.133  12.694   6.127
73787SOL    HW123258   9.070  12.747   6.178
73787SOL    HW223259   9.218  12.733   6.148
73788SOL     OW23260  11.056   8.004  10.632
73788SOL    HW123261  11.069   8.099  10.626
73788SOL    HW223262  10.963   7.994  10.654
73789SOL     OW23263   4.726  10.732  14.544
73789SOL    HW123264   4.662  10.677  14.498
73789SOL    HW223265   4.678  10.766  14.620
73790SOL     OW23266  14.340  11.063   4.951
73790SOL    HW123267  14.367  10.996   4.889
73790SOL    HW223268  14.298  11.014   5.022
73791SOL     OW23269  14.109   9.379  13.214
73791SOL    HW123270  14.149   9.350  13.296
73791SOL    HW223271  14.072   9.465  13.235
73792SOL     OW23272  14.045  14.193   8.909
73792SOL    HW123273  14.120  14.247   8.934
73792SOL    HW223274  13.995  14.248   8.848
73793SOL     OW23275   8.971   3.753   3.932
73793SOL    HW123276   8.878   3.777   3.929
73793SOL    HW223277   9.007   3.786   3.850
73794SOL     OW23278   4.339   4.884  14.244
73794SOL    HW123279   4.317   4.909  14.334
73794SOL    HW223280   4.416   4.937  14.222
73795SOL     OW23281   2.418  11.444   5.886
73795SOL    HW123282   2.387  11.530   5.857
73795SOL    HW223283   2.391  11.437   5.977
73796SOL     OW23284   7.687  14.439  13.681
73796SOL    HW123285   7.601  14.406  13.658
73796SOL    HW223286   7.747  14.397  13.620
73797SOL     OW23287   0.904   6.258   2.665
73797SOL    HW123288   0.929   6.225   2.752
73797SOL    HW223289   0.823   6.213   2.644
73798SOL     OW23290  10.101  14.313   6.832
73798SOL    HW123291  10.068  14.379   6.771
73798SOL    HW223292  10.057  14.232   6.805
73799SOL     OW23293   4.879   1.358  12.733
73799SOL    HW123294   4.784   1.352  12.728
73799SOL    HW223295   4.908   1.269  12.750
73800SOL     OW23296   2.081  11.836  12.712
73800SOL    HW123297   2.077  11.781  12.790
73800SOL    HW223298   2.133  11.912  12.739
73801SOL     OW23299   3.082   0.292   3.328
73801SOL    HW123300   3.156   0.270   3.271
73801SOL    HW223301   3.096   0.238   3.406
73802SOL     OW23302  11.201   9.800  10.178
73802SOL    HW123303  11.213   9.892  10.202
73802SOL    HW223304  11.150   9.764  10.250
73803SOL     OW23305   8.699  13.662  12.689
73803SOL    HW123306   8.699  13.575  12.729
73803SOL    HW223307   8.706  13.645  12.595
73804SOL     OW23308   4.094  12.011   8.322
73804SOL    HW123309   4.030  11.986   8.255
73804SOL    HW223310   4.041  12.028   8.400
73805SOL     OW23311   1.356  13.735   3.505
73805SOL    HW123312   1.307  13.783   3.439
73805SOL    HW223313   1.308  13.653   3.516
73806SOL     OW23314  14.496  10.283   0.684
73806SOL    HW123315  14.413  10.269   0.638
73806SOL    HW223316  14.493  10.220   0.757
73807SOL     OW23317   5.827   3.351   2.138
73807SOL    HW123318   5.792   3.436   2.110
73807SOL    HW223319   5.911   3.372   2.178
73808SOL     OW23320   1.918   3.030   9.968
73808SOL    HW123321   1.949   3.053  10.055
73808SOL    HW223322   1.994   2.994   9.924
73809SOL     OW23323   3.209  13.327  11.532
73809SOL    HW123324   3.244  13.399  11.584
73809SOL    HW223325   3.169  13.267  11.596
73810SOL     OW23326   8.750   4.579  12.212
73810SOL    HW123327   8.820   4.525  12.249
73810SOL    HW223328   8.669   4.536  12.242
73811SOL     OW23329   6.644   2.855   6.486
73811SOL    HW123330   6.629   2.938   6.530
73811SOL    HW223331   6.736   2.836   6.502
73812SOL     OW23332   7.045   3.120   1.291
73812SOL    HW123333   7.013   3.184   1.228
73812SOL    HW223334   7.059   3.170   1.371
73813SOL     OW23335   0.022   5.786   0.416
73813SOL    HW123336   0.102   5.796   0.467
73813SOL    HW223337   0.048   5.805   0.326
73814SOL     OW23338   3.089  14.506  10.534
73814SOL    HW123339   2.997  14.530  10.532
73814SOL    HW223340   3.110  14.498  10.627
73815SOL     OW23341   2.973   9.075   5.090
73815SOL    HW123342   3.004   8.992   5.054
73815SOL    HW223343   2.921   9.114   5.020
73816SOL     OW23344   7.892   5.863   9.148
73816SOL    HW123345   7.939   5.942   9.121
73816SOL    HW223346   7.949   5.791   9.121
73817SOL     OW23347   5.392   4.750  11.241
73817SOL    HW123348   5.415   4.833  11.284
73817SOL    HW223349   5.424   4.761  11.151
73818SOL     OW23350  10.788  12.256   6.672
73818SOL    HW123351  10.783  12.295   6.585
73818SOL    HW223352  10.880  12.231   6.682
73819SOL     OW23353  13.971   5.457   6.929
73819SOL    HW123354  13.906   5.431   6.864
73819SOL    HW223355  13.933   5.532   6.974
73820SOL     OW23356   8.355  12.205   2.129
73820SOL    HW123357   8.426  12.218   2.066
73820SOL    HW223358   8.277  12.196   2.075
73821SOL     OW23359   2.381  10.326  10.314
73821SOL    HW123360   2.449  10.359  10.255
73821SOL    HW223361   2.414  10.241  10.343
73822SOL     OW23362   2.383   1.586   4.929
73822SOL    HW123363   2.347   1.555   5.012
73822SOL    HW223364   2.321   1.652   4.898
73823SOL     OW23365   0.428  11.639  11.372
73823SOL    HW123366   0.338  11.662  11.394
73823SOL    HW223367   0.475  11.722  11.370
73824SOL     OW23368   5.312   9.238   8.528
73824SOL    HW123369   5.253   9.281   8.466
73824SOL    HW223370   5.338   9.307   8.588
73825SOL     OW23371   4.622  11.264  13.093
73825SOL    HW123372   4.662  11.222  13.017
73825SOL    HW223373   4.536  11.223  13.102
73826SOL     OW23374   9.117   2.801   7.840
73826SOL    HW123375   9.071   2.866   7.893
73826SOL    HW223376   9.109   2.719   7.890
73827SOL     OW23377   9.455   7.711   0.412
73827SOL    HW123378   9.541   7.741   0.383
73827SOL    HW223379   9.438   7.632   0.362
73828SOL     OW23380   3.452   9.430  14.424
73828SOL    HW123381   3.537   9.385  14.427
73828SOL    HW223382   3.436   9.456  14.515
73829SOL     OW23383  13.256   0.510   0.841
73829SOL    HW123384  13.255   0.537   0.933
73829SOL    HW223385  13.349   0.510   0.817
73830SOL     OW23386   5.826   3.651   9.666
73830SOL    HW123387   5.807   3.735   9.626
73830SOL    HW223388   5.772   3.588   9.618
73831SOL     OW23389   6.299  12.053   9.749
73831SOL    HW123390   6.236  12.119   9.777
73831SOL    HW223391   6.361  12.100   9.693
73832SOL     OW23392  12.133   1.880   0.378
73832SOL    HW123393  12.177   1.922   0.453
73832SOL    HW223394  12.073   1.817   0.417
73833SOL     OW23395   5.493   0.214   0.235
73833SOL    HW123396   5.450   0.134   0.265
73833SOL    HW223397   5.574   0.219   0.286
73834SOL     OW23398   2.290   4.860   5.957
73834SOL    HW123399   2.296   4.765   5.955
73834SOL    HW223400   2.196   4.878   5.953
73835SOL     OW23401  10.115  12.485   1.987
73835SOL    HW123402  10.145  12.567   1.947
73835SOL    HW223403  10.045  12.512   2.046
73836SOL     OW23404  10.622  12.689   9.963
73836SOL    HW123405  10.623  12.609   9.911
73836SOL    HW223406  10.636  12.759   9.899
73837SOL     OW23407  11.113   3.541   6.456
73837SOL    HW123408  11.053   3.484   6.408
73837SOL    HW223409  11.106   3.512   6.547
73838SOL     OW23410  11.179   8.138   4.398
73838SOL    HW123411  11.203   8.157   4.308
73838SOL    HW223412  11.087   8.163   4.404
73839SOL     OW23413   3.669  14.471  14.261
73839SOL    HW123414   3.579  14.475  14.293
73839SOL    HW223415   3.718  14.430  14.331
73840SOL     OW23416   1.985   4.940   0.340
73840SOL    HW123417   2.078   4.920   0.334
73840SOL    HW223418   1.942   4.871   0.288
73841SOL     OW23419   1.687   3.475   3.340
73841SOL    HW123420   1.766   3.475   3.394
73841SOL    HW223421   1.705   3.411   3.271
73842SOL     OW23422   4.244  12.840  13.908
73842SOL    HW123423   4.269  12.860  13.818
73842SOL    HW223424   4.305  12.771  13.935
73843SOL     OW23425  14.560  13.393   0.338
73843SOL    HW123426  14.527  13.455   0.403
73843SOL    HW223427  14.653  13.384   0.359
73844SOL     OW23428  13.715   0.588  11.343
73844SOL    HW123429  13.775   0.634  11.283
73844SOL    HW223430  13.758   0.595  11.428
73845SOL     OW23431  14.380   0.428  12.656
73845SOL    HW123432  14.416   0.444  12.743
73845SOL    HW223433  14.444   0.468  12.596
73846SOL     OW23434   1.157  13.096  10.454
73846SOL    HW123435   1.211  13.025  10.418
73846SOL    HW223436   1.102  13.124  10.381
73847SOL     OW23437   0.421   2.569   9.628
73847SOL    HW123438   0.344   2.546   9.680
73847SOL    HW223439   0.492   2.575   9.693
73848SOL     OW23440  14.737  14.623   3.540
73848SOL    HW123441  14.702  14.548   3.588
73848SOL    HW223442  14.685  14.698   3.572
73849SOL     OW23443   8.509  13.241   1.046
73849SOL    HW123444   8.461  13.300   1.104
73849SOL    HW223445   8.546  13.175   1.105
73850SOL     OW23446  11.177   8.446   3.953
73850SOL    HW123447  11.228   8.523   3.931
73850SOL    HW223448  11.094   8.456   3.906
73851SOL     OW23449   8.287   3.610   6.021
73851SOL    HW123450   8.360   3.602   5.959
73851SOL    HW223451   8.229   3.676   5.982
73852SOL     OW23452  11.334   6.906   5.420
73852SOL    HW123453  11.258   6.869   5.464
73852SOL    HW223454  11.402   6.907   5.487
73853SOL     OW23455  13.469   6.954   6.791
73853SOL    HW123456  13.429   6.925   6.710
73853SOL    HW223457  13.443   6.889   6.856
73854SOL     OW23458   4.740   7.243  13.602
73854SOL    HW123459   4.701   7.156  13.602
73854SOL    HW223460   4.708   7.284  13.522
73855SOL     OW23461   8.415  12.769   5.304
73855SOL    HW123462   8.343  12.820   5.267
73855SOL    HW223463   8.442  12.819   5.381
73856SOL     OW23464   5.225   9.541   4.068
73856SOL    HW123465   5.206   9.616   4.012
73856SOL    HW223466   5.247   9.579   4.153
73857SOL     OW23467  10.781   5.946   0.814
73857SOL    HW123468  10.789   5.941   0.719
73857SOL    HW223469  10.724   5.873   0.838
73858SOL     OW23470  14.694   1.895   8.404
73858SOL    HW123471  14.632   1.959   8.439
73858SOL    HW223472  14.769   1.900   8.464
73859SOL     OW23473  14.404   7.623   4.186
73859SOL    HW123474  14.364   7.707   4.210
73859SOL    HW223475  14.393   7.569   4.264
73860SOL     OW23476   7.486   3.824   3.066
73860SOL    HW123477   7.510   3.835   3.158
73860SOL    HW223478   7.563   3.854   3.017
73861SOL     OW23479  10.241   0.690   5.812
73861SOL    HW123480  10.315   0.743   5.842
73861SOL    HW223481  10.249   0.690   5.717
73862SOL     OW23482   4.180   0.425  11.610
73862SOL    HW123483   4.254   0.484  11.624
73862SOL    HW223484   4.149   0.446  11.522
73863SOL     OW23485   5.652   0.796  10.084
73863SOL    HW123486   5.612   0.752  10.159
73863SOL    HW223487   5.731   0.837  10.120
73864SOL     OW23488   0.196  14.722  11.875
73864SOL    HW123489   0.246  14.731  11.956
73864SOL    HW223490   0.104  14.719  11.903
73865SOL     OW23491  13.176  12.268   2.217
73865SOL    HW123492  13.174  12.349   2.165
73865SOL    HW223493  13.153  12.199   2.155
73866SOL     OW23494  11.030   5.601   7.438
73866SOL    HW123495  11.119   5.625   7.411
73866SOL    HW223496  10.990   5.683   7.465
73867SOL     OW23497   9.782  11.337   7.959
73867SOL    HW123498   9.780  11.267   8.025
73867SOL    HW223499   9.873  11.364   7.956
73868SOL     OW23500   0.957   1.081   5.254
73868SOL    HW123501   1.036   1.135   5.251
73868SOL    HW223502   0.886   1.140   5.231
73869SOL     OW23503   3.514  11.988   5.738
73869SOL    HW123504   3.600  11.963   5.703
73869SOL    HW223505   3.467  11.905   5.746
73870SOL     OW23506  13.379  13.419   3.869
73870SOL    HW123507  13.394  13.325   3.862
73870SOL    HW223508  13.466  13.456   3.883
73871SOL     OW23509   6.171   8.797  11.163
73871SOL    HW123510   6.137   8.708  11.177
73871SOL    HW223511   6.184   8.802  11.068
73872SOL     OW23512   3.555  10.194  13.421
73872SOL    HW123513   3.539  10.271  13.475
73872SOL    HW223514   3.650  10.183  13.422
73873SOL     OW23515  14.138   3.460  14.040
73873SOL    HW123516  14.149   3.542  14.089
73873SOL    HW223517  14.199   3.399  14.081
73874SOL     OW23518   1.650  12.452   5.893
73874SOL    HW123519   1.717  12.494   5.947
73874SOL    HW223520   1.603  12.394   5.954
73875SOL     OW23521   3.795   4.953   9.192
73875SOL    HW123522   3.878   4.958   9.240
73875SOL    HW223523   3.816   4.901   9.114
73876SOL     OW23524   4.314   8.764   9.247
73876SOL    HW123525   4.399   8.803   9.229
73876SOL    HW223526   4.273   8.754   9.161
73877SOL     OW23527  14.168  11.849   1.582
73877SOL    HW123528  14.174  11.759   1.550
73877SOL    HW223529  14.075  11.871   1.573
73878SOL     OW23530   8.915   0.977   8.441
73878SOL    HW123531   8.884   0.893   8.409
73878SOL    HW223532   8.968   0.955   8.518
73879SOL     OW23533   7.502   7.070  14.147
73879SOL    HW123534   7.553   7.121  14.084
73879SOL    HW223535   7.525   6.979  14.128
73880SOL     OW23536  12.605  12.495  13.940
73880SOL    HW123537  12.610  12.410  13.896
73880SOL    HW223538  12.684  12.541  13.912
73881SOL     OW23539  13.735   8.737   6.401
73881SOL    HW123540  13.753   8.719   6.493
73881SOL    HW223541  13.727   8.651   6.360
73882SOL     OW23542   3.178  11.832  10.363
73882SOL    HW123543   3.156  11.800  10.275
73882SOL    HW223544   3.263  11.875  10.352
73883SOL     OW23545  10.781   6.756   6.965
73883SOL    HW123546  10.827   6.821   6.913
73883SOL    HW223547  10.802   6.672   6.923
73884SOL     OW23548   6.609  12.715  14.517
73884SOL    HW123549   6.552  12.742  14.444
73884SOL    HW223550   6.693  12.697  14.475
73885SOL     OW23551   8.615   0.837   4.856
73885SOL    HW123552   8.653   0.878   4.779
73885SOL    HW223553   8.690   0.824   4.915
73886SOL     OW23554   8.095  14.450  12.470
73886SOL    HW123555   8.119  14.534  12.431
73886SOL    HW223556   8.108  14.463  12.564
73887SOL     OW23557  11.828  11.218  14.332
73887SOL    HW123558  11.876  11.221  14.415
73887SOL    HW223559  11.818  11.309  14.306
73888SOL     OW23560   2.044   4.441   9.957
73888SOL    HW123561   2.089   4.466   9.876
73888SOL    HW223562   2.040   4.522  10.008
73889SOL     OW23563  11.978   6.165   3.900
73889SOL    HW123564  11.911   6.191   3.964
73889SOL    HW223565  12.060   6.197   3.937
73890SOL     OW23566   1.861   6.690   0.365
73890SOL    HW123567   1.849   6.777   0.328
73890SOL    HW223568   1.947   6.661   0.333
73891SOL     OW23569   4.119   6.374   0.916
73891SOL    HW123570   4.108   6.468   0.926
73891SOL    HW223571   4.036   6.343   0.881
73892SOL     OW23572   7.538  12.636  13.776
73892SOL    HW123573   7.553  12.655  13.683
73892SOL    HW223574   7.610  12.680  13.821
73893SOL     OW23575   1.192   8.909   3.483
73893SOL    HW123576   1.282   8.909   3.449
73893SOL    HW223577   1.195   8.846   3.556
73894SOL     OW23578   7.468   8.795   2.506
73894SOL    HW123579   7.546   8.848   2.525
73894SOL    HW223580   7.406   8.818   2.575
73895SOL     OW23581  12.905   1.785  12.930
73895SOL    HW123582  12.972   1.753  12.991
73895SOL    HW223583  12.822   1.765  12.974
73896SOL     OW23584  13.986  11.446   4.389
73896SOL    HW123585  14.002  11.378   4.456
73896SOL    HW223586  14.046  11.423   4.318
73897SOL     OW23587   5.556   7.679   0.881
73897SOL    HW123588   5.624   7.619   0.849
73897SOL    HW223589   5.576   7.763   0.838
73898SOL     OW23590   0.888   1.101  12.730
73898SOL    HW123591   0.949   1.173  12.713
73898SOL    HW223592   0.809   1.144  12.764
73899SOL     OW23593   4.154   9.759  13.459
73899SOL    HW123594   4.227   9.814  13.430
73899SOL    HW223595   4.080   9.785  13.404
73900SOL     OW23596   7.664   2.878  11.421
73900SOL    HW123597   7.748   2.875  11.374
73900SOL    HW223598   7.616   2.802  11.388
73901SOL     OW23599  13.869  13.134   5.096
73901SOL    HW123600  13.928  13.059   5.108
73901SOL    HW223601  13.895  13.196   5.164
73902SOL     OW23602   8.629  12.801   2.902
73902SOL    HW123603   8.637  12.799   2.807
73902SOL    HW223604   8.708  12.759   2.934
73903SOL     OW23605   7.581   9.250   4.409
73903SOL    HW123606   7.546   9.298   4.333
73903SOL    HW223607   7.595   9.161   4.377
73904SOL     OW23608  14.120  13.137  14.301
73904SOL    HW123609  14.193  13.195  14.322
73904SOL    HW223610  14.152  13.084  14.227
73905SOL     OW23611  11.590   6.473  13.759
73905SOL    HW123612  11.645   6.409  13.714
73905SOL    HW223613  11.508   6.474  13.709
73906SOL     OW23614  10.768  13.946   7.173
73906SOL    HW123615  10.684  13.980   7.143
73906SOL    HW223616  10.749  13.907   7.258
73907SOL     OW23617   0.562   8.755   0.519
73907SOL    HW123618   0.591   8.814   0.450
73907SOL    HW223619   0.559   8.810   0.598
73908SOL     OW23620   6.147   1.204   6.445
73908SOL    HW123621   6.129   1.297   6.455
73908SOL    HW223622   6.185   1.178   6.529
73909SOL     OW23623   0.417   1.721   7.054
73909SOL    HW123624   0.342   1.662   7.041
73909SOL    HW223625   0.493   1.669   7.026
73910SOL     OW23626   9.966   5.377   7.172
73910SOL    HW123627  10.014   5.420   7.101
73910SOL    HW223628   9.921   5.304   7.130
73911SOL     OW23629  14.582   9.237   4.769
73911SOL    HW123630  14.516   9.176   4.801
73911SOL    HW223631  14.598   9.210   4.679
73912SOL     OW23632  12.814   8.025  10.006
73912SOL    HW123633  12.747   8.068  10.059
73912SOL    HW223634  12.771   7.945   9.973
73913SOL     OW23635   7.687  10.068  11.361
73913SOL    HW123636   7.725  10.150  11.395
73913SOL    HW223637   7.607  10.095  11.317
73914SOL     OW23638   4.731   2.762   3.462
73914SOL    HW123639   4.656   2.711   3.494
73914SOL    HW223640   4.783   2.779   3.541
73915SOL     OW23641   2.779   7.758   4.137
73915SOL    HW123642   2.731   7.761   4.219
73915SOL    HW223643   2.727   7.700   4.081
73916SOL     OW23644  14.522   2.996   0.506
73916SOL    HW123645  14.534   3.018   0.414
73916SOL    HW223646  14.488   2.906   0.504
73917SOL     OW23647  11.006  13.648   2.245
73917SOL    HW123648  11.101  13.664   2.249
73917SOL    HW223649  10.972  13.721   2.194
73918SOL     OW23650   2.296   4.333   9.540
73918SOL    HW123651   2.202   4.315   9.541
73918SOL    HW223652   2.335   4.257   9.498
73919SOL     OW23653  14.359  10.067  10.510
73919SOL    HW123654  14.301  10.018  10.451
73919SOL    HW223655  14.322  10.156  10.511
73920SOL     OW23656   2.869   6.066   8.165
73920SOL    HW123657   2.908   6.151   8.182
73920SOL    HW223658   2.910   6.007   8.229
73921SOL     OW23659  13.318   6.630   4.308
73921SOL    HW123660  13.296   6.716   4.343
73921SOL    HW223661  13.234   6.583   4.307
73922SOL     OW23662   4.713   4.436   8.232
73922SOL    HW123663   4.678   4.525   8.224
73922SOL    HW223664   4.796   4.447   8.279
73923SOL     OW23665   8.114  14.309   7.007
73923SOL    HW123666   8.133  14.345   7.094
73923SOL    HW223667   8.159  14.368   6.946
73924SOL     OW23668  12.330   8.676   8.084
73924SOL    HW123669  12.279   8.618   8.141
73924SOL    HW223670  12.292   8.663   7.997
73925SOL     OW23671   0.557  11.888   7.251
73925SOL    HW123672   0.476  11.885   7.301
73925SOL    HW223673   0.538  11.949   7.179
73926SOL     OW23674   5.806   4.180   6.428
73926SOL    HW123675   5.862   4.124   6.375
73926SOL    HW223676   5.756   4.119   6.483
73927SOL     OW23677   6.073   0.904   2.074
73927SOL    HW123678   6.155   0.856   2.065
73927SOL    HW223679   6.007   0.837   2.085
73928SOL     OW23680   7.297   2.800  12.949
73928SOL    HW123681   7.299   2.788  13.044
73928SOL    HW223682   7.364   2.741  12.916
73929SOL     OW23683   2.374   5.718  12.414
73929SOL    HW123684   2.311   5.746  12.347
73929SOL    HW223685   2.332   5.644  12.457
73930SOL     OW23686   0.499   6.350   1.436
73930SOL    HW123687   0.551   6.372   1.358
73930SOL    HW223688   0.438   6.283   1.406
73931SOL     OW23689   0.618   6.863   7.435
73931SOL    HW123690   0.585   6.801   7.500
73931SOL    HW223691   0.673   6.809   7.377
73932SOL     OW23692   7.313   0.987   7.489
73932SOL    HW123693   7.379   0.928   7.453
73932SOL    HW223694   7.247   0.930   7.528
73933SOL     OW23695   0.854   7.487  14.692
73933SOL    HW123696   0.806   7.516  14.769
73933SOL    HW223697   0.821   7.542  14.621
73934SOL     OW23698   7.081   3.774  11.673
73934SOL    HW123699   7.087   3.726  11.756
73934SOL    HW223700   7.043   3.712  11.611
73935SOL     OW23701   4.096   4.807  12.930
73935SOL    HW123702   4.086   4.844  13.018
73935SOL    HW223703   4.181   4.839  12.900
73936SOL     OW23704   4.385   4.067  12.223
73936SOL    HW123705   4.319   4.136  12.229
73936SOL    HW223706   4.335   3.986  12.215
73937SOL     OW23707   6.639  13.288  10.017
73937SOL    HW123708   6.637  13.293   9.922
73937SOL    HW223709   6.732  13.293  10.039
73938SOL     OW23710  14.609   3.899   5.129
73938SOL    HW123711  14.563   3.824   5.166
73938SOL    HW223712  14.560   3.920   5.049
73939SOL     OW23713   3.564   5.294   3.562
73939SOL    HW123714   3.543   5.258   3.648
73939SOL    HW223715   3.647   5.340   3.575
73940SOL     OW23716   2.531   6.023   4.154
73940SOL    HW123717   2.447   5.994   4.190
73940SOL    HW223718   2.551   6.104   4.201
73941SOL     OW23719  11.566   9.844   9.314
73941SOL    HW123720  11.484   9.816   9.273
73941SOL    HW223721  11.600   9.764   9.354
73942SOL     OW23722   6.878   6.680   5.785
73942SOL    HW123723   6.918   6.633   5.859
73942SOL    HW223724   6.947   6.683   5.719
73943SOL     OW23725   2.693   1.991  14.689
73943SOL    HW123726   2.740   1.908  14.685
73943SOL    HW223727   2.760   2.057  14.704
73944SOL     OW23728   2.921   2.209   7.289
73944SOL    HW123729   2.926   2.299   7.256
73944SOL    HW223730   2.936   2.155   7.211
73945SOL     OW23731   0.665   2.686   6.743
73945SOL    HW123732   0.730   2.702   6.674
73945SOL    HW223733   0.590   2.739   6.718
73946SOL     OW23734   9.272   3.983   5.291
73946SOL    HW123735   9.203   4.038   5.255
73946SOL    HW223736   9.316   4.039   5.355
73947SOL     OW23737   8.755   7.143   9.079
73947SOL    HW123738   8.769   7.226   9.033
73947SOL    HW223739   8.698   7.165   9.152
73948SOL     OW23740   5.504  12.982   4.761
73948SOL    HW123741   5.502  13.047   4.832
73948SOL    HW223742   5.426  12.928   4.776
73949SOL     OW23743  10.533   8.361   8.153
73949SOL    HW123744  10.474   8.409   8.211
73949SOL    HW223745  10.599   8.425   8.127
73950SOL     OW23746  12.109   9.212   9.292
73950SOL    HW123747  12.185   9.172   9.250
73950SOL    HW223748  12.077   9.275   9.228
73951SOL     OW23749   2.713   8.535  13.332
73951SOL    HW123750   2.724   8.584  13.250
73951SOL    HW223751   2.803   8.515  13.360
73952SOL     OW23752  13.053   6.075   8.518
73952SOL    HW123753  12.984   6.014   8.543
73952SOL    HW223754  13.014   6.162   8.528
73953SOL     OW23755   5.311   0.364  10.773
73953SOL    HW123756   5.274   0.277  10.762
73953SOL    HW223757   5.234   0.421  10.784
73954SOL     OW23758   2.789  10.699   6.805
73954SOL    HW123759   2.737  10.770   6.768
73954SOL    HW223760   2.827  10.654   6.729
73955SOL     OW23761   5.206   7.709  13.001
73955SOL    HW123762   5.166   7.632  12.960
73955SOL    HW223763   5.155   7.722  13.081
73956SOL     OW23764   4.377   1.479   5.192
73956SOL    HW123765   4.426   1.561   5.183
73956SOL    HW223766   4.442   1.410   5.179
73957SOL     OW23767   2.010  12.977   7.408
73957SOL    HW123768   1.990  12.889   7.440
73957SOL    HW223769   2.054  12.962   7.324
73958SOL     OW23770   6.941   1.892  14.500
73958SOL    HW123771   6.887   1.898  14.579
73958SOL    HW223772   7.030   1.882  14.533
73959SOL     OW23773  14.170   3.592  11.358
73959SOL    HW123774  14.256   3.623  11.330
73959SOL    HW223775  14.127   3.669  11.396
73960SOL     OW23776  13.585   8.238  13.986
73960SOL    HW123777  13.512   8.186  13.953
73960SOL    HW223778  13.565   8.251  14.079
73961SOL     OW23779   2.143  14.258   6.699
73961SOL    HW123780   2.237  14.239   6.706
73961SOL    HW223781   2.116  14.215   6.618
73962SOL     OW23782  11.444  10.856  13.176
73962SOL    HW123783  11.449  10.808  13.093
73962SOL    HW223784  11.397  10.798  13.235
73963SOL     OW23785   9.451   6.084   5.249
73963SOL    HW123786   9.405   6.131   5.180
73963SOL    HW223787   9.393   6.090   5.325
73964SOL     OW23788   4.491  10.288  10.986
73964SOL    HW123789   4.505  10.219  10.921
73964SOL    HW223790   4.461  10.241  11.064
73965SOL     OW23791  10.317   5.641  14.072
73965SOL    HW123792  10.305   5.736  14.083
73965SOL    HW223793  10.352   5.612  14.156
73966SOL     OW23794  14.515   5.534  12.188
73966SOL    HW123795  14.476   5.565  12.270
73966SOL    HW223796  14.457   5.568  12.120
73967SOL     OW23797  13.114  10.797  14.741
73967SOL    HW123798  13.055  10.771  14.812
73967SOL    HW223799  13.136  10.715  14.697
73968SOL     OW23800   2.326   9.464  13.875
73968SOL    HW123801   2.233   9.447  13.864
73968SOL    HW223802   2.342   9.544  13.823
73969SOL     OW23803  10.387   6.782   5.711
73969SOL    HW123804  10.401   6.842   5.638
73969SOL    HW223805  10.300   6.804   5.745
73970SOL     OW23806   4.134   1.634   2.281
73970SOL    HW123807   4.191   1.558   2.290
73970SOL    HW223808   4.166   1.695   2.347
73971SOL     OW23809  14.714   6.580  14.074
73971SOL    HW123810  14.797   6.535  14.091
73971SOL    HW223811  14.670   6.525  14.010
73972SOL     OW23812   0.734   1.665   6.563
73972SOL    HW123813   0.779   1.727   6.621
73972SOL    HW223814   0.673   1.619   6.621
73973SOL     OW23815  11.405   9.301   3.557
73973SOL    HW123816  11.455   9.219   3.562
73973SOL    HW223817  11.439   9.344   3.478
73974SOL     OW23818   0.291   4.266   3.575
73974SOL    HW123819   0.250   4.237   3.493
73974SOL    HW223820   0.325   4.185   3.614
73975SOL     OW23821   1.119   3.019  10.432
73975SOL    HW123822   1.060   2.992  10.502
73975SOL    HW223823   1.207   3.004  10.468
73976SOL     OW23824   3.415   4.261   9.912
73976SOL    HW123825   3.425   4.323   9.839
73976SOL    HW223826   3.419   4.315   9.991
73977SOL     OW23827   2.358   9.451  12.799
73977SOL    HW123828   2.372   9.528  12.743
73977SOL    HW223829   2.446   9.416  12.814
73978SOL     OW23830  14.664   5.963  10.963
73978SOL    HW123831  14.596   6.016  11.003
73978SOL    HW223832  14.680   6.004  10.878
73979SOL     OW23833  13.341   7.232  14.118
73979SOL    HW123834  13.246   7.240  14.112
73979SOL    HW223835  13.365   7.178  14.042
73980SOL     OW23836   6.160  11.343  10.196
73980SOL    HW123837   6.106  11.421  10.202
73980SOL    HW223838   6.126  11.296  10.119
73981SOL     OW23839  12.422  14.751  13.431
73981SOL    HW123840  12.357  14.689  13.399
73981SOL    HW223841  12.391  14.776  13.518
73982SOL     OW23842   4.493   4.299   8.624
73982SOL    HW123843   4.493   4.294   8.528
73982SOL    HW223844   4.565   4.358   8.645
73983SOL     OW23845  10.874  12.404   2.978
73983SOL    HW123846  10.867  12.399   3.073
73983SOL    HW223847  10.919  12.487   2.961
73984SOL     OW23848   0.312  10.282   4.259
73984SOL    HW123849   0.350  10.363   4.226
73984SOL    HW223850   0.218  10.298   4.258
73985SOL     OW23851  12.627  10.359   6.930
73985SOL    HW123852  12.670  10.275   6.947
73985SOL    HW223853  12.665  10.389   6.847
73986SOL     OW23854   6.987   6.299   8.040
73986SOL    HW123855   7.053   6.367   8.055
73986SOL    HW223856   6.968   6.305   7.946
73987SOL     OW23857   0.321   3.998  14.748
73987SOL    HW123858   0.311   4.059  14.675
73987SOL    HW223859   0.281   3.917  14.717
73988SOL     OW23860   2.383  11.184   8.543
73988SOL    HW123861   2.403  11.277   8.531
73988SOL    HW223862   2.308  11.182   8.602
73989SOL     OW23863  13.066   3.155  11.880
73989SOL    HW123864  13.081   3.089  11.811
73989SOL    HW223865  12.972   3.171  11.878
73990SOL     OW23866   3.928   1.469   2.916
73990SOL    HW123867   3.881   1.388   2.896
73990SOL    HW223868   4.003   1.442   2.968
73991SOL     OW23869   6.464  14.586   9.805
73991SOL    HW123870   6.434  14.498   9.826
73991SOL    HW223871   6.392  14.643   9.833
73992SOL     OW23872   4.511   8.305   5.030
73992SOL    HW123873   4.487   8.308   5.122
73992SOL    HW223874   4.433   8.274   4.985
73993SOL     OW23875   7.946   5.362   1.858
73993SOL    HW123876   8.032   5.360   1.899
73993SOL    HW223877   7.900   5.286   1.895
73994SOL     OW23878   4.589   1.867   1.852
73994SOL    HW123879   4.511   1.917   1.875
73994SOL    HW223880   4.646   1.931   1.810
73995SOL     OW23881   3.253   4.705   3.563
73995SOL    HW123882   3.181   4.696   3.626
73995SOL    HW223883   3.224   4.773   3.503
73996SOL     OW23884   0.800  11.216   2.235
73996SOL    HW123885   0.811  11.134   2.186
73996SOL    HW223886   0.850  11.202   2.315
73997SOL     OW23887   5.818   8.698   6.713
73997SOL    HW123888   5.868   8.737   6.641
73997SOL    HW223889   5.751   8.645   6.671
73998SOL     OW23890   6.368  12.493   3.293
73998SOL    HW123891   6.426  12.565   3.317
73998SOL    HW223892   6.282  12.533   3.285
73999SOL     OW23893  14.629   1.360   0.711
73999SOL    HW123894  14.572   1.437   0.706
73999SOL    HW223895  14.579   1.291   0.666
74000SOL     OW23896  12.362  13.714  11.268
74000SOL    HW123897  12.361  13.648  11.198
74000SOL    HW223898  12.298  13.682  11.331
74001SOL     OW23899   9.614   5.682  14.060
74001SOL    HW123900   9.523   5.705  14.076
74001SOL    HW223901   9.615   5.586  14.067
74002SOL     OW23902  14.041   9.519   7.105
74002SOL    HW123903  14.104   9.556   7.167
74002SOL    HW223904  14.096   9.480   7.037
74003SOL     OW23905   4.008   6.432  12.217
74003SOL    HW123906   4.080   6.492  12.198
74003SOL    HW223907   4.050   6.347  12.228
74004SOL     OW23908   1.115   7.650   0.176
74004SOL    HW123909   1.154   7.573   0.135
74004SOL    HW223910   1.162   7.659   0.259
74005SOL     OW23911  12.047   8.447   1.728
74005SOL    HW123912  12.109   8.374   1.735
74005SOL    HW223913  11.993   8.426   1.652
74006SOL     OW23914   3.970   2.561   6.437
74006SOL    HW123915   4.032   2.555   6.364
74006SOL    HW223916   3.997   2.491   6.497
74007SOL     OW23917   1.069   5.204   6.826
74007SOL    HW123918   1.160   5.192   6.797
74007SOL    HW223919   1.060   5.298   6.838
74008SOL     OW23920   4.692   1.232  10.092
74008SOL    HW123921   4.607   1.218  10.134
74008SOL    HW223922   4.670   1.256  10.001
74009SOL     OW23923   8.391   0.254  13.556
74009SOL    HW123924   8.410   0.347  13.546
74009SOL    HW223925   8.296   0.248  13.554
74010SOL     OW23926   1.904   0.831  10.403
74010SOL    HW123927   1.901   0.916  10.448
74010SOL    HW223928   1.821   0.827  10.355
74011SOL     OW23929   6.169   5.089   5.601
74011SOL    HW123930   6.223   5.128   5.669
74011SOL    HW223931   6.220   5.014   5.569
74012SOL     OW23932   7.759   9.568  10.701
74012SOL    HW123933   7.846   9.606  10.693
74012SOL    HW223934   7.736   9.539  10.613
74013SOL     OW23935  10.664   4.798   5.012
74013SOL    HW123936  10.698   4.768   4.928
74013SOL    HW223937  10.683   4.727   5.073
74014SOL     OW23938  10.484  11.984  10.205
74014SOL    HW123939  10.562  12.006  10.155
74014SOL    HW223940  10.518  11.951  10.288
74015SOL     OW23941  11.949   1.204   5.176
74015SOL    HW123942  11.905   1.133   5.222
74015SOL    HW223943  12.033   1.167   5.149
74016SOL     OW23944   8.236  12.684   2.667
74016SOL    HW123945   8.210  12.600   2.706
74016SOL    HW223946   8.166  12.704   2.605
74017SOL     OW23947   6.824   8.637   1.142
74017SOL    HW123948   6.735   8.647   1.176
74017SOL    HW223949   6.874   8.601   1.215
74018SOL     OW23950   0.981   2.892   5.066
74018SOL    HW123951   0.970   2.951   4.992
74018SOL    HW223952   1.036   2.821   5.033
74019SOL     OW23953  11.354   4.777   4.359
74019SOL    HW123954  11.260   4.785   4.340
74019SOL    HW223955  11.367   4.833   4.436
74020SOL     OW23956   3.375   9.023  12.915
74020SOL    HW123957   3.442   9.061  12.858
74020SOL    HW223958   3.423   8.958  12.967
74021SOL     OW23959   0.141   6.657   8.225
74021SOL    HW123960   0.054   6.696   8.217
74021SOL    HW223961   0.171   6.650   8.134
74022SOL     OW23962   3.725  13.691   3.897
74022SOL    HW123963   3.636  13.678   3.864
74022SOL    HW223964   3.773  13.728   3.823
74023SOL     OW23965   9.824   0.353  12.715
74023SOL    HW123966   9.875   0.336  12.795
74023SOL    HW223967   9.801   0.267  12.682
74024SOL     OW23968  10.505   4.907   4.464
74024SOL    HW123969  10.538   4.922   4.375
74024SOL    HW223970  10.514   4.813   4.477
74025SOL     OW23971  10.656   5.515   6.867
74025SOL    HW123972  10.659   5.554   6.780
74025SOL    HW223973  10.726   5.558   6.916
74026SOL     OW23974   3.859   1.863   7.620
74026SOL    HW123975   3.831   1.915   7.545
74026SOL    HW223976   3.779   1.820   7.651
74027SOL     OW23977   7.599  14.518   0.724
74027SOL    HW123978   7.510  14.541   0.750
74027SOL    HW223979   7.596  14.514   0.629
74028SOL     OW23980  13.826   7.385   6.035
74028SOL    HW123981  13.767   7.460   6.050
74028SOL    HW223982  13.770   7.319   5.994
74029SOL     OW23983   0.465   3.556   6.045
74029SOL    HW123984   0.371   3.541   6.034
74029SOL    HW223985   0.507   3.486   5.995
74030SOL     OW23986  14.517   0.566  14.771
74030SOL    HW123987  14.449   0.500  14.780
74030SOL    HW223988  14.578   0.530  14.707
74031SOL     OW23989   5.982   1.259  10.189
74031SOL    HW123990   5.920   1.186  10.182
74031SOL    HW223991   5.931   1.330  10.228
74032SOL     OW23992  14.761  10.557   8.141
74032SOL    HW123993  14.709  10.635   8.124
74032SOL    HW223994  14.696  10.487   8.153
74033SOL     OW23995   3.320   7.493   9.790
74033SOL    HW123996   3.312   7.422   9.854
74033SOL    HW223997   3.266   7.563   9.826
74034SOL     OW23998  12.666   4.139   6.957
74034SOL    HW123999  12.584   4.117   7.002
74034SOL    HW224000  12.733   4.087   7.000
74035SOL     OW24001  11.064   9.108  14.244
74035SOL    HW124002  11.033   9.111  14.334
74035SOL    HW224003  11.080   9.200  14.221
74036SOL     OW24004   3.933   9.153   9.817
74036SOL    HW124005   3.844   9.157   9.781
74036SOL    HW224006   3.990   9.168   9.742
74037SOL     OW24007  13.306   4.729  14.305
74037SOL    HW124008  13.341   4.809  14.265
74037SOL    HW224009  13.220   4.754  14.337
74038SOL     OW24010   2.787   9.247   5.527
74038SOL    HW124011   2.751   9.327   5.567
74038SOL    HW224012   2.870   9.233   5.573
74039SOL     OW24013   5.201  11.429   1.387
74039SOL    HW124014   5.176  11.425   1.294
74039SOL    HW224015   5.256  11.507   1.393
74040SOL     OW24016   9.739   5.881  14.791
74040SOL    HW124017   9.800   5.953  14.774
74040SOL    HW224018   9.769   5.844  14.874
74041SOL     OW24019   8.577  11.383   6.348
74041SOL    HW124020   8.518  11.420   6.282
74041SOL    HW224021   8.580  11.290   6.327
74042SOL     OW24022   5.378   5.670   2.248
74042SOL    HW124023   5.315   5.722   2.197
74042SOL    HW224024   5.395   5.723   2.326
74043SOL     OW24025   4.948   6.304   3.943
74043SOL    HW124026   4.916   6.302   3.854
74043SOL    HW224027   4.994   6.388   3.950
74044SOL     OW24028  13.419  13.145  10.293
74044SOL    HW124029  13.464  13.151  10.209
74044SOL    HW224030  13.386  13.234  10.309
74045SOL     OW24031   0.439   0.607   0.494
74045SOL    HW124032   0.420   0.623   0.586
74045SOL    HW224033   0.520   0.555   0.495
74046SOL     OW24034   0.336   0.578  14.024
74046SOL    HW124035   0.417   0.527  14.026
74046SOL    HW224036   0.294   0.553  13.943
74047SOL     OW24037   3.806   8.555   3.664
74047SOL    HW124038   3.889   8.531   3.703
74047SOL    HW224039   3.796   8.495   3.590
74048SOL     OW24040  14.165   4.402   2.688
74048SOL    HW124041  14.250   4.444   2.679
74048SOL    HW224042  14.184   4.314   2.720
74049SOL     OW24043   2.312   9.324   6.900
74049SOL    HW124044   2.356   9.381   6.962
74049SOL    HW224045   2.383   9.272   6.862
74050SOL     OW24046  13.379   0.681   4.867
74050SOL    HW124047  13.465   0.687   4.826
74050SOL    HW224048  13.338   0.606   4.824
74051SOL     OW24049   1.280  11.507   5.784
74051SOL    HW124050   1.211  11.471   5.840
74051SOL    HW224051   1.243  11.505   5.696
74052SOL     OW24052   8.776   0.384   5.686
74052SOL    HW124053   8.828   0.395   5.765
74052SOL    HW224054   8.697   0.436   5.701
74053SOL     OW24055   9.988   5.356   8.478
74053SOL    HW124056   9.972   5.449   8.496
74053SOL    HW224057   9.919   5.311   8.527
74054SOL     OW24058  10.213  13.590   2.750
74054SOL    HW124059  10.126  13.550   2.751
74054SOL    HW224060  10.226  13.617   2.659
74055SOL     OW24061  12.211   8.547   8.303
74055SOL    HW124062  12.125   8.568   8.267
74055SOL    HW224063  12.192   8.502   8.386
74056SOL     OW24064   0.601   3.686  13.082
74056SOL    HW124065   0.537   3.749  13.116
74056SOL    HW224066   0.562   3.601  13.102
74057SOL     OW24067   5.926   8.142  10.608
74057SOL    HW124068   5.942   8.235  10.592
74057SOL    HW224069   5.865   8.115  10.540
74058SOL     OW24070  14.428   8.843  11.661
74058SOL    HW124071  14.489   8.857  11.733
74058SOL    HW224072  14.402   8.751  11.668
74059SOL     OW24073   6.761  14.285   4.453
74059SOL    HW124074   6.707  14.206   4.453
74059SOL    HW224075   6.698  14.357   4.445
74060SOL     OW24076   4.153   9.197   9.635
74060SOL    HW124077   4.220   9.265   9.639
74060SOL    HW224078   4.196   9.124   9.591
74061SOL     OW24079   4.156   9.529   4.356
74061SOL    HW124080   4.118   9.544   4.442
74061SOL    HW224081   4.082   9.505   4.301
74062SOL     OW24082   0.505   0.335   9.305
74062SOL    HW124083   0.546   0.249   9.298
74062SOL    HW224084   0.579   0.395   9.321
74063SOL     OW24085   9.309   3.084   9.867
74063SOL    HW124086   9.264   3.075   9.783
74063SOL    HW224087   9.316   3.179   9.880
74064SOL     OW24088   3.663  11.599   1.487
74064SOL    HW124089   3.691  11.576   1.399
74064SOL    HW224090   3.569  11.616   1.479
74065SOL     OW24091   3.449   4.661  10.511
74065SOL    HW124092   3.498   4.649  10.592
74065SOL    HW224093   3.359   4.676  10.540
74066SOL     OW24094  10.264   1.160   4.368
74066SOL    HW124095  10.325   1.232   4.387
74066SOL    HW224096  10.317   1.096   4.321
74067SOL     OW24097   1.615  10.893   8.224
74067SOL    HW124098   1.578  10.822   8.172
74067SOL    HW224099   1.567  10.971   8.196
74068SOL     OW24100   5.518   5.358  12.169
74068SOL    HW124101   5.543   5.445  12.136
74068SOL    HW224102   5.464   5.377  12.245
74069SOL     OW24103  13.805   5.231  10.804
74069SOL    HW124104  13.766   5.273  10.881
74069SOL    HW224105  13.794   5.137  10.819
74070SOL     OW24106   5.345   3.663   1.515
74070SOL    HW124107   5.396   3.594   1.473
74070SOL    HW224108   5.409   3.730   1.539
74071SOL     OW24109  10.208   4.620   2.741
74071SOL    HW124110  10.237   4.581   2.659
74071SOL    HW224111  10.224   4.714   2.730
74072SOL     OW24112  11.618  14.862  11.491
74072SOL    HW124113  11.635   0.038  11.567
74072SOL    HW224114  11.648   0.035  11.417
74073SOL     OW24115   3.344   5.182   6.598
74073SOL    HW124116   3.346   5.174   6.503
74073SOL    HW224117   3.427   5.145   6.627
74074SOL     OW24118  13.594   5.664  14.587
74074SOL    HW124119  13.513   5.615  14.597
74074SOL    HW224120  13.582   5.742  14.642
74075SOL     OW24121   5.696   0.655  10.980
74075SOL    HW124122   5.614   0.606  10.972
74075SOL    HW224123   5.671   0.746  10.965
74076SOL     OW24124   1.345   1.475   8.951
74076SOL    HW124125   1.294   1.493   9.030
74076SOL    HW224126   1.297   1.406   8.906
74077SOL     OW24127   4.677   6.144   1.088
74077SOL    HW124128   4.692   6.062   1.041
74077SOL    HW224129   4.646   6.205   1.021
74078SOL     OW24130   9.011   7.611  10.084
74078SOL    HW124131   9.073   7.573  10.146
74078SOL    HW224132   9.048   7.696  10.061
74079SOL     OW24133   8.304   0.989   2.203
74079SOL    HW124134   8.391   0.984   2.245
74079SOL    HW224135   8.301   1.077   2.166
74080SOL     OW24136   7.283   7.803   2.570
74080SOL    HW124137   7.318   7.883   2.609
74080SOL    HW224138   7.233   7.761   2.641
74081SOL     OW24139   6.629  12.993   4.528
74081SOL    HW124140   6.683  13.072   4.524
74081SOL    HW224141   6.634  12.956   4.440
74082SOL     OW24142   0.130   3.176  11.902
74082SOL    HW124143   0.151   3.198  11.993
74082SOL    HW224144   0.214   3.178  11.857
74083SOL     OW24145   4.819   6.821   4.679
74083SOL    HW124146   4.905   6.814   4.719
74083SOL    HW224147   4.761   6.848   4.751
74084SOL     OW24148   9.949   2.151   5.576
74084SOL    HW124149   9.900   2.224   5.539
74084SOL    HW224150   9.934   2.078   5.515
74085SOL     OW24151   3.653   5.102   4.594
74085SOL    HW124152   3.678   5.160   4.521
74085SOL    HW224153   3.689   5.017   4.570
74086SOL     OW24154  14.196  12.225  10.761
74086SOL    HW124155  14.257  12.277  10.708
74086SOL    HW224156  14.251  12.159  10.803
74087SOL     OW24157   9.932  12.200  12.254
74087SOL    HW124158   9.891  12.180  12.169
74087SOL    HW224159   9.994  12.270  12.234
74088SOL     OW24160  12.787   7.967   4.235
74088SOL    HW124161  12.774   8.061   4.247
74088SOL    HW224162  12.830   7.938   4.316
74089SOL     OW24163   7.915   2.631   7.750
74089SOL    HW124164   7.987   2.615   7.810
74089SOL    HW224165   7.917   2.726   7.736
74090SOL     OW24166   3.754   6.028   4.405
74090SOL    HW124167   3.693   6.060   4.339
74090SOL    HW224168   3.801   6.107   4.433
74091SOL     OW24169   8.073  10.961  13.288
74091SOL    HW124170   7.981  10.987  13.282
74091SOL    HW224171   8.089  10.913  13.206
74092SOL     OW24172   9.499  11.822   7.220
74092SOL    HW124173   9.489  11.843   7.127
74092SOL    HW224174   9.513  11.907   7.262
74093SOL     OW24175  12.566   4.133   5.248
74093SOL    HW124176  12.621   4.106   5.321
74093SOL    HW224177  12.609   4.211   5.213
74094SOL     OW24178  11.888   8.735  14.696
74094SOL    HW124179  11.904   8.780  14.779
74094SOL    HW224180  11.948   8.660  14.697
74095SOL     OW24181  14.512   5.624  13.883
74095SOL    HW124182  14.426   5.666  13.889
74095SOL    HW224183  14.505   5.568  13.805
74096SOL     OW24184   4.689   4.122  13.593
74096SOL    HW124185   4.653   4.137  13.505
74096SOL    HW224186   4.773   4.080  13.578
74097SOL     OW24187  11.633  14.028   4.210
74097SOL    HW124188  11.643  13.942   4.250
74097SOL    HW224189  11.692  14.027   4.135
74098SOL     OW24190  10.042   2.486   3.336
74098SOL    HW124191  10.040   2.578   3.311
74098SOL    HW224192   9.967   2.475   3.394
74099SOL     OW24193   0.514   3.931   6.617
74099SOL    HW124194   0.437   3.987   6.627
74099SOL    HW224195   0.481   3.842   6.632
74100SOL     OW24196   3.969  14.331   7.975
74100SOL    HW124197   4.005  14.420   7.977
74100SOL    HW224198   4.043  14.275   8.002
74101SOL     OW24199   8.378  10.645   9.548
74101SOL    HW124200   8.376  10.568   9.491
74101SOL    HW224201   8.436  10.620   9.620
74102SOL     OW24202   0.003   1.399   1.921
74102SOL    HW124203  14.844   1.484   1.900
74102SOL    HW224204   0.031   1.363   1.837
74103SOL     OW24205   1.882   7.699   4.719
74103SOL    HW124206   1.868   7.790   4.694
74103SOL    HW224207   1.833   7.649   4.654
74104SOL     OW24208  13.252   4.624   4.125
74104SOL    HW124209  13.255   4.561   4.197
74104SOL    HW224210  13.253   4.570   4.046
74105SOL     OW24211  10.276   6.770   3.553
74105SOL    HW124212  10.278   6.771   3.648
74105SOL    HW224213  10.199   6.717   3.531
74106SOL     OW24214   2.298  11.144   3.618
74106SOL    HW124215   2.297  11.190   3.702
74106SOL    HW224216   2.385  11.162   3.582
74107SOL     OW24217   6.960  10.790   2.844
74107SOL    HW124218   6.883  10.733   2.847
74107SOL    HW224219   6.950  10.848   2.919
74108SOL     OW24220  11.851   7.869  13.104
74108SOL    HW124221  11.922   7.806  13.088
74108SOL    HW224222  11.828   7.901  13.017
74109SOL     OW24223   3.546   2.208   2.425
74109SOL    HW124224   3.589   2.240   2.346
74109SOL    HW224225   3.563   2.276   2.491
74110SOL     OW24226   8.844   0.781  12.737
74110SOL    HW124227   8.909   0.760  12.671
74110SOL    HW224228   8.894   0.800  12.816
74111SOL     OW24229   2.195  12.895   0.970
74111SOL    HW124230   2.129  12.950   1.013
74111SOL    HW224231   2.245  12.857   1.042
74112SOL     OW24232   9.645   6.187  10.265
74112SOL    HW124233   9.578   6.200  10.331
74112SOL    HW224234   9.728   6.192  10.313
74113SOL     OW24235   9.140   9.008  12.186
74113SOL    HW124236   9.203   9.080  12.181
74113SOL    HW224237   9.138   8.972  12.097
74114SOL     OW24238   7.163  12.337   5.609
74114SOL    HW124239   7.091  12.391   5.642
74114SOL    HW224240   7.216  12.317   5.686
74115SOL     OW24241   1.959  11.488   6.158
74115SOL    HW124242   1.955  11.559   6.223
74115SOL    HW224243   1.891  11.427   6.186
74116SOL     OW24244   7.610  14.520   7.921
74116SOL    HW124245   7.645  14.596   7.968
74116SOL    HW224246   7.670  14.510   7.847
74117SOL     OW24247   0.807   6.737  14.604
74117SOL    HW124248   0.726   6.699  14.639
74117SOL    HW224249   0.790   6.750  14.511
74118SOL     OW24250   3.686  10.836  12.890
74118SOL    HW124251   3.597  10.809  12.914
74118SOL    HW224252   3.717  10.887  12.965
74119SOL     OW24253   7.345  13.238   9.298
74119SOL    HW124254   7.321  13.149   9.275
74119SOL    HW224255   7.420  13.258   9.243
74120SOL     OW24256  10.051  10.835   5.637
74120SOL    HW124257   9.981  10.895   5.611
74120SOL    HW224258  10.020  10.795   5.718
74121SOL     OW24259   9.786   2.597   6.404
74121SOL    HW124260   9.852   2.598   6.334
74121SOL    HW224261   9.786   2.506   6.435
74122SOL     OW24262   6.217  10.916  13.007
74122SOL    HW124263   6.159  10.846  12.978
74122SOL    HW224264   6.243  10.961  12.926
74123SOL     OW24265  13.842  13.990  12.682
74123SOL    HW124266  13.825  13.970  12.774
74123SOL    HW224267  13.847  13.904  12.640
74124SOL     OW24268   0.685  11.192   2.676
74124SOL    HW124269   0.590  11.202   2.677
74124SOL    HW224270   0.700  11.100   2.699
74125SOL     OW24271   8.422   9.729   5.011
74125SOL    HW124272   8.500   9.688   4.974
74125SOL    HW224273   8.363   9.740   4.937
74126SOL     OW24274  13.321  10.010  11.677
74126SOL    HW124275  13.234  10.052  11.681
74126SOL    HW224276  13.337   9.981  11.767
74127SOL     OW24277   1.662   7.289  10.569
74127SOL    HW124278   1.693   7.233  10.640
74127SOL    HW224279   1.582   7.247  10.538
74128SOL     OW24280   0.441   7.066   4.170
74128SOL    HW124281   0.351   7.061   4.136
74128SOL    HW224282   0.459   6.978   4.204
74129SOL     OW24283   3.376  10.885   6.537
74129SOL    HW124284   3.442  10.895   6.606
74129SOL    HW224285   3.414  10.929   6.461
74130SOL     OW24286  10.750  10.335  11.389
74130SOL    HW124287  10.716  10.345  11.300
74130SOL    HW224288  10.721  10.248  11.416
74131SOL     OW24289  13.283   9.224   3.975
74131SOL    HW124290  13.338   9.211   4.052
74131SOL    HW224291  13.345   9.236   3.903
74132SOL     OW24292   9.294   9.939   5.349
74132SOL    HW124293   9.291   9.918   5.256
74132SOL    HW224294   9.327   9.859   5.391
74133SOL     OW24295   0.672  12.000   2.983
74133SOL    HW124296   0.755  12.043   2.961
74133SOL    HW224297   0.695  11.908   2.996
74134SOL     OW24298  12.535   7.636  14.209
74134SOL    HW124299  12.507   7.581  14.282
74134SOL    HW224300  12.522   7.725  14.240
74135SOL     OW24301   7.208   1.372   5.438
74135SOL    HW124302   7.207   1.300   5.375
74135SOL    HW224303   7.198   1.329   5.524
74136SOL     OW24304  14.659   7.878  13.441
74136SOL    HW124305  14.697   7.815  13.502
74136SOL    HW224306  14.646   7.828  13.360
74137SOL     OW24307  12.910  13.592   0.063
74137SOL    HW124308  12.958  13.613   0.143
74137SOL    HW224309  12.881  13.677   0.030
74138SOL     OW24310   8.955   2.028  11.377
74138SOL    HW124311   8.904   2.109  11.390
74138SOL    HW224312   8.897   1.958  11.409
74139SOL     OW24313   1.797   7.802  10.878
74139SOL    HW124314   1.853   7.729  10.904
74139SOL    HW224315   1.708   7.769  10.889
74140SOL     OW24316  14.723   4.745   2.758
74140SOL    HW124317  14.648   4.801   2.736
74140SOL    HW224318  14.695   4.698   2.836
74141SOL     OW24319   8.533   0.438   9.930
74141SOL    HW124320   8.624   0.467   9.933
74141SOL    HW224321   8.537   0.343   9.942
74142SOL     OW24322   5.663  13.791   3.727
74142SOL    HW124323   5.685  13.701   3.752
74142SOL    HW224324   5.645  13.785   3.633
74143SOL     OW24325   0.513   4.239  10.961
74143SOL    HW124326   0.492   4.331  10.968
74143SOL    HW224327   0.429   4.195  10.954
74144SOL     OW24328  14.550   4.237   5.999
74144SOL    HW124329  14.498   4.315   5.982
74144SOL    HW224330  14.487   4.173   6.033
74145SOL     OW24331  12.098   8.654  10.030
74145SOL    HW124332  12.004   8.650  10.045
74145SOL    HW224333  12.123   8.565  10.008
74146SOL     OW24334  14.260   2.843  10.088
74146SOL    HW124335  14.219   2.920  10.127
74146SOL    HW224336  14.325   2.878  10.027
74147SOL     OW24337  13.845   1.732  11.882
74147SOL    HW124338  13.782   1.741  11.953
74147SOL    HW224339  13.876   1.642  11.888
74148SOL     OW24340   7.116   9.811   8.575
74148SOL    HW124341   7.070   9.727   8.574
74148SOL    HW224342   7.165   9.810   8.657
74149SOL     OW24343   8.613   0.827   3.107
74149SOL    HW124344   8.675   0.864   3.169
74149SOL    HW224345   8.665   0.767   3.054
74150SOL     OW24346   7.325  13.498  13.505
74150SOL    HW124347   7.319  13.412  13.546
74150SOL    HW224348   7.271  13.555  13.559
74151SOL     OW24349   5.839   9.658  13.301
74151SOL    HW124350   5.884   9.659  13.217
74151SOL    HW224351   5.748   9.640  13.280
74152SOL     OW24352   1.626  12.075   0.392
74152SOL    HW124353   1.636  12.043   0.482
74152SOL    HW224354   1.532  12.069   0.375
74153SOL     OW24355   1.919   8.454  10.298
74153SOL    HW124356   1.943   8.501  10.377
74153SOL    HW224357   1.980   8.485  10.231
74154SOL     OW24358  10.112  11.300   4.816
74154SOL    HW124359  10.103  11.205   4.807
74154SOL    HW224360  10.176  11.312   4.886
74155SOL     OW24361  10.690   0.641  11.324
74155SOL    HW124362  10.624   0.665  11.390
74155SOL    HW224363  10.727   0.559  11.357
74156SOL     OW24364   3.900   3.271   1.746
74156SOL    HW124365   3.873   3.346   1.693
74156SOL    HW224366   3.818   3.224   1.765
74157SOL     OW24367   8.001  14.766   4.940
74157SOL    HW124368   7.946  14.824   4.888
74157SOL    HW224369   8.027  14.696   4.879
74158SOL     OW24370   2.973  11.423   5.669
74158SOL    HW124371   2.888  11.422   5.714
74158SOL    HW224372   2.988  11.514   5.646
74159SOL     OW24373   8.818   8.533   0.000
74159SOL    HW124374   8.817   8.458  14.822
74159SOL    HW224375   8.783   8.501   0.083
74160SOL     OW24376   2.512   0.964   7.537
74160SOL    HW124377   2.465   0.955   7.454
74160SOL    HW224378   2.587   1.020   7.516
74161SOL     OW24379   7.118   6.269   5.716
74161SOL    HW124380   7.181   6.216   5.667
74161SOL    HW224381   7.143   6.258   5.808
74162SOL     OW24382   8.653   9.696   0.911
74162SOL    HW124383   8.586   9.732   0.970
74162SOL    HW224384   8.662   9.761   0.842
74163SOL     OW24385   0.990   0.133   5.575
74163SOL    HW124386   1.080   0.105   5.593
74163SOL    HW224387   0.956   0.158   5.661
74164SOL     OW24388  10.173   8.625   5.985
74164SOL    HW124389  10.120   8.547   5.973
74164SOL    HW224390  10.206   8.618   6.075
74165SOL     OW24391   4.159   7.269   5.131
74165SOL    HW124392   4.177   7.316   5.049
74165SOL    HW224393   4.198   7.182   5.118
74166SOL     OW24394   3.637   1.227   4.947
74166SOL    HW124395   3.597   1.204   5.031
74166SOL    HW224396   3.684   1.147   4.921
74167SOL     OW24397   2.663   3.847   1.033
74167SOL    HW124398   2.708   3.900   0.966
74167SOL    HW224399   2.699   3.879   1.116
74168SOL     OW24400   0.834   7.316  12.979
74168SOL    HW124401   0.888   7.237  12.979
74168SOL    HW224402   0.849   7.354  12.892
74169SOL     OW24403  14.472  11.305   2.752
74169SOL    HW124404  14.521  11.274   2.828
74169SOL    HW224405  14.473  11.400   2.759
74170SOL     OW24406   2.164   1.934   8.121
74170SOL    HW124407   2.125   1.851   8.092
74170SOL    HW224408   2.206   1.969   8.043
74171SOL     OW24409   7.816  10.378  13.882
74171SOL    HW124410   7.850  10.297  13.920
74171SOL    HW224411   7.735  10.353  13.838
74172SOL     OW24412   4.692  10.728   0.979
74172SOL    HW124413   4.695  10.689   0.891
74172SOL    HW224414   4.781  10.717   1.013
74173SOL     OW24415   3.474  13.905  14.530
74173SOL    HW124416   3.552  13.861  14.495
74173SOL    HW224417   3.503  13.995  14.543
74174SOL     OW24418   7.454  11.964  10.631
74174SOL    HW124419   7.477  11.877  10.665
74174SOL    HW224420   7.535  11.999  10.597
74175SOL     OW24421  11.167   7.282   4.598
74175SOL    HW124422  11.216   7.289   4.516
74175SOL    HW224423  11.081   7.250   4.571
74176SOL     OW24424   8.546   0.654   4.479
74176SOL    HW124425   8.577   0.597   4.548
74176SOL    HW224426   8.472   0.701   4.518
74177SOL     OW24427  11.676   7.649   0.049
74177SOL    HW124428  11.695   7.558   0.024
74177SOL    HW224429  11.687   7.650   0.144
74178SOL     OW24430  14.416   8.928  11.036
74178SOL    HW124431  14.336   8.878  11.019
74178SOL    HW224432  14.385   9.016  11.058
74179SOL     OW24433  14.598   9.149   9.916
74179SOL    HW124434  14.635   9.226   9.959
74179SOL    HW224435  14.506   9.151   9.940
74180SOL     OW24436   7.145   9.603   0.013
74180SOL    HW124437   7.084   9.669  14.859
74180SOL    HW224438   7.156   9.541  14.821
74181SOL     OW24439   2.327   5.511  10.298
74181SOL    HW124440   2.401   5.507  10.237
74181SOL    HW224441   2.263   5.569  10.255
74182SOL     OW24442   5.524  10.370   9.901
74182SOL    HW124443   5.548  10.396   9.989
74182SOL    HW224444   5.602  10.327   9.866
74183SOL     OW24445   3.771   2.553  13.189
74183SOL    HW124446   3.848   2.599  13.223
74183SOL    HW224447   3.734   2.509  13.265
74184SOL     OW24448   7.612  13.815  12.694
74184SOL    HW124449   7.663  13.883  12.738
74184SOL    HW224450   7.528  13.857  12.674
74185SOL     OW24451   6.127  10.213  12.408
74185SOL    HW124452   6.047  10.215  12.356
74185SOL    HW224453   6.162  10.124  12.396
74186SOL     OW24454  12.380   5.207   4.859
74186SOL    HW124455  12.308   5.266   4.879
74186SOL    HW224456  12.433   5.204   4.939
74187SOL     OW24457  13.165   2.688   4.772
74187SOL    HW124458  13.162   2.780   4.798
74187SOL    HW224459  13.124   2.641   4.844
74188SOL     OW24460  14.159   3.376   3.776
74188SOL    HW124461  14.246   3.415   3.767
74188SOL    HW224462  14.099   3.446   3.750
74189SOL     OW24463  10.660  11.471   8.196
74189SOL    HW124464  10.623  11.385   8.176
74189SOL    HW224465  10.612  11.532   8.140
74190SOL     OW24466  10.733   7.482   6.740
74190SOL    HW124467  10.712   7.389   6.733
74190SOL    HW224468  10.681   7.514   6.813
74191SOL     OW24469   5.592   9.612   7.185
74191SOL    HW124470   5.678   9.578   7.210
74191SOL    HW224471   5.534   9.536   7.191
74192SOL     OW24472  11.632   3.866   3.947
74192SOL    HW124473  11.588   3.806   3.887
74192SOL    HW224474  11.620   3.826   4.033
74193SOL     OW24475  10.062   7.085  14.588
74193SOL    HW124476   9.998   7.048  14.527
74193SOL    HW224477  10.026   7.171  14.611
74194SOL     OW24478  13.358   6.084  12.100
74194SOL    HW124479  13.301   6.116  12.030
74194SOL    HW224480  13.309   6.101  12.180
74195SOL     OW24481   3.035   6.978   5.713
74195SOL    HW124482   3.109   6.929   5.677
74195SOL    HW224483   3.074   7.038   5.776
74196SOL     OW24484  11.170   5.870  11.554
74196SOL    HW124485  11.126   5.797  11.597
74196SOL    HW224486  11.129   5.948  11.590
74197SOL     OW24487  10.166  14.164   3.995
74197SOL    HW124488  10.261  14.171   4.009
74197SOL    HW224489  10.136  14.255   3.990
74198SOL     OW24490   7.732   4.767   7.154
74198SOL    HW124491   7.696   4.815   7.080
74198SOL    HW224492   7.655   4.734   7.201
74199SOL     OW24493  12.402   9.563   1.939
74199SOL    HW124494  12.342   9.574   2.012
74199SOL    HW224495  12.436   9.651   1.922
74200SOL     OW24496   2.828   8.465   2.871
74200SOL    HW124497   2.777   8.541   2.843
74200SOL    HW224498   2.855   8.423   2.790
74201SOL     OW24499   3.878   0.067  12.962
74201SOL    HW124500   3.840   0.149  12.993
74201SOL    HW224501   3.897   0.082  12.870
74202SOL     OW24502   6.829  10.182   2.317
74202SOL    HW124503   6.876  10.255   2.357
74202SOL    HW224504   6.736  10.205   2.328
74203SOL     OW24505  12.739  10.647   6.747
74203SOL    HW124506  12.797  10.696   6.806
74203SOL    HW224507  12.733  10.703   6.669
74204SOL     OW24508   4.800   9.752  14.326
74204SOL    HW124509   4.874   9.698  14.351
74204SOL    HW224510   4.781   9.727  14.236
74205SOL     OW24511  12.531   1.247  11.942
74205SOL    HW124512  12.470   1.199  11.997
74205SOL    HW224513  12.512   1.217  11.853
74206SOL     OW24514  13.657  12.473   6.817
74206SOL    HW124515  13.617  12.412   6.756
74206SOL    HW224516  13.728  12.514   6.768
74207SOL     OW24517   6.737  11.132   4.219
74207SOL    HW124518   6.751  11.164   4.308
74207SOL    HW224519   6.825  11.124   4.182
74208SOL     OW24520   3.394   6.031  10.457
74208SOL    HW124521   3.454   6.091  10.412
74208SOL    HW224522   3.309   6.074  10.453
74209SOL     OW24523   9.530   3.130  13.608
74209SOL    HW124524   9.571   3.124  13.694
74209SOL    HW224525   9.569   3.058  13.558
74210SOL     OW24526   1.045   8.121  12.033
74210SOL    HW124527   0.952   8.117  12.055
74210SOL    HW224528   1.047   8.152  11.943
74211SOL     OW24529   0.296  10.796   8.357
74211SOL    HW124530   0.218  10.740   8.352
74211SOL    HW224531   0.322  10.793   8.449
74212SOL     OW24532   5.205  10.433   6.316
74212SOL    HW124533   5.166  10.436   6.229
74212SOL    HW224534   5.245  10.519   6.328
74213SOL     OW24535   3.579  14.855   5.280
74213SOL    HW124536   3.652  14.844   5.219
74213SOL    HW224537   3.513   0.024   5.230
74214SOL     OW24538   4.348  14.121   5.646
74214SOL    HW124539   4.373  14.187   5.710
74214SOL    HW224540   4.431  14.089   5.611
74215SOL     OW24541   1.807   5.748   7.495
74215SOL    HW124542   1.822   5.729   7.402
74215SOL    HW224543   1.724   5.705   7.515
74216SOL     OW24544   3.854   9.442   2.090
74216SOL    HW124545   3.872   9.375   2.156
74216SOL    HW224546   3.900   9.520   2.122
74217SOL     OW24547   7.861   0.357  11.591
74217SOL    HW124548   7.910   0.432  11.624
74217SOL    HW224549   7.789   0.396  11.542
74218SOL     OW24550   2.962  10.568   6.647
74218SOL    HW124551   2.941  10.499   6.584
74218SOL    HW224552   3.044  10.541   6.687
74219SOL     OW24553   4.816  12.604   7.049
74219SOL    HW124554   4.854  12.671   6.994
74219SOL    HW224555   4.837  12.521   7.006
74220SOL     OW24556   9.441  10.384   9.986
74220SOL    HW124557   9.434  10.454  10.050
74220SOL    HW224558   9.356  10.339   9.990
74221SOL     OW24559  12.473   1.814  13.734
74221SOL    HW124560  12.485   1.793  13.827
74221SOL    HW224561  12.536   1.884  13.717
74222SOL     OW24562  13.985  10.944   4.885
74222SOL    HW124563  13.910  10.914   4.936
74222SOL    HW224564  14.061  10.910   4.932
74223SOL     OW24565   0.372   2.498   8.925
74223SOL    HW124566   0.362   2.514   8.831
74223SOL    HW224567   0.367   2.402   8.933
74224SOL     OW24568  13.374   8.865   9.113
74224SOL    HW124569  13.404   8.775   9.130
74224SOL    HW224570  13.415   8.917   9.183
74225SOL     OW24571  10.424   8.749  13.747
74225SOL    HW124572  10.455   8.791  13.667
74225SOL    HW224573  10.367   8.814  13.788
74226SOL     OW24574  12.716  11.143  14.555
74226SOL    HW124575  12.783  11.202  14.588
74226SOL    HW224576  12.721  11.066  14.612
74227SOL     OW24577   7.824  12.183  14.583
74227SOL    HW124578   7.740  12.194  14.537
74227SOL    HW224579   7.823  12.252  14.649
74228SOL     OW24580   1.362  10.524   7.842
74228SOL    HW124581   1.425  10.596   7.832
74228SOL    HW224582   1.340  10.500   7.752
74229SOL     OW24583   4.949  10.254   0.603
74229SOL    HW124584   4.985  10.169   0.628
74229SOL    HW224585   4.927  10.296   0.687
74230SOL     OW24586   2.292   6.101  13.340
74230SOL    HW124587   2.280   6.039  13.269
74230SOL    HW224588   2.352   6.167  13.305
74231SOL     OW24589  10.244   5.550  11.320
74231SOL    HW124590  10.272   5.480  11.262
74231SOL    HW224591  10.311   5.618  11.309
74232SOL     OW24592   1.934   9.423   1.084
74232SOL    HW124593   1.981   9.479   1.021
74232SOL    HW224594   1.952   9.334   1.055
74233SOL     OW24595   0.528   2.641   0.737
74233SOL    HW124596   0.558   2.700   0.669
74233SOL    HW224597   0.606   2.622   0.789
74234SOL     OW24598   9.908   4.091  11.150
74234SOL    HW124599   9.881   4.081  11.242
74234SOL    HW224600   9.980   4.029  11.140
74235SOL     OW24601   4.982   6.269  11.444
74235SOL    HW124602   4.918   6.335  11.419
74235SOL    HW224603   5.050   6.274  11.378
74236SOL     OW24604   5.904  12.928   3.658
74236SOL    HW124605   5.816  12.897   3.636
74236SOL    HW224606   5.904  13.020   3.632
74237SOL     OW24607  10.209   5.028   7.531
74237SOL    HW124608  10.301   5.050   7.547
74237SOL    HW224609  10.202   5.023   7.436
74238SOL     OW24610   4.535  14.021   5.492
74238SOL    HW124611   4.623  14.056   5.508
74238SOL    HW224612   4.548  13.927   5.479
74239SOL     OW24613   8.447   5.347   8.330
74239SOL    HW124614   8.530   5.300   8.323
74239SOL    HW224615   8.412   5.322   8.416
74240SOL     OW24616   6.774   1.913  14.741
74240SOL    HW124617   6.706   1.977  14.763
74240SOL    HW224618   6.726   1.833  14.722
74241SOL     OW24619   2.415  13.090   5.811
74241SOL    HW124620   2.381  13.001   5.798
74241SOL    HW224621   2.455  13.087   5.898
74242SOL     OW24622   6.875   7.802  10.382
74242SOL    HW124623   6.840   7.837  10.300
74242SOL    HW224624   6.839   7.860  10.450
74243SOL     OW24625   6.837   6.620   1.317
74243SOL    HW124626   6.847   6.651   1.227
74243SOL    HW224627   6.762   6.561   1.314
74244SOL     OW24628  11.222   9.424   4.856
74244SOL    HW124629  11.176   9.388   4.932
74244SOL    HW224630  11.213   9.519   4.865
74245SOL     OW24631   2.173   3.191   1.294
74245SOL    HW124632   2.239   3.212   1.228
74245SOL    HW224633   2.162   3.273   1.343
74246SOL     OW24634   8.640  14.343   9.788
74246SOL    HW124635   8.636  14.435   9.814
74246SOL    HW224636   8.659  14.346   9.694
74247SOL     OW24637   2.519   2.854  11.693
74247SOL    HW124638   2.481   2.911  11.759
74247SOL    HW224639   2.598   2.899  11.664
74248SOL     OW24640   9.779  10.942   0.053
74248SOL    HW124641   9.720  10.887   0.001
74248SOL    HW224642   9.729  10.965   0.131
74249SOL     OW24643   8.050   2.565   9.065
74249SOL    HW124644   8.143   2.547   9.073
74249SOL    HW224645   8.045   2.652   9.025
74250SOL     OW24646  14.260   0.180  12.610
74250SOL    HW124647  14.314   0.253  12.641
74250SOL    HW224648  14.292   0.162  12.521
74251SOL     OW24649   1.291   9.669   1.917
74251SOL    HW124650   1.249   9.708   1.840
74251SOL    HW224651   1.255   9.580   1.921
74252SOL     OW24652   4.708  14.294   4.403
74252SOL    HW124653   4.627  14.341   4.381
74252SOL    HW224654   4.685  14.241   4.479
74253SOL     OW24655   3.873   0.992   3.059
74253SOL    HW124656   3.968   1.005   3.068
74253SOL    HW224657   3.863   0.950   2.973
74254SOL     OW24658   5.619  10.018   4.117
74254SOL    HW124659   5.648   9.928   4.129
74254SOL    HW224660   5.527  10.010   4.092
74255SOL     OW24661   8.934  13.178   7.163
74255SOL    HW124662   8.923  13.112   7.094
74255SOL    HW224663   9.017  13.156   7.204
74256SOL     OW24664   0.580   8.720  12.734
74256SOL    HW124665   0.598   8.756  12.647
74256SOL    HW224666   0.664   8.724  12.779
74257SOL     OW24667   7.966   9.908   3.474
74257SOL    HW124668   7.969   9.871   3.387
74257SOL    HW224669   8.014   9.846   3.529
74258SOL     OW24670  12.274   1.073   0.165
74258SOL    HW124671  12.249   1.067   0.257
74258SOL    HW224672  12.260   1.165   0.142
74259SOL     OW24673  14.718   3.771   0.073
74259SOL    HW124674  14.692   3.770   0.165
74259SOL    HW224675  14.811   3.792   0.075
74260SOL     OW24676   7.981   3.024  12.085
74260SOL    HW124677   8.052   3.044  12.024
74260SOL    HW224678   7.914   2.981  12.032
74261SOL     OW24679   3.172   4.220   8.295
74261SOL    HW124680   3.200   4.129   8.294
74261SOL    HW224681   3.079   4.217   8.271
74262SOL     OW24682  13.839  12.026   8.975
74262SOL    HW124683  13.810  11.947   9.020
74262SOL    HW224684  13.763  12.053   8.922
74263SOL     OW24685   2.275   0.115   2.844
74263SOL    HW124686   2.326   0.035   2.859
74263SOL    HW224687   2.200   0.086   2.793
74264SOL     OW24688   5.651   9.029   1.080
74264SOL    HW124689   5.735   9.058   1.045
74264SOL    HW224690   5.607   8.987   1.007
74265SOL     OW24691  10.346  13.652   1.840
74265SOL    HW124692  10.370  13.729   1.789
74265SOL    HW224693  10.324  13.687   1.927
74266SOL     OW24694   4.731  11.358   5.126
74266SOL    HW124695   4.784  11.311   5.061
74266SOL    HW224696   4.642  11.355   5.090
74267SOL     OW24697  14.256   3.553   5.135
74267SOL    HW124698  14.208   3.502   5.069
74267SOL    HW224699  14.217   3.640   5.132
74268SOL     OW24700   5.297  13.983  13.660
74268SOL    HW124701   5.368  13.984  13.725
74268SOL    HW224702   5.277  13.890  13.649
74269SOL     OW24703   6.929   3.622   0.899
74269SOL    HW124704   6.951   3.690   0.836
74269SOL    HW224705   6.933   3.540   0.849
74270SOL     OW24706  10.628   1.315   7.027
74270SOL    HW124707  10.574   1.382   6.985
74270SOL    HW224708  10.580   1.234   7.014
74271SOL     OW24709   2.914   4.994   5.902
74271SOL    HW124710   2.991   5.050   5.902
74271SOL    HW224711   2.840   5.054   5.891
74272SOL     OW24712  11.283   7.472  11.940
74272SOL    HW124713  11.363   7.498  11.894
74272SOL    HW224714  11.238   7.554  11.957
74273SOL     OW24715   9.694   5.713  12.832
74273SOL    HW124716   9.751   5.783  12.863
74273SOL    HW224717   9.638   5.754  12.766
74274SOL     OW24718   8.018   4.800   1.793
74274SOL    HW124719   7.997   4.717   1.837
74274SOL    HW224720   8.037   4.775   1.703
74275SOL     OW24721  11.915   9.773   9.259
74275SOL    HW124722  11.886   9.803   9.345
74275SOL    HW224723  11.880   9.837   9.197
74276SOL     OW24724   9.966  11.122  10.804
74276SOL    HW124725  10.056  11.130  10.834
74276SOL    HW224726   9.940  11.212  10.783
74277SOL     OW24727   3.107  14.467  13.751
74277SOL    HW124728   3.127  14.388  13.801
74277SOL    HW224729   3.142  14.539  13.804
74278SOL     OW24730  12.296   7.922  10.069
74278SOL    HW124731  12.353   7.901   9.995
74278SOL    HW224732  12.258   7.838  10.094
74279SOL     OW24733   0.391   7.342   5.615
74279SOL    HW124734   0.408   7.435   5.624
74279SOL    HW224735   0.320   7.324   5.676
74280SOL     OW24736  11.029  10.527   3.117
74280SOL    HW124737  10.970  10.522   3.042
74280SOL    HW224738  10.971  10.543   3.192
74281SOL     OW24739   3.919   8.591   2.015
74281SOL    HW124740   3.876   8.514   2.054
74281SOL    HW224741   3.995   8.607   2.071
74282SOL     OW24742   7.092   8.708  10.986
74282SOL    HW124743   7.186   8.726  10.989
74282SOL    HW224744   7.075   8.683  10.895
74283SOL     OW24745  11.143  13.742   1.312
74283SOL    HW124746  11.049  13.750   1.292
74283SOL    HW224747  11.180  13.826   1.285
74284SOL     OW24748  11.757   2.840   8.303
74284SOL    HW124749  11.733   2.927   8.272
74284SOL    HW224750  11.673   2.793   8.310
74285SOL     OW24751   7.514  11.713  10.710
74285SOL    HW124752   7.608  11.709  10.730
74285SOL    HW224753   7.477  11.640  10.760
74286SOL     OW24754   3.183  14.424   9.400
74286SOL    HW124755   3.158  14.419   9.308
74286SOL    HW224756   3.126  14.361   9.444
74287SOL     OW24757  12.209   8.990   3.798
74287SOL    HW124758  12.174   8.902   3.787
74287SOL    HW224759  12.189   9.034   3.715
74288SOL     OW24760  12.533   7.605   2.593
74288SOL    HW124761  12.615   7.559   2.573
74288SOL    HW224762  12.554   7.697   2.578
74289SOL     OW24763   0.238   9.478   6.410
74289SOL    HW124764   0.197   9.525   6.483
74289SOL    HW224765   0.283   9.547   6.361
74290SOL     OW24766  14.284   0.158   3.077
74290SOL    HW124767  14.297   0.089   3.012
74290SOL    HW224768  14.371   0.196   3.089
74291SOL     OW24769  12.036   0.662  12.116
74291SOL    HW124770  11.996   0.598  12.175
74291SOL    HW224771  11.972   0.732  12.109
74292SOL     OW24772   1.432   5.667   9.698
74292SOL    HW124773   1.512   5.645   9.746
74292SOL    HW224774   1.382   5.721   9.758
74293SOL     OW24775   5.314  10.338  11.625
74293SOL    HW124776   5.262  10.260  11.606
74293SOL    HW224777   5.322  10.339  11.720
74294SOL     OW24778   8.944   9.768   7.968
74294SOL    HW124779   8.875   9.819   7.927
74294SOL    HW224780   8.909   9.679   7.975
74295SOL     OW24781   9.697   1.692   4.677
74295SOL    HW124782   9.690   1.663   4.768
74295SOL    HW224783   9.746   1.623   4.633
74296SOL     OW24784   3.124   1.871   8.913
74296SOL    HW124785   3.073   1.806   8.865
74296SOL    HW224786   3.111   1.849   9.005
74297SOL     OW24787   8.881   1.345  14.044
74297SOL    HW124788   8.954   1.324  13.986
74297SOL    HW224789   8.917   1.405  14.109
74298SOL     OW24790   9.583  13.301   4.947
74298SOL    HW124791   9.649  13.255   4.999
74298SOL    HW224792   9.597  13.269   4.858
74299SOL     OW24793   9.324  12.319   3.944
74299SOL    HW124794   9.283  12.400   3.916
74299SOL    HW224795   9.395  12.305   3.881
74300SOL     OW24796   1.719   2.889  10.505
74300SOL    HW124797   1.742   2.917  10.594
74300SOL    HW224798   1.665   2.960  10.470
74301SOL     OW24799   8.321   3.555   5.635
74301SOL    HW124800   8.331   3.468   5.673
74301SOL    HW224801   8.254   3.544   5.567
74302SOL     OW24802   1.767   6.913  10.363
74302SOL    HW124803   1.802   6.824  10.372
74302SOL    HW224804   1.683   6.910  10.409
74303SOL     OW24805   0.800   2.232   2.903
74303SOL    HW124806   0.768   2.174   2.834
74303SOL    HW224807   0.862   2.178   2.953
74304SOL     OW24808   3.782   9.503  14.822
74304SOL    HW124809   3.826   9.586  14.842
74304SOL    HW224810   3.787   9.496  14.726
74305SOL     OW24811   0.550  12.743  10.756
74305SOL    HW124812   0.520  12.660  10.718
74305SOL    HW224813   0.477  12.772  10.811
74306SOL     OW24814   1.793  14.108   5.130
74306SOL    HW124815   1.867  14.122   5.190
74306SOL    HW224816   1.835  14.089   5.046
74307SOL     OW24817  12.054  10.565   5.650
74307SOL    HW124818  12.053  10.617   5.730
74307SOL    HW224819  12.068  10.629   5.580
74308SOL     OW24820   5.937   8.361  10.143
74308SOL    HW124821   5.898   8.420  10.207
74308SOL    HW224822   5.889   8.377  10.062
74309SOL     OW24823  10.610   2.249  12.117
74309SOL    HW124824  10.550   2.298  12.174
74309SOL    HW224825  10.553   2.196  12.061
74310SOL     OW24826   1.258  12.077   6.476
74310SOL    HW124827   1.177  12.087   6.526
74310SOL    HW224828   1.229  12.048   6.389
74311SOL     OW24829   5.474   8.395  10.742
74311SOL    HW124830   5.564   8.416  10.717
74311SOL    HW224831   5.483   8.327  10.809
74312SOL     OW24832  13.917  11.840  14.067
74312SOL    HW124833  13.935  11.755  14.108
74312SOL    HW224834  13.919  11.902  14.140
74313SOL     OW24835   9.297  14.503  11.001
74313SOL    HW124836   9.380  14.540  11.030
74313SOL    HW224837   9.246  14.580  10.972
74314SOL     OW24838  12.291  11.102   8.884
74314SOL    HW124839  12.369  11.140   8.843
74314SOL    HW224840  12.223  11.109   8.818
74315SOL     OW24841  12.206  13.280   8.022
74315SOL    HW124842  12.152  13.286   7.943
74315SOL    HW224843  12.287  13.325   7.999
74316SOL     OW24844   2.622   3.538   1.676
74316SOL    HW124845   2.685   3.568   1.610
74316SOL    HW224846   2.675   3.492   1.741
74317SOL     OW24847  13.460  14.725   6.500
74317SOL    HW124848  13.526  14.655   6.492
74317SOL    HW224849  13.510  14.806   6.489
74318SOL     OW24850  10.231   0.963  12.029
74318SOL    HW124851  10.208   1.029  11.964
74318SOL    HW224852  10.148   0.928  12.060
74319SOL     OW24853  11.371   7.123   4.699
74319SOL    HW124854  11.344   7.054   4.639
74319SOL    HW224855  11.305   7.191   4.688
74320SOL     OW24856   7.785  12.762   5.858
74320SOL    HW124857   7.862  12.709   5.880
74320SOL    HW224858   7.776  12.822   5.931
74321SOL     OW24859   7.916   9.733  14.136
74321SOL    HW124860   7.940   9.642  14.119
74321SOL    HW224861   7.821   9.730  14.152
74322SOL     OW24862  12.056  10.847   2.618
74322SOL    HW124863  11.992  10.843   2.547
74322SOL    HW224864  12.139  10.867   2.574
74323SOL     OW24865   9.357  12.971   7.767
74323SOL    HW124866   9.338  13.065   7.768
74323SOL    HW224867   9.431  12.960   7.826
74324SOL     OW24868  11.442   8.622   8.386
74324SOL    HW124869  11.450   8.603   8.479
74324SOL    HW224870  11.397   8.547   8.349
74325SOL     OW24871  13.724   5.302  11.845
74325SOL    HW124872  13.736   5.229  11.906
74325SOL    HW224873  13.787   5.285  11.775
74326SOL     OW24874   2.490   0.400  12.357
74326SOL    HW124875   2.492   0.485  12.400
74326SOL    HW224876   2.580   0.368  12.362
74327SOL     OW24877  11.257  13.686   4.485
74327SOL    HW124878  11.199  13.615   4.511
74327SOL    HW224879  11.236  13.758   4.545
74328SOL     OW24880   7.124   3.381   2.478
74328SOL    HW124881   7.200   3.401   2.423
74328SOL    HW224882   7.049   3.383   2.418
74329SOL     OW24883   1.282   7.200   9.674
74329SOL    HW124884   1.376   7.190   9.690
74329SOL    HW224885   1.264   7.143   9.599
74330SOL     OW24886   0.558  10.467   0.891
74330SOL    HW124887   0.526  10.512   0.813
74330SOL    HW224888   0.484  10.414   0.919
74331SOL     OW24889  10.492   9.612  10.714
74331SOL    HW124890  10.558   9.682  10.714
74331SOL    HW224891  10.497   9.576  10.626
74332SOL     OW24892  12.710   4.128  12.091
74332SOL    HW124893  12.653   4.178  12.032
74332SOL    HW224894  12.650   4.073  12.140
74333SOL     OW24895   8.291   2.882   8.260
74333SOL    HW124896   8.329   2.887   8.172
74333SOL    HW224897   8.199   2.905   8.247
74334SOL     OW24898   3.271   8.339  12.812
74334SOL    HW124899   3.201   8.343  12.747
74334SOL    HW224900   3.241   8.397  12.883
74335SOL     OW24901  13.216  14.341  11.943
74335SOL    HW124902  13.286  14.385  11.991
74335SOL    HW224903  13.222  14.249  11.971
74336SOL     OW24904   5.907   4.645   8.865
74336SOL    HW124905   5.902   4.555   8.834
74336SOL    HW224906   5.998   4.671   8.849
74337SOL     OW24907   9.701   9.456   2.179
74337SOL    HW124908   9.786   9.467   2.222
74337SOL    HW224909   9.639   9.443   2.251
74338SOL     OW24910   8.277   5.352   2.946
74338SOL    HW124911   8.347   5.377   2.887
74338SOL    HW224912   8.196   5.377   2.901
74339SOL     OW24913  12.987  11.735   3.132
74339SOL    HW124914  13.081  11.735   3.112
74339SOL    HW224915  12.952  11.806   3.079
74340SOL     OW24916  12.841  11.832   1.234
74340SOL    HW124917  12.919  11.796   1.277
74340SOL    HW224918  12.780  11.849   1.306
74341SOL     OW24919   2.024   3.819  13.336
74341SOL    HW124920   1.999   3.757  13.267
74341SOL    HW224921   2.012   3.905  13.295
74342SOL     OW24922   7.576   7.948   8.143
74342SOL    HW124923   7.634   7.874   8.160
74342SOL    HW224924   7.633   8.025   8.143
74343SOL     OW24925  11.798  12.544   0.619
74343SOL    HW124926  11.890  12.571   0.625
74343SOL    HW224927  11.764  12.591   0.543
74344SOL     OW24928  10.359  14.683  10.762
74344SOL    HW124929  10.326  14.610  10.710
74344SOL    HW224930  10.429  14.646  10.815
74345SOL     OW24931   8.690   5.045   1.715
74345SOL    HW124932   8.688   5.057   1.620
74345SOL    HW224933   8.769   5.089   1.744
74346SOL     OW24934   9.244  10.430  12.437
74346SOL    HW124935   9.161  10.423  12.390
74346SOL    HW224936   9.259  10.524  12.447
74347SOL     OW24937   9.027  10.403  11.967
74347SOL    HW124938   8.966  10.471  11.939
74347SOL    HW224939   8.971  10.330  11.994
74348SOL     OW24940   0.857   3.727   5.039
74348SOL    HW124941   0.869   3.757   5.129
74348SOL    HW224942   0.894   3.639   5.039
74349SOL     OW24943   5.070   0.451   0.340
74349SOL    HW124944   5.047   0.361   0.365
74349SOL    HW224945   5.126   0.441   0.263
74350SOL     OW24946   4.503   7.978   8.316
74350SOL    HW124947   4.520   7.964   8.409
74350SOL    HW224948   4.550   7.908   8.272
74351SOL     OW24949   2.700  13.654  12.021
74351SOL    HW124950   2.656  13.730  12.060
74351SOL    HW224951   2.723  13.683  11.933
74352SOL     OW24952   5.986   6.083   8.653
74352SOL    HW124953   5.959   5.993   8.634
74352SOL    HW224954   6.062   6.073   8.711
74353SOL     OW24955   7.997   0.449  12.460
74353SOL    HW124956   8.069   0.405  12.416
74353SOL    HW224957   7.960   0.508  12.394
74354SOL     OW24958   6.366  13.341   8.890
74354SOL    HW124959   6.297  13.323   8.827
74354SOL    HW224960   6.445  13.348   8.838
74355SOL     OW24961  14.287   4.882   1.774
74355SOL    HW124962  14.324   4.958   1.729
74355SOL    HW224963  14.278   4.815   1.706
74356SOL     OW24964   5.194   4.493   8.475
74356SOL    HW124965   5.216   4.401   8.488
74356SOL    HW224966   5.233   4.538   8.549
74357SOL     OW24967   9.871   9.201   6.173
74357SOL    HW124968   9.848   9.294   6.173
74357SOL    HW224969   9.884   9.179   6.265
74358SOL     OW24970   1.780   6.204  12.847
74358SOL    HW124971   1.727   6.147  12.792
74358SOL    HW224972   1.867   6.203  12.806
74359SOL     OW24973   6.663   0.759  14.437
74359SOL    HW124974   6.580   0.801  14.415
74359SOL    HW224975   6.638   0.682  14.488
74360SOL     OW24976   0.613   5.248   7.744
74360SOL    HW124977   0.543   5.310   7.727
74360SOL    HW224978   0.585   5.202   7.823
74361SOL     OW24979   5.958   6.036   2.809
74361SOL    HW124980   5.981   6.120   2.848
74361SOL    HW224981   5.958   6.052   2.715
74362SOL     OW24982   8.667  10.435  12.294
74362SOL    HW124983   8.689  10.491  12.368
74362SOL    HW224984   8.572  10.425  12.300
74363SOL     OW24985  13.920   6.124  12.749
74363SOL    HW124986  13.995   6.167  12.708
74363SOL    HW224987  13.857   6.112  12.678
74364SOL     OW24988  10.910  13.300   2.935
74364SOL    HW124989  10.990  13.267   2.896
74364SOL    HW224990  10.846  13.298   2.864
74365SOL     OW24991   6.054   6.777   8.131
74365SOL    HW124992   6.077   6.710   8.196
74365SOL    HW224993   6.122   6.770   8.065
74366SOL     OW24994   9.980   0.851   9.493
74366SOL    HW124995   9.927   0.795   9.550
74366SOL    HW224996  10.069   0.821   9.507
74367SOL     OW24997   6.432  13.241   5.442
74367SOL    HW124998   6.506  13.289   5.478
74367SOL    HW224999   6.469  13.156   5.416
74368SOL     OW25000   3.855   8.103  10.966
74368SOL    HW125001   3.836   8.197  10.978
74368SOL    HW225002   3.918   8.101  10.894
74369SOL     OW25003  11.287  10.214  12.268
74369SOL    HW125004  11.379  10.206  12.241
74369SOL    HW225005  11.237  10.193  12.190
74370SOL     OW25006  10.932   8.273   5.626
74370SOL    HW125007  10.934   8.192   5.575
74370SOL    HW225008  11.001   8.327   5.588
74371SOL     OW25009   6.849   9.278   9.854
74371SOL    HW125010   6.862   9.233   9.937
74371SOL    HW225011   6.912   9.238   9.794
74372SOL     OW25012   1.503   0.461   9.832
74372SOL    HW125013   1.466   0.373   9.826
74372SOL    HW225014   1.554   0.470   9.751
74373SOL     OW25015   3.373   1.646  11.618
74373SOL    HW125016   3.400   1.648  11.710
74373SOL    HW225017   3.378   1.554  11.593
74374SOL     OW25018   6.556   7.494   0.261
74374SOL    HW125019   6.551   7.455   0.348
74374SOL    HW225020   6.592   7.582   0.276
74375SOL     OW25021   1.862   9.005   9.389
74375SOL    HW125022   1.824   8.918   9.401
74375SOL    HW225023   1.789   9.066   9.400
74376SOL     OW25024   0.021   4.975  11.366
74376SOL    HW125025   0.032   5.049  11.306
74376SOL    HW225026  14.845   4.913  11.319
74377SOL     OW25027   2.009   8.389   0.344
74377SOL    HW125028   1.993   8.295   0.334
74377SOL    HW225029   2.048   8.416   0.261
74378SOL     OW25030   4.029  11.581   0.897
74378SOL    HW125031   3.947  11.558   0.854
74378SOL    HW225032   4.029  11.676   0.901
74379SOL     OW25033  13.342   6.942  11.574
74379SOL    HW125034  13.363   6.890  11.651
74379SOL    HW225035  13.255   6.912  11.547
74380SOL     OW25036   7.758   8.447   6.683
74380SOL    HW125037   7.665   8.465   6.695
74380SOL    HW225038   7.789   8.418   6.769
74381SOL     OW25039   1.687  12.791   3.678
74381SOL    HW125040   1.718  12.722   3.737
74381SOL    HW225041   1.767  12.838   3.653
74382SOL     OW25042   3.133   1.343  12.229
74382SOL    HW125043   3.048   1.378  12.204
74382SOL    HW225044   3.191   1.419  12.230
74383SOL     OW25045   9.584   7.058   0.776
74383SOL    HW125046   9.676   7.085   0.771
74383SOL    HW225047   9.565   7.055   0.869
74384SOL     OW25048   0.837  10.969  14.288
74384SOL    HW125049   0.859  10.912  14.215
74384SOL    HW225050   0.752  11.007  14.264
74385SOL     OW25051   8.933   5.592   1.340
74385SOL    HW125052   8.892   5.663   1.290
74385SOL    HW225053   8.996   5.637   1.397
74386SOL     OW25054  11.256   8.599  10.435
74386SOL    HW125055  11.315   8.620  10.362
74386SOL    HW225056  11.169   8.618  10.402
74387SOL     OW25057   9.869   8.792  14.575
74387SOL    HW125058   9.907   8.715  14.535
74387SOL    HW225059   9.893   8.786  14.668
74388SOL     OW25060   8.643   3.964  13.722
74388SOL    HW125061   8.575   3.927  13.665
74388SOL    HW225062   8.716   3.984  13.663
74389SOL     OW25063   8.808  11.676   7.136
74389SOL    HW125064   8.809  11.580   7.138
74389SOL    HW225065   8.808  11.698   7.043
74390SOL     OW25066   3.125   0.599  10.173
74390SOL    HW125067   3.125   0.609  10.078
74390SOL    HW225068   3.195   0.536  10.190
74391SOL     OW25069   0.357   9.737   4.871
74391SOL    HW125070   0.390   9.670   4.811
74391SOL    HW225071   0.265   9.714   4.883
74392SOL     OW25072  11.855   4.814   8.362
74392SOL    HW125073  11.761   4.811   8.346
74392SOL    HW225074  11.871   4.903   8.393
74393SOL     OW25075   3.554   1.458   3.196
74393SOL    HW125076   3.532   1.369   3.168
74393SOL    HW225077   3.648   1.464   3.184
74394SOL     OW25078  12.932   2.868   4.872
74394SOL    HW125079  12.996   2.925   4.831
74394SOL    HW225080  12.972   2.843   4.955
74395SOL     OW25081  11.710   5.315  10.921
74395SOL    HW125082  11.758   5.360  10.852
74395SOL    HW225083  11.684   5.231  10.882
74396SOL     OW25084  13.912   5.777  11.411
74396SOL    HW125085  13.995   5.826  11.415
74396SOL    HW225086  13.860   5.811  11.483
74397SOL     OW25087  14.712  12.284   2.784
74397SOL    HW125088  14.681  12.291   2.874
74397SOL    HW225089  14.681  12.364   2.741
74398SOL     OW25090   0.043  10.893   0.840
74398SOL    HW125091   0.133  10.880   0.871
74398SOL    HW225092   0.043  10.858   0.751
74399SOL     OW25093   5.111   8.078   8.221
74399SOL    HW125094   5.200   8.065   8.255
74399SOL    HW225095   5.077   8.153   8.270
74400SOL     OW25096   4.084   8.832   3.694
74400SOL    HW125097   4.055   8.767   3.758
74400SOL    HW225098   4.144   8.784   3.637
74401SOL     OW25099   6.928   0.286   0.772
74401SOL    HW125100   6.981   0.364   0.758
74401SOL    HW225101   6.944   0.262   0.863
74402SOL     OW25102  14.279  11.234   6.796
74402SOL    HW125103  14.274  11.213   6.702
74402SOL    HW225104  14.353  11.294   6.803
74403SOL     OW25105   3.696   7.875  13.754
74403SOL    HW125106   3.607   7.902  13.777
74403SOL    HW225107   3.718   7.809  13.820
74404SOL     OW25108   6.663  14.720   6.775
74404SOL    HW125109   6.659  14.815   6.781
74404SOL    HW225110   6.607  14.688   6.845
74405SOL     OW25111  12.134   5.117   2.644
74405SOL    HW125112  12.221   5.156   2.649
74405SOL    HW225113  12.100   5.145   2.559
74406SOL     OW25114   1.613   2.196  11.485
74406SOL    HW125115   1.534   2.142  11.487
74406SOL    HW225116   1.599   2.257  11.413
74407SOL     OW25117  11.332   7.831   1.507
74407SOL    HW125118  11.355   7.853   1.597
74407SOL    HW225119  11.371   7.744   1.493
74408SOL     OW25120   6.331   3.404  11.217
74408SOL    HW125121   6.370   3.330  11.264
74408SOL    HW225122   6.403   3.440  11.166
74409SOL     OW25123   2.259  11.882  12.300
74409SOL    HW125124   2.239  11.962  12.251
74409SOL    HW225125   2.284  11.819  12.233
74410SOL     OW25126  13.787  11.166   3.536
74410SOL    HW125127  13.747  11.169   3.449
74410SOL    HW225128  13.838  11.247   3.542
74411SOL     OW25129  13.986  11.883   3.417
74411SOL    HW125130  14.013  11.964   3.460
74411SOL    HW225131  13.891  11.888   3.416
74412SOL     OW25132   2.153   0.527   0.924
74412SOL    HW125133   2.110   0.570   0.850
74412SOL    HW225134   2.082   0.483   0.970
74413SOL     OW25135  12.481   1.532   3.704
74413SOL    HW125136  12.493   1.533   3.799
74413SOL    HW225137  12.408   1.592   3.689
74414SOL     OW25138   4.276   3.106   8.101
74414SOL    HW125139   4.221   3.157   8.161
74414SOL    HW225140   4.346   3.166   8.075
74415SOL     OW25141  11.240   6.549  14.835
74415SOL    HW125142  11.279   6.465  14.858
74415SOL    HW225143  11.296   6.582  14.765
74416SOL     OW25144   8.635  11.902   4.137
74416SOL    HW125145   8.710  11.889   4.079
74416SOL    HW225146   8.658  11.979   4.189
74417SOL     OW25147   7.130  10.930   7.298
74417SOL    HW125148   7.087  10.921   7.212
74417SOL    HW225149   7.197  10.996   7.285
74418SOL     OW25150   4.087   5.693  10.001
74418SOL    HW125151   4.111   5.747  10.077
74418SOL    HW225152   4.161   5.633   9.991
74419SOL     OW25153   2.350   1.582   4.408
74419SOL    HW125154   2.438   1.617   4.391
74419SOL    HW225155   2.345   1.573   4.503
74420SOL     OW25156   5.625   0.850   0.049
74420SOL    HW125157   5.707   0.895   0.027
74420SOL    HW225158   5.559   0.891  14.872
74421SOL     OW25159   4.167   1.796  14.827
74421SOL    HW125160   4.082   1.804  14.785
74421SOL    HW225161   4.186   1.884  14.861
74422SOL     OW25162   8.048  12.624   5.258
74422SOL    HW125163   8.066  12.538   5.220
74422SOL    HW225164   7.956  12.621   5.285
74423SOL     OW25165  11.135   9.752   4.014
74423SOL    HW125166  11.045   9.720   4.006
74423SOL    HW225167  11.141   9.822   3.948
74424SOL     OW25168  11.823  14.016  13.174
74424SOL    HW125169  11.849  13.925  13.191
74424SOL    HW225170  11.903  14.060  13.148
74425SOL     OW25171   2.485   2.027   3.190
74425SOL    HW125172   2.514   2.002   3.103
74425SOL    HW225173   2.535   2.106   3.210
74426SOL     OW25174  13.787   2.664   3.228
74426SOL    HW125175  13.867   2.715   3.240
74426SOL    HW225176  13.717   2.729   3.221
74427SOL     OW25177  13.023   3.288   4.444
74427SOL    HW125178  13.094   3.285   4.380
74427SOL    HW225179  12.951   3.332   4.399
74428SOL     OW25180   3.361  13.529  13.855
74428SOL    HW125181   3.291  13.481  13.812
74428SOL    HW225182   3.317  13.580  13.923
74429SOL     OW25183   6.267   0.636   3.964
74429SOL    HW125184   6.235   0.686   4.038
74429SOL    HW225185   6.244   0.545   3.984
74430SOL     OW25186   9.468   2.069  14.741
74430SOL    HW125187   9.553   2.045  14.778
74430SOL    HW225188   9.406   2.056  14.812
74431SOL     OW25189   1.533   5.785  10.483
74431SOL    HW125190   1.523   5.874  10.516
74431SOL    HW225191   1.521   5.730  10.560
74432SOL     OW25192   4.913   5.807   9.747
74432SOL    HW125193   4.875   5.894   9.754
74432SOL    HW225194   4.966   5.810   9.668
74433SOL     OW25195   8.780  11.864  14.047
74433SOL    HW125196   8.774  11.891  13.956
74433SOL    HW225197   8.871  11.836  14.058
74434SOL     OW25198   8.370   7.162   0.252
74434SOL    HW125199   8.295   7.164   0.311
74434SOL    HW225200   8.403   7.073   0.258
74435SOL     OW25201   5.498   0.936   9.917
74435SOL    HW125202   5.550   1.014   9.898
74435SOL    HW225203   5.554   0.883   9.973
74436SOL     OW25204  14.337   0.242   5.216
74436SOL    HW125205  14.408   0.179   5.226
74436SOL    HW225206  14.367   0.303   5.149
74437SOL     OW25207  13.989  13.409   3.225
74437SOL    HW125208  14.074  13.447   3.203
74437SOL    HW225209  13.988  13.324   3.182
74438SOL     OW25210   0.979   5.689  13.362
74438SOL    HW125211   1.033   5.739  13.300
74438SOL    HW225212   0.893   5.683  13.319
74439SOL     OW25213  12.774   7.547   8.935
74439SOL    HW125214  12.749   7.528   8.845
74439SOL    HW225215  12.840   7.481   8.957
74440SOL     OW25216   6.410   5.972   6.539
74440SOL    HW125217   6.501   5.947   6.522
74440SOL    HW225218   6.380   6.009   6.456
74441SOL     OW25219   7.724  13.656   7.633
74441SOL    HW125220   7.785  13.582   7.629
74441SOL    HW225221   7.689  13.662   7.544
74442SOL     OW25222   3.353   5.015   4.619
74442SOL    HW125223   3.410   5.029   4.694
74442SOL    HW225224   3.395   4.943   4.570
74443SOL     OW25225   7.192   0.563  13.636
74443SOL    HW125226   7.198   0.653  13.668
74443SOL    HW225227   7.244   0.562  13.556
74444SOL     OW25228   2.885   1.552  14.849
74444SOL    HW125229   2.912   1.615   0.037
74444SOL    HW225230   2.908   1.594  14.766
74445SOL     OW25231  11.974  12.377   3.249
74445SOL    HW125232  11.911  12.311   3.219
74445SOL    HW225233  11.949  12.395   3.339
74446SOL     OW25234   1.107  13.764  14.347
74446SOL    HW125235   1.143  13.727  14.267
74446SOL    HW225236   1.012  13.756  14.337
74447SOL     OW25237   8.713   5.784   9.504
74447SOL    HW125238   8.665   5.814   9.582
74447SOL    HW225239   8.765   5.859   9.477
74448SOL     OW25240   3.039   7.872   0.972
74448SOL    HW125241   3.123   7.917   0.966
74448SOL    HW225242   2.984   7.914   0.905
74449SOL     OW25243  10.856   7.931   2.895
74449SOL    HW125244  10.860   7.858   2.957
74449SOL    HW225245  10.818   7.893   2.816
74450SOL     OW25246   4.215  13.113   0.067
74450SOL    HW125247   4.180  13.025   0.076
74450SOL    HW225248   4.209  13.132  14.853
74451SOL     OW25249   6.829   9.661   7.346
74451SOL    HW125250   6.798   9.655   7.436
74451SOL    HW225251   6.899   9.596   7.340
74452SOL     OW25252   5.217  10.876  11.126
74452SOL    HW125253   5.270  10.865  11.047
74452SOL    HW225254   5.167  10.956  11.110
74453SOL     OW25255   4.523  13.144  12.671
74453SOL    HW125256   4.505  13.072  12.611
74453SOL    HW225257   4.533  13.220  12.614
74454SOL     OW25258   6.956   2.569  14.333
74454SOL    HW125259   6.950   2.496  14.271
74454SOL    HW225260   6.903   2.542  14.408
74455SOL     OW25261   8.309   0.718  13.531
74455SOL    HW125262   8.345   0.777  13.597
74455SOL    HW225263   8.352   0.634  13.548
74456SOL     OW25264  11.266   6.943   8.442
74456SOL    HW125265  11.202   6.879   8.473
74456SOL    HW225266  11.342   6.891   8.416
74457SOL     OW25267  10.533  13.118   1.376
74457SOL    HW125268  10.489  13.108   1.292
74457SOL    HW225269  10.468  13.161   1.432
74458SOL     OW25270   1.824   5.846   4.595
74458SOL    HW125271   1.738   5.806   4.589
74458SOL    HW225272   1.885   5.774   4.581
74459SOL     OW25273   8.443   1.299   7.489
74459SOL    HW125274   8.372   1.246   7.452
74459SOL    HW225275   8.463   1.258   7.572
74460SOL     OW25276   7.305   2.329   7.765
74460SOL    HW125277   7.375   2.362   7.823
74460SOL    HW225278   7.348   2.316   7.681
74461SOL     OW25279   1.361  12.624   2.173
74461SOL    HW125280   1.281  12.571   2.177
74461SOL    HW225281   1.417  12.578   2.109
74462SOL     OW25282   8.843  13.378   6.364
74462SOL    HW125283   8.885  13.430   6.432
74462SOL    HW225284   8.910  13.316   6.336
74463SOL     OW25285  14.872   1.246   0.897
74463SOL    HW125286  14.800   1.303   0.869
74463SOL    HW225287   0.071   1.296   0.877
74464SOL     OW25288   9.406   3.434   7.949
74464SOL    HW125289   9.367   3.386   8.022
74464SOL    HW225290   9.338   3.432   7.881
74465SOL     OW25291   1.850   4.417   4.063
74465SOL    HW125292   1.876   4.422   4.155
74465SOL    HW225293   1.768   4.368   4.064
74466SOL     OW25294   9.831   3.557  11.405
74466SOL    HW125295   9.794   3.631  11.357
74466SOL    HW225296   9.839   3.587  11.495
74467SOL     OW25297   2.437   6.313   4.817
74467SOL    HW125298   2.417   6.229   4.858
74467SOL    HW225299   2.515   6.296   4.764
74468SOL     OW25300   8.164  11.181  13.373
74468SOL    HW125301   8.247  11.155  13.412
74468SOL    HW225302   8.139  11.108  13.317
74469SOL     OW25303  12.387  14.359   6.209
74469SOL    HW125304  12.333  14.323   6.139
74469SOL    HW225305  12.361  14.451   6.214
74470SOL     OW25306   7.949   9.942   2.857
74470SOL    HW125307   7.903   9.986   2.786
74470SOL    HW225308   8.029   9.908   2.818
74471SOL     OW25309   0.646   7.042   8.494
74471SOL    HW125310   0.616   7.044   8.585
74471SOL    HW225311   0.718   7.106   8.491
74472SOL     OW25312   4.024   4.476  10.574
74472SOL    HW125313   4.033   4.399  10.518
74472SOL    HW225314   4.110   4.486  10.615
74473SOL     OW25315   5.061   9.246   7.976
74473SOL    HW125316   5.129   9.313   7.967
74473SOL    HW225317   5.083   9.201   8.057
74474SOL     OW25318  14.172   7.685   9.303
74474SOL    HW125319  14.237   7.647   9.362
74474SOL    HW225320  14.207   7.772   9.282
74475SOL     OW25321  12.705   3.205   2.344
74475SOL    HW125322  12.790   3.237   2.373
74475SOL    HW225323  12.713   3.110   2.345
74476SOL     OW25324   7.304   9.503  13.334
74476SOL    HW125325   7.348   9.419  13.337
74476SOL    HW225326   7.297   9.525  13.241
74477SOL     OW25327   7.706   0.976  14.530
74477SOL    HW125328   7.792   0.956  14.493
74477SOL    HW225329   7.692   1.069  14.511
74478SOL     OW25330   9.320  14.698  14.411
74478SOL    HW125331   9.404  14.668  14.444
74478SOL    HW225332   9.330  14.697  14.316
74479SOL     OW25333   8.082   8.191   2.684
74479SOL    HW125334   8.170   8.160   2.705
74479SOL    HW225335   8.027   8.156   2.755
74480SOL     OW25336   0.898   1.349   7.170
74480SOL    HW125337   0.841   1.316   7.101
74480SOL    HW225338   0.965   1.400   7.124
74481SOL     OW25339   2.060  13.081   7.987
74481SOL    HW125340   2.025  12.996   8.017
74481SOL    HW225341   2.014  13.146   8.040
74482SOL     OW25342  14.482   4.666  13.701
74482SOL    HW125343  14.482   4.574  13.729
74482SOL    HW225344  14.567   4.678  13.659
74483SOL     OW25345   7.433  14.290   0.269
74483SOL    HW125346   7.377  14.275   0.344
74483SOL    HW225347   7.522  14.275   0.301
74484SOL     OW25348   9.433   3.467   1.458
74484SOL    HW125349   9.387   3.534   1.510
74484SOL    HW225350   9.481   3.415   1.523
74485SOL     OW25351   2.367   0.101   4.277
74485SOL    HW125352   2.451   0.148   4.277
74485SOL    HW225353   2.301   0.171   4.271
74486SOL     OW25354   6.497   5.778  11.495
74486SOL    HW125355   6.501   5.684  11.513
74486SOL    HW225356   6.556   5.818  11.559
74487SOL     OW25357   3.284   9.568   5.188
74487SOL    HW125358   3.204   9.577   5.137
74487SOL    HW225359   3.284   9.476   5.216
74488SOL     OW25360   3.255   9.477  12.114
74488SOL    HW125361   3.261   9.382  12.118
74488SOL    HW225362   3.208   9.502  12.193
74489SOL     OW25363   1.435  12.480  10.713
74489SOL    HW125364   1.471  12.404  10.759
74489SOL    HW225365   1.368  12.444  10.655
74490SOL     OW25366   3.538  10.467  11.760
74490SOL    HW125367   3.519  10.485  11.668
74490SOL    HW225368   3.481  10.394  11.783
74491SOL     OW25369   4.943   6.972   1.734
74491SOL    HW125370   4.917   7.064   1.725
74491SOL    HW225371   4.938   6.955   1.828
74492SOL     OW25372   9.824   1.571  13.768
74492SOL    HW125373   9.794   1.658  13.738
74492SOL    HW225374   9.832   1.580  13.863
74493SOL     OW25375   9.420  14.829   2.244
74493SOL    HW125376   9.386   0.037   2.258
74493SOL    HW225377   9.436  14.795   2.332
74494SOL     OW25378   5.107   8.775   8.550
74494SOL    HW125379   5.119   8.868   8.572
74494SOL    HW225380   5.193   8.746   8.521
74495SOL     OW25381   3.379   3.247   6.112
74495SOL    HW125382   3.283   3.242   6.108
74495SOL    HW225383   3.407   3.218   6.025
74496SOL     OW25384   3.870   8.075   0.621
74496SOL    HW125385   3.837   8.154   0.579
74496SOL    HW225386   3.794   8.038   0.666
74497SOL     OW25387  14.309   6.107  14.775
74497SOL    HW125388  14.380   6.065  14.727
74497SOL    HW225389  14.249   6.036  14.798
74498SOL     OW25390   2.863   2.952   3.707
74498SOL    HW125391   2.842   3.030   3.656
74498SOL    HW225392   2.906   2.893   3.645
74499SOL     OW25393  10.479   7.756   3.933
74499SOL    HW125394  10.527   7.770   4.015
74499SOL    HW225395  10.400   7.709   3.959
74500SOL     OW25396   2.692   2.191   7.467
74500SOL    HW125397   2.639   2.270   7.453
74500SOL    HW225398   2.767   2.203   7.409
74501SOL     OW25399  14.655   5.006   4.361
74501SOL    HW125400  14.653   4.913   4.338
74501SOL    HW225401  14.637   5.051   4.278
74502SOL     OW25402   6.548  11.256   9.208
74502SOL    HW125403   6.570  11.335   9.258
74502SOL    HW225404   6.473  11.281   9.155
74503SOL     OW25405  11.704   8.632   8.866
74503SOL    HW125406  11.732   8.540   8.866
74503SOL    HW225407  11.762   8.674   8.930
74504SOL     OW25408   7.387   0.176  12.683
74504SOL    HW125409   7.396   0.138  12.596
74504SOL    HW225410   7.423   0.110  12.742
74505SOL     OW25411   0.524   2.548   1.152
74505SOL    HW125412   0.525   2.518   1.243
74505SOL    HW225413   0.595   2.612   1.148
74506SOL     OW25414   5.434  13.171   8.147
74506SOL    HW125415   5.418  13.152   8.240
74506SOL    HW225416   5.374  13.114   8.100
74507SOL     OW25417   9.307   9.393  14.170
74507SOL    HW125418   9.307   9.298  14.177
74507SOL    HW225419   9.317   9.424  14.260
74508SOL     OW25420   5.536   0.947   5.499
74508SOL    HW125421   5.590   0.982   5.569
74508SOL    HW225422   5.548   0.852   5.504
74509SOL     OW25423  13.175  12.659  12.735
74509SOL    HW125424  13.199  12.575  12.695
74509SOL    HW225425  13.198  12.648  12.827
74510SOL     OW25426   8.567  14.130   0.964
74510SOL    HW125427   8.581  14.085   0.880
74510SOL    HW225428   8.651  14.123   1.009
74511SOL     OW25429   2.972  11.033   0.491
74511SOL    HW125430   3.064  11.040   0.466
74511SOL    HW225431   2.959  11.105   0.553
74512SOL     OW25432   3.592  12.228   9.040
74512SOL    HW125433   3.587  12.262   8.951
74512SOL    HW225434   3.520  12.273   9.086
74513SOL     OW25435  12.074   5.095   5.482
74513SOL    HW125436  12.044   5.179   5.447
74513SOL    HW225437  12.011   5.074   5.551
74514SOL     OW25438   3.516   4.883   0.099
74514SOL    HW125439   3.471   4.890   0.014
74514SOL    HW225440   3.554   4.969   0.114
74515SOL     OW25441  12.982  10.748   3.544
74515SOL    HW125442  13.046  10.793   3.489
74515SOL    HW225443  12.942  10.683   3.486
74516SOL     OW25444   3.669   1.460   4.206
74516SOL    HW125445   3.758   1.441   4.175
74516SOL    HW225446   3.653   1.394   4.274
74517SOL     OW25447   2.304   9.302  11.597
74517SOL    HW125448   2.227   9.292  11.653
74517SOL    HW225449   2.377   9.275  11.652
74518SOL     OW25450   4.411  10.837   6.166
74518SOL    HW125451   4.417  10.860   6.073
74518SOL    HW225452   4.495  10.797   6.186
74519SOL     OW25453  12.877   9.740  13.958
74519SOL    HW125454  12.874   9.713  13.866
74519SOL    HW225455  12.953   9.694  13.994
74520SOL     OW25456  12.567  14.291   0.115
74520SOL    HW125457  12.633  14.236   0.158
74520SOL    HW225458  12.617  14.345   0.054
74521SOL     OW25459  12.913   2.440   0.946
74521SOL    HW125460  12.832   2.486   0.928
74521SOL    HW225461  12.969   2.459   0.870
74522SOL     OW25462   7.293   9.363   5.573
74522SOL    HW125463   7.303   9.391   5.482
74522SOL    HW225464   7.216   9.411   5.605
74523SOL     OW25465   8.220   5.035  11.144
74523SOL    HW125466   8.171   4.971  11.195
74523SOL    HW225467   8.311   5.006  11.150
74524SOL     OW25468  13.919   6.268   3.246
74524SOL    HW125469  13.933   6.173   3.249
74524SOL    HW225470  13.828   6.280   3.274
74525SOL     OW25471   9.694   4.211   0.761
74525SOL    HW125472   9.752   4.239   0.690
74525SOL    HW225473   9.608   4.206   0.720
74526SOL     OW25474   8.104  11.630  12.536
74526SOL    HW125475   8.154  11.627  12.618
74526SOL    HW225476   8.171  11.639  12.468
74527SOL     OW25477   2.211  10.310  14.542
74527SOL    HW125478   2.286  10.369  14.549
74527SOL    HW225479   2.173  10.308  14.630
74528SOL     OW25480   8.623   7.014  11.912
74528SOL    HW125481   8.679   6.950  11.956
74528SOL    HW225482   8.544   6.966  11.889
74529SOL     OW25483   2.047   9.896   3.723
74529SOL    HW125484   1.977   9.956   3.750
74529SOL    HW225485   2.088   9.869   3.805
74530SOL     OW25486   7.175  10.845  11.383
74530SOL    HW125487   7.101  10.861  11.441
74530SOL    HW225488   7.149  10.886  11.300
74531SOL     OW25489   6.239   2.057   8.267
74531SOL    HW125490   6.152   2.031   8.235
74531SOL    HW225491   6.263   2.132   8.213
74532SOL     OW25492   3.496   6.105   6.554
74532SOL    HW125493   3.578   6.063   6.578
74532SOL    HW225494   3.443   6.034   6.518
74533SOL     OW25495   2.252   9.193   8.189
74533SOL    HW125496   2.282   9.240   8.111
74533SOL    HW225497   2.181   9.247   8.224
74534SOL     OW25498   4.493  13.546   9.853
74534SOL    HW125499   4.528  13.633   9.872
74534SOL    HW225500   4.402  13.550   9.881
74535SOL     OW25501   9.819   5.012   4.322
74535SOL    HW125502   9.858   5.038   4.239
74535SOL    HW225503   9.873   5.055   4.388
74536SOL     OW25504   8.000   4.991   6.804
74536SOL    HW125505   8.087   4.968   6.773
74536SOL    HW225506   7.998   5.086   6.800
74537SOL     OW25507   2.229   4.395  12.973
74537SOL    HW125508   2.252   4.436  13.056
74537SOL    HW225509   2.150   4.440  12.944
74538SOL     OW25510   6.707   3.152   9.513
74538SOL    HW125511   6.655   3.196   9.447
74538SOL    HW225512   6.795   3.145   9.475
74539SOL     OW25513   1.709   8.616   8.394
74539SOL    HW125514   1.679   8.530   8.422
74539SOL    HW225515   1.640   8.676   8.422
74540SOL     OW25516  14.655  11.814  11.982
74540SOL    HW125517  14.732  11.807  11.926
74540SOL    HW225518  14.583  11.833  11.920
74541SOL     OW25519  10.238   6.637  11.524
74541SOL    HW125520  10.170   6.599  11.468
74541SOL    HW225521  10.315   6.581  11.510
74542SOL     OW25522   0.117   3.789  13.472
74542SOL    HW125523   0.043   3.792  13.532
74542SOL    HW225524   0.180   3.851  13.509
74543SOL     OW25525  13.481  10.086   0.383
74543SOL    HW125526  13.494  10.155   0.448
74543SOL    HW225527  13.432  10.128   0.313
74544SOL     OW25528   2.086   8.387   5.590
74544SOL    HW125529   2.028   8.414   5.519
74544SOL    HW225530   2.136   8.314   5.554
74545SOL     OW25531  11.431   4.004   2.256
74545SOL    HW125532  11.503   4.066   2.247
74545SOL    HW225533  11.415   3.971   2.168
74546SOL     OW25534   0.942   1.919  10.906
74546SOL    HW125535   0.890   1.860  10.961
74546SOL    HW225536   1.015   1.946  10.962
74547SOL     OW25537   2.303  10.577   6.708
74547SOL    HW125538   2.213  10.560   6.735
74547SOL    HW225539   2.298  10.583   6.613
74548SOL     OW25540   0.524  11.567  11.123
74548SOL    HW125541   0.483  11.571  11.210
74548SOL    HW225542   0.615  11.590  11.139
74549SOL     OW25543   7.107  13.336   8.540
74549SOL    HW125544   7.129  13.246   8.515
74549SOL    HW225545   7.115  13.337   8.636
74550SOL     OW25546   8.330   7.349   3.278
74550SOL    HW125547   8.251   7.300   3.304
74550SOL    HW225548   8.341   7.415   3.346
74551SOL     OW25549   5.428  10.984   7.762
74551SOL    HW125550   5.458  10.979   7.672
74551SOL    HW225551   5.388  11.071   7.769
74552SOL     OW25552   1.260  10.179   7.613
74552SOL    HW125553   1.312  10.157   7.691
74552SOL    HW225554   1.317  10.158   7.539
74553SOL     OW25555  11.252  14.420   3.820
74553SOL    HW125556  11.231  14.401   3.911
74553SOL    HW225557  11.174  14.464   3.787
74554SOL     OW25558   3.412  12.975  12.401
74554SOL    HW125559   3.497  12.965  12.359
74554SOL    HW225560   3.350  12.986  12.329
74555SOL     OW25561   0.035   1.512   2.788
74555SOL    HW125562   0.021   1.570   2.713
74555SOL    HW225563   0.088   1.564   2.848
74556SOL     OW25564  10.766  13.739   5.539
74556SOL    HW125565  10.694  13.707   5.594
74556SOL    HW225566  10.809  13.806   5.592
74557SOL     OW25567   0.945  10.326  12.416
74557SOL    HW125568   0.998  10.323  12.496
74557SOL    HW225569   0.871  10.382  12.438
74558SOL     OW25570  10.374  10.274  11.259
74558SOL    HW125571  10.464  10.281  11.227
74558SOL    HW225572  10.335  10.204  11.207
74559SOL     OW25573   2.884   0.973  12.647
74559SOL    HW125574   2.948   1.044  12.653
74559SOL    HW225575   2.857   0.958  12.737
74560SOL     OW25576   1.170   1.204   5.219
74560SOL    HW125577   1.234   1.226   5.150
74560SOL    HW225578   1.224   1.186   5.296
74561SOL     OW25579  11.499   6.860   3.906
74561SOL    HW125580  11.488   6.949   3.874
74561SOL    HW225581  11.564   6.822   3.847
74562SOL     OW25582   7.699   0.457  11.371
74562SOL    HW125583   7.742   0.445  11.286
74562SOL    HW225584   7.618   0.502  11.351
74563SOL     OW25585   7.920   0.877   2.100
74563SOL    HW125586   7.910   0.954   2.156
74563SOL    HW225587   7.923   0.803   2.160
74564SOL     OW25588   8.032   1.714   2.095
74564SOL    HW125589   8.027   1.804   2.126
74564SOL    HW225590   8.008   1.660   2.171
74565SOL     OW25591   9.531   5.331   2.888
74565SOL    HW125592   9.611   5.321   2.837
74565SOL    HW225593   9.460   5.315   2.826
74566SOL     OW25594   1.328   0.337  13.854
74566SOL    HW125595   1.314   0.294  13.770
74566SOL    HW225596   1.355   0.426  13.831
74567SOL     OW25597   2.807  12.216  10.366
74567SOL    HW125598   2.801  12.165  10.447
74567SOL    HW225599   2.890  12.189  10.327
74568SOL     OW25600  11.108   1.535   6.975
74568SOL    HW125601  11.123   1.616   7.023
74568SOL    HW225602  11.013   1.521   6.982
74569SOL     OW25603   7.272  12.672   8.724
74569SOL    HW125604   7.316  12.749   8.688
74569SOL    HW225605   7.335  12.635   8.786
74570SOL     OW25606  13.787   0.402   8.788
74570SOL    HW125607  13.738   0.469   8.741
74570SOL    HW225608  13.878   0.429   8.781
74571SOL     OW25609   1.503   6.245   4.235
74571SOL    HW125610   1.418   6.289   4.231
74571SOL    HW225611   1.482   6.152   4.247
74572SOL     OW25612   6.093   5.299  10.848
74572SOL    HW125613   6.114   5.373  10.791
74572SOL    HW225614   6.066   5.229  10.788
74573SOL     OW25615   2.697   5.719  14.002
74573SOL    HW125616   2.741   5.802  14.022
74573SOL    HW225617   2.703   5.669  14.083
74574SOL     OW25618  13.267  13.982  10.869
74574SOL    HW125619  13.342  14.040  10.882
74574SOL    HW225620  13.192  14.034  10.897
74575SOL     OW25621   3.570   9.089  11.379
74575SOL    HW125622   3.524   9.156  11.329
74575SOL    HW225623   3.501   9.030  11.410
74576SOL     OW25624  10.569   5.180   5.480
74576SOL    HW125625  10.484   5.146   5.451
74576SOL    HW225626  10.618   5.193   5.398
74577SOL     OW25627   4.469   2.634  10.477
74577SOL    HW125628   4.497   2.563  10.419
74577SOL    HW225629   4.386   2.663  10.439
74578SOL     OW25630   2.248  13.163   0.101
74578SOL    HW125631   2.265  13.076   0.138
74578SOL    HW225632   2.250  13.149   0.006
74579SOL     OW25633  11.720  12.343  14.362
74579SOL    HW125634  11.732  12.438  14.355
74579SOL    HW225635  11.804  12.306  14.337
74580SOL     OW25636   9.382  14.382  10.369
74580SOL    HW125637   9.452  14.437  10.405
74580SOL    HW225638   9.425  14.329  10.302
74581SOL     OW25639   7.011  11.994   5.006
74581SOL    HW125640   6.983  12.047   4.931
74581SOL    HW225641   7.040  12.057   5.071
74582SOL     OW25642   2.901   7.742   3.665
74582SOL    HW125643   2.832   7.757   3.600
74582SOL    HW225644   2.855   7.702   3.739
74583SOL     OW25645  12.308   4.236   2.762
74583SOL    HW125646  12.264   4.158   2.728
74583SOL    HW225647  12.324   4.290   2.685
74584SOL     OW25648  13.564   0.627   3.228
74584SOL    HW125649  13.500   0.691   3.262
74584SOL    HW225650  13.634   0.627   3.293
74585SOL     OW25651  13.562   2.096   4.986
74585SOL    HW125652  13.572   2.012   5.033
74585SOL    HW225653  13.628   2.153   5.026
74586SOL     OW25654   5.087   3.558  14.162
74586SOL    HW125655   5.023   3.582  14.228
74586SOL    HW225656   5.147   3.499  14.207
74587SOL     OW25657   0.006   0.312   6.591
74587SOL    HW125658   0.041   0.397   6.620
74587SOL    HW225659  14.805   0.334   6.544
74588SOL     OW25660  10.714  14.552  13.461
74588SOL    HW125661  10.639  14.531  13.517
74588SOL    HW225662  10.774  14.478  13.474
74589SOL     OW25663   6.383  11.959  13.038
74589SOL    HW125664   6.368  11.882  12.983
74589SOL    HW225665   6.305  11.966  13.093
74590SOL     OW25666   1.259   4.426  11.298
74590SOL    HW125667   1.288   4.431  11.207
74590SOL    HW225668   1.163   4.421  11.293
74591SOL     OW25669   3.278   1.348  11.362
74591SOL    HW125670   3.285   1.443  11.358
74591SOL    HW225671   3.227   1.324  11.285
74592SOL     OW25672   7.752  13.873  11.718
74592SOL    HW125673   7.843  13.867  11.690
74592SOL    HW225674   7.707  13.917  11.645
74593SOL     OW25675   6.466   0.769  14.765
74593SOL    HW125676   6.401   0.811  14.708
74593SOL    HW225677   6.508   0.705  14.709
74594SOL     OW25678   3.777  13.239   0.537
74594SOL    HW125679   3.748  13.304   0.473
74594SOL    HW225680   3.834  13.180   0.488
74595SOL     OW25681   2.976   1.494  13.821
74595SOL    HW125682   2.888   1.529  13.833
74595SOL    HW225683   3.032   1.550  13.874
74596SOL     OW25684  13.394  13.540   1.690
74596SOL    HW125685  13.300  13.556   1.685
74596SOL    HW225686  13.433  13.627   1.682
74597SOL     OW25687   2.765  10.968   0.677
74597SOL    HW125688   2.733  10.879   0.659
74597SOL    HW225689   2.823  10.989   0.604
74598SOL     OW25690  14.092  12.667  13.161
74598SOL    HW125691  14.085  12.762  13.149
74598SOL    HW225692  14.095  12.632  13.073
74599SOL     OW25693   0.794  10.020   3.184
74599SOL    HW125694   0.884   9.995   3.205
74599SOL    HW225695   0.746   9.938   3.181
74600SOL     OW25696   6.289   8.856   8.267
74600SOL    HW125697   6.198   8.861   8.238
74600SOL    HW225698   6.288   8.901   8.352
74601SOL     OW25699   4.246   3.838   2.115
74601SOL    HW125700   4.283   3.915   2.158
74601SOL    HW225701   4.267   3.765   2.173
74602SOL     OW25702   6.222  10.125   4.969
74602SOL    HW125703   6.208  10.147   4.876
74602SOL    HW225704   6.218  10.210   5.014
74603SOL     OW25705   9.531   0.383   1.162
74603SOL    HW125706   9.471   0.322   1.205
74603SOL    HW225707   9.533   0.353   1.071
74604SOL     OW25708   9.891  11.351  10.264
74604SOL    HW125709   9.905  11.324  10.174
74604SOL    HW225710   9.977  11.341  10.306
74605SOL     OW25711  12.638   7.872  10.588
74605SOL    HW125712  12.640   7.897  10.680
74605SOL    HW225713  12.630   7.776  10.590
74606SOL     OW25714   5.541   9.278   6.912
74606SOL    HW125715   5.619   9.263   6.859
74606SOL    HW225716   5.547   9.213   6.982
74607SOL     OW25717  12.065  10.586   6.614
74607SOL    HW125718  12.142  10.585   6.670
74607SOL    HW225719  11.995  10.550   6.668
74608SOL     OW25720   1.893  13.288   0.670
74608SOL    HW125721   1.856  13.257   0.753
74608SOL    HW225722   1.826  13.348   0.635
74609SOL     OW25723  12.202   5.632   8.950
74609SOL    HW125724  12.204   5.660   8.859
74609SOL    HW225725  12.249   5.701   8.997
74610SOL     OW25726   3.306   3.616   8.291
74610SOL    HW125727   3.344   3.529   8.277
74610SOL    HW225728   3.218   3.609   8.253
74611SOL     OW25729   8.940   5.257   9.799
74611SOL    HW125730   8.892   5.285   9.721
74611SOL    HW225731   8.986   5.177   9.772
74612SOL     OW25732  13.450   2.694   9.063
74612SOL    HW125733  13.357   2.675   9.072
74612SOL    HW225734  13.485   2.684   9.151
74613SOL     OW25735  12.154   2.398  14.805
74613SOL    HW125736  12.173   2.425  14.715
74613SOL    HW225737  12.072   2.443  14.826
74614SOL     OW25738   5.817   4.186   1.083
74614SOL    HW125739   5.867   4.205   1.004
74614SOL    HW225740   5.857   4.242   1.150
74615SOL     OW25741   0.931  10.404   4.115
74615SOL    HW125742   0.890  10.360   4.041
74615SOL    HW225743   0.872  10.387   4.188
74616SOL     OW25744  14.834  11.077   4.127
74616SOL    HW125745   0.009  11.011   4.171
74616SOL    HW225746  14.761  11.092   4.187
74617SOL     OW25747   9.911   0.566  13.510
74617SOL    HW125748   9.905   0.586  13.417
74617SOL    HW225749   9.831   0.516  13.529
74618SOL     OW25750  12.997   2.186   7.411
74618SOL    HW125751  13.084   2.221   7.394
74618SOL    HW225752  12.968   2.153   7.326
74619SOL     OW25753   3.951  10.697   4.213
74619SOL    HW125754   4.034  10.745   4.216
74619SOL    HW225755   3.921  10.694   4.304
74620SOL     OW25756   6.038   0.942   5.294
74620SOL    HW125757   6.002   1.013   5.242
74620SOL    HW225758   6.018   0.967   5.385
74621SOL     OW25759   8.680  13.713   4.749
74621SOL    HW125760   8.734  13.634   4.744
74621SOL    HW225761   8.712  13.760   4.825
74622SOL     OW25762   6.681   3.720  14.497
74622SOL    HW125763   6.721   3.691  14.579
74622SOL    HW225764   6.587   3.706  14.510
74623SOL     OW25765  14.526   0.572   1.728
74623SOL    HW125766  14.570   0.521   1.796
74623SOL    HW225767  14.592   0.635   1.699
74624SOL     OW25768   2.299  14.801   5.727
74624SOL    HW125769   2.278  14.736   5.793
74624SOL    HW225770   2.383  14.773   5.690
74625SOL     OW25771  11.899  10.782  13.571
74625SOL    HW125772  11.951  10.850  13.614
74625SOL    HW225773  11.870  10.725  13.643
74626SOL     OW25774   5.025   3.508   6.455
74626SOL    HW125775   4.965   3.570   6.495
74626SOL    HW225776   5.065   3.462   6.528
74627SOL     OW25777   0.461   6.881  10.349
74627SOL    HW125778   0.449   6.788  10.329
74627SOL    HW225779   0.481   6.883  10.443
74628SOL     OW25780  13.769   1.585   9.982
74628SOL    HW125781  13.749   1.501  10.021
74628SOL    HW225782  13.862   1.579   9.958
74629SOL     OW25783  11.560   9.462   0.023
74629SOL    HW125784  11.590   9.451   0.113
74629SOL    HW225785  11.634   9.502  14.857
74630SOL     OW25786  12.269  11.601   3.846
74630SOL    HW125787  12.205  11.570   3.910
74630SOL    HW225788  12.354  11.580   3.884
74631SOL     OW25789   7.515  12.241   7.310
74631SOL    HW125790   7.421  12.228   7.318
74631SOL    HW225791   7.545  12.259   7.399
74632SOL     OW25792   4.524   7.656   4.529
74632SOL    HW125793   4.460   7.720   4.560
74632SOL    HW225794   4.496   7.635   4.440
74633SOL     OW25795   9.283  10.502  14.235
74633SOL    HW125796   9.258  10.518  14.144
74633SOL    HW225797   9.201  10.500  14.283
74634SOL     OW25798  10.317   1.985   1.539
74634SOL    HW125799  10.404   1.964   1.505
74634SOL    HW225800  10.261   1.989   1.461
74635SOL     OW25801   3.109   0.970   2.492
74635SOL    HW125802   3.096   1.064   2.487
74635SOL    HW225803   3.021   0.932   2.485
74636SOL     OW25804   1.161   7.646   2.773
74636SOL    HW125805   1.077   7.612   2.741
74636SOL    HW225806   1.225   7.614   2.709
74637SOL     OW25807   6.183   1.104   6.202
74637SOL    HW125808   6.276   1.126   6.194
74637SOL    HW225809   6.161   1.121   6.293
74638SOL     OW25810   4.483   6.945   6.274
74638SOL    HW125811   4.529   6.985   6.347
74638SOL    HW225812   4.503   6.851   6.281
74639SOL     OW25813   0.051  13.150  12.835
74639SOL    HW125814  14.867  13.201  12.885
74639SOL    HW225815   0.002  13.118  12.759
74640SOL     OW25816  12.889   0.804   9.981
74640SOL    HW125817  12.951   0.823   9.911
74640SOL    HW225818  12.826   0.743   9.941
74641SOL     OW25819   4.443   7.849  14.121
74641SOL    HW125820   4.411   7.920  14.067
74641SOL    HW225821   4.507   7.890  14.180
74642SOL     OW25822  10.938   5.735  12.993
74642SOL    HW125823  11.010   5.746  12.931
74642SOL    HW225824  10.897   5.652  12.969
74643SOL     OW25825  10.433   9.884  14.046
74643SOL    HW125826  10.516   9.859  14.087
74643SOL    HW225827  10.373   9.812  14.068
74644SOL     OW25828  11.170   3.914   3.127
74644SOL    HW125829  11.158   3.981   3.060
74644SOL    HW225830  11.162   3.962   3.210
74645SOL     OW25831   5.391   0.565   6.118
74645SOL    HW125832   5.399   0.478   6.079
74645SOL    HW225833   5.394   0.625   6.043
74646SOL     OW25834  10.614   9.372   8.660
74646SOL    HW125835  10.696   9.358   8.707
74646SOL    HW225836  10.635   9.351   8.569
74647SOL     OW25837   1.199   9.776   1.376
74647SOL    HW125838   1.268   9.824   1.422
74647SOL    HW225839   1.167   9.838   1.311
74648SOL     OW25840  13.758  12.010   5.144
74648SOL    HW125841  13.810  12.045   5.216
74648SOL    HW225842  13.785  12.061   5.068
74649SOL     OW25843  10.291   7.332   2.242
74649SOL    HW125844  10.220   7.357   2.182
74649SOL    HW225845  10.253   7.265   2.298
74650SOL     OW25846   6.962   9.035   2.909
74650SOL    HW125847   6.962   9.059   3.001
74650SOL    HW225848   6.946   8.941   2.908
74651SOL     OW25849  11.052  10.075   0.584
74651SOL    HW125850  11.017  10.152   0.537
74651SOL    HW225851  11.083  10.017   0.514
74652SOL     OW25852  11.224  13.468   7.411
74652SOL    HW125853  11.207  13.491   7.502
74652SOL    HW225854  11.239  13.552   7.367
74653SOL     OW25855   5.383   7.907  14.241
74653SOL    HW125856   5.434   7.885  14.163
74653SOL    HW225857   5.310   7.845  14.241
74654SOL     OW25858   2.267  12.753  13.404
74654SOL    HW125859   2.360  12.736  13.423
74654SOL    HW225860   2.220  12.689  13.457
74655SOL     OW25861   0.804   6.334  10.603
74655SOL    HW125862   0.850   6.285  10.535
74655SOL    HW225863   0.852   6.417  10.608
74656SOL     OW25864   2.722   3.966   5.654
74656SOL    HW125865   2.756   4.051   5.680
74656SOL    HW225866   2.794   3.925   5.606
74657SOL     OW25867   6.516  10.350   9.099
74657SOL    HW125868   6.426  10.317   9.095
74657SOL    HW225869   6.567  10.277   9.134
74658SOL     OW25870   1.812  13.315   1.869
74658SOL    HW125871   1.904  13.309   1.844
74658SOL    HW225872   1.795  13.237   1.921
74659SOL     OW25873   5.323   3.282   1.431
74659SOL    HW125874   5.374   3.352   1.472
74659SOL    HW225875   5.241   3.324   1.406
74660SOL     OW25876   4.250   5.751   0.148
74660SOL    HW125877   4.297   5.726   0.228
74660SOL    HW225878   4.258   5.676   0.091
74661SOL     OW25879   7.095   3.491  11.842
74661SOL    HW125880   7.168   3.462  11.897
74661SOL    HW225881   7.121   3.468  11.753
74662SOL     OW25882   2.233  10.399  13.852
74662SOL    HW125883   2.304  10.463  13.866
74662SOL    HW225884   2.275  10.328  13.803
74663SOL     OW25885  14.211  14.409   1.144
74663SOL    HW125886  14.211  14.504   1.136
74663SOL    HW225887  14.119  14.385   1.153
74664SOL     OW25888   8.986   9.966   0.799
74664SOL    HW125889   9.017   9.905   0.867
74664SOL    HW225890   9.063   9.982   0.745
74665SOL     OW25891  13.992  11.011  11.877
74665SOL    HW125892  14.018  10.936  11.930
74665SOL    HW225893  13.897  11.005  11.872
74666SOL     OW25894  10.414   8.177   0.328
74666SOL    HW125895  10.383   8.086   0.331
74666SOL    HW225896  10.508   8.171   0.344
74667SOL     OW25897   7.002   5.691  13.561
74667SOL    HW125898   7.040   5.603  13.548
74667SOL    HW225899   6.943   5.681  13.635
74668SOL     OW25900   9.941   0.174  14.260
74668SOL    HW125901  10.004   0.164  14.332
74668SOL    HW225902   9.988   0.226  14.195
74669SOL     OW25903   0.806   0.601   9.752
74669SOL    HW125904   0.825   0.632   9.663
74669SOL    HW225905   0.719   0.637   9.772
74670SOL     OW25906   7.026   0.999   9.884
74670SOL    HW125907   6.983   0.985   9.968
74670SOL    HW225908   6.964   0.965   9.819
74671SOL     OW25909  12.549   3.986   3.326
74671SOL    HW125910  12.586   3.985   3.238
74671SOL    HW225911  12.490   4.062   3.326
74672SOL     OW25912   3.219   4.612   4.169
74672SOL    HW125913   3.201   4.673   4.098
74672SOL    HW225914   3.135   4.568   4.185
74673SOL     OW25915   6.012   0.704   9.284
74673SOL    HW125916   5.972   0.767   9.344
74673SOL    HW225917   6.100   0.739   9.267
74674SOL     OW25918   1.097   0.852  14.870
74674SOL    HW125919   1.165   0.916   0.010
74674SOL    HW225920   1.068   0.820   0.075
74675SOL     OW25921  12.478   1.104   1.170
74675SOL    HW125922  12.477   1.009   1.164
74675SOL    HW225923  12.483   1.134   1.079
74676SOL     OW25924  13.827   5.798   1.331
74676SOL    HW125925  13.817   5.881   1.284
74676SOL    HW225926  13.860   5.737   1.265
74677SOL     OW25927   4.810   5.083   8.475
74677SOL    HW125928   4.842   5.018   8.412
74677SOL    HW225929   4.769   5.150   8.421
74678SOL     OW25930  10.796   0.276   4.491
74678SOL    HW125931  10.781   0.199   4.545
74678SOL    HW225932  10.880   0.260   4.447
74679SOL     OW25933  11.068  11.485   4.918
74679SOL    HW125934  10.985  11.442   4.940
74679SOL    HW225935  11.082  11.548   4.989
74680SOL     OW25936  10.272   7.915  14.271
74680SOL    HW125937  10.266   7.965  14.190
74680SOL    HW225938  10.200   7.948  14.325
74681SOL     OW25939   4.049   2.845  11.099
74681SOL    HW125940   4.030   2.935  11.128
74681SOL    HW225941   4.124   2.818  11.152
74682SOL     OW25942  12.026   2.605   4.457
74682SOL    HW125943  11.937   2.606   4.423
74682SOL    HW225944  12.051   2.697   4.463
74683SOL     OW25945   8.313   0.188  10.886
74683SOL    HW125946   8.344   0.166  10.974
74683SOL    HW225947   8.232   0.237  10.900
74684SOL     OW25948  12.482  12.543   1.837
74684SOL    HW125949  12.489  12.632   1.802
74684SOL    HW225950  12.479  12.554   1.932
74685SOL     OW25951  13.078   1.637   7.960
74685SOL    HW125952  13.004   1.697   7.973
74685SOL    HW225953  13.096   1.641   7.866
74686SOL     OW25954   4.798   5.153   5.404
74686SOL    HW125955   4.735   5.144   5.475
74686SOL    HW225956   4.882   5.165   5.448
74687SOL     OW25957  13.842  14.213   5.045
74687SOL    HW125958  13.843  14.295   4.995
74687SOL    HW225959  13.751  14.184   5.041
74688SOL     OW25960  12.956  11.895  10.479
74688SOL    HW125961  12.878  11.860  10.522
74688SOL    HW225962  12.953  11.860  10.390
74689SOL     OW25963  13.289   8.536   0.110
74689SOL    HW125964  13.200   8.520   0.141
74689SOL    HW225965  13.285   8.623   0.069
74690SOL     OW25966  11.447  10.618   2.142
74690SOL    HW125967  11.373  10.677   2.150
74690SOL    HW225968  11.447  10.591   2.050
74691SOL     OW25969   0.073   1.418   7.249
74691SOL    HW125970   0.065   1.395   7.341
74691SOL    HW225971   0.004   1.366   7.206
74692SOL     OW25972  14.177   5.421   0.542
74692SOL    HW125973  14.187   5.377   0.458
74692SOL    HW225974  14.235   5.373   0.602
74693SOL     OW25975   1.885   3.737   7.153
74693SOL    HW125976   1.835   3.813   7.127
74693SOL    HW225977   1.860   3.669   7.091
74694SOL     OW25978   5.831   7.144   6.686
74694SOL    HW125979   5.841   7.064   6.635
74694SOL    HW225980   5.758   7.190   6.644
74695SOL     OW25981   6.976   2.673  11.569
74695SOL    HW125982   7.034   2.747  11.553
74695SOL    HW225983   6.991   2.615  11.495
74696SOL     OW25984  10.883  14.484   6.451
74696SOL    HW125985  10.929  14.536   6.385
74696SOL    HW225986  10.869  14.399   6.410
74697SOL     OW25987   4.655  10.206  12.332
74697SOL    HW125988   4.732  10.260  12.353
74697SOL    HW225989   4.690  10.119  12.316
74698SOL     OW25990   7.873  11.234   2.162
74698SOL    HW125991   7.811  11.167   2.133
74698SOL    HW225992   7.819  11.294   2.215
74699SOL     OW25993  11.750   1.799   4.175
74699SOL    HW125994  11.838   1.775   4.145
74699SOL    HW225995  11.765   1.867   4.241
74700SOL     OW25996   4.818   4.999  12.838
74700SOL    HW125997   4.728   5.030  12.824
74700SOL    HW225998   4.819   4.911  12.803
74701SOL     OW25999   9.522  14.171  14.550
74701SOL    HW126000   9.507  14.256  14.592
74701SOL    HW226001   9.526  14.109  14.623
74702SOL     OW26002   1.795   9.957   6.865
74702SOL    HW126003   1.849   9.931   6.940
74702SOL    HW226004   1.799  10.053   6.865
74703SOL     OW26005   9.521   8.730   8.503
74703SOL    HW126006   9.453   8.792   8.532
74703SOL    HW226007   9.472   8.652   8.475
74704SOL     OW26008   9.932  13.561   2.694
74704SOL    HW126009   9.856  13.537   2.747
74704SOL    HW226010   9.898  13.621   2.628
74705SOL     OW26011  10.079   1.190  13.456
74705SOL    HW126012  10.097   1.280  13.430
74705SOL    HW226013  10.033   1.151  13.382
74706SOL     OW26014  12.231   6.127   5.603
74706SOL    HW126015  12.158   6.176   5.641
74706SOL    HW226016  12.278   6.192   5.550
74707SOL     OW26017   1.624   9.078   4.160
74707SOL    HW126018   1.561   9.026   4.209
74707SOL    HW226019   1.654   9.144   4.222
74708SOL     OW26020   9.670   4.670   8.805
74708SOL    HW126021   9.665   4.758   8.844
74708SOL    HW226022   9.603   4.671   8.737
74709SOL     OW26023   9.760  10.996   5.054
74709SOL    HW126024   9.778  11.089   5.068
74709SOL    HW226025   9.840  10.952   5.082
74710SOL     OW26026   0.459  12.134   0.092
74710SOL    HW126027   0.486  12.224   0.109
74710SOL    HW226028   0.457  12.127  14.876
74711SOL     OW26029  12.796   0.366  14.379
74711SOL    HW126030  12.828   0.390  14.293
74711SOL    HW226031  12.763   0.276  14.369
74712SOL     OW26032  12.912  12.314   3.942
74712SOL    HW126033  12.896  12.322   3.848
74712SOL    HW226034  12.833  12.348   3.983
74713SOL     OW26035  13.143   7.141  11.151
74713SOL    HW126036  13.110   7.058  11.185
74713SOL    HW226037  13.073   7.204  11.171
74714SOL     OW26038   8.098  13.629   2.694
74714SOL    HW126039   8.168  13.686   2.662
74714SOL    HW226040   8.034  13.689   2.732
74715SOL     OW26041  14.170   1.260   3.523
74715SOL    HW126042  14.121   1.226   3.448
74715SOL    HW226043  14.113   1.243   3.598
74716SOL     OW26044  13.290   1.546   0.450
74716SOL    HW126045  13.338   1.516   0.373
74716SOL    HW226046  13.293   1.472   0.510
74717SOL     OW26047   8.322  10.935   7.784
74717SOL    HW126048   8.233  10.913   7.757
74717SOL    HW226049   8.341  11.016   7.737
74718SOL     OW26050   6.087  14.349  10.492
74718SOL    HW126051   6.085  14.415  10.423
74718SOL    HW226052   6.152  14.285  10.462
74719SOL     OW26053   1.192  11.948  13.787
74719SOL    HW126054   1.247  11.966  13.712
74719SOL    HW226055   1.109  11.918  13.750
74720SOL     OW26056   2.494  11.115  14.822
74720SOL    HW126057   2.547  11.048  14.865
74720SOL    HW226058   2.558  11.175  14.783
74721SOL     OW26059   1.007   0.950  10.254
74721SOL    HW126060   0.964   1.034  10.267
74721SOL    HW226061   1.100   0.969  10.267
74722SOL     OW26062   9.653   2.834   1.662
74722SOL    HW126063   9.723   2.781   1.700
74722SOL    HW226064   9.573   2.805   1.707
74723SOL     OW26065   5.480   8.265   4.419
74723SOL    HW126066   5.511   8.208   4.349
74723SOL    HW226067   5.537   8.342   4.415
74724SOL     OW26068   3.690   4.968   2.327
74724SOL    HW126069   3.716   5.054   2.359
74724SOL    HW226070   3.746   4.907   2.375
74725SOL     OW26071  11.482   0.155  13.837
74725SOL    HW126072  11.400   0.154  13.787
74725SOL    HW226073  11.466   0.096  13.911
74726SOL     OW26074   8.157   6.677  14.323
74726SOL    HW126075   8.251   6.686  14.306
74726SOL    HW226076   8.137   6.586  14.302
74727SOL     OW26077   1.391   3.947   9.324
74727SOL    HW126078   1.313   3.904   9.290
74727SOL    HW226079   1.364   4.037   9.341
74728SOL     OW26080   8.466  13.309  14.042
74728SOL    HW126081   8.489  13.399  14.021
74728SOL    HW226082   8.508  13.293  14.127
74729SOL     OW26083   4.460  12.243   4.091
74729SOL    HW126084   4.451  12.154   4.124
74729SOL    HW226085   4.551  12.248   4.061
74730SOL     OW26086   1.906   6.102   4.541
74730SOL    HW126087   1.868   6.154   4.613
74730SOL    HW226088   1.888   6.011   4.566
74731SOL     OW26089  14.436  12.256   1.307
74731SOL    HW126090  14.402  12.172   1.338
74731SOL    HW226091  14.498  12.232   1.238
74732SOL     OW26092   8.814  10.801   0.400
74732SOL    HW126093   8.722  10.804   0.426
74732SOL    HW226094   8.862  10.828   0.478
74733SOL     OW26095   8.875  12.092  11.022
74733SOL    HW126096   8.953  12.041  11.004
74733SOL    HW226097   8.803  12.040  10.985
74734SOL     OW26098  13.802  11.401  11.304
74734SOL    HW126099  13.846  11.486  11.317
74734SOL    HW226100  13.722  11.422  11.256
74735SOL     OW26101   3.239   0.269   3.081
74735SOL    HW126102   3.150   0.286   3.049
74735SOL    HW226103   3.259   0.181   3.049
74736SOL     OW26104   4.124   6.742   2.762
74736SOL    HW126105   4.038   6.711   2.735
74736SOL    HW226106   4.152   6.799   2.691
74737SOL     OW26107  12.708   9.435  10.261
74737SOL    HW126108  12.678   9.353  10.300
74737SOL    HW226109  12.734   9.410  10.172
74738SOL     OW26110   8.922  12.277   5.064
74738SOL    HW126111   9.001  12.254   5.114
74738SOL    HW226112   8.856  12.214   5.093
74739SOL     OW26113  11.799   0.753   4.706
74739SOL    HW126114  11.872   0.718   4.655
74739SOL    HW226115  11.752   0.676   4.738
74740SOL     OW26116   6.664   4.056   3.301
74740SOL    HW126117   6.680   4.123   3.235
74740SOL    HW226118   6.605   4.098   3.364
74741SOL     OW26119   5.263   9.419  10.057
74741SOL    HW126120   5.347   9.444  10.019
74741SOL    HW226121   5.263   9.324  10.055
74742SOL     OW26122   2.226  14.860  13.214
74742SOL    HW126123   2.246  14.784  13.159
74742SOL    HW226124   2.311   0.020  13.231
74743SOL     OW26125   8.076   6.178  10.638
74743SOL    HW126126   8.169   6.183  10.660
74743SOL    HW226127   8.074   6.175  10.543
74744SOL     OW26128   8.299   3.129   1.699
74744SOL    HW126129   8.301   3.179   1.617
74744SOL    HW226130   8.232   3.062   1.684
74745SOL     OW26131   4.653   8.811   7.216
74745SOL    HW126132   4.561   8.836   7.221
74745SOL    HW226133   4.662   8.766   7.132
74746SOL     OW26134  14.508   1.724  13.274
74746SOL    HW126135  14.566   1.785  13.320
74746SOL    HW226136  14.548   1.713  13.188
74747SOL     OW26137   2.845   0.885   5.603
74747SOL    HW126138   2.823   0.801   5.562
74747SOL    HW226139   2.910   0.863   5.670
74748SOL     OW26140   1.253  11.100   3.019
74748SOL    HW126141   1.202  11.032   2.974
74748SOL    HW226142   1.249  11.175   2.961
74749SOL     OW26143   3.035  14.660   1.471
74749SOL    HW126144   2.944  14.656   1.498
74749SOL    HW226145   3.039  14.735   1.412
74750SOL     OW26146  10.985   3.490   2.891
74750SOL    HW126147  10.970   3.430   2.964
74750SOL    HW226148  11.080   3.500   2.888
74751SOL     OW26149   7.459  13.131   5.186
74751SOL    HW126150   7.415  13.214   5.204
74751SOL    HW226151   7.393  13.064   5.205
74752SOL     OW26152  12.845   8.971   2.571
74752SOL    HW126153  12.839   9.022   2.490
74752SOL    HW226154  12.939   8.963   2.588
74753SOL     OW26155   1.789  14.294   9.856
74753SOL    HW126156   1.878  14.303   9.891
74753SOL    HW226157   1.800  14.298   9.761
74754SOL     OW26158   4.032  12.848   4.796
74754SOL    HW126159   4.127  12.847   4.789
74754SOL    HW226160   4.013  12.918   4.859
74755SOL     OW26161   6.344   5.776   9.413
74755SOL    HW126162   6.281   5.705   9.403
74755SOL    HW226163   6.291   5.856   9.409
74756SOL     OW26164  13.676  12.164   0.585
74756SOL    HW126165  13.608  12.205   0.638
74756SOL    HW226166  13.630  12.137   0.505
74757SOL     OW26167   9.879   6.834   2.774
74757SOL    HW126168   9.815   6.793   2.832
74757SOL    HW226169   9.931   6.891   2.831
74758SOL     OW26170   1.758   2.339   2.803
74758SOL    HW126171   1.687   2.366   2.861
74758SOL    HW226172   1.837   2.379   2.841
74759SOL     OW26173  11.525  12.089   7.840
74759SOL    HW126174  11.578  12.127   7.770
74759SOL    HW226175  11.589  12.052   7.901
74760SOL     OW26176   6.339   2.627   4.455
74760SOL    HW126177   6.417   2.669   4.420
74760SOL    HW226178   6.359   2.609   4.547
74761SOL     OW26179   3.058   5.946   3.969
74761SOL    HW126180   3.014   5.888   3.907
74761SOL    HW226181   2.989   6.006   3.998
74762SOL     OW26182   5.416   1.704   4.706
74762SOL    HW126183   5.388   1.667   4.622
74762SOL    HW226184   5.496   1.752   4.685
74763SOL     OW26185   7.564  14.383   7.291
74763SOL    HW126186   7.526  14.393   7.204
74763SOL    HW226187   7.563  14.288   7.306
74764SOL     OW26188  11.531   9.285   2.402
74764SOL    HW126189  11.533   9.245   2.489
74764SOL    HW226190  11.606   9.247   2.356
74765SOL     OW26191   2.647   7.337  10.026
74765SOL    HW126192   2.639   7.419   9.978
74765SOL    HW226193   2.621   7.269   9.964
74766SOL     OW26194   9.307  14.384   0.626
74766SOL    HW126195   9.274  14.421   0.708
74766SOL    HW226196   9.402  14.380   0.638
74767SOL     OW26197   3.477  11.121  10.898
74767SOL    HW126198   3.490  11.127  10.803
74767SOL    HW226199   3.382  11.122  10.909
74768SOL     OW26200   2.323  12.369   4.956
74768SOL    HW126201   2.369  12.291   4.925
74768SOL    HW226202   2.245  12.335   5.001
74769SOL     OW26203  12.814   2.062   8.423
74769SOL    HW126204  12.844   2.084   8.335
74769SOL    HW226205  12.823   2.144   8.472
74770SOL     OW26206   1.644   4.982   5.986
74770SOL    HW126207   1.697   4.943   5.916
74770SOL    HW226208   1.617   5.067   5.953
74771SOL     OW26209   8.750   3.056   6.163
74771SOL    HW126210   8.807   3.029   6.091
74771SOL    HW226211   8.808   3.060   6.239
74772SOL     OW26212   9.866   7.907   0.869
74772SOL    HW126213   9.782   7.880   0.831
74772SOL    HW226214   9.908   7.958   0.800
74773SOL     OW26215  12.761   4.737  13.556
74773SOL    HW126216  12.756   4.647  13.587
74773SOL    HW226217  12.675   4.754  13.518
74774SOL     OW26218  11.510   4.675   8.194
74774SOL    HW126219  11.426   4.634   8.216
74774SOL    HW226220  11.566   4.658   8.270
74775SOL     OW26221  10.390   2.260   1.227
74775SOL    HW126222  10.426   2.324   1.167
74775SOL    HW226223  10.463   2.239   1.286
74776SOL     OW26224  12.246   2.148   3.482
74776SOL    HW126225  12.227   2.093   3.558
74776SOL    HW226226  12.333   2.119   3.453
74777SOL     OW26227   5.542  10.745   0.231
74777SOL    HW126228   5.486  10.807   0.278
74777SOL    HW226229   5.630  10.762   0.265
74778SOL     OW26230   3.304   7.583   9.516
74778SOL    HW126231   3.335   7.673   9.524
74778SOL    HW226232   3.344   7.537   9.590
74779SOL     OW26233   6.647   2.617   9.605
74779SOL    HW126234   6.624   2.704   9.637
74779SOL    HW226235   6.595   2.557   9.659
74780SOL     OW26236  11.372   3.823   2.983
74780SOL    HW126237  11.331   3.823   2.896
74780SOL    HW226238  11.303   3.851   3.042
74781SOL     OW26239   2.076  13.464   8.907
74781SOL    HW126240   2.019  13.526   8.953
74781SOL    HW226241   2.149  13.450   8.967
74782SOL     OW26242  12.704   8.556  12.973
74782SOL    HW126243  12.663   8.554  12.886
74782SOL    HW226244  12.640   8.514  13.030
74783SOL     OW26245   5.186  14.577  11.426
74783SOL    HW126246   5.100  14.541  11.449
74783SOL    HW226247   5.247  14.505  11.439
74784SOL     OW26248   7.249  10.910   3.058
74784SOL    HW126249   7.281  10.825   3.028
74784SOL    HW226250   7.223  10.896   3.149
74785SOL     OW26251  11.150   8.217   8.112
74785SOL    HW126252  11.140   8.259   8.027
74785SOL    HW226253  11.205   8.141   8.096
74786SOL     OW26254  11.022  13.081   2.350
74786SOL    HW126255  11.063  13.141   2.288
74786SOL    HW226256  11.090  13.062   2.415
74787SOL     OW26257   3.741  14.325   0.991
74787SOL    HW126258   3.706  14.252   1.042
74787SOL    HW226259   3.828  14.341   1.027
74788SOL     OW26260   8.966   8.019  14.213
74788SOL    HW126261   9.027   7.977  14.273
74788SOL    HW226262   9.020   8.049  14.140
74789SOL     OW26263   8.139   9.741   9.039
74789SOL    HW126264   8.132   9.646   9.030
74789SOL    HW226265   8.066   9.775   8.987
74790SOL     OW26266   8.175   5.302   5.756
74790SOL    HW126267   8.239   5.334   5.692
74790SOL    HW226268   8.210   5.328   5.841
74791SOL     OW26269  14.506   6.207  14.413
74791SOL    HW126270  14.505   6.276  14.347
74791SOL    HW226271  14.522   6.126  14.363
74792SOL     OW26272  13.576  10.454   7.399
74792SOL    HW126273  13.668  10.442   7.374
74792SOL    HW226274  13.528  10.398   7.338
74793SOL     OW26275  14.657   6.504   2.181
74793SOL    HW126276  14.662   6.410   2.166
74793SOL    HW226277  14.599   6.536   2.112
74794SOL     OW26278  13.279   6.605   9.458
74794SOL    HW126279  13.307   6.629   9.370
74794SOL    HW226280  13.224   6.528   9.446
74795SOL     OW26281   6.921   4.627  13.439
74795SOL    HW126282   6.891   4.655  13.352
74795SOL    HW226283   6.989   4.563  13.421
74796SOL     OW26284   1.965  12.467   0.569
74796SOL    HW126285   1.879  12.426   0.559
74796SOL    HW226286   1.964  12.541   0.508
74797SOL     OW26287  14.750   6.119  10.435
74797SOL    HW126288  14.786   6.207  10.441
74797SOL    HW226289  14.695   6.121  10.357
74798SOL     OW26290  12.259  14.593   8.569
74798SOL    HW126291  12.278  14.520   8.628
74798SOL    HW226292  12.165  14.608   8.579
74799SOL     OW26293  12.345   3.820   7.258
74799SOL    HW126294  12.254   3.833   7.285
74799SOL    HW226295  12.382   3.908   7.255
74800SOL     OW26296  10.101  14.837   2.607
74800SOL    HW126297  10.145  14.836   2.692
74800SOL    HW226298  10.171  14.817   2.544
74801SOL     OW26299   2.609  10.374  10.144
74801SOL    HW126300   2.631  10.453  10.094
74801SOL    HW226301   2.571  10.314  10.080
74802SOL     OW26302  14.742   8.738   9.203
74802SOL    HW126303  14.656   8.756   9.168
74802SOL    HW226304  14.741   8.644   9.223
74803SOL     OW26305  12.791   0.317  10.528
74803SOL    HW126306  12.702   0.287  10.514
74803SOL    HW226307  12.812   0.289  10.617
74804SOL     OW26308   6.189   0.953   5.568
74804SOL    HW126309   6.265   0.918   5.614
74804SOL    HW226310   6.179   0.896   5.492
74805SOL     OW26311   7.686   9.241  13.884
74805SOL    HW126312   7.639   9.318  13.916
74805SOL    HW226313   7.621   9.172  13.880
74806SOL     OW26314   4.951   1.717  10.895
74806SOL    HW126315   4.988   1.800  10.925
74806SOL    HW226316   5.025   1.672  10.854
74807SOL     OW26317   9.902   6.879   3.634
74807SOL    HW126318   9.854   6.852   3.555
74807SOL    HW226319   9.983   6.919   3.601
74808SOL     OW26320  10.085  12.283   0.288
74808SOL    HW126321   9.996  12.267   0.257
74808SOL    HW226322  10.095  12.378   0.285
74809SOL     OW26323   2.087  12.664  10.066
74809SOL    HW126324   2.105  12.570  10.076
74809SOL    HW226325   2.071  12.695  10.155
74810SOL     OW26326  10.440   9.595   4.076
74810SOL    HW126327  10.513   9.561   4.026
74810SOL    HW226328  10.362   9.557   4.035
74811SOL     OW26329  13.794  13.744  12.525
74811SOL    HW126330  13.770  13.695  12.604
74811SOL    HW226331  13.748  13.698  12.454
74812SOL     OW26332   4.353   8.610   2.709
74812SOL    HW126333   4.276   8.558   2.687
74812SOL    HW226334   4.321   8.677   2.769
74813SOL     OW26335  12.030   8.274   6.078
74813SOL    HW126336  12.044   8.295   5.986
74813SOL    HW226337  11.935   8.270   6.087
74814SOL     OW26338   3.875   6.830   3.681
74814SOL    HW126339   3.821   6.826   3.761
74814SOL    HW226340   3.939   6.898   3.699
74815SOL     OW26341  10.447   5.297   2.409
74815SOL    HW126342  10.366   5.307   2.359
74815SOL    HW226343  10.460   5.383   2.449
74816SOL     OW26344   2.675  10.113   6.655
74816SOL    HW126345   2.616  10.115   6.730
74816SOL    HW226346   2.740  10.181   6.674
74817SOL     OW26347   4.680  14.749   0.698
74817SOL    HW126348   4.643  14.830   0.733
74817SOL    HW226349   4.617  14.681   0.723
74818SOL     OW26350   9.990   9.492   5.308
74818SOL    HW126351   9.894   9.499   5.308
74818SOL    HW226352  10.018   9.558   5.245
74819SOL     OW26353   6.899   4.133  10.486
74819SOL    HW126354   6.820   4.178  10.514
74819SOL    HW226355   6.907   4.156  10.393
74820SOL     OW26356   2.578  11.632   3.445
74820SOL    HW126357   2.568  11.657   3.536
74820SOL    HW226358   2.521  11.691   3.396
74821SOL     OW26359   4.399   0.330   8.829
74821SOL    HW126360   4.334   0.302   8.894
74821SOL    HW226361   4.401   0.425   8.837
74822SOL     OW26362   2.897  10.411  13.871
74822SOL    HW126363   2.952  10.355  13.926
74822SOL    HW226364   2.958  10.477  13.836
74823SOL     OW26365   2.185   7.162  14.568
74823SOL    HW126366   2.104   7.142  14.522
74823SOL    HW226367   2.221   7.076  14.592
74824SOL     OW26368   7.526   3.898  14.617
74824SOL    HW126369   7.485   3.812  14.611
74824SOL    HW226370   7.620   3.880  14.621
74825SOL     OW26371   7.376   5.046  12.706
74825SOL    HW126372   7.281   5.033  12.712
74825SOL    HW226373   7.402   5.000  12.626
74826SOL     OW26374  12.027   5.073  11.346
74826SOL    HW126375  11.933   5.051  11.342
74826SOL    HW226376  12.036   5.150  11.290
74827SOL     OW26377   3.361   9.173   3.773
74827SOL    HW126378   3.339   9.221   3.853
74827SOL    HW226379   3.417   9.233   3.723
74828SOL     OW26380  14.396   0.745   6.900
74828SOL    HW126381  14.443   0.825   6.921
74828SOL    HW226382  14.349   0.722   6.980
74829SOL     OW26383   1.052   2.494   1.438
74829SOL    HW126384   0.982   2.556   1.456
74829SOL    HW226385   1.025   2.450   1.358
74830SOL     OW26386   1.781  11.108   6.864
74830SOL    HW126387   1.803  11.197   6.839
74830SOL    HW226388   1.766  11.062   6.781
74831SOL     OW26389  11.180   5.239   3.695
74831SOL    HW126390  11.232   5.212   3.771
74831SOL    HW226391  11.193   5.334   3.689
74832SOL     OW26392   1.042  12.066   5.301
74832SOL    HW126393   0.951  12.044   5.280
74832SOL    HW226394   1.072  12.116   5.225
74833SOL     OW26395   2.536  12.588  11.778
74833SOL    HW126396   2.512  12.503  11.814
74833SOL    HW226397   2.530  12.577  11.683
74834SOL     OW26398   8.450   0.500   0.906
74834SOL    HW126399   8.386   0.480   0.838
74834SOL    HW226400   8.448   0.423   0.963
74835SOL     OW26401   2.336   3.652  12.108
74835SOL    HW126402   2.400   3.707  12.062
74835SOL    HW226403   2.261   3.647  12.049
74836SOL     OW26404   4.772   6.116  10.608
74836SOL    HW126405   4.767   6.195  10.662
74836SOL    HW226406   4.763   6.044  10.671
74837SOL     OW26407  11.699   4.156   0.912
74837SOL    HW126408  11.789   4.127   0.922
74837SOL    HW226409  11.657   4.134   0.995
74838SOL     OW26410  14.098  13.871   4.550
74838SOL    HW126411  14.141  13.791   4.581
74838SOL    HW226412  14.052  13.843   4.470
74839SOL     OW26413   2.833  10.534   2.812
74839SOL    HW126414   2.803  10.449   2.842
74839SOL    HW226415   2.806  10.538   2.720
74840SOL     OW26416   6.203  12.683  14.653
74840SOL    HW126417   6.279  12.631  14.679
74840SOL    HW226418   6.185  12.655  14.563
74841SOL     OW26419   6.296   1.089  10.289
74841SOL    HW126420   6.378   1.136  10.300
74841SOL    HW226421   6.274   1.099  10.196
74842SOL     OW26422  10.392   2.091   3.822
74842SOL    HW126423  10.436   2.095   3.907
74842SOL    HW226424  10.454   2.131   3.761
74843SOL     OW26425   3.638  13.894   2.635
74843SOL    HW126426   3.703  13.860   2.574
74843SOL    HW226427   3.560  13.842   2.618
74844SOL     OW26428  12.484   3.537  10.047
74844SOL    HW126429  12.472   3.531   9.952
74844SOL    HW226430  12.484   3.446  10.076
74845SOL     OW26431  13.358   4.585   7.583
74845SOL    HW126432  13.277   4.577   7.633
74845SOL    HW226433  13.403   4.502   7.597
74846SOL     OW26434  10.543  14.479   0.849
74846SOL    HW126435  10.602  14.530   0.905
74846SOL    HW226436  10.473  14.540   0.827
74847SOL     OW26437   5.263   1.877   5.178
74847SOL    HW126438   5.336   1.852   5.234
74847SOL    HW226439   5.275   1.971   5.164
74848SOL     OW26440   4.047   3.982   0.846
74848SOL    HW126441   4.128   4.028   0.869
74848SOL    HW226442   3.978   4.045   0.864
74849SOL     OW26443   7.515   0.401  12.093
74849SOL    HW126444   7.510   0.433  12.004
74849SOL    HW226445   7.526   0.306  12.084
74850SOL     OW26446   5.768  13.287   8.267
74850SOL    HW126447   5.795  13.338   8.191
74850SOL    HW226448   5.686  13.245   8.240
74851SOL     OW26449   9.349   5.345   9.380
74851SOL    HW126450   9.336   5.399   9.303
74851SOL    HW226451   9.416   5.391   9.431
74852SOL     OW26452   3.222   4.926  10.202
74852SOL    HW126453   3.244   4.953  10.113
74852SOL    HW226454   3.243   5.001  10.257
74853SOL     OW26455   3.094  13.429   8.705
74853SOL    HW126456   3.159  13.365   8.676
74853SOL    HW226457   3.054  13.460   8.624
74854SOL     OW26458   0.667   6.422   8.276
74854SOL    HW126459   0.635   6.333   8.260
74854SOL    HW226460   0.663   6.431   8.371
74855SOL     OW26461   0.137   6.733   7.257
74855SOL    HW126462   0.194   6.810   7.255
74855SOL    HW226463   0.051   6.767   7.283
74856SOL     OW26464   5.794   3.556   2.369
74856SOL    HW126465   5.825   3.568   2.279
74856SOL    HW226466   5.714   3.608   2.375
74857SOL     OW26467   9.376   3.728  10.815
74857SOL    HW126468   9.354   3.643  10.777
74857SOL    HW226469   9.458   3.714  10.862
74858SOL     OW26470   1.261  14.350   2.816
74858SOL    HW126471   1.318  14.310   2.750
74858SOL    HW226472   1.293  14.440   2.823
74859SOL     OW26473   4.714   8.188   9.334
74859SOL    HW126474   4.662   8.174   9.413
74859SOL    HW226475   4.654   8.232   9.274
74860SOL     OW26476   5.600   4.094   4.109
74860SOL    HW126477   5.577   4.182   4.080
74860SOL    HW226478   5.639   4.107   4.196
74861SOL     OW26479  10.490   9.437   3.422
74861SOL    HW126480  10.498   9.342   3.432
74861SOL    HW226481  10.423   9.461   3.486
74862SOL     OW26482  13.349   1.433   4.618
74862SOL    HW126483  13.258   1.402   4.617
74862SOL    HW226484  13.398   1.360   4.656
74863SOL     OW26485   5.829  10.273   2.702
74863SOL    HW126486   5.755  10.317   2.660
74863SOL    HW226487   5.872  10.225   2.631
74864SOL     OW26488   0.934   0.478   6.605
74864SOL    HW126489   1.021   0.513   6.623
74864SOL    HW226490   0.945   0.383   6.611
74865SOL     OW26491  10.380   4.241   2.283
74865SOL    HW126492  10.322   4.311   2.253
74865SOL    HW226493  10.322   4.181   2.331
74866SOL     OW26494   4.185   4.662   7.471
74866SOL    HW126495   4.138   4.634   7.392
74866SOL    HW226496   4.141   4.742   7.498
74867SOL     OW26497   0.189   7.809  14.284
74867SOL    HW126498   0.127   7.852  14.225
74867SOL    HW226499   0.143   7.732  14.315
74868SOL     OW26500   4.449  13.537  11.098
74868SOL    HW126501   4.381  13.526  11.165
74868SOL    HW226502   4.531  13.532  11.146
74869SOL     OW26503   3.051   5.430   8.965
74869SOL    HW126504   3.103   5.507   8.942
74869SOL    HW226505   2.961   5.463   8.972
74870SOL     OW26506   6.182   8.578  12.448
74870SOL    HW126507   6.255   8.597  12.389
74870SOL    HW226508   6.222   8.551  12.530
74871SOL     OW26509   4.693  13.280   6.740
74871SOL    HW126510   4.702  13.368   6.776
74871SOL    HW226511   4.782  13.256   6.714
74872SOL     OW26512   6.172  12.796   3.496
74872SOL    HW126513   6.151  12.839   3.579
74872SOL    HW226514   6.268  12.789   3.497
74873SOL     OW26515   2.675  11.966  11.276
74873SOL    HW126516   2.769  11.951  11.269
74873SOL    HW226517   2.648  11.915  11.353
74874SOL     OW26518   8.168   1.669  10.133
74874SOL    HW126519   8.151   1.584  10.094
74874SOL    HW226520   8.100   1.726  10.096
74875SOL     OW26521   3.033  11.541  13.870
74875SOL    HW126522   3.103  11.478  13.889
74875SOL    HW226523   3.027  11.541  13.774
74876SOL     OW26524   1.875   7.985   4.767
74876SOL    HW126525   1.791   8.007   4.727
74876SOL    HW226526   1.921   8.069   4.772
74877SOL     OW26527  10.588   5.755  14.043
74877SOL    HW126528  10.539   5.797  13.972
74877SOL    HW226529  10.661   5.814  14.061
74878SOL     OW26530  12.803   1.333  12.808
74878SOL    HW126531  12.755   1.412  12.835
74878SOL    HW226532  12.840   1.299  12.890
74879SOL     OW26533   3.895  11.224   6.840
74879SOL    HW126534   3.911  11.152   6.900
74879SOL    HW226535   3.882  11.300   6.896
74880SOL     OW26536   5.474   5.739   5.755
74880SOL    HW126537   5.511   5.789   5.682
74880SOL    HW226538   5.547   5.729   5.816
74881SOL     OW26539   9.986  13.568  11.431
74881SOL    HW126540   9.970  13.609  11.346
74881SOL    HW226541  10.081  13.554  11.434
74882SOL     OW26542   1.302  14.653  12.144
74882SOL    HW126543   1.349  14.696  12.215
74882SOL    HW226544   1.230  14.712  12.122
74883SOL     OW26545   4.655   3.689  10.198
74883SOL    HW126546   4.721   3.720  10.260
74883SOL    HW226547   4.603   3.766  10.177
74884SOL     OW26548   3.135   4.688   7.025
74884SOL    HW126549   3.067   4.635   7.067
74884SOL    HW226550   3.129   4.666   6.932
74885SOL     OW26551  10.923   0.666  11.664
74885SOL    HW126552  10.834   0.684  11.696
74885SOL    HW226553  10.956   0.597  11.722
74886SOL     OW26554  14.308   4.852   8.925
74886SOL    HW126555  14.258   4.909   8.867
74886SOL    HW226556  14.244   4.816   8.986
74887SOL     OW26557  11.982   1.604   8.203
74887SOL    HW126558  12.057   1.661   8.188
74887SOL    HW226559  11.980   1.591   8.298
74888SOL     OW26560   4.504  10.545  12.129
74888SOL    HW126561   4.512  10.577  12.219
74888SOL    HW226562   4.480  10.453  12.138
74889SOL     OW26563  12.608   0.376   3.250
74889SOL    HW126564  12.520   0.384   3.214
74889SOL    HW226565  12.595   0.357   3.343
74890SOL     OW26566   2.120   2.758   7.579
74890SOL    HW126567   2.057   2.685   7.579
74890SOL    HW226568   2.066   2.836   7.589
74891SOL     OW26569   2.540  14.528  11.984
74891SOL    HW126570   2.589  14.609  11.972
74891SOL    HW226571   2.507  14.533  12.074
74892SOL     OW26572  13.294   1.780   9.272
74892SOL    HW126573  13.362   1.714   9.259
74892SOL    HW226574  13.310   1.844   9.203
74893SOL     OW26575   2.776   2.777  11.024
74893SOL    HW126576   2.779   2.739  10.936
74893SOL    HW226577   2.691   2.821  11.028
74894SOL     OW26578   2.180  13.542   8.429
74894SOL    HW126579   2.215  13.569   8.514
74894SOL    HW226580   2.199  13.616   8.371
74895SOL     OW26581   4.540   9.201  10.549
74895SOL    HW126582   4.633   9.209  10.527
74895SOL    HW226583   4.521   9.277  10.603
74896SOL     OW26584   3.226   7.965  11.029
74896SOL    HW126585   3.259   7.927  10.948
74896SOL    HW226586   3.225   8.059  11.013
74897SOL     OW26587   5.901   7.647   3.213
74897SOL    HW126588   5.864   7.705   3.279
74897SOL    HW226589   5.992   7.636   3.239
74898SOL     OW26590   6.688  11.653   0.816
74898SOL    HW126591   6.652  11.590   0.754
74898SOL    HW226592   6.724  11.599   0.886
74899SOL     OW26593  13.296   9.015   4.403
74899SOL    HW126594  13.278   9.086   4.342
74899SOL    HW226595  13.286   8.935   4.351
74900SOL     OW26596   8.703   8.866   8.312
74900SOL    HW126597   8.701   8.787   8.259
74900SOL    HW226598   8.684   8.837   8.401
74901SOL     OW26599  11.312  11.394  13.524
74901SOL    HW126600  11.243  11.369  13.585
74901SOL    HW226601  11.391  11.354  13.559
74902SOL     OW26602   9.837   6.245   1.867
74902SOL    HW126603   9.747   6.234   1.838
74902SOL    HW226604   9.834   6.319   1.928
74903SOL     OW26605  10.805   4.107   4.339
74903SOL    HW126606  10.796   4.017   4.372
74903SOL    HW226607  10.748   4.159   4.396
74904SOL     OW26608   6.733   5.463   6.968
74904SOL    HW126609   6.781   5.496   7.044
74904SOL    HW226610   6.659   5.415   7.005
74905SOL     OW26611   2.033   9.122   7.861
74905SOL    HW126612   1.965   9.090   7.921
74905SOL    HW226613   2.040   9.216   7.880
74906SOL     OW26614   4.025   9.889  14.643
74906SOL    HW126615   4.086   9.960  14.666
74906SOL    HW226616   4.042   9.873  14.550
74907SOL     OW26617   1.391   0.298   7.664
74907SOL    HW126618   1.326   0.243   7.707
74907SOL    HW226619   1.467   0.295   7.722
74908SOL     OW26620   3.208  11.604  10.517
74908SOL    HW126621   3.123  11.564  10.499
74908SOL    HW226622   3.201  11.692  10.482
74909SOL     OW26623  11.875  14.734   4.411
74909SOL    HW126624  11.925  14.770   4.484
74909SOL    HW226625  11.794  14.785   4.410
74910SOL     OW26626   6.813   1.644  13.977
74910SOL    HW126627   6.833   1.737  13.989
74910SOL    HW226628   6.726   1.643  13.937
74911SOL     OW26629  13.174  13.424   4.041
74911SOL    HW126630  13.180  13.350   4.101
74911SOL    HW226631  13.246  13.411   3.980
74912SOL     OW26632   2.381  12.734   9.147
74912SOL    HW126633   2.407  12.826   9.139
74912SOL    HW226634   2.407  12.693   9.065
74913SOL     OW26635  10.495   9.301   6.617
74913SOL    HW126636  10.582   9.300   6.578
74913SOL    HW226637  10.508   9.261   6.704
74914SOL     OW26638  10.426   5.173  10.368
74914SOL    HW126639  10.468   5.089  10.385
74914SOL    HW226640  10.482   5.238  10.411
74915SOL     OW26641  11.606  12.650  11.838
74915SOL    HW126642  11.598  12.719  11.773
74915SOL    HW226643  11.700  12.645  11.857
74916SOL     OW26644   2.111  12.390   5.859
74916SOL    HW126645   2.102  12.333   5.782
74916SOL    HW226646   2.028  12.379   5.906
74917SOL     OW26647   1.409   7.756  10.210
74917SOL    HW126648   1.319   7.731  10.231
74917SOL    HW226649   1.404   7.788  10.120
74918SOL     OW26650   7.990   1.876  13.170
74918SOL    HW126651   7.917   1.832  13.215
74918SOL    HW226652   7.965   1.873  13.078
74919SOL     OW26653   9.317   4.494  11.495
74919SOL    HW126654   9.235   4.509  11.449
74919SOL    HW226655   9.363   4.578  11.491
74920SOL     OW26656  11.446   4.984   6.252
74920SOL    HW126657  11.364   4.963   6.207
74920SOL    HW226658  11.512   4.983   6.182
74921SOL     OW26659   7.245   5.447   0.335
74921SOL    HW126660   7.251   5.445   0.239
74921SOL    HW226661   7.152   5.458   0.354
74922SOL     OW26662  13.626  14.405   7.089
74922SOL    HW126663  13.566  14.469   7.050
74922SOL    HW226664  13.708  14.418   7.041
74923SOL     OW26665  10.970   4.945   5.838
74923SOL    HW126666  11.065   4.933   5.833
74923SOL    HW226667  10.936   4.900   5.760
74924SOL     OW26668   2.517   0.801   4.350
74924SOL    HW126669   2.548   0.720   4.389
74924SOL    HW226670   2.590   0.862   4.359
74925SOL     OW26671   0.787  14.371   9.224
74925SOL    HW126672   0.704  14.374   9.176
74925SOL    HW226673   0.825  14.286   9.199
74926SOL     OW26674   0.659   7.740   0.832
74926SOL    HW126675   0.579   7.688   0.836
74926SOL    HW226676   0.651   7.803   0.904
74927SOL     OW26677  10.258   8.123   8.250
74927SOL    HW126678  10.230   8.033   8.236
74927SOL    HW226679  10.179   8.175   8.232
74928SOL     OW26680   7.172   5.195   5.745
74928SOL    HW126681   7.079   5.201   5.725
74928SOL    HW226682   7.192   5.277   5.790
74929SOL     OW26683   9.944   1.007   1.853
74929SOL    HW126684   9.923   0.923   1.893
74929SOL    HW226685   9.863   1.059   1.862
74930SOL     OW26686   6.808   6.131   2.662
74930SOL    HW126687   6.827   6.072   2.735
74930SOL    HW226688   6.767   6.207   2.703
74931SOL     OW26689   9.423   1.252   5.324
74931SOL    HW126690   9.442   1.296   5.242
74931SOL    HW226691   9.501   1.264   5.378
74932SOL     OW26692   9.978  10.416  14.126
74932SOL    HW126693  10.058  10.396  14.175
74932SOL    HW226694   9.912  10.431  14.194
74933SOL     OW26695   9.591  14.156   8.101
74933SOL    HW126696   9.518  14.216   8.116
74933SOL    HW226697   9.664  14.195   8.149
74934SOL     OW26698  12.876  14.803   7.362
74934SOL    HW126699  12.809  14.793   7.431
74934SOL    HW226700  12.837  14.864   7.300
74935SOL     OW26701  11.681   7.929  12.409
74935SOL    HW126702  11.591   7.933  12.441
74935SOL    HW226703  11.674   7.945  12.314
74936SOL     OW26704  10.072  10.983   8.968
74936SOL    HW126705  10.052  10.898   9.006
74936SOL    HW226706   9.992  11.008   8.921
74937SOL     OW26707   3.811   4.441  11.719
74937SOL    HW126708   3.889   4.464  11.768
74937SOL    HW226709   3.843   4.390  11.644
74938SOL     OW26710  11.042   4.757   1.982
74938SOL    HW126711  11.028   4.844   1.944
74938SOL    HW226712  10.955   4.720   1.993
74939SOL     OW26713   8.127   7.851   3.928
74939SOL    HW126714   8.085   7.876   3.846
74939SOL    HW226715   8.099   7.761   3.942
74940SOL     OW26716   6.003   7.064   1.193
74940SOL    HW126717   5.993   6.972   1.169
74940SOL    HW226718   6.051   7.103   1.121
74941SOL     OW26719  12.316   6.750   1.016
74941SOL    HW126720  12.305   6.820   0.953
74941SOL    HW226721  12.384   6.781   1.075
74942SOL     OW26722   5.756   4.468   8.601
74942SOL    HW126723   5.677   4.415   8.590
74942SOL    HW226724   5.807   4.421   8.667
74943SOL     OW26725   5.856   8.011  14.259
74943SOL    HW126726   5.912   7.978  14.189
74943SOL    HW226727   5.896   8.095  14.283
74944SOL     OW26728   1.332   3.846  14.853
74944SOL    HW126729   1.250   3.885  14.822
74944SOL    HW226730   1.318   3.752  14.843
74945SOL     OW26731   9.268   6.492   0.742
74945SOL    HW126732   9.198   6.429   0.758
74945SOL    HW226733   9.230   6.576   0.768
74946SOL     OW26734   8.528   8.214   3.158
74946SOL    HW126735   8.488   8.289   3.114
74946SOL    HW226736   8.497   8.220   3.248
74947SOL     OW26737  13.741  10.758   1.394
74947SOL    HW126738  13.813  10.695   1.405
74947SOL    HW226739  13.692  10.724   1.319
74948SOL     OW26740  10.925   4.621  14.398
74948SOL    HW126741  10.968   4.540  14.372
74948SOL    HW226742  10.929   4.676  14.320
74949SOL     OW26743   6.450   3.664   7.950
74949SOL    HW126744   6.453   3.605   8.025
74949SOL    HW226745   6.359   3.660   7.919
74950SOL     OW26746   6.435  11.345  11.413
74950SOL    HW126747   6.359  11.318  11.464
74950SOL    HW226748   6.425  11.439  11.404
74951SOL     OW26749   4.616   6.984  12.167
74951SOL    HW126750   4.682   7.053  12.167
74951SOL    HW226751   4.666   6.903  12.161
74952SOL     OW26752  10.921  13.742  11.989
74952SOL    HW126753  10.982  13.789  11.932
74952SOL    HW226754  10.835  13.781  11.969
74953SOL     OW26755   6.021   5.176   8.391
74953SOL    HW126756   5.952   5.239   8.372
74953SOL    HW226757   6.092   5.198   8.331
74954SOL     OW26758   9.134   4.164  10.203
74954SOL    HW126759   9.072   4.196  10.138
74954SOL    HW226760   9.159   4.077  10.172
74955SOL     OW26761   0.298   8.504  11.806
74955SOL    HW126762   0.230   8.490  11.741
74955SOL    HW226763   0.378   8.470  11.765
74956SOL     OW26764  12.646   2.742  10.915
74956SOL    HW126765  12.707   2.814  10.897
74956SOL    HW226766  12.616   2.759  11.005
74957SOL     OW26767   0.714  13.256   6.403
74957SOL    HW126768   0.650  13.254   6.474
74957SOL    HW226769   0.714  13.167   6.367
74958SOL     OW26770   7.005   7.280   6.157
74958SOL    HW126771   6.973   7.260   6.069
74958SOL    HW226772   7.070   7.349   6.143
74959SOL     OW26773  12.309   3.202  14.260
74959SOL    HW126774  12.329   3.263  14.331
74959SOL    HW226775  12.250   3.252  14.202
74960SOL     OW26776   8.994   1.047  11.830
74960SOL    HW126777   9.003   1.142  11.828
74960SOL    HW226778   8.983   1.022  11.739
74961SOL     OW26779   9.408   3.512   5.914
74961SOL    HW126780   9.470   3.457   5.962
74961SOL    HW226781   9.439   3.510   5.824
74962SOL     OW26782   5.846   1.168   6.417
74962SOL    HW126783   5.788   1.094   6.434
74962SOL    HW226784   5.927   1.145   6.462
74963SOL     OW26785  11.789  14.793   4.075
74963SOL    HW126786  11.830  14.707   4.067
74963SOL    HW226787  11.859  14.855   4.058
74964SOL     OW26788  14.045  14.448  11.449
74964SOL    HW126789  14.104  14.379  11.418
74964SOL    HW226790  13.973  14.402  11.492
74965SOL     OW26791  11.391   6.693  10.816
74965SOL    HW126792  11.325   6.720  10.752
74965SOL    HW226793  11.466   6.665  10.763
74966SOL     OW26794  14.518   1.620   3.998
74966SOL    HW126795  14.453   1.550   3.989
74966SOL    HW226796  14.539   1.622   4.091
74967SOL     OW26797   0.237  12.053  11.688
74967SOL    HW126798   0.253  11.981  11.749
74967SOL    HW226799   0.190  12.118  11.739
74968SOL     OW26800  11.471  13.650   6.788
74968SOL    HW126801  11.400  13.701   6.749
74968SOL    HW226802  11.434  13.615   6.869
74969SOL     OW26803  14.774  11.289   5.429
74969SOL    HW126804  14.723  11.256   5.503
74969SOL    HW226805  14.712  11.293   5.357
74970SOL     OW26806   8.223   3.454  12.729
74970SOL    HW126807   8.251   3.545  12.721
74970SOL    HW226808   8.169   3.438  12.652
74971SOL     OW26809   6.186  12.206   7.494
74971SOL    HW126810   6.119  12.220   7.426
74971SOL    HW226811   6.256  12.267   7.471
74972SOL     OW26812   5.338  14.331  10.018
74972SOL    HW126813   5.357  14.340   9.924
74972SOL    HW226814   5.243  14.327  10.023
74973SOL     OW26815  11.831   3.707   2.827
74973SOL    HW126816  11.773   3.770   2.870
74973SOL    HW226817  11.771   3.641   2.790
74974SOL     OW26818   9.583  14.841  12.574
74974SOL    HW126819   9.521  14.830  12.502
74974SOL    HW226820   9.643  14.767  12.565
74975SOL     OW26821  11.951  12.239   1.614
74975SOL    HW126822  11.946  12.152   1.576
74975SOL    HW226823  11.896  12.294   1.558
74976SOL     OW26824   3.424  12.668   0.765
74976SOL    HW126825   3.519  12.679   0.756
74976SOL    HW226826   3.396  12.627   0.683
74977SOL     OW26827   6.238  12.117  11.946
74977SOL    HW126828   6.285  12.190  11.985
74977SOL    HW226829   6.292  12.040  11.966
74978SOL     OW26830   2.509   9.577  14.248
74978SOL    HW126831   2.580   9.642  14.252
74978SOL    HW226832   2.471   9.577  14.335
74979SOL     OW26833   7.858  10.451   6.698
74979SOL    HW126834   7.861  10.396   6.620
74979SOL    HW226835   7.770  10.438   6.734
74980SOL     OW26836   0.365  12.671   8.101
74980SOL    HW126837   0.448  12.710   8.076
74980SOL    HW226838   0.357  12.689   8.194
74981SOL     OW26839   3.072  14.064   2.767
74981SOL    HW126840   3.160  14.056   2.805
74981SOL    HW226841   3.039  14.147   2.801
74982SOL     OW26842   2.508   3.577   1.978
74982SOL    HW126843   2.570   3.611   1.913
74982SOL    HW226844   2.456   3.653   2.004
74983SOL     OW26845  14.135   6.718   1.112
74983SOL    HW126846  14.151   6.643   1.170
74983SOL    HW226847  14.169   6.691   1.027
74984SOL     OW26848   3.208  10.390  10.290
74984SOL    HW126849   3.253  10.453  10.346
74984SOL    HW226850   3.121  10.381  10.331
74985SOL     OW26851   8.688  10.220  14.575
74985SOL    HW126852   8.777  10.198  14.604
74985SOL    HW226853   8.692  10.214  14.480
74986SOL     OW26854   5.911   1.895   5.213
74986SOL    HW126855   5.824   1.932   5.227
74986SOL    HW226856   5.968   1.971   5.203
74987SOL     OW26857   3.072   3.630   1.202
74987SOL    HW126858   3.136   3.617   1.132
74987SOL    HW226859   2.997   3.578   1.176
74988SOL     OW26860   8.984   4.220   1.571
74988SOL    HW126861   9.063   4.178   1.606
74988SOL    HW226862   9.018   4.280   1.504
74989SOL     OW26863  12.970   5.506   9.043
74989SOL    HW126864  13.015   5.550   9.115
74989SOL    HW226865  13.039   5.494   8.977
74990SOL     OW26866  10.377   4.991  11.142
74990SOL    HW126867  10.398   5.021  11.053
74990SOL    HW226868  10.441   5.035  11.198
74991SOL     OW26869   3.182   2.675   8.350
74991SOL    HW126870   3.138   2.608   8.300
74991SOL    HW226871   3.135   2.756   8.330
74992SOL     OW26872  12.635  11.303   8.988
74992SOL    HW126873  12.569  11.354   9.034
74992SOL    HW226874  12.647  11.349   8.905
74993SOL     OW26875   7.323  10.832  14.208
74993SOL    HW126876   7.293  10.797  14.124
74993SOL    HW226877   7.409  10.791  14.221
74994SOL     OW26878   0.532  11.860   1.801
74994SOL    HW126879   0.510  11.923   1.732
74994SOL    HW226880   0.627  11.849   1.794
74995SOL     OW26881  11.801   4.968   6.373
74995SOL    HW126882  11.882   4.959   6.324
74995SOL    HW226883  11.799   5.060   6.400
74996SOL     OW26884   6.422  14.748   2.236
74996SOL    HW126885   6.376  14.683   2.289
74996SOL    HW226886   6.433  14.823   2.294
74997SOL     OW26887   0.625  12.951   7.793
74997SOL    HW126888   0.670  13.025   7.752
74997SOL    HW226889   0.584  12.904   7.721
74998SOL     OW26890  13.155  14.259   7.921
74998SOL    HW126891  13.073  14.304   7.941
74998SOL    HW226892  13.143  14.226   7.832
74999SOL     OW26893   5.629   6.768   1.867
74999SOL    HW126894   5.558   6.730   1.814
74999SOL    HW226895   5.698   6.701   1.865
75000SOL     OW26896  12.181  10.986  12.164
75000SOL    HW126897  12.158  11.075  12.190
75000SOL    HW226898  12.111  10.931  12.199
75001SOL     OW26899   0.979   5.874  12.542
75001SOL    HW126900   0.950   5.824  12.465
75001SOL    HW226901   0.910   5.940  12.554
75002SOL     OW26902  10.856   2.849   8.725
75002SOL    HW126903  10.800   2.786   8.769
75002SOL    HW226904  10.941   2.840   8.768
75003SOL     OW26905   7.184  14.487   7.767
75003SOL    HW126906   7.196  14.494   7.861
75003SOL    HW226907   7.142  14.570   7.742
75004SOL     OW26908  12.736  10.968  11.983
75004SOL    HW126909  12.695  10.927  12.060
75004SOL    HW226910  12.683  11.045  11.965
75005SOL     OW26911   6.987  13.108  10.551
75005SOL    HW126912   7.071  13.064  10.545
75005SOL    HW226913   7.007  13.200  10.535
75006SOL     OW26914   6.925   5.777   8.302
75006SOL    HW126915   6.891   5.797   8.389
75006SOL    HW226916   6.969   5.857   8.274
75007SOL     OW26917   3.049   4.868  11.724
75007SOL    HW126918   2.993   4.911  11.660
75007SOL    HW226919   3.138   4.888  11.694
75008SOL     OW26920   4.073   2.981   6.570
75008SOL    HW126921   4.134   2.908   6.557
75008SOL    HW226922   3.990   2.940   6.593
75009SOL     OW26923   6.808   6.276   5.115
75009SOL    HW126924   6.815   6.199   5.058
75009SOL    HW226925   6.884   6.330   5.093
75010SOL     OW26926   0.241   5.146   1.112
75010SOL    HW126927   0.302   5.206   1.070
75010SOL    HW226928   0.168   5.139   1.050
75011SOL     OW26929  10.173   6.335  11.825
75011SOL    HW126930  10.103   6.334  11.759
75011SOL    HW226931  10.157   6.414  11.876
75012SOL     OW26932   3.725  10.902  12.409
75012SOL    HW126933   3.684  10.964  12.469
75012SOL    HW226934   3.748  10.827  12.464
75013SOL     OW26935   4.610   7.231   8.872
75013SOL    HW126936   4.660   7.149   8.862
75013SOL    HW226937   4.676   7.300   8.868
75014SOL     OW26938   3.011   2.771  13.514
75014SOL    HW126939   3.023   2.685  13.475
75014SOL    HW226940   3.093   2.817  13.497
75015SOL     OW26941  11.478  10.245  11.015
75015SOL    HW126942  11.455  10.153  11.032
75015SOL    HW226943  11.464  10.289  11.099
75016SOL     OW26944   0.180   9.608   5.533
75016SOL    HW126945   0.185   9.692   5.487
75016SOL    HW226946   0.159   9.631   5.623
75017SOL     OW26947   2.500  14.070   4.476
75017SOL    HW126948   2.510  13.987   4.429
75017SOL    HW226949   2.422  14.058   4.529
75018SOL     OW26950   3.706   3.733   0.433
75018SOL    HW126951   3.619   3.694   0.427
75018SOL    HW226952   3.702   3.789   0.511
75019SOL     OW26953   8.638  11.721  12.205
75019SOL    HW126954   8.601  11.652  12.149
75019SOL    HW226955   8.697  11.674  12.264
75020SOL     OW26956   7.063   5.881  14.522
75020SOL    HW126957   7.054   5.792  14.557
75020SOL    HW226958   7.027   5.937  14.590
75021SOL     OW26959  10.151   8.392   5.642
75021SOL    HW126960  10.131   8.478   5.606
75021SOL    HW226961  10.246   8.385   5.638
75022SOL     OW26962   7.054   7.299   0.788
75022SOL    HW126963   7.053   7.259   0.701
75022SOL    HW226964   7.065   7.393   0.771
75023SOL     OW26965   0.663   0.648   8.831
75023SOL    HW126966   0.662   0.593   8.753
75023SOL    HW226967   0.632   0.733   8.801
75024SOL     OW26968  11.222   2.318   3.140
75024SOL    HW126969  11.129   2.303   3.127
75024SOL    HW226970  11.228   2.405   3.180
75025SOL     OW26971   4.087  10.178   8.556
75025SOL    HW126972   4.135  10.095   8.555
75025SOL    HW226973   4.097  10.210   8.645
75026SOL     OW26974   3.348   3.504   3.431
75026SOL    HW126975   3.317   3.430   3.483
75026SOL    HW226976   3.374   3.569   3.496
75027SOL     OW26977   7.959  14.718  11.837
75027SOL    HW126978   7.890  14.652  11.828
75027SOL    HW226979   7.923  14.796  11.795
75028SOL     OW26980   6.567   4.384  14.685
75028SOL    HW126981   6.584   4.292  14.703
75028SOL    HW226982   6.520   4.416  14.762
75029SOL     OW26983   8.476   8.303   3.427
75029SOL    HW126984   8.553   8.356   3.445
75029SOL    HW226985   8.461   8.254   3.508
75030SOL     OW26986  12.896   7.456  13.340
75030SOL    HW126987  12.894   7.365  13.309
75030SOL    HW226988  12.946   7.503  13.273
75031SOL     OW26989  13.600   4.218  11.712
75031SOL    HW126990  13.505   4.226  11.700
75031SOL    HW226991  13.610   4.200  11.806
75032SOL     OW26992  13.378   3.805  13.803
75032SOL    HW126993  13.309   3.827  13.866
75032SOL    HW226994  13.331   3.791  13.721
75033SOL     OW26995   3.964  10.820  10.718
75033SOL    HW126996   3.912  10.871  10.656
75033SOL    HW226997   3.927  10.841  10.804
75034SOL     OW26998   3.642   3.174  10.346
75034SOL    HW126999   3.701   3.181  10.271
75034SOL    HW227000   3.661   3.252  10.399
75035SOL     OW27001   6.077  12.185   9.410
75035SOL    HW127002   5.991  12.220   9.388
75035SOL    HW227003   6.076  12.177   9.506
75036SOL     OW27004   5.981  10.306  11.522
75036SOL    HW127005   5.975  10.331  11.614
75036SOL    HW227006   5.956  10.213  11.520
75037SOL     OW27007  12.374   1.123   1.428
75037SOL    HW127008  12.443   1.156   1.485
75037SOL    HW227009  12.414   1.118   1.341
75038SOL     OW27010   7.905  11.906  14.276
75038SOL    HW127011   7.937  11.960  14.204
75038SOL    HW227012   7.961  11.828  14.274
75039SOL     OW27013   0.180   6.473  10.526
75039SOL    HW127014   0.202   6.471  10.619
75039SOL    HW227015   0.256   6.434  10.483
75040SOL     OW27016   1.430   5.039   6.743
75040SOL    HW127017   1.379   4.964   6.775
75040SOL    HW227018   1.406   5.111   6.800
75041SOL     OW27019  13.561  10.594   6.157
75041SOL    HW127020  13.521  10.576   6.242
75041SOL    HW227021  13.603  10.679   6.168
75042SOL     OW27022   6.468   7.595   8.721
75042SOL    HW127023   6.534   7.623   8.658
75042SOL    HW227024   6.453   7.671   8.776
75043SOL     OW27025   6.699   7.230  11.375
75043SOL    HW127026   6.772   7.207  11.432
75043SOL    HW227027   6.652   7.298  11.424
75044SOL     OW27028  10.674   1.867  12.153
75044SOL    HW127029  10.581   1.876  12.174
75044SOL    HW227030  10.676   1.803  12.081
75045SOL     OW27031  14.112  14.072   9.856
75045SOL    HW127032  14.024  14.098   9.829
75045SOL    HW227033  14.156  14.047   9.775
75046SOL     OW27034  11.838  11.368   2.299
75046SOL    HW127035  11.830  11.349   2.392
75046SOL    HW227036  11.806  11.289   2.255
75047SOL     OW27037   5.370   7.169   2.289
75047SOL    HW127038   5.362   7.249   2.342
75047SOL    HW227039   5.314   7.106   2.334
75048SOL     OW27040   1.958  14.571   6.998
75048SOL    HW127041   1.935  14.638   6.934
75048SOL    HW227042   1.983  14.495   6.945
75049SOL     OW27043  14.826  14.841   8.382
75049SOL    HW127044   0.012   0.009   8.432
75049SOL    HW227045  14.756   0.025   8.366
75050SOL     OW27046   4.302  10.467  13.077
75050SOL    HW127047   4.370  10.508  13.023
75050SOL    HW227048   4.330  10.376  13.087
75051SOL     OW27049  12.306  11.668  12.529
75051SOL    HW127050  12.337  11.651  12.440
75051SOL    HW227051  12.380  11.711  12.572
75052SOL     OW27052   4.740  13.281   4.097
75052SOL    HW127053   4.835  13.277   4.099
75052SOL    HW227054   4.713  13.202   4.050
75053SOL     OW27055   9.191   2.392   5.131
75053SOL    HW127056   9.136   2.354   5.200
75053SOL    HW227057   9.131   2.447   5.080
75054SOL     OW27058   6.240   7.894   6.562
75054SOL    HW127059   6.185   7.868   6.636
75054SOL    HW227060   6.259   7.987   6.578
75055SOL     OW27061   4.260   4.787   8.448
75055SOL    HW127062   4.224   4.778   8.536
75055SOL    HW227063   4.354   4.777   8.459
75056SOL     OW27064   7.200  12.892  14.533
75056SOL    HW127065   7.265  12.854  14.592
75056SOL    HW227066   7.204  12.838  14.455
75057SOL     OW27067   0.940   2.421   1.196
75057SOL    HW127068   0.854   2.383   1.213
75057SOL    HW227069   0.928   2.473   1.117
75058SOL     OW27070   7.692   7.662   0.395
75058SOL    HW127071   7.600   7.676   0.375
75058SOL    HW227072   7.726   7.750   0.413
75059SOL     OW27073  14.460   1.783   0.643
75059SOL    HW127074  14.433   1.847   0.577
75059SOL    HW227075  14.530   1.733   0.600
75060SOL     OW27076   7.678   4.990  11.897
75060SOL    HW127077   7.639   4.903  11.885
75060SOL    HW227078   7.634   5.044  11.831
75061SOL     OW27079   7.390  12.109   1.928
75061SOL    HW127080   7.330  12.053   1.877
75061SOL    HW227081   7.381  12.196   1.887
75062SOL     OW27082   4.488  12.406   4.561
75062SOL    HW127083   4.537  12.439   4.636
75062SOL    HW227084   4.480  12.312   4.577
75063SOL     OW27085  10.653   1.753  11.409
75063SOL    HW127086  10.743   1.785  11.410
75063SOL    HW227087  10.600   1.831  11.423
75064SOL     OW27088   3.948   2.744   9.203
75064SOL    HW127089   3.951   2.678   9.134
75064SOL    HW227090   4.016   2.807   9.178
75065SOL     OW27091   1.494  14.052  12.238
75065SOL    HW127092   1.425  13.986  12.228
75065SOL    HW227093   1.569  14.015  12.192
75066SOL     OW27094  13.694   0.537   3.888
75066SOL    HW127095  13.613   0.570   3.926
75066SOL    HW227096  13.755   0.611   3.892
75067SOL     OW27097  13.544  14.519   3.831
75067SOL    HW127098  13.605  14.558   3.768
75067SOL    HW227099  13.499  14.451   3.781
75068SOL     OW27100   7.497   3.872   6.050
75068SOL    HW127101   7.519   3.867   5.957
75068SOL    HW227102   7.561   3.931   6.088
75069SOL     OW27103   2.558   1.100   7.078
75069SOL    HW127104   2.481   1.088   7.022
75069SOL    HW227105   2.575   1.194   7.076
75070SOL     OW27106  12.759  11.222   1.219
75070SOL    HW127107  12.699  11.216   1.292
75070SOL    HW227108  12.726  11.295   1.166
75071SOL     OW27109  13.664   2.832   6.209
75071SOL    HW127110  13.606   2.761   6.182
75071SOL    HW227111  13.679   2.882   6.129
75072SOL     OW27112   9.035   0.104   9.369
75072SOL    HW127113   8.987   0.065   9.442
75072SOL    HW227114   9.077   0.182   9.407
75073SOL     OW27115   4.132   0.426   3.592
75073SOL    HW127116   4.158   0.338   3.620
75073SOL    HW227117   4.089   0.464   3.668
75074SOL     OW27118   9.680   6.044   3.584
75074SOL    HW127119   9.585   6.057   3.573
75074SOL    HW227120   9.702   5.975   3.521
75075SOL     OW27121   7.242   3.774  13.476
75075SOL    HW127122   7.334   3.778  13.502
75075SOL    HW227123   7.244   3.757  13.382
75076SOL     OW27124   6.405  11.662   7.170
75076SOL    HW127125   6.429  11.576   7.136
75076SOL    HW227126   6.336  11.693   7.112
75077SOL     OW27127   2.206   0.820   8.836
75077SOL    HW127128   2.183   0.860   8.752
75077SOL    HW227129   2.145   0.748   8.847
75078SOL     OW27130   9.289   2.023   5.609
75078SOL    HW127131   9.355   2.060   5.551
75078SOL    HW227132   9.209   2.021   5.557
75079SOL     OW27133   6.260   5.871   0.557
75079SOL    HW127134   6.240   5.860   0.463
75079SOL    HW227135   6.175   5.888   0.597
75080SOL     OW27136   4.346   8.008   0.396
75080SOL    HW127137   4.335   8.067   0.322
75080SOL    HW227138   4.294   8.047   0.466
75081SOL     OW27139   1.742   0.852   1.372
75081SOL    HW127140   1.750   0.845   1.467
75081SOL    HW227141   1.759   0.945   1.354
75082SOL     OW27142   0.641   7.639   1.525
75082SOL    HW127143   0.731   7.615   1.504
75082SOL    HW227144   0.589   7.567   1.490
75083SOL     OW27145   9.555   6.401  13.133
75083SOL    HW127146   9.532   6.403  13.226
75083SOL    HW227147   9.612   6.477  13.121
75084SOL     OW27148  12.301   2.611   3.021
75084SOL    HW127149  12.342   2.526   3.038
75084SOL    HW227150  12.370   2.675   3.036
75085SOL     OW27151   6.807   2.213   8.187
75085SOL    HW127152   6.839   2.160   8.259
75085SOL    HW227153   6.857   2.295   8.194
75086SOL     OW27154  14.759   1.443   4.513
75086SOL    HW127155  14.769   1.477   4.602
75086SOL    HW227156  14.791   1.514   4.457
75087SOL     OW27157   7.863  10.873   2.444
75087SOL    HW127158   7.868  10.944   2.381
75087SOL    HW227159   7.935  10.888   2.505
75088SOL     OW27160   4.388   4.136   3.505
75088SOL    HW127161   4.318   4.132   3.441
75088SOL    HW227162   4.405   4.044   3.527
75089SOL     OW27163   2.311   3.685  14.220
75089SOL    HW127164   2.334   3.592  14.211
75089SOL    HW227165   2.366   3.717  14.291
75090SOL     OW27166   4.552  10.321  10.175
75090SOL    HW127167   4.636  10.277  10.163
75090SOL    HW227168   4.501  10.297  10.098
75091SOL     OW27169   4.649   5.754   5.044
75091SOL    HW127170   4.566   5.710   5.025
75091SOL    HW227171   4.654   5.824   4.979
75092SOL     OW27172  12.685  12.318   0.807
75092SOL    HW127173  12.699  12.356   0.720
75092SOL    HW227174  12.644  12.388   0.857
75093SOL     OW27175  11.806   5.490  12.357
75093SOL    HW127176  11.846   5.549  12.421
75093SOL    HW227177  11.881   5.453  12.309
75094SOL     OW27178   1.402   6.702   2.022
75094SOL    HW127179   1.396   6.796   2.004
75094SOL    HW227180   1.459   6.668   1.953
75095SOL     OW27181  11.823   0.371   1.108
75095SOL    HW127182  11.813   0.306   1.178
75095SOL    HW227183  11.802   0.454   1.150
75096SOL     OW27184  13.875   9.606  13.584
75096SOL    HW127185  13.852   9.564  13.501
75096SOL    HW227186  13.793   9.644  13.615
75097SOL     OW27187   9.779  12.378   2.533
75097SOL    HW127188   9.816  12.460   2.500
75097SOL    HW227189   9.854  12.321   2.547
75098SOL     OW27190   3.121   2.527   8.063
75098SOL    HW127191   3.097   2.451   8.011
75098SOL    HW227192   3.043   2.548   8.114
75099SOL     OW27193   7.426   5.461  10.527
75099SOL    HW127194   7.400   5.544  10.489
75099SOL    HW227195   7.404   5.467  10.619
75100SOL     OW27196   0.358  12.481   7.480
75100SOL    HW127197   0.434  12.434   7.514
75100SOL    HW227198   0.339  12.438   7.397
75101SOL     OW27199  13.068   7.506   0.117
75101SOL    HW127200  13.145   7.471   0.073
75101SOL    HW227201  13.022   7.429   0.151
75102SOL     OW27202  13.627   2.403  14.146
75102SOL    HW127203  13.651   2.470  14.083
75102SOL    HW227204  13.624   2.449  14.230
75103SOL     OW27205   7.838   4.354   9.781
75103SOL    HW127206   7.894   4.285   9.816
75103SOL    HW227207   7.821   4.326   9.691
75104SOL     OW27208   3.095   7.488   2.139
75104SOL    HW127209   3.164   7.537   2.183
75104SOL    HW227210   3.139   7.441   2.069
75105SOL     OW27211   8.198  13.232  11.119
75105SOL    HW127212   8.146  13.311  11.104
75105SOL    HW227213   8.193  13.183  11.037
75106SOL     OW27214  11.320  10.292   2.318
75106SOL    HW127215  11.336  10.368   2.262
75106SOL    HW227216  11.406  10.268   2.351
75107SOL     OW27217   6.727  11.876   5.030
75107SOL    HW127218   6.813  11.909   5.055
75107SOL    HW227219   6.731  11.868   4.935
75108SOL     OW27220  14.754   0.515   9.733
75108SOL    HW127221  14.679   0.495   9.676
75108SOL    HW227222  14.828   0.523   9.673
75109SOL     OW27223   7.816   8.158   5.486
75109SOL    HW127224   7.765   8.082   5.517
75109SOL    HW227225   7.905   8.141   5.517
75110SOL     OW27226  12.596   9.616  13.986
75110SOL    HW127227  12.602   9.558  14.062
75110SOL    HW227228  12.678   9.666  13.987
75111SOL     OW27229  12.995   0.230   6.457
75111SOL    HW127230  12.977   0.293   6.387
75111SOL    HW227231  13.089   0.214   6.451
75112SOL     OW27232  12.506   0.410   7.231
75112SOL    HW127233  12.545   0.486   7.189
75112SOL    HW227234  12.523   0.423   7.324
75113SOL     OW27235  14.284  10.603   6.026
75113SOL    HW127236  14.344  10.607   6.100
75113SOL    HW227237  14.210  10.551   6.057
75114SOL     OW27238  11.001   6.243   7.305
75114SOL    HW127239  10.989   6.325   7.354
75114SOL    HW227240  11.013   6.271   7.215
75115SOL     OW27241   9.370  12.950   6.459
75115SOL    HW127242   9.435  12.919   6.523
75115SOL    HW227243   9.419  12.958   6.377
75116SOL     OW27244   3.525  10.364   9.181
75116SOL    HW127245   3.444  10.321   9.206
75116SOL    HW227246   3.558  10.313   9.107
75117SOL     OW27247   5.546   0.371   4.251
75117SOL    HW127248   5.592   0.362   4.168
75117SOL    HW227249   5.575   0.296   4.303
75118SOL     OW27250   3.425   2.449   3.079
75118SOL    HW127251   3.462   2.496   3.154
75118SOL    HW227252   3.333   2.473   3.078
75119SOL     OW27253  11.511   5.051   4.917
75119SOL    HW127254  11.557   5.076   4.837
75119SOL    HW227255  11.442   5.117   4.927
75120SOL     OW27256   6.526   5.327   6.237
75120SOL    HW127257   6.486   5.396   6.290
75120SOL    HW227258   6.620   5.337   6.252
75121SOL     OW27259  13.872  11.907   8.385
75121SOL    HW127260  13.922  11.932   8.308
75121SOL    HW227261  13.791  11.958   8.379
75122SOL     OW27262  13.842  11.910  12.855
75122SOL    HW127263  13.885  11.934  12.936
75122SOL    HW227264  13.789  11.834  12.878
75123SOL     OW27265   2.718  14.395   2.694
75123SOL    HW127266   2.633  14.432   2.718
75123SOL    HW227267   2.762  14.380   2.778
75124SOL     OW27268   2.660   4.545  13.454
75124SOL    HW127269   2.574   4.510  13.476
75124SOL    HW227270   2.704   4.474  13.408
75125SOL     OW27271  13.748   0.962   8.011
75125SOL    HW127272  13.665   0.915   8.021
75125SOL    HW227273  13.733   1.021   7.938
75126SOL     OW27274   0.037   7.619  12.141
75126SOL    HW127275  14.872   7.590  12.221
75126SOL    HW227276   0.114   7.666  12.171
75127SOL     OW27277   7.600   8.753   9.323
75127SOL    HW127278   7.657   8.695   9.273
75127SOL    HW227279   7.553   8.695   9.383
75128SOL     OW27280  13.207   7.204  10.623
75128SOL    HW127281  13.167   7.291  10.625
75128SOL    HW227282  13.225   7.184  10.715
75129SOL     OW27283   0.585  12.387   3.809
75129SOL    HW127284   0.600  12.471   3.766
75129SOL    HW227285   0.526  12.406   3.881
75130SOL     OW27286   3.672  10.178   1.956
75130SOL    HW127287   3.762  10.205   1.967
75130SOL    HW227288   3.623  10.227   2.022
75131SOL     OW27289  12.284  13.465  11.911
75131SOL    HW127290  12.364  13.474  11.962
75131SOL    HW227291  12.257  13.555  11.892
75132SOL     OW27292  11.969   7.868   8.813
75132SOL    HW127293  11.930   7.784   8.791
75132SOL    HW227294  11.918   7.900   8.887
75133SOL     OW27295  12.091   6.245   2.890
75133SOL    HW127296  12.042   6.273   2.813
75133SOL    HW227297  12.172   6.295   2.887
75134SOL     OW27298   1.876   9.900  11.670
75134SOL    HW127299   1.781   9.887  11.675
75134SOL    HW227300   1.889   9.991  11.695
75135SOL     OW27301  10.032  11.569  10.591
75135SOL    HW127302   9.993  11.656  10.594
75135SOL    HW227303  10.023  11.535  10.680
75136SOL     OW27304  11.189  12.244  12.402
75136SOL    HW127305  11.138  12.179  12.451
75136SOL    HW227306  11.150  12.244  12.315
75137SOL     OW27307   2.246   4.511   9.737
75137SOL    HW127308   2.327   4.497   9.785
75137SOL    HW227309   2.257   4.462   9.656
75138SOL     OW27310   3.054   9.023   1.216
75138SOL    HW127311   2.996   8.959   1.175
75138SOL    HW227312   3.142   8.992   1.197
75139SOL     OW27313   0.723   0.834  10.438
75139SOL    HW127314   0.643   0.883  10.422
75139SOL    HW227315   0.729   0.827  10.533
75140SOL     OW27316   0.127   7.549   4.858
75140SOL    HW127317   0.122   7.643   4.877
75140SOL    HW227318   0.194   7.541   4.791
75141SOL     OW27319  14.608   2.397   9.329
75141SOL    HW127320  14.519   2.390   9.361
75141SOL    HW227321  14.616   2.487   9.297
75142SOL     OW27322   6.687   5.166   0.453
75142SOL    HW127323   6.701   5.261   0.462
75142SOL    HW227324   6.728   5.129   0.531
75143SOL     OW27325   7.268  14.278  11.821
75143SOL    HW127326   7.352  14.276  11.867
75143SOL    HW227327   7.292  14.278  11.728
75144SOL     OW27328  11.349   9.321   1.012
75144SOL    HW127329  11.345   9.245   0.954
75144SOL    HW227330  11.345   9.284   1.100
75145SOL     OW27331   5.204   7.921   2.273
75145SOL    HW127332   5.247   7.875   2.200
75145SOL    HW227333   5.202   8.013   2.245
75146SOL     OW27334   8.701   2.199  14.087
75146SOL    HW127335   8.697   2.285  14.046
75146SOL    HW227336   8.751   2.146  14.024
75147SOL     OW27337   6.531   8.618   2.497
75147SOL    HW127338   6.438   8.596   2.503
75147SOL    HW227339   6.575   8.533   2.486
75148SOL     OW27340  12.567   0.176   2.584
75148SOL    HW127341  12.497   0.186   2.648
75148SOL    HW227342  12.632   0.241   2.609
75149SOL     OW27343  11.261   8.091   1.398
75149SOL    HW127344  11.312   8.163   1.435
75149SOL    HW227345  11.308   8.012   1.426
75150SOL     OW27346   3.482   3.005  10.681
75150SOL    HW127347   3.427   3.079  10.654
75150SOL    HW227348   3.568   3.025  10.645
75151SOL     OW27349  13.436  10.604   5.734
75151SOL    HW127350  13.431  10.614   5.829
75151SOL    HW227351  13.371  10.537   5.713
75152SOL     OW27352   2.358   7.882  13.284
75152SOL    HW127353   2.403   7.962  13.256
75152SOL    HW227354   2.389   7.868  13.374
75153SOL     OW27355   0.014   9.610  14.433
75153SOL    HW127356  14.843   9.541  14.391
75153SOL    HW227357   0.101   9.602  14.394
75154SOL     OW27358  10.091  11.083   5.379
75154SOL    HW127359  10.059  11.172   5.391
75154SOL    HW227360  10.121  11.056   5.466
75155SOL     OW27361  14.743   9.971   5.173
75155SOL    HW127362  14.698  10.010   5.098
75155SOL    HW227363  14.725  10.031   5.246
75156SOL     OW27364   6.436   6.921  12.918
75156SOL    HW127365   6.421   6.995  12.978
75156SOL    HW227366   6.514   6.947  12.868
75157SOL     OW27367  13.183   6.438   4.656
75157SOL    HW127368  13.108   6.446   4.597
75157SOL    HW227369  13.144   6.431   4.743
75158SOL     OW27370   1.781  12.598  10.952
75158SOL    HW127371   1.724  12.522  10.961
75158SOL    HW227372   1.741  12.650  10.883
75159SOL     OW27373  14.310  12.118   7.368
75159SOL    HW127374  14.279  12.166   7.444
75159SOL    HW227375  14.316  12.184   7.299
75160SOL     OW27376   2.537   9.902   2.414
75160SOL    HW127377   2.632   9.900   2.407
75160SOL    HW227378   2.520   9.907   2.508
75161SOL     OW27379   2.694   6.008  10.120
75161SOL    HW127380   2.768   6.068  10.108
75161SOL    HW227381   2.734   5.924  10.143
75162SOL     OW27382  10.682  12.620   4.722
75162SOL    HW127383  10.706  12.713   4.729
75162SOL    HW227384  10.714  12.581   4.803
75163SOL     OW27385  11.391  13.739  10.272
75163SOL    HW127386  11.421  13.673  10.209
75163SOL    HW227387  11.297  13.743  10.259
75164SOL     OW27388   4.282   5.329   5.721
75164SOL    HW127389   4.260   5.303   5.810
75164SOL    HW227390   4.377   5.336   5.720
75165SOL     OW27391   9.400   0.590   1.307
75165SOL    HW127392   9.446   0.527   1.252
75165SOL    HW227393   9.326   0.541   1.343
75166SOL     OW27394   2.699   8.520   0.282
75166SOL    HW127395   2.759   8.559   0.345
75166SOL    HW227396   2.689   8.587   0.214
75167SOL     OW27397   2.365  13.860  14.170
75167SOL    HW127398   2.388  13.952  14.173
75167SOL    HW227399   2.271  13.857  14.184
75168SOL     OW27400  11.397   0.967   3.575
75168SOL    HW127401  11.418   0.888   3.625
75168SOL    HW227402  11.481   1.004   3.551
75169SOL     OW27403   4.319   1.651   8.825
75169SOL    HW127404   4.291   1.560   8.835
75169SOL    HW227405   4.344   1.677   8.914
75170SOL     OW27406   0.783  11.489   8.197
75170SOL    HW127407   0.767  11.571   8.149
75170SOL    HW227408   0.838  11.437   8.139
75171SOL     OW27409  13.968   0.715   0.046
75171SOL    HW127410  14.019   0.636   0.030
75171SOL    HW227411  13.932   0.704   0.134
75172SOL     OW27412   0.350   3.500   2.578
75172SOL    HW127413   0.403   3.578   2.562
75172SOL    HW227414   0.303   3.486   2.496
75173SOL     OW27415   0.370   7.791  13.656
75173SOL    HW127416   0.305   7.807  13.725
75173SOL    HW227417   0.320   7.748  13.587
75174SOL     OW27418   8.641   6.465   8.705
75174SOL    HW127419   8.599   6.476   8.620
75174SOL    HW227420   8.735   6.467   8.685
75175SOL     OW27421  10.386  14.069  10.041
75175SOL    HW127422  10.407  14.019   9.962
75175SOL    HW227423  10.332  14.141  10.011
75176SOL     OW27424   6.395  13.849   4.222
75176SOL    HW127425   6.377  13.895   4.304
75176SOL    HW227426   6.490  13.836   4.221
75177SOL     OW27427  12.751   7.475   2.540
75177SOL    HW127428  12.843   7.455   2.559
75177SOL    HW227429  12.728   7.415   2.468
75178SOL     OW27430  11.675   4.669  12.847
75178SOL    HW127431  11.754   4.639  12.891
75178SOL    HW227432  11.705   4.738  12.788
75179SOL     OW27433  13.735   8.775  13.564
75179SOL    HW127434  13.650   8.777  13.520
75179SOL    HW227435  13.785   8.707  13.518
75180SOL     OW27436   5.006  13.774  14.710
75180SOL    HW127437   5.066  13.733  14.773
75180SOL    HW227438   4.962  13.843  14.761
75181SOL     OW27439   7.320  11.374   2.909
75181SOL    HW127440   7.308  11.452   2.962
75181SOL    HW227441   7.415  11.362   2.904
75182SOL     OW27442   6.281  13.266   7.164
75182SOL    HW127443   6.367  13.269   7.122
75182SOL    HW227444   6.291  13.203   7.235
75183SOL     OW27445   1.337  11.350   1.455
75183SOL    HW127446   1.382  11.320   1.376
75183SOL    HW227447   1.277  11.279   1.477
75184SOL     OW27448   6.447  12.848  12.807
75184SOL    HW127449   6.462  12.910  12.735
75184SOL    HW227450   6.407  12.772  12.765
75185SOL     OW27451   4.623   3.600   7.097
75185SOL    HW127452   4.708   3.593   7.054
75185SOL    HW227453   4.605   3.694   7.098
75186SOL     OW27454   3.417   4.761   8.508
75186SOL    HW127455   3.497   4.797   8.545
75186SOL    HW227456   3.445   4.682   8.463
75187SOL     OW27457   3.769  13.778   8.263
75187SOL    HW127458   3.720  13.737   8.334
75187SOL    HW227459   3.754  13.720   8.188
75188SOL     OW27460   9.062   1.932  12.012
75188SOL    HW127461   9.131   1.886  11.964
75188SOL    HW227462   9.047   1.878  12.090
75189SOL     OW27463   5.834   5.072  11.776
75189SOL    HW127464   5.906   5.039  11.723
75189SOL    HW227465   5.777   5.117  11.714
75190SOL     OW27466  11.832   8.573   8.444
75190SOL    HW127467  11.849   8.646   8.503
75190SOL    HW227468  11.790   8.507   8.498
75191SOL     OW27469  13.509   1.638   4.876
75191SOL    HW127470  13.519   1.706   4.810
75191SOL    HW227471  13.594   1.633   4.919
75192SOL     OW27472   9.271  13.785  12.247
75192SOL    HW127473   9.191  13.837  12.244
75192SOL    HW227474   9.244  13.698  12.218
75193SOL     OW27475   1.416   5.612   2.358
75193SOL    HW127476   1.358   5.636   2.285
75193SOL    HW227477   1.392   5.522   2.379
75194SOL     OW27478   9.121  14.121  13.382
75194SOL    HW127479   9.125  14.027  13.365
75194SOL    HW227480   9.140  14.162  13.297
75195SOL     OW27481   0.990   6.532  13.432
75195SOL    HW127482   0.939   6.488  13.499
75195SOL    HW227483   0.928   6.591  13.389
75196SOL     OW27484   6.219   2.956   3.558
75196SOL    HW127485   6.258   2.961   3.646
75196SOL    HW227486   6.258   3.029   3.511
75197SOL     OW27487   5.473   5.138  10.744
75197SOL    HW127488   5.425   5.210  10.702
75197SOL    HW227489   5.511   5.089  10.671
75198SOL     OW27490   2.183  13.032  11.849
75198SOL    HW127491   2.205  12.939  11.851
75198SOL    HW227492   2.161  13.054  11.940
75199SOL     OW27493   7.506   2.715   8.533
75199SOL    HW127494   7.565   2.786   8.560
75199SOL    HW227495   7.565   2.645   8.505
75200SOL     OW27496   5.195   9.676  14.479
75200SOL    HW127497   5.151   9.690  14.563
75200SOL    HW227498   5.233   9.761  14.458
75201SOL     OW27499   7.241   8.094  11.703
75201SOL    HW127500   7.231   8.124  11.613
75201SOL    HW227501   7.162   8.125  11.748
75202SOL     OW27502   5.671   8.513  14.632
75202SOL    HW127503   5.744   8.572  14.614
75202SOL    HW227504   5.667   8.455  14.556
75203SOL     OW27505   5.721   4.752   1.859
75203SOL    HW127506   5.639   4.754   1.809
75203SOL    HW227507   5.699   4.791   1.943
75204SOL     OW27508  14.875   6.537  10.319
75204SOL    HW127509   0.054   6.584  10.259
75204SOL    HW227510   0.050   6.511  10.392
75205SOL     OW27511   9.082  10.965   8.055
75205SOL    HW127512   9.172  10.944   8.030
75205SOL    HW227513   9.076  11.060   8.049
75206SOL     OW27514  11.692  12.973  13.972
75206SOL    HW127515  11.734  13.058  13.985
75206SOL    HW227516  11.600  12.993  13.957
75207SOL     OW27517  14.839   8.131  12.679
75207SOL    HW127518  14.846   8.042  12.643
75207SOL    HW227519  14.745   8.150  12.676
75208SOL     OW27520   2.331   8.190  12.856
75208SOL    HW127521   2.407   8.204  12.913
75208SOL    HW227522   2.339   8.257  12.789
75209SOL     OW27523  12.596  13.342   7.950
75209SOL    HW127524  12.579  13.424   7.904
75209SOL    HW227525  12.562  13.274   7.892
75210SOL     OW27526   4.068   0.851  12.439
75210SOL    HW127527   4.130   0.882  12.373
75210SOL    HW227528   4.063   0.756  12.424
75211SOL     OW27529  13.745   9.242   7.232
75211SOL    HW127530  13.681   9.223   7.164
75211SOL    HW227531  13.767   9.156   7.269
75212SOL     OW27532   0.012   8.372  11.760
75212SOL    HW127533   0.085   8.314  11.779
75212SOL    HW227534  14.857   8.396  11.846
75213SOL     OW27535   8.279   8.883   8.057
75213SOL    HW127536   8.296   8.828   8.134
75213SOL    HW227537   8.324   8.966   8.076
75214SOL     OW27538   0.476   4.177   4.813
75214SOL    HW127539   0.425   4.255   4.836
75214SOL    HW227540   0.414   4.105   4.817
75215SOL     OW27541  13.496   5.320  12.140
75215SOL    HW127542  13.458   5.250  12.086
75215SOL    HW227543  13.519   5.388  12.077
75216SOL     OW27544  13.357  12.604   2.422
75216SOL    HW127545  13.318  12.668   2.363
75216SOL    HW227546  13.360  12.523   2.372
75217SOL     OW27547   3.523   0.335  11.291
75217SOL    HW127548   3.520   0.266  11.358
75217SOL    HW227549   3.594   0.392  11.319
75218SOL     OW27550  12.976   2.662   7.480
75218SOL    HW127551  12.915   2.712   7.535
75218SOL    HW227552  13.034   2.618   7.542
75219SOL     OW27553   8.284  12.287  14.790
75219SOL    HW127554   8.263  12.267  14.699
75219SOL    HW227555   8.199  12.294  14.834
75220SOL     OW27556   4.666  13.254  10.846
75220SOL    HW127557   4.753  13.288  10.870
75220SOL    HW227558   4.630  13.219  10.928
75221SOL     OW27559   1.321   1.034   7.776
75221SOL    HW127560   1.302   0.954   7.726
75221SOL    HW227561   1.249   1.093   7.754
75222SOL     OW27562  10.659  10.993  11.630
75222SOL    HW127563  10.691  11.056  11.566
75222SOL    HW227564  10.704  11.015  11.711
75223SOL     OW27565   1.616  10.904   6.181
75223SOL    HW127566   1.655  10.840   6.241
75223SOL    HW227567   1.559  10.957   6.236
75224SOL     OW27568  13.153   9.085   9.855
75224SOL    HW127569  13.218   9.025   9.890
75224SOL    HW227570  13.097   9.031   9.800
75225SOL     OW27571   4.658  12.012   3.720
75225SOL    HW127572   4.662  12.102   3.750
75225SOL    HW227573   4.750  11.986   3.709
75226SOL     OW27574   2.449   9.192   0.568
75226SOL    HW127575   2.491   9.268   0.610
75226SOL    HW227576   2.429   9.133   0.641
75227SOL     OW27577   9.058   9.089   6.542
75227SOL    HW127578   9.050   9.167   6.488
75227SOL    HW227579   9.152   9.080   6.559
75228SOL     OW27580   7.493   9.526   3.000
75228SOL    HW127581   7.575   9.482   2.976
75228SOL    HW227582   7.495   9.609   2.952
75229SOL     OW27583   9.293   6.234   7.265
75229SOL    HW127584   9.329   6.267   7.347
75229SOL    HW227585   9.268   6.313   7.216
75230SOL     OW27586  13.593  13.471   1.174
75230SOL    HW127587  13.652  13.445   1.103
75230SOL    HW227588  13.647  13.522   1.233
75231SOL     OW27589  14.051  11.711  12.768
75231SOL    HW127590  14.017  11.649  12.833
75231SOL    HW227591  13.986  11.782  12.766
75232SOL     OW27592   9.800  11.106   2.560
75232SOL    HW127593   9.803  11.011   2.547
75232SOL    HW227594   9.865  11.122   2.628
75233SOL     OW27595   5.642   6.904   5.325
75233SOL    HW127596   5.620   6.838   5.259
75233SOL    HW227597   5.645   6.856   5.407
75234SOL     OW27598  12.315   1.876  14.023
75234SOL    HW127599  12.307   1.886  14.117
75234SOL    HW227600  12.300   1.783  14.007
75235SOL     OW27601  10.331  14.439   2.473
75235SOL    HW127602  10.342  14.486   2.390
75235SOL    HW227603  10.293  14.355   2.448
75236SOL     OW27604   6.553  12.101   2.624
75236SOL    HW127605   6.602  12.172   2.665
75236SOL    HW227606   6.522  12.048   2.698
75237SOL     OW27607  14.814   1.894  12.657
75237SOL    HW127608  14.862   1.892  12.575
75237SOL    HW227609  14.848   1.819  12.707
75238SOL     OW27610   0.343   1.593  12.601
75238SOL    HW127611   0.435   1.598  12.573
75238SOL    HW227612   0.294   1.626  12.526
75239SOL     OW27613   9.996  13.327   3.838
75239SOL    HW127614   9.971  13.270   3.911
75239SOL    HW227615   9.948  13.408   3.854
75240SOL     OW27616   1.903  10.890  12.752
75240SOL    HW127617   1.959  10.847  12.687
75240SOL    HW227618   1.954  10.886  12.833
75241SOL     OW27619  11.235  11.627   2.857
75241SOL    HW127620  11.270  11.538   2.859
75241SOL    HW227621  11.141  11.616   2.866
75242SOL     OW27622   5.503   2.925  10.443
75242SOL    HW127623   5.473   2.915  10.534
75242SOL    HW227624   5.423   2.925  10.391
75243SOL     OW27625   5.027   4.631  12.481
75243SOL    HW127626   5.063   4.607  12.567
75243SOL    HW227627   5.103   4.629  12.423
75244SOL     OW27628   4.993   6.391   5.840
75244SOL    HW127629   4.933   6.413   5.911
75244SOL    HW227630   4.941   6.406   5.760
75245SOL     OW27631   0.697   6.089   2.602
75245SOL    HW127632   0.634   6.116   2.536
75245SOL    HW227633   0.747   6.019   2.560
75246SOL     OW27634  13.166   5.872   4.605
75246SOL    HW127635  13.163   5.788   4.651
75246SOL    HW227636  13.247   5.913   4.634
75247SOL     OW27637   2.637   2.746   9.283
75247SOL    HW127638   2.602   2.691   9.214
75247SOL    HW227639   2.672   2.823   9.238
75248SOL     OW27640   8.968   4.414   8.690
75248SOL    HW127641   9.063   4.397   8.687
75248SOL    HW227642   8.953   4.474   8.617
75249SOL     OW27643  13.048   2.161   9.015
75249SOL    HW127644  13.077   2.088   8.960
75249SOL    HW227645  12.985   2.122   9.075
75250SOL     OW27646   4.431   7.962   2.513
75250SOL    HW127647   4.467   7.926   2.432
75250SOL    HW227648   4.397   7.886   2.561
75251SOL     OW27649   0.212   5.641  12.107
75251SOL    HW127650   0.273   5.714  12.109
75251SOL    HW227651   0.126   5.682  12.096
75252SOL     OW27652   6.647   3.478   7.902
75252SOL    HW127653   6.595   3.398   7.908
75252SOL    HW227654   6.584   3.549   7.916
75253SOL     OW27655   2.922  14.096   5.328
75253SOL    HW127656   2.921  14.023   5.390
75253SOL    HW227657   2.911  14.174   5.382
75254SOL     OW27658   1.240  10.294  10.763
75254SOL    HW127659   1.266  10.219  10.817
75254SOL    HW227660   1.178  10.257  10.700
75255SOL     OW27661   7.695   7.225  11.441
75255SOL    HW127662   7.719   7.316  11.428
75255SOL    HW227663   7.600   7.224  11.432
75256SOL     OW27664   3.759  11.166   7.616
75256SOL    HW127665   3.680  11.206   7.581
75256SOL    HW227666   3.736  11.074   7.629
75257SOL     OW27667  10.302   0.753   5.559
75257SOL    HW127668  10.233   0.778   5.498
75257SOL    HW227669  10.367   0.823   5.553
75258SOL     OW27670  11.981   1.627   3.255
75258SOL    HW127671  12.001   1.702   3.311
75258SOL    HW227672  11.973   1.663   3.167
75259SOL     OW27673  11.177  11.786  11.590
75259SOL    HW127674  11.230  11.736  11.529
75259SOL    HW227675  11.138  11.855  11.537
75260SOL     OW27676   7.958   7.180   9.108
75260SOL    HW127677   7.880   7.154   9.059
75260SOL    HW227678   8.028   7.182   9.043
75261SOL     OW27679   5.687   0.748   7.855
75261SOL    HW127680   5.703   0.755   7.760
75261SOL    HW227681   5.691   0.838   7.886
75262SOL     OW27682  13.496   9.156  10.987
75262SOL    HW127683  13.540   9.076  11.017
75262SOL    HW227684  13.428   9.172  11.053
75263SOL     OW27685  13.286  14.732   9.180
75263SOL    HW127686  13.350  14.761   9.244
75263SOL    HW227687  13.261  14.644   9.209
75264SOL     OW27688   3.227   3.688  12.307
75264SOL    HW127689   3.149   3.636  12.327
75264SOL    HW227690   3.265   3.644  12.231
75265SOL     OW27691  13.960   4.881   1.754
75265SOL    HW127692  14.041   4.849   1.717
75265SOL    HW227693  13.892   4.856   1.691
75266SOL     OW27694  13.262  13.085  14.721
75266SOL    HW127695  13.205  13.045  14.656
75266SOL    HW227696  13.342  13.106  14.673
75267SOL     OW27697   5.188   0.613   8.156
75267SOL    HW127698   5.141   0.689   8.124
75267SOL    HW227699   5.228   0.642   8.238
75268SOL     OW27700   8.908  14.808  12.659
75268SOL    HW127701   8.948  14.738  12.710
75268SOL    HW227702   8.933   0.009  12.704
75269SOL     OW27703  12.833  10.737  13.306
75269SOL    HW127704  12.815  10.825  13.274
75269SOL    HW227705  12.926  10.724  13.290
75270SOL     OW27706   9.086   4.439  12.583
75270SOL    HW127707   9.120   4.521  12.547
75270SOL    HW227708   9.164   4.392  12.613
75271SOL     OW27709   3.920   1.296   1.612
75271SOL    HW127710   3.882   1.211   1.591
75271SOL    HW227711   4.008   1.294   1.574
75272SOL     OW27712   7.189   1.841  14.593
75272SOL    HW127713   7.247   1.854  14.518
75272SOL    HW227714   7.224   1.899  14.661
75273SOL     OW27715  13.681   0.025   7.624
75273SOL    HW127716  13.731   0.051   7.701
75273SOL    HW227717  13.605  14.858   7.658
75274SOL     OW27718  11.366   4.432  13.395
75274SOL    HW127719  11.433   4.459  13.333
75274SOL    HW227720  11.413   4.381  13.461
75275SOL     OW27721  14.191   2.668   7.830
75275SOL    HW127722  14.117   2.712   7.787
75275SOL    HW227723  14.187   2.578   7.798
75276SOL     OW27724  10.214  12.705   6.555
75276SOL    HW127725  10.307  12.724   6.546
75276SOL    HW227726  10.190  12.745   6.639
75277SOL     OW27727   9.421  10.531   9.141
75277SOL    HW127728   9.331  10.502   9.125
75277SOL    HW227729   9.473  10.451   9.139
75278SOL     OW27730   3.964   8.645  12.067
75278SOL    HW127731   3.885   8.698  12.080
75278SOL    HW227732   3.931   8.558  12.048
75279SOL     OW27733  11.588   7.660   8.820
75279SOL    HW127734  11.507   7.671   8.869
75279SOL    HW227735  11.562   7.662   8.728
75280SOL     OW27736  14.877   1.040  10.547
75280SOL    HW127737  14.837   1.114  10.593
75280SOL    HW227738  14.806   1.002  10.496
75281SOL     OW27739   7.038  13.639   6.941
75281SOL    HW127740   7.079  13.721   6.915
75281SOL    HW227741   6.948  13.663   6.964
75282SOL     OW27742  11.704  14.601   7.153
75282SOL    HW127743  11.648  14.529   7.124
75282SOL    HW227744  11.743  14.569   7.235
75283SOL     OW27745  10.159   0.723  14.841
75283SOL    HW127746  10.254   0.714  14.855
75283SOL    HW227747  10.126   0.755   0.046
75284SOL     OW27748   0.876   8.996  12.708
75284SOL    HW127749   0.937   9.042  12.765
75284SOL    HW227750   0.927   8.975  12.630
75285SOL     OW27751   4.029   3.035   3.978
75285SOL    HW127752   4.003   3.116   4.022
75285SOL    HW227753   3.985   3.039   3.893
75286SOL     OW27754   6.513   2.533   7.584
75286SOL    HW127755   6.542   2.605   7.639
75286SOL    HW227756   6.583   2.467   7.591
75287SOL     OW27757  13.675  13.670   8.913
75287SOL    HW127758  13.727  13.609   8.860
75287SOL    HW227759  13.666  13.748   8.858
75288SOL     OW27760   3.864  11.609   6.019
75288SOL    HW127761   3.939  11.651   6.062
75288SOL    HW227762   3.834  11.674   5.955
75289SOL     OW27763   1.079  14.341   6.411
75289SOL    HW127764   1.125  14.377   6.487
75289SOL    HW227765   1.110  14.251   6.405
75290SOL     OW27766   5.652  14.663   6.417
75290SOL    HW127767   5.616  14.626   6.336
75290SOL    HW227768   5.617  14.608   6.486
75291SOL     OW27769   2.077   5.729   9.611
75291SOL    HW127770   1.994   5.761   9.646
75291SOL    HW227771   2.064   5.727   9.516
75292SOL     OW27772  10.823   3.376   0.720
75292SOL    HW127773  10.790   3.441   0.658
75292SOL    HW227774  10.766   3.300   0.705
75293SOL     OW27775  12.973  14.326  11.195
75293SOL    HW127776  12.924  14.244  11.190
75293SOL    HW227777  12.905  14.393  11.207
75294SOL     OW27778   2.624   3.076  14.691
75294SOL    HW127779   2.613   3.018  14.767
75294SOL    HW227780   2.672   3.152  14.725
75295SOL     OW27781   2.643   3.338   3.566
75295SOL    HW127782   2.618   3.329   3.474
75295SOL    HW227783   2.682   3.425   3.572
75296SOL     OW27784   2.259  10.698   7.582
75296SOL    HW127785   2.315  10.770   7.554
75296SOL    HW227786   2.280  10.685   7.675
75297SOL     OW27787  11.735   2.719  13.185
75297SOL    HW127788  11.647   2.704  13.219
75297SOL    HW227789  11.751   2.644  13.128
75298SOL     OW27790  14.047   4.583   4.101
75298SOL    HW127791  14.017   4.654   4.158
75298SOL    HW227792  14.143   4.591   4.102
75299SOL     OW27793   4.398   5.957   9.948
75299SOL    HW127794   4.438   5.986   9.866
75299SOL    HW227795   4.465   5.973  10.014
75300SOL     OW27796   2.512   1.203   6.409
75300SOL    HW127797   2.432   1.224   6.456
75300SOL    HW227798   2.569   1.165   6.475
75301SOL     OW27799  11.511   7.481   5.793
75301SOL    HW127800  11.443   7.426   5.753
75301SOL    HW227801  11.500   7.566   5.752
75302SOL     OW27802   6.376  13.955   7.132
75302SOL    HW127803   6.330  13.932   7.051
75302SOL    HW227804   6.437  14.024   7.105
75303SOL     OW27805   5.723   0.709  10.647
75303SOL    HW127806   5.725   0.784  10.588
75303SOL    HW227807   5.651   0.655  10.615
75304SOL     OW27808   2.390  12.511   5.179
75304SOL    HW127809   2.479  12.526   5.147
75304SOL    HW227810   2.351  12.452   5.115
75305SOL     OW27811  12.094   9.242  10.713
75305SOL    HW127812  12.158   9.313  10.699
75305SOL    HW227813  12.009   9.286  10.716
75306SOL     OW27814   6.237  13.842   2.846
75306SOL    HW127815   6.316  13.862   2.796
75306SOL    HW227816   6.165  13.865   2.787
75307SOL     OW27817   2.268  11.733  11.005
75307SOL    HW127818   2.363  11.728  10.997
75307SOL    HW227819   2.244  11.653  11.053
75308SOL     OW27820   6.111  14.709  12.326
75308SOL    HW127821   6.018  14.716  12.348
75308SOL    HW227822   6.136  14.623  12.358
75309SOL     OW27823   2.488  13.333   1.638
75309SOL    HW127824   2.450  13.267   1.696
75309SOL    HW227825   2.498  13.288   1.554
75310SOL     OW27826  13.361   7.072   4.883
75310SOL    HW127827  13.276   7.116   4.890
75310SOL    HW227828  13.424   7.136   4.915
75311SOL     OW27829  10.849   7.098   8.321
75311SOL    HW127830  10.842   7.004   8.336
75311SOL    HW227831  10.941   7.112   8.299
75312SOL     OW27832  11.891   8.961   4.994
75312SOL    HW127833  11.920   9.045   4.957
75312SOL    HW227834  11.953   8.897   4.960
75313SOL     OW27835   0.430  10.373   9.271
75313SOL    HW127836   0.506  10.417   9.309
75313SOL    HW227837   0.408  10.304   9.333
75314SOL     OW27838  14.211   9.265   4.846
75314SOL    HW127839  14.274   9.199   4.876
75314SOL    HW227840  14.134   9.253   4.901
75315SOL     OW27841  11.617   2.960  11.271
75315SOL    HW127842  11.588   3.050  11.258
75315SOL    HW227843  11.697   2.953  11.219
75316SOL     OW27844   8.043   8.921  11.117
75316SOL    HW127845   8.028   8.911  11.023
75316SOL    HW227846   8.121   8.976  11.124
75317SOL     OW27847  12.644   4.924   7.704
75317SOL    HW127848  12.555   4.957   7.696
75317SOL    HW227849  12.651   4.858   7.635
75318SOL     OW27850   5.434   1.839   1.673
75318SOL    HW127851   5.493   1.903   1.633
75318SOL    HW227852   5.489   1.792   1.735
75319SOL     OW27853  13.041   7.999  10.433
75319SOL    HW127854  13.027   7.917  10.386
75319SOL    HW227855  13.098   8.050  10.375
75320SOL     OW27856   3.095   3.187   3.618
75320SOL    HW127857   3.090   3.101   3.661
75320SOL    HW227858   3.187   3.197   3.596
75321SOL     OW27859   5.101  12.679  10.176
75321SOL    HW127860   5.100  12.583  10.173
75321SOL    HW227861   5.103  12.700  10.270
75322SOL     OW27862  11.498   5.659   1.682
75322SOL    HW127863  11.480   5.644   1.775
75322SOL    HW227864  11.447   5.736   1.659
75323SOL     OW27865   2.304  14.699   3.447
75323SOL    HW127866   2.255  14.751   3.512
75323SOL    HW227867   2.393  14.695   3.482
75324SOL     OW27868   8.929   9.595  13.233
75324SOL    HW127869   9.012   9.643  13.228
75324SOL    HW227870   8.862   9.660  13.211
75325SOL     OW27871   7.646   5.695   6.056
75325SOL    HW127872   7.735   5.718   6.032
75325SOL    HW227873   7.654   5.617   6.111
75326SOL     OW27874   4.826  13.965   2.372
75326SOL    HW127875   4.828  13.884   2.322
75326SOL    HW227876   4.911  14.005   2.357
75327SOL     OW27877  12.796   3.422   9.898
75327SOL    HW127878  12.772   3.515   9.899
75327SOL    HW227879  12.805   3.401   9.805
75328SOL     OW27880   3.941   7.350   9.279
75328SOL    HW127881   4.009   7.359   9.346
75328SOL    HW227882   3.882   7.424   9.294
75329SOL     OW27883   3.313   4.217  13.393
75329SOL    HW127884   3.349   4.255  13.312
75329SOL    HW227885   3.326   4.285  13.459
75330SOL     OW27886   4.177   5.577   1.486
75330SOL    HW127887   4.103   5.592   1.428
75330SOL    HW227888   4.184   5.481   1.491
75331SOL     OW27889   7.796   5.694   0.002
75331SOL    HW127890   7.778   5.623   0.063
75331SOL    HW227891   7.794   5.773   0.056
75332SOL     OW27892   0.464  12.756  12.837
75332SOL    HW127893   0.452  12.726  12.747
75332SOL    HW227894   0.539  12.704  12.870
75333SOL     OW27895   2.286   7.728   3.322
75333SOL    HW127896   2.270   7.774   3.404
75333SOL    HW227897   2.270   7.636   3.343
75334SOL     OW27898  11.646   4.320   4.682
75334SOL    HW127899  11.572   4.294   4.736
75334SOL    HW227900  11.617   4.402   4.640
75335SOL     OW27901  10.665   0.884  11.001
75335SOL    HW127902  10.701   0.802  10.966
75335SOL    HW227903  10.741   0.941  11.013
75336SOL     OW27904   4.974   7.953   9.043
75336SOL    HW127905   4.928   7.898   8.979
75336SOL    HW227906   4.985   8.037   8.999
75337SOL     OW27907   1.779   8.600  14.253
75337SOL    HW127908   1.780   8.544  14.175
75337SOL    HW227909   1.871   8.615  14.273
75338SOL     OW27910  14.011   8.138  10.576
75338SOL    HW127911  14.104   8.127  10.553
75338SOL    HW227912  13.987   8.223  10.538
75339SOL     OW27913   7.085   7.714  12.079
75339SOL    HW127914   7.037   7.735  11.999
75339SOL    HW227915   7.051   7.776  12.144
75340SOL     OW27916  14.790   2.332   6.653
75340SOL    HW127917  14.740   2.252   6.673
75340SOL    HW227918  14.789   2.383   6.733
75341SOL     OW27919  13.219  12.109   7.740
75341SOL    HW127920  13.235  12.051   7.814
75341SOL    HW227921  13.225  12.198   7.777
75342SOL     OW27922   4.785  10.692  13.546
75342SOL    HW127923   4.868  10.654  13.575
75342SOL    HW227924   4.753  10.740  13.622
75343SOL     OW27925   0.885   7.311   6.464
75343SOL    HW127926   0.823   7.326   6.536
75343SOL    HW227927   0.882   7.216   6.449
75344SOL     OW27928   9.632  11.145   3.119
75344SOL    HW127929   9.573  11.133   3.193
75344SOL    HW227930   9.581  11.116   3.043
75345SOL     OW27931   5.885   6.130   1.562
75345SOL    HW127932   5.911   6.051   1.610
75345SOL    HW227933   5.953   6.194   1.584
75346SOL     OW27934   0.660  12.290  11.688
75346SOL    HW127935   0.696  12.308  11.601
75346SOL    HW227936   0.735  12.301  11.747
75347SOL     OW27937   0.234  14.664   8.485
75347SOL    HW127938   0.163  14.645   8.546
75347SOL    HW227939   0.230  14.759   8.473
75348SOL     OW27940  12.604   9.961   4.058
75348SOL    HW127941  12.547   9.927   3.989
75348SOL    HW227942  12.545   9.977   4.132
75349SOL     OW27943   4.670  14.740  13.612
75349SOL    HW127944   4.752  14.693  13.628
75349SOL    HW227945   4.623  14.686  13.549
75350SOL     OW27946   7.578   8.757   5.811
75350SOL    HW127947   7.650   8.702   5.840
75350SOL    HW227948   7.590   8.840   5.858
75351SOL     OW27949   2.862   4.906  13.738
75351SOL    HW127950   2.863   4.942  13.649
75351SOL    HW227951   2.881   4.981  13.794
75352SOL     OW27952   4.893   4.173  11.121
75352SOL    HW127953   4.836   4.210  11.054
75352SOL    HW227954   4.834   4.126  11.179
75353SOL     OW27955  12.709   2.740   1.807
75353SOL    HW127956  12.717   2.698   1.893
75353SOL    HW227957  12.620   2.774   1.806
75354SOL     OW27958   3.992   6.541  13.416
75354SOL    HW127959   3.902   6.514  13.432
75354SOL    HW227960   4.028   6.558  13.504
75355SOL     OW27961   5.718  11.327   5.873
75355SOL    HW127962   5.694  11.396   5.935
75355SOL    HW227963   5.639  11.311   5.823
75356SOL     OW27964  14.340  10.285  13.254
75356SOL    HW127965  14.334  10.366  13.204
75356SOL    HW227966  14.433  10.276  13.275
75357SOL     OW27967   3.730   6.741  13.413
75357SOL    HW127968   3.666   6.812  13.408
75357SOL    HW227969   3.815   6.786  13.413
75358SOL     OW27970  13.035   9.285   4.510
75358SOL    HW127971  13.053   9.191   4.513
75358SOL    HW227972  13.063   9.318   4.595
75359SOL     OW27973   8.713  11.175   0.182
75359SOL    HW127974   8.707  11.268   0.205
75359SOL    HW227975   8.721  11.131   0.267
75360SOL     OW27976   9.052   0.091   1.397
75360SOL    HW127977   9.070   0.000   1.373
75360SOL    HW227978   8.987   0.120   1.334
75361SOL     OW27979  12.283  11.847  13.745
75361SOL    HW127980  12.217  11.797  13.794
75361SOL    HW227981  12.337  11.780  13.703
75362SOL     OW27982  13.259   5.983   7.480
75362SOL    HW127983  13.251   6.069   7.521
75362SOL    HW227984  13.208   5.990   7.399
75363SOL     OW27985   6.148   3.303   2.337
75363SOL    HW127986   6.074   3.266   2.384
75363SOL    HW227987   6.162   3.243   2.263
75364SOL     OW27988   3.691   4.965   5.128
75364SOL    HW127989   3.673   4.872   5.139
75364SOL    HW227990   3.604   5.006   5.124
75365SOL     OW27991   8.546   1.794  14.631
75365SOL    HW127992   8.571   1.799  14.539
75365SOL    HW227993   8.629   1.788  14.678
75366SOL     OW27994   6.332   1.714   2.600
75366SOL    HW127995   6.412   1.671   2.628
75366SOL    HW227996   6.318   1.783   2.665
75367SOL     OW27997  14.646  14.509   8.789
75367SOL    HW127998  14.614  14.422   8.766
75367SOL    HW227999  14.641  14.558   8.707
75368SOL     OW28000   4.182   1.310  12.300
75368SOL    HW128001   4.090   1.305  12.273
75368SOL    HW228002   4.191   1.242  12.367
75369SOL     OW28003  11.573  13.048  11.683
75369SOL    HW128004  11.643  13.070  11.622
75369SOL    HW228005  11.575  12.952  11.689
75370SOL     OW28006  12.490  10.720   1.856
75370SOL    HW128007  12.419  10.663   1.826
75370SOL    HW228008  12.519  10.682   1.938
75371SOL     OW28009   6.970   0.596   1.958
75371SOL    HW128010   6.919   0.677   1.957
75371SOL    HW228011   6.921   0.535   1.903
75372SOL     OW28012   1.645  13.244   2.621
75372SOL    HW128013   1.651  13.307   2.693
75372SOL    HW228014   1.577  13.279   2.564
75373SOL     OW28015   8.527  10.462   9.067
75373SOL    HW128016   8.511  10.371   9.089
75373SOL    HW228017   8.447  10.492   9.024
75374SOL     OW28018   5.864   7.171   3.193
75374SOL    HW128019   5.801   7.230   3.152
75374SOL    HW228020   5.812   7.094   3.217
75375SOL     OW28021  14.367   7.576  14.015
75375SOL    HW128022  14.421   7.551  14.089
75375SOL    HW228023  14.330   7.661  14.040
75376SOL     OW28024  12.861  14.306   3.848
75376SOL    HW128025  12.805  14.329   3.922
75376SOL    HW228026  12.822  14.226   3.812
75377SOL     OW28027  13.845  12.954   6.224
75377SOL    HW128028  13.931  12.976   6.187
75377SOL    HW228029  13.845  12.858   6.228
75378SOL     OW28030  12.856   7.384   5.616
75378SOL    HW128031  12.765   7.408   5.634
75378SOL    HW228032  12.876   7.317   5.682
75379SOL     OW28033  14.380  10.257   8.803
75379SOL    HW128034  14.394  10.221   8.715
75379SOL    HW228035  14.407  10.187   8.862
75380SOL     OW28036  14.550   7.796   0.605
75380SOL    HW128037  14.640   7.818   0.579
75380SOL    HW228038  14.545   7.701   0.597
75381SOL     OW28039  11.472   8.091   6.735
75381SOL    HW128040  11.460   8.103   6.829
75381SOL    HW228041  11.532   8.017   6.728
75382SOL     OW28042   3.850   0.084   5.143
75382SOL    HW128043   3.941   0.112   5.128
75382SOL    HW228044   3.837   0.010   5.084
75383SOL     OW28045  12.974  13.200   0.550
75383SOL    HW128046  13.003  13.202   0.641
75383SOL    HW228047  13.036  13.141   0.506
75384SOL     OW28048   3.878   2.753   8.892
75384SOL    HW128049   3.969   2.730   8.911
75384SOL    HW228050   3.852   2.691   8.823
75385SOL     OW28051  13.423   6.335   9.141
75385SOL    HW128052  13.484   6.284   9.194
75385SOL    HW228053  13.454   6.425   9.148
75386SOL     OW28054   9.192   4.423  13.336
75386SOL    HW128055   9.241   4.386  13.262
75386SOL    HW228056   9.217   4.515  13.337
75387SOL     OW28057   8.632  13.576   9.980
75387SOL    HW128058   8.570  13.503   9.980
75387SOL    HW228059   8.585  13.647   9.935
75388SOL     OW28060  10.295  11.472   4.701
75388SOL    HW128061  10.381  11.434   4.685
75388SOL    HW228062  10.242  11.400   4.736
75389SOL     OW28063   1.517  11.967   4.587
75389SOL    HW128064   1.472  11.996   4.666
75389SOL    HW228065   1.566  12.043   4.557
75390SOL     OW28066  14.600   1.866   4.675
75390SOL    HW128067  14.552   1.809   4.735
75390SOL    HW228068  14.555   1.857   4.592
75391SOL     OW28069   1.776  12.348   1.758
75391SOL    HW128070   1.804  12.343   1.667
75391SOL    HW228071   1.682  12.329   1.755
75392SOL     OW28072   0.070  11.003  10.012
75392SOL    HW128073   0.036  11.058   9.942
75392SOL    HW228074  14.876  10.945  10.035
75393SOL     OW28075   0.318  14.167   8.007
75393SOL    HW128076   0.333  14.218   7.928
75393SOL    HW228077   0.230  14.192   8.035
75394SOL     OW28078  11.173   8.032   6.894
75394SOL    HW128079  11.196   8.125   6.890
75394SOL    HW228080  11.083   8.028   6.863
75395SOL     OW28081   7.746   6.405   0.807
75395SOL    HW128082   7.772   6.380   0.896
75395SOL    HW228083   7.699   6.328   0.774
75396SOL     OW28084   5.945  10.618   0.119
75396SOL    HW128085   5.880  10.661   0.063
75396SOL    HW228086   6.030  10.645   0.083
75397SOL     OW28087  11.825   5.926   2.422
75397SOL    HW128088  11.806   5.870   2.346
75397SOL    HW228089  11.844   6.012   2.385
75398SOL     OW28090   9.621  11.560   7.301
75398SOL    HW128091   9.709  11.545   7.267
75398SOL    HW228092   9.586  11.629   7.245
75399SOL     OW28093   3.067   3.408   6.829
75399SOL    HW128094   3.018   3.443   6.904
75399SOL    HW228095   3.022   3.326   6.808
75400SOL     OW28096  12.466   9.080   0.884
75400SOL    HW128097  12.506   9.062   0.800
75400SOL    HW228098  12.522   9.146   0.925
75401SOL     OW28099   0.893   3.118   1.493
75401SOL    HW128100   0.899   3.052   1.423
75401SOL    HW228101   0.904   3.067   1.574
75402SOL     OW28102  14.752   6.968   6.363
75402SOL    HW128103  14.705   6.889   6.337
75402SOL    HW228104  14.702   7.039   6.323
75403SOL     OW28105   8.529   2.865  12.937
75403SOL    HW128106   8.619   2.891  12.955
75403SOL    HW228107   8.521   2.777  12.972
75404SOL     OW28108   9.327  14.034   5.311
75404SOL    HW128109   9.287  13.955   5.346
75404SOL    HW228110   9.254  14.094   5.296
75405SOL     OW28111   0.951  10.399   7.381
75405SOL    HW128112   0.916  10.463   7.443
75405SOL    HW228113   0.926  10.314   7.418
75406SOL     OW28114   6.423   0.037   4.582
75406SOL    HW128115   6.483   0.050   4.509
75406SOL    HW228116   6.343   0.084   4.557
75407SOL     OW28117   4.893  10.965   0.002
75407SOL    HW128118   4.972  11.017   0.017
75407SOL    HW228119   4.833  11.026  14.838
75408SOL     OW28120   9.497   7.742  13.561
75408SOL    HW128121   9.432   7.709  13.623
75408SOL    HW228122   9.497   7.837  13.573
75409SOL     OW28123   5.545  11.679   1.556
75409SOL    HW128124   5.560  11.756   1.500
75409SOL    HW228125   5.563  11.711   1.645
75410SOL     OW28126  13.539  10.956   0.437
75410SOL    HW128127  13.590  10.890   0.391
75410SOL    HW228128  13.604  11.016   0.474
75411SOL     OW28129   0.466   7.492  11.590
75411SOL    HW128130   0.397   7.428  11.570
75411SOL    HW228131   0.489   7.530  11.505
75412SOL     OW28132  13.051   3.488  11.223
75412SOL    HW128133  13.055   3.422  11.153
75412SOL    HW228134  13.122   3.549  11.202
75413SOL     OW28135   0.332  10.428   1.269
75413SOL    HW128136   0.260  10.381   1.226
75413SOL    HW228137   0.346  10.380   1.351
75414SOL     OW28138   9.102   5.352   5.026
75414SOL    HW128139   9.196   5.351   5.046
75414SOL    HW228140   9.091   5.282   4.961
75415SOL     OW28141   2.758  10.177   1.671
75415SOL    HW128142   2.840  10.203   1.629
75415SOL    HW228143   2.785  10.116   1.740
75416SOL     OW28144   3.756   9.883   1.128
75416SOL    HW128145   3.843   9.920   1.148
75416SOL    HW228146   3.695   9.948   1.163
75417SOL     OW28147  11.756   6.483  13.354
75417SOL    HW128148  11.777   6.572  13.326
75417SOL    HW228149  11.802   6.472  13.437
75418SOL     OW28150  13.482  14.783   3.324
75418SOL    HW128151  13.488  14.688   3.337
75418SOL    HW228152  13.400  14.807   3.366
75419SOL     OW28153   5.546   8.026   0.811
75419SOL    HW128154   5.559   8.018   0.716
75419SOL    HW228155   5.489   8.101   0.821
75420SOL     OW28156  10.855   8.801   1.099
75420SOL    HW128157  10.844   8.784   1.193
75420SOL    HW228158  10.811   8.727   1.057
75421SOL     OW28159   8.203   9.795   1.278
75421SOL    HW128160   8.211   9.792   1.182
75421SOL    HW228161   8.108   9.803   1.293
75422SOL     OW28162   7.325   5.511   2.670
75422SOL    HW128163   7.357   5.581   2.613
75422SOL    HW228164   7.383   5.514   2.746
75423SOL     OW28165   5.655  14.054  13.870
75423SOL    HW128166   5.690  14.143  13.869
75423SOL    HW228167   5.686  14.016  13.788
75424SOL     OW28168   9.475   2.953   7.561
75424SOL    HW128169   9.470   2.859   7.578
75424SOL    HW228170   9.568   2.974   7.565
75425SOL     OW28171   9.737  11.517   2.424
75425SOL    HW128172   9.674  11.588   2.440
75425SOL    HW228173   9.786  11.546   2.347
75426SOL     OW28174   1.032   4.058   7.623
75426SOL    HW128175   1.054   4.151   7.614
75426SOL    HW228176   0.987   4.052   7.708
75427SOL     OW28177   3.438   0.410   8.416
75427SOL    HW128178   3.379   0.472   8.460
75427SOL    HW228179   3.404   0.324   8.441
75428SOL     OW28180   0.708   8.606   1.509
75428SOL    HW128181   0.801   8.628   1.505
75428SOL    HW228182   0.698   8.532   1.450
75429SOL     OW28183   1.866   7.443   0.611
75429SOL    HW128184   1.793   7.500   0.635
75429SOL    HW228185   1.897   7.478   0.527
75430SOL     OW28186   6.197   4.012  11.303
75430SOL    HW128187   6.290   3.996  11.283
75430SOL    HW228188   6.168   4.074  11.237
75431SOL     OW28189   6.520   0.716  11.252
75431SOL    HW128190   6.464   0.645  11.220
75431SOL    HW228191   6.462   0.769  11.306
75432SOL     OW28192  12.347   3.867   1.079
75432SOL    HW128193  12.443   3.860   1.073
75432SOL    HW228194  12.326   3.946   1.029
75433SOL     OW28195   4.489   2.545   8.187
75433SOL    HW128196   4.505   2.451   8.184
75433SOL    HW228197   4.528   2.578   8.106
75434SOL     OW28198   7.871   7.239   3.969
75434SOL    HW128199   7.920   7.268   4.046
75434SOL    HW228200   7.922   7.273   3.895
75435SOL     OW28201  11.968   7.450   5.588
75435SOL    HW128202  12.048   7.471   5.540
75435SOL    HW228203  11.912   7.527   5.576
75436SOL     OW28204   1.275   6.331  10.224
75436SOL    HW128205   1.246   6.245  10.257
75436SOL    HW228206   1.236   6.337  10.136
75437SOL     OW28207   9.649   4.868   7.529
75437SOL    HW128208   9.741   4.894   7.541
75437SOL    HW228209   9.643   4.847   7.436
75438SOL     OW28210   9.041   4.338  11.275
75438SOL    HW128211   8.973   4.315  11.212
75438SOL    HW228212   9.091   4.257  11.287
75439SOL     OW28213  12.983   8.119   8.838
75439SOL    HW128214  12.905   8.153   8.796
75439SOL    HW228215  12.954   8.089   8.924
75440SOL     OW28216   5.847  13.176   2.122
75440SOL    HW128217   5.754  13.190   2.141
75440SOL    HW228218   5.893  13.226   2.190
75441SOL     OW28219  13.194   6.303  13.429
75441SOL    HW128220  13.217   6.212  13.410
75441SOL    HW228221  13.240   6.322  13.512
75442SOL     OW28222   9.060   3.215   0.354
75442SOL    HW128223   9.150   3.185   0.344
75442SOL    HW228224   9.012   3.138   0.386
75443SOL     OW28225  11.213   5.528   8.871
75443SOL    HW128226  11.201   5.612   8.915
75443SOL    HW228227  11.308   5.513   8.873
75444SOL     OW28228  10.103   7.383  14.428
75444SOL    HW128229  10.086   7.401  14.520
75444SOL    HW228230  10.016   7.370  14.390
75445SOL     OW28231   6.943   8.155   3.364
75445SOL    HW128232   6.978   8.132   3.277
75445SOL    HW228233   6.870   8.215   3.346
75446SOL     OW28234   8.132   9.141  13.811
75446SOL    HW128235   8.183   9.082  13.756
75446SOL    HW228236   8.117   9.092  13.892
75447SOL     OW28237  13.657   0.847  14.209
75447SOL    HW128238  13.631   0.765  14.166
75447SOL    HW228239  13.600   0.914  14.170
75448SOL     OW28240   2.247   3.064   2.306
75448SOL    HW128241   2.331   3.053   2.261
75448SOL    HW228242   2.188   3.005   2.259
75449SOL     OW28243  11.243   7.639   0.820
75449SOL    HW128244  11.174   7.600   0.874
75449SOL    HW228245  11.266   7.720   0.865
75450SOL     OW28246   0.517  14.869   3.767
75450SOL    HW128247   0.596  14.856   3.819
75450SOL    HW228248   0.491   0.080   3.783
75451SOL     OW28249   1.469   8.549  12.275
75451SOL    HW128250   1.373   8.553  12.270
75451SOL    HW228251   1.488   8.505  12.357
75452SOL     OW28252  13.766  13.922  10.864
75452SOL    HW128253  13.837  13.984  10.877
75452SOL    HW228254  13.784  13.883  10.778
75453SOL     OW28255  11.765  14.327   6.869
75453SOL    HW128256  11.793  14.260   6.931
75453SOL    HW228257  11.835  14.331   6.804
75454SOL     OW28258   3.832   1.651   8.873
75454SOL    HW128259   3.751   1.695   8.898
75454SOL    HW228260   3.815   1.619   8.785
75455SOL     OW28261  10.272  14.386  10.748
75455SOL    HW128262  10.188  14.361  10.708
75455SOL    HW228263  10.337  14.372  10.679
75456SOL     OW28264   1.390   3.503  11.248
75456SOL    HW128265   1.361   3.522  11.337
75456SOL    HW228266   1.398   3.588  11.206
75457SOL     OW28267  10.712   5.966   2.414
75457SOL    HW128268  10.800   5.998   2.396
75457SOL    HW228269  10.682   5.931   2.330
75458SOL     OW28270   3.600   1.990   3.572
75458SOL    HW128271   3.550   2.026   3.499
75458SOL    HW228272   3.691   1.999   3.546
75459SOL     OW28273  14.423   7.587  10.841
75459SOL    HW128274  14.361   7.515  10.833
75459SOL    HW228275  14.437   7.616  10.751
75460SOL     OW28276   7.430  13.024   9.818
75460SOL    HW128277   7.478  13.008   9.737
75460SOL    HW228278   7.350  13.068   9.791
75461SOL     OW28279   9.695  10.725   7.671
75461SOL    HW128280   9.715  10.633   7.690
75461SOL    HW228281   9.676  10.726   7.577
75462SOL     OW28282   3.048  11.972   5.558
75462SOL    HW128283   2.985  12.042   5.541
75462SOL    HW228284   3.058  11.971   5.653
75463SOL     OW28285   9.450   5.561  12.583
75463SOL    HW128286   9.482   5.648  12.607
75463SOL    HW228287   9.528   5.513  12.556
75464SOL     OW28288  13.851  12.116   5.405
75464SOL    HW128289  13.824  12.057   5.476
75464SOL    HW228290  13.930  12.159   5.438
75465SOL     OW28291   4.873   6.387   7.301
75465SOL    HW128292   4.791   6.397   7.253
75465SOL    HW228293   4.937   6.359   7.236
75466SOL     OW28294   1.933   8.381   8.642
75466SOL    HW128295   1.968   8.380   8.553
75466SOL    HW228296   1.839   8.371   8.631
75467SOL     OW28297   9.272   5.444   2.196
75467SOL    HW128298   9.319   5.398   2.265
75467SOL    HW228299   9.192   5.393   2.183
75468SOL     OW28300   3.551   0.878  11.963
75468SOL    HW128301   3.524   0.863  12.053
75468SOL    HW228302   3.562   0.790  11.926
75469SOL     OW28303   9.763  10.061  12.040
75469SOL    HW128304   9.856  10.050  12.059
75469SOL    HW228305   9.757  10.149  12.003
75470SOL     OW28306  14.763  10.408   5.443
75470SOL    HW128307  14.710  10.393   5.521
75470SOL    HW228308  14.829  10.472   5.471
75471SOL     OW28309   0.234  10.871   4.016
75471SOL    HW128310   0.328  10.874   4.032
75471SOL    HW228311   0.194  10.871   4.103
75472SOL     OW28312   6.730   1.760   3.803
75472SOL    HW128313   6.767   1.815   3.733
75472SOL    HW228314   6.658   1.812   3.839
75473SOL     OW28315   8.947  13.363  12.196
75473SOL    HW128316   8.880  13.429  12.180
75473SOL    HW228317   8.908  13.305  12.261
75474SOL     OW28318   0.853   8.603   9.104
75474SOL    HW128319   0.836   8.681   9.157
75474SOL    HW228320   0.766   8.566   9.089
75475SOL     OW28321   0.466  10.844   9.817
75475SOL    HW128322   0.425  10.836   9.730
75475SOL    HW228323   0.435  10.767   9.865
75476SOL     OW28324  12.246   5.775   1.743
75476SOL    HW128325  12.206   5.855   1.777
75476SOL    HW228326  12.172   5.721   1.715
75477SOL     OW28327   0.589   6.152  10.502
75477SOL    HW128328   0.573   6.058  10.503
75477SOL    HW228329   0.660   6.164  10.565
75478SOL     OW28330   9.275  13.377   7.204
75478SOL    HW128331   9.280  13.449   7.267
75478SOL    HW228332   9.350  13.321   7.226
75479SOL     OW28333  10.184   7.407   5.110
75479SOL    HW128334  10.114   7.342   5.120
75479SOL    HW228335  10.264   7.355   5.106
75480SOL     OW28336   0.262   7.672   3.768
75480SOL    HW128337   0.248   7.745   3.828
75480SOL    HW228338   0.334   7.622   3.807
75481SOL     OW28339  14.585   8.903   2.400
75481SOL    HW128340  14.539   8.949   2.471
75481SOL    HW228341  14.609   8.972   2.339
75482SOL     OW28342   5.507   4.968   4.421
75482SOL    HW128343   5.532   4.933   4.336
75482SOL    HW228344   5.590   4.983   4.467
75483SOL     OW28345   4.688   3.816  14.429
75483SOL    HW128346   4.736   3.879  14.374
75483SOL    HW228347   4.606   3.860  14.450
75484SOL     OW28348   6.828   7.216   7.624
75484SOL    HW128349   6.766   7.176   7.564
75484SOL    HW228350   6.798   7.190   7.711
75485SOL     OW28351   7.182  11.449   6.630
75485SOL    HW128352   7.117  11.515   6.607
75485SOL    HW228353   7.133  11.384   6.680
75486SOL     OW28354   7.878  13.939   6.465
75486SOL    HW128355   7.928  14.020   6.481
75486SOL    HW228356   7.862  13.940   6.370
75487SOL     OW28357  11.547   4.464  12.720
75487SOL    HW128358  11.564   4.381  12.762
75487SOL    HW228359  11.573   4.530  12.784
75488SOL     OW28360  14.706   4.628   0.643
75488SOL    HW128361  14.730   4.715   0.609
75488SOL    HW228362  14.651   4.590   0.574
75489SOL     OW28363   5.019   4.083   9.737
75489SOL    HW128364   5.081   4.156   9.735
75489SOL    HW228365   4.935   4.123   9.758
75490SOL     OW28366  10.226   7.335   6.934
75490SOL    HW128367  10.292   7.300   6.993
75490SOL    HW228368  10.145   7.289   6.958
75491SOL     OW28369   9.893   6.443   6.936
75491SOL    HW128370   9.921   6.422   7.025
75491SOL    HW228371   9.798   6.448   6.941
75492SOL     OW28372   7.604   8.073   3.984
75492SOL    HW128373   7.615   7.984   4.017
75492SOL    HW228374   7.674   8.084   3.920
75493SOL     OW28375  14.169  12.148  13.577
75493SOL    HW128376  14.224  12.132  13.654
75493SOL    HW228377  14.080  12.133  13.607
75494SOL     OW28378   4.730   3.281   0.084
75494SOL    HW128379   4.678   3.264   0.162
75494SOL    HW228380   4.814   3.237   0.101
75495SOL     OW28381   5.758   5.919  11.914
75495SOL    HW128382   5.749   5.899  12.008
75495SOL    HW228383   5.810   5.847  11.879
75496SOL     OW28384  13.627   7.594   9.220
75496SOL    HW128385  13.621   7.548   9.137
75496SOL    HW228386  13.689   7.543   9.271
75497SOL     OW28387   4.781   1.152   8.411
75497SOL    HW128388   4.742   1.203   8.339
75497SOL    HW228389   4.801   1.216   8.478
75498SOL     OW28390   9.631  12.109  12.667
75498SOL    HW128391   9.625  12.204  12.659
75498SOL    HW228392   9.570  12.086  12.737
75499SOL     OW28393   6.966   4.382   1.089
75499SOL    HW128394   6.949   4.436   1.165
75499SOL    HW228395   7.012   4.305   1.124
75500SOL     OW28396   9.957  10.917   3.054
75500SOL    HW128397   9.928  10.976   2.984
75500SOL    HW228398   9.881  10.862   3.072
75501SOL     OW28399  13.147   3.760  10.707
75501SOL    HW128400  13.156   3.763  10.803
75501SOL    HW228401  13.183   3.675  10.682
75502SOL     OW28402   4.216   9.837   4.140
75502SOL    HW128403   4.230   9.891   4.218
75502SOL    HW228404   4.208   9.747   4.174
75503SOL     OW28405  13.343   3.593   1.658
75503SOL    HW128406  13.292   3.610   1.579
75503SOL    HW228407  13.413   3.658   1.656
75504SOL     OW28408   4.951   5.112   3.928
75504SOL    HW128409   5.040   5.081   3.943
75504SOL    HW228410   4.897   5.058   3.985
75505SOL     OW28411  12.629   3.283   3.011
75505SOL    HW128412  12.607   3.206   2.958
75505SOL    HW228413  12.710   3.316   2.974
75506SOL     OW28414  11.097  14.105   5.252
75506SOL    HW128415  11.020  14.052   5.272
75506SOL    HW228416  11.150  14.102   5.333
75507SOL     OW28417   5.890   9.011   8.587
75507SOL    HW128418   5.821   9.025   8.652
75507SOL    HW228419   5.843   9.000   8.505
75508SOL     OW28420  13.227   1.911   2.477
75508SOL    HW128421  13.150   1.967   2.474
75508SOL    HW228422  13.299   1.967   2.448
75509SOL     OW28423   0.458   9.153   0.986
75509SOL    HW128424   0.511   9.126   0.912
75509SOL    HW228425   0.405   9.226   0.953
75510SOL     OW28426   3.450   5.967   1.096
75510SOL    HW128427   3.450   6.062   1.079
75510SOL    HW228428   3.407   5.929   1.019
75511SOL     OW28429   1.839   8.980  14.052
75511SOL    HW128430   1.845   8.885  14.061
75511SOL    HW228431   1.887   9.000  13.972
75512SOL     OW28432   1.258   9.254  11.086
75512SOL    HW128433   1.309   9.275  11.007
75512SOL    HW228434   1.194   9.190  11.056
75513SOL     OW28435  13.352  11.673  10.799
75513SOL    HW128436  13.296  11.607  10.839
75513SOL    HW228437  13.295  11.719  10.738
75514SOL     OW28438   9.675   6.400   8.140
75514SOL    HW128439   9.758   6.385   8.185
75514SOL    HW228440   9.684   6.487   8.101
75515SOL     OW28441   8.521   1.199  10.172
75515SOL    HW128442   8.585   1.260  10.137
75515SOL    HW228443   8.448   1.201  10.110
75516SOL     OW28444  10.884   6.381   8.866
75516SOL    HW128445  10.894   6.446   8.935
75516SOL    HW228446  10.886   6.433   8.785
75517SOL     OW28447   8.973   3.657  10.961
75517SOL    HW128448   9.009   3.575  10.995
75517SOL    HW228449   8.885   3.661  10.999
75518SOL     OW28450   3.954   5.370   0.875
75518SOL    HW128451   4.034   5.323   0.901
75518SOL    HW228452   3.983   5.459   0.856
75519SOL     OW28453   0.037   7.017  12.188
75519SOL    HW128454   0.086   7.032  12.269
75519SOL    HW228455   0.042   7.100  12.141
75520SOL     OW28456   5.038   9.474   3.196
75520SOL    HW128457   4.985   9.416   3.250
75520SOL    HW228458   5.111   9.499   3.252
75521SOL     OW28459  10.062  13.271   2.882
75521SOL    HW128460  10.088  13.360   2.904
75521SOL    HW228461   9.969  13.266   2.905
75522SOL     OW28462   5.816   3.379   1.578
75522SOL    HW128463   5.839   3.467   1.547
75522SOL    HW228464   5.875   3.321   1.529
75523SOL     OW28465   0.475   2.025  13.037
75523SOL    HW128466   0.433   1.940  13.029
75523SOL    HW228467   0.404   2.084  13.063
75524SOL     OW28468   4.955  14.346  14.086
75524SOL    HW128469   4.906  14.381  14.161
75524SOL    HW228470   4.910  14.381  14.009
75525SOL     OW28471  12.788   0.174   0.045
75525SOL    HW128472  12.870   0.144   0.082
75525SOL    HW228473  12.799   0.269   0.035
75526SOL     OW28474  14.433   0.360   0.178
75526SOL    HW128475  14.421   0.273   0.139
75526SOL    HW228476  14.515   0.392   0.141
75527SOL     OW28477   4.854  11.479  11.789
75527SOL    HW128478   4.867  11.517  11.702
75527SOL    HW228479   4.873  11.386  11.777
75528SOL     OW28480  10.878  12.108   1.386
75528SOL    HW128481  10.928  12.124   1.466
75528SOL    HW228482  10.849  12.017   1.392
75529SOL     OW28483   3.482  11.401   2.508
75529SOL    HW128484   3.530  11.381   2.428
75529SOL    HW228485   3.536  11.367   2.579
75530SOL     OW28486  13.518   0.719   8.926
75530SOL    HW128487  13.564   0.709   8.842
75530SOL    HW228488  13.505   0.813   8.935
75531SOL     OW28489   0.364   9.733  12.376
75531SOL    HW128490   0.402   9.688  12.451
75531SOL    HW228491   0.334   9.817  12.411
75532SOL     OW28492   2.701   6.783   5.952
75532SOL    HW128493   2.754   6.789   6.032
75532SOL    HW228494   2.710   6.868   5.910
75533SOL     OW28495   3.892  10.325   1.932
75533SOL    HW128496   3.979  10.360   1.949
75533SOL    HW228497   3.833  10.388   1.974
75534SOL     OW28498   3.718  12.152   9.682
75534SOL    HW128499   3.785  12.087   9.705
75534SOL    HW228500   3.758  12.205   9.614
75535SOL     OW28501   4.696  11.006   9.723
75535SOL    HW128502   4.662  10.919   9.702
75535SOL    HW228503   4.791  10.998   9.713
75536SOL     OW28504   7.700  11.484  13.844
75536SOL    HW128505   7.782  11.527  13.870
75536SOL    HW228506   7.683  11.420  13.914
75537SOL     OW28507   9.404   4.621   3.106
75537SOL    HW128508   9.448   4.702   3.132
75537SOL    HW228509   9.325   4.651   3.061
75538SOL     OW28510  14.574  13.894  12.940
75538SOL    HW128511  14.669  13.878  12.938
75538SOL    HW228512  14.553  13.898  13.034
75539SOL     OW28513   6.922   2.583   4.502
75539SOL    HW128514   6.831   2.566   4.478
75539SOL    HW228515   6.944   2.513   4.563
75540SOL     OW28516   2.220   9.734   5.701
75540SOL    HW128517   2.173   9.669   5.650
75540SOL    HW228518   2.185   9.818   5.672
75541SOL     OW28519  10.071   2.468   4.261
75541SOL    HW128520  10.079   2.560   4.237
75541SOL    HW228521   9.987   2.441   4.223
75542SOL     OW28522  12.209   3.998   3.987
75542SOL    HW128523  12.164   4.039   3.912
75542SOL    HW228524  12.154   3.923   4.009
75543SOL     OW28525   7.438   5.252  13.307
75543SOL    HW128526   7.397   5.291  13.230
75543SOL    HW228527   7.423   5.315  13.377
75544SOL     OW28528   1.309   0.668  14.755
75544SOL    HW128529   1.353   0.752  14.739
75544SOL    HW228530   1.228   0.692  14.800
75545SOL     OW28531   9.521  14.153   3.444
75545SOL    HW128532   9.529  14.227   3.505
75545SOL    HW228533   9.573  14.179   3.368
75546SOL     OW28534   4.347   6.826   8.505
75546SOL    HW128535   4.350   6.772   8.426
75546SOL    HW228536   4.286   6.781   8.563
75547SOL     OW28537   1.862   9.427   9.720
75547SOL    HW128538   1.948   9.419   9.762
75547SOL    HW228539   1.807   9.363   9.765
75548SOL     OW28540  12.227   6.156   0.618
75548SOL    HW128541  12.267   6.140   0.532
75548SOL    HW228542  12.268   6.236   0.650
75549SOL     OW28543   0.773   3.605   2.391
75549SOL    HW128544   0.760   3.524   2.440
75549SOL    HW228545   0.798   3.577   2.304
75550SOL     OW28546   0.055   6.651  11.655
75550SOL    HW128547   0.067   6.674  11.563
75550SOL    HW228548   0.120   6.702  11.702
75551SOL     OW28549  14.044   2.896   5.325
75551SOL    HW128550  13.985   2.953   5.275
75551SOL    HW228551  13.988   2.824   5.354
75552SOL     OW28552  12.150   1.748   7.773
75552SOL    HW128553  12.161   1.732   7.867
75552SOL    HW228554  12.206   1.823   7.755
75553SOL     OW28555   4.700   3.187   1.396
75553SOL    HW128556   4.686   3.222   1.484
75553SOL    HW228557   4.649   3.106   1.394
75554SOL     OW28558  10.224   3.292   4.899
75554SOL    HW128559  10.158   3.361   4.892
75554SOL    HW228560  10.175   3.214   4.926
75555SOL     OW28561  12.680   3.528   3.704
75555SOL    HW128562  12.690   3.622   3.719
75555SOL    HW228563  12.625   3.522   3.626
75556SOL     OW28564   0.662  14.612   5.829
75556SOL    HW128565   0.623  14.538   5.876
75556SOL    HW228566   0.675  14.679   5.896
75557SOL     OW28567   6.124  13.370   0.641
75557SOL    HW128568   6.030  13.378   0.659
75557SOL    HW228569   6.166  13.370   0.727
75558SOL     OW28570   0.714   6.485   4.981
75558SOL    HW128571   0.721   6.496   5.076
75558SOL    HW228572   0.766   6.406   4.962
75559SOL     OW28573  12.261   7.912   1.223
75559SOL    HW128574  12.210   7.981   1.179
75559SOL    HW228575  12.336   7.958   1.260
75560SOL     OW28576   8.845   4.323   9.272
75560SOL    HW128577   8.861   4.239   9.229
75560SOL    HW228578   8.863   4.389   9.205
75561SOL     OW28579   9.201   1.890  11.352
75561SOL    HW128580   9.205   1.901  11.447
75561SOL    HW228581   9.125   1.941  11.325
75562SOL     OW28582   2.292  10.022   8.079
75562SOL    HW128583   2.377   9.981   8.071
75562SOL    HW228584   2.229   9.951   8.067
75563SOL     OW28585  10.045  10.692   8.210
75563SOL    HW128586   9.973  10.751   8.231
75563SOL    HW228587  10.039  10.622   8.275
75564SOL     OW28588   3.307  14.213  14.593
75564SOL    HW128589   3.220  14.248  14.610
75564SOL    HW228590   3.331  14.169  14.674
75565SOL     OW28591  12.834  14.005  12.214
75565SOL    HW128592  12.891  14.055  12.154
75565SOL    HW228593  12.886  13.928  12.237
75566SOL     OW28594  12.601   1.219   1.571
75566SOL    HW128595  12.579   1.312   1.564
75566SOL    HW228596  12.631   1.208   1.661
75567SOL     OW28597   3.901   7.685   5.975
75567SOL    HW128598   3.809   7.658   5.978
75567SOL    HW228599   3.930   7.661   5.887
75568SOL     OW28600  10.434   6.429   6.758
75568SOL    HW128601  10.479   6.505   6.721
75568SOL    HW228602  10.400   6.382   6.682
75569SOL     OW28603  14.738  11.848  14.877
75569SOL    HW128604  14.676  11.843  14.804
75569SOL    HW228605  14.819  11.881  14.837
75570SOL     OW28606   5.958  12.066   7.604
75570SOL    HW128607   6.042  12.110   7.595
75570SOL    HW228608   5.967  12.010   7.681
75571SOL     OW28609   2.278   4.383   8.647
75571SOL    HW128610   2.296   4.308   8.591
75571SOL    HW228611   2.196   4.361   8.692
75572SOL     OW28612  12.998   9.452   4.936
75572SOL    HW128613  13.080   9.500   4.940
75572SOL    HW228614  13.015   9.379   4.877
75573SOL     OW28615  12.207  11.276   2.442
75573SOL    HW128616  12.274  11.333   2.481
75573SOL    HW228617  12.247  11.189   2.442
75574SOL     OW28618  11.443   2.777   0.865
75574SOL    HW128619  11.516   2.836   0.846
75574SOL    HW228620  11.461   2.743   0.952
75575SOL     OW28621  11.820   1.013   7.430
75575SOL    HW128622  11.857   0.977   7.349
75575SOL    HW228623  11.759   0.946   7.461
75576SOL     OW28624  10.267  12.406   8.783
75576SOL    HW128625  10.246  12.451   8.702
75576SOL    HW228626  10.354  12.368   8.767
75577SOL     OW28627  13.376  11.278   7.354
75577SOL    HW128628  13.353  11.318   7.270
75577SOL    HW228629  13.373  11.351   7.416
75578SOL     OW28630   7.580   8.976   3.682
75578SOL    HW128631   7.505   8.927   3.716
75578SOL    HW228632   7.622   9.013   3.760
75579SOL     OW28633   6.870   3.693   4.312
75579SOL    HW128634   6.935   3.625   4.292
75579SOL    HW228635   6.883   3.759   4.243
75580SOL     OW28636   0.151   9.142  13.293
75580SOL    HW128637   0.056   9.154  13.298
75580SOL    HW228638   0.163   9.055  13.255
75581SOL     OW28639   2.671   2.345   4.466
75581SOL    HW128640   2.714   2.264   4.493
75581SOL    HW228641   2.601   2.317   4.407
75582SOL     OW28642  12.160  13.856  13.213
75582SOL    HW128643  12.094  13.908  13.168
75582SOL    HW228644  12.123  13.769  13.219
75583SOL     OW28645  10.238  11.705   5.863
75583SOL    HW128646  10.258  11.620   5.900
75583SOL    HW228647  10.155  11.730   5.903
75584SOL     OW28648   8.030   8.768  12.344
75584SOL    HW128649   8.064   8.692  12.296
75584SOL    HW228650   8.006   8.830  12.276
75585SOL     OW28651  11.004   8.812   9.360
75585SOL    HW128652  11.026   8.886   9.416
75585SOL    HW228653  10.951   8.850   9.290
75586SOL     OW28654   0.755   0.728   8.031
75586SOL    HW128655   0.739   0.634   8.019
75586SOL    HW228656   0.792   0.757   7.948
75587SOL     OW28657   2.047   3.241  11.974
75587SOL    HW128658   2.131   3.263  12.014
75587SOL    HW228659   2.016   3.166  12.023
75588SOL     OW28660   5.035   9.083  10.994
75588SOL    HW128661   4.997   9.017  11.051
75588SOL    HW228662   5.085   9.140  11.052
75589SOL     OW28663   8.655   8.619   6.065
75589SOL    HW128664   8.711   8.551   6.028
75589SOL    HW228665   8.668   8.611   6.160
75590SOL     OW28666   4.275  11.648  14.733
75590SOL    HW128667   4.277  11.741  14.710
75590SOL    HW228668   4.233  11.645  14.819
75591SOL     OW28669   9.459  10.515   5.004
75591SOL    HW128670   9.372  10.509   4.963
75591SOL    HW228671   9.516  10.463   4.946
75592SOL     OW28672   4.583  10.770   9.714
75592SOL    HW128673   4.597  10.681   9.745
75592SOL    HW228674   4.518  10.761   9.644
75593SOL     OW28675   5.231   5.994   2.798
75593SOL    HW128676   5.258   6.025   2.885
75593SOL    HW228677   5.144   6.032   2.785
75594SOL     OW28678   3.669   9.155  11.686
75594SOL    HW128679   3.656   9.177  11.779
75594SOL    HW228680   3.763   9.141  11.678
75595SOL     OW28681   0.214   7.669  13.443
75595SOL    HW128682   0.180   7.582  13.465
75595SOL    HW228683   0.251   7.659  13.355
75596SOL     OW28684   1.464   7.905   6.205
75596SOL    HW128685   1.505   7.990   6.220
75596SOL    HW228686   1.374   7.925   6.179
75597SOL     OW28687  10.805   5.605   6.017
75597SOL    HW128688  10.737   5.546   6.050
75597SOL    HW228689  10.886   5.553   6.023
75598SOL     OW28690  13.998   5.770   1.833
75598SOL    HW128691  14.058   5.844   1.833
75598SOL    HW228692  13.998   5.738   1.743
75599SOL     OW28693   3.038   2.334   6.594
75599SOL    HW128694   3.087   2.416   6.602
75599SOL    HW228695   3.083   2.286   6.524
75600SOL     OW28696   2.573   0.300   1.895
75600SOL    HW128697   2.649   0.251   1.864
75600SOL    HW228698   2.586   0.305   1.990
75601SOL     OW28699   3.286  12.292   1.689
75601SOL    HW128700   3.255  12.281   1.599
75601SOL    HW228701   3.260  12.211   1.733
75602SOL     OW28702   9.692  10.651   3.093
75602SOL    HW128703   9.628  10.652   3.023
75602SOL    HW228704   9.775  10.630   3.050
75603SOL     OW28705   2.544  12.611   9.860
75603SOL    HW128706   2.459  12.572   9.844
75603SOL    HW228707   2.525  12.701   9.887
75604SOL     OW28708  10.740   7.877   3.549
75604SOL    HW128709  10.807   7.841   3.491
75604SOL    HW228710  10.767   7.851   3.637
75605SOL     OW28711   0.762   8.172  13.481
75605SOL    HW128712   0.726   8.092  13.442
75605SOL    HW228713   0.849   8.147  13.512
75606SOL     OW28714   1.337  12.147  11.674
75606SOL    HW128715   1.322  12.231  11.631
75606SOL    HW228716   1.317  12.082  11.607
75607SOL     OW28717   8.079  12.935   7.276
75607SOL    HW128718   8.162  12.949   7.230
75607SOL    HW228719   8.098  12.865   7.339
75608SOL     OW28720  11.170   7.952   9.150
75608SOL    HW128721  11.163   7.940   9.055
75608SOL    HW228722  11.222   7.878   9.180
75609SOL     OW28723   0.660   7.063  12.439
75609SOL    HW128724   0.595   7.126  12.410
75609SOL    HW228725   0.615   6.978  12.434
75610SOL     OW28726   1.134   8.061  13.206
75610SOL    HW128727   1.220   8.029  13.180
75610SOL    HW228728   1.120   8.027  13.294
75611SOL     OW28729   6.506   4.957  12.102
75611SOL    HW128730   6.468   4.903  12.032
75611SOL    HW228731   6.441   4.955  12.172
75612SOL     OW28732   4.991   4.586   8.983
75612SOL    HW128733   5.077   4.627   8.991
75612SOL    HW228734   4.997   4.531   8.905
75613SOL     OW28735  13.838   3.775  11.123
75613SOL    HW128736  13.874   3.861  11.143
75613SOL    HW228737  13.875   3.753  11.038
75614SOL     OW28738  14.701  10.646   5.248
75614SOL    HW128739  14.788  10.630   5.285
75614SOL    HW228740  14.716  10.657   5.154
75615SOL     OW28741  10.679   1.377   2.693
75615SOL    HW128742  10.761   1.328   2.691
75615SOL    HW228743  10.700   1.454   2.745
75616SOL     OW28744  10.957   9.417  14.568
75616SOL    HW128745  10.893   9.411  14.639
75616SOL    HW228746  11.030   9.467  14.606
75617SOL     OW28747   8.819  13.507   2.657
75617SOL    HW128748   8.853  13.568   2.722
75617SOL    HW228749   8.838  13.548   2.573
75618SOL     OW28750   4.099   6.301   5.223
75618SOL    HW128751   4.183   6.261   5.241
75618SOL    HW228752   4.034   6.236   5.251
75619SOL     OW28753   9.756   3.125   0.652
75619SOL    HW128754   9.725   3.125   0.742
75619SOL    HW228755   9.850   3.139   0.658
75620SOL     OW28756  13.722  11.158   0.536
75620SOL    HW128757  13.785  11.104   0.583
75620SOL    HW228758  13.776  11.212   0.477
75621SOL     OW28759  13.881   7.433   8.674
75621SOL    HW128760  13.834   7.350   8.662
75621SOL    HW228761  13.878   7.448   8.769
75622SOL     OW28762   5.284  11.987  10.517
75622SOL    HW128763   5.242  11.972  10.432
75622SOL    HW228764   5.321  11.901  10.540
75623SOL     OW28765   8.160  10.127   6.250
75623SOL    HW128766   8.190  10.036   6.247
75623SOL    HW228767   8.206  10.169   6.178
75624SOL     OW28768  13.772  14.666   5.376
75624SOL    HW128769  13.697  14.684   5.319
75624SOL    HW228770  13.821  14.748   5.378
75625SOL     OW28771   7.751  10.580  14.042
75625SOL    HW128772   7.783  10.517  13.977
75625SOL    HW228773   7.809  10.568  14.117
75626SOL     OW28774  10.247  10.673   2.048
75626SOL    HW128775  10.245  10.699   1.956
75626SOL    HW228776  10.292  10.588   2.048
75627SOL     OW28777   5.143   7.332   6.505
75627SOL    HW128778   5.077   7.320   6.573
75627SOL    HW228779   5.176   7.421   6.519
75628SOL     OW28780  11.537  12.317   8.148
75628SOL    HW128781  11.570  12.387   8.204
75628SOL    HW228782  11.477  12.361   8.088
75629SOL     OW28783   8.000  11.671   8.932
75629SOL    HW128784   7.995  11.606   9.002
75629SOL    HW228785   7.938  11.640   8.866
75630SOL     OW28786   2.930   7.557  12.648
75630SOL    HW128787   2.996   7.503  12.604
75630SOL    HW228788   2.975   7.594  12.724
75631SOL     OW28789   0.391   7.408   3.867
75631SOL    HW128790   0.304   7.396   3.906
75631SOL    HW228791   0.431   7.321   3.870
75632SOL     OW28792  13.036  13.307   2.578
75632SOL    HW128793  12.967  13.374   2.577
75632SOL    HW228794  13.001  13.238   2.635
75633SOL     OW28795   4.662  10.426  13.701
75633SOL    HW128796   4.705  10.441  13.785
75633SOL    HW228797   4.667  10.510  13.656
75634SOL     OW28798   0.336  13.734   4.841
75634SOL    HW128799   0.355  13.641   4.832
75634SOL    HW228800   0.407  13.767   4.896
75635SOL     OW28801   4.739  10.605   9.389
75635SOL    HW128802   4.807  10.594   9.457
75635SOL    HW228803   4.779  10.570   9.310
75636SOL     OW28804  10.627   4.773  12.826
75636SOL    HW128805  10.540   4.761  12.864
75636SOL    HW228806  10.630   4.713  12.752
75637SOL     OW28807   8.468   5.052  13.325
75637SOL    HW128808   8.436   5.079  13.239
75637SOL    HW228809   8.399   4.996  13.360
75638SOL     OW28810   6.299   6.560   4.127
75638SOL    HW128811   6.204   6.553   4.121
75638SOL    HW228812   6.329   6.563   4.036
75639SOL     OW28813  11.358  12.213   0.963
75639SOL    HW128814  11.367  12.120   0.987
75639SOL    HW228815  11.437  12.255   0.996
75640SOL     OW28816   0.270   0.148   0.716
75640SOL    HW128817   0.339   0.165   0.780
75640SOL    HW228818   0.278   0.054   0.697
75641SOL     OW28819  12.783   3.195   8.029
75641SOL    HW128820  12.840   3.227   7.959
75641SOL    HW228821  12.780   3.101   8.016
75642SOL     OW28822   1.655   9.755   2.574
75642SOL    HW128823   1.574   9.790   2.537
75642SOL    HW228824   1.699   9.831   2.612
75643SOL     OW28825   8.844   1.640   8.541
75643SOL    HW128826   8.821   1.609   8.453
75643SOL    HW228827   8.781   1.598   8.599
75644SOL     OW28828   6.800  14.355   1.668
75644SOL    HW128829   6.774  14.379   1.579
75644SOL    HW228830   6.852  14.276   1.657
75645SOL     OW28831  10.585   4.415   4.352
75645SOL    HW128832  10.556   4.324   4.352
75645SOL    HW228833  10.607   4.433   4.443
75646SOL     OW28834   4.521   9.012   1.911
75646SOL    HW128835   4.584   8.967   1.968
75646SOL    HW228836   4.437   9.005   1.958
75647SOL     OW28837   5.906   2.714   7.216
75647SOL    HW128838   5.815   2.684   7.209
75647SOL    HW228839   5.925   2.709   7.310
75648SOL     OW28840   8.326  14.846  14.580
75648SOL    HW128841   8.414  14.819  14.604
75648SOL    HW228842   8.325  14.847  14.485
75649SOL     OW28843   4.920   4.108   2.723
75649SOL    HW128844   4.854   4.047   2.755
75649SOL    HW228845   4.976   4.056   2.666
75650SOL     OW28846   0.664  12.959   0.455
75650SOL    HW128847   0.688  13.033   0.398
75650SOL    HW228848   0.569  12.964   0.461
75651SOL     OW28849   2.879   9.358   8.200
75651SOL    HW128850   2.961   9.404   8.217
75651SOL    HW228851   2.823   9.423   8.158
75652SOL     OW28852   2.636   5.955   3.902
75652SOL    HW128853   2.592   5.928   3.822
75652SOL    HW228854   2.566   5.986   3.959
75653SOL     OW28855   4.736  14.024  13.526
75653SOL    HW128856   4.821  14.048  13.563
75653SOL    HW228857   4.676  14.026  13.601
75654SOL     OW28858   6.399  10.146  14.343
75654SOL    HW128859   6.446  10.211  14.395
75654SOL    HW228860   6.307  10.161  14.363
75655SOL     OW28861  12.466  10.998  13.085
75655SOL    HW128862  12.453  10.921  13.030
75655SOL    HW228863  12.459  11.072  13.024
75656SOL     OW28864  12.000   6.484   4.866
75656SOL    HW128865  11.988   6.390   4.874
75656SOL    HW228866  11.937   6.521   4.928
75657SOL     OW28867   6.287   4.745  13.048
75657SOL    HW128868   6.350   4.728  12.979
75657SOL    HW228869   6.294   4.839  13.066
75658SOL     OW28870   2.924  12.533  13.758
75658SOL    HW128871   2.854  12.544  13.822
75658SOL    HW228872   2.906  12.601  13.692
75659SOL     OW28873  10.550  10.244  14.602
75659SOL    HW128874  10.580  10.159  14.633
75659SOL    HW228875  10.618  10.305  14.630
75660SOL     OW28876   1.354   8.344   0.312
75660SOL    HW128877   1.402   8.417   0.271
75660SOL    HW228878   1.267   8.380   0.330
75661SOL     OW28879   1.798   0.263  14.416
75661SOL    HW128880   1.881   0.304  14.390
75661SOL    HW228881   1.824   0.186  14.466
75662SOL     OW28882   2.602  10.531   6.483
75662SOL    HW128883   2.588  10.604   6.543
75662SOL    HW228884   2.530  10.470   6.502
75663SOL     OW28885  10.047   4.906   8.563
75663SOL    HW128886  10.114   4.840   8.577
75663SOL    HW228887   9.972   4.858   8.528
75664SOL     OW28888   4.669   2.208  12.689
75664SOL    HW128889   4.731   2.160  12.744
75664SOL    HW228890   4.596   2.147  12.676
75665SOL     OW28891   5.794   2.854  14.854
75665SOL    HW128892   5.819   2.764  14.831
75665SOL    HW228893   5.702   2.847   0.000
75666SOL     OW28894  14.847  13.071  11.278
75666SOL    HW128895  14.821  13.124  11.354
75666SOL    HW228896  14.771  13.015  11.261
75667SOL     OW28897  10.866   2.292   4.270
75667SOL    HW128898  10.946   2.268   4.223
75667SOL    HW228899  10.799   2.296   4.203
75668SOL     OW28900   7.836  11.504   6.741
75668SOL    HW128901   7.833  11.565   6.667
75668SOL    HW228902   7.892  11.548   6.805
75669SOL     OW28903   9.702   6.135   7.057
75669SOL    HW128904   9.612   6.166   7.046
75669SOL    HW228905   9.752   6.214   7.081
75670SOL     OW28906  12.606   6.606   4.235
75670SOL    HW128907  12.658   6.684   4.215
75670SOL    HW228908  12.632   6.582   4.324
75671SOL     OW28909  13.419   6.803   2.243
75671SOL    HW128910  13.462   6.876   2.288
75671SOL    HW228911  13.471   6.791   2.163
75672SOL     OW28912  12.743   1.743   5.712
75672SOL    HW128913  12.719   1.778   5.626
75672SOL    HW228914  12.823   1.790   5.736
75673SOL     OW28915   4.200   0.525  13.039
75673SOL    HW128916   4.129   0.531  13.103
75673SOL    HW228917   4.185   0.441  12.995
75674SOL     OW28918   8.805  14.786  13.528
75674SOL    HW128919   8.745  14.713  13.540
75674SOL    HW228920   8.808  14.828  13.615
75675SOL     OW28921   4.509   3.864  10.002
75675SOL    HW128922   4.469   3.933  10.056
75675SOL    HW228923   4.450   3.855   9.927
75676SOL     OW28924  14.323   8.646  14.668
75676SOL    HW128925  14.287   8.672  14.583
75676SOL    HW228926  14.413   8.676  14.667
75677SOL     OW28927  13.051   4.301   8.890
75677SOL    HW128928  12.961   4.279   8.913
75677SOL    HW228929  13.080   4.229   8.834
75678SOL     OW28930   6.091   5.837   8.988
75678SOL    HW128931   6.034   5.790   8.927
75678SOL    HW228932   6.169   5.782   8.995
75679SOL     OW28933   0.938   5.189  14.436
75679SOL    HW128934   0.965   5.153  14.351
75679SOL    HW228935   0.967   5.280  14.434
75680SOL     OW28936   3.631   6.086   3.427
75680SOL    HW128937   3.678   6.167   3.446
75680SOL    HW228938   3.584   6.066   3.508
75681SOL     OW28939   0.170   6.017   9.707
75681SOL    HW128940   0.146   6.023   9.799
75681SOL    HW228941   0.136   5.932   9.678
75682SOL     OW28942   3.026   3.343   5.025
75682SOL    HW128943   3.012   3.255   4.989
75682SOL    HW228944   3.079   3.330   5.103
75683SOL     OW28945  12.666   0.118  12.155
75683SOL    HW128946  12.576   0.148  12.167
75683SOL    HW228947  12.693   0.156  12.071
75684SOL     OW28948  14.207   6.601  11.723
75684SOL    HW128949  14.168   6.670  11.670
75684SOL    HW228950  14.302   6.612  11.711
75685SOL     OW28951   5.068  12.817   4.067
75685SOL    HW128952   5.134  12.841   4.001
75685SOL    HW228953   5.107  12.744   4.115
75686SOL     OW28954   5.584  11.477   5.508
75686SOL    HW128955   5.509  11.496   5.452
75686SOL    HW228956   5.549  11.476   5.597
75687SOL     OW28957  14.231   5.515   7.617
75687SOL    HW128958  14.159   5.534   7.677
75687SOL    HW228959  14.192   5.458   7.551
75688SOL     OW28960   0.259   9.538  13.714
75688SOL    HW128961   0.299   9.622  13.690
75688SOL    HW228962   0.167   9.548  13.691
75689SOL     OW28963   5.039  10.773   0.662
75689SOL    HW128964   5.054  10.694   0.611
75689SOL    HW228965   4.944  10.781   0.668
75690SOL     OW28966   1.486  13.353   9.115
75690SOL    HW128967   1.521  13.290   9.052
75690SOL    HW228968   1.477  13.303   9.196
75691SOL     OW28969   6.476   0.398   4.140
75691SOL    HW128970   6.489   0.477   4.086
75691SOL    HW228971   6.556   0.393   4.193
75692SOL     OW28972   3.238   9.428  10.211
75692SOL    HW128973   3.186   9.468  10.281
75692SOL    HW228974   3.311   9.386  10.256
75693SOL     OW28975  10.541   8.571  11.460
75693SOL    HW128976  10.589   8.634  11.406
75693SOL    HW228977  10.481   8.528  11.399
75694SOL     OW28978   1.119  12.720   8.017
75694SOL    HW128979   1.193  12.668   8.048
75694SOL    HW228980   1.158  12.804   7.991
75695SOL     OW28981   2.581   9.258  14.336
75695SOL    HW128982   2.614   9.178  14.296
75695SOL    HW228983   2.659   9.310  14.354
75696SOL     OW28984   9.278  10.293   3.999
75696SOL    HW128985   9.237  10.287   4.085
75696SOL    HW228986   9.287  10.201   3.971
75697SOL     OW28987   8.478   9.349   7.947
75697SOL    HW128988   8.528   9.391   8.016
75697SOL    HW228989   8.511   9.259   7.944
75698SOL     OW28990   8.139   4.383  14.329
75698SOL    HW128991   8.048   4.411  14.313
75698SOL    HW228992   8.167   4.346  14.245
75699SOL     OW28993  12.783   7.307   4.601
75699SOL    HW128994  12.751   7.222   4.630
75699SOL    HW228995  12.765   7.309   4.507
75700SOL     OW28996   3.041   0.149  13.950
75700SOL    HW128997   3.097   0.126  13.876
75700SOL    HW228998   2.957   0.172  13.910
75701SOL     OW28999   4.162   7.873   9.248
75701SOL    HW129000   4.124   7.800   9.297
75701SOL    HW229001   4.161   7.844   9.157
75702SOL     OW29002   3.572   5.427   6.069
75702SOL    HW129003   3.533   5.437   6.156
75702SOL    HW229004   3.655   5.382   6.084
75703SOL     OW29005   5.272  14.614   8.853
75703SOL    HW129006   5.237  14.703   8.862
75703SOL    HW229007   5.319  14.598   8.934
75704SOL     OW29008  10.611   7.991   7.397
75704SOL    HW129009  10.677   7.940   7.350
75704SOL    HW229010  10.539   7.929   7.410
75705SOL     OW29011  11.019  12.544   8.979
75705SOL    HW129012  10.978  12.597   9.047
75705SOL    HW229013  10.966  12.464   8.976
75706SOL     OW29014  11.695   3.435   1.953
75706SOL    HW129015  11.644   3.379   2.012
75706SOL    HW229016  11.786   3.421   1.980
75707SOL     OW29017  12.583   5.000   4.452
75707SOL    HW129018  12.523   5.068   4.423
75707SOL    HW229019  12.555   4.980   4.541
75708SOL     OW29020  14.453   3.380   9.770
75708SOL    HW129021  14.393   3.352   9.839
75708SOL    HW229022  14.405   3.446   9.721
75709SOL     OW29023   5.490   8.805   8.204
75709SOL    HW129024   5.536   8.774   8.126
75709SOL    HW229025   5.541   8.881   8.233
75710SOL     OW29026   1.506  12.127  12.854
75710SOL    HW129027   1.582  12.160  12.804
75710SOL    HW229028   1.492  12.192  12.922
75711SOL     OW29029  11.954   4.190   3.029
75711SOL    HW129030  11.959   4.208   2.935
75711SOL    HW229031  11.926   4.099   3.035
75712SOL     OW29032   4.092  13.106   5.461
75712SOL    HW129033   4.067  13.028   5.411
75712SOL    HW229034   4.176  13.133   5.423
75713SOL     OW29035   4.266  13.745   4.819
75713SOL    HW129036   4.325  13.701   4.879
75713SOL    HW229037   4.290  13.838   4.824
75714SOL     OW29038   7.715  12.197   5.282
75714SOL    HW129039   7.796  12.175   5.327
75714SOL    HW229040   7.657  12.230   5.351
75715SOL     OW29041   2.420   6.701   2.835
75715SOL    HW129042   2.388   6.612   2.817
75715SOL    HW229043   2.363   6.758   2.783
75716SOL     OW29044   6.618   8.821   3.349
75716SOL    HW129045   6.652   8.902   3.387
75716SOL    HW229046   6.594   8.845   3.259
75717SOL     OW29047  10.628   3.189   8.179
75717SOL    HW129048  10.601   3.217   8.266
75717SOL    HW229049  10.723   3.199   8.178
75718SOL     OW29050   1.569   2.929   8.824
75718SOL    HW129051   1.512   2.994   8.865
75718SOL    HW229052   1.523   2.846   8.833
75719SOL     OW29053   6.285   2.282  14.822
75719SOL    HW129054   6.232   2.259  14.746
75719SOL    HW229055   6.256   2.223   0.011
75720SOL     OW29056   0.336   8.828   1.863
75720SOL    HW129057   0.301   8.764   1.801
75720SOL    HW229058   0.331   8.912   1.817
75721SOL     OW29059   6.877  10.401   9.683
75721SOL    HW129060   6.849  10.326   9.734
75721SOL    HW229061   6.963  10.424   9.719
75722SOL     OW29062   3.271   7.473   7.842
75722SOL    HW129063   3.231   7.524   7.912
75722SOL    HW229064   3.230   7.505   7.762
75723SOL     OW29065   4.791   3.080   5.731
75723SOL    HW129066   4.729   3.134   5.780
75723SOL    HW229067   4.874   3.093   5.777
75724SOL     OW29068   6.175   8.141  13.655
75724SOL    HW129069   6.212   8.155  13.568
75724SOL    HW229070   6.081   8.128  13.639
75725SOL     OW29071  10.836   7.404  10.671
75725SOL    HW129072  10.913   7.455  10.695
75725SOL    HW229073  10.772   7.469  10.643
75726SOL     OW29074   6.772  10.319   1.063
75726SOL    HW129075   6.820  10.236   1.059
75726SOL    HW229076   6.682  10.294   1.084
75727SOL     OW29077   5.401  12.348   6.827
75727SOL    HW129078   5.464  12.334   6.757
75727SOL    HW229079   5.413  12.439   6.852
75728SOL     OW29080  12.732   4.341   1.502
75728SOL    HW129081  12.675   4.406   1.460
75728SOL    HW229082  12.713   4.349   1.596
75729SOL     OW29083   8.173   4.757   3.604
75729SOL    HW129084   8.177   4.711   3.687
75729SOL    HW229085   8.263   4.787   3.589
75730SOL     OW29086   0.841   6.668   6.211
75730SOL    HW129087   0.796   6.701   6.289
75730SOL    HW229088   0.798   6.713   6.138
75731SOL     OW29089   6.871  11.445  14.158
75731SOL    HW129090   6.894  11.495  14.236
75731SOL    HW229091   6.955  11.416  14.122
75732SOL     OW29092   0.013  10.328  10.055
75732SOL    HW129093   0.002  10.240  10.091
75732SOL    HW229094  14.821  10.337   9.991
75733SOL     OW29095   8.022   1.216   1.299
75733SOL    HW129096   8.073   1.183   1.373
75733SOL    HW229097   8.083   1.217   1.226
75734SOL     OW29098   9.860  14.390  12.613
75734SOL    HW129099   9.889  14.399  12.523
75734SOL    HW229100   9.863  14.479  12.648
75735SOL     OW29101   5.124  12.693  12.331
75735SOL    HW129102   5.143  12.685  12.424
75735SOL    HW229103   5.196  12.649  12.287
75736SOL     OW29104  10.482  11.102  11.270
75736SOL    HW129105  10.527  11.180  11.301
75736SOL    HW229106  10.536  11.029  11.301
75737SOL     OW29107   7.673   6.636   8.058
75737SOL    HW129108   7.758   6.643   8.103
75737SOL    HW229109   7.625   6.714   8.085
75738SOL     OW29110  11.308  14.655   5.287
75738SOL    HW129111  11.234  14.658   5.227
75738SOL    HW229112  11.381  14.621   5.235
75739SOL     OW29113   8.751  14.475  10.993
75739SOL    HW129114   8.756  14.435  10.906
75739SOL    HW229115   8.821  14.433  11.043
75740SOL     OW29116   6.163   6.336  14.269
75740SOL    HW129117   6.173   6.411  14.327
75740SOL    HW229118   6.157   6.374  14.181
75741SOL     OW29119  13.940   3.344   1.275
75741SOL    HW129120  13.922   3.413   1.339
75741SOL    HW229121  13.890   3.269   1.307
75742SOL     OW29122   0.547   9.507  11.189
75742SOL    HW129123   0.552   9.586  11.135
75742SOL    HW229124   0.631   9.462  11.172
75743SOL     OW29125   5.072   9.275   4.710
75743SOL    HW129126   5.013   9.206   4.681
75743SOL    HW229127   5.068   9.271   4.806
75744SOL     OW29128   4.385  14.143  10.005
75744SOL    HW129129   4.429  14.095  10.075
75744SOL    HW229130   4.295  14.152  10.035
75745SOL     OW29131  10.503   6.380  10.943
75745SOL    HW129132  10.522   6.470  10.970
75745SOL    HW229133  10.419   6.387  10.896
75746SOL     OW29134  14.116   8.477   1.757
75746SOL    HW129135  14.189   8.457   1.816
75746SOL    HW229136  14.051   8.520   1.813
75747SOL     OW29137   0.118  13.977   8.656
75747SOL    HW129138   0.051  14.019   8.711
75747SOL    HW229139   0.168  13.923   8.717
75748SOL     OW29140   9.854  12.995   3.585
75748SOL    HW129141   9.816  13.051   3.518
75748SOL    HW229142   9.781  12.972   3.642
75749SOL     OW29143   4.538   8.453   5.747
75749SOL    HW129144   4.460   8.477   5.796
75749SOL    HW229145   4.606   8.512   5.779
75750SOL     OW29146  12.747   2.712   8.765
75750SOL    HW129147  12.652   2.715   8.761
75750SOL    HW229148  12.771   2.777   8.831
75751SOL     OW29149  14.129  14.157   3.176
75751SOL    HW129150  14.083  14.155   3.092
75751SOL    HW229151  14.221  14.144   3.153
75752SOL     OW29152   3.532  13.847   1.178
75752SOL    HW129153   3.475  13.785   1.132
75752SOL    HW229154   3.594  13.791   1.225
75753SOL     OW29155   2.050  13.699   2.757
75753SOL    HW129156   2.041  13.728   2.848
75753SOL    HW229157   2.143  13.708   2.738
75754SOL     OW29158   9.288  13.387  12.500
75754SOL    HW129159   9.368  13.404  12.451
75754SOL    HW229160   9.283  13.292  12.505
75755SOL     OW29161   4.439  13.780   9.080
75755SOL    HW129162   4.406  13.847   9.140
75755SOL    HW229163   4.519  13.818   9.044
75756SOL     OW29164  13.891   5.069  11.731
75756SOL    HW129165  13.892   5.116  11.647
75756SOL    HW229166  13.866   4.980  11.707
75757SOL     OW29167   0.259   4.413   9.043
75757SOL    HW129168   0.200   4.462   9.101
75757SOL    HW229169   0.295   4.478   8.984
75758SOL     OW29170  13.426   3.829   2.731
75758SOL    HW129171  13.511   3.790   2.709
75758SOL    HW229172  13.395   3.779   2.806
75759SOL     OW29173   5.008  12.335  12.011
75759SOL    HW129174   5.010  12.382  11.927
75759SOL    HW229175   4.988  12.403  12.076
75760SOL     OW29176   9.067  12.740   0.595
75760SOL    HW129177   9.098  12.811   0.651
75760SOL    HW229178   8.981  12.770   0.565
75761SOL     OW29179   1.585  10.016   1.626
75761SOL    HW129180   1.495  10.049   1.623
75761SOL    HW229181   1.604  10.006   1.719
75762SOL     OW29182   1.884  14.580  13.343
75762SOL    HW129183   1.819  14.615  13.282
75762SOL    HW229184   1.834  14.560  13.422
75763SOL     OW29185  10.314   7.913   0.351
75763SOL    HW129186  10.230   7.882   0.317
75763SOL    HW229187  10.378   7.851   0.316
75764SOL     OW29188   5.076   8.031   4.016
75764SOL    HW129189   5.081   8.053   4.109
75764SOL    HW229190   4.999   7.976   4.008
75765SOL     OW29191   6.839  11.958   5.858
75765SOL    HW129192   6.800  11.889   5.805
75765SOL    HW229193   6.921  11.920   5.890
75766SOL     OW29194   8.221   3.518  13.002
75766SOL    HW129195   8.301   3.563  12.976
75766SOL    HW229196   8.201   3.459  12.928
75767SOL     OW29197   2.238  12.772   2.808
75767SOL    HW129198   2.258  12.835   2.877
75767SOL    HW229199   2.169  12.813   2.756
75768SOL     OW29200  10.419   6.957   7.806
75768SOL    HW129201  10.439   6.878   7.857
75768SOL    HW229202  10.331   6.982   7.836
75769SOL     OW29203   9.692   7.256   7.488
75769SOL    HW129204   9.682   7.200   7.565
75769SOL    HW229205   9.641   7.335   7.509
75770SOL     OW29206   1.510   2.680  13.498
75770SOL    HW129207   1.508   2.586  13.480
75770SOL    HW229208   1.559   2.718  13.424
75771SOL     OW29209   8.657  14.786   3.531
75771SOL    HW129210   8.645  14.788   3.436
75771SOL    HW229211   8.672  14.693   3.551
75772SOL     OW29212   5.042   2.231   3.279
75772SOL    HW129213   4.991   2.310   3.263
75772SOL    HW229214   5.132   2.261   3.287
75773SOL     OW29215   3.990  13.679   8.380
75773SOL    HW129216   4.019  13.597   8.340
75773SOL    HW229217   3.940  13.724   8.312
75774SOL     OW29218   0.336   2.252  13.578
75774SOL    HW129219   0.288   2.176  13.545
75774SOL    HW229220   0.415   2.214  13.617
75775SOL     OW29221  12.424   9.015  11.872
75775SOL    HW129222  12.363   8.949  11.903
75775SOL    HW229223  12.508   8.989  11.910
75776SOL     OW29224   5.865  13.483   6.706
75776SOL    HW129225   5.882  13.389   6.697
75776SOL    HW229226   5.920  13.510   6.780
75777SOL     OW29227   5.851  12.530   7.881
75777SOL    HW129228   5.921  12.533   7.947
75777SOL    HW229229   5.890  12.573   7.805
75778SOL     OW29230   2.184  12.213  14.610
75778SOL    HW129231   2.155  12.127  14.579
75778SOL    HW229232   2.175  12.209  14.705
75779SOL     OW29233   3.360  13.594   0.415
75779SOL    HW129234   3.430  13.544   0.373
75779SOL    HW229235   3.291  13.530   0.433
75780SOL     OW29236   1.288  10.201   2.183
75780SOL    HW129237   1.369  10.252   2.185
75780SOL    HW229238   1.286  10.163   2.096
75781SOL     OW29239   0.140   1.256   4.583
75781SOL    HW129240   0.167   1.205   4.507
75781SOL    HW229241   0.056   1.295   4.558
75782SOL     OW29242   2.842   7.380   8.029
75782SOL    HW129243   2.923   7.338   8.058
75782SOL    HW229244   2.805   7.319   7.965
75783SOL     OW29245   9.511   9.372  11.225
75783SOL    HW129246   9.589   9.396  11.175
75783SOL    HW229247   9.448   9.345  11.158
75784SOL     OW29248   0.661  14.310   4.733
75784SOL    HW129249   0.734  14.271   4.781
75784SOL    HW229250   0.632  14.241   4.674
75785SOL     OW29251   5.970   8.332  12.064
75785SOL    HW129252   5.987   8.245  12.030
75785SOL    HW229253   5.882   8.354  12.036
75786SOL     OW29254   7.331  14.058   1.742
75786SOL    HW129255   7.309  14.073   1.650
75786SOL    HW229256   7.425  14.074   1.747
75787SOL     OW29257  10.940   5.623   4.295
75787SOL    HW129258  10.909   5.693   4.238
75787SOL    HW229259  10.892   5.546   4.266
75788SOL     OW29260   4.703   5.805  13.684
75788SOL    HW129261   4.755   5.874  13.726
75788SOL    HW229262   4.616   5.814  13.723
75789SOL     OW29263   2.046  13.571  11.742
75789SOL    HW129264   2.049  13.656  11.698
75789SOL    HW229265   2.059  13.507  11.672
75790SOL     OW29266   4.038   3.656   9.813
75790SOL    HW129267   3.991   3.716   9.870
75790SOL    HW229268   3.973   3.590   9.789
75791SOL     OW29269   9.532  13.744  12.942
75791SOL    HW129270   9.543  13.779  12.853
75791SOL    HW229271   9.588  13.799  12.997
75792SOL     OW29272   5.876   0.885   5.552
75792SOL    HW129273   5.926   0.856   5.629
75792SOL    HW229274   5.874   0.980   5.559
75793SOL     OW29275   4.170  10.327   5.132
75793SOL    HW129276   4.092  10.361   5.175
75793SOL    HW229277   4.171  10.234   5.155
75794SOL     OW29278   0.354  12.646   7.718
75794SOL    HW129279   0.360  12.585   7.645
75794SOL    HW229280   0.367  12.732   7.678
75795SOL     OW29281   3.726   6.899   7.162
75795SOL    HW129282   3.698   6.914   7.252
75795SOL    HW229283   3.677   6.963   7.111
75796SOL     OW29284   7.916  12.337  12.295
75796SOL    HW129285   7.953  12.353  12.209
75796SOL    HW229286   7.988  12.301  12.347
75797SOL     OW29287   9.579   3.040   5.755
75797SOL    HW129288   9.604   2.964   5.807
75797SOL    HW229289   9.658   3.094   5.750
75798SOL     OW29290   2.539   9.556  11.105
75798SOL    HW129291   2.578   9.565  11.192
75798SOL    HW229292   2.527   9.462  11.094
75799SOL     OW29293   5.452  10.611  13.121
75799SOL    HW129294   5.478  10.526  13.156
75799SOL    HW229295   5.440  10.596  13.027
75800SOL     OW29296   1.058  11.588  10.135
75800SOL    HW129297   1.083  11.608  10.045
75800SOL    HW229298   1.129  11.533  10.168
75801SOL     OW29299   0.553   0.045   0.270
75801SOL    HW129300   0.591  14.860   0.330
75801SOL    HW229301   0.480   0.084   0.319
75802SOL     OW29302   0.902   7.242  10.708
75802SOL    HW129303   0.907   7.148  10.693
75802SOL    HW229304   0.993   7.272  10.702
75803SOL     OW29305   2.625  12.330  11.341
75803SOL    HW129306   2.539  12.291  11.324
75803SOL    HW229307   2.651  12.367  11.256
75804SOL     OW29308  12.212   8.244   1.752
75804SOL    HW129309  12.294   8.276   1.714
75804SOL    HW229310  12.235   8.221   1.842
75805SOL     OW29311   8.632   2.166   7.950
75805SOL    HW129312   8.540   2.175   7.923
75805SOL    HW229313   8.630   2.098   8.018
75806SOL     OW29314  14.844   0.319   0.676
75806SOL    HW129315   0.014   0.240   0.659
75806SOL    HW229316   0.029   0.389   0.681
75807SOL     OW29317   1.227   9.656   7.383
75807SOL    HW129318   1.239   9.561   7.388
75807SOL    HW229319   1.315   9.691   7.388
75808SOL     OW29320   2.949   8.612   8.434
75808SOL    HW129321   2.935   8.665   8.512
75808SOL    HW229322   2.867   8.565   8.421
75809SOL     OW29323   1.385  11.953  11.469
75809SOL    HW129324   1.296  11.923  11.487
75809SOL    HW229325   1.441  11.892  11.517
75810SOL     OW29326  11.510   8.794   1.087
75810SOL    HW129327  11.513   8.885   1.118
75810SOL    HW229328  11.596   8.780   1.047
75811SOL     OW29329  10.686  10.262   3.953
75811SOL    HW129330  10.701  10.324   4.025
75811SOL    HW229331  10.732  10.182   3.981
75812SOL     OW29332  12.532   4.431   4.231
75812SOL    HW129333  12.615   4.447   4.185
75812SOL    HW229334  12.549   4.461   4.320
75813SOL     OW29335   5.028   8.967  13.143
75813SOL    HW129336   5.078   8.927  13.073
75813SOL    HW229337   5.029   8.902  13.214
75814SOL     OW29338   2.771   7.340  12.951
75814SOL    HW129339   2.742   7.422  12.991
75814SOL    HW229340   2.833   7.303  13.015
75815SOL     OW29341   4.421   4.107  14.775
75815SOL    HW129342   4.477   4.033  14.753
75815SOL    HW229343   4.481   4.177  14.801
75816SOL     OW29344   7.566   2.865   8.065
75816SOL    HW129345   7.515   2.944   8.045
75816SOL    HW229346   7.609   2.885   8.148
75817SOL     OW29347   2.853  10.029  13.822
75817SOL    HW129348   2.941  10.048  13.792
75817SOL    HW229349   2.856  10.044  13.917
75818SOL     OW29350  11.960   8.164  12.754
75818SOL    HW129351  11.967   8.234  12.819
75818SOL    HW229352  11.919   8.205  12.678
75819SOL     OW29353   3.228   2.672   7.844
75819SOL    HW129354   3.322   2.688   7.851
75819SOL    HW229355   3.203   2.638   7.930
75820SOL     OW29356   2.263  12.151   8.739
75820SOL    HW129357   2.222  12.065   8.748
75820SOL    HW229358   2.195  12.206   8.700
75821SOL     OW29359   6.499  12.871  12.437
75821SOL    HW129360   6.500  12.794  12.494
75821SOL    HW229361   6.461  12.840  12.355
75822SOL     OW29362   1.318  14.079   1.355
75822SOL    HW129363   1.390  14.143   1.358
75822SOL    HW229364   1.321  14.043   1.267
75823SOL     OW29365   8.886   1.699   5.083
75823SOL    HW129366   8.902   1.607   5.066
75823SOL    HW229367   8.832   1.701   5.162
75824SOL     OW29368  13.828  13.237  13.175
75824SOL    HW129369  13.823  13.291  13.254
75824SOL    HW229370  13.858  13.298  13.107
75825SOL     OW29371   4.598  14.174   6.466
75825SOL    HW129372   4.671  14.120   6.495
75825SOL    HW229373   4.520  14.122   6.488
75826SOL     OW29374   6.994   5.393   7.686
75826SOL    HW129375   7.078   5.395   7.732
75826SOL    HW229376   6.938   5.337   7.740
75827SOL     OW29377  12.230   4.718   9.478
75827SOL    HW129378  12.264   4.793   9.526
75827SOL    HW229379  12.142   4.744   9.451
75828SOL     OW29380   1.472   7.550   0.741
75828SOL    HW129381   1.530   7.588   0.675
75828SOL    HW229382   1.531   7.514   0.808
75829SOL     OW29383   8.373   4.422   1.105
75829SOL    HW129384   8.450   4.372   1.133
75829SOL    HW229385   8.360   4.397   1.013
75830SOL     OW29386   6.886   8.722  13.325
75830SOL    HW129387   6.820   8.735  13.393
75830SOL    HW229388   6.836   8.708  13.245
75831SOL     OW29389  10.938   7.232   7.582
75831SOL    HW129390  10.990   7.193   7.511
75831SOL    HW229391  10.848   7.231   7.549
75832SOL     OW29392  12.079   6.388   9.877
75832SOL    HW129393  12.013   6.325   9.847
75832SOL    HW229394  12.160   6.361   9.832
75833SOL     OW29395   0.981  12.623  10.809
75833SOL    HW129396   0.897  12.669  10.822
75833SOL    HW229397   1.047  12.686  10.839
75834SOL     OW29398   5.494   8.567   1.459
75834SOL    HW129399   5.554   8.592   1.389
75834SOL    HW229400   5.491   8.644   1.516
75835SOL     OW29401   6.399  13.054   6.084
75835SOL    HW129402   6.382  13.142   6.051
75835SOL    HW229403   6.410  13.065   6.179
75836SOL     OW29404  10.628   8.775   3.403
75836SOL    HW129405  10.564   8.799   3.336
75836SOL    HW229406  10.635   8.852   3.459
75837SOL     OW29407  14.824  10.934   6.133
75837SOL    HW129408  14.773  10.860   6.166
75837SOL    HW229409  14.843  10.911   6.042
75838SOL     OW29410   2.909  12.476   2.353
75838SOL    HW129411   2.907  12.558   2.402
75838SOL    HW229412   2.940  12.500   2.266
75839SOL     OW29413   1.353  13.964   5.488
75839SOL    HW129414   1.447  13.981   5.494
75839SOL    HW229415   1.336  13.903   5.560
75840SOL     OW29416   7.371  12.362   6.381
75840SOL    HW129417   7.331  12.375   6.295
75840SOL    HW229418   7.371  12.267   6.394
75841SOL     OW29419   3.523  11.790   9.461
75841SOL    HW129420   3.448  11.803   9.404
75841SOL    HW229421   3.551  11.878   9.485
75842SOL     OW29422   1.284  11.061   7.499
75842SOL    HW129423   1.319  11.055   7.588
75842SOL    HW229424   1.191  11.041   7.508
75843SOL     OW29425   6.531   1.207  12.407
75843SOL    HW129426   6.566   1.253  12.331
75843SOL    HW229427   6.451   1.255  12.429
75844SOL     OW29428   7.977  10.995   3.724
75844SOL    HW129429   8.022  10.967   3.803
75844SOL    HW229430   8.038  10.973   3.653
75845SOL     OW29431  10.872   4.429  13.367
75845SOL    HW129432  10.834   4.513  13.392
75845SOL    HW229433  10.964   4.449  13.350
75846SOL     OW29434   1.544   4.521  14.591
75846SOL    HW129435   1.505   4.559  14.513
75846SOL    HW229436   1.572   4.433  14.564
75847SOL     OW29437   9.556  12.163   4.916
75847SOL    HW129438   9.560  12.096   4.848
75847SOL    HW229439   9.638  12.153   4.965
75848SOL     OW29440  13.220   8.751   3.264
75848SOL    HW129441  13.141   8.706   3.234
75848SOL    HW229442  13.290   8.688   3.248
75849SOL     OW29443  12.073   6.663   3.617
75849SOL    HW129444  12.129   6.587   3.598
75849SOL    HW229445  11.984   6.627   3.620
75850SOL     OW29446  12.681   5.108  14.841
75850SOL    HW129447  12.594   5.072  14.826
75850SOL    HW229448  12.669   5.203  14.840
75851SOL     OW29449   5.681  10.870   6.804
75851SOL    HW129450   5.727  10.934   6.858
75851SOL    HW229451   5.628  10.922   6.744
75852SOL     OW29452   5.387  10.954   9.167
75852SOL    HW129453   5.446  10.941   9.241
75852SOL    HW229454   5.440  10.933   9.090
75853SOL     OW29455   7.668  12.941   6.670
75853SOL    HW129456   7.659  13.026   6.628
75853SOL    HW229457   7.606  12.884   6.624
75854SOL     OW29458  10.332   8.132  11.729
75854SOL    HW129459  10.389   8.194  11.683
75854SOL    HW229460  10.270   8.186  11.777
75855SOL     OW29461  12.315   4.335   8.102
75855SOL    HW129462  12.407   4.330   8.129
75855SOL    HW229463  12.312   4.293   8.016
75856SOL     OW29464  10.649   2.152  14.257
75856SOL    HW129465  10.741   2.167  14.276
75856SOL    HW229466  10.650   2.096  14.180
75857SOL     OW29467   2.759   2.926  12.986
75857SOL    HW129468   2.733   3.009  12.945
75857SOL    HW229469   2.787   2.871  12.913
75858SOL     OW29470  13.261  14.200   4.503
75858SOL    HW129471  13.356  14.193   4.518
75858SOL    HW229472  13.238  14.116   4.462
75859SOL     OW29473   0.733   2.755   7.601
75859SOL    HW129474   0.811   2.794   7.562
75859SOL    HW229475   0.681   2.829   7.631
75860SOL     OW29476   2.726  14.427  12.702
75860SOL    HW129477   2.740  14.356  12.765
75860SOL    HW229478   2.804  14.482  12.709
75861SOL     OW29479   9.075   2.350  14.651
75861SOL    HW129480   9.140   2.288  14.618
75861SOL    HW229481   9.124   2.430  14.667
75862SOL     OW29482   6.142   0.400   8.118
75862SOL    HW129483   6.093   0.321   8.142
75862SOL    HW229484   6.226   0.367   8.087
75863SOL     OW29485   5.018   4.655   1.416
75863SOL    HW129486   4.937   4.706   1.407
75863SOL    HW229487   5.007   4.582   1.355
75864SOL     OW29488   5.003   8.505   4.309
75864SOL    HW129489   4.993   8.600   4.314
75864SOL    HW229490   4.983   8.474   4.397
75865SOL     OW29491   2.014   1.289   4.604
75865SOL    HW129492   1.969   1.267   4.523
75865SOL    HW229493   2.105   1.264   4.589
75866SOL     OW29494  14.338   1.675  12.983
75866SOL    HW129495  14.347   1.624  13.064
75866SOL    HW229496  14.249   1.710  12.987
75867SOL     OW29497  13.994  13.228   8.787
75867SOL    HW129498  13.967  13.198   8.874
75867SOL    HW229499  13.912  13.236   8.738
75868SOL     OW29500   8.170   9.735   3.025
75868SOL    HW129501   8.190   9.680   2.950
75868SOL    HW229502   8.255   9.769   3.053
75869SOL     OW29503   6.598  14.393  14.414
75869SOL    HW129504   6.502  14.393  14.403
75869SOL    HW229505   6.621  14.301  14.423
75870SOL     OW29506   9.395   9.804   7.220
75870SOL    HW129507   9.466   9.868   7.225
75870SOL    HW229508   9.411   9.756   7.139
75871SOL     OW29509   3.739   0.266  13.658
75871SOL    HW129510   3.658   0.316  13.645
75871SOL    HW229511   3.713   0.190  13.710
75872SOL     OW29512   6.217  13.823   8.472
75872SOL    HW129513   6.143  13.803   8.415
75872SOL    HW229514   6.233  13.916   8.460
75873SOL     OW29515   8.251  10.368  12.804
75873SOL    HW129516   8.176  10.355  12.745
75873SOL    HW229517   8.295  10.446  12.771
75874SOL     OW29518   1.480  13.813   7.714
75874SOL    HW129519   1.386  13.831   7.707
75874SOL    HW229520   1.514  13.827   7.626
75875SOL     OW29521   9.020   3.640  14.560
75875SOL    HW129522   9.006   3.547  14.574
75875SOL    HW229523   8.933   3.678  14.554
75876SOL     OW29524   5.340   3.126   2.238
75876SOL    HW129525   5.406   3.174   2.187
75876SOL    HW229526   5.299   3.193   2.293
75877SOL     OW29527  14.609  10.439  13.324
75877SOL    HW129528  14.609  10.440  13.420
75877SOL    HW229529  14.695  10.404  13.301
75878SOL     OW29530   7.879  10.546  10.023
75878SOL    HW129531   7.900  10.561  10.115
75878SOL    HW229532   7.800  10.493  10.024
75879SOL     OW29533  12.545   9.510   2.722
75879SOL    HW129534  12.491   9.510   2.801
75879SOL    HW229535  12.627   9.552   2.749
75880SOL     OW29536   3.297  12.472   3.070
75880SOL    HW129537   3.349  12.546   3.104
75880SOL    HW229538   3.228  12.514   3.019
75881SOL     OW29539  12.325   6.573   0.164
75881SOL    HW129540  12.407   6.574   0.213
75881SOL    HW229541  12.262   6.618   0.220
75882SOL     OW29542   2.114   4.804   8.380
75882SOL    HW129543   2.059   4.831   8.306
75882SOL    HW229544   2.172   4.879   8.394
75883SOL     OW29545   6.662  14.810   8.505
75883SOL    HW129546   6.633  14.861   8.581
75883SOL    HW229547   6.756  14.798   8.517
75884SOL     OW29548   7.283  10.795   4.097
75884SOL    HW129549   7.187  10.798   4.091
75884SOL    HW229550   7.309  10.886   4.109
75885SOL     OW29551   5.427   3.113  11.901
75885SOL    HW129552   5.500   3.121  11.962
75885SOL    HW229553   5.400   3.203  11.883
75886SOL     OW29554   9.939   1.499  11.358
75886SOL    HW129555   9.987   1.468  11.281
75886SOL    HW229556   9.850   1.467  11.346
75887SOL     OW29557   3.557   4.522  11.782
75887SOL    HW129558   3.532   4.607  11.817
75887SOL    HW229559   3.652   4.529  11.768
75888SOL     OW29560   2.054  11.739   5.970
75888SOL    HW129561   2.077  11.743   5.877
75888SOL    HW229562   2.102  11.665   6.004
75889SOL     OW29563  11.457  11.810  12.867
75889SOL    HW129564  11.475  11.735  12.924
75889SOL    HW229565  11.424  11.772  12.786
75890SOL     OW29566  14.249   8.452   4.147
75890SOL    HW129567  14.157   8.459   4.122
75890SOL    HW229568  14.252   8.485   4.236
75891SOL     OW29569  14.085   3.472  12.626
75891SOL    HW129570  14.002   3.427  12.641
75891SOL    HW229571  14.088   3.486  12.532
75892SOL     OW29572   0.120  11.978   3.476
75892SOL    HW129573   0.188  11.924   3.516
75892SOL    HW229574   0.054  11.915   3.446
75893SOL     OW29575   7.771   3.257  13.724
75893SOL    HW129576   7.740   3.168  13.741
75893SOL    HW229577   7.820   3.251  13.642
75894SOL     OW29578  12.041   3.534  13.845
75894SOL    HW129579  12.092   3.522  13.926
75894SOL    HW229580  11.955   3.498  13.866
75895SOL     OW29581   8.663   9.054  13.581
75895SOL    HW129582   8.741   9.050  13.636
75895SOL    HW229583   8.644   8.962  13.561
75896SOL     OW29584   9.174   7.998   0.259
75896SOL    HW129585   9.226   7.988   0.339
75896SOL    HW229586   9.231   7.964   0.190
75897SOL     OW29587   4.454  12.057   1.703
75897SOL    HW129588   4.388  12.034   1.637
75897SOL    HW229589   4.480  11.973   1.741
75898SOL     OW29590   0.278   0.278   5.621
75898SOL    HW129591   0.334   0.290   5.545
75898SOL    HW229592   0.286   0.360   5.670
75899SOL     OW29593   3.709  14.802   2.971
75899SOL    HW129594   3.740  14.729   2.916
75899SOL    HW229595   3.760  14.794   3.051
75900SOL     OW29596   5.307  12.073   0.580
75900SOL    HW129597   5.338  12.023   0.505
75900SOL    HW229598   5.386  12.111   0.619
75901SOL     OW29599   8.528   0.053  13.341
75901SOL    HW129600   8.484   0.097  13.414
75901SOL    HW229601   8.587   0.119  13.305
75902SOL     OW29602   1.147   0.570  14.175
75902SOL    HW129603   1.149   0.605  14.086
75902SOL    HW229604   1.095   0.490  14.168
75903SOL     OW29605  11.612   0.704  11.513
75903SOL    HW129606  11.589   0.738  11.599
75903SOL    HW229607  11.537   0.650  11.487
75904SOL     OW29608   7.238   6.877  11.532
75904SOL    HW129609   7.320   6.870  11.483
75904SOL    HW229610   7.262   6.856  11.622
75905SOL     OW29611  11.360   7.501   6.350
75905SOL    HW129612  11.275   7.531   6.316
75905SOL    HW229613  11.337   7.445   6.425
75906SOL     OW29614   6.321   7.228   7.368
75906SOL    HW129615   6.325   7.263   7.457
75906SOL    HW229616   6.367   7.293   7.315
75907SOL     OW29617   1.896   5.658   5.890
75907SOL    HW129618   1.870   5.567   5.877
75907SOL    HW229619   1.843   5.688   5.964
75908SOL     OW29620  11.152   6.852   0.382
75908SOL    HW129621  11.140   6.808   0.299
75908SOL    HW229622  11.234   6.901   0.372
75909SOL     OW29623  12.338   8.833  10.446
75909SOL    HW129624  12.306   8.788  10.368
75909SOL    HW229625  12.299   8.920  10.442
75910SOL     OW29626   2.235   9.140   7.678
75910SOL    HW129627   2.276   9.215   7.721
75910SOL    HW229628   2.167   9.112   7.739
75911SOL     OW29629  13.476   5.907   4.505
75911SOL    HW129630  13.452   5.967   4.434
75911SOL    HW229631  13.437   5.946   4.583
75912SOL     OW29632   0.960   5.897  11.899
75912SOL    HW129633   1.049   5.932  11.897
75912SOL    HW229634   0.934   5.893  11.807
75913SOL     OW29635   1.478  14.317  14.395
75913SOL    HW129636   1.526  14.258  14.452
75913SOL    HW229637   1.461  14.394  14.449
75914SOL     OW29638  12.018   0.130   4.063
75914SOL    HW129639  12.094   0.103   4.114
75914SOL    HW229640  12.055   0.163   3.981
75915SOL     OW29641   7.867  14.069  12.011
75915SOL    HW129642   7.897  14.142  12.066
75915SOL    HW229643   7.810  14.110  11.947
75916SOL     OW29644  12.601   3.507   4.071
75916SOL    HW129645  12.593   3.489   3.977
75916SOL    HW229646  12.533   3.453   4.111
75917SOL     OW29647  12.361   6.449   1.741
75917SOL    HW129648  12.403   6.364   1.734
75917SOL    HW229649  12.429   6.512   1.718
75918SOL     OW29650   6.262   1.377  12.557
75918SOL    HW129651   6.193   1.442  12.543
75918SOL    HW229652   6.304   1.370  12.471
75919SOL     OW29653  13.915   6.937   0.640
75919SOL    HW129654  13.905   6.918   0.547
75919SOL    HW229655  13.842   6.891   0.681
75920SOL     OW29656  13.350   2.402  14.871
75920SOL    HW129657  13.349   2.335  14.803
75920SOL    HW229658  13.427   2.383   0.044
75921SOL     OW29659   6.601   2.514   0.420
75921SOL    HW129660   6.541   2.504   0.345
75921SOL    HW229661   6.592   2.606   0.446
75922SOL     OW29662   1.424   3.937  10.327
75922SOL    HW129663   1.367   3.887  10.268
75922SOL    HW229664   1.504   3.952  10.277
75923SOL     OW29665  14.252   6.718   8.083
75923SOL    HW129666  14.247   6.626   8.108
75923SOL    HW229667  14.264   6.717   7.988
75924SOL     OW29668   6.829   5.866   5.088
75924SOL    HW129669   6.867   5.778   5.088
75924SOL    HW229670   6.851   5.901   5.174
75925SOL     OW29671   2.919  11.909   9.553
75925SOL    HW129672   2.918  11.817   9.528
75925SOL    HW229673   2.839  11.920   9.605
75926SOL     OW29674   8.075  10.783  12.710
75926SOL    HW129675   8.015  10.753  12.642
75926SOL    HW229676   8.124  10.855  12.669
75927SOL     OW29677   8.589   9.295   7.577
75927SOL    HW129678   8.622   9.209   7.604
75927SOL    HW229679   8.570   9.285   7.484
75928SOL     OW29680   4.506   3.988  10.797
75928SOL    HW129681   4.446   3.948  10.860
75928SOL    HW229682   4.591   3.950  10.818
75929SOL     OW29683  10.114   1.905   8.882
75929SOL    HW129684  10.106   1.943   8.970
75929SOL    HW229685  10.060   1.962   8.827
75930SOL     OW29686  10.897   4.808  11.932
75930SOL    HW129687  10.847   4.884  11.961
75930SOL    HW229688  10.932   4.833  11.847
75931SOL     OW29689   9.264  13.258   2.368
75931SOL    HW129690   9.176  13.255   2.331
75931SOL    HW229691   9.319  13.216   2.302
75932SOL     OW29692  14.593   0.892  14.628
75932SOL    HW129693  14.660   0.907  14.694
75932SOL    HW229694  14.543   0.817  14.661
75933SOL     OW29695   8.557   9.718   2.450
75933SOL    HW129696   8.600   9.658   2.511
75933SOL    HW229697   8.474   9.739   2.492
75934SOL     OW29698   1.373  14.579   2.807
75934SOL    HW129699   1.365  14.630   2.887
75934SOL    HW229700   1.409  14.641   2.743
75935SOL     OW29701   3.059   7.233   8.062
75935SOL    HW129702   3.056   7.180   7.982
75935SOL    HW229703   3.132   7.197   8.112
75936SOL     OW29704   5.934  10.164  13.013
75936SOL    HW129705   5.950  10.096  13.079
75936SOL    HW229706   6.018  10.210  13.006
75937SOL     OW29707   8.903   5.835   0.577
75937SOL    HW129708   8.968   5.851   0.509
75937SOL    HW229709   8.895   5.740   0.582
75938SOL     OW29710   0.118   8.793  10.519
75938SOL    HW129711   0.174   8.728  10.475
75938SOL    HW229712   0.034   8.787  10.474
75939SOL     OW29713  12.880   7.093   6.887
75939SOL    HW129714  12.864   7.099   6.793
75939SOL    HW229715  12.848   7.176   6.922
75940SOL     OW29716   3.422   8.210   7.090
75940SOL    HW129717   3.467   8.216   7.175
75940SOL    HW229718   3.473   8.147   7.040
75941SOL     OW29719   3.883   8.450   5.016
75941SOL    HW129720   3.818   8.463   5.085
75941SOL    HW229721   3.837   8.472   4.935
75942SOL     OW29722   3.019   6.737   8.806
75942SOL    HW129723   3.025   6.739   8.901
75942SOL    HW229724   3.088   6.796   8.776
75943SOL     OW29725   3.848   5.108   1.679
75943SOL    HW129726   3.835   5.199   1.653
75943SOL    HW229727   3.845   5.110   1.775
75944SOL     OW29728   1.810  13.136  10.127
75944SOL    HW129729   1.718  13.142  10.151
75944SOL    HW229730   1.837  13.049  10.157
75945SOL     OW29731   3.443   4.529   3.679
75945SOL    HW129732   3.376   4.583   3.637
75945SOL    HW229733   3.442   4.556   3.771
75946SOL     OW29734   7.586  12.195   0.694
75946SOL    HW129735   7.576  12.188   0.789
75946SOL    HW229736   7.589  12.105   0.663
75947SOL     OW29737  10.760   8.299   5.843
75947SOL    HW129738  10.809   8.307   5.761
75947SOL    HW229739  10.717   8.383   5.855
75948SOL     OW29740   1.446  10.224   5.334
75948SOL    HW129741   1.533  10.256   5.358
75948SOL    HW229742   1.444  10.135   5.370
75949SOL     OW29743   1.278   4.424   7.622
75949SOL    HW129744   1.206   4.410   7.683
75949SOL    HW229745   1.320   4.338   7.613
75950SOL     OW29746   6.325  14.798   6.174
75950SOL    HW129747   6.303  14.733   6.107
75950SOL    HW229748   6.407  14.837   6.142
75951SOL     OW29749  12.376   1.854  11.682
75951SOL    HW129750  12.451   1.843  11.623
75951SOL    HW229751  12.396   1.933  11.732
75952SOL     OW29752  13.289   7.210  12.916
75952SOL    HW129753  13.364   7.184  12.969
75952SOL    HW229754  13.230   7.135  12.918
75953SOL     OW29755   0.601  14.753  12.964
75953SOL    HW129756   0.632  14.808  12.892
75953SOL    HW229757   0.681  14.722  13.007
75954SOL     OW29758   9.197   4.784   8.659
75954SOL    HW129759   9.129   4.773   8.726
75954SOL    HW229760   9.207   4.879   8.650
75955SOL     OW29761  11.197  13.255   4.655
75955SOL    HW129762  11.121  13.236   4.709
75955SOL    HW229763  11.183  13.344   4.623
75956SOL     OW29764   6.454  10.050   8.803
75956SOL    HW129765   6.458  10.009   8.717
75956SOL    HW229766   6.537  10.098   8.811
75957SOL     OW29767  10.447  11.347   1.369
75957SOL    HW129768  10.376  11.395   1.413
75957SOL    HW229769  10.444  11.379   1.278
75958SOL     OW29770   2.876   8.567   7.021
75958SOL    HW129771   2.930   8.556   7.099
75958SOL    HW229772   2.857   8.660   7.018
75959SOL     OW29773  10.226   5.243  12.607
75959SOL    HW129774  10.152   5.262  12.549
75959SOL    HW229775  10.208   5.156  12.642
75960SOL     OW29776   5.696   1.263   2.278
75960SOL    HW129777   5.611   1.300   2.302
75960SOL    HW229778   5.682   1.168   2.278
75961SOL     OW29779   4.969   8.746   8.282
75961SOL    HW129780   5.012   8.729   8.366
75961SOL    HW229781   5.041   8.754   8.220
75962SOL     OW29782   9.659   0.280   4.478
75962SOL    HW129783   9.719   0.354   4.469
75962SOL    HW229784   9.578   0.317   4.513
75963SOL     OW29785   3.447   6.780   0.172
75963SOL    HW129786   3.436   6.687   0.150
75963SOL    HW229787   3.541   6.792   0.181
75964SOL     OW29788   5.381  13.987   6.533
75964SOL    HW129789   5.405  13.955   6.620
75964SOL    HW229790   5.405  13.917   6.474
75965SOL     OW29791  11.419   6.845  13.118
75965SOL    HW129792  11.450   6.754  13.111
75965SOL    HW229793  11.377   6.862  13.033
75966SOL     OW29794   1.472   3.153  13.665
75966SOL    HW129795   1.550   3.111  13.629
75966SOL    HW229796   1.401   3.127  13.606
75967SOL     OW29797   5.212   2.658   5.685
75967SOL    HW129798   5.272   2.584   5.674
75967SOL    HW229799   5.226   2.686   5.776
75968SOL     OW29800   8.398   3.186   9.428
75968SOL    HW129801   8.462   3.243   9.385
75968SOL    HW229802   8.444   3.102   9.439
75969SOL     OW29803  10.149  13.706   8.526
75969SOL    HW129804  10.213  13.777   8.534
75969SOL    HW229805  10.190  13.632   8.571
75970SOL     OW29806  13.605   3.636   3.287
75970SOL    HW129807  13.578   3.725   3.309
75970SOL    HW229808  13.700   3.636   3.298
75971SOL     OW29809   6.519   4.855   8.711
75971SOL    HW129810   6.491   4.773   8.669
75971SOL    HW229811   6.608   4.869   8.680
75972SOL     OW29812  11.801   6.273  11.077
75972SOL    HW129813  11.755   6.358  11.077
75972SOL    HW229814  11.776   6.232  11.159
75973SOL     OW29815   3.395   8.771   7.375
75973SOL    HW129816   3.325   8.797   7.315
75973SOL    HW229817   3.350   8.748   7.456
75974SOL     OW29818  11.617  14.009   5.584
75974SOL    HW129819  11.638  13.952   5.511
75974SOL    HW229820  11.567  13.954   5.645
75975SOL     OW29821   4.830   7.102  12.764
75975SOL    HW129822   4.755   7.043  12.767
75975SOL    HW229823   4.842   7.122  12.671
75976SOL     OW29824  11.103   1.311  13.658
75976SOL    HW129825  11.136   1.395  13.690
75976SOL    HW229826  11.060   1.332  13.575
75977SOL     OW29827   4.023   9.546   3.894
75977SOL    HW129828   4.102   9.599   3.883
75977SOL    HW229829   3.994   9.527   3.804
75978SOL     OW29830  10.956   5.491  14.014
75978SOL    HW129831  11.033   5.528  13.970
75978SOL    HW229832  10.992   5.424  14.072
75979SOL     OW29833  14.775   2.153   8.563
75979SOL    HW129834  14.689   2.141   8.522
75979SOL    HW229835  14.759   2.141   8.656
75980SOL     OW29836   4.558   4.572   3.970
75980SOL    HW129837   4.620   4.644   3.958
75980SOL    HW229838   4.486   4.610   4.020
75981SOL     OW29839   7.954  14.545   9.225
75981SOL    HW129840   7.876  14.491   9.237
75981SOL    HW229841   7.937  14.623   9.277
75982SOL     OW29842  13.001   0.449   8.291
75982SOL    HW129843  13.038   0.500   8.219
75982SOL    HW229844  12.915   0.488   8.307
75983SOL     OW29845  14.842  14.022   3.055
75983SOL    HW129846  14.856  13.932   3.084
75983SOL    HW229847   0.021  14.031   2.980
75984SOL     OW29848   7.286   6.137  11.759
75984SOL    HW129849   7.324   6.099  11.839
75984SOL    HW229850   7.328   6.088  11.688
75985SOL     OW29851   6.274   0.180   6.657
75985SOL    HW129852   6.269   0.225   6.573
75985SOL    HW229853   6.348   0.119   6.647
75986SOL     OW29854   7.978   6.833  11.542
75986SOL    HW129855   7.953   6.891  11.470
75986SOL    HW229856   7.911   6.765  11.544
75987SOL     OW29857  11.359   5.022   3.808
75987SOL    HW129858  11.299   4.976   3.866
75987SOL    HW229859  11.403   4.953   3.759
75988SOL     OW29860  13.927   8.366   8.804
75988SOL    HW129861  13.929   8.293   8.866
75988SOL    HW229862  14.016   8.401   8.804
75989SOL     OW29863   1.094   1.591   2.303
75989SOL    HW129864   1.011   1.545   2.321
75989SOL    HW229865   1.103   1.588   2.208
75990SOL     OW29866   4.910  12.495  12.249
75990SOL    HW129867   4.939  12.585  12.239
75990SOL    HW229868   4.897  12.484  12.343
75991SOL     OW29869  12.110  13.688  10.541
75991SOL    HW129870  12.125  13.637  10.621
75991SOL    HW229871  12.020  13.669  10.516
75992SOL     OW29872  13.988   1.299   9.676
75992SOL    HW129873  13.944   1.282   9.759
75992SOL    HW229874  14.081   1.298   9.697
75993SOL     OW29875  13.496  11.738   8.521
75993SOL    HW129876  13.564  11.786   8.568
75993SOL    HW229877  13.437  11.806   8.489
75994SOL     OW29878   5.849   1.707   4.217
75994SOL    HW129879   5.938   1.733   4.193
75994SOL    HW229880   5.801   1.705   4.134
75995SOL     OW29881  13.900   6.067   4.063
75995SOL    HW129882  13.900   6.152   4.017
75995SOL    HW229883  13.989   6.059   4.097
75996SOL     OW29884   6.126   3.065  14.068
75996SOL    HW129885   6.211   3.043  14.108
75996SOL    HW229886   6.127   3.020  13.984
75997SOL     OW29887   5.741   5.935   4.815
75997SOL    HW129888   5.655   5.917   4.853
75997SOL    HW229889   5.802   5.893   4.876
75998SOL     OW29890  11.424   6.842  11.995
75998SOL    HW129891  11.389   6.901  11.929
75998SOL    HW229892  11.516   6.867  12.003
75999SOL     OW29893   9.777   7.654   6.834
75999SOL    HW129894   9.743   7.656   6.923
75999SOL    HW229895   9.757   7.741   6.799
76000SOL     OW29896  12.433   3.014   5.891
76000SOL    HW129897  12.524   3.036   5.870
76000SOL    HW229898  12.381   3.070   5.833
76001SOL     OW29899   3.023   7.138   4.759
76001SOL    HW129900   3.003   7.060   4.811
76001SOL    HW229901   3.119   7.143   4.759
76002SOL     OW29902  13.260   0.318  12.969
76002SOL    HW129903  13.265   0.349  12.879
76002SOL    HW229904  13.167   0.317  12.990
76003SOL     OW29905   8.455   2.395  10.758
76003SOL    HW129906   8.386   2.451  10.723
76003SOL    HW229907   8.537   2.437  10.731
76004SOL     OW29908   5.912   2.070   7.719
76004SOL    HW129909   5.945   2.053   7.631
76004SOL    HW229910   5.970   2.021   7.776
76005SOL     OW29911   0.444   1.648  10.019
76005SOL    HW129912   0.415   1.653  10.110
76005SOL    HW229913   0.459   1.555  10.004
76006SOL     OW29914  12.608   4.888   2.945
76006SOL    HW129915  12.640   4.803   2.974
76006SOL    HW229916  12.599   4.939   3.025
76007SOL     OW29917   6.638  14.719   0.785
76007SOL    HW129918   6.569  14.783   0.768
76007SOL    HW229919   6.719  14.764   0.762
76008SOL     OW29920  12.155   0.110   7.632
76008SOL    HW129921  12.069   0.152   7.628
76008SOL    HW229922  12.170   0.094   7.725
76009SOL     OW29923   8.729  10.884   6.473
76009SOL    HW129924   8.653  10.842   6.431
76009SOL    HW229925   8.755  10.821   6.541
76010SOL     OW29926  10.536  12.288   2.088
76010SOL    HW129927  10.462  12.319   2.035
76010SOL    HW229928  10.507  12.204   2.122
76011SOL     OW29929   7.159   9.565   6.793
76011SOL    HW129930   7.096   9.535   6.858
76011SOL    HW229931   7.158   9.660   6.801
76012SOL     OW29932   2.448  10.370   7.757
76012SOL    HW129933   2.393  10.313   7.811
76012SOL    HW229934   2.463  10.319   7.677
76013SOL     OW29935   0.109  12.478   6.586
76013SOL    HW129936   0.148  12.503   6.669
76013SOL    HW229937   0.070  12.560   6.553
76014SOL     OW29938   1.745   3.957  11.159
76014SOL    HW129939   1.711   3.883  11.109
76014SOL    HW229940   1.804   3.916  11.224
76015SOL     OW29941   7.615   7.859  10.542
76015SOL    HW129942   7.671   7.831  10.470
76015SOL    HW229943   7.606   7.954  10.530
76016SOL     OW29944   9.291   9.480   2.546
76016SOL    HW129945   9.262   9.542   2.613
76016SOL    HW229946   9.387   9.483   2.551
76017SOL     OW29947   7.862  12.492  13.653
76017SOL    HW129948   7.767  12.502  13.642
76017SOL    HW229949   7.871  12.436  13.730
76018SOL     OW29950   7.970  10.430   9.347
76018SOL    HW129951   7.896  10.391   9.300
76018SOL    HW229952   7.937  10.515   9.376
76019SOL     OW29953   6.853  14.696  13.729
76019SOL    HW129954   6.942  14.731  13.734
76019SOL    HW229955   6.803  14.766  13.687
76020SOL     OW29956  13.653   7.037  13.424
76020SOL    HW129957  13.717   7.093  13.381
76020SOL    HW229958  13.612   6.989  13.353
76021SOL     OW29959   5.881   1.462   1.347
76021SOL    HW129960   5.844   1.468   1.260
76021SOL    HW229961   5.969   1.500   1.339
76022SOL     OW29962   2.604   8.616   6.108
76022SOL    HW129963   2.528   8.667   6.134
76022SOL    HW229964   2.579   8.525   6.126
76023SOL     OW29965  14.194   0.976   2.614
76023SOL    HW129966  14.158   0.888   2.609
76023SOL    HW229967  14.146   1.017   2.686
76024SOL     OW29968   6.486   1.923   8.369
76024SOL    HW129969   6.392   1.937   8.377
76024SOL    HW229970   6.521   2.008   8.342
76025SOL     OW29971   6.342   7.059   3.401
76025SOL    HW129972   6.417   7.003   3.379
76025SOL    HW229973   6.381   7.145   3.417
76026SOL     OW29974  10.434   9.846   5.931
76026SOL    HW129975  10.421   9.805   5.846
76026SOL    HW229976  10.453   9.938   5.911
76027SOL     OW29977   4.734   7.314  12.929
76027SOL    HW129978   4.775   7.271  12.853
76027SOL    HW229979   4.674   7.248  12.965
76028SOL     OW29980   7.286   5.372   8.450
76028SOL    HW129981   7.270   5.290   8.498
76028SOL    HW229982   7.351   5.418   8.503
76029SOL     OW29983   1.364   1.511   8.659
76029SOL    HW129984   1.337   1.521   8.750
76029SOL    HW229985   1.384   1.418   8.650
76030SOL     OW29986   5.388  13.471   6.133
76030SOL    HW129987   5.336  13.540   6.173
76030SOL    HW229988   5.376  13.483   6.039
76031SOL     OW29989   2.878  12.171   3.949
76031SOL    HW129990   2.792  12.149   3.986
76031SOL    HW229991   2.858  12.228   3.875
76032SOL     OW29992   5.241   7.003  10.396
76032SOL    HW129993   5.233   6.996  10.491
76032SOL    HW229994   5.151   7.006  10.365
76033SOL     OW29995   1.494   7.645  13.991
76033SOL    HW129996   1.436   7.606  13.926
76033SOL    HW229997   1.518   7.730  13.954
76034SOL     OW29998   0.497   5.392   4.846
76034SOL    HW129999   0.529   5.455   4.781
76034SOL    HW230000   0.509   5.307   4.805
76035SOL     OW30001   6.384   3.086  13.678
76035SOL    HW130002   6.447   3.149  13.645
76035SOL    HW230003   6.358   3.035  13.601
76036SOL     OW30004  14.874  14.478  12.261
76036SOL    HW130005   0.084  14.448  12.248
76036SOL    HW230006  14.829  14.456  12.179
76037SOL     OW30007   6.603   1.390   5.745
76037SOL    HW130008   6.662   1.379   5.670
76037SOL    HW230009   6.516   1.375   5.708
76038SOL     OW30010   4.217   3.566   5.060
76038SOL    HW130011   4.137   3.514   5.065
76038SOL    HW230012   4.215   3.605   4.973
76039SOL     OW30013   7.696   7.203  13.349
76039SOL    HW130014   7.642   7.162  13.281
76039SOL    HW230015   7.783   7.210  13.310
76040SOL     OW30016  12.486   9.800   7.693
76040SOL    HW130017  12.486   9.881   7.641
76040SOL    HW230018  12.576   9.768   7.688
76041SOL     OW30019  11.770   2.774  11.624
76041SOL    HW130020  11.793   2.718  11.550
76041SOL    HW230021  11.854   2.807  11.656
76042SOL     OW30022  10.636   3.271  14.204
76042SOL    HW130023  10.563   3.212  14.188
76042SOL    HW230024  10.665   3.249  14.293
76043SOL     OW30025  10.748   7.348   9.448
76043SOL    HW130026  10.738   7.437   9.414
76043SOL    HW230027  10.822   7.311   9.400
76044SOL     OW30028  11.634  11.605   8.336
76044SOL    HW130029  11.621  11.625   8.428
76044SOL    HW230030  11.669  11.685   8.298
76045SOL     OW30031   3.425  10.014  11.604
76045SOL    HW130032   3.460   9.977  11.685
76045SOL    HW230033   3.341   9.969  11.592
76046SOL     OW30034   9.314  10.788   7.459
76046SOL    HW130035   9.338  10.701   7.492
76046SOL    HW230036   9.382  10.808   7.394
76047SOL     OW30037   5.252  10.627   2.591
76047SOL    HW130038   5.205  10.590   2.516
76047SOL    HW230039   5.183  10.657   2.650
76048SOL     OW30040  13.933   8.417   3.554
76048SOL    HW130041  14.001   8.482   3.574
76048SOL    HW230042  13.861   8.469   3.519
76049SOL     OW30043   4.485   3.453  12.099
76049SOL    HW130044   4.456   3.511  12.028
76049SOL    HW230045   4.581   3.457  12.095
76050SOL     OW30046  13.887  13.502  12.258
76050SOL    HW130047  13.966  13.538  12.217
76050SOL    HW230048  13.918  13.464  12.340
76051SOL     OW30049  11.705   2.600   8.488
76051SOL    HW130050  11.703   2.688   8.450
76051SOL    HW230051  11.647   2.548   8.431
76052SOL     OW30052   6.058   4.279   0.763
76052SOL    HW130053   5.985   4.217   0.769
76052SOL    HW230054   6.133   4.231   0.797
76053SOL     OW30055   5.360  11.204  13.359
76053SOL    HW130056   5.357  11.164  13.446
76053SOL    HW230057   5.296  11.155  13.308
76054SOL     OW30058  11.807  10.437   0.076
76054SOL    HW130059  11.816  10.384  14.877
76054SOL    HW230060  11.725  10.486   0.063
76055SOL     OW30061   2.257   1.610  14.200
76055SOL    HW130062   2.255   1.683  14.139
76055SOL    HW230063   2.165   1.593  14.221
76056SOL     OW30064   1.178   1.526   0.066
76056SOL    HW130065   1.167   1.547  14.853
76056SOL    HW230066   1.269   1.550   0.085
76057SOL     OW30067   3.360  10.309  14.768
76057SOL    HW130068   3.369  10.369  14.842
76057SOL    HW230069   3.276  10.266  14.782
76058SOL     OW30070   3.208  10.113   8.699
76058SOL    HW130071   3.239  10.078   8.782
76058SOL    HW230072   3.230  10.046   8.635
76059SOL     OW30073   8.084  11.485   8.546
76059SOL    HW130074   8.117  11.547   8.612
76059SOL    HW230075   8.128  11.403   8.568
76060SOL     OW30076   4.975  13.109   9.501
76060SOL    HW130077   5.070  13.109   9.511
76060SOL    HW230078   4.942  13.070   9.582
76061SOL     OW30079  14.768   1.264  10.312
76061SOL    HW130080  14.679   1.276  10.345
76061SOL    HW230081  14.820   1.325  10.363
76062SOL     OW30082   1.254  10.569  12.749
76062SOL    HW130083   1.285  10.652  12.787
76062SOL    HW230084   1.290  10.569  12.660
76063SOL     OW30085   4.185   4.325   5.374
76063SOL    HW130086   4.191   4.414   5.342
76063SOL    HW230087   4.191   4.333   5.470
76064SOL     OW30088   8.558   0.968  10.698
76064SOL    HW130089   8.557   0.942  10.606
76064SOL    HW230090   8.627   0.914  10.737
76065SOL     OW30091   1.751  11.018   4.667
76065SOL    HW130092   1.812  11.039   4.596
76065SOL    HW230093   1.803  11.028   4.747
76066SOL     OW30094   1.835   7.519   4.460
76066SOL    HW130095   1.813   7.612   4.448
76066SOL    HW230096   1.751   7.475   4.468
76067SOL     OW30097   1.304   7.324   3.140
76067SOL    HW130098   1.358   7.347   3.065
76067SOL    HW230099   1.218   7.304   3.104
76068SOL     OW30100   2.830  14.385   9.308
76068SOL    HW130101   2.847  14.306   9.360
76068SOL    HW230102   2.848  14.357   9.218
76069SOL     OW30103   1.266   9.530   2.455
76069SOL    HW130104   1.255   9.579   2.373
76069SOL    HW230105   1.257   9.596   2.524
76070SOL     OW30106  12.914  10.515   6.439
76070SOL    HW130107  12.903  10.500   6.533
76070SOL    HW230108  12.890  10.433   6.398
76071SOL     OW30109  10.466   5.570  11.579
76071SOL    HW130110  10.478   5.588  11.672
76071SOL    HW230111  10.372   5.549  11.571
76072SOL     OW30112  11.588   6.613  13.046
76072SOL    HW130113  11.621   6.544  12.989
76072SOL    HW230114  11.631   6.693  13.015
76073SOL     OW30115   9.661  13.191  13.716
76073SOL    HW130116   9.645  13.261  13.653
76073SOL    HW230117   9.721  13.131  13.672
76074SOL     OW30118   8.927  10.930   8.301
76074SOL    HW130119   8.895  10.842   8.282
76074SOL    HW230120   8.991  10.948   8.232
76075SOL     OW30121  12.405   3.803   9.401
76075SOL    HW130122  12.318   3.770   9.426
76075SOL    HW230123  12.465   3.734   9.427
76076SOL     OW30124  13.700   4.163   2.783
76076SOL    HW130125  13.709   4.071   2.806
76076SOL    HW230126  13.651   4.162   2.701
76077SOL     OW30127   4.897   3.671  11.578
76077SOL    HW130128   4.802   3.678  11.576
76077SOL    HW230129   4.916   3.590  11.531
76078SOL     OW30130  12.625   3.313  11.907
76078SOL    HW130131  12.554   3.377  11.909
76078SOL    HW230132  12.700   3.359  11.944
76079SOL     OW30133  11.516   7.608   0.845
76079SOL    HW130134  11.564   7.637   0.923
76079SOL    HW230135  11.424   7.615   0.869
76080SOL     OW30136   7.911   7.499  10.395
76080SOL    HW130137   7.968   7.488  10.471
76080SOL    HW230138   7.840   7.436  10.409
76081SOL     OW30139  13.565   5.647   3.268
76081SOL    HW130140  13.493   5.635   3.330
76081SOL    HW230141  13.538   5.599   3.190
76082SOL     OW30142   5.574  13.693   8.354
76082SOL    HW130143   5.557  13.668   8.263
76082SOL    HW230144   5.549  13.785   8.360
76083SOL     OW30145   2.321   3.118   2.813
76083SOL    HW130146   2.358   3.203   2.839
76083SOL    HW230147   2.336   3.113   2.719
76084SOL     OW30148  13.746   7.972   9.952
76084SOL    HW130149  13.784   7.981  10.039
76084SOL    HW230150  13.714   7.882   9.949
76085SOL     OW30151   8.298  13.541   1.628
76085SOL    HW130152   8.249  13.506   1.702
76085SOL    HW230153   8.388  13.514   1.643
76086SOL     OW30154  14.424   7.167   8.474
76086SOL    HW130155  14.441   7.074   8.463
76086SOL    HW230156  14.461   7.207   8.395
76087SOL     OW30157   1.194   7.786   3.208
76087SOL    HW130158   1.121   7.726   3.194
76087SOL    HW230159   1.266   7.749   3.157
76088SOL     OW30160   4.324   0.110   4.639
76088SOL    HW130161   4.250   0.164   4.665
76088SOL    HW230162   4.361   0.156   4.563
76089SOL     OW30163   0.299   8.001   3.748
76089SOL    HW130164   0.207   7.991   3.723
76089SOL    HW230165   0.304   7.966   3.837
76090SOL     OW30166   4.031  11.602   2.110
76090SOL    HW130167   3.990  11.674   2.157
76090SOL    HW230168   4.120  11.632   2.093
76091SOL     OW30169   7.893   4.892   9.118
76091SOL    HW130170   7.868   4.954   9.187
76091SOL    HW230171   7.900   4.946   9.039
76092SOL     OW30172   1.655   4.797  12.511
76092SOL    HW130173   1.665   4.880  12.559
76092SOL    HW230174   1.674   4.729  12.576
76093SOL     OW30175   5.069   4.640   9.684
76093SOL    HW130176   5.075   4.724   9.729
76093SOL    HW230177   5.124   4.581   9.736
76094SOL     OW30178   0.373   2.604   2.415
76094SOL    HW130179   0.398   2.601   2.323
76094SOL    HW230180   0.407   2.523   2.452
76095SOL     OW30181   9.687   1.650  11.750
76095SOL    HW130182   9.669   1.684  11.837
76095SOL    HW230183   9.744   1.574  11.764
76096SOL     OW30184  13.665   7.002   1.817
76096SOL    HW130185  13.722   6.979   1.891
76096SOL    HW230186  13.626   7.085   1.843
76097SOL     OW30187   6.735  10.637   2.652
76097SOL    HW130188   6.792  10.679   2.588
76097SOL    HW230189   6.668  10.703   2.670
76098SOL     OW30190   2.102  11.778   5.691
76098SOL    HW130191   2.125  11.870   5.681
76098SOL    HW230192   2.166  11.730   5.638
76099SOL     OW30193   9.927   1.796  13.057
76099SOL    HW130194   9.868   1.749  12.998
76099SOL    HW230195   9.934   1.884  13.020
76100SOL     OW30196   1.423  13.364   7.470
76100SOL    HW130197   1.496  13.397   7.523
76100SOL    HW230198   1.430  13.413   7.388
76101SOL     OW30199   2.456  14.252   6.714
76101SOL    HW130200   2.473  14.209   6.798
76101SOL    HW230201   2.527  14.317   6.706
76102SOL     OW30202   1.708   7.516  12.554
76102SOL    HW130203   1.689   7.536  12.462
76102SOL    HW230204   1.717   7.421  12.556
76103SOL     OW30205  14.153   0.925   9.547
76103SOL    HW130206  14.080   0.903   9.489
76103SOL    HW230207  14.150   0.858   9.616
76104SOL     OW30208   0.519  13.784   7.586
76104SOL    HW130209   0.568  13.738   7.654
76104SOL    HW230210   0.427  13.774   7.611
76105SOL     OW30211   9.793   3.180   5.820
76105SOL    HW130212   9.880   3.140   5.821
76105SOL    HW230213   9.809   3.274   5.814
76106SOL     OW30214  11.087  14.637  10.107
76106SOL    HW130215  11.073  14.543  10.105
76106SOL    HW230216  11.176  14.649  10.074
76107SOL     OW30217  13.868   3.304  12.518
76107SOL    HW130218  13.813   3.253  12.458
76107SOL    HW230219  13.927   3.353  12.462
76108SOL     OW30220   7.324   3.485   2.287
76108SOL    HW130221   7.340   3.453   2.198
76108SOL    HW230222   7.411   3.509   2.319
76109SOL     OW30223   6.732   9.698   0.122
76109SOL    HW130224   6.659   9.745   0.081
76109SOL    HW230225   6.808   9.720   0.067
76110SOL     OW30226   2.121  12.872   0.713
76110SOL    HW130227   2.137  12.866   0.807
76110SOL    HW230228   2.201  12.836   0.673
76111SOL     OW30229   2.874   2.273   2.839
76111SOL    HW130230   2.888   2.184   2.807
76111SOL    HW230231   2.842   2.321   2.763
76112SOL     OW30232  11.360  12.922   7.295
76112SOL    HW130233  11.297  12.993   7.281
76112SOL    HW230234  11.309  12.854   7.340
76113SOL     OW30235   3.572   4.463   7.156
76113SOL    HW130236   3.592   4.503   7.072
76113SOL    HW230237   3.606   4.525   7.221
76114SOL     OW30238   0.337   0.780   4.208
76114SOL    HW130239   0.314   0.794   4.300
76114SOL    HW230240   0.433   0.781   4.207
76115SOL     OW30241  12.148  12.998   0.108
76115SOL    HW130242  12.180  12.968   0.193
76115SOL    HW230243  12.139  12.919   0.056
76116SOL     OW30244   5.660  13.778   6.968
76116SOL    HW130245   5.653  13.736   7.054
76116SOL    HW230246   5.683  13.869   6.986
76117SOL     OW30247  10.349   0.448   6.111
76117SOL    HW130248  10.316   0.363   6.139
76117SOL    HW230249  10.367   0.438   6.018
76118SOL     OW30250   7.898   9.099  11.498
76118SOL    HW130251   7.980   9.060  11.528
76118SOL    HW230252   7.830   9.040  11.530
76119SOL     OW30253   9.599  14.606   5.074
76119SOL    HW130254   9.541  14.545   5.028
76119SOL    HW230255   9.545  14.640   5.146
76120SOL     OW30256   6.027   0.580   7.950
76120SOL    HW130257   6.083   0.520   7.999
76120SOL    HW230258   6.078   0.661   7.945
76121SOL     OW30259  12.149   1.651   0.167
76121SOL    HW130260  12.104   1.584   0.114
76121SOL    HW230261  12.092   1.728   0.161
76122SOL     OW30262  10.451   5.190  12.224
76122SOL    HW130263  10.487   5.193  12.313
76122SOL    HW230264  10.526   5.167  12.169
76123SOL     OW30265   7.598   9.048   1.181
76123SOL    HW130266   7.648   8.993   1.121
76123SOL    HW230267   7.527   9.085   1.128
76124SOL     OW30268  11.891   8.612  14.034
76124SOL    HW130269  11.952   8.584  14.103
76124SOL    HW230270  11.806   8.576  14.060
76125SOL     OW30271   6.725  14.124   4.757
76125SOL    HW130272   6.759  14.057   4.698
76125SOL    HW230273   6.792  14.130   4.826
76126SOL     OW30274   9.702   4.875   1.859
76126SOL    HW130275   9.625   4.884   1.916
76126SOL    HW230276   9.677   4.918   1.778
76127SOL     OW30277   6.739  13.683  14.630
76127SOL    HW130278   6.677  13.752  14.608
76127SOL    HW230279   6.705  13.647  14.712
76128SOL     OW30280  14.026   6.827   2.913
76128SOL    HW130281  13.967   6.833   2.838
76128SOL    HW230282  14.022   6.913   2.954
76129SOL     OW30283   1.338   4.504   1.864
76129SOL    HW130284   1.357   4.496   1.770
76129SOL    HW230285   1.288   4.425   1.884
76130SOL     OW30286  11.692   6.889   8.629
76130SOL    HW130287  11.645   6.807   8.614
76130SOL    HW230288  11.783   6.869   8.607
76131SOL     OW30289   3.315  12.006  12.299
76131SOL    HW130290   3.248  11.958  12.249
76131SOL    HW230291   3.353  12.067  12.236
76132SOL     OW30292   5.050   2.950  10.194
76132SOL    HW130293   5.025   3.018  10.132
76132SOL    HW230294   4.980   2.885  10.189
76133SOL     OW30295   2.945   9.654   2.062
76133SOL    HW130296   3.031   9.693   2.073
76133SOL    HW230297   2.918   9.677   1.973
76134SOL     OW30298   0.790  11.623  11.253
76134SOL    HW130299   0.767  11.649  11.342
76134SOL    HW230300   0.853  11.688  11.223
76135SOL     OW30301  12.031   5.736   5.789
76135SOL    HW130302  11.946   5.762   5.824
76135SOL    HW230303  12.014   5.716   5.697
76136SOL     OW30304   3.050   6.394   9.776
76136SOL    HW130305   3.105   6.454   9.726
76136SOL    HW230306   3.060   6.310   9.731
76137SOL     OW30307  12.312   1.463   2.374
76137SOL    HW130308  12.383   1.471   2.437
76137SOL    HW230309  12.302   1.369   2.361
76138SOL     OW30310   2.890   5.853   0.777
76138SOL    HW130311   2.916   5.944   0.768
76138SOL    HW230312   2.937   5.821   0.854
76139SOL     OW30313  11.970   2.803  12.141
76139SOL    HW130314  12.004   2.720  12.107
76139SOL    HW230315  11.881   2.809  12.107
76140SOL     OW30316   3.762  11.877   9.184
76140SOL    HW130317   3.688  11.906   9.237
76140SOL    HW230318   3.744  11.909   9.096
76141SOL     OW30319   0.804   1.728  13.072
76141SOL    HW130320   0.889   1.686  13.058
76141SOL    HW230321   0.817   1.818  13.043
76142SOL     OW30322   3.681  10.430   1.691
76142SOL    HW130323   3.657  10.367   1.623
76142SOL    HW230324   3.648  10.514   1.659
76143SOL     OW30325  14.516   0.292  13.848
76143SOL    HW130326  14.465   0.310  13.927
76143SOL    HW230327  14.542   0.378  13.816
76144SOL     OW30328   4.741   7.819  11.474
76144SOL    HW130329   4.652   7.799  11.504
76144SOL    HW230330   4.797   7.756  11.521
76145SOL     OW30331   7.189   0.391   8.325
76145SOL    HW130332   7.130   0.393   8.251
76145SOL    HW230333   7.277   0.398   8.287
76146SOL     OW30334   3.214   5.469   9.219
76146SOL    HW130335   3.247   5.392   9.172
76146SOL    HW230336   3.192   5.531   9.150
76147SOL     OW30337   9.719  12.782  12.018
76147SOL    HW130338   9.781  12.776  12.091
76147SOL    HW230339   9.648  12.837  12.052
76148SOL     OW30340   8.366   8.264   1.567
76148SOL    HW130341   8.279   8.236   1.540
76148SOL    HW230342   8.394   8.325   1.499
76149SOL     OW30343   6.438   1.508   1.071
76149SOL    HW130344   6.443   1.457   1.152
76149SOL    HW230345   6.483   1.454   1.006
76150SOL     OW30346   1.075   3.030   2.489
76150SOL    HW130347   1.143   3.026   2.556
76150SOL    HW230348   1.122   3.022   2.406
76151SOL     OW30349   3.347   0.457   7.926
76151SOL    HW130350   3.404   0.436   8.000
76151SOL    HW230351   3.281   0.388   7.927
76152SOL     OW30352   8.958   8.105  11.328
76152SOL    HW130353   8.990   8.023  11.366
76152SOL    HW230354   8.914   8.078  11.247
76153SOL     OW30355  11.625   0.985  12.700
76153SOL    HW130356  11.534   0.958  12.713
76153SOL    HW230357  11.629   1.012  12.608
76154SOL     OW30358   7.598   4.422   6.994
76154SOL    HW130359   7.591   4.510   6.958
76154SOL    HW230360   7.509   4.387   6.990
76155SOL     OW30361   6.154  12.569   6.459
76155SOL    HW130362   6.203  12.490   6.485
76155SOL    HW230363   6.221  12.636   6.446
76156SOL     OW30364  13.835  11.168   0.936
76156SOL    HW130365  13.755  11.167   0.885
76156SOL    HW230366  13.906  11.171   0.871
76157SOL     OW30367  11.113   2.145   6.192
76157SOL    HW130368  11.091   2.237   6.177
76157SOL    HW230369  11.104   2.133   6.287
76158SOL     OW30370   4.296   5.537   2.268
76158SOL    HW130371   4.226   5.473   2.261
76158SOL    HW230372   4.252   5.622   2.264
76159SOL     OW30373  11.348   1.272   5.642
76159SOL    HW130374  11.281   1.292   5.577
76159SOL    HW230375  11.321   1.188   5.679
76160SOL     OW30376   5.405   4.050   0.985
76160SOL    HW130377   5.344   4.027   1.055
76160SOL    HW230378   5.407   3.973   0.929
76161SOL     OW30379   6.245   3.376   1.999
76161SOL    HW130380   6.223   3.347   1.910
76161SOL    HW230381   6.251   3.295   2.050
76162SOL     OW30382  12.324   5.032   1.373
76162SOL    HW130383  12.242   5.081   1.377
76162SOL    HW230384  12.334   5.011   1.280
76163SOL     OW30385   1.097  12.366  13.251
76163SOL    HW130386   1.089  12.278  13.213
76163SOL    HW230387   1.130  12.420  13.179
76164SOL     OW30388  10.381   4.266   9.889
76164SOL    HW130389  10.336   4.240   9.809
76164SOL    HW230390  10.355   4.357   9.903
76165SOL     OW30391   1.681   0.662   7.521
76165SOL    HW130392   1.643   0.627   7.441
76165SOL    HW230393   1.605   0.686   7.575
76166SOL     OW30394  13.274   7.174   8.514
76166SOL    HW130395  13.224   7.092   8.512
76166SOL    HW230396  13.211   7.241   8.489
76167SOL     OW30397   5.100   6.969   6.055
76167SOL    HW130398   5.084   7.031   6.127
76167SOL    HW230399   5.035   6.992   5.989
76168SOL     OW30400   7.493  14.012   5.779
76168SOL    HW130401   7.569  13.954   5.775
76168SOL    HW230402   7.429  13.963   5.831
76169SOL     OW30403   2.187   8.246  11.843
76169SOL    HW130404   2.157   8.178  11.904
76169SOL    HW230405   2.264   8.283  11.886
76170SOL     OW30406   2.017   6.033   6.056
76170SOL    HW130407   2.051   6.093   5.990
76170SOL    HW230408   1.948   5.984   6.012
76171SOL     OW30409   1.058   5.792   6.133
76171SOL    HW130410   0.983   5.795   6.192
76171SOL    HW230411   1.125   5.846   6.177
76172SOL     OW30412   4.751   4.682  12.307
76172SOL    HW130413   4.734   4.663  12.400
76172SOL    HW230414   4.753   4.778  12.303
76173SOL     OW30415   4.484   2.194  13.802
76173SOL    HW130416   4.497   2.129  13.733
76173SOL    HW230417   4.398   2.233  13.782
76174SOL     OW30418  14.150  10.876   7.552
76174SOL    HW130419  14.089  10.948   7.571
76174SOL    HW230420  14.197  10.863   7.634
76175SOL     OW30421   1.436   5.671  14.735
76175SOL    HW130422   1.399   5.665  14.823
76175SOL    HW230423   1.522   5.711  14.748
76176SOL     OW30424   3.867   1.504  13.998
76176SOL    HW130425   3.886   1.434  13.935
76176SOL    HW230426   3.773   1.494  14.016
76177SOL     OW30427   1.754   5.349   3.426
76177SOL    HW130428   1.729   5.263   3.392
76177SOL    HW230429   1.790   5.331   3.513
76178SOL     OW30430  14.060   5.791   7.060
76178SOL    HW130431  14.056   5.856   6.989
76178SOL    HW230432  14.087   5.842   7.137
76179SOL     OW30433   3.959   8.953   3.079
76179SOL    HW130434   4.003   8.877   3.039
76179SOL    HW230435   4.027   9.020   3.085
76180SOL     OW30436  14.672   8.630   8.516
76180SOL    HW130437  14.644   8.569   8.447
76180SOL    HW230438  14.734   8.688   8.472
76181SOL     OW30439  12.510  12.900   0.182
76181SOL    HW130440  12.471  12.856   0.107
76181SOL    HW230441  12.451  12.881   0.255
76182SOL     OW30442   2.953   0.271   5.039
76182SOL    HW130443   3.019   0.298   5.103
76182SOL    HW230444   2.871   0.306   5.074
76183SOL     OW30445   8.784   3.149   3.679
76183SOL    HW130446   8.825   3.202   3.747
76183SOL    HW230447   8.696   3.186   3.670
76184SOL     OW30448   4.752   8.740   8.127
76184SOL    HW130449   4.748   8.834   8.107
76184SOL    HW230450   4.831   8.731   8.181
76185SOL     OW30451   3.585  11.502  13.723
76185SOL    HW130452   3.548  11.548  13.798
76185SOL    HW230453   3.625  11.571  13.670
76186SOL     OW30454  10.440   0.218  14.197
76186SOL    HW130455  10.523   0.191  14.235
76186SOL    HW230456  10.431   0.166  14.117
76187SOL     OW30457  13.881   2.886   3.101
76187SOL    HW130458  13.926   2.968   3.078
76187SOL    HW230459  13.947   2.834   3.146
76188SOL     OW30460  10.897  14.452   8.460
76188SOL    HW130461  10.878  14.541   8.490
76188SOL    HW230462  10.938  14.464   8.374
76189SOL     OW30463   8.831   5.702   3.340
76189SOL    HW130464   8.751   5.649   3.341
76189SOL    HW230465   8.803   5.789   3.366
76190SOL     OW30466  14.674  12.621   7.759
76190SOL    HW130467  14.653  12.538   7.801
76190SOL    HW230468  14.756  12.604   7.712
76191SOL     OW30469   2.607  12.575   4.167
76191SOL    HW130470   2.634  12.503   4.224
76191SOL    HW230471   2.520  12.600   4.199
76192SOL     OW30472   0.762   0.384   1.873
76192SOL    HW130473   0.750   0.289   1.874
76192SOL    HW230474   0.673   0.419   1.868
76193SOL     OW30475   3.812  11.331   9.815
76193SOL    HW130476   3.776  11.245   9.833
76193SOL    HW230477   3.808  11.377   9.899
76194SOL     OW30478  13.877   9.179   2.447
76194SOL    HW130479  13.931   9.114   2.402
76194SOL    HW230480  13.911   9.263   2.419
76195SOL     OW30481   6.197   8.718   6.148
76195SOL    HW130482   6.262   8.706   6.078
76195SOL    HW230483   6.163   8.631   6.164
76196SOL     OW30484   9.218  12.587   3.615
76196SOL    HW130485   9.217  12.679   3.591
76196SOL    HW230486   9.175  12.542   3.543
76197SOL     OW30487  12.172   0.939   2.841
76197SOL    HW130488  12.204   0.849   2.849
76197SOL    HW230489  12.114   0.937   2.765
76198SOL     OW30490   6.527   4.312   9.334
76198SOL    HW130491   6.509   4.324   9.241
76198SOL    HW230492   6.621   4.325   9.343
76199SOL     OW30493   6.047   5.613  13.723
76199SOL    HW130494   6.087   5.699  13.729
76199SOL    HW230495   6.108   5.562  13.670
76200SOL     OW30496   9.484   5.988  14.816
76200SOL    HW130497   9.563   5.951  14.777
76200SOL    HW230498   9.427   5.913  14.831
76201SOL     OW30499   2.256   1.540   3.462
76201SOL    HW130500   2.174   1.499   3.489
76201SOL    HW230501   2.295   1.478   3.401
76202SOL     OW30502   6.138   0.053  13.182
76202SOL    HW130503   6.147  14.841  13.156
76202SOL    HW230504   6.050   0.060  13.218
76203SOL     OW30505   0.674  13.667   4.649
76203SOL    HW130506   0.759  13.626   4.633
76203SOL    HW230507   0.664  13.663   4.745
76204SOL     OW30508   6.703  10.017  12.547
76204SOL    HW130509   6.765   9.976  12.486
76204SOL    HW230510   6.617  10.001  12.508
76205SOL     OW30511   5.838   1.856   6.762
76205SOL    HW130512   5.903   1.812   6.818
76205SOL    HW230513   5.787   1.784   6.725
76206SOL     OW30514   2.853   7.628   2.767
76206SOL    HW130515   2.761   7.630   2.742
76206SOL    HW230516   2.874   7.535   2.775
76207SOL     OW30517  11.282   5.699   7.489
76207SOL    HW130518  11.345   5.632   7.518
76207SOL    HW230519  11.334   5.778   7.480
76208SOL     OW30520   5.202   9.531  10.299
76208SOL    HW130521   5.239   9.619  10.299
76208SOL    HW230522   5.231   9.492  10.216
76209SOL     OW30523  12.047  10.593   4.176
76209SOL    HW130524  11.987  10.666   4.192
76209SOL    HW230525  11.991  10.515   4.178
76210SOL     OW30526  11.811   4.357  11.043
76210SOL    HW130527  11.732   4.371  10.991
76210SOL    HW230528  11.854   4.442  11.045
76211SOL     OW30529  12.708  13.924   6.227
76211SOL    HW130530  12.780  13.957   6.172
76211SOL    HW230531  12.637  13.987   6.213
76212SOL     OW30532   2.304   2.860   8.199
76212SOL    HW130533   2.249   2.784   8.186
76212SOL    HW230534   2.359   2.864   8.121
76213SOL     OW30535   6.771   8.981  12.887
76213SOL    HW130536   6.676   8.971  12.884
76213SOL    HW230537   6.787   9.068  12.850
76214SOL     OW30538   8.503  12.657  14.149
76214SOL    HW130539   8.481  12.721  14.082
76214SOL    HW230540   8.498  12.705  14.231
76215SOL     OW30541   1.332   0.298   3.656
76215SOL    HW130542   1.370   0.340   3.733
76215SOL    HW230543   1.260   0.245   3.691
76216SOL     OW30544  13.442  12.500   3.259
76216SOL    HW130545  13.414  12.588   3.234
76216SOL    HW230546  13.381  12.473   3.327
76217SOL     OW30547   3.741   5.875   3.801
76217SOL    HW130548   3.716   5.959   3.763
76217SOL    HW230549   3.688   5.869   3.881
76218SOL     OW30550  12.989   0.312   9.114
76218SOL    HW130551  12.953   0.323   9.202
76218SOL    HW230552  13.008   0.401   9.084
76219SOL     OW30553   2.474   8.373   5.889
76219SOL    HW130554   2.486   8.371   5.983
76219SOL    HW230555   2.388   8.415   5.877
76220SOL     OW30556  11.243   3.191   0.267
76220SOL    HW130557  11.302   3.133   0.314
76220SOL    HW230558  11.187   3.228   0.335
76221SOL     OW30559  14.600   4.005   2.804
76221SOL    HW130560  14.584   3.932   2.863
76221SOL    HW230561  14.544   4.075   2.837
76222SOL     OW30562   1.328   8.103   1.841
76222SOL    HW130563   1.355   8.024   1.889
76222SOL    HW230564   1.279   8.154   1.905
76223SOL     OW30565   1.454   8.764   6.941
76223SOL    HW130566   1.405   8.735   6.864
76223SOL    HW230567   1.535   8.713   6.939
76224SOL     OW30568  13.445  10.985   5.914
76224SOL    HW130569  13.433  10.992   5.819
76224SOL    HW230570  13.508  10.915   5.925
76225SOL     OW30571  13.135  14.811  12.562
76225SOL    HW130572  13.129  14.731  12.614
76225SOL    HW230573  13.048  14.851  12.570
76226SOL     OW30574   8.580   9.970  11.012
76226SOL    HW130575   8.676   9.976  11.011
76226SOL    HW230576   8.550  10.059  11.027
76227SOL     OW30577   9.339  12.618   9.108
76227SOL    HW130578   9.257  12.579   9.077
76227SOL    HW230579   9.319  12.711   9.119
76228SOL     OW30580  13.523  12.455   4.505
76228SOL    HW130581  13.557  12.502   4.429
76228SOL    HW230582  13.477  12.521   4.556
76229SOL     OW30583   8.801   2.373   1.744
76229SOL    HW130584   8.736   2.391   1.812
76229SOL    HW230585   8.812   2.457   1.699
76230SOL     OW30586   3.973  11.325   4.977
76230SOL    HW130587   4.033  11.391   4.942
76230SOL    HW230588   3.886  11.364   4.967
76231SOL     OW30589  13.223   2.301   7.338
76231SOL    HW130590  13.263   2.388   7.338
76231SOL    HW230591  13.297   2.240   7.343
76232SOL     OW30592   9.300   7.503   4.477
76232SOL    HW130593   9.308   7.557   4.556
76232SOL    HW230594   9.318   7.414   4.509
76233SOL     OW30595  10.852   5.247   0.131
76233SOL    HW130596  10.870   5.155   0.111
76233SOL    HW230597  10.891   5.296   0.058
76234SOL     OW30598   2.948  12.330  11.364
76234SOL    HW130599   2.855  12.349  11.353
76234SOL    HW230600   2.985  12.338  11.276
76235SOL     OW30601  14.191  10.923   2.363
76235SOL    HW130602  14.261  10.938   2.299
76235SOL    HW230603  14.229  10.862   2.426
76236SOL     OW30604   2.987   8.234  14.259
76236SOL    HW130605   2.904   8.220  14.213
76236SOL    HW230606   2.981   8.324  14.292
76237SOL     OW30607   6.340   0.931  13.015
76237SOL    HW130608   6.312   0.966  13.099
76237SOL    HW230609   6.334   0.836  13.025
76238SOL     OW30610   5.350  13.164   8.954
76238SOL    HW130611   5.366  13.075   8.923
76238SOL    HW230612   5.405  13.220   8.899
76239SOL     OW30613   7.998   1.173  13.231
76239SOL    HW130614   8.029   1.143  13.317
76239SOL    HW230615   8.052   1.125  13.168
76240SOL     OW30616  14.787  13.768   3.548
76240SOL    HW130617  14.691  13.772   3.545
76240SOL    HW230618  14.808  13.683   3.511
76241SOL     OW30619  10.837  10.280   7.237
76241SOL    HW130620  10.931  10.294   7.252
76241SOL    HW230621  10.832  10.197   7.191
76242SOL     OW30622   6.651   6.535   7.490
76242SOL    HW130623   6.709   6.566   7.560
76242SOL    HW230624   6.628   6.614   7.442
76243SOL     OW30625   1.742  12.721  10.520
76243SOL    HW130626   1.712  12.630  10.517
76243SOL    HW230627   1.701  12.758  10.598
76244SOL     OW30628   7.517  11.035  14.773
76244SOL    HW130629   7.561  11.120  14.767
76244SOL    HW230630   7.559  10.981  14.707
76245SOL     OW30631   3.376   9.799   4.735
76245SOL    HW130632   3.343   9.764   4.817
76245SOL    HW230633   3.306   9.783   4.672
76246SOL     OW30634  12.432   4.914  10.670
76246SOL    HW130635  12.480   4.880  10.746
76246SOL    HW230636  12.410   5.004  10.694
76247SOL     OW30637  11.522   7.763   7.215
76247SOL    HW130638  11.499   7.788   7.126
76247SOL    HW230639  11.476   7.827   7.270
76248SOL     OW30640   4.811   7.301  14.512
76248SOL    HW130641   4.836   7.235  14.448
76248SOL    HW230642   4.768   7.252  14.582
76249SOL     OW30643   8.496   1.674   0.311
76249SOL    HW130644   8.478   1.688   0.404
76249SOL    HW230645   8.416   1.635   0.277
76250SOL     OW30646  11.909   2.693  12.406
76250SOL    HW130647  11.815   2.715  12.409
76250SOL    HW230648  11.930   2.692  12.313
76251SOL     OW30649  14.688   9.764  14.479
76251SOL    HW130650  14.679   9.824  14.405
76251SOL    HW230651  14.768   9.715  14.460
76252SOL     OW30652   0.252  11.726   6.698
76252SOL    HW130653   0.347  11.723   6.693
76252SOL    HW230654   0.233  11.806   6.746
76253SOL     OW30655   8.867  13.652  14.299
76253SOL    HW130656   8.960  13.669  14.282
76253SOL    HW230657   8.845  13.579  14.241
76254SOL     OW30658   3.696   9.227   2.408
76254SOL    HW130659   3.657   9.314   2.399
76254SOL    HW230660   3.773   9.229   2.351
76255SOL     OW30661  14.713   7.828   3.768
76255SOL    HW130662  14.661   7.838   3.848
76255SOL    HW230663  14.686   7.744   3.732
76256SOL     OW30664   4.521   4.653  13.499
76256SOL    HW130665   4.497   4.745  13.512
76256SOL    HW230666   4.471   4.605  13.565
76257SOL     OW30667   5.126   6.669   0.593
76257SOL    HW130668   5.103   6.584   0.557
76257SOL    HW230669   5.099   6.732   0.525
76258SOL     OW30670  14.408   4.169  14.813
76258SOL    HW130671  14.490   4.179  14.861
76258SOL    HW230672  14.434   4.134  14.728
76259SOL     OW30673   3.251   0.901   0.429
76259SOL    HW130674   3.244   0.944   0.514
76259SOL    HW230675   3.238   0.808   0.448
76260SOL     OW30676   7.643   6.029  13.761
76260SOL    HW130677   7.589   6.010  13.838
76260SOL    HW230678   7.582   6.066  13.697
76261SOL     OW30679   1.738  11.514   7.169
76261SOL    HW130680   1.754  11.422   7.149
76261SOL    HW230681   1.812  11.540   7.224
76262SOL     OW30682   9.979  11.979   3.153
76262SOL    HW130683  10.038  11.957   3.081
76262SOL    HW230684  10.030  11.964   3.232
76263SOL     OW30685  12.465   9.905   8.745
76263SOL    HW130686  12.426   9.900   8.658
76263SOL    HW230687  12.511   9.821   8.756
76264SOL     OW30688   8.274   7.415   8.951
76264SOL    HW130689   8.265   7.500   8.994
76264SOL    HW230690   8.262   7.351   9.022
76265SOL     OW30691  10.617  13.099  10.468
76265SOL    HW130692  10.664  13.015  10.464
76265SOL    HW230693  10.622  13.133  10.379
76266SOL     OW30694  14.086   7.014   6.720
76266SOL    HW130695  14.015   6.980   6.775
76266SOL    HW230696  14.145   7.058   6.782
76267SOL     OW30697   5.405  11.630  13.238
76267SOL    HW130698   5.399  11.716  13.197
76267SOL    HW230699   5.441  11.646  13.325
76268SOL     OW30700   8.953   8.392   5.084
76268SOL    HW130701   8.894   8.411   5.012
76268SOL    HW230702   8.952   8.297   5.091
76269SOL     OW30703   3.902  12.528   1.740
76269SOL    HW130704   3.868  12.464   1.802
76269SOL    HW230705   3.886  12.489   1.654
76270SOL     OW30706  10.988  13.985   4.478
76270SOL    HW130707  11.061  13.968   4.538
76270SOL    HW230708  10.999  14.076   4.453
76271SOL     OW30709   1.583   1.949   7.119
76271SOL    HW130710   1.494   1.959   7.153
76271SOL    HW230711   1.595   2.024   7.061
76272SOL     OW30712   6.365  12.140  11.339
76272SOL    HW130713   6.383  12.079  11.267
76272SOL    HW230714   6.336  12.220  11.296
76273SOL     OW30715  10.405   4.248  13.733
76273SOL    HW130716  10.320   4.273  13.769
76273SOL    HW230717  10.410   4.292  13.648
76274SOL     OW30718   7.312   9.755   8.783
76274SOL    HW130719   7.284   9.739   8.873
76274SOL    HW230720   7.355   9.673   8.757
76275SOL     OW30721   2.850  12.961   2.860
76275SOL    HW130722   2.832  12.888   2.801
76275SOL    HW230723   2.785  12.952   2.930
76276SOL     OW30724   3.595  11.819  11.046
76276SOL    HW130725   3.510  11.777  11.033
76276SOL    HW230726   3.645  11.797  10.967
76277SOL     OW30727   5.326   7.209   9.774
76277SOL    HW130728   5.410   7.252   9.756
76277SOL    HW230729   5.329   7.128   9.723
76278SOL     OW30730   4.364  14.089  13.426
76278SOL    HW130731   4.394  14.006  13.389
76278SOL    HW230732   4.343  14.143  13.351
76279SOL     OW30733   2.080  10.983   0.305
76279SOL    HW130734   2.095  10.994   0.211
76279SOL    HW230735   1.986  10.972   0.313
76280SOL     OW30736   5.811  14.328   1.952
76280SOL    HW130737   5.848  14.337   2.040
76280SOL    HW230738   5.761  14.246   1.955
76281SOL     OW30739   8.218  11.411   4.974
76281SOL    HW130740   8.128  11.381   4.976
76281SOL    HW230741   8.221  11.473   4.901
76282SOL     OW30742   2.275  10.746   1.050
76282SOL    HW130743   2.244  10.772   0.963
76282SOL    HW230744   2.360  10.706   1.034
76283SOL     OW30745   6.249  11.693   6.177
76283SOL    HW130746   6.189  11.627   6.143
76283SOL    HW230747   6.198  11.741   6.242
76284SOL     OW30748   2.220   4.630   9.398
76284SOL    HW130749   2.221   4.575   9.320
76284SOL    HW230750   2.311   4.656   9.410
76285SOL     OW30751  13.119   5.177   7.085
76285SOL    HW130752  13.160   5.091   7.082
76285SOL    HW230753  13.033   5.161   7.124
76286SOL     OW30754  13.804   0.957   5.955
76286SOL    HW130755  13.899   0.971   5.952
76286SOL    HW230756  13.780   0.979   6.045
76287SOL     OW30757   1.109   0.908   6.318
76287SOL    HW130758   1.085   0.883   6.407
76287SOL    HW230759   1.066   0.992   6.303
76288SOL     OW30760   3.498  13.405   4.396
76288SOL    HW130761   3.556  13.346   4.444
76288SOL    HW230762   3.556  13.454   4.338
76289SOL     OW30763   9.858   0.747   9.696
76289SOL    HW130764   9.810   0.799   9.760
76289SOL    HW230765   9.878   0.665   9.741
76290SOL     OW30766   1.784   9.300  11.010
76290SOL    HW130767   1.846   9.279  10.941
76290SOL    HW230768   1.773   9.218  11.059
76291SOL     OW30769   8.795   2.079   4.503
76291SOL    HW130770   8.812   2.171   4.522
76291SOL    HW230771   8.852   2.058   4.429
76292SOL     OW30772  10.256   8.194   7.302
76292SOL    HW130773  10.269   8.212   7.395
76292SOL    HW230774  10.313   8.120   7.283
76293SOL     OW30775   8.177   5.270   3.740
76293SOL    HW130776   8.193   5.311   3.824
76293SOL    HW230777   8.187   5.341   3.676
76294SOL     OW30778   0.963   4.575   8.320
76294SOL    HW130779   1.056   4.570   8.297
76294SOL    HW230780   0.939   4.485   8.342
76295SOL     OW30781   5.419  11.840  12.840
76295SOL    HW130782   5.331  11.848  12.805
76295SOL    HW230783   5.423  11.752  12.877
76296SOL     OW30784   0.433   5.058   9.155
76296SOL    HW130785   0.508   5.045   9.096
76296SOL    HW230786   0.359   5.022   9.107
76297SOL     OW30787   4.323   1.437   7.994
76297SOL    HW130788   4.254   1.378   7.966
76297SOL    HW230789   4.285   1.525   7.987
76298SOL     OW30790  11.619   0.587   7.160
76298SOL    HW130791  11.618   0.641   7.081
76298SOL    HW230792  11.696   0.616   7.208
76299SOL     OW30793   9.725  12.534   0.768
76299SOL    HW130794   9.800  12.484   0.799
76299SOL    HW230795   9.665  12.469   0.732
76300SOL     OW30796   1.378   6.817  12.123
76300SOL    HW130797   1.456   6.763  12.133
76300SOL    HW230798   1.316   6.781  12.186
76301SOL     OW30799   5.701   9.043   6.191
76301SOL    HW130800   5.614   9.065   6.158
76301SOL    HW230801   5.758   9.110   6.152
76302SOL     OW30802   9.889  12.860   8.762
76302SOL    HW130803   9.979  12.880   8.787
76302SOL    HW230804   9.854  12.812   8.837
76303SOL     OW30805   7.269   2.410   8.809
76303SOL    HW130806   7.175   2.405   8.791
76303SOL    HW230807   7.276   2.404   8.904
76304SOL     OW30808   8.766   9.522  10.501
76304SOL    HW130809   8.839   9.575  10.470
76304SOL    HW230810   8.757   9.544  10.593
76305SOL     OW30811   1.910   2.921  12.330
76305SOL    HW130812   1.852   2.848  12.308
76305SOL    HW230813   1.936   2.905  12.420
76306SOL     OW30814   7.593   3.757  11.804
76306SOL    HW130815   7.535   3.681  11.813
76306SOL    HW230816   7.602   3.791  11.892
76307SOL     OW30817   8.088   8.509  13.101
76307SOL    HW130818   8.034   8.482  13.175
76307SOL    HW230819   8.136   8.430  13.076
76308SOL     OW30820  10.195   5.526  13.390
76308SOL    HW130821  10.281   5.533  13.349
76308SOL    HW230822  10.139   5.489  13.323
76309SOL     OW30823   6.145   2.361   1.379
76309SOL    HW130824   6.069   2.335   1.431
76309SOL    HW230825   6.132   2.317   1.294
76310SOL     OW30826   4.697  10.953   6.377
76310SOL    HW130827   4.781  10.984   6.412
76310SOL    HW230828   4.633  11.014   6.411
76311SOL     OW30829  14.862  10.667   3.626
76311SOL    HW130830  14.773  10.634   3.619
76311SOL    HW230831   0.031  10.619   3.559
76312SOL     OW30832   3.872  11.578  11.912
76312SOL    HW130833   3.848  11.516  11.843
76312SOL    HW230834   3.812  11.558  11.984
76313SOL     OW30835   3.120   2.206   6.368
76313SOL    HW130836   3.110   2.113   6.389
76313SOL    HW230837   3.206   2.212   6.327
76314SOL     OW30838  13.065   5.571   7.774
76314SOL    HW130839  12.972   5.580   7.796
76314SOL    HW230840  13.067   5.502   7.708
76315SOL     OW30841   5.976   7.843  13.841
76315SOL    HW130842   6.045   7.910  13.837
76315SOL    HW230843   5.962   7.829  13.935
76316SOL     OW30844   7.189  10.587   6.040
76316SOL    HW130845   7.129  10.514   6.024
76316SOL    HW230846   7.214  10.578   6.132
76317SOL     OW30847  13.598  13.759   7.356
76317SOL    HW130848  13.507  13.733   7.371
76317SOL    HW230849  13.621  13.810   7.434
76318SOL     OW30850   8.245   1.416  13.817
76318SOL    HW130851   8.264   1.483  13.883
76318SOL    HW230852   8.191   1.461  13.753
76319SOL     OW30853   1.162  10.579   4.169
76319SOL    HW130854   1.080  10.574   4.218
76319SOL    HW230855   1.151  10.655   4.112
76320SOL     OW30856   5.711   3.286   3.519
76320SOL    HW130857   5.634   3.324   3.561
76320SOL    HW230858   5.675   3.218   3.461
76321SOL     OW30859  12.946   4.837   4.550
76321SOL    HW130860  12.949   4.928   4.521
76321SOL    HW230861  12.965   4.785   4.472
76322SOL     OW30862  10.634   2.714   8.858
76322SOL    HW130863  10.566   2.762   8.905
76322SOL    HW230864  10.596   2.627   8.842
76323SOL     OW30865   7.649   1.008   9.863
76323SOL    HW130866   7.667   0.971   9.777
76323SOL    HW230867   7.556   1.028   9.863
76324SOL     OW30868  14.729  12.320   3.456
76324SOL    HW130869  14.711  12.244   3.400
76324SOL    HW230870  14.682  12.392   3.415
76325SOL     OW30871   4.430   0.563   3.813
76325SOL    HW130872   4.491   0.489   3.811
76325SOL    HW230873   4.484   0.639   3.795
76326SOL     OW30874  13.963   4.769  13.892
76326SOL    HW130875  14.047   4.815  13.885
76326SOL    HW230876  13.922   4.780  13.807
76327SOL     OW30877  13.453   6.673   0.789
76327SOL    HW130878  13.427   6.645   0.702
76327SOL    HW230879  13.450   6.769   0.785
76328SOL     OW30880  10.406   7.541   2.102
76328SOL    HW130881  10.407   7.507   2.191
76328SOL    HW230882  10.320   7.517   2.068
76329SOL     OW30883   0.645   9.488   9.955
76329SOL    HW130884   0.689   9.465  10.037
76329SOL    HW230885   0.621   9.404   9.917
76330SOL     OW30886  11.631   3.522   4.832
76330SOL    HW130887  11.705   3.490   4.884
76330SOL    HW230888  11.657   3.504   4.741
76331SOL     OW30889   2.083   2.002   0.574
76331SOL    HW130890   2.068   1.908   0.570
76331SOL    HW230891   2.093   2.029   0.483
76332SOL     OW30892   6.490   3.034   0.417
76332SOL    HW130893   6.427   3.093   0.374
76332SOL    HW230894   6.521   3.083   0.493
76333SOL     OW30895   9.232   1.760   1.362
76333SOL    HW130896   9.166   1.820   1.398
76333SOL    HW230897   9.272   1.720   1.440
76334SOL     OW30898   4.490   8.069   9.061
76334SOL    HW130899   4.551   8.142   9.060
76334SOL    HW230900   4.518   8.013   8.989
76335SOL     OW30901  12.414  12.715  12.462
76335SOL    HW130902  12.485  12.726  12.526
76335SOL    HW230903  12.349  12.661  12.507
76336SOL     OW30904  10.474   1.338  11.330
76336SOL    HW130905  10.558   1.293  11.345
76336SOL    HW230906  10.453   1.321  11.239
76337SOL     OW30907   0.925  12.842  12.180
76337SOL    HW130908   0.995  12.894  12.140
76337SOL    HW230909   0.970  12.789  12.246
76338SOL     OW30910   4.774   1.091   4.954
76338SOL    HW130911   4.784   1.173   5.002
76338SOL    HW230912   4.740   1.117   4.869
76339SOL     OW30913   9.330  11.283   3.724
76339SOL    HW130914   9.276  11.329   3.660
76339SOL    HW230915   9.305  11.191   3.716
76340SOL     OW30916   6.606  11.023   2.176
76340SOL    HW130917   6.601  11.118   2.193
76340SOL    HW230918   6.527  10.988   2.217
76341SOL     OW30919   1.921   1.709   3.683
76341SOL    HW130920   1.907   1.721   3.777
76341SOL    HW230921   1.834   1.718   3.645
76342SOL     OW30922   1.784   3.035   4.394
76342SOL    HW130923   1.807   3.076   4.477
76342SOL    HW230924   1.691   3.013   4.403
76343SOL     OW30925  11.956   4.760   4.298
76343SOL    HW130926  11.975   4.678   4.252
76343SOL    HW230927  12.002   4.752   4.381
76344SOL     OW30928   9.562   2.491   6.019
76344SOL    HW130929   9.471   2.478   5.990
76344SOL    HW230930   9.555   2.510   6.112
76345SOL     OW30931   8.900   4.414   4.287
76345SOL    HW130932   8.960   4.340   4.284
76345SOL    HW230933   8.819   4.381   4.248
76346SOL     OW30934   4.739  14.480  10.480
76346SOL    HW130935   4.743  14.400  10.427
76346SOL    HW230936   4.807  14.536  10.444
76347SOL     OW30937   8.230   4.155   0.446
76347SOL    HW130938   8.150   4.205   0.431
76347SOL    HW230939   8.242   4.156   0.541
76348SOL     OW30940   6.300   4.429   6.921
76348SOL    HW130941   6.296   4.404   7.013
76348SOL    HW230942   6.255   4.359   6.875
76349SOL     OW30943  13.615  13.405  11.122
76349SOL    HW130944  13.643  13.473  11.062
76349SOL    HW230945  13.539  13.442  11.167
76350SOL     OW30946   2.874   3.439   7.873
76350SOL    HW130947   2.898   3.390   7.951
76350SOL    HW230948   2.930   3.517   7.876
76351SOL     OW30949   2.994   8.005   9.942
76351SOL    HW130950   2.976   7.923   9.895
76351SOL    HW230951   3.025   7.977  10.028
76352SOL     OW30952   6.135   5.795   7.244
76352SOL    HW130953   6.123   5.762   7.334
76352SOL    HW230954   6.211   5.747   7.211
76353SOL     OW30955  11.354   8.137   4.595
76353SOL    HW130956  11.348   8.044   4.619
76353SOL    HW230957  11.298   8.146   4.519
76354SOL     OW30958   7.069   4.368   7.601
76354SOL    HW130959   7.157   4.342   7.572
76354SOL    HW230960   7.037   4.425   7.531
76355SOL     OW30961  12.103   4.742   7.075
76355SOL    HW130962  12.087   4.820   7.128
76355SOL    HW230963  12.087   4.770   6.985
76356SOL     OW30964  11.746  13.779  14.060
76356SOL    HW130965  11.679  13.797  14.126
76356SOL    HW230966  11.699  13.779  13.977
76357SOL     OW30967   1.786   4.482   4.350
76357SOL    HW130968   1.805   4.469   4.443
76357SOL    HW230969   1.769   4.576   4.342
76358SOL     OW30970  12.218  10.714  11.787
76358SOL    HW130971  12.308  10.728  11.815
76358SOL    HW230972  12.225  10.688  11.695
76359SOL     OW30973   5.077   0.842   8.061
76359SOL    HW130974   5.033   0.899   8.124
76359SOL    HW230975   5.134   0.901   8.011
76360SOL     OW30976   6.925  10.310  13.352
76360SOL    HW130977   6.873  10.233  13.373
76360SOL    HW230978   6.920  10.318  13.256
76361SOL     OW30979  14.063   6.191   8.295
76361SOL    HW130980  13.983   6.153   8.331
76361SOL    HW230981  14.051   6.286   8.306
76362SOL     OW30982  14.470  11.679  12.940
76362SOL    HW130983  14.464  11.601  12.995
76362SOL    HW230984  14.430  11.653  12.856
76363SOL     OW30985   7.506  10.478  10.516
76363SOL    HW130986   7.501  10.447  10.606
76363SOL    HW230987   7.593  10.518  10.509
76364SOL     OW30988  13.112   9.581   2.552
76364SOL    HW130989  13.198   9.598   2.515
76364SOL    HW230990  13.120   9.494   2.592
76365SOL     OW30991   5.048   3.344   1.343
76365SOL    HW130992   4.981   3.364   1.409
76365SOL    HW230993   5.050   3.248   1.340
76366SOL     OW30994  13.563   1.761  13.436
76366SOL    HW130995  13.630   1.734  13.498
76366SOL    HW230996  13.583   1.852  13.415
76367SOL     OW30997   5.551   1.130  11.997
76367SOL    HW130998   5.564   1.224  12.008
76367SOL    HW230999   5.639   1.093  11.998
76368SOL     OW31000  11.057  11.244   5.951
76368SOL    HW131001  11.024  11.154   5.955
76368SOL    HW231002  11.110  11.253   6.030
76369SOL     OW31003   5.113  11.135   1.095
76369SOL    HW131004   5.173  11.062   1.077
76369SOL    HW231005   5.026  11.097   1.086
76370SOL     OW31006  13.829   2.800   4.941
76370SOL    HW131007  13.865   2.724   4.986
76370SOL    HW231008  13.767   2.763   4.878
76371SOL     OW31009   5.051   1.058  13.448
76371SOL    HW131010   5.108   0.981  13.458
76371SOL    HW231011   5.043   1.069  13.353
76372SOL     OW31012  14.238   2.327   0.334
76372SOL    HW131013  14.183   2.365   0.403
76372SOL    HW231014  14.300   2.272   0.381
76373SOL     OW31015   9.262   4.368   8.420
76373SOL    HW131016   9.213   4.414   8.488
76373SOL    HW231017   9.250   4.275   8.439
76374SOL     OW31018  10.806   3.109  10.951
76374SOL    HW131019  10.721   3.077  10.920
76374SOL    HW231020  10.785   3.190  10.997
76375SOL     OW31021  10.845   8.902   7.561
76375SOL    HW131022  10.858   8.960   7.636
76375SOL    HW231023  10.910   8.931   7.497
76376SOL     OW31024   6.631  13.162   0.196
76376SOL    HW131025   6.700  13.189   0.257
76376SOL    HW231026   6.551  13.159   0.249
76377SOL     OW31027   1.058  10.455   6.213
76377SOL    HW131028   1.106  10.490   6.138
76377SOL    HW231029   0.979  10.508   6.218
76378SOL     OW31030  13.143   0.833   1.727
76378SOL    HW131031  13.111   0.830   1.637
76378SOL    HW231032  13.196   0.754   1.737
76379SOL     OW31033  13.160   5.405  11.187
76379SOL    HW131034  13.191   5.414  11.277
76379SOL    HW231035  13.107   5.484  11.172
76380SOL     OW31036  12.552  13.926   5.862
76380SOL    HW131037  12.599  13.884   5.791
76380SOL    HW231038  12.585  14.015   5.864
76381SOL     OW31039   0.469  14.291  14.654
76381SOL    HW131040   0.511  14.374  14.677
76381SOL    HW231041   0.455  14.247  14.737
76382SOL     OW31042   5.326   3.969   4.812
76382SOL    HW131043   5.412   3.961   4.854
76382SOL    HW231044   5.292   3.880   4.810
76383SOL     OW31045   3.289   7.584  10.598
76383SOL    HW131046   3.239   7.622  10.671
76383SOL    HW231047   3.225   7.534  10.548
76384SOL     OW31048   1.878   0.022   2.172
76384SOL    HW131049   1.925   0.106   2.169
76384SOL    HW231050   1.878  14.871   2.081
76385SOL     OW31051   0.525  12.629   2.957
76385SOL    HW131052   0.522  12.533   2.966
76385SOL    HW231053   0.618  12.649   2.953
76386SOL     OW31054   4.346   0.611   6.555
76386SOL    HW131055   4.431   0.645   6.583
76386SOL    HW231056   4.283   0.659   6.609
76387SOL     OW31057   2.430   2.123   9.598
76387SOL    HW131058   2.418   2.034   9.630
76387SOL    HW231059   2.508   2.155   9.643
76388SOL     OW31060   6.340  11.967   1.486
76388SOL    HW131061   6.352  12.052   1.445
76388SOL    HW231062   6.347  11.905   1.413
76389SOL     OW31063   6.056   7.656   5.975
76389SOL    HW131064   6.130   7.709   6.005
76389SOL    HW231065   5.982   7.716   5.972
76390SOL     OW31066   3.175   9.741  13.776
76390SOL    HW131067   3.267   9.751  13.752
76390SOL    HW231068   3.127   9.760  13.696
76391SOL     OW31069  13.107  10.571   5.902
76391SOL    HW131070  13.107  10.655   5.857
76391SOL    HW231071  13.143  10.509   5.839
76392SOL     OW31072   5.051   6.089  12.322
76392SOL    HW131073   5.032   6.174  12.361
76392SOL    HW231074   5.058   6.030  12.397
76393SOL     OW31075   2.306  12.507   1.922
76393SOL    HW131076   2.253  12.429   1.908
76393SOL    HW231077   2.327  12.505   2.016
76394SOL     OW31078   0.098   8.633   4.927
76394SOL    HW131079   0.078   8.568   4.859
76394SOL    HW231080   0.091   8.717   4.883
76395SOL     OW31081  12.482   7.868   3.538
76395SOL    HW131082  12.437   7.952   3.532
76395SOL    HW231083  12.414   7.807   3.565
76396SOL     OW31084   2.742  13.317  13.214
76396SOL    HW131085   2.698  13.350  13.135
76396SOL    HW231086   2.743  13.222  13.203
76397SOL     OW31087   3.679   5.267   4.816
76397SOL    HW131088   3.657   5.235   4.729
76397SOL    HW231089   3.746   5.334   4.801
76398SOL     OW31090   0.784  13.702  12.025
76398SOL    HW131091   0.838  13.672  12.098
76398SOL    HW231092   0.805  13.643  11.953
76399SOL     OW31093   3.887  11.675   3.161
76399SOL    HW131094   3.850  11.754   3.121
76399SOL    HW231095   3.981  11.683   3.149
76400SOL     OW31096   6.075   4.246   8.854
76400SOL    HW131097   5.994   4.295   8.863
76400SOL    HW231098   6.085   4.233   8.759
76401SOL     OW31099   2.865   4.318  12.175
76401SOL    HW131100   2.843   4.236  12.221
76401SOL    HW231101   2.865   4.385  12.244
76402SOL     OW31102  10.847  12.903   2.604
76402SOL    HW131103  10.869  12.890   2.696
76402SOL    HW231104  10.894  12.834   2.558
76403SOL     OW31105   9.713   2.502  12.501
76403SOL    HW131106   9.764   2.479  12.579
76403SOL    HW231107   9.693   2.418  12.461
76404SOL     OW31108   7.497   3.144   0.720
76404SOL    HW131109   7.511   3.199   0.643
76404SOL    HW231110   7.473   3.058   0.685
76405SOL     OW31111   8.337   2.004  12.433
76405SOL    HW131112   8.334   1.922  12.481
76405SOL    HW231113   8.420   2.001  12.385
76406SOL     OW31114   2.167   0.414  11.339
76406SOL    HW131115   2.117   0.366  11.405
76406SOL    HW231116   2.209   0.346  11.287
76407SOL     OW31117  12.812  12.629  13.821
76407SOL    HW131118  12.799  12.719  13.790
76407SOL    HW231119  12.827  12.579  13.741
76408SOL     OW31120   3.131   4.566   6.753
76408SOL    HW131121   3.058   4.526   6.705
76408SOL    HW231122   3.190   4.494   6.773
76409SOL     OW31123   7.425   9.861   3.361
76409SOL    HW131124   7.498   9.813   3.321
76409SOL    HW231125   7.463   9.907   3.435
76410SOL     OW31126  11.531  11.907   1.431
76410SOL    HW131127  11.439  11.922   1.453
76410SOL    HW231128  11.577  11.917   1.514
76411SOL     OW31129  10.502   1.681   6.341
76411SOL    HW131130  10.464   1.750   6.285
76411SOL    HW231131  10.446   1.605   6.326
76412SOL     OW31132   6.951  10.857  11.549
76412SOL    HW131133   6.879  10.806  11.587
76412SOL    HW231134   6.931  10.948  11.573
76413SOL     OW31135  10.097   1.248   6.520
76413SOL    HW131136  10.126   1.161   6.546
76413SOL    HW231137  10.072   1.291   6.602
76414SOL     OW31138   6.097   8.606   2.079
76414SOL    HW131139   6.125   8.552   2.005
76414SOL    HW231140   6.144   8.689   2.066
76415SOL     OW31141   6.549   6.877   5.534
76415SOL    HW131142   6.631   6.894   5.579
76415SOL    HW231143   6.503   6.961   5.533
76416SOL     OW31144   9.391  10.733   7.128
76416SOL    HW131145   9.367  10.653   7.081
76416SOL    HW231146   9.452  10.778   7.069
76417SOL     OW31147  10.868  11.030   9.617
76417SOL    HW131148  10.775  11.041   9.596
76417SOL    HW231149  10.913  11.085   9.553
76418SOL     OW31150  11.662   9.195   6.338
76418SOL    HW131151  11.699   9.275   6.374
76418SOL    HW231152  11.661   9.210   6.243
76419SOL     OW31153  12.360  11.307  14.223
76419SOL    HW131154  12.430  11.356  14.180
76419SOL    HW231155  12.353  11.347  14.310
76420SOL     OW31156  14.119  10.529  12.303
76420SOL    HW131157  14.204  10.490  12.325
76420SOL    HW231158  14.119  10.614  12.347
76421SOL     OW31159   1.927  14.331   6.530
76421SOL    HW131160   1.843  14.286   6.527
76421SOL    HW231161   1.990  14.267   6.499
76422SOL     OW31162  13.001   8.795  12.150
76422SOL    HW131163  13.001   8.854  12.225
76422SOL    HW231164  13.041   8.715  12.183
76423SOL     OW31165   9.748  11.100   9.177
76423SOL    HW131166   9.704  11.032   9.127
76423SOL    HW231167   9.808  11.052   9.235
76424SOL     OW31168  14.632   0.756   1.580
76424SOL    HW131169  14.634   0.727   1.489
76424SOL    HW231170  14.576   0.833   1.579
76425SOL     OW31171   1.175   4.873   9.025
76425SOL    HW131172   1.209   4.793   9.065
76425SOL    HW231173   1.160   4.932   9.099
76426SOL     OW31174  12.381   9.629   8.914
76426SOL    HW131175  12.341   9.548   8.880
76426SOL    HW231176  12.455   9.645   8.855
76427SOL     OW31177   2.859   9.358   6.244
76427SOL    HW131178   2.837   9.371   6.336
76427SOL    HW231179   2.884   9.446   6.214
76428SOL     OW31180   9.836   5.001   7.238
76428SOL    HW131181   9.827   4.962   7.325
76428SOL    HW231182   9.917   4.964   7.203
76429SOL     OW31183   8.238   3.222   1.428
76429SOL    HW131184   8.163   3.279   1.409
76429SOL    HW231185   8.200   3.135   1.439
76430SOL     OW31186   0.804   9.280   4.964
76430SOL    HW131187   0.770   9.256   5.050
76430SOL    HW231188   0.743   9.347   4.933
76431SOL     OW31189   5.870  14.592   4.962
76431SOL    HW131190   5.781  14.558   4.973
76431SOL    HW231191   5.864  14.653   4.889
76432SOL     OW31192   7.658  14.264   5.311
76432SOL    HW131193   7.653  14.285   5.404
76432SOL    HW231194   7.704  14.180   5.308
76433SOL     OW31195   8.264   4.811   5.651
76433SOL    HW131196   8.338   4.848   5.698
76433SOL    HW231197   8.227   4.884   5.601
76434SOL     OW31198  11.942   6.945  13.538
76434SOL    HW131199  12.022   6.912  13.579
76434SOL    HW231200  11.913   7.016  13.596
76435SOL     OW31201  12.212   7.381   6.017
76435SOL    HW131202  12.228   7.287   6.024
76435SOL    HW231203  12.229   7.415   6.105
76436SOL     OW31204  12.487   4.047  10.727
76436SOL    HW131205  12.458   4.067  10.816
76436SOL    HW231206  12.570   4.094  10.717
76437SOL     OW31207   7.389   6.091   0.263
76437SOL    HW131208   7.438   6.127   0.190
76437SOL    HW231209   7.403   5.996   0.257
76438SOL     OW31210   0.524   3.618   1.060
76438SOL    HW131211   0.534   3.546   0.998
76438SOL    HW231212   0.612   3.657   1.066
76439SOL     OW31213   4.165   6.254  12.948
76439SOL    HW131214   4.086   6.207  12.922
76439SOL    HW231215   4.150   6.345  12.922
76440SOL     OW31216   4.330  11.887   6.092
76440SOL    HW131217   4.404  11.911   6.037
76440SOL    HW231218   4.255  11.934   6.055
76441SOL     OW31219   2.211  14.749   3.747
76441SOL    HW131220   2.237  14.841   3.754
76441SOL    HW231221   2.235  14.710   3.831
76442SOL     OW31222   3.211   7.701  10.210
76442SOL    HW131223   3.306   7.712  10.220
76442SOL    HW231224   3.193   7.615  10.249
76443SOL     OW31225   8.141   0.784  10.353
76443SOL    HW131226   8.109   0.860  10.304
76443SOL    HW231227   8.150   0.715  10.287
76444SOL     OW31228   6.316   4.520   2.955
76444SOL    HW131229   6.320   4.605   3.000
76444SOL    HW231230   6.343   4.457   3.021
76445SOL     OW31231   5.890   7.763   4.175
76445SOL    HW131232   5.964   7.767   4.114
76445SOL    HW231233   5.814   7.747   4.119
76446SOL     OW31234   0.130   6.341   2.368
76446SOL    HW131235   0.152   6.273   2.432
76446SOL    HW231236   0.069   6.399   2.413
76447SOL     OW31237  12.594   9.288  11.065
76447SOL    HW131238  12.532   9.323  11.130
76447SOL    HW231239  12.564   9.198  11.050
76448SOL     OW31240   0.251  13.185   0.238
76448SOL    HW131241   0.171  13.181   0.186
76448SOL    HW231242   0.228  13.142   0.320
76449SOL     OW31243  11.418   3.511  12.679
76449SOL    HW131244  11.421   3.437  12.740
76449SOL    HW231245  11.353   3.570  12.716
76450SOL     OW31246  11.038   9.965   4.443
76450SOL    HW131247  11.120   9.928   4.474
76450SOL    HW231248  10.996   9.893   4.395
76451SOL     OW31249   1.259   7.224   1.592
76451SOL    HW131250   1.277   7.175   1.512
76451SOL    HW231251   1.331   7.287   1.599
76452SOL     OW31252  10.511   1.014   4.370
76452SOL    HW131253  10.580   1.039   4.309
76452SOL    HW231254  10.534   1.055   4.453
76453SOL     OW31255  11.904   0.969   7.178
76453SOL    HW131256  11.836   1.016   7.130
76453SOL    HW231257  11.985   0.993   7.134
76454SOL     OW31258  12.177  11.058  11.758
76454SOL    HW131259  12.089  11.081  11.787
76454SOL    HW231260  12.194  10.972  11.797
76455SOL     OW31261   5.557   2.697  11.524
76455SOL    HW131262   5.577   2.755  11.450
76455SOL    HW231263   5.586   2.746  11.601
76456SOL     OW31264   5.800  13.373   4.372
76456SOL    HW131265   5.706  13.376   4.353
76456SOL    HW231266   5.843  13.395   4.290
76457SOL     OW31267   7.059  11.815   4.420
76457SOL    HW131268   7.104  11.755   4.479
76457SOL    HW231269   7.123  11.834   4.352
76458SOL     OW31270  12.799  11.246  12.147
76458SOL    HW131271  12.825  11.278  12.233
76458SOL    HW231272  12.779  11.153  12.160
76459SOL     OW31273  10.186  11.009   7.778
76459SOL    HW131274  10.189  10.923   7.820
76459SOL    HW231275  10.221  10.994   7.690
76460SOL     OW31276   0.089   2.511   7.330
76460SOL    HW131277   0.075   2.595   7.286
76460SOL    HW231278   0.001   2.473   7.340
76461SOL     OW31279   8.835  10.010   1.934
76461SOL    HW131280   8.899  10.077   1.910
76461SOL    HW231281   8.811   9.969   1.851
76462SOL     OW31282   1.661   4.841  14.538
76462SOL    HW131283   1.644   4.802  14.452
76462SOL    HW231284   1.701   4.771  14.589
76463SOL     OW31285   3.427  14.440   6.123
76463SOL    HW131286   3.350  14.468   6.172
76463SOL    HW231287   3.491  14.509   6.136
76464SOL     OW31288  13.005   1.185  12.589
76464SOL    HW131289  12.953   1.184  12.669
76464SOL    HW231290  12.949   1.142  12.524
76465SOL     OW31291   6.439   3.615  11.968
76465SOL    HW131292   6.491   3.560  11.909
76465SOL    HW231293   6.462   3.584  12.056
76466SOL     OW31294  13.046   6.987   2.662
76466SOL    HW131295  13.061   7.079   2.685
76466SOL    HW231296  12.998   6.951   2.736
76467SOL     OW31297   0.573   3.799  14.478
76467SOL    HW131298   0.532   3.728  14.527
76467SOL    HW231299   0.521   3.876  14.500
76468SOL     OW31300  13.631   1.480   2.516
76468SOL    HW131301  13.709   1.426   2.510
76468SOL    HW231302  13.605   1.496   2.425
76469SOL     OW31303   7.747   0.279   9.494
76469SOL    HW131304   7.814   0.212   9.486
76469SOL    HW231305   7.784   0.343   9.555
76470SOL     OW31306   6.343   4.944   0.822
76470SOL    HW131307   6.424   4.931   0.872
76470SOL    HW231308   6.322   5.037   0.834
76471SOL     OW31309  11.731   6.164  10.222
76471SOL    HW131310  11.795   6.102  10.257
76471SOL    HW231311  11.743   6.160  10.127
76472SOL     OW31312   9.691  14.250   8.778
76472SOL    HW131313   9.684  14.317   8.846
76472SOL    HW231314   9.717  14.171   8.825
76473SOL     OW31315   3.899   7.072  12.134
76473SOL    HW131316   3.861   7.155  12.161
76473SOL    HW231317   3.967   7.054  12.200
76474SOL     OW31318   1.132   8.262   0.918
76474SOL    HW131319   1.208   8.271   0.975
76474SOL    HW231320   1.145   8.330   0.851
76475SOL     OW31321   3.372   1.915  13.743
76475SOL    HW131322   3.379   1.867  13.826
76475SOL    HW231323   3.444   1.882  13.690
76476SOL     OW31324   4.637   1.533   1.461
76476SOL    HW131325   4.600   1.579   1.536
76476SOL    HW231326   4.672   1.452   1.497
76477SOL     OW31327  10.319   1.482   0.633
76477SOL    HW131328  10.357   1.516   0.552
76477SOL    HW231329  10.393   1.441   0.679
76478SOL     OW31330  14.458   5.966   3.143
76478SOL    HW131331  14.402   5.949   3.067
76478SOL    HW231332  14.460   6.061   3.151
76479SOL     OW31333  11.211   8.247   9.102
76479SOL    HW131334  11.238   8.171   9.153
76479SOL    HW231335  11.117   8.255   9.116
76480SOL     OW31336  13.767  12.877   8.733
76480SOL    HW131337  13.832  12.897   8.801
76480SOL    HW231338  13.758  12.782   8.735
76481SOL     OW31339  14.782   6.696   6.047
76481SOL    HW131340  14.825   6.612   6.060
76481SOL    HW231341  14.846   6.749   6.000
76482SOL     OW31342   8.440  10.931   2.430
76482SOL    HW131343   8.373  10.881   2.385
76482SOL    HW231344   8.428  10.911   2.523
76483SOL     OW31345   8.187   6.910   0.553
76483SOL    HW131346   8.171   6.816   0.552
76483SOL    HW231347   8.174   6.935   0.645
76484SOL     OW31348   8.247   0.138   9.844
76484SOL    HW131349   8.154   0.163   9.840
76484SOL    HW231350   8.249   0.062   9.902
76485SOL     OW31351   5.263  10.489  10.271
76485SOL    HW131352   5.228  10.400  10.269
76485SOL    HW231353   5.278  10.511  10.180
76486SOL     OW31354   2.349   2.361  14.776
76486SOL    HW131355   2.364   2.273  14.742
76486SOL    HW231356   2.414   2.372  14.845
76487SOL     OW31357   8.424   3.988  12.855
76487SOL    HW131358   8.438   3.990  12.760
76487SOL    HW231359   8.490   4.047  12.890
76488SOL     OW31360   8.167   5.515   7.297
76488SOL    HW131361   8.246   5.566   7.317
76488SOL    HW231362   8.194   5.424   7.306
76489SOL     OW31363  14.791   0.952   7.588
76489SOL    HW131364  14.836   1.036   7.593
76489SOL    HW231365  14.850   0.895   7.539
76490SOL     OW31366   1.095   8.635   1.824
76490SOL    HW131367   1.017   8.632   1.879
76490SOL    HW231368   1.063   8.660   1.737
76491SOL     OW31369  13.299   8.427   2.697
76491SOL    HW131370  13.286   8.337   2.725
76491SOL    HW231371  13.392   8.433   2.677
76492SOL     OW31372  13.575   8.907   2.071
76492SOL    HW131373  13.537   8.944   2.151
76492SOL    HW231374  13.600   8.818   2.096
76493SOL     OW31375  11.393   6.693  14.669
76493SOL    HW131376  11.367   6.773  14.623
76493SOL    HW231377  11.452   6.722  14.738
76494SOL     OW31378   5.777   4.326   0.054
76494SOL    HW131379   5.744   4.411   0.082
76494SOL    HW231380   5.712   4.263   0.087
76495SOL     OW31381   8.602   1.012   8.683
76495SOL    HW131382   8.611   0.930   8.633
76495SOL    HW231383   8.683   1.018   8.733
76496SOL     OW31384  14.071  11.493  13.249
76496SOL    HW131385  14.090  11.572  13.300
76496SOL    HW231386  14.028  11.434  13.310
76497SOL     OW31387   1.958   2.862  10.343
76497SOL    HW131388   1.975   2.953  10.365
76497SOL    HW231389   1.876   2.841  10.387
76498SOL     OW31390  11.069   0.780   5.611
76498SOL    HW131391  11.156   0.819   5.604
76498SOL    HW231392  11.068   0.740   5.698
76499SOL     OW31393  11.560   8.138   5.116
76499SOL    HW131394  11.520   8.225   5.111
76499SOL    HW231395  11.487   8.077   5.115
76500SOL     OW31396  14.208  13.213  11.396
76500SOL    HW131397  14.167  13.132  11.368
76500SOL    HW231398  14.302  13.193  11.397
76501SOL     OW31399  10.019   8.774  14.233
76501SOL    HW131400   9.991   8.794  14.144
76501SOL    HW231401  10.086   8.840  14.253
76502SOL     OW31402   6.986   9.755  14.250
76502SOL    HW131403   6.947   9.670  14.269
76502SOL    HW231404   7.055   9.765  14.316
76503SOL     OW31405   3.254  12.698  10.359
76503SOL    HW131406   3.289  12.786  10.350
76503SOL    HW231407   3.168  12.710  10.399
76504SOL     OW31408  11.106   9.596   6.666
76504SOL    HW131409  11.094   9.506   6.697
76504SOL    HW231410  11.022   9.639   6.685
76505SOL     OW31411   5.168   3.731   4.556
76505SOL    HW131412   5.171   3.645   4.598
76505SOL    HW231413   5.143   3.791   4.627
76506SOL     OW31414  11.329   2.362   6.985
76506SOL    HW131415  11.302   2.376   7.076
76506SOL    HW231416  11.247   2.341   6.939
76507SOL     OW31417   9.933   2.721   4.597
76507SOL    HW131418   9.877   2.756   4.527
76507SOL    HW231419   9.873   2.699   4.668
76508SOL     OW31420   0.068   6.227   5.654
76508SOL    HW131421   0.050   6.140   5.619
76508SOL    HW231422   0.130   6.212   5.725
76509SOL     OW31423  14.029  10.821  12.049
76509SOL    HW131424  14.000  10.732  12.073
76509SOL    HW231425  14.108  10.835  12.101
76510SOL     OW31426  14.788   3.833   3.730
76510SOL    HW131427  14.815   3.911   3.779
76510SOL    HW231428  14.800   3.761   3.791
76511SOL     OW31429   6.215   4.730   8.781
76511SOL    HW131430   6.277   4.669   8.821
76511SOL    HW231431   6.246   4.740   8.691
76512SOL     OW31432  11.602   2.425   1.929
76512SOL    HW131433  11.583   2.452   1.839
76512SOL    HW231434  11.570   2.335   1.935
76513SOL     OW31435   2.732   2.591   2.995
76513SOL    HW131436   2.821   2.575   2.963
76513SOL    HW231437   2.745   2.619   3.086
76514SOL     OW31438  14.298   1.033  10.039
76514SOL    HW131439  14.361   0.971  10.075
76514SOL    HW231440  14.222   1.028  10.098
76515SOL     OW31441  14.831  13.783  11.277
76515SOL    HW131442  14.865  13.773  11.365
76515SOL    HW231443  14.864  13.708  11.229
76516SOL     OW31444  10.368   8.540   4.172
76516SOL    HW131445  10.412   8.469   4.126
76516SOL    HW231446  10.279   8.508   4.186
76517SOL     OW31447  12.982   6.307   2.920
76517SOL    HW131448  13.058   6.351   2.883
76517SOL    HW231449  12.926   6.378   2.951
76518SOL     OW31450   4.581  13.981   2.225
76518SOL    HW131451   4.663  14.027   2.207
76518SOL    HW231452   4.580  13.971   2.321
76519SOL     OW31453   6.156   6.103   4.072
76519SOL    HW131454   6.188   6.096   4.162
76519SOL    HW231455   6.095   6.177   4.074
76520SOL     OW31456   7.080  14.179  10.782
76520SOL    HW131457   7.025  14.255  10.765
76520SOL    HW231458   7.157  14.214  10.826
76521SOL     OW31459  10.472  12.190  13.329
76521SOL    HW131460  10.424  12.139  13.394
76521SOL    HW231461  10.540  12.235  13.378
76522SOL     OW31462  10.843   7.256   6.455
76522SOL    HW131463  10.908   7.186   6.463
76522SOL    HW231464  10.807   7.265   6.543
76523SOL     OW31465  14.433   9.454   8.236
76523SOL    HW131466  14.517   9.422   8.266
76523SOL    HW231467  14.454   9.530   8.181
76524SOL     OW31468   4.646  13.793   6.474
76524SOL    HW131469   4.600  13.710   6.490
76524SOL    HW231470   4.641  13.804   6.379
76525SOL     OW31471   2.747  14.731  14.781
76525SOL    HW131472   2.658  14.729  14.747
76525SOL    HW231473   2.756  14.650  14.831
76526SOL     OW31474   8.485  12.602   6.490
76526SOL    HW131475   8.446  12.520   6.521
76526SOL    HW231476   8.425  12.634   6.423
76527SOL     OW31477  13.005  10.185   0.291
76527SOL    HW131478  13.019  10.179   0.385
76527SOL    HW231479  12.927  10.132   0.274
76528SOL     OW31480   2.774   3.409  11.366
76528SOL    HW131481   2.705   3.396  11.301
76528SOL    HW231482   2.787   3.504  11.369
76529SOL     OW31483   0.162   5.061  12.133
76529SOL    HW131484   0.125   5.135  12.182
76529SOL    HW231485   0.102   4.989  12.151
76530SOL     OW31486   1.931   6.083   8.250
76530SOL    HW131487   2.014   6.131   8.260
76530SOL    HW231488   1.894   6.116   8.169
76531SOL     OW31489  10.459   9.217  14.403
76531SOL    HW131490  10.404   9.142  14.426
76531SOL    HW231491  10.456   9.219  14.307
76532SOL     OW31492   3.291  10.894   4.608
76532SOL    HW131493   3.198  10.908   4.588
76532SOL    HW231494   3.302  10.799   4.607
76533SOL     OW31495   0.625   1.079  12.881
76533SOL    HW131496   0.536   1.043  12.883
76533SOL    HW231497   0.613   1.169  12.849
76534SOL     OW31498   7.795   3.691   6.199
76534SOL    HW131499   7.790   3.599   6.226
76534SOL    HW231500   7.821   3.738   6.278
76535SOL     OW31501  11.491  12.906   2.232
76535SOL    HW131502  11.429  12.887   2.161
76535SOL    HW231503  11.533  12.823   2.251
76536SOL     OW31504   7.825   1.143   4.354
76536SOL    HW131505   7.803   1.108   4.268
76536SOL    HW231506   7.920   1.154   4.352
76537SOL     OW31507   8.644   1.147   5.598
76537SOL    HW131508   8.602   1.210   5.541
76537SOL    HW231509   8.648   1.190   5.683
76538SOL     OW31510  12.033   8.744  13.599
76538SOL    HW131511  12.073   8.688  13.665
76538SOL    HW231512  12.101   8.808  13.577
76539SOL     OW31513   3.881  14.340  14.368
76539SOL    HW131514   3.848  14.255  14.339
76539SOL    HW231515   3.944  14.365  14.301
76540SOL     OW31516  13.633   2.880  11.940
76540SOL    HW131517  13.684   2.958  11.964
76540SOL    HW231518  13.699   2.814  11.919
76541SOL     OW31519   2.960   9.473  12.693
76541SOL    HW131520   2.920   9.452  12.777
76541SOL    HW231521   3.001   9.558  12.706
76542SOL     OW31522  10.034   3.606   9.183
76542SOL    HW131523  10.051   3.555   9.104
76542SOL    HW231524   9.975   3.676   9.155
76543SOL     OW31525   2.740  11.904  10.369
76543SOL    HW131526   2.774  11.838  10.309
76543SOL    HW231527   2.817  11.932  10.419
76544SOL     OW31528   0.855   3.331   3.290
76544SOL    HW131529   0.845   3.246   3.248
76544SOL    HW231530   0.949   3.341   3.303
76545SOL     OW31531  14.752  10.696  11.676
76545SOL    HW131532  14.766  10.624  11.737
76545SOL    HW231533  14.668  10.734  11.702
76546SOL     OW31534   0.389   3.376   5.473
76546SOL    HW131535   0.448   3.451   5.484
76546SOL    HW231536   0.358   3.383   5.383
76547SOL     OW31537   0.720  10.836   6.184
76547SOL    HW131538   0.785  10.772   6.211
76547SOL    HW231539   0.682  10.800   6.104
76548SOL     OW31540  11.917   9.337   1.034
76548SOL    HW131541  11.871   9.421   1.047
76548SOL    HW231542  11.853   9.271   1.062
76549SOL     OW31543  13.018   9.157  14.387
76549SOL    HW131544  12.943   9.172  14.329
76549SOL    HW231545  13.055   9.244  14.400
76550SOL     OW31546   1.731   8.393  12.814
76550SOL    HW131547   1.776   8.476  12.805
76550SOL    HW231548   1.801   8.328  12.823
76551SOL     OW31549   7.822   1.369   1.321
76551SOL    HW131550   7.898   1.312   1.312
76551SOL    HW231551   7.776   1.336   1.398
76552SOL     OW31552   4.752   0.468   6.485
76552SOL    HW131553   4.734   0.517   6.566
76552SOL    HW231554   4.824   0.516   6.444
76553SOL     OW31555   3.393   5.253   4.487
76553SOL    HW131556   3.384   5.168   4.530
76553SOL    HW231557   3.353   5.241   4.401
76554SOL     OW31558   5.400   8.343  11.705
76554SOL    HW131559   5.468   8.284  11.673
76554SOL    HW231560   5.431   8.372  11.791
76555SOL     OW31561  14.768   3.394  13.786
76555SOL    HW131562  14.755   3.362  13.875
76555SOL    HW231563  14.845   3.451  13.791
76556SOL     OW31564   7.365   8.345   8.485
76556SOL    HW131565   7.325   8.366   8.401
76556SOL    HW231566   7.382   8.430   8.525
76557SOL     OW31567   5.179   6.120  13.444
76557SOL    HW131568   5.194   6.207  13.481
76557SOL    HW231569   5.143   6.136  13.357
76558SOL     OW31570  13.073   7.588   0.745
76558SOL    HW131571  13.010   7.603   0.816
76558SOL    HW231572  13.021   7.544   0.678
76559SOL     OW31573  12.165   9.751   3.355
76559SOL    HW131574  12.216   9.669   3.348
76559SOL    HW231575  12.227   9.819   3.329
76560SOL     OW31576   4.358  14.597   1.114
76560SOL    HW131577   4.291  14.641   1.164
76560SOL    HW231578   4.386  14.661   1.049
76561SOL     OW31579   4.867  13.139   3.444
76561SOL    HW131580   4.840  13.125   3.535
76561SOL    HW231581   4.785  13.158   3.398
76562SOL     OW31582   2.836   9.427   2.148
76562SOL    HW131583   2.868   9.507   2.107
76562SOL    HW231584   2.771   9.457   2.212
76563SOL     OW31585  13.920   2.736  14.796
76563SOL    HW131586  13.841   2.687  14.820
76563SOL    HW231587  13.924   2.807  14.861
76564SOL     OW31588   6.623   9.299  13.802
76564SOL    HW131589   6.575   9.272  13.880
76564SOL    HW231590   6.665   9.218  13.771
76565SOL     OW31591   1.437  10.761   2.880
76565SOL    HW131592   1.449  10.679   2.833
76565SOL    HW231593   1.479  10.827   2.825
76566SOL     OW31594   7.591  11.005   7.606
76566SOL    HW131595   7.582  10.919   7.566
76566SOL    HW231596   7.615  11.063   7.534
76567SOL     OW31597  13.317   9.294   5.120
76567SOL    HW131598  13.356   9.277   5.206
76567SOL    HW231599  13.234   9.337   5.139
76568SOL     OW31600   0.663   3.137   6.951
76568SOL    HW131601   0.620   3.064   6.996
76568SOL    HW231602   0.735   3.096   6.903
76569SOL     OW31603  10.331   1.841  14.423
76569SOL    HW131604  10.392   1.882  14.484
76569SOL    HW231605  10.263   1.907  14.409
76570SOL     OW31606  11.163  12.122   3.560
76570SOL    HW131607  11.214  12.168   3.493
76570SOL    HW231608  11.193  12.031   3.554
76571SOL     OW31609   3.373   9.496   6.626
76571SOL    HW131610   3.409   9.547   6.553
76571SOL    HW231611   3.348   9.562   6.691
76572SOL     OW31612   7.614  11.426   2.954
76572SOL    HW131613   7.608  11.511   2.998
76572SOL    HW231614   7.704  11.421   2.923
76573SOL     OW31615   0.863   6.518   6.737
76573SOL    HW131616   0.864   6.558   6.823
76573SOL    HW231617   0.955   6.499   6.717
76574SOL     OW31618   1.592  11.150   1.253
76574SOL    HW131619   1.593  11.055   1.265
76574SOL    HW231620   1.637  11.185   1.330
76575SOL     OW31621   1.055  11.311  13.739
76575SOL    HW131622   1.085  11.396  13.707
76575SOL    HW231623   1.110  11.247  13.693
76576SOL     OW31624  11.196   2.936  12.264
76576SOL    HW131625  11.161   2.946  12.175
76576SOL    HW231626  11.288   2.960  12.256
76577SOL     OW31627  14.231   1.710   6.065
76577SOL    HW131628  14.136   1.704   6.069
76577SOL    HW231629  14.261   1.619   6.059
76578SOL     OW31630  12.742   3.959  14.229
76578SOL    HW131631  12.834   3.957  14.253
76578SOL    HW231632  12.696   3.982  14.309
76579SOL     OW31633  10.632   4.303  13.875
76579SOL    HW131634  10.551   4.260  13.847
76579SOL    HW231635  10.694   4.284  13.804
76580SOL     OW31636  13.253   1.347  13.690
76580SOL    HW131637  13.235   1.377  13.601
76580SOL    HW231638  13.348   1.357  13.700
76581SOL     OW31639   3.341   8.052  13.002
76581SOL    HW131640   3.384   8.135  13.024
76581SOL    HW231641   3.390   8.018  12.927
76582SOL     OW31642   4.394  12.914  14.771
76582SOL    HW131643   4.394  12.821  14.795
76582SOL    HW231644   4.379  12.960  14.854
76583SOL     OW31645   8.799  13.361  10.235
76583SOL    HW131646   8.802  13.425  10.307
76583SOL    HW231647   8.711  13.324  10.240
76584SOL     OW31648   4.819   8.375  10.794
76584SOL    HW131649   4.803   8.333  10.879
76584SOL    HW231650   4.892   8.435  10.811
76585SOL     OW31651   1.295   2.378  10.429
76585SOL    HW131652   1.230   2.446  10.446
76585SOL    HW231653   1.260   2.301  10.474
76586SOL     OW31654   9.442  10.887   1.144
76586SOL    HW131655   9.403  10.864   1.228
76586SOL    HW231656   9.533  10.857   1.151
76587SOL     OW31657   1.665  10.016   0.866
76587SOL    HW131658   1.709   9.997   0.949
76587SOL    HW231659   1.700  10.102   0.840
76588SOL     OW31660  13.736   4.176   6.050
76588SOL    HW131661  13.705   4.194   5.961
76588SOL    HW231662  13.681   4.231   6.106
76589SOL     OW31663  10.696   5.455  12.630
76589SOL    HW131664  10.637   5.522  12.666
76589SOL    HW231665  10.641   5.377  12.623
76590SOL     OW31666  11.205   8.378   1.943
76590SOL    HW131667  11.134   8.314   1.952
76590SOL    HW231668  11.283   8.334   1.976
76591SOL     OW31669   3.323  14.167   3.232
76591SOL    HW131670   3.392  14.116   3.190
76591SOL    HW231671   3.355  14.257   3.230
76592SOL     OW31672   8.745   5.258   4.441
76592SOL    HW131673   8.795   5.334   4.468
76592SOL    HW231674   8.751   5.198   4.515
76593SOL     OW31675  13.873  12.902   0.610
76593SOL    HW131676  13.813  12.913   0.684
76593SOL    HW231677  13.949  12.955   0.633
76594SOL     OW31678   7.549   0.970   1.724
76594SOL    HW131679   7.635   0.955   1.764
76594SOL    HW231680   7.489   0.979   1.798
76595SOL     OW31681   7.926   8.612   5.524
76595SOL    HW131682   8.021   8.603   5.522
76595SOL    HW231683   7.893   8.525   5.499
76596SOL     OW31684   1.516   6.245   4.810
76596SOL    HW131685   1.490   6.167   4.860
76596SOL    HW231686   1.434   6.293   4.799
76597SOL     OW31687  11.810   7.342   2.248
76597SOL    HW131688  11.887   7.355   2.193
76597SOL    HW231689  11.804   7.422   2.301
76598SOL     OW31690  13.067   1.356   4.732
76598SOL    HW131691  12.980   1.321   4.711
76598SOL    HW231692  13.049   1.434   4.784
76599SOL     OW31693  12.453   1.902   6.427
76599SOL    HW131694  12.539   1.876   6.461
76599SOL    HW231695  12.436   1.987   6.468
76600SOL     OW31696  10.940   4.806   3.815
76600SOL    HW131697  10.994   4.731   3.788
76600SOL    HW231698  10.888   4.774   3.888
76601SOL     OW31699  11.043   5.837   2.631
76601SOL    HW131700  11.066   5.746   2.611
76601SOL    HW231701  11.098   5.860   2.706
76602SOL     OW31702   3.228  12.258   7.030
76602SOL    HW131703   3.246  12.284   7.120
76602SOL    HW231704   3.191  12.336   6.989
76603SOL     OW31705   3.043   2.932   4.339
76603SOL    HW131706   3.103   2.977   4.399
76603SOL    HW231707   2.989   2.878   4.396
76604SOL     OW31708  12.168   1.355   4.424
76604SOL    HW131709  12.206   1.325   4.341
76604SOL    HW231710  12.182   1.450   4.423
76605SOL     OW31711  11.148   6.694   2.028
76605SOL    HW131712  11.112   6.612   2.063
76605SOL    HW231713  11.155   6.751   2.105
76606SOL     OW31714  12.365   4.202   7.871
76606SOL    HW131715  12.368   4.181   7.777
76606SOL    HW231716  12.424   4.139   7.912
76607SOL     OW31717  10.057  13.084  12.567
76607SOL    HW131718  10.040  12.991  12.581
76607SOL    HW231719  10.032  13.125  12.649
76608SOL     OW31720   6.882  11.992  10.859
76608SOL    HW131721   6.925  12.010  10.775
76608SOL    HW231722   6.954  11.962  10.916
76609SOL     OW31723  11.443  11.575  13.368
76609SOL    HW131724  11.519  11.518  13.356
76609SOL    HW231725  11.379  11.521  13.412
76610SOL     OW31726  11.398   2.130   4.089
76610SOL    HW131727  11.333   2.199   4.089
76610SOL    HW231728  11.378   2.077   4.012
76611SOL     OW31729   9.637   0.138  10.320
76611SOL    HW131730   9.621   0.076  10.249
76611SOL    HW231731   9.626   0.085  10.400
76612SOL     OW31732   1.312  14.236  11.954
76612SOL    HW131733   1.321  14.247  12.049
76612SOL    HW231734   1.378  14.294  11.917
76613SOL     OW31735   5.086   2.073  14.514
76613SOL    HW131736   5.034   2.066  14.594
76613SOL    HW231737   5.049   2.005  14.456
76614SOL     OW31738  13.419   5.927   0.797
76614SOL    HW131739  13.504   5.955   0.829
76614SOL    HW231740  13.375   5.889   0.874
76615SOL     OW31741  10.644  10.307  12.079
76615SOL    HW131742  10.679  10.315  12.167
76615SOL    HW231743  10.592  10.386  12.066
76616SOL     OW31744  14.630   7.367   1.975
76616SOL    HW131745  14.632   7.287   2.027
76616SOL    HW231746  14.684   7.348   1.899
76617SOL     OW31747   8.192   8.008  14.083
76617SOL    HW131748   8.112   7.962  14.057
76617SOL    HW231749   8.192   8.003  14.179
76618SOL     OW31750   7.889   3.145   0.789
76618SOL    HW131751   7.865   3.067   0.738
76618SOL    HW231752   7.810   3.199   0.789
76619SOL     OW31753   7.954   8.363  13.304
76619SOL    HW131754   7.944   8.297  13.235
76619SOL    HW231755   7.871   8.361  13.351
76620SOL     OW31756   6.415   5.793  10.857
76620SOL    HW131757   6.468   5.741  10.918
76620SOL    HW231758   6.479   5.826  10.793
76621SOL     OW31759   3.114   0.223   2.169
76621SOL    HW131760   3.131   0.297   2.111
76621SOL    HW231761   3.107   0.261   2.256
76622SOL     OW31762   4.471  12.866   8.068
76622SOL    HW131763   4.382  12.843   8.093
76622SOL    HW231764   4.515  12.782   8.054
76623SOL     OW31765   4.453   0.923   0.029
76623SOL    HW131766   4.405   0.938   0.111
76623SOL    HW231767   4.444   0.829   0.013
76624SOL     OW31768  10.181   7.404   1.952
76624SOL    HW131769  10.228   7.367   1.877
76624SOL    HW231770  10.107   7.344   1.965
76625SOL     OW31771   6.535  14.474   7.888
76625SOL    HW131772   6.601  14.440   7.827
76625SOL    HW231773   6.451  14.453   7.846
76626SOL     OW31774   0.690   8.022   6.341
76626SOL    HW131775   0.665   7.931   6.360
76626SOL    HW231776   0.667   8.070   6.421
76627SOL     OW31777   0.211  14.558   9.576
76627SOL    HW131778   0.286  14.549   9.518
76627SOL    HW231779   0.249  14.568   9.663
76628SOL     OW31780  11.341   2.770  11.793
76628SOL    HW131781  11.291   2.841  11.753
76628SOL    HW231782  11.428   2.808  11.808
76629SOL     OW31783   5.635   5.836   8.170
76629SOL    HW131784   5.662   5.927   8.154
76629SOL    HW231785   5.596   5.807   8.088
76630SOL     OW31786  13.895   4.864  11.439
76630SOL    HW131787  13.887   4.943  11.385
76630SOL    HW231788  13.805   4.844  11.465
76631SOL     OW31789  11.481  14.324   1.130
76631SOL    HW131790  11.475  14.247   1.187
76631SOL    HW231791  11.503  14.396   1.189
76632SOL     OW31792   3.294  11.316   6.185
76632SOL    HW131793   3.200  11.329   6.171
76632SOL    HW231794   3.300  11.280   6.274
76633SOL     OW31795   3.379   4.875   3.289
76633SOL    HW131796   3.311   4.879   3.221
76633SOL    HW231797   3.395   4.966   3.313
76634SOL     OW31798  13.103   7.387   9.971
76634SOL    HW131799  13.197   7.399   9.959
76634SOL    HW231800  13.089   7.293   9.958
76635SOL     OW31801   6.966  13.244  10.131
76635SOL    HW131802   7.017  13.290  10.065
76635SOL    HW231803   6.932  13.314  10.188
76636SOL     OW31804  11.501   8.713  14.131
76636SOL    HW131805  11.434   8.703  14.063
76636SOL    HW231806  11.559   8.781  14.097
76637SOL     OW31807  10.935  12.192   7.663
76637SOL    HW131808  10.922  12.286   7.645
76637SOL    HW231809  10.902  12.148   7.585
76638SOL     OW31810  14.560   0.966  12.442
76638SOL    HW131811  14.474   0.939  12.474
76638SOL    HW231812  14.610   0.984  12.522
76639SOL     OW31813  10.917  13.065   5.382
76639SOL    HW131814  10.923  12.978   5.423
76639SOL    HW231815  10.863  13.051   5.304
76640SOL     OW31816   6.282   3.793  10.408
76640SOL    HW131817   6.259   3.719  10.353
76640SOL    HW231818   6.199   3.838  10.425
76641SOL     OW31819   1.687   5.180  14.731
76641SOL    HW131820   1.681   5.248  14.799
76641SOL    HW231821   1.701   5.229  14.650
76642SOL     OW31822   7.573   3.111  12.006
76642SOL    HW131823   7.500   3.085  12.062
76642SOL    HW231824   7.580   3.206  12.018
76643SOL     OW31825   2.315   6.296  10.755
76643SOL    HW131826   2.221   6.280  10.754
76643SOL    HW231827   2.354   6.219  10.714
76644SOL     OW31828   5.686   7.083   8.634
76644SOL    HW131829   5.616   7.032   8.593
76644SOL    HW231830   5.759   7.022   8.642
76645SOL     OW31831   9.853   0.465  14.118
76645SOL    HW131832   9.865   0.471  14.023
76645SOL    HW231833   9.933   0.424  14.150
76646SOL     OW31834   9.781   5.355  13.277
76646SOL    HW131835   9.817   5.429  13.228
76646SOL    HW231836   9.686   5.367  13.270
76647SOL     OW31837   8.044  12.666   2.953
76647SOL    HW131838   8.107  12.612   2.906
76647SOL    HW231839   7.982  12.695   2.885
76648SOL     OW31840   6.615   1.323  11.857
76648SOL    HW131841   6.548   1.320  11.788
76648SOL    HW231842   6.627   1.416  11.875
76649SOL     OW31843   0.831   1.172  10.802
76649SOL    HW131844   0.836   1.230  10.878
76649SOL    HW231845   0.825   1.232  10.727
76650SOL     OW31846  12.563   5.343   3.414
76650SOL    HW131847  12.621   5.267   3.420
76650SOL    HW231848  12.523   5.335   3.327
76651SOL     OW31849   4.612  14.436   6.427
76651SOL    HW131850   4.624  14.449   6.333
76651SOL    HW231851   4.621  14.341   6.439
76652SOL     OW31852  13.711   6.834  11.365
76652SOL    HW131853  13.617   6.827  11.348
76652SOL    HW231854  13.730   6.927  11.357
76653SOL     OW31855   1.232  10.455   9.269
76653SOL    HW131856   1.203  10.411   9.349
76653SOL    HW231857   1.290  10.525   9.300
76654SOL     OW31858   8.100   9.387   8.462
76654SOL    HW131859   8.049   9.344   8.393
76654SOL    HW231860   8.155   9.449   8.414
76655SOL     OW31861  14.325  12.467   8.974
76655SOL    HW131862  14.390  12.518   9.022
76655SOL    HW231863  14.353  12.472   8.883
76656SOL     OW31864   4.079  10.333  13.009
76656SOL    HW131865   3.996  10.378  13.022
76656SOL    HW231866   4.145  10.398  13.033
76657SOL     OW31867   7.109  14.495  10.490
76657SOL    HW131868   7.196  14.465  10.517
76657SOL    HW231869   7.049  14.440  10.540
76658SOL     OW31870  13.723   0.028  12.582
76658SOL    HW131871  13.761   0.110  12.612
76658SOL    HW231872  13.666   0.000  12.654
76659SOL     OW31873   6.526   1.831   4.360
76659SOL    HW131874   6.468   1.762   4.327
76659SOL    HW231875   6.574   1.789   4.432
76660SOL     OW31876   0.531   2.945  10.949
76660SOL    HW131877   0.619   2.934  10.914
76660SOL    HW231878   0.476   2.888  10.895
76661SOL     OW31879   6.875   6.771   4.983
76661SOL    HW131880   6.932   6.704   4.944
76661SOL    HW231881   6.899   6.773   5.075
76662SOL     OW31882   0.200  13.493  11.768
76662SOL    HW131883   0.166  13.559  11.829
76662SOL    HW231884   0.290  13.479  11.796
76663SOL     OW31885   4.451   3.643   8.626
76663SOL    HW131886   4.421   3.585   8.696
76663SOL    HW231887   4.538   3.609   8.603
76664SOL     OW31888   0.057   1.906  12.396
76664SOL    HW131889   0.087   1.873  12.312
76664SOL    HW231890   0.025   1.994  12.377
76665SOL     OW31891  11.027  12.456   4.498
76665SOL    HW131892  11.047  12.419   4.584
76665SOL    HW231893  11.111  12.454   4.451
76666SOL     OW31894   0.403  14.524   7.458
76666SOL    HW131895   0.354  14.567   7.388
76666SOL    HW231896   0.387  14.431   7.446
76667SOL     OW31897   8.091  14.623   1.219
76667SOL    HW131898   8.186  14.620   1.208
76667SOL    HW231899   8.074  14.575   1.299
76668SOL     OW31900   7.891   8.212   2.902
76668SOL    HW131901   7.849   8.127   2.887
76668SOL    HW231902   7.888   8.223   2.998
76669SOL     OW31903  12.808   0.248   0.682
76669SOL    HW131904  12.894   0.239   0.724
76669SOL    HW231905  12.783   0.339   0.697
76670SOL     OW31906   5.969  13.113   4.467
76670SOL    HW131907   5.952  13.071   4.383
76670SOL    HW231908   5.922  13.196   4.462
76671SOL     OW31909  14.753   0.852   0.016
76671SOL    HW131910  14.776   0.782   0.078
76671SOL    HW231911  14.734   0.927   0.071
76672SOL     OW31912   6.404  10.796  10.681
76672SOL    HW131913   6.492  10.807  10.647
76672SOL    HW231914   6.369  10.885  10.686
76673SOL     OW31915   0.898  11.601  13.610
76673SOL    HW131916   0.867  11.598  13.520
76673SOL    HW231917   0.868  11.519  13.649
76674SOL     OW31918   6.281   9.586  14.040
76674SOL    HW131919   6.346   9.628  14.096
76674SOL    HW231920   6.311   9.605  13.951
76675SOL     OW31921   9.943  13.085   2.116
76675SOL    HW131922   9.954  13.147   2.188
76675SOL    HW231923  10.033  13.056   2.097
76676SOL     OW31924  10.960   8.747   5.277
76676SOL    HW131925  10.875   8.708   5.295
76676SOL    HW231926  11.023   8.688   5.318
76677SOL     OW31927   4.826   1.932   4.681
76677SOL    HW131928   4.917   1.902   4.685
76677SOL    HW231929   4.832   2.025   4.662
76678SOL     OW31930   7.191   2.599   2.402
76678SOL    HW131931   7.161   2.689   2.417
76678SOL    HW231932   7.166   2.580   2.312
76679SOL     OW31933  12.167  11.777   8.206
76679SOL    HW131934  12.222  11.833   8.261
76679SOL    HW231935  12.084  11.771   8.253
76680SOL     OW31936   4.650   5.986  13.931
76680SOL    HW131937   4.608   5.935  14.000
76680SOL    HW231938   4.734   6.012  13.968
76681SOL     OW31939  11.397   1.776   7.427
76681SOL    HW131940  11.459   1.705   7.445
76681SOL    HW231941  11.344   1.782   7.507
76682SOL     OW31942   7.856   1.607   0.211
76682SOL    HW131943   7.795   1.605   0.138
76682SOL    HW231944   7.942   1.618   0.170
76683SOL     OW31945   5.859   3.888  13.452
76683SOL    HW131946   5.892   3.846  13.373
76683SOL    HW231947   5.782   3.936  13.423
76684SOL     OW31948   2.872   6.571  13.718
76684SOL    HW131949   2.866   6.613  13.804
76684SOL    HW231950   2.935   6.499  13.731
76685SOL     OW31951   9.160   4.114   7.905
76685SOL    HW131952   9.171   4.035   7.959
76685SOL    HW231953   9.184   4.087   7.817
76686SOL     OW31954   8.412   3.590   2.014
76686SOL    HW131955   8.373   3.520   1.961
76686SOL    HW231956   8.467   3.639   1.952
76687SOL     OW31957   1.004  10.733   0.388
76687SOL    HW131958   0.960  10.785   0.455
76687SOL    HW231959   0.933  10.692   0.339
76688SOL     OW31960  11.573   5.979   2.570
76688SOL    HW131961  11.587   6.060   2.619
76688SOL    HW231962  11.660   5.941   2.560
76689SOL     OW31963   1.474   9.611   5.256
76689SOL    HW131964   1.472   9.520   5.285
76689SOL    HW231965   1.490   9.661   5.337
76690SOL     OW31966   0.624   5.667   4.435
76690SOL    HW131967   0.643   5.760   4.447
76690SOL    HW231968   0.569   5.664   4.357
76691SOL     OW31969   1.046   9.096   4.683
76691SOL    HW131970   1.025   9.088   4.776
76691SOL    HW231971   1.041   9.007   4.649
76692SOL     OW31972  10.293  14.136   8.607
76692SOL    HW131973  10.324  14.217   8.646
76692SOL    HW231974  10.277  14.157   8.515
76693SOL     OW31975   7.334   0.808   3.157
76693SOL    HW131976   7.264   0.804   3.222
76693SOL    HW231977   7.344   0.901   3.138
76694SOL     OW31978   9.776   8.757   6.295
76694SOL    HW131979   9.817   8.793   6.215
76694SOL    HW231980   9.712   8.694   6.263
76695SOL     OW31981   0.627   6.468   6.059
76695SOL    HW131982   0.684   6.538   6.026
76695SOL    HW231983   0.651   6.459   6.151
76696SOL     OW31984  12.661   9.307   3.373
76696SOL    HW131985  12.632   9.219   3.350
76696SOL    HW231986  12.756   9.305   3.359
76697SOL     OW31987  13.808  12.482   1.193
76697SOL    HW131988  13.719  12.493   1.160
76697SOL    HW231989  13.864  12.499   1.117
76698SOL     OW31990   5.878   6.096  14.124
76698SOL    HW131991   5.786   6.082  14.147
76698SOL    HW231992   5.926   6.081  14.205
76699SOL     OW31993   1.029   1.567   3.884
76699SOL    HW131994   1.012   1.512   3.961
76699SOL    HW231995   1.122   1.589   3.891
76700SOL     OW31996  12.627   9.791  14.254
76700SOL    HW131997  12.664   9.751  14.333
76700SOL    HW231998  12.535   9.766  14.255
76701SOL     OW31999   1.524   5.839   7.833
76701SOL    HW132000   1.586   5.775   7.800
76701SOL    HW232001   1.439   5.811   7.798
76702SOL     OW32002   9.709   1.742  14.645
76702SOL    HW132003   9.634   1.693  14.610
76702SOL    HW232004   9.674   1.786  14.723
76703SOL     OW32005   1.622  13.249  13.466
76703SOL    HW132006   1.710  13.217  13.487
76703SOL    HW232007   1.568  13.221  13.539
76704SOL     OW32008   0.368   2.942  10.061
76704SOL    HW132009   0.424   2.864  10.056
76704SOL    HW232010   0.424   3.010  10.097
76705SOL     OW32011   4.472  10.318   5.885
76705SOL    HW132012   4.486  10.359   5.800
76705SOL    HW232013   4.488  10.224   5.870
76706SOL     OW32014   5.383   8.958   3.579
76706SOL    HW132015   5.452   8.979   3.515
76706SOL    HW232016   5.305   8.944   3.525
76707SOL     OW32017  14.343   1.927   0.087
76707SOL    HW132018  14.281   1.896   0.153
76707SOL    HW232019  14.293   1.989   0.034
76708SOL     OW32020   9.742   7.036   1.850
76708SOL    HW132021   9.808   7.081   1.903
76708SOL    HW232022   9.792   6.984   1.788
76709SOL     OW32023   4.718  13.527  11.219
76709SOL    HW132024   4.791  13.562  11.270
76709SOL    HW232025   4.712  13.435  11.247
76710SOL     OW32026   0.740   6.772   9.092
76710SOL    HW132027   0.803   6.742   9.026
76710SOL    HW232028   0.730   6.865   9.075
76711SOL     OW32029  14.277   1.279   8.004
76711SOL    HW132030  14.275   1.185   7.987
76711SOL    HW232031  14.317   1.287   8.091
76712SOL     OW32032  11.925   5.976  10.011
76712SOL    HW132033  11.914   5.881  10.018
76712SOL    HW232034  11.990   5.987   9.943
76713SOL     OW32035  14.366   2.307   5.335
76713SOL    HW132036  14.388   2.373   5.401
76713SOL    HW232037  14.313   2.242   5.382
76714SOL     OW32038   0.384   2.957   8.676
76714SOL    HW132039   0.391   2.946   8.771
76714SOL    HW232040   0.382   3.051   8.663
76715SOL     OW32041   0.059   6.649  11.160
76715SOL    HW132042  14.844   6.656  11.143
76715SOL    HW232043   0.098   6.646  11.072
76716SOL     OW32044  11.882  13.989   4.489
76716SOL    HW132045  11.882  13.948   4.576
76716SOL    HW232046  11.900  14.081   4.507
76717SOL     OW32047   3.652   5.946  14.516
76717SOL    HW132048   3.709   5.910  14.447
76717SOL    HW232049   3.652   6.040  14.499
76718SOL     OW32050  13.244   9.357  10.683
76718SOL    HW132051  13.185   9.283  10.667
76718SOL    HW232052  13.228   9.417  10.611
76719SOL     OW32053   1.945   1.250   0.929
76719SOL    HW132054   1.942   1.195   1.007
76719SOL    HW232055   1.855   1.251   0.897
76720SOL     OW32056  11.502  11.021   8.393
76720SOL    HW132057  11.573  11.072   8.355
76720SOL    HW232058  11.422  11.060   8.357
76721SOL     OW32059   4.705   5.467   1.304
76721SOL    HW132060   4.685   5.498   1.392
76721SOL    HW232061   4.628   5.415   1.279
76722SOL     OW32062   0.188   1.538   8.214
76722SOL    HW132063   0.243   1.574   8.144
76722SOL    HW232064   0.100   1.537   8.177
76723SOL     OW32065  10.764  14.469  13.740
76723SOL    HW132066  10.699  14.399  13.731
76723SOL    HW232067  10.718  14.539  13.786
76724SOL     OW32068   2.853   2.061   2.134
76724SOL    HW132069   2.838   2.038   2.042
76724SOL    HW232070   2.935   2.110   2.133
76725SOL     OW32071  13.108   9.920   2.607
76725SOL    HW132072  13.190   9.938   2.561
76725SOL    HW232073  13.127   9.842   2.659
76726SOL     OW32074   8.429  13.701   7.578
76726SOL    HW132075   8.383  13.618   7.591
76726SOL    HW232076   8.476  13.716   7.660
76727SOL     OW32077  13.180  10.625  12.731
76727SOL    HW132078  13.124  10.636  12.654
76727SOL    HW232079  13.260  10.585  12.697
76728SOL     OW32080  11.291  13.462  13.629
76728SOL    HW132081  11.329  13.398  13.568
76728SOL    HW232082  11.197  13.444  13.626
76729SOL     OW32083   1.248   6.602   6.024
76729SOL    HW132084   1.287   6.516   6.040
76729SOL    HW232085   1.196   6.620   6.102
76730SOL     OW32086   6.206   6.718   0.884
76730SOL    HW132087   6.146   6.686   0.817
76730SOL    HW232088   6.248   6.794   0.843
76731SOL     OW32089  13.750  12.211   0.126
76731SOL    HW132090  13.810  12.198   0.199
76731SOL    HW232091  13.801  12.187   0.048
76732SOL     OW32092   3.944   4.717  12.731
76732SOL    HW132093   3.985   4.758  12.807
76732SOL    HW232094   3.888   4.785  12.693
76733SOL     OW32095   5.360  14.777   4.226
76733SOL    HW132096   5.341  14.831   4.303
76733SOL    HW232097   5.315  14.695   4.242
76734SOL     OW32098   1.118   6.019   6.280
76734SOL    HW132099   1.144   6.088   6.220
76734SOL    HW232100   1.164   6.039   6.362
76735SOL     OW32101   2.238   2.283   9.401
76735SOL    HW132102   2.302   2.296   9.331
76735SOL    HW232103   2.288   2.240   9.471
76736SOL     OW32104   5.196   8.040  10.654
76736SOL    HW132105   5.113   8.020  10.609
76736SOL    HW232106   5.207   8.134  10.641
76737SOL     OW32107  13.362   3.201   8.207
76737SOL    HW132108  13.393   3.239   8.289
76737SOL    HW232109  13.275   3.240   8.194
76738SOL     OW32110   0.468   7.810  10.428
76738SOL    HW132111   0.538   7.775  10.483
76738SOL    HW232112   0.469   7.755  10.349
76739SOL     OW32113  13.774  12.487   0.178
76739SOL    HW132114  13.707  12.445   0.231
76739SOL    HW232115  13.818  12.415   0.133
76740SOL     OW32116   5.231   0.533   8.581
76740SOL    HW132117   5.167   0.484   8.529
76740SOL    HW232118   5.249   0.611   8.528
76741SOL     OW32119   5.714   0.822   8.668
76741SOL    HW132120   5.706   0.785   8.581
76741SOL    HW232121   5.766   0.758   8.717
76742SOL     OW32122   7.534   6.368  11.309
76742SOL    HW132123   7.484   6.378  11.391
76742SOL    HW232124   7.475   6.321  11.250
76743SOL     OW32125   4.620  10.747   3.769
76743SOL    HW132126   4.576  10.822   3.729
76743SOL    HW232127   4.565  10.672   3.748
76744SOL     OW32128   5.925  12.958  12.048
76744SOL    HW132129   5.835  12.984  12.067
76744SOL    HW232130   5.957  12.922  12.131
76745SOL     OW32131   6.168   6.549   8.299
76745SOL    HW132132   6.254   6.567   8.336
76745SOL    HW232133   6.175   6.461   8.262
76746SOL     OW32134   3.479   2.693   7.972
76746SOL    HW132135   3.460   2.714   8.063
76746SOL    HW232136   3.570   2.664   7.972
76747SOL     OW32137   9.342   4.772   7.373
76747SOL    HW132138   9.358   4.688   7.415
76747SOL    HW232139   9.427   4.796   7.334
76748SOL     OW32140  12.550   3.833   8.360
76748SOL    HW132141  12.482   3.855   8.296
76748SOL    HW232142  12.631   3.862   8.320
76749SOL     OW32143   1.695   3.954   1.935
76749SOL    HW132144   1.727   4.029   1.886
76749SOL    HW232145   1.718   3.878   1.881
76750SOL     OW32146   8.990  11.605  13.378
76750SOL    HW132147   8.951  11.574  13.297
76750SOL    HW232148   8.955  11.694  13.390
76751SOL     OW32149   8.538   9.184  11.456
76751SOL    HW132150   8.455   9.145  11.431
76751SOL    HW232151   8.543   9.173  11.551
76752SOL     OW32152   8.629   8.581   7.880
76752SOL    HW132153   8.716   8.616   7.860
76752SOL    HW232154   8.624   8.500   7.831
76753SOL     OW32155   6.854   0.390  12.147
76753SOL    HW132156   6.932   0.416  12.196
76753SOL    HW232157   6.860   0.437  12.065
76754SOL     OW32158  14.836   5.756   4.510
76754SOL    HW132159  14.815   5.663   4.518
76754SOL    HW232160   0.052   5.759   4.501
76755SOL     OW32161  10.384  10.799  10.066
76755SOL    HW132162  10.291  10.819  10.076
76755SOL    HW232163  10.389  10.704  10.073
76756SOL     OW32164   5.341  13.888  10.450
76756SOL    HW132165   5.348  13.948  10.525
76756SOL    HW232166   5.422  13.837  10.453
76757SOL     OW32167   8.178   8.750   2.492
76757SOL    HW132168   8.262   8.796   2.493
76757SOL    HW232169   8.179   8.695   2.570
76758SOL     OW32170  13.073   5.913   1.777
76758SOL    HW132171  13.072   5.846   1.846
76758SOL    HW232172  13.028   5.988   1.815
76759SOL     OW32173   5.335  10.601   7.120
76759SOL    HW132174   5.405  10.553   7.165
76759SOL    HW232175   5.332  10.685   7.165
76760SOL     OW32176   2.042  11.132   4.317
76760SOL    HW132177   1.981  11.206   4.311
76760SOL    HW232178   2.120  11.170   4.357
76761SOL     OW32179   3.009   0.968   9.641
76761SOL    HW132180   3.084   0.989   9.696
76761SOL    HW232181   2.952   1.045   9.648
76762SOL     OW32182  12.033   9.494   5.687
76762SOL    HW132183  12.036   9.587   5.665
76762SOL    HW232184  11.949   9.483   5.731
76763SOL     OW32185   1.421   0.734  10.450
76763SOL    HW132186   1.371   0.729  10.369
76763SOL    HW232187   1.477   0.656  10.448
76764SOL     OW32188   3.208   9.286  10.722
76764SOL    HW132189   3.288   9.332  10.700
76764SOL    HW232190   3.162   9.275  10.638
76765SOL     OW32191  14.008   6.699  12.562
76765SOL    HW132192  14.047   6.697  12.475
76765SOL    HW232193  14.014   6.609  12.593
76766SOL     OW32194   9.206   2.574  14.691
76766SOL    HW132195   9.273   2.550  14.754
76766SOL    HW232196   9.253   2.616  14.619
76767SOL     OW32197  14.434   1.514   7.366
76767SOL    HW132198  14.524   1.489   7.388
76767SOL    HW232199  14.442   1.557   7.281
76768SOL     OW32200   8.664  11.936   5.776
76768SOL    HW132201   8.747  11.888   5.773
76768SOL    HW232202   8.663  11.976   5.863
76769SOL     OW32203  11.290  12.049   1.578
76769SOL    HW132204  11.240  12.027   1.656
76769SOL    HW232205  11.224  12.065   1.511
76770SOL     OW32206   6.536   6.489   6.732
76770SOL    HW132207   6.570   6.517   6.646
76770SOL    HW232208   6.613   6.489   6.789
76771SOL     OW32209  11.756  14.078   3.131
76771SOL    HW132210  11.840  14.035   3.114
76771SOL    HW232211  11.774  14.171   3.116
76772SOL     OW32212   7.238   2.669   3.355
76772SOL    HW132213   7.297   2.744   3.345
76772SOL    HW232214   7.224   2.662   3.449
76773SOL     OW32215   9.591   3.214   2.631
76773SOL    HW132216   9.525   3.247   2.693
76773SOL    HW232217   9.539   3.185   2.555
76774SOL     OW32218   1.541   6.015  10.642
76774SOL    HW132219   1.464   6.064  10.671
76774SOL    HW232220   1.605   6.026  10.713
76775SOL     OW32221   7.692   1.032   3.788
76775SOL    HW132222   7.720   0.958   3.735
76775SOL    HW232223   7.616   1.068   3.742
76776SOL     OW32224   7.217   0.556   9.255
76776SOL    HW132225   7.298   0.530   9.298
76776SOL    HW232226   7.151   0.554   9.324
76777SOL     OW32227   2.859   4.192   8.812
76777SOL    HW132228   2.789   4.228   8.758
76777SOL    HW232229   2.906   4.268   8.845
76778SOL     OW32230   9.557  13.623   0.171
76778SOL    HW132231   9.536  13.651   0.082
76778SOL    HW232232   9.651  13.641   0.180
76779SOL     OW32233   1.852   1.919  10.668
76779SOL    HW132234   1.935   1.946  10.629
76779SOL    HW232235   1.827   1.840  10.620
76780SOL     OW32236   4.185  14.107  10.736
76780SOL    HW132237   4.143  14.171  10.793
76780SOL    HW232238   4.247  14.159  10.685
76781SOL     OW32239   5.654   0.192  10.772
76781SOL    HW132240   5.693   0.265  10.724
76781SOL    HW232241   5.572   0.228  10.806
76782SOL     OW32242   2.220   9.376  10.731
76782SOL    HW132243   2.220   9.369  10.635
76782SOL    HW232244   2.296   9.432  10.750
76783SOL     OW32245   6.478   1.278   7.358
76783SOL    HW132246   6.455   1.302   7.268
76783SOL    HW232247   6.535   1.202   7.348
76784SOL     OW32248   8.895   3.600   2.205
76784SOL    HW132249   8.954   3.583   2.132
76784SOL    HW232250   8.951   3.599   2.282
76785SOL     OW32251   9.766  12.348  10.659
76785SOL    HW132252   9.750  12.433  10.617
76785SOL    HW232253   9.695  12.292  10.629
76786SOL     OW32254   4.637   3.377   6.704
76786SOL    HW132255   4.732   3.383   6.703
76786SOL    HW232256   4.619   3.284   6.721
76787SOL     OW32257   6.706   9.277   4.431
76787SOL    HW132258   6.801   9.267   4.430
76787SOL    HW232259   6.691   9.354   4.486
76788SOL     OW32260   1.713   9.678  12.845
76788SOL    HW132261   1.774   9.752  12.847
76788SOL    HW232262   1.744   9.624  12.772
76789SOL     OW32263  14.204   2.710  12.730
76789SOL    HW132264  14.186   2.625  12.772
76789SOL    HW232265  14.129   2.764  12.754
76790SOL     OW32266   3.983  14.780   4.634
76790SOL    HW132267   4.040  14.733   4.572
76790SOL    HW232268   3.923  14.829   4.578
76791SOL     OW32269   8.697  13.509  12.051
76791SOL    HW132270   8.682  13.468  11.966
76791SOL    HW232271   8.629  13.474  12.108
76792SOL     OW32272   9.306   4.393   9.304
76792SOL    HW132273   9.285   4.319   9.245
76792SOL    HW232274   9.296   4.356   9.392
76793SOL     OW32275   9.466   3.852  12.718
76793SOL    HW132276   9.482   3.914  12.788
76793SOL    HW232277   9.477   3.766  12.758
76794SOL     OW32278  13.832  10.881  11.388
76794SOL    HW132279  13.741  10.860  11.367
76794SOL    HW232280  13.833  10.976  11.399
76795SOL     OW32281  10.164   6.346   3.458
76795SOL    HW132282  10.228   6.286   3.496
76795SOL    HW232283  10.211   6.390   3.387
76796SOL     OW32284   8.438   0.450  13.923
76796SOL    HW132285   8.346   0.427  13.913
76796SOL    HW232286   8.466   0.405  14.002
76797SOL     OW32287   0.931   1.648   7.789
76797SOL    HW132288   0.976   1.710   7.731
76797SOL    HW232289   0.903   1.701   7.863
76798SOL     OW32290   5.753   1.099   9.943
76798SOL    HW132291   5.754   1.098  10.039
76798SOL    HW232292   5.845   1.103   9.918
76799SOL     OW32293   8.339   1.195  12.873
76799SOL    HW132294   8.358   1.288  12.863
76799SOL    HW232295   8.249   1.186  12.843
76800SOL     OW32296   6.949   3.574   3.839
76800SOL    HW132297   6.857   3.601   3.844
76800SOL    HW232298   6.957   3.531   3.754
76801SOL     OW32299   3.557   7.735   0.953
76801SOL    HW132300   3.544   7.669   1.021
76801SOL    HW232301   3.556   7.686   0.871
76802SOL     OW32302   3.961  13.507  14.292
76802SOL    HW132303   3.884  13.466  14.254
76802SOL    HW232304   3.976  13.585  14.239
76803SOL     OW32305   4.756   0.116   2.482
76803SOL    HW132306   4.730   0.087   2.395
76803SOL    HW232307   4.840   0.161   2.469
76804SOL     OW32308   5.248  11.789   3.310
76804SOL    HW132309   5.195  11.726   3.359
76804SOL    HW232310   5.245  11.869   3.362
76805SOL     OW32311   6.056  14.756  13.515
76805SOL    HW132312   6.041  14.776  13.607
76805SOL    HW232313   6.141  14.713  13.513
76806SOL     OW32314   6.407  13.091  13.737
76806SOL    HW132315   6.346  13.133  13.676
76806SOL    HW232316   6.483  13.069  13.683
76807SOL     OW32317   4.797   2.056   7.254
76807SOL    HW132318   4.864   2.094   7.311
76807SOL    HW232319   4.826   1.965   7.242
76808SOL     OW32320   4.924   5.115   4.868
76808SOL    HW132321   5.019   5.121   4.856
76808SOL    HW232322   4.905   5.172   4.942
76809SOL     OW32323   8.488   8.043   0.507
76809SOL    HW132324   8.570   7.994   0.504
76809SOL    HW232325   8.435   8.006   0.436
76810SOL     OW32326   5.977   6.316   2.383
76810SOL    HW132327   5.895   6.363   2.399
76810SOL    HW232328   6.040   6.356   2.442
76811SOL     OW32329   6.309   7.674   6.081
76811SOL    HW132330   6.288   7.715   6.165
76811SOL    HW232331   6.377   7.610   6.102
76812SOL     OW32332   1.816   6.249   8.092
76812SOL    HW132333   1.898   6.298   8.092
76812SOL    HW232334   1.788   6.249   8.000
76813SOL     OW32335  10.817   8.985   5.913
76813SOL    HW132336  10.748   9.040   5.951
76813SOL    HW232337  10.860   8.947   5.989
76814SOL     OW32338   1.498   2.788   4.632
76814SOL    HW132339   1.520   2.813   4.722
76814SOL    HW232340   1.549   2.709   4.616
76815SOL     OW32341  10.622  10.854   0.908
76815SOL    HW132342  10.713  10.866   0.934
76815SOL    HW232343  10.586  10.794   0.973
76816SOL     OW32344   2.212   7.212   3.067
76816SOL    HW132345   2.242   7.290   3.021
76816SOL    HW232346   2.139   7.242   3.121
76817SOL     OW32347   7.116  12.049   8.325
76817SOL    HW132348   7.162  11.967   8.306
76817SOL    HW232349   7.185  12.111   8.346
76818SOL     OW32350  13.887   3.701  12.658
76818SOL    HW132351  13.808   3.653  12.680
76818SOL    HW232352  13.869   3.740  12.572
76819SOL     OW32353  12.105   9.330  11.739
76819SOL    HW132354  12.180   9.271  11.733
76819SOL    HW232355  12.136   9.402  11.794
76820SOL     OW32356   5.176  12.769   8.511
76820SOL    HW132357   5.165  12.700   8.576
76820SOL    HW232358   5.192  12.722   8.429
76821SOL     OW32359   3.754   9.222  13.305
76821SOL    HW132360   3.666   9.189  13.324
76821SOL    HW232361   3.746   9.317  13.315
76822SOL     OW32362  11.672   9.743   5.045
76822SOL    HW132363  11.623   9.822   5.070
76822SOL    HW232364  11.620   9.704   4.974
76823SOL     OW32365   4.692   8.180   1.789
76823SOL    HW132366   4.691   8.216   1.878
76823SOL    HW232367   4.601   8.187   1.759
76824SOL     OW32368   5.224   6.907  12.481
76824SOL    HW132369   5.280   6.877  12.553
76824SOL    HW232370   5.247   6.999  12.469
76825SOL     OW32371  11.283  14.601   6.579
76825SOL    HW132372  11.252  14.604   6.489
76825SOL    HW232373  11.273  14.691   6.611
76826SOL     OW32374   8.251  11.607   0.389
76826SOL    HW132375   8.321  11.612   0.324
76826SOL    HW232376   8.284  11.656   0.464
76827SOL     OW32377   3.705   9.632  10.301
76827SOL    HW132378   3.659   9.552  10.324
76827SOL    HW232379   3.718   9.626  10.207
76828SOL     OW32380   5.910  12.725   2.695
76828SOL    HW132381   5.898  12.651   2.635
76828SOL    HW232382   5.968  12.785   2.648
76829SOL     OW32383  11.566   0.354  10.879
76829SOL    HW132384  11.626   0.288  10.845
76829SOL    HW232385  11.598   0.372  10.968
76830SOL     OW32386   0.706   4.789  14.062
76830SOL    HW132387   0.634   4.848  14.087
76830SOL    HW232388   0.662   4.709  14.031
76831SOL     OW32389  14.756  11.884  10.681
76831SOL    HW132390  14.721  11.858  10.596
76831SOL    HW232391  14.812  11.811  10.708
76832SOL     OW32392   1.386  14.000  11.437
76832SOL    HW132393   1.379  14.060  11.512
76832SOL    HW232394   1.431  14.051  11.370
76833SOL     OW32395   0.665  12.713  12.527
76833SOL    HW132396   0.742  12.754  12.567
76833SOL    HW232397   0.699  12.635  12.483
76834SOL     OW32398   4.027   9.802   4.871
76834SOL    HW132399   4.076   9.738   4.819
76834SOL    HW232400   3.983   9.857   4.807
76835SOL     OW32401   9.221  14.166  11.452
76835SOL    HW132402   9.187  14.144  11.539
76835SOL    HW232403   9.259  14.254  11.463
76836SOL     OW32404   7.660   9.621   0.763
76836SOL    HW132405   7.740   9.579   0.732
76836SOL    HW232406   7.690   9.680   0.832
76837SOL     OW32407  13.375   6.318  13.619
76837SOL    HW132408  13.430   6.385  13.660
76837SOL    HW232409  13.434   6.244  13.603
76838SOL     OW32410   7.243  13.396   7.926
76838SOL    HW132411   7.298  13.449   7.868
76838SOL    HW232412   7.179  13.459   7.961
76839SOL     OW32413  12.128   9.104   5.893
76839SOL    HW132414  12.176   9.163   5.835
76839SOL    HW232415  12.054   9.156   5.924
76840SOL     OW32416   8.070   8.623   5.966
76840SOL    HW132417   8.125   8.563   5.915
76840SOL    HW232418   8.121   8.640   6.046
76841SOL     OW32419  13.863   7.351  11.899
76841SOL    HW132420  13.790   7.357  11.961
76841SOL    HW232421  13.846   7.271  11.850
76842SOL     OW32422   0.779   7.720   1.964
76842SOL    HW132423   0.722   7.643   1.970
76842SOL    HW232424   0.763   7.768   2.045
76843SOL     OW32425   4.005  11.136   2.141
76843SOL    HW132426   4.086  11.089   2.120
76843SOL    HW232427   4.004  11.139   2.237
76844SOL     OW32428   3.128  10.604   5.946
76844SOL    HW132429   3.113  10.639   6.034
76844SOL    HW232430   3.072  10.658   5.889
76845SOL     OW32431  13.706   8.150   3.810
76845SOL    HW132432  13.639   8.217   3.794
76845SOL    HW232433  13.762   8.153   3.733
76846SOL     OW32434   3.430  13.127   9.438
76846SOL    HW132435   3.526  13.131   9.439
76846SOL    HW232436   3.410  13.035   9.420
76847SOL     OW32437  10.403  14.211   4.608
76847SOL    HW132438  10.354  14.220   4.527
76847SOL    HW232439  10.484  14.166   4.583
76848SOL     OW32440   5.900   7.293   3.680
76848SOL    HW132441   5.983   7.298   3.729
76848SOL    HW232442   5.893   7.377   3.635
76849SOL     OW32443   8.260  11.721   2.105
76849SOL    HW132444   8.166  11.705   2.103
76849SOL    HW232445   8.271  11.790   2.172
76850SOL     OW32446  10.139   8.774   0.397
76850SOL    HW132447  10.228   8.781   0.432
76850SOL    HW232448  10.109   8.689   0.427
76851SOL     OW32449   2.135  13.899   0.410
76851SOL    HW132450   2.116  13.957   0.336
76851SOL    HW232451   2.082  13.935   0.482
76852SOL     OW32452   1.377   3.621   3.892
76852SOL    HW132453   1.470   3.624   3.871
76852SOL    HW232454   1.360   3.528   3.908
76853SOL     OW32455  14.269  11.586   3.704
76853SOL    HW132456  14.206  11.626   3.645
76853SOL    HW232457  14.334  11.655   3.719
76854SOL     OW32458   9.314   9.721   1.110
76854SOL    HW132459   9.255   9.797   1.103
76854SOL    HW232460   9.342   9.721   1.202
76855SOL     OW32461   6.736   8.330   2.270
76855SOL    HW132462   6.782   8.304   2.350
76855SOL    HW232463   6.791   8.298   2.199
76856SOL     OW32464  11.417  10.705  11.356
76856SOL    HW132465  11.512  10.697  11.360
76856SOL    HW232466  11.399  10.791  11.394
76857SOL     OW32467   8.475   3.700  13.029
76857SOL    HW132468   8.405   3.764  13.038
76857SOL    HW232469   8.515   3.719  12.944
76858SOL     OW32470  11.721  10.067  12.896
76858SOL    HW132471  11.630  10.095  12.897
76858SOL    HW232472  11.731  10.017  12.815
76859SOL     OW32473  10.399   9.747   5.666
76859SOL    HW132474  10.327   9.810   5.663
76859SOL    HW232475  10.414   9.722   5.575
76860SOL     OW32476  14.776   4.861  11.132
76860SOL    HW132477  14.833   4.895  11.063
76860SOL    HW232478  14.729   4.789  11.089
76861SOL     OW32479  10.025  11.865  12.262
76861SOL    HW132480   9.948  11.918  12.283
76861SOL    HW232481   9.997  11.774  12.279
76862SOL     OW32482   7.595  10.611   6.236
76862SOL    HW132483   7.681  10.578   6.260
76862SOL    HW232484   7.561  10.548   6.172
76863SOL     OW32485  12.213  11.487   2.217
76863SOL    HW132486  12.294  11.504   2.264
76863SOL    HW232487  12.171  11.417   2.266
76864SOL     OW32488  11.764  12.467   0.300
76864SOL    HW132489  11.681  12.420   0.310
76864SOL    HW232490  11.743  12.557   0.324
76865SOL     OW32491  13.374   2.646  14.212
76865SOL    HW132492  13.464   2.635  14.242
76865SOL    HW232493  13.380   2.650  14.117
76866SOL     OW32494  14.691   7.003   8.258
76866SOL    HW132495  14.748   6.963   8.323
76866SOL    HW232496  14.608   7.016   8.304
76867SOL     OW32497   5.077  11.374   2.816
76867SOL    HW132498   5.034  11.412   2.892
76867SOL    HW232499   5.127  11.446   2.778
76868SOL     OW32500  14.647  13.631   7.817
76868SOL    HW132501  14.641  13.659   7.908
76868SOL    HW232502  14.650  13.535   7.821
76869SOL     OW32503  12.388   0.396   7.643
76869SOL    HW132504  12.296   0.372   7.632
76869SOL    HW232505  12.399   0.475   7.591
76870SOL     OW32506   3.258  11.354   0.171
76870SOL    HW132507   3.332  11.377   0.227
76870SOL    HW232508   3.205  11.433   0.168
76871SOL     OW32509   8.054   9.034   0.346
76871SOL    HW132510   8.123   9.078   0.396
76871SOL    HW232511   8.099   8.993   0.273
76872SOL     OW32512   1.163  13.092  11.633
76872SOL    HW132513   1.199  13.151  11.700
76872SOL    HW232514   1.224  13.099  11.560
76873SOL     OW32515   6.960   7.330   9.894
76873SOL    HW132516   7.022   7.381   9.945
76873SOL    HW232517   7.006   7.310   9.813
76874SOL     OW32518   9.159  12.032  11.088
76874SOL    HW132519   9.153  12.076  11.173
76874SOL    HW232520   9.195  12.098  11.030
76875SOL     OW32521  14.007   9.072  10.761
76875SOL    HW132522  13.965   9.101  10.842
76875SOL    HW232523  13.970   9.129  10.693
76876SOL     OW32524   2.150  14.829   8.131
76876SOL    HW132525   2.176  14.789   8.048
76876SOL    HW232526   2.233  14.852   8.174
76877SOL     OW32527   6.671   4.401   2.899
76877SOL    HW132528   6.684   4.346   2.822
76877SOL    HW232529   6.624   4.478   2.866
76878SOL     OW32530   6.233  11.870   2.320
76878SOL    HW132531   6.317  11.846   2.283
76878SOL    HW232532   6.178  11.892   2.245
76879SOL     OW32533  10.829  13.792   2.938
76879SOL    HW132534  10.861  13.784   3.027
76879SOL    HW232535  10.773  13.869   2.939
76880SOL     OW32536  14.197   5.995  12.542
76880SOL    HW132537  14.166   6.082  12.568
76880SOL    HW232538  14.142   5.972  12.467
76881SOL     OW32539   7.392   0.602   4.582
76881SOL    HW132540   7.374   0.693   4.559
76881SOL    HW232541   7.437   0.607   4.666
76882SOL     OW32542  10.615   1.448  10.732
76882SOL    HW132543  10.687   1.428  10.672
76882SOL    HW232544  10.642   1.409  10.815
76883SOL     OW32545   1.010   6.883   4.588
76883SOL    HW132546   0.930   6.837   4.564
76883SOL    HW232547   1.073   6.858   4.520
76884SOL     OW32548  14.654   6.034  10.031
76884SOL    HW132549  14.591   6.080  10.086
76884SOL    HW232550  14.659   6.087   9.951
76885SOL     OW32551   3.707   0.746   4.108
76885SOL    HW132552   3.673   0.782   4.190
76885SOL    HW232553   3.693   0.652   4.115
76886SOL     OW32554   6.549   0.882  13.541
76886SOL    HW132555   6.614   0.819  13.571
76886SOL    HW232556   6.578   0.966  13.578
76887SOL     OW32557   8.091  13.939   3.034
76887SOL    HW132558   8.066  14.024   3.071
76887SOL    HW232559   8.108  13.884   3.111
76888SOL     OW32560  14.149  14.272  13.805
76888SOL    HW132561  14.084  14.343  13.799
76888SOL    HW232562  14.132  14.231  13.890
76889SOL     OW32563   4.662   9.040   6.532
76889SOL    HW132564   4.678   8.976   6.600
76889SOL    HW232565   4.656   9.124   6.579
76890SOL     OW32566   6.338   3.580  13.368
76890SOL    HW132567   6.330   3.664  13.413
76890SOL    HW232568   6.345   3.602  13.276
76891SOL     OW32569   9.317   2.337   9.131
76891SOL    HW132570   9.388   2.363   9.071
76891SOL    HW232571   9.292   2.250   9.101
76892SOL     OW32572  11.842   4.561   5.434
76892SOL    HW132573  11.839   4.654   5.458
76892SOL    HW232574  11.791   4.556   5.353
76893SOL     OW32575   9.502   2.871   2.476
76893SOL    HW132576   9.486   2.779   2.453
76893SOL    HW232577   9.590   2.889   2.445
76894SOL     OW32578  11.192   0.807   7.643
76894SOL    HW132579  11.177   0.742   7.575
76894SOL    HW232580  11.146   0.885   7.613
76895SOL     OW32581  12.182   9.965   9.749
76895SOL    HW132582  12.224   9.968   9.663
76895SOL    HW232583  12.109   9.904   9.737
76896SOL     OW32584   7.858  14.307  13.515
76896SOL    HW132585   7.933  14.260  13.550
76896SOL    HW232586   7.885  14.334  13.427
76897SOL     OW32587   5.865   9.056   0.540
76897SOL    HW132588   5.844   9.097   0.624
76897SOL    HW232589   5.807   9.099   0.478
76898SOL     OW32590   8.044  14.193   9.082
76898SOL    HW132591   8.077  14.274   9.043
76898SOL    HW232592   8.088  14.188   9.167
76899SOL     OW32593   3.233  12.430  13.467
76899SOL    HW132594   3.156  12.475  13.432
76899SOL    HW232595   3.256  12.478  13.546
76900SOL     OW32596  13.202  13.085  13.200
76900SOL    HW132597  13.175  13.125  13.117
76900SOL    HW232598  13.296  13.071  13.190
76901SOL     OW32599   2.937   7.382  11.925
76901SOL    HW132600   2.961   7.346  11.839
76901SOL    HW232601   2.888   7.462  11.905
76902SOL     OW32602   5.495   2.553   3.460
76902SOL    HW132603   5.480   2.636   3.415
76902SOL    HW232604   5.456   2.564   3.547
76903SOL     OW32605  14.174  13.595   2.670
76903SOL    HW132606  14.212  13.523   2.721
76903SOL    HW232607  14.079  13.585   2.681
76904SOL     OW32608   6.157  11.952  13.170
76904SOL    HW132609   6.103  11.874  13.159
76904SOL    HW232610   6.163  11.963  13.265
76905SOL     OW32611   5.363  14.149   2.502
76905SOL    HW132612   5.376  14.213   2.572
76905SOL    HW232613   5.359  14.201   2.422
76906SOL     OW32614   4.672   8.154   3.993
76906SOL    HW132615   4.631   8.070   4.015
76906SOL    HW232616   4.702   8.144   3.903
76907SOL     OW32617   2.029   4.201  10.065
76907SOL    HW132618   2.019   4.290  10.032
76907SOL    HW232619   2.085   4.157  10.001
76908SOL     OW32620   4.612   6.198   1.355
76908SOL    HW132621   4.692   6.244   1.381
76908SOL    HW232622   4.633   6.159   1.270
76909SOL     OW32623   9.355   3.764   9.032
76909SOL    HW132624   9.285   3.748   9.095
76909SOL    HW232625   9.408   3.833   9.072
76910SOL     OW32626   8.319   5.773  12.944
76910SOL    HW132627   8.375   5.764  12.867
76910SOL    HW232628   8.370   5.736  13.016
76911SOL     OW32629   2.279   3.959  11.259
76911SOL    HW132630   2.278   3.978  11.353
76911SOL    HW232631   2.239   4.036  11.219
76912SOL     OW32632   1.510  14.128  14.599
76912SOL    HW132633   1.446  14.081  14.545
76912SOL    HW232634   1.484  14.108  14.689
76913SOL     OW32635   0.082   0.272   4.486
76913SOL    HW132636   0.097   0.185   4.523
76913SOL    HW232637   0.023   0.256   4.413
76914SOL     OW32638   9.170  10.722   3.679
76914SOL    HW132639   9.149  10.769   3.598
76914SOL    HW232640   9.176  10.630   3.652
76915SOL     OW32641   9.199   3.695   5.899
76915SOL    HW132642   9.262   3.631   5.931
76915SOL    HW232643   9.217   3.702   5.805
76916SOL     OW32644  13.877   9.003   1.998
76916SOL    HW132645  13.793   8.957   1.997
76916SOL    HW232646  13.858   9.090   1.963
76917SOL     OW32647   7.682   9.456   8.118
76917SOL    HW132648   7.699   9.394   8.047
76917SOL    HW232649   7.766   9.501   8.132
76918SOL     OW32650  12.569  11.005   8.976
76918SOL    HW132651  12.649  11.058   8.983
76918SOL    HW232652  12.541  11.016   8.886
76919SOL     OW32653  13.059   5.885   7.250
76919SOL    HW132654  13.073   5.979   7.236
76919SOL    HW232655  13.146   5.846   7.235
76920SOL     OW32656   9.018   7.468   1.053
76920SOL    HW132657   8.928   7.448   1.026
76920SOL    HW232658   9.034   7.410   1.127
76921SOL     OW32659   6.684   7.835  13.702
76921SOL    HW132660   6.608   7.842  13.644
76921SOL    HW232661   6.760   7.849  13.644
76922SOL     OW32662   8.884  11.622   6.644
76922SOL    HW132663   8.829  11.558   6.597
76922SOL    HW232664   8.934  11.666   6.575
76923SOL     OW32665   1.491  11.033   7.314
76923SOL    HW132666   1.560  11.090   7.349
76923SOL    HW232667   1.423  11.034   7.382
76924SOL     OW32668   8.833   4.689   3.179
76924SOL    HW132669   8.867   4.756   3.239
76924SOL    HW232670   8.777   4.738   3.118
76925SOL     OW32671  14.077   2.120   1.896
76925SOL    HW132672  14.053   2.129   1.803
76925SOL    HW232673  14.025   2.187   1.941
76926SOL     OW32674   4.317  14.308  10.559
76926SOL    HW132675   4.410  14.289  10.546
76926SOL    HW232676   4.306  14.398  10.527
76927SOL     OW32677   2.947   3.957  11.267
76927SOL    HW132678   2.918   3.928  11.354
76927SOL    HW232679   3.019   3.898  11.245
76928SOL     OW32680  11.249   6.739   4.956
76928SOL    HW132681  11.209   6.663   4.997
76928SOL    HW232682  11.176   6.786   4.916
76929SOL     OW32683   9.495   4.480   4.841
76929SOL    HW132684   9.507   4.567   4.879
76929SOL    HW232685   9.514   4.491   4.748
76930SOL     OW32686   6.611  10.135   6.793
76930SOL    HW132687   6.556  10.083   6.733
76930SOL    HW232688   6.668  10.185   6.735
76931SOL     OW32689  13.652  10.963   8.389
76931SOL    HW132690  13.691  10.993   8.471
76931SOL    HW232691  13.608  11.041   8.355
76932SOL     OW32692  11.373  11.443  11.586
76932SOL    HW132693  11.378  11.530  11.546
76932SOL    HW232694  11.377  11.460  11.680
76933SOL     OW32695   1.961   1.954   3.311
76933SOL    HW132696   2.038   2.009   3.327
76933SOL    HW232697   1.962   1.937   3.217
76934SOL     OW32698  13.172  11.210   7.991
76934SOL    HW132699  13.219  11.134   7.958
76934SOL    HW232700  13.079  11.190   7.976
76935SOL     OW32701   7.638   3.437   1.008
76935SOL    HW132702   7.729   3.414   1.026
76935SOL    HW232703   7.591   3.354   1.007
76936SOL     OW32704   1.209  12.760   8.900
76936SOL    HW132705   1.250  12.682   8.936
76936SOL    HW232706   1.134  12.728   8.851
76937SOL     OW32707  11.392   1.939  14.167
76937SOL    HW132708  11.487   1.942  14.153
76937SOL    HW232709  11.356   1.928  14.079
76938SOL     OW32710  12.158  11.047  14.431
76938SOL    HW132711  12.125  11.137  14.433
76938SOL    HW232712  12.234  11.049  14.490
76939SOL     OW32713  10.798  12.853   4.789
76939SOL    HW132714  10.749  12.888   4.715
76939SOL    HW232715  10.876  12.907   4.794
76940SOL     OW32716   8.444  12.767   1.071
76940SOL    HW132717   8.479  12.827   1.006
76940SOL    HW232718   8.479  12.681   1.047
76941SOL     OW32719   1.072  13.963   9.924
76941SOL    HW132720   1.081  13.891   9.861
76941SOL    HW232721   1.103  13.927  10.006
76942SOL     OW32722  12.106   9.681   2.815
76942SOL    HW132723  12.123   9.598   2.772
76942SOL    HW232724  12.051   9.730   2.753
76943SOL     OW32725   1.080  14.207   0.689
76943SOL    HW132726   1.031  14.219   0.770
76943SOL    HW232727   1.055  14.281   0.634
76944SOL     OW32728   3.707   5.244   2.296
76944SOL    HW132729   3.653   5.216   2.223
76944SOL    HW232730   3.662   5.321   2.332
76945SOL     OW32731  11.993  11.635  10.851
76945SOL    HW132732  12.065  11.629  10.913
76945SOL    HW232733  12.012  11.568  10.785
76946SOL     OW32734   3.225   0.326  11.250
76946SOL    HW132735   3.196   0.280  11.329
76946SOL    HW232736   3.277   0.399  11.284
76947SOL     OW32737   6.929  12.089  10.150
76947SOL    HW132738   6.856  12.043  10.191
76947SOL    HW232739   6.904  12.181  10.152
76948SOL     OW32740   8.881   2.496   0.168
76948SOL    HW132741   8.845   2.582   0.147
76948SOL    HW232742   8.909   2.504   0.259
76949SOL     OW32743   6.375   0.819   5.709
76949SOL    HW132744   6.392   0.769   5.789
76949SOL    HW232745   6.427   0.775   5.642
76950SOL     OW32746   3.794  14.465   2.058
76950SOL    HW132747   3.789  14.369   2.058
76950SOL    HW232748   3.888  14.483   2.048
76951SOL     OW32749   7.914   3.329   9.050
76951SOL    HW132750   7.940   3.411   9.092
76951SOL    HW232751   7.885   3.274   9.123
76952SOL     OW32752   2.233  14.340  12.737
76952SOL    HW132753   2.206  14.355  12.646
76952SOL    HW232754   2.318  14.383  12.744
76953SOL     OW32755   1.775  13.392   6.919
76953SOL    HW132756   1.860  13.417   6.882
76953SOL    HW232757   1.797  13.347   7.001
76954SOL     OW32758   5.534   1.052   9.388
76954SOL    HW132759   5.546   0.992   9.315
76954SOL    HW232760   5.459   1.017   9.436
76955SOL     OW32761   6.439  12.498   6.347
76955SOL    HW132762   6.478  12.569   6.295
76955SOL    HW232763   6.395  12.443   6.283
76956SOL     OW32764   8.299   0.939  14.811
76956SOL    HW132765   8.252   0.956   0.013
76956SOL    HW232766   8.262   0.858  14.778
76957SOL     OW32767   5.469   2.312   1.486
76957SOL    HW132768   5.401   2.349   1.430
76957SOL    HW232769   5.549   2.318   1.434
76958SOL     OW32770   2.446   4.154  12.292
76958SOL    HW132771   2.494   4.094  12.350
76958SOL    HW232772   2.496   4.235  12.294
76959SOL     OW32773   0.286   1.497   5.098
76959SOL    HW132774   0.327   1.549   5.168
76959SOL    HW232775   0.360   1.451   5.057
76960SOL     OW32776   1.251   1.506   7.609
76960SOL    HW132777   1.313   1.450   7.562
76960SOL    HW232778   1.290   1.518   7.695
76961SOL     OW32779  13.563  12.180   5.910
76961SOL    HW132780  13.509  12.240   5.961
76961SOL    HW232781  13.541  12.199   5.819
76962SOL     OW32782   4.950   6.568  13.050
76962SOL    HW132783   4.934   6.474  13.065
76962SOL    HW232784   4.916   6.584  12.962
76963SOL     OW32785   4.963   7.479  10.400
76963SOL    HW132786   4.969   7.551  10.337
76963SOL    HW232787   4.925   7.519  10.478
76964SOL     OW32788  12.325   9.138  12.262
76964SOL    HW132789  12.349   9.173  12.176
76964SOL    HW232790  12.407   9.129  12.309
76965SOL     OW32791  12.457  10.598   5.095
76965SOL    HW132792  12.444  10.513   5.052
76965SOL    HW232793  12.371  10.639   5.095
76966SOL     OW32794   8.047   4.018  11.550
76966SOL    HW132795   8.004   4.104  11.546
76966SOL    HW232796   8.010   3.976  11.627
76967SOL     OW32797   6.873   6.319  12.758
76967SOL    HW132798   6.797   6.330  12.815
76967SOL    HW232799   6.844   6.258  12.690
76968SOL     OW32800  11.886  14.364   5.790
76968SOL    HW132801  11.881  14.281   5.743
76968SOL    HW232802  11.980  14.385   5.790
76969SOL     OW32803   5.066   2.865   1.167
76969SOL    HW132804   4.989   2.807   1.171
76969SOL    HW232805   5.038   2.945   1.212
76970SOL     OW32806   3.389   7.103   4.308
76970SOL    HW132807   3.299   7.094   4.342
76970SOL    HW232808   3.435   7.152   4.377
76971SOL     OW32809  11.222   6.697   9.036
76971SOL    HW132810  11.224   6.601   9.043
76971SOL    HW232811  11.130   6.719   9.048
76972SOL     OW32812   8.612   6.581  11.469
76972SOL    HW132813   8.587   6.525  11.543
76972SOL    HW232814   8.691   6.625  11.499
76973SOL     OW32815   6.371  12.983  11.713
76973SOL    HW132816   6.330  12.918  11.771
76973SOL    HW232817   6.310  13.057  11.714
76974SOL     OW32818   0.501  11.408  14.631
76974SOL    HW132819   0.445  11.333  14.649
76974SOL    HW232820   0.561  11.411  14.705
76975SOL     OW32821   0.805   2.839   9.323
76975SOL    HW132822   0.861   2.762   9.328
76975SOL    HW232823   0.807   2.864   9.230
76976SOL     OW32824   8.777   7.160   3.619
76976SOL    HW132825   8.838   7.088   3.638
76976SOL    HW232826   8.773   7.210   3.701
76977SOL     OW32827  14.545   3.558   2.031
76977SOL    HW132828  14.610   3.496   2.064
76977SOL    HW232829  14.591   3.607   1.963
76978SOL     OW32830   2.662   9.339  13.251
76978SOL    HW132831   2.627   9.386  13.327
76978SOL    HW232832   2.633   9.391  13.176
76979SOL     OW32833   0.817  11.915   7.257
76979SOL    HW132834   0.722  11.907   7.258
76979SOL    HW232835   0.840  11.949   7.344
76980SOL     OW32836  12.401   0.212  13.131
76980SOL    HW132837  12.472   0.165  13.175
76980SOL    HW232838  12.322   0.187  13.180
76981SOL     OW32839   2.022   6.307   2.155
76981SOL    HW132840   2.101   6.321   2.209
76981SOL    HW232841   1.968   6.384   2.171
76982SOL     OW32842   6.868   6.317  14.334
76982SOL    HW132843   6.826   6.299  14.250
76982SOL    HW232844   6.830   6.253  14.395
76983SOL     OW32845  14.455   8.255   3.605
76983SOL    HW132846  14.505   8.279   3.527
76983SOL    HW232847  14.496   8.174   3.636
76984SOL     OW32848   6.803   4.771   9.505
76984SOL    HW132849   6.726   4.826   9.490
76984SOL    HW232850   6.872   4.833   9.529
76985SOL     OW32851  12.719   5.716   7.521
76985SOL    HW132852  12.670   5.666   7.455
76985SOL    HW232853  12.811   5.703   7.497
76986SOL     OW32854  14.632   1.596   0.525
76986SOL    HW132855  14.586   1.602   0.441
76986SOL    HW232856  14.706   1.539   0.508
76987SOL     OW32857  11.493   8.640  10.754
76987SOL    HW132858  11.497   8.706  10.684
76987SOL    HW232859  11.530   8.561  10.715
76988SOL     OW32860   8.240   5.172   4.937
76988SOL    HW132861   8.334   5.187   4.923
76988SOL    HW232862   8.204   5.165   4.849
76989SOL     OW32863   1.490   6.689   4.854
76989SOL    HW132864   1.553   6.758   4.835
76989SOL    HW232865   1.406   6.723   4.823
76990SOL     OW32866   9.046  14.079   0.055
76990SOL    HW132867   9.092  14.153   0.095
76990SOL    HW232868   8.976  14.057   0.117
76991SOL     OW32869   2.490   6.821  14.173
76991SOL    HW132870   2.483   6.892  14.236
76991SOL    HW232871   2.584   6.803  14.167
76992SOL     OW32872   7.532  14.091   9.991
76992SOL    HW132873   7.480  14.039  10.053
76992SOL    HW232874   7.494  14.072   9.905
76993SOL     OW32875  11.314   5.131  12.515
76993SOL    HW132876  11.341   5.130  12.607
76993SOL    HW232877  11.270   5.048  12.503
76994SOL     OW32878   1.924   8.778  11.341
76994SOL    HW132879   1.940   8.870  11.363
76994SOL    HW232880   1.844   8.780  11.289
76995SOL     OW32881   9.116   3.755   5.330
76995SOL    HW132882   9.191   3.812   5.309
76995SOL    HW232883   9.039   3.811   5.317
76996SOL     OW32884   8.701   3.848  12.250
76996SOL    HW132885   8.727   3.900  12.327
76996SOL    HW232886   8.733   3.899  12.176
76997SOL     OW32887   1.139  13.773   9.661
76997SOL    HW132888   1.211  13.739   9.608
76997SOL    HW232889   1.115  13.701   9.720
76998SOL     OW32890  11.938  11.365  13.076
76998SOL    HW132891  11.864  11.321  13.033
76998SOL    HW232892  11.930  11.342  13.168
76999SOL     OW32893   7.215   3.182  13.339
76999SOL    HW132894   7.299   3.223  13.318
76999SOL    HW232895   7.232   3.132  13.418
77000SOL     OW32896   4.979   2.070   6.357
77000SOL    HW132897   4.990   1.999   6.294
77000SOL    HW232898   5.049   2.132   6.336
77001SOL     OW32899   5.693   8.945  10.615
77001SOL    HW132900   5.671   8.855  10.591
77001SOL    HW232901   5.712   8.988  10.531
77002SOL     OW32902   1.255   1.815   4.522
77002SOL    HW132903   1.164   1.819   4.493
77002SOL    HW232904   1.294   1.746   4.469
77003SOL     OW32905  14.863   7.778  10.574
77003SOL    HW132906  14.829   7.693  10.604
77003SOL    HW232907   0.070   7.759  10.539
77004SOL     OW32908   4.716   7.315  12.127
77004SOL    HW132909   4.777   7.366  12.073
77004SOL    HW232910   4.772   7.272  12.191
77005SOL     OW32911   7.499  10.734   3.355
77005SOL    HW132912   7.490  10.814   3.407
77005SOL    HW232913   7.591  10.709   3.364
77006SOL     OW32914  10.018   8.230   1.229
77006SOL    HW132915  10.088   8.200   1.286
77006SOL    HW232916  10.043   8.201   1.142
77007SOL     OW32917   2.403   2.911  12.650
77007SOL    HW132918   2.495   2.915  12.677
77007SOL    HW232919   2.397   2.968  12.573
77008SOL     OW32920   8.554   2.197   3.436
77008SOL    HW132921   8.492   2.237   3.375
77008SOL    HW232922   8.551   2.104   3.415
77009SOL     OW32923   7.975  12.108  12.879
77009SOL    HW132924   8.011  12.072  12.960
77009SOL    HW232925   8.050  12.148  12.835
77010SOL     OW32926   1.541   5.050  11.379
77010SOL    HW132927   1.450   5.072  11.402
77010SOL    HW232928   1.533   4.971  11.325
77011SOL     OW32929   5.604   7.715  12.673
77011SOL    HW132930   5.617   7.807  12.692
77011SOL    HW232931   5.623   7.707  12.579
77012SOL     OW32932   8.346   0.728  11.991
77012SOL    HW132933   8.383   0.646  12.025
77012SOL    HW232934   8.315   0.705  11.903
77013SOL     OW32935   5.897   0.224   4.313
77013SOL    HW132936   5.952   0.152   4.346
77013SOL    HW232937   5.830   0.180   4.261
77014SOL     OW32938  14.278   3.979   4.522
77014SOL    HW132939  14.260   4.038   4.448
77014SOL    HW232940  14.254   4.031   4.599
77015SOL     OW32941   5.617   9.801  13.790
77015SOL    HW132942   5.702   9.846  13.788
77015SOL    HW232943   5.611   9.766  13.879
77016SOL     OW32944  13.594   0.106  13.983
77016SOL    HW132945  13.578   0.194  13.950
77016SOL    HW232946  13.688   0.103  14.001
77017SOL     OW32947   1.922   1.728   6.737
77017SOL    HW132948   1.961   1.807   6.699
77017SOL    HW232949   1.957   1.724   6.826
77018SOL     OW32950  14.767   2.672   6.694
77018SOL    HW132951  14.724   2.669   6.608
77018SOL    HW232952  14.712   2.616   6.749
77019SOL     OW32953   5.296  11.352   7.216
77019SOL    HW132954   5.381  11.391   7.237
77019SOL    HW232955   5.314  11.294   7.142
77020SOL     OW32956   1.686   7.345   9.000
77020SOL    HW132957   1.764   7.377   8.954
77020SOL    HW232958   1.720   7.282   9.064
77021SOL     OW32959   0.166  11.590   3.424
77021SOL    HW132960   0.127  11.527   3.363
77021SOL    HW232961   0.131  11.564   3.509
77022SOL     OW32962  10.867   5.148   5.980
77022SOL    HW132963  10.896   5.072   5.928
77022SOL    HW232964  10.861   5.219   5.917
77023SOL     OW32965   1.729   8.169  11.827
77023SOL    HW132966   1.715   8.256  11.866
77023SOL    HW232967   1.783   8.186  11.750
77024SOL     OW32968   1.928   0.824   7.076
77024SOL    HW132969   1.844   0.786   7.049
77024SOL    HW232970   1.904   0.894   7.136
77025SOL     OW32971  14.747  11.959   4.133
77025SOL    HW132972  14.722  11.966   4.041
77025SOL    HW232973  14.753  11.865   4.149
77026SOL     OW32974   5.665   3.911   4.607
77026SOL    HW132975   5.578   3.872   4.594
77026SOL    HW232976   5.724   3.836   4.612
77027SOL     OW32977   6.320  11.941   6.061
77027SOL    HW132978   6.296  11.856   6.098
77027SOL    HW232979   6.376  11.920   5.986
77028SOL     OW32980   9.315   6.386  10.429
77028SOL    HW132981   9.320   6.298  10.466
77028SOL    HW232982   9.246   6.379  10.363
77029SOL     OW32983  13.309   4.448  10.711
77029SOL    HW132984  13.276   4.443  10.621
77029SOL    HW232985  13.324   4.357  10.737
77030SOL     OW32986   3.907   8.740   5.159
77030SOL    HW132987   3.923   8.728   5.065
77030SOL    HW232988   3.974   8.686   5.201
77031SOL     OW32989  10.717  11.102   2.776
77031SOL    HW132990  10.641  11.045   2.767
77031SOL    HW232991  10.699  11.176   2.718
77032SOL     OW32992  12.263  12.444   8.358
77032SOL    HW132993  12.290  12.414   8.272
77032SOL    HW232994  12.281  12.538   8.358
77033SOL     OW32995   1.680   4.046   5.219
77033SOL    HW132996   1.586   4.056   5.209
77033SOL    HW232997   1.716   4.132   5.196
77034SOL     OW32998   6.432   1.911   1.316
77034SOL    HW132999   6.504   1.902   1.378
77034SOL    HW233000   6.420   2.006   1.307
77035SOL     OW33001   6.363   1.783   1.085
77035SOL    HW133002   6.391   1.812   1.172
77035SOL    HW233003   6.360   1.688   1.091
77036SOL     OW33004  13.986   8.115  13.759
77036SOL    HW133005  13.947   8.193  13.799
77036SOL    HW233006  13.965   8.044  13.820
77037SOL     OW33007   6.715   2.662   2.063
77037SOL    HW133008   6.770   2.668   1.985
77037SOL    HW233009   6.718   2.569   2.088
77038SOL     OW33010   7.825  14.331  11.779
77038SOL    HW133011   7.915  14.299  11.785
77038SOL    HW233012   7.806  14.366  11.867
77039SOL     OW33013   9.342   2.556   6.460
77039SOL    HW133014   9.294   2.634   6.485
77039SOL    HW233015   9.411   2.548   6.526
77040SOL     OW33016   8.881  13.329  11.033
77040SOL    HW133017   8.876  13.233  11.034
77040SOL    HW233018   8.890  13.354  11.125
77041SOL     OW33019  13.602   0.812   6.233
77041SOL    HW133020  13.622   0.905   6.230
77041SOL    HW233021  13.603   0.790   6.326
77042SOL     OW33022  13.074  14.793  11.906
77042SOL    HW133023  13.052  14.865  11.965
77042SOL    HW233024  13.166  14.775  11.924
77043SOL     OW33025   4.987  10.280   1.992
77043SOL    HW133026   4.979  10.228   1.911
77043SOL    HW233027   4.952  10.224   2.060
77044SOL     OW33028   9.095   8.590  10.687
77044SOL    HW133029   9.021   8.604  10.747
77044SOL    HW233030   9.130   8.505  10.712
77045SOL     OW33031   9.808   1.988  10.512
77045SOL    HW133032   9.768   1.919  10.565
77045SOL    HW233033   9.846   1.942  10.437
77046SOL     OW33034   7.127  13.852   5.687
77046SOL    HW133035   7.038  13.840   5.651
77046SOL    HW233036   7.137  13.947   5.694
77047SOL     OW33037   6.934  12.579   0.656
77047SOL    HW133038   6.944  12.632   0.576
77047SOL    HW233039   6.951  12.490   0.627
77048SOL     OW33040  12.386  14.375   2.198
77048SOL    HW133041  12.474  14.371   2.162
77048SOL    HW233042  12.328  14.359   2.123
77049SOL     OW33043  14.267  14.179  10.569
77049SOL    HW133044  14.218  14.257  10.543
77049SOL    HW233045  14.359  14.207  10.570
77050SOL     OW33046   0.129   5.711   7.302
77050SOL    HW133047   0.136   5.617   7.286
77050SOL    HW233048   0.042   5.722   7.341
77051SOL     OW33049  11.399   5.639   1.189
77051SOL    HW133050  11.359   5.654   1.103
77051SOL    HW233051  11.482   5.595   1.169
77052SOL     OW33052   2.555   7.554   2.020
77052SOL    HW133053   2.644   7.549   1.984
77052SOL    HW233054   2.499   7.523   1.950
77053SOL     OW33055   2.263   6.454   5.484
77053SOL    HW133056   2.280   6.488   5.572
77053SOL    HW233057   2.268   6.531   5.428
77054SOL     OW33058  12.164   4.475   5.311
77054SOL    HW133059  12.196   4.565   5.314
77054SOL    HW233060  12.225   4.430   5.253
77055SOL     OW33061  11.554   5.076  13.941
77055SOL    HW133062  11.532   5.100  13.851
77055SOL    HW233063  11.480   5.107  13.993
77056SOL     OW33064   4.457   9.802  10.384
77056SOL    HW133065   4.365   9.825  10.372
77056SOL    HW233066   4.505   9.881  10.359
77057SOL     OW33067   2.757   3.249  10.663
77057SOL    HW133068   2.850   3.261  10.645
77057SOL    HW233069   2.740   3.157  10.640
77058SOL     OW33070   6.140   0.378  12.163
77058SOL    HW133071   6.095   0.346  12.241
77058SOL    HW233072   6.131   0.307  12.100
77059SOL     OW33073   1.631   6.732  10.151
77059SOL    HW133074   1.573   6.727  10.227
77059SOL    HW233075   1.593   6.801  10.096
77060SOL     OW33076   4.328   7.876   7.560
77060SOL    HW133077   4.352   7.966   7.579
77060SOL    HW233078   4.307   7.875   7.467
77061SOL     OW33079  11.921  10.637   9.620
77061SOL    HW133080  11.896  10.676   9.536
77061SOL    HW233081  12.010  10.667   9.635
77062SOL     OW33082   8.837   9.413   3.554
77062SOL    HW133083   8.757   9.362   3.537
77062SOL    HW233084   8.898   9.349   3.592
77063SOL     OW33085  13.020   2.767  11.956
77063SOL    HW133086  12.951   2.702  11.943
77063SOL    HW233087  12.977   2.838  12.005
77064SOL     OW33088   9.727   9.966  12.725
77064SOL    HW133089   9.659   9.976  12.658
77064SOL    HW233090   9.680   9.980  12.808
77065SOL     OW33091   0.947  12.086   4.815
77065SOL    HW133092   0.909  12.010   4.858
77065SOL    HW233093   0.876  12.120   4.760
77066SOL     OW33094  13.131  14.007   2.359
77066SOL    HW133095  13.184  13.938   2.318
77066SOL    HW233096  13.168  14.017   2.446
77067SOL     OW33097   0.329   8.696   6.782
77067SOL    HW133098   0.366   8.653   6.705
77067SOL    HW233099   0.290   8.625   6.833
77068SOL     OW33100   2.554   8.080   6.131
77068SOL    HW133101   2.626   8.034   6.088
77068SOL    HW233102   2.591   8.109   6.215
77069SOL     OW33103   9.786   5.787  11.515
77069SOL    HW133104   9.875   5.821  11.504
77069SOL    HW233105   9.772   5.787  11.610
77070SOL     OW33106   8.551  12.972  13.729
77070SOL    HW133107   8.567  12.992  13.821
77070SOL    HW233108   8.619  12.909  13.707
77071SOL     OW33109   7.904   4.982  14.810
77071SOL    HW133110   7.916   4.922  14.736
77071SOL    HW233111   7.992   5.000  14.840
77072SOL     OW33112   5.703  11.995  14.483
77072SOL    HW133113   5.678  11.911  14.520
77072SOL    HW233114   5.749  11.973  14.402
77073SOL     OW33115   1.794   4.071   9.241
77073SOL    HW133116   1.758   4.139   9.298
77073SOL    HW233117   1.717   4.028   9.204
77074SOL     OW33118  11.818  14.063   3.512
77074SOL    HW133119  11.736  14.021   3.537
77074SOL    HW233120  11.816  14.065   3.416
77075SOL     OW33121   7.775  11.537   3.200
77075SOL    HW133122   7.682  11.513   3.198
77075SOL    HW233123   7.783  11.606   3.133
77076SOL     OW33124   9.190   2.942   2.228
77076SOL    HW133125   9.131   3.014   2.248
77076SOL    HW233126   9.275   2.984   2.215
77077SOL     OW33127  11.266   5.964   4.929
77077SOL    HW133128  11.226   5.978   5.015
77077SOL    HW233129  11.206   6.006   4.867
77078SOL     OW33130   5.067   1.119  14.619
77078SOL    HW133131   5.024   1.161  14.693
77078SOL    HW233132   5.156   1.155  14.618
77079SOL     OW33133  14.349   1.130   2.452
77079SOL    HW133134  14.296   1.080   2.514
77079SOL    HW233135  14.319   1.102   2.366
77080SOL     OW33136   6.062   9.641   6.009
77080SOL    HW133137   5.976   9.613   5.980
77080SOL    HW233138   6.070   9.606   6.097
77081SOL     OW33139   1.024   8.816   7.848
77081SOL    HW133140   0.929   8.807   7.858
77081SOL    HW233141   1.044   8.773   7.765
77082SOL     OW33142   6.913   4.259   4.147
77082SOL    HW133143   6.827   4.272   4.186
77082SOL    HW233144   6.895   4.216   4.063
77083SOL     OW33145   2.098   1.260   7.966
77083SOL    HW133146   2.183   1.303   7.954
77083SOL    HW233147   2.119   1.167   7.966
77084SOL     OW33148   6.535   5.171   9.219
77084SOL    HW133149   6.473   5.099   9.225
77084SOL    HW233150   6.525   5.204   9.130
77085SOL     OW33151   9.570   6.546   8.944
77085SOL    HW133152   9.661   6.574   8.954
77085SOL    HW233153   9.570   6.455   8.975
77086SOL     OW33154   1.738   3.382   8.565
77086SOL    HW133155   1.818   3.329   8.562
77086SOL    HW233156   1.711   3.389   8.473
77087SOL     OW33157   8.503   1.849   1.952
77087SOL    HW133158   8.536   1.761   1.933
77087SOL    HW233159   8.433   1.834   2.016
77088SOL     OW33160   7.436   2.982   6.232
77088SOL    HW133161   7.519   2.976   6.183
77088SOL    HW233162   7.383   3.043   6.181
77089SOL     OW33163   0.225   4.548   4.059
77089SOL    HW133164   0.179   4.613   4.006
77089SOL    HW233165   0.181   4.465   4.040
77090SOL     OW33166  13.640   7.883  11.677
77090SOL    HW133167  13.649   7.795  11.714
77090SOL    HW233168  13.624   7.939  11.753
77091SOL     OW33169   0.303  14.507   3.796
77091SOL    HW133170   0.208  14.495   3.798
77091SOL    HW233171   0.329  14.502   3.888
77092SOL     OW33172  11.849   3.743   7.565
77092SOL    HW133173  11.889   3.703   7.487
77092SOL    HW233174  11.755   3.737   7.549
77093SOL     OW33175   9.198   6.037   7.728
77093SOL    HW133176   9.269   6.078   7.678
77093SOL    HW233177   9.155   5.979   7.665
77094SOL     OW33178   3.405   5.372   0.091
77094SOL    HW133179   3.483   5.355   0.143
77094SOL    HW233180   3.439   5.396   0.005
77095SOL     OW33181  14.398  12.539  10.935
77095SOL    HW133182  14.440  12.615  10.895
77095SOL    HW233183  14.328  12.577  10.989
77096SOL     OW33184   6.380   4.837  10.023
77096SOL    HW133185   6.356   4.758   9.973
77096SOL    HW233186   6.426   4.892   9.961
77097SOL     OW33187   1.308   9.374   0.236
77097SOL    HW133188   1.378   9.397   0.296
77097SOL    HW233189   1.351   9.367   0.150
77098SOL     OW33190  11.420  11.085   4.194
77098SOL    HW133191  11.333  11.089   4.233
77098SOL    HW233192  11.479  11.117   4.262
77099SOL     OW33193   6.134  10.891   2.595
77099SOL    HW133194   6.123  10.894   2.690
77099SOL    HW233195   6.052  10.925   2.559
77100SOL     OW33196   4.468   4.035   4.539
77100SOL    HW133197   4.463   4.110   4.598
77100SOL    HW233198   4.376   4.012   4.523
77101SOL     OW33199   5.594  10.547   3.243
77101SOL    HW133200   5.530  10.591   3.299
77101SOL    HW233201   5.632  10.618   3.190
77102SOL     OW33202   6.769   8.768   4.881
77102SOL    HW133203   6.754   8.784   4.788
77102SOL    HW233204   6.737   8.847   4.924
77103SOL     OW33205  14.698  13.026   1.732
77103SOL    HW133206  14.780  12.986   1.703
77103SOL    HW233207  14.681  13.095   1.668
77104SOL     OW33208   3.039   7.542   8.592
77104SOL    HW133209   3.130   7.530   8.565
77104SOL    HW233210   2.992   7.558   8.510
77105SOL     OW33211  11.930  14.064   9.538
77105SOL    HW133212  12.013  14.048   9.494
77105SOL    HW233213  11.944  14.033   9.628
77106SOL     OW33214   0.499   1.828   9.350
77106SOL    HW133215   0.537   1.894   9.408
77106SOL    HW233216   0.554   1.751   9.363
77107SOL     OW33217   8.542   8.035  14.730
77107SOL    HW133218   8.617   8.084  14.696
77107SOL    HW233219   8.576   7.989  14.807
77108SOL     OW33220  13.955  12.389   2.388
77108SOL    HW133221  13.924  12.399   2.478
77108SOL    HW233222  13.976  12.296   2.380
77109SOL     OW33223   3.658   2.005   8.855
77109SOL    HW133224   3.578   2.051   8.881
77109SOL    HW233225   3.727   2.047   8.907
77110SOL     OW33226   7.596   4.884   0.722
77110SOL    HW133227   7.516   4.838   0.745
77110SOL    HW233228   7.569   4.950   0.658
77111SOL     OW33229   9.023  12.135  10.634
77111SOL    HW133230   8.973  12.193  10.691
77111SOL    HW233231   8.960  12.067  10.609
77112SOL     OW33232   8.268  11.431  13.076
77112SOL    HW133233   8.219  11.373  13.018
77112SOL    HW233234   8.223  11.423  13.160
77113SOL     OW33235  11.134  10.202   6.902
77113SOL    HW133236  11.104  10.230   6.815
77113SOL    HW233237  11.192  10.129   6.885
77114SOL     OW33238   7.815   2.883   0.004
77114SOL    HW133239   7.730   2.913  14.850
77114SOL    HW233240   7.841   2.813  14.824
77115SOL     OW33241   7.786   2.314   0.189
77115SOL    HW133242   7.774   2.398   0.145
77115SOL    HW233243   7.764   2.248   0.123
77116SOL     OW33244  13.369   2.251   5.769
77116SOL    HW133245  13.331   2.165   5.789
77116SOL    HW233246  13.463   2.239   5.780
77117SOL     OW33247  12.743   0.048  13.008
77117SOL    HW133248  12.728  14.845  12.964
77117SOL    HW233249  12.666   0.059  13.065
77118SOL     OW33250   8.939   5.085   8.989
77118SOL    HW133251   8.920   5.090   9.083
77118SOL    HW233252   8.939   4.991   8.970
77119SOL     OW33253  12.204  13.284  13.808
77119SOL    HW133254  12.241  13.370  13.789
77119SOL    HW233255  12.209  13.276  13.903
77120SOL     OW33256   5.642  13.227   8.569
77120SOL    HW133257   5.638  13.177   8.650
77120SOL    HW233258   5.735  13.245   8.557
77121SOL     OW33259   6.457   2.647   5.963
77121SOL    HW133260   6.470   2.607   5.877
77121SOL    HW233261   6.507   2.592   6.023
77122SOL     OW33262  14.832   0.735   1.278
77122SOL    HW133263  14.815   0.829   1.278
77122SOL    HW233264   0.048   0.728   1.283
77123SOL     OW33265   7.729   4.370   8.985
77123SOL    HW133266   7.767   4.290   8.950
77123SOL    HW233267   7.740   4.435   8.915
77124SOL     OW33268   4.322  14.359   3.847
77124SOL    HW133269   4.303  14.276   3.803
77124SOL    HW233270   4.418  14.364   3.850
77125SOL     OW33271   9.747   4.773  10.446
77125SOL    HW133272   9.737   4.710  10.374
77125SOL    HW233273   9.828   4.746  10.489
77126SOL     OW33274  13.452   6.451  10.471
77126SOL    HW133275  13.363   6.416  10.466
77126SOL    HW233276  13.484   6.423  10.557
77127SOL     OW33277  10.344   5.407   1.400
77127SOL    HW133278  10.433   5.436   1.379
77127SOL    HW233279  10.341   5.409   1.496
77128SOL     OW33280  12.628  13.988  11.576
77128SOL    HW133281  12.619  13.957  11.485
77128SOL    HW233282  12.549  14.040  11.591
77129SOL     OW33283  12.988  14.774   6.304
77129SOL    HW133284  13.033  14.704   6.351
77129SOL    HW233285  12.976  14.843   6.370
77130SOL     OW33286   9.951  11.998  11.715
77130SOL    HW133287  10.013  11.953  11.772
77130SOL    HW233288   9.933  11.937  11.645
77131SOL     OW33289  12.439   0.183   5.792
77131SOL    HW133290  12.370   0.117   5.786
77131SOL    HW233291  12.409   0.255   5.737
77132SOL     OW33292   1.950   3.575  13.186
77132SOL    HW133293   1.864   3.616  13.195
77132SOL    HW233294   1.941   3.490  13.229
77133SOL     OW33295   0.329   3.571  11.043
77133SOL    HW133296   0.366   3.628  10.976
77133SOL    HW233297   0.305   3.491  10.996
77134SOL     OW33298   8.211  11.908   0.198
77134SOL    HW133299   8.200  11.906   0.103
77134SOL    HW233300   8.163  11.832   0.230
77135SOL     OW33301   0.375   4.109  11.352
77135SOL    HW133302   0.323   4.079  11.427
77135SOL    HW233303   0.315   4.162  11.300
77136SOL     OW33304   5.336   1.444  14.115
77136SOL    HW133305   5.272   1.515  14.122
77136SOL    HW233306   5.295   1.381  14.057
77137SOL     OW33307   6.587   0.142  12.480
77137SOL    HW133308   6.571   0.224  12.527
77137SOL    HW233309   6.640   0.168  12.404
77138SOL     OW33310  12.108   9.917   8.126
77138SOL    HW133311  12.045   9.946   8.192
77138SOL    HW233312  12.064   9.843   8.083
77139SOL     OW33313   5.710   5.059   8.423
77139SOL    HW133314   5.735   5.063   8.331
77139SOL    HW233315   5.724   5.148   8.456
77140SOL     OW33316   7.524   3.699  12.764
77140SOL    HW133317   7.493   3.659  12.845
77140SOL    HW233318   7.491   3.642  12.695
77141SOL     OW33319   2.394   7.725   0.982
77141SOL    HW133320   2.354   7.769   0.907
77141SOL    HW233321   2.488   7.732   0.966
77142SOL     OW33322   0.560  12.627  14.180
77142SOL    HW133323   0.541  12.565  14.111
77142SOL    HW233324   0.651  12.653  14.166
77143SOL     OW33325   9.637   2.591   1.510
77143SOL    HW133326   9.586   2.515   1.534
77143SOL    HW233327   9.685   2.615   1.589
77144SOL     OW33328  12.297   5.575   9.721
77144SOL    HW133329  12.393   5.580   9.716
77144SOL    HW233330  12.280   5.519   9.798
77145SOL     OW33331  11.071  14.019  13.231
77145SOL    HW133332  11.015  14.084  13.189
77145SOL    HW233333  11.142  14.070  13.271
77146SOL     OW33334  12.008   2.164   7.372
77146SOL    HW133335  12.091   2.195   7.337
77146SOL    HW233336  12.001   2.073   7.344
77147SOL     OW33337  14.813   7.948   7.920
77147SOL    HW133338  14.835   7.883   7.987
77147SOL    HW233339  14.722   7.970   7.939
77148SOL     OW33340   8.511   4.380   8.571
77148SOL    HW133341   8.526   4.449   8.636
77148SOL    HW233342   8.438   4.412   8.518
77149SOL     OW33343   0.962   7.118   0.197
77149SOL    HW133344   0.997   7.190   0.250
77149SOL    HW233345   0.909   7.161   0.130
77150SOL     OW33346  11.850   8.778  13.836
77150SOL    HW133347  11.872   8.726  13.913
77150SOL    HW233348  11.841   8.715  13.765
77151SOL     OW33349   4.681  11.539   0.513
77151SOL    HW133350   4.640  11.468   0.464
77151SOL    HW233351   4.722  11.495   0.588
77152SOL     OW33352   5.560   9.036   2.821
77152SOL    HW133353   5.607   8.958   2.850
77152SOL    HW233354   5.527   9.014   2.734
77153SOL     OW33355  14.058   7.117   9.824
77153SOL    HW133356  13.978   7.081   9.861
77153SOL    HW233357  14.070   7.071   9.741
77154SOL     OW33358   3.347   3.758   6.884
77154SOL    HW133359   3.296   3.838   6.897
77154SOL    HW233360   3.288   3.688   6.912
77155SOL     OW33361   6.481   9.204   7.626
77155SOL    HW133362   6.471   9.279   7.568
77155SOL    HW233363   6.568   9.169   7.605
77156SOL     OW33364   4.062   6.431   1.806
77156SOL    HW133365   4.021   6.395   1.727
77156SOL    HW233366   4.131   6.489   1.774
77157SOL     OW33367  11.941   9.176   8.550
77157SOL    HW133368  11.859   9.128   8.560
77157SOL    HW233369  11.914   9.263   8.521
77158SOL     OW33370   6.903   2.483  10.089
77158SOL    HW133371   6.888   2.516  10.000
77158SOL    HW233372   6.849   2.540  10.145
77159SOL     OW33373   7.936   6.233   3.783
77159SOL    HW133374   7.944   6.200   3.873
77159SOL    HW233375   7.924   6.328   3.793
77160SOL     OW33376   3.938   2.874   0.598
77160SOL    HW133377   4.033   2.886   0.597
77160SOL    HW233378   3.923   2.799   0.541
77161SOL     OW33379   0.341  13.761   2.692
77161SOL    HW133380   0.255  13.723   2.678
77161SOL    HW233381   0.327  13.856   2.684
77162SOL     OW33382  10.525  13.255  10.669
77162SOL    HW133383  10.575  13.195  10.724
77162SOL    HW233384  10.531  13.218  10.581
77163SOL     OW33385   9.778   0.629   0.787
77163SOL    HW133386   9.836   0.573   0.840
77163SOL    HW233387   9.778   0.589   0.701
77164SOL     OW33388  13.473   2.400   5.036
77164SOL    HW133389  13.556   2.356   5.054
77164SOL    HW233390  13.474   2.415   4.942
77165SOL     OW33391  13.573  10.290   6.789
77165SOL    HW133392  13.644  10.245   6.835
77165SOL    HW233393  13.502  10.294   6.852
77166SOL     OW33394  12.046   8.287   4.102
77166SOL    HW133395  12.004   8.225   4.161
77166SOL    HW233396  12.018   8.260   4.015
77167SOL     OW33397   8.968  12.715  12.251
77167SOL    HW133398   8.947  12.686  12.162
77167SOL    HW233399   9.034  12.784  12.239
77168SOL     OW33400   1.810   3.146  10.594
77168SOL    HW133401   1.722   3.183  10.604
77168SOL    HW233402   1.851   3.200  10.526
77169SOL     OW33403   5.334   3.733   7.482
77169SOL    HW133404   5.420   3.691   7.474
77169SOL    HW233405   5.334   3.800   7.414
77170SOL     OW33406  13.265   9.967   6.030
77170SOL    HW133407  13.251   9.986   5.937
77170SOL    HW233408  13.352  10.004   6.049
77171SOL     OW33409  13.046   7.918  12.103
77171SOL    HW133410  13.139   7.923  12.082
77171SOL    HW233411  13.033   7.828  12.134
77172SOL     OW33412  13.635  13.203  10.656
77172SOL    HW133413  13.547  13.234  10.633
77172SOL    HW233414  13.659  13.255  10.733
77173SOL     OW33415   2.797  13.486   7.090
77173SOL    HW133416   2.733  13.533   7.036
77173SOL    HW233417   2.868  13.465   7.030
77174SOL     OW33418  11.243  12.817  14.081
77174SOL    HW133419  11.288  12.896  14.112
77174SOL    HW233420  11.173  12.849  14.025
77175SOL     OW33421   2.958   0.624   4.380
77175SOL    HW133422   2.881   0.607   4.435
77175SOL    HW233423   3.015   0.678   4.434
77176SOL     OW33424  13.615  11.805  11.170
77176SOL    HW133425  13.644  11.800  11.261
77176SOL    HW233426  13.528  11.845  11.174
77177SOL     OW33427  14.684  10.712  13.713
77177SOL    HW133428  14.660  10.804  13.724
77177SOL    HW233429  14.779  10.710  13.725
77178SOL     OW33430   1.946   9.613   9.986
77178SOL    HW133431   2.016   9.666   9.948
77178SOL    HW233432   1.978   9.523   9.982
77179SOL     OW33433  13.406   5.725  11.570
77179SOL    HW133434  13.455   5.649  11.603
77179SOL    HW233435  13.464   5.800  11.588
77180SOL     OW33436  12.761   1.912   1.820
77180SOL    HW133437  12.707   1.867   1.755
77180SOL    HW233438  12.718   1.895   1.904
77181SOL     OW33439  14.107   9.783  11.104
77181SOL    HW133440  14.166   9.821  11.040
77181SOL    HW233441  14.158   9.778  11.185
77182SOL     OW33442   5.983   3.373   1.123
77182SOL    HW133443   5.959   3.421   1.044
77182SOL    HW233444   6.050   3.428   1.165
77183SOL     OW33445   5.052   1.168  12.809
77183SOL    HW133446   4.998   1.088  12.809
77183SOL    HW233447   5.127   1.146  12.755
77184SOL     OW33448   6.533   4.297   5.325
77184SOL    HW133449   6.552   4.203   5.319
77184SOL    HW233450   6.448   4.308   5.284
77185SOL     OW33451   0.224   7.277   1.755
77185SOL    HW133452   0.200   7.279   1.848
77185SOL    HW233453   0.142   7.264   1.709
77186SOL     OW33454   0.159   1.030   9.552
77186SOL    HW133455   0.174   1.101   9.489
77186SOL    HW233456   0.110   1.072   9.624
77187SOL     OW33457   1.006   9.377   5.735
77187SOL    HW133458   0.938   9.432   5.773
77187SOL    HW233459   1.063   9.437   5.687
77188SOL     OW33460  13.802  13.764   5.209
77188SOL    HW133461  13.872  13.819   5.174
77188SOL    HW233462  13.823  13.676   5.178
77189SOL     OW33463   2.608  14.296   4.591
77189SOL    HW133464   2.585  14.227   4.530
77189SOL    HW233465   2.701  14.313   4.575
77190SOL     OW33466  13.306   6.482   8.476
77190SOL    HW133467  13.283   6.548   8.542
77190SOL    HW233468  13.335   6.406   8.528
77191SOL     OW33469   0.881   1.518  11.507
77191SOL    HW133470   0.896   1.477  11.592
77191SOL    HW233471   0.795   1.487  11.479
77192SOL     OW33472   5.130   6.472   2.289
77192SOL    HW133473   5.075   6.394   2.287
77192SOL    HW233474   5.078   6.537   2.337
77193SOL     OW33475   0.798   3.216  10.094
77193SOL    HW133476   0.855   3.275  10.045
77193SOL    HW233477   0.795   3.137  10.039
77194SOL     OW33478  14.150   8.619  13.317
77194SOL    HW133479  14.238   8.588  13.298
77194SOL    HW233480  14.154   8.714  13.305
77195SOL     OW33481   0.123   7.296   3.307
77195SOL    HW133482   0.186   7.368   3.306
77195SOL    HW233483   0.048   7.329   3.258
77196SOL     OW33484   5.024  14.713   1.207
77196SOL    HW133485   4.946  14.674   1.246
77196SOL    HW233486   5.097  14.660   1.240
77197SOL     OW33487  13.397   4.911   7.198
77197SOL    HW133488  13.492   4.921   7.197
77197SOL    HW233489  13.381   4.829   7.245
77198SOL     OW33490  11.837   2.986   8.638
77198SOL    HW133491  11.871   2.909   8.594
77198SOL    HW233492  11.876   3.060   8.592
77199SOL     OW33493   0.004   8.471   9.848
77199SOL    HW133494  14.877   8.376   9.853
77199SOL    HW233495   0.080   8.492   9.903
77200SOL     OW33496   0.238  10.704   5.639
77200SOL    HW133497   0.193  10.746   5.565
77200SOL    HW233498   0.205  10.614   5.638
77201SOL     OW33499   0.562   4.834   3.550
77201SOL    HW133500   0.588   4.819   3.460
77201SOL    HW233501   0.557   4.929   3.558
77202SOL     OW33502  14.106   7.080  14.668
77202SOL    HW133503  14.039   7.145  14.689
77202SOL    HW233504  14.076   7.039  14.587
77203SOL     OW33505   3.201   0.397   5.532
77203SOL    HW133506   3.222   0.418   5.441
77203SOL    HW233507   3.222   0.304   5.540
77204SOL     OW33508   0.794   1.101   6.510
77204SOL    HW133509   0.770   1.053   6.590
77204SOL    HW233510   0.711   1.109   6.462
77205SOL     OW33511  10.063   2.023  14.387
77205SOL    HW133512  10.028   1.942  14.424
77205SOL    HW233513   9.988   2.064  14.344
77206SOL     OW33514  12.901   2.135  14.156
77206SOL    HW133515  12.960   2.209  14.142
77206SOL    HW233516  12.877   2.141  14.249
77207SOL     OW33517   3.427   8.005  12.276
77207SOL    HW133518   3.350   7.951  12.260
77207SOL    HW233519   3.391   8.089  12.306
77208SOL     OW33520   9.025  11.031   4.376
77208SOL    HW133521   9.106  10.981   4.383
77208SOL    HW233522   9.020  11.080   4.458
77209SOL     OW33523  12.829   4.690   3.530
77209SOL    HW133524  12.770   4.674   3.457
77209SOL    HW233525  12.772   4.712   3.604
77210SOL     OW33526  14.119   9.254   2.134
77210SOL    HW133527  14.144   9.346   2.140
77210SOL    HW233528  14.133   9.231   2.043
77211SOL     OW33529   2.488   1.401   5.626
77211SOL    HW133530   2.473   1.395   5.720
77211SOL    HW233531   2.580   1.428   5.618
77212SOL     OW33532   6.506   9.008  12.853
77212SOL    HW133533   6.492   8.917  12.827
77212SOL    HW233534   6.482   9.059  12.775
77213SOL     OW33535  13.353   0.700   6.201
77213SOL    HW133536  13.315   0.780   6.238
77213SOL    HW233537  13.447   0.719   6.195
77214SOL     OW33538   5.533   7.503  10.260
77214SOL    HW133539   5.524   7.433  10.326
77214SOL    HW233540   5.600   7.561  10.296
77215SOL     OW33541  12.011   3.157   8.500
77215SOL    HW133542  12.104   3.170   8.483
77215SOL    HW233543  11.967   3.201   8.427
77216SOL     OW33544   7.197   5.623   9.879
77216SOL    HW133545   7.200   5.718   9.868
77216SOL    HW233546   7.170   5.590   9.793
77217SOL     OW33547   3.902  10.701   2.708
77217SOL    HW133548   3.910  10.608   2.729
77217SOL    HW233549   3.906  10.705   2.613
77218SOL     OW33550   5.221   6.736  13.127
77218SOL    HW133551   5.151   6.689  13.081
77218SOL    HW233552   5.182   6.820  13.152
77219SOL     OW33553   1.712   0.115  10.206
77219SOL    HW133554   1.737   0.059  10.133
77219SOL    HW233555   1.780   0.101  10.272
77220SOL     OW33556   2.356  10.339  10.639
77220SOL    HW133557   2.355  10.337  10.543
77220SOL    HW233558   2.327  10.428  10.661
77221SOL     OW33559  11.587  13.736   4.348
77221SOL    HW133560  11.597  13.752   4.254
77221SOL    HW233561  11.557  13.645   4.354
77222SOL     OW33562  12.135   4.256  10.685
77222SOL    HW133563  12.215   4.300  10.654
77222SOL    HW233564  12.134   4.173  10.637
77223SOL     OW33565  13.608  13.321   8.850
77223SOL    HW133566  13.579  13.395   8.797
77223SOL    HW233567  13.665  13.271   8.793
77224SOL     OW33568  10.019   6.814   3.873
77224SOL    HW133569   9.971   6.841   3.795
77224SOL    HW233570   9.959   6.828   3.945
77225SOL     OW33571  11.896  13.260  11.784
77225SOL    HW133572  11.849  13.342  11.773
77225SOL    HW233573  11.911  13.252  11.878
77226SOL     OW33574  10.555   2.834  11.695
77226SOL    HW133575  10.576   2.915  11.650
77226SOL    HW233576  10.616   2.830  11.768
77227SOL     OW33577   3.243   1.826   4.473
77227SOL    HW133578   3.211   1.769   4.403
77227SOL    HW233579   3.184   1.901   4.472
77228SOL     OW33580   2.678   8.479   8.451
77228SOL    HW133581   2.727   8.400   8.476
77228SOL    HW233582   2.587   8.450   8.447
77229SOL     OW33583  10.650   3.293  12.482
77229SOL    HW133584  10.735   3.337  12.491
77229SOL    HW233585  10.588   3.363  12.463
77230SOL     OW33586   5.707   2.118   3.288
77230SOL    HW133587   5.658   2.184   3.239
77230SOL    HW233588   5.775   2.168   3.334
77231SOL     OW33589   5.144  12.722   0.106
77231SOL    HW133590   5.165  12.674   0.026
77231SOL    HW233591   5.227  12.763   0.131
77232SOL     OW33592   3.533  12.379  10.860
77232SOL    HW133593   3.559  12.377  10.768
77232SOL    HW233594   3.553  12.291  10.892
77233SOL     OW33595  11.295   2.313   8.455
77233SOL    HW133596  11.253   2.386   8.499
77233SOL    HW233597  11.360   2.281   8.518
77234SOL     OW33598   4.530  14.448   4.202
77234SOL    HW133599   4.622  14.465   4.181
77234SOL    HW233600   4.483  14.524   4.167
77235SOL     OW33601  14.221  11.197   1.436
77235SOL    HW133602  14.245  11.192   1.529
77235SOL    HW233603  14.148  11.260   1.434
77236SOL     OW33604   6.606  10.393   6.482
77236SOL    HW133605   6.575  10.403   6.572
77236SOL    HW233606   6.580  10.304   6.458
77237SOL     OW33607   9.489   1.415  14.095
77237SOL    HW133608   9.583   1.428  14.109
77237SOL    HW233609   9.466   1.343  14.154
77238SOL     OW33610   5.396   9.331  14.688
77238SOL    HW133611   5.419   9.356  14.777
77238SOL    HW233612   5.480   9.313  14.645
77239SOL     OW33613  11.843   6.227   6.112
77239SOL    HW133614  11.781   6.196   6.178
77239SOL    HW233615  11.841   6.322   6.120
77240SOL     OW33616   3.014   9.745   1.615
77240SOL    HW133617   2.971   9.738   1.529
77240SOL    HW233618   3.107   9.738   1.595
77241SOL     OW33619  13.790   6.003   1.153
77241SOL    HW133620  13.830   6.090   1.163
77241SOL    HW233621  13.827   5.969   1.071
77242SOL     OW33622   1.654  12.021   1.018
77242SOL    HW133623   1.662  12.032   0.923
77242SOL    HW233624   1.743  12.038   1.051
77243SOL     OW33625  11.933   2.476   6.634
77243SOL    HW133626  11.893   2.389   6.625
77243SOL    HW233627  11.950   2.503   6.544
77244SOL     OW33628   4.153   8.996  11.191
77244SOL    HW133629   4.212   8.922  11.178
77244SOL    HW233630   4.065   8.959  11.178
77245SOL     OW33631   6.323   2.826   2.925
77245SOL    HW133632   6.316   2.771   2.847
77245SOL    HW233633   6.311   2.915   2.893
77246SOL     OW33634   7.728   8.850  12.903
77246SOL    HW133635   7.685   8.892  12.828
77246SOL    HW233636   7.656   8.805  12.948
77247SOL     OW33637   9.357  13.457  10.359
77247SOL    HW133638   9.306  13.423  10.432
77247SOL    HW233639   9.418  13.386  10.337
77248SOL     OW33640  12.637  12.449   5.206
77248SOL    HW133641  12.566  12.389   5.228
77248SOL    HW233642  12.717  12.400   5.224
77249SOL     OW33643  13.544   7.954   2.667
77249SOL    HW133644  13.601   8.008   2.722
77249SOL    HW233645  13.583   7.960   2.579
77250SOL     OW33646  11.577   2.208  12.644
77250SOL    HW133647  11.490   2.169  12.648
77250SOL    HW233648  11.586   2.254  12.728
77251SOL     OW33649   0.234  10.067   3.762
77251SOL    HW133650   0.224  10.132   3.831
77251SOL    HW233651   0.232  10.118   3.681
77252SOL     OW33652  14.063   2.727   1.707
77252SOL    HW133653  14.062   2.795   1.639
77252SOL    HW233654  13.972   2.697   1.712
77253SOL     OW33655   6.805   9.006   1.254
77253SOL    HW133656   6.840   9.065   1.188
77253SOL    HW233657   6.878   8.947   1.274
77254SOL     OW33658  11.161   4.134  12.126
77254SOL    HW133659  11.158   4.164  12.035
77254SOL    HW233660  11.200   4.046  12.120
77255SOL     OW33661   8.109   8.640  14.752
77255SOL    HW133662   8.027   8.593  14.758
77255SOL    HW233663   8.101   8.711  14.815
77256SOL     OW33664   9.980   5.989   3.308
77256SOL    HW133665   9.900   5.937   3.296
77256SOL    HW233666   9.960   6.045   3.383
77257SOL     OW33667   1.381   3.785   2.703
77257SOL    HW133668   1.435   3.859   2.732
77257SOL    HW233669   1.432   3.708   2.724
77258SOL     OW33670   6.687   9.480  14.199
77258SOL    HW133671   6.615   9.507  14.256
77258SOL    HW233672   6.697   9.387  14.216
77259SOL     OW33673   0.555   8.488  12.352
77259SOL    HW133674   0.618   8.560  12.360
77259SOL    HW233675   0.539   8.481  12.258
77260SOL     OW33676  14.597   2.443  10.621
77260SOL    HW133677  14.634   2.401  10.544
77260SOL    HW233678  14.556   2.372  10.670
77261SOL     OW33679  10.158   2.842  12.442
77261SOL    HW133680  10.179   2.929  12.407
77261SOL    HW233681  10.094   2.806  12.380
77262SOL     OW33682   4.136   9.232   4.284
77262SOL    HW133683   4.206   9.283   4.324
77262SOL    HW233684   4.102   9.289   4.215
77263SOL     OW33685  11.105   7.200   9.090
77263SOL    HW133686  11.043   7.180   9.020
77263SOL    HW233687  11.178   7.140   9.075
77264SOL     OW33688  12.095   6.034   4.338
77264SOL    HW133689  12.159   6.004   4.274
77264SOL    HW233690  12.055   5.954   4.372
77265SOL     OW33691   6.115   1.289   0.339
77265SOL    HW133692   6.026   1.316   0.360
77265SOL    HW233693   6.146   1.244   0.418
77266SOL     OW33694   8.302  12.488  13.127
77266SOL    HW133695   8.211  12.489  13.156
77266SOL    HW233696   8.317  12.398  13.098
77267SOL     OW33697  10.269  13.348   8.317
77267SOL    HW133698  10.296  13.256   8.316
77267SOL    HW233699  10.197  13.353   8.254
77268SOL     OW33700   3.686   6.030   8.121
77268SOL    HW133701   3.647   5.986   8.045
77268SOL    HW233702   3.622   6.097   8.145
77269SOL     OW33703   8.956  14.494   3.479
77269SOL    HW133704   9.048  14.511   3.503
77269SOL    HW233705   8.949  14.399   3.477
77270SOL     OW33706   8.129  13.261  10.499
77270SOL    HW133707   8.202  13.315  10.530
77270SOL    HW233708   8.060  13.324  10.479
77271SOL     OW33709  11.660   0.057   1.524
77271SOL    HW133710  11.638   0.075   1.615
77271SOL    HW233711  11.718  14.861   1.528
77272SOL     OW33712   1.286   9.388   9.151
77272SOL    HW133713   1.373   9.368   9.187
77272SOL    HW233714   1.272   9.480   9.173
77273SOL     OW33715   1.034   3.153  13.238
77273SOL    HW133716   1.028   3.143  13.143
77273SOL    HW233717   0.945   3.135  13.270
77274SOL     OW33718  13.294   7.126  10.895
77274SOL    HW133719  13.299   7.200  10.955
77274SOL    HW233720  13.231   7.066  10.935
77275SOL     OW33721   0.401   4.192   4.363
77275SOL    HW133722   0.442   4.160   4.444
77275SOL    HW233723   0.473   4.226   4.312
77276SOL     OW33724   4.226   8.753   5.677
77276SOL    HW133725   4.282   8.814   5.726
77276SOL    HW233726   4.207   8.798   5.595
77277SOL     OW33727   9.870  13.354   8.313
77277SOL    HW133728   9.913  13.411   8.248
77277SOL    HW233729   9.790  13.402   8.337
77278SOL     OW33730   0.123  10.010  12.051
77278SOL    HW133731   0.111  10.105  12.058
77278SOL    HW233732   0.158   9.998  11.962
77279SOL     OW33733  13.987  11.819   7.320
77279SOL    HW133734  13.942  11.748   7.366
77279SOL    HW233735  13.931  11.896   7.336
77280SOL     OW33736   0.540  10.411  13.012
77280SOL    HW133737   0.623  10.446  13.044
77280SOL    HW233738   0.494  10.383  13.091
77281SOL     OW33739  12.339   6.115   2.807
77281SOL    HW133740  12.402   6.058   2.765
77281SOL    HW233741  12.276   6.055   2.848
77282SOL     OW33742   2.299   4.848   6.592
77282SOL    HW133743   2.249   4.923   6.624
77282SOL    HW233744   2.276   4.777   6.652
77283SOL     OW33745   2.141   9.850   8.970
77283SOL    HW133746   2.202   9.868   9.041
77283SOL    HW233747   2.105   9.935   8.947
77284SOL     OW33748  10.470   6.709   1.484
77284SOL    HW133749  10.439   6.632   1.531
77284SOL    HW233750  10.485   6.679   1.394
77285SOL     OW33751   1.775  12.056   0.641
77285SOL    HW133752   1.845  12.050   0.576
77285SOL    HW233753   1.800  12.131   0.695
77286SOL     OW33754  14.567   7.339   2.484
77286SOL    HW133755  14.600   7.323   2.572
77286SOL    HW233756  14.617   7.414   2.453
77287SOL     OW33757  11.584  11.428  14.383
77287SOL    HW133758  11.595  11.352  14.327
77287SOL    HW233759  11.627  11.499  14.335
77288SOL     OW33760   7.572  10.531   1.202
77288SOL    HW133761   7.510  10.533   1.130
77288SOL    HW233762   7.579  10.621   1.231
77289SOL     OW33763  13.696   7.217   8.649
77289SOL    HW133764  13.646   7.149   8.602
77289SOL    HW233765  13.629   7.272   8.689
77290SOL     OW33766  13.680  13.151   1.028
77290SOL    HW133767  13.615  13.149   1.098
77290SOL    HW233768  13.760  13.184   1.070
77291SOL     OW33769   5.562   7.503   4.634
77291SOL    HW133770   5.637   7.559   4.616
77291SOL    HW233771   5.486   7.558   4.615
77292SOL     OW33772  10.965  12.235   0.729
77292SOL    HW133773  10.912  12.218   0.651
77292SOL    HW233774  11.024  12.160   0.735
77293SOL     OW33775   0.842   8.010   2.557
77293SOL    HW133776   0.920   7.975   2.515
77293SOL    HW233777   0.861   8.104   2.566
77294SOL     OW33778   9.468  13.800  11.774
77294SOL    HW133779   9.452  13.791  11.681
77294SOL    HW233780   9.412  13.733  11.815
77295SOL     OW33781   9.175  11.037  12.428
77295SOL    HW133782   9.169  10.966  12.364
77295SOL    HW233783   9.099  11.092  12.410
77296SOL     OW33784   8.812   8.328  11.280
77296SOL    HW133785   8.872   8.254  11.287
77296SOL    HW233786   8.763   8.311  11.199
77297SOL     OW33787   7.861  13.656   7.058
77297SOL    HW133788   7.876  13.567   7.025
77297SOL    HW233789   7.947  13.698   7.055
77298SOL     OW33790   4.243  10.719   1.544
77298SOL    HW133791   4.233  10.642   1.600
77298SOL    HW233792   4.338  10.733   1.541
77299SOL     OW33793  11.911   5.708   7.865
77299SOL    HW133794  11.837   5.769   7.869
77299SOL    HW233795  11.882   5.639   7.805
77300SOL     OW33796   1.753  13.235   1.221
77300SOL    HW133797   1.738  13.186   1.302
77300SOL    HW233798   1.668  13.273   1.200
77301SOL     OW33799   9.466   4.588   3.514
77301SOL    HW133800   9.408   4.659   3.488
77301SOL    HW233801   9.457   4.522   3.445
77302SOL     OW33802  12.870   3.798   2.081
77302SOL    HW133803  12.834   3.741   2.013
77302SOL    HW233804  12.956   3.760   2.099
77303SOL     OW33805   3.683   3.125  13.073
77303SOL    HW133806   3.750   3.187  13.045
77303SOL    HW233807   3.603   3.178  13.080
77304SOL     OW33808  12.669   9.072  14.063
77304SOL    HW133809  12.754   9.113  14.043
77304SOL    HW233810  12.639   9.118  14.142
77305SOL     OW33811   1.735   9.225   8.640
77305SOL    HW133812   1.774   9.201   8.557
77305SOL    HW233813   1.749   9.149   8.697
77306SOL     OW33814  11.107  14.558   4.442
77306SOL    HW133815  11.195  14.590   4.462
77306SOL    HW233816  11.082  14.507   4.519
77307SOL     OW33817   1.847   6.936   3.050
77307SOL    HW133818   1.938   6.948   3.019
77307SOL    HW233819   1.840   6.843   3.066
77308SOL     OW33820   6.152   7.438   1.491
77308SOL    HW133821   6.115   7.462   1.407
77308SOL    HW233822   6.114   7.352   1.510
77309SOL     OW33823   6.746  10.757   7.899
77309SOL    HW133824   6.772  10.721   7.984
77309SOL    HW233825   6.749  10.852   7.910
77310SOL     OW33826   7.914   8.952   4.284
77310SOL    HW133827   7.927   8.931   4.376
77310SOL    HW233828   7.830   8.911   4.262
77311SOL     OW33829   0.774   1.035   9.253
77311SOL    HW133830   0.734   0.949   9.240
77311SOL    HW233831   0.748   1.087   9.177
77312SOL     OW33832   5.682  14.081   1.976
77312SOL    HW133833   5.692  13.997   1.930
77312SOL    HW233834   5.618  14.063   2.045
77313SOL     OW33835   9.539   2.744   0.094
77313SOL    HW133836   9.634   2.734   0.092
77313SOL    HW233837   9.525   2.838   0.081
77314SOL     OW33838   1.401   8.402   6.206
77314SOL    HW133839   1.359   8.371   6.125
77314SOL    HW233840   1.495   8.402   6.185
77315SOL     OW33841   5.926  14.362   3.030
77315SOL    HW133842   5.926  14.420   2.954
77315SOL    HW233843   6.018  14.338   3.043
77316SOL     OW33844  11.440   3.207   5.569
77316SOL    HW133845  11.535   3.204   5.579
77316SOL    HW233846  11.412   3.116   5.581
77317SOL     OW33847   0.838   2.664   2.098
77317SOL    HW133848   0.923   2.702   2.120
77317SOL    HW233849   0.859   2.583   2.052
77318SOL     OW33850   9.302   6.551   3.745
77318SOL    HW133851   9.235   6.486   3.723
77318SOL    HW233852   9.257   6.635   3.737
77319SOL     OW33853   6.346   3.418   9.254
77319SOL    HW133854   6.313   3.445   9.169
77319SOL    HW233855   6.294   3.340   9.276
77320SOL     OW33856   5.341   2.971   6.075
77320SOL    HW133857   5.260   3.018   6.058
77320SOL    HW233858   5.350   2.910   6.001
77321SOL     OW33859   6.425  12.508   0.054
77321SOL    HW133860   6.460  12.465  14.855
77321SOL    HW233861   6.428  12.601   0.034
77322SOL     OW33862   4.011   7.996   8.455
77322SOL    HW133863   3.948   7.925   8.469
77322SOL    HW233864   4.092   7.951   8.429
77323SOL     OW33865  10.862   6.315  12.535
77323SOL    HW133866  10.905   6.231  12.551
77323SOL    HW233867  10.934   6.378  12.528
77324SOL     OW33868   5.262   7.841   2.804
77324SOL    HW133869   5.241   7.834   2.711
77324SOL    HW233870   5.177   7.835   2.848
77325SOL     OW33871   5.567  13.253  13.268
77325SOL    HW133872   5.482  13.210  13.276
77325SOL    HW233873   5.631  13.185  13.291
77326SOL     OW33874   0.131   7.505  11.430
77326SOL    HW133875   0.194   7.532  11.363
77326SOL    HW233876   0.105   7.587  11.472
77327SOL     OW33877   9.500  10.871   3.251
77327SOL    HW133878   9.589  10.863   3.219
77327SOL    HW233879   9.507  10.853   3.345
77328SOL     OW33880   6.851  11.824  11.296
77328SOL    HW133881   6.798  11.767  11.352
77328SOL    HW233882   6.913  11.866  11.356
77329SOL     OW33883   0.278   5.499   4.018
77329SOL    HW133884   0.320   5.582   3.994
77329SOL    HW233885   0.351   5.440   4.038
77330SOL     OW33886  11.349   9.619   1.371
77330SOL    HW133887  11.260   9.588   1.356
77330SOL    HW233888  11.363   9.607   1.465
77331SOL     OW33889   1.577   4.493  11.280
77331SOL    HW133890   1.614   4.532  11.200
77331SOL    HW233891   1.620   4.407  11.287
77332SOL     OW33892   1.582   7.040  12.361
77332SOL    HW133893   1.543   7.049  12.274
77332SOL    HW233894   1.614   6.950  12.364
77333SOL     OW33895  12.564   6.250   0.965
77333SOL    HW133896  12.657   6.250   0.942
77333SOL    HW233897  12.519   6.269   0.882
77334SOL     OW33898   5.470   0.077  14.422
77334SOL    HW133899   5.437   0.003  14.473
77334SOL    HW233900   5.424   0.153  14.456
77335SOL     OW33901  13.779  11.660   6.456
77335SOL    HW133902  13.766  11.568   6.481
77335SOL    HW233903  13.696  11.686   6.417
77336SOL     OW33904  10.194  11.568   3.607
77336SOL    HW133905  10.226  11.486   3.645
77336SOL    HW233906  10.227  11.636   3.666
77337SOL     OW33907   3.061  13.493   5.427
77337SOL    HW133908   2.965  13.489   5.435
77337SOL    HW233909   3.093  13.454   5.508
77338SOL     OW33910   0.894   2.403   8.577
77338SOL    HW133911   0.828   2.469   8.560
77338SOL    HW233912   0.916   2.414   8.670
77339SOL     OW33913   2.184   4.078   9.869
77339SOL    HW133914   2.133   4.039   9.798
77339SOL    HW233915   2.252   4.013   9.887
77340SOL     OW33916  10.747  11.377   0.258
77340SOL    HW133917  10.827  11.351   0.212
77340SOL    HW233918  10.677  11.366   0.192
77341SOL     OW33919  14.256  14.308   2.415
77341SOL    HW133920  14.168  14.274   2.429
77341SOL    HW233921  14.281  14.347   2.499
77342SOL     OW33922   8.705  14.209   2.404
77342SOL    HW133923   8.679  14.176   2.318
77342SOL    HW233924   8.649  14.285   2.419
77343SOL     OW33925  11.230   0.982   1.661
77343SOL    HW133926  11.160   1.047   1.665
77343SOL    HW233927  11.203   0.923   1.590
77344SOL     OW33928  10.214   1.889   6.054
77344SOL    HW133929  10.268   1.960   6.088
77344SOL    HW233930  10.128   1.929   6.039
77345SOL     OW33931  13.101   0.326   0.342
77345SOL    HW133932  13.008   0.320   0.365
77345SOL    HW233933  13.108   0.288   0.255
77346SOL     OW33934   3.228  13.201   7.186
77346SOL    HW133935   3.157  13.210   7.250
77346SOL    HW233936   3.244  13.290   7.155
77347SOL     OW33937  13.195   8.238  13.882
77347SOL    HW133938  13.218   8.287  13.961
77347SOL    HW233939  13.237   8.152  13.894
77348SOL     OW33940  12.015   6.962   8.800
77348SOL    HW133941  11.969   6.954   8.883
77348SOL    HW233942  12.074   6.886   8.797
77349SOL     OW33943  12.285   7.474  10.884
77349SOL    HW133944  12.303   7.406  10.819
77349SOL    HW233945  12.190   7.473  10.893
77350SOL     OW33946   6.677   4.557  12.437
77350SOL    HW133947   6.602   4.615  12.422
77350SOL    HW233948   6.660   4.518  12.522
77351SOL     OW33949   1.359  12.913   2.207
77351SOL    HW133950   1.411  12.834   2.193
77351SOL    HW233951   1.268  12.883   2.196
77352SOL     OW33952  12.315   8.419   0.476
77352SOL    HW133953  12.299   8.348   0.538
77352SOL    HW233954  12.294   8.382   0.391
77353SOL     OW33955   8.511   8.838   1.283
77353SOL    HW133956   8.591   8.812   1.329
77353SOL    HW233957   8.472   8.756   1.254
77354SOL     OW33958   3.353  14.581  10.549
77354SOL    HW133959   3.355  14.627  10.633
77354SOL    HW233960   3.262  14.552  10.539
77355SOL     OW33961   5.981   9.282   9.892
77355SOL    HW133962   5.978   9.218   9.964
77355SOL    HW233963   6.005   9.230   9.815
77356SOL     OW33964   0.408  13.293  11.828
77356SOL    HW133965   0.480  13.243  11.868
77356SOL    HW233966   0.354  13.227  11.784
77357SOL     OW33967  12.472   1.983   5.104
77357SOL    HW133968  12.410   1.956   5.171
77357SOL    HW233969  12.444   1.937   5.025
77358SOL     OW33970   8.446   9.853   8.863
77358SOL    HW133971   8.441   9.765   8.901
77358SOL    HW233972   8.385   9.905   8.915
77359SOL     OW33973  13.196   2.207  14.524
77359SOL    HW133974  13.206   2.186  14.431
77359SOL    HW233975  13.233   2.295  14.533
77360SOL     OW33976   3.426   1.300  10.477
77360SOL    HW133977   3.430   1.394  10.497
77360SOL    HW233978   3.351   1.291  10.418
77361SOL     OW33979  10.661   2.699   3.434
77361SOL    HW133980  10.718   2.623   3.449
77361SOL    HW233981  10.596   2.668   3.371
77362SOL     OW33982   7.471  11.397   6.000
77362SOL    HW133983   7.473  11.342   6.079
77362SOL    HW233984   7.385  11.380   5.961
77363SOL     OW33985  13.135   6.668   5.845
77363SOL    HW133986  13.073   6.640   5.777
77363SOL    HW233987  13.206   6.604   5.840
77364SOL     OW33988   2.472   6.380   4.322
77364SOL    HW133989   2.474   6.467   4.363
77364SOL    HW233990   2.534   6.328   4.373
77365SOL     OW33991  13.977   5.185   7.336
77365SOL    HW133992  14.063   5.190   7.296
77365SOL    HW233993  13.917   5.220   7.270
77366SOL     OW33994   3.532  13.508   8.829
77366SOL    HW133995   3.608  13.563   8.809
77366SOL    HW233996   3.460  13.549   8.781
77367SOL     OW33997  10.271   7.714  12.875
77367SOL    HW133998  10.266   7.651  12.803
77367SOL    HW233999  10.291   7.797  12.832
77368SOL     OW34000   9.917   3.558   3.491
77368SOL    HW134001   9.885   3.471   3.468
77368SOL    HW234002   9.900   3.611   3.413
77369SOL     OW34003  10.500   4.180   6.861
77369SOL    HW134004  10.421   4.141   6.823
77369SOL    HW234005  10.468   4.234   6.933
77370SOL     OW34006  14.832  10.121  10.205
77370SOL    HW134007  14.842  10.199  10.258
77370SOL    HW234008  14.752  10.079  10.238
77371SOL     OW34009   4.294   6.712   5.542
77371SOL    HW134010   4.327   6.639   5.490
77371SOL    HW234011   4.368   6.773   5.547
77372SOL     OW34012   6.734   3.087  12.542
77372SOL    HW134013   6.683   3.043  12.609
77372SOL    HW234014   6.696   3.057  12.459
77373SOL     OW34015  11.735  13.033  12.901
77373SOL    HW134016  11.710  13.086  12.826
77373SOL    HW234017  11.809  12.981  12.870
77374SOL     OW34018  11.077   6.166  14.123
77374SOL    HW134019  11.073   6.261  14.108
77374SOL    HW234020  10.993   6.145  14.164
77375SOL     OW34021   3.196   4.240   9.184
77375SOL    HW134022   3.284   4.257   9.150
77375SOL    HW234023   3.147   4.320   9.165
77376SOL     OW34024   7.655   0.018   9.399
77376SOL    HW134025   7.566   0.008   9.365
77376SOL    HW234026   7.658   0.106   9.436
77377SOL     OW34027   8.829  11.098  11.187
77377SOL    HW134028   8.852  11.122  11.097
77377SOL    HW234029   8.833  11.003  11.188
77378SOL     OW34030   4.514  14.384   6.702
77378SOL    HW134031   4.553  14.428   6.627
77378SOL    HW234032   4.425  14.419   6.707
77379SOL     OW34033  10.583   5.480   5.516
77379SOL    HW134034  10.534   5.398   5.507
77379SOL    HW234035  10.624   5.473   5.602
77380SOL     OW34036   1.362  12.262   9.277
77380SOL    HW134037   1.343  12.284   9.186
77380SOL    HW234038   1.346  12.167   9.282
77381SOL     OW34039   7.989   1.158  12.370
77381SOL    HW134040   7.970   1.096  12.440
77381SOL    HW234041   7.933   1.233  12.388
77382SOL     OW34042  10.562   9.756   8.023
77382SOL    HW134043  10.611   9.838   8.034
77382SOL    HW234044  10.588   9.725   7.937
77383SOL     OW34045   7.562   9.226  12.300
77383SOL    HW134046   7.601   9.149  12.257
77383SOL    HW234047   7.626   9.296  12.285
77384SOL     OW34048   5.750   9.105  13.146
77384SOL    HW134049   5.701   9.166  13.202
77384SOL    HW234050   5.682   9.049  13.108
77385SOL     OW34051  11.064   5.365   3.406
77385SOL    HW134052  11.031   5.276   3.396
77385SOL    HW234053  11.153   5.354   3.441
77386SOL     OW34054   5.663   3.205   3.141
77386SOL    HW134055   5.623   3.171   3.221
77386SOL    HW234056   5.645   3.299   3.144
77387SOL     OW34057  14.367   0.803   0.739
77387SOL    HW134058  14.427   0.732   0.764
77387SOL    HW234059  14.415   0.883   0.761
77388SOL     OW34060   9.055   9.883  13.406
77388SOL    HW134061   9.094   9.967  13.428
77388SOL    HW234062   8.979   9.875  13.464
77389SOL     OW34063   3.034   8.089   9.597
77389SOL    HW134064   3.034   8.159   9.532
77389SOL    HW234065   3.004   8.012   9.550
77390SOL     OW34066   5.943   4.260  10.839
77390SOL    HW134067   5.924   4.291  10.750
77390SOL    HW234068   5.890   4.317  10.895
77391SOL     OW34069  13.790   4.136   9.117
77391SOL    HW134070  13.698   4.135   9.090
77391SOL    HW234071  13.809   4.229   9.134
77392SOL     OW34072   9.383  13.219   3.033
77392SOL    HW134073   9.403  13.127   3.016
77392SOL    HW234074   9.443  13.245   3.102
77393SOL     OW34075   0.792   7.443   7.508
77393SOL    HW134076   0.822   7.411   7.592
77393SOL    HW234077   0.753   7.367   7.466
77394SOL     OW34078   2.695  13.983  14.337
77394SOL    HW134079   2.781  13.946  14.315
77394SOL    HW234080   2.642  13.907  14.361
77395SOL     OW34081  14.364   2.071  10.957
77395SOL    HW134082  14.275   2.061  10.921
77395SOL    HW234083  14.351   2.072  11.052
77396SOL     OW34084  13.497   9.504  10.546
77396SOL    HW134085  13.431   9.481  10.481
77396SOL    HW234086  13.477   9.449  10.622
77397SOL     OW34087   0.238  12.074   8.215
77397SOL    HW134088   0.239  12.106   8.124
77397SOL    HW234089   0.204  11.985   8.209
77398SOL     OW34090  11.519   3.639   7.185
77398SOL    HW134091  11.474   3.585   7.249
77398SOL    HW234092  11.583   3.581   7.144
77399SOL     OW34093  13.630   1.770  12.566
77399SOL    HW134094  13.621   1.853  12.520
77399SOL    HW234095  13.546   1.758  12.610
77400SOL     OW34096   8.722   1.141   4.123
77400SOL    HW134097   8.698   1.069   4.181
77400SOL    HW234098   8.698   1.220   4.170
77401SOL     OW34099   6.717  14.265   6.340
77401SOL    HW134100   6.729  14.346   6.290
77401SOL    HW234101   6.699  14.198   6.274
77402SOL     OW34102   4.206   4.583   5.845
77402SOL    HW134103   4.300   4.569   5.835
77402SOL    HW234104   4.181   4.636   5.770
77403SOL     OW34105  14.631   4.892   1.594
77403SOL    HW134106  14.605   4.826   1.659
77403SOL    HW234107  14.619   4.975   1.639
77404SOL     OW34108   4.041   4.750  10.854
77404SOL    HW134109   4.104   4.688  10.893
77404SOL    HW234110   4.066   4.835  10.890
77405SOL     OW34111   2.554   4.849   1.317
77405SOL    HW134112   2.618   4.892   1.261
77405SOL    HW234113   2.566   4.755   1.302
77406SOL     OW34114   7.809   1.888  12.338
77406SOL    HW134115   7.818   1.859  12.247
77406SOL    HW234116   7.785   1.809  12.386
77407SOL     OW34117  14.707   1.914  13.306
77407SOL    HW134118  14.702   2.005  13.334
77407SOL    HW234119  14.745   1.918  13.218
77408SOL     OW34120   6.701   4.722   5.044
77408SOL    HW134121   6.770   4.785   5.023
77408SOL    HW234122   6.733   4.678   5.123
77409SOL     OW34123   4.802   4.998   7.771
77409SOL    HW134124   4.779   4.931   7.834
77409SOL    HW234125   4.781   4.961   7.686
77410SOL     OW34126   5.538  12.754  11.252
77410SOL    HW134127   5.477  12.681  11.239
77410SOL    HW234128   5.575  12.770  11.165
77411SOL     OW34129   2.181  11.556   7.578
77411SOL    HW134130   2.152  11.575   7.667
77411SOL    HW234131   2.264  11.508   7.590
77412SOL     OW34132   7.398  11.756  11.263
77412SOL    HW134133   7.323  11.755  11.205
77412SOL    HW234134   7.443  11.838  11.243
77413SOL     OW34135   0.768  10.754  14.774
77413SOL    HW134136   0.769  10.749  14.678
77413SOL    HW234137   0.676  10.739  14.797
77414SOL     OW34138   9.969   1.581   7.359
77414SOL    HW134139   9.946   1.518   7.290
77414SOL    HW234140  10.047   1.543   7.400
77415SOL     OW34141   3.864   3.018  11.786
77415SOL    HW134142   3.954   3.026  11.815
77415SOL    HW234143   3.862   2.938  11.733
77416SOL     OW34144   3.510   9.247   7.052
77416SOL    HW134145   3.577   9.262   6.985
77416SOL    HW234146   3.464   9.331   7.058
77417SOL     OW34147  14.093   3.875   2.830
77417SOL    HW134148  14.115   3.870   2.923
77417SOL    HW234149  14.158   3.818   2.788
77418SOL     OW34150   9.107   2.975   2.914
77418SOL    HW134151   9.064   2.897   2.880
77418SOL    HW234152   9.040   3.019   2.965
77419SOL     OW34153  10.497   3.032  14.170
77419SOL    HW134154  10.491   2.965  14.101
77419SOL    HW234155  10.538   2.988  14.243
77420SOL     OW34156   9.318   0.936   1.649
77420SOL    HW134157   9.286   0.870   1.587
77420SOL    HW234158   9.371   0.995   1.596
77421SOL     OW34159   9.133   4.551   6.530
77421SOL    HW134160   9.210   4.504   6.562
77421SOL    HW234161   9.116   4.619   6.595
77422SOL     OW34162   1.006   9.958  14.795
77422SOL    HW134163   1.077   9.897  14.814
77422SOL    HW234164   1.051  10.039  14.771
77423SOL     OW34165   0.004  13.997   9.880
77423SOL    HW134166  14.858  13.908   9.856
77423SOL    HW234167   0.024  14.041   9.797
77424SOL     OW34168   7.804  11.087  13.852
77424SOL    HW134169   7.728  11.043  13.889
77424SOL    HW234170   7.809  11.054  13.762
77425SOL     OW34171   7.556  11.395   0.899
77425SOL    HW134172   7.524  11.306   0.918
77425SOL    HW234173   7.616  11.383   0.825
77426SOL     OW34174  10.339   9.911  10.278
77426SOL    HW134175  10.294   9.960  10.347
77426SOL    HW234176  10.307   9.949  10.196
77427SOL     OW34177   0.098   6.962  14.001
77427SOL    HW134178   0.087   7.056  14.013
77427SOL    HW234179   0.009   6.929  13.989
77428SOL     OW34180   5.923  13.179  12.573
77428SOL    HW134181   5.869  13.257  12.560
77428SOL    HW234182   6.007  13.213  12.604
77429SOL     OW34183  12.354  13.409   0.084
77429SOL    HW134184  12.371  13.327   0.130
77429SOL    HW234185  12.424  13.468   0.114
77430SOL     OW34186   9.971   8.669  10.299
77430SOL    HW134187   9.914   8.658  10.375
77430SOL    HW234188  10.052   8.624  10.322
77431SOL     OW34189   0.964   6.393   6.122
77431SOL    HW134190   0.975   6.488   6.130
77431SOL    HW234191   0.951   6.362   6.212
77432SOL     OW34192   7.677   7.889   1.072
77432SOL    HW134193   7.668   7.797   1.045
77432SOL    HW234194   7.770   7.899   1.092
77433SOL     OW34195   2.577   3.429  10.239
77433SOL    HW134196   2.635   3.419  10.314
77433SOL    HW234197   2.526   3.349  10.237
77434SOL     OW34198   8.932   1.239   7.823
77434SOL    HW134199   9.007   1.213   7.768
77434SOL    HW234200   8.865   1.268   7.761
77435SOL     OW34201  10.426   2.508   2.706
77435SOL    HW134202  10.515   2.473   2.716
77435SOL    HW234203  10.437   2.588   2.656
77436SOL     OW34204  11.584   6.679   8.511
77436SOL    HW134205  11.525   6.624   8.459
77436SOL    HW234206  11.655   6.620   8.537
77437SOL     OW34207  14.358  13.603   8.461
77437SOL    HW134208  14.340  13.510   8.473
77437SOL    HW234209  14.453  13.611   8.473
77438SOL     OW34210   4.892   2.067   9.531
77438SOL    HW134211   4.853   2.073   9.444
77438SOL    HW234212   4.817   2.064   9.590
77439SOL     OW34213   9.943  11.622  12.386
77439SOL    HW134214   9.884  11.559  12.345
77439SOL    HW234215   9.911  11.629  12.477
77440SOL     OW34216  13.424  14.878   2.114
77440SOL    HW134217  13.485   0.068   2.088
77440SOL    HW234218  13.347   0.045   2.146
77441SOL     OW34219   2.034   2.506   8.760
77441SOL    HW134220   2.060   2.483   8.671
77441SOL    HW234221   2.098   2.462   8.816
77442SOL     OW34222   7.141   6.720   6.559
77442SOL    HW134223   7.074   6.781   6.588
77442SOL    HW234224   7.174   6.757   6.477
77443SOL     OW34225   4.300  13.959   3.494
77443SOL    HW134226   4.225  13.900   3.490
77443SOL    HW234227   4.376  13.902   3.483
77444SOL     OW34228   8.094   5.364  10.355
77444SOL    HW134229   8.127   5.393  10.270
77444SOL    HW234230   8.002   5.392  10.356
77445SOL     OW34231  12.422   9.715  12.248
77445SOL    HW134232  12.405   9.699  12.341
77445SOL    HW234233  12.407   9.629  12.207
77446SOL     OW34234   3.964   8.298  11.415
77446SOL    HW134235   3.994   8.225  11.362
77446SOL    HW234236   4.040   8.356  11.420
77447SOL     OW34237   9.092  10.299   8.498
77447SOL    HW134238   9.081  10.208   8.526
77447SOL    HW234239   9.002  10.331   8.488
77448SOL     OW34240  11.308  11.768   5.451
77448SOL    HW134241  11.370  11.836   5.477
77448SOL    HW234242  11.260  11.748   5.532
77449SOL     OW34243  14.621   7.557  10.092
77449SOL    HW134244  14.648   7.477  10.047
77449SOL    HW234245  14.682   7.564  10.165
77450SOL     OW34246   2.513  11.476  11.609
77450SOL    HW134247   2.575  11.549  11.600
77450SOL    HW234248   2.459  11.501  11.684
77451SOL     OW34249   3.028   2.492   0.567
77451SOL    HW134250   3.034   2.514   0.660
77451SOL    HW234251   2.936   2.474   0.552
77452SOL     OW34252  11.694   4.126   2.769
77452SOL    HW134253  11.790   4.128   2.762
77452SOL    HW234254  11.675   4.174   2.850
77453SOL     OW34255   5.581   0.795   7.517
77453SOL    HW134256   5.492   0.769   7.493
77453SOL    HW234257   5.622   0.713   7.546
77454SOL     OW34258   3.873  14.642  14.816
77454SOL    HW134259   3.789  14.686  14.808
77454SOL    HW234260   3.876  14.581  14.742
77455SOL     OW34261   2.887   5.359   4.043
77455SOL    HW134262   2.904   5.408   3.963
77455SOL    HW234263   2.932   5.409   4.112
77456SOL     OW34264   9.842  13.553   7.496
77456SOL    HW134265   9.823  13.599   7.578
77456SOL    HW234266   9.757  13.544   7.454
77457SOL     OW34267   7.977  12.054  10.856
77457SOL    HW134268   8.007  12.104  10.932
77457SOL    HW234269   8.056  12.042  10.803
77458SOL     OW34270   3.510   1.174   3.158
77458SOL    HW134271   3.494   1.145   3.068
77458SOL    HW234272   3.425   1.162   3.202
77459SOL     OW34273   1.248   8.413   1.798
77459SOL    HW134274   1.197   8.494   1.805
77459SOL    HW234275   1.299   8.409   1.879
77460SOL     OW34276   0.564   6.808  12.431
77460SOL    HW134277   0.484   6.762  12.455
77460SOL    HW234278   0.633   6.763  12.479
77461SOL     OW34279   9.089  14.602   0.642
77461SOL    HW134280   9.060  14.635   0.727
77461SOL    HW234281   9.009  14.590   0.593
77462SOL     OW34282   4.765   0.763   0.780
77462SOL    HW134283   4.792   0.775   0.689
77462SOL    HW234284   4.670   0.773   0.778
77463SOL     OW34285   3.274   0.245  10.642
77463SOL    HW134286   3.341   0.223  10.577
77463SOL    HW234287   3.299   0.196  10.720
77464SOL     OW34288  11.598   1.181   5.448
77464SOL    HW134289  11.580   1.169   5.355
77464SOL    HW234290  11.579   1.096   5.487
77465SOL     OW34291  14.063  10.091  10.339
77465SOL    HW134292  14.033  10.010  10.298
77465SOL    HW234293  14.074  10.068  10.432
77466SOL     OW34294  14.795   4.449   8.525
77466SOL    HW134295  14.760   4.409   8.604
77466SOL    HW234296  14.721   4.452   8.465
77467SOL     OW34297   6.895  10.957   4.490
77467SOL    HW134298   6.812  10.917   4.515
77467SOL    HW234299   6.873  11.049   4.473
77468SOL     OW34300   5.690   0.026   6.601
77468SOL    HW134301   5.782   0.015   6.623
77468SOL    HW234302   5.674  14.841   6.532
77469SOL     OW34303   1.955  10.313  13.089
77469SOL    HW134304   1.910  10.245  13.139
77469SOL    HW234305   2.047  10.286  13.091
77470SOL     OW34306  10.898  13.773  12.599
77470SOL    HW134307  10.820  13.828  12.605
77470SOL    HW234308  10.961  13.814  12.660
77471SOL     OW34309   2.377   6.936   5.589
77471SOL    HW134310   2.420   6.870   5.643
77471SOL    HW234311   2.429   7.015   5.601
77472SOL     OW34312   5.200   3.650   2.843
77472SOL    HW134313   5.263   3.676   2.910
77472SOL    HW234314   5.116   3.647   2.889
77473SOL     OW34315  13.618   1.458   7.477
77473SOL    HW134316  13.551   1.389   7.487
77473SOL    HW234317  13.701   1.410   7.473
77474SOL     OW34318   9.629   1.180  14.779
77474SOL    HW134319   9.581   1.204  14.858
77474SOL    HW234320   9.718   1.210  14.795
77475SOL     OW34321  14.062  10.921   9.549
77475SOL    HW134322  14.017  10.891   9.628
77475SOL    HW234323  14.006  10.893   9.478
77476SOL     OW34324   1.505   1.352   0.061
77476SOL    HW134325   1.441   1.297   0.018
77476SOL    HW234326   1.530   1.417  14.875
77477SOL     OW34327   4.928   5.941   5.262
77477SOL    HW134328   4.983   5.893   5.200
77477SOL    HW234329   4.879   6.003   5.208
77478SOL     OW34330  13.464   4.741   3.383
77478SOL    HW134331  13.494   4.660   3.341
77478SOL    HW234332  13.516   4.810   3.343
77479SOL     OW34333   1.443   4.215   2.207
77479SOL    HW134334   1.426   4.272   2.282
77479SOL    HW234335   1.388   4.138   2.221
77480SOL     OW34336  11.550   9.086  12.411
77480SOL    HW134337  11.507   9.048  12.334
77480SOL    HW234338  11.495   9.059  12.485
77481SOL     OW34339  11.291   3.256  12.528
77481SOL    HW134340  11.273   3.259  12.434
77481SOL    HW234341  11.384   3.275  12.535
77482SOL     OW34342   7.195   4.990   7.216
77482SOL    HW134343   7.270   5.031   7.175
77482SOL    HW234344   7.198   5.019   7.307
77483SOL     OW34345   2.698   4.061   8.965
77483SOL    HW134346   2.751   4.118   8.909
77483SOL    HW234347   2.738   3.975   8.956
77484SOL     OW34348   7.725  10.831  11.770
77484SOL    HW134349   7.706  10.742  11.740
77484SOL    HW234350   7.728  10.883  11.690
77485SOL     OW34351   3.480   5.213   8.847
77485SOL    HW134352   3.390   5.205   8.876
77485SOL    HW234353   3.505   5.303   8.869
77486SOL     OW34354   0.549   7.869   7.058
77486SOL    HW134355   0.567   7.791   7.112
77486SOL    HW234356   0.634   7.912   7.049
77487SOL     OW34357   1.018   2.172   6.214
77487SOL    HW134358   1.073   2.212   6.281
77487SOL    HW234359   0.961   2.243   6.184
77488SOL     OW34360   5.426   0.469   9.200
77488SOL    HW134361   5.352   0.435   9.251
77488SOL    HW234362   5.397   0.555   9.171
77489SOL     OW34363   4.686  10.995   7.991
77489SOL    HW134364   4.726  10.995   7.904
77489SOL    HW234365   4.646  10.908   7.999
77490SOL     OW34366  13.630  14.136   8.874
77490SOL    HW134367  13.585  14.097   8.949
77490SOL    HW234368  13.644  14.227   8.898
77491SOL     OW34369  10.238   5.704   0.582
77491SOL    HW134370  10.159   5.725   0.532
77491SOL    HW234371  10.310   5.721   0.522
77492SOL     OW34372  12.938  10.479  11.143
77492SOL    HW134373  12.857  10.428  11.144
77492SOL    HW234374  12.995  10.434  11.081
77493SOL     OW34375   3.208   5.071   9.953
77493SOL    HW134376   3.122   5.084   9.913
77493SOL    HW234377   3.243   5.159   9.964
77494SOL     OW34378  12.719   9.714   8.020
77494SOL    HW134379  12.719   9.624   7.988
77494SOL    HW234380  12.782   9.760   7.964
77495SOL     OW34381   3.204  14.194   8.136
77495SOL    HW134382   3.231  14.241   8.057
77495SOL    HW234383   3.223  14.102   8.116
77496SOL     OW34384  12.767   4.463   6.279
77496SOL    HW134385  12.806   4.378   6.300
77496SOL    HW234386  12.692   4.470   6.338
77497SOL     OW34387   7.036  11.774  14.103
77497SOL    HW134388   7.080  11.730  14.030
77497SOL    HW234389   6.973  11.833  14.061
77498SOL     OW34390   6.053  14.811   7.419
77498SOL    HW134391   6.039  14.807   7.513
77498SOL    HW234392   5.982  14.867   7.387
77499SOL     OW34393  11.063   4.670   0.023
77499SOL    HW134394  10.971   4.645   0.014
77499SOL    HW234395  11.065   4.761  14.872
77500SOL     OW34396  11.605  11.991   1.720
77500SOL    HW134397  11.558  11.982   1.803
77500SOL    HW234398  11.696  11.971   1.741
77501SOL     OW34399   1.422  12.750  10.501
77501SOL    HW134400   1.422  12.727  10.594
77501SOL    HW234401   1.398  12.670  10.456
77502SOL     OW34402  11.635   2.468  10.000
77502SOL    HW134403  11.626   2.380   9.963
77502SOL    HW234404  11.707   2.461  10.062
77503SOL     OW34405  14.672  14.551  11.353
77503SOL    HW134406  14.677  14.637  11.395
77503SOL    HW234407  14.588  14.552  11.308
77504SOL     OW34408   2.824  13.712   6.100
77504SOL    HW134409   2.862  13.625   6.116
77504SOL    HW234410   2.771  13.730   6.177
77505SOL     OW34411   5.225  10.735   0.864
77505SOL    HW134412   5.161  10.775   0.805
77505SOL    HW234413   5.172  10.691   0.930
77506SOL     OW34414   1.917   8.487   2.732
77506SOL    HW134415   1.968   8.562   2.762
77506SOL    HW234416   1.853   8.472   2.801
77507SOL     OW34417   7.428   9.020   0.464
77507SOL    HW134418   7.480   8.941   0.482
77507SOL    HW234419   7.491   9.091   0.468
77508SOL     OW34420   7.324   6.384   6.149
77508SOL    HW134421   7.296   6.466   6.190
77508SOL    HW234422   7.338   6.324   6.222
77509SOL     OW34423   4.662   4.940  12.264
77509SOL    HW134424   4.714   5.012  12.229
77509SOL    HW234425   4.592   4.928  12.200
77510SOL     OW34426  12.681   1.205   9.412
77510SOL    HW134427  12.753   1.269   9.407
77510SOL    HW234428  12.709   1.133   9.355
77511SOL     OW34429   5.590  12.641  13.348
77511SOL    HW134430   5.545  12.724  13.341
77511SOL    HW234431   5.521  12.577  13.368
77512SOL     OW34432   2.569  11.587  11.282
77512SOL    HW134433   2.636  11.560  11.345
77512SOL    HW234434   2.550  11.678  11.305
77513SOL     OW34435  12.908   4.313  14.491
77513SOL    HW134436  12.940   4.338  14.577
77513SOL    HW234437  12.831   4.369  14.476
77514SOL     OW34438   0.967  13.113   5.758
77514SOL    HW134439   1.043  13.069   5.720
77514SOL    HW234440   1.001  13.159   5.834
77515SOL     OW34441   6.362  10.649   7.786
77515SOL    HW134442   6.323  10.569   7.821
77515SOL    HW234443   6.447  10.621   7.751
77516SOL     OW34444  12.909   1.960  11.230
77516SOL    HW134445  12.963   1.915  11.164
77516SOL    HW234446  12.972   1.999  11.290
77517SOL     OW34447   7.943   0.703  12.312
77517SOL    HW134448   8.020   0.711  12.255
77517SOL    HW234449   7.937   0.788  12.356
77518SOL     OW34450   7.238  13.202   4.246
77518SOL    HW134451   7.214  13.280   4.296
77518SOL    HW234452   7.187  13.207   4.165
77519SOL     OW34453   2.193   3.419   2.712
77519SOL    HW134454   2.217   3.424   2.804
77519SOL    HW234455   2.276   3.428   2.665
77520SOL     OW34456   5.500   3.215   2.758
77520SOL    HW134457   5.528   3.307   2.756
77520SOL    HW234458   5.569   3.170   2.808
77521SOL     OW34459  14.315   1.623   7.118
77521SOL    HW134460  14.338   1.687   7.051
77521SOL    HW234461  14.331   1.538   7.077
77522SOL     OW34462   9.928   8.555  14.409
77522SOL    HW134463   9.866   8.490  14.377
77522SOL    HW234464   9.942   8.613  14.334
77523SOL     OW34465  11.995   9.139   3.484
77523SOL    HW134466  11.935   9.212   3.471
77523SOL    HW234467  11.943   9.061   3.465
77524SOL     OW34468  14.249   3.388  12.842
77524SOL    HW134469  14.224   3.431  12.760
77524SOL    HW234470  14.275   3.461  12.899
77525SOL     OW34471   7.193   8.876  11.299
77525SOL    HW134472   7.209   8.783  11.319
77525SOL    HW234473   7.125   8.902  11.361
77526SOL     OW34474   9.325   6.735  14.369
77526SOL    HW134475   9.276   6.775  14.296
77526SOL    HW234476   9.411   6.776  14.365
77527SOL     OW34477  13.119   4.160  12.461
77527SOL    HW134478  13.164   4.084  12.425
77527SOL    HW234479  13.094   4.134  12.550
77528SOL     OW34480   8.887   6.193   7.192
77528SOL    HW134481   8.922   6.261   7.135
77528SOL    HW234482   8.861   6.123   7.133
77529SOL     OW34483   0.053  13.522  11.148
77529SOL    HW134484   0.064  13.577  11.070
77529SOL    HW234485   0.047  13.433  11.114
77530SOL     OW34486   1.320   1.008   0.082
77530SOL    HW134487   1.358   1.040   0.001
77530SOL    HW234488   1.314   1.085   0.138
77531SOL     OW34489  10.216   1.787   5.535
77531SOL    HW134490  10.250   1.846   5.602
77531SOL    HW234491  10.213   1.841   5.456
77532SOL     OW34492   1.561   4.188  10.642
77532SOL    HW134493   1.571   4.126  10.714
77532SOL    HW234494   1.651   4.213  10.620
77533SOL     OW34495   8.476   8.531  10.956
77533SOL    HW134496   8.494   8.461  10.894
77533SOL    HW234497   8.559   8.545  11.001
77534SOL     OW34498   6.728   8.740   0.525
77534SOL    HW134499   6.735   8.835   0.517
77534SOL    HW234500   6.703   8.725   0.616
77535SOL     OW34501   5.694   9.929   9.612
77535SOL    HW134502   5.771   9.903   9.561
77535SOL    HW234503   5.666  10.012   9.573
77536SOL     OW34504  13.671   0.594   6.704
77536SOL    HW134505  13.641   0.541   6.630
77536SOL    HW234506  13.606   0.663   6.713
77537SOL     OW34507   0.798   7.144   9.891
77537SOL    HW134508   0.775   7.235   9.910
77537SOL    HW234509   0.792   7.137   9.796
77538SOL     OW34510  11.082   7.465   3.596
77538SOL    HW134511  11.035   7.524   3.655
77538SOL    HW234512  11.039   7.475   3.512
77539SOL     OW34513   4.248  13.747  10.178
77539SOL    HW134514   4.310  13.813  10.210
77539SOL    HW234515   4.245  13.682  10.248
77540SOL     OW34516   1.877  10.160   7.106
77540SOL    HW134517   1.882  10.073   7.147
77540SOL    HW234518   1.965  10.196   7.116
77541SOL     OW34519   6.493  14.103   3.393
77541SOL    HW134520   6.471  14.023   3.440
77541SOL    HW234521   6.484  14.081   3.301
77542SOL     OW34522   0.036   5.060  10.094
77542SOL    HW134523  14.846   4.995  10.103
77542SOL    HW234524   0.108   5.025  10.147
77543SOL     OW34525  12.774   3.014  14.251
77543SOL    HW134526  12.693   3.038  14.295
77543SOL    HW234527  12.748   2.957  14.179
77544SOL     OW34528  11.401  11.873   6.416
77544SOL    HW134529  11.421  11.885   6.324
77544SOL    HW234530  11.431  11.784   6.436
77545SOL     OW34531   3.129   6.621   6.272
77545SOL    HW134532   3.182   6.666   6.206
77545SOL    HW234533   3.116   6.686   6.341
77546SOL     OW34534  12.291   9.188  11.410
77546SOL    HW134535  12.351   9.122  11.446
77546SOL    HW234536  12.229   9.138  11.358
77547SOL     OW34537  10.685  11.879   0.306
77547SOL    HW134538  10.720  11.791   0.296
77547SOL    HW234539  10.594  11.867   0.333
77548SOL     OW34540  12.870   1.265  14.197
77548SOL    HW134541  12.789   1.264  14.248
77548SOL    HW234542  12.866   1.347  14.148
77549SOL     OW34543  12.861   0.042   9.898
77549SOL    HW134544  12.767   0.058   9.888
77549SOL    HW234545  12.869  14.878   9.983
77550SOL     OW34546   8.562   0.939   8.045
77550SOL    HW134547   8.634   1.002   8.031
77550SOL    HW234548   8.580   0.901   8.131
77551SOL     OW34549   9.177   0.408   0.465
77551SOL    HW134550   9.091   0.372   0.443
77551SOL    HW234551   9.160   0.500   0.484
77552SOL     OW34552   6.026   8.123   7.902
77552SOL    HW134553   5.995   8.103   7.814
77552SOL    HW234554   6.079   8.202   7.891
77553SOL     OW34555   3.483   9.961  14.227
77553SOL    HW134556   3.556  10.005  14.271
77553SOL    HW234557   3.478   9.875  14.268
77554SOL     OW34558  13.701   1.725   6.234
77554SOL    HW134559  13.609   1.718   6.209
77554SOL    HW234560  13.713   1.818   6.252
77555SOL     OW34561   7.367  11.096  11.649
77555SOL    HW134562   7.313  11.029  11.691
77555SOL    HW234563   7.444  11.103  11.704
77556SOL     OW34564   8.656  10.300   0.310
77556SOL    HW134565   8.670  10.214   0.350
77556SOL    HW234566   8.693  10.361   0.374
77557SOL     OW34567   1.253   8.330  14.766
77557SOL    HW134568   1.310   8.339  14.842
77557SOL    HW234569   1.172   8.375  14.791
77558SOL     OW34570   1.969  14.043   0.909
77558SOL    HW134571   2.062  14.025   0.924
77558SOL    HW234572   1.941  14.087   0.990
77559SOL     OW34573  11.919  14.550   9.443
77559SOL    HW134574  11.997  14.495   9.434
77559SOL    HW234575  11.926  14.614   9.371
77560SOL     OW34576  10.130   6.142   5.703
77560SOL    HW134577  10.200   6.094   5.746
77560SOL    HW234578  10.084   6.187   5.774
77561SOL     OW34579   8.297   8.880  10.543
77561SOL    HW134580   8.227   8.851  10.484
77561SOL    HW234581   8.374   8.888  10.487
77562SOL     OW34582   9.009   4.367   5.840
77562SOL    HW134583   8.965   4.434   5.786
77562SOL    HW234584   9.011   4.405   5.928
77563SOL     OW34585   3.875   1.370   3.454
77563SOL    HW134586   3.862   1.299   3.390
77563SOL    HW234587   3.874   1.326   3.539
77564SOL     OW34588   9.369  13.966   2.193
77564SOL    HW134589   9.283  13.965   2.152
77564SOL    HW234590   9.366  13.894   2.256
77565SOL     OW34591  12.627  10.453  11.014
77565SOL    HW134592  12.671  10.370  10.996
77565SOL    HW234593  12.687  10.520  10.981
77566SOL     OW34594  13.861   0.366   5.617
77566SOL    HW134595  13.844   0.297   5.680
77566SOL    HW234596  13.775   0.393   5.586
77567SOL     OW34597   6.086   7.563  11.576
77567SOL    HW134598   6.144   7.560  11.500
77567SOL    HW234599   6.110   7.486  11.627
77568SOL     OW34600   9.277   0.695  12.801
77568SOL    HW134601   9.260   0.780  12.842
77568SOL    HW234602   9.360   0.666  12.839
77569SOL     OW34603   8.626   5.121   9.461
77569SOL    HW134604   8.664   5.207   9.476
77569SOL    HW234605   8.688   5.060   9.501
77570SOL     OW34606  12.214   5.917   2.393
77570SOL    HW134607  12.134   5.906   2.444
77570SOL    HW234608  12.197   5.867   2.312
77571SOL     OW34609   8.523   9.762  12.959
77571SOL    HW134610   8.457   9.730  13.020
77571SOL    HW234611   8.550   9.685  12.910
77572SOL     OW34612   9.709  12.900   0.156
77572SOL    HW134613   9.700  12.936   0.244
77572SOL    HW234614   9.625  12.857   0.139
77573SOL     OW34615   5.732   5.856  13.993
77573SOL    HW134616   5.736   5.774  13.944
77573SOL    HW234617   5.783   5.918  13.941
77574SOL     OW34618   7.280   7.425   8.274
77574SOL    HW134619   7.354   7.452   8.221
77574SOL    HW234620   7.287   7.477   8.354
77575SOL     OW34621   9.920   9.778   3.477
77575SOL    HW134622   9.911   9.800   3.570
77575SOL    HW234623   9.884   9.690   3.469
77576SOL     OW34624   2.104   2.172   7.342
77576SOL    HW134625   2.126   2.150   7.432
77576SOL    HW234626   2.068   2.260   7.347
77577SOL     OW34627  14.001   8.449   2.885
77577SOL    HW134628  13.981   8.538   2.855
77577SOL    HW234629  14.096   8.448   2.896
77578SOL     OW34630   6.852   3.071   5.001
77578SOL    HW134631   6.775   3.108   4.957
77578SOL    HW234632   6.824   3.059   5.092
77579SOL     OW34633   8.449  12.739   2.519
77579SOL    HW134634   8.415  12.720   2.431
77579SOL    HW234635   8.376  12.719   2.578
77580SOL     OW34636   3.229  10.716  12.211
77580SOL    HW134637   3.316  10.678  12.198
77580SOL    HW234638   3.206  10.692  12.301
77581SOL     OW34639   7.763   1.565   2.642
77581SOL    HW134640   7.778   1.658   2.659
77581SOL    HW234641   7.667   1.556   2.644
77582SOL     OW34642  10.442  10.237   0.501
77582SOL    HW134643  10.467  10.313   0.449
77582SOL    HW234644  10.525  10.199   0.530
77583SOL     OW34645   2.162   0.566   9.196
77583SOL    HW134646   2.254   0.573   9.223
77583SOL    HW234647   2.143   0.649   9.153
77584SOL     OW34648   5.604  10.691   2.841
77584SOL    HW134649   5.604  10.759   2.907
77584SOL    HW234650   5.552  10.620   2.879
77585SOL     OW34651   1.614   0.927   6.142
77585SOL    HW134652   1.537   0.874   6.125
77585SOL    HW234653   1.580   1.005   6.187
77586SOL     OW34654   2.939   0.322   4.770
77586SOL    HW134655   2.942   0.298   4.862
77586SOL    HW234656   2.878   0.261   4.730
77587SOL     OW34657  11.201   5.262   1.321
77587SOL    HW134658  11.151   5.343   1.333
77587SOL    HW234659  11.165   5.203   1.388
77588SOL     OW34660   4.149   3.390   1.889
77588SOL    HW134661   4.090   3.329   1.846
77588SOL    HW234662   4.232   3.344   1.894
77589SOL     OW34663   0.015   1.502   0.379
77589SOL    HW134664   0.057   1.430   0.332
77589SOL    HW234665  14.859   1.558   0.310
77590SOL     OW34666   6.576   8.740   0.733
77590SOL    HW134667   6.486   8.733   0.700
77590SOL    HW234668   6.566   8.745   0.828
77591SOL     OW34669   7.753  14.873  13.177
77591SOL    HW134670   7.693   0.005  13.104
77591SOL    HW234671   7.703   0.022  13.254
77592SOL     OW34672   2.516   2.120  11.769
77592SOL    HW134673   2.501   2.086  11.681
77592SOL    HW234674   2.552   2.208  11.755
77593SOL     OW34675  11.739  10.999   3.154
77593SOL    HW134676  11.779  11.041   3.230
77593SOL    HW234677  11.736  10.906   3.176
77594SOL     OW34678  11.606   6.649   3.120
77594SOL    HW134679  11.659   6.681   3.047
77594SOL    HW234680  11.516   6.667   3.094
77595SOL     OW34681   4.567   0.129   0.800
77595SOL    HW134682   4.608   0.206   0.840
77595SOL    HW234683   4.493   0.109   0.858
77596SOL     OW34684  10.211   6.955   8.422
77596SOL    HW134685  10.232   6.867   8.452
77596SOL    HW234686  10.163   6.995   8.495
77597SOL     OW34687  11.209   5.623  10.179
77597SOL    HW134688  11.149   5.698  10.176
77597SOL    HW234689  11.184   5.569  10.104
77598SOL     OW34690   0.525   7.999   0.003
77598SOL    HW134691   0.581   8.069   0.038
77598SOL    HW234692   0.578   7.920   0.009
77599SOL     OW34693   6.029  10.670   0.394
77599SOL    HW134694   6.005  10.612   0.322
77599SOL    HW234695   6.107  10.716   0.363
77600SOL     OW34696  11.235   3.871  12.035
77600SOL    HW134697  11.234   3.775  12.038
77600SOL    HW234698  11.167   3.894  11.971
77601SOL     OW34699   5.825   2.605   1.399
77601SOL    HW134700   5.821   2.628   1.306
77601SOL    HW234701   5.905   2.553   1.407
77602SOL     OW34702  13.237  11.110   0.965
77602SOL    HW134703  13.239  11.056   1.044
77602SOL    HW234704  13.268  11.196   0.995
77603SOL     OW34705   4.423  14.673   8.623
77603SOL    HW134706   4.388  14.637   8.541
77603SOL    HW234707   4.454  14.596   8.671
77604SOL     OW34708   6.932   6.324   4.694
77604SOL    HW134709   6.973   6.410   4.686
77604SOL    HW234710   7.004   6.264   4.714
77605SOL     OW34711  14.290   1.119  13.314
77605SOL    HW134712  14.194   1.122  13.314
77605SOL    HW234713  14.313   1.117  13.222
77606SOL     OW34714   4.920   3.175   2.031
77606SOL    HW134715   4.953   3.166   1.942
77606SOL    HW234716   4.976   3.117   2.084
77607SOL     OW34717   7.537   8.055   5.267
77607SOL    HW134718   7.517   7.983   5.327
77607SOL    HW234719   7.500   8.132   5.310
77608SOL     OW34720   6.392  11.648  14.456
77608SOL    HW134721   6.332  11.677  14.388
77608SOL    HW234722   6.361  11.560  14.478
77609SOL     OW34723   1.641   3.470   4.113
77609SOL    HW134724   1.616   3.382   4.141
77609SOL    HW234725   1.722   3.457   4.064
77610SOL     OW34726  10.333  13.052  12.506
77610SOL    HW134727  10.381  13.135  12.516
77610SOL    HW234728  10.241  13.075  12.519
77611SOL     OW34729   4.475  12.571   2.232
77611SOL    HW134730   4.476  12.478   2.257
77611SOL    HW234731   4.405  12.578   2.168
77612SOL     OW34732  11.962   6.601   7.631
77612SOL    HW134733  12.034   6.542   7.654
77612SOL    HW234734  11.884   6.545   7.632
77613SOL     OW34735   1.642  12.397   3.294
77613SOL    HW134736   1.609  12.390   3.205
77613SOL    HW234737   1.610  12.318   3.338
77614SOL     OW34738   8.585   8.735   3.054
77614SOL    HW134739   8.540   8.671   3.109
77614SOL    HW234740   8.673   8.699   3.042
77615SOL     OW34741   3.102   3.956   1.536
77615SOL    HW134742   3.071   3.908   1.458
77615SOL    HW234743   3.062   3.909   1.609
77616SOL     OW34744   0.209  13.098   6.380
77616SOL    HW134745   0.116  13.083   6.397
77616SOL    HW234746   0.254  13.061   6.457
77617SOL     OW34747   5.577   0.428   5.775
77617SOL    HW134748   5.626   0.442   5.694
77617SOL    HW234749   5.633   0.371   5.828
77618SOL     OW34750  10.088   2.781   4.859
77618SOL    HW134751  10.164   2.785   4.801
77618SOL    HW234752  10.020   2.738   4.807
77619SOL     OW34753   5.124  10.162  14.784
77619SOL    HW134754   5.052  10.226  14.779
77619SOL    HW234755   5.173  10.175  14.703
77620SOL     OW34756  13.330   6.977   1.980
77620SOL    HW134757  13.244   6.935   1.980
77620SOL    HW234758  13.392   6.905   1.992
77621SOL     OW34759  10.794   4.351   6.536
77621SOL    HW134760  10.818   4.400   6.615
77621SOL    HW234761  10.835   4.399   6.465
77622SOL     OW34762   5.900   8.709   0.199
77622SOL    HW134763   5.961   8.681   0.130
77622SOL    HW234764   5.939   8.790   0.233
77623SOL     OW34765  13.089   4.132  14.418
77623SOL    HW134766  13.005   4.175  14.432
77623SOL    HW234767  13.094   4.122  14.323
77624SOL     OW34768   1.180  12.784   1.521
77624SOL    HW134769   1.096  12.828   1.531
77624SOL    HW234770   1.169  12.727   1.445
77625SOL     OW34771  11.942   9.151  10.382
77625SOL    HW134772  11.946   9.239  10.420
77625SOL    HW234773  11.849   9.129  10.381
77626SOL     OW34774   4.309   9.583   2.242
77626SOL    HW134775   4.400   9.593   2.213
77626SOL    HW234776   4.306   9.628   2.327
77627SOL     OW34777   7.449  14.633   0.351
77627SOL    HW134778   7.408  14.708   0.394
77627SOL    HW234779   7.427  14.642   0.259
77628SOL     OW34780   4.328  12.384  11.524
77628SOL    HW134781   4.382  12.428  11.459
77628SOL    HW234782   4.348  12.291  11.513
77629SOL     OW34783   4.157  10.249  14.077
77629SOL    HW134784   4.130  10.300  14.001
77629SOL    HW234785   4.213  10.180  14.041
77630SOL     OW34786   1.160  13.177  13.820
77630SOL    HW134787   1.081  13.216  13.781
77630SOL    HW234788   1.172  13.095  13.772
77631SOL     OW34789  13.732   4.797   8.442
77631SOL    HW134790  13.716   4.887   8.415
77631SOL    HW234791  13.668   4.746   8.392
77632SOL     OW34792   2.536   4.449   9.405
77632SOL    HW134793   2.447   4.429   9.436
77632SOL    HW234794   2.589   4.449   9.485
77633SOL     OW34795   3.217   3.840   5.606
77633SOL    HW134796   3.226   3.909   5.540
77633SOL    HW234797   3.307   3.826   5.638
77634SOL     OW34798   0.767   6.672  10.296
77634SOL    HW134799   0.762   6.767  10.283
77634SOL    HW234800   0.834   6.643  10.235
77635SOL     OW34801   3.746   9.789   3.444
77635SOL    HW134802   3.738   9.869   3.496
77635SOL    HW234803   3.840   9.773   3.439
77636SOL     OW34804   8.509  11.191  10.806
77636SOL    HW134805   8.576  11.124  10.797
77636SOL    HW234806   8.475  11.204  10.718
77637SOL     OW34807   7.538   2.437   5.310
77637SOL    HW134808   7.467   2.476   5.361
77637SOL    HW234809   7.541   2.346   5.339
77638SOL     OW34810   7.101  12.838   9.733
77638SOL    HW134811   7.100  12.743   9.745
77638SOL    HW234812   7.038  12.854   9.663
77639SOL     OW34813   8.608   6.269   7.348
77639SOL    HW134814   8.646   6.235   7.267
77639SOL    HW234815   8.683   6.292   7.403
77640SOL     OW34816   1.982  11.033   8.218
77640SOL    HW134817   2.054  11.087   8.251
77640SOL    HW234818   2.024  10.965   8.166
77641SOL     OW34819   6.713   2.874  11.208
77641SOL    HW134820   6.668   2.827  11.278
77641SOL    HW234821   6.655   2.867  11.133
77642SOL     OW34822   4.061   3.965   6.951
77642SOL    HW134823   4.120   3.958   7.026
77642SOL    HW234824   4.099   3.907   6.885
77643SOL     OW34825  12.919   5.436   8.332
77643SOL    HW134826  12.974   5.407   8.259
77643SOL    HW234827  12.881   5.520   8.303
77644SOL     OW34828  13.137   4.144  14.134
77644SOL    HW134829  13.203   4.142  14.065
77644SOL    HW234830  13.128   4.053  14.161
77645SOL     OW34831   7.357  11.129  13.137
77645SOL    HW134832   7.293  11.149  13.068
77645SOL    HW234833   7.405  11.053  13.103
77646SOL     OW34834   4.763   4.476   9.139
77646SOL    HW134835   4.711   4.541   9.184
77646SOL    HW234836   4.837   4.525   9.103
77647SOL     OW34837   7.325  13.510   2.679
77647SOL    HW134838   7.287  13.485   2.764
77647SOL    HW234839   7.299  13.440   2.620
77648SOL     OW34840   5.719  13.215  14.592
77648SOL    HW134841   5.639  13.162  14.591
77648SOL    HW234842   5.739  13.227  14.685
77649SOL     OW34843   4.385  11.501  12.637
77649SOL    HW134844   4.402  11.472  12.727
77649SOL    HW234845   4.339  11.427  12.597
77650SOL     OW34846  14.436  10.761  13.515
77650SOL    HW134847  14.522  10.729  13.542
77650SOL    HW234848  14.406  10.815  13.589
77651SOL     OW34849   6.418   4.168   6.761
77651SOL    HW134850   6.466   4.141   6.683
77651SOL    HW234851   6.335   4.202   6.727
77652SOL     OW34852  13.615   1.388   6.883
77652SOL    HW134853  13.701   1.383   6.925
77652SOL    HW234854  13.560   1.329   6.934
77653SOL     OW34855   3.497   9.547  11.677
77653SOL    HW134856   3.533   9.469  11.635
77653SOL    HW234857   3.574   9.591  11.715
77654SOL     OW34858  11.851  12.980   0.038
77654SOL    HW134859  11.930  12.992   0.090
77654SOL    HW234860  11.840  13.063  14.872
77655SOL     OW34861  14.024   5.905  12.343
77655SOL    HW134862  13.945   5.853  12.360
77655SOL    HW234863  13.990   5.993  12.325
77656SOL     OW34864   5.185   3.368   1.771
77656SOL    HW134865   5.177   3.411   1.856
77656SOL    HW234866   5.197   3.275   1.791
77657SOL     OW34867   2.925   1.169   8.150
77657SOL    HW134868   3.008   1.156   8.105
77657SOL    HW234869   2.928   1.260   8.181
77658SOL     OW34870   4.990   6.302   8.593
77658SOL    HW134871   5.071   6.253   8.604
77658SOL    HW234872   4.935   6.275   8.667
77659SOL     OW34873   5.239   2.647   1.135
77659SOL    HW134874   5.192   2.729   1.150
77659SOL    HW234875   5.296   2.665   1.060
77660SOL     OW34876   9.972   4.862  10.878
77660SOL    HW134877   9.899   4.827  10.929
77660SOL    HW234878  10.050   4.844  10.931
77661SOL     OW34879   3.401  10.109  10.455
77661SOL    HW134880   3.356  10.133  10.374
77661SOL    HW234881   3.453  10.186  10.478
77662SOL     OW34882  13.864   0.264   4.241
77662SOL    HW134883  13.800   0.325   4.278
77662SOL    HW234884  13.812   0.204   4.188
77663SOL     OW34885  11.496  12.211   1.602
77663SOL    HW134886  11.566  12.163   1.646
77663SOL    HW234887  11.423  12.150   1.598
77664SOL     OW34888   4.001  13.121   8.842
77664SOL    HW134889   4.000  13.039   8.893
77664SOL    HW234890   3.994  13.092   8.751
77665SOL     OW34891   6.088   0.620  11.680
77665SOL    HW134892   6.128   0.708  11.681
77665SOL    HW234893   6.019   0.626  11.615
77666SOL     OW34894   9.782  11.224   7.582
77666SOL    HW134895   9.809  11.168   7.655
77666SOL    HW234896   9.707  11.177   7.543
77667SOL     OW34897   2.974   1.005   6.045
77667SOL    HW134898   2.909   1.073   6.064
77667SOL    HW234899   3.056   1.042   6.077
77668SOL     OW34900  14.335  11.380   0.511
77668SOL    HW134901  14.340  11.460   0.563
77668SOL    HW234902  14.424  11.346   0.510
77669SOL     OW34903   9.301   8.336   8.725
77669SOL    HW134904   9.320   8.247   8.698
77669SOL    HW234905   9.363   8.353   8.796
77670SOL     OW34906   8.456  11.797   6.620
77670SOL    HW134907   8.444  11.752   6.536
77670SOL    HW234908   8.409  11.742   6.683
77671SOL     OW34909  11.050   9.898   1.212
77671SOL    HW134910  11.084   9.809   1.210
77671SOL    HW234911  11.128   9.954   1.206
77672SOL     OW34912  14.609  13.981   5.297
77672SOL    HW134913  14.593  14.013   5.385
77672SOL    HW234914  14.543  13.912   5.284
77673SOL     OW34915  12.117   4.822  11.457
77673SOL    HW134916  12.152   4.733  11.455
77673SOL    HW234917  12.108   4.846  11.365
77674SOL     OW34918   0.218  14.428   1.582
77674SOL    HW134919   0.127  14.455   1.596
77674SOL    HW234920   0.245  14.392   1.667
77675SOL     OW34921   3.128  14.808  10.183
77675SOL    HW134922   3.155  14.840  10.097
77675SOL    HW234923   3.189  14.737  10.202
77676SOL     OW34924   1.489   0.262   6.927
77676SOL    HW134925   1.418   0.198   6.928
77676SOL    HW234926   1.547   0.232   6.857
77677SOL     OW34927   1.660  13.350   7.640
77677SOL    HW134928   1.692  13.273   7.593
77677SOL    HW234929   1.696  13.341   7.728
77678SOL     OW34930  12.965   4.387  12.897
77678SOL    HW134931  13.002   4.474  12.906
77678SOL    HW234932  12.878   4.401  12.860
77679SOL     OW34933   7.504   9.206   6.039
77679SOL    HW134934   7.414   9.237   6.052
77679SOL    HW234935   7.514   9.200   5.944
77680SOL     OW34936   8.942   3.068   5.422
77680SOL    HW134937   9.023   3.119   5.430
77680SOL    HW234938   8.890   3.093   5.498
77681SOL     OW34939   9.816   6.511   0.246
77681SOL    HW134940   9.898   6.472   0.276
77681SOL    HW234941   9.823   6.603   0.271
77682SOL     OW34942   6.805   2.057   2.460
77682SOL    HW134943   6.812   1.981   2.402
77682SOL    HW234944   6.831   2.131   2.405
77683SOL     OW34945   6.281   0.923   1.276
77683SOL    HW134946   6.189   0.906   1.293
77683SOL    HW234947   6.288   1.018   1.274
77684SOL     OW34948   5.253  12.167   8.899
77684SOL    HW134949   5.247  12.097   8.964
77684SOL    HW234950   5.193  12.140   8.829
77685SOL     OW34951   8.179  11.490  14.435
77685SOL    HW134952   8.144  11.477  14.524
77685SOL    HW234953   8.272  11.505  14.449
77686SOL     OW34954   6.771   4.458   9.362
77686SOL    HW134955   6.826   4.536   9.363
77686SOL    HW234956   6.809   4.402   9.296
77687SOL     OW34957   3.365   9.431   3.974
77687SOL    HW134958   3.455   9.401   3.976
77687SOL    HW234959   3.364   9.509   4.030
77688SOL     OW34960  13.291   3.820   1.818
77688SOL    HW134961  13.331   3.742   1.855
77688SOL    HW234962  13.202   3.794   1.795
77689SOL     OW34963   6.357   3.295   6.039
77689SOL    HW134964   6.411   3.252   5.972
77689SOL    HW234965   6.404   3.376   6.059
77690SOL     OW34966   5.726   5.241  11.297
77690SOL    HW134967   5.652   5.247  11.357
77690SOL    HW234968   5.703   5.298  11.224
77691SOL     OW34969  13.003  10.371   0.970
77691SOL    HW134970  13.076  10.341   0.917
77691SOL    HW234971  12.966  10.445   0.922
77692SOL     OW34972  11.967  11.000  13.217
77692SOL    HW134973  11.961  10.907  13.241
77692SOL    HW234974  11.890  11.016  13.163
77693SOL     OW34975  10.326   5.409  12.097
77693SOL    HW134976  10.357   5.336  12.151
77693SOL    HW234977  10.231   5.405  12.105
77694SOL     OW34978  11.473  11.391   3.661
77694SOL    HW134979  11.444  11.483   3.664
77694SOL    HW234980  11.476  11.364   3.753
77695SOL     OW34981   8.347  13.749   4.472
77695SOL    HW134982   8.390  13.696   4.405
77695SOL    HW234983   8.416  13.808   4.503
77696SOL     OW34984   5.992  14.135   5.959
77696SOL    HW134985   5.956  14.083   5.887
77696SOL    HW234986   5.916  14.159   6.011
77697SOL     OW34987   8.755   5.633  10.036
77697SOL    HW134988   8.684   5.584  10.075
77697SOL    HW234989   8.724   5.723  10.034
77698SOL     OW34990   3.770   2.702  14.255
77698SOL    HW134991   3.738   2.629  14.307
77698SOL    HW234992   3.840   2.665  14.201
77699SOL     OW34993  10.868   9.413  12.521
77699SOL    HW134994  10.916   9.387  12.599
77699SOL    HW234995  10.892   9.505  12.507
77700SOL     OW34996   3.928  14.852   9.450
77700SOL    HW134997   3.857  14.799   9.414
77700SOL    HW234998   3.975  14.792   9.508
77701SOL     OW34999   4.407   0.862  12.593
77701SOL    HW135000   4.495   0.826  12.599
77701SOL    HW235001   4.405   0.907  12.508
77702SOL     OW35002   7.204   7.388   2.400
77702SOL    HW135003   7.184   7.359   2.489
77702SOL    HW235004   7.192   7.310   2.346
77703SOL     OW35005   3.211   7.271   3.833
77703SOL    HW135006   3.183   7.321   3.756
77703SOL    HW235007   3.208   7.334   3.905
77704SOL     OW35008   8.506   1.606   8.110
77704SOL    HW135009   8.574   1.584   8.047
77704SOL    HW235010   8.469   1.688   8.078
77705SOL     OW35011   6.558   8.344   1.296
77705SOL    HW135012   6.532   8.256   1.322
77705SOL    HW235013   6.649   8.334   1.267
77706SOL     OW35014   3.017   3.451   9.171
77706SOL    HW135015   3.088   3.419   9.116
77706SOL    HW235016   3.020   3.546   9.162
77707SOL     OW35017  10.366   8.842   0.625
77707SOL    HW135018  10.291   8.887   0.664
77707SOL    HW235019  10.334   8.753   0.607
77708SOL     OW35020  11.722   3.132   1.256
77708SOL    HW135021  11.805   3.150   1.300
77708SOL    HW235022  11.694   3.048   1.290
77709SOL     OW35023   9.185   6.780   3.715
77709SOL    HW135024   9.200   6.851   3.652
77709SOL    HW235025   9.149   6.824   3.792
77710SOL     OW35026  12.083   9.483   2.064
77710SOL    HW135027  12.164   9.440   2.092
77710SOL    HW235028  12.020   9.412   2.056
77711SOL     OW35029   8.917   3.588   1.054
77711SOL    HW135030   8.959   3.671   1.030
77711SOL    HW235031   8.824   3.602   1.038
77712SOL     OW35032  12.475   2.206   0.506
77712SOL    HW135033  12.407   2.162   0.455
77712SOL    HW235034  12.554   2.198   0.453
77713SOL     OW35035  13.096   6.784   4.187
77713SOL    HW135036  13.097   6.695   4.154
77713SOL    HW235037  13.160   6.831   4.132
77714SOL     OW35038  13.758  10.249   1.711
77714SOL    HW135039  13.696  10.276   1.644
77714SOL    HW235040  13.832  10.213   1.663
77715SOL     OW35041   9.318   7.058  11.045
77715SOL    HW135042   9.328   7.127  11.110
77715SOL    HW235043   9.339   6.977  11.092
77716SOL     OW35044  14.831   2.401   4.149
77716SOL    HW135045  14.781   2.455   4.088
77716SOL    HW235046  14.880   2.340   4.092
77717SOL     OW35047  11.808   9.454   7.176
77717SOL    HW135048  11.791   9.364   7.200
77717SOL    HW235049  11.901   9.455   7.153
77718SOL     OW35050   8.543   8.629  11.381
77718SOL    HW135051   8.551   8.542  11.422
77718SOL    HW235052   8.632   8.665  11.384
77719SOL     OW35053  11.796  14.269   3.826
77719SOL    HW135054  11.742  14.203   3.870
77719SOL    HW235055  11.739  14.308   3.760
77720SOL     OW35056   2.630   5.309   3.336
77720SOL    HW135057   2.546   5.285   3.296
77720SOL    HW235058   2.638   5.403   3.320
77721SOL     OW35059  11.087   5.787   6.826
77721SOL    HW135060  11.086   5.876   6.863
77721SOL    HW235061  11.069   5.800   6.733
77722SOL     OW35062   9.887   6.738   2.203
77722SOL    HW135063   9.924   6.683   2.272
77722SOL    HW235064   9.939   6.818   2.205
77723SOL     OW35065   5.034   7.704   9.188
77723SOL    HW135066   4.957   7.653   9.210
77723SOL    HW235067   4.999   7.782   9.144
77724SOL     OW35068   7.372  12.903   1.123
77724SOL    HW135069   7.447  12.847   1.143
77724SOL    HW235070   7.373  12.971   1.190
77725SOL     OW35071  13.742   7.533   2.061
77725SOL    HW135072  13.826   7.523   2.015
77725SOL    HW235073  13.729   7.449   2.105
77726SOL     OW35074  10.580  11.686   6.658
77726SOL    HW135075  10.565  11.712   6.567
77726SOL    HW235076  10.551  11.595   6.662
77727SOL     OW35077   5.251  11.204   9.336
77727SOL    HW135078   5.296  11.124   9.363
77727SOL    HW235079   5.160  11.191   9.363
77728SOL     OW35080   3.859   2.907   1.087
77728SOL    HW135081   3.902   2.846   1.026
77728SOL    HW235082   3.870   2.867   1.173
77729SOL     OW35083   1.925   4.043  13.209
77729SOL    HW135084   1.864   4.030  13.282
77729SOL    HW235085   1.868   4.051  13.132
77730SOL     OW35086   4.797   8.089   4.239
77730SOL    HW135087   4.888   8.112   4.259
77730SOL    HW235088   4.781   8.129   4.153
77731SOL     OW35089  12.380   5.886   5.475
77731SOL    HW135090  12.350   5.905   5.563
77731SOL    HW235091  12.339   5.803   5.453
77732SOL     OW35092  14.246  11.671   2.470
77732SOL    HW135093  14.255  11.577   2.488
77732SOL    HW235094  14.276  11.714   2.550
77733SOL     OW35095   1.067   7.420  14.536
77733SOL    HW135096   1.048   7.477  14.462
77733SOL    HW235097   0.999   7.440  14.600
77734SOL     OW35098   5.804   9.598   5.917
77734SOL    HW135099   5.721   9.640   5.939
77734SOL    HW235100   5.787   9.550   5.836
77735SOL     OW35101  12.499   6.668   7.290
77735SOL    HW135102  12.497   6.757   7.257
77735SOL    HW235103  12.456   6.672   7.376
77736SOL     OW35104  10.360  14.658   3.298
77736SOL    HW135105  10.273  14.669   3.261
77736SOL    HW235106  10.353  14.581   3.355
77737SOL     OW35107   7.884   8.609  10.864
77737SOL    HW135108   7.960   8.551  10.859
77737SOL    HW235109   7.921   8.697  10.869
77738SOL     OW35110   2.087  12.644   9.274
77738SOL    HW135111   2.088  12.667   9.367
77738SOL    HW235112   2.152  12.703   9.234
77739SOL     OW35113   4.686   0.617   6.685
77739SOL    HW135114   4.703   0.711   6.677
77739SOL    HW235115   4.680   0.602   6.780
77740SOL     OW35116  10.600  12.370   6.855
77740SOL    HW135117  10.515  12.326   6.854
77740SOL    HW235118  10.656  12.315   6.800
77741SOL     OW35119  14.815   1.258  10.692
77741SOL    HW135120  14.775   1.342  10.669
77741SOL    HW235121   0.014   1.280  10.741
77742SOL     OW35122   2.191  13.749   3.207
77742SOL    HW135123   2.242  13.668   3.206
77742SOL    HW235124   2.185  13.774   3.299
77743SOL     OW35125   9.620  13.324   5.994
77743SOL    HW135126   9.619  13.228   5.989
77743SOL    HW235127   9.657  13.343   6.080
77744SOL     OW35128   8.858   3.075   1.347
77744SOL    HW135129   8.801   3.145   1.316
77744SOL    HW235130   8.942   3.117   1.363
77745SOL     OW35131  11.257   3.248   3.927
77745SOL    HW135132  11.265   3.337   3.893
77745SOL    HW235133  11.282   3.192   3.853
77746SOL     OW35134   8.308   2.210  10.198
77746SOL    HW135135   8.243   2.278  10.217
77746SOL    HW235136   8.393   2.255  10.207
77747SOL     OW35137   3.476  10.980   1.516
77747SOL    HW135138   3.518  10.956   1.433
77747SOL    HW235139   3.484  11.075   1.520
77748SOL     OW35140   4.682  14.126  14.789
77748SOL    HW135141   4.739  14.161  14.720
77748SOL    HW235142   4.688  14.190  14.860
77749SOL     OW35143   6.143  10.634   9.157
77749SOL    HW135144   6.222  10.662   9.111
77749SOL    HW235145   6.118  10.552   9.114
77750SOL     OW35146   1.004  14.299  12.706
77750SOL    HW135147   1.064  14.226  12.721
77750SOL    HW235148   0.917  14.262  12.715
77751SOL     OW35149   8.165  14.426   1.476
77751SOL    HW135150   8.074  14.396   1.485
77751SOL    HW235151   8.208  14.356   1.427
77752SOL     OW35152  14.714  12.674   1.251
77752SOL    HW135153  14.711  12.644   1.342
77752SOL    HW235154  14.669  12.758   1.252
77753SOL     OW35155   1.601   4.349   0.448
77753SOL    HW135156   1.547   4.397   0.386
77753SOL    HW235157   1.595   4.257   0.421
77754SOL     OW35158   2.972   3.152   4.167
77754SOL    HW135159   3.038   3.084   4.181
77754SOL    HW235160   2.902   3.107   4.118
77755SOL     OW35161   3.943   2.160   2.689
77755SOL    HW135162   3.920   2.244   2.648
77755SOL    HW235163   3.958   2.101   2.615
77756SOL     OW35164   8.150   5.914   6.879
77756SOL    HW135165   8.129   6.007   6.877
77756SOL    HW235166   8.074   5.871   6.841
77757SOL     OW35167   2.051   3.820   8.697
77757SOL    HW135168   1.969   3.851   8.661
77757SOL    HW235169   2.066   3.875   8.774
77758SOL     OW35170  13.609   7.155  11.111
77758SOL    HW135171  13.651   7.224  11.060
77758SOL    HW235172  13.671   7.082  11.107
77759SOL     OW35173  10.394   6.220   7.731
77759SOL    HW135174  10.481   6.223   7.691
77759SOL    HW235175  10.339   6.181   7.663
77760SOL     OW35176  13.602  10.005   1.418
77760SOL    HW135177  13.592  10.090   1.461
77760SOL    HW235178  13.555  10.013   1.335
77761SOL     OW35179   6.985   1.107   8.264
77761SOL    HW135180   6.983   1.014   8.244
77761SOL    HW235181   6.899   1.126   8.303
77762SOL     OW35182  11.278   2.157  14.313
77762SOL    HW135183  11.206   2.118  14.363
77762SOL    HW235184  11.317   2.083  14.266
77763SOL     OW35185   2.006   9.847  14.870
77763SOL    HW135186   2.073   9.887   0.046
77763SOL    HW235187   1.983   9.766   0.036
77764SOL     OW35188   7.877   6.074   1.090
77764SOL    HW135189   7.921   6.022   1.157
77764SOL    HW235190   7.890   6.026   1.009
77765SOL     OW35191   2.108  11.089  13.816
77765SOL    HW135192   2.094  11.183  13.830
77765SOL    HW235193   2.096  11.077  13.722
77766SOL     OW35194   5.690   7.425  12.391
77766SOL    HW135195   5.746   7.503  12.395
77766SOL    HW235196   5.703   7.382  12.475
77767SOL     OW35197   5.693  14.288  11.054
77767SOL    HW135198   5.609  14.299  11.010
77767SOL    HW235199   5.751  14.251  10.988
77768SOL     OW35200   5.169   8.631   1.001
77768SOL    HW135201   5.241   8.694   1.009
77768SOL    HW235202   5.119   8.662   0.926
77769SOL     OW35203  12.500  12.868   8.693
77769SOL    HW135204  12.519  12.823   8.775
77769SOL    HW235205  12.578  12.855   8.639
77770SOL     OW35206   3.669  11.756  13.627
77770SOL    HW135207   3.594  11.802  13.588
77770SOL    HW235208   3.725  11.827  13.660
77771SOL     OW35209  11.824   5.796   5.960
77771SOL    HW135210  11.774   5.756   6.031
77771SOL    HW235211  11.795   5.887   5.958
77772SOL     OW35212   6.680   3.278  10.357
77772SOL    HW135213   6.707   3.281  10.265
77772SOL    HW235214   6.593   3.238  10.355
77773SOL     OW35215  14.839   4.669   5.515
77773SOL    HW135216  14.812   4.760   5.528
77773SOL    HW235217   0.004   4.646   5.597
77774SOL     OW35218   1.183   0.525  10.918
77774SOL    HW135219   1.149   0.437  10.936
77774SOL    HW235220   1.171   0.573  11.000
77775SOL     OW35221   2.303   7.156   2.747
77775SOL    HW135222   2.212   7.137   2.768
77775SOL    HW235223   2.313   7.250   2.765
77776SOL     OW35224   3.520  10.661   6.124
77776SOL    HW135225   3.490  10.719   6.054
77776SOL    HW235226   3.509  10.573   6.089
77777SOL     OW35227   8.250   3.600   0.353
77777SOL    HW135228   8.283   3.690   0.348
77777SOL    HW235229   8.161   3.609   0.388
77778SOL     OW35230  13.678  13.038  11.650
77778SOL    HW135231  13.699  13.094  11.725
77778SOL    HW235232  13.679  12.949  11.685
77779SOL     OW35233   1.334  13.795   5.895
77779SOL    HW135234   1.245  13.793   5.861
77779SOL    HW235235   1.376  13.866   5.846
77780SOL     OW35236   8.825   8.942   4.029
77780SOL    HW135237   8.884   9.015   4.011
77780SOL    HW235238   8.873   8.864   3.999
77781SOL     OW35239   7.305   4.368   4.904
77781SOL    HW135240   7.276   4.445   4.854
77781SOL    HW235241   7.324   4.402   4.991
77782SOL     OW35242  14.377   4.950   0.554
77782SOL    HW135243  14.382   4.902   0.637
77782SOL    HW235244  14.305   5.011   0.567
77783SOL     OW35245  11.109   5.384  11.461
77783SOL    HW135246  11.189   5.403  11.411
77783SOL    HW235247  11.135   5.318  11.525
77784SOL     OW35248   7.590   5.110   5.154
77784SOL    HW135249   7.516   5.160   5.188
77784SOL    HW235250   7.570   5.019   5.176
77785SOL     OW35251  13.781   1.147  12.187
77785SOL    HW135252  13.838   1.071  12.194
77785SOL    HW235253  13.696   1.116  12.218
77786SOL     OW35254  10.078   2.636   7.732
77786SOL    HW135255  10.125   2.712   7.697
77786SOL    HW235256  10.134   2.603   7.802
77787SOL     OW35257   7.022   7.474   5.632
77787SOL    HW135258   7.084   7.438   5.695
77787SOL    HW235259   6.991   7.397   5.583
77788SOL     OW35260  13.759   8.254   5.713
77788SOL    HW135261  13.771   8.247   5.618
77788SOL    HW235262  13.669   8.283   5.724
77789SOL     OW35263  12.231   0.458   7.205
77789SOL    HW135264  12.236   0.544   7.162
77789SOL    HW235265  12.318   0.420   7.191
77790SOL     OW35266   2.072   6.303   1.870
77790SOL    HW135267   2.148   6.273   1.820
77790SOL    HW235268   2.096   6.289   1.961
77791SOL     OW35269   1.372   1.658   4.347
77791SOL    HW135270   1.430   1.625   4.278
77791SOL    HW235271   1.298   1.597   4.348
77792SOL     OW35272   2.862   6.727   3.450
77792SOL    HW135273   2.776   6.717   3.491
77792SOL    HW235274   2.905   6.796   3.501
77793SOL     OW35275   8.935   1.341   7.121
77793SOL    HW135276   9.028   1.347   7.099
77793SOL    HW235277   8.922   1.249   7.146
77794SOL     OW35278   4.860  10.214   3.694
77794SOL    HW135279   4.952  10.205   3.719
77794SOL    HW235280   4.811  10.173   3.766
77795SOL     OW35281  12.577   6.405   5.447
77795SOL    HW135282  12.495   6.375   5.488
77795SOL    HW235283  12.626   6.325   5.431
77796SOL     OW35284   2.719   0.756   0.355
77796SOL    HW135285   2.753   0.798   0.434
77796SOL    HW235286   2.792   0.756   0.293
77797SOL     OW35287   4.545   7.007   0.513
77797SOL    HW135288   4.633   6.973   0.498
77797SOL    HW235289   4.544   7.032   0.605
77798SOL     OW35290  10.932  11.192   3.265
77798SOL    HW135291  11.023  11.168   3.278
77798SOL    HW235292  10.916  11.179   3.171
77799SOL     OW35293   0.607  10.725   5.964
77799SOL    HW135294   0.689  10.702   5.919
77799SOL    HW235295   0.545  10.741   5.894
77800SOL     OW35296   2.012  13.507   7.693
77800SOL    HW135297   2.107  13.496   7.696
77800SOL    HW235298   1.978  13.417   7.693
77801SOL     OW35299   0.883   6.097   2.066
77801SOL    HW135300   0.820   6.155   2.023
77801SOL    HW235301   0.960   6.152   2.081
77802SOL     OW35302   9.876   0.980   6.347
77802SOL    HW135303   9.844   1.063   6.313
77802SOL    HW235304   9.863   0.918   6.276
77803SOL     OW35305  11.743   1.296   7.441
77803SOL    HW135306  11.786   1.211   7.441
77803SOL    HW235307  11.650   1.275   7.429
77804SOL     OW35308   2.061   2.859  13.444
77804SOL    HW135309   2.040   2.923  13.376
77804SOL    HW235310   1.976   2.819  13.466
77805SOL     OW35311   3.505   9.022   2.297
77805SOL    HW135312   3.453   9.102   2.307
77805SOL    HW235313   3.593   9.054   2.279
77806SOL     OW35314   9.699  13.215   1.106
77806SOL    HW135315   9.682  13.121   1.099
77806SOL    HW235316   9.660  13.240   1.190
77807SOL     OW35317  11.212   7.575   8.534
77807SOL    HW135318  11.142   7.529   8.581
77807SOL    HW235319  11.240   7.643   8.595
77808SOL     OW35320  12.539   0.148   4.808
77808SOL    HW135321  12.510   0.237   4.827
77808SOL    HW235322  12.633   0.156   4.790
77809SOL     OW35323   6.412   3.891   4.997
77809SOL    HW135324   6.370   3.805   4.998
77809SOL    HW235325   6.403   3.922   4.907
77810SOL     OW35326  12.603   3.380   5.030
77810SOL    HW135327  12.654   3.462   5.032
77810SOL    HW235328  12.669   3.311   5.024
77811SOL     OW35329  12.281   6.251   4.954
77811SOL    HW135330  12.279   6.343   4.925
77811SOL    HW235331  12.191   6.220   4.941
77812SOL     OW35332   5.854  11.765   3.326
77812SOL    HW135333   5.847  11.671   3.339
77812SOL    HW235334   5.793  11.802   3.390
77813SOL     OW35335   4.594  11.862  12.728
77813SOL    HW135336   4.608  11.836  12.820
77813SOL    HW235337   4.649  11.939  12.716
77814SOL     OW35338   7.890   2.442   6.264
77814SOL    HW135339   7.798   2.462   6.283
77814SOL    HW235340   7.932   2.437   6.350
77815SOL     OW35341  10.060   4.846  10.403
77815SOL    HW135342  10.154   4.829  10.395
77815SOL    HW235343  10.036   4.807  10.487
77816SOL     OW35344   8.564   0.882  13.595
77816SOL    HW135345   8.645   0.933  13.596
77816SOL    HW235346   8.589   0.798  13.633
77817SOL     OW35347  13.312   2.128   2.080
77817SOL    HW135348  13.354   2.076   2.013
77817SOL    HW235349  13.247   2.181   2.034
77818SOL     OW35350  13.864   6.608   6.518
77818SOL    HW135351  13.930   6.603   6.448
77818SOL    HW235352  13.912   6.644   6.593
77819SOL     OW35353  12.859   9.462   3.786
77819SOL    HW135354  12.878   9.549   3.751
77819SOL    HW235355  12.879   9.402   3.714
77820SOL     OW35356   1.015   7.225   2.577
77820SOL    HW135357   0.950   7.156   2.563
77820SOL    HW235358   1.011   7.279   2.498
77821SOL     OW35359   4.307  13.631   1.564
77821SOL    HW135360   4.398  13.615   1.539
77821SOL    HW235361   4.263  13.547   1.549
77822SOL     OW35362  12.451  10.267  11.153
77822SOL    HW135363  12.514  10.301  11.089
77822SOL    HW235364  12.468  10.172  11.154
77823SOL     OW35365   4.166  11.339  12.508
77823SOL    HW135366   4.161  11.432  12.486
77823SOL    HW235367   4.119  11.294  12.437
77824SOL     OW35368   5.907  13.471  10.846
77824SOL    HW135369   6.000  13.467  10.822
77824SOL    HW235370   5.907  13.486  10.940
77825SOL     OW35371  11.453   9.801   8.889
77825SOL    HW135372  11.394   9.760   8.826
77825SOL    HW235373  11.430   9.762   8.973
77826SOL     OW35374  10.370  12.386   5.853
77826SOL    HW135375  10.287  12.411   5.893
77826SOL    HW235376  10.395  12.305   5.897
77827SOL     OW35377   4.697  13.700   2.730
77827SOL    HW135378   4.729  13.637   2.666
77827SOL    HW235379   4.751  13.686   2.808
77828SOL     OW35380   5.784  12.135  12.439
77828SOL    HW135381   5.769  12.145  12.345
77828SOL    HW235382   5.704  12.095  12.472
77829SOL     OW35383  11.354   2.629   5.607
77829SOL    HW135384  11.269   2.668   5.585
77829SOL    HW235385  11.349   2.540   5.570
77830SOL     OW35386  12.241   9.218   1.595
77830SOL    HW135387  12.260   9.302   1.636
77830SOL    HW235388  12.205   9.240   1.509
77831SOL     OW35389  13.669   1.078   3.717
77831SOL    HW135390  13.605   1.023   3.762
77831SOL    HW235391  13.635   1.085   3.627
77832SOL     OW35392   6.131   6.776  11.970
77832SOL    HW135393   6.218   6.737  11.975
77832SOL    HW235394   6.145   6.869  11.986
77833SOL     OW35395  14.284  13.800   3.067
77833SOL    HW135396  14.328  13.742   3.004
77833SOL    HW235397  14.355  13.836   3.120
77834SOL     OW35398  14.217   9.977   5.988
77834SOL    HW135399  14.300   9.930   5.980
77834SOL    HW235400  14.184   9.953   6.074
77835SOL     OW35401   9.264   3.817   8.399
77835SOL    HW135402   9.233   3.752   8.336
77835SOL    HW235403   9.267   3.770   8.482
77836SOL     OW35404   1.648   0.271  13.913
77836SOL    HW135405   1.624   0.258  14.005
77836SOL    HW235406   1.573   0.236  13.864
77837SOL     OW35407   7.799   7.117   0.065
77837SOL    HW135408   7.744   7.039   0.057
77837SOL    HW235409   7.777   7.170  14.868
77838SOL     OW35410  12.416  10.530   3.778
77838SOL    HW135411  12.367  10.531   3.860
77838SOL    HW235412  12.464  10.447   3.780
77839SOL     OW35413   0.395   5.817   8.745
77839SOL    HW135414   0.324   5.767   8.786
77839SOL    HW235415   0.354   5.902   8.724
77840SOL     OW35416   5.242   5.180   3.237
77840SOL    HW135417   5.332   5.149   3.250
77840SOL    HW235418   5.251   5.272   3.213
77841SOL     OW35419  12.547   4.184  13.447
77841SOL    HW135420  12.527   4.214  13.536
77841SOL    HW235421  12.494   4.105  13.436
77842SOL     OW35422   5.774  13.893   7.210
77842SOL    HW135423   5.770  13.830   7.282
77842SOL    HW235424   5.686  13.933   7.208
77843SOL     OW35425   8.466   9.095   5.433
77843SOL    HW135426   8.410   9.147   5.375
77843SOL    HW235427   8.427   9.007   5.431
77844SOL     OW35428   1.962  10.821  13.084
77844SOL    HW135429   1.974  10.726  13.095
77844SOL    HW235430   2.025  10.860  13.144
77845SOL     OW35431  12.359   9.151   1.975
77845SOL    HW135432  12.425   9.136   1.907
77845SOL    HW235433  12.408   9.185   2.050
77846SOL     OW35434  11.795   9.650   2.496
77846SOL    HW135435  11.885   9.621   2.505
77846SOL    HW235436  11.801   9.735   2.452
77847SOL     OW35437   7.280   4.322   5.568
77847SOL    HW135438   7.208   4.271   5.531
77847SOL    HW235439   7.301   4.278   5.650
77848SOL     OW35440   6.254  13.486   5.486
77848SOL    HW135441   6.302  13.494   5.405
77848SOL    HW235442   6.281  13.561   5.538
77849SOL     OW35443   8.090   1.509  12.186
77849SOL    HW135444   8.021   1.457  12.228
77849SOL    HW235445   8.046   1.550  12.112
77850SOL     OW35446  11.055   8.904  11.109
77850SOL    HW135447  11.038   8.990  11.070
77850SOL    HW235448  11.096   8.925  11.193
77851SOL     OW35449  11.837   8.318  11.940
77851SOL    HW135450  11.840   8.304  11.846
77851SOL    HW235451  11.772   8.255  11.971
77852SOL     OW35452   2.340  10.991   1.169
77852SOL    HW135453   2.435  10.984   1.154
77852SOL    HW235454   2.306  10.904   1.148
77853SOL     OW35455   8.163  10.726   8.094
77853SOL    HW135456   8.098  10.795   8.097
77853SOL    HW235457   8.245  10.771   8.072
77854SOL     OW35458   8.483   2.997  13.520
77854SOL    HW135459   8.442   3.073  13.561
77854SOL    HW235460   8.419   2.968  13.454
77855SOL     OW35461  11.103  10.776  10.248
77855SOL    HW135462  11.146  10.724  10.315
77855SOL    HW235463  11.093  10.716  10.174
77856SOL     OW35464   9.714   7.890   4.209
77856SOL    HW135465   9.754   7.846   4.134
77856SOL    HW235466   9.743   7.838   4.285
77857SOL     OW35467   1.570   9.100   8.333
77857SOL    HW135468   1.539   9.063   8.251
77857SOL    HW235469   1.663   9.078   8.336
77858SOL     OW35470   0.339   5.592   9.587
77858SOL    HW135471   0.426   5.553   9.584
77858SOL    HW235472   0.303   5.563   9.671
77859SOL     OW35473   9.824   1.057   8.856
77859SOL    HW135474   9.910   1.094   8.840
77859SOL    HW235475   9.797   1.021   8.772
77860SOL     OW35476  14.109   1.928   8.763
77860SOL    HW135477  14.087   1.849   8.715
77860SOL    HW235478  14.036   1.988   8.745
77861SOL     OW35479  12.329   6.074   6.471
77861SOL    HW135480  12.421   6.056   6.452
77861SOL    HW235481  12.332   6.134   6.545
77862SOL     OW35482   2.834  13.416  11.724
77862SOL    HW135483   2.795  13.485  11.670
77862SOL    HW235484   2.858  13.348  11.661
77863SOL     OW35485  10.426  12.989   0.029
77863SOL    HW135486  10.509  12.951   0.057
77863SOL    HW235487  10.388  12.925  14.850
77864SOL     OW35488  11.563  12.801  12.857
77864SOL    HW135489  11.599  12.884  12.889
77864SOL    HW235490  11.530  12.821  12.769
77865SOL     OW35491   0.646  10.380  11.343
77865SOL    HW135492   0.675  10.317  11.408
77865SOL    HW235493   0.721  10.390  11.284
77866SOL     OW35494   6.165   2.662  11.706
77866SOL    HW135495   6.078   2.638  11.737
77866SOL    HW235496   6.211   2.579  11.696
77867SOL     OW35497  13.799   4.801   1.954
77867SOL    HW135498  13.840   4.722   1.989
77867SOL    HW235499  13.853   4.824   1.878
77868SOL     OW35500   0.614  14.528   0.335
77868SOL    HW135501   0.577  14.567   0.256
77868SOL    HW235502   0.663  14.599   0.376
77869SOL     OW35503   1.755   4.807  10.005
77869SOL    HW135504   1.741   4.800   9.910
77869SOL    HW235505   1.844   4.775  10.018
77870SOL     OW35506   6.578   4.941   0.946
77870SOL    HW135507   6.620   5.018   0.985
77870SOL    HW235508   6.652   4.885   0.919
77871SOL     OW35509   6.858   3.573   5.655
77871SOL    HW135510   6.777   3.550   5.610
77871SOL    HW235511   6.865   3.668   5.647
77872SOL     OW35512   5.517   1.032   4.500
77872SOL    HW135513   5.430   1.033   4.460
77872SOL    HW235514   5.544   1.124   4.502
77873SOL     OW35515  11.080   2.082   9.408
77873SOL    HW135516  11.020   2.007   9.408
77873SOL    HW235517  11.134   2.069   9.330
77874SOL     OW35518   2.931   5.061   3.910
77874SOL    HW135519   2.883   5.144   3.919
77874SOL    HW235520   3.018   5.080   3.946
77875SOL     OW35521   8.059   1.872   9.671
77875SOL    HW135522   8.119   1.933   9.628
77875SOL    HW235523   8.116   1.817   9.726
77876SOL     OW35524   6.650   3.799   9.709
77876SOL    HW135525   6.659   3.866   9.777
77876SOL    HW235526   6.613   3.723   9.755
77877SOL     OW35527   9.681   5.609   1.653
77877SOL    HW135528   9.653   5.527   1.693
77877SOL    HW235529   9.697   5.586   1.561
77878SOL     OW35530   2.316   2.687   5.197
77878SOL    HW135531   2.337   2.689   5.104
77878SOL    HW235532   2.231   2.731   5.203
77879SOL     OW35533   6.217  13.257   5.266
77879SOL    HW135534   6.271  13.286   5.192
77879SOL    HW235535   6.265  13.286   5.344
77880SOL     OW35536   5.915   2.856  12.003
77880SOL    HW135537   5.988   2.841  11.944
77880SOL    HW235538   5.899   2.950  12.000
77881SOL     OW35539   5.582   1.347  14.714
77881SOL    HW135540   5.535   1.429  14.704
77881SOL    HW235541   5.620   1.330  14.628
77882SOL     OW35542   2.022   2.888   0.221
77882SOL    HW135543   1.981   2.920   0.140
77882SOL    HW235544   2.042   2.796   0.202
77883SOL     OW35545   0.592   8.558   6.732
77883SOL    HW135546   0.599   8.623   6.802
77883SOL    HW235547   0.539   8.488   6.771
77884SOL     OW35548   8.218   0.993  11.151
77884SOL    HW135549   8.179   0.990  11.063
77884SOL    HW235550   8.143   1.004  11.210
77885SOL     OW35551   7.228  14.454  12.546
77885SOL    HW135552   7.183  14.407  12.476
77885SOL    HW235553   7.311  14.481  12.508
77886SOL     OW35554   6.760   1.876   4.830
77886SOL    HW135555   6.837   1.933   4.839
77886SOL    HW235556   6.741   1.876   4.736
77887SOL     OW35557   5.674   1.415  12.614
77887SOL    HW135558   5.652   1.346  12.677
77887SOL    HW235559   5.721   1.369  12.544
77888SOL     OW35560   1.638  12.189  14.873
77888SOL    HW135561   1.551  12.174  14.837
77888SOL    HW235562   1.691  12.116  14.840
77889SOL     OW35563  11.707   4.779   0.509
77889SOL    HW135564  11.698   4.866   0.550
77889SOL    HW235565  11.617   4.751   0.493
77890SOL     OW35566  12.168  10.325   5.786
77890SOL    HW135567  12.170  10.418   5.762
77890SOL    HW235568  12.175  10.326   5.882
77891SOL     OW35569   8.968   2.940   4.580
77891SOL    HW135570   8.938   2.979   4.498
77891SOL    HW235571   8.913   2.981   4.647
77892SOL     OW35572   8.490  12.312  12.244
77892SOL    HW135573   8.508  12.286  12.154
77892SOL    HW235574   8.397  12.336  12.243
77893SOL     OW35575   4.691   4.404   7.523
77893SOL    HW135576   4.707   4.454   7.443
77893SOL    HW235577   4.595   4.400   7.530
77894SOL     OW35578   4.463   6.694   6.077
77894SOL    HW135579   4.383   6.674   6.125
77894SOL    HW235580   4.433   6.730   5.994
77895SOL     OW35581   4.547   7.934  14.374
77895SOL    HW135582   4.620   7.875  14.391
77895SOL    HW235583   4.470   7.889  14.410
77896SOL     OW35584  11.171   4.149   2.996
77896SOL    HW135585  11.197   4.221   3.053
77896SOL    HW235586  11.115   4.190   2.930
77897SOL     OW35587   5.232  10.763   7.598
77897SOL    HW135588   5.270  10.838   7.643
77897SOL    HW235589   5.139  10.767   7.617
77898SOL     OW35590  11.109   2.668  13.490
77898SOL    HW135591  11.038   2.625  13.442
77898SOL    HW235592  11.069   2.695  13.573
77899SOL     OW35593  12.070   0.389  11.436
77899SOL    HW135594  12.077   0.304  11.392
77899SOL    HW235595  12.057   0.367  11.528
77900SOL     OW35596   5.873   4.869   0.517
77900SOL    HW135597   5.949   4.832   0.473
77900SOL    HW235598   5.879   4.963   0.503
77901SOL     OW35599   1.815   1.644   6.501
77901SOL    HW135600   1.857   1.683   6.577
77901SOL    HW235601   1.721   1.648   6.521
77902SOL     OW35602  12.758   7.725  13.336
77902SOL    HW135603  12.835   7.691  13.291
77902SOL    HW235604  12.739   7.808  13.292
77903SOL     OW35605  13.555  14.847   2.388
77903SOL    HW135606  13.585  14.872   2.300
77903SOL    HW235607  13.569   0.046   2.441
77904SOL     OW35608  13.050   2.155   6.666
77904SOL    HW135609  13.136   2.152   6.624
77904SOL    HW235610  12.989   2.177   6.595
77905SOL     OW35611   0.768   2.544  14.356
77905SOL    HW135612   0.856   2.537  14.393
77905SOL    HW235613   0.738   2.631  14.382
77906SOL     OW35614   0.604   2.796   1.420
77906SOL    HW135615   0.515   2.770   1.398
77906SOL    HW235616   0.648   2.807   1.335
77907SOL     OW35617   2.020  13.920   1.309
77907SOL    HW135618   2.003  13.998   1.256
77907SOL    HW235619   1.980  13.848   1.260
77908SOL     OW35620  12.573   9.657  10.764
77908SOL    HW135621  12.510   9.594  10.729
77908SOL    HW235622  12.589   9.718  10.692
77909SOL     OW35623  12.822   8.842   8.226
77909SOL    HW135624  12.833   8.749   8.249
77909SOL    HW235625  12.749   8.842   8.163
77910SOL     OW35626   4.712   5.611   1.049
77910SOL    HW135627   4.713   5.576   1.138
77910SOL    HW235628   4.677   5.540   0.996
77911SOL     OW35629  10.517   4.727   3.575
77911SOL    HW135630  10.508   4.705   3.482
77911SOL    HW235631  10.598   4.778   3.579
77912SOL     OW35632  13.476   3.704   8.067
77912SOL    HW135633  13.521   3.634   8.115
77912SOL    HW235634  13.401   3.660   8.026
77913SOL     OW35635   0.103  12.776   1.917
77913SOL    HW135636   0.077  12.782   1.825
77913SOL    HW235637   0.021  12.787   1.966
77914SOL     OW35638  11.599   6.801  12.398
77914SOL    HW135639  11.558   6.862  12.338
77914SOL    HW235640  11.584   6.838  12.485
77915SOL     OW35641   3.257   5.199   4.231
77915SOL    HW135642   3.233   5.162   4.146
77915SOL    HW235643   3.174   5.208   4.277
77916SOL     OW35644  14.248   1.653  13.293
77916SOL    HW135645  14.334   1.694  13.292
77916SOL    HW235646  14.233   1.630  13.384
77917SOL     OW35647   6.698   7.608   9.598
77917SOL    HW135648   6.735   7.585   9.683
77917SOL    HW235649   6.678   7.524   9.557
77918SOL     OW35650  13.412  12.921  10.511
77918SOL    HW135651  13.424  12.987  10.443
77918SOL    HW235652  13.354  12.962  10.575
77919SOL     OW35653   1.463   1.807  14.603
77919SOL    HW135654   1.481   1.890  14.647
77919SOL    HW235655   1.386   1.824  14.549
77920SOL     OW35656   8.142   3.292   7.911
77920SOL    HW135657   8.086   3.340   7.971
77920SOL    HW235658   8.216   3.351   7.895
77921SOL     OW35659   7.979   1.413  12.841
77921SOL    HW135660   7.940   1.326  12.846
77921SOL    HW235661   8.058   1.401  12.789
77922SOL     OW35662  11.483   5.986   5.399
77922SOL    HW135663  11.496   5.902   5.355
77922SOL    HW235664  11.424   5.966   5.472
77923SOL     OW35665   0.972  10.104   9.327
77923SOL    HW135666   1.015  10.147   9.401
77923SOL    HW235667   0.879  10.126   9.336
77924SOL     OW35668  10.131  10.314  10.345
77924SOL    HW135669  10.174  10.241  10.388
77924SOL    HW235670  10.137  10.294  10.252
77925SOL     OW35671  12.956   2.958   8.433
77925SOL    HW135672  12.991   3.044   8.458
77925SOL    HW235673  12.876   2.949   8.485
77926SOL     OW35674  14.361   0.028   4.130
77926SOL    HW135675  14.452   0.020   4.159
77926SOL    HW235676  14.368   0.046   4.037
77927SOL     OW35677   3.753   1.711   4.871
77927SOL    HW135678   3.757   1.623   4.909
77927SOL    HW235679   3.838   1.750   4.893
77928SOL     OW35680   7.177   7.174   7.872
77928SOL    HW135681   7.218   7.088   7.883
77928SOL    HW235682   7.107   7.176   7.936
77929SOL     OW35683  13.918  12.220   9.167
77929SOL    HW135684  13.895  12.157   9.099
77929SOL    HW235685  14.006  12.194   9.196
77930SOL     OW35686  12.107  13.558   1.853
77930SOL    HW135687  12.147  13.477   1.886
77930SOL    HW235688  12.067  13.533   1.770
77931SOL     OW35689   3.133  10.153   3.600
77931SOL    HW135690   3.137  10.127   3.692
77931SOL    HW235691   3.135  10.071   3.551
77932SOL     OW35692   8.240   9.684   2.067
77932SOL    HW135693   8.225   9.740   1.990
77932SOL    HW235694   8.160   9.692   2.119
77933SOL     OW35695   2.549   7.950   3.600
77933SOL    HW135696   2.595   7.982   3.522
77933SOL    HW235697   2.585   8.002   3.672
77934SOL     OW35698  14.541  14.193   7.902
77934SOL    HW135699  14.536  14.106   7.942
77934SOL    HW235700  14.550  14.176   7.808
77935SOL     OW35701   6.684   2.587   8.303
77935SOL    HW135702   6.720   2.649   8.366
77935SOL    HW235703   6.757   2.529   8.282
77936SOL     OW35704  10.631  14.254   2.608
77936SOL    HW135705  10.601  14.171   2.646
77936SOL    HW235706  10.724  14.257   2.631
77937SOL     OW35707   9.215  11.392   7.205
77937SOL    HW135708   9.214  11.487   7.219
77937SOL    HW235709   9.177  11.355   7.285
77938SOL     OW35710   3.278  13.358   0.672
77938SOL    HW135711   3.190  13.392   0.652
77938SOL    HW235712   3.281  13.274   0.627
77939SOL     OW35713   2.932   8.627   4.507
77939SOL    HW135714   2.994   8.589   4.569
77939SOL    HW235715   2.931   8.720   4.526
77940SOL     OW35716  11.507  10.855   0.166
77940SOL    HW135717  11.535  10.946   0.153
77940SOL    HW235718  11.461  10.856   0.250
77941SOL     OW35719   3.086   3.848  14.354
77941SOL    HW135720   3.141   3.853  14.275
77941SOL    HW235721   3.006   3.895  14.331
77942SOL     OW35722   7.912  13.432  10.140
77942SOL    HW135723   8.006  13.453  10.139
77942SOL    HW235724   7.887  13.434  10.048
77943SOL     OW35725  10.560   6.444   7.265
77943SOL    HW135726  10.530   6.518   7.212
77943SOL    HW235727  10.524   6.462   7.353
77944SOL     OW35728   1.031   2.112  11.346
77944SOL    HW135729   0.950   2.149  11.383
77944SOL    HW235730   1.084   2.090  11.423
77945SOL     OW35731   9.151   2.682   7.123
77945SOL    HW135732   9.183   2.607   7.173
77945SOL    HW235733   9.217   2.750   7.137
77946SOL     OW35734   5.081  12.320  12.371
77946SOL    HW135735   5.015  12.360  12.315
77946SOL    HW235736   5.162  12.323  12.319
77947SOL     OW35737   9.618   2.008   0.214
77947SOL    HW135738   9.524   1.993   0.223
77947SOL    HW235739   9.652   1.999   0.303
77948SOL     OW35740   2.276  12.975  12.537
77948SOL    HW135741   2.245  12.924  12.612
77948SOL    HW235742   2.196  13.007  12.495
77949SOL     OW35743   1.496  12.201  14.452
77949SOL    HW135744   1.465  12.185  14.363
77949SOL    HW235745   1.417  12.213  14.504
77950SOL     OW35746   9.527  11.561  14.011
77950SOL    HW135747   9.552  11.605  13.930
77950SOL    HW235748   9.470  11.623  14.056
77951SOL     OW35749   7.287  12.162  10.718
77951SOL    HW135750   7.294  12.248  10.676
77951SOL    HW235751   7.351  12.107  10.672
77952SOL     OW35752   8.531  14.368  11.296
77952SOL    HW135753   8.564  14.297  11.242
77952SOL    HW235754   8.439  14.345  11.312
77953SOL     OW35755   5.569   8.262  12.197
77953SOL    HW135756   5.507   8.192  12.215
77953SOL    HW235757   5.653   8.218  12.182
77954SOL     OW35758   5.867   8.703   7.551
77954SOL    HW135759   5.926   8.776   7.569
77954SOL    HW235760   5.923   8.625   7.555
77955SOL     OW35761  10.858   0.191  10.654
77955SOL    HW135762  10.871   0.097  10.666
77955SOL    HW235763  10.845   0.202  10.559
77956SOL     OW35764   2.735   1.859  11.629
77956SOL    HW135765   2.742   1.951  11.605
77956SOL    HW235766   2.775   1.853  11.715
77957SOL     OW35767  11.816   1.506   4.389
77957SOL    HW135768  11.879   1.577   4.396
77957SOL    HW235769  11.866   1.432   4.356
77958SOL     OW35770   8.552   9.647   3.865
77958SOL    HW135771   8.611   9.638   3.791
77958SOL    HW235772   8.498   9.568   3.862
77959SOL     OW35773   7.391   8.925  13.214
77959SOL    HW135774   7.437   8.842  13.203
77959SOL    HW235775   7.459   8.992  13.210
77960SOL     OW35776  14.759  10.177   7.994
77960SOL    HW135777  14.790  10.193   8.084
77960SOL    HW235778  14.742  10.265   7.959
77961SOL     OW35779   9.984   1.340   4.658
77961SOL    HW135780  10.021   1.266   4.609
77961SOL    HW235781  10.047   1.357   4.727
77962SOL     OW35782   5.981   0.901   3.149
77962SOL    HW135783   5.892   0.866   3.144
77962SOL    HW235784   6.027   0.860   3.076
77963SOL     OW35785   7.014   7.307  12.478
77963SOL    HW135786   7.011   7.364  12.555
77963SOL    HW235787   6.931   7.322  12.433
77964SOL     OW35788   2.787   1.279   0.299
77964SOL    HW135789   2.734   1.353   0.269
77964SOL    HW235790   2.872   1.319   0.321
77965SOL     OW35791  14.211   4.327   5.064
77965SOL    HW135792  14.198   4.414   5.027
77965SOL    HW235793  14.264   4.342   5.142
77966SOL     OW35794  14.848   6.302  14.570
77966SOL    HW135795  14.831   6.214  14.535
77966SOL    HW235796  14.761   6.342  14.577
77967SOL     OW35797   0.552   4.648   5.478
77967SOL    HW135798   0.567   4.732   5.521
77967SOL    HW235799   0.463   4.655   5.444
77968SOL     OW35800   1.433   2.390   0.041
77968SOL    HW135801   1.500   2.416   0.104
77968SOL    HW235802   1.447   2.296   0.028
77969SOL     OW35803   4.969   0.782  14.230
77969SOL    HW135804   5.010   0.824  14.305
77969SOL    HW235805   5.035   0.721  14.197
77970SOL     OW35806   9.082   9.086   5.721
77970SOL    HW135807   9.013   9.132   5.674
77970SOL    HW235808   9.163   9.115   5.681
77971SOL     OW35809   2.308   1.229  13.099
77971SOL    HW135810   2.403   1.235  13.114
77971SOL    HW235811   2.294   1.139  13.069
77972SOL     OW35812   3.091   7.312   0.627
77972SOL    HW135813   3.092   7.216   0.624
77972SOL    HW235814   3.103   7.339   0.536
77973SOL     OW35815   7.875   5.909  10.260
77973SOL    HW135816   7.937   5.953  10.202
77973SOL    HW235817   7.925   5.839  10.301
77974SOL     OW35818   0.781   2.407  12.376
77974SOL    HW135819   0.707   2.355  12.347
77974SOL    HW235820   0.854   2.345  12.380
77975SOL     OW35821   1.256   4.092  11.219
77975SOL    HW135822   1.184   4.077  11.158
77975SOL    HW235823   1.317   4.148  11.171
77976SOL     OW35824   5.393   3.929   1.771
77976SOL    HW135825   5.426   3.897   1.688
77976SOL    HW235826   5.328   3.994   1.748
77977SOL     OW35827   3.104  10.470  14.794
77977SOL    HW135828   3.193  10.494  14.816
77977SOL    HW235829   3.051  10.496  14.869
77978SOL     OW35830  11.642   8.165   9.479
77978SOL    HW135831  11.571   8.102   9.462
77978SOL    HW235832  11.604   8.250   9.458
77979SOL     OW35833   4.190  12.587   2.915
77979SOL    HW135834   4.118  12.625   2.864
77979SOL    HW235835   4.203  12.500   2.879
77980SOL     OW35836  11.744   0.820   3.588
77980SOL    HW135837  11.835   0.822   3.618
77980SOL    HW235838  11.749   0.777   3.502
77981SOL     OW35839  13.143   7.799  10.635
77981SOL    HW135840  13.198   7.723  10.615
77981SOL    HW235841  13.096   7.817  10.553
77982SOL     OW35842  11.787   7.383  11.032
77982SOL    HW135843  11.874   7.344  11.024
77982SOL    HW235844  11.748   7.371  10.945
77983SOL     OW35845   8.440   9.876   1.053
77983SOL    HW135846   8.452   9.832   1.137
77983SOL    HW235847   8.496   9.954   1.059
77984SOL     OW35848  12.035   0.852   3.601
77984SOL    HW135849  12.088   0.926   3.632
77984SOL    HW235850  12.017   0.873   3.509
77985SOL     OW35851  10.089   3.256  11.196
77985SOL    HW135852  10.030   3.326  11.166
77985SOL    HW235853  10.119   3.285  11.282
77986SOL     OW35854   4.739  10.387   6.691
77986SOL    HW135855   4.791  10.438   6.754
77986SOL    HW235856   4.770  10.297   6.702
77987SOL     OW35857  14.692  10.869   9.228
77987SOL    HW135858  14.622  10.806   9.245
77987SOL    HW235859  14.687  10.931   9.301
77988SOL     OW35860  12.905   4.194   8.674
77988SOL    HW135861  12.852   4.135   8.619
77988SOL    HW235862  12.883   4.282   8.643
77989SOL     OW35863   2.248  14.075   3.130
77989SOL    HW135864   2.303  13.997   3.127
77989SOL    HW235865   2.262  14.117   3.045
77990SOL     OW35866   5.913   8.040   0.322
77990SOL    HW135867   5.980   8.106   0.304
77990SOL    HW235868   5.880   8.016   0.235
77991SOL     OW35869   1.044   7.218  14.330
77991SOL    HW135870   0.992   7.149  14.370
77991SOL    HW235871   1.055   7.284  14.399
77992SOL     OW35872   9.435  10.363   0.490
77992SOL    HW135873   9.422  10.447   0.535
77992SOL    HW235874   9.400  10.378   0.402
77993SOL     OW35875  14.410   9.740   2.659
77993SOL    HW135876  14.332   9.689   2.683
77993SOL    HW235877  14.378   9.830   2.653
77994SOL     OW35878   4.960   5.924   0.546
77994SOL    HW135879   4.995   5.851   0.496
77994SOL    HW235880   5.036   5.959   0.593
77995SOL     OW35881   8.077   3.584   8.033
77995SOL    HW135882   8.157   3.637   8.029
77995SOL    HW235883   8.016   3.629   7.974
77996SOL     OW35884  14.513   2.689   9.980
77996SOL    HW135885  14.581   2.669   9.915
77996SOL    HW235886  14.443   2.626   9.962
77997SOL     OW35887  12.535   9.099   9.670
77997SOL    HW135888  12.481   9.036   9.622
77997SOL    HW235889  12.481   9.179   9.672
77998SOL     OW35890   8.474   1.994   3.856
77998SOL    HW135891   8.425   1.918   3.824
77998SOL    HW235892   8.554   1.995   3.803
77999SOL     OW35893   3.752   9.964   6.417
77999SOL    HW135894   3.662   9.996   6.409
77999SOL    HW235895   3.798  10.034   6.463
78000SOL     OW35896   8.870   9.094   6.264
78000SOL    HW135897   8.951   9.143   6.249
78000SOL    HW235898   8.806   9.161   6.288
78001SOL     OW35899  11.046   3.436   9.311
78001SOL    HW135900  11.066   3.462   9.222
78001SOL    HW235901  11.115   3.476   9.365
78002SOL     OW35902  12.110   8.833   5.892
78002SOL    HW135903  12.016   8.820   5.910
78002SOL    HW235904  12.128   8.922   5.924
78003SOL     OW35905   0.446   6.531   9.051
78003SOL    HW135906   0.411   6.444   9.066
78003SOL    HW235907   0.479   6.528   8.961
78004SOL     OW35908   4.208   7.678   5.904
78004SOL    HW135909   4.117   7.687   5.878
78004SOL    HW235910   4.205   7.645   5.994
78005SOL     OW35911  13.108  10.277  10.137
78005SOL    HW135912  13.076  10.239  10.055
78005SOL    HW235913  13.078  10.368  10.135
78006SOL     OW35914   3.134   3.343  11.154
78006SOL    HW135915   3.077   3.376  11.084
78006SOL    HW235916   3.110   3.395  11.231
78007SOL     OW35917   7.078   0.090   9.577
78007SOL    HW135918   7.124   0.139   9.509
78007SOL    HW235919   7.146   0.073   9.643
78008SOL     OW35920  14.144  11.233  11.184
78008SOL    HW135921  14.086  11.252  11.257
78008SOL    HW235922  14.197  11.159  11.214
78009SOL     OW35923   8.811   0.138   2.900
78009SOL    HW135924   8.806   0.080   2.977
78009SOL    HW235925   8.726   0.182   2.898
78010SOL     OW35926   7.382   7.849  12.480
78010SOL    HW135927   7.353   7.763  12.510
78010SOL    HW235928   7.434   7.831  12.402
78011SOL     OW35929   4.364   9.554   9.550
78011SOL    HW135930   4.433   9.511   9.499
78011SOL    HW235931   4.397   9.552   9.640
78012SOL     OW35932   2.334   5.720  11.301
78012SOL    HW135933   2.335   5.625  11.300
78012SOL    HW235934   2.272   5.743  11.371
78013SOL     OW35935  14.033  13.086  10.075
78013SOL    HW135936  14.075  13.170  10.056
78013SOL    HW235937  13.977  13.070   9.999
78014SOL     OW35938   2.382  13.378   7.953
78014SOL    HW135939   2.453  13.418   7.902
78014SOL    HW235940   2.366  13.440   8.024
78015SOL     OW35941   1.759   1.701   9.029
78015SOL    HW135942   1.781   1.721   9.120
78015SOL    HW235943   1.710   1.619   9.035
78016SOL     OW35944   3.467   3.024  13.582
78016SOL    HW135945   3.392   2.964  13.584
78016SOL    HW235946   3.533   2.977  13.531
78017SOL     OW35947  14.710   0.841   9.900
78017SOL    HW135948  14.737   0.819   9.811
78017SOL    HW235949  14.641   0.778   9.921
78018SOL     OW35950   4.287  13.968  14.743
78018SOL    HW135951   4.263  14.035  14.808
78018SOL    HW235952   4.211  13.910  14.740
78019SOL     OW35953   9.253   3.003  10.637
78019SOL    HW135954   9.157   2.998  10.642
78019SOL    HW235955   9.280   3.029  10.725
78020SOL     OW35956   9.628   5.682   1.259
78020SOL    HW135957   9.570   5.639   1.197
78020SOL    HW235958   9.705   5.706   1.208
78021SOL     OW35959  11.843   8.364   4.891
78021SOL    HW135960  11.932   8.333   4.910
78021SOL    HW235961  11.800   8.290   4.848
78022SOL     OW35962   6.226  13.040  14.512
78022SOL    HW135963   6.302  13.014  14.565
78022SOL    HW235964   6.262  13.057  14.425
78023SOL     OW35965  11.196   3.295  11.975
78023SOL    HW135966  11.102   3.280  11.972
78023SOL    HW235967  11.220   3.316  11.885
78024SOL     OW35968   2.328   5.480   2.652
78024SOL    HW135969   2.281   5.405   2.689
78024SOL    HW235970   2.405   5.490   2.709
78025SOL     OW35971   5.428   2.387   1.081
78025SOL    HW135972   5.390   2.384   1.170
78025SOL    HW235973   5.469   2.473   1.075
78026SOL     OW35974   7.615   7.032   0.452
78026SOL    HW135975   7.708   7.045   0.471
78026SOL    HW235976   7.610   6.942   0.419
78027SOL     OW35977   4.868   9.300   1.172
78027SOL    HW135978   4.893   9.388   1.202
78027SOL    HW235979   4.921   9.242   1.226
78028SOL     OW35980  10.928   8.616   0.561
78028SOL    HW135981  10.957   8.649   0.646
78028SOL    HW235982  10.878   8.688   0.523
78029SOL     OW35983   2.747   9.077  11.810
78029SOL    HW135984   2.819   9.054  11.752
78029SOL    HW235985   2.670   9.074  11.754
78030SOL     OW35986  11.996   8.100  10.775
78030SOL    HW135987  12.030   8.133  10.692
78030SOL    HW235988  12.017   8.169  10.838
78031SOL     OW35989   0.265  14.666   7.975
78031SOL    HW135990   0.237  14.591   8.027
78031SOL    HW235991   0.183  14.706   7.944
78032SOL     OW35992   6.813   7.975   6.181
78032SOL    HW135993   6.853   8.055   6.216
78032SOL    HW235994   6.794   7.923   6.259
78033SOL     OW35995   0.917  13.823   9.256
78033SOL    HW135996   0.897  13.861   9.171
78033SOL    HW235997   0.951  13.896   9.308
78034SOL     OW35998  13.404   6.077   5.901
78034SOL    HW135999  13.426   6.122   5.982
78034SOL    HW236000  13.391   5.986   5.926
78035SOL     OW36001  12.761  13.082   3.203
78035SOL    HW136002  12.707  13.151   3.166
78035SOL    HW236003  12.850  13.118   3.203
78036SOL     OW36004   3.860  12.392   2.326
78036SOL    HW136005   3.776  12.427   2.296
78036SOL    HW236006   3.926  12.446   2.283
78037SOL     OW36007   4.242  13.336   6.229
78037SOL    HW136008   4.161  13.312   6.183
78037SOL    HW236009   4.312  13.312   6.168
78038SOL     OW36010   7.648   6.762   0.399
78038SOL    HW136011   7.701   6.715   0.464
78038SOL    HW236012   7.691   6.744   0.316
78039SOL     OW36013  13.004   1.417   1.587
78039SOL    HW136014  13.097   1.431   1.570
78039SOL    HW236015  12.980   1.487   1.648
78040SOL     OW36016   1.888   3.775   8.134
78040SOL    HW136017   1.952   3.780   8.063
78040SOL    HW236018   1.818   3.835   8.107
78041SOL     OW36019  13.800   6.002   9.653
78041SOL    HW136020  13.746   5.967   9.724
78041SOL    HW236021  13.801   6.096   9.667
78042SOL     OW36022   9.832   0.506   3.337
78042SOL    HW136023   9.775   0.560   3.283
78042SOL    HW236024   9.773   0.452   3.388
78043SOL     OW36025  10.341  13.231   7.118
78043SOL    HW136026  10.390  13.297   7.069
78043SOL    HW236027  10.364  13.148   7.076
78044SOL     OW36028  10.784   6.238   0.395
78044SOL    HW136029  10.729   6.162   0.413
78044SOL    HW236030  10.874   6.207   0.409
78045SOL     OW36031  14.663  11.134   6.186
78045SOL    HW136032  14.682  11.214   6.138
78045SOL    HW236033  14.708  11.065   6.138
78046SOL     OW36034   6.895   6.953   4.085
78046SOL    HW136035   6.882   6.883   4.149
78046SOL    HW236036   6.985   6.941   4.054
78047SOL     OW36037   5.483   4.774  10.056
78047SOL    HW136038   5.443   4.751   9.973
78047SOL    HW236039   5.415   4.820  10.104
78048SOL     OW36040   6.819   6.531   6.785
78048SOL    HW136041   6.881   6.505   6.854
78048SOL    HW236042   6.843   6.476   6.711
78049SOL     OW36043  14.714   8.726   3.415
78049SOL    HW136044  14.753   8.657   3.467
78049SOL    HW236045  14.626   8.695   3.396
78050SOL     OW36046   2.888   8.142   8.706
78050SOL    HW136047   2.810   8.156   8.760
78050SOL    HW236048   2.946   8.090   8.761
78051SOL     OW36049  12.320   7.142   6.101
78051SOL    HW136050  12.373   7.162   6.025
78051SOL    HW236051  12.304   7.048   6.096
78052SOL     OW36052  14.592   7.930   6.305
78052SOL    HW136053  14.657   7.972   6.362
78052SOL    HW236054  14.578   7.843   6.343
78053SOL     OW36055  14.710   6.786   9.114
78053SOL    HW136056  14.728   6.830   9.198
78053SOL    HW236057  14.774   6.824   9.053
78054SOL     OW36058   3.463   6.854  14.292
78054SOL    HW136059   3.426   6.804  14.220
78054SOL    HW236060   3.390   6.870  14.352
78055SOL     OW36061   4.302   0.542   5.034
78055SOL    HW136062   4.329   0.599   4.963
78055SOL    HW236063   4.220   0.503   5.003
78056SOL     OW36064   8.189   2.373  10.920
78056SOL    HW136065   8.271   2.343  10.881
78056SOL    HW236066   8.202   2.467  10.934
78057SOL     OW36067  13.649   3.508   7.299
78057SOL    HW136068  13.691   3.474   7.379
78057SOL    HW236069  13.617   3.430   7.254
78058SOL     OW36070   8.439   0.707   0.612
78058SOL    HW136071   8.531   0.713   0.639
78058SOL    HW236072   8.398   0.785   0.649
78059SOL     OW36073   7.430  11.187  12.369
78059SOL    HW136074   7.386  11.162  12.288
78059SOL    HW236075   7.427  11.108  12.423
78060SOL     OW36076   1.517   7.730  12.181
78060SOL    HW136077   1.601   7.722  12.226
78060SOL    HW236078   1.490   7.640  12.164
78061SOL     OW36079   1.341  13.053   8.529
78061SOL    HW136080   1.411  13.061   8.464
78061SOL    HW236081   1.266  13.096   8.487
78062SOL     OW36082  10.929   9.323   4.807
78062SOL    HW136083  10.971   9.286   4.884
78062SOL    HW236084  10.836   9.307   4.819
78063SOL     OW36085   1.683  11.210   9.516
78063SOL    HW136086   1.727  11.280   9.468
78063SOL    HW236087   1.753  11.148   9.538
78064SOL     OW36088   2.955  13.086  14.202
78064SOL    HW136089   2.893  13.068  14.273
78064SOL    HW236090   3.041  13.069  14.242
78065SOL     OW36091   4.838   3.779   0.522
78065SOL    HW136092   4.921   3.745   0.490
78065SOL    HW236093   4.772   3.721   0.483
78066SOL     OW36094   6.881   5.733  11.350
78066SOL    HW136095   6.946   5.800  11.371
78066SOL    HW236096   6.803   5.782  11.324
78067SOL     OW36097   0.266  14.111   4.611
78067SOL    HW136098   0.264  14.019   4.636
78067SOL    HW236099   0.175  14.139   4.611
78068SOL     OW36100  12.958   7.922   9.386
78068SOL    HW136101  12.908   7.938   9.305
78068SOL    HW236102  12.965   8.008   9.426
78069SOL     OW36103  14.839   5.579   0.620
78069SOL    HW136104  14.840   5.636   0.543
78069SOL    HW236105  14.784   5.505   0.595
78070SOL     OW36106  12.640  11.060  11.558
78070SOL    HW136107  12.671  11.085  11.471
78070SOL    HW236108  12.718  11.028  11.604
78071SOL     OW36109   9.721  10.899   6.391
78071SOL    HW136110   9.774  10.971   6.424
78071SOL    HW236111   9.745  10.892   6.298
78072SOL     OW36112  12.423   5.818   8.056
78072SOL    HW136113  12.406   5.796   8.148
78072SOL    HW236114  12.476   5.745   8.024
78073SOL     OW36115   0.292   2.823   1.313
78073SOL    HW136116   0.274   2.796   1.222
78073SOL    HW236117   0.240   2.762   1.366
78074SOL     OW36118   2.556  14.607  10.999
78074SOL    HW136119   2.549  14.681  11.059
78074SOL    HW236120   2.509  14.636  10.921
78075SOL     OW36121  12.497   9.563   9.442
78075SOL    HW136122  12.462   9.647   9.413
78075SOL    HW236123  12.423   9.502   9.436
78076SOL     OW36124  11.870   4.381  11.578
78076SOL    HW136125  11.955   4.339  11.586
78076SOL    HW236126  11.840   4.356  11.490
78077SOL     OW36127   0.706   4.883   5.126
78077SOL    HW136128   0.623   4.929   5.140
78077SOL    HW236129   0.735   4.911   5.039
78078SOL     OW36130   9.738   1.623   7.989
78078SOL    HW136131   9.715   1.531   7.999
78078SOL    HW236132   9.752   1.654   8.078
78079SOL     OW36133  11.345  13.189  11.017
78079SOL    HW136134  11.439  13.176  11.029
78079SOL    HW236135  11.309  13.179  11.105
78080SOL     OW36136   2.919   4.440  12.751
78080SOL    HW136137   2.835   4.401  12.729
78080SOL    HW236138   2.897   4.521  12.797
78081SOL     OW36139  12.896   6.330   9.793
78081SOL    HW136140  12.925   6.338   9.702
78081SOL    HW236141  12.858   6.415   9.814
78082SOL     OW36142  11.996   5.586   0.806
78082SOL    HW136143  12.013   5.603   0.713
78082SOL    HW236144  11.918   5.637   0.826
78083SOL     OW36145   9.069  13.951   1.477
78083SOL    HW136146   9.090  14.044   1.478
78083SOL    HW236147   9.049  13.929   1.568
78084SOL     OW36148   6.920   7.957   7.776
78084SOL    HW136149   6.986   7.986   7.713
78084SOL    HW236150   6.856   7.908   7.724
78085SOL     OW36151  12.926   2.492   1.825
78085SOL    HW136152  12.923   2.413   1.880
78085SOL    HW236153  12.846   2.540   1.848
78086SOL     OW36154   3.515  11.929  11.307
78086SOL    HW136155   3.511  11.887  11.221
78086SOL    HW236156   3.599  11.975  11.307
78087SOL     OW36157   2.295   7.628  12.114
78087SOL    HW136158   2.269   7.551  12.164
78087SOL    HW236159   2.237   7.698  12.145
78088SOL     OW36160   4.014   9.600   2.900
78088SOL    HW136161   4.107   9.578   2.909
78088SOL    HW236162   4.012   9.674   2.841
78089SOL     OW36163   9.460   4.714   4.961
78089SOL    HW136164   9.392   4.768   5.002
78089SOL    HW236165   9.533   4.775   4.948
78090SOL     OW36166   9.874   3.990  13.910
78090SOL    HW136167   9.871   3.896  13.923
78090SOL    HW236168   9.942   4.004  13.844
78091SOL     OW36169   8.143   5.808  12.069
78091SOL    HW136170   8.059   5.789  12.027
78091SOL    HW236171   8.126   5.799  12.163
78092SOL     OW36172  14.135   5.058   2.309
78092SOL    HW136173  14.068   4.993   2.289
78092SOL    HW236174  14.191   5.061   2.232
78093SOL     OW36175   3.052   6.162  11.389
78093SOL    HW136176   2.973   6.204  11.424
78093SOL    HW236177   3.075   6.096  11.454
78094SOL     OW36178   3.845  13.230   6.295
78094SOL    HW136179   3.900  13.228   6.374
78094SOL    HW236180   3.905  13.255   6.225
78095SOL     OW36181   7.368  13.076  13.924
78095SOL    HW136182   7.446  13.087  13.978
78095SOL    HW236183   7.363  12.981  13.909
78096SOL     OW36184   8.324   7.997   2.145
78096SOL    HW136185   8.362   8.014   2.058
78096SOL    HW236186   8.399   7.970   2.199
78097SOL     OW36187   2.657   5.597   3.922
78097SOL    HW136188   2.658   5.676   3.977
78097SOL    HW236189   2.602   5.535   3.971
78098SOL     OW36190   9.377   2.721  14.568
78098SOL    HW136191   9.316   2.786  14.603
78098SOL    HW236192   9.464   2.761  14.578
78099SOL     OW36193   0.588  12.416   4.592
78099SOL    HW136194   0.607  12.489   4.533
78099SOL    HW236195   0.505  12.439   4.633
78100SOL     OW36196  12.586  13.517   0.326
78100SOL    HW136197  12.511  13.549   0.376
78100SOL    HW236198  12.629  13.597   0.296
78101SOL     OW36199   7.038  11.344   1.906
78101SOL    HW136200   7.045  11.390   1.822
78101SOL    HW236201   7.081  11.260   1.891
78102SOL     OW36202   7.109   6.544   2.531
78102SOL    HW136203   7.023   6.555   2.490
78102SOL    HW236204   7.171   6.547   2.458
78103SOL     OW36205   7.077   1.817  13.671
78103SOL    HW136206   7.125   1.824  13.588
78103SOL    HW236207   6.985   1.811  13.644
78104SOL     OW36208   9.562   3.941   7.206
78104SOL    HW136209   9.513   3.982   7.278
78104SOL    HW236210   9.649   3.981   7.210
78105SOL     OW36211   2.616   1.202   9.948
78105SOL    HW136212   2.659   1.144  10.010
78105SOL    HW236213   2.585   1.276  10.001
78106SOL     OW36214   4.969   2.338   9.023
78106SOL    HW136215   4.994   2.373   8.938
78106SOL    HW236216   4.877   2.314   9.014
78107SOL     OW36217   9.328  11.000   4.007
78107SOL    HW136218   9.326  11.042   4.093
78107SOL    HW236219   9.415  11.021   3.972
78108SOL     OW36220   8.646  13.348   7.652
78108SOL    HW136221   8.557  13.382   7.644
78108SOL    HW236222   8.702  13.420   7.621
78109SOL     OW36223   4.449  11.284   8.617
78109SOL    HW136224   4.445  11.214   8.553
78109SOL    HW236225   4.474  11.241   8.699
78110SOL     OW36226   7.259   6.485  12.372
78110SOL    HW136227   7.206   6.451  12.300
78110SOL    HW236228   7.344   6.442  12.362
78111SOL     OW36229   4.303  14.060   5.152
78111SOL    HW136230   4.387  14.104   5.164
78111SOL    HW236231   4.252  14.119   5.097
78112SOL     OW36232   2.653  12.143   7.162
78112SOL    HW136233   2.603  12.116   7.239
78112SOL    HW236234   2.600  12.212   7.121
78113SOL     OW36235  11.299   7.726   9.977
78113SOL    HW136236  11.379   7.698  10.021
78113SOL    HW236237  11.247   7.767  10.046
78114SOL     OW36238   1.075   8.478   8.620
78114SOL    HW136239   1.015   8.488   8.547
78114SOL    HW236240   1.061   8.557   8.673
78115SOL     OW36241  11.971  11.600  13.289
78115SOL    HW136242  12.017  11.669  13.241
78115SOL    HW236243  11.967  11.527  13.228
78116SOL     OW36244  13.095   8.571   0.448
78116SOL    HW136245  13.033   8.520   0.499
78116SOL    HW236246  13.089   8.534   0.359
78117SOL     OW36247   1.043  11.868   6.823
78117SOL    HW136248   0.995  11.801   6.773
78117SOL    HW236249   1.022  11.849   6.914
78118SOL     OW36250  12.660   7.227   0.274
78118SOL    HW136251  12.685   7.149   0.324
78118SOL    HW236252  12.633   7.193   0.189
78119SOL     OW36253   8.961   9.873  11.397
78119SOL    HW136254   8.875   9.856  11.435
78119SOL    HW236255   9.002   9.787  11.392
78120SOL     OW36256   4.239  11.873   0.611
78120SOL    HW136257   4.323  11.836   0.638
78120SOL    HW236258   4.261  11.937   0.544
78121SOL     OW36259  13.399  13.162   5.275
78121SOL    HW136260  13.412  13.073   5.307
78121SOL    HW236261  13.306  13.166   5.251
78122SOL     OW36262   9.639  13.930   0.505
78122SOL    HW136263   9.607  13.846   0.538
78122SOL    HW236264   9.598  13.995   0.561
78123SOL     OW36265   3.938   4.068   5.752
78123SOL    HW136266   3.919   4.146   5.700
78123SOL    HW236267   3.901   3.996   5.701
78124SOL     OW36268  10.463   0.792   7.879
78124SOL    HW136269  10.430   0.847   7.950
78124SOL    HW236270  10.557   0.781   7.899
78125SOL     OW36271  14.543   3.858  13.654
78125SOL    HW136272  14.500   3.794  13.596
78125SOL    HW236273  14.475   3.923  13.672
78126SOL     OW36274  13.402   0.860  10.047
78126SOL    HW136275  13.482   0.856  10.099
78126SOL    HW236276  13.349   0.787  10.079
78127SOL     OW36277  13.268   5.603   0.152
78127SOL    HW136278  13.213   5.571   0.080
78127SOL    HW236279  13.262   5.534   0.219
78128SOL     OW36280  12.969   3.185  14.661
78128SOL    HW136281  12.882   3.224  14.671
78128SOL    HW236282  12.971   3.113  14.724
78129SOL     OW36283   0.335   8.530   2.197
78129SOL    HW136284   0.331   8.468   2.270
78129SOL    HW236285   0.317   8.475   2.120
78130SOL     OW36286   5.022   9.874   8.674
78130SOL    HW136287   5.029   9.967   8.698
78130SOL    HW236288   5.106   9.854   8.633
78131SOL     OW36289   1.559   3.240   2.629
78131SOL    HW136290   1.566   3.221   2.723
78131SOL    HW236291   1.546   3.155   2.588
78132SOL     OW36292  11.924   7.194   8.097
78132SOL    HW136293  11.891   7.150   8.175
78132SOL    HW236294  11.999   7.244   8.128
78133SOL     OW36295   1.300  10.563  11.319
78133SOL    HW136296   1.280  10.474  11.291
78133SOL    HW236297   1.378  10.588  11.269
78134SOL     OW36298   5.796   4.251  11.802
78134SOL    HW136299   5.891   4.239  11.811
78134SOL    HW236300   5.777   4.333  11.846
78135SOL     OW36301   0.073   9.474  12.496
78135SOL    HW136302   0.008   9.452  12.563
78135SOL    HW236303   0.154   9.436  12.528
78136SOL     OW36304   9.879  13.759   9.962
78136SOL    HW136305   9.961  13.805   9.951
78136SOL    HW236306   9.896  13.670   9.932
78137SOL     OW36307   8.327   0.496   4.029
78137SOL    HW136308   8.329   0.485   4.124
78137SOL    HW236309   8.239   0.466   4.003
78138SOL     OW36310   8.265   7.335  13.443
78138SOL    HW136311   8.312   7.282  13.508
78138SOL    HW236312   8.177   7.299  13.441
78139SOL     OW36313  11.119  12.196   2.941
78139SOL    HW136314  11.032  12.227   2.916
78139SOL    HW236315  11.103  12.124   3.001
78140SOL     OW36316   8.486  14.717  11.489
78140SOL    HW136317   8.570  14.765  11.490
78140SOL    HW236318   8.476  14.685  11.579
78141SOL     OW36319   9.682   2.161  13.891
78141SOL    HW136320   9.750   2.194  13.950
78141SOL    HW236321   9.731   2.128  13.815
78142SOL     OW36322   9.617  10.500   0.201
78142SOL    HW136323   9.694  10.541   0.240
78142SOL    HW236324   9.544  10.558   0.224
78143SOL     OW36325   3.454  12.060   8.618
78143SOL    HW136326   3.433  11.967   8.632
78143SOL    HW236327   3.432  12.076   8.527
78144SOL     OW36328   8.619   8.527  13.018
78144SOL    HW136329   8.605   8.564  13.106
78144SOL    HW236330   8.715   8.528  13.007
78145SOL     OW36331   9.851   4.725   4.321
78145SOL    HW136332   9.784   4.734   4.254
78145SOL    HW236333   9.892   4.812   4.326
78146SOL     OW36334   2.555   8.708   1.204
78146SOL    HW136335   2.580   8.678   1.116
78146SOL    HW236336   2.499   8.639   1.238
78147SOL     OW36337   3.939  14.278   6.421
78147SOL    HW136338   3.988  14.314   6.348
78147SOL    HW236339   3.899  14.353   6.464
78148SOL     OW36340   3.160   6.938  11.865
78148SOL    HW136341   3.089   6.989  11.905
78148SOL    HW236342   3.240   6.981  11.893
78149SOL     OW36343  14.432   1.365   2.344
78149SOL    HW136344  14.400   1.407   2.423
78149SOL    HW236345  14.422   1.271   2.361
78150SOL     OW36346   9.885  10.751  12.885
78150SOL    HW136347   9.855  10.665  12.856
78150SOL    HW236348   9.820  10.778  12.950
78151SOL     OW36349  10.706   9.942   2.086
78151SOL    HW136350  10.657   9.934   2.004
78151SOL    HW236351  10.797   9.925   2.061
78152SOL     OW36352   1.997  10.381   0.500
78152SOL    HW136353   2.039  10.298   0.481
78152SOL    HW236354   1.904  10.365   0.486
78153SOL     OW36355   5.389   3.399  11.025
78153SOL    HW136356   5.354   3.427  10.940
78153SOL    HW236357   5.431   3.478  11.061
78154SOL     OW36358   6.837  11.547  14.715
78154SOL    HW136359   6.901  11.605  14.757
78154SOL    HW236360   6.886  11.505  14.644
78155SOL     OW36361   2.112   0.820   5.881
78155SOL    HW136362   2.125   0.742   5.936
78155SOL    HW236363   2.155   0.890   5.929
78156SOL     OW36364  13.302   5.310  12.972
78156SOL    HW136365  13.280   5.243  12.908
78156SOL    HW236366  13.221   5.360  12.984
78157SOL     OW36367  11.496   9.761   2.575
78157SOL    HW136368  11.573   9.760   2.632
78157SOL    HW236369  11.467   9.670   2.573
78158SOL     OW36370   4.762  10.624   2.058
78158SOL    HW136371   4.843  10.630   2.007
78158SOL    HW236372   4.693  10.613   1.992
78159SOL     OW36373   0.300  14.052   2.652
78159SOL    HW136374   0.287  14.114   2.581
78159SOL    HW236375   0.365  14.094   2.709
78160SOL     OW36376   6.488   5.749   0.985
78160SOL    HW136377   6.442   5.728   0.904
78160SOL    HW236378   6.490   5.845   0.987
78161SOL     OW36379  10.965   4.640   9.822
78161SOL    HW136380  11.045   4.623   9.772
78161SOL    HW236381  10.992   4.699   9.892
78162SOL     OW36382  13.655   1.731   7.175
78162SOL    HW136383  13.650   1.709   7.268
78162SOL    HW236384  13.691   1.820   7.174
78163SOL     OW36385   9.061  11.227   2.714
78163SOL    HW136386   9.067  11.323   2.715
78163SOL    HW236387   9.151  11.198   2.698
78164SOL     OW36388   2.973  13.062  10.474
78164SOL    HW136389   3.063  13.040  10.448
78164SOL    HW236390   2.969  13.158  10.466
78165SOL     OW36391   0.841   2.026  14.348
78165SOL    HW136392   0.852   2.120  14.333
78165SOL    HW236393   0.804   2.019  14.436
78166SOL     OW36394  12.022   4.193  10.133
78166SOL    HW136395  12.069   4.115  10.162
78166SOL    HW236396  12.012   4.246  10.212
78167SOL     OW36397   3.393   1.608   4.190
78167SOL    HW136398   3.321   1.554   4.223
78167SOL    HW236399   3.472   1.562   4.218
78168SOL     OW36400  14.117   1.191  14.785
78168SOL    HW136401  14.049   1.193  14.718
78168SOL    HW236402  14.077   1.235  14.861
78169SOL     OW36403   5.868   9.893   2.137
78169SOL    HW136404   5.861   9.856   2.049
78169SOL    HW236405   5.958   9.874   2.163
78170SOL     OW36406   4.106   2.902   8.031
78170SOL    HW136407   4.163   2.972   8.062
78170SOL    HW236408   4.122   2.897   7.937
78171SOL     OW36409  13.186  14.851   0.048
78171SOL    HW136410  13.228  14.785   0.103
78171SOL    HW236411  13.258   0.026   0.017
78172SOL     OW36412   4.308  12.284   7.150
78172SOL    HW136413   4.372  12.268   7.219
78172SOL    HW236414   4.274  12.197   7.129
78173SOL     OW36415   0.298   5.794  10.543
78173SOL    HW136416   0.240   5.781  10.618
78173SOL    HW236417   0.248   5.850  10.484
78174SOL     OW36418   1.519  14.663  10.149
78174SOL    HW136419   1.479  14.639  10.065
78174SOL    HW236420   1.492  14.594  10.209
78175SOL     OW36421  10.621  12.504   9.290
78175SOL    HW136422  10.550  12.479   9.232
78175SOL    HW236423  10.626  12.434   9.355
78176SOL     OW36424   7.553   9.268   8.281
78176SOL    HW136425   7.527   9.195   8.225
78176SOL    HW236426   7.615   9.318   8.229
78177SOL     OW36427   0.445   2.334   0.784
78177SOL    HW136428   0.425   2.374   0.699
78177SOL    HW236429   0.372   2.274   0.800
78178SOL     OW36430  12.058  12.157   6.980
78178SOL    HW136431  12.139  12.113   7.007
78178SOL    HW236432  12.018  12.096   6.918
78179SOL     OW36433   1.532  14.194   7.162
78179SOL    HW136434   1.602  14.259   7.162
78179SOL    HW236435   1.575  14.111   7.182
78180SOL     OW36436   5.058   3.495   8.543
78180SOL    HW136437   5.016   3.573   8.506
78180SOL    HW236438   5.134   3.480   8.486
78181SOL     OW36439   0.715  13.694   9.439
78181SOL    HW136440   0.621  13.706   9.443
78181SOL    HW236441   0.746  13.763   9.380
78182SOL     OW36442   9.746  13.912  11.674
78182SOL    HW136443   9.830  13.868  11.667
78182SOL    HW236444   9.717  13.895  11.764
78183SOL     OW36445  12.459  10.435   5.833
78183SOL    HW136446  12.441  10.512   5.887
78183SOL    HW236447  12.471  10.470   5.744
78184SOL     OW36448   0.625   3.438   5.838
78184SOL    HW136449   0.624   3.472   5.749
78184SOL    HW236450   0.692   3.490   5.882
78185SOL     OW36451   8.385  13.331   6.992
78185SOL    HW136452   8.430  13.400   6.944
78185SOL    HW236453   8.293  13.343   6.970
78186SOL     OW36454   9.514   3.654  13.150
78186SOL    HW136455   9.512   3.566  13.189
78186SOL    HW236456   9.463   3.646  13.070
78187SOL     OW36457   5.329  11.424   1.721
78187SOL    HW136458   5.353  11.345   1.770
78187SOL    HW236459   5.369  11.496   1.769
78188SOL     OW36460   4.421   0.072   3.339
78188SOL    HW136461   4.516   0.067   3.339
78188SOL    HW236462   4.399   0.134   3.270
78189SOL     OW36463  13.818  14.259  12.713
78189SOL    HW136464  13.786  14.174  12.685
78189SOL    HW236465  13.739  14.313  12.722
78190SOL     OW36466  13.991   5.082  12.859
78190SOL    HW136467  13.927   5.011  12.851
78190SOL    HW236468  14.071   5.046  12.819
78191SOL     OW36469   1.355   8.431   4.655
78191SOL    HW136470   1.273   8.381   4.656
78191SOL    HW236471   1.413   8.383   4.596
78192SOL     OW36472   2.643   9.416   9.526
78192SOL    HW136473   2.582   9.419   9.452
78192SOL    HW236474   2.647   9.323   9.549
78193SOL     OW36475   2.682  10.149   4.611
78193SOL    HW136476   2.599  10.195   4.622
78193SOL    HW236477   2.677  10.074   4.671
78194SOL     OW36478  10.147   1.692   5.792
78194SOL    HW136479  10.197   1.761   5.837
78194SOL    HW236480  10.175   1.697   5.701
78195SOL     OW36481   5.706   8.697  12.908
78195SOL    HW136482   5.676   8.764  12.970
78195SOL    HW236483   5.749   8.747  12.839
78196SOL     OW36484   1.129   5.434   4.752
78196SOL    HW136485   1.104   5.350   4.713
78196SOL    HW236486   1.184   5.476   4.686
78197SOL     OW36487   1.841   0.506   3.987
78197SOL    HW136488   1.756   0.481   4.023
78197SOL    HW236489   1.877   0.424   3.953
78198SOL     OW36490   5.992   3.391   0.218
78198SOL    HW136491   6.043   3.470   0.197
78198SOL    HW236492   6.035   3.321   0.170
78199SOL     OW36493   7.711  11.903  14.657
78199SOL    HW136494   7.745  11.992  14.657
78199SOL    HW236495   7.781  11.850  14.619
78200SOL     OW36496  10.745  10.266   1.045
78200SOL    HW136497  10.754  10.214   0.965
78200SOL    HW236498  10.832  10.262   1.086
78201SOL     OW36499   6.686   9.844   2.707
78201SOL    HW136500   6.659   9.927   2.747
78201SOL    HW236501   6.725   9.871   2.623
78202SOL     OW36502   8.714   9.238  14.166
78202SOL    HW136503   8.626   9.207  14.145
78202SOL    HW236504   8.741   9.289  14.090
78203SOL     OW36505   7.232   2.829   6.347
78203SOL    HW136506   7.269   2.757   6.398
78203SOL    HW236507   7.307   2.880   6.319
78204SOL     OW36508   8.694   2.629   5.587
78204SOL    HW136509   8.611   2.675   5.584
78204SOL    HW236510   8.670   2.536   5.594
78205SOL     OW36511   7.746  13.319   2.871
78205SOL    HW136512   7.664  13.279   2.900
78205SOL    HW236513   7.723  13.368   2.793
78206SOL     OW36514   1.488   7.944   2.601
78206SOL    HW136515   1.480   8.037   2.579
78206SOL    HW236516   1.443   7.935   2.685
78207SOL     OW36517  12.760  13.509   8.853
78207SOL    HW136518  12.783  13.600   8.875
78207SOL    HW236519  12.689  13.487   8.913
78208SOL     OW36520   3.929   9.427   0.352
78208SOL    HW136521   3.885   9.512   0.360
78208SOL    HW236522   3.860   9.362   0.368
78209SOL     OW36523   5.476   6.354   3.811
78209SOL    HW136524   5.557   6.305   3.824
78209SOL    HW236525   5.504   6.438   3.775
78210SOL     OW36526  14.846  10.726  14.284
78210SOL    HW136527   0.047  10.674  14.277
78210SOL    HW236528  14.777  10.666  14.259
78211SOL     OW36529   0.336   6.268   7.856
78211SOL    HW136530   0.299   6.249   7.770
78211SOL    HW236531   0.381   6.351   7.845
78212SOL     OW36532  11.606   9.982  12.601
78212SOL    HW136533  11.550   9.945  12.668
78212SOL    HW236534  11.556   9.971  12.520
78213SOL     OW36535   7.890   2.241  13.066
78213SOL    HW136536   7.981   2.266  13.083
78213SOL    HW236537   7.843   2.268  13.145
78214SOL     OW36538   2.608  13.291  12.637
78214SOL    HW136539   2.677  13.358  12.631
78214SOL    HW236540   2.621  13.250  12.722
78215SOL     OW36541   6.132   4.180   9.865
78215SOL    HW136542   6.161   4.100   9.821
78215SOL    HW236543   6.194   4.247   9.838
78216SOL     OW36544   7.938   4.760   5.967
78216SOL    HW136545   8.025   4.722   5.952
78216SOL    HW236546   7.881   4.684   5.978
78217SOL     OW36547   2.346   0.280   2.251
78217SOL    HW136548   2.400   0.304   2.326
78217SOL    HW236549   2.409   0.253   2.184
78218SOL     OW36550  13.553   4.509  12.099
78218SOL    HW136551  13.617   4.488  12.166
78218SOL    HW236552  13.471   4.522  12.147
78219SOL     OW36553   2.301   8.194   8.222
78219SOL    HW136554   2.281   8.143   8.300
78219SOL    HW236555   2.354   8.135   8.168
78220SOL     OW36556   9.590   6.119   6.540
78220SOL    HW136557   9.606   6.081   6.626
78220SOL    HW236558   9.636   6.062   6.479
78221SOL     OW36559   6.161   9.547   8.043
78221SOL    HW136560   6.072   9.510   8.041
78221SOL    HW236561   6.199   9.511   8.124
78222SOL     OW36562  14.427   9.505  10.686
78222SOL    HW136563  14.452   9.520  10.777
78222SOL    HW236564  14.453   9.585  10.640
78223SOL     OW36565   5.711   9.883  13.098
78223SOL    HW136566   5.704   9.905  13.005
78223SOL    HW236567   5.806   9.882  13.115
78224SOL     OW36568   1.694   0.793  10.017
78224SOL    HW136569   1.781   0.761   9.993
78224SOL    HW236570   1.673   0.747  10.098
78225SOL     OW36571  11.047   0.278   3.176
78225SOL    HW136572  11.030   0.205   3.236
78225SOL    HW236573  11.135   0.308   3.198
78226SOL     OW36574   1.180   2.710   0.283
78226SOL    HW136575   1.135   2.695   0.366
78226SOL    HW236576   1.270   2.731   0.308
78227SOL     OW36577   2.966   3.749  12.450
78227SOL    HW136578   2.970   3.659  12.417
78227SOL    HW236579   2.872   3.769  12.452
78228SOL     OW36580   1.490   0.856   0.226
78228SOL    HW136581   1.553   0.928   0.222
78228SOL    HW236582   1.418   0.884   0.169
78229SOL     OW36583  11.863   4.973   5.599
78229SOL    HW136584  11.837   4.913   5.669
78229SOL    HW236585  11.782   4.995   5.554
78230SOL     OW36586  12.205   1.236  11.358
78230SOL    HW136587  12.298   1.259  11.351
78230SOL    HW236588  12.173   1.291  11.429
78231SOL     OW36589  10.098   7.105   9.429
78231SOL    HW136590  10.050   7.155   9.363
78231SOL    HW236591  10.031   7.080   9.493
78232SOL     OW36592  13.287   8.016   5.194
78232SOL    HW136593  13.216   7.984   5.138
78232SOL    HW236594  13.263   7.988   5.283
78233SOL     OW36595  13.605   2.582   7.746
78233SOL    HW136596  13.527   2.562   7.798
78233SOL    HW236597  13.640   2.497   7.721
78234SOL     OW36598   4.207   5.272   4.078
78234SOL    HW136599   4.250   5.333   4.138
78234SOL    HW236600   4.177   5.327   4.006
78235SOL     OW36601   8.308  14.442   1.050
78235SOL    HW136602   8.369  14.410   1.117
78235SOL    HW236603   8.332  14.534   1.037
78236SOL     OW36604  12.838   7.519  10.176
78236SOL    HW136605  12.757   7.522  10.226
78236SOL    HW236606  12.906   7.504  10.241
78237SOL     OW36607   0.699   3.698   7.105
78237SOL    HW136608   0.639   3.645   7.157
78237SOL    HW236609   0.644   3.736   7.036
78238SOL     OW36610   3.441   3.207   8.052
78238SOL    HW136611   3.476   3.266   7.985
78238SOL    HW236612   3.371   3.159   8.007
78239SOL     OW36613   1.389   0.769   3.012
78239SOL    HW136614   1.476   0.768   2.973
78239SOL    HW236615   1.347   0.689   2.980
78240SOL     OW36616   2.018  10.716   6.663
78240SOL    HW136617   1.981  10.628   6.666
78240SOL    HW236618   1.969  10.764   6.730
78241SOL     OW36619   9.754  12.646   8.448
78241SOL    HW136620   9.696  12.707   8.402
78241SOL    HW236621   9.706  12.621   8.526
78242SOL     OW36622   3.191  11.575   9.152
78242SOL    HW136623   3.271  11.542   9.192
78242SOL    HW236624   3.151  11.498   9.111
78243SOL     OW36625   1.137  11.196   8.032
78243SOL    HW136626   1.153  11.147   8.112
78243SOL    HW236627   1.063  11.151   7.991
78244SOL     OW36628   9.887  10.932  14.269
78244SOL    HW136629   9.941  10.879  14.328
78244SOL    HW236630   9.848  10.999  14.326
78245SOL     OW36631   1.109   9.864  10.826
78245SOL    HW136632   1.160   9.794  10.866
78245SOL    HW236633   1.152   9.945  10.854
78246SOL     OW36634  11.916   3.487   7.692
78246SOL    HW136635  11.888   3.511   7.780
78246SOL    HW236636  11.897   3.565   7.639
78247SOL     OW36637   1.679   8.238   7.074
78247SOL    HW136638   1.659   8.180   7.001
78247SOL    HW236639   1.594   8.273   7.101
78248SOL     OW36640   1.111   5.732   7.474
78248SOL    HW136641   1.040   5.795   7.466
78248SOL    HW236642   1.134   5.710   7.384
78249SOL     OW36643   0.608   7.394  10.152
78249SOL    HW136644   0.670   7.336  10.197
78249SOL    HW236645   0.648   7.409  10.066
78250SOL     OW36646  12.166   1.299   0.071
78250SOL    HW136647  12.134   1.338  14.869
78250SOL    HW236648  12.105   1.331   0.138
78251SOL     OW36649   0.824   2.033  10.096
78251SOL    HW136650   0.814   2.056  10.004
78251SOL    HW236651   0.776   1.951  10.106
78252SOL     OW36652   6.562  10.386   1.764
78252SOL    HW136653   6.646  10.432   1.758
78252SOL    HW236654   6.540  10.367   1.673
78253SOL     OW36655   5.375   7.099  12.191
78253SOL    HW136656   5.365   7.194  12.192
78253SOL    HW236657   5.353   7.073  12.101
78254SOL     OW36658   0.455  11.915   3.234
78254SOL    HW136659   0.550  11.908   3.229
78254SOL    HW236660   0.439  11.957   3.319
78255SOL     OW36661   9.829   1.273   6.299
78255SOL    HW136662   9.828   1.269   6.203
78255SOL    HW236663   9.892   1.342   6.319
78256SOL     OW36664   0.721   4.292   1.947
78256SOL    HW136665   0.803   4.330   1.980
78256SOL    HW236666   0.655   4.359   1.961
78257SOL     OW36667   4.206  12.973   4.099
78257SOL    HW136668   4.224  12.927   4.017
78257SOL    HW236669   4.267  13.046   4.100
78258SOL     OW36670   4.398  10.082   0.164
78258SOL    HW136671   4.445  10.137   0.102
78258SOL    HW236672   4.455  10.080   0.241
78259SOL     OW36673   9.833   1.065   0.129
78259SOL    HW136674   9.853   1.152   0.093
78259SOL    HW236675   9.757   1.080   0.185
78260SOL     OW36676   9.167   9.917   0.519
78260SOL    HW136677   9.244   9.926   0.462
78260SOL    HW236678   9.153   9.822   0.525
78261SOL     OW36679   4.978   6.236   4.202
78261SOL    HW136680   4.959   6.241   4.109
78261SOL    HW236681   4.892   6.244   4.244
78262SOL     OW36682   7.571  14.370   2.368
78262SOL    HW136683   7.605  14.284   2.341
78262SOL    HW236684   7.495  14.384   2.312
78263SOL     OW36685  11.662  14.566   4.883
78263SOL    HW136686  11.649  14.472   4.888
78263SOL    HW236687  11.751  14.576   4.848
78264SOL     OW36688   3.725  10.143   1.469
78264SOL    HW136689   3.783  10.181   1.536
78264SOL    HW236690   3.767  10.060   1.446
78265SOL     OW36691   8.662  11.943  12.025
78265SOL    HW136692   8.674  11.868  12.082
78265SOL    HW236693   8.736  12.001  12.044
78266SOL     OW36694  13.245   5.789   0.352
78266SOL    HW136695  13.299   5.767   0.428
78266SOL    HW236696  13.251   5.711   0.296
78267SOL     OW36697  11.363   0.983   9.367
78267SOL    HW136698  11.414   1.030   9.301
78267SOL    HW236699  11.293   1.043   9.390
78268SOL     OW36700   7.349  11.903   7.918
78268SOL    HW136701   7.444  11.918   7.918
78268SOL    HW236702   7.337  11.831   7.980
78269SOL     OW36703   8.609  11.939   4.633
78269SOL    HW136704   8.658  11.879   4.690
78269SOL    HW236705   8.640  12.026   4.658
78270SOL     OW36706   7.400  11.057   2.136
78270SOL    HW136707   7.320  11.022   2.176
78270SOL    HW236708   7.394  11.152   2.149
78271SOL     OW36709  10.298  13.012   0.297
78271SOL    HW136710  10.281  12.944   0.232
78271SOL    HW236711  10.249  13.088   0.266
78272SOL     OW36712   1.972   2.848  12.582
78272SOL    HW136713   2.001   2.758  12.567
78272SOL    HW236714   2.043   2.888  12.632
78273SOL     OW36715   5.744   4.661  13.598
78273SOL    HW136716   5.693   4.686  13.521
78273SOL    HW236717   5.710   4.574  13.621
78274SOL     OW36718  13.156   9.524   5.234
78274SOL    HW136719  13.080   9.581   5.242
78274SOL    HW236720  13.198   9.551   5.152
78275SOL     OW36721   4.166  14.432   6.933
78275SOL    HW136722   4.235  14.396   6.989
78275SOL    HW236723   4.092  14.447   6.992
78276SOL     OW36724   0.334   1.685  10.276
78276SOL    HW136725   0.333   1.647  10.364
78276SOL    HW236726   0.363   1.775  10.290
78277SOL     OW36727   8.471   6.018  14.706
78277SOL    HW136728   8.428   6.089  14.754
78277SOL    HW236729   8.510   5.964  14.775
78278SOL     OW36730   1.344   7.937   2.872
78278SOL    HW136731   1.363   7.872   2.939
78278SOL    HW236732   1.248   7.941   2.868
78279SOL     OW36733   8.687   7.565   1.422
78279SOL    HW136734   8.695   7.617   1.503
78279SOL    HW236735   8.599   7.586   1.389
78280SOL     OW36736   7.469   6.276   3.367
78280SOL    HW136737   7.397   6.294   3.428
78280SOL    HW236738   7.464   6.182   3.350
78281SOL     OW36739  12.562   6.891   3.174
78281SOL    HW136740  12.509   6.971   3.173
78281SOL    HW236741  12.549   6.852   3.088
78282SOL     OW36742   5.218  12.347  13.229
78282SOL    HW136743   5.165  12.357  13.307
78282SOL    HW236744   5.233  12.253  13.221
78283SOL     OW36745   2.060   7.561  10.023
78283SOL    HW136746   2.047   7.516   9.940
78283SOL    HW236747   1.975   7.600  10.044
78284SOL     OW36748   3.840   5.674  10.649
78284SOL    HW136749   3.799   5.598  10.606
78284SOL    HW236750   3.791   5.685  10.730
78285SOL     OW36751  13.763  13.655  12.779
78285SOL    HW136752  13.852  13.677  12.808
78285SOL    HW236753  13.706  13.695  12.844
78286SOL     OW36754  13.718   1.864   1.711
78286SOL    HW136755  13.701   1.927   1.782
78286SOL    HW236756  13.697   1.779   1.749
78287SOL     OW36757   1.344   9.151   2.245
78287SOL    HW136758   1.326   9.096   2.321
78287SOL    HW236759   1.407   9.215   2.276
78288SOL     OW36760   4.148   2.264   6.822
78288SOL    HW136761   4.202   2.269   6.744
78288SOL    HW236762   4.137   2.170   6.837
78289SOL     OW36763   2.417   5.559   1.639
78289SOL    HW136764   2.437   5.636   1.692
78289SOL    HW236765   2.322   5.546   1.650
78290SOL     OW36766   0.586  12.428  14.696
78290SOL    HW136767   0.576  12.460  14.786
78290SOL    HW236768   0.497  12.404  14.670
78291SOL     OW36769  13.397   9.574   9.347
78291SOL    HW136770  13.322   9.623   9.381
78291SOL    HW236771  13.360   9.493   9.312
78292SOL     OW36772   8.147  14.262   2.952
78292SOL    HW136773   8.119  14.200   3.020
78292SOL    HW236774   8.119  14.223   2.870
78293SOL     OW36775  12.818   8.136  12.379
78293SOL    HW136776  12.791   8.185  12.457
78293SOL    HW236777  12.860   8.202  12.323
78294SOL     OW36778  10.635   6.250   0.146
78294SOL    HW136779  10.685   6.245   0.227
78294SOL    HW236780  10.688   6.307   0.089
78295SOL     OW36781  10.519  14.444   1.148
78295SOL    HW136782  10.434  14.473   1.114
78295SOL    HW236783  10.565  14.408   1.072
78296SOL     OW36784   4.182  14.651   1.323
78296SOL    HW136785   4.195  14.562   1.357
78296SOL    HW236786   4.094  14.675   1.352
78297SOL     OW36787   1.611  10.374   0.277
78297SOL    HW136788   1.685  10.427   0.247
78297SOL    HW236789   1.545  10.437   0.304
78298SOL     OW36790   9.409   3.487   5.276
78298SOL    HW136791   9.451   3.438   5.206
78298SOL    HW236792   9.475   3.552   5.302
78299SOL     OW36793   1.935   3.651   3.417
78299SOL    HW136794   1.945   3.715   3.487
78299SOL    HW236795   1.894   3.699   3.345
78300SOL     OW36796   8.770  11.281   0.666
78300SOL    HW136797   8.734  11.244   0.586
78300SOL    HW236798   8.706  11.348   0.691
78301SOL     OW36799   2.617   0.864  10.585
78301SOL    HW136800   2.644   0.773  10.601
78301SOL    HW236801   2.571   0.890  10.665
78302SOL     OW36802   7.573   8.647  11.590
78302SOL    HW136803   7.603   8.678  11.504
78302SOL    HW236804   7.628   8.571  11.608
78303SOL     OW36805  13.868  14.355  13.769
78303SOL    HW136806  13.898  14.427  13.824
78303SOL    HW236807  13.777  14.340  13.795
78304SOL     OW36808  14.154  14.539   9.374
78304SOL    HW136809  14.247  14.564   9.370
78304SOL    HW236810  14.141  14.482   9.298
78305SOL     OW36811   4.340  10.856   4.455
78305SOL    HW136812   4.286  10.873   4.533
78305SOL    HW236813   4.279  10.862   4.382
78306SOL     OW36814   9.717  11.983  11.087
78306SOL    HW136815   9.757  12.016  11.006
78306SOL    HW236816   9.643  11.931  11.057
78307SOL     OW36817  11.916  12.455  13.788
78307SOL    HW136818  11.997  12.505  13.797
78307SOL    HW236819  11.920  12.418  13.700
78308SOL     OW36820   5.067   4.544   5.312
78308SOL    HW136821   5.134   4.593   5.266
78308SOL    HW236822   5.007   4.611   5.346
78309SOL     OW36823  13.902  10.411   8.682
78309SOL    HW136824  13.974  10.424   8.743
78309SOL    HW236825  13.901  10.490   8.628
78310SOL     OW36826   8.204   6.135   1.293
78310SOL    HW136827   8.224   6.122   1.386
78310SOL    HW236828   8.288   6.120   1.249
78311SOL     OW36829   3.079   9.593  12.306
78311SOL    HW136830   3.102   9.683  12.327
78311SOL    HW236831   3.023   9.565  12.378
78312SOL     OW36832   6.584   3.841   3.760
78312SOL    HW136833   6.617   3.835   3.670
78312SOL    HW236834   6.519   3.912   3.756
78313SOL     OW36835  10.314   5.230   7.053
78313SOL    HW136836  10.274   5.150   7.017
78313SOL    HW236837  10.396   5.239   7.006
78314SOL     OW36838   4.547   7.726   7.290
78314SOL    HW136839   4.465   7.775   7.290
78314SOL    HW236840   4.538   7.663   7.220
78315SOL     OW36841   3.261   8.062   6.201
78315SOL    HW136842   3.311   8.036   6.278
78315SOL    HW236843   3.249   8.156   6.210
78316SOL     OW36844   7.967  10.598   7.702
78316SOL    HW136845   7.876  10.572   7.688
78316SOL    HW236846   8.018  10.519   7.682
78317SOL     OW36847   1.768  11.903   0.208
78317SOL    HW136848   1.801  11.972   0.266
78317SOL    HW236849   1.835  11.835   0.211
78318SOL     OW36850   3.851   9.582  14.525
78318SOL    HW136851   3.936   9.560  14.565
78318SOL    HW236852   3.858   9.676  14.507
78319SOL     OW36853   7.128   2.606   5.276
78319SOL    HW136854   7.162   2.594   5.365
78319SOL    HW236855   7.205   2.601   5.220
78320SOL     OW36856  12.125   3.787   8.686
78320SOL    HW136857  12.052   3.741   8.646
78320SOL    HW236858  12.203   3.742   8.654
78321SOL     OW36859  13.261   2.894   8.719
78321SOL    HW136860  13.173   2.912   8.752
78321SOL    HW236861  13.251   2.816   8.664
78322SOL     OW36862  11.085   4.334  11.203
78322SOL    HW136863  11.088   4.300  11.114
78322SOL    HW236864  11.150   4.281  11.250
78323SOL     OW36865  11.744   7.089   3.943
78323SOL    HW136866  11.659   7.121   3.911
78323SOL    HW236867  11.790   7.061   3.864
78324SOL     OW36868   1.192   5.739   8.967
78324SOL    HW136869   1.126   5.802   8.938
78324SOL    HW236870   1.172   5.724   9.059
78325SOL     OW36871  10.829   4.108   2.699
78325SOL    HW136872  10.783   4.073   2.775
78325SOL    HW236873  10.772   4.177   2.666
78326SOL     OW36874  13.472  14.305   6.022
78326SOL    HW136875  13.524  14.273   5.948
78326SOL    HW236876  13.417  14.375   5.985
78327SOL     OW36877   4.292  10.943   0.733
78327SOL    HW136878   4.299  10.854   0.698
78327SOL    HW236879   4.276  10.931   0.827
78328SOL     OW36880   1.537   5.827   8.536
78328SOL    HW136881   1.528   5.785   8.622
78328SOL    HW236882   1.625   5.805   8.508
78329SOL     OW36883   4.748  13.950   7.613
78329SOL    HW136884   4.750  13.855   7.607
78329SOL    HW236885   4.661  13.974   7.580
78330SOL     OW36886   0.478   3.545   3.742
78330SOL    HW136887   0.490   3.615   3.807
78330SOL    HW236888   0.423   3.480   3.786
78331SOL     OW36889   3.068   7.300   0.151
78331SOL    HW136890   3.087   7.338   0.237
78331SOL    HW236891   3.032   7.372   0.100
78332SOL     OW36892   8.795   7.128   1.162
78332SOL    HW136893   8.731   7.059   1.177
78332SOL    HW236894   8.799   7.176   1.244
78333SOL     OW36895   7.532   2.839   1.619
78333SOL    HW136896   7.477   2.831   1.697
78333SOL    HW236897   7.473   2.823   1.546
78334SOL     OW36898  11.702  12.224   1.960
78334SOL    HW136899  11.621  12.174   1.968
78334SOL    HW236900  11.765  12.162   1.922
78335SOL     OW36901   9.663   4.760   7.250
78335SOL    HW136902   9.696   4.675   7.279
78335SOL    HW236903   9.683   4.762   7.157
78336SOL     OW36904  10.482   5.741   4.663
78336SOL    HW136905  10.465   5.793   4.584
78336SOL    HW236906  10.534   5.798   4.719
78337SOL     OW36907  13.620   3.693   6.880
78337SOL    HW136908  13.604   3.750   6.955
78337SOL    HW236909  13.660   3.614   6.917
78338SOL     OW36910   1.415   8.020  10.361
78338SOL    HW136911   1.404   7.987  10.450
78338SOL    HW236912   1.481   7.963  10.322
78339SOL     OW36913  11.085   0.660   7.152
78339SOL    HW136914  11.037   0.577   7.159
78339SOL    HW236915  11.174   0.634   7.131
78340SOL     OW36916   6.027   6.105  11.295
78340SOL    HW136917   6.083   6.177  11.266
78340SOL    HW236918   6.089   6.039  11.327
78341SOL     OW36919  12.969   9.792   0.267
78341SOL    HW136920  13.061   9.773   0.282
78341SOL    HW236921  12.925   9.758   0.345
78342SOL     OW36922  10.603   3.397   5.761
78342SOL    HW136923  10.569   3.443   5.838
78342SOL    HW236924  10.548   3.427   5.689
78343SOL     OW36925  10.097   2.556  14.812
78343SOL    HW136926  10.023   2.496  14.816
78343SOL    HW236927  10.078   2.621  14.879
78344SOL     OW36928   1.379   1.000   5.588
78344SOL    HW136929   1.404   1.055   5.662
78344SOL    HW236930   1.284   1.006   5.584
78345SOL     OW36931  14.537  11.679   6.810
78345SOL    HW136932  14.490  11.755   6.843
78345SOL    HW236933  14.559  11.702   6.720
78346SOL     OW36934   1.269  13.806   1.475
78346SOL    HW136935   1.197  13.834   1.532
78346SOL    HW236936   1.307  13.888   1.443
78347SOL     OW36937   6.216   9.546   9.370
78347SOL    HW136938   6.153   9.505   9.310
78347SOL    HW236939   6.192   9.513   9.456
78348SOL     OW36940   5.714   7.092   4.921
78348SOL    HW136941   5.685   7.008   4.885
78348SOL    HW236942   5.677   7.157   4.861
78349SOL     OW36943   6.674   1.451   4.207
78349SOL    HW136944   6.711   1.517   4.148
78349SOL    HW236945   6.582   1.446   4.183
78350SOL     OW36946  10.317  11.803   3.752
78350SOL    HW136947  10.359  11.833   3.672
78350SOL    HW236948  10.357  11.856   3.821
78351SOL     OW36949   3.849   6.548  14.497
78351SOL    HW136950   3.889   6.469  14.533
78351SOL    HW236951   3.852   6.611  14.568
78352SOL     OW36952   7.724   6.353  12.537
78352SOL    HW136953   7.809   6.381  12.504
78352SOL    HW236954   7.661   6.408  12.490
78353SOL     OW36955  13.128  13.901   7.562
78353SOL    HW136956  13.198  13.959   7.533
78353SOL    HW236957  13.148  13.882   7.653
78354SOL     OW36958   9.394   6.446   9.740
78354SOL    HW136959   9.379   6.460   9.834
78354SOL    HW236960   9.486   6.421   9.735
78355SOL     OW36961   6.180  11.847   3.462
78355SOL    HW136962   6.099  11.859   3.512
78355SOL    HW236963   6.173  11.911   3.391
78356SOL     OW36964   7.500   4.026   0.831
78356SOL    HW136965   7.500   3.931   0.837
78356SOL    HW236966   7.556   4.055   0.903
78357SOL     OW36967  14.049  12.682   9.700
78357SOL    HW136968  13.964  12.645   9.726
78357SOL    HW236969  14.062  12.756   9.761
78358SOL     OW36970   4.579   6.146   7.239
78358SOL    HW136971   4.589   6.209   7.168
78358SOL    HW236972   4.507   6.182   7.292
78359SOL     OW36973   4.188  12.931   6.463
78359SOL    HW136974   4.106  12.902   6.503
78359SOL    HW236975   4.256  12.890   6.516
78360SOL     OW36976   1.792   1.248  13.659
78360SOL    HW136977   1.878   1.289  13.669
78360SOL    HW236978   1.806   1.157  13.684
78361SOL     OW36979  11.252   9.250   4.666
78361SOL    HW136980  11.256   9.332   4.714
78361SOL    HW236981  11.162   9.246   4.634
78362SOL     OW36982   2.453   2.684   4.951
78362SOL    HW136983   2.465   2.756   4.889
78362SOL    HW236984   2.448   2.606   4.895
78363SOL     OW36985   4.794  10.876   3.936
78363SOL    HW136986   4.715  10.845   3.891
78363SOL    HW236987   4.825  10.800   3.985
78364SOL     OW36988  11.743  12.196  10.325
78364SOL    HW136989  11.753  12.116  10.377
78364SOL    HW236990  11.715  12.261  10.389
78365SOL     OW36991   9.138  14.069   6.659
78365SOL    HW136992   9.071  14.029   6.715
78365SOL    HW236993   9.159  14.002   6.595
78366SOL     OW36994   7.689   6.045  11.590
78366SOL    HW136995   7.594   6.036  11.579
78366SOL    HW236996   7.725   6.008  11.509
78367SOL     OW36997   9.895   6.279  10.769
78367SOL    HW136998   9.826   6.345  10.779
78367SOL    HW236999   9.968   6.327  10.731
78368SOL     OW37000   1.485   9.689   4.939
78368SOL    HW137001   1.498   9.635   4.861
78368SOL    HW237002   1.495   9.628   5.012
78369SOL     OW37003   1.527   1.771   8.092
78369SOL    HW137004   1.579   1.692   8.107
78369SOL    HW237005   1.495   1.761   8.003
78370SOL     OW37006   5.105  12.488   9.668
78370SOL    HW137007   5.081  12.407   9.712
78370SOL    HW237008   5.169  12.530   9.726
78371SOL     OW37009   1.647  13.549   3.228
78371SOL    HW137010   1.588  13.522   3.298
78371SOL    HW237011   1.717  13.484   3.230
78372SOL     OW37012   5.858   9.183  13.578
78372SOL    HW137013   5.763   9.198  13.586
78372SOL    HW237014   5.886   9.248  13.513
78373SOL     OW37015   6.422   2.940  13.358
78373SOL    HW137016   6.501   2.994  13.354
78373SOL    HW237017   6.352   2.998  13.330
78374SOL     OW37018   8.641  11.773  14.849
78374SOL    HW137019   8.572  11.782  14.783
78374SOL    HW237020   8.676  11.861  14.860
78375SOL     OW37021   9.745   1.872  10.921
78375SOL    HW137022   9.805   1.939  10.953
78375SOL    HW237023   9.704   1.837  11.000
78376SOL     OW37024  10.684   1.050   7.952
78376SOL    HW137025  10.623   1.114   7.916
78376SOL    HW237026  10.723   1.094   8.027
78377SOL     OW37027   1.268  11.404   7.474
78377SOL    HW137028   1.343  11.433   7.422
78377SOL    HW237029   1.265  11.309   7.462
78378SOL     OW37030   5.450   8.331   8.275
78378SOL    HW137031   5.536   8.357   8.243
78378SOL    HW237032   5.460   8.238   8.296
78379SOL     OW37033  11.150   9.839   8.680
78379SOL    HW137034  11.069   9.845   8.730
78379SOL    HW237035  11.145   9.754   8.636
78380SOL     OW37036  14.641   3.337  14.610
78380SOL    HW137037  14.577   3.365  14.675
78380SOL    HW237038  14.593   3.342  14.526
78381SOL     OW37039   2.131  13.676   3.951
78381SOL    HW137040   2.078  13.643   3.879
78381SOL    HW237041   2.071  13.732   4.002
78382SOL     OW37042  10.077   1.113   1.298
78382SOL    HW137043  10.020   1.041   1.325
78382SOL    HW237044  10.162   1.092   1.336
78383SOL     OW37045  11.764   8.461   5.140
78383SOL    HW137046  11.765   8.431   5.049
78383SOL    HW237047  11.674   8.491   5.154
78384SOL     OW37048  12.806   9.332   1.237
78384SOL    HW137049  12.752   9.317   1.315
78384SOL    HW237050  12.888   9.285   1.256
78385SOL     OW37051   5.728   2.993   4.585
78385SOL    HW137052   5.719   3.083   4.614
78385SOL    HW237053   5.679   2.942   4.651
78386SOL     OW37054  10.892   0.050  14.238
78386SOL    HW137055  10.865   0.094  14.319
78386SOL    HW237056  10.901   0.121  14.174
78387SOL     OW37057  12.322  14.622   6.278
78387SOL    HW137058  12.271  14.698   6.248
78387SOL    HW237059  12.351  14.646   6.366
78388SOL     OW37060   4.261   1.044   4.953
78388SOL    HW137061   4.334   1.041   5.015
78388SOL    HW237062   4.202   1.110   4.990
78389SOL     OW37063   7.987  12.675  10.036
78389SOL    HW137064   7.926  12.741  10.003
78389SOL    HW237065   8.070  12.721  10.046
78390SOL     OW37066   5.551  14.370   2.447
78390SOL    HW137067   5.639  14.358   2.482
78390SOL    HW237068   5.565  14.401   2.357
78391SOL     OW37069  11.138  11.755   9.226
78391SOL    HW137070  11.133  11.831   9.168
78391SOL    HW237071  11.048  11.740   9.255
78392SOL     OW37072  13.069   6.973   8.476
78392SOL    HW137073  13.097   6.891   8.516
78392SOL    HW237074  12.987   6.995   8.520
78393SOL     OW37075   9.319  11.221   4.631
78393SOL    HW137076   9.337  11.154   4.565
78393SOL    HW237077   9.405  11.250   4.660
78394SOL     OW37078  11.620   0.032   6.520
78394SOL    HW137079  11.680  14.841   6.542
78394SOL    HW237080  11.566  14.877   6.449
78395SOL     OW37081   0.379   1.136   2.418
78395SOL    HW137082   0.304   1.169   2.466
78395SOL    HW237083   0.341   1.082   2.348
78396SOL     OW37084   3.959   8.393  13.679
78396SOL    HW137085   4.003   8.310  13.698
78396SOL    HW237086   3.970   8.445  13.758
78397SOL     OW37087   9.648   0.670   1.146
78397SOL    HW137088   9.735   0.690   1.183
78397SOL    HW237089   9.643   0.574   1.147
78398SOL     OW37090  11.082   3.639   3.216
78398SOL    HW137091  10.987   3.634   3.224
78398SOL    HW237092  11.097   3.706   3.149
78399SOL     OW37093  11.698   4.002   2.485
78399SOL    HW137094  11.656   4.057   2.418
78399SOL    HW237095  11.686   4.051   2.566
78400SOL     OW37096   2.604   7.472   0.587
78400SOL    HW137097   2.653   7.443   0.510
78400SOL    HW237098   2.518   7.430   0.578
78401SOL     OW37099  11.828  14.083  12.166
78401SOL    HW137100  11.786  14.077  12.251
78401SOL    HW237101  11.803  14.169  12.133
78402SOL     OW37102  11.413   1.909  12.595
78402SOL    HW137103  11.330   1.878  12.631
78402SOL    HW237104  11.467   1.830  12.588
78403SOL     OW37105   1.611   1.862   1.928
78403SOL    HW137106   1.599   1.779   1.883
78403SOL    HW237107   1.606   1.928   1.860
78404SOL     OW37108   0.806   7.307   6.174
78404SOL    HW137109   0.752   7.377   6.137
78404SOL    HW237110   0.806   7.324   6.268
78405SOL     OW37111  12.035   7.204   5.666
78405SOL    HW137112  12.002   7.175   5.751
78405SOL    HW237113  11.987   7.286   5.649
78406SOL     OW37114   9.164   8.336   1.137
78406SOL    HW137115   9.219   8.327   1.059
78406SOL    HW237116   9.225   8.329   1.211
78407SOL     OW37117   1.646   6.653   2.198
78407SOL    HW137118   1.638   6.743   2.169
78407SOL    HW237119   1.640   6.601   2.118
78408SOL     OW37120   6.559   8.013   6.442
78408SOL    HW137121   6.641   8.062   6.433
78408SOL    HW237122   6.491   8.079   6.431
78409SOL     OW37123   1.641   6.180   9.574
78409SOL    HW137124   1.562   6.229   9.552
78409SOL    HW237125   1.668   6.139   9.491
78410SOL     OW37126   1.921   3.405   4.530
78410SOL    HW137127   1.848   3.446   4.483
78410SOL    HW237128   1.899   3.312   4.533
78411SOL     OW37129   0.072   2.798   9.684
78411SOL    HW137130   0.026   2.849   9.618
78411SOL    HW237131   0.163   2.793   9.653
78412SOL     OW37132   0.955  13.431  14.195
78412SOL    HW137133   0.965  13.423  14.289
78412SOL    HW237134   0.883  13.371  14.173
78413SOL     OW37135  10.132   7.909  11.689
78413SOL    HW137136  10.127   8.003  11.669
78413SOL    HW237137  10.221   7.884  11.664
78414SOL     OW37138  13.999   5.035   3.926
78414SOL    HW137139  13.913   5.064   3.958
78414SOL    HW237140  13.994   4.939   3.927
78415SOL     OW37141   1.025  11.750  14.534
78415SOL    HW137142   0.961  11.772  14.467
78415SOL    HW237143   1.110  11.761  14.490
78416SOL     OW37144  14.565   6.598   9.284
78416SOL    HW137145  14.622   6.635   9.217
78416SOL    HW237146  14.521   6.525   9.241
78417SOL     OW37147   8.320   1.335  12.154
78417SOL    HW137148   8.245   1.394  12.154
78417SOL    HW237149   8.284   1.251  12.124
78418SOL     OW37150   0.051  12.645  11.754
78418SOL    HW137151  14.848  12.691  11.744
78418SOL    HW237152   0.117  12.706  11.719
78419SOL     OW37153  11.292   5.991   9.311
78419SOL    HW137154  11.382   5.959   9.322
78419SOL    HW237155  11.239   5.931   9.363
78420SOL     OW37156  11.639   5.720   4.643
78420SOL    HW137157  11.695   5.779   4.592
78420SOL    HW237158  11.698   5.679   4.707
78421SOL     OW37159  10.924  10.834   0.989
78421SOL    HW137160  10.881  10.770   0.932
78421SOL    HW237161  11.001  10.863   0.939
78422SOL     OW37162   4.225   0.730   5.857
78422SOL    HW137163   4.246   0.764   5.943
78422SOL    HW237164   4.305   0.688   5.826
78423SOL     OW37165   2.082  12.149  12.573
78423SOL    HW137166   2.097  12.059  12.545
78423SOL    HW237167   2.159  12.197  12.543
78424SOL     OW37168  11.965   4.555  10.894
78424SOL    HW137169  11.901   4.590  10.832
78424SOL    HW237170  12.039   4.616  10.889
78425SOL     OW37171   0.427   7.928   2.079
78425SOL    HW137172   0.381   8.002   2.119
78425SOL    HW237173   0.404   7.932   1.987
78426SOL     OW37174   8.615   6.069   9.236
78426SOL    HW137175   8.647   6.159   9.234
78426SOL    HW237176   8.562   6.060   9.156
78427SOL     OW37177   2.065   5.949   5.776
78427SOL    HW137178   2.012   5.993   5.710
78427SOL    HW237179   2.001   5.904   5.832
78428SOL     OW37180  11.398   9.740   4.082
78428SOL    HW137181  11.306   9.711   4.079
78428SOL    HW237182  11.433   9.699   4.161
78429SOL     OW37183   3.459   4.322   4.513
78429SOL    HW137184   3.477   4.231   4.539
78429SOL    HW237185   3.454   4.319   4.418
78430SOL     OW37186   8.604   7.446  10.274
78430SOL    HW137187   8.578   7.430  10.183
78430SOL    HW237188   8.659   7.524  10.270
78431SOL     OW37189   0.099   2.561   4.339
78431SOL    HW137190   0.030   2.506   4.302
78431SOL    HW237191   0.067   2.650   4.328
78432SOL     OW37192   3.054   0.125   3.560
78432SOL    HW137193   3.094   0.207   3.588
78432SOL    HW237194   3.028   0.082   3.641
78433SOL     OW37195  10.265   3.061   9.032
78433SOL    HW137196  10.180   3.095   9.003
78433SOL    HW237197  10.250   3.034   9.123
78434SOL     OW37198   7.735  11.302  12.007
78434SOL    HW137199   7.823  11.339  12.004
78434SOL    HW237200   7.680  11.368  11.965
78435SOL     OW37201  13.884  14.542  10.320
78435SOL    HW137202  13.864  14.561  10.412
78435SOL    HW237203  13.806  14.497  10.287
78436SOL     OW37204  12.585  14.641   0.174
78436SOL    HW137205  12.580  14.635   0.079
78436SOL    HW237206  12.664  14.693   0.191
78437SOL     OW37207   3.684   9.062   1.049
78437SOL    HW137208   3.779   9.053   1.042
78437SOL    HW237209   3.659   9.002   1.119
78438SOL     OW37210  10.273   0.414  10.982
78438SOL    HW137211  10.193   0.417  11.035
78438SOL    HW237212  10.280   0.501  10.944
78439SOL     OW37213   4.839   3.332   9.815
78439SOL    HW137214   4.883   3.278   9.880
78439SOL    HW237215   4.851   3.422   9.846
78440SOL     OW37216   8.538  11.078  14.383
78440SOL    HW137217   8.622  11.032  14.386
78440SOL    HW237218   8.492  11.049  14.461
78441SOL     OW37219   0.309   2.601  13.844
78441SOL    HW137220   0.259   2.585  13.924
78441SOL    HW237221   0.400   2.588  13.870
78442SOL     OW37222   1.611   7.383  10.092
78442SOL    HW137223   1.663   7.304  10.108
78442SOL    HW237224   1.663   7.433  10.030
78443SOL     OW37225  13.943   2.649   7.172
78443SOL    HW137226  13.947   2.744   7.179
78443SOL    HW237227  14.029   2.619   7.200
78444SOL     OW37228   5.364   3.959   7.322
78444SOL    HW137229   5.438   4.020   7.329
78444SOL    HW237230   5.338   3.963   7.230
78445SOL     OW37231   8.053   2.512  10.517
78445SOL    HW137232   8.075   2.427  10.553
78445SOL    HW237233   8.072   2.505  10.424
78446SOL     OW37234  13.254   6.043   0.590
78446SOL    HW137235  13.279   6.025   0.499
78446SOL    HW237236  13.238   5.956   0.627
78447SOL     OW37237   3.065  11.820   2.202
78447SOL    HW137238   2.999  11.847   2.139
78447SOL    HW237239   3.019  11.820   2.286
78448SOL     OW37240  12.924   3.310  11.400
78448SOL    HW137241  12.960   3.362  11.329
78448SOL    HW237242  12.875   3.373  11.453
78449SOL     OW37243   9.071   1.556   1.756
78449SOL    HW137244   8.991   1.527   1.800
78449SOL    HW237245   9.107   1.476   1.717
78450SOL     OW37246   8.500   3.762   4.854
78450SOL    HW137247   8.415   3.806   4.851
78450SOL    HW237248   8.486   3.686   4.910
78451SOL     OW37249  10.097   1.979  10.299
78451SOL    HW137250  10.115   2.050  10.237
78451SOL    HW237251  10.096   1.900  10.246
78452SOL     OW37252   0.176   2.436   5.363
78452SOL    HW137253   0.243   2.369   5.351
78452SOL    HW237254   0.098   2.388   5.390
78453SOL     OW37255   5.109   6.827   8.552
78453SOL    HW137256   5.023   6.794   8.579
78453SOL    HW237257   5.162   6.824   8.632
78454SOL     OW37258  13.959   8.836   7.425
78454SOL    HW137259  13.977   8.757   7.373
78454SOL    HW237260  13.988   8.814   7.513
78455SOL     OW37261   5.814   3.506  11.062
78455SOL    HW137262   5.840   3.597  11.050
78455SOL    HW237263   5.896   3.456  11.051
78456SOL     OW37264   8.994   2.839   1.525
78456SOL    HW137265   8.984   2.787   1.444
78456SOL    HW237266   9.034   2.921   1.495
78457SOL     OW37267  12.747  10.788  12.334
78457SOL    HW137268  12.746  10.695  12.356
78457SOL    HW237269  12.840  10.810  12.326
78458SOL     OW37270   6.874   1.009   7.264
78458SOL    HW137271   6.783   1.013   7.236
78458SOL    HW237272   6.919   1.076   7.213
78459SOL     OW37273   5.355   7.923  13.796
78459SOL    HW137274   5.268   7.944  13.830
78459SOL    HW237275   5.349   7.941  13.702
78460SOL     OW37276  12.345   8.518   5.699
78460SOL    HW137277  12.302   8.441   5.661
78460SOL    HW237278  12.311   8.524   5.788
78461SOL     OW37279   0.825   4.547  14.188
78461SOL    HW137280   0.906   4.569  14.235
78461SOL    HW237281   0.851   4.546  14.096
78462SOL     OW37282  12.730   4.300  11.296
78462SOL    HW137283  12.823   4.292  11.275
78462SOL    HW237284  12.687   4.239  11.237
78463SOL     OW37285   6.824   8.270   6.226
78463SOL    HW137286   6.821   8.366   6.227
78463SOL    HW237287   6.824   8.246   6.319
78464SOL     OW37288   9.293   6.036   5.854
78464SOL    HW137289   9.293   5.951   5.899
78464SOL    HW237290   9.371   6.081   5.888
78465SOL     OW37291  10.581  10.265  13.042
78465SOL    HW137292  10.650  10.312  13.088
78465SOL    HW237293  10.501  10.316  13.060
78466SOL     OW37294   3.960   6.881  11.455
78466SOL    HW137295   3.982   6.919  11.540
78466SOL    HW237296   3.991   6.945  11.391
78467SOL     OW37297   5.284   7.354  13.116
78467SOL    HW137298   5.309   7.269  13.079
78467SOL    HW237299   5.322   7.354  13.204
78468SOL     OW37300   5.419   8.966  12.660
78468SOL    HW137301   5.464   9.047  12.636
78468SOL    HW237302   5.362   8.991  12.732
78469SOL     OW37303   7.400  13.977   2.667
78469SOL    HW137304   7.413  13.951   2.759
78469SOL    HW237305   7.487  14.000   2.636
78470SOL     OW37306  13.763  13.750   3.804
78470SOL    HW137307  13.705  13.716   3.735
78470SOL    HW237308  13.837  13.788   3.756
78471SOL     OW37309   7.728  14.040   1.145
78471SOL    HW137310   7.778  14.120   1.158
78471SOL    HW237311   7.723  14.000   1.232
78472SOL     OW37312  10.647  10.635   7.288
78472SOL    HW137313  10.617  10.654   7.377
78472SOL    HW237314  10.570  10.600   7.243
78473SOL     OW37315   7.304   5.904   9.889
78473SOL    HW137316   7.225   5.952   9.912
78473SOL    HW237317   7.300   5.895   9.794
78474SOL     OW37318   1.374   5.435  14.621
78474SOL    HW137319   1.403   5.518  14.658
78474SOL    HW237320   1.453   5.397  14.583
78475SOL     OW37321   6.217  14.324  11.429
78475SOL    HW137322   6.261  14.239  11.427
78475SOL    HW237323   6.185  14.337  11.339
78476SOL     OW37324   2.591  14.879   7.313
78476SOL    HW137325   2.577   0.073   7.372
78476SOL    HW237326   2.507  14.833   7.310
78477SOL     OW37327   8.457  12.249   6.901
78477SOL    HW137328   8.377  12.198   6.898
78477SOL    HW237329   8.434  12.333   6.860
78478SOL     OW37330   4.974   6.407  10.241
78478SOL    HW137331   4.923   6.435  10.317
78478SOL    HW237332   5.064   6.431  10.263
78479SOL     OW37333  12.597  12.393   1.497
78479SOL    HW137334  12.670  12.334   1.479
78479SOL    HW237335  12.554  12.404   1.412
78480SOL     OW37336  14.716   8.663   2.395
78480SOL    HW137337  14.671   8.743   2.368
78480SOL    HW237338  14.794   8.660   2.340
78481SOL     OW37339  14.775   5.828  14.045
78481SOL    HW137340  14.700   5.787  14.002
78481SOL    HW237341  14.822   5.755  14.086
78482SOL     OW37342   2.605   7.503   0.860
78482SOL    HW137343   2.613   7.596   0.838
78482SOL    HW237344   2.621   7.458   0.777
78483SOL     OW37345   0.357   9.808   3.262
78483SOL    HW137346   0.421   9.768   3.321
78483SOL    HW237347   0.281   9.750   3.265
78484SOL     OW37348   5.981   1.374   5.046
78484SOL    HW137349   5.975   1.469   5.046
78484SOL    HW237350   6.050   1.355   4.983
78485SOL     OW37351   2.905   1.938  11.341
78485SOL    HW137352   2.845   1.993  11.392
78485SOL    HW237353   2.976   1.917  11.401
78486SOL     OW37354   6.044   4.189  11.795
78486SOL    HW137355   6.104   4.162  11.864
78486SOL    HW237356   6.071   4.139  11.718
78487SOL     OW37357   3.748   5.299   8.969
78487SOL    HW137358   3.830   5.252   8.983
78487SOL    HW237359   3.769   5.366   8.904
78488SOL     OW37360  13.354   1.954   1.853
78488SOL    HW137361  13.296   1.955   1.776
78488SOL    HW237362  13.390   1.865   1.855
78489SOL     OW37363   7.968  11.306   7.390
78489SOL    HW137364   7.937  11.289   7.301
78489SOL    HW237365   7.988  11.400   7.391
78490SOL     OW37366   5.075   2.367  12.241
78490SOL    HW137367   5.137   2.404  12.179
78490SOL    HW237368   5.033   2.443  12.282
78491SOL     OW37369   3.181   3.391   1.548
78491SOL    HW137370   3.124   3.458   1.585
78491SOL    HW237371   3.240   3.439   1.490
78492SOL     OW37372   3.998   9.785  12.844
78492SOL    HW137373   3.952   9.702  12.834
78492SOL    HW237374   4.090   9.764  12.826
78493SOL     OW37375  12.247   7.000   9.139
78493SOL    HW137376  12.234   7.054   9.061
78493SOL    HW237377  12.159   6.979   9.169
78494SOL     OW37378   8.680  10.978  10.771
78494SOL    HW137379   8.668  10.893  10.812
78494SOL    HW237380   8.763  11.011  10.805
78495SOL     OW37381   2.174  12.340   3.685
78495SOL    HW137382   2.172  12.257   3.732
78495SOL    HW237383   2.195  12.316   3.594
78496SOL     OW37384   8.284   1.748  12.498
78496SOL    HW137385   8.292   1.657  12.525
78496SOL    HW237386   8.215   1.783  12.554
78497SOL     OW37387   3.679  11.516  11.501
78497SOL    HW137388   3.714  11.586  11.446
78497SOL    HW237389   3.715  11.436  11.464
78498SOL     OW37390   1.480   9.749   7.412
78498SOL    HW137391   1.501   9.770   7.321
78498SOL    HW237392   1.509   9.659   7.424
78499SOL     OW37393   3.812   9.517   4.854
78499SOL    HW137394   3.785   9.566   4.776
78499SOL    HW237395   3.801   9.578   4.926
78500SOL     OW37396   7.735  10.493   9.671
78500SOL    HW137397   7.767  10.422   9.727
78500SOL    HW237398   7.813  10.524   9.625
78501SOL     OW37399   6.175   2.600  14.873
78501SOL    HW137400   6.252   2.557  14.836
78501SOL    HW237401   6.199   2.619   0.084
78502SOL     OW37402   2.939   7.540   5.601
78502SOL    HW137403   3.031   7.533   5.624
78502SOL    HW237404   2.898   7.463   5.640
78503SOL     OW37405  11.771   8.229  11.678
78503SOL    HW137406  11.695   8.185  11.716
78503SOL    HW237407  11.820   8.160  11.634
78504SOL     OW37408   6.766  14.827  13.133
78504SOL    HW137409   6.780  14.788  13.047
78504SOL    HW237410   6.842   0.004  13.147
78505SOL     OW37411   1.179   3.592   7.775
78505SOL    HW137412   1.245   3.532   7.741
78505SOL    HW237413   1.206   3.678   7.745
78506SOL     OW37414   2.510  10.121   5.815
78506SOL    HW137415   2.512  10.201   5.763
78506SOL    HW237416   2.591  10.122   5.865
78507SOL     OW37417   1.488   6.956  10.348
78507SOL    HW137418   1.464   7.026  10.288
78507SOL    HW237419   1.439   6.880  10.318
78508SOL     OW37420   5.229  13.406   2.585
78508SOL    HW137421   5.316  13.371   2.563
78508SOL    HW237422   5.197  13.349   2.654
78509SOL     OW37423   0.197   2.652   7.624
78509SOL    HW137424   0.225   2.740   7.601
78509SOL    HW237425   0.230   2.597   7.552
78510SOL     OW37426   6.135   6.370  12.693
78510SOL    HW137427   6.054   6.338  12.731
78510SOL    HW237428   6.192   6.293  12.689
78511SOL     OW37429  10.620   3.479   4.309
78511SOL    HW137430  10.612   3.574   4.307
78511SOL    HW237431  10.587   3.450   4.224
78512SOL     OW37432   5.482   6.679   2.354
78512SOL    HW137433   5.467   6.600   2.302
78512SOL    HW237434   5.430   6.666   2.434
78513SOL     OW37435   8.419   7.060   2.965
78513SOL    HW137436   8.326   7.084   2.965
78513SOL    HW237437   8.463   7.135   3.005
78514SOL     OW37438  13.850   1.498   5.389
78514SOL    HW137439  13.824   1.427   5.330
78514SOL    HW237440  13.779   1.562   5.382
78515SOL     OW37441   2.388   1.545   2.147
78515SOL    HW137442   2.316   1.515   2.203
78515SOL    HW237443   2.356   1.531   2.057
78516SOL     OW37444   7.923  13.152  10.675
78516SOL    HW137445   7.962  13.094  10.610
78516SOL    HW237446   7.937  13.240  10.641
78517SOL     OW37447   3.168   0.710   6.680
78517SOL    HW137448   3.163   0.644   6.610
78517SOL    HW237449   3.209   0.664   6.753
78518SOL     OW37450   0.078  13.218   6.114
78518SOL    HW137451   0.143  13.200   6.183
78518SOL    HW237452   0.130  13.253   6.042
78519SOL     OW37453   3.771   9.959   7.966
78519SOL    HW137454   3.833   9.948   7.894
78519SOL    HW237455   3.785   9.882   8.022
78520SOL     OW37456   6.902   1.559   2.431
78520SOL    HW137457   6.981   1.538   2.382
78520SOL    HW237458   6.881   1.478   2.478
78521SOL     OW37459   8.311  11.458  11.428
78521SOL    HW137460   8.401  11.448  11.398
78521SOL    HW237461   8.307  11.548  11.462
78522SOL     OW37462   8.181   2.929   3.536
78522SOL    HW137463   8.145   2.942   3.623
78522SOL    HW237464   8.148   2.844   3.508
78523SOL     OW37465  11.757   8.234   0.370
78523SOL    HW137466  11.677   8.234   0.318
78523SOL    HW237467  11.796   8.148   0.355
78524SOL     OW37468   2.822   4.688  12.077
78524SOL    HW137469   2.867   4.667  12.159
78524SOL    HW237470   2.850   4.620  12.016
78525SOL     OW37471   9.032   2.327   1.957
78525SOL    HW137472   8.940   2.315   1.933
78525SOL    HW237473   9.081   2.299   1.879
78526SOL     OW37474  11.788   2.357  13.597
78526SOL    HW137475  11.820   2.361  13.507
78526SOL    HW237476  11.781   2.448  13.624
78527SOL     OW37477   0.430   7.243   2.707
78527SOL    HW137478   0.488   7.169   2.725
78527SOL    HW237479   0.469   7.317   2.754
78528SOL     OW37480   2.994   9.094   4.774
78528SOL    HW137481   2.933   9.163   4.798
78528SOL    HW237482   3.065   9.102   4.837
78529SOL     OW37483  11.652  13.456  11.240
78529SOL    HW137484  11.711  13.504  11.182
78529SOL    HW237485  11.580  13.517  11.257
78530SOL     OW37486   2.218  11.763   9.852
78530SOL    HW137487   2.257  11.695   9.797
78530SOL    HW237488   2.292  11.817   9.879
78531SOL     OW37489   2.527  11.858   8.063
78531SOL    HW137490   2.622  11.869   8.058
78531SOL    HW237491   2.496  11.938   8.106
78532SOL     OW37492   5.494   2.087   8.805
78532SOL    HW137493   5.415   2.122   8.845
78532SOL    HW237494   5.566   2.131   8.851
78533SOL     OW37495   1.284   0.415   7.448
78533SOL    HW137496   1.315   0.504   7.435
78533SOL    HW237497   1.296   0.399   7.542
78534SOL     OW37498   4.072  11.075   1.609
78534SOL    HW137499   4.077  11.170   1.622
78534SOL    HW237500   3.979  11.054   1.620
78535SOL     OW37501   5.540   2.885   0.056
78535SOL    HW137502   5.535   2.920  14.846
78535SOL    HW237503   5.539   2.963   0.112
78536SOL     OW37504  13.114   7.163   9.210
78536SOL    HW137505  13.172   7.093   9.241
78536SOL    HW237506  13.053   7.177   9.283
78537SOL     OW37507  12.656  12.876   3.344
78537SOL    HW137508  12.566  12.892   3.315
78537SOL    HW237509  12.708  12.943   3.299
78538SOL     OW37510   3.952  12.712   0.919
78538SOL    HW137511   3.946  12.647   0.989
78538SOL    HW237512   3.916  12.792   0.956
78539SOL     OW37513   7.242   9.595   3.065
78539SOL    HW137514   7.167   9.571   3.010
78539SOL    HW237515   7.316   9.549   3.026
78540SOL     OW37516   5.026   7.074  13.519
78540SOL    HW137517   4.970   7.079  13.442
78540SOL    HW237518   5.044   6.981  13.531
78541SOL     OW37519   1.732   8.527   7.182
78541SOL    HW137520   1.784   8.568   7.251
78541SOL    HW237521   1.733   8.433   7.203
78542SOL     OW37522   8.765  12.656   2.179
78542SOL    HW137523   8.695  12.606   2.137
78542SOL    HW237524   8.720  12.725   2.227
78543SOL     OW37525  13.836  12.533  11.960
78543SOL    HW137526  13.775  12.460  11.951
78543SOL    HW237527  13.888  12.529  11.880
78544SOL     OW37528  14.810   2.919   7.577
78544SOL    HW137529  14.775   2.920   7.666
78544SOL    HW237530  14.851   3.005   7.566
78545SOL     OW37531   2.185   1.074   7.575
78545SOL    HW137532   2.236   1.149   7.606
78545SOL    HW237533   2.250   1.013   7.539
78546SOL     OW37534  11.675   6.037   8.550
78546SOL    HW137535  11.585   6.008   8.533
78546SOL    HW237536  11.706   5.978   8.619
78547SOL     OW37537   6.388   0.181   2.859
78547SOL    HW137538   6.385   0.161   2.952
78547SOL    HW237539   6.297   0.174   2.829
78548SOL     OW37540   8.561  14.698  10.992
78548SOL    HW137541   8.578  14.604  10.987
78548SOL    HW237542   8.479  14.705  11.041
78549SOL     OW37543   8.363   6.369   6.540
78549SOL    HW137544   8.383   6.299   6.477
78549SOL    HW237545   8.320   6.324   6.613
78550SOL     OW37546   0.557   1.621   7.866
78550SOL    HW137547   0.628   1.655   7.921
78550SOL    HW237548   0.583   1.643   7.777
78551SOL     OW37549   1.855   2.489   1.751
78551SOL    HW137550   1.915   2.452   1.816
78551SOL    HW237551   1.791   2.420   1.735
78552SOL     OW37552  13.535   8.198   2.391
78552SOL    HW137553  13.481   8.122   2.373
78552SOL    HW237554  13.624   8.165   2.394
78553SOL     OW37555   8.328   7.630   9.879
78553SOL    HW137556   8.278   7.647   9.959
78553SOL    HW237557   8.417   7.660   9.900
78554SOL     OW37558   5.111   7.628   4.413
78554SOL    HW137559   5.023   7.654   4.384
78554SOL    HW237560   5.095   7.561   4.479
78555SOL     OW37561   2.986  13.025   4.327
78555SOL    HW137562   2.985  13.066   4.413
78555SOL    HW237563   3.045  13.081   4.275
78556SOL     OW37564   7.932   6.188   3.362
78556SOL    HW137565   7.969   6.132   3.294
78556SOL    HW237566   8.007   6.210   3.418
78557SOL     OW37567   9.306  10.350   1.876
78557SOL    HW137568   9.398  10.374   1.863
78557SOL    HW237569   9.259  10.432   1.866
78558SOL     OW37570   2.916   0.729   6.083
78558SOL    HW137571   2.911   0.824   6.073
78558SOL    HW237572   2.994   0.703   6.034
78559SOL     OW37573   0.633   1.382   3.875
78559SOL    HW137574   0.706   1.420   3.826
78559SOL    HW237575   0.641   1.288   3.861
78560SOL     OW37576   5.202   7.623   5.388
78560SOL    HW137577   5.147   7.555   5.349
78560SOL    HW237578   5.144   7.666   5.451
78561SOL     OW37579  11.850   4.666   0.911
78561SOL    HW137580  11.769   4.650   0.862
78561SOL    HW237581  11.820   4.686   1.000
78562SOL     OW37582   7.696   8.534   6.232
78562SOL    HW137583   7.733   8.476   6.165
78562SOL    HW237584   7.630   8.481   6.276
78563SOL     OW37585  11.135  12.778   1.092
78563SOL    HW137586  11.183  12.852   1.129
78563SOL    HW237587  11.100  12.732   1.168
78564SOL     OW37588   9.222   4.861  13.630
78564SOL    HW137589   9.256   4.943  13.665
78564SOL    HW237590   9.282   4.794  13.663
78565SOL     OW37591  10.712  11.042   1.148
78565SOL    HW137592  10.717  11.046   1.244
78565SOL    HW237593  10.799  11.012   1.121
78566SOL     OW37594  10.456   1.930   9.646
78566SOL    HW137595  10.371   1.895   9.676
78566SOL    HW237596  10.464   2.014   9.690
78567SOL     OW37597   7.321   9.970   6.032
78567SOL    HW137598   7.310   9.897   5.972
78567SOL    HW237599   7.353   9.931   6.113
78568SOL     OW37600   7.592  10.555   3.037
78568SOL    HW137601   7.646  10.630   3.063
78568SOL    HW237602   7.635  10.480   3.077
78569SOL     OW37603  13.810   8.575   9.358
78569SOL    HW137604  13.788   8.501   9.301
78569SOL    HW237605  13.906   8.579   9.357
78570SOL     OW37606   6.037   2.114   9.601
78570SOL    HW137607   6.083   2.181   9.652
78570SOL    HW237608   6.090   2.105   9.522
78571SOL     OW37609   6.826   5.806  12.037
78571SOL    HW137610   6.776   5.784  12.115
78571SOL    HW237611   6.912   5.768  12.052
78572SOL     OW37612   5.344   0.782   9.780
78572SOL    HW137613   5.310   0.718   9.842
78572SOL    HW237614   5.384   0.850   9.834
78573SOL     OW37615   5.387   5.451   4.360
78573SOL    HW137616   5.404   5.541   4.332
78573SOL    HW237617   5.295   5.437   4.339
78574SOL     OW37618   5.494   6.940   7.140
78574SOL    HW137619   5.418   6.996   7.158
78574SOL    HW237620   5.515   6.956   7.048
78575SOL     OW37621   7.316  14.223  14.723
78575SOL    HW137622   7.298  14.153  14.661
78575SOL    HW237623   7.245  14.285  14.711
78576SOL     OW37624   5.309   5.063  11.963
78576SOL    HW137625   5.230   5.017  11.991
78576SOL    HW237626   5.283   5.155  11.961
78577SOL     OW37627   3.681   5.976   8.878
78577SOL    HW137628   3.694   5.986   8.784
78577SOL    HW237629   3.719   6.055   8.916
78578SOL     OW37630  14.110  11.365   8.444
78578SOL    HW137631  14.102  11.406   8.358
78578SOL    HW237632  14.141  11.277   8.426
78579SOL     OW37633   1.214   8.132   7.053
78579SOL    HW137634   1.147   8.078   7.095
78579SOL    HW237635   1.176   8.156   6.969
78580SOL     OW37636   7.749   0.618   3.863
78580SOL    HW137637   7.826   0.653   3.909
78580SOL    HW237638   7.740   0.528   3.896
78581SOL     OW37639   0.255   1.296   7.998
78581SOL    HW137640   0.279   1.386   7.978
78581SOL    HW237641   0.319   1.243   7.951
78582SOL     OW37642   2.685   4.405   6.361
78582SOL    HW137643   2.749   4.365   6.301
78582SOL    HW237644   2.626   4.333   6.384
78583SOL     OW37645   3.353   1.490   9.650
78583SOL    HW137646   3.313   1.576   9.636
78583SOL    HW237647   3.447   1.507   9.649
78584SOL     OW37648  12.741  10.905   9.944
78584SOL    HW137649  12.673  10.930   9.883
78584SOL    HW237650  12.726  10.812   9.961
78585SOL     OW37651   4.728  12.327   7.828
78585SOL    HW137652   4.726  12.236   7.799
78585SOL    HW237653   4.700  12.323   7.920
78586SOL     OW37654   9.340   4.339  13.082
78586SOL    HW137655   9.301   4.360  12.997
78586SOL    HW237656   9.330   4.245  13.091
78587SOL     OW37657   5.306   0.452   1.380
78587SOL    HW137658   5.261   0.497   1.308
78587SOL    HW237659   5.314   0.519   1.449
78588SOL     OW37660  12.299   8.429  11.836
78588SOL    HW137661  12.297   8.369  11.910
78588SOL    HW237662  12.218   8.479  11.843
78589SOL     OW37663   7.674   2.637   3.844
78589SOL    HW137664   7.765   2.635   3.876
78589SOL    HW237665   7.678   2.599   3.757
78590SOL     OW37666   0.742   5.807  14.120
78590SOL    HW137667   0.655   5.834  14.090
78590SOL    HW237668   0.800   5.877  14.089
78591SOL     OW37669   1.628   7.714   7.520
78591SOL    HW137670   1.708   7.767   7.523
78591SOL    HW237671   1.660   7.623   7.522
78592SOL     OW37672   1.774   3.080   6.973
78592SOL    HW137673   1.707   3.051   7.036
78592SOL    HW237674   1.842   3.119   7.027
78593SOL     OW37675   6.118  13.673   4.277
78593SOL    HW137676   6.188  13.650   4.215
78593SOL    HW237677   6.077  13.751   4.238
78594SOL     OW37678  14.620   6.508   6.405
78594SOL    HW137679  14.598   6.449   6.332
78594SOL    HW237680  14.654   6.450   6.473
78595SOL     OW37681  12.568   0.935  11.401
78595SOL    HW137682  12.577   0.846  11.435
78595SOL    HW237683  12.636   0.985  11.445
78596SOL     OW37684   8.742   4.165   1.648
78596SOL    HW137685   8.688   4.161   1.569
78596SOL    HW237686   8.832   4.176   1.615
78597SOL     OW37687   8.881  13.791   4.471
78597SOL    HW137688   8.886  13.836   4.387
78597SOL    HW237689   8.951  13.725   4.467
78598SOL     OW37690   4.153   2.089   8.889
78598SOL    HW137691   4.240   2.071   8.852
78598SOL    HW237692   4.101   2.013   8.866
78599SOL     OW37693   8.101   3.504   3.875
78599SOL    HW137694   8.052   3.574   3.832
78599SOL    HW237695   8.111   3.535   3.965
78600SOL     OW37696  13.544   8.633   6.651
78600SOL    HW137697  13.580   8.708   6.700
78600SOL    HW237698  13.621   8.582   6.626
78601SOL     OW37699   4.688   8.302   2.050
78601SOL    HW137700   4.775   8.340   2.037
78601SOL    HW237701   4.702   8.230   2.111
78602SOL     OW37702   8.074  14.751   3.498
78602SOL    HW137703   8.143  14.815   3.515
78602SOL    HW237704   8.019  14.754   3.576
78603SOL     OW37705   9.148   7.346  14.839
78603SOL    HW137706   9.087   7.391   0.018
78603SOL    HW237707   9.145   7.255  14.867
78604SOL     OW37708  10.229  12.494   5.529
78604SOL    HW137709  10.190  12.442   5.458
78604SOL    HW237710  10.255  12.429   5.595
78605SOL     OW37711  10.055  13.667   5.446
78605SOL    HW137712  10.072  13.762   5.450
78605SOL    HW237713  10.000  13.656   5.369
78606SOL     OW37714  12.073   4.204   2.138
78606SOL    HW137715  12.069   4.164   2.051
78606SOL    HW237716  12.156   4.175   2.174
78607SOL     OW37717  13.042   5.020   8.942
78607SOL    HW137718  13.076   4.963   9.011
78607SOL    HW237719  12.972   5.070   8.984
78608SOL     OW37720   4.809  13.840  10.523
78608SOL    HW137721   4.882  13.846  10.461
78608SOL    HW237722   4.840  13.885  10.601
78609SOL     OW37723  14.450   5.268   6.937
78609SOL    HW137724  14.498   5.278   6.855
78609SOL    HW237725  14.358   5.281   6.913
78610SOL     OW37726  10.821  12.254  13.838
78610SOL    HW137727  10.799  12.199  13.762
78610SOL    HW237728  10.841  12.340  13.800
78611SOL     OW37729   9.909  10.659   4.098
78611SOL    HW137730   9.901  10.753   4.079
78611SOL    HW237731   9.937  10.621   4.015
78612SOL     OW37732   9.742  13.276   9.201
78612SOL    HW137733   9.721  13.198   9.150
78612SOL    HW237734   9.837  13.271   9.215
78613SOL     OW37735   5.587   8.074   7.414
78613SOL    HW137736   5.600   7.979   7.411
78613SOL    HW237737   5.518   8.087   7.478
78614SOL     OW37738   2.618   9.966  11.864
78614SOL    HW137739   2.630  10.043  11.808
78614SOL    HW237740   2.644   9.893  11.808
78615SOL     OW37741   8.965   3.780  11.798
78615SOL    HW137742   8.943   3.863  11.756
78615SOL    HW237743   8.999   3.804  11.884
78616SOL     OW37744   9.969   8.492  13.745
78616SOL    HW137745   9.977   8.397  13.754
78616SOL    HW237746  10.021   8.528  13.817
78617SOL     OW37747  10.651   5.084  10.693
78617SOL    HW137748  10.729   5.110  10.744
78617SOL    HW237749  10.620   5.165  10.653
78618SOL     OW37750  11.307   9.793   5.512
78618SOL    HW137751  11.374   9.777   5.445
78618SOL    HW237752  11.356   9.798   5.594
78619SOL     OW37753   9.256   6.686   6.793
78619SOL    HW137754   9.320   6.648   6.854
78619SOL    HW237755   9.276   6.779   6.794
78620SOL     OW37756   2.462   9.483  10.432
78620SOL    HW137757   2.481   9.539  10.356
78620SOL    HW237758   2.397   9.533  10.482
78621SOL     OW37759   3.666  13.262   4.601
78621SOL    HW137760   3.631  13.327   4.662
78621SOL    HW237761   3.720  13.204   4.655
78622SOL     OW37762  12.503   5.862   7.612
78622SOL    HW137763  12.484   5.901   7.526
78622SOL    HW237764  12.552   5.782   7.592
78623SOL     OW37765  13.227   9.905   4.364
78623SOL    HW137766  13.293   9.892   4.295
78623SOL    HW237767  13.144   9.882   4.322
78624SOL     OW37768   2.700   2.965  10.158
78624SOL    HW137769   2.629   2.913  10.196
78624SOL    HW237770   2.659   3.014  10.087
78625SOL     OW37771   8.554   0.504  12.031
78625SOL    HW137772   8.601   0.550  11.962
78625SOL    HW237773   8.592   0.416  12.032
78626SOL     OW37774   3.757   3.088  11.391
78626SOL    HW137775   3.847   3.068  11.414
78626SOL    HW237776   3.736   3.027  11.321
78627SOL     OW37777  11.536   3.869  12.791
78627SOL    HW137778  11.444   3.843  12.799
78627SOL    HW237779  11.533   3.960  12.760
78628SOL     OW37780  11.008   5.385   8.397
78628SOL    HW137781  11.084   5.377   8.339
78628SOL    HW237782  11.046   5.394   8.485
78629SOL     OW37783   4.040   6.469  10.808
78629SOL    HW137784   4.019   6.561  10.788
78629SOL    HW237785   4.134   6.470  10.825
78630SOL     OW37786   1.318   4.548   1.048
78630SOL    HW137787   1.226   4.572   1.031
78630SOL    HW237788   1.314   4.455   1.071
78631SOL     OW37789   9.708   9.537  10.122
78631SOL    HW137790   9.626   9.530  10.074
78631SOL    HW237791   9.699   9.618  10.172
78632SOL     OW37792  14.398   7.286  10.165
78632SOL    HW137793  14.479   7.296  10.116
78632SOL    HW237794  14.329   7.288  10.098
78633SOL     OW37795  11.260   1.879  14.593
78633SOL    HW137796  11.347   1.915  14.613
78633SOL    HW237797  11.263   1.790  14.625
78634SOL     OW37798   6.944   1.431  14.795
78634SOL    HW137799   6.929   1.341  14.768
78634SOL    HW237800   6.857   1.469  14.804
78635SOL     OW37801   2.164   9.478   3.122
78635SOL    HW137802   2.223   9.424   3.174
78635SOL    HW237803   2.083   9.481   3.173
78636SOL     OW37804   3.471   2.681  12.580
78636SOL    HW137805   3.522   2.694  12.500
78636SOL    HW237806   3.513   2.736  12.646
78637SOL     OW37807   8.498  11.428  12.877
78637SOL    HW137808   8.452  11.357  12.831
78637SOL    HW237809   8.446  11.442  12.956
78638SOL     OW37810  10.715  13.871  13.644
78638SOL    HW137811  10.730  13.914  13.560
78638SOL    HW237812  10.800  13.874  13.689
78639SOL     OW37813  10.057   0.759  11.856
78639SOL    HW137814  10.017   0.686  11.810
78639SOL    HW237815  10.063   0.829  11.791
78640SOL     OW37816  11.063   1.636  11.296
78640SOL    HW137817  11.069   1.659  11.203
78640SOL    HW237818  11.011   1.705  11.335
78641SOL     OW37819   1.455  13.217   5.979
78641SOL    HW137820   1.512  13.274   6.030
78641SOL    HW237821   1.391  13.276   5.940
78642SOL     OW37822   6.570   3.517   4.834
78642SOL    HW137823   6.656   3.544   4.802
78642SOL    HW237824   6.586   3.488   4.924
78643SOL     OW37825  10.699   7.159   7.461
78643SOL    HW137826  10.621   7.210   7.438
78643SOL    HW237827  10.742   7.143   7.377
78644SOL     OW37828  13.912   4.434   0.670
78644SOL    HW137829  13.903   4.479   0.754
78644SOL    HW237830  13.857   4.485   0.610
78645SOL     OW37831   1.448  14.718   3.738
78645SOL    HW137832   1.451  14.785   3.670
78645SOL    HW237833   1.358  14.687   3.737
78646SOL     OW37834  10.893   7.049   7.073
78646SOL    HW137835  10.932   7.077   6.989
78646SOL    HW237836  10.945   6.972   7.098
78647SOL     OW37837  11.849   4.814  11.145
78647SOL    HW137838  11.944   4.816  11.152
78647SOL    HW237839  11.818   4.861  11.222
78648SOL     OW37840   7.408   7.347  11.466
78648SOL    HW137841   7.407   7.434  11.426
78648SOL    HW237842   7.418   7.363  11.560
78649SOL     OW37843  13.113  12.167   9.410
78649SOL    HW137844  13.060  12.121   9.345
78649SOL    HW237845  13.050  12.206   9.470
78650SOL     OW37846  13.568   4.357  10.337
78650SOL    HW137847  13.619   4.435  10.317
78650SOL    HW237848  13.480   4.389  10.355
78651SOL     OW37849  11.615  11.815   3.777
78651SOL    HW137850  11.699  11.770   3.782
78651SOL    HW237851  11.636  11.907   3.793
78652SOL     OW37852   1.875  14.319  12.235
78652SOL    HW137853   1.931  14.386  12.275
78652SOL    HW237854   1.819  14.289  12.305
78653SOL     OW37855  13.278  13.945   5.245
78653SOL    HW137856  13.349  13.927   5.183
78653SOL    HW237857  13.316  13.926   5.331
78654SOL     OW37858   7.491   9.272  10.848
78654SOL    HW137859   7.583   9.281  10.821
78654SOL    HW237860   7.488   9.313  10.934
78655SOL     OW37861   2.171   0.295   6.815
78655SOL    HW137862   2.254   0.264   6.778
78655SOL    HW237863   2.107   0.229   6.788
78656SOL     OW37864   4.718   3.489   3.122
78656SOL    HW137865   4.664   3.568   3.119
78656SOL    HW237866   4.673   3.428   3.064
78657SOL     OW37867   6.075   4.492   8.673
78657SOL    HW137868   6.104   4.458   8.588
78657SOL    HW237869   6.151   4.480   8.730
78658SOL     OW37870   9.709  11.926   4.772
78658SOL    HW137871   9.752  11.879   4.843
78658SOL    HW237872   9.630  11.876   4.754
78659SOL     OW37873   4.426  13.254   8.656
78659SOL    HW137874   4.423  13.248   8.751
78659SOL    HW237875   4.506  13.206   8.632
78660SOL     OW37876   9.901  14.243   5.663
78660SOL    HW137877   9.855  14.245   5.747
78660SOL    HW237878   9.893  14.332   5.629
78661SOL     OW37879  13.048   0.390   5.043
78661SOL    HW137880  13.087   0.394   5.130
78661SOL    HW237881  12.979   0.324   5.051
78662SOL     OW37882   9.083  10.233   0.969
78662SOL    HW137883   8.987  10.225   0.970
78662SOL    HW237884   9.108  10.224   1.061
78663SOL     OW37885  14.492  10.500   6.304
78663SOL    HW137886  14.533  10.527   6.386
78663SOL    HW237887  14.401  10.528   6.312
78664SOL     OW37888   7.200  14.424   0.091
78664SOL    HW137889   7.291  14.452   0.099
78664SOL    HW237890   7.179  14.435  14.878
78665SOL     OW37891  11.491  10.407   3.947
78665SOL    HW137892  11.482  10.316   3.976
78665SOL    HW237893  11.418  10.453   3.989
78666SOL     OW37894  14.358   6.872   8.308
78666SOL    HW137895  14.284   6.931   8.322
78666SOL    HW237896  14.330   6.816   8.236
78667SOL     OW37897  11.760  12.426  10.493
78667SOL    HW137898  11.770  12.436  10.587
78667SOL    HW237899  11.833  12.475  10.455
78668SOL     OW37900   4.109   2.982  10.278
78668SOL    HW137901   4.053   3.058  10.262
78668SOL    HW237902   4.074   2.915  10.219
78669SOL     OW37903   7.830   8.099  11.567
78669SOL    HW137904   7.821   8.013  11.525
78669SOL    HW237905   7.906   8.139  11.524
78670SOL     OW37906   4.516   7.359   6.762
78670SOL    HW137907   4.519   7.324   6.851
78670SOL    HW237908   4.602   7.398   6.748
78671SOL     OW37909  12.401   0.811  10.976
78671SOL    HW137910  12.414   0.882  10.912
78671SOL    HW237911  12.424   0.851  11.060
78672SOL     OW37912  14.829   8.721   1.903
78672SOL    HW137913   0.015   8.768   1.953
78672SOL    HW237914  14.871   8.638   1.880
78673SOL     OW37915   6.463   2.762  14.354
78673SOL    HW137916   6.535   2.822  14.373
78673SOL    HW237917   6.402   2.773  14.428
78674SOL     OW37918   3.969  11.789   4.147
78674SOL    HW137919   3.963  11.808   4.241
78674SOL    HW237920   4.017  11.864   4.111
78675SOL     OW37921   7.151   0.331   3.674
78675SOL    HW137922   7.115   0.361   3.590
78675SOL    HW237923   7.166   0.412   3.723
78676SOL     OW37924   3.730   1.668   6.907
78676SOL    HW137925   3.775   1.749   6.931
78676SOL    HW237926   3.641   1.695   6.885
78677SOL     OW37927   6.430   7.567   2.517
78677SOL    HW137928   6.418   7.507   2.591
78677SOL    HW237929   6.454   7.650   2.559
78678SOL     OW37930   9.046   1.314  11.882
78678SOL    HW137931   9.022   1.399  11.845
78678SOL    HW237932   9.003   1.313  11.967
78679SOL     OW37933   7.692  13.321  14.080
78679SOL    HW137934   7.778  13.296  14.046
78679SOL    HW237935   7.637  13.244  14.067
78680SOL     OW37936   4.398  11.607  13.716
78680SOL    HW137937   4.407  11.555  13.636
78680SOL    HW237938   4.304  11.621  13.725
78681SOL     OW37939   1.963   8.306   3.744
78681SOL    HW137940   2.049   8.332   3.776
78681SOL    HW237941   1.906   8.380   3.766
78682SOL     OW37942   6.681   1.558   0.233
78682SOL    HW137943   6.661   1.476   0.278
78682SOL    HW237944   6.776   1.569   0.244
78683SOL     OW37945   2.913   4.367   6.189
78683SOL    HW137946   2.905   4.439   6.126
78683SOL    HW237947   2.991   4.319   6.161
78684SOL     OW37948   2.208   7.365   8.572
78684SOL    HW137949   2.215   7.364   8.477
78684SOL    HW237950   2.279   7.308   8.602
78685SOL     OW37951  11.706   6.134   0.723
78685SOL    HW137952  11.616   6.140   0.755
78685SOL    HW237953  11.704   6.061   0.661
78686SOL     OW37954  12.354   8.239   5.168
78686SOL    HW137955  12.418   8.242   5.096
78686SOL    HW237956  12.408   8.239   5.247
78687SOL     OW37957   3.185   2.654   1.388
78687SOL    HW137958   3.135   2.731   1.361
78687SOL    HW237959   3.119   2.587   1.405
78688SOL     OW37960   5.002   8.785   2.643
78688SOL    HW137961   4.942   8.837   2.696
78688SOL    HW237962   5.089   8.806   2.678
78689SOL     OW37963  14.530   1.204   2.681
78689SOL    HW137964  14.479   1.193   2.601
78689SOL    HW237965  14.464   1.216   2.750
78690SOL     OW37966   6.712  14.327   5.925
78690SOL    HW137967   6.645  14.279   5.875
78690SOL    HW237968   6.784  14.339   5.863
78691SOL     OW37969   5.984   6.815   1.073
78691SOL    HW137970   5.945   6.728   1.068
78691SOL    HW237971   6.072   6.804   1.038
78692SOL     OW37972   3.185   5.971   3.582
78692SOL    HW137973   3.154   5.880   3.589
78692SOL    HW237974   3.107   6.024   3.597
78693SOL     OW37975   3.736   1.929  10.335
78693SOL    HW137976   3.764   1.851  10.384
78693SOL    HW237977   3.721   1.995  10.402
78694SOL     OW37978   9.953   9.330  11.943
78694SOL    HW137979   9.913   9.367  11.864
78694SOL    HW237980  10.046   9.351  11.934
78695SOL     OW37981   4.474  12.536   4.022
78695SOL    HW137982   4.506  12.493   4.102
78695SOL    HW237983   4.385  12.504   4.011
78696SOL     OW37984   4.177   4.773  11.918
78696SOL    HW137985   4.202   4.807  11.832
78696SOL    HW237986   4.247   4.713  11.941
78697SOL     OW37987  13.664   6.237   7.359
78697SOL    HW137988  13.601   6.303   7.388
78697SOL    HW237989  13.724   6.226   7.433
78698SOL     OW37990   5.715   1.620  10.110
78698SOL    HW137991   5.656   1.675  10.058
78698SOL    HW237992   5.734   1.546  10.052
78699SOL     OW37993   8.780   6.938   0.168
78699SOL    HW137994   8.706   6.891   0.207
78699SOL    HW237995   8.776   6.916   0.075
78700SOL     OW37996  14.003  14.721   6.950
78700SOL    HW137997  14.088  14.742   6.989
78700SOL    HW237998  13.955  14.678   7.021
78701SOL     OW37999  11.347   5.119   2.879
78701SOL    HW138000  11.257   5.129   2.847
78701SOL    HW238001  11.384   5.207   2.872
78702SOL     OW38002   5.645   9.597   7.608
78702SOL    HW138003   5.647   9.668   7.544
78702SOL    HW238004   5.584   9.533   7.571
78703SOL     OW38005   4.050   0.228   6.631
78703SOL    HW138006   4.126   0.270   6.592
78703SOL    HW238007   4.055   0.251   6.724
78704SOL     OW38008   1.175   5.995  13.981
78704SOL    HW138009   1.169   6.085  14.011
78704SOL    HW238010   1.217   5.948  14.053
78705SOL     OW38011   0.607   8.628   6.445
78705SOL    HW138012   0.583   8.589   6.361
78705SOL    HW238013   0.559   8.577   6.510
78706SOL     OW38014  13.035   8.525  10.952
78706SOL    HW138015  13.118   8.517  10.997
78706SOL    HW238016  13.040   8.609  10.906
78707SOL     OW38017   3.193  12.773   8.806
78707SOL    HW138018   3.175  12.742   8.895
78707SOL    HW238019   3.286  12.756   8.792
78708SOL     OW38020   6.062   9.476   1.945
78708SOL    HW138021   6.094   9.565   1.959
78708SOL    HW238022   6.014   9.480   1.863
78709SOL     OW38023  13.801  11.928  12.438
78709SOL    HW138024  13.887  11.885  12.431
78709SOL    HW238025  13.741  11.857  12.462
78710SOL     OW38026  14.652   0.487   7.699
78710SOL    HW138027  14.573   0.440   7.727
78710SOL    HW238028  14.712   0.477   7.773
78711SOL     OW38029  13.332   3.426   3.607
78711SOL    HW138030  13.304   3.395   3.521
78711SOL    HW238031  13.278   3.504   3.622
78712SOL     OW38032   8.590   6.369  12.832
78712SOL    HW138033   8.501   6.340  12.855
78712SOL    HW238034   8.644   6.292  12.846
78713SOL     OW38035   6.057   3.685   1.966
78713SOL    HW138036   6.037   3.760   2.023
78713SOL    HW238037   6.024   3.609   2.013
78714SOL     OW38038   8.328  10.861   9.250
78714SOL    HW138039   8.414  10.830   9.220
78714SOL    HW238040   8.268  10.837   9.178
78715SOL     OW38041  14.795   6.534   3.878
78715SOL    HW138042  14.879   6.527   3.924
78715SOL    HW238043  14.803   6.614   3.826
78716SOL     OW38044  10.900  10.858   2.104
78716SOL    HW138045  10.832  10.901   2.156
78716SOL    HW238046  10.923  10.922   2.036
78717SOL     OW38047   9.053  14.510   2.924
78717SOL    HW138048   9.056  14.557   3.007
78717SOL    HW238049   9.145  14.492   2.903
78718SOL     OW38050   9.544  14.025   0.248
78718SOL    HW138051   9.546  13.975   0.329
78718SOL    HW238052   9.546  14.117   0.276
78719SOL     OW38053   9.377  13.997   8.713
78719SOL    HW138054   9.303  13.975   8.770
78719SOL    HW238055   9.343  14.066   8.656
78720SOL     OW38056   8.855   2.164  13.715
78720SOL    HW138057   8.902   2.085  13.689
78720SOL    HW238058   8.793   2.179  13.643
78721SOL     OW38059   9.147  12.678   5.826
78721SOL    HW138060   9.091  12.616   5.873
78721SOL    HW238061   9.170  12.744   5.891
78722SOL     OW38062   6.814   4.990   9.724
78722SOL    HW138063   6.906   4.965   9.733
78722SOL    HW238064   6.785   5.006   9.813
78723SOL     OW38065  13.130   9.984   6.263
78723SOL    HW138066  13.166   9.949   6.181
78723SOL    HW238067  13.080   9.912   6.301
78724SOL     OW38068   8.084  11.825  11.053
78724SOL    HW138069   8.020  11.891  11.027
78724SOL    HW238070   8.040  11.741  11.038
78725SOL     OW38071   9.573   7.205   3.096
78725SOL    HW138072   9.592   7.119   3.059
78725SOL    HW238073   9.659   7.248   3.101
78726SOL     OW38074   0.551   3.635  12.732
78726SOL    HW138075   0.522   3.722  12.759
78726SOL    HW238076   0.541   3.634  12.637
78727SOL     OW38077   2.378  10.165   7.117
78727SOL    HW138078   2.428  10.186   7.038
78727SOL    HW238079   2.431  10.199   7.189
78728SOL     OW38080   6.578  14.747   2.004
78728SOL    HW138081   6.509  14.776   1.943
78728SOL    HW238082   6.540  14.761   2.091
78729SOL     OW38083   4.190  10.646   2.573
78729SOL    HW138084   4.279  10.647   2.609
78729SOL    HW238085   4.170  10.553   2.563
78730SOL     OW38086   7.190   3.084  12.448
78730SOL    HW138087   7.227   3.035  12.522
78730SOL    HW238088   7.104   3.044  12.434
78731SOL     OW38089  13.902   9.799   6.026
78731SOL    HW138090  13.992   9.808   6.058
78731SOL    HW238091  13.853   9.867   6.071
78732SOL     OW38092   4.382   9.611  10.613
78732SOL    HW138093   4.393   9.631  10.520
78732SOL    HW238094   4.296   9.570  10.619
78733SOL     OW38095   4.917  13.100   4.418
78733SOL    HW138096   4.846  13.164   4.418
78733SOL    HW238097   4.904  13.050   4.337
78734SOL     OW38098   4.567   8.795   2.696
78734SOL    HW138099   4.614   8.712   2.686
78734SOL    HW238100   4.483   8.770   2.735
78735SOL     OW38101   1.721   2.019   5.896
78735SOL    HW138102   1.726   2.111   5.869
78735SOL    HW238103   1.631   1.994   5.876
78736SOL     OW38104   6.158  11.197   4.283
78736SOL    HW138105   6.108  11.134   4.335
78736SOL    HW238106   6.124  11.283   4.310
78737SOL     OW38107  12.309   5.306   6.128
78737SOL    HW138108  12.243   5.353   6.180
78737SOL    HW238109  12.334   5.232   6.183
78738SOL     OW38110  14.360  13.132   2.427
78738SOL    HW138111  14.385  13.047   2.463
78738SOL    HW238112  14.315  13.176   2.498
78739SOL     OW38113  11.025  12.702   7.280
78739SOL    HW138114  11.025  12.744   7.194
78739SOL    HW238115  11.112  12.722   7.316
78740SOL     OW38116   0.324   9.703  11.850
78740SOL    HW138117   0.277   9.739  11.925
78740SOL    HW238118   0.347   9.780  11.798
78741SOL     OW38119   2.610   4.657   2.144
78741SOL    HW138120   2.567   4.703   2.072
78741SOL    HW238121   2.694   4.703   2.154
78742SOL     OW38122  11.723   0.728   2.857
78742SOL    HW138123  11.701   0.759   2.945
78742SOL    HW238124  11.729   0.633   2.866
78743SOL     OW38125   9.437   9.010  12.586
78743SOL    HW138126   9.415   9.069  12.513
78743SOL    HW238127   9.394   9.049  12.662
78744SOL     OW38128  10.079  13.723   9.491
78744SOL    HW138129  10.054  13.637   9.458
78744SOL    HW238130  10.148  13.753   9.431
78745SOL     OW38131  12.356  11.039   7.591
78745SOL    HW138132  12.294  11.103   7.556
78745SOL    HW238133  12.391  10.994   7.514
78746SOL     OW38134   8.070   9.941  10.203
78746SOL    HW138135   8.117   9.919  10.122
78746SOL    HW238136   8.088   9.868  10.262
78747SOL     OW38137  11.236   3.110   7.296
78747SOL    HW138138  11.293   3.038   7.270
78747SOL    HW238139  11.233   3.105   7.392
78748SOL     OW38140   6.074   3.418   7.490
78748SOL    HW138141   6.012   3.419   7.562
78748SOL    HW238142   6.157   3.391   7.530
78749SOL     OW38143  12.109  13.781  14.325
78749SOL    HW138144  12.068  13.781  14.239
78749SOL    HW238145  12.090  13.868  14.361
78750SOL     OW38146   6.102   1.322   3.734
78750SOL    HW138147   6.098   1.410   3.695
78750SOL    HW238148   6.188   1.288   3.708
78751SOL     OW38149  13.929   2.913   3.504
78751SOL    HW138150  13.904   2.854   3.575
78751SOL    HW238151  13.907   2.866   3.424
78752SOL     OW38152   5.890   2.113   2.112
78752SOL    HW138153   5.855   2.115   2.201
78752SOL    HW238154   5.982   2.088   2.123
78753SOL     OW38155   9.753   2.824   9.812
78753SOL    HW138156   9.732   2.820   9.905
78753SOL    HW238157   9.813   2.898   9.804
78754SOL     OW38158   7.502   6.569  14.453
78754SOL    HW138159   7.421   6.518  14.442
78754SOL    HW238160   7.536   6.578  14.364
78755SOL     OW38161   5.816   8.887   1.972
78755SOL    HW138162   5.774   8.809   1.934
78755SOL    HW238163   5.754   8.958   1.954
78756SOL     OW38164   9.335  12.071  12.196
78756SOL    HW138165   9.303  12.159  12.172
78756SOL    HW238166   9.384  12.085  12.277
78757SOL     OW38167   3.538   2.062   6.411
78757SOL    HW138168   3.598   2.080   6.483
78757SOL    HW238169   3.571   1.981   6.372
78758SOL     OW38170  10.386  11.271   5.267
78758SOL    HW138171  10.464  11.326   5.278
78758SOL    HW238172  10.355  11.256   5.356
78759SOL     OW38173   7.079  11.729   1.381
78759SOL    HW138174   7.070  11.664   1.451
78759SOL    HW238175   6.998  11.721   1.330
78760SOL     OW38176   1.397  13.745   8.799
78760SOL    HW138177   1.316  13.751   8.849
78760SOL    HW238178   1.393  13.820   8.739
78761SOL     OW38179  14.443   0.722   5.737
78761SOL    HW138180  14.443   0.626   5.742
78761SOL    HW238181  14.508   0.749   5.802
78762SOL     OW38182   0.460   3.151   5.616
78762SOL    HW138183   0.554   3.147   5.601
78762SOL    HW238184   0.433   3.234   5.576
78763SOL     OW38185   5.401  12.438   3.205
78763SOL    HW138186   5.380  12.527   3.175
78763SOL    HW238187   5.348  12.427   3.284
78764SOL     OW38188   3.755   8.509   7.904
78764SOL    HW138189   3.700   8.443   7.862
78764SOL    HW238190   3.694   8.576   7.934
78765SOL     OW38191   1.665   6.633  11.491
78765SOL    HW138192   1.665   6.723  11.525
78765SOL    HW238193   1.636   6.641  11.400
78766SOL     OW38194  11.967   8.653   3.031
78766SOL    HW138195  11.967   8.622   3.122
78766SOL    HW238196  12.053   8.694   3.020
78767SOL     OW38197   0.344  14.292   7.776
78767SOL    HW138198   0.269  14.238   7.753
78767SOL    HW238199   0.419  14.245   7.740
78768SOL     OW38200  11.447  13.475   2.139
78768SOL    HW138201  11.463  13.401   2.080
78768SOL    HW238202  11.381  13.528   2.094
78769SOL     OW38203  11.895   5.092   7.010
78769SOL    HW138204  11.949   5.027   7.054
78769SOL    HW238205  11.899   5.068   6.918
78770SOL     OW38206   4.984  14.851   6.535
78770SOL    HW138207   5.028  14.831   6.452
78770SOL    HW238208   4.915   0.033   6.512
78771SOL     OW38209   1.464  12.953   1.560
78771SOL    HW138210   1.510  12.977   1.640
78771SOL    HW238211   1.382  13.002   1.563
78772SOL     OW38212  10.013  14.830   9.167
78772SOL    HW138213  10.049  14.763   9.226
78772SOL    HW238214   9.982  14.781   9.091
78773SOL     OW38215  13.208  11.251  11.123
78773SOL    HW138216  13.202  11.274  11.216
78773SOL    HW238217  13.260  11.171  11.121
78774SOL     OW38218  11.485   6.036   5.065
78774SOL    HW138219  11.411   5.996   5.020
78774SOL    HW238220  11.485   6.127   5.036
78775SOL     OW38221   7.260   4.875   7.669
78775SOL    HW138222   7.328   4.924   7.715
78775SOL    HW238223   7.188   4.870   7.732
78776SOL     OW38224   0.940   5.290   6.541
78776SOL    HW138225   1.023   5.254   6.574
78776SOL    HW238226   0.875   5.223   6.560
78777SOL     OW38227   0.766   1.739   5.948
78777SOL    HW138228   0.847   1.724   5.900
78777SOL    HW238229   0.703   1.679   5.908
78778SOL     OW38230   0.901   4.554  13.922
78778SOL    HW138231   0.948   4.512  13.850
78778SOL    HW238232   0.818   4.581  13.883
78779SOL     OW38233  11.282  12.171  13.467
78779SOL    HW138234  11.363  12.146  13.422
78779SOL    HW238235  11.212  12.130  13.416
78780SOL     OW38236   6.591   1.522   7.003
78780SOL    HW138237   6.559   1.438   6.969
78780SOL    HW238238   6.620   1.502   7.092
78781SOL     OW38239  12.333   6.785  14.391
78781SOL    HW138240  12.294   6.698  14.400
78781SOL    HW238241  12.369   6.786  14.303
78782SOL     OW38242  11.053  10.033   4.933
78782SOL    HW138243  10.981   9.987   4.976
78782SOL    HW238244  11.026  10.043   4.842
78783SOL     OW38245   9.438   1.334   9.078
78783SOL    HW138246   9.456   1.329   9.172
78783SOL    HW238247   9.482   1.257   9.042
78784SOL     OW38248   1.807   9.443   8.803
78784SOL    HW138249   1.797   9.385   8.728
78784SOL    HW238250   1.901   9.455   8.812
78785SOL     OW38251   9.193   7.784   9.885
78785SOL    HW138252   9.269   7.752   9.934
78785SOL    HW238253   9.222   7.786   9.794
78786SOL     OW38254   3.706  14.414   1.417
78786SOL    HW138255   3.763  14.341   1.390
78786SOL    HW238256   3.690  14.399   1.510
78787SOL     OW38257  11.855  11.272  10.088
78787SOL    HW138258  11.896  11.342  10.035
78787SOL    HW238259  11.914  11.197  10.077
78788SOL     OW38260   1.310   1.033   9.751
78788SOL    HW138261   1.219   1.010   9.772
78788SOL    HW238262   1.362   0.963   9.791
78789SOL     OW38263   6.953  10.998   1.458
78789SOL    HW138264   6.879  11.006   1.518
78789SOL    HW238265   7.030  11.014   1.512
78790SOL     OW38266   0.818   5.406   1.149
78790SOL    HW138267   0.787   5.351   1.078
78790SOL    HW238268   0.780   5.368   1.228
78791SOL     OW38269   0.572   0.126   8.110
78791SOL    HW138270   0.551   0.207   8.157
78791SOL    HW238271   0.493   0.073   8.117
78792SOL     OW38272   8.737  10.630   1.660
78792SOL    HW138273   8.732  10.725   1.648
78792SOL    HW238274   8.686  10.614   1.739
78793SOL     OW38275  12.254   5.432  12.427
78793SOL    HW138276  12.262   5.341  12.455
78793SOL    HW238277  12.188   5.469  12.485
78794SOL     OW38278   4.360  13.656   6.036
78794SOL    HW138279   4.309  13.729   6.000
78794SOL    HW238280   4.382  13.603   5.960
78795SOL     OW38281   9.066  14.474  14.238
78795SOL    HW138282   8.982  14.491  14.196
78795SOL    HW238283   9.110  14.559  14.240
78796SOL     OW38284   5.222   3.532   0.116
78796SOL    HW138285   5.282   3.464   0.084
78796SOL    HW238286   5.135   3.494   0.103
78797SOL     OW38287  10.357   6.997   9.681
78797SOL    HW138288  10.309   7.079   9.689
78797SOL    HW238289  10.291   6.933   9.655
78798SOL     OW38290   8.307   4.533   5.579
78798SOL    HW138291   8.253   4.537   5.501
78798SOL    HW238292   8.293   4.617   5.623
78799SOL     OW38293   8.110   5.517  12.089
78799SOL    HW138294   8.059   5.502  12.009
78799SOL    HW238295   8.190   5.561  12.059
78800SOL     OW38296  12.011   8.595   2.766
78800SOL    HW138297  12.104   8.614   2.777
78800SOL    HW238298  11.977   8.591   2.855
78801SOL     OW38299   1.433   5.935  12.825
78801SOL    HW138300   1.379   5.996  12.776
78801SOL    HW238301   1.399   5.937  12.914
78802SOL     OW38302   1.245   9.373   5.238
78802SOL    HW138303   1.178   9.307   5.223
78802SOL    HW238304   1.280   9.353   5.325
78803SOL     OW38305   9.934   3.263  11.925
78803SOL    HW138306   9.873   3.192  11.906
78803SOL    HW238307  10.015   3.239  11.880
78804SOL     OW38308  12.637  14.161   0.993
78804SOL    HW138309  12.679  14.104   1.058
78804SOL    HW238310  12.699  14.234   0.982
78805SOL     OW38311   1.673   5.424  14.007
78805SOL    HW138312   1.701   5.346  13.960
78805SOL    HW238313   1.740   5.438  14.074
78806SOL     OW38314   6.733   1.563  13.124
78806SOL    HW138315   6.669   1.562  13.053
78806SOL    HW238316   6.757   1.656  13.133
78807SOL     OW38317   9.729  10.035   9.265
78807SOL    HW138318   9.745   9.941   9.260
78807SOL    HW238319   9.633  10.043   9.265
78808SOL     OW38320   2.973  13.711   4.227
78808SOL    HW138321   2.908  13.778   4.204
78808SOL    HW238322   3.015  13.690   4.143
78809SOL     OW38323   5.462   3.821   5.257
78809SOL    HW138324   5.417   3.900   5.288
78809SOL    HW238325   5.488   3.842   5.167
78810SOL     OW38326  12.000   2.242   9.624
78810SOL    HW138327  12.092   2.225   9.644
78810SOL    HW238328  11.995   2.336   9.610
78811SOL     OW38329  10.674   1.031   3.366
78811SOL    HW138330  10.728   1.087   3.420
78811SOL    HW238331  10.716   1.033   3.280
78812SOL     OW38332  13.777   8.822  12.680
78812SOL    HW138333  13.779   8.902  12.732
78812SOL    HW238334  13.791   8.752  12.744
78813SOL     OW38335   1.414  13.652   5.583
78813SOL    HW138336   1.492  13.682   5.629
78813SOL    HW238337   1.429  13.674   5.492
78814SOL     OW38338   1.164  13.004  12.561
78814SOL    HW138339   1.212  13.085  12.575
78814SOL    HW238340   1.087  13.029  12.510
78815SOL     OW38341   8.335   2.756  10.309
78815SOL    HW138342   8.303   2.708  10.386
78815SOL    HW238343   8.419   2.792  10.337
78816SOL     OW38344   5.905   1.708  10.290
78816SOL    HW138345   5.851   1.687  10.213
78816SOL    HW238346   5.994   1.711  10.256
78817SOL     OW38347   4.042  12.209  12.516
78817SOL    HW138348   4.127  12.186  12.552
78817SOL    HW238349   3.997  12.254  12.588
78818SOL     OW38350   8.760   3.556   2.981
78818SOL    HW138351   8.730   3.523   2.896
78818SOL    HW238352   8.680   3.585   3.025
78819SOL     OW38353   9.443   3.487   0.327
78819SOL    HW138354   9.383   3.529   0.264
78819SOL    HW238355   9.410   3.398   0.335
78820SOL     OW38356   7.990   4.175   8.242
78820SOL    HW138357   8.050   4.104   8.219
78820SOL    HW238358   7.983   4.227   8.162
78821SOL     OW38359   0.545  11.594   7.511
78821SOL    HW138360   0.569  11.625   7.424
78821SOL    HW238361   0.592  11.511   7.521
78822SOL     OW38362  11.998  10.632   8.250
78822SOL    HW138363  11.910  10.596   8.259
78822SOL    HW238364  12.053  10.555   8.233
78823SOL     OW38365   3.566  11.542   3.571
78823SOL    HW138366   3.642  11.491   3.601
78823SOL    HW238367   3.584  11.631   3.600
78824SOL     OW38368  14.590   6.139   8.121
78824SOL    HW138369  14.508   6.168   8.160
78824SOL    HW238370  14.650   6.212   8.135
78825SOL     OW38371   5.406  10.089   6.873
78825SOL    HW138372   5.412  10.184   6.880
78825SOL    HW238373   5.385  10.060   6.962
78826SOL     OW38374   3.598  12.689   8.037
78826SOL    HW138375   3.677  12.643   8.008
78826SOL    HW238376   3.530  12.662   7.975
78827SOL     OW38377   9.481  10.386   5.964
78827SOL    HW138378   9.462  10.409   5.873
78827SOL    HW238379   9.415  10.319   5.985
78828SOL     OW38380   0.733   8.842   0.100
78828SOL    HW138381   0.661   8.779   0.106
78828SOL    HW238382   0.691   8.927   0.099
78829SOL     OW38383  10.638   0.241   6.219
78829SOL    HW138384  10.674   0.163   6.177
78829SOL    HW238385  10.564   0.266   6.165
78830SOL     OW38386  12.600   0.224   1.312
78830SOL    HW138387  12.571   0.136   1.285
78830SOL    HW238388  12.598   0.222   1.407
78831SOL     OW38389   3.186  12.381  13.775
78831SOL    HW138390   3.100  12.422  13.765
78831SOL    HW238391   3.169  12.296  13.813
78832SOL     OW38392   3.881   6.090  11.437
78832SOL    HW138393   3.803   6.035  11.436
78832SOL    HW238394   3.853   6.172  11.479
78833SOL     OW38395   8.046   9.943  11.046
78833SOL    HW138396   8.039   9.919  10.954
78833SOL    HW238397   8.100   9.874  11.084
78834SOL     OW38398  13.823   2.440   7.382
78834SOL    HW138399  13.761   2.431   7.309
78834SOL    HW238400  13.889   2.502   7.351
78835SOL     OW38401   0.322   7.645  14.669
78835SOL    HW138402   0.246   7.698  14.691
78835SOL    HW238403   0.290   7.582  14.604
78836SOL     OW38404   9.075  11.057  10.265
78836SOL    HW138405   9.063  11.124  10.198
78836SOL    HW238406   9.032  11.094  10.343
78837SOL     OW38407  12.810   8.463   5.011
78837SOL    HW138408  12.882   8.526   5.020
78837SOL    HW238409  12.732   8.512   5.040
78838SOL     OW38410   8.579   5.448   2.161
78838SOL    HW138411   8.505   5.476   2.215
78838SOL    HW238412   8.640   5.521   2.165
78839SOL     OW38413   3.183   3.186   0.189
78839SOL    HW138414   3.092   3.217   0.190
78839SOL    HW238415   3.178   3.096   0.219
78840SOL     OW38416   2.229   7.974  11.472
78840SOL    HW138417   2.158   7.951  11.532
78840SOL    HW238418   2.186   8.014  11.397
78841SOL     OW38419  11.934   3.755   6.974
78841SOL    HW138420  12.009   3.809   6.950
78841SOL    HW238421  11.859   3.797   6.931
78842SOL     OW38422  14.521  14.274   8.686
78842SOL    HW138423  14.514  14.285   8.591
78842SOL    HW238424  14.458  14.205   8.707
78843SOL     OW38425   3.534  13.272  11.826
78843SOL    HW138426   3.467  13.212  11.860
78843SOL    HW238427   3.492  13.358  11.827
78844SOL     OW38428   7.432  12.416   1.631
78844SOL    HW138429   7.404  12.394   1.720
78844SOL    HW238430   7.527  12.426   1.637
78845SOL     OW38431  14.581   4.324   2.684
78845SOL    HW138432  14.546   4.254   2.629
78845SOL    HW238433  14.616   4.278   2.761
78846SOL     OW38434   9.891  11.471  12.981
78846SOL    HW138435   9.805  11.462  12.940
78846SOL    HW238436   9.929  11.549  12.941
78847SOL     OW38437  14.140  10.967   3.057
78847SOL    HW138438  14.059  11.003   3.022
78847SOL    HW238439  14.114  10.887   3.103
78848SOL     OW38440  12.891   0.046   9.461
78848SOL    HW138441  12.905  14.873   9.383
78848SOL    HW238442  12.823  14.879   9.510
78849SOL     OW38443   0.566   5.252  11.658
78849SOL    HW138444   0.507   5.177  11.662
78849SOL    HW238445   0.625   5.232  11.586
78850SOL     OW38446   2.502   2.080   1.296
78850SOL    HW138447   2.483   2.076   1.390
78850SOL    HW238448   2.570   2.146   1.288
78851SOL     OW38449   7.542   8.003   6.355
78851SOL    HW138450   7.469   7.998   6.293
78851SOL    HW238451   7.568   7.912   6.369
78852SOL     OW38452  10.597   8.206   2.279
78852SOL    HW138453  10.524   8.144   2.291
78852SOL    HW238454  10.667   8.154   2.240
78853SOL     OW38455   9.146  13.443   3.610
78853SOL    HW138456   9.059  13.483   3.617
78853SOL    HW238457   9.135  13.372   3.547
78854SOL     OW38458  10.841  12.210   1.142
78854SOL    HW138459  10.930  12.245   1.138
78854SOL    HW238460  10.835  12.167   1.227
78855SOL     OW38461   6.237   9.847   9.416
78855SOL    HW138462   6.219   9.753   9.410
78855SOL    HW238463   6.219   9.870   9.507
78856SOL     OW38464   4.772   0.855  10.804
78856SOL    HW138465   4.740   0.911  10.733
78856SOL    HW238466   4.865   0.843  10.784
78857SOL     OW38467   9.797   0.238   5.525
78857SOL    HW138468   9.891   0.222   5.520
78857SOL    HW238469   9.771   0.257   5.435
78858SOL     OW38470  10.267   8.588   0.590
78858SOL    HW138471  10.193   8.536   0.559
78858SOL    HW238472  10.333   8.523   0.616
78859SOL     OW38473  14.763   8.242  10.602
78859SOL    HW138474  14.729   8.157  10.573
78859SOL    HW238475  14.774   8.293  10.522
78860SOL     OW38476  12.734   8.374   9.462
78860SOL    HW138477  12.762   8.442   9.523
78860SOL    HW238478  12.809   8.315   9.456
78861SOL     OW38479   7.417   8.571   7.452
78861SOL    HW138480   7.479   8.502   7.474
78861SOL    HW238481   7.456   8.651   7.490
78862SOL     OW38482  11.615   7.841   1.382
78862SOL    HW138483  11.664   7.884   1.453
78862SOL    HW238484  11.588   7.757   1.420
78863SOL     OW38485  11.541   3.957   9.957
78863SOL    HW138486  11.486   3.972   9.880
78863SOL    HW238487  11.607   4.025   9.953
78864SOL     OW38488   0.736   8.777  14.156
78864SOL    HW138489   0.757   8.697  14.203
78864SOL    HW238490   0.819   8.805  14.117
78865SOL     OW38491   8.591   2.455   6.591
78865SOL    HW138492   8.603   2.491   6.503
78865SOL    HW238493   8.601   2.531   6.649
78866SOL     OW38494   1.810   3.824   3.680
78866SOL    HW138495   1.904   3.826   3.700
78866SOL    HW238496   1.800   3.886   3.608
78867SOL     OW38497  10.678   0.674   8.836
78867SOL    HW138498  10.756   0.730   8.833
78867SOL    HW238499  10.634   0.699   8.917
78868SOL     OW38500  10.475   5.317   9.904
78868SOL    HW138501  10.423   5.257   9.958
78868SOL    HW238502  10.564   5.280   9.906
78869SOL     OW38503   3.925  13.055   1.388
78869SOL    HW138504   3.876  13.107   1.452
78869SOL    HW238505   3.870  12.978   1.372
78870SOL     OW38506  11.828   0.761   1.659
78870SOL    HW138507  11.886   0.755   1.583
78870SOL    HW238508  11.791   0.849   1.654
78871SOL     OW38509  11.746   3.706   3.370
78871SOL    HW138510  11.660   3.713   3.330
78871SOL    HW238511  11.751   3.780   3.430
78872SOL     OW38512  10.432   0.506  10.003
78872SOL    HW138513  10.475   0.437  10.055
78872SOL    HW238514  10.378   0.458   9.940
78873SOL     OW38515  14.253   3.474   7.334
78873SOL    HW138516  14.244   3.496   7.426
78873SOL    HW238517  14.271   3.380   7.333
78874SOL     OW38518   6.717   7.704  11.988
78874SOL    HW138519   6.682   7.792  11.973
78874SOL    HW238520   6.801   7.704  11.942
78875SOL     OW38521   0.724  10.736   9.230
78875SOL    HW138522   0.815  10.713   9.249
78875SOL    HW238523   0.692  10.773   9.312
78876SOL     OW38524  10.113  14.788  14.117
78876SOL    HW138525  10.162  14.836  14.185
78876SOL    HW238526  10.083  14.856  14.057
78877SOL     OW38527   6.733  10.544  10.321
78877SOL    HW138528   6.760  10.616  10.377
78877SOL    HW238529   6.795  10.474  10.340
78878SOL     OW38530  13.057  14.734   3.479
78878SOL    HW138531  13.125  14.792   3.446
78878SOL    HW238532  12.983  14.745   3.420
78879SOL     OW38533   7.911  10.914  10.125
78879SOL    HW138534   7.866  10.926  10.042
78879SOL    HW238535   7.975  10.845  10.108
78880SOL     OW38536   6.815   6.056   9.480
78880SOL    HW138537   6.798   5.966   9.507
78880SOL    HW238538   6.728   6.097   9.476
78881SOL     OW38539   4.426   9.276   0.837
78881SOL    HW138540   4.348   9.268   0.893
78881SOL    HW238541   4.494   9.311   0.894
78882SOL     OW38542   5.789   0.983   3.487
78882SOL    HW138543   5.785   1.078   3.481
78882SOL    HW238544   5.857   0.966   3.552
78883SOL     OW38545   3.885   7.760   4.900
78883SOL    HW138546   3.876   7.725   4.988
78883SOL    HW238547   3.840   7.697   4.844
78884SOL     OW38548   2.537   5.449   1.066
78884SOL    HW138549   2.580   5.363   1.064
78884SOL    HW238550   2.469   5.440   1.132
78885SOL     OW38551   9.676   7.551  11.233
78885SOL    HW138552   9.770   7.536  11.220
78885SOL    HW238553   9.663   7.644  11.214
78886SOL     OW38554   5.716  12.507   2.288
78886SOL    HW138555   5.798  12.466   2.317
78886SOL    HW238556   5.721  12.597   2.323
78887SOL     OW38557  14.009  10.769   6.132
78887SOL    HW138558  14.002  10.774   6.037
78887SOL    HW238559  14.029  10.677   6.149
78888SOL     OW38560   3.749  12.375   2.779
78888SOL    HW138561   3.716  12.333   2.858
78888SOL    HW238562   3.836  12.408   2.804
78889SOL     OW38563  11.698   6.546  11.125
78889SOL    HW138564  11.788   6.568  11.153
78889SOL    HW238565  11.645   6.565  11.202
78890SOL     OW38566   1.978   9.621   0.828
78890SOL    HW138567   2.029   9.565   0.770
78890SOL    HW238568   2.040   9.687   0.858
78891SOL     OW38569   8.523   3.764   0.290
78891SOL    HW138570   8.618   3.764   0.301
78891SOL    HW238571   8.489   3.758   0.379
78892SOL     OW38572  11.389   5.669   0.267
78892SOL    HW138573  11.473   5.692   0.306
78892SOL    HW238574  11.402   5.682   0.173
78893SOL     OW38575   4.084  11.440   6.230
78893SOL    HW138576   4.055  11.531   6.218
78893SOL    HW238577   4.088  11.405   6.141
78894SOL     OW38578   7.928  13.880   2.627
78894SOL    HW138579   7.909  13.842   2.713
78894SOL    HW238580   7.950  13.971   2.646
78895SOL     OW38581   7.474   1.079   3.640
78895SOL    HW138582   7.481   1.069   3.546
78895SOL    HW238583   7.396   1.028   3.664
78896SOL     OW38584   5.218   5.468   1.418
78896SOL    HW138585   5.204   5.452   1.511
78896SOL    HW238586   5.258   5.387   1.385
78897SOL     OW38587   9.968   6.841   5.020
78897SOL    HW138588   9.885   6.887   5.008
78897SOL    HW238589   9.943   6.750   5.034
78898SOL     OW38590   7.716  14.511   6.480
78898SOL    HW138591   7.666  14.430   6.484
78898SOL    HW238592   7.735  14.533   6.571
78899SOL     OW38593  10.965  11.099  12.172
78899SOL    HW138594  10.973  11.194  12.178
78899SOL    HW238595  10.893  11.077  12.231
78900SOL     OW38596  13.542  10.006   7.142
78900SOL    HW138597  13.599   9.961   7.079
78900SOL    HW238598  13.453   9.987   7.112
78901SOL     OW38599  10.671   7.922   0.565
78901SOL    HW138600  10.610   7.848   0.560
78901SOL    HW238601  10.743   7.898   0.506
78902SOL     OW38602   7.936  11.454   3.963
78902SOL    HW138603   7.842  11.437   3.966
78902SOL    HW238604   7.976  11.368   3.949
78903SOL     OW38605   1.936  12.760  14.288
78903SOL    HW138606   1.908  12.851  14.287
78903SOL    HW238607   1.883  12.719  14.357
78904SOL     OW38608   4.965  10.541   0.261
78904SOL    HW138609   5.002  10.462   0.221
78904SOL    HW238610   4.928  10.589   0.187
78905SOL     OW38611   3.686  10.728   7.588
78905SOL    HW138612   3.619  10.662   7.608
78905SOL    HW238613   3.764  10.677   7.566
78906SOL     OW38614   1.519   2.024   4.353
78906SOL    HW138615   1.485   2.105   4.314
78906SOL    HW238616   1.579   1.990   4.287
78907SOL     OW38617   6.214   1.597   6.709
78907SOL    HW138618   6.162   1.619   6.787
78907SOL    HW238619   6.229   1.681   6.666
78908SOL     OW38620  10.663   1.996   8.819
78908SOL    HW138621  10.734   2.052   8.785
78908SOL    HW238622  10.613   1.972   8.741
78909SOL     OW38623   5.124  12.575   8.705
78909SOL    HW138624   5.042  12.527   8.713
78909SOL    HW238625   5.191  12.513   8.731
78910SOL     OW38626   0.601   2.056   1.446
78910SOL    HW138627   0.635   1.967   1.445
78910SOL    HW238628   0.619   2.089   1.357
78911SOL     OW38629   7.033  13.462   0.624
78911SOL    HW138630   6.999  13.507   0.547
78911SOL    HW238631   7.074  13.383   0.591
78912SOL     OW38632  10.307  12.246  11.249
78912SOL    HW138633  10.249  12.243  11.173
78912SOL    HW238634  10.346  12.159  11.254
78913SOL     OW38635   6.492   4.503   4.147
78913SOL    HW138636   6.527   4.498   4.235
78913SOL    HW238637   6.531   4.429   4.101
78914SOL     OW38638  14.070   0.761   0.767
78914SOL    HW138639  14.030   0.828   0.822
78914SOL    HW238640  14.161   0.789   0.756
78915SOL     OW38641   5.655   2.477   3.811
78915SOL    HW138642   5.646   2.554   3.867
78915SOL    HW238643   5.682   2.512   3.726
78916SOL     OW38644   2.837  13.731   7.194
78916SOL    HW138645   2.803  13.642   7.182
78916SOL    HW238646   2.785  13.785   7.135
78917SOL     OW38647   5.234   1.919   1.836
78917SOL    HW138648   5.261   1.889   1.923
78917SOL    HW238649   5.312   1.908   1.782
78918SOL     OW38650   0.429   3.220   8.903
78918SOL    HW138651   0.497   3.164   8.941
78918SOL    HW238652   0.457   3.232   8.812
78919SOL     OW38653  13.141   2.251  12.243
78919SOL    HW138654  13.116   2.206  12.324
78919SOL    HW238655  13.236   2.244  12.241
78920SOL     OW38656  14.068   8.064   5.980
78920SOL    HW138657  14.129   8.052   6.053
78920SOL    HW238658  13.986   8.092   6.021
78921SOL     OW38659   4.136  10.803   6.185
78921SOL    HW138660   4.099  10.719   6.157
78921SOL    HW238661   4.229  10.798   6.160
78922SOL     OW38662   8.605   9.805   6.990
78922SOL    HW138663   8.601   9.899   6.977
78922SOL    HW238664   8.610   9.768   6.902
78923SOL     OW38665   8.450   2.746  13.260
78923SOL    HW138666   8.356   2.758  13.249
78923SOL    HW238667   8.458   2.685  13.333
78924SOL     OW38668   2.790   6.757   3.148
78924SOL    HW138669   2.832   6.766   3.233
78924SOL    HW238670   2.696   6.762   3.167
78925SOL     OW38671  12.128   2.417  14.230
78925SOL    HW138672  12.208   2.371  14.202
78925SOL    HW238673  12.138   2.427  14.324
78926SOL     OW38674  14.201   6.462   4.530
78926SOL    HW138675  14.184   6.555   4.513
78926SOL    HW238676  14.179   6.450   4.622
78927SOL     OW38677   7.443   7.078  11.267
78927SOL    HW138678   7.494   7.123  11.200
78927SOL    HW238679   7.363   7.130  11.274
78928SOL     OW38680  13.634   1.982   1.938
78928SOL    HW138681  13.615   2.074   1.956
78928SOL    HW238682  13.552   1.947   1.903
78929SOL     OW38683   8.623  11.895   8.068
78929SOL    HW138684   8.590  11.811   8.036
78929SOL    HW238685   8.556  11.927   8.128
78930SOL     OW38686  10.420   7.219   3.586
78930SOL    HW138687  10.429   7.202   3.492
78930SOL    HW238688  10.325   7.223   3.600
78931SOL     OW38689   0.889   3.646  12.551
78931SOL    HW138690   0.952   3.698  12.501
78931SOL    HW238691   0.896   3.558  12.515
78932SOL     OW38692   3.759   9.887  13.430
78932SOL    HW138693   3.826   9.849  13.374
78932SOL    HW238694   3.762   9.981  13.411
78933SOL     OW38695  11.139  13.818  12.730
78933SOL    HW138696  11.089  13.749  12.772
78933SOL    HW238697  11.137  13.891  12.792
78934SOL     OW38698  12.720  12.561   0.944
78934SOL    HW138699  12.683  12.595   1.026
78934SOL    HW238700  12.814  12.569   0.955
78935SOL     OW38701   2.196   4.208   1.426
78935SOL    HW138702   2.244   4.290   1.438
78935SOL    HW238703   2.263   4.140   1.430
78936SOL     OW38704   0.239   9.758  13.520
78936SOL    HW138705   0.212   9.708  13.443
78936SOL    HW238706   0.165   9.817  13.537
78937SOL     OW38707  14.750   1.504  12.571
78937SOL    HW138708  14.683   1.573  12.574
78937SOL    HW238709  14.700   1.423  12.560
78938SOL     OW38710   5.757   7.198   1.201
78938SOL    HW138711   5.851   7.181   1.193
78938SOL    HW238712   5.734   7.163   1.287
78939SOL     OW38713   4.889   1.312   8.603
78939SOL    HW138714   4.935   1.280   8.680
78939SOL    HW238715   4.903   1.406   8.603
78940SOL     OW38716  13.731  13.236  14.702
78940SOL    HW138717  13.693  13.281  14.777
78940SOL    HW238718  13.656  13.192  14.660
78941SOL     OW38719   8.876   9.779   8.827
78941SOL    HW138720   8.939   9.847   8.852
78941SOL    HW238721   8.820   9.768   8.904
78942SOL     OW38722   3.581  12.301   8.782
78942SOL    HW138723   3.496  12.344   8.780
78942SOL    HW238724   3.570  12.222   8.730
78943SOL     OW38725   1.987  11.759   6.232
78943SOL    HW138726   1.946  11.845   6.226
78943SOL    HW238727   2.036  11.750   6.151
78944SOL     OW38728  13.393   1.259   7.051
78944SOL    HW138729  13.303   1.240   7.076
78944SOL    HW238730  13.441   1.178   7.069
78945SOL     OW38731   0.256   9.421  10.008
78945SOL    HW138732   0.314   9.362  10.055
78945SOL    HW238733   0.266   9.396   9.916
78946SOL     OW38734   5.346   0.291   5.744
78946SOL    HW138735   5.267   0.344   5.755
78946SOL    HW238736   5.418   0.351   5.761
78947SOL     OW38737  11.160  12.064   1.336
78947SOL    HW138738  11.154  12.146   1.287
78947SOL    HW238739  11.084  12.013   1.309
78948SOL     OW38740   9.426   4.401   7.310
78948SOL    HW138741   9.492   4.371   7.374
78948SOL    HW238742   9.469   4.473   7.264
78949SOL     OW38743   3.397  10.677  12.932
78949SOL    HW138744   3.385  10.650  12.841
78949SOL    HW238745   3.319  10.644  12.976
78950SOL     OW38746   0.572   4.549  14.029
78950SOL    HW138747   0.575   4.555  14.125
78950SOL    HW238748   0.611   4.464  14.009
78951SOL     OW38749   6.745   0.474   5.894
78951SOL    HW138750   6.835   0.505   5.882
78951SOL    HW238751   6.724   0.428   5.813
78952SOL     OW38752  10.073   9.631  10.078
78952SOL    HW138753  10.022   9.560  10.039
78952SOL    HW238754  10.060   9.705  10.018
78953SOL     OW38755  10.640  10.202  11.831
78953SOL    HW138756  10.590  10.249  11.764
78953SOL    HW238757  10.660  10.269  11.896
78954SOL     OW38758   5.410   1.008  14.515
78954SOL    HW138759   5.370   1.095  14.515
78954SOL    HW238760   5.464   1.006  14.436
78955SOL     OW38761   1.160   1.601  14.640
78955SOL    HW138762   1.096   1.665  14.669
78955SOL    HW238763   1.170   1.618  14.546
78956SOL     OW38764   4.120   3.118   5.385
78956SOL    HW138765   4.170   3.040   5.410
78956SOL    HW238766   4.062   3.134   5.459
78957SOL     OW38767  10.448   9.124  11.984
78957SOL    HW138768  10.491   9.163  12.061
78957SOL    HW238769  10.512   9.063  11.949
78958SOL     OW38770  13.941   5.591   8.640
78958SOL    HW138771  13.861   5.614   8.593
78958SOL    HW238772  14.010   5.597   8.574
78959SOL     OW38773  10.461   0.420   2.872
78959SOL    HW138774  10.404   0.343   2.866
78959SOL    HW238775  10.546   0.385   2.897
78960SOL     OW38776  10.767   5.835   1.384
78960SOL    HW138777  10.845   5.780   1.398
78960SOL    HW238778  10.775   5.905   1.449
78961SOL     OW38779  10.837   0.721   3.914
78961SOL    HW138780  10.883   0.784   3.858
78961SOL    HW238781  10.805   0.654   3.853
78962SOL     OW38782  11.886  10.743  13.273
78962SOL    HW138783  11.935  10.672  13.315
78962SOL    HW238784  11.809  10.755  13.328
78963SOL     OW38785   5.146   5.039   6.569
78963SOL    HW138786   5.104   5.018   6.653
78963SOL    HW238787   5.209   5.107   6.591
78964SOL     OW38788   6.206  12.293  14.565
78964SOL    HW138789   6.291  12.333  14.547
78964SOL    HW238790   6.227  12.211  14.610
78965SOL     OW38791   4.124  11.789   5.746
78965SOL    HW138792   4.217  11.810   5.736
78965SOL    HW238793   4.093  11.779   5.656
78966SOL     OW38794  10.527   4.812   9.313
78966SOL    HW138795  10.548   4.823   9.220
78966SOL    HW238796  10.490   4.724   9.318
78967SOL     OW38797   5.043   5.939   1.828
78967SOL    HW138798   5.012   6.029   1.821
78967SOL    HW238799   4.982   5.897   1.889
78968SOL     OW38800   9.635   3.770   5.035
78968SOL    HW138801   9.703   3.747   4.973
78968SOL    HW238802   9.622   3.864   5.024
78969SOL     OW38803  10.707   3.533  11.018
78969SOL    HW138804  10.781   3.507  10.964
78969SOL    HW238805  10.714   3.628  11.024
78970SOL     OW38806  10.809   5.097  11.518
78970SOL    HW138807  10.839   5.070  11.432
78970SOL    HW238808  10.827   5.191  11.522
78971SOL     OW38809   7.322   8.079   6.858
78971SOL    HW138810   7.413   8.066   6.834
78971SOL    HW238811   7.297   7.997   6.901
78972SOL     OW38812   8.343   2.446   7.901
78972SOL    HW138813   8.344   2.351   7.915
78972SOL    HW238814   8.319   2.457   7.809
78973SOL     OW38815  11.888  13.847   7.129
78973SOL    HW138816  11.972  13.885   7.156
78973SOL    HW238817  11.897  13.834   7.035
78974SOL     OW38818  13.017  12.967  14.020
78974SOL    HW138819  13.086  13.014  13.973
78974SOL    HW238820  13.042  12.875  14.012
78975SOL     OW38821   7.152   4.154   9.815
78975SOL    HW138822   7.136   4.105   9.896
78975SOL    HW238823   7.176   4.242   9.845
78976SOL     OW38824   1.594  10.073   6.109
78976SOL    HW138825   1.601  10.165   6.133
78976SOL    HW238826   1.669  10.031   6.151
78977SOL     OW38827   6.745   0.196   1.145
78977SOL    HW138828   6.707   0.127   1.091
78977SOL    HW238829   6.681   0.267   1.143
78978SOL     OW38830  12.999   6.675   8.179
78978SOL    HW138831  13.039   6.592   8.206
78978SOL    HW238832  13.068   6.720   8.130
78979SOL     OW38833  11.616   2.221   5.461
78979SOL    HW138834  11.570   2.203   5.379
78979SOL    HW238835  11.554   2.272   5.513
78980SOL     OW38836  10.560   5.926  13.578
78980SOL    HW138837  10.470   5.894  13.575
78980SOL    HW238838  10.586   5.916  13.670
78981SOL     OW38839   3.764  11.367   1.772
78981SOL    HW138840   3.826  11.361   1.699
78981SOL    HW238841   3.816  11.400   1.845
78982SOL     OW38842   8.164   0.513   2.431
78982SOL    HW138843   8.116   0.534   2.351
78982SOL    HW238844   8.166   0.417   2.433
78983SOL     OW38845   0.585   7.237   5.078
78983SOL    HW138846   0.638   7.185   5.139
78983SOL    HW238847   0.515   7.178   5.051
78984SOL     OW38848  14.252   9.170  11.038
78984SOL    HW138849  14.202   9.146  11.117
78984SOL    HW238850  14.281   9.260  11.055
78985SOL     OW38851   6.826   7.614  14.736
78985SOL    HW138852   6.919   7.633  14.729
78985SOL    HW238853   6.794   7.612  14.646
78986SOL     OW38854   9.085   6.575   4.388
78986SOL    HW138855   9.118   6.531   4.466
78986SOL    HW238856   9.162   6.581   4.330
78987SOL     OW38857  12.167   8.160  11.767
78987SOL    HW138858  12.239   8.215  11.735
78987SOL    HW238859  12.175   8.163  11.862
78988SOL     OW38860   0.395   0.416   7.247
78988SOL    HW138861   0.309   0.423   7.207
78988SOL    HW238862   0.416   0.506   7.275
78989SOL     OW38863   6.715   0.570  11.396
78989SOL    HW138864   6.805   0.543  11.376
78989SOL    HW238865   6.700   0.646  11.340
78990SOL     OW38866  12.971   3.307   5.207
78990SOL    HW138867  12.969   3.231   5.265
78990SOL    HW238868  12.932   3.276   5.125
78991SOL     OW38869   7.964   0.102   9.463
78991SOL    HW138870   7.974   0.010   9.439
78991SOL    HW238871   8.010   0.150   9.394
78992SOL     OW38872   9.444   5.773  11.878
78992SOL    HW138873   9.445   5.688  11.833
78992SOL    HW238874   9.520   5.771  11.936
78993SOL     OW38875   7.332   7.186   3.671
78993SOL    HW138876   7.269   7.232   3.726
78993SOL    HW238877   7.290   7.181   3.585
78994SOL     OW38878   8.933   8.612   2.006
78994SOL    HW138879   8.951   8.542   1.943
78994SOL    HW238880   8.867   8.666   1.963
78995SOL     OW38881   3.582   4.440  13.841
78995SOL    HW138882   3.645   4.507  13.812
78995SOL    HW238883   3.635   4.374  13.885
78996SOL     OW38884   4.756   6.012   8.468
78996SOL    HW138885   4.819   6.012   8.396
78996SOL    HW238886   4.804   6.050   8.541
78997SOL     OW38887   3.892  10.106   6.598
78997SOL    HW138888   3.881  10.153   6.680
78997SOL    HW238889   3.977  10.135   6.565
78998SOL     OW38890   8.480  11.920   1.827
78998SOL    HW138891   8.390  11.946   1.844
78998SOL    HW238892   8.501  11.960   1.742
78999SOL     OW38893   7.338   0.803   8.945
78999SOL    HW138894   7.322   0.711   8.963
78999SOL    HW238895   7.408   0.804   8.879
79000SOL     OW38896   7.202   8.902  10.695
79000SOL    HW138897   7.269   8.970  10.706
79000SOL    HW238898   7.126   8.949  10.662
79001SOL     OW38899   3.309  12.249   5.060
79001SOL    HW138900   3.388  12.196   5.073
79001SOL    HW238901   3.247  12.213   5.123
79002SOL     OW38902   8.387   8.790  13.832
79002SOL    HW138903   8.457   8.782  13.767
79002SOL    HW238904   8.361   8.700  13.851
79003SOL     OW38905   2.108   7.423   5.464
79003SOL    HW138906   2.096   7.361   5.535
79003SOL    HW238907   2.020   7.442   5.432
79004SOL     OW38908  14.560   5.479  10.010
79004SOL    HW138909  14.623   5.407  10.001
79004SOL    HW238910  14.571   5.508  10.101
79005SOL     OW38911   7.979   1.711  13.823
79005SOL    HW138912   7.939   1.797  13.813
79005SOL    HW238913   7.950   1.682  13.910
79006SOL     OW38914   1.914   0.845   2.698
79006SOL    HW138915   1.955   0.867   2.614
79006SOL    HW238916   1.857   0.920   2.717
79007SOL     OW38917   2.412   9.646   5.177
79007SOL    HW138918   2.367   9.603   5.104
79007SOL    HW238919   2.502   9.614   5.172
79008SOL     OW38920   6.629   3.423   5.110
79008SOL    HW138921   6.572   3.353   5.141
79008SOL    HW238922   6.573   3.501   5.110
79009SOL     OW38923   4.939   4.726   5.803
79009SOL    HW138924   5.005   4.732   5.872
79009SOL    HW238925   4.919   4.817   5.780
79010SOL     OW38926  13.438  13.874   3.748
79010SOL    HW138927  13.506  13.815   3.715
79010SOL    HW238928  13.364  13.817   3.766
79011SOL     OW38929   4.719   9.005  14.429
79011SOL    HW138930   4.701   8.915  14.402
79011SOL    HW238931   4.740   9.051  14.348
79012SOL     OW38932   9.952  11.222   0.111
79012SOL    HW138933   9.900  11.299   0.088
79012SOL    HW238934   9.959  11.172   0.030
79013SOL     OW38935   2.945   5.622   8.492
79013SOL    HW138936   3.021   5.638   8.548
79013SOL    HW238937   2.901   5.547   8.531
79014SOL     OW38938  14.704  11.460   8.379
79014SOL    HW138939  14.626  11.454   8.324
79014SOL    HW238940  14.694  11.542   8.427
79015SOL     OW38941   1.697   3.361  14.030
79015SOL    HW138942   1.675   3.447  14.064
79015SOL    HW238943   1.720   3.376  13.938
79016SOL     OW38944  13.451   0.910   4.362
79016SOL    HW138945  13.426   0.844   4.427
79016SOL    HW238946  13.543   0.930   4.382
79017SOL     OW38947  10.322   3.445  10.494
79017SOL    HW138948  10.314   3.516  10.558
79017SOL    HW238949  10.379   3.381  10.535
79018SOL     OW38950   7.054   4.627   7.324
79018SOL    HW138951   7.052   4.685   7.248
79018SOL    HW238952   7.129   4.569   7.308
79019SOL     OW38953   5.094   9.862  13.400
79019SOL    HW138954   5.157   9.809  13.351
79019SOL    HW238955   5.073   9.934  13.340
79020SOL     OW38956   2.845   7.541   6.577
79020SOL    HW138957   2.757   7.579   6.579
79020SOL    HW238958   2.830   7.447   6.587
79021SOL     OW38959   3.520  13.055   0.041
79021SOL    HW138960   3.517  13.045  14.825
79021SOL    HW238961   3.436  13.021   0.071
79022SOL     OW38962   9.298  10.242  11.661
79022SOL    HW138963   9.383  10.280  11.640
79022SOL    HW238964   9.236  10.291  11.608
79023SOL     OW38965   4.893   7.064   3.772
79023SOL    HW138966   4.829   7.024   3.713
79023SOL    HW238967   4.899   7.155   3.743
79024SOL     OW38968   2.451  12.714   8.459
79024SOL    HW138969   2.546  12.720   8.467
79024SOL    HW238970   2.418  12.789   8.509
79025SOL     OW38971   4.141   3.366  12.685
79025SOL    HW138972   4.111   3.365  12.595
79025SOL    HW238973   4.152   3.460  12.705
79026SOL     OW38974  14.318   7.604   3.269
79026SOL    HW138975  14.406   7.638   3.254
79026SOL    HW238976  14.296   7.635   3.357
79027SOL     OW38977   3.343  12.504  12.197
79027SOL    HW138978   3.253  12.501  12.231
79027SOL    HW238979   3.386  12.573  12.247
79028SOL     OW38980   0.800  14.177  10.667
79028SOL    HW138981   0.764  14.103  10.717
79028SOL    HW238982   0.886  14.192  10.706
79029SOL     OW38983   7.756   4.848   6.863
79029SOL    HW138984   7.851   4.858   6.863
79029SOL    HW238985   7.723   4.937   6.851
79030SOL     OW38986   2.336  10.214  13.643
79030SOL    HW138987   2.361  10.124  13.663
79030SOL    HW238988   2.416  10.254  13.609
79031SOL     OW38989   3.334   2.542  13.201
79031SOL    HW138990   3.368   2.631  13.212
79031SOL    HW238991   3.381   2.507  13.126
79032SOL     OW38992   3.156   8.325  13.135
79032SOL    HW138993   3.068   8.302  13.105
79032SOL    HW238994   3.150   8.328  13.230
79033SOL     OW38995   8.301  12.494  13.441
79033SOL    HW138996   8.220  12.450  13.467
79033SOL    HW238997   8.346  12.430  13.386
79034SOL     OW38998   3.566   3.248  13.456
79034SOL    HW138999   3.499   3.186  13.484
79034SOL    HW239000   3.571   3.312  13.528
79035SOL     OW39001   5.255   8.554   5.084
79035SOL    HW139002   5.228   8.466   5.108
79035SOL    HW239003   5.278   8.596   5.168
79036SOL     OW39004   1.116   7.400   3.942
79036SOL    HW139005   1.069   7.317   3.953
79036SOL    HW239006   1.201   7.373   3.906
79037SOL     OW39007   1.571  14.229   1.392
79037SOL    HW139008   1.506  14.299   1.396
79037SOL    HW239009   1.653  14.271   1.418
79038SOL     OW39010   0.313  11.012   6.103
79038SOL    HW139011   0.386  11.070   6.122
79038SOL    HW239012   0.282  10.982   6.188
79039SOL     OW39013   5.058  12.622   9.174
79039SOL    HW139014   5.104  12.553   9.223
79039SOL    HW239015   5.126  12.660   9.118
79040SOL     OW39016   7.881  14.440   4.622
79040SOL    HW139017   7.898  14.529   4.652
79040SOL    HW239018   7.883  14.446   4.527
79041SOL     OW39019   5.022   7.759   2.892
79041SOL    HW139020   4.943   7.802   2.925
79041SOL    HW239021   5.062   7.720   2.970
79042SOL     OW39022  12.383   7.218   3.623
79042SOL    HW139023  12.302   7.169   3.611
79042SOL    HW239024  12.358   7.309   3.611
79043SOL     OW39025   9.128  11.377  10.822
79043SOL    HW139026   9.182  11.303  10.794
79043SOL    HW239027   9.190  11.443  10.852
79044SOL     OW39028  14.437  14.706  14.839
79044SOL    HW139029  14.501  14.726   0.028
79044SOL    HW239030  14.430  14.786  14.788
79045SOL     OW39031  11.638   0.594  10.152
79045SOL    HW139032  11.649   0.606  10.246
79045SOL    HW239033  11.564   0.533  10.145
79046SOL     OW39034  10.017   0.530   0.213
79046SOL    HW139035   9.961   0.471   0.264
79046SOL    HW239036  10.013   0.495   0.124
79047SOL     OW39037   1.256   6.198  14.692
79047SOL    HW139038   1.162   6.188  14.673
79047SOL    HW239039   1.277   6.287  14.664
79048SOL     OW39040  14.272   3.048   9.026
79048SOL    HW139041  14.230   2.990   9.090
79048SOL    HW239042  14.309   2.988   8.962
79049SOL     OW39043  12.723   7.412   3.369
79049SOL    HW139044  12.812   7.428   3.339
79049SOL    HW239045  12.671   7.404   3.288
79050SOL     OW39046   5.966  10.003   9.249
79050SOL    HW139047   5.989   9.972   9.161
79050SOL    HW239048   6.043  10.053   9.277
79051SOL     OW39049   4.994   4.100   8.243
79051SOL    HW139050   4.921   4.151   8.209
79051SOL    HW239051   4.980   4.098   8.338
79052SOL     OW39052   7.656  12.537   5.083
79052SOL    HW139053   7.634  12.619   5.038
79052SOL    HW239054   7.620  12.548   5.172
79053SOL     OW39055   7.488  10.961  11.025
79053SOL    HW139056   7.532  10.974  10.941
79053SOL    HW239057   7.397  10.983  11.009
79054SOL     OW39058   7.689   4.858   8.115
79054SOL    HW139059   7.633   4.929   8.082
79054SOL    HW239060   7.777   4.883   8.088
79055SOL     OW39061   7.791   9.951   8.683
79055SOL    HW139062   7.772   9.862   8.714
79055SOL    HW239063   7.861   9.940   8.619
79056SOL     OW39064   5.849   1.185   9.462
79056SOL    HW139065   5.830   1.250   9.530
79056SOL    HW239066   5.825   1.229   9.380
79057SOL     OW39067  12.856   2.342   7.860
79057SOL    HW139068  12.845   2.359   7.766
79057SOL    HW239069  12.928   2.399   7.886
79058SOL     OW39070  11.464   7.526   9.462
79058SOL    HW139071  11.522   7.565   9.527
79058SOL    HW239072  11.383   7.508   9.509
79059SOL     OW39073   1.609  13.354   5.119
79059SOL    HW139074   1.677  13.373   5.054
79059SOL    HW239075   1.539  13.311   5.069
79060SOL     OW39076   9.924   0.472  13.800
79060SOL    HW139077   9.878   0.553  13.822
79060SOL    HW239078   9.963   0.491  13.714
79061SOL     OW39079   9.721  10.549   7.046
79061SOL    HW139080   9.801  10.570   7.094
79061SOL    HW239081   9.726  10.605   6.968
79062SOL     OW39082   3.644  10.203   3.460
79062SOL    HW139083   3.735  10.184   3.437
79062SOL    HW239084   3.648  10.234   3.550
79063SOL     OW39085   5.364  13.394  11.212
79063SOL    HW139086   5.282  13.434  11.184
79063SOL    HW239087   5.432  13.450  11.174
79064SOL     OW39088   9.990   9.516   4.047
79064SOL    HW139089   9.918   9.549   3.993
79064SOL    HW239090   9.951   9.446   4.099
79065SOL     OW39091  10.152   8.069   9.079
79065SOL    HW139092  10.086   8.136   9.063
79065SOL    HW239093  10.176   8.037   8.992
79066SOL     OW39094  12.548   1.499  12.871
79066SOL    HW139095  12.463   1.493  12.827
79066SOL    HW239096  12.586   1.581  12.840
79067SOL     OW39097  12.200   7.193  12.487
79067SOL    HW139098  12.143   7.226  12.417
79067SOL    HW239099  12.283   7.173  12.444
79068SOL     OW39100   3.962   1.176   4.972
79068SOL    HW139101   3.949   1.081   4.974
79068SOL    HW239102   4.027   1.193   5.040
79069SOL     OW39103  14.739   8.138  11.760
79069SOL    HW139104  14.834   8.141  11.772
79069SOL    HW239105  14.715   8.227  11.734
79070SOL     OW39106   2.968  14.257   1.665
79070SOL    HW139107   2.879  14.284   1.643
79070SOL    HW239108   2.984  14.180   1.610
79071SOL     OW39109   0.784   4.121   7.800
79071SOL    HW139110   0.760   4.200   7.751
79071SOL    HW239111   0.706   4.100   7.852
79072SOL     OW39112   4.988  13.778   8.074
79072SOL    HW139113   4.900  13.740   8.073
79072SOL    HW239114   5.042  13.714   8.029
79073SOL     OW39115  10.391   9.691   9.664
79073SOL    HW139116  10.377   9.704   9.570
79073SOL    HW239117  10.349   9.607   9.683
79074SOL     OW39118   5.072   0.813   4.489
79074SOL    HW139119   5.156   0.789   4.449
79074SOL    HW239120   5.032   0.730   4.512
79075SOL     OW39121   9.102   1.502   2.291
79075SOL    HW139122   9.158   1.544   2.227
79075SOL    HW239123   9.015   1.501   2.251
79076SOL     OW39124   7.009  11.019   7.978
79076SOL    HW139125   6.928  11.060   7.947
79076SOL    HW239126   6.996  11.008   8.073
79077SOL     OW39127   3.819   7.184   2.391
79077SOL    HW139128   3.882   7.137   2.337
79077SOL    HW239129   3.735   7.142   2.372
79078SOL     OW39130   7.652   4.780   2.232
79078SOL    HW139131   7.665   4.688   2.253
79078SOL    HW239132   7.702   4.795   2.153
79079SOL     OW39133   8.035  14.810  13.737
79079SOL    HW139134   7.970  14.743  13.758
79079SOL    HW239135   8.053  14.852  13.821
79080SOL     OW39136   6.658   5.802  13.902
79080SOL    HW139137   6.643   5.872  13.965
79080SOL    HW239138   6.589   5.814  13.837
79081SOL     OW39139  12.658   3.188   9.742
79081SOL    HW139140  12.614   3.191   9.657
79081SOL    HW239141  12.718   3.114   9.735
79082SOL     OW39142   1.391   2.459  11.968
79082SOL    HW139143   1.435   2.399  11.909
79082SOL    HW239144   1.457   2.481  12.034
79083SOL     OW39145   5.387   7.964   9.548
79083SOL    HW139146   5.407   7.890   9.605
79083SOL    HW239147   5.400   8.041   9.603
79084SOL     OW39148   8.415   2.880   4.174
79084SOL    HW139149   8.419   2.886   4.269
79084SOL    HW239150   8.491   2.828   4.149
79085SOL     OW39151   7.404   5.504   5.312
79085SOL    HW139152   7.374   5.501   5.221
79085SOL    HW239153   7.323   5.515   5.362
79086SOL     OW39154   6.571   7.929  14.643
79086SOL    HW139155   6.518   7.996  14.687
79086SOL    HW239156   6.659   7.941  14.679
79087SOL     OW39157   2.719   2.915  13.861
79087SOL    HW139158   2.667   2.995  13.852
79087SOL    HW239159   2.787   2.923  13.793
79088SOL     OW39160   6.112  14.802   5.529
79088SOL    HW139161   6.165  14.842   5.597
79088SOL    HW239162   6.168  14.736   5.490
79089SOL     OW39163   3.598   9.191   2.758
79089SOL    HW139164   3.609   9.165   2.849
79089SOL    HW239165   3.636   9.119   2.708
79090SOL     OW39166   6.432  14.458  12.620
79090SOL    HW139167   6.411  14.453  12.714
79090SOL    HW239168   6.527  14.470  12.617
79091SOL     OW39169   0.879   2.389   6.106
79091SOL    HW139170   0.790   2.361   6.131
79091SOL    HW239171   0.888   2.477   6.143
79092SOL     OW39172   6.053   2.005   6.277
79092SOL    HW139173   6.148   2.005   6.289
79092SOL    HW239174   6.022   2.072   6.337
79093SOL     OW39175  11.928   5.324   3.095
79093SOL    HW139176  11.939   5.410   3.135
79093SOL    HW239177  11.920   5.342   3.001
79094SOL     OW39178   4.440   3.689   0.815
79094SOL    HW139179   4.495   3.738   0.877
79094SOL    HW239180   4.502   3.649   0.754
79095SOL     OW39181  13.373   0.041  12.611
79095SOL    HW139182  13.422   0.061  12.530
79095SOL    HW239183  13.288   0.010  12.580
79096SOL     OW39184  12.275   2.119   0.364
79096SOL    HW139185  12.262   2.166   0.281
79096SOL    HW239186  12.233   2.034   0.350
79097SOL     OW39187   5.490  14.875   1.886
79097SOL    HW139188   5.505   0.073   1.939
79097SOL    HW239189   5.577  14.844   1.862
79098SOL     OW39190  14.793  12.754  13.862
79098SOL    HW139191  14.785  12.849  13.874
79098SOL    HW239192  14.748  12.736  13.780
79099SOL     OW39193   8.814   2.230   3.068
79099SOL    HW139194   8.870   2.219   2.990
79099SOL    HW239195   8.866   2.195   3.140
79100SOL     OW39196   0.577  11.165   1.106
79100SOL    HW139197   0.657  11.120   1.079
79100SOL    HW239198   0.506  11.105   1.084
79101SOL     OW39199   3.176   9.147   8.744
79101SOL    HW139200   3.150   9.122   8.833
79101SOL    HW239201   3.264   9.111   8.733
79102SOL     OW39202   5.850   6.325   5.527
79102SOL    HW139203   5.834   6.382   5.602
79102SOL    HW239204   5.899   6.251   5.563
79103SOL     OW39205   3.556  10.886  10.648
79103SOL    HW139206   3.500  10.888  10.725
79103SOL    HW239207   3.606  10.805  10.657
79104SOL     OW39208  12.537   4.785   5.176
79104SOL    HW139209  12.518   4.737   5.095
79104SOL    HW239210  12.573   4.869   5.147
79105SOL     OW39211   9.360  13.505   8.228
79105SOL    HW139212   9.300  13.454   8.284
79105SOL    HW239213   9.338  13.596   8.246
79106SOL     OW39214   1.876  10.283   7.422
79106SOL    HW139215   1.889  10.188   7.428
79106SOL    HW239216   1.924  10.318   7.497
79107SOL     OW39217   3.515   8.069   1.644
79107SOL    HW139218   3.601   8.057   1.604
79107SOL    HW239219   3.533   8.113   1.727
79108SOL     OW39220   7.753  13.213   3.330
79108SOL    HW139221   7.803  13.223   3.249
79108SOL    HW239222   7.815  13.176   3.393
79109SOL     OW39223   0.022   0.152   3.695
79109SOL    HW139224  14.870   0.105   3.618
79109SOL    HW239225   0.050   0.237   3.661
79110SOL     OW39226  12.871  13.450   7.213
79110SOL    HW139227  12.892  13.359   7.235
79110SOL    HW239228  12.882  13.498   7.296
79111SOL     OW39229  13.550  14.525  14.569
79111SOL    HW139230  13.585  14.442  14.536
79111SOL    HW239231  13.468  14.501  14.612
79112SOL     OW39232   3.897   4.408  12.913
79112SOL    HW139233   3.870   4.316  12.920
79112SOL    HW239234   3.843   4.442  12.842
79113SOL     OW39235   0.265   4.369   6.524
79113SOL    HW139236   0.297   4.336   6.440
79113SOL    HW239237   0.327   4.337   6.588
79114SOL     OW39238   8.659   3.505   5.128
79114SOL    HW139239   8.604   3.427   5.139
79114SOL    HW239240   8.657   3.549   5.213
79115SOL     OW39241   1.089  14.043   5.491
79115SOL    HW139242   1.085  14.135   5.463
79115SOL    HW239243   1.179  14.017   5.474
79116SOL     OW39244  13.657  11.048   2.444
79116SOL    HW139245  13.675  10.955   2.456
79116SOL    HW239246  13.742  11.086   2.422
79117SOL     OW39247  14.302   6.708   2.632
79117SOL    HW139248  14.280   6.783   2.576
79117SOL    HW239249  14.218   6.684   2.673
79118SOL     OW39250  13.923  14.017   6.272
79118SOL    HW139251  13.876  13.933   6.264
79118SOL    HW239252  14.011  13.998   6.237
79119SOL     OW39253  14.183   8.119   5.213
79119SOL    HW139254  14.205   8.066   5.137
79119SOL    HW239255  14.088   8.131   5.208
79120SOL     OW39256   5.496   0.633  13.946
79120SOL    HW139257   5.450   0.679  14.017
79120SOL    HW239258   5.465   0.543  13.952
79121SOL     OW39259   7.168   8.765   4.530
79121SOL    HW139260   7.244   8.708   4.515
79121SOL    HW239261   7.106   8.710   4.577
79122SOL     OW39262  10.049   5.015   2.819
79122SOL    HW139263  10.025   4.965   2.897
79122SOL    HW239264  10.106   5.085   2.851
79123SOL     OW39265   7.885  13.270   3.962
79123SOL    HW139266   7.798  13.295   3.930
79123SOL    HW239267   7.880  13.280   4.057
79124SOL     OW39268   5.561   2.302  13.457
79124SOL    HW139269   5.629   2.329  13.520
79124SOL    HW239270   5.541   2.211  13.481
79125SOL     OW39271  12.750   9.194  13.433
79125SOL    HW139272  12.711   9.267  13.481
79125SOL    HW239273  12.720   9.116  13.479
79126SOL     OW39274   8.291  14.069  14.589
79126SOL    HW139275   8.351  14.142  14.572
79126SOL    HW239276   8.215  14.087  14.534
79127SOL     OW39277  11.571   7.814   6.655
79127SOL    HW139278  11.513   7.779   6.587
79127SOL    HW239279  11.653   7.833   6.609
79128SOL     OW39280   6.574  10.749  11.452
79128SOL    HW139281   6.636  10.810  11.410
79128SOL    HW239282   6.544  10.693  11.380
79129SOL     OW39283   0.206  14.618  13.358
79129SOL    HW139284   0.150  14.689  13.391
79129SOL    HW239285   0.295  14.648  13.376
79130SOL     OW39286   9.271   2.975   2.495
79130SOL    HW139287   9.239   2.951   2.407
79130SOL    HW239288   9.358   2.936   2.500
79131SOL     OW39289   2.384   8.177   4.256
79131SOL    HW139290   2.305   8.205   4.303
79131SOL    HW239291   2.376   8.082   4.250
79132SOL     OW39292  11.680   9.877   5.647
79132SOL    HW139293  11.674   9.938   5.573
79132SOL    HW239294  11.704   9.932   5.721
79133SOL     OW39295  14.499   6.956   9.973
79133SOL    HW139296  14.510   7.009  10.053
79133SOL    HW239297  14.429   6.895   9.994
79134SOL     OW39298   1.501   1.695   2.130
79134SOL    HW139299   1.450   1.639   2.072
79134SOL    HW239300   1.525   1.770   2.076
79135SOL     OW39301   9.920   5.587  14.287
79135SOL    HW139302   9.919   5.536  14.206
79135SOL    HW239303   9.981   5.658  14.270
79136SOL     OW39304   5.746  13.153   6.179
79136SOL    HW139305   5.654  13.174   6.193
79136SOL    HW239306   5.793  13.228   6.215
79137SOL     OW39307   9.895   5.191   4.785
79137SOL    HW139308   9.931   5.106   4.810
79137SOL    HW239309   9.971   5.250   4.784
79138SOL     OW39310   5.381  13.269   1.349
79138SOL    HW139311   5.467  13.243   1.315
79138SOL    HW239312   5.400  13.301   1.438
79139SOL     OW39313   1.724   9.262   9.887
79139SOL    HW139314   1.740   9.181   9.838
79139SOL    HW239315   1.739   9.239   9.978
79140SOL     OW39316   3.433  10.604   5.379
79140SOL    HW139317   3.352  10.552   5.376
79140SOL    HW239318   3.486  10.569   5.308
79141SOL     OW39319  11.122   4.859  10.801
79141SOL    HW139320  11.209   4.820  10.789
79141SOL    HW239321  11.092   4.878  10.712
79142SOL     OW39322  13.806  13.092  12.792
79142SOL    HW139323  13.754  13.031  12.740
79142SOL    HW239324  13.753  13.172  12.793
79143SOL     OW39325  13.223   8.999  14.288
79143SOL    HW139326  13.291   8.981  14.353
79143SOL    HW239327  13.150   9.037  14.338
79144SOL     OW39328  11.585  14.830   9.682
79144SOL    HW139329  11.558   0.032   9.640
79144SOL    HW239330  11.516  14.813   9.747
79145SOL     OW39331   2.522   1.201   0.209
79145SOL    HW139332   2.575   1.153   0.145
79145SOL    HW239333   2.564   1.181   0.293
79146SOL     OW39334   8.185  12.616  11.378
79146SOL    HW139335   8.261  12.673  11.366
79146SOL    HW239336   8.133  12.628  11.298
79147SOL     OW39337   8.647   2.976   9.408
79147SOL    HW139338   8.695   2.904   9.367
79147SOL    HW239339   8.621   2.942   9.493
79148SOL     OW39340   0.419  14.711   9.730
79148SOL    HW139341   0.512  14.727   9.748
79148SOL    HW239342   0.405  14.751   9.644
79149SOL     OW39343   8.419   8.891  13.378
79149SOL    HW139344   8.328   8.917  13.395
79149SOL    HW239345   8.440   8.930  13.294
79150SOL     OW39346  13.917   3.605   0.729
79150SOL    HW139347  13.914   3.701   0.732
79150SOL    HW239348  13.883   3.577   0.814
79151SOL     OW39349  14.269   8.105  12.636
79151SOL    HW139350  14.246   8.021  12.596
79151SOL    HW239351  14.248   8.094  12.729
79152SOL     OW39352  10.973   3.225  13.629
79152SOL    HW139353  10.923   3.249  13.551
79152SOL    HW239354  10.936   3.142  13.658
79153SOL     OW39355  13.813  10.094   9.372
79153SOL    HW139356  13.805  10.115   9.465
79153SOL    HW239357  13.849  10.006   9.370
79154SOL     OW39358  10.560   7.158   5.897
79154SOL    HW139359  10.642   7.140   5.850
79154SOL    HW239360  10.577   7.240   5.944
79155SOL     OW39361   0.705   0.547  14.471
79155SOL    HW139362   0.728   0.637  14.446
79155SOL    HW239363   0.716   0.546  14.566
79156SOL     OW39364  13.073  12.084   8.761
79156SOL    HW139365  13.015  12.104   8.835
79156SOL    HW239366  13.067  12.160   8.704
79157SOL     OW39367   1.898   3.753   5.436
79157SOL    HW139368   1.809   3.747   5.401
79157SOL    HW239369   1.889   3.729   5.528
79158SOL     OW39370  14.839   5.422   8.515
79158SOL    HW139371  14.769   5.462   8.463
79158SOL    HW239372  14.857   5.486   8.584
79159SOL     OW39373   2.669  13.538   3.523
79159SOL    HW139374   2.609  13.589   3.578
79159SOL    HW239375   2.691  13.598   3.451
79160SOL     OW39376  12.861  12.338   6.860
79160SOL    HW139377  12.826  12.421   6.893
79160SOL    HW239378  12.840  12.274   6.928
79161SOL     OW39379   1.005   2.161   7.312
79161SOL    HW139380   0.909   2.162   7.303
79161SOL    HW239381   1.036   2.206   7.233
79162SOL     OW39382  12.847  13.049   6.072
79162SOL    HW139383  12.898  13.092   6.140
79162SOL    HW239384  12.802  13.121   6.026
79163SOL     OW39385   5.008   3.340  10.614
79163SOL    HW139386   5.034   3.257  10.575
79163SOL    HW239387   5.034   3.332  10.706
79164SOL     OW39388  10.942   3.840  14.274
79164SOL    HW139389  10.878   3.907  14.249
79164SOL    HW239390  11.013   3.888  14.316
79165SOL     OW39391   7.773   8.981  10.913
79165SOL    HW139392   7.752   9.069  10.946
79165SOL    HW239393   7.808   8.996  10.825
79166SOL     OW39394   2.555   2.746   1.398
79166SOL    HW139395   2.611   2.714   1.327
79166SOL    HW239396   2.475   2.773   1.354
79167SOL     OW39397   9.858   2.296   9.121
79167SOL    HW139398   9.808   2.222   9.156
79167SOL    HW239399   9.926   2.313   9.187
79168SOL     OW39400   1.439   1.898   9.551
79168SOL    HW139401   1.364   1.847   9.581
79168SOL    HW239402   1.509   1.877   9.613
79169SOL     OW39403   8.521  13.608  10.284
79169SOL    HW139404   8.511  13.693  10.327
79169SOL    HW239405   8.484  13.622  10.196
79170SOL     OW39406  10.725  11.639  14.198
79170SOL    HW139407  10.723  11.544  14.185
79170SOL    HW239408  10.660  11.673  14.136
79171SOL     OW39409   0.611   3.551   6.273
79171SOL    HW139410   0.559   3.587   6.201
79171SOL    HW239411   0.554   3.486   6.314
79172SOL     OW39412   8.272  11.373   4.421
79172SOL    HW139413   8.328  11.325   4.483
79172SOL    HW239414   8.261  11.459   4.460
79173SOL     OW39415  11.645  13.126   2.131
79173SOL    HW139416  11.598  13.052   2.170
79173SOL    HW239417  11.591  13.151   2.055
79174SOL     OW39418   1.943   5.841  13.221
79174SOL    HW139419   1.953   5.857  13.314
79174SOL    HW239420   1.876   5.903  13.193
79175SOL     OW39421   0.222   8.385  11.305
79175SOL    HW139422   0.231   8.419  11.216
79175SOL    HW239423   0.307   8.345  11.324
79176SOL     OW39424  13.816   3.325   3.269
79176SOL    HW139425  13.732   3.282   3.254
79176SOL    HW239426  13.871   3.257   3.309
79177SOL     OW39427   9.712   8.881   7.807
79177SOL    HW139428   9.758   8.824   7.745
79177SOL    HW239429   9.634   8.831   7.832
79178SOL     OW39430   8.689   3.602  11.055
79178SOL    HW139431   8.699   3.507  11.049
79178SOL    HW239432   8.610   3.621  11.005
79179SOL     OW39433   6.622   2.857   6.068
79179SOL    HW139434   6.693   2.836   6.008
79179SOL    HW239435   6.552   2.796   6.045
79180SOL     OW39436   0.674   6.223   5.384
79180SOL    HW139437   0.751   6.179   5.420
79180SOL    HW239438   0.655   6.174   5.304
79181SOL     OW39439   0.005   2.625   8.560
79181SOL    HW139440  14.861   2.547   8.511
79181SOL    HW239441  14.819   2.690   8.534
79182SOL     OW39442   0.070   8.593   7.208
79182SOL    HW139443   0.138   8.648   7.247
79182SOL    HW239444   0.024   8.555   7.283
79183SOL     OW39445  12.928   5.912  10.039
79183SOL    HW139446  12.844   5.912  10.087
79183SOL    HW239447  12.953   5.819  10.035
79184SOL     OW39448   8.138  13.981   9.526
79184SOL    HW139449   8.180  13.963   9.610
79184SOL    HW239450   8.209  14.012   9.470
79185SOL     OW39451   4.164   0.063  10.066
79185SOL    HW139452   4.167   0.122   9.990
79185SOL    HW239453   4.162   0.122  10.142
79186SOL     OW39454   5.273   9.842   8.120
79186SOL    HW139455   5.325   9.850   8.040
79186SOL    HW239456   5.232   9.927   8.131
79187SOL     OW39457  11.000  10.434   9.810
79187SOL    HW139458  11.007  10.395   9.722
79187SOL    HW239459  11.039  10.521   9.800
79188SOL     OW39460   1.372  13.614   9.144
79188SOL    HW139461   1.299  13.649   9.092
79188SOL    HW239462   1.386  13.526   9.109
79189SOL     OW39463  14.472  11.643   7.589
79189SOL    HW139464  14.476  11.658   7.683
79189SOL    HW239465  14.562  11.651   7.559
79190SOL     OW39466  10.390   9.988   5.287
79190SOL    HW139467  10.311  10.042   5.291
79190SOL    HW239468  10.458  10.042   5.328
79191SOL     OW39469  14.507   4.075   8.878
79191SOL    HW139470  14.469   4.011   8.939
79191SOL    HW239471  14.438   4.090   8.813
79192SOL     OW39472   0.275   8.056  14.797
79192SOL    HW139473   0.361   8.020  14.821
79192SOL    HW239474   0.295   8.142  14.762
79193SOL     OW39475  13.986   1.254   6.202
79193SOL    HW139476  13.978   1.294   6.115
79193SOL    HW239477  14.064   1.295   6.240
79194SOL     OW39478   8.436   1.795  12.874
79194SOL    HW139479   8.354   1.769  12.915
79194SOL    HW239480   8.435   1.891  12.876
79195SOL     OW39481   7.005   1.144   6.084
79195SOL    HW139482   6.942   1.145   6.156
79195SOL    HW239483   6.955   1.172   6.007
79196SOL     OW39484  11.072  13.302   6.081
79196SOL    HW139485  11.042  13.213   6.101
79196SOL    HW239486  10.994  13.356   6.092
79197SOL     OW39487   9.770   4.941  14.855
79197SOL    HW139488   9.678   4.924  14.838
79197SOL    HW239489   9.772   4.986   0.059
79198SOL     OW39490   5.186   8.872   5.382
79198SOL    HW139491   5.141   8.789   5.399
79198SOL    HW239492   5.246   8.851   5.310
79199SOL     OW39493   2.942   5.919   3.193
79199SOL    HW139494   3.033   5.923   3.220
79199SOL    HW239495   2.934   5.986   3.125
79200SOL     OW39496  10.991  10.312   2.004
79200SOL    HW139497  11.048  10.243   1.971
79200SOL    HW239498  10.929  10.327   1.934
79201SOL     OW39499  12.681   5.118   7.919
79201SOL    HW139500  12.652   5.084   7.834
79201SOL    HW239501  12.683   5.041   7.976
79202SOL     OW39502   6.727   7.196  11.095
79202SOL    HW139503   6.742   7.102  11.088
79202SOL    HW239504   6.711   7.211  11.188
79203SOL     OW39505  10.660   5.256   6.467
79203SOL    HW139506  10.615   5.225   6.545
79203SOL    HW239507  10.624   5.204   6.396
79204SOL     OW39508   8.606   1.873   6.251
79204SOL    HW139509   8.552   1.938   6.296
79204SOL    HW239510   8.683   1.863   6.307
79205SOL     OW39511  11.260  10.901   2.949
79205SOL    HW139512  11.295  10.939   2.869
79205SOL    HW239513  11.282  10.808   2.943
79206SOL     OW39514  11.247  12.768  11.724
79206SOL    HW139515  11.298  12.720  11.658
79206SOL    HW239516  11.267  12.725  11.807
79207SOL     OW39517   6.024  14.096   1.604
79207SOL    HW139518   6.001  14.005   1.625
79207SOL    HW239519   6.115  14.092   1.577
79208SOL     OW39520  14.530   7.580   9.843
79208SOL    HW139521  14.575   7.603   9.924
79208SOL    HW239522  14.441   7.556   9.872
79209SOL     OW39523   6.152   9.681   4.820
79209SOL    HW139524   6.142   9.638   4.735
79209SOL    HW239525   6.246   9.681   4.836
79210SOL     OW39526  13.983   1.720   3.598
79210SOL    HW139527  14.015   1.694   3.512
79210SOL    HW239528  13.897   1.758   3.582
79211SOL     OW39529   7.491   5.661   4.991
79211SOL    HW139530   7.533   5.665   4.905
79211SOL    HW239531   7.550   5.710   5.048
79212SOL     OW39532   2.366  13.121   5.050
79212SOL    HW139533   2.296  13.130   4.985
79212SOL    HW239534   2.374  13.027   5.064
79213SOL     OW39535  14.112   8.604   9.343
79213SOL    HW139536  14.161   8.683   9.363
79213SOL    HW239537  14.157   8.535   9.392
79214SOL     OW39538  11.491   8.780   8.975
79214SOL    HW139539  11.502   8.796   9.068
79214SOL    HW239540  11.578   8.755   8.944
79215SOL     OW39541   5.647   6.863   8.221
79215SOL    HW139542   5.594   6.835   8.296
79215SOL    HW239543   5.702   6.786   8.202
79216SOL     OW39544  14.797   1.609  11.177
79216SOL    HW139545  14.767   1.541  11.117
79216SOL    HW239546  14.718   1.661  11.196
79217SOL     OW39547   9.134   2.794   6.079
79217SOL    HW139548   9.214   2.846   6.084
79217SOL    HW239549   9.065   2.858   6.060
79218SOL     OW39550  11.158   6.662   1.438
79218SOL    HW139551  11.095   6.617   1.382
79218SOL    HW239552  11.220   6.703   1.377
79219SOL     OW39553   6.827   0.493   1.583
79219SOL    HW139554   6.738   0.528   1.580
79219SOL    HW239555   6.832   0.437   1.506
79220SOL     OW39556  10.843  12.549  14.838
79220SOL    HW139557  10.760  12.596  14.848
79220SOL    HW239558  10.817  12.461  14.810
79221SOL     OW39559   4.473  10.992   9.468
79221SOL    HW139560   4.379  11.005   9.456
79221SOL    HW239561   4.500  11.065   9.525
79222SOL     OW39562  11.831   8.210   4.493
79222SOL    HW139563  11.851   8.184   4.583
79222SOL    HW239564  11.758   8.153   4.468
79223SOL     OW39565   8.557   2.131   8.435
79223SOL    HW139566   8.512   2.204   8.477
79223SOL    HW239567   8.541   2.056   8.493
79224SOL     OW39568  11.818  12.600   7.642
79224SOL    HW139569  11.900  12.639   7.613
79224SOL    HW239570  11.750  12.657   7.604
79225SOL     OW39571   2.896   8.190   7.227
79225SOL    HW139572   2.931   8.260   7.282
79225SOL    HW239573   2.911   8.220   7.137
79226SOL     OW39574  12.452   5.808  11.717
79226SOL    HW139575  12.386   5.754  11.674
79226SOL    HW239576  12.447   5.892  11.672
79227SOL     OW39577   5.209  10.404  13.705
79227SOL    HW139578   5.223  10.333  13.641
79227SOL    HW239579   5.296  10.436  13.726
79228SOL     OW39580   0.501   0.501   4.917
79228SOL    HW139581   0.520   0.407   4.908
79228SOL    HW239582   0.477   0.511   5.009
79229SOL     OW39583   5.870  14.167  14.325
79229SOL    HW139584   5.949  14.126  14.289
79229SOL    HW239585   5.820  14.194  14.247
79230SOL     OW39586  13.266  12.638   7.064
79230SOL    HW139587  13.347  12.607   7.024
79230SOL    HW239588  13.291  12.719   7.109
79231SOL     OW39589   7.545   2.849   2.905
79231SOL    HW139590   7.557   2.942   2.886
79231SOL    HW239591   7.455   2.830   2.878
79232SOL     OW39592   2.230  11.851   8.523
79232SOL    HW139593   2.195  11.873   8.610
79232SOL    HW239594   2.244  11.757   8.526
79233SOL     OW39595   0.945  13.268   5.105
79233SOL    HW139596   0.915  13.313   5.185
79233SOL    HW239597   1.040  13.282   5.104
79234SOL     OW39598   2.194   5.819   5.377
79234SOL    HW139599   2.205   5.760   5.452
79234SOL    HW239600   2.235   5.773   5.304
79235SOL     OW39601   1.463   3.518   6.597
79235SOL    HW139602   1.481   3.441   6.651
79235SOL    HW239603   1.497   3.591   6.648
79236SOL     OW39604   2.363   2.308   6.648
79236SOL    HW139605   2.380   2.247   6.719
79236SOL    HW239606   2.372   2.395   6.688
79237SOL     OW39607   3.573   4.424   5.957
79237SOL    HW139608   3.613   4.410   5.872
79237SOL    HW239609   3.645   4.416   6.020
79238SOL     OW39610   7.706  10.278   0.902
79238SOL    HW139611   7.710  10.183   0.901
79238SOL    HW239612   7.704  10.302   0.995
79239SOL     OW39613   7.998   7.211  13.410
79239SOL    HW139614   7.978   7.250  13.496
79239SOL    HW239615   8.010   7.117  13.429
79240SOL     OW39616   6.638  11.598   4.691
79240SOL    HW139617   6.653  11.681   4.736
79240SOL    HW239618   6.723  11.554   4.692
79241SOL     OW39619  11.714   9.884   7.986
79241SOL    HW139620  11.778   9.813   7.994
79241SOL    HW239621  11.664   9.880   8.068
79242SOL     OW39622   8.247   3.074  11.295
79242SOL    HW139623   8.310   3.002  11.308
79242SOL    HW239624   8.297   3.141  11.248
79243SOL     OW39625   1.010   5.475   2.710
79243SOL    HW139626   0.940   5.494   2.772
79243SOL    HW239627   1.090   5.504   2.755
79244SOL     OW39628   7.607   3.143  10.768
79244SOL    HW139629   7.605   3.089  10.848
79244SOL    HW239630   7.584   3.231  10.798
79245SOL     OW39631   6.167   6.530  14.443
79245SOL    HW139632   6.096   6.556  14.501
79245SOL    HW239633   6.225   6.606  14.440
79246SOL     OW39634  13.791   8.632  12.864
79246SOL    HW139635  13.796   8.536  12.863
79246SOL    HW239636  13.745   8.652  12.946
79247SOL     OW39637   1.864  14.231   2.843
79247SOL    HW139638   1.838  14.285   2.917
79247SOL    HW239639   1.940  14.181   2.874
79248SOL     OW39640  14.789   1.958   3.381
79248SOL    HW139641   0.003   1.950   3.360
79248SOL    HW239642  14.753   2.010   3.309
79249SOL     OW39643   1.081  11.903  12.970
79249SOL    HW139644   1.165  11.880  12.933
79249SOL    HW239645   1.019  11.898  12.897
79250SOL     OW39646   7.808   1.772   8.373
79250SOL    HW139647   7.716   1.785   8.396
79250SOL    HW239648   7.818   1.817   8.289
79251SOL     OW39649  13.519   8.596  10.577
79251SOL    HW139650  13.566   8.612  10.495
79251SOL    HW239651  13.510   8.501  10.582
79252SOL     OW39652   1.119   7.604   0.509
79252SOL    HW139653   1.156   7.612   0.597
79252SOL    HW239654   1.039   7.656   0.511
79253SOL     OW39655   8.165  14.370   6.235
79253SOL    HW139656   8.130  14.281   6.235
79253SOL    HW239657   8.141  14.405   6.321
79254SOL     OW39658   3.339   2.636   5.098
79254SOL    HW139659   3.247   2.657   5.081
79254SOL    HW239660   3.350   2.547   5.063
79255SOL     OW39661   1.572   0.523  12.793
79255SOL    HW139662   1.642   0.484  12.740
79255SOL    HW239663   1.558   0.609  12.754
79256SOL     OW39664   9.422  12.561   1.974
79256SOL    HW139665   9.423  12.539   2.067
79256SOL    HW239666   9.372  12.643   1.970
79257SOL     OW39667   6.020  14.194  10.698
79257SOL    HW139668   5.948  14.148  10.655
79257SOL    HW239669   6.052  14.254  10.631
79258SOL     OW39670   7.885  13.378   2.469
79258SOL    HW139671   7.878  13.432   2.390
79258SOL    HW239672   7.814  13.408   2.525
79259SOL     OW39673   2.526  11.435   0.624
79259SOL    HW139674   2.431  11.446   0.633
79259SOL    HW239675   2.536  11.359   0.566
79260SOL     OW39676   8.459   4.387   3.487
79260SOL    HW139677   8.497   4.434   3.561
79260SOL    HW239678   8.487   4.437   3.410
79261SOL     OW39679   6.049   8.960   2.581
79261SOL    HW139680   6.112   8.933   2.514
79261SOL    HW239681   5.997   8.882   2.599
79262SOL     OW39682  14.844  12.377  14.875
79262SOL    HW139683  14.816  12.315  14.808
79262SOL    HW239684   0.035  12.333   0.041
79263SOL     OW39685  11.897   8.589  13.123
79263SOL    HW139686  11.957   8.546  13.062
79263SOL    HW239687  11.823   8.616  13.069
79264SOL     OW39688  10.013   1.176  12.841
79264SOL    HW139689  10.075   1.115  12.802
79264SOL    HW239690   9.931   1.127  12.848
79265SOL     OW39691   2.720   6.591   9.081
79265SOL    HW139692   2.630   6.563   9.066
79265SOL    HW239693   2.723   6.680   9.046
79266SOL     OW39694  10.087  13.283  13.228
79266SOL    HW139695  10.136  13.271  13.309
79266SOL    HW239696  10.082  13.196  13.189
79267SOL     OW39697  10.610   9.065   7.213
79267SOL    HW139698  10.586   8.987   7.162
79267SOL    HW239699  10.700   9.083   7.187
79268SOL     OW39700   3.443  11.645  12.733
79268SOL    HW139701   3.501  11.667  12.806
79268SOL    HW239702   3.501  11.635  12.658
79269SOL     OW39703   1.807   4.533   1.388
79269SOL    HW139704   1.855   4.609   1.423
79269SOL    HW239705   1.846   4.458   1.432
79270SOL     OW39706   4.296   4.401   1.080
79270SOL    HW139707   4.203   4.390   1.101
79270SOL    HW239708   4.299   4.400   0.984
79271SOL     OW39709   0.890   6.352  14.859
79271SOL    HW139710   0.885   6.259   0.001
79271SOL    HW239711   0.839   6.396   0.047
79272SOL     OW39712   0.009   1.012  11.977
79272SOL    HW139713   0.082   0.951  11.989
79272SOL    HW239714  14.833   0.996  12.053
79273SOL     OW39715   0.329   2.325   7.645
79273SOL    HW139716   0.335   2.351   7.553
79273SOL    HW239717   0.395   2.379   7.689
79274SOL     OW39718   2.246  14.137   1.663
79274SOL    HW139719   2.162  14.174   1.634
79274SOL    HW239720   2.285  14.101   1.583
79275SOL     OW39721   1.780   7.123  12.144
79275SOL    HW139722   1.712   7.114  12.210
79275SOL    HW239723   1.757   7.203  12.096
79276SOL     OW39724   1.811  10.358  11.672
79276SOL    HW139725   1.775  10.395  11.752
79276SOL    HW239726   1.746  10.377  11.605
79277SOL     OW39727  12.544  10.893  14.016
79277SOL    HW139728  12.556  10.975  14.064
79277SOL    HW239729  12.473  10.848  14.062
79278SOL     OW39730  11.444  13.743   0.192
79278SOL    HW139731  11.365  13.797   0.193
79278SOL    HW239732  11.414  13.657   0.163
79279SOL     OW39733   1.997  13.059   0.528
79279SOL    HW139734   2.029  12.973   0.556
79279SOL    HW239735   1.965  13.100   0.608
79280SOL     OW39736  14.021   8.846   4.970
79280SOL    HW139737  13.929   8.828   4.952
79280SOL    HW239738  14.055   8.766   5.009
79281SOL     OW39739   7.391   2.717   3.824
79281SOL    HW139740   7.472   2.668   3.811
79281SOL    HW239741   7.337   2.659   3.878
79282SOL     OW39742   6.964   6.553   6.001
79282SOL    HW139743   6.929   6.464   5.992
79282SOL    HW239744   7.014   6.551   6.082
79283SOL     OW39745  11.538   2.914  13.529
79283SOL    HW139746  11.484   2.836  13.539
79283SOL    HW239747  11.547   2.926  13.434
79284SOL     OW39748  10.773   2.094  12.252
79284SOL    HW139749  10.764   2.008  12.209
79284SOL    HW239750  10.719   2.152  12.198
79285SOL     OW39751  14.225   1.309   6.559
79285SOL    HW139752  14.243   1.385   6.614
79285SOL    HW239753  14.240   1.234   6.616
79286SOL     OW39754   8.649   5.075   1.452
79286SOL    HW139755   8.638   5.017   1.376
79286SOL    HW239756   8.674   5.159   1.414
79287SOL     OW39757   4.283  11.391  10.490
79287SOL    HW139758   4.338  11.350  10.557
79287SOL    HW239759   4.193  11.375  10.518
79288SOL     OW39760   6.638   3.393   4.499
79288SOL    HW139761   6.680   3.309   4.518
79288SOL    HW239762   6.584   3.375   4.422
79289SOL     OW39763  10.457   2.341   4.606
79289SOL    HW139764  10.441   2.345   4.511
79289SOL    HW239765  10.519   2.412   4.622
79290SOL     OW39766   3.772  14.125   1.958
79290SOL    HW139767   3.796  14.123   1.866
79290SOL    HW239768   3.688  14.078   1.962
79291SOL     OW39769  14.847   8.497  13.419
79291SOL    HW139770   0.016   8.579  13.417
79291SOL    HW239771   0.020   8.436  13.368
79292SOL     OW39772  10.024   8.113  13.453
79292SOL    HW139773   9.940   8.126  13.410
79292SOL    HW239774  10.059   8.201  13.464
79293SOL     OW39775   3.659   9.047   2.986
79293SOL    HW139776   3.754   9.033   2.988
79293SOL    HW239777   3.622   8.959   2.974
79294SOL     OW39778  13.520   6.341  12.067
79294SOL    HW139779  13.536   6.419  12.014
79294SOL    HW239780  13.480   6.279  12.006
79295SOL     OW39781   0.783   3.358   1.457
79295SOL    HW139782   0.800   3.269   1.489
79295SOL    HW239783   0.722   3.346   1.384
79296SOL     OW39784   5.192  12.170   0.120
79296SOL    HW139785   5.171  12.169   0.214
79296SOL    HW239786   5.136  12.239   0.084
79297SOL     OW39787   1.625  14.004   5.535
79297SOL    HW139788   1.663  14.089   5.558
79297SOL    HW239789   1.700  13.945   5.528
79298SOL     OW39790   2.508   9.026   6.372
79298SOL    HW139791   2.546   9.023   6.284
79298SOL    HW239792   2.580   9.053   6.428
79299SOL     OW39793   8.551   6.146  10.018
79299SOL    HW139794   8.614   6.080   9.989
79299SOL    HW239795   8.601   6.201  10.078
79300SOL     OW39796  12.507   0.990  10.250
79300SOL    HW139797  12.468   0.903  10.251
79300SOL    HW239798  12.449   1.042  10.194
79301SOL     OW39799   6.131  13.880   6.160
79301SOL    HW139800   6.170  13.924   6.236
79301SOL    HW239801   6.106  13.951   6.101
79302SOL     OW39802  12.686   3.503   2.489
79302SOL    HW139803  12.761   3.465   2.442
79302SOL    HW239804  12.609   3.463   2.448
79303SOL     OW39805   2.410  13.063  13.438
79303SOL    HW139806   2.386  13.112  13.516
79303SOL    HW239807   2.397  12.971  13.463
79304SOL     OW39808   7.123   5.467   9.515
79304SOL    HW139809   7.137   5.443   9.424
79304SOL    HW239810   7.132   5.563   9.516
79305SOL     OW39811  10.646   4.155   5.115
79305SOL    HW139812  10.682   4.233   5.072
79305SOL    HW239813  10.723   4.105   5.142
79306SOL     OW39814  10.320   1.155  14.140
79306SOL    HW139815  10.305   1.194  14.226
79306SOL    HW239816  10.241   1.104  14.123
79307SOL     OW39817   2.624  12.693  12.046
79307SOL    HW139818   2.657  12.648  11.968
79307SOL    HW239819   2.540  12.729  12.020
79308SOL     OW39820  14.148   5.648   5.450
79308SOL    HW139821  14.199   5.569   5.468
79308SOL    HW239822  14.211   5.710   5.414
79309SOL     OW39823  11.768   3.053   0.177
79309SOL    HW139824  11.695   3.082   0.124
79309SOL    HW239825  11.819   2.996   0.120
79310SOL     OW39826   2.463   0.789  11.173
79310SOL    HW139827   2.457   0.860  11.237
79310SOL    HW239828   2.389   0.732  11.193
79311SOL     OW39829  10.673   2.877   2.927
79311SOL    HW139830  10.722   2.892   2.846
79311SOL    HW239831  10.729   2.817   2.977
79312SOL     OW39832  10.627   8.973   3.617
79312SOL    HW139833  10.571   8.944   3.689
79312SOL    HW239834  10.688   9.035   3.658
79313SOL     OW39835  12.557   8.927  13.723
79313SOL    HW139836  12.545   8.834  13.740
79313SOL    HW239837  12.515   8.971  13.797
79314SOL     OW39838   4.478   0.674   5.740
79314SOL    HW139839   4.476   0.687   5.646
79314SOL    HW239840   4.531   0.746   5.774
79315SOL     OW39841   2.675  11.947   1.832
79315SOL    HW139842   2.618  12.008   1.785
79315SOL    HW239843   2.703  11.884   1.765
79316SOL     OW39844   2.384  13.428   0.430
79316SOL    HW139845   2.328  13.505   0.431
79316SOL    HW239846   2.470  13.460   0.401
79317SOL     OW39847   1.581  14.262  13.587
79317SOL    HW139848   1.566  14.175  13.548
79317SOL    HW239849   1.610  14.316  13.514
79318SOL     OW39850   7.453   7.015   2.924
79318SOL    HW139851   7.513   7.081   2.959
79318SOL    HW239852   7.432   6.959   2.999
79319SOL     OW39853  11.221   3.348   8.227
79319SOL    HW139854  11.150   3.291   8.256
79319SOL    HW239855  11.186   3.437   8.234
79320SOL     OW39856  14.390  12.069   4.090
79320SOL    HW139857  14.467  12.011   4.088
79320SOL    HW239858  14.322  12.019   4.045
79321SOL     OW39859   0.977   7.258   8.856
79321SOL    HW139860   0.967   7.245   8.950
79321SOL    HW239861   1.029   7.182   8.827
79322SOL     OW39862  14.635   0.737   5.197
79322SOL    HW139863  14.628   0.659   5.251
79322SOL    HW239864  14.653   0.704   5.109
79323SOL     OW39865  12.420  13.919  13.018
79323SOL    HW139866  12.376  14.003  13.005
79323SOL    HW239867  12.366  13.856  12.970
79324SOL     OW39868  12.850   2.431   6.263
79324SOL    HW139869  12.855   2.424   6.168
79324SOL    HW239870  12.757   2.449   6.280
79325SOL     OW39871   1.098   9.264  12.638
79325SOL    HW139872   1.084   9.228  12.726
79325SOL    HW239873   1.142   9.347  12.652
79326SOL     OW39874   5.364   5.367  12.393
79326SOL    HW139875   5.354   5.431  12.464
79326SOL    HW239876   5.299   5.299  12.413
79327SOL     OW39877   7.975  10.174   5.014
79327SOL    HW139878   7.936  10.140   4.934
79327SOL    HW239879   8.021  10.099   5.052
79328SOL     OW39880   2.661   6.583  10.115
79328SOL    HW139881   2.593   6.545  10.060
79328SOL    HW239882   2.725   6.619  10.054
79329SOL     OW39883   8.446   3.225   6.788
79329SOL    HW139884   8.404   3.292   6.734
79329SOL    HW239885   8.467   3.155   6.726
79330SOL     OW39886   6.298  11.561  13.368
79330SOL    HW139887   6.377  11.509  13.354
79330SOL    HW239888   6.327  11.652  13.367
79331SOL     OW39889   2.096   4.265  14.555
79331SOL    HW139890   2.138   4.313  14.626
79331SOL    HW239891   2.047   4.331  14.507
79332SOL     OW39892   5.519   8.563   9.165
79332SOL    HW139893   5.538   8.469   9.159
79332SOL    HW239894   5.586   8.604   9.111
79333SOL     OW39895   9.878   9.449   8.138
79333SOL    HW139896   9.955   9.425   8.086
79333SOL    HW239897   9.817   9.377   8.124
79334SOL     OW39898   1.397   1.231   0.279
79334SOL    HW139899   1.455   1.203   0.350
79334SOL    HW239900   1.456   1.267   0.212
79335SOL     OW39901   1.470  11.936   3.042
79335SOL    HW139902   1.469  11.844   3.015
79335SOL    HW239903   1.506  11.936   3.130
79336SOL     OW39904   8.155   6.316   7.366
79336SOL    HW139905   8.111   6.398   7.344
79336SOL    HW239906   8.115   6.252   7.307
79337SOL     OW39907   6.971  12.641  11.280
79337SOL    HW139908   6.899  12.688  11.323
79337SOL    HW239909   7.040  12.707  11.273
79338SOL     OW39910   4.327  14.857   0.913
79338SOL    HW139911   4.287   0.006   0.995
79338SOL    HW239912   4.255  14.818   0.863
79339SOL     OW39913  14.798  10.617   6.735
79339SOL    HW139914  14.731  10.633   6.801
79339SOL    HW239915  14.879  10.605   6.785
79340SOL     OW39916  12.718   6.646  14.863
79340SOL    HW139917  12.627   6.673  14.852
79340SOL    HW239918  12.756   6.650  14.775
79341SOL     OW39919   7.302  10.137  14.877
79341SOL    HW139920   7.356  10.059  14.862
79341SOL    HW239921   7.288  10.139   0.092
79342SOL     OW39922  10.495   7.649   3.375
79342SOL    HW139923  10.539   7.584   3.430
79342SOL    HW239924  10.425   7.683   3.430
79343SOL     OW39925   1.179   1.753  11.396
79343SOL    HW139926   1.161   1.726  11.306
79343SOL    HW239927   1.097   1.790  11.427
79344SOL     OW39928  10.842   2.150   7.385
79344SOL    HW139929  10.922   2.129   7.434
79344SOL    HW239930  10.804   2.224   7.430
79345SOL     OW39931   6.082  11.958   8.687
79345SOL    HW139932   6.139  11.899   8.738
79345SOL    HW239933   6.034  11.900   8.629
79346SOL     OW39934   1.173  12.474   0.746
79346SOL    HW139935   1.251  12.420   0.737
79346SOL    HW239936   1.103  12.412   0.766
79347SOL     OW39937   3.871   8.906   0.053
79347SOL    HW139938   3.948   8.950   0.018
79347SOL    HW239939   3.850   8.839  14.867
79348SOL     OW39940   9.388  10.268  13.614
79348SOL    HW139941   9.384  10.289  13.521
79348SOL    HW239942   9.433  10.184  13.619
79349SOL     OW39943  12.814   9.818  10.926
79349SOL    HW139944  12.831   9.735  10.882
79349SOL    HW239945  12.789   9.794  11.015
79350SOL     OW39946   3.642  10.443   8.122
79350SOL    HW139947   3.627  10.504   8.194
79350SOL    HW239948   3.728  10.466   8.088
79351SOL     OW39949   4.429  12.137  11.441
79351SOL    HW139950   4.498  12.108  11.380
79351SOL    HW239951   4.473  12.145  11.525
79352SOL     OW39952   2.076   0.815   1.154
79352SOL    HW139953   2.069   0.841   1.246
79352SOL    HW239954   1.988   0.785   1.131
79353SOL     OW39955  11.306   8.025   6.517
79353SOL    HW139956  11.331   7.944   6.473
79353SOL    HW239957  11.358   8.027   6.597
79354SOL     OW39958  11.492   5.476  10.417
79354SOL    HW139959  11.513   5.554  10.366
79354SOL    HW239960  11.422   5.505  10.476
79355SOL     OW39961  10.554   8.550   8.937
79355SOL    HW139962  10.536   8.506   9.020
79355SOL    HW239963  10.608   8.489   8.888
79356SOL     OW39964   7.096   0.416  14.462
79356SOL    HW139965   7.143   0.339  14.492
79356SOL    HW239966   7.093   0.474  14.538
79357SOL     OW39967  12.297   5.696   8.687
79357SOL    HW139968  12.352   5.647   8.627
79357SOL    HW239969  12.250   5.759   8.630
79358SOL     OW39970  11.780   3.426  13.598
79358SOL    HW139971  11.767   3.425  13.692
79358SOL    HW239972  11.793   3.334  13.574
79359SOL     OW39973  10.329   1.723   0.372
79359SOL    HW139974  10.372   1.795   0.325
79359SOL    HW239975  10.400   1.662   0.392
79360SOL     OW39976  11.476   8.666   3.480
79360SOL    HW139977  11.503   8.662   3.388
79360SOL    HW239978  11.419   8.742   3.485
79361SOL     OW39979   8.525   0.692   6.467
79361SOL    HW139980   8.527   0.726   6.377
79361SOL    HW239981   8.540   0.769   6.522
79362SOL     OW39982  10.439  12.787  12.579
79362SOL    HW139983  10.365  12.728  12.573
79362SOL    HW239984  10.402  12.874  12.566
79363SOL     OW39985  12.470   6.392  11.694
79363SOL    HW139986  12.453   6.477  11.736
79363SOL    HW239987  12.383   6.353  11.686
79364SOL     OW39988   3.449   8.722  14.441
79364SOL    HW139989   3.531   8.673  14.441
79364SOL    HW239990   3.475   8.812  14.464
79365SOL     OW39991   6.237   2.330   5.151
79365SOL    HW139992   6.232   2.266   5.080
79365SOL    HW239993   6.185   2.404   5.120
79366SOL     OW39994   0.680   7.989   8.780
79366SOL    HW139995   0.685   8.044   8.702
79366SOL    HW239996   0.765   7.945   8.785
79367SOL     OW39997   9.872   6.903   6.672
79367SOL    HW139998   9.963   6.918   6.697
79367SOL    HW239999   9.854   6.968   6.604
79368SOL     OW40000   0.540  13.939  10.531
79368SOL    HW140001   0.528  14.034  10.532
79368SOL    HW240002   0.452  13.903  10.538
79369SOL     OW40003   2.226   6.223   0.792
79369SOL    HW140004   2.314   6.189   0.807
79369SOL    HW240005   2.212   6.286   0.863
79370SOL     OW40006  10.872   9.303   5.576
79370SOL    HW140007  10.864   9.339   5.488
79370SOL    HW240008  10.965   9.304   5.595
79371SOL     OW40009  11.062   3.584   7.114
79371SOL    HW140010  10.981   3.600   7.064
79371SOL    HW240011  11.054   3.494   7.144
79372SOL     OW40012   6.292  11.185   3.041
79372SOL    HW140013   6.204  11.150   3.052
79372SOL    HW240014   6.315  11.221   3.126
79373SOL     OW40015  11.505  10.846  10.466
79373SOL    HW140016  11.597  10.869  10.478
79373SOL    HW240017  11.504  10.791  10.387
79374SOL     OW40018   6.298   4.446   8.920
79374SOL    HW140019   6.351   4.368   8.903
79374SOL    HW240020   6.242   4.421   8.994
79375SOL     OW40021   7.717   1.949   5.738
79375SOL    HW140022   7.684   1.941   5.649
79375SOL    HW240023   7.808   1.920   5.733
79376SOL     OW40024   2.613  13.148   6.999
79376SOL    HW140025   2.552  13.181   7.065
79376SOL    HW240026   2.699  13.180   7.026
79377SOL     OW40027   1.773   1.258   5.607
79377SOL    HW140028   1.751   1.338   5.655
79377SOL    HW240029   1.868   1.260   5.600
79378SOL     OW40030  13.914   2.498   0.078
79378SOL    HW140031  13.971   2.459   0.013
79378SOL    HW240032  13.961   2.576   0.108
79379SOL     OW40033   2.968   9.863   4.044
79379SOL    HW140034   2.971   9.951   4.006
79379SOL    HW240035   3.047   9.858   4.099
79380SOL     OW40036  10.447   1.173   1.405
79380SOL    HW140037  10.409   1.096   1.447
79380SOL    HW240038  10.400   1.247   1.445
79381SOL     OW40039   3.774   4.777   4.166
79381SOL    HW140040   3.823   4.839   4.220
79381SOL    HW240041   3.731   4.719   4.229
79382SOL     OW40042   3.250   6.857  14.484
79382SOL    HW140043   3.229   6.770  14.518
79382SOL    HW240044   3.293   6.902  14.558
79383SOL     OW40045   0.331  13.549   1.238
79383SOL    HW140046   0.318  13.467   1.285
79383SOL    HW240047   0.251  13.559   1.186
79384SOL     OW40048  12.939  13.557  13.448
79384SOL    HW140049  12.933  13.503  13.526
79384SOL    HW240050  12.906  13.642  13.474
79385SOL     OW40051   0.606   1.710   7.610
79385SOL    HW140052   0.612   1.686   7.518
79385SOL    HW240053   0.575   1.800   7.611
79386SOL     OW40054   3.121   6.022  11.588
79386SOL    HW140055   3.085   5.939  11.619
79386SOL    HW240056   3.210   6.024  11.622
79387SOL     OW40057   5.694  14.820   3.599
79387SOL    HW140058   5.724  14.821   3.508
79387SOL    HW240059   5.757  14.876   3.645
79388SOL     OW40060   8.597   9.829   4.654
79388SOL    HW140061   8.617   9.860   4.566
79388SOL    HW240062   8.503   9.813   4.654
79389SOL     OW40063   1.202  14.694  14.201
79389SOL    HW140064   1.246  14.720  14.120
79389SOL    HW240065   1.128  14.641  14.171
79390SOL     OW40066   2.206  14.346   7.917
79390SOL    HW140067   2.126  14.357   7.865
79390SOL    HW240068   2.276  14.379   7.861
79391SOL     OW40069   0.376   0.872  11.721
79391SOL    HW140070   0.470   0.851  11.726
79391SOL    HW240071   0.343   0.850  11.808
79392SOL     OW40072   1.001   0.821   6.789
79392SOL    HW140073   0.986   0.767   6.868
79392SOL    HW240074   0.917   0.817   6.743
79393SOL     OW40075   2.826   5.861   3.616
79393SOL    HW140076   2.855   5.952   3.630
79393SOL    HW240077   2.738   5.858   3.652
79394SOL     OW40078   4.580   9.522   4.965
79394SOL    HW140079   4.637   9.545   5.039
79394SOL    HW240080   4.622   9.447   4.924
79395SOL     OW40081   8.300  10.225   6.025
79395SOL    HW140082   8.279  10.316   6.003
79395SOL    HW240083   8.265  10.174   5.952
79396SOL     OW40084  10.823   9.338   5.855
79396SOL    HW140085  10.830   9.342   5.759
79396SOL    HW240086  10.734   9.308   5.871
79397SOL     OW40087   3.139  13.327  10.424
79397SOL    HW140088   3.216  13.373  10.389
79397SOL    HW240089   3.084  13.311  10.348
79398SOL     OW40090   2.713   9.739   5.306
79398SOL    HW140091   2.675   9.826   5.320
79398SOL    HW240092   2.670   9.684   5.371
79399SOL     OW40093  10.696  12.958   7.431
79399SOL    HW140094  10.617  13.004   7.403
79399SOL    HW240095  10.768  13.008   7.394
79400SOL     OW40096  13.213  11.880  11.780
79400SOL    HW140097  13.290  11.874  11.722
79400SOL    HW240098  13.174  11.964  11.758
79401SOL     OW40099   6.054  10.862   6.603
79401SOL    HW140100   6.059  10.957   6.612
79401SOL    HW240101   6.145  10.832   6.612
79402SOL     OW40102   6.091  10.636  11.172
79402SOL    HW140103   6.036  10.574  11.220
79402SOL    HW240104   6.052  10.641  11.085
79403SOL     OW40105   7.377   5.973  11.985
79403SOL    HW140106   7.423   6.056  11.997
79403SOL    HW240107   7.440   5.907  12.011
79404SOL     OW40108   1.237  14.534   7.457
79404SOL    HW140109   1.264  14.482   7.532
79404SOL    HW240110   1.264  14.483   7.381
79405SOL     OW40111   1.269  12.026  12.659
79405SOL    HW140112   1.189  12.070  12.688
79405SOL    HW240113   1.340  12.086  12.682
79406SOL     OW40114  10.350   1.725  11.180
79406SOL    HW140115  10.312   1.719  11.268
79406SOL    HW240116  10.288   1.779  11.131
79407SOL     OW40117   6.362   9.639  13.800
79407SOL    HW140118   6.312   9.580  13.744
79407SOL    HW240119   6.454   9.622  13.778
79408SOL     OW40120   7.795   1.181   8.678
79408SOL    HW140121   7.718   1.137   8.642
79408SOL    HW240122   7.785   1.174   8.773
79409SOL     OW40123  11.352   1.123   8.734
79409SOL    HW140124  11.312   1.131   8.647
79409SOL    HW240125  11.422   1.187   8.734
79410SOL     OW40126   7.175   1.435  12.007
79410SOL    HW140127   7.139   1.421  12.094
79410SOL    HW240128   7.100   1.426  11.948
79411SOL     OW40129  14.166   6.914   4.963
79411SOL    HW140130  14.202   6.830   4.994
79411SOL    HW240131  14.214   6.980   5.013
79412SOL     OW40132   9.385   6.609  11.468
79412SOL    HW140133   9.449   6.677  11.446
79412SOL    HW240134   9.432   6.527  11.455
79413SOL     OW40135   7.078   5.705   5.998
79413SOL    HW140136   7.155   5.761   5.992
79413SOL    HW240137   7.004   5.765   6.002
79414SOL     OW40138   9.134  14.833   7.493
79414SOL    HW140139   9.073  14.772   7.533
79414SOL    HW240140   9.118   0.036   7.539
79415SOL     OW40141  13.499   4.798   0.115
79415SOL    HW140142  13.577   4.785   0.060
79415SOL    HW240143  13.468   4.885   0.091
79416SOL     OW40144   1.242  14.497   0.652
79416SOL    HW140145   1.148  14.480   0.663
79416SOL    HW240146   1.255  14.583   0.691
79417SOL     OW40147   1.186   6.035  11.835
79417SOL    HW140148   1.264   6.054  11.887
79417SOL    HW240149   1.153   6.121  11.810
79418SOL     OW40150  10.626  13.628  12.131
79418SOL    HW140151  10.536  13.604  12.109
79418SOL    HW240152  10.625  13.724  12.131
79419SOL     OW40153   1.621   1.642   4.501
79419SOL    HW140154   1.610   1.560   4.549
79419SOL    HW240155   1.534   1.661   4.465
79420SOL     OW40156   2.243  12.789   5.051
79420SOL    HW140157   2.306  12.788   5.123
79420SOL    HW240158   2.159  12.770   5.092
79421SOL     OW40159   2.025   1.399  13.633
79421SOL    HW140160   1.953   1.460  13.617
79421SOL    HW240161   2.073   1.395  13.550
79422SOL     OW40162   8.253   2.578   3.977
79422SOL    HW140163   8.313   2.574   4.051
79422SOL    HW240164   8.231   2.487   3.958
79423SOL     OW40165   4.500  12.968  12.446
79423SOL    HW140166   4.570  12.904  12.459
79423SOL    HW240167   4.504  12.988  12.352
79424SOL     OW40168  10.310   0.648  11.925
79424SOL    HW140169  10.317   0.657  11.830
79424SOL    HW240170  10.232   0.700  11.948
79425SOL     OW40171   6.128  11.230   0.116
79425SOL    HW140172   6.095  11.309   0.160
79425SOL    HW240173   6.049  11.180   0.095
79426SOL     OW40174  12.499  12.215   4.903
79426SOL    HW140175  12.411  12.183   4.920
79426SOL    HW240176  12.556  12.148   4.941
79427SOL     OW40177   0.356   9.042  11.296
79427SOL    HW140178   0.306   8.973  11.251
79427SOL    HW240179   0.445   9.008  11.301
79428SOL     OW40180  13.104  12.056   2.498
79428SOL    HW140181  13.198  12.066   2.480
79428SOL    HW240182  13.069  12.144   2.486
79429SOL     OW40183   6.534  14.396   2.576
79429SOL    HW140184   6.445  14.407   2.609
79429SOL    HW240185   6.556  14.305   2.598
79430SOL     OW40186   3.961   4.344   9.757
79430SOL    HW140187   3.962   4.248   9.758
79430SOL    HW240188   4.053   4.369   9.761
79431SOL     OW40189   7.786  11.387   5.524
79431SOL    HW140190   7.798  11.432   5.607
79431SOL    HW240191   7.816  11.297   5.541
79432SOL     OW40192  11.048   7.668   5.583
79432SOL    HW140193  11.069   7.601   5.649
79432SOL    HW240194  11.008   7.620   5.511
79433SOL     OW40195   3.563   3.219   3.899
79433SOL    HW140196   3.577   3.124   3.889
79433SOL    HW240197   3.514   3.244   3.821
79434SOL     OW40198  11.258   8.439  11.772
79434SOL    HW140199  11.346   8.470  11.794
79434SOL    HW240200  11.199   8.492  11.825
79435SOL     OW40201   5.157   3.467   8.954
79435SOL    HW140202   5.132   3.559   8.949
79435SOL    HW240203   5.108   3.433   9.029
79436SOL     OW40204   9.650   3.953   2.146
79436SOL    HW140205   9.744   3.940   2.131
79436SOL    HW240206   9.619   3.869   2.180
79437SOL     OW40207  14.185  12.689  14.567
79437SOL    HW140208  14.218  12.771  14.532
79437SOL    HW240209  14.251  12.663  14.632
79438SOL     OW40210  14.238   8.791   2.878
79438SOL    HW140211  14.315   8.804   2.822
79438SOL    HW240212  14.194   8.715   2.841
79439SOL     OW40213   8.789   6.521   6.010
79439SOL    HW140214   8.758   6.569   6.087
79439SOL    HW240215   8.882   6.506   6.026
79440SOL     OW40216  12.981   4.636  11.484
79440SOL    HW140217  12.905   4.622  11.428
79440SOL    HW240218  12.946   4.660  11.569
79441SOL     OW40219   9.058  12.975   8.692
79441SOL    HW140220   9.032  13.030   8.767
79441SOL    HW240221   8.976  12.958   8.646
79442SOL     OW40222   9.892   0.142   9.520
79442SOL    HW140223   9.887   0.230   9.558
79442SOL    HW240224   9.868   0.083   9.592
79443SOL     OW40225   1.227   4.482   2.194
79443SOL    HW140226   1.295   4.473   2.260
79443SOL    HW240227   1.146   4.460   2.240
79444SOL     OW40228  13.783   1.110  14.771
79444SOL    HW140229  13.720   1.123  14.700
79444SOL    HW240230  13.840   1.040  14.739
79445SOL     OW40231   8.073   1.744   1.669
79445SOL    HW140232   8.159   1.783   1.655
79445SOL    HW240233   8.068   1.674   1.603
79446SOL     OW40234  14.187   7.082  10.214
79446SOL    HW140235  14.247   7.131  10.271
79446SOL    HW240236  14.145   7.149  10.160
79447SOL     OW40237   7.856   4.301   0.476
79447SOL    HW140238   7.789   4.278   0.541
79447SOL    HW240239   7.935   4.316   0.528
79448SOL     OW40240   8.764  13.946   0.722
79448SOL    HW140241   8.728  13.911   0.803
79448SOL    HW240242   8.795  13.868   0.675
79449SOL     OW40243   8.917   0.082  14.667
79449SOL    HW140244   8.997   0.113  14.625
79449SOL    HW240245   8.937   0.087  14.761
79450SOL     OW40246   7.277   0.213   4.033
79450SOL    HW140247   7.336   0.279   3.995
79450SOL    HW240248   7.332   0.164   4.093
79451SOL     OW40249   7.075   5.878  11.641
79451SOL    HW140250   7.032   5.797  11.670
79451SOL    HW240251   7.162   5.874  11.681
79452SOL     OW40252  13.919   9.411   9.074
79452SOL    HW140253  13.992   9.379   9.021
79452SOL    HW240254  13.871   9.332   9.098
79453SOL     OW40255   4.916   5.386   7.903
79453SOL    HW140256   4.945   5.454   7.843
79453SOL    HW240257   4.851   5.336   7.852
79454SOL     OW40258   7.288  11.906   9.173
79454SOL    HW140259   7.346  11.912   9.249
79454SOL    HW240260   7.200  11.914   9.209
79455SOL     OW40261  14.027   5.761   3.582
79455SOL    HW140262  14.119   5.781   3.566
79455SOL    HW240263  14.002   5.704   3.510
79456SOL     OW40264   0.338   5.632   0.527
79456SOL    HW140265   0.379   5.659   0.445
79456SOL    HW240266   0.295   5.549   0.507
79457SOL     OW40267   2.043   6.275   0.612
79457SOL    HW140268   1.996   6.351   0.646
79457SOL    HW240269   2.097   6.245   0.686
79458SOL     OW40270   0.770   4.038   8.116
79458SOL    HW140271   0.688   4.060   8.161
79458SOL    HW240272   0.837   4.043   8.185
79459SOL     OW40273   9.071   1.571  14.055
79459SOL    HW140274   9.068   1.597  13.963
79459SOL    HW240275   9.164   1.568  14.076
79460SOL     OW40276  13.555  10.711  12.865
79460SOL    HW140277  13.531  10.623  12.835
79460SOL    HW240278  13.606  10.696  12.944
79461SOL     OW40279   1.917   1.733   0.091
79461SOL    HW140280   1.907   1.657   0.033
79461SOL    HW240281   1.939   1.805   0.031
79462SOL     OW40282  12.961   2.820   7.210
79462SOL    HW140283  13.052   2.802   7.185
79462SOL    HW240284  12.946   2.766   7.287
79463SOL     OW40285   6.307   3.347   8.378
79463SOL    HW140286   6.252   3.324   8.303
79463SOL    HW240287   6.357   3.268   8.396
79464SOL     OW40288   7.468   6.150  13.595
79464SOL    HW140289   7.410   6.145  13.519
79464SOL    HW240290   7.423   6.207  13.657
79465SOL     OW40291  13.093  12.082   4.481
79465SOL    HW140292  13.134  12.146   4.539
79465SOL    HW240293  13.090  12.125   4.395
79466SOL     OW40294  13.042   4.797  14.059
79466SOL    HW140295  13.067   4.713  14.019
79466SOL    HW240296  12.969   4.828  14.005
79467SOL     OW40297  11.577   6.050   2.186
79467SOL    HW140298  11.618   6.136   2.189
79467SOL    HW240299  11.490   6.063   2.225
79468SOL     OW40300   6.863  10.673   8.684
79468SOL    HW140301   6.807  10.722   8.623
79468SOL    HW240302   6.952  10.696   8.659
79469SOL     OW40303   1.930  11.800  13.770
79469SOL    HW140304   1.943  11.716  13.726
79469SOL    HW240305   1.907  11.860  13.700
79470SOL     OW40306   7.184   2.182   1.050
79470SOL    HW140307   7.279   2.193   1.039
79470SOL    HW240308   7.153   2.161   0.961
79471SOL     OW40309   6.272  13.807  11.413
79471SOL    HW140310   6.348  13.769  11.456
79471SOL    HW240311   6.198  13.755  11.445
79472SOL     OW40312  10.831   4.166   8.016
79472SOL    HW140313  10.751   4.202   8.054
79472SOL    HW240314  10.853   4.226   7.944
79473SOL     OW40315   7.635   6.339   6.399
79473SOL    HW140316   7.722   6.336   6.359
79473SOL    HW240317   7.651   6.347   6.493
79474SOL     OW40318   4.019   7.735   2.355
79474SOL    HW140319   3.976   7.669   2.410
79474SOL    HW240320   3.948   7.778   2.307
79475SOL     OW40321   6.072  14.124  11.634
79475SOL    HW140322   6.130  14.054  11.662
79475SOL    HW240323   6.054  14.105  11.542
79476SOL     OW40324   3.387  13.528  14.846
79476SOL    HW140325   3.469  13.553  14.802
79476SOL    HW240326   3.338  13.480  14.779
79477SOL     OW40327   0.815   0.060   1.014
79477SOL    HW140328   0.768   0.017   0.943
79477SOL    HW240329   0.894   0.007   1.026
79478SOL     OW40330  13.026   4.312  13.137
79478SOL    HW140331  13.011   4.346  13.049
79478SOL    HW240332  12.938   4.294  13.171
79479SOL     OW40333   5.286  11.967   0.954
79479SOL    HW140334   5.269  11.893   1.014
79479SOL    HW240335   5.239  11.944   0.874
79480SOL     OW40336   4.429   1.982   0.832
79480SOL    HW140337   4.447   2.001   0.739
79480SOL    HW240338   4.508   1.938   0.863
79481SOL     OW40339   3.643   1.690   4.393
79481SOL    HW140340   3.671   1.643   4.314
79481SOL    HW240341   3.707   1.664   4.459
79482SOL     OW40342   4.525   2.637   7.088
79482SOL    HW140343   4.489   2.725   7.078
79482SOL    HW240344   4.616   2.651   7.115
79483SOL     OW40345   9.851  10.968   0.839
79483SOL    HW140346   9.760  10.938   0.842
79483SOL    HW240347   9.853  11.030   0.766
79484SOL     OW40348  13.534  14.856  11.459
79484SOL    HW140349  13.504  14.821  11.375
79484SOL    HW240350  13.554   0.069  11.441
79485SOL     OW40351   7.837   4.276   3.170
79485SOL    HW140352   7.885   4.335   3.228
79485SOL    HW240353   7.751   4.318   3.160
79486SOL     OW40354   8.158   1.450   6.875
79486SOL    HW140355   8.085   1.417   6.926
79486SOL    HW240356   8.118   1.508   6.810
79487SOL     OW40357   3.164   5.842   2.480
79487SOL    HW140358   3.101   5.797   2.423
79487SOL    HW240359   3.242   5.852   2.426
79488SOL     OW40360  12.483  13.712  10.746
79488SOL    HW140361  12.556  13.718  10.807
79488SOL    HW240362  12.519  13.666  10.669
79489SOL     OW40363   9.928   8.751  11.593
79489SOL    HW140364   9.894   8.796  11.515
79489SOL    HW240365   9.965   8.822  11.647
79490SOL     OW40366   1.475   3.618   0.833
79490SOL    HW140367   1.520   3.701   0.842
79490SOL    HW240368   1.458   3.609   0.739
79491SOL     OW40369   4.680   2.464  11.395
79491SOL    HW140370   4.768   2.489  11.368
79491SOL    HW240371   4.692   2.425  11.482
79492SOL     OW40372   5.981   8.637   4.566
79492SOL    HW140373   5.980   8.638   4.662
79492SOL    HW240374   5.891   8.660   4.542
79493SOL     OW40375  14.699  12.037   0.846
79493SOL    HW140376  14.751  11.990   0.780
79493SOL    HW240377  14.759  12.102   0.881
79494SOL     OW40378  13.381   7.460   2.918
79494SOL    HW140379  13.409   7.543   2.880
79494SOL    HW240380  13.286   7.458   2.905
79495SOL     OW40381   1.720  12.442   4.263
79495SOL    HW140382   1.782  12.508   4.233
79495SOL    HW240383   1.672  12.486   4.333
79496SOL     OW40384  11.079   9.268  10.331
79496SOL    HW140385  10.998   9.223  10.357
79496SOL    HW240386  11.077   9.266  10.235
79497SOL     OW40387   6.555   1.256   7.834
79497SOL    HW140388   6.552   1.192   7.906
79497SOL    HW240389   6.467   1.253   7.796
79498SOL     OW40390   2.109  13.193   9.105
79498SOL    HW140391   2.153  13.143   9.174
79498SOL    HW240392   2.171  13.261   9.081
79499SOL     OW40393   0.798   3.645  10.978
79499SOL    HW140394   0.837   3.694  11.050
79499SOL    HW240395   0.770   3.562  11.017
79500SOL     OW40396  14.523  13.345   3.182
79500SOL    HW140397  14.618  13.347   3.169
79500SOL    HW240398  14.506  13.258   3.218
79501SOL     OW40399   4.163   9.921   1.477
79501SOL    HW140400   4.159   9.898   1.570
79501SOL    HW240401   4.211  10.003   1.474
79502SOL     OW40402  12.439   7.607  13.185
79502SOL    HW140403  12.517   7.604  13.130
79502SOL    HW240404  12.461   7.555  13.262
79503SOL     OW40405   1.194   2.269   3.291
79503SOL    HW140406   1.150   2.338   3.340
79503SOL    HW240407   1.209   2.200   3.355
79504SOL     OW40408   8.481   0.303   7.027
79504SOL    HW140409   8.562   0.354   7.023
79504SOL    HW240410   8.426   0.352   7.088
79505SOL     OW40411   9.280   3.913   0.672
79505SOL    HW140412   9.351   3.863   0.632
79505SOL    HW240413   9.228   3.944   0.598
79506SOL     OW40414   5.890   0.377   4.966
79506SOL    HW140415   5.884   0.359   5.059
79506SOL    HW240416   5.805   0.413   4.942
79507SOL     OW40417   0.157   8.546   0.645
79507SOL    HW140418   0.220   8.551   0.573
79507SOL    HW240419   0.080   8.505   0.606
79508SOL     OW40420   5.104  11.090   7.070
79508SOL    HW140421   5.183  11.142   7.055
79508SOL    HW240422   5.032  11.145   7.040
79509SOL     OW40423  14.596   8.338  12.164
79509SOL    HW140424  14.653   8.264  12.186
79509SOL    HW240425  14.540   8.305  12.093
79510SOL     OW40426  10.158   8.047  14.700
79510SOL    HW140427  10.223   8.078  14.762
79510SOL    HW240428  10.074   8.072  14.738
79511SOL     OW40429   9.018   8.865   2.171
79511SOL    HW140430   8.994   8.808   2.098
79511SOL    HW240431   8.949   8.851   2.236
79512SOL     OW40432  12.389  10.876   3.113
79512SOL    HW140433  12.341  10.811   3.164
79512SOL    HW240434  12.322  10.935   3.078
79513SOL     OW40435   4.565   9.382   6.424
79513SOL    HW140436   4.544   9.365   6.332
79513SOL    HW240437   4.660   9.392   6.425
79514SOL     OW40438  14.199   4.204  12.004
79514SOL    HW140439  14.145   4.268  12.049
79514SOL    HW240440  14.263   4.256  11.956
79515SOL     OW40441  11.410  11.351   5.606
79515SOL    HW140442  11.446  11.346   5.695
79515SOL    HW240443  11.316  11.332   5.617
79516SOL     OW40444   0.155  11.997   0.497
79516SOL    HW140445   0.168  12.056   0.422
79516SOL    HW240446   0.210  12.033   0.566
79517SOL     OW40447  10.739  10.854   4.279
79517SOL    HW140448  10.741  10.766   4.317
79517SOL    HW240449  10.829  10.886   4.289
79518SOL     OW40450  13.079  11.290   5.678
79518SOL    HW140451  13.120  11.203   5.683
79518SOL    HW240452  13.016  11.290   5.750
79519SOL     OW40453   1.569  11.761  13.746
79519SOL    HW140454   1.538  11.846  13.774
79519SOL    HW240455   1.581  11.711  13.826
79520SOL     OW40456  13.809  11.547  13.974
79520SOL    HW140457  13.894  11.503  13.983
79520SOL    HW240458  13.796  11.591  14.058
79521SOL     OW40459   6.723   1.485   4.914
79521SOL    HW140460   6.640   1.439   4.911
79521SOL    HW240461   6.699   1.578   4.920
79522SOL     OW40462   0.446  13.787   7.070
79522SOL    HW140463   0.362  13.831   7.084
79522SOL    HW240464   0.484  13.780   7.158
79523SOL     OW40465  14.102   2.599   9.056
79523SOL    HW140466  14.115   2.606   9.151
79523SOL    HW240467  14.030   2.536   9.047
79524SOL     OW40468  10.827   1.244   2.223
79524SOL    HW140469  10.763   1.313   2.237
79524SOL    HW240470  10.775   1.164   2.217
79525SOL     OW40471  10.334  11.715  11.469
79525SOL    HW140472  10.344  11.645  11.534
79525SOL    HW240473  10.339  11.670  11.385
79526SOL     OW40474  11.784  10.770  12.944
79526SOL    HW140475  11.873  10.747  12.917
79526SOL    HW240476  11.795  10.849  12.998
79527SOL     OW40477   9.524   3.132  12.780
79527SOL    HW140478   9.587   3.069  12.746
79527SOL    HW240479   9.439   3.101  12.750
79528SOL     OW40480   1.306   5.648   3.046
79528SOL    HW140481   1.300   5.645   3.142
79528SOL    HW240482   1.380   5.706   3.028
79529SOL     OW40483   1.853   1.989   5.413
79529SOL    HW140484   1.947   1.995   5.397
79529SOL    HW240485   1.821   2.079   5.400
79530SOL     OW40486   6.132   1.581   0.956
79530SOL    HW140487   6.223   1.610   0.947
79530SOL    HW240488   6.134   1.488   0.932
79531SOL     OW40489   5.926   9.691   8.702
79531SOL    HW140490   5.943   9.611   8.750
79531SOL    HW240491   5.996   9.751   8.729
79532SOL     OW40492   1.689   6.908   5.202
79532SOL    HW140493   1.724   6.881   5.117
79532SOL    HW240494   1.730   6.993   5.218
79533SOL     OW40495   4.388   3.307   9.163
79533SOL    HW140496   4.335   3.278   9.088
79533SOL    HW240497   4.368   3.245   9.233
79534SOL     OW40498   5.342   5.995   8.547
79534SOL    HW140499   5.302   6.059   8.606
79534SOL    HW240500   5.353   6.042   8.465
79535SOL     OW40501   0.915   1.411  13.504
79535SOL    HW140502   1.002   1.445  13.522
79535SOL    HW240503   0.857   1.462  13.560
79536SOL     OW40504   2.463  13.699   5.751
79536SOL    HW140505   2.543  13.654   5.724
79536SOL    HW240506   2.492  13.783   5.786
79537SOL     OW40507   0.608  12.846   6.583
79537SOL    HW140508   0.516  12.850   6.556
79537SOL    HW240509   0.654  12.809   6.507
79538SOL     OW40510   4.324  11.380   9.142
79538SOL    HW140511   4.339  11.408   9.052
79538SOL    HW240512   4.375  11.299   9.150
79539SOL     OW40513  11.275   6.686   3.858
79539SOL    HW140514  11.365   6.710   3.880
79539SOL    HW240515  11.256   6.734   3.777
79540SOL     OW40516   3.073  12.549  14.533
79540SOL    HW140517   3.112  12.589  14.455
79540SOL    HW240518   3.127  12.580  14.605
79541SOL     OW40519   7.382   9.946  14.632
79541SOL    HW140520   7.448   9.877  14.646
79541SOL    HW240521   7.350   9.930  14.543
79542SOL     OW40522   5.690   7.735   4.823
79542SOL    HW140523   5.595   7.742   4.831
79542SOL    HW240524   5.716   7.683   4.899
79543SOL     OW40525   0.191  12.721   4.488
79543SOL    HW140526   0.278  12.759   4.493
79543SOL    HW240527   0.197  12.653   4.421
79544SOL     OW40528   9.782   7.891   8.110
79544SOL    HW140529   9.839   7.877   8.034
79544SOL    HW240530   9.702   7.843   8.090
79545SOL     OW40531  13.412   8.919   8.856
79545SOL    HW140532  13.385   8.893   8.944
79545SOL    HW240533  13.491   8.867   8.839
79546SOL     OW40534   7.526  14.607  10.051
79546SOL    HW140535   7.510  14.514  10.034
79546SOL    HW240536   7.591  14.608  10.121
79547SOL     OW40537   8.794   7.644   0.287
79547SOL    HW140538   8.731   7.633   0.357
79547SOL    HW240539   8.841   7.725   0.309
79548SOL     OW40540  10.765   0.788   0.839
79548SOL    HW140541  10.699   0.852   0.814
79548SOL    HW240542  10.809   0.827   0.915
79549SOL     OW40543   2.779   7.009   8.672
79549SOL    HW140544   2.742   7.027   8.586
79549SOL    HW240545   2.756   6.918   8.690
79550SOL     OW40546  14.803  13.393   7.405
79550SOL    HW140547  14.851  13.473   7.386
79550SOL    HW240548  14.871  13.325   7.405
79551SOL     OW40549   4.299   7.545  11.745
79551SOL    HW140550   4.260   7.612  11.688
79551SOL    HW240551   4.261   7.562  11.831
79552SOL     OW40552   6.493   8.623   5.756
79552SOL    HW140553   6.509   8.626   5.661
79552SOL    HW240554   6.535   8.541   5.784
79553SOL     OW40555   7.346   4.093   5.279
79553SOL    HW140556   7.430   4.061   5.314
79553SOL    HW240557   7.284   4.080   5.351
79554SOL     OW40558   0.607   3.730   8.064
79554SOL    HW140559   0.578   3.648   8.026
79554SOL    HW240560   0.535   3.757   8.121
79555SOL     OW40561   6.100   8.182   0.120
79555SOL    HW140562   6.141   8.096   0.126
79555SOL    HW240563   6.172   8.243   0.113
79556SOL     OW40564   8.195   8.484   8.681
79556SOL    HW140565   8.220   8.459   8.770
79556SOL    HW240566   8.248   8.561   8.662
79557SOL     OW40567  13.636  11.584   0.123
79557SOL    HW140568  13.730  11.591   0.104
79557SOL    HW240569  13.594  11.632   0.052
79558SOL     OW40570   6.528   3.218   0.652
79558SOL    HW140571   6.589   3.222   0.725
79558SOL    HW240572   6.503   3.309   0.636
79559SOL     OW40573  14.803   3.771   0.644
79559SOL    HW140574  14.803   3.822   0.563
79559SOL    HW240575  14.847   3.828   0.707
79560SOL     OW40576  10.302  11.239   5.556
79560SOL    HW140577  10.209  11.234   5.579
79560SOL    HW240578  10.336  11.309   5.612
79561SOL     OW40579   7.406   1.770   4.960
79561SOL    HW140580   7.411   1.866   4.957
79561SOL    HW240581   7.456   1.741   4.884
79562SOL     OW40582  11.269   1.105  13.213
79562SOL    HW140583  11.247   1.154  13.134
79562SOL    HW240584  11.360   1.128  13.232
79563SOL     OW40585  14.614  11.042   4.321
79563SOL    HW140586  14.592  10.949   4.322
79563SOL    HW240587  14.621  11.066   4.414
79564SOL     OW40588   0.292  13.015  10.130
79564SOL    HW140589   0.266  12.931  10.166
79564SOL    HW240590   0.221  13.040  10.071
79565SOL     OW40591  13.694   1.685   1.932
79565SOL    HW140592  13.725   1.597   1.953
79565SOL    HW240593  13.746   1.743   1.987
79566SOL     OW40594   8.774   9.080   3.668
79566SOL    HW140595   8.707   9.026   3.624
79566SOL    HW240596   8.724   9.141   3.721
79567SOL     OW40597   3.367  13.939   7.258
79567SOL    HW140598   3.433  13.956   7.190
79567SOL    HW240599   3.366  13.844   7.266
79568SOL     OW40600   5.260   6.219  12.796
79568SOL    HW140601   5.248   6.295  12.739
79568SOL    HW240602   5.347   6.232  12.834
79569SOL     OW40603  13.059  10.252  14.570
79569SOL    HW140604  12.973  10.223  14.540
79569SOL    HW240605  13.073  10.205  14.652
79570SOL     OW40606  14.102   8.918   0.885
79570SOL    HW140607  14.168   8.985   0.904
79570SOL    HW240608  14.025   8.947   0.934
79571SOL     OW40609  13.377   4.767   3.851
79571SOL    HW140610  13.435   4.704   3.893
79571SOL    HW240611  13.421   4.787   3.768
79572SOL     OW40612   2.517   8.956   3.519
79572SOL    HW140613   2.552   8.976   3.605
79572SOL    HW240614   2.594   8.951   3.462
79573SOL     OW40615   5.186   3.094  12.201
79573SOL    HW140616   5.246   3.037  12.152
79573SOL    HW240617   5.237   3.172  12.221
79574SOL     OW40618   5.452   1.542   4.912
79574SOL    HW140619   5.445   1.606   4.842
79574SOL    HW240620   5.520   1.576   4.970
79575SOL     OW40621   7.697   5.277  13.260
79575SOL    HW140622   7.699   5.307  13.169
79575SOL    HW240623   7.603   5.274  13.281
79576SOL     OW40624  11.887   8.502   4.009
79576SOL    HW140625  11.960   8.443   4.028
79576SOL    HW240626  11.850   8.522   4.095
79577SOL     OW40627  10.897   5.488   3.657
79577SOL    HW140628  10.873   5.452   3.571
79577SOL    HW240629  10.963   5.554   3.637
79578SOL     OW40630   4.048   1.861   8.798
79578SOL    HW140631   3.971   1.813   8.828
79578SOL    HW240632   4.090   1.802   8.735
79579SOL     OW40633   5.404  14.006  14.618
79579SOL    HW140634   5.380  13.914  14.610
79579SOL    HW240635   5.322  14.053  14.602
79580SOL     OW40636  14.486   2.506   6.051
79580SOL    HW140637  14.522   2.591   6.079
79580SOL    HW240638  14.394   2.510   6.076
79581SOL     OW40639   2.820   8.610   5.935
79581SOL    HW140640   2.750   8.597   5.999
79581SOL    HW240641   2.819   8.704   5.917
79582SOL     OW40642  10.867   6.997  10.406
79582SOL    HW140643  10.811   6.942  10.351
79582SOL    HW240644  10.812   7.072  10.429
79583SOL     OW40645   3.499  12.696  14.628
79583SOL    HW140646   3.434  12.734  14.686
79583SOL    HW240647   3.548  12.771  14.593
79584SOL     OW40648   5.030   6.783   1.115
79584SOL    HW140649   5.085   6.857   1.138
79584SOL    HW240650   4.946   6.801   1.158
79585SOL     OW40651   8.877   9.752   9.154
79585SOL    HW140652   8.894   9.672   9.103
79585SOL    HW240653   8.960   9.770   9.199
79586SOL     OW40654   1.493  14.444   8.063
79586SOL    HW140655   1.578  14.482   8.083
79586SOL    HW240656   1.465  14.488   7.983
79587SOL     OW40657   8.204   5.512  11.223
79587SOL    HW140658   8.144   5.461  11.278
79587SOL    HW240659   8.148   5.549  11.155
79588SOL     OW40660   9.889   5.894   6.727
79588SOL    HW140661   9.889   5.985   6.695
79588SOL    HW240662   9.817   5.852   6.681
79589SOL     OW40663   2.014   9.686  14.603
79589SOL    HW140664   2.010   9.703  14.697
79589SOL    HW240665   2.089   9.737  14.572
79590SOL     OW40666   2.384  12.599   6.286
79590SOL    HW140667   2.425  12.524   6.329
79590SOL    HW240668   2.444  12.623   6.215
79591SOL     OW40669   3.285  12.890   4.630
79591SOL    HW140670   3.206  12.938   4.654
79591SOL    HW240671   3.342  12.896   4.707
79592SOL     OW40672   7.153   6.610   4.986
79592SOL    HW140673   7.244   6.638   4.997
79592SOL    HW240674   7.142   6.537   5.048
79593SOL     OW40675   2.109   0.121   6.004
79593SOL    HW140676   2.089   0.213   5.988
79593SOL    HW240677   2.085   0.077   5.922
79594SOL     OW40678  11.678  12.210   6.839
79594SOL    HW140679  11.744  12.145   6.815
79594SOL    HW240680  11.729  12.288   6.862
79595SOL     OW40681   4.971  10.388   5.602
79595SOL    HW140682   4.925  10.459   5.646
79595SOL    HW240683   5.060  10.422   5.589
79596SOL     OW40684   4.281  13.344   7.882
79596SOL    HW140685   4.318  13.344   7.971
79596SOL    HW240686   4.190  13.316   7.894
79597SOL     OW40687   6.272   2.948   9.831
79597SOL    HW140688   6.183   2.912   9.837
79597SOL    HW240689   6.269   3.008   9.757
79598SOL     OW40690  13.796   9.226   4.654
79598SOL    HW140691  13.886   9.207   4.628
79598SOL    HW240692  13.801   9.310   4.700
79599SOL     OW40693   0.606   7.266   7.739
79599SOL    HW140694   0.532   7.254   7.680
79599SOL    HW240695   0.669   7.198   7.713
79600SOL     OW40696   9.440  11.452   0.162
79600SOL    HW140697   9.428  11.438   0.256
79600SOL    HW240698   9.423  11.367   0.122
79601SOL     OW40699   5.229   2.904   2.529
79601SOL    HW140700   5.204   2.990   2.495
79601SOL    HW240701   5.155   2.847   2.508
79602SOL     OW40702   3.860   4.784  10.100
79602SOL    HW140703   3.914   4.838  10.159
79602SOL    HW240704   3.778   4.832  10.092
79603SOL     OW40705   3.212  10.505  12.400
79603SOL    HW140706   3.157  10.560  12.455
79603SOL    HW240707   3.257  10.447  12.460
79604SOL     OW40708  12.951  13.075  12.139
79604SOL    HW140709  13.045  13.068  12.151
79604SOL    HW240710  12.938  13.069  12.044
79605SOL     OW40711   8.658   8.840   2.664
79605SOL    HW140712   8.570   8.801   2.659
79605SOL    HW240713   8.641   8.935   2.663
79606SOL     OW40714   2.146   1.735   4.313
79606SOL    HW140715   2.221   1.707   4.366
79606SOL    HW240716   2.078   1.671   4.333
79607SOL     OW40717   4.329  14.034   4.808
79607SOL    HW140718   4.324  14.096   4.881
79607SOL    HW240719   4.328  14.089   4.730
79608SOL     OW40720  14.463   8.289   2.512
79608SOL    HW140721  14.494   8.200   2.530
79608SOL    HW240722  14.478   8.301   2.419
79609SOL     OW40723   6.919  10.657   9.340
79609SOL    HW140724   6.945  10.725   9.402
79609SOL    HW240725   6.992  10.651   9.279
79610SOL     OW40726  11.495  11.565   3.402
79610SOL    HW140727  11.412  11.530   3.370
79610SOL    HW240728  11.475  11.596   3.491
79611SOL     OW40729   1.653  10.253   3.878
79611SOL    HW140730   1.639  10.284   3.967
79611SOL    HW240731   1.577  10.199   3.859
79612SOL     OW40732   8.950  12.891   6.681
79612SOL    HW140733   8.931  12.916   6.771
79612SOL    HW240734   8.995  12.807   6.687
79613SOL     OW40735   2.582   5.363  12.144
79613SOL    HW140736   2.656   5.316  12.106
79613SOL    HW240737   2.511   5.353  12.081
79614SOL     OW40738   6.091  14.230   2.084
79614SOL    HW140739   6.089  14.225   1.989
79614SOL    HW240740   6.168  14.283   2.104
79615SOL     OW40741  11.960   0.694   5.089
79615SOL    HW140742  12.023   0.749   5.136
79615SOL    HW240743  11.896   0.756   5.054
79616SOL     OW40744   5.107  13.959   6.636
79616SOL    HW140745   5.150  14.030   6.684
79616SOL    HW240746   5.160  13.948   6.557
79617SOL     OW40747  11.540   6.022   0.099
79617SOL    HW140748  11.531   6.006   0.005
79617SOL    HW240749  11.594   6.102   0.105
79618SOL     OW40750   2.062  14.834   7.469
79618SOL    HW140751   2.057   0.021   7.401
79618SOL    HW240752   2.144  14.853   7.515
79619SOL     OW40753   5.906   7.451   7.551
79619SOL    HW140754   5.925   7.462   7.644
79619SOL    HW240755   5.929   7.359   7.532
79620SOL     OW40756   4.397  11.401   0.752
79620SOL    HW140757   4.446  11.482   0.767
79620SOL    HW240758   4.351  11.386   0.835
79621SOL     OW40759  11.056   1.014  11.129
79621SOL    HW140760  11.110   1.066  11.189
79621SOL    HW240761  10.966   1.034  11.155
79622SOL     OW40762   7.957   1.132   9.772
79622SOL    HW140763   7.908   1.177   9.841
79622SOL    HW240764   7.918   1.045   9.767
79623SOL     OW40765  11.962  14.148  11.469
79623SOL    HW140766  11.971  14.178  11.559
79623SOL    HW240767  11.907  14.215  11.427
79624SOL     OW40768  10.362  10.077  11.072
79624SOL    HW140769  10.376   9.995  11.120
79624SOL    HW240770  10.278  10.063  11.028
79625SOL     OW40771  10.708  12.650   3.372
79625SOL    HW140772  10.665  12.626   3.290
79625SOL    HW240773  10.756  12.730   3.352
79626SOL     OW40774   9.998  13.481   9.086
79626SOL    HW140775   9.906  13.488   9.059
79626SOL    HW240776  10.048  13.489   9.005
79627SOL     OW40777  12.998  10.022  11.444
79627SOL    HW140778  13.015   9.961  11.371
79627SOL    HW240779  12.997  10.108  11.403
79628SOL     OW40780  10.896   3.198  11.683
79628SOL    HW140781  10.913   3.104  11.679
79628SOL    HW240782  10.890   3.224  11.591
79629SOL     OW40783  13.060  12.867   8.720
79629SOL    HW140784  12.965  12.858   8.719
79629SOL    HW240785  13.075  12.959   8.743
79630SOL     OW40786   5.935  13.557   5.492
79630SOL    HW140787   5.920  13.631   5.551
79630SOL    HW240788   6.014  13.514   5.527
79631SOL     OW40789  11.135  11.656   3.997
79631SOL    HW140790  11.133  11.645   4.092
79631SOL    HW240791  11.135  11.567   3.962
79632SOL     OW40792   1.268   9.649   8.822
79632SOL    HW140793   1.315   9.700   8.888
79632SOL    HW240794   1.288   9.558   8.843
79633SOL     OW40795  12.023  12.133  13.398
79633SOL    HW140796  12.072  12.131  13.316
79633SOL    HW240797  11.931  12.133  13.372
79634SOL     OW40798   1.866  10.836  10.795
79634SOL    HW140799   1.871  10.927  10.766
79634SOL    HW240800   1.931  10.829  10.864
79635SOL     OW40801   8.810   0.902  11.973
79635SOL    HW140802   8.873   0.955  11.924
79635SOL    HW240803   8.766   0.965  12.031
79636SOL     OW40804  12.551   0.070   4.213
79636SOL    HW140805  12.634   0.119   4.220
79636SOL    HW240806  12.514   0.098   4.129
79637SOL     OW40807   8.514   4.513   9.944
79637SOL    HW140808   8.444   4.505   9.880
79637SOL    HW240809   8.470   4.501  10.029
79638SOL     OW40810  12.731   7.819  11.079
79638SOL    HW140811  12.775   7.874  11.144
79638SOL    HW240812  12.641   7.811  11.111
79639SOL     OW40813   9.626  10.179   6.675
79639SOL    HW140814   9.588  10.115   6.615
79639SOL    HW240815   9.638  10.258   6.622
79640SOL     OW40816   6.768   4.898  10.452
79640SOL    HW140817   6.695   4.933  10.503
79640SOL    HW240818   6.832   4.969  10.450
79641SOL     OW40819   0.232  13.638   5.929
79641SOL    HW140820   0.175  13.713   5.943
79641SOL    HW240821   0.239  13.597   6.015
79642SOL     OW40822   3.597   7.411  12.265
79642SOL    HW140823   3.629   7.498  12.288
79642SOL    HW240824   3.672   7.353  12.282
79643SOL     OW40825   2.779   0.976   7.055
79643SOL    HW140826   2.849   1.042   7.057
79643SOL    HW240827   2.698   1.028   7.056
79644SOL     OW40828   5.547   6.244  13.747
79644SOL    HW140829   5.484   6.274  13.682
79644SOL    HW240830   5.624   6.218  13.697
79645SOL     OW40831   9.845   5.721  12.374
79645SOL    HW140832   9.849   5.627  12.388
79645SOL    HW240833   9.875   5.734  12.284
79646SOL     OW40834   4.679   2.384  14.159
79646SOL    HW140835   4.740   2.367  14.087
79646SOL    HW240836   4.602   2.331  14.138
79647SOL     OW40837  11.578   3.932   8.506
79647SOL    HW140838  11.655   3.877   8.524
79647SOL    HW240839  11.519   3.874   8.458
79648SOL     OW40840   4.638   2.155   9.636
79648SOL    HW140841   4.651   2.115   9.722
79648SOL    HW240842   4.652   2.248   9.649
79649SOL     OW40843   4.153   1.654   2.817
79649SOL    HW140844   4.079   1.594   2.822
79649SOL    HW240845   4.222   1.611   2.868
79650SOL     OW40846   3.386   3.747  11.204
79650SOL    HW140847   3.378   3.721  11.296
79650SOL    HW240848   3.414   3.838  11.206
79651SOL     OW40849   8.330   8.997  12.632
79651SOL    HW140850   8.245   9.038  12.611
79651SOL    HW240851   8.388   9.026  12.561
79652SOL     OW40852   1.412  14.414   6.767
79652SOL    HW140853   1.429  14.398   6.675
79652SOL    HW240854   1.434  14.506   6.780
79653SOL     OW40855   7.629   9.663   6.610
79653SOL    HW140856   7.660   9.593   6.553
79653SOL    HW240857   7.691   9.734   6.596
79654SOL     OW40858  14.161  10.676   9.291
79654SOL    HW140859  14.094  10.659   9.357
79654SOL    HW240860  14.117  10.730   9.225
79655SOL     OW40861  14.610   1.090  10.818
79655SOL    HW140862  14.677   1.123  10.758
79655SOL    HW240863  14.655   1.024  10.870
79656SOL     OW40864   2.143  14.265   2.892
79656SOL    HW140865   2.154  14.358   2.910
79656SOL    HW240866   2.191  14.251   2.810
79657SOL     OW40867   1.724  14.832   7.648
79657SOL    HW140868   1.763   0.036   7.624
79657SOL    HW240869   1.634  14.837   7.613
79658SOL     OW40870  10.154   9.321  14.599
79658SOL    HW140871  10.249   9.316  14.614
79658SOL    HW240872  10.119   9.247  14.648
79659SOL     OW40873   1.995  13.753   3.611
79659SOL    HW140874   1.985  13.669   3.655
79659SOL    HW240875   1.972  13.736   3.520
79660SOL     OW40876   0.808  12.343  13.988
79660SOL    HW140877   0.814  12.263  13.936
79660SOL    HW240878   0.724  12.381  13.964
79661SOL     OW40879   4.120   3.039  11.880
79661SOL    HW140880   4.157   2.953  11.862
79661SOL    HW240881   4.187   3.101  11.851
79662SOL     OW40882   3.154   1.979  13.185
79662SOL    HW140883   3.202   2.036  13.125
79662SOL    HW240884   3.066   2.016  13.189
79663SOL     OW40885   8.387   8.994   4.334
79663SOL    HW140886   8.397   8.944   4.414
79663SOL    HW240887   8.414   8.934   4.264
79664SOL     OW40888   5.902  14.747   7.704
79664SOL    HW140889   5.987  14.712   7.729
79664SOL    HW240890   5.842  14.718   7.773
79665SOL     OW40891   1.387   4.092   3.768
79665SOL    HW140892   1.481   4.108   3.760
79665SOL    HW240893   1.355   4.162   3.825
79666SOL     OW40894   7.977  12.072   6.373
79666SOL    HW140895   7.988  11.980   6.398
79666SOL    HW240896   8.038  12.084   6.300
79667SOL     OW40897   5.994   6.216   5.078
79667SOL    HW140898   5.948   6.225   4.994
79667SOL    HW240899   5.934   6.255   5.142
79668SOL     OW40900   7.944   1.198  13.863
79668SOL    HW140901   7.921   1.286  13.833
79668SOL    HW240902   7.939   1.143  13.785
79669SOL     OW40903   3.520   9.281  10.017
79669SOL    HW140904   3.520   9.370   9.983
79669SOL    HW240905   3.435   9.245   9.991
79670SOL     OW40906   5.018   0.851  11.195
79670SOL    HW140907   5.109   0.866  11.168
79670SOL    HW240908   5.024   0.785  11.264
79671SOL     OW40909  10.949  13.047   8.665
79671SOL    HW140910  11.036  13.073   8.636
79671SOL    HW240911  10.902  13.129   8.677
79672SOL     OW40912   3.832  11.455   6.366
79672SOL    HW140913   3.925  11.448   6.348
79672SOL    HW240914   3.825  11.449   6.461
79673SOL     OW40915   8.873   8.488   5.941
79673SOL    HW140916   8.892   8.430   6.015
79673SOL    HW240917   8.831   8.432   5.876
79674SOL     OW40918  10.001  14.007   7.516
79674SOL    HW140919   9.940  13.967   7.454
79674SOL    HW240920   9.947  14.068   7.566
79675SOL     OW40921  11.061   9.055   3.979
79675SOL    HW140922  11.039   9.059   4.072
79675SOL    HW240923  11.098   9.141   3.960
79676SOL     OW40924   3.769   1.032   4.654
79676SOL    HW140925   3.753   1.013   4.746
79676SOL    HW240926   3.790   1.126   4.652
79677SOL     OW40927   6.100   4.686   1.195
79677SOL    HW140928   6.121   4.713   1.106
79677SOL    HW240929   6.006   4.702   1.203
79678SOL     OW40930   0.310  12.957  10.800
79678SOL    HW140931   0.311  12.865  10.828
79678SOL    HW240932   0.291  12.953  10.706
79679SOL     OW40933   1.881   7.456   8.212
79679SOL    HW140934   1.798   7.410   8.196
79679SOL    HW240935   1.945   7.386   8.222
79680SOL     OW40936   2.242   3.911   9.546
79680SOL    HW140937   2.245   3.878   9.635
79680SOL    HW240938   2.154   3.889   9.516
79681SOL     OW40939   2.035  11.687   2.436
79681SOL    HW140940   2.014  11.688   2.343
79681SOL    HW240941   1.978  11.752   2.476
79682SOL     OW40942   8.276   1.605  10.530
79682SOL    HW140943   8.300   1.528  10.477
79682SOL    HW240944   8.320   1.590  10.614
79683SOL     OW40945   7.253   1.139   5.278
79683SOL    HW140946   7.202   1.058   5.277
79683SOL    HW240947   7.232   1.181   5.195
79684SOL     OW40948  11.975  11.324   4.580
79684SOL    HW140949  11.943  11.234   4.584
79684SOL    HW240950  12.009  11.334   4.491
79685SOL     OW40951   2.653  11.800   1.513
79685SOL    HW140952   2.630  11.724   1.460
79685SOL    HW240953   2.592  11.868   1.486
79686SOL     OW40954   4.276  11.456   4.286
79686SOL    HW140955   4.338  11.437   4.216
79686SOL    HW240956   4.235  11.538   4.261
79687SOL     OW40957  14.187   5.561   8.051
79687SOL    HW140958  14.189   5.633   7.988
79687SOL    HW240959  14.186   5.604   8.137
79688SOL     OW40960   8.942   8.826   1.723
79688SOL    HW140961   8.909   8.753   1.671
79688SOL    HW240962   9.037   8.821   1.714
79689SOL     OW40963   4.567  10.201  12.638
79689SOL    HW140964   4.662  10.208  12.651
79689SOL    HW240965   4.556  10.204  12.543
79690SOL     OW40966   9.579   0.225  12.898
79690SOL    HW140967   9.514   0.219  12.968
79690SOL    HW240968   9.631   0.302  12.920
79691SOL     OW40969   8.669   2.350   2.739
79691SOL    HW140970   8.639   2.272   2.786
79691SOL    HW240971   8.683   2.415   2.808
79692SOL     OW40972   5.091   0.795  11.662
79692SOL    HW140973   5.180   0.806  11.629
79692SOL    HW240974   5.103   0.757  11.749
79693SOL     OW40975   6.324   5.375   2.995
79693SOL    HW140976   6.286   5.463   2.996
79693SOL    HW240977   6.327   5.352   2.902
79694SOL     OW40978   1.462   9.547   6.179
79694SOL    HW140979   1.459   9.452   6.166
79694SOL    HW240980   1.553   9.571   6.160
79695SOL     OW40981   5.190  13.735   7.493
79695SOL    HW140982   5.145  13.798   7.549
79695SOL    HW240983   5.162  13.650   7.526
79696SOL     OW40984   2.510   5.221   9.883
79696SOL    HW140985   2.477   5.169   9.810
79696SOL    HW240986   2.521   5.158   9.954
79697SOL     OW40987   5.585   7.968   3.278
79697SOL    HW140988   5.665   7.940   3.233
79697SOL    HW240989   5.515   7.919   3.236
79698SOL     OW40990  12.427   7.563   7.213
79698SOL    HW140991  12.414   7.543   7.305
79698SOL    HW240992  12.341   7.592   7.182
79699SOL     OW40993  14.514   9.684   6.279
79699SOL    HW140994  14.508   9.590   6.296
79699SOL    HW240995  14.608   9.702   6.275
79700SOL     OW40996   9.488   9.412   9.318
79700SOL    HW140997   9.443   9.339   9.277
79700SOL    HW240998   9.537   9.373   9.390
79701SOL     OW40999  14.752   9.535   6.318
79701SOL    HW141000  14.758   9.577   6.231
79701SOL    HW241001  14.804   9.592   6.375
79702SOL     OW41002   9.150  12.219   2.597
79702SOL    HW141003   9.097  12.288   2.638
79702SOL    HW241004   9.235  12.224   2.640
79703SOL     OW41005  13.485  14.058  14.435
79703SOL    HW141006  13.482  13.999  14.510
79703SOL    HW241007  13.395  14.087  14.423
79704SOL     OW41008   4.642  12.133  10.494
79704SOL    HW141009   4.683  12.191  10.558
79704SOL    HW241010   4.681  12.047  10.512
79705SOL     OW41011   5.847  13.235   7.055
79705SOL    HW141012   5.840  13.185   6.974
79705SOL    HW241013   5.847  13.169   7.124
79706SOL     OW41014   8.360   2.203   3.696
79706SOL    HW141015   8.373   2.124   3.748
79706SOL    HW241016   8.431   2.202   3.631
79707SOL     OW41017   1.532   5.974   5.825
79707SOL    HW141018   1.523   6.012   5.738
79707SOL    HW241019   1.443   5.969   5.859
79708SOL     OW41020   8.486   6.297  14.240
79708SOL    HW141021   8.482   6.201  14.249
79708SOL    HW241022   8.411   6.319  14.184
79709SOL     OW41023  12.102   1.088  10.661
79709SOL    HW141024  12.010   1.063  10.658
79709SOL    HW241025  12.113   1.128  10.747
79710SOL     OW41026   2.814   5.379   8.560
79710SOL    HW141027   2.769   5.301   8.592
79710SOL    HW241028   2.893   5.345   8.518
79711SOL     OW41029   8.668   4.091  12.959
79711SOL    HW141030   8.647   4.159  13.024
79711SOL    HW241031   8.746   4.048  12.994
79712SOL     OW41032  12.307   5.450   5.509
79712SOL    HW141033  12.376   5.484   5.566
79712SOL    HW241034  12.283   5.525   5.454
79713SOL     OW41035   7.274   7.633  12.586
79713SOL    HW141036   7.206   7.566  12.579
79713SOL    HW241037   7.254   7.679  12.668
79714SOL     OW41038   4.994  11.238  11.315
79714SOL    HW141039   4.912  11.224  11.362
79714SOL    HW241040   4.990  11.329  11.286
79715SOL     OW41041   3.914  12.357   3.487
79715SOL    HW141042   4.006  12.384   3.483
79715SOL    HW241043   3.917  12.262   3.480
79716SOL     OW41044  13.400   7.222   8.058
79716SOL    HW141045  13.314   7.211   8.015
79716SOL    HW241046  13.381   7.271   8.137
79717SOL     OW41047   8.845   3.797  11.489
79717SOL    HW141048   8.813   3.714  11.453
79717SOL    HW241049   8.939   3.796  11.472
79718SOL     OW41050   3.777  11.387   3.575
79718SOL    HW141051   3.745  11.313   3.524
79718SOL    HW241052   3.813  11.348   3.654
79719SOL     OW41053   4.733  14.251  12.681
79719SOL    HW141054   4.794  14.178  12.691
79719SOL    HW241055   4.690  14.235  12.596
79720SOL     OW41056   6.212   5.692   2.682
79720SOL    HW141057   6.278   5.745   2.637
79720SOL    HW241058   6.144   5.677   2.616
79721SOL     OW41059  11.506   7.255   4.902
79721SOL    HW141060  11.475   7.219   4.818
79721SOL    HW241061  11.584   7.204   4.922
79722SOL     OW41062  13.086   2.227  14.796
79722SOL    HW141063  13.123   2.210  14.709
79722SOL    HW241064  13.160   2.253  14.850
79723SOL     OW41065  12.087   0.905   5.718
79723SOL    HW141066  12.170   0.927   5.674
79723SOL    HW241067  12.024   0.895   5.646
79724SOL     OW41068   4.219   2.314   0.312
79724SOL    HW141069   4.197   2.327   0.405
79724SOL    HW241070   4.313   2.333   0.307
79725SOL     OW41071  13.124   8.938   9.476
79725SOL    HW141072  13.204   8.980   9.508
79725SOL    HW241073  13.062   8.944   9.549
79726SOL     OW41074   3.740  13.960   2.352
79726SOL    HW141075   3.782  14.036   2.311
79726SOL    HW241076   3.646  13.980   2.349
79727SOL     OW41077   1.568  11.628  11.363
79727SOL    HW141078   1.541  11.720  11.366
79727SOL    HW241079   1.599  11.610  11.452
79728SOL     OW41080  11.033  11.180  12.807
79728SOL    HW141081  11.064  11.096  12.843
79728SOL    HW241082  10.939  11.169  12.798
79729SOL     OW41083   9.445   4.737  13.757
79729SOL    HW141084   9.471   4.694  13.838
79729SOL    HW241085   9.505   4.704  13.691
79730SOL     OW41086   0.943   6.697  10.702
79730SOL    HW141087   0.851   6.718  10.719
79730SOL    HW241088   0.961   6.623  10.760
79731SOL     OW41089   1.582   0.763  13.861
79731SOL    HW141090   1.504   0.716  13.831
79731SOL    HW241091   1.611   0.812  13.784
79732SOL     OW41092   0.610   1.632  12.484
79732SOL    HW141093   0.621   1.538  12.471
79732SOL    HW241094   0.699   1.667  12.480
79733SOL     OW41095   0.351   3.951   4.154
79733SOL    HW141096   0.291   4.022   4.180
79733SOL    HW241097   0.429   3.966   4.208
79734SOL     OW41098   9.920   2.204   4.274
79734SOL    HW141099   9.868   2.164   4.203
79734SOL    HW241100   9.863   2.199   4.351
79735SOL     OW41101   8.911   6.567   8.706
79735SOL    HW141102   8.885   6.583   8.616
79735SOL    HW241103   8.904   6.653   8.749
79736SOL     OW41104   9.739   3.410   4.814
79736SOL    HW141105   9.725   3.477   4.747
79736SOL    HW241106   9.804   3.351   4.776
79737SOL     OW41107   5.532   6.692   6.253
79737SOL    HW141108   5.527   6.628   6.182
79737SOL    HW241109   5.611   6.742   6.234
79738SOL     OW41110   7.265   4.043   9.588
79738SOL    HW141111   7.236   4.077   9.673
79738SOL    HW241112   7.188   4.046   9.532
79739SOL     OW41113   2.251   2.683   9.524
79739SOL    HW141114   2.275   2.733   9.603
79739SOL    HW241115   2.213   2.748   9.465
79740SOL     OW41116   1.341   3.800  11.542
79740SOL    HW141117   1.434   3.795  11.565
79740SOL    HW241118   1.317   3.891  11.559
79741SOL     OW41119  14.444  10.894   5.611
79741SOL    HW141120  14.523  10.912   5.662
79741SOL    HW241121  14.399  10.824   5.659
79742SOL     OW41122   6.517   1.521   3.100
79742SOL    HW141123   6.495   1.561   3.184
79742SOL    HW241124   6.466   1.440   3.098
79743SOL     OW41125  14.359   8.271   7.154
79743SOL    HW141126  14.267   8.249   7.137
79743SOL    HW241127  14.384   8.327   7.080
79744SOL     OW41128  11.777   9.888   4.321
79744SOL    HW141129  11.736   9.974   4.327
79744SOL    HW241130  11.705   9.826   4.333
79745SOL     OW41131   5.872  13.666  12.749
79745SOL    HW141132   5.814  13.741  12.735
79745SOL    HW241133   5.957  13.694  12.714
79746SOL     OW41134   9.772  11.609   5.176
79746SOL    HW141135   9.719  11.685   5.153
79746SOL    HW241136   9.772  11.554   5.097
79747SOL     OW41137  10.925   6.923   2.087
79747SOL    HW141138  10.838   6.942   2.123
79747SOL    HW241139  10.931   6.979   2.010
79748SOL     OW41140  12.434  12.743  14.858
79748SOL    HW141141  12.457  12.651  14.865
79748SOL    HW241142  12.454  12.767  14.768
79749SOL     OW41143  13.433  11.528   5.751
79749SOL    HW141144  13.434  11.494   5.662
79749SOL    HW241145  13.341  11.531   5.775
79750SOL     OW41146  10.723  11.671   5.496
79750SOL    HW141147  10.810  11.693   5.461
79750SOL    HW241148  10.738  11.655   5.589
79751SOL     OW41149  11.581   3.781   7.563
79751SOL    HW141150  11.612   3.861   7.606
79751SOL    HW241151  11.525   3.812   7.492
79752SOL     OW41152   6.655   0.181  12.162
79752SOL    HW141153   6.698   0.266  12.172
79752SOL    HW241154   6.720   0.118  12.193
79753SOL     OW41155   5.658  10.503   0.190
79753SOL    HW141156   5.604  10.581   0.200
79753SOL    HW241157   5.740  10.536   0.154
79754SOL     OW41158   3.509  11.024  13.623
79754SOL    HW141159   3.593  11.053  13.657
79754SOL    HW241160   3.509  11.051  13.531
79755SOL     OW41161   2.650   9.830  14.352
79755SOL    HW141162   2.690   9.852  14.436
79755SOL    HW241163   2.557   9.850  14.364
79756SOL     OW41164   2.488   5.998   0.627
79756SOL    HW141165   2.466   5.909   0.597
79756SOL    HW241166   2.437   6.055   0.570
79757SOL     OW41167   6.374   5.699   0.747
79757SOL    HW141168   6.364   5.613   0.706
79757SOL    HW241169   6.317   5.756   0.696
79758SOL     OW41170   1.113   4.657   6.553
79758SOL    HW141171   1.125   4.751   6.554
79758SOL    HW241172   1.186   4.623   6.502
79759SOL     OW41173  14.281   4.696   4.630
79759SOL    HW141174  14.254   4.761   4.694
79759SOL    HW241175  14.211   4.695   4.564
79760SOL     OW41176   4.567  14.820   1.723
79760SOL    HW141177   4.625   0.015   1.707
79760SOL    HW241178   4.563  14.775   1.638
79761SOL     OW41179   9.132   7.373   9.066
79761SOL    HW141180   9.045   7.364   9.103
79761SOL    HW241181   9.133   7.460   9.027
79762SOL     OW41182   2.569  10.757   5.177
79762SOL    HW141183   2.573  10.852   5.177
79762SOL    HW241184   2.476  10.736   5.173
79763SOL     OW41185  12.609  11.487   8.388
79763SOL    HW141186  12.647  11.436   8.317
79763SOL    HW241187  12.557  11.554   8.343
79764SOL     OW41188  12.414   1.100  12.475
79764SOL    HW141189  12.332   1.094  12.426
79764SOL    HW241190  12.483   1.096  12.409
79765SOL     OW41191   8.868   0.994  14.296
79765SOL    HW141192   8.835   1.040  14.218
79765SOL    HW241193   8.962   1.009  14.294
79766SOL     OW41194  11.429   8.833   5.383
79766SOL    HW141195  11.344   8.857   5.418
79766SOL    HW241196  11.430   8.737   5.384
79767SOL     OW41197  12.501  13.719   8.089
79767SOL    HW141198  12.437  13.695   8.155
79767SOL    HW241199  12.493  13.815   8.082
79768SOL     OW41200   3.247   8.553   9.871
79768SOL    HW141201   3.333   8.583   9.842
79768SOL    HW241202   3.184   8.600   9.815
79769SOL     OW41203  12.035   9.784   3.821
79769SOL    HW141204  12.075   9.706   3.783
79769SOL    HW241205  12.103   9.852   3.813
79770SOL     OW41206   6.408   8.855   0.431
79770SOL    HW141207   6.343   8.912   0.473
79770SOL    HW241208   6.489   8.905   0.434
79771SOL     OW41209  10.377   1.188   7.300
79771SOL    HW141210  10.290   1.227   7.289
79771SOL    HW241211  10.436   1.263   7.306
79772SOL     OW41212   4.615   6.899   9.878
79772SOL    HW141213   4.682   6.832   9.864
79772SOL    HW241214   4.580   6.918   9.791
79773SOL     OW41215   1.375  12.722   8.403
79773SOL    HW141216   1.377  12.761   8.490
79773SOL    HW241217   1.408  12.633   8.416
79774SOL     OW41218   9.675   3.135   4.864
79774SOL    HW141219   9.732   3.211   4.854
79774SOL    HW241220   9.601   3.152   4.805
79775SOL     OW41221   5.190  13.052   0.192
79775SOL    HW141222   5.212  13.108   0.118
79775SOL    HW241223   5.265  12.993   0.200
79776SOL     OW41224  13.536   6.516  13.767
79776SOL    HW141225  13.614   6.465  13.788
79776SOL    HW241226  13.570   6.595  13.724
79777SOL     OW41227  12.915  10.249   4.702
79777SOL    HW141228  12.892  10.184   4.768
79777SOL    HW241229  12.837  10.257   4.647
79778SOL     OW41230   6.647  13.695  11.534
79778SOL    HW141231   6.569  13.714  11.585
79778SOL    HW241232   6.641  13.601  11.514
79779SOL     OW41233   5.555  13.014   7.238
79779SOL    HW141234   5.648  13.007   7.215
79779SOL    HW241235   5.555  13.039   7.331
79780SOL     OW41236  14.801   0.746   2.289
79780SOL    HW141237  14.778   0.654   2.304
79780SOL    HW241238  14.788   0.788   2.374
79781SOL     OW41239   6.800   8.485   5.233
79781SOL    HW141240   6.716   8.493   5.187
79781SOL    HW241241   6.855   8.553   5.193
79782SOL     OW41242   7.392   1.389   8.422
79782SOL    HW141243   7.373   1.443   8.498
79782SOL    HW241244   7.313   1.337   8.408
79783SOL     OW41245   9.113  14.765   1.659
79783SOL    HW141246   9.135  14.725   1.575
79783SOL    HW241247   9.190  14.751   1.713
79784SOL     OW41248   5.114  10.106   5.020
79784SOL    HW141249   5.045  10.168   4.998
79784SOL    HW241250   5.107  10.038   4.953
79785SOL     OW41251  14.348   0.511   8.729
79785SOL    HW141252  14.382   0.600   8.716
79785SOL    HW241253  14.421   0.454   8.705
79786SOL     OW41254   8.212  11.485  10.387
79786SOL    HW141255   8.136  11.427  10.386
79786SOL    HW241256   8.281  11.433  10.426
79787SOL     OW41257  13.060   3.895  14.205
79787SOL    HW141258  13.136   3.862  14.253
79787SOL    HW241259  12.999   3.822  14.204
79788SOL     OW41260   2.833   0.455   9.062
79788SOL    HW141261   2.773   0.386   9.031
79788SOL    HW241262   2.891   0.410   9.123
79789SOL     OW41263  14.299   4.318   9.139
79789SOL    HW141264  14.386   4.331   9.102
79789SOL    HW241265  14.295   4.224   9.159
79790SOL     OW41266   8.685   2.978  10.325
79790SOL    HW141267   8.770   3.020  10.337
79790SOL    HW241268   8.632   3.043  10.279
79791SOL     OW41269   8.160   6.114   9.284
79791SOL    HW141270   8.075   6.155   9.302
79791SOL    HW241271   8.214   6.137   9.360
79792SOL     OW41272  14.134  10.515   9.992
79792SOL    HW141273  14.071  10.462  10.042
79792SOL    HW241274  14.178  10.569  10.057
79793SOL     OW41275  10.797  13.563   9.976
79793SOL    HW141276  10.816  13.559  10.070
79793SOL    HW241277  10.720  13.620   9.970
79794SOL     OW41278   2.534  14.873   9.381
79794SOL    HW141279   2.451   0.040   9.372
79794SOL    HW241280   2.549  14.867   9.475
79795SOL     OW41281   6.672   3.073  13.314
79795SOL    HW141282   6.624   3.048  13.235
79795SOL    HW241283   6.763   3.050  13.295
79796SOL     OW41284   7.128   6.117   0.371
79796SOL    HW141285   7.206   6.137   0.318
79796SOL    HW241286   7.072   6.194   0.360
79797SOL     OW41287   2.357  12.944  10.490
79797SOL    HW141288   2.312  13.001  10.553
79797SOL    HW241289   2.398  12.876  10.544
79798SOL     OW41290   7.555   6.152   8.542
79798SOL    HW141291   7.467   6.167   8.506
79798SOL    HW241292   7.576   6.062   8.516
79799SOL     OW41293   2.254  11.152   6.852
79799SOL    HW141294   2.256  11.124   6.944
79799SOL    HW241295   2.309  11.089   6.807
79800SOL     OW41296  11.024  13.983   2.308
79800SOL    HW141297  11.023  14.001   2.402
79800SOL    HW241298  11.091  13.916   2.297
79801SOL     OW41299  13.522  14.076  10.815
79801SOL    HW141300  13.559  14.074  10.726
79801SOL    HW241301  13.553  13.994  10.855
79802SOL     OW41302   7.713   6.485  14.671
79802SOL    HW141303   7.674   6.520  14.591
79802SOL    HW241304   7.668   6.532  14.742
79803SOL     OW41305  10.204   3.032   5.470
79803SOL    HW141306  10.242   3.119   5.481
79803SOL    HW241307  10.277   2.977   5.442
79804SOL     OW41308   8.234   3.560   1.373
79804SOL    HW141309   8.292   3.538   1.300
79804SOL    HW241310   8.255   3.652   1.392
79805SOL     OW41311   5.833  10.865   7.995
79805SOL    HW141312   5.742  10.856   7.966
79805SOL    HW241313   5.840  10.809   8.072
79806SOL     OW41314  13.441  10.472   1.313
79806SOL    HW141315  13.525  10.517   1.302
79806SOL    HW241316  13.376  10.542   1.304
79807SOL     OW41317   2.711  13.504  11.330
79807SOL    HW141318   2.772  13.437  11.300
79807SOL    HW241319   2.761  13.554  11.395
79808SOL     OW41320  11.150  13.400   6.705
79808SOL    HW141321  11.240  13.416   6.732
79808SOL    HW241322  11.114  13.344   6.774
79809SOL     OW41323  12.256   9.402  12.585
79809SOL    HW141324  12.205   9.341  12.531
79809SOL    HW241325  12.214   9.398  12.671
79810SOL     OW41326   9.596   6.157   5.871
79810SOL    HW141327   9.666   6.122   5.817
79810SOL    HW241328   9.641   6.217   5.932
79811SOL     OW41329  10.683  14.176   7.781
79811SOL    HW141330  10.646  14.091   7.803
79811SOL    HW241331  10.777  14.165   7.793
79812SOL     OW41332   1.061   3.965   7.352
79812SOL    HW141333   1.074   3.872   7.368
79812SOL    HW241334   1.019   3.998   7.431
79813SOL     OW41335   2.296   6.741   7.115
79813SOL    HW141336   2.363   6.756   7.049
79813SOL    HW241337   2.313   6.808   7.182
79814SOL     OW41338   8.925   3.628   5.523
79814SOL    HW141339   8.962   3.715   5.512
79814SOL    HW241340   8.897   3.601   5.436
79815SOL     OW41341  14.503   5.391  11.874
79815SOL    HW141342  14.470   5.399  11.785
79815SOL    HW241343  14.455   5.458  11.923
79816SOL     OW41344  11.213   0.889  14.245
79816SOL    HW141345  11.275   0.954  14.211
79816SOL    HW241346  11.195   0.917  14.334
79817SOL     OW41347  13.184   0.430  14.386
79817SOL    HW141348  13.185   0.473  14.300
79817SOL    HW241349  13.127   0.485  14.439
79818SOL     OW41350   4.127  10.343  10.206
79818SOL    HW141351   4.165  10.386  10.130
79818SOL    HW241352   4.121  10.411  10.272
79819SOL     OW41353  14.872   9.534  11.709
79819SOL    HW141354   0.077   9.540  11.665
79819SOL    HW241355  14.830   9.619  11.693
79820SOL     OW41356  12.356   2.049   6.219
79820SOL    HW141357  12.377   1.983   6.284
79820SOL    HW241358  12.437   2.064   6.172
79821SOL     OW41359  12.350   0.537  13.184
79821SOL    HW141360  12.384   0.450  13.161
79821SOL    HW241361  12.374   0.548  13.276
79822SOL     OW41362   6.130   2.961  11.398
79822SOL    HW141363   6.085   3.042  11.375
79822SOL    HW241364   6.178   2.937  11.318
79823SOL     OW41365   5.274   4.747   3.547
79823SOL    HW141366   5.294   4.733   3.455
79823SOL    HW241367   5.179   4.759   3.549
79824SOL     OW41368   1.208  11.612   3.845
79824SOL    HW141369   1.117  11.636   3.863
79824SOL    HW241370   1.228  11.654   3.761
79825SOL     OW41371   6.338   6.687  14.159
79825SOL    HW141372   6.367   6.696  14.068
79825SOL    HW241373   6.245   6.710  14.158
79826SOL     OW41374   1.095   4.916  12.406
79826SOL    HW141375   1.127   4.830  12.431
79826SOL    HW241376   1.005   4.919  12.437
79827SOL     OW41377   3.659   3.990   3.217
79827SOL    HW141378   3.714   4.005   3.140
79827SOL    HW241379   3.690   4.055   3.281
79828SOL     OW41380  12.678   3.678   6.592
79828SOL    HW141381  12.753   3.669   6.651
79828SOL    HW241382  12.608   3.630   6.637
79829SOL     OW41383  12.960  12.112   6.724
79829SOL    HW141384  12.962  12.175   6.796
79829SOL    HW241385  13.050  12.112   6.689
79830SOL     OW41386  11.064  14.396   7.503
79830SOL    HW141387  11.082  14.308   7.535
79830SOL    HW241388  11.065  14.387   7.408
79831SOL     OW41389  10.811   2.975   9.465
79831SOL    HW141390  10.889   2.973   9.520
79831SOL    HW241391  10.812   2.893   9.417
79832SOL     OW41392   5.458   6.877  10.201
79832SOL    HW141393   5.432   6.808  10.140
79832SOL    HW241394   5.375   6.912  10.234
79833SOL     OW41395   3.828   2.841  10.138
79833SOL    HW141396   3.819   2.918  10.081
79833SOL    HW241397   3.776   2.773  10.095
79834SOL     OW41398   1.875   9.117  13.650
79834SOL    HW141399   1.944   9.097  13.713
79834SOL    HW241400   1.898   9.066  13.572
79835SOL     OW41401  12.446   7.059   2.217
79835SOL    HW141402  12.481   7.129   2.162
79835SOL    HW241403  12.399   7.002   2.155
79836SOL     OW41404   8.932   3.939   5.302
79836SOL    HW141405   8.980   4.014   5.267
79836SOL    HW241406   8.842   3.950   5.270
79837SOL     OW41407  13.215  13.405  12.228
79837SOL    HW141408  13.125  13.401  12.262
79837SOL    HW241409  13.239  13.314  12.214
79838SOL     OW41410  11.840   3.560  12.367
79838SOL    HW141411  11.757   3.557  12.414
79838SOL    HW241412  11.889   3.631  12.408
79839SOL     OW41413   1.182  10.674   0.719
79839SOL    HW141414   1.143  10.761   0.707
79839SOL    HW241415   1.263  10.677   0.669
79840SOL     OW41416  11.816   2.236   0.733
79840SOL    HW141417  11.877   2.224   0.805
79840SOL    HW241418  11.857   2.191   0.659
79841SOL     OW41419   7.288   3.896   5.039
79841SOL    HW141420   7.351   3.924   5.106
79841SOL    HW241421   7.295   3.962   4.970
79842SOL     OW41422  11.172   1.410   1.110
79842SOL    HW141423  11.138   1.321   1.120
79842SOL    HW241424  11.265   1.398   1.090
79843SOL     OW41425   0.567   3.422  13.924
79843SOL    HW141426   0.530   3.384  13.844
79843SOL    HW241427   0.552   3.516  13.915
79844SOL     OW41428   1.743  11.688   1.899
79844SOL    HW141429   1.816  11.749   1.908
79844SOL    HW241430   1.691  11.701   1.978
79845SOL     OW41431  10.276   2.558   7.908
79845SOL    HW141432  10.284   2.514   7.993
79845SOL    HW241433  10.348   2.621   7.907
79846SOL     OW41434   7.394  10.039   6.309
79846SOL    HW141435   7.347  10.122   6.304
79846SOL    HW241436   7.332   9.977   6.348
79847SOL     OW41437  14.495  12.594   1.671
79847SOL    HW141438  14.474  12.568   1.581
79847SOL    HW241439  14.487  12.513   1.722
79848SOL     OW41440  12.308   6.869   8.296
79848SOL    HW141441  12.264   6.925   8.360
79848SOL    HW241442  12.374   6.822   8.346
79849SOL     OW41443   1.861   7.265   1.250
79849SOL    HW141444   1.837   7.356   1.267
79849SOL    HW241445   1.802   7.214   1.306
79850SOL     OW41446   1.230   7.555   1.322
79850SOL    HW141447   1.200   7.575   1.410
79850SOL    HW241448   1.255   7.641   1.286
79851SOL     OW41449   5.152   2.361   6.767
79851SOL    HW141450   5.059   2.365   6.787
79851SOL    HW241451   5.181   2.277   6.802
79852SOL     OW41452   0.968   4.419   1.950
79852SOL    HW141453   1.060   4.430   1.973
79852SOL    HW241454   0.971   4.387   1.859
79853SOL     OW41455  11.104   5.979  14.423
79853SOL    HW141456  11.096   5.884  14.433
79853SOL    HW241457  11.156   5.991  14.344
79854SOL     OW41458   7.178   6.511  14.606
79854SOL    HW141459   7.112   6.455  14.647
79854SOL    HW241460   7.131   6.556  14.536
79855SOL     OW41461   5.565  13.450   3.569
79855SOL    HW141462   5.497  13.513   3.545
79855SOL    HW241463   5.608  13.429   3.487
79856SOL     OW41464  11.394   8.080  10.645
79856SOL    HW141465  11.358   8.022  10.577
79856SOL    HW241466  11.413   8.161  10.599
79857SOL     OW41467   1.297   5.825   4.424
79857SOL    HW141468   1.244   5.885   4.371
79857SOL    HW241469   1.262   5.833   4.512
79858SOL     OW41470  11.276   3.787  11.357
79858SOL    HW141471  11.189   3.808  11.391
79858SOL    HW241472  11.266   3.703  11.313
79859SOL     OW41473   2.667  10.152   0.545
79859SOL    HW141474   2.634  10.114   0.463
79859SOL    HW241475   2.677  10.245   0.525
79860SOL     OW41476   4.231   2.610   7.013
79860SOL    HW141477   4.212   2.518   7.030
79860SOL    HW241478   4.325   2.619   7.030
79861SOL     OW41479   0.910   8.855  10.838
79861SOL    HW141480   0.896   8.775  10.889
79861SOL    HW241481   0.822   8.890  10.823
79862SOL     OW41482  14.058  13.447   3.787
79862SOL    HW141483  14.059  13.537   3.821
79862SOL    HW241484  14.090  13.455   3.697
79863SOL     OW41485  12.202  14.805  12.065
79863SOL    HW141486  12.277  14.803  12.125
79863SOL    HW241487  12.155  14.724  12.082
79864SOL     OW41488   6.739   9.617   6.317
79864SOL    HW141489   6.705   9.573   6.239
79864SOL    HW241490   6.828   9.642   6.293
79865SOL     OW41491  14.672  11.124  14.212
79865SOL    HW141492  14.648  11.059  14.278
79865SOL    HW241493  14.670  11.077  14.129
79866SOL     OW41494  11.840   7.942  11.862
79866SOL    HW141495  11.897   7.958  11.786
79866SOL    HW241496  11.775   7.880  11.830
79867SOL     OW41497   5.132   3.443   0.908
79867SOL    HW141498   5.070   3.370   0.918
79867SOL    HW241499   5.146   3.475   0.997
79868SOL     OW41500   3.842   2.646  13.532
79868SOL    HW141501   3.779   2.582  13.498
79868SOL    HW241502   3.823   2.651  13.626
79869SOL     OW41503   3.822  13.686  14.646
79869SOL    HW141504   3.889  13.754  14.639
79869SOL    HW241505   3.871  13.605  14.663
79870SOL     OW41506   8.487  14.400   5.495
79870SOL    HW141507   8.564  14.457   5.485
79870SOL    HW241508   8.493  14.367   5.585
79871SOL     OW41509   4.236   9.373  11.552
79871SOL    HW141510   4.221   9.331  11.467
79871SOL    HW241511   4.327   9.352  11.573
79872SOL     OW41512   2.233  10.660   3.952
79872SOL    HW141513   2.254  10.753   3.945
79872SOL    HW241514   2.154  10.657   4.005
79873SOL     OW41515  13.789   6.380   5.387
79873SOL    HW141516  13.705   6.354   5.348
79873SOL    HW241517  13.774   6.471   5.414
79874SOL     OW41518   4.912   4.392   2.474
79874SOL    HW141519   4.836   4.342   2.503
79874SOL    HW241520   4.877   4.479   2.454
79875SOL     OW41521   2.286   9.554   3.542
79875SOL    HW141522   2.279   9.519   3.631
79875SOL    HW241523   2.378   9.578   3.533
79876SOL     OW41524   5.189  13.026   2.358
79876SOL    HW141525   5.140  13.024   2.440
79876SOL    HW241526   5.141  12.968   2.299
79877SOL     OW41527   8.387   2.781  10.683
79877SOL    HW141528   8.369   2.708  10.623
79877SOL    HW241529   8.349   2.857  10.640
79878SOL     OW41530   6.681   6.810   0.527
79878SOL    HW141531   6.715   6.896   0.504
79878SOL    HW241532   6.594   6.807   0.486
79879SOL     OW41533   5.931   1.544   2.049
79879SOL    HW141534   5.865   1.499   1.996
79879SOL    HW241535   5.933   1.633   2.014
79880SOL     OW41536   3.278  10.971  13.221
79880SOL    HW141537   3.186  10.989  13.239
79880SOL    HW241538   3.279  10.880  13.193
79881SOL     OW41539   9.330   1.878   0.478
79881SOL    HW141540   9.329   1.880   0.383
79881SOL    HW241541   9.411   1.834   0.501
79882SOL     OW41542  10.635   3.353  11.596
79882SOL    HW141543  10.717   3.359  11.547
79882SOL    HW241544  10.652   3.401  11.677
79883SOL     OW41545   1.757  11.383  10.083
79883SOL    HW141546   1.847  11.411  10.096
79883SOL    HW241547   1.761  11.322  10.010
79884SOL     OW41548   0.753   5.140  13.848
79884SOL    HW141549   0.811   5.216  13.850
79884SOL    HW241550   0.735   5.121  13.940
79885SOL     OW41551  12.803  13.699   8.514
79885SOL    HW141552  12.724  13.710   8.461
79885SOL    HW241553  12.834  13.611   8.492
79886SOL     OW41554   7.105   7.814  10.902
79886SOL    HW141555   7.033   7.876  10.914
79886SOL    HW241556   7.165   7.857  10.842
79887SOL     OW41557   6.026  14.195   6.586
79887SOL    HW141558   6.017  14.104   6.557
79887SOL    HW241559   5.958  14.242   6.538
79888SOL     OW41560   0.565   2.292   9.574
79888SOL    HW141561   0.622   2.364   9.600
79888SOL    HW241562   0.522   2.323   9.494
79889SOL     OW41563   3.050   1.852   0.960
79889SOL    HW141564   3.123   1.811   1.006
79889SOL    HW241565   3.058   1.945   0.981
79890SOL     OW41566  10.348  10.274   9.884
79890SOL    HW141567  10.401  10.196   9.905
79890SOL    HW241568  10.356  10.329   9.962
79891SOL     OW41569   2.920  11.018  14.663
79891SOL    HW141570   2.935  11.079  14.735
79891SOL    HW241571   3.004  10.974  14.651
79892SOL     OW41572   3.867   2.338   7.914
79892SOL    HW141573   3.905   2.387   7.987
79892SOL    HW241574   3.864   2.247   7.945
79893SOL     OW41575  13.981   4.001  11.225
79893SOL    HW141576  14.034   4.080  11.228
79893SOL    HW241577  13.992   3.961  11.311
79894SOL     OW41578   4.468   0.313  12.407
79894SOL    HW141579   4.386   0.322  12.455
79894SOL    HW241580   4.460   0.373  12.333
79895SOL     OW41581  11.353  14.626  10.319
79895SOL    HW141582  11.304  14.633  10.237
79895SOL    HW241583  11.414  14.554  10.305
79896SOL     OW41584   3.190   9.768   1.869
79896SOL    HW141585   3.192   9.823   1.947
79896SOL    HW241586   3.105   9.786   1.829
79897SOL     OW41587   7.623   9.954   2.456
79897SOL    HW141588   7.546  10.004   2.428
79897SOL    HW241589   7.646   9.901   2.380
79898SOL     OW41590   5.730  12.430   1.375
79898SOL    HW141591   5.803  12.477   1.334
79898SOL    HW241592   5.772  12.376   1.443
79899SOL     OW41593  11.256   4.193  11.383
79899SOL    HW141594  11.206   4.163  11.459
79899SOL    HW241595  11.303   4.271  11.415
79900SOL     OW41596   2.496   1.008   4.678
79900SOL    HW141597   2.436   1.047   4.742
79900SOL    HW241598   2.573   1.065   4.680
79901SOL     OW41599  10.961   9.154  14.513
79901SOL    HW141600  10.984   9.241  14.546
79901SOL    HW241601  10.866   9.155  14.507
79902SOL     OW41602  11.901   9.192   9.446
79902SOL    HW141603  11.978   9.199   9.389
79902SOL    HW241604  11.836   9.247   9.403
79903SOL     OW41605   8.842   2.475   3.505
79903SOL    HW141606   8.760   2.517   3.477
79903SOL    HW241607   8.909   2.542   3.489
79904SOL     OW41608  14.086   2.504  13.248
79904SOL    HW141609  14.068   2.558  13.170
79904SOL    HW241610  14.118   2.566  13.313
79905SOL     OW41611   2.677  13.349   8.205
79905SOL    HW141612   2.626  13.408   8.262
79905SOL    HW241613   2.663  13.262   8.242
79906SOL     OW41614   3.354  10.422   1.706
79906SOL    HW141615   3.428  10.483   1.709
79906SOL    HW241616   3.391  10.340   1.675
79907SOL     OW41617   6.553   2.322  10.175
79907SOL    HW141618   6.497   2.389  10.212
79907SOL    HW241619   6.608   2.368  10.112
79908SOL     OW41620   5.603  10.182   3.377
79908SOL    HW141621   5.563  10.235   3.447
79908SOL    HW241622   5.695  10.174   3.403
79909SOL     OW41623   3.732  11.788   1.727
79909SOL    HW141624   3.784  11.761   1.803
79909SOL    HW241625   3.698  11.706   1.692
79910SOL     OW41626  10.612  13.626  14.182
79910SOL    HW141627  10.537  13.567  14.188
79910SOL    HW241628  10.658  13.615  14.265
79911SOL     OW41629  10.891   5.538   3.293
79911SOL    HW141630  10.813   5.495   3.326
79911SOL    HW241631  10.960   5.472   3.300
79912SOL     OW41632   1.576   2.080   3.402
79912SOL    HW141633   1.586   2.134   3.324
79912SOL    HW241634   1.515   2.011   3.376
79913SOL     OW41635   1.252   3.849   0.593
79913SOL    HW141636   1.196   3.859   0.516
79913SOL    HW241637   1.200   3.885   0.665
79914SOL     OW41638   3.346  10.790   0.245
79914SOL    HW141639   3.279  10.743   0.196
79914SOL    HW241640   3.376  10.859   0.185
79915SOL     OW41641   2.777  13.080  10.053
79915SOL    HW141642   2.696  13.033  10.072
79915SOL    HW241643   2.749  13.165  10.019
79916SOL     OW41644   3.120  14.697   4.563
79916SOL    HW141645   3.119  14.729   4.653
79916SOL    HW241646   3.213  14.695   4.540
79917SOL     OW41647   9.090   6.412   7.397
79917SOL    HW141648   9.154   6.366   7.451
79917SOL    HW241649   9.024   6.444   7.460
79918SOL     OW41650   5.276  12.009   4.575
79918SOL    HW141651   5.183  11.986   4.584
79918SOL    HW241652   5.323  11.934   4.611
79919SOL     OW41653   0.220   4.961   2.498
79919SOL    HW141654   0.213   4.885   2.440
79919SOL    HW241655   0.163   4.940   2.573
79920SOL     OW41656   0.447  14.094  12.718
79920SOL    HW141657   0.356  14.090  12.685
79920SOL    HW241658   0.441  14.146  12.797
79921SOL     OW41659   4.795   7.490   3.398
79921SOL    HW141660   4.827   7.561   3.453
79921SOL    HW241661   4.870   7.430   3.391
79922SOL     OW41662   2.259   7.720  11.794
79922SOL    HW141663   2.312   7.668  11.735
79922SOL    HW241664   2.211   7.780  11.737
79923SOL     OW41665   7.050  11.091  14.159
79923SOL    HW141666   7.002  11.010  14.143
79923SOL    HW241667   7.022  11.150  14.089
79924SOL     OW41668   1.011   6.291   5.613
79924SOL    HW141669   0.989   6.356   5.546
79924SOL    HW241670   0.950   6.309   5.685
79925SOL     OW41671  11.462   9.877   6.666
79925SOL    HW141672  11.548   9.855   6.700
79925SOL    HW241673  11.475   9.959   6.618
79926SOL     OW41674  11.256   3.282  11.670
79926SOL    HW141675  11.214   3.350  11.618
79926SOL    HW241676  11.338   3.262  11.624
79927SOL     OW41677   0.615  12.417   0.109
79927SOL    HW141678   0.659  12.501   0.123
79927SOL    HW241679   0.539  12.419   0.167
79928SOL     OW41680   4.798   0.428  12.509
79928SOL    HW141681   4.800   0.370  12.433
79928SOL    HW241682   4.790   0.516  12.473
79929SOL     OW41683  14.774   6.450   5.761
79929SOL    HW141684  14.739   6.409   5.840
79929SOL    HW241685  14.834   6.384   5.725
79930SOL     OW41686  11.783   3.674   6.196
79930SOL    HW141687  11.827   3.655   6.278
79930SOL    HW241688  11.709   3.730   6.220
79931SOL     OW41689   2.398   6.474   0.188
79931SOL    HW141690   2.388   6.553   0.241
79931SOL    HW241691   2.369   6.500   0.101
79932SOL     OW41692   5.373   9.837   7.869
79932SOL    HW141693   5.439   9.770   7.853
79932SOL    HW241694   5.295   9.807   7.822
79933SOL     OW41695   3.258   9.919   7.541
79933SOL    HW141696   3.171   9.946   7.509
79933SOL    HW241697   3.301  10.002   7.563
79934SOL     OW41698  13.214  13.570   9.726
79934SOL    HW141699  13.135  13.517   9.729
79934SOL    HW241700  13.277  13.516   9.677
79935SOL     OW41701   2.225   5.303  13.013
79935SOL    HW141702   2.281   5.229  13.034
79935SOL    HW241703   2.266   5.378  13.057
79936SOL     OW41704   5.950   3.961   8.534
79936SOL    HW141705   5.895   3.937   8.460
79936SOL    HW241706   6.015   3.890   8.540
79937SOL     OW41707  11.916   1.274   5.649
79937SOL    HW141708  11.897   1.279   5.742
79937SOL    HW241709  11.984   1.207   5.642
79938SOL     OW41710   5.618   9.397   0.184
79938SOL    HW141711   5.542   9.444   0.150
79938SOL    HW241712   5.693   9.447   0.151
79939SOL     OW41713   7.578   0.269   9.732
79939SOL    HW141714   7.599   0.199   9.670
79939SOL    HW241715   7.523   0.330   9.683
79940SOL     OW41716   6.343  13.890  11.048
79940SOL    HW141717   6.346  13.985  11.033
79940SOL    HW241718   6.252  13.866  11.030
79941SOL     OW41719   3.463   3.032  12.641
79941SOL    HW141720   3.535   3.072  12.691
79941SOL    HW241721   3.390   3.092  12.652
79942SOL     OW41722   9.398   3.199   7.121
79942SOL    HW141723   9.444   3.131   7.170
79942SOL    HW241724   9.386   3.270   7.183
79943SOL     OW41725   9.238  12.620  10.291
79943SOL    HW141726   9.184  12.667  10.228
79943SOL    HW241727   9.188  12.541  10.311
79944SOL     OW41728   5.076   4.794   6.440
79944SOL    HW141729   4.980   4.800   6.448
79944SOL    HW241730   5.109   4.867   6.492
79945SOL     OW41731  10.263   6.101   5.251
79945SOL    HW141732  10.265   6.017   5.205
79945SOL    HW241733  10.292   6.079   5.340
79946SOL     OW41734   9.048   7.676   0.885
79946SOL    HW141735   9.078   7.755   0.930
79946SOL    HW241736   9.037   7.611   0.955
79947SOL     OW41737   5.879   3.608   3.736
79947SOL    HW141738   5.787   3.619   3.713
79947SOL    HW241739   5.880   3.536   3.799
79948SOL     OW41740  13.958   9.848  12.791
79948SOL    HW141741  13.953   9.942  12.771
79948SOL    HW241742  13.881   9.830  12.844
79949SOL     OW41743  12.722   6.648  13.101
79949SOL    HW141744  12.730   6.585  13.029
79949SOL    HW241745  12.643   6.621  13.148
79950SOL     OW41746   4.611  11.767   3.840
79950SOL    HW141747   4.625  11.791   3.932
79950SOL    HW241748   4.642  11.843   3.791
79951SOL     OW41749   5.838   4.289  13.155
79951SOL    HW141750   5.897   4.242  13.214
79951SOL    HW241751   5.854   4.381  13.173
79952SOL     OW41752   5.861   5.485  10.782
79952SOL    HW141753   5.867   5.529  10.867
79952SOL    HW241754   5.799   5.414  10.796
79953SOL     OW41755  11.505   3.350   4.214
79953SOL    HW141756  11.410   3.365   4.220
79953SOL    HW241757  11.525   3.364   4.121
79954SOL     OW41758   5.029   2.878   4.423
79954SOL    HW141759   5.043   2.850   4.332
79954SOL    HW241760   5.040   2.973   4.420
79955SOL     OW41761   2.807   6.529   8.820
79955SOL    HW141762   2.883   6.582   8.842
79955SOL    HW241763   2.759   6.521   8.902
79956SOL     OW41764  10.283   8.083  12.260
79956SOL    HW141765  10.216   8.081  12.191
79956SOL    HW241766  10.320   8.171  12.253
79957SOL     OW41767   0.734  11.575   6.149
79957SOL    HW141768   0.762  11.484   6.161
79957SOL    HW241769   0.761  11.598   6.061
79958SOL     OW41770   1.147  11.509   0.319
79958SOL    HW141771   1.234  11.540   0.345
79958SOL    HW241772   1.121  11.449   0.389
79959SOL     OW41773   8.985   0.850  14.626
79959SOL    HW141774   8.938   0.864  14.544
79959SOL    HW241775   8.979   0.755  14.641
79960SOL     OW41776   1.656  14.392   2.208
79960SOL    HW141777   1.672  14.361   2.119
79960SOL    HW241778   1.561  14.393   2.217
79961SOL     OW41779  14.152  14.449   3.923
79961SOL    HW141780  14.132  14.449   4.017
79961SOL    HW241781  14.236  14.494   3.916
79962SOL     OW41782   6.207   8.560   4.082
79962SOL    HW141783   6.200   8.626   4.013
79962SOL    HW241784   6.287   8.582   4.128
79963SOL     OW41785   4.184   6.433   4.359
79963SOL    HW141786   4.198   6.341   4.379
79963SOL    HW241787   4.122   6.433   4.286
79964SOL     OW41788  13.880   9.240  10.209
79964SOL    HW141789  13.853   9.246  10.117
79964SOL    HW241790  13.809   9.280  10.258
79965SOL     OW41791   8.996  14.343   3.210
79965SOL    HW141792   8.965  14.305   3.292
79965SOL    HW241793   8.920  14.341   3.152
79966SOL     OW41794   1.792   4.287  10.553
79966SOL    HW141795   1.814   4.355  10.616
79966SOL    HW241796   1.837   4.313  10.473
79967SOL     OW41797   1.484   2.733  14.624
79967SOL    HW141798   1.419   2.762  14.560
79967SOL    HW241799   1.564   2.718  14.572
79968SOL     OW41800   6.022  13.426  13.827
79968SOL    HW141801   5.931  13.456  13.839
79968SOL    HW241802   6.066  13.451  13.908
79969SOL     OW41803   0.526   4.877   1.489
79969SOL    HW141804   0.565   4.957   1.525
79969SOL    HW241805   0.600   4.818   1.476
79970SOL     OW41806   5.247   6.520   5.904
79970SOL    HW141807   5.261   6.565   5.821
79970SOL    HW241808   5.174   6.460   5.887
79971SOL     OW41809   1.268  14.316   2.504
79971SOL    HW141810   1.265  14.406   2.471
79971SOL    HW241811   1.176  14.289   2.505
79972SOL     OW41812   7.484  10.623  11.787
79972SOL    HW141813   7.473  10.691  11.853
79972SOL    HW241814   7.450  10.661  11.706
79973SOL     OW41815   4.131   5.232  10.729
79973SOL    HW141816   4.125   5.154  10.674
79973SOL    HW241817   4.130   5.305  10.667
79974SOL     OW41818  13.042   9.422   0.126
79974SOL    HW141819  13.018   9.330   0.130
79974SOL    HW241820  12.966   9.468   0.162
79975SOL     OW41821   5.595  11.227  11.062
79975SOL    HW141822   5.577  11.225  10.968
79975SOL    HW241823   5.610  11.135  11.085
79976SOL     OW41824  13.535   7.391  14.528
79976SOL    HW141825  13.497   7.478  14.513
79976SOL    HW241826  13.627   7.409  14.548
79977SOL     OW41827   1.072   3.264  12.082
79977SOL    HW141828   0.999   3.272  12.021
79977SOL    HW241829   1.033   3.273  12.168
79978SOL     OW41830   9.127   3.434   5.575
79978SOL    HW141831   9.056   3.499   5.576
79978SOL    HW241832   9.145   3.420   5.482
79979SOL     OW41833   7.948   9.089   3.037
79979SOL    HW141834   7.893   9.166   3.021
79979SOL    HW241835   7.972   9.058   2.950
79980SOL     OW41836   0.042   4.239  12.975
79980SOL    HW141837  14.852   4.209  12.917
79980SOL    HW241838   0.052   4.332  12.955
79981SOL     OW41839  12.999  13.365   6.708
79981SOL    HW141840  12.975  13.419   6.632
79981SOL    HW241841  12.958  13.409   6.782
79982SOL     OW41842   1.272  11.297   4.154
79982SOL    HW141843   1.196  11.285   4.097
79982SOL    HW241844   1.236  11.290   4.243
79983SOL     OW41845  10.977  13.049   4.022
79983SOL    HW141846  10.965  13.029   4.114
79983SOL    HW241847  11.071  13.067   4.013
79984SOL     OW41848  14.350   4.795   4.251
79984SOL    HW141849  14.388   4.815   4.165
79984SOL    HW241850  14.423   4.805   4.312
79985SOL     OW41851   2.342   9.577   7.685
79985SOL    HW141852   2.254   9.563   7.720
79985SOL    HW241853   2.372   9.658   7.728
79986SOL     OW41854   3.704  10.712   4.075
79986SOL    HW141855   3.669  10.623   4.072
79986SOL    HW241856   3.779  10.707   4.134
79987SOL     OW41857   1.543  10.032   5.646
79987SOL    HW141858   1.551  10.113   5.695
79987SOL    HW241859   1.450  10.009   5.654
79988SOL     OW41860   8.048  13.417   6.039
79988SOL    HW141861   8.137  13.447   6.020
79988SOL    HW241862   8.030  13.447   6.128
79989SOL     OW41863   0.663  13.478   7.569
79989SOL    HW141864   0.755  13.479   7.596
79989SOL    HW241865   0.659  13.409   7.503
79990SOL     OW41866   7.868  11.884  11.758
79990SOL    HW141867   7.906  11.804  11.796
79990SOL    HW241868   7.942  11.929  11.719
79991SOL     OW41869   6.246  13.860   2.473
79991SOL    HW141870   6.332  13.864   2.514
79991SOL    HW241871   6.232  13.949   2.439
79992SOL     OW41872  13.227  12.427   3.798
79992SOL    HW141873  13.169  12.487   3.844
79992SOL    HW241874  13.223  12.346   3.847
79993SOL     OW41875   3.662  10.615   6.806
79993SOL    HW141876   3.753  10.613   6.835
79993SOL    HW241877   3.662  10.568   6.722
79994SOL     OW41878   9.806  12.637   0.196
79994SOL    HW141879   9.775  12.727   0.192
79994SOL    HW241880   9.729  12.586   0.222
79995SOL     OW41881   8.329   8.393  10.097
79995SOL    HW141882   8.368   8.312  10.064
79995SOL    HW241883   8.380   8.414  10.175
79996SOL     OW41884   4.169   1.615   5.619
79996SOL    HW141885   4.128   1.669   5.687
79996SOL    HW241886   4.262   1.621   5.637
79997SOL     OW41887  13.029  14.441   1.430
79997SOL    HW141888  12.938  14.436   1.401
79997SOL    HW241889  13.032  14.519   1.485
79998SOL     OW41890   7.687   9.970   4.034
79998SOL    HW141891   7.622  10.032   3.999
79998SOL    HW241892   7.644   9.933   4.111
79999SOL     OW41893   7.122   1.986   6.683
79999SOL    HW141894   7.060   2.057   6.667
79999SOL    HW241895   7.093   1.946   6.765
80000SOL     OW41896   7.790  12.333   1.268
80000SOL    HW141897   7.791  12.286   1.352
80000SOL    HW241898   7.803  12.264   1.203
80001SOL     OW41899  11.370  11.009  12.893
80001SOL    HW141900  11.364  11.036  12.985
80001SOL    HW241901  11.283  10.974  12.874
80002SOL     OW41902   1.382  14.182   2.050
80002SOL    HW141903   1.433  14.117   2.002
80002SOL    HW241904   1.292  14.154   2.041
80003SOL     OW41905  14.182   9.373  10.687
80003SOL    HW141906  14.243   9.445  10.702
80003SOL    HW241907  14.123   9.375  10.762
80004SOL     OW41908  13.263   9.975   8.151
80004SOL    HW141909  13.319   9.912   8.198
80004SOL    HW241910  13.191   9.921   8.117
80005SOL     OW41911  13.959   0.362   1.857
80005SOL    HW141912  13.908   0.430   1.901
80005SOL    HW241913  14.041   0.405   1.832
80006SOL     OW41914   9.008  14.530   7.100
80006SOL    HW141915   8.991  14.437   7.112
80006SOL    HW241916   8.936  14.561   7.046
80007SOL     OW41917  13.506   4.992   6.393
80007SOL    HW141918  13.458   4.914   6.366
80007SOL    HW241919  13.518   5.042   6.312
80008SOL     OW41920   0.045   2.978   9.160
80008SOL    HW141921   0.111   2.920   9.198
80008SOL    HW241922   0.037   2.948   9.069
80009SOL     OW41923  12.240   1.434  11.551
80009SOL    HW141924  12.245   1.513  11.497
80009SOL    HW241925  12.330   1.419  11.580
80010SOL     OW41926   7.588   0.212   0.892
80010SOL    HW141927   7.527   0.202   0.965
80010SOL    HW241928   7.546   0.276   0.835
80011SOL     OW41929   7.814   0.911   3.087
80011SOL    HW141930   7.832   1.004   3.076
80011SOL    HW241931   7.743   0.893   3.025
80012SOL     OW41932   3.576   6.441   1.710
80012SOL    HW141933   3.496   6.493   1.703
80012SOL    HW241934   3.598   6.417   1.620
80013SOL     OW41935   0.305   5.655   8.448
80013SOL    HW141936   0.239   5.721   8.469
80013SOL    HW241937   0.389   5.701   8.457
80014SOL     OW41938  11.941  13.384  12.692
80014SOL    HW141939  12.002  13.449  12.728
80014SOL    HW241940  11.997  13.324  12.642
80015SOL     OW41941   7.166   7.723   9.468
80015SOL    HW141942   7.192   7.638   9.432
80015SOL    HW241943   7.074   7.732   9.444
80016SOL     OW41944  12.614  14.271  13.528
80016SOL    HW141945  12.611  14.366  13.530
80016SOL    HW241946  12.542  14.246  13.471
80017SOL     OW41947   5.219  10.763   4.370
80017SOL    HW141948   5.155  10.709   4.322
80017SOL    HW241949   5.285  10.785   4.304
80018SOL     OW41950   2.390  12.715   9.586
80018SOL    HW141951   2.479  12.747   9.599
80018SOL    HW241952   2.337  12.793   9.578
80019SOL     OW41953  14.569   1.871  12.368
80019SOL    HW141954  14.536   1.887  12.279
80019SOL    HW241955  14.657   1.910  12.368
80020SOL     OW41956   6.166   9.781  10.715
80020SOL    HW141957   6.166   9.871  10.681
80020SOL    HW241958   6.089   9.777  10.772
80021SOL     OW41959  10.391  10.497   4.582
80021SOL    HW141960  10.415  10.495   4.674
80021SOL    HW241961  10.329  10.424   4.572
80022SOL     OW41962   8.294  10.787  11.005
80022SOL    HW141963   8.339  10.860  11.047
80022SOL    HW241964   8.242  10.828  10.936
80023SOL     OW41965  11.772   3.968   7.168
80023SOL    HW141966  11.713   3.967   7.093
80023SOL    HW241967  11.797   4.060   7.177
80024SOL     OW41968   6.895  13.835   0.973
80024SOL    HW141969   6.889  13.887   0.893
80024SOL    HW241970   6.829  13.766   0.962
80025SOL     OW41971  10.111   5.936  11.168
80025SOL    HW141972  10.092   5.848  11.134
80025SOL    HW241973  10.099   5.994  11.093
80026SOL     OW41974   2.793   7.440   4.462
80026SOL    HW141975   2.877   7.470   4.498
80026SOL    HW241976   2.766   7.369   4.520
80027SOL     OW41977   2.476  11.351   5.609
80027SOL    HW141978   2.420  11.277   5.630
80027SOL    HW241979   2.487  11.397   5.692
80028SOL     OW41980   1.718   8.549   5.070
80028SOL    HW141981   1.637   8.570   5.022
80028SOL    HW241982   1.728   8.622   5.131
80029SOL     OW41983   0.678  12.656   8.370
80029SOL    HW141984   0.753  12.682   8.317
80029SOL    HW241985   0.620  12.733   8.369
80030SOL     OW41986   2.272   7.013   7.809
80030SOL    HW141987   2.225   7.093   7.786
80030SOL    HW241988   2.287   6.969   7.726
80031SOL     OW41989   3.032  13.726   0.393
80031SOL    HW141990   3.014  13.820   0.396
80031SOL    HW241991   3.118  13.720   0.351
80032SOL     OW41992   3.474   9.960  12.852
80032SOL    HW141993   3.533  10.018  12.899
80032SOL    HW241994   3.393  10.011  12.842
80033SOL     OW41995   3.854   0.981  12.625
80033SOL    HW141996   3.909   0.924  12.571
80033SOL    HW241997   3.764   0.956  12.603
80034SOL     OW41998   0.255   1.525  14.419
80034SOL    HW141999   0.230   1.441  14.459
80034SOL    HW242000   0.181   1.548  14.362
80035SOL     OW42001  11.475  14.422  14.429
80035SOL    HW142002  11.385  14.394  14.445
80035SOL    HW242003  11.522  14.399  14.509
80036SOL     OW42004   7.244  14.718   6.460
80036SOL    HW142005   7.261  14.659   6.387
80036SOL    HW242006   7.217  14.800   6.418
80037SOL     OW42007  11.724  12.595   8.813
80037SOL    HW142008  11.732  12.531   8.743
80037SOL    HW242009  11.634  12.627   8.807
80038SOL     OW42010   4.541   9.494  10.316
80038SOL    HW142011   4.618   9.440  10.295
80038SOL    HW242012   4.561   9.579  10.278
80039SOL     OW42013   9.475   1.778   4.488
80039SOL    HW142014   9.398   1.741   4.531
80039SOL    HW242015   9.539   1.791   4.558
80040SOL     OW42016  14.774   1.674  14.747
80040SOL    HW142017  14.725   1.754  14.764
80040SOL    HW242018  14.712   1.617  14.702
80041SOL     OW42019  10.326   5.284   7.691
80041SOL    HW142020  10.351   5.304   7.601
80041SOL    HW242021  10.232   5.262   7.686
80042SOL     OW42022   5.290  12.613   8.311
80042SOL    HW142023   5.299  12.519   8.327
80042SOL    HW242024   5.380  12.645   8.303
80043SOL     OW42025   2.924   8.672  10.406
80043SOL    HW142026   2.893   8.741  10.466
80043SOL    HW242027   2.857   8.605  10.409
80044SOL     OW42028   0.925  12.547   4.407
80044SOL    HW142029   0.925  12.462   4.452
80044SOL    HW242030   1.006  12.589   4.435
80045SOL     OW42031  13.243  13.401   4.969
80045SOL    HW142032  13.273  13.355   4.890
80045SOL    HW242033  13.189  13.338   5.016
80046SOL     OW42034  13.819  11.428   7.323
80046SOL    HW142035  13.729  11.457   7.306
80046SOL    HW242036  13.864  11.507   7.353
80047SOL     OW42037  11.441  10.667   0.989
80047SOL    HW142038  11.486  10.634   0.911
80047SOL    HW242039  11.365  10.714   0.954
80048SOL     OW42040   6.454   8.383   2.288
80048SOL    HW142041   6.443   8.300   2.333
80048SOL    HW242042   6.541   8.377   2.248
80049SOL     OW42043   6.250  14.643   5.946
80049SOL    HW142044   6.161  14.623   5.918
80049SOL    HW242045   6.303  14.570   5.913
80050SOL     OW42046   2.225   5.834   6.111
80050SOL    HW142047   2.241   5.808   6.020
80050SOL    HW242048   2.200   5.926   6.105
80051SOL     OW42049   6.741   8.407   4.230
80051SOL    HW142050   6.650   8.393   4.253
80051SOL    HW242051   6.781   8.446   4.308
80052SOL     OW42052   0.200   0.012  13.484
80052SOL    HW142053   0.118  14.853  13.513
80052SOL    HW242054   0.180   0.048  13.397
80053SOL     OW42055  12.311  13.653   3.436
80053SOL    HW142056  12.220  13.624   3.430
80053SOL    HW242057  12.331  13.688   3.349
80054SOL     OW42058  12.939   9.607   4.592
80054SOL    HW142059  12.913   9.647   4.510
80054SOL    HW242060  12.859   9.604   4.644
80055SOL     OW42061   6.105  14.730  14.742
80055SOL    HW142062   6.157  14.776  14.808
80055SOL    HW242063   6.035  14.687  14.792
80056SOL     OW42064   3.883  13.947  10.737
80056SOL    HW142065   3.847  14.036  10.745
80056SOL    HW242066   3.870  13.908  10.823
80057SOL     OW42067   8.888   4.868   9.925
80057SOL    HW142068   8.845   4.783   9.930
80057SOL    HW242069   8.977   4.851   9.959
80058SOL     OW42070   0.027   7.669   9.034
80058SOL    HW142071   0.093   7.724   8.991
80058SOL    HW242072  14.823   7.699   8.998
80059SOL     OW42073   1.643   3.635   3.842
80059SOL    HW142074   1.678   3.701   3.781
80059SOL    HW242075   1.678   3.659   3.927
80060SOL     OW42076  14.054   1.685   3.317
80060SOL    HW142077  14.045   1.652   3.227
80060SOL    HW242078  14.140   1.652   3.346
80061SOL     OW42079  10.285  10.881   7.549
80061SOL    HW142080  10.262  10.803   7.500
80061SOL    HW242081  10.357  10.921   7.500
80062SOL     OW42082   4.614   2.916   9.057
80062SOL    HW142083   4.705   2.911   9.085
80062SOL    HW242084   4.612   2.988   8.993
80063SOL     OW42085   3.245   6.871  13.603
80063SOL    HW142086   3.202   6.934  13.545
80063SOL    HW242087   3.330   6.911  13.622
80064SOL     OW42088   7.931  13.498   6.730
80064SOL    HW142089   7.849  13.466   6.694
80064SOL    HW242090   7.933  13.464   6.820
80065SOL     OW42091   6.246  12.861   0.029
80065SOL    HW142092   6.276  12.820  14.827
80065SOL    HW242093   6.183  12.798   0.065
80066SOL     OW42094   5.764   8.740   9.755
80066SOL    HW142095   5.789   8.708   9.668
80066SOL    HW242096   5.672   8.764   9.746
80067SOL     OW42097   2.039   9.945   2.461
80067SOL    HW142098   2.042   9.854   2.430
80067SOL    HW242099   1.968   9.984   2.411
80068SOL     OW42100  14.303   9.890   8.336
80068SOL    HW142101  14.296   9.801   8.371
80068SOL    HW242102  14.217   9.908   8.299
80069SOL     OW42103  14.845   5.712  12.807
80069SOL    HW142104  14.847   5.617  12.796
80069SOL    HW242105  14.766   5.729  12.858
80070SOL     OW42106   3.864   3.624  12.821
80070SOL    HW142107   3.951   3.587  12.803
80070SOL    HW242108   3.814   3.605  12.741
80071SOL     OW42109   9.121   7.226  13.521
80071SOL    HW142110   9.155   7.251  13.606
80071SOL    HW242111   9.028   7.208  13.536
80072SOL     OW42112   8.054   4.370   3.323
80072SOL    HW142113   8.111   4.348   3.250
80072SOL    HW242114   8.114   4.389   3.395
80073SOL     OW42115  11.845   7.600   8.227
80073SOL    HW142116  11.893   7.633   8.150
80073SOL    HW242117  11.754   7.597   8.198
80074SOL     OW42118   5.771   1.286   6.909
80074SOL    HW142119   5.710   1.298   6.836
80074SOL    HW242120   5.759   1.195   6.936
80075SOL     OW42121  12.179   7.665   6.467
80075SOL    HW142122  12.091   7.680   6.435
80075SOL    HW242123  12.197   7.741   6.523
80076SOL     OW42124   5.377   3.168   4.242
80076SOL    HW142125   5.381   3.109   4.166
80076SOL    HW242126   5.287   3.162   4.273
80077SOL     OW42127   2.517  11.261  11.447
80077SOL    HW142128   2.506  11.336  11.505
80077SOL    HW242129   2.440  11.207  11.463
80078SOL     OW42130   1.334   8.987   9.036
80078SOL    HW142131   1.249   8.989   8.991
80078SOL    HW242132   1.392   8.943   8.974
80079SOL     OW42133   4.607   5.722  10.859
80079SOL    HW142134   4.550   5.720  10.782
80079SOL    HW242135   4.614   5.631  10.886
80080SOL     OW42136  14.207   8.755  12.329
80080SOL    HW142137  14.266   8.785  12.398
80080SOL    HW242138  14.255   8.683  12.287
80081SOL     OW42139   6.386   7.358   1.180
80081SOL    HW142140   6.316   7.402   1.229
80081SOL    HW242141   6.458   7.350   1.243
80082SOL     OW42142   3.882   2.546   8.696
80082SOL    HW142143   3.827   2.495   8.635
80082SOL    HW242144   3.937   2.481   8.738
80083SOL     OW42145  10.910   4.751  14.157
80083SOL    HW142146  10.831   4.803  14.167
80083SOL    HW242147  10.980   4.816  14.147
80084SOL     OW42148   6.487   8.289   6.113
80084SOL    HW142149   6.551   8.339   6.164
80084SOL    HW242150   6.402   8.322   6.143
80085SOL     OW42151  12.864   6.741   5.962
80085SOL    HW142152  12.855   6.809   5.895
80085SOL    HW242153  12.945   6.696   5.940
80086SOL     OW42154   2.228  14.084  14.624
80086SOL    HW142155   2.212  14.168  14.581
80086SOL    HW242156   2.173  14.086  14.702
80087SOL     OW42157  13.540  11.525   1.005
80087SOL    HW142158  13.546  11.430   1.014
80087SOL    HW242159  13.473  11.538   0.938
80088SOL     OW42160  10.063   1.326  14.049
80088SOL    HW142161  10.028   1.277  14.123
80088SOL    HW242162  10.006   1.303  13.976
80089SOL     OW42163   0.798  11.875   8.834
80089SOL    HW142164   0.868  11.924   8.792
80089SOL    HW242165   0.822  11.873   8.927
80090SOL     OW42166   2.164   4.930   2.416
80090SOL    HW142167   2.224   5.005   2.410
80090SOL    HW242168   2.083   4.968   2.452
80091SOL     OW42169  10.331   6.432  10.513
80091SOL    HW142170  10.411   6.412  10.562
80091SOL    HW242171  10.362   6.458  10.426
80092SOL     OW42172   3.425   6.543   8.672
80092SOL    HW142173   3.475   6.619   8.643
80092SOL    HW242174   3.490   6.482   8.706
80093SOL     OW42175  13.966   7.183  11.329
80093SOL    HW142176  13.878   7.161  11.360
80093SOL    HW242177  13.994   7.107  11.279
80094SOL     OW42178   9.829   0.676  12.337
80094SOL    HW142179   9.815   0.581  12.338
80094SOL    HW242180   9.799   0.704  12.251
80095SOL     OW42181  13.089   9.994   6.797
80095SOL    HW142182  13.086  10.068   6.737
80095SOL    HW242183  13.081   9.917   6.741
80096SOL     OW42184   8.164   2.559  13.794
80096SOL    HW142185   8.147   2.475  13.836
80096SOL    HW242186   8.112   2.557  13.714
80097SOL     OW42187   4.774  11.312   1.454
80097SOL    HW142188   4.790  11.367   1.531
80097SOL    HW242189   4.723  11.368   1.395
80098SOL     OW42190  13.331  11.414   3.728
80098SOL    HW142191  13.247  11.368   3.725
80098SOL    HW242192  13.392  11.349   3.762
80099SOL     OW42193   7.041  11.038  13.669
80099SOL    HW142194   6.978  11.093  13.622
80099SOL    HW242195   6.997  10.953  13.676
80100SOL     OW42196   0.105   8.347  12.395
80100SOL    HW142197   0.059   8.384  12.470
80100SOL    HW242198   0.163   8.418  12.365
80101SOL     OW42199   5.221  10.220  10.172
80101SOL    HW142200   5.206  10.199  10.264
80101SOL    HW242201   5.293  10.162  10.146
80102SOL     OW42202  10.296  11.734   4.498
80102SOL    HW142203  10.369  11.715   4.439
80102SOL    HW242204  10.300  11.665   4.564
80103SOL     OW42205   7.458   5.272   2.196
80103SOL    HW142206   7.391   5.270   2.265
80103SOL    HW242207   7.522   5.335   2.228
80104SOL     OW42208  13.284  13.674   2.751
80104SOL    HW142209  13.256  13.737   2.684
80104SOL    HW242210  13.250  13.709   2.833
80105SOL     OW42211   4.696  11.752   5.278
80105SOL    HW142212   4.771  11.709   5.318
80105SOL    HW242213   4.711  11.745   5.184
80106SOL     OW42214   8.555  10.584   8.430
80106SOL    HW142215   8.571  10.512   8.492
80106SOL    HW242216   8.496  10.547   8.364
80107SOL     OW42217   4.013   9.765   5.443
80107SOL    HW142218   4.037   9.773   5.351
80107SOL    HW242219   4.016   9.854   5.477
80108SOL     OW42220   5.125   9.382   0.563
80108SOL    HW142221   5.095   9.340   0.482
80108SOL    HW242222   5.092   9.326   0.633
80109SOL     OW42223   5.550   6.544  12.611
80109SOL    HW142224   5.589   6.457  12.618
80109SOL    HW242225   5.619   6.598  12.572
80110SOL     OW42226   8.680  11.082   8.265
80110SOL    HW142227   8.752  11.024   8.289
80110SOL    HW242228   8.679  11.081   8.170
80111SOL     OW42229   0.868   5.567   4.309
80111SOL    HW142230   0.776   5.581   4.331
80111SOL    HW242231   0.866   5.507   4.235
80112SOL     OW42232   9.958   6.687   2.558
80112SOL    HW142233   9.945   6.712   2.649
80112SOL    HW242234   9.870   6.690   2.519
80113SOL     OW42235   7.450   3.139   8.551
80113SOL    HW142236   7.522   3.146   8.614
80113SOL    HW242237   7.486   3.170   8.469
80114SOL     OW42238   0.648   6.629  10.585
80114SOL    HW142239   0.635   6.535  10.570
80114SOL    HW242240   0.624   6.670  10.502
80115SOL     OW42241   6.839  13.552   4.353
80115SOL    HW142242   6.927  13.574   4.382
80115SOL    HW242243   6.783  13.572   4.428
80116SOL     OW42244   2.978   1.418   8.863
80116SOL    HW142245   2.960   1.324   8.871
80116SOL    HW242246   3.050   1.434   8.925
80117SOL     OW42247   1.389  11.460   0.078
80117SOL    HW142248   1.301  11.433   0.102
80117SOL    HW242249   1.383  11.555   0.070
80118SOL     OW42250   6.444   2.844  11.345
80118SOL    HW142251   6.376   2.778  11.334
80118SOL    HW242252   6.466   2.841  11.438
80119SOL     OW42253   9.498   4.420   3.286
80119SOL    HW142254   9.586   4.458   3.295
80119SOL    HW242255   9.456   4.472   3.217
80120SOL     OW42256   1.974  11.130  12.269
80120SOL    HW142257   2.008  11.090  12.348
80120SOL    HW242258   1.925  11.206  12.299
80121SOL     OW42259   0.676   7.923  13.352
80121SOL    HW142260   0.655   7.867  13.277
80121SOL    HW242261   0.745   7.877  13.398
80122SOL     OW42262   6.340   1.562  14.479
80122SOL    HW142263   6.264   1.505  14.463
80122SOL    HW242264   6.415   1.504  14.468
80123SOL     OW42265  13.823   2.074   3.222
80123SOL    HW142266  13.881   2.113   3.287
80123SOL    HW242267  13.776   2.148   3.185
80124SOL     OW42268   5.207   5.710  11.298
80124SOL    HW142269   5.299   5.686  11.292
80124SOL    HW242270   5.175   5.706  11.207
80125SOL     OW42271  13.237   6.418   5.665
80125SOL    HW142272  13.225   6.486   5.598
80125SOL    HW242273  13.271   6.343   5.617
80126SOL     OW42274   8.623  10.079  10.036
80126SOL    HW142275   8.655  10.117   9.953
80126SOL    HW242276   8.546  10.132  10.058
80127SOL     OW42277  12.690  14.193  10.545
80127SOL    HW142278  12.654  14.280  10.534
80127SOL    HW242279  12.616  14.139  10.571
80128SOL     OW42280  11.088   6.491  12.386
80128SOL    HW142281  11.038   6.452  12.314
80128SOL    HW242282  11.078   6.585  12.373
80129SOL     OW42283   5.530  13.628   8.073
80129SOL    HW142284   5.533  13.583   7.988
80129SOL    HW242285   5.445  13.672   8.073
80130SOL     OW42286   6.957  14.056   7.719
80130SOL    HW142287   7.020  14.073   7.789
80130SOL    HW242288   6.885  14.009   7.762
80131SOL     OW42289  10.197   4.081  12.495
80131SOL    HW142290  10.195   4.158  12.437
80131SOL    HW242291  10.283   4.086  12.537
80132SOL     OW42292   0.368   0.459  12.876
80132SOL    HW142293   0.391   0.518  12.804
80132SOL    HW242294   0.293   0.409  12.842
80133SOL     OW42295   6.976  11.014   7.054
80133SOL    HW142296   6.909  10.955   7.088
80133SOL    HW242297   6.955  11.099   7.093
80134SOL     OW42298   9.193  13.739  13.997
80134SOL    HW142299   9.196  13.644  13.988
80134SOL    HW242300   9.124  13.767  13.937
80135SOL     OW42301   4.033   0.761  11.851
80135SOL    HW142302   3.955   0.788  11.803
80135SOL    HW242303   4.028   0.809  11.934
80136SOL     OW42304   8.396   0.152  11.139
80136SOL    HW142305   8.400   0.225  11.201
80136SOL    HW242306   8.383   0.075  11.194
80137SOL     OW42307   8.123   0.180   4.779
80137SOL    HW142308   8.200   0.236   4.770
80137SOL    HW242309   8.150   0.096   4.740
80138SOL     OW42310   7.084  11.117   0.276
80138SOL    HW142311   7.058  11.200   0.235
80138SOL    HW242312   7.015  11.055   0.252
80139SOL     OW42313   9.074   7.930   5.452
80139SOL    HW142314   9.061   7.870   5.379
80139SOL    HW242315   9.081   7.874   5.529
80140SOL     OW42316  11.394   2.462   4.281
80140SOL    HW142317  11.483   2.444   4.250
80140SOL    HW242318  11.404   2.478   4.375
80141SOL     OW42319   6.970   0.112   2.754
80141SOL    HW142320   6.972   0.205   2.773
80141SOL    HW242321   6.878   0.088   2.760
80142SOL     OW42322   6.149  10.648   6.008
80142SOL    HW142323   6.129  10.659   6.101
80142SOL    HW242324   6.136  10.734   5.970
80143SOL     OW42325   0.330   7.484   5.950
80143SOL    HW142326   0.295   7.512   6.034
80143SOL    HW242327   0.424   7.500   5.956
80144SOL     OW42328   9.854   0.889  12.508
80144SOL    HW142329   9.807   0.877  12.590
80144SOL    HW242330   9.857   0.802  12.469
80145SOL     OW42331  11.281  11.476   3.259
80145SOL    HW142332  11.211  11.460   3.195
80145SOL    HW242333  11.236  11.481   3.343
80146SOL     OW42334   6.039  10.659   2.186
80146SOL    HW142335   6.131  10.683   2.174
80146SOL    HW242336   6.039  10.594   2.256
80147SOL     OW42337   9.755   1.473  14.164
80147SOL    HW142338   9.799   1.392  14.192
80147SOL    HW242339   9.751   1.526  14.244
80148SOL     OW42340  11.135   6.857   2.619
80148SOL    HW142341  11.076   6.929   2.599
80148SOL    HW242342  11.157   6.819   2.534
80149SOL     OW42343   3.451   0.283  14.462
80149SOL    HW142344   3.500   0.204  14.438
80149SOL    HW242345   3.438   0.276  14.556
80150SOL     OW42346   4.292  11.247   6.271
80150SOL    HW142347   4.258  11.336   6.285
80150SOL    HW242348   4.229  11.206   6.212
80151SOL     OW42349  10.253   3.445   0.033
80151SOL    HW142350  10.229   3.530   0.071
80151SOL    HW242351  10.349   3.444   0.034
80152SOL     OW42352   3.852   1.781   3.132
80152SOL    HW142353   3.934   1.826   3.114
80152SOL    HW242354   3.878   1.691   3.154
80153SOL     OW42355   6.624  12.345   2.534
80153SOL    HW142356   6.542  12.391   2.547
80153SOL    HW242357   6.602  12.270   2.479
80154SOL     OW42358   8.400   0.102   2.671
80154SOL    HW142359   8.466   0.037   2.646
80154SOL    HW242360   8.347   0.114   2.592
80155SOL     OW42361   2.684   9.588  11.577
80155SOL    HW142362   2.775   9.566  11.558
80155SOL    HW242363   2.689   9.665  11.634
80156SOL     OW42364   2.913   2.318   4.788
80156SOL    HW142365   2.908   2.255   4.860
80156SOL    HW242366   2.843   2.381   4.807
80157SOL     OW42367   7.994   9.290   2.500
80157SOL    HW142368   7.996   9.196   2.514
80157SOL    HW242369   8.030   9.327   2.581
80158SOL     OW42370   1.752   3.130  10.914
80158SOL    HW142371   1.821   3.077  10.875
80158SOL    HW242372   1.721   3.079  10.989
80159SOL     OW42373   4.874   0.731   7.569
80159SOL    HW142374   4.864   0.816   7.613
80159SOL    HW242375   4.923   0.678   7.631
80160SOL     OW42376   5.802   4.168   9.403
80160SOL    HW142377   5.845   4.104   9.459
80160SOL    HW242378   5.771   4.236   9.463
80161SOL     OW42379   1.519   5.652   8.975
80161SOL    HW142380   1.501   5.579   9.033
80161SOL    HW242381   1.521   5.729   9.033
80162SOL     OW42382   3.098   9.752   0.427
80162SOL    HW142383   3.093   9.727   0.335
80162SOL    HW242384   3.013   9.729   0.463
80163SOL     OW42385   9.120  12.151   7.214
80163SOL    HW142386   9.104  12.065   7.177
80163SOL    HW242387   9.178  12.135   7.289
80164SOL     OW42388   4.889  10.316  10.219
80164SOL    HW142389   4.899  10.364  10.301
80164SOL    HW242390   4.932  10.371  10.153
80165SOL     OW42391   1.044   2.119   5.467
80165SOL    HW142392   0.991   2.185   5.422
80165SOL    HW242393   1.124   2.165   5.491
80166SOL     OW42394   0.655  11.800   9.738
80166SOL    HW142395   0.689  11.889   9.744
80166SOL    HW242396   0.733  11.745   9.745
80167SOL     OW42397  10.493  10.898   3.636
80167SOL    HW142398  10.583  10.875   3.613
80167SOL    HW242399  10.449  10.814   3.651
80168SOL     OW42400   9.688   0.164   0.414
80168SOL    HW142401   9.645   0.081   0.434
80168SOL    HW242402   9.628   0.231   0.447
80169SOL     OW42403   4.170   3.842  12.899
80169SOL    HW142404   4.209   3.928  12.887
80169SOL    HW242405   4.137   3.843  12.989
80170SOL     OW42406   5.963   6.405  10.369
80170SOL    HW142407   6.038   6.353  10.399
80170SOL    HW242408   5.945   6.465  10.441
80171SOL     OW42409   4.727   1.167  11.709
80171SOL    HW142410   4.792   1.104  11.676
80171SOL    HW242411   4.643   1.121  11.702
80172SOL     OW42412   8.417  14.738   8.705
80172SOL    HW142413   8.470  14.783   8.639
80172SOL    HW242414   8.453  14.650   8.710
80173SOL     OW42415  10.956   2.982   1.639
80173SOL    HW142416  11.001   3.066   1.632
80173SOL    HW242417  10.868   2.998   1.604
80174SOL     OW42418   3.444   2.106  10.892
80174SOL    HW142419   3.528   2.139  10.924
80174SOL    HW242420   3.443   2.014  10.917
80175SOL     OW42421   8.113  13.760   6.982
80175SOL    HW142422   8.164  13.766   6.901
80175SOL    HW242423   8.102  13.851   7.010
80176SOL     OW42424   6.832   0.363   8.903
80176SOL    HW142425   6.873   0.449   8.911
80176SOL    HW242426   6.745   0.381   8.867
80177SOL     OW42427  10.870  14.592   6.977
80177SOL    HW142428  10.796  14.634   7.021
80177SOL    HW242429  10.853  14.606   6.884
80178SOL     OW42430   8.851   2.115   1.025
80178SOL    HW142431   8.814   2.031   1.053
80178SOL    HW242432   8.811   2.131   0.940
80179SOL     OW42433   6.181  12.297   9.818
80179SOL    HW142434   6.256  12.335   9.863
80179SOL    HW242435   6.108  12.308   9.880
80180SOL     OW42436  14.452   1.552   4.668
80180SOL    HW142437  14.437   1.613   4.597
80180SOL    HW242438  14.411   1.470   4.639
80181SOL     OW42439  13.045   7.965   1.828
80181SOL    HW142440  13.044   8.060   1.824
80181SOL    HW242441  13.137   7.941   1.826
80182SOL     OW42442   7.910   2.781  13.771
80182SOL    HW142443   7.948   2.869  13.779
80182SOL    HW242444   7.836   2.792  13.711
80183SOL     OW42445  11.437  13.945   4.469
80183SOL    HW142446  11.487  14.024   4.449
80183SOL    HW242447  11.488  13.874   4.431
80184SOL     OW42448   2.050   7.025  13.395
80184SOL    HW142449   2.107   6.952  13.376
80184SOL    HW242450   2.094   7.101  13.357
80185SOL     OW42451   4.113   7.470   0.978
80185SOL    HW142452   4.054   7.479   0.903
80185SOL    HW242453   4.127   7.559   1.010
80186SOL     OW42454  11.923   9.354   9.104
80186SOL    HW142455  11.843   9.382   9.059
80186SOL    HW242456  11.974   9.434   9.113
80187SOL     OW42457   3.604   6.643  11.020
80187SOL    HW142458   3.587   6.631  11.114
80187SOL    HW242459   3.682   6.699  11.018
80188SOL     OW42460  13.617   7.354  13.801
80188SOL    HW142461  13.556   7.297  13.756
80188SOL    HW242462  13.656   7.408  13.732
80189SOL     OW42463   1.733   7.899  11.330
80189SOL    HW142464   1.638   7.905  11.330
80189SOL    HW242465   1.753   7.824  11.386
80190SOL     OW42466   1.213   1.826   8.491
80190SOL    HW142467   1.253   1.907   8.458
80190SOL    HW242468   1.174   1.786   8.414
80191SOL     OW42469   5.818  12.811  10.842
80191SOL    HW142470   5.781  12.819  10.754
80191SOL    HW242471   5.741  12.803  10.900
80192SOL     OW42472   8.420   6.285  12.297
80192SOL    HW142473   8.412   6.290  12.202
80192SOL    HW242474   8.502   6.239  12.312
80193SOL     OW42475   6.893   9.370  12.176
80193SOL    HW142476   6.880   9.453  12.222
80193SOL    HW242477   6.988   9.354  12.181
80194SOL     OW42478   7.728  11.010   7.857
80194SOL    HW142479   7.804  11.066   7.846
80194SOL    HW242480   7.696  10.993   7.768
80195SOL     OW42481  14.749  14.340   7.567
80195SOL    HW142482  14.818  14.405   7.564
80195SOL    HW242483  14.669  14.387   7.542
80196SOL     OW42484   9.660  11.095   6.681
80196SOL    HW142485   9.641  11.176   6.728
80196SOL    HW242486   9.578  11.072   6.638
80197SOL     OW42487  11.804   6.550   5.033
80197SOL    HW142488  11.742   6.613   5.068
80197SOL    HW242489  11.793   6.472   5.087
80198SOL     OW42490  14.103   9.106   9.146
80198SOL    HW142491  14.166   9.178   9.152
80198SOL    HW242492  14.055   9.123   9.065
80199SOL     OW42493  14.236   3.319  11.378
80199SOL    HW142494  14.317   3.342  11.424
80199SOL    HW242495  14.201   3.403  11.347
80200SOL     OW42496   0.140   1.701  10.928
80200SOL    HW142497   0.103   1.649  10.999
80200SOL    HW242498   0.159   1.637  10.859
80201SOL     OW42499   6.092  11.694   3.944
80201SOL    HW142500   6.002  11.680   3.973
80201SOL    HW242501   6.089  11.777   3.896
80202SOL     OW42502   2.766   9.735  10.407
80202SOL    HW142503   2.796   9.826  10.412
80202SOL    HW242504   2.846   9.683  10.416
80203SOL     OW42505   3.773   9.589   1.759
80203SOL    HW142506   3.854   9.631   1.787
80203SOL    HW242507   3.802   9.520   1.699
80204SOL     OW42508   1.883   0.073   5.205
80204SOL    HW142509   1.802   0.118   5.180
80204SOL    HW242510   1.924   0.049   5.121
80205SOL     OW42511  10.818   7.270   1.104
80205SOL    HW142512  10.769   7.335   1.054
80205SOL    HW242513  10.843   7.204   1.039
80206SOL     OW42514   3.470   5.161   2.610
80206SOL    HW142515   3.483   5.075   2.569
80206SOL    HW242516   3.413   5.144   2.685
80207SOL     OW42517  11.290  12.344  11.760
80207SOL    HW142518  11.206  12.301  11.777
80207SOL    HW242519  11.356  12.277  11.779
80208SOL     OW42520   2.428   5.638  10.928
80208SOL    HW142521   2.410   5.730  10.947
80208SOL    HW242522   2.364   5.590  10.981
80209SOL     OW42523   9.153   5.264   2.607
80209SOL    HW142524   9.133   5.253   2.700
80209SOL    HW242525   9.073   5.300   2.569
80210SOL     OW42526   0.191   7.831   8.850
80210SOL    HW142527   0.237   7.818   8.767
80210SOL    HW242528   0.230   7.911   8.886
80211SOL     OW42529   2.882  11.780   1.669
80211SOL    HW142530   2.868  11.698   1.715
80211SOL    HW242531   2.821  11.776   1.595
80212SOL     OW42532   8.731  10.739   9.345
80212SOL    HW142533   8.788  10.699   9.410
80212SOL    HW242534   8.753  10.832   9.346
80213SOL     OW42535  14.547  11.640   1.617
80213SOL    HW142536  14.555  11.549   1.645
80213SOL    HW242537  14.593  11.644   1.533
80214SOL     OW42538   6.280  14.269   9.701
80214SOL    HW142539   6.353  14.238   9.755
80214SOL    HW242540   6.318  14.283   9.614
80215SOL     OW42541   0.730  13.965   4.606
80215SOL    HW142542   0.658  14.014   4.567
80215SOL    HW242543   0.724  13.877   4.569
80216SOL     OW42544   6.662   3.569   9.415
80216SOL    HW142545   6.671   3.478   9.443
80216SOL    HW242546   6.661   3.619   9.497
80217SOL     OW42547  13.694   0.954   2.456
80217SOL    HW142548  13.623   0.892   2.442
80217SOL    HW242549  13.677   0.991   2.542
80218SOL     OW42550  10.394  10.428   4.849
80218SOL    HW142551  10.376  10.440   4.943
80218SOL    HW242552  10.374  10.336   4.833
80219SOL     OW42553   7.620  11.470   5.762
80219SOL    HW142554   7.550  11.468   5.829
80219SOL    HW242555   7.682  11.403   5.790
80220SOL     OW42556   3.186   6.757   0.591
80220SOL    HW142557   3.153   6.715   0.511
80220SOL    HW242558   3.124   6.733   0.659
80221SOL     OW42559   1.451   2.261   9.254
80221SOL    HW142560   1.459   2.303   9.340
80221SOL    HW242561   1.535   2.217   9.240
80222SOL     OW42562   9.048  10.194   0.174
80222SOL    HW142563   9.028  10.283   0.147
80222SOL    HW242564   8.964  10.148   0.170
80223SOL     OW42565   1.343   2.556   5.108
80223SOL    HW142566   1.397   2.570   5.030
80223SOL    HW242567   1.405   2.542   5.178
80224SOL     OW42568  12.772   1.812  10.526
80224SOL    HW142569  12.805   1.892  10.566
80224SOL    HW242570  12.702   1.842  10.468
80225SOL     OW42571  10.940  12.861   8.163
80225SOL    HW142572  10.854  12.819   8.156
80225SOL    HW242573  11.001  12.795   8.130
80226SOL     OW42574   2.203   4.611   2.847
80226SOL    HW142575   2.121   4.659   2.837
80226SOL    HW242576   2.185   4.546   2.915
80227SOL     OW42577   0.193  11.692  11.839
80227SOL    HW142578   0.259  11.758  11.860
80227SOL    HW242579   0.211  11.619  11.898
80228SOL     OW42580   0.882   9.453   8.669
80228SOL    HW142581   0.867   9.407   8.751
80228SOL    HW242582   0.923   9.535   8.695
80229SOL     OW42583   0.094   3.861   0.054
80229SOL    HW142584   0.164   3.804   0.086
80229SOL    HW242585   0.106   3.943   0.101
80230SOL     OW42586   1.774  11.101   2.392
80230SOL    HW142587   1.841  11.041   2.424
80230SOL    HW242588   1.722  11.049   2.331
80231SOL     OW42589   9.363   9.663   0.428
80231SOL    HW142590   9.310   9.633   0.502
80231SOL    HW242591   9.315   9.633   0.351
80232SOL     OW42592   6.217   9.006   1.816
80232SOL    HW142593   6.154   9.026   1.746
80232SOL    HW242594   6.294   9.059   1.795
80233SOL     OW42595   2.052   5.932   0.598
80233SOL    HW142596   2.076   5.841   0.581
80233SOL    HW242597   2.094   5.982   0.528
80234SOL     OW42598  11.231   2.938   8.352
80234SOL    HW142599  11.201   2.932   8.261
80234SOL    HW242600  11.195   3.021   8.383
80235SOL     OW42601   1.323  13.185   1.727
80235SOL    HW142602   1.264  13.253   1.759
80235SOL    HW242603   1.400  13.233   1.697
80236SOL     OW42604   4.664   2.406   1.563
80236SOL    HW142605   4.677   2.372   1.474
80236SOL    HW242606   4.585   2.362   1.594
80237SOL     OW42607   4.733   0.421  10.643
80237SOL    HW142608   4.705   0.487  10.705
80237SOL    HW242609   4.727   0.463  10.558
80238SOL     OW42610   4.803  11.695   4.784
80238SOL    HW142611   4.802  11.722   4.876
80238SOL    HW242612   4.718  11.654   4.770
80239SOL     OW42613   5.209  13.320   5.055
80239SOL    HW142614   5.159  13.241   5.034
80239SOL    HW242615   5.241  13.306   5.144
80240SOL     OW42616  12.987   7.253  12.999
80240SOL    HW142617  12.892   7.246  13.008
80240SOL    HW242618  13.022   7.186  13.057
80241SOL     OW42619   1.733  11.186  14.540
80241SOL    HW142620   1.669  11.213  14.606
80241SOL    HW242621   1.718  11.244  14.466
80242SOL     OW42622  14.108   2.495   2.422
80242SOL    HW142623  14.088   2.401   2.429
80242SOL    HW242624  14.080   2.519   2.334
80243SOL     OW42625   1.307   1.881   0.255
80243SOL    HW142626   1.333   1.826   0.181
80243SOL    HW242627   1.314   1.823   0.331
80244SOL     OW42628   2.208   3.604  13.665
80244SOL    HW142629   2.143   3.571  13.602
80244SOL    HW242630   2.292   3.582  13.626
80245SOL     OW42631   1.865   7.633  14.358
80245SOL    HW142632   1.790   7.583  14.325
80245SOL    HW242633   1.828   7.719  14.381
80246SOL     OW42634  14.379  12.425   5.963
80246SOL    HW142635  14.368  12.381   5.878
80246SOL    HW242636  14.350  12.515   5.947
80247SOL     OW42637   4.796   9.258  10.485
80247SOL    HW142638   4.838   9.334  10.525
80247SOL    HW242639   4.772   9.288  10.397
80248SOL     OW42640  11.261   0.507  14.647
80248SOL    HW142641  11.303   0.556  14.576
80248SOL    HW242642  11.266   0.415  14.620
80249SOL     OW42643  12.307  12.637  12.717
80249SOL    HW142644  12.347  12.679  12.793
80249SOL    HW242645  12.316  12.543  12.733
80250SOL     OW42646   1.744   9.807  11.086
80250SOL    HW142647   1.813   9.854  11.133
80250SOL    HW242648   1.725   9.731  11.141
80251SOL     OW42649   0.088   5.440   5.447
80251SOL    HW142650   0.042   5.509   5.399
80251SOL    HW242651   0.171   5.480   5.471
80252SOL     OW42652   1.879  10.734   4.056
80252SOL    HW142653   1.947  10.774   4.111
80252SOL    HW242654   1.797  10.763   4.096
80253SOL     OW42655  13.095  11.936   6.136
80253SOL    HW142656  13.049  11.864   6.180
80253SOL    HW242657  13.168  11.893   6.091
80254SOL     OW42658   1.350   5.655  11.741
80254SOL    HW142659   1.411   5.721  11.775
80254SOL    HW242660   1.404   5.578  11.725
80255SOL     OW42661  12.200   8.429   3.346
80255SOL    HW142662  12.179   8.336   3.342
80255SOL    HW242663  12.242   8.441   3.432
80256SOL     OW42664   4.410   5.765   0.366
80256SOL    HW142665   4.438   5.828   0.433
80256SOL    HW242666   4.446   5.681   0.396
80257SOL     OW42667  10.426   8.140   4.273
80257SOL    HW142668  10.397   8.204   4.338
80257SOL    HW242669  10.428   8.056   4.320
80258SOL     OW42670   8.366   4.552  10.714
80258SOL    HW142671   8.377   4.478  10.773
80258SOL    HW242672   8.448   4.601  10.720
80259SOL     OW42673  10.667   6.664   4.631
80259SOL    HW142674  10.600   6.727   4.605
80259SOL    HW242675  10.629   6.618   4.706
80260SOL     OW42676   1.899  12.510   7.029
80260SOL    HW142677   1.863  12.539   7.113
80260SOL    HW242678   1.948  12.585   6.997
80261SOL     OW42679  13.754   5.596   3.596
80261SOL    HW142680  13.688   5.664   3.581
80261SOL    HW242681  13.757   5.548   3.513
80262SOL     OW42682   3.664  14.837   1.175
80262SOL    HW142683   3.709   0.002   1.247
80262SOL    HW242684   3.609  14.771   1.218
80263SOL     OW42685   1.593  12.576   6.325
80263SOL    HW142686   1.654  12.648   6.343
80263SOL    HW242687   1.649  12.498   6.323
80264SOL     OW42688  13.515   1.434   5.678
80264SOL    HW142689  13.451   1.491   5.637
80264SOL    HW242690  13.483   1.345   5.659
80265SOL     OW42691  13.181   6.118   7.226
80265SOL    HW142692  13.173   6.204   7.267
80265SOL    HW242693  13.275   6.104   7.218
80266SOL     OW42694   0.980  10.424   9.994
80266SOL    HW142695   0.904  10.368   9.976
80266SOL    HW242696   0.951  10.481  10.065
80267SOL     OW42697   5.657   8.278   5.400
80267SOL    HW142698   5.734   8.226   5.375
80267SOL    HW242699   5.592   8.257   5.332
80268SOL     OW42700  13.081   1.771  11.154
80268SOL    HW142701  13.066   1.760  11.060
80268SOL    HW242702  13.164   1.817  11.159
80269SOL     OW42703   7.795   0.031   9.779
80269SOL    HW142704   7.792   0.029   9.875
80269SOL    HW242705   7.754  14.828   9.753
80270SOL     OW42706   2.116  11.989   2.367
80270SOL    HW142707   2.035  12.033   2.392
80270SOL    HW242708   2.186  12.046   2.399
80271SOL     OW42709  12.227   7.079  11.759
80271SOL    HW142710  12.172   7.090  11.836
80271SOL    HW242711  12.236   7.168  11.724
80272SOL     OW42712   5.261   5.799   5.925
80272SOL    HW142713   5.198   5.849   5.872
80272SOL    HW242714   5.330   5.774   5.863
80273SOL     OW42715   9.427   3.145   3.375
80273SOL    HW142716   9.439   3.053   3.353
80273SOL    HW242717   9.354   3.174   3.320
80274SOL     OW42718   5.049  14.164   4.438
80274SOL    HW142719   5.049  14.249   4.394
80274SOL    HW242720   4.982  14.114   4.392
80275SOL     OW42721   2.975   1.557   7.231
80275SOL    HW142722   2.967   1.646   7.264
80275SOL    HW242723   2.886   1.530   7.209
80276SOL     OW42724  13.156  11.402   9.719
80276SOL    HW142725  13.096  11.334   9.688
80276SOL    HW242726  13.099  11.465   9.763
80277SOL     OW42727   2.024   5.501   3.571
80277SOL    HW142728   2.034   5.435   3.640
80277SOL    HW242729   2.052   5.456   3.491
80278SOL     OW42730   9.442   6.955   8.866
80278SOL    HW142731   9.444   6.869   8.824
80278SOL    HW242732   9.427   6.937   8.959
80279SOL     OW42733   4.424  14.801   4.810
80279SOL    HW142734   4.519  14.797   4.816
80279SOL    HW242735   4.406  14.869   4.745
80280SOL     OW42736   8.800   2.434  13.969
80280SOL    HW142737   8.776   2.517  13.927
80280SOL    HW242738   8.881   2.408  13.926
80281SOL     OW42739   3.785   8.998   7.747
80281SOL    HW142740   3.861   8.979   7.691
80281SOL    HW242741   3.820   8.996   7.836
80282SOL     OW42742   7.415   3.922   7.810
80282SOL    HW142743   7.369   3.892   7.732
80282SOL    HW242744   7.410   3.848   7.870
80283SOL     OW42745   7.015   4.745  11.904
80283SOL    HW142746   7.039   4.815  11.844
80283SOL    HW242747   6.956   4.786  11.967
80284SOL     OW42748   5.991   0.936   1.279
80284SOL    HW142749   5.965   1.015   1.233
80284SOL    HW242750   5.959   0.949   1.369
80285SOL     OW42751  11.071   8.559  12.279
80285SOL    HW142752  11.039   8.636  12.325
80285SOL    HW242753  11.070   8.490  12.345
80286SOL     OW42754   5.186  10.374   2.747
80286SOL    HW142755   5.107  10.410   2.788
80286SOL    HW242756   5.229  10.449   2.707
80287SOL     OW42757   7.335   4.072  13.625
80287SOL    HW142758   7.268   4.004  13.611
80287SOL    HW242759   7.394   4.063  13.551
80288SOL     OW42760  14.392   3.974   8.243
80288SOL    HW142761  14.328   3.990   8.174
80288SOL    HW242762  14.461   3.922   8.201
80289SOL     OW42763   3.195  12.037   3.371
80289SOL    HW142764   3.285  12.007   3.358
80289SOL    HW242765   3.197  12.129   3.344
80290SOL     OW42766   5.232  11.427   3.123
80290SOL    HW142767   5.260  11.487   3.055
80290SOL    HW242768   5.137  11.437   3.127
80291SOL     OW42769  12.764   8.789  14.424
80291SOL    HW142770  12.774   8.788  14.329
80291SOL    HW242771  12.807   8.709  14.454
80292SOL     OW42772   8.278   4.948   6.661
80292SOL    HW142773   8.365   4.986   6.656
80292SOL    HW242774   8.232   4.984   6.585
80293SOL     OW42775  14.364  14.243   4.082
80293SOL    HW142776  14.370  14.160   4.036
80293SOL    HW242777  14.377  14.310   4.015
80294SOL     OW42778  10.878   6.876  14.471
80294SOL    HW142779  10.850   6.806  14.411
80294SOL    HW242780  10.940   6.834  14.530
80295SOL     OW42781   9.628   2.684  13.786
80295SOL    HW142782   9.701   2.622  13.782
80295SOL    HW242783   9.661   2.755  13.842
80296SOL     OW42784   9.193  10.008   9.033
80296SOL    HW142785   9.149  10.085   9.071
80296SOL    HW242786   9.142   9.989   8.954
80297SOL     OW42787  13.403   5.354  14.700
80297SOL    HW142788  13.329   5.293  14.709
80297SOL    HW242789  13.369   5.425  14.646
80298SOL     OW42790   7.216   4.420   2.053
80298SOL    HW142791   7.280   4.449   2.117
80298SOL    HW242792   7.138   4.397   2.105
80299SOL     OW42793   5.176   3.565  13.598
80299SOL    HW142794   5.114   3.568  13.525
80299SOL    HW242795   5.156   3.484  13.643
80300SOL     OW42796  11.475  11.718   2.455
80300SOL    HW142797  11.544  11.747   2.395
80300SOL    HW242798  11.509  11.636   2.491
80301SOL     OW42799  13.565  10.159   9.922
80301SOL    HW142800  13.498  10.095   9.948
80301SOL    HW242801  13.647  10.111   9.931
80302SOL     OW42802  11.014   6.823   8.202
80302SOL    HW142803  10.951   6.875   8.154
80302SOL    HW242804  10.965   6.787   8.276
80303SOL     OW42805   2.148  12.122   8.065
80303SOL    HW142806   2.180  12.104   8.153
80303SOL    HW242807   2.059  12.086   8.064
80304SOL     OW42808   9.814   8.846   5.805
80304SOL    HW142809   9.774   8.927   5.775
80304SOL    HW242810   9.901   8.845   5.764
80305SOL     OW42811   2.665  12.217   1.590
80305SOL    HW142812   2.746  12.186   1.631
80305SOL    HW242813   2.618  12.261   1.661
80306SOL     OW42814  12.656   8.236  10.893
80306SOL    HW142815  12.621   8.192  10.971
80306SOL    HW242816  12.579   8.261  10.842
80307SOL     OW42817   3.994  11.101   4.789
80307SOL    HW142818   3.948  11.158   4.728
80307SOL    HW242819   3.957  11.122   4.875
80308SOL     OW42820  11.412  11.283  11.374
80308SOL    HW142821  11.354  11.293  11.299
80308SOL    HW242822  11.374  11.338  11.442
80309SOL     OW42823   1.557  10.285  13.581
80309SOL    HW142824   1.594  10.256  13.497
80309SOL    HW242825   1.631  10.279  13.642
80310SOL     OW42826   3.807  14.175  14.656
80310SOL    HW142827   3.766  14.230  14.723
80310SOL    HW242828   3.755  14.191  14.577
80311SOL     OW42829   4.163  12.737  13.120
80311SOL    HW142830   4.076  12.708  13.149
80311SOL    HW242831   4.153  12.831  13.105
80312SOL     OW42832   4.750  12.357  11.593
80312SOL    HW142833   4.730  12.426  11.657
80312SOL    HW242834   4.743  12.401  11.508
80313SOL     OW42835   3.880   0.571   2.688
80313SOL    HW142836   3.953   0.598   2.633
80313SOL    HW242837   3.916   0.501   2.742
80314SOL     OW42838  10.650   3.395   9.935
80314SOL    HW142839  10.628   3.457  10.005
80314SOL    HW242840  10.686   3.319   9.980
80315SOL     OW42841   9.013  10.208   9.102
80315SOL    HW142842   8.975  10.217   9.014
80315SOL    HW242843   8.939  10.186   9.158
80316SOL     OW42844   8.800  12.095   4.274
80316SOL    HW142845   8.816  12.025   4.337
80316SOL    HW242846   8.862  12.080   4.204
80317SOL     OW42847   2.645  10.064   7.317
80317SOL    HW142848   2.665  10.071   7.224
80317SOL    HW242849   2.640   9.969   7.333
80318SOL     OW42850   8.193   0.560  14.148
80318SOL    HW142851   8.212   0.653  14.134
80318SOL    HW242852   8.213   0.519  14.064
80319SOL     OW42853   4.579   4.859   2.153
80319SOL    HW142854   4.664   4.864   2.197
80319SOL    HW242855   4.553   4.950   2.140
80320SOL     OW42856   3.257   0.796  10.479
80320SOL    HW142857   3.320   0.868  10.483
80320SOL    HW242858   3.304   0.726  10.435
80321SOL     OW42859   4.446   8.879  14.634
80321SOL    HW142860   4.523   8.823  14.630
80321SOL    HW242861   4.470   8.958  14.586
80322SOL     OW42862   6.020   4.694   8.209
80322SOL    HW142863   5.996   4.766   8.151
80322SOL    HW242864   5.970   4.709   8.289
80323SOL     OW42865   7.078   1.567   8.493
80323SOL    HW142866   7.015   1.553   8.563
80323SOL    HW242867   7.149   1.617   8.533
80324SOL     OW42868  11.882   6.606  11.823
80324SOL    HW142869  11.853   6.521  11.791
80324SOL    HW242870  11.902   6.591  11.915
80325SOL     OW42871  11.956   4.201  13.040
80325SOL    HW142872  12.024   4.181  12.975
80325SOL    HW242873  11.927   4.116  13.072
80326SOL     OW42874   8.321   2.968   3.270
80326SOL    HW142875   8.255   2.992   3.335
80326SOL    HW242876   8.392   2.928   3.321
80327SOL     OW42877   3.812  11.477   3.942
80327SOL    HW142878   3.895  11.524   3.936
80327SOL    HW242879   3.833  11.389   3.913
80328SOL     OW42880   3.494  10.518   7.030
80328SOL    HW142881   3.544  10.529   6.949
80328SOL    HW242882   3.519  10.431   7.062
80329SOL     OW42883  14.455   6.228   8.835
80329SOL    HW142884  14.515   6.265   8.900
80329SOL    HW242885  14.420   6.149   8.877
80330SOL     OW42886   5.428  14.010   9.704
80330SOL    HW142887   5.461  14.092   9.666
80330SOL    HW242888   5.444  14.018   9.798
80331SOL     OW42889  13.256   1.469   1.529
80331SOL    HW142890  13.304   1.549   1.508
80331SOL    HW242891  13.273   1.411   1.455
80332SOL     OW42892   6.338   2.494   4.181
80332SOL    HW142893   6.321   2.510   4.274
80332SOL    HW242894   6.400   2.421   4.179
80333SOL     OW42895   1.341   1.424  13.699
80333SOL    HW142896   1.294   1.342  13.716
80333SOL    HW242897   1.273   1.491  13.704
80334SOL     OW42898   4.446  13.100   2.380
80334SOL    HW142899   4.490  13.184   2.388
80334SOL    HW242900   4.372  13.116   2.322
80335SOL     OW42901  11.285  13.355   8.404
80335SOL    HW142902  11.286  13.307   8.321
80335SOL    HW242903  11.193  13.374   8.420
80336SOL     OW42904   5.822  12.719   8.706
80336SOL    HW142905   5.785  12.711   8.794
80336SOL    HW242906   5.778  12.651   8.655
80337SOL     OW42907  13.618   6.095   1.365
80337SOL    HW142908  13.672   6.166   1.399
80337SOL    HW242909  13.676   6.045   1.308
80338SOL     OW42910  12.255   1.343   4.166
80338SOL    HW142911  12.293   1.260   4.141
80338SOL    HW242912  12.302   1.409   4.115
80339SOL     OW42913   5.069   3.579   5.704
80339SOL    HW142914   5.085   3.648   5.640
80339SOL    HW242915   5.031   3.508   5.654
80340SOL     OW42916  10.775   4.997   4.548
80340SOL    HW142917  10.848   4.938   4.566
80340SOL    HW242918  10.697   4.947   4.572
80341SOL     OW42919  11.117   4.176   8.141
80341SOL    HW142920  11.103   4.270   8.152
80341SOL    HW242921  11.030   4.141   8.120
80342SOL     OW42922   4.977   6.822   4.231
80342SOL    HW142923   5.060   6.812   4.185
80342SOL    HW242924   4.918   6.864   4.168
80343SOL     OW42925   9.768  10.771   6.121
80343SOL    HW142926   9.730  10.684   6.130
80343SOL    HW242927   9.712  10.815   6.057
80344SOL     OW42928  10.348   2.193   2.451
80344SOL    HW142929  10.295   2.218   2.527
80344SOL    HW242930  10.292   2.211   2.376
80345SOL     OW42931  14.193   8.186  12.392
80345SOL    HW142932  14.203   8.179  12.487
80345SOL    HW242933  14.110   8.143  12.373
80346SOL     OW42934   3.097   2.875   1.274
80346SOL    HW142935   3.078   2.863   1.181
80346SOL    HW242936   3.154   2.953   1.277
80347SOL     OW42937  14.250  11.775  12.558
80347SOL    HW142938  14.337  11.746  12.528
80347SOL    HW242939  14.254  11.870  12.555
80348SOL     OW42940   2.836  11.757   7.490
80348SOL    HW142941   2.769  11.765   7.558
80348SOL    HW242942   2.789  11.779   7.409
80349SOL     OW42943  11.451   5.057   3.188
80349SOL    HW142944  11.542   5.088   3.185
80349SOL    HW242945  11.445   4.993   3.117
80350SOL     OW42946  13.357  12.331   9.696
80350SOL    HW142947  13.422  12.295   9.635
80350SOL    HW242948  13.342  12.260   9.759
80351SOL     OW42949  11.410   7.482  10.218
80351SOL    HW142950  11.385   7.402  10.264
80351SOL    HW242951  11.337   7.543  10.234
80352SOL     OW42952   0.546   3.768   4.751
80352SOL    HW142953   0.474   3.768   4.687
80352SOL    HW242954   0.610   3.708   4.714
80353SOL     OW42955   0.149   1.389   9.673
80353SOL    HW142956   0.128   1.473   9.632
80353SOL    HW242957   0.143   1.326   9.601
80354SOL     OW42958  11.481   6.770   7.270
80354SOL    HW142959  11.448   6.800   7.354
80354SOL    HW242960  11.476   6.848   7.213
80355SOL     OW42961   8.632  13.797   0.935
80355SOL    HW142962   8.614  13.809   1.028
80355SOL    HW242963   8.545  13.797   0.893
80356SOL     OW42964   6.047   2.442  12.390
80356SOL    HW142965   6.091   2.404  12.466
80356SOL    HW242966   6.097   2.411  12.315
80357SOL     OW42967   3.473   0.947   6.359
80357SOL    HW142968   3.437   0.860   6.374
80357SOL    HW242969   3.511   0.943   6.271
80358SOL     OW42970  12.789  11.806   5.628
80358SOL    HW142971  12.799  11.901   5.616
80358SOL    HW242972  12.818  11.769   5.545
80359SOL     OW42973   6.332  13.004   0.628
80359SOL    HW142974   6.368  13.073   0.572
80359SOL    HW242975   6.237  13.019   0.627
80360SOL     OW42976  12.852   8.343   7.520
80360SOL    HW142977  12.886   8.311   7.437
80360SOL    HW242978  12.829   8.263   7.569
80361SOL     OW42979   9.321   6.621   3.081
80361SOL    HW142980   9.251   6.682   3.103
80361SOL    HW242981   9.278   6.552   3.030
80362SOL     OW42982  12.962   7.809   0.200
80362SOL    HW142983  12.866   7.812   0.197
80362SOL    HW242984  12.983   7.717   0.211
80363SOL     OW42985  11.026   2.623   8.250
80363SOL    HW142986  10.950   2.681   8.263
80363SOL    HW242987  11.009   2.581   8.166
80364SOL     OW42988   8.329   1.540   0.153
80364SOL    HW142989   8.305   1.456   0.114
80364SOL    HW242990   8.357   1.593   0.078
80365SOL     OW42991   1.973   2.595   3.914
80365SOL    HW142992   2.014   2.524   3.865
80365SOL    HW242993   1.949   2.556   3.998
80366SOL     OW42994   5.104   9.867  12.342
80366SOL    HW142995   5.142   9.853  12.255
80366SOL    HW242996   5.035   9.800  12.349
80367SOL     OW42997  11.960   7.156  14.389
80367SOL    HW142998  12.011   7.085  14.429
80367SOL    HW242999  12.015   7.186  14.316
80368SOL     OW43000  11.507  12.446   5.843
80368SOL    HW143001  11.507  12.509   5.771
80368SOL    HW243002  11.421  12.457   5.885
80369SOL     OW43003   3.371  13.358   3.320
80369SOL    HW143004   3.355  13.452   3.319
80369SOL    HW243005   3.285  13.319   3.302
80370SOL     OW43006  10.313   9.624   7.971
80370SOL    HW143007  10.396   9.671   7.967
80370SOL    HW243008  10.246   9.692   7.959
80371SOL     OW43009  13.619   5.930   3.337
80371SOL    HW143010  13.605   5.839   3.314
80371SOL    HW243011  13.712   5.945   3.321
80372SOL     OW43012   6.421   3.684   1.276
80372SOL    HW143013   6.423   3.731   1.360
80372SOL    HW243014   6.481   3.732   1.220
80373SOL     OW43015   2.098  10.872   4.183
80373SOL    HW143016   2.081  10.954   4.231
80373SOL    HW243017   2.177  10.891   4.132
80374SOL     OW43018   6.678   9.079   2.900
80374SOL    HW143019   6.714   9.158   2.941
80374SOL    HW243020   6.750   9.016   2.903
80375SOL     OW43021   7.053   1.394  11.045
80375SOL    HW143022   7.061   1.421  11.137
80375SOL    HW243023   6.959   1.387  11.030
80376SOL     OW43024   2.072   4.858  14.403
80376SOL    HW143025   2.044   4.801  14.331
80376SOL    HW243026   2.140   4.809  14.449
80377SOL     OW43027   9.035   7.392   4.929
80377SOL    HW143028   9.097   7.324   4.904
80377SOL    HW243029   8.968   7.389   4.861
80378SOL     OW43030  11.410   2.529  12.121
80378SOL    HW143031  11.415   2.434  12.129
80378SOL    HW243032  11.330   2.544  12.070
80379SOL     OW43033   1.232   4.887   3.517
80379SOL    HW143034   1.137   4.891   3.522
80379SOL    HW243035   1.257   4.824   3.585
80380SOL     OW43036  12.431   1.335   5.326
80380SOL    HW143037  12.392   1.313   5.410
80380SOL    HW243038  12.525   1.344   5.344
80381SOL     OW43039  14.605   8.668   4.983
80381SOL    HW143040  14.658   8.744   4.962
80381SOL    HW243041  14.665   8.607   5.025
80382SOL     OW43042  13.615   9.453   0.892
80382SOL    HW143043  13.569   9.369   0.895
80382SOL    HW243044  13.558   9.509   0.839
80383SOL     OW43045  13.229  12.504   6.304
80383SOL    HW143046  13.136  12.503   6.325
80383SOL    HW243047  13.272  12.477   6.386
80384SOL     OW43048  11.842  11.686   4.145
80384SOL    HW143049  11.866  11.600   4.179
80384SOL    HW243050  11.893  11.695   4.065
80385SOL     OW43051   2.614   3.297   0.213
80385SOL    HW143052   2.577   3.239   0.279
80385SOL    HW243053   2.555   3.290   0.138
80386SOL     OW43054   8.195   1.216   8.658
80386SOL    HW143055   8.123   1.263   8.616
80386SOL    HW243056   8.160   1.127   8.672
80387SOL     OW43057   3.980   1.201  14.385
80387SOL    HW143058   3.975   1.116  14.342
80387SOL    HW243059   4.005   1.182  14.475
80388SOL     OW43060   7.494   3.750  12.202
80388SOL    HW143061   7.423   3.804  12.167
80388SOL    HW243062   7.531   3.801  12.274
80389SOL     OW43063   3.357   5.656   7.778
80389SOL    HW143064   3.355   5.561   7.784
80389SOL    HW243065   3.321   5.686   7.862
80390SOL     OW43066   3.565  13.507  14.427
80390SOL    HW143067   3.471  13.516  14.414
80390SOL    HW243068   3.574  13.481  14.518
80391SOL     OW43069   9.638  10.784  13.123
80391SOL    HW143070   9.543  10.778  13.112
80391SOL    HW243071   9.654  10.875  13.148
80392SOL     OW43072   1.101   0.195   5.288
80392SOL    HW143073   1.046   0.145   5.348
80392SOL    HW243074   1.059   0.281   5.284
80393SOL     OW43075   7.949   6.718  14.063
80393SOL    HW143076   7.902   6.800  14.072
80393SOL    HW243077   8.028   6.729  14.116
80394SOL     OW43078   9.770   5.897   0.904
80394SOL    HW143079   9.853   5.866   0.867
80394SOL    HW243080   9.702   5.857   0.850
80395SOL     OW43081  10.566   1.463   4.184
80395SOL    HW143082  10.506   1.495   4.117
80395SOL    HW243083  10.653   1.481   4.149
80396SOL     OW43084   4.999   2.155  14.141
80396SOL    HW143085   4.991   2.127  14.232
80396SOL    HW243086   4.920   2.123  14.098
80397SOL     OW43087   6.816   3.380   0.487
80397SOL    HW143088   6.772   3.410   0.567
80397SOL    HW243089   6.746   3.374   0.422
80398SOL     OW43090  11.330   7.754   6.519
80398SOL    HW143091  11.240   7.773   6.543
80398SOL    HW243092  11.338   7.659   6.528
80399SOL     OW43093  11.833   7.235   1.933
80399SOL    HW143094  11.850   7.167   1.998
80399SOL    HW243095  11.759   7.284   1.969
80400SOL     OW43096   1.739   1.552   5.380
80400SOL    HW143097   1.739   1.604   5.461
80400SOL    HW243098   1.656   1.505   5.382
80401SOL     OW43099   9.081   1.939   2.735
80401SOL    HW143100   9.092   1.901   2.822
80401SOL    HW243101   9.124   1.877   2.677
80402SOL     OW43102   2.389   5.775   9.694
80402SOL    HW143103   2.428   5.700   9.649
80402SOL    HW243104   2.298   5.776   9.664
80403SOL     OW43105  10.693   4.445  13.153
80403SOL    HW143106  10.663   4.535  13.161
80403SOL    HW243107  10.760   4.436  13.221
80404SOL     OW43108   5.868  13.328   6.337
80404SOL    HW143109   5.863  13.293   6.426
80404SOL    HW243110   5.884  13.421   6.349
80405SOL     OW43111  12.504  12.674   0.758
80405SOL    HW143112  12.523  12.764   0.782
80405SOL    HW243113  12.570  12.623   0.805
80406SOL     OW43114  12.733   7.273   2.350
80406SOL    HW143115  12.715   7.180   2.361
80406SOL    HW243116  12.693   7.295   2.265
80407SOL     OW43117  14.068   7.136   7.136
80407SOL    HW143118  14.150   7.148   7.184
80407SOL    HW243119  14.078   7.052   7.091
80408SOL     OW43120   4.342   2.976   3.645
80408SOL    HW143121   4.348   3.004   3.737
80408SOL    HW243122   4.420   3.012   3.604
80409SOL     OW43123   6.504   1.912   5.245
80409SOL    HW143124   6.514   1.898   5.339
80409SOL    HW243125   6.491   2.006   5.236
80410SOL     OW43126   0.194  12.205   4.759
80410SOL    HW143127   0.227  12.138   4.818
80410SOL    HW243128   0.100  12.192   4.758
80411SOL     OW43129   1.400   3.043   9.547
80411SOL    HW143130   1.371   2.982   9.614
80411SOL    HW243131   1.442   2.988   9.480
80412SOL     OW43132  11.811   7.794  12.612
80412SOL    HW143133  11.779   7.840  12.534
80412SOL    HW243134  11.793   7.701  12.594
80413SOL     OW43135   0.133   5.980   4.782
80413SOL    HW143136   0.125   6.067   4.820
80413SOL    HW243137   0.079   5.983   4.703
80414SOL     OW43138   5.110  12.700  12.623
80414SOL    HW143139   5.177  12.767  12.637
80414SOL    HW243140   5.068  12.690  12.708
80415SOL     OW43141  12.368   6.056   0.407
80415SOL    HW143142  12.346   5.973   0.364
80415SOL    HW243143  12.456   6.042   0.442
80416SOL     OW43144  13.369  14.229   4.026
80416SOL    HW143145  13.285  14.228   3.981
80416SOL    HW243146  13.376  14.318   4.061
80417SOL     OW43147   3.454   3.357   4.440
80417SOL    HW143148   3.358   3.359   4.439
80417SOL    HW243149   3.479   3.416   4.368
80418SOL     OW43150   8.453   6.131   1.196
80418SOL    HW143151   8.445   6.227   1.200
80418SOL    HW243152   8.532   6.112   1.246
80419SOL     OW43153   7.420   3.866   4.239
80419SOL    HW143154   7.416   3.774   4.263
80419SOL    HW243155   7.472   3.868   4.159
80420SOL     OW43156  10.650  11.939   4.568
80420SOL    HW143157  10.572  11.947   4.623
80420SOL    HW243158  10.618  11.948   4.478
80421SOL     OW43159  10.051   7.741  12.219
80421SOL    HW143160  10.006   7.735  12.135
80421SOL    HW243161  10.139   7.772  12.198
80422SOL     OW43162   9.114   7.876   5.065
80422SOL    HW143163   9.119   7.800   5.122
80422SOL    HW243164   9.200   7.918   5.074
80423SOL     OW43165   4.448  13.647   4.041
80423SOL    HW143166   4.403  13.612   4.118
80423SOL    HW243167   4.393  13.720   4.012
80424SOL     OW43168   3.556  11.683  12.989
80424SOL    HW143169   3.596  11.756  13.037
80424SOL    HW243170   3.463  11.704  12.988
80425SOL     OW43171   8.149  11.116  12.523
80425SOL    HW143172   8.080  11.163  12.569
80425SOL    HW243173   8.122  11.119  12.431
80426SOL     OW43174  13.587  10.777   0.720
80426SOL    HW143175  13.494  10.799   0.731
80426SOL    HW243176  13.612  10.819   0.638
80427SOL     OW43177   2.213   2.037  10.176
80427SOL    HW143178   2.238   2.099  10.244
80427SOL    HW243179   2.126   2.006  10.201
80428SOL     OW43180   5.383   4.512  13.692
80428SOL    HW143181   5.418   4.577  13.752
80428SOL    HW243182   5.450   4.444  13.688
80429SOL     OW43183  11.170  11.955   9.619
80429SOL    HW143184  11.095  12.005   9.651
80429SOL    HW243185  11.199  11.904   9.695
80430SOL     OW43186  13.355  10.879   1.888
80430SOL    HW143187  13.349  10.973   1.873
80430SOL    HW243188  13.294  10.862   1.960
80431SOL     OW43189   0.144   6.183   0.300
80431SOL    HW143190   0.106   6.251   0.356
80431SOL    HW243191   0.069   6.148   0.252
80432SOL     OW43192   4.000  11.542  10.335
80432SOL    HW143193   4.038  11.492  10.407
80432SOL    HW243194   3.909  11.515  10.332
80433SOL     OW43195  14.484   9.553  12.017
80433SOL    HW143196  14.574   9.583  12.005
80433SOL    HW243197  14.484   9.508  12.102
80434SOL     OW43198  13.684   8.162   2.773
80434SOL    HW143199  13.698   8.191   2.864
80434SOL    HW243200  13.772   8.146   2.740
80435SOL     OW43201   0.767  12.051   9.875
80435SOL    HW143202   0.730  12.019   9.957
80435SOL    HW243203   0.860  12.067   9.895
80436SOL     OW43204   4.482   6.715  13.721
80436SOL    HW143205   4.529   6.650  13.774
80436SOL    HW243206   4.460   6.784  13.783
80437SOL     OW43207   9.855   1.948   5.427
80437SOL    HW143208   9.779   1.947   5.369
80437SOL    HW243209   9.924   1.902   5.378
80438SOL     OW43210  12.050  10.742  10.317
80438SOL    HW143211  12.091  10.684  10.252
80438SOL    HW243212  12.120  10.759  10.381
80439SOL     OW43213   1.926  13.602   0.950
80439SOL    HW143214   1.878  13.522   0.969
80439SOL    HW243215   1.997  13.575   0.892
80440SOL     OW43216  11.994  14.099   0.931
80440SOL    HW143217  12.087  14.096   0.952
80440SOL    HW243218  11.951  14.113   1.015
80441SOL     OW43219   0.222  14.008  13.747
80441SOL    HW143220   0.260  14.096  13.751
80441SOL    HW243221   0.296  13.952  13.724
80442SOL     OW43222   9.956   0.524   5.336
80442SOL    HW143223   9.880   0.571   5.372
80442SOL    HW243224  10.000   0.488   5.413
80443SOL     OW43225   0.487  11.459   6.304
80443SOL    HW143226   0.498  11.365   6.287
80443SOL    HW243227   0.563  11.499   6.262
80444SOL     OW43228   5.731   4.637  12.439
80444SOL    HW143229   5.685   4.697  12.497
80444SOL    HW243230   5.665   4.609  12.376
80445SOL     OW43231  13.737   5.635   6.784
80445SOL    HW143232  13.750   5.650   6.878
80445SOL    HW243233  13.658   5.581   6.779
80446SOL     OW43234   4.150   2.418  12.554
80446SOL    HW143235   4.108   2.374  12.480
80446SOL    HW243236   4.203   2.350  12.595
80447SOL     OW43237  12.563   7.547  14.470
80447SOL    HW143238  12.590   7.635  14.444
80447SOL    HW243239  12.632   7.517  14.528
80448SOL     OW43240   2.119   2.010   1.095
80448SOL    HW143241   2.187   2.077   1.090
80448SOL    HW243242   2.151   1.939   1.039
80449SOL     OW43243   5.978   9.954   5.144
80449SOL    HW143244   6.072   9.932   5.146
80449SOL    HW243245   5.949   9.940   5.235
80450SOL     OW43246  11.931   5.037  12.887
80450SOL    HW143247  11.977   4.991  12.957
80450SOL    HW243248  11.858   5.081  12.930
80451SOL     OW43249  10.792  13.697  14.390
80451SOL    HW143250  10.876  13.730  14.420
80451SOL    HW243251  10.732  13.714  14.463
80452SOL     OW43252   6.902   3.022  14.831
80452SOL    HW143253   6.818   2.995  14.795
80452SOL    HW243254   6.958   2.945  14.820
80453SOL     OW43255   1.223   0.648   6.990
80453SOL    HW143256   1.296   0.628   6.932
80453SOL    HW243257   1.235   0.741   7.013
80454SOL     OW43258  10.255   2.259   5.490
80454SOL    HW143259  10.183   2.256   5.553
80454SOL    HW243260  10.333   2.273   5.544
80455SOL     OW43261   3.776   8.403   6.150
80455SOL    HW143262   3.690   8.441   6.163
80455SOL    HW243263   3.768   8.351   6.070
80456SOL     OW43264   3.151  11.531   7.689
80456SOL    HW143265   3.237  11.569   7.674
80456SOL    HW243266   3.129  11.554   7.779
80457SOL     OW43267   9.454   9.608   6.990
80457SOL    HW143268   9.509   9.540   6.951
80457SOL    HW243269   9.380   9.617   6.932
80458SOL     OW43270  14.596   4.416   4.929
80458SOL    HW143271  14.689   4.436   4.944
80458SOL    HW243272  14.575   4.351   4.996
80459SOL     OW43273   8.905  10.726   9.991
80459SOL    HW143274   8.881  10.794  10.054
80459SOL    HW243275   8.864  10.752   9.909
80460SOL     OW43276   1.814  14.053   4.204
80460SOL    HW143277   1.810  14.113   4.130
80460SOL    HW243278   1.761  14.095   4.272
80461SOL     OW43279   5.946   0.607  11.450
80461SOL    HW143280   5.964   0.638  11.362
80461SOL    HW243281   5.850   0.604  11.456
80462SOL     OW43282   1.226  13.226   0.714
80462SOL    HW143283   1.198  13.159   0.776
80462SOL    HW243284   1.172  13.213   0.637
80463SOL     OW43285   5.446   1.755   5.582
80463SOL    HW143286   5.446   1.660   5.567
80463SOL    HW243287   5.521   1.787   5.532
80464SOL     OW43288   8.909   4.334   4.944
80464SOL    HW143289   8.928   4.399   4.876
80464SOL    HW243290   8.884   4.386   5.021
80465SOL     OW43291   6.492   8.637   5.463
80465SOL    HW143292   6.472   8.705   5.400
80465SOL    HW243293   6.522   8.563   5.411
80466SOL     OW43294   0.564   0.249   5.877
80466SOL    HW143295   0.505   0.197   5.932
80466SOL    HW243296   0.629   0.283   5.938
80467SOL     OW43297  12.032  11.337   2.765
80467SOL    HW143298  12.062  11.419   2.725
80467SOL    HW243299  12.038  11.353   2.859
80468SOL     OW43300  10.292   0.967   1.485
80468SOL    HW143301  10.286   0.931   1.573
80468SOL    HW243302  10.244   0.905   1.430
80469SOL     OW43303  13.969   8.021  12.383
80469SOL    HW143304  13.921   7.976  12.313
80469SOL    HW243305  13.967   7.959  12.457
80470SOL     OW43306  14.256   7.356  10.779
80470SOL    HW143307  14.232   7.333  10.690
80470SOL    HW243308  14.303   7.279  10.812
80471SOL     OW43309  13.188  11.782   8.074
80471SOL    HW143310  13.146  11.726   8.139
80471SOL    HW243311  13.115  11.826   8.030
80472SOL     OW43312  12.376  10.262   0.731
80472SOL    HW143313  12.441  10.265   0.801
80472SOL    HW243314  12.426  10.231   0.655
80473SOL     OW43315   5.729  11.964   7.451
80473SOL    HW143316   5.673  11.905   7.502
80473SOL    HW243317   5.796  11.992   7.513
80474SOL     OW43318  13.766   6.190   9.144
80474SOL    HW143319  13.855   6.171   9.175
80474SOL    HW243320  13.779   6.253   9.073
80475SOL     OW43321  13.862   6.536  13.017
80475SOL    HW143322  13.822   6.573  12.939
80475SOL    HW243323  13.893   6.450  12.990
80476SOL     OW43324  11.510  10.676   5.887
80476SOL    HW143325  11.460  10.622   5.825
80476SOL    HW243326  11.457  10.755   5.896
80477SOL     OW43327   0.797   1.380   1.797
80477SOL    HW143328   0.759   1.321   1.862
80477SOL    HW243329   0.746   1.366   1.718
80478SOL     OW43330   4.976   0.235   2.789
80478SOL    HW143331   4.886   0.205   2.778
80478SOL    HW243332   4.969   0.312   2.846
80479SOL     OW43333  13.333   8.194   0.148
80479SOL    HW143334  13.425   8.211   0.127
80479SOL    HW243335  13.333   8.108   0.188
80480SOL     OW43336  12.274  11.860   0.241
80480SOL    HW143337  12.328  11.805   0.297
80480SOL    HW243338  12.202  11.803   0.213
80481SOL     OW43339   6.485   2.361  11.788
80481SOL    HW143340   6.390   2.359  11.777
80481SOL    HW243341   6.518   2.291  11.730
80482SOL     OW43342   9.620  12.124  11.997
80482SOL    HW143343   9.558  12.170  12.054
80482SOL    HW243344   9.568  12.054  11.957
80483SOL     OW43345   7.211  11.625   9.663
80483SOL    HW143346   7.139  11.632   9.724
80483SOL    HW243347   7.290  11.635   9.717
80484SOL     OW43348   0.096   5.498   6.566
80484SOL    HW143349   0.029   5.497   6.634
80484SOL    HW243350   0.159   5.564   6.595
80485SOL     OW43351  11.458   0.515  12.602
80485SOL    HW143352  11.514   0.492  12.527
80485SOL    HW243353  11.517   0.511  12.678
80486SOL     OW43354   1.458   9.216   3.638
80486SOL    HW143355   1.487   9.182   3.722
80486SOL    HW243356   1.363   9.204   3.639
80487SOL     OW43357   8.864  13.227  14.089
80487SOL    HW143358   8.801  13.217  14.160
80487SOL    HW243359   8.887  13.320  14.091
80488SOL     OW43360   5.105   1.071   6.354
80488SOL    HW143361   5.069   1.139   6.297
80488SOL    HW243362   5.054   1.078   6.435
80489SOL     OW43363   0.880   7.765   0.425
80489SOL    HW143364   0.837   7.849   0.410
80489SOL    HW243365   0.861   7.745   0.517
80490SOL     OW43366   5.265  14.877   6.699
80490SOL    HW143367   5.189  14.856   6.644
80490SOL    HW243368   5.302  14.792   6.722
80491SOL     OW43369   5.321   3.184   5.032
80491SOL    HW143370   5.312   3.187   5.127
80491SOL    HW243371   5.234   3.158   5.000
80492SOL     OW43372   3.184   9.381   7.473
80492SOL    HW143373   3.275   9.357   7.456
80492SOL    HW243374   3.139   9.298   7.480
80493SOL     OW43375  14.111  13.226   3.522
80493SOL    HW143376  14.049  13.178   3.467
80493SOL    HW243377  14.133  13.165   3.593
80494SOL     OW43378   6.963   4.051   4.948
80494SOL    HW143379   7.007   3.973   4.915
80494SOL    HW243380   7.028   4.094   5.004
80495SOL     OW43381   4.592   1.377   2.591
80495SOL    HW143382   4.518   1.316   2.585
80495SOL    HW243383   4.668   1.324   2.570
80496SOL     OW43384   1.167   3.433   8.581
80496SOL    HW143385   1.233   3.442   8.650
80496SOL    HW243386   1.126   3.348   8.597
80497SOL     OW43387   5.372   6.397   6.596
80497SOL    HW143388   5.287   6.353   6.592
80497SOL    HW243389   5.379   6.446   6.514
80498SOL     OW43390  14.837   3.003  12.040
80498SOL    HW143391  14.797   2.939  11.982
80498SOL    HW243392   0.026   3.044  11.988
80499SOL     OW43393   7.484  11.146   1.335
80499SOL    HW143394   7.570  11.110   1.356
80499SOL    HW243395   7.503  11.222   1.280
80500SOL     OW43396  10.311  10.849   4.771
80500SOL    HW143397  10.397  10.889   4.782
80500SOL    HW243398  10.255  10.921   4.744
80501SOL     OW43399  11.375   1.629   0.246
80501SOL    HW143400  11.421   1.656   0.167
80501SOL    HW243401  11.387   1.703   0.307
80502SOL     OW43402  11.005   9.476  11.036
80502SOL    HW143403  10.946   9.551  11.027
80502SOL    HW243404  11.013   9.441  10.947
80503SOL     OW43405   1.685   4.017  13.853
80503SOL    HW143406   1.735   3.984  13.928
80503SOL    HW243407   1.745   4.010  13.779
80504SOL     OW43408  10.190   3.787   9.833
80504SOL    HW143409  10.256   3.744   9.888
80504SOL    HW243410  10.239   3.817   9.756
80505SOL     OW43411  14.625   7.741  13.197
80505SOL    HW143412  14.583   7.660  13.227
80505SOL    HW243413  14.552   7.797  13.171
80506SOL     OW43414   7.583  12.909   2.935
80506SOL    HW143415   7.606  12.858   2.857
80506SOL    HW243416   7.564  12.997   2.902
80507SOL     OW43417   4.770   4.180   8.511
80507SOL    HW143418   4.744   4.264   8.549
80507SOL    HW243419   4.864   4.173   8.532
80508SOL     OW43420   6.778   7.292   2.752
80508SOL    HW143421   6.785   7.386   2.769
80508SOL    HW243422   6.755   7.254   2.837
80509SOL     OW43423   9.444  13.178  12.775
80509SOL    HW143424   9.393  13.165  12.855
80509SOL    HW243425   9.478  13.267  12.783
80510SOL     OW43426   7.443   9.957  11.960
80510SOL    HW143427   7.392   9.880  11.986
80510SOL    HW243428   7.382  10.011  11.909
80511SOL     OW43429   0.087   1.151  14.798
80511SOL    HW143430   0.037   1.110  14.727
80511SOL    HW243431   0.041   1.234  14.814
80512SOL     OW43432   4.793   6.583   8.862
80512SOL    HW143433   4.843   6.504   8.840
80512SOL    HW243434   4.703   6.560   8.841
80513SOL     OW43435   7.659   2.137  12.381
80513SOL    HW143436   7.645   2.120  12.474
80513SOL    HW243437   7.715   2.065  12.351
80514SOL     OW43438  12.121   8.160   3.294
80514SOL    HW143439  12.030   8.139   3.275
80514SOL    HW243440  12.138   8.119   3.378
80515SOL     OW43441   9.537   6.314   7.352
80515SOL    HW143442   9.499   6.402   7.350
80515SOL    HW243443   9.551   6.296   7.445
80516SOL     OW43444   0.198   1.651   2.940
80516SOL    HW143445   0.170   1.680   3.027
80516SOL    HW243446   0.291   1.677   2.935
80517SOL     OW43447   5.063   8.856   1.663
80517SOL    HW143448   4.971   8.828   1.664
80517SOL    HW243449   5.107   8.791   1.609
80518SOL     OW43450  14.099   6.279   6.851
80518SOL    HW143451  14.172   6.226   6.882
80518SOL    HW243452  14.113   6.287   6.757
80519SOL     OW43453   4.826   2.006   9.244
80519SOL    HW143454   4.831   1.936   9.179
80519SOL    HW243455   4.745   2.052   9.224
80520SOL     OW43456   4.037  13.078   2.610
80520SOL    HW143457   4.113  13.133   2.630
80520SOL    HW243458   4.034  13.074   2.515
80521SOL     OW43459   3.692  14.752  13.426
80521SOL    HW143460   3.608  14.712  13.402
80521SOL    HW243461   3.703  14.731  13.519
80522SOL     OW43462  11.787  14.034   6.452
80522SOL    HW143463  11.765  13.959   6.396
80522SOL    HW243464  11.788  13.998   6.540
80523SOL     OW43465  14.410  14.481   3.821
80523SOL    HW143466  14.460  14.540   3.877
80523SOL    HW243467  14.382  14.535   3.747
80524SOL     OW43468   5.607   4.372  13.628
80524SOL    HW143469   5.554   4.310  13.577
80524SOL    HW243470   5.666   4.317  13.680
80525SOL     OW43471  11.824  10.223   9.629
80525SOL    HW143472  11.803  10.305   9.674
80525SOL    HW243473  11.824  10.157   9.698
80526SOL     OW43474   0.786  14.712   6.464
80526SOL    HW143475   0.838  14.754   6.395
80526SOL    HW243476   0.723  14.658   6.416
80527SOL     OW43477   5.905   8.895  13.878
80527SOL    HW143478   5.947   8.893  13.964
80527SOL    HW243479   5.962   8.842  13.822
80528SOL     OW43480   0.933   5.430  10.464
80528SOL    HW143481   0.995   5.483  10.414
80528SOL    HW243482   0.962   5.439  10.555
80529SOL     OW43483   1.040  14.054   2.677
80529SOL    HW143484   1.100  13.985   2.650
80529SOL    HW243485   0.953  14.015   2.672
80530SOL     OW43486  13.372   8.529   5.633
80530SOL    HW143487  13.332   8.604   5.589
80530SOL    HW243488  13.335   8.453   5.588
80531SOL     OW43489   2.539   0.751   4.679
80531SOL    HW143490   2.534   0.844   4.660
80531SOL    HW243491   2.461   0.713   4.637
80532SOL     OW43492  11.282   2.943  10.970
80532SOL    HW143493  11.279   2.953  11.065
80532SOL    HW243494  11.295   2.849  10.956
80533SOL     OW43495   7.165   5.345   7.285
80533SOL    HW143496   7.169   5.393   7.202
80533SOL    HW243497   7.257   5.333   7.310
80534SOL     OW43498  10.968  13.538  14.633
80534SOL    HW143499  11.004  13.508  14.716
80534SOL    HW243500  11.043  13.577  14.587
80535SOL     OW43501  11.256  13.247   8.739
80535SOL    HW143502  11.246  13.291   8.655
80535SOL    HW243503  11.261  13.154   8.717
80536SOL     OW43504  12.459   8.279   2.771
80536SOL    HW143505  12.447   8.242   2.859
80536SOL    HW243506  12.391   8.238   2.718
80537SOL     OW43507   1.353   8.666   3.605
80537SOL    HW143508   1.279   8.652   3.665
80537SOL    HW243509   1.391   8.578   3.594
80538SOL     OW43510   2.213   4.821   7.177
80538SOL    HW143511   2.126   4.828   7.215
80538SOL    HW243512   2.260   4.761   7.236
80539SOL     OW43513  13.784  11.126   5.987
80539SOL    HW143514  13.707  11.093   6.034
80539SOL    HW243515  13.830  11.180   6.052
80540SOL     OW43516  13.871  13.440  12.999
80540SOL    HW143517  13.926  13.488  13.061
80540SOL    HW243518  13.915  13.451  12.914
80541SOL     OW43519   0.666   5.514   9.874
80541SOL    HW143520   0.668   5.462   9.794
80541SOL    HW243521   0.727   5.471   9.934
80542SOL     OW43522   2.659  14.284   0.078
80542SOL    HW143523   2.598  14.279   0.004
80542SOL    HW243524   2.692  14.195   0.087
80543SOL     OW43525   1.993   1.007  10.815
80543SOL    HW143526   2.010   0.922  10.776
80543SOL    HW243527   1.900   1.023  10.798
80544SOL     OW43528   4.576   5.483   1.543
80544SOL    HW143529   4.490   5.440   1.551
80544SOL    HW243530   4.639   5.414   1.566
80545SOL     OW43531  12.835   1.287   8.176
80545SOL    HW143532  12.927   1.313   8.172
80545SOL    HW243533  12.810   1.304   8.267
80546SOL     OW43534  12.462  10.489   0.332
80546SOL    HW143535  12.375  10.524   0.315
80546SOL    HW243536  12.488  10.529   0.415
80547SOL     OW43537  13.080  11.142   7.362
80547SOL    HW143538  13.044  11.139   7.273
80547SOL    HW243539  13.081  11.050   7.390
80548SOL     OW43540   5.159   6.926   0.750
80548SOL    HW143541   5.143   6.910   0.843
80548SOL    HW243542   5.137   6.843   0.708
80549SOL     OW43543   2.146   6.260   3.592
80549SOL    HW143544   2.076   6.205   3.629
80549SOL    HW243545   2.128   6.347   3.626
80550SOL     OW43546   0.510   0.526   1.866
80550SOL    HW143547   0.562   0.600   1.835
80550SOL    HW243548   0.427   0.534   1.820
80551SOL     OW43549  14.644   4.556   2.939
80551SOL    HW143550  14.691   4.475   2.919
80551SOL    HW243551  14.663   4.573   3.031
80552SOL     OW43552   6.562   2.893   2.170
80552SOL    HW143553   6.477   2.879   2.128
80552SOL    HW243554   6.619   2.827   2.131
80553SOL     OW43555   6.104   7.800   1.859
80553SOL    HW143556   6.131   7.797   1.767
80553SOL    HW243557   6.008   7.798   1.856
80554SOL     OW43558  11.261  14.247   8.479
80554SOL    HW143559  11.347  14.215   8.452
80554SOL    HW243560  11.253  14.332   8.434
80555SOL     OW43561   9.143  12.115  12.643
80555SOL    HW143562   9.059  12.153  12.672
80555SOL    HW243563   9.120  12.027  12.615
80556SOL     OW43564   0.351  10.210  12.656
80556SOL    HW143565   0.422  10.155  12.688
80556SOL    HW243566   0.338  10.275  12.725
80557SOL     OW43567  13.768   1.865   5.021
80557SOL    HW143568  13.772   1.772   5.042
80557SOL    HW243569  13.823   1.874   4.943
80558SOL     OW43570   6.818   5.811   3.119
80558SOL    HW143571   6.853   5.770   3.198
80558SOL    HW243572   6.744   5.863   3.150
80559SOL     OW43573   0.498   7.304   1.728
80559SOL    HW143574   0.406   7.284   1.717
80559SOL    HW243575   0.544   7.228   1.693
80560SOL     OW43576   4.751  12.238  13.982
80560SOL    HW143577   4.697  12.228  14.060
80560SOL    HW243578   4.748  12.332  13.962
80561SOL     OW43579   9.992   9.151   8.025
80561SOL    HW143580  10.037   9.235   8.027
80561SOL    HW243581   9.986   9.129   7.932
80562SOL     OW43582  13.289  14.610   0.526
80562SOL    HW143583  13.367  14.664   0.517
80562SOL    HW243584  13.296  14.573   0.615
80563SOL     OW43585   8.353  14.848  10.507
80563SOL    HW143586   8.392  14.779  10.561
80563SOL    HW243587   8.389   0.049  10.541
80564SOL     OW43588   9.793   0.091   4.642
80564SOL    HW143589   9.754   0.158   4.586
80564SOL    HW243590   9.730   0.082   4.714
80565SOL     OW43591   7.018   6.792  10.408
80565SOL    HW143592   7.032   6.740  10.329
80565SOL    HW243593   7.089   6.766  10.467
80566SOL     OW43594  11.108  14.338  13.581
80566SOL    HW143595  11.186  14.387  13.610
80566SOL    HW243596  11.081  14.288  13.658
80567SOL     OW43597   2.827   1.714  13.665
80567SOL    HW143598   2.782   1.797  13.679
80567SOL    HW243599   2.760   1.648  13.681
80568SOL     OW43600   6.012   2.917   2.134
80568SOL    HW143601   5.966   2.877   2.208
80568SOL    HW243602   5.953   2.986   2.103
80569SOL     OW43603   3.325   7.898   4.528
80569SOL    HW143604   3.257   7.831   4.520
80569SOL    HW243605   3.342   7.905   4.622
80570SOL     OW43606  10.676   1.863  10.712
80570SOL    HW143607  10.712   1.948  10.688
80570SOL    HW243608  10.618   1.839  10.640
80571SOL     OW43609   2.028   4.491  10.445
80571SOL    HW143610   2.018   4.576  10.403
80571SOL    HW243611   2.108   4.454  10.407
80572SOL     OW43612   6.061   4.957  10.098
80572SOL    HW143613   6.147   4.958  10.139
80572SOL    HW243614   6.074   4.995  10.011
80573SOL     OW43615   4.974   8.109   7.485
80573SOL    HW143616   4.934   8.124   7.400
80573SOL    HW243617   4.978   8.196   7.525
80574SOL     OW43618   6.485   7.274   2.395
80574SOL    HW143619   6.473   7.247   2.304
80574SOL    HW243620   6.536   7.355   2.390
80575SOL     OW43621   6.671   3.846  12.836
80575SOL    HW143622   6.656   3.938  12.858
80575SOL    HW243623   6.734   3.816  12.902
80576SOL     OW43624  14.653   6.614   8.424
80576SOL    HW143625  14.574   6.562   8.415
80576SOL    HW243626  14.661   6.662   8.341
80577SOL     OW43627   4.602   6.634  10.119
80577SOL    HW143628   4.622   6.584  10.198
80577SOL    HW243629   4.614   6.572  10.048
80578SOL     OW43630   6.770   9.338   1.047
80578SOL    HW143631   6.817   9.372   1.123
80578SOL    HW243632   6.838   9.299   0.992
80579SOL     OW43633  12.820   5.343   6.978
80579SOL    HW143634  12.827   5.369   7.069
80579SOL    HW243635  12.877   5.403   6.931
80580SOL     OW43636   2.889   4.200   4.258
80580SOL    HW143637   2.897   4.272   4.320
80580SOL    HW243638   2.970   4.150   4.269
80581SOL     OW43639  13.096   8.569   7.285
80581SOL    HW143640  13.020   8.618   7.315
80581SOL    HW243641  13.148   8.633   7.236
80582SOL     OW43642  12.793  12.838   4.206
80582SOL    HW143643  12.758  12.909   4.259
80582SOL    HW243644  12.840  12.783   4.269
80583SOL     OW43645  10.200   3.329   4.090
80583SOL    HW143646  10.159   3.249   4.057
80583SOL    HW243647  10.139   3.398   4.067
80584SOL     OW43648   2.930   8.332   6.387
80584SOL    HW143649   2.871   8.306   6.316
80584SOL    HW243650   2.951   8.250   6.431
80585SOL     OW43651   5.936  14.143   7.310
80585SOL    HW143652   5.999  14.151   7.238
80585SOL    HW243653   5.906  14.052   7.307
80586SOL     OW43654   8.104  12.837   7.541
80586SOL    HW143655   8.167  12.796   7.600
80586SOL    HW243656   8.119  12.931   7.551
80587SOL     OW43657  11.943   4.966  13.830
80587SOL    HW143658  11.855   4.943  13.800
80587SOL    HW243659  11.934   5.055  13.866
80588SOL     OW43660  13.600   1.611   0.297
80588SOL    HW143661  13.611   1.643   0.386
80588SOL    HW243662  13.688   1.612   0.260
80589SOL     OW43663  13.457  10.665   4.697
80589SOL    HW143664  13.544  10.702   4.710
80589SOL    HW243665  13.459  10.629   4.609
80590SOL     OW43666   9.203   1.314  13.294
80590SOL    HW143667   9.260   1.260  13.349
80590SOL    HW243668   9.131   1.256  13.271
80591SOL     OW43669   4.109   7.344   6.074
80591SOL    HW143670   4.029   7.381   6.113
80591SOL    HW243671   4.180   7.388   6.120
80592SOL     OW43672  11.175  14.268   2.404
80592SOL    HW143673  11.146  14.208   2.473
80592SOL    HW243674  11.216  14.211   2.339
80593SOL     OW43675  14.848   0.369   8.968
80593SOL    HW143676  14.785   0.393   9.036
80593SOL    HW243677   0.008   0.288   9.000
80594SOL     OW43678   8.114  14.301  10.883
80594SOL    HW143679   8.063  14.221  10.892
80594SOL    HW243680   8.059  14.359  10.830
80595SOL     OW43681   4.269  12.478   6.928
80595SOL    HW143682   4.175  12.491   6.941
80595SOL    HW243683   4.300  12.444   7.012
80596SOL     OW43684   2.323   2.899   6.823
80596SOL    HW143685   2.255   2.932   6.882
80596SOL    HW243686   2.342   2.972   6.765
80597SOL     OW43687   5.177   2.545  12.081
80597SOL    HW143688   5.203   2.541  11.989
80597SOL    HW243689   5.243   2.601  12.122
80598SOL     OW43690   0.894  12.927   8.014
80598SOL    HW143691   0.975  12.956   8.056
80598SOL    HW243692   0.882  12.986   7.940
80599SOL     OW43693   8.503  14.201  14.820
80599SOL    HW143694   8.454  14.193  14.738
80599SOL    HW243695   8.435  14.204   0.008
80600SOL     OW43696   0.037  14.538  10.581
80600SOL    HW143697   0.087  14.459  10.599
80600SOL    HW243698   0.082  14.607  10.629
80601SOL     OW43699   1.942   6.054   9.879
80601SOL    HW143700   1.875   5.986   9.884
80601SOL    HW243701   1.899   6.128   9.836
80602SOL     OW43702  11.335  13.776   6.155
80602SOL    HW143703  11.353  13.682   6.158
80602SOL    HW243704  11.274  13.791   6.227
80603SOL     OW43705  13.434  13.110  12.886
80603SOL    HW143706  13.501  13.177  12.876
80603SOL    HW243707  13.482  13.030  12.908
80604SOL     OW43708   1.546   2.063   0.337
80604SOL    HW143709   1.472   2.002   0.341
80604SOL    HW243710   1.609   2.020   0.279
80605SOL     OW43711   6.225   6.935   1.995
80605SOL    HW143712   6.246   6.848   2.029
80605SOL    HW243713   6.311   6.975   1.977
80606SOL     OW43714   3.453   0.482   3.522
80606SOL    HW143715   3.387   0.513   3.460
80606SOL    HW243716   3.484   0.399   3.484
80607SOL     OW43717  10.412   7.820  11.596
80607SOL    HW143718  10.506   7.809  11.585
80607SOL    HW243719  10.374   7.737  11.568
80608SOL     OW43720   3.817  13.874   3.056
80608SOL    HW143721   3.835  13.848   3.146
80608SOL    HW243722   3.886  13.831   3.004
80609SOL     OW43723   4.206  10.145   3.270
80609SOL    HW143724   4.199  10.104   3.356
80609SOL    HW243725   4.291  10.190   3.272
80610SOL     OW43726  14.000   3.568   7.221
80610SOL    HW143727  13.980   3.475   7.229
80610SOL    HW243728  14.095   3.573   7.218
80611SOL     OW43729   4.765   1.214   3.007
80611SOL    HW143730   4.716   1.134   2.989
80611SOL    HW243731   4.857   1.187   3.006
80612SOL     OW43732   4.514   4.403   2.093
80612SOL    HW143733   4.528   4.315   2.129
80612SOL    HW243734   4.579   4.458   2.138
80613SOL     OW43735   4.494   4.624   7.403
80613SOL    HW143736   4.474   4.624   7.309
80613SOL    HW243737   4.437   4.556   7.439
80614SOL     OW43738   4.896  11.088  13.155
80614SOL    HW143739   4.942  11.139  13.088
80614SOL    HW243740   4.809  11.127  13.159
80615SOL     OW43741   1.932   5.821  14.726
80615SOL    HW143742   1.975   5.740  14.699
80615SOL    HW243743   1.949   5.883  14.654
80616SOL     OW43744   4.986  11.770  11.205
80616SOL    HW143745   5.018  11.825  11.277
80616SOL    HW243746   5.028  11.807  11.127
80617SOL     OW43747   3.391  12.566  14.372
80617SOL    HW143748   3.354  12.477  14.371
80617SOL    HW243749   3.473  12.557  14.421
80618SOL     OW43750   9.673   8.627   6.832
80618SOL    HW143751   9.660   8.567   6.758
80618SOL    HW243752   9.766   8.616   6.854
80619SOL     OW43753   6.593  14.871   6.087
80619SOL    HW143754   6.637   0.076   6.080
80619SOL    HW243755   6.662  14.810   6.111
80620SOL     OW43756   1.249   5.349   9.588
80620SOL    HW143757   1.236   5.331   9.495
80620SOL    HW243758   1.342   5.371   9.595
80621SOL     OW43759  12.365  13.703  14.346
80621SOL    HW143760  12.283  13.740  14.377
80621SOL    HW243761  12.378  13.743  14.259
80622SOL     OW43762   8.669  11.344   7.426
80622SOL    HW143763   8.621  11.401   7.486
80622SOL    HW243764   8.638  11.256   7.447
80623SOL     OW43765  14.702   6.362   4.861
80623SOL    HW143766  14.701   6.409   4.778
80623SOL    HW243767  14.711   6.431   4.927
80624SOL     OW43768  10.467  11.148   8.265
80624SOL    HW143769  10.538  11.131   8.326
80624SOL    HW243770  10.409  11.208   8.312
80625SOL     OW43771   9.084  10.271   2.884
80625SOL    HW143772   9.029  10.231   2.816
80625SOL    HW243773   9.091  10.363   2.858
80626SOL     OW43774  14.639   6.691  10.311
80626SOL    HW143775  14.724   6.647  10.313
80626SOL    HW243776  14.650   6.769  10.365
80627SOL     OW43777   1.498  12.793  12.564
80627SOL    HW143778   1.425  12.759  12.615
80627SOL    HW243779   1.483  12.761  12.475
80628SOL     OW43780   6.511   8.459   8.258
80628SOL    HW143781   6.467   8.528   8.308
80628SOL    HW243782   6.584   8.433   8.313
80629SOL     OW43783   8.988  11.916   5.201
80629SOL    HW143784   9.064  11.857   5.211
80629SOL    HW243785   8.929  11.869   5.142
80630SOL     OW43786   3.382  10.967  14.870
80630SOL    HW143787   3.454  11.027   0.011
80630SOL    HW243788   3.357  10.991  14.780
80631SOL     OW43789   9.945  11.116  12.247
80631SOL    HW143790   9.893  11.036  12.248
80631SOL    HW243791   9.935  11.152  12.335
80632SOL     OW43792   2.727  10.304   3.238
80632SOL    HW143793   2.782  10.300   3.316
80632SOL    HW243794   2.645  10.344   3.268
80633SOL     OW43795   2.913   4.586   3.815
80633SOL    HW143796   2.893   4.679   3.805
80633SOL    HW243797   2.862   4.542   3.747
80634SOL     OW43798   8.355  11.737   5.990
80634SOL    HW143799   8.416  11.795   6.036
80634SOL    HW243800   8.377  11.748   5.897
80635SOL     OW43801   6.975  12.772  12.271
80635SOL    HW143802   7.063  12.790  12.305
80635SOL    HW243803   6.920  12.840  12.308
80636SOL     OW43804  12.134   4.271  12.854
80636SOL    HW143805  12.195   4.198  12.847
80636SOL    HW243806  12.108   4.290  12.764
80637SOL     OW43807  11.141   6.419   3.645
80637SOL    HW143808  11.169   6.386   3.730
80637SOL    HW243809  11.149   6.344   3.586
80638SOL     OW43810   9.107  11.446   0.271
80638SOL    HW143811   9.062  11.371   0.231
80638SOL    HW243812   9.102  11.515   0.205
80639SOL     OW43813   3.891   6.639  12.825
80639SOL    HW143814   3.813   6.676  12.867
80639SOL    HW243815   3.864   6.623  12.735
80640SOL     OW43816   9.070   4.869   7.060
80640SOL    HW143817   9.042   4.837   7.145
80640SOL    HW243818   9.163   4.889   7.071
80641SOL     OW43819   7.966   5.793   8.477
80641SOL    HW143820   7.947   5.776   8.385
80641SOL    HW243821   8.022   5.870   8.477
80642SOL     OW43822   4.652   1.737  13.505
80642SOL    HW143823   4.743   1.760  13.488
80642SOL    HW243824   4.603   1.775  13.432
80643SOL     OW43825   5.402   9.061   4.688
80643SOL    HW143826   5.415   8.983   4.742
80643SOL    HW243827   5.325   9.040   4.635
80644SOL     OW43828   3.992  10.866  12.223
80644SOL    HW143829   3.911  10.910  12.248
80644SOL    HW243830   3.987  10.781  12.266
80645SOL     OW43831   1.023   4.028   5.063
80645SOL    HW143832   1.057   4.118   5.066
80645SOL    HW243833   0.932   4.037   5.092
80646SOL     OW43834  13.840   7.594  10.712
80646SOL    HW143835  13.883   7.678  10.696
80646SOL    HW243836  13.850   7.580  10.806
80647SOL     OW43837   8.857  10.863  10.221
80647SOL    HW143838   8.916  10.939  10.225
80647SOL    HW243839   8.830  10.849  10.311
80648SOL     OW43840   2.379   7.162   2.113
80648SOL    HW143841   2.445   7.214   2.159
80648SOL    HW243842   2.329   7.120   2.183
80649SOL     OW43843   6.126   6.214  13.700
80649SOL    HW143844   6.082   6.300  13.702
80649SOL    HW243845   6.117   6.185  13.609
80650SOL     OW43846   9.333  11.668  12.872
80650SOL    HW143847   9.419  11.710  12.878
80650SOL    HW243848   9.323  11.646  12.779
80651SOL     OW43849   3.329   6.095   4.612
80651SOL    HW143850   3.341   6.014   4.660
80651SOL    HW243851   3.410   6.144   4.627
80652SOL     OW43852   3.215   9.866  11.133
80652SOL    HW143853   3.164   9.795  11.171
80652SOL    HW243854   3.306   9.838  11.141
80653SOL     OW43855   1.388   7.951   0.920
80653SOL    HW143856   1.446   7.885   0.957
80653SOL    HW243857   1.426   8.034   0.949
80654SOL     OW43858   5.602   5.849   8.910
80654SOL    HW143859   5.603   5.865   8.816
80654SOL    HW243860   5.586   5.755   8.918
80655SOL     OW43861   7.147   4.469   4.599
80655SOL    HW143862   7.074   4.521   4.564
80655SOL    HW243863   7.178   4.519   4.674
80656SOL     OW43864   7.607   8.207  13.666
80656SOL    HW143865   7.577   8.267  13.734
80656SOL    HW243866   7.663   8.261  13.610
80657SOL     OW43867   6.910  13.619   3.593
80657SOL    HW143868   6.927  13.652   3.505
80657SOL    HW243869   6.972  13.666   3.649
80658SOL     OW43870   7.875   5.037   0.234
80658SOL    HW143871   7.897   4.997   0.151
80658SOL    HW243872   7.900   4.972   0.300
80659SOL     OW43873  14.159   1.027   4.131
80659SOL    HW143874  14.249   1.051   4.150
80659SOL    HW243875  14.149   0.939   4.168
80660SOL     OW43876   0.382   8.327   8.308
80660SOL    HW143877   0.410   8.243   8.343
80660SOL    HW243878   0.341   8.306   8.224
80661SOL     OW43879  14.540   1.767   1.296
80661SOL    HW143880  14.606   1.701   1.318
80661SOL    HW243881  14.460   1.716   1.281
80662SOL     OW43882  14.146  14.459   5.299
80662SOL    HW143883  14.185  14.390   5.245
80662SOL    HW243884  14.135  14.419   5.385
80663SOL     OW43885   9.907  12.383   6.650
80663SOL    HW143886   9.864  12.356   6.730
80663SOL    HW243887   9.998  12.400   6.676
80664SOL     OW43888  10.248  13.501  13.450
80664SOL    HW143889  10.257  13.529  13.359
80664SOL    HW243890  10.221  13.580  13.497
80665SOL     OW43891  13.519   5.288   5.337
80665SOL    HW143892  13.440   5.248   5.375
80665SOL    HW243893  13.528   5.245   5.252
80666SOL     OW43894  12.847   0.719  10.862
80666SOL    HW143895  12.891   0.800  10.837
80666SOL    HW243896  12.914   0.651  10.854
80667SOL     OW43897  10.198   8.041  12.572
80667SOL    HW143898  10.137   8.042  12.498
80667SOL    HW243899  10.169   7.967  12.625
80668SOL     OW43900   4.088   7.312   5.404
80668SOL    HW143901   4.144   7.317   5.326
80668SOL    HW243902   4.057   7.401   5.417
80669SOL     OW43903   3.810  12.773   2.550
80669SOL    HW143904   3.758  12.693   2.550
80669SOL    HW243905   3.901  12.743   2.539
80670SOL     OW43906   4.691   9.611  10.120
80670SOL    HW143907   4.745   9.690  10.117
80670SOL    HW243908   4.701   9.572  10.034
80671SOL     OW43909   7.016  10.817  10.287
80671SOL    HW143910   7.068  10.818  10.368
80671SOL    HW243911   7.020  10.726  10.257
80672SOL     OW43912  12.391  13.724   5.700
80672SOL    HW143913  12.485  13.739   5.702
80672SOL    HW243914  12.353  13.810   5.681
80673SOL     OW43915   2.448  14.592   7.862
80673SOL    HW143916   2.376  14.655   7.872
80673SOL    HW243917   2.515  14.623   7.924
80674SOL     OW43918   9.501   8.330   4.938
80674SOL    HW143919   9.527   8.248   4.978
80674SOL    HW243920   9.576   8.388   4.951
80675SOL     OW43921   5.307   4.427   7.490
80675SOL    HW143922   5.221   4.440   7.530
80675SOL    HW243923   5.354   4.508   7.508
80676SOL     OW43924  11.058   5.309   7.759
80676SOL    HW143925  11.133   5.357   7.725
80676SOL    HW243926  11.019   5.266   7.683
80677SOL     OW43927   7.016   8.537   3.757
80677SOL    HW143928   7.064   8.458   3.733
80677SOL    HW243929   6.970   8.514   3.837
80678SOL     OW43930  10.333   4.888   0.581
80678SOL    HW143931  10.415   4.840   0.572
80678SOL    HW243932  10.271   4.823   0.615
80679SOL     OW43933   3.215   3.964   2.121
80679SOL    HW143934   3.206   3.870   2.102
80679SOL    HW243935   3.298   3.988   2.079
80680SOL     OW43936   4.382   9.801   7.709
80680SOL    HW143937   4.323   9.758   7.771
80680SOL    HW243938   4.349   9.775   7.623
80681SOL     OW43939   2.686   0.163  13.523
80681SOL    HW143940   2.626   0.211  13.580
80681SOL    HW243941   2.703   0.224  13.451
80682SOL     OW43942  10.959   3.217   8.227
80682SOL    HW143943  10.981   3.143   8.170
80682SOL    HW243944  10.915   3.177   8.302
80683SOL     OW43945   5.230   2.778   6.379
80683SOL    HW143946   5.311   2.828   6.369
80683SOL    HW243947   5.165   2.827   6.328
80684SOL     OW43948  12.046  10.803   4.583
80684SOL    HW143949  12.099  10.738   4.630
80684SOL    HW243950  12.108  10.849   4.527
80685SOL     OW43951  11.147   5.861   4.611
80685SOL    HW143952  11.242   5.875   4.608
80685SOL    HW243953  11.119   5.870   4.520
80686SOL     OW43954   9.318   9.865   5.081
80686SOL    HW143955   9.280   9.945   5.044
80686SOL    HW243956   9.404   9.858   5.039
80687SOL     OW43957   0.062   5.438   5.103
80687SOL    HW143958   0.147   5.480   5.095
80687SOL    HW243959   0.071   5.381   5.179
80688SOL     OW43960  13.470   0.373  14.191
80688SOL    HW143961  13.439   0.317  14.262
80688SOL    HW243962  13.544   0.325  14.153
80689SOL     OW43963   9.608   1.358  12.206
80689SOL    HW143964   9.572   1.300  12.139
80689SOL    HW243965   9.703   1.342  12.204
80690SOL     OW43966   9.791   7.423   3.106
80690SOL    HW143967   9.768   7.438   3.014
80690SOL    HW243968   9.848   7.346   3.104
80691SOL     OW43969   0.161   5.024   9.307
80691SOL    HW143970   0.183   4.950   9.363
80691SOL    HW243971   0.203   5.004   9.223
80692SOL     OW43972  12.680   8.124   2.945
80692SOL    HW143973  12.732   8.201   2.968
80692SOL    HW243974  12.591   8.146   2.974
80693SOL     OW43975   0.219   1.867   7.329
80693SOL    HW143976   0.227   1.913   7.246
80693SOL    HW243977   0.309   1.858   7.360
80694SOL     OW43978   3.432  13.495   6.375
80694SOL    HW143979   3.491  13.528   6.306
80694SOL    HW243980   3.483  13.427   6.419
80695SOL     OW43981   3.353   8.815   9.768
80695SOL    HW143982   3.400   8.734   9.747
80695SOL    HW243983   3.359   8.867   9.688
80696SOL     OW43984  11.507  14.848   1.318
80696SOL    HW143985  11.571  14.878   1.383
80696SOL    HW243986  11.545  14.874   1.234
80697SOL     OW43987   4.844  11.780   6.783
80697SOL    HW143988   4.814  11.693   6.810
80697SOL    HW243989   4.770  11.818   6.737
80698SOL     OW43990   5.899   6.223  12.475
80698SOL    HW143991   5.887   6.268  12.559
80698SOL    HW243992   5.989   6.242  12.450
80699SOL     OW43993   1.896  11.223   0.139
80699SOL    HW143994   1.934  11.175   0.066
80699SOL    HW243995   1.948  11.197   0.215
80700SOL     OW43996   9.051   6.658   5.965
80700SOL    HW143997   9.135   6.688   5.999
80700SOL    HW243998   9.059   6.563   5.959
80701SOL     OW43999   1.673   4.452   8.416
80701SOL    HW144000   1.628   4.394   8.478
80701SOL    HW244001   1.678   4.536   8.461
80702SOL     OW44002  10.708   5.170   7.190
80702SOL    HW144003  10.673   5.145   7.276
80702SOL    HW244004  10.801   5.148   7.195
80703SOL     OW44005   0.854   3.514   3.097
80703SOL    HW144006   0.839   3.439   3.156
80703SOL    HW244007   0.939   3.549   3.124
80704SOL     OW44008   8.690   1.787   9.982
80704SOL    HW144009   8.621   1.722   9.992
80704SOL    HW244010   8.652   1.868  10.015
80705SOL     OW44011   2.725   5.288   9.744
80705SOL    HW144012   2.671   5.294   9.823
80705SOL    HW244013   2.797   5.230   9.768
80706SOL     OW44014   1.118  11.893  11.521
80706SOL    HW144015   1.056  11.945  11.469
80706SOL    HW244016   1.105  11.804  11.489
80707SOL     OW44017   5.485   5.495   7.740
80707SOL    HW144018   5.434   5.495   7.659
80707SOL    HW244019   5.419   5.506   7.809
80708SOL     OW44020  13.143   9.309   3.279
80708SOL    HW144021  13.127   9.335   3.370
80708SOL    HW244022  13.152   9.214   3.282
80709SOL     OW44023   0.432   8.611  10.689
80709SOL    HW144024   0.448   8.667  10.765
80709SOL    HW244025   0.497   8.640  10.624
80710SOL     OW44026   5.902   8.097   5.807
80710SOL    HW144027   5.980   8.100   5.752
80710SOL    HW244028   5.832   8.134   5.752
80711SOL     OW44029   8.331   0.701  10.557
80711SOL    HW144030   8.280   0.724  10.480
80711SOL    HW244031   8.419   0.733  10.538
80712SOL     OW44032   1.922   7.456   8.872
80712SOL    HW144033   1.907   7.540   8.830
80712SOL    HW244034   1.930   7.393   8.800
80713SOL     OW44035  10.589  14.040  11.542
80713SOL    HW144036  10.626  14.091  11.470
80713SOL    HW244037  10.602  13.949  11.517
80714SOL     OW44038   0.240   8.781   8.197
80714SOL    HW144039   0.185   8.854   8.168
80714SOL    HW244040   0.220   8.710   8.137
80715SOL     OW44041  14.529  14.781   7.636
80715SOL    HW144042  14.553  14.873   7.650
80715SOL    HW244043  14.437  14.785   7.610
80716SOL     OW44044   6.298   9.719  13.260
80716SOL    HW144045   6.238   9.683  13.195
80716SOL    HW244046   6.296   9.814  13.245
80717SOL     OW44047  11.358  11.428  10.407
80717SOL    HW144048  11.323  11.350  10.363
80717SOL    HW244049  11.293  11.496  10.389
80718SOL     OW44050  13.152   3.672   1.448
80718SOL    HW144051  13.211   3.741   1.417
80718SOL    HW244052  13.067   3.695   1.411
80719SOL     OW44053   1.733   6.895  11.297
80719SOL    HW144054   1.809   6.883  11.241
80719SOL    HW244055   1.747   6.835  11.370
80720SOL     OW44056   2.382  11.488   4.944
80720SOL    HW144057   2.410  11.573   4.909
80720SOL    HW244058   2.307  11.509   5.001
80721SOL     OW44059   1.863   9.065   8.302
80721SOL    HW144060   1.900   9.128   8.364
80721SOL    HW244061   1.894   8.980   8.333
80722SOL     OW44062  12.643  12.365  14.700
80722SOL    HW144063  12.586  12.299  14.661
80722SOL    HW244064  12.730  12.326  14.697
80723SOL     OW44065   3.220  10.015   6.680
80723SOL    HW144066   3.300  10.001   6.630
80723SOL    HW244067   3.248  10.019   6.771
80724SOL     OW44068   1.319   0.009  14.589
80724SOL    HW144069   1.370  14.834  14.531
80724SOL    HW244070   1.230  14.853  14.584
80725SOL     OW44071   5.474  13.419   1.047
80725SOL    HW144072   5.498  13.511   1.037
80725SOL    HW244073   5.544  13.381   1.099
80726SOL     OW44074   1.323   5.116   7.329
80726SOL    HW144075   1.407   5.087   7.365
80726SOL    HW244076   1.259   5.053   7.363
80727SOL     OW44077   4.696   7.801   8.185
80727SOL    HW144078   4.775   7.750   8.168
80727SOL    HW244079   4.632   7.766   8.123
80728SOL     OW44080  13.462   8.136   6.749
80728SOL    HW144081  13.411   8.056   6.739
80728SOL    HW244082  13.536   8.111   6.804
80729SOL     OW44083  14.555  13.613  12.193
80729SOL    HW144084  14.636  13.564  12.208
80729SOL    HW244085  14.537  13.656  12.276
80730SOL     OW44086  13.884   9.069   8.941
80730SOL    HW144087  13.815   9.076   8.875
80730SOL    HW244088  13.837   9.049   9.022
80731SOL     OW44089   1.102   4.121   6.089
80731SOL    HW144090   1.177   4.122   6.029
80731SOL    HW244091   1.073   4.212   6.092
80732SOL     OW44092   7.740   5.502   3.675
80732SOL    HW144093   7.822   5.518   3.722
80732SOL    HW244094   7.673   5.499   3.743
80733SOL     OW44095  13.512  11.019   9.225
80733SOL    HW144096  13.519  10.944   9.285
80733SOL    HW244097  13.513  11.095   9.282
80734SOL     OW44098   8.865   6.794   8.875
80734SOL    HW144099   8.863   6.846   8.955
80734SOL    HW244100   8.924   6.842   8.817
80735SOL     OW44101   8.874  11.064   8.574
80735SOL    HW144102   8.894  10.999   8.506
80735SOL    HW244103   8.920  11.032   8.651
80736SOL     OW44104   8.631   4.972  10.935
80736SOL    HW144105   8.720   4.947  10.911
80736SOL    HW244106   8.592   5.003  10.853
80737SOL     OW44107   2.196   7.867   9.013
80737SOL    HW144108   2.178   7.951   9.056
80737SOL    HW244109   2.132   7.806   9.052
80738SOL     OW44110   3.264  13.875  12.090
80738SOL    HW144111   3.223  13.894  12.006
80738SOL    HW244112   3.288  13.960  12.126
80739SOL     OW44113   9.453   9.672  14.538
80739SOL    HW144114   9.476   9.698  14.449
80739SOL    HW244115   9.357   9.672  14.539
80740SOL     OW44116   8.395   6.434   5.906
80740SOL    HW144117   8.439   6.402   5.827
80740SOL    HW244118   8.360   6.520   5.881
80741SOL     OW44119   8.912   3.161   1.064
80741SOL    HW144120   8.972   3.235   1.065
80741SOL    HW244121   8.846   3.182   1.130
80742SOL     OW44122   4.204   2.218   8.201
80742SOL    HW144123   4.279   2.161   8.183
80742SOL    HW244124   4.218   2.248   8.290
80743SOL     OW44125  11.300  11.564   8.556
80743SOL    HW144126  11.257  11.615   8.488
80743SOL    HW244127  11.380  11.612   8.576
80744SOL     OW44128   1.454   6.442  14.744
80744SOL    HW144129   1.372   6.451  14.792
80744SOL    HW244130   1.520   6.427  14.812
80745SOL     OW44131   2.845   2.134  12.107
80745SOL    HW144132   2.761   2.091  12.095
80745SOL    HW244133   2.824   2.227  12.116
80746SOL     OW44134   7.452   5.087  12.970
80746SOL    HW144135   7.431   5.080  12.877
80746SOL    HW244136   7.546   5.074  12.975
80747SOL     OW44137   6.501   5.947   5.117
80747SOL    HW144138   6.566   5.916   5.053
80747SOL    HW244139   6.447   5.870   5.135
80748SOL     OW44140   6.606  10.947  11.665
80748SOL    HW144141   6.696  10.938  11.694
80748SOL    HW244142   6.610  11.012  11.594
80749SOL     OW44143   6.659   2.953  13.833
80749SOL    HW144144   6.737   2.991  13.793
80749SOL    HW244145   6.595   2.948  13.762
80750SOL     OW44146   8.885   1.464  10.990
80750SOL    HW144147   8.895   1.416  10.907
80750SOL    HW244148   8.835   1.542  10.966
80751SOL     OW44149   5.376  12.851  13.390
80751SOL    HW144150   5.305  12.789  13.406
80751SOL    HW244151   5.410  12.872  13.477
80752SOL     OW44152  12.517   0.703   0.554
80752SOL    HW144153  12.506   0.707   0.459
80752SOL    HW244154  12.570   0.780   0.575
80753SOL     OW44155   5.349  14.351  10.437
80753SOL    HW144156   5.334  14.265  10.398
80753SOL    HW244157   5.375  14.406  10.364
80754SOL     OW44158   6.861   8.380  13.141
80754SOL    HW144159   6.816   8.331  13.072
80754SOL    HW244160   6.871   8.468  13.104
80755SOL     OW44161  10.006  12.116  10.484
80755SOL    HW144162  10.076  12.117  10.550
80755SOL    HW244163   9.991  12.208  10.464
80756SOL     OW44164  13.512   5.217   3.273
80756SOL    HW144165  13.452   5.290   3.263
80756SOL    HW244166  13.528   5.186   3.184
80757SOL     OW44167  10.913   3.561  11.956
80757SOL    HW144168  10.918   3.467  11.973
80757SOL    HW244169  10.879   3.568  11.867
80758SOL     OW44170   0.276   0.295  11.350
80758SOL    HW144171   0.270   0.364  11.416
80758SOL    HW244172   0.339   0.328  11.286
80759SOL     OW44173   1.428   6.179   7.842
80759SOL    HW144174   1.442   6.262   7.796
80759SOL    HW244175   1.432   6.113   7.773
80760SOL     OW44176   9.752   9.526  13.025
80760SOL    HW144177   9.799   9.478  12.956
80760SOL    HW244178   9.711   9.457  13.078
80761SOL     OW44179   8.941   0.372   3.498
80761SOL    HW144180   8.922   0.279   3.504
80761SOL    HW244181   8.958   0.387   3.405
80762SOL     OW44182   6.211  11.836   0.829
80762SOL    HW144183   6.127  11.879   0.848
80762SOL    HW244184   6.193  11.783   0.751
80763SOL     OW44185   6.040   0.391   0.084
80763SOL    HW144186   6.060   0.480   0.112
80763SOL    HW244187   5.961   0.367   0.133
80764SOL     OW44188  13.084   0.581   7.221
80764SOL    HW144189  13.006   0.544   7.262
80764SOL    HW244190  13.155   0.561   7.281
80765SOL     OW44191   5.785   5.323   7.500
80765SOL    HW144192   5.732   5.394   7.536
80765SOL    HW244193   5.818   5.277   7.576
80766SOL     OW44194  14.777  13.636   6.586
80766SOL    HW144195  14.818  13.563   6.631
80766SOL    HW244196  14.841  13.707   6.591
80767SOL     OW44197   3.341   5.214   7.059
80767SOL    HW144198   3.288   5.188   6.984
80767SOL    HW244199   3.317   5.305   7.074
80768SOL     OW44200   5.782   5.212   5.483
80768SOL    HW144201   5.864   5.254   5.511
80768SOL    HW244202   5.785   5.215   5.388
80769SOL     OW44203   3.771   0.088   4.828
80769SOL    HW144204   3.746   0.011   4.778
80769SOL    HW244205   3.865   0.078   4.844
80770SOL     OW44206  13.451   2.555   2.106
80770SOL    HW144207  13.358   2.568   2.123
80770SOL    HW244208  13.488   2.529   2.191
80771SOL     OW44209  11.831  14.393   5.062
80771SOL    HW144210  11.915  14.363   5.096
80771SOL    HW244211  11.768  14.329   5.094
80772SOL     OW44212   6.617   6.430  13.264
80772SOL    HW144213   6.707   6.429  13.298
80772SOL    HW244214   6.616   6.503  13.202
80773SOL     OW44215   3.440   1.894   0.111
80773SOL    HW144216   3.427   1.854   0.024
80773SOL    HW244217   3.503   1.964   0.095
80774SOL     OW44218   6.705   8.134   7.568
80774SOL    HW144219   6.702   8.201   7.636
80774SOL    HW244220   6.669   8.056   7.611
80775SOL     OW44221  11.493  12.659   4.626
80775SOL    HW144222  11.458  12.588   4.679
80775SOL    HW244223  11.418  12.692   4.576
80776SOL     OW44224  11.896   8.026   9.042
80776SOL    HW144225  11.807   8.052   9.065
80776SOL    HW244226  11.934   8.104   9.002
80777SOL     OW44227  10.991  13.892   4.123
80777SOL    HW144228  10.932  13.821   4.146
80777SOL    HW244229  11.074  13.848   4.103
80778SOL     OW44230   6.992   3.954   6.281
80778SOL    HW144231   7.085   3.939   6.262
80778SOL    HW244232   6.954   3.867   6.288
80779SOL     OW44233   3.947   5.214   3.130
80779SOL    HW144234   3.866   5.211   3.180
80779SOL    HW244235   3.935   5.284   3.066
80780SOL     OW44236  11.913   6.782  13.790
80780SOL    HW144237  11.871   6.804  13.707
80780SOL    HW244238  11.928   6.688  13.786
80781SOL     OW44239   9.927  13.837   8.138
80781SOL    HW144240   9.978  13.768   8.180
80781SOL    HW244241   9.836  13.816   8.158
80782SOL     OW44242  14.448   7.645  13.491
80782SOL    HW144243  14.438   7.711  13.559
80782SOL    HW244244  14.393   7.677  13.419
80783SOL     OW44245  13.622   6.297   3.578
80783SOL    HW144246  13.547   6.348   3.607
80783SOL    HW244247  13.656   6.256   3.658
80784SOL     OW44248   1.819   5.003  10.184
80784SOL    HW144249   1.764   4.971  10.111
80784SOL    HW244250   1.829   4.927  10.241
80785SOL     OW44251   4.288  14.043  11.327
80785SOL    HW144252   4.223  14.103  11.365
80785SOL    HW244253   4.352  14.031  11.397
80786SOL     OW44254   4.337   5.105  12.381
80786SOL    HW144255   4.287   5.130  12.303
80786SOL    HW244256   4.279   5.045  12.429
80787SOL     OW44257   8.642  14.029  13.131
80787SOL    HW144258   8.724  13.982  13.126
80787SOL    HW244259   8.587  13.991  13.062
80788SOL     OW44260   5.443   5.722  13.854
80788SOL    HW144261   5.487   5.800  13.887
80788SOL    HW244262   5.501   5.688  13.786
80789SOL     OW44263   8.459   2.744   2.546
80789SOL    HW144264   8.374   2.698   2.547
80789SOL    HW244265   8.524   2.674   2.546
80790SOL     OW44266  14.831   3.086  14.172
80790SOL    HW144267   0.027   3.035  14.143
80790SOL    HW244268  14.823   3.067  14.265
80791SOL     OW44269   6.457   0.504   7.328
80791SOL    HW144270   6.422   0.541   7.247
80791SOL    HW244271   6.417   0.418   7.336
80792SOL     OW44272   8.629  10.737  12.650
80792SOL    HW144273   8.654  10.715  12.739
80792SOL    HW244274   8.533  10.731  12.650
80793SOL     OW44275  11.015   7.213   8.543
80793SOL    HW144276  11.110   7.219   8.538
80793SOL    HW244277  10.985   7.301   8.520
80794SOL     OW44278  11.524  14.556   8.680
80794SOL    HW144279  11.430  14.547   8.664
80794SOL    HW244280  11.565  14.493   8.621
80795SOL     OW44281   7.468   3.503   8.771
80795SOL    HW144282   7.462   3.570   8.702
80795SOL    HW244283   7.555   3.466   8.760
80796SOL     OW44284   5.333  13.122   2.130
80796SOL    HW144285   5.314  13.053   2.194
80796SOL    HW244286   5.426  13.139   2.141
80797SOL     OW44287   1.510   1.828  10.004
80797SOL    HW144288   1.440   1.891  10.019
80797SOL    HW244289   1.545   1.851   9.917
80798SOL     OW44290   3.079   2.452   8.536
80798SOL    HW144291   3.087   2.535   8.487
80798SOL    HW244292   2.985   2.442   8.551
80799SOL     OW44293   5.177  13.050   4.451
80799SOL    HW144294   5.234  13.121   4.479
80799SOL    HW244295   5.091  13.092   4.439
80800SOL     OW44296   9.204   4.027   9.338
80800SOL    HW144297   9.270   4.046   9.405
80800SOL    HW244298   9.122   4.020   9.387
80801SOL     OW44299   6.652   3.560  10.654
80801SOL    HW144300   6.724   3.589  10.710
80801SOL    HW244301   6.683   3.577  10.565
80802SOL     OW44302   4.041   5.388  12.811
80802SOL    HW144303   4.086   5.459  12.857
80802SOL    HW244304   4.111   5.327  12.786
80803SOL     OW44305   2.743   2.604   4.809
80803SOL    HW144306   2.685   2.545   4.857
80803SOL    HW244307   2.706   2.607   4.720
80804SOL     OW44308   7.555   9.044   9.298
80804SOL    HW144309   7.552   8.951   9.323
80804SOL    HW244310   7.528   9.045   9.206
80805SOL     OW44311  13.766   0.508   9.513
80805SOL    HW144312  13.783   0.590   9.467
80805SOL    HW244313  13.842   0.454   9.494
80806SOL     OW44314   6.739   6.132  14.483
80806SOL    HW144315   6.795   6.078  14.539
80806SOL    HW244316   6.650   6.110  14.510
80807SOL     OW44317   3.736   8.801  11.801
80807SOL    HW144318   3.729   8.810  11.896
80807SOL    HW244319   3.828   8.783  11.785
80808SOL     OW44320   5.297  13.005   6.747
80808SOL    HW144321   5.227  13.042   6.800
80808SOL    HW244322   5.378  13.037   6.787
80809SOL     OW44323  14.295  13.578  14.133
80809SOL    HW144324  14.370  13.579  14.193
80809SOL    HW244325  14.275  13.485  14.121
80810SOL     OW44326  13.475   9.626   2.746
80810SOL    HW144327  13.478   9.551   2.688
80810SOL    HW244328  13.535   9.690   2.707
80811SOL     OW44329   5.634  10.619   7.969
80811SOL    HW144330   5.682  10.548   7.927
80811SOL    HW244331   5.595  10.580   8.047
80812SOL     OW44332   3.734   0.898   7.736
80812SOL    HW144333   3.743   0.991   7.756
80812SOL    HW244334   3.819   0.860   7.757
80813SOL     OW44335   5.913   0.780  11.837
80813SOL    HW144336   5.998   0.811  11.807
80813SOL    HW244337   5.932   0.720  11.909
80814SOL     OW44338  13.309   6.876   3.997
80814SOL    HW144339  13.358   6.802   4.033
80814SOL    HW244340  13.359   6.953   4.023
80815SOL     OW44341   3.721   6.158   1.525
80815SOL    HW144342   3.666   6.236   1.521
80815SOL    HW244343   3.804   6.184   1.486
80816SOL     OW44344   8.949  10.011   6.851
80816SOL    HW144345   8.969  10.038   6.940
80816SOL    HW244346   8.910  10.089   6.810
80817SOL     OW44347   3.008  14.630   6.260
80817SOL    HW144348   2.933  14.671   6.303
80817SOL    HW244349   3.030  14.690   6.189
80818SOL     OW44350  14.489   3.601   5.950
80818SOL    HW144351  14.467   3.616   6.041
80818SOL    HW244352  14.405   3.593   5.905
80819SOL     OW44353   0.804  14.125  14.621
80819SOL    HW144354   0.796  14.031  14.604
80819SOL    HW244355   0.827  14.131  14.714
80820SOL     OW44356  12.748  10.679   8.527
80820SOL    HW144357  12.681  10.743   8.502
80820SOL    HW244358  12.801  10.669   8.448
80821SOL     OW44359   3.034   3.420  10.919
80821SOL    HW144360   3.073   3.491  10.869
80821SOL    HW244361   2.942   3.420  10.893
80822SOL     OW44362   2.971   4.882   4.140
80822SOL    HW144363   2.916   4.915   4.069
80822SOL    HW244364   3.049   4.849   4.096
80823SOL     OW44365   6.793   2.018  10.965
80823SOL    HW144366   6.867   2.072  10.994
80823SOL    HW244367   6.823   1.928  10.979
80824SOL     OW44368  10.416   5.351  13.349
80824SOL    HW144369  10.437   5.283  13.414
80824SOL    HW244370  10.375   5.303  13.277
80825SOL     OW44371   1.867   1.238   0.426
80825SOL    HW144372   1.796   1.289   0.386
80825SOL    HW244373   1.823   1.188   0.495
80826SOL     OW44374   3.716   5.580  12.527
80826SOL    HW144375   3.735   5.494  12.487
80826SOL    HW244376   3.723   5.564  12.621
80827SOL     OW44377   9.962   9.253  13.792
80827SOL    HW144378   9.877   9.298  13.796
80827SOL    HW244379   9.992   9.268  13.702
80828SOL     OW44380  11.294   7.124   3.653
80828SOL    HW144381  11.309   7.105   3.561
80828SOL    HW244382  11.237   7.053   3.684
80829SOL     OW44383   2.044  14.776   4.110
80829SOL    HW144384   2.039  14.797   4.204
80829SOL    HW244385   1.959  14.804   4.075
80830SOL     OW44386   0.367   6.258   2.091
80830SOL    HW144387   0.334   6.192   2.030
80830SOL    HW244388   0.292   6.314   2.108
80831SOL     OW44389   9.618   2.927   8.823
80831SOL    HW144390   9.626   2.853   8.884
80831SOL    HW244391   9.552   2.983   8.863
80832SOL     OW44392  12.083  12.880  11.864
80832SOL    HW144393  12.114  12.892  11.954
80832SOL    HW244394  12.164  12.873  11.812
80833SOL     OW44395  11.452   9.465   6.251
80833SOL    HW144396  11.380   9.525   6.272
80833SOL    HW244397  11.409   9.381   6.233
80834SOL     OW44398   9.571  12.473   2.755
80834SOL    HW144399   9.580  12.560   2.716
80834SOL    HW244400   9.649  12.426   2.726
80835SOL     OW44401  10.425   7.700  14.370
80835SOL    HW144402  10.368   7.733  14.300
80835SOL    HW244403  10.484   7.639  14.327
80836SOL     OW44404  13.900   9.434   2.408
80836SOL    HW144405  13.901   9.472   2.320
80836SOL    HW244406  13.938   9.502   2.464
80837SOL     OW44407  11.615  11.517  11.861
80837SOL    HW144408  11.531  11.553  11.889
80837SOL    HW244409  11.611  11.425  11.888
80838SOL     OW44410   2.949   1.615   5.456
80838SOL    HW144411   2.904   1.680   5.401
80838SOL    HW244412   2.970   1.544   5.396
80839SOL     OW44413   6.964   4.761   8.626
80839SOL    HW144414   6.993   4.838   8.675
80839SOL    HW244415   6.996   4.687   8.678
80840SOL     OW44416  12.180   0.102  13.001
80840SOL    HW144417  12.204   0.045  13.075
80840SOL    HW244418  12.168   0.188  13.041
80841SOL     OW44419  11.666   4.338   9.436
80841SOL    HW144420  11.689   4.419   9.481
80841SOL    HW244421  11.663   4.361   9.343
80842SOL     OW44422  14.833   0.256  10.430
80842SOL    HW144423  14.868   0.189  10.488
80842SOL    HW244424  14.738   0.250  10.441
80843SOL     OW44425   0.784  11.320  13.592
80843SOL    HW144426   0.867  11.280  13.619
80843SOL    HW244427   0.741  11.254  13.538
80844SOL     OW44428  14.510  11.142  11.270
80844SOL    HW144429  14.444  11.109  11.330
80844SOL    HW244430  14.571  11.191  11.326
80845SOL     OW44431   3.031   2.778  11.670
80845SOL    HW144432   3.015   2.726  11.749
80845SOL    HW244433   2.956   2.759  11.614
80846SOL     OW44434   8.645  10.993   3.297
80846SOL    HW144435   8.660  10.905   3.330
80846SOL    HW244436   8.715  11.046   3.335
80847SOL     OW44437  12.541   9.720   4.428
80847SOL    HW144438  12.489   9.648   4.464
80847SOL    HW244439  12.564   9.691   4.340
80848SOL     OW44440   1.823  11.449  14.257
80848SOL    HW144441   1.741  11.408  14.230
80848SOL    HW244442   1.853  11.497  14.180
80849SOL     OW44443   0.189  10.757   0.245
80849SOL    HW144444   0.221  10.667   0.237
80849SOL    HW244445   0.240  10.794   0.317
80850SOL     OW44446  11.349   9.881   7.444
80850SOL    HW144447  11.333   9.879   7.538
80850SOL    HW244448  11.440   9.851   7.435
80851SOL     OW44449   0.605  11.185  13.789
80851SOL    HW144450   0.669  11.227  13.731
80851SOL    HW244451   0.579  11.253  13.850
80852SOL     OW44452  13.612   2.303  13.595
80852SOL    HW144453  13.628   2.355  13.516
80852SOL    HW244454  13.533   2.252  13.574
80853SOL     OW44455   2.294   1.626   9.438
80853SOL    HW144456   2.370   1.568   9.432
80853SOL    HW244457   2.228   1.573   9.484
80854SOL     OW44458   0.166   4.225  10.396
80854SOL    HW144459   0.118   4.297  10.437
80854SOL    HW244460   0.098   4.159  10.379
80855SOL     OW44461   5.555  13.655  10.650
80855SOL    HW144462   5.479  13.597  10.644
80855SOL    HW244463   5.541  13.705  10.731
80856SOL     OW44464  11.093   2.355   5.415
80856SOL    HW144465  11.026   2.389   5.474
80856SOL    HW244466  11.053   2.360   5.328
80857SOL     OW44467  12.234   2.167  12.987
80857SOL    HW144468  12.230   2.077  12.957
80857SOL    HW244469  12.328   2.184  13.000
80858SOL     OW44470   4.598   5.648   8.293
80858SOL    HW144471   4.578   5.707   8.366
80858SOL    HW244472   4.621   5.706   8.221
80859SOL     OW44473  10.309   0.284  11.654
80859SOL    HW144474  10.363   0.220  11.607
80859SOL    HW244475  10.235   0.301  11.595
80860SOL     OW44476  11.072  13.967   3.596
80860SOL    HW144477  11.129  14.043   3.603
80860SOL    HW244478  11.105  13.907   3.663
80861SOL     OW44479   0.595  12.632   2.398
80861SOL    HW144480   0.641  12.687   2.461
80861SOL    HW244481   0.502  12.649   2.414
80862SOL     OW44482   4.567  11.306  11.237
80862SOL    HW144483   4.489  11.355  11.264
80862SOL    HW244484   4.631  11.373  11.215
80863SOL     OW44485   3.035  14.508   7.212
80863SOL    HW144486   3.031  14.540   7.302
80863SOL    HW244487   3.014  14.584   7.159
80864SOL     OW44488   5.399   4.298   0.807
80864SOL    HW144489   5.304   4.297   0.816
80864SOL    HW244490   5.427   4.209   0.831
80865SOL     OW44491  11.719   0.298  13.821
80865SOL    HW144492  11.633   0.256  13.814
80865SOL    HW244493  11.740   0.326  13.733
80866SOL     OW44494   2.186   8.792   9.440
80866SOL    HW144495   2.105   8.744   9.422
80866SOL    HW244496   2.159   8.862   9.500
80867SOL     OW44497  10.143  13.555   7.580
80867SOL    HW144498  10.049  13.541   7.571
80867SOL    HW244499  10.152  13.647   7.608
80868SOL     OW44500   4.452  12.448  13.372
80868SOL    HW144501   4.505  12.370  13.389
80868SOL    HW244502   4.427  12.479  13.459
80869SOL     OW44503   1.620   9.440  10.308
80869SOL    HW144504   1.530   9.413  10.287
80869SOL    HW244505   1.641   9.505  10.241
80870SOL     OW44506   9.249   8.417   3.213
80870SOL    HW144507   9.255   8.456   3.300
80870SOL    HW244508   9.329   8.365   3.204
80871SOL     OW44509   6.728   0.799   7.857
80871SOL    HW144510   6.745   0.890   7.882
80871SOL    HW244511   6.656   0.805   7.794
80872SOL     OW44512  10.904   5.363   6.515
80872SOL    HW144513  10.905   5.459   6.520
80872SOL    HW244514  10.812   5.341   6.497
80873SOL     OW44515  11.901  11.362   0.729
80873SOL    HW144516  11.910  11.457   0.725
80873SOL    HW244517  11.987  11.332   0.759
80874SOL     OW44518   6.739  10.412  12.328
80874SOL    HW144519   6.766  10.393  12.238
80874SOL    HW244520   6.645  10.392  12.329
80875SOL     OW44521   5.099   1.981   9.771
80875SOL    HW144522   5.135   1.903   9.814
80875SOL    HW244523   5.029   1.948   9.715
80876SOL     OW44524   0.085   6.606   9.427
80876SOL    HW144525   0.142   6.603   9.351
80876SOL    HW244526   0.058   6.698   9.432
80877SOL     OW44527   7.406  10.619   9.962
80877SOL    HW144528   7.424  10.526   9.973
80877SOL    HW244529   7.492  10.659   9.949
80878SOL     OW44530   2.911  10.002   0.474
80878SOL    HW144531   2.823  10.038   0.484
80878SOL    HW244532   2.898   9.907   0.468
80879SOL     OW44533   8.893  10.076  14.124
80879SOL    HW144534   8.949  10.127  14.182
80879SOL    HW244535   8.909  10.113  14.037
80880SOL     OW44536   4.791   0.704   7.036
80880SOL    HW144537   4.846   0.632   7.004
80880SOL    HW244538   4.851   0.759   7.086
80881SOL     OW44539  12.004   1.841   0.653
80881SOL    HW144540  12.023   1.752   0.626
80881SOL    HW244541  12.045   1.850   0.739
80882SOL     OW44542  10.207   3.266   1.018
80882SOL    HW144543  10.171   3.203   1.081
80882SOL    HW244544  10.296   3.236   1.003
80883SOL     OW44545  11.342  14.736  13.542
80883SOL    HW144546  11.324  14.741  13.448
80883SOL    HW244547  11.431  14.771  13.551
80884SOL     OW44548   6.612  13.577   4.193
80884SOL    HW144549   6.620  13.673   4.189
80884SOL    HW244550   6.673  13.552   4.263
80885SOL     OW44551  13.379   5.300   4.910
80885SOL    HW144552  13.383   5.395   4.911
80885SOL    HW244553  13.426   5.273   4.990
80886SOL     OW44554   0.666   4.461   3.239
80886SOL    HW144555   0.755   4.433   3.262
80886SOL    HW244556   0.611   4.388   3.267
80887SOL     OW44557   7.662   5.175  10.262
80887SOL    HW144558   7.622   5.178  10.349
80887SOL    HW244559   7.756   5.174  10.278
80888SOL     OW44560  13.792   0.509   8.058
80888SOL    HW144561  13.794   0.422   8.098
80888SOL    HW244562  13.738   0.561   8.116
80889SOL     OW44563   5.209  14.451  14.708
80889SOL    HW144564   5.183  14.443  14.616
80889SOL    HW244565   5.304  14.463  14.705
80890SOL     OW44566   4.147  10.268  14.392
80890SOL    HW144567   4.187  10.181  14.383
80890SOL    HW244568   4.127  10.294  14.302
80891SOL     OW44569   1.860   9.963  12.967
80891SOL    HW144570   1.795   9.939  13.033
80891SOL    HW244571   1.934   9.904  12.984
80892SOL     OW44572   7.987  14.144   0.325
80892SOL    HW144573   8.006  14.167   0.416
80892SOL    HW244574   7.995  14.226   0.277
80893SOL     OW44575  11.202  10.513  12.658
80893SOL    HW144576  11.270  10.579  12.658
80893SOL    HW244577  11.244  10.436  12.619
80894SOL     OW44578  10.254  12.750   2.668
80894SOL    HW144579  10.206  12.668   2.659
80894SOL    HW244580  10.284  12.750   2.759
80895SOL     OW44581  12.569   8.481   8.165
80895SOL    HW144582  12.497   8.519   8.114
80895SOL    HW244583  12.578   8.539   8.240
80896SOL     OW44584   9.422   2.803  11.905
80896SOL    HW144585   9.414   2.735  11.838
80896SOL    HW244586   9.482   2.766  11.969
80897SOL     OW44587  12.137   7.217  13.726
80897SOL    HW144588  12.081   7.203  13.803
80897SOL    HW244589  12.077   7.244  13.657
80898SOL     OW44590  10.028  10.258   1.713
80898SOL    HW144591   9.969  10.200   1.664
80898SOL    HW244592  10.116  10.230   1.687
80899SOL     OW44593   7.930   7.561  13.086
80899SOL    HW144594   7.941   7.655  13.103
80899SOL    HW244595   7.836   7.550  13.071
80900SOL     OW44596   8.630   0.296   5.120
80900SOL    HW144597   8.672   0.276   5.036
80900SOL    HW244598   8.635   0.392   5.127
80901SOL     OW44599   8.516   9.145   3.251
80901SOL    HW144600   8.600   9.113   3.218
80901SOL    HW244601   8.465   9.065   3.267
80902SOL     OW44602  14.876  13.920  10.885
80902SOL    HW144603  14.785  13.901  10.906
80902SOL    HW244604   0.041  13.835  10.889
80903SOL     OW44605  11.681   7.593  13.555
80903SOL    HW144606  11.771   7.573  13.527
80903SOL    HW244607  11.664   7.532  13.627
80904SOL     OW44608   8.258  14.568   3.876
80904SOL    HW144609   8.350  14.560   3.848
80904SOL    HW244610   8.239  14.485   3.919
80905SOL     OW44611   3.115   1.971  11.660
80905SOL    HW144612   3.061   2.034  11.708
80905SOL    HW244613   3.202   2.011  11.658
80906SOL     OW44614  14.316   5.035   2.109
80906SOL    HW144615  14.342   5.110   2.054
80906SOL    HW244616  14.258   4.984   2.053
80907SOL     OW44617   6.729   5.438  12.809
80907SOL    HW144618   6.796   5.437  12.878
80907SOL    HW244619   6.662   5.498  12.840
80908SOL     OW44620   7.936   3.255   3.717
80908SOL    HW144621   8.022   3.215   3.720
80908SOL    HW244622   7.938   3.311   3.639
80909SOL     OW44623   1.872  14.720  11.275
80909SOL    HW144624   1.947  14.732  11.333
80909SOL    HW244625   1.797  14.710  11.335
80910SOL     OW44626  14.743   4.697   7.992
80910SOL    HW144627  14.739   4.711   7.897
80910SOL    HW244628  14.798   4.768   8.024
80911SOL     OW44629   9.005   0.625  12.998
80911SOL    HW144630   8.930   0.589  13.046
80911SOL    HW244631   9.032   0.701  13.049
80912SOL     OW44632   3.003  11.497  12.707
80912SOL    HW144633   2.925  11.553  12.715
80912SOL    HW244634   2.995  11.434  12.778
80913SOL     OW44635  10.396  12.584   6.842
80913SOL    HW144636  10.368  12.554   6.928
80913SOL    HW244637  10.473  12.530   6.822
80914SOL     OW44638   1.515  14.635   6.171
80914SOL    HW144639   1.423  14.612   6.181
80914SOL    HW244640   1.538  14.604   6.083
80915SOL     OW44641  14.102  10.798   8.390
80915SOL    HW144642  14.161  10.842   8.452
80915SOL    HW244643  14.160  10.744   8.336
80916SOL     OW44644   1.577   8.273   5.318
80916SOL    HW144645   1.569   8.199   5.378
80916SOL    HW244646   1.658   8.317   5.345
80917SOL     OW44647   4.629   4.700   8.219
80917SOL    HW144648   4.561   4.738   8.162
80917SOL    HW244649   4.706   4.755   8.203
80918SOL     OW44650   1.969  12.642   2.850
80918SOL    HW144651   1.941  12.716   2.797
80918SOL    HW244652   2.063  12.633   2.832
80919SOL     OW44653   9.310   0.191   2.255
80919SOL    HW144654   9.215   0.180   2.256
80919SOL    HW244655   9.325   0.262   2.192
80920SOL     OW44656  12.916  10.649   0.874
80920SOL    HW144657  12.918  10.741   0.849
80920SOL    HW244658  12.881  10.649   0.963
80921SOL     OW44659  13.883  11.499   6.664
80921SOL    HW144660  13.835  11.418   6.680
80921SOL    HW244661  13.834  11.566   6.711
80922SOL     OW44662  14.554  11.925  12.676
80922SOL    HW144663  14.648  11.941  12.688
80922SOL    HW244664  14.538  11.943  12.583
80923SOL     OW44665   6.054  12.855   8.699
80923SOL    HW144666   6.119  12.784   8.697
80923SOL    HW244667   5.970  12.810   8.704
80924SOL     OW44668  13.014   6.341  10.196
80924SOL    HW144669  13.023   6.280  10.123
80924SOL    HW244670  12.968   6.417  10.159
80925SOL     OW44671   1.353   4.312  13.805
80925SOL    HW144672   1.410   4.306  13.881
80925SOL    HW244673   1.411   4.339  13.733
80926SOL     OW44674   6.450   8.193   9.716
80926SOL    HW144675   6.410   8.106   9.714
80926SOL    HW244676   6.436   8.228   9.628
80927SOL     OW44677   7.102   0.153   7.696
80927SOL    HW144678   7.184   0.105   7.681
80927SOL    HW244679   7.086   0.199   7.614
80928SOL     OW44680  11.520  10.736   4.187
80928SOL    HW144681  11.610  10.745   4.156
80928SOL    HW244682  11.529  10.700   4.275
80929SOL     OW44683   5.030  14.446   6.591
80929SOL    HW144684   5.033  14.423   6.684
80929SOL    HW244685   4.965  14.516   6.586
80930SOL     OW44686  13.376   1.373  11.724
80930SOL    HW144687  13.382   1.377  11.629
80930SOL    HW244688  13.449   1.427  11.755
80931SOL     OW44689   8.769  14.279   8.601
80931SOL    HW144690   8.813  14.233   8.672
80931SOL    HW244691   8.678  14.286   8.630
80932SOL     OW44692   6.451   8.650  10.477
80932SOL    HW144693   6.494   8.565  10.484
80932SOL    HW244694   6.358   8.631  10.479
80933SOL     OW44695   5.494   3.128   1.273
80933SOL    HW144696   5.441   3.118   1.194
80933SOL    HW244697   5.455   3.202   1.319
80934SOL     OW44698  12.596  12.438  11.016
80934SOL    HW144699  12.605  12.392  10.932
80934SOL    HW244700  12.647  12.386  11.077
80935SOL     OW44701   1.771   1.141   1.805
80935SOL    HW144702   1.696   1.093   1.840
80935SOL    HW244703   1.735   1.224   1.776
80936SOL     OW44704   6.377   3.205  10.046
80936SOL    HW144705   6.458   3.190   9.997
80936SOL    HW244706   6.326   3.125  10.032
80937SOL     OW44707  12.564   8.195  14.582
80937SOL    HW144708  12.501   8.173  14.512
80937SOL    HW244709  12.517   8.258  14.637
80938SOL     OW44710  11.090  13.628   2.728
80938SOL    HW144711  11.176  13.625   2.685
80938SOL    HW244712  11.096  13.701   2.789
80939SOL     OW44713  11.028  14.156   1.139
80939SOL    HW144714  11.123  14.142   1.137
80939SOL    HW244715  11.005  14.151   1.232
80940SOL     OW44716   5.946  12.088   3.565
80940SOL    HW144717   5.957  12.087   3.470
80940SOL    HW244718   5.969  12.177   3.592
80941SOL     OW44719   5.181   4.991   5.124
80941SOL    HW144720   5.203   5.080   5.096
80941SOL    HW244721   5.222   4.981   5.210
80942SOL     OW44722   7.622  10.756   7.430
80942SOL    HW144723   7.552  10.771   7.367
80942SOL    HW244724   7.701  10.751   7.376
80943SOL     OW44725   7.810   1.367   0.038
80943SOL    HW144726   7.806   1.387  14.824
80943SOL    HW244727   7.827   1.272   0.042
80944SOL     OW44728   4.886  14.394   6.138
80944SOL    HW144729   4.929  14.466   6.183
80944SOL    HW244730   4.899  14.318   6.195
80945SOL     OW44731   7.300  11.184  11.969
80945SOL    HW144732   7.239  11.185  11.896
80945SOL    HW244733   7.303  11.274  12.000
80946SOL     OW44734   5.148   9.025   9.688
80946SOL    HW144735   5.078   8.960   9.675
80946SOL    HW244736   5.161   9.027   9.783
80947SOL     OW44737   2.275  11.440  14.871
80947SOL    HW144738   2.294  11.479  14.785
80947SOL    HW244739   2.213  11.369  14.852
80948SOL     OW44740   5.921  14.624  10.847
80948SOL    HW144741   5.898  14.639  10.755
80948SOL    HW244742   5.860  14.679  10.896
80949SOL     OW44743   5.595  14.253   8.252
80949SOL    HW144744   5.600  14.348   8.256
80949SOL    HW244745   5.532  14.229   8.321
80950SOL     OW44746   8.770   4.878   3.915
80950SOL    HW144747   8.714   4.806   3.884
80950SOL    HW244748   8.849   4.872   3.861
80951SOL     OW44749   4.342  13.461  11.341
80951SOL    HW144750   4.404  13.397  11.376
80951SOL    HW244751   4.285  13.483  11.415
80952SOL     OW44752  13.209   7.689   5.966
80952SOL    HW144753  13.168   7.770   5.936
80952SOL    HW244754  13.218   7.700   6.061
80953SOL     OW44755  13.179   1.358   9.616
80953SOL    HW144756  13.188   1.282   9.559
80953SOL    HW244757  13.233   1.425   9.575
80954SOL     OW44758   5.801  12.860   5.543
80954SOL    HW144759   5.764  12.858   5.455
80954SOL    HW244760   5.833  12.771   5.557
80955SOL     OW44761  11.248  13.059   5.979
80955SOL    HW144762  11.313  13.041   5.911
80955SOL    HW244763  11.257  13.152   5.997
80956SOL     OW44764   6.626   1.287  10.021
80956SOL    HW144765   6.712   1.266   9.986
80956SOL    HW244766   6.623   1.383  10.022
80957SOL     OW44767  10.461   1.634   7.389
80957SOL    HW144768  10.422   1.715   7.357
80957SOL    HW244769  10.497   1.657   7.475
80958SOL     OW44770  13.113  11.239   3.723
80958SOL    HW144771  13.072  11.183   3.789
80958SOL    HW244772  13.138  11.179   3.653
80959SOL     OW44773  12.350   7.608   5.085
80959SOL    HW144774  12.388   7.547   5.147
80959SOL    HW244775  12.359   7.694   5.127
80960SOL     OW44776   0.658   9.794   5.869
80960SOL    HW144777   0.639   9.821   5.959
80960SOL    HW244778   0.719   9.860   5.837
80961SOL     OW44779   9.153   6.280   9.789
80961SOL    HW144780   9.181   6.367   9.762
80961SOL    HW244781   9.204   6.220   9.734
80962SOL     OW44782   2.286   0.286   8.182
80962SOL    HW144783   2.238   0.362   8.150
80962SOL    HW244784   2.249   0.269   8.269
80963SOL     OW44785   6.922   2.090   5.458
80963SOL    HW144786   6.876   2.024   5.407
80963SOL    HW244787   6.895   2.074   5.549
80964SOL     OW44788   4.642   4.146  11.755
80964SOL    HW144789   4.614   4.105  11.673
80964SOL    HW244790   4.660   4.072  11.813
80965SOL     OW44791   6.689   1.471   7.484
80965SOL    HW144792   6.722   1.433   7.566
80965SOL    HW244793   6.620   1.411   7.456
80966SOL     OW44794   0.623  14.538   1.298
80966SOL    HW144795   0.624  14.474   1.370
80966SOL    HW244796   0.715  14.561   1.285
80967SOL     OW44797   2.589   5.262   0.394
80967SOL    HW144798   2.682   5.242   0.392
80967SOL    HW244799   2.566   5.277   0.303
80968SOL     OW44800   3.357   1.155   0.136
80968SOL    HW144801   3.323   1.087   0.193
80968SOL    HW244802   3.297   1.157   0.062
80969SOL     OW44803   8.618  13.340  11.834
80969SOL    HW144804   8.626  13.273  11.901
80969SOL    HW244805   8.707  13.354  11.801
80970SOL     OW44806   4.836   7.800   5.176
80970SOL    HW144807   4.842   7.772   5.268
80970SOL    HW244808   4.779   7.876   5.179
80971SOL     OW44809   3.682  11.773   5.374
80971SOL    HW144810   3.610  11.716   5.348
80971SOL    HW244811   3.759  11.716   5.377
80972SOL     OW44812   1.800  11.697   9.726
80972SOL    HW144813   1.708  11.724   9.726
80972SOL    HW244814   1.832  11.722   9.813
80973SOL     OW44815   7.860   1.885   4.695
80973SOL    HW144816   7.859   1.974   4.730
80973SOL    HW244817   7.852   1.829   4.772
80974SOL     OW44818  14.486  12.764  11.537
80974SOL    HW144819  14.417  12.746  11.601
80974SOL    HW244820  14.469  12.701  11.466
80975SOL     OW44821   0.819   0.083  10.488
80975SOL    HW144822   0.827   0.163  10.437
80975SOL    HW244823   0.902   0.038  10.476
80976SOL     OW44824   6.635   1.395   1.291
80976SOL    HW144825   6.655   1.316   1.240
80976SOL    HW244826   6.701   1.458   1.263
80977SOL     OW44827   8.053  11.759   2.391
80977SOL    HW144828   8.080  11.745   2.482
80977SOL    HW244829   8.095  11.841   2.366
80978SOL     OW44830   2.583   5.444   4.311
80978SOL    HW144831   2.575   5.405   4.398
80978SOL    HW244832   2.606   5.535   4.329
80979SOL     OW44833  11.956   9.448   3.685
80979SOL    HW144834  11.887   9.492   3.734
80979SOL    HW244835  12.037   9.473   3.730
80980SOL     OW44836   6.349   2.316   7.251
80980SOL    HW144837   6.424   2.374   7.271
80980SOL    HW244838   6.387   2.246   7.199
80981SOL     OW44839   3.713   4.250  11.965
80981SOL    HW144840   3.801   4.286  11.969
80981SOL    HW244841   3.665   4.310  11.908
80982SOL     OW44842  13.879   1.301  14.075
80982SOL    HW144843  13.969   1.270  14.078
80982SOL    HW244844  13.885   1.394  14.052
80983SOL     OW44845  11.826   0.204   1.358
80983SOL    HW144846  11.877   0.266   1.411
80983SOL    HW244847  11.756   0.175   1.416
80984SOL     OW44848  11.905   6.616   3.066
80984SOL    HW144849  11.994   6.640   3.089
80984SOL    HW244850  11.852   6.643   3.141
80985SOL     OW44851  14.365   1.558   0.072
80985SOL    HW144852  14.350   1.643   0.029
80985SOL    HW244853  14.364   1.495   0.001
80986SOL     OW44854   7.888  13.984   8.433
80986SOL    HW144855   7.895  13.969   8.339
80986SOL    HW244856   7.849  13.903   8.467
80987SOL     OW44857   3.275   8.101  13.517
80987SOL    HW144858   3.211   8.073  13.582
80987SOL    HW244859   3.287   8.024  13.461
80988SOL     OW44860   0.308  12.531   7.073
80988SOL    HW144861   0.382  12.583   7.103
80988SOL    HW244862   0.257  12.515   7.153
80989SOL     OW44863  10.766  11.178  12.843
80989SOL    HW144864  10.728  11.265  12.852
80989SOL    HW244865  10.718  11.124  12.906
80990SOL     OW44866  12.219   8.913   9.310
80990SOL    HW144867  12.261   8.901   9.395
80990SOL    HW244868  12.270   8.982   9.268
80991SOL     OW44869   9.240  10.980   5.106
80991SOL    HW144870   9.236  11.075   5.101
80991SOL    HW244871   9.154  10.951   5.075
80992SOL     OW44872  10.098   5.692   7.007
80992SOL    HW144873  10.066   5.646   6.930
80992SOL    HW244874  10.026   5.686   7.070
80993SOL     OW44875   4.528  13.511   7.453
80993SOL    HW144876   4.530  13.442   7.386
80993SOL    HW244877   4.486  13.470   7.528
80994SOL     OW44878   1.237   5.257   9.052
80994SOL    HW144879   1.187   5.183   9.018
80994SOL    HW244880   1.237   5.321   8.980
80995SOL     OW44881  10.127   0.656   4.623
80995SOL    HW144882  10.220   0.660   4.647
80995SOL    HW244883  10.082   0.700   4.695
80996SOL     OW44884   1.463   7.367   3.397
80996SOL    HW144885   1.430   7.405   3.315
80996SOL    HW244886   1.464   7.440   3.459
80997SOL     OW44887   9.959   8.583   4.083
80997SOL    HW144888   9.996   8.498   4.106
80997SOL    HW244889   9.868   8.577   4.112
80998SOL     OW44890   8.257   1.433   3.384
80998SOL    HW144891   8.274   1.417   3.477
80998SOL    HW244892   8.165   1.411   3.372
80999SOL     OW44893  12.455  10.817  13.690
80999SOL    HW144894  12.537  10.791  13.730
80999SOL    HW244895  12.424  10.891  13.743
81000SOL     OW44896  14.337  12.078   2.480
81000SOL    HW144897  14.384  12.161   2.472
81000SOL    HW244898  14.371  12.038   2.560
81001SOL     OW44899   6.480   7.634   2.889
81001SOL    HW144900   6.419   7.568   2.856
81001SOL    HW244901   6.452   7.716   2.847
81002SOL     OW44902   3.714   7.682  10.310
81002SOL    HW144903   3.642   7.649  10.364
81002SOL    HW244904   3.770   7.605  10.295
81003SOL     OW44905  13.528   2.861  14.690
81003SOL    HW144906  13.542   2.769  14.710
81003SOL    HW244907  13.616   2.899  14.690
81004SOL     OW44908   9.527   6.965   2.253
81004SOL    HW144909   9.540   6.871   2.239
81004SOL    HW244910   9.479   6.995   2.176
81005SOL     OW44911   6.976  12.206  13.353
81005SOL    HW144912   6.951  12.174  13.440
81005SOL    HW244913   6.913  12.166  13.294
81006SOL     OW44914   0.525   7.845  13.011
81006SOL    HW144915   0.439   7.852  13.052
81006SOL    HW244916   0.526   7.913  12.943
81007SOL     OW44917   7.313   2.914   3.150
81007SOL    HW144918   7.330   2.972   3.224
81007SOL    HW244919   7.290   2.972   3.078
81008SOL     OW44920   3.114  10.860   2.587
81008SOL    HW144921   3.183  10.807   2.628
81008SOL    HW244922   3.055  10.881   2.659
81009SOL     OW44923  11.178   8.057  14.114
81009SOL    HW144924  11.247   8.124  14.117
81009SOL    HW244925  11.161   8.046  14.020
81010SOL     OW44926   2.262  13.742   7.440
81010SOL    HW144927   2.330  13.726   7.506
81010SOL    HW244928   2.223  13.656   7.424
81011SOL     OW44929   9.468   2.695  11.290
81011SOL    HW144930   9.555   2.677  11.253
81011SOL    HW244931   9.485   2.744  11.370
81012SOL     OW44932   1.359  11.708  14.135
81012SOL    HW144933   1.337  11.801  14.127
81012SOL    HW244934   1.312  11.679  14.213
81013SOL     OW44935  14.403   2.118   1.286
81013SOL    HW144936  14.347   2.172   1.342
81013SOL    HW244937  14.342   2.072   1.229
81014SOL     OW44938   4.368   9.573   5.152
81014SOL    HW144939   4.459   9.551   5.171
81014SOL    HW244940   4.353   9.541   5.063
81015SOL     OW44941   9.943   6.077  10.582
81015SOL    HW144942  10.018   6.022  10.601
81015SOL    HW244943   9.927   6.126  10.663
81016SOL     OW44944   6.256  12.705   4.842
81016SOL    HW144945   6.303  12.767   4.786
81016SOL    HW244946   6.306  12.703   4.923
81017SOL     OW44947  11.544  10.134   2.878
81017SOL    HW144948  11.520  10.079   2.952
81017SOL    HW244949  11.488  10.211   2.886
81018SOL     OW44950  10.656  10.335   8.953
81018SOL    HW144951  10.724  10.336   9.021
81018SOL    HW244952  10.649  10.243   8.928
81019SOL     OW44953   4.328  13.685   2.455
81019SOL    HW144954   4.409  13.696   2.405
81019SOL    HW244955   4.282  13.768   2.444
81020SOL     OW44956   8.461  13.579   3.095
81020SOL    HW144957   8.400  13.588   3.021
81020SOL    HW244958   8.519  13.508   3.069
81021SOL     OW44959  14.558   8.199   1.854
81021SOL    HW144960  14.487   8.258   1.826
81021SOL    HW244961  14.637   8.252   1.846
81022SOL     OW44962  11.643   5.766   5.589
81022SOL    HW144963  11.550   5.744   5.585
81022SOL    HW244964  11.645   5.860   5.605
81023SOL     OW44965  10.455  12.646   9.592
81023SOL    HW144966  10.492  12.726   9.630
81023SOL    HW244967  10.478  12.577   9.654
81024SOL     OW44968   6.289   5.206  10.141
81024SOL    HW144969   6.373   5.168  10.168
81024SOL    HW244970   6.291   5.203  10.046
81025SOL     OW44971  12.831   8.168   9.740
81025SOL    HW144972  12.837   8.075   9.765
81025SOL    HW244973  12.742   8.194   9.766
81026SOL     OW44974  13.149   4.536   3.295
81026SOL    HW144975  13.222   4.475   3.292
81026SOL    HW244976  13.186   4.620   3.268
81027SOL     OW44977  12.321  13.628  13.555
81027SOL    HW144978  12.317  13.708  13.502
81027SOL    HW244979  12.330  13.557  13.492
81028SOL     OW44980   5.156   9.536  10.565
81028SOL    HW144981   5.188   9.541  10.475
81028SOL    HW244982   5.220   9.480  10.610
81029SOL     OW44983   5.687  12.811   0.282
81029SOL    HW144984   5.728  12.730   0.312
81029SOL    HW244985   5.761  12.871   0.267
81030SOL     OW44986   4.034   1.801  13.275
81030SOL    HW144987   3.974   1.732  13.305
81030SOL    HW244988   4.120   1.773  13.306
81031SOL     OW44989   3.574  13.895  10.955
81031SOL    HW144990   3.570  13.799  10.958
81031SOL    HW244991   3.667  13.915  10.957
81032SOL     OW44992   3.778  10.269  13.860
81032SOL    HW144993   3.711  10.336  13.875
81032SOL    HW244994   3.828  10.268  13.942
81033SOL     OW44995  13.062   0.674  10.343
81033SOL    HW144996  13.018   0.590  10.359
81033SOL    HW244997  13.057   0.720  10.427
81034SOL     OW44998   8.134   5.510  13.347
81034SOL    HW144999   8.187   5.480  13.421
81034SOL    HW245000   8.054   5.457  13.351
81035SOL     OW45001   8.452   8.875  10.319
81035SOL    HW145002   8.469   8.932  10.245
81035SOL    HW245003   8.489   8.790  10.293
81036SOL     OW45004   8.752   1.175   0.634
81036SOL    HW145005   8.823   1.193   0.695
81036SOL    HW245006   8.757   1.245   0.569
81037SOL     OW45007  10.916   4.441  13.814
81037SOL    HW145008  10.829   4.453  13.775
81037SOL    HW245009  10.954   4.368  13.767
81038SOL     OW45010  14.256   9.554   8.441
81038SOL    HW145011  14.319   9.527   8.374
81038SOL    HW245012  14.297   9.526   8.523
81039SOL     OW45013  14.602   5.890  11.646
81039SOL    HW145014  14.661   5.954  11.605
81039SOL    HW245015  14.578   5.831  11.574
81040SOL     OW45016   1.237   5.736  10.740
81040SOL    HW145017   1.306   5.767  10.798
81040SOL    HW245018   1.240   5.797  10.666
81041SOL     OW45019   6.921   5.213   9.541
81041SOL    HW145020   6.996   5.269   9.523
81041SOL    HW245021   6.958   5.137   9.586
81042SOL     OW45022   9.608  13.290   3.673
81042SOL    HW145023   9.547  13.341   3.619
81042SOL    HW245024   9.627  13.347   3.748
81043SOL     OW45025   8.014   2.398   6.482
81043SOL    HW145026   8.012   2.428   6.573
81043SOL    HW245027   8.087   2.336   6.479
81044SOL     OW45028   0.743   9.121   8.703
81044SOL    HW145029   0.787   9.084   8.627
81044SOL    HW245030   0.732   9.048   8.764
81045SOL     OW45031  12.396  12.021   9.204
81045SOL    HW145032  12.347  11.942   9.227
81045SOL    HW245033  12.466  12.026   9.269
81046SOL     OW45034   4.026   3.699  10.769
81046SOL    HW145035   3.946   3.749  10.753
81046SOL    HW245036   4.082   3.719  10.695
81047SOL     OW45037   1.646   9.131   0.711
81047SOL    HW145038   1.727   9.178   0.691
81047SOL    HW245039   1.600   9.126   0.627
81048SOL     OW45040   0.033   0.478   7.842
81048SOL    HW145041   0.020   0.572   7.833
81048SOL    HW245042   0.115   0.468   7.889
81049SOL     OW45043  13.272   4.798  13.121
81049SOL    HW145044  13.299   4.858  13.052
81049SOL    HW245045  13.337   4.812  13.191
81050SOL     OW45046   8.738   9.534   1.680
81050SOL    HW145047   8.755   9.447   1.644
81050SOL    HW245048   8.825   9.573   1.688
81051SOL     OW45049   2.113   7.524  14.394
81051SOL    HW145050   2.065   7.480  14.324
81051SOL    HW245051   2.055   7.594  14.423
81052SOL     OW45052   1.457   4.827   8.797
81052SOL    HW145053   1.373   4.861   8.825
81052SOL    HW245054   1.473   4.752   8.855
81053SOL     OW45055  14.598   4.355   0.206
81053SOL    HW145056  14.603   4.274   0.155
81053SOL    HW245057  14.624   4.329   0.294
81054SOL     OW45058   1.721   1.038  12.984
81054SOL    HW145059   1.692   1.003  13.069
81054SOL    HW245060   1.776   1.113  13.007
81055SOL     OW45061  10.788   8.353   1.773
81055SOL    HW145062  10.713   8.311   1.815
81055SOL    HW245063  10.751   8.420   1.716
81056SOL     OW45064   5.384   4.835   4.767
81056SOL    HW145065   5.375   4.804   4.857
81056SOL    HW245066   5.475   4.815   4.744
81057SOL     OW45067   4.019   7.333  14.716
81057SOL    HW145068   4.073   7.393  14.768
81057SOL    HW245069   4.030   7.248  14.760
81058SOL     OW45070   8.604   3.981   2.332
81058SOL    HW145071   8.579   3.960   2.422
81058SOL    HW245072   8.693   3.948   2.324
81059SOL     OW45073   3.375   9.192   4.438
81059SOL    HW145074   3.335   9.200   4.525
81059SOL    HW245075   3.446   9.128   4.451
81060SOL     OW45076   1.528  11.464  10.914
81060SOL    HW145077   1.621  11.458  10.891
81060SOL    HW245078   1.494  11.535  10.860
81061SOL     OW45079   3.350  10.134   3.420
81061SOL    HW145080   3.292  10.198   3.460
81061SOL    HW245081   3.394  10.091   3.493
81062SOL     OW45082  13.118   4.020   2.438
81062SOL    HW145083  13.103   4.114   2.431
81062SOL    HW245084  13.036   3.980   2.407
81063SOL     OW45085   8.550   2.611  11.797
81063SOL    HW145086   8.616   2.566  11.744
81063SOL    HW245087   8.597   2.683  11.838
81064SOL     OW45088   7.829   1.251   1.941
81064SOL    HW145089   7.900   1.222   1.883
81064SOL    HW245090   7.860   1.228   2.029
81065SOL     OW45091   6.912  14.614  11.017
81065SOL    HW145092   6.884  14.682  11.078
81065SOL    HW245093   6.853  14.624  10.942
81066SOL     OW45094  13.377  13.340  10.646
81066SOL    HW145095  13.413  13.421  10.610
81066SOL    HW245096  13.304  13.369  10.701
81067SOL     OW45097   9.200   9.552   0.924
81067SOL    HW145098   9.107   9.570   0.936
81067SOL    HW245099   9.243   9.610   0.987
81068SOL     OW45100  12.007  11.858  10.108
81068SOL    HW145101  11.986  11.926  10.171
81068SOL    HW245102  11.927  11.805  10.102
81069SOL     OW45103   8.530  10.337   7.446
81069SOL    HW145104   8.596  10.281   7.405
81069SOL    HW245105   8.476  10.278   7.497
81070SOL     OW45106   8.698  12.812   4.041
81070SOL    HW145107   8.647  12.762   4.104
81070SOL    HW245108   8.789  12.789   4.059
81071SOL     OW45109   5.253   0.640  11.120
81071SOL    HW145110   5.175   0.593  11.150
81071SOL    HW245111   5.324   0.604  11.172
81072SOL     OW45112  13.522  13.433   6.970
81072SOL    HW145113  13.466  13.478   6.907
81072SOL    HW245114  13.601  13.410   6.920
81073SOL     OW45115  13.667   2.402  12.816
81073SOL    HW145116  13.722   2.352  12.876
81073SOL    HW245117  13.578   2.383  12.844
81074SOL     OW45118   2.384   4.104   2.439
81074SOL    HW145119   2.340   4.079   2.358
81074SOL    HW245120   2.424   4.023   2.471
81075SOL     OW45121   4.452   5.010   5.853
81075SOL    HW145122   4.407   4.933   5.888
81075SOL    HW245123   4.491   5.052   5.929
81076SOL     OW45124  14.047   6.354  10.005
81076SOL    HW145125  14.043   6.261  10.028
81076SOL    HW245126  13.958   6.386  10.019
81077SOL     OW45127   1.828   3.159  12.318
81077SOL    HW145128   1.841   3.065  12.321
81077SOL    HW245129   1.825   3.186  12.410
81078SOL     OW45130  14.695   3.311   6.279
81078SOL    HW145131  14.765   3.261   6.323
81078SOL    HW245132  14.711   3.298   6.186
81079SOL     OW45133  10.751   6.223  13.275
81079SOL    HW145134  10.723   6.263  13.193
81079SOL    HW245135  10.673   6.180  13.309
81080SOL     OW45136   1.806   6.982   4.198
81080SOL    HW145137   1.715   6.957   4.181
81080SOL    HW245138   1.830   6.934   4.277
81081SOL     OW45139  14.361   4.588   5.443
81081SOL    HW145140  14.275   4.620   5.470
81081SOL    HW245141  14.342   4.525   5.373
81082SOL     OW45142   3.020   9.809   6.782
81082SOL    HW145143   2.997   9.890   6.736
81082SOL    HW245144   2.935   9.770   6.805
81083SOL     OW45145   6.846   4.158   7.047
81083SOL    HW145146   6.871   4.088   6.987
81083SOL    HW245147   6.898   4.234   7.019
81084SOL     OW45148   5.279  14.605   3.812
81084SOL    HW145149   5.201  14.660   3.801
81084SOL    HW245150   5.308  14.586   3.723
81085SOL     OW45151   6.236   1.082  10.031
81085SOL    HW145152   6.223   1.174  10.008
81085SOL    HW245153   6.193   1.034   9.960
81086SOL     OW45154   7.313  13.685   3.915
81086SOL    HW145155   7.397  13.640   3.907
81086SOL    HW245156   7.328  13.771   3.876
81087SOL     OW45157  12.168  12.280  12.546
81087SOL    HW145158  12.098  12.340  12.519
81087SOL    HW245159  12.124  12.213  12.598
81088SOL     OW45160   4.674   1.826  13.098
81088SOL    HW145161   4.626   1.805  13.178
81088SOL    HW245162   4.729   1.748  13.083
81089SOL     OW45163   8.679  12.548   1.373
81089SOL    HW145164   8.772  12.567   1.387
81089SOL    HW245165   8.676  12.510   1.285
81090SOL     OW45166   4.332   0.128  11.564
81090SOL    HW145167   4.331   0.104  11.471
81090SOL    HW245168   4.280   0.208  11.568
81091SOL     OW45169   1.826   1.293   4.794
81091SOL    HW145170   1.856   1.369   4.844
81091SOL    HW245171   1.897   1.275   4.733
81092SOL     OW45172  11.325   7.871   0.943
81092SOL    HW145173  11.365   7.849   1.027
81092SOL    HW245174  11.364   7.955   0.920
81093SOL     OW45175   6.062   3.483   2.137
81093SOL    HW145176   6.119   3.448   2.069
81093SOL    HW245177   6.103   3.456   2.219
81094SOL     OW45178   3.667   0.506  14.467
81094SOL    HW145179   3.686   0.599  14.469
81094SOL    HW245180   3.627   0.488  14.552
81095SOL     OW45181   0.579   1.076  11.992
81095SOL    HW145182   0.545   1.017  11.924
81095SOL    HW245183   0.652   1.027  12.031
81096SOL     OW45184   1.208   6.857   1.304
81096SOL    HW145185   1.131   6.806   1.276
81096SOL    HW245186   1.280   6.821   1.253
81097SOL     OW45187   1.634  13.070   4.985
81097SOL    HW145188   1.627  13.118   5.068
81097SOL    HW245189   1.546  13.075   4.948
81098SOL     OW45190   1.262   4.297  13.366
81098SOL    HW145191   1.190   4.355  13.390
81098SOL    HW245192   1.228   4.209  13.381
81099SOL     OW45193   5.479   8.607   6.207
81099SOL    HW145194   5.550   8.564   6.159
81099SOL    HW245195   5.524   8.667   6.267
81100SOL     OW45196  12.357   4.346   5.167
81100SOL    HW145197  12.443   4.318   5.198
81100SOL    HW245198  12.343   4.297   5.086
81101SOL     OW45199   4.466   9.162  14.532
81101SOL    HW145200   4.410   9.207  14.469
81101SOL    HW245201   4.542   9.133  14.480
81102SOL     OW45202   8.742   3.111  13.537
81102SOL    HW145203   8.652   3.078  13.535
81102SOL    HW245204   8.787   3.052  13.598
81103SOL     OW45205   2.138   0.748   1.679
81103SOL    HW145206   2.081   0.671   1.681
81103SOL    HW245207   2.210   0.726   1.737
81104SOL     OW45208   2.276  13.542   7.709
81104SOL    HW145209   2.265  13.589   7.792
81104SOL    HW245210   2.364  13.504   7.714
81105SOL     OW45211   1.199  12.745   4.109
81105SOL    HW145212   1.220  12.687   4.035
81105SOL    HW245213   1.123  12.795   4.080
81106SOL     OW45214   8.108   9.168   7.136
81106SOL    HW145215   8.143   9.122   7.213
81106SOL    HW245216   8.039   9.224   7.171
81107SOL     OW45217   2.707   7.382  12.682
81107SOL    HW145218   2.700   7.372  12.777
81107SOL    HW245219   2.794   7.420  12.668
81108SOL     OW45220  14.683   0.463   1.901
81108SOL    HW145221  14.768   0.483   1.940
81108SOL    HW245222  14.680   0.367   1.899
81109SOL     OW45223   0.007  11.924   2.771
81109SOL    HW145224  14.829  11.938   2.846
81109SOL    HW245225  14.848  11.851   2.724
81110SOL     OW45226   2.901   3.396   9.622
81110SOL    HW145227   2.814   3.434   9.610
81110SOL    HW245228   2.939   3.448   9.694
81111SOL     OW45229   7.275   1.893  14.871
81111SOL    HW145230   7.213   1.821  14.864
81111SOL    HW245231   7.253   1.936   0.074
81112SOL     OW45232   4.373  14.156  13.894
81112SOL    HW145233   4.328  14.102  13.959
81112SOL    HW245234   4.308  14.171  13.826
81113SOL     OW45235   7.906   8.323  12.061
81113SOL    HW145236   7.878   8.238  12.094
81113SOL    HW245237   8.001   8.319  12.061
81114SOL     OW45238   3.294  10.707   7.048
81114SOL    HW145239   3.236  10.658   7.107
81114SOL    HW245240   3.365  10.646   7.029
81115SOL     OW45241   5.659   0.598   2.558
81115SOL    HW145242   5.571   0.606   2.597
81115SOL    HW245243   5.684   0.689   2.540
81116SOL     OW45244   7.324   8.226   0.433
81116SOL    HW145245   7.238   8.269   0.434
81116SOL    HW245246   7.349   8.225   0.340
81117SOL     OW45247   2.106   9.198   5.203
81117SOL    HW145248   2.162   9.129   5.238
81117SOL    HW245249   2.019   9.158   5.197
81118SOL     OW45250  10.668   3.924   1.487
81118SOL    HW145251  10.632   3.863   1.422
81118SOL    HW245252  10.746   3.880   1.521
81119SOL     OW45253   4.512   2.378  12.438
81119SOL    HW145254   4.534   2.397  12.529
81119SOL    HW245255   4.524   2.284  12.429
81120SOL     OW45256   5.035   8.088   0.582
81120SOL    HW145257   5.009   8.140   0.658
81120SOL    HW245258   4.960   8.032   0.563
81121SOL     OW45259  13.388   1.167   5.688
81121SOL    HW145260  13.462   1.119   5.723
81121SOL    HW245261  13.311   1.130   5.732
81122SOL     OW45262   7.714   3.784   3.816
81122SOL    HW145263   7.807   3.762   3.824
81122SOL    HW245264   7.686   3.738   3.737
81123SOL     OW45265   4.553  10.922   0.421
81123SOL    HW145266   4.476  10.970   0.390
81123SOL    HW245267   4.619  10.937   0.354
81124SOL     OW45268   4.926  14.803   2.969
81124SOL    HW145269   5.000  14.753   2.934
81124SOL    HW245270   4.917  14.878   2.909
81125SOL     OW45271   0.879  13.054   2.644
81125SOL    HW145272   0.823  13.043   2.566
81125SOL    HW245273   0.914  12.967   2.660
81126SOL     OW45274  13.028   9.390   1.869
81126SOL    HW145275  13.090   9.414   1.938
81126SOL    HW245276  13.083   9.349   1.801
81127SOL     OW45277  13.189   8.360  14.366
81127SOL    HW145278  13.105   8.334  14.403
81127SOL    HW245279  13.238   8.394  14.441
81128SOL     OW45280  13.792   9.451  13.386
81128SOL    HW145281  13.806   9.492  13.301
81128SOL    HW245282  13.697   9.436  13.390
81129SOL     OW45283   7.601   1.007   4.430
81129SOL    HW145284   7.680   1.056   4.406
81129SOL    HW245285   7.604   0.929   4.376
81130SOL     OW45286   7.546   5.864   0.850
81130SOL    HW145287   7.574   5.895   0.936
81130SOL    HW245288   7.489   5.790   0.869
81131SOL     OW45289   6.048  13.576   1.060
81131SOL    HW145290   6.006  13.490   1.056
81131SOL    HW245291   6.024  13.610   1.146
81132SOL     OW45292  10.111   0.862  10.259
81132SOL    HW145293  10.107   0.903  10.173
81132SOL    HW245294  10.196   0.818  10.261
81133SOL     OW45295   8.265  11.656   9.757
81133SOL    HW145296   8.295  11.583   9.811
81133SOL    HW245297   8.298  11.734   9.801
81134SOL     OW45298  10.379   9.269  14.734
81134SOL    HW145299  10.458   9.216  14.724
81134SOL    HW245300  10.316   9.211  14.776
81135SOL     OW45301  13.842   8.212   4.044
81135SOL    HW145302  13.791   8.185   3.967
81135SOL    HW245303  13.779   8.210   4.116
81136SOL     OW45304  12.541   1.234   6.939
81136SOL    HW145305  12.533   1.322   6.903
81136SOL    HW245306  12.451   1.203   6.946
81137SOL     OW45307  10.676   0.750   2.060
81137SOL    HW145308  10.623   0.829   2.070
81137SOL    HW245309  10.660   0.700   2.140
81138SOL     OW45310   2.900   1.707   9.618
81138SOL    HW145311   2.977   1.762   9.604
81138SOL    HW245312   2.843   1.726   9.543
81139SOL     OW45313  12.906  12.055   5.562
81139SOL    HW145314  12.903  12.119   5.491
81139SOL    HW245315  12.999  12.048   5.584
81140SOL     OW45316  11.706   4.402   0.255
81140SOL    HW145317  11.796   4.433   0.270
81140SOL    HW245318  11.696   4.328   0.315
81141SOL     OW45319   6.091   3.714   2.536
81141SOL    HW145320   6.013   3.767   2.520
81141SOL    HW245321   6.155   3.745   2.472
81142SOL     OW45322   1.687  10.368   9.144
81142SOL    HW145323   1.780  10.360   9.167
81142SOL    HW245324   1.685  10.434   9.075
81143SOL     OW45325   1.614   8.993  11.866
81143SOL    HW145326   1.657   9.069  11.825
81143SOL    HW245327   1.649   8.917  11.820
81144SOL     OW45328  12.571   7.125   6.792
81144SOL    HW145329  12.510   7.080   6.733
81144SOL    HW245330  12.602   7.200   6.742
81145SOL     OW45331   5.396   8.159  14.282
81145SOL    HW145332   5.373   8.069  14.260
81145SOL    HW245333   5.489   8.165  14.259
81146SOL     OW45334  12.543   6.098  10.264
81146SOL    HW145335  12.535   6.107  10.169
81146SOL    HW245336  12.525   6.186  10.298
81147SOL     OW45337  10.263   6.060  12.862
81147SOL    HW145338  10.335   6.065  12.924
81147SOL    HW245339  10.298   6.097  12.781
81148SOL     OW45340   4.887   4.355  11.480
81148SOL    HW145341   4.917   4.266  11.498
81148SOL    HW245342   4.964   4.410  11.495
81149SOL     OW45343   5.873  10.797  14.360
81149SOL    HW145344   5.903  10.724  14.306
81149SOL    HW245345   5.930  10.870  14.335
81150SOL     OW45346  14.583   8.997   1.627
81150SOL    HW145347  14.551   9.063   1.689
81150SOL    HW245348  14.506   8.974   1.575
81151SOL     OW45349   4.270   3.833   7.221
81151SOL    HW145350   4.306   3.914   7.187
81151SOL    HW245351   4.278   3.841   7.316
81152SOL     OW45352   3.369   3.111   7.117
81152SOL    HW145353   3.412   3.114   7.032
81152SOL    HW245354   3.432   3.151   7.177
81153SOL     OW45355   0.168   0.307   1.748
81153SOL    HW145356   0.149   0.289   1.840
81153SOL    HW245357   0.090   0.277   1.701
81154SOL     OW45358   8.811   1.366  10.723
81154SOL    HW145359   8.771   1.439  10.675
81154SOL    HW245360   8.737   1.314  10.752
81155SOL     OW45361  11.948   4.552  11.889
81155SOL    HW145362  11.902   4.580  11.809
81155SOL    HW245363  11.891   4.485  11.927
81156SOL     OW45364   6.441   1.542  12.004
81156SOL    HW145365   6.365   1.483  12.004
81156SOL    HW245366   6.446   1.575  12.094
81157SOL     OW45367  12.763  13.491  14.457
81157SOL    HW145368  12.687  13.463  14.509
81157SOL    HW245369  12.838  13.477  14.515
81158SOL     OW45370   2.109  13.791  11.583
81158SOL    HW145371   2.153  13.807  11.500
81158SOL    HW245372   2.071  13.876  11.607
81159SOL     OW45373  12.554  11.096  14.179
81159SOL    HW145374  12.482  11.125  14.236
81159SOL    HW245375  12.631  11.143  14.211
81160SOL     OW45376  14.761  14.619   5.616
81160SOL    HW145377  14.735  14.711   5.620
81160SOL    HW245378  14.850  14.621   5.580
81161SOL     OW45379  10.658   9.247   1.737
81161SOL    HW145380  10.575   9.292   1.724
81161SOL    HW245381  10.637   9.174   1.795
81162SOL     OW45382   5.016   2.912  11.277
81162SOL    HW145383   5.079   2.968  11.322
81162SOL    HW245384   5.052   2.900  11.189
81163SOL     OW45385   9.819   2.701   7.633
81163SOL    HW145386   9.885   2.692   7.702
81163SOL    HW245387   9.868   2.690   7.552
81164SOL     OW45388  12.698  10.593   0.462
81164SOL    HW145389  12.668  10.606   0.552
81164SOL    HW245390  12.780  10.642   0.457
81165SOL     OW45391  13.922   4.726   5.111
81165SOL    HW145392  13.931   4.630   5.114
81165SOL    HW245393  14.002   4.756   5.068
81166SOL     OW45394   9.115   4.134  10.900
81166SOL    HW145395   9.125   4.088  10.817
81166SOL    HW245396   9.195   4.184  10.910
81167SOL     OW45397   1.571   1.244   9.133
81167SOL    HW145398   1.644   1.207   9.181
81167SOL    HW245399   1.498   1.184   9.149
81168SOL     OW45400  11.084  13.133  13.430
81168SOL    HW145401  11.155  13.191  13.404
81168SOL    HW245402  11.008  13.165  13.382
81169SOL     OW45403   9.684   8.111  11.221
81169SOL    HW145404   9.706   8.018  11.212
81169SOL    HW245405   9.589   8.113  11.218
81170SOL     OW45406  12.124  12.217  10.067
81170SOL    HW145407  12.088  12.198   9.981
81170SOL    HW245408  12.087  12.150  10.124
81171SOL     OW45409   0.941   6.973  10.796
81171SOL    HW145410   0.850   6.956  10.771
81171SOL    HW245411   0.991   6.902  10.757
81172SOL     OW45412   0.838   2.680  12.367
81172SOL    HW145413   0.831   2.586  12.385
81172SOL    HW245414   0.750   2.713  12.384
81173SOL     OW45415   3.242  10.403   8.663
81173SOL    HW145416   3.242  10.436   8.753
81173SOL    HW245417   3.274  10.313   8.671
81174SOL     OW45418   4.147   0.425   7.448
81174SOL    HW145419   4.126   0.333   7.463
81174SOL    HW245420   4.061   0.467   7.437
81175SOL     OW45421  10.529  11.566   9.867
81175SOL    HW145422  10.491  11.486   9.831
81175SOL    HW245423  10.469  11.593   9.937
81176SOL     OW45424  14.727   2.407   7.411
81176SOL    HW145425  14.751   2.468   7.480
81176SOL    HW245426  14.732   2.320   7.452
81177SOL     OW45427  13.127   4.565   2.633
81177SOL    HW145428  13.098   4.487   2.681
81177SOL    HW245429  13.193   4.531   2.572
81178SOL     OW45430   3.918   6.952  12.925
81178SOL    HW145431   3.847   7.011  12.899
81178SOL    HW245432   3.879   6.896  12.993
81179SOL     OW45433   4.569   7.728   6.156
81179SOL    HW145434   4.508   7.777   6.210
81179SOL    HW245435   4.580   7.781   6.077
81180SOL     OW45436  14.215   6.741   4.467
81180SOL    HW145437  14.214   6.689   4.386
81180SOL    HW245438  14.302   6.725   4.504
81181SOL     OW45439  11.017   5.118   4.750
81181SOL    HW145440  11.075   5.186   4.785
81181SOL    HW245441  11.002   5.059   4.823
81182SOL     OW45442   1.916   7.871   7.517
81182SOL    HW145443   1.927   7.833   7.430
81182SOL    HW245444   1.907   7.965   7.502
81183SOL     OW45445  13.717   6.990   1.453
81183SOL    HW145446  13.770   7.012   1.377
81183SOL    HW245447  13.774   6.936   1.507
81184SOL     OW45448   2.202   1.308  12.057
81184SOL    HW145449   2.292   1.278  12.074
81184SOL    HW245450   2.208   1.358  11.975
81185SOL     OW45451  13.083  11.612  11.592
81185SOL    HW145452  13.021  11.554  11.634
81185SOL    HW245453  13.037  11.696  11.585
81186SOL     OW45454   6.460   1.715   5.709
81186SOL    HW145455   6.447   1.628   5.745
81186SOL    HW245456   6.493   1.699   5.620
81187SOL     OW45457  13.350   8.985   6.494
81187SOL    HW145458  13.392   9.070   6.482
81187SOL    HW245459  13.373   8.936   6.415
81188SOL     OW45460   7.712  11.753   4.112
81188SOL    HW145461   7.634  11.700   4.093
81188SOL    HW245462   7.711  11.762   4.207
81189SOL     OW45463   5.238  14.384   3.355
81189SOL    HW145464   5.314  14.442   3.346
81189SOL    HW245465   5.165  14.444   3.370
81190SOL     OW45466  13.692  10.305  13.642
81190SOL    HW145467  13.750  10.244  13.687
81190SOL    HW245468  13.611  10.304  13.693
81191SOL     OW45469  12.553   7.244   9.635
81191SOL    HW145470  12.466   7.228   9.599
81191SOL    HW245471  12.555   7.338   9.655
81192SOL     OW45472   3.102   1.551   9.079
81192SOL    HW145473   3.037   1.553   9.149
81192SOL    HW245474   3.173   1.498   9.113
81193SOL     OW45475  13.172  10.545  14.580
81193SOL    HW145476  13.124  10.462  14.571
81193SOL    HW245477  13.223  10.551  14.500
81194SOL     OW45478   1.783  12.796   2.547
81194SOL    HW145479   1.761  12.705   2.526
81194SOL    HW245480   1.738  12.812   2.630
81195SOL     OW45481  13.673   4.220   8.566
81195SOL    HW145482  13.747   4.278   8.553
81195SOL    HW245483  13.710   4.142   8.608
81196SOL     OW45484  13.058  10.096   4.498
81196SOL    HW145485  13.032  10.100   4.590
81196SOL    HW245486  13.074  10.004   4.481
81197SOL     OW45487   4.823   3.529   5.235
81197SOL    HW145488   4.820   3.455   5.174
81197SOL    HW245489   4.737   3.530   5.276
81198SOL     OW45490  10.265   5.710   8.415
81198SOL    HW145491  10.268   5.773   8.487
81198SOL    HW245492  10.242   5.763   8.338
81199SOL     OW45493   2.360   9.664   1.202
81199SOL    HW145494   2.267   9.685   1.191
81199SOL    HW245495   2.367   9.632   1.292
81200SOL     OW45496   5.507  13.072   3.496
81200SOL    HW145497   5.569  13.086   3.424
81200SOL    HW245498   5.562  13.052   3.572
81201SOL     OW45499   0.293  10.496  13.707
81201SOL    HW145500   0.350  10.432  13.663
81201SOL    HW245501   0.321  10.581  13.671
81202SOL     OW45502  11.499   1.505  13.363
81202SOL    HW145503  11.568   1.440  13.364
81202SOL    HW245504  11.477   1.519  13.456
81203SOL     OW45505  12.570   4.493   3.307
81203SOL    HW145506  12.555   4.574   3.355
81203SOL    HW245507  12.519   4.502   3.227
81204SOL     OW45508   0.808   0.848  14.176
81204SOL    HW145509   0.848   0.777  14.126
81204SOL    HW245510   0.805   0.816  14.266
81205SOL     OW45511  10.370   8.141   1.789
81205SOL    HW145512  10.286   8.120   1.829
81205SOL    HW245513  10.347   8.184   1.706
81206SOL     OW45514  13.340  12.165   5.003
81206SOL    HW145515  13.276  12.102   5.036
81206SOL    HW245516  13.376  12.207   5.082
81207SOL     OW45517   3.495   6.855   5.465
81207SOL    HW145518   3.545   6.799   5.405
81207SOL    HW245519   3.508   6.815   5.551
81208SOL     OW45520   8.914  13.224   5.002
81208SOL    HW145521   8.847  13.156   5.004
81208SOL    HW245522   8.975  13.201   5.072
81209SOL     OW45523   5.017   5.597   4.557
81209SOL    HW145524   5.078   5.645   4.500
81209SOL    HW245525   4.950   5.662   4.580
81210SOL     OW45526   3.891   9.328   2.619
81210SOL    HW145527   3.921   9.271   2.690
81210SOL    HW245528   3.798   9.308   2.610
81211SOL     OW45529   0.747   5.328  11.839
81211SOL    HW145530   0.684   5.315  11.768
81211SOL    HW245531   0.788   5.243  11.851
81212SOL     OW45532  13.669   3.661   5.943
81212SOL    HW145533  13.714   3.710   6.011
81212SOL    HW245534  13.601   3.721   5.912
81213SOL     OW45535   4.012   1.127   8.814
81213SOL    HW145536   3.930   1.175   8.806
81213SOL    HW245537   3.986   1.037   8.831
81214SOL     OW45538   8.210  14.613   6.566
81214SOL    HW145539   8.243  14.700   6.545
81214SOL    HW245540   8.147  14.627   6.636
81215SOL     OW45541   5.047   8.451   7.284
81215SOL    HW145542   5.084   8.484   7.366
81215SOL    HW245543   5.034   8.358   7.299
81216SOL     OW45544   6.033   4.619   5.170
81216SOL    HW145545   6.038   4.602   5.264
81216SOL    HW245546   6.023   4.532   5.131
81217SOL     OW45547   1.305   7.360   8.669
81217SOL    HW145548   1.335   7.386   8.756
81217SOL    HW245549   1.236   7.422   8.647
81218SOL     OW45550  13.280  13.895   6.281
81218SOL    HW145551  13.233  13.874   6.200
81218SOL    HW245552  13.301  13.988   6.273
81219SOL     OW45553   2.180   2.500   4.423
81219SOL    HW145554   2.185   2.528   4.332
81219SOL    HW245555   2.119   2.426   4.423
81220SOL     OW45556   1.571   0.602  13.260
81220SOL    HW145557   1.637   0.545  13.301
81220SOL    HW245558   1.508   0.619  13.330
81221SOL     OW45559  10.157   8.845   9.848
81221SOL    HW145560  10.114   8.761   9.835
81221SOL    HW245561  10.199   8.864   9.764
81222SOL     OW45562   3.226   9.254   3.522
81222SOL    HW145563   3.231   9.243   3.617
81222SOL    HW245564   3.232   9.165   3.487
81223SOL     OW45565   2.640   7.251  12.455
81223SOL    HW145566   2.564   7.199  12.480
81223SOL    HW245567   2.661   7.302  12.533
81224SOL     OW45568   7.859   2.824   6.040
81224SOL    HW145569   7.847   2.918   6.025
81224SOL    HW245570   7.946   2.805   6.005
81225SOL     OW45571  10.719   0.944  12.367
81225SOL    HW145572  10.759   1.030  12.380
81225SOL    HW245573  10.786   0.893  12.322
81226SOL     OW45574   7.089  10.816   2.127
81226SOL    HW145575   7.102  10.865   2.045
81226SOL    HW245576   7.010  10.765   2.112
81227SOL     OW45577   9.567   5.366  14.501
81227SOL    HW145578   9.494   5.303  14.496
81227SOL    HW245579   9.527   5.450  14.478
81228SOL     OW45580  12.071  10.065   6.868
81228SOL    HW145581  12.006  10.135   6.856
81228SOL    HW245582  12.036   9.992   6.818
81229SOL     OW45583   7.284   7.752  14.382
81229SOL    HW145584   7.322   7.678  14.429
81229SOL    HW245585   7.191   7.732  14.375
81230SOL     OW45586   1.477   7.249   7.762
81230SOL    HW145587   1.448   7.228   7.851
81230SOL    HW245588   1.473   7.165   7.716
81231SOL     OW45589   7.560  10.791   1.231
81231SOL    HW145590   7.546  10.813   1.323
81231SOL    HW245591   7.494  10.842   1.184
81232SOL     OW45592   8.605   7.648  13.512
81232SOL    HW145593   8.678   7.701  13.479
81232SOL    HW245594   8.644   7.562  13.529
81233SOL     OW45595   4.787   0.977   1.967
81233SOL    HW145596   4.695   0.952   1.967
81233SOL    HW245597   4.811   0.983   1.875
81234SOL     OW45598  14.652   6.006   2.450
81234SOL    HW145599  14.590   5.971   2.514
81234SOL    HW245600  14.662   5.935   2.386
81235SOL     OW45601  11.151   1.357  12.442
81235SOL    HW145602  11.124   1.448  12.456
81235SOL    HW245603  11.124   1.311  12.521
81236SOL     OW45604   9.594  13.235   7.146
81236SOL    HW145605   9.650  13.257   7.221
81236SOL    HW245606   9.655  13.214   7.076
81237SOL     OW45607   4.929   8.378   5.856
81237SOL    HW145608   4.893   8.329   5.782
81237SOL    HW245609   4.893   8.335   5.934
81238SOL     OW45610   2.026   0.812   9.200
81238SOL    HW145611   2.064   0.899   9.207
81238SOL    HW245612   1.989   0.809   9.111
81239SOL     OW45613   6.847   8.380   4.647
81239SOL    HW145614   6.834   8.315   4.578
81239SOL    HW245615   6.783   8.357   4.714
81240SOL     OW45616   5.730  11.337  12.724
81240SOL    HW145617   5.718  11.427  12.753
81240SOL    HW245618   5.795  11.301  12.784
81241SOL     OW45619   4.660   0.150   3.098
81241SOL    HW145620   4.695   0.160   3.186
81241SOL    HW245621   4.581   0.205   3.097
81242SOL     OW45622   0.136  13.663   4.285
81242SOL    HW145623   0.044  13.636   4.284
81242SOL    HW245624   0.183  13.586   4.318
81243SOL     OW45625   6.095   2.399  12.698
81243SOL    HW145626   6.021   2.338  12.694
81243SOL    HW245627   6.160   2.354  12.752
81244SOL     OW45628  12.537  10.679   2.130
81244SOL    HW145629  12.582  10.611   2.180
81244SOL    HW245630  12.589  10.758   2.145
81245SOL     OW45631   6.829  11.690  10.819
81245SOL    HW145632   6.799  11.774  10.854
81245SOL    HW245633   6.866  11.711  10.733
81246SOL     OW45634   5.693   5.769  13.252
81246SOL    HW145635   5.659   5.801  13.336
81246SOL    HW245636   5.753   5.699  13.277
81247SOL     OW45637  10.212   6.396   1.191
81247SOL    HW145638  10.215   6.405   1.286
81247SOL    HW245639  10.177   6.308   1.177
81248SOL     OW45640   2.564   5.640   7.247
81248SOL    HW145641   2.516   5.576   7.195
81248SOL    HW245642   2.582   5.711   7.185
81249SOL     OW45643   1.182   0.146   5.953
81249SOL    HW145644   1.197   0.119   6.043
81249SOL    HW245645   1.252   0.209   5.935
81250SOL     OW45646   5.419   7.336   3.999
81250SOL    HW145647   5.387   7.261   4.049
81250SOL    HW245648   5.373   7.411   4.037
81251SOL     OW45649   6.681  14.268  10.772
81251SOL    HW145650   6.602  14.294  10.724
81251SOL    HW245651   6.661  14.288  10.863
81252SOL     OW45652   5.523   6.708   8.418
81252SOL    HW145653   5.571   6.666   8.346
81252SOL    HW245654   5.468   6.638   8.453
81253SOL     OW45655  14.063   9.576   2.557
81253SOL    HW145656  14.031   9.560   2.646
81253SOL    HW245657  14.041   9.668   2.541
81254SOL     OW45658   5.303   5.774  13.140
81254SOL    HW145659   5.276   5.682  13.141
81254SOL    HW245660   5.352   5.786  13.221
81255SOL     OW45661   2.493  12.582   1.734
81255SOL    HW145662   2.448  12.570   1.650
81255SOL    HW245663   2.423  12.580   1.799
81256SOL     OW45664   2.359  11.101   2.710
81256SOL    HW145665   2.320  11.069   2.791
81256SOL    HW245666   2.284  11.116   2.652
81257SOL     OW45667   5.667   9.944  11.713
81257SOL    HW145668   5.659   9.991  11.796
81257SOL    HW245669   5.578   9.913  11.695
81258SOL     OW45670   7.799  14.106  11.565
81258SOL    HW145671   7.852  14.185  11.555
81258SOL    HW245672   7.833  14.065  11.645
81259SOL     OW45673  14.769  13.757  14.500
81259SOL    HW145674  14.729  13.827  14.448
81259SOL    HW245675  14.863  13.775  14.498
81260SOL     OW45676   9.843  13.353   3.505
81260SOL    HW145677   9.916  13.292   3.498
81260SOL    HW245678   9.780  13.308   3.561
81261SOL     OW45679   2.383   0.660   2.524
81261SOL    HW145680   2.467   0.624   2.494
81261SOL    HW245681   2.352   0.597   2.589
81262SOL     OW45682  11.258   9.130   5.003
81262SOL    HW145683  11.302   9.195   4.950
81262SOL    HW245684  11.293   9.046   4.973
81263SOL     OW45685   8.712   1.548  13.936
81263SOL    HW145686   8.752   1.524  13.853
81263SOL    HW245687   8.775   1.519  14.002
81264SOL     OW45688   7.934   1.804   5.666
81264SOL    HW145689   7.940   1.800   5.571
81264SOL    HW245690   8.022   1.825   5.696
81265SOL     OW45691   0.611  10.322   4.917
81265SOL    HW145692   0.682  10.267   4.884
81265SOL    HW245693   0.561  10.346   4.839
81266SOL     OW45694   6.584   8.819  11.091
81266SOL    HW145695   6.510   8.851  11.038
81266SOL    HW245696   6.588   8.878  11.165
81267SOL     OW45697   4.457  12.441   2.711
81267SOL    HW145698   4.507  12.403   2.638
81267SOL    HW245699   4.476  12.383   2.785
81268SOL     OW45700   2.112   6.517  14.183
81268SOL    HW145701   2.158   6.435  14.170
81268SOL    HW245702   2.180   6.579  14.209
81269SOL     OW45703   0.654  14.400   5.259
81269SOL    HW145704   0.696  14.484   5.243
81269SOL    HW245705   0.711  14.356   5.322
81270SOL     OW45706  12.552   1.322   5.866
81270SOL    HW145707  12.566   1.240   5.913
81270SOL    HW245708  12.638   1.365   5.868
81271SOL     OW45709   2.062   1.732   0.500
81271SOL    HW145710   1.993   1.676   0.463
81271SOL    HW245711   2.139   1.676   0.502
81272SOL     OW45712  13.986  13.350  12.488
81272SOL    HW145713  13.996  13.377  12.579
81272SOL    HW245714  14.040  13.271  12.481
81273SOL     OW45715   5.309   0.302   7.762
81273SOL    HW145716   5.397   0.340   7.758
81273SOL    HW245717   5.323   0.208   7.761
81274SOL     OW45718   3.016   4.661  13.879
81274SOL    HW145719   2.962   4.666  13.800
81274SOL    HW245720   3.089   4.720  13.861
81275SOL     OW45721   8.157   5.256   1.410
81275SOL    HW145722   8.092   5.301   1.464
81275SOL    HW245723   8.238   5.261   1.461
81276SOL     OW45724  12.026  13.291   6.700
81276SOL    HW145725  12.006  13.207   6.741
81276SOL    HW245726  12.024  13.272   6.606
81277SOL     OW45727   1.615   7.760   8.208
81277SOL    HW145728   1.596   7.853   8.216
81277SOL    HW245729   1.579   7.721   8.288
81278SOL     OW45730  13.602   4.745  13.098
81278SOL    HW145731  13.540   4.773  13.030
81278SOL    HW245732  13.678   4.803  13.086
81279SOL     OW45733   6.517  13.352   6.394
81279SOL    HW145734   6.575  13.413   6.349
81279SOL    HW245735   6.565  13.326   6.473
81280SOL     OW45736   8.151   8.717   0.825
81280SOL    HW145737   8.119   8.639   0.781
81280SOL    HW245738   8.080   8.744   0.883
81281SOL     OW45739  12.777   8.210  14.097
81281SOL    HW145740  12.838   8.276  14.130
81281SOL    HW245741  12.726   8.256  14.030
81282SOL     OW45742   1.650  13.885   3.657
81282SOL    HW145743   1.655  13.934   3.739
81282SOL    HW245744   1.702  13.806   3.673
81283SOL     OW45745  11.145   9.453   4.380
81283SOL    HW145746  11.229   9.432   4.421
81283SOL    HW245747  11.089   9.478   4.453
81284SOL     OW45748   1.138   8.818   8.345
81284SOL    HW145749   1.216   8.799   8.293
81284SOL    HW245750   1.167   8.812   8.436
81285SOL     OW45751   1.439   4.548   9.276
81285SOL    HW145752   1.529   4.574   9.293
81285SOL    HW245753   1.446   4.467   9.225
81286SOL     OW45754   2.452   7.077  13.181
81286SOL    HW145755   2.481   7.121  13.101
81286SOL    HW245756   2.511   7.002  13.190
81287SOL     OW45757  11.942  11.015  14.799
81287SOL    HW145758  12.015  10.956  14.815
81287SOL    HW245759  11.892  10.974  14.729
81288SOL     OW45760   4.661  12.614   2.823
81288SOL    HW145761   4.602  12.673   2.870
81288SOL    HW245762   4.603  12.566   2.763
81289SOL     OW45763  14.191  13.142  11.866
81289SOL    HW145764  14.206  13.204  11.937
81289SOL    HW245765  14.276  13.136  11.822
81290SOL     OW45766   6.300   5.589   3.317
81290SOL    HW145767   6.385   5.564   3.281
81290SOL    HW245768   6.317   5.609   3.409
81291SOL     OW45769  10.432   9.042   7.827
81291SOL    HW145770  10.490   9.011   7.758
81291SOL    HW245771  10.350   9.062   7.782
81292SOL     OW45772   0.468   8.055  11.112
81292SOL    HW145773   0.518   8.134  11.135
81292SOL    HW245774   0.418   8.079  11.035
81293SOL     OW45775   1.897  13.314   3.947
81293SOL    HW145776   1.991  13.324   3.962
81293SOL    HW245777   1.861  13.294   4.034
81294SOL     OW45778   8.888  12.480   2.913
81294SOL    HW145779   8.915  12.496   2.822
81294SOL    HW245780   8.970  12.482   2.963
81295SOL     OW45781   0.863  10.708   2.372
81295SOL    HW145782   0.785  10.652   2.369
81295SOL    HW245783   0.845  10.776   2.307
81296SOL     OW45784  11.805  13.149  10.904
81296SOL    HW145785  11.875  13.137  10.968
81296SOL    HW245786  11.727  13.166  10.958
81297SOL     OW45787   6.357  10.068   7.400
81297SOL    HW145788   6.319  10.093   7.484
81297SOL    HW245789   6.289  10.016   7.357
81298SOL     OW45790   0.918   9.291   1.290
81298SOL    HW145791   0.855   9.240   1.240
81298SOL    HW245792   0.895   9.382   1.273
81299SOL     OW45793  11.130   9.844  10.623
81299SOL    HW145794  11.214   9.832  10.578
81299SOL    HW245795  11.066   9.804  10.564
81300SOL     OW45796  10.358  12.232   6.871
81300SOL    HW145797  10.350  12.176   6.948
81300SOL    HW245798  10.368  12.171   6.798
81301SOL     OW45799  12.903   6.685  10.517
81301SOL    HW145800  12.871   6.761  10.469
81301SOL    HW245801  12.977   6.652  10.466
81302SOL     OW45802   0.782   0.967   7.769
81302SOL    HW145803   0.794   1.056   7.801
81302SOL    HW245804   0.691   0.964   7.740
81303SOL     OW45805   9.295   1.530   9.742
81303SOL    HW145806   9.209   1.498   9.767
81303SOL    HW245807   9.356   1.475   9.792
81304SOL     OW45808   8.194   7.237  12.526
81304SOL    HW145809   8.134   7.284  12.585
81304SOL    HW245810   8.247   7.184  12.584
81305SOL     OW45811   9.481   5.454  10.668
81305SOL    HW145812   9.559   5.457  10.724
81305SOL    HW245813   9.491   5.372  10.619
81306SOL     OW45814   0.559   9.844   8.349
81306SOL    HW145815   0.464   9.859   8.346
81306SOL    HW245816   0.572   9.764   8.298
81307SOL     OW45817  13.312   1.200   3.343
81307SOL    HW145818  13.246   1.167   3.404
81307SOL    HW245819  13.300   1.295   3.346
81308SOL     OW45820   8.255  11.645   4.491
81308SOL    HW145821   8.187  11.708   4.515
81308SOL    HW245822   8.292  11.679   4.410
81309SOL     OW45823  14.733  12.329   6.616
81309SOL    HW145824  14.679  12.378   6.678
81309SOL    HW245825  14.820  12.368   6.624
81310SOL     OW45826   4.778  12.344  13.599
81310SOL    HW145827   4.793  12.388  13.683
81310SOL    HW245828   4.839  12.384  13.538
81311SOL     OW45829   1.230  12.413   6.870
81311SOL    HW145830   1.322  12.420   6.843
81311SOL    HW245831   1.218  12.320   6.890
81312SOL     OW45832  11.292  13.948  11.053
81312SOL    HW145833  11.244  13.917  11.129
81312SOL    HW245834  11.224  13.971  10.989
81313SOL     OW45835   3.296   5.560   8.445
81313SOL    HW145836   3.238   5.593   8.377
81313SOL    HW245837   3.256   5.589   8.527
81314SOL     OW45838   9.092  14.213  13.742
81314SOL    HW145839   9.115  14.275  13.812
81314SOL    HW245840   9.074  14.268  13.666
81315SOL     OW45841   5.512  13.387   4.307
81315SOL    HW145842   5.478  13.465   4.265
81315SOL    HW245843   5.434  13.335   4.328
81316SOL     OW45844  11.633   7.866  10.103
81316SOL    HW145845  11.609   7.954  10.133
81316SOL    HW245846  11.600   7.861  10.013
81317SOL     OW45847   1.538  10.693  11.630
81317SOL    HW145848   1.470  10.760  11.640
81317SOL    HW245849   1.526  10.636  11.706
81318SOL     OW45850   5.018   2.873  11.645
81318SOL    HW145851   4.930   2.843  11.623
81318SOL    HW245852   5.076   2.818  11.593
81319SOL     OW45853  11.459   2.046   8.555
81319SOL    HW145854  11.403   2.032   8.478
81319SOL    HW245855  11.535   1.990   8.539
81320SOL     OW45856   4.045   6.814   5.536
81320SOL    HW145857   4.003   6.738   5.577
81320SOL    HW245858   4.134   6.784   5.515
81321SOL     OW45859  13.610   0.467   3.628
81321SOL    HW145860  13.648   0.467   3.716
81321SOL    HW245861  13.571   0.380   3.620
81322SOL     OW45862   2.856   2.832   7.119
81322SOL    HW145863   2.932   2.850   7.175
81322SOL    HW245864   2.781   2.859   7.171
81323SOL     OW45865   7.906  12.757  14.142
81323SOL    HW145866   7.878  12.667  14.128
81323SOL    HW245867   7.913  12.766  14.237
81324SOL     OW45868   6.373   2.432   9.144
81324SOL    HW145869   6.448   2.491   9.151
81324SOL    HW245870   6.333   2.454   9.060
81325SOL     OW45871   5.494  10.647   6.645
81325SOL    HW145872   5.486  10.697   6.564
81325SOL    HW245873   5.472  10.709   6.714
81326SOL     OW45874   4.998   6.235   9.416
81326SOL    HW145875   4.961   6.298   9.477
81326SOL    HW245876   5.005   6.282   9.333
81327SOL     OW45877  12.669   9.937  14.743
81327SOL    HW145878  12.739   9.874  14.757
81327SOL    HW245879  12.714  10.016  14.710
81328SOL     OW45880  14.232  11.095   8.110
81328SOL    HW145881  14.230  11.143   8.193
81328SOL    HW245882  14.199  11.159   8.046
81329SOL     OW45883   3.669   9.916   1.917
81329SOL    HW145884   3.606   9.855   1.956
81329SOL    HW245885   3.644  10.002   1.953
81330SOL     OW45886   5.713   9.679   4.747
81330SOL    HW145887   5.752   9.591   4.750
81330SOL    HW245888   5.667   9.687   4.831
81331SOL     OW45889  11.703  13.295   6.397
81331SOL    HW145890  11.626  13.246   6.426
81331SOL    HW245891  11.755  13.307   6.478
81332SOL     OW45892  12.200   9.319   9.036
81332SOL    HW145893  12.107   9.335   9.022
81332SOL    HW245894  12.242   9.404   9.023
81333SOL     OW45895  13.340   7.082   1.565
81333SOL    HW145896  13.394   7.141   1.512
81333SOL    HW245897  13.381   6.996   1.553
81334SOL     OW45898   3.360   4.247  11.505
81334SOL    HW145899   3.279   4.251  11.455
81334SOL    HW245900   3.354   4.166  11.556
81335SOL     OW45901   9.951   4.433  11.714
81335SOL    HW145902  10.029   4.485  11.695
81335SOL    HW245903   9.893   4.448  11.639
81336SOL     OW45904   8.864  12.828   9.073
81336SOL    HW145905   8.919  12.819   8.994
81336SOL    HW245906   8.821  12.743   9.082
81337SOL     OW45907   5.661   1.087   2.690
81337SOL    HW145908   5.750   1.098   2.655
81337SOL    HW245909   5.615   1.039   2.622
81338SOL     OW45910   0.155   6.222   2.624
81338SOL    HW145911   0.231   6.278   2.643
81338SOL    HW245912   0.186   6.133   2.642
81339SOL     OW45913  14.529   4.979   2.690
81339SOL    HW145914  14.437   4.966   2.665
81339SOL    HW245915  14.579   4.943   2.618
81340SOL     OW45916  13.762  14.488   6.113
81340SOL    HW145917  13.801  14.433   6.180
81340SOL    HW245918  13.697  14.432   6.071
81341SOL     OW45919   4.996  13.911  11.421
81341SOL    HW145920   5.066  13.975  11.433
81341SOL    HW245921   4.923  13.945  11.472
81342SOL     OW45922   0.493  10.037  11.925
81342SOL    HW145923   0.523   9.984  12.000
81342SOL    HW245924   0.424  10.093  11.960
81343SOL     OW45925   9.499   6.376   8.344
81343SOL    HW145926   9.512   6.457   8.393
81343SOL    HW245927   9.563   6.380   8.273
81344SOL     OW45928   8.622   0.401  11.706
81344SOL    HW145929   8.624   0.328  11.767
81344SOL    HW245930   8.708   0.443  11.715
81345SOL     OW45931  13.518  10.994  10.772
81345SOL    HW145932  13.501  10.955  10.686
81345SOL    HW245933  13.461  10.945  10.832
81346SOL     OW45934   7.070  12.265   8.740
81346SOL    HW145935   7.086  12.247   8.832
81346SOL    HW245936   7.102  12.188   8.694
81347SOL     OW45937   0.298   3.412  13.082
81347SOL    HW145938   0.308   3.478  13.013
81347SOL    HW245939   0.368   3.431  13.144
81348SOL     OW45940   9.081   4.156   5.577
81348SOL    HW145941   9.056   4.221   5.511
81348SOL    HW245942   9.070   4.201   5.661
81349SOL     OW45943   3.945  11.586   4.520
81349SOL    HW145944   3.916  11.526   4.451
81349SOL    HW245945   3.864  11.618   4.559
81350SOL     OW45946  11.929   1.240   4.310
81350SOL    HW145947  12.016   1.279   4.321
81350SOL    HW245948  11.938   1.151   4.342
81351SOL     OW45949  10.947  10.679  12.984
81351SOL    HW145950  10.991  10.599  12.954
81351SOL    HW245951  10.858  10.651  13.005
81352SOL     OW45952   9.116   6.492   2.397
81352SOL    HW145953   9.033   6.494   2.445
81352SOL    HW245954   9.175   6.544   2.452
81353SOL     OW45955  13.567   7.220   4.840
81353SOL    HW145956  13.641   7.275   4.866
81353SOL    HW245957  13.608   7.146   4.795
81354SOL     OW45958   7.675  13.228  11.306
81354SOL    HW145959   7.708  13.206  11.393
81354SOL    HW245960   7.673  13.324  11.306
81355SOL     OW45961  11.648  11.515   5.528
81355SOL    HW145962  11.557  11.492   5.546
81355SOL    HW245963  11.657  11.604   5.561
81356SOL     OW45964  11.868   7.933  10.287
81356SOL    HW145965  11.794   7.940  10.226
81356SOL    HW245966  11.878   8.022  10.322
81357SOL     OW45967   9.357  12.759  10.520
81357SOL    HW145968   9.283  12.790  10.573
81357SOL    HW245969   9.317  12.714  10.446
81358SOL     OW45970  14.804  12.551   8.240
81358SOL    HW145971  14.717  12.534   8.277
81358SOL    HW245972  14.835  12.465   8.211
81359SOL     OW45973  13.356   2.623  12.314
81359SOL    HW145974  13.441   2.583  12.299
81359SOL    HW245975  13.332   2.661  12.229
81360SOL     OW45976   6.901   2.532   5.614
81360SOL    HW145977   6.860   2.468   5.671
81360SOL    HW245978   6.940   2.480   5.543
81361SOL     OW45979   5.393   9.081   1.389
81361SOL    HW145980   5.422   8.996   1.421
81361SOL    HW245981   5.368   9.129   1.468
81362SOL     OW45982  13.475   8.001   3.579
81362SOL    HW145983  13.439   7.993   3.668
81362SOL    HW245984  13.484   8.095   3.565
81363SOL     OW45985  14.663  13.290  12.305
81363SOL    HW145986  14.712  13.367  12.275
81363SOL    HW245987  14.678  13.288  12.400
81364SOL     OW45988   6.731  11.728  12.226
81364SOL    HW145989   6.794  11.718  12.298
81364SOL    HW245990   6.702  11.640  12.206
81365SOL     OW45991  14.512   6.792  12.972
81365SOL    HW145992  14.543   6.873  13.011
81365SOL    HW245993  14.586   6.732  12.977
81366SOL     OW45994  10.583  10.528   3.130
81366SOL    HW145995  10.549  10.599   3.076
81366SOL    HW245996  10.504  10.485   3.165
81367SOL     OW45997   6.824  13.612  10.946
81367SOL    HW145998   6.894  13.661  10.989
81367SOL    HW245999   6.848  13.612  10.854
81368SOL     OW46000   6.406   4.950   9.768
81368SOL    HW146001   6.466   4.876   9.773
81368SOL    HW246002   6.454   5.017   9.721
81369SOL     OW46003  13.437   1.747  12.307
81369SOL    HW146004  13.505   1.809  12.333
81369SOL    HW246005  13.355   1.791  12.328
81370SOL     OW46006   1.428  10.634   3.515
81370SOL    HW146007   1.502  10.692   3.534
81370SOL    HW246008   1.377  10.633   3.596
81371SOL     OW46009  10.978   0.337   9.134
81371SOL    HW146010  10.922   0.393   9.187
81371SOL    HW246011  11.017   0.396   9.070
81372SOL     OW46012  11.397   2.459   0.670
81372SOL    HW146013  11.411   2.402   0.595
81372SOL    HW246014  11.486   2.480   0.701
81373SOL     OW46015   6.243   6.267   9.892
81373SOL    HW146016   6.275   6.345   9.938
81373SOL    HW246017   6.179   6.229   9.952
81374SOL     OW46018   9.733   1.282   5.153
81374SOL    HW146019   9.822   1.277   5.119
81374SOL    HW246020   9.698   1.193   5.140
81375SOL     OW46021   7.164  14.112   4.781
81375SOL    HW146022   7.180  14.163   4.702
81375SOL    HW246023   7.114  14.171   4.838
81376SOL     OW46024  12.575   8.556   9.307
81376SOL    HW146025  12.624   8.474   9.307
81376SOL    HW246026  12.489   8.532   9.272
81377SOL     OW46027  12.791   1.663   2.083
81377SOL    HW146028  12.864   1.618   2.039
81377SOL    HW246029  12.795   1.631   2.173
81378SOL     OW46030   3.332   5.649   3.725
81378SOL    HW146031   3.384   5.729   3.716
81378SOL    HW246032   3.241   5.680   3.731
81379SOL     OW46033   7.959  13.737   4.812
81379SOL    HW146034   8.032  13.693   4.857
81379SOL    HW246035   7.994  13.823   4.789
81380SOL     OW46036  14.678  12.822   3.193
81380SOL    HW146037  14.740  12.885   3.231
81380SOL    HW246038  14.614  12.807   3.263
81381SOL     OW46039   2.472  10.255   4.948
81381SOL    HW146040   2.394  10.308   4.932
81381SOL    HW246041   2.545  10.312   4.924
81382SOL     OW46042   4.820  14.624   9.771
81382SOL    HW146043   4.829  14.719   9.785
81382SOL    HW246044   4.744  14.615   9.714
81383SOL     OW46045   2.012  10.037   0.883
81383SOL    HW146046   2.059  10.103   0.832
81383SOL    HW246047   1.992  10.080   0.966
81384SOL     OW46048   1.354   1.306  11.832
81384SOL    HW146049   1.357   1.402  11.824
81384SOL    HW246050   1.262   1.287  11.851
81385SOL     OW46051   9.508   0.345   1.585
81385SOL    HW146052   9.516   0.343   1.680
81385SOL    HW246053   9.420   0.312   1.567
81386SOL     OW46054  10.866  14.738  13.317
81386SOL    HW146055  10.877  14.805  13.385
81386SOL    HW246056  10.816  14.668  13.359
81387SOL     OW46057   6.599   1.764   4.107
81387SOL    HW146058   6.549   1.763   4.189
81387SOL    HW246059   6.555   1.700   4.052
81388SOL     OW46060  14.727   2.373   6.398
81388SOL    HW146061  14.751   2.359   6.489
81388SOL    HW246062  14.810   2.390   6.354
81389SOL     OW46063   6.023   5.192  12.525
81389SOL    HW146064   6.102   5.213  12.575
81389SOL    HW246065   6.000   5.103  12.553
81390SOL     OW46066  11.461   9.439   4.273
81390SOL    HW146067  11.447   9.352   4.309
81390SOL    HW246068  11.429   9.434   4.183
81391SOL     OW46069  12.338   6.266  14.437
81391SOL    HW146070  12.386   6.332  14.487
81391SOL    HW246071  12.346   6.186  14.490
81392SOL     OW46072   9.029  13.211   6.308
81392SOL    HW146073   9.045  13.129   6.356
81392SOL    HW246074   9.095  13.211   6.239
81393SOL     OW46075   2.511   6.770   6.932
81393SOL    HW146076   2.563   6.790   6.855
81393SOL    HW246077   2.570   6.787   7.006
81394SOL     OW46078   5.345   3.032   3.204
81394SOL    HW146079   5.289   3.000   3.275
81394SOL    HW246080   5.293   3.018   3.125
81395SOL     OW46081  10.938  14.814   0.060
81395SOL    HW146082  10.922  14.733   0.011
81395SOL    HW246083  10.991  14.788   0.134
81396SOL     OW46084   8.017  14.057   7.656
81396SOL    HW146085   8.105  14.053   7.692
81396SOL    HW246086   7.986  13.967   7.656
81397SOL     OW46087   5.491   9.434  11.064
81397SOL    HW146088   5.454   9.360  11.016
81397SOL    HW246089   5.579   9.444  11.028
81398SOL     OW46090   6.444  11.460   7.861
81398SOL    HW146091   6.514  11.476   7.798
81398SOL    HW246092   6.485  11.474   7.946
81399SOL     OW46093   9.716   2.116   6.144
81399SOL    HW146094   9.623   2.126   6.167
81399SOL    HW246095   9.722   2.145   6.053
81400SOL     OW46096   0.976  13.479  11.103
81400SOL    HW146097   0.908  13.532  11.062
81400SOL    HW246098   0.997  13.525  11.184
81401SOL     OW46099   1.220   2.109   9.234
81401SOL    HW146100   1.292   2.170   9.217
81401SOL    HW246101   1.167   2.153   9.301
81402SOL     OW46102   4.538  12.754   0.237
81402SOL    HW146103   4.487  12.702   0.174
81402SOL    HW246104   4.602  12.801   0.184
81403SOL     OW46105   5.581   1.998  13.134
81403SOL    HW146106   5.627   2.082  13.131
81403SOL    HW246107   5.494   2.017  13.098
81404SOL     OW46108   3.921  13.235  13.131
81404SOL    HW146109   3.994  13.282  13.172
81404SOL    HW246110   3.920  13.265  13.041
81405SOL     OW46111  11.441   1.137   1.951
81405SOL    HW146112  11.510   1.162   2.014
81405SOL    HW246113  11.457   1.044   1.934
81406SOL     OW46114   5.181  10.863   1.980
81406SOL    HW146115   5.197  10.776   2.018
81406SOL    HW246116   5.112  10.900   2.035
81407SOL     OW46117   4.593   5.791   6.352
81407SOL    HW146118   4.644   5.721   6.391
81407SOL    HW246119   4.626   5.871   6.393
81408SOL     OW46120  13.717  10.249   6.028
81408SOL    HW146121  13.778  10.318   6.001
81408SOL    HW246122  13.632  10.278   5.995
81409SOL     OW46123   5.892  13.065  10.211
81409SOL    HW146124   5.865  13.135  10.271
81409SOL    HW246125   5.885  12.985  10.264
81410SOL     OW46126   6.534  10.815   6.990
81410SOL    HW146127   6.478  10.820   7.067
81410SOL    HW246128   6.618  10.851   7.018
81411SOL     OW46129   9.855   2.608  13.217
81411SOL    HW146130   9.812   2.544  13.161
81411SOL    HW246131   9.824   2.693  13.184
81412SOL     OW46132  13.583   4.835  11.399
81412SOL    HW146133  13.488   4.846  11.390
81412SOL    HW246134  13.604   4.877  11.482
81413SOL     OW46135   5.729   5.333   6.356
81413SOL    HW146136   5.660   5.375   6.304
81413SOL    HW246137   5.763   5.265   6.299
81414SOL     OW46138   1.513   8.011   8.221
81414SOL    HW146139   1.563   8.078   8.269
81414SOL    HW246140   1.437   8.058   8.187
81415SOL     OW46141   1.578  10.684   2.389
81415SOL    HW146142   1.615  10.596   2.390
81415SOL    HW246143   1.486  10.672   2.415
81416SOL     OW46144  13.377   2.321   0.720
81416SOL    HW146145  13.298   2.275   0.750
81416SOL    HW246146  13.427   2.337   0.800
81417SOL     OW46147   4.477   6.320   8.922
81417SOL    HW146148   4.499   6.348   9.011
81417SOL    HW246149   4.383   6.337   8.913
81418SOL     OW46150  11.819   3.823  14.395
81418SOL    HW146151  11.806   3.730  14.378
81418SOL    HW246152  11.909   3.830  14.425
81419SOL     OW46153  12.960  12.431   6.372
81419SOL    HW146154  12.912  12.350   6.356
81419SOL    HW246155  12.930  12.460   6.459
81420SOL     OW46156   4.772   2.258  10.778
81420SOL    HW146157   4.796   2.168  10.757
81420SOL    HW246158   4.682   2.252  10.810
81421SOL     OW46159   1.769   5.350   4.582
81421SOL    HW146160   1.793   5.338   4.490
81421SOL    HW246161   1.690   5.298   4.593
81422SOL     OW46162   1.693  10.315   2.201
81422SOL    HW146163   1.785  10.288   2.198
81422SOL    HW246164   1.644  10.234   2.182
81423SOL     OW46165   5.032   1.415   2.517
81423SOL    HW146166   5.073   1.426   2.603
81423SOL    HW246167   4.967   1.346   2.529
81424SOL     OW46168   6.321   2.259   2.450
81424SOL    HW146169   6.370   2.178   2.442
81424SOL    HW246170   6.388   2.327   2.458
81425SOL     OW46171  10.514  14.672   9.044
81425SOL    HW146172  10.595  14.712   9.075
81425SOL    HW246173  10.530  14.578   9.047
81426SOL     OW46174   4.072  10.816  14.795
81426SOL    HW146175   4.022  10.739  14.822
81426SOL    HW246176   4.160  10.800  14.827
81427SOL     OW46177   3.530   9.457   5.800
81427SOL    HW146178   3.543   9.373   5.844
81427SOL    HW246179   3.605   9.465   5.740
81428SOL     OW46180   0.853   0.417   9.938
81428SOL    HW146181   0.839   0.487   9.874
81428SOL    HW246182   0.790   0.435  10.008
81429SOL     OW46183   1.422   1.039  13.777
81429SOL    HW146184   1.333   1.073  13.790
81429SOL    HW246185   1.420   0.997  13.691
81430SOL     OW46186   9.865   3.517   5.197
81430SOL    HW146187   9.779   3.540   5.231
81430SOL    HW246188   9.883   3.584   5.131
81431SOL     OW46189  13.415   8.502  11.719
81431SOL    HW146190  13.363   8.477  11.644
81431SOL    HW246191  13.504   8.475  11.696
81432SOL     OW46192   1.150   4.243   7.800
81432SOL    HW146193   1.172   4.297   7.875
81432SOL    HW246194   1.137   4.155   7.837
81433SOL     OW46195  10.764   9.660   0.110
81433SOL    HW146196  10.713   9.605   0.050
81433SOL    HW246197  10.789   9.602   0.182
81434SOL     OW46198   2.122   5.948  14.207
81434SOL    HW146199   2.143   5.856  14.218
81434SOL    HW246200   2.144   5.967  14.115
81435SOL     OW46201   9.895  11.747   4.921
81435SOL    HW146202   9.868  11.683   4.856
81435SOL    HW246203   9.967  11.795   4.880
81436SOL     OW46204  12.701   7.767   0.179
81436SOL    HW146205  12.727   7.787   0.269
81436SOL    HW246206  12.648   7.687   0.187
81437SOL     OW46207  12.502   7.808   9.292
81437SOL    HW146208  12.452   7.767   9.362
81437SOL    HW246209  12.538   7.735   9.241
81438SOL     OW46210   4.176   4.178   4.418
81438SOL    HW146211   4.102   4.199   4.360
81438SOL    HW246212   4.234   4.124   4.364
81439SOL     OW46213   1.703   6.097   3.527
81439SOL    HW146214   1.791   6.117   3.493
81439SOL    HW246215   1.696   6.151   3.606
81440SOL     OW46216   5.546   2.605   1.373
81440SOL    HW146217   5.637   2.575   1.363
81440SOL    HW246218   5.545   2.692   1.334
81441SOL     OW46219   4.903   0.238  13.686
81441SOL    HW146220   4.937   0.255  13.774
81441SOL    HW246221   4.816   0.202  13.700
81442SOL     OW46222   6.605   5.229   4.017
81442SOL    HW146223   6.644   5.208   3.932
81442SOL    HW246224   6.633   5.318   4.036
81443SOL     OW46225   4.192   5.585  12.975
81443SOL    HW146226   4.228   5.622  13.056
81443SOL    HW246227   4.151   5.659  12.931
81444SOL     OW46228   1.192   3.565   2.323
81444SOL    HW146229   1.126   3.627   2.354
81444SOL    HW246230   1.157   3.479   2.346
81445SOL     OW46231   8.092   3.690   3.643
81445SOL    HW146232   8.122   3.671   3.554
81445SOL    HW246233   8.083   3.785   3.646
81446SOL     OW46234   3.259   1.747   6.707
81446SOL    HW146235   3.355   1.744   6.715
81446SOL    HW246236   3.227   1.717   6.792
81447SOL     OW46237   8.710   3.809   6.305
81447SOL    HW146238   8.708   3.740   6.239
81447SOL    HW246239   8.800   3.810   6.337
81448SOL     OW46240  11.290   6.598   9.911
81448SOL    HW146241  11.325   6.674   9.864
81448SOL    HW246242  11.264   6.633   9.996
81449SOL     OW46243   3.825  14.374  10.408
81449SOL    HW146244   3.759  14.443  10.413
81449SOL    HW246245   3.796  14.307  10.470
81450SOL     OW46246  13.561   1.105   2.222
81450SOL    HW146247  13.605   1.082   2.304
81450SOL    HW246248  13.543   1.198   2.230
81451SOL     OW46249  11.751   5.801   6.631
81451SOL    HW146250  11.712   5.841   6.708
81451SOL    HW246251  11.846   5.805   6.647
81452SOL     OW46252  12.241  11.931   7.382
81452SOL    HW146253  12.148  11.941   7.360
81452SOL    HW246254  12.250  11.838   7.404
81453SOL     OW46255  10.649  12.892   3.802
81453SOL    HW146256  10.618  12.811   3.761
81453SOL    HW246257  10.570  12.947   3.809
81454SOL     OW46258   8.681   1.744  13.629
81454SOL    HW146259   8.726   1.754  13.712
81454SOL    HW246260   8.605   1.689  13.648
81455SOL     OW46261  12.416   3.957   6.046
81455SOL    HW146262  12.379   3.873   6.074
81455SOL    HW246263  12.343   4.003   6.005
81456SOL     OW46264   9.667  13.582  11.710
81456SOL    HW146265   9.687  13.647  11.777
81456SOL    HW246266   9.685  13.626  11.628
81457SOL     OW46267   4.737   5.022   3.735
81457SOL    HW146268   4.820   5.056   3.768
81457SOL    HW246269   4.737   5.045   3.642
81458SOL     OW46270   1.918   9.816   5.816
81458SOL    HW146271   1.823   9.823   5.826
81458SOL    HW246272   1.935   9.722   5.817
81459SOL     OW46273   8.577   1.613   7.534
81459SOL    HW146274   8.482   1.610   7.547
81459SOL    HW246275   8.603   1.698   7.570
81460SOL     OW46276   2.849   7.284   5.685
81460SOL    HW146277   2.814   7.259   5.771
81460SOL    HW246278   2.772   7.285   5.628
81461SOL     OW46279   3.314   9.834   6.387
81461SOL    HW146280   3.370   9.771   6.432
81461SOL    HW246281   3.227   9.795   6.391
81462SOL     OW46282  13.176   1.820  13.166
81462SOL    HW146283  13.173   1.785  13.077
81462SOL    HW246284  13.230   1.758  13.215
81463SOL     OW46285   7.354   5.071   5.573
81463SOL    HW146286   7.427   5.047   5.631
81463SOL    HW246287   7.295   5.121   5.629
81464SOL     OW46288   7.610  13.671   2.144
81464SOL    HW146289   7.551  13.694   2.215
81464SOL    HW246290   7.557  13.621   2.083
81465SOL     OW46291   5.086  10.216  13.258
81465SOL    HW146292   5.037  10.152  13.206
81465SOL    HW246293   5.018  10.268  13.302
81466SOL     OW46294   5.810   8.063   4.261
81466SOL    HW146295   5.856   8.136   4.302
81466SOL    HW246296   5.875   7.993   4.257
81467SOL     OW46297   4.037   5.483   4.209
81467SOL    HW146298   3.998   5.556   4.161
81467SOL    HW246299   4.131   5.501   4.208
81468SOL     OW46300   0.114   2.928  10.405
81468SOL    HW146301   0.174   2.981  10.353
81468SOL    HW246302   0.166   2.901  10.481
81469SOL     OW46303  11.370  10.326  12.524
81469SOL    HW146304  11.464  10.320  12.537
81469SOL    HW246305  11.357  10.306  12.431
81470SOL     OW46306  13.056   3.333   3.331
81470SOL    HW146307  13.086   3.291   3.250
81470SOL    HW246308  12.972   3.372   3.307
81471SOL     OW46309   2.435   3.428   2.581
81471SOL    HW146310   2.447   3.379   2.499
81471SOL    HW246311   2.523   3.434   2.619
81472SOL     OW46312   2.144  14.103  13.167
81472SOL    HW146313   2.112  14.136  13.083
81472SOL    HW246314   2.069  14.111  13.226
81473SOL     OW46315   0.981  10.519   4.402
81473SOL    HW146316   0.903  10.539   4.351
81473SOL    HW246317   1.033  10.600   4.400
81474SOL     OW46318   3.304  14.153  10.607
81474SOL    HW146319   3.351  14.077  10.643
81474SOL    HW246320   3.368  14.224  10.608
81475SOL     OW46321   2.722   7.916   7.718
81475SOL    HW146322   2.674   7.972   7.656
81475SOL    HW246323   2.717   7.962   7.801
81476SOL     OW46324   4.066   7.852   8.099
81476SOL    HW146325   4.066   7.934   8.050
81476SOL    HW246326   4.109   7.873   8.182
81477SOL     OW46327   3.875   7.649  11.215
81477SOL    HW146328   3.884   7.740  11.187
81477SOL    HW246329   3.809   7.652  11.284
81478SOL     OW46330  12.688  12.053   0.317
81478SOL    HW146331  12.761  11.998   0.349
81478SOL    HW246332  12.728  12.139   0.304
81479SOL     OW46333  12.766   9.401  11.499
81479SOL    HW146334  12.747   9.489  11.467
81479SOL    HW246335  12.819   9.361  11.430
81480SOL     OW46336   9.118   2.650  11.620
81480SOL    HW146337   9.178   2.588  11.662
81480SOL    HW246338   9.161   2.735  11.630
81481SOL     OW46339   0.996   5.707   8.561
81481SOL    HW146340   1.006   5.800   8.582
81481SOL    HW246341   0.940   5.673   8.631
81482SOL     OW46342   4.383   2.048   1.864
81482SOL    HW146343   4.413   2.139   1.854
81482SOL    HW246344   4.293   2.056   1.893
81483SOL     OW46345   6.481   7.087  11.960
81483SOL    HW146346   6.482   7.041  12.044
81483SOL    HW246347   6.567   7.129  11.954
81484SOL     OW46348   3.008  13.619   7.929
81484SOL    HW146349   3.032  13.580   7.845
81484SOL    HW246350   2.939  13.561   7.963
81485SOL     OW46351   8.508   9.981  14.668
81485SOL    HW146352   8.447   9.931  14.613
81485SOL    HW246353   8.515  10.066  14.625
81486SOL     OW46354   1.787   4.690   3.975
81486SOL    HW146355   1.702   4.664   4.011
81486SOL    HW246356   1.839   4.610   3.976
81487SOL     OW46357  12.434  12.264   7.745
81487SOL    HW146358  12.381  12.184   7.748
81487SOL    HW246359  12.478  12.260   7.660
81488SOL     OW46360   4.078  14.776   7.636
81488SOL    HW146361   4.128  14.798   7.714
81488SOL    HW246362   4.139  14.792   7.564
81489SOL     OW46363   6.868   8.505   2.952
81489SOL    HW146364   6.827   8.462   2.877
81489SOL    HW246365   6.797   8.554   2.993
81490SOL     OW46366   3.744  12.266  13.050
81490SOL    HW146367   3.658  12.299  13.023
81490SOL    HW246368   3.738  12.258  13.145
81491SOL     OW46369  12.794   6.796   1.941
81491SOL    HW146370  12.830   6.760   2.022
81491SOL    HW246371  12.831   6.884   1.934
81492SOL     OW46372   5.796  11.860  11.560
81492SOL    HW146373   5.735  11.874  11.487
81492SOL    HW246374   5.883  11.866  11.521
81493SOL     OW46375   9.283  14.875   5.912
81493SOL    HW146376   9.364   0.045   5.928
81493SOL    HW246377   9.234   0.004   5.994
81494SOL     OW46378   4.170   8.011   1.464
81494SOL    HW146379   4.121   8.093   1.479
81494SOL    HW246380   4.206   8.020   1.376
81495SOL     OW46381  12.673   5.093   9.967
81495SOL    HW146382  12.636   5.013  10.005
81495SOL    HW246383  12.625   5.164  10.009
81496SOL     OW46384   0.897  12.797  14.591
81496SOL    HW146385   0.834  12.729  14.613
81496SOL    HW246386   0.982  12.759  14.613
81497SOL     OW46387  13.354   9.982   9.986
81497SOL    HW146388  13.327   9.932  10.063
81497SOL    HW246389  13.298   9.949   9.915
81498SOL     OW46390   5.683   7.156   5.253
81498SOL    HW146391   5.661   7.066   5.276
81498SOL    HW246392   5.613   7.185   5.194
81499SOL     OW46393   3.772   7.482  12.762
81499SOL    HW146394   3.782   7.523  12.676
81499SOL    HW246395   3.821   7.539  12.822
81500SOL     OW46396  12.803   9.224   5.994
81500SOL    HW146397  12.815   9.306   5.946
81500SOL    HW246398  12.708   9.207   5.989
81501SOL     OW46399   6.854   3.143  13.670
81501SOL    HW146400   6.802   3.205  13.722
81501SOL    HW246401   6.944   3.171  13.684
81502SOL     OW46402   4.100   6.994  14.544
81502SOL    HW146403   4.191   7.020  14.537
81502SOL    HW246404   4.066   6.997  14.455
81503SOL     OW46405  13.026  13.331   1.657
81503SOL    HW146406  13.084  13.407   1.667
81503SOL    HW246407  13.086  13.255   1.658
81504SOL     OW46408   8.459   0.471   8.799
81504SOL    HW146409   8.416   0.407   8.855
81504SOL    HW246410   8.462   0.551   8.851
81505SOL     OW46411   3.299   2.832  13.485
81505SOL    HW146412   3.326   2.830  13.393
81505SOL    HW246413   3.279   2.741  13.506
81506SOL     OW46414  12.017  13.830  12.873
81506SOL    HW146415  12.070  13.894  12.827
81506SOL    HW246416  11.928  13.866  12.872
81507SOL     OW46417   5.605   2.966  12.445
81507SOL    HW146418   5.578   3.006  12.362
81507SOL    HW246419   5.679   3.020  12.474
81508SOL     OW46420  12.552  13.067   9.062
81508SOL    HW146421  12.639  13.102   9.079
81508SOL    HW246422  12.563  12.972   9.067
81509SOL     OW46423   6.302   4.523   6.546
81509SOL    HW146424   6.220   4.573   6.538
81509SOL    HW246425   6.369   4.581   6.510
81510SOL     OW46426   2.013   1.961  14.315
81510SOL    HW146427   2.047   2.024  14.379
81510SOL    HW246428   2.042   1.876  14.348
81511SOL     OW46429   6.305   8.854   4.907
81511SOL    HW146430   6.225   8.906   4.892
81511SOL    HW246431   6.330   8.874   4.997
81512SOL     OW46432  11.187   0.456   4.691
81512SOL    HW146433  11.109   0.509   4.673
81512SOL    HW246434  11.162   0.367   4.666
81513SOL     OW46435   3.441   9.490  10.665
81513SOL    HW146436   3.448   9.471  10.572
81513SOL    HW246437   3.465   9.582  10.673
81514SOL     OW46438   9.523   9.465   9.910
81514SOL    HW146439   9.430   9.488   9.909
81514SOL    HW246440   9.526   9.379   9.952
81515SOL     OW46441   9.601   7.781  14.265
81515SOL    HW146442   9.661   7.716  14.228
81515SOL    HW246443   9.575   7.745  14.350
81516SOL     OW46444   6.158   0.204  12.886
81516SOL    HW146445   6.247   0.196  12.851
81516SOL    HW246446   6.168   0.191  12.980
81517SOL     OW46447   2.135   6.734   4.676
81517SOL    HW146448   2.170   6.796   4.612
81517SOL    HW246449   2.186   6.749   4.755
81518SOL     OW46450   4.971   4.459   3.981
81518SOL    HW146451   4.908   4.418   3.921
81518SOL    HW246452   5.016   4.524   3.927
81519SOL     OW46453  11.646  14.788  13.422
81519SOL    HW146454  11.597  14.734  13.359
81519SOL    HW246455  11.722  14.735  13.445
81520SOL     OW46456   2.234   6.977   9.110
81520SOL    HW146457   2.176   6.908   9.078
81520SOL    HW246458   2.317   6.932   9.129
81521SOL     OW46459   2.869  13.228   8.453
81521SOL    HW146460   2.842  13.312   8.489
81521SOL    HW246461   2.795  13.169   8.471
81522SOL     OW46462  11.945   8.579   0.874
81522SOL    HW146463  11.932   8.520   0.949
81522SOL    HW246464  12.015   8.537   0.823
81523SOL     OW46465  10.714   9.436   1.415
81523SOL    HW146466  10.647   9.500   1.440
81523SOL    HW246467  10.786   9.451   1.477
81524SOL     OW46468  10.306   1.494  14.068
81524SOL    HW146469  10.224   1.445  14.072
81524SOL    HW246470  10.329   1.511  14.160
81525SOL     OW46471   6.775   3.526   8.241
81525SOL    HW146472   6.829   3.596   8.278
81525SOL    HW246473   6.722   3.569   8.174
81526SOL     OW46474   9.947   5.696  13.122
81526SOL    HW146475   9.858   5.661  13.117
81526SOL    HW246476   9.990   5.662  13.043
81527SOL     OW46477   8.062  10.444   3.065
81527SOL    HW146478   8.143  10.489   3.087
81527SOL    HW246479   8.025  10.417   3.149
81528SOL     OW46480   9.013  13.705   0.457
81528SOL    HW146481   9.048  13.649   0.388
81528SOL    HW246482   8.955  13.766   0.411
81529SOL     OW46483   6.434  10.974   4.787
81529SOL    HW146484   6.431  10.896   4.842
81529SOL    HW246485   6.512  11.021   4.815
81530SOL     OW46486  13.348  14.705   6.878
81530SOL    HW146487  13.432  14.744   6.903
81530SOL    HW246488  13.369  14.614   6.855
81531SOL     OW46489  14.523  10.608   9.095
81531SOL    HW146490  14.505  10.664   9.019
81531SOL    HW246491  14.440  10.562   9.110
81532SOL     OW46492   1.607   4.335   2.698
81532SOL    HW146493   1.680   4.307   2.643
81532SOL    HW246494   1.604   4.430   2.688
81533SOL     OW46495   3.648   2.745   8.612
81533SOL    HW146496   3.697   2.764   8.532
81533SOL    HW246497   3.679   2.659   8.639
81534SOL     OW46498  13.098   5.244   9.291
81534SOL    HW146499  13.172   5.189   9.317
81534SOL    HW246500  13.120   5.272   9.202
81535SOL     OW46501   6.703  14.391   0.446
81535SOL    HW146502   6.761  14.399   0.371
81535SOL    HW246503   6.645  14.467   0.440
81536SOL     OW46504   7.620   0.155   9.017
81536SOL    HW146505   7.653   0.068   9.040
81536SOL    HW246506   7.627   0.205   9.098
81537SOL     OW46507   6.838   3.070   2.084
81537SOL    HW146508   6.894   3.099   2.156
81537SOL    HW246509   6.771   3.138   2.077
81538SOL     OW46510  11.191  14.393   0.337
81538SOL    HW146511  11.188  14.326   0.405
81538SOL    HW246512  11.265  14.449   0.360
81539SOL     OW46513  14.476   9.474   2.040
81539SOL    HW146514  14.505   9.536   2.107
81539SOL    HW246515  14.537   9.401   2.046
81540SOL     OW46516   2.579   9.410   0.658
81540SOL    HW146517   2.598   9.422   0.751
81540SOL    HW246518   2.546   9.495   0.629
81541SOL     OW46519   1.230   8.464   1.185
81541SOL    HW146520   1.205   8.546   1.142
81541SOL    HW246521   1.207   8.477   1.277
81542SOL     OW46522   2.653   6.786   9.713
81542SOL    HW146523   2.718   6.718   9.730
81542SOL    HW246524   2.596   6.783   9.790
81543SOL     OW46525   6.630   0.987  11.758
81543SOL    HW146526   6.661   1.029  11.838
81543SOL    HW246527   6.697   0.922  11.737
81544SOL     OW46528   6.791  11.611   7.917
81544SOL    HW146529   6.749  11.529   7.892
81544SOL    HW246530   6.883  11.600   7.891
81545SOL     OW46531   6.480  14.292   3.921
81545SOL    HW146532   6.454  14.342   3.998
81545SOL    HW246533   6.414  14.224   3.912
81546SOL     OW46534  12.504   3.172   5.168
81546SOL    HW146535  12.555   3.242   5.126
81546SOL    HW246536  12.480   3.208   5.253
81547SOL     OW46537   0.633   5.811   1.382
81547SOL    HW146538   0.651   5.825   1.475
81547SOL    HW246539   0.648   5.718   1.369
81548SOL     OW46540   3.690   0.416  12.294
81548SOL    HW146541   3.778   0.404  12.330
81548SOL    HW246542   3.678   0.511  12.292
81549SOL     OW46543   9.077   4.873   6.412
81549SOL    HW146544   9.036   4.958   6.425
81549SOL    HW246545   9.115   4.852   6.498
81550SOL     OW46546   5.929  12.603  11.217
81550SOL    HW146547   5.853  12.566  11.172
81550SOL    HW246548   5.986  12.634  11.146
81551SOL     OW46549  13.663  14.407   0.698
81551SOL    HW146550  13.685  14.493   0.662
81551SOL    HW246551  13.747  14.371   0.727
81552SOL     OW46552   1.084   9.131   3.348
81552SOL    HW146553   1.105   9.043   3.378
81552SOL    HW246554   1.169   9.171   3.328
81553SOL     OW46555   2.797  12.720   2.748
81553SOL    HW146556   2.814  12.627   2.764
81553SOL    HW246557   2.796  12.727   2.652
81554SOL     OW46558   6.054  13.769  12.263
81554SOL    HW146559   5.994  13.842  12.252
81554SOL    HW246560   6.026  13.705  12.198
81555SOL     OW46561  13.714  10.729   9.044
81555SOL    HW146562  13.762  10.654   9.081
81555SOL    HW246563  13.688  10.699   8.957
81556SOL     OW46564  14.437   2.789   2.485
81556SOL    HW146565  14.389   2.835   2.554
81556SOL    HW246566  14.450   2.701   2.520
81557SOL     OW46567  10.847  12.258   3.869
81557SOL    HW146568  10.756  12.275   3.845
81557SOL    HW246569  10.865  12.318   3.941
81558SOL     OW46570   3.241   2.135   2.857
81558SOL    HW146571   3.284   2.089   2.785
81558SOL    HW246572   3.184   2.199   2.815
81559SOL     OW46573   7.235   8.419   5.622
81559SOL    HW146574   7.273   8.504   5.598
81559SOL    HW246575   7.308   8.371   5.660
81560SOL     OW46576  12.814  14.631   1.778
81560SOL    HW146577  12.853  14.619   1.865
81560SOL    HW246578  12.722  14.605   1.789
81561SOL     OW46579   1.711   1.368  10.869
81561SOL    HW146580   1.630   1.377  10.919
81561SOL    HW246581   1.768   1.438  10.902
81562SOL     OW46582   7.816  13.347   4.493
81562SOL    HW146583   7.767  13.427   4.475
81562SOL    HW246584   7.876  13.370   4.563
81563SOL     OW46585   9.877   9.089   9.149
81563SOL    HW146586   9.914   9.019   9.203
81563SOL    HW246587   9.810   9.046   9.096
81564SOL     OW46588   9.716   3.482   4.008
81564SOL    HW146589   9.768   3.425   4.064
81564SOL    HW246590   9.780   3.536   3.963
81565SOL     OW46591   5.676   6.980   2.389
81565SOL    HW146592   5.734   7.022   2.326
81565SOL    HW246593   5.732   6.920   2.438
81566SOL     OW46594   3.930   4.349   3.963
81566SOL    HW146595   3.992   4.369   3.893
81566SOL    HW246596   3.930   4.428   4.018
81567SOL     OW46597   9.306   0.055   4.439
81567SOL    HW146598   9.288  14.846   4.409
81567SOL    HW246599   9.401   0.065   4.429
81568SOL     OW46600  12.880  13.442   0.470
81568SOL    HW146601  12.795  13.439   0.425
81568SOL    HW246602  12.910  13.351   0.471
81569SOL     OW46603  12.183  12.243  12.060
81569SOL    HW146604  12.092  12.269  12.078
81569SOL    HW246605  12.188  12.152  12.089
81570SOL     OW46606  11.513   7.103   2.550
81570SOL    HW146607  11.567   7.040   2.503
81570SOL    HW246608  11.465   7.150   2.482
81571SOL     OW46609   4.113  12.795   7.266
81571SOL    HW146610   4.133  12.888   7.266
81571SOL    HW246611   4.070  12.780   7.351
81572SOL     OW46612   0.918   9.936   4.284
81572SOL    HW146613   0.872   9.922   4.367
81572SOL    HW246614   1.001   9.976   4.309
81573SOL     OW46615  11.568   2.566   1.031
81573SOL    HW146616  11.551   2.534   1.120
81573SOL    HW246617  11.640   2.628   1.041
81574SOL     OW46618   2.296   6.559  10.832
81574SOL    HW146619   2.329   6.473  10.805
81574SOL    HW246620   2.291   6.553  10.928
81575SOL     OW46621  11.466   1.235   7.406
81575SOL    HW146622  11.408   1.311   7.407
81575SOL    HW246623  11.409   1.161   7.428
81576SOL     OW46624   3.877  12.529   2.992
81576SOL    HW146625   3.821  12.598   2.959
81576SOL    HW246626   3.936  12.573   3.053
81577SOL     OW46627   1.121  14.032   9.045
81577SOL    HW146628   1.178  13.987   8.981
81577SOL    HW246629   1.159  14.010   9.130
81578SOL     OW46630   3.249   4.177   9.454
81578SOL    HW146631   3.264   4.087   9.425
81578SOL    HW246632   3.277   4.232   9.381
81579SOL     OW46633  14.250  13.519   1.770
81579SOL    HW146634  14.308  13.585   1.731
81579SOL    HW246635  14.238  13.454   1.701
81580SOL     OW46636  14.103  13.031  12.762
81580SOL    HW146637  14.011  13.052  12.777
81580SOL    HW246638  14.100  12.956  12.701
81581SOL     OW46639   9.254  13.998   1.822
81581SOL    HW146640   9.344  13.991   1.790
81581SOL    HW246641   9.229  13.908   1.844
81582SOL     OW46642   7.826   6.898  13.157
81582SOL    HW146643   7.827   6.833  13.227
81582SOL    HW246644   7.735   6.930  13.156
81583SOL     OW46645   2.535  13.333   5.040
81583SOL    HW146646   2.476  13.258   5.037
81583SOL    HW246647   2.585  13.322   5.121
81584SOL     OW46648  11.211   4.075   3.416
81584SOL    HW146649  11.149   4.004   3.429
81584SOL    HW246650  11.298   4.035   3.429
81585SOL     OW46651   7.535   4.568  11.697
81585SOL    HW146652   7.497   4.481  11.709
81585SOL    HW246653   7.611   4.570  11.756
81586SOL     OW46654   0.010   3.439   2.166
81586SOL    HW146655  14.814   3.400   2.208
81586SOL    HW246656   0.048   3.367   2.115
81587SOL     OW46657  11.535  11.014   6.239
81587SOL    HW146658  11.526  10.919   6.235
81587SOL    HW246659  11.627  11.030   6.218
81588SOL     OW46660   2.650   6.063   2.900
81588SOL    HW146661   2.727   6.087   2.951
81588SOL    HW246662   2.588   6.135   2.914
81589SOL     OW46663   4.601   6.675  12.073
81589SOL    HW146664   4.613   6.581  12.087
81589SOL    HW246665   4.661   6.716  12.136
81590SOL     OW46666   8.687   1.395   3.715
81590SOL    HW146667   8.732   1.314   3.691
81590SOL    HW246668   8.606   1.394   3.664
81591SOL     OW46669   0.000   8.281   4.450
81591SOL    HW146670  14.804   8.262   4.505
81591SOL    HW246671  14.843   8.324   4.373
81592SOL     OW46672  12.192   3.855  12.819
81592SOL    HW146673  12.181   3.868  12.725
81592SOL    HW246674  12.286   3.843  12.831
81593SOL     OW46675  13.424  14.765  14.463
81593SOL    HW146676  13.478  14.691  14.490
81593SOL    HW246677  13.357  14.771  14.531
81594SOL     OW46678   9.493   8.581   4.564
81594SOL    HW146679   9.526   8.642   4.498
81594SOL    HW246680   9.435   8.634   4.619
81595SOL     OW46681   2.835   6.415  13.492
81595SOL    HW146682   2.828   6.457  13.577
81595SOL    HW246683   2.911   6.456  13.450
81596SOL     OW46684  11.777  12.864   9.634
81596SOL    HW146685  11.702  12.914   9.602
81596SOL    HW246686  11.844  12.931   9.650
81597SOL     OW46687   0.764   0.220  12.197
81597SOL    HW146688   0.694   0.183  12.142
81597SOL    HW246689   0.820   0.267  12.136
81598SOL     OW46690  12.995  11.107   9.008
81598SOL    HW146691  12.982  11.201   8.996
81598SOL    HW246692  13.039  11.079   8.928
81599SOL     OW46693  10.443  13.393  14.274
81599SOL    HW146694  10.388  13.372  14.198
81599SOL    HW246695  10.493  13.313  14.290
81600SOL     OW46696   4.792   4.696  14.596
81600SOL    HW146697   4.856   4.762  14.625
81600SOL    HW246698   4.743   4.674  14.675
81601SOL     OW46699  14.819   2.683   0.417
81601SOL    HW146700  14.765   2.652   0.490
81601SOL    HW246701  14.798   2.624   0.345
81602SOL     OW46702  10.418   9.664   8.726
81602SOL    HW146703  10.365   9.584   8.719
81602SOL    HW246704  10.432   9.674   8.820
81603SOL     OW46705  12.454   5.915   4.533
81603SOL    HW146706  12.478   5.968   4.457
81603SOL    HW246707  12.393   5.970   4.583
81604SOL     OW46708  10.845   7.988  14.292
81604SOL    HW146709  10.842   8.038  14.210
81604SOL    HW246710  10.860   7.898  14.265
81605SOL     OW46711   6.404   3.639   5.910
81605SOL    HW146712   6.440   3.567   5.858
81605SOL    HW246713   6.476   3.663   5.969
81606SOL     OW46714   5.117   6.095   8.173
81606SOL    HW146715   5.069   6.148   8.237
81606SOL    HW246716   5.122   6.149   8.095
81607SOL     OW46717   1.653   3.409   9.930
81607SOL    HW146718   1.569   3.381   9.967
81607SOL    HW246719   1.685   3.333   9.882
81608SOL     OW46720  11.201   4.818   9.415
81608SOL    HW146721  11.108   4.824   9.394
81608SOL    HW246722  11.222   4.903   9.455
81609SOL     OW46723  14.383   7.959   3.882
81609SOL    HW146724  14.452   7.929   3.941
81609SOL    HW246725  14.345   8.036   3.925
81610SOL     OW46726   0.710  13.241   3.704
81610SOL    HW146727   0.768  13.176   3.744
81610SOL    HW246728   0.682  13.296   3.778
81611SOL     OW46729  14.533  13.650   3.497
81611SOL    HW146730  14.442  13.654   3.469
81611SOL    HW246731  14.582  13.633   3.417
81612SOL     OW46732   2.756   5.453   4.702
81612SOL    HW146733   2.680   5.448   4.643
81612SOL    HW246734   2.777   5.546   4.706
81613SOL     OW46735  10.313   1.820  13.195
81613SOL    HW146736  10.326   1.912  13.220
81613SOL    HW246737  10.395   1.795  13.153
81614SOL     OW46738  13.124  14.734  13.186
81614SOL    HW146739  13.101  14.644  13.164
81614SOL    HW246740  13.185  14.726  13.260
81615SOL     OW46741  10.281  13.476   7.965
81615SOL    HW146742  10.299  13.553   7.911
81615SOL    HW246743  10.367  13.448   7.997
81616SOL     OW46744   6.401   8.985   7.372
81616SOL    HW146745   6.358   9.071   7.376
81616SOL    HW246746   6.364   8.944   7.294
81617SOL     OW46747  10.507  11.412  11.615
81617SOL    HW146748  10.435  11.416  11.552
81617SOL    HW246749  10.479  11.345  11.678
81618SOL     OW46750  11.175   8.331   5.506
81618SOL    HW146751  11.188   8.236   5.497
81618SOL    HW246752  11.251   8.361   5.556
81619SOL     OW46753  13.144  13.452  11.620
81619SOL    HW146754  13.122  13.362  11.595
81619SOL    HW246755  13.216  13.442  11.682
81620SOL     OW46756  11.322  13.145   0.482
81620SOL    HW146757  11.323  13.170   0.389
81620SOL    HW246758  11.372  13.064   0.486
81621SOL     OW46759   3.801  13.473   2.621
81621SOL    HW146760   3.806  13.476   2.525
81621SOL    HW246761   3.738  13.404   2.640
81622SOL     OW46762   8.487   3.654  14.442
81622SOL    HW146763   8.464   3.585  14.379
81622SOL    HW246764   8.447   3.733  14.407
81623SOL     OW46765  12.424  12.127   8.771
81623SOL    HW146766  12.363  12.197   8.747
81623SOL    HW246767  12.495  12.133   8.707
81624SOL     OW46768  12.068   5.037  12.385
81624SOL    HW146769  12.042   4.968  12.446
81624SOL    HW246770  12.102   4.991  12.309
81625SOL     OW46771   4.162   2.772  10.015
81625SOL    HW146772   4.201   2.748   9.931
81625SOL    HW246773   4.069   2.786   9.995
81626SOL     OW46774  14.347   7.003  11.633
81626SOL    HW146775  14.395   6.939  11.686
81626SOL    HW246776  14.325   7.073  11.694
81627SOL     OW46777  11.273   8.903   0.169
81627SOL    HW146778  11.252   8.993   0.195
81627SOL    HW246779  11.298   8.910   0.077
81628SOL     OW46780  12.970   0.962  11.846
81628SOL    HW146781  12.916   0.886  11.867
81628SOL    HW246782  12.912   1.037  11.859
81629SOL     OW46783   0.047   7.634   2.355
81629SOL    HW146784   0.083   7.684   2.428
81629SOL    HW246785   0.037   7.698   2.285
81630SOL     OW46786  14.702   5.341   1.582
81630SOL    HW146787  14.794   5.329   1.604
81630SOL    HW246788  14.677   5.260   1.537
81631SOL     OW46789  12.045   8.263   2.962
81631SOL    HW146790  12.110   8.200   2.996
81631SOL    HW246791  12.077   8.348   2.992
81632SOL     OW46792   5.042   6.721  14.311
81632SOL    HW146793   5.090   6.655  14.361
81632SOL    HW246794   5.022   6.790  14.375
81633SOL     OW46795   4.572   6.154   4.925
81633SOL    HW146796   4.507   6.149   4.855
81633SOL    HW246797   4.640   6.092   4.899
81634SOL     OW46798  13.718   2.821   7.707
81634SOL    HW146799  13.644   2.882   7.711
81634SOL    HW246800  13.676   2.734   7.703
81635SOL     OW46801   0.526   7.809   3.105
81635SOL    HW146802   0.565   7.737   3.056
81635SOL    HW246803   0.556   7.796   3.195
81636SOL     OW46804   4.912   2.165   0.610
81636SOL    HW146805   4.929   2.082   0.654
81636SOL    HW246806   4.957   2.230   0.664
81637SOL     OW46807   4.900   4.434  12.284
81637SOL    HW146808   4.833   4.492  12.249
81637SOL    HW246809   4.953   4.490  12.341
81638SOL     OW46810   7.001   7.133  13.741
81638SOL    HW146811   6.909   7.109  13.750
81638SOL    HW246812   7.010   7.163  13.651
81639SOL     OW46813  10.563   6.067   5.847
81639SOL    HW146814  10.579   6.160   5.835
81639SOL    HW246815  10.596   6.026   5.767
81640SOL     OW46816   6.523   7.648   4.619
81640SOL    HW146817   6.582   7.718   4.650
81640SOL    HW246818   6.437   7.689   4.615
81641SOL     OW46819  14.491   6.224   5.798
81641SOL    HW146820  14.445   6.150   5.759
81641SOL    HW246821  14.509   6.283   5.725
81642SOL     OW46822  12.033   1.729   5.402
81642SOL    HW146823  11.985   1.763   5.478
81642SOL    HW246824  12.028   1.634   5.411
81643SOL     OW46825   5.786   9.543   1.040
81643SOL    HW146826   5.719   9.601   1.075
81643SOL    HW246827   5.867   9.571   1.082
81644SOL     OW46828   5.882   1.642  12.377
81644SOL    HW146829   5.931   1.661  12.457
81644SOL    HW246830   5.914   1.705  12.313
81645SOL     OW46831   7.595  11.071   1.838
81645SOL    HW146832   7.527  11.037   1.897
81645SOL    HW246833   7.614  11.158   1.871
81646SOL     OW46834   2.764  13.742   8.263
81646SOL    HW146835   2.686  13.796   8.248
81646SOL    HW246836   2.735  13.653   8.244
81647SOL     OW46837   0.112  10.997   8.511
81647SOL    HW146838   0.163  11.059   8.459
81647SOL    HW246839   0.088  11.046   8.590
81648SOL     OW46840   5.732   0.718   6.788
81648SOL    HW146841   5.826   0.723   6.769
81648SOL    HW246842   5.712   0.625   6.789
81649SOL     OW46843   4.894   0.784   5.473
81649SOL    HW146844   4.838   0.855   5.440
81649SOL    HW246845   4.970   0.830   5.509
81650SOL     OW46846  11.143   3.974  13.523
81650SOL    HW146847  11.070   4.023  13.561
81650SOL    HW246848  11.136   3.887  13.561
81651SOL     OW46849   6.893   3.083   9.783
81651SOL    HW146850   6.976   3.035   9.781
81651SOL    HW246851   6.912   3.166   9.739
81652SOL     OW46852   0.506   6.609  10.312
81652SOL    HW146853   0.592   6.599  10.271
81652SOL    HW246854   0.487   6.523  10.350
81653SOL     OW46855   5.636   8.674   6.435
81653SOL    HW146856   5.632   8.763   6.471
81653SOL    HW246857   5.603   8.619   6.506
81654SOL     OW46858   9.643   7.784   2.396
81654SOL    HW146859   9.555   7.785   2.359
81654SOL    HW246860   9.630   7.797   2.490
81655SOL     OW46861   4.684   1.144  11.384
81655SOL    HW146862   4.737   1.124  11.461
81655SOL    HW246863   4.730   1.101  11.311
81656SOL     OW46864  12.061  13.354   9.626
81656SOL    HW146865  12.122  13.323   9.559
81656SOL    HW246866  12.092  13.313   9.707
81657SOL     OW46867   1.258   9.911  10.527
81657SOL    HW146868   1.339   9.939  10.484
81657SOL    HW246869   1.265   9.816  10.530
81658SOL     OW46870   6.648   2.530  12.597
81658SOL    HW146871   6.593   2.482  12.660
81658SOL    HW246872   6.732   2.539  12.641
81659SOL     OW46873  14.490   5.935  10.477
81659SOL    HW146874  14.506   6.013  10.529
81659SOL    HW246875  14.575   5.893  10.468
81660SOL     OW46876   0.104   1.918   4.056
81660SOL    HW146877   0.036   1.852   4.043
81660SOL    HW246878   0.158   1.883   4.127
81661SOL     OW46879  12.114   1.227   3.095
81661SOL    HW146880  12.122   1.313   3.054
81661SOL    HW246881  12.031   1.230   3.142
81662SOL     OW46882  11.579  13.163  12.161
81662SOL    HW146883  11.509  13.105  12.129
81662SOL    HW246884  11.589  13.227  12.091
81663SOL     OW46885   4.901   6.283  12.071
81663SOL    HW146886   4.932   6.220  12.136
81663SOL    HW246887   4.903   6.236  11.988
81664SOL     OW46888   2.618   0.971  12.306
81664SOL    HW146889   2.698   1.012  12.272
81664SOL    HW246890   2.568   1.044  12.344
81665SOL     OW46891   2.876  13.604   4.539
81665SOL    HW146892   2.964  13.624   4.507
81665SOL    HW246893   2.878  13.510   4.557
81666SOL     OW46894   3.046   7.995  10.687
81666SOL    HW146895   3.139   8.002  10.712
81666SOL    HW246896   3.029   7.901  10.683
81667SOL     OW46897   5.349   8.421   7.152
81667SOL    HW146898   5.444   8.428   7.164
81667SOL    HW246899   5.325   8.341   7.200
81668SOL     OW46900  11.666  12.311  12.989
81668SOL    HW146901  11.644  12.240  13.049
81668SOL    HW246902  11.621  12.387  13.024
81669SOL     OW46903   0.960   3.579   6.760
81669SOL    HW146904   0.934   3.643   6.826
81669SOL    HW246905   0.963   3.628   6.678
81670SOL     OW46906  14.260   1.018  11.721
81670SOL    HW146907  14.326   1.068  11.770
81670SOL    HW246908  14.189   1.004  11.784
81671SOL     OW46909  13.639   1.008   0.877
81671SOL    HW146910  13.591   0.928   0.894
81671SOL    HW246911  13.705   0.984   0.812
81672SOL     OW46912   9.086   2.639   3.528
81672SOL    HW146913   9.012   2.688   3.561
81672SOL    HW246914   9.153   2.705   3.509
81673SOL     OW46915   5.892   4.526   9.968
81673SOL    HW146916   5.975   4.574   9.963
81673SOL    HW246917   5.905   4.449   9.913
81674SOL     OW46918  14.595   1.646   5.086
81674SOL    HW146919  14.610   1.615   4.996
81674SOL    HW246920  14.597   1.742   5.078
81675SOL     OW46921   5.741   1.100   3.869
81675SOL    HW146922   5.744   1.026   3.808
81675SOL    HW246923   5.661   1.148   3.844
81676SOL     OW46924   7.435  13.810   1.361
81676SOL    HW146925   7.398  13.896   1.380
81676SOL    HW246926   7.375  13.770   1.299
81677SOL     OW46927  13.603   8.958   3.707
81677SOL    HW146928  13.618   9.044   3.669
81677SOL    HW246929  13.568   8.976   3.794
81678SOL     OW46930   5.246   5.674  14.056
81678SOL    HW146931   5.315   5.708  13.999
81678SOL    HW246932   5.246   5.579  14.039
81679SOL     OW46933   8.630   2.629   3.476
81679SOL    HW146934   8.590   2.644   3.391
81679SOL    HW246935   8.557   2.619   3.536
81680SOL     OW46936   6.496   0.376   9.241
81680SOL    HW146937   6.583   0.379   9.279
81680SOL    HW246938   6.476   0.282   9.233
81681SOL     OW46939   9.965   6.923   0.822
81681SOL    HW146940   9.942   6.848   0.877
81681SOL    HW246941   9.976   6.995   0.884
81682SOL     OW46942   6.082   7.595   5.307
81682SOL    HW146943   6.041   7.517   5.343
81682SOL    HW246944   6.011   7.643   5.266
81683SOL     OW46945   2.599   4.574   1.435
81683SOL    HW146946   2.547   4.587   1.514
81683SOL    HW246947   2.686   4.551   1.468
81684SOL     OW46948   8.573  13.543   7.410
81684SOL    HW146949   8.659  13.546   7.453
81684SOL    HW246950   8.519  13.605   7.458
81685SOL     OW46951  10.848   7.856   7.127
81685SOL    HW146952  10.823   7.948   7.123
81685SOL    HW246953  10.774   7.814   7.172
81686SOL     OW46954  10.199   5.836  14.207
81686SOL    HW146955  10.269   5.871  14.262
81686SOL    HW246956  10.120   5.883  14.235
81687SOL     OW46957  13.717   8.455  13.258
81687SOL    HW146958  13.631   8.432  13.294
81687SOL    HW246959  13.737   8.384  13.198
81688SOL     OW46960  13.201   7.850  12.736
81688SOL    HW146961  13.152   7.917  12.783
81688SOL    HW246962  13.167   7.853  12.647
81689SOL     OW46963   8.165   1.943  14.200
81689SOL    HW146964   8.168   1.990  14.116
81689SOL    HW246965   8.187   2.009  14.265
81690SOL     OW46966  12.163   9.853  13.628
81690SOL    HW146967  12.220   9.894  13.693
81690SOL    HW246968  12.214   9.855  13.547
81691SOL     OW46969   0.367  12.814   5.467
81691SOL    HW146970   0.404  12.889   5.514
81691SOL    HW246971   0.381  12.834   5.375
81692SOL     OW46972  10.722  12.714   8.016
81692SOL    HW146973  10.762  12.776   7.954
81692SOL    HW246974  10.779  12.636   8.011
81693SOL     OW46975   4.495   7.407  11.859
81693SOL    HW146976   4.420   7.425  11.803
81693SOL    HW246977   4.519   7.492  11.896
81694SOL     OW46978   9.583   7.953   5.374
81694SOL    HW146979   9.493   7.982   5.361
81694SOL    HW246980   9.601   7.967   5.467
81695SOL     OW46981   4.398  10.356   3.226
81695SOL    HW146982   4.480  10.332   3.269
81695SOL    HW246983   4.423  10.382   3.137
81696SOL     OW46984   8.210   0.242   2.429
81696SOL    HW146985   8.182   0.221   2.340
81696SOL    HW246986   8.166   0.177   2.484
81697SOL     OW46987   6.829  13.245   0.357
81697SOL    HW146988   6.901  13.185   0.340
81697SOL    HW246989   6.812  13.236   0.450
81698SOL     OW46990  14.407  13.031  12.064
81698SOL    HW146991  14.486  13.045  12.116
81698SOL    HW246992  14.436  13.038  11.974
81699SOL     OW46993   8.089   7.187   8.559
81699SOL    HW146994   8.182   7.202   8.576
81699SOL    HW246995   8.087   7.100   8.518
81700SOL     OW46996   5.804  11.597   7.650
81700SOL    HW146997   5.856  11.668   7.689
81700SOL    HW246998   5.823  11.521   7.704
81701SOL     OW46999   9.859   0.069  11.301
81701SOL    HW147000   9.908  14.877  11.261
81701SOL    HW247001   9.781   0.028  11.337
81702SOL     OW47002  12.527   8.016   1.332
81702SOL    HW147003  12.607   8.058   1.300
81702SOL    HW247004  12.549   7.987   1.420
81703SOL     OW47005   2.991   9.007  13.741
81703SOL    HW147006   2.951   8.958  13.669
81703SOL    HW247007   2.947   9.092  13.740
81704SOL     OW47008   3.609   1.639   8.577
81704SOL    HW147009   3.660   1.678   8.506
81704SOL    HW247010   3.551   1.576   8.535
81705SOL     OW47011   3.178   2.879   2.592
81705SOL    HW147012   3.177   2.801   2.646
81705SOL    HW247013   3.112   2.937   2.631
81706SOL     OW47014   1.648   3.085  13.958
81706SOL    HW147015   1.687   3.067  13.872
81706SOL    HW247016   1.679   3.173  13.980
81707SOL     OW47017   6.114  10.216  14.361
81707SOL    HW147018   6.045  10.174  14.309
81707SOL    HW247019   6.105  10.309  14.341
81708SOL     OW47020   1.360   8.628   4.255
81708SOL    HW147021   1.271   8.622   4.221
81708SOL    HW247022   1.414   8.583   4.190
81709SOL     OW47023   1.008   2.302   8.132
81709SOL    HW147024   1.015   2.271   8.042
81709SOL    HW247025   0.978   2.393   8.125
81710SOL     OW47026   1.292   6.773   8.637
81710SOL    HW147027   1.361   6.719   8.599
81710SOL    HW247028   1.212   6.722   8.625
81711SOL     OW47029   2.941  14.336  11.031
81711SOL    HW147030   2.900  14.267  11.083
81711SOL    HW247031   2.869  14.374  10.980
81712SOL     OW47032   0.307  11.792   9.251
81712SOL    HW147033   0.291  11.845   9.329
81712SOL    HW247034   0.298  11.701   9.282
81713SOL     OW47035  10.887   2.881   3.881
81713SOL    HW147036  10.959   2.830   3.918
81713SOL    HW247037  10.813   2.864   3.940
81714SOL     OW47038   7.454  12.603   3.617
81714SOL    HW147039   7.435  12.674   3.556
81714SOL    HW247040   7.399  12.622   3.693
81715SOL     OW47041   7.850   0.686   9.269
81715SOL    HW147042   7.911   0.650   9.333
81715SOL    HW247043   7.865   0.635   9.189
81716SOL     OW47044   2.105  12.530   8.161
81716SOL    HW147045   2.071  12.607   8.207
81716SOL    HW247046   2.174  12.565   8.104
81717SOL     OW47047  12.913   5.206  12.735
81717SOL    HW147048  12.841   5.192  12.673
81717SOL    HW247049  12.877   5.267  12.800
81718SOL     OW47050  13.198   0.052  14.107
81718SOL    HW147051  13.163   0.036  14.194
81718SOL    HW247052  13.208  14.845  14.068
81719SOL     OW47053   0.581  10.705  14.263
81719SOL    HW147054   0.513  10.762  14.226
81719SOL    HW247055   0.646  10.698  14.194
81720SOL     OW47056   9.395  10.377   3.272
81720SOL    HW147057   9.438  10.398   3.355
81720SOL    HW247058   9.302  10.385   3.290
81721SOL     OW47059   9.345   4.344   1.867
81721SOL    HW147060   9.434   4.352   1.901
81721SOL    HW247061   9.330   4.249   1.862
81722SOL     OW47062   9.392  10.688   2.365
81722SOL    HW147063   9.449  10.734   2.426
81722SOL    HW247064   9.399  10.596   2.390
81723SOL     OW47065   3.596   9.903   2.727
81723SOL    HW147066   3.573   9.975   2.786
81723SOL    HW247067   3.527   9.838   2.741
81724SOL     OW47068  11.510   5.566  11.489
81724SOL    HW147069  11.442   5.532  11.430
81724SOL    HW247070  11.591   5.526  11.457
81725SOL     OW47071   7.760   7.036   5.277
81725SOL    HW147072   7.798   7.109   5.229
81725SOL    HW247073   7.774   7.059   5.369
81726SOL     OW47074   4.965   2.942   2.710
81726SOL    HW147075   5.053   2.919   2.683
81726SOL    HW247076   4.932   2.999   2.640
81727SOL     OW47077   8.281  13.629  13.409
81727SOL    HW147078   8.374  13.640  13.425
81727SOL    HW247079   8.243  13.715  13.427
81728SOL     OW47080   9.887   3.794   3.014
81728SOL    HW147081   9.806   3.791   3.066
81728SOL    HW247082   9.957   3.786   3.078
81729SOL     OW47083  13.335   2.928  13.852
81729SOL    HW147084  13.309   2.842  13.818
81729SOL    HW247085  13.268   2.949  13.917
81730SOL     OW47086  12.668   3.466   6.185
81730SOL    HW147087  12.709   3.424   6.260
81730SOL    HW247088  12.614   3.536   6.222
81731SOL     OW47089   4.493   3.128   3.132
81731SOL    HW147090   4.455   3.069   3.196
81731SOL    HW247091   4.487   3.215   3.172
81732SOL     OW47092   8.921   7.928  12.711
81732SOL    HW147093   8.853   7.862  12.702
81732SOL    HW247094   8.904   7.968  12.797
81733SOL     OW47095   7.612   9.262  12.716
81733SOL    HW147096   7.533   9.249  12.663
81733SOL    HW247097   7.598   9.209  12.794
81734SOL     OW47098   2.836   1.330  14.098
81734SOL    HW147099   2.919   1.318  14.146
81734SOL    HW247100   2.852   1.290  14.013
81735SOL     OW47101   1.536  13.963   1.945
81735SOL    HW147102   1.487  13.917   1.877
81735SOL    HW247103   1.552  13.897   2.012
81736SOL     OW47104  14.557   8.466   6.785
81736SOL    HW147105  14.573   8.405   6.857
81736SOL    HW247106  14.496   8.530   6.820
81737SOL     OW47107   8.144   1.079  13.463
81737SOL    HW147108   8.119   1.058  13.553
81737SOL    HW247109   8.200   1.156  13.471
81738SOL     OW47110   0.964   5.559   1.497
81738SOL    HW147111   0.999   5.646   1.518
81738SOL    HW247112   0.876   5.577   1.462
81739SOL     OW47113   1.953   1.627   8.214
81739SOL    HW147114   2.047   1.616   8.195
81739SOL    HW247115   1.943   1.722   8.225
81740SOL     OW47116   9.154  11.743   6.587
81740SOL    HW147117   9.231  11.781   6.545
81740SOL    HW247118   9.097  11.818   6.606
81741SOL     OW47119   6.154   1.822   5.829
81741SOL    HW147120   6.117   1.738   5.856
81741SOL    HW247121   6.245   1.818   5.857
81742SOL     OW47122   3.701   5.023   2.016
81742SOL    HW147123   3.699   5.112   1.981
81742SOL    HW247124   3.692   5.035   2.111
81743SOL     OW47125   4.002   4.140   1.709
81743SOL    HW147126   4.077   4.200   1.708
81743SOL    HW247127   4.039   4.057   1.738
81744SOL     OW47128   4.445   7.244  12.875
81744SOL    HW147129   4.356   7.249  12.840
81744SOL    HW247130   4.435   7.269  12.967
81745SOL     OW47131  14.668  13.180   5.948
81745SOL    HW147132  14.591  13.174   5.892
81745SOL    HW247133  14.728  13.114   5.914
81746SOL     OW47134   5.651   5.836   6.005
81746SOL    HW147135   5.647   5.931   6.014
81746SOL    HW247136   5.738   5.819   5.968
81747SOL     OW47137   4.756   9.146   9.479
81747SOL    HW147138   4.748   9.077   9.545
81747SOL    HW247139   4.848   9.143   9.451
81748SOL     OW47140  11.052   3.117   0.938
81748SOL    HW147141  11.097   3.088   0.858
81748SOL    HW247142  10.983   3.052   0.952
81749SOL     OW47143   1.087  12.329   4.760
81749SOL    HW147144   1.044  12.246   4.738
81749SOL    HW247145   1.015  12.389   4.779
81750SOL     OW47146  10.339   6.895   7.517
81750SOL    HW147147  10.322   6.989   7.523
81750SOL    HW247148  10.377   6.872   7.602
81751SOL     OW47149  12.030   9.395  14.477
81751SOL    HW147150  12.063   9.456  14.412
81751SOL    HW247151  11.937   9.385  14.457
81752SOL     OW47152  13.563   2.877   5.757
81752SOL    HW147153  13.573   2.857   5.663
81752SOL    HW247154  13.557   2.972   5.761
81753SOL     OW47155  12.025   6.552   4.306
81753SOL    HW147156  11.943   6.543   4.355
81753SOL    HW247157  12.065   6.631   4.342
81754SOL     OW47158  10.339  11.341  12.537
81754SOL    HW147159  10.412  11.365  12.594
81754SOL    HW247160  10.310  11.424  12.499
81755SOL     OW47161   4.370   1.289  12.120
81755SOL    HW147162   4.436   1.305  12.187
81755SOL    HW247163   4.287   1.288  12.167
81756SOL     OW47164  11.316   1.373  10.785
81756SOL    HW147165  11.279   1.425  10.857
81756SOL    HW247166  11.411   1.377  10.799
81757SOL     OW47167   3.025   9.754  12.786
81757SOL    HW147168   2.934   9.769  12.758
81757SOL    HW247169   3.025   9.780  12.878
81758SOL     OW47170  14.632  13.826   8.851
81758SOL    HW147171  14.683  13.750   8.821
81758SOL    HW247172  14.575  13.791   8.920
81759SOL     OW47173   0.324   2.838  11.359
81759SOL    HW147174   0.290   2.822  11.272
81759SOL    HW247175   0.409   2.880  11.345
81760SOL     OW47176   8.351   3.342   1.867
81760SOL    HW147177   8.344   3.259   1.822
81760SOL    HW247178   8.392   3.401   1.804
81761SOL     OW47179   1.689  14.229   1.977
81761SOL    HW147180   1.777  14.192   1.988
81761SOL    HW247181   1.632  14.152   1.967
81762SOL     OW47182   0.021  11.073   1.036
81762SOL    HW147183   0.039  10.999   0.978
81762SOL    HW247184  14.815  11.106   1.008
81763SOL     OW47185  13.109  13.325   7.825
81763SOL    HW147186  13.184  13.356   7.876
81763SOL    HW247187  13.033  13.364   7.868
81764SOL     OW47188   6.837  12.012   8.482
81764SOL    HW147189   6.836  12.054   8.568
81764SOL    HW247190   6.916  12.046   8.440
81765SOL     OW47191  14.152   4.479   9.644
81765SOL    HW147192  14.144   4.471   9.549
81765SOL    HW247193  14.162   4.573   9.660
81766SOL     OW47194   7.612   3.125  12.377
81766SOL    HW147195   7.537   3.147  12.321
81766SOL    HW247196   7.581   3.053  12.432
81767SOL     OW47197  10.188   8.454  13.329
81767SOL    HW147198  10.238   8.411  13.399
81767SOL    HW247199  10.097   8.443  13.354
81768SOL     OW47200  14.205   4.736   9.746
81768SOL    HW147201  14.150   4.814   9.741
81768SOL    HW247202  14.245   4.741   9.833
81769SOL     OW47203   3.731   9.511   4.167
81769SOL    HW147204   3.724   9.554   4.082
81769SOL    HW247205   3.715   9.581   4.231
81770SOL     OW47206  11.754   6.653   2.437
81770SOL    HW147207  11.681   6.715   2.435
81770SOL    HW247208  11.744   6.602   2.356
81771SOL     OW47209  10.175  14.305  13.685
81771SOL    HW147210  10.214  14.225  13.720
81771SOL    HW247211  10.243  14.343  13.629
81772SOL     OW47212   7.839   6.288   4.969
81772SOL    HW147213   7.834   6.384   4.965
81772SOL    HW247214   7.907   6.265   4.907
81773SOL     OW47215  13.650  11.730   9.758
81773SOL    HW147216  13.712  11.698   9.693
81773SOL    HW247217  13.608  11.805   9.717
81774SOL     OW47218  10.895  10.080   7.026
81774SOL    HW147219  10.935  10.008   7.076
81774SOL    HW247220  10.966  10.142   7.012
81775SOL     OW47221  12.182  14.217   8.029
81775SOL    HW147222  12.245  14.288   8.017
81775SOL    HW247223  12.213  14.169   8.106
81776SOL     OW47224   6.107   2.278   9.130
81776SOL    HW147225   6.138   2.314   9.213
81776SOL    HW247226   6.065   2.352   9.086
81777SOL     OW47227   9.632   6.828  11.461
81777SOL    HW147228   9.611   6.810  11.552
81777SOL    HW247229   9.705   6.769  11.441
81778SOL     OW47230   3.051  12.314   7.933
81778SOL    HW147231   3.146  12.306   7.927
81778SOL    HW247232   3.020  12.315   7.843
81779SOL     OW47233   7.982  11.108   9.228
81779SOL    HW147234   8.036  11.087   9.152
81779SOL    HW247235   7.976  11.203   9.229
81780SOL     OW47236   1.798   6.332   5.520
81780SOL    HW147237   1.815   6.397   5.453
81780SOL    HW247238   1.747   6.378   5.587
81781SOL     OW47239  10.642   9.874  13.540
81781SOL    HW147240  10.645   9.878  13.444
81781SOL    HW247241  10.570   9.813  13.559
81782SOL     OW47242  12.518   9.366  12.669
81782SOL    HW147243  12.567   9.428  12.614
81782SOL    HW247244  12.428   9.372  12.637
81783SOL     OW47245   9.383   2.126  10.696
81783SOL    HW147246   9.459   2.091  10.743
81783SOL    HW247247   9.359   2.205  10.746
81784SOL     OW47248  10.104   9.632   5.086
81784SOL    HW147249  10.150   9.716   5.089
81784SOL    HW247250  10.027   9.649   5.031
81785SOL     OW47251   5.870   9.854   3.730
81785SOL    HW147252   5.901   9.772   3.768
81785SOL    HW247253   5.817   9.826   3.655
81786SOL     OW47254   2.687  10.386   0.437
81786SOL    HW147255   2.670  10.411   0.346
81786SOL    HW247256   2.609  10.416   0.484
81787SOL     OW47257   8.160   4.553   1.449
81787SOL    HW147258   8.083   4.515   1.491
81787SOL    HW247259   8.171   4.638   1.492
81788SOL     OW47260   1.392   1.555  13.979
81788SOL    HW147261   1.445   1.509  13.915
81788SOL    HW247262   1.394   1.499  14.057
81789SOL     OW47263  11.572  14.402   4.116
81789SOL    HW147264  11.644  14.340   4.132
81789SOL    HW247265  11.554  14.440   4.202
81790SOL     OW47266   4.600   8.505  13.378
81790SOL    HW147267   4.607   8.574  13.313
81790SOL    HW247268   4.690   8.493  13.410
81791SOL     OW47269   4.214  10.514  10.004
81791SOL    HW147270   4.203  10.489   9.912
81791SOL    HW247271   4.167  10.597  10.012
81792SOL     OW47272  10.972   6.538   3.010
81792SOL    HW147273  10.949   6.625   2.978
81792SOL    HW247274  10.904   6.481   2.974
81793SOL     OW47275   1.608   0.667   1.942
81793SOL    HW147276   1.543   0.634   2.004
81793SOL    HW247277   1.680   0.698   1.998
81794SOL     OW47278   7.282   3.421   8.932
81794SOL    HW147279   7.345   3.453   8.867
81794SOL    HW247280   7.336   3.378   8.998
81795SOL     OW47281  11.104   8.611   8.096
81795SOL    HW147282  11.033   8.586   8.037
81795SOL    HW247283  11.183   8.577   8.055
81796SOL     OW47284  12.297   0.616   3.750
81796SOL    HW147285  12.344   0.627   3.833
81796SOL    HW247286  12.216   0.572   3.773
81797SOL     OW47287   8.574   6.116  11.097
81797SOL    HW147288   8.500   6.056  11.091
81797SOL    HW247289   8.646   6.069  11.053
81798SOL     OW47290  11.488   5.291   1.368
81798SOL    HW147291  11.493   5.307   1.462
81798SOL    HW247292  11.394   5.289   1.349
81799SOL     OW47293   1.463  14.034   3.218
81799SOL    HW147294   1.518  13.967   3.260
81799SOL    HW247295   1.447  14.000   3.130
81800SOL     OW47296   9.975   8.591   2.528
81800SOL    HW147297   9.969   8.686   2.538
81800SOL    HW247298  10.053   8.577   2.475
81801SOL     OW47299   2.425   5.929   5.519
81801SOL    HW147300   2.358   5.890   5.463
81801SOL    HW247301   2.404   6.022   5.521
81802SOL     OW47302  13.809   4.752   9.524
81802SOL    HW147303  13.775   4.693   9.593
81802SOL    HW247304  13.777   4.838   9.550
81803SOL     OW47305  12.707   9.596  14.782
81803SOL    HW147306  12.736   9.563  14.697
81803SOL    HW247307  12.612   9.586  14.781
81804SOL     OW47308  11.041   6.382  10.730
81804SOL    HW147309  11.021   6.292  10.706
81804SOL    HW247310  11.014   6.390  10.821
81805SOL     OW47311   3.341  11.797  13.697
81805SOL    HW147312   3.384  11.880  13.719
81805SOL    HW247313   3.382  11.733  13.755
81806SOL     OW47314   4.755  14.875   9.785
81806SOL    HW147315   4.662   0.011   9.800
81806SOL    HW247316   4.799   0.074   9.817
81807SOL     OW47317   1.520   9.865  10.901
81807SOL    HW147318   1.577   9.857  10.824
81807SOL    HW247319   1.579   9.852  10.975
81808SOL     OW47320   4.944  13.551   6.284
81808SOL    HW147321   4.902  13.561   6.370
81808SOL    HW247322   4.890  13.488   6.238
81809SOL     OW47323   9.845  14.521   4.942
81809SOL    HW147324   9.768  14.537   4.997
81809SOL    HW247325   9.822  14.559   4.857
81810SOL     OW47326   7.812  14.681   4.744
81810SOL    HW147327   7.858  14.743   4.688
81810SOL    HW247328   7.721  14.711   4.742
81811SOL     OW47329   5.748  12.351   5.244
81811SOL    HW147330   5.659  12.317   5.253
81811SOL    HW247331   5.742  12.441   5.275
81812SOL     OW47332   8.249   6.439   0.685
81812SOL    HW147333   8.246   6.518   0.740
81812SOL    HW247334   8.290   6.373   0.740
81813SOL     OW47335  10.771   3.436  12.792
81813SOL    HW147336  10.706   3.482  12.844
81813SOL    HW247337  10.767   3.478  12.706
81814SOL     OW47338   5.981  10.280   7.821
81814SOL    HW147339   5.916  10.278   7.891
81814SOL    HW247340   5.987  10.372   7.796
81815SOL     OW47341   7.066   4.795   7.097
81815SOL    HW147342   7.041   4.833   7.013
81815SOL    HW247343   7.132   4.855   7.132
81816SOL     OW47344   8.026  10.580   4.613
81816SOL    HW147345   8.103  10.636   4.617
81816SOL    HW247346   7.974  10.606   4.690
81817SOL     OW47347   0.482   2.820   6.556
81817SOL    HW147348   0.476   2.916   6.552
81817SOL    HW247349   0.397   2.792   6.588
81818SOL     OW47350   7.224   5.086   2.855
81818SOL    HW147351   7.153   5.141   2.823
81818SOL    HW247352   7.182   5.029   2.919
81819SOL     OW47353  10.472   5.914  11.725
81819SOL    HW147354  10.516   5.925  11.641
81819SOL    HW247355  10.515   5.977  11.783
81820SOL     OW47356   8.014  10.598   9.133
81820SOL    HW147357   8.025  10.544   9.211
81820SOL    HW247358   7.936  10.651   9.151
81821SOL     OW47359   8.490   7.242  11.033
81821SOL    HW147360   8.524   7.305  11.095
81821SOL    HW247361   8.566   7.194  11.002
81822SOL     OW47362   3.111  11.263   7.752
81822SOL    HW147363   3.178  11.215   7.705
81822SOL    HW247364   3.129  11.355   7.731
81823SOL     OW47365   7.023  13.155  13.140
81823SOL    HW147366   7.023  13.059  13.143
81823SOL    HW247367   6.932  13.180  13.159
81824SOL     OW47368   2.164   1.774   0.902
81824SOL    HW147369   2.233   1.805   0.844
81824SOL    HW247370   2.083   1.809   0.864
81825SOL     OW47371   1.616   7.174   6.578
81825SOL    HW147372   1.634   7.268   6.573
81825SOL    HW247373   1.548   7.160   6.512
81826SOL     OW47374   4.314   9.243  13.893
81826SOL    HW147375   4.265   9.292  13.958
81826SOL    HW247376   4.257   9.241  13.816
81827SOL     OW47377  13.316   1.651   5.477
81827SOL    HW147378  13.308   1.557   5.463
81827SOL    HW247379  13.237   1.675   5.525
81828SOL     OW47380  14.765  10.540  10.737
81828SOL    HW147381  14.788  10.448  10.728
81828SOL    HW247382  14.804  10.566  10.821
81829SOL     OW47383  11.231   2.598   7.236
81829SOL    HW147384  11.315   2.620   7.196
81829SOL    HW247385  11.246   2.511   7.274
81830SOL     OW47386   5.982   2.482   2.353
81830SOL    HW147387   6.001   2.563   2.400
81830SOL    HW247388   5.935   2.427   2.416
81831SOL     OW47389  12.912   3.655  14.226
81831SOL    HW147390  12.825   3.669  14.189
81831SOL    HW247391  12.897   3.607  14.307
81832SOL     OW47392   6.549   6.713  14.738
81832SOL    HW147393   6.529   6.641  14.680
81832SOL    HW247394   6.508   6.789  14.697
81833SOL     OW47395   5.233   4.972   8.659
81833SOL    HW147396   5.199   4.911   8.594
81833SOL    HW247397   5.222   5.058   8.620
81834SOL     OW47398  10.191   1.391   9.194
81834SOL    HW147399  10.108   1.361   9.156
81834SOL    HW247400  10.253   1.386   9.122
81835SOL     OW47401   5.003   7.108  11.779
81835SOL    HW147402   4.975   7.045  11.845
81835SOL    HW247403   5.099   7.101  11.777
81836SOL     OW47404  12.252  12.490   3.781
81836SOL    HW147405  12.307  12.515   3.855
81836SOL    HW247406  12.277  12.549   3.710
81837SOL     OW47407   8.920  10.652  14.540
81837SOL    HW147408   8.891  10.727  14.593
81837SOL    HW247409   8.882  10.576  14.583
81838SOL     OW47410   3.277  14.760  11.072
81838SOL    HW147411   3.222  14.683  11.081
81838SOL    HW247412   3.274  14.803  11.157
81839SOL     OW47413   0.081   4.916  10.525
81839SOL    HW147414  14.866   4.933  10.517
81839SOL    HW247415   0.121   4.969  10.457
81840SOL     OW47416   5.683  11.298  13.057
81840SOL    HW147417   5.638  11.362  13.003
81840SOL    HW247418   5.772  11.294  13.021
81841SOL     OW47419   1.393   4.107   5.263
81841SOL    HW147420   1.368   4.021   5.230
81841SOL    HW247421   1.333   4.124   5.335
81842SOL     OW47422  11.235   0.754  11.825
81842SOL    HW147423  11.155   0.707  11.847
81842SOL    HW247424  11.223   0.779  11.733
81843SOL     OW47425   7.899   7.980   0.163
81843SOL    HW147426   7.944   8.010   0.241
81843SOL    HW247427   7.963   7.924   0.118
81844SOL     OW47428   6.652   4.325   6.273
81844SOL    HW147429   6.717   4.262   6.303
81844SOL    HW247430   6.697   4.377   6.206
81845SOL     OW47431  11.966  13.571   2.491
81845SOL    HW147432  11.912  13.529   2.558
81845SOL    HW247433  11.971  13.662   2.518
81846SOL     OW47434  10.293  12.546  13.524
81846SOL    HW147435  10.379  12.546  13.481
81846SOL    HW247436  10.293  12.467  13.578
81847SOL     OW47437   0.833  10.715   6.900
81847SOL    HW147438   0.849  10.784   6.836
81847SOL    HW247439   0.775  10.755   6.965
81848SOL     OW47440   4.352   0.614   3.264
81848SOL    HW147441   4.259   0.636   3.271
81848SOL    HW247442   4.370   0.562   3.343
81849SOL     OW47443   9.120   9.660   9.780
81849SOL    HW147444   9.044   9.715   9.759
81849SOL    HW247445   9.119   9.591   9.713
81850SOL     OW47446   7.058  11.376  11.600
81850SOL    HW147447   7.084  11.288  11.628
81850SOL    HW247448   7.004  11.409  11.672
81851SOL     OW47449   8.799   2.605   6.963
81851SOL    HW147450   8.804   2.696   6.990
81851SOL    HW247451   8.812   2.555   7.043
81852SOL     OW47452  12.135   4.664   2.833
81852SOL    HW147453  12.092   4.640   2.915
81852SOL    HW247454  12.163   4.580   2.796
81853SOL     OW47455  11.080  11.507   2.460
81853SOL    HW147456  11.133  11.582   2.487
81853SOL    HW247457  10.990  11.540   2.463
81854SOL     OW47458   4.520  11.222   0.134
81854SOL    HW147459   4.482  11.200   0.219
81854SOL    HW247460   4.542  11.315   0.141
81855SOL     OW47461   9.165  10.780  10.824
81855SOL    HW147462   9.251  10.803  10.860
81855SOL    HW247463   9.166  10.685  10.817
81856SOL     OW47464   3.782   3.379   7.828
81856SOL    HW147465   3.760   3.395   7.737
81856SOL    HW247466   3.700   3.353   7.869
81857SOL     OW47467  14.063  12.085   5.627
81857SOL    HW147468  14.066  12.009   5.685
81857SOL    HW247469  14.081  12.160   5.685
81858SOL     OW47470   5.178   2.259   8.777
81858SOL    HW147471   5.089   2.294   8.772
81858SOL    HW247472   5.170   2.182   8.832
81859SOL     OW47473   8.254   2.188  14.319
81859SOL    HW147474   8.295   2.239  14.249
81859SOL    HW247475   8.196   2.250  14.364
81860SOL     OW47476   8.931   6.154   1.961
81860SOL    HW147477   8.961   6.217   2.026
81860SOL    HW247478   8.954   6.193   1.877
81861SOL     OW47479   8.730  12.529   4.636
81861SOL    HW147480   8.699  12.587   4.567
81861SOL    HW247481   8.743  12.444   4.593
81862SOL     OW47482   9.620   9.173   0.927
81862SOL    HW147483   9.703   9.125   0.932
81862SOL    HW247484   9.645   9.265   0.933
81863SOL     OW47485   9.357   3.320   3.928
81863SOL    HW147486   9.277   3.358   3.891
81863SOL    HW247487   9.393   3.390   3.983
81864SOL     OW47488   1.942   9.541   3.277
81864SOL    HW147489   1.852   9.559   3.304
81864SOL    HW247490   1.996   9.598   3.331
81865SOL     OW47491  11.816  13.790   3.774
81865SOL    HW147492  11.843  13.799   3.683
81865SOL    HW247493  11.736  13.738   3.771
81866SOL     OW47494   5.312  12.840  13.653
81866SOL    HW147495   5.396  12.877  13.681
81866SOL    HW247496   5.300  12.763  13.709
81867SOL     OW47497  13.981  11.334   5.940
81867SOL    HW147498  13.914  11.298   5.881
81867SOL    HW247499  13.970  11.285   6.021
81868SOL     OW47500   4.348  13.025  14.517
81868SOL    HW147501   4.273  13.069  14.558
81868SOL    HW247502   4.373  12.957  14.579
81869SOL     OW47503  14.710   9.693  11.946
81869SOL    HW147504  14.720   9.786  11.965
81869SOL    HW247505  14.696   9.689  11.851
81870SOL     OW47506  12.954  10.305   9.351
81870SOL    HW147507  12.875  10.251   9.350
81870SOL    HW247508  13.021  10.251   9.393
81871SOL     OW47509   7.789   5.622   9.905
81871SOL    HW147510   7.783   5.708   9.864
81871SOL    HW247511   7.712   5.618   9.963
81872SOL     OW47512   4.760   7.432   9.960
81872SOL    HW147513   4.822   7.376  10.008
81872SOL    HW247514   4.706   7.472  10.028
81873SOL     OW47515  13.583  10.262   5.673
81873SOL    HW147516  13.638  10.340   5.688
81873SOL    HW247517  13.548  10.240   5.759
81874SOL     OW47518   7.405  10.035   4.293
81874SOL    HW147519   7.394  10.119   4.248
81874SOL    HW247520   7.403  10.057   4.386
81875SOL     OW47521  14.825   7.270   3.555
81875SOL    HW147522   0.006   7.343   3.565
81875SOL    HW247523   0.002   7.194   3.541
81876SOL     OW47524  14.401   8.892   5.100
81876SOL    HW147525  14.424   8.901   5.192
81876SOL    HW247526  14.470   8.836   5.064
81877SOL     OW47527   3.708   0.139  13.382
81877SOL    HW147528   3.725   0.172  13.470
81877SOL    HW247529   3.725   0.045  13.389
81878SOL     OW47530   9.184   1.199  10.694
81878SOL    HW147531   9.268   1.190  10.648
81878SOL    HW247532   9.194   1.146  10.772
81879SOL     OW47533   6.589  12.139  11.508
81879SOL    HW147534   6.500  12.143  11.473
81879SOL    HW247535   6.623  12.228  11.498
81880SOL     OW47536  11.330   9.428  12.874
81880SOL    HW147537  11.318   9.479  12.794
81880SOL    HW247538  11.294   9.342  12.853
81881SOL     OW47539   1.633  11.838   8.407
81881SOL    HW147540   1.629  11.758   8.459
81881SOL    HW247541   1.552  11.884   8.429
81882SOL     OW47542   9.920  10.916  11.936
81882SOL    HW147543   9.987  10.952  11.879
81882SOL    HW247544   9.969  10.873  12.006
81883SOL     OW47545   2.825   5.585   7.020
81883SOL    HW147546   2.862   5.568   6.933
81883SOL    HW247547   2.777   5.667   7.010
81884SOL     OW47548   9.041  12.815   7.066
81884SOL    HW147549   8.949  12.792   7.053
81884SOL    HW247550   9.052  12.814   7.161
81885SOL     OW47551  14.757   0.280   0.953
81885SOL    HW147552  14.783   0.323   0.872
81885SOL    HW247553  14.720   0.350   1.007
81886SOL     OW47554   8.755   4.402   0.549
81886SOL    HW147555   8.777   4.493   0.527
81886SOL    HW247556   8.740   4.403   0.643
81887SOL     OW47557   6.006  13.026   9.916
81887SOL    HW147558   6.062  13.086   9.965
81887SOL    HW247559   5.966  12.971   9.983
81888SOL     OW47560   9.957   4.201   7.104
81888SOL    HW147561  10.000   4.237   7.181
81888SOL    HW247562   9.864   4.209   7.122
81889SOL     OW47563   3.496   8.177  10.486
81889SOL    HW147564   3.436   8.114  10.447
81889SOL    HW247565   3.445   8.257  10.497
81890SOL     OW47566  10.308   0.672   7.442
81890SOL    HW147567  10.265   0.722   7.512
81890SOL    HW247568  10.400   0.668   7.469
81891SOL     OW47569   1.126   2.743   2.597
81891SOL    HW147570   1.194   2.808   2.581
81891SOL    HW247571   1.053   2.794   2.633
81892SOL     OW47572  10.288   0.702   3.792
81892SOL    HW147573  10.239   0.657   3.861
81892SOL    HW247574  10.328   0.777   3.836
81893SOL     OW47575  10.434  11.289   7.584
81893SOL    HW147576  10.424  11.380   7.612
81893SOL    HW247577  10.480  11.246   7.656
81894SOL     OW47578  11.047   7.602   9.077
81894SOL    HW147579  11.084   7.532   9.131
81894SOL    HW247580  10.992   7.557   9.012
81895SOL     OW47581   6.726  11.866   1.791
81895SOL    HW147582   6.653  11.928   1.793
81895SOL    HW247583   6.729  11.830   1.880
81896SOL     OW47584   3.880  12.010   8.150
81896SOL    HW147585   3.813  12.077   8.137
81896SOL    HW247586   3.925  12.004   8.066
81897SOL     OW47587   2.489   1.854   4.405
81897SOL    HW147588   2.535   1.930   4.442
81897SOL    HW247589   2.412   1.843   4.462
81898SOL     OW47590   1.215   1.103   1.371
81898SOL    HW147591   1.190   1.016   1.340
81898SOL    HW247592   1.161   1.117   1.449
81899SOL     OW47593   9.955   7.140   3.388
81899SOL    HW147594  10.012   7.078   3.434
81899SOL    HW247595   9.986   7.227   3.416
81900SOL     OW47596   2.916   5.628  11.778
81900SOL    HW147597   2.885   5.576  11.703
81900SOL    HW247598   2.866   5.710  11.772
81901SOL     OW47599   0.837   1.254   4.877
81901SOL    HW147600   0.819   1.161   4.892
81901SOL    HW247601   0.835   1.294   4.964
81902SOL     OW47602   2.211   7.628   5.607
81902SOL    HW147603   2.120   7.638   5.637
81902SOL    HW247604   2.204   7.569   5.532
81903SOL     OW47605   3.686   5.849  13.149
81903SOL    HW147606   3.628   5.902  13.094
81903SOL    HW247607   3.629   5.810  13.214
81904SOL     OW47608   3.398  10.888   3.481
81904SOL    HW147609   3.470  10.905   3.542
81904SOL    HW247610   3.423  10.934   3.401
81905SOL     OW47611  12.662  11.018   1.015
81905SOL    HW147612  12.667  11.024   1.111
81905SOL    HW247613  12.745  10.976   0.990
81906SOL     OW47614  12.911   0.652   0.980
81906SOL    HW147615  12.867   0.647   0.895
81906SOL    HW247616  12.962   0.733   0.976
81907SOL     OW47617  11.656   2.811   2.471
81907SOL    HW147618  11.565   2.832   2.449
81907SOL    HW247619  11.657   2.716   2.481
81908SOL     OW47620   4.245  11.033  12.355
81908SOL    HW147621   4.160  11.047  12.395
81908SOL    HW247622   4.226  10.993  12.271
81909SOL     OW47623  12.096  12.402   7.881
81909SOL    HW147624  12.016  12.373   7.926
81909SOL    HW247625  12.075  12.489   7.849
81910SOL     OW47626  13.598  11.015   9.824
81910SOL    HW147627  13.586  10.995   9.731
81910SOL    HW247628  13.614  10.931   9.865
81911SOL     OW47629   9.319   2.214   8.818
81911SOL    HW147630   9.397   2.264   8.839
81911SOL    HW247631   9.331   2.130   8.863
81912SOL     OW47632   7.968  12.159   2.754
81912SOL    HW147633   8.035  12.179   2.689
81912SOL    HW247634   7.979  12.226   2.822
81913SOL     OW47635   7.196   4.668  12.586
81913SOL    HW147636   7.182   4.706  12.673
81913SOL    HW247637   7.109   4.642  12.557
81914SOL     OW47638   1.155   9.563  14.424
81914SOL    HW147639   1.106   9.632  14.469
81914SOL    HW247640   1.181   9.602  14.341
81915SOL     OW47641   9.677  10.775   1.248
81915SOL    HW147642   9.768  10.779   1.218
81915SOL    HW247643   9.683  10.785   1.343
81916SOL     OW47644   6.343   1.466   1.662
81916SOL    HW147645   6.267   1.517   1.633
81916SOL    HW247646   6.309   1.378   1.675
81917SOL     OW47647  12.985  13.369   8.961
81917SOL    HW147648  12.910  13.408   8.916
81917SOL    HW247649  13.046  13.442   8.971
81918SOL     OW47650   4.858  13.860  14.165
81918SOL    HW147651   4.816  13.884  14.247
81918SOL    HW247652   4.821  13.775  14.143
81919SOL     OW47653   5.381   9.495   2.963
81919SOL    HW147654   5.387   9.401   2.981
81919SOL    HW247655   5.294   9.506   2.924
81920SOL     OW47656   9.540   9.264   6.022
81920SOL    HW147657   9.452   9.262   6.060
81920SOL    HW247658   9.541   9.191   5.960
81921SOL     OW47659   2.854   6.146   9.721
81921SOL    HW147660   2.809   6.078   9.671
81921SOL    HW247661   2.850   6.223   9.665
81922SOL     OW47662   2.785   8.990   9.465
81922SOL    HW147663   2.785   8.904   9.424
81922SOL    HW247664   2.860   9.035   9.425
81923SOL     OW47665   6.675  14.370  10.044
81923SOL    HW147666   6.725  14.417   9.977
81923SOL    HW247667   6.724  14.387  10.125
81924SOL     OW47668  11.490   5.029   6.813
81924SOL    HW147669  11.540   4.975   6.753
81924SOL    HW247670  11.398   5.014   6.789
81925SOL     OW47671  12.332   8.754   5.578
81925SOL    HW147672  12.326   8.736   5.484
81925SOL    HW247673  12.343   8.668   5.618
81926SOL     OW47674  13.492   7.989   2.224
81926SOL    HW147675  13.478   8.006   2.131
81926SOL    HW247676  13.587   7.978   2.232
81927SOL     OW47677   7.553   2.538  10.826
81927SOL    HW147678   7.523   2.496  10.745
81927SOL    HW247679   7.483   2.522  10.889
81928SOL     OW47680   5.935   3.394  10.274
81928SOL    HW147681   5.898   3.400  10.186
81928SOL    HW247682   6.003   3.462  10.276
81929SOL     OW47683   5.306   7.158   3.466
81929SOL    HW147684   5.327   7.065   3.476
81929SOL    HW247685   5.314   7.195   3.554
81930SOL     OW47686   8.536   0.506   1.313
81930SOL    HW147687   8.595   0.485   1.386
81930SOL    HW247688   8.521   0.422   1.271
81931SOL     OW47689   7.079   8.829   2.237
81931SOL    HW147690   7.175   8.824   2.234
81931SOL    HW247691   7.055   8.795   2.323
81932SOL     OW47692  14.803   5.452  12.758
81932SOL    HW147693  14.809   5.488  12.669
81932SOL    HW247694  14.765   5.366  12.747
81933SOL     OW47695   3.458   3.033  11.278
81933SOL    HW147696   3.433   2.957  11.227
81933SOL    HW247697   3.553   3.032  11.277
81934SOL     OW47698   2.565  12.797   1.530
81934SOL    HW147699   2.596  12.880   1.492
81934SOL    HW247700   2.635  12.770   1.589
81935SOL     OW47701   6.061   6.956  13.650
81935SOL    HW147702   6.081   6.902  13.573
81935SOL    HW247703   6.132   7.021  13.653
81936SOL     OW47704  14.128   9.359  14.006
81936SOL    HW147705  14.175   9.311  14.074
81936SOL    HW247706  14.196   9.411  13.963
81937SOL     OW47707   7.060  14.235  10.160
81937SOL    HW147708   7.046  14.195  10.074
81937SOL    HW247709   6.980  14.285  10.177
81938SOL     OW47710   4.570   0.566   2.322
81938SOL    HW147711   4.581   0.586   2.415
81938SOL    HW247712   4.535   0.477   2.321
81939SOL     OW47713  12.804   2.107  13.271
81939SOL    HW147714  12.886   2.061  13.288
81939SOL    HW247715  12.743   2.038  13.244
81940SOL     OW47716  11.114   8.974  10.253
81940SOL    HW147717  11.098   9.025  10.174
81940SOL    HW247718  11.053   8.900  10.246
81941SOL     OW47719   1.659   0.681   0.497
81941SOL    HW147720   1.725   0.747   0.521
81941SOL    HW247721   1.653   0.624   0.574
81942SOL     OW47722  11.794  13.399   6.664
81942SOL    HW147723  11.884  13.367   6.667
81942SOL    HW247724  11.741  13.325   6.695
81943SOL     OW47725   1.964   7.083  14.422
81943SOL    HW147726   1.892   7.035  14.381
81943SOL    HW247727   1.921   7.149  14.477
81944SOL     OW47728   6.438  11.542   5.861
81944SOL    HW147729   6.430  11.482   5.935
81944SOL    HW247730   6.458  11.627   5.901
81945SOL     OW47731   9.238   2.489   7.317
81945SOL    HW147732   9.275   2.410   7.279
81945SOL    HW247733   9.238   2.472   7.411
81946SOL     OW47734   9.424   4.046  13.398
81946SOL    HW147735   9.385   4.000  13.473
81946SOL    HW247736   9.400   4.137  13.412
81947SOL     OW47737   5.248   8.122  13.053
81947SOL    HW147738   5.176   8.092  13.108
81947SOL    HW247739   5.276   8.204  13.094
81948SOL     OW47740   8.197   0.341   3.279
81948SOL    HW147741   8.190   0.261   3.227
81948SOL    HW247742   8.258   0.396   3.229
81949SOL     OW47743   1.317  13.232  12.646
81949SOL    HW147744   1.393  13.178  12.668
81949SOL    HW247745   1.353  13.319  12.632
81950SOL     OW47746   4.656   1.703  14.309
81950SOL    HW147747   4.714   1.708  14.233
81950SOL    HW247748   4.614   1.617  14.302
81951SOL     OW47749  13.918   6.814   8.042
81951SOL    HW147750  13.972   6.782   7.970
81951SOL    HW247751  13.828   6.809   8.009
81952SOL     OW47752  11.526   2.773   6.292
81952SOL    HW147753  11.432   2.789   6.297
81952SOL    HW247754  11.535   2.678   6.299
81953SOL     OW47755  14.702   4.612  11.034
81953SOL    HW147756  14.785   4.577  11.066
81953SOL    HW247757  14.635   4.561  11.080
81954SOL     OW47758   8.713  11.269  12.166
81954SOL    HW147759   8.679  11.330  12.101
81954SOL    HW247760   8.759  11.202  12.115
81955SOL     OW47761   8.658   0.267  13.248
81955SOL    HW147762   8.700   0.343  13.287
81955SOL    HW247763   8.621   0.299  13.165
81956SOL     OW47764   1.590  10.888  10.832
81956SOL    HW147765   1.636  10.814  10.872
81956SOL    HW247766   1.658  10.953  10.814
81957SOL     OW47767  14.286   5.924   6.509
81957SOL    HW147768  14.211   5.982   6.520
81957SOL    HW247769  14.295   5.915   6.414
81958SOL     OW47770  10.102  12.740   3.053
81958SOL    HW147771  10.069  12.830   3.046
81958SOL    HW247772  10.024  12.685   3.040
81959SOL     OW47773   0.031  13.243  11.065
81959SOL    HW147774   0.066  13.196  10.989
81959SOL    HW247775  14.874  13.174  11.120
81960SOL     OW47776  10.764   2.277   9.942
81960SOL    HW147777  10.710   2.355   9.957
81960SOL    HW247778  10.839   2.309   9.891
81961SOL     OW47779  10.801  10.918   5.023
81961SOL    HW147780  10.787  10.947   4.932
81961SOL    HW247781  10.878  10.967   5.052
81962SOL     OW47782   7.396   8.403   3.081
81962SOL    HW147783   7.380   8.469   3.014
81962SOL    HW247784   7.314   8.398   3.131
81963SOL     OW47785   8.200   2.786  13.192
81963SOL    HW147786   8.105   2.774  13.196
81963SOL    HW247787   8.220   2.797  13.099
81964SOL     OW47788  12.209  13.272   4.866
81964SOL    HW147789  12.146  13.296   4.797
81964SOL    HW247790  12.258  13.199   4.828
81965SOL     OW47791  10.565  11.886   9.351
81965SOL    HW147792  10.573  11.803   9.304
81965SOL    HW247793  10.483  11.879   9.399
81966SOL     OW47794   9.668   1.155   8.393
81966SOL    HW147795   9.748   1.154   8.446
81966SOL    HW247796   9.656   1.247   8.369
81967SOL     OW47797   8.665   3.462  10.169
81967SOL    HW147798   8.597   3.525  10.145
81967SOL    HW247799   8.709   3.442  10.087
81968SOL     OW47800   3.203  13.650   8.909
81968SOL    HW147801   3.205  13.608   8.823
81968SOL    HW247802   3.201  13.744   8.891
81969SOL     OW47803   0.561   4.185   8.177
81969SOL    HW147804   0.576   4.261   8.121
81969SOL    HW247805   0.526   4.221   8.258
81970SOL     OW47806   6.689   3.761  12.284
81970SOL    HW147807   6.781   3.772  12.260
81970SOL    HW247808   6.685   3.780  12.377
81971SOL     OW47809   7.092   5.208   3.587
81971SOL    HW147810   7.095   5.113   3.585
81971SOL    HW247811   7.170   5.236   3.539
81972SOL     OW47812   3.681   4.278   4.864
81972SOL    HW147813   3.725   4.204   4.906
81972SOL    HW247814   3.655   4.245   4.778
81973SOL     OW47815   9.366   0.099   1.942
81973SOL    HW147816   9.394   0.008   1.933
81973SOL    HW247817   9.284   0.095   1.991
81974SOL     OW47818   9.357  12.945   2.364
81974SOL    HW147819   9.304  12.878   2.321
81974SOL    HW247820   9.293  13.001   2.408
81975SOL     OW47821   0.045  10.957   3.579
81975SOL    HW147822  14.869  10.986   3.651
81975SOL    HW247823   0.005  10.874   3.550
81976SOL     OW47824   6.505  11.197   5.269
81976SOL    HW147825   6.444  11.199   5.196
81976SOL    HW247826   6.565  11.270   5.253
81977SOL     OW47827  14.270  11.758   0.813
81977SOL    HW147828  14.215  11.836   0.817
81977SOL    HW247829  14.359  11.791   0.823
81978SOL     OW47830   1.346  12.909   0.843
81978SOL    HW147831   1.266  12.961   0.857
81978SOL    HW247832   1.314  12.823   0.815
81979SOL     OW47833   7.526   4.572   2.490
81979SOL    HW147834   7.533   4.667   2.494
81979SOL    HW247835   7.440   4.553   2.529
81980SOL     OW47836  10.808  10.611  10.697
81980SOL    HW147837  10.755  10.686  10.722
81980SOL    HW247838  10.886  10.616  10.753
81981SOL     OW47839   5.803  13.801   1.901
81981SOL    HW147840   5.731  13.805   1.838
81981SOL    HW247841   5.874  13.851   1.861
81982SOL     OW47842   4.312   4.819   7.193
81982SOL    HW147843   4.268   4.741   7.227
81982SOL    HW247844   4.258   4.892   7.222
81983SOL     OW47845   1.392  13.627   6.114
81983SOL    HW147846   1.324  13.643   6.179
81983SOL    HW247847   1.392  13.706   6.060
81984SOL     OW47848   6.769  10.120   7.661
81984SOL    HW147849   6.681  10.089   7.640
81984SOL    HW247850   6.770  10.127   7.756
81985SOL     OW47851  10.458   4.984   3.387
81985SOL    HW147852  10.443   4.914   3.323
81985SOL    HW247853  10.525   5.039   3.347
81986SOL     OW47854   4.894   2.328   6.804
81986SOL    HW147855   4.888   2.236   6.827
81986SOL    HW247856   4.807   2.364   6.820
81987SOL     OW47857   4.304   3.145   5.128
81987SOL    HW147858   4.275   3.123   5.217
81987SOL    HW247859   4.306   3.240   5.126
81988SOL     OW47860   6.518  10.023   4.356
81988SOL    HW147861   6.467  10.094   4.393
81988SOL    HW247862   6.608  10.056   4.353
81989SOL     OW47863   2.580   6.753   5.688
81989SOL    HW147864   2.648   6.773   5.623
81989SOL    HW247865   2.619   6.776   5.772
81990SOL     OW47866  13.589   0.908  10.276
81990SOL    HW147867  13.601   0.813  10.280
81990SOL    HW247868  13.516   0.926  10.336
81991SOL     OW47869   4.486   9.758   4.830
81991SOL    HW147870   4.413   9.726   4.776
81991SOL    HW247871   4.514   9.682   4.881
81992SOL     OW47872   5.488   1.918   6.212
81992SOL    HW147873   5.459   1.883   6.296
81992SOL    HW247874   5.500   2.012   6.227
81993SOL     OW47875   9.337   7.529  12.545
81993SOL    HW147876   9.412   7.555  12.598
81993SOL    HW247877   9.263   7.532  12.606
81994SOL     OW47878  14.559  10.330   1.439
81994SOL    HW147879  14.500  10.255   1.439
81994SOL    HW247880  14.646  10.293   1.455
81995SOL     OW47881  11.506   1.738   8.371
81995SOL    HW147882  11.425   1.731   8.422
81995SOL    HW247883  11.575   1.735   8.437
81996SOL     OW47884   0.819  12.150  14.554
81996SOL    HW147885   0.891  12.098  14.519
81996SOL    HW247886   0.846  12.170  14.644
81997SOL     OW47887   9.533   2.786  10.472
81997SOL    HW147888   9.551   2.760  10.562
81997SOL    HW247889   9.444   2.757  10.456
81998SOL     OW47890   6.494   7.455   7.305
81998SOL    HW147891   6.552   7.508   7.251
81998SOL    HW247892   6.550   7.417   7.372
81999SOL     OW47893   3.051   3.347  13.063
81999SOL    HW147894   3.113   3.383  13.127
81999SOL    HW247895   2.969   3.393  13.081
82000SOL     OW47896   6.796   5.888   0.482
82000SOL    HW147897   6.885   5.864   0.457
82000SOL    HW247898   6.804   5.977   0.518
82001SOL     OW47899  14.830   3.561   9.154
82001SOL    HW147900   0.013   3.510   9.205
82001SOL    HW247901  14.799   3.629   9.215
82002SOL     OW47902   6.860   1.752  11.005
82002SOL    HW147903   6.843   1.683  11.070
82002SOL    HW247904   6.954   1.747  10.989
82003SOL     OW47905   2.767   7.790   7.415
82003SOL    HW147906   2.709   7.829   7.350
82003SOL    HW247907   2.707   7.749   7.478
82004SOL     OW47908   6.093  14.549  11.756
82004SOL    HW147909   6.054  14.552  11.669
82004SOL    HW247910   6.187  14.555  11.741
82005SOL     OW47911  12.191   6.219  13.744
82005SOL    HW147912  12.242   6.148  13.785
82005SOL    HW247913  12.247   6.252  13.674
82006SOL     OW47914   5.298   9.900   8.606
82006SOL    HW147915   5.333   9.861   8.526
82006SOL    HW247916   5.331   9.990   8.605
82007SOL     OW47917   3.554   6.943  11.687
82007SOL    HW147918   3.522   6.965  11.775
82007SOL    HW247919   3.503   6.866  11.662
82008SOL     OW47920  12.727   9.440   9.365
82008SOL    HW147921  12.645   9.475   9.401
82008SOL    HW247922  12.761   9.382   9.433
82009SOL     OW47923  14.429   9.193  14.148
82009SOL    HW147924  14.337   9.171  14.163
82009SOL    HW247925  14.441   9.182  14.054
82010SOL     OW47926   6.256   3.899   1.201
82010SOL    HW147927   6.301   3.973   1.242
82010SOL    HW247928   6.299   3.822   1.237
82011SOL     OW47929  11.786   8.963   0.288
82011SOL    HW147930  11.734   8.894   0.329
82011SOL    HW247931  11.764   8.959   0.195
82012SOL     OW47932   9.710   4.069   0.156
82012SOL    HW147933   9.770   3.998   0.178
82012SOL    HW247934   9.734   4.094   0.067
82013SOL     OW47935   1.955   3.832   3.114
82013SOL    HW147936   2.011   3.890   3.062
82013SOL    HW247937   1.866   3.855   3.088
82014SOL     OW47938  13.362  12.061   4.319
82014SOL    HW147939  13.367  12.153   4.343
82014SOL    HW247940  13.285  12.056   4.262
82015SOL     OW47941  13.836  14.406   7.402
82015SOL    HW147942  13.920  14.447   7.423
82015SOL    HW247943  13.859  14.327   7.354
82016SOL     OW47944   2.084   5.654   8.599
82016SOL    HW147945   2.092   5.616   8.686
82016SOL    HW247946   2.043   5.739   8.613
82017SOL     OW47947  10.838   4.543  10.488
82017SOL    HW147948  10.787   4.497  10.554
82017SOL    HW247949  10.927   4.547  10.524
82018SOL     OW47950   5.487   7.379   7.485
82018SOL    HW147951   5.542   7.452   7.457
82018SOL    HW247952   5.414   7.420   7.531
82019SOL     OW47953  12.829   6.332   5.886
82019SOL    HW147954  12.766   6.353   5.817
82019SOL    HW247955  12.818   6.238   5.900
82020SOL     OW47956   1.213   0.109  10.333
82020SOL    HW147957   1.229   0.198  10.364
82020SOL    HW247958   1.299   0.074  10.312
82021SOL     OW47959  11.365  11.728   5.193
82021SOL    HW147960  11.369  11.754   5.285
82021SOL    HW247961  11.324  11.642   5.194
82022SOL     OW47962  12.754   0.992   9.259
82022SOL    HW147963  12.696   0.924   9.292
82022SOL    HW247964  12.837   0.947   9.242
82023SOL     OW47965  11.312   2.246  12.460
82023SOL    HW147966  11.299   2.227  12.553
82023SOL    HW247967  11.281   2.336  12.450
82024SOL     OW47968  14.704  10.047   6.203
82024SOL    HW147969  14.617  10.015   6.178
82024SOL    HW247970  14.698  10.142   6.193
82025SOL     OW47971   3.399  10.126  14.013
82025SOL    HW147972   3.436  10.200  14.060
82025SOL    HW247973   3.406  10.053  14.074
82026SOL     OW47974  12.535  11.933  12.433
82026SOL    HW147975  12.556  11.880  12.510
82026SOL    HW247976  12.446  11.964  12.450
82027SOL     OW47977   3.204   7.539  12.331
82027SOL    HW147978   3.117   7.568  12.306
82027SOL    HW247979   3.191   7.493  12.414
82028SOL     OW47980  12.731   1.320   6.663
82028SOL    HW147981  12.650   1.269   6.671
82028SOL    HW247982  12.798   1.255   6.643
82029SOL     OW47983   3.735   8.415   7.529
82029SOL    HW147984   3.678   8.492   7.529
82029SOL    HW247985   3.708   8.365   7.607
82030SOL     OW47986  12.382   9.647  12.497
82030SOL    HW147987  12.370   9.666  12.590
82030SOL    HW247988  12.343   9.560  12.485
82031SOL     OW47989   4.507   3.011   1.361
82031SOL    HW147990   4.422   2.989   1.400
82031SOL    HW247991   4.486   3.040   1.272
82032SOL     OW47992   8.921   9.560   3.848
82032SOL    HW147993   8.976   9.489   3.882
82032SOL    HW247994   8.899   9.533   3.759
82033SOL     OW47995   6.580   0.539   3.262
82033SOL    HW147996   6.493   0.520   3.295
82033SOL    HW247997   6.603   0.624   3.301
82034SOL     OW47998   7.339   4.725   4.457
82034SOL    HW147999   7.385   4.641   4.459
82034SOL    HW248000   7.248   4.703   4.478
82035SOL     OW48001  10.576   4.117   3.365
82035SOL    HW148002  10.544   4.193   3.413
82035SOL    HW248003  10.631   4.154   3.295
82036SOL     OW48004   8.030   7.364  12.710
82036SOL    HW148005   8.091   7.376  12.782
82036SOL    HW248006   7.978   7.287  12.734
82037SOL     OW48007   8.264   4.387  13.169
82037SOL    HW148008   8.199   4.318  13.160
82037SOL    HW248009   8.214   4.468  13.172
82038SOL     OW48010   7.896   6.464   9.686
82038SOL    HW148011   7.809   6.475   9.647
82038SOL    HW248012   7.952   6.438   9.612
82039SOL     OW48013  10.846  14.392  11.086
82039SOL    HW148014  10.888  14.334  11.022
82039SOL    HW248015  10.916  14.449  11.117
82040SOL     OW48016   1.047   2.535  14.389
82040SOL    HW148017   1.123   2.492  14.351
82040SOL    HW248018   1.082   2.593  14.456
82041SOL     OW48019   8.355   1.626   5.786
82041SOL    HW148020   8.286   1.649   5.848
82041SOL    HW248021   8.436   1.648   5.833
82042SOL     OW48022  12.615   3.430   0.165
82042SOL    HW148023  12.591   3.339   0.147
82042SOL    HW248024  12.645   3.464   0.081
82043SOL     OW48025  14.426  13.581   1.385
82043SOL    HW148026  14.440  13.675   1.373
82043SOL    HW248027  14.342  13.575   1.431
82044SOL     OW48028  12.999   9.842   5.035
82044SOL    HW148029  13.022   9.928   5.069
82044SOL    HW248030  12.953   9.799   5.107
82045SOL     OW48031   2.621   0.036   5.957
82045SOL    HW148032   2.541   0.088   5.951
82045SOL    HW248033   2.605  14.840   5.901
82046SOL     OW48034  12.220   0.389   3.491
82046SOL    HW148035  12.298   0.353   3.533
82046SOL    HW248036  12.171   0.313   3.460
82047SOL     OW48037  12.225   5.812  14.021
82047SOL    HW148038  12.147   5.865  14.039
82047SOL    HW248039  12.243   5.827  13.928
82048SOL     OW48040   1.036  13.878   0.219
82048SOL    HW148041   1.026  13.814   0.149
82048SOL    HW248042   1.047  13.827   0.298
82049SOL     OW48043   0.646   7.479   9.592
82049SOL    HW148044   0.738   7.458   9.610
82049SOL    HW248045   0.645   7.575   9.585
82050SOL     OW48046   5.950  13.729   4.763
82050SOL    HW148047   5.969  13.680   4.683
82050SOL    HW248048   5.934  13.661   4.829
82051SOL     OW48049  10.306   7.581  14.602
82051SOL    HW148050  10.269   7.644  14.664
82051SOL    HW248051  10.351   7.635  14.537
82052SOL     OW48052   7.758   1.340   5.582
82052SOL    HW148053   7.763   1.300   5.495
82052SOL    HW248054   7.688   1.292   5.627
82053SOL     OW48055  10.694   6.512   3.516
82053SOL    HW148056  10.681   6.432   3.466
82053SOL    HW248057  10.621   6.513   3.578
82054SOL     OW48058  14.222   2.152   5.481
82054SOL    HW148059  14.151   2.181   5.538
82054SOL    HW248060  14.239   2.061   5.508
82055SOL     OW48061   9.472   3.126  11.593
82055SOL    HW148062   9.561   3.155  11.614
82055SOL    HW248063   9.445   3.181  11.519
82056SOL     OW48064  10.656  13.206   2.838
82056SOL    HW148065  10.659  13.114   2.866
82056SOL    HW248066  10.684  13.203   2.746
82057SOL     OW48067  12.571   2.052  10.851
82057SOL    HW148068  12.630   1.995  10.901
82057SOL    HW248069  12.608   2.053  10.762
82058SOL     OW48070   9.830   9.154   9.909
82058SOL    HW148071   9.851   9.232   9.960
82058SOL    HW248072   9.914   9.108   9.899
82059SOL     OW48073   9.372   5.371   9.040
82059SOL    HW148074   9.318   5.296   9.014
82059SOL    HW248075   9.460   5.333   9.053
82060SOL     OW48076   9.971   4.728  10.642
82060SOL    HW148077   9.998   4.640  10.665
82060SOL    HW248078   9.957   4.772  10.726
82061SOL     OW48079   1.307   3.245  12.998
82061SOL    HW148080   1.238   3.311  12.989
82061SOL    HW248081   1.296   3.188  12.922
82062SOL     OW48082  13.721   5.969   2.666
82062SOL    HW148083  13.682   6.056   2.668
82062SOL    HW248084  13.748   5.956   2.575
82063SOL     OW48085  13.561  11.222   1.086
82063SOL    HW148086  13.492  11.171   1.128
82063SOL    HW248087  13.614  11.256   1.158
82064SOL     OW48088  14.399   1.848  13.953
82064SOL    HW148089  14.324   1.790  13.968
82064SOL    HW248090  14.382   1.889  13.869
82065SOL     OW48091   7.988   9.522   1.861
82065SOL    HW148092   7.933   9.558   1.791
82065SOL    HW248093   8.047   9.461   1.816
82066SOL     OW48094  11.996   3.773   2.161
82066SOL    HW148095  12.044   3.740   2.085
82066SOL    HW248096  12.063   3.816   2.215
82067SOL     OW48097   8.876   1.710  14.171
82067SOL    HW148098   8.937   1.647  14.131
82067SOL    HW248099   8.903   1.713  14.263
82068SOL     OW48100   7.331  12.681   3.861
82068SOL    HW148101   7.273  12.606   3.873
82068SOL    HW248102   7.416  12.651   3.895
82069SOL     OW48103   6.110   7.382   9.498
82069SOL    HW148104   6.055   7.357   9.424
82069SOL    HW248105   6.198   7.384   9.462
82070SOL     OW48106   1.537   6.932   9.986
82070SOL    HW148107   1.492   6.877   9.922
82070SOL    HW248108   1.601   6.981   9.934
82071SOL     OW48109  10.556   2.055   8.263
82071SOL    HW148110  10.570   1.961   8.250
82071SOL    HW248111  10.623   2.081   8.326
82072SOL     OW48112   1.342   6.062   9.645
82072SOL    HW148113   1.315   6.104   9.563
82072SOL    HW248114   1.260   6.047   9.693
82073SOL     OW48115   8.301   9.028   3.687
82073SOL    HW148116   8.278   8.983   3.606
82073SOL    HW248117   8.219   9.065   3.718
82074SOL     OW48118   4.141  10.199   2.988
82074SOL    HW148119   4.155  10.178   3.080
82074SOL    HW248120   4.062  10.152   2.964
82075SOL     OW48121  10.124   8.691   6.619
82075SOL    HW148122  10.078   8.665   6.539
82075SOL    HW248123  10.181   8.616   6.639
82076SOL     OW48124  14.240   1.536   6.763
82076SOL    HW148125  14.314   1.548   6.824
82076SOL    HW248126  14.163   1.540   6.819
82077SOL     OW48127  13.255   6.118   3.533
82077SOL    HW148128  13.310   6.180   3.483
82077SOL    HW248129  13.295   6.117   3.620
82078SOL     OW48130  12.725  10.039   8.802
82078SOL    HW148131  12.682  10.120   8.830
82078SOL    HW248132  12.687  10.020   8.716
82079SOL     OW48133   3.626   6.532   5.494
82079SOL    HW148134   3.662   6.562   5.577
82079SOL    HW248135   3.534   6.513   5.512
82080SOL     OW48136   4.173   8.265   4.272
82080SOL    HW148137   4.176   8.181   4.317
82080SOL    HW248138   4.230   8.322   4.324
82081SOL     OW48139   2.359  14.279   0.396
82081SOL    HW148140   2.394  14.200   0.436
82081SOL    HW248141   2.360  14.261   0.302
82082SOL     OW48142   0.702   9.145   0.818
82082SOL    HW148143   0.704   9.078   0.750
82082SOL    HW248144   0.714   9.228   0.771
82083SOL     OW48145   3.045   8.638   1.572
82083SOL    HW148146   3.042   8.579   1.497
82083SOL    HW248147   3.049   8.580   1.648
82084SOL     OW48148  12.689   3.670   9.927
82084SOL    HW148149  12.718   3.761   9.931
82084SOL    HW248150  12.637   3.657  10.007
82085SOL     OW48151   1.817   3.024  14.861
82085SOL    HW148152   1.779   3.030  14.773
82085SOL    HW248153   1.886   3.092  14.861
82086SOL     OW48154  13.081   7.771   7.199
82086SOL    HW148155  12.990   7.748   7.220
82086SOL    HW248156  13.088   7.863   7.224
82087SOL     OW48157   9.013   1.536   5.341
82087SOL    HW148158   9.105   1.543   5.366
82087SOL    HW248159   9.015   1.488   5.258
82088SOL     OW48160  11.138   0.562   6.772
82088SOL    HW148161  11.175   0.473   6.767
82088SOL    HW248162  11.179   0.600   6.849
82089SOL     OW48163   9.400   9.335   4.755
82089SOL    HW148164   9.319   9.300   4.717
82089SOL    HW248165   9.373   9.375   4.837
82090SOL     OW48166  11.731   9.814   6.729
82090SOL    HW148167  11.766   9.744   6.673
82090SOL    HW248168  11.774   9.800   6.814
82091SOL     OW48169   4.561   1.002   3.795
82091SOL    HW148170   4.543   0.932   3.858
82091SOL    HW248171   4.475   1.021   3.756
82092SOL     OW48172   6.023   3.667  14.803
82092SOL    HW148173   5.952   3.609  14.828
82092SOL    HW248174   5.998   3.701  14.717
82093SOL     OW48175   5.627   7.061   9.535
82093SOL    HW148176   5.574   7.101   9.466
82093SOL    HW248177   5.694   7.126   9.555
82094SOL     OW48178  12.618   3.091  10.346
82094SOL    HW148179  12.705   3.051  10.348
82094SOL    HW248180  12.628   3.165  10.287
82095SOL     OW48181   2.500   4.408   2.442
82095SOL    HW148182   2.525   4.408   2.350
82095SOL    HW248183   2.436   4.337   2.450
82096SOL     OW48184   1.020  14.484   9.634
82096SOL    HW148185   1.022  14.396   9.596
82096SOL    HW248186   0.992  14.541   9.562
82097SOL     OW48187   4.177   5.587   7.967
82097SOL    HW148188   4.138   5.646   8.032
82097SOL    HW248189   4.271   5.594   7.982
82098SOL     OW48190  14.601   8.054   2.152
82098SOL    HW148191  14.607   8.002   2.072
82098SOL    HW248192  14.592   8.145   2.122
82099SOL     OW48193   6.084   4.052  13.809
82099SOL    HW148194   6.093   3.968  13.764
82099SOL    HW248195   6.004   4.089  13.773
82100SOL     OW48196  13.469   8.078   1.974
82100SOL    HW148197  13.486   8.000   1.921
82100SOL    HW248198  13.520   8.148   1.932
82101SOL     OW48199   8.104  14.583   6.831
82101SOL    HW148200   8.184  14.622   6.867
82101SOL    HW248201   8.036  14.648   6.848
82102SOL     OW48202  13.604   6.359   6.439
82102SOL    HW148203  13.514   6.332   6.419
82102SOL    HW248204  13.607   6.452   6.416
82103SOL     OW48205   0.680   4.780   7.630
82103SOL    HW148206   0.766   4.809   7.659
82103SOL    HW248207   0.647   4.727   7.702
82104SOL     OW48208  12.773   7.805  10.360
82104SOL    HW148209  12.864   7.776  10.364
82104SOL    HW248210  12.753   7.831  10.450
82105SOL     OW48211   3.040   9.072  12.425
82105SOL    HW148212   3.069   9.149  12.474
82105SOL    HW248213   3.049   8.999  12.486
82106SOL     OW48214   5.261   3.705  10.017
82106SOL    HW148215   5.194   3.761   9.978
82106SOL    HW248216   5.221   3.673  10.098
82107SOL     OW48217   9.125   1.180   4.237
82107SOL    HW148218   9.183   1.159   4.311
82107SOL    HW248219   9.047   1.218   4.278
82108SOL     OW48220  14.186  11.963   8.440
82108SOL    HW148221  14.220  11.902   8.505
82108SOL    HW248222  14.185  11.913   8.358
82109SOL     OW48223   4.072   6.558  13.682
82109SOL    HW148224   4.036   6.471  13.700
82109SOL    HW248225   4.100   6.590  13.767
82110SOL     OW48226  14.254   4.817   3.573
82110SOL    HW148227  14.170   4.861   3.559
82110SOL    HW248228  14.270   4.770   3.491
82111SOL     OW48229   5.542   5.519   5.110
82111SOL    HW148230   5.466   5.522   5.052
82111SOL    HW248231   5.545   5.428   5.140
82112SOL     OW48232  14.061  13.735   6.809
82112SOL    HW148233  14.043  13.654   6.761
82112SOL    HW248234  13.983  13.750   6.862
82113SOL     OW48235   7.132  11.848   5.621
82113SOL    HW148236   7.169  11.932   5.593
82113SOL    HW248237   7.121  11.798   5.540
82114SOL     OW48238  10.385   9.850  14.451
82114SOL    HW148239  10.320   9.780  14.455
82114SOL    HW248240  10.447   9.829  14.521
82115SOL     OW48241   3.198  12.889   6.243
82115SOL    HW148242   3.117  12.914   6.288
82115SOL    HW248243   3.174  12.812   6.191
82116SOL     OW48244   6.225   7.456  11.102
82116SOL    HW148245   6.215   7.364  11.078
82116SOL    HW248246   6.316   7.477  11.082
82117SOL     OW48247   3.722   7.134   0.559
82117SOL    HW148248   3.644   7.146   0.614
82117SOL    HW248249   3.688   7.114   0.472
82118SOL     OW48250   7.953   8.594   2.313
82118SOL    HW148251   7.973   8.670   2.368
82118SOL    HW248252   8.007   8.523   2.349
82119SOL     OW48253   8.903  12.604   6.815
82119SOL    HW148254   8.955  12.592   6.736
82119SOL    HW248255   8.900  12.517   6.856
82120SOL     OW48256   4.091   1.259   8.563
82120SOL    HW148257   4.029   1.331   8.557
82120SOL    HW248258   4.142   1.263   8.482
82121SOL     OW48259   4.925   3.814   5.436
82121SOL    HW148260   4.843   3.767   5.453
82121SOL    HW248261   4.928   3.823   5.340
82122SOL     OW48262   3.603   3.348   3.593
82122SOL    HW148263   3.695   3.322   3.596
82122SOL    HW248264   3.606   3.443   3.579
82123SOL     OW48265   2.716  14.496   8.499
82123SOL    HW148266   2.809  14.509   8.481
82123SOL    HW248267   2.685  14.581   8.530
82124SOL     OW48268  13.419   4.821   5.696
82124SOL    HW148269  13.475   4.759   5.651
82124SOL    HW248270  13.382   4.875   5.626
82125SOL     OW48271   0.693   3.964   8.679
82125SOL    HW148272   0.633   4.001   8.615
82125SOL    HW248273   0.657   3.990   8.764
82126SOL     OW48274  12.731   1.748   2.934
82126SOL    HW148275  12.683   1.750   2.851
82126SOL    HW248276  12.794   1.819   2.926
82127SOL     OW48277   2.154   8.869   0.701
82127SOL    HW148278   2.071   8.911   0.722
82127SOL    HW248279   2.133   8.775   0.698
82128SOL     OW48280  14.522   3.800  14.081
82128SOL    HW148281  14.453   3.842  14.028
82128SOL    HW248282  14.564   3.739  14.020
82129SOL     OW48283   7.935  14.862  12.338
82129SOL    HW148284   7.848  14.870  12.378
82129SOL    HW248285   7.996  14.873  12.411
82130SOL     OW48286   7.029   0.783  13.417
82130SOL    HW148287   7.006   0.854  13.477
82130SOL    HW248288   7.099   0.819  13.362
82131SOL     OW48289   0.685   3.200  13.262
82131SOL    HW148290   0.714   3.119  13.220
82131SOL    HW248291   0.745   3.213  13.335
82132SOL     OW48292   7.604  11.888   0.943
82132SOL    HW148293   7.522  11.898   0.992
82132SOL    HW248294   7.592  11.941   0.864
82133SOL     OW48295   3.307  12.380   5.927
82133SOL    HW148296   3.321  12.286   5.940
82133SOL    HW248297   3.385  12.409   5.880
82134SOL     OW48298   7.768   4.810  11.311
82134SOL    HW148299   7.727   4.889  11.346
82134SOL    HW248300   7.829   4.782  11.379
82135SOL     OW48301   4.058  11.109   0.653
82135SOL    HW148302   4.140  11.060   0.653
82135SOL    HW248303   3.994  11.049   0.616
82136SOL     OW48304   5.958   6.676   2.233
82136SOL    HW148305   5.887   6.740   2.220
82136SOL    HW248306   5.947   6.613   2.162
82137SOL     OW48307   2.339   2.460   5.782
82137SOL    HW148308   2.340   2.540   5.833
82137SOL    HW248309   2.432   2.436   5.773
82138SOL     OW48310  13.357  14.429   5.760
82138SOL    HW148311  13.376  14.492   5.691
82138SOL    HW248312  13.330  14.482   5.835
82139SOL     OW48313   7.875  14.316   0.572
82139SOL    HW148314   7.924  14.397   0.587
82139SOL    HW248315   7.853  14.285   0.660
82140SOL     OW48316   2.255  13.727   7.015
82140SOL    HW148317   2.234  13.782   6.940
82140SOL    HW248318   2.224  13.776   7.091
82141SOL     OW48319  10.068   8.215   2.737
82141SOL    HW148320  10.064   8.215   2.641
82141SOL    HW248321  10.027   8.133   2.763
82142SOL     OW48322   0.796   6.917  11.261
82142SOL    HW148323   0.812   6.945  11.171
82142SOL    HW248324   0.759   6.994  11.304
82143SOL     OW48325   5.597   1.070   2.966
82143SOL    HW148326   5.675   1.110   3.004
82143SOL    HW248327   5.604   1.087   2.872
82144SOL     OW48328   5.574   6.125   0.513
82144SOL    HW148329   5.597   6.044   0.559
82144SOL    HW248330   5.542   6.095   0.428
82145SOL     OW48331  10.075  14.288   7.120
82145SOL    HW148332  10.068  14.294   7.025
82145SOL    HW248333  10.068  14.194   7.138
82146SOL     OW48334  12.170   7.642   0.904
82146SOL    HW148335  12.129   7.638   0.991
82146SOL    HW248336  12.154   7.555   0.866
82147SOL     OW48337   0.594   1.583  12.801
82147SOL    HW148338   0.584   1.580  12.896
82147SOL    HW248339   0.558   1.669  12.776
82148SOL     OW48340   3.683  11.973  11.884
82148SOL    HW148341   3.664  12.013  11.969
82148SOL    HW248342   3.674  12.045  11.821
82149SOL     OW48343   0.300  11.180   0.912
82149SOL    HW148344   0.227  11.239   0.930
82149SOL    HW248345   0.300  11.119   0.986
82150SOL     OW48346   8.283   9.561   2.586
82150SOL    HW148347   8.279   9.469   2.615
82150SOL    HW248348   8.214   9.568   2.520
82151SOL     OW48349  12.483  11.986   4.041
82151SOL    HW148350  12.566  12.024   4.011
82151SOL    HW248351  12.470  12.024   4.128
82152SOL     OW48352   2.487   4.516   6.025
82152SOL    HW148353   2.519   4.535   6.113
82152SOL    HW248354   2.391   4.517   6.034
82153SOL     OW48355   3.587   0.529   1.444
82153SOL    HW148356   3.605   0.442   1.479
82153SOL    HW248357   3.494   0.544   1.462
82154SOL     OW48358   7.116  14.832   5.679
82154SOL    HW148359   7.089  14.832   5.587
82154SOL    HW248360   7.210  14.853   5.676
82155SOL     OW48361   3.735  10.817  10.917
82155SOL    HW148362   3.728  10.749  10.850
82155SOL    HW248363   3.646  10.829  10.949
82156SOL     OW48364  13.338  10.775   1.564
82156SOL    HW148365  13.404  10.832   1.524
82156SOL    HW248366  13.341  10.797   1.657
82157SOL     OW48367   7.082  12.846   7.463
82157SOL    HW148368   7.174  12.820   7.455
82157SOL    HW248369   7.084  12.925   7.517
82158SOL     OW48370   1.791  12.766   5.858
82158SOL    HW148371   1.871  12.720   5.885
82158SOL    HW248372   1.821  12.834   5.798
82159SOL     OW48373   6.972   0.153   9.970
82159SOL    HW148374   6.952   0.077   9.914
82159SOL    HW248375   6.889   0.200   9.977
82160SOL     OW48376   1.097  12.003  12.089
82160SOL    HW148377   1.070  11.914  12.069
82160SOL    HW248378   1.177  11.993  12.141
82161SOL     OW48379   6.719   2.495   5.191
82161SOL    HW148380   6.712   2.412   5.238
82161SOL    HW248381   6.804   2.491   5.148
82162SOL     OW48382  13.739   9.522   3.126
82162SOL    HW148383  13.699   9.435   3.121
82162SOL    HW248384  13.667   9.580   3.148
82163SOL     OW48385   2.857   3.187   6.792
82163SOL    HW148386   2.838   3.223   6.879
82163SOL    HW248387   2.775   3.198   6.743
82164SOL     OW48388   6.310   1.083   2.457
82164SOL    HW148389   6.370   1.110   2.388
82164SOL    HW248390   6.224   1.083   2.416
82165SOL     OW48391   5.191   0.820  13.473
82165SOL    HW148392   5.255   0.821  13.544
82165SOL    HW248393   5.205   0.735  13.430
82166SOL     OW48394  10.892   3.319  11.446
82166SOL    HW148395  10.922   3.281  11.364
82166SOL    HW248396  10.953   3.391  11.463
82167SOL     OW48397   0.443  10.862   7.195
82167SOL    HW148398   0.437  10.894   7.285
82167SOL    HW248399   0.365  10.809   7.183
82168SOL     OW48400  13.672  14.683   9.572
82168SOL    HW148401  13.608  14.749   9.600
82168SOL    HW248402  13.728  14.729   9.509
82169SOL     OW48403   6.917   5.644   6.399
82169SOL    HW148404   6.830   5.663   6.363
82169SOL    HW248405   6.977   5.663   6.328
82170SOL     OW48406  10.039   7.724  14.308
82170SOL    HW148407  10.028   7.818  14.315
82170SOL    HW248408  10.055   7.695  14.398
82171SOL     OW48409   6.039   3.698   4.499
82171SOL    HW148410   6.041   3.607   4.528
82171SOL    HW248411   5.979   3.742   4.560
82172SOL     OW48412   0.147   2.298   1.144
82172SOL    HW148413   0.212   2.358   1.106
82172SOL    HW248414   0.199   2.226   1.178
82173SOL     OW48415   6.714  14.595  14.264
82173SOL    HW148416   6.669  14.534  14.323
82173SOL    HW248417   6.683  14.571  14.177
82174SOL     OW48418   7.149   5.351   6.631
82174SOL    HW148419   7.098   5.432   6.638
82174SOL    HW248420   7.239   5.378   6.649
82175SOL     OW48421  13.504   2.211   1.557
82175SOL    HW148422  13.496   2.293   1.508
82175SOL    HW248423  13.423   2.204   1.606
82176SOL     OW48424   0.083   6.379   5.388
82176SOL    HW148425   0.129   6.342   5.463
82176SOL    HW248426   0.031   6.307   5.353
82177SOL     OW48427  13.515  10.025   6.101
82177SOL    HW148428  13.515   9.959   6.171
82177SOL    HW248429  13.532  10.108   6.146
82178SOL     OW48430   3.661   6.312   3.032
82178SOL    HW148431   3.708   6.375   3.088
82178SOL    HW248432   3.715   6.306   2.953
82179SOL     OW48433  10.292   3.175   2.890
82179SOL    HW148434  10.282   3.143   2.800
82179SOL    HW248435  10.286   3.270   2.882
82180SOL     OW48436   5.622   1.712   0.406
82180SOL    HW148437   5.649   1.669   0.487
82180SOL    HW248438   5.697   1.765   0.380
82181SOL     OW48439  14.537   4.508   6.188
82181SOL    HW148440  14.505   4.428   6.229
82181SOL    HW248441  14.607   4.538   6.246
82182SOL     OW48442   3.933  14.355   3.071
82182SOL    HW148443   3.918  14.310   2.988
82182SOL    HW248444   4.024  14.337   3.093
82183SOL     OW48445   4.390  10.870  12.889
82183SOL    HW148446   4.392  10.925  12.811
82183SOL    HW248447   4.315  10.811  12.876
82184SOL     OW48448   6.469  11.942  12.013
82184SOL    HW148449   6.469  11.983  12.099
82184SOL    HW248450   6.540  11.984  11.966
82185SOL     OW48451  12.304   3.900   4.840
82185SOL    HW148452  12.253   3.975   4.807
82185SOL    HW248453  12.310   3.915   4.934
82186SOL     OW48454  13.969   0.042  13.784
82186SOL    HW148455  14.044   0.075  13.833
82186SOL    HW248456  13.965   0.096  13.705
82187SOL     OW48457   3.080   1.253   2.589
82187SOL    HW148458   3.079   1.349   2.585
82187SOL    HW248459   2.990   1.229   2.611
82188SOL     OW48460   9.674   7.916  13.812
82188SOL    HW148461   9.707   7.899  13.723
82188SOL    HW248462   9.586   7.879  13.812
82189SOL     OW48463   9.276   0.816  12.518
82189SOL    HW148464   9.366   0.849  12.508
82189SOL    HW248465   9.272   0.786  12.609
82190SOL     OW48466   7.663   6.465  10.680
82190SOL    HW148467   7.756   6.449  10.666
82190SOL    HW248468   7.622   6.378  10.672
82191SOL     OW48469   8.975  10.087   8.194
82191SOL    HW148470   9.018  10.049   8.118
82191SOL    HW248471   8.996  10.181   8.190
82192SOL     OW48472  11.053  10.656  10.833
82192SOL    HW148473  11.070  10.740  10.875
82192SOL    HW248474  11.140  10.620  10.817
82193SOL     OW48475   2.831   5.651   5.433
82193SOL    HW148476   2.849   5.742   5.412
82193SOL    HW248477   2.892   5.600   5.379
82194SOL     OW48478  13.811  13.355   3.774
82194SOL    HW148479  13.902  13.374   3.755
82194SOL    HW248480  13.804  13.260   3.767
82195SOL     OW48481   8.580  12.530   0.100
82195SOL    HW148482   8.494  12.489   0.113
82195SOL    HW248483   8.566  12.592   0.028
82196SOL     OW48484   9.979   1.339   2.566
82196SOL    HW148485  10.047   1.393   2.526
82196SOL    HW248486   9.919   1.403   2.606
82197SOL     OW48487  13.028   1.952  13.350
82197SOL    HW148488  13.000   1.883  13.410
82197SOL    HW248489  13.088   1.908  13.289
82198SOL     OW48490   8.854   9.695   7.565
82198SOL    HW148491   8.803   9.650   7.633
82198SOL    HW248492   8.820   9.785   7.566
82199SOL     OW48493   0.015   8.305  12.905
82199SOL    HW148494   0.097   8.352  12.893
82199SOL    HW248495   0.001   8.259  12.822
82200SOL     OW48496   3.961   6.995  11.159
82200SOL    HW148497   3.900   6.956  11.097
82200SOL    HW248498   4.002   7.066  11.109
82201SOL     OW48499   9.124   6.578  11.458
82201SOL    HW148500   9.218   6.592  11.474
82201SOL    HW248501   9.122   6.507  11.393
82202SOL     OW48502   5.745  14.793   2.444
82202SOL    HW148503   5.713  14.811   2.356
82202SOL    HW248504   5.763  14.699   2.443
82203SOL     OW48505  12.519   6.184   3.528
82203SOL    HW148506  12.511   6.213   3.438
82203SOL    HW248507  12.463   6.107   3.534
82204SOL     OW48508   1.410   0.323   0.363
82204SOL    HW148509   1.495   0.302   0.327
82204SOL    HW248510   1.407   0.419   0.363
82205SOL     OW48511   1.322  12.175   7.809
82205SOL    HW148512   1.247  12.220   7.847
82205SOL    HW248513   1.284  12.105   7.757
82206SOL     OW48514   6.031   3.813   5.653
82206SOL    HW148515   5.957   3.850   5.607
82206SOL    HW248516   5.998   3.732   5.692
82207SOL     OW48517  13.744  14.087   2.499
82207SOL    HW148518  13.743  14.023   2.428
82207SOL    HW248519  13.790  14.043   2.570
82208SOL     OW48520   2.769  13.196  11.947
82208SOL    HW148521   2.769  13.292  11.954
82208SOL    HW248522   2.765  13.166  12.038
82209SOL     OW48523  13.333   3.128   9.699
82209SOL    HW148524  13.272   3.201   9.691
82209SOL    HW248525  13.400   3.144   9.632
82210SOL     OW48526   5.501   4.418   9.866
82210SOL    HW148527   5.575   4.360   9.883
82210SOL    HW248528   5.514   4.447   9.775
82211SOL     OW48529  12.620  12.099   1.728
82211SOL    HW148530  12.697  12.059   1.688
82211SOL    HW248531  12.654  12.170   1.781
82212SOL     OW48532   6.070   0.708   2.622
82212SOL    HW148533   6.145   0.747   2.577
82212SOL    HW248534   6.019   0.667   2.553
82213SOL     OW48535   6.692   2.839   9.195
82213SOL    HW148536   6.755   2.832   9.267
82213SOL    HW248537   6.607   2.822   9.236
82214SOL     OW48538   0.430   4.361   7.699
82214SOL    HW148539   0.382   4.364   7.616
82214SOL    HW248540   0.363   4.336   7.764
82215SOL     OW48541  13.866  12.941   9.215
82215SOL    HW148542  13.828  12.866   9.169
82215SOL    HW248543  13.960  12.926   9.213
82216SOL     OW48544   7.854   0.334  11.891
82216SOL    HW148545   7.905   0.407  11.926
82216SOL    HW248546   7.884   0.325  11.800
82217SOL     OW48547   1.086  14.442   4.140
82217SOL    HW148548   1.032  14.521   4.146
82217SOL    HW248549   1.175  14.475   4.133
82218SOL     OW48550   8.341   1.350  10.409
82218SOL    HW148551   8.403   1.285  10.376
82218SOL    HW248552   8.265   1.298  10.436
82219SOL     OW48553  11.642   8.479  14.120
82219SOL    HW148554  11.685   8.514  14.199
82219SOL    HW248555  11.566   8.535  14.107
82220SOL     OW48556   2.060   5.668   6.503
82220SOL    HW148557   2.079   5.634   6.416
82220SOL    HW248558   2.005   5.745   6.486
82221SOL     OW48559   0.751  13.782   8.602
82221SOL    HW148560   0.810  13.751   8.670
82221SOL    HW248561   0.700  13.852   8.643
82222SOL     OW48562   8.227   1.467   2.992
82222SOL    HW148563   8.246   1.549   3.038
82222SOL    HW248564   8.296   1.458   2.927
82223SOL     OW48565   1.006   5.908   3.868
82223SOL    HW148566   1.072   5.934   3.932
82223SOL    HW248567   1.024   5.962   3.791
82224SOL     OW48568   7.467  13.246  14.572
82224SOL    HW148569   7.463  13.234  14.667
82224SOL    HW248570   7.523  13.323  14.560
82225SOL     OW48571   1.488   6.660  12.676
82225SOL    HW148572   1.565   6.604  12.682
82225SOL    HW248573   1.475   6.692  12.766
82226SOL     OW48574   8.362   9.664  11.432
82226SOL    HW148575   8.407   9.640  11.351
82226SOL    HW248576   8.327   9.752  11.415
82227SOL     OW48577   2.034   7.100   4.299
82227SOL    HW148578   1.946   7.106   4.262
82227SOL    HW248579   2.029   7.151   4.380
82228SOL     OW48580   5.444   2.822   3.824
82228SOL    HW148581   5.407   2.734   3.827
82228SOL    HW248582   5.477   2.831   3.734
82229SOL     OW48583   0.207   1.553  11.209
82229SOL    HW148584   0.219   1.463  11.239
82229SOL    HW248585   0.114   1.570  11.223
82230SOL     OW48586  12.141   3.843  14.492
82230SOL    HW148587  12.187   3.926  14.504
82230SOL    HW248588  12.190   3.780  14.546
82231SOL     OW48589   3.363  10.222   3.783
82231SOL    HW148590   3.373  10.184   3.870
82231SOL    HW248591   3.386  10.151   3.723
82232SOL     OW48592   9.542   6.694   5.032
82232SOL    HW148593   9.585   6.766   4.986
82232SOL    HW248594   9.507   6.733   5.112
82233SOL     OW48595   7.608   3.483   9.172
82233SOL    HW148596   7.630   3.576   9.176
82233SOL    HW248597   7.596   3.464   9.079
82234SOL     OW48598   4.019  13.315  13.970
82234SOL    HW148599   3.999  13.221  13.966
82234SOL    HW248600   3.936  13.357  13.991
82235SOL     OW48601  12.490   2.245   7.001
82235SOL    HW148602  12.402   2.283   7.001
82235SOL    HW248603  12.524   2.265   6.914
82236SOL     OW48604   6.656   5.690   0.588
82236SOL    HW148605   6.707   5.765   0.557
82236SOL    HW248606   6.579   5.728   0.629
82237SOL     OW48607   8.392   2.434   0.388
82237SOL    HW148608   8.440   2.377   0.448
82237SOL    HW248609   8.319   2.468   0.440
82238SOL     OW48610  11.580   3.820   6.338
82238SOL    HW148611  11.616   3.888   6.394
82238SOL    HW248612  11.574   3.743   6.394
82239SOL     OW48613   3.259  10.642  10.420
82239SOL    HW148614   3.183  10.665  10.474
82239SOL    HW248615   3.311  10.723  10.416
82240SOL     OW48616   0.791  14.510   3.044
82240SOL    HW148617   0.729  14.542   3.109
82240SOL    HW248618   0.782  14.570   2.970
82241SOL     OW48619   2.942   9.642   1.378
82241SOL    HW148620   2.856   9.678   1.358
82241SOL    HW248621   2.936   9.550   1.355
82242SOL     OW48622  10.026   3.506   6.736
82242SOL    HW148623   9.933   3.493   6.754
82242SOL    HW248624  10.069   3.493   6.820
82243SOL     OW48625  11.148   3.660   4.472
82243SOL    HW148626  11.169   3.682   4.563
82243SOL    HW248627  11.132   3.566   4.473
82244SOL     OW48628   2.525   1.378   1.412
82244SOL    HW148629   2.430   1.368   1.418
82244SOL    HW248630   2.556   1.294   1.378
82245SOL     OW48631  12.202   2.477  13.023
82245SOL    HW148632  12.283   2.465  13.073
82245SOL    HW248633  12.181   2.389  12.991
82246SOL     OW48634   5.899   8.099  11.099
82246SOL    HW148635   5.944   8.014  11.110
82246SOL    HW248636   5.851   8.090  11.016
82247SOL     OW48637  10.059   3.484   0.616
82247SOL    HW148638  10.010   3.538   0.678
82247SOL    HW248639  10.052   3.531   0.533
82248SOL     OW48640  10.589   3.660   5.959
82248SOL    HW148641  10.668   3.693   6.003
82248SOL    HW248642  10.525   3.650   6.030
82249SOL     OW48643   9.067  10.325   6.315
82249SOL    HW148644   9.131  10.300   6.381
82249SOL    HW248645   9.053  10.418   6.329
82250SOL     OW48646  13.424  10.692   2.493
82250SOL    HW148647  13.487  10.668   2.425
82250SOL    HW248648  13.450  10.641   2.569
82251SOL     OW48649   0.357   1.994   8.770
82251SOL    HW148650   0.413   2.047   8.713
82251SOL    HW248651   0.312   1.935   8.711
82252SOL     OW48652   7.071  11.252   8.781
82252SOL    HW148653   7.130  11.327   8.773
82252SOL    HW248654   7.035  11.259   8.870
82253SOL     OW48655   1.164   1.892   5.841
82253SOL    HW148656   1.170   1.868   5.748
82253SOL    HW248657   1.193   1.983   5.843
82254SOL     OW48658   7.822   1.130   2.533
82254SOL    HW148659   7.893   1.121   2.469
82254SOL    HW248660   7.821   1.046   2.579
82255SOL     OW48661  12.905   6.666   3.517
82255SOL    HW148662  12.938   6.611   3.588
82255SOL    HW248663  12.822   6.625   3.492
82256SOL     OW48664   1.899  14.042  10.795
82256SOL    HW148665   1.917  14.132  10.824
82256SOL    HW248666   1.984  13.999  10.798
82257SOL     OW48667   1.849   5.172   6.472
82257SOL    HW148668   1.821   5.156   6.562
82257SOL    HW248669   1.796   5.111   6.420
82258SOL     OW48670   8.231   5.929   0.041
82258SOL    HW148671   8.182   6.010   0.024
82258SOL    HW248672   8.192   5.865  14.862
82259SOL     OW48673   6.395   8.397  14.551
82259SOL    HW148674   6.458   8.390  14.480
82259SOL    HW248675   6.445   8.380  14.631
82260SOL     OW48676   5.780  13.604  11.473
82260SOL    HW148677   5.773  13.509  11.475
82260SOL    HW248678   5.856  13.624  11.528
82261SOL     OW48679   8.767   3.574   6.164
82261SOL    HW148680   8.803   3.492   6.197
82261SOL    HW248681   8.833   3.606   6.102
82262SOL     OW48682   6.020   8.258   1.402
82262SOL    HW148683   5.994   8.185   1.345
82262SOL    HW248684   5.938   8.304   1.421
82263SOL     OW48685  13.335   4.179   5.043
82263SOL    HW148686  13.369   4.261   5.079
82263SOL    HW248687  13.247   4.171   5.078
82264SOL     OW48688   4.112  11.724   2.432
82264SOL    HW148689   4.147  11.788   2.370
82264SOL    HW248690   4.156  11.642   2.408
82265SOL     OW48691   1.661   1.132   3.863
82265SOL    HW148692   1.721   1.198   3.899
82265SOL    HW248693   1.661   1.149   3.769
82266SOL     OW48694   4.535   5.234  12.179
82266SOL    HW148695   4.456   5.188  12.207
82266SOL    HW248696   4.505   5.323  12.160
82267SOL     OW48697  11.089   0.038   6.822
82267SOL    HW148698  11.106  14.829   6.854
82267SOL    HW248699  11.143   0.047   6.744
82268SOL     OW48700  14.454   6.726   4.802
82268SOL    HW148701  14.364   6.702   4.824
82268SOL    HW248702  14.454   6.821   4.803
82269SOL     OW48703  12.627  10.873  11.284
82269SOL    HW148704  12.618  10.855  11.377
82269SOL    HW248705  12.691  10.809  11.252
82270SOL     OW48706   5.821   3.100  12.754
82270SOL    HW148707   5.910   3.135  12.766
82270SOL    HW248708   5.835   3.011  12.721
82271SOL     OW48709  13.247   7.981   8.270
82271SOL    HW148710  13.257   8.045   8.341
82271SOL    HW248711  13.192   7.912   8.307
82272SOL     OW48712   5.259  10.297   9.875
82272SOL    HW148713   5.235  10.280   9.966
82272SOL    HW248714   5.352  10.319   9.878
82273SOL     OW48715   3.198  10.457   9.383
82273SOL    HW148716   3.176  10.496   9.298
82273SOL    HW248717   3.118  10.414   9.411
82274SOL     OW48718  10.875   5.223  11.815
82274SOL    HW148719  10.812   5.176  11.870
82274SOL    HW248720  10.894   5.162  11.744
82275SOL     OW48721   2.207   5.412   5.044
82275SOL    HW148722   2.264   5.383   4.973
82275SOL    HW248723   2.123   5.429   5.002
82276SOL     OW48724   6.373   2.515  10.283
82276SOL    HW148725   6.301   2.487  10.340
82276SOL    HW248726   6.392   2.604  10.311
82277SOL     OW48727   6.984   4.513   3.875
82277SOL    HW148728   7.054   4.466   3.829
82277SOL    HW248729   7.013   4.515   3.966
82278SOL     OW48730   0.974  14.191  13.451
82278SOL    HW148731   0.901  14.171  13.393
82278SOL    HW248732   0.951  14.147  13.534
82279SOL     OW48733   1.172   0.337  12.302
82279SOL    HW148734   1.176   0.312  12.210
82279SOL    HW248735   1.218   0.421  12.306
82280SOL     OW48736  10.795   1.685   3.796
82280SOL    HW148737  10.777   1.754   3.859
82280SOL    HW248738  10.742   1.611   3.827
82281SOL     OW48739   1.839  10.810   4.999
82281SOL    HW148740   1.763  10.755   4.979
82281SOL    HW248741   1.915  10.757   4.975
82282SOL     OW48742  12.681  14.570  14.640
82282SOL    HW148743  12.677  14.628  14.716
82282SOL    HW248744  12.636  14.616  14.571
82283SOL     OW48745   0.336   0.453   0.858
82283SOL    HW148746   0.379   0.378   0.817
82283SOL    HW248747   0.393   0.475   0.931
82284SOL     OW48748  14.788  13.808   8.429
82284SOL    HW148749  14.822  13.855   8.505
82284SOL    HW248750  14.834  13.847   8.354
82285SOL     OW48751  10.466  13.837   1.466
82285SOL    HW148752  10.402  13.907   1.460
82285SOL    HW248753  10.421  13.760   1.433
82286SOL     OW48754   3.783   6.791   2.087
82286SOL    HW148755   3.813   6.708   2.050
82286SOL    HW248756   3.770   6.847   2.011
82287SOL     OW48757   1.974  14.728   2.365
82287SOL    HW148758   1.919  14.787   2.313
82287SOL    HW248759   1.913  14.682   2.422
82288SOL     OW48760   2.316   8.118   6.396
82288SOL    HW148761   2.309   8.078   6.483
82288SOL    HW248762   2.408   8.143   6.389
82289SOL     OW48763   0.754  10.323   7.105
82289SOL    HW148764   0.696  10.305   7.179
82289SOL    HW248765   0.834  10.274   7.124
82290SOL     OW48766   1.523   7.387   7.271
82290SOL    HW148767   1.497   7.465   7.222
82290SOL    HW248768   1.475   7.315   7.230
82291SOL     OW48769   5.723  13.730   1.543
82291SOL    HW148770   5.692  13.788   1.612
82291SOL    HW248771   5.653  13.731   1.477
82292SOL     OW48772   7.918   5.210   5.466
82292SOL    HW148773   7.924   5.306   5.466
82292SOL    HW248774   7.872   5.188   5.385
82293SOL     OW48775   9.133  11.760   9.840
82293SOL    HW148776   9.199  11.736   9.776
82293SOL    HW248777   9.087  11.835   9.802
82294SOL     OW48778   8.923   0.341   7.529
82294SOL    HW148779   8.894   0.302   7.447
82294SOL    HW248780   8.928   0.435   7.510
82295SOL     OW48781   5.724  10.852   6.458
82295SOL    HW148782   5.768  10.830   6.376
82295SOL    HW248783   5.774  10.805   6.525
82296SOL     OW48784   4.651   0.121  13.643
82296SOL    HW148785   4.557   0.142  13.647
82296SOL    HW248786   4.654   0.032  13.607
82297SOL     OW48787   0.085   1.139   7.669
82297SOL    HW148788   0.040   1.186   7.739
82297SOL    HW248789   0.136   1.072   7.714
82298SOL     OW48790   4.223   9.618  12.396
82298SOL    HW148791   4.134   9.644  12.373
82298SOL    HW248792   4.223   9.523  12.388
82299SOL     OW48793   6.535   1.815   5.979
82299SOL    HW148794   6.524   1.751   5.909
82299SOL    HW248795   6.479   1.785   6.049
82300SOL     OW48796   2.729  11.141   9.633
82300SOL    HW148797   2.712  11.167   9.542
82300SOL    HW248798   2.814  11.097   9.630
82301SOL     OW48799  13.109   0.650   0.634
82301SOL    HW148800  13.132   0.592   0.707
82301SOL    HW248801  13.066   0.593   0.571
82302SOL     OW48802  10.598  13.282   3.831
82302SOL    HW148803  10.515  13.243   3.857
82302SOL    HW248804  10.620  13.238   3.749
82303SOL     OW48805  14.776  12.513  14.480
82303SOL    HW148806  14.703  12.465  14.441
82303SOL    HW248807  14.736  12.573  14.543
82304SOL     OW48808   4.844  13.137   9.860
82304SOL    HW148809   4.925  13.094   9.832
82304SOL    HW248810   4.781  13.117   9.790
82305SOL     OW48811  13.184   9.342   6.455
82305SOL    HW148812  13.261   9.294   6.424
82305SOL    HW248813  13.118   9.274   6.471
82306SOL     OW48814   2.524   9.205   8.742
82306SOL    HW148815   2.616   9.189   8.724
82306SOL    HW248816   2.485   9.117   8.748
82307SOL     OW48817  13.914   5.506  10.219
82307SOL    HW148818  13.868   5.450  10.156
82307SOL    HW248819  13.979   5.552  10.166
82308SOL     OW48820   8.551   4.941   8.762
82308SOL    HW148821   8.562   4.945   8.857
82308SOL    HW248822   8.489   5.011   8.741
82309SOL     OW48823   7.018   3.693   9.594
82309SOL    HW148824   6.985   3.719   9.681
82309SOL    HW248825   6.986   3.761   9.535
82310SOL     OW48826   8.666   9.363  14.456
82310SOL    HW148827   8.688   9.308  14.380
82310SOL    HW248828   8.678   9.453  14.425
82311SOL     OW48829   8.985  14.153   9.544
82311SOL    HW148830   8.992  14.202   9.462
82311SOL    HW248831   8.988  14.061   9.517
82312SOL     OW48832  14.120   3.204  14.400
82312SOL    HW148833  14.202   3.194  14.350
82312SOL    HW248834  14.067   3.263  14.347
82313SOL     OW48835   1.807  14.166   7.904
82313SOL    HW148836   1.729  14.190   7.954
82313SOL    HW248837   1.781  14.088   7.854
82314SOL     OW48838  12.700  12.803   0.346
82314SOL    HW148839  12.640  12.848   0.288
82314SOL    HW248840  12.652  12.725   0.374
82315SOL     OW48841   1.395  13.197  11.974
82315SOL    HW148842   1.438  13.178  11.891
82315SOL    HW248843   1.308  13.158  11.967
82316SOL     OW48844   3.884  12.937   1.077
82316SOL    HW148845   3.898  12.903   1.166
82316SOL    HW248846   3.819  13.007   1.088
82317SOL     OW48847   6.349   0.269  13.616
82317SOL    HW148848   6.321   0.356  13.587
82317SOL    HW248849   6.303   0.209  13.558
82318SOL     OW48850  12.841  14.463  13.650
82318SOL    HW148851  12.895  14.492  13.578
82318SOL    HW248852  12.903  14.428  13.714
82319SOL     OW48853   5.182   3.060   1.763
82319SOL    HW148854   5.173   2.995   1.833
82319SOL    HW248855   5.096   3.062   1.721
82320SOL     OW48856   1.943   1.926   9.140
82320SOL    HW148857   1.986   2.002   9.101
82320SOL    HW248858   1.944   1.944   9.234
82321SOL     OW48859   7.305   9.561   4.885
82321SOL    HW148860   7.227   9.532   4.838
82321SOL    HW248861   7.338   9.634   4.833
82322SOL     OW48862  12.001   5.900   0.183
82322SOL    HW148863  11.908   5.885   0.163
82322SOL    HW248864  12.004   5.909   0.278
82323SOL     OW48865   1.407   9.318   4.052
82323SOL    HW148866   1.377   9.261   4.123
82323SOL    HW248867   1.438   9.257   3.984
82324SOL     OW48868   1.112   3.256  14.499
82324SOL    HW148869   1.112   3.325  14.433
82324SOL    HW248870   1.203   3.249  14.527
82325SOL     OW48871   0.344   6.109   6.393
82325SOL    HW148872   0.407   6.177   6.417
82325SOL    HW248873   0.383   6.065   6.318
82326SOL     OW48874  14.026   0.722   6.221
82326SOL    HW148875  14.077   0.801   6.201
82326SOL    HW248876  13.953   0.754   6.274
82327SOL     OW48877  10.414  10.986   1.920
82327SOL    HW148878  10.503  10.969   1.887
82327SOL    HW248879  10.358  10.974   1.844
82328SOL     OW48880   7.838   3.876  14.638
82328SOL    HW148881   7.835   3.806  14.703
82328SOL    HW248882   7.891   3.840  14.566
82329SOL     OW48883   3.077   3.207   7.079
82329SOL    HW148884   3.086   3.234   7.171
82329SOL    HW248885   3.166   3.192   7.049
82330SOL     OW48886   5.511   1.141  13.399
82330SOL    HW148887   5.492   1.071  13.461
82330SOL    HW248888   5.527   1.218  13.454
82331SOL     OW48889  13.771  14.698   4.815
82331SOL    HW148890  13.809  14.726   4.732
82331SOL    HW248891  13.677  14.710   4.804
82332SOL     OW48892  12.928  12.207  10.609
82332SOL    HW148893  12.962  12.206  10.698
82332SOL    HW248894  12.845  12.158  10.614
82333SOL     OW48895   8.074  11.681   7.672
82333SOL    HW148896   7.988  11.715   7.695
82333SOL    HW248897   8.130  11.758   7.666
82334SOL     OW48898  11.336   4.923   8.188
82334SOL    HW148899  11.329   4.898   8.096
82334SOL    HW248900  11.363   4.843   8.233
82335SOL     OW48901  12.069   2.752   5.631
82335SOL    HW148902  12.062   2.772   5.725
82335SOL    HW248903  12.120   2.671   5.628
82336SOL     OW48904   3.510   8.460   2.328
82336SOL    HW148905   3.586   8.408   2.355
82336SOL    HW248906   3.538   8.502   2.247
82337SOL     OW48907  14.401  13.125   0.551
82337SOL    HW148908  14.377  13.136   0.459
82337SOL    HW248909  14.497  13.120   0.550
82338SOL     OW48910   8.120   3.572  11.178
82338SOL    HW148911   8.062   3.501  11.205
82338SOL    HW248912   8.150   3.611  11.259
82339SOL     OW48913   1.010   5.379   7.459
82339SOL    HW148914   1.007   5.393   7.554
82339SOL    HW248915   1.017   5.467   7.422
82340SOL     OW48916  11.037   3.230   7.036
82340SOL    HW148917  11.076   3.198   6.955
82340SOL    HW248918  10.976   3.298   7.008
82341SOL     OW48919   7.965   7.920  10.899
82341SOL    HW148920   7.942   7.924  10.992
82341SOL    HW248921   7.893   7.963  10.854
82342SOL     OW48922   8.882  10.866   7.098
82342SOL    HW148923   8.947  10.859   7.168
82342SOL    HW248924   8.857  10.775   7.080
82343SOL     OW48925  11.973   0.320   2.394
82343SOL    HW148926  11.878   0.305   2.396
82343SOL    HW248927  11.986   0.386   2.326
82344SOL     OW48928  12.279  13.224  12.287
82344SOL    HW148929  12.266  13.210  12.193
82344SOL    HW248930  12.247  13.144  12.328
82345SOL     OW48931   2.068   6.613   4.279
82345SOL    HW148932   2.093   6.562   4.356
82345SOL    HW248933   2.030   6.550   4.219
82346SOL     OW48934   6.077   6.631  12.582
82346SOL    HW148935   6.136   6.692  12.626
82346SOL    HW248936   6.083   6.550  12.633
82347SOL     OW48937   4.034   0.371   5.454
82347SOL    HW148938   4.058   0.462   5.437
82347SOL    HW248939   3.952   0.358   5.406
82348SOL     OW48940   4.776   9.742   0.862
82348SOL    HW148941   4.866   9.741   0.830
82348SOL    HW248942   4.749   9.833   0.856
82349SOL     OW48943   7.060   1.859   6.897
82349SOL    HW148944   7.009   1.778   6.896
82349SOL    HW248945   7.033   1.904   6.977
82350SOL     OW48946   3.184  10.780   0.914
82350SOL    HW148947   3.143  10.836   0.980
82350SOL    HW248948   3.261  10.830   0.885
82351SOL     OW48949   3.687   2.087   3.015
82351SOL    HW148950   3.603   2.045   3.032
82351SOL    HW248951   3.729   2.031   2.950
82352SOL     OW48952  11.793   7.292  10.066
82352SOL    HW148953  11.770   7.244  10.145
82352SOL    HW248954  11.806   7.224  10.000
82353SOL     OW48955   6.237  13.935  14.040
82353SOL    HW148956   6.183  13.903  13.968
82353SOL    HW248957   6.318  13.884  14.034
82354SOL     OW48958  13.093  11.047   1.289
82354SOL    HW148959  13.071  10.958   1.263
82354SOL    HW248960  13.052  11.058   1.375
82355SOL     OW48961   5.922   3.896  12.952
82355SOL    HW148962   6.005   3.915  12.910
82355SOL    HW248963   5.856   3.937  12.896
82356SOL     OW48964  12.537   3.281   0.547
82356SOL    HW148965  12.494   3.195   0.551
82356SOL    HW248966  12.617   3.265   0.497
82357SOL     OW48967   0.473  13.262   0.503
82357SOL    HW148968   0.444  13.182   0.546
82357SOL    HW248969   0.511  13.232   0.420
82358SOL     OW48970   7.771   1.591  10.412
82358SOL    HW148971   7.814   1.676  10.419
82358SOL    HW248972   7.709   1.589  10.484
82359SOL     OW48973   6.060  12.321  14.034
82359SOL    HW148974   6.079  12.318  14.128
82359SOL    HW248975   6.126  12.264  13.994
82360SOL     OW48976  13.958   3.509   9.549
82360SOL    HW148977  13.977   3.555   9.467
82360SOL    HW248978  13.958   3.416   9.525
82361SOL     OW48979   5.162   9.008  14.321
82361SOL    HW148980   5.202   9.053  14.247
82361SOL    HW248981   5.220   9.026  14.394
82362SOL     OW48982  11.110   4.270   9.410
82362SOL    HW148983  11.190   4.280   9.358
82362SOL    HW248984  11.140   4.271   9.501
82363SOL     OW48985  11.581  12.152   5.851
82363SOL    HW148986  11.574  12.247   5.865
82363SOL    HW248987  11.516  12.115   5.910
82364SOL     OW48988  11.382   6.708  10.331
82364SOL    HW148989  11.346   6.626  10.364
82364SOL    HW248990  11.322   6.735  10.261
82365SOL     OW48991  12.200   2.187   1.015
82365SOL    HW148992  12.216   2.213   0.924
82365SOL    HW248993  12.268   2.123   1.034
82366SOL     OW48994  14.243   8.025   9.683
82366SOL    HW148995  14.160   8.069   9.666
82366SOL    HW248996  14.293   8.088   9.735
82367SOL     OW48997   1.208  14.401   7.041
82367SOL    HW148998   1.233  14.364   7.126
82367SOL    HW248999   1.271  14.472   7.026
82368SOL     OW49000  12.587   5.830   9.712
82368SOL    HW149001  12.617   5.746   9.745
82368SOL    HW249002  12.510   5.852   9.766
82369SOL     OW49003  10.197  11.489  10.097
82369SOL    HW149004  10.275  11.452  10.137
82369SOL    HW249005  10.169  11.558  10.157
82370SOL     OW49006  10.429   4.287   8.459
82370SOL    HW149007  10.388   4.315   8.377
82370SOL    HW249008  10.463   4.368   8.497
82371SOL     OW49009   5.361  11.087  12.840
82371SOL    HW149010   5.329  11.125  12.922
82371SOL    HW249011   5.452  11.065  12.858
82372SOL     OW49012   3.178   7.193   5.824
82372SOL    HW149013   3.141   7.233   5.902
82372SOL    HW249014   3.183   7.264   5.760
82373SOL     OW49015  11.939   4.413  12.227
82373SOL    HW149016  11.983   4.379  12.305
82373SOL    HW249017  12.008   4.421  12.162
82374SOL     OW49018   9.565   9.763  10.307
82374SOL    HW149019   9.639   9.823  10.301
82374SOL    HW249020   9.528   9.763  10.219
82375SOL     OW49021  13.646  10.273  10.230
82375SOL    HW149022  13.555  10.244  10.234
82375SOL    HW249023  13.690  10.207  10.177
82376SOL     OW49024   6.558   5.582  10.593
82376SOL    HW149025   6.467   5.585  10.563
82376SOL    HW249026   6.573   5.669  10.631
82377SOL     OW49027  11.716   7.196   3.566
82377SOL    HW149028  11.704   7.290   3.581
82377SOL    HW249029  11.668   7.179   3.486
82378SOL     OW49030   4.914   7.512  14.301
82378SOL    HW149031   5.009   7.512  14.313
82378SOL    HW249032   4.880   7.464  14.377
82379SOL     OW49033  10.810   3.179   7.380
82379SOL    HW149034  10.731   3.233   7.391
82379SOL    HW249035  10.851   3.180   7.467
82380SOL     OW49036   8.379   0.511   4.309
82380SOL    HW149037   8.289   0.511   4.343
82380SOL    HW249038   8.433   0.533   4.384
82381SOL     OW49039   3.623  13.187   8.364
82381SOL    HW149040   3.627  13.244   8.441
82381SOL    HW249041   3.689  13.120   8.381
82382SOL     OW49042   5.173   8.328  14.162
82382SOL    HW149043   5.251   8.286  14.197
82382SOL    HW249044   5.125   8.358  14.240
82383SOL     OW49045   4.133   7.195  14.164
82383SOL    HW149046   4.214   7.204  14.215
82383SOL    HW249047   4.100   7.284  14.156
82384SOL     OW49048   6.437  12.773   2.703
82384SOL    HW149049   6.411  12.865   2.700
82384SOL    HW249050   6.530  12.774   2.725
82385SOL     OW49051  11.668  10.157   5.930
82385SOL    HW149052  11.610  10.180   6.002
82385SOL    HW249053  11.686  10.064   5.942
82386SOL     OW49054  12.493   2.755   3.345
82386SOL    HW149055  12.444   2.789   3.269
82386SOL    HW249056  12.583   2.750   3.315
82387SOL     OW49057   6.990   9.869   5.117
82387SOL    HW149058   6.973   9.956   5.155
82387SOL    HW249059   6.950   9.874   5.030
82388SOL     OW49060   6.517   9.041  14.704
82388SOL    HW149061   6.580   8.974  14.677
82388SOL    HW249062   6.555   9.078  14.784
82389SOL     OW49063   3.358   3.714  10.282
82389SOL    HW149064   3.409   3.789  10.250
82389SOL    HW249065   3.283   3.710  10.222
82390SOL     OW49066   0.263   1.005  14.084
82390SOL    HW149067   0.208   0.959  14.147
82390SOL    HW249068   0.283   1.088  14.127
82391SOL     OW49069   3.020  11.158   8.017
82391SOL    HW149070   3.055  11.221   7.953
82391SOL    HW249071   3.093  11.143   8.078
82392SOL     OW49072   3.658   5.089   0.179
82392SOL    HW149073   3.671   5.183   0.189
82392SOL    HW249074   3.744   5.051   0.197
82393SOL     OW49075   2.979   9.052   2.766
82393SOL    HW149076   3.042   9.106   2.718
82393SOL    HW249077   2.954   8.983   2.704
82394SOL     OW49078   9.992   5.827   3.599
82394SOL    HW149079  10.011   5.919   3.582
82394SOL    HW249080  10.017   5.815   3.691
82395SOL     OW49081   2.379   8.190   5.155
82395SOL    HW149082   2.432   8.250   5.207
82395SOL    HW249083   2.441   8.125   5.121
82396SOL     OW49084  11.158   8.943  14.594
82396SOL    HW149085  11.106   9.022  14.583
82396SOL    HW249086  11.169   8.909  14.505
82397SOL     OW49087  12.616   4.148  10.360
82397SOL    HW149088  12.582   4.229  10.398
82397SOL    HW249089  12.552   4.081  10.386
82398SOL     OW49090   3.317  12.399  11.032
82398SOL    HW149091   3.395  12.389  10.977
82398SOL    HW249092   3.245  12.367  10.977
82399SOL     OW49093  14.225   4.483  14.551
82399SOL    HW149094  14.197   4.425  14.480
82399SOL    HW249095  14.172   4.457  14.626
82400SOL     OW49096  10.045   5.231   0.715
82400SOL    HW149097  10.058   5.322   0.739
82400SOL    HW249098  10.134   5.196   0.702
82401SOL     OW49099   4.758   3.279  10.528
82401SOL    HW149100   4.763   3.197  10.480
82401SOL    HW249101   4.842   3.288  10.571
82402SOL     OW49102   0.612   8.078   1.289
82402SOL    HW149103   0.559   8.114   1.360
82402SOL    HW249104   0.651   7.999   1.326
82403SOL     OW49105   7.600  13.257   0.143
82403SOL    HW149106   7.547  13.253   0.222
82403SOL    HW249107   7.597  13.349   0.117
82404SOL     OW49108   3.152   4.846   5.145
82404SOL    HW149109   3.209   4.772   5.166
82404SOL    HW249110   3.199   4.894   5.077
82405SOL     OW49111   1.441   1.032   6.791
82405SOL    HW149112   1.453   1.021   6.885
82405SOL    HW249113   1.416   0.945   6.760
82406SOL     OW49114  14.641   9.705   4.816
82406SOL    HW149115  14.672   9.686   4.905
82406SOL    HW249116  14.568   9.766   4.828
82407SOL     OW49117  12.553  12.510  13.504
82407SOL    HW149118  12.555  12.446  13.574
82407SOL    HW249119  12.597  12.467  13.430
82408SOL     OW49120  13.116   9.512   2.927
82408SOL    HW149121  13.176   9.511   3.002
82408SOL    HW249122  13.053   9.582   2.948
82409SOL     OW49123   6.441  10.450   3.126
82409SOL    HW149124   6.397  10.366   3.111
82409SOL    HW249125   6.490  10.466   3.046
82410SOL     OW49126   9.597   1.833   5.374
82410SOL    HW149127   9.555   1.889   5.309
82410SOL    HW249128   9.527   1.808   5.434
82411SOL     OW49129  14.542  11.022   7.902
82411SOL    HW149130  14.588  11.063   7.975
82411SOL    HW249131  14.569  10.930   7.904
82412SOL     OW49132   7.563  13.086  12.836
82412SOL    HW149133   7.507  13.073  12.913
82412SOL    HW249134   7.647  13.115  12.871
82413SOL     OW49135  12.779   6.008   6.818
82413SOL    HW149136  12.825   5.974   6.894
82413SOL    HW249137  12.692   6.031   6.850
82414SOL     OW49138  14.398   4.033   6.077
82414SOL    HW149139  14.424   4.011   5.987
82414SOL    HW249140  14.327   3.973   6.097
82415SOL     OW49141   9.033  11.580  10.524
82415SOL    HW149142   8.987  11.496  10.523
82415SOL    HW249143   9.023  11.614  10.435
82416SOL     OW49144   2.348   8.827   1.672
82416SOL    HW149145   2.253   8.833   1.661
82416SOL    HW249146   2.376   8.765   1.605
82417SOL     OW49147   7.340  11.435   4.189
82417SOL    HW149148   7.315  11.527   4.186
82417SOL    HW249149   7.260  11.388   4.164
82418SOL     OW49150   9.864   0.882  11.312
82418SOL    HW149151   9.839   0.842  11.228
82418SOL    HW249152   9.925   0.951  11.288
82419SOL     OW49153   1.070  13.515   0.615
82419SOL    HW149154   1.140  13.504   0.679
82419SOL    HW249155   1.044  13.426   0.591
82420SOL     OW49156   2.147   0.906   8.592
82420SOL    HW149157   2.076   0.856   8.553
82420SOL    HW249158   2.214   0.910   8.524
82421SOL     OW49159   4.837   5.162   9.912
82421SOL    HW149160   4.837   5.115   9.828
82421SOL    HW249161   4.748   5.151   9.945
82422SOL     OW49162  14.364  11.517  13.699
82422SOL    HW149163  14.349  11.578  13.771
82422SOL    HW249164  14.425  11.563  13.641
82423SOL     OW49165   7.734   2.968  13.314
82423SOL    HW149166   7.679   3.028  13.366
82423SOL    HW249167   7.765   3.022  13.241
82424SOL     OW49168   1.277  10.218  10.283
82424SOL    HW149169   1.260  10.207  10.376
82424SOL    HW249170   1.313  10.306  10.275
82425SOL     OW49171   4.010  13.301  11.930
82425SOL    HW149172   4.076  13.233  11.916
82425SOL    HW249173   3.929  13.252  11.946
82426SOL     OW49174  12.749   8.372  12.620
82426SOL    HW149175  12.827   8.406  12.663
82426SOL    HW249176  12.735   8.287  12.662
82427SOL     OW49177  13.147   1.852   3.935
82427SOL    HW149178  13.234   1.880   3.965
82427SOL    HW249179  13.091   1.928   3.947
82428SOL     OW49180   8.529   3.909  10.072
82428SOL    HW149181   8.551   3.987  10.123
82428SOL    HW249182   8.499   3.846  10.137
82429SOL     OW49183   7.246   1.654   2.900
82429SOL    HW149184   7.157   1.648   2.936
82429SOL    HW249185   7.255   1.745   2.872
82430SOL     OW49186   8.220   5.108   8.915
82430SOL    HW149187   8.129   5.083   8.899
82430SOL    HW249188   8.260   5.032   8.956
82431SOL     OW49189  12.168   3.833   7.654
82431SOL    HW149190  12.162   3.833   7.558
82431SOL    HW249191  12.077   3.839   7.683
82432SOL     OW49192   5.485  11.145   5.749
82432SOL    HW149193   5.423  11.085   5.706
82432SOL    HW249194   5.481  11.224   5.695
82433SOL     OW49195   5.912  11.599   5.730
82433SOL    HW149196   5.937  11.609   5.638
82433SOL    HW249197   5.821  11.567   5.726
82434SOL     OW49198   4.701   7.897   6.464
82434SOL    HW149199   4.694   7.964   6.532
82434SOL    HW249200   4.675   7.941   6.384
82435SOL     OW49201   1.782  12.429   1.058
82435SOL    HW149202   1.713  12.491   1.032
82435SOL    HW249203   1.853  12.485   1.091
82436SOL     OW49204   8.501   5.290   0.635
82436SOL    HW149205   8.463   5.310   0.550
82436SOL    HW249206   8.432   5.242   0.681
82437SOL     OW49207   3.628   1.095   1.709
82437SOL    HW149208   3.608   1.122   1.619
82437SOL    HW249209   3.556   1.131   1.761
82438SOL     OW49210   5.181  14.390   7.164
82438SOL    HW149211   5.230  14.381   7.246
82438SOL    HW249212   5.127  14.468   7.177
82439SOL     OW49213   5.904   5.008   4.806
82439SOL    HW149214   5.942   4.956   4.877
82439SOL    HW249215   5.972   5.010   4.738
82440SOL     OW49216  13.708   0.397   6.899
82440SOL    HW149217  13.803   0.386   6.905
82440SOL    HW249218  13.696   0.471   6.839
82441SOL     OW49219   9.265  12.829  13.497
82441SOL    HW149220   9.346  12.853  13.543
82441SOL    HW249221   9.199  12.889  13.532
82442SOL     OW49222   9.801   0.975  11.597
82442SOL    HW149223   9.886   0.931  11.605
82442SOL    HW249224   9.785   0.981  11.503
82443SOL     OW49225   1.865   9.709   2.981
82443SOL    HW149226   1.886   9.770   2.910
82443SOL    HW249227   1.930   9.727   3.048
82444SOL     OW49228   0.825   3.714   9.673
82444SOL    HW149229   0.830   3.634   9.622
82444SOL    HW249230   0.899   3.710   9.733
82445SOL     OW49231   6.013   5.259  11.362
82445SOL    HW149232   5.919   5.273  11.354
82445SOL    HW249233   6.047   5.273  11.273
82446SOL     OW49234   4.769  12.265   9.482
82446SOL    HW149235   4.726  12.349   9.467
82446SOL    HW249236   4.701  12.200   9.465
82447SOL     OW49237  12.513  12.298   0.447
82447SOL    HW149238  12.444  12.233   0.431
82447SOL    HW249239  12.574  12.286   0.375
82448SOL     OW49240   9.071   1.388   5.992
82448SOL    HW149241   9.059   1.436   5.911
82448SOL    HW249242   8.986   1.348   6.010
82449SOL     OW49243  12.137   3.634   1.506
82449SOL    HW149244  12.117   3.573   1.577
82449SOL    HW249245  12.209   3.688   1.540
82450SOL     OW49246   3.673  11.513   6.948
82450SOL    HW149247   3.737  11.466   7.001
82450SOL    HW249248   3.677  11.603   6.979
82451SOL     OW49249   7.567   1.174   5.660
82451SOL    HW149250   7.485   1.219   5.676
82451SOL    HW249251   7.559   1.138   5.572
82452SOL     OW49252   1.560  11.404   4.526
82452SOL    HW149253   1.643  11.447   4.548
82452SOL    HW249254   1.529  11.451   4.449
82453SOL     OW49255   9.499   5.609   2.969
82453SOL    HW149256   9.444   5.641   2.897
82453SOL    HW249257   9.536   5.527   2.938
82454SOL     OW49258  12.128  12.352   7.585
82454SOL    HW149259  12.128  12.381   7.676
82454SOL    HW249260  12.083  12.423   7.538
82455SOL     OW49261  12.464   0.255   6.540
82455SOL    HW149262  12.442   0.333   6.592
82455SOL    HW249263  12.559   0.247   6.548
82456SOL     OW49264   4.478   4.349   9.247
82456SOL    HW149265   4.538   4.331   9.320
82456SOL    HW249266   4.514   4.302   9.173
82457SOL     OW49267  14.351   1.651  11.051
82457SOL    HW149268  14.312   1.616  10.971
82457SOL    HW249269  14.277   1.657  11.112
82458SOL     OW49270   6.870  10.017  10.526
82458SOL    HW149271   6.917  10.015  10.608
82458SOL    HW249272   6.802   9.950  10.535
82459SOL     OW49273  10.114   5.677  10.646
82459SOL    HW149274  10.085   5.716  10.564
82459SOL    HW249275  10.070   5.591  10.648
82460SOL     OW49276   6.371  13.918   1.251
82460SOL    HW149277   6.364  13.826   1.224
82460SOL    HW249278   6.464  13.930   1.272
82461SOL     OW49279   3.299   0.699   4.627
82461SOL    HW149280   3.392   0.673   4.627
82461SOL    HW249281   3.252   0.616   4.615
82462SOL     OW49282   8.213   9.521  11.100
82462SOL    HW149283   8.260   9.509  11.017
82462SOL    HW249284   8.238   9.445  11.152
82463SOL     OW49285   0.812   6.773   5.248
82463SOL    HW149286   0.746   6.710   5.275
82463SOL    HW249287   0.883   6.720   5.212
82464SOL     OW49288   7.530   9.011  13.863
82464SOL    HW149289   7.471   8.988  13.934
82464SOL    HW249290   7.491   8.971  13.785
82465SOL     OW49291   3.849   0.815  13.788
82465SOL    HW149292   3.917   0.874  13.757
82465SOL    HW249293   3.807   0.862  13.860
82466SOL     OW49294   5.752   0.857   2.493
82466SOL    HW149295   5.829   0.912   2.506
82466SOL    HW249296   5.719   0.882   2.406
82467SOL     OW49297   9.878  11.100  13.129
82467SOL    HW149298   9.919  11.147  13.202
82467SOL    HW249299   9.924  11.131  13.051
82468SOL     OW49300  14.284   0.071   3.680
82468SOL    HW149301  14.252   0.037   3.764
82468SOL    HW249302  14.353   0.132   3.704
82469SOL     OW49303   8.355   3.741   8.460
82469SOL    HW149304   8.373   3.805   8.529
82469SOL    HW249305   8.428   3.750   8.399
82470SOL     OW49306  11.525  14.606   8.220
82470SOL    HW149307  11.559  14.636   8.304
82470SOL    HW249308  11.496  14.687   8.177
82471SOL     OW49309   9.890   5.273  11.153
82471SOL    HW149310   9.871   5.235  11.067
82471SOL    HW249311   9.975   5.236  11.177
82472SOL     OW49312  11.745  14.717   2.819
82472SOL    HW149313  11.659  14.744   2.787
82472SOL    HW249314  11.728  14.679   2.906
82473SOL     OW49315  10.796   0.464  14.606
82473SOL    HW149316  10.872   0.455  14.548
82473SOL    HW249317  10.826   0.432  14.691
82474SOL     OW49318   3.444   1.985  10.161
82474SOL    HW149319   3.485   1.969  10.246
82474SOL    HW249320   3.384   1.911  10.149
82475SOL     OW49321   1.936   1.838   3.949
82475SOL    HW149322   1.891   1.894   4.012
82475SOL    HW249323   2.017   1.885   3.929
82476SOL     OW49324   6.670   3.638   0.127
82476SOL    HW149325   6.619   3.682   0.196
82476SOL    HW249326   6.615   3.564   0.100
82477SOL     OW49327   7.297  10.021  12.326
82477SOL    HW149328   7.287  10.116  12.327
82477SOL    HW249329   7.388  10.007  12.301
82478SOL     OW49330  13.176   0.621  10.098
82478SOL    HW149331  13.102   0.575  10.057
82478SOL    HW249332  13.138   0.659  10.178
82479SOL     OW49333   6.618   0.853   6.882
82479SOL    HW149334   6.543   0.794   6.878
82479SOL    HW249335   6.653   0.842   6.970
82480SOL     OW49336  14.841   1.743   8.919
82480SOL    HW149337   0.025   1.675   8.898
82480SOL    HW249338   0.013   1.815   8.954
82481SOL     OW49339   6.235   2.778   7.327
82481SOL    HW149340   6.146   2.794   7.295
82481SOL    HW249341   6.248   2.684   7.318
82482SOL     OW49342   4.630   8.925  11.070
82482SOL    HW149343   4.619   8.958  10.981
82482SOL    HW249344   4.649   9.003  11.122
82483SOL     OW49345   3.864   2.398   4.058
82483SOL    HW149346   3.842   2.451   4.134
82483SOL    HW249347   3.929   2.336   4.090
82484SOL     OW49348   2.066   2.933   1.156
82484SOL    HW149349   2.039   2.987   1.082
82484SOL    HW249350   2.018   2.969   1.230
82485SOL     OW49351   4.022  11.892  11.204
82485SOL    HW149352   4.056  11.859  11.287
82485SOL    HW249353   4.026  11.817  11.145
82486SOL     OW49354  14.015  13.080   2.361
82486SOL    HW149355  14.100  13.036   2.370
82486SOL    HW249356  13.952  13.017   2.395
82487SOL     OW49357  11.127   2.007   7.482
82487SOL    HW149358  11.156   2.068   7.550
82487SOL    HW249359  11.142   1.920   7.520
82488SOL     OW49360  11.181  10.115  13.411
82488SOL    HW149361  11.117  10.045  13.423
82488SOL    HW249362  11.196  10.149  13.500
82489SOL     OW49363   5.191   7.219   5.326
82489SOL    HW149364   5.167   7.312   5.326
82489SOL    HW249365   5.188   7.193   5.418
82490SOL     OW49366  13.889   8.672   8.897
82490SOL    HW149367  13.942   8.656   8.975
82490SOL    HW249368  13.835   8.594   8.888
82491SOL     OW49369   4.309   8.844  11.491
82491SOL    HW149370   4.390   8.871  11.534
82491SOL    HW249371   4.323   8.863  11.399
82492SOL     OW49372   1.098   4.981  14.878
82492SOL    HW149373   1.188   4.972   0.032
82492SOL    HW249374   1.094   5.071  14.846
82493SOL     OW49375   5.553   7.992  10.458
82493SOL    HW149376   5.553   7.925  10.390
82493SOL    HW249377   5.598   7.951  10.532
82494SOL     OW49378  13.934  12.451   1.776
82494SOL    HW149379  13.956  12.437   1.868
82494SOL    HW249380  14.016  12.439   1.729
82495SOL     OW49381   5.887   6.817  11.224
82495SOL    HW149382   5.918   6.906  11.209
82495SOL    HW249383   5.958   6.761  11.193
82496SOL     OW49384   2.354  11.499   2.144
82496SOL    HW149385   2.349  11.448   2.064
82496SOL    HW249386   2.290  11.569   2.133
82497SOL     OW49387   5.233   2.053  13.965
82497SOL    HW149388   5.264   2.094  13.884
82497SOL    HW249389   5.142   2.082  13.974
82498SOL     OW49390  14.342  12.662   7.913
82498SOL    HW149391  14.345  12.724   7.840
82498SOL    HW249392  14.287  12.704   7.978
82499SOL     OW49393  12.402   7.182   8.476
82499SOL    HW149394  12.467   7.127   8.432
82499SOL    HW249395  12.320   7.135   8.464
82500SOL     OW49396   8.910   2.560   6.535
82500SOL    HW149397   8.827   2.607   6.530
82500SOL    HW249398   8.899   2.500   6.609
82501SOL     OW49399  10.512   1.821   5.282
82501SOL    HW149400  10.574   1.884   5.318
82501SOL    HW249401  10.450   1.875   5.232
82502SOL     OW49402  11.253   3.115  10.759
82502SOL    HW149403  11.267   3.055  10.832
82502SOL    HW249404  11.215   3.061  10.690
82503SOL     OW49405   1.784  11.360  11.993
82503SOL    HW149406   1.758  11.283  11.942
82503SOL    HW249407   1.770  11.434  11.933
82504SOL     OW49408   9.921  14.343   9.525
82504SOL    HW149409   9.841  14.328   9.575
82504SOL    HW249410   9.894  14.338   9.433
82505SOL     OW49411   2.159   7.957  12.456
82505SOL    HW149412   2.074   7.933  12.491
82505SOL    HW249413   2.219   7.947  12.530
82506SOL     OW49414  10.049   8.395   3.799
82506SOL    HW149415  10.095   8.423   3.878
82506SOL    HW249416  10.067   8.301   3.793
82507SOL     OW49417   5.469  10.389  10.652
82507SOL    HW149418   5.552  10.355  10.687
82507SOL    HW249419   5.407  10.318  10.663
82508SOL     OW49420  11.177   0.227  11.252
82508SOL    HW149421  11.165   0.133  11.252
82508SOL    HW249422  11.263   0.240  11.293
82509SOL     OW49423   6.451   1.627   6.545
82509SOL    HW149424   6.472   1.698   6.606
82509SOL    HW249425   6.378   1.661   6.492
82510SOL     OW49426   7.125   0.652   8.313
82510SOL    HW149427   7.098   0.564   8.338
82510SOL    HW249428   7.209   0.639   8.268
82511SOL     OW49429  10.507  12.403   6.489
82511SOL    HW149430  10.424  12.402   6.442
82511SOL    HW249431  10.519  12.494   6.516
82512SOL     OW49432  10.956   9.223   6.053
82512SOL    HW149433  10.986   9.303   6.096
82512SOL    HW249434  10.901   9.254   5.981
82513SOL     OW49435  10.897  13.473   6.349
82513SOL    HW149436  10.891  13.559   6.389
82513SOL    HW249437  10.889  13.489   6.255
82514SOL     OW49438   5.317  11.029   9.964
82514SOL    HW149439   5.329  10.968   9.892
82514SOL    HW249440   5.373  10.996  10.034
82515SOL     OW49441   4.456   0.216  11.206
82515SOL    HW149442   4.391   0.149  11.228
82515SOL    HW249443   4.468   0.266  11.287
82516SOL     OW49444   5.311  13.008   1.126
82516SOL    HW149445   5.397  13.048   1.139
82516SOL    HW249446   5.249  13.071   1.164
82517SOL     OW49447   9.906   3.125   2.363
82517SOL    HW149448   9.992   3.088   2.343
82517SOL    HW249449   9.922   3.180   2.440
82518SOL     OW49450   4.118   8.353   5.075
82518SOL    HW149451   4.185   8.395   5.022
82518SOL    HW249452   4.037   8.398   5.052
82519SOL     OW49453  11.069   0.596   6.471
82519SOL    HW149454  11.036   0.560   6.554
82519SOL    HW249455  11.020   0.677   6.459
82520SOL     OW49456   2.367   5.890  10.071
82520SOL    HW149457   2.414   5.879  10.153
82520SOL    HW249458   2.407   5.826  10.011
82521SOL     OW49459   3.954  11.510   8.380
82521SOL    HW149460   3.960  11.494   8.475
82521SOL    HW249461   4.037  11.551   8.358
82522SOL     OW49462  13.528   0.503   1.909
82522SOL    HW149463  13.617   0.504   1.944
82522SOL    HW249464  13.472   0.490   1.986
82523SOL     OW49465   7.002   5.524   7.433
82523SOL    HW149466   7.087   5.482   7.416
82523SOL    HW249467   6.971   5.482   7.513
82524SOL     OW49468   8.840  14.001  11.677
82524SOL    HW149469   8.862  13.909  11.661
82524SOL    HW249470   8.798  14.000  11.763
82525SOL     OW49471   0.137  12.640   9.745
82525SOL    HW149472   0.070  12.649   9.812
82525SOL    HW249473   0.192  12.568   9.775
82526SOL     OW49474   7.316   6.099  14.769
82526SOL    HW149475   7.401   6.056  14.757
82526SOL    HW249476   7.327   6.187  14.733
82527SOL     OW49477  12.266   9.852  14.068
82527SOL    HW149478  12.342   9.907  14.050
82527SOL    HW249479  12.295   9.794  14.138
82528SOL     OW49480   1.501   4.304   7.470
82528SOL    HW149481   1.583   4.334   7.430
82528SOL    HW249482   1.450   4.269   7.397
82529SOL     OW49483   3.963   1.980   1.599
82529SOL    HW149484   3.958   1.933   1.682
82529SOL    HW249485   3.909   1.930   1.539
82530SOL     OW49486   5.307  10.045   6.178
82530SOL    HW149487   5.360  10.050   6.258
82530SOL    HW249488   5.272  10.134   6.167
82531SOL     OW49489  14.862   5.905   4.145
82531SOL    HW149490  14.787   5.847   4.130
82531SOL    HW249491  14.833   5.961   4.217
82532SOL     OW49492  11.851  12.727   9.899
82532SOL    HW149493  11.816  12.739   9.811
82532SOL    HW249494  11.773  12.720   9.955
82533SOL     OW49495   2.089  10.394   5.076
82533SOL    HW149496   2.134  10.366   5.156
82533SOL    HW249497   2.023  10.457   5.105
82534SOL     OW49498   8.477  14.354   7.261
82534SOL    HW149499   8.513  14.417   7.198
82534SOL    HW249500   8.547  14.292   7.276
82535SOL     OW49501   1.545  11.245  12.089
82535SOL    HW149502   1.553  11.243  11.994
82535SOL    HW249503   1.603  11.316  12.117
82536SOL     OW49504   2.684   0.399   6.228
82536SOL    HW149505   2.677   0.488   6.196
82536SOL    HW249506   2.652   0.404   6.319
82537SOL     OW49507   5.004   2.598   6.566
82537SOL    HW149508   5.063   2.657   6.613
82537SOL    HW249509   4.932   2.583   6.628
82538SOL     OW49510   0.476  11.995   4.265
82538SOL    HW149511   0.545  12.058   4.249
82538SOL    HW249512   0.406  12.045   4.308
82539SOL     OW49513   0.907   2.542   9.293
82539SOL    HW149514   0.993   2.577   9.268
82539SOL    HW249515   0.910   2.451   9.265
82540SOL     OW49516   9.145   9.160  13.147
82540SOL    HW149517   9.152   9.227  13.080
82540SOL    HW249518   9.062   9.179  13.192
82541SOL     OW49519  14.245   6.826  10.129
82541SOL    HW149520  14.152   6.817  10.106
82541SOL    HW249521  14.251   6.911  10.173
82542SOL     OW49522   7.932   2.957  10.345
82542SOL    HW149523   8.013   2.933  10.392
82542SOL    HW249524   7.862   2.930  10.404
82543SOL     OW49525   9.307   9.549   4.982
82543SOL    HW149526   9.248   9.554   5.057
82543SOL    HW249527   9.250   9.557   4.906
82544SOL     OW49528  10.707  10.576  13.023
82544SOL    HW149529  10.658  10.614  12.950
82544SOL    HW249530  10.640  10.544  13.083
82545SOL     OW49531  14.400   1.657  11.467
82545SOL    HW149532  14.336   1.627  11.532
82545SOL    HW249533  14.351   1.660  11.384
82546SOL     OW49534   6.728   2.583  14.080
82546SOL    HW149535   6.783   2.564  14.004
82546SOL    HW249536   6.711   2.677  14.074
82547SOL     OW49537  13.182   8.706  13.108
82547SOL    HW149538  13.090   8.709  13.083
82547SOL    HW249539  13.221   8.641  13.049
82548SOL     OW49540   9.318  12.038   9.766
82548SOL    HW149541   9.324  12.071   9.856
82548SOL    HW249542   9.409  12.027   9.739
82549SOL     OW49543   9.812  11.566   6.761
82549SOL    HW149544   9.719  11.579   6.779
82549SOL    HW249545   9.846  11.655   6.747
82550SOL     OW49546   3.084  11.578   0.843
82550SOL    HW149547   3.055  11.630   0.768
82550SOL    HW249548   3.143  11.513   0.806
82551SOL     OW49549  11.131  11.959  14.064
82551SOL    HW149550  11.121  11.878  14.015
82551SOL    HW249551  11.176  12.018  14.005
82552SOL     OW49552  12.787   9.925  12.989
82552SOL    HW149553  12.721   9.857  12.994
82552SOL    HW249554  12.770   9.968  12.905
82553SOL     OW49555  12.531  14.721   4.929
82553SOL    HW149556  12.561  14.811   4.936
82553SOL    HW249557  12.545  14.684   5.016
82554SOL     OW49558   7.367  10.975  12.515
82554SOL    HW149559   7.286  10.974  12.567
82554SOL    HW249560   7.429  10.924  12.568
82555SOL     OW49561  11.468  10.567   1.861
82555SOL    HW149562  11.523  10.490   1.843
82555SOL    HW249563  11.455  10.607   1.775
82556SOL     OW49564   9.210  14.352   1.144
82556SOL    HW149565   9.191  14.262   1.118
82556SOL    HW249566   9.134  14.402   1.116
82557SOL     OW49567  12.148  10.276   4.006
82557SOL    HW149568  12.214  10.334   4.043
82557SOL    HW249569  12.067  10.302   4.049
82558SOL     OW49570   6.562   0.582   9.074
82558SOL    HW149571   6.527   0.537   9.150
82558SOL    HW249572   6.575   0.513   9.009
82559SOL     OW49573   0.906   8.191   2.170
82559SOL    HW149574   0.820   8.156   2.194
82559SOL    HW249575   0.948   8.119   2.122
82560SOL     OW49576   2.593   3.314   2.982
82560SOL    HW149577   2.609   3.404   2.953
82560SOL    HW249578   2.498   3.303   2.974
82561SOL     OW49579   1.025  13.332   9.608
82561SOL    HW149580   1.012  13.268   9.678
82561SOL    HW249581   0.950  13.391   9.615
82562SOL     OW49582  12.046   4.513  11.199
82562SOL    HW149583  12.091   4.497  11.282
82562SOL    HW249584  11.972   4.452  11.199
82563SOL     OW49585   0.258   5.050   4.824
82563SOL    HW149586   0.315   5.121   4.795
82563SOL    HW249587   0.252   4.992   4.747
82564SOL     OW49588   1.123  10.378   7.954
82564SOL    HW149589   1.061  10.439   7.994
82564SOL    HW249590   1.198  10.432   7.930
82565SOL     OW49591   6.546  14.302  11.984
82565SOL    HW149592   6.500  14.309  11.900
82565SOL    HW249593   6.637  14.325  11.963
82566SOL     OW49594   2.971  13.400   6.834
82566SOL    HW149595   2.876  13.391   6.827
82566SOL    HW249596   2.993  13.475   6.778
82567SOL     OW49597   9.879   3.677   0.724
82567SOL    HW149598   9.785   3.659   0.733
82567SOL    HW249599   9.883   3.752   0.664
82568SOL     OW49600   9.862  12.219  11.924
82568SOL    HW149601   9.908  12.144  11.887
82568SOL    HW249602   9.771  12.189  11.933
82569SOL     OW49603  13.595   3.274  12.387
82569SOL    HW149604  13.638   3.317  12.312
82569SOL    HW249605  13.537   3.209  12.347
82570SOL     OW49606   5.762   3.236   4.707
82570SOL    HW149607   5.731   3.327   4.707
82570SOL    HW249608   5.779   3.217   4.799
82571SOL     OW49609   0.938   0.060  13.322
82571SOL    HW149610   0.846   0.054  13.296
82571SOL    HW249611   0.975   0.128  13.266
82572SOL     OW49612   4.266  12.704   9.577
82572SOL    HW149613   4.340  12.698   9.638
82572SOL    HW249614   4.208  12.632   9.604
82573SOL     OW49615   6.571   3.633   9.162
82573SOL    HW149616   6.607   3.633   9.250
82573SOL    HW249617   6.617   3.562   9.117
82574SOL     OW49618   8.527  14.255   6.126
82574SOL    HW149619   8.463  14.300   6.071
82574SOL    HW249620   8.491  14.263   6.215
82575SOL     OW49621  13.872   6.237   1.203
82575SOL    HW149622  13.840   6.276   1.121
82575SOL    HW249623  13.837   6.294   1.272
82576SOL     OW49624   7.798   3.530  13.453
82576SOL    HW149625   7.819   3.480  13.375
82576SOL    HW249626   7.864   3.600  13.456
82577SOL     OW49627  11.655   3.881  12.498
82577SOL    HW149628  11.743   3.902  12.528
82577SOL    HW249629  11.597   3.934  12.553
82578SOL     OW49630   8.981   4.649   1.467
82578SOL    HW149631   9.009   4.711   1.400
82578SOL    HW249632   9.041   4.575   1.458
82579SOL     OW49633  13.026  10.480   8.062
82579SOL    HW149634  13.036  10.465   7.968
82579SOL    HW249635  13.027  10.393   8.101
82580SOL     OW49636  12.171   4.031   8.552
82580SOL    HW149637  12.260   3.999   8.537
82580SOL    HW249638  12.132   3.966   8.611
82581SOL     OW49639  11.951   0.357   5.927
82581SOL    HW149640  12.020   0.406   5.883
82581SOL    HW249641  11.889   0.335   5.857
82582SOL     OW49642  14.034  11.695  11.159
82582SOL    HW149643  13.966  11.742  11.110
82582SOL    HW249644  14.064  11.627  11.099
82583SOL     OW49645   4.856   8.348   7.843
82583SOL    HW149646   4.769   8.321   7.873
82583SOL    HW249647   4.914   8.330   7.917
82584SOL     OW49648  13.397  12.749   3.121
82584SOL    HW149649  13.374  12.776   3.210
82584SOL    HW249650  13.314  12.753   3.073
82585SOL     OW49651  10.139   1.643   4.380
82585SOL    HW149652  10.078   1.633   4.453
82585SOL    HW249653  10.225   1.650   4.422
82586SOL     OW49654   9.926  14.630  13.951
82586SOL    HW149655   9.985  14.557  13.932
82586SOL    HW249656   9.972  14.683  14.015
82587SOL     OW49657  12.211   0.840  13.965
82587SOL    HW149658  12.185   0.906  14.029
82587SOL    HW249659  12.264   0.777  14.015
82588SOL     OW49660  10.710   9.495   3.265
82588SOL    HW149661  10.762   9.549   3.326
82588SOL    HW249662  10.628   9.479   3.311
82589SOL     OW49663   2.443   9.944  10.674
82589SOL    HW149664   2.479   9.997  10.745
82589SOL    HW249665   2.517   9.893  10.642
82590SOL     OW49666   5.883   3.424  14.763
82590SOL    HW149667   5.833   3.427  14.681
82590SOL    HW249668   5.825   3.378  14.824
82591SOL     OW49669  13.950   7.531   7.111
82591SOL    HW149670  14.009   7.581   7.168
82591SOL    HW249671  13.867   7.578   7.116
82592SOL     OW49672   2.549   2.452  12.870
82592SOL    HW149673   2.499   2.494  12.941
82592SOL    HW249674   2.627   2.506  12.860
82593SOL     OW49675   2.093  14.426   3.954
82593SOL    HW149676   2.158  14.496   3.953
82593SOL    HW249677   2.143  14.346   3.936
82594SOL     OW49678   9.549  13.412   1.982
82594SOL    HW149679   9.460  13.422   2.017
82594SOL    HW249680   9.594  13.358   2.047
82595SOL     OW49681  14.782  13.181   9.756
82595SOL    HW149682  14.860  13.132   9.730
82595SOL    HW249683  14.714  13.153   9.695
82596SOL     OW49684   9.606   9.288   4.073
82596SOL    HW149685   9.570   9.214   4.025
82596SOL    HW249686   9.566   9.281   4.160
82597SOL     OW49687   4.888  14.307   0.365
82597SOL    HW149688   4.953  14.361   0.320
82597SOL    HW249689   4.865  14.357   0.443
82598SOL     OW49690   6.713   9.640   8.172
82598SOL    HW149691   6.655   9.636   8.096
82598SOL    HW249692   6.695   9.559   8.219
82599SOL     OW49693   4.264   3.809  14.078
82599SOL    HW149694   4.307   3.864  14.013
82599SOL    HW249695   4.177   3.848  14.089
82600SOL     OW49696  11.844  11.366   7.836
82600SOL    HW149697  11.753  11.337   7.838
82600SOL    HW249698  11.867  11.377   7.928
82601SOL     OW49699   7.498   5.981  13.992
82601SOL    HW149700   7.480   6.054  14.051
82601SOL    HW249701   7.581   5.945  14.024
82602SOL     OW49702   5.693   6.146   1.168
82602SOL    HW149703   5.751   6.159   1.093
82602SOL    HW249704   5.746   6.174   1.244
82603SOL     OW49705  10.123  12.192   9.401
82603SOL    HW149706  10.053  12.239   9.355
82603SOL    HW249707  10.149  12.250   9.472
82604SOL     OW49708   7.335   3.303   1.336
82604SOL    HW149709   7.406   3.360   1.305
82604SOL    HW249710   7.265   3.363   1.361
82605SOL     OW49711   5.308   3.585   6.035
82605SOL    HW149712   5.343   3.590   5.946
82605SOL    HW249713   5.248   3.510   6.033
82606SOL     OW49714  12.420  11.932   8.066
82606SOL    HW149715  12.348  11.991   8.086
82606SOL    HW249716  12.480  11.983   8.012
82607SOL     OW49717   4.379   8.206   9.848
82607SOL    HW149718   4.409   8.229   9.760
82607SOL    HW249719   4.362   8.291   9.890
82608SOL     OW49720   4.428   1.733   9.061
82608SOL    HW149721   4.489   1.671   9.101
82608SOL    HW249722   4.396   1.786   9.133
82609SOL     OW49723   2.150   1.217   5.768
82609SOL    HW149724   2.236   1.175   5.767
82609SOL    HW249725   2.122   1.211   5.860
82610SOL     OW49726   1.436  13.398   0.088
82610SOL    HW149727   1.376  13.325   0.104
82610SOL    HW249728   1.518  13.370   0.129
82611SOL     OW49729  12.168   9.469  10.202
82611SOL    HW149730  12.183   9.434  10.114
82611SOL    HW249731  12.224   9.417  10.259
82612SOL     OW49732   2.460  10.831   9.235
82612SOL    HW149733   2.484  10.740   9.253
82612SOL    HW249734   2.484  10.879   9.314
82613SOL     OW49735   1.812  11.755  10.194
82613SOL    HW149736   1.862  11.801  10.128
82613SOL    HW249737   1.740  11.714  10.146
82614SOL     OW49738   1.116   6.249  14.076
82614SOL    HW149739   1.163   6.310  14.133
82614SOL    HW249740   1.026   6.249  14.110
82615SOL     OW49741  13.770   0.548   2.289
82615SOL    HW149742  13.697   0.563   2.349
82615SOL    HW249743  13.841   0.602   2.323
82616SOL     OW49744  12.335   6.373   2.866
82616SOL    HW149745  12.353   6.280   2.854
82616SOL    HW249746  12.422   6.412   2.878
82617SOL     OW49747   2.128   7.946   5.340
82617SOL    HW149748   2.074   8.007   5.289
82617SOL    HW249749   2.087   7.945   5.426
82618SOL     OW49750  13.115  10.834   5.532
82618SOL    HW149751  13.141  10.805   5.444
82618SOL    HW249752  13.020  10.831   5.531
82619SOL     OW49753   3.341   5.131   2.860
82619SOL    HW149754   3.268   5.080   2.895
82619SOL    HW249755   3.417   5.106   2.913
82620SOL     OW49756   0.127   0.545   9.155
82620SOL    HW149757   0.093   0.521   9.241
82620SOL    HW249758   0.189   0.476   9.133
82621SOL     OW49759   1.862   7.214   3.450
82621SOL    HW149760   1.797   7.214   3.381
82621SOL    HW249761   1.818   7.254   3.525
82622SOL     OW49762  12.926  11.671   5.393
82622SOL    HW149763  12.963  11.586   5.416
82622SOL    HW249764  12.980  11.703   5.322
82623SOL     OW49765   1.087   9.468   0.336
82623SOL    HW149766   1.164   9.448   0.283
82623SOL    HW249767   1.094   9.410   0.411
82624SOL     OW49768   7.644   2.644   4.179
82624SOL    HW149769   7.550   2.631   4.191
82624SOL    HW249770   7.654   2.740   4.176
82625SOL     OW49771   6.982   1.778   2.578
82625SOL    HW149772   7.078   1.783   2.578
82625SOL    HW249773   6.962   1.695   2.533
82626SOL     OW49774  14.754  10.618   6.416
82626SOL    HW149775  14.804  10.692   6.450
82626SOL    HW249776  14.681  10.608   6.476
82627SOL     OW49777   6.484  13.933   5.384
82627SOL    HW149778   6.554  13.915   5.321
82627SOL    HW249779   6.404  13.906   5.340
82628SOL     OW49780   6.852  14.703  11.648
82628SOL    HW149781   6.820  14.641  11.713
82628SOL    HW249782   6.773  14.730  11.600
82629SOL     OW49783   7.037  14.121   9.077
82629SOL    HW149784   7.035  14.157   9.165
82629SOL    HW249785   7.130  14.123   9.052
82630SOL     OW49786  10.606   7.698   0.899
82630SOL    HW149787  10.563   7.697   0.814
82630SOL    HW249788  10.550   7.754   0.953
82631SOL     OW49789  10.684   1.538   2.932
82631SOL    HW149790  10.695   1.449   2.965
82631SOL    HW249791  10.615   1.575   2.988
82632SOL     OW49792   8.508   1.659   5.550
82632SOL    HW149793   8.453   1.625   5.620
82632SOL    HW249794   8.595   1.622   5.568
82633SOL     OW49795   7.067  13.693  10.328
82633SOL    HW149796   6.977  13.698  10.360
82633SOL    HW249797   7.081  13.601  10.309
82634SOL     OW49798   1.899   5.474   7.686
82634SOL    HW149799   1.940   5.558   7.704
82634SOL    HW249800   1.822   5.472   7.742
82635SOL     OW49801  12.812   9.530   1.608
82635SOL    HW149802  12.741   9.467   1.616
82635SOL    HW249803  12.771   9.607   1.567
82636SOL     OW49804   9.273   5.705  10.404
82636SOL    HW149805   9.217   5.631  10.380
82636SOL    HW249806   9.352   5.693  10.351
82637SOL     OW49807   2.496   0.887  13.164
82637SOL    HW149808   2.448   0.841  13.095
82637SOL    HW249809   2.467   0.845  13.245
82638SOL     OW49810   3.867  12.467   8.283
82638SOL    HW149811   3.895  12.410   8.212
82638SOL    HW249812   3.776  12.443   8.299
82639SOL     OW49813   0.307  14.093   4.955
82639SOL    HW149814   0.379  14.137   4.999
82639SOL    HW249815   0.320  14.112   4.862
82640SOL     OW49816   1.483  11.450   2.050
82640SOL    HW149817   1.547  11.383   2.075
82640SOL    HW249818   1.471  11.502   2.130
82641SOL     OW49819  11.178   0.347   8.930
82641SOL    HW149820  11.238   0.310   8.866
82641SOL    HW249821  11.212   0.318   9.015
82642SOL     OW49822   2.425   3.908  12.019
82642SOL    HW149823   2.466   3.982  11.974
82642SOL    HW249824   2.331   3.921  12.007
82643SOL     OW49825   8.254  12.766  10.102
82643SOL    HW149826   8.330  12.743  10.155
82643SOL    HW249827   8.290  12.811  10.025
82644SOL     OW49828   6.147   4.561  10.191
82644SOL    HW149829   6.141   4.466  10.187
82644SOL    HW249830   6.118   4.584  10.280
82645SOL     OW49831   9.816   6.090   5.711
82645SOL    HW149832   9.846   6.017   5.767
82645SOL    HW249833   9.853   6.071   5.625
82646SOL     OW49834   8.949  13.469   1.023
82646SOL    HW149835   8.972  13.444   0.934
82646SOL    HW249836   9.029  13.508   1.058
82647SOL     OW49837   1.517   7.152   1.303
82647SOL    HW149838   1.587   7.121   1.361
82647SOL    HW249839   1.437   7.119   1.342
82648SOL     OW49840   4.135   2.512  12.947
82648SOL    HW149841   4.132   2.454  13.023
82648SOL    HW249842   4.066   2.480  12.889
82649SOL     OW49843   9.326   1.680   3.718
82649SOL    HW149844   9.307   1.597   3.673
82649SOL    HW249845   9.407   1.663   3.767
82650SOL     OW49846   0.543   8.011  14.587
82650SOL    HW149847   0.517   8.100  14.610
82650SOL    HW249848   0.585   7.977  14.665
82651SOL     OW49849   7.262   3.257   9.381
82651SOL    HW149850   7.260   3.210   9.297
82651SOL    HW249851   7.299   3.343   9.360
82652SOL     OW49852   6.430   8.743  13.969
82652SOL    HW149853   6.399   8.821  13.924
82652SOL    HW249854   6.405   8.756  14.060
82653SOL     OW49855   1.962   6.482   2.892
82653SOL    HW149856   1.887   6.483   2.833
82653SOL    HW249857   2.008   6.564   2.873
82654SOL     OW49858   8.608   7.223   3.129
82654SOL    HW149859   8.678   7.197   3.069
82654SOL    HW249860   8.647   7.216   3.216
82655SOL     OW49861  14.724  11.825   7.215
82655SOL    HW149862  14.688  11.742   7.184
82655SOL    HW249863  14.804  11.837   7.165
82656SOL     OW49864  12.797  12.676   1.773
82656SOL    HW149865  12.718  12.723   1.749
82656SOL    HW249866  12.835  12.727   1.844
82657SOL     OW49867  10.255   4.619   7.922
82657SOL    HW149868  10.223   4.643   7.835
82657SOL    HW249869  10.208   4.537   7.942
82658SOL     OW49870  13.174   2.112   1.642
82658SOL    HW149871  13.090   2.124   1.688
82658SOL    HW249872  13.193   2.019   1.650
82659SOL     OW49873   8.455   0.767   1.186
82659SOL    HW149874   8.499   0.683   1.177
82659SOL    HW249875   8.410   0.762   1.271
82660SOL     OW49876   9.807   6.676   1.922
82660SOL    HW149877   9.713   6.679   1.908
82660SOL    HW249878   9.823   6.734   1.996
82661SOL     OW49879   3.122   6.289  11.144
82661SOL    HW149880   3.179   6.227  11.099
82661SOL    HW249881   3.120   6.258  11.235
82662SOL     OW49882  12.446  14.402  14.677
82662SOL    HW149883  12.532  14.446  14.671
82662SOL    HW249884  12.462  14.314  14.642
82663SOL     OW49885   0.257  12.055   2.024
82663SOL    HW149886   0.302  11.974   2.047
82663SOL    HW249887   0.256  12.055   1.928
82664SOL     OW49888   9.173   2.492   4.021
82664SOL    HW149889   9.128   2.429   4.077
82664SOL    HW249890   9.133   2.480   3.935
82665SOL     OW49891   3.725   2.905  11.194
82665SOL    HW149892   3.740   2.961  11.118
82665SOL    HW249893   3.692   2.823  11.157
82666SOL     OW49894  13.921  13.227  11.745
82666SOL    HW149895  14.001  13.240  11.696
82666SOL    HW249896  13.950  13.203  11.833
82667SOL     OW49897   8.852   6.748   2.997
82667SOL    HW149898   8.767   6.771   3.035
82667SOL    HW249899   8.851   6.653   2.992
82668SOL     OW49900   7.462   5.291   1.262
82668SOL    HW149901   7.557   5.294   1.279
82668SOL    HW249902   7.443   5.198   1.249
82669SOL     OW49903  12.370   4.191   3.286
82669SOL    HW149904  12.388   4.246   3.209
82669SOL    HW249905  12.289   4.146   3.264
82670SOL     OW49906   0.788   0.956  11.544
82670SOL    HW149907   0.855   0.956  11.476
82670SOL    HW249908   0.790   0.866  11.579
82671SOL     OW49909  12.090   4.602  12.738
82671SOL    HW149910  12.003   4.564  12.731
82671SOL    HW249911  12.120   4.575  12.825
82672SOL     OW49912   6.330   6.411   7.915
82672SOL    HW149913   6.286   6.391   7.833
82672SOL    HW249914   6.421   6.383   7.901
82673SOL     OW49915   8.834   5.682  13.553
82673SOL    HW149916   8.836   5.746  13.481
82673SOL    HW249917   8.891   5.611  13.523
82674SOL     OW49918  11.928   6.483   6.917
82674SOL    HW149919  11.869   6.435   6.975
82674SOL    HW249920  11.947   6.564   6.965
82675SOL     OW49921   2.009  10.481  10.116
82675SOL    HW149922   1.955  10.441  10.048
82675SOL    HW249923   2.020  10.572  10.088
82676SOL     OW49924   3.456   6.491   8.400
82676SOL    HW149925   3.393   6.518   8.468
82676SOL    HW249926   3.442   6.554   8.329
82677SOL     OW49927   4.224   3.587  13.670
82677SOL    HW149928   4.310   3.544  13.670
82677SOL    HW249929   4.173   3.537  13.606
82678SOL     OW49930  13.444  13.120  13.996
82678SOL    HW149931  13.355  13.137  13.965
82678SOL    HW249932  13.432  13.062  14.071
82679SOL     OW49933  12.434  12.306   2.062
82679SOL    HW149934  12.416  12.275   2.150
82679SOL    HW249935  12.443  12.401   2.071
82680SOL     OW49936  14.489   7.404  14.243
82680SOL    HW149937  14.572   7.378  14.205
82680SOL    HW249938  14.449   7.323  14.273
82681SOL     OW49939   2.015   9.940  10.436
82681SOL    HW149940   2.106   9.912  10.428
82681SOL    HW249941   1.967   9.883  10.376
82682SOL     OW49942   8.275   3.072   8.505
82682SOL    HW149943   8.215   3.145   8.489
82682SOL    HW249944   8.269   3.018   8.427
82683SOL     OW49945  13.720  14.140  13.034
82683SOL    HW149946  13.675  14.168  12.954
82683SOL    HW249947  13.649  14.119  13.095
82684SOL     OW49948   8.437   1.299   3.226
82684SOL    HW149949   8.387   1.343   3.296
82684SOL    HW249950   8.376   1.235   3.190
82685SOL     OW49951   9.510  13.896  13.949
82685SOL    HW149952   9.420  13.925  13.968
82685SOL    HW249953   9.505  13.800  13.952
82686SOL     OW49954  11.999   2.484  13.350
82686SOL    HW149955  12.016   2.479  13.444
82686SOL    HW249956  11.917   2.436  13.339
82687SOL     OW49957   1.201   6.370   8.267
82687SOL    HW149958   1.209   6.462   8.243
82687SOL    HW249959   1.292   6.339   8.274
82688SOL     OW49960   0.413  13.759   0.104
82688SOL    HW149961   0.496  13.743   0.058
82688SOL    HW249962   0.439  13.796   0.188
82689SOL     OW49963  14.545   4.350   7.357
82689SOL    HW149964  14.485   4.321   7.288
82689SOL    HW249965  14.509   4.435   7.385
82690SOL     OW49966  12.690   4.316   1.830
82690SOL    HW149967  12.705   4.411   1.831
82690SOL    HW249968  12.773   4.279   1.859
82691SOL     OW49969   3.539   0.360   5.830
82691SOL    HW149970   3.444   0.346   5.832
82691SOL    HW249971   3.555   0.419   5.904
82692SOL     OW49972   8.877   1.437  12.699
82692SOL    HW149973   8.893   1.344  12.714
82692SOL    HW249974   8.793   1.440  12.653
82693SOL     OW49975   9.757   4.355   9.969
82693SOL    HW149976   9.847   4.374   9.994
82693SOL    HW249977   9.746   4.262   9.989
82694SOL     OW49978   4.249  10.284  10.624
82694SOL    HW149979   4.300  10.203  10.633
82694SOL    HW249980   4.281  10.322  10.542
82695SOL     OW49981   1.924   6.922  12.066
82695SOL    HW149982   1.869   6.996  12.090
82695SOL    HW249983   1.872   6.872  12.003
82696SOL     OW49984   1.778  12.805   8.880
82696SOL    HW149985   1.723  12.774   8.809
82696SOL    HW249986   1.728  12.875   8.922
82697SOL     OW49987   4.042   4.366   3.719
82697SOL    HW149988   4.117   4.426   3.723
82697SOL    HW249989   4.005   4.380   3.632
82698SOL     OW49990   0.866  12.760  10.376
82698SOL    HW149991   0.847  12.828  10.440
82698SOL    HW249992   0.811  12.780  10.301
82699SOL     OW49993   4.931   8.226  12.941
82699SOL    HW149994   4.951   8.145  12.894
82699SOL    HW249995   4.996   8.228  13.012
82700SOL     OW49996   3.033  14.509   8.608
82700SOL    HW149997   3.018  14.519   8.514
82700SOL    HW249998   3.052  14.416   8.621
82701SOL     OW49999   7.424  10.032   9.090
82701SOL    HW150000   7.491  10.037   9.021
82701SOL    HW250001   7.469  10.064   9.169
82702SOL     OW50002   4.498  10.056   7.740
82702SOL    HW150003   4.567  10.051   7.674
82702SOL    HW250004   4.451   9.973   7.733
82703SOL     OW50005  10.124   9.092   9.940
82703SOL    HW150006  10.136   8.997   9.936
82703SOL    HW250007  10.121   9.111  10.034
82704SOL     OW50008   2.143  10.802  13.875
82704SOL    HW150009   2.114  10.894  13.878
82704SOL    HW250010   2.233  10.805  13.907
82705SOL     OW50011   8.650   1.208   2.366
82705SOL    HW150012   8.727   1.239   2.319
82705SOL    HW250013   8.576   1.236   2.311
82706SOL     OW50014   9.290   8.295   6.126
82706SOL    HW150015   9.342   8.367   6.162
82706SOL    HW250016   9.204   8.334   6.111
82707SOL     OW50017   5.925   0.844  12.826
82707SOL    HW150018   5.880   0.765  12.796
82707SOL    HW250019   5.898   0.854  12.917
82708SOL     OW50020  14.006  11.866   7.928
82708SOL    HW150021  14.064  11.911   7.867
82708SOL    HW250022  13.982  11.933   7.992
82709SOL     OW50023   7.596  11.482  12.254
82709SOL    HW150024   7.620  11.456  12.343
82709SOL    HW250025   7.540  11.411  12.222
82710SOL     OW50026   4.676  11.957   6.658
82710SOL    HW150027   4.681  12.052   6.644
82710SOL    HW250028   4.624  11.925   6.584
82711SOL     OW50029   9.661  10.717  10.585
82711SOL    HW150030   9.683  10.788  10.645
82711SOL    HW250031   9.566  10.723  10.575
82712SOL     OW50032   5.874  13.120   5.540
82712SOL    HW150033   5.969  13.104   5.540
82712SOL    HW250034   5.835  13.034   5.555
82713SOL     OW50035   4.969  12.999   8.626
82713SOL    HW150036   5.028  12.997   8.550
82713SOL    HW250037   5.016  13.052   8.691
82714SOL     OW50038   7.252   1.243   0.665
82714SOL    HW150039   7.253   1.240   0.761
82714SOL    HW250040   7.324   1.303   0.642
82715SOL     OW50041   4.285   0.629   9.963
82715SOL    HW150042   4.222   0.562   9.938
82715SOL    HW250043   4.336   0.589  10.033
82716SOL     OW50044  13.272  14.376  14.437
82716SOL    HW150045  13.206  14.423  14.386
82716SOL    HW250046  13.252  14.283  14.423
82717SOL     OW50047  10.145  13.217  12.065
82717SOL    HW150048  10.135  13.129  12.102
82717SOL    HW250049  10.169  13.201  11.974
82718SOL     OW50050   7.903   4.932   7.796
82718SOL    HW150051   7.930   4.947   7.887
82718SOL    HW250052   7.935   4.844   7.777
82719SOL     OW50053   1.645   1.815   9.723
82719SOL    HW150054   1.722   1.867   9.702
82719SOL    HW250055   1.674   1.724   9.717
82720SOL     OW50056   2.491   9.856   9.448
82720SOL    HW150057   2.517   9.792   9.514
82720SOL    HW250058   2.412   9.818   9.408
82721SOL     OW50059  13.558  13.661   9.416
82721SOL    HW150060  13.651  13.662   9.441
82721SOL    HW250061  13.559  13.667   9.321
82722SOL     OW50062   9.235   3.786   3.298
82722SOL    HW150063   9.185   3.858   3.260
82722SOL    HW250064   9.308   3.828   3.343
82723SOL     OW50065  10.620   8.010   6.565
82723SOL    HW150066  10.545   7.991   6.621
82723SOL    HW250067  10.641   7.926   6.523
82724SOL     OW50068   2.716   8.245   0.669
82724SOL    HW150069   2.659   8.235   0.745
82724SOL    HW250070   2.689   8.175   0.610
82725SOL     OW50071   1.190   7.993   0.449
82725SOL    HW150072   1.125   8.053   0.411
82725SOL    HW250073   1.153   7.969   0.534
82726SOL     OW50074  10.137   7.158   9.751
82726SOL    HW150075  10.071   7.102   9.711
82726SOL    HW250076  10.123   7.149   9.845
82727SOL     OW50077  11.762  12.081  12.583
82727SOL    HW150078  11.801  12.118  12.662
82727SOL    HW250079  11.836  12.059  12.527
82728SOL     OW50080  14.092   7.004   9.571
82728SOL    HW150081  14.104   7.082   9.517
82728SOL    HW250082  14.170   6.951   9.552
82729SOL     OW50083   6.228  12.746   5.600
82729SOL    HW150084   6.263  12.694   5.672
82729SOL    HW250085   6.227  12.836   5.634
82730SOL     OW50086  13.613   8.186   1.769
82730SOL    HW150087  13.701   8.190   1.731
82730SOL    HW250088  13.559   8.239   1.710
82731SOL     OW50089  10.594   5.682   3.716
82731SOL    HW150090  10.563   5.595   3.744
82731SOL    HW250091  10.583   5.681   3.621
82732SOL     OW50092   4.650   4.397   4.741
82732SOL    HW150093   4.670   4.425   4.652
82732SOL    HW250094   4.715   4.330   4.760
82733SOL     OW50095   4.970  14.381   4.315
82733SOL    HW150096   4.879  14.367   4.340
82733SOL    HW250097   4.982  14.476   4.322
82734SOL     OW50098  14.251  10.509  11.341
82734SOL    HW150099  14.177  10.570  11.352
82734SOL    HW250100  14.317  10.541  11.402
82735SOL     OW50101   1.781   9.536  11.153
82735SOL    HW150102   1.800   9.521  11.245
82735SOL    HW250103   1.776   9.448  11.115
82736SOL     OW50104   6.695  10.360   6.943
82736SOL    HW150105   6.614  10.410   6.946
82736SOL    HW250106   6.669  10.273   6.911
82737SOL     OW50107   1.592   8.295   1.946
82737SOL    HW150108   1.532   8.347   1.999
82737SOL    HW250109   1.629   8.232   2.008
82738SOL     OW50110   4.035  13.863   3.515
82738SOL    HW150111   3.969  13.847   3.583
82738SOL    HW250112   4.008  13.946   3.475
82739SOL     OW50113   9.493   9.128   8.480
82739SOL    HW150114   9.421   9.183   8.450
82739SOL    HW250115   9.467   9.100   8.568
82740SOL     OW50116   8.069   9.087   9.801
82740SOL    HW150117   8.059   9.169   9.850
82740SOL    HW250118   8.151   9.098   9.752
82741SOL     OW50119   3.960   8.929  14.396
82741SOL    HW150120   3.952   8.913  14.302
82741SOL    HW250121   4.033   8.991  14.404
82742SOL     OW50122  14.222  14.475   4.285
82742SOL    HW150123  14.233  14.510   4.373
82742SOL    HW250124  14.230  14.380   4.295
82743SOL     OW50125  14.143   8.948  13.276
82743SOL    HW150126  14.049   8.941  13.294
82743SOL    HW250127  14.153   9.032  13.232
82744SOL     OW50128   3.052  14.183  12.905
82744SOL    HW150129   3.063  14.098  12.948
82744SOL    HW250130   3.067  14.166  12.813
82745SOL     OW50131   0.173   6.782   7.945
82745SOL    HW150132   0.226   6.703   7.956
82745SOL    HW250133   0.228   6.852   7.981
82746SOL     OW50134  10.057  13.635   4.193
82746SOL    HW150135  10.065  13.602   4.282
82746SOL    HW250136   9.963  13.640   4.177
82747SOL     OW50137   2.828   9.941   2.612
82747SOL    HW150138   2.748   9.911   2.653
82747SOL    HW250139   2.804   9.959   2.521
82748SOL     OW50140   2.380   5.556   9.138
82748SOL    HW150141   2.342   5.559   9.050
82748SOL    HW250142   2.392   5.648   9.162
82749SOL     OW50143   0.041  14.317   2.791
82749SOL    HW150144   0.052  14.360   2.876
82749SOL    HW250145   0.057  14.386   2.727
82750SOL     OW50146   4.961  12.199   8.408
82750SOL    HW150147   4.887  12.196   8.348
82750SOL    HW250148   5.035  12.168   8.356
82751SOL     OW50149   9.572   5.085  14.466
82751SOL    HW150150   9.613   5.172  14.469
82751SOL    HW250151   9.560   5.068  14.372
82752SOL     OW50152   4.174   3.002   9.734
82752SOL    HW150153   4.087   2.964   9.739
82752SOL    HW250154   4.209   2.973   9.650
82753SOL     OW50155  12.970  13.767  14.081
82753SOL    HW150156  12.895  13.805  14.035
82753SOL    HW250157  12.934  13.691  14.126
82754SOL     OW50158   7.552  11.008   3.437
82754SOL    HW150159   7.491  11.013   3.510
82754SOL    HW250160   7.523  11.075   3.376
82755SOL     OW50161   5.839  13.978   4.816
82755SOL    HW150162   5.762  13.978   4.872
82755SOL    HW250163   5.872  13.888   4.821
82756SOL     OW50164   9.553   1.327   1.094
82756SOL    HW150165   9.464   1.307   1.123
82756SOL    HW250166   9.593   1.241   1.080
82757SOL     OW50167  10.653  11.626  11.498
82757SOL    HW150168  10.613  11.556  11.549
82757SOL    HW250169  10.746  11.620  11.518
82758SOL     OW50170   8.609  11.580  11.119
82758SOL    HW150171   8.585  11.657  11.169
82758SOL    HW250172   8.526  11.542  11.091
82759SOL     OW50173  12.983   8.569   3.749
82759SOL    HW150174  13.066   8.568   3.701
82759SOL    HW250175  12.923   8.518   3.695
82760SOL     OW50176   5.083   2.600  11.169
82760SOL    HW150177   5.161   2.622  11.220
82760SOL    HW250178   5.115   2.590  11.079
82761SOL     OW50179  12.932  10.150   3.522
82761SOL    HW150180  12.935  10.218   3.589
82761SOL    HW250181  12.964  10.192   3.443
82762SOL     OW50182  10.650   3.799   3.636
82762SOL    HW150183  10.589   3.824   3.706
82762SOL    HW250184  10.658   3.704   3.645
82763SOL     OW50185  10.056  13.480   4.418
82763SOL    HW150186  10.024  13.390   4.406
82763SOL    HW250187   9.987  13.523   4.469
82764SOL     OW50188   9.456  10.595  10.136
82764SOL    HW150189   9.509  10.633  10.066
82764SOL    HW250190   9.441  10.668  10.197
82765SOL     OW50191   6.241   0.402  11.572
82765SOL    HW150192   6.176   0.459  11.613
82765SOL    HW250193   6.210   0.390  11.482
82766SOL     OW50194   1.597   0.416   8.888
82766SOL    HW150195   1.623   0.424   8.796
82766SOL    HW250196   1.514   0.368   8.885
82767SOL     OW50197  10.944   3.849   7.890
82767SOL    HW150198  10.909   3.938   7.884
82767SOL    HW250199  10.967   3.826   7.799
82768SOL     OW50200   2.741   6.966   2.125
82768SOL    HW150201   2.834   6.967   2.104
82768SOL    HW250202   2.699   7.019   2.057
82769SOL     OW50203   1.420   3.386   7.002
82769SOL    HW150204   1.407   3.433   7.084
82769SOL    HW250205   1.385   3.446   6.935
82770SOL     OW50206   5.584   4.575   7.378
82770SOL    HW150207   5.527   4.652   7.371
82770SOL    HW250208   5.628   4.585   7.462
82771SOL     OW50209   9.106   3.977  11.948
82771SOL    HW150210   9.103   4.066  11.913
82771SOL    HW250211   9.180   3.936  11.904
82772SOL     OW50212  11.558  13.446  10.408
82772SOL    HW150213  11.484  13.434  10.467
82772SOL    HW250214  11.523  13.430  10.321
82773SOL     OW50215   8.773   1.584   4.704
82773SOL    HW150216   8.734   1.670   4.720
82773SOL    HW250217   8.744   1.561   4.615
82774SOL     OW50218  12.977   7.962  14.438
82774SOL    HW150219  12.903   8.004  14.482
82774SOL    HW250220  12.994   7.883  14.489
82775SOL     OW50221  13.071  12.589   1.319
82775SOL    HW150222  13.096  12.545   1.400
82775SOL    HW250223  13.154  12.610   1.276
82776SOL     OW50224   0.915   6.719   5.706
82776SOL    HW150225   1.003   6.686   5.723
82776SOL    HW250226   0.921   6.762   5.621
82777SOL     OW50227  10.458   4.830   7.113
82777SOL    HW150228  10.455   4.838   7.208
82777SOL    HW250229  10.398   4.759   7.092
82778SOL     OW50230   6.657  12.945   5.293
82778SOL    HW150231   6.576  12.979   5.255
82778SOL    HW250232   6.688  13.016   5.349
82779SOL     OW50233  12.561  13.399   3.910
82779SOL    HW150234  12.522  13.457   3.975
82779SOL    HW250235  12.488  13.347   3.878
82780SOL     OW50236  13.665   4.384   2.943
82780SOL    HW150237  13.760   4.383   2.936
82780SOL    HW250238  13.637   4.304   2.900
82781SOL     OW50239   0.944   5.604   5.220
82781SOL    HW150240   1.030   5.561   5.226
82781SOL    HW250241   0.904   5.565   5.142
82782SOL     OW50242  11.214   1.588   8.296
82782SOL    HW150243  11.287   1.532   8.272
82782SOL    HW250244  11.171   1.543   8.369
82783SOL     OW50245  11.363   6.959   9.157
82783SOL    HW150246  11.285   6.903   9.155
82783SOL    HW250247  11.393   6.956   9.248
82784SOL     OW50248  13.446   0.209   6.657
82784SOL    HW150249  13.402   0.128   6.682
82784SOL    HW250250  13.434   0.267   6.733
82785SOL     OW50251  14.149   5.468   4.753
82785SOL    HW150252  14.228   5.418   4.774
82785SOL    HW250253  14.078   5.422   4.799
82786SOL     OW50254  11.790   8.665   0.615
82786SOL    HW150255  11.848   8.589   0.605
82786SOL    HW250256  11.845   8.740   0.593
82787SOL     OW50257   6.418   9.960   5.747
82787SOL    HW150258   6.340   9.939   5.697
82787SOL    HW250259   6.461   9.876   5.761
82788SOL     OW50260  13.417   7.965   6.008
82788SOL    HW150261  13.367   7.936   5.932
82788SOL    HW250262  13.353   8.011   6.062
82789SOL     OW50263  14.752  12.867   2.857
82789SOL    HW150264  14.768  12.799   2.923
82789SOL    HW250265  14.795  12.833   2.778
82790SOL     OW50266  10.160   5.661   9.770
82790SOL    HW150267  10.068   5.682   9.752
82790SOL    HW250268  10.157   5.577   9.814
82791SOL     OW50269   4.098   9.809   6.133
82791SOL    HW150270   4.005   9.821   6.151
82791SOL    HW250271   4.103   9.724   6.088
82792SOL     OW50272   0.399   9.307   5.812
82792SOL    HW150273   0.304   9.300   5.815
82792SOL    HW250274   0.418   9.397   5.839
82793SOL     OW50275   8.157   4.597  11.417
82793SOL    HW150276   8.170   4.509  11.382
82793SOL    HW250277   8.241   4.619  11.458
82794SOL     OW50278  13.526   0.987  11.123
82794SOL    HW150279  13.461   1.048  11.159
82794SOL    HW250280  13.510   0.989  11.029
82795SOL     OW50281   5.583   6.836   7.558
82795SOL    HW150282   5.662   6.807   7.603
82795SOL    HW250283   5.615   6.884   7.481
82796SOL     OW50284   3.921   0.687   2.993
82796SOL    HW150285   3.990   0.702   3.057
82796SOL    HW250286   3.946   0.740   2.917
82797SOL     OW50287  11.275   7.804   3.497
82797SOL    HW150288  11.273   7.722   3.447
82797SOL    HW250289  11.354   7.849   3.467
82798SOL     OW50290   4.979  10.043   1.857
82798SOL    HW150291   4.948   9.990   1.930
82798SOL    HW250292   5.040   9.987   1.810
82799SOL     OW50293   5.167  12.436   1.123
82799SOL    HW150294   5.223  12.498   1.169
82799SOL    HW250295   5.080  12.475   1.127
82800SOL     OW50296   2.308   2.408  11.879
82800SOL    HW150297   2.356   2.389  11.798
82800SOL    HW250298   2.320   2.502  11.893
82801SOL     OW50299  10.705   4.919  14.146
82801SOL    HW150300  10.649   4.984  14.104
82801SOL    HW250301  10.646   4.871  14.205
82802SOL     OW50302   8.945  13.497   4.603
82802SOL    HW150303   8.984  13.437   4.666
82802SOL    HW250304   8.866  13.451   4.572
82803SOL     OW50305   8.745   8.418   6.285
82803SOL    HW150306   8.686   8.416   6.360
82803SOL    HW250307   8.732   8.333   6.242
82804SOL     OW50308  10.115  14.189  14.579
82804SOL    HW150309  10.107  14.106  14.627
82804SOL    HW250310  10.202  14.221  14.602
82805SOL     OW50311  11.160   7.262   5.030
82805SOL    HW150312  11.103   7.192   5.060
82805SOL    HW250313  11.113   7.301   4.956
82806SOL     OW50314   0.725  12.530   1.165
82806SOL    HW150315   0.733  12.507   1.072
82806SOL    HW250316   0.750  12.451   1.212
82807SOL     OW50317   1.275   6.137   9.356
82807SOL    HW150318   1.222   6.064   9.389
82807SOL    HW250319   1.353   6.095   9.319
82808SOL     OW50320  13.378  13.628   7.861
82808SOL    HW150321  13.387  13.634   7.766
82808SOL    HW250322  13.462  13.660   7.895
82809SOL     OW50323   6.327   6.476   8.516
82809SOL    HW150324   6.370   6.558   8.539
82809SOL    HW250325   6.292   6.443   8.599
82810SOL     OW50326   5.131  10.944   9.059
82810SOL    HW150327   5.216  10.918   9.094
82810SOL    HW250328   5.068  10.886   9.102
82811SOL     OW50329  14.693  11.848   2.533
82811SOL    HW150330  14.710  11.755   2.544
82811SOL    HW250331  14.720  11.867   2.443
82812SOL     OW50332  10.310  10.855   3.913
82812SOL    HW150333  10.354  10.788   3.861
82812SOL    HW250334  10.379  10.889   3.971
82813SOL     OW50335   6.772   1.284   2.090
82813SOL    HW150336   6.795   1.375   2.106
82813SOL    HW250337   6.684   1.274   2.127
82814SOL     OW50338   8.898  13.456   9.898
82814SOL    HW150339   8.892  13.464   9.803
82814SOL    HW250340   8.810  13.474   9.930
82815SOL     OW50341   3.872   5.091  14.569
82815SOL    HW150342   3.946   5.133  14.614
82815SOL    HW250343   3.812   5.163  14.550
82816SOL     OW50344  12.410  14.704  13.048
82816SOL    HW150345  12.384  14.796  13.048
82816SOL    HW250346  12.395  14.675  13.138
82817SOL     OW50347  11.964   1.642   1.564
82817SOL    HW150348  11.909   1.621   1.639
82817SOL    HW250349  11.944   1.574   1.500
82818SOL     OW50350  10.810   4.726   7.592
82818SOL    HW150351  10.839   4.762   7.509
82818SOL    HW250352  10.764   4.646   7.569
82819SOL     OW50353   1.081  10.301  12.926
82819SOL    HW150354   1.133  10.254  12.991
82819SOL    HW250355   1.039  10.372  12.974
82820SOL     OW50356  14.602   7.624  12.868
82820SOL    HW150357  14.607   7.579  12.784
82820SOL    HW250358  14.679   7.594  12.916
82821SOL     OW50359   4.352   0.457   5.852
82821SOL    HW150360   4.417   0.527   5.853
82821SOL    HW250361   4.403   0.378   5.837
82822SOL     OW50362   8.961   6.288  11.687
82822SOL    HW150363   8.940   6.378  11.711
82822SOL    HW250364   9.038   6.266  11.739
82823SOL     OW50365   7.584  14.011   7.715
82823SOL    HW150366   7.492  14.035   7.722
82823SOL    HW250367   7.615  14.055   7.636
82824SOL     OW50368   3.978   5.627   3.981
82824SOL    HW150369   3.893   5.611   3.940
82824SOL    HW250370   4.040   5.579   3.926
82825SOL     OW50371   6.056  13.016  13.680
82825SOL    HW150372   6.098  13.013  13.766
82825SOL    HW250373   6.095  13.092  13.637
82826SOL     OW50374   4.553  12.292  10.031
82826SOL    HW150375   4.633  12.260  10.072
82826SOL    HW250376   4.486  12.229  10.057
82827SOL     OW50377   1.352   8.921   4.638
82827SOL    HW150378   1.371   8.828   4.635
82827SOL    HW250379   1.300   8.938   4.560
82828SOL     OW50380  13.298  12.888   7.156
82828SOL    HW150381  13.226  12.924   7.104
82828SOL    HW250382  13.373  12.943   7.133
82829SOL     OW50383   1.661   9.190   3.107
82829SOL    HW150384   1.675   9.152   3.021
82829SOL    HW250385   1.588   9.141   3.144
82830SOL     OW50386  14.684   8.299   8.669
82830SOL    HW150387  14.656   8.219   8.713
82830SOL    HW250388  14.633   8.300   8.588
82831SOL     OW50389   7.027   3.144   4.125
82831SOL    HW150390   6.973   3.219   4.152
82831SOL    HW250391   7.114   3.165   4.157
82832SOL     OW50392   6.234  11.887   8.353
82832SOL    HW150393   6.277  11.867   8.436
82832SOL    HW250394   6.305  11.883   8.288
82833SOL     OW50395   3.204   2.067  12.892
82833SOL    HW150396   3.202   2.162  12.908
82833SOL    HW250397   3.139   2.053  12.824
82834SOL     OW50398   0.442  13.575  13.696
82834SOL    HW150399   0.459  13.554  13.604
82834SOL    HW250400   0.529  13.596  13.732
82835SOL     OW50401  10.545  10.834   8.151
82835SOL    HW150402  10.464  10.883   8.163
82835SOL    HW250403  10.517  10.746   8.129
82836SOL     OW50404   0.408   8.340  13.456
82836SOL    HW150405   0.330   8.287  13.475
82836SOL    HW250406   0.374   8.417  13.411
82837SOL     OW50407   9.255   2.311   1.074
82837SOL    HW150408   9.320   2.358   1.127
82837SOL    HW250409   9.212   2.253   1.137
82838SOL     OW50410   7.013   0.554   9.739
82838SOL    HW150411   6.952   0.481   9.748
82838SOL    HW250412   7.097   0.520   9.772
82839SOL     OW50413   6.587  14.315   9.078
82839SOL    HW150414   6.600  14.378   9.149
82839SOL    HW250415   6.514  14.262   9.107
82840SOL     OW50416   8.077   2.020  10.891
82840SOL    HW150417   8.059   1.944  10.945
82840SOL    HW250418   8.054   2.095  10.946
82841SOL     OW50419  10.006   2.306  13.057
82841SOL    HW150420   9.911   2.312  13.054
82841SOL    HW250421  10.027   2.303  13.150
82842SOL     OW50422   9.608   9.945   4.200
82842SOL    HW150423   9.610   9.918   4.108
82842SOL    HW250424   9.604  10.040   4.197
82843SOL     OW50425  10.689   3.185   9.302
82843SOL    HW150426  10.605   3.165   9.343
82843SOL    HW250427  10.748   3.119   9.336
82844SOL     OW50428   2.913  10.616   7.500
82844SOL    HW150429   2.956  10.645   7.580
82844SOL    HW250430   2.822  10.643   7.510
82845SOL     OW50431   6.355  13.007  12.041
82845SOL    HW150432   6.416  13.014  11.968
82845SOL    HW250433   6.356  12.915  12.065
82846SOL     OW50434  11.567   8.619   0.759
82846SOL    HW150435  11.632   8.641   0.693
82846SOL    HW250436  11.491   8.589   0.709
82847SOL     OW50437  12.450   6.537   8.303
82847SOL    HW150438  12.450   6.456   8.354
82847SOL    HW250439  12.373   6.529   8.247
82848SOL     OW50440   4.993   5.479   5.366
82848SOL    HW150441   4.956   5.460   5.279
82848SOL    HW250442   5.086   5.494   5.350
82849SOL     OW50443  11.833  11.532   8.753
82849SOL    HW150444  11.801  11.560   8.839
82849SOL    HW250445  11.800  11.598   8.692
82850SOL     OW50446   7.549   7.485  12.001
82850SOL    HW150447   7.501   7.537  12.065
82850SOL    HW250448   7.641   7.496  12.025
82851SOL     OW50449  14.538   9.113   1.951
82851SOL    HW150450  14.539   9.184   2.016
82851SOL    HW250451  14.588   9.147   1.877
82852SOL     OW50452   1.615   4.897   9.406
82852SOL    HW150453   1.636   4.917   9.314
82852SOL    HW250454   1.536   4.950   9.423
82853SOL     OW50455   4.789   3.168  12.056
82853SOL    HW150456   4.817   3.093  12.108
82853SOL    HW250457   4.868   3.222  12.047
82854SOL     OW50458  10.767   8.511   9.138
82854SOL    HW150459  10.685   8.470   9.165
82854SOL    HW250460  10.831   8.481   9.202
82855SOL     OW50461   8.968   3.474   0.425
82855SOL    HW150462   9.006   3.391   0.396
82855SOL    HW250463   9.023   3.501   0.498
82856SOL     OW50464   3.051   8.220   7.780
82856SOL    HW150465   3.050   8.308   7.742
82856SOL    HW250466   2.966   8.213   7.824
82857SOL     OW50467  12.633   5.595   9.860
82857SOL    HW150468  12.624   5.651   9.937
82857SOL    HW250469  12.713   5.545   9.877
82858SOL     OW50470  14.791   7.702   8.335
82858SOL    HW150471   0.003   7.675   8.332
82858SOL    HW250472  14.767   7.697   8.427
82859SOL     OW50473   4.063  14.602   1.748
82859SOL    HW150474   4.102  14.681   1.785
82859SOL    HW250475   3.985  14.587   1.801
82860SOL     OW50476  12.600   8.591   9.606
82860SOL    HW150477  12.588   8.558   9.517
82860SOL    HW250478  12.631   8.681   9.595
82861SOL     OW50479   0.560   8.281  12.521
82861SOL    HW150480   0.566   8.359  12.466
82861SOL    HW250481   0.634   8.226  12.494
82862SOL     OW50482   3.408   2.610   3.325
82862SOL    HW150483   3.389   2.701   3.302
82862SOL    HW250484   3.323   2.574   3.352
82863SOL     OW50485  11.224   7.052  11.380
82863SOL    HW150486  11.282   7.095  11.443
82863SOL    HW250487  11.162   7.120  11.355
82864SOL     OW50488  10.418   5.619  10.484
82864SOL    HW150489  10.366   5.547  10.519
82864SOL    HW250490  10.384   5.633  10.396
82865SOL     OW50491   7.913   7.835  13.095
82865SOL    HW150492   7.832   7.885  13.087
82865SOL    HW250493   7.970   7.868  13.025
82866SOL     OW50494   8.209   9.198  10.848
82866SOL    HW150495   8.275   9.161  10.789
82866SOL    HW250496   8.236   9.171  10.935
82867SOL     OW50497  13.058   2.986   6.819
82867SOL    HW150498  13.022   3.008   6.905
82867SOL    HW250499  13.051   2.891   6.814
82868SOL     OW50500   5.829   4.095   8.752
82868SOL    HW150501   5.869   4.061   8.672
82868SOL    HW250502   5.868   4.045   8.823
82869SOL     OW50503  12.262  14.511   7.681
82869SOL    HW150504  12.300  14.513   7.768
82869SOL    HW250505  12.336  14.523   7.621
82870SOL     OW50506   2.835   8.097   0.117
82870SOL    HW150507   2.796   8.150   0.047
82870SOL    HW250508   2.760   8.067   0.169
82871SOL     OW50509  11.462  12.900   0.975
82871SOL    HW150510  11.421  12.815   0.959
82871SOL    HW250511  11.474  12.938   0.888
82872SOL     OW50512   9.576  14.470   0.568
82872SOL    HW150513   9.652  14.414   0.551
82872SOL    HW250514   9.533  14.479   0.483
82873SOL     OW50515   0.098  14.264   1.948
82873SOL    HW150516   0.112  14.191   1.888
82873SOL    HW250517   0.012  14.247   1.986
82874SOL     OW50518   3.372  12.772   0.336
82874SOL    HW150519   3.428  12.705   0.297
82874SOL    HW250520   3.431  12.821   0.393
82875SOL     OW50521  13.304   0.537   2.585
82875SOL    HW150522  13.224   0.587   2.569
82875SOL    HW250523  13.312   0.535   2.681
82876SOL     OW50524  10.182   2.204  14.648
82876SOL    HW150525  10.169   2.158  14.565
82876SOL    HW250526  10.126   2.157  14.710
82877SOL     OW50527  14.482   7.985   9.273
82877SOL    HW150528  14.469   7.955   9.183
82877SOL    HW250529  14.566   8.030   9.272
82878SOL     OW50530   3.817   8.768   7.366
82878SOL    HW150531   3.760   8.831   7.322
82878SOL    HW250532   3.792   8.683   7.328
82879SOL     OW50533   9.807  14.041  12.130
82879SOL    HW150534   9.873  13.989  12.084
82879SOL    HW250535   9.822  14.021  12.223
82880SOL     OW50536   9.326  10.050   3.896
82880SOL    HW150537   9.332  10.040   3.801
82880SOL    HW250538   9.323   9.961   3.930
82881SOL     OW50539   3.694   8.475  10.789
82881SOL    HW150540   3.724   8.427  10.866
82881SOL    HW250541   3.760   8.542  10.774
82882SOL     OW50542   5.895   1.799   2.921
82882SOL    HW150543   5.824   1.829   2.978
82882SOL    HW250544   5.860   1.808   2.832
82883SOL     OW50545   9.671  13.795   1.501
82883SOL    HW150546   9.577  13.803   1.483
82883SOL    HW250547   9.709  13.873   1.459
82884SOL     OW50548   3.401  12.058   0.847
82884SOL    HW150549   3.459  12.032   0.919
82884SOL    HW250550   3.313  12.056   0.884
82885SOL     OW50551  14.656   2.260  11.720
82885SOL    HW150552  14.670   2.342  11.673
82885SOL    HW250553  14.676   2.192  11.656
82886SOL     OW50554   0.999   6.617   9.941
82886SOL    HW150555   1.014   6.653  10.029
82886SOL    HW250556   0.980   6.694   9.887
82887SOL     OW50557   0.502  13.919  11.245
82887SOL    HW150558   0.511  14.014  11.248
82887SOL    HW250559   0.410  13.903  11.265
82888SOL     OW50560   1.019  11.535   5.248
82888SOL    HW150561   0.968  11.616   5.243
82888SOL    HW250562   1.077  11.549   5.323
82889SOL     OW50563   4.454  12.056   9.662
82889SOL    HW150564   4.472  12.059   9.568
82889SOL    HW250565   4.403  12.136   9.679
82890SOL     OW50566  12.577   8.953  10.401
82890SOL    HW150567  12.499   8.906  10.429
82890SOL    HW250568  12.647   8.889  10.406
82891SOL     OW50569   8.284   1.134  11.908
82891SOL    HW150570   8.236   1.130  11.991
82891SOL    HW250571   8.359   1.076  11.921
82892SOL     OW50572   0.760   2.493   1.825
82892SOL    HW150573   0.775   2.443   1.745
82892SOL    HW250574   0.799   2.579   1.808
82893SOL     OW50575  10.789   1.988  13.167
82893SOL    HW150576  10.879   1.955  13.162
82893SOL    HW250577  10.766   1.980  13.260
82894SOL     OW50578  12.872  11.613   5.797
82894SOL    HW150579  12.846  11.529   5.760
82894SOL    HW250580  12.848  11.677   5.730
82895SOL     OW50581   4.290  10.448   3.586
82895SOL    HW150582   4.267  10.355   3.593
82895SOL    HW250583   4.219  10.486   3.534
82896SOL     OW50584  10.744   7.860  13.546
82896SOL    HW150585  10.807   7.789  13.553
82896SOL    HW250586  10.659   7.819  13.566
82897SOL     OW50587  12.156  10.190  14.620
82897SOL    HW150588  12.176  10.252  14.550
82897SOL    HW250589  12.199  10.109  14.594
82898SOL     OW50590  10.961   9.522   7.567
82898SOL    HW150591  10.988   9.538   7.658
82898SOL    HW250592  10.976   9.429   7.554
82899SOL     OW50593  12.731  10.010   1.965
82899SOL    HW150594  12.716   9.921   1.998
82899SOL    HW250595  12.750  10.061   2.044
82900SOL     OW50596   1.449  14.111   6.354
82900SOL    HW150597   1.448  14.153   6.268
82900SOL    HW250598   1.360  14.078   6.366
82901SOL     OW50599  10.488   2.579   1.305
82901SOL    HW150600  10.446   2.611   1.225
82901SOL    HW250601  10.582   2.590   1.290
82902SOL     OW50602  14.723   7.822   0.163
82902SOL    HW150603  14.674   7.741   0.177
82902SOL    HW250604  14.764   7.811   0.077
82903SOL     OW50605  14.190   0.225   8.924
82903SOL    HW150606  14.132   0.193   8.994
82903SOL    HW250607  14.139   0.294   8.881
82904SOL     OW50608   5.309   0.711  14.420
82904SOL    HW150609   5.382   0.709  14.482
82904SOL    HW250610   5.262   0.629  14.437
82905SOL     OW50611   5.697   3.749   0.002
82905SOL    HW150612   5.656   3.727  14.799
82905SOL    HW250613   5.786   3.775  14.858
82906SOL     OW50614  10.417   8.058   9.523
82906SOL    HW150615  10.391   8.001   9.595
82906SOL    HW250616  10.511   8.047   9.516
82907SOL     OW50617   3.888   8.483   0.068
82907SOL    HW150618   3.859   8.525   0.149
82907SOL    HW250619   3.983   8.481   0.074
82908SOL     OW50620   9.633   2.262  13.577
82908SOL    HW150621   9.611   2.260  13.484
82908SOL    HW250622   9.609   2.176  13.610
82909SOL     OW50623   0.817  13.562   1.735
82909SOL    HW150624   0.750  13.497   1.716
82909SOL    HW250625   0.894  13.510   1.762
82910SOL     OW50626  13.117   0.868   5.190
82910SOL    HW150627  13.147   0.803   5.254
82910SOL    HW250628  13.189   0.878   5.129
82911SOL     OW50629   4.575   6.719   8.210
82911SOL    HW150630   4.579   6.776   8.133
82911SOL    HW250631   4.638   6.649   8.190
82912SOL     OW50632  13.922  12.701  12.803
82912SOL    HW150633  14.000  12.662  12.843
82912SOL    HW250634  13.902  12.643  12.729
82913SOL     OW50635  12.101   2.756  11.041
82913SOL    HW150636  12.136   2.826  11.095
82913SOL    HW250637  12.093   2.681  11.100
82914SOL     OW50638  13.092  13.540  14.543
82914SOL    HW150639  13.079  13.466  14.602
82914SOL    HW250640  13.084  13.503  14.455
82915SOL     OW50641   3.827   9.903  13.013
82915SOL    HW150642   3.784   9.823  13.044
82915SOL    HW250643   3.877   9.876  12.936
82916SOL     OW50644   6.873  12.952   0.856
82916SOL    HW150645   6.918  12.974   0.937
82916SOL    HW250646   6.788  12.917   0.885
82917SOL     OW50647   1.880  12.723   6.318
82917SOL    HW150648   1.873  12.779   6.396
82917SOL    HW250649   1.949  12.661   6.339
82918SOL     OW50650   9.738   6.665   7.171
82918SOL    HW150651   9.669   6.725   7.143
82918SOL    HW250652   9.741   6.673   7.266
82919SOL     OW50653  13.141   6.664   0.168
82919SOL    HW150654  13.195   6.728   0.213
82919SOL    HW250655  13.191   6.583   0.172
82920SOL     OW50656  12.082   3.635   1.039
82920SOL    HW150657  12.113   3.640   1.130
82920SOL    HW250658  12.067   3.542   1.024
82921SOL     OW50659   5.013   8.771   9.037
82921SOL    HW150660   5.029   8.841   8.973
82921SOL    HW250661   5.092   8.717   9.034
82922SOL     OW50662   1.769  14.561   9.087
82922SOL    HW150663   1.824  14.514   9.025
82922SOL    HW250664   1.680  14.535   9.065
82923SOL     OW50665  11.780   2.689   1.428
82923SOL    HW150666  11.847   2.678   1.360
82923SOL    HW250667  11.783   2.607   1.477
82924SOL     OW50668   3.273   4.685  11.466
82924SOL    HW150669   3.343   4.628  11.500
82924SOL    HW250670   3.276   4.762  11.522
82925SOL     OW50671   6.127  14.826   8.563
82925SOL    HW150672   6.117  14.870   8.647
82925SOL    HW250673   6.201  14.870   8.521
82926SOL     OW50674  14.040   0.467   7.551
82926SOL    HW150675  13.967   0.410   7.576
82926SOL    HW250676  14.014   0.554   7.583
82927SOL     OW50677   2.147  10.314  12.363
82927SOL    HW150678   2.087  10.259  12.414
82927SOL    HW250679   2.200  10.252  12.314
82928SOL     OW50680   5.223   1.724  11.221
82928SOL    HW150681   5.226   1.689  11.132
82928SOL    HW250682   5.314   1.744  11.243
82929SOL     OW50683   1.455   8.516  13.889
82929SOL    HW150684   1.514   8.471  13.829
82929SOL    HW250685   1.383   8.546  13.833
82930SOL     OW50686   7.072   8.589   4.726
82930SOL    HW150687   7.002   8.524   4.721
82930SOL    HW250688   7.151   8.537   4.743
82931SOL     OW50689   8.709  13.934   9.565
82931SOL    HW150690   8.683  14.012   9.516
82931SOL    HW250691   8.756  13.968   9.641
82932SOL     OW50692   6.506   2.597   9.343
82932SOL    HW150693   6.478   2.689   9.342
82932SOL    HW250694   6.521   2.578   9.436
82933SOL     OW50695   3.557   8.612   7.604
82933SOL    HW150696   3.560   8.705   7.626
82933SOL    HW250697   3.469   8.584   7.631
82934SOL     OW50698   6.927  10.094   0.076
82934SOL    HW150699   6.958  10.184   0.067
82934SOL    HW250700   6.845  10.102   0.125
82935SOL     OW50701   3.908  11.613   5.377
82935SOL    HW150702   3.912  11.597   5.471
82935SOL    HW250703   3.984  11.567   5.342
82936SOL     OW50704   7.494  14.442   8.299
82936SOL    HW150705   7.544  14.378   8.249
82936SOL    HW250706   7.459  14.393   8.373
82937SOL     OW50707  10.147  10.930  10.107
82937SOL    HW150708  10.117  10.995  10.170
82937SOL    HW250709  10.069  10.878  10.087
82938SOL     OW50710   8.672   2.051   8.214
82938SOL    HW150711   8.705   1.962   8.225
82938SOL    HW250712   8.654   2.081   8.304
82939SOL     OW50713   6.537   0.292  10.577
82939SOL    HW150714   6.570   0.381  10.565
82939SOL    HW250715   6.442   0.302  10.580
82940SOL     OW50716  11.095  11.199  10.546
82940SOL    HW150717  11.151  11.174  10.473
82940SOL    HW250718  11.130  11.283  10.576
82941SOL     OW50719   8.171   2.105   5.984
82941SOL    HW150720   8.185   2.148   6.068
82941SOL    HW250721   8.082   2.131   5.958
82942SOL     OW50722   7.749   0.161   3.002
82942SOL    HW150723   7.686   0.151   2.931
82942SOL    HW250724   7.807   0.231   2.973
82943SOL     OW50725   4.189  11.763  10.990
82943SOL    HW150726   4.277  11.733  10.967
82943SOL    HW250727   4.202  11.850  11.026
82944SOL     OW50728  10.088   1.908   8.001
82944SOL    HW150729  10.165   1.887   8.054
82944SOL    HW250730  10.118   1.904   7.911
82945SOL     OW50731  12.789   3.677  10.917
82945SOL    HW150732  12.713   3.724  10.883
82945SOL    HW250733  12.803   3.605  10.855
82946SOL     OW50734   2.878  10.423   6.455
82946SOL    HW150735   2.792  10.464   6.464
82946SOL    HW250736   2.892  10.416   6.361
82947SOL     OW50737  14.548  14.731   7.247
82947SOL    HW150738  14.641  14.712   7.262
82947SOL    HW250739  14.540  14.825   7.266
82948SOL     OW50740   6.382  12.608   7.197
82948SOL    HW150741   6.462  12.650   7.230
82948SOL    HW250742   6.312  12.669   7.217
82949SOL     OW50743   0.459   9.629  13.931
82949SOL    HW150744   0.492   9.561  13.990
82949SOL    HW250745   0.364   9.628  13.944
82950SOL     OW50746   7.415   7.664   6.593
82950SOL    HW150747   7.353   7.613   6.541
82950SOL    HW250748   7.396   7.755   6.571
82951SOL     OW50749   1.674   8.776  11.237
82951SOL    HW150750   1.603   8.830  11.271
82951SOL    HW250751   1.667   8.784  11.142
82952SOL     OW50752   4.679   5.808   9.478
82952SOL    HW150753   4.595   5.770   9.504
82952SOL    HW250754   4.683   5.892   9.524
82953SOL     OW50755   1.452   5.393   4.152
82953SOL    HW150756   1.450   5.462   4.086
82953SOL    HW250757   1.361   5.366   4.162
82954SOL     OW50758   3.380   4.542   5.543
82954SOL    HW150759   3.310   4.520   5.604
82954SOL    HW250760   3.454   4.567   5.599
82955SOL     OW50761   8.772  13.706  10.232
82955SOL    HW150762   8.755  13.688  10.140
82955SOL    HW250763   8.725  13.636  10.279
82956SOL     OW50764  10.959   0.854   2.117
82956SOL    HW150765  11.003   0.928   2.075
82956SOL    HW250766  10.883   0.836   2.061
82957SOL     OW50767   5.712  10.675   9.090
82957SOL    HW150768   5.767  10.742   9.131
82957SOL    HW250769   5.763  10.645   9.014
82958SOL     OW50770  12.531   1.897   4.176
82958SOL    HW150771  12.531   1.842   4.254
82958SOL    HW250772  12.608   1.869   4.127
82959SOL     OW50773   3.005  10.268   0.538
82959SOL    HW150774   2.989  10.181   0.503
82959SOL    HW250775   2.951  10.327   0.485
82960SOL     OW50776   9.076  13.040   6.505
82960SOL    HW150777   9.157  12.999   6.476
82960SOL    HW250778   9.032  12.973   6.558
82961SOL     OW50779   6.773  11.798   1.538
82961SOL    HW150780   6.764  11.845   1.621
82961SOL    HW250781   6.804  11.711   1.564
82962SOL     OW50782   4.730  13.032   7.460
82962SOL    HW150783   4.703  12.952   7.505
82962SOL    HW250784   4.650  13.083   7.451
82963SOL     OW50785  13.735  12.183   1.302
82963SOL    HW150786  13.821  12.155   1.332
82963SOL    HW250787  13.753  12.259   1.246
82964SOL     OW50788   7.686  10.044   0.558
82964SOL    HW150789   7.633  10.065   0.481
82964SOL    HW250790   7.725   9.959   0.538
82965SOL     OW50791   8.630  11.823   2.527
82965SOL    HW150792   8.620  11.872   2.609
82965SOL    HW250793   8.709  11.860   2.487
82966SOL     OW50794   4.288  14.527   1.625
82966SOL    HW150795   4.210  14.534   1.681
82966SOL    HW250796   4.332  14.448   1.655
82967SOL     OW50797  12.431  10.176   6.751
82967SOL    HW150798  12.353  10.205   6.705
82967SOL    HW250799  12.444  10.241   6.820
82968SOL     OW50800   0.828  12.686  14.107
82968SOL    HW150801   0.877  12.660  14.029
82968SOL    HW250802   0.857  12.624  14.175
82969SOL     OW50803   9.149  14.762   4.222
82969SOL    HW150804   9.070  14.752   4.169
82969SOL    HW250805   9.207  14.817   4.169
82970SOL     OW50806   5.686  13.460   1.603
82970SOL    HW150807   5.779  13.439   1.602
82970SOL    HW250808   5.676  13.534   1.544
82971SOL     OW50809   1.470  11.504   2.700
82971SOL    HW150810   1.416  11.475   2.627
82971SOL    HW250811   1.548  11.542   2.658
82972SOL     OW50812  13.759  11.303   8.113
82972SOL    HW150813  13.681  11.264   8.151
82972SOL    HW250814  13.727  11.354   8.038
82973SOL     OW50815   4.439   5.606   0.777
82973SOL    HW150816   4.535   5.602   0.773
82973SOL    HW250817   4.418   5.587   0.868
82974SOL     OW50818   5.062   3.709   4.856
82974SOL    HW150819   5.050   3.758   4.938
82974SOL    HW250820   5.063   3.617   4.883
82975SOL     OW50821  12.054   0.084   0.330
82975SOL    HW150822  12.099   0.018   0.383
82975SOL    HW250823  12.000   0.033   0.269
82976SOL     OW50824   6.724   9.940   4.619
82976SOL    HW150825   6.720  10.031   4.592
82976SOL    HW250826   6.767   9.895   4.547
82977SOL     OW50827  13.731  14.462   3.382
82977SOL    HW150828  13.786  14.468   3.303
82977SOL    HW250829  13.688  14.377   3.375
82978SOL     OW50830   4.491   5.998  12.467
82978SOL    HW150831   4.537   5.982  12.549
82978SOL    HW250832   4.453   5.913  12.444
82979SOL     OW50833  11.044   7.205   3.439
82979SOL    HW150834  10.951   7.223   3.428
82979SOL    HW250835  11.071   7.261   3.512
82980SOL     OW50836   6.970  11.521  10.365
82980SOL    HW150837   6.910  11.496  10.295
82980SOL    HW250838   6.964  11.449  10.428
82981SOL     OW50839   5.761   3.879   7.113
82981SOL    HW150840   5.765   3.975   7.108
82981SOL    HW250841   5.753   3.860   7.207
82982SOL     OW50842  11.449  10.469   6.744
82982SOL    HW150843  11.457  10.534   6.674
82982SOL    HW250844  11.386  10.405   6.710
82983SOL     OW50845   6.548   5.364  10.924
82983SOL    HW150846   6.581   5.276  10.944
82983SOL    HW250847   6.610   5.400  10.861
82984SOL     OW50848   6.363   5.352   2.011
82984SOL    HW150849   6.442   5.300   1.997
82984SOL    HW250850   6.293   5.287   2.021
82985SOL     OW50851   5.235   9.578  12.747
82985SOL    HW150852   5.186   9.521  12.806
82985SOL    HW250853   5.315   9.530  12.727
82986SOL     OW50854   9.494   6.558   6.281
82986SOL    HW150855   9.555   6.498   6.239
82986SOL    HW250856   9.410   6.539   6.239
82987SOL     OW50857   6.001   4.719   1.814
82987SOL    HW150858   6.045   4.795   1.853
82987SOL    HW250859   5.913   4.721   1.850
82988SOL     OW50860   6.652  14.733   5.475
82988SOL    HW150861   6.717  14.704   5.539
82988SOL    HW250862   6.693  14.808   5.432
82989SOL     OW50863   6.381   8.815   4.394
82989SOL    HW150864   6.373   8.799   4.488
82989SOL    HW250865   6.338   8.899   4.381
82990SOL     OW50866   5.039   1.218  10.869
82990SOL    HW150867   5.055   1.241  10.778
82990SOL    HW250868   5.069   1.127  10.876
82991SOL     OW50869   0.283   5.279   7.139
82991SOL    HW150870   0.286   5.214   7.070
82991SOL    HW250871   0.374   5.300   7.157
82992SOL     OW50872  13.131   4.760  10.745
82992SOL    HW150873  13.207   4.817  10.728
82992SOL    HW250874  13.082   4.761  10.663
82993SOL     OW50875   7.563  11.557   3.954
82993SOL    HW150876   7.485  11.583   3.904
82993SOL    HW250877   7.634  11.609   3.916
82994SOL     OW50878   0.175   4.790  12.368
82994SOL    HW150879   0.103   4.846  12.338
82994SOL    HW250880   0.199   4.739  12.290
82995SOL     OW50881  10.496   3.631   3.990
82995SOL    HW150882  10.407   3.625   3.956
82995SOL    HW250883  10.532   3.709   3.949
82996SOL     OW50884  13.362   9.538   7.589
82996SOL    HW150885  13.405   9.498   7.513
82996SOL    HW250886  13.270   9.544   7.565
82997SOL     OW50887  13.951   1.889  13.754
82997SOL    HW150888  13.992   1.848  13.677
82997SOL    HW250889  14.020   1.940  13.794
82998SOL     OW50890   5.554   4.348   0.577
82998SOL    HW150891   5.501   4.345   0.657
82998SOL    HW250892   5.640   4.376   0.606
82999SOL     OW50893   7.065   9.538   0.290
82999SOL    HW150894   7.143   9.543   0.234
82999SOL    HW250895   7.093   9.489   0.367
83000SOL     OW50896   0.815   0.805   9.021
83000SOL    HW150897   0.754   0.794   9.094
83000SOL    HW250898   0.775   0.757   8.949
83001SOL     OW50899  10.490   6.424  14.871
83001SOL    HW150900  10.404   6.465  14.878
83001SOL    HW250901  10.490   6.356   0.058
83002SOL     OW50902   3.538   8.706   6.157
83002SOL    HW150903   3.526   8.643   6.228
83002SOL    HW250904   3.469   8.771   6.172
83003SOL     OW50905  14.647   2.839   8.116
83003SOL    HW150906  14.731   2.863   8.155
83003SOL    HW250907  14.583   2.894   8.163
83004SOL     OW50908   4.833  14.544   9.220
83004SOL    HW150909   4.868  14.594   9.294
83004SOL    HW250910   4.745  14.579   9.207
83005SOL     OW50911   9.864  11.663   1.083
83005SOL    HW150912   9.928  11.729   1.056
83005SOL    HW250913   9.780  11.702   1.062
83006SOL     OW50914   8.318   3.267  10.283
83006SOL    HW150915   8.408   3.238  10.266
83006SOL    HW250916   8.263   3.199  10.243
83007SOL     OW50917  14.094  12.208   8.241
83007SOL    HW150918  14.149  12.232   8.166
83007SOL    HW250919  14.136  12.250   8.316
83008SOL     OW50920   6.820   9.446   2.760
83008SOL    HW150921   6.872   9.365   2.754
83008SOL    HW250922   6.859   9.494   2.833
83009SOL     OW50923  11.913   7.802   7.174
83009SOL    HW150924  11.843   7.738   7.158
83009SOL    HW250925  11.930   7.797   7.268
83010SOL     OW50926   2.468   2.665   5.946
83010SOL    HW150927   2.543   2.655   6.004
83010SOL    HW250928   2.401   2.707   5.999
83011SOL     OW50929   0.170  10.303   1.519
83011SOL    HW150930   0.142  10.383   1.474
83011SOL    HW250931   0.111  10.296   1.594
83012SOL     OW50932  14.696   2.794   5.875
83012SOL    HW150933  14.731   2.778   5.787
83012SOL    HW250934  14.736   2.877   5.902
83013SOL     OW50935   8.697   9.410  11.599
83013SOL    HW150936   8.787   9.377  11.598
83013SOL    HW250937   8.652   9.361  11.530
83014SOL     OW50938   5.287   1.139   9.968
83014SOL    HW150939   5.358   1.076   9.978
83014SOL    HW250940   5.227   1.119  10.040
83015SOL     OW50941   9.466   3.879   6.238
83015SOL    HW150942   9.510   3.796   6.225
83015SOL    HW250943   9.418   3.869   6.320
83016SOL     OW50944   2.373   9.205   0.910
83016SOL    HW150945   2.464   9.215   0.941
83016SOL    HW250946   2.371   9.118   0.870
83017SOL     OW50947  14.407   3.733   9.893
83017SOL    HW150948  14.367   3.773   9.816
83017SOL    HW250949  14.465   3.666   9.856
83018SOL     OW50950  11.447   0.496  14.296
83018SOL    HW150951  11.471   0.583  14.263
83018SOL    HW250952  11.389   0.460  14.229
83019SOL     OW50953  14.075   2.494   1.871
83019SOL    HW150954  14.163   2.515   1.904
83019SOL    HW250955  14.052   2.570   1.817
83020SOL     OW50956  11.946   2.489   1.158
83020SOL    HW150957  12.002   2.472   1.234
83020SOL    HW250958  11.928   2.402   1.122
83021SOL     OW50959   9.962   5.678   8.431
83021SOL    HW150960  10.057   5.684   8.425
83021SOL    HW250961   9.938   5.738   8.501
83022SOL     OW50962   2.999   7.730   1.477
83022SOL    HW150963   2.940   7.668   1.436
83022SOL    HW250964   3.071   7.739   1.414
83023SOL     OW50965   5.243   4.226   9.638
83023SOL    HW150966   5.210   4.190   9.555
83023SOL    HW250967   5.290   4.153   9.678
83024SOL     OW50968  10.962   6.616  14.342
83024SOL    HW150969  11.017   6.558  14.395
83024SOL    HW250970  11.022   6.685  14.313
83025SOL     OW50971   0.142   3.686  12.082
83025SOL    HW150972   0.143   3.759  12.020
83025SOL    HW250973   0.224   3.640  12.066
83026SOL     OW50974   0.917  12.997  11.627
83026SOL    HW150975   0.981  13.044  11.574
83026SOL    HW250976   0.833  13.013  11.583
83027SOL     OW50977  12.680   7.329   4.360
83027SOL    HW150978  12.602   7.355   4.313
83027SOL    HW250979  12.752   7.375   4.317
83028SOL     OW50980   3.663   3.231  12.727
83028SOL    HW150981   3.736   3.258  12.672
83028SOL    HW250982   3.618   3.312  12.750
83029SOL     OW50983   9.644  14.790   2.076
83029SOL    HW150984   9.568  14.761   2.126
83029SOL    HW250985   9.623  14.768   1.985
83030SOL     OW50986  12.611   8.981   6.815
83030SOL    HW150987  12.564   8.902   6.840
83030SOL    HW250988  12.703   8.959   6.825
83031SOL     OW50989  13.850   4.465   6.157
83031SOL    HW150990  13.787   4.532   6.182
83031SOL    HW250991  13.843   4.459   6.062
83032SOL     OW50992   1.203   5.188   6.519
83032SOL    HW150993   1.159   5.148   6.444
83032SOL    HW250994   1.249   5.263   6.483
83033SOL     OW50995  10.957   2.685  10.610
83033SOL    HW150996  10.892   2.645  10.553
83033SOL    HW250997  10.915   2.687  10.696
83034SOL     OW50998   0.796  11.963   6.679
83034SOL    HW150999   0.851  11.997   6.608
83034SOL    HW251000   0.857  11.922   6.740
83035SOL     OW51001   8.180   5.093   5.551
83035SOL    HW151002   8.135   5.130   5.626
83035SOL    HW251003   8.116   5.096   5.480
83036SOL     OW51004   4.574   7.124  10.023
83036SOL    HW151005   4.660   7.164  10.016
83036SOL    HW251006   4.582   7.040   9.978
83037SOL     OW51007   2.928  14.848   0.723
83037SOL    HW151008   2.834  14.844   0.705
83037SOL    HW251009   2.958  14.757   0.710
83038SOL     OW51010   7.103   4.146  13.419
83038SOL    HW151011   7.035   4.108  13.363
83038SOL    HW251012   7.177   4.160  13.359
83039SOL     OW51013  13.465  10.207  14.302
83039SOL    HW151014  13.455  10.299  14.325
83039SOL    HW251015  13.552  10.183  14.335
83040SOL     OW51016   1.059  13.902  11.444
83040SOL    HW151017   1.002  13.891  11.368
83040SOL    HW251018   1.146  13.916  11.407
83041SOL     OW51019  11.662  10.647  14.089
83041SOL    HW151020  11.643  10.668  14.180
83041SOL    HW251021  11.731  10.709  14.065
83042SOL     OW51022  10.936   9.219   8.638
83042SOL    HW151023  10.877   9.227   8.564
83042SOL    HW251024  10.903   9.282   8.702
83043SOL     OW51025   7.537   9.832  13.119
83043SOL    HW151026   7.461   9.864  13.168
83043SOL    HW251027   7.505   9.820  13.030
83044SOL     OW51028   9.271   6.628   2.600
83044SOL    HW151029   9.309   6.567   2.662
83044SOL    HW251030   9.338   6.694   2.586
83045SOL     OW51031   0.331  10.175   0.289
83045SOL    HW151032   0.241  10.164   0.258
83045SOL    HW251033   0.324  10.179   0.384
83046SOL     OW51034   9.321  12.369  14.438
83046SOL    HW151035   9.385  12.357  14.368
83046SOL    HW251036   9.353  12.314  14.509
83047SOL     OW51037   3.706   8.067   2.222
83047SOL    HW151038   3.718   8.149   2.174
83047SOL    HW251039   3.763   8.075   2.298
83048SOL     OW51040   8.997  14.274   6.348
83048SOL    HW151041   8.984  14.326   6.427
83048SOL    HW251042   9.004  14.184   6.380
83049SOL     OW51043   2.350  11.570  12.493
83049SOL    HW151044   2.382  11.606  12.576
83049SOL    HW251045   2.421  11.585  12.431
83050SOL     OW51046  11.917   2.221   1.044
83050SOL    HW151047  11.887   2.140   1.004
83050SOL    HW251048  12.010   2.226   1.022
83051SOL     OW51049   2.819   7.672  10.769
83051SOL    HW151050   2.746   7.624  10.808
83051SOL    HW251051   2.841   7.738  10.834
83052SOL     OW51052   5.388   9.246   4.912
83052SOL    HW151053   5.402   9.214   4.823
83052SOL    HW251054   5.301   9.215   4.936
83053SOL     OW51055   5.015   9.241   5.670
83053SOL    HW151056   5.022   9.146   5.677
83053SOL    HW251057   4.962   9.255   5.591
83054SOL     OW51058  14.664  11.214   5.686
83054SOL    HW151059  14.584  11.207   5.737
83054SOL    HW251060  14.717  11.140   5.715
83055SOL     OW51061   1.825   3.535   6.990
83055SOL    HW151062   1.861   3.528   6.901
83055SOL    HW251063   1.869   3.465   7.038
83056SOL     OW51064   7.362  10.726   5.850
83056SOL    HW151065   7.320  10.678   5.922
83056SOL    HW251066   7.290  10.756   5.796
83057SOL     OW51067  11.052  13.359  12.205
83057SOL    HW151068  11.035  13.452  12.217
83057SOL    HW251069  10.997  13.334  12.130
83058SOL     OW51070   0.605   1.267  13.723
83058SOL    HW151071   0.669   1.258  13.793
83058SOL    HW251072   0.537   1.325  13.760
83059SOL     OW51073   4.462   5.418   6.803
83059SOL    HW151074   4.515   5.346   6.838
83059SOL    HW251075   4.395   5.375   6.750
83060SOL     OW51076   8.503   8.542   5.431
83060SOL    HW151077   8.563   8.504   5.495
83060SOL    HW251078   8.459   8.467   5.391
83061SOL     OW51079   3.083   9.563  14.311
83061SOL    HW151080   3.032   9.643  14.297
83061SOL    HW251081   3.168   9.582  14.272
83062SOL     OW51082   6.722   3.700  10.982
83062SOL    HW151083   6.658   3.688  10.912
83062SOL    HW251084   6.723   3.795  10.998
83063SOL     OW51085  11.419   9.275   9.319
83063SOL    HW151086  11.456   9.191   9.345
83063SOL    HW251087  11.358   9.297   9.389
83064SOL     OW51088   5.644  11.634   2.766
83064SOL    HW151089   5.702  11.558   2.771
83064SOL    HW251090   5.702  11.708   2.746
83065SOL     OW51091   0.734   2.042  11.286
83065SOL    HW151092   0.722   2.064  11.193
83065SOL    HW251093   0.806   1.980  11.288
83066SOL     OW51094  13.402  12.726   2.680
83066SOL    HW151095  13.369  12.696   2.595
83066SOL    HW251096  13.477  12.669   2.699
83067SOL     OW51097   7.958  11.678  13.301
83067SOL    HW151098   7.870  11.644  13.320
83067SOL    HW251099   8.013  11.600  13.294
83068SOL     OW51100   5.177   3.539   4.332
83068SOL    HW151101   5.219   3.615   4.372
83068SOL    HW251102   5.137   3.493   4.405
83069SOL     OW51103   8.058  14.579   6.069
83069SOL    HW151104   8.109  14.511   6.113
83069SOL    HW251105   7.974  14.579   6.116
83070SOL     OW51106  12.101  13.150  10.627
83070SOL    HW151107  12.050  13.218  10.584
83070SOL    HW251108  12.128  13.189  10.710
83071SOL     OW51109   6.874   3.210   8.556
83071SOL    HW151110   6.901   3.269   8.626
83071SOL    HW251111   6.897   3.122   8.587
83072SOL     OW51112   1.339   3.657   1.591
83072SOL    HW151113   1.336   3.682   1.683
83072SOL    HW251114   1.428   3.624   1.577
83073SOL     OW51115   0.183  11.654  13.052
83073SOL    HW151116   0.090  11.667  13.031
83073SOL    HW251117   0.227  11.658  12.967
83074SOL     OW51118   4.744   9.836  13.027
83074SOL    HW151119   4.815   9.850  12.964
83074SOL    HW251120   4.672   9.803  12.974
83075SOL     OW51121   5.147   2.086  12.727
83075SOL    HW151122   5.237   2.083  12.760
83075SOL    HW251123   5.136   2.176  12.695
83076SOL     OW51124   3.957   6.045   8.099
83076SOL    HW151125   3.862   6.040   8.091
83076SOL    HW251126   3.972   6.090   8.183
83077SOL     OW51127   9.004   8.664   5.263
83077SOL    HW151128   8.983   8.576   5.295
83077SOL    HW251129   8.949   8.722   5.315
83078SOL     OW51130   8.401  10.517  12.298
83078SOL    HW151131   8.402  10.512  12.202
83078SOL    HW251132   8.316  10.480  12.322
83079SOL     OW51133  10.494   4.019   4.666
83079SOL    HW151134  10.499   4.079   4.741
83079SOL    HW251135  10.529   3.936   4.699
83080SOL     OW51136  11.095   6.411   1.286
83080SOL    HW151137  11.049   6.467   1.223
83080SOL    HW251138  11.155   6.360   1.232
83081SOL     OW51139   7.234   7.683   1.722
83081SOL    HW151140   7.323   7.707   1.694
83081SOL    HW251141   7.212   7.606   1.670
83082SOL     OW51142   2.364   5.766   7.885
83082SOL    HW151143   2.452   5.774   7.851
83082SOL    HW251144   2.367   5.810   7.970
83083SOL     OW51145   5.556   3.239   2.142
83083SOL    HW151146   5.595   3.266   2.224
83083SOL    HW251147   5.591   3.299   2.077
83084SOL     OW51148  11.191  12.493   8.292
83084SOL    HW151149  11.196  12.398   8.284
83084SOL    HW251150  11.276  12.518   8.328
83085SOL     OW51151  13.820  11.451  13.450
83085SOL    HW151152  13.737  11.405  13.439
83085SOL    HW251153  13.837  11.449  13.544
83086SOL     OW51154   7.421   0.677  10.866
83086SOL    HW151155   7.504   0.661  10.822
83086SOL    HW251156   7.438   0.655  10.958
83087SOL     OW51157  10.211   6.064  10.685
83087SOL    HW151158  10.174   6.032  10.767
83087SOL    HW251159  10.289   6.010  10.671
83088SOL     OW51160   3.846  11.351   7.105
83088SOL    HW151161   3.914  11.402   7.148
83088SOL    HW251162   3.796  11.312   7.176
83089SOL     OW51163  13.273   2.227  11.638
83089SOL    HW151164  13.348   2.277  11.605
83089SOL    HW251165  13.206   2.293  11.657
83090SOL     OW51166   0.500  14.775   5.159
83090SOL    HW151167   0.525  14.685   5.138
83090SOL    HW251168   0.565  14.829   5.114
83091SOL     OW51169   6.641   9.852   8.550
83091SOL    HW151170   6.676   9.845   8.638
83091SOL    HW251171   6.710   9.894   8.499
83092SOL     OW51172  14.255   6.319   2.298
83092SOL    HW151173  14.205   6.240   2.315
83092SOL    HW251174  14.256   6.366   2.381
83093SOL     OW51175  12.373   7.634   5.693
83093SOL    HW151176  12.318   7.560   5.718
83093SOL    HW251177  12.338   7.707   5.744
83094SOL     OW51178   1.519   2.428  13.778
83094SOL    HW151179   1.424   2.431  13.780
83094SOL    HW251180   1.540   2.370  13.704
83095SOL     OW51181   1.240  13.694   7.689
83095SOL    HW151182   1.292  13.653   7.757
83095SOL    HW251183   1.168  13.737   7.735
83096SOL     OW51184   2.468  12.608   3.415
83096SOL    HW151185   2.539  12.622   3.478
83096SOL    HW251186   2.435  12.521   3.434
83097SOL     OW51187   2.268  10.193   9.426
83097SOL    HW151188   2.271  10.160   9.516
83097SOL    HW251189   2.230  10.281   9.435
83098SOL     OW51190   7.427  14.258   8.501
83098SOL    HW151191   7.373  14.180   8.488
83098SOL    HW251192   7.398  14.294   8.585
83099SOL     OW51193  11.294  12.353  14.400
83099SOL    HW151194  11.347  12.372  14.322
83099SOL    HW251195  11.219  12.412  14.392
83100SOL     OW51196   1.840  11.791   5.715
83100SOL    HW151197   1.851  11.748   5.800
83100SOL    HW251198   1.929  11.800   5.681
83101SOL     OW51199   1.526  12.581   1.907
83101SOL    HW151200   1.496  12.609   1.821
83101SOL    HW251201   1.536  12.662   1.957
83102SOL     OW51202   4.476   2.038   6.877
83102SOL    HW151203   4.544   2.094   6.915
83102SOL    HW251204   4.522   1.987   6.810
83103SOL     OW51205   6.639  12.034   0.494
83103SOL    HW151206   6.556  12.082   0.491
83103SOL    HW251207   6.620  11.952   0.449
83104SOL     OW51208   8.881   4.353  11.966
83104SOL    HW151209   8.909   4.436  11.926
83104SOL    HW251210   8.937   4.287  11.924
83105SOL     OW51211  12.850   5.905   8.607
83105SOL    HW151212  12.816   5.818   8.626
83105SOL    HW251213  12.773   5.957   8.584
83106SOL     OW51214  13.945   5.984   6.866
83106SOL    HW151215  13.962   6.078   6.856
83106SOL    HW251216  13.929   5.954   6.777
83107SOL     OW51217   1.315   6.961   1.939
83107SOL    HW151218   1.326   6.927   1.850
83107SOL    HW251219   1.293   7.053   1.928
83108SOL     OW51220  11.608   8.775  12.373
83108SOL    HW151221  11.551   8.825  12.314
83108SOL    HW251222  11.661   8.842  12.417
83109SOL     OW51223   3.112   1.633   5.944
83109SOL    HW151224   3.139   1.546   5.972
83109SOL    HW251225   3.147   1.642   5.855
83110SOL     OW51226  10.160   8.920   2.221
83110SOL    HW151227  10.204   8.882   2.297
83110SOL    HW251228  10.213   8.996   2.197
83111SOL     OW51229   4.230   6.469  10.572
83111SOL    HW151230   4.227   6.390  10.626
83111SOL    HW251231   4.194   6.441  10.487
83112SOL     OW51232   5.617   2.287   0.319
83112SOL    HW151233   5.653   2.244   0.397
83112SOL    HW251234   5.547   2.228   0.289
83113SOL     OW51235   3.249   8.957   9.289
83113SOL    HW151236   3.245   9.045   9.251
83113SOL    HW251237   3.251   8.899   9.213
83114SOL     OW51238   2.883   4.498   4.165
83114SOL    HW151239   2.884   4.487   4.260
83114SOL    HW251240   2.797   4.535   4.146
83115SOL     OW51241   9.998  14.398   3.921
83115SOL    HW151242   9.922  14.388   3.978
83115SOL    HW251243   9.970  14.360   3.837
83116SOL     OW51244  10.225   5.472   6.809
83116SOL    HW151245  10.318   5.454   6.824
83116SOL    HW251246  10.208   5.551   6.859
83117SOL     OW51247  13.531   4.745   9.339
83117SOL    HW151248  13.484   4.811   9.390
83117SOL    HW251249  13.613   4.732   9.388
83118SOL     OW51250   3.819  14.603   9.402
83118SOL    HW151251   3.737  14.632   9.362
83118SOL    HW251252   3.830  14.513   9.371
83119SOL     OW51253   8.282   1.358   9.119
83119SOL    HW151254   8.291   1.444   9.159
83119SOL    HW251255   8.242   1.376   9.033
83120SOL     OW51256   9.249  14.144   1.346
83120SOL    HW151257   9.261  14.059   1.305
83120SOL    HW251258   9.337  14.175   1.365
83121SOL     OW51259   3.210   5.499   5.814
83121SOL    HW151260   3.241   5.590   5.813
83121SOL    HW251261   3.137   5.499   5.752
83122SOL     OW51262  11.034   0.029   3.303
83122SOL    HW151263  10.941   0.015   3.323
83122SOL    HW251264  11.074   0.046   3.388
83123SOL     OW51265  12.229   6.076   9.243
83123SOL    HW151266  12.267   6.159   9.215
83123SOL    HW251267  12.275   6.054   9.324
83124SOL     OW51268   5.685  13.366  14.832
83124SOL    HW151269   5.660  13.457  14.813
83124SOL    HW251270   5.773  13.372  14.868
83125SOL     OW51271   5.083  13.544   0.144
83125SOL    HW151272   5.015  13.575   0.204
83125SOL    HW251273   5.073  13.449   0.143
83126SOL     OW51274   8.181  12.419   4.110
83126SOL    HW151275   8.092  12.451   4.121
83126SOL    HW251276   8.170  12.331   4.073
83127SOL     OW51277   7.962   9.524   4.945
83127SOL    HW151278   7.873   9.506   4.975
83127SOL    HW251279   7.973   9.470   4.867
83128SOL     OW51280   0.143  10.773   6.325
83128SOL    HW151281   0.069  10.757   6.267
83128SOL    HW251282   0.106  10.774   6.413
83129SOL     OW51283   1.563   6.870   4.142
83129SOL    HW151284   1.480   6.860   4.188
83129SOL    HW251285   1.540   6.922   4.064
83130SOL     OW51286  12.319  13.901   0.054
83130SOL    HW151287  12.328  13.967   0.122
83130SOL    HW251288  12.249  13.844   0.085
83131SOL     OW51289   5.283  13.526   0.898
83131SOL    HW151290   5.213  13.553   0.957
83131SOL    HW251291   5.348  13.486   0.955
83132SOL     OW51292  13.309   1.569   9.504
83132SOL    HW151293  13.272   1.629   9.439
83132SOL    HW251294  13.404   1.583   9.499
83133SOL     OW51295   3.548   7.872   4.926
83133SOL    HW151296   3.559   7.799   4.865
83133SOL    HW251297   3.638   7.900   4.947
83134SOL     OW51298  12.021  11.612  12.867
83134SOL    HW151299  11.992  11.537  12.919
83134SOL    HW251300  11.954  11.679  12.882
83135SOL     OW51301  14.201  10.838  12.276
83135SOL    HW151302  14.120  10.832  12.327
83135SOL    HW251303  14.263  10.782  12.323
83136SOL     OW51304   9.870   3.809   9.085
83136SOL    HW151305   9.787   3.775   9.118
83136SOL    HW251306   9.881   3.893   9.131
83137SOL     OW51307   6.556  14.215   8.105
83137SOL    HW151308   6.608  14.288   8.138
83137SOL    HW251309   6.580  14.141   8.161
83138SOL     OW51310   6.717   6.161   6.664
83138SOL    HW151311   6.655   6.125   6.600
83138SOL    HW251312   6.713   6.100   6.738
83139SOL     OW51313  12.876   6.932  14.838
83139SOL    HW151314  12.969   6.910  14.836
83139SOL    HW251315  12.844   6.909  14.751
83140SOL     OW51316   9.484   2.206   2.320
83140SOL    HW151317   9.561   2.227   2.372
83140SOL    HW251318   9.506   2.237   2.232
83141SOL     OW51319  10.054  10.177  10.687
83141SOL    HW151320  10.105  10.247  10.727
83141SOL    HW251321   9.968  10.215  10.670
83142SOL     OW51322  13.072   2.689   0.407
83142SOL    HW151323  13.164   2.713   0.393
83142SOL    HW251324  13.067   2.598   0.379
83143SOL     OW51325   7.384   1.115   4.540
83143SOL    HW151326   7.448   1.060   4.496
83143SOL    HW251327   7.427   1.140   4.622
83144SOL     OW51328   1.053   5.093  12.767
83144SOL    HW151329   1.051   5.140  12.684
83144SOL    HW251330   1.021   5.156  12.831
83145SOL     OW51331  11.804  13.759   3.363
83145SOL    HW151332  11.710  13.760   3.343
83145SOL    HW251333  11.811  13.703   3.440
83146SOL     OW51334  12.417  11.557  10.559
83146SOL    HW151335  12.504  11.540  10.595
83146SOL    HW251336  12.419  11.648  10.532
83147SOL     OW51337   3.467   4.581  12.195
83147SOL    HW151338   3.539   4.555  12.139
83147SOL    HW251339   3.403   4.511  12.186
83148SOL     OW51340   4.662  12.331   8.427
83148SOL    HW151341   4.608  12.261   8.463
83148SOL    HW251342   4.644  12.407   8.483
83149SOL     OW51343   3.768  11.373  11.765
83149SOL    HW151344   3.705  11.333  11.705
83149SOL    HW251345   3.811  11.299  11.808
83150SOL     OW51346   9.120  13.749   1.266
83150SOL    HW151347   9.064  13.692   1.318
83150SOL    HW251348   9.123  13.831   1.315
83151SOL     OW51349  14.640  11.610   9.400
83151SOL    HW151350  14.603  11.636   9.484
83151SOL    HW251351  14.568  11.569   9.353
83152SOL     OW51352   4.149   5.024  10.084
83152SOL    HW151353   4.058   5.024  10.114
83152SOL    HW251354   4.177   5.115  10.093
83153SOL     OW51355   6.827   7.759   6.375
83153SOL    HW151356   6.781   7.689   6.422
83153SOL    HW251357   6.831   7.728   6.285
83154SOL     OW51358   0.484   6.372   3.082
83154SOL    HW151359   0.555   6.350   3.141
83154SOL    HW251360   0.407   6.332   3.121
83155SOL     OW51361  14.744   6.288   3.761
83155SOL    HW151362  14.735   6.360   3.823
83155SOL    HW251363  14.831   6.251   3.779
83156SOL     OW51364   5.656   1.554   7.666
83156SOL    HW151365   5.625   1.473   7.707
83156SOL    HW251366   5.579   1.588   7.620
83157SOL     OW51367   3.897   1.838  10.835
83157SOL    HW151368   3.933   1.750  10.835
83157SOL    HW251369   3.837   1.840  10.910
83158SOL     OW51370   6.188   4.579   6.204
83158SOL    HW151371   6.243   4.507   6.235
83158SOL    HW251372   6.242   4.657   6.214
83159SOL     OW51373   0.256  12.814  13.329
83159SOL    HW151374   0.263  12.816  13.425
83159SOL    HW251375   0.346  12.822  13.298
83160SOL     OW51376  10.397  14.574  13.646
83160SOL    HW151377  10.414  14.664  13.619
83160SOL    HW251378  10.427  14.570  13.737
83161SOL     OW51379   4.872  10.386  13.422
83161SOL    HW151380   4.922  10.422  13.495
83161SOL    HW251381   4.792  10.439  13.419
83162SOL     OW51382   3.085   2.274  13.370
83162SOL    HW151383   3.056   2.290  13.280
83162SOL    HW251384   3.015   2.222  13.409
83163SOL     OW51385  13.604   8.183   1.247
83163SOL    HW151386  13.640   8.244   1.311
83163SOL    HW251387  13.551   8.238   1.189
83164SOL     OW51388  14.409  13.479  14.732
83164SOL    HW151389  14.409  13.533  14.811
83164SOL    HW251390  14.335  13.512  14.681
83165SOL     OW51391   6.584   7.936  11.901
83165SOL    HW151392   6.502   7.911  11.859
83165SOL    HW251393   6.636   7.976  11.831
83166SOL     OW51394  11.665  13.088  10.055
83166SOL    HW151395  11.620  13.073   9.971
83166SOL    HW251396  11.674  13.183  10.060
83167SOL     OW51397  10.762  10.002   4.495
83167SOL    HW151398  10.854  10.028   4.490
83167SOL    HW251399  10.740   9.973   4.406
83168SOL     OW51400  14.553   1.964   7.323
83168SOL    HW151401  14.607   2.023   7.377
83168SOL    HW251402  14.541   1.887   7.378
83169SOL     OW51403   4.671  11.141   4.109
83169SOL    HW151404   4.673  11.225   4.063
83169SOL    HW251405   4.699  11.077   4.043
83170SOL     OW51406   9.970   0.343   4.176
83170SOL    HW151407   9.925   0.338   4.092
83170SOL    HW251408  10.062   0.357   4.153
83171SOL     OW51409  12.563   5.395   1.782
83171SOL    HW151410  12.502   5.322   1.791
83171SOL    HW251411  12.538   5.437   1.699
83172SOL     OW51412   6.542   8.760  12.038
83172SOL    HW151413   6.459   8.807  12.027
83172SOL    HW251414   6.521   8.669  12.015
83173SOL     OW51415   7.555   6.167  10.351
83173SOL    HW151416   7.542   6.257  10.383
83173SOL    HW251417   7.484   6.117  10.392
83174SOL     OW51418   0.441   6.564  11.889
83174SOL    HW151419   0.495   6.512  11.949
83174SOL    HW251420   0.390   6.499  11.841
83175SOL     OW51421   3.899   2.444  11.738
83175SOL    HW151422   3.821   2.406  11.778
83175SOL    HW251423   3.897   2.415  11.647
83176SOL     OW51424   5.689  10.027   2.314
83176SOL    HW151425   5.685  10.120   2.288
83176SOL    HW251426   5.742   9.986   2.247
83177SOL     OW51427   1.963   8.895   2.165
83177SOL    HW151428   2.026   8.964   2.144
83177SOL    HW251429   1.978   8.827   2.099
83178SOL     OW51430   2.924   9.182   1.658
83178SOL    HW151431   2.936   9.088   1.648
83178SOL    HW251432   3.001   9.212   1.706
83179SOL     OW51433   4.775   5.689   3.592
83179SOL    HW151434   4.835   5.747   3.639
83179SOL    HW251435   4.690   5.732   3.597
83180SOL     OW51436   2.524   5.599  12.828
83180SOL    HW151437   2.475   5.672  12.790
83180SOL    HW251438   2.606   5.638  12.856
83181SOL     OW51439   8.690  14.723  12.094
83181SOL    HW151440   8.784  14.706  12.087
83181SOL    HW251441   8.684  14.796  12.156
83182SOL     OW51442   1.117   6.473  14.727
83182SOL    HW151443   1.076   6.468  14.814
83182SOL    HW251444   1.072   6.405  14.676
83183SOL     OW51445   3.471   3.142   5.822
83183SOL    HW151446   3.450   3.205   5.753
83183SOL    HW251447   3.422   3.063   5.798
83184SOL     OW51448   3.906   4.801   7.226
83184SOL    HW151449   3.810   4.803   7.226
83184SOL    HW251450   3.932   4.891   7.244
83185SOL     OW51451  12.439  11.140  14.569
83185SOL    HW151452  12.409  11.221  14.610
83185SOL    HW251453  12.525  11.162  14.532
83186SOL     OW51454   9.991   2.319   4.585
83186SOL    HW151455   9.908   2.311   4.631
83186SOL    HW251456   9.968   2.355   4.499
83187SOL     OW51457   2.553   2.420  10.991
83187SOL    HW151458   2.481   2.482  10.986
83187SOL    HW251459   2.523   2.344  10.941
83188SOL     OW51460   0.005  13.495  14.621
83188SOL    HW151461   0.053  13.556  14.677
83188SOL    HW251462  14.852  13.549  14.549
83189SOL     OW51463  11.596   0.100   1.856
83189SOL    HW151464  11.642   0.184   1.853
83189SOL    HW251465  11.594   0.077   1.949
83190SOL     OW51466  12.060   8.787  12.571
83190SOL    HW151467  12.099   8.809  12.487
83190SOL    HW251468  12.086   8.858  12.629
83191SOL     OW51469   2.350  14.275   0.125
83191SOL    HW151470   2.372  14.242   0.038
83191SOL    HW251471   2.296  14.353   0.109
83192SOL     OW51472  12.324   7.067   7.791
83192SOL    HW151473  12.233   7.038   7.793
83192SOL    HW251474  12.369   7.009   7.853
83193SOL     OW51475  10.061   2.979  11.150
83193SOL    HW151476   9.973   2.955  11.122
83193SOL    HW251477  10.054   3.071  11.175
83194SOL     OW51478   3.596   3.688  14.197
83194SOL    HW151479   3.586   3.745  14.273
83194SOL    HW251480   3.677   3.639  14.213
83195SOL     OW51481   5.929   3.069   8.475
83195SOL    HW151482   5.958   3.128   8.544
83195SOL    HW251483   5.852   3.025   8.511
83196SOL     OW51484  13.400  13.657   6.820
83196SOL    HW151485  13.366  13.727   6.875
83196SOL    HW251486  13.335  13.648   6.749
83197SOL     OW51487   7.120   5.337   3.099
83197SOL    HW151488   7.206   5.297   3.115
83197SOL    HW251489   7.130   5.382   3.015
83198SOL     OW51490   3.945   5.568   3.543
83198SOL    HW151491   3.905   5.592   3.459
83198SOL    HW251492   3.947   5.472   3.541
83199SOL     OW51493   9.364  10.069   0.383
83199SOL    HW151494   9.334  10.100   0.297
83199SOL    HW251495   9.395  10.148   0.427
83200SOL     OW51496   8.304   6.653   9.161
83200SOL    HW151497   8.290   6.672   9.254
83200SOL    HW251498   8.372   6.715   9.134
83201SOL     OW51499   5.101   9.164  12.618
83201SOL    HW151500   5.050   9.089  12.589
83201SOL    HW251501   5.171   9.127  12.673
83202SOL     OW51502  13.342  10.829   6.560
83202SOL    HW151503  13.395  10.895   6.515
83202SOL    HW251504  13.369  10.836   6.651
83203SOL     OW51505  10.938   6.047   8.039
83203SOL    HW151506  10.920   6.140   8.023
83203SOL    HW251507  10.988   6.019   7.962
83204SOL     OW51508  10.431  11.354   2.829
83204SOL    HW151509  10.395  11.283   2.883
83204SOL    HW251510  10.469  11.415   2.892
83205SOL     OW51511   5.578  13.133   1.198
83205SOL    HW151512   5.631  13.210   1.218
83205SOL    HW251513   5.627  13.060   1.233
83206SOL     OW51514   5.826   2.810  11.471
83206SOL    HW151515   5.873   2.727  11.463
83206SOL    HW251516   5.894   2.877  11.464
83207SOL     OW51517   4.099   8.647   0.288
83207SOL    HW151518   4.149   8.610   0.216
83207SOL    HW251519   4.046   8.716   0.248
83208SOL     OW51520   4.919   1.786   1.994
83208SOL    HW151521   4.991   1.840   2.028
83208SOL    HW251522   4.892   1.830   1.914
83209SOL     OW51523   0.066   9.326   7.128
83209SOL    HW151524  14.872   9.378   7.159
83209SOL    HW251525   0.039   9.235   7.143
83210SOL     OW51526  11.369   6.413  10.367
83210SOL    HW151527  11.455   6.411  10.325
83210SOL    HW251528  11.379   6.357  10.445
83211SOL     OW51529  11.600   4.928   5.122
83211SOL    HW151530  11.540   4.979   5.067
83211SOL    HW251531  11.560   4.841   5.126
83212SOL     OW51532  11.328   1.857   1.908
83212SOL    HW151533  11.251   1.901   1.946
83212SOL    HW251534  11.317   1.868   1.814
83213SOL     OW51535  11.894  14.192  14.330
83213SOL    HW151536  11.814  14.143  14.349
83213SOL    HW251537  11.872  14.282  14.352
83214SOL     OW51538   4.255  11.402   1.378
83214SOL    HW151539   4.177  11.422   1.429
83214SOL    HW251540   4.237  11.440   1.292
83215SOL     OW51541  11.351   0.166  11.590
83215SOL    HW151542  11.399   0.243  11.619
83215SOL    HW251543  11.281   0.155  11.654
83216SOL     OW51544   5.016   3.940  13.787
83216SOL    HW151545   4.960   3.866  13.763
83216SOL    HW251546   5.099   3.923  13.742
83217SOL     OW51547   1.755  12.361   6.852
83217SOL    HW151548   1.832  12.391   6.900
83217SOL    HW251549   1.767  12.396   6.763
83218SOL     OW51550   8.259   9.240   6.011
83218SOL    HW151551   8.337   9.269   6.059
83218SOL    HW251552   8.190   9.235   6.077
83219SOL     OW51553  10.639   3.570  10.136
83219SOL    HW151554  10.697   3.635  10.096
83219SOL    HW251555  10.675   3.557  10.224
83220SOL     OW51556   2.361  10.425   5.571
83220SOL    HW151557   2.369  10.511   5.529
83220SOL    HW251558   2.433  10.423   5.635
83221SOL     OW51559   0.873  10.751   1.804
83221SOL    HW151560   0.900  10.842   1.819
83221SOL    HW251561   0.854  10.747   1.710
83222SOL     OW51562   4.224   1.088   9.395
83222SOL    HW151563   4.216   1.122   9.484
83222SOL    HW251564   4.145   1.035   9.382
83223SOL     OW51565  12.107   1.167   7.652
83223SOL    HW151566  12.037   1.107   7.680
83223SOL    HW251567  12.099   1.243   7.710
83224SOL     OW51568  13.918   3.750   9.023
83224SOL    HW151569  13.998   3.701   9.044
83224SOL    HW251570  13.854   3.682   8.999
83225SOL     OW51571   0.186   5.399   0.677
83225SOL    HW151572   0.164   5.490   0.660
83225SOL    HW251573   0.121   5.370   0.742
83226SOL     OW51574  11.790  12.103   1.283
83226SOL    HW151575  11.881  12.107   1.255
83226SOL    HW251576  11.794  12.078   1.375
83227SOL     OW51577  10.518   6.691   6.533
83227SOL    HW151578  10.451   6.625   6.515
83227SOL    HW251579  10.560   6.706   6.448
83228SOL     OW51580   9.327  11.792   5.610
83228SOL    HW151581   9.414  11.759   5.587
83228SOL    HW251582   9.315  11.867   5.551
83229SOL     OW51583   8.157   9.653  12.645
83229SOL    HW151584   8.117   9.704  12.574
83229SOL    HW251585   8.093   9.658  12.716
83230SOL     OW51586   5.362   3.820  13.879
83230SOL    HW151587   5.442   3.872  13.866
83230SOL    HW251588   5.313   3.832  13.797
83231SOL     OW51589   4.487   5.295   0.301
83231SOL    HW151590   4.566   5.242   0.295
83231SOL    HW251591   4.440   5.261   0.377
83232SOL     OW51592   5.864  11.360  13.398
83232SOL    HW151593   5.776  11.393  13.381
83232SOL    HW251594   5.922  11.435  13.385
83233SOL     OW51595  11.363   3.515   2.018
83233SOL    HW151596  11.370   3.555   2.105
83233SOL    HW251597  11.423   3.565   1.963
83234SOL     OW51598   9.461   8.762  12.503
83234SOL    HW151599   9.465   8.847  12.546
83234SOL    HW251600   9.543   8.757  12.452
83235SOL     OW51601  11.959  11.168  14.085
83235SOL    HW151602  12.047  11.131  14.095
83235SOL    HW251603  11.920  11.161  14.172
83236SOL     OW51604   6.393   1.419   5.520
83236SOL    HW151605   6.342   1.425   5.601
83236SOL    HW251606   6.401   1.325   5.505
83237SOL     OW51607  13.736   7.665   8.618
83237SOL    HW151608  13.788   7.585   8.607
83237SOL    HW251609  13.679   7.666   8.541
83238SOL     OW51610   6.115   8.107   1.766
83238SOL    HW151611   6.164   8.030   1.794
83238SOL    HW251612   6.117   8.166   1.841
83239SOL     OW51613   7.282   7.161   1.186
83239SOL    HW151614   7.352   7.096   1.188
83239SOL    HW251615   7.290   7.203   1.101
83240SOL     OW51616   9.264   1.610   4.013
83240SOL    HW151617   9.303   1.666   4.079
83240SOL    HW251618   9.275   1.658   3.931
83241SOL     OW51619   6.405  13.795  10.063
83241SOL    HW151620   6.385  13.873  10.115
83241SOL    HW251621   6.428  13.728  10.128
83242SOL     OW51622   8.229  10.155   2.730
83242SOL    HW151623   8.199  10.161   2.639
83242SOL    HW251624   8.149  10.142   2.780
83243SOL     OW51625   1.891  11.889  10.460
83243SOL    HW151626   1.840  11.868  10.381
83243SOL    HW251627   1.943  11.965  10.436
83244SOL     OW51628   0.548  10.475  10.523
83244SOL    HW151629   0.556  10.563  10.559
83244SOL    HW251630   0.589  10.480  10.437
83245SOL     OW51631   1.796   2.928   7.527
83245SOL    HW151632   1.739   2.902   7.600
83245SOL    HW251633   1.756   2.887   7.450
83246SOL     OW51634   0.771  12.225   9.110
83246SOL    HW151635   0.704  12.267   9.057
83246SOL    HW251636   0.730  12.143   9.140
83247SOL     OW51637   6.007  11.840  14.816
83247SOL    HW151638   5.988  11.918  14.764
83247SOL    HW251639   6.096  11.815  14.790
83248SOL     OW51640   4.073   0.089   1.418
83248SOL    HW151641   4.164   0.068   1.400
83248SOL    HW251642   4.073   0.121   1.508
83249SOL     OW51643  11.242  10.910   9.653
83249SOL    HW151644  11.282  10.825   9.635
83249SOL    HW251645  11.293  10.946   9.726
83250SOL     OW51646   6.613  11.691   2.750
83250SOL    HW151647   6.601  11.694   2.655
83250SOL    HW251648   6.644  11.602   2.767
83251SOL     OW51649   1.237  14.395   4.822
83251SOL    HW151650   1.238  14.451   4.900
83251SOL    HW251651   1.201  14.451   4.753
83252SOL     OW51652  13.962  10.140   3.262
83252SOL    HW151653  14.021  10.183   3.324
83252SOL    HW251654  13.955  10.051   3.294
83253SOL     OW51655   5.595   6.052  14.171
83253SOL    HW151656   5.599   6.003  14.088
83253SOL    HW251657   5.544   6.130  14.150
83254SOL     OW51658   0.616   7.030   8.780
83254SOL    HW151659   0.614   7.036   8.875
83254SOL    HW251660   0.695   6.980   8.760
83255SOL     OW51661   3.084  13.841   7.184
83255SOL    HW151662   3.161  13.796   7.150
83255SOL    HW251663   3.023  13.771   7.205
83256SOL     OW51664   0.279   5.663  13.954
83256SOL    HW151665   0.230   5.581  13.946
83256SOL    HW251666   0.235   5.711  14.024
83257SOL     OW51667   6.828  13.252   2.569
83257SOL    HW151668   6.919  13.243   2.595
83257SOL    HW251669   6.779  13.212   2.641
83258SOL     OW51670  10.105   6.046  12.349
83258SOL    HW151671  10.168   6.102  12.393
83258SOL    HW251672  10.135   6.044  12.258
83259SOL     OW51673   9.930   1.455   4.222
83259SOL    HW151674   9.974   1.380   4.263
83259SOL    HW251675   9.917   1.428   4.131
83260SOL     OW51676  12.321   0.165   7.433
83260SOL    HW151677  12.287   0.125   7.514
83260SOL    HW251678  12.251   0.224   7.405
83261SOL     OW51679  10.936   0.791  12.255
83261SOL    HW151680  10.977   0.863  12.206
83261SOL    HW251681  11.009   0.746  12.298
83262SOL     OW51682   7.776   7.264  10.029
83262SOL    HW151683   7.806   7.326  10.095
83262SOL    HW251684   7.788   7.178  10.070
83263SOL     OW51685   3.893  10.947  14.630
83263SOL    HW151686   3.951  10.879  14.667
83263SOL    HW251687   3.943  10.984  14.558
83264SOL     OW51688   6.431   6.256  13.349
83264SOL    HW151689   6.448   6.166  13.320
83264SOL    HW251690   6.512   6.303  13.328
83265SOL     OW51691   9.408   4.909  12.680
83265SOL    HW151692   9.465   4.923  12.755
83265SOL    HW251693   9.436   4.825  12.643
83266SOL     OW51694  11.934  11.237   0.418
83266SOL    HW151695  11.980  11.179   0.357
83266SOL    HW251696  11.945  11.196   0.504
83267SOL     OW51697   6.742   1.477   9.306
83267SOL    HW151698   6.667   1.471   9.247
83267SOL    HW251699   6.703   1.477   9.394
83268SOL     OW51700  13.141   0.890  11.067
83268SOL    HW151701  13.077   0.915  11.133
83268SOL    HW251702  13.155   0.968  11.015
83269SOL     OW51703   3.765   9.269   0.097
83269SOL    HW151704   3.763   9.353   0.051
83269SOL    HW251705   3.756   9.293   0.190
83270SOL     OW51706  14.805   7.702  14.778
83270SOL    HW151707  14.874   7.735  14.720
83270SOL    HW251708  14.816   7.607  14.776
83271SOL     OW51709   4.021  10.314   9.557
83271SOL    HW151710   4.011  10.337   9.465
83271SOL    HW251711   3.957  10.243   9.571
83272SOL     OW51712   7.908  10.053  10.475
83272SOL    HW151713   8.000  10.039  10.496
83272SOL    HW251714   7.867  10.078  10.557
83273SOL     OW51715   1.294   3.554   1.023
83273SOL    HW151716   1.334   3.550   1.110
83273SOL    HW251717   1.358   3.599   0.969
83274SOL     OW51718  13.456   6.209  14.544
83274SOL    HW151719  13.382   6.159  14.579
83274SOL    HW251720  13.518   6.142  14.516
83275SOL     OW51721  11.730   6.368   6.472
83275SOL    HW151722  11.786   6.430   6.519
83275SOL    HW251723  11.782   6.287   6.470
83276SOL     OW51724   2.904  12.512   6.159
83276SOL    HW151725   2.910  12.491   6.066
83276SOL    HW251726   2.994  12.534   6.185
83277SOL     OW51727  12.787  11.893  13.992
83277SOL    HW151728  12.821  11.897  13.902
83277SOL    HW251729  12.862  11.915  14.046
83278SOL     OW51730  13.265   9.919  13.084
83278SOL    HW151731  13.305   9.954  13.004
83278SOL    HW251732  13.174   9.903  13.061
83279SOL     OW51733   5.924   7.836   7.558
83279SOL    HW151734   5.998   7.846   7.619
83279SOL    HW251735   5.957   7.776   7.491
83280SOL     OW51736   2.401   8.745   9.704
83280SOL    HW151737   2.469   8.680   9.688
83280SOL    HW251738   2.398   8.798   9.625
83281SOL     OW51739   6.500  12.878   9.186
83281SOL    HW151740   6.412  12.846   9.168
83281SOL    HW251741   6.491  12.973   9.192
83282SOL     OW51742  13.937   9.850  12.403
83282SOL    HW151743  13.932   9.921  12.467
83282SOL    HW251744  13.857   9.799  12.417
83283SOL     OW51745  13.235   8.591  10.406
83283SOL    HW151746  13.292   8.666  10.388
83283SOL    HW251747  13.295   8.517  10.415
83284SOL     OW51748   0.167   7.210  10.641
83284SOL    HW151749   0.196   7.130  10.684
83284SOL    HW251750   0.146   7.270  10.712
83285SOL     OW51751   8.708   1.876   4.638
83285SOL    HW151752   8.668   1.905   4.720
83285SOL    HW251753   8.713   1.956   4.584
83286SOL     OW51754   6.130  14.351   2.702
83286SOL    HW151755   6.074  14.414   2.747
83286SOL    HW251756   6.219  14.381   2.719
83287SOL     OW51757   6.590   0.073   8.719
83287SOL    HW151758   6.639   0.046   8.797
83287SOL    HW251759   6.511   0.113   8.753
83288SOL     OW51760   5.534   9.474  10.035
83288SOL    HW151761   5.585   9.401  10.072
83288SOL    HW251762   5.587   9.505   9.961
83289SOL     OW51763  14.272  11.158   6.526
83289SOL    HW151764  14.342  11.093   6.527
83289SOL    HW251765  14.240  11.158   6.435
83290SOL     OW51766   2.182  13.298   9.903
83290SOL    HW151767   2.255  13.255   9.948
83290SOL    HW251768   2.184  13.388   9.935
83291SOL     OW51769  12.030   5.130   4.884
83291SOL    HW151770  12.051   5.061   4.822
83291SOL    HW251771  11.941   5.109   4.913
83292SOL     OW51772  13.418   5.942   5.471
83292SOL    HW151773  13.389   5.866   5.521
83292SOL    HW251774  13.504   5.917   5.437
83293SOL     OW51775   8.279   5.578   5.637
83293SOL    HW151776   8.312   5.654   5.589
83293SOL    HW251777   8.315   5.503   5.590
83294SOL     OW51778   7.484   3.697   5.537
83294SOL    HW151779   7.420   3.656   5.595
83294SOL    HW251780   7.435   3.717   5.458
83295SOL     OW51781   1.403   3.863   7.416
83295SOL    HW151782   1.392   3.888   7.325
83295SOL    HW251783   1.495   3.884   7.436
83296SOL     OW51784  10.351   7.653   9.116
83296SOL    HW151785  10.386   7.604   9.190
83296SOL    HW251786  10.427   7.699   9.080
83297SOL     OW51787   3.021   3.448  11.619
83297SOL    HW151788   3.109   3.450  11.657
83297SOL    HW251789   2.975   3.521  11.660
83298SOL     OW51790   4.709   5.930   0.327
83298SOL    HW151791   4.758   5.943   0.408
83298SOL    HW251792   4.619   5.953   0.350
83299SOL     OW51793  12.693  14.560   1.143
83299SOL    HW151794  12.622  14.577   1.204
83299SOL    HW251795  12.662  14.595   1.059
83300SOL     OW51796   4.942   3.945   9.498
83300SOL    HW151797   4.949   3.979   9.587
83300SOL    HW251798   4.852   3.915   9.490
83301SOL     OW51799   9.731  14.855   4.896
83301SOL    HW151800   9.722  14.819   4.984
83301SOL    HW251801   9.698  14.786   4.838
83302SOL     OW51802   8.578  10.593   6.140
83302SOL    HW151803   8.622  10.554   6.215
83302SOL    HW251804   8.624  10.556   6.064
83303SOL     OW51805   2.162  13.804  12.543
83303SOL    HW151806   2.174  13.896  12.567
83303SOL    HW251807   2.166  13.803  12.447
83304SOL     OW51808   6.849  11.765  12.818
83304SOL    HW151809   6.913  11.832  12.793
83304SOL    HW251810   6.786  11.765  12.746
83305SOL     OW51811   3.357   2.800  13.211
83305SOL    HW151812   3.307   2.789  13.130
83305SOL    HW251813   3.414   2.875  13.194
83306SOL     OW51814   8.938   7.483   3.616
83306SOL    HW151815   8.868   7.513   3.557
83306SOL    HW251816   8.932   7.541   3.692
83307SOL     OW51817   4.265  11.266   5.756
83307SOL    HW151818   4.348  11.294   5.794
83307SOL    HW251819   4.252  11.324   5.681
83308SOL     OW51820  14.630   4.002   7.510
83308SOL    HW151821  14.654   4.093   7.493
83308SOL    HW251822  14.643   3.958   7.426
83309SOL     OW51823   3.684   4.888  12.989
83309SOL    HW151824   3.589   4.884  12.981
83309SOL    HW251825   3.708   4.803  13.026
83310SOL     OW51826   5.050   6.382   3.242
83310SOL    HW151827   4.958   6.358   3.237
83310SOL    HW251828   5.057   6.462   3.190
83311SOL     OW51829   0.239   8.447  14.876
83311SOL    HW151830   0.262   8.405   0.079
83311SOL    HW251831   0.146   8.468   0.005
83312SOL     OW51832  14.228   7.190   3.643
83312SOL    HW151833  14.310   7.150   3.612
83312SOL    HW251834  14.175   7.116   3.673
83313SOL     OW51835  13.571   6.562   2.313
83313SOL    HW151836  13.607   6.517   2.236
83313SOL    HW251837  13.538   6.645   2.279
83314SOL     OW51838  13.488   4.476   3.326
83314SOL    HW151839  13.411   4.422   3.309
83314SOL    HW251840  13.520   4.447   3.412
83315SOL     OW51841   8.486   6.778   6.040
83315SOL    HW151842   8.555   6.721   6.073
83315SOL    HW251843   8.526   6.826   5.967
83316SOL     OW51844   1.320   8.624  13.265
83316SOL    HW151845   1.242   8.589  13.310
83316SOL    HW251846   1.310   8.719  13.271
83317SOL     OW51847   6.744   7.402   4.989
83317SOL    HW151848   6.754   7.446   4.904
83317SOL    HW251849   6.719   7.472   5.049
83318SOL     OW51850   7.584  14.167  12.422
83318SOL    HW151851   7.661  14.127  12.381
83318SOL    HW251852   7.534  14.093  12.456
83319SOL     OW51853   3.220  14.400   9.853
83319SOL    HW151854   3.255  14.471   9.799
83319SOL    HW251855   3.257  14.320   9.815
83320SOL     OW51856  12.277   2.735  10.358
83320SOL    HW151857  12.354   2.791  10.348
83320SOL    HW251858  12.203   2.795  10.354
83321SOL     OW51859  13.060   8.760   5.915
83321SOL    HW151860  13.063   8.855   5.919
83321SOL    HW251861  12.967   8.739   5.903
83322SOL     OW51862  10.374   3.654  11.618
83322SOL    HW151863  10.419   3.735  11.595
83322SOL    HW251864  10.312   3.640  11.546
83323SOL     OW51865   7.180   8.899   9.549
83323SOL    HW151866   7.088   8.902   9.576
83323SOL    HW251867   7.228   8.932   9.625
83324SOL     OW51868  13.550  14.160   0.546
83324SOL    HW151869  13.559  14.104   0.624
83324SOL    HW251870  13.584  14.245   0.574
83325SOL     OW51871  13.885   1.414  11.870
83325SOL    HW151872  13.940   1.381  11.941
83325SOL    HW251873  13.857   1.337  11.822
83326SOL     OW51874  11.917  11.735   2.870
83326SOL    HW151875  11.832  11.699   2.896
83326SOL    HW251876  11.899  11.828   2.853
83327SOL     OW51877   5.499   0.943   8.190
83327SOL    HW151878   5.519   0.850   8.193
83327SOL    HW251879   5.460   0.958   8.104
83328SOL     OW51880  10.964   1.945  12.844
83328SOL    HW151881  10.891   1.978  12.790
83328SOL    HW251882  10.936   1.857  12.869
83329SOL     OW51883  11.799   0.417   9.223
83329SOL    HW151884  11.753   0.471   9.288
83329SOL    HW251885  11.731   0.360   9.187
83330SOL     OW51886  14.832   5.539   7.566
83330SOL    HW151887   0.036   5.542   7.613
83330SOL    HW251888  14.779   5.475   7.614
83331SOL     OW51889   2.812   1.458   7.514
83331SOL    HW151890   2.874   1.501   7.572
83331SOL    HW251891   2.835   1.488   7.427
83332SOL     OW51892   8.812  10.867   7.636
83332SOL    HW151893   8.834  10.960   7.638
83332SOL    HW251894   8.721  10.863   7.666
83333SOL     OW51895   4.715  10.180   6.178
83333SOL    HW151896   4.646  10.173   6.244
83333SOL    HW251897   4.795  10.153   6.223
83334SOL     OW51898   9.676   9.568   2.895
83334SOL    HW151899   9.734   9.522   2.835
83334SOL    HW251900   9.636   9.636   2.842
83335SOL     OW51901  13.458  12.758   6.467
83335SOL    HW151902  13.490  12.840   6.428
83335SOL    HW251903  13.507  12.690   6.422
83336SOL     OW51904   8.944   9.681   0.979
83336SOL    HW151905   8.968   9.767   1.014
83336SOL    HW251906   8.854   9.691   0.949
83337SOL     OW51907  13.653   1.970   2.317
83337SOL    HW151908  13.696   1.918   2.250
83337SOL    HW251909  13.560   1.964   2.296
83338SOL     OW51910   0.649   8.017   4.615
83338SOL    HW151911   0.603   7.932   4.612
83338SOL    HW251912   0.685   8.027   4.527
83339SOL     OW51913  12.442   0.980  10.769
83339SOL    HW151914  12.513   1.006  10.711
83339SOL    HW251915  12.370   1.040  10.748
83340SOL     OW51916   2.313  14.023  13.907
83340SOL    HW151917   2.353  13.938  13.890
83340SOL    HW251918   2.322  14.034  14.002
83341SOL     OW51919   0.291   2.839   5.221
83341SOL    HW151920   0.340   2.812   5.299
83341SOL    HW251921   0.284   2.760   5.168
83342SOL     OW51922  12.009   7.393   9.223
83342SOL    HW151923  11.950   7.393   9.298
83342SOL    HW251924  12.096   7.407   9.261
83343SOL     OW51925   0.437   3.597   1.642
83343SOL    HW151926   0.386   3.552   1.574
83343SOL    HW251927   0.487   3.663   1.595
83344SOL     OW51928   9.464  11.618   7.870
83344SOL    HW151929   9.523  11.553   7.831
83344SOL    HW251930   9.515  11.657   7.940
83345SOL     OW51931   3.881   4.506   1.606
83345SOL    HW151932   3.947   4.471   1.545
83345SOL    HW251933   3.924   4.580   1.647
83346SOL     OW51934  14.011   9.483   9.631
83346SOL    HW151935  13.960   9.513   9.556
83346SOL    HW251936  13.952   9.494   9.706
83347SOL     OW51937   9.591  12.753  10.661
83347SOL    HW151938   9.566  12.793  10.744
83347SOL    HW251939   9.515  12.763  10.604
83348SOL     OW51940  12.718   6.489   1.913
83348SOL    HW151941  12.654   6.557   1.933
83348SOL    HW251942  12.780   6.493   1.986
83349SOL     OW51943  12.697  12.955  10.507
83349SOL    HW151944  12.726  13.030  10.559
83349SOL    HW251945  12.691  12.883  10.570
83350SOL     OW51946   4.650   7.417  14.745
83350SOL    HW151947   4.639   7.408  14.840
83350SOL    HW251948   4.693   7.502  14.734
83351SOL     OW51949   4.663  11.318  10.693
83351SOL    HW151950   4.625  11.233  10.717
83351SOL    HW251951   4.679  11.312  10.599
83352SOL     OW51952   0.663   3.716   9.890
83352SOL    HW151953   0.682   3.797   9.938
83352SOL    HW251954   0.709   3.727   9.807
83353SOL     OW51955   3.031   2.110   1.856
83353SOL    HW151956   2.976   2.169   1.804
83353SOL    HW251957   2.978   2.030   1.865
83354SOL     OW51958   8.262   2.754   8.816
83354SOL    HW151959   8.177   2.762   8.772
83354SOL    HW251960   8.244   2.771   8.908
83355SOL     OW51961   4.306   1.932  11.902
83355SOL    HW151962   4.370   1.914  11.833
83355SOL    HW251963   4.289   1.847  11.942
83356SOL     OW51964   0.590  12.367   7.583
83356SOL    HW151965   0.591  12.285   7.533
83356SOL    HW251966   0.663  12.357   7.645
83357SOL     OW51967   3.070   4.977   0.181
83357SOL    HW151968   2.990   4.992   0.129
83357SOL    HW251969   3.096   4.888   0.159
83358SOL     OW51970   7.501   3.033   5.194
83358SOL    HW151971   7.447   3.092   5.245
83358SOL    HW251972   7.588   3.071   5.196
83359SOL     OW51973  11.913   0.851   0.802
83359SOL    HW151974  11.983   0.902   0.844
83359SOL    HW251975  11.893   0.781   0.864
83360SOL     OW51976   5.088   3.647   1.639
83360SOL    HW151977   5.112   3.577   1.701
83360SOL    HW251978   5.157   3.645   1.573
83361SOL     OW51979   9.089  11.691   1.414
83361SOL    HW151980   9.072  11.766   1.357
83361SOL    HW251981   9.182  11.673   1.402
83362SOL     OW51982   9.605  13.160   9.420
83362SOL    HW151983   9.523  13.184   9.375
83362SOL    HW251984   9.674  13.180   9.356
83363SOL     OW51985  11.124   0.488   9.356
83363SOL    HW151986  11.204   0.472   9.305
83363SOL    HW251987  11.066   0.535   9.296
83364SOL     OW51988   5.296  14.622  10.279
83364SOL    HW151989   5.344  14.615  10.362
83364SOL    HW251990   5.278  14.715  10.270
83365SOL     OW51991   8.359  14.589  12.866
83365SOL    HW151992   8.421  14.597  12.794
83365SOL    HW251993   8.400  14.526  12.926
83366SOL     OW51994  13.292   3.390   8.867
83366SOL    HW151995  13.350   3.365   8.794
83366SOL    HW251996  13.205   3.363   8.838
83367SOL     OW51997  12.566   1.687   8.033
83367SOL    HW151998  12.509   1.610   8.023
83367SOL    HW251999  12.596   1.706   7.944
83368SOL     OW52000   4.630   4.042   8.016
83368SOL    HW152001   4.623   4.025   8.110
83368SOL    HW252002   4.643   3.955   7.977
83369SOL     OW52003  10.733  11.746   7.700
83369SOL    HW152004  10.660  11.786   7.746
83369SOL    HW252005  10.703  11.737   7.609
83370SOL     OW52006  11.604   5.625  13.374
83370SOL    HW152007  11.525   5.623  13.320
83370SOL    HW252008  11.581   5.680  13.449
83371SOL     OW52009   6.472  10.649   0.580
83371SOL    HW152010   6.523  10.678   0.656
83371SOL    HW252011   6.419  10.725   0.557
83372SOL     OW52012   5.433   2.285  11.867
83372SOL    HW152013   5.497   2.307  11.935
83372SOL    HW252014   5.448   2.352  11.799
83373SOL     OW52015   7.188  14.376   6.927
83373SOL    HW152016   7.218  14.294   6.888
83373SOL    HW252017   7.093  14.370   6.927
83374SOL     OW52018   3.813  10.481   3.432
83374SOL    HW152019   3.805  10.387   3.415
83374SOL    HW252020   3.834  10.486   3.526
83375SOL     OW52021   6.064  10.458   2.360
83375SOL    HW152022   6.136  10.467   2.422
83375SOL    HW252023   6.047  10.364   2.356
83376SOL     OW52024   6.251  12.669   7.680
83376SOL    HW152025   6.300  12.646   7.759
83376SOL    HW252026   6.319  12.684   7.614
83377SOL     OW52027   0.098   0.701  12.419
83377SOL    HW152028   0.052   0.648  12.484
83377SOL    HW252029   0.087   0.791  12.450
83378SOL     OW52030   6.540   9.433   2.384
83378SOL    HW152031   6.536   9.345   2.346
83378SOL    HW252032   6.576   9.419   2.472
83379SOL     OW52033   9.590   6.486  13.433
83379SOL    HW152034   9.505   6.514  13.467
83379SOL    HW252035   9.624   6.426  13.499
83380SOL     OW52036   2.496   6.143  14.570
83380SOL    HW152037   2.511   6.074  14.635
83380SOL    HW252038   2.466   6.097  14.492
83381SOL     OW52039   0.908   4.352   4.267
83381SOL    HW152040   0.903   4.322   4.358
83381SOL    HW252041   0.965   4.287   4.224
83382SOL     OW52042   3.189   5.336   4.869
83382SOL    HW152043   3.172   5.300   4.783
83382SOL    HW252044   3.219   5.426   4.852
83383SOL     OW52045  13.909   8.826   8.465
83383SOL    HW152046  13.969   8.808   8.537
83383SOL    HW252047  13.859   8.902   8.492
83384SOL     OW52048  10.714   8.254   3.292
83384SOL    HW152049  10.638   8.261   3.350
83384SOL    HW252050  10.699   8.175   3.241
83385SOL     OW52051  13.776  11.587   4.493
83385SOL    HW152052  13.771  11.657   4.428
83385SOL    HW252053  13.848  11.532   4.464
83386SOL     OW52054  13.724  12.998   3.005
83386SOL    HW152055  13.663  13.051   2.953
83386SOL    HW252056  13.810  13.022   2.970
83387SOL     OW52057   7.333   8.970   7.500
83387SOL    HW152058   7.379   9.035   7.447
83387SOL    HW252059   7.280   9.021   7.560
83388SOL     OW52060   7.519   1.335   7.888
83388SOL    HW152061   7.435   1.343   7.933
83388SOL    HW252062   7.496   1.318   7.796
83389SOL     OW52063   5.678   1.270   7.424
83389SOL    HW152064   5.703   1.178   7.432
83389SOL    HW252065   5.584   1.271   7.442
83390SOL     OW52066   2.766   4.154   3.280
83390SOL    HW152067   2.850   4.199   3.264
83390SOL    HW252068   2.769   4.131   3.373
83391SOL     OW52069   0.841   6.208   6.696
83391SOL    HW152070   0.760   6.236   6.655
83391SOL    HW252071   0.867   6.282   6.752
83392SOL     OW52072  10.667  14.697   8.427
83392SOL    HW152073  10.710  14.768   8.475
83392SOL    HW252074  10.621  14.740   8.356
83393SOL     OW52075  13.691  12.684  13.165
83393SOL    HW152076  13.710  12.640  13.082
83393SOL    HW252077  13.760  12.749  13.174
83394SOL     OW52078   1.380   4.227   9.362
83394SOL    HW152079   1.354   4.301   9.416
83394SOL    HW252080   1.471   4.245   9.339
83395SOL     OW52081  13.457   9.306   1.641
83395SOL    HW152082  13.491   9.372   1.581
83395SOL    HW252083  13.485   9.222   1.603
83396SOL     OW52084  12.479  13.003  10.327
83396SOL    HW152085  12.566  13.006  10.367
83396SOL    HW252086  12.421  13.044  10.391
83397SOL     OW52087   2.389   9.135  10.024
83397SOL    HW152088   2.442   9.059   9.999
83397SOL    HW252089   2.305   9.120   9.981
83398SOL     OW52090   8.516   7.890   1.697
83398SOL    HW152091   8.435   7.922   1.736
83398SOL    HW252092   8.507   7.794   1.700
83399SOL     OW52093   0.541  13.937   8.366
83399SOL    HW152094   0.512  13.917   8.277
83399SOL    HW252095   0.609  14.003   8.354
83400SOL     OW52096  10.135  13.461   3.528
83400SOL    HW152097  10.195  13.509   3.585
83400SOL    HW252098  10.052  13.460   3.576
83401SOL     OW52099   4.542   8.586   7.638
83401SOL    HW152100   4.615   8.574   7.578
83401SOL    HW252101   4.507   8.498   7.651
83402SOL     OW52102   3.885  10.423   7.865
83402SOL    HW152103   3.881  10.461   7.777
83402SOL    HW252104   3.806  10.371   7.872
83403SOL     OW52105  14.262   5.318   5.244
83403SOL    HW152106  14.307   5.402   5.229
83403SOL    HW252107  14.209   5.332   5.322
83404SOL     OW52108   0.785   3.777   0.012
83404SOL    HW152109   0.747   3.750   0.095
83404SOL    HW252110   0.730   3.851  14.863
83405SOL     OW52111   8.439  12.925  11.861
83405SOL    HW152112   8.446  12.933  11.956
83405SOL    HW252113   8.385  12.847  11.847
83406SOL     OW52114   6.305   8.609   0.259
83406SOL    HW152115   6.260   8.658   0.191
83406SOL    HW252116   6.300   8.665   0.337
83407SOL     OW52117  13.451   2.185   6.317
83407SOL    HW152118  13.444   2.280   6.313
83407SOL    HW252119  13.383   2.154   6.257
83408SOL     OW52120   0.948  12.787   2.746
83408SOL    HW152121   1.010  12.738   2.692
83408SOL    HW252122   0.928  12.728   2.819
83409SOL     OW52123   3.743  13.548   2.343
83409SOL    HW152124   3.725  13.516   2.254
83409SOL    HW252125   3.656  13.563   2.381
83410SOL     OW52126   0.428  11.256   8.977
83410SOL    HW152127   0.370  11.206   8.920
83410SOL    HW252128   0.436  11.342   8.934
83411SOL     OW52129  11.955   7.046   5.287
83411SOL    HW152130  12.050   7.060   5.290
83411SOL    HW252131  11.920   7.127   5.251
83412SOL     OW52132   8.521   2.445   9.624
83412SOL    HW152133   8.590   2.396   9.669
83412SOL    HW252134   8.440   2.399   9.645
83413SOL     OW52135   6.317  10.279   3.964
83413SOL    HW152136   6.280  10.210   4.019
83413SOL    HW252137   6.292  10.255   3.875
83414SOL     OW52138   8.442  11.203   5.905
83414SOL    HW152139   8.430  11.284   5.855
83414SOL    HW252140   8.380  11.210   5.977
83415SOL     OW52141   2.010  14.369  10.850
83415SOL    HW152142   1.949  14.440  10.831
83415SOL    HW252143   1.969  14.319  10.920
83416SOL     OW52144   1.722  11.056  12.535
83416SOL    HW152145   1.712  11.134  12.589
83416SOL    HW252146   1.810  11.025  12.555
83417SOL     OW52147  13.413   0.309  12.552
83417SOL    HW152148  13.348   0.311  12.482
83417SOL    HW252149  13.390   0.231  12.604
83418SOL     OW52150   7.427  11.926  13.737
83418SOL    HW152151   7.430  11.963  13.649
83418SOL    HW252152   7.500  11.864  13.740
83419SOL     OW52153  14.668   0.214   9.642
83419SOL    HW152154  14.756   0.206   9.604
83419SOL    HW252155  14.676   0.173   9.728
83420SOL     OW52156   7.276   6.552   8.581
83420SOL    HW152157   7.326   6.595   8.512
83420SOL    HW252158   7.186   6.554   8.551
83421SOL     OW52159   6.745  10.665   5.838
83421SOL    HW152160   6.799  10.680   5.915
83421SOL    HW252161   6.692  10.589   5.860
83422SOL     OW52162   4.168  14.063   6.853
83422SOL    HW152163   4.094  14.118   6.878
83422SOL    HW252164   4.235  14.124   6.823
83423SOL     OW52165   0.953   8.182   9.052
83423SOL    HW152166   0.937   8.088   9.065
83423SOL    HW252167   0.885   8.209   8.991
83424SOL     OW52168   0.941   6.650   2.237
83424SOL    HW152169   0.887   6.729   2.231
83424SOL    HW252170   0.877   6.578   2.244
83425SOL     OW52171  11.574   7.751  13.794
83425SOL    HW152172  11.579   7.834  13.841
83425SOL    HW252173  11.598   7.773  13.704
83426SOL     OW52174   4.456   1.682   3.922
83426SOL    HW152175   4.437   1.642   3.837
83426SOL    HW252176   4.394   1.755   3.929
83427SOL     OW52177   9.031   1.936   0.223
83427SOL    HW152178   9.002   1.858   0.272
83427SOL    HW252179   9.055   1.999   0.291
83428SOL     OW52180   9.664   0.407   7.653
83428SOL    HW152181   9.675   0.502   7.664
83428SOL    HW252182   9.734   0.381   7.593
83429SOL     OW52183  13.508   8.404  14.877
83429SOL    HW152184  13.428   8.433   0.040
83429SOL    HW252185  13.558   8.484  14.860
83430SOL     OW52186  14.010  13.284  12.751
83430SOL    HW152187  14.085  13.226  12.743
83430SOL    HW252188  13.939  13.228  12.783
83431SOL     OW52189   0.689  14.300   8.748
83431SOL    HW152190   0.642  14.340   8.821
83431SOL    HW252191   0.772  14.271   8.786
83432SOL     OW52192   3.034   8.489  14.365
83432SOL    HW152193   3.000   8.542  14.437
83432SOL    HW252194   3.099   8.545  14.323
83433SOL     OW52195   1.002  14.715   4.179
83433SOL    HW152196   1.068  14.784   4.169
83433SOL    HW252197   0.918  14.761   4.176
83434SOL     OW52198  12.646  13.252   5.896
83434SOL    HW152199  12.621  13.344   5.885
83434SOL    HW252200  12.563  13.207   5.914
83435SOL     OW52201   4.949  11.424   6.291
83435SOL    HW152202   4.886  11.374   6.239
83435SOL    HW252203   4.957  11.375   6.373
83436SOL     OW52204   5.891   0.507   7.732
83436SOL    HW152205   5.927   0.426   7.697
83436SOL    HW252206   5.949   0.531   7.804
83437SOL     OW52207  11.137   9.558   9.695
83437SOL    HW152208  11.208   9.591   9.750
83437SOL    HW252209  11.057   9.585   9.740
83438SOL     OW52210   9.227  13.032  14.477
83438SOL    HW152211   9.258  13.070  14.559
83438SOL    HW252212   9.159  13.092  14.447
83439SOL     OW52213   9.945  14.595   2.497
83439SOL    HW152214   9.971  14.576   2.407
83439SOL    HW252215   9.974  14.685   2.512
83440SOL     OW52216  12.547  10.520   6.158
83440SOL    HW152217  12.480  10.544   6.094
83440SOL    HW252218  12.629  10.552   6.119
83441SOL     OW52219   8.939  14.863   9.611
83441SOL    HW152220   8.996  14.848   9.686
83441SOL    HW252221   8.933  14.778   9.567
83442SOL     OW52222  10.208   0.992   9.253
83442SOL    HW152223  10.277   1.057   9.246
83442SOL    HW252224  10.250   0.917   9.295
83443SOL     OW52225   4.829   6.539   6.016
83443SOL    HW152226   4.759   6.551   5.951
83443SOL    HW252227   4.897   6.602   5.990
83444SOL     OW52228   0.908   9.694  10.752
83444SOL    HW152229   0.958   9.769  10.787
83444SOL    HW252230   0.911   9.705  10.657
83445SOL     OW52231   0.269   3.366  10.375
83445SOL    HW152232   0.182   3.336  10.402
83445SOL    HW252233   0.324   3.288  10.383
83446SOL     OW52234  13.222   7.251  13.319
83446SOL    HW152235  13.134   7.229  13.288
83446SOL    HW252236  13.230   7.204  13.402
83447SOL     OW52237   6.887   2.824   5.319
83447SOL    HW152238   6.955   2.763   5.291
83447SOL    HW252239   6.813   2.768   5.342
83448SOL     OW52240   4.570   1.135   7.818
83448SOL    HW152241   4.491   1.143   7.765
83448SOL    HW252242   4.586   1.224   7.851
83449SOL     OW52243   1.493   4.024   2.499
83449SOL    HW152244   1.418   4.045   2.443
83449SOL    HW252245   1.562   3.997   2.439
83450SOL     OW52246   2.429   2.761   7.048
83450SOL    HW152247   2.336   2.757   7.071
83450SOL    HW252248   2.429   2.797   6.959
83451SOL     OW52249  13.787   8.406  13.625
83451SOL    HW152250  13.696   8.426  13.646
83451SOL    HW252251  13.814   8.475  13.565
83452SOL     OW52252   9.623   6.681  14.471
83452SOL    HW152253   9.610   6.758  14.527
83452SOL    HW252254   9.651   6.717  14.386
83453SOL     OW52255  11.053  13.257   6.497
83453SOL    HW152256  11.009  13.329   6.453
83453SOL    HW252257  11.089  13.296   6.577
83454SOL     OW52258  14.309   7.140  10.479
83454SOL    HW152259  14.372   7.132  10.550
83454SOL    HW252260  14.256   7.061  10.484
83455SOL     OW52261   9.106  10.151   7.742
83455SOL    HW152262   9.033  10.161   7.680
83455SOL    HW252263   9.063  10.135   7.826
83456SOL     OW52264  10.282   7.794   6.203
83456SOL    HW152265  10.283   7.868   6.142
83456SOL    HW252266  10.193   7.760   6.199
83457SOL     OW52267   3.386   5.671  12.830
83457SOL    HW152268   3.478   5.643  12.838
83457SOL    HW252269   3.392   5.763  12.805
83458SOL     OW52270   9.933  14.792   2.071
83458SOL    HW152271   9.964  14.856   2.134
83458SOL    HW252272   9.837  14.798   2.076
83459SOL     OW52273   9.091   5.928  10.464
83459SOL    HW152274   9.047   5.933  10.380
83459SOL    HW252275   9.153   5.856  10.454
83460SOL     OW52276  13.415   4.085  14.651
83460SOL    HW152277  13.374   4.170  14.637
83460SOL    HW252278  13.361   4.043  14.718
83461SOL     OW52279   8.842  13.890   5.694
83461SOL    HW152280   8.828  13.946   5.770
83461SOL    HW252281   8.893  13.944   5.633
83462SOL     OW52282   5.061  12.310   1.363
83462SOL    HW152283   5.029  12.399   1.376
83462SOL    HW252284   5.065  12.299   1.268
83463SOL     OW52285  10.248   2.475   3.148
83463SOL    HW152286  10.171   2.477   3.205
83463SOL    HW252287  10.273   2.383   3.144
83464SOL     OW52288   8.081  10.474  14.878
83464SOL    HW152289   8.132  10.461  14.798
83464SOL    HW252290   8.024  10.397   0.003
83465SOL     OW52291   2.315  12.804   1.210
83465SOL    HW152292   2.376  12.806   1.284
83465SOL    HW252293   2.241  12.858   1.239
83466SOL     OW52294   8.086  12.830  13.353
83466SOL    HW152295   8.104  12.781  13.433
83466SOL    HW252296   8.149  12.902  13.355
83467SOL     OW52297   8.571  10.154   3.447
83467SOL    HW152298   8.565  10.085   3.513
83467SOL    HW252299   8.583  10.234   3.498
83468SOL     OW52300  13.359  10.262   7.492
83468SOL    HW152301  13.412  10.192   7.454
83468SOL    HW252302  13.408  10.289   7.569
83469SOL     OW52303   7.238   8.981  12.493
83469SOL    HW152304   7.253   8.914  12.560
83469SOL    HW252305   7.154   9.020  12.517
83470SOL     OW52306  10.018  12.314  13.983
83470SOL    HW152307  10.004  12.317  14.078
83470SOL    HW252308   9.997  12.403  13.953
83471SOL     OW52309   9.772  14.045  10.171
83471SOL    HW152310   9.842  13.995  10.212
83471SOL    HW252311   9.709  14.062  10.242
83472SOL     OW52312   4.686   5.223   7.813
83472SOL    HW152313   4.732   5.152   7.768
83472SOL    HW252314   4.663   5.187   7.898
83473SOL     OW52315  14.080   2.669  11.283
83473SOL    HW152316  14.125   2.596  11.326
83473SOL    HW252317  14.141   2.742  11.287
83474SOL     OW52318   2.571  13.896  12.097
83474SOL    HW152319   2.483  13.859  12.093
83474SOL    HW252320   2.560  13.982  12.137
83475SOL     OW52321   9.664   2.716   3.307
83475SOL    HW152322   9.627   2.747   3.390
83475SOL    HW252323   9.708   2.634   3.329
83476SOL     OW52324   6.882   0.918  14.454
83476SOL    HW152325   6.919   0.899  14.368
83476SOL    HW252326   6.807   0.859  14.462
83477SOL     OW52327   8.311   5.212   1.147
83477SOL    HW152328   8.274   5.192   1.233
83477SOL    HW252329   8.249   5.175   1.084
83478SOL     OW52330   3.891  13.906   0.521
83478SOL    HW152331   3.868  13.850   0.595
83478SOL    HW252332   3.965  13.862   0.480
83479SOL     OW52333  12.683   0.416  13.876
83479SOL    HW152334  12.676   0.324  13.900
83479SOL    HW252335  12.715   0.416  13.786
83480SOL     OW52336   9.484   2.174   6.495
83480SOL    HW152337   9.401   2.202   6.535
83480SOL    HW252338   9.502   2.089   6.535
83481SOL     OW52339   2.293  13.715   7.928
83481SOL    HW152340   2.381  13.753   7.927
83481SOL    HW252341   2.235  13.790   7.911
83482SOL     OW52342   1.587  11.763  12.553
83482SOL    HW152343   1.495  11.759  12.526
83482SOL    HW252344   1.614  11.672  12.562
83483SOL     OW52345   0.258  12.990   3.035
83483SOL    HW152346   0.178  13.014   3.083
83483SOL    HW252347   0.238  12.905   2.997
83484SOL     OW52348   4.002   8.347   8.021
83484SOL    HW152349   3.973   8.295   8.096
83484SOL    HW252350   3.932   8.412   8.009
83485SOL     OW52351   9.556  14.338   2.428
83485SOL    HW152352   9.620  14.274   2.396
83485SOL    HW252353   9.603  14.389   2.493
83486SOL     OW52354   0.352  13.816  11.613
83486SOL    HW152355   0.385  13.733  11.578
83486SOL    HW252356   0.415  13.882  11.584
83487SOL     OW52357  12.896   4.167   4.021
83487SOL    HW152358  12.932   4.240   4.071
83487SOL    HW252359  12.886   4.202   3.932
83488SOL     OW52360  14.444   0.399  13.466
83488SOL    HW152361  14.495   0.414  13.546
83488SOL    HW252362  14.402   0.483  13.449
83489SOL     OW52363   0.452   7.083  14.395
83489SOL    HW152364   0.359   7.062  14.407
83489SOL    HW252365   0.452   7.168  14.352
83490SOL     OW52366  14.876   3.697   3.226
83490SOL    HW152367   0.034   3.772   3.179
83490SOL    HW252368  14.878   3.723   3.318
83491SOL     OW52369  14.535   9.154   3.547
83491SOL    HW152370  14.509   9.193   3.630
83491SOL    HW252371  14.476   9.192   3.483
83492SOL     OW52372   5.195  10.913   3.569
83492SOL    HW152373   5.160  10.933   3.482
83492SOL    HW252374   5.216  10.820   3.566
83493SOL     OW52375  14.678  14.180  10.015
83493SOL    HW152376  14.733  14.258  10.024
83493SOL    HW252377  14.740  14.109   9.995
83494SOL     OW52378  10.152   5.353   4.723
83494SOL    HW152379  10.236   5.376   4.764
83494SOL    HW252380  10.156   5.394   4.636
83495SOL     OW52381   4.742   8.506   3.985
83495SOL    HW152382   4.803   8.441   4.019
83495SOL    HW252383   4.666   8.500   4.043
83496SOL     OW52384   6.566   7.865   7.360
83496SOL    HW152385   6.530   7.782   7.390
83496SOL    HW252386   6.648   7.842   7.317
83497SOL     OW52387  11.475  14.191   0.868
83497SOL    HW152388  11.460  14.251   0.941
83497SOL    HW252389  11.549  14.137   0.896
83498SOL     OW52390   2.116  11.483   3.012
83498SOL    HW152391   2.190  11.488   2.952
83498SOL    HW252392   2.047  11.439   2.962
83499SOL     OW52393  10.657   1.441   3.825
83499SOL    HW152394  10.714   1.366   3.841
83499SOL    HW252395  10.574   1.417   3.866
83500SOL     OW52396  13.783   8.594  14.654
83500SOL    HW152397  13.856   8.638  14.610
83500SOL    HW252398  13.775   8.510  14.608
83501SOL     OW52399  12.003   7.712  13.639
83501SOL    HW152400  12.089   7.697  13.680
83501SOL    HW252401  11.997   7.644  13.571
83502SOL     OW52402  13.041   8.425   0.849
83502SOL    HW152403  12.951   8.456   0.851
83502SOL    HW252404  13.034   8.331   0.838
83503SOL     OW52405  13.323   2.639   2.488
83503SOL    HW152406  13.348   2.722   2.448
83503SOL    HW252407  13.230   2.649   2.507
83504SOL     OW52408   9.955  12.606  11.455
83504SOL    HW152409  10.046  12.588  11.430
83504SOL    HW252410   9.950  12.578  11.547
83505SOL     OW52411  10.822   7.494  12.160
83505SOL    HW152412  10.784   7.525  12.078
83505SOL    HW252413  10.747   7.486  12.220
83506SOL     OW52414  12.850   6.880   5.406
83506SOL    HW152415  12.935   6.890   5.448
83506SOL    HW252416  12.824   6.790   5.425
83507SOL     OW52417   1.345  10.971   5.192
83507SOL    HW152418   1.429  10.951   5.152
83507SOL    HW252419   1.362  11.047   5.247
83508SOL     OW52420  10.081  10.562  11.737
83508SOL    HW152421  10.168  10.570  11.697
83508SOL    HW252422  10.021  10.558  11.663
83509SOL     OW52423   9.792  14.117  10.487
83509SOL    HW152424   9.810  14.159  10.570
83509SOL    HW252425   9.853  14.158  10.425
83510SOL     OW52426   6.154   7.432   3.505
83510SOL    HW152427   6.080   7.486   3.534
83510SOL    HW252428   6.115   7.346   3.487
83511SOL     OW52429   2.662   3.572   4.927
83511SOL    HW152430   2.655   3.573   4.831
83511SOL    HW252431   2.571   3.582   4.957
83512SOL     OW52432   4.530   2.769  14.611
83512SOL    HW152433   4.568   2.848  14.649
83512SOL    HW252434   4.479   2.801  14.536
83513SOL     OW52435   6.914   2.459   3.874
83513SOL    HW152436   6.941   2.547   3.903
83513SOL    HW252437   6.838   2.475   3.818
83514SOL     OW52438   6.180   9.083   3.504
83514SOL    HW152439   6.264   9.037   3.495
83514SOL    HW252440   6.203   9.176   3.503
83515SOL     OW52441   2.892  14.050   8.935
83515SOL    HW152442   2.884  13.974   8.993
83515SOL    HW252443   2.801  14.070   8.910
83516SOL     OW52444  12.482  10.471   8.075
83516SOL    HW152445  12.523  10.500   8.157
83516SOL    HW252446  12.389  10.465   8.096
83517SOL     OW52447  12.743   6.099   8.860
83517SOL    HW152448  12.688   6.116   8.783
83517SOL    HW252449  12.801   6.175   8.866
83518SOL     OW52450  12.181   8.142   9.318
83518SOL    HW152451  12.223   8.116   9.236
83518SOL    HW252452  12.099   8.092   9.320
83519SOL     OW52453   0.692  14.143   2.869
83519SOL    HW152454   0.717  14.054   2.894
83519SOL    HW252455   0.660  14.183   2.950
83520SOL     OW52456   7.128   7.510   7.427
83520SOL    HW152457   7.170   7.503   7.513
83520SOL    HW252458   7.078   7.592   7.432
83521SOL     OW52459  10.824   1.847   1.716
83521SOL    HW152460  10.766   1.847   1.640
83521SOL    HW252461  10.905   1.886   1.684
83522SOL     OW52462   1.375   2.684   6.672
83522SOL    HW152463   1.424   2.748   6.725
83522SOL    HW252464   1.337   2.736   6.601
83523SOL     OW52465  10.070  14.745  11.162
83523SOL    HW152466  10.146  14.789  11.124
83523SOL    HW252467  10.092  14.736  11.255
83524SOL     OW52468   4.403  12.072   3.808
83524SOL    HW152469   4.475  12.039   3.755
83524SOL    HW252470   4.413  12.167   3.806
83525SOL     OW52471   6.944  14.396   5.728
83525SOL    HW152472   6.953  14.484   5.691
83525SOL    HW252473   6.974  14.338   5.658
83526SOL     OW52474  12.751   0.276   4.674
83526SOL    HW152475  12.762   0.364   4.708
83526SOL    HW252476  12.707   0.287   4.590
83527SOL     OW52477   1.411  11.340   1.172
83527SOL    HW152478   1.470  11.272   1.205
83527SOL    HW252479   1.470  11.412   1.147
83528SOL     OW52480   7.092   7.506  14.519
83528SOL    HW152481   7.024   7.573  14.525
83528SOL    HW252482   7.133   7.506  14.606
83529SOL     OW52483  14.784   9.079  11.613
83529SOL    HW152484  14.728   9.054  11.540
83529SOL    HW252485  14.858   9.018  11.609
83530SOL     OW52486   5.461   5.994  12.163
83530SOL    HW152487   5.416   6.068  12.204
83530SOL    HW252488   5.391   5.932  12.141
83531SOL     OW52489   0.440  13.857  14.556
83531SOL    HW152490   0.371  13.792  14.556
83531SOL    HW252491   0.421  13.912  14.480
83532SOL     OW52492  12.126   2.998  14.414
83532SOL    HW152493  12.107   2.970  14.324
83532SOL    HW252494  12.169   3.083  14.403
83533SOL     OW52495   5.804   8.295   7.309
83533SOL    HW152496   5.812   8.244   7.389
83533SOL    HW252497   5.895   8.314   7.284
83534SOL     OW52498   0.944  12.973   2.203
83534SOL    HW152499   0.930  13.007   2.115
83534SOL    HW252500   1.033  13.003   2.226
83535SOL     OW52501  12.216   0.533  14.862
83535SOL    HW152502  12.170   0.615   0.003
83535SOL    HW252503  12.198   0.477   0.057
83536SOL     OW52504   8.100   1.280   4.855
83536SOL    HW152505   8.110   1.220   4.929
83536SOL    HW252506   8.006   1.280   4.837
83537SOL     OW52507   9.380  10.806  13.059
83537SOL    HW152508   9.326  10.831  13.134
83537SOL    HW252509   9.319  10.760  13.001
83538SOL     OW52510   5.520   1.054   7.599
83538SOL    HW152511   5.574   1.038   7.676
83538SOL    HW252512   5.540   0.981   7.540
83539SOL     OW52513  10.241   9.551   4.336
83539SOL    HW152514  10.267   9.516   4.251
83539SOL    HW252515  10.178   9.620   4.315
83540SOL     OW52516   8.638   6.744  13.558
83540SOL    HW152517   8.577   6.689  13.607
83540SOL    HW252518   8.651   6.697  13.475
83541SOL     OW52519  12.391  13.990   6.402
83541SOL    HW152520  12.421  13.925   6.339
83541SOL    HW252521  12.310  13.953   6.438
83542SOL     OW52522   8.177  14.731   9.168
83542SOL    HW152523   8.082  14.720   9.181
83542SOL    HW252524   8.208  14.764   9.252
83543SOL     OW52525   5.503  14.046   7.278
83543SOL    HW152526   5.543  14.133   7.288
83543SOL    HW252527   5.440  14.040   7.349
83544SOL     OW52528   1.060   7.650  13.536
83544SOL    HW152529   1.110   7.671  13.615
83544SOL    HW252530   0.970   7.637  13.567
83545SOL     OW52531  13.375   1.188  11.261
83545SOL    HW152532  13.385   1.283  11.269
83545SOL    HW252533  13.284   1.175  11.236
83546SOL     OW52534   3.030  11.938  13.032
83546SOL    HW152535   3.053  11.846  13.026
83546SOL    HW252536   3.048  11.973  12.944
83547SOL     OW52537   1.230   9.910   0.186
83547SOL    HW152538   1.306   9.866   0.225
83547SOL    HW252539   1.227   9.876   0.096
83548SOL     OW52540  13.682  10.224  11.213
83548SOL    HW152541  13.608  10.164  11.203
83548SOL    HW252542  13.733  10.213  11.132
83549SOL     OW52543  11.247  12.274   5.536
83549SOL    HW152544  11.323  12.289   5.480
83549SOL    HW252545  11.195  12.354   5.528
83550SOL     OW52546   4.138   1.263   7.239
83550SOL    HW152547   4.056   1.214   7.242
83550SOL    HW252548   4.136   1.309   7.155
83551SOL     OW52549   3.660   2.052   0.044
83551SOL    HW152550   3.696   2.079  14.839
83551SOL    HW252551   3.716   2.096   0.109
83552SOL     OW52552   6.215   1.323   9.017
83552SOL    HW152553   6.137   1.298   9.066
83552SOL    HW252554   6.184   1.383   8.949
83553SOL     OW52555   7.571   3.216   8.095
83553SOL    HW152556   7.571   3.255   8.183
83553SOL    HW252557   7.651   3.165   8.091
83554SOL     OW52558   0.003   9.612  13.681
83554SOL    HW152559  14.846   9.545  13.739
83554SOL    HW252560  14.823   9.614  13.606
83555SOL     OW52561   0.208  13.188   1.423
83555SOL    HW152562   0.150  13.115   1.402
83555SOL    HW252563   0.149  13.258   1.452
83556SOL     OW52564   5.252   4.036   9.032
83556SOL    HW152565   5.184   4.084   9.078
83556SOL    HW252566   5.219   3.946   9.026
83557SOL     OW52567  12.700   2.799   6.198
83557SOL    HW152568  12.746   2.768   6.120
83557SOL    HW252569  12.750   2.762   6.271
83558SOL     OW52570  13.913   0.289   8.483
83558SOL    HW152571  13.865   0.229   8.540
83558SOL    HW252572  13.985   0.236   8.448
83559SOL     OW52573   4.275   6.606   0.555
83559SOL    HW152574   4.182   6.628   0.561
83559SOL    HW252575   4.312   6.677   0.501
83560SOL     OW52576   9.814   9.750   2.285
83560SOL    HW152577   9.905   9.756   2.257
83560SOL    HW252578   9.763   9.755   2.205
83561SOL     OW52579   3.127  14.205  11.242
83561SOL    HW152580   3.063  14.158  11.189
83561SOL    HW252581   3.078  14.281  11.276
83562SOL     OW52582   3.114  10.239   7.591
83562SOL    HW152583   3.095  10.181   7.517
83562SOL    HW252584   3.032  10.246   7.639
83563SOL     OW52585   4.444  13.727  13.403
83563SOL    HW152586   4.508  13.717  13.473
83563SOL    HW252587   4.488  13.780  13.337
83564SOL     OW52588  14.344  12.210   7.636
83564SOL    HW152589  14.402  12.280   7.667
83564SOL    HW252590  14.259  12.253   7.623
83565SOL     OW52591   8.001   2.473   5.711
83565SOL    HW152592   7.952   2.554   5.729
83565SOL    HW252593   8.036   2.447   5.795
83566SOL     OW52594   1.361   7.555   4.136
83566SOL    HW152595   1.415   7.623   4.177
83566SOL    HW252596   1.422   7.504   4.084
83567SOL     OW52597   6.078   6.108  10.058
83567SOL    HW152598   6.114   6.055  10.130
83567SOL    HW252599   6.019   6.170  10.101
83568SOL     OW52600   6.152   9.516  11.861
83568SOL    HW152601   6.223   9.477  11.810
83568SOL    HW252602   6.074   9.466  11.835
83569SOL     OW52603   0.382   2.702   6.903
83569SOL    HW152604   0.347   2.790   6.888
83569SOL    HW252605   0.439   2.712   6.979
83570SOL     OW52606  11.799   1.073   9.929
83570SOL    HW152607  11.743   1.006   9.969
83570SOL    HW252608  11.776   1.154   9.975
83571SOL     OW52609   0.642  14.083   6.173
83571SOL    HW152610   0.602  14.065   6.088
83571SOL    HW252611   0.576  14.134   6.220
83572SOL     OW52612  14.093  10.198   1.159
83572SOL    HW152613  14.003  10.229   1.155
83572SOL    HW252614  14.127  10.210   1.071
83573SOL     OW52615   4.277   1.762  11.404
83573SOL    HW152616   4.208   1.790  11.465
83573SOL    HW252617   4.345   1.828  11.413
83574SOL     OW52618  10.338  10.384   8.298
83574SOL    HW152619  10.327  10.412   8.389
83574SOL    HW252620  10.370  10.294   8.304
83575SOL     OW52621   8.804   6.097   8.424
83575SOL    HW152622   8.859   6.020   8.425
83575SOL    HW252623   8.714   6.063   8.427
83576SOL     OW52624   0.409   5.625   0.265
83576SOL    HW152625   0.498   5.622   0.230
83576SOL    HW252626   0.369   5.700   0.221
83577SOL     OW52627   9.699  13.793   9.320
83577SOL    HW152628   9.716  13.729   9.389
83577SOL    HW252629   9.774  13.785   9.260
83578SOL     OW52630   7.633   1.389  11.606
83578SOL    HW152631   7.646   1.366  11.698
83578SOL    HW252632   7.721   1.409  11.573
83579SOL     OW52633  10.697  10.548   8.042
83579SOL    HW152634  10.789  10.568   8.023
83579SOL    HW252635  10.693  10.546   8.138
83580SOL     OW52636  13.196   3.256  13.557
83580SOL    HW152637  13.118   3.292  13.515
83580SOL    HW252638  13.220   3.321  13.623
83581SOL     OW52639   1.594   4.614   2.220
83581SOL    HW152640   1.653   4.598   2.146
83581SOL    HW252641   1.593   4.709   2.230
83582SOL     OW52642   1.561   0.740   3.370
83582SOL    HW152643   1.486   0.733   3.311
83582SOL    HW252644   1.537   0.685   3.444
83583SOL     OW52645   7.978   0.987  14.046
83583SOL    HW152646   7.971   1.035  13.964
83583SOL    HW252647   8.044   0.919  14.028
83584SOL     OW52648   4.882   0.952  13.038
83584SOL    HW152649   4.955   0.927  12.981
83584SOL    HW252650   4.881   1.048  13.035
83585SOL     OW52651   6.448   8.257   6.402
83585SOL    HW152652   6.383   8.327   6.406
83585SOL    HW252653   6.505   8.273   6.478
83586SOL     OW52654   3.443   0.102  10.850
83586SOL    HW152655   3.480   0.180  10.889
83586SOL    HW252656   3.448   0.035  10.918
83587SOL     OW52657   6.705   9.836   8.808
83587SOL    HW152658   6.700   9.778   8.884
83587SOL    HW252659   6.736   9.919   8.843
83588SOL     OW52660   5.710  10.482   7.669
83588SOL    HW152661   5.617  10.504   7.675
83588SOL    HW252662   5.753  10.548   7.725
83589SOL     OW52663  10.750  11.418  10.343
83589SOL    HW152664  10.782  11.345  10.396
83589SOL    HW252665  10.687  11.462  10.400
83590SOL     OW52666   2.183  12.564   0.337
83590SOL    HW152667   2.266  12.603   0.365
83590SOL    HW252668   2.119  12.599   0.398
83591SOL     OW52669  13.675   2.498   5.663
83591SOL    HW152670  13.648   2.527   5.576
83591SOL    HW252671  13.678   2.403   5.657
83592SOL     OW52672   9.321   2.124  12.799
83592SOL    HW152673   9.349   2.202  12.846
83592SOL    HW252674   9.340   2.052  12.859
83593SOL     OW52675   7.617   6.791  13.567
83593SOL    HW152676   7.690   6.758  13.618
83593SOL    HW252677   7.573   6.712  13.535
83594SOL     OW52678   3.255   8.738   5.855
83594SOL    HW152679   3.192   8.688   5.907
83594SOL    HW252680   3.210   8.821   5.838
83595SOL     OW52681   7.136  13.391   6.860
83595SOL    HW152682   7.144  13.416   6.768
83595SOL    HW252683   7.098  13.469   6.902
83596SOL     OW52684  11.369   5.140   2.295
83596SOL    HW152685  11.380   5.136   2.390
83596SOL    HW252686  11.395   5.053   2.264
83597SOL     OW52687  13.163   6.446   6.284
83597SOL    HW152688  13.124   6.522   6.327
83597SOL    HW252689  13.105   6.428   6.210
83598SOL     OW52690   0.338   4.229   6.319
83598SOL    HW152691   0.417   4.176   6.315
83598SOL    HW252692   0.277   4.187   6.258
83599SOL     OW52693   0.303  10.118   8.206
83599SOL    HW152694   0.231  10.059   8.186
83599SOL    HW252695   0.324  10.101   8.297
83600SOL     OW52696  13.604  11.063   0.863
83600SOL    HW152697  13.592  11.124   0.935
83600SOL    HW252698  13.551  11.100   0.792
83601SOL     OW52699   8.698   4.047   5.176
83601SOL    HW152700   8.662   4.129   5.142
83601SOL    HW252701   8.623   4.000   5.211
83602SOL     OW52702   3.491  12.933  13.130
83602SOL    HW152703   3.581  12.966  13.137
83602SOL    HW252704   3.464  12.958  13.041
83603SOL     OW52705  12.762  12.130   9.359
83603SOL    HW152706  12.778  12.037   9.372
83603SOL    HW252707  12.679  12.146   9.406
83604SOL     OW52708   3.930   4.054   9.185
83604SOL    HW152709   3.847   4.011   9.203
83604SOL    HW252710   3.987   3.985   9.152
83605SOL     OW52711   8.767   3.562   1.354
83605SOL    HW152712   8.818   3.643   1.352
83605SOL    HW252713   8.680   3.589   1.383
83606SOL     OW52714  12.865   8.006  11.252
83606SOL    HW152715  12.856   7.990  11.346
83606SOL    HW252716  12.953   7.976  11.231
83607SOL     OW52717   2.666  12.029   5.463
83607SOL    HW152718   2.704  12.114   5.486
83607SOL    HW252719   2.585  12.051   5.417
83608SOL     OW52720   9.971   9.312   1.015
83608SOL    HW152721  10.021   9.282   0.939
83608SOL    HW252722   9.895   9.356   0.977
83609SOL     OW52723   5.233   3.160  13.061
83609SOL    HW152724   5.139   3.171  13.074
83609SOL    HW252725   5.263   3.248  13.036
83610SOL     OW52726  10.564   3.325   3.815
83610SOL    HW152727  10.651   3.290   3.834
83610SOL    HW252728  10.525   3.343   3.900
83611SOL     OW52729   0.011  12.155  12.234
83611SOL    HW152730   0.054  12.085  12.184
83611SOL    HW252731  14.803  12.161  12.197
83612SOL     OW52732   5.845  10.554   3.332
83612SOL    HW152733   5.783  10.521   3.268
83612SOL    HW252734   5.816  10.518   3.416
83613SOL     OW52735  14.425  11.642   9.573
83613SOL    HW152736  14.340  11.661   9.614
83613SOL    HW252737  14.406  11.571   9.512
83614SOL     OW52738   9.938   8.437  13.457
83614SOL    HW152739   9.859   8.481  13.424
83614SOL    HW252740   9.935   8.452  13.552
83615SOL     OW52741  14.850  11.841  11.798
83615SOL    HW152742   0.060  11.812  11.814
83615SOL    HW252743  14.828  11.804  11.713
83616SOL     OW52744   5.324  12.008   6.080
83616SOL    HW152745   5.411  12.031   6.112
83616SOL    HW252746   5.271  12.000   6.159
83617SOL     OW52747   4.562  13.385  12.433
83617SOL    HW152748   4.488  13.386  12.494
83617SOL    HW252749   4.523  13.403  12.348
83618SOL     OW52750  12.058   6.632  14.219
83618SOL    HW152751  12.082   6.627  14.127
83618SOL    HW252752  11.987   6.696  14.222
83619SOL     OW52753   0.756  14.801   3.925
83619SOL    HW152754   0.734  14.719   3.968
83619SOL    HW252755   0.814  14.846   3.986
83620SOL     OW52756   6.208  10.750   0.870
83620SOL    HW152757   6.276  10.797   0.919
83620SOL    HW252758   6.163  10.697   0.936
83621SOL     OW52759   3.579   4.693  14.109
83621SOL    HW152760   3.539   4.734  14.186
83621SOL    HW252761   3.578   4.600  14.128
83622SOL     OW52762  11.087  13.514   4.620
83622SOL    HW152763  10.999  13.479   4.604
83622SOL    HW252764  11.079  13.562   4.702
83623SOL     OW52765   8.070  10.809   3.060
83623SOL    HW152766   8.103  10.861   2.986
83623SOL    HW252767   8.133  10.826   3.130
83624SOL     OW52768   0.962  11.692   7.600
83624SOL    HW152769   0.886  11.746   7.579
83624SOL    HW252770   0.974  11.638   7.522
83625SOL     OW52771   0.542   2.547  14.702
83625SOL    HW152772   0.554   2.556  14.797
83625SOL    HW252773   0.568   2.633  14.667
83626SOL     OW52774  10.621   3.324   6.258
83626SOL    HW152775  10.621   3.228   6.248
83626SOL    HW252776  10.537   3.351   6.220
83627SOL     OW52777   3.522  13.129   7.199
83627SOL    HW152778   3.427  13.141   7.191
83627SOL    HW252779   3.543  13.157   7.288
83628SOL     OW52780  12.987   0.059   6.003
83628SOL    HW152781  12.983   0.013   5.919
83628SOL    HW252782  12.983   0.152   5.980
83629SOL     OW52783   8.872   0.694   6.079
83629SOL    HW152784   8.853   0.776   6.034
83629SOL    HW252785   8.796   0.638   6.061
83630SOL     OW52786   2.526  11.134   9.805
83630SOL    HW152787   2.459  11.199   9.786
83630SOL    HW252788   2.595  11.151   9.741
83631SOL     OW52789   8.366   9.028   9.011
83631SOL    HW152790   8.373   8.979   9.093
83631SOL    HW252791   8.289   9.084   9.024
83632SOL     OW52792  13.576   3.531  11.829
83632SOL    HW152793  13.664   3.548  11.797
83632SOL    HW252794  13.546   3.614  11.865
83633SOL     OW52795  10.259  14.821   5.694
83633SOL    HW152796  10.325  14.755   5.713
83633SOL    HW252797  10.217  14.791   5.614
83634SOL     OW52798   5.122   1.635   1.791
83634SOL    HW152799   5.158   1.720   1.815
83634SOL    HW252800   5.043   1.655   1.741
83635SOL     OW52801  13.199   6.644  10.305
83635SOL    HW152802  13.155   6.719  10.265
83635SOL    HW252803  13.216   6.672  10.395
83636SOL     OW52804   5.484   6.947   8.501
83636SOL    HW152805   5.499   6.854   8.481
83636SOL    HW252806   5.469   6.950   8.595
83637SOL     OW52807  10.396   2.588   0.749
83637SOL    HW152808  10.361   2.500   0.733
83637SOL    HW252809  10.491   2.578   0.740
83638SOL     OW52810  13.374   1.301   1.345
83638SOL    HW152811  13.459   1.282   1.384
83638SOL    HW252812  13.365   1.237   1.274
83639SOL     OW52813   5.035   0.268   4.823
83639SOL    HW152814   5.070   0.234   4.905
83639SOL    HW252815   4.968   0.205   4.797
83640SOL     OW52816   3.431   8.563  14.155
83640SOL    HW152817   3.358   8.584  14.214
83640SOL    HW252818   3.467   8.648  14.130
83641SOL     OW52819   4.486   8.197   3.655
83641SOL    HW152820   4.446   8.134   3.595
83641SOL    HW252821   4.463   8.283   3.619
83642SOL     OW52822   9.291  13.108  12.550
83642SOL    HW152823   9.327  13.092  12.637
83642SOL    HW252824   9.218  13.046  12.542
83643SOL     OW52825  13.898   9.186   0.879
83643SOL    HW152826  13.861   9.241   0.810
83643SOL    HW252827  13.826   9.128   0.905
83644SOL     OW52828   1.345   4.690  11.404
83644SOL    HW152829   1.355   4.691  11.499
83644SOL    HW252830   1.357   4.598  11.379
83645SOL     OW52831   0.332  12.757   6.628
83645SOL    HW152832   0.325  12.839   6.675
83645SOL    HW252833   0.314  12.689   6.693
83646SOL     OW52834  14.869   6.998   4.286
83646SOL    HW152835   0.071   7.044   4.305
83646SOL    HW252836  14.810   7.066   4.255
83647SOL     OW52837  12.941   3.144   2.183
83647SOL    HW152838  12.965   3.175   2.271
83647SOL    HW252839  12.875   3.077   2.198
83648SOL     OW52840   5.196   4.169   9.999
83648SOL    HW152841   5.205   4.245  10.056
83648SOL    HW252842   5.109   4.134  10.018
83649SOL     OW52843  12.426   6.157  12.012
83649SOL    HW152844  12.351   6.120  11.966
83649SOL    HW252845  12.502   6.110  11.976
83650SOL     OW52846   3.957   0.913   6.816
83650SOL    HW152847   3.872   0.879   6.845
83650SOL    HW252848   3.936   0.964   6.737
83651SOL     OW52849  14.162   1.696  13.974
83651SOL    HW152850  14.078   1.688  13.927
83651SOL    HW252851  14.158   1.628  14.041
83652SOL     OW52852  12.169   7.644   1.203
83652SOL    HW152853  12.200   7.731   1.231
83652SOL    HW252854  12.160   7.595   1.285
83653SOL     OW52855   6.182   6.022   5.770
83653SOL    HW152856   6.213   5.976   5.692
83653SOL    HW252857   6.206   6.114   5.754
83654SOL     OW52858   1.472  10.794   7.159
83654SOL    HW152859   1.389  10.810   7.114
83654SOL    HW252860   1.486  10.874   7.210
83655SOL     OW52861   1.605  13.959   4.506
83655SOL    HW152862   1.569  14.043   4.479
83655SOL    HW252863   1.590  13.901   4.432
83656SOL     OW52864   2.912   3.824  10.125
83656SOL    HW152865   3.006   3.812  10.113
83656SOL    HW252866   2.882   3.741  10.161
83657SOL     OW52867   4.013  12.194   6.733
83657SOL    HW152868   3.977  12.270   6.687
83657SOL    HW252869   3.955  12.181   6.808
83658SOL     OW52870  14.814   1.070   9.100
83658SOL    HW152871  14.811   1.159   9.136
83658SOL    HW252872  14.863   1.019   9.165
83659SOL     OW52873  13.153  13.122  12.914
83659SOL    HW152874  13.247  13.111  12.900
83659SOL    HW252875  13.122  13.035  12.939
83660SOL     OW52876   0.706   9.894   2.824
83660SOL    HW152877   0.790   9.848   2.815
83660SOL    HW252878   0.730   9.977   2.866
83661SOL     OW52879   6.439   5.605   1.685
83661SOL    HW152880   6.532   5.585   1.675
83661SOL    HW252881   6.434   5.701   1.686
83662SOL     OW52882   8.484  14.131  11.875
83662SOL    HW152883   8.573  14.098  11.874
83662SOL    HW252884   8.432  14.065  11.830
83663SOL     OW52885   8.009   1.864   7.237
83663SOL    HW152886   7.973   1.780   7.209
83663SOL    HW252887   7.962   1.929   7.184
83664SOL     OW52888   0.476   4.994   3.827
83664SOL    HW152889   0.425   4.914   3.811
83664SOL    HW252890   0.412   5.064   3.825
83665SOL     OW52891   8.239   3.597  10.719
83665SOL    HW152892   8.195   3.657  10.659
83665SOL    HW252893   8.268   3.525  10.663
83666SOL     OW52894   8.733  14.847   7.623
83666SOL    HW152895   8.816  14.810   7.594
83666SOL    HW252896   8.669  14.813   7.560
83667SOL     OW52897   1.519   3.219   4.997
83667SOL    HW152898   1.560   3.150   5.049
83667SOL    HW252899   1.430   3.187   4.982
83668SOL     OW52900   1.278  10.299  12.348
83668SOL    HW152901   1.191  10.336  12.365
83668SOL    HW252902   1.267  10.205  12.360
83669SOL     OW52903   7.733   8.962   6.687
83669SOL    HW152904   7.657   8.921   6.729
83669SOL    HW252905   7.697   9.019   6.620
83670SOL     OW52906  10.647  11.817   7.117
83670SOL    HW152907  10.607  11.819   7.030
83670SOL    HW252908  10.621  11.732   7.154
83671SOL     OW52909  13.182   6.174  11.914
83671SOL    HW152910  13.155   6.082  11.909
83671SOL    HW252911  13.101   6.222  11.931
83672SOL     OW52912   4.351   1.796   3.062
83672SOL    HW152913   4.350   1.730   3.131
83672SOL    HW252914   4.375   1.877   3.106
83673SOL     OW52915  10.916   3.711   6.078
83673SOL    HW152916  11.006   3.679   6.090
83673SOL    HW252917  10.882   3.660   6.004
83674SOL     OW52918   7.692   7.826   0.049
83674SOL    HW152919   7.753   7.805  14.858
83674SOL    HW252920   7.747   7.858   0.120
83675SOL     OW52921   7.586   6.333   8.771
83675SOL    HW152922   7.500   6.368   8.791
83675SOL    HW252923   7.576   6.290   8.686
83676SOL     OW52924   4.719  14.184   1.313
83676SOL    HW152925   4.699  14.252   1.249
83676SOL    HW252926   4.764  14.116   1.264
83677SOL     OW52927   5.977  10.996   7.805
83677SOL    HW152928   6.045  10.936   7.774
83677SOL    HW252929   5.920  10.943   7.860
83678SOL     OW52930   8.005   8.839   7.619
83678SOL    HW152931   8.045   8.752   7.626
83678SOL    HW252932   8.051   8.892   7.685
83679SOL     OW52933  10.057   4.285  11.388
83679SOL    HW152934  10.063   4.295  11.293
83679SOL    HW252935   9.976   4.329  11.412
83680SOL     OW52936   1.416  13.617   2.655
83680SOL    HW152937   1.506  13.599   2.628
83680SOL    HW252938   1.398  13.551   2.722
83681SOL     OW52939   0.404   2.193   4.633
83681SOL    HW152940   0.354   2.228   4.559
83681SOL    HW252941   0.480   2.251   4.640
83682SOL     OW52942  10.829   9.977   6.031
83682SOL    HW152943  10.811  10.036   5.957
83682SOL    HW252944  10.862   9.897   5.990
83683SOL     OW52945  10.112   7.984  11.965
83683SOL    HW152946  10.090   7.976  11.872
83683SOL    HW252947  10.128   8.077  11.978
83684SOL     OW52948   9.384  12.034  13.763
83684SOL    HW152949   9.372  12.054  13.670
83684SOL    HW252950   9.450  12.097  13.793
83685SOL     OW52951   6.162   6.764   1.648
83685SOL    HW152952   6.219   6.834   1.616
83685SOL    HW252953   6.101   6.807   1.707
83686SOL     OW52954  10.043  11.670   5.235
83686SOL    HW152955   9.951  11.646   5.226
83686SOL    HW252956  10.072  11.691   5.146
83687SOL     OW52957  11.456  10.997   9.786
83687SOL    HW152958  11.512  10.929   9.824
83687SOL    HW252959  11.516  11.068   9.762
83688SOL     OW52960   1.179   4.457  10.079
83688SOL    HW152961   1.262   4.461  10.125
83688SOL    HW252962   1.120   4.414  10.141
83689SOL     OW52963   5.519  10.466   1.726
83689SOL    HW152964   5.586  10.429   1.668
83689SOL    HW252965   5.521  10.410   1.803
83690SOL     OW52966  12.395   4.934   8.603
83690SOL    HW152967  12.387   4.848   8.644
83690SOL    HW252968  12.481   4.966   8.632
83691SOL     OW52969   7.002   6.960   5.615
83691SOL    HW152970   7.040   6.925   5.696
83691SOL    HW252971   7.072   7.013   5.578
83692SOL     OW52972  12.983   5.985  13.485
83692SOL    HW152973  12.930   6.063  13.470
83692SOL    HW252974  12.945   5.918  13.429
83693SOL     OW52975  10.224   3.675   1.453
83693SOL    HW152976  10.217   3.765   1.486
83693SOL    HW252977  10.314   3.667   1.423
83694SOL     OW52978   1.004   2.255  12.390
83694SOL    HW152979   1.075   2.308  12.427
83694SOL    HW252980   1.046   2.175  12.359
83695SOL     OW52981   5.970   6.307   6.300
83695SOL    HW152982   6.024   6.292   6.223
83695SOL    HW252983   6.009   6.251   6.368
83696SOL     OW52984   5.137  13.926   4.226
83696SOL    HW152985   5.105  13.908   4.137
83696SOL    HW252986   5.218  13.975   4.212
83697SOL     OW52987   6.292  10.802   0.340
83697SOL    HW152988   6.273  10.803   0.434
83697SOL    HW252989   6.228  10.863   0.302
83698SOL     OW52990   4.540   8.304   0.164
83698SOL    HW152991   4.530   8.386   0.116
83698SOL    HW252992   4.619   8.264   0.128
83699SOL     OW52993  11.191   4.769   8.705
83699SOL    HW152994  11.213   4.862   8.716
83699SOL    HW252995  11.272   4.729   8.676
83700SOL     OW52996  10.938   8.016   0.734
83700SOL    HW152997  10.905   7.954   0.798
83700SOL    HW252998  10.891   8.097   0.753
83701SOL     OW52999   0.820   0.659   5.834
83701SOL    HW153000   0.791   0.711   5.909
83701SOL    HW253001   0.767   0.692   5.761
83702SOL     OW53002  10.836  12.542   6.114
83702SOL    HW153003  10.812  12.477   6.049
83702SOL    HW253004  10.767  12.537   6.180
83703SOL     OW53005  13.968   7.434  13.852
83703SOL    HW153006  13.896   7.460  13.910
83703SOL    HW253007  13.993   7.515  13.807
83704SOL     OW53008   4.914   2.829   7.603
83704SOL    HW153009   4.873   2.913   7.585
83704SOL    HW253010   4.848   2.764   7.577
83705SOL     OW53011  14.339   1.410   9.955
83705SOL    HW153012  14.414   1.393  10.012
83705SOL    HW253013  14.294   1.326   9.949
83706SOL     OW53014   9.134   6.282   8.708
83706SOL    HW153015   9.059   6.339   8.692
83706SOL    HW253016   9.097   6.204   8.751
83707SOL     OW53017  11.776   0.429   3.575
83707SOL    HW153018  11.703   0.436   3.513
83707SOL    HW253019  11.840   0.493   3.544
83708SOL     OW53020   4.721   5.743   7.497
83708SOL    HW153021   4.721   5.802   7.421
83708SOL    HW253022   4.645   5.686   7.483
83709SOL     OW53023   3.882   5.349   5.542
83709SOL    HW153024   3.874   5.278   5.478
83709SOL    HW253025   3.976   5.357   5.557
83710SOL     OW53026  11.326  12.367   6.335
83710SOL    HW153027  11.370  12.446   6.305
83710SOL    HW253028  11.255  12.353   6.273
83711SOL     OW53029   7.638   6.016  10.096
83711SOL    HW153030   7.665   5.990  10.184
83711SOL    HW253031   7.708   6.074  10.066
83712SOL     OW53032   9.411   6.617  10.352
83712SOL    HW153033   9.368   6.539  10.388
83712SOL    HW253034   9.469   6.646  10.422
83713SOL     OW53035   8.063   3.568   5.794
83713SOL    HW153036   8.030   3.649   5.832
83713SOL    HW253037   8.133   3.596   5.735
83714SOL     OW53038   8.121   2.567   3.275
83714SOL    HW153039   8.110   2.583   3.369
83714SOL    HW253040   8.033   2.544   3.244
83715SOL     OW53041  11.452   5.878   7.404
83715SOL    HW153042  11.398   5.956   7.388
83715SOL    HW253043  11.436   5.821   7.329
83716SOL     OW53044  14.379  10.396  10.785
83716SOL    HW153045  14.322  10.357  10.851
83716SOL    HW253046  14.352  10.355  10.703
83717SOL     OW53047  13.001   2.022  10.960
83717SOL    HW153048  13.071   2.087  10.970
83717SOL    HW253049  12.921   2.074  10.958
83718SOL     OW53050   6.654  12.720   1.873
83718SOL    HW153051   6.659  12.665   1.950
83718SOL    HW253052   6.581  12.780   1.891
83719SOL     OW53053  12.191   0.227   6.627
83719SOL    HW153054  12.142   0.271   6.558
83719SOL    HW253055  12.271   0.197   6.585
83720SOL     OW53056   1.228   0.786   6.112
83720SOL    HW153057   1.224   0.837   6.031
83720SOL    HW253058   1.180   0.838   6.176
83721SOL     OW53059   3.773  13.836   2.035
83721SOL    HW153060   3.680  13.823   2.055
83721SOL    HW253061   3.788  13.929   2.050
83722SOL     OW53062  13.273   3.252   3.845
83722SOL    HW153063  13.206   3.216   3.787
83722SOL    HW253064  13.314   3.322   3.793
83723SOL     OW53065  11.814  11.167  13.844
83723SOL    HW153066  11.852  11.193  13.928
83723SOL    HW253067  11.887  11.126  13.797
83724SOL     OW53068   7.349  10.661  13.738
83724SOL    HW153069   7.299  10.678  13.817
83724SOL    HW253070   7.437  10.638  13.768
83725SOL     OW53071   8.966   5.265   4.228
83725SOL    HW153072   9.003   5.353   4.238
83725SOL    HW253073   8.875   5.275   4.255
83726SOL     OW53074   6.588   2.211  13.167
83726SOL    HW153075   6.661   2.196  13.107
83726SOL    HW253076   6.629   2.233  13.250
83727SOL     OW53077   8.699  14.172   5.018
83727SOL    HW153078   8.616  14.177   5.065
83727SOL    HW253079   8.756  14.235   5.062
83728SOL     OW53080  14.358   4.750   0.359
83728SOL    HW153081  14.297   4.706   0.418
83728SOL    HW253082  14.368   4.838   0.394
83729SOL     OW53083  10.901  10.457   7.042
83729SOL    HW153084  10.850  10.426   7.117
83729SOL    HW253085  10.897  10.385   6.979
83730SOL     OW53086   2.971   0.599   4.899
83730SOL    HW153087   2.879   0.621   4.911
83730SOL    HW253088   2.970   0.521   4.844
83731SOL     OW53089   6.284   6.884   3.899
83731SOL    HW153090   6.356   6.831   3.866
83731SOL    HW253091   6.324   6.966   3.927
83732SOL     OW53092  11.858   6.484   8.062
83732SOL    HW153093  11.840   6.510   8.153
83732SOL    HW253094  11.805   6.405   8.049
83733SOL     OW53095  13.368   8.840  13.988
83733SOL    HW153096  13.431   8.906  13.958
83733SOL    HW253097  13.284   8.869  13.953
83734SOL     OW53098   0.929   4.875   7.107
83734SOL    HW153099   0.860   4.912   7.163
83734SOL    HW253100   0.981   4.822   7.167
83735SOL     OW53101   6.664   3.746   6.217
83735SOL    HW153102   6.605   3.809   6.258
83735SOL    HW253103   6.609   3.669   6.201
83736SOL     OW53104  10.837   0.447   6.055
83736SOL    HW153105  10.744   0.457   6.038
83736SOL    HW253106  10.859   0.521   6.111
83737SOL     OW53107  10.420   3.681   8.335
83737SOL    HW153108  10.429   3.725   8.420
83737SOL    HW253109  10.434   3.751   8.271
83738SOL     OW53110   2.020   7.240   5.067
83738SOL    HW153111   2.077   7.165   5.084
83738SOL    HW253112   2.068   7.293   5.004
83739SOL     OW53113   2.892   3.690  11.705
83739SOL    HW153114   2.943   3.743  11.766
83739SOL    HW253115   2.803   3.691  11.740
83740SOL     OW53116   7.575   5.951   1.094
83740SOL    HW153117   7.582   6.046   1.095
83740SOL    HW253118   7.495   5.932   1.143
83741SOL     OW53119  11.873  13.025   3.627
83741SOL    HW153120  11.841  12.945   3.668
83741SOL    HW253121  11.884  13.002   3.534
83742SOL     OW53122   9.819   1.952   8.010
83742SOL    HW153123   9.908   1.924   8.031
83742SOL    HW253124   9.819   1.962   7.915
83743SOL     OW53125   1.341   3.770   9.022
83743SOL    HW153126   1.252   3.799   9.040
83743SOL    HW253127   1.331   3.683   8.982
83744SOL     OW53128   2.026   5.220  10.486
83744SOL    HW153129   2.116   5.238  10.459
83744SOL    HW253130   1.973   5.287  10.442
83745SOL     OW53131  11.886   7.364   0.467
83745SOL    HW153132  11.792   7.363   0.452
83745SOL    HW253133  11.911   7.271   0.468
83746SOL     OW53134   4.357   9.831  10.759
83746SOL    HW153135   4.266   9.842  10.788
83746SOL    HW253136   4.355   9.751  10.706
83747SOL     OW53137   9.971   6.995  12.155
83747SOL    HW153138  10.036   6.931  12.128
83747SOL    HW253139  10.016   7.079  12.150
83748SOL     OW53140   0.632  14.369   4.434
83748SOL    HW153141   0.609  14.449   4.481
83748SOL    HW253142   0.727  14.361   4.447
83749SOL     OW53143  11.363  11.344  12.396
83749SOL    HW153144  11.287  11.289  12.416
83749SOL    HW253145  11.335  11.432  12.422
83750SOL     OW53146   1.805   4.696   1.123
83750SOL    HW153147   1.803   4.626   1.187
83750SOL    HW253148   1.714   4.707   1.096
83751SOL     OW53149   1.040   3.465   4.517
83751SOL    HW153150   1.056   3.556   4.491
83751SOL    HW253151   1.113   3.416   4.480
83752SOL     OW53152   9.959  13.207  10.419
83752SOL    HW153153  10.008  13.125  10.426
83752SOL    HW253154  10.008  13.258  10.355
83753SOL     OW53155   9.872  11.117   8.829
83753SOL    HW153156   9.882  11.089   8.738
83753SOL    HW253157   9.892  11.211   8.827
83754SOL     OW53158   0.204  14.551   2.380
83754SOL    HW153159   0.222  14.624   2.322
83754SOL    HW253160   0.126  14.509   2.344
83755SOL     OW53161  11.757  13.107   3.997
83755SOL    HW153162  11.736  13.184   4.050
83755SOL    HW253163  11.692  13.108   3.927
83756SOL     OW53164  10.871   8.927   6.726
83756SOL    HW153165  10.911   8.840   6.726
83756SOL    HW253166  10.905   8.970   6.648
83757SOL     OW53167  13.629   9.810  11.516
83757SOL    HW153168  13.656   9.901  11.529
83757SOL    HW253169  13.676   9.761  11.584
83758SOL     OW53170  12.244  12.360   8.103
83758SOL    HW153171  12.166  12.335   8.054
83758SOL    HW253172  12.282  12.277   8.132
83759SOL     OW53173   2.948   4.222  12.473
83759SOL    HW153174   3.012   4.261  12.533
83759SOL    HW253175   3.000   4.168  12.414
83760SOL     OW53176  13.445  14.639   8.245
83760SOL    HW153177  13.430  14.552   8.208
83760SOL    HW253178  13.536  14.659   8.224
83761SOL     OW53179   1.063   4.539   8.723
83761SOL    HW153180   1.051   4.462   8.778
83761SOL    HW253181   1.131   4.515   8.660
83762SOL     OW53182  11.529  13.125   3.849
83762SOL    HW153183  11.485  13.172   3.779
83762SOL    HW253184  11.461  13.070   3.889
83763SOL     OW53185   2.967  13.033   1.131
83763SOL    HW153186   2.890  12.986   1.162
83763SOL    HW253187   2.974  13.009   1.038
83764SOL     OW53188  10.802   3.893  12.959
83764SOL    HW153189  10.861   3.851  13.022
83764SOL    HW253190  10.821   3.987  12.967
83765SOL     OW53191  10.696   8.103   8.566
83765SOL    HW153192  10.695   8.195   8.541
83765SOL    HW253193  10.650   8.058   8.495
83766SOL     OW53194   5.375   2.389   6.608
83766SOL    HW153195   5.391   2.315   6.551
83766SOL    HW253196   5.288   2.373   6.646
83767SOL     OW53197  14.343   1.163   4.477
83767SOL    HW153198  14.289   1.194   4.549
83767SOL    HW253199  14.386   1.241   4.443
83768SOL     OW53200  12.290   2.915  11.774
83768SOL    HW153201  12.295   2.930  11.868
83768SOL    HW253202  12.380   2.929  11.743
83769SOL     OW53203   1.829   6.606  13.279
83769SOL    HW153204   1.789   6.665  13.343
83769SOL    HW253205   1.796   6.636  13.195
83770SOL     OW53206   1.698   7.651  11.408
83770SOL    HW153207   1.736   7.669  11.494
83770SOL    HW253208   1.735   7.567  11.382
83771SOL     OW53209   9.777   4.544  12.471
83771SOL    HW153210   9.752   4.560  12.380
83771SOL    HW253211   9.778   4.631  12.512
83772SOL     OW53212   3.107   6.206  13.902
83772SOL    HW153213   3.177   6.207  13.836
83772SOL    HW253214   3.050   6.134  13.876
83773SOL     OW53215   6.050   8.439  13.126
83773SOL    HW153216   6.008   8.382  13.061
83773SOL    HW253217   6.083   8.378  13.193
83774SOL     OW53218   7.541   1.650   4.724
83774SOL    HW153219   7.596   1.678   4.651
83774SOL    HW253220   7.460   1.620   4.683
83775SOL     OW53221   8.724   7.482  12.563
83775SOL    HW153222   8.655   7.415  12.558
83775SOL    HW253223   8.780   7.465  12.488
83776SOL     OW53224   2.060   4.008  14.357
83776SOL    HW153225   1.982   4.039  14.311
83776SOL    HW253226   2.094   4.086  14.402
83777SOL     OW53227  13.510   4.287   5.577
83777SOL    HW153228  13.540   4.238   5.501
83777SOL    HW253229  13.417   4.266   5.585
83778SOL     OW53230  11.278   6.873  12.868
83778SOL    HW153231  11.289   6.808  12.799
83778SOL    HW253232  11.283   6.957  12.822
83779SOL     OW53233  10.504   1.523  11.527
83779SOL    HW153234  10.495   1.457  11.458
83779SOL    HW253235  10.537   1.601  11.481
83780SOL     OW53236   1.765  11.243   7.169
83780SOL    HW153237   1.800  11.196   7.244
83780SOL    HW253238   1.742  11.175   7.105
83781SOL     OW53239  14.790  14.224   5.081
83781SOL    HW153240  14.741  14.277   5.143
83781SOL    HW253241  14.777  14.266   4.996
83782SOL     OW53242  14.626   0.434  10.642
83782SOL    HW153243  14.620   0.346  10.680
83782SOL    HW253244  14.698   0.475  10.690
83783SOL     OW53245   6.747  13.490   7.134
83783SOL    HW153246   6.711  13.458   7.051
83783SOL    HW253247   6.721  13.582   7.137
83784SOL     OW53248  14.298  11.857   2.297
83784SOL    HW153249  14.294  11.777   2.349
83784SOL    HW253250  14.291  11.928   2.361
83785SOL     OW53251   6.116   9.403   5.306
83785SOL    HW153252   6.182   9.431   5.243
83785SOL    HW253253   6.061   9.481   5.319
83786SOL     OW53254   6.847   2.165   4.811
83786SOL    HW153255   6.804   2.143   4.729
83786SOL    HW253256   6.882   2.253   4.798
83787SOL     OW53257  12.267   0.993   8.969
83787SOL    HW153258  12.207   1.016   8.897
83787SOL    HW253259  12.352   1.028   8.942
83788SOL     OW53260   5.505   9.355   1.727
83788SOL    HW153261   5.590   9.312   1.728
83788SOL    HW253262   5.508   9.416   1.801
83789SOL     OW53263   3.648   5.028  13.259
83789SOL    HW153264   3.679   4.978  13.335
83789SOL    HW253265   3.663   4.971  13.184
83790SOL     OW53266   0.233   3.307   0.924
83790SOL    HW153267   0.146   3.286   0.892
83790SOL    HW253268   0.238   3.403   0.919
83791SOL     OW53269  10.942   7.925   4.645
83791SOL    HW153270  10.871   7.932   4.709
83791SOL    HW253271  11.016   7.890   4.695
83792SOL     OW53272   8.861   2.438  13.194
83792SOL    HW153273   8.861   2.527  13.231
83792SOL    HW253274   8.827   2.449  13.105
83793SOL     OW53275  13.577   5.922  13.437
83793SOL    HW153276  13.568   5.879  13.522
83793SOL    HW253277  13.671   5.926  13.422
83794SOL     OW53278  11.958   2.311   5.496
83794SOL    HW153279  12.028   2.259   5.533
83794SOL    HW253280  11.891   2.247   5.470
83795SOL     OW53281   2.591   6.371   5.694
83795SOL    HW153282   2.630   6.295   5.739
83795SOL    HW253283   2.627   6.446   5.740
83796SOL     OW53284   9.655   3.691  13.997
83796SOL    HW153285   9.673   3.607  14.040
83796SOL    HW253286   9.635   3.668  13.906
83797SOL     OW53287   9.760  14.756   8.139
83797SOL    HW153288   9.748  14.677   8.192
83797SOL    HW253289   9.762  14.724   8.049
83798SOL     OW53290  12.418   8.209  13.482
83798SOL    HW153291  12.467   8.158  13.546
83798SOL    HW253292  12.330   8.216  13.519
83799SOL     OW53293  10.638  12.915   5.919
83799SOL    HW153294  10.615  13.000   5.956
83799SOL    HW253295  10.706  12.880   5.977
83800SOL     OW53296   0.109  11.786   7.611
83800SOL    HW153297   0.103  11.824   7.699
83800SOL    HW253298   0.018  11.779   7.582
83801SOL     OW53299   2.847   9.356   6.877
83801SOL    HW153300   2.847   9.341   6.972
83801SOL    HW253301   2.939   9.373   6.856
83802SOL     OW53302   9.414   8.085  13.291
83802SOL    HW153303   9.397   8.005  13.342
83802SOL    HW253304   9.377   8.155  13.344
83803SOL     OW53305   6.635   8.830  10.585
83803SOL    HW153306   6.683   8.880  10.518
83803SOL    HW253307   6.594   8.759  10.536
83804SOL     OW53308  13.676  11.671  14.347
83804SOL    HW153309  13.601  11.643  14.294
83804SOL    HW253310  13.637  11.727  14.414
83805SOL     OW53311  13.894   1.838  12.500
83805SOL    HW153312  13.967   1.815  12.558
83805SOL    HW253313  13.816   1.820  12.552
83806SOL     OW53314   5.509   7.388   2.857
83806SOL    HW153315   5.548   7.400   2.770
83806SOL    HW253316   5.418   7.364   2.840
83807SOL     OW53317   4.952   8.880   0.472
83807SOL    HW153318   4.957   8.851   0.381
83807SOL    HW253319   5.031   8.933   0.485
83808SOL     OW53320  11.743   5.274   0.810
83808SOL    HW153321  11.797   5.218   0.866
83808SOL    HW253322  11.666   5.294   0.864
83809SOL     OW53323   5.476   7.437  12.960
83809SOL    HW153324   5.398   7.421  13.013
83809SOL    HW253325   5.530   7.358  12.972
83810SOL     OW53326   9.685   8.970  10.134
83810SOL    HW153327   9.739   9.013  10.201
83810SOL    HW253328   9.614   8.929  10.183
83811SOL     OW53329   2.931  14.648   3.081
83811SOL    HW153330   2.899  14.717   3.141
83811SOL    HW253331   2.924  14.567   3.132
83812SOL     OW53332   7.218   8.029  13.449
83812SOL    HW153333   7.147   8.083  13.413
83812SOL    HW253334   7.298   8.071  13.417
83813SOL     OW53335   9.929  14.381  13.526
83813SOL    HW153336  10.021  14.361  13.544
83813SOL    HW253337   9.880  14.331  13.591
83814SOL     OW53338  14.764   6.877   2.132
83814SOL    HW153339  14.713   6.958   2.134
83814SOL    HW253340  14.770   6.850   2.224
83815SOL     OW53341  12.572   7.910  12.940
83815SOL    HW153342  12.506   7.952  12.885
83815SOL    HW253343  12.570   7.959  13.022
83816SOL     OW53344   7.576   5.602  10.086
83816SOL    HW153345   7.581   5.506  10.091
83816SOL    HW253346   7.483   5.621  10.103
83817SOL     OW53347   0.445  12.093   5.388
83817SOL    HW153348   0.474  12.023   5.330
83817SOL    HW253349   0.491  12.171   5.357
83818SOL     OW53350   6.145   0.861   6.928
83818SOL    HW153351   6.219   0.889   6.982
83818SOL    HW253352   6.069   0.906   6.965
83819SOL     OW53353  12.753   4.936   8.132
83819SOL    HW153354  12.843   4.913   8.111
83819SOL    HW253355  12.758   4.975   8.219
83820SOL     OW53356  11.145   1.468   6.174
83820SOL    HW153357  11.126   1.419   6.254
83820SOL    HW253358  11.092   1.548   6.181
83821SOL     OW53359  13.610  14.157  11.905
83821SOL    HW153360  13.609  14.211  11.826
83821SOL    HW253361  13.543  14.195  11.961
83822SOL     OW53362   5.140  10.166  10.980
83822SOL    HW153363   5.057  10.119  10.986
83822SOL    HW253364   5.124  10.249  11.026
83823SOL     OW53365   8.693   0.182  10.486
83823SOL    HW153366   8.623   0.185  10.550
83823SOL    HW253367   8.717   0.274  10.473
83824SOL     OW53368   1.024  13.044  11.879
83824SOL    HW153369   0.982  13.028  11.795
83824SOL    HW253370   1.113  13.009  11.869
83825SOL     OW53371   4.071   7.479  12.251
83825SOL    HW153372   4.118   7.410  12.297
83825SOL    HW253373   4.065   7.550  12.315
83826SOL     OW53374   4.404   6.445   2.038
83826SOL    HW153375   4.491   6.476   2.064
83826SOL    HW253376   4.410   6.434   1.943
83827SOL     OW53377  10.978   1.967   3.612
83827SOL    HW153378  10.999   1.912   3.536
83827SOL    HW253379  10.889   1.941   3.636
83828SOL     OW53380   8.114   9.431   5.820
83828SOL    HW153381   8.207   9.450   5.804
83828SOL    HW253382   8.106   9.337   5.806
83829SOL     OW53383   9.844   1.872   7.023
83829SOL    HW153384   9.775   1.904   6.965
83829SOL    HW253385   9.817   1.902   7.110
83830SOL     OW53386  14.246   3.916  12.033
83830SOL    HW153387  14.223   4.008  12.017
83830SOL    HW253388  14.265   3.880  11.947
83831SOL     OW53389  11.005  10.565   8.940
83831SOL    HW153390  11.097  10.544   8.922
83831SOL    HW253391  10.955  10.495   8.897
83832SOL     OW53392   7.755  14.133   3.333
83832SOL    HW153393   7.810  14.167   3.403
83832SOL    HW253394   7.711  14.210   3.297
83833SOL     OW53395   4.541   5.665   2.309
83833SOL    HW153396   4.452   5.632   2.301
83833SOL    HW253397   4.584   5.638   2.228
83834SOL     OW53398   4.406  13.753   7.453
83834SOL    HW153399   4.440  13.670   7.419
83834SOL    HW253400   4.404  13.741   7.548
83835SOL     OW53401  10.465   7.869   1.054
83835SOL    HW153402  10.377   7.862   1.093
83835SOL    HW253403  10.458   7.939   0.989
83836SOL     OW53404  11.761   6.310   5.165
83836SOL    HW153405  11.722   6.278   5.246
83836SOL    HW253406  11.832   6.249   5.146
83837SOL     OW53407  12.192   7.306   9.945
83837SOL    HW153408  12.159   7.336  10.030
83837SOL    HW253409  12.239   7.381   9.909
83838SOL     OW53410   9.307  14.852   2.959
83838SOL    HW153411   9.274  14.787   3.021
83838SOL    HW253412   9.369   0.025   3.011
83839SOL     OW53413   0.527   3.938  13.668
83839SOL    HW153414   0.551   3.982  13.749
83839SOL    HW253415   0.578   3.983  13.600
83840SOL     OW53416  10.779  14.429  11.498
83840SOL    HW153417  10.723  14.422  11.575
83840SOL    HW253418  10.842  14.497  11.520
83841SOL     OW53419   4.697  12.126   5.392
83841SOL    HW153420   4.723  12.216   5.415
83841SOL    HW253421   4.765  12.071   5.431
83842SOL     OW53422  12.681  10.374   4.201
83842SOL    HW153423  12.731  10.337   4.128
83842SOL    HW253424  12.692  10.468   4.193
83843SOL     OW53425  14.794   7.465   9.436
83843SOL    HW153426  14.798   7.375   9.466
83843SOL    HW253427  14.711   7.498   9.471
83844SOL     OW53428   1.339   0.939  14.074
83844SOL    HW153429   1.377   0.906  14.155
83844SOL    HW253430   1.413   0.950  14.015
83845SOL     OW53431   0.851  11.653   1.491
83845SOL    HW153432   0.929  11.606   1.522
83845SOL    HW253433   0.804  11.588   1.439
83846SOL     OW53434   7.622   4.271   1.861
83846SOL    HW153435   7.643   4.342   1.921
83846SOL    HW253436   7.529   4.254   1.874
83847SOL     OW53437   5.687  14.304   9.955
83847SOL    HW153438   5.741  14.379   9.979
83847SOL    HW253439   5.738  14.257   9.889
83848SOL     OW53440  14.116  13.163   5.509
83848SOL    HW153441  14.094  13.250   5.477
83848SOL    HW253442  14.035  13.112   5.499
83849SOL     OW53443  11.318   2.295   0.281
83849SOL    HW153444  11.340   2.204   0.301
83849SOL    HW253445  11.365   2.346   0.346
83850SOL     OW53446   9.659  10.212   9.920
83850SOL    HW153447   9.630  10.166   9.841
83850SOL    HW253448   9.587  10.271   9.941
83851SOL     OW53449   1.146   0.709   4.172
83851SOL    HW153450   1.168   0.789   4.124
83851SOL    HW253451   1.069   0.732   4.223
83852SOL     OW53452  13.357   3.634  12.500
83852SOL    HW153453  13.407   3.681  12.567
83852SOL    HW253454  13.413   3.637  12.422
83853SOL     OW53455   7.493   4.041  13.402
83853SOL    HW153456   7.587   4.061  13.405
83853SOL    HW253457   7.466   4.064  13.313
83854SOL     OW53458   5.658   3.332   0.063
83854SOL    HW153459   5.672   3.385   0.142
83854SOL    HW253460   5.603   3.259   0.092
83855SOL     OW53461   8.338  12.970   2.726
83855SOL    HW153462   8.271  12.997   2.788
83855SOL    HW253463   8.335  12.874   2.726
83856SOL     OW53464  11.371   6.729   1.247
83856SOL    HW153465  11.400   6.682   1.169
83856SOL    HW253466  11.444   6.719   1.309
83857SOL     OW53467   8.972   2.985  12.734
83857SOL    HW153468   8.919   3.056  12.700
83857SOL    HW253469   9.050   2.983  12.678
83858SOL     OW53470  11.833  10.884  14.150
83858SOL    HW153471  11.814  10.855  14.240
83858SOL    HW253472  11.927  10.904  14.151
83859SOL     OW53473   5.043   3.929  11.129
83859SOL    HW153474   5.128   3.945  11.170
83859SOL    HW253475   5.004   4.016  11.120
83860SOL     OW53476   8.319  11.927   4.686
83860SOL    HW153477   8.260  11.871   4.637
83860SOL    HW253478   8.404  11.916   4.644
83861SOL     OW53479   6.084  14.758   0.804
83861SOL    HW153480   6.049  14.708   0.878
83861SOL    HW253481   6.022  14.742   0.733
83862SOL     OW53482   3.814   4.775  11.001
83862SOL    HW153483   3.839   4.724  11.078
83862SOL    HW253484   3.879   4.754  10.935
83863SOL     OW53485   9.341   2.983  11.214
83863SOL    HW153486   9.389   3.050  11.262
83863SOL    HW253487   9.313   2.921  11.281
83864SOL     OW53488  12.899  13.509   9.349
83864SOL    HW153489  12.936  13.520   9.436
83864SOL    HW253490  12.904  13.415   9.332
83865SOL     OW53491   9.170   1.779  14.359
83865SOL    HW153492   9.216   1.758  14.278
83865SOL    HW253493   9.102   1.712  14.365
83866SOL     OW53494   1.265  14.038   0.305
83866SOL    HW153495   1.248  14.032   0.399
83866SOL    HW253496   1.191  13.993   0.265
83867SOL     OW53497   8.606  14.114   2.169
83867SOL    HW153498   8.561  14.030   2.169
83867SOL    HW253499   8.571  14.160   2.092
83868SOL     OW53500   1.594  11.543   1.159
83868SOL    HW153501   1.688  11.533   1.172
83868SOL    HW253502   1.586  11.602   1.083
83869SOL     OW53503  11.725  12.508   4.907
83869SOL    HW153504  11.753  12.419   4.927
83869SOL    HW253505  11.697  12.544   4.991
83870SOL     OW53506   9.843   1.287   7.628
83870SOL    HW153507   9.911   1.336   7.674
83870SOL    HW253508   9.814   1.222   7.692
83871SOL     OW53509  13.513   9.383  14.177
83871SOL    HW153510  13.597   9.338  14.183
83871SOL    HW253511  13.451   9.315  14.152
83872SOL     OW53512   1.265   8.629   5.396
83872SOL    HW153513   1.234   8.669   5.315
83872SOL    HW253514   1.193   8.643   5.458
83873SOL     OW53515   5.941   9.080  10.419
83873SOL    HW153516   5.857   9.073  10.374
83873SOL    HW253517   5.989   9.002  10.392
83874SOL     OW53518   1.892   1.884  12.917
83874SOL    HW153519   1.857   1.915  12.833
83874SOL    HW253520   1.987   1.883  12.904
83875SOL     OW53521   6.442   3.588   8.399
83875SOL    HW153522   6.365   3.533   8.412
83875SOL    HW253523   6.438   3.653   8.470
83876SOL     OW53524  13.758  13.229   3.316
83876SOL    HW153525  13.721  13.262   3.398
83876SOL    HW253526  13.695  13.163   3.286
83877SOL     OW53527   5.419  14.721   7.960
83877SOL    HW153528   5.404  14.674   7.878
83877SOL    HW253529   5.377  14.667   8.027
83878SOL     OW53530   8.721   0.411   6.785
83878SOL    HW153531   8.808   0.432   6.750
83878SOL    HW253532   8.660   0.437   6.716
83879SOL     OW53533  12.821   8.613  13.831
83879SOL    HW153534  12.786   8.702  13.840
83879SOL    HW253535  12.764   8.571  13.768
83880SOL     OW53536   6.469  11.287   3.347
83880SOL    HW153537   6.469  11.382   3.361
83880SOL    HW253538   6.478  11.277   3.252
83881SOL     OW53539   9.730  11.309   5.842
83881SOL    HW153540   9.740  11.327   5.749
83881SOL    HW253541   9.647  11.351   5.866
83882SOL     OW53542   4.380   0.458  10.144
83882SOL    HW153543   4.446   0.403  10.101
83882SOL    HW253544   4.349   0.405  10.217
83883SOL     OW53545  13.394  12.718  10.853
83883SOL    HW153546  13.346  12.653  10.803
83883SOL    HW253547  13.422  12.672  10.933
83884SOL     OW53548  12.935   1.893   5.298
83884SOL    HW153549  12.874   1.940   5.241
83884SOL    HW253550  12.954   1.954   5.369
83885SOL     OW53551  12.089   7.673   7.657
83885SOL    HW153552  12.007   7.645   7.697
83885SOL    HW253553  12.153   7.670   7.729
83886SOL     OW53554  13.822   1.842   9.347
83886SOL    HW153555  13.886   1.780   9.313
83886SOL    HW253556  13.750   1.840   9.284
83887SOL     OW53557  11.961   6.117   6.920
83887SOL    HW153558  11.898   6.132   6.991
83887SOL    HW253559  11.907   6.107   6.842
83888SOL     OW53560   5.276  12.086  11.864
83888SOL    HW153561   5.197  12.136  11.885
83888SOL    HW253562   5.287  12.026  11.938
83889SOL     OW53563   2.945  12.450   4.817
83889SOL    HW153564   3.005  12.447   4.892
83889SOL    HW253565   2.924  12.542   4.807
83890SOL     OW53566  12.520   6.829   3.485
83890SOL    HW153567  12.537   6.901   3.425
83890SOL    HW253568  12.431   6.843   3.517
83891SOL     OW53569   0.857  10.068  13.671
83891SOL    HW153570   0.852  10.064  13.767
83891SOL    HW253571   0.768  10.050  13.641
83892SOL     OW53572   7.527   8.376   7.660
83892SOL    HW153573   7.486   8.295   7.689
83892SOL    HW253574   7.588   8.350   7.591
83893SOL     OW53575   4.674   7.579   5.117
83893SOL    HW153576   4.635   7.605   5.034
83893SOL    HW253577   4.726   7.655   5.144
83894SOL     OW53578   8.052   0.385   7.800
83894SOL    HW153579   8.021   0.299   7.829
83894SOL    HW253580   8.104   0.366   7.721
83895SOL     OW53581   4.122  13.248  12.521
83895SOL    HW153582   4.104  13.157  12.498
83895SOL    HW253583   4.107  13.297  12.440
83896SOL     OW53584   5.040   3.744  12.980
83896SOL    HW153585   5.086   3.686  13.040
83896SOL    HW253586   4.958   3.765  13.025
83897SOL     OW53587   4.070  14.878   3.407
83897SOL    HW153588   4.062  14.867   3.502
83897SOL    HW253589   4.104   0.087   3.396
83898SOL     OW53590   8.977   0.165   7.888
83898SOL    HW153591   8.967   0.074   7.862
83898SOL    HW253592   8.899   0.209   7.853
83899SOL     OW53593   5.436   3.490  13.632
83899SOL    HW153594   5.353   3.538  13.626
83899SOL    HW253595   5.463   3.500  13.723
83900SOL     OW53596  13.948   5.998  12.008
83900SOL    HW153597  13.950   6.094  12.007
83900SOL    HW253598  13.855   5.976  12.006
83901SOL     OW53599  14.844  14.572   8.283
83901SOL    HW153600  14.791  14.581   8.204
83901SOL    HW253601  14.851  14.661   8.318
83902SOL     OW53602   1.701  14.346  10.641
83902SOL    HW153603   1.794  14.325  10.632
83902SOL    HW253604   1.656  14.277  10.592
83903SOL     OW53605  10.235   6.297  13.006
83903SOL    HW153606  10.207   6.243  13.080
83903SOL    HW253607  10.222   6.241  12.930
83904SOL     OW53608   2.672   2.996   2.652
83904SOL    HW153609   2.672   2.902   2.668
83904SOL    HW253610   2.581   3.017   2.630
83905SOL     OW53611   4.549  12.830   0.512
83905SOL    HW153612   4.527  12.923   0.510
83905SOL    HW253613   4.551  12.804   0.420
83906SOL     OW53614   3.731   3.972  10.181
83906SOL    HW153615   3.737   4.063  10.151
83906SOL    HW253616   3.637   3.953  10.180
83907SOL     OW53617  10.159   1.503   7.970
83907SOL    HW153618  10.249   1.502   8.002
83907SOL    HW253619  10.113   1.566   8.026
83908SOL     OW53620   7.207  13.402   4.399
83908SOL    HW153621   7.268  13.452   4.345
83908SOL    HW253622   7.255  13.384   4.480
83909SOL     OW53623   5.845  10.804  10.307
83909SOL    HW153624   5.815  10.746  10.378
83909SOL    HW253625   5.879  10.744  10.240
83910SOL     OW53626  12.918   1.409   4.024
83910SOL    HW153627  12.964   1.492   4.012
83910SOL    HW253628  12.983   1.352   4.067
83911SOL     OW53629  12.059  13.257   7.015
83911SOL    HW153630  12.147  13.219   7.004
83911SOL    HW253631  12.074  13.351   7.016
83912SOL     OW53632   5.339  14.763  14.602
83912SOL    HW153633   5.324  14.771  14.696
83912SOL    HW253634   5.365  14.672  14.589
83913SOL     OW53635  13.606  14.733   7.373
83913SOL    HW153636  13.559  14.775   7.300
83913SOL    HW253637  13.625  14.804   7.434
83914SOL     OW53638   7.463   5.883   2.196
83914SOL    HW153639   7.557   5.895   2.180
83914SOL    HW253640   7.430   5.841   2.117
83915SOL     OW53641  14.374   5.814   8.400
83915SOL    HW153642  14.356   5.807   8.306
83915SOL    HW253643  14.416   5.900   8.409
83916SOL     OW53644   9.107  11.065  10.733
83916SOL    HW153645   9.120  10.970  10.736
83916SOL    HW253646   9.194  11.101  10.715
83917SOL     OW53647   9.792  11.803   9.222
83917SOL    HW153648   9.805  11.732   9.159
83917SOL    HW253649   9.850  11.873   9.192
83918SOL     OW53650  10.532  11.154   9.119
83918SOL    HW153651  10.599  11.100   9.076
83918SOL    HW253652  10.457  11.151   9.060
83919SOL     OW53653   5.882  13.100   7.809
83919SOL    HW153654   5.932  13.182   7.815
83919SOL    HW253655   5.902  13.053   7.890
83920SOL     OW53656   7.623  13.115  14.373
83920SOL    HW153657   7.570  13.164  14.435
83920SOL    HW253658   7.710  13.156  14.378
83921SOL     OW53659  14.788   3.062  13.178
83921SOL    HW153660  14.854   3.130  13.195
83921SOL    HW253661  14.728   3.068  13.252
83922SOL     OW53662  10.618  12.928   9.344
83922SOL    HW153663  10.599  12.863   9.276
83922SOL    HW253664  10.616  13.012   9.297
83923SOL     OW53665  12.131   3.875  11.599
83923SOL    HW153666  12.137   3.863  11.504
83923SOL    HW253667  12.106   3.788  11.632
83924SOL     OW53668   8.889   6.880  11.854
83924SOL    HW153669   8.900   6.921  11.769
83924SOL    HW253670   8.978   6.874  11.890
83925SOL     OW53671   4.388  13.097   3.020
83925SOL    HW153672   4.340  13.049   2.953
83925SOL    HW253673   4.390  13.038   3.095
83926SOL     OW53674  12.287   3.907   0.338
83926SOL    HW153675  12.304   3.816   0.314
83926SOL    HW253676  12.228   3.902   0.414
83927SOL     OW53677  12.706   4.374  12.796
83927SOL    HW153678  12.691   4.280  12.793
83927SOL    HW253679  12.719   4.399  12.705
83928SOL     OW53680   7.226  14.595  13.104
83928SOL    HW153681   7.231  14.688  13.082
83928SOL    HW253682   7.308  14.558  13.070
83929SOL     OW53683   9.449   7.369   3.508
83929SOL    HW153684   9.380   7.359   3.443
83929SOL    HW253685   9.525   7.398   3.458
83930SOL     OW53686   0.417  10.804   5.791
83930SOL    HW153687   0.392  10.863   5.862
83930SOL    HW253688   0.337  10.754   5.773
83931SOL     OW53689   6.651   4.945   6.867
83931SOL    HW153690   6.562   4.970   6.891
83931SOL    HW253691   6.675   4.877   6.930
83932SOL     OW53692   7.954  10.606   6.291
83932SOL    HW153693   7.900  10.629   6.366
83932SOL    HW253694   7.971  10.689   6.247
83933SOL     OW53695  10.261  14.595   6.657
83933SOL    HW153696  10.319  14.533   6.612
83933SOL    HW253697  10.276  14.579   6.750
83934SOL     OW53698  14.089  10.585   2.311
83934SOL    HW153699  14.065  10.555   2.399
83934SOL    HW253700  14.071  10.679   2.312
83935SOL     OW53701   9.111  12.893  10.573
83935SOL    HW153702   9.061  12.898  10.492
83935SOL    HW253703   9.096  12.977  10.616
83936SOL     OW53704   4.550  10.918  13.407
83936SOL    HW153705   4.552  11.005  13.445
83936SOL    HW253706   4.517  10.931  13.318
83937SOL     OW53707   6.511   1.532   3.750
83937SOL    HW153708   6.436   1.578   3.712
83937SOL    HW253709   6.587   1.585   3.726
83938SOL     OW53710   5.952   8.287   4.400
83938SOL    HW153711   6.044   8.312   4.410
83938SOL    HW253712   5.930   8.246   4.483
83939SOL     OW53713  10.896  14.513   8.905
83939SOL    HW153714  10.805  14.504   8.876
83939SOL    HW253715  10.915  14.432   8.951
83940SOL     OW53716   5.384   0.626   3.276
83940SOL    HW153717   5.442   0.701   3.285
83940SOL    HW253718   5.415   0.580   3.198
83941SOL     OW53719   8.748  10.518   7.441
83941SOL    HW153720   8.806  10.551   7.509
83941SOL    HW253721   8.678  10.474   7.489
83942SOL     OW53722  10.960   5.402   5.527
83942SOL    HW153723  10.924   5.468   5.469
83942SOL    HW253724  11.028   5.359   5.475
83943SOL     OW53725   2.393   5.398   8.689
83943SOL    HW153726   2.453   5.398   8.764
83943SOL    HW253727   2.424   5.470   8.634
83944SOL     OW53728   6.575   7.694   0.915
83944SOL    HW153729   6.494   7.716   0.962
83944SOL    HW253730   6.635   7.664   0.983
83945SOL     OW53731   5.479   0.424  11.875
83945SOL    HW153732   5.418   0.416  11.948
83945SOL    HW253733   5.526   0.506  11.892
83946SOL     OW53734  11.568   7.247   7.536
83946SOL    HW153735  11.656   7.219   7.511
83946SOL    HW253736  11.579   7.334   7.575
83947SOL     OW53737   8.535   0.015  12.807
83947SOL    HW153738   8.568  14.826  12.865
83947SOL    HW253739   8.440   0.011  12.817
83948SOL     OW53740   0.725   2.428   8.146
83948SOL    HW153741   0.710   2.338   8.172
83948SOL    HW253742   0.663   2.479   8.198
83949SOL     OW53743  12.742   5.342  12.901
83949SOL    HW153744  12.713   5.429  12.929
83949SOL    HW253745  12.661   5.296  12.879
83950SOL     OW53746   5.802   1.905   6.343
83950SOL    HW153747   5.869   1.957   6.298
83950SOL    HW253748   5.816   1.816   6.313
83951SOL     OW53749   4.027   7.948  10.306
83951SOL    HW153750   4.039   7.902  10.223
83951SOL    HW253751   4.050   7.883  10.373
83952SOL     OW53752  10.124   1.766  10.129
83952SOL    HW153753  10.181   1.810  10.066
83952SOL    HW253754  10.143   1.673  10.117
83953SOL     OW53755   1.872   0.642  12.524
83953SOL    HW153756   1.867   0.552  12.556
83953SOL    HW253757   1.966   0.663  12.527
83954SOL     OW53758   5.508   8.873   5.441
83954SOL    HW153759   5.599   8.862   5.413
83954SOL    HW253760   5.505   8.963   5.474
83955SOL     OW53761   4.934   1.084   1.146
83955SOL    HW153762   5.006   1.133   1.106
83955SOL    HW253763   4.855   1.125   1.112
83956SOL     OW53764  13.124  14.238  10.431
83956SOL    HW153765  13.120  14.147  10.400
83956SOL    HW253766  13.098  14.290  10.355
83957SOL     OW53767   6.725  13.226  13.480
83957SOL    HW153768   6.736  13.311  13.522
83957SOL    HW253769   6.753  13.240  13.390
83958SOL     OW53770  11.473   5.935   8.081
83958SOL    HW153771  11.539   5.959   8.147
83958SOL    HW253772  11.450   5.845   8.102
83959SOL     OW53773   6.807   5.026  13.697
83959SOL    HW153774   6.890   5.075  13.694
83959SOL    HW253775   6.804   4.988  13.785
83960SOL     OW53776   0.322   2.937  11.797
83960SOL    HW153777   0.388   2.867  11.796
83960SOL    HW253778   0.277   2.927  11.880
83961SOL     OW53779   7.082   8.355   0.454
83961SOL    HW153780   7.084   8.436   0.504
83961SOL    HW253781   7.005   8.309   0.485
83962SOL     OW53782  14.431   4.924   5.182
83962SOL    HW153783  14.453   4.832   5.194
83962SOL    HW253784  14.388   4.950   5.263
83963SOL     OW53785   6.062  12.462  13.095
83963SOL    HW153786   6.112  12.535  13.058
83963SOL    HW253787   6.121  12.388  13.092
83964SOL     OW53788   7.890  12.521   0.167
83964SOL    HW153789   7.795  12.514   0.177
83964SOL    HW253790   7.915  12.597   0.218
83965SOL     OW53791   9.120   0.653   6.501
83965SOL    HW153792   9.209   0.680   6.524
83965SOL    HW253793   9.074   0.735   6.482
83966SOL     OW53794  10.320   4.460   8.854
83966SOL    HW153795  10.324   4.555   8.841
83966SOL    HW253796  10.410   4.430   8.848
83967SOL     OW53797  11.226   8.535  11.188
83967SOL    HW153798  11.152   8.590  11.160
83967SOL    HW253799  11.302   8.592  11.183
83968SOL     OW53800  11.985   9.915   0.567
83968SOL    HW153801  12.002   9.909   0.661
83968SOL    HW253802  12.039   9.987   0.537
83969SOL     OW53803  14.232   9.381   1.136
83969SOL    HW153804  14.239   9.472   1.109
83969SOL    HW253805  14.205   9.335   1.057
83970SOL     OW53806   1.361   5.938   8.832
83970SOL    HW153807   1.329   5.849   8.813
83970SOL    HW253808   1.302   5.970   8.901
83971SOL     OW53809  13.817  11.822  10.996
83971SOL    HW153810  13.807  11.913  10.970
83971SOL    HW253811  13.749  11.809  11.063
83972SOL     OW53812   5.153   3.474   8.252
83972SOL    HW153813   5.136   3.386   8.285
83972SOL    HW253814   5.151   3.465   8.157
83973SOL     OW53815   9.408   0.213   9.557
83973SOL    HW153816   9.373   0.302   9.550
83973SOL    HW253817   9.503   0.224   9.543
83974SOL     OW53818   7.627   2.786   2.004
83974SOL    HW153819   7.690   2.753   1.940
83974SOL    HW253820   7.665   2.764   2.089
83975SOL     OW53821  12.919   6.106   5.614
83975SOL    HW153822  12.834   6.063   5.602
83975SOL    HW253823  12.978   6.035   5.640
83976SOL     OW53824  12.238   7.776   5.422
83976SOL    HW153825  12.223   7.686   5.450
83976SOL    HW253826  12.151   7.810   5.403
83977SOL     OW53827   1.441  14.056  14.289
83977SOL    HW153828   1.447  14.140  14.333
83977SOL    HW253829   1.499  14.064  14.214
83978SOL     OW53830   1.151   5.564   7.262
83978SOL    HW153831   1.163   5.621   7.186
83978SOL    HW253832   1.180   5.478   7.232
83979SOL     OW53833  12.034  11.399   9.209
83979SOL    HW153834  12.029  11.395   9.113
83979SOL    HW253835  11.948  11.366   9.238
83980SOL     OW53836   6.862   5.665   7.877
83980SOL    HW153837   6.845   5.686   7.969
83980SOL    HW253838   6.933   5.600   7.880
83981SOL     OW53839   4.392   0.620   0.647
83981SOL    HW153840   4.413   0.705   0.610
83981SOL    HW253841   4.405   0.559   0.574
83982SOL     OW53842  12.878  11.825  11.773
83982SOL    HW153843  12.953  11.876  11.804
83982SOL    HW253844  12.805  11.887  11.775
83983SOL     OW53845   2.735   7.599  14.520
83983SOL    HW153846   2.722   7.554  14.436
83983SOL    HW253847   2.689   7.545  14.583
83984SOL     OW53848   6.011   2.599   3.683
83984SOL    HW153849   5.921   2.627   3.663
83984SOL    HW253850   6.057   2.604   3.599
83985SOL     OW53851  12.631   7.369   4.864
83985SOL    HW153852  12.713   7.372   4.816
83985SOL    HW253853  12.564   7.359   4.797
83986SOL     OW53854  11.184  10.597   0.345
83986SOL    HW153855  11.173  10.675   0.290
83986SOL    HW253856  11.202  10.631   0.432
83987SOL     OW53857  11.565   6.440   7.862
83987SOL    HW153858  11.546   6.534   7.858
83987SOL    HW253859  11.495   6.404   7.917
83988SOL     OW53860   0.815   7.584  11.007
83988SOL    HW153861   0.806   7.529  10.929
83988SOL    HW253862   0.742   7.645  11.003
83989SOL     OW53863  13.497   0.839   8.090
83989SOL    HW153864  13.446   0.831   8.171
83989SOL    HW253865  13.435   0.817   8.020
83990SOL     OW53866  12.920  11.595  14.300
83990SOL    HW153867  12.839  11.623  14.257
83990SOL    HW253868  12.897  11.583  14.392
83991SOL     OW53869   2.962   4.803   6.269
83991SOL    HW153870   2.968   4.821   6.363
83991SOL    HW253871   2.871   4.824   6.247
83992SOL     OW53872   9.887   8.512  10.784
83992SOL    HW153873   9.938   8.434  10.761
83992SOL    HW253874   9.867   8.502  10.877
83993SOL     OW53875  11.947  10.312   5.031
83993SOL    HW153876  12.033  10.297   5.070
83993SOL    HW253877  11.898  10.232   5.050
83994SOL     OW53878   9.289   9.331   4.241
83994SOL    HW153879   9.341   9.280   4.303
83994SOL    HW253880   9.199   9.304   4.258
83995SOL     OW53881   9.245   5.769   5.434
83995SOL    HW153882   9.300   5.847   5.444
83995SOL    HW253883   9.178   5.794   5.371
83996SOL     OW53884   3.801   4.752   8.240
83996SOL    HW153885   3.749   4.798   8.305
83996SOL    HW253886   3.892   4.770   8.264
83997SOL     OW53887  14.352  13.686  11.843
83997SOL    HW153888  14.264  13.695  11.807
83997SOL    HW253889  14.368  13.591  11.844
83998SOL     OW53890   3.819   0.889   4.433
83998SOL    HW153891   3.809   0.936   4.515
83998SOL    HW253892   3.895   0.929   4.391
83999SOL     OW53893   0.228  11.309   7.507
83999SOL    HW153894   0.198  11.391   7.546
83999SOL    HW253895   0.316  11.297   7.542
84000SOL     OW53896   1.276   2.848   9.719
84000SOL    HW153897   1.279   2.755   9.694
84000SOL    HW253898   1.337   2.854   9.793
84001SOL     OW53899   5.176  13.813   7.229
84001SOL    HW153900   5.173  13.821   7.324
84001SOL    HW253901   5.176  13.719   7.212
84002SOL     OW53902   4.264  13.848   5.530
84002SOL    HW153903   4.343  13.826   5.480
84002SOL    HW253904   4.268  13.944   5.539
84003SOL     OW53905   3.384   2.179  13.854
84003SOL    HW153906   3.408   2.098  13.810
84003SOL    HW253907   3.364   2.241  13.784
84004SOL     OW53908   3.187   3.220  10.840
84004SOL    HW153909   3.212   3.173  10.919
84004SOL    HW253910   3.141   3.298  10.873
84005SOL     OW53911  10.850   6.719   1.513
84005SOL    HW153912  10.938   6.692   1.539
84005SOL    HW253913  10.840   6.686   1.424
84006SOL     OW53914   5.608  14.102   7.578
84006SOL    HW153915   5.695  14.061   7.578
84006SOL    HW253916   5.553  14.041   7.626
84007SOL     OW53917  14.870   2.708   6.971
84007SOL    HW153918  14.778   2.683   6.982
84007SOL    HW253919   0.013   2.676   6.883
84008SOL     OW53920   1.379  11.135  11.643
84008SOL    HW153921   1.367  11.048  11.606
84008SOL    HW253922   1.318  11.190  11.593
84009SOL     OW53923   4.638   5.427   0.878
84009SOL    HW153924   4.578   5.359   0.848
84009SOL    HW253925   4.695   5.443   0.803
84010SOL     OW53926   0.916   7.455   8.415
84010SOL    HW153927   0.877   7.403   8.345
84010SOL    HW253928   0.923   7.543   8.378
84011SOL     OW53929   4.529  12.260   1.137
84011SOL    HW153930   4.468  12.186   1.147
84011SOL    HW253931   4.611  12.228   1.175
84012SOL     OW53932   7.821   0.433  12.163
84012SOL    HW153933   7.867   0.353  12.184
84012SOL    HW253934   7.728   0.408  12.161
84013SOL     OW53935   2.016  12.479  10.856
84013SOL    HW153936   1.939  12.525  10.888
84013SOL    HW253937   2.022  12.504  10.764
84014SOL     OW53938   3.506   2.331   5.279
84014SOL    HW153939   3.508   2.267   5.350
84014SOL    HW253940   3.582   2.309   5.225
84015SOL     OW53941   2.902  14.669   7.037
84015SOL    HW153942   2.894  14.749   6.986
84015SOL    HW253943   2.867  14.692   7.123
84016SOL     OW53944  13.962   0.922   9.007
84016SOL    HW153945  13.965   0.836   8.964
84016SOL    HW253946  14.054   0.947   9.018
84017SOL     OW53947   0.925   0.372  10.687
84017SOL    HW153948   0.951   0.454  10.645
84017SOL    HW253949   0.895   0.316  10.615
84018SOL     OW53950  13.385  10.044   4.576
84018SOL    HW153951  13.334  10.034   4.496
84018SOL    HW253952  13.343   9.985   4.639
84019SOL     OW53953   3.392   8.840   2.640
84019SOL    HW153954   3.381   8.771   2.575
84019SOL    HW253955   3.306   8.882   2.646
84020SOL     OW53956  14.394   8.500  13.240
84020SOL    HW153957  14.476   8.454  13.259
84020SOL    HW253958  14.416   8.559  13.168
84021SOL     OW53959   6.167  11.353  11.199
84021SOL    HW153960   6.091  11.325  11.148
84021SOL    HW253961   6.140  11.437  11.236
84022SOL     OW53962  12.307   3.995   5.119
84022SOL    HW153963  12.248   3.996   5.195
84022SOL    HW253964  12.391   4.023   5.154
84023SOL     OW53965  10.317   1.907   6.341
84023SOL    HW153966  10.231   1.869   6.323
84023SOL    HW253967  10.329   1.896   6.435
84024SOL     OW53968   9.960   7.941   9.521
84024SOL    HW153969   9.904   7.926   9.598
84024SOL    HW253970  10.005   8.023   9.540
84025SOL     OW53971  11.647   9.670   0.248
84025SOL    HW153972  11.582   9.621   0.299
84025SOL    HW253973  11.655   9.754   0.294
84026SOL     OW53974   1.106   7.984   0.932
84026SOL    HW153975   1.200   7.972   0.930
84026SOL    HW253976   1.094   8.078   0.920
84027SOL     OW53977   6.493   2.839   7.433
84027SOL    HW153978   6.400   2.847   7.413
84027SOL    HW253979   6.506   2.747   7.453
84028SOL     OW53980  12.856   0.483  10.330
84028SOL    HW153981  12.805   0.561  10.310
84028SOL    HW253982  12.805   0.437  10.396
84029SOL     OW53983  12.209   8.066  14.199
84029SOL    HW153984  12.153   8.047  14.123
84029SOL    HW253985  12.177   8.008  14.267
84030SOL     OW53986  12.018   1.178  12.562
84030SOL    HW153987  11.961   1.110  12.597
84030SOL    HW253988  12.008   1.251  12.623
84031SOL     OW53989   5.053  11.683  13.276
84031SOL    HW153990   5.039  11.726  13.360
84031SOL    HW253991   5.072  11.592  13.298
84032SOL     OW53992   0.425   0.324   9.997
84032SOL    HW153993   0.423   0.386  10.070
84032SOL    HW253994   0.462   0.374   9.924
84033SOL     OW53995  13.676   9.774  14.146
84033SOL    HW153996  13.606   9.708  14.147
84033SOL    HW253997  13.701   9.784  14.238
84034SOL     OW53998   0.681   6.551   4.075
84034SOL    HW153999   0.722   6.533   4.160
84034SOL    HW254000   0.690   6.469   4.027
84035SOL     OW54001   2.916   6.625   5.557
84035SOL    HW154002   2.861   6.604   5.632
84035SOL    HW254003   2.895   6.717   5.537
84036SOL     OW54004   3.230  11.329   8.482
84036SOL    HW154005   3.246  11.322   8.388
84036SOL    HW254006   3.142  11.294   8.495
84037SOL     OW54007   2.994   5.977   7.958
84037SOL    HW154008   2.973   6.037   7.886
84037SOL    HW254009   2.958   6.019   8.036
84038SOL     OW54010   1.489   2.204   3.826
84038SOL    HW154011   1.467   2.147   3.752
84038SOL    HW254012   1.404   2.222   3.867
84039SOL     OW54013   7.539   5.042   3.172
84039SOL    HW154014   7.624   5.086   3.173
84039SOL    HW254015   7.525   5.018   3.080
84040SOL     OW54016   5.682   9.150   2.011
84040SOL    HW154017   5.675   9.165   2.105
84040SOL    HW254018   5.773   9.169   1.990
84041SOL     OW54019  14.502   1.156  14.728
84041SOL    HW154020  14.443   1.090  14.692
84041SOL    HW254021  14.539   1.199  14.651
84042SOL     OW54022  11.376  13.590  12.188
84042SOL    HW154023  11.324  13.670  12.187
84042SOL    HW254024  11.382  13.567  12.281
84043SOL     OW54025  12.955   2.242   9.809
84043SOL    HW154026  12.895   2.205   9.744
84043SOL    HW254027  13.035   2.260   9.759
84044SOL     OW54028   4.525   2.807   6.168
84044SOL    HW154029   4.576   2.864   6.226
84044SOL    HW254030   4.539   2.719   6.203
84045SOL     OW54031   6.236  11.786   9.319
84045SOL    HW154032   6.182  11.862   9.297
84045SOL    HW254033   6.230  11.779   9.414
84046SOL     OW54034  11.782   3.395   0.967
84046SOL    HW154035  11.705   3.446   0.993
84046SOL    HW254036  11.823   3.446   0.897
84047SOL     OW54037  14.713  14.686  12.909
84047SOL    HW154038  14.796  14.680  12.958
84047SOL    HW254039  14.700  14.598  12.875
84048SOL     OW54040   0.492  11.918  11.403
84048SOL    HW154041   0.499  12.008  11.435
84048SOL    HW254042   0.494  11.926  11.308
84049SOL     OW54043   1.205   6.963   6.238
84049SOL    HW154044   1.162   6.878   6.250
84049SOL    HW254045   1.221   6.969   6.144
84050SOL     OW54046   7.390   4.398   9.627
84050SOL    HW154047   7.469   4.452   9.622
84050SOL    HW254048   7.358   4.393   9.537
84051SOL     OW54049  12.547   2.558   6.017
84051SOL    HW154050  12.524   2.643   6.054
84051SOL    HW254051  12.631   2.573   5.973
84052SOL     OW54052  10.879   6.525   6.848
84052SOL    HW154053  10.883   6.464   6.774
84052SOL    HW254054  10.797   6.505   6.892
84053SOL     OW54055   0.985   5.705  14.438
84053SOL    HW154056   1.035   5.652  14.376
84053SOL    HW254057   0.997   5.662  14.522
84054SOL     OW54058   6.539   0.335  11.390
84054SOL    HW154059   6.474   0.363  11.326
84054SOL    HW254060   6.587   0.416  11.412
84055SOL     OW54061   0.373   1.696  13.759
84055SOL    HW154062   0.385   1.665  13.669
84055SOL    HW254063   0.461   1.691  13.797
84056SOL     OW54064   2.145   2.784   9.039
84056SOL    HW154065   2.184   2.797   8.953
84056SOL    HW254066   2.174   2.860   9.090
84057SOL     OW54067   7.243   4.647   4.798
84057SOL    HW154068   7.322   4.699   4.815
84057SOL    HW254069   7.173   4.694   4.842
84058SOL     OW54070  11.802   1.502   6.190
84058SOL    HW154071  11.769   1.510   6.279
84058SOL    HW254072  11.789   1.589   6.152
84059SOL     OW54073   4.287   1.624   9.797
84059SOL    HW154074   4.367   1.583   9.830
84059SOL    HW254075   4.310   1.716   9.785
84060SOL     OW54076   4.282   0.664  11.868
84060SOL    HW154077   4.208   0.703  11.821
84060SOL    HW254078   4.315   0.734  11.923
84061SOL     OW54079   7.362   3.908   1.676
84061SOL    HW154080   7.325   3.879   1.592
84061SOL    HW254081   7.409   3.831   1.709
84062SOL     OW54082  12.507   5.068  12.619
84062SOL    HW154083  12.523   5.145  12.675
84062SOL    HW254084  12.451   5.101  12.549
84063SOL     OW54085   9.068  12.245   8.104
84063SOL    HW154086   9.011  12.284   8.171
84063SOL    HW254087   9.148  12.298   8.108
84064SOL     OW54088  13.725   0.970   4.384
84064SOL    HW154089  13.766   0.892   4.346
84064SOL    HW254090  13.795   1.036   4.384
84065SOL     OW54091   9.907  10.983   6.767
84065SOL    HW154092   9.829  11.025   6.732
84065SOL    HW254093   9.936  11.041   6.837
84066SOL     OW54094   3.909   1.350   9.073
84066SOL    HW154095   3.871   1.352   8.986
84066SOL    HW254096   4.001   1.325   9.059
84067SOL     OW54097   9.677   4.962   5.115
84067SOL    HW154098   9.659   4.957   5.021
84067SOL    HW254099   9.746   5.027   5.123
84068SOL     OW54100   7.908   0.099  11.447
84068SOL    HW154101   7.841   0.099  11.379
84068SOL    HW254102   7.892   0.180  11.497
84069SOL     OW54103   2.987  12.282  14.640
84069SOL    HW154104   2.899  12.278  14.678
84069SOL    HW254105   2.997  12.373  14.613
84070SOL     OW54106   6.193   6.398   6.598
84070SOL    HW154107   6.233   6.441   6.674
84070SOL    HW254108   6.230   6.442   6.522
84071SOL     OW54109  10.399   8.489   5.431
84071SOL    HW154110  10.468   8.425   5.450
84071SOL    HW254111  10.354   8.454   5.354
84072SOL     OW54112   3.596   3.943   7.531
84072SOL    HW154113   3.637   3.995   7.601
84072SOL    HW254114   3.559   3.868   7.576
84073SOL     OW54115   1.445   1.226  13.369
84073SOL    HW154116   1.493   1.215  13.451
84073SOL    HW254117   1.425   1.320  13.365
84074SOL     OW54118   4.337  12.114  10.078
84074SOL    HW154119   4.324  12.019  10.082
84074SOL    HW254120   4.250  12.150  10.098
84075SOL     OW54121  14.706  14.067   3.312
84075SOL    HW154122  14.657  13.985   3.300
84075SOL    HW254123  14.762  14.074   3.235
84076SOL     OW54124  10.821   5.634   8.344
84076SOL    HW154125  10.845   5.541   8.344
84076SOL    HW254126  10.816   5.657   8.252
84077SOL     OW54127  13.619   7.592   4.375
84077SOL    HW154128  13.579   7.667   4.419
84077SOL    HW254129  13.638   7.624   4.287
84078SOL     OW54130   0.830   0.302   9.595
84078SOL    HW154131   0.901   0.324   9.655
84078SOL    HW254132   0.870   0.302   9.508
84079SOL     OW54133   4.410   1.180  12.726
84079SOL    HW154134   4.464   1.164  12.648
84079SOL    HW254135   4.472   1.209  12.793
84080SOL     OW54136  12.644  11.429  10.917
84080SOL    HW154137  12.592  11.393  10.845
84080SOL    HW254138  12.606  11.515  10.933
84081SOL     OW54139  10.066  11.144   9.814
84081SOL    HW154140  10.009  11.182   9.748
84081SOL    HW254141  10.050  11.050   9.809
84082SOL     OW54142  12.188   2.059   2.552
84082SOL    HW154143  12.188   2.145   2.593
84082SOL    HW254144  12.158   2.074   2.462
84083SOL     OW54145  12.404   8.897  12.500
84083SOL    HW154146  12.318   8.886  12.460
84083SOL    HW254147  12.426   8.989  12.485
84084SOL     OW54148   7.013   3.302  11.466
84084SOL    HW154149   7.000   3.305  11.371
84084SOL    HW254150   7.100   3.264  11.478
84085SOL     OW54151  13.617   6.555  10.859
84085SOL    HW154152  13.592   6.502  10.782
84085SOL    HW254153  13.547   6.539  10.922
84086SOL     OW54154  14.401   7.064  13.539
84086SOL    HW154155  14.451   6.992  13.578
84086SOL    HW254156  14.334   7.085  13.603
84087SOL     OW54157   4.247  10.755   7.880
84087SOL    HW154158   4.257  10.850   7.869
84087SOL    HW254159   4.222  10.724   7.793
84088SOL     OW54160   0.049  12.182   0.325
84088SOL    HW154161  14.861  12.115   0.313
84088SOL    HW254162   0.112  12.166   0.255
84089SOL     OW54163   4.050   1.844   9.190
84089SOL    HW154164   4.035   1.803   9.275
84089SOL    HW254165   4.096   1.778   9.139
84090SOL     OW54166   1.249  11.473   6.221
84090SOL    HW154167   1.339  11.500   6.240
84090SOL    HW254168   1.222  11.422   6.298
84091SOL     OW54169   3.708   4.173  12.217
84091SOL    HW154170   3.693   4.205  12.128
84091SOL    HW254171   3.623   4.185  12.260
84092SOL     OW54172   3.985   2.596   7.601
84092SOL    HW154173   4.079   2.607   7.592
84092SOL    HW254174   3.964   2.520   7.546
84093SOL     OW54175   0.440   1.845  14.138
84093SOL    HW154176   0.535   1.856  14.145
84093SOL    HW254177   0.418   1.780  14.204
84094SOL     OW54178   2.695  10.878  14.652
84094SOL    HW154179   2.654  10.883  14.739
84094SOL    HW254180   2.780  10.921  14.663
84095SOL     OW54181   3.336   7.590   7.051
84095SOL    HW154182   3.429   7.569   7.065
84095SOL    HW254183   3.336   7.685   7.038
84096SOL     OW54184  13.813   1.825   3.381
84096SOL    HW154185  13.898   1.782   3.371
84096SOL    HW254186  13.822   1.906   3.332
84097SOL     OW54187   8.252   3.217   4.094
84097SOL    HW154188   8.168   3.222   4.049
84097SOL    HW254189   8.230   3.197   4.185
84098SOL     OW54190   8.098   8.239   6.824
84098SOL    HW154191   8.117   8.249   6.731
84098SOL    HW254192   8.013   8.195   6.826
84099SOL     OW54193   5.645  10.821   8.630
84099SOL    HW154194   5.692  10.903   8.621
84099SOL    HW254195   5.553  10.845   8.625
84100SOL     OW54196   3.414  14.354   9.073
84100SOL    HW154197   3.330  14.390   9.100
84100SOL    HW254198   3.460  14.427   9.032
84101SOL     OW54199   9.660   1.344  10.045
84101SOL    HW154200   9.747   1.307  10.032
84101SOL    HW254201   9.655   1.362  10.139
84102SOL     OW54202   7.945  12.522   8.389
84102SOL    HW154203   8.035  12.494   8.406
84102SOL    HW254204   7.894  12.482   8.460
84103SOL     OW54205   4.304  10.093   6.703
84103SOL    HW154206   4.270  10.123   6.788
84103SOL    HW254207   4.376  10.153   6.684
84104SOL     OW54208   4.733  14.292   2.377
84104SOL    HW154209   4.715  14.211   2.424
84104SOL    HW254210   4.675  14.356   2.418
84105SOL     OW54211   8.556  13.565  14.039
84105SOL    HW154212   8.634  13.560  13.983
84105SOL    HW254213   8.519  13.651  14.021
84106SOL     OW54214   4.038   1.450   4.778
84106SOL    HW154215   4.055   1.425   4.687
84106SOL    HW254216   4.058   1.370   4.828
84107SOL     OW54217   8.029   4.902   7.433
84107SOL    HW154218   8.054   4.878   7.344
84107SOL    HW254219   7.943   4.863   7.445
84108SOL     OW54220  10.605  14.556  10.443
84108SOL    HW154221  10.672  14.551  10.511
84108SOL    HW254222  10.638  14.620  10.381
84109SOL     OW54223   0.824  10.383   9.017
84109SOL    HW154224   0.809  10.354   8.927
84109SOL    HW254225   0.910  10.348   9.039
84110SOL     OW54226   7.744   7.823   9.583
84110SOL    HW154227   7.730   7.729   9.599
84110SOL    HW254228   7.727   7.834   9.489
84111SOL     OW54229   9.015  14.607   4.751
84111SOL    HW154230   9.084  14.633   4.813
84111SOL    HW254231   9.039  14.650   4.669
84112SOL     OW54232  11.000  13.373   1.348
84112SOL    HW154233  11.007  13.395   1.255
84112SOL    HW254234  11.083  13.329   1.368
84113SOL     OW54235   3.959  11.984   8.834
84113SOL    HW154236   4.002  12.061   8.872
84113SOL    HW254237   3.890  11.963   8.897
84114SOL     OW54238  10.303   1.717   9.407
84114SOL    HW154239  10.311   1.660   9.483
84114SOL    HW254240  10.361   1.678   9.341
84115SOL     OW54241   2.449   6.913   7.334
84115SOL    HW154242   2.420   7.004   7.328
84115SOL    HW254243   2.436   6.889   7.426
84116SOL     OW54244  13.832   1.620  10.757
84116SOL    HW154245  13.834   1.530  10.789
84116SOL    HW254246  13.800   1.614  10.667
84117SOL     OW54247   3.751  10.515  12.066
84117SOL    HW154248   3.686  10.582  12.044
84117SOL    HW254249   3.823  10.531  12.005
84118SOL     OW54250  13.419  13.693   2.010
84118SOL    HW154251  13.362  13.710   2.085
84118SOL    HW254252  13.423  13.777   1.964
84119SOL     OW54253   5.960   3.598   3.176
84119SOL    HW154254   5.935   3.567   3.263
84119SOL    HW254255   6.013   3.676   3.193
84120SOL     OW54256  11.798  10.372   7.327
84120SOL    HW154257  11.788  10.448   7.269
84120SOL    HW254258  11.709  10.350   7.352
84121SOL     OW54259   7.520   1.657   2.942
84121SOL    HW154260   7.555   1.731   2.893
84121SOL    HW254261   7.437   1.636   2.899
84122SOL     OW54262  11.479  14.218   4.521
84122SOL    HW154263  11.568  14.229   4.553
84122SOL    HW254264  11.463  14.295   4.467
84123SOL     OW54265  14.216   7.117   2.614
84123SOL    HW154266  14.121   7.121   2.614
84123SOL    HW254267  14.243   7.202   2.579
84124SOL     OW54268  10.250   6.039   6.391
84124SOL    HW154269  10.219   6.046   6.300
84124SOL    HW254270  10.341   6.010   6.383
84125SOL     OW54271   4.737   4.063   4.092
84125SOL    HW154272   4.823   4.036   4.061
84125SOL    HW254273   4.699   4.112   4.019
84126SOL     OW54274   9.848  12.444   6.382
84126SOL    HW154275   9.939  12.471   6.367
84126SOL    HW254276   9.848  12.408   6.470
84127SOL     OW54277   3.816   0.391   0.551
84127SOL    HW154278   3.815   0.339   0.632
84127SOL    HW254279   3.851   0.476   0.578
84128SOL     OW54280   1.861   1.391   7.869
84128SOL    HW154281   1.826   1.422   7.953
84128SOL    HW254282   1.933   1.334   7.893
84129SOL     OW54283   1.735   2.424  13.964
84129SOL    HW154284   1.667   2.364  13.935
84129SOL    HW254285   1.689   2.506  13.983
84130SOL     OW54286  11.965  10.438  11.161
84130SOL    HW154287  12.036  10.406  11.105
84130SOL    HW254288  11.895  10.460  11.100
84131SOL     OW54289   3.297   3.709  14.445
84131SOL    HW154290   3.285   3.632  14.389
84131SOL    HW254291   3.216   3.759  14.433
84132SOL     OW54292   4.662  13.514   1.874
84132SOL    HW154293   4.675  13.609   1.873
84132SOL    HW254294   4.741  13.479   1.832
84133SOL     OW54295  12.211   8.999   6.824
84133SOL    HW154296  12.278   8.933   6.804
84133SOL    HW254297  12.128   8.953   6.812
84134SOL     OW54298   3.727   6.339   7.137
84134SOL    HW154299   3.823   6.340   7.141
84134SOL    HW254300   3.699   6.377   7.220
84135SOL     OW54301  11.174   4.414   7.806
84135SOL    HW154302  11.241   4.392   7.741
84135SOL    HW254303  11.172   4.509   7.808
84136SOL     OW54304   8.448   5.159   5.962
84136SOL    HW154305   8.465   5.189   5.872
84136SOL    HW254306   8.518   5.200   6.013
84137SOL     OW54307  14.536   7.643   6.406
84137SOL    HW154308  14.620   7.601   6.387
84137SOL    HW254309  14.491   7.581   6.464
84138SOL     OW54310  13.531  11.193   3.310
84138SOL    HW154311  13.504  11.284   3.296
84138SOL    HW254312  13.489  11.169   3.393
84139SOL     OW54313   0.802  10.725   5.764
84139SOL    HW154314   0.865  10.732   5.693
84139SOL    HW254315   0.797  10.813   5.801
84140SOL     OW54316   8.615   8.891  10.945
84140SOL    HW154317   8.699   8.932  10.964
84140SOL    HW254318   8.615   8.879  10.850
84141SOL     OW54319   3.645   4.640  13.094
84141SOL    HW154320   3.660   4.597  13.178
84141SOL    HW254321   3.669   4.574  13.029
84142SOL     OW54322   5.346   6.945  11.307
84142SOL    HW154323   5.303   7.001  11.243
84142SOL    HW254324   5.429   6.921  11.267
84143SOL     OW54325  13.185   6.174   1.458
84143SOL    HW154326  13.260   6.130   1.418
84143SOL    HW254327  13.114   6.109   1.454
84144SOL     OW54328   3.542  10.815   4.725
84144SOL    HW154329   3.578  10.734   4.688
84144SOL    HW254330   3.550  10.804   4.820
84145SOL     OW54331  11.731   8.677   9.383
84145SOL    HW154332  11.710   8.726   9.463
84145SOL    HW254333  11.718   8.739   9.312
84146SOL     OW54334  14.101   0.948  13.868
84146SOL    HW154335  14.127   0.856  13.881
84146SOL    HW254336  14.183   0.997  13.878
84147SOL     OW54337   1.821   6.848  11.611
84147SOL    HW154338   1.845   6.937  11.588
84147SOL    HW254339   1.896   6.814  11.659
84148SOL     OW54340   1.027  13.223   8.119
84148SOL    HW154341   1.065  13.311   8.116
84148SOL    HW254342   0.943  13.232   8.074
84149SOL     OW54343  13.727   9.017   8.615
84149SOL    HW154344  13.639   9.040   8.583
84149SOL    HW254345  13.711   8.968   8.695
84150SOL     OW54346   4.384  12.628  13.975
84150SOL    HW154347   4.307  12.573  13.991
84150SOL    HW254348   4.458  12.568  13.980
84151SOL     OW54349  13.471   6.950   8.994
84151SOL    HW154350  13.403   6.887   9.017
84151SOL    HW254351  13.426   7.018   8.944
84152SOL     OW54352   6.907   0.425   9.295
84152SOL    HW154353   6.944   0.490   9.354
84152SOL    HW254354   6.824   0.401   9.336
84153SOL     OW54355  10.580   5.661  13.472
84153SOL    HW154356  10.556   5.753  13.464
84153SOL    HW254357  10.548   5.620  13.392
84154SOL     OW54358  13.061   6.158   0.909
84154SOL    HW154359  13.084   6.065   0.915
84154SOL    HW254360  13.146   6.204   0.909
84155SOL     OW54361  11.928  14.289   4.824
84155SOL    HW154362  12.019  14.265   4.838
84155SOL    HW254363  11.903  14.334   4.904
84156SOL     OW54364  13.773   5.823  13.869
84156SOL    HW154365  13.808   5.909  13.844
84156SOL    HW254366  13.726   5.840  13.951
84157SOL     OW54367  10.980  10.208   6.629
84157SOL    HW154368  10.998  10.277   6.566
84157SOL    HW254369  10.948  10.135   6.577
84158SOL     OW54370  11.823   8.691   7.984
84158SOL    HW154371  11.760   8.692   7.913
84158SOL    HW254372  11.807   8.773   8.031
84159SOL     OW54373  14.182   5.309   6.830
84159SOL    HW154374  14.108   5.349   6.875
84159SOL    HW254375  14.191   5.358   6.749
84160SOL     OW54376  13.691   5.240  11.242
84160SOL    HW154377  13.701   5.266  11.150
84160SOL    HW254378  13.697   5.322  11.291
84161SOL     OW54379   8.891  11.915   9.620
84161SOL    HW154380   8.938  11.832   9.625
84161SOL    HW254381   8.804  11.892   9.586
84162SOL     OW54382   7.524   9.374   7.486
84162SOL    HW154383   7.477   9.365   7.569
84162SOL    HW254384   7.580   9.296   7.481
84163SOL     OW54385   7.084  10.850   3.726
84163SOL    HW154386   7.171  10.891   3.734
84163SOL    HW254387   7.029  10.897   3.788
84164SOL     OW54388   1.425   2.499   4.850
84164SOL    HW154389   1.460   2.410   4.841
84164SOL    HW254390   1.476   2.551   4.788
84165SOL     OW54391  10.524  12.621  10.945
84165SOL    HW154392  10.598  12.668  10.908
84165SOL    HW254393  10.561  12.569  11.016
84166SOL     OW54394   8.503   0.507   2.274
84166SOL    HW154395   8.444   0.578   2.296
84166SOL    HW254396   8.533   0.527   2.185
84167SOL     OW54397  10.704  14.555   9.819
84167SOL    HW154398  10.680  14.550   9.912
84167SOL    HW254399  10.785  14.504   9.813
84168SOL     OW54400   7.821   7.169  10.918
84168SOL    HW154401   7.870   7.225  10.858
84168SOL    HW254402   7.819   7.083  10.876
84169SOL     OW54403   2.147   2.073   6.733
84169SOL    HW154404   2.108   2.134   6.795
84169SOL    HW254405   2.222   2.119   6.696
84170SOL     OW54406  11.916   7.255   5.081
84170SOL    HW154407  11.876   7.337   5.111
84170SOL    HW254408  11.844   7.209   5.036
84171SOL     OW54409   7.854   8.705   5.808
84171SOL    HW154410   7.928   8.663   5.853
84171SOL    HW254411   7.865   8.678   5.716
84172SOL     OW54412   6.715  11.990  12.339
84172SOL    HW154413   6.725  11.905  12.297
84172SOL    HW254414   6.802  12.011  12.371
84173SOL     OW54415  10.559  13.412  12.314
84173SOL    HW154416  10.603  13.463  12.246
84173SOL    HW254417  10.529  13.478  12.377
84174SOL     OW54418  10.946   6.124   5.700
84174SOL    HW154419  11.040   6.139   5.689
84174SOL    HW254420  10.906   6.210   5.684
84175SOL     OW54421  11.559   3.279  12.499
84175SOL    HW154422  11.642   3.243  12.530
84175SOL    HW254423  11.572   3.373  12.499
84176SOL     OW54424  13.396  10.051   0.767
84176SOL    HW154425  13.430   9.990   0.832
84176SOL    HW254426  13.465  10.116   0.757
84177SOL     OW54427   6.156   4.306   5.475
84177SOL    HW154428   6.124   4.391   5.504
84177SOL    HW254429   6.205   4.324   5.395
84178SOL     OW54430  10.005  11.728  12.912
84178SOL    HW154431  10.089  11.775  12.918
84178SOL    HW254432   9.967  11.737  13.000
84179SOL     OW54433  12.195   7.984   3.073
84179SOL    HW154434  12.126   7.947   3.018
84179SOL    HW254435  12.151   8.010   3.153
84180SOL     OW54436   4.647   6.991   2.139
84180SOL    HW154437   4.552   7.002   2.135
84180SOL    HW254438   4.659   6.912   2.192
84181SOL     OW54439   4.673   4.854   7.428
84181SOL    HW154440   4.616   4.797   7.376
84181SOL    HW254441   4.660   4.941   7.391
84182SOL     OW54442  14.216   5.753  11.650
84182SOL    HW154443  14.185   5.820  11.589
84182SOL    HW254444  14.141   5.737  11.708
84183SOL     OW54445  13.346  10.288   4.736
84183SOL    HW154446  13.266  10.325   4.698
84183SOL    HW254447  13.358  10.205   4.690
84184SOL     OW54448   7.386   1.154   2.709
84184SOL    HW154449   7.430   1.145   2.794
84184SOL    HW254450   7.326   1.227   2.721
84185SOL     OW54451   2.412   9.604  14.501
84185SOL    HW154452   2.496   9.590  14.544
84185SOL    HW254453   2.354   9.540  14.542
84186SOL     OW54454  10.092   2.032   7.076
84186SOL    HW154455  10.001   2.008   7.098
84186SOL    HW254456  10.085   2.076   6.991
84187SOL     OW54457   9.520   9.894   2.928
84187SOL    HW154458   9.527   9.855   3.015
84187SOL    HW254459   9.453   9.962   2.937
84188SOL     OW54460  11.225  13.782   0.419
84188SOL    HW154461  11.171  13.861   0.428
84188SOL    HW254462  11.311  13.808   0.451
84189SOL     OW54463   4.964  12.813   3.620
84189SOL    HW154464   4.960  12.813   3.716
84189SOL    HW254465   5.041  12.867   3.600
84190SOL     OW54466   4.885   2.215   5.383
84190SOL    HW154467   4.942   2.263   5.442
84190SOL    HW254468   4.926   2.129   5.374
84191SOL     OW54469   0.145   3.705  14.031
84191SOL    HW154470   0.089   3.772  13.991
84191SOL    HW254471   0.233   3.727  14.002
84192SOL     OW54472  12.332   6.544  10.731
84192SOL    HW154473  12.419   6.573  10.758
84192SOL    HW254474  12.281   6.625  10.724
84193SOL     OW54475   5.853   3.884   3.746
84193SOL    HW154476   5.895   3.798   3.747
84193SOL    HW254477   5.854   3.912   3.838
84194SOL     OW54478  12.824   2.278  11.077
84194SOL    HW154479  12.818   2.374  11.078
84194SOL    HW254480  12.916   2.260  11.100
84195SOL     OW54481  12.107   3.461   2.793
84195SOL    HW154482  12.177   3.500   2.740
84195SOL    HW254483  12.151   3.431   2.873
84196SOL     OW54484  14.411   0.325   6.593
84196SOL    HW154485  14.476   0.390   6.620
84196SOL    HW254486  14.330   0.376   6.581
84197SOL     OW54487   4.633  13.663   4.842
84197SOL    HW154488   4.718  13.619   4.834
84197SOL    HW254489   4.579  13.621   4.775
84198SOL     OW54490  14.600  10.808   2.423
84198SOL    HW154491  14.674  10.865   2.444
84198SOL    HW254492  14.639  10.722   2.410
84199SOL     OW54493  11.453   8.144   8.941
84199SOL    HW154494  11.463   8.135   8.846
84199SOL    HW254495  11.374   8.197   8.952
84200SOL     OW54496  12.385   0.516  14.406
84200SOL    HW154497  12.324   0.538  14.336
84200SOL    HW254498  12.388   0.421  14.407
84201SOL     OW54499   5.410   7.622  13.620
84201SOL    HW154500   5.389   7.715  13.626
84201SOL    HW254501   5.328   7.580  13.593
84202SOL     OW54502   1.873   3.836  10.612
84202SOL    HW154503   1.916   3.788  10.542
84202SOL    HW254504   1.806   3.888  10.568
84203SOL     OW54505   4.232   6.148   4.371
84203SOL    HW154506   4.320   6.111   4.362
84203SOL    HW254507   4.178   6.095   4.313
84204SOL     OW54508   7.767   1.348   4.599
84204SOL    HW154509   7.751   1.279   4.534
84204SOL    HW254510   7.734   1.428   4.558
84205SOL     OW54511   2.318   2.333   1.420
84205SOL    HW154512   2.366   2.257   1.453
84205SOL    HW254513   2.250   2.349   1.486
84206SOL     OW54514  11.021   7.510   5.122
84206SOL    HW154515  11.083   7.445   5.088
84206SOL    HW254516  10.993   7.558   5.044
84207SOL     OW54517  10.320   6.226   1.921
84207SOL    HW154518  10.349   6.301   1.870
84207SOL    HW254519  10.386   6.158   1.903
84208SOL     OW54520   5.233   6.959   1.175
84208SOL    HW154521   5.321   6.971   1.211
84208SOL    HW254522   5.202   7.048   1.156
84209SOL     OW54523   5.653   9.490   3.696
84209SOL    HW154524   5.694   9.487   3.783
84209SOL    HW254525   5.619   9.401   3.683
84210SOL     OW54526  13.509   6.896   7.240
84210SOL    HW154527  13.444   6.826   7.237
84210SOL    HW254528  13.535   6.909   7.149
84211SOL     OW54529   0.489   4.943  14.158
84211SOL    HW154530   0.440   5.006  14.106
84211SOL    HW254531   0.425   4.909  14.222
84212SOL     OW54532   7.620   5.674   5.337
84212SOL    HW154533   7.546   5.617   5.320
84212SOL    HW254534   7.596   5.721   5.418
84213SOL     OW54535   2.409  12.377   5.460
84213SOL    HW154536   2.432  12.413   5.375
84213SOL    HW254537   2.316  12.357   5.454
84214SOL     OW54538   9.245  13.434   6.392
84214SOL    HW154539   9.301  13.435   6.315
84214SOL    HW254540   9.228  13.341   6.409
84215SOL     OW54541  12.142   5.866   3.549
84215SOL    HW154542  12.210   5.798   3.549
84215SOL    HW254543  12.171   5.929   3.615
84216SOL     OW54544   2.143   8.503   7.827
84216SOL    HW154545   2.138   8.593   7.859
84216SOL    HW254546   2.100   8.505   7.742
84217SOL     OW54547   8.979  10.700   8.980
84217SOL    HW154548   9.074  10.718   8.983
84217SOL    HW254549   8.968  10.625   9.038
84218SOL     OW54550   0.109   3.123   7.495
84218SOL    HW154551   0.119   3.218   7.508
84218SOL    HW254552   0.121   3.110   7.401
84219SOL     OW54553   7.718  12.406   9.248
84219SOL    HW154554   7.723  12.336   9.184
84219SOL    HW254555   7.761  12.480   9.205
84220SOL     OW54556   2.217   4.070   5.198
84220SOL    HW154557   2.126   4.054   5.223
84220SOL    HW254558   2.226   4.165   5.199
84221SOL     OW54559  13.002  10.914  10.069
84221SOL    HW154560  12.983  10.872  10.153
84221SOL    HW254561  12.918  10.916  10.023
84222SOL     OW54562   7.738   5.856   9.626
84222SOL    HW154563   7.686   5.809   9.562
84222SOL    HW254564   7.674   5.887   9.691
84223SOL     OW54565   6.507   4.820   4.878
84223SOL    HW154566   6.428   4.854   4.919
84223SOL    HW254567   6.562   4.792   4.952
84224SOL     OW54568  10.278  14.800   2.842
84224SOL    HW154569  10.318  14.716   2.865
84224SOL    HW254570  10.190  14.795   2.880
84225SOL     OW54571   5.680   3.717  14.303
84225SOL    HW154572   5.613   3.673  14.250
84225SOL    HW254573   5.754   3.728  14.243
84226SOL     OW54574   6.498   8.290   3.536
84226SOL    HW154575   6.543   8.205   3.541
84226SOL    HW254576   6.452   8.297   3.619
84227SOL     OW54577   5.375   6.673  13.876
84227SOL    HW154578   5.306   6.707  13.819
84227SOL    HW254579   5.422   6.751  13.907
84228SOL     OW54580   6.052   9.241   5.877
84228SOL    HW154581   6.020   9.234   5.787
84228SOL    HW254582   6.130   9.297   5.870
84229SOL     OW54583   9.968  10.319  11.883
84229SOL    HW154584   9.879  10.342  11.909
84229SOL    HW254585  10.003  10.399  11.843
84230SOL     OW54586   3.971   5.463   7.570
84230SOL    HW154587   4.031   5.526   7.610
84230SOL    HW254588   3.885   5.485   7.607
84231SOL     OW54589  13.759   3.902  10.817
84231SOL    HW154590  13.689   3.853  10.776
84231SOL    HW254591  13.835   3.844  10.814
84232SOL     OW54592  14.853   8.439   8.990
84232SOL    HW154593  14.862   8.351   8.954
84232SOL    HW254594  14.867   8.497   8.915
84233SOL     OW54595   3.676   4.403  10.913
84233SOL    HW154596   3.666   4.315  10.875
84233SOL    HW254597   3.638   4.395  11.001
84234SOL     OW54598   1.845  12.743  11.186
84234SOL    HW154599   1.836  12.692  11.105
84234SOL    HW254600   1.900  12.688  11.242
84235SOL     OW54601  13.116   4.043   2.936
84235SOL    HW154602  13.135   3.951   2.916
84235SOL    HW254603  13.180   4.067   3.004
84236SOL     OW54604  11.716   2.447  11.582
84236SOL    HW154605  11.743   2.371  11.633
84236SOL    HW254606  11.629   2.469  11.617
84237SOL     OW54607  12.536   5.788  14.379
84237SOL    HW154608  12.463   5.772  14.319
84237SOL    HW254609  12.613   5.756  14.331
84238SOL     OW54610   9.055  13.479   9.359
84238SOL    HW154611   9.070  13.497   9.452
84238SOL    HW254612   9.079  13.560   9.314
84239SOL     OW54613   2.528   7.667   3.155
84239SOL    HW154614   2.440   7.693   3.182
84239SOL    HW254615   2.554   7.602   3.220
84240SOL     OW54616  14.424   1.723   3.116
84240SOL    HW154617  14.439   1.631   3.092
84240SOL    HW254618  14.453   1.729   3.206
84241SOL     OW54619   3.362   9.246  10.381
84241SOL    HW154620   3.296   9.242  10.450
84241SOL    HW254621   3.403   9.160  10.382
84242SOL     OW54622   3.464  10.902   9.190
84242SOL    HW154623   3.501  10.929   9.274
84242SOL    HW254624   3.471  10.807   9.190
84243SOL     OW54625   2.031  13.207   2.937
84243SOL    HW154626   1.948  13.164   2.960
84243SOL    HW254627   2.006  13.297   2.916
84244SOL     OW54628   7.986   2.395  12.372
84244SOL    HW154629   7.962   2.358  12.287
84244SOL    HW254630   7.931   2.473  12.381
84245SOL     OW54631   7.840  13.033   2.209
84245SOL    HW154632   7.819  12.942   2.187
84245SOL    HW254633   7.917  13.027   2.266
84246SOL     OW54634   9.489  14.644   6.405
84246SOL    HW154635   9.525  14.583   6.469
84246SOL    HW254636   9.467  14.589   6.329
84247SOL     OW54637   4.967   5.414   5.073
84247SOL    HW154638   5.015   5.419   4.990
84247SOL    HW254639   4.877   5.398   5.048
84248SOL     OW54640   1.123   8.076   1.533
84248SOL    HW154641   1.052   8.137   1.553
84248SOL    HW254642   1.137   8.086   1.439
84249SOL     OW54643  13.570  13.178  10.071
84249SOL    HW154644  13.613  13.093  10.071
84249SOL    HW254645  13.639  13.240  10.043
84250SOL     OW54646   3.742   7.669  12.546
84250SOL    HW154647   3.754   7.763  12.557
84250SOL    HW254648   3.656   7.661  12.503
84251SOL     OW54649  12.476  10.039  14.163
84251SOL    HW154650  12.498  10.100  14.234
84251SOL    HW254651  12.543   9.971  14.168
84252SOL     OW54652  14.739   1.790   6.196
84252SOL    HW154653  14.730   1.748   6.110
84252SOL    HW254654  14.677   1.863   6.193
84253SOL     OW54655   0.882   7.244   3.317
84253SOL    HW154656   0.874   7.330   3.359
84253SOL    HW254657   0.802   7.198   3.342
84254SOL     OW54658  10.230   6.758   5.985
84254SOL    HW154659  10.254   6.850   6.000
84254SOL    HW254660  10.165   6.761   5.915
84255SOL     OW54661   5.148  13.013   8.398
84255SOL    HW154662   5.237  13.045   8.414
84255SOL    HW254663   5.150  12.922   8.428
84256SOL     OW54664   6.765   2.765   0.957
84256SOL    HW154665   6.768   2.854   0.923
84256SOL    HW254666   6.814   2.769   1.040
84257SOL     OW54667   6.037   8.441   7.170
84257SOL    HW154668   6.112   8.406   7.123
84257SOL    HW254669   6.023   8.528   7.134
84258SOL     OW54670   3.089   3.081  14.082
84258SOL    HW154671   3.089   3.012  14.015
84258SOL    HW254672   3.024   3.144  14.053
84259SOL     OW54673   2.667  12.282  12.808
84259SOL    HW154674   2.586  12.234  12.794
84259SOL    HW254675   2.736  12.216  12.800
84260SOL     OW54676   9.653   3.374  14.481
84260SOL    HW154677   9.624   3.452  14.527
84260SOL    HW254678   9.616   3.381  14.393
84261SOL     OW54679   3.792   1.227   2.953
84261SOL    HW154680   3.701   1.259   2.957
84261SOL    HW254681   3.795   1.155   3.016
84262SOL     OW54682   1.630   9.085   2.015
84262SOL    HW154683   1.688   9.020   1.976
84262SOL    HW254684   1.659   9.093   2.105
84263SOL     OW54685   2.249   7.234   9.664
84263SOL    HW154686   2.287   7.146   9.669
84263SOL    HW254687   2.159   7.219   9.632
84264SOL     OW54688   5.429  10.262   7.549
84264SOL    HW154689   5.491  10.314   7.499
84264SOL    HW254690   5.476  10.182   7.572
84265SOL     OW54691   4.735   6.202  13.401
84265SOL    HW154692   4.659   6.231  13.351
84265SOL    HW254693   4.735   6.107  13.393
84266SOL     OW54694   2.662   6.312   5.965
84266SOL    HW154695   2.600   6.328   6.036
84266SOL    HW254696   2.692   6.222   5.979
84267SOL     OW54697  11.368  14.021   6.534
84267SOL    HW154698  11.357  13.981   6.620
84267SOL    HW254699  11.414  14.103   6.551
84268SOL     OW54700   8.263   4.334   2.632
84268SOL    HW154701   8.288   4.418   2.595
84268SOL    HW254702   8.216   4.357   2.713
84269SOL     OW54703  13.130   5.411   7.539
84269SOL    HW154704  13.051   5.361   7.517
84269SOL    HW254705  13.199   5.373   7.485
84270SOL     OW54706   5.726   3.470  12.056
84270SOL    HW154707   5.765   3.399  12.106
84270SOL    HW254708   5.732   3.441  11.965
84271SOL     OW54709   5.651   6.820   9.357
84271SOL    HW154710   5.682   6.742   9.403
84271SOL    HW254711   5.626   6.880   9.428
84272SOL     OW54712  10.914  12.397   3.286
84272SOL    HW154713  10.838  12.440   3.324
84272SOL    HW254714  10.987  12.425   3.342
84273SOL     OW54715   1.398  13.799  10.434
84273SOL    HW154716   1.316  13.750  10.432
84273SOL    HW254717   1.435  13.788  10.346
84274SOL     OW54718   6.755   5.226   7.918
84274SOL    HW154719   6.777   5.288   7.987
84274SOL    HW254720   6.768   5.140   7.958
84275SOL     OW54721   8.246  10.695   3.510
84275SOL    HW154722   8.299  10.625   3.548
84275SOL    HW254723   8.156  10.663   3.518
84276SOL     OW54724   4.559   4.246  13.374
84276SOL    HW154725   4.610   4.217  13.298
84276SOL    HW254726   4.474   4.204  13.362
84277SOL     OW54727  13.468   0.203   2.978
84277SOL    HW154728  13.485   0.266   3.048
84277SOL    HW254729  13.510   0.122   3.006
84278SOL     OW54730  14.306   2.348  12.591
84278SOL    HW154731  14.284   2.415  12.526
84278SOL    HW254732  14.280   2.266  12.549
84279SOL     OW54733  14.230  11.605   8.596
84279SOL    HW154734  14.169  11.533   8.612
84279SOL    HW254735  14.190  11.680   8.641
84280SOL     OW54736   6.864   8.621  11.118
84280SOL    HW154737   6.952   8.658  11.114
84280SOL    HW254738   6.825   8.641  11.033
84281SOL     OW54739  13.295  13.150  12.639
84281SOL    HW154740  13.334  13.154  12.726
84281SOL    HW254741  13.228  13.081  12.646
84282SOL     OW54742  14.406  10.748   3.160
84282SOL    HW154743  14.494  10.785   3.149
84282SOL    HW254744  14.350  10.806   3.108
84283SOL     OW54745   5.686   1.499   1.593
84283SOL    HW154746   5.693   1.593   1.605
84283SOL    HW254747   5.719   1.484   1.504
84284SOL     OW54748   7.976   4.533   8.832
84284SOL    HW154749   7.894   4.539   8.784
84284SOL    HW254750   7.951   4.506   8.920
84285SOL     OW54751   8.483   8.807   7.747
84285SOL    HW154752   8.508   8.781   7.836
84285SOL    HW254753   8.565   8.804   7.698
84286SOL     OW54754   8.070  13.188   1.566
84286SOL    HW154755   8.155  13.165   1.605
84286SOL    HW254756   8.033  13.104   1.541
84287SOL     OW54757   4.401  10.168  11.265
84287SOL    HW154758   4.476  10.225  11.283
84287SOL    HW254759   4.340  10.185  11.336
84288SOL     OW54760   5.154   0.903   5.609
84288SOL    HW154761   5.192   0.834   5.556
84288SOL    HW254762   5.207   0.905   5.689
84289SOL     OW54763   6.890   4.193   0.435
84289SOL    HW154764   6.933   4.261   0.384
84289SOL    HW254765   6.923   4.111   0.397
84290SOL     OW54766  14.294  10.152   0.541
84290SOL    HW154767  14.221  10.141   0.480
84290SOL    HW254768  14.333  10.065   0.548
84291SOL     OW54769   2.875   9.451   5.329
84291SOL    HW154770   2.888   9.487   5.417
84291SOL    HW254771   2.930   9.373   5.327
84292SOL     OW54772   2.969   7.364   2.351
84292SOL    HW154773   3.030   7.384   2.421
84292SOL    HW254774   2.991   7.425   2.281
84293SOL     OW54775  11.075   6.607  11.595
84293SOL    HW154776  11.138   6.613  11.666
84293SOL    HW254777  11.009   6.546  11.626
84294SOL     OW54778   6.277   4.816   3.038
84294SOL    HW154779   6.257   4.769   3.118
84294SOL    HW254780   6.224   4.895   3.042
84295SOL     OW54781   5.139   7.239   1.481
84295SOL    HW154782   5.173   7.289   1.406
84295SOL    HW254783   5.067   7.187   1.444
84296SOL     OW54784   0.104   7.052   6.039
84296SOL    HW154785   0.115   7.007   6.122
84296SOL    HW254786   0.019   7.096   6.046
84297SOL     OW54787  12.411   7.231  13.745
84297SOL    HW154788  12.321   7.199  13.752
84297SOL    HW254789  12.405   7.302  13.681
84298SOL     OW54790   4.672  14.128  10.896
84298SOL    HW154791   4.691  14.186  10.821
84298SOL    HW254792   4.578  14.110  10.889
84299SOL     OW54793   4.964   5.360  13.717
84299SOL    HW154794   5.043   5.395  13.677
84299SOL    HW254795   4.923   5.436  13.759
84300SOL     OW54796   6.026   3.905  10.452
84300SOL    HW154797   6.002   3.908  10.545
84300SOL    HW254798   5.951   3.942  10.407
84301SOL     OW54799   7.018   0.638   9.449
84301SOL    HW154800   7.029   0.615   9.541
84301SOL    HW254801   6.966   0.718   9.449
84302SOL     OW54802   7.282   0.441  11.259
84302SOL    HW154803   7.191   0.468  11.249
84302SOL    HW254804   7.278   0.359  11.308
84303SOL     OW54805   5.664  11.796   5.979
84303SOL    HW154806   5.665  11.814   6.073
84303SOL    HW254807   5.751  11.761   5.960
84304SOL     OW54808   7.654   7.386   6.380
84304SOL    HW154809   7.605   7.372   6.299
84304SOL    HW254810   7.685   7.476   6.374
84305SOL     OW54811  12.951   0.335  13.409
84305SOL    HW154812  12.926   0.355  13.319
84305SOL    HW254813  13.021   0.396  13.429
84306SOL     OW54814  11.225   4.685  13.544
84306SOL    HW154815  11.164   4.736  13.491
84306SOL    HW254816  11.293   4.658  13.482
84307SOL     OW54817   1.868   4.065  13.655
84307SOL    HW154818   1.960   4.070  13.628
84307SOL    HW254819   1.827   4.141  13.614
84308SOL     OW54820  13.445  12.757   9.676
84308SOL    HW154821  13.491  12.802   9.747
84308SOL    HW254822  13.442  12.666   9.705
84309SOL     OW54823  12.108  12.206   9.469
84309SOL    HW154824  12.146  12.121   9.444
84309SOL    HW254825  12.096  12.252   9.386
84310SOL     OW54826   1.018  14.475   3.485
84310SOL    HW154827   0.960  14.505   3.556
84310SOL    HW254828   0.972  14.400   3.447
84311SOL     OW54829   2.453   0.898  10.829
84311SOL    HW154830   2.378   0.840  10.840
84311SOL    HW254831   2.480   0.919  10.919
84312SOL     OW54832  11.303   4.513  14.263
84312SOL    HW154833  11.359   4.573  14.213
84312SOL    HW254834  11.229   4.495  14.206
84313SOL     OW54835  10.155   5.111  11.930
84313SOL    HW154836  10.190   5.198  11.912
84313SOL    HW254837  10.068   5.111  11.890
84314SOL     OW54838   6.334  14.716   4.381
84314SOL    HW154839   6.389  14.750   4.311
84314SOL    HW254840   6.380  14.741   4.461
84315SOL     OW54841  10.443   8.748   4.339
84315SOL    HW154842  10.373   8.812   4.349
84315SOL    HW254843  10.404   8.675   4.292
84316SOL     OW54844  10.544  10.894  14.141
84316SOL    HW154845  10.563  10.923  14.230
84316SOL    HW254846  10.487  10.962  14.105
84317SOL     OW54847  12.907  14.309   4.623
84317SOL    HW154848  12.856  14.376   4.668
84317SOL    HW254849  12.993  14.313   4.665
84318SOL     OW54850   9.538   1.372   0.469
84318SOL    HW154851   9.477   1.299   0.474
84318SOL    HW254852   9.612   1.346   0.523
84319SOL     OW54853   1.805   5.193   4.821
84319SOL    HW154854   1.740   5.134   4.858
84319SOL    HW254855   1.759   5.239   4.750
84320SOL     OW54856  10.827  13.110   1.632
84320SOL    HW154857  10.743  13.072   1.656
84320SOL    HW254858  10.862  13.052   1.564
84321SOL     OW54859   3.737   0.955   4.914
84321SOL    HW154860   3.709   0.966   5.004
84321SOL    HW254861   3.798   0.881   4.916
84322SOL     OW54862   3.301   7.936  10.480
84322SOL    HW154863   3.208   7.928  10.460
84322SOL    HW254864   3.345   7.899  10.404
84323SOL     OW54865  10.150   7.181   6.093
84323SOL    HW154866  10.091   7.145   6.159
84323SOL    HW254867  10.092   7.209   6.022
84324SOL     OW54868   1.869  14.818   0.641
84324SOL    HW154869   1.869  14.800   0.735
84324SOL    HW254870   1.884  14.732   0.601
84325SOL     OW54871  11.745   2.318   8.827
84325SOL    HW154872  11.734   2.271   8.909
84325SOL    HW254873  11.663   2.303   8.779
84326SOL     OW54874   7.483   8.358   8.818
84326SOL    HW154875   7.491   8.288   8.882
84326SOL    HW254876   7.568   8.402   8.820
84327SOL     OW54877   2.728  10.238   7.897
84327SOL    HW154878   2.758  10.206   7.982
84327SOL    HW254879   2.654  10.296   7.918
84328SOL     OW54880  12.426   7.987   5.973
84328SOL    HW154881  12.349   7.941   5.939
84328SOL    HW254882  12.402   8.080   5.968
84329SOL     OW54883   7.240   2.243  11.480
84329SOL    HW154884   7.302   2.279  11.417
84329SOL    HW254885   7.160   2.295  11.467
84330SOL     OW54886   0.656   9.412  13.858
84330SOL    HW154887   0.700   9.450  13.781
84330SOL    HW254888   0.569   9.388  13.826
84331SOL     OW54889   6.625   3.111   9.109
84331SOL    HW154890   6.645   3.112   9.015
84331SOL    HW254891   6.645   3.022   9.137
84332SOL     OW54892   6.301   2.976   0.670
84332SOL    HW154893   6.222   3.029   0.656
84332SOL    HW254894   6.373   3.037   0.658
84333SOL     OW54895   7.408   6.940  12.832
84333SOL    HW154896   7.348   6.899  12.769
84333SOL    HW254897   7.397   6.889  12.912
84334SOL     OW54898   8.595  12.061  13.892
84334SOL    HW154899   8.574  12.067  13.985
84334SOL    HW254900   8.516  12.025  13.852
84335SOL     OW54901   8.542   7.434  14.188
84335SOL    HW154902   8.565   7.525  14.173
84335SOL    HW254903   8.490   7.435  14.269
84336SOL     OW54904  12.506   3.684   4.907
84336SOL    HW154905  12.553   3.653   4.830
84336SOL    HW254906  12.446   3.750   4.873
84337SOL     OW54907   7.325   8.153   4.993
84337SOL    HW154908   7.325   8.248   5.002
84337SOL    HW254909   7.356   8.138   4.903
84338SOL     OW54910   5.264   9.128   3.259
84338SOL    HW154911   5.250   9.055   3.199
84338SOL    HW254912   5.306   9.195   3.205
84339SOL     OW54913  12.178   1.926  12.860
84339SOL    HW154914  12.198   1.841  12.819
84339SOL    HW254915  12.191   1.990  12.790
84340SOL     OW54916   3.024   8.789   5.088
84340SOL    HW154917   3.009   8.730   5.162
84340SOL    HW254918   2.978   8.748   5.015
84341SOL     OW54919  11.640   8.045   2.157
84341SOL    HW154920  11.677   7.961   2.185
84341SOL    HW254921  11.646   8.044   2.061
84342SOL     OW54922   3.834  13.165   6.753
84342SOL    HW154923   3.745  13.133   6.738
84342SOL    HW254924   3.848  13.154   6.847
84343SOL     OW54925  10.416   3.124  14.425
84343SOL    HW154926  10.402   3.217  14.409
84343SOL    HW254927  10.511   3.113  14.420
84344SOL     OW54928   9.488  13.681  14.267
84344SOL    HW154929   9.580  13.655  14.259
84344SOL    HW254930   9.486  13.748  14.334
84345SOL     OW54931   2.413   2.711   2.221
84345SOL    HW154932   2.372   2.796   2.204
84345SOL    HW254933   2.344   2.648   2.201
84346SOL     OW54934  10.633   9.560   5.578
84346SOL    HW154935  10.676   9.644   5.595
84346SOL    HW254936  10.687   9.520   5.510
84347SOL     OW54937   7.586   7.970  10.013
84347SOL    HW154938   7.584   7.981   9.918
84347SOL    HW254939   7.636   7.890  10.027
84348SOL     OW54940   3.359   8.032   0.662
84348SOL    HW154941   3.312   7.978   0.726
84348SOL    HW254942   3.340   7.992   0.578
84349SOL     OW54943   9.739  13.780  11.925
84349SOL    HW154944   9.647  13.807  11.922
84349SOL    HW254945   9.759  13.773  12.018
84350SOL     OW54946  11.904  10.749   7.789
84350SOL    HW154947  11.916  10.663   7.830
84350SOL    HW254948  11.951  10.742   7.705
84351SOL     OW54949  10.778   2.677   9.104
84351SOL    HW154950  10.805   2.769   9.107
84351SOL    HW254951  10.748   2.664   9.014
84352SOL     OW54952  11.964   0.153  11.325
84352SOL    HW154953  12.040   0.170  11.269
84352SOL    HW254954  11.998   0.100  11.396
84353SOL     OW54955  11.853   1.592   7.955
84353SOL    HW154956  11.858   1.517   8.015
84353SOL    HW254957  11.917   1.654   7.989
84354SOL     OW54958  14.132  12.729   0.159
84354SOL    HW154959  14.114  12.665   0.090
84354SOL    HW254960  14.125  12.814   0.115
84355SOL     OW54961   1.703  10.379   7.953
84355SOL    HW154962   1.776  10.366   7.892
84355SOL    HW254963   1.716  10.313   8.021
84356SOL     OW54964   9.946   7.185   1.372
84356SOL    HW154965   9.981   7.185   1.461
84356SOL    HW254966  10.016   7.149   1.318
84357SOL     OW54967  11.351   6.235   9.498
84357SOL    HW154968  11.380   6.288   9.423
84357SOL    HW254969  11.366   6.145   9.471
84358SOL     OW54970  13.771   5.576   8.407
84358SOL    HW154971  13.690   5.543   8.369
84358SOL    HW254972  13.829   5.500   8.410
84359SOL     OW54973   1.852  14.020  13.749
84359SOL    HW154974   1.856  14.066  13.665
84359SOL    HW254975   1.760  13.992  13.756
84360SOL     OW54976   4.604   3.979   2.526
84360SOL    HW154977   4.658   3.943   2.596
84360SOL    HW254978   4.572   4.062   2.561
84361SOL     OW54979   3.683  11.220  12.766
84361SOL    HW154980   3.737  11.261  12.697
84361SOL    HW254981   3.609  11.280  12.777
84362SOL     OW54982  12.573   5.457   8.165
84362SOL    HW154983  12.624   5.537   8.177
84362SOL    HW254984  12.639   5.387   8.164
84363SOL     OW54985  13.604  12.980   6.404
84363SOL    HW154986  13.611  13.043   6.474
84363SOL    HW254987  13.693  12.972   6.369
84364SOL     OW54988  14.283  13.368  13.088
84364SOL    HW154989  14.198  13.411  13.080
84364SOL    HW254990  14.267  13.278  13.062
84365SOL     OW54991  10.163  11.873   9.195
84365SOL    HW154992  10.202  11.909   9.275
84365SOL    HW254993  10.148  11.780   9.215
84366SOL     OW54994   2.540   6.937   4.216
84366SOL    HW154995   2.477   6.925   4.287
84366SOL    HW254996   2.487   6.959   4.139
84367SOL     OW54997   1.333   0.816  11.278
84367SOL    HW154998   1.411   0.762  11.266
84367SOL    HW254999   1.362   0.888  11.334
84368SOL     OW55000   0.571  13.190  13.731
84368SOL    HW155001   0.595  13.238  13.651
84368SOL    HW255002   0.581  13.097  13.707
84369SOL     OW55003   7.368   5.254   0.708
84369SOL    HW155004   7.429   5.246   0.781
84369SOL    HW255005   7.290   5.206   0.736
84370SOL     OW55006   6.326   5.888   9.904
84370SOL    HW155007   6.370   5.897   9.819
84370SOL    HW255008   6.249   5.944   9.898
84371SOL     OW55009   6.962  10.297  12.411
84371SOL    HW155010   6.973  10.239  12.337
84371SOL    HW255011   6.889  10.355  12.387
84372SOL     OW55012  11.009  13.837   0.195
84372SOL    HW155013  11.087  13.881   0.162
84372SOL    HW255014  10.988  13.882   0.277
84373SOL     OW55015   7.359   9.589  12.806
84373SOL    HW155016   7.432   9.555  12.857
84373SOL    HW255017   7.373   9.684  12.804
84374SOL     OW55018  11.149   3.206  10.167
84374SOL    HW155019  11.196   3.274  10.120
84374SOL    HW255020  11.076   3.252  10.210
84375SOL     OW55021  10.791  10.735  12.095
84375SOL    HW155022  10.842  10.740  12.177
84375SOL    HW255023  10.769  10.642  12.088
84376SOL     OW55024  14.387   5.856   5.882
84376SOL    HW155025  14.448   5.928   5.896
84376SOL    HW255026  14.328   5.860   5.957
84377SOL     OW55027  14.658   4.408   3.333
84377SOL    HW155028  14.687   4.317   3.327
84377SOL    HW255029  14.562   4.402   3.334
84378SOL     OW55030  12.046   0.334   3.861
84378SOL    HW155031  12.057   0.429   3.866
84378SOL    HW255032  12.135   0.300   3.852
84379SOL     OW55033   8.485  14.292   4.133
84379SOL    HW155034   8.536  14.241   4.197
84379SOL    HW255035   8.506  14.251   4.049
84380SOL     OW55036  10.478   0.695  11.116
84380SOL    HW155037  10.524   0.768  11.074
84380SOL    HW255038  10.529   0.678  11.195
84381SOL     OW55039   2.022   7.766   9.201
84381SOL    HW155040   1.933   7.782   9.170
84381SOL    HW255041   2.039   7.675   9.178
84382SOL     OW55042   3.164  13.148   3.652
84382SOL    HW155043   3.085  13.144   3.598
84382SOL    HW255044   3.155  13.075   3.712
84383SOL     OW55045  11.629   4.954   4.477
84383SOL    HW155046  11.541   4.915   4.481
84383SOL    HW255047  11.635   4.989   4.388
84384SOL     OW55048  10.902   0.029  12.862
84384SOL    HW155049  10.839  14.859  12.915
84384SOL    HW255050  10.975   0.045  12.922
84385SOL     OW55051   0.050  14.568   1.015
84385SOL    HW155052   0.109  14.644   1.010
84385SOL    HW255053   0.019  14.556   0.926
84386SOL     OW55054   5.009   5.223  12.487
84386SOL    HW155055   4.914   5.226  12.476
84386SOL    HW255056   5.044   5.232  12.398
84387SOL     OW55057   2.496   3.176   4.062
84387SOL    HW155058   2.525   3.085   4.065
84387SOL    HW255059   2.558   3.219   4.002
84388SOL     OW55060   3.979  11.059   0.067
84388SOL    HW155061   3.976  10.965   0.047
84388SOL    HW255062   3.895  11.093   0.037
84389SOL     OW55063   6.918   8.074  11.183
84389SOL    HW155064   6.843   8.020  11.160
84389SOL    HW255065   6.890   8.164  11.162
84390SOL     OW55066   1.535  14.206   7.942
84390SOL    HW155067   1.526  14.287   7.992
84390SOL    HW255068   1.495  14.225   7.858
84391SOL     OW55069   5.083  13.419   9.216
84391SOL    HW155070   5.043  13.336   9.190
84391SOL    HW255071   5.012  13.469   9.256
84392SOL     OW55072   6.423  14.603   7.380
84392SOL    HW155073   6.487  14.557   7.324
84392SOL    HW255074   6.441  14.571   7.468
84393SOL     OW55075   3.800   7.747  13.182
84393SOL    HW155076   3.765   7.717  13.266
84393SOL    HW255077   3.734   7.808  13.149
84394SOL     OW55078   0.569  13.137   9.958
84394SOL    HW155079   0.558  13.135  10.053
84394SOL    HW255080   0.655  13.097   9.943
84395SOL     OW55081   1.444   1.627   7.190
84395SOL    HW155082   1.439   1.660   7.100
84395SOL    HW255083   1.362   1.655   7.230
84396SOL     OW55084  13.668   8.210   4.244
84396SOL    HW155085  13.656   8.286   4.301
84396SOL    HW255086  13.601   8.148   4.273
84397SOL     OW55087   9.665   0.865   0.593
84397SOL    HW155088   9.570   0.862   0.584
84397SOL    HW255089   9.687   0.790   0.648
84398SOL     OW55090  10.237  13.516  11.294
84398SOL    HW155091  10.247  13.580  11.223
84398SOL    HW255092  10.173  13.453  11.261
84399SOL     OW55093   1.149   6.839  13.181
84399SOL    HW155094   1.158   6.935  13.183
84399SOL    HW255095   1.228   6.807  13.224
84400SOL     OW55096  11.027   6.815   9.294
84400SOL    HW155097  10.960   6.855   9.349
84400SOL    HW255098  11.009   6.849   9.206
84401SOL     OW55099   8.526  13.656   2.285
84401SOL    HW155100   8.564  13.721   2.344
84401SOL    HW255101   8.569  13.672   2.201
84402SOL     OW55102   9.104   1.249   6.853
84402SOL    HW155103   9.078   1.222   6.941
84402SOL    HW255104   9.198   1.267   6.860
84403SOL     OW55105   3.011   7.758   4.273
84403SOL    HW155106   3.053   7.832   4.229
84403SOL    HW255107   2.932   7.740   4.221
84404SOL     OW55108   0.733   2.952  11.618
84404SOL    HW155109   0.690   2.980  11.699
84404SOL    HW255110   0.827   2.956  11.638
84405SOL     OW55111  11.009   4.767   3.433
84405SOL    HW155112  11.088   4.751   3.382
84405SOL    HW255113  11.031   4.842   3.489
84406SOL     OW55114   2.823  10.360   8.966
84406SOL    HW155115   2.739  10.370   8.923
84406SOL    HW255116   2.882  10.329   8.898
84407SOL     OW55117  10.570   6.586  13.852
84407SOL    HW155118  10.651   6.546  13.884
84407SOL    HW255119  10.584   6.680  13.862
84408SOL     OW55120   7.157   3.749   6.911
84408SOL    HW155121   7.240   3.748   6.862
84408SOL    HW255122   7.121   3.836   6.896
84409SOL     OW55123   2.716   7.352  13.419
84409SOL    HW155124   2.638   7.406  13.427
84409SOL    HW255125   2.685   7.262  13.436
84410SOL     OW55126   0.608  11.417  14.867
84410SOL    HW155127   0.647  11.459   0.064
84410SOL    HW255128   0.624  11.324  14.879
84411SOL     OW55129   6.982   0.808   3.643
84411SOL    HW155130   7.002   0.763   3.561
84411SOL    HW255131   6.932   0.885   3.616
84412SOL     OW55132   5.382   5.414   2.168
84412SOL    HW155133   5.428   5.412   2.252
84412SOL    HW255134   5.340   5.500   2.165
84413SOL     OW55135   1.447   2.432  14.657
84413SOL    HW155136   1.445   2.428  14.753
84413SOL    HW255137   1.407   2.516  14.636
84414SOL     OW55138   9.246   0.592   7.429
84414SOL    HW155139   9.234   0.505   7.390
84414SOL    HW255140   9.194   0.651   7.374
84415SOL     OW55141   4.990   2.852   6.126
84415SOL    HW155142   4.977   2.814   6.213
84415SOL    HW255143   4.959   2.786   6.065
84416SOL     OW55144  10.586  10.745   2.028
84416SOL    HW155145  10.609  10.659   2.063
84416SOL    HW255146  10.496  10.759   2.056
84417SOL     OW55147  12.986   7.580   4.065
84417SOL    HW155148  12.912   7.639   4.047
84417SOL    HW255149  12.987   7.520   3.990
84418SOL     OW55150   4.482  12.206   7.341
84418SOL    HW155151   4.453  12.181   7.428
84418SOL    HW255152   4.546  12.276   7.356
84419SOL     OW55153   3.245   6.418  13.037
84419SOL    HW155154   3.165   6.384  13.078
84419SOL    HW255155   3.250   6.370  12.954
84420SOL     OW55156  11.652  13.769  13.790
84420SOL    HW155157  11.602  13.688  13.789
84420SOL    HW255158  11.657  13.795  13.698
84421SOL     OW55159   5.655  13.909   3.028
84421SOL    HW155160   5.746  13.924   3.052
84421SOL    HW255161   5.619  13.997   3.012
84422SOL     OW55162   9.809  13.261   2.983
84422SOL    HW155163   9.768  13.334   2.936
84422SOL    HW255164   9.808  13.288   3.075
84423SOL     OW55165   3.418   4.850  12.051
84423SOL    HW155166   3.342   4.799  12.022
84423SOL    HW255167   3.456   4.798  12.122
84424SOL     OW55168   0.518   9.679   7.303
84424SOL    HW155169   0.559   9.634   7.229
84424SOL    HW255170   0.478   9.608   7.354
84425SOL     OW55171  10.260  12.808  14.309
84425SOL    HW155172  10.326  12.841  14.370
84425SOL    HW255173  10.305  12.804  14.224
84426SOL     OW55174   1.219   7.233   9.010
84426SOL    HW155175   1.206   7.155   8.955
84426SOL    HW255176   1.277   7.289   8.959
84427SOL     OW55177  10.212   1.333   9.457
84427SOL    HW155178  10.259   1.407   9.495
84427SOL    HW255179  10.202   1.355   9.365
84428SOL     OW55180   8.726  11.020  13.937
84428SOL    HW155181   8.794  11.029  13.871
84428SOL    HW255182   8.644  11.037  13.890
84429SOL     OW55183  12.267  14.554   4.365
84429SOL    HW155184  12.343  14.598   4.326
84429SOL    HW255185  12.303  14.477   4.408
84430SOL     OW55186   4.850  12.541  14.364
84430SOL    HW155187   4.846  12.616  14.306
84430SOL    HW255188   4.874  12.468  14.307
84431SOL     OW55189   8.468   4.010   2.106
84431SOL    HW155190   8.506   3.994   2.192
84431SOL    HW255191   8.514   4.087   2.073
84432SOL     OW55192   5.976   7.067  11.239
84432SOL    HW155193   5.940   7.103  11.320
84432SOL    HW255194   6.038   7.134  11.209
84433SOL     OW55195  11.268   4.154   7.422
84433SOL    HW155196  11.333   4.138   7.353
84433SOL    HW255197  11.316   4.201   7.490
84434SOL     OW55198   7.013   8.933   5.935
84434SOL    HW155199   7.089   8.918   5.992
84434SOL    HW255200   7.038   9.009   5.882
84435SOL     OW55201   0.860   6.873   8.765
84435SOL    HW155202   0.834   6.801   8.708
84435SOL    HW255203   0.920   6.833   8.829
84436SOL     OW55204   5.105   1.741  13.289
84436SOL    HW155205   5.051   1.804  13.338
84436SOL    HW255206   5.044   1.701  13.227
84437SOL     OW55207  14.196   4.776  11.509
84437SOL    HW155208  14.111   4.817  11.522
84437SOL    HW255209  14.230   4.813  11.428
84438SOL     OW55210   3.653   7.955   0.729
84438SOL    HW155211   3.577   8.008   0.705
84438SOL    HW255212   3.621   7.865   0.729
84439SOL     OW55213   4.974   1.482  12.143
84439SOL    HW155214   4.951   1.534  12.065
84439SOL    HW255215   5.054   1.522  12.175
84440SOL     OW55216   5.756  11.889   2.683
84440SOL    HW155217   5.688  11.955   2.673
84440SOL    HW255218   5.830  11.922   2.631
84441SOL     OW55219   1.705   3.778  10.204
84441SOL    HW155220   1.646   3.810  10.135
84441SOL    HW255221   1.770   3.848  10.214
84442SOL     OW55222  13.905   8.066  11.696
84442SOL    HW155223  13.840   8.007  11.657
84442SOL    HW255224  13.955   8.100  11.622
84443SOL     OW55225  14.383  12.947   5.859
84443SOL    HW155226  14.345  12.976   5.776
84443SOL    HW255227  14.462  12.899   5.834
84444SOL     OW55228   0.406   3.059  14.849
84444SOL    HW155229   0.501   3.055  14.845
84444SOL    HW255230   0.387   3.083   0.060
84445SOL     OW55231   4.650   0.008  13.342
84445SOL    HW155232   4.557   0.028  13.333
84445SOL    HW255233   4.661  14.862  13.433
84446SOL     OW55234   4.552   0.395   9.885
84446SOL    HW155235   4.589   0.389   9.973
84446SOL    HW255236   4.570   0.485   9.858
84447SOL     OW55237  14.633   8.933   9.763
84447SOL    HW155238  14.629   8.998   9.832
84447SOL    HW255239  14.585   8.858   9.798
84448SOL     OW55240   5.146   0.503   3.310
84448SOL    HW155241   5.086   0.553   3.254
84448SOL    HW255242   5.228   0.553   3.309
84449SOL     OW55243  11.931  13.719  14.620
84449SOL    HW155244  12.000  13.681  14.675
84449SOL    HW255245  11.966  13.715  14.531
84450SOL     OW55246   1.722   9.025  11.401
84450SOL    HW155247   1.793   9.013  11.464
84450SOL    HW255248   1.661   9.084  11.445
84451SOL     OW55249   5.442   1.269   4.916
84451SOL    HW155250   5.405   1.354   4.940
84451SOL    HW255251   5.534   1.287   4.897
84452SOL     OW55252   6.781   0.999   3.583
84452SOL    HW155253   6.735   1.056   3.645
84452SOL    HW255254   6.717   0.982   3.514
84453SOL     OW55255   2.875  14.098   0.773
84453SOL    HW155256   2.907  14.013   0.800
84453SOL    HW255257   2.841  14.138   0.853
84454SOL     OW55258   3.942   5.730   2.565
84454SOL    HW155259   3.855   5.692   2.579
84454SOL    HW255260   3.924   5.818   2.534
84455SOL     OW55261   7.024  12.390  14.793
84455SOL    HW155262   7.061  12.361  14.876
84455SOL    HW255263   6.930  12.380  14.804
84456SOL     OW55264   6.810   5.522   5.403
84456SOL    HW155265   6.882   5.460   5.398
84456SOL    HW255266   6.818   5.575   5.324
84457SOL     OW55267   8.641  12.615  11.702
84457SOL    HW155268   8.683  12.701  11.704
84457SOL    HW255269   8.643  12.589  11.610
84458SOL     OW55270   8.366   2.385  11.239
84458SOL    HW155271   8.288   2.337  11.268
84458SOL    HW255272   8.332   2.467  11.204
84459SOL     OW55273   1.521   3.677   5.129
84459SOL    HW155274   1.485   3.588   5.125
84459SOL    HW255275   1.502   3.713   5.042
84460SOL     OW55276  14.547   6.624   0.641
84460SOL    HW155277  14.576   6.620   0.732
84460SOL    HW255278  14.516   6.536   0.621
84461SOL     OW55279   7.477  14.730   8.222
84461SOL    HW155280   7.513  14.815   8.244
84461SOL    HW255281   7.546  14.668   8.244
84462SOL     OW55282  11.801   3.533   8.556
84462SOL    HW155283  11.865   3.515   8.625
84462SOL    HW255284  11.843   3.600   8.502
84463SOL     OW55285   6.561  14.328  10.539
84463SOL    HW155286   6.520  14.406  10.503
84463SOL    HW255287   6.594  14.281  10.462
84464SOL     OW55288   1.177   1.683   6.095
84464SOL    HW155289   1.248   1.634   6.136
84464SOL    HW255290   1.185   1.663   6.001
84465SOL     OW55291   3.608   3.504   6.361
84465SOL    HW155292   3.577   3.507   6.270
84465SOL    HW255293   3.599   3.594   6.393
84466SOL     OW55294   6.036  13.530  10.460
84466SOL    HW155295   5.961  13.529  10.519
84466SOL    HW255296   6.036  13.618  10.422
84467SOL     OW55297  11.729   5.177   1.255
84467SOL    HW155298  11.655   5.190   1.315
84467SOL    HW255299  11.760   5.088   1.273
84468SOL     OW55300   0.167  11.836   4.181
84468SOL    HW155301   0.105  11.908   4.168
84468SOL    HW255302   0.218  11.833   4.100
84469SOL     OW55303   0.600   9.994  13.649
84469SOL    HW155304   0.618   9.921  13.708
84469SOL    HW255305   0.572   9.952  13.567
84470SOL     OW55306  10.322   6.604   4.081
84470SOL    HW155307  10.327   6.650   4.165
84470SOL    HW255308  10.406   6.559   4.073
84471SOL     OW55309   2.454   6.206   0.227
84471SOL    HW155310   2.437   6.299   0.240
84471SOL    HW255311   2.550   6.200   0.221
84472SOL     OW55312   1.014   4.567   2.590
84472SOL    HW155313   0.984   4.562   2.499
84472SOL    HW255314   1.100   4.527   2.590
84473SOL     OW55315   0.940   1.912   5.345
84473SOL    HW155316   0.970   1.997   5.376
84473SOL    HW255317   0.865   1.931   5.290
84474SOL     OW55318  13.138   0.649  11.631
84474SOL    HW155319  13.078   0.579  11.656
84474SOL    HW255320  13.131   0.655  11.536
84475SOL     OW55321  13.082   4.722  11.120
84475SOL    HW155322  13.126   4.658  11.064
84475SOL    HW255323  13.153   4.772  11.160
84476SOL     OW55324   4.976  10.401  14.762
84476SOL    HW155325   4.913  10.453  14.811
84476SOL    HW255326   4.972  10.435  14.673
84477SOL     OW55327   4.665   2.677   7.438
84477SOL    HW155328   4.573   2.684   7.414
84477SOL    HW255329   4.712   2.680   7.355
84478SOL     OW55330   1.307  14.169   5.934
84478SOL    HW155331   1.340  14.092   5.888
84478SOL    HW255332   1.270  14.225   5.865
84479SOL     OW55333  12.954   1.858  11.966
84479SOL    HW155334  12.985   1.769  11.954
84479SOL    HW255335  13.018   1.898  12.025
84480SOL     OW55336   9.344   4.322  10.162
84480SOL    HW155337   9.252   4.295  10.160
84480SOL    HW255338   9.346   4.398  10.221
84481SOL     OW55339  12.284   7.674   3.632
84481SOL    HW155340  12.222   7.652   3.563
84481SOL    HW255341  12.300   7.591   3.678
84482SOL     OW55342   9.009   4.731  14.481
84482SOL    HW155343   8.927   4.683  14.476
84482SOL    HW255344   9.076   4.667  14.454
84483SOL     OW55345   4.814  13.479  10.242
84483SOL    HW155346   4.871  13.437  10.177
84483SOL    HW255347   4.727  13.472  10.204
84484SOL     OW55348   0.802   0.085   1.836
84484SOL    HW155349   0.831  14.874   1.823
84484SOL    HW255350   0.798   0.121   1.748
84485SOL     OW55351   7.385   4.370  12.407
84485SOL    HW155352   7.322   4.301  12.386
84485SOL    HW255353   7.335   4.451  12.404
84486SOL     OW55354  13.218   8.763   0.808
84486SOL    HW155355  13.200   8.849   0.771
84486SOL    HW255356  13.252   8.711   0.735
84487SOL     OW55357  13.263  12.159   5.393
84487SOL    HW155358  13.176  12.154   5.353
84487SOL    HW255359  13.248  12.132   5.484
84488SOL     OW55360  14.187   0.582   4.218
84488SOL    HW155361  14.148   0.500   4.249
84488SOL    HW255362  14.270   0.588   4.266
84489SOL     OW55363   6.318  12.991   7.706
84489SOL    HW155364   6.270  12.987   7.624
84489SOL    HW255365   6.296  13.077   7.743
84490SOL     OW55366  11.737   4.575   5.148
84490SOL    HW155367  11.651   4.608   5.121
84490SOL    HW255368  11.734   4.481   5.130
84491SOL     OW55369   2.565   0.338  13.082
84491SOL    HW155370   2.537   0.274  13.148
84491SOL    HW255371   2.536   0.422  13.117
84492SOL     OW55372   0.654   8.204   6.580
84492SOL    HW155373   0.686   8.187   6.668
84492SOL    HW255374   0.712   8.271   6.545
84493SOL     OW55375  12.283  11.995  11.440
84493SOL    HW155376  12.192  11.966  11.448
84493SOL    HW255377  12.279  12.070  11.380
84494SOL     OW55378   6.775   8.612  10.839
84494SOL    HW155379   6.756   8.703  10.816
84494SOL    HW255380   6.812   8.574  10.759
84495SOL     OW55381  11.125  11.819  13.161
84495SOL    HW155382  11.032  11.823  13.142
84495SOL    HW255383  11.129  11.817  13.257
84496SOL     OW55384   4.494  10.201   5.400
84496SOL    HW155385   4.499  10.124   5.343
84496SOL    HW255386   4.493  10.166   5.488
84497SOL     OW55387  13.468  10.614  11.443
84497SOL    HW155388  13.486  10.702  11.409
84497SOL    HW255389  13.437  10.630  11.532
84498SOL     OW55390  13.902  13.232   1.162
84498SOL    HW155391  13.971  13.188   1.113
84498SOL    HW255392  13.900  13.187   1.246
84499SOL     OW55393   2.957  10.315  10.341
84499SOL    HW155394   2.919  10.393  10.381
84499SOL    HW255395   2.963  10.252  10.413
84500SOL     OW55396   5.909  12.120  10.979
84500SOL    HW155397   5.908  12.147  10.887
84500SOL    HW255398   6.002  12.114  11.001
84501SOL     OW55399   9.013   4.263   0.436
84501SOL    HW155400   9.054   4.237   0.519
84501SOL    HW255401   8.939   4.318   0.462
84502SOL     OW55402  12.171   2.265   0.737
84502SOL    HW155403  12.116   2.341   0.760
84502SOL    HW255404  12.132   2.231   0.657
84503SOL     OW55405   1.557  10.399  14.878
84503SOL    HW155406   1.604  10.481  14.864
84503SOL    HW255407   1.573  10.376   0.090
84504SOL     OW55408  12.054  10.114  11.125
84504SOL    HW155409  12.069  10.190  11.069
84504SOL    HW255410  12.138  10.099  11.168
84505SOL     OW55411  11.590   8.495  13.762
84505SOL    HW155412  11.655   8.553  13.722
84505SOL    HW255413  11.512   8.506  13.707
84506SOL     OW55414  10.808   0.340  13.228
84506SOL    HW155415  10.899   0.334  13.257
84506SOL    HW255416  10.814   0.345  13.132
84507SOL     OW55417  11.943  12.801   2.742
84507SOL    HW155418  11.936  12.822   2.836
84507SOL    HW255419  11.980  12.879   2.702
84508SOL     OW55420   4.871   3.152  12.672
84508SOL    HW155421   4.856   3.190  12.586
84508SOL    HW255422   4.787   3.112  12.696
84509SOL     OW55423   6.918   7.227   5.881
84509SOL    HW155424   6.873   7.283   5.817
84509SOL    HW255425   7.010   7.229   5.855
84510SOL     OW55426  12.810   5.061  13.115
84510SOL    HW155427  12.777   5.008  13.188
84510SOL    HW255428  12.740   5.059  13.050
84511SOL     OW55429   7.240  14.082  13.605
84511SOL    HW155430   7.204  14.160  13.648
84511SOL    HW255431   7.168  14.048  13.552
84512SOL     OW55432   6.260   0.357   4.345
84512SOL    HW155433   6.330   0.399   4.396
84512SOL    HW255434   6.305   0.291   4.292
84513SOL     OW55435   8.744  10.871  12.379
84513SOL    HW155436   8.678  10.888  12.447
84513SOL    HW255437   8.711  10.793  12.333
84514SOL     OW55438  11.945   1.416  11.710
84514SOL    HW155439  11.987   1.330  11.704
84514SOL    HW255440  11.975   1.462  11.632
84515SOL     OW55441   8.460   6.516  11.217
84515SOL    HW155442   8.373   6.483  11.240
84515SOL    HW255443   8.486   6.570  11.291
84516SOL     OW55444  12.655   7.773   9.967
84516SOL    HW155445  12.719   7.710  10.001
84516SOL    HW255446  12.571   7.727   9.973
84517SOL     OW55447  10.511   4.278   6.498
84517SOL    HW155448  10.460   4.318   6.569
84517SOL    HW255449  10.602   4.303   6.516
84518SOL     OW55450   5.135   9.098   9.998
84518SOL    HW155451   5.226   9.127  10.006
84518SOL    HW255452   5.085   9.166  10.042
84519SOL     OW55453  13.536   3.229   3.598
84519SOL    HW155454  13.607   3.293   3.594
84519SOL    HW255455  13.467   3.273   3.647
84520SOL     OW55456  11.516   1.400  11.335
84520SOL    HW155457  11.509   1.354  11.419
84520SOL    HW255458  11.602   1.374  11.302
84521SOL     OW55459   5.594  11.830   5.717
84521SOL    HW155460   5.654  11.817   5.790
84521SOL    HW255461   5.649  11.863   5.646
84522SOL     OW55462   9.289  10.971   7.890
84522SOL    HW155463   9.255  11.050   7.848
84522SOL    HW255464   9.332  10.922   7.820
84523SOL     OW55465   3.006   9.469   1.765
84523SOL    HW155466   3.034   9.531   1.697
84523SOL    HW255467   2.929   9.510   1.804
84524SOL     OW55468   9.280  14.262  11.906
84524SOL    HW155469   9.262  14.356  11.909
84524SOL    HW255470   9.375  14.257  11.892
84525SOL     OW55471   5.275  14.362   3.920
84525SOL    HW155472   5.362  14.323   3.926
84525SOL    HW255473   5.291  14.450   3.884
84526SOL     OW55474   3.048   5.583   1.626
84526SOL    HW155475   2.979   5.650   1.626
84526SOL    HW255476   3.123   5.626   1.585
84527SOL     OW55477  10.112  14.240   1.899
84527SOL    HW155478  10.169  14.263   1.826
84527SOL    HW255479  10.104  14.145   1.895
84528SOL     OW55480   1.985   0.951   3.791
84528SOL    HW155481   1.979   0.877   3.852
84528SOL    HW255482   1.914   0.936   3.728
84529SOL     OW55483  13.808   9.133   3.047
84529SOL    HW155484  13.782   9.112   2.958
84529SOL    HW255485  13.838   9.050   3.084
84530SOL     OW55486  12.913  14.468  10.900
84530SOL    HW155487  12.961  14.527  10.959
84530SOL    HW255488  12.923  14.507  10.813
84531SOL     OW55489   7.305  14.772  10.035
84531SOL    HW155490   7.309  14.851  10.088
84531SOL    HW255491   7.393  14.735  10.039
84532SOL     OW55492   0.952   2.347  11.909
84532SOL    HW155493   0.964   2.319  12.000
84532SOL    HW255494   1.035   2.386  11.884
84533SOL     OW55495   1.302   4.452   9.531
84533SOL    HW155496   1.292   4.443   9.626
84533SOL    HW255497   1.363   4.525   9.521
84534SOL     OW55498   4.804  10.698   7.570
84534SOL    HW155499   4.861  10.698   7.647
84534SOL    HW255500   4.860  10.728   7.498
84535SOL     OW55501   8.255  13.916   7.529
84535SOL    HW155502   8.188  13.870   7.478
84535SOL    HW255503   8.314  13.846   7.559
84536SOL     OW55504   2.741   8.430   3.416
84536SOL    HW155505   2.796   8.352   3.429
84536SOL    HW255506   2.796   8.503   3.444
84537SOL     OW55507   7.707   4.798   1.704
84537SOL    HW155508   7.657   4.797   1.622
84537SOL    HW255509   7.708   4.890   1.731
84538SOL     OW55510   6.661  10.700   9.915
84538SOL    HW155511   6.698  10.709   9.827
84538SOL    HW255512   6.737  10.695   9.973
84539SOL     OW55513   2.986   9.827   7.243
84539SOL    HW155514   3.002   9.755   7.303
84539SOL    HW255515   3.034   9.803   7.163
84540SOL     OW55516  14.368   6.303  12.465
84540SOL    HW155517  14.416   6.226  12.435
84540SOL    HW255518  14.355   6.288  12.559
84541SOL     OW55519   2.505   4.626  10.271
84541SOL    HW155520   2.528   4.544  10.315
84541SOL    HW255521   2.493   4.688  10.343
84542SOL     OW55522   4.057   5.989  13.961
84542SOL    HW155523   4.041   6.063  14.019
84542SOL    HW255524   4.037   5.912  14.014
84543SOL     OW55525  11.636  11.036   6.666
84543SOL    HW155526  11.562  10.976   6.656
84543SOL    HW255527  11.604  11.120   6.633
84544SOL     OW55528  13.018  13.190   3.138
84544SOL    HW155529  12.991  13.282   3.134
84544SOL    HW255530  13.080  13.180   3.066
84545SOL     OW55531   8.383   3.198   4.605
84545SOL    HW155532   8.358   3.175   4.515
84545SOL    HW255533   8.379   3.115   4.653
84546SOL     OW55534   9.244  13.446  13.602
84546SOL    HW155535   9.253  13.374  13.664
84546SOL    HW255536   9.291  13.518  13.642
84547SOL     OW55537   5.423   9.299  12.988
84547SOL    HW155538   5.404   9.301  13.081
84547SOL    HW255539   5.490   9.232  12.978
84548SOL     OW55540   5.272   6.858   2.213
84548SOL    HW155541   5.350   6.873   2.159
84548SOL    HW255542   5.300   6.875   2.302
84549SOL     OW55543   5.286  12.992   6.026
84549SOL    HW155544   5.298  12.963   5.936
84549SOL    HW255545   5.272  12.912   6.076
84550SOL     OW55546   2.210   3.915   2.937
84550SOL    HW155547   2.299   3.887   2.914
84550SOL    HW255548   2.223   3.983   3.003
84551SOL     OW55549   3.612   0.211  12.120
84551SOL    HW155550   3.641   0.122  12.138
84551SOL    HW255551   3.659   0.264  12.184
84552SOL     OW55552   9.516   9.343   5.285
84552SOL    HW155553   9.488   9.277   5.221
84552SOL    HW255554   9.526   9.294   5.366
84553SOL     OW55555  13.737  12.869   4.269
84553SOL    HW155556  13.667  12.907   4.215
84553SOL    HW255557  13.812  12.927   4.254
84554SOL     OW55558  13.436  13.666  11.470
84554SOL    HW155559  13.481  13.588  11.502
84554SOL    HW255560  13.484  13.739  11.509
84555SOL     OW55561  14.585  11.621   3.823
84555SOL    HW155562  14.551  11.556   3.884
84555SOL    HW255563  14.595  11.574   3.741
84556SOL     OW55564   2.036  10.542  11.602
84556SOL    HW155565   2.014  10.463  11.653
84556SOL    HW255566   1.953  10.589  11.595
84557SOL     OW55567   6.665  13.493   6.878
84557SOL    HW155568   6.592  13.440   6.848
84557SOL    HW255569   6.692  13.543   6.800
84558SOL     OW55570  14.156   2.202   9.541
84558SOL    HW155571  14.146   2.258   9.618
84558SOL    HW255572  14.093   2.131   9.556
84559SOL     OW55573   8.263  14.157   1.046
84559SOL    HW155574   8.236  14.247   1.065
84559SOL    HW255575   8.358  14.159   1.055
84560SOL     OW55576   6.785  14.151  12.577
84560SOL    HW155577   6.809  14.061  12.555
84560SOL    HW255578   6.714  14.173  12.517
84561SOL     OW55579   3.057   3.068  13.381
84561SOL    HW155580   2.969   3.054  13.347
84561SOL    HW255581   3.115   3.031  13.314
84562SOL     OW55582  13.618   0.009   3.078
84562SOL    HW155583  13.558  14.866   3.150
84562SOL    HW255584  13.699   0.034   3.121
84563SOL     OW55585   0.089   2.473   9.073
84563SOL    HW155586   0.062   2.469   8.981
84563SOL    HW255587   0.184   2.485   9.070
84564SOL     OW55588  12.944  13.256  14.539
84564SOL    HW155589  12.915  13.272  14.449
84564SOL    HW255590  12.978  13.166  14.537
84565SOL     OW55591  13.462   7.666   6.942
84565SOL    HW155592  13.471   7.577   6.907
84565SOL    HW255593  13.409   7.655   7.022
84566SOL     OW55594   4.450   0.822   2.237
84566SOL    HW155595   4.488   0.736   2.253
84566SOL    HW255596   4.368   0.805   2.190
84567SOL     OW55597   7.746  12.769  11.388
84567SOL    HW155598   7.680  12.837  11.374
84567SOL    HW255599   7.697  12.691  11.414
84568SOL     OW55600  12.313   3.988   5.418
84568SOL    HW155601  12.321   4.079   5.388
84568SOL    HW255602  12.392   3.945   5.385
84569SOL     OW55603   8.535   9.135   0.820
84569SOL    HW155604   8.574   9.221   0.835
84569SOL    HW255605   8.585   9.076   0.876
84570SOL     OW55606   5.759   4.535   0.859
84570SOL    HW155607   5.833   4.559   0.916
84570SOL    HW255608   5.689   4.594   0.886
84571SOL     OW55609   3.917  13.883   6.918
84571SOL    HW155610   4.009  13.859   6.907
84571SOL    HW255611   3.900  13.949   6.851
84572SOL     OW55612   2.778  10.947   7.413
84572SOL    HW155613   2.766  10.994   7.495
84572SOL    HW255614   2.855  10.988   7.373
84573SOL     OW55615  14.046  13.271   8.376
84573SOL    HW155616  14.005  13.314   8.301
84573SOL    HW255617  13.981  13.207   8.405
84574SOL     OW55618  12.763   2.151  11.598
84574SOL    HW155619  12.756   2.116  11.509
84574SOL    HW255620  12.811   2.233  11.587
84575SOL     OW55621   4.123   4.063   8.678
84575SOL    HW155622   4.218   4.051   8.682
84575SOL    HW255623   4.107   4.095   8.589
84576SOL     OW55624   9.782   2.954  11.491
84576SOL    HW155625   9.863   2.905  11.509
84576SOL    HW255626   9.802   3.006  11.413
84577SOL     OW55627  11.114   6.863  14.233
84577SOL    HW155628  11.188   6.804  14.220
84577SOL    HW255629  11.140   6.918  14.307
84578SOL     OW55630  13.704   8.889   2.689
84578SOL    HW155631  13.749   8.965   2.724
84578SOL    HW255632  13.611   8.908   2.701
84579SOL     OW55633  10.964   4.195  10.654
84579SOL    HW155634  11.032   4.241  10.604
84579SOL    HW255635  10.978   4.224  10.745
84580SOL     OW55636   0.262  14.821   4.397
84580SOL    HW155637   0.217  14.742   4.367
84580SOL    HW255638   0.219  14.842   4.480
84581SOL     OW55639  10.165   0.291   9.500
84581SOL    HW155640  10.103   0.252   9.440
84581SOL    HW255641  10.239   0.231   9.501
84582SOL     OW55642   1.018  10.489   7.136
84582SOL    HW155643   0.993  10.452   7.220
84582SOL    HW255644   0.997  10.421   7.072
84583SOL     OW55645   6.445   1.005   8.771
84583SOL    HW155646   6.519   1.022   8.713
84583SOL    HW255647   6.443   0.910   8.781
84584SOL     OW55648   4.391  10.308   8.720
84584SOL    HW155649   4.419  10.359   8.796
84584SOL    HW255650   4.304  10.341   8.700
84585SOL     OW55651   1.766  11.776  10.659
84585SOL    HW155652   1.804  11.822  10.584
84585SOL    HW255653   1.810  11.691  10.661
84586SOL     OW55654  14.070  14.599  13.021
84586SOL    HW155655  14.045  14.690  13.010
84586SOL    HW255656  14.108  14.574  12.936
84587SOL     OW55657   5.263   5.496   7.905
84587SOL    HW155658   5.197   5.462   7.845
84587SOL    HW255659   5.222   5.574   7.944
84588SOL     OW55660   4.745   5.105   7.377
84588SOL    HW155661   4.784   5.136   7.295
84588SOL    HW255662   4.807   5.039   7.409
84589SOL     OW55663   5.894  11.887   6.993
84589SOL    HW155664   5.881  11.982   6.984
84589SOL    HW255665   5.842  11.863   7.070
84590SOL     OW55666   5.377   6.927   5.041
84590SOL    HW155667   5.377   6.999   4.978
84590SOL    HW255668   5.303   6.946   5.099
84591SOL     OW55669  12.948   9.155  13.701
84591SOL    HW155670  12.926   9.247  13.717
84591SOL    HW255671  13.043   9.150  13.709
84592SOL     OW55672   7.853  10.994  10.401
84592SOL    HW155673   7.777  10.956  10.444
84592SOL    HW255674   7.860  10.948  10.318
84593SOL     OW55675   7.490   5.038   3.543
84593SOL    HW155676   7.575   5.078   3.524
84593SOL    HW255677   7.443   5.042   3.459
84594SOL     OW55678   4.756   9.790   4.961
84594SOL    HW155679   4.795   9.854   5.020
84594SOL    HW255680   4.817   9.716   4.962
84595SOL     OW55681  10.689  14.399   5.079
84595SOL    HW155682  10.632  14.328   5.107
84595SOL    HW255683  10.689  14.393   4.983
84596SOL     OW55684  10.894   1.325   5.321
84596SOL    HW155685  10.848   1.246   5.349
84596SOL    HW255686  10.864   1.393   5.381
84597SOL     OW55687   1.392   1.425   2.812
84597SOL    HW155688   1.359   1.350   2.763
84597SOL    HW255689   1.473   1.449   2.768
84598SOL     OW55690   1.542   7.959  14.134
84598SOL    HW155691   1.554   8.047  14.169
84598SOL    HW255692   1.630   7.928  14.114
84599SOL     OW55693   8.504  10.287  13.203
84599SOL    HW155694   8.480  10.330  13.121
84599SOL    HW255695   8.453  10.206  13.203
84600SOL     OW55696   8.159  11.913   8.557
84600SOL    HW155697   8.070  11.916   8.592
84600SOL    HW255698   8.199  11.838   8.600
84601SOL     OW55699   2.893  14.410  14.151
84601SOL    HW155700   2.934  14.392  14.067
84601SOL    HW255701   2.960  14.390  14.216
84602SOL     OW55702   8.394   7.972  11.868
84602SOL    HW155703   8.436   7.908  11.926
84602SOL    HW255704   8.312   7.994  11.911
84603SOL     OW55705   1.712  13.948  14.175
84603SOL    HW155706   1.749  13.933  14.088
84603SOL    HW255707   1.707  14.044  14.182
84604SOL     OW55708   1.548   3.127   8.093
84604SOL    HW155709   1.545   3.217   8.063
84604SOL    HW255710   1.462   3.112   8.134
84605SOL     OW55711   5.893   7.312   9.291
84605SOL    HW155712   5.862   7.222   9.280
84605SOL    HW255713   5.831   7.352   9.352
84606SOL     OW55714  10.828  13.387   6.725
84606SOL    HW155715  10.736  13.399   6.749
84606SOL    HW255716  10.844  13.454   6.658
84607SOL     OW55717  10.535  14.238   4.166
84607SOL    HW155718  10.520  14.243   4.072
84607SOL    HW255719  10.602  14.170   4.177
84608SOL     OW55720  10.669   4.921  14.848
84608SOL    HW155721  10.681   4.998  14.792
84608SOL    HW255722  10.583   4.887  14.824
84609SOL     OW55723  13.680   4.267   2.030
84609SOL    HW155724  13.607   4.317   2.065
84609SOL    HW255725  13.733   4.331   1.981
84610SOL     OW55726   5.407  13.113  10.272
84610SOL    HW155727   5.434  13.202  10.250
84610SOL    HW255728   5.379  13.075  10.188
84611SOL     OW55729   0.337   7.377  10.122
84611SOL    HW155730   0.318   7.315  10.192
84611SOL    HW255731   0.431   7.366  10.104
84612SOL     OW55732   7.794   0.824   3.648
84612SOL    HW155733   7.822   0.823   3.556
84612SOL    HW255734   7.840   0.750   3.688
84613SOL     OW55735   6.128   3.083   4.878
84613SOL    HW155736   6.223   3.094   4.869
84613SOL    HW255737   6.094   3.087   4.789
84614SOL     OW55738   9.809   4.238   2.729
84614SOL    HW155739   9.836   4.329   2.725
84614SOL    HW255740   9.776   4.219   2.641
84615SOL     OW55741   4.527   1.399  12.391
84615SOL    HW155742   4.564   1.473  12.343
84615SOL    HW255743   4.524   1.428  12.482
84616SOL     OW55744   0.269  11.666   7.905
84616SOL    HW155745   0.215  11.742   7.881
84616SOL    HW255746   0.211  11.612   7.959
84617SOL     OW55747   5.200   7.979   3.210
84617SOL    HW155748   5.261   8.051   3.194
84617SOL    HW255749   5.255   7.903   3.225
84618SOL     OW55750   4.009   7.071   4.216
84618SOL    HW155751   4.092   7.118   4.223
84618SOL    HW255752   4.030   6.981   4.241
84619SOL     OW55753   8.705   3.625   0.642
84619SOL    HW155754   8.710   3.577   0.559
84619SOL    HW255755   8.786   3.601   0.688
84620SOL     OW55756  14.670   2.666   9.374
84620SOL    HW155757  14.753   2.652   9.421
84620SOL    HW255758  14.652   2.760   9.385
84621SOL     OW55759  11.132  10.190  14.782
84621SOL    HW155760  11.057  10.239  14.749
84621SOL    HW255761  11.194  10.257  14.811
84622SOL     OW55762  10.638   9.756  13.865
84622SOL    HW155763  10.658   9.790  13.952
84622SOL    HW255764  10.565   9.695  13.879
84623SOL     OW55765   7.236  14.153   6.316
84623SOL    HW155766   7.247  14.211   6.391
84623SOL    HW255767   7.145  14.124   6.322
84624SOL     OW55768   6.711   5.117   7.082
84624SOL    HW155769   6.685   5.066   7.006
84624SOL    HW255770   6.807   5.111   7.083
84625SOL     OW55771  11.769   6.789  13.385
84625SOL    HW155772  11.825   6.853  13.428
84625SOL    HW255773  11.819   6.759  13.310
84626SOL     OW55774   1.846   7.494   4.953
84626SOL    HW155775   1.925   7.474   5.004
84626SOL    HW255776   1.879   7.510   4.864
84627SOL     OW55777  13.192  11.876   6.972
84627SOL    HW155778  13.102  11.899   6.992
84627SOL    HW255779  13.227  11.840   7.053
84628SOL     OW55780  10.726   3.270  13.954
84628SOL    HW155781  10.683   3.273  14.040
84628SOL    HW255782  10.658   3.238  13.895
84629SOL     OW55783   8.887  11.382   4.553
84629SOL    HW155784   8.808  11.383   4.499
84629SOL    HW255785   8.875  11.308   4.613
84630SOL     OW55786  13.543  13.633  10.237
84630SOL    HW155787  13.497  13.703  10.283
84630SOL    HW255788  13.581  13.580  10.307
84631SOL     OW55789  14.284   6.700  10.834
84631SOL    HW155790  14.300   6.606  10.823
84631SOL    HW255791  14.349   6.742  10.778
84632SOL     OW55792  12.359   8.998   3.410
84632SOL    HW155793  12.287   8.935   3.402
84632SOL    HW255794  12.418   8.957   3.473
84633SOL     OW55795   8.281   6.400   8.489
84633SOL    HW155796   8.369   6.428   8.465
84633SOL    HW255797   8.291   6.361   8.576
84634SOL     OW55798   2.785  10.391   1.373
84634SOL    HW155799   2.848  10.319   1.380
84634SOL    HW255800   2.750  10.384   1.284
84635SOL     OW55801   6.605   3.584   3.410
84635SOL    HW155802   6.599   3.503   3.460
84635SOL    HW255803   6.575   3.560   3.322
84636SOL     OW55804  12.285  11.397   1.769
84636SOL    HW155805  12.257  11.315   1.809
84636SOL    HW255806  12.204  11.448   1.761
84637SOL     OW55807   9.435   0.675   5.196
84637SOL    HW155808   9.344   0.701   5.211
84637SOL    HW255809   9.487   0.737   5.247
84638SOL     OW55810  14.375   4.984   4.906
84638SOL    HW155811  14.396   4.986   5.000
84638SOL    HW255812  14.455   4.952   4.865
84639SOL     OW55813   6.963  11.483  14.475
84639SOL    HW155814   6.960  11.398  14.431
84639SOL    HW255815   7.018  11.537  14.418
84640SOL     OW55816  13.438  11.792   5.699
84640SOL    HW155817  13.517  11.846   5.699
84640SOL    HW255818  13.461  11.716   5.752
84641SOL     OW55819  11.939   0.370   2.023
84641SOL    HW155820  11.964   0.431   2.093
84641SOL    HW255821  11.990   0.291   2.041
84642SOL     OW55822   7.270   5.366   9.716
84642SOL    HW155823   7.238   5.400   9.633
84642SOL    HW255824   7.366   5.371   9.708
84643SOL     OW55825   2.464   4.017   4.581
84643SOL    HW155826   2.427   4.098   4.546
84643SOL    HW255827   2.495   4.040   4.668
84644SOL     OW55828   4.838  11.507   1.784
84644SOL    HW155829   4.885  11.543   1.859
84644SOL    HW255830   4.895  11.526   1.709
84645SOL     OW55831  10.667   5.908  10.976
84645SOL    HW155832  10.681   5.823  10.936
84645SOL    HW255833  10.572   5.918  10.979
84646SOL     OW55834  11.961  10.150   4.655
84646SOL    HW155835  12.032  10.211   4.674
84646SOL    HW255836  12.002  10.078   4.609
84647SOL     OW55837  11.993   4.185   3.483
84647SOL    HW155838  11.910   4.216   3.448
84647SOL    HW255839  11.988   4.204   3.577
84648SOL     OW55840  11.711  14.026   7.308
84648SOL    HW155841  11.653  13.973   7.252
84648SOL    HW255842  11.800  13.999   7.282
84649SOL     OW55843   3.293   3.894  13.143
84649SOL    HW155844   3.332   3.982  13.132
84649SOL    HW255845   3.276   3.888  13.237
84650SOL     OW55846  11.266  10.112  11.621
84650SOL    HW155847  11.313  10.187  11.659
84650SOL    HW255848  11.310  10.096  11.538
84651SOL     OW55849  13.971   0.741   7.641
84651SOL    HW155850  14.054   0.772   7.605
84651SOL    HW255851  13.907   0.806   7.613
84652SOL     OW55852   3.850  12.415  14.738
84652SOL    HW155853   3.932  12.439  14.696
84652SOL    HW255854   3.831  12.327  14.707
84653SOL     OW55855   6.684   3.857  10.022
84653SOL    HW155856   6.747   3.887  10.088
84653SOL    HW255857   6.599   3.880  10.058
84654SOL     OW55858   3.791   6.847  10.981
84654SOL    HW155859   3.852   6.859  10.909
84654SOL    HW255860   3.713   6.898  10.956
84655SOL     OW55861   4.717   9.195   2.840
84655SOL    HW155862   4.663   9.214   2.763
84655SOL    HW255863   4.708   9.273   2.895
84656SOL     OW55864  13.778   8.546   4.849
84656SOL    HW155865  13.792   8.640   4.844
84656SOL    HW255866  13.854   8.507   4.804
84657SOL     OW55867   6.290   3.780   4.695
84657SOL    HW155868   6.207   3.812   4.660
84657SOL    HW255869   6.354   3.800   4.627
84658SOL     OW55870   8.085   5.422   7.046
84658SOL    HW155871   8.098   5.458   7.134
84658SOL    HW255872   8.146   5.470   6.991
84659SOL     OW55873  13.676  13.675  14.506
84659SOL    HW155874  13.628  13.621  14.568
84659SOL    HW255875  13.626  13.669  14.425
84660SOL     OW55876  11.537   5.049   8.001
84660SOL    HW155877  11.550   4.968   7.952
84660SOL    HW255878  11.479   5.101   7.945
84661SOL     OW55879   7.310   9.491  11.868
84661SOL    HW155880   7.332   9.399  11.858
84661SOL    HW255881   7.372   9.537  11.811
84662SOL     OW55882  11.569   7.566   5.307
84662SOL    HW155883  11.482   7.541   5.275
84662SOL    HW255884  11.553   7.636   5.370
84663SOL     OW55885   0.610   7.900   6.771
84663SOL    HW155886   0.538   7.959   6.747
84663SOL    HW255887   0.589   7.874   6.861
84664SOL     OW55888   8.573   2.691   0.965
84664SOL    HW155889   8.586   2.761   1.030
84664SOL    HW255890   8.652   2.695   0.910
84665SOL     OW55891   2.133   0.613  12.571
84665SOL    HW155892   2.131   0.591  12.664
84665SOL    HW255893   2.150   0.530  12.527
84666SOL     OW55894   0.838  12.209   8.521
84666SOL    HW155895   0.774  12.208   8.451
84666SOL    HW255896   0.801  12.267   8.587
84667SOL     OW55897   8.782  11.291   6.766
84667SOL    HW155898   8.824  11.227   6.708
84667SOL    HW255899   8.853  11.348   6.795
84668SOL     OW55900   8.586  12.251   1.791
84668SOL    HW155901   8.640  12.318   1.750
84668SOL    HW255902   8.538  12.211   1.718
84669SOL     OW55903   7.227   6.353   9.392
84669SOL    HW155904   7.244   6.420   9.326
84669SOL    HW255905   7.270   6.385   9.471
84670SOL     OW55906  14.813   2.919   6.602
84670SOL    HW155907  14.837   2.832   6.634
84670SOL    HW255908  14.719   2.914   6.588
84671SOL     OW55909   5.214  12.475  14.128
84671SOL    HW155910   5.119  12.478  14.141
84671SOL    HW255911   5.251  12.473  14.216
84672SOL     OW55912   9.402  14.546   2.033
84672SOL    HW155913   9.377  14.573   2.121
84672SOL    HW255914   9.384  14.453   2.029
84673SOL     OW55915   6.280  12.235   5.766
84673SOL    HW155916   6.303  12.176   5.838
84673SOL    HW255917   6.217  12.185   5.714
84674SOL     OW55918   7.151   7.312   0.056
84674SOL    HW155919   7.106   7.274  14.860
84674SOL    HW255920   7.150   7.243   0.122
84675SOL     OW55921   5.976   6.195   7.348
84675SOL    HW155922   6.069   6.173   7.352
84675SOL    HW255923   5.972   6.273   7.293
84676SOL     OW55924   9.696   0.148  12.005
84676SOL    HW155925   9.722   0.220  12.062
84676SOL    HW255926   9.683   0.190  11.919
84677SOL     OW55927   1.147   1.827  11.684
84677SOL    HW155928   1.203   1.788  11.617
84677SOL    HW255929   1.202   1.829  11.763
84678SOL     OW55930  14.505   0.140   7.352
84678SOL    HW155931  14.547   0.166   7.269
84678SOL    HW255932  14.414   0.123   7.328
84679SOL     OW55933   3.097   6.681  14.180
84679SOL    HW155934   3.125   6.691  14.089
84679SOL    HW255935   3.178   6.682  14.230
84680SOL     OW55936   0.263  10.052   8.689
84680SOL    HW155937   0.194  10.065   8.754
84680SOL    HW255938   0.279   9.958   8.690
84681SOL     OW55939   6.024   8.930   6.234
84681SOL    HW155940   6.069   8.849   6.211
84681SOL    HW255941   6.007   8.973   6.150
84682SOL     OW55942   7.680  13.625  10.790
84682SOL    HW155943   7.637  13.639  10.706
84682SOL    HW255944   7.635  13.684  10.850
84683SOL     OW55945   1.013   4.072   1.981
84683SOL    HW155946   1.090   4.129   1.974
84683SOL    HW255947   0.948   4.114   1.925
84684SOL     OW55948   3.689  12.586  12.822
84684SOL    HW155949   3.744  12.635  12.882
84684SOL    HW255950   3.745  12.569  12.746
84685SOL     OW55951   3.876   6.528   2.288
84685SOL    HW155952   3.956   6.476   2.286
84685SOL    HW255953   3.856   6.545   2.195
84686SOL     OW55954   1.100  10.188   1.673
84686SOL    HW155955   1.070  10.138   1.597
84686SOL    HW255956   1.024  10.190   1.731
84687SOL     OW55957   6.710  13.697  12.986
84687SOL    HW155958   6.719  13.771  12.926
84687SOL    HW255959   6.700  13.621  12.930
84688SOL     OW55960   8.256  14.017  10.803
84688SOL    HW155961   8.220  14.083  10.743
84688SOL    HW255962   8.302  14.067  10.869
84689SOL     OW55963   6.494   2.679  13.267
84689SOL    HW155964   6.464   2.762  13.305
84689SOL    HW255965   6.432   2.661  13.197
84690SOL     OW55966  13.204   9.009   8.498
84690SOL    HW155967  13.170   8.946   8.562
84690SOL    HW255968  13.170   8.978   8.414
84691SOL     OW55969   5.553   5.145   6.883
84691SOL    HW155970   5.585   5.235   6.882
84691SOL    HW255971   5.458   5.152   6.893
84692SOL     OW55972  10.231   9.011   0.775
84692SOL    HW155973  10.277   9.005   0.859
84692SOL    HW255974  10.185   9.094   0.778
84693SOL     OW55975  10.613   5.528   1.409
84693SOL    HW155976  10.619   5.552   1.317
84693SOL    HW255977  10.702   5.541   1.442
84694SOL     OW55978   4.739   2.836   6.888
84694SOL    HW155979   4.795   2.855   6.813
84694SOL    HW255980   4.704   2.749   6.870
84695SOL     OW55981   2.051  12.727  12.017
84695SOL    HW155982   2.005  12.656  11.972
84695SOL    HW255983   2.140  12.723  11.983
84696SOL     OW55984   2.375  13.553   8.192
84696SOL    HW155985   2.393  13.504   8.272
84696SOL    HW255986   2.313  13.621   8.219
84697SOL     OW55987   2.037   4.265   9.523
84697SOL    HW155988   2.034   4.200   9.453
84697SOL    HW255989   2.007   4.218   9.601
84698SOL     OW55990   0.577   0.242   2.478
84698SOL    HW155991   0.562   0.328   2.516
84698SOL    HW255992   0.501   0.190   2.505
84699SOL     OW55993   0.423  11.157  12.806
84699SOL    HW155994   0.490  11.174  12.872
84699SOL    HW255995   0.347  11.209  12.835
84700SOL     OW55996   0.856  12.593   6.668
84700SOL    HW155997   0.889  12.503   6.666
84700SOL    HW255998   0.761  12.584   6.664
84701SOL     OW55999   7.473   2.586   1.348
84701SOL    HW156000   7.505   2.671   1.378
84701SOL    HW256001   7.379   2.601   1.331
84702SOL     OW56002  13.254  13.830   6.981
84702SOL    HW156003  13.336  13.836   7.031
84702SOL    HW256004  13.231  13.920   6.960
84703SOL     OW56005  11.600   0.658   4.979
84703SOL    HW156006  11.581   0.601   4.904
84703SOL    HW256007  11.620   0.598   5.050
84704SOL     OW56008   1.510   1.344   6.069
84704SOL    HW156009   1.592   1.370   6.026
84704SOL    HW256010   1.538   1.288   6.141
84705SOL     OW56011   3.682   0.890  14.006
84705SOL    HW156012   3.595   0.873  14.042
84705SOL    HW256013   3.742   0.850  14.070
84706SOL     OW56014  12.220   3.014   3.646
84706SOL    HW156015  12.212   3.024   3.740
84706SOL    HW256016  12.313   3.032   3.628
84707SOL     OW56017   6.488   3.514   8.160
84707SOL    HW156018   6.485   3.543   8.251
84707SOL    HW256019   6.518   3.423   8.165
84708SOL     OW56020   9.684   5.320   9.921
84708SOL    HW156021   9.594   5.323   9.954
84708SOL    HW256022   9.697   5.229   9.895
84709SOL     OW56023  14.002   0.611   9.926
84709SOL    HW156024  13.933   0.553   9.891
84709SOL    HW256025  14.004   0.590  10.020
84710SOL     OW56026   7.533   6.516   5.199
84710SOL    HW156027   7.586   6.574   5.144
84710SOL    HW256028   7.580   6.513   5.283
84711SOL     OW56029   1.507   1.803  11.772
84711SOL    HW156030   1.498   1.721  11.723
84711SOL    HW256031   1.570   1.853  11.722
84712SOL     OW56032  13.819  10.421  13.928
84712SOL    HW156033  13.856  10.340  13.893
84712SOL    HW256034  13.728  10.399  13.949
84713SOL     OW56035   3.920   8.721  11.434
84713SOL    HW156036   3.885   8.731  11.523
84713SOL    HW256037   3.903   8.806  11.392
84714SOL     OW56038  13.373  13.291   8.983
84714SOL    HW156039  13.465  13.290   8.957
84714SOL    HW256040  13.333  13.357   8.926
84715SOL     OW56041  12.415  13.660   7.461
84715SOL    HW156042  12.490  13.645   7.404
84715SOL    HW256043  12.425  13.597   7.532
84716SOL     OW56044  13.530  14.310   2.911
84716SOL    HW156045  13.478  14.360   2.974
84716SOL    HW256046  13.493  14.332   2.826
84717SOL     OW56047   2.315   6.146   8.177
84717SOL    HW156048   2.247   6.136   8.111
84717SOL    HW256049   2.267   6.162   8.258
84718SOL     OW56050   4.156  10.431   0.930
84718SOL    HW156051   4.215  10.506   0.927
84718SOL    HW256052   4.109  10.433   0.846
84719SOL     OW56053   2.485   2.972  10.431
84719SOL    HW156054   2.417   3.015  10.483
84719SOL    HW256055   2.510   3.037  10.366
84720SOL     OW56056  11.754   5.842   2.186
84720SOL    HW156057  11.691   5.915   2.182
84720SOL    HW256058  11.699   5.763   2.183
84721SOL     OW56059   1.761  14.233  12.739
84721SOL    HW156060   1.760  14.295  12.666
84721SOL    HW256061   1.803  14.154  12.704
84722SOL     OW56062  13.160   9.818  12.139
84722SOL    HW156063  13.072   9.811  12.103
84722SOL    HW256064  13.168   9.910  12.165
84723SOL     OW56065  10.621   7.125   5.024
84723SOL    HW156066  10.537   7.158   5.053
84723SOL    HW256067  10.675   7.203   5.011
84724SOL     OW56068  12.651   8.327   5.921
84724SOL    HW156069  12.558   8.319   5.941
84724SOL    HW256070  12.683   8.237   5.917
84725SOL     OW56071   5.517   0.226   2.066
84725SOL    HW156072   5.460   0.287   2.112
84725SOL    HW256073   5.598   0.224   2.118
84726SOL     OW56074  14.277  12.128  10.182
84726SOL    HW156075  14.258  12.062  10.115
84726SOL    HW256076  14.202  12.124  10.242
84727SOL     OW56077   4.180   0.556   1.351
84727SOL    HW156078   4.132   0.487   1.307
84727SOL    HW256079   4.228   0.601   1.282
84728SOL     OW56080   2.539   4.816  10.776
84728SOL    HW156081   2.571   4.765  10.851
84728SOL    HW256082   2.447   4.790  10.767
84729SOL     OW56083  11.049  12.072   5.499
84729SOL    HW156084  11.012  12.158   5.480
84729SOL    HW256085  11.130  12.090   5.546
84730SOL     OW56086   7.231  10.831   9.951
84730SOL    HW156087   7.294  10.762   9.929
84730SOL    HW256088   7.272  10.912   9.919
84731SOL     OW56089   0.530   0.340  14.072
84731SOL    HW156090   0.586   0.274  14.031
84731SOL    HW256091   0.447   0.295  14.088
84732SOL     OW56092  11.219   1.102   2.801
84732SOL    HW156093  11.306   1.132   2.826
84732SOL    HW256094  11.216   1.115   2.706
84733SOL     OW56095  11.254  14.135   3.797
84733SOL    HW156096  11.172  14.148   3.844
84733SOL    HW256097  11.302  14.216   3.811
84734SOL     OW56098   0.084   3.845   2.608
84734SOL    HW156099   0.168   3.855   2.564
84734SOL    HW256100   0.054   3.758   2.583
84735SOL     OW56101   3.215   3.260  13.748
84735SOL    HW156102   3.289   3.199  13.750
84735SOL    HW256103   3.138   3.203  13.747
84736SOL     OW56104   4.542   4.816   4.214
84736SOL    HW156105   4.604   4.806   4.142
84736SOL    HW256106   4.466   4.859   4.173
84737SOL     OW56107   0.978   5.580  10.990
84737SOL    HW156108   1.001   5.672  10.983
84737SOL    HW256109   1.057   5.533  10.963
84738SOL     OW56110  12.128   3.641   6.737
84738SOL    HW156111  12.127   3.737   6.738
84738SOL    HW256112  12.080   3.616   6.816
84739SOL     OW56113   6.160   7.515   4.608
84739SOL    HW156114   6.150   7.424   4.582
84739SOL    HW256115   6.137   7.566   4.531
84740SOL     OW56116   0.476   4.102  12.118
84740SOL    HW156117   0.406   4.153  12.078
84740SOL    HW256118   0.470   4.016  12.077
84741SOL     OW56119  12.594   5.217   9.683
84741SOL    HW156120  12.578   5.212   9.777
84741SOL    HW256121  12.665   5.281   9.674
84742SOL     OW56122   2.708   0.741  11.751
84742SOL    HW156123   2.714   0.746  11.846
84742SOL    HW256124   2.703   0.647  11.733
84743SOL     OW56125   8.097   0.728  12.791
84743SOL    HW156126   8.133   0.702  12.706
84743SOL    HW256127   8.104   0.649  12.845
84744SOL     OW56128   9.256   9.416  11.356
84744SOL    HW156129   9.241   9.345  11.293
84744SOL    HW256130   9.345   9.401  11.388
84745SOL     OW56131   7.974  10.617  10.773
84745SOL    HW156132   8.069  10.608  10.775
84745SOL    HW256133   7.959  10.710  10.758
84746SOL     OW56134   2.851   6.908   7.473
84746SOL    HW156135   2.916   6.844   7.441
84746SOL    HW256136   2.776   6.855   7.498
84747SOL     OW56137  12.662   2.273  13.449
84747SOL    HW156138  12.575   2.253  13.415
84747SOL    HW256139  12.722   2.224  13.393
84748SOL     OW56140   4.974   9.589   2.183
84748SOL    HW156141   5.001   9.500   2.163
84748SOL    HW256142   5.055   9.640   2.181
84749SOL     OW56143   8.755   9.008   7.268
84749SOL    HW156144   8.662   9.031   7.277
84749SOL    HW256145   8.760   8.916   7.294
84750SOL     OW56146   1.544   3.029   2.380
84750SOL    HW156147   1.627   2.982   2.387
84750SOL    HW256148   1.479   2.968   2.415
84751SOL     OW56149   3.676   3.383  12.443
84751SOL    HW156150   3.708   3.471  12.462
84751SOL    HW256151   3.583   3.386  12.464
84752SOL     OW56152   6.769   5.072   2.470
84752SOL    HW156153   6.761   5.061   2.375
84752SOL    HW256154   6.824   4.999   2.498
84753SOL     OW56155   0.480  13.334  14.479
84753SOL    HW156156   0.496  13.258  14.422
84753SOL    HW256157   0.469  13.296  14.567
84754SOL     OW56158   3.144  14.085  12.646
84754SOL    HW156159   3.200  14.098  12.569
84754SOL    HW256160   3.067  14.040  12.613
84755SOL     OW56161   1.008  10.880  10.510
84755SOL    HW156162   1.000  10.852  10.600
84755SOL    HW256163   1.100  10.903  10.500
84756SOL     OW56164   3.133   3.946   5.188
84756SOL    HW156165   3.095   3.858   5.193
84756SOL    HW256166   3.165   3.963   5.277
84757SOL     OW56167  12.975  14.229   5.292
84757SOL    HW156168  12.970  14.152   5.236
84757SOL    HW256169  12.986  14.302   5.232
84758SOL     OW56170   5.597   1.300   4.573
84758SOL    HW156171   5.640   1.333   4.652
84758SOL    HW256172   5.629   1.356   4.502
84759SOL     OW56173   9.829   9.544  13.968
84759SOL    HW156174   9.737   9.530  13.991
84759SOL    HW256175   9.877   9.519  14.047
84760SOL     OW56176   2.486   6.614   4.473
84760SOL    HW156177   2.456   6.699   4.444
84760SOL    HW256178   2.475   6.615   4.568
84761SOL     OW56179   4.849   0.633   8.621
84761SOL    HW156180   4.875   0.724   8.612
84761SOL    HW256181   4.871   0.610   8.711
84762SOL     OW56182   9.813   9.623   2.634
84762SOL    HW156183   9.800   9.626   2.540
84762SOL    HW256184   9.889   9.565   2.646
84763SOL     OW56185  12.086   4.901   1.753
84763SOL    HW156186  12.003   4.920   1.711
84763SOL    HW256187  12.149   4.893   1.681
84764SOL     OW56188   9.729  12.604   7.319
84764SOL    HW156189   9.661  12.547   7.282
84764SOL    HW256190   9.774  12.550   7.383
84765SOL     OW56191   8.767   9.111  11.681
84765SOL    HW156192   8.823   9.085  11.608
84765SOL    HW256193   8.817   9.087  11.759
84766SOL     OW56194   7.731   4.275   0.233
84766SOL    HW156195   7.807   4.266   0.291
84766SOL    HW256196   7.758   4.339   0.167
84767SOL     OW56197  12.829   3.747   3.959
84767SOL    HW156198  12.749   3.709   3.920
84767SOL    HW256199  12.800   3.784   4.042
84768SOL     OW56200   0.591   9.644   0.669
84768SOL    HW156201   0.497   9.660   0.663
84768SOL    HW256202   0.630   9.730   0.683
84769SOL     OW56203  12.831   9.564   2.723
84769SOL    HW156204  12.878   9.629   2.774
84769SOL    HW256205  12.899   9.520   2.671
84770SOL     OW56206   9.484   7.128  13.785
84770SOL    HW156207   9.525   7.110  13.700
84770SOL    HW256208   9.404   7.176  13.764
84771SOL     OW56209   3.872  11.853   0.312
84771SOL    HW156210   3.884  11.934   0.263
84771SOL    HW256211   3.958  11.832   0.346
84772SOL     OW56212   2.484   0.425   4.899
84772SOL    HW156213   2.546   0.358   4.872
84772SOL    HW256214   2.405   0.376   4.924
84773SOL     OW56215   8.827   8.621  13.733
84773SOL    HW156216   8.770   8.596  13.660
84773SOL    HW256217   8.779   8.596  13.811
84774SOL     OW56218   6.467   7.309   0.937
84774SOL    HW156219   6.444   7.401   0.927
84774SOL    HW256220   6.452   7.291   1.030
84775SOL     OW56221   3.446   8.018   9.402
84775SOL    HW156222   3.538   8.034   9.379
84775SOL    HW256223   3.400   8.096   9.372
84776SOL     OW56224   3.284  14.398   8.315
84776SOL    HW156225   3.217  14.465   8.304
84776SOL    HW256226   3.241  14.317   8.289
84777SOL     OW56227   5.911   5.512   1.632
84777SOL    HW156228   5.955   5.562   1.701
84777SOL    HW256229   5.944   5.550   1.550
84778SOL     OW56230   2.970   3.859   8.455
84778SOL    HW156231   2.971   3.933   8.516
84778SOL    HW256232   3.046   3.806   8.481
84779SOL     OW56233   6.844   4.654   4.261
84779SOL    HW156234   6.773   4.620   4.317
84779SOL    HW256235   6.798   4.699   4.190
84780SOL     OW56236   9.739   4.032   7.833
84780SOL    HW156237   9.756   3.959   7.893
84780SOL    HW256238   9.653   4.064   7.858
84781SOL     OW56239   1.420  14.019   3.649
84781SOL    HW156240   1.335  13.976   3.650
84781SOL    HW256241   1.483  13.948   3.658
84782SOL     OW56242   4.360   2.340   7.335
84782SOL    HW156243   4.328   2.348   7.245
84782SOL    HW256244   4.351   2.428   7.372
84783SOL     OW56245  12.782   0.005   1.679
84783SOL    HW156246  12.865   0.049   1.696
84783SOL    HW256247  12.787  14.804   1.730
84784SOL     OW56248   6.410  11.615   8.101
84784SOL    HW156249   6.443  11.529   8.126
84784SOL    HW256250   6.325  11.598   8.062
84785SOL     OW56251   2.331   0.579   2.097
84785SOL    HW156252   2.288   0.600   2.180
84785SOL    HW256253   2.411   0.533   2.122
84786SOL     OW56254   4.507  10.776   8.039
84786SOL    HW156255   4.448  10.782   7.964
84786SOL    HW256256   4.551  10.692   8.028
84787SOL     OW56257   2.757  14.441  10.866
84787SOL    HW156258   2.686  14.468  10.925
84787SOL    HW256259   2.713  14.418  10.784
84788SOL     OW56260   4.702   0.302   3.333
84788SOL    HW156261   4.678   0.372   3.272
84788SOL    HW256262   4.790   0.325   3.362
84789SOL     OW56263   0.475   1.331   4.076
84789SOL    HW156264   0.495   1.373   3.992
84789SOL    HW256265   0.529   1.377   4.140
84790SOL     OW56266   4.345   8.534   8.904
84790SOL    HW156267   4.386   8.508   8.822
84790SOL    HW256268   4.418   8.558   8.961
84791SOL     OW56269   1.556   8.350   4.452
84791SOL    HW156270   1.558   8.259   4.481
84791SOL    HW256271   1.648   8.375   4.445
84792SOL     OW56272   4.254   7.130   6.824
84792SOL    HW156273   4.252   7.156   6.916
84792SOL    HW256274   4.234   7.211   6.776
84793SOL     OW56275   3.633   0.801   9.642
84793SOL    HW156276   3.593   0.722   9.679
84793SOL    HW256277   3.724   0.798   9.674
84794SOL     OW56278   3.866   4.931  11.336
84794SOL    HW156279   3.779   4.936  11.375
84794SOL    HW256280   3.870   4.842  11.299
84795SOL     OW56281  11.795   1.086  11.492
84795SOL    HW156282  11.827   1.005  11.452
84795SOL    HW256283  11.853   1.102  11.566
84796SOL     OW56284   5.739   1.941   0.266
84796SOL    HW156285   5.743   1.933   0.171
84796SOL    HW256286   5.830   1.941   0.294
84797SOL     OW56287  11.770   9.402  14.348
84797SOL    HW156288  11.777   9.373  14.258
84797SOL    HW256289  11.766   9.498  14.343
84798SOL     OW56290   9.113   1.585   8.208
84798SOL    HW156291   9.143   1.620   8.292
84798SOL    HW256292   9.185   1.531   8.177
84799SOL     OW56293   7.192  11.886  14.878
84799SOL    HW156294   7.261  11.892   0.065
84799SOL    HW256295   7.229  11.928  14.801
84800SOL     OW56296  11.229   6.237   7.688
84800SOL    HW156297  11.172   6.165   7.659
84800SOL    HW256298  11.296   6.194   7.741
84801SOL     OW56299   4.786  14.861   7.812
84801SOL    HW156300   4.879  14.872   7.835
84801SOL    HW256301   4.783  14.874   7.718
84802SOL     OW56302  10.629   6.109   6.455
84802SOL    HW156303  10.576   6.030   6.445
84802SOL    HW256304  10.644   6.116   6.549
84803SOL     OW56305   8.763   3.283  11.727
84803SOL    HW156306   8.763   3.311  11.819
84803SOL    HW256307   8.754   3.188  11.732
84804SOL     OW56308   0.450  11.002  10.837
84804SOL    HW156309   0.466  10.912  10.867
84804SOL    HW256310   0.365  11.025  10.873
84805SOL     OW56311   0.247   5.074   2.057
84805SOL    HW156312   0.198   5.133   2.000
84805SOL    HW256313   0.182   5.044   2.121
84806SOL     OW56314   0.304   1.547   7.623
84806SOL    HW156315   0.308   1.561   7.529
84806SOL    HW256316   0.274   1.632   7.658
84807SOL     OW56317   7.921   0.796   5.105
84807SOL    HW156318   7.992   0.848   5.067
84807SOL    HW256319   7.885   0.746   5.032
84808SOL     OW56320  13.836   5.547   0.604
84808SOL    HW156321  13.875   5.460   0.609
84808SOL    HW256322  13.874   5.585   0.524
84809SOL     OW56323   3.982  13.243   1.166
84809SOL    HW156324   3.982  13.216   1.074
84809SOL    HW256325   3.911  13.192   1.205
84810SOL     OW56326   8.546  14.366   1.174
84810SOL    HW156327   8.611  14.370   1.244
84810SOL    HW256328   8.584  14.305   1.110
84811SOL     OW56329  11.685   0.041   9.311
84811SOL    HW156330  11.589   0.043   9.313
84811SOL    HW256331  11.711   0.074   9.397
84812SOL     OW56332   1.347   3.095   3.225
84812SOL    HW156333   1.426   3.045   3.207
84812SOL    HW256334   1.318   3.064   3.311
84813SOL     OW56335  11.976   1.780   2.978
84813SOL    HW156336  12.046   1.819   2.926
84813SOL    HW256337  11.932   1.854   3.020
84814SOL     OW56338   0.953   2.998   4.405
84814SOL    HW156339   0.882   3.051   4.441
84814SOL    HW256340   1.005   3.060   4.353
84815SOL     OW56341   2.575   9.886  12.112
84815SOL    HW156342   2.530   9.804  12.092
84815SOL    HW256343   2.595   9.924  12.027
84816SOL     OW56344   5.170  11.807  14.774
84816SOL    HW156345   5.146  11.715  14.773
84816SOL    HW256346   5.097  11.851  14.817
84817SOL     OW56347  12.127   0.412   2.842
84817SOL    HW156348  12.059   0.437   2.779
84817SOL    HW256349  12.087   0.427   2.927
84818SOL     OW56350  14.481  10.950  12.695
84818SOL    HW156351  14.528  10.980  12.617
84818SOL    HW256352  14.476  10.855  12.685
84819SOL     OW56353  12.354   8.022  12.836
84819SOL    HW156354  12.273   7.974  12.821
84819SOL    HW256355  12.340   8.105  12.790
84820SOL     OW56356  10.013  13.292   1.485
84820SOL    HW156357  10.041  13.357   1.549
84820SOL    HW256358  10.089  13.279   1.428
84821SOL     OW56359   5.202   8.784   1.299
84821SOL    HW156360   5.223   8.763   1.390
84821SOL    HW256361   5.122   8.736   1.280
84822SOL     OW56362   7.013  13.522   6.165
84822SOL    HW156363   6.996  13.467   6.241
84822SOL    HW256364   7.047  13.462   6.099
84823SOL     OW56365   6.264   3.003   3.848
84823SOL    HW156366   6.247   3.097   3.851
84823SOL    HW256367   6.344   2.992   3.899
84824SOL     OW56368  12.691   0.573  13.032
84824SOL    HW156369  12.685   0.660  13.072
84824SOL    HW256370  12.772   0.536  13.066
84825SOL     OW56371   8.805   8.583   4.296
84825SOL    HW156372   8.739   8.518   4.318
84825SOL    HW256373   8.882   8.558   4.348
84826SOL     OW56374  11.449   2.067  13.053
84826SOL    HW156375  11.369   2.114  13.076
84826SOL    HW256376  11.505   2.076  13.130
84827SOL     OW56377   6.562   2.157  10.852
84827SOL    HW156378   6.647   2.122  10.877
84827SOL    HW256379   6.536   2.213  10.925
84828SOL     OW56380  13.496  11.722  10.514
84828SOL    HW156381  13.542  11.761  10.588
84828SOL    HW256382  13.450  11.646  10.552
84829SOL     OW56383  12.028   8.837  14.236
84829SOL    HW156384  11.936   8.860  14.250
84829SOL    HW256385  12.046   8.769  14.300
84830SOL     OW56386  12.396   8.851  14.262
84830SOL    HW156387  12.486   8.845  14.293
84830SOL    HW256388  12.354   8.916  14.318
84831SOL     OW56389   7.745   5.058  11.459
84831SOL    HW156390   7.698   5.099  11.531
84831SOL    HW256391   7.754   5.127  11.393
84832SOL     OW56392  14.094   0.958   5.954
84832SOL    HW156393  14.131   0.908   5.881
84832SOL    HW256394  14.154   1.032   5.965
84833SOL     OW56395  10.541  11.407  13.298
84833SOL    HW156396  10.588  11.434  13.377
84833SOL    HW256397  10.497  11.326  13.323
84834SOL     OW56398  11.310  13.587   2.597
84834SOL    HW156399  11.320  13.550   2.509
84834SOL    HW256400  11.391  13.635   2.612
84835SOL     OW56401  11.272   7.855   2.123
84835SOL    HW156402  11.344   7.869   2.185
84835SOL    HW256403  11.260   7.760   2.121
84836SOL     OW56404  10.217   1.336   9.895
84836SOL    HW156405  10.183   1.403   9.836
84836SOL    HW256406  10.209   1.254   9.847
84837SOL     OW56407   7.017  14.799   4.536
84837SOL    HW156408   7.089  14.736   4.526
84837SOL    HW256409   7.041  14.850   4.613
84838SOL     OW56410   7.102   2.739   8.419
84838SOL    HW156411   7.184   2.785   8.403
84838SOL    HW256412   7.095   2.733   8.514
84839SOL     OW56413  11.444   6.841   6.161
84839SOL    HW156414  11.467   6.844   6.068
84839SOL    HW256415  11.512   6.894   6.204
84840SOL     OW56416   7.842   5.451  10.282
84840SOL    HW156417   7.790   5.436  10.362
84840SOL    HW256418   7.785   5.421  10.211
84841SOL     OW56419  10.330  11.227  10.514
84841SOL    HW156420  10.373  11.174  10.447
84841SOL    HW256421  10.347  11.181  10.596
84842SOL     OW56422   5.943   3.375   7.264
84842SOL    HW156423   6.009   3.362   7.332
84842SOL    HW256424   5.860   3.356   7.307
84843SOL     OW56425  14.187  13.432   4.500
84843SOL    HW156426  14.120  13.454   4.435
84843SOL    HW256427  14.222  13.347   4.471
84844SOL     OW56428   1.489   9.100  10.088
84844SOL    HW156429   1.430   9.173  10.108
84844SOL    HW256430   1.461   9.069  10.002
84845SOL     OW56431  11.402  13.023   1.382
84845SOL    HW156432  11.343  12.960   1.424
84845SOL    HW256433  11.363  13.037   1.296
84846SOL     OW56434   0.173   2.866  14.345
84846SOL    HW156435   0.105   2.838  14.284
84846SOL    HW256436   0.210   2.945  14.305
84847SOL     OW56437  10.844  12.159   7.168
84847SOL    HW156438  10.828  12.230   7.107
84847SOL    HW256439  10.913  12.192   7.226
84848SOL     OW56440  11.416   6.650   2.486
84848SOL    HW156441  11.373   6.640   2.571
84848SOL    HW256442  11.440   6.742   2.482
84849SOL     OW56443   2.291   9.324   1.206
84849SOL    HW156444   2.367   9.366   1.246
84849SOL    HW256445   2.293   9.234   1.239
84850SOL     OW56446  14.122   9.906  14.818
84850SOL    HW156447  14.138   9.835  14.755
84850SOL    HW256448  14.031   9.931  14.803
84851SOL     OW56449   2.943  10.577   9.986
84851SOL    HW156450   3.037  10.564   9.999
84851SOL    HW256451   2.909  10.597  10.073
84852SOL     OW56452  12.722  11.648   2.501
84852SOL    HW156453  12.669  11.628   2.424
84852SOL    HW256454  12.791  11.581   2.500
84853SOL     OW56455   2.491   7.845   6.772
84853SOL    HW156456   2.555   7.889   6.828
84853SOL    HW256457   2.542   7.780   6.724
84854SOL     OW56458  12.729   0.134  11.290
84854SOL    HW156459  12.794   0.142  11.360
84854SOL    HW256460  12.768   0.179  11.215
84855SOL     OW56461   3.954   4.857   1.979
84855SOL    HW156462   4.021   4.920   2.006
84855SOL    HW256463   3.873   4.908   1.973
84856SOL     OW56464   4.981   1.554   4.579
84856SOL    HW156465   4.981   1.522   4.670
84856SOL    HW256466   5.018   1.481   4.529
84857SOL     OW56467   2.652   0.703  13.754
84857SOL    HW156468   2.599   0.782  13.752
84857SOL    HW256469   2.741   0.734  13.771
84858SOL     OW56470   3.915  10.992  11.624
84858SOL    HW156471   4.009  10.998  11.606
84858SOL    HW256472   3.875  11.051  11.560
84859SOL     OW56473   8.275  13.781   6.769
84859SOL    HW156474   8.215  13.787   6.695
84859SOL    HW256475   8.343  13.847   6.750
84860SOL     OW56476  12.847   1.867   3.281
84860SOL    HW156477  12.804   1.950   3.261
84860SOL    HW256478  12.908   1.854   3.208
84861SOL     OW56479   9.408  14.818   0.193
84861SOL    HW156480   9.451  14.872   0.126
84861SOL    HW256481   9.355   0.001   0.243
84862SOL     OW56482   5.141   2.272   3.651
84862SOL    HW156483   5.066   2.319   3.615
84862SOL    HW256484   5.148   2.193   3.596
84863SOL     OW56485  10.600   0.549   1.638
84863SOL    HW156486  10.629   0.629   1.683
84863SOL    HW256487  10.585   0.577   1.547
84864SOL     OW56488   8.742  10.505   9.941
84864SOL    HW156489   8.812  10.564   9.968
84864SOL    HW256490   8.702  10.475  10.022
84865SOL     OW56491   7.916   6.190  11.141
84865SOL    HW156492   7.991   6.135  11.163
84865SOL    HW256493   7.945   6.243  11.067
84866SOL     OW56494   0.769  11.801   2.089
84866SOL    HW156495   0.790  11.710   2.109
84866SOL    HW256496   0.674  11.803   2.084
84867SOL     OW56497   6.566  11.602  12.924
84867SOL    HW156498   6.623  11.642  12.858
84867SOL    HW256499   6.494  11.564  12.873
84868SOL     OW56500   0.152  10.663  11.240
84868SOL    HW156501   0.146  10.663  11.145
84868SOL    HW256502   0.069  10.699  11.270
84869SOL     OW56503  10.885   4.943   7.771
84869SOL    HW156504  10.861   4.865   7.721
84869SOL    HW256505  10.877   5.014   7.708
84870SOL     OW56506   2.397   0.117   1.156
84870SOL    HW156507   2.426   0.129   1.065
84870SOL    HW256508   2.302   0.107   1.150
84871SOL     OW56509   8.522  12.187   6.335
84871SOL    HW156510   8.494  12.098   6.356
84871SOL    HW256511   8.492  12.240   6.410
84872SOL     OW56512   1.683   4.505  12.697
84872SOL    HW156513   1.728   4.450  12.632
84872SOL    HW256514   1.750   4.565  12.728
84873SOL     OW56515  12.223   1.899  12.354
84873SOL    HW156516  12.155   1.933  12.412
84873SOL    HW256517  12.276   1.842  12.410
84874SOL     OW56518   9.187   7.241  11.833
84874SOL    HW156519   9.110   7.223  11.778
84874SOL    HW256520   9.262   7.231  11.774
84875SOL     OW56521   3.047  14.460   0.106
84875SOL    HW156522   3.134  14.497   0.092
84875SOL    HW256523   3.048  14.428   0.196
84876SOL     OW56524   4.478   1.092  10.472
84876SOL    HW156525   4.473   1.042  10.391
84876SOL    HW256526   4.399   1.067  10.521
84877SOL     OW56527  11.980   0.238  14.505
84877SOL    HW156528  11.950   0.277  14.422
84877SOL    HW256529  12.068   0.273  14.517
84878SOL     OW56530   9.874   6.212  12.512
84878SOL    HW156531   9.803   6.232  12.573
84878SOL    HW256532   9.876   6.116  12.509
84879SOL     OW56533  12.139   1.068   4.987
84879SOL    HW156534  12.066   1.021   4.946
84879SOL    HW256535  12.210   1.004   4.988
84880SOL     OW56536   3.588   7.141   1.285
84880SOL    HW156537   3.666   7.147   1.230
84880SOL    HW256538   3.621   7.115   1.370
84881SOL     OW56539  12.674  14.295  11.579
84881SOL    HW156540  12.620  14.267  11.504
84881SOL    HW256541  12.735  14.359  11.542
84882SOL     OW56542   5.127  13.259   6.326
84882SOL    HW156543   5.208  13.253   6.376
84882SOL    HW256544   5.101  13.351   6.335
84883SOL     OW56545   6.278   7.609   7.362
84883SOL    HW156546   6.280   7.633   7.455
84883SOL    HW256547   6.357   7.557   7.348
84884SOL     OW56548   4.360   8.325   7.420
84884SOL    HW156549   4.448   8.336   7.458
84884SOL    HW256550   4.349   8.402   7.365
84885SOL     OW56551  12.609  13.101   9.436
84885SOL    HW156552  12.532  13.066   9.391
84885SOL    HW256553  12.631  13.036   9.502
84886SOL     OW56554   1.293   3.360   0.083
84886SOL    HW156555   1.290   3.275   0.040
84886SOL    HW256556   1.302   3.423   0.011
84887SOL     OW56557  12.747   7.056   4.307
84887SOL    HW156558  12.691   7.062   4.229
84887SOL    HW256559  12.755   7.147   4.337
84888SOL     OW56560   2.247  12.552   1.618
84888SOL    HW156561   2.153  12.567   1.628
84888SOL    HW256562   2.255  12.458   1.603
84889SOL     OW56563   4.539  12.874   1.062
84889SOL    HW156564   4.593  12.900   0.988
84889SOL    HW256565   4.495  12.794   1.033
84890SOL     OW56566   8.830  11.975  10.554
84890SOL    HW156567   8.804  11.916  10.625
84890SOL    HW256568   8.752  11.984  10.499
84891SOL     OW56569  14.243   8.988   8.503
84891SOL    HW156570  14.188   9.062   8.528
84891SOL    HW256571  14.299   8.972   8.579
84892SOL     OW56572  14.159   6.298   4.132
84892SOL    HW156573  14.218   6.262   4.066
84892SOL    HW256574  14.192   6.387   4.148
84893SOL     OW56575   1.375  11.818   5.208
84893SOL    HW156576   1.282  11.822   5.230
84893SOL    HW256577   1.419  11.806   5.293
84894SOL     OW56578   9.585  13.397   4.188
84894SOL    HW156579   9.523  13.337   4.230
84894SOL    HW256580   9.545  13.484   4.200
84895SOL     OW56581  10.022   9.574   6.359
84895SOL    HW156582  10.078   9.585   6.282
84895SOL    HW256583   9.948   9.522   6.328
84896SOL     OW56584  10.315   0.636  11.650
84896SOL    HW156585  10.385   0.679  11.600
84896SOL    HW256586  10.239   0.641  11.592
84897SOL     OW56587   8.900   0.393   0.050
84897SOL    HW156588   8.874   0.302   0.063
84897SOL    HW256589   8.819   0.443   0.063
84898SOL     OW56590  13.902  13.312   1.562
84898SOL    HW156591  13.844  13.237   1.574
84898SOL    HW256592  13.843  13.386   1.545
84899SOL     OW56593  11.669   0.515   1.742
84899SOL    HW156594  11.594   0.573   1.754
84899SOL    HW256595  11.742   0.573   1.722
84900SOL     OW56596   7.086   0.859   7.605
84900SOL    HW156597   7.095   0.939   7.657
84900SOL    HW256598   7.069   0.790   7.669
84901SOL     OW56599   2.282   3.098   7.824
84901SOL    HW156600   2.194   3.111   7.788
84901SOL    HW256601   2.266   3.080   7.917
84902SOL     OW56602   3.194  14.324   4.467
84902SOL    HW156603   3.114  14.274   4.451
84902SOL    HW256604   3.215  14.306   4.559
84903SOL     OW56605   3.515  12.807   3.894
84903SOL    HW156606   3.573  12.838   3.963
84903SOL    HW256607   3.434  12.783   3.939
84904SOL     OW56608   0.773   4.686  13.506
84904SOL    HW156609   0.732   4.712  13.589
84904SOL    HW256610   0.867   4.693  13.524
84905SOL     OW56611   0.564   4.521   8.234
84905SOL    HW156612   0.560   4.443   8.290
84905SOL    HW256613   0.636   4.504   8.174
84906SOL     OW56614   3.725   5.336   0.724
84906SOL    HW156615   3.793   5.345   0.790
84906SOL    HW256616   3.725   5.243   0.701
84907SOL     OW56617   5.046   3.809   5.859
84907SOL    HW156618   5.118   3.872   5.850
84907SOL    HW256619   5.083   3.725   5.833
84908SOL     OW56620   6.854  11.256   3.522
84908SOL    HW156621   6.778  11.211   3.558
84908SOL    HW256622   6.905  11.187   3.479
84909SOL     OW56623   1.829  12.359   9.803
84909SOL    HW156624   1.782  12.391   9.880
84909SOL    HW256625   1.846  12.267   9.822
84910SOL     OW56626  13.603  14.489   7.477
84910SOL    HW156627  13.681  14.453   7.434
84910SOL    HW256628  13.593  14.577   7.441
84911SOL     OW56629  14.438  12.427   3.387
84911SOL    HW156630  14.370  12.457   3.447
84911SOL    HW256631  14.390  12.387   3.315
84912SOL     OW56632  10.766  12.735   3.091
84912SOL    HW156633  10.721  12.653   3.069
84912SOL    HW256634  10.836  12.742   3.026
84913SOL     OW56635   8.704   2.116   9.008
84913SOL    HW156636   8.674   2.177   8.941
84913SOL    HW256637   8.766   2.166   9.061
84914SOL     OW56638   6.776   8.359   1.898
84914SOL    HW156639   6.828   8.284   1.925
84914SOL    HW256640   6.816   8.434   1.941
84915SOL     OW56641   8.335   9.883  14.441
84915SOL    HW156642   8.271   9.853  14.377
84915SOL    HW256643   8.404   9.924  14.389
84916SOL     OW56644   3.862  13.774  13.644
84916SOL    HW156645   3.884  13.681  13.637
84916SOL    HW256646   3.843  13.802  13.555
84917SOL     OW56647   9.516   0.768   8.377
84917SOL    HW156648   9.481   0.757   8.466
84917SOL    HW256649   9.491   0.857   8.353
84918SOL     OW56650   4.061   3.021   3.199
84918SOL    HW156651   4.003   3.039   3.272
84918SOL    HW256652   4.027   3.074   3.127
84919SOL     OW56653   7.535  12.702   1.487
84919SOL    HW156654   7.611  12.710   1.544
84919SOL    HW256655   7.480  12.776   1.510
84920SOL     OW56656  12.457   3.852   8.623
84920SOL    HW156657  12.494   3.842   8.536
84920SOL    HW256658  12.454   3.947   8.637
84921SOL     OW56659  13.663  10.289  14.726
84921SOL    HW156660  13.681  10.251  14.812
84921SOL    HW256661  13.568  10.300  14.725
84922SOL     OW56662   0.750  13.484   0.089
84922SOL    HW156663   0.755  13.501   0.183
84922SOL    HW256664   0.747  13.570   0.049
84923SOL     OW56665  12.597   1.924   1.354
84923SOL    HW156666  12.613   1.891   1.442
84923SOL    HW256667  12.598   2.019   1.364
84924SOL     OW56668   8.675   2.337   5.665
84924SOL    HW156669   8.768   2.321   5.684
84924SOL    HW256670   8.630   2.317   5.747
84925SOL     OW56671   9.098   5.278   2.862
84925SOL    HW156672   9.100   5.282   2.957
84925SOL    HW256673   9.013   5.240   2.841
84926SOL     OW56674   6.112   3.139   6.895
84926SOL    HW156675   6.197   3.147   6.851
84926SOL    HW256676   6.106   3.046   6.918
84927SOL     OW56677   9.245  10.449   3.687
84927SOL    HW156678   9.206  10.362   3.679
84927SOL    HW256679   9.320  10.448   3.627
84928SOL     OW56680   4.744   7.714  13.964
84928SOL    HW156681   4.794   7.753  13.892
84928SOL    HW256682   4.790   7.633  13.985
84929SOL     OW56683   8.966  10.006   2.822
84929SOL    HW156684   8.903  10.020   2.752
84929SOL    HW256685   8.923  10.042   2.900
84930SOL     OW56686   5.557   6.932   9.771
84930SOL    HW156687   5.598   6.966   9.851
84930SOL    HW256688   5.583   6.993   9.702
84931SOL     OW56689   4.045   6.679   1.534
84931SOL    HW156690   4.125   6.688   1.585
84931SOL    HW256691   4.060   6.732   1.455
84932SOL     OW56692   9.601  11.251   3.681
84932SOL    HW156693   9.510  11.268   3.706
84932SOL    HW256694   9.635  11.336   3.654
84933SOL     OW56695   2.547   8.296  14.339
84933SOL    HW156696   2.479   8.363  14.330
84933SOL    HW256697   2.628   8.341  14.318
84934SOL     OW56698  12.036  13.836   8.852
84934SOL    HW156699  12.050  13.881   8.935
84934SOL    HW256700  11.964  13.775   8.870
84935SOL     OW56701   7.770   8.263   9.953
84935SOL    HW156702   7.835   8.228   9.892
84935SOL    HW256703   7.698   8.200   9.951
84936SOL     OW56704   2.722  12.400  11.107
84936SOL    HW156705   2.735  12.323  11.052
84936SOL    HW256706   2.809  12.439  11.113
84937SOL     OW56707   6.749   4.428   6.021
84937SOL    HW156708   6.704   4.511   6.007
84937SOL    HW256709   6.728   4.377   5.942
84938SOL     OW56710  12.385   5.069   4.148
84938SOL    HW156711  12.330   5.126   4.095
84938SOL    HW256712  12.472   5.076   4.108
84939SOL     OW56713  12.644  11.180   4.189
84939SOL    HW156714  12.679  11.197   4.101
84939SOL    HW256715  12.549  11.184   4.178
84940SOL     OW56716  14.127   7.452   7.923
84940SOL    HW156717  14.051   7.509   7.912
84940SOL    HW256718  14.202   7.511   7.915
84941SOL     OW56719  12.437   1.998   8.696
84941SOL    HW156720  12.468   2.069   8.641
84941SOL    HW256721  12.403   1.933   8.635
84942SOL     OW56722   6.894   1.321   3.994
84942SOL    HW156723   6.799   1.308   3.990
84942SOL    HW256724   6.910   1.404   3.949
84943SOL     OW56725   9.424   0.740   9.411
84943SOL    HW156726   9.427   0.734   9.315
84943SOL    HW256727   9.360   0.675   9.437
84944SOL     OW56728  10.503  13.070   1.977
84944SOL    HW156729  10.559  13.048   2.051
84944SOL    HW256730  10.421  13.024   1.994
84945SOL     OW56731   3.929   7.813  10.682
84945SOL    HW156732   3.994   7.792  10.614
84945SOL    HW256733   3.901   7.902  10.662
84946SOL     OW56734   1.781   3.299   1.772
84946SOL    HW156735   1.709   3.343   1.817
84946SOL    HW256736   1.854   3.305   1.833
84947SOL     OW56737   9.914   1.456   0.601
84947SOL    HW156738   9.915   1.378   0.546
84947SOL    HW256739   9.888   1.527   0.542
84948SOL     OW56740   4.303   9.693   2.485
84948SOL    HW156741   4.360   9.685   2.561
84948SOL    HW256742   4.220   9.653   2.512
84949SOL     OW56743   5.818  13.710   9.710
84949SOL    HW156744   5.751  13.756   9.761
84949SOL    HW256745   5.810  13.746   9.622
84950SOL     OW56746   8.641  12.277  14.776
84950SOL    HW156747   8.582  12.351  14.787
84950SOL    HW256748   8.710  12.309  14.717
84951SOL     OW56749   2.862   8.531   3.773
84951SOL    HW156750   2.821   8.605   3.819
84951SOL    HW256751   2.848   8.551   3.680
84952SOL     OW56752  14.875  12.910   9.650
84952SOL    HW156753  14.794  12.945   9.687
84952SOL    HW256754  14.868  12.815   9.661
84953SOL     OW56755   0.637  10.542   2.451
84953SOL    HW156756   0.675  10.487   2.519
84953SOL    HW256757   0.591  10.480   2.394
84954SOL     OW56758  10.053  12.765   9.070
84954SOL    HW156759  10.060  12.712   9.150
84954SOL    HW256760   9.965  12.802   9.074
84955SOL     OW56761   6.976   3.230  14.169
84955SOL    HW156762   6.892   3.205  14.130
84955SOL    HW256763   6.968   3.204  14.261
84956SOL     OW56764   3.722   8.461   4.465
84956SOL    HW156765   3.777   8.429   4.393
84956SOL    HW256766   3.633   8.434   4.440
84957SOL     OW56767   4.162  13.230  14.648
84957SOL    HW156768   4.149  13.271  14.563
84957SOL    HW256769   4.239  13.274  14.685
84958SOL     OW56770   7.126   4.472  10.939
84958SOL    HW156771   7.190   4.528  10.982
84958SOL    HW256772   7.158   4.465  10.849
84959SOL     OW56773  11.534   6.176   1.309
84959SOL    HW156774  11.612   6.193   1.258
84959SOL    HW256775  11.527   6.081   1.312
84960SOL     OW56776  10.143   6.578  12.498
84960SOL    HW156777  10.234   6.590  12.526
84960SOL    HW256778  10.120   6.489  12.525
84961SOL     OW56779   8.193   5.899  10.127
84961SOL    HW156780   8.163   5.990  10.138
84961SOL    HW256781   8.180   5.881  10.034
84962SOL     OW56782   3.144   1.767   1.282
84962SOL    HW156783   3.161   1.720   1.200
84962SOL    HW256784   3.126   1.698   1.346
84963SOL     OW56785   5.267   5.262   6.662
84963SOL    HW156786   5.353   5.232   6.633
84963SOL    HW256787   5.269   5.357   6.650
84964SOL     OW56788   6.870   9.090   3.645
84964SOL    HW156789   6.899   9.177   3.674
84964SOL    HW256790   6.899   9.030   3.714
84965SOL     OW56791  14.222   7.301   8.659
84965SOL    HW156792  14.169   7.339   8.589
84965SOL    HW256793  14.277   7.236   8.616
84966SOL     OW56794   4.007  14.852  13.697
84966SOL    HW156795   4.004   0.065  13.720
84966SOL    HW256796   4.061  14.812  13.766
84967SOL     OW56797   1.455   6.677   1.454
84967SOL    HW156798   1.466   6.722   1.370
84967SOL    HW256799   1.522   6.608   1.453
84968SOL     OW56800  14.404   7.519  11.817
84968SOL    HW156801  14.368   7.599  11.778
84968SOL    HW256802  14.490   7.509  11.775
84969SOL     OW56803   0.457   7.699   1.294
84969SOL    HW156804   0.370   7.741   1.298
84969SOL    HW256805   0.511   7.752   1.352
84970SOL     OW56806   0.243   9.848  10.734
84970SOL    HW156807   0.173   9.901  10.694
84970SOL    HW256808   0.315   9.852  10.672
84971SOL     OW56809   7.168   2.298   7.100
84971SOL    HW156810   7.167   2.391   7.077
84971SOL    HW256811   7.228   2.258   7.037
84972SOL     OW56812   7.652   5.364   2.579
84972SOL    HW156813   7.692   5.384   2.495
84972SOL    HW256814   7.591   5.292   2.561
84973SOL     OW56815   8.172  13.395   8.905
84973SOL    HW156816   8.099  13.434   8.952
84973SOL    HW256817   8.241  13.462   8.908
84974SOL     OW56818   9.687   2.558  11.212
84974SOL    HW156819   9.709   2.510  11.293
84974SOL    HW256820   9.645   2.492  11.157
84975SOL     OW56821   9.922   3.096  13.005
84975SOL    HW156822   9.958   3.122  12.920
84975SOL    HW256823   9.915   3.178  13.054
84976SOL     OW56824   0.779   9.170   7.711
84976SOL    HW156825   0.785   9.177   7.806
84976SOL    HW256826   0.793   9.259   7.680
84977SOL     OW56827   9.043   8.670   6.083
84977SOL    HW156828   8.969   8.648   6.028
84977SOL    HW256829   9.053   8.594   6.141
84978SOL     OW56830   8.703   6.501   9.504
84978SOL    HW156831   8.682   6.542   9.420
84978SOL    HW256832   8.759   6.565   9.548
84979SOL     OW56833   4.749  12.206   0.418
84979SOL    HW156834   4.810  12.140   0.450
84979SOL    HW256835   4.663  12.178   0.449
84980SOL     OW56836   7.429  11.156   3.874
84980SOL    HW156837   7.407  11.233   3.822
84980SOL    HW256838   7.512  11.177   3.915
84981SOL     OW56839  12.751   5.435   1.989
84981SOL    HW156840  12.689   5.468   2.054
84981SOL    HW256841  12.699   5.422   1.910
84982SOL     OW56842   0.907  13.169   7.023
84982SOL    HW156843   0.921  13.075   7.013
84982SOL    HW256844   0.969  13.209   6.962
84983SOL     OW56845  11.079   5.663   1.147
84983SOL    HW156846  11.168   5.665   1.183
84983SOL    HW256847  11.091   5.683   1.054
84984SOL     OW56848   1.466  11.212   3.961
84984SOL    HW156849   1.423  11.225   3.877
84984SOL    HW256850   1.396  11.221   4.026
84985SOL     OW56851  14.840   9.601   2.220
84985SOL    HW156852  14.872   9.648   2.297
84985SOL    HW256853  14.780   9.662   2.178
84986SOL     OW56854   5.435   7.328   1.730
84986SOL    HW156855   5.351   7.370   1.748
84986SOL    HW256856   5.500   7.397   1.747
84987SOL     OW56857   2.209  12.065  11.492
84987SOL    HW156858   2.219  12.014  11.411
84987SOL    HW256859   2.114  12.080  11.499
84988SOL     OW56860   9.981   4.263   8.483
84988SOL    HW156861   9.999   4.170   8.468
84988SOL    HW256862  10.054   4.292   8.539
84989SOL     OW56863   9.807   3.673   1.579
84989SOL    HW156864   9.875   3.712   1.524
84989SOL    HW256865   9.790   3.588   1.539
84990SOL     OW56866  13.750   6.648   5.245
84990SOL    HW156867  13.702   6.663   5.327
84990SOL    HW256868  13.842   6.647   5.271
84991SOL     OW56869  12.730   3.128   3.446
84991SOL    HW156870  12.800   3.104   3.385
84991SOL    HW256871  12.685   3.201   3.403
84992SOL     OW56872  10.134  13.661   5.045
84992SOL    HW156873  10.126  13.716   5.123
84992SOL    HW256874  10.188  13.713   4.985
84993SOL     OW56875   4.628  11.485   0.105
84993SOL    HW156876   4.721  11.462   0.103
84993SOL    HW256877   4.599  11.479   0.014
84994SOL     OW56878  12.519   8.797   9.871
84994SOL    HW156879  12.606   8.780   9.835
84994SOL    HW256880  12.493   8.882   9.834
84995SOL     OW56881   7.358   5.137   6.768
84995SOL    HW156882   7.299   5.072   6.729
84995SOL    HW256883   7.321   5.221   6.743
84996SOL     OW56884   9.588   2.015  12.377
84996SOL    HW156885   9.497   2.018  12.407
84996SOL    HW256886   9.608   1.922  12.372
84997SOL     OW56887   5.046   5.234   8.550
84997SOL    HW156888   5.000   5.295   8.608
84997SOL    HW256889   4.982   5.165   8.533
84998SOL     OW56890  10.486  14.075  11.791
84998SOL    HW156891  10.516  14.035  11.709
84998SOL    HW256892  10.565  14.106  11.834
84999SOL     OW56893   4.142  12.525  14.867
84999SOL    HW156894   4.181  12.449  14.825
84999SOL    HW256895   4.129  12.499   0.078
85000SOL     OW56896   8.984   1.795   3.328
85000SOL    HW156897   8.939   1.873   3.361
85000SOL    HW256898   8.921   1.724   3.338
85001SOL     OW56899   0.498  10.223   6.499
85001SOL    HW156900   0.535  10.233   6.411
85001SOL    HW256901   0.554  10.278   6.554
85002SOL     OW56902  10.709  13.094   7.867
85002SOL    HW156903  10.773  13.024   7.880
85002SOL    HW256904  10.736  13.136   7.785
85003SOL     OW56905   5.571   7.620   9.946
85003SOL    HW156906   5.584   7.538   9.992
85003SOL    HW256907   5.641   7.677   9.978
85004SOL     OW56908   3.637   6.499  13.890
85004SOL    HW156909   3.687   6.561  13.838
85004SOL    HW256910   3.620   6.426  13.830
85005SOL     OW56911  10.022   2.284   1.383
85005SOL    HW156912   9.951   2.228   1.353
85005SOL    HW256913  10.101   2.231   1.370
85006SOL     OW56914   5.442   1.352   2.391
85006SOL    HW156915   5.479   1.412   2.455
85006SOL    HW256916   5.362   1.395   2.360
85007SOL     OW56917   1.498   6.025   1.286
85007SOL    HW156918   1.509   6.091   1.355
85007SOL    HW256919   1.582   6.025   1.240
85008SOL     OW56920   0.205   1.560   7.070
85008SOL    HW156921   0.189   1.487   7.129
85008SOL    HW256922   0.134   1.555   7.006
85009SOL     OW56923   2.024   8.375  14.265
85009SOL    HW156924   2.018   8.384  14.170
85009SOL    HW256925   2.036   8.281  14.280
85010SOL     OW56926   8.388   9.083   8.239
85010SOL    HW156927   8.403   8.998   8.279
85010SOL    HW256928   8.475   9.123   8.235
85011SOL     OW56929   7.179   9.659   6.506
85011SOL    HW156930   7.109   9.611   6.549
85011SOL    HW256931   7.199   9.608   6.428
85012SOL     OW56932  13.535   4.800   2.044
85012SOL    HW156933  13.527   4.713   2.084
85012SOL    HW256934  13.626   4.804   2.013
85013SOL     OW56935   9.568  11.376   0.745
85013SOL    HW156936   9.654  11.412   0.724
85013SOL    HW256937   9.520  11.449   0.783
85014SOL     OW56938   9.606   3.208  12.432
85014SOL    HW156939   9.522   3.162  12.439
85014SOL    HW256940   9.657   3.154  12.371
85015SOL     OW56941   2.840  13.799   5.091
85015SOL    HW156942   2.846  13.886   5.052
85015SOL    HW256943   2.795  13.746   5.026
85016SOL     OW56944  13.515  11.096  10.387
85016SOL    HW156945  13.438  11.141  10.352
85016SOL    HW256946  13.577  11.167  10.405
85017SOL     OW56947   4.302   2.299  10.792
85017SOL    HW156948   4.352   2.227  10.753
85017SOL    HW256949   4.223   2.304  10.739
85018SOL     OW56950   6.634   1.560   8.270
85018SOL    HW156951   6.582   1.547   8.349
85018SOL    HW256952   6.723   1.538   8.297
85019SOL     OW56953  11.302   7.608  11.660
85019SOL    HW156954  11.212   7.618  11.627
85019SOL    HW256955  11.353   7.672  11.612
85020SOL     OW56956  10.088   3.412   3.254
85020SOL    HW156957  10.011   3.362   3.227
85020SOL    HW256958  10.138   3.351   3.309
85021SOL     OW56959  14.285   9.428   0.587
85021SOL    HW156960  14.263   9.492   0.519
85021SOL    HW256961  14.207   9.374   0.595
85022SOL     OW56962  10.742   9.406   5.370
85022SOL    HW156963  10.784   9.480   5.328
85022SOL    HW256964  10.718   9.347   5.298
85023SOL     OW56965  10.171   3.898  13.811
85023SOL    HW156966  10.223   3.828  13.852
85023SOL    HW256967  10.160   3.870  13.720
85024SOL     OW56968  10.052   6.306   4.474
85024SOL    HW156969  10.032   6.338   4.386
85024SOL    HW256970  10.032   6.380   4.531
85025SOL     OW56971   8.910  10.815  11.175
85025SOL    HW156972   8.909  10.746  11.108
85025SOL    HW256973   8.959  10.886  11.135
85026SOL     OW56974   3.283   7.636   4.731
85026SOL    HW156975   3.265   7.569   4.798
85026SOL    HW256976   3.329   7.590   4.662
85027SOL     OW56977   0.971   6.308   9.475
85027SOL    HW156978   0.958   6.225   9.522
85027SOL    HW256979   0.899   6.310   9.412
85028SOL     OW56980   1.028   7.471   4.469
85028SOL    HW156981   1.048   7.497   4.380
85028SOL    HW256982   1.062   7.381   4.476
85029SOL     OW56983  12.342   8.647  12.964
85029SOL    HW156984  12.317   8.738  12.979
85029SOL    HW256985  12.365   8.643  12.871
85030SOL     OW56986   3.677  11.697  10.820
85030SOL    HW156987   3.729  11.741  10.754
85030SOL    HW256988   3.595  11.675  10.775
85031SOL     OW56989  13.558   3.025   8.717
85031SOL    HW156990  13.497   3.069   8.776
85031SOL    HW256991  13.522   2.938   8.705
85032SOL     OW56992   6.273   4.528  14.178
85032SOL    HW156993   6.360   4.549  14.212
85032SOL    HW256994   6.261   4.436  14.198
85033SOL     OW56995  14.506  10.393   6.001
85033SOL    HW156996  14.498  10.354   5.914
85033SOL    HW256997  14.504  10.487   5.985
85034SOL     OW56998   5.868  12.187   3.176
85034SOL    HW156999   5.786  12.235   3.184
85034SOL    HW257000   5.842  12.098   3.151
85035SOL     OW57001  14.244   9.164   1.907
85035SOL    HW157002  14.211   9.211   1.830
85035SOL    HW257003  14.313   9.107   1.873
85036SOL     OW57004   2.652   8.560   2.413
85036SOL    HW157005   2.727   8.519   2.370
85036SOL    HW257006   2.671   8.653   2.411
85037SOL     OW57007   0.919  11.859  12.737
85037SOL    HW157008   0.870  11.782  12.708
85037SOL    HW257009   0.854  11.915  12.779
85038SOL     OW57010  11.779   1.572   5.263
85038SOL    HW157011  11.866   1.588   5.298
85038SOL    HW257012  11.735   1.520   5.330
85039SOL     OW57013   6.857  13.658   9.808
85039SOL    HW157014   6.895  13.668   9.721
85039SOL    HW257015   6.916  13.707   9.866
85040SOL     OW57016   1.918   0.679  13.603
85040SOL    HW157017   1.954   0.623  13.534
85040SOL    HW257018   1.937   0.632  13.684
85041SOL     OW57019   2.163   7.568  12.530
85041SOL    HW157020   2.098   7.573  12.600
85041SOL    HW257021   2.222   7.498  12.556
85042SOL     OW57022   8.051   2.557   8.550
85042SOL    HW157023   8.023   2.645   8.576
85042SOL    HW257024   8.053   2.508   8.632
85043SOL     OW57025  14.376   5.467   2.004
85043SOL    HW157026  14.349   5.425   2.086
85043SOL    HW257027  14.428   5.543   2.031
85044SOL     OW57028  11.775   6.133   9.467
85044SOL    HW157029  11.848   6.140   9.405
85044SOL    HW257030  11.751   6.224   9.486
85045SOL     OW57031   4.918   5.391   9.249
85045SOL    HW157032   4.900   5.485   9.258
85045SOL    HW257033   5.006   5.387   9.212
85046SOL     OW57034   4.058   6.681   8.956
85046SOL    HW157035   3.981   6.687   8.900
85046SOL    HW257036   4.035   6.731   9.034
85047SOL     OW57037   2.050   3.267   0.204
85047SOL    HW157038   2.049   3.215   0.123
85047SOL    HW257039   2.141   3.294   0.215
85048SOL     OW57040  13.497   5.481  13.666
85048SOL    HW157041  13.408   5.493  13.633
85048SOL    HW257042  13.543   5.437  13.594
85049SOL     OW57043  12.331   6.846  10.134
85049SOL    HW157044  12.326   6.892  10.050
85049SOL    HW257045  12.423   6.825  10.145
85050SOL     OW57046   3.678   0.873  10.006
85050SOL    HW157047   3.736   0.798   9.992
85050SOL    HW257048   3.723   0.946   9.963
85051SOL     OW57049   1.839  11.366   8.502
85051SOL    HW157050   1.764  11.309   8.488
85051SOL    HW257051   1.846  11.374   8.597
85052SOL     OW57052  13.590   6.194   8.314
85052SOL    HW157053  13.570   6.285   8.338
85052SOL    HW257054  13.518   6.143   8.352
85053SOL     OW57055   7.210  12.372   6.150
85053SOL    HW157056   7.177  12.436   6.087
85053SOL    HW257057   7.144  12.303   6.151
85054SOL     OW57058   1.602   7.410   4.540
85054SOL    HW157059   1.513   7.447   4.536
85054SOL    HW257060   1.596   7.340   4.605
85055SOL     OW57061  11.325  14.525   2.169
85055SOL    HW157062  11.334  14.497   2.077
85055SOL    HW257063  11.284  14.611   2.163
85056SOL     OW57064   9.228   9.793   6.175
85056SOL    HW157065   9.186   9.878   6.192
85056SOL    HW257066   9.316   9.804   6.210
85057SOL     OW57067   5.926   5.786   5.993
85057SOL    HW157068   5.993   5.849   6.016
85057SOL    HW257069   5.906   5.741   6.076
85058SOL     OW57070  11.036   7.222   2.812
85058SOL    HW157071  10.979   7.263   2.877
85058SOL    HW257072  11.074   7.296   2.763
85059SOL     OW57073   8.087   5.726   7.559
85059SOL    HW157074   8.171   5.708   7.602
85059SOL    HW257075   8.098   5.813   7.521
85060SOL     OW57076   5.791   8.148  10.848
85060SOL    HW157077   5.731   8.100  10.790
85060SOL    HW257078   5.870   8.161  10.795
85061SOL     OW57079  12.743   1.696   7.493
85061SOL    HW157080  12.726   1.731   7.580
85061SOL    HW257081  12.681   1.624   7.483
85062SOL     OW57082   9.960   9.606  13.734
85062SOL    HW157083   9.916   9.577  13.814
85062SOL    HW257084  10.032   9.543  13.722
85063SOL     OW57085  11.507  13.468  11.537
85063SOL    HW157086  11.529  13.379  11.565
85063SOL    HW257087  11.490  13.515  11.619
85064SOL     OW57088   8.382  13.400   1.229
85064SOL    HW157089   8.390  13.487   1.268
85064SOL    HW257090   8.301  13.365   1.266
85065SOL     OW57091  11.743   0.511  14.664
85065SOL    HW157092  11.670   0.498  14.725
85065SOL    HW257093  11.712   0.472  14.582
85066SOL     OW57094   3.367   9.324  11.876
85066SOL    HW157095   3.462   9.337  11.882
85066SOL    HW257096   3.342   9.288  11.961
85067SOL     OW57097  10.533  14.864   0.876
85067SOL    HW157098  10.508  14.820   0.957
85067SOL    HW257099  10.612   0.033   0.899
85068SOL     OW57100   3.723   5.966   6.633
85068SOL    HW157101   3.731   6.017   6.714
85068SOL    HW257102   3.721   5.875   6.663
85069SOL     OW57103   7.766   3.064   9.879
85069SOL    HW157104   7.738   3.002   9.947
85069SOL    HW257105   7.710   3.044   9.804
85070SOL     OW57106   6.720  11.931   4.171
85070SOL    HW157107   6.635  11.893   4.192
85070SOL    HW257108   6.736  11.904   4.081
85071SOL     OW57109  14.795   8.219   5.611
85071SOL    HW157110  14.834   8.298   5.646
85071SOL    HW257111  14.770   8.168   5.688
85072SOL     OW57112  11.186   2.062   9.178
85072SOL    HW157113  11.244   1.993   9.146
85072SOL    HW257114  11.223   2.143   9.143
85073SOL     OW57115   0.364   9.079   5.583
85073SOL    HW157116   0.368   9.160   5.633
85073SOL    HW257117   0.402   9.103   5.498
85074SOL     OW57118   5.669  11.730   3.097
85074SOL    HW157119   5.761  11.749   3.083
85074SOL    HW257120   5.622  11.791   3.040
85075SOL     OW57121  14.315   6.812   1.399
85075SOL    HW157122  14.397   6.861   1.408
85075SOL    HW257123  14.340   6.721   1.413
85076SOL     OW57124   6.948   5.577   5.149
85076SOL    HW157125   6.920   5.488   5.125
85076SOL    HW257126   7.039   5.567   5.176
85077SOL     OW57127   6.944   8.610   7.179
85077SOL    HW157128   6.887   8.675   7.221
85077SOL    HW257129   6.952   8.541   7.244
85078SOL     OW57130   1.168   4.831   0.996
85078SOL    HW157131   1.090   4.822   1.051
85078SOL    HW257132   1.211   4.910   1.029
85079SOL     OW57133   8.283  13.611   0.144
85079SOL    HW157134   8.280  13.518   0.119
85079SOL    HW257135   8.224  13.654   0.082
85080SOL     OW57136  10.677   6.938  12.995
85080SOL    HW157137  10.666   6.849  12.962
85080SOL    HW257138  10.677   6.929  13.090
85081SOL     OW57139   8.849  13.503   7.210
85081SOL    HW157140   8.773  13.465   7.255
85081SOL    HW257141   8.913  13.431   7.207
85082SOL     OW57142  12.858   8.152   0.001
85082SOL    HW157143  12.887   8.148   0.092
85082SOL    HW257144  12.915   8.089  14.836
85083SOL     OW57145   0.604   9.018   3.468
85083SOL    HW157146   0.676   9.049   3.413
85083SOL    HW257147   0.578   8.935   3.428
85084SOL     OW57148   0.590  11.212  14.410
85084SOL    HW157149   0.495  11.215  14.401
85084SOL    HW257150   0.610  11.278  14.476
85085SOL     OW57151   5.090   7.420   3.825
85085SOL    HW157152   5.137   7.479   3.883
85085SOL    HW257153   5.157   7.382   3.769
85086SOL     OW57154  10.579   1.121  10.382
85086SOL    HW157155  10.666   1.080  10.374
85086SOL    HW257156  10.526   1.075  10.317
85087SOL     OW57157   8.425   6.398  13.161
85087SOL    HW157158   8.365   6.407  13.086
85087SOL    HW257159   8.452   6.488  13.180
85088SOL     OW57160   7.394  10.478   4.611
85088SOL    HW157161   7.445  10.411   4.657
85088SOL    HW257162   7.350  10.527   4.680
85089SOL     OW57163  11.871  12.834   3.005
85089SOL    HW157164  11.955  12.855   3.046
85089SOL    HW257165  11.816  12.910   3.024
85090SOL     OW57166   4.079   4.463   4.272
85090SOL    HW157167   4.019   4.393   4.247
85090SOL    HW257168   4.077   4.523   4.197
85091SOL     OW57169  11.284  10.762  13.578
85091SOL    HW157170  11.325  10.844  13.604
85091SOL    HW257171  11.357  10.703  13.560
85092SOL     OW57172  13.056   4.672   9.873
85092SOL    HW157173  12.968   4.670   9.911
85092SOL    HW257174  13.063   4.591   9.824
85093SOL     OW57175   2.419   4.212   2.858
85093SOL    HW157176   2.491   4.236   2.916
85093SOL    HW257177   2.363   4.156   2.911
85094SOL     OW57178  13.885   3.540   1.442
85094SOL    HW157179  13.910   3.492   1.521
85094SOL    HW257180  13.841   3.619   1.475
85095SOL     OW57181   1.572  13.219   2.302
85095SOL    HW157182   1.636  13.179   2.243
85095SOL    HW257183   1.596  13.312   2.304
85096SOL     OW57184   8.837   2.300   3.834
85096SOL    HW157185   8.790   2.291   3.751
85096SOL    HW257186   8.773   2.338   3.894
85097SOL     OW57187   4.786  13.057  14.549
85097SOL    HW157188   4.879  13.070  14.569
85097SOL    HW257189   4.745  13.041  14.634
85098SOL     OW57190   4.581   6.331   0.475
85098SOL    HW157191   4.508   6.275   0.500
85098SOL    HW257192   4.623   6.355   0.559
85099SOL     OW57193   8.078  13.127   9.947
85099SOL    HW157194   8.087  13.208   9.896
85099SOL    HW257195   8.007  13.080   9.904
85100SOL     OW57196   9.702   5.480  10.876
85100SOL    HW157197   9.793   5.503  10.894
85100SOL    HW257198   9.652   5.523  10.946
85101SOL     OW57199  11.888   3.369   3.582
85101SOL    HW157200  11.806   3.321   3.575
85101SOL    HW257201  11.955   3.307   3.552
85102SOL     OW57202   5.924   3.939   8.972
85102SOL    HW157203   5.992   3.876   8.947
85102SOL    HW257204   5.842   3.888   8.969
85103SOL     OW57205   8.136  13.561   5.715
85103SOL    HW157206   8.156  13.469   5.731
85103SOL    HW257207   8.208  13.609   5.757
85104SOL     OW57208   2.267  12.746  11.625
85104SOL    HW157209   2.181  12.716  11.597
85104SOL    HW257210   2.269  12.730  11.720
85105SOL     OW57211   8.931   4.285  10.024
85105SOL    HW157212   8.958   4.338   9.950
85105SOL    HW257213   8.859   4.231   9.991
85106SOL     OW57214   3.871   9.767  14.820
85106SOL    HW157215   3.850   9.843  14.875
85106SOL    HW257216   3.932   9.802  14.754
85107SOL     OW57217   2.397  12.066   3.573
85107SOL    HW157218   2.391  11.970   3.573
85107SOL    HW257219   2.310  12.095   3.547
85108SOL     OW57220   0.135   5.705   6.304
85108SOL    HW157221   0.194   5.630   6.293
85108SOL    HW257222   0.073   5.698   6.232
85109SOL     OW57223   5.626  12.282   7.555
85109SOL    HW157224   5.566  12.258   7.485
85109SOL    HW257225   5.572  12.329   7.618
85110SOL     OW57226   6.970  12.616  13.334
85110SOL    HW157227   7.038  12.591  13.272
85110SOL    HW257228   6.976  12.551  13.404
85111SOL     OW57229   1.923   3.058   6.739
85111SOL    HW157230   1.869   3.042   6.817
85111SOL    HW257231   1.928   2.973   6.696
85112SOL     OW57232   3.799   6.273  14.628
85112SOL    HW157233   3.739   6.343  14.603
85112SOL    HW257234   3.844   6.306  14.706
85113SOL     OW57235  13.973   3.467   1.027
85113SOL    HW157236  13.960   3.417   1.108
85113SOL    HW257237  14.057   3.435   0.994
85114SOL     OW57238   7.754  14.109   2.370
85114SOL    HW157239   7.836  14.064   2.392
85114SOL    HW257240   7.714  14.128   2.455
85115SOL     OW57241   5.583  11.393   9.463
85115SOL    HW157242   5.488  11.408   9.465
85115SOL    HW257243   5.621  11.480   9.470
85116SOL     OW57244   8.635  13.156  12.031
85116SOL    HW157245   8.611  13.217  12.101
85116SOL    HW257246   8.629  13.070  12.072
85117SOL     OW57247   3.064   6.712  10.936
85117SOL    HW157248   3.000   6.783  10.944
85117SOL    HW257249   3.145   6.748  10.970
85118SOL     OW57250  12.947   8.793  14.856
85118SOL    HW157251  12.894   8.717  14.831
85118SOL    HW257252  13.011   8.802  14.786
85119SOL     OW57253   2.391  13.413   0.938
85119SOL    HW157254   2.301  13.437   0.918
85119SOL    HW257255   2.426  13.487   0.987
85120SOL     OW57256   4.785   2.605   8.340
85120SOL    HW157257   4.704   2.627   8.385
85120SOL    HW257258   4.806   2.683   8.288
85121SOL     OW57259   1.996   0.201  12.538
85121SOL    HW157260   2.065   0.260  12.506
85121SOL    HW257261   1.941   0.186  12.462
85122SOL     OW57262  10.252  13.038   8.245
85122SOL    HW157263  10.290  13.033   8.158
85122SOL    HW257264  10.178  12.977   8.242
85123SOL     OW57265   4.431   6.840  10.225
85123SOL    HW157266   4.505   6.792  10.189
85123SOL    HW257267   4.402   6.788  10.300
85124SOL     OW57268   4.037  10.933   5.208
85124SOL    HW157269   4.100  10.876   5.164
85124SOL    HW257270   3.952  10.899   5.181
85125SOL     OW57271   5.884   9.358   2.425
85125SOL    HW157272   5.966   9.336   2.381
85125SOL    HW257273   5.911   9.386   2.512
85126SOL     OW57274   4.730  10.755  13.810
85126SOL    HW157275   4.789  10.753  13.885
85126SOL    HW257276   4.646  10.723  13.845
85127SOL     OW57277  14.619   5.752  13.196
85127SOL    HW157278  14.633   5.664  13.160
85127SOL    HW257279  14.605   5.807  13.119
85128SOL     OW57280   0.755   1.988   3.496
85128SOL    HW157281   0.786   2.046   3.566
85128SOL    HW257282   0.835   1.963   3.449
85129SOL     OW57283  13.794   6.965  11.098
85129SOL    HW157284  13.780   6.870  11.105
85129SOL    HW257285  13.853   6.975  11.024
85130SOL     OW57286   8.417  11.257   4.656
85130SOL    HW157287   8.375  11.270   4.741
85130SOL    HW257288   8.456  11.170   4.661
85131SOL     OW57289   8.055  14.479  10.685
85131SOL    HW157290   7.961  14.473  10.704
85131SOL    HW257291   8.059  14.520  10.599
85132SOL     OW57292   9.466  12.526   4.613
85132SOL    HW157293   9.495  12.599   4.559
85132SOL    HW257294   9.494  12.448   4.565
85133SOL     OW57295   1.768   3.974   6.093
85133SOL    HW157296   1.677   4.001   6.103
85133SOL    HW257297   1.764   3.879   6.081
85134SOL     OW57298   6.373   9.380   8.950
85134SOL    HW157299   6.469   9.387   8.953
85134SOL    HW257300   6.343   9.471   8.945
85135SOL     OW57301  13.678   5.015   9.034
85135SOL    HW157302  13.622   4.939   9.024
85135SOL    HW257303  13.723   5.023   8.950
85136SOL     OW57304   4.167  10.841   7.006
85136SOL    HW157305   4.156  10.811   6.915
85136SOL    HW257306   4.091  10.897   7.022
85137SOL     OW57307   7.532  11.763   6.644
85137SOL    HW157308   7.578  11.788   6.723
85137SOL    HW257309   7.596  11.774   6.574
85138SOL     OW57310  14.754   2.191   0.204
85138SOL    HW157311  14.725   2.132   0.274
85138SOL    HW257312  14.827   2.146   0.162
85139SOL     OW57313  14.823   3.029   6.988
85139SOL    HW157314  14.745   2.986   6.955
85139SOL    HW257315   0.003   2.957   7.009
85140SOL     OW57316  14.423  14.745   1.124
85140SOL    HW157317  14.428  14.824   1.070
85140SOL    HW257318  14.338  14.707   1.103
85141SOL     OW57319   2.403   3.100   4.918
85141SOL    HW157320   2.405   3.172   4.854
85141SOL    HW257321   2.468   3.038   4.887
85142SOL     OW57322   7.310   1.391   9.171
85142SOL    HW157323   7.371   1.461   9.193
85142SOL    HW257324   7.345   1.353   9.091
85143SOL     OW57325   7.298   5.772  13.638
85143SOL    HW157326   7.217   5.776  13.587
85143SOL    HW257327   7.280   5.824  13.716
85144SOL     OW57328   0.536   8.471   0.768
85144SOL    HW157329   0.460   8.445   0.821
85144SOL    HW257330   0.498   8.501   0.685
85145SOL     OW57331   6.017   6.742   2.478
85145SOL    HW157332   6.109   6.766   2.486
85145SOL    HW257333   6.007   6.714   2.387
85146SOL     OW57334   0.213  12.783   3.938
85146SOL    HW157335   0.246  12.741   3.859
85146SOL    HW257336   0.155  12.852   3.906
85147SOL     OW57337   4.272   4.199  14.384
85147SOL    HW157338   4.320   4.197  14.301
85147SOL    HW257339   4.183   4.172  14.361
85148SOL     OW57340   4.042   8.186  11.760
85148SOL    HW157341   4.097   8.129  11.706
85148SOL    HW257342   3.957   8.185  11.716
85149SOL     OW57343  10.310   0.933   2.193
85149SOL    HW157344  10.281   1.006   2.248
85149SOL    HW257345  10.323   0.860   2.253
85150SOL     OW57346   1.213   8.608  12.188
85150SOL    HW157347   1.234   8.696  12.157
85150SOL    HW257348   1.219   8.552  12.111
85151SOL     OW57349  14.636   1.003   4.409
85151SOL    HW157350  14.608   0.917   4.379
85151SOL    HW257351  14.696   0.985   4.482
85152SOL     OW57352   2.355  12.533   6.647
85152SOL    HW157353   2.418  12.551   6.578
85152SOL    HW257354   2.385  12.584   6.722
85153SOL     OW57355  12.610   2.703  14.866
85153SOL    HW157356  12.672   2.660  14.808
85153SOL    HW257357  12.659   2.720   0.067
85154SOL     OW57358   6.217   3.213  12.628
85154SOL    HW157359   6.275   3.172  12.564
85154SOL    HW257360   6.170   3.280  12.579
85155SOL     OW57361  14.625   5.545   5.386
85155SOL    HW157362  14.656   5.620   5.437
85155SOL    HW257363  14.647   5.469   5.441
85156SOL     OW57364  13.567  14.159   7.239
85156SOL    HW157365  13.657  14.130   7.252
85156SOL    HW257366  13.575  14.249   7.206
85157SOL     OW57367  13.705   6.332   3.024
85157SOL    HW157368  13.744   6.375   3.100
85157SOL    HW257369  13.750   6.248   3.018
85158SOL     OW57370  10.956   3.791   1.553
85158SOL    HW157371  11.008   3.775   1.474
85158SOL    HW257372  10.964   3.885   1.568
85159SOL     OW57373   1.061  11.291   8.875
85159SOL    HW157374   1.061  11.220   8.939
85159SOL    HW257375   1.022  11.253   8.797
85160SOL     OW57376  13.757  10.368   8.392
85160SOL    HW157377  13.666  10.342   8.404
85160SOL    HW257378  13.793  10.373   8.481
85161SOL     OW57379  12.501   3.802   1.904
85161SOL    HW157380  12.545   3.846   1.831
85161SOL    HW257381  12.551   3.721   1.918
85162SOL     OW57382   0.631   1.491  11.173
85162SOL    HW157383   0.573   1.568  11.173
85162SOL    HW257384   0.659   1.484  11.265
85163SOL     OW57385   7.544  12.182  13.029
85163SOL    HW157386   7.516  12.101  12.986
85163SOL    HW257387   7.637  12.169  13.047
85164SOL     OW57388  12.290   0.645   6.146
85164SOL    HW157389  12.358   0.709   6.126
85164SOL    HW257390  12.209   0.688   6.119
85165SOL     OW57391   0.250   5.142   3.729
85165SOL    HW157392   0.176   5.098   3.770
85165SOL    HW257393   0.272   5.088   3.653
85166SOL     OW57394   2.839  14.372   3.535
85166SOL    HW157395   2.775  14.302   3.545
85166SOL    HW257396   2.801  14.446   3.583
85167SOL     OW57397   0.936   9.962   0.511
85167SOL    HW157398   0.978   9.881   0.482
85167SOL    HW257399   1.004  10.009   0.558
85168SOL     OW57400  14.282  13.112   5.298
85168SOL    HW157401  14.351  13.066   5.346
85168SOL    HW257402  14.214  13.129   5.364
85169SOL     OW57403  10.486   1.510   6.838
85169SOL    HW157404  10.448   1.592   6.871
85169SOL    HW257405  10.494   1.524   6.744
85170SOL     OW57406   4.446   8.270   1.093
85170SOL    HW157407   4.366   8.221   1.112
85170SOL    HW257408   4.508   8.204   1.062
85171SOL     OW57409  10.465   7.299   9.792
85171SOL    HW157410  10.499   7.359   9.859
85171SOL    HW257411  10.474   7.212   9.831
85172SOL     OW57412   7.546  11.726  13.933
85172SOL    HW157413   7.541  11.638  13.895
85172SOL    HW257414   7.640  11.747  13.929
85173SOL     OW57415  14.221  13.672  14.842
85173SOL    HW157416  14.280  13.675   0.038
85173SOL    HW257417  14.166  13.595  14.858
85174SOL     OW57418   0.725  13.313  10.913
85174SOL    HW157419   0.688  13.264  10.987
85174SOL    HW257420   0.712  13.405  10.938
85175SOL     OW57421   4.210   1.139   0.217
85175SOL    HW157422   4.180   1.097   0.297
85175SOL    HW257423   4.270   1.208   0.247
85176SOL     OW57424   7.146  11.751  10.253
85176SOL    HW157425   7.238  11.763  10.277
85176SOL    HW257426   7.125  11.662  10.283
85177SOL     OW57427   8.665   5.295   7.518
85177SOL    HW157428   8.673   5.370   7.459
85177SOL    HW257429   8.638   5.223   7.461
85178SOL     OW57430  13.955   2.692  14.278
85178SOL    HW157431  13.923   2.709  14.189
85178SOL    HW257432  14.050   2.690  14.270
85179SOL     OW57433  10.374  11.813   6.234
85179SOL    HW157434  10.376  11.745   6.168
85179SOL    HW257435  10.305  11.785   6.295
85180SOL     OW57436   1.050   9.128   4.958
85180SOL    HW157437   0.962   9.165   4.965
85180SOL    HW257438   1.081   9.122   5.049
85181SOL     OW57439  12.931  13.248   1.921
85181SOL    HW157440  12.934  13.291   1.835
85181SOL    HW257441  12.874  13.172   1.907
85182SOL     OW57442  14.368  13.059   6.091
85182SOL    HW157443  14.373  13.028   6.000
85182SOL    HW257444  14.438  13.125   6.098
85183SOL     OW57445  12.882  14.081   2.721
85183SOL    HW157446  12.933  14.063   2.642
85183SOL    HW257447  12.826  14.155   2.697
85184SOL     OW57448   9.251   6.542   1.556
85184SOL    HW157449   9.173   6.559   1.504
85184SOL    HW257450   9.241   6.452   1.586
85185SOL     OW57451   7.334   2.465   5.941
85185SOL    HW157452   7.280   2.475   6.020
85185SOL    HW257453   7.394   2.540   5.943
85186SOL     OW57454  13.913   5.931  14.336
85186SOL    HW157455  13.925   5.858  14.275
85186SOL    HW257456  13.979   5.917  14.404
85187SOL     OW57457  14.029  11.457   4.034
85187SOL    HW157458  14.062  11.389   4.093
85187SOL    HW257459  13.969  11.411   3.975
85188SOL     OW57460   1.187  13.549  12.741
85188SOL    HW157461   1.142  13.605  12.805
85188SOL    HW257462   1.277  13.544  12.774
85189SOL     OW57463   7.307   7.523   1.237
85189SOL    HW157464   7.230   7.473   1.266
85189SOL    HW257465   7.338   7.567   1.316
85190SOL     OW57466   2.452   7.853  13.570
85190SOL    HW157467   2.541   7.818  13.571
85190SOL    HW257468   2.408   7.807  13.641
85191SOL     OW57469   3.236   9.256   4.651
85191SOL    HW157470   3.213   9.330   4.707
85191SOL    HW257471   3.262   9.187   4.712
85192SOL     OW57472   1.228   8.353  13.560
85192SOL    HW157473   1.277   8.355  13.642
85192SOL    HW257474   1.211   8.260  13.544
85193SOL     OW57475  13.928  12.255  12.911
85193SOL    HW157476  13.914  12.163  12.934
85193SOL    HW257477  13.979  12.290  12.983
85194SOL     OW57478  11.427  11.543  12.175
85194SOL    HW157479  11.391  11.595  12.103
85194SOL    HW257480  11.377  11.570  12.252
85195SOL     OW57481  13.657  13.891   1.932
85195SOL    HW157482  13.607  13.938   1.998
85195SOL    HW257483  13.681  13.809   1.975
85196SOL     OW57484   2.961   6.132   0.793
85196SOL    HW157485   2.890   6.131   0.857
85196SOL    HW257486   3.032   6.178   0.836
85197SOL     OW57487  10.001  11.170  12.903
85197SOL    HW157488   9.994  11.093  12.846
85197SOL    HW257489   9.949  11.237  12.860
85198SOL     OW57490   0.812  12.387  13.080
85198SOL    HW157491   0.824  12.407  13.173
85198SOL    HW257492   0.863  12.308  13.067
85199SOL     OW57493  12.555  11.518   7.237
85199SOL    HW157494  12.484  11.565   7.280
85199SOL    HW257495  12.596  11.466   7.306
85200SOL     OW57496   0.832  13.884  11.598
85200SOL    HW157497   0.922  13.909  11.579
85200SOL    HW257498   0.831  13.788  11.589
85201SOL     OW57499  14.466  13.391  13.570
85201SOL    HW157500  14.551  13.361  13.601
85201SOL    HW257501  14.473  13.390  13.475
85202SOL     OW57502   4.138   6.490  11.173
85202SOL    HW157503   4.081   6.445  11.235
85202SOL    HW257504   4.087   6.567  11.147
85203SOL     OW57505  12.974   7.947   0.626
85203SOL    HW157506  12.914   7.962   0.699
85203SOL    HW257507  13.051   7.908   0.667
85204SOL     OW57508   3.122  10.440   0.322
85204SOL    HW157509   3.174  10.454   0.243
85204SOL    HW257510   3.164  10.367   0.366
85205SOL     OW57511   0.219   6.628   9.163
85205SOL    HW157512   0.306   6.599   9.138
85205SOL    HW257513   0.227   6.723   9.172
85206SOL     OW57514   8.350  13.442   9.183
85206SOL    HW157515   8.402  13.363   9.168
85206SOL    HW257516   8.328  13.473   9.095
85207SOL     OW57517   3.577  13.304   1.828
85207SOL    HW157518   3.555  13.274   1.740
85207SOL    HW257519   3.632  13.381   1.815
85208SOL     OW57520   1.645   2.151  12.781
85208SOL    HW157521   1.694   2.231  12.763
85208SOL    HW257522   1.679   2.088  12.718
85209SOL     OW57523  12.789   7.786   4.009
85209SOL    HW157524  12.746   7.831   3.936
85209SOL    HW257525  12.811   7.855   4.071
85210SOL     OW57526   9.615   7.565   0.623
85210SOL    HW157527   9.569   7.625   0.565
85210SOL    HW257528   9.706   7.567   0.593
85211SOL     OW57529   0.835   9.621  14.797
85211SOL    HW157530   0.908   9.566  14.769
85211SOL    HW257531   0.833   9.611   0.012
85212SOL     OW57532   8.316   8.390  10.661
85212SOL    HW157533   8.222   8.408  10.672
85212SOL    HW257534   8.359   8.471  10.686
85213SOL     OW57535   2.339   3.125   8.956
85213SOL    HW157536   2.382   3.147   8.874
85213SOL    HW257537   2.408   3.132   9.022
85214SOL     OW57538  10.490  12.037  11.853
85214SOL    HW157539  10.423  11.999  11.797
85214SOL    HW257540  10.467  12.008  11.941
85215SOL     OW57541   4.231  10.067   5.264
85215SOL    HW157542   4.158  10.005   5.263
85215SOL    HW257543   4.292  10.033   5.197
85216SOL     OW57544  10.979   2.404  13.819
85216SOL    HW157545  10.980   2.312  13.793
85216SOL    HW257546  10.945   2.403  13.908
85217SOL     OW57547   5.475  10.690  11.629
85217SOL    HW157548   5.485  10.636  11.550
85217SOL    HW257549   5.534  10.764  11.615
85218SOL     OW57550   9.804  14.748   1.031
85218SOL    HW157551   9.732  14.711   0.979
85218SOL    HW257552   9.766  14.825   1.073
85219SOL     OW57553  12.004  10.137  14.843
85219SOL    HW157554  11.997  10.209   0.026
85219SOL    HW257555  12.052  10.174  14.769
85220SOL     OW57556   8.528   8.828  14.544
85220SOL    HW157557   8.438   8.797  14.549
85220SOL    HW257558   8.578   8.753  14.512
85221SOL     OW57559   5.316   1.421   0.110
85221SOL    HW157560   5.346   1.423   0.201
85221SOL    HW257561   5.373   1.483   0.065
85222SOL     OW57562   9.107   0.815  13.212
85222SOL    HW157563   9.201   0.831  13.204
85222SOL    HW257564   9.098   0.767  13.294
85223SOL     OW57565  12.322   6.908   1.583
85223SOL    HW157566  12.282   6.953   1.657
85223SOL    HW257567  12.252   6.902   1.518
85224SOL     OW57568  10.210  10.073   2.035
85224SOL    HW157569  10.156  10.148   2.014
85224SOL    HW257570  10.292  10.111   2.068
85225SOL     OW57571  11.369   9.625  11.411
85225SOL    HW157572  11.421   9.700  11.439
85225SOL    HW257573  11.317   9.658  11.338
85226SOL     OW57574   2.120   4.220   2.214
85226SOL    HW157575   2.213   4.203   2.198
85226SOL    HW257576   2.087   4.138   2.251
85227SOL     OW57577   5.604  13.266  12.254
85227SOL    HW157578   5.696  13.241  12.250
85227SOL    HW257579   5.586  13.275  12.348
85228SOL     OW57580  10.889  11.154   5.637
85228SOL    HW157581  10.820  11.107   5.590
85228SOL    HW257582  10.969  11.137   5.586
85229SOL     OW57583  13.275   5.554  12.534
85229SOL    HW157584  13.322   5.479  12.497
85229SOL    HW257585  13.183   5.530  12.527
85230SOL     OW57586  14.278   9.216   2.349
85230SOL    HW157587  14.216   9.225   2.276
85230SOL    HW257588  14.245   9.277   2.415
85231SOL     OW57589   2.938   2.518   0.229
85231SOL    HW157590   2.982   2.440   0.263
85231SOL    HW257591   2.996   2.549   0.159
85232SOL     OW57592   0.107   3.453  12.265
85232SOL    HW157593   0.109   3.528  12.207
85232SOL    HW257594   0.162   3.387  12.222
85233SOL     OW57595   8.509   7.961   0.856
85233SOL    HW157596   8.503   8.016   0.934
85233SOL    HW257597   8.592   7.915   0.866
85234SOL     OW57598   3.291  13.175   5.494
85234SOL    HW157599   3.267  13.115   5.424
85234SOL    HW257600   3.387  13.176   5.493
85235SOL     OW57601  10.450  13.882   1.718
85235SOL    HW157602  10.471  13.973   1.738
85235SOL    HW257603  10.481  13.869   1.629
85236SOL     OW57604  14.718   4.817   7.721
85236SOL    HW157605  14.784   4.864   7.671
85236SOL    HW257606  14.645   4.878   7.730
85237SOL     OW57607   7.934   7.298  14.346
85237SOL    HW157608   7.917   7.223  14.402
85237SOL    HW257609   7.874   7.365  14.376
85238SOL     OW57610   2.336   9.985   3.252
85238SOL    HW157611   2.301   9.965   3.339
85238SOL    HW257612   2.429  10.002   3.267
85239SOL     OW57613  10.417  12.837  13.345
85239SOL    HW157614  10.332  12.795  13.360
85239SOL    HW257615  10.473  12.767  13.310
85240SOL     OW57616  13.578  14.667  10.352
85240SOL    HW157617  13.557  14.584  10.309
85240SOL    HW257618  13.572  14.648  10.446
85241SOL     OW57619   1.756   7.903  11.812
85241SOL    HW157620   1.765   7.985  11.764
85241SOL    HW257621   1.694   7.922  11.883
85242SOL     OW57622   4.880  13.546   2.908
85242SOL    HW157623   4.880  13.480   2.839
85242SOL    HW257624   4.940  13.512   2.974
85243SOL     OW57625  12.787   6.329  13.880
85243SOL    HW157626  12.711   6.372  13.918
85243SOL    HW257627  12.853   6.332  13.950
85244SOL     OW57628  12.808   0.772  11.956
85244SOL    HW157629  12.733   0.716  11.935
85244SOL    HW257630  12.876   0.710  11.984
85245SOL     OW57631  11.736   5.137   5.857
85245SOL    HW157632  11.818   5.114   5.814
85245SOL    HW257633  11.690   5.193   5.794
85246SOL     OW57634  10.806  12.516   5.489
85246SOL    HW157635  10.756  12.470   5.422
85246SOL    HW257636  10.743  12.531   5.560
85247SOL     OW57637   7.650   0.685  10.692
85247SOL    HW157638   7.672   0.638  10.611
85247SOL    HW257639   7.693   0.770  10.683
85248SOL     OW57640   1.317  14.757  14.870
85248SOL    HW157641   1.385  14.739   0.056
85248SOL    HW257642   1.365  14.789  14.794
85249SOL     OW57643   8.522   2.942  10.908
85249SOL    HW157644   8.617   2.933  10.901
85249SOL    HW257645   8.487   2.885  10.840
85250SOL     OW57646   0.406   7.066   3.291
85250SOL    HW157647   0.365   6.985   3.261
85250SOL    HW257648   0.364   7.134   3.238
85251SOL     OW57649  11.517  13.248   7.916
85251SOL    HW157650  11.592  13.246   7.856
85251SOL    HW257651  11.552  13.218   7.999
85252SOL     OW57652   4.426   4.578  14.316
85252SOL    HW157653   4.339   4.577  14.355
85252SOL    HW257654   4.475   4.510  14.363
85253SOL     OW57655  14.082  14.544   9.092
85253SOL    HW157656  14.080  14.620   9.033
85253SOL    HW257657  14.141  14.482   9.049
85254SOL     OW57658   9.017   9.353   2.657
85254SOL    HW157659   9.082   9.421   2.641
85254SOL    HW257660   8.952   9.366   2.588
85255SOL     OW57661  14.261   7.529   9.576
85255SOL    HW157662  14.297   7.618   9.576
85255SOL    HW257663  14.333   7.475   9.542
85256SOL     OW57664   8.568   9.971   4.950
85256SOL    HW157665   8.489   9.957   4.898
85256SOL    HW257666   8.569   9.898   5.012
85257SOL     OW57667   8.433  11.902   9.862
85257SOL    HW157668   8.416  11.918   9.955
85257SOL    HW257669   8.433  11.989   9.823
85258SOL     OW57670   7.221   3.643  13.912
85258SOL    HW157671   7.297   3.610  13.961
85258SOL    HW257672   7.198   3.725  13.956
85259SOL     OW57673  10.411  10.008   9.327
85259SOL    HW157674  10.462  10.047   9.255
85259SOL    HW257675  10.456   9.925   9.345
85260SOL     OW57676   7.615  11.447  11.085
85260SOL    HW157677   7.548  11.487  11.141
85260SOL    HW257678   7.629  11.361  11.124
85261SOL     OW57679  13.033   7.711   2.981
85261SOL    HW157680  12.980   7.658   2.921
85261SOL    HW257681  13.057   7.789   2.931
85262SOL     OW57682  12.125   2.761   5.143
85262SOL    HW157683  12.171   2.832   5.187
85262SOL    HW257684  12.070   2.722   5.210
85263SOL     OW57685   6.597   9.270   0.003
85263SOL    HW157686   6.516   9.291  14.835
85263SOL    HW257687   6.631   9.356   0.029
85264SOL     OW57688  10.686   9.510   2.163
85264SOL    HW157689  10.606   9.563   2.154
85264SOL    HW257690  10.724   9.537   2.246
85265SOL     OW57691   7.937   8.991   5.697
85265SOL    HW157692   7.994   9.024   5.627
85265SOL    HW257693   7.995   8.939   5.753
85266SOL     OW57694   0.179   8.345   6.555
85266SOL    HW157695   0.140   8.422   6.596
85266SOL    HW257696   0.141   8.343   6.467
85267SOL     OW57697   9.187   5.759   7.348
85267SOL    HW157698   9.127   5.783   7.278
85267SOL    HW257699   9.263   5.815   7.336
85268SOL     OW57700   3.062   9.657   2.994
85268SOL    HW157701   3.142   9.703   2.972
85268SOL    HW257702   3.001   9.726   3.020
85269SOL     OW57703  11.407   6.975   1.496
85269SOL    HW157704  11.317   6.984   1.529
85269SOL    HW257705  11.460   6.961   1.575
85270SOL     OW57706  11.859   9.134   2.941
85270SOL    HW157707  11.940   9.177   2.968
85270SOL    HW257708  11.861   9.050   2.987
85271SOL     OW57709   4.848   6.248  13.758
85271SOL    HW157710   4.790   6.173  13.775
85271SOL    HW257711   4.934   6.219  13.791
85272SOL     OW57712  11.551   6.748   5.044
85272SOL    HW157713  11.621   6.806   5.074
85272SOL    HW257714  11.540   6.769   4.952
85273SOL     OW57715  12.580   0.380  11.374
85273SOL    HW157716  12.610   0.294  11.403
85273SOL    HW257717  12.511   0.361  11.311
85274SOL     OW57718   2.740   4.331  13.319
85274SOL    HW157719   2.721   4.375  13.236
85274SOL    HW257720   2.665   4.274  13.334
85275SOL     OW57721  10.808  13.258   2.127
85275SOL    HW157722  10.782  13.346   2.100
85275SOL    HW257723  10.785  13.254   2.220
85276SOL     OW57724   1.302   9.395   3.131
85276SOL    HW157725   1.216   9.413   3.092
85276SOL    HW257726   1.364   9.421   3.063
85277SOL     OW57727  10.929   0.712   3.411
85277SOL    HW157728  10.925   0.636   3.354
85277SOL    HW257729  11.020   0.742   3.406
85278SOL     OW57730  10.736  11.067   6.115
85278SOL    HW157731  10.803  11.135   6.112
85278SOL    HW257732  10.771  11.001   6.175
85279SOL     OW57733   4.188  13.376  10.008
85279SOL    HW157734   4.189  13.471   9.996
85279SOL    HW257735   4.143  13.343   9.931
85280SOL     OW57736   2.102  10.709  11.369
85280SOL    HW157737   2.022  10.721  11.319
85280SOL    HW257738   2.079  10.648  11.439
85281SOL     OW57739  10.220  14.447   2.718
85281SOL    HW157740  10.284  14.385   2.753
85281SOL    HW257741  10.243  14.454   2.625
85282SOL     OW57742   2.357   3.917   6.811
85282SOL    HW157743   2.433   3.976   6.818
85282SOL    HW257744   2.392   3.838   6.770
85283SOL     OW57745   3.609   7.657   6.026
85283SOL    HW157746   3.581   7.698   6.108
85283SOL    HW257747   3.546   7.585   6.013
85284SOL     OW57748   9.419   4.719   9.531
85284SOL    HW157749   9.411   4.752   9.441
85284SOL    HW257750   9.487   4.651   9.525
85285SOL     OW57751   4.703   6.594   5.772
85285SOL    HW157752   4.654   6.520   5.735
85285SOL    HW257753   4.699   6.661   5.704
85286SOL     OW57754  13.627  12.213   8.918
85286SOL    HW157755  13.676  12.274   8.863
85286SOL    HW257756  13.615  12.259   9.001
85287SOL     OW57757  13.828   4.209   4.409
85287SOL    HW157758  13.868   4.122   4.397
85287SOL    HW257759  13.856   4.258   4.332
85288SOL     OW57760  11.696   7.451   2.630
85288SOL    HW157761  11.609   7.417   2.652
85288SOL    HW257762  11.732   7.481   2.713
85289SOL     OW57763   5.118   9.362   9.376
85289SOL    HW157764   5.052   9.334   9.312
85289SOL    HW257765   5.201   9.338   9.336
85290SOL     OW57766   4.883   8.147   0.265
85290SOL    HW157767   4.844   8.180   0.184
85290SOL    HW257768   4.818   8.086   0.300
85291SOL     OW57769   1.457  13.978   2.734
85291SOL    HW157770   1.478  14.060   2.689
85291SOL    HW257771   1.530  13.965   2.795
85292SOL     OW57772  13.646   7.445  14.184
85292SOL    HW157773  13.564   7.494  14.188
85292SOL    HW257774  13.697   7.490  14.116
85293SOL     OW57775   1.001   0.440  11.366
85293SOL    HW157776   1.083   0.479  11.394
85293SOL    HW257777   1.024   0.353  11.333
85294SOL     OW57778   0.000  14.682   6.323
85294SOL    HW157779  14.875  14.752   6.388
85294SOL    HW257780   0.006  14.601   6.375
85295SOL     OW57781  12.108  10.291   8.588
85295SOL    HW157782  12.151  10.268   8.505
85295SOL    HW257783  12.146  10.376   8.611
85296SOL     OW57784   7.921   4.354   6.418
85296SOL    HW157785   7.933   4.425   6.481
85296SOL    HW257786   7.965   4.384   6.339
85297SOL     OW57787  13.472  10.185   3.458
85297SOL    HW157788  13.399  10.200   3.398
85297SOL    HW257789  13.544  10.234   3.419
85298SOL     OW57790   3.553   9.068   8.093
85298SOL    HW157791   3.501   9.025   8.025
85298SOL    HW257792   3.507   9.051   8.174
85299SOL     OW57793   5.392  10.272  13.960
85299SOL    HW157794   5.311  10.220  13.968
85299SOL    HW257795   5.462  10.207  13.960
85300SOL     OW57796   7.252  13.616   8.674
85300SOL    HW157797   7.294  13.593   8.592
85300SOL    HW257798   7.242  13.533   8.720
85301SOL     OW57799   3.291   2.664  11.893
85301SOL    HW157800   3.342   2.616  11.959
85301SOL    HW257801   3.357   2.700  11.833
85302SOL     OW57802   6.913   5.955  10.945
85302SOL    HW157803   6.834   5.981  10.993
85302SOL    HW257804   6.920   5.861  10.960
85303SOL     OW57805   0.838  13.448   6.270
85303SOL    HW157806   0.823  13.360   6.305
85303SOL    HW257807   0.750  13.484   6.257
85304SOL     OW57808   0.716   9.588  12.446
85304SOL    HW157809   0.731   9.609  12.354
85304SOL    HW257810   0.782   9.523  12.468
85305SOL     OW57811   6.684   5.142  11.989
85305SOL    HW157812   6.631   5.221  12.001
85305SOL    HW257813   6.636   5.073  12.035
85306SOL     OW57814  14.377  10.327   4.535
85306SOL    HW157815  14.292  10.284   4.540
85306SOL    HW257816  14.376  10.371   4.450
85307SOL     OW57817   1.289  11.351   3.767
85307SOL    HW157818   1.267  11.362   3.674
85307SOL    HW257819   1.233  11.414   3.812
85308SOL     OW57820   7.253   1.120   5.936
85308SOL    HW157821   7.160   1.118   5.961
85308SOL    HW257822   7.299   1.091   6.014
85309SOL     OW57823   2.737  11.850   8.844
85309SOL    HW157824   2.824  11.854   8.884
85309SOL    HW257825   2.753  11.863   8.750
85310SOL     OW57826   9.077  14.117  13.037
85310SOL    HW157827   9.081  14.205  13.075
85310SOL    HW257828   9.164  14.104  12.999
85311SOL     OW57829  13.761   6.606   1.879
85311SOL    HW157830  13.820   6.594   1.954
85311SOL    HW257831  13.721   6.520   1.866
85312SOL     OW57832   6.537  13.563  10.599
85312SOL    HW157833   6.525  13.658  10.603
85312SOL    HW257834   6.448  13.528  10.595
85313SOL     OW57835  14.691   5.223   8.646
85313SOL    HW157836  14.748   5.147   8.650
85313SOL    HW257837  14.747   5.294   8.613
85314SOL     OW57838   3.171   7.569  11.909
85314SOL    HW157839   3.163   7.545  12.002
85314SOL    HW257840   3.118   7.649  11.901
85315SOL     OW57841   1.908  13.173  13.423
85315SOL    HW157842   1.988  13.196  13.376
85315SOL    HW257843   1.892  13.081  13.400
85316SOL     OW57844   0.298   9.399   1.619
85316SOL    HW157845   0.299   9.330   1.553
85316SOL    HW257846   0.363   9.462   1.588
85317SOL     OW57847   2.883   1.101  12.075
85317SOL    HW157848   2.922   1.029  12.025
85317SOL    HW257849   2.907   1.084  12.166
85318SOL     OW57850  10.700   7.875  12.259
85318SOL    HW157851  10.662   7.793  12.227
85318SOL    HW257852  10.625   7.925  12.290
85319SOL     OW57853   7.929   8.157   3.688
85319SOL    HW157854   7.958   8.156   3.597
85319SOL    HW257855   8.005   8.127   3.738
85320SOL     OW57856   4.404  11.121   0.985
85320SOL    HW157857   4.340  11.170   1.036
85320SOL    HW257858   4.380  11.029   0.998
85321SOL     OW57859   9.976   9.957   8.237
85321SOL    HW157860  10.002  10.046   8.213
85321SOL    HW257861   9.885   9.950   8.209
85322SOL     OW57862   1.458   6.693  12.401
85322SOL    HW157863   1.512   6.617  12.376
85322SOL    HW257864   1.482   6.710  12.492
85323SOL     OW57865  12.455   8.674  13.527
85323SOL    HW157866  12.397   8.750  13.534
85323SOL    HW257867  12.405   8.610  13.476
85324SOL     OW57868   3.109   5.728   0.299
85324SOL    HW157869   3.065   5.711   0.383
85324SOL    HW257870   3.193   5.683   0.306
85325SOL     OW57871  12.611  12.393  12.356
85325SOL    HW157872  12.527  12.396  12.310
85325SOL    HW257873  12.655  12.474  12.330
85326SOL     OW57874  14.747   6.043   0.456
85326SOL    HW157875  14.773   5.951   0.461
85326SOL    HW257876  14.807   6.088   0.516
85327SOL     OW57877  12.812  10.642   3.118
85327SOL    HW157878  12.776  10.694   3.047
85327SOL    HW257879  12.782  10.553   3.101
85328SOL     OW57880   8.957  10.988   9.137
85328SOL    HW157881   9.009  10.974   9.216
85328SOL    HW257882   9.020  11.015   9.070
85329SOL     OW57883   4.601   7.755   9.033
85329SOL    HW157884   4.604   7.662   9.055
85329SOL    HW257885   4.677   7.769   8.976
85330SOL     OW57886  10.633   7.994   3.215
85330SOL    HW157887  10.613   7.913   3.261
85330SOL    HW257888  10.579   7.991   3.136
85331SOL     OW57889  14.361   2.053  12.851
85331SOL    HW157890  14.387   2.119  12.916
85331SOL    HW257891  14.287   2.008  12.891
85332SOL     OW57892   4.651   5.870   0.964
85332SOL    HW157893   4.672   5.778   0.980
85332SOL    HW257894   4.706   5.895   0.889
85333SOL     OW57895  11.563  14.383   9.369
85333SOL    HW157896  11.604  14.463   9.401
85333SOL    HW257897  11.636  14.324   9.350
85334SOL     OW57898   5.987   8.367  12.365
85334SOL    HW157899   6.021   8.456  12.375
85334SOL    HW257900   5.966   8.359  12.272
85335SOL     OW57901   5.426   1.138   1.833
85335SOL    HW157902   5.453   1.185   1.754
85335SOL    HW257903   5.334   1.161   1.844
85336SOL     OW57904   9.343   1.721  11.226
85336SOL    HW157905   9.311   1.798  11.274
85336SOL    HW257906   9.280   1.709  11.155
85337SOL     OW57907   8.658  13.278  14.766
85337SOL    HW157908   8.654  13.373  14.762
85337SOL    HW257909   8.573  13.249  14.732
85338SOL     OW57910   1.612   8.309   9.245
85338SOL    HW157911   1.528   8.330   9.286
85338SOL    HW257912   1.675   8.366   9.289
85339SOL     OW57913   2.386   6.231   0.531
85339SOL    HW157914   2.320   6.278   0.581
85339SOL    HW257915   2.470   6.259   0.569
85340SOL     OW57916  11.535  11.899   3.195
85340SOL    HW157917  11.495  11.930   3.114
85340SOL    HW257918  11.479  11.932   3.265
85341SOL     OW57919   9.323   9.997   9.511
85341SOL    HW157920   9.234   9.962   9.517
85341SOL    HW257921   9.351  10.007   9.602
85342SOL     OW57922  11.323   1.662  14.712
85342SOL    HW157923  11.300   1.569  14.706
85342SOL    HW257924  11.404   1.663  14.763
85343SOL     OW57925  13.539   2.276   9.246
85343SOL    HW157926  13.543   2.202   9.185
85343SOL    HW257927  13.630   2.291   9.271
85344SOL     OW57928   9.752  12.772   8.033
85344SOL    HW157929   9.733  12.735   7.947
85344SOL    HW257930   9.815  12.712   8.073
85345SOL     OW57931   9.816   4.088   3.275
85345SOL    HW157932   9.758   4.043   3.214
85345SOL    HW257933   9.851   4.162   3.225
85346SOL     OW57934   3.310  11.628   7.060
85346SOL    HW157935   3.223  11.593   7.039
85346SOL    HW257936   3.362  11.550   7.081
85347SOL     OW57937   9.184   9.819   7.480
85347SOL    HW157938   9.246   9.807   7.408
85347SOL    HW257939   9.099   9.829   7.437
85348SOL     OW57940   7.946   5.132  14.377
85348SOL    HW157941   7.986   5.136  14.464
85348SOL    HW257942   7.920   5.222  14.357
85349SOL     OW57943  11.061  10.899   5.682
85349SOL    HW157944  11.039  10.962   5.751
85349SOL    HW257945  10.996  10.829   5.692
85350SOL     OW57946   8.558   8.025   7.536
85350SOL    HW157947   8.636   7.985   7.577
85350SOL    HW257948   8.584   8.041   7.446
85351SOL     OW57949   4.156   4.145   7.334
85351SOL    HW157950   4.090   4.206   7.365
85351SOL    HW257951   4.201   4.191   7.264
85352SOL     OW57952  11.433   8.220   2.016
85352SOL    HW157953  11.483   8.166   2.076
85352SOL    HW257954  11.497   8.253   1.954
85353SOL     OW57955  10.892  12.775  10.060
85353SOL    HW157956  10.814  12.745  10.013
85353SOL    HW257957  10.962  12.772   9.995
85354SOL     OW57958   8.759   2.052   7.316
85354SOL    HW157959   8.832   2.010   7.361
85354SOL    HW257960   8.704   2.087   7.386
85355SOL     OW57961  11.429   1.425   1.833
85355SOL    HW157962  11.473   1.494   1.882
85355SOL    HW257963  11.466   1.344   1.867
85356SOL     OW57964   0.295   4.302   8.123
85356SOL    HW157965   0.339   4.220   8.144
85356SOL    HW257966   0.203   4.285   8.139
85357SOL     OW57967  12.536  10.600   2.494
85357SOL    HW157968  12.592  10.543   2.547
85357SOL    HW257969  12.588  10.680   2.481
85358SOL     OW57970   5.307   7.080  11.772
85358SOL    HW157971   5.314   7.019  11.846
85358SOL    HW257972   5.318   7.026  11.694
85359SOL     OW57973   2.762   5.190   4.795
85359SOL    HW157974   2.733   5.152   4.713
85359SOL    HW257975   2.776   5.283   4.775
85360SOL     OW57976  10.353  13.946  14.025
85360SOL    HW157977  10.323  13.881  14.089
85360SOL    HW257978  10.436  13.978  14.061
85361SOL     OW57979  12.050   5.752   3.054
85361SOL    HW157980  12.071   5.843   3.035
85361SOL    HW257981  12.075   5.740   3.145
85362SOL     OW57982   8.229   7.681  10.179
85362SOL    HW157983   8.260   7.731  10.255
85362SOL    HW257984   8.134   7.679  10.190
85363SOL     OW57985   1.392   5.754   6.559
85363SOL    HW157986   1.444   5.687   6.514
85363SOL    HW257987   1.311   5.760   6.509
85364SOL     OW57988   5.684  13.880  14.318
85364SOL    HW157989   5.733  13.878  14.235
85364SOL    HW257990   5.659  13.972  14.328
85365SOL     OW57991   4.490  13.561   8.145
85365SOL    HW157992   4.455  13.649   8.132
85365SOL    HW257993   4.483  13.546   8.239
85366SOL     OW57994   3.936   3.781   7.751
85366SOL    HW157995   3.870   3.817   7.810
85366SOL    HW257996   3.910   3.814   7.665
85367SOL     OW57997  11.453   9.112  14.483
85367SOL    HW157998  11.434   9.202  14.511
85367SOL    HW257999  11.497   9.123  14.398
85368SOL     OW58000  11.022   7.420   9.558
85368SOL    HW158001  10.982   7.359   9.621
85368SOL    HW258002  10.954   7.485   9.542
85369SOL     OW58003  11.672  13.448   5.330
85369SOL    HW158004  11.712  13.527   5.366
85369SOL    HW258005  11.603  13.480   5.272
85370SOL     OW58006   3.778   4.301   1.255
85370SOL    HW158007   3.703   4.261   1.298
85370SOL    HW258008   3.848   4.237   1.264
85371SOL     OW58009   0.281   6.445  13.062
85371SOL    HW158010   0.286   6.377  13.129
85371SOL    HW258011   0.212   6.414  13.002
85372SOL     OW58012  12.668  11.719  14.171
85372SOL    HW158013  12.617  11.764  14.239
85372SOL    HW258014  12.715  11.790  14.126
85373SOL     OW58015  13.299   3.182   5.358
85373SOL    HW158016  13.231   3.202   5.423
85373SOL    HW258017  13.368   3.246   5.376
85374SOL     OW58018   4.080  13.331   1.863
85374SOL    HW158019   4.139  13.388   1.913
85374SOL    HW258020   3.999  13.329   1.914
85375SOL     OW58021   4.090   0.705   2.534
85375SOL    HW158022   4.081   0.655   2.453
85375SOL    HW258023   4.183   0.703   2.554
85376SOL     OW58024   2.800   3.384  13.738
85376SOL    HW158025   2.825   3.460  13.791
85376SOL    HW258026   2.707   3.372  13.757
85377SOL     OW58027   8.144  11.480   9.435
85377SOL    HW158028   8.196  11.400   9.440
85377SOL    HW258029   8.053  11.449   9.428
85378SOL     OW58030  13.778  12.091  12.166
85378SOL    HW158031  13.798  12.048  12.249
85378SOL    HW258032  13.851  12.066  12.108
85379SOL     OW58033   4.742  12.257   4.024
85379SOL    HW158034   4.794  12.230   4.100
85379SOL    HW258035   4.792  12.328   3.985
85380SOL     OW58036   0.930   4.335   8.434
85380SOL    HW158037   0.987   4.294   8.500
85380SOL    HW258038   0.945   4.283   8.355
85381SOL     OW58039   7.102   0.076   5.922
85381SOL    HW158040   7.083   0.010   5.988
85381SOL    HW258041   7.102   0.028   5.839
85382SOL     OW58042   9.198   9.786  10.196
85382SOL    HW158043   9.246   9.845  10.255
85382SOL    HW258044   9.241   9.796  10.111
85383SOL     OW58045   2.139   4.403  12.175
85383SOL    HW158046   2.156   4.336  12.242
85383SOL    HW258047   2.221   4.453  12.171
85384SOL     OW58048   8.168   5.351   6.333
85384SOL    HW158049   8.109   5.422   6.305
85384SOL    HW258050   8.180   5.298   6.254
85385SOL     OW58051   3.775  10.914   5.130
85385SOL    HW158052   3.752  10.991   5.079
85385SOL    HW258053   3.704  10.852   5.113
85386SOL     OW58054   6.879  14.528   1.086
85386SOL    HW158055   6.968  14.527   1.052
85386SOL    HW258056   6.873  14.610   1.136
85387SOL     OW58057   3.950  10.510   8.621
85387SOL    HW158058   3.928  10.486   8.531
85387SOL    HW258059   3.869  10.544   8.658
85388SOL     OW58060   4.495   8.948  13.680
85388SOL    HW158061   4.488   8.956  13.585
85388SOL    HW258062   4.586   8.969  13.699
85389SOL     OW58063   1.385  11.655  10.550
85389SOL    HW158064   1.420  11.671  10.462
85389SOL    HW258065   1.337  11.572  10.541
85390SOL     OW58066   9.857   5.176  10.869
85390SOL    HW158067   9.904   5.092  10.861
85390SOL    HW258068   9.904   5.235  10.810
85391SOL     OW58069   8.871  13.451   4.010
85391SOL    HW158070   8.775  13.448   4.009
85391SOL    HW258071   8.896  13.379   4.068
85392SOL     OW58072   9.350   5.752  14.090
85392SOL    HW158073   9.358   5.839  14.130
85392SOL    HW258074   9.256   5.741  14.076
85393SOL     OW58075  13.649  10.566   2.364
85393SOL    HW158076  13.644  10.565   2.269
85393SOL    HW258077  13.716  10.501   2.385
85394SOL     OW58078  10.094   5.067  11.229
85394SOL    HW158079  10.009   5.024  11.221
85394SOL    HW258080  10.158   4.997  11.212
85395SOL     OW58081   2.186   3.112   8.089
85395SOL    HW158082   2.174   3.030   8.137
85395SOL    HW258083   2.101   3.129   8.049
85396SOL     OW58084  10.880   6.841   7.414
85396SOL    HW158085  10.921   6.756   7.405
85396SOL    HW258086  10.933   6.900   7.361
85397SOL     OW58087   7.733   9.126   5.839
85397SOL    HW158088   7.808   9.100   5.786
85397SOL    HW258089   7.724   9.056   5.904
85398SOL     OW58090  14.727  13.502  14.140
85398SOL    HW158091  14.646  13.548  14.161
85398SOL    HW258092  14.789  13.531  14.207
85399SOL     OW58093  14.048   8.451   7.551
85399SOL    HW158094  13.955   8.430   7.560
85399SOL    HW258095  14.057   8.535   7.596
85400SOL     OW58096   4.121   8.878   1.047
85400SOL    HW158097   4.198   8.861   1.101
85400SOL    HW258098   4.156   8.905   0.962
85401SOL     OW58099   7.318   9.139   0.689
85401SOL    HW158100   7.374   9.078   0.735
85401SOL    HW258101   7.306   9.100   0.602
85402SOL     OW58102   2.696   2.425  13.188
85402SOL    HW158103   2.615   2.445  13.142
85402SOL    HW258104   2.672   2.428  13.281
85403SOL     OW58105   5.663   1.977  11.945
85403SOL    HW158106   5.753   2.008  11.952
85403SOL    HW258107   5.625   1.995  12.032
85404SOL     OW58108   3.128  13.381   0.930
85404SOL    HW158109   3.081  13.305   0.896
85404SOL    HW258110   3.132  13.367   1.024
85405SOL     OW58111   9.009  10.963   1.963
85405SOL    HW158112   8.963  11.046   1.947
85405SOL    HW258113   9.004  10.951   2.057
85406SOL     OW58114   1.326  14.275   0.162
85406SOL    HW158115   1.281  14.199   0.198
85406SOL    HW258116   1.354  14.326   0.238
85407SOL     OW58117   2.580   6.358   6.996
85407SOL    HW158118   2.485   6.360   7.005
85407SOL    HW258119   2.596   6.353   6.902
85408SOL     OW58120   8.824   2.395   7.130
85408SOL    HW158121   8.899   2.350   7.093
85408SOL    HW258122   8.828   2.377   7.223
85409SOL     OW58123   2.365   9.061   8.410
85409SOL    HW158124   2.375   9.135   8.470
85409SOL    HW258125   2.334   9.101   8.328
85410SOL     OW58126   2.753  10.064   7.572
85410SOL    HW158127   2.747  10.085   7.479
85410SOL    HW258128   2.789  10.143   7.612
85411SOL     OW58129   3.360   4.399   8.160
85411SOL    HW158130   3.288   4.336   8.169
85411SOL    HW258131   3.359   4.423   8.067
85412SOL     OW58132   1.483  10.854   3.865
85412SOL    HW158133   1.423  10.887   3.799
85412SOL    HW258134   1.566  10.842   3.819
85413SOL     OW58135   7.317  12.080   5.076
85413SOL    HW158136   7.374  12.157   5.081
85413SOL    HW258137   7.236  12.109   5.118
85414SOL     OW58138   9.026   2.226  12.722
85414SOL    HW158139   9.101   2.170  12.741
85414SOL    HW258140   9.045   2.308  12.766
85415SOL     OW58141  14.521   2.573   5.131
85415SOL    HW158142  14.448   2.528   5.173
85415SOL    HW258143  14.530   2.655   5.179
85416SOL     OW58144   1.146   8.948  14.857
85416SOL    HW158145   1.074   8.901   0.021
85416SOL    HW258146   1.174   9.013   0.041
85417SOL     OW58147   0.444   0.797   8.022
85417SOL    HW158148   0.461   0.705   8.044
85417SOL    HW258149   0.467   0.804   7.929
85418SOL     OW58150   7.113   3.026   0.847
85418SOL    HW158151   7.181   2.987   0.903
85418SOL    HW258152   7.135   2.995   0.759
85419SOL     OW58153   1.453   9.331   5.000
85419SOL    HW158154   1.403   9.274   4.942
85419SOL    HW258155   1.395   9.345   5.075
85420SOL     OW58156  12.345  14.784  10.527
85420SOL    HW158157  12.292  14.860  10.505
85420SOL    HW258158  12.294  14.709  10.494
85421SOL     OW58159  13.773  12.744   0.252
85421SOL    HW158160  13.775  12.654   0.220
85421SOL    HW258161  13.835  12.791   0.196
85422SOL     OW58162  14.463   0.009   2.563
85422SOL    HW158163  14.404  14.823   2.526
85422SOL    HW258164  14.422   0.092   2.541
85423SOL     OW58165  13.095   4.979  11.553
85423SOL    HW158166  13.106   5.049  11.618
85423SOL    HW258167  13.141   5.011  11.476
85424SOL     OW58168   0.834  12.395   3.451
85424SOL    HW158169   0.742  12.373   3.463
85424SOL    HW258170   0.842  12.484   3.487
85425SOL     OW58171   4.040   3.355   9.966
85425SOL    HW158172   4.119   3.341  10.018
85425SOL    HW258173   4.072   3.368   9.877
85426SOL     OW58174   6.095   1.545   3.517
85426SOL    HW158175   6.057   1.580   3.436
85426SOL    HW258176   6.110   1.622   3.572
85427SOL     OW58177   4.504   2.685  14.154
85427SOL    HW158178   4.562   2.680  14.079
85427SOL    HW258179   4.551   2.639  14.224
85428SOL     OW58180   6.628  10.785  13.692
85428SOL    HW158181   6.560  10.804  13.757
85428SOL    HW258182   6.613  10.694  13.668
85429SOL     OW58183   4.154  12.120   7.509
85429SOL    HW158184   4.246  12.101   7.528
85429SOL    HW258185   4.152  12.139   7.416
85430SOL     OW58186   4.663   8.992   0.879
85430SOL    HW158187   4.588   8.983   0.821
85430SOL    HW258188   4.736   8.955   0.829
85431SOL     OW58189   1.547   1.579   4.132
85431SOL    HW158190   1.519   1.508   4.074
85431SOL    HW258191   1.631   1.551   4.167
85432SOL     OW58192   2.700   1.627   7.218
85432SOL    HW158193   2.747   1.704   7.184
85432SOL    HW258194   2.623   1.663   7.261
85433SOL     OW58195   3.297   5.234   8.546
85433SOL    HW158196   3.349   5.263   8.621
85433SOL    HW258197   3.362   5.207   8.481
85434SOL     OW58198  13.847   4.304   8.837
85434SOL    HW158199  13.912   4.289   8.906
85434SOL    HW258200  13.886   4.372   8.782
85435SOL     OW58201   9.620  10.284   7.143
85435SOL    HW158202   9.671  10.359   7.112
85435SOL    HW258203   9.624  10.221   7.071
85436SOL     OW58204  10.432  13.123   4.573
85436SOL    HW158205  10.349  13.078   4.585
85436SOL    HW258206  10.450  13.163   4.658
85437SOL     OW58207  11.027   0.460   8.742
85437SOL    HW158208  10.966   0.514   8.793
85437SOL    HW258209  11.088   0.425   8.807
85438SOL     OW58210   5.243   3.797   2.032
85438SOL    HW158211   5.291   3.815   1.952
85438SOL    HW258212   5.180   3.869   2.039
85439SOL     OW58213   6.667   9.284  14.529
85439SOL    HW158214   6.719   9.347  14.577
85439SOL    HW258215   6.633   9.224  14.596
85440SOL     OW58216   1.523   2.880  12.661
85440SOL    HW158217   1.466   2.919  12.728
85440SOL    HW258218   1.606   2.927  12.669
85441SOL     OW58219  10.848   1.038   6.778
85441SOL    HW158220  10.875   0.947   6.766
85441SOL    HW258221  10.818   1.066   6.691
85442SOL     OW58222   7.640  12.712   0.680
85442SOL    HW158223   7.558  12.719   0.632
85442SOL    HW258224   7.613  12.696   0.771
85443SOL     OW58225  11.799  11.080   6.204
85443SOL    HW158226  11.861  11.124   6.146
85443SOL    HW258227  11.852  11.017   6.252
85444SOL     OW58228   5.092   5.889   7.089
85444SOL    HW158229   5.125   5.821   7.147
85444SOL    HW258230   5.117   5.971   7.131
85445SOL     OW58231   2.235   0.386   8.470
85445SOL    HW158232   2.199   0.341   8.546
85445SOL    HW258233   2.160   0.430   8.430
85446SOL     OW58234  13.422   3.531   2.503
85446SOL    HW158235  13.516   3.536   2.487
85446SOL    HW258236  13.389   3.617   2.478
85447SOL     OW58237   0.282  11.553   2.294
85447SOL    HW158238   0.295  11.642   2.261
85447SOL    HW258239   0.307  11.559   2.386
85448SOL     OW58240  10.671   1.210   7.545
85448SOL    HW158241  10.668   1.116   7.533
85448SOL    HW258242  10.653   1.246   7.458
85449SOL     OW58243  14.616   4.362   6.608
85449SOL    HW158244  14.547   4.395   6.551
85449SOL    HW258245  14.651   4.286   6.562
85450SOL     OW58246  10.122   7.957   2.289
85450SOL    HW158247  10.075   8.015   2.230
85450SOL    HW258248  10.062   7.884   2.306
85451SOL     OW58249   7.507   2.927   2.597
85451SOL    HW158250   7.454   2.881   2.663
85451SOL    HW258251   7.445   2.982   2.550
85452SOL     OW58252   9.753   7.369  14.271
85452SOL    HW158253   9.755   7.460  14.241
85452SOL    HW258254   9.765   7.317  14.192
85453SOL     OW58255   1.677   7.423  12.004
85453SOL    HW158256   1.634   7.444  11.921
85453SOL    HW258257   1.617   7.455  12.071
85454SOL     OW58258   3.465   0.831   7.658
85454SOL    HW158259   3.449   0.925   7.648
85454SOL    HW258260   3.530   0.826   7.728
85455SOL     OW58261   9.086   1.447  12.403
85455SOL    HW158262   9.113   1.368  12.450
85455SOL    HW258263   8.996   1.462  12.433
85456SOL     OW58264  11.502   2.751  11.407
85456SOL    HW158265  11.523   2.822  11.347
85456SOL    HW258266  11.559   2.765  11.483
85457SOL     OW58267   4.825   4.964   1.099
85457SOL    HW158268   4.901   4.922   1.059
85457SOL    HW258269   4.767   4.983   1.026
85458SOL     OW58270   5.933   1.856  10.770
85458SOL    HW158271   5.995   1.916  10.730
85458SOL    HW258272   5.979   1.772  10.771
85459SOL     OW58273   4.995   2.350   7.431
85459SOL    HW158274   4.982   2.442   7.453
85459SOL    HW258275   5.073   2.350   7.374
85460SOL     OW58276   2.230   9.112  14.036
85460SOL    HW158277   2.225   9.207  14.048
85460SOL    HW258278   2.317   9.089  14.069
85461SOL     OW58279   5.508   6.972   9.146
85461SOL    HW158280   5.550   6.965   9.060
85461SOL    HW258281   5.520   6.886   9.186
85462SOL     OW58282   6.593   7.546   8.158
85462SOL    HW158283   6.568   7.573   8.070
85462SOL    HW258284   6.644   7.620   8.192
85463SOL     OW58285   9.176   4.883   4.400
85463SOL    HW158286   9.209   4.967   4.368
85463SOL    HW258287   9.181   4.890   4.495
85464SOL     OW58288   1.676   6.402  14.219
85464SOL    HW158289   1.670   6.409  14.315
85464SOL    HW258290   1.703   6.312  14.204
85465SOL     OW58291  12.984   1.997   0.786
85465SOL    HW158292  12.897   1.960   0.771
85465SOL    HW258293  13.027   1.994   0.700
85466SOL     OW58294   2.981   3.092   9.143
85466SOL    HW158295   2.987   3.131   9.230
85466SOL    HW258296   3.070   3.063   9.123
85467SOL     OW58297   1.247   7.850   3.671
85467SOL    HW158298   1.332   7.894   3.664
85467SOL    HW258299   1.238   7.829   3.764
85468SOL     OW58300  13.314  13.836   9.665
85468SOL    HW158301  13.400  13.840   9.708
85468SOL    HW258302  13.284  13.746   9.680
85469SOL     OW58303   4.062   7.388   5.704
85469SOL    HW158304   4.057   7.351   5.616
85469SOL    HW258305   4.069   7.312   5.762
85470SOL     OW58306  11.602  10.336   7.111
85470SOL    HW158307  11.585  10.252   7.154
85470SOL    HW258308  11.690  10.327   7.075
85471SOL     OW58309   2.501   2.767   3.731
85471SOL    HW158310   2.530   2.718   3.808
85471SOL    HW258311   2.560   2.738   3.661
85472SOL     OW58312  13.611   2.412   3.345
85472SOL    HW158313  13.703   2.436   3.351
85472SOL    HW258314  13.569   2.459   3.417
85473SOL     OW58315   9.605   1.815   3.251
85473SOL    HW158316   9.574   1.751   3.186
85473SOL    HW258317   9.525   1.856   3.284
85474SOL     OW58318  11.541   5.747   4.025
85474SOL    HW158319  11.559   5.698   3.945
85474SOL    HW258320  11.615   5.807   4.033
85475SOL     OW58321   2.909   9.090   3.908
85475SOL    HW158322   2.867   9.153   3.967
85475SOL    HW258323   2.991   9.068   3.951
85476SOL     OW58324   1.630   2.108  10.710
85476SOL    HW158325   1.603   2.099  10.801
85476SOL    HW258326   1.684   2.031  10.692
85477SOL     OW58327   9.157  14.088   0.645
85477SOL    HW158328   9.171  13.994   0.661
85477SOL    HW258329   9.232  14.130   0.688
85478SOL     OW58330   1.151   4.376  11.795
85478SOL    HW158331   1.072   4.397  11.845
85478SOL    HW258332   1.137   4.418  11.710
85479SOL     OW58333   4.706  10.599  14.212
85479SOL    HW158334   4.615  10.602  14.243
85479SOL    HW258335   4.739  10.688  14.227
85480SOL     OW58336   3.894  13.056  10.692
85480SOL    HW158337   3.833  12.986  10.715
85480SOL    HW258338   3.980  13.018  10.706
85481SOL     OW58339  10.708  10.517  10.468
85481SOL    HW158340  10.773  10.546  10.532
85481SOL    HW258341  10.624  10.528  10.513
85482SOL     OW58342  12.605   9.703   3.209
85482SOL    HW158343  12.616   9.791   3.243
85482SOL    HW258344  12.633   9.708   3.118
85483SOL     OW58345   3.048  14.812   5.228
85483SOL    HW158346   2.968  14.761   5.216
85483SOL    HW258347   3.107  14.753   5.274
85484SOL     OW58348   5.920   8.610   3.030
85484SOL    HW158349   5.840   8.558   3.024
85484SOL    HW258350   5.987   8.557   2.986
85485SOL     OW58351  11.334   0.174   9.135
85485SOL    HW158352  11.270   0.169   9.206
85485SOL    HW258353  11.371   0.086   9.129
85486SOL     OW58354   2.390  13.528   4.369
85486SOL    HW158355   2.321  13.502   4.307
85486SOL    HW258356   2.438  13.448   4.387
85487SOL     OW58357   6.930  14.065  12.913
85487SOL    HW158358   6.886  14.130  12.969
85487SOL    HW258359   6.974  14.117  12.846
85488SOL     OW58360   9.990   9.270   5.910
85488SOL    HW158361   9.984   9.235   5.999
85488SOL    HW258362  10.041   9.350   5.919
85489SOL     OW58363   5.813  11.979  13.860
85489SOL    HW158364   5.771  12.053  13.816
85489SOL    HW258365   5.751  11.956  13.930
85490SOL     OW58366   1.699   4.191   7.065
85490SOL    HW158367   1.793   4.175   7.063
85490SOL    HW258368   1.671   4.178   6.974
85491SOL     OW58369   4.589   8.775   3.696
85491SOL    HW158370   4.641   8.779   3.776
85491SOL    HW258371   4.507   8.734   3.723
85492SOL     OW58372  14.260   4.956   9.209
85492SOL    HW158373  14.181   5.010   9.211
85492SOL    HW258374  14.269   4.930   9.118
85493SOL     OW58375  11.275   0.691   4.951
85493SOL    HW158376  11.345   0.664   5.011
85493SOL    HW258377  11.256   0.612   4.901
85494SOL     OW58378   6.233  11.504   1.183
85494SOL    HW158379   6.191  11.590   1.186
85494SOL    HW258380   6.168  11.447   1.140
85495SOL     OW58381   0.139   6.241   6.556
85495SOL    HW158382   0.183   6.203   6.480
85495SOL    HW258383   0.187   6.206   6.631
85496SOL     OW58384   7.080   5.641  12.640
85496SOL    HW158385   7.165   5.598  12.628
85496SOL    HW258386   7.020   5.570  12.662
85497SOL     OW58387   6.977   1.473   7.667
85497SOL    HW158388   7.011   1.446   7.752
85497SOL    HW258389   6.958   1.390   7.622
85498SOL     OW58390  13.961  10.849  12.401
85498SOL    HW158391  13.928  10.926  12.447
85498SOL    HW258392  13.882  10.798  12.380
85499SOL     OW58393  10.434   1.923  12.412
85499SOL    HW158394  10.396   1.932  12.325
85499SOL    HW258395  10.379   1.859  12.456
85500SOL     OW58396   6.903   9.749  12.711
85500SOL    HW158397   6.896   9.753  12.616
85500SOL    HW258398   6.880   9.837  12.741
85501SOL     OW58399   1.562   4.663   5.351
85501SOL    HW158400   1.569   4.582   5.300
85501SOL    HW258401   1.649   4.703   5.345
85502SOL     OW58402   1.542   1.880   4.003
85502SOL    HW158403   1.527   1.788   4.025
85502SOL    HW258404   1.564   1.879   3.909
85503SOL     OW58405  10.678  10.094  11.497
85503SOL    HW158406  10.605  10.097  11.558
85503SOL    HW258407  10.745  10.041  11.541
85504SOL     OW58408   6.725   1.282  10.486
85504SOL    HW158409   6.812   1.301  10.519
85504SOL    HW258410   6.672   1.357  10.513
85505SOL     OW58411   6.603   7.843  11.583
85505SOL    HW158412   6.659   7.890  11.522
85505SOL    HW258413   6.658   7.772  11.616
85506SOL     OW58414   6.586   2.792   7.759
85506SOL    HW158415   6.622   2.869   7.714
85506SOL    HW258416   6.616   2.801   7.849
85507SOL     OW58417  14.766  10.253   8.243
85507SOL    HW158418  14.717  10.326   8.280
85507SOL    HW258419  14.832  10.232   8.309
85508SOL     OW58420   6.556   0.915   4.268
85508SOL    HW158421   6.465   0.922   4.240
85508SOL    HW258422   6.607   0.921   4.187
85509SOL     OW58423  13.119   6.633   9.820
85509SOL    HW158424  13.124   6.728   9.803
85509SOL    HW258425  13.202   6.613   9.864
85510SOL     OW58426  13.156   2.296   6.117
85510SOL    HW158427  13.223   2.352   6.077
85510SOL    HW258428  13.132   2.342   6.198
85511SOL     OW58429   3.016   4.233   1.699
85511SOL    HW158430   3.048   4.317   1.665
85511SOL    HW258431   3.095   4.180   1.710
85512SOL     OW58432  11.142   2.650   2.583
85512SOL    HW158433  11.184   2.639   2.498
85512SOL    HW258434  11.104   2.737   2.580
85513SOL     OW58435   0.410   5.892  10.011
85513SOL    HW158436   0.322   5.900  10.049
85513SOL    HW258437   0.414   5.800   9.983
85514SOL     OW58438   9.246   9.679  10.874
85514SOL    HW158439   9.222   9.669  10.966
85514SOL    HW258440   9.310   9.749  10.873
85515SOL     OW58441   2.945   5.613   0.524
85515SOL    HW158442   2.901   5.575   0.448
85515SOL    HW258443   2.890   5.588   0.598
85516SOL     OW58444   6.455   5.112   8.067
85516SOL    HW158445   6.496   5.031   8.098
85516SOL    HW258446   6.402   5.085   7.992
85517SOL     OW58447  11.910   6.354  12.961
85517SOL    HW158448  11.948   6.441  12.950
85517SOL    HW258449  11.839   6.366  13.024
85518SOL     OW58450   0.689   8.184  13.099
85518SOL    HW158451   0.705   8.092  13.121
85518SOL    HW258452   0.772   8.215  13.064
85519SOL     OW58453  12.687   5.280   5.272
85519SOL    HW158454  12.626   5.252   5.340
85519SOL    HW258455  12.758   5.323   5.321
85520SOL     OW58456   4.387   2.032   9.534
85520SOL    HW158457   4.476   2.061   9.552
85520SOL    HW258458   4.393   1.936   9.534
85521SOL     OW58459   5.961  10.602   5.011
85521SOL    HW158460   5.989  10.560   5.093
85521SOL    HW258461   6.025  10.673   4.998
85522SOL     OW58462   5.723  13.689  12.483
85522SOL    HW158463   5.744  13.747  12.556
85522SOL    HW258464   5.729  13.744  12.406
85523SOL     OW58465   3.754  10.750  11.635
85523SOL    HW158466   3.730  10.741  11.542
85523SOL    HW258467   3.815  10.824  11.636
85524SOL     OW58468   8.746  11.757   0.394
85524SOL    HW158469   8.752  11.752   0.489
85524SOL    HW258470   8.781  11.843   0.372
85525SOL     OW58471   3.320   9.093  13.509
85525SOL    HW158472   3.395   9.061  13.458
85525SOL    HW258473   3.284   9.165  13.456
85526SOL     OW58474   8.307  11.902  10.141
85526SOL    HW158475   8.257  11.823  10.121
85526SOL    HW258476   8.384  11.871  10.189
85527SOL     OW58477  13.883   6.847   6.334
85527SOL    HW158478  13.940   6.783   6.377
85527SOL    HW258479  13.834   6.888   6.405
85528SOL     OW58480   6.352   7.570  14.005
85528SOL    HW158481   6.260   7.543  13.995
85528SOL    HW258482   6.353   7.662  13.980
85529SOL     OW58483  12.404   3.383   0.967
85529SOL    HW158484  12.497   3.363   0.980
85529SOL    HW258485  12.399   3.478   0.969
85530SOL     OW58486   7.215  11.406  12.346
85530SOL    HW158487   7.295  11.360  12.318
85530SOL    HW258488   7.244  11.464  12.416
85531SOL     OW58489   9.080   1.653  11.126
85531SOL    HW158490   9.060   1.747  11.122
85531SOL    HW258491   9.019   1.613  11.064
85532SOL     OW58492  11.223   9.461   7.096
85532SOL    HW158493  11.160   9.494   7.159
85532SOL    HW258494  11.272   9.538   7.067
85533SOL     OW58495   0.553   9.439   5.088
85533SOL    HW158496   0.536   9.519   5.138
85533SOL    HW258497   0.579   9.375   5.155
85534SOL     OW58498   6.065   6.651   0.655
85534SOL    HW158499   6.024   6.640   0.569
85534SOL    HW258500   6.153   6.615   0.644
85535SOL     OW58501   5.340   2.277   8.348
85535SOL    HW158502   5.248   2.249   8.352
85535SOL    HW258503   5.367   2.284   8.440
85536SOL     OW58504   5.687  10.904   9.763
85536SOL    HW158505   5.615  10.964   9.747
85536SOL    HW258506   5.713  10.921   9.853
85537SOL     OW58507   1.794   2.975   2.627
85537SOL    HW158508   1.836   2.889   2.631
85537SOL    HW258509   1.854   3.029   2.576
85538SOL     OW58510   2.790  10.915   4.337
85538SOL    HW158511   2.884  10.901   4.350
85538SOL    HW258512   2.783  10.960   4.253
85539SOL     OW58513   7.598  14.227   3.916
85539SOL    HW158514   7.555  14.213   3.831
85539SOL    HW258515   7.526  14.232   3.979
85540SOL     OW58516  13.465   9.399   2.550
85540SOL    HW158517  13.430   9.431   2.467
85540SOL    HW258518  13.524   9.328   2.526
85541SOL     OW58519   5.866  10.231   7.284
85541SOL    HW158520   5.924  10.181   7.342
85541SOL    HW258521   5.924  10.267   7.217
85542SOL     OW58522   7.688  10.505   0.341
85542SOL    HW158523   7.758  10.444   0.319
85542SOL    HW258524   7.624  10.452   0.389
85543SOL     OW58525  13.412   9.963   8.518
85543SOL    HW158526  13.327   9.936   8.483
85543SOL    HW258527  13.475   9.938   8.451
85544SOL     OW58528   5.893   3.308  13.758
85544SOL    HW158529   5.876   3.401  13.743
85544SOL    HW258530   5.987   3.298  13.744
85545SOL     OW58531  14.264   0.082   6.219
85545SOL    HW158532  14.233   0.108   6.132
85545SOL    HW258533  14.299   0.162   6.256
85546SOL     OW58534   9.189   5.165   3.199
85546SOL    HW158535   9.257   5.172   3.266
85546SOL    HW258536   9.142   5.248   3.204
85547SOL     OW58537   3.929  13.949   9.770
85547SOL    HW158538   3.960  13.990   9.689
85547SOL    HW258539   3.875  13.875   9.740
85548SOL     OW58540   3.063   9.929   2.772
85548SOL    HW158541   2.981   9.896   2.735
85548SOL    HW258542   3.086  10.003   2.717
85549SOL     OW58543   7.694  13.113   5.653
85549SOL    HW158544   7.727  13.101   5.564
85549SOL    HW258545   7.631  13.185   5.645
85550SOL     OW58546  12.942  13.483   6.459
85550SOL    HW158547  12.954  13.565   6.410
85550SOL    HW258548  12.855  13.452   6.432
85551SOL     OW58549  12.216   2.103   5.459
85551SOL    HW158550  12.144   2.057   5.501
85551SOL    HW258551  12.266   2.141   5.531
85552SOL     OW58552   6.975  14.654   7.977
85552SOL    HW158553   6.940  14.669   8.065
85552SOL    HW258554   7.070  14.652   7.989
85553SOL     OW58555  12.210  11.724   9.960
85553SOL    HW158556  12.282  11.787   9.947
85553SOL    HW258557  12.143  11.774  10.007
85554SOL     OW58558   2.936   3.191  11.489
85554SOL    HW158559   2.937   3.259  11.557
85554SOL    HW258560   2.898   3.235  11.413
85555SOL     OW58561   9.868   4.084   9.122
85555SOL    HW158562   9.906   4.160   9.078
85555SOL    HW258563   9.785   4.069   9.076
85556SOL     OW58564   1.380  14.207   4.106
85556SOL    HW158565   1.293  14.220   4.144
85556SOL    HW258566   1.373  14.242   4.017
85557SOL     OW58567   6.944   6.840   2.152
85557SOL    HW158568   6.997   6.768   2.188
85557SOL    HW258569   6.857   6.801   2.140
85558SOL     OW58570   7.782  10.151   3.621
85558SOL    HW158571   7.830  10.069   3.626
85558SOL    HW258572   7.786  10.187   3.709
85559SOL     OW58573  10.341  13.950  11.991
85559SOL    HW158574  10.353  14.012  12.063
85559SOL    HW258575  10.368  13.998  11.913
85560SOL     OW58576   4.163   9.355   0.991
85560SOL    HW158577   4.078   9.311   0.997
85560SOL    HW258578   4.202   9.344   1.077
85561SOL     OW58579   6.995  12.060   7.688
85561SOL    HW158580   7.069  12.077   7.746
85561SOL    HW258581   6.950  11.986   7.729
85562SOL     OW58582  11.099   9.202   0.726
85562SOL    HW158583  11.040   9.176   0.655
85562SOL    HW258584  11.165   9.257   0.683
85563SOL     OW58585  13.097   1.020  10.270
85563SOL    HW158586  13.110   1.048  10.180
85563SOL    HW258587  13.010   0.979  10.270
85564SOL     OW58588  10.566  13.618  14.874
85564SOL    HW158589  10.593  13.526   0.004
85564SOL    HW258590  10.547  13.647   0.084
85565SOL     OW58591  12.764  11.250  12.802
85565SOL    HW158592  12.842  11.261  12.747
85565SOL    HW258593  12.745  11.338  12.834
85566SOL     OW58594   2.582   1.910   7.888
85566SOL    HW158595   2.491   1.939   7.898
85566SOL    HW258596   2.626   1.983   7.846
85567SOL     OW58597   9.688   1.357   1.611
85567SOL    HW158598   9.753   1.364   1.541
85567SOL    HW258599   9.667   1.447   1.633
85568SOL     OW58600  10.198   0.343  13.605
85568SOL    HW158601  10.218   0.278  13.673
85568SOL    HW258602  10.257   0.321  13.533
85569SOL     OW58603  10.285  11.404   0.782
85569SOL    HW158604  10.323  11.320   0.756
85569SOL    HW258605  10.341  11.469   0.740
85570SOL     OW58606  12.794  12.944  13.846
85570SOL    HW158607  12.840  12.934  13.762
85570SOL    HW258608  12.864  12.958  13.910
85571SOL     OW58609  10.727   8.362  13.878
85571SOL    HW158610  10.696   8.309  13.804
85571SOL    HW258611  10.774   8.435  13.836
85572SOL     OW58612  13.982  11.298  14.789
85572SOL    HW158613  13.961  11.206  14.774
85572SOL    HW258614  13.900  11.344  14.774
85573SOL     OW58615   0.924  12.010   7.564
85573SOL    HW158616   1.002  11.982   7.516
85573SOL    HW258617   0.913  12.102   7.539
85574SOL     OW58618   7.323   3.636   2.973
85574SOL    HW158619   7.342   3.618   2.880
85574SOL    HW258620   7.378   3.711   2.994
85575SOL     OW58621   6.639   1.297  12.166
85575SOL    HW158622   6.636   1.374  12.110
85575SOL    HW258623   6.565   1.244  12.138
85576SOL     OW58624   0.474   5.304   3.726
85576SOL    HW158625   0.382   5.291   3.701
85576SOL    HW258626   0.506   5.372   3.667
85577SOL     OW58627  14.833   0.897   2.537
85577SOL    HW158628  14.821   0.819   2.590
85577SOL    HW258629  14.845   0.968   2.600
85578SOL     OW58630   5.865  11.074   6.226
85578SOL    HW158631   5.897  11.115   6.146
85578SOL    HW258632   5.922  11.109   6.295
85579SOL     OW58633   7.322   7.990   3.092
85579SOL    HW158634   7.392   8.011   3.029
85579SOL    HW258635   7.337   7.899   3.115
85580SOL     OW58636  10.935   2.623   9.834
85580SOL    HW158637  10.986   2.579   9.902
85580SOL    HW258638  10.878   2.684   9.883
85581SOL     OW58639  14.637  10.788   7.448
85581SOL    HW158640  14.732  10.799   7.452
85581SOL    HW258641  14.613  10.747   7.531
85582SOL     OW58642  13.572   2.694  13.702
85582SOL    HW158643  13.573   2.772  13.646
85582SOL    HW258644  13.524   2.628  13.651
85583SOL     OW58645   0.800   4.688   9.014
85583SOL    HW158646   0.881   4.649   9.046
85583SOL    HW258647   0.754   4.716   9.093
85584SOL     OW58648   6.840  12.375   8.277
85584SOL    HW158649   6.876  12.323   8.206
85584SOL    HW258650   6.800  12.311   8.336
85585SOL     OW58651   3.682   6.352   2.183
85585SOL    HW158652   3.598   6.318   2.213
85585SOL    HW258653   3.715   6.403   2.257
85586SOL     OW58654   9.316  12.806  12.709
85586SOL    HW158655   9.241  12.808  12.650
85586SOL    HW258656   9.294  12.738  12.773
85587SOL     OW58657   7.074  13.786   3.767
85587SOL    HW158658   7.158  13.754   3.798
85587SOL    HW258659   7.096  13.862   3.713
85588SOL     OW58660  12.500   2.998   7.525
85588SOL    HW158661  12.526   3.053   7.598
85588SOL    HW258662  12.437   3.050   7.475
85589SOL     OW58663   4.034   8.645   9.871
85589SOL    HW158664   3.961   8.702   9.845
85589SOL    HW258665   3.992   8.574   9.919
85590SOL     OW58666   0.254   8.326   3.515
85590SOL    HW158667   0.345   8.348   3.535
85590SOL    HW258668   0.233   8.378   3.437
85591SOL     OW58669   7.750   0.488   3.032
85591SOL    HW158670   7.708   0.561   3.077
85591SOL    HW258671   7.777   0.429   3.102
85592SOL     OW58672  11.986   6.568   5.816
85592SOL    HW158673  11.915   6.518   5.856
85592SOL    HW258674  12.000   6.642   5.875
85593SOL     OW58675  13.767   8.484  10.690
85593SOL    HW158676  13.713   8.550  10.733
85593SOL    HW258677  13.747   8.403  10.737
85594SOL     OW58678   1.520  12.222   3.036
85594SOL    HW158679   1.514  12.133   3.072
85594SOL    HW258680   1.435  12.261   3.055
85595SOL     OW58681   7.358   9.425   7.278
85595SOL    HW158682   7.352   9.344   7.227
85595SOL    HW258683   7.424   9.405   7.345
85596SOL     OW58684  10.206  10.635   3.415
85596SOL    HW158685  10.122  10.597   3.389
85596SOL    HW258686  10.183  10.709   3.471
85597SOL     OW58687  10.286  11.027   1.203
85597SOL    HW158688  10.330  11.070   1.130
85597SOL    HW258689  10.354  10.974   1.244
85598SOL     OW58690  10.194  10.046   0.769
85598SOL    HW158691  10.105  10.012   0.757
85598SOL    HW258692  10.189  10.137   0.741
85599SOL     OW58693   3.560  14.699   6.135
85599SOL    HW158694   3.603  14.777   6.099
85599SOL    HW258695   3.584  14.700   6.228
85600SOL     OW58696   9.641  11.395  11.754
85600SOL    HW158697   9.721  11.346  11.732
85600SOL    HW258698   9.573  11.329  11.760
85601SOL     OW58699   2.782  11.776   6.849
85601SOL    HW158700   2.810  11.740   6.933
85601SOL    HW258701   2.702  11.728   6.828
85602SOL     OW58702   1.559   1.367   0.541
85602SOL    HW158703   1.621   1.435   0.568
85602SOL    HW258704   1.500   1.357   0.615
85603SOL     OW58705   6.957   7.828  13.334
85603SOL    HW158706   6.930   7.917  13.312
85603SOL    HW258707   7.038   7.815  13.285
85604SOL     OW58708   0.120  12.743  10.229
85604SOL    HW158709   0.098  12.676  10.164
85604SOL    HW258710   0.035  12.778  10.257
85605SOL     OW58711   6.113   9.788   5.790
85605SOL    HW158712   6.069   9.867   5.820
85605SOL    HW258713   6.105   9.727   5.863
85606SOL     OW58714   2.995  10.062  10.797
85606SOL    HW158715   3.062  10.071  10.729
85606SOL    HW258716   3.030  10.110  10.872
85607SOL     OW58717   4.088  14.477   6.202
85607SOL    HW158718   4.184  14.474   6.198
85607SOL    HW258719   4.068  14.568   6.223
85608SOL     OW58720  10.229   1.535   0.185
85608SOL    HW158721  10.283   1.459   0.207
85608SOL    HW258722  10.273   1.608   0.228
85609SOL     OW58723   1.998   8.722   6.818
85609SOL    HW158724   1.933   8.792   6.822
85609SOL    HW258725   2.013   8.698   6.909
85610SOL     OW58726   5.683   7.668   6.926
85610SOL    HW158727   5.656   7.642   6.837
85610SOL    HW258728   5.618   7.628   6.983
85611SOL     OW58729   3.946   5.068   6.001
85611SOL    HW158730   3.889   5.014   6.056
85611SOL    HW258731   3.906   5.065   5.915
85612SOL     OW58732   3.378  13.328   8.617
85612SOL    HW158733   3.472  13.340   8.628
85612SOL    HW258734   3.368  13.295   8.528
85613SOL     OW58735   1.946   4.047   8.857
85613SOL    HW158736   1.983   4.131   8.829
85613SOL    HW258737   1.855   4.049   8.827
85614SOL     OW58738  14.325   3.774   1.241
85614SOL    HW158739  14.289   3.685   1.239
85614SOL    HW258740  14.315   3.806   1.151
85615SOL     OW58741  11.640   3.962  13.002
85615SOL    HW158742  11.609   3.924  12.920
85615SOL    HW258743  11.575   3.934  13.067
85616SOL     OW58744  13.969   4.137   2.252
85616SOL    HW158745  13.875   4.141   2.265
85616SOL    HW258746  13.998   4.228   2.252
85617SOL     OW58747   9.007  10.457   0.139
85617SOL    HW158748   9.044  10.510   0.067
85617SOL    HW258749   8.914  10.455   0.120
85618SOL     OW58750   3.987   8.249   6.203
85618SOL    HW158751   3.946   8.168   6.175
85618SOL    HW258752   3.915   8.302   6.237
85619SOL     OW58753  11.306   8.011   8.611
85619SOL    HW158754  11.287   7.951   8.539
85619SOL    HW258755  11.220   8.034   8.646
85620SOL     OW58756   4.705   4.465   1.858
85620SOL    HW158757   4.621   4.482   1.900
85620SOL    HW258758   4.755   4.546   1.871
85621SOL     OW58759   4.381  13.289   1.486
85621SOL    HW158760   4.477  13.293   1.480
85621SOL    HW258761   4.362  13.197   1.500
85622SOL     OW58762  14.678   2.876   1.052
85622SOL    HW158763  14.743   2.912   1.112
85622SOL    HW258764  14.714   2.892   0.965
85623SOL     OW58765   2.261   8.606  12.874
85623SOL    HW158766   2.233   8.518  12.898
85623SOL    HW258767   2.336   8.624  12.930
85624SOL     OW58768   7.924   5.001  10.301
85624SOL    HW158769   7.930   5.011  10.396
85624SOL    HW258770   8.011   4.972  10.275
85625SOL     OW58771   0.352   3.258   1.903
85625SOL    HW158772   0.397   3.294   1.826
85625SOL    HW258773   0.418   3.204   1.946
85626SOL     OW58774   5.694   2.847  11.790
85626SOL    HW158775   5.645   2.840  11.872
85626SOL    HW258776   5.706   2.942  11.778
85627SOL     OW58777   6.315   2.678   8.643
85627SOL    HW158778   6.275   2.594   8.620
85627SOL    HW258779   6.387   2.689   8.582
85628SOL     OW58780   5.295   4.773   1.018
85628SOL    HW158781   5.320   4.683   1.000
85628SOL    HW258782   5.377   4.822   1.009
85629SOL     OW58783  13.723   8.804   9.202
85629SOL    HW158784  13.742   8.717   9.236
85629SOL    HW258785  13.754   8.864   9.271
85630SOL     OW58786  14.591   5.989   2.810
85630SOL    HW158787  14.610   6.074   2.849
85630SOL    HW258788  14.670   5.968   2.759
85631SOL     OW58789   2.683   0.904  12.959
85631SOL    HW158790   2.630   0.915  13.038
85631SOL    HW258791   2.680   0.990  12.916
85632SOL     OW58792   5.064  12.973   0.614
85632SOL    HW158793   5.064  12.897   0.672
85632SOL    HW258794   5.156  12.985   0.590
85633SOL     OW58795   3.470   3.052   4.289
85633SOL    HW158796   3.558   3.083   4.309
85633SOL    HW258797   3.431   3.123   4.236
85634SOL     OW58798  11.910   8.017  11.563
85634SOL    HW158799  11.986   7.959  11.571
85634SOL    HW258800  11.888   8.015  11.470
85635SOL     OW58801  11.194  11.249   7.009
85635SOL    HW158802  11.265  11.186   7.018
85635SOL    HW258803  11.129  11.205   6.954
85636SOL     OW58804   7.690   9.361   8.795
85636SOL    HW158805   7.785   9.371   8.796
85636SOL    HW258806   7.672   9.311   8.716
85637SOL     OW58807   5.230   3.193  10.981
85637SOL    HW158808   5.265   3.275  11.016
85637SOL    HW258809   5.301   3.159  10.926
85638SOL     OW58810   6.341   8.087   3.344
85638SOL    HW158811   6.417   8.058   3.394
85638SOL    HW258812   6.362   8.067   3.253
85639SOL     OW58813   5.362   0.765  14.149
85639SOL    HW158814   5.288   0.705  14.139
85639SOL    HW258815   5.373   0.775  14.243
85640SOL     OW58816   4.316   9.449   1.631
85640SOL    HW158817   4.399   9.495   1.625
85640SOL    HW258818   4.249   9.517   1.621
85641SOL     OW58819   0.790   7.075   7.685
85641SOL    HW158820   0.786   6.995   7.738
85641SOL    HW258821   0.853   7.131   7.732
85642SOL     OW58822   6.463   2.464   2.763
85642SOL    HW158823   6.550   2.423   2.759
85642SOL    HW258824   6.414   2.408   2.824
85643SOL     OW58825   0.216   9.660   6.627
85643SOL    HW158826   0.197   9.661   6.721
85643SOL    HW258827   0.300   9.615   6.620
85644SOL     OW58828   4.273   1.560   6.657
85644SOL    HW158829   4.332   1.606   6.717
85644SOL    HW258830   4.330   1.502   6.607
85645SOL     OW58831   9.040   5.143   4.866
85645SOL    HW158832   9.106   5.084   4.832
85645SOL    HW258833   9.011   5.194   4.790
85646SOL     OW58834  11.901  10.020   1.604
85646SOL    HW158835  11.954  10.100   1.603
85646SOL    HW258836  11.838  10.034   1.675
85647SOL     OW58837  12.718  10.334   2.381
85647SOL    HW158838  12.777  10.265   2.413
85647SOL    HW258839  12.632  10.309   2.414
85648SOL     OW58840  11.092  13.690   9.582
85648SOL    HW158841  11.018  13.703   9.640
85648SOL    HW258842  11.104  13.595   9.580
85649SOL     OW58843   2.426   6.999   3.743
85649SOL    HW158844   2.390   6.910   3.745
85649SOL    HW258845   2.480   7.002   3.664
85650SOL     OW58846   8.351   3.409  14.138
85650SOL    HW158847   8.403   3.438  14.064
85650SOL    HW258848   8.265   3.446  14.123
85651SOL     OW58849   1.548  10.035   0.343
85651SOL    HW158850   1.606  10.098   0.300
85651SOL    HW258851   1.462  10.077   0.343
85652SOL     OW58852   5.424   1.396   6.548
85652SOL    HW158853   5.488   1.381   6.479
85652SOL    HW258854   5.367   1.465   6.513
85653SOL     OW58855   0.332  13.841   9.315
85653SOL    HW158856   0.305  13.790   9.239
85653SOL    HW258857   0.287  13.925   9.304
85654SOL     OW58858   7.304   2.833  10.003
85654SOL    HW158859   7.263   2.777  10.068
85654SOL    HW258860   7.293   2.922  10.038
85655SOL     OW58861   6.410   8.985  13.095
85655SOL    HW158862   6.435   8.999  13.004
85655SOL    HW258863   6.492   8.961  13.139
85656SOL     OW58864   2.664  13.026  13.256
85656SOL    HW158865   2.584  13.048  13.207
85656SOL    HW258866   2.652  12.934  13.282
85657SOL     OW58867  12.812   5.413   9.973
85657SOL    HW158868  12.872   5.421  10.048
85657SOL    HW258869  12.839   5.332   9.929
85658SOL     OW58870   9.030   7.909   5.775
85658SOL    HW158871   9.018   7.916   5.870
85658SOL    HW258872   8.981   7.832   5.750
85659SOL     OW58873  13.427   3.640   8.828
85659SOL    HW158874  13.386   3.562   8.864
85659SOL    HW258875  13.373   3.664   8.752
85660SOL     OW58876  13.651   9.135  14.445
85660SOL    HW158877  13.656   9.044  14.472
85660SOL    HW258878  13.592   9.176  14.509
85661SOL     OW58879   3.590   8.177  14.359
85661SOL    HW158880   3.522   8.229  14.316
85661SOL    HW258881   3.587   8.204  14.451
85662SOL     OW58882   3.027   6.680  12.085
85662SOL    HW158883   3.025   6.604  12.144
85662SOL    HW258884   3.063   6.646  12.003
85663SOL     OW58885   9.111   6.429   1.977
85663SOL    HW158886   9.063   6.409   2.057
85663SOL    HW258887   9.056   6.492   1.931
85664SOL     OW58888   1.264   5.700   7.014
85664SOL    HW158889   1.231   5.785   6.983
85664SOL    HW258890   1.319   5.669   6.942
85665SOL     OW58891   1.109  13.864   2.151
85665SOL    HW158892   1.109  13.955   2.121
85665SOL    HW258893   1.114  13.812   2.071
85666SOL     OW58894   1.613   1.145  14.335
85666SOL    HW158895   1.526   1.131  14.296
85666SOL    HW258896   1.595   1.160  14.428
85667SOL     OW58897  11.022   6.587  10.563
85667SOL    HW158898  11.047   6.512  10.618
85667SOL    HW258899  11.099   6.644  10.564
85668SOL     OW58900  10.103   1.586  10.569
85668SOL    HW158901  10.034   1.639  10.607
85668SOL    HW258902  10.059   1.507  10.537
85669SOL     OW58903   5.839   6.150   0.948
85669SOL    HW158904   5.925   6.183   0.921
85669SOL    HW258905   5.784   6.161   0.870
85670SOL     OW58906  11.727  10.672   7.339
85670SOL    HW158907  11.785  10.687   7.264
85670SOL    HW258908  11.658  10.737   7.330
85671SOL     OW58909   7.543   2.937  13.087
85671SOL    HW158910   7.615   2.874  13.078
85671SOL    HW258911   7.494   2.907  13.164
85672SOL     OW58912   1.619  14.578   4.677
85672SOL    HW158913   1.552  14.539   4.620
85672SOL    HW258914   1.569  14.614   4.750
85673SOL     OW58915   8.647   8.494   9.572
85673SOL    HW158916   8.560   8.458   9.555
85673SOL    HW258917   8.634   8.589   9.568
85674SOL     OW58918   5.629  12.692  12.593
85674SOL    HW158919   5.674  12.631  12.534
85674SOL    HW258920   5.697  12.754  12.620
85675SOL     OW58921  10.012   6.953  11.453
85675SOL    HW158922  10.029   6.978  11.362
85675SOL    HW258923   9.973   6.865  11.446
85676SOL     OW58924  10.083   5.852  12.782
85676SOL    HW158925  10.177   5.837  12.783
85676SOL    HW258926  10.062   5.869  12.690
85677SOL     OW58927   4.615  10.689   6.306
85677SOL    HW158928   4.663  10.763   6.343
85677SOL    HW258929   4.682  10.632   6.269
85678SOL     OW58930   0.488  10.731  10.978
85678SOL    HW158931   0.489  10.682  11.060
85678SOL    HW258932   0.408  10.702  10.934
85679SOL     OW58933   2.818   7.395  14.868
85679SOL    HW158934   2.764   7.320  14.844
85679SOL    HW258935   2.863   7.419  14.786
85680SOL     OW58936  10.154   3.139  10.590
85680SOL    HW158937  10.232   3.085  10.594
85680SOL    HW258938  10.141   3.170  10.680
85681SOL     OW58939   8.108   0.590   0.650
85681SOL    HW158940   8.136   0.607   0.560
85681SOL    HW258941   8.012   0.591   0.646
85682SOL     OW58942   7.922   8.329   7.467
85682SOL    HW158943   7.869   8.253   7.444
85682SOL    HW258944   7.905   8.342   7.561
85683SOL     OW58945   8.777   0.766  14.397
85683SOL    HW158946   8.683   0.784  14.386
85683SOL    HW258947   8.820   0.840  14.355
85684SOL     OW58948   9.730   6.421   7.744
85684SOL    HW158949   9.810   6.414   7.797
85684SOL    HW258950   9.661   6.440   7.807
85685SOL     OW58951   9.832   4.958   2.101
85685SOL    HW158952   9.821   4.917   2.016
85685SOL    HW258953   9.895   4.902   2.147
85686SOL     OW58954   9.496  11.268  10.437
85686SOL    HW158955   9.567  11.322  10.401
85686SOL    HW258956   9.422  11.328  10.446
85687SOL     OW58957   3.401   6.971  12.285
85687SOL    HW158958   3.311   6.985  12.313
85687SOL    HW258959   3.447   7.051  12.308
85688SOL     OW58960   3.340   4.000  12.187
85688SOL    HW158961   3.340   3.995  12.091
85688SOL    HW258962   3.343   3.908  12.215
85689SOL     OW58963   3.326  11.756  10.980
85689SOL    HW158964   3.320  11.662  10.968
85689SOL    HW258965   3.275  11.793  10.907
85690SOL     OW58966  12.285  13.072  12.716
85690SOL    HW158967  12.229  12.995  12.714
85690SOL    HW258968  12.331  13.065  12.800
85691SOL     OW58969  14.262  14.734   2.430
85691SOL    HW158970  14.300  14.764   2.348
85691SOL    HW258971  14.171  14.763   2.426
85692SOL     OW58972   7.875   9.134  11.229
85692SOL    HW158973   7.916   9.053  11.198
85692SOL    HW258974   7.913   9.150  11.315
85693SOL     OW58975   1.929  11.614   3.904
85693SOL    HW158976   1.849  11.591   3.856
85693SOL    HW258977   2.000  11.589   3.846
85694SOL     OW58978   3.435  11.073   2.453
85694SOL    HW158979   3.444  11.018   2.530
85694SOL    HW258980   3.340  11.077   2.437
85695SOL     OW58981  14.587   2.776   0.790
85695SOL    HW158982  14.580   2.762   0.884
85695SOL    HW258983  14.537   2.704   0.751
85696SOL     OW58984   2.994   2.110  13.964
85696SOL    HW158985   2.907   2.132  13.930
85696SOL    HW258986   3.030   2.194  13.992
85697SOL     OW58987  10.544  11.675   1.415
85697SOL    HW158988  10.512  11.717   1.335
85697SOL    HW258989  10.623  11.629   1.388
85698SOL     OW58990   6.797   8.410  13.427
85698SOL    HW158991   6.727   8.467  13.398
85698SOL    HW258992   6.827   8.365  13.348
85699SOL     OW58993   4.420   1.420   6.008
85699SOL    HW158994   4.442   1.367   6.084
85699SOL    HW258995   4.445   1.509   6.032
85700SOL     OW58996   9.349  10.844   6.824
85700SOL    HW158997   9.387  10.892   6.750
85700SOL    HW258998   9.352  10.752   6.797
85701SOL     OW58999   7.078  10.584   7.682
85701SOL    HW159000   7.152  10.531   7.653
85701SOL    HW259001   7.002  10.545   7.638
85702SOL     OW59002   9.813   7.055  12.386
85702SOL    HW159003   9.870   7.072  12.311
85702SOL    HW259004   9.813   6.959  12.395
85703SOL     OW59005   2.588   6.091  11.746
85703SOL    HW159006   2.580   6.088  11.650
85703SOL    HW259007   2.546   6.173  11.770
85704SOL     OW59008   1.525  12.771   9.642
85704SOL    HW159009   1.543  12.823   9.721
85704SOL    HW259010   1.477  12.695   9.674
85705SOL     OW59011   4.287  13.303  10.913
85705SOL    HW159012   4.285  13.398  10.917
85705SOL    HW259013   4.196  13.276  10.929
85706SOL     OW59014   4.919   4.851  14.078
85706SOL    HW159015   4.851   4.917  14.065
85706SOL    HW259016   4.926   4.807  13.994
85707SOL     OW59017   6.788  12.763   4.898
85707SOL    HW159018   6.721  12.831   4.906
85707SOL    HW259019   6.859  12.805   4.848
85708SOL     OW59020   0.576   8.980  10.157
85708SOL    HW159021   0.540   8.965  10.245
85708SOL    HW259022   0.542   8.908  10.105
85709SOL     OW59023  13.819   6.876   5.084
85709SOL    HW159024  13.840   6.852   4.994
85709SOL    HW259025  13.784   6.795   5.122
85710SOL     OW59026   0.730   5.894  13.787
85710SOL    HW159027   0.688   5.812  13.814
85710SOL    HW259028   0.706   5.904  13.695
85711SOL     OW59029   5.977  11.922   7.930
85711SOL    HW159030   5.939  12.009   7.934
85711SOL    HW259031   6.053  11.925   7.988
85712SOL     OW59032  13.952   9.325   3.146
85712SOL    HW159033  13.916   9.252   3.095
85712SOL    HW259034  13.876   9.381   3.164
85713SOL     OW59035   0.166   1.544   0.052
85713SOL    HW159036   0.234   1.505   0.107
85713SOL    HW259037   0.213   1.589  14.862
85714SOL     OW59038   9.884   8.381   0.996
85714SOL    HW159039   9.847   8.465   1.022
85714SOL    HW259040   9.898   8.334   1.078
85715SOL     OW59041   8.920   8.337   9.269
85715SOL    HW159042   8.902   8.430   9.280
85715SOL    HW259043   8.908   8.300   9.357
85716SOL     OW59044  10.108   9.525  10.325
85716SOL    HW159045  10.081   9.558  10.239
85716SOL    HW259046  10.154   9.443  10.306
85717SOL     OW59047   3.286   2.388   9.905
85717SOL    HW159048   3.350   2.412   9.972
85717SOL    HW259049   3.243   2.471   9.883
85718SOL     OW59050   9.029   3.334   6.259
85718SOL    HW159051   9.025   3.306   6.168
85718SOL    HW259052   9.030   3.252   6.309
85719SOL     OW59053   7.137   2.985   6.610
85719SOL    HW159054   7.155   3.049   6.541
85719SOL    HW259055   7.217   2.932   6.616
85720SOL     OW59056  14.285  10.051   4.091
85720SOL    HW159057  14.284  10.145   4.078
85720SOL    HW259058  14.371  10.032   4.128
85721SOL     OW59059   6.353  12.637   3.839
85721SOL    HW159060   6.323  12.710   3.784
85721SOL    HW259061   6.282  12.573   3.833
85722SOL     OW59062   8.718   2.612   1.420
85722SOL    HW159063   8.771   2.611   1.500
85722SOL    HW259064   8.632   2.579   1.448
85723SOL     OW59065  11.935   5.570  14.235
85723SOL    HW159066  11.869   5.574  14.305
85723SOL    HW259067  11.926   5.482  14.198
85724SOL     OW59068   9.215  11.129   2.362
85724SOL    HW159069   9.268  11.188   2.414
85724SOL    HW259070   9.230  11.156   2.271
85725SOL     OW59071   5.501  13.592  13.273
85725SOL    HW159072   5.520  13.552  13.188
85725SOL    HW259073   5.453  13.524  13.321
85726SOL     OW59074   6.470  10.729   1.048
85726SOL    HW159075   6.445  10.682   1.128
85726SOL    HW259076   6.514  10.808   1.080
85727SOL     OW59077   7.080  12.422   7.238
85727SOL    HW159078   7.105  12.476   7.163
85727SOL    HW259079   7.153  12.362   7.249
85728SOL     OW59080   8.326   4.049   3.809
85728SOL    HW159081   8.379   3.999   3.747
85728SOL    HW259082   8.381   4.122   3.836
85729SOL     OW59083   8.963   3.087   8.271
85729SOL    HW159084   8.882   3.093   8.220
85729SOL    HW259085   8.996   2.999   8.253
85730SOL     OW59086   4.803   3.507   0.962
85730SOL    HW159087   4.744   3.465   0.900
85730SOL    HW259088   4.869   3.440   0.982
85731SOL     OW59089  13.969   4.116   7.402
85731SOL    HW159090  14.039   4.176   7.428
85731SOL    HW259091  13.905   4.172   7.357
85732SOL     OW59092  12.021  10.736   7.530
85732SOL    HW159093  12.027  10.722   7.436
85732SOL    HW259094  11.940  10.693   7.556
85733SOL     OW59095   2.406   1.850  10.213
85733SOL    HW159096   2.347   1.924  10.223
85733SOL    HW259097   2.372   1.783  10.273
85734SOL     OW59098  11.779  13.948  12.892
85734SOL    HW159099  11.791  13.979  12.981
85734SOL    HW259100  11.734  14.019  12.847
85735SOL     OW59101  10.921  13.626   5.092
85735SOL    HW159102  10.826  13.616   5.103
85735SOL    HW259103  10.931  13.712   5.053
85736SOL     OW59104  12.333   1.664   5.792
85736SOL    HW159105  12.400   1.627   5.735
85736SOL    HW259106  12.250   1.635   5.754
85737SOL     OW59107   0.776  13.982   6.896
85737SOL    HW159108   0.751  13.911   6.955
85737SOL    HW259109   0.749  13.951   6.809
85738SOL     OW59110   1.178  11.497   2.509
85738SOL    HW159111   1.209  11.489   2.419
85738SOL    HW259112   1.111  11.565   2.505
85739SOL     OW59113  13.114   5.861   9.675
85739SOL    HW159114  13.202   5.847   9.640
85739SOL    HW259115  13.113   5.954   9.700
85740SOL     OW59116   6.763   2.637   6.998
85740SOL    HW159117   6.733   2.546   7.009
85740SOL    HW259118   6.691   2.690   7.033
85741SOL     OW59119   9.664  10.292  11.927
85741SOL    HW159120   9.677  10.381  11.895
85741SOL    HW259121   9.611  10.250  11.859
85742SOL     OW59122  10.744  14.181  11.365
85742SOL    HW159123  10.782  14.261  11.402
85742SOL    HW259124  10.681  14.212  11.300
85743SOL     OW59125   3.385   1.828   0.705
85743SOL    HW159126   3.479   1.827   0.719
85743SOL    HW259127   3.374   1.850   0.612
85744SOL     OW59128  12.113   5.388   6.308
85744SOL    HW159129  12.043   5.353   6.253
85744SOL    HW259130  12.083   5.372   6.398
85745SOL     OW59131   6.220   3.474   1.529
85745SOL    HW159132   6.132   3.441   1.515
85745SOL    HW259133   6.210   3.544   1.594
85746SOL     OW59134   8.676   6.641   2.729
85746SOL    HW159135   8.733   6.604   2.797
85746SOL    HW259136   8.679   6.736   2.745
85747SOL     OW59137   4.154   1.399   2.531
85747SOL    HW159138   4.166   1.494   2.521
85747SOL    HW259139   4.077   1.391   2.588
85748SOL     OW59140   9.604   6.516  14.857
85748SOL    HW159141   9.559   6.528  14.773
85748SOL    HW259142   9.642   6.602  14.875
85749SOL     OW59143  11.613  12.741   7.560
85749SOL    HW159144  11.623  12.822   7.510
85749SOL    HW259145  11.530  12.752   7.608
85750SOL     OW59146  11.761   4.859  10.099
85750SOL    HW159147  11.696   4.827  10.162
85750SOL    HW259148  11.806   4.781  10.068
85751SOL     OW59149   3.738   3.639   8.731
85751SOL    HW159150   3.722   3.656   8.824
85751SOL    HW259151   3.653   3.654   8.689
85752SOL     OW59152  10.620   6.169  11.480
85752SOL    HW159153  10.679   6.094  11.486
85752SOL    HW259154  10.648   6.215  11.401
85753SOL     OW59155  10.369   9.344   6.160
85753SOL    HW159156  10.460   9.374   6.166
85753SOL    HW259157  10.360   9.315   6.069
85754SOL     OW59158   2.209  10.790   0.768
85754SOL    HW159159   2.269  10.837   0.709
85754SOL    HW259160   2.202  10.703   0.730
85755SOL     OW59161   6.875   2.762  14.552
85755SOL    HW159162   6.865   2.765  14.457
85755SOL    HW259163   6.967   2.741  14.566
85756SOL     OW59164  12.025   6.690   8.167
85756SOL    HW159165  12.110   6.647   8.158
85756SOL    HW259166  11.962   6.628   8.131
85757SOL     OW59167   1.261   1.505   4.922
85757SOL    HW159168   1.198   1.473   4.857
85757SOL    HW259169   1.321   1.431   4.936
85758SOL     OW59170   5.936   1.253   4.270
85758SOL    HW159171   5.845   1.282   4.282
85758SOL    HW259172   5.930   1.184   4.205
85759SOL     OW59173  12.788   4.563   4.889
85759SOL    HW159174  12.746   4.477   4.893
85759SOL    HW259175  12.751   4.604   4.811
85760SOL     OW59176   4.707   9.118   9.928
85760SOL    HW159177   4.615   9.108   9.952
85760SOL    HW259178   4.752   9.132  10.011
85761SOL     OW59179   3.253   1.351   1.644
85761SOL    HW159180   3.263   1.376   1.552
85761SOL    HW259181   3.254   1.255   1.642
85762SOL     OW59182   6.606   6.067  12.312
85762SOL    HW159183   6.590   5.976  12.289
85762SOL    HW259184   6.698   6.082  12.289
85763SOL     OW59185  10.354   6.497   5.268
85763SOL    HW159186  10.413   6.430   5.234
85763SOL    HW259187  10.329   6.465   5.355
85764SOL     OW59188  11.246  14.012   3.296
85764SOL    HW159189  11.253  13.931   3.347
85764SOL    HW259190  11.337  14.042   3.286
85765SOL     OW59191  12.354   5.892   4.005
85765SOL    HW159192  12.275   5.896   4.058
85765SOL    HW259193  12.415   5.839   4.056
85766SOL     OW59194  12.560  13.345   0.642
85766SOL    HW159195  12.564  13.392   0.559
85766SOL    HW259196  12.591  13.256   0.621
85767SOL     OW59197   7.175   3.498   7.561
85767SOL    HW159198   7.128   3.510   7.479
85767SOL    HW259199   7.148   3.411   7.591
85768SOL     OW59200   1.081  11.560   1.613
85768SOL    HW159201   1.070  11.478   1.661
85768SOL    HW259202   1.175  11.577   1.616
85769SOL     OW59203   6.273  12.388   1.928
85769SOL    HW159204   6.347  12.328   1.928
85769SOL    HW259205   6.299  12.459   1.987
85770SOL     OW59206   2.731   1.229   4.452
85770SOL    HW159207   2.807   1.192   4.498
85770SOL    HW259208   2.742   1.200   4.361
85771SOL     OW59209   5.791   3.677   8.441
85771SOL    HW159210   5.885   3.696   8.431
85771SOL    HW259211   5.788   3.588   8.475
85772SOL     OW59212  10.472   4.998   5.014
85772SOL    HW159213  10.535   4.932   5.042
85772SOL    HW259214  10.462   4.984   4.920
85773SOL     OW59215   5.455   8.907   6.830
85773SOL    HW159216   5.425   8.866   6.911
85773SOL    HW259217   5.548   8.923   6.844
85774SOL     OW59218   5.360  11.176  11.904
85774SOL    HW159219   5.271  11.182  11.871
85774SOL    HW259220   5.414  11.157  11.827
85775SOL     OW59221  10.653   8.790  14.662
85775SOL    HW159222  10.612   8.703  14.662
85775SOL    HW259223  10.691   8.799  14.575
85776SOL     OW59224   8.423   8.667   8.650
85776SOL    HW159225   8.455   8.724   8.720
85776SOL    HW259226   8.502   8.624   8.617
85777SOL     OW59227  11.299   3.983   8.035
85777SOL    HW159228  11.251   4.065   8.047
85777SOL    HW259229  11.358   3.979   8.110
85778SOL     OW59230   9.796  14.093   6.767
85778SOL    HW159231   9.741  14.109   6.844
85778SOL    HW259232   9.743  14.037   6.711
85779SOL     OW59233  10.862  11.556   8.380
85779SOL    HW159234  10.830  11.522   8.297
85779SOL    HW259235  10.812  11.636   8.394
85780SOL     OW59236  10.322  11.461   8.881
85780SOL    HW159237  10.397  11.518   8.897
85780SOL    HW259238  10.357  11.372   8.894
85781SOL     OW59239  10.323  12.495   2.209
85781SOL    HW159240  10.386  12.453   2.268
85781SOL    HW259241  10.375  12.559   2.161
85782SOL     OW59242   5.213   7.443  13.842
85782SOL    HW159243   5.171   7.528  13.850
85782SOL    HW259244   5.150   7.389  13.795
85783SOL     OW59245   1.854   8.092  11.548
85783SOL    HW159246   1.779   8.144  11.519
85783SOL    HW259247   1.870   8.031  11.476
85784SOL     OW59248   7.155  14.666  10.731
85784SOL    HW159249   7.138  14.667  10.637
85784SOL    HW259250   7.069  14.675  10.771
85785SOL     OW59251  10.574   6.866   7.319
85785SOL    HW159252  10.560   6.823   7.404
85785SOL    HW259253  10.668   6.855   7.303
85786SOL     OW59254   3.363   3.879   0.775
85786SOL    HW159255   3.269   3.893   0.784
85786SOL    HW259256   3.372   3.788   0.748
85787SOL     OW59257  14.402   8.241   9.444
85787SOL    HW159258  14.416   8.148   9.426
85787SOL    HW259259  14.417   8.250   9.538
85788SOL     OW59260   7.279  12.889   4.131
85788SOL    HW159261   7.264  12.964   4.074
85788SOL    HW259262   7.260  12.921   4.219
85789SOL     OW59263  14.464  11.565   5.816
85789SOL    HW159264  14.473  11.548   5.910
85789SOL    HW259265  14.551  11.548   5.780
85790SOL     OW59266  14.629  12.552   0.153
85790SOL    HW159267  14.697  12.500   0.110
85790SOL    HW259268  14.652  12.643   0.133
85791SOL     OW59269  14.801  11.044   0.437
85791SOL    HW159270  14.857  11.000   0.501
85791SOL    HW259271  14.861  11.074   0.369
85792SOL     OW59272  10.986  11.762   7.706
85792SOL    HW159273  10.893  11.782   7.703
85792SOL    HW259274  10.997  11.713   7.788
85793SOL     OW59275  14.465  11.445  14.751
85793SOL    HW159276  14.376  11.443  14.715
85793SOL    HW259277  14.521  11.465  14.676
85794SOL     OW59278   5.859  14.075  12.516
85794SOL    HW159279   5.806  14.152  12.494
85794SOL    HW259280   5.936  14.111  12.560
85795SOL     OW59281   8.882   0.796   0.182
85795SOL    HW159282   8.834   0.855   0.123
85795SOL    HW259283   8.956   0.765   0.130
85796SOL     OW59284  10.767  11.632   1.229
85796SOL    HW159285  10.790  11.724   1.212
85796SOL    HW259286  10.851  11.591   1.250
85797SOL     OW59287   3.058   7.959   5.846
85797SOL    HW159288   3.009   7.876   5.849
85797SOL    HW259289   3.090   7.964   5.756
85798SOL     OW59290  14.113   2.817   7.440
85798SOL    HW159291  14.043   2.880   7.423
85798SOL    HW259292  14.193   2.867   7.432
85799SOL     OW59293   8.671  11.937   3.408
85799SOL    HW159294   8.708  11.988   3.335
85799SOL    HW259295   8.670  11.998   3.481
85800SOL     OW59296   9.116  11.183   4.819
85800SOL    HW159297   9.199  11.198   4.774
85800SOL    HW259298   9.085  11.099   4.787
85801SOL     OW59299  12.117   4.844  12.209
85801SOL    HW159300  12.038   4.792  12.195
85801SOL    HW259301  12.176   4.819  12.138
85802SOL     OW59302   0.824  10.372   0.956
85802SOL    HW159303   0.738  10.364   0.915
85802SOL    HW259304   0.872  10.430   0.897
85803SOL     OW59305  12.156  13.515   6.917
85803SOL    HW159306  12.135  13.471   6.835
85803SOL    HW259307  12.087  13.581   6.928
85804SOL     OW59308   0.072   5.014   6.098
85804SOL    HW159309   0.091   4.921   6.100
85804SOL    HW259310  14.866   5.020   6.055
85805SOL     OW59311   4.427   0.661   4.814
85805SOL    HW159312   4.464   0.720   4.879
85805SOL    HW259313   4.497   0.647   4.751
85806SOL     OW59314   9.007   2.943   0.860
85806SOL    HW159315   9.027   2.910   0.948
85806SOL    HW259316   8.956   2.873   0.820
85807SOL     OW59317   8.538   0.033  10.308
85807SOL    HW159318   8.605   0.075  10.363
85807SOL    HW259319   8.482  14.867  10.370
85808SOL     OW59320   4.396   5.966   6.231
85808SOL    HW159321   4.459   6.038   6.225
85808SOL    HW259322   4.443   5.897   6.278
85809SOL     OW59323   1.249   8.440   0.746
85809SOL    HW159324   1.337   8.465   0.774
85809SOL    HW259325   1.202   8.523   0.736
85810SOL     OW59326   6.656   2.400   4.789
85810SOL    HW159327   6.713   2.461   4.835
85810SOL    HW259328   6.686   2.313   4.817
85811SOL     OW59329  13.573   3.221   4.916
85811SOL    HW159330  13.597   3.261   5.000
85811SOL    HW259331  13.649   3.169   4.892
85812SOL     OW59332   8.947   2.684  13.941
85812SOL    HW159333   8.996   2.640  13.871
85812SOL    HW259334   8.870   2.720  13.897
85813SOL     OW59335   6.379  10.660   9.431
85813SOL    HW159336   6.389  10.643   9.337
85813SOL    HW259337   6.442  10.601   9.473
85814SOL     OW59338  11.710   6.708  10.305
85814SOL    HW159339  11.679   6.706  10.214
85814SOL    HW259340  11.738   6.799  10.318
85815SOL     OW59341   2.401   7.388  12.323
85815SOL    HW159342   2.479   7.398  12.268
85815SOL    HW259343   2.401   7.465  12.380
85816SOL     OW59344  14.264   1.432   4.181
85816SOL    HW159345  14.243   1.415   4.089
85816SOL    HW259346  14.349   1.389   4.194
85817SOL     OW59347  13.375   6.338  14.019
85817SOL    HW159348  13.370   6.322  14.113
85817SOL    HW259349  13.452   6.393  14.008
85818SOL     OW59350   4.052   7.702   3.671
85818SOL    HW159351   3.980   7.639   3.672
85818SOL    HW259352   4.014   7.782   3.709
85819SOL     OW59353   7.883   1.702   7.895
85819SOL    HW159354   7.839   1.767   7.840
85819SOL    HW259355   7.874   1.620   7.848
85820SOL     OW59356   5.864   1.386   0.594
85820SOL    HW159357   5.811   1.344   0.525
85820SOL    HW259358   5.816   1.467   0.614
85821SOL     OW59359  10.105   0.890  13.742
85821SOL    HW159360  10.038   0.934  13.691
85821SOL    HW259361  10.136   0.820  13.685
85822SOL     OW59362  13.139  11.103   1.735
85822SOL    HW159363  13.187  11.166   1.681
85822SOL    HW259364  13.148  11.137   1.824
85823SOL     OW59365  14.125  10.279  10.148
85823SOL    HW159366  14.112  10.256  10.056
85823SOL    HW259367  14.106  10.199  10.196
85824SOL     OW59368  12.674  10.898   7.000
85824SOL    HW159369  12.662  10.990   7.024
85824SOL    HW259370  12.742  10.900   6.932
85825SOL     OW59371   0.188   5.786  10.168
85825SOL    HW159372   0.206   5.693  10.180
85825SOL    HW259373   0.128   5.789  10.093
85826SOL     OW59374   5.735   4.635  10.496
85826SOL    HW159375   5.653   4.680  10.515
85826SOL    HW259376   5.779   4.691  10.432
85827SOL     OW59377   8.597   1.663   1.246
85827SOL    HW159378   8.587   1.757   1.256
85827SOL    HW259379   8.633   1.633   1.330
85828SOL     OW59380  10.377   8.484   8.353
85828SOL    HW159381  10.404   8.572   8.382
85828SOL    HW259382  10.284   8.481   8.372
85829SOL     OW59383   3.275   2.591   2.398
85829SOL    HW159384   3.237   2.538   2.329
85829SOL    HW259385   3.366   2.605   2.371
85830SOL     OW59386  11.935   7.155   9.889
85830SOL    HW159387  12.020   7.197   9.904
85830SOL    HW259388  11.942   7.070   9.931
85831SOL     OW59389  14.047  12.238   2.948
85831SOL    HW159390  14.002  12.161   2.915
85831SOL    HW259391  13.989  12.272   3.017
85832SOL     OW59392   4.148  10.195   9.893
85832SOL    HW159393   4.109  10.212   9.979
85832SOL    HW259394   4.149  10.099   9.887
85833SOL     OW59395   0.800  11.945   4.461
85833SOL    HW159396   0.769  11.924   4.549
85833SOL    HW259397   0.722  11.939   4.406
85834SOL     OW59398   2.367   4.500  12.509
85834SOL    HW159399   2.278   4.494  12.543
85834SOL    HW259400   2.357   4.521  12.416
85835SOL     OW59401  11.179   6.641   5.296
85835SOL    HW159402  11.188   6.552   5.330
85835SOL    HW259403  11.263   6.682   5.313
85836SOL     OW59404   0.870   3.146   7.287
85836SOL    HW159405   0.962   3.165   7.306
85836SOL    HW259406   0.873   3.067   7.234
85837SOL     OW59407   0.119  10.588  13.963
85837SOL    HW159408   0.181  10.517  13.975
85837SOL    HW259409   0.083  10.575  13.875
85838SOL     OW59410  12.420   9.990   5.027
85838SOL    HW159411  12.441   9.964   4.937
85838SOL    HW259412  12.496  10.041   5.055
85839SOL     OW59413  12.753   5.612  10.330
85839SOL    HW159414  12.838   5.602  10.287
85839SOL    HW259415  12.774   5.644  10.418
85840SOL     OW59416   8.947   6.700  14.149
85840SOL    HW159417   8.898   6.739  14.077
85840SOL    HW259418   8.986   6.774  14.196
85841SOL     OW59419  13.202  13.073   0.428
85841SOL    HW159420  13.181  13.032   0.344
85841SOL    HW259421  13.254  13.008   0.475
85842SOL     OW59422  10.913  12.855  13.658
85842SOL    HW159423  10.936  12.947  13.647
85842SOL    HW259424  10.826  12.847  13.618
85843SOL     OW59425   8.969   8.893  12.888
85843SOL    HW159426   8.937   8.932  12.806
85843SOL    HW259427   8.920   8.938  12.956
85844SOL     OW59428   7.947   8.103   2.321
85844SOL    HW159429   7.997   8.064   2.250
85844SOL    HW259430   7.861   8.061   2.315
85845SOL     OW59431   9.430   5.246   2.348
85845SOL    HW159432   9.391   5.166   2.382
85845SOL    HW259433   9.497   5.216   2.287
85846SOL     OW59434   6.206  11.498  10.834
85846SOL    HW159435   6.213  11.464  10.744
85846SOL    HW259436   6.120  11.539  10.838
85847SOL     OW59437   7.058   4.307   0.833
85847SOL    HW159438   7.022   4.333   0.918
85847SOL    HW259439   7.128   4.245   0.856
85848SOL     OW59440   1.964   7.782  13.424
85848SOL    HW159441   1.878   7.822  13.424
85848SOL    HW259442   1.993   7.786  13.515
85849SOL     OW59443  10.350   2.689   1.010
85849SOL    HW159444  10.276   2.636   1.040
85849SOL    HW259445  10.358   2.670   0.917
85850SOL     OW59446  13.295  12.053  12.225
85850SOL    HW159447  13.305  11.962  12.254
85850SOL    HW259448  13.382  12.091  12.238
85851SOL     OW59449   1.924  12.283   8.888
85851SOL    HW159450   1.934  12.347   8.958
85851SOL    HW259451   1.999  12.299   8.831
85852SOL     OW59452   8.645   1.709   5.800
85852SOL    HW159453   8.671   1.635   5.855
85852SOL    HW259454   8.623   1.778   5.863
85853SOL     OW59455  13.365  12.655  10.472
85853SOL    HW159456  13.376  12.750  10.469
85853SOL    HW259457  13.365  12.628  10.380
85854SOL     OW59458   5.507  10.098  12.413
85854SOL    HW159459   5.541  10.038  12.347
85854SOL    HW259460   5.424  10.060  12.441
85855SOL     OW59461   3.829   8.677  14.758
85855SOL    HW159462   3.867   8.611  14.816
85855SOL    HW259463   3.899   8.701  14.698
85856SOL     OW59464  14.000   1.585   8.165
85856SOL    HW159465  14.084   1.632   8.168
85856SOL    HW259466  14.020   1.503   8.120
85857SOL     OW59467  11.144   4.701   7.795
85857SOL    HW159468  11.063   4.663   7.829
85857SOL    HW259469  11.164   4.773   7.855
85858SOL     OW59470   1.578  14.216  10.406
85858SOL    HW159471   1.648  14.278  10.389
85858SOL    HW259472   1.539  14.199  10.321
85859SOL     OW59473   6.518  11.277   6.494
85859SOL    HW159474   6.476  11.276   6.580
85859SOL    HW259475   6.596  11.222   6.505
85860SOL     OW59476   4.835  14.709   5.762
85860SOL    HW159477   4.755  14.762   5.760
85860SOL    HW259478   4.807  14.623   5.728
85861SOL     OW59479   3.443  10.678   3.871
85861SOL    HW159480   3.472  10.769   3.882
85861SOL    HW259481   3.372  10.668   3.934
85862SOL     OW59482   5.485  13.663   5.155
85862SOL    HW159483   5.515  13.572   5.155
85862SOL    HW259484   5.555  13.711   5.111
85863SOL     OW59485   7.519   7.524  10.338
85863SOL    HW159486   7.517   7.500  10.431
85863SOL    HW259487   7.605   7.563  10.326
85864SOL     OW59488   6.152  14.534   3.326
85864SOL    HW159489   6.158  14.475   3.401
85864SOL    HW259490   6.224  14.507   3.269
85865SOL     OW59491   2.216   2.315   5.611
85865SOL    HW159492   2.178   2.380   5.553
85865SOL    HW259493   2.264   2.366   5.676
85866SOL     OW59494   9.361   7.122   1.207
85866SOL    HW159495   9.352   7.081   1.293
85866SOL    HW259496   9.342   7.214   1.222
85867SOL     OW59497   1.718  10.253   3.566
85867SOL    HW159498   1.699  10.344   3.588
85867SOL    HW259499   1.670  10.201   3.630
85868SOL     OW59500   6.358   3.603   9.490
85868SOL    HW159501   6.271   3.579   9.522
85868SOL    HW259502   6.369   3.550   9.411
85869SOL     OW59503  13.145   5.309   9.963
85869SOL    HW159504  13.095   5.246   9.912
85869SOL    HW259505  13.157   5.383   9.904
85870SOL     OW59506   4.292   0.458   8.163
85870SOL    HW159507   4.385   0.435   8.152
85870SOL    HW259508   4.290   0.509   8.244
85871SOL     OW59509   3.181  12.690   1.215
85871SOL    HW159510   3.225  12.775   1.221
85871SOL    HW259511   3.106  12.706   1.159
85872SOL     OW59512   4.350   5.737   4.661
85872SOL    HW159513   4.335   5.749   4.755
85872SOL    HW259514   4.283   5.675   4.634
85873SOL     OW59515   2.316  14.017   8.661
85873SOL    HW159516   2.379  14.073   8.616
85873SOL    HW259517   2.251  13.994   8.595
85874SOL     OW59518  12.329   0.794   4.193
85874SOL    HW159519  12.385   0.719   4.177
85874SOL    HW259520  12.243   0.756   4.214
85875SOL     OW59521   8.868   7.223  12.635
85875SOL    HW159522   8.831   7.142  12.602
85875SOL    HW259523   8.899   7.269  12.557
85876SOL     OW59524  14.579   2.163   0.926
85876SOL    HW159525  14.597   2.163   0.832
85876SOL    HW259526  14.655   2.205   0.965
85877SOL     OW59527  12.598   1.099  12.279
85877SOL    HW159528  12.684   1.138  12.291
85877SOL    HW259529  12.600   1.065  12.189
85878SOL     OW59530   2.991   8.509   8.186
85878SOL    HW159531   2.992   8.570   8.260
85878SOL    HW259532   3.082   8.486   8.172
85879SOL     OW59533  13.864   9.200  13.427
85879SOL    HW159534  13.841   9.183  13.519
85879SOL    HW259535  13.854   9.295  13.417
85880SOL     OW59536   5.627   4.943   1.271
85880SOL    HW159537   5.620   4.993   1.353
85880SOL    HW259538   5.721   4.941   1.252
85881SOL     OW59539   0.478  12.200  13.429
85881SOL    HW159540   0.435  12.129  13.477
85881SOL    HW259541   0.475  12.274  13.490
85882SOL     OW59542   6.465   5.624   5.307
85882SOL    HW159543   6.400   5.681   5.266
85882SOL    HW259544   6.443   5.536   5.277
85883SOL     OW59545   6.422   9.529   3.051
85883SOL    HW159546   6.346   9.502   3.000
85883SOL    HW259547   6.489   9.549   2.987
85884SOL     OW59548   3.286  14.219   7.849
85884SOL    HW159549   3.342  14.195   7.775
85884SOL    HW259550   3.315  14.307   7.874
85885SOL     OW59551   7.531   8.586   2.120
85885SOL    HW159552   7.488   8.502   2.104
85885SOL    HW259553   7.571   8.610   2.036
85886SOL     OW59554   7.360   5.875   6.845
85886SOL    HW159555   7.318   5.802   6.891
85886SOL    HW259556   7.447   5.882   6.885
85887SOL     OW59557   4.212   3.197   8.962
85887SOL    HW159558   4.124   3.164   8.980
85887SOL    HW259559   4.254   3.128   8.910
85888SOL     OW59560   8.197  12.605   0.355
85888SOL    HW159561   8.160  12.611   0.443
85888SOL    HW259562   8.232  12.517   0.349
85889SOL     OW59563   6.629   6.657   2.442
85889SOL    HW159564   6.586   6.743   2.436
85889SOL    HW259565   6.691   6.657   2.370
85890SOL     OW59566   1.859   6.936  13.657
85890SOL    HW159567   1.906   6.898  13.731
85890SOL    HW259568   1.922   6.996  13.617
85891SOL     OW59569   1.882  12.855   6.573
85891SOL    HW159570   1.890  12.760   6.582
85891SOL    HW259571   1.955  12.890   6.624
85892SOL     OW59572   4.011   0.019   6.481
85892SOL    HW159573   4.017   0.101   6.531
85892SOL    HW259574   4.049  14.833   6.539
85893SOL     OW59575   3.728   9.620  11.274
85893SOL    HW159576   3.730   9.571  11.356
85893SOL    HW259577   3.636   9.617  11.246
85894SOL     OW59578  10.015   2.513   8.077
85894SOL    HW159579   9.988   2.475   7.994
85894SOL    HW259580  10.016   2.607   8.061
85895SOL     OW59581   2.861   1.478   6.946
85895SOL    HW159582   2.843   1.567   6.975
85895SOL    HW259583   2.876   1.485   6.852
85896SOL     OW59584  10.579  10.757   5.692
85896SOL    HW159585  10.552  10.801   5.611
85896SOL    HW259586  10.497  10.732   5.735
85897SOL     OW59587   8.994   7.009  13.795
85897SOL    HW159588   9.076   6.984  13.751
85897SOL    HW259589   8.929   7.014  13.724
85898SOL     OW59590   3.593   4.495   8.865
85898SOL    HW159591   3.649   4.453   8.930
85898SOL    HW259592   3.590   4.434   8.792
85899SOL     OW59593   7.970  12.330   5.814
85899SOL    HW159594   8.026  12.393   5.768
85899SOL    HW259595   7.924  12.383   5.880
85900SOL     OW59596  11.507   2.868   7.888
85900SOL    HW159597  11.464   2.797   7.840
85900SOL    HW259598  11.587   2.884   7.839
85901SOL     OW59599   6.186  10.256   6.714
85901SOL    HW159600   6.192  10.349   6.693
85901SOL    HW259601   6.100  10.230   6.680
85902SOL     OW59602  10.252  11.423  14.769
85902SOL    HW159603  10.292  11.471  14.841
85902SOL    HW259604  10.244  11.333  14.801
85903SOL     OW59605   8.616  14.762   3.261
85903SOL    HW159606   8.550  14.786   3.196
85903SOL    HW259607   8.634  14.669   3.245
85904SOL     OW59608   0.667  12.800   0.836
85904SOL    HW159609   0.713  12.791   0.752
85904SOL    HW259610   0.577  12.821   0.812
85905SOL     OW59611   9.805  13.368   3.217
85905SOL    HW159612   9.759  13.357   3.300
85905SOL    HW259613   9.862  13.444   3.232
85906SOL     OW59614   6.119   2.841  13.344
85906SOL    HW159615   6.093   2.929  13.316
85906SOL    HW259616   6.036   2.798  13.366
85907SOL     OW59617   1.208   0.477   5.897
85907SOL    HW159618   1.183   0.535   5.825
85907SOL    HW259619   1.148   0.501   5.968
85908SOL     OW59620  11.667   4.776   3.531
85908SOL    HW159621  11.612   4.750   3.605
85908SOL    HW259622  11.755   4.785   3.568
85909SOL     OW59623   1.465   5.749  14.294
85909SOL    HW159624   1.517   5.806  14.351
85909SOL    HW259625   1.377   5.786  14.297
85910SOL     OW59626   8.679  11.912   2.183
85910SOL    HW159627   8.699  11.954   2.099
85910SOL    HW259628   8.716  11.971   2.249
85911SOL     OW59629  11.203  11.097   8.022
85911SOL    HW159630  11.262  11.022   8.023
85911SOL    HW259631  11.169  11.102   8.112
85912SOL     OW59632   9.557  11.504   1.966
85912SOL    HW159633   9.596  11.580   2.008
85912SOL    HW259634   9.621  11.477   1.900
85913SOL     OW59635  13.611   2.275   2.015
85913SOL    HW159636  13.577   2.330   1.945
85913SOL    HW259637  13.591   2.323   2.095
85914SOL     OW59638   3.771   5.851   3.368
85914SOL    HW159639   3.742   5.792   3.438
85914SOL    HW259640   3.736   5.937   3.393
85915SOL     OW59641   8.739  14.343   1.384
85915SOL    HW159642   8.722  14.311   1.473
85915SOL    HW259643   8.827  14.311   1.364
85916SOL     OW59644   8.663  10.392  11.475
85916SOL    HW159645   8.588  10.403  11.416
85916SOL    HW259646   8.662  10.470  11.530
85917SOL     OW59647   0.666   7.562   6.767
85917SOL    HW159648   0.708   7.607   6.840
85917SOL    HW259649   0.691   7.612   6.690
85918SOL     OW59650   2.429   7.192   2.483
85918SOL    HW159651   2.394   7.150   2.562
85918SOL    HW259652   2.499   7.133   2.455
85919SOL     OW59653  12.711   2.959   8.542
85919SOL    HW159654  12.669   3.017   8.479
85919SOL    HW259655  12.650   2.886   8.551
85920SOL     OW59656   6.329  10.641  13.402
85920SOL    HW159657   6.311  10.728  13.365
85920SOL    HW259658   6.287  10.581  13.341
85921SOL     OW59659  13.319  11.083   6.147
85921SOL    HW159660  13.399  11.045   6.111
85921SOL    HW259661  13.329  11.075   6.241
85922SOL     OW59662   1.905   3.439   0.350
85922SOL    HW159663   1.979   3.501   0.350
85922SOL    HW259664   1.938   3.363   0.303
85923SOL     OW59665  14.173  14.523   7.985
85923SOL    HW159666  14.145  14.445   8.034
85923SOL    HW259667  14.098  14.547   7.933
85924SOL     OW59668   8.833  14.794  10.360
85924SOL    HW159669   8.924  14.813  10.336
85924SOL    HW259670   8.797  14.879  10.387
85925SOL     OW59671   5.496   9.553  12.954
85925SOL    HW159672   5.523   9.573  12.864
85925SOL    HW259673   5.450   9.469  12.948
85926SOL     OW59674   4.538   3.828   4.138
85926SOL    HW159675   4.553   3.903   4.080
85926SOL    HW259676   4.535   3.753   4.079
85927SOL     OW59677   5.710   8.379  12.003
85927SOL    HW159678   5.639   8.350  12.060
85927SOL    HW259679   5.672   8.451  11.953
85928SOL     OW59680  14.587  11.642   4.589
85928SOL    HW159681  14.655  11.610   4.530
85928SOL    HW259682  14.559  11.566   4.639
85929SOL     OW59683   8.965   2.712   9.498
85929SOL    HW159684   8.883   2.663   9.508
85929SOL    HW259685   8.937   2.798   9.466
85930SOL     OW59686   2.646   9.040   6.074
85930SOL    HW159687   2.587   9.005   6.007
85930SOL    HW259688   2.732   9.039   6.032
85931SOL     OW59689   9.618   5.831   3.090
85931SOL    HW159690   9.576   5.750   3.060
85931SOL    HW259691   9.686   5.848   3.025
85932SOL     OW59692  11.177   3.993   4.502
85932SOL    HW159693  11.229   3.937   4.444
85932SOL    HW259694  11.206   3.970   4.590
85933SOL     OW59695   1.413  13.044  10.586
85933SOL    HW159696   1.428  12.950  10.595
85933SOL    HW259697   1.356  13.066  10.660
85934SOL     OW59698   7.777   6.932  12.070
85934SOL    HW159699   7.731   7.013  12.047
85934SOL    HW259700   7.707   6.870  12.089
85935SOL     OW59701  12.169  11.950   5.161
85935SOL    HW159702  12.248  11.926   5.211
85935SOL    HW259703  12.160  12.045   5.174
85936SOL     OW59704   7.894   0.490   4.898
85936SOL    HW159705   7.823   0.547   4.929
85936SOL    HW259706   7.867   0.402   4.925
85937SOL     OW59707  12.787   1.625  12.127
85937SOL    HW159708  12.876   1.620  12.091
85937SOL    HW259709  12.731   1.632  12.050
85938SOL     OW59710   0.549   7.990   7.867
85938SOL    HW159711   0.473   7.937   7.888
85938SOL    HW259712   0.513   8.077   7.849
85939SOL     OW59713   9.136  13.610   4.440
85939SOL    HW159714   9.067  13.589   4.503
85939SOL    HW259715   9.216  13.573   4.478
85940SOL     OW59716  10.319   9.424   5.096
85940SOL    HW159717  10.266   9.392   5.023
85940SOL    HW259718  10.281   9.509   5.119
85941SOL     OW59719   7.343   1.649   8.168
85941SOL    HW159720   7.263   1.701   8.181
85941SOL    HW259721   7.363   1.613   8.254
85942SOL     OW59722  13.748  12.090   6.078
85942SOL    HW159723  13.667  12.115   6.033
85942SOL    HW259724  13.792  12.173   6.096
85943SOL     OW59725   8.517  12.745  10.852
85943SOL    HW159726   8.570  12.753  10.773
85943SOL    HW259727   8.551  12.813  10.910
85944SOL     OW59728  14.297   2.217  14.801
85944SOL    HW159729  14.316   2.171  14.719
85944SOL    HW259730  14.377   2.208  14.853
85945SOL     OW59731   8.060   4.867   4.647
85945SOL    HW159732   7.973   4.837   4.672
85945SOL    HW259733   8.056   4.877   4.552
85946SOL     OW59734  13.480  10.194   9.647
85946SOL    HW159735  13.499  10.180   9.740
85946SOL    HW259736  13.390  10.163   9.637
85947SOL     OW59737  13.707  14.514   6.530
85947SOL    HW159738  13.688  14.422   6.544
85947SOL    HW259739  13.699  14.553   6.617
85948SOL     OW59740   4.928   8.388   7.577
85948SOL    HW159741   4.994   8.457   7.588
85948SOL    HW259742   4.875   8.394   7.657
85949SOL     OW59743   9.585   3.012   1.469
85949SOL    HW159744   9.495   2.980   1.456
85949SOL    HW259745   9.623   2.951   1.533
85950SOL     OW59746   9.709  12.092  14.573
85950SOL    HW159747   9.646  12.099  14.502
85950SOL    HW259748   9.792  12.122  14.535
85951SOL     OW59749   7.575  12.291   8.791
85951SOL    HW159750   7.586  12.324   8.702
85951SOL    HW259751   7.531  12.206   8.780
85952SOL     OW59752   4.719   6.716  14.279
85952SOL    HW159753   4.781   6.787  14.296
85952SOL    HW259754   4.756   6.640  14.326
85953SOL     OW59755   3.325  14.450   3.226
85953SOL    HW159756   3.388  14.515   3.195
85953SOL    HW259757   3.263  14.500   3.279
85954SOL     OW59758   3.444   4.095   8.010
85954SOL    HW159759   3.355   4.127   8.024
85954SOL    HW259760   3.498   4.174   8.003
85955SOL     OW59761   4.956  11.250  10.778
85955SOL    HW159762   4.912  11.232  10.861
85955SOL    HW259763   4.916  11.332  10.748
85956SOL     OW59764   7.039   6.413   2.063
85956SOL    HW159765   7.098   6.367   2.003
85956SOL    HW259766   7.097   6.463   2.119
85957SOL     OW59767   3.165  12.534   2.576
85957SOL    HW159768   3.218  12.598   2.623
85957SOL    HW259769   3.086  12.582   2.552
85958SOL     OW59770   2.409  11.421   9.209
85958SOL    HW159771   2.498  11.415   9.243
85958SOL    HW259772   2.414  11.380   9.123
85959SOL     OW59773   1.940   2.911  14.267
85959SOL    HW159774   1.854   2.929  14.229
85959SOL    HW259775   1.927   2.832  14.319
85960SOL     OW59776   6.558  10.034   5.156
85960SOL    HW159777   6.520  10.003   5.074
85960SOL    HW259778   6.487  10.080   5.200
85961SOL     OW59779   3.857   2.088  12.191
85961SOL    HW159780   3.834   2.017  12.250
85961SOL    HW259781   3.863   2.047  12.105
85962SOL     OW59782   2.013   1.472   3.558
85962SOL    HW159783   1.933   1.430   3.527
85962SOL    HW259784   1.983   1.554   3.599
85963SOL     OW59785   7.476   6.545   7.128
85963SOL    HW159786   7.496   6.621   7.074
85963SOL    HW259787   7.526   6.559   7.209
85964SOL     OW59788   5.044  11.137   9.490
85964SOL    HW159789   4.960  11.182   9.477
85964SOL    HW259790   5.062  11.148   9.583
85965SOL     OW59791   9.958  11.177   6.995
85965SOL    HW159792   9.952  11.115   7.068
85965SOL    HW259793   9.883  11.236   7.007
85966SOL     OW59794   2.793   5.040   2.139
85966SOL    HW159795   2.819   4.952   2.114
85966SOL    HW259796   2.709   5.054   2.096
85967SOL     OW59797   6.403  13.109   6.335
85967SOL    HW159798   6.318  13.097   6.378
85967SOL    HW259799   6.440  13.187   6.374
85968SOL     OW59800   0.117  10.955   1.478
85968SOL    HW159801   0.028  10.991   1.471
85968SOL    HW259802   0.114  10.873   1.429
85969SOL     OW59803  11.874   3.131   4.952
85969SOL    HW159804  11.936   3.132   4.879
85969SOL    HW259805  11.901   3.205   5.007
85970SOL     OW59806   7.254  10.287  12.332
85970SOL    HW159807   7.227  10.319  12.246
85970SOL    HW259808   7.187  10.319  12.392
85971SOL     OW59809   6.768  14.067   7.499
85971SOL    HW159810   6.764  13.972   7.490
85971SOL    HW259811   6.816  14.081   7.581
85972SOL     OW59812   3.444   5.762   1.662
85972SOL    HW159813   3.404   5.840   1.624
85972SOL    HW259814   3.532   5.790   1.687
85973SOL     OW59815  11.176  13.431   5.334
85973SOL    HW159816  11.159  13.442   5.428
85973SOL    HW259817  11.162  13.518   5.297
85974SOL     OW59818   9.507   5.050   5.329
85974SOL    HW159819   9.454   5.125   5.300
85974SOL    HW259820   9.562   5.030   5.253
85975SOL     OW59821   5.095   7.716   8.064
85975SOL    HW159822   5.080   7.795   8.012
85975SOL    HW259823   5.013   7.667   8.056
85976SOL     OW59824   5.953   9.918   0.191
85976SOL    HW159825   6.022   9.901   0.256
85976SOL    HW259826   5.958   9.843   0.131
85977SOL     OW59827  11.271   7.092   8.032
85977SOL    HW159828  11.224   7.128   7.957
85977SOL    HW259829  11.206   7.088   8.102
85978SOL     OW59830   6.168   2.315  10.393
85978SOL    HW159831   6.095   2.267  10.352
85978SOL    HW259832   6.246   2.266  10.368
85979SOL     OW59833   6.216   7.613  13.110
85979SOL    HW159834   6.233   7.591  13.201
85979SOL    HW259835   6.142   7.559  13.085
85980SOL     OW59836  11.439  10.411   6.058
85980SOL    HW159837  11.444  10.416   5.962
85980SOL    HW259838  11.458  10.320   6.079
85981SOL     OW59839   7.605   5.648   2.113
85981SOL    HW159840   7.535   5.587   2.088
85981SOL    HW259841   7.672   5.636   2.047
85982SOL     OW59842   1.829   1.456   3.078
85982SOL    HW159843   1.787   1.414   3.152
85982SOL    HW259844   1.830   1.390   3.009
85983SOL     OW59845  12.246  13.028   2.038
85983SOL    HW159846  12.194  12.969   1.983
85983SOL    HW259847  12.257  12.980   2.120
85984SOL     OW59848   9.238  10.938   1.846
85984SOL    HW159849   9.276  10.888   1.918
85984SOL    HW259850   9.164  10.983   1.885
85985SOL     OW59851  10.943   9.109   1.157
85985SOL    HW159852  11.019   9.053   1.141
85985SOL    HW259853  10.873   9.048   1.182
85986SOL     OW59854  10.862   4.038  13.896
85986SOL    HW159855  10.767   4.026  13.890
85986SOL    HW259856  10.879   4.050  13.989
85987SOL     OW59857  13.384  10.531   8.822
85987SOL    HW159858  13.304  10.491   8.786
85987SOL    HW259859  13.366  10.625   8.820
85988SOL     OW59860   5.429   4.249   5.921
85988SOL    HW159861   5.420   4.305   5.845
85988SOL    HW259862   5.522   4.224   5.923
85989SOL     OW59863   0.819   8.357   6.390
85989SOL    HW159864   0.768   8.300   6.333
85989SOL    HW259865   0.908   8.353   6.354
85990SOL     OW59866   1.893   3.504  12.433
85990SOL    HW159867   1.968   3.519  12.491
85990SOL    HW259868   1.826   3.466  12.489
85991SOL     OW59869  14.320   0.045   0.877
85991SOL    HW159870  14.400  14.879   0.852
85991SOL    HW259871  14.265   0.042   0.799
85992SOL     OW59872  13.705   2.441   1.564
85992SOL    HW159873  13.647   2.429   1.488
85992SOL    HW259874  13.662   2.394   1.635
85993SOL     OW59875   6.978   4.971   0.403
85993SOL    HW159876   6.987   5.028   0.327
85993SOL    HW259877   7.004   5.026   0.477
85994SOL     OW59878  13.792  10.795   2.440
85994SOL    HW159879  13.857  10.824   2.376
85994SOL    HW259880  13.744  10.725   2.396
85995SOL     OW59881   0.145   0.677   4.948
85995SOL    HW159882   0.160   0.769   4.969
85995SOL    HW259883   0.225   0.649   4.904
85996SOL     OW59884   6.236  12.196   6.819
85996SOL    HW159885   6.168  12.229   6.761
85996SOL    HW259886   6.220  12.101   6.823
85997SOL     OW59887  14.173   0.403  10.608
85997SOL    HW159888  14.148   0.311  10.617
85997SOL    HW259889  14.183   0.434  10.698
85998SOL     OW59890  12.878  14.844   5.418
85998SOL    HW159891  12.955  14.789   5.428
85998SOL    HW259892  12.805  14.789   5.449
85999SOL     OW59893  11.330   4.377  13.833
85999SOL    HW159894  11.294   4.395  13.746
85999SOL    HW259895  11.254   4.347  13.884
86000SOL     OW59896   1.839  10.297   0.044
86000SOL    HW159897   1.845  10.380   0.093
86000SOL    HW259898   1.791  10.321  14.844
86001SOL     OW59899   3.042  13.204  12.861
86001SOL    HW159900   2.967  13.146  12.845
86001SOL    HW259901   3.076  13.176  12.947
86002SOL     OW59902   6.641   9.111   3.887
86002SOL    HW159903   6.696   9.038   3.916
86002SOL    HW259904   6.704   9.181   3.866
86003SOL     OW59905   3.934  12.149  14.273
86003SOL    HW159906   3.893  12.073  14.315
86003SOL    HW259907   3.864  12.189  14.222
86004SOL     OW59908  13.237   8.199  12.859
86004SOL    HW159909  13.304   8.236  12.803
86004SOL    HW259910  13.282   8.184  12.943
86005SOL     OW59911   4.242   8.015   2.916
86005SOL    HW159912   4.308   7.957   2.953
86005SOL    HW259913   4.289   8.065   2.850
86006SOL     OW59914  10.266   4.331  14.821
86006SOL    HW159915  10.235   4.414  14.785
86006SOL    HW259916  10.195   4.303  14.880
86007SOL     OW59917   1.032   2.583  12.173
86007SOL    HW159918   1.109   2.636  12.195
86007SOL    HW259919   0.964   2.615  12.232
86008SOL     OW59920   8.534  12.878   0.439
86008SOL    HW159921   8.487  12.828   0.372
86008SOL    HW259922   8.534  12.968   0.405
86009SOL     OW59923   0.620   1.866   5.659
86009SOL    HW159924   0.690   1.898   5.716
86009SOL    HW259925   0.540   1.901   5.697
86010SOL     OW59926  10.640   8.267   8.834
86010SOL    HW159927  10.633   8.189   8.779
86010SOL    HW259928  10.722   8.255   8.882
86011SOL     OW59929   8.787   0.505   9.851
86011SOL    HW159930   8.865   0.482   9.902
86011SOL    HW259931   8.816   0.498   9.760
86012SOL     OW59932  14.107  13.493   0.577
86012SOL    HW159933  14.181  13.552   0.591
86012SOL    HW259934  14.146  13.414   0.541
86013SOL     OW59935   2.217   1.500   3.788
86013SOL    HW159936   2.170   1.427   3.747
86013SOL    HW259937   2.165   1.577   3.764
86014SOL     OW59938   9.210   8.262   5.241
86014SOL    HW159939   9.207   8.323   5.315
86014SOL    HW259940   9.167   8.309   5.170
86015SOL     OW59941   9.670  14.873  11.553
86015SOL    HW159942   9.695  14.792  11.598
86015SOL    HW259943   9.621  14.843  11.477
86016SOL     OW59944  12.400  13.105   1.626
86016SOL    HW159945  12.336  13.035   1.638
86016SOL    HW259946  12.377  13.146   1.543
86017SOL     OW59947   7.716   1.142   0.213
86017SOL    HW159948   7.718   1.108   0.124
86017SOL    HW259949   7.658   1.082   0.260
86018SOL     OW59950   3.910   3.880   3.986
86018SOL    HW159951   3.949   3.888   4.073
86018SOL    HW259952   3.877   3.968   3.966
86019SOL     OW59953   4.801   5.323   2.374
86019SOL    HW159954   4.845   5.392   2.324
86019SOL    HW259955   4.833   5.334   2.464
86020SOL     OW59956  11.419   2.791   4.965
86020SOL    HW159957  11.514   2.805   4.959
86020SOL    HW259958  11.390   2.790   4.874
86021SOL     OW59959   2.925   7.135   6.286
86021SOL    HW159960   2.836   7.106   6.266
86021SOL    HW259961   2.938   7.212   6.231
86022SOL     OW59962  12.907   8.088  10.722
86022SOL    HW159963  12.967   8.104  10.649
86022SOL    HW259964  12.875   8.175  10.746
86023SOL     OW59965  11.487  11.358   5.878
86023SOL    HW159966  11.574  11.338   5.912
86023SOL    HW259967  11.427  11.320   5.942
86024SOL     OW59968   5.846   7.881   7.277
86024SOL    HW159969   5.801   7.833   7.347
86024SOL    HW259970   5.935   7.893   7.310
86025SOL     OW59971  12.988  14.512   3.181
86025SOL    HW159972  12.943  14.582   3.229
86025SOL    HW259973  13.032  14.557   3.109
86026SOL     OW59974  10.386   5.508   5.903
86026SOL    HW159975  10.412   5.420   5.876
86026SOL    HW259976  10.294   5.499   5.930
86027SOL     OW59977   5.746   5.303  11.653
86027SOL    HW159978   5.746   5.354  11.572
86027SOL    HW259979   5.663   5.326  11.695
86028SOL     OW59980   6.135   9.178   2.938
86028SOL    HW159981   6.051   9.135   2.930
86028SOL    HW259982   6.152   9.180   3.032
86029SOL     OW59983   9.145   6.957  11.955
86029SOL    HW159984   9.085   7.029  11.976
86029SOL    HW259985   9.210   6.997  11.897
86030SOL     OW59986  11.877   0.572  14.310
86030SOL    HW159987  11.878   0.528  14.225
86030SOL    HW259988  11.969   0.584  14.333
86031SOL     OW59989   6.550   1.804   0.678
86031SOL    HW159990   6.620   1.811   0.612
86031SOL    HW259991   6.554   1.713   0.707
86032SOL     OW59992   5.280   1.544   4.537
86032SOL    HW159993   5.248   1.533   4.626
86032SOL    HW259994   5.313   1.458   4.513
86033SOL     OW59995   6.710  10.378   0.709
86033SOL    HW159996   6.762  10.457   0.726
86033SOL    HW259997   6.718  10.364   0.615
86034SOL     OW59998   0.112   7.246  14.069
86034SOL    HW159999   0.134   7.244  13.976
86034SOL    HW260000   0.167   7.316  14.105
86035SOL     OW60001  14.800   2.009   9.789
86035SOL    HW160002  14.717   2.057   9.797
86035SOL    HW260003  14.863   2.075   9.761
86036SOL     OW60004   0.299  13.959   0.758
86036SOL    HW160005   0.275  13.913   0.838
86036SOL    HW260006   0.224  13.946   0.700
86037SOL     OW60007   1.756  10.266   0.463
86037SOL    HW160008   1.791  10.195   0.409
86037SOL    HW260009   1.686  10.305   0.410
86038SOL     OW60010  12.974   5.795   6.427
86038SOL    HW160011  12.955   5.701   6.435
86038SOL    HW260012  12.902   5.838   6.472
86039SOL     OW60013   2.346   1.112   4.869
86039SOL    HW160014   2.279   1.152   4.924
86039SOL    HW260015   2.427   1.122   4.919
86040SOL     OW60016   5.953   2.673  11.031
86040SOL    HW160017   5.945   2.702  10.940
86040SOL    HW260018   5.969   2.753  11.080
86041SOL     OW60019   2.191   2.604   9.267
86041SOL    HW160020   2.158   2.636   9.183
86041SOL    HW260021   2.271   2.654   9.282
86042SOL     OW60022  10.251   0.399  12.779
86042SOL    HW160023  10.176   0.408  12.837
86042SOL    HW260024  10.215   0.364  12.697
86043SOL     OW60025   3.997   2.450   5.855
86043SOL    HW160026   3.996   2.468   5.761
86043SOL    HW260027   3.918   2.491   5.888
86044SOL     OW60028   5.154   6.733   3.478
86044SOL    HW160029   5.222   6.794   3.507
86044SOL    HW260030   5.173   6.652   3.526
86045SOL     OW60031   1.331  13.308  14.030
86045SOL    HW160032   1.390  13.232  14.032
86045SOL    HW260033   1.257  13.280  13.975
86046SOL     OW60034  10.584   2.516   2.163
86046SOL    HW160035  10.538   2.557   2.237
86046SOL    HW260036  10.557   2.568   2.087
86047SOL     OW60037   7.166   4.119  10.635
86047SOL    HW160038   7.108   4.187  10.600
86047SOL    HW260039   7.154   4.044  10.577
86048SOL     OW60040   9.980  13.555   3.092
86048SOL    HW160041  10.071  13.525   3.091
86048SOL    HW260042   9.985  13.646   3.061
86049SOL     OW60043  12.005   5.249   7.882
86049SOL    HW160044  11.988   5.176   7.942
86049SOL    HW260045  12.028   5.322   7.939
86050SOL     OW60046   0.166  13.026   5.512
86050SOL    HW160047   0.254  13.031   5.551
86050SOL    HW260048   0.142  12.933   5.519
86051SOL     OW60049   2.353  13.752  11.713
86051SOL    HW160050   2.366  13.657  11.716
86051SOL    HW260051   2.262  13.764  11.688
86052SOL     OW60052   3.247   6.725   6.041
86052SOL    HW160053   3.254   6.821   6.048
86052SOL    HW260054   3.302   6.703   5.966
86053SOL     OW60055   5.990   1.681   7.481
86053SOL    HW160056   6.076   1.642   7.498
86053SOL    HW260057   5.956   1.703   7.567
86054SOL     OW60058   1.160   8.221   3.777
86054SOL    HW160059   1.082   8.231   3.723
86054SOL    HW260060   1.228   8.191   3.716
86055SOL     OW60061   5.421   5.714   4.262
86055SOL    HW160062   5.503   5.697   4.215
86055SOL    HW260063   5.444   5.776   4.330
86056SOL     OW60064  12.599   9.111   5.002
86056SOL    HW160065  12.518   9.161   4.991
86056SOL    HW260066  12.639   9.111   4.915
86057SOL     OW60067   0.649   3.114   9.116
86057SOL    HW160068   0.725   3.147   9.069
86057SOL    HW260069   0.628   3.181   9.180
86058SOL     OW60070   7.823   6.367   5.833
86058SOL    HW160071   7.825   6.369   5.929
86058SOL    HW260072   7.885   6.298   5.810
86059SOL     OW60073  13.269   7.909   5.769
86059SOL    HW160074  13.229   7.835   5.722
86059SOL    HW260075  13.221   7.986   5.738
86060SOL     OW60076   3.455   9.107   4.089
86060SOL    HW160077   3.516   9.158   4.035
86060SOL    HW260078   3.444   9.024   4.042
86061SOL     OW60079   7.934  10.384  14.250
86061SOL    HW160080   7.932  10.461  14.308
86061SOL    HW260081   8.016  10.340  14.272
86062SOL     OW60082   3.112   9.059   8.991
86062SOL    HW160083   3.028   9.095   9.019
86062SOL    HW260084   3.177   9.118   9.029
86063SOL     OW60085   4.216   3.572  12.962
86063SOL    HW160086   4.307   3.546  12.947
86063SOL    HW260087   4.216   3.667  12.948
86064SOL     OW60088  10.329   3.858   4.306
86064SOL    HW160089  10.418   3.844   4.275
86064SOL    HW260090  10.286   3.772   4.296
86065SOL     OW60091  12.922   5.460   0.677
86065SOL    HW160092  13.008   5.503   0.674
86065SOL    HW260093  12.939   5.370   0.649
86066SOL     OW60094  14.581   5.552  10.278
86066SOL    HW160095  14.652   5.497  10.311
86066SOL    HW260096  14.615   5.641  10.280
86067SOL     OW60097   1.212  12.358   1.866
86067SOL    HW160098   1.165  12.287   1.823
86067SOL    HW260099   1.191  12.436   1.813
86068SOL     OW60100  11.258   5.264  10.433
86068SOL    HW160101  11.175   5.237  10.396
86068SOL    HW260102  11.256   5.360  10.430
86069SOL     OW60103   0.253   0.541   3.858
86069SOL    HW160104   0.342   0.520   3.885
86069SOL    HW260105   0.209   0.570   3.938
86070SOL     OW60106   6.094   9.506   6.706
86070SOL    HW160107   6.054   9.470   6.785
86070SOL    HW260108   6.129   9.429   6.660
86071SOL     OW60109   1.263   4.458   0.428
86071SOL    HW160110   1.306   4.530   0.475
86071SOL    HW260111   1.177   4.493   0.405
86072SOL     OW60112  10.266   4.229   4.617
86072SOL    HW160113  10.249   4.152   4.671
86072SOL    HW260114  10.237   4.204   4.529
86073SOL     OW60115   7.139   1.927   4.740
86073SOL    HW160116   7.222   1.972   4.754
86073SOL    HW260117   7.094   1.980   4.674
86074SOL     OW60118   5.079   1.937   2.172
86074SOL    HW160119   5.017   2.010   2.175
86074SOL    HW260120   5.163   1.976   2.196
86075SOL     OW60121  10.297  13.883   6.366
86075SOL    HW160122  10.267  13.890   6.457
86075SOL    HW260123  10.230  13.830   6.323
86076SOL     OW60124   3.581   7.025   3.803
86076SOL    HW160125   3.562   7.025   3.897
86076SOL    HW260126   3.630   6.944   3.789
86077SOL     OW60127   9.328   4.193   7.134
86077SOL    HW160128   9.311   4.110   7.179
86077SOL    HW260129   9.373   4.247   7.200
86078SOL     OW60130  12.992   4.741  10.201
86078SOL    HW160131  13.017   4.728  10.110
86078SOL    HW260132  12.915   4.798  10.197
86079SOL     OW60133   5.831   7.418   1.024
86079SOL    HW160134   5.925   7.434   1.018
86079SOL    HW260135   5.821   7.352   1.092
86080SOL     OW60136   4.724  10.869   2.830
86080SOL    HW160137   4.814  10.895   2.813
86080SOL    HW260138   4.690  10.936   2.889
86081SOL     OW60139   0.084   9.097   8.866
86081SOL    HW160140   0.066   9.176   8.816
86081SOL    HW260141   0.020   9.099   8.937
86082SOL     OW60142  11.811   9.556   7.609
86082SOL    HW160143  11.869   9.570   7.534
86082SOL    HW260144  11.724   9.577   7.577
86083SOL     OW60145   7.117   8.933   7.280
86083SOL    HW160146   7.138   8.868   7.347
86083SOL    HW260147   7.040   8.896   7.235
86084SOL     OW60148   4.310   7.562  10.075
86084SOL    HW160149   4.279   7.524   9.993
86084SOL    HW260150   4.233   7.605  10.113
86085SOL     OW60151   3.996   7.168   1.814
86085SOL    HW160152   4.047   7.098   1.774
86085SOL    HW260153   3.912   7.165   1.769
86086SOL     OW60154  11.667  11.593  12.978
86086SOL    HW160155  11.724  11.522  13.009
86086SOL    HW260156  11.623  11.556  12.901
86087SOL     OW60157  10.737   6.110   5.116
86087SOL    HW160158  10.815   6.137   5.165
86087SOL    HW260159  10.759   6.129   5.025
86088SOL     OW60160  14.068  12.322  12.180
86088SOL    HW160161  14.027  12.263  12.117
86088SOL    HW260162  14.093  12.264  12.253
86089SOL     OW60163   5.386   2.651   0.096
86089SOL    HW160164   5.381   2.596   0.019
86089SOL    HW260165   5.420   2.735   0.064
86090SOL     OW60166   4.663  10.187  13.468
86090SOL    HW160167   4.751  10.211  13.440
86090SOL    HW260168   4.605  10.239  13.412
86091SOL     OW60169  11.906   6.494  10.844
86091SOL    HW160170  11.830   6.437  10.847
86091SOL    HW260171  11.926   6.504  10.751
86092SOL     OW60172   1.910  10.121  13.321
86092SOL    HW160173   1.988  10.160  13.360
86092SOL    HW260174   1.919  10.027  13.336
86093SOL     OW60175   2.308   1.661  13.387
86093SOL    HW160176   2.316   1.568  13.368
86093SOL    HW260177   2.290   1.665  13.481
86094SOL     OW60178   5.918   5.268   8.861
86094SOL    HW160179   5.990   5.268   8.799
86094SOL    HW260180   5.903   5.360   8.882
86095SOL     OW60181   5.172   2.860   6.971
86095SOL    HW160182   5.111   2.858   7.045
86095SOL    HW260183   5.145   2.787   6.915
86096SOL     OW60184  10.965  14.826   6.377
86096SOL    HW160185  11.055  14.855   6.394
86096SOL    HW260186  10.915  14.856   6.453
86097SOL     OW60187   4.243   6.300   8.473
86097SOL    HW160188   4.223   6.243   8.548
86097SOL    HW260189   4.332   6.330   8.489
86098SOL     OW60190  11.930  11.258   1.921
86098SOL    HW160191  11.865  11.327   1.908
86098SOL    HW260192  12.014  11.303   1.917
86099SOL     OW60193   7.286  14.144   9.836
86099SOL    HW160194   7.235  14.069   9.866
86099SOL    HW260195   7.223  14.198   9.787
86100SOL     OW60196  10.538   2.699  13.053
86100SOL    HW160197  10.444   2.696  13.036
86100SOL    HW260198  10.546   2.741  13.139
86101SOL     OW60199   5.456   1.775  12.756
86101SOL    HW160200   5.427   1.758  12.666
86101SOL    HW260201   5.548   1.801  12.747
86102SOL     OW60202  10.481  12.127   5.921
86102SOL    HW160203  10.442  12.062   5.979
86102SOL    HW260204  10.565  12.148   5.962
86103SOL     OW60205   8.207   4.232  10.788
86103SOL    HW160206   8.124   4.210  10.745
86103SOL    HW260207   8.271   4.173  10.750
86104SOL     OW60208   6.127  11.634  11.268
86104SOL    HW160209   6.189  11.658  11.200
86104SOL    HW260210   6.058  11.700  11.263
86105SOL     OW60211   5.245   6.930   2.884
86105SOL    HW160212   5.324   6.897   2.841
86105SOL    HW260213   5.272   6.949   2.974
86106SOL     OW60214   3.702  13.423   0.063
86106SOL    HW160215   3.792  13.395   0.046
86106SOL    HW260216   3.657  13.343   0.090
86107SOL     OW60217   9.340  10.646   0.927
86107SOL    HW160218   9.348  10.734   0.889
86107SOL    HW260219   9.308  10.661   1.016
86108SOL     OW60220   4.911   0.502   2.050
86108SOL    HW160221   4.911   0.548   1.965
86108SOL    HW260222   4.861   0.422   2.034
86109SOL     OW60223  11.620   7.080   6.231
86109SOL    HW160224  11.611   7.095   6.326
86109SOL    HW260225  11.547   7.128   6.193
86110SOL     OW60226   2.595  14.378   7.774
86110SOL    HW160227   2.561  14.461   7.807
86110SOL    HW260228   2.679  14.401   7.735
86111SOL     OW60229  14.394   8.586   2.288
86111SOL    HW160230  14.409   8.643   2.213
86111SOL    HW260231  14.301   8.598   2.309
86112SOL     OW60232   9.185   5.796   8.314
86112SOL    HW160233   9.263   5.850   8.322
86112SOL    HW260234   9.134   5.815   8.394
86113SOL     OW60235   3.151   8.456   2.302
86113SOL    HW160236   3.208   8.520   2.346
86113SOL    HW260237   3.190   8.444   2.216
86114SOL     OW60238   4.119   4.610   6.678
86114SOL    HW160239   4.083   4.562   6.604
86114SOL    HW260240   4.047   4.614   6.741
86115SOL     OW60241  14.794   5.461  12.207
86115SOL    HW160242  14.707   5.495  12.229
86115SOL    HW260243  14.786   5.430  12.117
86116SOL     OW60244  13.527   6.072   4.944
86116SOL    HW160245  13.585   5.999   4.967
86116SOL    HW260246  13.511   6.116   5.028
86117SOL     OW60247   6.744   4.676   0.586
86117SOL    HW160248   6.770   4.664   0.495
86117SOL    HW260249   6.773   4.596   0.630
86118SOL     OW60250   6.107   4.172   1.768
86118SOL    HW160251   6.152   4.243   1.723
86118SOL    HW260252   6.161   4.154   1.845
86119SOL     OW60253   5.114  10.599   4.684
86119SOL    HW160254   5.206  10.595   4.708
86119SOL    HW260255   5.110  10.554   4.599
86120SOL     OW60256   7.516   7.178  10.988
86120SOL    HW160257   7.477   7.142  10.908
86120SOL    HW260258   7.583   7.113  11.013
86121SOL     OW60259  12.511   5.437  10.370
86121SOL    HW160260  12.584   5.498  10.361
86121SOL    HW260261  12.464   5.468  10.448
86122SOL     OW60262   5.065   9.119   1.339
86122SOL    HW160263   5.135   9.056   1.325
86122SOL    HW260264   5.110   9.203   1.349
86123SOL     OW60265   8.922  13.044   7.480
86123SOL    HW160266   8.875  12.990   7.417
86123SOL    HW260267   9.001  13.072   7.434
86124SOL     OW60268   9.782  10.506  12.820
86124SOL    HW160269   9.692  10.500  12.788
86124SOL    HW260270   9.782  10.460  12.904
86125SOL     OW60271   6.555   5.803  11.890
86125SOL    HW160272   6.497   5.879  11.887
86125SOL    HW260273   6.637   5.836  11.928
86126SOL     OW60274   4.129   0.104   5.519
86126SOL    HW160275   4.120   0.192   5.483
86126SOL    HW260276   4.049   0.059   5.493
86127SOL     OW60277   0.006  13.045   3.243
86127SOL    HW160278  14.866  13.104   3.170
86127SOL    HW260279   0.003  13.101   3.321
86128SOL     OW60280  11.982   3.401  14.877
86128SOL    HW160281  11.907   3.429   0.049
86128SOL    HW260282  11.950   3.327  14.826
86129SOL     OW60283   3.105   2.133   9.961
86129SOL    HW160284   3.147   2.172  10.037
86129SOL    HW260285   3.177   2.112   9.901
86130SOL     OW60286   7.622  10.397  11.646
86130SOL    HW160287   7.608  10.431  11.558
86130SOL    HW260288   7.565  10.450  11.702
86131SOL     OW60289   7.824  11.189   2.553
86131SOL    HW160290   7.754  11.126   2.574
86131SOL    HW260291   7.799  11.225   2.468
86132SOL     OW60292   0.247   5.436  13.723
86132SOL    HW160293   0.163   5.393  13.739
86132SOL    HW260294   0.306   5.397  13.787
86133SOL     OW60295  14.578   9.165   4.512
86133SOL    HW160296  14.580   9.229   4.441
86133SOL    HW260297  14.490   9.128   4.509
86134SOL     OW60298   6.705   4.403  13.318
86134SOL    HW160299   6.741   4.455  13.390
86134SOL    HW260300   6.781   4.356  13.282
86135SOL     OW60301   7.932  13.199   6.681
86135SOL    HW160302   7.919  13.252   6.602
86135SOL    HW260303   7.849  13.205   6.728
86136SOL     OW60304   6.413   7.472   3.989
86136SOL    HW160305   6.339   7.417   3.963
86136SOL    HW260306   6.425   7.533   3.917
86137SOL     OW60307   6.977  10.596  11.228
86137SOL    HW160308   6.991  10.602  11.133
86137SOL    HW260309   6.966  10.502  11.244
86138SOL     OW60310   4.175   5.264   4.728
86138SOL    HW160311   4.168   5.205   4.654
86138SOL    HW260312   4.118   5.226   4.795
86139SOL     OW60313   6.091   4.224   4.646
86139SOL    HW160314   6.017   4.187   4.597
86139SOL    HW260315   6.079   4.193   4.735
86140SOL     OW60316   0.231   2.811   6.685
86140SOL    HW160317   0.204   2.871   6.755
86140SOL    HW260318   0.263   2.734   6.732
86141SOL     OW60319  10.945   4.528   0.729
86141SOL    HW160320  10.880   4.542   0.661
86141SOL    HW260321  10.911   4.575   0.805
86142SOL     OW60322   8.340   5.797   2.188
86142SOL    HW160323   8.339   5.732   2.258
86142SOL    HW260324   8.349   5.746   2.108
86143SOL     OW60325  10.656  12.518  12.884
86143SOL    HW160326  10.619  12.604  12.867
86143SOL    HW260327  10.668  12.516  12.979
86144SOL     OW60328   4.397   4.456   7.749
86144SOL    HW160329   4.368   4.405   7.673
86144SOL    HW260330   4.395   4.394   7.821
86145SOL     OW60331   6.340   3.510   4.362
86145SOL    HW160332   6.368   3.426   4.326
86145SOL    HW260333   6.356   3.502   4.456
86146SOL     OW60334  13.956   0.759  10.383
86146SOL    HW160335  13.916   0.804  10.309
86146SOL    HW260336  14.024   0.819  10.414
86147SOL     OW60337   6.182   8.017   3.729
86147SOL    HW160338   6.113   8.071   3.768
86147SOL    HW260339   6.137   7.967   3.660
86148SOL     OW60340  11.170   6.857   4.249
86148SOL    HW160341  11.184   6.765   4.229
86148SOL    HW260342  11.095   6.857   4.309
86149SOL     OW60343   5.698   8.025  12.811
86149SOL    HW160344   5.629   8.074  12.856
86149SOL    HW260345   5.759   8.001  12.880
86150SOL     OW60346   7.812   6.894   1.454
86150SOL    HW160347   7.758   6.972   1.471
86150SOL    HW260348   7.853   6.876   1.538
86151SOL     OW60349   4.785   5.770   1.645
86151SOL    HW160350   4.796   5.842   1.583
86151SOL    HW260351   4.852   5.707   1.620
86152SOL     OW60352   4.505  10.181   7.303
86152SOL    HW160353   4.509  10.086   7.294
86152SOL    HW260354   4.587  10.213   7.266
86153SOL     OW60355   6.800  10.486   5.309
86153SOL    HW160356   6.801  10.566   5.361
86153SOL    HW260357   6.712  10.450   5.323
86154SOL     OW60358  11.707  10.184  11.750
86154SOL    HW160359  11.755  10.195  11.667
86154SOL    HW260360  11.693  10.274  11.781
86155SOL     OW60361  10.717   7.126  10.606
86155SOL    HW160362  10.722   7.166  10.693
86155SOL    HW260363  10.718   7.200  10.546
86156SOL     OW60364  12.693  11.700   8.530
86156SOL    HW160365  12.664  11.627   8.475
86156SOL    HW260366  12.655  11.778   8.489
86157SOL     OW60367  13.805  11.434   2.414
86157SOL    HW160368  13.886  11.480   2.392
86157SOL    HW260369  13.801  11.361   2.352
86158SOL     OW60370  12.113   4.119  13.268
86158SOL    HW160371  12.063   4.174  13.208
86158SOL    HW260372  12.204   4.129  13.239
86159SOL     OW60373   7.879  11.616   8.694
86159SOL    HW160374   7.868  11.691   8.636
86159SOL    HW260375   7.951  11.566   8.656
86160SOL     OW60376   4.153   8.821   9.721
86160SOL    HW160377   4.081   8.833   9.659
86160SOL    HW260378   4.116   8.771   9.793
86161SOL     OW60379   6.816   7.900   4.973
86161SOL    HW160380   6.835   7.977   5.027
86161SOL    HW260381   6.859   7.828   5.019
86162SOL     OW60382  12.548   5.677   6.051
86162SOL    HW160383  12.590   5.619   5.988
86162SOL    HW260384  12.583   5.650   6.136
86163SOL     OW60385  10.698   9.285   6.401
86163SOL    HW160386  10.669   9.348   6.335
86163SOL    HW260387  10.746   9.338   6.465
86164SOL     OW60388  12.340   5.749   1.229
86164SOL    HW160389  12.283   5.676   1.256
86164SOL    HW260390  12.394   5.767   1.306
86165SOL     OW60391   8.359   9.227   5.220
86165SOL    HW160392   8.400   9.307   5.252
86165SOL    HW260393   8.274   9.256   5.186
86166SOL     OW60394   7.253   5.714   2.878
86166SOL    HW160395   7.324   5.777   2.891
86166SOL    HW260396   7.227   5.726   2.786
86167SOL     OW60397   7.942  10.024   3.109
86167SOL    HW160398   8.037  10.031   3.119
86167SOL    HW260399   7.929   9.994   3.019
86168SOL     OW60400   7.823   8.435   1.452
86168SOL    HW160401   7.795   8.457   1.363
86168SOL    HW260402   7.742   8.423   1.500
86169SOL     OW60403   9.605  13.290  10.790
86169SOL    HW160404   9.644  13.220  10.841
86169SOL    HW260405   9.570  13.247  10.712
86170SOL     OW60406   8.584  10.498   3.619
86170SOL    HW160407   8.489  10.495   3.632
86170SOL    HW260408   8.617  10.540   3.699
86171SOL     OW60409  10.338   3.863  13.297
86171SOL    HW160410  10.337   3.889  13.205
86171SOL    HW260411  10.377   3.776  13.297
86172SOL     OW60412   5.472  11.367  12.104
86172SOL    HW160413   5.443  11.333  12.188
86172SOL    HW260414   5.433  11.308  12.039
86173SOL     OW60415   2.368   5.151  13.791
86173SOL    HW160416   2.436   5.163  13.724
86173SOL    HW260417   2.363   5.236  13.835
86174SOL     OW60418   4.771   9.776   1.599
86174SOL    HW160419   4.752   9.744   1.511
86174SOL    HW260420   4.824   9.708   1.639
86175SOL     OW60421  10.978  13.723  10.823
86175SOL    HW160422  11.070  13.738  10.848
86175SOL    HW260423  10.983  13.692  10.732
86176SOL     OW60424   1.656  10.481   6.911
86176SOL    HW160425   1.606  10.484   6.993
86176SOL    HW260426   1.593  10.505   6.843
86177SOL     OW60427   6.188  14.672   9.839
86177SOL    HW160428   6.174  14.579   9.861
86177SOL    HW260429   6.132  14.687   9.763
86178SOL     OW60430   7.701   3.000  13.723
86178SOL    HW160431   7.661   2.914  13.738
86178SOL    HW260432   7.690   3.017  13.630
86179SOL     OW60433   4.845   6.823   9.267
86179SOL    HW160434   4.871   6.767   9.340
86179SOL    HW260435   4.778   6.773   9.221
86180SOL     OW60436   3.715   5.148   3.288
86180SOL    HW160437   3.645   5.107   3.339
86180SOL    HW260438   3.671   5.213   3.233
86181SOL     OW60439   4.537   3.779  13.575
86181SOL    HW160440   4.601   3.828  13.523
86181SOL    HW260441   4.581   3.697  13.596
86182SOL     OW60442   9.563   6.278  13.875
86182SOL    HW160443   9.633   6.216  13.893
86182SOL    HW260444   9.588   6.358  13.920
86183SOL     OW60445  14.484   3.667  11.595
86183SOL    HW160446  14.479   3.647  11.502
86183SOL    HW260447  14.526   3.590  11.633
86184SOL     OW60448   3.080   0.856  12.294
86184SOL    HW160449   2.993   0.835  12.328
86184SOL    HW260450   3.076   0.950  12.276
86185SOL     OW60451  11.477   3.090  12.304
86185SOL    HW160452  11.475   3.133  12.218
86185SOL    HW260453  11.493   3.162  12.366
86186SOL     OW60454   4.475   1.066   5.133
86186SOL    HW160455   4.509   1.154   5.112
86186SOL    HW260456   4.494   1.054   5.226
86187SOL     OW60457  10.058   6.491   9.625
86187SOL    HW160458  10.014   6.536   9.552
86187SOL    HW260459   9.995   6.494   9.697
86188SOL     OW60460  14.179   9.651  10.841
86188SOL    HW160461  14.105   9.614  10.888
86188SOL    HW260462  14.256   9.612  10.882
86189SOL     OW60463  10.583  12.892   4.325
86189SOL    HW160464  10.606  12.845   4.244
86189SOL    HW260465  10.576  12.984   4.298
86190SOL     OW60466  14.555   7.830  12.282
86190SOL    HW160467  14.477   7.884  12.265
86190SOL    HW260468  14.540   7.750  12.231
86191SOL     OW60469   0.177  13.451   7.448
86191SOL    HW160470   0.159  13.478   7.538
86191SOL    HW260471   0.267  13.479   7.432
86192SOL     OW60472  13.792  12.551   5.508
86192SOL    HW160473  13.836  12.475   5.469
86192SOL    HW260474  13.859  12.619   5.511
86193SOL     OW60475   4.030  12.769  11.390
86193SOL    HW160476   3.980  12.831  11.337
86193SOL    HW260477   4.047  12.696  11.331
86194SOL     OW60478   3.733   6.677  13.693
86194SOL    HW160479   3.720   6.646  13.603
86194SOL    HW260480   3.809   6.735  13.687
86195SOL     OW60481  11.429  12.336  12.308
86195SOL    HW160482  11.483  12.257  12.317
86195SOL    HW260483  11.344  12.311  12.344
86196SOL     OW60484   7.105   0.018  14.133
86196SOL    HW160485   7.048   0.079  14.087
86196SOL    HW260486   7.063  14.812  14.122
86197SOL     OW60487   7.404   9.271   6.347
86197SOL    HW160488   7.372   9.199   6.293
86197SOL    HW260489   7.413   9.344   6.286
86198SOL     OW60490  12.974  14.638  14.557
86198SOL    HW160491  12.893  14.587  14.567
86198SOL    HW260492  12.980  14.689  14.638
86199SOL     OW60493   8.546   4.786   7.762
86199SOL    HW160494   8.470   4.816   7.713
86199SOL    HW260495   8.612   4.853   7.748
86200SOL     OW60496   8.343   6.260  10.976
86200SOL    HW160497   8.282   6.285  11.045
86200SOL    HW260498   8.371   6.171  11.001
86201SOL     OW60499   3.316   1.836   7.312
86201SOL    HW160500   3.299   1.923   7.276
86201SOL    HW260501   3.329   1.781   7.235
86202SOL     OW60502  14.296  12.139   6.192
86202SOL    HW160503  14.301  12.109   6.282
86202SOL    HW260504  14.275  12.061   6.141
86203SOL     OW60505   9.191   6.598   8.690
86203SOL    HW160506   9.099   6.577   8.710
86203SOL    HW260507   9.196   6.593   8.595
86204SOL     OW60508   4.165   7.151  12.627
86204SOL    HW160509   4.121   7.069  12.652
86204SOL    HW260510   4.175   7.199  12.708
86205SOL     OW60511   3.052   2.054   4.478
86205SOL    HW160512   3.105   2.079   4.554
86205SOL    HW260513   2.962   2.069   4.505
86206SOL     OW60514  13.221  10.971  13.551
86206SOL    HW160515  13.132  10.990  13.523
86206SOL    HW260516  13.260  10.922  13.479
86207SOL     OW60517   3.798   5.351   6.930
86207SOL    HW160518   3.760   5.419   6.986
86207SOL    HW260519   3.768   5.269   6.968
86208SOL     OW60520   3.314  13.795   2.880
86208SOL    HW160521   3.387  13.776   2.939
86208SOL    HW260522   3.350  13.784   2.792
86209SOL     OW60523   3.035   8.167   1.819
86209SOL    HW160524   2.939   8.167   1.816
86209SOL    HW260525   3.061   8.097   1.759
86210SOL     OW60526   3.130   2.301   3.759
86210SOL    HW160527   3.108   2.358   3.833
86210SOL    HW260528   3.215   2.264   3.782
86211SOL     OW60529   7.226  10.310   2.703
86211SOL    HW160530   7.142  10.324   2.659
86211SOL    HW260531   7.291  10.352   2.647
86212SOL     OW60532   0.186   0.592   9.954
86212SOL    HW160533   0.252   0.595   9.884
86212SOL    HW260534   0.237   0.583  10.035
86213SOL     OW60535   3.496   2.401  10.086
86213SOL    HW160536   3.462   2.490  10.101
86213SOL    HW260537   3.571   2.395  10.145
86214SOL     OW60538   9.573   9.896   6.920
86214SOL    HW160539   9.515   9.821   6.905
86214SOL    HW260540   9.655   9.872   6.876
86215SOL     OW60541  11.487  10.150   6.146
86215SOL    HW160542  11.532  10.121   6.225
86215SOL    HW260543  11.428  10.078   6.124
86216SOL     OW60544   7.036   9.074   3.189
86216SOL    HW160545   6.960   9.132   3.191
86216SOL    HW260546   7.072   9.078   3.277
86217SOL     OW60547   3.750   2.046   9.764
86217SOL    HW160548   3.740   2.071   9.856
86217SOL    HW260549   3.698   2.110   9.715
86218SOL     OW60550  10.887   8.740   4.175
86218SOL    HW160551  10.817   8.676   4.186
86218SOL    HW260552  10.866   8.786   4.094
86219SOL     OW60553  14.485   2.484   2.666
86219SOL    HW160554  14.399   2.446   2.686
86219SOL    HW260555  14.519   2.430   2.595
86220SOL     OW60556  12.159   0.744   7.374
86220SOL    HW160557  12.196   0.807   7.435
86220SOL    HW260558  12.132   0.671   7.429
86221SOL     OW60559   4.811  10.169  10.731
86221SOL    HW160560   4.822  10.255  10.773
86221SOL    HW260561   4.775  10.190  10.645
86222SOL     OW60562   0.737   9.627  14.471
86222SOL    HW160563   0.755   9.536  14.496
86222SOL    HW260564   0.781   9.679  14.538
86223SOL     OW60565  12.481  13.536  12.117
86223SOL    HW160566  12.552  13.473  12.104
86223SOL    HW260567  12.518  13.620  12.091
86224SOL     OW60568  12.471   5.776  13.852
86224SOL    HW160569  12.447   5.700  13.905
86224SOL    HW260570  12.567   5.772  13.846
86225SOL     OW60571   2.598   9.500   2.616
86225SOL    HW160572   2.527   9.439   2.595
86225SOL    HW260573   2.586   9.519   2.709
86226SOL     OW60574   2.095   0.111   1.111
86226SOL    HW160575   2.065   0.046   1.047
86226SOL    HW260576   2.085   0.068   1.196
86227SOL     OW60577   2.921   8.643   3.457
86227SOL    HW160578   2.849   8.679   3.405
86227SOL    HW260579   2.941   8.711   3.522
86228SOL     OW60580   2.587   5.933   5.146
86228SOL    HW160581   2.561   5.842   5.130
86228SOL    HW260582   2.623   5.932   5.235
86229SOL     OW60583   8.875   1.465   6.871
86229SOL    HW160584   8.902   1.433   6.957
86229SOL    HW260585   8.870   1.386   6.817
86230SOL     OW60586   8.210  13.623   7.211
86230SOL    HW160587   8.178  13.628   7.121
86230SOL    HW260588   8.173  13.701   7.253
86231SOL     OW60589  12.076   0.307  12.345
86231SOL    HW160590  12.029   0.372  12.294
86231SOL    HW260591  12.167   0.338  12.344
86232SOL     OW60592   6.909  11.418  10.834
86232SOL    HW160593   6.896  11.512  10.841
86232SOL    HW260594   6.828  11.385  10.794
86233SOL     OW60595   2.682   8.019   1.631
86233SOL    HW160596   2.696   8.039   1.724
86233SOL    HW260597   2.591   7.992   1.626
86234SOL     OW60598   5.157   8.128  10.213
86234SOL    HW160599   5.103   8.083  10.147
86234SOL    HW260600   5.240   8.079  10.213
86235SOL     OW60601  14.629   7.051  11.037
86235SOL    HW160602  14.725   7.054  11.044
86235SOL    HW260603  14.598   7.121  11.094
86236SOL     OW60604  14.655   4.170   0.699
86236SOL    HW160605  14.588   4.102   0.697
86236SOL    HW260606  14.689   4.166   0.789
86237SOL     OW60607   2.524   2.859   5.461
86237SOL    HW160608   2.585   2.785   5.459
86237SOL    HW260609   2.493   2.861   5.552
86238SOL     OW60610   3.150   3.157  12.924
86238SOL    HW160611   3.124   3.217  12.994
86238SOL    HW260612   3.068   3.118  12.895
86239SOL     OW60613   3.484   1.287  10.086
86239SOL    HW160614   3.506   1.376  10.114
86239SOL    HW260615   3.427   1.300  10.010
86240SOL     OW60616  13.822   8.368   1.306
86240SOL    HW160617  13.818   8.451   1.259
86240SOL    HW260618  13.893   8.320   1.264
86241SOL     OW60619   3.782   0.457  10.685
86241SOL    HW160620   3.698   0.483  10.724
86241SOL    HW260621   3.761   0.438  10.593
86242SOL     OW60622   1.375   3.857   6.926
86242SOL    HW160623   1.318   3.900   6.862
86242SOL    HW260624   1.342   3.887   7.011
86243SOL     OW60625   8.499   7.378  13.863
86243SOL    HW160626   8.424   7.434  13.882
86243SOL    HW260627   8.528   7.348  13.950
86244SOL     OW60628   4.787   3.649   6.569
86244SOL    HW160629   4.752   3.707   6.637
86244SOL    HW260630   4.773   3.697   6.487
86245SOL     OW60631  14.586   9.528   2.627
86245SOL    HW160632  14.618   9.522   2.538
86245SOL    HW260633  14.519   9.597   2.624
86246SOL     OW60634  10.883   2.376  12.025
86246SOL    HW160635  10.928   2.293  12.010
86246SOL    HW260636  10.791   2.353  12.032
86247SOL     OW60637   3.859   7.836   4.081
86247SOL    HW160638   3.774   7.816   4.043
86247SOL    HW260639   3.909   7.874   4.009
86248SOL     OW60640  12.922   4.298  10.173
86248SOL    HW160641  12.849   4.243  10.147
86248SOL    HW260642  12.955   4.335  10.091
86249SOL     OW60643   4.420  10.894  11.610
86249SOL    HW160644   4.501  10.865  11.652
86249SOL    HW260645   4.398  10.976  11.654
86250SOL     OW60646   3.342   9.346   5.330
86250SOL    HW160647   3.425   9.330   5.286
86250SOL    HW260648   3.365   9.357   5.422
86251SOL     OW60649   2.564   8.806   8.591
86251SOL    HW160650   2.650   8.766   8.603
86251SOL    HW260651   2.528   8.763   8.513
86252SOL     OW60652  11.462   9.512   0.371
86252SOL    HW160653  11.439   9.438   0.314
86252SOL    HW260654  11.444   9.480   0.459
86253SOL     OW60655  10.758   3.169   7.029
86253SOL    HW160656  10.836   3.115   7.023
86253SOL    HW260657  10.726   3.176   6.939
86254SOL     OW60658   1.718   5.753  13.539
86254SOL    HW160659   1.713   5.844  13.507
86254SOL    HW260660   1.653   5.749  13.609
86255SOL     OW60661   2.465   8.837  13.642
86255SOL    HW160662   2.497   8.906  13.699
86255SOL    HW260663   2.472   8.873  13.553
86256SOL     OW60664   0.156   5.159   2.811
86256SOL    HW160665   0.107   5.085   2.774
86256SOL    HW260666   0.089   5.218   2.843
86257SOL     OW60667   0.402   1.070  12.192
86257SOL    HW160668   0.456   1.097  12.118
86257SOL    HW260669   0.350   0.996  12.159
86258SOL     OW60670   0.521  10.775   2.327
86258SOL    HW160671   0.559  10.700   2.374
86258SOL    HW260672   0.595  10.813   2.279
86259SOL     OW60673   3.571   1.081  13.739
86259SOL    HW160674   3.533   1.049  13.821
86259SOL    HW260675   3.644   1.136  13.767
86260SOL     OW60676   1.768  12.201   5.421
86260SOL    HW160677   1.713  12.123   5.429
86260SOL    HW260678   1.748  12.252   5.500
86261SOL     OW60679   0.730   1.188   8.282
86261SOL    HW160680   0.672   1.264   8.279
86261SOL    HW260681   0.673   1.114   8.260
86262SOL     OW60682   9.800   2.293   8.312
86262SOL    HW160683   9.742   2.368   8.322
86262SOL    HW260684   9.843   2.308   8.227
86263SOL     OW60685   5.463  12.235   1.999
86263SOL    HW160686   5.534  12.179   1.968
86263SOL    HW260687   5.497  12.324   1.990
86264SOL     OW60688   1.817   0.812   3.601
86264SOL    HW160689   1.807   0.889   3.544
86264SOL    HW260690   1.788   0.738   3.547
86265SOL     OW60691   7.158   0.451   4.517
86265SOL    HW160692   7.231   0.510   4.536
86265SOL    HW260693   7.172   0.424   4.426
86266SOL     OW60694   5.777   1.391   9.947
86266SOL    HW160695   5.726   1.320   9.910
86266SOL    HW260696   5.859   1.391   9.897
86267SOL     OW60697   5.961   7.900  11.448
86267SOL    HW160698   5.909   7.847  11.387
86267SOL    HW260699   6.051   7.886  11.419
86268SOL     OW60700   1.399  12.327   7.446
86268SOL    HW160701   1.353  12.373   7.516
86268SOL    HW260702   1.473  12.384   7.425
86269SOL     OW60703  12.145   0.182   4.518
86269SOL    HW160704  12.150   0.096   4.477
86269SOL    HW260705  12.169   0.166   4.610
86270SOL     OW60706  14.803   6.206   5.238
86270SOL    HW160707  14.837   6.119   5.215
86270SOL    HW260708  14.852   6.267   5.182
86271SOL     OW60709   8.768   6.120  10.778
86271SOL    HW160710   8.729   6.191  10.830
86271SOL    HW260711   8.726   6.129  10.692
86272SOL     OW60712   1.053  11.330   0.715
86272SOL    HW160713   1.021  11.344   0.626
86272SOL    HW260714   1.144  11.361   0.713
86273SOL     OW60715   5.168  13.333  14.330
86273SOL    HW160716   5.264  13.337  14.323
86273SOL    HW260717   5.146  13.403  14.392
86274SOL     OW60718   3.570   9.155   5.505
86274SOL    HW160719   3.616   9.110   5.576
86274SOL    HW260720   3.551   9.087   5.441
86275SOL     OW60721   5.598  13.088   7.786
86275SOL    HW160722   5.673  13.147   7.796
86275SOL    HW260723   5.554  13.090   7.872
86276SOL     OW60724  14.225  10.851   6.498
86276SOL    HW160725  14.160  10.854   6.568
86276SOL    HW260726  14.300  10.898   6.533
86277SOL     OW60727   3.098   8.518   4.186
86277SOL    HW160728   3.009   8.550   4.194
86277SOL    HW260729   3.117   8.524   4.092
86278SOL     OW60730   5.332   1.489   1.858
86278SOL    HW160731   5.248   1.513   1.820
86278SOL    HW260732   5.378   1.442   1.788
86279SOL     OW60733  13.504  13.796  13.274
86279SOL    HW160734  13.478  13.852  13.201
86279SOL    HW260735  13.422  13.767  13.313
86280SOL     OW60736   5.970   1.246   9.770
86280SOL    HW160737   5.953   1.170   9.714
86280SOL    HW260738   5.949   1.322   9.717
86281SOL     OW60739   5.509  13.008   1.502
86281SOL    HW160740   5.438  12.976   1.447
86281SOL    HW260741   5.589  12.986   1.454
86282SOL     OW60742   3.458  12.936   2.993
86282SOL    HW160743   3.364  12.936   3.011
86282SOL    HW260744   3.485  12.845   3.006
86283SOL     OW60745  13.592   7.850  10.816
86283SOL    HW160746  13.643   7.921  10.855
86283SOL    HW260747  13.501   7.879  10.824
86284SOL     OW60748   9.868   3.306   9.085
86284SOL    HW160749   9.778   3.282   9.063
86284SOL    HW260750   9.921   3.260   9.021
86285SOL     OW60751  12.998  12.738  14.263
86285SOL    HW160752  12.913  12.768  14.293
86285SOL    HW260753  13.031  12.808  14.207
86286SOL     OW60754  11.383   3.361  13.240
86286SOL    HW160755  11.410   3.345  13.330
86286SOL    HW260756  11.452   3.321  13.186
86287SOL     OW60757   0.039   6.340  14.852
86287SOL    HW160758   0.008   6.327  14.763
86287SOL    HW260759  14.877   6.422   0.001
86288SOL     OW60760   1.846  13.701  13.783
86288SOL    HW160761   1.821  13.626  13.837
86288SOL    HW260762   1.837  13.777  13.841
86289SOL     OW60763  11.689   8.745   6.228
86289SOL    HW160764  11.755   8.681   6.255
86289SOL    HW260765  11.655   8.711   6.145
86290SOL     OW60766   5.924  10.520   5.908
86290SOL    HW160767   5.875  10.597   5.880
86290SOL    HW260768   6.001  10.556   5.953
86291SOL     OW60769   0.609   4.291   4.220
86291SOL    HW160770   0.628   4.383   4.234
86291SOL    HW260771   0.593   4.284   4.126
86292SOL     OW60772  13.911   1.722  11.485
86292SOL    HW160773  13.972   1.782  11.529
86292SOL    HW260774  13.922   1.639  11.531
86293SOL     OW60775   5.742   2.840   3.762
86293SOL    HW160776   5.821   2.880   3.798
86293SOL    HW260777   5.699   2.799   3.837
86294SOL     OW60778   5.732   8.947   6.833
86294SOL    HW160779   5.785   9.014   6.790
86294SOL    HW260780   5.759   8.865   6.792
86295SOL     OW60781   2.660   7.368  12.218
86295SOL    HW160782   2.734   7.427  12.231
86295SOL    HW260783   2.649   7.323  12.302
86296SOL     OW60784  13.619   2.956   3.010
86296SOL    HW160785  13.606   2.927   2.919
86296SOL    HW260786  13.708   2.927   3.031
86297SOL     OW60787  11.216   8.880  10.513
86297SOL    HW160788  11.164   8.905  10.437
86297SOL    HW260789  11.233   8.786  10.500
86298SOL     OW60790   2.194   6.678   8.425
86298SOL    HW160791   2.206   6.767   8.460
86298SOL    HW260792   2.143   6.692   8.345
86299SOL     OW60793   7.397  12.535   0.080
86299SOL    HW160794   7.323  12.536   0.141
86299SOL    HW260795   7.474  12.537   0.136
86300SOL     OW60796   7.980   3.032   0.522
86300SOL    HW160797   8.005   2.940   0.521
86300SOL    HW260798   7.884   3.031   0.528
86301SOL     OW60799   2.219   4.178  11.098
86301SOL    HW160800   2.147   4.231  11.135
86301SOL    HW260801   2.180   4.136  11.021
86302SOL     OW60802   8.680  10.124   4.173
86302SOL    HW160803   8.697  10.125   4.079
86302SOL    HW260804   8.730  10.199   4.207
86303SOL     OW60805  10.220   1.504  10.126
86303SOL    HW160806  10.191   1.434  10.184
86303SOL    HW260807  10.210   1.467  10.038
86304SOL     OW60808   2.253   1.668   1.158
86304SOL    HW160809   2.210   1.696   1.077
86304SOL    HW260810   2.342   1.704   1.151
86305SOL     OW60811   6.624   1.811   8.164
86305SOL    HW160812   6.600   1.721   8.183
86305SOL    HW260813   6.572   1.864   8.224
86306SOL     OW60814  12.426   9.509  14.501
86306SOL    HW160815  12.509   9.485  14.542
86306SOL    HW260816  12.363   9.509  14.572
86307SOL     OW60817   0.643  13.009   3.008
86307SOL    HW160818   0.575  13.044   2.950
86307SOL    HW260819   0.598  12.940   3.057
86308SOL     OW60820  10.488  10.313  14.344
86308SOL    HW160821  10.458  10.240  14.398
86308SOL    HW260822  10.543  10.365  14.403
86309SOL     OW60823   3.633   5.717   3.555
86309SOL    HW160824   3.563   5.661   3.522
86309SOL    HW260825   3.588   5.782   3.610
86310SOL     OW60826   4.724  11.521  11.151
86310SOL    HW160827   4.698  11.555  11.066
86310SOL    HW260828   4.820  11.521  11.149
86311SOL     OW60829   6.147  14.393   9.914
86311SOL    HW160830   6.146  14.357  10.003
86311SOL    HW260831   6.200  14.332   9.863
86312SOL     OW60832   0.453   9.823   6.364
86312SOL    HW160833   0.479   9.746   6.415
86312SOL    HW260834   0.360   9.810   6.348
86313SOL     OW60835  11.485   9.368  11.706
86313SOL    HW160836  11.570   9.392  11.742
86313SOL    HW260837  11.423   9.426  11.750
86314SOL     OW60838   4.918   1.823   7.199
86314SOL    HW160839   4.969   1.838   7.119
86314SOL    HW260840   4.900   1.729   7.198
86315SOL     OW60841   4.574  14.185  11.647
86315SOL    HW160842   4.558  14.246  11.719
86315SOL    HW260843   4.570  14.240  11.568
86316SOL     OW60844   1.094   7.044  11.014
86316SOL    HW160845   1.049   7.031  10.930
86316SOL    HW260846   1.134   6.959  11.033
86317SOL     OW60847   6.946  12.691   7.310
86317SOL    HW160848   6.999  12.612   7.307
86317SOL    HW260849   6.986  12.745   7.378
86318SOL     OW60850   4.911   6.076  14.030
86318SOL    HW160851   4.930   6.040  14.116
86318SOL    HW260852   4.933   6.169  14.037
86319SOL     OW60853   6.684  14.803   3.476
86319SOL    HW160854   6.744  14.825   3.405
86319SOL    HW260855   6.739  14.798   3.554
86320SOL     OW60856  10.738   2.704  12.147
86320SOL    HW160857  10.653   2.661  12.161
86320SOL    HW260858  10.731   2.787  12.194
86321SOL     OW60859   4.223   3.443  11.749
86321SOL    HW160860   4.221   3.530  11.787
86321SOL    HW260861   4.315   3.416  11.754
86322SOL     OW60862   3.865   2.790   9.485
86322SOL    HW160863   3.836   2.701   9.506
86322SOL    HW260864   3.883   2.789   9.391
86323SOL     OW60865  10.320   0.979  14.551
86323SOL    HW160866  10.343   1.027  14.471
86323SOL    HW260867  10.352   0.891  14.536
86324SOL     OW60868  12.621   6.177  14.316
86324SOL    HW160869  12.643   6.142  14.230
86324SOL    HW260870  12.526   6.168  14.322
86325SOL     OW60871   7.616   2.138   9.713
86325SOL    HW160872   7.585   2.058   9.671
86325SOL    HW260873   7.707   2.146   9.686
86326SOL     OW60874  12.457  14.322   9.096
86326SOL    HW160875  12.472  14.414   9.115
86326SOL    HW260876  12.464  14.316   9.001
86327SOL     OW60877   2.386   7.929   3.148
86327SOL    HW160878   2.336   7.888   3.218
86327SOL    HW260879   2.465   7.876   3.140
86328SOL     OW60880  12.705  10.085   5.610
86328SOL    HW160881  12.640  10.121   5.669
86328SOL    HW260882  12.780  10.064   5.666
86329SOL     OW60883   1.089  13.758   1.901
86329SOL    HW160884   1.052  13.670   1.899
86329SOL    HW260885   1.067  13.796   1.816
86330SOL     OW60886  13.113   4.049  11.554
86330SOL    HW160887  13.032   4.004  11.578
86330SOL    HW260888  13.179   3.980  11.551
86331SOL     OW60889   7.824   0.117  13.603
86331SOL    HW160890   7.791   0.155  13.684
86331SOL    HW260891   7.862   0.033  13.629
86332SOL     OW60892   1.806   8.684   1.285
86332SOL    HW160893   1.890   8.642   1.263
86332SOL    HW260894   1.784   8.649   1.372
86333SOL     OW60895  12.046   3.189   3.502
86333SOL    HW160896  12.137   3.194   3.473
86333SOL    HW260897  12.039   3.102   3.542
86334SOL     OW60898   0.773   4.878   9.550
86334SOL    HW160899   0.769   4.967   9.584
86334SOL    HW260900   0.733   4.824   9.618
86335SOL     OW60901  13.690   4.025   4.743
86335SOL    HW160902  13.682   3.942   4.695
86335SOL    HW260903  13.619   4.023   4.806
86336SOL     OW60904  13.885  12.734   6.452
86336SOL    HW160905  13.966  12.774   6.422
86336SOL    HW260906  13.873  12.765   6.541
86337SOL     OW60907   4.224   1.105   2.014
86337SOL    HW160908   4.151   1.130   1.958
86337SOL    HW260909   4.288   1.066   1.954
86338SOL     OW60910   5.087   5.291  10.588
86338SOL    HW160911   5.036   5.210  10.593
86338SOL    HW260912   5.174   5.263  10.561
86339SOL     OW60913  12.878   6.146   4.156
86339SOL    HW160914  12.838   6.193   4.229
86339SOL    HW260915  12.826   6.171   4.080
86340SOL     OW60916  14.735   5.363   9.281
86340SOL    HW160917  14.644   5.343   9.304
86340SOL    HW260918  14.746   5.455   9.304
86341SOL     OW60919   9.791   2.538   1.985
86341SOL    HW160920   9.749   2.570   2.065
86341SOL    HW260921   9.869   2.492   2.016
86342SOL     OW60922  14.635  14.310   2.753
86342SOL    HW160923  14.728  14.328   2.745
86342SOL    HW260924  14.613  14.259   2.676
86343SOL     OW60925  11.169  10.997  12.590
86343SOL    HW160926  11.157  11.066  12.525
86343SOL    HW260927  11.080  10.969  12.611
86344SOL     OW60928  12.401   6.271   2.573
86344SOL    HW160929  12.491   6.277   2.605
86344SOL    HW260930  12.357   6.215   2.636
86345SOL     OW60931   4.878  10.005  14.866
86345SOL    HW160932   4.960  10.055  14.863
86345SOL    HW260933   4.886   9.951   0.065
86346SOL     OW60934   9.271   4.704   7.810
86346SOL    HW160935   9.248   4.756   7.887
86346SOL    HW260936   9.341   4.753   7.768
86347SOL     OW60937   9.862  13.333   1.813
86347SOL    HW160938   9.836  13.246   1.782
86347SOL    HW260939   9.786  13.366   1.859
86348SOL     OW60940   7.531   2.145  11.162
86348SOL    HW160941   7.448   2.132  11.115
86348SOL    HW260942   7.543   2.064  11.212
86349SOL     OW60943   7.345   9.635   7.134
86349SOL    HW160944   7.411   9.627   7.066
86349SOL    HW260945   7.353   9.554   7.186
86350SOL     OW60946   1.581   5.396   7.059
86350SOL    HW160947   1.612   5.388   7.149
86350SOL    HW260948   1.628   5.472   7.025
86351SOL     OW60949  11.189   2.449   7.640
86351SOL    HW160950  11.200   2.543   7.626
86351SOL    HW260951  11.267   2.410   7.599
86352SOL     OW60952  13.072   7.689   9.806
86352SOL    HW160953  13.128   7.716   9.733
86352SOL    HW260954  12.986   7.675   9.767
86353SOL     OW60955  10.085  13.863  13.833
86353SOL    HW160956  10.061  13.938  13.887
86353SOL    HW260957  10.181  13.865  13.832
86354SOL     OW60958  12.262  10.700   7.901
86354SOL    HW160959  12.320  10.672   7.972
86354SOL    HW260960  12.287  10.790   7.884
86355SOL     OW60961   4.450   7.135   1.786
86355SOL    HW160962   4.439   7.057   1.839
86355SOL    HW260963   4.473   7.102   1.699
86356SOL     OW60964   2.516   4.351   1.851
86356SOL    HW160965   2.611   4.361   1.858
86356SOL    HW260966   2.499   4.259   1.871
86357SOL     OW60967   8.419   4.116   5.312
86357SOL    HW160968   8.459   4.203   5.322
86357SOL    HW260969   8.356   4.128   5.241
86358SOL     OW60970   9.843   3.898   2.559
86358SOL    HW160971   9.780   3.959   2.520
86358SOL    HW260972   9.855   3.830   2.492
86359SOL     OW60973  13.808   4.063   8.162
86359SOL    HW160974  13.850   4.111   8.091
86359SOL    HW260975  13.871   3.995   8.186
86360SOL     OW60976   8.278   2.825   4.988
86360SOL    HW160977   8.233   2.807   5.070
86360SOL    HW260978   8.215   2.875   4.936
86361SOL     OW60979  10.996   5.042   8.818
86361SOL    HW160980  10.987   5.137   8.828
86361SOL    HW260981  10.940   5.020   8.743
86362SOL     OW60982   6.353  11.731   3.934
86362SOL    HW160983   6.264  11.698   3.948
86362SOL    HW260984   6.363  11.799   4.001
86363SOL     OW60985  12.499  14.091  14.812
86363SOL    HW160986  12.529  14.157  14.875
86363SOL    HW260987  12.434  14.040  14.861
86364SOL     OW60988  14.541  11.067   1.898
86364SOL    HW160989  14.622  11.045   1.944
86364SOL    HW260990  14.569  11.100   1.813
86365SOL     OW60991   8.382  14.210  10.198
86365SOL    HW160992   8.431  14.282  10.237
86365SOL    HW260993   8.439  14.134  10.209
86366SOL     OW60994   0.624  11.972  12.526
86366SOL    HW160995   0.651  11.891  12.482
86366SOL    HW260996   0.576  12.020  12.459
86367SOL     OW60997  14.346   6.747   3.603
86367SOL    HW160998  14.437   6.722   3.584
86367SOL    HW260999  14.338   6.836   3.570
86368SOL     OW61000  12.050   2.010  10.797
86368SOL    HW161001  12.144   1.999  10.785
86368SOL    HW261002  12.016   1.922  10.810
86369SOL     OW61003  12.222  12.939  10.284
86369SOL    HW161004  12.169  12.901  10.354
86369SOL    HW261005  12.307  12.896  10.291
86370SOL     OW61006   6.731   4.476   5.687
86370SOL    HW161007   6.812   4.425   5.688
86370SOL    HW261008   6.667   4.419   5.644
86371SOL     OW61009   2.420   3.088  13.180
86371SOL    HW161010   2.501   3.134  13.200
86371SOL    HW261011   2.447   2.998  13.161
86372SOL     OW61012   9.668   1.851   5.923
86372SOL    HW161013   9.729   1.847   5.850
86372SOL    HW261014   9.610   1.924   5.902
86373SOL     OW61015   9.678  10.627   4.403
86373SOL    HW161016   9.607  10.639   4.339
86373SOL    HW261017   9.737  10.563   4.361
86374SOL     OW61018   5.704   8.280   9.704
86374SOL    HW161019   5.716   8.207   9.644
86374SOL    HW261020   5.662   8.348   9.651
86375SOL     OW61021   5.098   7.793  10.320
86375SOL    HW161022   5.015   7.756  10.290
86375SOL    HW261023   5.161   7.766  10.253
86376SOL     OW61024   4.388   6.860   1.840
86376SOL    HW161025   4.473   6.825   1.814
86376SOL    HW261026   4.397   6.880   1.933
86377SOL     OW61027   1.699   8.749   4.038
86377SOL    HW161028   1.614   8.714   4.011
86377SOL    HW261029   1.677   8.827   4.090
86378SOL     OW61030  10.321  12.390  10.263
86378SOL    HW161031  10.416  12.393  10.278
86378SOL    HW261032  10.295  12.482  10.260
86379SOL     OW61033   7.361   2.866  14.328
86379SOL    HW161034   7.276   2.844  14.288
86379SOL    HW261035   7.396   2.782  14.357
86380SOL     OW61036  14.836   7.767   8.721
86380SOL    HW161037  14.765   7.740   8.779
86380SOL    HW261038   0.032   7.776   8.778
86381SOL     OW61039   1.007   3.618  10.593
86381SOL    HW161040   0.921   3.578  10.591
86381SOL    HW261041   1.047   3.586  10.674
86382SOL     OW61042   0.121  13.573   5.362
86382SOL    HW161043   0.139  13.619   5.444
86382SOL    HW261044   0.198  13.516   5.350
86383SOL     OW61045   7.315   2.737  12.507
86383SOL    HW161046   7.251   2.788  12.557
86383SOL    HW261047   7.397   2.784  12.520
86384SOL     OW61048   8.620   9.115   7.976
86384SOL    HW161049   8.626   9.118   8.071
86384SOL    HW261050   8.657   9.030   7.952
86385SOL     OW61051   9.733   5.888  13.918
86385SOL    HW161052   9.662   5.838  13.957
86385SOL    HW261053   9.812   5.838  13.937
86386SOL     OW61054   5.447  11.827   2.654
86386SOL    HW161055   5.417  11.813   2.564
86386SOL    HW261056   5.524  11.770   2.662
86387SOL     OW61057   3.874  13.072   5.920
86387SOL    HW161058   3.781  13.053   5.930
86387SOL    HW261059   3.884  13.096   5.828
86388SOL     OW61060   4.996   9.702  13.873
86388SOL    HW161061   4.917   9.701  13.928
86388SOL    HW261062   4.964   9.727  13.786
86389SOL     OW61063   1.474  14.470   4.495
86389SOL    HW161064   1.455  14.377   4.484
86389SOL    HW261065   1.429  14.513   4.422
86390SOL     OW61066  14.262   9.013  12.779
86390SOL    HW161067  14.206   9.061  12.718
86390SOL    HW261068  14.277   8.929  12.737
86391SOL     OW61069   9.243  13.547   2.417
86391SOL    HW161070   9.151  13.522   2.413
86391SOL    HW261071   9.289  13.480   2.367
86392SOL     OW61072   8.049   4.175   6.594
86392SOL    HW161073   8.139   4.207   6.588
86392SOL    HW261074   8.000   4.228   6.531
86393SOL     OW61075   8.013  12.926   1.475
86393SOL    HW161076   8.056  12.895   1.396
86393SOL    HW261077   7.992  12.846   1.524
86394SOL     OW61078   3.257   9.613   2.663
86394SOL    HW161079   3.320   9.542   2.672
86394SOL    HW261080   3.205   9.589   2.586
86395SOL     OW61081   0.667   5.712   5.653
86395SOL    HW161082   0.662   5.659   5.573
86395SOL    HW261083   0.642   5.800   5.625
86396SOL     OW61084   8.322   8.147   7.450
86396SOL    HW161085   8.266   8.070   7.436
86396SOL    HW261086   8.393   8.114   7.505
86397SOL     OW61087  14.454   3.591   8.622
86397SOL    HW161088  14.489   3.641   8.696
86397SOL    HW261089  14.453   3.500   8.652
86398SOL     OW61090   7.058   5.590   0.110
86398SOL    HW161091   7.128   5.524   0.111
86398SOL    HW261092   7.103   5.673   0.128
86399SOL     OW61093   0.331   8.967  14.054
86399SOL    HW161094   0.400   9.032  14.061
86399SOL    HW261095   0.377   8.883  14.050
86400SOL     OW61096   1.807   9.184   3.949
86400SOL    HW161097   1.820   9.198   4.042
86400SOL    HW261098   1.828   9.268   3.909
86401SOL     OW61099  11.607   1.993   6.929
86401SOL    HW161100  11.524   1.963   6.894
86401SOL    HW261101  11.619   1.943   7.010
86402SOL     OW61102  14.834   4.182   9.921
86402SOL    HW161103   0.021   4.114   9.924
86402SOL    HW261104  14.822   4.199   9.828
86403SOL     OW61105   9.934   1.997   3.132
86403SOL    HW161106   9.970   1.940   3.199
86403SOL    HW261107   9.860   2.040   3.174
86404SOL     OW61108   4.562   1.028   9.930
86404SOL    HW161109   4.636   1.035   9.990
86404SOL    HW261110   4.485   1.021   9.986
86405SOL     OW61111  14.374  13.363   5.223
86405SOL    HW161112  14.366  13.268   5.224
86405SOL    HW261113  14.468  13.380   5.221
86406SOL     OW61114   8.203   1.787   0.844
86406SOL    HW161115   8.200   1.877   0.813
86406SOL    HW261116   8.179   1.792   0.936
86407SOL     OW61117   0.145   6.647  10.878
86407SOL    HW161118   0.216   6.598  10.836
86407SOL    HW261119   0.186   6.727  10.911
86408SOL     OW61120  14.827   7.474   7.492
86408SOL    HW161121  14.840   7.478   7.397
86408SOL    HW261122   0.034   7.454   7.527
86409SOL     OW61123   6.629  12.134   6.009
86409SOL    HW161124   6.620  12.070   5.939
86409SOL    HW261125   6.648  12.082   6.087
86410SOL     OW61126  14.260   6.447   8.166
86410SOL    HW161127  14.300   6.410   8.088
86410SOL    HW261128  14.335   6.469   8.222
86411SOL     OW61129   5.280  13.952   0.631
86411SOL    HW161130   5.242  13.976   0.715
86411SOL    HW261131   5.207  13.913   0.582
86412SOL     OW61132   8.774   0.259   7.727
86412SOL    HW161133   8.840   0.289   7.664
86412SOL    HW261134   8.695   0.244   7.675
86413SOL     OW61135  12.510   3.797   5.355
86413SOL    HW161136  12.557   3.784   5.273
86413SOL    HW261137  12.444   3.728   5.356
86414SOL     OW61138  12.302   8.607   2.708
86414SOL    HW161139  12.331   8.681   2.655
86414SOL    HW261140  12.284   8.537   2.645
86415SOL     OW61141   2.019   0.502   4.769
86415SOL    HW161142   2.020   0.434   4.701
86415SOL    HW261143   1.995   0.582   4.722
86416SOL     OW61144   0.951   6.179  10.427
86416SOL    HW161145   0.932   6.194  10.334
86416SOL    HW261146   0.925   6.088  10.442
86417SOL     OW61147   8.321   4.882  12.558
86417SOL    HW161148   8.294   4.863  12.648
86417SOL    HW261149   8.240   4.906  12.513
86418SOL     OW61150  10.313   6.821  14.108
86418SOL    HW161151  10.309   6.898  14.051
86418SOL    HW261152  10.395   6.830  14.157
86419SOL     OW61153   6.265   2.283   6.050
86419SOL    HW161154   6.351   2.242   6.041
86419SOL    HW261155   6.274   2.341   6.125
86420SOL     OW61156   7.622   5.695  11.075
86420SOL    HW161157   7.608   5.765  11.011
86420SOL    HW261158   7.534   5.663  11.096
86421SOL     OW61159   4.458   9.322   8.924
86421SOL    HW161160   4.453   9.384   8.996
86421SOL    HW261161   4.447   9.236   8.965
86422SOL     OW61162   3.814  11.794   6.404
86422SOL    HW161163   3.833  11.792   6.310
86422SOL    HW261164   3.858  11.873   6.435
86423SOL     OW61165   6.783  12.912  11.240
86423SOL    HW161166   6.791  12.999  11.200
86423SOL    HW261167   6.758  12.855  11.167
86424SOL     OW61168   5.138  12.539   7.461
86424SOL    HW161169   5.179  12.460   7.428
86424SOL    HW261170   5.044  12.523   7.452
86425SOL     OW61171   9.908  12.486  10.340
86425SOL    HW161172   9.953  12.542  10.277
86425SOL    HW261173   9.924  12.527  10.425
86426SOL     OW61174   4.601   0.563   1.458
86426SOL    HW161175   4.621   0.592   1.369
86426SOL    HW261176   4.516   0.601   1.477
86427SOL     OW61177  13.748   4.876   9.866
86427SOL    HW161178  13.702   4.792   9.860
86427SOL    HW261179  13.840   4.852   9.878
86428SOL     OW61180   4.482  14.249   4.953
86428SOL    HW161181   4.550  14.191   4.986
86428SOL    HW261182   4.514  14.337   4.972
86429SOL     OW61183  14.084  13.996   4.824
86429SOL    HW161184  14.096  14.091   4.822
86429SOL    HW261185  14.093  13.968   4.733
86430SOL     OW61186  12.557   4.879  10.082
86430SOL    HW161187  12.501   4.944  10.125
86430SOL    HW261188  12.495   4.816  10.045
86431SOL     OW61189   1.332   5.546   9.295
86431SOL    HW161190   1.424   5.530   9.275
86431SOL    HW261191   1.292   5.459   9.296
86432SOL     OW61192  10.954   4.474   3.888
86432SOL    HW161193  10.893   4.415   3.933
86432SOL    HW261194  10.899   4.523   3.827
86433SOL     OW61195   4.745   1.042   5.406
86433SOL    HW161196   4.752   1.137   5.413
86433SOL    HW261197   4.651   1.024   5.411
86434SOL     OW61198  12.956   4.348   2.467
86434SOL    HW161199  12.864   4.345   2.494
86434SOL    HW261200  12.976   4.441   2.460
86435SOL     OW61201  11.653  12.637   1.030
86435SOL    HW161202  11.681  12.669   0.944
86435SOL    HW261203  11.558  12.644   1.028
86436SOL     OW61204   8.572   8.756   4.770
86436SOL    HW161205   8.499   8.719   4.819
86436SOL    HW261206   8.624   8.681   4.742
86437SOL     OW61207  10.633   6.596   8.798
86437SOL    HW161208  10.691   6.600   8.875
86437SOL    HW261209  10.680   6.541   8.736
86438SOL     OW61210   5.502  10.639  12.600
86438SOL    HW161211   5.524  10.618  12.690
86438SOL    HW261212   5.494  10.554  12.556
86439SOL     OW61213  13.268   0.351  13.588
86439SOL    HW161214  13.306   0.318  13.507
86439SOL    HW261215  13.301   0.292  13.656
86440SOL     OW61216   5.456  14.707  11.443
86440SOL    HW161217   5.545  14.684  11.468
86440SOL    HW261218   5.426  14.633  11.390
86441SOL     OW61219   9.119   2.141  10.353
86441SOL    HW161220   9.210   2.168  10.352
86441SOL    HW261221   9.098   2.131  10.446
86442SOL     OW61222  14.328   9.520   4.325
86442SOL    HW161223  14.239   9.506   4.357
86442SOL    HW261224  14.353   9.605   4.361
86443SOL     OW61225   6.127  12.061  13.686
86443SOL    HW161226   6.066  12.017  13.746
86443SOL    HW261227   6.213  12.038  13.719
86444SOL     OW61228   7.262   9.799   8.296
86444SOL    HW161229   7.236   9.858   8.225
86444SOL    HW261230   7.214   9.832   8.373
86445SOL     OW61231   3.247  12.267   4.775
86445SOL    HW161232   3.245  12.252   4.869
86445SOL    HW261233   3.340  12.265   4.753
86446SOL     OW61234   7.176  14.839   8.390
86446SOL    HW161235   7.242  14.773   8.370
86446SOL    HW261236   7.198   0.032   8.332
86447SOL     OW61237   0.720   4.293  14.020
86447SOL    HW161238   0.815   4.291  14.032
86447SOL    HW261239   0.690   4.208  14.052
86448SOL     OW61240   7.870   0.455   8.953
86448SOL    HW161241   7.869   0.360   8.965
86448SOL    HW261242   7.962   0.479   8.957
86449SOL     OW61243  11.226   5.554   2.096
86449SOL    HW161244  11.136   5.563   2.066
86449SOL    HW261245  11.234   5.618   2.167
86450SOL     OW61246  12.348  10.267  11.877
86450SOL    HW161247  12.304  10.273  11.962
86450SOL    HW261248  12.324  10.181  11.843
86451SOL     OW61249  11.109   9.195  13.368
86451SOL    HW161250  11.114   9.191  13.463
86451SOL    HW261251  11.019   9.220  13.349
86452SOL     OW61252   0.533   6.503   9.818
86452SOL    HW161253   0.460   6.518   9.757
86452SOL    HW261254   0.609   6.491   9.762
86453SOL     OW61255  13.513   6.427   4.287
86453SOL    HW161256  13.461   6.497   4.326
86453SOL    HW261257  13.603   6.449   4.307
86454SOL     OW61258   3.793   7.281   3.789
86454SOL    HW161259   3.756   7.217   3.850
86454SOL    HW261260   3.887   7.275   3.801
86455SOL     OW61261   7.622   1.571   6.693
86455SOL    HW161262   7.639   1.662   6.667
86455SOL    HW261263   7.606   1.575   6.787
86456SOL     OW61264   5.907  12.789   6.421
86456SOL    HW161265   5.828  12.736   6.415
86456SOL    HW261266   5.913  12.813   6.513
86457SOL     OW61267   9.937  13.291  14.423
86457SOL    HW161268  10.027  13.260  14.416
86457SOL    HW261269   9.884  13.212  14.423
86458SOL     OW61270  13.805   9.251  14.705
86458SOL    HW161271  13.849   9.176  14.745
86458SOL    HW261272  13.778   9.219  14.619
86459SOL     OW61273  14.545  12.658   7.499
86459SOL    HW161274  14.562  12.659   7.593
86459SOL    HW261275  14.566  12.568   7.472
86460SOL     OW61276  13.615   1.180   4.593
86460SOL    HW161277  13.652   1.094   4.572
86460SOL    HW261278  13.564   1.166   4.673
86461SOL     OW61279   1.997  13.786   3.024
86461SOL    HW161280   1.949  13.867   3.039
86461SOL    HW261281   2.081  13.799   3.068
86462SOL     OW61282   8.578   6.890  12.515
86462SOL    HW161283   8.570   6.798  12.489
86462SOL    HW261284   8.555   6.940  12.436
86463SOL     OW61285  13.687   0.989  12.468
86463SOL    HW161286  13.650   0.901  12.459
86463SOL    HW261287  13.780   0.974  12.488
86464SOL     OW61288   7.456  13.532   5.644
86464SOL    HW161289   7.432  13.612   5.598
86464SOL    HW261290   7.411  13.538   5.729
86465SOL     OW61291   0.105   6.084  13.221
86465SOL    HW161292   0.191   6.102  13.184
86465SOL    HW261293   0.078   6.002  13.180
86466SOL     OW61294  12.879   7.785   3.497
86466SOL    HW161295  12.911   7.793   3.407
86466SOL    HW261296  12.784   7.782   3.488
86467SOL     OW61297  10.904   4.331   7.814
86467SOL    HW161298  10.990   4.373   7.821
86467SOL    HW261299  10.883   4.335   7.721
86468SOL     OW61300   6.947   5.840  10.063
86468SOL    HW161301   6.931   5.749  10.090
86468SOL    HW261302   6.989   5.880  10.139
86469SOL     OW61303   9.055  12.094   2.908
86469SOL    HW161304   9.008  12.013   2.927
86469SOL    HW261305   8.992  12.147   2.860
86470SOL     OW61306   1.376   0.303   5.764
86470SOL    HW161307   1.444   0.265   5.820
86470SOL    HW261308   1.345   0.379   5.812
86471SOL     OW61309  11.963   4.492   6.059
86471SOL    HW161310  11.955   4.398   6.043
86471SOL    HW261311  12.006   4.526   5.980
86472SOL     OW61312   7.513   2.320   8.189
86472SOL    HW161313   7.455   2.261   8.141
86472SOL    HW261314   7.601   2.285   8.174
86473SOL     OW61315   7.733  11.578   7.527
86473SOL    HW161316   7.678  11.537   7.594
86473SOL    HW261317   7.709  11.671   7.530
86474SOL     OW61318   5.635  12.015   8.320
86474SOL    HW161319   5.571  12.004   8.390
86474SOL    HW261320   5.680  12.096   8.341
86475SOL     OW61321  12.501   3.992   2.093
86475SOL    HW161322  12.493   3.939   2.014
86475SOL    HW261323  12.551   3.937   2.154
86476SOL     OW61324   6.236  12.558   9.546
86476SOL    HW161325   6.304  12.510   9.498
86476SOL    HW261326   6.232  12.514   9.631
86477SOL     OW61327  11.282  10.237   1.513
86477SOL    HW161328  11.274  10.257   1.607
86477SOL    HW261329  11.371  10.264   1.491
86478SOL     OW61330  11.677   8.296  12.965
86478SOL    HW161331  11.772   8.289  12.969
86478SOL    HW261332  11.654   8.254  12.881
86479SOL     OW61333   8.638   9.392   0.896
86479SOL    HW161334   8.642   9.487   0.908
86479SOL    HW261335   8.650   9.357   0.984
86480SOL     OW61336  10.387   7.416   8.035
86480SOL    HW161337  10.395   7.458   7.949
86480SOL    HW261338  10.294   7.425   8.057
86481SOL     OW61339  14.445   8.745  11.346
86481SOL    HW161340  14.529   8.783  11.371
86481SOL    HW261341  14.386   8.820  11.339
86482SOL     OW61342   8.883  11.785  11.143
86482SOL    HW161343   8.876  11.770  11.049
86482SOL    HW261344   8.977  11.794  11.159
86483SOL     OW61345   1.191   6.556   4.641
86483SOL    HW161346   1.122   6.561   4.575
86483SOL    HW261347   1.159   6.610   4.713
86484SOL     OW61348   9.290  13.147  11.077
86484SOL    HW161349   9.379  13.139  11.045
86484SOL    HW261350   9.299  13.179  11.167
86485SOL     OW61351  12.611  12.098   8.966
86485SOL    HW161352  12.544  12.057   8.912
86485SOL    HW261353  12.561  12.154   9.026
86486SOL     OW61354   9.169  14.772  11.698
86486SOL    HW161355   9.178  14.811  11.610
86486SOL    HW261356   9.255  14.734  11.716
86487SOL     OW61357   3.228   1.358  10.934
86487SOL    HW161358   3.183   1.355  10.850
86487SOL    HW261359   3.298   1.293  10.926
86488SOL     OW61360   2.675   1.181  12.914
86488SOL    HW161361   2.753   1.238  12.914
86488SOL    HW261362   2.634   1.195  12.999
86489SOL     OW61363   4.618  13.683  13.627
86489SOL    HW161364   4.697  13.635  13.601
86489SOL    HW261365   4.639  13.718  13.714
86490SOL     OW61366  12.035  10.987  13.715
86490SOL    HW161367  12.071  10.957  13.632
86490SOL    HW261368  12.069  11.076  13.725
86491SOL     OW61369  12.959   0.289   9.404
86491SOL    HW161370  13.004   0.318   9.484
86491SOL    HW261371  12.907   0.214   9.432
86492SOL     OW61372   7.608  12.513  11.452
86492SOL    HW161373   7.590  12.549  11.539
86492SOL    HW261374   7.556  12.433  11.448
86493SOL     OW61375  11.581  13.420   1.762
86493SOL    HW161376  11.649  13.488   1.768
86493SOL    HW261377  11.512  13.461   1.711
86494SOL     OW61378   7.967   0.731   8.253
86494SOL    HW161379   7.941   0.788   8.324
86494SOL    HW261380   8.026   0.667   8.293
86495SOL     OW61381   1.712  13.084  11.561
86495SOL    HW161382   1.790  13.140  11.563
86495SOL    HW261383   1.686  13.083  11.468
86496SOL     OW61384   7.774   7.491   4.107
86496SOL    HW161385   7.821   7.465   4.027
86496SOL    HW261386   7.709   7.422   4.120
86497SOL     OW61387   7.821   8.244  11.121
86497SOL    HW161388   7.749   8.273  11.177
86497SOL    HW261389   7.886   8.314  11.126
86498SOL     OW61390   1.555  14.662   1.529
86498SOL    HW161391   1.557  14.729   1.598
86498SOL    HW261392   1.642  14.665   1.490
86499SOL     OW61393  14.000   8.859  13.783
86499SOL    HW161394  13.913   8.820  13.793
86499SOL    HW261395  14.048   8.796  13.728
86500SOL     OW61396   5.745  13.554  13.816
86500SOL    HW161397   5.710  13.640  13.839
86500SOL    HW261398   5.669  13.501  13.794
86501SOL     OW61399  14.723  10.296   8.732
86501SOL    HW161400  14.648  10.285   8.673
86501SOL    HW261401  14.713  10.385   8.766
86502SOL     OW61402   4.021  12.093  13.505
86502SOL    HW161403   4.060  12.175  13.474
86502SOL    HW261404   4.095  12.040  13.532
86503SOL     OW61405   0.108   1.142   1.486
86503SOL    HW161406   0.183   1.123   1.430
86503SOL    HW261407   0.033   1.107   1.438
86504SOL     OW61408   6.908   0.220   6.301
86504SOL    HW161409   6.962   0.299   6.299
86504SOL    HW261410   6.928   0.179   6.385
86505SOL     OW61411   8.762  11.591   3.985
86505SOL    HW161412   8.668  11.575   3.984
86505SOL    HW261413   8.784  11.610   3.894
86506SOL     OW61414   6.422  10.562   7.410
86506SOL    HW161415   6.496  10.599   7.458
86506SOL    HW261416   6.461  10.496   7.352
86507SOL     OW61417  14.231   3.614  13.226
86507SOL    HW161418  14.201   3.662  13.304
86507SOL    HW261419  14.200   3.667  13.152
86508SOL     OW61420   6.025   8.913   0.372
86508SOL    HW161421   6.075   8.856   0.430
86508SOL    HW261422   5.954   8.946   0.427
86509SOL     OW61423   5.938   2.569   1.985
86509SOL    HW161424   5.847   2.597   1.996
86509SOL    HW261425   5.975   2.575   2.074
86510SOL     OW61426   7.397  10.921   4.907
86510SOL    HW161427   7.444  10.878   4.835
86510SOL    HW261428   7.438  10.886   4.986
86511SOL     OW61429  14.154   7.652   1.496
86511SOL    HW161430  14.080   7.641   1.436
86511SOL    HW261431  14.121   7.708   1.566
86512SOL     OW61432  13.477  12.499  13.244
86512SOL    HW161433  13.393  12.542  13.228
86512SOL    HW261434  13.542  12.558  13.207
86513SOL     OW61435   4.902  13.851   5.529
86513SOL    HW161436   4.840  13.871   5.599
86513SOL    HW261437   4.984  13.891   5.557
86514SOL     OW61438  12.590   2.487   1.656
86514SOL    HW161439  12.563   2.474   1.747
86514SOL    HW261440  12.528   2.552   1.623
86515SOL     OW61441   7.197  13.642   2.050
86515SOL    HW161442   7.119  13.688   2.017
86515SOL    HW261443   7.240  13.705   2.107
86516SOL     OW61444  11.185   5.985   4.337
86516SOL    HW161445  11.156   5.932   4.263
86516SOL    HW261446  11.240   6.053   4.298
86517SOL     OW61447   3.298  14.805   1.149
86517SOL    HW161448   3.240  14.824   1.223
86517SOL    HW261449   3.316  14.712   1.155
86518SOL     OW61450   8.752  10.163   9.236
86518SOL    HW161451   8.664  10.189   9.211
86518SOL    HW261452   8.743  10.071   9.263
86519SOL     OW61453  12.060  13.578   5.292
86519SOL    HW161454  11.992  13.645   5.295
86519SOL    HW261455  12.025  13.510   5.234
86520SOL     OW61456  10.050   7.335   7.762
86520SOL    HW161457   9.997   7.341   7.842
86520SOL    HW261458  10.100   7.417   7.761
86521SOL     OW61459   1.032   4.748   0.581
86521SOL    HW161460   1.025   4.667   0.530
86521SOL    HW261461   0.946   4.790   0.571
86522SOL     OW61462  14.589   5.445  14.062
86522SOL    HW161463  14.511   5.393  14.084
86522SOL    HW261464  14.556   5.512  14.002
86523SOL     OW61465   3.358   6.705   9.611
86523SOL    HW161466   3.340   6.737   9.700
86523SOL    HW261467   3.272   6.685   9.575
86524SOL     OW61468   4.017   9.521   4.608
86524SOL    HW161469   3.929   9.548   4.635
86524SOL    HW261470   4.009   9.426   4.594
86525SOL     OW61471   4.697  13.799  13.875
86525SOL    HW161472   4.791  13.790  13.855
86525SOL    HW261473   4.674  13.716  13.917
86526SOL     OW61474   6.608  14.375   3.698
86526SOL    HW161475   6.569  14.320   3.766
86526SOL    HW261476   6.649  14.312   3.638
86527SOL     OW61477  11.360   8.397   7.107
86527SOL    HW161478  11.445   8.354   7.118
86527SOL    HW261479  11.371   8.453   7.030
86528SOL     OW61480   0.652   0.970   7.368
86528SOL    HW161481   0.716   0.995   7.301
86528SOL    HW261482   0.703   0.918   7.431
86529SOL     OW61483   6.905   7.941   8.835
86529SOL    HW161484   6.982   7.922   8.889
86529SOL    HW261485   6.871   8.023   8.871
86530SOL     OW61486   5.518   4.386   4.157
86530SOL    HW161487   5.612   4.390   4.141
86530SOL    HW261488   5.490   4.477   4.159
86531SOL     OW61489   8.615   9.476   4.542
86531SOL    HW161490   8.561   9.437   4.611
86531SOL    HW261491   8.658   9.402   4.500
86532SOL     OW61492   9.561   9.264   3.462
86532SOL    HW161493   9.603   9.184   3.429
86532SOL    HW261494   9.634   9.324   3.478
86533SOL     OW61495  12.307   8.310  11.177
86533SOL    HW161496  12.276   8.254  11.105
86533SOL    HW261497  12.299   8.399  11.143
86534SOL     OW61498   3.159   0.372   1.533
86534SOL    HW161499   3.098   0.342   1.466
86534SOL    HW261500   3.228   0.305   1.536
86535SOL     OW61501   7.133   6.486  11.430
86535SOL    HW161502   7.076   6.557  11.398
86535SOL    HW261503   7.135   6.423  11.358
86536SOL     OW61504  10.305   7.039   0.185
86536SOL    HW161505  10.389   7.007   0.153
86536SOL    HW261506  10.295   6.999   0.271
86537SOL     OW61507   5.216  10.298   9.526
86537SOL    HW161508   5.248  10.253   9.447
86537SOL    HW261509   5.292  10.343   9.561
86538SOL     OW61510   3.848   3.481   1.580
86538SOL    HW161511   3.787   3.436   1.521
86538SOL    HW261512   3.887   3.550   1.526
86539SOL     OW61513   9.763   9.432  11.104
86539SOL    HW161514   9.816   9.511  11.118
86539SOL    HW261515   9.757   9.424  11.009
86540SOL     OW61516   8.525  12.995  12.665
86540SOL    HW161517   8.618  12.972  12.671
86540SOL    HW261518   8.479  12.918  12.700
86541SOL     OW61519  12.864  12.351   2.141
86541SOL    HW161520  12.821  12.308   2.068
86541SOL    HW261521  12.946  12.302   2.153
86542SOL     OW61522  13.663   1.512  12.448
86542SOL    HW161523  13.569   1.493  12.450
86542SOL    HW261524  13.671   1.600  12.485
86543SOL     OW61525   3.098   0.526   8.167
86543SOL    HW161526   3.046   0.544   8.245
86543SOL    HW261527   3.144   0.608   8.149
86544SOL     OW61528   5.848   8.100   0.868
86544SOL    HW161529   5.834   8.111   0.774
86544SOL    HW261530   5.760   8.087   0.903
86545SOL     OW61531   3.686   5.049   3.658
86545SOL    HW161532   3.778   5.060   3.635
86545SOL    HW261533   3.674   5.103   3.736
86546SOL     OW61534  13.708  14.068   7.844
86546SOL    HW161535  13.763  14.027   7.911
86546SOL    HW261536  13.745  14.156   7.835
86547SOL     OW61537  10.761  14.032   6.187
86547SOL    HW161538  10.669  14.005   6.182
86547SOL    HW261539  10.811  13.956   6.157
86548SOL     OW61540   5.851   0.044  12.155
86548SOL    HW161541   5.901   0.060  12.075
86548SOL    HW261542   5.789  14.856  12.131
86549SOL     OW61543  13.172   9.108   9.135
86549SOL    HW161544  13.241   9.044   9.119
86549SOL    HW261545  13.119   9.108   9.055
86550SOL     OW61546  11.667   5.387   3.987
86550SOL    HW161547  11.584   5.338   3.982
86550SOL    HW261548  11.733   5.325   3.957
86551SOL     OW61549   0.061   4.598   7.689
86551SOL    HW161550  14.875   4.666   7.705
86551SOL    HW261551   0.122   4.638   7.627
86552SOL     OW61552   9.272  10.069   8.358
86552SOL    HW161553   9.192  10.078   8.307
86552SOL    HW261554   9.294  10.159   8.385
86553SOL     OW61555   0.063   4.907  10.910
86553SOL    HW161556   0.093   4.850  10.839
86553SOL    HW261557   0.110   4.989  10.896
86554SOL     OW61558  13.939   3.232   9.514
86554SOL    HW161559  13.863   3.217   9.571
86554SOL    HW261560  14.009   3.181   9.553
86555SOL     OW61561   1.222   7.049   7.514
86555SOL    HW161562   1.265   7.005   7.440
86555SOL    HW261563   1.228   7.142   7.493
86556SOL     OW61564   2.994   0.460   5.744
86556SOL    HW161565   2.901   0.478   5.734
86556SOL    HW261566   3.027   0.456   5.654
86557SOL     OW61567   6.514   4.046   9.861
86557SOL    HW161568   6.455   4.050   9.937
86557SOL    HW261569   6.600   4.071   9.896
86558SOL     OW61570   3.761   4.372   6.138
86558SOL    HW161571   3.830   4.325   6.090
86558SOL    HW261572   3.760   4.330   6.224
86559SOL     OW61573   9.089  14.030   3.773
86559SOL    HW161574   9.093  13.935   3.773
86559SOL    HW261575   9.079  14.054   3.681
86560SOL     OW61576   2.063  12.705   9.529
86560SOL    HW161577   1.989  12.750   9.570
86560SOL    HW261578   2.062  12.617   9.568
86561SOL     OW61579   4.752   2.762   2.498
86561SOL    HW161580   4.668   2.774   2.541
86561SOL    HW261581   4.788   2.682   2.536
86562SOL     OW61582   1.148   3.330  10.136
86562SOL    HW161583   1.111   3.321  10.223
86562SOL    HW261584   1.079   3.370  10.084
86563SOL     OW61585  11.324   9.908   2.415
86563SOL    HW161586  11.366   9.826   2.439
86563SOL    HW261587  11.277   9.935   2.494
86564SOL     OW61588  12.876   5.697  12.359
86564SOL    HW161589  12.917   5.690  12.272
86564SOL    HW261590  12.802   5.756  12.345
86565SOL     OW61591  13.980  10.401   4.390
86565SOL    HW161592  13.951  10.324   4.341
86565SOL    HW261593  13.929  10.473   4.354
86566SOL     OW61594   2.518  12.347   7.413
86566SOL    HW161595   2.584  12.410   7.443
86566SOL    HW261596   2.458  12.400   7.360
86567SOL     OW61597  11.608  10.801   1.616
86567SOL    HW161598  11.591  10.872   1.554
86567SOL    HW261599  11.523  10.758   1.627
86568SOL     OW61600   9.396   1.529   9.462
86568SOL    HW161601   9.335   1.472   9.415
86568SOL    HW261602   9.362   1.531   9.552
86569SOL     OW61603  13.132   4.892   5.549
86569SOL    HW161604  13.176   4.860   5.471
86569SOL    HW261605  13.154   4.985   5.553
86570SOL     OW61606  13.370  11.725   1.167
86570SOL    HW161607  13.284  11.686   1.182
86570SOL    HW261608  13.432  11.654   1.185
86571SOL     OW61609   1.644   8.775   2.920
86571SOL    HW161610   1.725   8.775   2.870
86571SOL    HW261611   1.576   8.753   2.856
86572SOL     OW61612   1.331   9.592   8.063
86572SOL    HW161613   1.350   9.639   8.145
86572SOL    HW261614   1.304   9.505   8.092
86573SOL     OW61615   6.049   9.790   8.453
86573SOL    HW161616   6.129   9.822   8.410
86573SOL    HW261617   6.080   9.740   8.528
86574SOL     OW61618   3.845  13.957   7.898
86574SOL    HW161619   3.822  14.035   7.848
86574SOL    HW261620   3.881  13.991   7.980
86575SOL     OW61621  13.958   1.993   0.439
86575SOL    HW161622  13.923   1.936   0.370
86575SOL    HW261623  13.940   2.081   0.408
86576SOL     OW61624   0.956  11.007   7.924
86576SOL    HW161625   0.895  10.995   7.996
86576SOL    HW261626   0.901  11.005   7.845
86577SOL     OW61627  14.270   1.435   3.911
86577SOL    HW161628  14.314   1.378   3.849
86577SOL    HW261629  14.188   1.459   3.868
86578SOL     OW61630   6.144   1.081   3.223
86578SOL    HW161631   6.076   1.016   3.207
86578SOL    HW261632   6.098   1.165   3.220
86579SOL     OW61633  12.338   8.262   3.091
86579SOL    HW161634  12.308   8.189   3.144
86579SOL    HW261635  12.418   8.292   3.134
86580SOL     OW61636   8.831   9.444  10.100
86580SOL    HW161637   8.860   9.534  10.087
86580SOL    HW261638   8.738   9.446  10.077
86581SOL     OW61639   6.634  11.288   3.850
86581SOL    HW161640   6.627  11.200   3.889
86581SOL    HW261641   6.555  11.296   3.797
86582SOL     OW61642   5.070  13.426   0.754
86582SOL    HW161643   5.069  13.344   0.803
86582SOL    HW261644   5.159  13.460   0.767
86583SOL     OW61645   6.455   4.677  13.276
86583SOL    HW161646   6.428   4.734  13.348
86583SOL    HW261647   6.382   4.679  13.215
86584SOL     OW61648   5.457  10.407  11.052
86584SOL    HW161649   5.493  10.324  11.085
86584SOL    HW261650   5.381  10.382  11.001
86585SOL     OW61651   5.605   5.979   5.652
86585SOL    HW161652   5.601   5.985   5.557
86585SOL    HW261653   5.520   6.012   5.682
86586SOL     OW61654   0.989   4.905   5.563
86586SOL    HW161655   1.064   4.847   5.553
86586SOL    HW261656   0.939   4.895   5.482
86587SOL     OW61657   9.063   2.707   1.286
86587SOL    HW161658   9.006   2.678   1.214
86587SOL    HW261659   9.083   2.798   1.265
86588SOL     OW61660  11.102  13.027   3.101
86588SOL    HW161661  11.137  13.051   3.015
86588SOL    HW261662  11.015  12.991   3.082
86589SOL     OW61663   2.206  12.547   7.767
86589SOL    HW161664   2.208  12.628   7.818
86589SOL    HW261665   2.172  12.481   7.828
86590SOL     OW61666   8.487   3.870   9.818
86590SOL    HW161667   8.505   3.879   9.912
86590SOL    HW261668   8.512   3.955   9.781
86591SOL     OW61669   4.862   5.274  14.098
86591SOL    HW161670   4.856   5.357  14.052
86591SOL    HW261671   4.919   5.292  14.173
86592SOL     OW61672   6.214  11.858   9.898
86592SOL    HW161673   6.242  11.886   9.985
86592SOL    HW261674   6.252  11.923   9.839
86593SOL     OW61675   2.790  11.068   3.598
86593SOL    HW161676   2.857  11.130   3.568
86593SOL    HW261677   2.817  10.984   3.560
86594SOL     OW61678   4.936   5.869  12.739
86594SOL    HW161679   4.868   5.937  12.740
86594SOL    HW261680   4.951   5.848  12.831
86595SOL     OW61681  14.809   4.236  11.526
86595SOL    HW161682  14.729   4.187  11.508
86595SOL    HW261683  14.786   4.294  11.599
86596SOL     OW61684   0.667  10.685   8.565
86596SOL    HW161685   0.580  10.707   8.532
86596SOL    HW261686   0.707  10.770   8.586
86597SOL     OW61687  10.679   0.985   6.335
86597SOL    HW161688  10.584   0.977   6.334
86597SOL    HW261689  10.702   1.013   6.246
86598SOL     OW61690   4.637  14.731   7.253
86598SOL    HW161691   4.557  14.783   7.263
86598SOL    HW261692   4.683  14.773   7.180
86599SOL     OW61693   3.979   4.199  12.297
86599SOL    HW161694   3.995   4.255  12.373
86599SOL    HW261695   3.884   4.183  12.298
86600SOL     OW61696   0.729   4.745  13.774
86600SOL    HW161697   0.692   4.778  13.856
86600SOL    HW261698   0.782   4.818  13.740
86601SOL     OW61699   6.986   8.720   5.544
86601SOL    HW161700   7.079   8.724   5.564
86601SOL    HW261701   6.968   8.626   5.532
86602SOL     OW61702   7.796   6.116   9.560
86602SOL    HW161703   7.773   6.031   9.597
86602SOL    HW261704   7.712   6.160   9.548
86603SOL     OW61705   5.141   1.158   1.838
86603SOL    HW161706   5.132   1.235   1.782
86603SOL    HW261707   5.052   1.122   1.843
86604SOL     OW61708  14.194   8.529   1.467
86604SOL    HW161709  14.192   8.448   1.415
86604SOL    HW261710  14.153   8.505   1.550
86605SOL     OW61711  14.358  11.251   7.615
86605SOL    HW161712  14.295  11.217   7.678
86605SOL    HW261713  14.439  11.259   7.664
86606SOL     OW61714  14.794  11.527   6.438
86606SOL    HW161715  14.755  11.498   6.356
86606SOL    HW261716  14.869  11.469   6.450
86607SOL     OW61717   0.118   0.926  12.630
86607SOL    HW161718   0.174   0.864  12.678
86607SOL    HW261719   0.176   0.998  12.607
86608SOL     OW61720  13.766   5.390   7.496
86608SOL    HW161721  13.691   5.345   7.536
86608SOL    HW261722  13.839   5.330   7.508
86609SOL     OW61723   1.286  12.969  11.885
86609SOL    HW161724   1.299  12.961  11.790
86609SOL    HW261725   1.341  12.900  11.922
86610SOL     OW61726   4.784   0.680   9.091
86610SOL    HW161727   4.877   0.691   9.071
86610SOL    HW261728   4.771   0.730   9.172
86611SOL     OW61729   6.710   3.520   2.112
86611SOL    HW161730   6.665   3.555   2.188
86611SOL    HW261731   6.686   3.578   2.040
86612SOL     OW61732   1.327   6.881   5.967
86612SOL    HW161733   1.406   6.903   6.017
86612SOL    HW261734   1.314   6.788   5.983
86613SOL     OW61735   2.522   9.903   8.198
86613SOL    HW161736   2.487   9.933   8.282
86613SOL    HW261737   2.617   9.901   8.211
86614SOL     OW61738   1.955   3.095   2.415
86614SOL    HW161739   1.933   3.093   2.322
86614SOL    HW261740   2.015   3.169   2.425
86615SOL     OW61741  14.315   4.045   5.100
86615SOL    HW161742  14.278   3.992   5.030
86615SOL    HW261743  14.308   4.135   5.069
86616SOL     OW61744   0.567   4.482   8.567
86616SOL    HW161745   0.515   4.558   8.541
86616SOL    HW261746   0.658   4.514   8.567
86617SOL     OW61747   4.782   6.800   1.204
86617SOL    HW161748   4.749   6.861   1.270
86617SOL    HW261749   4.704   6.770   1.158
86618SOL     OW61750   1.807  10.755  11.511
86618SOL    HW161751   1.739  10.774  11.447
86618SOL    HW261752   1.759  10.728  11.589
86619SOL     OW61753  11.354   8.405   0.301
86619SOL    HW161754  11.383   8.316   0.281
86619SOL    HW261755  11.420   8.461   0.260
86620SOL     OW61756   5.982   1.431   7.926
86620SOL    HW161757   6.057   1.479   7.963
86620SOL    HW261758   5.919   1.499   7.904
86621SOL     OW61759   6.632   0.997   3.232
86621SOL    HW161760   6.706   0.940   3.249
86621SOL    HW261761   6.589   0.958   3.155
86622SOL     OW61762   6.339   2.441   6.893
86622SOL    HW161763   6.303   2.473   6.975
86622SOL    HW261764   6.314   2.507   6.828
86623SOL     OW61765   4.567   2.209   7.613
86623SOL    HW161766   4.559   2.164   7.528
86623SOL    HW261767   4.605   2.294   7.591
86624SOL     OW61768   8.719   1.564   8.311
86624SOL    HW161769   8.653   1.592   8.248
86624SOL    HW261770   8.671   1.515   8.377
86625SOL     OW61771   5.480   7.997   3.791
86625SOL    HW161772   5.459   8.044   3.711
86625SOL    HW261773   5.531   8.060   3.843
86626SOL     OW61774   9.992  13.810  11.716
86626SOL    HW161775  10.086  13.820  11.733
86626SOL    HW261776   9.974  13.718  11.733
86627SOL     OW61777   2.001   2.781  14.524
86627SOL    HW161778   2.063   2.710  14.543
86627SOL    HW261779   2.054   2.861  14.528
86628SOL     OW61780   5.782   9.198   4.035
86628SOL    HW161781   5.706   9.142   4.052
86628SOL    HW261782   5.815   9.221   4.122
86629SOL     OW61783   1.649   4.967   0.176
86629SOL    HW161784   1.592   5.019   0.234
86629SOL    HW261785   1.589   4.930   0.111
86630SOL     OW61786  10.809  12.904  10.497
86630SOL    HW161787  10.887  12.930  10.546
86630SOL    HW261788  10.834  12.821  10.456
86631SOL     OW61789  13.454   2.942  11.747
86631SOL    HW161790  13.470   3.036  11.758
86631SOL    HW261791  13.518   2.900  11.805
86632SOL     OW61792  12.398  14.212  13.326
86632SOL    HW161793  12.322  14.166  13.362
86632SOL    HW261794  12.415  14.169  13.242
86633SOL     OW61795   4.070  11.374   5.957
86633SOL    HW161796   3.979  11.401   5.950
86633SOL    HW261797   4.083  11.314   5.884
86634SOL     OW61798  14.495  13.892   2.711
86634SOL    HW161799  14.500  13.897   2.806
86634SOL    HW261800  14.567  13.834   2.685
86635SOL     OW61801  11.576  14.828   2.122
86635SOL    HW161802  11.580  14.733   2.121
86635SOL    HW261803  11.527  14.849   2.202
86636SOL     OW61804   5.616   4.098  11.010
86636SOL    HW161805   5.700   4.096  11.056
86636SOL    HW261806   5.638   4.080  10.919
86637SOL     OW61807   3.331  13.771   7.927
86637SOL    HW161808   3.326  13.737   7.838
86637SOL    HW261809   3.416  13.813   7.932
86638SOL     OW61810   7.689  14.310   4.198
86638SOL    HW161811   7.662  14.401   4.204
86638SOL    HW261812   7.651  14.279   4.115
86639SOL     OW61813   6.707   4.817  12.671
86639SOL    HW161814   6.697   4.872  12.594
86639SOL    HW261815   6.765   4.866  12.729
86640SOL     OW61816  13.567   7.350  10.922
86640SOL    HW161817  13.478   7.353  10.958
86640SOL    HW261818  13.576   7.431  10.873
86641SOL     OW61819   0.556   0.594  12.510
86641SOL    HW161820   0.482   0.575  12.452
86641SOL    HW261821   0.605   0.512  12.512
86642SOL     OW61822   1.712   1.937   5.031
86642SOL    HW161823   1.708   1.890   5.114
86642SOL    HW261824   1.672   2.022   5.048
86643SOL     OW61825   0.509   0.590   3.969
86643SOL    HW161826   0.515   0.682   3.944
86643SOL    HW261827   0.594   0.553   3.944
86644SOL     OW61828   1.614   2.235  13.237
86644SOL    HW161829   1.572   2.229  13.152
86644SOL    HW261830   1.651   2.148  13.252
86645SOL     OW61831   3.481   2.321  10.503
86645SOL    HW161832   3.520   2.383  10.441
86645SOL    HW261833   3.494   2.235  10.462
86646SOL     OW61834   4.653   8.443  13.847
86646SOL    HW161835   4.717   8.385  13.807
86646SOL    HW261836   4.682   8.531  13.824
86647SOL     OW61837   3.627  14.854   7.033
86647SOL    HW161838   3.558   0.031   6.999
86647SOL    HW261839   3.707   0.025   7.021
86648SOL     OW61840  11.262  10.608   9.593
86648SOL    HW161841  11.266  10.580   9.502
86648SOL    HW261842  11.315  10.543   9.640
86649SOL     OW61843  11.644   3.400   8.349
86649SOL    HW161844  11.719   3.411   8.408
86649SOL    HW261845  11.586   3.339   8.395
86650SOL     OW61846  10.089  10.354   4.854
86650SOL    HW161847  10.107  10.441   4.891
86650SOL    HW261848  10.033  10.312   4.920
86651SOL     OW61849   4.017  11.678   3.899
86651SOL    HW161850   4.051  11.678   3.989
86651SOL    HW261851   4.011  11.770   3.875
86652SOL     OW61852   9.046   0.709  13.477
86652SOL    HW161853   9.125   0.696  13.528
86652SOL    HW261854   8.997   0.776  13.525
86653SOL     OW61855   7.039   7.720   5.077
86653SOL    HW161856   7.083   7.644   5.042
86653SOL    HW261857   7.107   7.787   5.082
86654SOL     OW61858   9.108   7.711   3.953
86654SOL    HW161859   9.075   7.661   4.027
86654SOL    HW261860   9.059   7.677   3.878
86655SOL     OW61861  13.929   1.027   7.610
86655SOL    HW161862  13.974   1.108   7.634
86655SOL    HW261863  13.984   0.988   7.542
86656SOL     OW61864   5.641   5.589  12.051
86656SOL    HW161865   5.698   5.654  12.092
86656SOL    HW261866   5.676   5.580  11.962
86657SOL     OW61867   3.690   4.090   0.390
86657SOL    HW161868   3.651   4.041   0.463
86657SOL    HW261869   3.633   4.070   0.315
86658SOL     OW61870  12.900   7.272   0.560
86658SOL    HW161871  12.893   7.366   0.542
86658SOL    HW261872  12.988   7.249   0.531
86659SOL     OW61873  14.871   9.515  10.000
86659SOL    HW161874   0.072   9.465  10.002
86659SOL    HW261875  14.814   9.472  10.063
86660SOL     OW61876  14.134  11.376   5.322
86660SOL    HW161877  14.182  11.378   5.239
86660SOL    HW261878  14.064  11.313   5.308
86661SOL     OW61879   8.520   3.080   3.453
86661SOL    HW161880   8.502   3.132   3.532
86661SOL    HW261881   8.474   3.127   3.383
86662SOL     OW61882  14.697   8.311   2.884
86662SOL    HW161883  14.633   8.352   2.826
86662SOL    HW261884  14.659   8.320   2.971
86663SOL     OW61885   2.618   0.151  10.411
86663SOL    HW161886   2.583   0.235  10.383
86663SOL    HW261887   2.667   0.119  10.335
86664SOL     OW61888  11.889   2.244   1.489
86664SOL    HW161889  11.827   2.221   1.419
86664SOL    HW261890  11.962   2.285   1.443
86665SOL     OW61891   5.262  12.402   9.153
86665SOL    HW161892   5.253  12.473   9.090
86665SOL    HW261893   5.217  12.327   9.113
86666SOL     OW61894   5.066   3.834   9.852
86666SOL    HW161895   5.054   3.925   9.826
86666SOL    HW261896   4.980   3.794   9.843
86667SOL     OW61897   3.773   8.839  10.344
86667SOL    HW161898   3.837   8.878  10.285
86667SOL    HW261899   3.702   8.811  10.287
86668SOL     OW61900   0.771  12.371  10.793
86668SOL    HW161901   0.734  12.360  10.881
86668SOL    HW261902   0.828  12.448  10.800
86669SOL     OW61903  10.214   6.636  14.293
86669SOL    HW161904  10.236   6.695  14.220
86669SOL    HW261905  10.193   6.695  14.365
86670SOL     OW61906   6.870   6.579   7.668
86670SOL    HW161907   6.833   6.597   7.755
86670SOL    HW261908   6.919   6.497   7.680
86671SOL     OW61909   0.076   3.254  13.234
86671SOL    HW161910   0.091   3.240  13.327
86671SOL    HW261911   0.112   3.340  13.216
86672SOL     OW61912   2.751   0.884   8.504
86672SOL    HW161913   2.692   0.836   8.446
86672SOL    HW261914   2.792   0.949   8.447
86673SOL     OW61915   7.988   4.277   4.774
86673SOL    HW161916   8.068   4.265   4.824
86673SOL    HW261917   7.928   4.210   4.808
86674SOL     OW61918   6.228   6.224   4.682
86674SOL    HW161919   6.211   6.294   4.746
86674SOL    HW261920   6.276   6.268   4.612
86675SOL     OW61921  14.450   8.555  13.769
86675SOL    HW161922  14.452   8.460  13.754
86675SOL    HW261923  14.455   8.593  13.681
86676SOL     OW61924  12.085  14.656   8.089
86676SOL    HW161925  11.999  14.668   8.128
86676SOL    HW261926  12.134  14.604   8.153
86677SOL     OW61927   7.486   7.947  13.080
86677SOL    HW161928   7.546   7.932  13.154
86677SOL    HW261929   7.522   7.895  13.009
86678SOL     OW61930   8.360   0.823  10.050
86678SOL    HW161931   8.356   0.885  10.123
86678SOL    HW261932   8.296   0.857   9.987
86679SOL     OW61933   9.425   8.061   5.761
86679SOL    HW161934   9.344   8.094   5.801
86679SOL    HW261935   9.395   7.993   5.701
86680SOL     OW61936  12.071   5.554  13.669
86680SOL    HW161937  12.000   5.562  13.605
86680SOL    HW261938  12.026   5.541  13.753
86681SOL     OW61939   8.560  11.018   1.005
86681SOL    HW161940   8.473  10.980   1.018
86681SOL    HW261941   8.551  11.074   0.928
86682SOL     OW61942   8.146   9.345   1.694
86682SOL    HW161943   8.212   9.376   1.632
86682SOL    HW261944   8.193   9.281   1.748
86683SOL     OW61945   1.120   0.278   9.873
86683SOL    HW161946   1.095   0.199   9.825
86683SOL    HW261947   1.040   0.307   9.915
86684SOL     OW61948   5.413  10.700   1.088
86684SOL    HW161949   5.378  10.790   1.090
86684SOL    HW261950   5.420  10.676   1.180
86685SOL     OW61951   5.784  14.455   2.591
86685SOL    HW161952   5.775  14.539   2.636
86685SOL    HW261953   5.824  14.398   2.656
86686SOL     OW61954  13.472   2.437   1.374
86686SOL    HW161955  13.391   2.385   1.372
86686SOL    HW261956  13.443   2.527   1.387
86687SOL     OW61957  13.746  10.538   3.664
86687SOL    HW161958  13.675  10.586   3.708
86687SOL    HW261959  13.709  10.452   3.647
86688SOL     OW61960   6.190  13.279   8.325
86688SOL    HW161961   6.246  13.211   8.287
86688SOL    HW261962   6.177  13.252   8.416
86689SOL     OW61963  10.937   3.741   4.796
86689SOL    HW161964  10.880   3.697   4.733
86689SOL    HW261965  10.965   3.673   4.856
86690SOL     OW61966   2.551   6.670  13.881
86690SOL    HW161967   2.644   6.674  13.858
86690SOL    HW261968   2.526   6.761  13.893
86691SOL     OW61969   0.475   4.367   2.815
86691SOL    HW161970   0.536   4.415   2.870
86691SOL    HW261971   0.389   4.398   2.843
86692SOL     OW61972   3.309  11.777  12.994
86692SOL    HW161973   3.232  11.737  12.955
86692SOL    HW261974   3.347  11.830  12.923
86693SOL     OW61975   4.267   3.274  14.530
86693SOL    HW161976   4.296   3.340  14.467
86693SOL    HW261977   4.346   3.249  14.578
86694SOL     OW61978  11.424   9.433   7.501
86694SOL    HW161979  11.416   9.492   7.426
86694SOL    HW261980  11.449   9.491   7.573
86695SOL     OW61981   6.042   5.738   6.394
86695SOL    HW161982   6.078   5.662   6.348
86695SOL    HW261983   6.069   5.726   6.485
86696SOL     OW61984  12.147   0.477   9.790
86696SOL    HW161985  12.158   0.568   9.816
86696SOL    HW261986  12.209   0.464   9.718
86697SOL     OW61987   3.550   9.897   7.265
86697SOL    HW161988   3.484   9.869   7.201
86697SOL    HW261989   3.530   9.847   7.344
86698SOL     OW61990   3.697   0.884   9.392
86698SOL    HW161991   3.631   0.872   9.324
86698SOL    HW261992   3.649   0.868   9.474
86699SOL     OW61993   3.561  10.467   5.904
86699SOL    HW161994   3.587  10.376   5.918
86699SOL    HW261995   3.627  10.502   5.844
86700SOL     OW61996   4.773   8.262   0.039
86700SOL    HW161997   4.800   8.204  14.847
86700SOL    HW261998   4.774   8.349   0.001
86701SOL     OW61999  13.430   7.443  13.959
86701SOL    HW162000  13.510   7.404  13.924
86701SOL    HW262001  13.395   7.377  14.018
86702SOL     OW62002   8.681   6.153   5.155
86702SOL    HW162003   8.638   6.124   5.075
86702SOL    HW262004   8.613   6.196   5.206
86703SOL     OW62005   9.833  10.506   9.107
86703SOL    HW162006   9.881  10.432   9.071
86703SOL    HW262007   9.741  10.480   9.103
86704SOL     OW62008  14.311   4.591   5.891
86704SOL    HW162009  14.273   4.515   5.933
86704SOL    HW262010  14.378   4.555   5.832
86705SOL     OW62011   1.027  12.017   0.865
86705SOL    HW162012   1.086  12.003   0.939
86705SOL    HW262013   0.971  11.940   0.863
86706SOL     OW62014   6.387   7.069   7.710
86706SOL    HW162015   6.342   7.135   7.763
86706SOL    HW262016   6.455   7.034   7.767
86707SOL     OW62017   6.531   4.627  14.160
86707SOL    HW162018   6.551   4.719  14.177
86707SOL    HW262019   6.544   4.617  14.066
86708SOL     OW62020  10.345   2.137   6.776
86708SOL    HW162021  10.349   2.130   6.871
86708SOL    HW262022  10.436   2.143   6.748
86709SOL     OW62023   2.446   5.777  13.621
86709SOL    HW162024   2.444   5.720  13.544
86709SOL    HW262025   2.524   5.750  13.669
86710SOL     OW62026  13.869   9.592   7.844
86710SOL    HW162027  13.813   9.516   7.862
86710SOL    HW262028  13.861   9.646   7.923
86711SOL     OW62029   6.370   5.602  11.958
86711SOL    HW162030   6.421   5.682  11.948
86711SOL    HW262031   6.308   5.623  12.028
86712SOL     OW62032   3.754   4.947   9.759
86712SOL    HW162033   3.732   4.929   9.667
86712SOL    HW262034   3.762   4.861   9.799
86713SOL     OW62035   1.941  14.507  12.706
86713SOL    HW162036   2.025  14.547  12.682
86713SOL    HW262037   1.906  14.563  12.775
86714SOL     OW62038  10.555  10.035   8.375
86714SOL    HW162039  10.647  10.044   8.401
86714SOL    HW262040  10.560  10.008   8.283
86715SOL     OW62041   5.692  13.161  12.886
86715SOL    HW162042   5.756  13.133  12.952
86715SOL    HW262043   5.740  13.225  12.833
86716SOL     OW62044  10.093   7.435  12.724
86716SOL    HW162045  10.048   7.423  12.808
86716SOL    HW262046  10.042   7.383  12.662
86717SOL     OW62047   8.252  10.190  12.515
86717SOL    HW162048   8.256  10.281  12.544
86717SOL    HW262049   8.164  10.161  12.540
86718SOL     OW62050   6.367  14.464  11.004
86718SOL    HW162051   6.358  14.394  10.939
86718SOL    HW262052   6.310  14.534  10.972
86719SOL     OW62053  10.959   6.286   5.143
86719SOL    HW162054  10.990   6.343   5.073
86719SOL    HW262055  11.033   6.281   5.204
86720SOL     OW62056   3.483   0.282   9.270
86720SOL    HW162057   3.506   0.287   9.177
86720SOL    HW262058   3.556   0.236   9.311
86721SOL     OW62059  10.967  10.777  12.301
86721SOL    HW162060  10.968  10.741  12.390
86721SOL    HW262061  10.962  10.872  12.314
86722SOL     OW62062  11.672  14.356   1.921
86722SOL    HW162063  11.685  14.277   1.975
86722SOL    HW262064  11.692  14.327   1.832
86723SOL     OW62065  14.858   4.540   0.093
86723SOL    HW162066  14.878   4.577   0.007
86723SOL    HW262067  14.766   4.561   0.108
86724SOL     OW62068   1.478  11.257   6.498
86724SOL    HW162069   1.528  11.315   6.555
86724SOL    HW262070   1.387  11.275   6.522
86725SOL     OW62071   6.645   4.835  14.677
86725SOL    HW162072   6.572   4.894  14.697
86725SOL    HW262073   6.623   4.798  14.592
86726SOL     OW62074   1.237  10.839   8.706
86726SOL    HW162075   1.247  10.887   8.788
86726SOL    HW262076   1.316  10.785   8.700
86727SOL     OW62077  10.943   7.585   7.827
86727SOL    HW162078  10.935   7.672   7.865
86727SOL    HW262079  10.862   7.541   7.851
86728SOL     OW62080  14.878  11.070  14.538
86728SOL    HW162081   0.068  11.059  14.603
86728SOL    HW262082  14.806  11.108  14.588
86729SOL     OW62083  10.318   3.663   2.004
86729SOL    HW162084  10.362   3.612   1.936
86729SOL    HW262085  10.238   3.695   1.961
86730SOL     OW62086   3.382   9.573   2.334
86730SOL    HW162087   3.293   9.554   2.363
86730SOL    HW262088   3.372   9.598   2.243
86731SOL     OW62089   2.245  12.908   4.010
86731SOL    HW162090   2.262  12.977   3.945
86731SOL    HW262091   2.272  12.947   4.093
86732SOL     OW62092  10.318   4.706  10.647
86732SOL    HW162093  10.309   4.779  10.586
86732SOL    HW262094  10.284   4.630  10.599
86733SOL     OW62095  12.523  12.592   0.426
86733SOL    HW162096  12.513  12.510   0.378
86733SOL    HW262097  12.564  12.566   0.509
86734SOL     OW62098   6.845  13.116   7.265
86734SOL    HW162099   6.902  13.150   7.334
86734SOL    HW262100   6.902  13.111   7.188
86735SOL     OW62101   0.537   0.468   5.690
86735SOL    HW162102   0.509   0.416   5.764
86735SOL    HW262103   0.519   0.559   5.716
86736SOL     OW62104  11.261  13.104   6.364
86736SOL    HW162105  11.215  13.165   6.422
86736SOL    HW262106  11.320  13.160   6.313
86737SOL     OW62107   7.456  12.533   1.113
86737SOL    HW162108   7.481  12.442   1.131
86737SOL    HW262109   7.409  12.561   1.192
86738SOL     OW62110   5.216  14.060   7.863
86738SOL    HW162111   5.275  14.115   7.915
86738SOL    HW262112   5.168  14.121   7.808
86739SOL     OW62113   1.079   1.240   3.847
86739SOL    HW162114   1.172   1.232   3.825
86739SOL    HW262115   1.079   1.272   3.937
86740SOL     OW62116   8.014   2.507  12.892
86740SOL    HW162117   7.993   2.416  12.872
86740SOL    HW262118   8.110   2.510  12.888
86741SOL     OW62119  10.206   4.547   9.122
86741SOL    HW162120  10.230   4.503   9.040
86741SOL    HW262121  10.113   4.530   9.133
86742SOL     OW62122   9.607   3.658  14.313
86742SOL    HW162123   9.697   3.686  14.296
86742SOL    HW262124   9.580   3.707  14.391
86743SOL     OW62125   4.159  12.518   3.220
86743SOL    HW162126   4.075  12.556   3.248
86743SOL    HW262127   4.158  12.527   3.125
86744SOL     OW62128   3.378   2.146   8.226
86744SOL    HW162129   3.357   2.224   8.175
86744SOL    HW262130   3.371   2.174   8.317
86745SOL     OW62131   5.670   3.971  11.831
86745SOL    HW162132   5.727   4.047  11.830
86745SOL    HW262133   5.726   3.898  11.805
86746SOL     OW62134   0.841   1.663  10.784
86746SOL    HW162135   0.847   1.753  10.749
86746SOL    HW262136   0.754   1.658  10.822
86747SOL     OW62137   0.468   5.002   6.083
86747SOL    HW162138   0.475   5.004   5.988
86747SOL    HW262139   0.558   5.011   6.114
86748SOL     OW62140   9.503   1.870   1.008
86748SOL    HW162141   9.528   1.879   0.917
86748SOL    HW262142   9.421   1.920   1.015
86749SOL     OW62143   9.267   9.612  12.887
86749SOL    HW162144   9.217   9.539  12.924
86749SOL    HW262145   9.225   9.629  12.803
86750SOL     OW62146  13.798  10.671  11.877
86750SOL    HW162147  13.848  10.709  11.805
86750SOL    HW262148  13.864  10.623  11.928
86751SOL     OW62149   4.002   5.548   2.767
86751SOL    HW162150   4.097   5.540   2.758
86751SOL    HW262151   3.981   5.632   2.726
86752SOL     OW62152   2.360  10.382   6.350
86752SOL    HW162153   2.437  10.374   6.294
86752SOL    HW262154   2.301  10.313   6.321
86753SOL     OW62155   3.841  10.877  13.496
86753SOL    HW162156   3.813  10.936  13.426
86753SOL    HW262157   3.856  10.934  13.571
86754SOL     OW62158  10.766  10.058   6.543
86754SOL    HW162159  10.759  10.143   6.500
86754SOL    HW262160  10.824  10.007   6.487
86755SOL     OW62161   6.522  10.304  14.545
86755SOL    HW162162   6.457  10.277  14.610
86755SOL    HW262163   6.604  10.312  14.594
86756SOL     OW62164   8.015   1.652   6.309
86756SOL    HW162165   7.936   1.599   6.298
86756SOL    HW262166   8.087   1.589   6.300
86757SOL     OW62167   9.741   6.274   6.073
86757SOL    HW162168   9.770   6.362   6.049
86757SOL    HW262169   9.794   6.251   6.150
86758SOL     OW62170   5.354   0.423  11.450
86758SOL    HW162171   5.280   0.389  11.500
86758SOL    HW262172   5.430   0.373  11.482
86759SOL     OW62173   6.107   2.594   7.057
86759SOL    HW162174   6.065   2.569   7.139
86759SOL    HW262175   6.036   2.598   6.993
86760SOL     OW62176  11.940   1.464  13.380
86760SOL    HW162177  11.971   1.500  13.464
86760SOL    HW262178  11.893   1.537  13.339
86761SOL     OW62179  11.142   3.470  14.022
86761SOL    HW162180  11.209   3.536  14.040
86761SOL    HW262181  11.067   3.498  14.075
86762SOL     OW62182   4.499  14.412   2.474
86762SOL    HW162183   4.487  14.356   2.550
86762SOL    HW262184   4.431  14.479   2.482
86763SOL     OW62185   6.921   1.624   4.116
86763SOL    HW162186   6.938   1.581   4.033
86763SOL    HW262187   6.898   1.714   4.093
86764SOL     OW62188   1.414   9.331   8.367
86764SOL    HW162189   1.449   9.355   8.453
86764SOL    HW262190   1.454   9.246   8.348
86765SOL     OW62191   4.947   5.276   2.881
86765SOL    HW162192   4.960   5.224   2.960
86765SOL    HW262193   4.881   5.341   2.906
86766SOL     OW62194  11.790  10.843   1.225
86766SOL    HW162195  11.706  10.848   1.271
86766SOL    HW262196  11.766  10.834   1.133
86767SOL     OW62197   8.255  11.394   1.299
86767SOL    HW162198   8.194  11.351   1.240
86767SOL    HW262199   8.287  11.324   1.356
86768SOL     OW62200   1.159   4.198   1.262
86768SOL    HW162201   1.084   4.233   1.214
86768SOL    HW262202   1.235   4.236   1.218
86769SOL     OW62203   4.034   7.515   2.695
86769SOL    HW162204   4.039   7.437   2.750
86769SOL    HW262205   4.001   7.483   2.611
86770SOL     OW62206  13.330   2.988   7.533
86770SOL    HW162207  13.315   2.957   7.444
86770SOL    HW262208  13.273   2.934   7.588
86771SOL     OW62209  14.294   3.828   5.245
86771SOL    HW162210  14.304   3.905   5.189
86771SOL    HW262211  14.276   3.864   5.332
86772SOL     OW62212   8.039   6.122  10.124
86772SOL    HW162213   7.994   6.134  10.040
86772SOL    HW262214   8.014   6.199  10.175
86773SOL     OW62215   2.920  14.264   7.218
86773SOL    HW162216   2.959  14.351   7.210
86773SOL    HW262217   2.827  14.281   7.233
86774SOL     OW62218   3.763   1.686   2.822
86774SOL    HW162219   3.796   1.771   2.853
86774SOL    HW262220   3.820   1.621   2.864
86775SOL     OW62221   4.977   2.204  11.149
86775SOL    HW162222   5.020   2.120  11.167
86775SOL    HW262223   4.886   2.189  11.174
86776SOL     OW62224  13.092  13.985   0.156
86776SOL    HW162225  13.078  14.032   0.238
86776SOL    HW262226  13.014  13.929   0.147
86777SOL     OW62227   0.125   1.815   6.757
86777SOL    HW162228   0.129   1.875   6.832
86777SOL    HW262229   0.156   1.868   6.683
86778SOL     OW62230  11.298   6.394  13.103
86778SOL    HW162231  11.251   6.410  13.185
86778SOL    HW262232  11.385   6.432  13.116
86779SOL     OW62233  12.574   5.407   6.616
86779SOL    HW162234  12.613   5.494   6.616
86779SOL    HW262235  12.489   5.419   6.659
86780SOL     OW62236   7.849   5.221   3.259
86780SOL    HW162237   7.856   5.126   3.253
86780SOL    HW262238   7.823   5.238   3.350
86781SOL     OW62239   4.051  14.356  12.675
86781SOL    HW162240   4.140  14.343  12.709
86781SOL    HW262241   4.025  14.442  12.710
86782SOL     OW62242   0.497   2.722   0.299
86782SOL    HW162243   0.558   2.741   0.370
86782SOL    HW262244   0.444   2.802   0.291
86783SOL     OW62245   4.026  11.257  10.102
86783SOL    HW162246   4.094  11.293  10.160
86783SOL    HW262247   4.073  11.230  10.024
86784SOL     OW62248   6.675   9.203  14.275
86784SOL    HW162249   6.644   9.112  14.280
86784SOL    HW262250   6.679   9.232  14.367
86785SOL     OW62251   4.854   2.195  10.344
86785SOL    HW162252   4.807   2.239  10.274
86785SOL    HW262253   4.849   2.256  10.418
86786SOL     OW62254   0.590   6.576  14.638
86786SOL    HW162255   0.581   6.513  14.711
86786SOL    HW262256   0.647   6.532  14.576
86787SOL     OW62257  10.772  12.294  14.794
86787SOL    HW162258  10.733  12.218  14.836
86787SOL    HW262259  10.855  12.262  14.757
86788SOL     OW62260   4.503   1.493   2.079
86788SOL    HW162261   4.528   1.578   2.115
86788SOL    HW262262   4.477   1.512   1.989
86789SOL     OW62263  10.081  13.276   2.552
86789SOL    HW162264  10.020  13.343   2.583
86789SOL    HW262265  10.105  13.304   2.464
86790SOL     OW62266   0.870   3.571  14.728
86790SOL    HW162267   0.871   3.636  14.799
86790SOL    HW262268   0.930   3.607  14.662
86791SOL     OW62269   1.628   1.201   7.476
86791SOL    HW162270   1.631   1.165   7.564
86791SOL    HW262271   1.691   1.273   7.477
86792SOL     OW62272   7.741   1.510   8.624
86792SOL    HW162273   7.711   1.426   8.659
86792SOL    HW262274   7.741   1.498   8.529
86793SOL     OW62275  14.026  11.388   1.356
86793SOL    HW162276  13.942  11.421   1.391
86793SOL    HW262277  14.006  11.361   1.267
86794SOL     OW62278  13.072   8.808   1.489
86794SOL    HW162279  12.983   8.834   1.463
86794SOL    HW262280  13.065   8.790   1.583
86795SOL     OW62281   9.354  11.355   9.278
86795SOL    HW162282   9.383  11.345   9.368
86795SOL    HW262283   9.430  11.328   9.225
86796SOL     OW62284  14.156   3.718  10.037
86796SOL    HW162285  14.239   3.698   9.995
86796SOL    HW262286  14.105   3.637  10.028
86797SOL     OW62287   0.779  10.151   2.930
86797SOL    HW162288   0.762  10.121   3.020
86797SOL    HW262289   0.741  10.239   2.927
86798SOL     OW62290  14.802   5.970   6.567
86798SOL    HW162291  14.770   6.018   6.644
86798SOL    HW262292   0.001   6.019   6.540
86799SOL     OW62293   4.090   6.540  13.131
86799SOL    HW162294   4.014   6.483  13.116
86799SOL    HW262295   4.091   6.554  13.226
86800SOL     OW62296  14.631   5.247   6.125
86800SOL    HW162297  14.553   5.211   6.167
86800SOL    HW262298  14.702   5.223   6.184
86801SOL     OW62299   7.643   0.472  13.166
86801SOL    HW162300   7.565   0.417  13.164
86801SOL    HW262301   7.684   0.453  13.250
86802SOL     OW62302   7.623   0.837  11.720
86802SOL    HW162303   7.564   0.853  11.646
86802SOL    HW262304   7.705   0.880  11.696
86803SOL     OW62305  11.486   6.831   4.768
86803SOL    HW162306  11.529   6.836   4.683
86803SOL    HW262307  11.393   6.836   4.748
86804SOL     OW62308   7.871   4.150  11.240
86804SOL    HW162309   7.952   4.152  11.189
86804SOL    HW262310   7.817   4.220  11.204
86805SOL     OW62311   1.644   8.623   6.619
86805SOL    HW162312   1.691   8.652   6.698
86805SOL    HW262313   1.617   8.534   6.639
86806SOL     OW62314   0.623   9.954   1.698
86806SOL    HW162315   0.700   9.897   1.699
86806SOL    HW262316   0.553   9.899   1.661
86807SOL     OW62317   7.602   2.030   7.848
86807SOL    HW162318   7.556   2.063   7.771
86807SOL    HW262319   7.602   1.935   7.838
86808SOL     OW62320   4.944  11.080  13.612
86808SOL    HW162321   4.883  11.110  13.679
86808SOL    HW262322   4.889  11.058  13.537
86809SOL     OW62323   2.417  11.846  12.884
86809SOL    HW162324   2.390  11.908  12.952
86809SOL    HW262325   2.379  11.762  12.912
86810SOL     OW62326   3.790   8.293  14.730
86810SOL    HW162327   3.780   8.203  14.762
86810SOL    HW262328   3.820   8.342  14.806
86811SOL     OW62329   0.201   9.493  10.505
86811SOL    HW162330   0.125   9.440  10.481
86811SOL    HW262331   0.196   9.569  10.448
86812SOL     OW62332   5.271   0.346   2.979
86812SOL    HW162333   5.195   0.294   2.956
86812SOL    HW262334   5.291   0.320   3.069
86813SOL     OW62335   0.927   1.282   3.112
86813SOL    HW162336   0.947   1.196   3.074
86813SOL    HW262337   0.854   1.266   3.171
86814SOL     OW62338   6.138   4.958   9.834
86814SOL    HW162339   6.102   4.976   9.747
86814SOL    HW262340   6.231   4.939   9.817
86815SOL     OW62341   8.997   2.264   0.075
86815SOL    HW162342   8.939   2.333   0.110
86815SOL    HW262343   9.037   2.304  14.878
86816SOL     OW62344   2.626   6.220   2.141
86816SOL    HW162345   2.550   6.238   2.196
86816SOL    HW262346   2.608   6.267   2.059
86817SOL     OW62347  11.306   4.402   3.046
86817SOL    HW162348  11.250   4.478   3.035
86817SOL    HW262349  11.355   4.396   2.964
86818SOL     OW62350   4.684   6.818  11.837
86818SOL    HW162351   4.776   6.845  11.835
86818SOL    HW262352   4.672   6.778  11.923
86819SOL     OW62353   6.445   2.549  14.785
86819SOL    HW162354   6.539   2.535  14.781
86819SOL    HW262355   6.421   2.578  14.697
86820SOL     OW62356   0.062   8.634   2.243
86820SOL    HW162357   0.086   8.716   2.201
86820SOL    HW262358   0.146   8.595   2.269
86821SOL     OW62359   1.403   2.177   9.591
86821SOL    HW162360   1.479   2.220   9.551
86821SOL    HW262361   1.416   2.084   9.573
86822SOL     OW62362   9.587  10.300  11.646
86822SOL    HW162363   9.646  10.251  11.588
86822SOL    HW262364   9.603  10.392  11.623
86823SOL     OW62365   6.253   6.153  11.090
86823SOL    HW162366   6.259   6.132  10.997
86823SOL    HW262367   6.264   6.248  11.095
86824SOL     OW62368  10.270  11.309   3.615
86824SOL    HW162369  10.347  11.254   3.633
86824SOL    HW262370  10.285  11.341   3.526
86825SOL     OW62371   3.893   0.316   3.906
86825SOL    HW162372   3.867   0.273   3.825
86825SOL    HW262373   3.929   0.400   3.878
86826SOL     OW62374  10.928  10.097   1.567
86826SOL    HW162375  10.870  10.035   1.523
86826SOL    HW262376  11.016  10.061   1.556
86827SOL     OW62377   9.271   9.531   3.018
86827SOL    HW162378   9.314   9.448   3.035
86827SOL    HW262379   9.249   9.565   3.105
86828SOL     OW62380  13.705  12.968  13.835
86828SOL    HW162381  13.630  12.924  13.794
86828SOL    HW262382  13.699  13.058  13.804
86829SOL     OW62383   7.821   2.821  13.499
86829SOL    HW162384   7.915   2.833  13.487
86829SOL    HW262385   7.780   2.882  13.438
86830SOL     OW62386   0.030   0.443   2.063
86830SOL    HW162387   0.009   0.372   2.124
86830SOL    HW262388   0.123   0.432   2.043
86831SOL     OW62389   0.166   5.076   5.136
86831SOL    HW162390   0.136   5.138   5.202
86831SOL    HW262391   0.107   5.089   5.062
86832SOL     OW62392   2.263  14.647   3.991
86832SOL    HW162393   2.203  14.705   4.036
86832SOL    HW262394   2.350  14.682   4.010
86833SOL     OW62395   9.493  10.053   3.452
86833SOL    HW162396   9.506  10.044   3.358
86833SOL    HW262397   9.578  10.030   3.490
86834SOL     OW62398   5.252   0.246   6.290
86834SOL    HW162399   5.207   0.311   6.343
86834SOL    HW262400   5.198   0.237   6.211
86835SOL     OW62401  13.718  14.050   6.688
86835SOL    HW162402  13.804  14.021   6.658
86835SOL    HW262403  13.664  13.971   6.686
86836SOL     OW62404   8.192  13.376  14.159
86836SOL    HW162405   8.140  13.427  14.097
86836SOL    HW262406   8.280  13.374  14.120
86837SOL     OW62407   0.546   9.933   5.335
86837SOL    HW162408   0.537   9.979   5.418
86837SOL    HW262409   0.585   9.997   5.275
86838SOL     OW62410  14.562  12.296  13.009
86838SOL    HW162411  14.492  12.268  12.950
86838SOL    HW262412  14.598  12.375  12.968
86839SOL     OW62413   7.891  10.579  13.476
86839SOL    HW162414   7.813  10.625  13.508
86839SOL    HW262415   7.964  10.634  13.502
86840SOL     OW62416   6.718   4.787   9.065
86840SOL    HW162417   6.631   4.793   9.104
86840SOL    HW262418   6.706   4.733   8.987
86841SOL     OW62419  13.669   4.847  12.726
86841SOL    HW162420  13.633   4.920  12.776
86841SOL    HW262421  13.653   4.870  12.634
86842SOL     OW62422   3.589  14.551   0.478
86842SOL    HW162423   3.521  14.574   0.541
86842SOL    HW262424   3.641  14.485   0.522
86843SOL     OW62425  14.635   2.722   4.423
86843SOL    HW162426  14.543   2.711   4.399
86843SOL    HW262427  14.655   2.812   4.397
86844SOL     OW62428   3.267   3.036   9.721
86844SOL    HW162429   3.276   2.956   9.771
86844SOL    HW262430   3.350   3.082   9.732
86845SOL     OW62431  10.855  14.386   4.604
86845SOL    HW162432  10.948  14.368   4.590
86845SOL    HW262433  10.824  14.420   4.521
86846SOL     OW62434   9.070   9.740   6.572
86846SOL    HW162435   9.083   9.830   6.544
86846SOL    HW262436   9.147   9.719   6.625
86847SOL     OW62437   8.701   0.566  12.693
86847SOL    HW162438   8.708   0.562  12.597
86847SOL    HW262439   8.721   0.657  12.715
86848SOL     OW62440   4.580   2.242   4.077
86848SOL    HW162441   4.535   2.180   4.134
86848SOL    HW262442   4.510   2.299   4.043
86849SOL     OW62443   6.991   4.357   6.941
86849SOL    HW162444   7.050   4.410   6.994
86849SOL    HW262445   7.001   4.392   6.852
86850SOL     OW62446   9.737   8.508   1.581
86850SOL    HW162447   9.784   8.511   1.665
86850SOL    HW262448   9.772   8.582   1.532
86851SOL     OW62449   1.451  12.190  10.097
86851SOL    HW162450   1.499  12.241  10.032
86851SOL    HW262451   1.366  12.173  10.057
86852SOL     OW62452  14.389   5.504   0.131
86852SOL    HW162453  14.439   5.424   0.116
86852SOL    HW262454  14.450   5.562   0.177
86853SOL     OW62455   2.842  11.627   3.646
86853SOL    HW162456   2.913  11.687   3.627
86853SOL    HW262457   2.785  11.630   3.569
86854SOL     OW62458   2.521  14.449   3.362
86854SOL    HW162459   2.429  14.448   3.337
86854SOL    HW262460   2.521  14.483   3.452
86855SOL     OW62461   1.167   6.129   8.586
86855SOL    HW162462   1.186   6.081   8.667
86855SOL    HW262463   1.251   6.133   8.540
86856SOL     OW62464  10.234  14.470   8.351
86856SOL    HW162465  10.217  14.520   8.431
86856SOL    HW262466  10.213  14.380   8.374
86857SOL     OW62467   2.164  12.790   5.703
86857SOL    HW162468   2.131  12.844   5.632
86857SOL    HW262469   2.235  12.739   5.664
86858SOL     OW62470  10.204   7.232  12.409
86858SOL    HW162471  10.244   7.308  12.369
86858SOL    HW262472  10.258   7.158  12.382
86859SOL     OW62473   3.511  14.786   4.958
86859SOL    HW162474   3.526  14.693   4.977
86859SOL    HW262475   3.587  14.812   4.905
86860SOL     OW62476   4.141  14.348   1.412
86860SOL    HW162477   4.172  14.302   1.490
86860SOL    HW262478   4.048  14.327   1.408
86861SOL     OW62479  13.798   9.155  13.678
86861SOL    HW162480  13.820   9.189  13.765
86861SOL    HW262481  13.707   9.182  13.664
86862SOL     OW62482   3.128   9.867  12.329
86862SOL    HW162483   3.050   9.852  12.384
86862SOL    HW262484   3.096   9.919  12.256
86863SOL     OW62485   4.223   6.089   5.904
86863SOL    HW162486   4.268   6.111   5.823
86863SOL    HW262487   4.268   6.010   5.936
86864SOL     OW62488   4.872  13.070   8.968
86864SOL    HW162489   4.866  12.985   9.012
86864SOL    HW262490   4.785  13.108   8.977
86865SOL     OW62491   9.320   7.496  10.614
86865SOL    HW162492   9.315   7.563  10.681
86865SOL    HW262493   9.368   7.537  10.542
86866SOL     OW62494  13.562   6.958   6.017
86866SOL    HW162495  13.534   7.049   6.021
86866SOL    HW262496  13.559   6.935   5.924
86867SOL     OW62497   2.012  10.160  12.586
86867SOL    HW162498   1.937  10.209  12.618
86867SOL    HW262499   1.974  10.085  12.540
86868SOL     OW62500   2.285   1.043   8.333
86868SOL    HW162501   2.326   1.102   8.396
86868SOL    HW262502   2.318   0.956   8.357
86869SOL     OW62503   6.600   4.164   1.590
86869SOL    HW162504   6.672   4.222   1.613
86869SOL    HW262505   6.636   4.108   1.521
86870SOL     OW62506   3.992   4.557  11.445
86870SOL    HW162507   4.054   4.628  11.428
86870SOL    HW262508   3.956   4.578  11.531
86871SOL     OW62509  14.311   0.831   3.246
86871SOL    HW162510  14.309   0.761   3.312
86871SOL    HW262511  14.259   0.902   3.285
86872SOL     OW62512   5.304   6.421  12.633
86872SOL    HW162513   5.384   6.468  12.654
86872SOL    HW262514   5.280   6.452  12.545
86873SOL     OW62515   7.266   2.052   6.415
86873SOL    HW162516   7.218   1.998   6.352
86873SOL    HW262517   7.218   2.041   6.497
86874SOL     OW62518   0.644  10.023   9.901
86874SOL    HW162519   0.633   9.928   9.910
86874SOL    HW262520   0.650  10.054   9.991
86875SOL     OW62521   4.593  14.467   0.248
86875SOL    HW162522   4.617  14.524   0.321
86875SOL    HW262523   4.656  14.488   0.179
86876SOL     OW62524   1.628   5.643   8.295
86876SOL    HW162525   1.616   5.614   8.205
86876SOL    HW262526   1.651   5.736   8.288
86877SOL     OW62527   9.857  12.778   0.761
86877SOL    HW162528   9.787  12.713   0.760
86877SOL    HW262529   9.847  12.823   0.844
86878SOL     OW62530  14.348   8.121   1.642
86878SOL    HW162531  14.257   8.148   1.628
86878SOL    HW262532  14.401   8.191   1.604
86879SOL     OW62533   4.003   2.586  11.013
86879SOL    HW162534   4.011   2.673  11.052
86879SOL    HW262535   4.030   2.598  10.922
86880SOL     OW62536   8.372  10.151   4.367
86880SOL    HW162537   8.378  10.240   4.402
86880SOL    HW262538   8.364  10.163   4.273
86881SOL     OW62539   9.579  11.381  10.853
86881SOL    HW162540   9.627  11.460  10.881
86881SOL    HW262541   9.623  11.309  10.898
86882SOL     OW62542   8.491   5.801   1.564
86882SOL    HW162543   8.432   5.866   1.601
86882SOL    HW262544   8.570   5.806   1.617
86883SOL     OW62545   3.171   6.386   3.697
86883SOL    HW162546   3.100   6.450   3.689
86883SOL    HW262547   3.202   6.374   3.607
86884SOL     OW62548   8.739   6.580  14.710
86884SOL    HW162549   8.763   6.488  14.701
86884SOL    HW262550   8.818   6.622  14.743
86885SOL     OW62551   1.899   4.351   7.613
86885SOL    HW162552   1.850   4.407   7.553
86885SOL    HW262553   1.982   4.396   7.626
86886SOL     OW62554   3.778   8.956   3.736
86886SOL    HW162555   3.863   8.919   3.709
86886SOL    HW262556   3.745   8.999   3.657
86887SOL     OW62557  11.182  14.403  14.075
86887SOL    HW162558  11.227  14.321  14.053
86887SOL    HW262559  11.122  14.417  14.002
86888SOL     OW62560  11.438   1.075  11.095
86888SOL    HW162561  11.443   0.991  11.141
86888SOL    HW262562  11.357   1.115  11.126
86889SOL     OW62563   0.629  10.904   9.421
86889SOL    HW162564   0.570  10.912   9.496
86889SOL    HW262565   0.600  10.971   9.360
86890SOL     OW62566  13.709   8.405   9.541
86890SOL    HW162567  13.729   8.469   9.474
86890SOL    HW262568  13.763   8.430   9.616
86891SOL     OW62569   3.234   6.802   5.615
86891SOL    HW162570   3.258   6.761   5.532
86891SOL    HW262571   3.202   6.729   5.669
86892SOL     OW62572   5.337   7.535   7.653
86892SOL    HW162573   5.391   7.576   7.719
86892SOL    HW262574   5.266   7.493   7.702
86893SOL     OW62575   3.596   2.528   9.823
86893SOL    HW162576   3.594   2.447   9.873
86893SOL    HW262577   3.554   2.507   9.740
86894SOL     OW62578  13.290  11.821   7.559
86894SOL    HW162579  13.336  11.830   7.643
86894SOL    HW262580  13.205  11.863   7.574
86895SOL     OW62581   5.595  10.382   2.569
86895SOL    HW162582   5.547  10.393   2.487
86895SOL    HW262583   5.539  10.324   2.622
86896SOL     OW62584   4.192   7.769   7.740
86896SOL    HW162585   4.244   7.823   7.680
86896SOL    HW262586   4.143   7.710   7.682
86897SOL     OW62587   2.610   9.306   1.941
86897SOL    HW162588   2.686   9.341   1.988
86897SOL    HW262589   2.539   9.309   2.005
86898SOL     OW62590   8.081  14.683   7.882
86898SOL    HW162591   8.036  14.634   7.951
86898SOL    HW262592   8.106  14.766   7.923
86899SOL     OW62593   8.834  11.366   2.947
86899SOL    HW162594   8.757  11.387   2.895
86899SOL    HW262595   8.836  11.434   3.015
86900SOL     OW62596   0.934   3.466  10.035
86900SOL    HW162597   0.942   3.534   9.969
86900SOL    HW262598   0.894   3.510  10.110
86901SOL     OW62599   3.219   9.139   4.940
86901SOL    HW162600   3.278   9.210   4.966
86901SOL    HW262601   3.250   9.063   4.990
86902SOL     OW62602   7.387  14.875   9.352
86902SOL    HW162603   7.309  14.819   9.361
86902SOL    HW262604   7.357   0.082   9.380
86903SOL     OW62605   8.236   5.575   6.896
86903SOL    HW162606   8.181   5.582   6.817
86903SOL    HW262607   8.242   5.665   6.929
86904SOL     OW62608   1.310  13.003   6.979
86904SOL    HW162609   1.243  13.066   6.953
86904SOL    HW262610   1.262  12.938   7.031
86905SOL     OW62611   9.408  11.508  13.490
86905SOL    HW162612   9.476  11.443  13.505
86905SOL    HW262613   9.366  11.520  13.575
86906SOL     OW62614   8.050  11.389  11.508
86906SOL    HW162615   8.139  11.398  11.473
86906SOL    HW262616   8.051  11.442  11.588
86907SOL     OW62617  11.314   2.493  13.301
86907SOL    HW162618  11.369   2.463  13.374
86907SOL    HW262619  11.232   2.521  13.343
86908SOL     OW62620  12.185   3.264   1.720
86908SOL    HW162621  12.145   3.351   1.715
86908SOL    HW262622  12.235   3.257   1.638
86909SOL     OW62623   9.657  12.795   7.567
86909SOL    HW162624   9.580  12.844   7.540
86909SOL    HW262625   9.686  12.750   7.488
86910SOL     OW62626  13.820   6.932   0.388
86910SOL    HW162627  13.830   6.899   0.299
86910SOL    HW262628  13.821   7.028   0.378
86911SOL     OW62629   5.312   6.749   4.375
86911SOL    HW162630   5.236   6.708   4.414
86911SOL    HW262631   5.298   6.742   4.280
86912SOL     OW62632  14.475  10.253   9.733
86912SOL    HW162633  14.444  10.324   9.788
86912SOL    HW262634  14.449  10.173   9.779
86913SOL     OW62635  10.830  13.600   8.436
86913SOL    HW162636  10.746  13.560   8.458
86913SOL    HW262637  10.819  13.692   8.462
86914SOL     OW62638   9.530  13.893   3.363
86914SOL    HW162639   9.620  13.925   3.358
86914SOL    HW262640   9.477  13.972   3.372
86915SOL     OW62641   1.042  14.529  12.848
86915SOL    HW162642   1.014  14.462  12.785
86915SOL    HW262643   1.043  14.610  12.798
86916SOL     OW62644   5.048   5.400   9.820
86916SOL    HW162645   5.093   5.439   9.895
86916SOL    HW262646   4.995   5.330   9.857
86917SOL     OW62647   6.901   7.810   8.450
86917SOL    HW162648   6.939   7.783   8.366
86917SOL    HW262649   6.937   7.750   8.514
86918SOL     OW62650   9.787  13.771   1.772
86918SOL    HW162651   9.749  13.768   1.684
86918SOL    HW262652   9.861  13.710   1.768
86919SOL     OW62653  11.665   8.059  10.535
86919SOL    HW162654  11.596   7.994  10.540
86919SOL    HW262655  11.676   8.090  10.624
86920SOL     OW62656  10.295   5.261   0.951
86920SOL    HW162657  10.374   5.208   0.963
86920SOL    HW262658  10.239   5.209   0.894
86921SOL     OW62659   4.116   5.643   7.698
86921SOL    HW162660   4.130   5.616   7.788
86921SOL    HW262661   4.085   5.733   7.704
86922SOL     OW62662  11.690   2.270   7.684
86922SOL    HW162663  11.647   2.197   7.727
86922SOL    HW262664  11.689   2.340   7.749
86923SOL     OW62665   7.593   2.099   5.006
86923SOL    HW162666   7.686   2.082   5.001
86923SOL    HW262667   7.566   2.066   5.092
86924SOL     OW62668   9.830  12.678   3.723
86924SOL    HW162669   9.834  12.727   3.805
86924SOL    HW262670   9.904  12.710   3.672
86925SOL     OW62671  13.105   7.004   8.187
86925SOL    HW162672  13.101   7.100   8.180
86925SOL    HW262673  13.095   6.988   8.281
86926SOL     OW62674  14.324   7.483   3.724
86926SOL    HW162675  14.292   7.395   3.740
86926SOL    HW262676  14.416   7.472   3.699
86927SOL     OW62677   5.684  11.285   6.458
86927SOL    HW162678   5.763  11.299   6.408
86927SOL    HW262679   5.613  11.318   6.402
86928SOL     OW62680  12.914  11.614   7.037
86928SOL    HW162681  12.826  11.577   7.035
86928SOL    HW262682  12.971  11.541   7.010
86929SOL     OW62683   1.866   8.509   5.948
86929SOL    HW162684   1.921   8.554   5.885
86929SOL    HW262685   1.794   8.473   5.896
86930SOL     OW62686  14.402   2.950  12.413
86930SOL    HW162687  14.395   2.994  12.328
86930SOL    HW262688  14.429   3.019  12.474
86931SOL     OW62689   2.182   1.837   1.585
86931SOL    HW162690   2.213   1.752   1.556
86931SOL    HW262691   2.181   1.891   1.506
86932SOL     OW62692   8.215   8.543   1.012
86932SOL    HW162693   8.257   8.466   0.974
86932SOL    HW262694   8.187   8.595   0.937
86933SOL     OW62695   4.547   9.016   3.043
86933SOL    HW162696   4.593   9.086   2.997
86933SOL    HW262697   4.467   9.058   3.076
86934SOL     OW62698   6.852   1.093   1.741
86934SOL    HW162699   6.895   1.053   1.817
86934SOL    HW262700   6.819   1.176   1.774
86935SOL     OW62701   4.294   8.317   8.543
86935SOL    HW162702   4.215   8.284   8.585
86935SOL    HW262703   4.366   8.281   8.594
86936SOL     OW62704  14.452  10.080   1.432
86936SOL    HW162705  14.440  10.024   1.508
86936SOL    HW262706  14.506  10.029   1.373
86937SOL     OW62707  13.011   9.209   1.323
86937SOL    HW162708  13.097   9.179   1.295
86937SOL    HW262709  13.021   9.227   1.416
86938SOL     OW62710  11.488  11.036  11.980
86938SOL    HW162711  11.451  10.950  11.963
86938SOL    HW262712  11.414  11.096  11.970
86939SOL     OW62713  12.638   6.537   9.669
86939SOL    HW162714  12.712   6.593   9.693
86939SOL    HW262715  12.637   6.468   9.735
86940SOL     OW62716   9.189   6.016   3.786
86940SOL    HW162717   9.235   6.029   3.869
86940SOL    HW262718   9.125   6.087   3.783
86941SOL     OW62719   1.022   5.765  11.380
86941SOL    HW162720   1.097   5.784  11.324
86941SOL    HW262721   1.056   5.768  11.469
86942SOL     OW62722   2.055  10.881  10.490
86942SOL    HW162723   2.082  10.934  10.565
86942SOL    HW262724   2.070  10.791  10.517
86943SOL     OW62725   2.851   5.518   2.079
86943SOL    HW162726   2.802   5.536   2.159
86943SOL    HW262727   2.814   5.436   2.046
86944SOL     OW62728   5.069  14.681   4.125
86944SOL    HW162729   5.030  14.682   4.038
86944SOL    HW262730   5.029  14.755   4.170
86945SOL     OW62731   3.623   9.482   2.319
86945SOL    HW162732   3.535   9.518   2.309
86945SOL    HW262733   3.670   9.547   2.371
86946SOL     OW62734  14.825   5.391   3.192
86946SOL    HW162735   0.027   5.365   3.234
86946SOL    HW262736  14.757   5.356   3.248
86947SOL     OW62737   1.417   1.869   8.812
86947SOL    HW162738   1.469   1.882   8.891
86947SOL    HW262739   1.466   1.914   8.743
86948SOL     OW62740   6.894  10.203   8.606
86948SOL    HW162741   6.873  10.165   8.691
86948SOL    HW262742   6.894  10.129   8.545
86949SOL     OW62743   1.863   8.263   2.553
86949SOL    HW162744   1.872   8.171   2.578
86949SOL    HW262745   1.907   8.311   2.623
86950SOL     OW62746   5.949  11.124   2.053
86950SOL    HW162747   5.893  11.059   2.094
86950SOL    HW262748   5.892  11.200   2.039
86951SOL     OW62749  13.714   1.672   4.222
86951SOL    HW162750  13.627   1.705   4.199
86951SOL    HW262751  13.702   1.632   4.308
86952SOL     OW62752   9.187   1.293   7.407
86952SOL    HW162753   9.264   1.251   7.444
86952SOL    HW262754   9.221   1.372   7.365
86953SOL     OW62755   2.764  11.367   1.782
86953SOL    HW162756   2.803  11.279   1.778
86953SOL    HW262757   2.670  11.351   1.779
86954SOL     OW62758   5.104   0.893  14.427
86954SOL    HW162759   5.174   0.828  14.434
86954SOL    HW262760   5.089   0.922  14.517
86955SOL     OW62761  13.667   6.964   6.528
86955SOL    HW162762  13.653   7.018   6.606
86955SOL    HW262763  13.613   6.886   6.544
86956SOL     OW62764   2.163   2.091  12.667
86956SOL    HW162765   2.119   2.150  12.728
86956SOL    HW262766   2.223   2.040  12.722
86957SOL     OW62767   0.874   1.181   9.467
86957SOL    HW162768   0.848   1.128   9.392
86957SOL    HW262769   0.858   1.125   9.543
86958SOL     OW62770   1.187   0.294  11.633
86958SOL    HW162771   1.130   0.218  11.629
86958SOL    HW262772   1.196   0.321  11.541
86959SOL     OW62773   9.074   6.295   0.799
86959SOL    HW162774   8.979   6.285   0.810
86959SOL    HW262775   9.111   6.273   0.884
86960SOL     OW62776   6.135   0.358  11.325
86960SOL    HW162777   6.059   0.405  11.290
86960SOL    HW262778   6.116   0.266  11.310
86961SOL     OW62779  11.952  14.836   7.794
86961SOL    HW162780  11.901  14.763   7.757
86961SOL    HW262781  11.886   0.016   7.829
86962SOL     OW62782  10.342   6.226  12.651
86962SOL    HW162783  10.387   6.146  12.622
86962SOL    HW262784  10.412   6.291  12.660
86963SOL     OW62785  14.189   3.120   1.465
86963SOL    HW162786  14.112   3.133   1.409
86963SOL    HW262787  14.168   3.166   1.546
86964SOL     OW62788   9.627  11.380  10.199
86964SOL    HW162789   9.722  11.383  10.216
86964SOL    HW262790   9.617  11.316  10.129
86965SOL     OW62791  12.700  12.800   2.512
86965SOL    HW162792  12.666  12.854   2.441
86965SOL    HW262793  12.639  12.727   2.519
86966SOL     OW62794  10.377  13.177  10.928
86966SOL    HW162795  10.358  13.233  10.853
86966SOL    HW262796  10.436  13.229  10.982
86967SOL     OW62797  10.179   8.301   0.383
86967SOL    HW162798  10.106   8.260   0.335
86967SOL    HW262799  10.257   8.264   0.343
86968SOL     OW62800   0.974  10.166   3.465
86968SOL    HW162801   0.884  10.139   3.485
86968SOL    HW262802   1.027  10.088   3.482
86969SOL     OW62803  12.750  11.728   4.546
86969SOL    HW162804  12.714  11.764   4.627
86969SOL    HW262805  12.830  11.683   4.572
86970SOL     OW62806  14.478  11.917   7.845
86970SOL    HW162807  14.455  11.842   7.899
86970SOL    HW262808  14.557  11.952   7.885
86971SOL     OW62809  10.686   7.115   0.617
86971SOL    HW162810  10.732   7.034   0.640
86971SOL    HW262811  10.672   7.108   0.523
86972SOL     OW62812   2.047   6.927   3.872
86972SOL    HW162813   2.045   6.840   3.832
86972SOL    HW262814   2.045   6.911   3.966
86973SOL     OW62815   9.835  13.876   4.209
86973SOL    HW162816   9.789  13.792   4.217
86973SOL    HW262817   9.841  13.909   4.298
86974SOL     OW62818   5.286   6.276  14.007
86974SOL    HW162819   5.241   6.358  14.029
86974SOL    HW262820   5.376   6.302  13.991
86975SOL     OW62821   3.138  12.580   7.310
86975SOL    HW162822   3.043  12.590   7.301
86975SOL    HW262823   3.160  12.631   7.388
86976SOL     OW62824   8.818   0.299   7.207
86976SOL    HW162825   8.774   0.318   7.124
86976SOL    HW262826   8.747   0.287   7.270
86977SOL     OW62827   3.334   2.335  11.343
86977SOL    HW162828   3.425   2.323  11.370
86977SOL    HW262829   3.302   2.407  11.397
86978SOL     OW62830  13.038   2.077  12.954
86978SOL    HW162831  12.994   2.070  13.039
86978SOL    HW262832  12.969   2.066  12.890
86979SOL     OW62833   9.259  10.724   3.345
86979SOL    HW162834   9.309  10.752   3.268
86979SOL    HW262835   9.277  10.792   3.410
86980SOL     OW62836  11.355   5.617  12.621
86980SOL    HW162837  11.352   5.550  12.553
86980SOL    HW262838  11.448   5.630  12.639
86981SOL     OW62839   9.420  12.149   1.613
86981SOL    HW162840   9.484  12.198   1.561
86981SOL    HW262841   9.396  12.075   1.558
86982SOL     OW62842  13.489   8.251   8.352
86982SOL    HW162843  13.489   8.335   8.399
86982SOL    HW262844  13.396   8.232   8.337
86983SOL     OW62845  11.539   0.522  12.872
86983SOL    HW162846  11.632   0.529  12.893
86983SOL    HW262847  11.496   0.576  12.938
86984SOL     OW62848   1.933   9.687  12.416
86984SOL    HW162849   1.928   9.727  12.329
86984SOL    HW262850   2.026   9.684  12.436
86985SOL     OW62851   5.750  12.267   4.669
86985SOL    HW162852   5.786  12.265   4.758
86985SOL    HW262853   5.778  12.352   4.634
86986SOL     OW62854   3.767   9.730   6.979
86986SOL    HW162855   3.844   9.690   6.939
86986SOL    HW262856   3.792   9.821   6.993
86987SOL     OW62857   7.817   0.906   1.858
86987SOL    HW162858   7.830   0.864   1.943
86987SOL    HW262859   7.904   0.941   1.835
86988SOL     OW62860  10.565   2.802  10.792
86988SOL    HW162861  10.496   2.750  10.834
86988SOL    HW262862  10.640   2.743  10.786
86989SOL     OW62863   9.600   8.970   5.571
86989SOL    HW162864   9.564   8.894   5.617
86989SOL    HW262865   9.638   8.934   5.491
86990SOL     OW62866   2.892   2.156   9.354
86990SOL    HW162867   2.944   2.107   9.418
86990SOL    HW262868   2.953   2.219   9.316
86991SOL     OW62869  12.786  11.761   0.637
86991SOL    HW162870  12.763  11.759   0.730
86991SOL    HW262871  12.830  11.677   0.622
86992SOL     OW62872   5.120   4.561  10.260
86992SOL    HW162873   5.026   4.541  10.266
86992SOL    HW262874   5.131   4.595  10.172
86993SOL     OW62875   1.960  12.917   9.061
86993SOL    HW162876   1.895  12.872   9.007
86993SOL    HW262877   1.911  12.989   9.101
86994SOL     OW62878   8.717   3.943   8.549
86994SOL    HW162879   8.739   4.036   8.537
86994SOL    HW262880   8.801   3.898   8.538
86995SOL     OW62881  12.774   4.939   0.954
86995SOL    HW162882  12.762   4.969   1.044
86995SOL    HW262883  12.868   4.921   0.947
86996SOL     OW62884  10.593  13.197   6.007
86996SOL    HW162885  10.584  13.267   6.071
86996SOL    HW262886  10.599  13.241   5.923
86997SOL     OW62887  12.464   1.428   8.413
86997SOL    HW162888  12.545   1.451   8.459
86997SOL    HW262889  12.484   1.443   8.321
86998SOL     OW62890   7.188   1.948   1.653
86998SOL    HW162891   7.124   2.004   1.697
86998SOL    HW262892   7.247   1.919   1.723
86999SOL     OW62893  11.328   3.678  10.880
86999SOL    HW162894  11.393   3.683  10.951
86999SOL    HW262895  11.365   3.616  10.818
87000SOL     OW62896   8.552   4.646   5.047
87000SOL    HW162897   8.591   4.623   4.962
87000SOL    HW262898   8.525   4.738   5.037
87001SOL     OW62899  11.663  14.558  10.863
87001SOL    HW162900  11.611  14.495  10.812
87001SOL    HW262901  11.710  14.504  10.926
87002SOL     OW62902   9.305   7.290  11.230
87002SOL    HW162903   9.376   7.349  11.255
87002SOL    HW262904   9.265   7.264  11.313
87003SOL     OW62905   9.055   8.129   4.917
87003SOL    HW162906   9.094   8.049   4.954
87003SOL    HW262907   9.127   8.192   4.915
87004SOL     OW62908   6.696  13.160   9.502
87004SOL    HW162909   6.641  13.148   9.425
87004SOL    HW262910   6.741  13.076   9.513
87005SOL     OW62911   2.919   8.614   7.891
87005SOL    HW162912   2.839   8.595   7.843
87005SOL    HW262913   2.898   8.595   7.982
87006SOL     OW62914   3.703   2.763  13.863
87006SOL    HW162915   3.651   2.779  13.941
87006SOL    HW262916   3.777   2.823  13.871
87007SOL     OW62917  10.164  12.900   1.457
87007SOL    HW162918  10.072  12.913   1.435
87007SOL    HW262919  10.171  12.808   1.481
87008SOL     OW62920   1.586   2.670   7.634
87008SOL    HW162921   1.626   2.613   7.699
87008SOL    HW262922   1.494   2.677   7.661
87009SOL     OW62923  11.548   4.917   7.182
87009SOL    HW162924  11.504   4.910   7.267
87009SOL    HW262925  11.499   4.986   7.136
87010SOL     OW62926   9.916   4.245   7.714
87010SOL    HW162927   9.960   4.201   7.641
87010SOL    HW262928   9.868   4.175   7.758
87011SOL     OW62929  14.111   6.884   7.044
87011SOL    HW162930  14.057   6.825   7.096
87011SOL    HW262931  14.140   6.830   6.970
87012SOL     OW62932  10.996   9.202   9.255
87012SOL    HW162933  10.955   9.124   9.294
87012SOL    HW262934  10.981   9.272   9.319
87013SOL     OW62935  13.300   7.622  10.483
87013SOL    HW162936  13.389   7.596  10.457
87013SOL    HW262937  13.243   7.579  10.420
87014SOL     OW62938  10.678  14.609   1.329
87014SOL    HW162939  10.618  14.572   1.394
87014SOL    HW262940  10.656  14.562   1.248
87015SOL     OW62941  14.178   9.122   2.720
87015SOL    HW162942  14.117   9.141   2.792
87015SOL    HW262943  14.122   9.100   2.646
87016SOL     OW62944  10.803   1.623  14.695
87016SOL    HW162945  10.731   1.560  14.695
87016SOL    HW262946  10.810   1.651  14.603
87017SOL     OW62947  11.167  11.205   9.902
87017SOL    HW162948  11.172  11.264   9.827
87017SOL    HW262949  11.254  11.211   9.942
87018SOL     OW62950   2.119   8.905  13.104
87018SOL    HW162951   2.151   8.953  13.028
87018SOL    HW262952   2.188   8.915  13.170
87019SOL     OW62953   5.586   4.745   2.636
87019SOL    HW162954   5.590   4.839   2.649
87019SOL    HW262955   5.527   4.714   2.704
87020SOL     OW62956   4.167   4.158   8.408
87020SOL    HW162957   4.109   4.135   8.336
87020SOL    HW262958   4.255   4.155   8.370
87021SOL     OW62959   8.086   6.964  12.641
87021SOL    HW162960   8.018   6.898  12.625
87021SOL    HW262961   8.098   6.962  12.736
87022SOL     OW62962   1.947   3.991   5.262
87022SOL    HW162963   1.941   3.909   5.311
87022SOL    HW262964   1.857   4.009   5.235
87023SOL     OW62965   4.750  10.232   7.685
87023SOL    HW162966   4.674  10.289   7.690
87023SOL    HW262967   4.717  10.150   7.649
87024SOL     OW62968  13.048   6.724   2.586
87024SOL    HW162969  13.040   6.818   2.599
87024SOL    HW262970  13.128   6.700   2.633
87025SOL     OW62971  11.920   1.826  12.947
87025SOL    HW162972  11.872   1.893  12.996
87025SOL    HW262973  12.004   1.867  12.927
87026SOL     OW62974   8.588   1.658   2.168
87026SOL    HW162975   8.639   1.739   2.163
87026SOL    HW262976   8.503   1.685   2.201
87027SOL     OW62977   9.817  13.227   6.846
87027SOL    HW162978   9.834  13.134   6.860
87027SOL    HW262979   9.841  13.268   6.929
87028SOL     OW62980  11.663  10.143   7.880
87028SOL    HW162981  11.710  10.209   7.931
87028SOL    HW262982  11.684  10.060   7.922
87029SOL     OW62983   8.066   1.757   9.000
87029SOL    HW162984   7.976   1.726   8.988
87029SOL    HW262985   8.108   1.742   8.915
87030SOL     OW62986   2.661   2.932   7.752
87030SOL    HW162987   2.642   3.021   7.784
87030SOL    HW262988   2.609   2.924   7.672
87031SOL     OW62989  12.318  13.928   3.564
87031SOL    HW162990  12.234  13.882   3.563
87031SOL    HW262991  12.379  13.867   3.525
87032SOL     OW62992   8.722  11.063   0.465
87032SOL    HW162993   8.802  11.025   0.500
87032SOL    HW262994   8.658  11.052   0.535
87033SOL     OW62995   4.099  10.589   3.403
87033SOL    HW162996   4.026  10.544   3.359
87033SOL    HW262997   4.056  10.650   3.464
87034SOL     OW62998   6.390   8.041   1.466
87034SOL    HW162999   6.311   8.095   1.468
87034SOL    HW263000   6.397   8.005   1.555
87035SOL     OW63001  12.818   4.477  11.872
87035SOL    HW163002  12.752   4.517  11.928
87035SOL    HW263003  12.878   4.549  11.852
87036SOL     OW63004   9.090   0.076   2.481
87036SOL    HW163005   9.140   0.001   2.512
87036SOL    HW263006   9.074   0.128   2.560
87037SOL     OW63007   9.626   0.234  13.765
87037SOL    HW163008   9.657   0.155  13.720
87037SOL    HW263009   9.695   0.255  13.828
87038SOL     OW63010   5.620   5.228  12.427
87038SOL    HW163011   5.673   5.302  12.397
87038SOL    HW263012   5.538   5.267  12.457
87039SOL     OW63013   0.430   5.156   4.637
87039SOL    HW163014   0.523   5.155   4.617
87039SOL    HW263015   0.387   5.164   4.552
87040SOL     OW63016   1.988   0.665   8.917
87040SOL    HW163017   1.899   0.665   8.882
87040SOL    HW263018   2.017   0.574   8.911
87041SOL     OW63019  14.436  12.601   8.465
87041SOL    HW163020  14.454  12.689   8.500
87041SOL    HW263021  14.355  12.574   8.509
87042SOL     OW63022   9.112   9.595  11.476
87042SOL    HW163023   9.065   9.523  11.518
87042SOL    HW263024   9.166   9.553  11.409
87043SOL     OW63025   9.096  12.643   6.606
87043SOL    HW163026   9.160  12.614   6.541
87043SOL    HW263027   9.148  12.663   6.684
87044SOL     OW63028   5.967  11.580   1.582
87044SOL    HW163029   6.045  11.633   1.600
87044SOL    HW263030   5.914  11.587   1.662
87045SOL     OW63031   8.661  13.923  14.865
87045SOL    HW163032   8.702  13.904   0.070
87045SOL    HW263033   8.613  14.004  14.879
87046SOL     OW63034   1.430   0.569  13.751
87046SOL    HW163035   1.516   0.539  13.722
87046SOL    HW263036   1.398   0.623  13.678
87047SOL     OW63037  14.291  10.768  13.000
87047SOL    HW163038  14.305  10.753  13.093
87047SOL    HW263039  14.227  10.839  12.996
87048SOL     OW63040   9.737   8.485  12.318
87048SOL    HW163041   9.698   8.411  12.366
87048SOL    HW263042   9.825   8.455  12.296
87049SOL     OW63043  13.170   3.783   5.621
87049SOL    HW163044  13.153   3.748   5.534
87049SOL    HW263045  13.201   3.708   5.672
87050SOL     OW63046   5.746   2.641   4.015
87050SOL    HW163047   5.818   2.667   4.072
87050SOL    HW263048   5.679   2.607   4.074
87051SOL     OW63049  13.451   1.323  12.215
87051SOL    HW163050  13.373   1.284  12.175
87051SOL    HW263051  13.418   1.376  12.287
87052SOL     OW63052   1.423  12.073   2.511
87052SOL    HW163053   1.463  12.125   2.441
87052SOL    HW263054   1.354  12.129   2.547
87053SOL     OW63055  14.329  12.851  12.882
87053SOL    HW163056  14.304  12.879  12.794
87053SOL    HW263057  14.399  12.912  12.906
87054SOL     OW63058  10.021  14.794   2.901
87054SOL    HW163059   9.965  14.810   2.825
87054SOL    HW263060   9.970  14.824   2.976
87055SOL     OW63061  13.263   7.699   3.118
87055SOL    HW163062  13.234   7.747   3.195
87055SOL    HW263063  13.182   7.668   3.077
87056SOL     OW63064  11.906   4.455  10.592
87056SOL    HW163065  11.843   4.502  10.646
87056SOL    HW263066  11.933   4.381  10.647
87057SOL     OW63067   0.900   1.535   8.267
87057SOL    HW163068   0.910   1.443   8.243
87057SOL    HW263069   0.975   1.554   8.323
87058SOL     OW63070  10.132   3.797   1.808
87058SOL    HW163071  10.194   3.835   1.746
87058SOL    HW263072  10.049   3.840   1.789
87059SOL     OW63073   7.547   3.995   8.688
87059SOL    HW163074   7.465   3.962   8.724
87059SOL    HW263075   7.549   4.087   8.712
87060SOL     OW63076  11.041   5.713  14.425
87060SOL    HW163077  11.033   5.652  14.498
87060SOL    HW263078  10.973   5.686  14.363
87061SOL     OW63079  11.002  13.020   6.076
87061SOL    HW163080  10.986  12.926   6.080
87061SOL    HW263081  11.093  13.028   6.045
87062SOL     OW63082   7.886  10.006   7.418
87062SOL    HW163083   7.959  10.060   7.387
87062SOL    HW263084   7.854   9.962   7.339
87063SOL     OW63085   0.915   9.701   6.006
87063SOL    HW163086   0.866   9.632   5.961
87063SOL    HW263087   0.862   9.721   6.083
87064SOL     OW63088   3.642  12.046   4.800
87064SOL    HW163089   3.730  12.046   4.837
87064SOL    HW263090   3.653  12.085   4.713
87065SOL     OW63091  10.738   5.997   3.947
87065SOL    HW163092  10.735   6.042   3.862
87065SOL    HW263093  10.652   6.014   3.986
87066SOL     OW63094  13.109  13.620   4.248
87066SOL    HW163095  13.143  13.556   4.185
87066SOL    HW263096  13.100  13.701   4.198
87067SOL     OW63097   7.926   3.817   4.965
87067SOL    HW163098   8.002   3.841   5.018
87067SOL    HW263099   7.894   3.736   5.004
87068SOL     OW63100   0.231  11.219  12.165
87068SOL    HW163101   0.232  11.233  12.070
87068SOL    HW263102   0.236  11.124  12.174
87069SOL     OW63103   3.695  14.628  10.456
87069SOL    HW163104   3.632  14.599  10.522
87069SOL    HW263105   3.721  14.715  10.484
87070SOL     OW63106   8.268   0.337   5.948
87070SOL    HW163107   8.300   0.282   5.877
87070SOL    HW263108   8.325   0.414   5.947
87071SOL     OW63109   0.879   1.935   6.157
87071SOL    HW163110   0.928   2.016   6.170
87071SOL    HW263111   0.941   1.875   6.116
87072SOL     OW63112   9.336   2.673  12.940
87072SOL    HW163113   9.288   2.739  12.890
87072SOL    HW263114   9.272   2.640  13.004
87073SOL     OW63115   5.709   5.546  11.489
87073SOL    HW163116   5.799   5.576  11.482
87073SOL    HW263117   5.658   5.626  11.503
87074SOL     OW63118  13.753   4.202   6.533
87074SOL    HW163119  13.821   4.220   6.468
87074SOL    HW263120  13.754   4.280   6.589
87075SOL     OW63121   6.219  12.257   7.803
87075SOL    HW163122   6.212  12.276   7.709
87075SOL    HW263123   6.293  12.197   7.810
87076SOL     OW63124   4.013   2.712   7.124
87076SOL    HW163125   4.099   2.687   7.092
87076SOL    HW263126   4.024   2.802   7.156
87077SOL     OW63127  12.528   7.802   7.311
87077SOL    HW163128  12.494   7.720   7.274
87077SOL    HW263129  12.599   7.827   7.252
87078SOL     OW63130   4.393   2.182  14.338
87078SOL    HW163131   4.439   2.174  14.255
87078SOL    HW263132   4.363   2.094  14.358
87079SOL     OW63133   3.491  12.014  14.208
87079SOL    HW163134   3.427  12.002  14.137
87079SOL    HW263135   3.532  12.099  14.189
87080SOL     OW63136   4.367   4.068   2.180
87080SOL    HW163137   4.395   4.133   2.245
87080SOL    HW263138   4.382   4.111   2.095
87081SOL     OW63139   6.852  13.143  11.124
87081SOL    HW163140   6.826  13.218  11.178
87081SOL    HW263141   6.943  13.162  11.099
87082SOL     OW63142  10.522  12.080   8.547
87082SOL    HW163143  10.499  12.152   8.487
87082SOL    HW263144  10.589  12.030   8.500
87083SOL     OW63145  10.662  11.689  14.776
87083SOL    HW163146  10.669  11.723  14.687
87083SOL    HW263147  10.749  11.700  14.813
87084SOL     OW63148   8.140   5.280   9.183
87084SOL    HW163149   8.056   5.271   9.137
87084SOL    HW263150   8.171   5.190   9.196
87085SOL     OW63151  14.122   1.538   0.291
87085SOL    HW163152  14.160   1.490   0.364
87085SOL    HW263153  14.183   1.523   0.218
87086SOL     OW63154  12.883  14.026   5.724
87086SOL    HW163155  12.920  14.100   5.677
87086SOL    HW263156  12.935  13.951   5.695
87087SOL     OW63157   9.740   4.694  11.929
87087SOL    HW163158   9.733   4.770  11.870
87087SOL    HW263159   9.748   4.732  12.016
87088SOL     OW63160   7.533   5.851  12.387
87088SOL    HW163161   7.624   5.832  12.364
87088SOL    HW263162   7.536   5.940  12.422
87089SOL     OW63163  13.008   3.331   9.356
87089SOL    HW163164  12.991   3.260   9.417
87089SOL    HW263165  13.102   3.347   9.362
87090SOL     OW63166   1.659  10.387   4.275
87090SOL    HW163167   1.690  10.310   4.227
87090SOL    HW263168   1.732  10.408   4.334
87091SOL     OW63169  13.455  13.730   7.620
87091SOL    HW163170  13.419  13.748   7.533
87091SOL    HW263171  13.542  13.771   7.619
87092SOL     OW63172   4.482   3.773  13.142
87092SOL    HW163173   4.529   3.696  13.110
87092SOL    HW263174   4.407   3.738  13.191
87093SOL     OW63175  10.767  11.682   0.568
87093SOL    HW163176  10.750  11.758   0.512
87093SOL    HW263177  10.841  11.708   0.622
87094SOL     OW63178  10.980  12.789   9.209
87094SOL    HW163179  10.910  12.728   9.185
87094SOL    HW263180  11.033  12.741   9.273
87095SOL     OW63181  12.555  11.295   2.624
87095SOL    HW163182  12.606  11.323   2.700
87095SOL    HW263183  12.486  11.362   2.616
87096SOL     OW63184   1.572   2.219  12.097
87096SOL    HW163185   1.654   2.226  12.048
87096SOL    HW263186   1.556   2.308  12.128
87097SOL     OW63187   8.619  10.956   4.612
87097SOL    HW163188   8.605  10.918   4.525
87097SOL    HW263189   8.623  10.881   4.671
87098SOL     OW63190   7.732   4.091   8.929
87098SOL    HW163191   7.825   4.086   8.906
87098SOL    HW263192   7.703   3.999   8.928
87099SOL     OW63193   5.999   2.020   5.817
87099SOL    HW163194   5.933   2.006   5.885
87099SOL    HW263195   6.046   1.937   5.813
87100SOL     OW63196   4.736   2.513   2.610
87100SOL    HW163197   4.806   2.483   2.668
87100SOL    HW263198   4.664   2.535   2.669
87101SOL     OW63199  14.589   7.708   5.650
87101SOL    HW163200  14.642   7.696   5.729
87101SOL    HW263201  14.565   7.620   5.624
87102SOL     OW63202   4.683   9.819   5.474
87102SOL    HW163203   4.775   9.831   5.498
87102SOL    HW263204   4.642   9.903   5.493
87103SOL     OW63205  10.232   4.498  13.071
87103SOL    HW163206  10.272   4.575  13.114
87103SOL    HW263207  10.297   4.429  13.083
87104SOL     OW63208  11.747  14.304  12.044
87104SOL    HW163209  11.827  14.355  12.031
87104SOL    HW263210  11.710  14.294  11.957
87105SOL     OW63211   8.685   5.549  13.083
87105SOL    HW163212   8.780   5.561  13.088
87105SOL    HW263213   8.663   5.499  13.162
87106SOL     OW63214  10.842   9.774   4.688
87106SOL    HW163215  10.765   9.813   4.647
87106SOL    HW263216  10.908   9.843   4.686
87107SOL     OW63217  12.601   8.555  14.537
87107SOL    HW163218  12.536   8.623  14.517
87107SOL    HW263219  12.622   8.516  14.452
87108SOL     OW63220  14.131  12.891  10.766
87108SOL    HW163221  14.037  12.879  10.779
87108SOL    HW263222  14.157  12.952  10.836
87109SOL     OW63223   6.699   5.730  12.290
87109SOL    HW163224   6.725   5.743  12.381
87109SOL    HW263225   6.643   5.653  12.292
87110SOL     OW63226   2.255   4.597  13.831
87110SOL    HW163227   2.304   4.675  13.856
87110SOL    HW263228   2.230   4.611  13.740
87111SOL     OW63229   2.134   5.172   3.536
87111SOL    HW163230   2.197   5.099   3.541
87111SOL    HW263231   2.051   5.134   3.565
87112SOL     OW63232  11.451   9.746  14.603
87112SOL    HW163233  11.527   9.804  14.594
87112SOL    HW263234  11.388   9.797  14.653
87113SOL     OW63235   3.257  10.444   6.164
87113SOL    HW163236   3.187  10.456   6.099
87113SOL    HW263237   3.323  10.391   6.119
87114SOL     OW63238   0.118   3.455   3.530
87114SOL    HW163239   0.177   3.518   3.489
87114SOL    HW263240   0.173   3.409   3.594
87115SOL     OW63241   7.140  10.349   2.309
87115SOL    HW163242   7.220  10.300   2.290
87115SOL    HW263243   7.109  10.377   2.223
87116SOL     OW63244   8.323   0.305   8.974
87116SOL    HW163245   8.301   0.212   8.968
87116SOL    HW263246   8.363   0.315   9.060
87117SOL     OW63247   3.793  11.634  13.960
87117SOL    HW163248   3.882  11.661  13.980
87117SOL    HW263249   3.759  11.703  13.903
87118SOL     OW63250   0.359   4.620   8.794
87118SOL    HW163251   0.415   4.677   8.742
87118SOL    HW263252   0.315   4.565   8.730
87119SOL     OW63253   7.927   0.878  14.832
87119SOL    HW163254   7.930   0.899  14.738
87119SOL    HW263255   7.960   0.788  14.837
87120SOL     OW63256   1.844   8.391   5.378
87120SOL    HW163257   1.868   8.481   5.403
87120SOL    HW263258   1.861   8.387   5.284
87121SOL     OW63259  14.174   3.303   4.138
87121SOL    HW163260  14.212   3.317   4.225
87121SOL    HW263261  14.220   3.226   4.103
87122SOL     OW63262   1.121  12.227   0.366
87122SOL    HW163263   1.051  12.164   0.350
87122SOL    HW263264   1.095  12.305   0.317
87123SOL     OW63265   9.529   3.131  13.096
87123SOL    HW163266   9.569   3.066  13.155
87123SOL    HW263267   9.550   3.100  13.008
87124SOL     OW63268   1.482   0.336  13.239
87124SOL    HW163269   1.409   0.289  13.281
87124SOL    HW263270   1.446   0.422  13.218
87125SOL     OW63271  14.471  10.105   0.904
87125SOL    HW163272  14.488  10.012   0.890
87125SOL    HW263273  14.446  10.112   0.996
87126SOL     OW63274   2.448  10.272   4.621
87126SOL    HW163275   2.433  10.345   4.682
87126SOL    HW263276   2.404  10.298   4.541
87127SOL     OW63277   9.892  12.253   5.718
87127SOL    HW163278   9.850  12.184   5.769
87127SOL    HW263279   9.986  12.236   5.726
87128SOL     OW63280  11.718   6.622  14.634
87128SOL    HW163281  11.655   6.653  14.699
87128SOL    HW263282  11.680   6.542  14.599
87129SOL     OW63283   9.172  11.114   8.953
87129SOL    HW163284   9.146  11.174   9.023
87129SOL    HW263285   9.251  11.071   8.986
87130SOL     OW63286   6.051   9.843   6.246
87130SOL    HW163287   6.090   9.771   6.295
87130SOL    HW263288   6.113   9.860   6.175
87131SOL     OW63289   8.845   9.124   2.368
87131SOL    HW163290   8.834   9.208   2.412
87131SOL    HW263291   8.907   9.142   2.297
87132SOL     OW63292   1.310  13.909   1.138
87132SOL    HW163293   1.293  13.825   1.179
87132SOL    HW263294   1.399  13.901   1.103
87133SOL     OW63295   1.027   5.719  12.264
87133SOL    HW163296   0.992   5.710  12.175
87133SOL    HW263297   1.116   5.685  12.259
87134SOL     OW63298   6.862   0.817   4.778
87134SOL    HW163299   6.926   0.870   4.730
87134SOL    HW263300   6.816   0.879   4.835
87135SOL     OW63301   7.111  13.932   9.529
87135SOL    HW163302   7.148  13.901   9.446
87135SOL    HW263303   7.061  14.010   9.505
87136SOL     OW63304   2.085   6.201   9.164
87136SOL    HW163305   2.021   6.257   9.207
87136SOL    HW263306   2.170   6.239   9.186
87137SOL     OW63307   4.120   0.588  13.559
87137SOL    HW163308   4.174   0.647  13.506
87137SOL    HW263309   4.169   0.506  13.561
87138SOL     OW63310   3.800   9.821  14.387
87138SOL    HW163311   3.770   9.892  14.443
87138SOL    HW263312   3.836   9.864  14.310
87139SOL     OW63313   0.621   8.464   8.719
87139SOL    HW163314   0.540   8.474   8.770
87139SOL    HW263315   0.685   8.517   8.765
87140SOL     OW63316  14.774   6.618   2.810
87140SOL    HW163317  14.692   6.666   2.820
87140SOL    HW263318  14.840   6.676   2.847
87141SOL     OW63319   3.628   7.745   0.030
87141SOL    HW163320   3.616   7.779  14.821
87141SOL    HW263321   3.539   7.743   0.067
87142SOL     OW63322   2.474   2.823   5.711
87142SOL    HW163323   2.528   2.883   5.762
87142SOL    HW263324   2.476   2.742   5.760
87143SOL     OW63325   9.050   8.428  14.022
87143SOL    HW163326   9.060   8.378  13.941
87143SOL    HW263327   9.110   8.502  14.013
87144SOL     OW63328   5.465   2.968   7.999
87144SOL    HW163329   5.425   2.969   7.912
87144SOL    HW263330   5.443   3.054   8.036
87145SOL     OW63331  10.777   2.456   5.379
87145SOL    HW163332  10.814   2.449   5.291
87145SOL    HW263333  10.684   2.438   5.368
87146SOL     OW63334  11.991   7.940  12.400
87146SOL    HW163335  12.058   7.895  12.452
87146SOL    HW263336  11.933   7.980  12.465
87147SOL     OW63337   0.378  13.904   1.841
87147SOL    HW163338   0.327  13.864   1.770
87147SOL    HW263339   0.445  13.956   1.797
87148SOL     OW63340   0.043   4.522   0.936
87148SOL    HW163341   0.086   4.437   0.923
87148SOL    HW263342   0.029   4.555   0.847
87149SOL     OW63343   2.499   2.515   2.886
87149SOL    HW163344   2.430   2.558   2.937
87149SOL    HW263345   2.578   2.530   2.937
87150SOL     OW63346   6.993   9.079  10.693
87150SOL    HW163347   7.001   9.163  10.738
87150SOL    HW263348   6.907   9.046  10.720
87151SOL     OW63349  11.250   6.359   0.832
87151SOL    HW163350  11.180   6.396   0.777
87151SOL    HW263351  11.287   6.434   0.878
87152SOL     OW63352  14.750   4.299   7.562
87152SOL    HW163353  14.673   4.321   7.509
87152SOL    HW263354  14.823   4.341   7.517
87153SOL     OW63355   7.154   9.883   3.298
87153SOL    HW163356   7.247   9.869   3.315
87153SOL    HW263357   7.149   9.974   3.268
87154SOL     OW63358   1.618  11.782  14.182
87154SOL    HW163359   1.678  11.802  14.110
87154SOL    HW263360   1.550  11.727  14.142
87155SOL     OW63361   6.491   2.292  14.638
87155SOL    HW163362   6.433   2.340  14.696
87155SOL    HW263363   6.523   2.218  14.690
87156SOL     OW63364   7.521  12.010   2.147
87156SOL    HW163365   7.476  12.046   2.070
87156SOL    HW263366   7.517  12.081   2.211
87157SOL     OW63367  12.414   4.182   5.856
87157SOL    HW163368  12.364   4.261   5.876
87157SOL    HW263369  12.497   4.215   5.822
87158SOL     OW63370   2.021   2.393  10.256
87158SOL    HW163371   2.038   2.449  10.332
87158SOL    HW263372   1.956   2.441  10.204
87159SOL     OW63373   4.403   9.936   0.866
87159SOL    HW163374   4.381  10.024   0.896
87159SOL    HW263375   4.413   9.885   0.946
87160SOL     OW63376   9.211  14.631   7.999
87160SOL    HW163377   9.146  14.626   8.070
87160SOL    HW263378   9.177  14.572   7.932
87161SOL     OW63379  14.803   1.668   3.418
87161SOL    HW163380  14.817   1.750   3.369
87161SOL    HW263381  14.825   1.690   3.508
87162SOL     OW63382   5.613   5.536   3.313
87162SOL    HW163383   5.587   5.626   3.292
87162SOL    HW263384   5.543   5.503   3.368
87163SOL     OW63385   6.906   6.492  13.976
87163SOL    HW163386   6.965   6.530  13.911
87163SOL    HW263387   6.960   6.485  14.055
87164SOL     OW63388  13.111  11.659   2.846
87164SOL    HW163389  13.201  11.690   2.835
87164SOL    HW263390  13.057  11.730   2.812
87165SOL     OW63391   2.414  11.426   0.950
87165SOL    HW163392   2.368  11.464   0.875
87165SOL    HW263393   2.351  11.363   0.987
87166SOL     OW63394   1.423   7.707  12.876
87166SOL    HW163395   1.372   7.788  12.877
87166SOL    HW263396   1.454   7.697  12.966
87167SOL     OW63397  10.368  10.450   1.984
87167SOL    HW163398  10.452  10.430   2.027
87167SOL    HW263399  10.374  10.405   1.899
87168SOL     OW63400   2.032   5.240   2.990
87168SOL    HW163401   2.053   5.328   2.959
87168SOL    HW263402   1.938   5.243   3.009
87169SOL     OW63403  13.510  10.914   1.391
87169SOL    HW163404  13.581  10.850   1.387
87169SOL    HW263405  13.549  10.991   1.432
87170SOL     OW63406  10.736   4.795  12.235
87170SOL    HW163407  10.674   4.810  12.164
87170SOL    HW263408  10.722   4.704  12.260
87171SOL     OW63409  11.880  12.723   3.540
87171SOL    HW163410  11.881  12.629   3.522
87171SOL    HW263411  11.807  12.735   3.601
87172SOL     OW63412   5.920  13.098   9.583
87172SOL    HW163413   5.954  13.009   9.580
87172SOL    HW263414   5.838  13.091   9.631
87173SOL     OW63415  11.213  14.125   0.849
87173SOL    HW163416  11.306  14.150   0.854
87173SOL    HW263417  11.209  14.041   0.895
87174SOL     OW63418  12.779   0.639   2.950
87174SOL    HW163419  12.806   0.731   2.946
87174SOL    HW263420  12.710   0.636   3.016
87175SOL     OW63421   7.580   0.501   7.316
87175SOL    HW163422   7.533   0.471   7.393
87175SOL    HW263423   7.647   0.434   7.300
87176SOL     OW63424   1.737   3.940   7.822
87176SOL    HW163425   1.761   3.864   7.769
87176SOL    HW263426   1.684   3.995   7.764
87177SOL     OW63427   8.867  11.243   6.208
87177SOL    HW163428   8.896  11.153   6.226
87177SOL    HW263429   8.791  11.233   6.152
87178SOL     OW63430  11.793   2.419   3.352
87178SOL    HW163431  11.823   2.408   3.442
87178SOL    HW263432  11.799   2.513   3.336
87179SOL     OW63433   2.060   2.166   2.723
87179SOL    HW163434   2.143   2.208   2.700
87179SOL    HW263435   1.994   2.213   2.671
87180SOL     OW63436   5.669  12.699   5.904
87180SOL    HW163437   5.580  12.732   5.890
87180SOL    HW263438   5.725  12.764   5.860
87181SOL     OW63439  11.989   1.278   6.248
87181SOL    HW163440  12.002   1.370   6.227
87181SOL    HW263441  11.955   1.278   6.338
87182SOL     OW63442   9.704  10.448   7.660
87182SOL    HW163443   9.721  10.382   7.727
87182SOL    HW263444   9.680  10.398   7.582
87183SOL     OW63445   5.685   2.520   9.124
87183SOL    HW163446   5.779   2.518   9.110
87183SOL    HW263447   5.670   2.597   9.179
87184SOL     OW63448  11.223  10.570   7.742
87184SOL    HW163449  11.200  10.506   7.810
87184SOL    HW263450  11.160  10.554   7.672
87185SOL     OW63451   4.871  10.458   1.715
87185SOL    HW163452   4.866  10.540   1.666
87185SOL    HW263453   4.946  10.412   1.677
87186SOL     OW63454   2.326   2.328   0.468
87186SOL    HW163455   2.241   2.371   0.458
87186SOL    HW263456   2.306   2.234   0.468
87187SOL     OW63457   4.746  12.919  12.060
87187SOL    HW163458   4.783  12.916  11.972
87187SOL    HW263459   4.803  12.862  12.111
87188SOL     OW63460   9.191   6.447   0.148
87188SOL    HW163461   9.131   6.513   0.184
87188SOL    HW263462   9.278   6.474   0.178
87189SOL     OW63463   9.052  13.839  10.180
87189SOL    HW163464   9.014  13.794  10.255
87189SOL    HW263465   9.123  13.891  10.217
87190SOL     OW63466  10.001   8.319  12.999
87190SOL    HW163467   9.930   8.377  12.973
87190SOL    HW263468  10.023   8.271  12.919
87191SOL     OW63469  10.006   0.911   7.701
87191SOL    HW163470  10.083   0.855   7.707
87191SOL    HW263471   9.939   0.855   7.662
87192SOL     OW63472   7.557  11.645   7.929
87192SOL    HW163473   7.554  11.554   7.957
87192SOL    HW263474   7.616  11.688   7.991
87193SOL     OW63475  10.179   7.281  12.101
87193SOL    HW163476  10.085   7.300  12.100
87193SOL    HW263477  10.221   7.364  12.081
87194SOL     OW63478   8.578   0.738   8.609
87194SOL    HW163479   8.492   0.695   8.608
87194SOL    HW263480   8.636   0.675   8.653
87195SOL     OW63481   0.656   1.402   2.220
87195SOL    HW163482   0.704   1.483   2.204
87195SOL    HW263483   0.583   1.428   2.277
87196SOL     OW63484  14.579   6.136   7.700
87196SOL    HW163485  14.525   6.102   7.771
87196SOL    HW263486  14.531   6.112   7.620
87197SOL     OW63487   7.226   1.040   0.082
87197SOL    HW163488   7.274   1.024   0.001
87197SOL    HW263489   7.234   1.134   0.097
87198SOL     OW63490   0.625   2.448   4.486
87198SOL    HW163491   0.658   2.537   4.476
87198SOL    HW263492   0.599   2.422   4.398
87199SOL     OW63493   9.127  14.794   9.797
87199SOL    HW163494   9.220  14.814   9.786
87199SOL    HW263495   9.115  14.787   9.892
87200SOL     OW63496   4.758  10.426   3.841
87200SOL    HW163497   4.801  10.347   3.808
87200SOL    HW263498   4.706  10.458   3.768
87201SOL     OW63499   9.752  10.429   1.411
87201SOL    HW163500   9.831  10.457   1.365
87201SOL    HW263501   9.770  10.339   1.438
87202SOL     OW63502   2.488   1.472  12.451
87202SOL    HW163503   2.441   1.546  12.488
87202SOL    HW263504   2.531   1.507  12.372
87203SOL     OW63505   8.796  13.650   8.159
87203SOL    HW163506   8.706  13.680   8.165
87203SOL    HW263507   8.816  13.653   8.065
87204SOL     OW63508  12.935   9.731   3.770
87204SOL    HW163509  12.998   9.795   3.737
87204SOL    HW263510  12.951   9.728   3.865
87205SOL     OW63511   9.803  12.696   4.403
87205SOL    HW163512   9.872  12.662   4.460
87205SOL    HW263513   9.849  12.751   4.340
87206SOL     OW63514   1.806  11.296   9.797
87206SOL    HW163515   1.757  11.345   9.731
87206SOL    HW263516   1.772  11.207   9.792
87207SOL     OW63517   0.528   1.504   6.719
87207SOL    HW163518   0.441   1.538   6.699
87207SOL    HW263519   0.519   1.409   6.713
87208SOL     OW63520   3.473   5.943   5.169
87208SOL    HW163521   3.498   5.966   5.259
87208SOL    HW263522   3.454   5.849   5.173
87209SOL     OW63523  11.891  10.400   6.357
87209SOL    HW163524  11.976  10.363   6.334
87209SOL    HW263525  11.866  10.453   6.281
87210SOL     OW63526  11.267   7.483  14.718
87210SOL    HW163527  11.283   7.555  14.778
87210SOL    HW263528  11.171   7.474  14.717
87211SOL     OW63529   3.275   6.758  12.128
87211SOL    HW163530   3.181   6.772  12.125
87211SOL    HW263531   3.311   6.844  12.152
87212SOL     OW63532   6.393   0.082   3.114
87212SOL    HW163533   6.356   0.072   3.202
87212SOL    HW263534   6.485   0.105   3.130
87213SOL     OW63535   0.297   4.096   5.962
87213SOL    HW163536   0.301   4.013   5.913
87213SOL    HW263537   0.277   4.070   6.052
87214SOL     OW63538   0.161   4.033  12.699
87214SOL    HW163539   0.193   4.101  12.640
87214SOL    HW263540   0.117   4.081  12.769
87215SOL     OW63541  13.431  12.196   3.973
87215SOL    HW163542  13.340  12.224   3.977
87215SOL    HW263543  13.456  12.205   3.881
87216SOL     OW63544   7.306  10.263   5.986
87216SOL    HW163545   7.330  10.171   6.003
87216SOL    HW263546   7.226  10.277   6.036
87217SOL     OW63547   7.026   4.581  10.427
87217SOL    HW163548   6.968   4.636  10.479
87217SOL    HW263549   6.986   4.578  10.340
87218SOL     OW63550  13.410   8.794  10.370
87218SOL    HW163551  13.453   8.760  10.292
87218SOL    HW263552  13.442   8.884  10.378
87219SOL     OW63553  12.958   9.592   6.867
87219SOL    HW163554  12.880   9.572   6.918
87219SOL    HW263555  12.925   9.624   6.783
87220SOL     OW63556  11.256  14.209   8.115
87220SOL    HW163557  11.349  14.232   8.116
87220SOL    HW263558  11.221  14.252   8.037
87221SOL     OW63559   7.844   0.966   6.445
87221SOL    HW163560   7.823   0.873   6.455
87221SOL    HW263561   7.926   0.967   6.397
87222SOL     OW63562   6.592   2.112  14.825
87222SOL    HW163563   6.502   2.080  14.829
87222SOL    HW263564   6.621   2.113   0.036
87223SOL     OW63565   3.943   2.623  10.650
87223SOL    HW163566   4.032   2.611  10.683
87223SOL    HW263567   3.899   2.676  10.717
87224SOL     OW63568   4.645   6.152  14.758
87224SOL    HW163569   4.567   6.187  14.715
87224SOL    HW263570   4.621   6.062  14.781
87225SOL     OW63571  14.112   6.973  10.559
87225SOL    HW163572  14.043   6.913  10.532
87225SOL    HW263573  14.069   7.034  10.620
87226SOL     OW63574   2.733   5.739  10.142
87226SOL    HW163575   2.686   5.695  10.212
87226SOL    HW263576   2.823   5.746  10.174
87227SOL     OW63577   5.916  14.465  12.594
87227SOL    HW163578   6.003  14.463  12.554
87227SOL    HW263579   5.929  14.510  12.677
87228SOL     OW63580  10.743  13.577   1.606
87228SOL    HW163581  10.697  13.509   1.655
87228SOL    HW263582  10.685  13.596   1.531
87229SOL     OW63583  11.763   4.039   0.035
87229SOL    HW163584  11.738   3.952   0.065
87229SOL    HW263585  11.811   4.024  14.833
87230SOL     OW63586   6.481  10.545   8.770
87230SOL    HW163587   6.399  10.534   8.817
87230SOL    HW263588   6.458  10.535   8.678
87231SOL     OW63589  14.608  14.134   7.637
87231SOL    HW163590  14.654  14.050   7.639
87231SOL    HW263591  14.667  14.191   7.587
87232SOL     OW63592   7.087   8.023  13.002
87232SOL    HW163593   7.100   7.978  13.086
87232SOL    HW263594   7.133   8.106  13.013
87233SOL     OW63595  13.021   1.693   5.140
87233SOL    HW163596  13.003   1.772   5.191
87233SOL    HW263597  13.111   1.704   5.109
87234SOL     OW63598  10.136  11.436   2.786
87234SOL    HW163599  10.209  11.396   2.739
87234SOL    HW263600  10.103  11.367   2.843
87235SOL     OW63601   7.671   2.130   8.536
87235SOL    HW163602   7.613   2.203   8.555
87235SOL    HW263603   7.754   2.171   8.513
87236SOL     OW63604  12.844   8.656  12.434
87236SOL    HW163605  12.762   8.609  12.448
87236SOL    HW263606  12.820   8.729  12.377
87237SOL     OW63607   5.946   9.770  13.514
87237SOL    HW163608   6.002   9.833  13.468
87237SOL    HW263609   5.912   9.713  13.445
87238SOL     OW63610   7.502   2.295   6.554
87238SOL    HW163611   7.508   2.235   6.481
87238SOL    HW263612   7.412   2.286   6.585
87239SOL     OW63613  14.293   6.031   8.940
87239SOL    HW163614  14.305   5.970   8.867
87239SOL    HW263615  14.223   5.991   8.992
87240SOL     OW63616   8.605   2.632  11.350
87240SOL    HW163617   8.687   2.669  11.381
87240SOL    HW263618   8.587   2.559  11.410
87241SOL     OW63619  13.237   2.344   8.906
87241SOL    HW163620  13.190   2.273   8.952
87241SOL    HW263621  13.178   2.419   8.912
87242SOL     OW63622   3.007   1.287   3.311
87242SOL    HW163623   2.970   1.321   3.392
87242SOL    HW263624   3.037   1.365   3.264
87243SOL     OW63625   3.742   6.646  10.399
87243SOL    HW163626   3.653   6.619  10.378
87243SOL    HW263627   3.796   6.610  10.329
87244SOL     OW63628   6.527   1.707  12.536
87244SOL    HW163629   6.565   1.620  12.550
87244SOL    HW263630   6.599   1.767  12.554
87245SOL     OW63631  10.631  13.290  11.504
87245SOL    HW163632  10.673  13.304  11.589
87245SOL    HW263633  10.537  13.295  11.522
87246SOL     OW63634   1.491   4.828  11.219
87246SOL    HW163635   1.519   4.762  11.157
87246SOL    HW263636   1.438   4.781  11.283
87247SOL     OW63637   8.802  11.751   1.516
87247SOL    HW163638   8.878  11.749   1.457
87247SOL    HW263639   8.835  11.791   1.596
87248SOL     OW63640   8.740   1.648   9.222
87248SOL    HW163641   8.758   1.667   9.314
87248SOL    HW263642   8.650   1.679   9.208
87249SOL     OW63643   1.941   2.679   5.745
87249SOL    HW163644   2.032   2.701   5.724
87249SOL    HW263645   1.904   2.761   5.777
87250SOL     OW63646   7.123   8.091  11.434
87250SOL    HW163647   7.054   8.153  11.457
87250SOL    HW263648   7.093   8.049  11.354
87251SOL     OW63649   7.257  13.430   5.973
87251SOL    HW163650   7.288  13.520   5.965
87251SOL    HW263651   7.331  13.377   5.944
87252SOL     OW63652  12.398   2.389   5.826
87252SOL    HW163653  12.453   2.434   5.889
87252SOL    HW263654  12.320   2.444   5.818
87253SOL     OW63655   3.897   7.776   0.102
87253SOL    HW163656   3.889   7.797   0.195
87253SOL    HW263657   3.810   7.746   0.076
87254SOL     OW63658   6.608   9.910   0.308
87254SOL    HW163659   6.575   9.828   0.270
87254SOL    HW263660   6.570   9.913   0.395
87255SOL     OW63661  10.807   1.120   5.495
87255SOL    HW163662  10.844   1.088   5.577
87255SOL    HW263663  10.798   1.042   5.441
87256SOL     OW63664  10.139   9.246  12.588
87256SOL    HW163665  10.192   9.227  12.511
87256SOL    HW263666  10.186   9.316  12.633
87257SOL     OW63667   0.114   6.802   4.825
87257SOL    HW163668   0.025   6.766   4.824
87257SOL    HW263669   0.170   6.725   4.812
87258SOL     OW63670   0.114   2.067  11.560
87258SOL    HW163671   0.167   2.104  11.489
87258SOL    HW263672   0.121   2.132  11.631
87259SOL     OW63673  10.091  13.947   2.775
87259SOL    HW163674  10.040  14.017   2.735
87259SOL    HW263675  10.043  13.867   2.752
87260SOL     OW63676   5.848   2.187   8.807
87260SOL    HW163677   5.825   2.173   8.899
87260SOL    HW263678   5.784   2.251   8.776
87261SOL     OW63679   2.997  12.395  11.639
87261SOL    HW163680   2.959  12.483  11.629
87261SOL    HW263681   3.015  12.366  11.550
87262SOL     OW63682  11.578   3.277   7.839
87262SOL    HW163683  11.519   3.274   7.764
87262SOL    HW263684  11.523   3.302   7.913
87263SOL     OW63685   6.520  12.076   3.150
87263SOL    HW163686   6.475  12.009   3.098
87263SOL    HW263687   6.480  12.159   3.123
87264SOL     OW63688   7.498  10.345   8.544
87264SOL    HW163689   7.418  10.294   8.553
87264SOL    HW263690   7.562  10.282   8.508
87265SOL     OW63691   5.578  13.783   3.463
87265SOL    HW163692   5.498  13.794   3.410
87265SOL    HW263693   5.642  13.748   3.401
87266SOL     OW63694   1.846  13.240   9.119
87266SOL    HW163695   1.822  13.258   9.028
87266SOL    HW263696   1.941  13.230   9.117
87267SOL     OW63697   2.297   0.299   4.573
87267SOL    HW163698   2.286   0.276   4.666
87267SOL    HW263699   2.268   0.222   4.526
87268SOL     OW63700   9.399  10.557  14.547
87268SOL    HW163701   9.379  10.472  14.508
87268SOL    HW263702   9.317  10.606  14.540
87269SOL     OW63703   3.305  13.339  14.647
87269SOL    HW163704   3.282  13.401  14.578
87269SOL    HW263705   3.221  13.300  14.673
87270SOL     OW63706   9.995   8.145  13.782
87270SOL    HW163707  10.026   8.064  13.743
87270SOL    HW263708   9.921   8.171  13.727
87271SOL     OW63709  11.500  13.136  10.448
87271SOL    HW163710  11.568  13.102  10.506
87271SOL    HW263711  11.481  13.223  10.481
87272SOL     OW63712  14.794  10.665   9.867
87272SOL    HW163713  14.773  10.745   9.818
87272SOL    HW263714  14.758  10.594   9.813
87273SOL     OW63715  13.099   2.066  12.452
87273SOL    HW163716  13.158   2.103  12.518
87273SOL    HW263717  13.051   1.998  12.498
87274SOL     OW63718   5.622   4.633   3.940
87274SOL    HW163719   5.535   4.641   3.979
87274SOL    HW263720   5.682   4.648   4.012
87275SOL     OW63721  11.778   6.499   5.968
87275SOL    HW163722  11.702   6.441   5.972
87275SOL    HW263723  11.788   6.532   6.057
87276SOL     OW63724   4.907   5.039   2.404
87276SOL    HW163725   4.894   5.133   2.417
87276SOL    HW263726   5.002   5.028   2.407
87277SOL     OW63727  14.013   3.627   3.821
87277SOL    HW163728  14.066   3.681   3.763
87277SOL    HW263729  13.962   3.690   3.872
87278SOL     OW63730  14.556  10.875   5.091
87278SOL    HW163731  14.525  10.906   5.176
87278SOL    HW263732  14.520  10.787   5.083
87279SOL     OW63733  12.310  12.767   5.959
87279SOL    HW163734  12.371  12.721   5.901
87279SOL    HW263735  12.365  12.807   6.026
87280SOL     OW63736   4.607   9.552  11.825
87280SOL    HW163737   4.574   9.631  11.866
87280SOL    HW263738   4.702   9.565  11.820
87281SOL     OW63739  14.454   4.753  13.171
87281SOL    HW163740  14.435   4.706  13.090
87281SOL    HW263741  14.401   4.832  13.166
87282SOL     OW63742   5.053   8.027  13.566
87282SOL    HW163743   4.959   8.031  13.548
87282SOL    HW263744   5.094   8.051  13.482
87283SOL     OW63745  11.039   1.309   8.482
87283SOL    HW163746  10.999   1.391   8.453
87283SOL    HW263747  10.998   1.291   8.566
87284SOL     OW63748  14.715  14.136  11.846
87284SOL    HW163749  14.726  14.215  11.900
87284SOL    HW263750  14.628  14.103  11.869
87285SOL     OW63751   4.536   5.139   3.889
87285SOL    HW163752   4.600   5.101   3.830
87285SOL    HW263753   4.505   5.218   3.844
87286SOL     OW63754  13.406  11.540   6.284
87286SOL    HW163755  13.448  11.610   6.235
87286SOL    HW263756  13.454  11.461   6.259
87287SOL     OW63757   4.755   5.465   4.514
87287SOL    HW163758   4.839   5.437   4.551
87287SOL    HW263759   4.700   5.386   4.516
87288SOL     OW63760   7.926   4.505   1.595
87288SOL    HW163761   7.833   4.519   1.578
87288SOL    HW263762   7.929   4.437   1.662
87289SOL     OW63763   4.406   8.107   3.196
87289SOL    HW163764   4.396   8.166   3.121
87289SOL    HW263765   4.496   8.076   3.191
87290SOL     OW63766  12.102  12.795  13.996
87290SOL    HW163767  12.069  12.729  13.935
87290SOL    HW263768  12.196  12.799  13.978
87291SOL     OW63769  10.443  13.677   3.837
87291SOL    HW163770  10.433  13.760   3.885
87291SOL    HW263771  10.353  13.644   3.828
87292SOL     OW63772   4.082  11.802   5.484
87292SOL    HW163773   4.049  11.882   5.443
87292SOL    HW263774   4.028  11.732   5.447
87293SOL     OW63775   1.499   1.792   1.511
87293SOL    HW163776   1.424   1.795   1.452
87293SOL    HW263777   1.574   1.776   1.453
87294SOL     OW63778   9.808   4.430  11.443
87294SOL    HW163779   9.737   4.481  11.483
87294SOL    HW263780   9.768   4.389  11.367
87295SOL     OW63781   4.723   4.523  10.695
87295SOL    HW163782   4.693   4.577  10.767
87295SOL    HW263783   4.818   4.517  10.706
87296SOL     OW63784   1.119   1.197   8.564
87296SOL    HW163785   1.151   1.163   8.480
87296SOL    HW263786   1.136   1.127   8.627
87297SOL     OW63787  13.593   7.711  13.387
87297SOL    HW163788  13.498   7.710  13.396
87297SOL    HW263789  13.613   7.793  13.342
87298SOL     OW63790   5.838   4.438   6.147
87298SOL    HW163791   5.748   4.423   6.174
87298SOL    HW263792   5.876   4.491   6.217
87299SOL     OW63793   9.289  14.384   3.194
87299SOL    HW163794   9.340  14.353   3.119
87299SOL    HW263795   9.199  14.389   3.161
87300SOL     OW63796  11.072   4.293  13.094
87300SOL    HW163797  11.085   4.388  13.101
87300SOL    HW263798  11.137   4.264  13.030
87301SOL     OW63799   7.097   9.340  13.139
87301SOL    HW163800   7.124   9.297  13.220
87301SOL    HW263801   7.102   9.271  13.073
87302SOL     OW63802  14.637   3.352   5.521
87302SOL    HW163803  14.649   3.431   5.574
87302SOL    HW263804  14.623   3.385   5.432
87303SOL     OW63805   3.160  14.532  10.968
87303SOL    HW163806   3.102  14.559  10.896
87303SOL    HW263807   3.103  14.484  11.028
87304SOL     OW63808  10.300   9.857  11.709
87304SOL    HW163809  10.245   9.867  11.631
87304SOL    HW263810  10.237   9.851  11.781
87305SOL     OW63811   3.570   2.563   8.315
87305SOL    HW163812   3.590   2.551   8.408
87305SOL    HW263813   3.649   2.605   8.279
87306SOL     OW63814   3.385  13.433   8.093
87306SOL    HW163815   3.393  13.345   8.130
87306SOL    HW263816   3.301  13.465   8.126
87307SOL     OW63817   3.034  14.704  13.363
87307SOL    HW163818   3.108  14.712  13.303
87307SOL    HW263819   2.977  14.639  13.322
87308SOL     OW63820   8.756   0.164   6.895
87308SOL    HW163821   8.758   0.249   6.852
87308SOL    HW263822   8.664   0.150   6.917
87309SOL     OW63823  12.392   9.912  13.112
87309SOL    HW163824  12.427   9.924  13.024
87309SOL    HW263825  12.387  10.001  13.148
87310SOL     OW63826   2.886   0.831   2.400
87310SOL    HW163827   2.841   0.752   2.430
87310SOL    HW263828   2.843   0.902   2.447
87311SOL     OW63829   7.014   5.216   0.528
87311SOL    HW163830   7.021   5.311   0.516
87311SOL    HW263831   7.058   5.200   0.612
87312SOL     OW63832   7.582   0.104   0.170
87312SOL    HW163833   7.554   0.109   0.261
87312SOL    HW263834   7.518   0.046   0.129
87313SOL     OW63835   3.106  11.329   9.970
87313SOL    HW163836   3.099  11.377   9.887
87313SOL    HW263837   3.061  11.384  10.034
87314SOL     OW63838   3.306   5.820  13.503
87314SOL    HW163839   3.350   5.868  13.573
87314SOL    HW263840   3.281   5.737  13.543
87315SOL     OW63841   0.765   2.411  12.643
87315SOL    HW163842   0.788   2.443  12.555
87315SOL    HW263843   0.703   2.340  12.627
87316SOL     OW63844  12.349   4.515  11.154
87316SOL    HW163845  12.409   4.497  11.227
87316SOL    HW263846  12.310   4.431  11.134
87317SOL     OW63847   0.944   3.962   2.241
87317SOL    HW163848   0.858   3.998   2.262
87317SOL    HW263849   0.981   4.024   2.178
87318SOL     OW63850  10.379   8.727   1.539
87318SOL    HW163851  10.447   8.749   1.476
87318SOL    HW263852  10.301   8.710   1.486
87319SOL     OW63853   0.912  11.755   7.847
87319SOL    HW163854   0.964  11.745   7.767
87319SOL    HW263855   0.829  11.790   7.817
87320SOL     OW63856   8.488  14.840   7.428
87320SOL    HW163857   8.429  14.872   7.497
87320SOL    HW263858   8.489  14.745   7.440
87321SOL     OW63859  12.104   8.584   6.435
87321SOL    HW163860  12.169   8.534   6.484
87321SOL    HW263861  12.102   8.669   6.478
87322SOL     OW63862  11.220   0.049  13.700
87322SOL    HW163863  11.257  14.869  13.635
87322SOL    HW263864  11.138   0.080  13.660
87323SOL     OW63865  14.806  12.495   3.997
87323SOL    HW163866  14.800  12.433   4.070
87323SOL    HW263867  14.847  12.573   4.035
87324SOL     OW63868   4.179  10.465   6.502
87324SOL    HW163869   4.097  10.495   6.462
87324SOL    HW263870   4.247  10.492   6.439
87325SOL     OW63871   4.494   6.381  12.427
87325SOL    HW163872   4.427   6.365  12.493
87325SOL    HW263873   4.478   6.316  12.359
87326SOL     OW63874   7.776   6.199  14.122
87326SOL    HW163875   7.786   6.288  14.154
87326SOL    HW263876   7.690   6.171  14.154
87327SOL     OW63877   1.858  14.352  13.993
87327SOL    HW163878   1.782  14.331  13.939
87327SOL    HW263879   1.933  14.343  13.933
87328SOL     OW63880   9.709   8.276   7.659
87328SOL    HW163881   9.670   8.259   7.745
87328SOL    HW263882   9.799   8.305   7.679
87329SOL     OW63883  13.591   3.171   3.319
87329SOL    HW163884  13.539   3.093   3.297
87329SOL    HW263885  13.570   3.188   3.410
87330SOL     OW63886   9.518  14.466   7.874
87330SOL    HW163887   9.488  14.557   7.872
87330SOL    HW263888   9.455  14.419   7.820
87331SOL     OW63889   4.145   0.717   5.193
87331SOL    HW163890   4.066   0.676   5.158
87331SOL    HW263891   4.216   0.678   5.141
87332SOL     OW63892  13.844   2.131  12.258
87332SOL    HW163893  13.877   2.096  12.175
87332SOL    HW263894  13.918   2.124  12.318
87333SOL     OW63895   8.575   5.223   7.257
87333SOL    HW163896   8.654   5.169   7.245
87333SOL    HW263897   8.580   5.288   7.186
87334SOL     OW63898   1.729   9.211  10.150
87334SOL    HW163899   1.644   9.168  10.143
87334SOL    HW263900   1.715   9.282  10.212
87335SOL     OW63901  11.707   9.583   4.510
87335SOL    HW163902  11.784   9.615   4.557
87335SOL    HW263903  11.707   9.488   4.525
87336SOL     OW63904   5.526   8.008  10.757
87336SOL    HW163905   5.547   7.930  10.705
87336SOL    HW263906   5.433   8.023  10.741
87337SOL     OW63907   3.136   8.069   9.238
87337SOL    HW163908   3.181   8.153   9.234
87337SOL    HW263909   3.060   8.079   9.180
87338SOL     OW63910   4.636  12.967  10.156
87338SOL    HW163911   4.710  12.935  10.104
87338SOL    HW263912   4.677  13.007  10.233
87339SOL     OW63913  11.899   0.378   9.912
87339SOL    HW163914  11.974   0.417   9.868
87339SOL    HW263915  11.936   0.310   9.968
87340SOL     OW63916  10.703   7.213   7.165
87340SOL    HW163917  10.634   7.215   7.098
87340SOL    HW263918  10.759   7.140   7.139
87341SOL     OW63919  11.642   0.441   5.149
87341SOL    HW163920  11.614   0.417   5.238
87341SOL    HW263921  11.656   0.358   5.105
87342SOL     OW63922   0.199   9.587  14.052
87342SOL    HW163923   0.228   9.496  14.053
87342SOL    HW263924   0.105   9.582  14.070
87343SOL     OW63925   2.710  14.025  13.393
87343SOL    HW163926   2.745  14.080  13.463
87343SOL    HW263927   2.658  13.958  13.439
87344SOL     OW63928   9.343  11.897  14.599
87344SOL    HW163929   9.425  11.847  14.597
87344SOL    HW263930   9.297  11.870  14.519
87345SOL     OW63931   1.290  11.357   8.526
87345SOL    HW163932   1.300  11.432   8.585
87345SOL    HW263933   1.338  11.382   8.448
87346SOL     OW63934  13.965   8.278  14.529
87346SOL    HW163935  13.930   8.293  14.441
87346SOL    HW263936  13.887   8.272  14.585
87347SOL     OW63937  13.142  12.541   4.183
87347SOL    HW163938  13.122  12.600   4.110
87347SOL    HW263939  13.069  12.553   4.244
87348SOL     OW63940  13.269   6.456   0.295
87348SOL    HW163941  13.339   6.431   0.355
87348SOL    HW263942  13.196   6.478   0.352
87349SOL     OW63943   6.141   1.982  10.226
87349SOL    HW163944   6.063   2.016  10.271
87349SOL    HW263945   6.134   1.887  10.235
87350SOL     OW63946  12.250   3.727   1.945
87350SOL    HW163947  12.338   3.747   1.977
87350SOL    HW263948  12.232   3.640   1.980
87351SOL     OW63949  14.438   3.554  14.290
87351SOL    HW163950  14.373   3.585  14.227
87351SOL    HW263951  14.491   3.632  14.309
87352SOL     OW63952  10.547  11.969   9.790
87352SOL    HW163953  10.477  11.913   9.756
87352SOL    HW263954  10.623  11.949   9.734
87353SOL     OW63955   3.778   7.480   1.914
87353SOL    HW163956   3.731   7.522   1.842
87353SOL    HW263957   3.736   7.394   1.923
87354SOL     OW63958   8.671   3.388  13.077
87354SOL    HW163959   8.600   3.425  13.024
87354SOL    HW263960   8.627   3.349  13.152
87355SOL     OW63961  14.202   1.536  11.862
87355SOL    HW163962  14.154   1.456  11.884
87355SOL    HW263963  14.206   1.536  11.767
87356SOL     OW63964  10.010  13.510  11.978
87356SOL    HW163965  10.008  13.511  11.882
87356SOL    HW263966  10.013  13.417  12.000
87357SOL     OW63967   0.160   0.181   0.122
87357SOL    HW163968   0.179   0.210   0.033
87357SOL    HW263969   0.079   0.130   0.113
87358SOL     OW63970   2.876   1.436  11.733
87358SOL    HW163971   2.787   1.402  11.720
87358SOL    HW263972   2.864   1.529  11.749
87359SOL     OW63973  12.369   0.960   4.642
87359SOL    HW163974  12.297   0.936   4.584
87359SOL    HW263975  12.428   1.011   4.588
87360SOL     OW63976   2.359   6.037   6.547
87360SOL    HW163977   2.438   6.089   6.532
87360SOL    HW263978   2.376   5.954   6.503
87361SOL     OW63979   7.309  12.143   5.809
87361SOL    HW163980   7.217  12.161   5.827
87361SOL    HW263981   7.308  12.065   5.753
87362SOL     OW63982   4.701   1.648   1.210
87362SOL    HW163983   4.683   1.739   1.231
87362SOL    HW263984   4.686   1.601   1.293
87363SOL     OW63985   7.547   2.357   9.180
87363SOL    HW163986   7.473   2.330   9.233
87363SOL    HW263987   7.514   2.354   9.090
87364SOL     OW63988   3.529   5.385  11.755
87364SOL    HW163989   3.458   5.432  11.711
87364SOL    HW263990   3.605   5.441  11.745
87365SOL     OW63991   2.405   3.959  10.774
87365SOL    HW163992   2.440   3.931  10.858
87365SOL    HW263993   2.311   3.970  10.789
87366SOL     OW63994  10.124   0.866   5.389
87366SOL    HW163995  10.100   0.824   5.306
87366SOL    HW263996  10.171   0.945   5.364
87367SOL     OW63997   1.508  14.222   2.629
87367SOL    HW163998   1.582  14.235   2.570
87367SOL    HW263999   1.431  14.235   2.573
87368SOL     OW64000  13.742   4.647  10.882
87368SOL    HW164001  13.679   4.634  10.811
87368SOL    HW264002  13.798   4.719  10.852
87369SOL     OW64003   8.425   4.089   8.894
87369SOL    HW164004   8.479   4.106   8.971
87369SOL    HW264005   8.343   4.134   8.913
87370SOL     OW64006   0.407  10.545  10.008
87370SOL    HW164007   0.319  10.579  10.027
87370SOL    HW264008   0.400  10.451  10.022
87371SOL     OW64009   6.074   2.421  11.079
87371SOL    HW164010   6.048   2.513  11.071
87371SOL    HW264011   6.019   2.375  11.016
87372SOL     OW64012  10.351   6.513   1.647
87372SOL    HW164013  10.367   6.569   1.722
87372SOL    HW264014  10.388   6.428   1.672
87373SOL     OW64015  12.037  14.447   1.417
87373SOL    HW164016  12.046  14.387   1.492
87373SOL    HW264017  11.943  14.466   1.413
87374SOL     OW64018   3.784  10.687   6.129
87374SOL    HW164019   3.802  10.601   6.165
87374SOL    HW264020   3.688  10.692   6.125
87375SOL     OW64021   5.410   0.170   2.793
87375SOL    HW164022   5.385   0.236   2.857
87375SOL    HW264023   5.501   0.149   2.814
87376SOL     OW64024   7.724   8.915  11.578
87376SOL    HW164025   7.653   8.917  11.513
87376SOL    HW264026   7.758   8.826  11.575
87377SOL     OW64027   2.015   3.811   6.101
87377SOL    HW164028   1.951   3.862   6.150
87377SOL    HW264029   1.981   3.721   6.103
87378SOL     OW64030  13.741   4.232   1.239
87378SOL    HW164031  13.745   4.221   1.144
87378SOL    HW264032  13.766   4.146   1.274
87379SOL     OW64033  13.161   1.851  14.746
87379SOL    HW164034  13.145   1.808  14.662
87379SOL    HW264035  13.075   1.878  14.777
87380SOL     OW64036   7.977   8.763  11.794
87380SOL    HW164037   7.938   8.846  11.822
87380SOL    HW264038   8.024   8.732  11.871
87381SOL     OW64039   7.454   5.041   4.603
87381SOL    HW164040   7.368   5.051   4.562
87381SOL    HW264041   7.501   4.981   4.545
87382SOL     OW64042   3.119   6.691   0.334
87382SOL    HW164043   3.173   6.768   0.314
87382SOL    HW264044   3.147   6.625   0.271
87383SOL     OW64045   7.065   4.825   6.827
87383SOL    HW164046   7.149   4.779   6.833
87383SOL    HW264047   7.068   4.869   6.742
87384SOL     OW64048   3.923   0.809   2.076
87384SOL    HW164049   4.003   0.756   2.078
87384SOL    HW264050   3.923   0.857   2.159
87385SOL     OW64051  13.376  14.860  10.778
87385SOL    HW164052  13.297  14.870  10.831
87385SOL    HW264053  13.420   0.065  10.785
87386SOL     OW64054  14.085   4.184   9.754
87386SOL    HW164055  14.060   4.276   9.753
87386SOL    HW264056  14.053   4.149   9.671
87387SOL     OW64057   5.186  10.078   7.338
87387SOL    HW164058   5.126  10.117   7.402
87387SOL    HW264059   5.157  10.113   7.253
87388SOL     OW64060  13.943  13.906   5.021
87388SOL    HW164061  13.854  13.929   4.994
87388SOL    HW264062  13.998  13.936   4.948
87389SOL     OW64063   2.922   0.049   6.005
87389SOL    HW164064   2.831   0.020   6.003
87389SOL    HW264065   2.930   0.097   6.088
87390SOL     OW64066   6.378   6.426  11.094
87390SOL    HW164067   6.369   6.508  11.046
87390SOL    HW264068   6.430   6.449  11.172
87391SOL     OW64069   2.400   4.736  12.732
87391SOL    HW164070   2.462   4.756  12.802
87391SOL    HW264071   2.428   4.651  12.699
87392SOL     OW64072   3.281   0.787   2.148
87392SOL    HW164073   3.317   0.754   2.066
87392SOL    HW264074   3.300   0.881   2.147
87393SOL     OW64075  11.993   5.308   6.567
87393SOL    HW164076  12.000   5.394   6.608
87393SOL    HW264077  11.906   5.307   6.528
87394SOL     OW64078   3.614  11.471  14.094
87394SOL    HW164079   3.664  11.533  14.040
87394SOL    HW264080   3.532  11.458  14.046
87395SOL     OW64081   4.154  13.806   5.135
87395SOL    HW164082   4.114  13.824   5.220
87395SOL    HW264083   4.222  13.873   5.126
87396SOL     OW64084  13.610  11.606  10.286
87396SOL    HW164085  13.549  11.548  10.240
87396SOL    HW264086  13.561  11.637  10.362
87397SOL     OW64087   7.671  14.090  11.088
87397SOL    HW164088   7.722  14.114  11.165
87397SOL    HW264089   7.735  14.091  11.016
87398SOL     OW64090   5.516  14.295   9.733
87398SOL    HW164091   5.445  14.360   9.732
87398SOL    HW264092   5.576  14.327   9.800
87399SOL     OW64093  11.920   0.350   5.241
87399SOL    HW164094  11.873   0.318   5.318
87399SOL    HW264095  11.864   0.420   5.206
87400SOL     OW64096   2.794   9.930   2.333
87400SOL    HW164097   2.783   9.892   2.247
87400SOL    HW264098   2.887   9.921   2.352
87401SOL     OW64099   8.532   1.724   8.910
87401SOL    HW164100   8.489   1.642   8.886
87401SOL    HW264101   8.612   1.725   8.856
87402SOL     OW64102   6.119  12.297  14.301
87402SOL    HW164103   6.024  12.287  14.300
87402SOL    HW264104   6.144  12.280  14.392
87403SOL     OW64105   4.434   3.937  12.705
87403SOL    HW164106   4.488   3.992  12.648
87403SOL    HW264107   4.385   3.999  12.759
87404SOL     OW64108  10.106   8.851   8.383
87404SOL    HW164109  10.090   8.856   8.289
87404SOL    HW264110  10.052   8.922   8.420
87405SOL     OW64111  14.808   0.750  13.758
87405SOL    HW164112  14.877   0.807  13.791
87405SOL    HW264113  14.850   0.694  13.693
87406SOL     OW64114   5.380  11.800  11.346
87406SOL    HW164115   5.294  11.841  11.354
87406SOL    HW264116   5.361  11.706  11.339
87407SOL     OW64117   4.500   6.527  12.763
87407SOL    HW164118   4.562   6.455  12.763
87407SOL    HW264119   4.499   6.558  12.853
87408SOL     OW64120   8.049   5.098   7.620
87408SOL    HW164121   8.003   5.054   7.691
87408SOL    HW264122   8.052   5.034   7.549
87409SOL     OW64123   1.510  13.728   0.796
87409SOL    HW164124   1.509  13.638   0.830
87409SOL    HW264125   1.602  13.754   0.799
87410SOL     OW64126   7.679   7.988   8.612
87410SOL    HW164127   7.596   8.029   8.591
87410SOL    HW264128   7.697   8.015   8.702
87411SOL     OW64129   1.406   2.192   4.156
87411SOL    HW164130   1.359   2.122   4.111
87411SOL    HW264131   1.343   2.264   4.161
87412SOL     OW64132   9.777   3.432   1.866
87412SOL    HW164133   9.871   3.450   1.863
87412SOL    HW264134   9.769   3.359   1.927
87413SOL     OW64135  10.771   6.100   2.880
87413SOL    HW164136  10.694   6.079   2.932
87413SOL    HW264137  10.756   6.058   2.795
87414SOL     OW64138   7.860  10.547   1.276
87414SOL    HW164139   7.899  10.601   1.207
87414SOL    HW264140   7.774  10.522   1.242
87415SOL     OW64141  14.281  13.569   4.012
87415SOL    HW164142  14.205  13.604   3.966
87415SOL    HW264143  14.349  13.564   3.946
87416SOL     OW64144   0.119   9.024   1.069
87416SOL    HW164145   0.100   9.049   0.978
87416SOL    HW264146   0.201   8.974   1.063
87417SOL     OW64147   7.369  11.329   2.131
87417SOL    HW164148   7.456  11.346   2.168
87417SOL    HW264149   7.364  11.384   2.054
87418SOL     OW64150   4.674   5.322  14.429
87418SOL    HW164151   4.696   5.407  14.466
87418SOL    HW264152   4.617   5.282  14.494
87419SOL     OW64153   5.761   3.554   8.173
87419SOL    HW164154   5.729   3.572   8.262
87419SOL    HW264155   5.735   3.463   8.156
87420SOL     OW64156  13.189   4.109   0.161
87420SOL    HW164157  13.214   4.030   0.113
87420SOL    HW264158  13.255   4.174   0.138
87421SOL     OW64159   2.987   3.736   3.175
87421SOL    HW164160   2.915   3.798   3.160
87421SOL    HW264161   2.981   3.716   3.269
87422SOL     OW64162  13.671   9.861   8.394
87422SOL    HW164163  13.693   9.778   8.437
87422SOL    HW264164  13.736   9.923   8.428
87423SOL     OW64165   9.521   6.629  12.067
87423SOL    HW164166   9.441   6.680  12.054
87423SOL    HW264167   9.582   6.690  12.108
87424SOL     OW64168   7.477   6.245  11.970
87424SOL    HW164169   7.461   6.268  11.879
87424SOL    HW264170   7.571   6.227  11.974
87425SOL     OW64171   7.878  11.421   9.340
87425SOL    HW164172   7.829  11.347   9.377
87425SOL    HW264173   7.868  11.411   9.245
87426SOL     OW64174   1.791   6.018  10.792
87426SOL    HW164175   1.787   5.923  10.789
87426SOL    HW264176   1.841   6.037  10.872
87427SOL     OW64177   2.570   2.959  11.042
87427SOL    HW164178   2.491   2.978  11.092
87427SOL    HW264179   2.555   2.999  10.957
87428SOL     OW64180   3.594   3.081   6.857
87428SOL    HW164181   3.658   3.150   6.837
87428SOL    HW264182   3.566   3.050   6.771
87429SOL     OW64183   2.972   3.683   6.759
87429SOL    HW164184   3.006   3.598   6.732
87429SOL    HW264185   2.997   3.742   6.688
87430SOL     OW64186   1.925  10.811   1.762
87430SOL    HW164187   1.916  10.793   1.855
87430SOL    HW264188   1.872  10.745   1.718
87431SOL     OW64189  10.439   3.214   0.627
87431SOL    HW164190  10.367   3.238   0.685
87431SOL    HW264191  10.503   3.172   0.684
87432SOL     OW64192  10.471   6.040   9.832
87432SOL    HW164193  10.446   6.124   9.870
87432SOL    HW264194  10.389   5.997   9.811
87433SOL     OW64195  11.952  14.708  14.341
87433SOL    HW164196  11.904  14.774  14.291
87433SOL    HW264197  12.041  14.743  14.346
87434SOL     OW64198   0.812   8.792  12.875
87434SOL    HW164199   0.812   8.877  12.832
87434SOL    HW264200   0.881   8.799  12.941
87435SOL     OW64201  13.177   1.508  10.593
87435SOL    HW164202  13.085   1.531  10.605
87435SOL    HW264203  13.209   1.567  10.525
87436SOL     OW64204  14.581  11.640  11.458
87436SOL    HW164205  14.666  11.669  11.493
87436SOL    HW264206  14.543  11.588  11.529
87437SOL     OW64207  10.168   9.835   3.367
87437SOL    HW164208  10.142   9.888   3.291
87437SOL    HW264209  10.086   9.797   3.399
87438SOL     OW64210   7.108  14.597  12.309
87438SOL    HW164211   7.129  14.689  12.327
87438SOL    HW264212   7.183  14.566  12.258
87439SOL     OW64213   1.231   8.780   5.170
87439SOL    HW164214   1.191   8.723   5.104
87439SOL    HW264215   1.285   8.840   5.120
87440SOL     OW64216   4.965  10.943   9.731
87440SOL    HW164217   5.010  10.925   9.649
87440SOL    HW264218   4.987  10.869   9.787
87441SOL     OW64219   5.066  11.304  10.281
87441SOL    HW164220   5.150  11.275  10.317
87441SOL    HW264221   5.039  11.377  10.337
87442SOL     OW64222  14.662   8.274   3.412
87442SOL    HW164223  14.717   8.196   3.407
87442SOL    HW264224  14.723   8.347   3.414
87443SOL     OW64225   3.868   7.322  13.314
87443SOL    HW164226   3.909   7.305  13.399
87443SOL    HW264227   3.923   7.276  13.251
87444SOL     OW64228   5.767  14.855   7.323
87444SOL    HW164229   5.735  14.809   7.245
87444SOL    HW264230   5.771  14.787   7.390
87445SOL     OW64231  10.223   9.638  14.173
87445SOL    HW164232  10.243   9.555  14.131
87445SOL    HW264233  10.239   9.623  14.266
87446SOL     OW64234   2.101  11.033  10.715
87446SOL    HW164235   2.175  11.013  10.772
87446SOL    HW264236   2.120  11.120  10.681
87447SOL     OW64237  13.551   6.977   5.118
87447SOL    HW164238  13.642   6.950   5.108
87447SOL    HW264239  13.519   6.987   5.028
87448SOL     OW64240   9.592   2.585  12.875
87448SOL    HW164241   9.645   2.654  12.834
87448SOL    HW264242   9.513   2.630  12.906
87449SOL     OW64243   7.696   2.146   4.698
87449SOL    HW164244   7.697   2.106   4.785
87449SOL    HW264245   7.746   2.227   4.708
87450SOL     OW64246   2.185  12.194   7.608
87450SOL    HW164247   2.153  12.228   7.692
87450SOL    HW264248   2.124  12.124   7.586
87451SOL     OW64249  13.288   5.387   4.514
87451SOL    HW164250  13.376   5.373   4.550
87451SOL    HW264251  13.303   5.409   4.422
87452SOL     OW64252   4.740   1.632   7.995
87452SOL    HW164253   4.723   1.671   7.909
87452SOL    HW264254   4.824   1.669   8.022
87453SOL     OW64255   4.189   1.912   4.490
87453SOL    HW164256   4.159   1.923   4.400
87453SOL    HW264257   4.271   1.960   4.494
87454SOL     OW64258  14.380  14.496   8.162
87454SOL    HW164259  14.318  14.497   8.089
87454SOL    HW264260  14.384  14.588   8.191
87455SOL     OW64261   1.129  14.153   2.115
87455SOL    HW164262   1.062  14.196   2.063
87455SOL    HW264263   1.091  14.147   2.203
87456SOL     OW64264  11.317   0.860  10.460
87456SOL    HW164265  11.259   0.900  10.396
87456SOL    HW264266  11.276   0.777  10.482
87457SOL     OW64267   6.770   7.469   4.703
87457SOL    HW164268   6.736   7.379   4.700
87457SOL    HW264269   6.691   7.523   4.697
87458SOL     OW64270   6.415  12.178   0.452
87458SOL    HW164271   6.388  12.235   0.380
87458SOL    HW264272   6.338  12.174   0.510
87459SOL     OW64273   1.239   3.339   4.407
87459SOL    HW164274   1.226   3.271   4.342
87459SOL    HW264275   1.323   3.318   4.448
87460SOL     OW64276  10.768   2.310  13.642
87460SOL    HW164277  10.737   2.325  13.553
87460SOL    HW264278  10.805   2.394  13.670
87461SOL     OW64279   2.898   7.107   1.521
87461SOL    HW164280   2.845   7.185   1.537
87461SOL    HW264281   2.895   7.095   1.426
87462SOL     OW64282  11.201   8.786  11.565
87462SOL    HW164283  11.212   8.709  11.510
87462SOL    HW264284  11.108   8.787  11.587
87463SOL     OW64285   4.117  10.818   8.687
87463SOL    HW164286   4.159  10.752   8.631
87463SOL    HW264287   4.034  10.837   8.643
87464SOL     OW64288   6.132  14.439  13.299
87464SOL    HW164289   6.054  14.465  13.348
87464SOL    HW264290   6.195  14.411  13.365
87465SOL     OW64291  10.720  11.846   3.717
87465SOL    HW164292  10.775  11.854   3.639
87465SOL    HW264293  10.780  11.859   3.790
87466SOL     OW64294   7.452   5.003   7.782
87466SOL    HW164295   7.489   5.070   7.723
87466SOL    HW264296   7.504   5.011   7.862
87467SOL     OW64297   7.114   8.172   7.183
87467SOL    HW164298   7.116   8.091   7.234
87467SOL    HW264299   7.065   8.149   7.104
87468SOL     OW64300   0.737   2.491  11.763
87468SOL    HW164301   0.818   2.469  11.809
87468SOL    HW264302   0.685   2.539  11.828
87469SOL     OW64303   6.590   8.181  11.404
87469SOL    HW164304   6.545   8.157  11.323
87469SOL    HW264305   6.679   8.202  11.377
87470SOL     OW64306   3.529  14.712  10.173
87470SOL    HW164307   3.494  14.741  10.257
87470SOL    HW264308   3.613  14.670  10.196
87471SOL     OW64309   3.256   5.906   3.153
87471SOL    HW164310   3.255   5.816   3.187
87471SOL    HW264311   3.347   5.921   3.127
87472SOL     OW64312   1.207   9.854   6.833
87472SOL    HW164313   1.160   9.921   6.784
87472SOL    HW264314   1.169   9.856   6.921
87473SOL     OW64315   1.350  10.210   4.468
87473SOL    HW164316   1.355  10.210   4.373
87473SOL    HW264317   1.299  10.288   4.489
87474SOL     OW64318  12.741   1.974   4.764
87474SOL    HW164319  12.824   1.996   4.723
87474SOL    HW264320  12.764   1.921   4.839
87475SOL     OW64321   1.428  10.959  13.774
87475SOL    HW164322   1.467  10.965  13.687
87475SOL    HW264323   1.498  10.922  13.829
87476SOL     OW64324  12.344  13.612   1.588
87476SOL    HW164325  12.379  13.532   1.628
87476SOL    HW264326  12.252  13.615   1.616
87477SOL     OW64327  13.575   1.512  14.436
87477SOL    HW164328  13.624   1.532  14.515
87477SOL    HW264329  13.511   1.582  14.428
87478SOL     OW64330   2.480   5.783   9.305
87478SOL    HW164331   2.476   5.716   9.372
87478SOL    HW264332   2.389   5.813   9.295
87479SOL     OW64333   8.159  12.989   6.239
87479SOL    HW164334   8.100  13.036   6.181
87479SOL    HW264335   8.145  13.027   6.325
87480SOL     OW64336   0.526   8.186   5.366
87480SOL    HW164337   0.607   8.146   5.332
87480SOL    HW264338   0.520   8.270   5.320
87481SOL     OW64339   6.806   8.920   4.051
87481SOL    HW164340   6.827   8.850   4.112
87481SOL    HW264341   6.834   9.000   4.096
87482SOL     OW64342  13.077  14.554   0.385
87482SOL    HW164343  13.166  14.548   0.421
87482SOL    HW264344  13.036  14.626   0.432
87483SOL     OW64345  11.319   6.361  10.655
87483SOL    HW164346  11.286   6.286  10.604
87483SOL    HW264347  11.243   6.392  10.704
87484SOL     OW64348   9.331  10.153   5.922
87484SOL    HW164349   9.326  10.059   5.941
87484SOL    HW264350   9.250  10.172   5.875
87485SOL     OW64351  10.996   6.822  11.102
87485SOL    HW164352  11.043   6.776  11.032
87485SOL    HW264353  10.997   6.761  11.175
87486SOL     OW64354   3.090   6.448   4.865
87486SOL    HW164355   3.183   6.466   4.851
87486SOL    HW264356   3.088   6.358   4.899
87487SOL     OW64357   8.911  10.566   5.701
87487SOL    HW164358   8.921  10.499   5.633
87487SOL    HW264359   8.985  10.551   5.760
87488SOL     OW64360   2.052   9.378  14.482
87488SOL    HW164361   2.086   9.446  14.424
87488SOL    HW264362   2.105   9.301  14.461
87489SOL     OW64363   8.487   0.214  10.633
87489SOL    HW164364   8.411   0.243  10.583
87489SOL    HW264365   8.452   0.182  10.715
87490SOL     OW64366   9.239  13.195   6.905
87490SOL    HW164367   9.209  13.111   6.872
87490SOL    HW264368   9.286  13.174   6.986
87491SOL     OW64369   2.245  13.360   5.208
87491SOL    HW164370   2.187  13.298   5.163
87491SOL    HW264371   2.331  13.343   5.171
87492SOL     OW64372   7.759   3.443   2.843
87492SOL    HW164373   7.780   3.422   2.752
87492SOL    HW264374   7.785   3.535   2.853
87493SOL     OW64375  11.923   5.912   3.381
87493SOL    HW164376  11.912   5.996   3.427
87493SOL    HW264377  12.006   5.878   3.413
87494SOL     OW64378   9.796  10.017   1.274
87494SOL    HW164379   9.798  10.081   1.202
87494SOL    HW264380   9.775   9.934   1.232
87495SOL     OW64381   4.250   1.714  12.655
87495SOL    HW164382   4.204   1.753  12.581
87495SOL    HW264383   4.341   1.707  12.627
87496SOL     OW64384  10.228  10.342   8.792
87496SOL    HW164385  10.244  10.387   8.875
87496SOL    HW264386  10.255  10.252   8.807
87497SOL     OW64387  12.700   1.990   7.977
87497SOL    HW164388  12.632   2.052   8.005
87497SOL    HW264389  12.770   2.045   7.943
87498SOL     OW64390   1.858   1.552  10.993
87498SOL    HW164391   1.924   1.620  10.983
87498SOL    HW264392   1.867   1.522  11.083
87499SOL     OW64393   0.405  13.601  10.307
87499SOL    HW164394   0.417  13.509  10.331
87499SOL    HW264395   0.370  13.642  10.386
87500SOL     OW64396   5.184   5.817  13.747
87500SOL    HW164397   5.241   5.768  13.806
87500SOL    HW264398   5.233   5.822  13.665
87501SOL     OW64399   5.101   7.447  12.873
87501SOL    HW164400   5.046   7.526  12.872
87501SOL    HW264401   5.086   7.409  12.960
87502SOL     OW64402  14.135   1.782   5.057
87502SOL    HW164403  14.139   1.718   5.129
87502SOL    HW264404  14.072   1.746   4.996
87503SOL     OW64405  12.057   3.877   7.303
87503SOL    HW164406  12.001   3.931   7.247
87503SOL    HW264407  12.021   3.789   7.295
87504SOL     OW64408  11.409   4.377   4.440
87504SOL    HW164409  11.320   4.344   4.426
87504SOL    HW264410  11.465   4.315   4.392
87505SOL     OW64411   2.667   5.785   1.671
87505SOL    HW164412   2.669   5.714   1.736
87505SOL    HW264413   2.754   5.824   1.676
87506SOL     OW64414   9.648   2.689   1.254
87506SOL    HW164415   9.578   2.754   1.260
87506SOL    HW264416   9.657   2.656   1.344
87507SOL     OW64417   4.972  10.214   9.618
87507SOL    HW164418   5.060  10.228   9.582
87507SOL    HW264419   4.915  10.267   9.562
87508SOL     OW64420   2.535  12.905  10.793
87508SOL    HW164421   2.503  12.820  10.764
87508SOL    HW264422   2.457  12.961  10.794
87509SOL     OW64423  11.231   9.624   6.291
87509SOL    HW164424  11.263   9.652   6.377
87509SOL    HW264425  11.240   9.702   6.236
87510SOL     OW64426   7.818  13.110  12.018
87510SOL    HW164427   7.912  13.097  12.004
87510SOL    HW264428   7.804  13.204  12.001
87511SOL     OW64429   5.054  11.181   4.707
87511SOL    HW164430   5.024  11.096   4.738
87511SOL    HW264431   5.091  11.163   4.620
87512SOL     OW64432   7.073  12.361   5.356
87512SOL    HW164433   7.123  12.358   5.438
87512SOL    HW264434   6.986  12.392   5.382
87513SOL     OW64435  11.076  14.340   1.847
87513SOL    HW164436  11.066  14.271   1.912
87513SOL    HW264437  11.052  14.420   1.894
87514SOL     OW64438  12.561  13.326  10.974
87514SOL    HW164439  12.603  13.408  11.000
87514SOL    HW264440  12.634  13.266  10.959
87515SOL     OW64441  14.271   1.511   3.402
87515SOL    HW164442  14.248   1.423   3.432
87515SOL    HW264443  14.350   1.533   3.451
87516SOL     OW64444   4.070  11.767  13.714
87516SOL    HW164445   4.037  11.737  13.799
87516SOL    HW264446   4.140  11.828  13.736
87517SOL     OW64447   1.762   7.018   7.855
87517SOL    HW164448   1.755   7.099   7.906
87517SOL    HW264449   1.823   6.963   7.906
87518SOL     OW64450   5.758   9.586   0.063
87518SOL    HW164451   5.752   9.617  14.852
87518SOL    HW264452   5.719   9.656   0.115
87519SOL     OW64453   4.330   4.416  14.761
87519SOL    HW164454   4.367   4.417  14.673
87519SOL    HW264455   4.242   4.453  14.749
87520SOL     OW64456   9.173   2.451   0.526
87520SOL    HW164457   9.200   2.543   0.532
87520SOL    HW264458   9.164   2.423   0.617
87521SOL     OW64459  11.938   9.665   3.442
87521SOL    HW164460  11.969   9.613   3.516
87521SOL    HW264461  12.018   9.704   3.406
87522SOL     OW64462   3.126  10.137  10.537
87522SOL    HW164463   3.101  10.053  10.497
87522SOL    HW264464   3.222  10.135  10.538
87523SOL     OW64465  13.368   7.476   9.685
87523SOL    HW164466  13.393   7.520   9.603
87523SOL    HW264467  13.304   7.410   9.658
87524SOL     OW64468  10.829  13.907  11.021
87524SOL    HW164469  10.738  13.924  10.996
87524SOL    HW264470  10.832  13.812  11.034
87525SOL     OW64471   6.382   3.894   6.223
87525SOL    HW164472   6.367   3.889   6.129
87525SOL    HW264473   6.303   3.858   6.263
87526SOL     OW64474   9.738   4.527   3.289
87526SOL    HW164475   9.814   4.575   3.324
87526SOL    HW264476   9.776   4.459   3.234
87527SOL     OW64477  11.405   9.613   7.301
87527SOL    HW164478  11.398   9.617   7.206
87527SOL    HW264479  11.426   9.703   7.327
87528SOL     OW64480   6.279   4.838   6.266
87528SOL    HW164481   6.297   4.902   6.198
87528SOL    HW264482   6.244   4.889   6.339
87529SOL     OW64483  12.631  11.108   7.964
87529SOL    HW164484  12.604  11.103   7.872
87529SOL    HW264485  12.726  11.111   7.961
87530SOL     OW64486  11.834   5.331   3.715
87530SOL    HW164487  11.897   5.261   3.698
87530SOL    HW264488  11.749   5.288   3.703
87531SOL     OW64489   8.958   8.644   4.799
87531SOL    HW164490   8.946   8.695   4.879
87531SOL    HW264491   8.882   8.585   4.796
87532SOL     OW64492   2.781   6.862   4.104
87532SOL    HW164493   2.753   6.841   4.193
87532SOL    HW264494   2.724   6.808   4.049
87533SOL     OW64495  10.842   7.315  11.515
87533SOL    HW164496  10.767   7.366  11.485
87533SOL    HW264497  10.833   7.231  11.470
87534SOL     OW64498   1.837   0.048   0.230
87534SOL    HW164499   1.794  14.847   0.259
87534SOL    HW264500   1.819   0.111   0.300
87535SOL     OW64501   8.630  11.103   7.995
87535SOL    HW164502   8.692  11.130   7.928
87535SOL    HW264503   8.550  11.151   7.975
87536SOL     OW64504  10.625   3.963  14.647
87536SOL    HW164505  10.620   3.994  14.737
87536SOL    HW264506  10.608   3.869  14.653
87537SOL     OW64507  12.294   7.192   3.941
87537SOL    HW164508  12.203   7.221   3.933
87537SOL    HW264509  12.292   7.099   3.919
87538SOL     OW64510  11.408   4.714   0.967
87538SOL    HW164511  11.331   4.714   0.910
87538SOL    HW264512  11.471   4.769   0.921
87539SOL     OW64513   3.132  13.124   2.874
87539SOL    HW164514   3.186  13.056   2.914
87539SOL    HW264515   3.043  13.106   2.904
87540SOL     OW64516   8.353  12.396   0.161
87540SOL    HW164517   8.318  12.363   0.244
87540SOL    HW264518   8.344  12.323   0.100
87541SOL     OW64519   1.426  14.760  11.708
87541SOL    HW164520   1.460  14.718  11.787
87541SOL    HW264521   1.398  14.847  11.737
87542SOL     OW64522  13.728  11.861   0.855
87542SOL    HW164523  13.688  11.824   0.777
87542SOL    HW264524  13.654  11.891   0.908
87543SOL     OW64525   1.007   1.172   6.152
87543SOL    HW164526   1.100   1.151   6.167
87543SOL    HW264527   1.008   1.259   6.113
87544SOL     OW64528  10.729  13.393   5.818
87544SOL    HW164529  10.680  13.473   5.797
87544SOL    HW264530  10.772  13.369   5.736
87545SOL     OW64531  14.803   4.631  12.311
87545SOL    HW164532  14.828   4.538  12.317
87545SOL    HW264533  14.839   4.669  12.391
87546SOL     OW64534   9.435  11.577   6.607
87546SOL    HW164535   9.351  11.570   6.651
87546SOL    HW264536   9.498  11.594   6.677
87547SOL     OW64537   1.445   7.074  10.590
87547SOL    HW164538   1.425   7.013  10.519
87547SOL    HW264539   1.471   7.018  10.663
87548SOL     OW64540   7.892  10.586  13.213
87548SOL    HW164541   7.986  10.593  13.194
87548SOL    HW264542   7.888  10.567  13.307
87549SOL     OW64543  10.163  13.039   1.788
87549SOL    HW164544  10.134  13.124   1.821
87549SOL    HW264545  10.184  12.989   1.866
87550SOL     OW64546  12.947  10.398  12.311
87550SOL    HW164547  12.967  10.329  12.375
87550SOL    HW264548  12.903  10.352  12.239
87551SOL     OW64549  13.163   5.581   4.686
87551SOL    HW164550  13.196   5.513   4.627
87551SOL    HW264551  13.072   5.557   4.702
87552SOL     OW64552  10.274  10.642   6.685
87552SOL    HW164553  10.256  10.734   6.667
87552SOL    HW264554  10.275  10.600   6.599
87553SOL     OW64555  14.103   6.618   6.114
87553SOL    HW164556  14.195   6.625   6.087
87553SOL    HW264557  14.065   6.702   6.091
87554SOL     OW64558   2.474   0.592   3.299
87554SOL    HW164559   2.556   0.559   3.334
87554SOL    HW264560   2.442   0.654   3.366
87555SOL     OW64561   9.562   3.846   8.351
87555SOL    HW164562   9.599   3.758   8.349
87555SOL    HW264563   9.468   3.833   8.363
87556SOL     OW64564   5.845   2.960   1.216
87556SOL    HW164565   5.918   2.949   1.278
87556SOL    HW264566   5.821   2.871   1.191
87557SOL     OW64567   2.489  10.070   5.148
87557SOL    HW164568   2.491  10.111   5.062
87557SOL    HW264569   2.532  10.133   5.206
87558SOL     OW64570   5.412   6.677  14.257
87558SOL    HW164571   5.347   6.744  14.280
87558SOL    HW264572   5.467   6.717  14.190
87559SOL     OW64573   6.554   8.161  11.718
87559SOL    HW164574   6.544   8.124  11.630
87559SOL    HW264575   6.471   8.143  11.761
87560SOL     OW64576   5.726   6.814   4.806
87560SOL    HW164577   5.819   6.826   4.788
87560SOL    HW264578   5.697   6.748   4.744
87561SOL     OW64579   3.030  12.594   6.535
87561SOL    HW164580   3.002  12.509   6.501
87561SOL    HW264581   3.102  12.573   6.595
87562SOL     OW64582   0.024   8.343   6.321
87562SOL    HW164583  14.875   8.432   6.338
87562SOL    HW264584  14.823   8.292   6.319
87563SOL     OW64585   0.944  11.810   8.454
87563SOL    HW164586   0.866  11.865   8.452
87563SOL    HW264587   0.985  11.823   8.368
87564SOL     OW64588   9.272   6.871  13.671
87564SOL    HW164589   9.330   6.941  13.702
87564SOL    HW264590   9.272   6.807  13.742
87565SOL     OW64591   2.714  14.861  14.529
87565SOL    HW164592   2.748  14.779  14.563
87565SOL    HW264593   2.790   0.027  14.493
87566SOL     OW64594   7.781   4.929   3.787
87566SOL    HW164595   7.697   4.897   3.754
87566SOL    HW264596   7.802   4.871   3.860
87567SOL     OW64597  14.473  12.876   2.221
87567SOL    HW164598  14.477  12.964   2.183
87567SOL    HW264599  14.383  12.847   2.206
87568SOL     OW64600  12.124  12.415  11.625
87568SOL    HW164601  12.081  12.335  11.655
87568SOL    HW264602  12.213  12.409  11.661
87569SOL     OW64603   5.507   2.118   9.204
87569SOL    HW164604   5.446   2.189   9.224
87569SOL    HW264605   5.535   2.085   9.289
87570SOL     OW64606  10.657   2.598   0.818
87570SOL    HW164607  10.730   2.618   0.760
87570SOL    HW264608  10.698   2.555   0.894
87571SOL     OW64609   2.434  11.941  12.529
87571SOL    HW164610   2.500  11.876  12.553
87571SOL    HW264611   2.375  11.894  12.470
87572SOL     OW64612   0.074   7.879   2.237
87572SOL    HW164613   0.056   7.967   2.270
87572SOL    HW264614   0.120   7.893   2.155
87573SOL     OW64615  12.675  12.125  10.024
87573SOL    HW164616  12.583  12.149  10.025
87573SOL    HW264617  12.714  12.176  10.095
87574SOL     OW64618   9.985  14.280   2.313
87574SOL    HW164619   9.898  14.241   2.321
87574SOL    HW264620   9.969  14.367   2.275
87575SOL     OW64621   9.962   8.495   0.061
87575SOL    HW164622   9.944   8.583   0.096
87575SOL    HW264623  10.011   8.511  14.860
87576SOL     OW64624   3.583   8.219   9.877
87576SOL    HW164625   3.662   8.209   9.825
87576SOL    HW264626   3.610   8.200   9.967
87577SOL     OW64627   4.312  14.092   2.287
87577SOL    HW164628   4.387  14.076   2.344
87577SOL    HW264629   4.254  14.017   2.301
87578SOL     OW64630   6.522   0.258   2.200
87578SOL    HW164631   6.458   0.329   2.208
87578SOL    HW264632   6.486   0.187   2.254
87579SOL     OW64633   1.413  14.638  10.545
87579SOL    HW164634   1.434  14.595  10.628
87579SOL    HW264635   1.432  14.730  10.561
87580SOL     OW64636   2.445   4.232   3.534
87580SOL    HW164637   2.399   4.300   3.584
87580SOL    HW264638   2.511   4.198   3.595
87581SOL     OW64639   3.113  11.186   7.453
87581SOL    HW164640   3.068  11.113   7.410
87581SOL    HW264641   3.180  11.214   7.390
87582SOL     OW64642   8.607  13.377   4.026
87582SOL    HW164643   8.513  13.368   4.017
87582SOL    HW264644   8.619  13.454   4.083
87583SOL     OW64645  14.077   0.589   5.522
87583SOL    HW164646  13.983   0.610   5.525
87583SOL    HW264647  14.095   0.574   5.430
87584SOL     OW64648  10.430   4.415   5.961
87584SOL    HW164649  10.493   4.348   5.936
87584SOL    HW264650  10.415   4.400   6.054
87585SOL     OW64651   7.648   1.027  12.793
87585SOL    HW164652   7.705   0.951  12.807
87585SOL    HW264653   7.571   0.990  12.750
87586SOL     OW64654   8.600  11.599  13.255
87586SOL    HW164655   8.513  11.595  13.295
87586SOL    HW264656   8.583  11.605  13.161
87587SOL     OW64657  13.906   3.573  12.087
87587SOL    HW164658  13.962   3.543  12.159
87587SOL    HW264659  13.963   3.570  12.010
87588SOL     OW64660   5.790  10.934  13.764
87588SOL    HW164661   5.722  10.883  13.721
87588SOL    HW264662   5.747  11.017  13.786
87589SOL     OW64663   3.039   4.140   1.155
87589SOL    HW164664   3.064   4.184   1.237
87589SOL    HW264665   2.992   4.207   1.105
87590SOL     OW64666  10.351   6.881  11.457
87590SOL    HW164667  10.304   6.809  11.501
87590SOL    HW264668  10.340   6.862  11.364
87591SOL     OW64669   0.328   1.870   2.380
87591SOL    HW164670   0.252   1.828   2.339
87591SOL    HW264671   0.298   1.892   2.468
87592SOL     OW64672   0.980   6.026   0.971
87592SOL    HW164673   0.978   6.010   1.065
87592SOL    HW264674   1.049   6.091   0.959
87593SOL     OW64675  13.194  12.440   2.742
87593SOL    HW164676  13.125  12.447   2.676
87593SOL    HW264677  13.197  12.527   2.782
87594SOL     OW64678   0.930   1.070  13.155
87594SOL    HW164679   0.933   1.108  13.243
87594SOL    HW264680   0.997   1.118  13.106
87595SOL     OW64681  11.206  13.223   3.983
87595SOL    HW164682  11.300  13.239   3.990
87595SOL    HW264683  11.166  13.306   4.007
87596SOL     OW64684  12.364   1.008   5.758
87596SOL    HW164685  12.411   0.925   5.759
87596SOL    HW264686  12.395   1.053   5.837
87597SOL     OW64687   6.919   6.922   3.134
87597SOL    HW164688   6.974   6.990   3.174
87597SOL    HW264689   6.844   6.970   3.098
87598SOL     OW64690  11.251  12.408   0.811
87598SOL    HW164691  11.281  12.353   0.884
87598SOL    HW264692  11.322  12.404   0.747
87599SOL     OW64693   5.858   9.175   2.696
87599SOL    HW164694   5.905   9.121   2.633
87599SOL    HW264695   5.838   9.115   2.769
87600SOL     OW64696   0.027   2.950  12.591
87600SOL    HW164697  14.850   2.941  12.514
87600SOL    HW264698  14.847   2.943  12.666
87601SOL     OW64699   8.794   5.995   9.926
87601SOL    HW164700   8.843   6.068   9.888
87601SOL    HW264701   8.854   5.921   9.920
87602SOL     OW64702  14.698  14.346  14.606
87602SOL    HW164703  14.611  14.377  14.632
87602SOL    HW264704  14.753  14.423  14.612
87603SOL     OW64705   3.466   7.128   3.293
87603SOL    HW164706   3.550   7.109   3.334
87603SOL    HW264707   3.404   7.069   3.336
87604SOL     OW64708   8.379   8.169  12.394
87604SOL    HW164709   8.424   8.247  12.428
87604SOL    HW264710   8.443   8.128  12.336
87605SOL     OW64711  13.552   7.812  11.346
87605SOL    HW164712  13.620   7.807  11.413
87605SOL    HW264713  13.569   7.738  11.289
87606SOL     OW64714   0.724   8.249   8.898
87606SOL    HW164715   0.665   8.298   8.841
87606SOL    HW264716   0.706   8.157   8.878
87607SOL     OW64717  12.174   0.997  11.462
87607SOL    HW164718  12.188   1.078  11.412
87607SOL    HW264719  12.198   0.927  11.402
87608SOL     OW64720  14.198  11.899   5.456
87608SOL    HW164721  14.152  11.974   5.495
87608SOL    HW264722  14.290  11.912   5.481
87609SOL     OW64723   8.134  13.328   1.321
87609SOL    HW164724   8.095  13.283   1.245
87609SOL    HW264725   8.111  13.273   1.396
87610SOL     OW64726  10.358   5.880   4.228
87610SOL    HW164727  10.395   5.914   4.310
87610SOL    HW264728  10.266   5.863   4.249
87611SOL     OW64729   1.677   2.651   4.173
87611SOL    HW164730   1.703   2.693   4.255
87611SOL    HW264731   1.740   2.579   4.163
87612SOL     OW64732   5.046   0.674  11.912
87612SOL    HW164733   5.008   0.588  11.933
87612SOL    HW264734   4.984   0.737  11.947
87613SOL     OW64735   3.474   5.089  14.278
87613SOL    HW164736   3.543   5.067  14.216
87613SOL    HW264737   3.393   5.079  14.228
87614SOL     OW64738  10.297  13.614  10.547
87614SOL    HW164739  10.217  13.664  10.563
87614SOL    HW264740  10.279  13.563  10.468
87615SOL     OW64741   9.462   3.287   4.756
87615SOL    HW164742   9.418   3.289   4.672
87615SOL    HW264743   9.466   3.379   4.783
87616SOL     OW64744  13.118  13.497   6.171
87616SOL    HW164745  13.113  13.409   6.133
87616SOL    HW264746  13.034  13.536   6.148
87617SOL     OW64747  13.849   0.539   2.034
87617SOL    HW164748  13.806   0.533   2.119
87617SOL    HW264749  13.905   0.616   2.040
87618SOL     OW64750   1.884  12.536   7.664
87618SOL    HW164751   1.890  12.460   7.607
87618SOL    HW264752   1.954  12.523   7.728
87619SOL     OW64753   0.606  11.409   2.260
87619SOL    HW164754   0.584  11.409   2.353
87619SOL    HW264755   0.678  11.346   2.252
87620SOL     OW64756   8.804   3.932  12.478
87620SOL    HW164757   8.815   3.842  12.509
87620SOL    HW264758   8.827   3.986  12.554
87621SOL     OW64759   4.369   9.931   4.382
87621SOL    HW164760   4.384   9.922   4.476
87621SOL    HW264761   4.434   9.995   4.352
87622SOL     OW64762   8.722  11.069   3.639
87622SOL    HW164763   8.662  11.132   3.600
87622SOL    HW264764   8.713  11.082   3.734
87623SOL     OW64765  14.232   7.825   2.491
87623SOL    HW164766  14.316   7.856   2.458
87623SOL    HW264767  14.223   7.737   2.453
87624SOL     OW64768  14.416  12.974   0.262
87624SOL    HW164769  14.499  13.000   0.222
87624SOL    HW264770  14.420  12.878   0.266
87625SOL     OW64771  10.682   9.144  14.546
87625SOL    HW164772  10.607   9.164  14.490
87625SOL    HW264773  10.643   9.101  14.623
87626SOL     OW64774  10.147   4.760  12.543
87626SOL    HW164775  10.066   4.809  12.556
87626SOL    HW264776  10.152   4.701  12.618
87627SOL     OW64777  12.448  14.103  10.658
87627SOL    HW164778  12.427  14.159  10.733
87627SOL    HW264779  12.388  14.029  10.666
87628SOL     OW64780   5.663  11.301   4.224
87628SOL    HW164781   5.603  11.272   4.155
87628SOL    HW264782   5.642  11.244   4.299
87629SOL     OW64783   9.514  12.915  12.118
87629SOL    HW164784   9.492  12.972  12.191
87629SOL    HW264785   9.431  12.896  12.076
87630SOL     OW64786  14.856   3.269  11.629
87630SOL    HW164787   0.066   3.292  11.651
87630SOL    HW264788  14.850   3.283  11.535
87631SOL     OW64789   2.523   8.135   4.512
87631SOL    HW164790   2.431   8.160   4.507
87631SOL    HW264791   2.545   8.142   4.605
87632SOL     OW64792   8.055  11.213   3.911
87632SOL    HW164793   8.113  11.166   3.972
87632SOL    HW264794   8.092  11.195   3.825
87633SOL     OW64795   2.533  12.081   6.373
87633SOL    HW164796   2.594  12.088   6.447
87633SOL    HW264797   2.575  12.132   6.304
87634SOL     OW64798   4.495  12.677  12.403
87634SOL    HW164799   4.432  12.749  12.394
87634SOL    HW264800   4.500  12.638  12.316
87635SOL     OW64801   4.801  12.742  13.181
87635SOL    HW164802   4.891  12.763  13.155
87635SOL    HW264803   4.757  12.719  13.099
87636SOL     OW64804   5.220  11.802   8.849
87636SOL    HW164805   5.139  11.851   8.834
87636SOL    HW264806   5.192  11.710   8.848
87637SOL     OW64807   4.189  10.416  12.727
87637SOL    HW164808   4.113  10.360  12.709
87637SOL    HW264809   4.238  10.369  12.795
87638SOL     OW64810   6.983   6.133   3.735
87638SOL    HW164811   6.999   6.227   3.725
87638SOL    HW264812   7.066   6.091   3.711
87639SOL     OW64813   8.305   4.468  12.247
87639SOL    HW164814   8.373   4.505  12.303
87639SOL    HW264815   8.343   4.471  12.159
87640SOL     OW64816  13.696   4.635   6.428
87640SOL    HW164817  13.685   4.665   6.518
87640SOL    HW264818  13.706   4.716   6.377
87641SOL     OW64819  11.107  10.289   7.160
87641SOL    HW164820  11.171  10.352   7.192
87641SOL    HW264821  11.129  10.277   7.068
87642SOL     OW64822  11.940   2.462   3.661
87642SOL    HW164823  11.848   2.448   3.679
87642SOL    HW264824  11.968   2.528   3.724
87643SOL     OW64825  14.814   0.190  14.150
87643SOL    HW164826   0.014   0.139  14.165
87643SOL    HW264827  14.797   0.182  14.057
87644SOL     OW64828   5.472  12.134  10.184
87644SOL    HW164829   5.379  12.130  10.203
87644SOL    HW264830   5.494  12.228  10.190
87645SOL     OW64831   5.638   2.752   2.416
87645SOL    HW164832   5.692   2.831   2.405
87645SOL    HW264833   5.550   2.780   2.389
87646SOL     OW64834  13.931   5.145   1.255
87646SOL    HW164835  13.854   5.135   1.311
87646SOL    HW264836  13.899   5.194   1.179
87647SOL     OW64837  14.525   2.081   8.479
87647SOL    HW164838  14.492   2.170   8.468
87647SOL    HW264839  14.448   2.029   8.502
87648SOL     OW64840   0.316   5.779   9.397
87648SOL    HW164841   0.329   5.703   9.340
87648SOL    HW264842   0.299   5.741   9.483
87649SOL     OW64843   4.063  13.311   9.363
87649SOL    HW164844   3.974  13.322   9.328
87649SOL    HW264845   4.119  13.354   9.299
87650SOL     OW64846   4.182   9.674   1.343
87650SOL    HW164847   4.168   9.750   1.400
87650SOL    HW264848   4.094   9.646   1.317
87651SOL     OW64849   3.307  13.287   2.982
87651SOL    HW164850   3.273  13.208   2.939
87651SOL    HW264851   3.255  13.295   3.062
87652SOL     OW64852   5.012  14.301   3.826
87652SOL    HW164853   5.007  14.206   3.821
87652SOL    HW264854   5.082  14.318   3.889
87653SOL     OW64855   3.568   9.127   3.257
87653SOL    HW164856   3.572   9.108   3.163
87653SOL    HW264857   3.479   9.156   3.272
87654SOL     OW64858   9.603  13.984   5.116
87654SOL    HW164859   9.536  14.041   5.078
87654SOL    HW264860   9.555  13.923   5.171
87655SOL     OW64861   9.440  14.304   9.738
87655SOL    HW164862   9.373  14.364   9.771
87655SOL    HW264863   9.519  14.326   9.788
87656SOL     OW64864   1.207   3.332   8.193
87656SOL    HW164865   1.217   3.413   8.242
87656SOL    HW264866   1.113   3.314   8.194
87657SOL     OW64867   2.767  11.427   9.760
87657SOL    HW164868   2.831  11.379   9.708
87657SOL    HW264869   2.682  11.394   9.729
87658SOL     OW64870   8.644   2.490   9.907
87658SOL    HW164871   8.705   2.435   9.858
87658SOL    HW264872   8.699   2.535   9.971
87659SOL     OW64873   2.961   8.814   3.664
87659SOL    HW164874   3.051   8.825   3.694
87659SOL    HW264875   2.907   8.851   3.735
87660SOL     OW64876   7.400  11.933   7.334
87660SOL    HW164877   7.480  11.984   7.349
87660SOL    HW264878   7.394  11.926   7.239
87661SOL     OW64879  12.660   3.969   3.072
87661SOL    HW164880  12.675   3.876   3.055
87661SOL    HW264881  12.716   4.015   3.010
87662SOL     OW64882   2.060  12.663   4.394
87662SOL    HW164883   2.027  12.661   4.304
87662SOL    HW264884   2.118  12.739   4.398
87663SOL     OW64885   4.739  13.204   2.906
87663SOL    HW164886   4.711  13.197   2.815
87663SOL    HW264887   4.659  13.226   2.954
87664SOL     OW64888   0.997   0.328   9.383
87664SOL    HW164889   1.055   0.404   9.381
87664SOL    HW264890   1.048   0.258   9.343
87665SOL     OW64891   2.673   1.787   4.083
87665SOL    HW164892   2.594   1.790   4.030
87665SOL    HW264893   2.652   1.725   4.153
87666SOL     OW64894  10.449   9.123  14.150
87666SOL    HW164895  10.539   9.113  14.182
87666SOL    HW264896  10.459   9.158  14.061
87667SOL     OW64897   7.104  11.558   6.207
87667SOL    HW164898   7.184  11.611   6.206
87667SOL    HW264899   7.131  11.474   6.244
87668SOL     OW64900  12.845  13.857   8.213
87668SOL    HW164901  12.879  13.873   8.125
87668SOL    HW264902  12.802  13.772   8.208
87669SOL     OW64903  11.138   5.047   0.829
87669SOL    HW164904  11.056   5.015   0.791
87669SOL    HW264905  11.148   4.998   0.910
87670SOL     OW64906  10.723  11.441   6.496
87670SOL    HW164907  10.692  11.383   6.427
87670SOL    HW264908  10.810  11.470   6.466
87671SOL     OW64909   7.362   3.849   8.838
87671SOL    HW164910   7.302   3.922   8.824
87671SOL    HW264911   7.365   3.837   8.933
87672SOL     OW64912   3.287   5.868   0.871
87672SOL    HW164913   3.244   5.819   0.801
87672SOL    HW264914   3.219   5.881   0.937
87673SOL     OW64915  14.859   1.891   4.599
87673SOL    HW164916  14.862   1.986   4.585
87673SOL    HW264917  14.770   1.874   4.630
87674SOL     OW64918   5.749   3.546   8.976
87674SOL    HW164919   5.707   3.628   8.948
87674SOL    HW264920   5.815   3.574   9.040
87675SOL     OW64921  10.366   4.241   1.553
87675SOL    HW164922  10.273   4.233   1.575
87675SOL    HW264923  10.403   4.292   1.626
87676SOL     OW64924   8.795  10.058  13.259
87676SOL    HW164925   8.811   9.964  13.254
87676SOL    HW264926   8.707  10.069  13.223
87677SOL     OW64927   7.495   7.378   4.614
87677SOL    HW164928   7.502   7.290   4.576
87677SOL    HW264929   7.416   7.374   4.668
87678SOL     OW64930   0.779  10.116   7.428
87678SOL    HW164931   0.848  10.106   7.494
87678SOL    HW264932   0.762  10.026   7.399
87679SOL     OW64933  11.818   3.240   9.834
87679SOL    HW164934  11.758   3.187   9.886
87679SOL    HW264935  11.791   3.226   9.744
87680SOL     OW64936   6.093   4.797  14.197
87680SOL    HW164937   6.048   4.785  14.114
87680SOL    HW264938   6.133   4.712  14.215
87681SOL     OW64939   4.701   3.075  10.331
87681SOL    HW164940   4.746   3.019  10.395
87681SOL    HW264941   4.771   3.108  10.274
87682SOL     OW64942  14.075   4.711   6.570
87682SOL    HW164943  14.152   4.699   6.515
87682SOL    HW264944  14.105   4.768   6.641
87683SOL     OW64945   6.153   7.874   8.619
87683SOL    HW164946   6.156   7.840   8.709
87683SOL    HW264947   6.106   7.807   8.570
87684SOL     OW64948   2.124   8.964  11.100
87684SOL    HW164949   2.114   8.996  11.190
87684SOL    HW264950   2.110   9.040  11.045
87685SOL     OW64951   7.060   8.432   9.799
87685SOL    HW164952   7.095   8.411   9.886
87685SOL    HW264953   7.003   8.508   9.815
87686SOL     OW64954  12.108   7.464  14.561
87686SOL    HW164955  12.136   7.372  14.559
87686SOL    HW264956  12.013   7.459  14.555
87687SOL     OW64957   8.714   5.111   4.659
87687SOL    HW164958   8.794   5.141   4.703
87687SOL    HW264959   8.720   5.016   4.660
87688SOL     OW64960   5.920  12.267   1.141
87688SOL    HW164961   5.960  12.283   1.056
87688SOL    HW264962   5.977  12.204   1.184
87689SOL     OW64963   3.667  12.010  14.636
87689SOL    HW164964   3.724  12.011  14.559
87689SOL    HW264965   3.580  12.032  14.602
87690SOL     OW64966  12.954   8.593   9.220
87690SOL    HW164967  13.012   8.669   9.222
87690SOL    HW264968  13.006   8.523   9.259
87691SOL     OW64969   5.591   9.596  13.199
87691SOL    HW164970   5.549   9.568  13.117
87691SOL    HW264971   5.547   9.678  13.222
87692SOL     OW64972  11.582   0.331   6.231
87692SOL    HW164973  11.545   0.407   6.186
87692SOL    HW264974  11.544   0.334   6.319
87693SOL     OW64975   6.586  14.498   1.315
87693SOL    HW164976   6.559  14.514   1.225
87693SOL    HW264977   6.506  14.473   1.361
87694SOL     OW64978   8.242   5.841   5.970
87694SOL    HW164979   8.191   5.858   6.049
87694SOL    HW264980   8.307   5.776   5.996
87695SOL     OW64981   8.757   0.857   9.284
87695SOL    HW164982   8.714   0.942   9.278
87695SOL    HW264983   8.691   0.795   9.251
87696SOL     OW64984   0.558  14.190  11.222
87696SOL    HW164985   0.500  14.254  11.262
87696SOL    HW264986   0.632  14.183  11.283
87697SOL     OW64987  10.391   4.517   6.643
87697SOL    HW164988  10.339   4.570   6.583
87697SOL    HW264989  10.446   4.579   6.690
87698SOL     OW64990   3.461   0.358   1.833
87698SOL    HW164991   3.399   0.292   1.802
87698SOL    HW264992   3.413   0.406   1.901
87699SOL     OW64993   3.137   9.417   7.993
87699SOL    HW164994   3.104   9.444   8.078
87699SOL    HW264995   3.140   9.322   7.998
87700SOL     OW64996  14.029  14.173   5.830
87700SOL    HW164997  14.018  14.086   5.869
87700SOL    HW264998  14.123  14.188   5.832
87701SOL     OW64999  12.137   1.081   3.699
87701SOL    HW165000  12.069   1.123   3.751
87701SOL    HW265001  12.154   1.142   3.627
87702SOL     OW65002  14.545   9.506   4.655
87702SOL    HW165003  14.596   9.571   4.704
87702SOL    HW265004  14.551   9.426   4.708
87703SOL     OW65005   8.791  13.544  12.424
87703SOL    HW165006   8.774  13.459  12.384
87703SOL    HW265007   8.869  13.530  12.478
87704SOL     OW65008   6.932  13.460  11.160
87704SOL    HW165009   6.879  13.493  11.088
87704SOL    HW265010   6.869  13.445  11.231
87705SOL     OW65011   3.739   4.393  12.636
87705SOL    HW165012   3.667   4.336  12.609
87705SOL    HW265013   3.697   4.478  12.653
87706SOL     OW65014  10.876   2.738   7.050
87706SOL    HW165015  10.912   2.793   7.120
87706SOL    HW265016  10.951   2.717   6.994
87707SOL     OW65017  12.848   4.242   9.689
87707SOL    HW165018  12.861   4.240   9.594
87707SOL    HW265019  12.899   4.168   9.722
87708SOL     OW65020   0.176   6.338   8.557
87708SOL    HW165021   0.185   6.368   8.467
87708SOL    HW265022   0.097   6.383   8.590
87709SOL     OW65023   3.992  11.166  13.418
87709SOL    HW165024   4.019  11.087  13.372
87709SOL    HW265025   3.959  11.224  13.349
87710SOL     OW65026   0.545   5.348  14.879
87710SOL    HW165027   0.573   5.412   0.066
87710SOL    HW265028   0.519   5.402  14.804
87711SOL     OW65029  13.889   6.131  12.290
87711SOL    HW165030  13.854   6.106  12.204
87711SOL    HW265031  13.938   6.211  12.273
87712SOL     OW65032  10.465   3.747   7.598
87712SOL    HW165033  10.416   3.727   7.518
87712SOL    HW265034  10.529   3.814   7.571
87713SOL     OW65035   9.556   2.841  13.553
87713SOL    HW165036   9.627   2.780  13.535
87713SOL    HW265037   9.549   2.843  13.648
87714SOL     OW65038   7.165  14.879   4.304
87714SOL    HW165039   7.240   0.050   4.334
87714SOL    HW265040   7.126  14.844   4.384
87715SOL     OW65041   6.799   6.644   8.357
87715SOL    HW165042   6.707   6.641   8.330
87715SOL    HW265043   6.843   6.689   8.285
87716SOL     OW65044  11.278   8.333  13.388
87716SOL    HW165045  11.344   8.284  13.339
87716SOL    HW265046  11.194   8.307  13.350
87717SOL     OW65047   9.590  10.194   8.647
87717SOL    HW165048   9.623  10.266   8.594
87717SOL    HW265049   9.612  10.115   8.598
87718SOL     OW65050   2.873  13.524   1.131
87718SOL    HW165051   2.906  13.441   1.165
87718SOL    HW265052   2.818  13.499   1.056
87719SOL     OW65053  14.434  11.375   6.292
87719SOL    HW165054  14.503  11.365   6.357
87719SOL    HW265055  14.403  11.285   6.276
87720SOL     OW65056   8.147   8.740  10.919
87720SOL    HW165057   8.214   8.765  10.983
87720SOL    HW265058   8.139   8.645  10.929
87721SOL     OW65059   5.883  13.907  14.540
87721SOL    HW165060   5.813  13.902  14.605
87721SOL    HW265061   5.850  13.968  14.474
87722SOL     OW65062   3.036  12.420  10.070
87722SOL    HW165063   3.038  12.362  10.146
87722SOL    HW265064   3.121  12.466  10.074
87723SOL     OW65065   2.264  13.551   8.694
87723SOL    HW165066   2.296  13.463   8.715
87723SOL    HW265067   2.215  13.578   8.772
87724SOL     OW65068  10.644  13.682   8.762
87724SOL    HW165069  10.648  13.646   8.674
87724SOL    HW265070  10.574  13.634   8.805
87725SOL     OW65071   8.470   8.159   3.673
87725SOL    HW165072   8.513   8.164   3.758
87725SOL    HW265073   8.449   8.066   3.662
87726SOL     OW65074   5.115   8.495  11.782
87726SOL    HW165075   5.091   8.407  11.753
87726SOL    HW265076   5.052   8.553  11.740
87727SOL     OW65077   8.458  11.752   4.284
87727SOL    HW165078   8.514  11.797   4.220
87727SOL    HW265079   8.497  11.773   4.369
87728SOL     OW65080   1.372  10.076   6.290
87728SOL    HW165081   1.462  10.056   6.264
87728SOL    HW265082   1.348  10.003   6.348
87729SOL     OW65083   2.897   7.853   4.705
87729SOL    HW165084   2.938   7.828   4.622
87729SOL    HW265085   2.803   7.838   4.691
87730SOL     OW65086   3.565   0.066   7.748
87730SOL    HW165087   3.649   0.066   7.702
87730SOL    HW265088   3.545   0.159   7.760
87731SOL     OW65089  10.772   7.536   9.785
87731SOL    HW165090  10.702   7.514   9.847
87731SOL    HW265091  10.831   7.592   9.835
87732SOL     OW65092   4.253   7.335   1.340
87732SOL    HW165093   4.301   7.322   1.422
87732SOL    HW265094   4.214   7.422   1.349
87733SOL     OW65095   6.727   0.429   2.300
87733SOL    HW165096   6.706   0.502   2.242
87733SOL    HW265097   6.657   0.366   2.285
87734SOL     OW65098   4.735   2.779   5.766
87734SOL    HW165099   4.774   2.865   5.751
87734SOL    HW265100   4.651   2.797   5.809
87735SOL     OW65101   4.257  14.484   5.410
87735SOL    HW165102   4.283  14.392   5.416
87735SOL    HW265103   4.169  14.483   5.375
87736SOL     OW65104   6.455   9.822   6.014
87736SOL    HW165105   6.378   9.878   6.002
87736SOL    HW265106   6.483   9.840   6.104
87737SOL     OW65107   9.890   1.572  14.800
87737SOL    HW165108   9.833   1.636  14.757
87737SOL    HW265109   9.970   1.571  14.748
87738SOL     OW65110   7.659  12.047  11.828
87738SOL    HW165111   7.586  12.033  11.767
87738SOL    HW265112   7.717  11.972  11.814
87739SOL     OW65113   3.004  11.568   2.088
87739SOL    HW165114   3.017  11.643   2.146
87739SOL    HW265115   3.085  11.518   2.095
87740SOL     OW65116   1.810   8.358   9.887
87740SOL    HW165117   1.826   8.265   9.873
87740SOL    HW265118   1.872   8.383   9.956
87741SOL     OW65119  14.620  13.936  14.301
87741SOL    HW165120  14.657  14.022  14.322
87741SOL    HW265121  14.557  13.954  14.231
87742SOL     OW65122  11.605  12.429   9.364
87742SOL    HW165123  11.607  12.431   9.268
87742SOL    HW265124  11.621  12.520   9.390
87743SOL     OW65125  12.918   5.433  13.855
87743SOL    HW165126  12.984   5.364  13.863
87743SOL    HW265127  12.955   5.495  13.793
87744SOL     OW65128   4.148  12.626  14.584
87744SOL    HW165129   4.152  12.567  14.659
87744SOL    HW265130   4.142  12.568  14.508
87745SOL     OW65131  12.258  10.406   2.726
87745SOL    HW165132  12.181  10.462   2.714
87745SOL    HW265133  12.235  10.350   2.800
87746SOL     OW65134  12.954   6.393  12.707
87746SOL    HW165135  12.941   6.407  12.613
87746SOL    HW265136  12.894   6.321  12.729
87747SOL     OW65137  10.547   6.827   9.750
87747SOL    HW165138  10.468   6.792   9.791
87747SOL    HW265139  10.517   6.905   9.704
87748SOL     OW65140  12.155   2.161  10.551
87748SOL    HW165141  12.064   2.134  10.543
87748SOL    HW265142  12.200   2.085  10.589
87749SOL     OW65143   3.259   9.005  10.168
87749SOL    HW165144   3.248   8.934  10.105
87749SOL    HW265145   3.276   9.083  10.114
87750SOL     OW65146  10.493   3.174  10.128
87750SOL    HW165147  10.468   3.260  10.163
87750SOL    HW265148  10.587   3.179  10.115
87751SOL     OW65149  13.595  13.981   3.344
87751SOL    HW165150  13.598  13.991   3.439
87751SOL    HW265151  13.679  13.942   3.321
87752SOL     OW65152  14.397   4.622  12.937
87752SOL    HW165153  14.331   4.657  12.877
87752SOL    HW265154  14.416   4.535  12.904
87753SOL     OW65155  13.021  11.320   1.293
87753SOL    HW165156  12.937  11.281   1.268
87753SOL    HW265157  13.087  11.260   1.259
87754SOL     OW65158   3.289  10.304   5.566
87754SOL    HW165159   3.365  10.253   5.540
87754SOL    HW265160   3.320  10.360   5.637
87755SOL     OW65161  11.690   2.717   4.450
87755SOL    HW165162  11.729   2.792   4.406
87755SOL    HW265163  11.703   2.734   4.543
87756SOL     OW65164   8.093   9.021   1.141
87756SOL    HW165165   8.180   8.986   1.121
87756SOL    HW265166   8.034   8.975   1.081
87757SOL     OW65167  14.762   2.802  11.700
87757SOL    HW165168  14.707   2.816  11.777
87757SOL    HW265169  14.828   2.871  11.705
87758SOL     OW65170   5.256   6.151   9.936
87758SOL    HW165171   5.304   6.072   9.911
87758SOL    HW265172   5.239   6.140  10.029
87759SOL     OW65173   1.099   4.936   1.948
87759SOL    HW165174   1.007   4.928   1.975
87759SOL    HW265175   1.134   4.848   1.955
87760SOL     OW65176   4.211   2.950   0.621
87760SOL    HW165177   4.277   2.909   0.676
87760SOL    HW265178   4.193   3.034   0.662
87761SOL     OW65179   1.759   3.141   3.332
87761SOL    HW165180   1.713   3.058   3.334
87761SOL    HW265181   1.798   3.149   3.419
87762SOL     OW65182   2.193  12.251  10.712
87762SOL    HW165183   2.236  12.271  10.795
87762SOL    HW265184   2.107  12.294  10.719
87763SOL     OW65185   7.558   9.030   4.902
87763SOL    HW165186   7.485   9.069   4.854
87763SOL    HW265187   7.564   8.941   4.867
87764SOL     OW65188  10.471  11.073  12.718
87764SOL    HW165189  10.475  11.059  12.812
87764SOL    HW265190  10.466  11.169  12.708
87765SOL     OW65191   6.506   8.733  12.823
87765SOL    HW165192   6.551   8.727  12.738
87765SOL    HW265193   6.490   8.642  12.848
87766SOL     OW65194   8.990   6.641   2.206
87766SOL    HW165195   8.895   6.644   2.220
87766SOL    HW265196   9.016   6.556   2.241
87767SOL     OW65197  14.120   8.193   7.386
87767SOL    HW165198  14.172   8.126   7.341
87767SOL    HW265199  14.184   8.257   7.417
87768SOL     OW65200   9.429   2.472   3.940
87768SOL    HW165201   9.427   2.518   3.856
87768SOL    HW265202   9.337   2.469   3.968
87769SOL     OW65203   9.058   0.372  13.977
87769SOL    HW165204   9.002   0.355  14.054
87769SOL    HW265205   9.102   0.289  13.961
87770SOL     OW65206   1.539   5.147   9.689
87770SOL    HW165207   1.609   5.173   9.748
87770SOL    HW265208   1.458   5.164   9.738
87771SOL     OW65209  13.723  10.296   3.386
87771SOL    HW165210  13.802  10.265   3.341
87771SOL    HW265211  13.682  10.355   3.324
87772SOL     OW65212  10.027  11.442   1.147
87772SOL    HW165213   9.972  11.364   1.141
87772SOL    HW265214   9.976  11.511   1.105
87773SOL     OW65215  14.142   7.529   5.322
87773SOL    HW165216  14.115   7.437   5.324
87773SOL    HW265217  14.225   7.530   5.368
87774SOL     OW65218   2.278   6.923   5.074
87774SOL    HW165219   2.367   6.891   5.090
87774SOL    HW265220   2.250   6.961   5.157
87775SOL     OW65221  10.037   7.977   6.647
87775SOL    HW165222  10.108   7.997   6.586
87775SOL    HW265223  10.074   7.995   6.734
87776SOL     OW65224   1.910   6.203  13.461
87776SOL    HW165225   1.984   6.211  13.401
87776SOL    HW265226   1.909   6.285  13.510
87777SOL     OW65227   0.221   8.140  13.517
87777SOL    HW165228   0.132   8.112  13.492
87777SOL    HW265229   0.272   8.060  13.517
87778SOL     OW65230   6.805  10.560   7.139
87778SOL    HW165231   6.782  10.490   7.078
87778SOL    HW265232   6.875  10.522   7.193
87779SOL     OW65233  14.608   6.083   6.404
87779SOL    HW165234  14.657   6.141   6.345
87779SOL    HW265235  14.673   6.056   6.469
87780SOL     OW65236   7.124   3.558   2.673
87780SOL    HW165237   7.216   3.549   2.699
87780SOL    HW265238   7.112   3.492   2.605
87781SOL     OW65239   0.891   6.751  13.223
87781SOL    HW165240   0.983   6.754  13.196
87781SOL    HW265241   0.848   6.700  13.154
87782SOL     OW65242   5.045  10.335   8.061
87782SOL    HW165243   4.980  10.374   8.120
87782SOL    HW265244   5.009  10.349   7.973
87783SOL     OW65245   2.758   0.356  12.366
87783SOL    HW165246   2.756   0.309  12.449
87783SOL    HW265247   2.818   0.305  12.311
87784SOL     OW65248   8.467  13.610   5.438
87784SOL    HW165249   8.557  13.583   5.418
87784SOL    HW265250   8.478  13.678   5.505
87785SOL     OW65251  13.309   9.236   9.489
87785SOL    HW165252  13.329   9.318   9.534
87785SOL    HW265253  13.341   9.167   9.547
87786SOL     OW65254   4.619   7.956   5.213
87786SOL    HW165255   4.632   7.997   5.299
87786SOL    HW265256   4.524   7.953   5.203
87787SOL     OW65257   3.898  14.379  13.372
87787SOL    HW165258   3.805  14.359  13.383
87787SOL    HW265259   3.899  14.461  13.322
87788SOL     OW65260   8.009   9.500   5.448
87788SOL    HW165261   8.053   9.562   5.390
87788SOL    HW265262   7.962   9.556   5.511
87789SOL     OW65263   7.265  11.135  10.673
87789SOL    HW165264   7.239  11.222  10.642
87789SOL    HW265265   7.359  11.132  10.659
87790SOL     OW65266   5.272   2.366  11.155
87790SOL    HW165267   5.272   2.440  11.215
87790SOL    HW265268   5.182   2.333  11.156
87791SOL     OW65269  12.997   5.700   5.437
87791SOL    HW165270  13.085   5.663   5.437
87791SOL    HW265271  12.990   5.747   5.520
87792SOL     OW65272   8.895   7.810  14.814
87792SOL    HW165273   8.944   7.790   0.014
87792SOL    HW265274   8.897   7.905  14.807
87793SOL     OW65275  14.652   4.957  10.116
87793SOL    HW165276  14.609   5.002  10.043
87793SOL    HW265277  14.606   4.874  10.123
87794SOL     OW65278   9.567  11.694   5.547
87794SOL    HW165279   9.566  11.601   5.571
87794SOL    HW265280   9.660  11.715   5.538
87795SOL     OW65281  10.591   3.754  11.298
87795SOL    HW165282  10.584   3.805  11.379
87795SOL    HW265283  10.681   3.770  11.268
87796SOL     OW65284  13.180   2.219   0.888
87796SOL    HW165285  13.180   2.247   0.979
87796SOL    HW265286  13.116   2.148   0.885
87797SOL     OW65287  12.130   6.238   4.540
87797SOL    HW165288  12.164   6.313   4.492
87797SOL    HW265289  12.132   6.166   4.477
87798SOL     OW65290   7.691  12.398   1.719
87798SOL    HW165291   7.670  12.306   1.737
87798SOL    HW265292   7.720  12.433   1.803
87799SOL     OW65293   4.120   3.882   1.652
87799SOL    HW165294   4.119   3.820   1.580
87799SOL    HW265295   4.157   3.833   1.726
87800SOL     OW65296   1.933   3.504  14.576
87800SOL    HW165297   1.842   3.530  14.588
87800SOL    HW265298   1.955   3.533  14.487
87801SOL     OW65299   0.942  12.903   1.503
87801SOL    HW165300   0.891  12.981   1.528
87801SOL    HW265301   0.916  12.885   1.413
87802SOL     OW65302   4.597   7.156   1.476
87802SOL    HW165303   4.681   7.172   1.519
87802SOL    HW265304   4.590   7.225   1.411
87803SOL     OW65305  10.852   7.900   8.341
87803SOL    HW165306  10.845   7.870   8.432
87803SOL    HW265307  10.932   7.859   8.308
87804SOL     OW65308   6.044  11.979   0.288
87804SOL    HW165309   6.139  11.976   0.298
87804SOL    HW265310   6.016  11.887   0.293
87805SOL     OW65311  12.878   7.096  11.081
87805SOL    HW165312  12.818   7.114  11.154
87805SOL    HW265313  12.870   7.172  11.024
87806SOL     OW65314   7.684   5.058   8.414
87806SOL    HW165315   7.614   5.123   8.407
87806SOL    HW265316   7.688   5.017   8.328
87807SOL     OW65317   6.656   7.854   7.716
87807SOL    HW165318   6.566   7.882   7.735
87807SOL    HW265319   6.645   7.783   7.653
87808SOL     OW65320  12.900  14.611   3.973
87808SOL    HW165321  12.922  14.600   3.880
87808SOL    HW265322  12.944  14.692   3.998
87809SOL     OW65323  11.654   6.014  13.745
87809SOL    HW165324  11.711   6.080  13.787
87809SOL    HW265325  11.582   6.002  13.807
87810SOL     OW65326   8.236  12.036   2.313
87810SOL    HW165327   8.315  11.986   2.335
87810SOL    HW265328   8.266  12.100   2.249
87811SOL     OW65329   8.001   5.574   3.086
87811SOL    HW165330   8.016   5.660   3.049
87811SOL    HW265331   7.916   5.547   3.052
87812SOL     OW65332  10.952  14.273  13.168
87812SOL    HW165333  10.971  14.365  13.153
87812SOL    HW265334  10.858  14.265  13.151
87813SOL     OW65335   6.601  13.804  13.233
87813SOL    HW165336   6.548  13.730  13.262
87813SOL    HW265337   6.645  13.773  13.154
87814SOL     OW65338   7.709   5.583   6.882
87814SOL    HW165339   7.721   5.498   6.923
87814SOL    HW265340   7.735   5.570   6.791
87815SOL     OW65341   2.359  14.307   7.631
87815SOL    HW165342   2.442  14.319   7.676
87815SOL    HW265343   2.331  14.395   7.606
87816SOL     OW65344   6.804  11.815  13.067
87816SOL    HW165345   6.837  11.837  12.979
87816SOL    HW265346   6.732  11.754  13.051
87817SOL     OW65347   4.406   8.835  11.238
87817SOL    HW165348   4.398   8.751  11.194
87817SOL    HW265349   4.469   8.884  11.185
87818SOL     OW65350   0.529   2.099   8.565
87818SOL    HW165351   0.462   2.153   8.523
87818SOL    HW265352   0.612   2.133   8.530
87819SOL     OW65353   9.401   6.091   4.379
87819SOL    HW165354   9.335   6.160   4.367
87819SOL    HW265355   9.476   6.137   4.415
87820SOL     OW65356  10.279   5.652   5.434
87820SOL    HW165357  10.327   5.640   5.516
87820SOL    HW265358  10.202   5.703   5.458
87821SOL     OW65359   1.151  10.742   7.548
87821SOL    HW165360   1.235  10.782   7.568
87821SOL    HW265361   1.172  10.669   7.490
87822SOL     OW65362  12.033  12.974   4.325
87822SOL    HW165363  11.983  12.954   4.246
87822SOL    HW265364  12.102  13.033   4.295
87823SOL     OW65365  11.359   5.681   5.551
87823SOL    HW165366  11.271   5.650   5.574
87823SOL    HW265367  11.370   5.655   5.460
87824SOL     OW65368  13.840   2.250   0.318
87824SOL    HW165369  13.857   2.180   0.255
87824SOL    HW265370  13.864   2.330   0.271
87825SOL     OW65371   2.921  10.984   3.224
87825SOL    HW165372   2.991  10.958   3.164
87825SOL    HW265373   2.845  11.000   3.167
87826SOL     OW65374   2.916  10.513  13.263
87826SOL    HW165375   2.927  10.488  13.355
87826SOL    HW265376   2.995  10.481  13.220
87827SOL     OW65377   0.267   0.720  12.688
87827SOL    HW165378   0.193   0.661  12.697
87827SOL    HW265379   0.321   0.680  12.620
87828SOL     OW65380   5.859   0.534   9.963
87828SOL    HW165381   5.902   0.612   9.998
87828SOL    HW265382   5.839   0.557   9.872
87829SOL     OW65383   8.785   7.258  14.250
87829SOL    HW165384   8.709   7.286  14.200
87829SOL    HW265385   8.841   7.336  14.257
87830SOL     OW65386   9.003  10.818  12.549
87830SOL    HW165387   8.996  10.906  12.514
87830SOL    HW265388   8.997  10.829  12.644
87831SOL     OW65389   5.570   3.195   0.672
87831SOL    HW165390   5.536   3.108   0.651
87831SOL    HW265391   5.497   3.239   0.715
87832SOL     OW65392   1.277   7.257  10.509
87832SOL    HW165393   1.333   7.184  10.536
87832SOL    HW265394   1.335   7.315  10.459
87833SOL     OW65395   0.108  13.554   0.917
87833SOL    HW165396   0.013  13.558   0.926
87833SOL    HW265397   0.124  13.485   0.853
87834SOL     OW65398   6.962   6.933   0.686
87834SOL    HW165399   7.052   6.931   0.719
87834SOL    HW265400   6.968   6.898   0.597
87835SOL     OW65401   5.978   6.124   7.819
87835SOL    HW165402   6.031   6.061   7.867
87835SOL    HW265403   6.017   6.209   7.839
87836SOL     OW65404  10.294  10.404   3.611
87836SOL    HW165405  10.368  10.387   3.670
87836SOL    HW265406  10.301  10.497   3.590
87837SOL     OW65407   5.475   9.459  12.641
87837SOL    HW165408   5.423   9.397  12.589
87837SOL    HW265409   5.531   9.502  12.576
87838SOL     OW65410  13.814  11.233   1.872
87838SOL    HW165411  13.904  11.200   1.864
87838SOL    HW265412  13.824  11.318   1.915
87839SOL     OW65413   5.743  14.758  14.128
87839SOL    HW165414   5.666  14.812  14.143
87839SOL    HW265415   5.738  14.734  14.036
87840SOL     OW65416   9.949  11.954   3.791
87840SOL    HW165417   9.894  12.015   3.840
87840SOL    HW265418   9.966  11.997   3.708
87841SOL     OW65419   1.600   7.339   1.926
87841SOL    HW165420   1.554   7.337   2.010
87841SOL    HW265421   1.671   7.403   1.939
87842SOL     OW65422   0.818   9.559   1.358
87842SOL    HW165423   0.731   9.554   1.320
87842SOL    HW265424   0.872   9.601   1.291
87843SOL     OW65425   2.971   1.183   1.518
87843SOL    HW165426   2.957   1.088   1.523
87843SOL    HW265427   2.933   1.217   1.598
87844SOL     OW65428   0.172   4.736   0.729
87844SOL    HW165429   0.214   4.732   0.643
87844SOL    HW265430   0.244   4.742   0.791
87845SOL     OW65431   2.762   7.144   4.013
87845SOL    HW165432   2.719   7.188   4.086
87845SOL    HW265433   2.788   7.059   4.049
87846SOL     OW65434  11.040   8.942   1.586
87846SOL    HW165435  11.069   9.023   1.628
87846SOL    HW265436  10.945   8.947   1.587
87847SOL     OW65437   4.908   6.122   3.632
87847SOL    HW165438   4.873   6.206   3.660
87847SOL    HW265439   4.872   6.108   3.544
87848SOL     OW65440   3.925  13.584   7.846
87848SOL    HW165441   4.007  13.620   7.882
87848SOL    HW265442   3.856  13.627   7.897
87849SOL     OW65443  13.657   6.732   7.061
87849SOL    HW165444  13.688   6.716   6.972
87849SOL    HW265445  13.602   6.657   7.081
87850SOL     OW65446   6.411   9.813  12.850
87850SOL    HW165447   6.427   9.721  12.870
87850SOL    HW265448   6.465   9.861  12.914
87851SOL     OW65449   7.499   9.915   5.707
87851SOL    HW165450   7.535   9.999   5.735
87851SOL    HW265451   7.405   9.922   5.725
87852SOL     OW65452   4.886   7.238  12.505
87852SOL    HW165453   4.793   7.260  12.495
87852SOL    HW265454   4.926   7.266  12.423
87853SOL     OW65455  14.434   1.416  13.177
87853SOL    HW165456  14.497   1.349  13.204
87853SOL    HW265457  14.376   1.427  13.253
87854SOL     OW65458   8.644   2.731  12.321
87854SOL    HW165459   8.623   2.800  12.258
87854SOL    HW265460   8.701   2.671  12.272
87855SOL     OW65461  12.219   6.570   5.670
87855SOL    HW165462  12.204   6.655   5.628
87855SOL    HW265463  12.134   6.543   5.702
87856SOL     OW65464   5.693  12.994  12.197
87856SOL    HW165465   5.705  12.958  12.285
87856SOL    HW265466   5.628  13.063  12.208
87857SOL     OW65467   8.188  12.887  14.670
87857SOL    HW165468   8.186  12.974  14.710
87857SOL    HW265469   8.137  12.832  14.729
87858SOL     OW65470   0.074   3.956  10.945
87858SOL    HW165471   0.075   3.878  11.001
87858SOL    HW265472  14.862   3.969  10.923
87859SOL     OW65473   0.023   7.165   4.686
87859SOL    HW165474   0.093   7.106   4.658
87859SOL    HW265475   0.039   7.246   4.638
87860SOL     OW65476   7.841   5.606   1.975
87860SOL    HW165477   7.855   5.517   1.943
87860SOL    HW265478   7.914   5.622   2.034
87861SOL     OW65479   6.951  10.638   4.882
87861SOL    HW165480   6.980  10.674   4.965
87861SOL    HW265481   6.980  10.702   4.817
87862SOL     OW65482   3.880   7.065  10.046
87862SOL    HW165483   3.858   7.099  10.133
87862SOL    HW265484   3.950   7.123  10.015
87863SOL     OW65485  12.493   5.584  12.460
87863SOL    HW165486  12.489   5.614  12.551
87863SOL    HW265487  12.433   5.510  12.457
87864SOL     OW65488  13.161   1.164   7.606
87864SOL    HW165489  13.252   1.186   7.590
87864SOL    HW265490  13.112   1.240   7.572
87865SOL     OW65491   5.123  14.015   9.069
87865SOL    HW165492   5.167  14.096   9.095
87865SOL    HW265493   5.191  13.948   9.074
87866SOL     OW65494   0.106   1.724   2.335
87866SOL    HW165495   0.038   1.792   2.341
87866SOL    HW265496   0.059   1.646   2.308
87867SOL     OW65497  11.748   9.562   2.096
87867SOL    HW165498  11.771   9.482   2.144
87867SOL    HW265499  11.783   9.633   2.149
87868SOL     OW65500   9.902  11.037   1.323
87868SOL    HW165501   9.824  11.041   1.379
87868SOL    HW265502   9.938  10.950   1.337
87869SOL     OW65503   6.497  10.929  14.367
87869SOL    HW165504   6.587  10.958  14.381
87869SOL    HW265505   6.450  11.008  14.339
87870SOL     OW65506  13.831  12.211   2.605
87870SOL    HW165507  13.780  12.292   2.614
87870SOL    HW265508  13.917  12.233   2.642
87871SOL     OW65509   4.055   8.574   4.781
87871SOL    HW165510   4.107   8.653   4.766
87871SOL    HW265511   4.116   8.514   4.823
87872SOL     OW65512  10.113   7.735   7.893
87872SOL    HW165513  10.027   7.775   7.877
87872SOL    HW265514  10.140   7.767   7.979
87873SOL     OW65515  12.191   1.253   3.465
87873SOL    HW165516  12.215   1.334   3.420
87873SOL    HW265517  12.230   1.184   3.412
87874SOL     OW65518  10.318   2.876   6.456
87874SOL    HW165519  10.271   2.821   6.393
87874SOL    HW265520  10.248   2.920   6.505
87875SOL     OW65521   3.907   2.034   5.136
87875SOL    HW165522   3.993   2.061   5.170
87875SOL    HW265523   3.925   2.006   5.047
87876SOL     OW65524   3.662   1.857   3.968
87876SOL    HW165525   3.588   1.862   4.028
87876SOL    HW265526   3.633   1.797   3.899
87877SOL     OW65527  14.240   9.654   0.937
87877SOL    HW165528  14.157   9.630   0.894
87877SOL    HW265529  14.299   9.582   0.917
87878SOL     OW65530   9.238   2.419   7.582
87878SOL    HW165531   9.186   2.474   7.641
87878SOL    HW265532   9.190   2.336   7.579
87879SOL     OW65533   7.021  12.203  12.955
87879SOL    HW165534   6.934  12.237  12.937
87879SOL    HW265535   7.019  12.112  12.924
87880SOL     OW65536   0.356   7.661   4.376
87880SOL    HW165537   0.271   7.618   4.383
87880SOL    HW265538   0.418   7.599   4.413
87881SOL     OW65539   0.935  14.418   4.732
87881SOL    HW165540   0.882  14.398   4.655
87881SOL    HW265541   0.875  14.405   4.806
87882SOL     OW65542   8.292   2.489  12.896
87882SOL    HW165543   8.367   2.543  12.921
87882SOL    HW265544   8.325   2.433  12.826
87883SOL     OW65545  11.339  12.295   7.705
87883SOL    HW165546  11.308  12.287   7.614
87883SOL    HW265547  11.409  12.230   7.712
87884SOL     OW65548  10.136  10.374  11.394
87884SOL    HW165549  10.116  10.305  11.456
87884SOL    HW265550  10.213  10.342  11.347
87885SOL     OW65551   0.059   1.724   5.385
87885SOL    HW165552   0.049   1.814   5.356
87885SOL    HW265553   0.140   1.725   5.437
87886SOL     OW65554   9.557  14.574  14.488
87886SOL    HW165555   9.630  14.524  14.450
87886SOL    HW265556   9.510  14.510  14.542
87887SOL     OW65557   0.411   4.299  13.773
87887SOL    HW165558   0.383   4.372  13.828
87887SOL    HW265559   0.332   4.270  13.728
87888SOL     OW65560   9.839  10.528  10.677
87888SOL    HW165561   9.833  10.496  10.587
87888SOL    HW265562   9.775  10.598  10.682
87889SOL     OW65563  11.647   2.130  13.270
87889SOL    HW165564  11.699   2.209  13.264
87889SOL    HW265565  11.660   2.099  13.360
87890SOL     OW65566   9.741   0.278   1.491
87890SOL    HW165567   9.651   0.309   1.492
87890SOL    HW265568   9.741   0.200   1.547
87891SOL     OW65569  11.022   8.414   1.290
87891SOL    HW165570  10.996   8.322   1.292
87891SOL    HW265571  11.101   8.415   1.235
87892SOL     OW65572   1.628   0.922  14.596
87892SOL    HW165573   1.694   0.887  14.656
87892SOL    HW265574   1.674   0.930  14.512
87893SOL     OW65575  10.836   4.505   2.775
87893SOL    HW165576  10.844   4.569   2.705
87893SOL    HW265577  10.857   4.554   2.855
87894SOL     OW65578  12.632   6.409  10.899
87894SOL    HW165579  12.628   6.505  10.894
87894SOL    HW265580  12.595   6.379  10.816
87895SOL     OW65581  14.452   2.423  11.834
87895SOL    HW165582  14.366   2.394  11.862
87895SOL    HW265583  14.498   2.343  11.809
87896SOL     OW65584   2.217  10.511   4.566
87896SOL    HW165585   2.167  10.470   4.636
87896SOL    HW265586   2.274  10.574   4.611
87897SOL     OW65587  14.020   5.932  14.738
87897SOL    HW165588  13.945   5.990  14.723
87897SOL    HW265589  14.065   5.929  14.654
87898SOL     OW65590   3.518  10.190  12.302
87898SOL    HW165591   3.429  10.172  12.332
87898SOL    HW265592   3.565  10.216  12.381
87899SOL     OW65593   7.385   7.247   8.811
87899SOL    HW165594   7.479   7.247   8.793
87899SOL    HW265595   7.345   7.220   8.729
87900SOL     OW65596  14.703  14.615  10.186
87900SOL    HW165597  14.640  14.687  10.176
87900SOL    HW265598  14.767  14.629  10.116
87901SOL     OW65599   7.687   3.697   8.221
87901SOL    HW165600   7.624   3.669   8.288
87901SOL    HW265601   7.753   3.628   8.222
87902SOL     OW65602  10.441   6.035   6.100
87902SOL    HW165603  10.488   6.051   6.018
87902SOL    HW265604  10.502   5.986   6.153
87903SOL     OW65605  13.809  13.949   4.541
87903SOL    HW165606  13.781  14.038   4.563
87903SOL    HW265607  13.898  13.943   4.575
87904SOL     OW65608   7.177  10.040   0.490
87904SOL    HW165609   7.223   9.957   0.474
87904SOL    HW265610   7.207  10.098   0.420
87905SOL     OW65611   2.597   0.829   8.235
87905SOL    HW165612   2.614   0.911   8.189
87905SOL    HW265613   2.642   0.763   8.182
87906SOL     OW65614   9.048   3.109  14.410
87906SOL    HW165615   9.099   3.163  14.349
87906SOL    HW265616   9.020   3.034  14.358
87907SOL     OW65617  10.252  13.763  11.810
87907SOL    HW165618  10.336  13.735  11.773
87907SOL    HW265619  10.274  13.811  11.889
87908SOL     OW65620   3.058  10.715  11.516
87908SOL    HW165621   2.979  10.691  11.565
87908SOL    HW265622   3.035  10.797  11.472
87909SOL     OW65623  13.580  11.850   2.298
87909SOL    HW165624  13.583  11.767   2.345
87909SOL    HW265625  13.670  11.883   2.303
87910SOL     OW65626  12.400   9.979  14.829
87910SOL    HW165627  12.402   9.925   0.028
87910SOL    HW265628  12.489   9.978  14.796
87911SOL     OW65629   6.409  10.618  11.644
87911SOL    HW165630   6.328  10.583  11.607
87911SOL    HW265631   6.458  10.651  11.569
87912SOL     OW65632   9.384  11.162  13.172
87912SOL    HW165633   9.383  11.179  13.077
87912SOL    HW265634   9.470  11.123  13.188
87913SOL     OW65635  12.967   9.515   7.279
87913SOL    HW165636  12.997   9.427   7.255
87913SOL    HW265637  13.045   9.570   7.271
87914SOL     OW65638  13.643  10.292   6.534
87914SOL    HW165639  13.716  10.230   6.525
87914SOL    HW265640  13.594  10.260   6.609
87915SOL     OW65641  14.555   5.313   8.006
87915SOL    HW165642  14.585   5.228   8.039
87915SOL    HW265643  14.634   5.353   7.969
87916SOL     OW65644   3.919  10.365  13.647
87916SOL    HW165645   3.845  10.375  13.708
87916SOL    HW265646   3.932  10.453  13.612
87917SOL     OW65647   3.394   3.724   1.641
87917SOL    HW165648   3.482   3.743   1.610
87917SOL    HW265649   3.349   3.689   1.564
87918SOL     OW65650  11.492   1.637  13.940
87918SOL    HW165651  11.417   1.685  13.906
87918SOL    HW265652  11.567   1.692  13.919
87919SOL     OW65653  13.822   5.089   9.712
87919SOL    HW165654  13.772   5.021   9.758
87919SOL    HW265655  13.812   5.067   9.619
87920SOL     OW65656   5.253   9.376   1.999
87920SOL    HW165657   5.282   9.285   1.999
87920SOL    HW265658   5.169   9.375   1.953
87921SOL     OW65659   4.132   9.047   4.712
87921SOL    HW165660   4.056   9.035   4.768
87921SOL    HW265661   4.113   9.125   4.661
87922SOL     OW65662  12.069  14.822   3.711
87922SOL    HW165663  12.050   0.018   3.656
87922SOL    HW265664  12.086  14.858   3.798
87923SOL     OW65665  14.212  13.944   6.990
87923SOL    HW165666  14.212  13.853   7.019
87923SOL    HW265667  14.160  13.943   6.910
87924SOL     OW65668   2.682   3.130   1.147
87924SOL    HW165669   2.720   3.160   1.230
87924SOL    HW265670   2.757   3.124   1.088
87925SOL     OW65671   3.865  10.958  10.311
87925SOL    HW165672   3.909  11.042  10.297
87925SOL    HW265673   3.926  10.893  10.276
87926SOL     OW65674   4.908  10.610   7.128
87926SOL    HW165675   4.887  10.619   7.221
87926SOL    HW265676   4.825  10.585   7.087
87927SOL     OW65677  10.478   0.459   2.195
87927SOL    HW165678  10.448   0.524   2.258
87927SOL    HW265679  10.449   0.491   2.110
87928SOL     OW65680   3.086   3.936   4.792
87928SOL    HW165681   3.075   3.957   4.699
87928SOL    HW265682   3.032   3.859   4.806
87929SOL     OW65683  14.804   0.782   4.158
87929SOL    HW165684  14.722   0.735   4.144
87929SOL    HW265685  14.868   0.713   4.177
87930SOL     OW65686  14.318   9.594   7.196
87930SOL    HW165687  14.308   9.680   7.154
87930SOL    HW265688  14.344   9.614   7.286
87931SOL     OW65689   6.968   6.197   0.990
87931SOL    HW165690   6.913   6.131   0.947
87931SOL    HW265691   6.937   6.198   1.081
87932SOL     OW65692  11.768   2.126   4.605
87932SOL    HW165693  11.685   2.128   4.559
87932SOL    HW265694  11.746   2.105   4.695
87933SOL     OW65695   0.700   8.811  11.119
87933SOL    HW165696   0.657   8.877  11.174
87933SOL    HW265697   0.787   8.801  11.157
87934SOL     OW65698   8.283   1.623  14.021
87934SOL    HW165699   8.257   1.617  14.114
87934SOL    HW265700   8.254   1.709  13.993
87935SOL     OW65701  12.620   2.615  11.921
87935SOL    HW165702  12.583   2.699  11.948
87935SOL    HW265703  12.665   2.582  11.999
87936SOL     OW65704  12.983   9.632   3.496
87936SOL    HW165705  12.897   9.604   3.464
87936SOL    HW265706  12.964   9.679   3.577
87937SOL     OW65707  14.872  14.773   9.082
87937SOL    HW165708  14.816  14.800   9.009
87937SOL    HW265709  14.855  14.679   9.091
87938SOL     OW65710   0.597   1.939   8.903
87938SOL    HW165711   0.624   2.021   8.861
87938SOL    HW265712   0.508   1.925   8.871
87939SOL     OW65713   6.919  10.477  11.546
87939SOL    HW165714   6.853  10.462  11.479
87939SOL    HW265715   6.889  10.556  11.592
87940SOL     OW65716   3.435  10.553  10.985
87940SOL    HW165717   3.355  10.504  11.002
87940SOL    HW265718   3.416  10.642  11.015
87941SOL     OW65719   0.752   8.161   9.755
87941SOL    HW165720   0.757   8.221   9.681
87941SOL    HW265721   0.842   8.154   9.787
87942SOL     OW65722   6.302   9.062  14.329
87942SOL    HW165723   6.328   8.983  14.281
87942SOL    HW265724   6.232   9.101  14.276
87943SOL     OW65725   4.449  10.305   1.266
87943SOL    HW165726   4.406  10.230   1.307
87943SOL    HW265727   4.483  10.356   1.340
87944SOL     OW65728   7.379   1.938   3.151
87944SOL    HW165729   7.433   2.016   3.141
87944SOL    HW265730   7.347   1.919   3.063
87945SOL     OW65731   6.711   1.143  14.182
87945SOL    HW165732   6.766   1.102  14.248
87945SOL    HW265733   6.765   1.142  14.102
87946SOL     OW65734   4.612   6.919   4.155
87946SOL    HW165735   4.518   6.922   4.175
87946SOL    HW265736   4.623   6.975   4.079
87947SOL     OW65737  10.526   6.079   4.780
87947SOL    HW165738  10.471   6.133   4.836
87947SOL    HW265739  10.497   6.098   4.691
87948SOL     OW65740   5.018   6.464  12.750
87948SOL    HW165741   5.090   6.459  12.813
87948SOL    HW265742   5.032   6.547  12.704
87949SOL     OW65743   1.141  12.470  14.367
87949SOL    HW165744   1.185  12.552  14.343
87949SOL    HW265745   1.071  12.462  14.303
87950SOL     OW65746   5.519  11.880   4.652
87950SOL    HW165747   5.597  11.825   4.664
87950SOL    HW265748   5.551  11.956   4.602
87951SOL     OW65749   7.464   9.518   6.146
87951SOL    HW165750   7.488   9.599   6.190
87951SOL    HW265751   7.516   9.518   6.065
87952SOL     OW65752   4.820  11.018   7.690
87952SOL    HW165753   4.849  11.107   7.668
87952SOL    HW265754   4.768  10.990   7.615
87953SOL     OW65755  12.754   8.148   9.012
87953SOL    HW165756  12.729   8.165   8.921
87953SOL    HW265757  12.757   8.235   9.053
87954SOL     OW65758  13.117   1.196   7.100
87954SOL    HW165759  13.080   1.131   7.159
87954SOL    HW265760  13.057   1.199   7.025
87955SOL     OW65761  10.111  13.143   9.969
87955SOL    HW165762  10.148  13.151   9.880
87955SOL    HW265763  10.126  13.052   9.993
87956SOL     OW65764   2.057   0.132   3.346
87956SOL    HW165765   2.089   0.207   3.397
87956SOL    HW265766   2.037   0.168   3.260
87957SOL     OW65767  10.407   8.249  13.811
87957SOL    HW165768  10.390   8.339  13.783
87957SOL    HW265769  10.500   8.247  13.831
87958SOL     OW65770   6.343   4.060  11.723
87958SOL    HW165771   6.287   4.079  11.648
87958SOL    HW265772   6.329   3.968  11.742
87959SOL     OW65773  14.707   6.465  13.507
87959SOL    HW165774  14.722   6.432  13.418
87959SOL    HW265775  14.754   6.404  13.563
87960SOL     OW65776   2.808   2.175  13.794
87960SOL    HW165777   2.733   2.226  13.825
87960SOL    HW265778   2.863   2.239  13.749
87961SOL     OW65779   2.619   4.434   4.692
87961SOL    HW165780   2.707   4.394   4.694
87961SOL    HW265781   2.595   4.432   4.599
87962SOL     OW65782   1.315   8.033   8.468
87962SOL    HW165783   1.297   8.029   8.374
87962SOL    HW265784   1.315   7.942   8.497
87963SOL     OW65785   8.544  14.533   8.444
87963SOL    HW165786   8.581  14.483   8.516
87963SOL    HW265787   8.562  14.624   8.466
87964SOL     OW65788   4.002   1.793  14.156
87964SOL    HW165789   3.973   1.769  14.244
87964SOL    HW265790   3.921   1.821  14.112
87965SOL     OW65791   5.089   8.649  11.114
87965SOL    HW165792   5.063   8.738  11.139
87965SOL    HW265793   5.165   8.631  11.169
87966SOL     OW65794   1.579  13.438   6.117
87966SOL    HW165795   1.504  13.495   6.099
87966SOL    HW265796   1.611  13.467   6.203
87967SOL     OW65797  12.867   5.980  12.538
87967SOL    HW165798  12.865   5.917  12.466
87967SOL    HW265799  12.954   5.968  12.577
87968SOL     OW65800  14.126   4.917   8.682
87968SOL    HW165801  14.056   4.852   8.679
87968SOL    HW265802  14.108   4.975   8.607
87969SOL     OW65803   7.797  14.359  12.727
87969SOL    HW165804   7.816  14.434  12.784
87969SOL    HW265805   7.862  14.293  12.752
87970SOL     OW65806  13.706   5.553   4.035
87970SOL    HW165807  13.781   5.584   3.984
87970SOL    HW265808  13.649   5.630   4.045
87971SOL     OW65809  14.879  10.629  10.975
87971SOL    HW165810   0.008  10.536  10.995
87971SOL    HW265811  14.806  10.658  11.029
87972SOL     OW65812  10.935   3.877   7.562
87972SOL    HW165813  10.926   3.782   7.554
87972SOL    HW265814  11.029   3.893   7.561
87973SOL     OW65815  12.335   4.786   3.496
87973SOL    HW165816  12.278   4.711   3.513
87973SOL    HW265817  12.362   4.775   3.405
87974SOL     OW65818   2.060   5.559  12.297
87974SOL    HW165819   2.108   5.575  12.378
87974SOL    HW265820   1.998   5.489  12.319
87975SOL     OW65821   7.129   0.628  14.009
87975SOL    HW165822   7.209   0.589  13.975
87975SOL    HW265823   7.104   0.572  14.083
87976SOL     OW65824  13.680  10.961  14.840
87976SOL    HW165825  13.631  10.992  14.764
87976SOL    HW265826  13.623  10.898   0.003
87977SOL     OW65827   4.500   1.707  12.534
87977SOL    HW165828   4.484   1.777  12.470
87977SOL    HW265829   4.595   1.696  12.534
87978SOL     OW65830   6.127   2.801  12.843
87978SOL    HW165831   6.189   2.755  12.787
87978SOL    HW265832   6.181   2.837  12.914
87979SOL     OW65833   8.531   1.182   0.828
87979SOL    HW165834   8.552   1.101   0.874
87979SOL    HW265835   8.586   1.180   0.750
87980SOL     OW65836  11.362   6.947  14.080
87980SOL    HW165837  11.322   6.987  14.157
87980SOL    HW265838  11.456   6.964  14.090
87981SOL     OW65839   8.729   1.180   1.263
87981SOL    HW165840   8.656   1.219   1.215
87981SOL    HW265841   8.736   1.232   1.343
87982SOL     OW65842   2.469   8.031  12.425
87982SOL    HW165843   2.540   7.969  12.406
87982SOL    HW265844   2.447   8.014  12.517
87983SOL     OW65845   0.603   7.235  11.882
87983SOL    HW165846   0.622   7.191  11.799
87983SOL    HW265847   0.665   7.197  11.944
87984SOL     OW65848  13.353   1.595  10.984
87984SOL    HW165849  13.303   1.672  10.957
87984SOL    HW265850  13.428   1.630  11.032
87985SOL     OW65851   7.574  14.119   7.215
87985SOL    HW165852   7.531  14.041   7.182
87985SOL    HW265853   7.666  14.108   7.191
87986SOL     OW65854   5.563   8.169   8.921
87986SOL    HW165855   5.539   8.216   9.001
87986SOL    HW265856   5.504   8.094   8.919
87987SOL     OW65857   3.181   6.960  14.229
87987SOL    HW165858   3.253   6.926  14.176
87987SOL    HW265859   3.217   6.967  14.318
87988SOL     OW65860   1.143   3.104   7.280
87988SOL    HW165861   1.148   3.092   7.185
87988SOL    HW265862   1.185   3.026   7.316
87989SOL     OW65863   7.289   3.452   1.760
87989SOL    HW165864   7.280   3.362   1.791
87989SOL    HW265865   7.227   3.502   1.813
87990SOL     OW65866   0.099   1.191  11.571
87990SOL    HW165867   0.048   1.110  11.570
87990SOL    HW265868   0.176   1.170  11.624
87991SOL     OW65869  12.919  11.186  11.489
87991SOL    HW165870  12.966  11.131  11.552
87991SOL    HW265871  12.953  11.159  11.404
87992SOL     OW65872   1.032  10.370   2.224
87992SOL    HW165873   1.109  10.321   2.194
87992SOL    HW265874   0.960  10.307   2.218
87993SOL     OW65875   2.267   1.919   2.728
87993SOL    HW165876   2.178   1.898   2.703
87993SOL    HW265877   2.269   2.015   2.732
87994SOL     OW65878   5.167   3.969   3.706
87994SOL    HW165879   5.242   4.000   3.756
87994SOL    HW265880   5.205   3.926   3.629
87995SOL     OW65881   1.063   6.580   4.911
87995SOL    HW165882   0.975   6.547   4.890
87995SOL    HW265883   1.117   6.501   4.918
87996SOL     OW65884   3.652  12.670   5.547
87996SOL    HW165885   3.670  12.629   5.462
87996SOL    HW265886   3.563  12.705   5.539
87997SOL     OW65887  13.753   9.658  11.706
87997SOL    HW165888  13.717   9.676  11.793
87997SOL    HW265889  13.833   9.608  11.723
87998SOL     OW65890  12.626   0.080  12.750
87998SOL    HW165891  12.637   0.135  12.827
87998SOL    HW265892  12.539   0.042  12.760
87999SOL     OW65893   8.503   0.874  12.763
87999SOL    HW165894   8.505   0.784  12.731
87999SOL    HW265895   8.553   0.923  12.699
88000SOL     OW65896   2.241  11.267   7.515
88000SOL    HW165897   2.189  11.187   7.526
88000SOL    HW265898   2.248  11.303   7.603
88001SOL     OW65899   4.097   2.944   7.723
88001SOL    HW165900   4.046   3.013   7.767
88001SOL    HW265901   4.034   2.901   7.666
88002SOL     OW65902  14.710   7.269  12.267
88002SOL    HW165903  14.701   7.185  12.311
88002SOL    HW265904  14.628   7.279  12.218
88003SOL     OW65905   9.082   5.871   0.078
88003SOL    HW165906   9.012   5.934   0.060
88003SOL    HW265907   9.159   5.907   0.033
88004SOL     OW65908   2.696   3.949  13.242
88004SOL    HW165909   2.777   3.939  13.192
88004SOL    HW265910   2.632   3.983  13.179
88005SOL     OW65911  10.128   8.285   7.035
88005SOL    HW165912  10.042   8.326   7.042
88005SOL    HW265913  10.163   8.287   7.124
88006SOL     OW65914  11.347   3.804   8.791
88006SOL    HW165915  11.288   3.878   8.776
88006SOL    HW265916  11.377   3.778   8.704
88007SOL     OW65917  10.943  11.586   8.078
88007SOL    HW165918  11.000  11.514   8.051
88007SOL    HW265919  10.854  11.556   8.059
88008SOL     OW65920   4.299   6.789   7.983
88008SOL    HW165921   4.320   6.876   7.949
88008SOL    HW265922   4.382   6.743   7.985
88009SOL     OW65923   6.833   8.157   8.306
88009SOL    HW165924   6.869   8.212   8.236
88009SOL    HW265925   6.740   8.148   8.284
88010SOL     OW65926  14.199   4.604   3.747
88010SOL    HW165927  14.221   4.677   3.688
88010SOL    HW265928  14.197   4.527   3.690
88011SOL     OW65929  11.738   3.923   0.487
88011SOL    HW165930  11.754   3.878   0.569
88011SOL    HW265931  11.724   3.853   0.423
88012SOL     OW65932   9.138  10.796   1.181
88012SOL    HW165933   9.089  10.770   1.259
88012SOL    HW265934   9.230  10.780   1.205
88013SOL     OW65935   1.875   3.172   4.634
88013SOL    HW165936   1.823   3.161   4.713
88013SOL    HW265937   1.960   3.203   4.664
88014SOL     OW65938   1.835   7.948   6.265
88014SOL    HW165939   1.869   7.916   6.348
88014SOL    HW265940   1.900   7.923   6.200
88015SOL     OW65941  14.064   8.844  11.171
88015SOL    HW165942  14.048   8.864  11.079
88015SOL    HW265943  14.041   8.752  11.180
88016SOL     OW65944   4.930   7.908   5.564
88016SOL    HW165945   4.876   7.921   5.641
88016SOL    HW265946   4.941   7.813   5.558
88017SOL     OW65947   2.678   3.860   5.174
88017SOL    HW165948   2.589   3.857   5.137
88017SOL    HW265949   2.680   3.788   5.237
88018SOL     OW65950   9.787  12.521   4.220
88018SOL    HW165951   9.793  12.585   4.149
88018SOL    HW265952   9.777  12.574   4.299
88019SOL     OW65953   5.118   9.058   7.743
88019SOL    HW165954   5.094   9.098   7.827
88019SOL    HW265955   5.034   9.040   7.701
88020SOL     OW65956  13.704  12.371   3.973
88020SOL    HW165957  13.636  12.411   3.919
88020SOL    HW265958  13.785  12.415   3.947
88021SOL     OW65959  12.764   9.784   6.627
88021SOL    HW165960  12.709   9.735   6.566
88021SOL    HW265961  12.709   9.858   6.655
88022SOL     OW65962  12.640  10.809   2.970
88022SOL    HW165963  12.578  10.822   3.042
88022SOL    HW265964  12.589  10.828   2.891
88023SOL     OW65965   5.750   9.018   8.305
88023SOL    HW165966   5.713   9.092   8.355
88023SOL    HW265967   5.788   9.059   8.227
88024SOL     OW65968   3.426   2.875   3.294
88024SOL    HW165969   3.367   2.894   3.221
88024SOL    HW265970   3.477   2.955   3.306
88025SOL     OW65971   3.606   7.612   8.692
88025SOL    HW165972   3.652   7.639   8.613
88025SOL    HW265973   3.675   7.598   8.757
88026SOL     OW65974  11.031   2.190   2.587
88026SOL    HW165975  10.999   2.103   2.562
88026SOL    HW265976  11.063   2.229   2.506
88027SOL     OW65977   0.511   6.666  13.854
88027SOL    HW165978   0.497   6.738  13.914
88027SOL    HW265979   0.469   6.694  13.772
88028SOL     OW65980   7.463   1.808   8.723
88028SOL    HW165981   7.398   1.848   8.665
88028SOL    HW265982   7.521   1.879   8.748
88029SOL     OW65983   7.575   0.684  13.821
88029SOL    HW165984   7.637   0.729  13.879
88029SOL    HW265985   7.630   0.637  13.759
88030SOL     OW65986  12.492   3.956   9.703
88030SOL    HW165987  12.474   3.997   9.619
88030SOL    HW265988  12.407   3.925   9.734
88031SOL     OW65989   0.754   5.585   7.116
88031SOL    HW165990   0.660   5.583   7.132
88031SOL    HW265991   0.788   5.510   7.163
88032SOL     OW65992   2.207  12.390   4.139
88032SOL    HW165993   2.276  12.425   4.083
88032SOL    HW265994   2.202  12.452   4.212
88033SOL     OW65995   1.067   7.224  12.265
88033SOL    HW165996   1.049   7.140  12.224
88033SOL    HW265997   0.984   7.272  12.260
88034SOL     OW65998  12.870   3.370   6.767
88034SOL    HW165999  12.840   3.455   6.800
88034SOL    HW266000  12.965   3.373   6.775
88035SOL     OW66001   0.862  12.701   0.662
88035SOL    HW166002   0.906  12.784   0.680
88035SOL    HW266003   0.926  12.651   0.611
88036SOL     OW66004  13.651   6.824   7.642
88036SOL    HW166005  13.585   6.893   7.644
88036SOL    HW266006  13.668   6.810   7.549
88037SOL     OW66007  14.734   2.955   1.374
88037SOL    HW166008  14.743   2.864   1.347
88037SOL    HW266009  14.640   2.971   1.376
88038SOL     OW66010   9.433   2.557   1.867
88038SOL    HW166011   9.452   2.545   1.960
88038SOL    HW266012   9.439   2.651   1.852
88039SOL     OW66013   0.960   9.830   9.550
88039SOL    HW166014   0.918   9.872   9.474
88039SOL    HW266015   0.936   9.885   9.624
88040SOL     OW66016   5.428  14.176   3.711
88040SOL    HW166017   5.479  14.236   3.766
88040SOL    HW266018   5.345  14.222   3.697
88041SOL     OW66019   8.321   3.289   7.424
88041SOL    HW166020   8.398   3.332   7.386
88041SOL    HW266021   8.277   3.359   7.472
88042SOL     OW66022   9.203   2.466  13.458
88042SOL    HW166023   9.279   2.509  13.418
88042SOL    HW266024   9.212   2.374  13.433
88043SOL     OW66025   2.792   2.190   0.189
88043SOL    HW166026   2.806   2.096   0.194
88043SOL    HW266027   2.876   2.227   0.164
88044SOL     OW66028   4.885  14.020   9.193
88044SOL    HW166029   4.861  14.112   9.182
88044SOL    HW266030   4.981  14.020   9.189
88045SOL     OW66031   9.238   1.164   0.233
88045SOL    HW166032   9.175   1.190   0.300
88045SOL    HW266033   9.185   1.115   0.169
88046SOL     OW66034  12.458   5.944   3.113
88046SOL    HW166035  12.473   6.035   3.087
88046SOL    HW266036  12.405   5.907   3.042
88047SOL     OW66037   5.763  10.197  13.803
88047SOL    HW166038   5.783  10.237  13.888
88047SOL    HW266039   5.811  10.114  13.804
88048SOL     OW66040   8.794   5.220   9.219
88048SOL    HW166041   8.702   5.210   9.193
88048SOL    HW266042   8.808   5.151   9.284
88049SOL     OW66043   3.162   5.677  13.158
88049SOL    HW166044   3.069   5.656  13.166
88049SOL    HW266045   3.207   5.599  13.193
88050SOL     OW66046  11.707   5.813   7.628
88050SOL    HW166047  11.792   5.808   7.583
88050SOL    HW266048  11.700   5.904   7.655
88051SOL     OW66049   1.398  11.101   3.457
88051SOL    HW166050   1.370  11.045   3.384
88051SOL    HW266051   1.491  11.116   3.442
88052SOL     OW66052   1.078   4.445  13.707
88052SOL    HW166053   1.174   4.440  13.707
88052SOL    HW266054   1.058   4.521  13.651
88053SOL     OW66055   7.504  11.370   1.192
88053SOL    HW166056   7.501  11.448   1.248
88053SOL    HW266057   7.565  11.393   1.122
88054SOL     OW66058   2.590   0.277   8.232
88054SOL    HW166059   2.576   0.217   8.306
88054SOL    HW266060   2.508   0.326   8.225
88055SOL     OW66061   8.984  14.053   3.026
88055SOL    HW166062   8.897  14.057   2.985
88055SOL    HW266063   9.006  14.145   3.043
88056SOL     OW66064   6.551  13.001   6.992
88056SOL    HW166065   6.621  12.940   6.968
88056SOL    HW266066   6.595  13.069   7.044
88057SOL     OW66067   7.877   8.402   3.806
88057SOL    HW166068   7.838   8.388   3.892
88057SOL    HW266069   7.882   8.315   3.767
88058SOL     OW66070  10.376   7.339  10.607
88058SOL    HW166071  10.379   7.248  10.578
88058SOL    HW266072  10.284   7.353  10.631
88059SOL     OW66073   3.385   4.419   9.387
88059SOL    HW166074   3.419   4.496   9.340
88059SOL    HW266075   3.463   4.370   9.411
88060SOL     OW66076   9.532  14.091  10.360
88060SOL    HW166077   9.605  14.134  10.403
88060SOL    HW266078   9.531  14.002  10.398
88061SOL     OW66079   3.302   7.321   0.799
88061SOL    HW166080   3.221   7.327   0.749
88061SOL    HW266081   3.315   7.409   0.835
88062SOL     OW66082  14.220   7.086  12.829
88062SOL    HW166083  14.231   7.005  12.780
88062SOL    HW266084  14.299   7.092  12.884
88063SOL     OW66085   8.152   0.993   6.650
88063SOL    HW166086   8.184   0.995   6.560
88063SOL    HW266087   8.189   1.071   6.691
88064SOL     OW66088   8.717   1.562  13.413
88064SOL    HW166089   8.721   1.626  13.485
88064SOL    HW266090   8.807   1.554  13.383
88065SOL     OW66091  12.438  12.083  12.189
88065SOL    HW166092  12.529  12.088  12.218
88065SOL    HW266093  12.442  12.100  12.094
88066SOL     OW66094  11.253  10.111  10.676
88066SOL    HW166095  11.253  10.023  10.637
88066SOL    HW266096  11.198  10.102  10.754
88067SOL     OW66097   0.782  11.915   9.361
88067SOL    HW166098   0.804  11.840   9.415
88067SOL    HW266099   0.755  11.982   9.424
88068SOL     OW66100   8.567  12.193   0.247
88068SOL    HW166101   8.544  12.103   0.225
88068SOL    HW266102   8.504  12.246   0.199
88069SOL     OW66103  10.647   0.763   3.419
88069SOL    HW166104  10.733   0.724   3.406
88069SOL    HW266105  10.663   0.857   3.416
88070SOL     OW66106   7.972   0.270   1.859
88070SOL    HW166107   7.935   0.218   1.788
88070SOL    HW266108   8.051   0.223   1.886
88071SOL     OW66109   8.709  13.487   5.395
88071SOL    HW166110   8.793  13.505   5.438
88071SOL    HW266111   8.729  13.493   5.302
88072SOL     OW66112   0.650   5.705   3.133
88072SOL    HW166113   0.646   5.610   3.126
88072SOL    HW266114   0.568   5.730   3.174
88073SOL     OW66115  11.488  12.832   7.045
88073SOL    HW166116  11.463  12.740   7.048
88073SOL    HW266117  11.452  12.870   7.125
88074SOL     OW66118   6.757   1.255   6.303
88074SOL    HW166119   6.687   1.216   6.251
88074SOL    HW266120   6.757   1.348   6.279
88075SOL     OW66121  12.889   1.883  13.742
88075SOL    HW166122  12.895   1.858  13.835
88075SOL    HW266123  12.956   1.951  13.732
88076SOL     OW66124  10.306   5.411  12.853
88076SOL    HW166125  10.302   5.384  12.762
88076SOL    HW266126  10.272   5.336  12.902
88077SOL     OW66127   2.388  12.599   8.129
88077SOL    HW166128   2.411  12.675   8.076
88077SOL    HW266129   2.423  12.619   8.216
88078SOL     OW66130   6.479   1.761   7.064
88078SOL    HW166131   6.509   1.676   7.035
88078SOL    HW266132   6.434   1.798   6.988
88079SOL     OW66133   0.088  12.898  14.491
88079SOL    HW166134   0.010  12.909  14.546
88079SOL    HW266135   0.160  12.891  14.554
88080SOL     OW66136  14.140   6.083   4.756
88080SOL    HW166137  14.137   6.179   4.759
88080SOL    HW266138  14.216   6.060   4.809
88081SOL     OW66139  11.407   4.319  11.126
88081SOL    HW166140  11.475   4.383  11.103
88081SOL    HW266141  11.325   4.366  11.109
88082SOL     OW66142   1.594  10.579   6.239
88082SOL    HW166143   1.655  10.605   6.308
88082SOL    HW266144   1.510  10.619   6.265
88083SOL     OW66145   1.274   5.876  13.729
88083SOL    HW166146   1.240   5.926  13.803
88083SOL    HW266147   1.197   5.835  13.690
88084SOL     OW66148  14.651   7.973  10.556
88084SOL    HW166149  14.722   7.925  10.598
88084SOL    HW266150  14.582   7.908  10.544
88085SOL     OW66151   9.237  14.439  11.497
88085SOL    HW166152   9.316  14.464  11.545
88085SOL    HW266153   9.205  14.521  11.459
88086SOL     OW66154   0.622   0.685  13.189
88086SOL    HW166155   0.710   0.649  13.175
88086SOL    HW266156   0.635   0.756  13.251
88087SOL     OW66157  10.921   6.279   9.896
88087SOL    HW166158  11.014   6.258   9.892
88087SOL    HW266159  10.891   6.239   9.978
88088SOL     OW66160   9.781   4.245   8.195
88088SOL    HW166161   9.707   4.256   8.135
88088SOL    HW266162   9.777   4.324   8.250
88089SOL     OW66163   1.276   8.659   6.720
88089SOL    HW166164   1.346   8.656   6.655
88089SOL    HW266165   1.198   8.683   6.670
88090SOL     OW66166  11.365   2.285   9.161
88090SOL    HW166167  11.347   2.308   9.252
88090SOL    HW266168  11.425   2.211   9.166
88091SOL     OW66169   3.166   7.295   1.968
88091SOL    HW166170   3.090   7.243   1.942
88091SOL    HW266171   3.219   7.236   2.020
88092SOL     OW66172  13.496  13.925   0.712
88092SOL    HW166173  13.406  13.941   0.742
88092SOL    HW266174  13.504  13.830   0.706
88093SOL     OW66175   8.251   7.301   0.877
88093SOL    HW166176   8.219   7.338   0.794
88093SOL    HW266177   8.302   7.371   0.916
88094SOL     OW66178   0.348  11.177   1.716
88094SOL    HW166179   0.270  11.222   1.684
88094SOL    HW266180   0.316  11.096   1.755
88095SOL     OW66181   0.075   3.834  14.520
88095SOL    HW166182   0.011   3.905  14.507
88095SOL    HW266183   0.131   3.838  14.443
88096SOL     OW66184   8.719   3.529  11.659
88096SOL    HW166185   8.719   3.434  11.658
88096SOL    HW266186   8.779   3.554  11.589
88097SOL     OW66187   2.943   8.292   9.403
88097SOL    HW166188   2.857   8.280   9.361
88097SOL    HW266189   2.949   8.386   9.417
88098SOL     OW66190  11.638  11.788   0.749
88098SOL    HW166191  11.597  11.721   0.693
88098SOL    HW266192  11.625  11.870   0.701
88099SOL     OW66193  13.371   3.485   3.273
88099SOL    HW166194  13.348   3.443   3.190
88099SOL    HW266195  13.465   3.500   3.268
88100SOL     OW66196  12.180  12.113  14.176
88100SOL    HW166197  12.157  12.173  14.104
88100SOL    HW266198  12.275  12.124  14.187
88101SOL     OW66199   8.938  12.441   8.269
88101SOL    HW166200   8.979  12.510   8.321
88101SOL    HW266201   8.845  12.466   8.265
88102SOL     OW66202   5.162   9.066   0.878
88102SOL    HW166203   5.141   9.159   0.883
88102SOL    HW266204   5.203   9.046   0.962
88103SOL     OW66205  11.996   2.578   1.662
88103SOL    HW166206  11.914   2.529   1.666
88103SOL    HW266207  11.974   2.666   1.691
88104SOL     OW66208   9.837  12.395   3.765
88104SOL    HW166209   9.753  12.351   3.776
88104SOL    HW266210   9.814  12.486   3.744
88105SOL     OW66211  14.700  10.113  14.720
88105SOL    HW166212  14.616  10.071  14.738
88105SOL    HW266213  14.765  10.057  14.761
88106SOL     OW66214   6.105  10.892  10.525
88106SOL    HW166215   6.145  10.820  10.476
88106SOL    HW266216   6.024  10.911  10.477
88107SOL     OW66217  10.627  11.893   8.268
88107SOL    HW166218  10.588  11.829   8.209
88107SOL    HW266219  10.656  11.964   8.211
88108SOL     OW66220   5.692  14.615   0.041
88108SOL    HW166221   5.696  14.614   0.137
88108SOL    HW266222   5.777  14.581   0.014
88109SOL     OW66223   7.554  10.198  13.992
88109SOL    HW166224   7.621  10.219  14.058
88109SOL    HW266225   7.510  10.281  13.976
88110SOL     OW66226   0.276   1.604   2.033
88110SOL    HW166227   0.195   1.584   1.986
88110SOL    HW266228   0.286   1.533   2.096
88111SOL     OW66229  14.750  11.345   1.489
88111SOL    HW166230  14.787  11.311   1.408
88111SOL    HW266231  14.792  11.430   1.502
88112SOL     OW66232   9.782   6.769  13.553
88112SOL    HW166233   9.695   6.806  13.542
88112SOL    HW266234   9.805   6.735  13.466
88113SOL     OW66235   1.371  14.605   2.376
88113SOL    HW166236   1.365  14.531   2.316
88113SOL    HW266237   1.426  14.669   2.329
88114SOL     OW66238   5.127  14.788   7.455
88114SOL    HW166239   5.214  14.798   7.493
88114SOL    HW266240   5.097  14.703   7.487
88115SOL     OW66241   3.202  12.030   1.714
88115SOL    HW166242   3.282  12.032   1.661
88115SOL    HW266243   3.207  11.947   1.762
88116SOL     OW66244   7.173   0.254   1.269
88116SOL    HW166245   7.158   0.186   1.334
88116SOL    HW266246   7.131   0.332   1.306
88117SOL     OW66247  12.507   7.423   9.281
88117SOL    HW166248  12.517   7.397   9.189
88117SOL    HW266249  12.539   7.513   9.285
88118SOL     OW66250   7.887   5.183   2.738
88118SOL    HW166251   7.982   5.194   2.748
88118SOL    HW266252   7.860   5.258   2.685
88119SOL     OW66253   0.568   3.127   2.042
88119SOL    HW166254   0.585   3.034   2.056
88119SOL    HW266255   0.605   3.170   2.118
88120SOL     OW66256   4.768   6.486   0.716
88120SOL    HW166257   4.735   6.553   0.656
88120SOL    HW266258   4.826   6.534   0.776
88121SOL     OW66259  14.568  14.124   2.221
88121SOL    HW166260  14.534  14.038   2.247
88121SOL    HW266261  14.490  14.173   2.196
88122SOL     OW66262   6.806  10.270   3.759
88122SOL    HW166263   6.715  10.241   3.765
88122SOL    HW266264   6.811  10.347   3.817
88123SOL     OW66265  14.639   1.489   3.278
88123SOL    HW166266  14.692   1.488   3.198
88123SOL    HW266267  14.688   1.546   3.337
88124SOL     OW66268   5.504   7.370   1.158
88124SOL    HW166269   5.576   7.308   1.161
88124SOL    HW266270   5.544   7.455   1.178
88125SOL     OW66271   3.540  11.702   5.684
88125SOL    HW166272   3.604  11.752   5.633
88125SOL    HW266273   3.486  11.659   5.618
88126SOL     OW66274   5.936  13.077   3.999
88126SOL    HW166275   5.992  13.147   3.965
88126SOL    HW266276   5.943  13.007   3.935
88127SOL     OW66277   2.949   9.984  12.140
88127SOL    HW166278   2.994  10.007  12.059
88127SOL    HW266279   2.908   9.899  12.122
88128SOL     OW66280  14.455   1.132   8.712
88128SOL    HW166281  14.516   1.191   8.668
88128SOL    HW266282  14.500   1.106   8.792
88129SOL     OW66283   7.777   1.411   3.832
88129SOL    HW166284   7.828   1.336   3.864
88129SOL    HW266285   7.730   1.443   3.909
88130SOL     OW66286  13.699   4.653   7.120
88130SOL    HW166287  13.686   4.560   7.097
88130SOL    HW266288  13.610   4.687   7.131
88131SOL     OW66289   2.238   4.151   5.610
88131SOL    HW166290   2.314   4.120   5.561
88131SOL    HW266291   2.193   4.071   5.639
88132SOL     OW66292   5.674  12.865   6.168
88132SOL    HW166293   5.634  12.952   6.174
88132SOL    HW266294   5.695  12.855   6.075
88133SOL     OW66295   5.055  14.867   3.451
88133SOL    HW166296   5.114   0.061   3.437
88133SOL    HW266297   4.987  14.877   3.384
88134SOL     OW66298   2.246   7.017   6.846
88134SOL    HW166299   2.151   7.017   6.854
88134SOL    HW266300   2.264   6.966   6.767
88135SOL     OW66301   0.656  10.777   3.212
88135SOL    HW166302   0.596  10.827   3.267
88135SOL    HW266303   0.677  10.699   3.263
88136SOL     OW66304  10.495   2.511  11.091
88136SOL    HW166305  10.492   2.590  11.144
88136SOL    HW266306  10.403   2.485  11.082
88137SOL     OW66307   5.783   7.387  11.187
88137SOL    HW166308   5.697   7.416  11.216
88137SOL    HW266309   5.805   7.314  11.245
88138SOL     OW66310  14.373   7.470   9.231
88138SOL    HW166311  14.298   7.421   9.199
88138SOL    HW266312  14.392   7.432   9.317
88139SOL     OW66313   7.556  11.248   5.137
88139SOL    HW166314   7.635  11.221   5.185
88139SOL    HW266315   7.495  11.276   5.206
88140SOL     OW66316   6.894   0.204   9.132
88140SOL    HW166317   6.887   0.233   9.042
88140SOL    HW266318   6.893   0.285   9.184
88141SOL     OW66319   9.045   6.264  11.420
88141SOL    HW166320   9.125   6.212  11.422
88141SOL    HW266321   9.021   6.275  11.512
88142SOL     OW66322   7.505   1.335  10.202
88142SOL    HW166323   7.418   1.371  10.217
88142SOL    HW266324   7.526   1.288  10.283
88143SOL     OW66325   6.524   4.021   7.875
88143SOL    HW166326   6.430   4.009   7.877
88143SOL    HW266327   6.554   3.991   7.961
88144SOL     OW66328   1.998   2.242  10.919
88144SOL    HW166329   2.080   2.225  10.871
88144SOL    HW266330   2.015   2.210  11.007
88145SOL     OW66331   6.228   5.664   1.208
88145SOL    HW166332   6.305   5.712   1.177
88145SOL    HW266333   6.265   5.591   1.259
88146SOL     OW66334   4.180  11.194  11.523
88146SOL    HW166335   4.195  11.243  11.604
88146SOL    HW266336   4.268  11.166  11.497
88147SOL     OW66337   2.823   8.259  14.787
88147SOL    HW166338   2.901   8.293  14.743
88147SOL    HW266339   2.762   8.332  14.789
88148SOL     OW66340   8.203   3.082  13.097
88148SOL    HW166341   8.214   3.141  13.022
88148SOL    HW266342   8.125   3.030  13.075
88149SOL     OW66343   8.012   8.124   9.073
88149SOL    HW166344   7.949   8.163   9.011
88149SOL    HW266345   8.092   8.114   9.023
88150SOL     OW66346  10.515   8.219   5.011
88150SOL    HW166347  10.512   8.169   5.092
88150SOL    HW266348  10.486   8.307   5.036
88151SOL     OW66349   4.908   0.988   6.581
88151SOL    HW166350   4.890   0.942   6.663
88151SOL    HW266351   4.829   0.978   6.529
88152SOL     OW66352  13.145   2.168   3.712
88152SOL    HW166353  13.080   2.237   3.727
88152SOL    HW266354  13.096   2.087   3.723
88153SOL     OW66355   4.559   1.721   2.392
88153SOL    HW166356   4.482   1.680   2.353
88153SOL    HW266357   4.611   1.751   2.318
88154SOL     OW66358   0.542   9.302   9.674
88154SOL    HW166359   0.604   9.274   9.607
88154SOL    HW266360   0.553   9.238   9.745
88155SOL     OW66361  11.165  12.554  10.399
88155SOL    HW166362  11.182  12.482  10.339
88155SOL    HW266363  11.234  12.618  10.382
88156SOL     OW66364   4.672   0.082   4.060
88156SOL    HW166365   4.705   0.172   4.061
88156SOL    HW266366   4.704   0.046   3.978
88157SOL     OW66367  14.844  12.665  12.376
88157SOL    HW166368  14.863  12.574  12.356
88157SOL    HW266369  14.839  12.708  12.291
88158SOL     OW66370   4.523  13.850   1.688
88158SOL    HW166371   4.523  13.921   1.624
88158SOL    HW266372   4.538  13.771   1.637
88159SOL     OW66373   6.595   8.710   6.831
88159SOL    HW166374   6.514   8.739   6.873
88159SOL    HW266375   6.597   8.615   6.845
88160SOL     OW66376   0.710   7.911  11.962
88160SOL    HW166377   0.743   7.913  12.052
88160SOL    HW266378   0.624   7.954  11.968
88161SOL     OW66379   7.383   3.455  14.148
88161SOL    HW166380   7.438   3.380  14.170
88161SOL    HW266381   7.408   3.477  14.058
88162SOL     OW66382  13.502   2.048   8.070
88162SOL    HW166383  13.598   2.047   8.077
88162SOL    HW266384  13.485   2.065   7.977
88163SOL     OW66385  14.472   8.858   5.378
88163SOL    HW166386  14.440   8.771   5.404
88163SOL    HW266387  14.567   8.847   5.375
88164SOL     OW66388  14.093  14.250  10.142
88164SOL    HW166389  14.133  14.164  10.151
88164SOL    HW266390  14.001  14.233  10.124
88165SOL     OW66391   5.239  11.271   5.424
88165SOL    HW166392   5.176  11.317   5.368
88165SOL    HW266393   5.307  11.242   5.364
88166SOL     OW66394   3.729   9.704   1.407
88166SOL    HW166395   3.772   9.784   1.377
88166SOL    HW266396   3.698   9.725   1.495
88167SOL     OW66397   9.768  11.594  14.753
88167SOL    HW166398   9.833  11.527  14.732
88167SOL    HW266399   9.752  11.584  14.847
88168SOL     OW66400   8.736   5.126   1.044
88168SOL    HW166401   8.669   5.193   1.061
88168SOL    HW266402   8.686   5.044   1.041
88169SOL     OW66403   1.815   7.508   9.315
88169SOL    HW166404   1.784   7.510   9.224
88169SOL    HW266405   1.905   7.476   9.309
88170SOL     OW66406   3.599   6.581   3.645
88170SOL    HW166407   3.662   6.564   3.715
88170SOL    HW266408   3.642   6.644   3.588
88171SOL     OW66409   4.598   2.340   6.077
88171SOL    HW166410   4.691   2.317   6.087
88171SOL    HW266411   4.594   2.386   5.993
88172SOL     OW66412   5.396  13.556   7.042
88172SOL    HW166413   5.305  13.582   7.024
88172SOL    HW266414   5.442  13.571   6.960
88173SOL     OW66415  12.105   1.129   7.369
88173SOL    HW166416  12.026   1.115   7.316
88173SOL    HW266417  12.073   1.133   7.459
88174SOL     OW66418   2.048   0.205   0.772
88174SOL    HW166419   2.047   0.199   0.867
88174SOL    HW266420   1.986   0.275   0.752
88175SOL     OW66421  13.068   9.689   8.759
88175SOL    HW166422  13.110   9.633   8.693
88175SOL    HW266423  12.975   9.688   8.736
88176SOL     OW66424   8.205  12.477  13.934
88176SOL    HW166425   8.225  12.418  13.862
88176SOL    HW266426   8.270  12.457  14.001
88177SOL     OW66427  11.818   0.569   4.046
88177SOL    HW166428  11.782   0.628   4.113
88177SOL    HW266429  11.823   0.484   4.090
88178SOL     OW66430   1.514  10.073  13.231
88178SOL    HW166431   1.554  10.010  13.171
88178SOL    HW266432   1.586  10.128  13.261
88179SOL     OW66433   9.297   3.218   1.508
88179SOL    HW166434   9.252   3.271   1.575
88179SOL    HW266435   9.389   3.219   1.535
88180SOL     OW66436   8.549   5.934   7.299
88180SOL    HW166437   8.494   5.965   7.371
88180SOL    HW266438   8.639   5.943   7.331
88181SOL     OW66439   6.850   4.183   5.626
88181SOL    HW166440   6.841   4.147   5.715
88181SOL    HW266441   6.760   4.197   5.597
88182SOL     OW66442  11.719   3.644   1.331
88182SOL    HW166443  11.812   3.660   1.315
88182SOL    HW266444  11.676   3.672   1.250
88183SOL     OW66445  13.530   6.125   0.998
88183SOL    HW166446  13.603   6.066   1.017
88183SOL    HW266447  13.543   6.200   1.056
88184SOL     OW66448  13.146   0.198   3.661
88184SOL    HW166449  13.233   0.169   3.633
88184SOL    HW266450  13.102   0.225   3.580
88185SOL     OW66451  10.101  12.806  10.773
88185SOL    HW166452  10.167  12.737  10.784
88185SOL    HW266453  10.022  12.769  10.813
88186SOL     OW66454   7.534   8.722   9.032
88186SOL    HW166455   7.450   8.683   9.007
88186SOL    HW266456   7.590   8.647   9.051
88187SOL     OW66457  14.591  12.721   8.047
88187SOL    HW166458  14.531  12.691   7.979
88187SOL    HW266459  14.588  12.654   8.114
88188SOL     OW66460   5.685   6.006  11.314
88188SOL    HW166461   5.673   6.100  11.327
88188SOL    HW266462   5.754   5.982  11.376
88189SOL     OW66463   3.774   9.647   3.932
88189SOL    HW166464   3.776   9.742   3.941
88189SOL    HW266465   3.866   9.622   3.920
88190SOL     OW66466   9.866   0.389   9.627
88190SOL    HW166467   9.858   0.463   9.567
88190SOL    HW266468   9.890   0.429   9.711
88191SOL     OW66469   5.410   0.877   2.192
88191SOL    HW166470   5.344   0.837   2.248
88191SOL    HW266471   5.363   0.947   2.146
88192SOL     OW66472  14.317   8.957  13.544
88192SOL    HW166473  14.271   9.035  13.575
88192SOL    HW266474  14.297   8.953  13.450
88193SOL     OW66475  14.127   4.680   1.617
88193SOL    HW166476  14.185   4.622   1.568
88193SOL    HW266477  14.043   4.635   1.620
88194SOL     OW66478   5.978  13.166  14.150
88194SOL    HW166479   6.038  13.238  14.130
88194SOL    HW266480   5.960  13.177  14.244
88195SOL     OW66481  12.088   4.672   8.402
88195SOL    HW166482  11.995   4.676   8.425
88195SOL    HW266483  12.124   4.756   8.430
88196SOL     OW66484   6.769   1.908   6.401
88196SOL    HW166485   6.854   1.950   6.417
88196SOL    HW266486   6.756   1.915   6.307
88197SOL     OW66487   0.775   0.880   6.999
88197SOL    HW166488   0.781   0.935   7.078
88197SOL    HW266489   0.828   0.803   7.019
88198SOL     OW66490   3.187   4.384   7.264
88198SOL    HW166491   3.210   4.361   7.354
88198SOL    HW266492   3.216   4.475   7.254
88199SOL     OW66493   1.340  11.800   2.715
88199SOL    HW166494   1.296  11.810   2.631
88199SOL    HW266495   1.396  11.723   2.704
88200SOL     OW66496   3.569   1.805  10.671
88200SOL    HW166497   3.542   1.840  10.755
88200SOL    HW266498   3.595   1.715  10.689
88201SOL     OW66499  11.490   4.734  13.063
88201SOL    HW166500  11.467   4.826  13.049
88201SOL    HW266501  11.561   4.717  13.001
88202SOL     OW66502  13.380   7.285  11.170
88202SOL    HW166503  13.305   7.226  11.161
88202SOL    HW266504  13.456   7.229  11.162
88203SOL     OW66505  13.207  10.604   1.823
88203SOL    HW166506  13.202  10.537   1.891
88203SOL    HW266507  13.268  10.569   1.758
88204SOL     OW66508   9.007   5.589   5.571
88204SOL    HW166509   9.032   5.678   5.595
88204SOL    HW266510   9.007   5.589   5.475
88205SOL     OW66511   8.777   9.311   6.645
88205SOL    HW166512   8.768   9.377   6.714
88205SOL    HW266513   8.822   9.238   6.688
88206SOL     OW66514   6.051   5.274  12.818
88206SOL    HW166515   6.038   5.222  12.898
88206SOL    HW266516   5.963   5.301  12.793
88207SOL     OW66517   7.918   8.815  12.080
88207SOL    HW166518   7.867   8.738  12.056
88207SOL    HW266519   7.852   8.884  12.092
88208SOL     OW66520   0.953   9.954   2.153
88208SOL    HW166521   0.999   9.935   2.072
88208SOL    HW266522   0.879   9.892   2.154
88209SOL     OW66523  13.373   5.130  13.788
88209SOL    HW166524  13.324   5.064  13.837
88209SOL    HW266525  13.308   5.171  13.730
88210SOL     OW66526   4.764   9.216  12.635
88210SOL    HW166527   4.829   9.147  12.620
88210SOL    HW266528   4.694   9.198  12.573
88211SOL     OW66529  13.561  13.516  14.699
88211SOL    HW166530  13.584  13.470  14.780
88211SOL    HW266531  13.465  13.522  14.701
88212SOL     OW66532   0.818   8.122  12.191
88212SOL    HW166533   0.760   8.184  12.148
88212SOL    HW266534   0.774   8.101  12.274
88213SOL     OW66535  11.488   5.673  10.226
88213SOL    HW166536  11.502   5.631  10.141
88213SOL    HW266537  11.395   5.697  10.226
88214SOL     OW66538   5.781   3.723   9.330
88214SOL    HW166539   5.691   3.709   9.299
88214SOL    HW266540   5.785   3.817   9.349
88215SOL     OW66541   3.893   2.449   2.953
88215SOL    HW166542   3.901   2.536   2.915
88215SOL    HW266543   3.808   2.417   2.923
88216SOL     OW66544   9.982  11.248   3.029
88216SOL    HW166545   9.950  11.195   3.102
88216SOL    HW266546  10.077  11.247   3.039
88217SOL     OW66547   0.151   9.389   2.204
88217SOL    HW166548   0.082   9.449   2.233
88217SOL    HW266549   0.232   9.426   2.241
88218SOL     OW66550  13.404  10.803   6.856
88218SOL    HW166551  13.340  10.774   6.921
88218SOL    HW266552  13.455  10.725   6.836
88219SOL     OW66553   9.897   3.359   9.651
88219SOL    HW166554   9.944   3.351   9.568
88219SOL    HW266555   9.958   3.323   9.716
88220SOL     OW66556   6.581   8.431  12.685
88220SOL    HW166557   6.630   8.372  12.627
88220SOL    HW266558   6.500   8.450  12.638
88221SOL     OW66559   0.163   1.212  13.820
88221SOL    HW166560   0.249   1.204  13.861
88221SOL    HW266561   0.115   1.273  13.876
88222SOL     OW66562   3.772   7.824   7.961
88222SOL    HW166563   3.749   7.822   8.054
88222SOL    HW266564   3.811   7.739   7.944
88223SOL     OW66565  12.861   1.513   8.939
88223SOL    HW166566  12.825   1.428   8.913
88223SOL    HW266567  12.940   1.523   8.886
88224SOL     OW66568   4.228   2.375   0.740
88224SOL    HW166569   4.147   2.422   0.759
88224SOL    HW266570   4.203   2.283   0.744
88225SOL     OW66571   2.197   6.975  12.722
88225SOL    HW166572   2.177   7.065  12.696
88225SOL    HW266573   2.211   6.979  12.816
88226SOL     OW66574  13.813  14.809   2.654
88226SOL    HW166575  13.791  14.729   2.606
88226SOL    HW266576  13.731  14.834   2.697
88227SOL     OW66577  12.326  12.419  11.421
88227SOL    HW166578  12.346  12.449  11.332
88227SOL    HW266579  12.231  12.410  11.423
88228SOL     OW66580   6.682   0.495  11.656
88228SOL    HW166581   6.591   0.496  11.684
88228SOL    HW266582   6.680   0.528  11.566
88229SOL     OW66583  10.230  11.171   3.915
88229SOL    HW166584  10.300  11.219   3.959
88229SOL    HW266585  10.241  11.192   3.822
88230SOL     OW66586   4.477  11.283   4.941
88230SOL    HW166587   4.537  11.247   4.876
88230SOL    HW266588   4.431  11.207   4.977
88231SOL     OW66589  10.889   5.128   8.409
88231SOL    HW166590  10.913   5.219   8.392
88231SOL    HW266591  10.932   5.078   8.340
88232SOL     OW66592   9.140  12.836   3.516
88232SOL    HW166593   9.187  12.901   3.568
88232SOL    HW266594   9.065  12.813   3.571
88233SOL     OW66595  12.540   0.973  13.215
88233SOL    HW166596  12.606   0.917  13.174
88233SOL    HW266597  12.533   0.939  13.305
88234SOL     OW66598   7.539   8.204   4.387
88234SOL    HW166599   7.550   8.109   4.393
88234SOL    HW266600   7.625   8.240   4.409
88235SOL     OW66601  14.879  13.837   2.272
88235SOL    HW166602   0.087  13.847   2.235
88235SOL    HW266603  14.875  13.905   2.340
88236SOL     OW66604   7.489   8.382   6.913
88236SOL    HW166605   7.490   8.399   6.819
88236SOL    HW266606   7.581   8.382   6.939
88237SOL     OW66607   1.120  13.619   3.202
88237SOL    HW166608   1.063  13.555   3.244
88237SOL    HW266609   1.062  13.670   3.146
88238SOL     OW66610   5.051   4.976  11.989
88238SOL    HW166611   4.997   5.029  11.930
88238SOL    HW266612   5.003   4.974  12.071
88239SOL     OW66613  12.792   3.238  12.265
88239SOL    HW166614  12.813   3.203  12.352
88239SOL    HW266615  12.792   3.333  12.277
88240SOL     OW66616  13.359   3.638  13.080
88240SOL    HW166617  13.286   3.595  13.035
88240SOL    HW266618  13.392   3.571  13.141
88241SOL     OW66619   9.716   2.292   5.915
88241SOL    HW166620   9.811   2.302   5.914
88241SOL    HW266621   9.682   2.378   5.938
88242SOL     OW66622  14.855   1.237   7.907
88242SOL    HW166623  14.766   1.203   7.922
88242SOL    HW266624   0.008   1.255   7.995
88243SOL     OW66625  10.163  12.229  11.020
88243SOL    HW166626  10.190  12.289  10.950
88243SOL    HW266627  10.097  12.173  10.979
88244SOL     OW66628  14.030   0.469   4.553
88244SOL    HW166629  13.991   0.535   4.611
88244SOL    HW266630  13.955   0.425   4.513
88245SOL     OW66631   6.958   0.765   2.457
88245SOL    HW166632   6.892   0.711   2.414
88245SOL    HW266633   7.038   0.713   2.451
88246SOL     OW66634   8.785   5.747  12.768
88246SOL    HW166635   8.793   5.787  12.855
88246SOL    HW266636   8.697   5.772  12.738
88247SOL     OW66637   7.684   1.475  14.583
88247SOL    HW166638   7.773   1.508  14.599
88247SOL    HW266639   7.630   1.554  14.582
88248SOL     OW66640   6.642   0.388   9.791
88248SOL    HW166641   6.575   0.419   9.731
88248SOL    HW266642   6.673   0.306   9.753
88249SOL     OW66643   6.994   7.228  13.094
88249SOL    HW166644   6.942   7.305  13.070
88249SOL    HW266645   7.040   7.204  13.014
88250SOL     OW66646   3.169  13.687  14.016
88250SOL    HW166647   3.195  13.779  14.008
88250SOL    HW266648   3.081  13.683  13.981
88251SOL     OW66649   1.744   1.517  14.036
88251SOL    HW166650   1.717   1.465  13.960
88251SOL    HW266651   1.744   1.455  14.109
88252SOL     OW66652  11.324   5.415  14.588
88252SOL    HW166653  11.299   5.410  14.681
88252SOL    HW266654  11.363   5.329  14.570
88253SOL     OW66655   9.528   1.042  10.916
88253SOL    HW166656   9.434   1.051  10.899
88253SOL    HW266657   9.563   1.131  10.911
88254SOL     OW66658   5.542   3.684  12.931
88254SOL    HW166659   5.634   3.660  12.936
88254SOL    HW266660   5.509   3.639  12.853
88255SOL     OW66661   7.772  11.683   0.954
88255SOL    HW166662   7.712  11.756   0.964
88255SOL    HW266663   7.717  11.605   0.967
88256SOL     OW66664   5.066   6.622   3.113
88256SOL    HW166665   5.065   6.702   3.165
88256SOL    HW266666   5.037   6.649   3.026
88257SOL     OW66667   6.470  10.937   0.148
88257SOL    HW166668   6.455  10.872   0.216
88257SOL    HW266669   6.382  10.962   0.118
88258SOL     OW66670  10.222  11.953   7.941
88258SOL    HW166671  10.251  11.971   7.852
88258SOL    HW266672  10.259  12.024   7.994
88259SOL     OW66673   8.520  11.599   5.476
88259SOL    HW166674   8.540  11.691   5.460
88259SOL    HW266675   8.568  11.552   5.408
88260SOL     OW66676   0.450  10.625   1.614
88260SOL    HW166677   0.507  10.552   1.586
88260SOL    HW266678   0.388  10.584   1.674
88261SOL     OW66679  11.371   1.988   4.882
88261SOL    HW166680  11.350   2.029   4.966
88261SOL    HW266681  11.444   1.930   4.901
88262SOL     OW66682  13.675   4.126   7.620
88262SOL    HW166683  13.692   4.070   7.545
88262SOL    HW266684  13.580   4.139   7.620
88263SOL     OW66685   1.717   6.155   3.912
88263SOL    HW166686   1.703   6.165   4.007
88263SOL    HW266687   1.804   6.115   3.905
88264SOL     OW66688   5.390  11.436   8.411
88264SOL    HW166689   5.317  11.375   8.424
88264SOL    HW266690   5.350  11.522   8.413
88265SOL     OW66691   1.190   6.410  12.703
88265SOL    HW166692   1.146   6.403  12.788
88265SOL    HW266693   1.277   6.444  12.725
88266SOL     OW66694   5.962  10.473   6.893
88266SOL    HW166695   5.958  10.406   6.962
88266SOL    HW266696   5.918  10.433   6.818
88267SOL     OW66697   3.820  11.264   8.001
88267SOL    HW166698   3.902  11.314   8.007
88267SOL    HW266699   3.773  11.284   8.081
88268SOL     OW66700  12.845   1.879  14.585
88268SOL    HW166701  12.779   1.914  14.525
88268SOL    HW266702  12.811   1.793  14.610
88269SOL     OW66703   2.684  12.310   0.557
88269SOL    HW166704   2.711  12.319   0.648
88269SOL    HW266705   2.702  12.395   0.517
88270SOL     OW66706  12.905   9.704   1.403
88270SOL    HW166707  12.815   9.736   1.409
88270SOL    HW266708  12.959   9.780   1.425
88271SOL     OW66709   9.153   5.566   9.137
88271SOL    HW166710   9.096   5.599   9.068
88271SOL    HW266711   9.211   5.504   9.092
88272SOL     OW66712   3.841   3.348  10.683
88272SOL    HW166713   3.875   3.399  10.609
88272SOL    HW266714   3.762   3.394  10.710
88273SOL     OW66715   2.406   9.836   7.802
88273SOL    HW166716   2.443   9.923   7.786
88273SOL    HW266717   2.441   9.811   7.887
88274SOL     OW66718   9.208   6.302   8.279
88274SOL    HW166719   9.198   6.372   8.344
88274SOL    HW266720   9.302   6.284   8.278
88275SOL     OW66721   3.372   8.962   9.534
88275SOL    HW166722   3.318   8.962   9.454
88275SOL    HW266723   3.453   9.006   9.508
88276SOL     OW66724   1.809   5.414  14.228
88276SOL    HW166725   1.847   5.497  14.260
88276SOL    HW266726   1.883   5.354  14.225
88277SOL     OW66727  11.214  14.455  13.009
88277SOL    HW166728  11.161  14.509  13.067
88277SOL    HW266729  11.166  14.454  12.926
88278SOL     OW66730   6.746   4.794  11.714
88278SOL    HW166731   6.775   4.704  11.724
88278SOL    HW266732   6.707   4.817  11.799
88279SOL     OW66733  11.491   6.981   1.175
88279SOL    HW166734  11.536   7.042   1.234
88279SOL    HW266735  11.440   6.925   1.233
88280SOL     OW66736   1.168  14.720   6.423
88280SOL    HW166737   1.199  14.655   6.361
88280SOL    HW266738   1.104  14.673   6.477
88281SOL     OW66739   0.273  14.367  11.105
88281SOL    HW166740   0.343  14.351  11.042
88281SOL    HW266741   0.192  14.357  11.055
88282SOL     OW66742   3.741   4.255   6.381
88282SOL    HW166743   3.771   4.164   6.389
88282SOL    HW266744   3.649   4.252   6.407
88283SOL     OW66745   0.989   2.456   3.679
88283SOL    HW166746   1.084   2.455   3.664
88283SOL    HW266747   0.975   2.532   3.736
88284SOL     OW66748   4.780   8.126   2.958
88284SOL    HW166749   4.770   8.033   2.941
88284SOL    HW266750   4.720   8.144   3.030
88285SOL     OW66751   3.128   0.674   6.318
88285SOL    HW166752   3.043   0.716   6.305
88285SOL    HW266753   3.109   0.596   6.369
88286SOL     OW66754  11.871   2.905   6.294
88286SOL    HW166755  11.855   2.873   6.383
88286SOL    HW266756  11.863   3.000   6.302
88287SOL     OW66757   8.074   0.113  14.485
88287SOL    HW166758   8.138   0.090  14.552
88287SOL    HW266759   8.001   0.152  14.533
88288SOL     OW66760  13.601   1.967   6.362
88288SOL    HW166761  13.530   2.031   6.350
88288SOL    HW266762  13.558   1.892   6.403
88289SOL     OW66763  13.342   9.387  12.190
88289SOL    HW166764  13.406   9.324  12.225
88289SOL    HW266765  13.362   9.392  12.097
88290SOL     OW66766  13.116   8.600  11.571
88290SOL    HW166767  13.027   8.612  11.538
88290SOL    HW266768  13.171   8.600  11.493
88291SOL     OW66769   6.098   4.304   3.147
88291SOL    HW166770   6.083   4.398   3.153
88291SOL    HW266771   6.056   4.279   3.065
88292SOL     OW66772   2.334  11.438   5.383
88292SOL    HW166773   2.388  11.415   5.308
88292SOL    HW266774   2.387  11.415   5.459
88293SOL     OW66775   3.620  11.710   6.656
88293SOL    HW166776   3.607  11.719   6.751
88293SOL    HW266777   3.678  11.783   6.633
88294SOL     OW66778  14.690  10.433   1.211
88294SOL    HW166779  14.607  10.436   1.258
88294SOL    HW266780  14.680  10.362   1.148
88295SOL     OW66781   0.849   7.026   6.374
88295SOL    HW166782   0.772   6.972   6.356
88295SOL    HW266783   0.906   7.012   6.298
88296SOL     OW66784   2.992  12.114   6.966
88296SOL    HW166785   3.080  12.151   6.972
88296SOL    HW266786   2.976  12.077   7.053
88297SOL     OW66787   9.132  14.540   8.333
88297SOL    HW166788   9.119  14.518   8.425
88297SOL    HW266789   9.100  14.630   8.325
88298SOL     OW66790   1.852  12.327   7.486
88298SOL    HW166791   1.785  12.260   7.474
88298SOL    HW266792   1.909  12.317   7.410
88299SOL     OW66793   5.496   0.548  13.574
88299SOL    HW166794   5.476   0.455  13.559
88299SOL    HW266795   5.545   0.575  13.497
88300SOL     OW66796   3.775  13.789   3.635
88300SOL    HW166797   3.772  13.702   3.594
88300SOL    HW266798   3.693  13.830   3.609
88301SOL     OW66799   7.058   6.231   9.212
88301SOL    HW166800   7.118   6.159   9.196
88301SOL    HW266801   7.097   6.280   9.284
88302SOL     OW66802  14.393   6.667   3.881
88302SOL    HW166803  14.382   6.687   3.789
88302SOL    HW266804  14.340   6.732   3.927
88303SOL     OW66805   6.999   0.506  11.240
88303SOL    HW166806   6.928   0.495  11.176
88303SOL    HW266807   6.978   0.588  11.284
88304SOL     OW66808   5.514   4.011  11.599
88304SOL    HW166809   5.526   4.101  11.569
88304SOL    HW266810   5.564   4.007  11.681
88305SOL     OW66811   4.651   5.137  10.209
88305SOL    HW166812   4.680   5.052  10.244
88305SOL    HW266813   4.575   5.115  10.155
88306SOL     OW66814   4.421   0.755   9.280
88306SOL    HW166815   4.434   0.821   9.211
88306SOL    HW266816   4.359   0.796   9.340
88307SOL     OW66817  13.452   6.748  14.695
88307SOL    HW166818  13.489   6.834  14.675
88307SOL    HW266819  13.458   6.699  14.613
88308SOL     OW66820  11.659  14.151   8.747
88308SOL    HW166821  11.579  14.201   8.732
88308SOL    HW266822  11.667  14.146   8.842
88309SOL     OW66823   1.661   3.386   1.999
88309SOL    HW166824   1.580   3.420   2.037
88309SOL    HW266825   1.702   3.337   2.070
88310SOL     OW66826   8.162   2.017  12.801
88310SOL    HW166827   8.110   1.997  12.879
88310SOL    HW266828   8.116   1.973  12.729
88311SOL     OW66829  12.491   2.402   4.255
88311SOL    HW166830  12.470   2.309   4.249
88311SOL    HW266831  12.406   2.445   4.258
88312SOL     OW66832  11.026   6.444   1.762
88312SOL    HW166833  11.001   6.420   1.673
88312SOL    HW266834  11.121   6.431   1.765
88313SOL     OW66835   5.042  14.205   8.212
88313SOL    HW166836   5.059  14.277   8.272
88313SOL    HW266837   5.125  14.193   8.165
88314SOL     OW66838   6.574   6.543   6.447
88314SOL    HW166839   6.611   6.632   6.448
88314SOL    HW266840   6.585   6.514   6.356
88315SOL     OW66841   0.461   7.097   9.819
88315SOL    HW166842   0.438   7.063   9.733
88315SOL    HW266843   0.535   7.043   9.847
88316SOL     OW66844  14.455   8.548   1.008
88316SOL    HW166845  14.489   8.466   1.043
88316SOL    HW266846  14.404   8.585   1.080
88317SOL     OW66847   0.826   0.109   8.724
88317SOL    HW166848   0.901   0.052   8.706
88317SOL    HW266849   0.860   0.175   8.785
88318SOL     OW66850  10.432   3.469  13.733
88318SOL    HW166851  10.434   3.477  13.828
88318SOL    HW266852  10.433   3.560  13.701
88319SOL     OW66853   1.182   5.652   3.406
88319SOL    HW166854   1.175   5.745   3.428
88319SOL    HW266855   1.112   5.610   3.457
88320SOL     OW66856   3.722   1.905   8.612
88320SOL    HW166857   3.640   1.877   8.569
88320SOL    HW266858   3.693   1.941   8.696
88321SOL     OW66859  12.087   9.849   4.135
88321SOL    HW166860  12.038   9.787   4.080
88321SOL    HW266861  12.073   9.934   4.093
88322SOL     OW66862   9.201   5.630  13.693
88322SOL    HW166863   9.209   5.642  13.599
88322SOL    HW266864   9.264   5.691  13.731
88323SOL     OW66865   8.353   6.383   9.105
88323SOL    HW166866   8.340   6.477   9.115
88323SOL    HW266867   8.268   6.344   9.125
88324SOL     OW66868  11.682   2.462   4.363
88324SOL    HW166869  11.669   2.550   4.400
88324SOL    HW266870  11.766   2.433   4.399
88325SOL     OW66871   9.768   0.741  14.621
88325SOL    HW166872   9.752   0.803  14.549
88325SOL    HW266873   9.790   0.796  14.696
88326SOL     OW66874  12.518   2.170   9.479
88326SOL    HW166875  12.452   2.157   9.546
88326SOL    HW266876  12.600   2.181   9.528
88327SOL     OW66877  10.910   2.309   8.147
88327SOL    HW166878  10.833   2.283   8.097
88327SOL    HW266879  10.943   2.387   8.103
88328SOL     OW66880  13.926   9.117   6.179
88328SOL    HW166881  13.904   9.047   6.117
88328SOL    HW266882  13.994   9.079   6.234
88329SOL     OW66883  13.638  13.598  11.997
88329SOL    HW166884  13.565  13.584  12.058
88329SOL    HW266885  13.660  13.690  12.008
88330SOL     OW66886   0.338  14.629   2.601
88330SOL    HW166887   0.430  14.622   2.575
88330SOL    HW266888   0.289  14.606   2.522
88331SOL     OW66889   7.550   3.783   4.664
88331SOL    HW166890   7.623   3.765   4.723
88331SOL    HW266891   7.472   3.774   4.719
88332SOL     OW66892   1.628  10.766  11.305
88332SOL    HW166893   1.565  10.838  11.307
88332SOL    HW266894   1.596  10.707  11.237
88333SOL     OW66895   5.123   3.211   8.398
88333SOL    HW166896   5.160   3.230   8.485
88333SOL    HW266897   5.060   3.141   8.414
88334SOL     OW66898   9.327   2.994   7.325
88334SOL    HW166899   9.243   3.022   7.361
88334SOL    HW266900   9.386   2.992   7.400
88335SOL     OW66901  12.706   7.178   6.110
88335SOL    HW166902  12.698   7.083   6.110
88335SOL    HW266903  12.628   7.209   6.156
88336SOL     OW66904   7.022   4.118  14.284
88336SOL    HW166905   7.045   4.037  14.328
88336SOL    HW266906   7.028   4.097  14.190
88337SOL     OW66907   2.366   7.676  14.721
88337SOL    HW166908   2.399   7.599  14.767
88337SOL    HW266909   2.276   7.686  14.751
88338SOL     OW66910   2.834   2.482  10.405
88338SOL    HW166911   2.899   2.443  10.346
88338SOL    HW266912   2.803   2.409  10.458
88339SOL     OW66913   5.020   5.889   7.544
88339SOL    HW166914   4.927   5.866   7.542
88339SOL    HW266915   5.030   5.952   7.473
88340SOL     OW66916   4.347   3.402  12.316
88340SOL    HW166917   4.252   3.396  12.303
88340SOL    HW266918   4.382   3.418  12.228
88341SOL     OW66919   5.627   5.859   7.280
88341SOL    HW166920   5.690   5.837   7.211
88341SOL    HW266921   5.659   5.942   7.316
88342SOL     OW66922   8.986   3.522   1.877
88342SOL    HW166923   8.902   3.527   1.831
88342SOL    HW266924   9.019   3.612   1.877
88343SOL     OW66925   8.555  13.219  12.881
88343SOL    HW166926   8.522  13.131  12.864
88343SOL    HW266927   8.488  13.277  12.845
88344SOL     OW66928   8.279   8.393   2.090
88344SOL    HW166929   8.370   8.422   2.084
88344SOL    HW266930   8.234   8.466   2.133
88345SOL     OW66931   5.240   0.543  13.784
88345SOL    HW166932   5.251   0.482  13.857
88345SOL    HW266933   5.269   0.494  13.707
88346SOL     OW66934  14.259   7.139   3.274
88346SOL    HW166935  14.215   7.196   3.211
88346SOL    HW266936  14.188   7.087   3.313
88347SOL     OW66937  13.275   2.963  14.819
88347SOL    HW166938  13.367   2.939  14.811
88347SOL    HW266939  13.270   3.017   0.018
88348SOL     OW66940   1.135   0.201  14.302
88348SOL    HW166941   1.149   0.116  14.343
88348SOL    HW266942   1.062   0.239  14.350
88349SOL     OW66943   9.996   0.494  11.784
88349SOL    HW166944  10.051   0.463  11.856
88349SOL    HW266945  10.053   0.491  11.707
88350SOL     OW66946  10.896  13.736   4.443
88350SOL    HW166947  10.906  13.830   4.429
88350SOL    HW266948  10.828  13.709   4.381
88351SOL     OW66949   6.951   9.435   6.210
88351SOL    HW166950   6.921   9.368   6.149
88351SOL    HW266951   6.917   9.408   6.295
88352SOL     OW66952  11.379   0.057  13.091
88352SOL    HW166953  11.454   0.114  13.108
88352SOL    HW266954  11.385   0.036  12.998
88353SOL     OW66955  13.240   0.910   3.020
88353SOL    HW166956  13.268   0.977   3.083
88353SOL    HW266957  13.210   0.838   3.075
88354SOL     OW66958   9.653  11.084   9.512
88354SOL    HW166959   9.724  11.130   9.558
88354SOL    HW266960   9.698  11.015   9.463
88355SOL     OW66961  12.463   5.076   9.351
88355SOL    HW166962  12.458   5.171   9.348
88355SOL    HW266963  12.552   5.056   9.379
88356SOL     OW66964   4.159   7.700   9.666
88356SOL    HW166965   4.154   7.643   9.743
88356SOL    HW266966   4.224   7.766   9.690
88357SOL     OW66967   5.137   0.196   5.052
88357SOL    HW166968   5.207   0.236   5.102
88357SOL    HW266969   5.138   0.104   5.079
88358SOL     OW66970   9.317  10.461  12.888
88358SOL    HW166971   9.397  10.507  12.862
88358SOL    HW266972   9.312  10.386  12.829
88359SOL     OW66973  13.706   9.012   9.480
88359SOL    HW166974  13.705   8.916   9.480
88359SOL    HW266975  13.790   9.035   9.520
88360SOL     OW66976  11.882   3.137  10.325
88360SOL    HW166977  11.890   3.045  10.299
88360SOL    HW266978  11.967   3.176  10.304
88361SOL     OW66979   5.445   5.299   9.314
88361SOL    HW166980   5.402   5.224   9.273
88361SOL    HW266981   5.384   5.329   9.381
88362SOL     OW66982   0.165   7.602   6.502
88362SOL    HW166983   0.077   7.612   6.538
88362SOL    HW266984   0.187   7.510   6.518
88363SOL     OW66985   6.623  13.622   3.867
88363SOL    HW166986   6.548  13.679   3.856
88363SOL    HW266987   6.694  13.681   3.893
88364SOL     OW66988   2.717   8.828   1.769
88364SOL    HW166989   2.680   8.786   1.691
88364SOL    HW266990   2.809   8.844   1.747
88365SOL     OW66991   1.590  11.442   6.686
88365SOL    HW166992   1.664  11.413   6.739
88365SOL    HW266993   1.533  11.490   6.747
88366SOL     OW66994   1.922   2.231  10.625
88366SOL    HW166995   1.985   2.297  10.597
88366SOL    HW266996   1.954   2.201  10.710
88367SOL     OW66997   7.797   2.189   4.295
88367SOL    HW166998   7.778   2.281   4.309
88367SOL    HW266999   7.874   2.171   4.349
88368SOL     OW67000   5.276   0.239   8.722
88368SOL    HW167001   5.189   0.226   8.684
88368SOL    HW267002   5.333   0.255   8.646
88369SOL     OW67003   3.828   2.979   4.208
88369SOL    HW167004   3.877   2.939   4.136
88369SOL    HW267005   3.760   2.915   4.229
88370SOL     OW67006  13.302  12.065   1.263
88370SOL    HW167007  13.251  11.997   1.219
88370SOL    HW267008  13.240  12.109   1.321
88371SOL     OW67009   7.503   7.075  10.104
88371SOL    HW167010   7.445   7.019  10.156
88371SOL    HW267011   7.590   7.035  10.113
88372SOL     OW67012   2.324   2.758  10.565
88372SOL    HW167013   2.324   2.663  10.576
88372SOL    HW267014   2.397   2.776  10.506
88373SOL     OW67015   4.681   7.627   1.159
88373SOL    HW167016   4.706   7.642   1.068
88373SOL    HW267017   4.588   7.606   1.155
88374SOL     OW67018   0.079   8.043  13.119
88374SOL    HW167019   0.166   8.063  13.084
88374SOL    HW267020   0.021   8.108  13.079
88375SOL     OW67021   6.958   2.716   1.488
88375SOL    HW167022   6.878   2.684   1.528
88375SOL    HW267023   7.023   2.716   1.558
88376SOL     OW67024   2.217  13.157   4.823
88376SOL    HW167025   2.161  13.121   4.755
88376SOL    HW267026   2.230  13.248   4.798
88377SOL     OW67027   5.724  11.683   4.431
88377SOL    HW167028   5.754  11.726   4.511
88377SOL    HW267029   5.648  11.631   4.458
88378SOL     OW67030   7.749  14.596   6.742
88378SOL    HW167031   7.658  14.616   6.764
88378SOL    HW267032   7.800  14.658   6.794
88379SOL     OW67033   9.722   6.642  10.390
88379SOL    HW167034   9.806   6.598  10.376
88379SOL    HW267035   9.727   6.721  10.335
88380SOL     OW67036  11.664   5.857   0.280
88380SOL    HW167037  11.690   5.794   0.213
88380SOL    HW267038  11.608   5.919   0.233
88381SOL     OW67039  10.809   2.399   0.096
88381SOL    HW167040  10.848   2.325   0.049
88381SOL    HW267041  10.851   2.476   0.058
88382SOL     OW67042   8.352   4.581   7.822
88382SOL    HW167043   8.409   4.657   7.809
88382SOL    HW267044   8.407   4.516   7.864
88383SOL     OW67045  14.710   9.679   0.935
88383SOL    HW167046  14.632   9.733   0.947
88383SOL    HW267047  14.705   9.648   0.844
88384SOL     OW67048   9.632  11.072   1.437
88384SOL    HW167049   9.575  11.053   1.511
88384SOL    HW267050   9.586  11.140   1.388
88385SOL     OW67051  13.751   6.844  14.601
88385SOL    HW167052  13.781   6.864  14.690
88385SOL    HW267053  13.734   6.929  14.561
88386SOL     OW67054  11.503   3.577   6.596
88386SOL    HW167055  11.451   3.652   6.624
88386SOL    HW267056  11.591   3.595   6.629
88387SOL     OW67057   1.967   5.826   0.106
88387SOL    HW167058   1.950   5.810   0.013
88387SOL    HW267059   2.055   5.864   0.108
88388SOL     OW67060   2.963  14.505   6.842
88388SOL    HW167061   3.053  14.524   6.816
88388SOL    HW267062   2.955  14.541   6.930
88389SOL     OW67063  14.363   0.862  11.523
88389SOL    HW167064  14.385   0.782  11.570
88389SOL    HW267065  14.345   0.926  11.592
88390SOL     OW67066   0.262  11.519  13.584
88390SOL    HW167067   0.347  11.478  13.564
88390SOL    HW267068   0.208  11.501  13.507
88391SOL     OW67069   1.357  13.230   5.009
88391SOL    HW167070   1.321  13.214   4.922
88391SOL    HW267071   1.281  13.237   5.066
88392SOL     OW67072  10.713  10.116   9.860
88392SOL    HW167073  10.727  10.210   9.849
88392SOL    HW267074  10.701  10.084   9.770
88393SOL     OW67075  12.190  13.803   7.642
88393SOL    HW167076  12.242  13.874   7.604
88393SOL    HW267077  12.253  13.750   7.690
88394SOL     OW67078   7.566   2.823   1.111
88394SOL    HW167079   7.596   2.832   1.202
88394SOL    HW267080   7.645   2.803   1.062
88395SOL     OW67081  12.272   8.249   8.217
88395SOL    HW167082  12.194   8.251   8.272
88395SOL    HW267083  12.249   8.302   8.141
88396SOL     OW67084  11.534   1.357  12.940
88396SOL    HW167085  11.584   1.302  13.001
88396SOL    HW267086  11.458   1.303  12.917
88397SOL     OW67087  12.075   3.335  10.201
88397SOL    HW167088  12.037   3.357  10.287
88397SOL    HW267089  12.097   3.420  10.163
88398SOL     OW67090   3.212  11.625  12.533
88398SOL    HW167091   3.133  11.599  12.581
88398SOL    HW267092   3.282  11.616  12.597
88399SOL     OW67093   8.235  14.209  12.397
88399SOL    HW167094   8.208  14.299  12.414
88399SOL    HW267095   8.317  14.218  12.347
88400SOL     OW67096  10.317   3.892  12.712
88400SOL    HW167097  10.233   3.937  12.723
88400SOL    HW267098  10.293   3.799  12.706
88401SOL     OW67099   0.315   9.271   8.494
88401SOL    HW167100   0.356   9.201   8.545
88401SOL    HW267101   0.336   9.249   8.403
88402SOL     OW67102   2.228  10.117   4.483
88402SOL    HW167103   2.137  10.144   4.486
88402SOL    HW267104   2.252  10.104   4.575
88403SOL     OW67105   1.714   9.738   1.445
88403SOL    HW167106   1.699   9.731   1.350
88403SOL    HW267107   1.710   9.832   1.463
88404SOL     OW67108   3.999   2.610  14.861
88404SOL    HW167109   4.039   2.645  14.782
88404SOL    HW267110   4.061   2.632   0.051
88405SOL     OW67111   7.410  10.485  12.166
88405SOL    HW167112   7.444  10.409  12.214
88405SOL    HW267113   7.396  10.452  12.078
88406SOL     OW67114  14.801   7.692  13.604
88406SOL    HW167115  14.818   7.622  13.667
88406SOL    HW267116  14.877   7.692  13.546
88407SOL     OW67117  10.670   2.341  13.345
88407SOL    HW167118  10.703   2.269  13.291
88407SOL    HW267119  10.576   2.344  13.325
88408SOL     OW67120   8.663  12.126  14.365
88408SOL    HW167121   8.618  12.101  14.285
88408SOL    HW267122   8.610  12.090  14.435
88409SOL     OW67123   4.908   8.862   7.868
88409SOL    HW167124   4.851   8.786   7.866
88409SOL    HW267125   4.880   8.912   7.944
88410SOL     OW67126  11.567   8.204  12.731
88410SOL    HW167127  11.494   8.151  12.699
88410SOL    HW267128  11.611   8.235  12.652
88411SOL     OW67129  11.357   5.141   8.382
88411SOL    HW167130  11.312   5.064   8.347
88411SOL    HW267131  11.297   5.178   8.446
88412SOL     OW67132  12.147   9.914  13.282
88412SOL    HW167133  12.210   9.975  13.244
88412SOL    HW267134  12.066   9.964  13.287
88413SOL     OW67135   0.103   0.593   6.608
88413SOL    HW167136   0.185   0.548   6.629
88413SOL    HW267137   0.082   0.644   6.687
88414SOL     OW67138   8.782   2.113  14.850
88414SOL    HW167139   8.771   2.021  14.828
88414SOL    HW267140   8.873   2.119   0.001
88415SOL     OW67141  10.931  11.286   0.052
88415SOL    HW167142  10.907  11.203   0.011
88415SOL    HW267143  11.020  11.302   0.023
88416SOL     OW67144   7.378   3.465  12.296
88416SOL    HW167145   7.302   3.515  12.327
88416SOL    HW267146   7.416   3.518  12.227
88417SOL     OW67147  11.191  10.836  14.387
88417SOL    HW167148  11.124  10.855  14.321
88417SOL    HW267149  11.187  10.910  14.448
88418SOL     OW67150   0.156   0.932   2.294
88418SOL    HW167151   0.085   0.876   2.322
88418SOL    HW267152   0.235   0.881   2.309
88419SOL     OW67153  12.400   5.450   1.107
88419SOL    HW167154  12.336   5.453   1.179
88419SOL    HW267155  12.352   5.484   1.031
88420SOL     OW67156   9.502   5.691  10.955
88420SOL    HW167157   9.535   5.778  10.978
88420SOL    HW267158   9.437   5.708  10.887
88421SOL     OW67159  14.211   4.257  10.423
88421SOL    HW167160  14.263   4.245  10.344
88421SOL    HW267161  14.275   4.276  10.492
88422SOL     OW67162   7.116  12.292  13.890
88422SOL    HW167163   7.184  12.231  13.915
88422SOL    HW267164   7.162  12.373  13.868
88423SOL     OW67165  12.707  13.747   5.686
88423SOL    HW167166  12.718  13.800   5.607
88423SOL    HW267167  12.782  13.688   5.686
88424SOL     OW67168   0.671  11.639   5.262
88424SOL    HW167169   0.710  11.551   5.262
88424SOL    HW267170   0.599  11.634   5.325
88425SOL     OW67171  14.065  13.589   0.851
88425SOL    HW167172  14.094  13.499   0.835
88425SOL    HW267173  14.146  13.638   0.864
88426SOL     OW67174   2.481   3.426   0.940
88426SOL    HW167175   2.577   3.426   0.944
88426SOL    HW267176   2.457   3.518   0.929
88427SOL     OW67177   6.869   7.492   0.226
88427SOL    HW167178   6.832   7.404   0.221
88427SOL    HW267179   6.957   7.483   0.190
88428SOL     OW67180   3.857  12.637  11.544
88428SOL    HW167181   3.920  12.698  11.505
88428SOL    HW267182   3.900  12.551  11.537
88429SOL     OW67183   6.045   3.923   7.786
88429SOL    HW167184   6.042   3.865   7.711
88429SOL    HW267185   5.954   3.937   7.811
88430SOL     OW67186   5.853  12.298  14.264
88430SOL    HW167187   5.815  12.264  14.183
88430SOL    HW267188   5.778  12.312  14.322
88431SOL     OW67189  10.889   7.571   1.786
88431SOL    HW167190  10.964   7.631   1.788
88431SOL    HW267191  10.888   7.538   1.696
88432SOL     OW67192   1.201   8.564  12.711
88432SOL    HW167193   1.131   8.500  12.722
88432SOL    HW267194   1.277   8.511  12.685
88433SOL     OW67195  14.405   7.826   5.364
88433SOL    HW167196  14.488   7.874   5.362
88433SOL    HW267197  14.339   7.893   5.382
88434SOL     OW67198   8.462   1.237  12.635
88434SOL    HW167199   8.409   1.187  12.697
88434SOL    HW267200   8.456   1.187  12.553
88435SOL     OW67201  12.218   5.578   2.768
88435SOL    HW167202  12.124   5.589   2.779
88435SOL    HW267203  12.240   5.503   2.824
88436SOL     OW67204   3.219   3.609   4.025
88436SOL    HW167205   3.266   3.579   3.947
88436SOL    HW267206   3.171   3.531   4.055
88437SOL     OW67207   4.465   1.332  13.757
88437SOL    HW167208   4.504   1.380  13.830
88437SOL    HW267209   4.472   1.392  13.682
88438SOL     OW67210   4.087   7.218   4.738
88438SOL    HW167211   4.142   7.160   4.792
88438SOL    HW267212   4.002   7.173   4.734
88439SOL     OW67213   7.293   5.931   1.197
88439SOL    HW167214   7.268   5.839   1.190
88439SOL    HW267215   7.252   5.974   1.122
88440SOL     OW67216   3.517   6.984  13.367
88440SOL    HW167217   3.546   7.066  13.327
88440SOL    HW267218   3.491   6.929  13.294
88441SOL     OW67219   1.256   0.110   1.674
88441SOL    HW167220   1.184   0.105   1.610
88441SOL    HW267221   1.214   0.137   1.755
88442SOL     OW67222   0.891  11.087  12.039
88442SOL    HW167223   0.797  11.072  12.029
88442SOL    HW267224   0.930  11.046  11.962
88443SOL     OW67225   7.971  10.046   6.641
88443SOL    HW167226   8.063  10.020   6.639
88443SOL    HW267227   7.961  10.093   6.723
88444SOL     OW67228   9.870  10.452   0.841
88444SOL    HW167229   9.884  10.546   0.832
88444SOL    HW267230   9.830  10.425   0.759
88445SOL     OW67231  10.253   6.382   7.395
88445SOL    HW167232  10.280   6.299   7.435
88445SOL    HW267233  10.321   6.444   7.420
88446SOL     OW67234   1.324   1.874  10.653
88446SOL    HW167235   1.367   1.813  10.712
88446SOL    HW267236   1.231   1.857  10.663
88447SOL     OW67237   1.860   3.433  10.095
88447SOL    HW167238   1.778   3.437  10.047
88447SOL    HW267239   1.841   3.474  10.179
88448SOL     OW67240  12.514  12.977   5.599
88448SOL    HW167241  12.580  13.019   5.544
88448SOL    HW267242  12.480  12.906   5.546
88449SOL     OW67243   4.478   6.916   6.796
88449SOL    HW167244   4.448   6.922   6.706
88449SOL    HW267245   4.417   6.971   6.846
88450SOL     OW67246  13.304   8.545   0.623
88450SOL    HW167247  13.370   8.511   0.563
88450SOL    HW267248  13.226   8.558   0.570
88451SOL     OW67249  13.732  10.734   4.771
88451SOL    HW167250  13.801  10.668   4.781
88451SOL    HW267251  13.744  10.791   4.847
88452SOL     OW67252   7.743  14.860   3.219
88452SOL    HW167253   7.660  14.850   3.265
88452SOL    HW267254   7.719   0.016   3.133
88453SOL     OW67255  12.630  14.075   2.939
88453SOL    HW167256  12.597  14.132   2.869
88453SOL    HW267257  12.725  14.089   2.939
88454SOL     OW67258   3.077  13.410  11.939
88454SOL    HW167259   3.059  13.480  12.002
88454SOL    HW267260   3.011  13.422  11.871
88455SOL     OW67261  11.177   0.354  13.142
88455SOL    HW167262  11.257   0.341  13.193
88455SOL    HW267263  11.135   0.430  13.182
88456SOL     OW67264  14.164   5.049  13.787
88456SOL    HW167265  14.195   4.958  13.793
88456SOL    HW267266  14.145   5.074  13.877
88457SOL     OW67267  10.284  13.993  11.338
88457SOL    HW167268  10.193  14.000  11.308
88457SOL    HW267269  10.277  13.989  11.433
88458SOL     OW67270  14.812   0.713   0.269
88458SOL    HW167271   0.027   0.706   0.280
88458SOL    HW267272  14.779   0.737   0.356
88459SOL     OW67273   5.668   2.899   4.844
88459SOL    HW167274   5.750   2.946   4.863
88459SOL    HW267275   5.628   2.886   4.930
88460SOL     OW67276  12.847   6.460   8.379
88460SOL    HW167277  12.792   6.487   8.306
88460SOL    HW267278  12.928   6.430   8.339
88461SOL     OW67279   7.958  14.290  11.453
88461SOL    HW167280   8.029  14.329  11.504
88461SOL    HW267281   7.897  14.361  11.437
88462SOL     OW67282   7.729   9.298  10.096
88462SOL    HW167283   7.636   9.283  10.112
88462SOL    HW267284   7.766   9.210  10.084
88463SOL     OW67285  12.923   7.963  13.549
88463SOL    HW167286  12.908   8.047  13.506
88463SOL    HW267287  12.980   7.984  13.623
88464SOL     OW67288   0.840   3.053  11.332
88464SOL    HW167289   0.754   3.067  11.372
88464SOL    HW267290   0.899   3.110  11.382
88465SOL     OW67291   5.199  11.501  10.578
88465SOL    HW167292   5.269  11.500  10.513
88465SOL    HW267293   5.178  11.409  10.593
88466SOL     OW67294  14.841   6.831  12.467
88466SOL    HW167295  14.787   6.905  12.498
88466SOL    HW267296  14.787   6.791  12.399
88467SOL     OW67297  11.079   2.859  14.138
88467SOL    HW167298  11.099   2.903  14.055
88467SOL    HW267299  11.134   2.781  14.139
88468SOL     OW67300   9.834  10.236   4.670
88468SOL    HW167301   9.798  10.250   4.757
88468SOL    HW267302   9.801  10.309   4.618
88469SOL     OW67303   8.961   3.954   0.073
88469SOL    HW167304   8.871   3.967   0.044
88469SOL    HW267305   8.954   3.895   0.148
88470SOL     OW67306   0.244   6.432  13.761
88470SOL    HW167307   0.198   6.514  13.742
88470SOL    HW267308   0.299   6.452  13.836
88471SOL     OW67309   0.314   8.920   0.777
88471SOL    HW167310   0.273   8.839   0.809
88471SOL    HW267311   0.407   8.908   0.795
88472SOL     OW67312  11.329   6.191   4.183
88472SOL    HW167313  11.250   6.231   4.146
88472SOL    HW267314  11.366   6.140   4.110
88473SOL     OW67315   6.083   3.350  11.084
88473SOL    HW167316   6.160   3.343  11.141
88473SOL    HW267317   6.118   3.357  10.996
88474SOL     OW67318   1.978   7.398   6.585
88474SOL    HW167319   1.887   7.427   6.580
88474SOL    HW267320   2.019   7.459   6.647
88475SOL     OW67321   4.893  13.381  13.909
88475SOL    HW167322   4.890  13.313  13.976
88475SOL    HW267323   4.802  13.412  13.903
88476SOL     OW67324   2.047   0.275   2.641
88476SOL    HW167325   2.128   0.281   2.590
88476SOL    HW267326   1.981   0.248   2.577
88477SOL     OW67327   8.925   0.824   9.815
88477SOL    HW167328   8.854   0.791   9.870
88477SOL    HW267329   8.883   0.889   9.758
88478SOL     OW67330   9.286   8.722  13.701
88478SOL    HW167331   9.303   8.717  13.607
88478SOL    HW267332   9.198   8.758  13.708
88479SOL     OW67333   3.648  10.198  11.079
88479SOL    HW167334   3.734  10.163  11.103
88479SOL    HW267335   3.666  10.262  11.010
88480SOL     OW67336  11.325   3.775  11.643
88480SOL    HW167337  11.359   3.751  11.557
88480SOL    HW267338  11.377   3.724  11.705
88481SOL     OW67339   1.977  11.431   3.474
88481SOL    HW167340   1.972  11.512   3.524
88481SOL    HW267341   1.891  11.424   3.431
88482SOL     OW67342   8.628   7.557  11.854
88482SOL    HW167343   8.540   7.595  11.861
88482SOL    HW267344   8.621   7.473  11.898
88483SOL     OW67345   1.071  13.559   6.001
88483SOL    HW167346   1.078  13.596   5.913
88483SOL    HW267347   1.150  13.590   6.046
88484SOL     OW67348   1.356   5.577   6.762
88484SOL    HW167349   1.396   5.491   6.753
88484SOL    HW267350   1.394   5.630   6.691
88485SOL     OW67351  13.420  13.514   4.203
88485SOL    HW167352  13.471  13.521   4.122
88485SOL    HW267353  13.409  13.604   4.233
88486SOL     OW67354  12.993   0.142  11.730
88486SOL    HW167355  13.083   0.112  11.738
88486SOL    HW267356  12.949   0.108  11.808
88487SOL     OW67357  13.747  14.733   1.259
88487SOL    HW167358  13.747  14.797   1.330
88487SOL    HW267359  13.680  14.766   1.198
88488SOL     OW67360  10.613   2.237  11.157
88488SOL    HW167361  10.574   2.305  11.103
88488SOL    HW267362  10.555   2.161  11.147
88489SOL     OW67363   1.037   7.624   7.796
88489SOL    HW167364   1.016   7.698   7.740
88489SOL    HW267365   0.956   7.572   7.797
88490SOL     OW67366  10.268  11.977   5.712
88490SOL    HW167367  10.281  11.917   5.786
88490SOL    HW267368  10.175  11.966   5.690
88491SOL     OW67369  11.605   6.287  11.879
88491SOL    HW167370  11.634   6.324  11.963
88491SOL    HW267371  11.514   6.261  11.894
88492SOL     OW67372  14.167   2.398   7.852
88492SOL    HW167373  14.107   2.404   7.926
88492SOL    HW267374  14.242   2.348   7.886
88493SOL     OW67375   6.859  10.474  14.332
88493SOL    HW167376   6.887  10.384  14.349
88493SOL    HW267377   6.900  10.496  14.248
88494SOL     OW67378   0.548   1.403   3.527
88494SOL    HW167379   0.483   1.333   3.514
88494SOL    HW267380   0.501   1.483   3.505
88495SOL     OW67381  12.886   9.557   1.109
88495SOL    HW167382  12.921   9.617   1.176
88495SOL    HW267383  12.868   9.476   1.157
88496SOL     OW67384  10.225   1.149   8.999
88496SOL    HW167385  10.210   1.065   9.042
88496SOL    HW267386  10.230   1.127   8.906
88497SOL     OW67387   9.037   0.186  12.234
88497SOL    HW167388   9.114   0.147  12.192
88497SOL    HW267389   9.074   0.240  12.305
88498SOL     OW67390   7.691   7.818  10.920
88498SOL    HW167391   7.677   7.816  11.015
88498SOL    HW267392   7.723   7.907  10.903
88499SOL     OW67393   9.263   8.189   8.385
88499SOL    HW167394   9.214   8.153   8.311
88499SOL    HW267395   9.240   8.282   8.386
88500SOL     OW67396  12.938   8.547  14.468
88500SOL    HW167397  12.961   8.455  14.482
88500SOL    HW267398  12.893   8.547  14.384
88501SOL     OW67399  12.521  13.916   5.411
88501SOL    HW167400  12.458  13.844   5.403
88501SOL    HW267401  12.601  13.883   5.370
88502SOL     OW67402   4.241   7.591  13.743
88502SOL    HW167403   4.162   7.627  13.783
88502SOL    HW267404   4.306   7.591  13.813
88503SOL     OW67405  12.905   3.655  13.833
88503SOL    HW167406  12.813   3.665  13.857
88503SOL    HW267407  12.903   3.625  13.742
88504SOL     OW67408   2.753   9.139   9.894
88504SOL    HW167409   2.736   9.045   9.893
88504SOL    HW267410   2.811   9.152   9.969
88505SOL     OW67411  12.140   7.610  11.608
88505SOL    HW167412  12.129   7.705  11.618
88505SOL    HW267413  12.118   7.592  11.517
88506SOL     OW67414  13.811   8.165   5.996
88506SOL    HW167415  13.806   8.163   5.901
88506SOL    HW267416  13.719   8.168   6.024
88507SOL     OW67417  12.481   7.513   1.375
88507SOL    HW167418  12.513   7.493   1.287
88507SOL    HW267419  12.386   7.511   1.367
88508SOL     OW67420   2.753   9.651   6.712
88508SOL    HW167421   2.688   9.597   6.665
88508SOL    HW267422   2.758   9.732   6.661
88509SOL     OW67423  13.577   1.629  14.114
88509SOL    HW167424  13.589   1.534  14.110
88509SOL    HW267425  13.484   1.643  14.100
88510SOL     OW67426   4.080  11.566  14.317
88510SOL    HW167427   4.019  11.518  14.373
88510SOL    HW267428   4.104  11.503  14.249
88511SOL     OW67429   3.852   7.903   7.512
88511SOL    HW167430   3.868   7.809   7.509
88511SOL    HW267431   3.771   7.915   7.462
88512SOL     OW67432  11.256  11.285   9.234
88512SOL    HW167433  11.240  11.340   9.157
88512SOL    HW267434  11.251  11.346   9.308
88513SOL     OW67435  11.401  10.134   7.973
88513SOL    HW167436  11.487  10.137   7.932
88513SOL    HW267437  11.375  10.226   7.981
88514SOL     OW67438   0.925  14.221   3.784
88514SOL    HW167439   1.016  14.215   3.752
88514SOL    HW267440   0.881  14.275   3.719
88515SOL     OW67441   0.600   8.639  13.367
88515SOL    HW167442   0.601   8.668  13.276
88515SOL    HW267443   0.511   8.605  13.381
88516SOL     OW67444   6.835  14.443  10.238
88516SOL    HW167445   6.860  14.465  10.328
88516SOL    HW267446   6.868  14.516  10.186
88517SOL     OW67447  14.205   8.986  10.269
88517SOL    HW167448  14.290   8.964  10.306
88517SOL    HW267449  14.199   9.081  10.278
88518SOL     OW67450   4.814   8.179  11.523
88518SOL    HW167451   4.906   8.154  11.528
88518SOL    HW267452   4.811   8.268  11.557
88519SOL     OW67453   9.141   5.540   7.491
88519SOL    HW167454   9.173   5.562   7.578
88519SOL    HW267455   9.173   5.611   7.435
88520SOL     OW67456   6.770  13.307   4.933
88520SOL    HW167457   6.743  13.399   4.945
88520SOL    HW267458   6.810  13.305   4.846
88521SOL     OW67459  10.575  11.512  10.512
88521SOL    HW167460  10.534  11.504  10.598
88521SOL    HW267461  10.503  11.533  10.453
88522SOL     OW67462  11.546   5.151   5.614
88522SOL    HW167463  11.573   5.067   5.652
88522SOL    HW267464  11.479   5.129   5.550
88523SOL     OW67465   9.895   2.182   2.017
88523SOL    HW167466   9.983   2.159   1.986
88523SOL    HW267467   9.906   2.198   2.111
88524SOL     OW67468  11.216   2.225   8.220
88524SOL    HW167469  11.130   2.266   8.203
88524SOL    HW267470  11.247   2.269   8.299
88525SOL     OW67471  14.493   4.284   7.068
88525SOL    HW167472  14.517   4.316   6.981
88525SOL    HW267473  14.409   4.240   7.055
88526SOL     OW67474   8.072   9.524   7.187
88526SOL    HW167475   8.038   9.496   7.102
88526SOL    HW267476   7.995   9.554   7.236
88527SOL     OW67477   7.187   7.221  11.375
88527SOL    HW167478   7.274   7.221  11.414
88527SOL    HW267479   7.184   7.300  11.321
88528SOL     OW67480   0.546  13.367   8.456
88528SOL    HW167481   0.548  13.462   8.443
88528SOL    HW267482   0.472  13.353   8.515
88529SOL     OW67483   1.938   1.556   1.062
88529SOL    HW167484   1.871   1.589   1.002
88529SOL    HW267485   2.017   1.548   1.008
88530SOL     OW67486   1.129   1.473   4.404
88530SOL    HW167487   1.074   1.527   4.461
88530SOL    HW267488   1.162   1.404   4.462
88531SOL     OW67489   4.451  11.436   4.069
88531SOL    HW167490   4.395  11.512   4.085
88531SOL    HW267491   4.518  11.468   4.008
88532SOL     OW67492   6.354   0.193   8.842
88532SOL    HW167493   6.337   0.243   8.922
88532SOL    HW267494   6.314   0.107   8.858
88533SOL     OW67495   2.129   7.544  14.822
88533SOL    HW167496   2.046   7.591  14.830
88533SOL    HW267497   2.106   7.452  14.830
88534SOL     OW67498   2.313   6.966   1.071
88534SOL    HW167499   2.344   6.921   1.150
88534SOL    HW267500   2.290   7.054   1.101
88535SOL     OW67501   9.574   0.832   4.805
88535SOL    HW167502   9.612   0.919   4.803
88535SOL    HW267503   9.598   0.793   4.720
88536SOL     OW67504   1.155   1.151  14.566
88536SOL    HW167505   1.081   1.204  14.597
88536SOL    HW267506   1.116   1.086  14.508
88537SOL     OW67507  14.386   5.305   7.210
88537SOL    HW167508  14.388   5.308   7.114
88537SOL    HW267509  14.334   5.227   7.230
88538SOL     OW67510  13.135  11.397   1.532
88538SOL    HW167511  13.093  11.365   1.452
88538SOL    HW267512  13.082  11.472   1.559
88539SOL     OW67513   1.608  10.785  10.187
88539SOL    HW167514   1.586  10.860  10.242
88539SOL    HW267515   1.674  10.737  10.237
88540SOL     OW67516   6.417   8.477   9.635
88540SOL    HW167517   6.510   8.454   9.629
88540SOL    HW267518   6.397   8.471   9.729
88541SOL     OW67519   2.561   9.140   2.488
88541SOL    HW167520   2.597   9.095   2.565
88541SOL    HW267521   2.505   9.208   2.525
88542SOL     OW67522  13.322  13.948  12.176
88542SOL    HW167523  13.361  13.940  12.263
88542SOL    HW267524  13.386  13.908  12.117
88543SOL     OW67525   9.872   6.967   7.156
88543SOL    HW167526   9.841   6.968   7.066
88543SOL    HW267527   9.798   6.999   7.208
88544SOL     OW67528   4.338   2.240   2.925
88544SOL    HW167529   4.360   2.334   2.925
88544SOL    HW267530   4.244   2.238   2.906
88545SOL     OW67531  11.389   1.105   8.476
88545SOL    HW167532  11.471   1.149   8.499
88545SOL    HW267533  11.403   1.074   8.387
88546SOL     OW67534   3.459   1.409   7.187
88546SOL    HW167535   3.421   1.423   7.100
88546SOL    HW267536   3.550   1.436   7.177
88547SOL     OW67537   0.877   8.594   0.379
88547SOL    HW167538   0.792   8.589   0.337
88547SOL    HW267539   0.858   8.592   0.473
88548SOL     OW67540   3.209  10.292   7.861
88548SOL    HW167541   3.181  10.279   7.771
88548SOL    HW267542   3.153  10.363   7.893
88549SOL     OW67543   5.174  12.127  14.681
88549SOL    HW167544   5.151  12.081  14.761
88549SOL    HW267545   5.219  12.062  14.627
88550SOL     OW67546   6.427   0.420  12.051
88550SOL    HW167547   6.510   0.375  12.069
88550SOL    HW267548   6.370   0.396  12.124
88551SOL     OW67549   2.590   3.847   8.354
88551SOL    HW167550   2.598   3.855   8.449
88551SOL    HW267551   2.662   3.901   8.319
88552SOL     OW67552  11.721  13.560  12.364
88552SOL    HW167553  11.642  13.512  12.391
88552SOL    HW267554  11.774  13.495  12.319
88553SOL     OW67555  11.000   0.869   2.388
88553SOL    HW167556  10.906   0.855   2.400
88553SOL    HW267557  11.016   0.848   2.296
88554SOL     OW67558   6.701   8.926  13.206
88554SOL    HW167559   6.705   8.872  13.127
88554SOL    HW267560   6.762   8.998  13.190
88555SOL     OW67561  13.104  14.536   2.043
88555SOL    HW167562  13.156  14.561   1.966
88555SOL    HW267563  13.165  14.544   2.116
88556SOL     OW67564   7.677   4.101   5.996
88556SOL    HW167565   7.754   4.153   6.016
88556SOL    HW267566   7.606   4.165   5.991
88557SOL     OW67567  12.490   7.668   8.683
88557SOL    HW167568  12.544   7.590   8.696
88557SOL    HW267569  12.437   7.674   8.762
88558SOL     OW67570  10.201   5.356  11.837
88558SOL    HW167571  10.210   5.410  11.758
88558SOL    HW267572  10.196   5.419  11.909
88559SOL     OW67573   8.259  11.950  14.237
88559SOL    HW167574   8.219  11.977  14.319
88559SOL    HW267575   8.338  11.902  14.263
88560SOL     OW67576   9.131   0.963   0.580
88560SOL    HW167577   9.086   0.994   0.502
88560SOL    HW267578   9.140   1.041   0.635
88561SOL     OW67579   2.734  13.067   7.490
88561SOL    HW167580   2.681  13.126   7.545
88561SOL    HW267581   2.675  13.041   7.419
88562SOL     OW67582  14.309  10.635  12.757
88562SOL    HW167583  14.403  10.648  12.774
88562SOL    HW267584  14.266  10.667  12.836
88563SOL     OW67585   5.064   6.292  10.767
88563SOL    HW167586   5.031   6.208  10.734
88563SOL    HW267587   5.159   6.286  10.755
88564SOL     OW67588   9.814   8.894   9.796
88564SOL    HW167589   9.891   8.876   9.849
88564SOL    HW267590   9.824   8.838   9.719
88565SOL     OW67591   9.847   9.503   4.706
88565SOL    HW167592   9.930   9.529   4.666
88565SOL    HW267593   9.854   9.535   4.797
88566SOL     OW67594   7.365  13.952   3.776
88566SOL    HW167595   7.286  14.001   3.802
88566SOL    HW267596   7.427  14.020   3.749
88567SOL     OW67597   7.957  12.092  11.315
88567SOL    HW167598   7.906  12.151  11.259
88567SOL    HW267599   7.944  12.125  11.404
88568SOL     OW67600  13.911  13.633   4.582
88568SOL    HW167601  13.957  13.573   4.524
88568SOL    HW267602  13.875  13.700   4.524
88569SOL     OW67603   0.229   1.691  11.730
88569SOL    HW167604   0.309   1.666  11.683
88569SOL    HW267605   0.260   1.739  11.807
88570SOL     OW67606   7.675   3.256  14.778
88570SOL    HW167607   7.633   3.312  14.843
88570SOL    HW267608   7.643   3.168  14.797
88571SOL     OW67609   6.340   3.162   4.646
88571SOL    HW167610   6.341   3.078   4.691
88571SOL    HW267611   6.296   3.144   4.562
88572SOL     OW67612   3.203   1.991   0.161
88572SOL    HW167613   3.188   1.977   0.255
88572SOL    HW267614   3.291   1.957   0.145
88573SOL     OW67615   2.389  14.564  12.217
88573SOL    HW167616   2.433  14.511  12.284
88573SOL    HW267617   2.392  14.653  12.252
88574SOL     OW67618   4.205  10.082   4.735
88574SOL    HW167619   4.299  10.066   4.730
88574SOL    HW267620   4.166   9.995   4.744
88575SOL     OW67621   4.099   0.787   9.023
88575SOL    HW167622   4.088   0.787   8.928
88575SOL    HW267623   4.011   0.794   9.058
88576SOL     OW67624   4.984   7.846   3.738
88576SOL    HW167625   4.939   7.889   3.811
88576SOL    HW267626   5.074   7.837   3.768
88577SOL     OW67627  12.821  12.176   1.363
88577SOL    HW167628  12.772  12.108   1.317
88577SOL    HW267629  12.852  12.234   1.293
88578SOL     OW67630   2.133   3.012   5.975
88578SOL    HW167631   2.204   3.076   5.969
88578SOL    HW267632   2.177   2.930   5.994
88579SOL     OW67633   9.628  14.788  14.647
88579SOL    HW167634   9.713  14.753  14.676
88579SOL    HW267635   9.591  14.719  14.592
88580SOL     OW67636  11.593  10.616   3.741
88580SOL    HW167637  11.537  10.544   3.711
88580SOL    HW267638  11.533  10.689   3.754
88581SOL     OW67639  12.413   2.584   0.110
88581SOL    HW167640  12.352   2.657   0.096
88581SOL    HW267641  12.486   2.602   0.051
88582SOL     OW67642   9.017  13.311  11.945
88582SOL    HW167643   8.997  13.308  12.038
88582SOL    HW267644   9.096  13.257  11.935
88583SOL     OW67645   2.991  10.645   0.508
88583SOL    HW167646   3.036  10.582   0.452
88583SOL    HW267647   3.060  10.676   0.568
88584SOL     OW67648  11.500   3.969   1.344
88584SOL    HW167649  11.482   3.948   1.435
88584SOL    HW267650  11.590   3.939   1.330
88585SOL     OW67651   8.950   8.401   1.836
88585SOL    HW167652   8.951   8.383   1.742
88585SOL    HW267653   8.896   8.332   1.874
88586SOL     OW67654   5.306   2.621   4.298
88586SOL    HW167655   5.308   2.550   4.235
88586SOL    HW267656   5.221   2.662   4.286
88587SOL     OW67657   4.724   5.836   1.248
88587SOL    HW167658   4.810   5.841   1.207
88587SOL    HW267659   4.676   5.772   1.196
88588SOL     OW67660   4.049  12.131   3.478
88588SOL    HW167661   4.134  12.112   3.518
88588SOL    HW267662   4.070  12.154   3.388
88589SOL     OW67663  11.547   0.397   5.461
88589SOL    HW167664  11.624   0.340   5.454
88589SOL    HW267665  11.583   0.485   5.475
88590SOL     OW67666   4.399   7.212   0.283
88590SOL    HW167667   4.304   7.213   0.292
88590SOL    HW267668   4.422   7.120   0.283
88591SOL     OW67669   7.248  12.943  13.101
88591SOL    HW167670   7.154  12.928  13.095
88591SOL    HW267671   7.263  13.021  13.047
88592SOL     OW67672   0.955   8.754   1.616
88592SOL    HW167673   0.952   8.847   1.637
88592SOL    HW267674   0.881   8.716   1.663
88593SOL     OW67675  10.762  10.677   5.138
88593SOL    HW167676  10.673  10.658   5.108
88593SOL    HW267677  10.785  10.758   5.092
88594SOL     OW67678  11.656  13.911   5.090
88594SOL    HW167679  11.631  13.948   5.005
88594SOL    HW267680  11.639  13.817   5.082
88595SOL     OW67681  10.875  11.538   4.210
88595SOL    HW167682  10.886  11.633   4.210
88595SOL    HW267683  10.963  11.503   4.201
88596SOL     OW67684   8.829   1.422   5.493
88596SOL    HW167685   8.775   1.390   5.421
88596SOL    HW267686   8.904   1.464   5.450
88597SOL     OW67687   0.422   8.216  11.437
88597SOL    HW167688   0.508   8.254  11.456
88597SOL    HW267689   0.439   8.151  11.369
88598SOL     OW67690   1.159   2.641   9.232
88598SOL    HW167691   1.166   2.703   9.159
88598SOL    HW267692   1.210   2.565   9.205
88599SOL     OW67693  13.583  11.760   0.629
88599SOL    HW167694  13.510  11.803   0.673
88599SOL    HW267695  13.631  11.831   0.587
88600SOL     OW67696   6.084   3.706   8.433
88600SOL    HW167697   6.170   3.747   8.425
88600SOL    HW267698   6.077   3.652   8.354
88601SOL     OW67699   0.974   8.697   9.613
88601SOL    HW167700   0.928   8.711   9.696
88601SOL    HW267701   0.996   8.786   9.583
88602SOL     OW67702  12.584  10.366   8.512
88602SOL    HW167703  12.570  10.382   8.606
88602SOL    HW267704  12.624  10.279   8.509
88603SOL     OW67705  13.747  13.693   0.510
88603SOL    HW167706  13.691  13.689   0.587
88603SOL    HW267707  13.702  13.752   0.449
88604SOL     OW67708   1.520   9.316   1.906
88604SOL    HW167709   1.544   9.236   1.952
88604SOL    HW267710   1.538   9.297   1.814
88605SOL     OW67711   7.074   4.167   1.172
88605SOL    HW167712   7.169   4.161   1.166
88605SOL    HW267713   7.049   4.094   1.229
88606SOL     OW67714   7.280  10.019  12.629
88606SOL    HW167715   7.346   9.964  12.587
88606SOL    HW267716   7.208  10.021  12.567
88607SOL     OW67717  14.864   1.621   4.725
88607SOL    HW167718   0.023   1.644   4.810
88607SOL    HW267719  14.864   1.703   4.676
88608SOL     OW67720   5.963   3.590   5.826
88608SOL    HW167721   5.998   3.633   5.904
88608SOL    HW267722   5.933   3.504   5.858
88609SOL     OW67723   8.256   8.314  13.050
88609SOL    HW167724   8.330   8.327  12.992
88609SOL    HW267725   8.288   8.252  13.116
88610SOL     OW67726   9.277   8.444   0.078
88610SOL    HW167727   9.242   8.518   0.127
88610SOL    HW267728   9.269   8.471  14.866
88611SOL     OW67729   0.758   7.185  10.329
88611SOL    HW167730   0.798   7.267  10.358
88611SOL    HW267731   0.819   7.151  10.263
88612SOL     OW67732  14.634   8.825  11.859
88612SOL    HW167733  14.696   8.872  11.915
88612SOL    HW267734  14.686   8.754  11.822
88613SOL     OW67735  10.324   6.255   0.821
88613SOL    HW167736  10.376   6.324   0.862
88613SOL    HW267737  10.368   6.174   0.845
88614SOL     OW67738   4.919   9.960  12.832
88614SOL    HW167739   4.927   9.926  12.743
88614SOL    HW267740   5.001   9.935  12.874
88615SOL     OW67741  10.681  10.763   2.963
88615SOL    HW167742  10.667  10.851   2.997
88615SOL    HW267743  10.596  10.738   2.926
88616SOL     OW67744   1.513   5.481  14.338
88616SOL    HW167745   1.492   5.574  14.330
88616SOL    HW267746   1.580   5.465  14.272
88617SOL     OW67747   2.961   5.150   1.772
88617SOL    HW167748   2.889   5.092   1.749
88617SOL    HW267749   2.963   5.214   1.700
88618SOL     OW67750   0.591  11.454  12.849
88618SOL    HW167751   0.637  11.517  12.904
88618SOL    HW267752   0.654  11.382  12.837
88619SOL     OW67753   5.797   3.792  13.877
88619SOL    HW167754   5.822   3.784  13.969
88619SOL    HW267755   5.879   3.783  13.828
88620SOL     OW67756   6.251   7.864  12.565
88620SOL    HW167757   6.164   7.903  12.554
88620SOL    HW267758   6.273   7.879  12.657
88621SOL     OW67759  12.000  11.920  13.967
88621SOL    HW167760  12.025  11.998  13.917
88621SOL    HW267761  12.036  11.935  14.055
88622SOL     OW67762  14.576   5.789   1.560
88622SOL    HW167763  14.570   5.849   1.485
88622SOL    HW267764  14.501   5.730   1.549
88623SOL     OW67765   8.096   9.877  12.153
88623SOL    HW167766   8.151   9.818  12.102
88623SOL    HW267767   8.154   9.913  12.220
88624SOL     OW67768  13.400  13.136   3.854
88624SOL    HW167769  13.376  13.076   3.783
88624SOL    HW267770  13.359  13.098   3.932
88625SOL     OW67771   2.645   0.294   0.685
88625SOL    HW167772   2.632   0.387   0.667
88625SOL    HW267773   2.568   0.251   0.649
88626SOL     OW67774   1.966   3.943   9.417
88626SOL    HW167775   1.947   3.850   9.403
88626SOL    HW267776   1.912   3.989   9.352
88627SOL     OW67777  10.876  13.403   7.500
88627SOL    HW167778  10.970  13.393   7.485
88627SOL    HW267779  10.835  13.370   7.420
88628SOL     OW67780   3.353   0.440  12.067
88628SOL    HW167781   3.448   0.443  12.076
88628SOL    HW267782   3.339   0.415  11.975
88629SOL     OW67783  13.894   8.596   0.219
88629SOL    HW167784  13.916   8.661   0.285
88629SOL    HW267785  13.971   8.593   0.162
88630SOL     OW67786  10.807  11.056  13.499
88630SOL    HW167787  10.767  11.008  13.571
88630SOL    HW267788  10.798  10.999  13.423
88631SOL     OW67789  10.569   0.369   7.098
88631SOL    HW167790  10.523   0.441   7.056
88631SOL    HW267791  10.639   0.412   7.148
88632SOL     OW67792   1.231   3.289   7.719
88632SOL    HW167793   1.180   3.208   7.715
88632SOL    HW267794   1.233   3.313   7.811
88633SOL     OW67795   9.281   8.191   8.053
88633SOL    HW167796   9.339   8.120   8.079
88633SOL    HW267797   9.232   8.155   7.979
88634SOL     OW67798  12.480  13.423  14.010
88634SOL    HW167799  12.437  13.453  13.930
88634SOL    HW267800  12.431  13.345  14.036
88635SOL     OW67801   3.983   2.562   5.226
88635SOL    HW167802   4.077   2.545   5.222
88635SOL    HW267803   3.972   2.649   5.187
88636SOL     OW67804  10.118   2.135   3.566
88636SOL    HW167805  10.163   2.077   3.626
88636SOL    HW267806  10.180   2.206   3.549
88637SOL     OW67807   4.787   0.902   5.163
88637SOL    HW167808   4.807   0.948   5.245
88637SOL    HW267809   4.773   0.972   5.100
88638SOL     OW67810   0.142   5.260   4.087
88638SOL    HW167811   0.231   5.231   4.106
88638SOL    HW267812   0.149   5.354   4.074
88639SOL     OW67813  13.675   2.236   3.038
88639SOL    HW167814  13.709   2.325   3.033
88639SOL    HW267815  13.580   2.246   3.031
88640SOL     OW67816   7.784   8.895   5.980
88640SOL    HW167817   7.830   8.822   5.938
88640SOL    HW267818   7.828   8.905   6.064
88641SOL     OW67819   3.098  11.464   9.742
88641SOL    HW167820   3.170  11.500   9.691
88641SOL    HW267821   3.042  11.539   9.761
88642SOL     OW67822  11.746  11.462   4.661
88642SOL    HW167823  11.827  11.417   4.639
88642SOL    HW267824  11.690  11.394   4.699
88643SOL     OW67825  14.653   7.604   2.447
88643SOL    HW167826  14.614   7.636   2.366
88643SOL    HW267827  14.746   7.596   2.427
88644SOL     OW67828  11.062   5.862   5.426
88644SOL    HW167829  11.022   5.777   5.407
88644SOL    HW267830  11.035   5.918   5.353
88645SOL     OW67831   7.675   0.271   6.274
88645SOL    HW167832   7.736   0.232   6.336
88645SOL    HW267833   7.731   0.308   6.205
88646SOL     OW67834  14.671   5.808   9.590
88646SOL    HW167835  14.724   5.746   9.639
88646SOL    HW267836  14.669   5.887   9.644
88647SOL     OW67837   9.388  13.256  14.310
88647SOL    HW167838   9.437  13.292  14.237
88647SOL    HW267839   9.315  13.208  14.270
88648SOL     OW67840   3.052   3.128   4.729
88648SOL    HW167841   3.130   3.082   4.697
88648SOL    HW267842   2.995   3.058   4.761
88649SOL     OW67843  14.736  13.750   1.677
88649SOL    HW167844  14.720  13.844   1.675
88649SOL    HW267845  14.791  13.737   1.754
88650SOL     OW67846  13.513   0.733  13.258
88650SOL    HW167847  13.600   0.713  13.292
88650SOL    HW267848  13.517   0.710  13.165
88651SOL     OW67849   8.021  12.587  11.164
88651SOL    HW167850   8.023  12.557  11.073
88651SOL    HW267851   7.937  12.554  11.197
88652SOL     OW67852  13.145  14.016   5.003
88652SOL    HW167853  13.053  14.016   5.028
88652SOL    HW267854  13.191  13.985   5.080
88653SOL     OW67855   3.723   5.582  14.328
88653SOL    HW167856   3.794   5.530  14.291
88653SOL    HW267857   3.713   5.548  14.417
88654SOL     OW67858  14.139   9.489   8.059
88654SOL    HW167859  14.060   9.437   8.047
88654SOL    HW267860  14.107   9.574   8.089
88655SOL     OW67861  12.552   8.590   8.425
88655SOL    HW167862  12.457   8.587   8.438
88655SOL    HW267863  12.582   8.657   8.486
88656SOL     OW67864   5.914   9.605   7.688
88656SOL    HW167865   5.904   9.567   7.775
88656SOL    HW267866   5.835   9.578   7.641
88657SOL     OW67867   7.078  10.805  14.672
88657SOL    HW167868   7.129  10.789  14.593
88657SOL    HW267869   6.988  10.789  14.646
88658SOL     OW67870   2.848   2.336   1.778
88658SOL    HW167871   2.792   2.312   1.851
88658SOL    HW267872   2.905   2.405   1.812
88659SOL     OW67873  10.980   9.555  12.977
88659SOL    HW167874  11.032   9.635  12.986
88659SOL    HW267875  10.933   9.548  13.059
88660SOL     OW67876  12.241   1.525  10.877
88660SOL    HW167877  12.314   1.486  10.925
88660SOL    HW267878  12.180   1.552  10.945
88661SOL     OW67879   7.669   0.314   5.319
88661SOL    HW167880   7.620   0.276   5.246
88661SOL    HW267881   7.752   0.267   5.319
88662SOL     OW67882  10.180   6.823   0.652
88662SOL    HW167883  10.117   6.842   0.721
88662SOL    HW267884  10.258   6.791   0.698
88663SOL     OW67885  13.807   7.912  12.596
88663SOL    HW167886  13.726   7.938  12.552
88663SOL    HW267887  13.835   7.990  12.644
88664SOL     OW67888   1.527   1.018   4.125
88664SOL    HW167889   1.582   1.045   4.051
88664SOL    HW267890   1.511   1.098   4.174
88665SOL     OW67891   7.281  14.559   1.065
88665SOL    HW167892   7.294  14.654   1.067
88665SOL    HW267893   7.204  14.547   1.009
88666SOL     OW67894   8.023   4.979   2.909
88666SOL    HW167895   7.982   5.056   2.871
88666SOL    HW267896   8.091   5.013   2.967
88667SOL     OW67897   6.430   9.233   6.037
88667SOL    HW167898   6.372   9.290   5.987
88667SOL    HW267899   6.408   9.145   6.008
88668SOL     OW67900   1.544  11.555  12.094
88668SOL    HW167901   1.474  11.538  12.156
88668SOL    HW267902   1.624  11.536  12.142
88669SOL     OW67903   1.019   8.763   4.275
88669SOL    HW167904   1.037   8.674   4.247
88669SOL    HW267905   1.016   8.759   4.371
88670SOL     OW67906   7.730  12.141   9.592
88670SOL    HW167907   7.707  12.129   9.684
88670SOL    HW267908   7.722  12.054   9.553
88671SOL     OW67909   6.856   4.973  12.832
88671SOL    HW167910   6.828   5.065  12.827
88671SOL    HW267911   6.864   4.956  12.926
88672SOL     OW67912   5.475  11.408   5.753
88672SOL    HW167913   5.449  11.425   5.843
88672SOL    HW267914   5.392  11.395   5.707
88673SOL     OW67915  11.731   9.999   0.153
88673SOL    HW167916  11.825  10.004   0.166
88673SOL    HW267917  11.716   9.910   0.120
88674SOL     OW67918  12.695   7.335   3.655
88674SOL    HW167919  12.689   7.367   3.565
88674SOL    HW267920  12.665   7.408   3.709
88675SOL     OW67921   8.022   0.583  11.998
88675SOL    HW167922   7.979   0.542  12.073
88675SOL    HW267923   8.036   0.674  12.026
88676SOL     OW67924  14.829  14.675   7.239
88676SOL    HW167925  14.870  14.759   7.261
88676SOL    HW267926   0.018  14.610   7.255
88677SOL     OW67927   4.285  13.141   1.886
88677SOL    HW167928   4.193  13.165   1.879
88677SOL    HW267929   4.332  13.214   1.846
88678SOL     OW67930   4.013   6.918  12.654
88678SOL    HW167931   3.942   6.899  12.593
88678SOL    HW267932   3.982   6.888  12.739
88679SOL     OW67933   5.664   3.864   6.836
88679SOL    HW167934   5.743   3.875   6.889
88679SOL    HW267935   5.601   3.926   6.872
88680SOL     OW67936   5.184   5.386   0.533
88680SOL    HW167937   5.249   5.326   0.570
88680SOL    HW267938   5.104   5.369   0.581
88681SOL     OW67939  14.095   8.836   4.219
88681SOL    HW167940  14.163   8.769   4.232
88681SOL    HW267941  14.090   8.847   4.124
88682SOL     OW67942  11.827   5.166   1.748
88682SOL    HW167943  11.900   5.182   1.807
88682SOL    HW267944  11.749   5.183   1.801
88683SOL     OW67945   5.358  10.023   2.933
88683SOL    HW167946   5.371  10.058   2.845
88683SOL    HW267947   5.297   9.951   2.921
88684SOL     OW67948   6.924  11.325   6.384
88684SOL    HW167949   6.879  11.303   6.302
88684SOL    HW267950   6.932  11.420   6.382
88685SOL     OW67951   2.063  14.617   0.521
88685SOL    HW167952   2.114  14.597   0.442
88685SOL    HW267953   2.130  14.631   0.589
88686SOL     OW67954   7.112  12.873  13.804
88686SOL    HW167955   7.050  12.935  13.765
88686SOL    HW267956   7.111  12.798  13.744
88687SOL     OW67957   5.091   5.975   2.261
88687SOL    HW167958   5.011   5.935   2.294
88687SOL    HW267959   5.129   5.910   2.203
88688SOL     OW67960   2.672   2.997   5.848
88688SOL    HW167961   2.756   2.962   5.877
88688SOL    HW267962   2.687   3.024   5.757
88689SOL     OW67963   7.213   7.435  10.834
88689SOL    HW167964   7.174   7.456  10.919
88689SOL    HW267965   7.293   7.387  10.855
88690SOL     OW67966   0.027   6.356   9.968
88690SOL    HW167967   0.069   6.409   9.901
88690SOL    HW267968  14.835   6.410  10.001
88691SOL     OW67969   3.413   2.911   6.077
88691SOL    HW167970   3.366   2.935   5.997
88691SOL    HW267971   3.422   2.816   6.071
88692SOL     OW67972   3.149   1.616   3.978
88692SOL    HW167973   3.162   1.529   4.015
88692SOL    HW267974   3.068   1.609   3.927
88693SOL     OW67975   1.904   7.713   3.691
88693SOL    HW167976   1.829   7.766   3.719
88693SOL    HW267977   1.950   7.693   3.772
88694SOL     OW67978   9.381  12.691   7.357
88694SOL    HW167979   9.358  12.742   7.435
88694SOL    HW267980   9.424  12.613   7.392
88695SOL     OW67981   3.107  10.490   2.828
88695SOL    HW167982   3.155  10.558   2.781
88695SOL    HW267983   3.015  10.510   2.812
88696SOL     OW67984   6.514   5.223   5.987
88696SOL    HW167985   6.511   5.266   6.073
88696SOL    HW267986   6.607   5.217   5.966
88697SOL     OW67987   3.111   6.754   7.807
88697SOL    HW167988   3.023   6.790   7.817
88697SOL    HW267989   3.097   6.674   7.756
88698SOL     OW67990  10.773   0.433   3.755
88698SOL    HW167991  10.701   0.487   3.723
88698SOL    HW267992  10.816   0.401   3.676
88699SOL     OW67993  13.323  12.374   9.303
88699SOL    HW167994  13.275  12.318   9.242
88699SOL    HW267995  13.414  12.371   9.271
88700SOL     OW67996  11.475   0.278   0.565
88700SOL    HW167997  11.486   0.250   0.475
88700SOL    HW267998  11.380   0.291   0.575
88701SOL     OW67999  11.095   5.292  14.233
88701SOL    HW168000  11.115   5.354  14.303
88701SOL    HW268001  11.162   5.225  14.241
88702SOL     OW68002  11.093   9.969  13.876
88702SOL    HW168003  11.153  10.041  13.861
88702SOL    HW268004  11.054   9.986  13.962
88703SOL     OW68005   9.847   5.502   7.395
88703SOL    HW168006   9.803   5.439   7.452
88703SOL    HW268007   9.871   5.451   7.317
88704SOL     OW68008   0.460   2.142   1.683
88704SOL    HW168009   0.372   2.157   1.650
88704SOL    HW268010   0.511   2.118   1.606
88705SOL     OW68011  10.575   4.142   9.131
88705SOL    HW168012  10.650   4.085   9.148
88705SOL    HW268013  10.534   4.104   9.053
88706SOL     OW68014   9.086  14.156  11.068
88706SOL    HW168015   9.098  14.084  11.129
88706SOL    HW268016   8.995  14.147  11.038
88707SOL     OW68017   0.384   2.769   7.904
88707SOL    HW168018   0.351   2.680   7.890
88707SOL    HW268019   0.446   2.761   7.977
88708SOL     OW68020   5.126  10.000   6.901
88708SOL    HW168021   5.128   9.906   6.919
88708SOL    HW268022   5.208  10.018   6.856
88709SOL     OW68023   6.958  12.321  14.344
88709SOL    HW168024   7.014  12.275  14.407
88709SOL    HW268025   7.018  12.369  14.288
88710SOL     OW68026   6.814   9.517   7.918
88710SOL    HW168027   6.887   9.482   7.969
88710SOL    HW268028   6.799   9.451   7.850
88711SOL     OW68029  11.698  12.181  14.007
88711SOL    HW168030  11.738  12.116  13.951
88711SOL    HW268031  11.701  12.262  13.957
88712SOL     OW68032   4.930   1.805   8.393
88712SOL    HW168033   5.023   1.816   8.413
88712SOL    HW268034   4.888   1.881   8.433
88713SOL     OW68035   4.986   1.003   8.270
88713SOL    HW168036   5.078   1.012   8.297
88713SOL    HW268037   4.937   1.046   8.340
88714SOL     OW68038  10.561   6.973  11.573
88714SOL    HW168039  10.550   7.067  11.584
88714SOL    HW268040  10.484   6.945  11.524
88715SOL     OW68041  11.242   0.726   4.616
88715SOL    HW168042  11.241   0.637   4.651
88715SOL    HW268043  11.185   0.776   4.674
88716SOL     OW68044   1.350   0.943   5.118
88716SOL    HW168045   1.260   0.943   5.086
88716SOL    HW268046   1.396   0.882   5.060
88717SOL     OW68047  13.748  10.506  10.128
88717SOL    HW168048  13.818  10.475  10.186
88717SOL    HW268049  13.690  10.431  10.119
88718SOL     OW68050   3.952  13.569   7.364
88718SOL    HW168051   3.944  13.548   7.457
88718SOL    HW268052   3.994  13.655   7.362
88719SOL     OW68053   8.880   0.405  11.052
88719SOL    HW168054   8.832   0.326  11.075
88719SOL    HW268055   8.813   0.465  11.019
88720SOL     OW68056   7.652   9.685   5.308
88720SOL    HW168057   7.575   9.644   5.268
88720SOL    HW268058   7.670   9.632   5.386
88721SOL     OW68059   6.105   4.516  14.449
88721SOL    HW168060   6.131   4.567  14.525
88721SOL    HW268061   6.188   4.482  14.414
88722SOL     OW68062   0.156   1.010   3.628
88722SOL    HW168063   0.143   0.966   3.543
88722SOL    HW268064   0.192   0.942   3.685
88723SOL     OW68065   6.830  12.032   8.131
88723SOL    HW168066   6.900  12.096   8.132
88723SOL    HW268067   6.754  12.078   8.168
88724SOL     OW68068  12.177   0.274   0.175
88724SOL    HW168069  12.118   0.203   0.199
88724SOL    HW268070  12.183   0.329   0.253
88725SOL     OW68071   7.805   2.636  12.104
88725SOL    HW168072   7.851   2.646  12.021
88725SOL    HW268073   7.721   2.681  12.091
88726SOL     OW68074  14.672   7.093   2.424
88726SOL    HW168075  14.656   7.037   2.500
88726SOL    HW268076  14.638   7.179   2.450
88727SOL     OW68077   2.133  10.468   9.713
88727SOL    HW168078   2.200  10.432   9.771
88727SOL    HW268079   2.128  10.561   9.737
88728SOL     OW68080   9.574   5.193  10.892
88728SOL    HW168081   9.666   5.167  10.891
88728SOL    HW268082   9.576   5.286  10.917
88729SOL     OW68083  14.858  12.370   7.299
88729SOL    HW168084   0.046  12.318   7.342
88729SOL    HW268085  14.792  12.306   7.270
88730SOL     OW68086  13.917  11.179  10.703
88730SOL    HW168087  13.976  11.252  10.720
88730SOL    HW268088  13.830  11.213  10.722
88731SOL     OW68089   5.726  13.407   5.004
88731SOL    HW168090   5.783  13.332   5.016
88731SOL    HW268091   5.785  13.483   5.003
88732SOL     OW68092  10.460   3.024  10.422
88732SOL    HW168093  10.510   3.090  10.470
88732SOL    HW268094  10.402   3.075  10.365
88733SOL     OW68095   6.621   5.188   2.676
88733SOL    HW168096   6.692   5.148   2.625
88733SOL    HW268097   6.660   5.206   2.761
88734SOL     OW68098   7.299   1.772   3.647
88734SOL    HW168099   7.311   1.741   3.737
88734SOL    HW268100   7.385   1.807   3.623
88735SOL     OW68101  14.203  12.959  14.485
88735SOL    HW168102  14.148  13.016  14.432
88735SOL    HW268103  14.260  13.019  14.534
88736SOL     OW68104   7.585   8.353   4.000
88736SOL    HW168105   7.676   8.364   4.026
88736SOL    HW268106   7.572   8.259   3.994
88737SOL     OW68107   1.231  14.250  13.485
88737SOL    HW168108   1.295  14.187  13.452
88737SOL    HW268109   1.148  14.223  13.443
88738SOL     OW68110   9.125   0.936   6.549
88738SOL    HW168111   9.193   0.979   6.497
88738SOL    HW268112   9.071   1.009   6.582
88739SOL     OW68113   1.888   9.195  10.503
88739SOL    HW168114   1.849   9.281  10.491
88739SOL    HW268115   1.922   9.196  10.592
88740SOL     OW68116  12.589   1.022   8.645
88740SOL    HW168117  12.584   0.948   8.705
88740SOL    HW268118  12.679   1.053   8.653
88741SOL     OW68119  12.674   2.982   6.544
88741SOL    HW168120  12.718   2.923   6.483
88741SOL    HW268121  12.745   3.035   6.582
88742SOL     OW68122  10.483  14.322   7.635
88742SOL    HW168123  10.566  14.303   7.678
88742SOL    HW268124  10.429  14.245   7.652
88743SOL     OW68125   6.047  10.228  13.568
88743SOL    HW168126   6.035  10.318  13.599
88743SOL    HW268127   6.124  10.197  13.616
88744SOL     OW68128   0.918   0.393   0.565
88744SOL    HW168129   0.970   0.472   0.552
88744SOL    HW268130   0.963   0.326   0.513
88745SOL     OW68131   9.525   1.530   7.072
88745SOL    HW168132   9.614   1.557   7.048
88745SOL    HW268133   9.469   1.584   7.016
88746SOL     OW68134   6.316  10.304   3.636
88746SOL    HW168135   6.349  10.368   3.700
88746SOL    HW268136   6.374  10.314   3.561
88747SOL     OW68137   6.870  13.672   4.948
88747SOL    HW168138   6.962  13.693   4.967
88747SOL    HW268139   6.822  13.752   4.972
88748SOL     OW68140   1.513   5.739  12.407
88748SOL    HW168141   1.547   5.716  12.493
88748SOL    HW268142   1.426   5.775  12.424
88749SOL     OW68143   4.644   4.737   5.533
88749SOL    HW168144   4.587   4.790   5.478
88749SOL    HW268145   4.585   4.679   5.581
88750SOL     OW68146   2.452   6.969   9.654
88750SOL    HW168147   2.535   6.926   9.638
88750SOL    HW268148   2.396   6.901   9.692
88751SOL     OW68149   7.059   3.755   4.957
88751SOL    HW168150   7.057   3.668   4.995
88751SOL    HW268151   7.140   3.794   4.990
88752SOL     OW68152  12.608   3.842   0.890
88752SOL    HW168153  12.655   3.896   0.827
88752SOL    HW268154  12.531   3.811   0.843
88753SOL     OW68155   3.193   1.459   7.605
88753SOL    HW168156   3.229   1.455   7.516
88753SOL    HW268157   3.123   1.524   7.600
88754SOL     OW68158  13.367   6.924   0.761
88754SOL    HW168159  13.344   6.927   0.668
88754SOL    HW268160  13.284   6.940   0.806
88755SOL     OW68161   1.017   1.773  12.785
88755SOL    HW168162   1.110   1.778  12.806
88755SOL    HW268163   1.003   1.841  12.720
88756SOL     OW68164  10.144  13.589  13.223
88756SOL    HW168165  10.105  13.674  13.244
88756SOL    HW268166  10.073  13.540  13.181
88757SOL     OW68167   7.523   4.254   2.236
88757SOL    HW168168   7.580   4.313   2.286
88757SOL    HW268169   7.479   4.311   2.173
88758SOL     OW68170   5.377   7.296   7.123
88758SOL    HW168171   5.336   7.250   7.196
88758SOL    HW268172   5.469   7.270   7.127
88759SOL     OW68173  13.286   6.411   1.016
88759SOL    HW168174  13.352   6.379   1.077
88759SOL    HW268175  13.292   6.352   0.941
88760SOL     OW68176   3.867   0.466   7.467
88760SOL    HW168177   3.805   0.393   7.461
88760SOL    HW268178   3.877   0.481   7.561
88761SOL     OW68179   5.008   5.655   2.629
88761SOL    HW168180   5.075   5.679   2.693
88761SOL    HW268181   4.962   5.738   2.611
88762SOL     OW68182   8.377  13.178   6.508
88762SOL    HW168183   8.419  13.148   6.589
88762SOL    HW268184   8.447  13.226   6.462
88763SOL     OW68185   5.320   3.001   3.983
88763SOL    HW168186   5.354   2.932   3.926
88763SOL    HW268187   5.259   3.049   3.928
88764SOL     OW68188   2.962   9.232  10.093
88764SOL    HW168189   2.964   9.328  10.087
88764SOL    HW268190   2.968   9.214  10.186
88765SOL     OW68191   8.199  14.793   9.434
88765SOL    HW168192   8.190  14.713   9.486
88765SOL    HW268193   8.284  14.829   9.460
88766SOL     OW68194  12.425   3.139  13.664
88766SOL    HW168195  12.462   3.069  13.719
88766SOL    HW268196  12.340   3.157  13.704
88767SOL     OW68197   7.372  10.247  12.761
88767SOL    HW168198   7.320  10.233  12.840
88767SOL    HW268199   7.354  10.170  12.706
88768SOL     OW68200   4.623   4.765  14.303
88768SOL    HW168201   4.655   4.739  14.389
88768SOL    HW268202   4.548   4.708  14.287
88769SOL     OW68203   9.652   9.493  12.067
88769SOL    HW168204   9.725   9.454  12.115
88769SOL    HW268205   9.634   9.432  11.996
88770SOL     OW68206  12.155   6.819  14.753
88770SOL    HW168207  12.144   6.865  14.670
88770SOL    HW268208  12.154   6.726  14.730
88771SOL     OW68209  10.633   2.945   9.791
88771SOL    HW168210  10.666   3.024   9.749
88771SOL    HW268211  10.551   2.973   9.833
88772SOL     OW68212   6.335  10.255  11.397
88772SOL    HW168213   6.424  10.223  11.386
88772SOL    HW268214   6.281  10.201  11.339
88773SOL     OW68215   4.479   8.218  11.922
88773SOL    HW168216   4.486   8.124  11.935
88773SOL    HW268217   4.385   8.236  11.921
88774SOL     OW68218   6.693   6.225   8.999
88774SOL    HW168219   6.745   6.153   8.962
88774SOL    HW268220   6.613   6.182   9.029
88775SOL     OW68221   5.622   1.301   9.688
88775SOL    HW168222   5.557   1.291   9.619
88775SOL    HW268223   5.605   1.387   9.726
88776SOL     OW68224  14.840   8.918   5.135
88776SOL    HW168225   0.050   8.951   5.131
88776SOL    HW268226  14.818   8.896   5.045
88777SOL     OW68227  14.336  11.467   1.731
88777SOL    HW168228  14.288  11.511   1.661
88777SOL    HW268229  14.269  11.415   1.776
88778SOL     OW68230   2.378  13.491   6.803
88778SOL    HW168231   2.405  13.400   6.792
88778SOL    HW268232   2.414  13.517   6.888
88779SOL     OW68233  11.978   2.571   1.979
88779SOL    HW168234  11.999   2.663   1.965
88779SOL    HW268235  11.980   2.532   1.892
88780SOL     OW68236   5.845   9.695  12.343
88780SOL    HW168237   5.851   9.768  12.282
88780SOL    HW268238   5.930   9.652  12.339
88781SOL     OW68239  11.120   4.502  13.323
88781SOL    HW168240  11.203   4.457  13.335
88781SOL    HW268241  11.138   4.568  13.256
88782SOL     OW68242  14.361  12.480   1.425
88782SOL    HW168243  14.391  12.400   1.381
88782SOL    HW268244  14.301  12.520   1.362
88783SOL     OW68245  13.416  13.420   9.276
88783SOL    HW168246  13.450  13.495   9.228
88783SOL    HW268247  13.394  13.454   9.363
88784SOL     OW68248   4.412   8.834   6.030
88784SOL    HW168249   4.428   8.894   5.958
88784SOL    HW268250   4.481   8.768   6.024
88785SOL     OW68251   9.260  10.777   4.125
88785SOL    HW168252   9.257  10.714   4.053
88785SOL    HW268253   9.271  10.862   4.082
88786SOL     OW68254   2.773  11.099   4.143
88786SOL    HW168255   2.766  11.191   4.166
88786SOL    HW268256   2.738  11.094   4.054
88787SOL     OW68257   7.069   1.119  11.933
88787SOL    HW168258   7.154   1.084  11.961
88787SOL    HW268259   7.091   1.193  11.877
88788SOL     OW68260   8.042  11.818   6.421
88788SOL    HW168261   8.043  11.736   6.472
88788SOL    HW268262   8.095  11.799   6.344
88789SOL     OW68263   3.220   4.346   7.736
88789SOL    HW168264   3.208   4.441   7.736
88789SOL    HW268265   3.171   4.316   7.659
88790SOL     OW68266  13.548   8.609   1.469
88790SOL    HW168267  13.592   8.591   1.386
88790SOL    HW268268  13.619   8.619   1.532
88791SOL     OW68269   9.859   7.864   0.158
88791SOL    HW168270   9.795   7.935   0.149
88791SOL    HW268271   9.819   7.790   0.111
88792SOL     OW68272   6.548  11.337   6.224
88792SOL    HW168273   6.492  11.297   6.291
88792SOL    HW268274   6.533  11.431   6.234
88793SOL     OW68275  13.449  10.220   9.088
88793SOL    HW168276  13.397  10.149   9.050
88793SOL    HW268277  13.485  10.184   9.168
88794SOL     OW68278  11.261  11.411   9.658
88794SOL    HW168279  11.211  11.487   9.628
88794SOL    HW268280  11.342  11.413   9.607
88795SOL     OW68281   6.626  13.308  12.007
88795SOL    HW168282   6.636  13.248  11.933
88795SOL    HW268283   6.560  13.267  12.062
88796SOL     OW68284   4.116  13.767   6.474
88796SOL    HW168285   4.085  13.682   6.443
88796SOL    HW268286   4.184  13.792   6.411
88797SOL     OW68287   1.875   7.468   2.356
88797SOL    HW168288   1.970   7.464   2.351
88797SOL    HW268289   1.846   7.378   2.342
88798SOL     OW68290   8.127   1.700   2.432
88798SOL    HW168291   8.064   1.768   2.454
88798SOL    HW268292   8.180   1.689   2.511
88799SOL     OW68293   6.048   8.496   9.182
88799SOL    HW168294   6.123   8.488   9.240
88799SOL    HW268295   6.076   8.455   9.100
88800SOL     OW68296  11.290  10.841   5.953
88800SOL    HW168297  11.222  10.774   5.943
88800SOL    HW268298  11.285  10.869   6.044
88801SOL     OW68299  14.243  11.689   0.275
88801SOL    HW168300  14.233  11.594   0.280
88801SOL    HW268301  14.303  11.704   0.202
88802SOL     OW68302   5.156   0.992  10.829
88802SOL    HW168303   5.224   0.990  10.896
88802SOL    HW268304   5.145   0.900  10.804
88803SOL     OW68305   3.518   1.814   6.751
88803SOL    HW168306   3.541   1.745   6.689
88803SOL    HW268307   3.579   1.885   6.732
88804SOL     OW68308   7.775   5.565   9.003
88804SOL    HW168309   7.855   5.597   8.962
88804SOL    HW268310   7.792   5.572   9.097
88805SOL     OW68311   7.519   8.250  12.955
88805SOL    HW168312   7.535   8.156  12.947
88805SOL    HW268313   7.566   8.276  13.035
88806SOL     OW68314   7.981   5.766  10.889
88806SOL    HW168315   7.921   5.708  10.842
88806SOL    HW268316   8.047   5.791  10.825
88807SOL     OW68317  13.438   2.652  13.351
88807SOL    HW168318  13.386   2.717  13.305
88807SOL    HW268319  13.396   2.644  13.437
88808SOL     OW68320  12.084  12.102  13.095
88808SOL    HW168321  11.989  12.104  13.086
88808SOL    HW268322  12.116  12.118  13.006
88809SOL     OW68323  14.317   6.585  12.402
88809SOL    HW168324  14.330   6.491  12.416
88809SOL    HW268325  14.376   6.627  12.464
88810SOL     OW68326   2.452   0.383   3.105
88810SOL    HW168327   2.364   0.408   3.078
88810SOL    HW268328   2.482   0.456   3.159
88811SOL     OW68329  11.367   3.748  13.787
88811SOL    HW168330  11.445   3.711  13.746
88811SOL    HW268331  11.390   3.758  13.879
88812SOL     OW68332  14.260  13.134  13.645
88812SOL    HW168333  14.235  13.210  13.697
88812SOL    HW268334  14.329  13.167  13.586
88813SOL     OW68335   4.177   9.640  11.626
88813SOL    HW168336   4.215   9.715  11.580
88813SOL    HW268337   4.231   9.566  11.600
88814SOL     OW68338   8.275   2.066   9.277
88814SOL    HW168339   8.280   2.152   9.235
88814SOL    HW268340   8.358   2.024   9.255
88815SOL     OW68341   3.247   6.751   4.323
88815SOL    HW168342   3.195   6.780   4.248
88815SOL    HW268343   3.213   6.801   4.397
88816SOL     OW68344   6.846   0.732  10.743
88816SOL    HW168345   6.872   0.640  10.748
88816SOL    HW268346   6.793   0.747  10.821
88817SOL     OW68347  11.907  12.575  10.726
88817SOL    HW168348  11.940  12.596  10.639
88817SOL    HW268349  11.854  12.651  10.751
88818SOL     OW68350  14.046   3.903   9.797
88818SOL    HW168351  14.021   3.903   9.889
88818SOL    HW268352  14.026   3.992   9.766
88819SOL     OW68353   9.807   2.228   8.009
88819SOL    HW168354   9.797   2.133   8.013
88819SOL    HW268355   9.901   2.242   7.997
88820SOL     OW68356   2.164   0.317   4.300
88820SOL    HW168357   2.216   0.361   4.368
88820SOL    HW268358   2.082   0.366   4.297
88821SOL     OW68359   0.307  14.394   4.960
88821SOL    HW168360   0.226  14.423   4.918
88821SOL    HW268361   0.279  14.361   5.046
88822SOL     OW68362   4.274  11.954   1.559
88822SOL    HW168363   4.199  11.911   1.601
88822SOL    HW268364   4.279  11.913   1.473
88823SOL     OW68365   5.993   7.607  11.174
88823SOL    HW168366   6.078   7.570  11.150
88823SOL    HW268367   5.931   7.537  11.158
88824SOL     OW68368   4.336   4.430   6.147
88824SOL    HW168369   4.247   4.412   6.177
88824SOL    HW268370   4.344   4.382   6.064
88825SOL     OW68371   4.867   6.644   4.444
88825SOL    HW168372   4.876   6.697   4.523
88825SOL    HW268373   4.893   6.703   4.372
88826SOL     OW68374   7.943   1.250  11.208
88826SOL    HW168375   8.022   1.218  11.250
88826SOL    HW268376   7.950   1.220  11.117
88827SOL     OW68377   5.674   7.904  11.828
88827SOL    HW168378   5.613   7.912  11.902
88827SOL    HW268379   5.697   7.811  11.826
88828SOL     OW68380   3.988  12.616  12.759
88828SOL    HW168381   4.022  12.548  12.702
88828SOL    HW268382   3.989  12.577  12.847
88829SOL     OW68383   2.840  14.860   8.730
88829SOL    HW168384   2.907   0.044   8.756
88829SOL    HW268385   2.815  14.816   8.811
88830SOL     OW68386   6.067   2.789   7.616
88830SOL    HW168387   6.159   2.773   7.638
88830SOL    HW268388   6.063   2.881   7.591
88831SOL     OW68389  13.378  11.984  10.834
88831SOL    HW168390  13.308  11.919  10.836
88831SOL    HW268391  13.334  12.065  10.806
88832SOL     OW68392   2.755   7.883   9.243
88832SOL    HW168393   2.703   7.811   9.208
88832SOL    HW268394   2.718   7.962   9.203
88833SOL     OW68395  12.761   8.099   3.354
88833SOL    HW168396  12.837   8.087   3.411
88833SOL    HW268397  12.737   8.010   3.327
88834SOL     OW68398  14.289   8.825   7.963
88834SOL    HW168399  14.273   8.877   8.041
88834SOL    HW268400  14.223   8.755   7.967
88835SOL     OW68401  12.288   5.847   9.113
88835SOL    HW168402  12.237   5.912   9.162
88835SOL    HW268403  12.371   5.840   9.161
88836SOL     OW68404   0.715  11.192  13.288
88836SOL    HW168405   0.688  11.137  13.361
88836SOL    HW268406   0.643  11.254  13.277
88837SOL     OW68407   6.328   4.661   3.987
88837SOL    HW168408   6.386   4.625   4.054
88837SOL    HW268409   6.326   4.594   3.919
88838SOL     OW68410   0.975  11.591   8.594
88838SOL    HW168411   0.935  11.666   8.549
88838SOL    HW268412   1.069  11.601   8.576
88839SOL     OW68413  11.089   3.511   7.904
88839SOL    HW168414  11.004   3.492   7.943
88839SOL    HW268415  11.134   3.565   7.969
88840SOL     OW68416   0.803   4.314   3.533
88840SOL    HW168417   0.759   4.380   3.585
88840SOL    HW268418   0.891   4.349   3.517
88841SOL     OW68419  13.804   8.643   4.252
88841SOL    HW168420  13.805   8.563   4.304
88841SOL    HW268421  13.894   8.654   4.223
88842SOL     OW68422  12.588   8.915   2.984
88842SOL    HW168423  12.587   8.918   2.888
88842SOL    HW268424  12.544   8.833   3.007
88843SOL     OW68425   8.337  13.332   7.888
88843SOL    HW168426   8.345  13.262   7.952
88843SOL    HW268427   8.349  13.413   7.939
88844SOL     OW68428   2.745   1.362  12.109
88844SOL    HW168429   2.754   1.358  12.205
88844SOL    HW268430   2.782   1.279  12.079
88845SOL     OW68431   3.934   4.933   4.344
88845SOL    HW168432   3.920   5.026   4.326
88845SOL    HW268433   4.019   4.913   4.305
88846SOL     OW68434   3.495   4.441  14.137
88846SOL    HW168435   3.473   4.434  14.044
88846SOL    HW268436   3.502   4.351  14.167
88847SOL     OW68437   7.241   8.756   7.812
88847SOL    HW168438   7.323   8.766   7.764
88847SOL    HW268439   7.265   8.771   7.904
88848SOL     OW68440   8.896  14.432   9.186
88848SOL    HW168441   8.917  14.360   9.125
88848SOL    HW268442   8.843  14.390   9.254
88849SOL     OW68443   3.116   3.772   0.040
88849SOL    HW168444   3.196   3.809   0.002
88849SOL    HW268445   3.052   3.843   0.033
88850SOL     OW68446   8.334   0.737   4.848
88850SOL    HW168447   8.299   0.652   4.877
88850SOL    HW268448   8.426   0.734   4.872
88851SOL     OW68449   5.669   2.904  14.013
88851SOL    HW168450   5.663   2.988  14.059
88851SOL    HW268451   5.578   2.882  13.994
88852SOL     OW68452   7.881   2.528   0.555
88852SOL    HW168453   7.935   2.468   0.504
88852SOL    HW268454   7.792   2.495   0.544
88853SOL     OW68455  13.145   6.675   1.242
88853SOL    HW168456  13.216   6.674   1.177
88853SOL    HW268457  13.153   6.591   1.287
88854SOL     OW68458   9.566  12.134   2.117
88854SOL    HW168459   9.502  12.103   2.053
88854SOL    HW268460   9.565  12.069   2.187
88855SOL     OW68461  11.978   5.303   5.151
88855SOL    HW168462  12.063   5.309   5.108
88855SOL    HW268463  11.931   5.235   5.103
88856SOL     OW68464   9.981   3.027   2.828
88856SOL    HW168465  10.016   3.097   2.773
88856SOL    HW268466   9.889   3.019   2.802
88857SOL     OW68467  13.051   3.979   1.435
88857SOL    HW168468  13.017   4.048   1.377
88857SOL    HW268469  13.146   3.986   1.427
88858SOL     OW68470  12.402  11.152   8.489
88858SOL    HW168471  12.436  11.210   8.421
88858SOL    HW268472  12.308  11.148   8.472
88859SOL     OW68473  10.755  12.910  14.409
88859SOL    HW168474  10.796  12.834  14.449
88859SOL    HW268475  10.825  12.974  14.403
88860SOL     OW68476   7.940  11.272  12.665
88860SOL    HW168477   7.927  11.334  12.594
88860SOL    HW268478   7.871  11.206  12.651
88861SOL     OW68479   1.288   1.446   1.002
88861SOL    HW168480   1.276   1.507   1.075
88861SOL    HW268481   1.251   1.363   1.034
88862SOL     OW68482   6.304   3.758   2.356
88862SOL    HW168483   6.305   3.710   2.273
88862SOL    HW268484   6.374   3.822   2.348
88863SOL     OW68485   4.484  10.291   6.643
88863SOL    HW168486   4.576  10.319   6.639
88863SOL    HW268487   4.434  10.371   6.631
88864SOL     OW68488  11.682   2.816   5.068
88864SOL    HW168489  11.709   2.864   5.147
88864SOL    HW268490  11.756   2.827   5.008
88865SOL     OW68491   9.995   9.930   1.953
88865SOL    HW168492  10.076   9.980   1.963
88865SOL    HW268493  10.007   9.853   2.008
88866SOL     OW68494   8.641  14.848  11.855
88866SOL    HW168495   8.723  14.849  11.805
88866SOL    HW268496   8.666  14.817  11.942
88867SOL     OW68497  13.494   4.654  12.475
88867SOL    HW168498  13.421   4.627  12.419
88867SOL    HW268499  13.534   4.572  12.504
88868SOL     OW68500   4.670   2.006  10.192
88868SOL    HW168501   4.598   2.041  10.244
88868SOL    HW268502   4.749   2.030  10.241
88869SOL     OW68503   2.576   2.012   8.580
88869SOL    HW168504   2.594   1.947   8.512
88869SOL    HW268505   2.662   2.038   8.612
88870SOL     OW68506   5.259   6.972   0.002
88870SOL    HW168507   5.304   7.034  14.825
88870SOL    HW268508   5.174   7.012   0.019
88871SOL     OW68509  10.617  14.348   6.786
88871SOL    HW168510  10.688  14.356   6.850
88871SOL    HW268511  10.590  14.438   6.770
88872SOL     OW68512   9.663  10.091   2.498
88872SOL    HW168513   9.670  10.008   2.547
88872SOL    HW268514   9.666  10.064   2.406
88873SOL     OW68515  12.850  13.551  14.195
88873SOL    HW168516  12.823  13.539  14.286
88873SOL    HW268517  12.927  13.495  14.185
88874SOL     OW68518  14.236   1.770   9.392
88874SOL    HW168519  14.258   1.816   9.473
88874SOL    HW268520  14.316   1.723   9.369
88875SOL     OW68521   0.629   0.416   3.017
88875SOL    HW168522   0.724   0.416   3.026
88875SOL    HW268523   0.597   0.457   3.098
88876SOL     OW68524   7.718  13.812  13.087
88876SOL    HW168525   7.731  13.767  13.004
88876SOL    HW268526   7.641  13.867  13.072
88877SOL     OW68527   7.337   0.473  10.030
88877SOL    HW168528   7.428   0.504  10.028
88877SOL    HW268529   7.287   0.544   9.990
88878SOL     OW68530   0.165  12.134   0.065
88878SOL    HW168531   0.260  12.127   0.076
88878SOL    HW268532   0.146  12.076  14.871
88879SOL     OW68533   0.638   9.315   2.503
88879SOL    HW168534   0.708   9.310   2.439
88879SOL    HW268535   0.560   9.286   2.456
88880SOL     OW68536  13.645  12.388  11.022
88880SOL    HW168537  13.627  12.295  11.008
88880SOL    HW268538  13.655  12.424  10.934
88881SOL     OW68539   4.280   9.553   8.496
88881SOL    HW168540   4.356   9.512   8.455
88881SOL    HW268541   4.214   9.484   8.498
88882SOL     OW68542   6.744   2.195  14.142
88882SOL    HW168543   6.817   2.253  14.121
88882SOL    HW268544   6.675   2.253  14.174
88883SOL     OW68545  13.343   3.131  12.691
88883SOL    HW168546  13.427   3.084  12.689
88883SOL    HW268547  13.366   3.222  12.674
88884SOL     OW68548   4.034   7.188  13.100
88884SOL    HW168549   3.948   7.155  13.073
88884SOL    HW268550   4.094   7.156  13.033
88885SOL     OW68551  13.225   5.461  12.113
88885SOL    HW168552  13.201   5.389  12.054
88885SOL    HW268553  13.260   5.418  12.191
88886SOL     OW68554  13.677   7.134  11.416
88886SOL    HW168555  13.601   7.162  11.365
88886SOL    HW268556  13.651   7.146  11.507
88887SOL     OW68557  10.494  12.081   5.290
88887SOL    HW168558  10.504  11.990   5.320
88887SOL    HW268559  10.461  12.073   5.201
88888SOL     OW68560   4.292  10.162   8.097
88888SOL    HW168561   4.203  10.133   8.118
88888SOL    HW268562   4.281  10.218   8.020
88889SOL     OW68563  10.880   6.578   7.679
88889SOL    HW168564  10.931   6.535   7.747
88889SOL    HW268565  10.910   6.669   7.681
88890SOL     OW68566   8.083   2.700  12.212
88890SOL    HW168567   8.022   2.742  12.152
88890SOL    HW268568   8.030   2.636  12.260
88891SOL     OW68569   8.786   2.887  12.491
88891SOL    HW168570   8.743   2.855  12.571
88891SOL    HW268571   8.744   2.838  12.420
88892SOL     OW68572   6.707   7.102   0.541
88892SOL    HW168573   6.797   7.133   0.547
88892SOL    HW268574   6.672   7.114   0.629
88893SOL     OW68575   1.044  12.913  14.202
88893SOL    HW168576   0.957  12.908  14.241
88893SOL    HW268577   1.102  12.875  14.268
88894SOL     OW68578   2.858  14.753   2.614
88894SOL    HW168579   2.901  14.803   2.683
88894SOL    HW268580   2.829  14.673   2.656
88895SOL     OW68581   8.537   5.328   7.748
88895SOL    HW168582   8.465   5.266   7.736
88895SOL    HW268583   8.593   5.316   7.671
88896SOL     OW68584   2.126   2.364   1.693
88896SOL    HW168585   2.137   2.281   1.740
88896SOL    HW268586   2.073   2.340   1.617
88897SOL     OW68587  13.511  12.059   7.292
88897SOL    HW168588  13.499  12.119   7.219
88897SOL    HW268589  13.442  12.082   7.354
88898SOL     OW68590   4.755   0.728  13.829
88898SOL    HW168591   4.725   0.703  13.741
88898SOL    HW268592   4.850   0.715  13.825
88899SOL     OW68593   5.841   8.761   0.851
88899SOL    HW168594   5.845   8.726   0.940
88899SOL    HW268595   5.932   8.781   0.829
88900SOL     OW68596  14.361   9.262  13.715
88900SOL    HW168597  14.420   9.200  13.759
88900SOL    HW268598  14.273   9.232  13.739
88901SOL     OW68599   2.830  14.569  11.162
88901SOL    HW168600   2.851  14.574  11.069
88901SOL    HW268601   2.751  14.622  11.172
88902SOL     OW68602   2.352  13.265   2.488
88902SOL    HW168603   2.425  13.323   2.509
88902SOL    HW268604   2.318  13.237   2.573
88903SOL     OW68605   1.351   3.563   0.573
88903SOL    HW168606   1.315   3.649   0.594
88903SOL    HW268607   1.356   3.560   0.478
88904SOL     OW68608   9.005   1.282  14.878
88904SOL    HW168609   8.967   1.261  14.793
88904SOL    HW268610   9.040   1.199   0.030
88905SOL     OW68611   8.519  10.709   0.410
88905SOL    HW168612   8.503  10.711   0.504
88905SOL    HW268613   8.438  10.743   0.371
88906SOL     OW68614   2.758  11.505   1.539
88906SOL    HW168615   2.774  11.491   1.633
88906SOL    HW268616   2.840  11.482   1.497
88907SOL     OW68617   1.559   6.461   9.318
88907SOL    HW168618   1.644   6.473   9.361
88907SOL    HW268619   1.567   6.376   9.274
88908SOL     OW68620   9.762   7.939   6.171
88908SOL    HW168621   9.738   7.957   6.262
88908SOL    HW268622   9.834   8.000   6.153
88909SOL     OW68623   3.621   1.251   3.733
88909SOL    HW168624   3.601   1.328   3.786
88909SOL    HW268625   3.712   1.263   3.705
88910SOL     OW68626   2.841  10.577  14.182
88910SOL    HW168627   2.837  10.649  14.119
88910SOL    HW268628   2.862  10.620  14.265
88911SOL     OW68629   4.021   4.253  10.431
88911SOL    HW168630   4.008   4.179  10.491
88911SOL    HW268631   4.015   4.214  10.344
88912SOL     OW68632   7.492  13.572   6.012
88912SOL    HW168633   7.572  13.597   5.965
88912SOL    HW268634   7.447  13.654   6.028
88913SOL     OW68635   1.223   6.245   7.591
88913SOL    HW168636   1.175   6.209   7.666
88913SOL    HW268637   1.288   6.178   7.569
88914SOL     OW68638   8.450   1.266   0.552
88914SOL    HW168639   8.362   1.296   0.526
88914SOL    HW268640   8.466   1.311   0.634
88915SOL     OW68641   4.211   6.097   8.654
88915SOL    HW168642   4.257   6.053   8.726
88915SOL    HW268643   4.224   6.039   8.579
88916SOL     OW68644   9.872   4.010   6.281
88916SOL    HW168645   9.819   4.089   6.280
88916SOL    HW268646   9.808   3.939   6.286
88917SOL     OW68647  11.726  12.329   8.690
88917SOL    HW168648  11.694  12.247   8.728
88917SOL    HW268649  11.704  12.323   8.597
88918SOL     OW68650   0.005   2.214   1.792
88918SOL    HW168651  14.793   2.218   1.765
88918SOL    HW268652   0.046   2.155   1.730
88919SOL     OW68653   8.605  10.942   1.689
88919SOL    HW168654   8.585  10.991   1.769
88919SOL    HW268655   8.554  10.861   1.698
88920SOL     OW68656   6.099  11.938  14.451
88920SOL    HW168657   6.049  11.932  14.370
88920SOL    HW268658   6.111  11.848  14.479
88921SOL     OW68659   0.051   3.687  10.407
88921SOL    HW168660   0.050   3.675  10.502
88921SOL    HW268661  14.868   3.624  10.374
88922SOL     OW68662   7.142   9.173   3.416
88922SOL    HW168663   7.179   9.241   3.472
88922SOL    HW268664   7.208   9.104   3.417
88923SOL     OW68665   8.650   4.552   0.130
88923SOL    HW168666   8.583   4.489   0.157
88923SOL    HW268667   8.601   4.634   0.119
88924SOL     OW68668   5.167   9.556   3.735
88924SOL    HW168669   5.129   9.514   3.658
88924SOL    HW268670   5.171   9.486   3.801
88925SOL     OW68671   3.053  13.217  13.833
88925SOL    HW168672   3.086  13.132  13.805
88925SOL    HW268673   3.095  13.279  13.773
88926SOL     OW68674   0.364   3.451  12.042
88926SOL    HW168675   0.361   3.366  11.997
88926SOL    HW268676   0.406   3.509  11.979
88927SOL     OW68677  11.148   6.619   4.107
88927SOL    HW168678  11.204   6.637   4.031
88927SOL    HW268679  11.169   6.529   4.132
88928SOL     OW68680  11.773   0.148   2.146
88928SOL    HW168681  11.698   0.089   2.137
88928SOL    HW268682  11.849   0.091   2.143
88929SOL     OW68683   3.230   3.068   4.491
88929SOL    HW168684   3.298   3.042   4.428
88929SOL    HW268685   3.276   3.126   4.552
88930SOL     OW68686   2.768   2.625   7.314
88930SOL    HW168687   2.698   2.689   7.299
88930SOL    HW268688   2.776   2.620   7.409
88931SOL     OW68689   1.453   6.843   9.580
88931SOL    HW168690   1.427   6.787   9.507
88931SOL    HW268691   1.385   6.910   9.583
88932SOL     OW68692  13.362   3.872   7.731
88932SOL    HW168693  13.313   3.948   7.699
88932SOL    HW268694  13.421   3.908   7.797
88933SOL     OW68695   3.126  14.080  10.393
88933SOL    HW168696   3.092  14.165  10.365
88933SOL    HW268697   3.170  14.097  10.476
88934SOL     OW68698  12.158  10.600   6.153
88934SOL    HW168699  12.071  10.640   6.152
88934SOL    HW268700  12.213  10.663   6.199
88935SOL     OW68701   5.110   8.507  11.448
88935SOL    HW168702   5.170   8.575  11.418
88935SOL    HW268703   5.161   8.426  11.446
88936SOL     OW68704  12.787   1.497   2.972
88936SOL    HW168705  12.748   1.584   2.976
88936SOL    HW268706  12.715   1.440   2.945
88937SOL     OW68707  14.434  14.474  10.654
88937SOL    HW168708  14.487  14.508  10.583
88937SOL    HW268709  14.494  14.419  10.705
88938SOL     OW68710   2.587   3.928   6.458
88938SOL    HW168711   2.611   3.894   6.372
88938SOL    HW268712   2.669   3.930   6.507
88939SOL     OW68713   7.275  10.855   7.608
88939SOL    HW168714   7.291  10.839   7.515
88939SOL    HW268715   7.190  10.898   7.611
88940SOL     OW68716   2.718  13.554  13.775
88940SOL    HW168717   2.634  13.552  13.821
88940SOL    HW268718   2.733  13.463  13.751
88941SOL     OW68719   5.913  10.785   5.789
88941SOL    HW168720   5.899  10.877   5.810
88941SOL    HW268721   5.956  10.785   5.704
88942SOL     OW68722   4.304   3.031   3.909
88942SOL    HW168723   4.210   3.018   3.918
88942SOL    HW268724   4.341   2.995   3.990
88943SOL     OW68725   7.445   4.290   9.877
88943SOL    HW168726   7.456   4.318   9.786
88943SOL    HW268727   7.369   4.340   9.908
88944SOL     OW68728   3.449  13.118   4.050
88944SOL    HW168729   3.536  13.106   4.012
88944SOL    HW268730   3.433  13.212   4.041
88945SOL     OW68731   8.181  12.833   1.816
88945SOL    HW168732   8.257  12.793   1.773
88945SOL    HW268733   8.194  12.815   1.909
88946SOL     OW68734   0.492   8.956   9.068
88946SOL    HW168735   0.427   9.009   9.022
88946SOL    HW268736   0.453   8.939   9.154
88947SOL     OW68737  13.595   9.122  10.552
88947SOL    HW168738  13.538   9.171  10.612
88947SOL    HW268739  13.684   9.143  10.580
88948SOL     OW68740  11.385   6.896  13.544
88948SOL    HW168741  11.380   6.990  13.558
88948SOL    HW268742  11.307   6.875  13.492
88949SOL     OW68743   4.373   3.582   7.194
88949SOL    HW168744   4.462   3.580   7.160
88949SOL    HW268745   4.343   3.671   7.179
88950SOL     OW68746  12.885   2.359   8.845
88950SOL    HW168747  12.906   2.450   8.865
88950SOL    HW268748  12.906   2.311   8.925
88951SOL     OW68749   6.679   3.047   2.674
88951SOL    HW168750   6.748   3.113   2.671
88951SOL    HW268751   6.643   3.054   2.762
88952SOL     OW68752  12.884  14.024   8.421
88952SOL    HW168753  12.895  13.967   8.345
88952SOL    HW268754  12.954  14.088   8.414
88953SOL     OW68755   9.781   0.129   3.800
88953SOL    HW168756   9.863   0.112   3.754
88953SOL    HW268757   9.802   0.199   3.862
88954SOL     OW68758  12.537   8.317   6.724
88954SOL    HW168759  12.596   8.361   6.663
88954SOL    HW268760  12.508   8.239   6.676
88955SOL     OW68761   9.793   6.122  13.802
88955SOL    HW168762   9.778   6.034  13.836
88955SOL    HW268763   9.819   6.109  13.711
88956SOL     OW68764  13.179   1.368   7.861
88956SOL    HW168765  13.162   1.337   7.773
88956SOL    HW268766  13.121   1.444   7.872
88957SOL     OW68767  11.113  10.212   4.617
88957SOL    HW168768  11.077  10.138   4.568
88957SOL    HW268769  11.207  10.208   4.601
88958SOL     OW68770   1.839   0.563   3.426
88958SOL    HW168771   1.790   0.529   3.351
88958SOL    HW268772   1.807   0.512   3.501
88959SOL     OW68773   6.046   5.882   0.016
88959SOL    HW168774   6.028   5.962   0.066
88959SOL    HW268775   6.009   5.811   0.069
88960SOL     OW68776  14.219   8.945   8.878
88960SOL    HW168777  14.171   8.872   8.839
88960SOL    HW268778  14.206   8.934   8.972
88961SOL     OW68779   6.477  13.056   4.240
88961SOL    HW168780   6.520  12.986   4.288
88961SOL    HW268781   6.496  13.036   4.148
88962SOL     OW68782  14.158  14.017   9.110
88962SOL    HW168783  14.114  14.058   9.036
88962SOL    HW268784  14.140  14.075   9.184
88963SOL     OW68785   2.975  11.266   3.498
88963SOL    HW168786   3.023  11.208   3.439
88963SOL    HW268787   3.042  11.306   3.553
88964SOL     OW68788   6.425   7.916   8.474
88964SOL    HW168789   6.362   7.895   8.543
88964SOL    HW268790   6.510   7.911   8.518
88965SOL     OW68791   3.529   8.364   8.718
88965SOL    HW168792   3.454   8.407   8.677
88965SOL    HW268793   3.510   8.270   8.709
88966SOL     OW68794   9.094   1.004   1.770
88966SOL    HW168795   9.056   1.057   1.700
88966SOL    HW268796   9.133   0.930   1.724
88967SOL     OW68797   0.515   1.501   3.072
88967SOL    HW168798   0.505   1.415   3.032
88967SOL    HW268799   0.577   1.487   3.144
88968SOL     OW68800   1.765  10.275   0.766
88968SOL    HW168801   1.765  10.283   0.670
88968SOL    HW268802   1.848  10.314   0.793
88969SOL     OW68803   8.629   6.286  11.316
88969SOL    HW168804   8.572   6.357  11.284
88969SOL    HW268805   8.614   6.214  11.255
88970SOL     OW68806   4.407   9.647   0.967
88970SOL    HW168807   4.390   9.573   1.025
88970SOL    HW268808   4.461   9.610   0.897
88971SOL     OW68809   4.832  12.815   4.783
88971SOL    HW168810   4.893  12.744   4.762
88971SOL    HW268811   4.885  12.894   4.778
88972SOL     OW68812  10.913  13.502   3.616
88972SOL    HW168813  10.834  13.534   3.572
88972SOL    HW268814  10.896  13.409   3.630
88973SOL     OW68815   5.059   7.397   3.296
88973SOL    HW168816   5.066   7.302   3.300
88973SOL    HW268817   5.077   7.419   3.205
88974SOL     OW68818   4.592   6.524   1.076
88974SOL    HW168819   4.681   6.508   1.107
88974SOL    HW268820   4.582   6.465   1.001
88975SOL     OW68821  14.178   1.218   1.051
88975SOL    HW168822  14.085   1.214   1.071
88975SOL    HW268823  14.219   1.162   1.117
88976SOL     OW68824  14.280   4.974  14.446
88976SOL    HW168825  14.359   5.002  14.401
88976SOL    HW268826  14.285   4.878  14.446
88977SOL     OW68827   7.134   4.677   5.068
88977SOL    HW168828   7.117   4.735   5.143
88977SOL    HW268829   7.195   4.612   5.102
88978SOL     OW68830  13.992   4.597  11.445
88978SOL    HW168831  13.985   4.690  11.423
88978SOL    HW268832  13.902   4.568  11.457
88979SOL     OW68833   4.911   8.554  11.610
88979SOL    HW168834   4.837   8.591  11.561
88979SOL    HW268835   4.980   8.545  11.544
88980SOL     OW68836   3.118   0.259  14.710
88980SOL    HW168837   3.108   0.310  14.630
88980SOL    HW268838   3.040   0.280  14.762
88981SOL     OW68839   3.014   0.266   7.905
88981SOL    HW168840   3.011   0.359   7.883
88981SOL    HW268841   3.003   0.221   7.822
88982SOL     OW68842   6.758   2.666   8.547
88982SOL    HW168843   6.693   2.597   8.554
88982SOL    HW268844   6.709   2.742   8.515
88983SOL     OW68845   3.197   9.229   4.202
88983SOL    HW168846   3.268   9.239   4.138
88983SOL    HW268847   3.241   9.196   4.281
88984SOL     OW68848   4.528  13.517   4.636
88984SOL    HW168849   4.449  13.510   4.582
88984SOL    HW268850   4.539  13.431   4.675
88985SOL     OW68851   1.133   8.967  14.447
88985SOL    HW168852   1.120   8.912  14.370
88985SOL    HW268853   1.133   9.057  14.414
88986SOL     OW68854   2.396   8.185   1.857
88986SOL    HW168855   2.440   8.241   1.793
88986SOL    HW268856   2.360   8.246   1.921
88987SOL     OW68857   3.890  13.707  12.957
88987SOL    HW168858   3.854  13.688  12.870
88987SOL    HW268859   3.834  13.657  13.017
88988SOL     OW68860   9.118   8.396   2.553
88988SOL    HW168861   9.159   8.481   2.537
88988SOL    HW268862   9.064   8.381   2.476
88989SOL     OW68863  14.464  14.337   5.590
88989SOL    HW168864  14.455  14.367   5.500
88989SOL    HW268865  14.423  14.405   5.643
88990SOL     OW68866   7.829  14.533  11.349
88990SOL    HW168867   7.871  14.549  11.264
88990SOL    HW268868   7.784  14.615  11.369
88991SOL     OW68869   1.843  12.562   5.601
88991SOL    HW168870   1.875  12.547   5.689
88991SOL    HW268871   1.772  12.498   5.591
88992SOL     OW68872   3.238   5.532  10.920
88992SOL    HW168873   3.148   5.501  10.917
88992SOL    HW268874   3.247   5.586  10.841
88993SOL     OW68875   8.446   9.580   6.499
88993SOL    HW168876   8.421   9.502   6.450
88993SOL    HW268877   8.476   9.642   6.433
88994SOL     OW68878   2.037  14.232   9.906
88994SOL    HW168879   2.066  14.167   9.970
88994SOL    HW268880   2.117  14.279   9.881
88995SOL     OW68881   8.985   6.463   5.333
88995SOL    HW168882   9.003   6.436   5.243
88995SOL    HW268883   8.981   6.559   5.329
88996SOL     OW68884  13.865   2.404  12.418
88996SOL    HW168885  13.940   2.346  12.408
88996SOL    HW268886  13.899   2.490  12.393
88997SOL     OW68887  13.708   2.557   5.321
88997SOL    HW168888  13.665   2.496   5.262
88997SOL    HW268889  13.638   2.593   5.375
88998SOL     OW68890   0.461   8.329   2.911
88998SOL    HW168891   0.454   8.235   2.895
88998SOL    HW268892   0.452   8.338   3.006
88999SOL     OW68893  12.530  14.697   3.344
88999SOL    HW168894  12.503  14.619   3.295
88999SOL    HW268895  12.448  14.745   3.360
89000SOL     OW68896   3.255   7.570   3.538
89000SOL    HW168897   3.180   7.511   3.536
89000SOL    HW268898   3.328   7.518   3.504
89001SOL     OW68899   8.968  11.477   6.882
89001SOL    HW168900   8.918  11.556   6.861
89001SOL    HW268901   8.932  11.447   6.965
89002SOL     OW68902   5.379  14.113   5.481
89002SOL    HW168903   5.339  14.155   5.558
89002SOL    HW268904   5.467  14.151   5.477
89003SOL     OW68905  14.348   0.667   3.463
89003SOL    HW168906  14.308   0.654   3.548
89003SOL    HW268907  14.373   0.579   3.434
89004SOL     OW68908   8.465  12.686   8.217
89004SOL    HW168909   8.489  12.779   8.221
89004SOL    HW268910   8.371  12.685   8.230
89005SOL     OW68911  12.257   2.499   0.994
89005SOL    HW168912  12.163   2.514   0.980
89005SOL    HW268913  12.278   2.553   1.070
89006SOL     OW68914  10.970   8.255   9.243
89006SOL    HW168915  10.959   8.161   9.258
89006SOL    HW268916  10.977   8.293   9.331
89007SOL     OW68917  11.216  14.576   6.309
89007SOL    HW168918  11.262  14.497   6.337
89007SOL    HW268919  11.192  14.559   6.218
89008SOL     OW68920  10.079  13.663  13.604
89008SOL    HW168921  10.041  13.584  13.642
89008SOL    HW268922  10.064  13.731  13.670
89009SOL     OW68923  11.954  10.640   3.349
89009SOL    HW168924  11.947  10.606   3.438
89009SOL    HW268925  12.048  10.645   3.332
89010SOL     OW68926   4.235  10.986  11.859
89010SOL    HW168927   4.314  11.032  11.888
89010SOL    HW268928   4.229  10.909  11.915
89011SOL     OW68929  14.019   4.685   9.376
89011SOL    HW168930  13.979   4.743   9.441
89011SOL    HW268931  13.963   4.607   9.377
89012SOL     OW68932  10.996  12.204   1.619
89012SOL    HW168933  10.911  12.217   1.662
89012SOL    HW268934  11.047  12.153   1.681
89013SOL     OW68935   9.206   7.337  14.041
89013SOL    HW168936   9.263   7.360  14.114
89013SOL    HW268937   9.178   7.421  14.004
89014SOL     OW68938  11.078   3.243   0.483
89014SOL    HW168939  11.015   3.184   0.525
89014SOL    HW268940  11.024   3.308   0.438
89015SOL     OW68941   5.853  13.199   0.766
89015SOL    HW168942   5.847  13.263   0.695
89015SOL    HW268943   5.781  13.138   0.750
89016SOL     OW68944  12.053   7.623   3.516
89016SOL    HW168945  12.046   7.702   3.463
89016SOL    HW268946  12.038   7.551   3.454
89017SOL     OW68947   8.812  13.297   0.128
89017SOL    HW168948   8.856  13.212   0.122
89017SOL    HW268949   8.781  13.315   0.040
89018SOL     OW68950   8.767   9.155  13.354
89018SOL    HW168951   8.746   9.118  13.439
89018SOL    HW268952   8.852   9.197  13.366
89019SOL     OW68953   1.578  14.485   5.958
89019SOL    HW168954   1.537  14.407   5.996
89019SOL    HW268955   1.664  14.455   5.930
89020SOL     OW68956  12.191   1.599   8.922
89020SOL    HW168957  12.268   1.656   8.919
89020SOL    HW268958  12.120   1.652   8.884
89021SOL     OW68959  12.490   2.763  12.755
89021SOL    HW168960  12.401   2.735  12.735
89021SOL    HW268961  12.546   2.707  12.702
89022SOL     OW68962   1.922   1.622   4.446
89022SOL    HW168963   1.837   1.650   4.479
89022SOL    HW268964   1.976   1.611   4.525
89023SOL     OW68965  12.629   9.707   2.949
89023SOL    HW168966  12.655   9.796   2.925
89023SOL    HW268967  12.541   9.697   2.913
89024SOL     OW68968   2.051  10.153   2.920
89024SOL    HW168969   2.055  10.090   2.992
89024SOL    HW268970   1.963  10.190   2.926
89025SOL     OW68971   2.208   8.190  12.287
89025SOL    HW168972   2.288   8.213  12.334
89025SOL    HW268973   2.178   8.109  12.329
89026SOL     OW68974   5.617  10.938  11.160
89026SOL    HW168975   5.606  10.885  11.239
89026SOL    HW268976   5.711  10.934  11.141
89027SOL     OW68977  10.899   0.421   8.507
89027SOL    HW168978  10.955   0.445   8.580
89027SOL    HW268979  10.838   0.357   8.543
89028SOL     OW68980  12.249   8.918   0.981
89028SOL    HW168981  12.293   8.979   0.923
89028SOL    HW268982  12.159   8.915   0.950
89029SOL     OW68983  14.129  14.874   0.671
89029SOL    HW168984  14.067   0.020   0.604
89029SOL    HW268985  14.103  14.785   0.695
89030SOL     OW68986   8.956   3.355  12.384
89030SOL    HW168987   8.920   3.267  12.371
89030SOL    HW268988   8.886   3.413  12.353
89031SOL     OW68989   1.811   6.029   0.688
89031SOL    HW168990   1.810   6.109   0.637
89031SOL    HW268991   1.889   5.982   0.659
89032SOL     OW68992   6.564  12.234   1.965
89032SOL    HW168993   6.649  12.272   1.986
89032SOL    HW268994   6.566  12.146   2.003
89033SOL     OW68995  14.217   0.700  12.010
89033SOL    HW168996  14.280   0.639  12.048
89033SOL    HW268997  14.139   0.692  12.065
89034SOL     OW68998   3.961   5.724  12.914
89034SOL    HW168999   3.960   5.785  12.841
89034SOL    HW269000   3.973   5.779  12.991
89035SOL     OW69001   8.196  10.956   3.583
89035SOL    HW169002   8.207  10.861   3.576
89035SOL    HW269003   8.266  10.992   3.528
89036SOL     OW69004   5.745   9.409   0.788
89036SOL    HW169005   5.738   9.451   0.874
89036SOL    HW269006   5.655   9.392   0.762
89037SOL     OW69007   5.946   0.135   6.646
89037SOL    HW169008   6.012   0.099   6.586
89037SOL    HW269009   5.994   0.153   6.727
89038SOL     OW69010   7.459   6.411   0.365
89038SOL    HW169011   7.550   6.387   0.384
89038SOL    HW269012   7.407   6.343   0.407
89039SOL     OW69013   1.584   3.817  12.337
89039SOL    HW169014   1.589   3.902  12.380
89039SOL    HW269015   1.587   3.754  12.409
89040SOL     OW69016   8.947   5.127  12.891
89040SOL    HW169017   9.022   5.071  12.911
89040SOL    HW269018   8.981   5.191  12.829
89041SOL     OW69019   9.593   7.340  11.088
89041SOL    HW169020   9.534   7.388  11.030
89041SOL    HW269021   9.622   7.405  11.152
89042SOL     OW69022  11.843  10.997  10.699
89042SOL    HW169023  11.790  11.076  10.692
89042SOL    HW269024  11.794  10.940  10.758
89043SOL     OW69025   2.889   1.652   4.544
89043SOL    HW169026   2.907   1.594   4.470
89043SOL    HW269027   2.948   1.621   4.613
89044SOL     OW69028   7.260   9.062   2.438
89044SOL    HW169029   7.355   9.052   2.445
89044SOL    HW269030   7.243   9.062   2.343
89045SOL     OW69031   7.589   5.893   9.843
89045SOL    HW169032   7.495   5.879   9.830
89045SOL    HW269033   7.594   5.951   9.919
89046SOL     OW69034   4.667   4.789  11.540
89046SOL    HW169035   4.648   4.696  11.552
89046SOL    HW269036   4.657   4.803  11.446
89047SOL     OW69037  13.351  10.284   1.153
89047SOL    HW169038  13.258  10.296   1.131
89047SOL    HW269039  13.372  10.358   1.209
89048SOL     OW69040   5.230  10.943  14.581
89048SOL    HW169041   5.315  10.972  14.546
89048SOL    HW269042   5.241  10.849  14.596
89049SOL     OW69043   3.848  14.115   0.336
89049SOL    HW169044   3.845  14.053   0.409
89049SOL    HW269045   3.887  14.194   0.374
89050SOL     OW69046  11.091  11.247   2.470
89050SOL    HW169047  11.038  11.193   2.412
89050SOL    HW269048  11.062  11.337   2.453
89051SOL     OW69049   9.768   7.606  13.029
89051SOL    HW169050   9.749   7.688  13.075
89051SOL    HW269051   9.684   7.582  12.989
89052SOL     OW69052  12.299  10.894   6.938
89052SOL    HW169053  12.347  10.897   7.022
89052SOL    HW269054  12.239  10.820   6.948
89053SOL     OW69055   1.424   3.756   8.443
89053SOL    HW169056   1.518   3.771   8.444
89053SOL    HW269057   1.389   3.815   8.510
89054SOL     OW69058  11.293   1.007   5.704
89054SOL    HW169059  11.309   0.969   5.617
89054SOL    HW269060  11.325   0.941   5.765
89055SOL     OW69061   0.397   8.472   4.787
89055SOL    HW169062   0.478   8.427   4.809
89055SOL    HW269063   0.378   8.526   4.864
89056SOL     OW69064   1.706   7.195   8.637
89056SOL    HW169065   1.686   7.133   8.707
89056SOL    HW269066   1.793   7.228   8.659
89057SOL     OW69067   2.603   0.611   2.297
89057SOL    HW169068   2.591   0.706   2.298
89057SOL    HW269069   2.691   0.598   2.333
89058SOL     OW69070  13.995  11.026   4.603
89058SOL    HW169071  14.051  10.971   4.549
89058SOL    HW269072  13.997  10.985   4.689
89059SOL     OW69073  14.117  11.693   1.192
89059SOL    HW169074  14.042  11.707   1.134
89059SOL    HW269075  14.141  11.781   1.222
89060SOL     OW69076  11.288   8.854   0.940
89060SOL    HW169077  11.361   8.805   0.980
89060SOL    HW269078  11.249   8.791   0.879
89061SOL     OW69079  10.271   5.954   3.459
89061SOL    HW169080  10.180   5.939   3.434
89061SOL    HW269081  10.296   5.877   3.509
89062SOL     OW69082  14.655  11.408  14.272
89062SOL    HW169083  14.632  11.315  14.262
89062SOL    HW269084  14.620  11.450  14.193
89063SOL     OW69085   2.480   9.983   8.440
89063SOL    HW169086   2.410   9.937   8.487
89063SOL    HW269087   2.560   9.938   8.467
89064SOL     OW69088   0.952   2.863   7.494
89064SOL    HW169089   0.980   2.936   7.440
89064SOL    HW269090   0.994   2.786   7.456
89065SOL     OW69091   4.074   6.927   0.093
89065SOL    HW169092   4.135   6.872   0.043
89065SOL    HW269093   4.075   6.890   0.181
89066SOL     OW69094  11.566  11.806  10.597
89066SOL    HW169095  11.563  11.901  10.589
89066SOL    HW269096  11.556  11.790  10.691
89067SOL     OW69097  12.034  10.537  14.349
89067SOL    HW169098  12.101  10.470  14.360
89067SOL    HW269099  12.068  10.614  14.394
89068SOL     OW69100  10.298   3.055  12.316
89068SOL    HW169101  10.308   3.147  12.289
89068SOL    HW269102  10.385   3.029  12.345
89069SOL     OW69103   9.462  13.179   0.201
89069SOL    HW169104   9.406  13.246   0.241
89069SOL    HW269105   9.538  13.227   0.170
89070SOL     OW69106   4.720  13.880   0.241
89070SOL    HW169107   4.634  13.921   0.236
89070SOL    HW269108   4.702  13.792   0.274
89071SOL     OW69109  14.785  12.046   8.239
89071SOL    HW169110  14.730  12.028   8.315
89071SOL    HW269111  14.868  12.002   8.258
89072SOL     OW69112   7.807   4.727   3.964
89072SOL    HW169113   7.872   4.658   3.973
89072SOL    HW269114   7.738   4.703   4.026
89073SOL     OW69115  11.059   6.860   1.796
89073SOL    HW169116  11.132   6.801   1.816
89073SOL    HW269117  10.981   6.814   1.828
89074SOL     OW69118   2.368   0.205   7.698
89074SOL    HW169119   2.293   0.259   7.672
89074SOL    HW269120   2.372   0.215   7.793
89075SOL     OW69121  11.000   3.399   5.596
89075SOL    HW169122  11.090   3.397   5.631
89075SOL    HW269123  10.962   3.317   5.625
89076SOL     OW69124   8.832   9.847  11.632
89076SOL    HW169125   8.777   9.783  11.676
89076SOL    HW269126   8.917   9.839  11.675
89077SOL     OW69127  13.036   6.062   3.140
89077SOL    HW169128  13.022   5.987   3.198
89077SOL    HW269129  13.036   6.138   3.198
89078SOL     OW69130   0.837  11.543   2.132
89078SOL    HW169131   0.896  11.534   2.207
89078SOL    HW269132   0.792  11.458   2.128
89079SOL     OW69133   7.062   6.329   7.240
89079SOL    HW169134   7.145   6.376   7.252
89079SOL    HW269135   7.037   6.348   7.150
89080SOL     OW69136   5.820   2.125   2.910
89080SOL    HW169137   5.809   2.041   2.954
89080SOL    HW269138   5.775   2.188   2.966
89081SOL     OW69139  10.197   6.844  14.829
89081SOL    HW169140  10.186   6.892   0.031
89081SOL    HW269141  10.248   6.903  14.774
89082SOL     OW69142   4.373   4.717   6.194
89082SOL    HW169143   4.361   4.723   6.289
89082SOL    HW269144   4.366   4.624   6.174
89083SOL     OW69145   9.182  12.786   8.504
89083SOL    HW169146   9.117  12.812   8.570
89083SOL    HW269147   9.266  12.796   8.548
89084SOL     OW69148   3.307   8.227   0.373
89084SOL    HW169149   3.357   8.298   0.414
89084SOL    HW269150   3.357   8.203   0.296
89085SOL     OW69151   1.666   7.738   3.440
89085SOL    HW169152   1.623   7.814   3.480
89085SOL    HW269153   1.756   7.742   3.471
89086SOL     OW69154  11.933  10.006   3.596
89086SOL    HW169155  12.027  10.020   3.611
89086SOL    HW269156  11.914   9.924   3.642
89087SOL     OW69157  13.949  14.264  13.219
89087SOL    HW169158  13.924  14.177  13.251
89087SOL    HW269159  13.893  14.277  13.142
89088SOL     OW69160  11.546   9.393  12.581
89088SOL    HW169161  11.528   9.378  12.489
89088SOL    HW269162  11.597   9.317  12.609
89089SOL     OW69163   1.921   4.973  12.428
89089SOL    HW169164   1.994   4.925  12.465
89089SOL    HW269165   1.857   4.905  12.405
89090SOL     OW69166   0.559  13.404   2.099
89090SOL    HW169167   0.513  13.485   2.121
89090SOL    HW269168   0.633  13.402   2.159
89091SOL     OW69169   6.484   1.725   0.085
89091SOL    HW169170   6.457   1.793   0.147
89091SOL    HW269171   6.553   1.677   0.131
89092SOL     OW69172   7.884  11.206   8.723
89092SOL    HW169173   7.799  11.236   8.756
89092SOL    HW269174   7.885  11.234   8.631
89093SOL     OW69175   0.233   5.729  14.296
89093SOL    HW169176   0.317   5.685  14.306
89093SOL    HW269177   0.233   5.797  14.364
89094SOL     OW69178  10.383   4.076  13.982
89094SOL    HW169179  10.446   4.022  13.934
89094SOL    HW269180  10.353   4.141  13.918
89095SOL     OW69181  11.410   9.437   8.958
89095SOL    HW169182  11.351   9.375   8.914
89095SOL    HW269183  11.358   9.469   9.032
89096SOL     OW69184   6.032  10.798  12.858
89096SOL    HW169185   6.001  10.797  12.767
89096SOL    HW269186   5.952  10.799  12.911
89097SOL     OW69187   6.883  12.716   4.328
89097SOL    HW169188   6.970  12.730   4.365
89097SOL    HW269189   6.874  12.621   4.320
89098SOL     OW69190   8.280   3.420   6.651
89098SOL    HW169191   8.215   3.457   6.711
89098SOL    HW269192   8.327   3.496   6.617
89099SOL     OW69193   1.774   1.745  12.349
89099SOL    HW169194   1.867   1.744  12.369
89099SOL    HW269195   1.768   1.787  12.263
89100SOL     OW69196  11.482   5.542   4.510
89100SOL    HW169197  11.540   5.590   4.570
89100SOL    HW269198  11.497   5.582   4.425
89101SOL     OW69199  10.399   7.347  12.736
89101SOL    HW169200  10.390   7.278  12.803
89101SOL    HW269201  10.312   7.386  12.732
89102SOL     OW69202   6.333   6.550   0.580
89102SOL    HW169203   6.322   6.594   0.496
89102SOL    HW269204   6.333   6.457   0.558
89103SOL     OW69205   7.475   8.429   3.759
89103SOL    HW169206   7.494   8.404   3.849
89103SOL    HW269207   7.384   8.403   3.745
89104SOL     OW69208  13.442   0.573  10.780
89104SOL    HW169209  13.401   0.602  10.862
89104SOL    HW269210  13.527   0.538  10.806
89105SOL     OW69211  12.208   2.139   9.293
89105SOL    HW169212  12.301   2.123   9.274
89105SOL    HW269213  12.183   2.207   9.230
89106SOL     OW69214   3.930   4.714   3.772
89106SOL    HW169215   3.923   4.705   3.677
89106SOL    HW269216   3.943   4.808   3.786
89107SOL     OW69217  10.946   7.688   4.318
89107SOL    HW169218  11.016   7.741   4.356
89107SOL    HW269219  10.933   7.726   4.230
89108SOL     OW69220   8.862  13.708   6.386
89108SOL    HW169221   8.885  13.706   6.293
89108SOL    HW269222   8.931  13.657   6.429
89109SOL     OW69223   0.728   6.457  11.354
89109SOL    HW169224   0.697   6.413  11.275
89109SOL    HW269225   0.820   6.477  11.335
89110SOL     OW69226   1.220   6.480   2.020
89110SOL    HW169227   1.242   6.571   2.036
89110SOL    HW269228   1.231   6.469   1.925
89111SOL     OW69229   3.872   4.240   9.388
89111SOL    HW169230   3.898   4.277   9.473
89111SOL    HW269231   3.903   4.150   9.391
89112SOL     OW69232  11.570   2.252   5.003
89112SOL    HW169233  11.552   2.196   5.079
89112SOL    HW269234  11.641   2.309   5.032
89113SOL     OW69235   4.746   3.412  10.082
89113SOL    HW169236   4.701   3.340  10.038
89113SOL    HW269237   4.686   3.439  10.151
89114SOL     OW69238  14.793  10.308   0.591
89114SOL    HW169239  14.707  10.273   0.615
89114SOL    HW269240  14.789  10.317   0.496
89115SOL     OW69241  14.627   7.837   7.020
89115SOL    HW169242  14.563   7.767   7.034
89115SOL    HW269243  14.577   7.918   7.031
89116SOL     OW69244   3.700   8.332   2.470
89116SOL    HW169245   3.738   8.244   2.464
89116SOL    HW269246   3.755   8.377   2.534
89117SOL     OW69247   7.539   9.345   3.307
89117SOL    HW169248   7.453   9.383   3.324
89117SOL    HW269249   7.522   9.251   3.300
89118SOL     OW69250   4.304   3.937   8.106
89118SOL    HW169251   4.295   3.866   8.170
89118SOL    HW269252   4.375   3.908   8.049
89119SOL     OW69253  10.476  10.212  10.589
89119SOL    HW169254  10.494  10.306  10.590
89119SOL    HW269255  10.520  10.178  10.667
89120SOL     OW69256  12.042   0.603   3.867
89120SOL    HW169257  12.054   0.685   3.819
89120SOL    HW269258  11.977   0.623   3.934
89121SOL     OW69259   2.209   0.328   1.695
89121SOL    HW169260   2.173   0.375   1.771
89121SOL    HW269261   2.138   0.331   1.631
89122SOL     OW69262   3.352   4.670   9.253
89122SOL    HW169263   3.260   4.695   9.247
89122SOL    HW269264   3.393   4.740   9.303
89123SOL     OW69265  10.130   1.424   4.881
89123SOL    HW169266  10.209   1.379   4.910
89123SOL    HW269267  10.160   1.508   4.848
89124SOL     OW69268   0.173   7.229   0.590
89124SOL    HW169269   0.256   7.184   0.572
89124SOL    HW269270   0.112   7.192   0.526
89125SOL     OW69271   8.427   2.285  12.020
89125SOL    HW169272   8.466   2.354  12.074
89125SOL    HW269273   8.333   2.297  12.031
89126SOL     OW69274   1.761   9.777   0.299
89126SOL    HW169275   1.764   9.865   0.336
89126SOL    HW269276   1.738   9.791   0.207
89127SOL     OW69277   6.232   6.500   1.728
89127SOL    HW169278   6.317   6.489   1.686
89127SOL    HW269279   6.208   6.591   1.710
89128SOL     OW69280  10.186   7.115   7.903
89128SOL    HW169281  10.268   7.155   7.930
89128SOL    HW269282  10.137   7.186   7.862
89129SOL     OW69283   7.513  13.575   2.443
89129SOL    HW169284   7.579  13.631   2.483
89129SOL    HW269285   7.431  13.623   2.454
89130SOL     OW69286  10.975   3.243   9.622
89130SOL    HW169287  10.988   3.215   9.531
89130SOL    HW269288  10.880   3.240   9.635
89131SOL     OW69289   2.423  10.626   9.731
89131SOL    HW169290   2.399  10.613   9.823
89131SOL    HW269291   2.485  10.699   9.733
89132SOL     OW69292   3.784  13.843  13.381
89132SOL    HW169293   3.703  13.809  13.345
89132SOL    HW269294   3.853  13.806  13.326
89133SOL     OW69295  13.538   1.007   8.881
89133SOL    HW169296  13.475   1.073   8.910
89133SOL    HW269297  13.617   1.024   8.932
89134SOL     OW69298   3.194   8.953  10.602
89134SOL    HW169299   3.126   8.890  10.626
89134SOL    HW269300   3.223   8.991  10.685
89135SOL     OW69301  13.322  11.543  11.707
89135SOL    HW169302  13.249  11.568  11.649
89135SOL    HW269303  13.328  11.616  11.769
89136SOL     OW69304   2.046   6.972   2.556
89136SOL    HW169305   1.979   7.039   2.571
89136SOL    HW269306   2.005   6.891   2.588
89137SOL     OW69307   1.784   3.448  13.781
89137SOL    HW169308   1.831   3.425  13.700
89137SOL    HW269309   1.796   3.542  13.789
89138SOL     OW69310   4.683   0.312   1.575
89138SOL    HW169311   4.661   0.399   1.540
89138SOL    HW269312   4.632   0.251   1.521
89139SOL     OW69313   5.201   0.446  12.548
89139SOL    HW169314   5.171   0.453  12.457
89139SOL    HW269315   5.252   0.364  12.550
89140SOL     OW69316   3.537  14.080   3.072
89140SOL    HW169317   3.621  14.034   3.078
89140SOL    HW269318   3.557  14.171   3.093
89141SOL     OW69319  14.568   5.731  11.133
89141SOL    HW169320  14.576   5.826  11.144
89141SOL    HW269321  14.473   5.716  11.125
89142SOL     OW69322   6.158   8.227  13.283
89142SOL    HW169323   6.081   8.195  13.330
89142SOL    HW269324   6.171   8.164  13.212
89143SOL     OW69325   9.224  10.013   1.672
89143SOL    HW169326   9.179  10.039   1.752
89143SOL    HW269327   9.161   9.957   1.627
89144SOL     OW69328  12.690  14.796   2.163
89144SOL    HW169329  12.597  14.806   2.145
89144SOL    HW269330  12.699  14.818   2.256
89145SOL     OW69331  13.303   6.758   9.188
89145SOL    HW169332  13.209   6.745   9.172
89145SOL    HW269333  13.307   6.834   9.245
89146SOL     OW69334   0.868   4.308  13.613
89146SOL    HW169335   0.927   4.359  13.668
89146SOL    HW269336   0.783   4.351  13.621
89147SOL     OW69337   5.056   2.518   9.653
89147SOL    HW169338   5.054   2.564   9.569
89147SOL    HW269339   5.092   2.431   9.632
89148SOL     OW69340   0.718  11.421   1.474
89148SOL    HW169341   0.797  11.399   1.424
89148SOL    HW269342   0.696  11.341   1.521
89149SOL     OW69343  11.797   9.850   3.206
89149SOL    HW169344  11.845   9.925   3.243
89149SOL    HW269345  11.864   9.798   3.163
89150SOL     OW69346   3.596   0.864  10.281
89150SOL    HW169347   3.533   0.936  10.280
89150SOL    HW269348   3.617   0.849  10.189
89151SOL     OW69349   2.504  10.362   8.618
89151SOL    HW169350   2.567  10.322   8.678
89151SOL    HW269351   2.432  10.391   8.674
89152SOL     OW69352   8.075  11.297   2.981
89152SOL    HW169353   7.995  11.280   2.931
89152SOL    HW269354   8.061  11.252   3.065
89153SOL     OW69355   8.966  10.966   5.085
89153SOL    HW169356   8.922  10.934   5.007
89153SOL    HW269357   8.921  11.047   5.107
89154SOL     OW69358   7.497   1.097   8.279
89154SOL    HW169359   7.462   1.186   8.288
89154SOL    HW269360   7.434   1.051   8.224
89155SOL     OW69361   4.885   7.074   6.864
89155SOL    HW169362   4.865   7.153   6.914
89155SOL    HW269363   4.885   7.004   6.929
89156SOL     OW69364  12.777   8.718   5.201
89156SOL    HW169365  12.769   8.663   5.278
89156SOL    HW269366  12.691   8.759   5.191
89157SOL     OW69367   6.211   5.405   4.995
89157SOL    HW169368   6.154   5.448   5.059
89157SOL    HW269369   6.150   5.368   4.930
89158SOL     OW69370  11.321   3.538   9.266
89158SOL    HW169371  11.295   3.612   9.211
89158SOL    HW269372  11.287   3.558   9.353
89159SOL     OW69373   7.468   8.702   3.197
89159SOL    HW169374   7.436   8.630   3.251
89159SOL    HW269375   7.530   8.749   3.253
89160SOL     OW69376   4.612  14.842  13.931
89160SOL    HW169377   4.568  14.868  13.850
89160SOL    HW269378   4.677  14.778  13.903
89161SOL     OW69379  11.785  12.022  14.820
89161SOL    HW169380  11.793  11.975  14.736
89161SOL    HW269381  11.835  12.102  14.808
89162SOL     OW69382   6.803  12.314   2.075
89162SOL    HW169383   6.859  12.343   2.003
89162SOL    HW269384   6.850  12.239   2.113
89163SOL     OW69385   0.420   5.171   2.876
89163SOL    HW169386   0.454   5.232   2.811
89163SOL    HW269387   0.333   5.148   2.845
89164SOL     OW69388   2.816   6.904   5.554
89164SOL    HW169389   2.799   6.964   5.481
89164SOL    HW269390   2.901   6.931   5.588
89165SOL     OW69391   1.085   4.362   4.501
89165SOL    HW169392   1.156   4.343   4.561
89165SOL    HW269393   1.027   4.286   4.507
89166SOL     OW69394   8.480   5.283  14.401
89166SOL    HW169395   8.407   5.290  14.339
89166SOL    HW269396   8.445   5.317  14.483
89167SOL     OW69397   7.469   9.576   6.807
89167SOL    HW169398   7.515   9.631   6.744
89167SOL    HW269399   7.377   9.600   6.797
89168SOL     OW69400   6.417  14.877  14.411
89168SOL    HW169401   6.415   0.030  14.321
89168SOL    HW269402   6.494  14.820  14.414
89169SOL     OW69403   2.508   0.681   4.037
89169SOL    HW169404   2.474   0.734   4.108
89169SOL    HW269405   2.602   0.697   4.038
89170SOL     OW69406   2.871   1.348  12.984
89170SOL    HW169407   2.874   1.429  12.933
89170SOL    HW269408   2.842   1.375  13.071
89171SOL     OW69409   7.431   4.565  12.687
89171SOL    HW169410   7.501   4.580  12.624
89171SOL    HW269411   7.353   4.601  12.645
89172SOL     OW69412   5.722   5.527   3.636
89172SOL    HW169413   5.739   5.462   3.705
89172SOL    HW269414   5.765   5.491   3.558
89173SOL     OW69415   3.653  10.127  12.963
89173SOL    HW169416   3.712  10.052  12.958
89173SOL    HW269417   3.699  10.197  12.916
89174SOL     OW69418   3.260  11.825  13.293
89174SOL    HW169419   3.299  11.811  13.207
89174SOL    HW269420   3.265  11.919  13.307
89175SOL     OW69421  10.830   9.471   1.934
89175SOL    HW169422  10.796   9.392   1.892
89175SOL    HW269423  10.765   9.493   2.001
89176SOL     OW69424   8.587   0.622   9.179
89176SOL    HW169425   8.532   0.627   9.100
89176SOL    HW269426   8.643   0.546   9.163
89177SOL     OW69427  14.781  13.005   5.446
89177SOL    HW169428  14.838  13.071   5.484
89177SOL    HW269429  14.829  12.923   5.457
89178SOL     OW69430   8.128   8.480  10.947
89178SOL    HW169431   8.201   8.449  11.000
89178SOL    HW269432   8.108   8.407  10.888
89179SOL     OW69433   3.804   3.103   7.080
89179SOL    HW169434   3.859   3.179   7.064
89179SOL    HW269435   3.758   3.089   6.997
89180SOL     OW69436  14.733   7.257  14.145
89180SOL    HW169437  14.703   7.271  14.055
89180SOL    HW269438  14.828   7.242  14.137
89181SOL     OW69439   7.370  11.737   1.384
89181SOL    HW169440   7.409  11.651   1.400
89181SOL    HW269441   7.276  11.723   1.397
89182SOL     OW69442  13.263   2.270  13.816
89182SOL    HW169443  13.292   2.178  13.819
89182SOL    HW269444  13.343   2.320  13.800
89183SOL     OW69445   8.196   0.701   2.891
89183SOL    HW169446   8.104   0.698   2.917
89183SOL    HW269447   8.211   0.619   2.845
89184SOL     OW69448   5.772   1.088  13.321
89184SOL    HW169449   5.796   1.147  13.250
89184SOL    HW269450   5.706   1.137  13.371
89185SOL     OW69451   6.192   0.204  11.961
89185SOL    HW169452   6.287   0.195  11.956
89185SOL    HW269453   6.163   0.128  12.012
89186SOL     OW69454   9.311   1.089   8.534
89186SOL    HW169455   9.317   1.033   8.456
89186SOL    HW269456   9.268   1.169   8.503
89187SOL     OW69457  11.843   1.514   9.187
89187SOL    HW169458  11.754   1.527   9.154
89187SOL    HW269459  11.854   1.581   9.254
89188SOL     OW69460   3.030   8.214   3.258
89188SOL    HW169461   2.980   8.142   3.219
89188SOL    HW269462   3.057   8.267   3.183
89189SOL     OW69463  14.858  13.124   5.737
89189SOL    HW169464  14.846  13.213   5.706
89189SOL    HW269465   0.063  13.097   5.700
89190SOL     OW69466  10.865   2.507  14.056
89190SOL    HW169467  10.838   2.566  13.986
89190SOL    HW269468  10.791   2.448  14.068
89191SOL     OW69469   1.192  10.392   8.615
89191SOL    HW169470   1.231  10.469   8.656
89191SOL    HW269471   1.202  10.322   8.679
89192SOL     OW69472  12.330  12.874  11.732
89192SOL    HW169473  12.350  12.931  11.659
89192SOL    HW269474  12.406  12.880  11.789
89193SOL     OW69475  10.063   7.916   7.055
89193SOL    HW169476   9.980   7.879   7.084
89193SOL    HW269477  10.074   7.884   6.966
89194SOL     OW69478   0.398   5.973   6.142
89194SOL    HW169479   0.408   5.898   6.083
89194SOL    HW269480   0.470   6.031   6.118
89195SOL     OW69481   3.994  10.219  13.245
89195SOL    HW169482   4.074  10.204  13.294
89195SOL    HW269483   4.018  10.202  13.154
89196SOL     OW69484  13.867   1.973   6.162
89196SOL    HW169485  13.946   1.934   6.126
89196SOL    HW269486  13.879   1.968   6.257
89197SOL     OW69487   5.229   7.832   4.682
89197SOL    HW169488   5.169   7.842   4.755
89197SOL    HW269489   5.315   7.823   4.722
89198SOL     OW69490  12.092  10.220   4.365
89198SOL    HW169491  12.095  10.294   4.305
89198SOL    HW269492  12.108  10.259   4.451
89199SOL     OW69493  12.409   4.290   3.024
89199SOL    HW169494  12.389   4.263   2.935
89199SOL    HW269495  12.501   4.265   3.037
89200SOL     OW69496   5.315   3.615   7.801
89200SOL    HW169497   5.310   3.697   7.850
89200SOL    HW269498   5.226   3.581   7.801
89201SOL     OW69499   1.230   6.804  11.108
89201SOL    HW169500   1.308   6.852  11.136
89201SOL    HW269501   1.264   6.724  11.067
89202SOL     OW69502  13.224   3.021   2.567
89202SOL    HW169503  13.269   2.988   2.489
89202SOL    HW269504  13.262   3.108   2.581
89203SOL     OW69505   4.111  13.928  13.511
89203SOL    HW169506   4.085  14.006  13.462
89203SOL    HW269507   4.103  13.856  13.448
89204SOL     OW69508   1.852   8.665   7.391
89204SOL    HW169509   1.866   8.742   7.336
89204SOL    HW269510   1.804   8.698   7.467
89205SOL     OW69511   5.162  13.847  12.081
89205SOL    HW169512   5.248  13.834  12.040
89205SOL    HW269513   5.183  13.867  12.172
89206SOL     OW69514   4.218   4.945  14.475
89206SOL    HW169515   4.233   4.887  14.549
89206SOL    HW269516   4.212   5.033  14.514
89207SOL     OW69517   4.634  10.866   4.818
89207SOL    HW169518   4.622  10.792   4.758
89207SOL    HW269519   4.724  10.894   4.804
89208SOL     OW69520  11.262   6.344   3.201
89208SOL    HW169521  11.228   6.315   3.286
89208SOL    HW269522  11.352   6.310   3.198
89209SOL     OW69523   7.795  14.027  12.303
89209SOL    HW169524   7.822  14.049  12.214
89209SOL    HW269525   7.874  14.036  12.356
89210SOL     OW69526   7.548   1.699   7.390
89210SOL    HW169527   7.482   1.651   7.441
89210SOL    HW269528   7.506   1.715   7.306
89211SOL     OW69529  10.000   9.248   7.271
89211SOL    HW169530  10.059   9.247   7.195
89211SOL    HW269531   9.997   9.157   7.299
89212SOL     OW69532   9.826   0.079   9.910
89212SOL    HW169533   9.861   0.017   9.847
89212SOL    HW269534   9.903   0.124   9.944
89213SOL     OW69535   5.972   9.913  13.168
89213SOL    HW169536   5.996   9.948  13.254
89213SOL    HW269537   6.054   9.913  13.118
89214SOL     OW69538  11.804   6.501   8.323
89214SOL    HW169539  11.713   6.471   8.332
89214SOL    HW269540  11.821   6.550   8.404
89215SOL     OW69541  11.129  13.679  12.420
89215SOL    HW169542  11.114  13.756  12.475
89215SOL    HW269543  11.044  13.659  12.381
89216SOL     OW69544  12.396   5.618  10.573
89216SOL    HW169545  12.398   5.705  10.613
89216SOL    HW269546  12.434   5.560  10.639
89217SOL     OW69547  13.031  12.414  13.965
89217SOL    HW169548  13.071  12.426  14.052
89217SOL    HW269549  13.025  12.319  13.955
89218SOL     OW69550  14.522   3.930   1.341
89218SOL    HW169551  14.489   4.019   1.334
89218SOL    HW269552  14.444   3.875   1.338
89219SOL     OW69553   2.469   9.481  13.110
89219SOL    HW169554   2.380   9.474  13.075
89219SOL    HW269555   2.475   9.571  13.142
89220SOL     OW69556  12.651   0.879   4.540
89220SOL    HW169557  12.677   0.904   4.451
89220SOL    HW269558  12.655   0.960   4.590
89221SOL     OW69559   2.129  11.187   7.184
89221SOL    HW169560   2.086  11.136   7.253
89221SOL    HW269561   2.211  11.141   7.168
89222SOL     OW69562  11.799  13.263   6.135
89222SOL    HW169563  11.894  13.276   6.126
89222SOL    HW269564  11.783  13.262   6.229
89223SOL     OW69565  11.879  12.132   7.481
89223SOL    HW169566  11.849  12.051   7.440
89223SOL    HW269567  11.958  12.156   7.433
89224SOL     OW69568   4.154   3.658   1.806
89224SOL    HW169569   4.135   3.571   1.841
89224SOL    HW269570   4.249   3.658   1.792
89225SOL     OW69571   0.403   7.210   8.667
89225SOL    HW169572   0.380   7.117   8.666
89225SOL    HW269573   0.339   7.250   8.727
89226SOL     OW69574   2.919   5.561   3.831
89226SOL    HW169575   2.835   5.595   3.861
89226SOL    HW269576   2.982   5.628   3.858
89227SOL     OW69577   9.492   1.074  12.115
89227SOL    HW169578   9.462   0.984  12.124
89227SOL    HW269579   9.448   1.106  12.037
89228SOL     OW69580   6.299   1.200   5.897
89228SOL    HW169581   6.281   1.124   5.951
89228SOL    HW269582   6.375   1.176   5.845
89229SOL     OW69583  12.543  11.433  13.504
89229SOL    HW169584  12.613  11.368  13.510
89229SOL    HW269585  12.503  11.417  13.418
89230SOL     OW69586   6.225   1.746  14.634
89230SOL    HW169587   6.284   1.708  14.570
89230SOL    HW269588   6.140   1.706  14.615
89231SOL     OW69589   5.380  14.044   2.946
89231SOL    HW169590   5.393  13.950   2.932
89231SOL    HW269591   5.287  14.052   2.967
89232SOL     OW69592  10.053   0.430  11.147
89232SOL    HW169593   9.982   0.418  11.210
89232SOL    HW269594  10.058   0.524  11.133
89233SOL     OW69595   0.597  13.187  11.128
89233SOL    HW169596   0.513  13.195  11.084
89233SOL    HW269597   0.603  13.264  11.184
89234SOL     OW69598  12.876  13.505   3.541
89234SOL    HW169599  12.879  13.495   3.636
89234SOL    HW269600  12.948  13.450   3.510
89235SOL     OW69601  10.403   5.301   0.398
89235SOL    HW169602  10.459   5.253   0.459
89235SOL    HW269603  10.444   5.287   0.312
89236SOL     OW69604   1.678   9.934  12.494
89236SOL    HW169605   1.610   9.941  12.561
89236SOL    HW269606   1.656   9.854  12.446
89237SOL     OW69607   6.750   2.019   8.019
89237SOL    HW169608   6.685   1.961   8.058
89237SOL    HW269609   6.763   2.089   8.084
89238SOL     OW69610  13.931   7.528   4.529
89238SOL    HW169611  13.903   7.614   4.497
89238SOL    HW269612  13.947   7.477   4.450
89239SOL     OW69613   2.884   4.499   4.879
89239SOL    HW169614   2.914   4.580   4.837
89239SOL    HW269615   2.946   4.432   4.850
89240SOL     OW69616  10.877   2.458   2.147
89240SOL    HW169617  10.813   2.402   2.102
89240SOL    HW269618  10.957   2.405   2.149
89241SOL     OW69619   3.682  11.382   7.779
89241SOL    HW169620   3.710  11.317   7.714
89241SOL    HW269621   3.744  11.373   7.851
89242SOL     OW69622  10.497   7.262   5.396
89242SOL    HW169623  10.439   7.235   5.467
89242SOL    HW269624  10.561   7.320   5.438
89243SOL     OW69625   7.307   1.676   4.226
89243SOL    HW169626   7.374   1.707   4.286
89243SOL    HW269627   7.260   1.755   4.199
89244SOL     OW69628   9.416   5.298   7.516
89244SOL    HW169629   9.375   5.219   7.481
89244SOL    HW269630   9.403   5.364   7.447
89245SOL     OW69631   8.890   3.339   8.993
89245SOL    HW169632   8.821   3.369   8.934
89245SOL    HW269633   8.850   3.265   9.040
89246SOL     OW69634  13.505   9.273   3.845
89246SOL    HW169635  13.594   9.253   3.818
89246SOL    HW269636  13.513   9.351   3.900
89247SOL     OW69637  12.495  14.150  12.501
89247SOL    HW169638  12.425  14.210  12.476
89247SOL    HW269639  12.564  14.206  12.536
89248SOL     OW69640  14.367   4.748   2.199
89248SOL    HW169641  14.443   4.727   2.252
89248SOL    HW269642  14.352   4.842   2.213
89249SOL     OW69643  12.698   2.247   0.337
89249SOL    HW169644  12.722   2.224   0.427
89249SOL    HW269645  12.773   2.218   0.285
89250SOL     OW69646  11.612   0.174  13.236
89250SOL    HW169647  11.631   0.116  13.309
89250SOL    HW269648  11.691   0.174  13.183
89251SOL     OW69649  11.283   2.315   9.443
89251SOL    HW169650  11.221   2.253   9.479
89251SOL    HW269651  11.229   2.387   9.409
89252SOL     OW69652   6.227  13.591   6.417
89252SOL    HW169653   6.303  13.629   6.373
89252SOL    HW269654   6.248  13.598   6.511
89253SOL     OW69655  12.781   8.339   4.054
89253SOL    HW169656  12.706   8.355   4.112
89253SOL    HW269657  12.763   8.252   4.017
89254SOL     OW69658  11.868  12.354   8.435
89254SOL    HW169659  11.927  12.368   8.362
89254SOL    HW269660  11.912  12.393   8.510
89255SOL     OW69661   7.893   8.760   6.294
89255SOL    HW169662   7.851   8.677   6.274
89255SOL    HW269663   7.874   8.775   6.387
89256SOL     OW69664  13.275   9.606  13.859
89256SOL    HW169665  13.361   9.586  13.897
89256SOL    HW269666  13.213   9.562  13.916
89257SOL     OW69667  13.721  11.985  11.565
89257SOL    HW169668  13.814  12.007  11.569
89257SOL    HW269669  13.701  11.948  11.651
89258SOL     OW69670   3.699  12.872   6.119
89258SOL    HW169671   3.772  12.810   6.120
89258SOL    HW269672   3.691  12.899   6.210
89259SOL     OW69673  14.083   8.127   4.863
89259SOL    HW169674  14.039   8.145   4.780
89259SOL    HW269675  14.024   8.162   4.930
89260SOL     OW69676   8.634   0.974   7.527
89260SOL    HW169677   8.623   0.966   7.432
89260SOL    HW269678   8.636   0.884   7.559
89261SOL     OW69679   7.107   6.741   8.259
89261SOL    HW169680   7.180   6.796   8.230
89261SOL    HW269681   7.088   6.685   8.184
89262SOL     OW69682  12.180   0.193  11.159
89262SOL    HW169683  12.222   0.107  11.156
89262SOL    HW269684  12.253   0.255  11.149
89263SOL     OW69685   6.452  10.260  10.644
89263SOL    HW169686   6.450  10.353  10.621
89263SOL    HW269687   6.471  10.215  10.562
89264SOL     OW69688   3.303   2.741   9.253
89264SOL    HW169689   3.381   2.704   9.295
89264SOL    HW269690   3.230   2.700   9.299
89265SOL     OW69691   8.515   5.487  14.155
89265SOL    HW169692   8.420   5.476  14.163
89265SOL    HW269693   8.545   5.498  14.245
89266SOL     OW69694   7.549  12.819   2.440
89266SOL    HW169695   7.508  12.836   2.355
89266SOL    HW269696   7.475  12.808   2.500
89267SOL     OW69697  13.268  13.391   1.476
89267SOL    HW169698  13.350  13.409   1.522
89267SOL    HW269699  13.213  13.467   1.496
89268SOL     OW69700   7.169   9.376   0.496
89268SOL    HW169701   7.234   9.309   0.475
89268SOL    HW269702   7.215   9.438   0.552
89269SOL     OW69703   5.029   9.385  12.806
89269SOL    HW169704   4.951   9.424  12.765
89269SOL    HW269705   5.061   9.323  12.741
89270SOL     OW69706   3.622   8.869   1.235
89270SOL    HW169707   3.557   8.811   1.195
89270SOL    HW269708   3.707   8.833   1.207
89271SOL     OW69709   2.131   5.816   3.840
89271SOL    HW169710   2.148   5.796   3.748
89271SOL    HW269711   2.216   5.805   3.883
89272SOL     OW69712  13.515   8.613   9.064
89272SOL    HW169713  13.600   8.581   9.031
89272SOL    HW269714  13.504   8.569   9.148
89273SOL     OW69715  13.907   6.777   5.626
89273SOL    HW169716  13.937   6.868   5.619
89273SOL    HW269717  13.832   6.781   5.685
89274SOL     OW69718  10.036   4.904  14.214
89274SOL    HW169719   9.970   4.836  14.225
89274SOL    HW269720   9.993   4.984  14.243
89275SOL     OW69721   2.422   7.312  11.685
89275SOL    HW169722   2.500   7.351  11.724
89275SOL    HW269723   2.439   7.218  11.687
89276SOL     OW69724  11.452   5.954  14.422
89276SOL    HW169725  11.402   5.967  14.342
89276SOL    HW269726  11.543   5.961  14.395
89277SOL     OW69727   8.446   6.089   0.735
89277SOL    HW169728   8.526   6.055   0.697
89277SOL    HW269729   8.383   6.090   0.662
89278SOL     OW69730   1.520   2.067   1.327
89278SOL    HW169731   1.442   2.032   1.371
89278SOL    HW269732   1.496   2.072   1.235
89279SOL     OW69733   2.606  13.427   1.982
89279SOL    HW169734   2.622  13.514   1.946
89279SOL    HW269735   2.614  13.438   2.077
89280SOL     OW69736   3.934   1.828  13.591
89280SOL    HW169737   3.928   1.777  13.672
89280SOL    HW269738   4.021   1.808  13.556
89281SOL     OW69739  13.352   9.469   9.676
89281SOL    HW169740  13.308   9.554   9.681
89281SOL    HW269741  13.406   9.466   9.755
89282SOL     OW69742  11.625   6.725  13.898
89282SOL    HW169743  11.719   6.737  13.880
89282SOL    HW269744  11.600   6.650  13.844
89283SOL     OW69745   4.782   6.678   3.738
89283SOL    HW169746   4.764   6.732   3.661
89283SOL    HW269747   4.858   6.719   3.779
89284SOL     OW69748   5.048   3.494  13.315
89284SOL    HW169749   5.084   3.408  13.337
89284SOL    HW269750   5.106   3.528  13.247
89285SOL     OW69751   4.856  10.519   8.219
89285SOL    HW169752   4.842  10.483   8.307
89285SOL    HW269753   4.941  10.562   8.224
89286SOL     OW69754  10.749  13.142  10.791
89286SOL    HW169755  10.685  13.075  10.816
89286SOL    HW269756  10.830  13.092  10.777
89287SOL     OW69757  12.419  13.350   2.276
89287SOL    HW169758  12.353  13.418   2.283
89287SOL    HW269759  12.427  13.334   2.182
89288SOL     OW69760   0.468   2.279   7.240
89288SOL    HW169761   0.509   2.339   7.177
89288SOL    HW269762   0.417   2.337   7.298
89289SOL     OW69763  13.277   2.129  10.808
89289SOL    HW169764  13.328   2.208  10.825
89289SOL    HW269765  13.310   2.097  10.724
89290SOL     OW69766  10.746  14.439   7.947
89290SOL    HW169767  10.823  14.409   7.996
89290SOL    HW269768  10.744  14.383   7.869
89291SOL     OW69769  10.741   5.928   3.554
89291SOL    HW169770  10.809   5.952   3.490
89291SOL    HW269771  10.683   5.869   3.506
89292SOL     OW69772   1.579   9.498  10.870
89292SOL    HW169773   1.618   9.514  10.956
89292SOL    HW269774   1.650   9.514  10.808
89293SOL     OW69775  14.087  11.995   1.096
89293SOL    HW169776  14.175  11.964   1.118
89293SOL    HW269777  14.058  12.042   1.174
89294SOL     OW69778   3.928   8.691   4.116
89294SOL    HW169779   3.850   8.702   4.063
89294SOL    HW269780   3.940   8.775   4.160
89295SOL     OW69781  14.271   2.534   4.290
89295SOL    HW169782  14.239   2.481   4.216
89295SOL    HW269783  14.359   2.560   4.264
89296SOL     OW69784   9.836   9.234  13.481
89296SOL    HW169785   9.890   9.313  13.483
89296SOL    HW269786   9.753   9.261  13.519
89297SOL     OW69787  12.898   9.620  10.388
89297SOL    HW169788  12.827   9.566  10.351
89297SOL    HW269789  12.855   9.702  10.412
89298SOL     OW69790  11.831  10.078  11.284
89298SOL    HW169791  11.856   9.991  11.315
89298SOL    HW269792  11.901  10.103  11.224
89299SOL     OW69793   4.492   2.888  13.881
89299SOL    HW169794   4.469   2.796  13.894
89299SOL    HW269795   4.585   2.893  13.900
89300SOL     OW69796   4.082  13.821   0.111
89300SOL    HW169797   4.101  13.799   0.203
89300SOL    HW269798   4.112  13.744   0.062
89301SOL     OW69799   8.517   6.049   5.924
89301SOL    HW169800   8.475   6.011   5.847
89301SOL    HW269801   8.595   6.092   5.889
89302SOL     OW69802   0.509   2.873   1.685
89302SOL    HW169803   0.555   2.846   1.606
89302SOL    HW269804   0.449   2.941   1.656
89303SOL     OW69805  14.550   2.880   6.886
89303SOL    HW169806  14.526   2.823   6.813
89303SOL    HW269807  14.581   2.820   6.954
89304SOL     OW69808   3.002   0.324   6.708
89304SOL    HW169809   2.975   0.286   6.791
89304SOL    HW269810   2.933   0.387   6.686
89305SOL     OW69811   2.698   1.281   8.491
89305SOL    HW169812   2.775   1.232   8.464
89305SOL    HW269813   2.724   1.373   8.486
89306SOL     OW69814  14.754   8.467  10.771
89306SOL    HW169815  14.810   8.533  10.732
89306SOL    HW269816  14.763   8.391  10.714
89307SOL     OW69817  10.938   0.548  10.405
89307SOL    HW169818  11.003   0.590  10.461
89307SOL    HW269819  10.897   0.620  10.357
89308SOL     OW69820   9.933   5.512  11.633
89308SOL    HW169821   9.871   5.569  11.586
89308SOL    HW269822   9.913   5.424  11.601
89309SOL     OW69823   5.592   3.963  14.463
89309SOL    HW169824   5.507   3.924  14.444
89309SOL    HW269825   5.656   3.896  14.436
89310SOL     OW69826  12.703  11.328   4.712
89310SOL    HW169827  12.791  11.297   4.734
89310SOL    HW269828  12.658  11.250   4.679
89311SOL     OW69829   5.725   0.823   3.132
89311SOL    HW169830   5.676   0.793   3.208
89311SOL    HW269831   5.671   0.894   3.096
89312SOL     OW69832  10.932  11.193   9.051
89312SOL    HW169833  10.899  11.276   9.085
89312SOL    HW269834  11.026  11.196   9.069
89313SOL     OW69835   7.299   4.024  13.063
89313SOL    HW169836   7.363   3.996  12.998
89313SOL    HW269837   7.216   4.026  13.016
89314SOL     OW69838  12.420   3.472   7.439
89314SOL    HW169839  12.497   3.505   7.485
89314SOL    HW269840  12.346   3.500   7.492
89315SOL     OW69841  10.404  14.380   6.579
89315SOL    HW169842  10.459  14.349   6.651
89315SOL    HW269843  10.454  14.360   6.500
89316SOL     OW69844  12.313   0.825   7.127
89316SOL    HW169845  12.259   0.815   7.205
89316SOL    HW269846  12.260   0.787   7.057
89317SOL     OW69847  13.017  13.548   3.867
89317SOL    HW169848  13.069  13.513   3.939
89317SOL    HW269849  13.000  13.473   3.810
89318SOL     OW69850   6.257  10.794   3.297
89318SOL    HW169851   6.238  10.798   3.203
89318SOL    HW269852   6.213  10.871   3.333
89319SOL     OW69853   0.138   7.278   8.317
89319SOL    HW169854   0.065   7.279   8.255
89319SOL    HW269855   0.098   7.266   8.403
89320SOL     OW69856  14.865   3.411   6.829
89320SOL    HW169857  14.858   3.329   6.780
89320SOL    HW269858  14.879   3.478   6.762
89321SOL     OW69859  14.099   5.400   5.708
89321SOL    HW169860  14.061   5.332   5.652
89321SOL    HW269861  14.190   5.408   5.678
89322SOL     OW69862   3.813   5.712   7.256
89322SOL    HW169863   3.837   5.628   7.294
89322SOL    HW269864   3.880   5.773   7.287
89323SOL     OW69865   4.385   9.270  13.428
89323SOL    HW169866   4.474   9.269  13.464
89323SOL    HW269867   4.349   9.354  13.456
89324SOL     OW69868  11.757  13.674   6.040
89324SOL    HW169869  11.841  13.629   6.043
89324SOL    HW269870  11.709  13.642   6.117
89325SOL     OW69871   4.616  11.358  13.344
89325SOL    HW169872   4.622  11.349  13.249
89325SOL    HW269873   4.684  11.421  13.367
89326SOL     OW69874  14.318   3.036   9.891
89326SOL    HW169875  14.407   3.063   9.915
89326SOL    HW269876  14.267   3.117   9.890
89327SOL     OW69877   5.916  14.793  11.184
89327SOL    HW169878   5.852  14.746  11.237
89327SOL    HW269879   5.883   0.003  11.180
89328SOL     OW69880  11.387   4.851  13.700
89328SOL    HW169881  11.307   4.841  13.649
89328SOL    HW269882  11.362   4.829  13.790
89329SOL     OW69883   7.038   0.367   5.756
89329SOL    HW169884   7.023   0.440   5.816
89329SOL    HW269885   7.048   0.291   5.814
89330SOL     OW69886   6.348  14.263   9.246
89330SOL    HW169887   6.268  14.210   9.243
89330SOL    HW269888   6.381  14.250   9.335
89331SOL     OW69889   3.829   2.993   2.318
89331SOL    HW169890   3.872   2.909   2.306
89331SOL    HW269891   3.747   2.986   2.269
89332SOL     OW69892   3.680   0.587   3.329
89332SOL    HW169893   3.588   0.573   3.351
89332SOL    HW269894   3.680   0.663   3.270
89333SOL     OW69895   8.039  12.030   5.526
89333SOL    HW169896   8.015  11.961   5.588
89333SOL    HW269897   7.968  12.093   5.531
89334SOL     OW69898   2.918   0.059  11.580
89334SOL    HW169899   2.904  14.851  11.614
89334SOL    HW269900   2.843   0.075  11.523
89335SOL     OW69901  11.714  11.078  11.408
89335SOL    HW169902  11.632  11.062  11.454
89335SOL    HW269903  11.782  11.058  11.472
89336SOL     OW69904  10.849   5.325   1.818
89336SOL    HW169905  10.852   5.419   1.801
89336SOL    HW269906  10.809   5.318   1.905
89337SOL     OW69907  12.037   4.748   1.229
89337SOL    HW169908  12.010   4.660   1.254
89337SOL    HW269909  12.127   4.755   1.258
89338SOL     OW69910  14.065  11.137   1.835
89338SOL    HW169911  14.128  11.136   1.762
89338SOL    HW269912  14.114  11.103   1.910
89339SOL     OW69913  12.479   3.518  11.859
89339SOL    HW169914  12.463   3.582  11.790
89339SOL    HW269915  12.520   3.568  11.930
89340SOL     OW69916   4.437   3.144  10.252
89340SOL    HW169917   4.399   3.098  10.328
89340SOL    HW269918   4.531   3.146  10.269
89341SOL     OW69919   3.405  14.810   4.095
89341SOL    HW169920   3.332  14.809   4.035
89341SOL    HW269921   3.483  14.808   4.039
89342SOL     OW69922  11.601   6.746   3.534
89342SOL    HW169923  11.542   6.791   3.473
89342SOL    HW269924  11.546   6.679   3.575
89343SOL     OW69925   5.997   3.848  13.221
89343SOL    HW169926   5.958   3.850  13.133
89343SOL    HW269927   6.045   3.930  13.228
89344SOL     OW69928  10.900  13.546   1.839
89344SOL    HW169929  10.885  13.602   1.763
89344SOL    HW269930  10.839  13.474   1.829
89345SOL     OW69931  13.337   5.961   6.856
89345SOL    HW169932  13.424   5.990   6.882
89345SOL    HW269933  13.277   6.026   6.894
89346SOL     OW69934   0.567  14.153   1.927
89346SOL    HW169935   0.513  14.143   2.005
89346SOL    HW269936   0.643  14.098   1.943
89347SOL     OW69937   5.463   2.764   8.632
89347SOL    HW169938   5.376   2.803   8.640
89347SOL    HW269939   5.453   2.696   8.565
89348SOL     OW69940   7.138  14.328  13.646
89348SOL    HW169941   7.162  14.390  13.577
89348SOL    HW269942   7.160  14.373  13.728
89349SOL     OW69943   7.445  10.071  13.283
89349SOL    HW169944   7.536  10.041  13.281
89349SOL    HW269945   7.419  10.062  13.374
89350SOL     OW69946   0.071  13.692  12.275
89350SOL    HW169947   0.064  13.736  12.360
89350SOL    HW269948   0.072  13.764  12.212
89351SOL     OW69949   8.458   9.122  12.421
89351SOL    HW169950   8.553   9.112  12.426
89351SOL    HW269951   8.444   9.217  12.415
89352SOL     OW69952   7.389   2.311   5.086
89352SOL    HW169953   7.476   2.274   5.071
89352SOL    HW269954   7.405   2.404   5.101
89353SOL     OW69955   2.336  14.091  11.394
89353SOL    HW169956   2.301  14.149  11.326
89353SOL    HW269957   2.312  14.003  11.365
89354SOL     OW69958   2.686  14.806   7.687
89354SOL    HW169959   2.776  14.824   7.716
89354SOL    HW269960   2.679  14.711   7.687
89355SOL     OW69961   1.035   8.016   8.173
89355SOL    HW169962   0.981   8.011   8.252
89355SOL    HW269963   1.049   7.925   8.146
89356SOL     OW69964   0.773   8.955   3.021
89356SOL    HW169965   0.718   8.936   2.946
89356SOL    HW269966   0.717   9.004   3.081
89357SOL     OW69967   2.815   1.403  12.628
89357SOL    HW169968   2.903   1.377  12.600
89357SOL    HW269969   2.830   1.459  12.704
89358SOL     OW69970   2.969  14.231   6.792
89358SOL    HW169971   2.948  14.310   6.842
89358SOL    HW269972   2.965  14.160   6.855
89359SOL     OW69973   0.848   6.083   4.221
89359SOL    HW169974   0.859   6.103   4.314
89359SOL    HW269975   0.934   6.052   4.194
89360SOL     OW69976   1.159   0.479   2.176
89360SOL    HW169977   1.088   0.485   2.112
89360SOL    HW269978   1.166   0.386   2.196
89361SOL     OW69979  11.491   9.993  11.087
89361SOL    HW169980  11.578   9.965  11.059
89361SOL    HW269981  11.480   9.953  11.174
89362SOL     OW69982  13.209   5.156   6.291
89362SOL    HW169983  13.147   5.186   6.224
89362SOL    HW269984  13.160   5.090   6.340
89363SOL     OW69985   3.533   7.080   8.684
89363SOL    HW169986   3.499   7.089   8.773
89363SOL    HW269987   3.624   7.109   8.690
89364SOL     OW69988   5.181   6.987   1.619
89364SOL    HW169989   5.189   7.077   1.586
89364SOL    HW269990   5.088   6.978   1.641
89365SOL     OW69991  11.064   1.882   5.425
89365SOL    HW169992  11.106   1.811   5.474
89365SOL    HW269993  11.110   1.961   5.454
89366SOL     OW69994   0.634   6.478  13.426
89366SOL    HW169995   0.582   6.407  13.389
89366SOL    HW269996   0.677   6.440  13.503
89367SOL     OW69997   0.614   5.956   5.513
89367SOL    HW169998   0.612   5.999   5.428
89367SOL    HW269999   0.579   6.021   5.574
89368SOL     OW70000   6.641   3.511   4.049
89368SOL    HW170001   6.606   3.474   3.968
89368SOL    HW270002   6.695   3.441   4.085
89369SOL     OW70003   9.170   3.427   4.830
89369SOL    HW170004   9.094   3.466   4.786
89369SOL    HW270005   9.207   3.498   4.882
89370SOL     OW70006   4.707   7.158   7.824
89370SOL    HW170007   4.796   7.125   7.833
89370SOL    HW270008   4.659   7.088   7.781
89371SOL     OW70009   5.729   2.685   5.898
89371SOL    HW170010   5.739   2.616   5.964
89371SOL    HW270011   5.714   2.637   5.816
89372SOL     OW70012   2.716   8.736   6.327
89372SOL    HW170013   2.731   8.669   6.260
89372SOL    HW270014   2.775   8.808   6.303
89373SOL     OW70015   3.930   4.765   5.664
89373SOL    HW170016   3.892   4.852   5.652
89373SOL    HW270017   3.921   4.747   5.757
89374SOL     OW70018   5.979   5.100   0.293
89374SOL    HW170019   5.985   5.170   0.358
89374SOL    HW270020   6.064   5.057   0.295
89375SOL     OW70021   0.407   5.834  12.114
89375SOL    HW170022   0.468   5.838  12.040
89375SOL    HW270023   0.411   5.921  12.153
89376SOL     OW70024  11.591  10.605  12.089
89376SOL    HW170025  11.643  10.682  12.110
89376SOL    HW270026  11.537  10.590  12.167
89377SOL     OW70027   2.096  12.438   4.727
89377SOL    HW170028   2.102  12.342   4.727
89377SOL    HW270029   2.058  12.459   4.813
89378SOL     OW70030  13.285   8.400  11.429
89378SOL    HW170031  13.349   8.399  11.358
89378SOL    HW270032  13.276   8.308  11.455
89379SOL     OW70033   2.879   8.225   3.493
89379SOL    HW170034   2.953   8.180   3.452
89379SOL    HW270035   2.899   8.223   3.587
89380SOL     OW70036  13.333  14.213   9.494
89380SOL    HW170037  13.427  14.229   9.504
89380SOL    HW270038  13.326  14.157   9.417
89381SOL     OW70039   8.294   6.859   9.691
89381SOL    HW170040   8.352   6.931   9.663
89381SOL    HW270041   8.334   6.826   9.771
89382SOL     OW70042  10.870  11.805  10.086
89382SOL    HW170043  10.948  11.792  10.139
89382SOL    HW270044  10.844  11.716  10.061
89383SOL     OW70045   6.240   6.143  11.641
89383SOL    HW170046   6.224   6.235  11.618
89383SOL    HW270047   6.171   6.122  11.704
89384SOL     OW70048  14.056   8.281   5.536
89384SOL    HW170049  14.064   8.329   5.454
89384SOL    HW270050  14.139   8.235   5.545
89385SOL     OW70051   2.043  11.647   5.260
89385SOL    HW170052   2.004  11.644   5.347
89385SOL    HW270053   2.082  11.734   5.253
89386SOL     OW70054   3.146   2.639   9.895
89386SOL    HW170055   3.204   2.715   9.893
89386SOL    HW270056   3.091   2.653   9.972
89387SOL     OW70057   9.119  10.463   7.089
89387SOL    HW170058   9.090  10.492   7.175
89387SOL    HW270059   9.175  10.387   7.107
89388SOL     OW70060   1.667  10.013  14.690
89388SOL    HW170061   1.628   9.927  14.672
89388SOL    HW270062   1.597  10.063  14.731
89389SOL     OW70063  12.500   1.970   7.341
89389SOL    HW170064  12.455   1.886   7.354
89389SOL    HW270065  12.430   2.032   7.321
89390SOL     OW70066   3.400  12.601   9.709
89390SOL    HW170067   3.358  12.567   9.788
89390SOL    HW270068   3.466  12.536   9.686
89391SOL     OW70069   1.980   0.174   6.659
89391SOL    HW170070   2.023   0.249   6.618
89391SOL    HW270071   1.990   0.104   6.594
89392SOL     OW70072   0.362  12.632   0.453
89392SOL    HW170073   0.309  12.668   0.524
89392SOL    HW270074   0.332  12.678   0.375
89393SOL     OW70075  13.098  13.432  14.225
89393SOL    HW170076  13.149  13.373  14.281
89393SOL    HW270077  13.164  13.482  14.177
89394SOL     OW70078   9.150  14.256   5.665
89394SOL    HW170079   9.193  14.214   5.740
89394SOL    HW270080   9.221  14.293   5.614
89395SOL     OW70081   7.391  13.667   3.573
89395SOL    HW170082   7.436  13.659   3.489
89395SOL    HW270083   7.370  13.760   3.579
89396SOL     OW70084   3.335   1.641   3.224
89396SOL    HW170085   3.360   1.731   3.201
89396SOL    HW270086   3.415   1.590   3.210
89397SOL     OW70087   2.098   8.759   7.850
89397SOL    HW170088   2.115   8.825   7.918
89397SOL    HW270089   2.089   8.810   7.769
89398SOL     OW70090   5.802   1.226   3.067
89398SOL    HW170091   5.889   1.245   3.103
89398SOL    HW270092   5.765   1.312   3.047
89399SOL     OW70093   5.876   4.102  10.335
89399SOL    HW170094   5.877   4.194  10.308
89399SOL    HW270095   5.817   4.060  10.272
89400SOL     OW70096   0.015   2.787   3.745
89400SOL    HW170097   0.048   2.848   3.811
89400SOL    HW270098  14.800   2.786   3.758
89401SOL     OW70099   0.990  14.032  13.665
89401SOL    HW170100   1.038  14.068  13.739
89401SOL    HW270101   1.053  13.977  13.618
89402SOL     OW70102  12.169   2.071  11.161
89402SOL    HW170103  12.255   2.091  11.197
89402SOL    HW270104  12.156   2.134  11.091
89403SOL     OW70105   2.599   5.514  10.758
89403SOL    HW170106   2.519   5.465  10.737
89403SOL    HW270107   2.574   5.573  10.829
89404SOL     OW70108  10.486  14.350  10.576
89404SOL    HW170109  10.562  14.346  10.633
89404SOL    HW270110  10.516  14.396  10.498
89405SOL     OW70111   4.921  14.657   8.507
89405SOL    HW170112   4.892  14.739   8.468
89405SOL    HW270113   4.998  14.681   8.559
89406SOL     OW70114  11.238  11.116   7.651
89406SOL    HW170115  11.259  11.208   7.665
89406SOL    HW270116  11.150  11.105   7.686
89407SOL     OW70117   1.491   2.763  10.228
89407SOL    HW170118   1.534   2.689  10.185
89407SOL    HW270119   1.481   2.735  10.319
89408SOL     OW70120   5.047  14.114   4.707
89408SOL    HW170121   5.008  14.027   4.700
89408SOL    HW270122   5.041  14.150   4.618
89409SOL     OW70123   0.045   4.031   3.932
89409SOL    HW170124   0.065   4.124   3.942
89409SOL    HW270125   0.126   3.986   3.956
89410SOL     OW70126   6.467   1.463   8.482
89410SOL    HW170127   6.438   1.481   8.572
89410SOL    HW270128   6.386   1.457   8.432
89411SOL     OW70129  11.763   4.962   8.619
89411SOL    HW170130  11.678   4.920   8.631
89411SOL    HW270131  11.806   4.956   8.704
89412SOL     OW70132   9.654   2.801   5.874
89412SOL    HW170133   9.647   2.744   5.950
89412SOL    HW270134   9.743   2.785   5.840
89413SOL     OW70135  10.218  14.432   4.345
89413SOL    HW170136  10.223  14.460   4.254
89413SOL    HW270137  10.262  14.347   4.347
89414SOL     OW70138   3.864   1.617   2.290
89414SOL    HW170139   3.953   1.582   2.284
89414SOL    HW270140   3.854   1.645   2.381
89415SOL     OW70141   1.922   2.130   7.922
89415SOL    HW170142   1.901   2.080   7.844
89415SOL    HW270143   1.888   2.076   7.994
89416SOL     OW70144   6.184  13.072   1.757
89416SOL    HW170145   6.195  13.088   1.851
89416SOL    HW270146   6.118  13.003   1.752
89417SOL     OW70147   0.630   4.985   0.711
89417SOL    HW170148   0.665   5.067   0.747
89417SOL    HW270149   0.535   4.994   0.720
89418SOL     OW70150   7.201  11.429   9.465
89418SOL    HW170151   7.201  11.502   9.527
89418SOL    HW270152   7.109  11.410   9.450
89419SOL     OW70153   6.804   0.593   8.360
89419SOL    HW170154   6.794   0.498   8.363
89419SOL    HW270155   6.752   0.620   8.284
89420SOL     OW70156   7.929  13.011   0.978
89420SOL    HW170157   7.840  13.002   1.010
89420SOL    HW270158   7.966  12.923   0.981
89421SOL     OW70159  10.978   3.947   6.336
89421SOL    HW170160  10.948   4.000   6.262
89421SOL    HW270161  10.913   3.876   6.342
89422SOL     OW70162  12.729   3.555   7.103
89422SOL    HW170163  12.717   3.515   7.189
89422SOL    HW270164  12.643   3.590   7.080
89423SOL     OW70165   4.268  12.368   4.274
89423SOL    HW170166   4.347  12.386   4.325
89423SOL    HW270167   4.300  12.331   4.192
89424SOL     OW70168   0.841  11.720  10.645
89424SOL    HW170169   0.829  11.625  10.652
89424SOL    HW270170   0.799  11.743  10.562
89425SOL     OW70171   6.492   3.481   6.249
89425SOL    HW170172   6.401   3.503   6.229
89425SOL    HW270173   6.497   3.479   6.344
89426SOL     OW70174   9.425  14.576   0.353
89426SOL    HW170175   9.439  14.602   0.261
89426SOL    HW270176   9.334  14.547   0.356
89427SOL     OW70177   1.401   8.366   6.484
89427SOL    HW170178   1.495   8.381   6.493
89427SOL    HW270179   1.384   8.378   6.391
89428SOL     OW70180   4.010  14.393   1.128
89428SOL    HW170181   3.992  14.300   1.115
89428SOL    HW270182   4.063  14.397   1.207
89429SOL     OW70183   9.944   2.843  10.850
89429SOL    HW170184   9.921   2.823  10.941
89429SOL    HW270185   9.890   2.919  10.828
89430SOL     OW70186   4.866   1.318   5.103
89430SOL    HW170187   4.876   1.412   5.093
89430SOL    HW270188   4.954   1.286   5.122
89431SOL     OW70189   5.531  11.228   8.302
89431SOL    HW170190   5.585  11.191   8.372
89431SOL    HW270191   5.493  11.308   8.340
89432SOL     OW70192   7.779   8.916   5.067
89432SOL    HW170193   7.746   8.984   5.008
89432SOL    HW270194   7.797   8.841   5.009
89433SOL     OW70195   2.951  13.057   8.271
89433SOL    HW170196   2.930  13.118   8.342
89433SOL    HW270197   3.000  13.109   8.208
89434SOL     OW70198   9.723  13.077  10.512
89434SOL    HW170199   9.787  13.146  10.492
89434SOL    HW270200   9.646  13.099  10.460
89435SOL     OW70201   2.550   4.216  10.802
89435SOL    HW170202   2.530   4.219  10.896
89435SOL    HW270203   2.489   4.152  10.767
89436SOL     OW70204   1.042   7.404   4.915
89436SOL    HW170205   1.111   7.339   4.902
89436SOL    HW270206   1.054   7.434   5.005
89437SOL     OW70207   8.709   3.596  11.371
89437SOL    HW170208   8.713   3.590  11.275
89437SOL    HW270209   8.639   3.536  11.395
89438SOL     OW70210   7.200   2.349   6.619
89438SOL    HW170211   7.129   2.285   6.626
89438SOL    HW270212   7.155   2.434   6.614
89439SOL     OW70213   8.457  13.354  11.620
89439SOL    HW170214   8.492  13.363  11.708
89439SOL    HW270215   8.366  13.385  11.627
89440SOL     OW70216   9.942   4.739   1.891
89440SOL    HW170217   9.859   4.785   1.883
89440SOL    HW270218   9.947   4.685   1.812
89441SOL     OW70219   3.205   4.895   8.501
89441SOL    HW170220   3.220   4.950   8.579
89441SOL    HW270221   3.287   4.847   8.490
89442SOL     OW70222  10.841   8.201   7.473
89442SOL    HW170223  10.746   8.214   7.473
89442SOL    HW270224  10.877   8.288   7.457
89443SOL     OW70225   2.884   3.262   4.560
89443SOL    HW170226   2.928   3.203   4.622
89443SOL    HW270227   2.812   3.210   4.524
89444SOL     OW70228  11.633   2.894   9.882
89444SOL    HW170229  11.649   2.918   9.973
89444SOL    HW270230  11.589   2.809   9.887
89445SOL     OW70231   4.960   9.106   1.767
89445SOL    HW170232   5.002   9.022   1.746
89445SOL    HW270233   4.890   9.115   1.702
89446SOL     OW70234   7.419   0.382   5.910
89446SOL    HW170235   7.456   0.373   5.822
89446SOL    HW270236   7.447   0.468   5.940
89447SOL     OW70237   5.200   2.979   5.252
89447SOL    HW170238   5.240   2.895   5.276
89447SOL    HW270239   5.228   3.039   5.321
89448SOL     OW70240  12.991   6.556   7.555
89448SOL    HW170241  12.991   6.613   7.632
89448SOL    HW270242  12.915   6.585   7.504
89449SOL     OW70243   8.586   1.235  10.810
89449SOL    HW170244   8.529   1.244  10.886
89449SOL    HW270245   8.590   1.141  10.794
89450SOL     OW70246   6.923   8.794   8.689
89450SOL    HW170247   6.895   8.754   8.606
89450SOL    HW270248   7.016   8.773   8.695
89451SOL     OW70249   8.769   4.900   2.686
89451SOL    HW170250   8.716   4.898   2.606
89451SOL    HW270251   8.835   4.831   2.672
89452SOL     OW70252  14.088   3.749   2.530
89452SOL    HW170253  14.159   3.742   2.593
89452SOL    HW270254  14.010   3.767   2.583
89453SOL     OW70255   7.029   2.176  13.820
89453SOL    HW170256   7.040   2.087  13.853
89453SOL    HW270257   6.936   2.182  13.797
89454SOL     OW70258   7.177   4.430   2.395
89454SOL    HW170259   7.094   4.385   2.416
89454SOL    HW270260   7.234   4.410   2.469
89455SOL     OW70261   2.984  14.079  10.789
89455SOL    HW170262   3.038  14.023  10.845
89455SOL    HW270263   3.010  14.168  10.814
89456SOL     OW70264   6.043   0.583   4.838
89456SOL    HW170265   5.981   0.514   4.862
89456SOL    HW270266   5.987   0.656   4.812
89457SOL     OW70267  12.557  14.343  12.692
89457SOL    HW170268  12.600  14.310  12.770
89457SOL    HW270269  12.618  14.408  12.657
89458SOL     OW70270  12.204   9.978   7.077
89458SOL    HW170271  12.141   9.998   7.007
89458SOL    HW270272  12.289   9.989   7.035
89459SOL     OW70273   2.587   8.269   1.584
89459SOL    HW170274   2.641   8.329   1.635
89459SOL    HW270275   2.621   8.182   1.605
89460SOL     OW70276  11.719  13.400  13.627
89460SOL    HW170277  11.755  13.486  13.646
89460SOL    HW270278  11.783  13.339  13.661
89461SOL     OW70279   1.734   4.663   8.622
89461SOL    HW170280   1.805   4.719   8.655
89461SOL    HW270281   1.659   4.684   8.678
89462SOL     OW70282  13.619   3.335  14.665
89462SOL    HW170283  13.634   3.282  14.587
89462SOL    HW270284  13.584   3.274  14.730
89463SOL     OW70285   9.664   2.964   4.288
89463SOL    HW170286   9.628   3.043   4.329
89463SOL    HW270287   9.612   2.953   4.208
89464SOL     OW70288   4.815  14.659  13.904
89464SOL    HW170289   4.887  14.704  13.949
89464SOL    HW270290   4.853  14.575  13.876
89465SOL     OW70291   6.752   7.669  13.363
89465SOL    HW170292   6.787   7.637  13.446
89465SOL    HW270293   6.822   7.723  13.327
89466SOL     OW70294   3.610   1.838  13.570
89466SOL    HW170295   3.608   1.745  13.593
89466SOL    HW270296   3.703   1.862  13.575
89467SOL     OW70297   6.062   0.651   1.497
89467SOL    HW170298   5.983   0.682   1.540
89467SOL    HW270299   6.040   0.649   1.404
89468SOL     OW70300   9.087   7.737  11.756
89468SOL    HW170301   8.996   7.764  11.768
89468SOL    HW270302   9.091   7.648  11.791
89469SOL     OW70303   9.586   3.093  13.873
89469SOL    HW170304   9.512   3.034  13.892
89469SOL    HW270305   9.619   3.118  13.960
89470SOL     OW70306  13.556   6.326  10.700
89470SOL    HW170307  13.484   6.272  10.732
89470SOL    HW270308  13.634   6.271  10.712
89471SOL     OW70309  12.404   2.996   6.344
89471SOL    HW170310  12.354   2.940   6.404
89471SOL    HW270311  12.342   3.063   6.316
89472SOL     OW70312  13.287   4.655   8.621
89472SOL    HW170313  13.230   4.627   8.692
89472SOL    HW270314  13.243   4.731   8.583
89473SOL     OW70315  10.252   3.396   5.553
89473SOL    HW170316  10.177   3.373   5.609
89473SOL    HW270317  10.302   3.314   5.546
89474SOL     OW70318  11.629  10.344   4.964
89474SOL    HW170319  11.658  10.264   4.920
89474SOL    HW270320  11.574  10.389   4.900
89475SOL     OW70321  10.361   1.027   0.164
89475SOL    HW170322  10.374   0.933   0.165
89475SOL    HW270323  10.408   1.057   0.086
89476SOL     OW70324   5.919  11.056  14.250
89476SOL    HW170325   5.862  11.133  14.253
89476SOL    HW270326   5.997  11.081  14.299
89477SOL     OW70327   2.118   7.027   2.190
89477SOL    HW170328   2.046   6.965   2.195
89477SOL    HW270329   2.190   6.982   2.235
89478SOL     OW70330   1.113   0.270  14.023
89478SOL    HW170331   1.123   0.232  14.110
89478SOL    HW270332   1.202   0.294  13.997
89479SOL     OW70333   9.574   8.845  13.777
89479SOL    HW170334   9.563   8.833  13.683
89479SOL    HW270335   9.486   8.836  13.814
89480SOL     OW70336  12.505  11.336   0.121
89480SOL    HW170337  12.588  11.376   0.094
89480SOL    HW270338  12.526  11.243   0.129
89481SOL     OW70339   0.322   3.828   8.898
89481SOL    HW170340   0.273   3.746   8.900
89481SOL    HW270341   0.377   3.824   8.977
89482SOL     OW70342   2.691   6.694  10.777
89482SOL    HW170343   2.678   6.698  10.872
89482SOL    HW270344   2.771   6.643  10.766
89483SOL     OW70345  14.655  13.106   0.167
89483SOL    HW170346  14.582  13.150   0.123
89483SOL    HW270347  14.706  13.177   0.205
89484SOL     OW70348   8.616  13.274  11.373
89484SOL    HW170349   8.590  13.344  11.313
89484SOL    HW270350   8.577  13.299  11.457
89485SOL     OW70351   8.699  13.973   8.203
89485SOL    HW170352   8.784  13.966   8.159
89485SOL    HW270353   8.712  14.041   8.269
89486SOL     OW70354   6.409   1.158   2.235
89486SOL    HW170355   6.457   1.239   2.251
89486SOL    HW270356   6.321   1.187   2.211
89487SOL     OW70357  10.512   7.120  12.914
89487SOL    HW170358  10.449   7.052  12.892
89487SOL    HW270359  10.589   7.073  12.946
89488SOL     OW70360  10.316  12.050   4.395
89488SOL    HW170361  10.256  11.995   4.446
89488SOL    HW270362  10.326  12.129   4.447
89489SOL     OW70363   9.467  14.271   2.973
89489SOL    HW170364   9.451  14.183   2.938
89489SOL    HW270365   9.559  14.271   2.998
89490SOL     OW70366  12.207  11.300  11.034
89490SOL    HW170367  12.302  11.302  11.038
89490SOL    HW270368  12.179  11.290  11.125
89491SOL     OW70369  13.082  12.072   8.355
89491SOL    HW170370  13.073  12.012   8.282
89491SOL    HW270371  13.036  12.151   8.328
89492SOL     OW70372  11.111  13.198   5.235
89492SOL    HW170373  11.151  13.269   5.285
89492SOL    HW270374  11.057  13.151   5.299
89493SOL     OW70375   6.535   2.302  10.615
89493SOL    HW170376   6.613   2.272  10.568
89493SOL    HW270377   6.546   2.267  10.704
89494SOL     OW70378  12.395  13.880   9.606
89494SOL    HW170379  12.488  13.890   9.587
89494SOL    HW270380  12.357  13.967   9.591
89495SOL     OW70381   1.863   2.921   0.774
89495SOL    HW170382   1.924   2.850   0.796
89495SOL    HW270383   1.902   2.962   0.697
89496SOL     OW70384   4.194  13.299   3.379
89496SOL    HW170385   4.106  13.260   3.373
89496SOL    HW270386   4.239  13.247   3.445
89497SOL     OW70387  13.266  11.677   3.181
89497SOL    HW170388  13.266  11.765   3.219
89497SOL    HW270389  13.315  11.686   3.099
89498SOL     OW70390  11.629   2.971   0.833
89498SOL    HW170391  11.683   2.997   0.907
89498SOL    HW270392  11.551   3.026   0.839
89499SOL     OW70393   6.819   9.750  10.316
89499SOL    HW170394   6.751   9.773  10.379
89499SOL    HW270395   6.878   9.692  10.365
89500SOL     OW70396   4.077  12.247  12.243
89500SOL    HW170397   4.076  12.266  12.336
89500SOL    HW270398   4.083  12.333  12.201
89501SOL     OW70399   7.770   5.228  11.249
89501SOL    HW170400   7.712   5.256  11.179
89501SOL    HW270401   7.856   5.221  11.208
89502SOL     OW70402   5.081   3.706   7.630
89502SOL    HW170403   5.100   3.712   7.537
89502SOL    HW270404   5.146   3.761   7.672
89503SOL     OW70405   2.666  13.862   5.925
89503SOL    HW170406   2.730  13.917   5.880
89503SOL    HW270407   2.717  13.810   5.987
89504SOL     OW70408   1.027   8.561   2.638
89504SOL    HW170409   0.972   8.557   2.560
89504SOL    HW270410   0.975   8.611   2.701
89505SOL     OW70411   7.440   4.529   2.189
89505SOL    HW170412   7.402   4.598   2.136
89505SOL    HW270413   7.458   4.571   2.273
89506SOL     OW70414   5.855  10.898   9.179
89506SOL    HW170415   5.923  10.874   9.241
89506SOL    HW270416   5.890  10.974   9.133
89507SOL     OW70417   3.730   7.452   7.731
89507SOL    HW170418   3.683   7.456   7.814
89507SOL    HW270419   3.815   7.490   7.750
89508SOL     OW70420   1.107  10.981   8.517
89508SOL    HW170421   1.017  10.950   8.520
89508SOL    HW270422   1.153  10.930   8.583
89509SOL     OW70423   3.801  13.901   5.589
89509SOL    HW170424   3.733  13.840   5.616
89509SOL    HW270425   3.880  13.871   5.633
89510SOL     OW70426   1.894   0.518   2.037
89510SOL    HW170427   1.920   0.478   2.121
89510SOL    HW270428   1.851   0.599   2.062
89511SOL     OW70429  12.521  11.020   2.572
89511SOL    HW170430  12.498  10.976   2.654
89511SOL    HW270431  12.529  11.112   2.597
89512SOL     OW70432   3.058   7.906   8.445
89512SOL    HW170433   3.019   7.917   8.532
89512SOL    HW270434   2.985   7.883   8.388
89513SOL     OW70435   0.113   0.607   5.219
89513SOL    HW170436   0.160   0.614   5.136
89513SOL    HW270437   0.077   0.694   5.234
89514SOL     OW70438  10.522   8.266   3.519
89514SOL    HW170439  10.564   8.352   3.528
89514SOL    HW270440  10.429   8.284   3.533
89515SOL     OW70441   3.622   9.023  14.324
89515SOL    HW170442   3.575   9.024  14.407
89515SOL    HW270443   3.711   8.997  14.346
89516SOL     OW70444   7.821  10.082  11.090
89516SOL    HW170445   7.767  10.080  11.170
89516SOL    HW270446   7.895  10.025  11.110
89517SOL     OW70447  14.503   8.280  14.656
89517SOL    HW170448  14.550   8.352  14.615
89517SOL    HW270449  14.509   8.208  14.594
89518SOL     OW70450  10.270   5.727  14.543
89518SOL    HW170451  10.221   5.795  14.497
89518SOL    HW270452  10.212   5.699  14.614
89519SOL     OW70453  12.293   0.426   3.184
89519SOL    HW170454  12.219   0.456   3.236
89519SOL    HW270455  12.277   0.333   3.170
89520SOL     OW70456   7.018   6.625   1.881
89520SOL    HW170457   6.964   6.631   1.960
89520SOL    HW270458   7.067   6.544   1.891
89521SOL     OW70459   9.140   8.441   8.985
89521SOL    HW170460   9.205   8.409   9.049
89521SOL    HW270461   9.073   8.482   9.039
89522SOL     OW70462   1.443   5.638   6.121
89522SOL    HW170463   1.356   5.615   6.154
89522SOL    HW270464   1.469   5.562   6.068
89523SOL     OW70465  13.543   2.459   4.078
89523SOL    HW170466  13.471   2.453   4.016
89523SOL    HW270467  13.501   2.482   4.161
89524SOL     OW70468   6.027  13.989   9.879
89524SOL    HW170469   6.070  14.021   9.958
89524SOL    HW270470   6.038  13.894   9.882
89525SOL     OW70471   1.584   2.621   9.868
89525SOL    HW170472   1.534   2.701   9.887
89525SOL    HW270473   1.581   2.613   9.773
89526SOL     OW70474   8.143   2.088   1.598
89526SOL    HW170475   8.065   2.036   1.581
89526SOL    HW270476   8.207   2.024   1.631
89527SOL     OW70477  14.472   9.862  14.277
89527SOL    HW170478  14.486   9.787  14.334
89527SOL    HW270479  14.430   9.927  14.333
89528SOL     OW70480  12.156   8.832   3.431
89528SOL    HW170481  12.140   8.822   3.525
89528SOL    HW270482  12.113   8.756   3.392
89529SOL     OW70483   7.322   6.421  10.838
89529SOL    HW170484   7.387   6.369  10.884
89529SOL    HW270485   7.301   6.492  10.899
89530SOL     OW70486  10.831   0.159  10.366
89530SOL    HW170487  10.909   0.105  10.362
89530SOL    HW270488  10.835   0.215  10.288
89531SOL     OW70489   5.779   0.103   1.894
89531SOL    HW170490   5.861   0.061   1.866
89531SOL    HW270491   5.794   0.197   1.880
89532SOL     OW70492  12.596   4.046   7.633
89532SOL    HW170493  12.635   4.028   7.548
89532SOL    HW270494  12.513   4.088   7.613
89533SOL     OW70495  11.591   3.766   4.517
89533SOL    HW170496  11.517   3.805   4.471
89533SOL    HW270497  11.572   3.672   4.517
89534SOL     OW70498   4.175   8.754   8.963
89534SOL    HW170499   4.150   8.753   8.870
89534SOL    HW270500   4.244   8.688   8.970
89535SOL     OW70501   2.877  13.438   6.070
89535SOL    HW170502   2.901  13.345   6.066
89535SOL    HW270503   2.782  13.439   6.060
89536SOL     OW70504  12.398   0.956   4.918
89536SOL    HW170505  12.414   0.865   4.942
89536SOL    HW270506  12.366   0.952   4.828
89537SOL     OW70507   9.675   7.039  13.304
89537SOL    HW170508   9.770   7.044  13.294
89537SOL    HW270509   9.641   7.053  13.216
89538SOL     OW70510   6.210  10.241  13.317
89538SOL    HW170511   6.137  10.233  13.379
89538SOL    HW270512   6.217  10.335  13.301
89539SOL     OW70513   3.745  13.998   3.939
89539SOL    HW170514   3.772  14.085   3.969
89539SOL    HW270515   3.652  14.006   3.922
89540SOL     OW70516   3.025  11.204  14.806
89540SOL    HW170517   2.958  11.259  14.847
89540SOL    HW270518   3.075  11.168  14.879
89541SOL     OW70519   5.686   6.968  13.884
89541SOL    HW170520   5.663   7.029  13.814
89541SOL    HW270521   5.778   6.986  13.903
89542SOL     OW70522   9.067   1.736  12.214
89542SOL    HW170523   9.068   1.763  12.305
89542SOL    HW270524   9.124   1.659  12.211
89543SOL     OW70525  11.780   0.931   0.017
89543SOL    HW170526  11.818   0.848  14.868
89543SOL    HW270527  11.855   0.983   0.046
89544SOL     OW70528  13.873  12.294   6.166
89544SOL    HW170529  13.964  12.313   6.144
89544SOL    HW270530  13.837  12.379   6.192
89545SOL     OW70531   4.195   3.678   6.481
89545SOL    HW170532   4.123   3.667   6.543
89545SOL    HW270533   4.231   3.590   6.470
89546SOL     OW70534  10.951   0.432   2.024
89546SOL    HW170535  10.886   0.398   2.085
89546SOL    HW270536  11.020   0.468   2.080
89547SOL     OW70537   1.031   5.189  12.112
89547SOL    HW170538   1.008   5.266  12.060
89547SOL    HW270539   0.999   5.115  12.061
89548SOL     OW70540   6.472   1.189   8.990
89548SOL    HW170541   6.410   1.261   8.981
89548SOL    HW270542   6.441   1.122   8.929
89549SOL     OW70543  13.520  12.145   8.072
89549SOL    HW170544  13.558  12.057   8.079
89549SOL    HW270545  13.595  12.204   8.079
89550SOL     OW70546   9.833  13.609   4.546
89550SOL    HW170547   9.810  13.517   4.540
89550SOL    HW270548   9.764  13.648   4.599
89551SOL     OW70549   4.985  12.801   6.934
89551SOL    HW170550   5.005  12.894   6.949
89551SOL    HW270551   5.069  12.757   6.940
89552SOL     OW70552  12.748   2.885  12.704
89552SOL    HW170553  12.752   2.964  12.759
89552SOL    HW270554  12.709   2.819  12.761
89553SOL     OW70555   4.676  10.226   6.992
89553SOL    HW170556   4.615  10.154   6.977
89553SOL    HW270557   4.762  10.189   6.971
89554SOL     OW70558  14.390  13.433  11.635
89554SOL    HW170559  14.426  13.454  11.549
89554SOL    HW270560  14.463  13.393  11.683
89555SOL     OW70561  13.293   0.060   0.538
89555SOL    HW170562  13.380   0.022   0.551
89555SOL    HW270563  13.300   0.105   0.453
89556SOL     OW70564   4.059  12.377  11.536
89556SOL    HW170565   4.150  12.357  11.561
89556SOL    HW270566   4.051  12.345  11.446
89557SOL     OW70567  10.492   6.648  10.950
89557SOL    HW170568  10.455   6.662  10.863
89557SOL    HW270569  10.546   6.726  10.965
89558SOL     OW70570   4.071  14.203   5.605
89558SOL    HW170571   4.100  14.187   5.515
89558SOL    HW270572   4.152  14.219   5.653
89559SOL     OW70573   8.399  10.015   8.240
89559SOL    HW170574   8.384  10.106   8.267
89559SOL    HW270575   8.340  10.002   8.166
89560SOL     OW70576   8.587  11.650   4.569
89560SOL    HW170577   8.590  11.656   4.665
89560SOL    HW270578   8.503  11.609   4.550
89561SOL     OW70579  13.818   4.458  12.680
89561SOL    HW170580  13.798   4.417  12.764
89561SOL    HW270581  13.827   4.551  12.702
89562SOL     OW70582   0.928   3.290   2.181
89562SOL    HW170583   0.945   3.352   2.111
89562SOL    HW270584   0.951   3.205   2.143
89563SOL     OW70585  13.066   2.592   5.966
89563SOL    HW170586  13.026   2.532   5.904
89563SOL    HW270587  13.155   2.559   5.978
89564SOL     OW70588   2.133  11.361   8.055
89564SOL    HW170589   2.145  11.344   8.148
89564SOL    HW270590   2.041  11.385   8.046
89565SOL     OW70591  10.481   9.545  14.732
89565SOL    HW170592  10.428   9.552  14.811
89565SOL    HW270593  10.457   9.461  14.693
89566SOL     OW70594  12.738  12.400   9.773
89566SOL    HW170595  12.790  12.407   9.853
89566SOL    HW270596  12.703  12.488   9.759
89567SOL     OW70597   1.250  14.708   0.796
89567SOL    HW170598   1.285  14.785   0.840
89567SOL    HW270599   1.228  14.647   0.867
89568SOL     OW70600   7.846  11.559   2.611
89568SOL    HW170601   7.767  11.515   2.578
89568SOL    HW270602   7.819  11.649   2.626
89569SOL     OW70603  10.146   2.500   1.299
89569SOL    HW170604  10.073   2.549   1.336
89569SOL    HW270605  10.132   2.410   1.327
89570SOL     OW70606   4.029   8.696   7.866
89570SOL    HW170607   4.092   8.625   7.852
89570SOL    HW270608   3.971   8.692   7.791
89571SOL     OW70609  12.579   9.971  12.581
89571SOL    HW170610  12.493   9.988  12.540
89571SOL    HW270611  12.639   9.965  12.507
89572SOL     OW70612   0.594  13.695   2.557
89572SOL    HW170613   0.573  13.602   2.560
89572SOL    HW270614   0.519  13.738   2.599
89573SOL     OW70615   8.838  12.076  13.768
89573SOL    HW170616   8.754  12.079  13.813
89573SOL    HW270617   8.898  12.123  13.826
89574SOL     OW70618  12.624  11.962  13.240
89574SOL    HW170619  12.582  12.006  13.166
89574SOL    HW270620  12.555  11.909  13.279
89575SOL     OW70621  10.162   0.703   2.003
89575SOL    HW170622  10.091   0.702   1.938
89575SOL    HW270623  10.195   0.793   2.001
89576SOL     OW70624  13.770   0.636   0.192
89576SOL    HW170625  13.765   0.542   0.174
89576SOL    HW270626  13.706   0.675   0.133
89577SOL     OW70627  13.558   3.714   1.207
89577SOL    HW170628  13.639   3.670   1.235
89577SOL    HW270629  13.572   3.732   1.114
89578SOL     OW70630   3.009   1.508   2.039
89578SOL    HW170631   2.915   1.509   2.059
89578SOL    HW270632   3.016   1.453   1.961
89579SOL     OW70633   6.387   4.480   0.004
89579SOL    HW170634   6.322   4.457   0.070
89579SOL    HW270635   6.465   4.502   0.055
89580SOL     OW70636   8.835   8.060  11.092
89580SOL    HW170637   8.816   8.137  11.037
89580SOL    HW270638   8.856   7.991  11.030
89581SOL     OW70639  13.799   8.631   0.705
89581SOL    HW170640  13.750   8.612   0.784
89581SOL    HW270641  13.774   8.563   0.643
89582SOL     OW70642  11.062   9.276   9.751
89582SOL    HW170643  11.138   9.326   9.720
89582SOL    HW270644  11.020   9.333   9.815
89583SOL     OW70645   4.257   7.925  13.369
89583SOL    HW170646   4.183   7.892  13.319
89583SOL    HW270647   4.260   8.019  13.350
89584SOL     OW70648   4.543  10.966   2.440
89584SOL    HW170649   4.540  10.902   2.369
89584SOL    HW270650   4.468  10.945   2.496
89585SOL     OW70651   2.186  12.893  12.176
89585SOL    HW170652   2.179  12.852  12.263
89585SOL    HW270653   2.122  12.846  12.122
89586SOL     OW70654   0.724  12.992   2.374
89586SOL    HW170655   0.656  12.935   2.339
89586SOL    HW270656   0.805  12.962   2.332
89587SOL     OW70657   0.100  13.104   0.934
89587SOL    HW170658   0.167  13.046   0.971
89587SOL    HW270659   0.033  13.109   1.002
89588SOL     OW70660   9.913  13.582   2.025
89588SOL    HW170661   9.831  13.629   2.041
89588SOL    HW270662   9.924  13.584   1.930
89589SOL     OW70663   3.459   4.186   6.493
89589SOL    HW170664   3.392   4.239   6.450
89589SOL    HW270665   3.473   4.113   6.433
89590SOL     OW70666   8.422  12.769   1.346
89590SOL    HW170667   8.509  12.736   1.368
89590SOL    HW270668   8.423  12.776   1.250
89591SOL     OW70669   3.561  11.819   8.902
89591SOL    HW170670   3.594  11.730   8.895
89591SOL    HW270671   3.474  11.809   8.941
89592SOL     OW70672   6.983   6.243   3.371
89592SOL    HW170673   6.949   6.326   3.403
89592SOL    HW270674   7.067   6.232   3.416
89593SOL     OW70675  11.290   0.039  11.840
89593SOL    HW170676  11.354  14.851  11.820
89593SOL    HW270677  11.289   0.044  11.935
89594SOL     OW70678  13.832   4.229  11.043
89594SOL    HW170679  13.905   4.169  11.060
89594SOL    HW270680  13.818   4.274  11.127
89595SOL     OW70681   0.717   0.471   9.353
89595SOL    HW170682   0.742   0.534   9.421
89595SOL    HW270683   0.800   0.451   9.308
89596SOL     OW70684   8.476   0.363   9.630
89596SOL    HW170685   8.555   0.391   9.584
89596SOL    HW270686   8.488   0.392   9.720
89597SOL     OW70687   5.439  14.509  14.585
89597SOL    HW170688   5.463  14.477  14.498
89597SOL    HW270689   5.496  14.460  14.645
89598SOL     OW70690  11.782  14.173   5.420
89598SOL    HW170691  11.849  14.171   5.488
89598SOL    HW270692  11.788  14.088   5.377
89599SOL     OW70693   6.587   4.880   8.405
89599SOL    HW170694   6.629   4.808   8.453
89599SOL    HW270695   6.624   4.959   8.444
89600SOL     OW70696  10.460   2.372  12.820
89600SOL    HW170697  10.418   2.317  12.753
89600SOL    HW270698  10.433   2.333  12.903
89601SOL     OW70699  13.144  14.320   8.599
89601SOL    HW170700  13.140  14.263   8.676
89601SOL    HW270701  13.054  14.350   8.587
89602SOL     OW70702   8.164   7.019   0.831
89602SOL    HW170703   8.158   7.092   0.892
89602SOL    HW270704   8.075   7.007   0.799
89603SOL     OW70705   8.858   5.501   8.548
89603SOL    HW170706   8.790   5.435   8.540
89603SOL    HW270707   8.844   5.559   8.474
89604SOL     OW70708  10.028   0.749   5.179
89604SOL    HW170709  10.006   0.672   5.231
89604SOL    HW270710   9.947   0.770   5.131
89605SOL     OW70711   5.755   1.107  10.787
89605SOL    HW170712   5.838   1.104  10.835
89605SOL    HW270713   5.779   1.093  10.696
89606SOL     OW70714   6.918   8.790  12.555
89606SOL    HW170715   6.926   8.863  12.493
89606SOL    HW270716   7.004   8.785  12.597
89607SOL     OW70717   9.684   4.512  12.982
89607SOL    HW170718   9.637   4.464  12.913
89607SOL    HW270719   9.772   4.475  12.981
89608SOL     OW70720   6.793   3.068   8.178
89608SOL    HW170721   6.859   2.999   8.182
89608SOL    HW270722   6.840   3.143   8.141
89609SOL     OW70723   2.206  11.446   7.277
89609SOL    HW170724   2.194  11.424   7.370
89609SOL    HW270725   2.187  11.364   7.231
89610SOL     OW70726   5.382   0.764  12.423
89610SOL    HW170727   5.469   0.804  12.415
89610SOL    HW270728   5.396   0.673  12.396
89611SOL     OW70729   6.341   8.361   0.089
89611SOL    HW170730   6.283   8.437   0.093
89611SOL    HW270731   6.423   8.396   0.052
89612SOL     OW70732   5.832   5.107   1.165
89612SOL    HW170733   5.796   5.195   1.156
89612SOL    HW270734   5.917   5.111   1.121
89613SOL     OW70735  10.445   5.770  12.060
89613SOL    HW170736  10.525   5.823  12.067
89613SOL    HW270737  10.378   5.824  12.103
89614SOL     OW70738   4.741   7.628   6.982
89614SOL    HW170739   4.708   7.549   7.023
89614SOL    HW270740   4.765   7.601   6.893
89615SOL     OW70741   8.243  11.628   7.273
89615SOL    HW170742   8.195  11.545   7.271
89615SOL    HW270743   8.317  11.612   7.331
89616SOL     OW70744   2.026  12.210  11.259
89616SOL    HW170745   1.989  12.148  11.322
89616SOL    HW270746   2.079  12.269  11.313
89617SOL     OW70747   5.035   3.945   0.929
89617SOL    HW170748   4.987   3.883   0.874
89617SOL    HW270749   5.078   4.004   0.867
89618SOL     OW70750  12.638   4.999   8.674
89618SOL    HW170751  12.678   5.085   8.691
89618SOL    HW270752  12.685   4.939   8.731
89619SOL     OW70753   0.806   4.876  12.918
89619SOL    HW170754   0.738   4.932  12.880
89619SOL    HW270755   0.762   4.830  12.990
89620SOL     OW70756   8.181  11.207  10.823
89620SOL    HW170757   8.199  11.278  10.884
89620SOL    HW270758   8.194  11.127  10.874
89621SOL     OW70759   7.361  11.412   3.768
89621SOL    HW170760   7.326  11.462   3.695
89621SOL    HW270761   7.306  11.436   3.843
89622SOL     OW70762  13.252   8.451   6.235
89622SOL    HW170763  13.243   8.546   6.232
89622SOL    HW270764  13.327   8.435   6.293
89623SOL     OW70765   9.789  10.436   2.327
89623SOL    HW170766   9.706  10.396   2.304
89623SOL    HW270767   9.847  10.415   2.255
89624SOL     OW70768   0.461   5.029   5.106
89624SOL    HW170769   0.495   5.095   5.045
89624SOL    HW270770   0.367   5.046   5.109
89625SOL     OW70771   4.701   5.678  12.567
89625SOL    HW170772   4.666   5.683  12.479
89625SOL    HW270773   4.785   5.633  12.558
89626SOL     OW70774  12.270  14.716   9.451
89626SOL    HW170775  12.260  14.725   9.546
89626SOL    HW270776  12.220  14.789   9.415
89627SOL     OW70777  11.751   6.821   1.517
89627SOL    HW170778  11.816   6.752   1.532
89627SOL    HW270779  11.800   6.892   1.476
89628SOL     OW70780  12.141   5.592  11.850
89628SOL    HW170781  12.102   5.529  11.910
89628SOL    HW270782  12.218   5.548  11.815
89629SOL     OW70783  11.332   4.846  12.800
89629SOL    HW170784  11.377   4.829  12.883
89629SOL    HW270785  11.382   4.917  12.760
89630SOL     OW70786   5.103   6.812  11.083
89630SOL    HW170787   5.077   6.896  11.046
89630SOL    HW270788   5.026   6.756  11.072
89631SOL     OW70789   8.510   6.955   2.268
89631SOL    HW170790   8.605   6.948   2.262
89631SOL    HW270791   8.491   7.047   2.249
89632SOL     OW70792  11.764   2.370  13.298
89632SOL    HW170793  11.778   2.408  13.211
89632SOL    HW270794  11.704   2.432  13.341
89633SOL     OW70795   9.293   5.248   7.853
89633SOL    HW170796   9.348   5.197   7.793
89633SOL    HW270797   9.298   5.338   7.821
89634SOL     OW70798   2.313   4.275  13.414
89634SOL    HW170799   2.235   4.268  13.359
89634SOL    HW270800   2.366   4.199  13.389
89635SOL     OW70801   0.811   3.042   2.539
89635SOL    HW170802   0.902   3.024   2.515
89635SOL    HW270803   0.772   3.078   2.460
89636SOL     OW70804   5.236   2.171   5.106
89636SOL    HW170805   5.232   2.218   5.189
89636SOL    HW270806   5.148   2.181   5.070
89637SOL     OW70807   3.260   0.216   4.311
89637SOL    HW170808   3.294   0.241   4.397
89637SOL    HW270809   3.338   0.197   4.259
89638SOL     OW70810   6.776  12.559   3.233
89638SOL    HW170811   6.778  12.592   3.323
89638SOL    HW270812   6.738  12.631   3.182
89639SOL     OW70813   1.918   1.200   4.364
89639SOL    HW170814   2.007   1.173   4.342
89639SOL    HW270815   1.876   1.219   4.280
89640SOL     OW70816   5.672   6.377   6.914
89640SOL    HW170817   5.700   6.352   6.826
89640SOL    HW270818   5.752   6.376   6.966
89641SOL     OW70819   8.688   8.838   4.258
89641SOL    HW170820   8.726   8.876   4.179
89641SOL    HW270821   8.740   8.760   4.275
89642SOL     OW70822   5.150   3.358   6.660
89642SOL    HW170823   5.085   3.385   6.725
89642SOL    HW270824   5.110   3.283   6.616
89643SOL     OW70825  12.430  10.678  14.431
89643SOL    HW170826  12.519  10.653  14.406
89643SOL    HW270827  12.383  10.595  14.438
89644SOL     OW70828  12.765  10.864  12.627
89644SOL    HW170829  12.741  10.775  12.602
89644SOL    HW270830  12.692  10.918  12.597
89645SOL     OW70831   5.639  14.861  10.390
89645SOL    HW170832   5.610  14.773  10.368
89645SOL    HW270833   5.723  14.871  10.344
89646SOL     OW70834   6.066   1.747   6.877
89646SOL    HW170835   6.059   1.840   6.856
89646SOL    HW270836   6.034   1.741   6.968
89647SOL     OW70837   5.275   1.846   8.188
89647SOL    HW170838   5.293   1.829   8.280
89647SOL    HW270839   5.335   1.917   8.165
89648SOL     OW70840  12.984   5.844   3.316
89648SOL    HW170841  13.033   5.767   3.290
89648SOL    HW270842  12.893   5.817   3.314
89649SOL     OW70843  12.016   0.158  10.586
89649SOL    HW170844  11.963   0.232  10.555
89649SOL    HW270845  12.081   0.145  10.517
89650SOL     OW70846   2.817   2.039   8.709
89650SOL    HW170847   2.887   2.061   8.648
89650SOL    HW270848   2.823   1.944   8.720
89651SOL     OW70849   7.886   2.751   8.226
89651SOL    HW170850   7.924   2.696   8.295
89651SOL    HW270851   7.856   2.688   8.160
89652SOL     OW70852  10.386   7.068  12.309
89652SOL    HW170853  10.331   7.094  12.236
89652SOL    HW270854  10.474   7.062  12.272
89653SOL     OW70855   1.161  14.400   7.771
89653SOL    HW170856   1.145  14.414   7.864
89653SOL    HW270857   1.106  14.464   7.727
89654SOL     OW70858   4.490   9.774  11.943
89654SOL    HW170859   4.525   9.856  11.908
89654SOL    HW270860   4.534   9.763  12.027
89655SOL     OW70861   6.531   4.145  14.415
89655SOL    HW170862   6.598   4.148  14.347
89655SOL    HW270863   6.581   4.146  14.497
89656SOL     OW70864   0.831   1.203  14.489
89656SOL    HW170865   0.858   1.264  14.558
89656SOL    HW270866   0.776   1.139  14.533
89657SOL     OW70867   2.109   8.133  11.283
89657SOL    HW170868   2.154   8.172  11.209
89657SOL    HW270869   2.021   8.170  11.280
89658SOL     OW70870   3.562   2.722  10.390
89658SOL    HW170871   3.651   2.688  10.390
89658SOL    HW270872   3.529   2.702  10.478
89659SOL     OW70873   2.344  12.576   3.010
89659SOL    HW170874   2.257  12.550   3.040
89659SOL    HW270875   2.329  12.619   2.926
89660SOL     OW70876  12.090   9.586  14.282
89660SOL    HW170877  12.032   9.612  14.210
89660SOL    HW270878  12.164   9.544  14.240
89661SOL     OW70879   1.636   4.156   7.678
89661SOL    HW170880   1.642   4.251   7.669
89661SOL    HW270881   1.618   4.125   7.589
89662SOL     OW70882   7.373   4.901   6.448
89662SOL    HW170883   7.422   4.982   6.429
89662SOL    HW270884   7.438   4.841   6.484
89663SOL     OW70885   0.739   4.549   6.849
89663SOL    HW170886   0.762   4.578   6.761
89663SOL    HW270887   0.647   4.575   6.860
89664SOL     OW70888   0.160   4.206   5.331
89664SOL    HW170889   0.118   4.197   5.245
89664SOL    HW270890   0.243   4.158   5.322
89665SOL     OW70891  13.082   3.937   7.957
89665SOL    HW170892  13.148   3.948   7.889
89665SOL    HW270893  13.126   3.962   8.038
89666SOL     OW70894  11.115  11.576   3.433
89666SOL    HW170895  11.030  11.543   3.405
89666SOL    HW270896  11.099  11.610   3.521
89667SOL     OW70897  14.450   7.960   2.346
89667SOL    HW170898  14.502   7.986   2.270
89667SOL    HW270899  14.507   7.980   2.421
89668SOL     OW70900  12.260   1.986   7.796
89668SOL    HW170901  12.218   1.985   7.882
89668SOL    HW270902  12.252   2.077   7.767
89669SOL     OW70903   9.127  14.676  14.035
89669SOL    HW170904   9.103  14.681  13.943
89669SOL    HW270905   9.068  14.738  14.078
89670SOL     OW70906   3.119   9.290   6.428
89670SOL    HW170907   3.037   9.337   6.442
89670SOL    HW270908   3.181   9.357   6.398
89671SOL     OW70909   8.937  11.955   6.273
89671SOL    HW170910   9.032  11.950   6.265
89671SOL    HW270911   8.912  11.875   6.319
89672SOL     OW70912   6.328  10.647   2.709
89672SOL    HW170913   6.313  10.580   2.643
89672SOL    HW270914   6.242  10.685   2.725
89673SOL     OW70915   3.957  14.594  12.764
89673SOL    HW170916   4.017  14.665  12.787
89673SOL    HW270917   3.872  14.625  12.795
89674SOL     OW70918  12.849   7.749   1.784
89674SOL    HW170919  12.909   7.685   1.745
89674SOL    HW270920  12.905   7.803   1.839
89675SOL     OW70921   3.943   4.809  13.584
89675SOL    HW170922   4.034   4.782  13.600
89675SOL    HW270923   3.894   4.771  13.657
89676SOL     OW70924   7.277   9.756  14.182
89676SOL    HW170925   7.226   9.820  14.133
89676SOL    HW270926   7.236   9.672  14.163
89677SOL     OW70927   8.674   7.117   6.265
89677SOL    HW170928   8.588   7.154   6.248
89677SOL    HW270929   8.701   7.154   6.349
89678SOL     OW70930   6.863  14.642   5.621
89678SOL    HW170931   6.922  14.643   5.545
89678SOL    HW270932   6.912  14.689   5.688
89679SOL     OW70933   2.766   9.349  10.699
89679SOL    HW170934   2.734   9.365  10.610
89679SOL    HW270935   2.717   9.273  10.730
89680SOL     OW70936   5.611   2.113   9.777
89680SOL    HW170937   5.673   2.042   9.761
89680SOL    HW270938   5.533   2.089   9.727
89681SOL     OW70939  11.163   7.826  11.383
89681SOL    HW170940  11.201   7.908  11.351
89681SOL    HW270941  11.130   7.782  11.304
89682SOL     OW70942   0.918   5.471   9.221
89682SOL    HW170943   0.832   5.440   9.194
89682SOL    HW270944   0.902   5.525   9.298
89683SOL     OW70945   7.963   3.123  14.827
89683SOL    HW170946   7.955   3.028  14.840
89683SOL    HW270947   7.883   3.148  14.780
89684SOL     OW70948  13.472  14.295  11.270
89684SOL    HW170949  13.440  14.290  11.360
89684SOL    HW270950  13.399  14.262  11.217
89685SOL     OW70951  13.587   9.310   7.534
89685SOL    HW170952  13.621   9.260   7.459
89685SOL    HW270953  13.630   9.395   7.527
89686SOL     OW70954   0.145   9.795   9.362
89686SOL    HW170955   0.125   9.884   9.393
89686SOL    HW270956   0.068   9.769   9.312
89687SOL     OW70957   0.917   4.184   3.775
89687SOL    HW170958   0.875   4.101   3.753
89687SOL    HW270959   0.933   4.227   3.691
89688SOL     OW70960   4.810   6.856  10.083
89688SOL    HW170961   4.723   6.819  10.068
89688SOL    HW270962   4.866   6.780  10.097
89689SOL     OW70963   3.639   3.960  13.048
89689SOL    HW170964   3.658   3.950  13.141
89689SOL    HW270965   3.617   3.871  13.018
89690SOL     OW70966  13.038   4.687   1.847
89690SOL    HW170967  13.041   4.592   1.850
89690SOL    HW270968  13.117   4.715   1.893
89691SOL     OW70969   2.566   7.453  14.664
89691SOL    HW170970   2.549   7.414  14.750
89691SOL    HW270971   2.495   7.420  14.609
89692SOL     OW70972   1.679   3.949   9.695
89692SOL    HW170973   1.704   3.888   9.764
89692SOL    HW270974   1.612   3.903   9.645
89693SOL     OW70975  12.614  11.350   5.903
89693SOL    HW170976  12.561  11.406   5.846
89693SOL    HW270977  12.557  11.276   5.923
89694SOL     OW70978   8.784   5.099  13.464
89694SOL    HW170979   8.698   5.082  13.425
89694SOL    HW270980   8.846   5.083  13.393
89695SOL     OW70981  11.825   3.264   7.197
89695SOL    HW170982  11.878   3.283   7.274
89695SOL    HW270983  11.758   3.202   7.227
89696SOL     OW70984   5.214  11.138   0.559
89696SOL    HW170985   5.150  11.117   0.491
89696SOL    HW270986   5.162  11.144   0.639
89697SOL     OW70987  11.284   7.577   3.293
89697SOL    HW170988  11.290   7.482   3.282
89697SOL    HW270989  11.217   7.604   3.230
89698SOL     OW70990   8.318   4.420   3.843
89698SOL    HW170991   8.267   4.485   3.795
89698SOL    HW270992   8.253   4.371   3.893
89699SOL     OW70993  11.514  12.813   8.426
89699SOL    HW170994  11.576  12.885   8.432
89699SOL    HW270995  11.533  12.771   8.343
89700SOL     OW70996   1.263   0.469  14.557
89700SOL    HW170997   1.178   0.441  14.591
89700SOL    HW270998   1.294   0.534  14.621
89701SOL     OW70999   7.193   2.887  12.687
89701SOL    HW171000   7.220   2.855  12.773
89701SOL    HW271001   7.109   2.930  12.703
89702SOL     OW71002   8.780   6.546  14.370
89702SOL    HW171003   8.701   6.520  14.419
89702SOL    HW271004   8.797   6.636  14.399
89703SOL     OW71005   9.270   7.379   7.866
89703SOL    HW171006   9.243   7.355   7.777
89703SOL    HW271007   9.213   7.327   7.923
89704SOL     OW71008  10.618   3.417   2.832
89704SOL    HW171009  10.696   3.429   2.777
89704SOL    HW271010  10.624   3.488   2.896
89705SOL     OW71011   6.231  11.899   5.750
89705SOL    HW171012   6.245  11.904   5.655
89705SOL    HW271013   6.317  11.877   5.786
89706SOL     OW71014   3.033  10.214   5.759
89706SOL    HW171015   3.083  10.273   5.703
89706SOL    HW271016   3.048  10.127   5.722
89707SOL     OW71017   4.745  13.497   3.173
89707SOL    HW171018   4.781  13.529   3.090
89707SOL    HW271019   4.790  13.548   3.240
89708SOL     OW71020   9.872  10.429   5.842
89708SOL    HW171021   9.790  10.476   5.851
89708SOL    HW271022   9.939  10.494   5.863
89709SOL     OW71023   6.328  13.779  13.423
89709SOL    HW171024   6.237  13.767  13.451
89709SOL    HW271025   6.344  13.873  13.435
89710SOL     OW71026   1.110   8.671   6.330
89710SOL    HW171027   1.089   8.693   6.421
89710SOL    HW271028   1.025   8.670   6.286
89711SOL     OW71029   7.824   1.209   4.831
89711SOL    HW171030   7.806   1.244   4.743
89711SOL    HW271031   7.796   1.279   4.890
89712SOL     OW71032   9.023  14.823   0.127
89712SOL    HW171033   9.098  14.815   0.068
89712SOL    HW271034   9.061  14.830   0.214
89713SOL     OW71035   6.151   0.589   0.447
89713SOL    HW171036   6.190   0.504   0.429
89713SOL    HW271037   6.184   0.647   0.379
89714SOL     OW71038  10.549   6.468   0.431
89714SOL    HW171039  10.632   6.450   0.475
89714SOL    HW271040  10.525   6.385   0.390
89715SOL     OW71041   0.687   1.766  10.016
89715SOL    HW171042   0.594   1.744  10.015
89715SOL    HW271043   0.730   1.689   9.979
89716SOL     OW71044   6.223  14.049   0.096
89716SOL    HW171045   6.198  13.990   0.166
89716SOL    HW271046   6.294  14.103   0.133
89717SOL     OW71047   4.011   7.750   2.799
89717SOL    HW171048   3.919   7.770   2.818
89717SOL    HW271049   4.008   7.665   2.754
89718SOL     OW71050   5.459   3.406   0.386
89718SOL    HW171051   5.546   3.431   0.355
89718SOL    HW271052   5.450   3.451   0.470
89719SOL     OW71053  10.574  14.641   6.886
89719SOL    HW171054  10.594  14.667   6.796
89719SOL    HW271055  10.510  14.705   6.916
89720SOL     OW71056   5.844   2.694   6.626
89720SOL    HW171057   5.763   2.744   6.625
89720SOL    HW271058   5.841   2.644   6.707
89721SOL     OW71059   6.128   7.657   7.947
89721SOL    HW171060   6.135   7.747   7.981
89721SOL    HW271061   6.152   7.602   8.022
89722SOL     OW71062   4.343   1.956   5.373
89722SOL    HW171063   4.284   1.952   5.298
89722SOL    HW271064   4.423   1.995   5.338
89723SOL     OW71065   4.830   1.792   4.911
89723SOL    HW171066   4.793   1.840   4.837
89723SOL    HW271067   4.915   1.832   4.927
89724SOL     OW71068  11.396  11.676  11.435
89724SOL    HW171069  11.441  11.614  11.377
89724SOL    HW271070  11.378  11.752  11.380
89725SOL     OW71071   1.811   8.808   3.577
89725SOL    HW171072   1.852   8.858   3.506
89725SOL    HW271073   1.809   8.869   3.651
89726SOL     OW71074   8.443   7.415  10.752
89726SOL    HW171075   8.440   7.377  10.664
89726SOL    HW271076   8.468   7.343  10.809
89727SOL     OW71077  11.353   6.989   5.004
89727SOL    HW171078  11.325   6.898   5.014
89727SOL    HW271079  11.405   6.989   4.924
89728SOL     OW71080   0.461   8.789   7.632
89728SOL    HW171081   0.437   8.878   7.659
89728SOL    HW271082   0.488   8.799   7.541
89729SOL     OW71083   0.891   2.642  11.489
89729SOL    HW171084   0.949   2.703  11.445
89729SOL    HW271085   0.805   2.656  11.449
89730SOL     OW71086  11.288  13.321   1.069
89730SOL    HW171087  11.335  13.362   1.142
89730SOL    HW271088  11.349  13.328   0.995
89731SOL     OW71089   6.262   2.020  13.608
89731SOL    HW171090   6.245   2.109  13.639
89731SOL    HW271091   6.211   1.964  13.667
89732SOL     OW71092   2.646  11.374   7.271
89732SOL    HW171093   2.714  11.350   7.335
89732SOL    HW271094   2.571  11.320   7.294
89733SOL     OW71095  10.775   1.127   8.443
89733SOL    HW171096  10.838   1.129   8.515
89733SOL    HW271097  10.776   1.217   8.409
89734SOL     OW71098   7.006   3.644  12.544
89734SOL    HW171099   7.019   3.550  12.549
89734SOL    HW271100   7.078   3.675  12.488
89735SOL     OW71101   0.100   8.821   2.641
89735SOL    HW171102   0.040   8.811   2.715
89735SOL    HW271103   0.049   8.867   2.574
89736SOL     OW71104  12.175  13.047   5.535
89736SOL    HW171105  12.080  13.055   5.538
89736SOL    HW271106  12.193  12.959   5.567
89737SOL     OW71107   2.775   6.130   3.372
89737SOL    HW171108   2.732   6.054   3.333
89737SOL    HW271109   2.869   6.112   3.362
89738SOL     OW71110   4.150  13.519   6.822
89738SOL    HW171111   4.089  13.522   6.748
89738SOL    HW271112   4.157  13.610   6.851
89739SOL     OW71113   5.353  14.767  12.913
89739SOL    HW171114   5.385  14.737  12.828
89739SOL    HW271115   5.426  14.752  12.973
89740SOL     OW71116  10.908   1.383   8.729
89740SOL    HW171117  10.878   1.473   8.723
89740SOL    HW271118  10.933   1.371   8.820
89741SOL     OW71119   2.557  13.263   9.012
89741SOL    HW171120   2.594  13.245   9.099
89741SOL    HW271121   2.598  13.345   8.986
89742SOL     OW71122   0.121   7.495  11.053
89742SOL    HW171123   0.143   7.539  10.971
89742SOL    HW271124   0.180   7.533  11.118
89743SOL     OW71125  10.514  10.960   4.379
89743SOL    HW171126  10.486  10.892   4.439
89743SOL    HW271127  10.594  10.926   4.339
89744SOL     OW71128   8.231   4.767  12.009
89744SOL    HW171129   8.238   4.755  11.915
89744SOL    HW271130   8.292   4.704  12.047
89745SOL     OW71131   3.451   2.019  12.544
89745SOL    HW171132   3.520   2.072  12.583
89745SOL    HW271133   3.373   2.074  12.549
89746SOL     OW71134  13.032   1.799   8.751
89746SOL    HW171135  13.047   1.893   8.741
89746SOL    HW271136  12.945   1.784   8.714
89747SOL     OW71137   8.924  14.234   3.454
89747SOL    HW171138   8.982  14.158   3.461
89747SOL    HW271139   8.847  14.201   3.407
89748SOL     OW71140   9.752   1.247   5.688
89748SOL    HW171141   9.747   1.311   5.760
89748SOL    HW271142   9.785   1.167   5.730
89749SOL     OW71143   0.979  10.791   8.254
89749SOL    HW171144   0.993  10.710   8.304
89749SOL    HW271145   0.903  10.831   8.296
89750SOL     OW71146  14.340   5.067  11.858
89750SOL    HW171147  14.405   5.048  11.925
89750SOL    HW271148  14.282   5.132  11.898
89751SOL     OW71149   7.880   8.469   0.847
89751SOL    HW171150   7.868   8.374   0.852
89751SOL    HW271151   7.799   8.506   0.882
89752SOL     OW71152   8.311   9.088   6.375
89752SOL    HW171153   8.354   9.024   6.431
89752SOL    HW271154   8.218   9.065   6.378
89753SOL     OW71155   9.891   7.474  10.468
89753SOL    HW171156   9.824   7.527  10.425
89753SOL    HW271157   9.968   7.532  10.472
89754SOL     OW71158   5.849   1.641   9.459
89754SOL    HW171159   5.791   1.581   9.411
89754SOL    HW271160   5.822   1.728   9.431
89755SOL     OW71161   6.810   9.733   0.891
89755SOL    HW171162   6.792   9.687   0.809
89755SOL    HW271163   6.891   9.781   0.873
89756SOL     OW71164   5.627   9.318  13.304
89756SOL    HW171165   5.538   9.283  13.314
89756SOL    HW271166   5.614   9.408  13.276
89757SOL     OW71167   6.773   3.738  11.671
89757SOL    HW171168   6.831   3.685  11.616
89757SOL    HW271169   6.779   3.826  11.634
89758SOL     OW71170   3.180   6.339   8.498
89758SOL    HW171171   3.249   6.272   8.501
89758SOL    HW271172   3.191   6.388   8.579
89759SOL     OW71173  11.364  14.855   4.759
89759SOL    HW171174  11.397   0.058   4.793
89759SOL    HW271175  11.440  14.812   4.721
89760SOL     OW71176   3.040   6.238  14.251
89760SOL    HW171177   2.956   6.192  14.261
89760SOL    HW271178   3.029   6.318  14.303
89761SOL     OW71179   7.801   4.154   6.283
89761SOL    HW171180   7.709   4.131   6.301
89761SOL    HW271181   7.827   4.207   6.358
89762SOL     OW71182   3.511   0.459   0.530
89762SOL    HW171183   3.512   0.428   0.620
89762SOL    HW271184   3.575   0.403   0.485
89763SOL     OW71185   3.528   4.087   0.171
89763SOL    HW171186   3.538   4.042   0.087
89763SOL    HW271187   3.436   4.076   0.193
89764SOL     OW71188  14.637  12.348   0.396
89764SOL    HW171189  14.644  12.402   0.317
89764SOL    HW271190  14.592  12.269   0.367
89765SOL     OW71191  13.522   0.873   0.054
89765SOL    HW171192  13.614   0.897   0.065
89765SOL    HW271193  13.479   0.954   0.025
89766SOL     OW71194   6.798  14.799  10.269
89766SOL    HW171195   6.878  14.747  10.271
89766SOL    HW271196   6.775  14.813  10.361
89767SOL     OW71197  11.862   1.519  12.362
89767SOL    HW171198  11.892   1.554  12.278
89767SOL    HW271199  11.933   1.539  12.423
89768SOL     OW71200   3.368   8.122   8.172
89768SOL    HW171201   3.451   8.159   8.142
89768SOL    HW271202   3.309   8.133   8.097
89769SOL     OW71203   6.114  11.407  11.976
89769SOL    HW171204   6.155  11.492  11.962
89769SOL    HW271205   6.042  11.424  12.036
89770SOL     OW71206   3.287   8.002   1.483
89770SOL    HW171207   3.210   7.994   1.539
89770SOL    HW271208   3.360   8.010   1.545
89771SOL     OW71209   3.253   5.049   3.618
89771SOL    HW171210   3.321   5.044   3.551
89771SOL    HW271211   3.253   5.141   3.646
89772SOL     OW71212   1.164  11.035  14.049
89772SOL    HW171213   1.186  10.972  13.981
89772SOL    HW271214   1.092  11.087  14.012
89773SOL     OW71215  13.931  11.752   2.872
89773SOL    HW171216  14.021  11.781   2.859
89773SOL    HW271217  13.904  11.717   2.787
89774SOL     OW71218  13.111   3.409   0.564
89774SOL    HW171219  13.146   3.323   0.542
89774SOL    HW271220  13.038   3.390   0.623
89775SOL     OW71221   6.617   4.968  11.009
89775SOL    HW171222   6.568   4.927  11.081
89775SOL    HW271223   6.561   4.955  10.932
89776SOL     OW71224  13.141   3.231  11.066
89776SOL    HW171225  13.182   3.217  11.152
89776SOL    HW271226  13.182   3.311  11.033
89777SOL     OW71227   2.398   5.053   4.579
89777SOL    HW171228   2.399   4.966   4.617
89777SOL    HW271229   2.349   5.107   4.641
89778SOL     OW71230  14.054   1.538   3.801
89778SOL    HW171231  14.026   1.586   3.723
89778SOL    HW271232  13.989   1.560   3.868
89779SOL     OW71233   1.524   2.406  11.327
89779SOL    HW171234   1.434   2.436  11.338
89779SOL    HW271235   1.520   2.344  11.254
89780SOL     OW71236   7.770   3.772  13.661
89780SOL    HW171237   7.801   3.704  13.720
89780SOL    HW271238   7.845   3.791  13.604
89781SOL     OW71239   1.301   1.872   3.060
89781SOL    HW171240   1.292   1.798   2.999
89781SOL    HW271241   1.353   1.936   3.012
89782SOL     OW71242  10.329  10.332   9.174
89782SOL    HW171243  10.242  10.359   9.204
89782SOL    HW271244  10.390  10.390   9.220
89783SOL     OW71245   5.751   3.262  10.492
89783SOL    HW171246   5.794   3.191  10.539
89783SOL    HW271247   5.817   3.294  10.431
89784SOL     OW71248   6.940   8.494   3.389
89784SOL    HW171249   6.901   8.427   3.444
89784SOL    HW271250   6.920   8.577   3.433
89785SOL     OW71251  11.083   0.613   2.203
89785SOL    HW171252  11.004   0.657   2.173
89785SOL    HW271253  11.063   0.583   2.291
89786SOL     OW71254   8.943   4.046   2.600
89786SOL    HW171255   8.887   4.066   2.675
89786SOL    HW271256   8.924   4.116   2.537
89787SOL     OW71257   0.114   2.529   1.810
89787SOL    HW171258   0.060   2.490   1.742
89787SOL    HW271259   0.192   2.559   1.763
89788SOL     OW71260   5.135  11.121   2.916
89788SOL    HW171261   5.225  11.091   2.922
89788SOL    HW271262   5.141  11.210   2.882
89789SOL     OW71263   5.636   1.206   5.854
89789SOL    HW171264   5.711   1.237   5.905
89789SOL    HW271265   5.605   1.283   5.807
89790SOL     OW71266  11.854  11.441   0.128
89790SOL    HW171267  11.771  11.488   0.120
89790SOL    HW271268  11.833  11.351   0.105
89791SOL     OW71269   4.648   7.546   3.751
89791SOL    HW171270   4.681   7.603   3.682
89791SOL    HW271271   4.590   7.602   3.803
89792SOL     OW71272   8.971  10.509  13.794
89792SOL    HW171273   8.980  10.439  13.729
89792SOL    HW271274   8.882  10.500  13.828
89793SOL     OW71275  13.321  14.087   0.390
89793SOL    HW171276  13.373  14.052   0.318
89793SOL    HW271277  13.385  14.114   0.456
89794SOL     OW71278   3.395  12.712   8.401
89794SOL    HW171279   3.318  12.733   8.348
89794SOL    HW271280   3.425  12.797   8.433
89795SOL     OW71281   6.558  13.711   1.334
89795SOL    HW171282   6.624  13.645   1.355
89795SOL    HW271283   6.480  13.683   1.383
89796SOL     OW71284   2.023   2.264  12.818
89796SOL    HW171285   2.072   2.346  12.824
89796SOL    HW271286   1.931   2.290  12.818
89797SOL     OW71287   0.890   5.197   9.612
89797SOL    HW171288   0.938   5.156   9.685
89797SOL    HW271289   0.915   5.290   9.617
89798SOL     OW71290   5.504   2.703   4.140
89798SOL    HW171291   5.463   2.789   4.148
89798SOL    HW271292   5.467   2.652   4.212
89799SOL     OW71293   3.008   1.131  14.184
89799SOL    HW171294   3.051   1.186  14.119
89799SOL    HW271295   3.074   1.065  14.207
89800SOL     OW71296   7.935   6.829  10.314
89800SOL    HW171297   7.886   6.853  10.392
89800SOL    HW271298   7.970   6.742  10.333
89801SOL     OW71299  12.290  13.403   6.606
89801SOL    HW171300  12.226  13.340   6.638
89801SOL    HW271301  12.370  13.352   6.591
89802SOL     OW71302  14.777   5.818   2.278
89802SOL    HW171303  14.811   5.776   2.199
89802SOL    HW271304  14.816   5.905   2.277
89803SOL     OW71305  12.904   8.599   6.591
89803SOL    HW171306  12.928   8.615   6.500
89803SOL    HW271307  12.970   8.646   6.642
89804SOL     OW71308   4.001   1.810   7.864
89804SOL    HW171309   4.073   1.757   7.831
89804SOL    HW271310   3.954   1.838   7.785
89805SOL     OW71311   6.937   4.125   3.916
89805SOL    HW171312   6.993   4.057   3.952
89805SOL    HW271313   6.968   4.137   3.826
89806SOL     OW71314   5.820   0.061  14.760
89806SOL    HW171315   5.843   0.126  14.693
89806SOL    HW271316   5.761   0.000  14.714
89807SOL     OW71317   7.659   1.831   9.880
89807SOL    HW171318   7.616   1.838   9.796
89807SOL    HW271319   7.594   1.860   9.944
89808SOL     OW71320  10.122   4.658   9.741
89808SOL    HW171321  10.063   4.731   9.758
89808SOL    HW271322  10.196   4.698   9.694
89809SOL     OW71323   8.924   3.494   0.773
89809SOL    HW171324   8.975   3.469   0.849
89809SOL    HW271325   8.868   3.418   0.755
89810SOL     OW71326   5.259  11.965   9.083
89810SOL    HW171327   5.200  11.936   9.153
89810SOL    HW271328   5.247  11.898   9.014
89811SOL     OW71329  14.434   8.534   3.971
89811SOL    HW171330  14.369   8.508   4.036
89811SOL    HW271331  14.475   8.613   4.007
89812SOL     OW71332   0.800  11.979  12.175
89812SOL    HW171333   0.875  11.969  12.233
89812SOL    HW271334   0.836  12.017  12.095
89813SOL     OW71335   4.895   9.253   9.088
89813SOL    HW171336   4.952   9.187   9.128
89813SOL    HW271337   4.911   9.244   8.994
89814SOL     OW71338   6.949  12.926   4.733
89814SOL    HW171339   7.023  12.896   4.681
89814SOL    HW271340   6.924  13.010   4.695
89815SOL     OW71341   4.994  13.226  14.120
89815SOL    HW171342   5.018  13.253  14.209
89815SOL    HW271343   5.070  13.175  14.090
89816SOL     OW71344  13.499   5.048   0.987
89816SOL    HW171345  13.404   5.039   0.981
89816SOL    HW271346  13.514   5.092   1.070
89817SOL     OW71347   8.446   3.038  10.029
89817SOL    HW171348   8.434   3.095   9.954
89817SOL    HW271349   8.358   3.025  10.064
89818SOL     OW71350  11.557   9.554   2.946
89818SOL    HW171351  11.552   9.480   3.006
89818SOL    HW271352  11.574   9.514   2.861
89819SOL     OW71353   5.203   2.186   2.894
89819SOL    HW171354   5.265   2.175   2.966
89819SOL    HW271355   5.257   2.206   2.818
89820SOL     OW71356   1.069  10.253  13.313
89820SOL    HW171357   1.134  10.183  13.320
89820SOL    HW271358   1.002  10.216  13.255
89821SOL     OW71359  12.270   1.135   6.930
89821SOL    HW171360  12.223   1.053   6.944
89821SOL    HW271361  12.212   1.187   6.875
89822SOL     OW71362   1.537  13.961   5.043
89822SOL    HW171363   1.479  14.029   5.007
89822SOL    HW271364   1.613  14.009   5.075
89823SOL     OW71365  10.504   2.569  13.636
89823SOL    HW171366  10.419   2.609  13.654
89823SOL    HW271367  10.485   2.477  13.619
89824SOL     OW71368   1.537   3.142   3.806
89824SOL    HW171369   1.528   3.187   3.722
89824SOL    HW271370   1.630   3.118   3.810
89825SOL     OW71371   1.786   6.501  10.166
89825SOL    HW171372   1.731   6.579  10.153
89825SOL    HW271373   1.731   6.428  10.136
89826SOL     OW71374   2.724   6.618  11.035
89826SOL    HW171375   2.663   6.621  11.109
89826SOL    HW271376   2.804   6.579  11.071
89827SOL     OW71377   8.217   8.004  12.544
89827SOL    HW171378   8.210   8.066  12.617
89827SOL    HW271379   8.269   8.050  12.478
89828SOL     OW71380  12.162  10.831  13.869
89828SOL    HW171381  12.074  10.796  13.878
89828SOL    HW271382  12.150  10.921  13.838
89829SOL     OW71383   9.318   6.816   3.422
89829SOL    HW171384   9.335   6.783   3.510
89829SOL    HW271385   9.394   6.870   3.401
89830SOL     OW71386   6.217   6.899   7.154
89830SOL    HW171387   6.308   6.883   7.129
89830SOL    HW271388   6.217   6.988   7.189
89831SOL     OW71389   3.586   8.904   1.769
89831SOL    HW171390   3.659   8.873   1.822
89831SOL    HW271391   3.510   8.857   1.804
89832SOL     OW71392   6.301  11.872  10.301
89832SOL    HW171393   6.227  11.828  10.343
89832SOL    HW271394   6.322  11.945  10.360
89833SOL     OW71395  13.478   8.778   7.679
89833SOL    HW171396  13.405   8.836   7.655
89833SOL    HW271397  13.553   8.837   7.690
89834SOL     OW71398   3.112   5.665   2.922
89834SOL    HW171399   3.183   5.609   2.890
89834SOL    HW271400   3.091   5.722   2.848
89835SOL     OW71401  12.955  12.944  12.838
89835SOL    HW171402  13.022  12.912  12.778
89835SOL    HW271403  12.914  13.017  12.792
89836SOL     OW71404  10.516   2.822   9.330
89836SOL    HW171405  10.576   2.833   9.256
89836SOL    HW271406  10.573   2.815   9.406
89837SOL     OW71407   9.131   3.986   6.555
89837SOL    HW171408   9.212   3.939   6.532
89837SOL    HW271409   9.157   4.078   6.557
89838SOL     OW71410   5.549   3.185   6.112
89838SOL    HW171411   5.470   3.136   6.089
89838SOL    HW271412   5.517   3.264   6.155
89839SOL     OW71413   8.293   9.766   4.298
89839SOL    HW171414   8.276   9.706   4.370
89839SOL    HW271415   8.221   9.750   4.236
89840SOL     OW71416   0.941   5.976   3.162
89840SOL    HW171417   0.923   5.963   3.255
89840SOL    HW271418   1.037   5.976   3.155
89841SOL     OW71419  10.081  12.492   3.766
89841SOL    HW171420   9.991  12.460   3.771
89841SOL    HW271421  10.135  12.416   3.787
89842SOL     OW71422  14.824   2.808   2.954
89842SOL    HW171423  14.870   2.727   2.974
89842SOL    HW271424  14.866   2.841   2.875
89843SOL     OW71425  11.985   7.020  13.859
89843SOL    HW171426  11.965   6.926  13.855
89843SOL    HW271427  11.993   7.038  13.953
89844SOL     OW71428   2.040   7.490   9.747
89844SOL    HW171429   2.062   7.567   9.695
89844SOL    HW271430   2.103   7.423   9.718
89845SOL     OW71431   6.569  11.641   5.046
89845SOL    HW171432   6.637  11.708   5.048
89845SOL    HW271433   6.502  11.676   4.988
89846SOL     OW71434   2.665   2.767   3.423
89846SOL    HW171435   2.726   2.752   3.351
89846SOL    HW271436   2.683   2.857   3.451
89847SOL     OW71437   5.867  11.206   3.912
89847SOL    HW171438   5.800  11.138   3.907
89847SOL    HW271439   5.871  11.243   3.824
89848SOL     OW71440   7.275   3.128   4.733
89848SOL    HW171441   7.234   3.105   4.816
89848SOL    HW271442   7.248   3.219   4.717
89849SOL     OW71443  14.717  14.423  12.931
89849SOL    HW171444  14.779  14.444  13.000
89849SOL    HW271445  14.738  14.333  12.907
89850SOL     OW71446   6.631   8.560   7.246
89850SOL    HW171447   6.659   8.497   7.313
89850SOL    HW271448   6.637   8.645   7.289
89851SOL     OW71449   1.915   1.865   4.841
89851SOL    HW171450   1.839   1.892   4.893
89851SOL    HW271451   1.972   1.942   4.841
89852SOL     OW71452  14.056  12.002   6.073
89852SOL    HW171453  14.086  11.916   6.100
89852SOL    HW271454  13.972  12.014   6.118
89853SOL     OW71455   4.170   6.602   2.046
89853SOL    HW171456   4.197   6.631   2.133
89853SOL    HW271457   4.253   6.579   2.002
89854SOL     OW71458   3.491   6.489   5.984
89854SOL    HW171459   3.518   6.581   5.986
89854SOL    HW271460   3.561   6.442   6.028
89855SOL     OW71461   9.988   3.142   6.178
89855SOL    HW171462   9.977   3.237   6.189
89855SOL    HW271463  10.075   3.124   6.212
89856SOL     OW71464   8.164   8.643   6.493
89856SOL    HW171465   8.093   8.606   6.440
89856SOL    HW271466   8.120   8.702   6.554
89857SOL     OW71467  10.012  13.890   1.936
89857SOL    HW171468   9.999  13.818   1.998
89857SOL    HW271469   9.927  13.934   1.932
89858SOL     OW71470  10.612  14.333  12.805
89858SOL    HW171471  10.662  14.386  12.866
89858SOL    HW271472  10.547  14.393  12.768
89859SOL     OW71473  14.168   2.944   6.456
89859SOL    HW171474  14.105   2.913   6.390
89859SOL    HW271475  14.244   2.887   6.444
89860SOL     OW71476   6.954   3.323   5.901
89860SOL    HW171477   6.969   3.395   5.961
89860SOL    HW271478   6.859   3.311   5.900
89861SOL     OW71479  13.756  14.278  12.335
89861SOL    HW171480  13.834  14.329  12.357
89861SOL    HW271481  13.788  14.188  12.326
89862SOL     OW71482   0.159   1.680   2.596
89862SOL    HW171483   0.155   1.677   2.501
89862SOL    HW271484   0.201   1.764   2.616
89863SOL     OW71485   7.614  14.126   1.748
89863SOL    HW171486   7.647  14.175   1.673
89863SOL    HW271487   7.685  14.066   1.770
89864SOL     OW71488   6.521  12.275   4.556
89864SOL    HW171489   6.514  12.352   4.613
89864SOL    HW271490   6.487  12.306   4.472
89865SOL     OW71491   7.870   3.766   5.944
89865SOL    HW171492   7.838   3.768   6.034
89865SOL    HW271493   7.964   3.784   5.952
89866SOL     OW71494  14.829   2.649  13.133
89866SOL    HW171495   0.013   2.718  13.114
89866SOL    HW271496  14.745   2.694  13.136
89867SOL     OW71497   8.567   2.370  11.061
89867SOL    HW171498   8.586   2.464  11.054
89867SOL    HW271499   8.512   2.362  11.139
89868SOL     OW71500   0.133   7.493  12.518
89868SOL    HW171501   0.076   7.500  12.441
89868SOL    HW271502   0.203   7.556  12.502
89869SOL     OW71503   0.321  13.385   5.333
89869SOL    HW171504   0.275  13.309   5.296
89869SOL    HW271505   0.351  13.355   5.419
89870SOL     OW71506  13.398  14.782  10.182
89870SOL    HW171507  13.437  14.763  10.268
89870SOL    HW271508  13.446  14.726  10.121
89871SOL     OW71509  10.508   0.356   1.061
89871SOL    HW171510  10.424   0.312   1.072
89871SOL    HW271511  10.485   0.441   1.021
89872SOL     OW71512  12.644   0.658  14.380
89872SOL    HW171513  12.567   0.604  14.393
89872SOL    HW271514  12.712   0.597  14.352
89873SOL     OW71515   7.204   1.069   8.866
89873SOL    HW171516   7.219   0.982   8.903
89873SOL    HW271517   7.270   1.078   8.798
89874SOL     OW71518   1.731   6.824   9.049
89874SOL    HW171519   1.672   6.777   8.991
89874SOL    HW271520   1.690   6.819   9.135
89875SOL     OW71521   9.185   3.978   0.431
89875SOL    HW171522   9.217   4.040   0.366
89875SOL    HW271523   9.175   3.896   0.382
89876SOL     OW71524   4.707   3.325   0.746
89876SOL    HW171525   4.792   3.324   0.702
89876SOL    HW271526   4.672   3.237   0.730
89877SOL     OW71527   8.706  11.179   6.006
89877SOL    HW171528   8.679  11.103   6.058
89877SOL    HW271529   8.634  11.191   5.944
89878SOL     OW71530  14.717   0.205  11.689
89878SOL    HW171531  14.758   0.130  11.647
89878SOL    HW271532  14.715   0.183  11.782
89879SOL     OW71533  11.827  11.712  10.613
89879SOL    HW171534  11.827  11.639  10.675
89879SOL    HW271535  11.735  11.737  10.606
89880SOL     OW71536   0.537  10.105   2.703
89880SOL    HW171537   0.502  10.110   2.792
89880SOL    HW271538   0.578  10.019   2.698
89881SOL     OW71539   2.556  14.258   8.688
89881SOL    HW171540   2.622  14.255   8.618
89881SOL    HW271541   2.482  14.303   8.648
89882SOL     OW71542   5.333   0.957   3.209
89882SOL    HW171543   5.281   0.922   3.136
89882SOL    HW271544   5.350   1.048   3.186
89883SOL     OW71545  12.255   4.688  14.860
89883SOL    HW171546  12.217   4.684  14.772
89883SOL    HW271547  12.220   4.769   0.017
89884SOL     OW71548   5.375   0.094   7.353
89884SOL    HW171549   5.412   0.160   7.294
89884SOL    HW271550   5.282   0.117   7.358
89885SOL     OW71551   7.256  12.915   1.823
89885SOL    HW171552   7.239  12.972   1.748
89885SOL    HW271553   7.210  12.834   1.802
89886SOL     OW71554   6.629   8.159   5.342
89886SOL    HW171555   6.592   8.071   5.332
89886SOL    HW271556   6.612   8.182   5.433
89887SOL     OW71557  14.534  10.509   3.228
89887SOL    HW171558  14.484  10.572   3.177
89887SOL    HW271559  14.615  10.498   3.178
89888SOL     OW71560   7.251  10.038  13.515
89888SOL    HW171561   7.181  10.100  13.535
89888SOL    HW271562   7.274   9.999  13.600
89889SOL     OW71563  12.434   1.093  14.802
89889SOL    HW171564  12.485   1.174  14.800
89889SOL    HW271565  12.396   1.090   0.010
89890SOL     OW71566   4.132   4.966  10.599
89890SOL    HW171567   4.180   4.891  10.632
89890SOL    HW271568   4.185   5.000  10.528
89891SOL     OW71569  13.548   3.954  14.447
89891SOL    HW171570  13.501   3.998  14.518
89891SOL    HW271571  13.526   3.861  14.459
89892SOL     OW71572  14.384   2.509   7.475
89892SOL    HW171573  14.392   2.423   7.516
89892SOL    HW271574  14.395   2.571   7.546
89893SOL     OW71575   4.437  14.118   0.874
89893SOL    HW171576   4.349  14.132   0.911
89893SOL    HW271577   4.487  14.195   0.902
89894SOL     OW71578  12.135   9.042   1.291
89894SOL    HW171579  12.116   8.999   1.208
89894SOL    HW271580  12.186   9.119   1.267
89895SOL     OW71581  14.132  14.645   1.865
89895SOL    HW171582  14.075  14.594   1.808
89895SOL    HW271583  14.099  14.735   1.858
89896SOL     OW71584   1.393   1.292   5.043
89896SOL    HW171585   1.459   1.360   5.059
89896SOL    HW271586   1.443   1.217   5.011
89897SOL     OW71587   6.029   9.243   7.363
89897SOL    HW171588   5.951   9.276   7.407
89897SOL    HW271589   6.096   9.241   7.432
89898SOL     OW71590   5.489   8.021   5.012
89898SOL    HW171591   5.434   8.084   4.967
89898SOL    HW271592   5.535   8.072   5.079
89899SOL     OW71593   5.162   0.381   1.679
89899SOL    HW171594   5.141   0.290   1.701
89899SOL    HW271595   5.217   0.374   1.601
89900SOL     OW71596   6.834  12.857   3.776
89900SOL    HW171597   6.912  12.815   3.810
89900SOL    HW271598   6.767  12.788   3.775
89901SOL     OW71599   3.335   4.336   1.817
89901SOL    HW171600   3.302   4.246   1.810
89901SOL    HW271601   3.424   4.327   1.850
89902SOL     OW71602   2.024   8.358  12.483
89902SOL    HW171603   2.059   8.330  12.398
89902SOL    HW271604   2.023   8.454  12.478
89903SOL     OW71605  12.692   1.894   2.214
89903SOL    HW171606  12.660   1.826   2.273
89903SOL    HW271607  12.743   1.847   2.148
89904SOL     OW71608   9.750   2.975   8.587
89904SOL    HW171609   9.705   2.913   8.530
89904SOL    HW271610   9.707   2.965   8.672
89905SOL     OW71611   1.306   1.645   1.190
89905SOL    HW171612   1.379   1.606   1.237
89905SOL    HW271613   1.321   1.740   1.197
89906SOL     OW71614   3.442   9.199   1.038
89906SOL    HW171615   3.463   9.278   1.088
89906SOL    HW271616   3.523   9.148   1.041
89907SOL     OW71617   6.815   8.623  12.332
89907SOL    HW171618   6.881   8.610  12.265
89907SOL    HW271619   6.850   8.693  12.387
89908SOL     OW71620   3.605   3.548   5.673
89908SOL    HW171621   3.591   3.538   5.579
89908SOL    HW271622   3.655   3.470   5.699
89909SOL     OW71623   8.141   1.437   6.149
89909SOL    HW171624   8.063   1.477   6.112
89909SOL    HW271625   8.214   1.490   6.114
89910SOL     OW71626   9.418   5.998  14.214
89910SOL    HW171627   9.352   6.065  14.198
89910SOL    HW271628   9.495   6.028  14.166
89911SOL     OW71629   6.775   7.120  13.956
89911SOL    HW171630   6.726   7.116  14.038
89911SOL    HW271631   6.821   7.204  13.960
89912SOL     OW71632  11.373   4.050   9.745
89912SOL    HW171633  11.281   4.065   9.765
89912SOL    HW271634  11.390   4.103   9.667
89913SOL     OW71635   7.739   1.044   4.084
89913SOL    HW171636   7.701   1.052   3.997
89913SOL    HW271637   7.748   0.950   4.098
89914SOL     OW71638  11.554  13.741   2.682
89914SOL    HW171639  11.608  13.709   2.755
89914SOL    HW271640  11.613  13.737   2.606
89915SOL     OW71641   4.489   9.632   6.865
89915SOL    HW171642   4.539   9.576   6.806
89915SOL    HW271643   4.555   9.666   6.927
89916SOL     OW71644  14.557  13.787  13.765
89916SOL    HW171645  14.467  13.776  13.736
89916SOL    HW271646  14.568  13.723  13.835
89917SOL     OW71647  11.421   7.291   6.127
89917SOL    HW171648  11.333   7.266   6.098
89917SOL    HW271649  11.430   7.382   6.100
89918SOL     OW71650   1.305   3.668  14.551
89918SOL    HW171651   1.341   3.756  14.541
89918SOL    HW271652   1.360   3.614  14.495
89919SOL     OW71653   9.543   4.245   4.003
89919SOL    HW171654   9.538   4.318   3.941
89919SOL    HW271655   9.533   4.166   3.949
89920SOL     OW71656  10.844   6.727   1.845
89920SOL    HW171657  10.807   6.670   1.777
89920SOL    HW271658  10.857   6.669   1.920
89921SOL     OW71659   3.062   0.877   5.766
89921SOL    HW171660   3.074   0.833   5.851
89921SOL    HW271661   3.086   0.968   5.783
89922SOL     OW71662   0.787   0.266   8.499
89922SOL    HW171663   0.836   0.214   8.435
89922SOL    HW271664   0.769   0.205   8.571
89923SOL     OW71665  12.284   9.502  10.705
89923SOL    HW171666  12.265   9.522  10.613
89923SOL    HW271667  12.287   9.587  10.748
89924SOL     OW71668  11.163   5.235   6.310
89924SOL    HW171669  11.086   5.216   6.364
89924SOL    HW271670  11.181   5.153   6.264
89925SOL     OW71671   7.323   6.240   7.645
89925SOL    HW171672   7.402   6.293   7.637
89925SOL    HW271673   7.342   6.160   7.597
89926SOL     OW71674   3.854   6.986   2.867
89926SOL    HW171675   3.803   6.960   2.791
89926SOL    HW271676   3.789   7.022   2.928
89927SOL     OW71677   1.712   4.681   6.652
89927SOL    HW171678   1.647   4.727   6.598
89927SOL    HW271679   1.790   4.736   6.647
89928SOL     OW71680   8.983  12.364   1.812
89928SOL    HW171681   9.028  12.306   1.750
89928SOL    HW271682   9.054  12.410   1.857
89929SOL     OW71683   5.381   4.711  11.839
89929SOL    HW171684   5.285   4.710  11.837
89929SOL    HW271685   5.404   4.801  11.815
89930SOL     OW71686  12.424  11.586  10.257
89930SOL    HW171687  12.404  11.569  10.349
89930SOL    HW271688  12.345  11.558  10.210
89931SOL     OW71689   3.587   0.782   2.446
89931SOL    HW171690   3.660   0.832   2.410
89931SOL    HW271691   3.510   0.837   2.429
89932SOL     OW71692   6.569   6.942   3.653
89932SOL    HW171693   6.601   6.869   3.706
89932SOL    HW271694   6.590   7.020   3.704
89933SOL     OW71695   3.159   8.318   6.227
89933SOL    HW171696   3.082   8.311   6.284
89933SOL    HW271697   3.138   8.389   6.167
89934SOL     OW71698   9.939  12.842  13.015
89934SOL    HW171699   9.925  12.934  12.995
89934SOL    HW271700  10.034  12.832  13.020
89935SOL     OW71701   1.923  11.443   1.152
89935SOL    HW171702   1.927  11.347   1.148
89935SOL    HW271703   1.921  11.463   1.245
89936SOL     OW71704   1.401   5.808   8.098
89936SOL    HW171705   1.453   5.795   8.019
89936SOL    HW271706   1.374   5.720   8.125
89937SOL     OW71707  10.911   4.364   1.971
89937SOL    HW171708  10.886   4.280   2.010
89937SOL    HW271709  10.936   4.419   2.046
89938SOL     OW71710   4.579   8.600   9.029
89938SOL    HW171711   4.571   8.678   9.084
89938SOL    HW271712   4.664   8.611   8.985
89939SOL     OW71713   8.074   4.859   0.776
89939SOL    HW171714   8.150   4.802   0.787
89939SOL    HW271715   8.010   4.806   0.728
89940SOL     OW71716   4.485   7.230   6.517
89940SOL    HW171717   4.562   7.175   6.507
89940SOL    HW271718   4.503   7.281   6.597
89941SOL     OW71719  10.956   5.323   8.820
89941SOL    HW171720  10.910   5.407   8.814
89941SOL    HW271721  11.035   5.336   8.766
89942SOL     OW71722   6.972   2.610  13.882
89942SOL    HW171723   6.904   2.607  13.815
89942SOL    HW271724   7.050   2.643  13.836
89943SOL     OW71725   2.574   4.098  11.360
89943SOL    HW171726   2.485   4.077  11.390
89943SOL    HW271727   2.595   4.181  11.402
89944SOL     OW71728   4.112   1.433  10.110
89944SOL    HW171729   4.056   1.509  10.123
89944SOL    HW271730   4.199   1.469  10.095
89945SOL     OW71731   5.200   4.895   8.377
89945SOL    HW171732   5.208   4.814   8.327
89945SOL    HW271733   5.290   4.927   8.385
89946SOL     OW71734   0.430   4.213  10.433
89946SOL    HW171735   0.438   4.286  10.494
89946SOL    HW271736   0.335   4.203  10.421
89947SOL     OW71737   2.600   0.511   0.244
89947SOL    HW171738   2.573   0.552   0.162
89947SOL    HW271739   2.667   0.569   0.280
89948SOL     OW71740   1.561   0.552   6.616
89948SOL    HW171741   1.648   0.549   6.577
89948SOL    HW271742   1.508   0.494   6.562
89949SOL     OW71743   8.422   7.357  10.467
89949SOL    HW171744   8.453   7.267  10.456
89949SOL    HW271745   8.473   7.408  10.405
89950SOL     OW71746   3.432  13.250  10.945
89950SOL    HW171747   3.379  13.170  10.940
89950SOL    HW271748   3.382  13.315  10.897
89951SOL     OW71749  14.165   5.988   1.983
89951SOL    HW171750  14.204   5.926   2.045
89951SOL    HW271751  14.113   6.047   2.038
89952SOL     OW71752   0.359   9.929  11.698
89952SOL    HW171753   0.424   9.983  11.744
89952SOL    HW271754   0.405   9.899  11.619
89953SOL     OW71755  14.518   0.999   0.995
89953SOL    HW171756  14.475   1.058   0.932
89953SOL    HW271757  14.450   0.977   1.058
89954SOL     OW71758  12.524  13.220   4.184
89954SOL    HW171759  12.551  13.288   4.123
89954SOL    HW271760  12.441  13.188   4.148
89955SOL     OW71761   2.563   1.541   1.134
89955SOL    HW171762   2.549   1.572   1.224
89955SOL    HW271763   2.644   1.491   1.138
89956SOL     OW71764  10.836   4.136  12.011
89956SOL    HW171765  10.852   4.115  12.103
89956SOL    HW271766  10.743   4.118  11.999
89957SOL     OW71767   6.150   1.946  14.794
89957SOL    HW171768   6.110   2.027  14.764
89957SOL    HW271769   6.152   1.890  14.716
89958SOL     OW71770  13.783   9.171  11.708
89958SOL    HW171771  13.811   9.239  11.770
89958SOL    HW271772  13.765   9.095  11.763
89959SOL     OW71773  13.515   8.492  13.672
89959SOL    HW171774  13.452   8.424  13.646
89959SOL    HW271775  13.490   8.569  13.620
89960SOL     OW71776  10.086  12.990  12.233
89960SOL    HW171777  10.147  12.934  12.281
89960SOL    HW271778  10.037  13.037  12.300
89961SOL     OW71779   8.963   3.381  14.849
89961SOL    HW171780   8.904   3.310  14.874
89961SOL    HW271781   8.904   3.454  14.827
89962SOL     OW71782   1.604  12.243  12.185
89962SOL    HW171783   1.616  12.167  12.242
89962SOL    HW271784   1.629  12.318  12.240
89963SOL     OW71785   2.267   5.206  12.432
89963SOL    HW171786   2.229   5.224  12.346
89963SOL    HW271787   2.212   5.136  12.468
89964SOL     OW71788  13.572   0.620  10.209
89964SOL    HW171789  13.480   0.641  10.225
89964SOL    HW271790  13.576   0.599  10.115
89965SOL     OW71791   4.944   2.971  12.917
89965SOL    HW171792   4.860   2.996  12.956
89965SOL    HW271793   4.977   3.051  12.877
89966SOL     OW71794   9.933   5.888   5.226
89966SOL    HW171795   9.857   5.945   5.240
89966SOL    HW271796   9.979   5.927   5.152
89967SOL     OW71797  12.354  14.524   7.130
89967SOL    HW171798  12.415  14.577   7.181
89967SOL    HW271799  12.306  14.588   7.077
89968SOL     OW71800  11.707  10.580   2.119
89968SOL    HW171801  11.619  10.617   2.130
89968SOL    HW271802  11.696  10.512   2.051
89969SOL     OW71803  13.948  13.716  14.415
89969SOL    HW171804  13.856  13.694  14.424
89969SOL    HW271805  13.990  13.633  14.392
89970SOL     OW71806   3.840   3.610   9.295
89970SOL    HW171807   3.867   3.568   9.377
89970SOL    HW271808   3.917   3.605   9.239
89971SOL     OW71809  12.241   8.613   9.245
89971SOL    HW171810  12.253   8.708   9.244
89971SOL    HW271811  12.237   8.588   9.152
89972SOL     OW71812  12.895   5.774   4.482
89972SOL    HW171813  12.919   5.685   4.455
89972SOL    HW271814  12.894   5.824   4.401
89973SOL     OW71815   7.101   2.748  13.522
89973SOL    HW171816   7.165   2.739  13.593
89973SOL    HW271817   7.091   2.659  13.489
89974SOL     OW71818   2.115  11.891  11.943
89974SOL    HW171819   2.184  11.948  11.977
89974SOL    HW271820   2.152  11.851  11.865
89975SOL     OW71821   9.689  14.614   8.388
89975SOL    HW171822   9.659  14.685   8.445
89975SOL    HW271823   9.609  14.567   8.365
89976SOL     OW71824   5.662   1.697  11.972
89976SOL    HW171825   5.684   1.744  11.892
89976SOL    HW271826   5.625   1.763  12.030
89977SOL     OW71827   6.172  10.871   2.875
89977SOL    HW171828   6.169  10.956   2.920
89977SOL    HW271829   6.213  10.812   2.939
89978SOL     OW71830   0.918   0.857   1.379
89978SOL    HW171831   0.879   0.783   1.426
89978SOL    HW271832   1.011   0.834   1.371
89979SOL     OW71833  13.604  11.315   6.252
89979SOL    HW171834  13.621  11.303   6.346
89979SOL    HW271835  13.586  11.228   6.219
89980SOL     OW71836   6.152   0.348   2.415
89980SOL    HW171837   6.150   0.428   2.468
89980SOL    HW271838   6.109   0.282   2.470
89981SOL     OW71839   7.197   8.318   3.765
89981SOL    HW171840   7.162   8.318   3.854
89981SOL    HW271841   7.241   8.233   3.757
89982SOL     OW71842  12.531   4.145  14.379
89982SOL    HW171843  12.593   4.219  14.374
89982SOL    HW271844  12.445   4.185  14.365
89983SOL     OW71845  12.313   7.188   0.647
89983SOL    HW171846  12.233   7.240   0.652
89983SOL    HW271847  12.290   7.105   0.690
89984SOL     OW71848  11.275   6.338   1.840
89984SOL    HW171849  11.355   6.313   1.886
89984SOL    HW271850  11.301   6.415   1.789
89985SOL     OW71851   4.885  14.001   1.928
89985SOL    HW171852   4.822  14.043   1.988
89985SOL    HW271853   4.903  13.916   1.969
89986SOL     OW71854  10.465   9.982  11.876
89986SOL    HW171855  10.509  10.068  11.874
89986SOL    HW271856  10.418   9.977  11.793
89987SOL     OW71857  10.703   2.623   2.549
89987SOL    HW171858  10.750   2.564   2.490
89987SOL    HW271859  10.744   2.610   2.634
89988SOL     OW71860   0.242  13.905  12.057
89988SOL    HW171861   0.146  13.911  12.053
89988SOL    HW271862   0.269  13.985  12.103
89989SOL     OW71863   4.400   5.161   7.116
89989SOL    HW171864   4.447   5.222   7.173
89989SOL    HW271865   4.448   5.079   7.123
89990SOL     OW71866   3.674   6.175  14.322
89990SOL    HW171867   3.627   6.215  14.248
89990SOL    HW271868   3.706   6.249  14.373
89991SOL     OW71869   6.720  12.273   0.656
89991SOL    HW171870   6.680  12.191   0.626
89991SOL    HW271871   6.813  12.261   0.639
89992SOL     OW71872  12.939   8.332   6.884
89992SOL    HW171873  12.918   8.348   6.792
89992SOL    HW271874  13.028   8.366   6.895
89993SOL     OW71875  13.330   1.272   6.418
89993SOL    HW171876  13.332   1.335   6.490
89993SOL    HW271877  13.376   1.195   6.451
89994SOL     OW71878   5.667  13.889  10.190
89994SOL    HW171879   5.622  13.844  10.262
89994SOL    HW271880   5.677  13.979  10.220
89995SOL     OW71881   8.920  10.354  13.351
89995SOL    HW171882   8.927  10.310  13.266
89995SOL    HW271883   8.949  10.443  13.334
89996SOL     OW71884   9.824  14.863   5.640
89996SOL    HW171885   9.903  14.864   5.695
89996SOL    HW271886   9.827   0.066   5.592
89997SOL     OW71887   1.937  13.849  10.484
89997SOL    HW171888   1.914  13.802  10.564
89997SOL    HW271889   1.861  13.905  10.467
89998SOL     OW71890  14.109  12.668   1.855
89998SOL    HW171891  14.149  12.625   1.780
89998SOL    HW271892  14.132  12.760   1.845
89999SOL     OW71893  11.150   1.187  10.368
89999SOL    HW171894  11.066   1.219  10.334
89999SOL    HW271895  11.153   1.218  10.458
90000SOL     OW71896   8.365   4.472   4.830
90000SOL    HW171897   8.445   4.509   4.866
90000SOL    HW271898   8.354   4.515   4.745
90001SOL     OW71899   0.776  11.389   7.179
90001SOL    HW171900   0.692  11.368   7.220
90001SOL    HW271901   0.812  11.305   7.154
90002SOL     OW71902   7.500  10.613   4.068
90002SOL    HW171903   7.579  10.660   4.042
90002SOL    HW271904   7.428  10.669   4.039
90003SOL     OW71905  10.857  14.212   6.358
90003SOL    HW171906  10.914  14.150   6.405
90003SOL    HW271907  10.834  14.166   6.277
90004SOL     OW71908   1.460   8.131  11.810
90004SOL    HW171909   1.456   8.086  11.895
90004SOL    HW271910   1.553   8.135  11.790
90005SOL     OW71911   1.645   4.901   2.239
90005SOL    HW171912   1.737   4.905   2.210
90005SOL    HW271913   1.595   4.908   2.158
90006SOL     OW71914   5.926  12.485  12.357
90006SOL    HW171915   5.842  12.452  12.389
90006SOL    HW271916   5.908  12.574  12.330
90007SOL     OW71917   4.245   9.228  11.306
90007SOL    HW171918   4.224   9.153  11.250
90007SOL    HW271919   4.340   9.238  11.299
90008SOL     OW71920   1.210  11.745  13.398
90008SOL    HW171921   1.144  11.747  13.329
90008SOL    HW271922   1.262  11.667  13.380
90009SOL     OW71923   8.754  10.708   8.263
90009SOL    HW171924   8.710  10.708   8.178
90009SOL    HW271925   8.684  10.691   8.326
90010SOL     OW71926   5.639   8.741   0.100
90010SOL    HW171927   5.727   8.755   0.137
90010SOL    HW271928   5.622   8.648   0.114
90011SOL     OW71929  12.967   8.368   9.844
90011SOL    HW171930  13.033   8.399   9.782
90011SOL    HW271931  12.915   8.305   9.795
90012SOL     OW71932   8.742   9.073  12.420
90012SOL    HW171933   8.709   8.990  12.386
90012SOL    HW271934   8.792   9.111  12.348
90013SOL     OW71935   9.797   3.217   4.442
90013SOL    HW171936   9.704   3.222   4.419
90013SOL    HW271937   9.843   3.226   4.358
90014SOL     OW71938  11.685  12.619  14.237
90014SOL    HW171939  11.734  12.647  14.160
90014SOL    HW271940  11.598  12.658  14.226
90015SOL     OW71941   4.720   0.564   4.362
90015SOL    HW171942   4.804   0.569   4.317
90015SOL    HW271943   4.660   0.527   4.296
90016SOL     OW71944  12.340  11.327   7.539
90016SOL    HW171945  12.434  11.343   7.527
90016SOL    HW271946  12.324  11.346   7.631
90017SOL     OW71947   8.839   9.014   0.773
90017SOL    HW171948   8.781   8.948   0.811
90017SOL    HW271949   8.786   9.057   0.706
90018SOL     OW71950   2.373   0.173  10.117
90018SOL    HW171951   2.441   0.213  10.172
90018SOL    HW271952   2.291   0.210  10.151
90019SOL     OW71953  14.498   9.279  11.460
90019SOL    HW171954  14.442   9.349  11.426
90019SOL    HW271955  14.583   9.295  11.417
90020SOL     OW71956  12.714   3.340  13.871
90020SOL    HW171957  12.651   3.377  13.809
90020SOL    HW271958  12.680   3.366  13.957
90021SOL     OW71959   3.132  12.720  13.786
90021SOL    HW171960   3.063  12.654  13.780
90021SOL    HW271961   3.184  12.708  13.707
90022SOL     OW71962   8.254   2.028   9.562
90022SOL    HW171963   8.307   2.045   9.640
90022SOL    HW271964   8.315   2.034   9.489
90023SOL     OW71965  14.180   9.671  14.172
90023SOL    HW171966  14.141   9.740  14.224
90023SOL    HW271967  14.197   9.711  14.087
90024SOL     OW71968   3.373   7.143  11.795
90024SOL    HW171969   3.353   7.146  11.888
90024SOL    HW271970   3.468   7.150  11.791
90025SOL     OW71971   6.583   6.191   6.131
90025SOL    HW171972   6.527   6.185   6.209
90025SOL    HW271973   6.551   6.268   6.084
90026SOL     OW71974  11.990   1.380   9.598
90026SOL    HW171975  11.957   1.296   9.630
90026SOL    HW271976  12.006   1.366   9.505
90027SOL     OW71977   2.186   6.068   4.456
90027SOL    HW171978   2.104   6.055   4.502
90027SOL    HW271979   2.253   6.068   4.524
90028SOL     OW71980   5.123  13.444   3.108
90028SOL    HW171981   5.212  13.408   3.113
90028SOL    HW271982   5.074  13.379   3.058
90029SOL     OW71983  13.170   4.156  10.251
90029SOL    HW171984  13.074   4.153  10.258
90029SOL    HW271985  13.188   4.237  10.202
90030SOL     OW71986  14.638   8.777   7.798
90030SOL    HW171987  14.601   8.832   7.867
90030SOL    HW271988  14.582   8.700   7.796
90031SOL     OW71989   1.295   7.617   3.489
90031SOL    HW171990   1.223   7.571   3.446
90031SOL    HW271991   1.262   7.706   3.503
90032SOL     OW71992   2.962  11.312   0.637
90032SOL    HW171993   2.898  11.342   0.701
90032SOL    HW271994   2.971  11.385   0.575
90033SOL     OW71995   4.820   2.560  12.290
90033SOL    HW171996   4.750   2.495  12.293
90033SOL    HW271997   4.816   2.604  12.375
90034SOL     OW71998  14.147  10.244   3.477
90034SOL    HW171999  14.071  10.295   3.505
90034SOL    HW272000  14.171  10.192   3.553
90035SOL     OW72001  14.614   1.174   7.331
90035SOL    HW172002  14.684   1.151   7.271
90035SOL    HW272003  14.657   1.225   7.400
90036SOL     OW72004  13.830   2.520  14.626
90036SOL    HW172005  13.871   2.496  14.543
90036SOL    HW272006  13.894   2.578  14.669
90037SOL     OW72007  13.692  11.247   2.187
90037SOL    HW172008  13.735  11.255   2.102
90037SOL    HW272009  13.609  11.292   2.176
90038SOL     OW72010  13.921  11.585  14.242
90038SOL    HW172011  13.955  11.508  14.287
90038SOL    HW272012  13.846  11.612  14.296
90039SOL     OW72013   0.879   7.763  13.773
90039SOL    HW172014   0.821   7.720  13.710
90039SOL    HW272015   0.829   7.839  13.803
90040SOL     OW72016  14.380   2.891   3.132
90040SOL    HW172017  14.463   2.844   3.141
90040SOL    HW272018  14.351   2.872   3.042
90041SOL     OW72019  13.255   7.595  11.597
90041SOL    HW172020  13.273   7.642  11.515
90041SOL    HW272021  13.320   7.524  11.598
90042SOL     OW72022   0.497   8.365   9.375
90042SOL    HW172023   0.559   8.408   9.315
90042SOL    HW272024   0.533   8.278   9.388
90043SOL     OW72025   9.934  12.863  11.792
90043SOL    HW172026   9.866  12.868  11.859
90043SOL    HW272027   9.949  12.769  11.778
90044SOL     OW72028   0.690  10.076   8.341
90044SOL    HW172029   0.780  10.048   8.330
90044SOL    HW272030   0.639   9.995   8.341
90045SOL     OW72031   3.459  13.878   0.016
90045SOL    HW172032   3.543  13.865   0.060
90045SOL    HW272033   3.462  13.817  14.821
90046SOL     OW72034   6.237   7.777   3.241
90046SOL    HW172035   6.311   7.716   3.248
90046SOL    HW272036   6.223   7.808   3.331
90047SOL     OW72037   9.144  12.638   9.364
90047SOL    HW172038   9.123  12.692   9.289
90047SOL    HW272039   9.065  12.587   9.380
90048SOL     OW72040  14.066   4.302  12.244
90048SOL    HW172041  14.076   4.366  12.314
90048SOL    HW272042  14.083   4.217  12.285
90049SOL     OW72043   9.251   7.032  14.755
90049SOL    HW172044   9.343   7.007  14.754
90049SOL    HW272045   9.232   7.054  14.847
90050SOL     OW72046   3.436   6.879   0.665
90050SOL    HW172047   3.356   6.852   0.619
90050SOL    HW272048   3.507   6.844   0.611
90051SOL     OW72049   8.699  12.307   9.257
90051SOL    HW172050   8.637  12.319   9.329
90051SOL    HW272051   8.672  12.225   9.216
90052SOL     OW72052   6.734  11.272  14.782
90052SOL    HW172053   6.701  11.267  14.872
90052SOL    HW272054   6.747  11.366  14.767
90053SOL     OW72055  12.953   6.573   5.684
90053SOL    HW172056  12.917   6.624   5.612
90053SOL    HW272057  12.928   6.482   5.664
90054SOL     OW72058   6.100   4.307   0.333
90054SOL    HW172059   6.144   4.241   0.386
90054SOL    HW272060   6.170   4.367   0.306
90055SOL     OW72061   0.069   4.631   3.069
90055SOL    HW172062   0.031   4.617   3.155
90055SOL    HW272063   0.113   4.716   3.075
90056SOL     OW72064   8.308   7.038  10.788
90056SOL    HW172065   8.387   7.080  10.754
90056SOL    HW272066   8.289   7.084  10.870
90057SOL     OW72067  11.731   2.189   1.282
90057SOL    HW172068  11.786   2.211   1.207
90057SOL    HW272069  11.717   2.094   1.274
90058SOL     OW72070  14.793   0.669   9.369
90058SOL    HW172071  14.825   0.704   9.285
90058SOL    HW272072  14.702   0.698   9.373
90059SOL     OW72073  10.501   3.095   4.950
90059SOL    HW172074  10.409   3.071   4.958
90059SOL    HW272075  10.502   3.190   4.961
90060SOL     OW72076   1.773   4.225   1.292
90060SOL    HW172077   1.848   4.205   1.236
90060SOL    HW272078   1.697   4.218   1.234
90061SOL     OW72079   7.428  10.141   8.260
90061SOL    HW172080   7.336  10.164   8.243
90061SOL    HW272081   7.477  10.191   8.195
90062SOL     OW72082   9.387  12.696  13.916
90062SOL    HW172083   9.392  12.609  13.876
90062SOL    HW272084   9.293  12.716  13.918
90063SOL     OW72085   7.623  11.577   1.375
90063SOL    HW172086   7.646  11.545   1.462
90063SOL    HW272087   7.706  11.587   1.329
90064SOL     OW72088   7.015  10.696   7.423
90064SOL    HW172089   7.059  10.752   7.358
90064SOL    HW272090   7.051  10.609   7.407
90065SOL     OW72091  12.853  11.798  13.203
90065SOL    HW172092  12.768  11.831  13.234
90065SOL    HW272093  12.830  11.743  13.127
90066SOL     OW72094   4.038  11.777  12.959
90066SOL    HW172095   4.097  11.743  12.891
90066SOL    HW272096   4.005  11.859  12.924
90067SOL     OW72097   4.814   2.132   3.608
90067SOL    HW172098   4.812   2.106   3.700
90067SOL    HW272099   4.875   2.070   3.567
90068SOL     OW72100  11.154   4.263   4.386
90068SOL    HW172101  11.130   4.232   4.299
90068SOL    HW272102  11.151   4.184   4.441
90069SOL     OW72103   9.164   7.587   2.447
90069SOL    HW172104   9.142   7.680   2.456
90069SOL    HW272105   9.080   7.544   2.436
90070SOL     OW72106   7.607   2.381   2.743
90070SOL    HW172107   7.691   2.368   2.699
90070SOL    HW272108   7.564   2.296   2.737
90071SOL     OW72109  12.879   4.830  12.848
90071SOL    HW172110  12.905   4.902  12.905
90071SOL    HW272111  12.824   4.872  12.781
90072SOL     OW72112   2.684   2.296   1.190
90072SOL    HW172113   2.687   2.300   1.094
90072SOL    HW272114   2.732   2.374   1.218
90073SOL     OW72115   9.243  14.193   8.571
90073SOL    HW172116   9.177  14.250   8.611
90073SOL    HW272117   9.207  14.171   8.486
90074SOL     OW72118   6.439   8.633   1.775
90074SOL    HW172119   6.432   8.632   1.870
90074SOL    HW272120   6.499   8.705   1.755
90075SOL     OW72121  11.052   1.603  10.166
90075SOL    HW172122  11.038   1.575  10.257
90075SOL    HW272123  11.074   1.696  10.172
90076SOL     OW72124   5.225   6.816   0.240
90076SOL    HW172125   5.265   6.730   0.228
90076SOL    HW272126   5.253   6.866   0.164
90077SOL     OW72127  13.216   8.363   5.995
90077SOL    HW172128  13.222   8.400   6.083
90077SOL    HW272129  13.123   8.368   5.973
90078SOL     OW72130   4.866   2.955   7.935
90078SOL    HW172131   4.945   2.944   7.883
90078SOL    HW272132   4.866   2.880   7.995
90079SOL     OW72133   1.338  13.465   1.783
90079SOL    HW172134   1.333  13.559   1.796
90079SOL    HW272135   1.430  13.447   1.764
90080SOL     OW72136   1.100  12.740   5.137
90080SOL    HW172137   1.140  12.662   5.098
90080SOL    HW272138   1.170  12.805   5.135
90081SOL     OW72139   6.272  10.682  12.830
90081SOL    HW172140   6.260  10.587  12.833
90081SOL    HW272141   6.185  10.718  12.850
90082SOL     OW72142   4.883   8.087  14.727
90082SOL    HW172143   4.882   8.120  14.637
90082SOL    HW272144   4.972   8.054  14.739
90083SOL     OW72145   1.337  10.213  13.717
90083SOL    HW172146   1.263  10.202  13.657
90083SOL    HW272147   1.413  10.222  13.660
90084SOL     OW72148  12.382   9.695   7.225
90084SOL    HW172149  12.323   9.724   7.155
90084SOL    HW272150  12.467   9.732   7.202
90085SOL     OW72151   3.702   3.866   0.682
90085SOL    HW172152   3.634   3.843   0.746
90085SOL    HW272153   3.717   3.959   0.696
90086SOL     OW72154   0.891   3.744   2.675
90086SOL    HW172155   0.948   3.799   2.728
90086SOL    HW272156   0.935   3.659   2.673
90087SOL     OW72157   5.151   5.936   5.444
90087SOL    HW172158   5.142   6.029   5.463
90087SOL    HW272159   5.065   5.909   5.412
90088SOL     OW72160   3.099   0.286   4.098
90088SOL    HW172161   3.161   0.264   4.167
90088SOL    HW272162   3.154   0.313   4.024
90089SOL     OW72163  10.989   8.119   9.799
90089SOL    HW172164  11.014   8.066   9.875
90089SOL    HW272165  10.986   8.056   9.726
90090SOL     OW72166   7.175   8.984  11.657
90090SOL    HW172167   7.095   9.026  11.688
90090SOL    HW272168   7.150   8.894  11.640
90091SOL     OW72169   7.407  14.107   0.073
90091SOL    HW172170   7.372  14.143  14.871
90091SOL    HW272171   7.401  14.179   0.136
90092SOL     OW72172   5.979  11.143   5.985
90092SOL    HW172173   6.071  11.168   5.997
90092SOL    HW272174   5.941  11.215   5.935
90093SOL     OW72175  13.520   6.157   1.653
90093SOL    HW172176  13.553   6.069   1.669
90093SOL    HW272177  13.537   6.172   1.560
90094SOL     OW72178   0.838   3.690   6.092
90094SOL    HW172179   0.849   3.784   6.105
90094SOL    HW272180   0.744   3.674   6.107
90095SOL     OW72181   9.107   9.295   1.854
90095SOL    HW172182   9.020   9.313   1.889
90095SOL    HW272183   9.165   9.355   1.900
90096SOL     OW72184   7.239  14.551   8.287
90096SOL    HW172185   7.206  14.531   8.200
90096SOL    HW272186   7.333  14.532   8.282
90097SOL     OW72187   4.700   8.637   0.293
90097SOL    HW172188   4.765   8.567   0.288
90097SOL    HW272189   4.689   8.666   0.203
90098SOL     OW72190  10.581  12.220   0.657
90098SOL    HW172191  10.596  12.289   0.592
90098SOL    HW272192  10.633  12.245   0.732
90099SOL     OW72193   7.268  10.064   0.862
90099SOL    HW172194   7.320  10.116   0.801
90099SOL    HW272195   7.209  10.127   0.903
90100SOL     OW72196   9.891   7.848   8.965
90100SOL    HW172197   9.889   7.904   9.043
90100SOL    HW272198   9.942   7.899   8.901
90101SOL     OW72199   2.372  11.706   5.878
90101SOL    HW172200   2.416  11.757   5.809
90101SOL    HW272201   2.408  11.740   5.960
90102SOL     OW72202   0.530   0.190   0.816
90102SOL    HW172203   0.608   0.233   0.782
90102SOL    HW272204   0.562   0.136   0.889
90103SOL     OW72205   8.589   2.544  12.844
90103SOL    HW172206   8.670   2.494  12.841
90103SOL    HW272207   8.522   2.485  12.808
90104SOL     OW72208   5.414   1.289   5.412
90104SOL    HW172209   5.510   1.292   5.407
90104SOL    HW272210   5.393   1.197   5.401
90105SOL     OW72211   1.196   2.723   8.671
90105SOL    HW172212   1.194   2.641   8.721
90105SOL    HW272213   1.123   2.774   8.706
90106SOL     OW72214  11.662  12.119   4.352
90106SOL    HW172215  11.618  12.191   4.306
90106SOL    HW272216  11.697  12.064   4.282
90107SOL     OW72217  14.157  14.648  14.743
90107SOL    HW172218  14.117  14.716  14.797
90107SOL    HW272219  14.249  14.648  14.768
90108SOL     OW72220  10.261  10.674   0.878
90108SOL    HW172221  10.273  10.590   0.834
90108SOL    HW272222  10.166  10.681   0.892
90109SOL     OW72223   3.382  11.439   9.875
90109SOL    HW172224   3.420  11.396   9.951
90109SOL    HW272225   3.294  11.464   9.903
90110SOL     OW72226   7.662   8.956  13.541
90110SOL    HW172227   7.602   9.030  13.541
90110SOL    HW272228   7.735   8.985  13.486
90111SOL     OW72229   9.917  14.795   6.703
90111SOL    HW172230   9.836  14.763   6.663
90111SOL    HW272231   9.940  14.729   6.768
90112SOL     OW72232  14.004   1.230   3.289
90112SOL    HW172233  14.069   1.276   3.237
90112SOL    HW272234  13.928   1.288   3.290
90113SOL     OW72235  12.747  13.051  14.448
90113SOL    HW172236  12.782  13.012  14.368
90113SOL    HW272237  12.690  13.121  14.417
90114SOL     OW72238   4.092  12.651   1.442
90114SOL    HW172239   4.104  12.731   1.494
90114SOL    HW272240   4.095  12.580   1.506
90115SOL     OW72241  12.228   2.510  14.469
90115SOL    HW172242  12.237   2.602  14.494
90115SOL    HW272243  12.305   2.467  14.506
90116SOL     OW72244  13.687   7.679   8.004
90116SOL    HW172245  13.642   7.728   7.935
90116SOL    HW272246  13.648   7.591   8.000
90117SOL     OW72247   0.241   4.347  12.765
90117SOL    HW172248   0.203   4.317  12.682
90117SOL    HW272249   0.320   4.294  12.776
90118SOL     OW72250   0.012  14.448  13.143
90118SOL    HW172251   0.095  14.410  13.172
90118SOL    HW272252   0.030  14.541  13.136
90119SOL     OW72253   5.675  11.555   4.130
90119SOL    HW172254   5.671  11.464   4.159
90119SOL    HW272255   5.618  11.602   4.190
90120SOL     OW72256   1.376  10.685   9.333
90120SOL    HW172257   1.360  10.713   9.423
90120SOL    HW272258   1.350  10.760   9.279
90121SOL     OW72259  14.614   9.635  12.293
90121SOL    HW172260  14.667   9.589  12.358
90121SOL    HW272261  14.675   9.698  12.254
90122SOL     OW72262  13.003   6.251   6.156
90122SOL    HW172263  13.063   6.250   6.081
90122SOL    HW272264  12.923   6.292   6.122
90123SOL     OW72265   0.469   0.274   8.915
90123SOL    HW172266   0.492   0.202   8.857
90123SOL    HW272267   0.552   0.318   8.933
90124SOL     OW72268   8.499   5.605  13.403
90124SOL    HW172269   8.435   5.658  13.451
90124SOL    HW272270   8.563   5.668  13.371
90125SOL     OW72271  14.467   7.913   4.576
90125SOL    HW172272  14.499   7.992   4.532
90125SOL    HW272273  14.387   7.941   4.621
90126SOL     OW72274  12.429   6.412   4.656
90126SOL    HW172275  12.356   6.430   4.714
90126SOL    HW272276  12.421   6.319   4.634
90127SOL     OW72277   6.696   2.417   3.705
90127SOL    HW172278   6.653   2.476   3.642
90127SOL    HW272279   6.623   2.373   3.749
90128SOL     OW72280   9.679   6.581  11.806
90128SOL    HW172281   9.649   6.597  11.895
90128SOL    HW272282   9.601   6.596  11.752
90129SOL     OW72283   8.971   8.801   6.535
90129SOL    HW172284   8.981   8.895   6.528
90129SOL    HW272285   9.031   8.765   6.470
90130SOL     OW72286   7.824   5.807   2.581
90130SOL    HW172287   7.759   5.737   2.578
90130SOL    HW272288   7.774   5.887   2.566
90131SOL     OW72289   9.371  11.976  10.681
90131SOL    HW172290   9.349  11.965  10.589
90131SOL    HW272291   9.320  11.909  10.727
90132SOL     OW72292  10.973   6.643   1.190
90132SOL    HW172293  10.894   6.691   1.165
90132SOL    HW272294  11.043   6.682   1.138
90133SOL     OW72295  13.055   0.469   7.509
90133SOL    HW172296  13.032   0.382   7.541
90133SOL    HW272297  12.992   0.486   7.439
90134SOL     OW72298   5.617   7.214   2.165
90134SOL    HW172299   5.676   7.178   2.231
90134SOL    HW272300   5.531   7.179   2.188
90135SOL     OW72301  11.651   4.020  14.567
90135SOL    HW172302  11.639   4.108  14.530
90135SOL    HW272303  11.718   3.981  14.511
90136SOL     OW72304   4.186  13.932  13.955
90136SOL    HW172305   4.108  13.960  13.907
90136SOL    HW272306   4.222  13.860  13.903
90137SOL     OW72307  14.118  11.854  10.637
90137SOL    HW172308  14.128  11.796  10.713
90137SOL    HW272309  14.195  11.911  10.640
90138SOL     OW72310   2.693  12.838   7.782
90138SOL    HW172311   2.737  12.770   7.731
90138SOL    HW272312   2.662  12.901   7.717
90139SOL     OW72313   7.104  13.205  13.944
90139SOL    HW172314   7.120  13.277  13.883
90139SOL    HW272315   7.190  13.163  13.954
90140SOL     OW72316  12.950   8.673   7.001
90140SOL    HW172317  13.044   8.657   7.001
90140SOL    HW272318  12.940   8.757   7.044
90141SOL     OW72319  14.759   1.977   5.605
90141SOL    HW172320  14.714   1.976   5.690
90141SOL    HW272321  14.724   1.901   5.559
90142SOL     OW72322  11.107   1.199   1.266
90142SOL    HW172323  11.188   1.167   1.304
90142SOL    HW272324  11.056   1.230   1.341
90143SOL     OW72325   2.271   8.759   3.897
90143SOL    HW172326   2.290   8.852   3.908
90143SOL    HW272327   2.331   8.730   3.828
90144SOL     OW72328   6.572   8.540   3.057
90144SOL    HW172329   6.533   8.465   3.102
90144SOL    HW272330   6.615   8.590   3.127
90145SOL     OW72331   7.179  13.021   2.784
90145SOL    HW172332   7.190  12.998   2.876
90145SOL    HW272333   7.108  13.084   2.783
90146SOL     OW72334  10.949  11.174   2.205
90146SOL    HW172335  10.895  11.250   2.182
90146SOL    HW272336  10.961  11.128   2.122
90147SOL     OW72337   8.610   0.212   5.462
90147SOL    HW172338   8.598   0.208   5.556
90147SOL    HW272339   8.667   0.287   5.448
90148SOL     OW72340  13.240   0.931   6.261
90148SOL    HW172341  13.233   1.026   6.272
90148SOL    HW272342  13.192   0.895   6.336
90149SOL     OW72343  13.728  14.072   0.095
90149SOL    HW172344  13.799  14.119   0.138
90149SOL    HW272345  13.714  14.119   0.013
90150SOL     OW72346   2.316   1.233  13.593
90150SOL    HW172347   2.325   1.301  13.527
90150SOL    HW272348   2.269   1.275  13.665
90151SOL     OW72349   0.106  11.505   7.630
90151SOL    HW172350   0.015  11.479   7.616
90151SOL    HW272351   0.104  11.601   7.628
90152SOL     OW72352   4.238   9.891   3.096
90152SOL    HW172353   4.252   9.815   3.152
90152SOL    HW272354   4.261   9.966   3.152
90153SOL     OW72355   3.281   4.104  10.781
90153SOL    HW172356   3.363   4.150  10.764
90153SOL    HW272357   3.215   4.173  10.785
90154SOL     OW72358   4.597  11.323   0.967
90154SOL    HW172359   4.550  11.405   0.978
90154SOL    HW272360   4.529  11.256   0.968
90155SOL     OW72361  11.409   7.841  11.488
90155SOL    HW172362  11.474   7.813  11.424
90155SOL    HW272363  11.326   7.806  11.455
90156SOL     OW72364   1.008  11.749  13.208
90156SOL    HW172365   0.913  11.754  13.221
90156SOL    HW272366   1.023  11.790  13.123
90157SOL     OW72367   4.173   6.736  10.942
90157SOL    HW172368   4.218   6.791  11.006
90157SOL    HW272369   4.089   6.716  10.983
90158SOL     OW72370  12.246  14.741   3.969
90158SOL    HW172371  12.196  14.679   4.021
90158SOL    HW272372  12.323  14.692   3.939
90159SOL     OW72373  14.529   5.264   9.415
90159SOL    HW172374  14.459   5.330   9.412
90159SOL    HW272375  14.566   5.272   9.503
90160SOL     OW72376   3.198   3.308   8.722
90160SOL    HW172377   3.104   3.292   8.723
90160SOL    HW272378   3.237   3.225   8.694
90161SOL     OW72379   0.904   9.386  12.035
90161SOL    HW172380   0.975   9.354  12.091
90161SOL    HW272381   0.912   9.334  11.954
90162SOL     OW72382   2.308   2.786   7.367
90162SOL    HW172383   2.237   2.847   7.386
90162SOL    HW272384   2.283   2.706   7.413
90163SOL     OW72385   0.857   4.316   7.317
90163SOL    HW172386   0.855   4.351   7.406
90163SOL    HW272387   0.776   4.347   7.276
90164SOL     OW72388   6.504  12.526   4.942
90164SOL    HW172389   6.503  12.601   5.002
90164SOL    HW272390   6.433  12.470   4.973
90165SOL     OW72391   3.500   5.883   7.985
90165SOL    HW172392   3.505   5.867   7.890
90165SOL    HW272393   3.420   5.935   7.996
90166SOL     OW72394   4.988   3.221  10.901
90166SOL    HW172395   5.068   3.190  10.943
90166SOL    HW272396   4.918   3.197  10.963
90167SOL     OW72397   5.009  11.665   1.118
90167SOL    HW172398   5.049  11.579   1.106
90167SOL    HW272399   4.918  11.653   1.091
90168SOL     OW72400  13.932   3.745   3.119
90168SOL    HW172401  13.840   3.772   3.114
90168SOL    HW272402  13.933   3.679   3.188
90169SOL     OW72403   4.277  11.913  14.652
90169SOL    HW172404   4.241  11.859  14.582
90169SOL    HW272405   4.332  11.977  14.607
90170SOL     OW72406   8.572   2.675   0.333
90170SOL    HW172407   8.590   2.601   0.391
90170SOL    HW272408   8.477   2.688   0.340
90171SOL     OW72409   5.840   9.724   6.608
90171SOL    HW172410   5.877   9.637   6.592
90171SOL    HW272411   5.809   9.752   6.522
90172SOL     OW72412  13.554   1.835   8.478
90172SOL    HW172413  13.472   1.787   8.475
90172SOL    HW272414  13.610   1.791   8.414
90173SOL     OW72415  10.466  12.808   8.120
90173SOL    HW172416  10.552  12.783   8.085
90173SOL    HW272417  10.470  12.784   8.212
90174SOL     OW72418   0.203   4.100   3.333
90174SOL    HW172419   0.228   4.168   3.271
90174SOL    HW272420   0.224   4.018   3.289
90175SOL     OW72421   4.399  12.183  13.272
90175SOL    HW172422   4.458  12.164  13.345
90175SOL    HW272423   4.445  12.149  13.195
90176SOL     OW72424   9.051  11.636   5.943
90176SOL    HW172425   9.065  11.610   6.034
90176SOL    HW272426   9.073  11.558   5.892
90177SOL     OW72427   3.524   7.251  14.124
90177SOL    HW172428   3.578   7.329  14.135
90177SOL    HW272429   3.523   7.211  14.211
90178SOL     OW72430   2.540   3.994   0.126
90178SOL    HW172431   2.518   4.030   0.040
90178SOL    HW272432   2.508   3.903   0.122
90179SOL     OW72433   4.734   2.999   4.139
90179SOL    HW172434   4.811   2.976   4.086
90179SOL    HW272435   4.695   2.915   4.163
90180SOL     OW72436  12.317   8.716   5.308
90180SOL    HW172437  12.288   8.785   5.248
90180SOL    HW272438  12.317   8.636   5.255
90181SOL     OW72439   1.456  10.115  10.975
90181SOL    HW172440   1.364  10.112  11.003
90181SOL    HW272441   1.474  10.028  10.940
90182SOL     OW72442  13.360   5.801   9.559
90182SOL    HW172443  13.441   5.792   9.509
90182SOL    HW272444  13.367   5.737   9.630
90183SOL     OW72445   3.376   5.380   8.089
90183SOL    HW172446   3.436   5.310   8.064
90183SOL    HW272447   3.421   5.461   8.066
90184SOL     OW72448   9.189  12.459  11.215
90184SOL    HW172449   9.167  12.367  11.232
90184SOL    HW272450   9.172  12.470  11.122
90185SOL     OW72451   5.545   7.092  13.701
90185SOL    HW172452   5.482   7.044  13.756
90185SOL    HW272453   5.510   7.082  13.612
90186SOL     OW72454   6.499   7.295   6.656
90186SOL    HW172455   6.583   7.250   6.651
90186SOL    HW272456   6.493   7.345   6.575
90187SOL     OW72457   6.936  12.087  14.180
90187SOL    HW172458   6.954  12.153  14.246
90187SOL    HW272459   6.846  12.104  14.153
90188SOL     OW72460  10.980   1.056  13.562
90188SOL    HW172461  10.905   1.115  13.575
90188SOL    HW272462  11.037   1.103  13.501
90189SOL     OW72463   4.789   2.148  11.517
90189SOL    HW172464   4.761   2.153  11.426
90189SOL    HW272465   4.863   2.087  11.516
90190SOL     OW72466   8.060   5.456  14.042
90190SOL    HW172467   8.063   5.424  13.952
90190SOL    HW272468   8.035   5.548  14.034
90191SOL     OW72469  12.287  12.976   9.884
90191SOL    HW172470  12.278  13.070   9.875
90191SOL    HW272471  12.200  12.947   9.914
90192SOL     OW72472  10.561   5.730   5.955
90192SOL    HW172473  10.560   5.784   5.876
90192SOL    HW272474  10.522   5.647   5.928
90193SOL     OW72475  13.635   5.732   2.212
90193SOL    HW172476  13.550   5.770   2.192
90193SOL    HW272477  13.692   5.762   2.141
90194SOL     OW72478  13.414   9.252   1.227
90194SOL    HW172479  13.509   9.253   1.240
90194SOL    HW272480  13.387   9.343   1.244
90195SOL     OW72481   4.162   8.985   8.778
90195SOL    HW172482   4.182   9.042   8.703
90195SOL    HW272483   4.161   8.897   8.741
90196SOL     OW72484   0.458  13.121  12.556
90196SOL    HW172485   0.434  13.160  12.641
90196SOL    HW272486   0.476  13.196  12.499
90197SOL     OW72487   9.855  10.599  10.143
90197SOL    HW172488   9.921  10.601  10.074
90197SOL    HW272489   9.863  10.512  10.181
90198SOL     OW72490   8.116   8.401   2.940
90198SOL    HW172491   8.059   8.329   2.914
90198SOL    HW272492   8.104   8.409   3.034
90199SOL     OW72493   1.812   8.782  11.973
90199SOL    HW172494   1.753   8.768  11.900
90199SOL    HW272495   1.763   8.755  12.050
90200SOL     OW72496  12.899   6.338   7.654
90200SOL    HW172497  12.947   6.417   7.629
90200SOL    HW272498  12.920   6.326   7.747
90201SOL     OW72499  14.631   4.836   8.430
90201SOL    HW172500  14.563   4.854   8.365
90201SOL    HW272501  14.597   4.761   8.479
90202SOL     OW72502   7.951   0.047   5.893
90202SOL    HW172503   8.040   0.031   5.925
90202SOL    HW272504   7.953   0.138   5.864
90203SOL     OW72505   8.028   8.689  10.063
90203SOL    HW172506   7.932   8.684  10.060
90203SOL    HW272507   8.057   8.602  10.034
90204SOL     OW72508   4.672  13.215   0.625
90204SOL    HW172509   4.591  13.266   0.632
90204SOL    HW272510   4.661  13.144   0.688
90205SOL     OW72511  13.663   9.635  14.582
90205SOL    HW172512  13.721   9.587  14.523
90205SOL    HW272513  13.661   9.583  14.662
90206SOL     OW72514   2.363   7.043   8.075
90206SOL    HW172515   2.363   7.058   7.980
90206SOL    HW272516   2.272   7.018   8.095
90207SOL     OW72517  11.760   5.989   6.382
90207SOL    HW172518  11.823   5.971   6.312
90207SOL    HW272519  11.786   5.932   6.453
90208SOL     OW72520   6.330   3.438   4.616
90208SOL    HW172521   6.335   3.344   4.631
90208SOL    HW272522   6.403   3.475   4.666
90209SOL     OW72523   7.569  13.660   8.076
90209SOL    HW172524   7.625  13.716   8.022
90209SOL    HW272525   7.577  13.573   8.038
90210SOL     OW72526   0.578   0.314   9.767
90210SOL    HW172527   0.645   0.326   9.700
90210SOL    HW272528   0.603   0.235   9.814
90211SOL     OW72529   1.312   4.043   0.181
90211SOL    HW172530   1.321   4.113   0.116
90211SOL    HW272531   1.295   3.964   0.129
90212SOL     OW72532   5.761   0.100  14.391
90212SOL    HW172533   5.669   0.078  14.404
90212SOL    HW272534   5.797   0.025  14.343
90213SOL     OW72535  11.284   8.528   7.905
90213SOL    HW172536  11.299   8.584   7.829
90213SOL    HW272537  11.352   8.553   7.968
90214SOL     OW72538   1.005  12.286   0.820
90214SOL    HW172539   0.911  12.294   0.804
90214SOL    HW272540   1.021  12.191   0.820
90215SOL     OW72541   4.886   9.516  10.640
90215SOL    HW172542   4.981   9.517  10.629
90215SOL    HW272543   4.852   9.553  10.558
90216SOL     OW72544   8.383   9.668   7.052
90216SOL    HW172545   8.453   9.713   7.004
90216SOL    HW272546   8.423   9.586   7.080
90217SOL     OW72547   2.012   0.469   8.298
90217SOL    HW172548   1.959   0.521   8.358
90217SOL    HW272549   1.953   0.402   8.265
90218SOL     OW72550   2.282  14.133  11.960
90218SOL    HW172551   2.306  14.041  11.963
90218SOL    HW272552   2.298  14.160  11.870
90219SOL     OW72553   3.044   7.729  11.125
90219SOL    HW172554   2.993   7.782  11.063
90219SOL    HW272555   2.985   7.715  11.199
90220SOL     OW72556   5.714   7.413   5.884
90220SOL    HW172557   5.667   7.494   5.902
90220SOL    HW272558   5.806   7.438   5.886
90221SOL     OW72559   5.822   0.610  13.015
90221SOL    HW172560   5.737   0.580  12.982
90221SOL    HW272561   5.806   0.699  13.046
90222SOL     OW72562  14.037   7.444  11.374
90222SOL    HW172563  14.026   7.350  11.358
90222SOL    HW272564  14.131   7.458  11.370
90223SOL     OW72565   2.028  11.438   7.057
90223SOL    HW172566   2.075  11.484   7.126
90223SOL    HW272567   1.986  11.364   7.101
90224SOL     OW72568   2.934   6.121   3.007
90224SOL    HW172569   2.970   6.106   2.919
90224SOL    HW272570   2.964   6.209   3.031
90225SOL     OW72571   6.221  11.757   9.573
90225SOL    HW172572   6.215  11.662   9.575
90225SOL    HW272573   6.191  11.785   9.659
90226SOL     OW72574   8.948  12.784   3.704
90226SOL    HW172575   8.936  12.689   3.712
90226SOL    HW272576   8.863  12.820   3.729
90227SOL     OW72577   7.412   8.565   0.347
90227SOL    HW172578   7.382   8.598   0.431
90227SOL    HW272579   7.333   8.531   0.305
90228SOL     OW72580   2.435  14.196   2.900
90228SOL    HW172581   2.419  14.221   2.809
90228SOL    HW272582   2.495  14.122   2.894
90229SOL     OW72583   2.106   5.281   7.884
90229SOL    HW172584   2.029   5.320   7.925
90229SOL    HW272585   2.180   5.320   7.930
90230SOL     OW72586   5.022  11.757   2.613
90230SOL    HW172587   5.033  11.719   2.526
90230SOL    HW272588   5.056  11.846   2.606
90231SOL     OW72589  13.561   8.363   3.723
90231SOL    HW172590  13.573   8.374   3.629
90231SOL    HW272591  13.533   8.449   3.754
90232SOL     OW72592  12.096   4.180   5.290
90232SOL    HW172593  12.045   4.156   5.213
90232SOL    HW272594  12.108   4.275   5.282
90233SOL     OW72595   5.094   3.327   3.498
90233SOL    HW172596   5.045   3.408   3.481
90233SOL    HW272597   5.129   3.301   3.413
90234SOL     OW72598   4.040   5.808   4.426
90234SOL    HW172599   3.972   5.833   4.364
90234SOL    HW272600   3.999   5.820   4.512
90235SOL     OW72601   9.219   4.864   8.031
90235SOL    HW172602   9.165   4.892   8.104
90235SOL    HW272603   9.295   4.821   8.072
90236SOL     OW72604   5.664   3.362   8.790
90236SOL    HW172605   5.697   3.409   8.866
90236SOL    HW272606   5.657   3.271   8.818
90237SOL     OW72607   2.473   6.256   7.448
90237SOL    HW172608   2.528   6.254   7.371
90237SOL    HW272609   2.483   6.168   7.486
90238SOL     OW72610  12.459   7.691   0.906
90238SOL    HW172611  12.484   7.737   0.986
90238SOL    HW272612  12.374   7.651   0.926
90239SOL     OW72613  12.792   3.184   5.018
90239SOL    HW172614  12.782   3.089   5.027
90239SOL    HW272615  12.850   3.195   4.942
90240SOL     OW72616   7.401   3.237   5.856
90240SOL    HW172617   7.388   3.298   5.784
90240SOL    HW272618   7.317   3.192   5.865
90241SOL     OW72619  10.287  12.488   7.766
90241SOL    HW172620  10.207  12.523   7.728
90241SOL    HW272621  10.344  12.470   7.691
90242SOL     OW72622  11.043  12.452   6.967
90242SOL    HW172623  11.005  12.473   6.881
90242SOL    HW272624  11.117  12.512   6.976
90243SOL     OW72625   8.159   1.732   8.741
90243SOL    HW172626   8.175   1.646   8.702
90243SOL    HW272627   8.148   1.791   8.666
90244SOL     OW72628  14.495   7.143   6.520
90244SOL    HW172629  14.436   7.146   6.595
90244SOL    HW272630  14.438   7.155   6.444
90245SOL     OW72631  11.595   2.647   6.635
90245SOL    HW172632  11.529   2.685   6.578
90245SOL    HW272633  11.595   2.554   6.613
90246SOL     OW72634   4.781   6.720  11.503
90246SOL    HW172635   4.866   6.751  11.472
90246SOL    HW272636   4.781   6.626  11.484
90247SOL     OW72637   2.046  14.064  14.161
90247SOL    HW172638   1.954  14.093  14.161
90247SOL    HW272639   2.095  14.143  14.138
90248SOL     OW72640   5.239  11.408  14.559
90248SOL    HW172641   5.162  11.357  14.536
90248SOL    HW272642   5.299  11.344  14.598
90249SOL     OW72643   5.822   2.881   5.353
90249SOL    HW172644   5.737   2.920   5.334
90249SOL    HW272645   5.877   2.903   5.277
90250SOL     OW72646   7.290   5.272   4.251
90250SOL    HW172647   7.369   5.325   4.241
90250SOL    HW272648   7.316   5.184   4.223
90251SOL     OW72649  14.821   5.430   6.369
90251SOL    HW172650  14.875   5.434   6.448
90251SOL    HW272651   0.002   5.402   6.300
90252SOL     OW72652   4.222  11.880   4.319
90252SOL    HW172653   4.166  11.957   4.327
90252SOL    HW272654   4.309  11.915   4.298
90253SOL     OW72655   9.430   2.543   7.994
90253SOL    HW172656   9.518   2.522   8.027
90253SOL    HW272657   9.441   2.629   7.954
90254SOL     OW72658   1.111   6.873   2.343
90254SOL    HW172659   1.080   6.933   2.275
90254SOL    HW272660   1.146   6.798   2.295
90255SOL     OW72661   9.227   6.805   2.151
90255SOL    HW172662   9.253   6.768   2.066
90255SOL    HW272663   9.161   6.744   2.183
90256SOL     OW72664  14.467  13.699   4.398
90256SOL    HW172665  14.517  13.620   4.377
90256SOL    HW272666  14.438  13.687   4.488
90257SOL     OW72667  10.698  11.985   7.353
90257SOL    HW172668  10.768  12.046   7.329
90257SOL    HW272669  10.682  11.934   7.274
90258SOL     OW72670   6.628  14.619  12.220
90258SOL    HW172671   6.688  14.692  12.237
90258SOL    HW272672   6.616  14.620  12.125
90259SOL     OW72673   5.160  11.644   4.000
90259SOL    HW172674   5.145  11.677   4.088
90259SOL    HW272675   5.122  11.556   4.000
90260SOL     OW72676  14.281   1.099   7.660
90260SOL    HW172677  14.319   1.105   7.573
90260SOL    HW272678  14.197   1.145   7.653
90261SOL     OW72679   4.169  11.796  11.410
90261SOL    HW172680   4.260  11.798  11.380
90261SOL    HW272681   4.170  11.738  11.486
90262SOL     OW72682   8.533  11.668  12.751
90262SOL    HW172683   8.582  11.668  12.669
90262SOL    HW272684   8.561  11.588  12.795
90263SOL     OW72685   7.613   3.304   4.186
90263SOL    HW172686   7.517   3.295   4.180
90263SOL    HW272687   7.636   3.363   4.115
90264SOL     OW72688   2.652   8.320   6.631
90264SOL    HW172689   2.586   8.308   6.699
90264SOL    HW272690   2.662   8.415   6.625
90265SOL     OW72691   0.942  12.514   1.911
90265SOL    HW172692   0.946  12.434   1.964
90265SOL    HW272693   0.952  12.484   1.821
90266SOL     OW72694   4.647   2.904  14.334
90266SOL    HW172695   4.560   2.883  14.367
90266SOL    HW272696   4.634   2.974  14.271
90267SOL     OW72697   9.610   4.993  14.183
90267SOL    HW172698   9.675   4.929  14.212
90267SOL    HW272699   9.657   5.077  14.181
90268SOL     OW72700  13.775  10.931   7.059
90268SOL    HW172701  13.751  11.019   7.087
90268SOL    HW272702  13.866  10.920   7.089
90269SOL     OW72703   9.826   5.294  12.914
90269SOL    HW172704   9.774   5.356  12.965
90269SOL    HW272705   9.872   5.348  12.849
90270SOL     OW72706   6.825  12.666  14.389
90270SOL    HW172707   6.801  12.578  14.357
90270SOL    HW272708   6.899  12.650  14.447
90271SOL     OW72709   9.998   9.926   6.622
90271SOL    HW172710   9.990   9.831   6.615
90271SOL    HW272711  10.088   9.942   6.649
90272SOL     OW72712   0.947   9.700   3.057
90272SOL    HW172713   0.959   9.791   3.085
90272SOL    HW272714   0.970   9.648   3.134
90273SOL     OW72715   5.969  12.545  12.042
90273SOL    HW172716   5.987  12.548  12.135
90273SOL    HW272717   5.960  12.452  12.022
90274SOL     OW72718  13.724   2.600   4.297
90274SOL    HW172719  13.696   2.625   4.209
90274SOL    HW272720  13.798   2.541   4.283
90275SOL     OW72721  14.190  11.496   0.896
90275SOL    HW172722  14.126  11.451   0.840
90275SOL    HW272723  14.202  11.581   0.855
90276SOL     OW72724   7.187  10.529   7.014
90276SOL    HW172725   7.104  10.489   7.041
90276SOL    HW272726   7.195  10.506   6.921
90277SOL     OW72727   1.043   1.577   5.131
90277SOL    HW172728   0.962   1.547   5.090
90277SOL    HW272729   1.113   1.533   5.083
90278SOL     OW72730  10.808   7.108  11.937
90278SOL    HW172731  10.897   7.144  11.938
90278SOL    HW272732  10.764   7.156  11.866
90279SOL     OW72733   3.709   3.839   8.225
90279SOL    HW172734   3.802   3.861   8.234
90279SOL    HW272735   3.695   3.771   8.290
90280SOL     OW72736   1.274   0.985   3.782
90280SOL    HW172737   1.302   0.901   3.747
90280SOL    HW272738   1.249   0.966   3.873
90281SOL     OW72739   6.874   8.495  11.877
90281SOL    HW172740   6.895   8.462  11.789
90281SOL    HW272741   6.849   8.417  11.926
90282SOL     OW72742   9.434   4.061   1.550
90282SOL    HW172743   9.462   4.122   1.482
90282SOL    HW272744   9.495   3.987   1.543
90283SOL     OW72745  13.463  13.165   6.228
90283SOL    HW172746  13.408  13.132   6.300
90283SOL    HW272747  13.415  13.140   6.149
90284SOL     OW72748   5.906   0.933   4.158
90284SOL    HW172749   5.925   0.840   4.168
90284SOL    HW272750   5.811   0.938   4.149
90285SOL     OW72751   5.984   5.669  11.601
90285SOL    HW172752   6.016   5.580  11.616
90285SOL    HW272753   6.012   5.717  11.679
90286SOL     OW72754   1.864  13.837   1.942
90286SOL    HW172755   1.829  13.803   2.025
90286SOL    HW272756   1.918  13.765   1.909
90287SOL     OW72757   0.302   7.855   5.753
90287SOL    HW172758   0.280   7.762   5.745
90287SOL    HW272759   0.317   7.869   5.846
90288SOL     OW72760   3.642   3.449  11.631
90288SOL    HW172761   3.667   3.410  11.547
90288SOL    HW272762   3.718   3.434  11.688
90289SOL     OW72763   4.164   7.287   4.449
90289SOL    HW172764   4.260   7.289   4.439
90289SOL    HW272765   4.149   7.240   4.531
90290SOL     OW72766   1.677   5.363  10.127
90290SOL    HW172767   1.767   5.378  10.157
90290SOL    HW272768   1.638   5.307  10.194
90291SOL     OW72769  11.387   1.863  13.364
90291SOL    HW172770  11.335   1.839  13.287
90291SOL    HW272771  11.473   1.826  13.347
90292SOL     OW72772   6.850   4.228   1.966
90292SOL    HW172773   6.810   4.313   1.947
90292SOL    HW272774   6.907   4.245   2.041
90293SOL     OW72775  11.447   8.992   9.440
90293SOL    HW172776  11.428   8.918   9.381
90293SOL    HW272777  11.520   8.962   9.493
90294SOL     OW72778   4.733   6.960   3.605
90294SOL    HW172779   4.668   7.016   3.647
90294SOL    HW272780   4.683   6.889   3.566
90295SOL     OW72781   2.616  12.346   2.934
90295SOL    HW172782   2.615  12.379   3.024
90295SOL    HW272783   2.526  12.318   2.918
90296SOL     OW72784   0.496   9.354   6.808
90296SOL    HW172785   0.415   9.349   6.859
90296SOL    HW272786   0.481   9.295   6.734
90297SOL     OW72787  11.273  11.105   1.874
90297SOL    HW172788  11.268  11.119   1.969
90297SOL    HW272789  11.211  11.035   1.857
90298SOL     OW72790   8.137  13.731  11.401
90298SOL    HW172791   8.138  13.807  11.458
90298SOL    HW272792   8.050  13.731  11.361
90299SOL     OW72793  13.219  13.853   7.822
90299SOL    HW172794  13.268  13.771   7.829
90299SOL    HW272795  13.285  13.921   7.830
90300SOL     OW72796   5.642  14.778  13.334
90300SOL    HW172797   5.582  14.714  13.295
90300SOL    HW272798   5.667  14.835  13.260
90301SOL     OW72799   8.964   8.824   5.710
90301SOL    HW172800   8.989   8.912   5.681
90301SOL    HW272801   8.952   8.833   5.805
90302SOL     OW72802  10.758   5.042  11.989
90302SOL    HW172803  10.763   5.114  12.052
90302SOL    HW272804  10.671   5.005  12.001
90303SOL     OW72805   2.565   5.008   9.217
90303SOL    HW172806   2.630   4.947   9.185
90303SOL    HW272807   2.507   4.956   9.272
90304SOL     OW72808   0.653   3.994   0.978
90304SOL    HW172809   0.665   3.929   1.048
90304SOL    HW272810   0.684   3.950   0.899
90305SOL     OW72811   4.509   8.036   0.121
90305SOL    HW172812   4.455   8.019   0.044
90305SOL    HW272813   4.479   8.121   0.152
90306SOL     OW72814   7.279  11.876   6.570
90306SOL    HW172815   7.355  11.833   6.608
90306SOL    HW272816   7.211  11.869   6.637
90307SOL     OW72817   2.128  10.819  10.931
90307SOL    HW172818   2.148  10.791  10.842
90307SOL    HW272819   2.191  10.889  10.949
90308SOL     OW72820  12.492  12.198   9.448
90308SOL    HW172821  12.423  12.221   9.385
90308SOL    HW272822  12.471  12.248   9.526
90309SOL     OW72823   4.627   1.743  10.092
90309SOL    HW172824   4.624   1.828  10.136
90309SOL    HW272825   4.720   1.719  10.094
90310SOL     OW72826   4.476  13.786   2.070
90310SOL    HW172827   4.554  13.763   2.020
90310SOL    HW272828   4.504  13.858   2.127
90311SOL     OW72829  13.469   5.495  10.791
90311SOL    HW172830  13.544   5.514  10.848
90311SOL    HW272831  13.508   5.463  10.710
90312SOL     OW72832   8.475   3.281   1.291
90312SOL    HW172833   8.435   3.367   1.285
90312SOL    HW272834   8.404   3.224   1.323
90313SOL     OW72835   3.125  13.139   5.015
90313SOL    HW172836   3.051  13.189   5.050
90313SOL    HW272837   3.177  13.204   4.967
90314SOL     OW72838   1.361   1.135  12.299
90314SOL    HW172839   1.282   1.190  12.296
90314SOL    HW272840   1.432   1.198  12.305
90315SOL     OW72841  11.926   6.426  13.872
90315SOL    HW172842  12.005   6.393  13.914
90315SOL    HW272843  11.938   6.404  13.779
90316SOL     OW72844  12.200  10.380   5.438
90316SOL    HW172845  12.109  10.350   5.442
90316SOL    HW272846  12.198  10.467   5.478
90317SOL     OW72847  14.098   5.716   0.465
90317SOL    HW172848  14.136   5.628   0.465
90317SOL    HW272849  14.173   5.775   0.453
90318SOL     OW72850   0.901  14.031   0.491
90318SOL    HW172851   0.908  13.951   0.440
90318SOL    HW272852   0.975  14.027   0.553
90319SOL     OW72853   5.654  12.011   5.345
90319SOL    HW172854   5.661  12.022   5.250
90319SOL    HW272855   5.730  12.056   5.380
90320SOL     OW72856   8.756   0.008   7.183
90320SOL    HW172857   8.779   0.078   7.122
90320SOL    HW272858   8.837  14.836   7.191
90321SOL     OW72859   8.684   8.215  13.474
90321SOL    HW172860   8.768   8.227  13.431
90321SOL    HW272861   8.628   8.176  13.407
90322SOL     OW72862   2.111  10.207  13.495
90322SOL    HW172863   2.057  10.160  13.559
90322SOL    HW272864   2.187  10.237  13.546
90323SOL     OW72865   3.502   3.337  14.835
90323SOL    HW172866   3.449   3.415  14.823
90323SOL    HW272867   3.588   3.360  14.801
90324SOL     OW72868   0.160   1.470   9.252
90324SOL    HW172869   0.105   1.544   9.278
90324SOL    HW272870   0.230   1.510   9.201
90325SOL     OW72871   6.407   5.308   7.383
90325SOL    HW172872   6.460   5.314   7.303
90325SOL    HW272873   6.398   5.214   7.398
90326SOL     OW72874   3.554  13.682   1.448
90326SOL    HW172875   3.626  13.737   1.480
90326SOL    HW272876   3.589  13.642   1.368
90327SOL     OW72877   2.998   0.274   9.938
90327SOL    HW172878   3.019   0.353   9.888
90327SOL    HW272879   2.930   0.302   9.999
90328SOL     OW72880  13.945  14.635   6.281
90328SOL    HW172881  13.896  14.589   6.213
90328SOL    HW272882  13.886  14.635   6.357
90329SOL     OW72883   4.423   8.394   7.769
90329SOL    HW172884   4.342   8.390   7.820
90329SOL    HW272885   4.445   8.303   7.752
90330SOL     OW72886  13.031   3.482   5.421
90330SOL    HW172887  13.068   3.398   5.448
90330SOL    HW272888  13.022   3.474   5.326
90331SOL     OW72889   3.014   0.183  13.104
90331SOL    HW172890   3.010   0.092  13.075
90331SOL    HW272891   2.987   0.233  13.026
90332SOL     OW72892  12.868   3.418   0.763
90332SOL    HW172893  12.774   3.439   0.755
90332SOL    HW272894  12.906   3.497   0.802
90333SOL     OW72895   9.939  13.870   8.601
90333SOL    HW172896   9.866  13.877   8.539
90333SOL    HW272897  10.007  13.823   8.553
90334SOL     OW72898   9.843   6.971  14.464
90334SOL    HW172899   9.832   6.927  14.380
90334SOL    HW272900   9.786   6.923  14.524
90335SOL     OW72901   9.667  12.688   0.506
90335SOL    HW172902   9.755  12.678   0.469
90335SOL    HW272903   9.641  12.599   0.530
90336SOL     OW72904   0.053  10.068   3.185
90336SOL    HW172905   0.141  10.058   3.223
90336SOL    HW272906   0.029  10.159   3.203
90337SOL     OW72907  10.480   5.506   2.628
90337SOL    HW172908  10.566   5.514   2.587
90337SOL    HW272909  10.483   5.566   2.702
90338SOL     OW72910   8.008  12.787   0.784
90338SOL    HW172911   8.074  12.815   0.846
90338SOL    HW272912   7.925  12.801   0.829
90339SOL     OW72913   1.347   5.198   0.596
90339SOL    HW172914   1.406   5.267   0.626
90339SOL    HW272915   1.349   5.133   0.666
90340SOL     OW72916   3.820  10.940   3.141
90340SOL    HW172917   3.754  10.901   3.198
90340SOL    HW272918   3.830  10.877   3.069
90341SOL     OW72919  10.689   5.725   6.671
90341SOL    HW172920  10.594   5.737   6.665
90341SOL    HW272921  10.715   5.781   6.745
90342SOL     OW72922   2.479  13.334   7.467
90342SOL    HW172923   2.479  13.429   7.454
90342SOL    HW272924   2.391  13.316   7.501
90343SOL     OW72925   9.275  12.092  14.781
90343SOL    HW172926   9.185  12.072  14.757
90343SOL    HW272927   9.328  12.039  14.722
90344SOL     OW72928   7.377  14.179  11.464
90344SOL    HW172929   7.304  14.129  11.499
90344SOL    HW272930   7.405  14.129  11.387
90345SOL     OW72931  11.652   2.939   1.430
90345SOL    HW172932  11.654   2.844   1.443
90345SOL    HW272933  11.703   2.974   1.502
90346SOL     OW72934   3.503  10.922   6.011
90346SOL    HW172935   3.470  10.932   5.922
90346SOL    HW272936   3.567  10.993   6.021
90347SOL     OW72937  14.564   5.202  12.454
90347SOL    HW172938  14.626   5.129  12.462
90347SOL    HW272939  14.498   5.170  12.392
90348SOL     OW72940   2.198   0.387  12.417
90348SOL    HW172941   2.144   0.418  12.344
90348SOL    HW272942   2.283   0.368  12.377
90349SOL     OW72943   7.746   3.296  13.990
90349SOL    HW172944   7.829   3.255  14.016
90349SOL    HW272945   7.735   3.273  13.898
90350SOL     OW72946   9.015   2.299  10.778
90350SOL    HW172947   9.089   2.339  10.824
90350SOL    HW272948   8.971   2.373  10.735
90351SOL     OW72949   8.348  12.068   9.215
90351SOL    HW172950   8.282  12.118   9.167
90351SOL    HW272951   8.350  12.109   9.302
90352SOL     OW72952   8.624   4.592   2.066
90352SOL    HW172953   8.564   4.534   2.020
90352SOL    HW272954   8.625   4.672   2.013
90353SOL     OW72955   0.031  12.006   4.947
90353SOL    HW172956  14.828  12.046   4.975
90353SOL    HW272957   0.005  11.933   4.891
90354SOL     OW72958  10.038   4.273  12.702
90354SOL    HW172959  10.111   4.305  12.649
90354SOL    HW272960  10.059   4.181  12.718
90355SOL     OW72961   6.304   1.953  14.273
90355SOL    HW172962   6.382   1.899  14.292
90355SOL    HW272963   6.325   2.038  14.311
90356SOL     OW72964   4.994  10.834   5.778
90356SOL    HW172965   4.955  10.845   5.691
90356SOL    HW272966   4.920  10.810   5.834
90357SOL     OW72967  10.483   8.699   8.685
90357SOL    HW172968  10.483   8.609   8.651
90357SOL    HW272969  10.462   8.689   8.778
90358SOL     OW72970   1.214   7.465  11.974
90358SOL    HW172971   1.166   7.427  12.048
90358SOL    HW272972   1.150   7.524  11.933
90359SOL     OW72973   9.419  12.920   6.048
90359SOL    HW172974   9.479  12.845   6.040
90359SOL    HW272975   9.460  12.977   6.112
90360SOL     OW72976   4.710   6.499   6.874
90360SOL    HW172977   4.645   6.569   6.883
90360SOL    HW272978   4.722   6.488   6.780
90361SOL     OW72979   6.258   3.972   7.927
90361SOL    HW172980   6.238   3.919   8.004
90361SOL    HW272981   6.187   3.954   7.866
90362SOL     OW72982   3.244   5.447  13.266
90362SOL    HW172983   3.330   5.436  13.307
90362SOL    HW272984   3.230   5.367  13.216
90363SOL     OW72985   2.691   7.125   6.721
90363SOL    HW172986   2.650   7.042   6.696
90363SOL    HW272987   2.666   7.138   6.813
90364SOL     OW72988   5.299   2.267  10.517
90364SOL    HW172989   5.250   2.311  10.586
90364SOL    HW272990   5.387   2.307  10.522
90365SOL     OW72991  10.096   5.597   7.540
90365SOL    HW172992  10.174   5.598   7.484
90365SOL    HW272993  10.033   5.544   7.492
90366SOL     OW72994   1.863  10.484  10.670
90366SOL    HW172995   1.819  10.527  10.596
90366SOL    HW272996   1.896  10.402  10.633
90367SOL     OW72997   1.079  11.297   7.254
90367SOL    HW172998   1.033  11.295   7.170
90367SOL    HW272999   1.169  11.273   7.234
90368SOL     OW73000   9.928  10.551  11.426
90368SOL    HW173001  10.008  10.499  11.416
90368SOL    HW273002   9.886  10.546  11.340
90369SOL     OW73003   7.699   7.780   2.104
90369SOL    HW173004   7.643   7.740   2.037
90369SOL    HW273005   7.788   7.754   2.079
90370SOL     OW73006   5.154   7.622   1.731
90370SOL    HW173007   5.088   7.640   1.798
90370SOL    HW273008   5.159   7.703   1.680
90371SOL     OW73009  12.749   5.055   1.229
90371SOL    HW173010  12.683   5.093   1.287
90371SOL    HW273011  12.818   5.024   1.288
90372SOL     OW73012   4.943  12.340  14.220
90372SOL    HW173013   4.943  12.283  14.143
90372SOL    HW273014   4.963  12.282  14.293
90373SOL     OW73015   9.463   4.906   0.004
90373SOL    HW173016   9.435   4.815  14.869
90373SOL    HW273017   9.461   4.917   0.099
90374SOL     OW73018   7.256   5.031  12.076
90374SOL    HW173019   7.192   5.029  12.004
90374SOL    HW273020   7.317   5.101  12.052
90375SOL     OW73021   1.796  14.844   7.069
90375SOL    HW173022   1.726   0.026   7.090
90375SOL    HW273023   1.829  14.816   7.154
90376SOL     OW73024   7.420  13.752  14.128
90376SOL    HW173025   7.413  13.674  14.183
90376SOL    HW273026   7.343  13.748  14.071
90377SOL     OW73027  13.611   6.764   9.509
90377SOL    HW173028  13.606   6.853   9.474
90377SOL    HW273029  13.578   6.770   9.598
90378SOL     OW73030   5.970  12.281  11.935
90378SOL    HW173031   5.937  12.284  11.845
90378SOL    HW273032   6.056  12.241  11.928
90379SOL     OW73033   6.945   9.503   7.608
90379SOL    HW173034   6.857   9.540   7.617
90379SOL    HW273035   6.936   9.412   7.637
90380SOL     OW73036  14.434  13.680   0.411
90380SOL    HW173037  14.405  13.662   0.321
90380SOL    HW273038  14.451  13.774   0.412
90381SOL     OW73039   0.181  10.198  13.042
90381SOL    HW173040   0.202  10.140  13.116
90381SOL    HW273041   0.131  10.269  13.081
90382SOL     OW73042   7.845   2.935   3.617
90382SOL    HW173043   7.880   3.016   3.581
90382SOL    HW273044   7.825   2.881   3.540
90383SOL     OW73045   2.657  14.412   1.990
90383SOL    HW173046   2.569  14.398   2.025
90383SOL    HW273047   2.651  14.390   1.898
90384SOL     OW73048  13.669   3.869   7.423
90384SOL    HW173049  13.584   3.860   7.380
90384SOL    HW273050  13.657   3.827   7.509
90385SOL     OW73051   8.726   6.007   6.670
90385SOL    HW173052   8.709   6.100   6.680
90385SOL    HW273053   8.640   5.968   6.658
90386SOL     OW73054   6.075   1.156   4.768
90386SOL    HW173055   6.123   1.081   4.804
90386SOL    HW273056   5.983   1.129   4.769
90387SOL     OW73057   7.367   2.351   7.361
90387SOL    HW173058   7.450   2.317   7.394
90387SOL    HW273059   7.306   2.279   7.371
90388SOL     OW73060   1.237  13.586   9.929
90388SOL    HW173061   1.191  13.633   9.998
90388SOL    HW273062   1.196  13.500   9.926
90389SOL     OW73063   4.194  12.436  14.372
90389SOL    HW173064   4.192  12.383  14.293
90389SOL    HW273065   4.286  12.459  14.384
90390SOL     OW73066  13.640  14.059   9.241
90390SOL    HW173067  13.662  14.147   9.209
90390SOL    HW273068  13.546  14.051   9.224
90391SOL     OW73069  14.104  14.082  11.879
90391SOL    HW173070  14.012  14.106  11.865
90391SOL    HW273071  14.107  14.056  11.971
90392SOL     OW73072   3.510   0.303   3.227
90392SOL    HW173073   3.421   0.302   3.193
90392SOL    HW273074   3.564   0.331   3.152
90393SOL     OW73075   8.239   2.571   6.613
90393SOL    HW173076   8.290   2.539   6.688
90393SOL    HW273077   8.158   2.604   6.652
90394SOL     OW73078   8.672  10.126  12.287
90394SOL    HW173079   8.677  10.097  12.195
90394SOL    HW273080   8.603  10.072  12.325
90395SOL     OW73081  14.754   4.336  11.253
90395SOL    HW173082  14.735   4.309  11.343
90395SOL    HW273083  14.676   4.384  11.225
90396SOL     OW73084   8.643   1.118  12.092
90396SOL    HW173085   8.692   1.169  12.028
90396SOL    HW273086   8.572   1.079  12.042
90397SOL     OW73087  11.305   0.873   7.146
90397SOL    HW173088  11.252   0.801   7.181
90397SOL    HW273089  11.241   0.941   7.124
90398SOL     OW73090   0.367   6.023   7.497
90398SOL    HW173091   0.369   6.051   7.406
90398SOL    HW273092   0.336   6.099   7.546
90399SOL     OW73093   0.431  11.391   1.183
90399SOL    HW173094   0.351  11.355   1.146
90399SOL    HW273095   0.497  11.323   1.168
90400SOL     OW73096   2.326  11.020  12.826
90400SOL    HW173097   2.315  11.018  12.731
90400SOL    HW273098   2.312  10.930  12.854
90401SOL     OW73099   9.291  11.994   8.826
90401SOL    HW173100   9.208  11.949   8.842
90401SOL    HW273101   9.280  12.031   8.738
90402SOL     OW73102   6.057  10.716  10.731
90402SOL    HW173103   6.100  10.647  10.681
90402SOL    HW273104   6.066  10.794  10.677
90403SOL     OW73105   7.886  12.191   1.516
90403SOL    HW173106   7.924  12.276   1.540
90403SOL    HW273107   7.950  12.152   1.457
90404SOL     OW73108  13.520  14.791   4.254
90404SOL    HW173109  13.486  14.703   4.271
90404SOL    HW273110  13.614  14.778   4.240
90405SOL     OW73111  10.686   8.833  12.918
90405SOL    HW173112  10.675   8.926  12.902
90405SOL    HW273113  10.607   8.806  12.965
90406SOL     OW73114   8.845   6.162   9.693
90406SOL    HW173115   8.900   6.156   9.615
90406SOL    HW273116   8.889   6.227   9.748
90407SOL     OW73117   3.842  14.207  10.678
90407SOL    HW173118   3.936  14.227  10.675
90407SOL    HW273119   3.806  14.273  10.737
90408SOL     OW73120  11.276   8.935   7.546
90408SOL    HW173121  11.193   8.925   7.500
90408SOL    HW273122  11.265   9.016   7.597
90409SOL     OW73123   5.710   4.282  14.375
90409SOL    HW173124   5.780   4.236  14.420
90409SOL    HW273125   5.744   4.371  14.363
90410SOL     OW73126  11.068  12.141  14.796
90410SOL    HW173127  11.048  12.056  14.834
90410SOL    HW273128  11.153  12.164  14.833
90411SOL     OW73129   6.720  11.939   1.308
90411SOL    HW173130   6.794  11.894   1.268
90411SOL    HW273131   6.692  11.880   1.378
90412SOL     OW73132   5.534   0.255  13.659
90412SOL    HW173133   5.603   0.286  13.717
90412SOL    HW273134   5.580   0.207  13.590
90413SOL     OW73135  12.515  11.027   4.381
90413SOL    HW173136  12.591  11.072   4.346
90413SOL    HW273137  12.514  10.942   4.336
90414SOL     OW73138  10.031   4.180   8.028
90414SOL    HW173139  10.076   4.233   7.961
90414SOL    HW273140   9.943   4.218   8.033
90415SOL     OW73141   8.284   5.507   5.909
90415SOL    HW173142   8.354   5.526   5.971
90415SOL    HW273143   8.311   5.548   5.827
90416SOL     OW73144   8.658   0.909   2.561
90416SOL    HW173145   8.602   0.935   2.634
90416SOL    HW273146   8.648   0.814   2.556
90417SOL     OW73147  13.818   2.174   7.486
90417SOL    HW173148  13.774   2.148   7.566
90417SOL    HW273149  13.788   2.264   7.470
90418SOL     OW73150  12.370   6.848   2.063
90418SOL    HW173151  12.370   6.773   2.123
90418SOL    HW273152  12.404   6.813   1.981
90419SOL     OW73153   1.572   4.193   4.866
90419SOL    HW173154   1.522   4.225   4.941
90419SOL    HW273155   1.580   4.099   4.881
90420SOL     OW73156   8.050   7.730   2.230
90420SOL    HW173157   8.117   7.695   2.289
90420SOL    HW273158   8.069   7.690   2.145
90421SOL     OW73159  10.075   5.574  12.915
90421SOL    HW173160  10.158   5.526  12.915
90421SOL    HW273161  10.083   5.635  12.841
90422SOL     OW73162   0.174  13.729   0.549
90422SOL    HW173163   0.192  13.639   0.578
90422SOL    HW273164   0.200  13.730   0.457
90423SOL     OW73165   2.553  11.649  14.337
90423SOL    HW173166   2.461  11.665  14.361
90423SOL    HW273167   2.594  11.736  14.342
90424SOL     OW73168   1.836   5.049   4.352
90424SOL    HW173169   1.812   5.070   4.262
90424SOL    HW273170   1.918   5.096   4.366
90425SOL     OW73171   6.837   5.338   8.593
90425SOL    HW173172   6.915   5.291   8.622
90425SOL    HW273173   6.868   5.425   8.569
90426SOL     OW73174   7.265   5.373  10.789
90426SOL    HW173175   7.174   5.395  10.810
90426SOL    HW273176   7.312   5.456  10.791
90427SOL     OW73177   4.772   0.083   6.406
90427SOL    HW173178   4.686   0.078   6.445
90427SOL    HW273179   4.761   0.141   6.330
90428SOL     OW73180   0.715   7.868   1.384
90428SOL    HW173181   0.810   7.877   1.375
90428SOL    HW273182   0.703   7.787   1.434
90429SOL     OW73183   1.174  14.093   6.411
90429SOL    HW173184   1.157  14.038   6.488
90429SOL    HW273185   1.139  14.042   6.337
90430SOL     OW73186  13.228   5.053   0.903
90430SOL    HW173187  13.216   5.147   0.915
90430SOL    HW273188  13.178   5.032   0.825
90431SOL     OW73189   6.546  13.750   2.291
90431SOL    HW173190   6.637  13.778   2.300
90431SOL    HW273191   6.521  13.777   2.202
90432SOL     OW73192   0.567   1.488   4.764
90432SOL    HW173193   0.582   1.579   4.736
90432SOL    HW273194   0.513   1.450   4.694
90433SOL     OW73195   2.785  14.079   7.595
90433SOL    HW173196   2.863  14.101   7.647
90433SOL    HW273197   2.821  14.045   7.513
90434SOL     OW73198   0.456   4.562  12.854
90434SOL    HW173199   0.480   4.598  12.940
90434SOL    HW273200   0.393   4.493  12.875
90435SOL     OW73201  11.075   3.648   0.493
90435SOL    HW173202  11.111   3.729   0.529
90435SOL    HW273203  11.117   3.578   0.543
90436SOL     OW73204   3.634   8.236   5.578
90436SOL    HW173205   3.561   8.204   5.525
90436SOL    HW273206   3.596   8.304   5.633
90437SOL     OW73207   9.512   2.387   5.144
90437SOL    HW173208   9.583   2.452   5.149
90437SOL    HW273209   9.442   2.424   5.197
90438SOL     OW73210   6.643   7.471  13.177
90438SOL    HW173211   6.671   7.526  13.249
90438SOL    HW273212   6.629   7.385  13.216
90439SOL     OW73213  11.318   7.482  10.868
90439SOL    HW173214  11.234   7.496  10.824
90439SOL    HW273215  11.367   7.563  10.853
90440SOL     OW73216   8.669   3.288  10.481
90440SOL    HW173217   8.624   3.306  10.563
90440SOL    HW273218   8.602   3.248  10.425
90441SOL     OW73219  14.249  14.321   6.809
90441SOL    HW173220  14.295  14.392   6.854
90441SOL    HW273221  14.307  14.246   6.818
90442SOL     OW73222   7.784  14.707   7.145
90442SOL    HW173223   7.791  14.611   7.139
90442SOL    HW273224   7.699  14.722   7.187
90443SOL     OW73225   2.650  11.206  10.229
90443SOL    HW173226   2.682  11.150  10.300
90443SOL    HW273227   2.693  11.173  10.150
90444SOL     OW73228  13.023   9.285   2.833
90444SOL    HW173229  13.075   9.217   2.878
90444SOL    HW273230  13.039   9.364   2.883
90445SOL     OW73231  12.327  11.240   5.385
90445SOL    HW173232  12.238  11.270   5.365
90445SOL    HW273233  12.383  11.293   5.328
90446SOL     OW73234   9.637   9.196   9.687
90446SOL    HW173235   9.687   9.229   9.762
90446SOL    HW273236   9.615   9.275   9.637
90447SOL     OW73237   2.717  11.560  11.998
90447SOL    HW173238   2.631  11.528  12.024
90447SOL    HW273239   2.778  11.492  12.025
90448SOL     OW73240   6.859  13.838  10.715
90448SOL    HW173241   6.886  13.900  10.783
90448SOL    HW273242   6.800  13.888  10.658
90449SOL     OW73243  11.952  13.240  12.042
90449SOL    HW173244  11.917  13.152  12.059
90449SOL    HW273245  11.947  13.285  12.126
90450SOL     OW73246   4.937   2.526  11.384
90450SOL    HW173247   4.986   2.561  11.309
90450SOL    HW273248   5.004   2.483  11.437
90451SOL     OW73249  11.185   3.588   1.387
90451SOL    HW173250  11.261   3.611   1.333
90451SOL    HW273251  11.121   3.553   1.325
90452SOL     OW73252   9.741   1.666  13.312
90452SOL    HW173253   9.778   1.672  13.224
90452SOL    HW273254   9.648   1.683  13.300
90453SOL     OW73255  12.071   0.167   3.444
90453SOL    HW173256  12.017   0.160   3.365
90453SOL    HW273257  12.009   0.158   3.516
90454SOL     OW73258   2.088   1.639   2.033
90454SOL    HW173259   2.060   1.727   2.059
90454SOL    HW273260   2.133   1.605   2.110
90455SOL     OW73261  13.310  11.476   2.434
90455SOL    HW173262  13.258  11.470   2.514
90455SOL    HW273263  13.282  11.400   2.383
90456SOL     OW73264   1.208  11.229   2.622
90456SOL    HW173265   1.182  11.321   2.610
90456SOL    HW273266   1.245  11.227   2.710
90457SOL     OW73267  13.280   0.624   9.632
90457SOL    HW173268  13.224   0.669   9.695
90457SOL    HW273269  13.313   0.547   9.679
90458SOL     OW73270   8.044   8.541   1.212
90458SOL    HW173271   7.996   8.458   1.203
90458SOL    HW273272   8.107   8.540   1.140
90459SOL     OW73273  12.575   6.089   9.695
90459SOL    HW173274  12.590   5.994   9.690
90459SOL    HW273275  12.622   6.117   9.774
90460SOL     OW73276  11.730  11.018   3.680
90460SOL    HW173277  11.702  11.105   3.710
90460SOL    HW273278  11.726  11.023   3.584
90461SOL     OW73279   0.978   2.945  12.226
90461SOL    HW173280   1.003   2.897  12.147
90461SOL    HW273281   0.940   2.878  12.283
90462SOL     OW73282   9.451  11.097  14.240
90462SOL    HW173283   9.444  11.119  14.147
90462SOL    HW273284   9.406  11.012  14.248
90463SOL     OW73285  12.023   7.362   6.973
90463SOL    HW173286  12.061   7.423   6.909
90463SOL    HW273287  11.986   7.292   6.920
90464SOL     OW73288  11.508   3.420   0.865
90464SOL    HW173289  11.429   3.467   0.889
90464SOL    HW273290  11.570   3.488   0.840
90465SOL     OW73291   4.766   0.861  13.268
90465SOL    HW173292   4.826   0.790  13.288
90465SOL    HW273293   4.800   0.899  13.187
90466SOL     OW73294  10.950  10.447  12.150
90466SOL    HW173295  10.934  10.418  12.061
90466SOL    HW273296  11.036  10.489  12.146
90467SOL     OW73297   5.876   9.659   1.400
90467SOL    HW173298   5.940   9.715   1.355
90467SOL    HW273299   5.841   9.602   1.332
90468SOL     OW73300  11.282   9.287  14.034
90468SOL    HW173301  11.337   9.338  14.094
90468SOL    HW273302  11.192   9.312  14.056
90469SOL     OW73303  10.558  14.826   8.230
90469SOL    HW173304  10.625  14.819   8.162
90469SOL    HW273305  10.521   0.034   8.219
90470SOL     OW73306  12.725   9.081  13.020
90470SOL    HW173307  12.676   8.999  13.029
90470SOL    HW273308  12.709   9.109  12.930
90471SOL     OW73309  14.102   6.300   1.000
90471SOL    HW173310  14.105   6.378   0.945
90471SOL    HW273311  14.011   6.270   0.993
90472SOL     OW73312  12.044  14.343  11.914
90472SOL    HW173313  12.120  14.288  11.936
90472SOL    HW273314  11.999  14.295  11.845
90473SOL     OW73315  13.666  11.186   2.833
90473SOL    HW173316  13.601  11.119   2.854
90473SOL    HW273317  13.630  11.267   2.869
90474SOL     OW73318  12.676   2.028  11.330
90474SOL    HW173319  12.627   2.060  11.254
90474SOL    HW273320  12.762   2.004  11.296
90475SOL     OW73321  11.761   1.900   6.420
90475SOL    HW173322  11.762   1.887   6.515
90475SOL    HW273323  11.675   1.937   6.401
90476SOL     OW73324  12.259  14.391  14.313
90476SOL    HW173325  12.247  14.466  14.371
90476SOL    HW273326  12.209  14.413  14.234
90477SOL     OW73327   9.175   7.765  14.693
90477SOL    HW173328   9.199   7.769  14.785
90477SOL    HW273329   9.080   7.762  14.693
90478SOL     OW73330  10.988  11.777   5.481
90478SOL    HW173331  11.066  11.750   5.528
90478SOL    HW273332  11.011  11.863   5.444
90479SOL     OW73333   3.190  10.503  13.049
90479SOL    HW173334   3.233  10.425  13.086
90479SOL    HW273335   3.115  10.467  13.001
90480SOL     OW73336   3.419   8.847  12.220
90480SOL    HW173337   3.389   8.915  12.280
90480SOL    HW273338   3.471   8.788  12.274
90481SOL     OW73339   8.582  13.407   6.620
90481SOL    HW173340   8.638  13.467   6.571
90481SOL    HW273341   8.505  13.458   6.643
90482SOL     OW73342   4.288  10.643   0.668
90482SOL    HW173343   4.215  10.581   0.670
90482SOL    HW273344   4.359  10.597   0.712
90483SOL     OW73345   3.834   2.678  12.466
90483SOL    HW173346   3.919   2.720  12.451
90483SOL    HW273347   3.779   2.747  12.503
90484SOL     OW73348   5.337   9.999  11.163
90484SOL    HW173349   5.259  10.051  11.184
90484SOL    HW273350   5.314   9.954  11.082
90485SOL     OW73351   7.813  13.970   6.840
90485SOL    HW173352   7.740  13.908   6.831
90485SOL    HW273353   7.869  13.951   6.765
90486SOL     OW73354   3.943   5.935  13.732
90486SOL    HW173355   3.867   5.888  13.766
90486SOL    HW273356   3.993   5.958  13.811
90487SOL     OW73357   8.046   4.701   7.724
90487SOL    HW173358   8.030   4.638   7.654
90487SOL    HW273359   8.083   4.650   7.796
90488SOL     OW73360   3.329   8.609   0.865
90488SOL    HW173361   3.342   8.515   0.854
90488SOL    HW273362   3.363   8.647   0.784
90489SOL     OW73363   1.890   8.932  11.610
90489SOL    HW173364   1.949   8.858  11.619
90489SOL    HW273365   1.885   8.970  11.698
90490SOL     OW73366   7.625   2.020   1.054
90490SOL    HW173367   7.643   1.934   1.017
90490SOL    HW273368   7.696   2.034   1.117
90491SOL     OW73369   5.908   6.303   4.176
90491SOL    HW173370   5.823   6.346   4.162
90491SOL    HW273371   5.886   6.211   4.191
90492SOL     OW73372   9.907   1.744  11.187
90492SOL    HW173373   9.923   1.664  11.237
90492SOL    HW273374   9.820   1.772  11.215
90493SOL     OW73375   5.021   0.644   5.189
90493SOL    HW173376   5.097   0.702   5.184
90493SOL    HW273377   4.969   0.666   5.112
90494SOL     OW73378   2.034   7.266  12.350
90494SOL    HW173379   2.120   7.223  12.339
90494SOL    HW273380   2.009   7.293  12.262
90495SOL     OW73381   3.589   1.490   2.721
90495SOL    HW173382   3.554   1.537   2.646
90495SOL    HW273383   3.662   1.543   2.751
90496SOL     OW73384  10.389  13.814  12.757
90496SOL    HW173385  10.299  13.812  12.723
90496SOL    HW273386  10.433  13.741  12.714
90497SOL     OW73387   6.469   9.211   4.907
90497SOL    HW173388   6.445   9.219   4.815
90497SOL    HW273389   6.391   9.242   4.954
90498SOL     OW73390  11.670   9.846   6.256
90498SOL    HW173391  11.741   9.889   6.303
90498SOL    HW273392  11.626   9.793   6.323
90499SOL     OW73393   5.983   2.654  14.257
90499SOL    HW173394   6.063   2.601  14.256
90499SOL    HW273395   5.978   2.691  14.169
90500SOL     OW73396   0.996  12.345   6.697
90500SOL    HW173397   0.973  12.290   6.772
90500SOL    HW273398   1.083  12.379   6.718
90501SOL     OW73399   4.053   1.349   0.412
90501SOL    HW173400   3.984   1.294   0.374
90501SOL    HW273401   4.097   1.292   0.474
90502SOL     OW73402   7.910   3.429   1.085
90502SOL    HW173403   7.926   3.352   1.141
90502SOL    HW273404   7.968   3.416   1.010
90503SOL     OW73405  13.941   1.512   7.464
90503SOL    HW173406  13.921   1.419   7.473
90503SOL    HW273407  14.023   1.524   7.512
90504SOL     OW73408   9.429   6.590   0.203
90504SOL    HW173409   9.489   6.587   0.128
90504SOL    HW273410   9.486   6.595   0.279
90505SOL     OW73411  11.386   8.094   9.356
90505SOL    HW173412  11.371   8.000   9.356
90505SOL    HW273413  11.326   8.128   9.422
90506SOL     OW73414  12.535  10.911   9.482
90506SOL    HW173415  12.582  10.909   9.399
90506SOL    HW273416  12.445  10.932   9.458
90507SOL     OW73417   0.606  14.049   7.230
90507SOL    HW173418   0.605  13.957   7.257
90507SOL    HW273419   0.689  14.059   7.184
90508SOL     OW73420  10.258   7.654  14.169
90508SOL    HW173421  10.248   7.696  14.083
90508SOL    HW273422  10.189   7.693  14.223
90509SOL     OW73423   5.807   2.578   2.915
90509SOL    HW173424   5.729   2.523   2.907
90509SOL    HW273425   5.865   2.529   2.972
90510SOL     OW73426   0.091  11.498   5.412
90510SOL    HW173427   0.018  11.437   5.430
90510SOL    HW273428   0.049  11.584   5.407
90511SOL     OW73429  12.191   3.431  12.329
90511SOL    HW173430  12.205   3.344  12.367
90511SOL    HW273431  12.187   3.415  12.234
90512SOL     OW73432   3.085   7.242   6.753
90512SOL    HW173433   3.006   7.225   6.701
90512SOL    HW273434   3.103   7.336   6.740
90513SOL     OW73435   1.365   6.551   7.388
90513SOL    HW173436   1.389   6.473   7.339
90513SOL    HW273437   1.269   6.546   7.395
90514SOL     OW73438  11.497   0.849  11.259
90514SOL    HW173439  11.435   0.785  11.224
90514SOL    HW273440  11.551   0.798  11.320
90515SOL     OW73441  10.277   2.949  12.061
90515SOL    HW173442  10.295   3.029  12.012
90515SOL    HW273443  10.297   2.971  12.152
90516SOL     OW73444   2.455   1.779   3.911
90516SOL    HW173445   2.404   1.827   3.976
90516SOL    HW273446   2.425   1.813   3.826
90517SOL     OW73447  13.607   3.762   7.663
90517SOL    HW173448  13.654   3.706   7.725
90517SOL    HW273449  13.518   3.765   7.696
90518SOL     OW73450   6.641  13.386  14.391
90518SOL    HW173451   6.615  13.375  14.483
90518SOL    HW273452   6.735  13.403  14.396
90519SOL     OW73453   6.275   2.441   8.521
90519SOL    HW173454   6.321   2.357   8.525
90519SOL    HW273455   6.266   2.459   8.427
90520SOL     OW73456   8.874  14.734   1.838
90520SOL    HW173457   8.924  14.733   1.919
90520SOL    HW273458   8.938  14.713   1.770
90521SOL     OW73459   8.578  13.495   1.937
90521SOL    HW173460   8.521  13.427   1.972
90521SOL    HW273461   8.536  13.577   1.961
90522SOL     OW73462  13.642  14.614  13.214
90522SOL    HW173463  13.737  14.597  13.212
90522SOL    HW273464  13.611  14.586  13.128
90523SOL     OW73465  11.047   4.325   9.986
90523SOL    HW173466  11.123   4.384   9.989
90523SOL    HW273467  10.972   4.383  10.001
90524SOL     OW73468  10.224   9.956  13.335
90524SOL    HW173469  10.260   9.918  13.416
90524SOL    HW273470  10.131   9.933  13.337
90525SOL     OW73471   1.872   2.659  10.614
90525SOL    HW173472   1.839   2.748  10.628
90525SOL    HW273473   1.794   2.609  10.588
90526SOL     OW73474   7.321   5.066   1.158
90526SOL    HW173475   7.263   5.139   1.181
90526SOL    HW273476   7.299   4.997   1.219
90527SOL     OW73477   8.006  10.488   9.793
90527SOL    HW173478   7.958  10.493   9.876
90527SOL    HW273479   8.025  10.580   9.772
90528SOL     OW73480   9.351   4.026  13.838
90528SOL    HW173481   9.429   4.066  13.801
90528SOL    HW273482   9.384   3.950  13.887
90529SOL     OW73483   4.880  12.504   6.475
90529SOL    HW173484   4.954  12.496   6.536
90529SOL    HW273485   4.802  12.500   6.531
90530SOL     OW73486   1.517   6.128  11.337
90530SOL    HW173487   1.424   6.108  11.349
90530SOL    HW273488   1.556   6.113  11.423
90531SOL     OW73489  14.715   6.258  12.765
90531SOL    HW173490  14.714   6.183  12.824
90531SOL    HW273491  14.631   6.300  12.777
90532SOL     OW73492  11.279   7.488   5.450
90532SOL    HW173493  11.327   7.548   5.508
90532SOL    HW273494  11.298   7.401   5.485
90533SOL     OW73495   1.179  14.044  14.125
90533SOL    HW173496   1.235  13.989  14.179
90533SOL    HW273497   1.210  14.133  14.142
90534SOL     OW73498   4.392   2.847  11.815
90534SOL    HW173499   4.453   2.787  11.774
90534SOL    HW273500   4.315   2.793  11.834
90535SOL     OW73501  11.197   0.732   3.450
90535SOL    HW173502  11.223   0.806   3.505
90535SOL    HW273503  11.278   0.702   3.409
90536SOL     OW73504   5.419   9.899   4.739
90536SOL    HW173505   5.343   9.941   4.698
90536SOL    HW273506   5.487   9.966   4.737
90537SOL     OW73507   2.446   3.962   2.184
90537SOL    HW173508   2.403   3.893   2.135
90537SOL    HW273509   2.535   3.966   2.149
90538SOL     OW73510   9.405  13.427   6.143
90538SOL    HW173511   9.354  13.347   6.136
90538SOL    HW273512   9.483  13.411   6.089
90539SOL     OW73513   3.354   6.476   7.534
90539SOL    HW173514   3.268   6.459   7.496
90539SOL    HW273515   3.336   6.501   7.625
90540SOL     OW73516  11.490   7.215  13.111
90540SOL    HW173517  11.543   7.140  13.137
90540SOL    HW273518  11.528   7.244  13.028
90541SOL     OW73519   1.741   1.402   1.206
90541SOL    HW173520   1.712   1.318   1.170
90541SOL    HW273521   1.816   1.426   1.152
90542SOL     OW73522   6.570   0.103   6.819
90542SOL    HW173523   6.495   0.048   6.841
90542SOL    HW273524   6.612   0.120   6.903
90543SOL     OW73525   1.745   3.367   0.110
90543SOL    HW173526   1.745   3.448   0.060
90543SOL    HW273527   1.799   3.385   0.187
90544SOL     OW73528   2.991   5.382   2.280
90544SOL    HW173529   2.986   5.343   2.192
90544SOL    HW273530   2.922   5.338   2.329
90545SOL     OW73531   4.039  12.532   2.212
90545SOL    HW173532   4.129  12.536   2.181
90545SOL    HW273533   3.992  12.594   2.156
90546SOL     OW73534  13.124   9.478   0.384
90546SOL    HW173535  13.054   9.543   0.386
90546SOL    HW273536  13.127   9.449   0.293
90547SOL     OW73537   8.615  10.403   6.822
90547SOL    HW173538   8.596  10.481   6.771
90547SOL    HW273539   8.606  10.430   6.913
90548SOL     OW73540   7.909   9.359   7.930
90548SOL    HW173541   7.986   9.375   7.985
90548SOL    HW273542   7.907   9.431   7.868
90549SOL     OW73543   2.607   6.859  13.287
90549SOL    HW173544   2.583   6.786  13.343
90549SOL    HW273545   2.695   6.839  13.257
90550SOL     OW73546   4.346  11.033   6.674
90550SOL    HW173547   4.310  11.043   6.586
90550SOL    HW273548   4.439  11.055   6.664
90551SOL     OW73549   3.338  13.320  13.317
90551SOL    HW173550   3.342  13.246  13.378
90551SOL    HW273551   3.345  13.398  13.373
90552SOL     OW73552   0.944   6.862   6.919
90552SOL    HW173553   1.030   6.864   6.962
90552SOL    HW273554   0.964   6.874   6.826
90553SOL     OW73555   4.774   1.751  14.642
90553SOL    HW173556   4.869   1.762  14.645
90553SOL    HW273557   4.744   1.773  14.730
90554SOL     OW73558   4.520   9.908  10.066
90554SOL    HW173559   4.568   9.961  10.130
90554SOL    HW273560   4.588   9.878  10.005
90555SOL     OW73561  11.570   4.268  14.204
90555SOL    HW173562  11.566   4.273  14.109
90555SOL    HW273563  11.609   4.182  14.222
90556SOL     OW73564  11.727   6.548   9.312
90556SOL    HW173565  11.791   6.535   9.242
90556SOL    HW273566  11.642   6.548   9.267
90557SOL     OW73567  14.615   2.291   4.299
90557SOL    HW173568  14.693   2.311   4.247
90557SOL    HW273569  14.585   2.376   4.331
90558SOL     OW73570   1.788  11.090   1.811
90558SOL    HW173571   1.840  11.126   1.883
90558SOL    HW273572   1.787  10.996   1.827
90559SOL     OW73573  12.116  12.785  11.281
90559SOL    HW173574  12.158  12.764  11.365
90559SOL    HW273575  12.146  12.873  11.260
90560SOL     OW73576  11.622   6.409  10.858
90560SOL    HW173577  11.570   6.440  10.784
90560SOL    HW273578  11.643   6.488  10.907
90561SOL     OW73579   2.481   7.129   9.141
90561SOL    HW173580   2.460   7.040   9.170
90561SOL    HW273581   2.460   7.184   9.216
90562SOL     OW73582  13.468  12.613   6.185
90562SOL    HW173583  13.385  12.609   6.232
90562SOL    HW273584  13.443  12.609   6.092
90563SOL     OW73585  11.116  10.418   7.972
90563SOL    HW173586  11.053  10.347   7.964
90563SOL    HW273587  11.065  10.492   8.006
90564SOL     OW73588  10.872   6.532   9.793
90564SOL    HW173589  10.798   6.534   9.854
90564SOL    HW273590  10.916   6.449   9.810
90565SOL     OW73591  14.861  10.429  12.105
90565SOL    HW173592   0.062  10.446  12.154
90565SOL    HW273593   0.007  10.436  12.013
90566SOL     OW73594   2.070   9.449   0.622
90566SOL    HW173595   2.012   9.496   0.561
90566SOL    HW273596   2.151   9.438   0.573
90567SOL     OW73597   9.604   6.483   6.921
90567SOL    HW173598   9.655   6.552   6.878
90567SOL    HW273599   9.545   6.530   6.979
90568SOL     OW73600   7.845  12.195   5.624
90568SOL    HW173601   7.763  12.241   5.639
90568SOL    HW273602   7.902  12.223   5.695
90569SOL     OW73603  13.508   2.641   5.481
90569SOL    HW173604  13.415   2.628   5.462
90569SOL    HW273605  13.517   2.736   5.496
90570SOL     OW73606  13.568   2.355   8.799
90570SOL    HW173607  13.599   2.281   8.852
90570SOL    HW273608  13.472   2.344   8.797
90571SOL     OW73609  13.129  10.597   6.295
90571SOL    HW173610  13.207  10.590   6.350
90571SOL    HW273611  13.057  10.566   6.350
90572SOL     OW73612   3.242   8.337   1.632
90572SOL    HW173613   3.258   8.387   1.712
90572SOL    HW273614   3.277   8.250   1.650
90573SOL     OW73615   1.704  13.306   9.506
90573SOL    HW173616   1.718  13.394   9.471
90573SOL    HW273617   1.610  13.291   9.496
90574SOL     OW73618   4.500   0.082   9.840
90574SOL    HW173619   4.407   0.094   9.821
90574SOL    HW273620   4.531   0.170   9.863
90575SOL     OW73621   2.893   4.867   1.381
90575SOL    HW173622   2.969   4.916   1.350
90575SOL    HW273623   2.823   4.890   1.320
90576SOL     OW73624   6.894   0.508  12.578
90576SOL    HW173625   6.885   0.467  12.664
90576SOL    HW273626   6.860   0.597  12.590
90577SOL     OW73627   2.627   0.419   9.436
90577SOL    HW173628   2.667   0.347   9.387
90577SOL    HW273629   2.700   0.460   9.482
90578SOL     OW73630   6.211   7.823   6.301
90578SOL    HW173631   6.222   7.847   6.393
90578SOL    HW273632   6.238   7.900   6.252
90579SOL     OW73633   2.534   9.659   3.510
90579SOL    HW173634   2.562   9.725   3.574
90579SOL    HW273635   2.607   9.597   3.507
90580SOL     OW73636   2.473   3.686  13.165
90580SOL    HW173637   2.493   3.776  13.192
90580SOL    HW273638   2.544   3.662  13.105
90581SOL     OW73639   3.582   0.650   8.978
90581SOL    HW173640   3.561   0.693   9.061
90581SOL    HW273641   3.626   0.718   8.926
90582SOL     OW73642   6.687   3.642   0.561
90582SOL    HW173643   6.708   3.692   0.483
90582SOL    HW273644   6.757   3.665   0.623
90583SOL     OW73645   1.662  12.809   9.392
90583SOL    HW173646   1.645  12.827   9.484
90583SOL    HW273647   1.694  12.892   9.357
90584SOL     OW73648  11.349   8.883   4.039
90584SOL    HW173649  11.273   8.852   4.089
90584SOL    HW273650  11.330   8.856   3.949
90585SOL     OW73651  12.471  13.819   6.161
90585SOL    HW173652  12.553  13.839   6.206
90585SOL    HW273653  12.482  13.855   6.074
90586SOL     OW73654  11.326   5.184  14.048
90586SOL    HW173655  11.328   5.277  14.070
90586SOL    HW273656  11.249   5.175  13.992
90587SOL     OW73657   4.725   4.279   0.846
90587SOL    HW173658   4.785   4.266   0.919
90587SOL    HW273659   4.725   4.195   0.800
90588SOL     OW73660   7.326   2.655   3.088
90588SOL    HW173661   7.283   2.619   3.166
90588SOL    HW273662   7.316   2.750   3.098
90589SOL     OW73663   8.746   6.110   4.201
90589SOL    HW173664   8.784   6.115   4.114
90589SOL    HW273665   8.820   6.091   4.259
90590SOL     OW73666   8.699   0.571  10.903
90590SOL    HW173667   8.607   0.548  10.887
90590SOL    HW273668   8.740   0.568  10.816
90591SOL     OW73669   2.304  10.132   9.041
90591SOL    HW173670   2.232  10.193   9.061
90591SOL    HW273671   2.313  10.080   9.121
90592SOL     OW73672   1.906  13.608  14.267
90592SOL    HW173673   1.861  13.660  14.334
90592SOL    HW273674   1.957  13.544  14.317
90593SOL     OW73675   9.579   1.513   4.386
90593SOL    HW173676   9.560   1.585   4.326
90593SOL    HW273677   9.656   1.542   4.434
90594SOL     OW73678  13.009   3.355   5.839
90594SOL    HW173679  13.003   3.389   5.928
90594SOL    HW273680  12.974   3.425   5.784
90595SOL     OW73681   3.679   2.951   8.787
90595SOL    HW173682   3.668   2.884   8.720
90595SOL    HW273683   3.746   2.916   8.845
90596SOL     OW73684   5.006   6.989   2.220
90596SOL    HW173685   5.088   6.945   2.199
90596SOL    HW273686   5.026   7.038   2.300
90597SOL     OW73687   1.302  11.863  12.237
90597SOL    HW173688   1.290  11.825  12.324
90597SOL    HW273689   1.238  11.819  12.182
90598SOL     OW73690   8.099  10.415   8.938
90598SOL    HW173691   8.072  10.461   8.859
90598SOL    HW273692   8.084  10.477   9.009
90599SOL     OW73693   5.620   9.271   8.913
90599SOL    HW173694   5.579   9.356   8.894
90599SOL    HW273695   5.634   9.271   9.007
90600SOL     OW73696   3.558   8.489   1.810
90600SOL    HW173697   3.579   8.553   1.742
90600SOL    HW273698   3.463   8.478   1.805
90601SOL     OW73699   7.509  12.035   8.753
90601SOL    HW173700   7.495  12.007   8.662
90601SOL    HW273701   7.439  11.993   8.802
90602SOL     OW73702   5.559   2.373   9.722
90602SOL    HW173703   5.610   2.294   9.735
90602SOL    HW273704   5.587   2.407   9.637
90603SOL     OW73705   9.562   3.996  12.518
90603SOL    HW173706   9.499   3.972  12.451
90603SOL    HW273707   9.539   3.941  12.593
90604SOL     OW73708  10.805   1.379   9.021
90604SOL    HW173709  10.880   1.402   9.075
90604SOL    HW273710  10.739   1.446   9.042
90605SOL     OW73711   5.185  12.231   5.953
90605SOL    HW173712   5.183  12.209   6.046
90605SOL    HW273713   5.276  12.218   5.927
90606SOL     OW73714  11.163  11.419   8.742
90606SOL    HW173715  11.194  11.500   8.701
90606SOL    HW273716  11.151  11.358   8.670
90607SOL     OW73717   1.859  13.409   7.397
90607SOL    HW173718   1.830  13.472   7.462
90607SOL    HW273719   1.814  13.327   7.421
90608SOL     OW73720   2.629   4.889  11.962
90608SOL    HW173721   2.692   4.828  11.999
90608SOL    HW273722   2.597   4.939  12.037
90609SOL     OW73723   1.224   4.908   0.492
90609SOL    HW173724   1.250   4.974   0.556
90609SOL    HW273725   1.139   4.877   0.522
90610SOL     OW73726  14.494   0.890  11.911
90610SOL    HW173727  14.512   0.860  12.000
90610SOL    HW273728  14.453   0.976  11.922
90611SOL     OW73729   2.459   4.481   5.715
90611SOL    HW173730   2.451   4.400   5.764
90611SOL    HW273731   2.507   4.540   5.773
90612SOL     OW73732   7.524  10.165   9.314
90612SOL    HW173733   7.439  10.208   9.313
90612SOL    HW273734   7.578  10.220   9.371
90613SOL     OW73735  11.278   2.028  13.879
90613SOL    HW173736  11.367   2.033  13.844
90613SOL    HW273737  11.246   2.119  13.877
90614SOL     OW73738   0.965   8.627   2.331
90614SOL    HW173739   0.944   8.715   2.362
90614SOL    HW273740   0.887   8.600   2.282
90615SOL     OW73741   7.735   4.453   7.367
90615SOL    HW173742   7.702   4.510   7.297
90615SOL    HW273743   7.706   4.496   7.448
90616SOL     OW73744   7.286   7.882   9.869
90616SOL    HW173745   7.261   7.810   9.812
90616SOL    HW273746   7.345   7.841   9.934
90617SOL     OW73747  10.100   5.317   8.124
90617SOL    HW173748  10.010   5.299   8.098
90617SOL    HW273749  10.113   5.410   8.103
90618SOL     OW73750   4.503   3.935   6.103
90618SOL    HW173751   4.460   3.851   6.120
90618SOL    HW273752   4.571   3.914   6.039
90619SOL     OW73753   4.863  12.512   9.981
90619SOL    HW173754   4.770  12.496   9.992
90619SOL    HW273755   4.867  12.600   9.941
90620SOL     OW73756  13.827   8.701  12.440
90620SOL    HW173757  13.794   8.612  12.451
90620SOL    HW273758  13.796   8.749  12.517
90621SOL     OW73759   7.263  14.356  10.915
90621SOL    HW173760   7.330  14.331  10.979
90621SOL    HW273761   7.196  14.401  10.967
90622SOL     OW73762   9.049  10.611   6.366
90622SOL    HW173763   8.975  10.601   6.426
90622SOL    HW273764   9.083  10.699   6.384
90623SOL     OW73765   2.487   5.581   4.675
90623SOL    HW173766   2.391   5.587   4.682
90623SOL    HW273767   2.517   5.569   4.765
90624SOL     OW73768  13.566   4.202   5.332
90624SOL    HW173769  13.499   4.134   5.319
90624SOL    HW273770  13.648   4.160   5.306
90625SOL     OW73771   4.884   0.768   0.153
90625SOL    HW173772   4.853   0.680   0.133
90625SOL    HW273773   4.979   0.763   0.140
90626SOL     OW73774   6.403   1.090   1.958
90626SOL    HW173775   6.410   1.114   2.051
90626SOL    HW273776   6.415   1.173   1.912
90627SOL     OW73777   7.578   0.737  14.643
90627SOL    HW173778   7.543   0.763  14.728
90627SOL    HW273779   7.597   0.819  14.598
90628SOL     OW73780   7.241   6.240   4.203
90628SOL    HW173781   7.333   6.214   4.208
90628SOL    HW273782   7.234   6.292   4.123
90629SOL     OW73783   5.891   3.571  10.070
90629SOL    HW173784   5.829   3.627  10.023
90629SOL    HW273785   5.973   3.581  10.023
90630SOL     OW73786   3.823   5.411   9.715
90630SOL    HW173787   3.914   5.392   9.734
90630SOL    HW273788   3.795   5.340   9.656
90631SOL     OW73789   7.889   3.234   4.946
90631SOL    HW173790   7.816   3.292   4.965
90631SOL    HW273791   7.855   3.173   4.881
90632SOL     OW73792  13.071   6.256   3.331
90632SOL    HW173793  13.059   6.342   3.293
90632SOL    HW273794  13.158   6.258   3.370
90633SOL     OW73795   8.873   3.644   4.998
90633SOL    HW173796   8.928   3.615   5.071
90633SOL    HW273797   8.785   3.616   5.022
90634SOL     OW73798   4.381   6.206  14.196
90634SOL    HW173799   4.413   6.151  14.267
90634SOL    HW273800   4.386   6.296  14.230
90635SOL     OW73801   0.104   8.472  14.178
90635SOL    HW173802   0.124   8.563  14.155
90635SOL    HW273803   0.165   8.420  14.126
90636SOL     OW73804   6.108  12.240   6.373
90636SOL    HW173805   6.032  12.214   6.321
90636SOL    HW273806   6.179  12.185   6.341
90637SOL     OW73807  10.032   0.675  10.996
90637SOL    HW173808  10.056   0.629  10.916
90637SOL    HW273809   9.953   0.724  10.973
90638SOL     OW73810   8.338   7.887   0.322
90638SOL    HW173811   8.292   7.804   0.334
90638SOL    HW273812   8.328   7.907   0.229
90639SOL     OW73813   7.166  14.053  12.603
90639SOL    HW173814   7.185  14.002  12.682
90639SOL    HW273815   7.126  14.134  12.636
90640SOL     OW73816   9.576   3.475  14.747
90640SOL    HW173817   9.669   3.499  14.748
90640SOL    HW273818   9.574   3.386  14.781
90641SOL     OW73819   3.462   9.803   5.530
90641SOL    HW173820   3.470   9.837   5.441
90641SOL    HW273821   3.551   9.774   5.553
90642SOL     OW73822  13.501  14.378  14.258
90642SOL    HW173823  13.538  14.332  14.333
90642SOL    HW273824  13.439  14.440  14.296
90643SOL     OW73825   6.807   1.797  13.592
90643SOL    HW173826   6.776   1.864  13.531
90643SOL    HW273827   6.746   1.799  13.665
90644SOL     OW73828   1.121   1.242   0.285
90644SOL    HW173829   1.215   1.225   0.290
90644SOL    HW273830   1.114   1.336   0.275
90645SOL     OW73831  12.945   0.460   9.985
90645SOL    HW173832  12.964   0.370  10.013
90645SOL    HW273833  12.856   0.477  10.016
90646SOL     OW73834   3.118   8.936  11.848
90646SOL    HW173835   3.089   8.973  11.932
90646SOL    HW273836   3.212   8.922  11.859
90647SOL     OW73837  11.326   7.276   0.714
90647SOL    HW173838  11.237   7.245   0.729
90647SOL    HW273839  11.354   7.310   0.799
90648SOL     OW73840   4.166  10.320   3.853
90648SOL    HW173841   4.210  10.406   3.860
90648SOL    HW273842   4.085  10.331   3.902
90649SOL     OW73843  14.121   1.263  12.498
90649SOL    HW173844  14.106   1.357  12.487
90649SOL    HW273845  14.213   1.256  12.522
90650SOL     OW73846   2.077  11.419   4.859
90650SOL    HW173847   1.984  11.438   4.861
90650SOL    HW273848   2.109  11.443   4.946
90651SOL     OW73849   9.081  11.758   7.032
90651SOL    HW173850   9.012  11.721   7.087
90651SOL    HW273851   9.036  11.821   6.976
90652SOL     OW73852   2.964   4.174   0.606
90652SOL    HW173853   2.977   4.173   0.511
90652SOL    HW273854   3.007   4.255   0.635
90653SOL     OW73855   3.009   9.913   5.058
90653SOL    HW173856   2.940   9.846   5.054
90653SOL    HW273857   3.012   9.950   4.970
90654SOL     OW73858  12.139  10.048  10.326
90654SOL    HW173859  12.217  10.032  10.274
90654SOL    HW273860  12.137  10.143  10.338
90655SOL     OW73861  13.611   8.780  12.009
90655SOL    HW173862  13.598   8.843  12.081
90655SOL    HW273863  13.569   8.821  11.934
90656SOL     OW73864   6.090  11.655  13.098
90656SOL    HW173865   6.039  11.661  13.018
90656SOL    HW273866   6.131  11.568  13.094
90657SOL     OW73867  11.728  13.299   8.551
90657SOL    HW173868  11.811  13.337   8.520
90657SOL    HW273869  11.710  13.346   8.633
90658SOL     OW73870   3.175  13.419  12.682
90658SOL    HW173871   3.262  13.398  12.648
90658SOL    HW273872   3.153  13.345  12.739
90659SOL     OW73873  11.615  13.731  12.934
90659SOL    HW173874  11.682  13.794  12.909
90659SOL    HW273875  11.647  13.647  12.900
90660SOL     OW73876   1.113   4.031  12.755
90660SOL    HW173877   1.078   4.043  12.844
90660SOL    HW273878   1.201   4.070  12.759
90661SOL     OW73879   7.432  12.344   5.107
90661SOL    HW173880   7.497  12.411   5.085
90661SOL    HW273881   7.355  12.368   5.054
90662SOL     OW73882   1.467   6.636   2.831
90662SOL    HW173883   1.412   6.574   2.784
90662SOL    HW273884   1.437   6.722   2.803
90663SOL     OW73885   1.760   5.786   0.465
90663SOL    HW173886   1.796   5.865   0.425
90663SOL    HW273887   1.686   5.817   0.517
90664SOL     OW73888   3.960  13.058   1.783
90664SOL    HW173889   3.909  13.108   1.718
90664SOL    HW273890   3.897  13.039   1.853
90665SOL     OW73891   2.601   1.845   5.151
90665SOL    HW173892   2.525   1.805   5.193
90665SOL    HW273893   2.594   1.938   5.174
90666SOL     OW73894  12.735  10.998   6.652
90666SOL    HW173895  12.739  10.971   6.560
90666SOL    HW273896  12.645  10.978   6.679
90667SOL     OW73897  13.626   2.617  10.668
90667SOL    HW173898  13.704   2.654  10.626
90667SOL    HW273899  13.622   2.527  10.637
90668SOL     OW73900  14.074   2.208   1.044
90668SOL    HW173901  14.032   2.248   1.120
90668SOL    HW273902  14.001   2.188   0.984
90669SOL     OW73903   4.505   5.011  11.900
90669SOL    HW173904   4.411   5.016  11.880
90669SOL    HW273905   4.522   4.918  11.909
90670SOL     OW73906   6.295   3.954   9.117
90670SOL    HW173907   6.217   4.006   9.095
90670SOL    HW273908   6.335   4.001   9.190
90671SOL     OW73909   6.512  12.017   9.254
90671SOL    HW173910   6.427  12.034   9.214
90671SOL    HW273911   6.574  12.070   9.204
90672SOL     OW73912  13.113   7.298   4.457
90672SOL    HW173913  13.075   7.239   4.522
90672SOL    HW273914  13.038   7.326   4.404
90673SOL     OW73915  14.623   5.831   9.052
90673SOL    HW173916  14.710   5.814   9.087
90673SOL    HW273917  14.629   5.920   9.015
90674SOL     OW73918   5.469   7.040   1.301
90674SOL    HW173919   5.529   6.998   1.362
90674SOL    HW273920   5.456   7.127   1.337
90675SOL     OW73921  12.192   5.353  12.834
90675SOL    HW173922  12.155   5.295  12.767
90675SOL    HW273923  12.137   5.431  12.831
90676SOL     OW73924   3.774  14.374   2.580
90676SOL    HW173925   3.732  14.293   2.554
90676SOL    HW273926   3.734  14.441   2.524
90677SOL     OW73927  12.083   0.973   4.285
90677SOL    HW173928  12.072   0.879   4.277
90677SOL    HW273929  12.106   1.003   4.197
90678SOL     OW73930   9.122  12.515  13.503
90678SOL    HW173931   9.086  12.465  13.429
90678SOL    HW273932   9.051  12.574  13.529
90679SOL     OW73933   7.046   7.622  10.234
90679SOL    HW173934   6.972   7.581  10.278
90679SOL    HW273935   7.010   7.701  10.195
90680SOL     OW73936   7.436   7.553   6.836
90680SOL    HW173937   7.347   7.587   6.843
90680SOL    HW273938   7.471   7.594   6.756
90681SOL     OW73939  14.492   1.007   6.962
90681SOL    HW173940  14.507   1.091   6.920
90681SOL    HW273941  14.578   0.981   6.995
90682SOL     OW73942  12.006   5.722   1.094
90682SOL    HW173943  12.023   5.674   1.013
90682SOL    HW273944  12.090   5.763   1.115
90683SOL     OW73945   7.751   1.235  13.113
90683SOL    HW173946   7.832   1.209  13.158
90683SOL    HW273947   7.699   1.155  13.111
90684SOL     OW73948  13.932  11.354   1.092
90684SOL    HW173949  13.978  11.418   1.038
90684SOL    HW273950  13.907  11.284   1.031
90685SOL     OW73951   6.211   5.702   1.954
90685SOL    HW173952   6.261   5.757   1.894
90685SOL    HW273953   6.121   5.706   1.922
90686SOL     OW73954   2.704   0.753  13.396
90686SOL    HW173955   2.789   0.787  13.367
90686SOL    HW273956   2.680   0.810  13.470
90687SOL     OW73957   6.575   3.394   1.838
90687SOL    HW173958   6.594   3.366   1.927
90687SOL    HW273959   6.532   3.319   1.797
90688SOL     OW73960   3.486   8.699   5.229
90688SOL    HW173961   3.493   8.685   5.135
90688SOL    HW273962   3.394   8.682   5.248
90689SOL     OW73963   1.506  14.133  11.209
90689SOL    HW173964   1.561  14.064  11.173
90689SOL    HW273965   1.488  14.191  11.135
90690SOL     OW73966   1.881   8.992   3.353
90690SOL    HW173967   1.916   9.076   3.325
90690SOL    HW273968   1.792   9.011   3.382
90691SOL     OW73969   7.024   8.105   3.622
90691SOL    HW173970   6.991   8.125   3.535
90691SOL    HW273971   6.953   8.128   3.681
90692SOL     OW73972   9.570   0.387   6.833
90692SOL    HW173973   9.580   0.294   6.813
90692SOL    HW273974   9.477   0.398   6.849
90693SOL     OW73975   1.138   6.758  13.792
90693SOL    HW173976   1.053   6.726  13.762
90693SOL    HW273977   1.186   6.680  13.819
90694SOL     OW73978  14.203   6.657   1.700
90694SOL    HW173979  14.120   6.671   1.655
90694SOL    HW273980  14.233   6.571   1.672
90695SOL     OW73981   0.386   2.455   4.062
90695SOL    HW173982   0.379   2.550   4.067
90695SOL    HW273983   0.371   2.435   3.969
90696SOL     OW73984   4.791   0.689   2.518
90696SOL    HW173985   4.806   0.683   2.424
90696SOL    HW273986   4.842   0.616   2.556
90697SOL     OW73987  13.771   5.655   7.049
90697SOL    HW173988  13.788   5.748   7.066
90697SOL    HW273989  13.755   5.617   7.135
90698SOL     OW73990  12.768  11.773  11.142
90698SOL    HW173991  12.815  11.850  11.110
90698SOL    HW273992  12.755  11.790  11.235
90699SOL     OW73993  11.487   1.784   1.144
90699SOL    HW173994  11.509   1.746   1.058
90699SOL    HW273995  11.449   1.711   1.193
90700SOL     OW73996  10.398  14.011  14.334
90700SOL    HW173997  10.470  13.992  14.394
90700SOL    HW273998  10.329  13.949  14.359
90701SOL     OW73999  10.271   0.666   3.127
90701SOL    HW174000  10.230   0.702   3.205
90701SOL    HW274001  10.234   0.578   3.119
90702SOL     OW74002   6.526   9.076   4.443
90702SOL    HW174003   6.519   9.051   4.351
90702SOL    HW274004   6.598   9.139   4.446
90703SOL     OW74005  13.320   6.753  11.063
90703SOL    HW174006  13.395   6.693  11.055
90703SOL    HW274007  13.309   6.789  10.975
90704SOL     OW74008   8.800   4.445  12.515
90704SOL    HW174009   8.886   4.442  12.558
90704SOL    HW274010   8.755   4.519  12.557
90705SOL     OW74011   3.901   1.667  10.045
90705SOL    HW174012   3.840   1.596  10.065
90705SOL    HW274013   3.936   1.644   9.958
90706SOL     OW74014  13.383  14.830   0.917
90706SOL    HW174015  13.372  14.749   0.868
90706SOL    HW274016  13.295  14.853   0.947
90707SOL     OW74017   8.180  11.159   0.851
90707SOL    HW174018   8.260  11.174   0.800
90707SOL    HW274019   8.177  11.065   0.864
90708SOL     OW74020   5.728  11.816   7.226
90708SOL    HW174021   5.633  11.810   7.218
90708SOL    HW274022   5.742  11.866   7.307
90709SOL     OW74023   6.082  11.202   5.040
90709SOL    HW174024   6.024  11.167   4.973
90709SOL    HW274025   6.071  11.144   5.115
90710SOL     OW74026   6.636   9.651   2.928
90710SOL    HW174027   6.702   9.693   2.874
90710SOL    HW274028   6.590   9.724   2.970
90711SOL     OW74029   0.800   6.323   0.903
90711SOL    HW174030   0.851   6.307   0.982
90711SOL    HW274031   0.866   6.343   0.836
90712SOL     OW74032   7.576   2.389   3.418
90712SOL    HW174033   7.608   2.321   3.477
90712SOL    HW274034   7.601   2.472   3.460
90713SOL     OW74035   6.494  13.250   1.594
90713SOL    HW174036   6.492  13.159   1.624
90713SOL    HW274037   6.579  13.282   1.624
90714SOL     OW74038  13.507   9.775   2.965
90714SOL    HW174039  13.497   9.729   3.048
90714SOL    HW274040  13.487   9.710   2.898
90715SOL     OW74041   2.137  10.568  10.500
90715SOL    HW174042   2.142  10.482  10.459
90715SOL    HW274043   2.126  10.550  10.593
90716SOL     OW74044   0.111   4.014  10.653
90716SOL    HW174045   0.094   3.986  10.743
90716SOL    HW274046   0.199   3.983  10.634
90717SOL     OW74047   0.771   8.004   3.479
90717SOL    HW174048   0.790   8.002   3.572
90717SOL    HW274049   0.842   8.054   3.440
90718SOL     OW74050  12.981   7.560   5.466
90718SOL    HW174051  12.934   7.563   5.383
90718SOL    HW274052  12.935   7.495   5.518
90719SOL     OW74053   1.154   2.079   2.041
90719SOL    HW174054   1.154   2.017   1.968
90719SOL    HW274055   1.098   2.039   2.108
90720SOL     OW74056  13.924  12.773  14.465
90720SOL    HW174057  13.910  12.867  14.450
90720SOL    HW274058  14.012  12.768  14.503
90721SOL     OW74059   9.022   2.123  13.038
90721SOL    HW174060   9.063   2.060  13.098
90721SOL    HW274061   8.959   2.072  12.988
90722SOL     OW74062   1.301   1.256   5.714
90722SOL    HW174063   1.313   1.319   5.643
90722SOL    HW274064   1.246   1.302   5.778
90723SOL     OW74065  14.025   7.219  11.024
90723SOL    HW174066  13.957   7.217  11.091
90723SOL    HW274067  14.087   7.151  11.050
90724SOL     OW74068   1.898   5.713   5.628
90724SOL    HW174069   1.880   5.699   5.721
90724SOL    HW274070   1.818   5.754   5.594
90725SOL     OW74071  14.604   8.561   8.770
90725SOL    HW174072  14.602   8.598   8.681
90725SOL    HW274073  14.646   8.475   8.759
90726SOL     OW74074   3.775   4.856   4.574
90726SOL    HW174075   3.828   4.838   4.652
90726SOL    HW274076   3.838   4.854   4.501
90727SOL     OW74077   9.864  12.326  12.511
90727SOL    HW174078   9.854  12.421  12.505
90727SOL    HW274079   9.896  12.300  12.424
90728SOL     OW74080   8.671   0.059   0.307
90728SOL    HW174081   8.692  14.847   0.326
90728SOL    HW274082   8.625   0.089   0.386
90729SOL     OW74083   0.785  12.998  11.053
90729SOL    HW174084   0.718  13.065  11.067
90729SOL    HW274085   0.844  13.008  11.127
90730SOL     OW74086   4.238   8.057   6.401
90730SOL    HW174087   4.280   8.139   6.372
90730SOL    HW274088   4.268   8.046   6.491
90731SOL     OW74089   3.306   7.749   3.112
90731SOL    HW174090   3.278   7.837   3.088
90731SOL    HW274091   3.252   7.726   3.187
90732SOL     OW74092   1.111   4.303   9.226
90732SOL    HW174093   1.197   4.261   9.232
90732SOL    HW274094   1.053   4.244   9.274
90733SOL     OW74095   1.156   8.322   8.357
90733SOL    HW174096   1.125   8.267   8.428
90733SOL    HW274097   1.076   8.361   8.321
90734SOL     OW74098   9.718   4.201   4.644
90734SOL    HW174099   9.623   4.210   4.637
90734SOL    HW274100   9.752   4.255   4.572
90735SOL     OW74101   2.987   1.216   7.285
90735SOL    HW174102   3.058   1.272   7.317
90735SOL    HW274103   2.976   1.241   7.194
90736SOL     OW74104   9.011   9.350   8.072
90736SOL    HW174105   8.932   9.383   8.029
90736SOL    HW274106   8.994   9.257   8.087
90737SOL     OW74107   5.126  13.243   1.706
90737SOL    HW174108   5.191  13.264   1.774
90737SOL    HW274109   5.155  13.291   1.629
90738SOL     OW74110   2.733   8.007   6.940
90738SOL    HW174111   2.797   7.941   6.966
90738SOL    HW274112   2.784   8.072   6.892
90739SOL     OW74113  11.068   7.597   3.844
90739SOL    HW174114  11.122   7.656   3.896
90739SOL    HW274115  11.059   7.518   3.898
90740SOL     OW74116  12.936   5.972   8.093
90740SOL    HW174117  12.876   6.046   8.099
90740SOL    HW274118  12.995   5.994   8.021
90741SOL     OW74119   7.376   9.665   4.209
90741SOL    HW174120   7.445   9.717   4.169
90741SOL    HW274121   7.312   9.653   4.139
90742SOL     OW74122  13.874  13.187   2.149
90742SOL    HW174123  13.929  13.172   2.225
90742SOL    HW274124  13.924  13.151   2.076
90743SOL     OW74125   8.798  12.903  14.126
90743SOL    HW174126   8.812  12.935  14.215
90743SOL    HW274127   8.705  12.920  14.109
90744SOL     OW74128   6.723   4.907  13.950
90744SOL    HW174129   6.728   4.856  14.031
90744SOL    HW274130   6.661   4.977  13.969
90745SOL     OW74131  10.472   7.752  13.570
90745SOL    HW174132  10.407   7.797  13.624
90745SOL    HW274133  10.424   7.724  13.492
90746SOL     OW74134   6.732  10.119  14.750
90746SOL    HW174135   6.675  10.122  14.826
90746SOL    HW274136   6.820  10.113  14.786
90747SOL     OW74137  10.759  11.052  13.810
90747SOL    HW174138  10.746  11.006  13.893
90747SOL    HW274139  10.694  11.014  13.751
90748SOL     OW74140   0.849  10.435  10.942
90748SOL    HW174141   0.936  10.416  10.906
90748SOL    HW274142   0.806  10.486  10.874
90749SOL     OW74143   0.398   8.440   5.898
90749SOL    HW174144   0.374   8.388   5.821
90749SOL    HW274145   0.322   8.432   5.956
90750SOL     OW74146   4.135  14.672   0.044
90750SOL    HW174147   4.121  14.688   0.137
90750SOL    HW274148   4.047  14.656   0.010
90751SOL     OW74149  10.749  11.023   7.458
90751SOL    HW174150  10.827  10.993   7.505
90751SOL    HW274151  10.782  11.051   7.373
90752SOL     OW74152   0.728  12.828  14.870
90752SOL    HW174153   0.765  12.916  14.871
90752SOL    HW274154   0.692  12.818  14.782
90753SOL     OW74155  11.035   1.693  14.401
90753SOL    HW174156  11.016   1.603  14.429
90753SOL    HW274157  11.126   1.689  14.371
90754SOL     OW74158  13.045   5.528   2.546
90754SOL    HW174159  13.068   5.479   2.625
90754SOL    HW274160  13.059   5.620   2.570
90755SOL     OW74161  10.991  13.959   0.444
90755SOL    HW174162  10.942  13.892   0.491
90755SOL    HW274163  10.945  14.041   0.463
90756SOL     OW74164   5.134   4.106  14.283
90756SOL    HW174165   5.219   4.140  14.258
90756SOL    HW274166   5.101   4.062  14.204
90757SOL     OW74167   3.308   9.171  14.034
90757SOL    HW174168   3.401   9.155  14.051
90757SOL    HW274169   3.296   9.149  13.942
90758SOL     OW74170   0.082   9.946   0.721
90758SOL    HW174171   0.136   9.879   0.762
90758SOL    HW274172   0.039   9.990   0.795
90759SOL     OW74173  13.329   6.961  12.464
90759SOL    HW174174  13.316   6.873  12.428
90759SOL    HW274175  13.241   6.994  12.481
90760SOL     OW74176   7.001   3.556   0.402
90760SOL    HW174177   6.941   3.500   0.451
90760SOL    HW274178   7.076   3.500   0.382
90761SOL     OW74179  12.395  13.018  12.972
90761SOL    HW174180  12.311  12.998  13.014
90761SOL    HW274181  12.448  12.940  12.987
90762SOL     OW74182   5.302   0.770   4.354
90762SOL    HW174183   5.290   0.822   4.274
90762SOL    HW274184   5.334   0.686   4.323
90763SOL     OW74185  10.260  10.458   5.883
90763SOL    HW174186  10.189  10.467   5.946
90763SOL    HW274187  10.324  10.524   5.909
90764SOL     OW74188   0.564  14.000  11.569
90764SOL    HW174189   0.644  13.958  11.599
90764SOL    HW274190   0.594  14.069  11.510
90765SOL     OW74191   0.403  11.814   2.045
90765SOL    HW174192   0.412  11.819   1.950
90765SOL    HW274193   0.415  11.721   2.065
90766SOL     OW74194   0.158   3.879   3.093
90766SOL    HW174195   0.171   3.843   3.005
90766SOL    HW274196   0.245   3.882   3.131
90767SOL     OW74197  13.628   4.517   4.986
90767SOL    HW174198  13.617   4.611   4.969
90767SOL    HW274199  13.603   4.474   4.904
90768SOL     OW74200  12.243  14.104   0.557
90768SOL    HW174201  12.211  14.027   0.604
90768SOL    HW274202  12.330  14.119   0.593
90769SOL     OW74203  10.636  14.346   3.115
90769SOL    HW174204  10.672  14.414   3.058
90769SOL    HW274205  10.667  14.370   3.203
90770SOL     OW74206  10.509  10.961   9.735
90770SOL    HW174207  10.458  10.881   9.722
90770SOL    HW274208  10.503  11.007   9.651
90771SOL     OW74209  12.194   8.030   6.193
90771SOL    HW174210  12.135   8.100   6.164
90771SOL    HW274211  12.281   8.068   6.186
90772SOL     OW74212   8.480   1.265   1.177
90772SOL    HW174213   8.489   1.328   1.249
90772SOL    HW274214   8.429   1.312   1.111
90773SOL     OW74215  11.518  11.835   4.956
90773SOL    HW174216  11.573  11.824   4.879
90773SOL    HW274217  11.465  11.912   4.936
90774SOL     OW74218   4.636   9.835   2.737
90774SOL    HW174219   4.707   9.806   2.794
90774SOL    HW274220   4.620   9.926   2.763
90775SOL     OW74221   4.395  12.216   9.040
90775SOL    HW174222   4.438  12.203   8.955
90775SOL    HW274223   4.425  12.303   9.069
90776SOL     OW74224   7.969   7.760  14.026
90776SOL    HW174225   8.006   7.691  13.971
90776SOL    HW274226   7.877   7.764  14.002
90777SOL     OW74227   5.538  11.408  14.428
90777SOL    HW174228   5.495  11.330  14.462
90777SOL    HW274229   5.590  11.378  14.354
90778SOL     OW74230   4.363   5.443  11.481
90778SOL    HW174231   4.405   5.377  11.426
90778SOL    HW274232   4.421   5.453  11.556
90779SOL     OW74233  11.331  14.073   5.642
90779SOL    HW174234  11.388  14.140   5.680
90779SOL    HW274235  11.364  13.990   5.678
90780SOL     OW74236  14.592  13.934   6.706
90780SOL    HW174237  14.570  13.943   6.613
90780SOL    HW274238  14.682  13.904   6.706
90781SOL     OW74239   7.811   5.409   7.082
90781SOL    HW174240   7.897   5.422   7.042
90781SOL    HW274241   7.822   5.440   7.172
90782SOL     OW74242  10.450   5.786   9.202
90782SOL    HW174243  10.500   5.853   9.157
90782SOL    HW274244  10.515   5.723   9.232
90783SOL     OW74245   8.422   6.358   7.919
90783SOL    HW174246   8.389   6.283   7.968
90783SOL    HW274247   8.348   6.417   7.912
90784SOL     OW74248   4.145   0.647   5.465
90784SOL    HW174249   4.126   0.676   5.376
90784SOL    HW274250   4.131   0.725   5.519
90785SOL     OW74251   8.864  11.613   4.882
90785SOL    HW174252   8.939  11.571   4.841
90785SOL    HW274253   8.841  11.685   4.823
90786SOL     OW74254  10.133   8.259  14.338
90786SOL    HW174255  10.208   8.290  14.286
90786SOL    HW274256  10.058   8.272  14.281
90787SOL     OW74257   6.564   7.327   5.220
90787SOL    HW174258   6.484   7.380   5.220
90787SOL    HW274259   6.634   7.390   5.205
90788SOL     OW74260   1.954   6.059   3.692
90788SOL    HW174261   1.937   6.014   3.775
90788SOL    HW274262   1.959   5.988   3.627
90789SOL     OW74263   5.911   8.776   1.383
90789SOL    HW174264   5.883   8.751   1.471
90789SOL    HW274265   5.903   8.872   1.382
90790SOL     OW74266   7.671   8.214  13.182
90790SOL    HW174267   7.705   8.133  13.145
90790SOL    HW274268   7.621   8.185  13.259
90791SOL     OW74269   6.929   1.270   8.515
90791SOL    HW174270   6.842   1.304   8.534
90791SOL    HW274271   6.947   1.208   8.586
90792SOL     OW74272  14.000   7.597   9.527
90792SOL    HW174273  14.019   7.654   9.453
90792SOL    HW274274  14.086   7.564   9.555
90793SOL     OW74275  13.568   5.021   7.604
90793SOL    HW174276  13.486   5.041   7.558
90793SOL    HW274277  13.551   4.937   7.648
90794SOL     OW74278   2.583   5.246  13.658
90794SOL    HW174279   2.624   5.210  13.736
90794SOL    HW274280   2.646   5.232  13.588
90795SOL     OW74281  11.307   8.486   7.533
90795SOL    HW174282  11.251   8.409   7.528
90795SOL    HW274283  11.288   8.535   7.453
90796SOL     OW74284  12.629  11.665   3.100
90796SOL    HW174285  12.719  11.663   3.133
90796SOL    HW274286  12.575  11.669   3.179
90797SOL     OW74287  14.279   9.785  11.321
90797SOL    HW174288  14.368   9.755  11.338
90797SOL    HW274289  14.262   9.851  11.388
90798SOL     OW74290   6.686   9.035   2.315
90798SOL    HW174291   6.622   9.105   2.306
90798SOL    HW274292   6.655   8.983   2.389
90799SOL     OW74293   9.831   9.931  11.214
90799SOL    HW174294   9.815   9.899  11.303
90799SOL    HW274295   9.813  10.025  11.219
90800SOL     OW74296  14.508  14.579   7.827
90800SOL    HW174297  14.458  14.497   7.825
90800SOL    HW274298  14.502  14.613   7.738
90801SOL     OW74299   0.741   9.556   7.842
90801SOL    HW174300   0.759   9.532   7.751
90801SOL    HW274301   0.818   9.604   7.871
90802SOL     OW74302   9.122   7.682   5.258
90802SOL    HW174303   9.117   7.643   5.345
90802SOL    HW274304   9.069   7.624   5.203
90803SOL     OW74305   4.310   6.124  13.577
90803SOL    HW174306   4.361   6.044  13.569
90803SOL    HW274307   4.314   6.146  13.670
90804SOL     OW74308  14.121  10.793   0.349
90804SOL    HW174309  14.197  10.816   0.401
90804SOL    HW274310  14.157  10.746   0.273
90805SOL     OW74311   6.540  10.995  13.279
90805SOL    HW174312   6.549  11.019  13.187
90805SOL    HW274313   6.457  10.948  13.284
90806SOL     OW74314   5.847   8.822   5.120
90806SOL    HW174315   5.937   8.838   5.149
90806SOL    HW274316   5.827   8.897   5.063
90807SOL     OW74317  14.820   8.306   7.668
90807SOL    HW174318  14.732   8.267   7.667
90807SOL    HW274319  14.804   8.399   7.686
90808SOL     OW74320   6.341   7.173   3.717
90808SOL    HW174321   6.377   7.161   3.629
90808SOL    HW274322   6.410   7.220   3.765
90809SOL     OW74323  10.397   3.191  14.778
90809SOL    HW174324  10.421   3.201  14.870
90809SOL    HW274325  10.399   3.097  14.762
90810SOL     OW74326   3.937  11.232   2.389
90810SOL    HW174327   3.950  11.325   2.403
90810SOL    HW274328   3.968  11.191   2.470
90811SOL     OW74329   6.358  10.121   2.152
90811SOL    HW174330   6.390  10.031   2.161
90811SOL    HW274331   6.283  10.114   2.093
90812SOL     OW74332   1.225   4.751   5.515
90812SOL    HW174333   1.240   4.700   5.435
90812SOL    HW274334   1.219   4.685   5.584
90813SOL     OW74335  14.124   2.911   5.793
90813SOL    HW174336  14.131   2.995   5.838
90813SOL    HW274337  14.041   2.916   5.746
90814SOL     OW74338   7.686  13.947   3.618
90814SOL    HW174339   7.750  13.887   3.579
90814SOL    HW274340   7.733  13.987   3.692
90815SOL     OW74341  10.650   7.501  11.921
90815SOL    HW174342  10.575   7.522  11.867
90815SOL    HW274343  10.684   7.419  11.885
90816SOL     OW74344   2.556  13.096   5.567
90816SOL    HW174345   2.649  13.082   5.586
90816SOL    HW274346   2.518  13.118   5.652
90817SOL     OW74347   5.869  11.753  10.031
90817SOL    HW174348   5.857  11.796   9.947
90817SOL    HW274349   5.904  11.821  10.089
90818SOL     OW74350  10.472   9.538  13.924
90818SOL    HW174351  10.514   9.520  14.009
90818SOL    HW274352  10.383   9.502  13.933
90819SOL     OW74353   2.768   6.125   1.334
90819SOL    HW174354   2.812   6.043   1.312
90819SOL    HW274355   2.696   6.131   1.272
90820SOL     OW74356   6.408   8.429   9.231
90820SOL    HW174357   6.475   8.493   9.207
90820SOL    HW274358   6.347   8.478   9.286
90821SOL     OW74359  11.418  10.478  10.094
90821SOL    HW174360  11.332  10.449  10.125
90821SOL    HW274361  11.445  10.409  10.032
90822SOL     OW74362   9.218   2.161   4.290
90822SOL    HW174363   9.228   2.112   4.208
90822SOL    HW274364   9.254   2.103   4.357
90823SOL     OW74365  11.848   9.070  11.334
90823SOL    HW174366  11.801   9.054  11.416
90823SOL    HW274367  11.935   9.031  11.348
90824SOL     OW74368  13.429   3.950   3.724
90824SOL    HW174369  13.367   4.023   3.725
90824SOL    HW274370  13.400   3.894   3.797
90825SOL     OW74371  12.589   0.521   9.539
90825SOL    HW174372  12.512   0.463   9.542
90825SOL    HW274373  12.653   0.477   9.595
90826SOL     OW74374   1.356   0.324  10.101
90826SOL    HW174375   1.308   0.318  10.019
90826SOL    HW274376   1.359   0.233  10.133
90827SOL     OW74377  10.035   8.591   5.100
90827SOL    HW174378   9.973   8.636   5.042
90827SOL    HW274379   9.980   8.548   5.166
90828SOL     OW74380  11.757   4.856  13.386
90828SOL    HW174381  11.674   4.814  13.360
90828SOL    HW274382  11.818   4.783  13.395
90829SOL     OW74383  12.134  14.850   1.291
90829SOL    HW174384  12.159  14.795   1.365
90829SOL    HW274385  12.078  14.794   1.237
90830SOL     OW74386   2.728  14.353  11.839
90830SOL    HW174387   2.802  14.369  11.898
90830SOL    HW274388   2.662  14.418  11.865
90831SOL     OW74389   0.620   1.548   4.273
90831SOL    HW174390   0.647   1.595   4.352
90831SOL    HW274391   0.554   1.604   4.232
90832SOL     OW74392   6.886   3.710   3.523
90832SOL    HW174393   6.956   3.776   3.521
90832SOL    HW274394   6.806   3.761   3.535
90833SOL     OW74395   8.706  11.180   1.188
90833SOL    HW174396   8.714  11.137   1.273
90833SOL    HW274397   8.674  11.112   1.129
90834SOL     OW74398   6.642   5.558  11.796
90834SOL    HW174399   6.589   5.478  11.805
90834SOL    HW274400   6.583   5.628  11.825
90835SOL     OW74401   5.353   9.973   5.878
90835SOL    HW174402   5.326  10.056   5.917
90835SOL    HW274403   5.271   9.925   5.865
90836SOL     OW74404  13.968  14.594   7.822
90836SOL    HW174405  13.988  14.562   7.735
90836SOL    HW274406  13.873  14.608   7.822
90837SOL     OW74407   2.880  14.496   5.357
90837SOL    HW174408   2.815  14.440   5.398
90837SOL    HW274409   2.937  14.523   5.428
90838SOL     OW74410  13.931   2.934   9.800
90838SOL    HW174411  13.997   2.917   9.733
90838SOL    HW274412  13.877   2.855   9.801
90839SOL     OW74413   2.277   1.730  10.441
90839SOL    HW174414   2.196   1.685  10.418
90839SOL    HW274415   2.262   1.763  10.529
90840SOL     OW74416  11.982   4.428   0.861
90840SOL    HW174417  11.951   4.385   0.781
90840SOL    HW274418  11.925   4.504   0.871
90841SOL     OW74419  13.616   1.371  14.837
90841SOL    HW174420  13.624   1.323  14.754
90841SOL    HW274421  13.562   1.314   0.012
90842SOL     OW74422   3.602  10.708   0.068
90842SOL    HW174423   3.677  10.708   0.008
90842SOL    HW274424   3.595  10.799   0.097
90843SOL     OW74425   4.762  10.344   9.496
90843SOL    HW174426   4.717  10.408   9.552
90843SOL    HW274427   4.710  10.264   9.503
90844SOL     OW74428   9.810   0.245   8.483
90844SOL    HW174429   9.782   0.293   8.405
90844SOL    HW274430   9.868   0.306   8.529
90845SOL     OW74431   8.204   7.556  10.933
90845SOL    HW174432   8.263   7.625  10.963
90845SOL    HW274433   8.262   7.485  10.905
90846SOL     OW74434   1.121   1.382   3.329
90846SOL    HW174435   1.118   1.307   3.271
90846SOL    HW274436   1.061   1.360   3.401
90847SOL     OW74437   7.824   9.720   9.795
90847SOL    HW174438   7.756   9.670   9.840
90847SOL    HW274439   7.794   9.723   9.704
90848SOL     OW74440   1.669  10.173   8.127
90848SOL    HW174441   1.672  10.149   8.220
90848SOL    HW274442   1.580  10.150   8.100
90849SOL     OW74443   7.999   5.907   7.895
90849SOL    HW174444   8.054   5.956   7.835
90849SOL    HW274445   7.956   5.974   7.948
90850SOL     OW74446   8.099   6.182  14.836
90850SOL    HW174447   8.175   6.238  14.853
90850SOL    HW274448   8.023   6.237  14.854
90851SOL     OW74449   7.088  10.369   8.249
90851SOL    HW174450   7.010  10.326   8.286
90851SOL    HW274451   7.098  10.448   8.303
90852SOL     OW74452   4.856   1.419  12.381
90852SOL    HW174453   4.928   1.433  12.320
90852SOL    HW274454   4.898   1.386  12.460
90853SOL     OW74455   5.925   1.143   5.194
90853SOL    HW174456   5.957   1.225   5.157
90853SOL    HW274457   5.849   1.120   5.139
90854SOL     OW74458   3.119   4.585  10.792
90854SOL    HW174459   3.065   4.508  10.775
90854SOL    HW274460   3.112   4.638  10.712
90855SOL     OW74461   7.809   7.819   6.097
90855SOL    HW174462   7.822   7.913   6.085
90855SOL    HW274463   7.738   7.797   6.037
90856SOL     OW74464   2.633   8.270  10.670
90856SOL    HW174465   2.593   8.218  10.740
90856SOL    HW274466   2.727   8.263  10.685
90857SOL     OW74467   1.060   1.254  14.290
90857SOL    HW174468   1.018   1.221  14.369
90857SOL    HW274469   1.014   1.210  14.218
90858SOL     OW74470  10.524  14.020   7.009
90858SOL    HW174471  10.487  14.108   7.021
90858SOL    HW274472  10.467  13.963   7.061
90859SOL     OW74473   6.011   2.885   5.151
90859SOL    HW174474   5.994   2.979   5.157
90859SOL    HW274475   6.046   2.872   5.063
90860SOL     OW74476   2.750  11.306  13.045
90860SOL    HW174477   2.697  11.227  13.039
90860SOL    HW274478   2.745  11.331  13.138
90861SOL     OW74479   1.697   2.942   8.186
90861SOL    HW174480   1.638   3.011   8.154
90861SOL    HW274481   1.654   2.861   8.162
90862SOL     OW74482   4.296   5.770   9.777
90862SOL    HW174483   4.327   5.804   9.860
90862SOL    HW274484   4.248   5.843   9.737
90863SOL     OW74485   2.386   4.438  11.260
90863SOL    HW174486   2.479   4.444  11.238
90863SOL    HW274487   2.349   4.385  11.189
90864SOL     OW74488  13.905   6.110  13.195
90864SOL    HW174489  13.836   6.158  13.241
90864SOL    HW274490  13.976   6.102  13.260
90865SOL     OW74491   1.142   4.891  13.781
90865SOL    HW174492   1.208   4.848  13.726
90865SOL    HW274493   1.176   4.979  13.796
90866SOL     OW74494   7.828  12.674   4.804
90866SOL    HW174495   7.812  12.579   4.803
90866SOL    HW274496   7.759  12.709   4.860
90867SOL     OW74497   0.967   3.897  14.502
90867SOL    HW174498   1.014   3.906  14.419
90867SOL    HW274499   0.975   3.804  14.525
90868SOL     OW74500   6.747   2.747   3.955
90868SOL    HW174501   6.772   2.777   4.043
90868SOL    HW274502   6.678   2.682   3.971
90869SOL     OW74503   9.939  12.390   0.853
90869SOL    HW174504   9.992  12.318   0.819
90869SOL    HW274505   9.917  12.363   0.942
90870SOL     OW74506  10.797  10.961   7.959
90870SOL    HW174507  10.720  10.976   8.013
90870SOL    HW274508  10.861  10.922   8.019
90871SOL     OW74509  13.102   6.927   6.610
90871SOL    HW174510  13.061   6.850   6.570
90871SOL    HW274511  13.194   6.922   6.584
90872SOL     OW74512   8.471   8.228  11.669
90872SOL    HW174513   8.492   8.233  11.576
90872SOL    HW274514   8.423   8.146  11.679
90873SOL     OW74515   5.302  13.896   1.755
90873SOL    HW174516   5.325  13.804   1.769
90873SOL    HW274517   5.214  13.893   1.717
90874SOL     OW74518   8.518   0.786  14.395
90874SOL    HW174519   8.498   0.875  14.365
90874SOL    HW274520   8.433   0.743  14.403
90875SOL     OW74521   1.982   1.064   8.318
90875SOL    HW174522   1.945   0.976   8.319
90875SOL    HW274523   2.076   1.050   8.312
90876SOL     OW74524   6.493  11.584   8.462
90876SOL    HW174525   6.435  11.638   8.515
90876SOL    HW274526   6.562  11.643   8.432
90877SOL     OW74527   3.685   6.017   4.703
90877SOL    HW174528   3.700   5.953   4.633
90877SOL    HW274529   3.759   6.004   4.763
90878SOL     OW74530   3.292  10.444  13.515
90878SOL    HW174531   3.374  10.401  13.538
90878SOL    HW274532   3.319  10.524  13.470
90879SOL     OW74533  13.313  12.191   1.777
90879SOL    HW174534  13.367  12.216   1.702
90879SOL    HW274535  13.235  12.246   1.769
90880SOL     OW74536   6.512   8.322  14.293
90880SOL    HW174537   6.589   8.305  14.347
90880SOL    HW274538   6.522   8.264  14.218
90881SOL     OW74539   3.972  10.031   2.830
90881SOL    HW174540   3.928  10.091   2.769
90881SOL    HW274541   3.911  10.021   2.903
90882SOL     OW74542   7.312   2.519   3.585
90882SOL    HW174543   7.226   2.486   3.608
90882SOL    HW274544   7.365   2.440   3.570
90883SOL     OW74545   5.142  14.516   2.537
90883SOL    HW174546   5.202  14.550   2.471
90883SOL    HW274547   5.104  14.595   2.578
90884SOL     OW74548  12.028   1.665   3.860
90884SOL    HW174549  12.103   1.684   3.917
90884SOL    HW274550  12.001   1.577   3.885
90885SOL     OW74551   9.188  10.721  14.500
90885SOL    HW174552   9.095  10.699  14.513
90885SOL    HW274553   9.186  10.810  14.465
90886SOL     OW74554  10.050   3.087   0.692
90886SOL    HW174555  10.102   3.015   0.727
90886SOL    HW274556  10.113   3.159   0.681
90887SOL     OW74557   0.236   5.490   4.869
90887SOL    HW174558   0.169   5.431   4.904
90887SOL    HW274559   0.316   5.437   4.868
90888SOL     OW74560  13.904  14.591  12.055
90888SOL    HW174561  13.972  14.646  12.016
90888SOL    HW274562  13.872  14.641  12.129
90889SOL     OW74563   8.892   8.160   5.420
90889SOL    HW174564   8.876   8.081   5.471
90889SOL    HW274565   8.909   8.129   5.331
90890SOL     OW74566   2.222   8.502  12.288
90890SOL    HW174567   2.186   8.567  12.349
90890SOL    HW274568   2.147   8.470  12.239
90891SOL     OW74569   7.566  14.182   4.400
90891SOL    HW174570   7.617  14.206   4.477
90891SOL    HW274571   7.609  14.226   4.327
90892SOL     OW74572  10.354  11.745   7.427
90892SOL    HW174573  10.329  11.805   7.356
90892SOL    HW274574  10.282  11.751   7.490
90893SOL     OW74575  11.650   2.135   3.889
90893SOL    HW174576  11.598   2.180   3.823
90893SOL    HW274577  11.590   2.125   3.963
90894SOL     OW74578   6.296   7.652  10.743
90894SOL    HW174579   6.224   7.603  10.782
90894SOL    HW274580   6.365   7.651  10.810
90895SOL     OW74581  14.303   8.369  14.843
90895SOL    HW174582  14.362   8.360   0.038
90895SOL    HW274583  14.358   8.348  14.767
90896SOL     OW74584   3.188   1.132  11.840
90896SOL    HW174585   3.170   1.220  11.872
90896SOL    HW274586   3.228   1.087  11.914
90897SOL     OW74587  14.081   8.254   4.407
90897SOL    HW174588  14.111   8.177   4.360
90897SOL    HW274589  14.146   8.321   4.388
90898SOL     OW74590   2.444   2.419   4.079
90898SOL    HW174591   2.533   2.444   4.056
90898SOL    HW274592   2.388   2.469   4.020
90899SOL     OW74593   5.333  12.987   1.758
90899SOL    HW174594   5.307  12.987   1.666
90899SOL    HW274595   5.414  13.040   1.760
90900SOL     OW74596   8.663   9.022   5.783
90900SOL    HW174597   8.729   9.087   5.758
90900SOL    HW274598   8.650   8.969   5.704
90901SOL     OW74599   6.091  14.656   1.519
90901SOL    HW174600   6.082  14.749   1.539
90901SOL    HW274601   6.143  14.653   1.439
90902SOL     OW74602  13.287  14.048  11.914
90902SOL    HW174603  13.333  13.984  11.967
90902SOL    HW274604  13.234  13.996  11.853
90903SOL     OW74605   6.198  10.648   0.059
90903SOL    HW174606   6.289  10.675   0.049
90903SOL    HW274607   6.189  10.571   0.003
90904SOL     OW74608  13.014  13.006   2.772
90904SOL    HW174609  13.055  13.063   2.837
90904SOL    HW274610  13.068  12.927   2.772
90905SOL     OW74611   3.125  12.575   5.455
90905SOL    HW174612   3.152  12.490   5.490
90905SOL    HW274613   3.169  12.581   5.370
90906SOL     OW74614  13.521   0.271   5.661
90906SOL    HW174615  13.576   0.253   5.737
90906SOL    HW274616  13.538   0.362   5.639
90907SOL     OW74617  10.991  10.840   4.601
90907SOL    HW174618  11.000  10.819   4.508
90907SOL    HW274619  10.917  10.786   4.630
90908SOL     OW74620  12.414   8.793   8.978
90908SOL    HW174621  12.482   8.844   9.022
90908SOL    HW274622  12.363   8.857   8.929
90909SOL     OW74623   2.455   0.137  11.791
90909SOL    HW174624   2.408   0.096  11.863
90909SOL    HW274625   2.502   0.210  11.832
90910SOL     OW74626  12.588   8.577   8.949
90910SOL    HW174627  12.525   8.644   8.974
90910SOL    HW274628  12.539   8.518   8.892
90911SOL     OW74629   7.477   1.921  12.281
90911SOL    HW174630   7.571   1.922  12.301
90911SOL    HW274631   7.444   2.002  12.319
90912SOL     OW74632   3.661   5.787   6.056
90912SOL    HW174633   3.661   5.738   6.139
90912SOL    HW274634   3.753   5.788   6.030
90913SOL     OW74635   4.678   8.513   8.620
90913SOL    HW174636   4.677   8.449   8.549
90913SOL    HW274637   4.767   8.548   8.619
90914SOL     OW74638   7.967  14.349   8.767
90914SOL    HW174639   7.947  14.398   8.688
90914SOL    HW274640   8.021  14.275   8.737
90915SOL     OW74641   5.348   1.975   2.281
90915SOL    HW174642   5.359   1.934   2.367
90915SOL    HW274643   5.431   1.962   2.237
90916SOL     OW74644  13.914   6.722  13.285
90916SOL    HW174645  13.892   6.639  13.242
90916SOL    HW274646  14.004   6.740  13.257
90917SOL     OW74647   5.574   2.852  14.441
90917SOL    HW174648   5.607   2.925  14.387
90917SOL    HW274649   5.554   2.783  14.378
90918SOL     OW74650  14.372   5.342   2.262
90918SOL    HW174651  14.312   5.269   2.278
90918SOL    HW274652  14.385   5.382   2.348
90919SOL     OW74653  12.012   4.865   0.615
90919SOL    HW174654  11.936   4.811   0.593
90919SOL    HW274655  12.055   4.881   0.532
90920SOL     OW74656  11.582   9.103   2.967
90920SOL    HW174657  11.674   9.124   2.983
90920SOL    HW274658  11.533   9.169   3.015
90921SOL     OW74659   6.396   6.764   8.506
90921SOL    HW174660   6.470   6.786   8.562
90921SOL    HW274661   6.340   6.842   8.508
90922SOL     OW74662  10.265   7.037  12.636
90922SOL    HW174663  10.180   7.004  12.608
90922SOL    HW274664  10.265   7.129  12.611
90923SOL     OW74665  11.454   1.181   3.908
90923SOL    HW174666  11.396   1.249   3.941
90923SOL    HW274667  11.422   1.100   3.949
90924SOL     OW74668  14.573  11.085   3.986
90924SOL    HW174669  14.528  11.085   4.071
90924SOL    HW274670  14.535  11.160   3.939
90925SOL     OW74671   0.394  14.584   3.141
90925SOL    HW174672   0.389  14.602   3.047
90925SOL    HW274673   0.303  14.570   3.167
90926SOL     OW74674  11.307   1.248  12.220
90926SOL    HW174675  11.281   1.171  12.270
90926SOL    HW274676  11.313   1.318  12.286
90927SOL     OW74677   2.182   3.858   9.056
90927SOL    HW174678   2.131   3.935   9.082
90927SOL    HW274679   2.269   3.893   9.038
90928SOL     OW74680   4.332   8.641  12.698
90928SOL    HW174681   4.244   8.610  12.677
90928SOL    HW274682   4.387   8.605  12.628
90929SOL     OW74683  13.652   5.086   2.938
90929SOL    HW174684  13.715   5.118   3.003
90929SOL    HW274685  13.575   5.142   2.951
90930SOL     OW74686   4.934  13.916   0.855
90930SOL    HW174687   4.947  13.898   0.948
90930SOL    HW274688   4.929  13.829   0.814
90931SOL     OW74689  14.514  11.158   9.749
90931SOL    HW174690  14.462  11.141   9.670
90931SOL    HW274691  14.471  11.234   9.789
90932SOL     OW74692  14.660   3.769  14.387
90932SOL    HW174693  14.726   3.819  14.436
90932SOL    HW274694  14.581   3.823  14.393
90933SOL     OW74695  12.612   1.139   8.373
90933SOL    HW174696  12.566   1.217   8.343
90933SOL    HW274697  12.571   1.116   8.456
90934SOL     OW74698   2.853   8.797  12.479
90934SOL    HW174699   2.806   8.763  12.403
90934SOL    HW274700   2.790   8.856  12.522
90935SOL     OW74701   0.751  13.935  13.087
90935SOL    HW174702   0.752  13.866  13.020
90935SOL    HW274703   0.736  14.015  13.037
90936SOL     OW74704  14.172  13.022   3.336
90936SOL    HW174705  14.081  12.993   3.335
90936SOL    HW274706  14.199  13.016   3.428
90937SOL     OW74707   6.131   7.277   3.838
90937SOL    HW174708   6.166   7.227   3.912
90937SOL    HW274709   6.162   7.230   3.761
90938SOL     OW74710   4.165   3.727  11.790
90938SOL    HW174711   4.185   3.820  11.786
90938SOL    HW274712   4.120   3.709  11.707
90939SOL     OW74713  12.741   1.209  11.281
90939SOL    HW174714  12.805   1.280  11.270
90939SOL    HW274715  12.765   1.145  11.214
90940SOL     OW74716   8.786   3.990  12.024
90940SOL    HW174717   8.844   3.977  11.949
90940SOL    HW274718   8.698   3.985  11.988
90941SOL     OW74719  11.986  14.240   7.387
90941SOL    HW174720  11.898  14.246   7.352
90941SOL    HW274721  12.022  14.328   7.377
90942SOL     OW74722  13.428   8.242   0.967
90942SOL    HW174723  13.347   8.207   0.929
90942SOL    HW274724  13.420   8.337   0.959
90943SOL     OW74725   9.984   9.216  14.820
90943SOL    HW174726  10.070   9.206  14.862
90943SOL    HW274727   9.924   9.169  14.877
90944SOL     OW74728   2.836   7.783  14.689
90944SOL    HW174729   2.798   7.729  14.619
90944SOL    HW274730   2.785   7.864  14.687
90945SOL     OW74731   6.605   7.317   7.972
90945SOL    HW174732   6.669   7.252   7.942
90945SOL    HW274733   6.563   7.276   8.047
90946SOL     OW74734   5.230   5.920  14.379
90946SOL    HW174735   5.323   5.900  14.367
90946SOL    HW274736   5.212   5.897  14.470
90947SOL     OW74737   6.940  12.671   0.934
90947SOL    HW174738   6.860  12.712   0.967
90947SOL    HW274739   6.910  12.607   0.870
90948SOL     OW74740  12.443   4.618   5.829
90948SOL    HW174741  12.525   4.579   5.859
90948SOL    HW274742  12.437   4.591   5.737
90949SOL     OW74743   2.310  10.865   3.624
90949SOL    HW174744   2.310  10.960   3.633
90949SOL    HW274745   2.218  10.842   3.614
90950SOL     OW74746   4.162   7.212  11.146
90950SOL    HW174747   4.097   7.277  11.174
90950SOL    HW274748   4.173   7.154  11.221
90951SOL     OW74749   4.504   9.393   2.419
90951SOL    HW174750   4.512   9.402   2.324
90951SOL    HW274751   4.430   9.449   2.443
90952SOL     OW74752  11.805  13.909   8.713
90952SOL    HW174753  11.763  13.988   8.748
90952SOL    HW274754  11.892  13.908   8.754
90953SOL     OW74755   1.653   9.447   3.204
90953SOL    HW174756   1.663   9.375   3.142
90953SOL    HW274757   1.618   9.405   3.283
90954SOL     OW74758   9.235   3.487   9.360
90954SOL    HW174759   9.208   3.549   9.292
90954SOL    HW274760   9.196   3.404   9.334
90955SOL     OW74761   0.512  14.083   7.648
90955SOL    HW174762   0.584  14.119   7.597
90955SOL    HW274763   0.442  14.068   7.585
90956SOL     OW74764   4.009   6.560  14.125
90956SOL    HW174765   4.038   6.592  14.040
90956SOL    HW274766   4.049   6.619  14.188
90957SOL     OW74767   2.369   8.757   6.172
90957SOL    HW174768   2.377   8.837   6.224
90957SOL    HW274769   2.365   8.788   6.082
90958SOL     OW74770   0.508  13.315   1.000
90958SOL    HW174771   0.420  13.340   1.029
90958SOL    HW274772   0.509  13.335   0.906
90959SOL     OW74773   7.574  13.695   5.153
90959SOL    HW174774   7.557  13.765   5.216
90959SOL    HW274775   7.660  13.716   5.116
90960SOL     OW74776  11.271  13.382   3.122
90960SOL    HW174777  11.275  13.477   3.107
90960SOL    HW274778  11.184  13.368   3.160
90961SOL     OW74779  12.526   1.515   5.641
90961SOL    HW174780  12.555   1.444   5.697
90961SOL    HW274781  12.593   1.582   5.650
90962SOL     OW74782  14.655  10.962  12.227
90962SOL    HW174783  14.573  10.943  12.182
90962SOL    HW274784  14.702  10.879  12.228
90963SOL     OW74785  11.925   0.786   2.215
90963SOL    HW174786  11.843   0.810   2.259
90963SOL    HW274787  11.912   0.813   2.124
90964SOL     OW74788   3.996  11.163   6.386
90964SOL    HW174789   4.051  11.209   6.323
90964SOL    HW274790   4.028  11.192   6.472
90965SOL     OW74791   0.274   5.333   0.438
90965SOL    HW174792   0.356   5.296   0.403
90965SOL    HW274793   0.285   5.327   0.533
90966SOL     OW74794   3.591  10.734   1.122
90966SOL    HW174795   3.601  10.821   1.161
90966SOL    HW274796   3.499  10.730   1.097
90967SOL     OW74797  12.770  12.418   1.719
90967SOL    HW174798  12.706  12.411   1.648
90967SOL    HW274799  12.780  12.512   1.733
90968SOL     OW74800   4.588   6.850  13.026
90968SOL    HW174801   4.516   6.799  12.989
90968SOL    HW274802   4.642   6.785  13.071
90969SOL     OW74803   1.636   6.239   6.732
90969SOL    HW174804   1.540   6.244   6.732
90969SOL    HW274805   1.660   6.231   6.640
90970SOL     OW74806  12.367  10.140   3.845
90970SOL    HW174807  12.339  10.163   3.933
90970SOL    HW274808  12.415  10.057   3.855
90971SOL     OW74809   5.127   6.231   5.504
90971SOL    HW174810   5.190   6.301   5.524
90971SOL    HW274811   5.041   6.272   5.515
90972SOL     OW74812  11.404  11.855  13.375
90972SOL    HW174813  11.421  11.761  13.373
90972SOL    HW274814  11.403  11.882  13.283
90973SOL     OW74815  14.846   1.687   3.965
90973SOL    HW174816  14.843   1.611   3.906
90973SOL    HW274817  14.756   1.695   3.997
90974SOL     OW74818  11.623   6.686   8.129
90974SOL    HW174819  11.701   6.689   8.074
90974SOL    HW274820  11.555   6.648   8.073
90975SOL     OW74821  13.242   9.187  11.165
90975SOL    HW174822  13.187   9.130  11.219
90975SOL    HW274823  13.311   9.217  11.224
90976SOL     OW74824   8.899  12.908   9.503
90976SOL    HW174825   8.898  12.829   9.557
90976SOL    HW274826   8.896  12.980   9.567
90977SOL     OW74827  14.270   4.101   3.210
90977SOL    HW174828  14.295   4.170   3.149
90977SOL    HW274829  14.352   4.076   3.253
90978SOL     OW74830   0.240   0.067   5.807
90978SOL    HW174831   0.300   0.104   5.871
90978SOL    HW274832   0.238   0.131   5.736
90979SOL     OW74833  12.790   7.342  11.667
90979SOL    HW174834  12.824   7.265  11.714
90979SOL    HW274835  12.864   7.370  11.613
90980SOL     OW74836   7.631   9.688  13.905
90980SOL    HW174837   7.578   9.734  13.840
90980SOL    HW274838   7.571   9.625  13.945
90981SOL     OW74839  14.380   8.318  10.820
90981SOL    HW174840  14.452   8.361  10.773
90981SOL    HW274841  14.318   8.389  10.839
90982SOL     OW74842  12.946   4.040  11.978
90982SOL    HW174843  12.956   3.956  12.024
90982SOL    HW274844  12.858   4.070  12.003
90983SOL     OW74845   0.189  12.226   7.604
90983SOL    HW174846   0.171  12.243   7.697
90983SOL    HW274847   0.283  12.237   7.595
90984SOL     OW74848   5.948   9.781  10.877
90984SOL    HW174849   5.975   9.783  10.968
90984SOL    HW274850   5.864   9.827  10.875
90985SOL     OW74851  14.509  12.359   6.188
90985SOL    HW174852  14.460  12.277   6.184
90985SOL    HW274853  14.488  12.403   6.105
90986SOL     OW74854   6.962   7.897  14.493
90986SOL    HW174855   7.035   7.839  14.472
90986SOL    HW274856   6.975   7.973  14.437
90987SOL     OW74857  14.361  12.629   2.522
90987SOL    HW174858  14.425  12.600   2.458
90987SOL    HW274859  14.278  12.633   2.474
90988SOL     OW74860   8.256  10.764   6.975
90988SOL    HW174861   8.318  10.762   7.048
90988SOL    HW274862   8.284  10.838   6.921
90989SOL     OW74863   9.986   5.008  13.644
90989SOL    HW174864   9.937   5.041  13.568
90989SOL    HW274865   9.981   4.912  13.635
90990SOL     OW74866  13.052   8.438   0.211
90990SOL    HW174867  13.065   8.345   0.228
90990SOL    HW274868  12.974   8.442   0.157
90991SOL     OW74869   4.430   7.761   1.345
90991SOL    HW174870   4.496   7.830   1.337
90991SOL    HW274871   4.433   7.715   1.262
90992SOL     OW74872   6.204  11.662   1.667
90992SOL    HW174873   6.221  11.585   1.613
90992SOL    HW274874   6.228  11.635   1.756
90993SOL     OW74875  12.340   6.482  13.354
90993SOL    HW174876  12.349   6.396  13.394
90993SOL    HW274877  12.262   6.520  13.395
90994SOL     OW74878   5.636  12.539  13.873
90994SOL    HW174879   5.730  12.541  13.893
90994SOL    HW274880   5.632  12.525  13.778
90995SOL     OW74881  10.011   5.253  12.443
90995SOL    HW174882   9.940   5.288  12.390
90995SOL    HW274883  10.058   5.195  12.384
90996SOL     OW74884   3.207   0.535   8.521
90996SOL    HW174885   3.131   0.542   8.463
90996SOL    HW274886   3.223   0.624   8.551
90997SOL     OW74887  10.092   4.135   1.581
90997SOL    HW174888  10.067   4.191   1.654
90997SOL    HW274889  10.048   4.173   1.505
90998SOL     OW74890  13.618   5.541  11.302
90998SOL    HW174891  13.633   5.617  11.246
90998SOL    HW274892  13.694   5.538  11.360
90999SOL     OW74893  11.670   4.174   0.458
90999SOL    HW174894  11.587   4.194   0.502
90999SOL    HW274895  11.690   4.084   0.485
91000SOL     OW74896  13.345   0.941   2.443
91000SOL    HW174897  13.364   0.911   2.532
91000SOL    HW274898  13.261   0.985   2.450
91001SOL     OW74899   0.415   5.337   1.006
91001SOL    HW174900   0.379   5.425   1.021
91001SOL    HW274901   0.490   5.351   0.949
91002SOL     OW74902   6.809  12.320  11.256
91002SOL    HW174903   6.871  12.325  11.328
91002SOL    HW274904   6.811  12.229  11.227
91003SOL     OW74905   4.435  13.015   7.822
91003SOL    HW174906   4.415  13.013   7.915
91003SOL    HW274907   4.524  12.981   7.815
91004SOL     OW74908  11.748   1.693   7.595
91004SOL    HW174909  11.684   1.675   7.526
91004SOL    HW274910  11.706   1.761   7.649
91005SOL     OW74911  11.702   2.333   8.171
91005SOL    HW174912  11.635   2.308   8.108
91005SOL    HW274913  11.665   2.407   8.218
91006SOL     OW74914  12.958  13.215   7.334
91006SOL    HW174915  12.887  13.152   7.344
91006SOL    HW274916  13.007  13.209   7.416
91007SOL     OW74917   9.877  10.010  13.122
91007SOL    HW174918   9.911   9.987  13.208
91007SOL    HW274919   9.848   9.926  13.085
91008SOL     OW74920   7.922   1.162  12.863
91008SOL    HW174921   7.844   1.110  12.881
91008SOL    HW274922   7.994   1.099  12.866
91009SOL     OW74923  13.158   7.240   0.107
91009SOL    HW174924  13.085   7.190   0.143
91009SOL    HW274925  13.192   7.184   0.036
91010SOL     OW74926   4.021   4.133   3.068
91010SOL    HW174927   3.927   4.144   3.056
91010SOL    HW274928   4.042   4.054   3.018
91011SOL     OW74929   7.812   5.592   3.409
91011SOL    HW174930   7.884   5.551   3.362
91011SOL    HW274931   7.801   5.538   3.488
91012SOL     OW74932   6.565   8.799   4.028
91012SOL    HW174933   6.528   8.766   4.109
91012SOL    HW274934   6.648   8.839   4.054
91013SOL     OW74935   1.819   4.757   0.238
91013SOL    HW174936   1.788   4.711   0.315
91013SOL    HW274937   1.742   4.803   0.204
91014SOL     OW74938  12.411  14.257   6.464
91014SOL    HW174939  12.414  14.289   6.374
91014SOL    HW274940  12.399  14.162   6.455
91015SOL     OW74941   7.565  11.797   0.176
91015SOL    HW174942   7.482  11.760   0.205
91015SOL    HW274943   7.592  11.743   0.102
91016SOL     OW74944  13.117  14.364   0.721
91016SOL    HW174945  13.058  14.330   0.653
91016SOL    HW274946  13.082  14.451   0.742
91017SOL     OW74947   0.806   6.639   6.511
91017SOL    HW174948   0.829   6.731   6.528
91017SOL    HW274949   0.793   6.601   6.598
91018SOL     OW74950   7.110  10.151   6.474
91018SOL    HW174951   7.113  10.094   6.398
91018SOL    HW274952   7.128  10.094   6.548
91019SOL     OW74953   5.454  10.373   5.775
91019SOL    HW174954   5.446  10.356   5.869
91019SOL    HW274955   5.543  10.346   5.753
91020SOL     OW74956  13.693  12.584  11.228
91020SOL    HW174957  13.664  12.525  11.297
91020SOL    HW274958  13.683  12.535  11.147
91021SOL     OW74959  12.197  11.410  10.562
91021SOL    HW174960  12.282  11.454  10.551
91021SOL    HW274961  12.135  11.466  10.514
91022SOL     OW74962  13.551  12.976   4.077
91022SOL    HW174963  13.460  13.004   4.087
91022SOL    HW274964  13.586  13.034   4.010
91023SOL     OW74965   8.643   9.026   6.995
91023SOL    HW174966   8.693   8.998   7.071
91023SOL    HW274967   8.709   9.047   6.929
91024SOL     OW74968   9.912   0.698   1.197
91024SOL    HW174969   9.980   0.730   1.137
91024SOL    HW274970   9.955   0.629   1.248
91025SOL     OW74971   7.016  10.761  13.458
91025SOL    HW174972   6.949  10.699  13.429
91025SOL    HW274973   7.098  10.712  13.452
91026SOL     OW74974   7.838  13.278  14.691
91026SOL    HW174975   7.927  13.292  14.661
91026SOL    HW274976   7.848  13.231  14.774
91027SOL     OW74977  10.950   6.686   5.173
91027SOL    HW174978  10.992   6.633   5.106
91027SOL    HW274979  11.016   6.695   5.242
91028SOL     OW74980   6.424   5.095   5.418
91028SOL    HW174981   6.510   5.081   5.378
91028SOL    HW274982   6.400   5.184   5.391
91029SOL     OW74983   9.588   8.419  14.762
91029SOL    HW174984   9.568   8.470  14.684
91029SOL    HW274985   9.592   8.484  14.832
91030SOL     OW74986   7.568   8.381   1.551
91030SOL    HW174987   7.606   8.347   1.632
91030SOL    HW274988   7.530   8.304   1.508
91031SOL     OW74989  13.227   8.304   8.886
91031SOL    HW174990  13.214   8.379   8.828
91031SOL    HW274991  13.141   8.261   8.888
91032SOL     OW74992   6.185  11.737   4.573
91032SOL    HW174993   6.260  11.682   4.551
91032SOL    HW274994   6.200  11.819   4.527
91033SOL     OW74995   4.538   5.421   5.809
91033SOL    HW174996   4.505   5.498   5.856
91033SOL    HW274997   4.595   5.378   5.872
91034SOL     OW74998   1.677   2.305   1.048
91034SOL    HW174999   1.745   2.238   1.039
91034SOL    HW275000   1.717   2.372   1.104
91035SOL     OW75001   3.976   7.520   1.597
91035SOL    HW175002   3.939   7.608   1.605
91035SOL    HW275003   3.903   7.467   1.564
91036SOL     OW75004   8.112   1.914   3.807
91036SOL    HW175005   8.131   1.822   3.825
91036SOL    HW275006   8.175   1.962   3.861
91037SOL     OW75007   6.101  13.154   8.909
91037SOL    HW175008   6.040  13.224   8.887
91037SOL    HW275009   6.073  13.079   8.856
91038SOL     OW75010   9.010   2.600   5.081
91038SOL    HW175011   8.919   2.599   5.111
91038SOL    HW275012   9.021   2.687   5.042
91039SOL     OW75013   3.522   2.154   7.069
91039SOL    HW175014   3.553   2.228   7.018
91039SOL    HW275015   3.483   2.095   7.004
91040SOL     OW75016  12.770   4.637   9.965
91040SOL    HW175017  12.705   4.698   9.999
91040SOL    HW275018  12.753   4.555  10.011
91041SOL     OW75019  10.085   6.520  13.359
91041SOL    HW175020  10.125   6.450  13.411
91041SOL    HW275021  10.150   6.541  13.292
91042SOL     OW75022   3.943   1.651  14.408
91042SOL    HW175023   3.988   1.617  14.485
91042SOL    HW275024   3.922   1.573  14.357
91043SOL     OW75025   2.553   6.247   3.141
91043SOL    HW175026   2.572   6.154   3.151
91043SOL    HW275027   2.637   6.290   3.149
91044SOL     OW75028   6.559   6.029  13.273
91044SOL    HW175029   6.629   6.087  13.243
91044SOL    HW275030   6.534   5.980  13.195
91045SOL     OW75031   7.621   4.527   9.704
91045SOL    HW175032   7.678   4.455   9.730
91045SOL    HW275033   7.663   4.605   9.740
91046SOL     OW75034   1.365   3.755   2.307
91046SOL    HW175035   1.439   3.727   2.360
91046SOL    HW275036   1.294   3.697   2.333
91047SOL     OW75037   4.422   7.528   5.288
91047SOL    HW175038   4.463   7.474   5.221
91047SOL    HW275039   4.347   7.570   5.244
91048SOL     OW75040   3.440   8.839  14.829
91048SOL    HW175041   3.417   8.893   0.025
91048SOL    HW275042   3.357   8.797  14.804
91049SOL     OW75043   5.027   3.794   4.302
91049SOL    HW175044   5.081   3.726   4.341
91049SOL    HW275045   5.059   3.876   4.341
91050SOL     OW75046  12.453  11.817  13.426
91050SOL    HW175047  12.376  11.853  13.471
91050SOL    HW275048  12.484  11.747  13.483
91051SOL     OW75049  12.761   5.431   9.629
91051SOL    HW175050  12.744   5.459   9.540
91051SOL    HW275051  12.711   5.491   9.684
91052SOL     OW75052   5.176  11.078   6.145
91052SOL    HW175053   5.240  11.013   6.114
91052SOL    HW275054   5.098  11.027   6.165
91053SOL     OW75055   5.114   7.067   2.465
91053SOL    HW175056   5.200   7.025   2.464
91053SOL    HW275057   5.106   7.105   2.553
91054SOL     OW75058  14.159   0.392  13.940
91054SOL    HW175059  14.177   0.340  13.862
91054SOL    HW275060  14.068   0.373  13.961
91055SOL     OW75061  14.566   8.430  11.221
91055SOL    HW175062  14.590   8.359  11.161
91055SOL    HW275063  14.517   8.387  11.291
91056SOL     OW75064  13.266  13.881   1.302
91056SOL    HW175065  13.349  13.926   1.321
91056SOL    HW275066  13.207  13.910   1.371
91057SOL     OW75067  12.463   6.006  12.221
91057SOL    HW175068  12.380   5.958  12.226
91057SOL    HW275069  12.449   6.069  12.151
91058SOL     OW75070   0.984   6.631  11.736
91058SOL    HW175071   1.016   6.715  11.703
91058SOL    HW275072   1.012   6.567  11.670
91059SOL     OW75073   9.132   0.659   0.556
91059SOL    HW175074   9.151   0.752   0.544
91059SOL    HW275075   9.040   0.650   0.531
91060SOL     OW75076   2.989  12.276  12.192
91060SOL    HW175077   2.990  12.256  12.099
91060SOL    HW275078   3.024  12.365  12.198
91061SOL     OW75079  13.195  11.468  10.069
91061SOL    HW175080  13.222  11.502   9.984
91061SOL    HW275081  13.120  11.411  10.050
91062SOL     OW75082   5.805   8.084  10.280
91062SOL    HW175083   5.892   8.108  10.249
91062SOL    HW275084   5.756   8.062  10.201
91063SOL     OW75085   0.584   0.223   7.087
91063SOL    HW175086   0.515   0.205   7.023
91063SOL    HW275087   0.543   0.281   7.151
91064SOL     OW75088  13.368   6.942   6.531
91064SOL    HW175089  13.381   6.889   6.452
91064SOL    HW275090  13.353   7.031   6.498
91065SOL     OW75091   7.185   8.849   6.196
91065SOL    HW175092   7.249   8.871   6.129
91065SOL    HW275093   7.232   8.793   6.258
91066SOL     OW75094   8.641   9.673   5.341
91066SOL    HW175095   8.677   9.615   5.408
91066SOL    HW275096   8.555   9.637   5.321
91067SOL     OW75097   4.511   7.472  10.979
91067SOL    HW175098   4.461   7.533  11.033
91067SOL    HW275099   4.446   7.410  10.946
91068SOL     OW75100   2.541   3.311  13.749
91068SOL    HW175101   2.520   3.224  13.784
91068SOL    HW275102   2.494   3.371  13.807
91069SOL     OW75103  12.275   3.444  13.629
91069SOL    HW175104  12.223   3.449  13.549
91069SOL    HW275105  12.219   3.483  13.697
91070SOL     OW75106   1.030  14.818  10.456
91070SOL    HW175107   1.107  14.854  10.412
91070SOL    HW275108   1.017  14.732  10.416
91071SOL     OW75109   5.098   3.104   5.773
91071SOL    HW175110   5.136   3.176   5.824
91071SOL    HW275111   5.134   3.116   5.685
91072SOL     OW75112   8.960   0.952  12.949
91072SOL    HW175113   9.029   0.905  12.996
91072SOL    HW275114   8.883   0.944  13.006
91073SOL     OW75115   3.314   8.483   7.653
91073SOL    HW175116   3.344   8.398   7.619
91073SOL    HW275117   3.222   8.469   7.674
91074SOL     OW75118  11.874   7.558  13.854
91074SOL    HW175119  11.925   7.588  13.929
91074SOL    HW275120  11.921   7.591  13.777
91075SOL     OW75121   9.859  12.063   2.049
91075SOL    HW175122   9.812  12.088   1.969
91075SOL    HW275123   9.790  12.055   2.115
91076SOL     OW75124   5.129   7.984  14.729
91076SOL    HW175125   5.197   7.967  14.794
91076SOL    HW275126   5.175   8.028  14.657
91077SOL     OW75127   4.225   9.844   2.839
91077SOL    HW175128   4.247   9.844   2.932
91077SOL    HW275129   4.140   9.889   2.834
91078SOL     OW75130  10.255   3.684   7.983
91078SOL    HW175131  10.197   3.738   8.037
91078SOL    HW275132  10.343   3.717   8.002
91079SOL     OW75133  12.201   3.870  12.553
91079SOL    HW175134  12.258   3.936  12.514
91079SOL    HW275135  12.187   3.806  12.483
91080SOL     OW75136   3.283  11.381  14.756
91080SOL    HW175137   3.222  11.441  14.715
91080SOL    HW275138   3.237  11.349  14.834
91081SOL     OW75139  10.215   5.653   0.215
91081SOL    HW175140  10.223   5.602   0.134
91081SOL    HW275141  10.125   5.684   0.215
91082SOL     OW75142   1.346  13.480   3.103
91082SOL    HW175143   1.396  13.457   3.181
91082SOL    HW275144   1.273  13.532   3.137
91083SOL     OW75145  13.441   3.374   1.404
91083SOL    HW175146  13.470   3.396   1.316
91083SOL    HW275147  13.522   3.357   1.452
91084SOL     OW75148   4.342   2.832   9.518
91084SOL    HW175149   4.387   2.833   9.434
91084SOL    HW275150   4.403   2.787   9.577
91085SOL     OW75151   5.432  10.623   8.767
91085SOL    HW175152   5.439  10.593   8.677
91085SOL    HW275153   5.376  10.701   8.763
91086SOL     OW75154  11.314   2.697   1.229
91086SOL    HW175155  11.399   2.737   1.250
91086SOL    HW275156  11.278   2.753   1.161
91087SOL     OW75157   8.255  12.413   3.822
91087SOL    HW175158   8.288  12.358   3.893
91087SOL    HW275159   8.282  12.368   3.742
91088SOL     OW75160   1.569   3.740   6.772
91088SOL    HW175161   1.542   3.758   6.862
91088SOL    HW275162   1.578   3.827   6.732
91089SOL     OW75163   7.695   3.558   5.844
91089SOL    HW175164   7.609   3.574   5.882
91089SOL    HW275165   7.745   3.638   5.860
91090SOL     OW75166  11.378  13.799   4.973
91090SOL    HW175167  11.393  13.752   4.891
91090SOL    HW275168  11.425  13.747   5.039
91091SOL     OW75169  10.416   0.278   7.880
91091SOL    HW175170  10.508   0.274   7.855
91091SOL    HW275171  10.368   0.241   7.806
91092SOL     OW75172   1.193   4.370  12.522
91092SOL    HW175173   1.215   4.438  12.458
91092SOL    HW275174   1.137   4.308  12.474
91093SOL     OW75175   9.399  12.527   1.572
91093SOL    HW175176   9.444  12.605   1.604
91093SOL    HW275177   9.464  12.483   1.517
91094SOL     OW75178  11.523   3.294   8.839
91094SOL    HW175179  11.489   3.227   8.779
91094SOL    HW275180  11.547   3.367   8.782
91095SOL     OW75181  14.220   8.216   9.174
91095SOL    HW175182  14.227   8.306   9.207
91095SOL    HW275183  14.258   8.162   9.244
91096SOL     OW75184  14.325  12.145   0.527
91096SOL    HW175185  14.375  12.173   0.604
91096SOL    HW275186  14.264  12.080   0.561
91097SOL     OW75187   0.358   8.485   0.968
91097SOL    HW175188   0.341   8.464   1.060
91097SOL    HW275189   0.301   8.559   0.949
91098SOL     OW75190  12.646   3.818   2.253
91098SOL    HW175191  12.730   3.815   2.208
91098SOL    HW275192  12.609   3.730   2.243
91099SOL     OW75193  10.421  14.773  12.319
91099SOL    HW175194  10.411  14.843  12.383
91099SOL    HW275195  10.514  14.774  12.297
91100SOL     OW75196  13.024   5.319   6.108
91100SOL    HW175197  12.955   5.309   6.174
91100SOL    HW275198  13.059   5.407   6.124
91101SOL     OW75199   3.673  13.559  11.191
91101SOL    HW175200   3.616  13.485  11.213
91101SOL    HW275201   3.709  13.538  11.105
91102SOL     OW75202  12.621   7.881   4.703
91102SOL    HW175203  12.621   7.811   4.768
91102SOL    HW275204  12.569   7.846   4.630
91103SOL     OW75205   2.045   1.291   6.867
91103SOL    HW175206   2.068   1.335   6.948
91103SOL    HW275207   2.068   1.355   6.798
91104SOL     OW75208  13.738   5.629  10.950
91104SOL    HW175209  13.751   5.698  10.884
91104SOL    HW275210  13.730   5.676  11.033
91105SOL     OW75211   1.113   3.953  13.890
91105SOL    HW175212   1.137   3.862  13.911
91105SOL    HW275213   1.127   3.959  13.795
91106SOL     OW75214  12.023   7.331   9.677
91106SOL    HW175215  12.039   7.422   9.703
91106SOL    HW275216  11.983   7.291   9.755
91107SOL     OW75217   9.079   3.746  12.660
91107SOL    HW175218   9.045   3.700  12.737
91107SOL    HW275219   9.151   3.691  12.630
91108SOL     OW75220   8.172   2.106   5.160
91108SOL    HW175221   8.255   2.147   5.185
91108SOL    HW275222   8.168   2.117   5.065
91109SOL     OW75223   2.542  11.705  12.271
91109SOL    HW175224   2.580  11.792  12.260
91109SOL    HW275225   2.618  11.647  12.285
91110SOL     OW75226   4.474   0.449   0.461
91110SOL    HW175227   4.520   0.486   0.386
91110SOL    HW275228   4.534   0.382   0.495
91111SOL     OW75229  12.336  13.775   1.342
91111SOL    HW175230  12.411  13.779   1.283
91111SOL    HW275231  12.365  13.721   1.415
91112SOL     OW75232  13.835   6.667   0.929
91112SOL    HW175233  13.910   6.612   0.904
91112SOL    HW275234  13.785   6.613   0.990
91113SOL     OW75235   0.189   8.735   7.719
91113SOL    HW175236   0.282   8.738   7.695
91113SOL    HW275237   0.160   8.826   7.714
91114SOL     OW75238  14.664   8.488  13.923
91114SOL    HW175239  14.595   8.509  13.860
91114SOL    HW275240  14.728   8.438  13.872
91115SOL     OW75241  10.474  13.864  13.422
91115SOL    HW175242  10.470  13.852  13.517
91115SOL    HW275243  10.388  13.898  13.398
91116SOL     OW75244   9.707   9.118   1.587
91116SOL    HW175245   9.753   9.129   1.504
91116SOL    HW275246   9.614   9.125   1.564
91117SOL     OW75247  11.571   2.077   5.228
91117SOL    HW175248  11.504   2.016   5.257
91117SOL    HW275249  11.645   2.022   5.204
91118SOL     OW75250   3.544   5.650   8.331
91118SOL    HW175251   3.578   5.584   8.391
91118SOL    HW275252   3.463   5.612   8.296
91119SOL     OW75253   0.364   8.708   9.723
91119SOL    HW175254   0.409   8.637   9.676
91119SOL    HW275255   0.272   8.683   9.720
91120SOL     OW75256  13.785   7.429   6.803
91120SOL    HW175257  13.853   7.388   6.750
91120SOL    HW275258  13.764   7.364   6.870
91121SOL     OW75259  11.510  12.280  14.210
91121SOL    HW175260  11.542  12.265  14.121
91121SOL    HW275261  11.589  12.298  14.261
91122SOL     OW75262  12.709   2.618  14.510
91122SOL    HW175263  12.657   2.697  14.526
91122SOL    HW275264  12.781   2.624  14.573
91123SOL     OW75265  13.265   5.697  13.781
91123SOL    HW175266  13.186   5.737  13.817
91123SOL    HW275267  13.237   5.663  13.696
91124SOL     OW75268   0.044   0.262  10.170
91124SOL    HW175269   0.005   0.255  10.257
91124SOL    HW275270   0.132   0.226  10.180
91125SOL     OW75271   7.744   4.064  12.898
91125SOL    HW175272   7.811   3.996  12.903
91125SOL    HW275273   7.780   4.129  12.839
91126SOL     OW75274   6.999   9.739  11.448
91126SOL    HW175275   7.000   9.643  11.447
91126SOL    HW275276   7.086   9.763  11.481
91127SOL     OW75277   5.882  10.980   4.298
91127SOL    HW175278   5.960  10.963   4.351
91127SOL    HW275279   5.916  11.007   4.213
91128SOL     OW75280  12.056   5.213   8.852
91128SOL    HW175281  12.095   5.199   8.938
91128SOL    HW275282  11.967   5.244   8.871
91129SOL     OW75283   1.858   5.228  12.583
91129SOL    HW175284   1.847   5.239  12.489
91129SOL    HW275285   1.943   5.185  12.593
91130SOL     OW75286  13.287  12.503   8.887
91130SOL    HW175287  13.241  12.521   8.805
91130SOL    HW275288  13.265  12.413   8.909
91131SOL     OW75289   9.398  11.567   3.435
91131SOL    HW175290   9.470  11.519   3.394
91131SOL    HW275291   9.360  11.620   3.365
91132SOL     OW75292  10.782   5.710  14.604
91132SOL    HW175293  10.798   5.616  14.611
91132SOL    HW275294  10.690   5.717  14.581
91133SOL     OW75295   4.181  11.768   7.310
91133SOL    HW175296   4.182  11.859   7.280
91133SOL    HW275297   4.105  11.762   7.368
91134SOL     OW75298   0.855  14.868  12.320
91134SOL    HW175299   0.823  14.802  12.259
91134SOL    HW275300   0.805   0.067  12.299
91135SOL     OW75301   1.826  10.203  11.110
91135SOL    HW175302   1.909  10.165  11.081
91135SOL    HW275303   1.842  10.230  11.201
91136SOL     OW75304   7.593   7.587   9.059
91136SOL    HW175305   7.607   7.650   9.129
91136SOL    HW275306   7.680   7.554   9.038
91137SOL     OW75307   4.232   4.389  14.178
91137SOL    HW175308   4.279   4.472  14.171
91137SOL    HW275309   4.238   4.351  14.090
91138SOL     OW75310   6.648  11.300  12.788
91138SOL    HW175311   6.655  11.229  12.724
91138SOL    HW275312   6.639  11.379  12.736
91139SOL     OW75313   2.003   0.302   5.283
91139SOL    HW175314   1.925   0.356   5.276
91139SOL    HW275315   1.974   0.214   5.257
91140SOL     OW75316   3.515  13.405   9.664
91140SOL    HW175317   3.473  13.396   9.750
91140SOL    HW275318   3.517  13.316   9.629
91141SOL     OW75319   1.671   5.449   6.107
91141SOL    HW175320   1.764   5.460   6.123
91141SOL    HW275321   1.665   5.381   6.040
91142SOL     OW75322   2.357   4.557   9.142
91142SOL    HW175323   2.409   4.481   9.114
91142SOL    HW275324   2.338   4.604   9.061
91143SOL     OW75325   9.083   4.148   5.205
91143SOL    HW175326   9.143   4.214   5.241
91143SOL    HW275327   9.002   4.196   5.188
91144SOL     OW75328  11.330   6.320   0.159
91144SOL    HW175329  11.334   6.230   0.192
91144SOL    HW275330  11.369   6.316   0.072
91145SOL     OW75331  10.997  12.888  11.940
91145SOL    HW175332  10.930  12.852  11.997
91145SOL    HW275333  11.062  12.926  11.999
91146SOL     OW75334   3.460   4.668   4.284
91146SOL    HW175335   3.366   4.654   4.269
91146SOL    HW275336   3.498   4.675   4.197
91147SOL     OW75337   6.225   5.038  14.218
91147SOL    HW175338   6.164   5.104  14.185
91147SOL    HW275339   6.178   4.955  14.209
91148SOL     OW75340  13.293   5.292   7.331
91148SOL    HW175341  13.244   5.250   7.260
91148SOL    HW275342  13.324   5.374   7.293
91149SOL     OW75343  13.158   5.627   9.808
91149SOL    HW175344  13.253   5.634   9.811
91149SOL    HW275345  13.130   5.702   9.755
91150SOL     OW75346   1.332   4.253   3.208
91150SOL    HW175347   1.381   4.197   3.149
91150SOL    HW275348   1.269   4.298   3.152
91151SOL     OW75349  10.938  14.633   3.220
91151SOL    HW175350  10.944  14.561   3.283
91151SOL    HW275351  10.994  14.702   3.256
91152SOL     OW75352   1.866   6.282   1.277
91152SOL    HW175353   1.799   6.338   1.238
91152SOL    HW275354   1.818   6.218   1.329
91153SOL     OW75355   7.435  10.171   3.152
91153SOL    HW175356   7.445  10.078   3.174
91153SOL    HW275357   7.406  10.211   3.234
91154SOL     OW75358  14.759  12.710   0.744
91154SOL    HW175359  14.766  12.748   0.831
91154SOL    HW275360  14.665  12.700   0.729
91155SOL     OW75361  10.768   4.840   3.587
91155SOL    HW175362  10.830   4.847   3.515
91155SOL    HW275363  10.822   4.849   3.666
91156SOL     OW75364   6.975   6.494   9.575
91156SOL    HW175365   6.890   6.501   9.530
91156SOL    HW275366   7.037   6.535   9.516
91157SOL     OW75367  13.590   5.025  10.083
91157SOL    HW175368  13.532   5.018  10.007
91157SOL    HW275369  13.668   4.973  10.059
91158SOL     OW75370   4.665   1.540   0.728
91158SOL    HW175371   4.688   1.627   0.696
91158SOL    HW275372   4.705   1.536   0.816
91159SOL     OW75373   4.732   0.682  14.123
91159SOL    HW175374   4.810   0.723  14.161
91159SOL    HW275375   4.738   0.701  14.029
91160SOL     OW75376   4.603   5.226   2.597
91160SOL    HW175377   4.533   5.245   2.536
91160SOL    HW275378   4.680   5.269   2.560
91161SOL     OW75379   2.953   9.633   6.201
91161SOL    HW175380   2.976   9.678   6.119
91161SOL    HW275381   2.981   9.693   6.270
91162SOL     OW75382   7.190  13.528  10.772
91162SOL    HW175383   7.196  13.615  10.732
91162SOL    HW275384   7.244  13.535  10.851
91163SOL     OW75385  11.802  12.552  11.039
91163SOL    HW175386  11.878  12.608  11.053
91163SOL    HW275387  11.816  12.477  11.096
91164SOL     OW75388   2.119   3.797  12.446
91164SOL    HW175389   2.133   3.871  12.387
91164SOL    HW275390   2.143   3.720  12.394
91165SOL     OW75391   7.599  10.950  12.239
91165SOL    HW175392   7.504  10.961  12.235
91165SOL    HW275393   7.616  10.922  12.329
91166SOL     OW75394   7.189   4.026   1.849
91166SOL    HW175395   7.119   3.962   1.857
91166SOL    HW275396   7.252   3.986   1.789
91167SOL     OW75397   6.254  11.053  10.744
91167SOL    HW175398   6.180  11.076  10.801
91167SOL    HW275399   6.213  11.014  10.667
91168SOL     OW75400   7.842   1.867   8.799
91168SOL    HW175401   7.872   1.888   8.711
91168SOL    HW275402   7.884   1.783   8.820
91169SOL     OW75403   1.588   8.206  10.864
91169SOL    HW175404   1.661   8.146  10.845
91169SOL    HW275405   1.629   8.280  10.909
91170SOL     OW75406   5.182   6.181  14.242
91170SOL    HW175407   5.226   6.198  14.159
91170SOL    HW275408   5.237   6.114  14.284
91171SOL     OW75409  10.219   5.930  12.092
91171SOL    HW175410  10.265   6.008  12.062
91171SOL    HW275411  10.140   5.926  12.038
91172SOL     OW75412   8.573   1.397   8.439
91172SOL    HW175413   8.624   1.333   8.390
91172SOL    HW275414   8.551   1.353   8.521
91173SOL     OW75415   8.643   5.505   1.827
91173SOL    HW175416   8.640   5.598   1.851
91173SOL    HW275417   8.642   5.505   1.731
91174SOL     OW75418  12.132  12.750  13.340
91174SOL    HW175419  12.128  12.837  13.379
91174SOL    HW275420  12.058  12.703  13.379
91175SOL     OW75421   1.773   7.869   4.496
91175SOL    HW175422   1.770   7.963   4.512
91175SOL    HW275423   1.807   7.861   4.407
91176SOL     OW75424   8.880   3.036  10.064
91176SOL    HW175425   8.956   3.010  10.013
91176SOL    HW275426   8.811   2.975  10.037
91177SOL     OW75427  13.726  10.715  12.304
91177SOL    HW175428  13.662  10.700  12.373
91177SOL    HW275429  13.741  10.628  12.266
91178SOL     OW75430  12.680  12.987  13.504
91178SOL    HW175431  12.719  13.029  13.426
91178SOL    HW275432  12.598  12.950  13.472
91179SOL     OW75433   1.637  11.556   6.388
91179SOL    HW175434   1.606  11.598   6.309
91179SOL    HW275435   1.558  11.529   6.435
91180SOL     OW75436  14.652   3.073  11.659
91180SOL    HW175437  14.628   3.121  11.580
91180SOL    HW275438  14.732   3.115  11.690
91181SOL     OW75439   1.107   1.578  13.721
91181SOL    HW175440   1.019   1.616  13.719
91181SOL    HW275441   1.164   1.648  13.689
91182SOL     OW75442   2.323   5.112   0.746
91182SOL    HW175443   2.273   5.191   0.728
91182SOL    HW275444   2.372   5.095   0.666
91183SOL     OW75445  11.834   2.613  11.410
91183SOL    HW175446  11.804   2.577  11.327
91183SOL    HW275447  11.812   2.545  11.475
91184SOL     OW75448   2.220   2.641   4.157
91184SOL    HW175449   2.260   2.611   4.075
91184SOL    HW275450   2.170   2.719   4.132
91185SOL     OW75451  14.293   8.392   5.733
91185SOL    HW175452  14.209   8.374   5.775
91185SOL    HW275453  14.316   8.310   5.689
91186SOL     OW75454   7.672   4.598  12.546
91186SOL    HW175455   7.728   4.523  12.527
91186SOL    HW275456   7.709   4.669  12.495
91187SOL     OW75457  14.687   0.396   3.862
91187SOL    HW175458  14.708   0.482   3.898
91187SOL    HW275459  14.714   0.400   3.770
91188SOL     OW75460  14.407   2.973   3.586
91188SOL    HW175461  14.410   3.066   3.563
91188SOL    HW275462  14.323   2.962   3.630
91189SOL     OW75463   8.780  11.330   8.308
91189SOL    HW175464   8.835  11.339   8.386
91189SOL    HW275465   8.744  11.241   8.315
91190SOL     OW75466   8.922  10.263   2.629
91190SOL    HW175467   8.987  10.209   2.584
91190SOL    HW275468   8.865  10.296   2.559
91191SOL     OW75469   7.439  11.837   5.715
91191SOL    HW175470   7.447  11.865   5.806
91191SOL    HW275471   7.364  11.778   5.714
91192SOL     OW75472  11.267   9.391   9.505
91192SOL    HW175473  11.197   9.451   9.532
91192SOL    HW275474  11.332   9.398   9.575
91193SOL     OW75475   5.160   4.279   1.930
91193SOL    HW175476   5.232   4.243   1.877
91193SOL    HW275477   5.177   4.373   1.933
91194SOL     OW75478   6.180   0.031   6.939
91194SOL    HW175479   6.102   0.012   6.990
91194SOL    HW275480   6.163   0.116   6.899
91195SOL     OW75481   8.748  14.272  13.917
91195SOL    HW175482   8.802  14.207  13.872
91195SOL    HW275483   8.672  14.284  13.860
91196SOL     OW75484  10.214  13.760   2.106
91196SOL    HW175485  10.169  13.826   2.053
91196SOL    HW275486  10.293  13.805   2.137
91197SOL     OW75487   8.442   6.841  13.833
91197SOL    HW175488   8.448   6.832  13.928
91197SOL    HW275489   8.356   6.805  13.811
91198SOL     OW75490   4.509   3.666   3.872
91198SOL    HW175491   4.500   3.706   3.785
91198SOL    HW275492   4.577   3.600   3.861
91199SOL     OW75493   1.857   8.303   5.092
91199SOL    HW175494   1.903   8.304   5.008
91199SOL    HW275495   1.792   8.373   5.085
91200SOL     OW75496   5.891   0.509  10.879
91200SOL    HW175497   5.817   0.557  10.915
91200SOL    HW275498   5.862   0.484  10.791
91201SOL     OW75499   1.398   6.217   8.407
91201SOL    HW175500   1.366   6.127   8.394
91201SOL    HW275501   1.493   6.208   8.414
91202SOL     OW75502   6.160  13.192   6.428
91202SOL    HW175503   6.148  13.234   6.513
91202SOL    HW275504   6.205  13.257   6.374
91203SOL     OW75505   1.063   3.245   1.230
91203SOL    HW175506   1.006   3.321   1.243
91203SOL    HW275507   1.049   3.219   1.138
91204SOL     OW75508   9.768  10.330   3.221
91204SOL    HW175509   9.687  10.278   3.228
91204SOL    HW275510   9.775  10.351   3.128
91205SOL     OW75511   5.515   8.114   4.180
91205SOL    HW175512   5.463   8.039   4.209
91205SOL    HW275513   5.604   8.080   4.172
91206SOL     OW75514   3.898   5.511   6.259
91206SOL    HW175515   3.979   5.545   6.220
91206SOL    HW275516   3.874   5.436   6.205
91207SOL     OW75517   4.484  13.253   6.128
91207SOL    HW175518   4.466  13.286   6.040
91207SOL    HW275519   4.557  13.192   6.116
91208SOL     OW75520   3.143  11.993  10.070
91208SOL    HW175521   3.187  11.911  10.050
91208SOL    HW275522   3.067  11.994  10.012
91209SOL     OW75523   0.125   7.475   3.584
91209SOL    HW175524   0.135   7.525   3.666
91209SOL    HW275525   0.214   7.469   3.549
91210SOL     OW75526  11.253   4.932  11.766
91210SOL    HW175527  11.347   4.928  11.753
91210SOL    HW275528  11.240   4.911  11.858
91211SOL     OW75529   5.499   6.229   7.497
91211SOL    HW175530   5.537   6.233   7.585
91211SOL    HW275531   5.568   6.189   7.444
91212SOL     OW75532  14.360   7.845  14.116
91212SOL    HW175533  14.324   7.922  14.073
91212SOL    HW275534  14.424   7.880  14.178
91213SOL     OW75535   0.941   2.294   2.591
91213SOL    HW175536   0.965   2.221   2.534
91213SOL    HW275537   0.845   2.295   2.590
91214SOL     OW75538   2.726   3.670   2.638
91214SOL    HW175539   2.758   3.746   2.590
91214SOL    HW275540   2.797   3.607   2.634
91215SOL     OW75541  10.171  10.606   9.479
91215SOL    HW175542  10.114  10.529   9.489
91215SOL    HW275543  10.259  10.573   9.495
91216SOL     OW75544  13.244   9.087  13.719
91216SOL    HW175545  13.331   9.054  13.695
91216SOL    HW275546  13.243   9.178  13.690
91217SOL     OW75547  14.178   7.300   9.142
91217SOL    HW175548  14.139   7.385   9.121
91217SOL    HW275549  14.188   7.256   9.058
91218SOL     OW75550   8.952   6.717   5.590
91218SOL    HW175551   8.964   6.783   5.658
91218SOL    HW275552   9.041   6.688   5.570
91219SOL     OW75553  10.867  11.843   4.890
91219SOL    HW175554  10.893  11.884   4.807
91219SOL    HW275555  10.949  11.818   4.932
91220SOL     OW75556   9.553   2.580   6.278
91220SOL    HW175557   9.636   2.571   6.326
91220SOL    HW275558   9.486   2.573   6.346
91221SOL     OW75559   8.019   8.293   9.461
91221SOL    HW175560   8.070   8.341   9.396
91221SOL    HW275561   8.044   8.202   9.449
91222SOL     OW75562  13.710   1.653   2.320
91222SOL    HW175563  13.761   1.677   2.243
91222SOL    HW275564  13.758   1.692   2.393
91223SOL     OW75565  10.415   5.867  10.918
91223SOL    HW175566  10.428   5.903  10.831
91223SOL    HW275567  10.324   5.890  10.940
91224SOL     OW75568  11.732   8.925  13.065
91224SOL    HW175569  11.662   8.987  13.085
91224SOL    HW275570  11.800   8.978  13.023
91225SOL     OW75571  12.823   7.321   4.081
91225SOL    HW175572  12.893   7.349   4.022
91225SOL    HW275573  12.746   7.312   4.025
91226SOL     OW75574   4.895   1.617   4.326
91226SOL    HW175575   4.803   1.634   4.344
91226SOL    HW275576   4.937   1.614   4.412
91227SOL     OW75577  13.591  14.204   4.241
91227SOL    HW175578  13.516  14.188   4.183
91227SOL    HW275579  13.640  14.274   4.199
91228SOL     OW75580  13.048   3.302   4.132
91228SOL    HW175581  13.142   3.310   4.113
91228SOL    HW275582  13.013   3.259   4.053
91229SOL     OW75583   2.715  12.213  14.673
91229SOL    HW175584   2.726  12.164  14.755
91229SOL    HW275585   2.704  12.145  14.606
91230SOL     OW75586   3.187   8.633   7.001
91230SOL    HW175587   3.174   8.634   6.906
91230SOL    HW275588   3.175   8.542   7.026
91231SOL     OW75589  11.666   7.945   1.913
91231SOL    HW175590  11.722   7.990   1.849
91231SOL    HW275591  11.677   7.852   1.894
91232SOL     OW75592   6.550   9.737  13.165
91232SOL    HW175593   6.497   9.742  13.244
91232SOL    HW275594   6.583   9.825  13.152
91233SOL     OW75595   1.054   6.753   0.913
91233SOL    HW175596   1.098   6.729   0.831
91233SOL    HW275597   1.051   6.848   0.912
91234SOL     OW75598   6.689   1.368  11.362
91234SOL    HW175599   6.700   1.440  11.300
91234SOL    HW275600   6.759   1.306  11.341
91235SOL     OW75601  10.287   0.375  10.392
91235SOL    HW175602  10.374   0.347  10.421
91235SOL    HW275603  10.235   0.294  10.390
91236SOL     OW75604  11.374   5.310   3.459
91236SOL    HW175605  11.435   5.236   3.460
91236SOL    HW275606  11.379   5.347   3.547
91237SOL     OW75607   1.786   5.596   3.836
91237SOL    HW175608   1.867   5.546   3.834
91237SOL    HW275609   1.793   5.655   3.761
91238SOL     OW75610   8.230   7.497  12.429
91238SOL    HW175611   8.253   7.546  12.508
91238SOL    HW275612   8.208   7.410  12.459
91239SOL     OW75613   7.569   6.747  12.153
91239SOL    HW175614   7.500   6.682  12.142
91239SOL    HW275615   7.522   6.827  12.180
91240SOL     OW75616  14.260   2.112   8.253
91240SOL    HW175617  14.297   2.039   8.303
91240SOL    HW275618  14.208   2.160   8.317
91241SOL     OW75619   2.862   3.582   5.866
91241SOL    HW175620   2.939   3.570   5.922
91241SOL    HW275621   2.894   3.565   5.778
91242SOL     OW75622  10.001   3.325   9.896
91242SOL    HW175623   9.933   3.389   9.917
91242SOL    HW275624  10.054   3.320   9.976
91243SOL     OW75625   6.778   1.455   2.775
91243SOL    HW175626   6.817   1.403   2.705
91243SOL    HW275627   6.730   1.391   2.828
91244SOL     OW75628   7.980   3.248  12.907
91244SOL    HW175629   8.055   3.223  12.855
91244SOL    HW275630   7.960   3.337  12.880
91245SOL     OW75631   6.051   4.535   1.623
91245SOL    HW175632   6.030   4.559   1.714
91245SOL    HW275633   5.989   4.465   1.602
91246SOL     OW75634  11.918   6.997   1.323
91246SOL    HW175635  11.953   7.082   1.349
91246SOL    HW275636  11.835   7.017   1.281
91247SOL     OW75637   7.593   0.671   7.886
91247SOL    HW175638   7.605   0.734   7.957
91247SOL    HW275639   7.585   0.725   7.807
91248SOL     OW75640   9.137   9.050   0.318
91248SOL    HW175641   9.232   9.055   0.324
91248SOL    HW275642   9.112   9.125   0.263
91249SOL     OW75643   9.207  12.860   9.070
91249SOL    HW175644   9.195  12.916   9.147
91249SOL    HW275645   9.156  12.902   9.002
91250SOL     OW75646   3.486   1.416   1.039
91250SOL    HW175647   3.393   1.411   1.015
91250SOL    HW275648   3.533   1.402   0.956
91251SOL     OW75649   7.132   8.401   1.567
91251SOL    HW175650   7.132   8.343   1.643
91251SOL    HW275651   7.221   8.435   1.562
91252SOL     OW75652   5.562   7.183  12.860
91252SOL    HW175653   5.506   7.236  12.804
91252SOL    HW275654   5.616   7.132  12.800
91253SOL     OW75655  13.092  11.944   3.839
91253SOL    HW175656  13.023  11.935   3.774
91253SOL    HW275657  13.049  11.983   3.915
91254SOL     OW75658   1.338   2.114   7.422
91254SOL    HW175659   1.432   2.121   7.438
91254SOL    HW275660   1.302   2.194   7.460
91255SOL     OW75661   5.645   5.778   7.830
91255SOL    HW175662   5.712   5.711   7.842
91255SOL    HW275663   5.693   5.853   7.795
91256SOL     OW75664  12.109   4.342  12.588
91256SOL    HW175665  12.162   4.409  12.543
91256SOL    HW275666  12.021   4.379  12.591
91257SOL     OW75667  11.716  12.785   6.653
91257SOL    HW175668  11.640  12.829   6.691
91257SOL    HW275669  11.682  12.744   6.573
91258SOL     OW75670  11.741   3.078   4.631
91258SOL    HW175671  11.723   3.057   4.539
91258SOL    HW275672  11.829   3.046   4.646
91259SOL     OW75673  12.248   9.491   3.412
91259SOL    HW175674  12.233   9.415   3.469
91259SOL    HW275675  12.307   9.459   3.344
91260SOL     OW75676  14.243   1.080   1.587
91260SOL    HW175677  14.150   1.092   1.570
91260SOL    HW275678  14.248   1.002   1.642
91261SOL     OW75679   5.513  10.287  14.694
91261SOL    HW175680   5.481  10.359  14.748
91261SOL    HW275681   5.557  10.228  14.755
91262SOL     OW75682   4.713  11.957   1.526
91262SOL    HW175683   4.739  11.866   1.539
91262SOL    HW275684   4.784  11.996   1.476
91263SOL     OW75685   9.786   9.765   1.156
91263SOL    HW175686   9.753   9.807   1.077
91263SOL    HW275687   9.871   9.730   1.131
91264SOL     OW75688   2.369   6.280   5.878
91264SOL    HW175689   2.426   6.345   5.837
91264SOL    HW275690   2.416   6.197   5.869
91265SOL     OW75691   8.899   3.795   1.489
91265SOL    HW175692   8.969   3.729   1.490
91265SOL    HW275693   8.898   3.829   1.579
91266SOL     OW75694   1.679   4.505   0.133
91266SOL    HW175695   1.756   4.458   0.163
91266SOL    HW275696   1.706   4.549   0.053
91267SOL     OW75697   4.209  14.823   1.852
91267SOL    HW175698   4.144   0.004   1.815
91267SOL    HW275699   4.283  14.878   1.876
91268SOL     OW75700   8.543   9.612   3.593
91268SOL    HW175701   8.579   9.541   3.540
91268SOL    HW275702   8.448   9.604   3.582
91269SOL     OW75703   3.721   3.125  12.361
91269SOL    HW175704   3.711   3.213  12.398
91269SOL    HW275705   3.812   3.102  12.377
91270SOL     OW75706  14.270  10.505   6.653
91270SOL    HW175707  14.232  10.418   6.639
91270SOL    HW275708  14.259  10.549   6.568
91271SOL     OW75709  10.156   7.630   5.289
91271SOL    HW175710  10.068   7.642   5.253
91271SOL    HW275711  10.205   7.588   5.218
91272SOL     OW75712   7.742   5.225   1.249
91272SOL    HW175713   7.755   5.256   1.159
91272SOL    HW275714   7.790   5.288   1.303
91273SOL     OW75715   3.410   8.609  13.814
91273SOL    HW175716   3.409   8.555  13.892
91273SOL    HW275717   3.479   8.572  13.759
91274SOL     OW75718   6.961  14.380   5.422
91274SOL    HW175719   6.955  14.457   5.365
91274SOL    HW275720   7.039  14.334   5.390
91275SOL     OW75721   6.042   4.339   3.978
91275SOL    HW175722   6.099   4.314   4.051
91275SOL    HW275723   5.993   4.414   4.010
91276SOL     OW75724   9.221   7.734   3.617
91276SOL    HW175725   9.316   7.727   3.613
91276SOL    HW275726   9.189   7.675   3.548
91277SOL     OW75727   7.379   2.644   0.260
91277SOL    HW175728   7.363   2.567   0.205
91277SOL    HW275729   7.339   2.622   0.344
91278SOL     OW75730   4.904   4.738   4.314
91278SOL    HW175731   4.990   4.697   4.313
91278SOL    HW275732   4.848   4.677   4.266
91279SOL     OW75733  12.487  14.383   4.198
91279SOL    HW175734  12.401  14.358   4.164
91279SOL    HW275735  12.487  14.479   4.194
91280SOL     OW75736   4.315  14.191   0.291
91280SOL    HW175737   4.350  14.280   0.292
91280SOL    HW275738   4.255  14.189   0.217
91281SOL     OW75739   1.676  14.566   8.215
91281SOL    HW175740   1.695  14.495   8.276
91281SOL    HW275741   1.762  14.596   8.185
91282SOL     OW75742  14.264   3.225   0.400
91282SOL    HW175743  14.222   3.161   0.457
91282SOL    HW275744  14.330   3.267   0.456
91283SOL     OW75745  14.537   8.611   5.639
91283SOL    HW175746  14.569   8.529   5.678
91283SOL    HW275747  14.456   8.586   5.595
91284SOL     OW75748  13.112  13.169   6.527
91284SOL    HW175749  13.082  13.213   6.607
91284SOL    HW275750  13.204  13.150   6.543
91285SOL     OW75751   9.505  12.290  12.191
91285SOL    HW175752   9.448  12.355  12.233
91285SOL    HW275753   9.550  12.247  12.263
91286SOL     OW75754   1.832   0.500   6.327
91286SOL    HW175755   1.746   0.473   6.359
91286SOL    HW275756   1.862   0.565   6.390
91287SOL     OW75757  10.016  12.351  12.954
91287SOL    HW175758  10.006  12.440  12.919
91287SOL    HW275759   9.980  12.295  12.885
91288SOL     OW75760   8.616  11.863   6.247
91288SOL    HW175761   8.692  11.900   6.293
91288SOL    HW275762   8.652  11.792   6.193
91289SOL     OW75763   6.145   8.666   7.873
91289SOL    HW175764   6.183   8.622   7.949
91289SOL    HW275765   6.056   8.633   7.868
91290SOL     OW75766   8.974  13.614   9.056
91290SOL    HW175767   8.898  13.582   9.105
91290SOL    HW275768   8.974  13.708   9.069
91291SOL     OW75769   7.550   0.982  10.793
91291SOL    HW175770   7.567   0.974  10.886
91291SOL    HW275771   7.628   1.025  10.757
91292SOL     OW75772   0.870   9.409   7.614
91292SOL    HW175773   0.960   9.424   7.644
91292SOL    HW275774   0.869   9.446   7.525
91293SOL     OW75775   1.475   7.050   3.085
91293SOL    HW175776   1.530   7.098   3.148
91293SOL    HW275777   1.419   6.995   3.140
91294SOL     OW75778   1.377  12.823   8.680
91294SOL    HW175779   1.326  12.840   8.760
91294SOL    HW275780   1.374  12.905   8.632
91295SOL     OW75781   7.320   8.534   2.839
91295SOL    HW175782   7.312   8.469   2.769
91295SOL    HW275783   7.240   8.586   2.833
91296SOL     OW75784   2.372  10.950   7.519
91296SOL    HW175785   2.320  10.966   7.597
91296SOL    HW275786   2.308  10.939   7.449
91297SOL     OW75787   2.915   1.690   6.245
91297SOL    HW175788   2.944   1.663   6.332
91297SOL    HW275789   2.937   1.784   6.241
91298SOL     OW75790   0.789  11.557  13.324
91298SOL    HW175791   0.865  11.507  13.294
91298SOL    HW275792   0.782  11.630  13.262
91299SOL     OW75793   3.531   9.044  10.429
91299SOL    HW175794   3.475   8.967  10.436
91299SOL    HW275795   3.619   9.011  10.446
91300SOL     OW75796   8.802  11.465   5.086
91300SOL    HW175797   8.817  11.528   5.015
91300SOL    HW275798   8.841  11.384   5.054
91301SOL     OW75799   7.368   5.830   8.892
91301SOL    HW175800   7.352   5.897   8.826
91301SOL    HW275801   7.296   5.768   8.881
91302SOL     OW75802   0.980   4.486   2.332
91302SOL    HW175803   0.898   4.445   2.306
91302SOL    HW275804   0.984   4.567   2.281
91303SOL     OW75805   6.014  12.807   7.053
91303SOL    HW175806   5.980  12.718   7.060
91303SOL    HW275807   6.080  12.812   7.123
91304SOL     OW75808   4.514  13.193   7.404
91304SOL    HW175809   4.425  13.194   7.369
91304SOL    HW275810   4.505  13.224   7.494
91305SOL     OW75811   1.476  10.511  13.442
91305SOL    HW175812   1.417  10.482  13.373
91305SOL    HW275813   1.506  10.429  13.483
91306SOL     OW75814  12.814   9.943   0.988
91306SOL    HW175815  12.820  10.035   0.965
91306SOL    HW275816  12.904   9.919   1.014
91307SOL     OW75817   8.740  12.435   1.115
91307SOL    HW175818   8.700  12.487   1.046
91307SOL    HW275819   8.834  12.448   1.103
91308SOL     OW75820   0.469   7.097   6.375
91308SOL    HW175821   0.415   7.113   6.297
91308SOL    HW275822   0.492   7.185   6.406
91309SOL     OW75823  13.824  14.086  14.153
91309SOL    HW175824  13.909  14.063  14.114
91309SOL    HW275825  13.846  14.118  14.240
91310SOL     OW75826   4.052   8.466   2.852
91310SOL    HW175827   4.117   8.428   2.793
91310SOL    HW275828   4.039   8.400   2.920
91311SOL     OW75829   6.836  13.038   5.037
91311SOL    HW175830   6.817  13.124   5.000
91311SOL    HW275831   6.750  12.998   5.049
91312SOL     OW75832  14.645   0.852   5.902
91312SOL    HW175833  14.683   0.807   5.978
91312SOL    HW275834  14.707   0.835   5.831
91313SOL     OW75835   0.230   9.221   6.287
91313SOL    HW175836   0.191   9.246   6.203
91313SOL    HW275837   0.241   9.303   6.334
91314SOL     OW75838   6.980   1.508   0.302
91314SOL    HW175839   6.998   1.468   0.387
91314SOL    HW275840   7.009   1.443   0.238
91315SOL     OW75841   4.186   0.915  11.208
91315SOL    HW175842   4.107   0.968  11.198
91315SOL    HW275843   4.246   0.972  11.256
91316SOL     OW75844   9.563   3.483  11.134
91316SOL    HW175845   9.585   3.526  11.216
91316SOL    HW275846   9.588   3.546  11.066
91317SOL     OW75847   9.604  11.270   4.765
91317SOL    HW175848   9.566  11.237   4.846
91317SOL    HW275849   9.664  11.201   4.737
91318SOL     OW75850   4.643   3.147   2.116
91318SOL    HW175851   4.668   3.055   2.116
91318SOL    HW275852   4.721   3.193   2.084
91319SOL     OW75853  14.032  13.526  10.580
91319SOL    HW175854  14.038  13.431  10.591
91319SOL    HW275855  14.030  13.560  10.670
91320SOL     OW75856   3.927  10.812   1.484
91320SOL    HW175857   4.013  10.854   1.484
91320SOL    HW275858   3.874  10.866   1.541
91321SOL     OW75859   8.645  12.707  14.464
91321SOL    HW175860   8.669  12.615  14.478
91321SOL    HW275861   8.550  12.707  14.467
91322SOL     OW75862   7.206  14.135  12.351
91322SOL    HW175863   7.211  14.088  12.434
91322SOL    HW275864   7.127  14.189  12.360
91323SOL     OW75865  13.339  14.368   7.378
91323SOL    HW175866  13.333  14.298   7.313
91323SOL    HW275867  13.428  14.362   7.412
91324SOL     OW75868   7.442   3.011  12.827
91324SOL    HW175869   7.361   2.961  12.831
91324SOL    HW275870   7.492   2.981  12.903
91325SOL     OW75871   0.786   8.873   4.184
91325SOL    HW175872   0.877   8.846   4.195
91325SOL    HW275873   0.762   8.910   4.268
91326SOL     OW75874   0.250   3.370   8.464
91326SOL    HW175875   0.294   3.455   8.460
91326SOL    HW275876   0.238   3.346   8.372
91327SOL     OW75877   4.167  11.880  10.600
91327SOL    HW175878   4.104  11.894  10.529
91327SOL    HW275879   4.246  11.848  10.557
91328SOL     OW75880   2.574  10.644   9.977
91328SOL    HW175881   2.558  10.722   9.924
91328SOL    HW275882   2.489  10.622  10.015
91329SOL     OW75883   3.599  10.364   2.138
91329SOL    HW175884   3.544  10.396   2.209
91329SOL    HW275885   3.609  10.439   2.080
91330SOL     OW75886  10.961   0.545   9.570
91330SOL    HW175887  11.032   0.505   9.518
91330SOL    HW275888  10.962   0.637   9.545
91331SOL     OW75889  13.383   8.760  11.033
91331SOL    HW175890  13.378   8.794  10.943
91331SOL    HW275891  13.295   8.729  11.052
91332SOL     OW75892  11.761   5.370  14.565
91332SOL    HW175893  11.691   5.434  14.555
91332SOL    HW275894  11.777   5.365  14.659
91333SOL     OW75895  11.877  11.658   7.503
91333SOL    HW175896  11.943  11.606   7.549
91333SOL    HW275897  11.793  11.625   7.536
91334SOL     OW75898   1.656   3.696   9.870
91334SOL    HW175899   1.578   3.671   9.821
91334SOL    HW275900   1.691   3.613   9.903
91335SOL     OW75901   9.538  14.008  11.490
91335SOL    HW175902   9.451  13.984  11.523
91335SOL    HW275903   9.599  13.969  11.553
91336SOL     OW75904   1.718   3.729   1.785
91336SOL    HW175905   1.763   3.646   1.798
91336SOL    HW275906   1.697   3.732   1.692
91337SOL     OW75907   4.181   7.608   1.396
91337SOL    HW175908   4.114   7.624   1.462
91337SOL    HW275909   4.256   7.661   1.425
91338SOL     OW75910   9.729   7.570   1.829
91338SOL    HW175911   9.679   7.587   1.908
91338SOL    HW275912   9.787   7.646   1.820
91339SOL     OW75913   7.534   4.216  11.848
91339SOL    HW175914   7.608   4.166  11.814
91339SOL    HW275915   7.458   4.176  11.805
91340SOL     OW75916   3.702   8.284  13.625
91340SOL    HW175917   3.741   8.197  13.612
91340SOL    HW275918   3.778   8.343  13.630
91341SOL     OW75919   0.219   1.263   9.441
91341SOL    HW175920   0.309   1.244   9.416
91341SOL    HW275921   0.186   1.319   9.371
91342SOL     OW75922  11.622   2.639   7.454
91342SOL    HW175923  11.703   2.663   7.498
91342SOL    HW275924  11.632   2.674   7.365
91343SOL     OW75925  14.291   9.647  12.719
91343SOL    HW175926  14.197   9.632  12.719
91343SOL    HW275927  14.305   9.715  12.652
91344SOL     OW75928   1.904   6.000   7.890
91344SOL    HW175929   1.909   5.983   7.796
91344SOL    HW275930   1.811   5.989   7.911
91345SOL     OW75931   6.820   0.872   9.455
91345SOL    HW175932   6.880   0.942   9.429
91345SOL    HW275933   6.753   0.870   9.387
91346SOL     OW75934   6.943  12.001   8.979
91346SOL    HW175935   6.925  11.916   8.940
91346SOL    HW275936   6.991  11.981   9.059
91347SOL     OW75937  13.514   2.014  10.689
91347SOL    HW175938  13.582   2.081  10.686
91347SOL    HW275939  13.497   1.992  10.597
91348SOL     OW75940   2.249   7.000   0.246
91348SOL    HW175941   2.207   6.998   0.332
91348SOL    HW275942   2.178   7.018   0.184
91349SOL     OW75943   3.278   1.547  10.492
91349SOL    HW175944   3.242   1.598  10.420
91349SOL    HW275945   3.233   1.579  10.569
91350SOL     OW75946   9.316   5.676  11.172
91350SOL    HW175947   9.221   5.673  11.170
91350SOL    HW275948   9.342   5.693  11.081
91351SOL     OW75949   8.904  10.274   2.045
91351SOL    HW175950   8.880  10.366   2.040
91351SOL    HW275951   8.920  10.257   2.138
91352SOL     OW75952   2.069   2.929  11.021
91352SOL    HW175953   2.055   2.961  10.932
91352SOL    HW275954   2.095   2.838  11.010
91353SOL     OW75955   4.903   3.514   6.188
91353SOL    HW175956   4.922   3.596   6.143
91353SOL    HW275957   4.945   3.523   6.273
91354SOL     OW75958   6.215   6.986   9.471
91354SOL    HW175959   6.125   6.955   9.484
91354SOL    HW275960   6.206   7.059   9.410
91355SOL     OW75961   0.906  10.040   6.815
91355SOL    HW175962   0.955  10.084   6.746
91355SOL    HW275963   0.857   9.971   6.770
91356SOL     OW75964  14.087   4.924   2.008
91356SOL    HW175965  14.021   4.875   2.057
91356SOL    HW275966  14.065   4.909   1.916
91357SOL     OW75967   8.320   9.409  13.067
91357SOL    HW175968   8.333   9.500  13.042
91357SOL    HW275969   8.237   9.384  13.026
91358SOL     OW75970   3.207   5.461   4.483
91358SOL    HW175971   3.282   5.402   4.472
91358SOL    HW275972   3.137   5.420   4.432
91359SOL     OW75973   2.104  13.362   4.290
91359SOL    HW175974   2.022  13.401   4.261
91359SOL    HW275975   2.118  13.289   4.229
91360SOL     OW75976   6.101   6.924   3.475
91360SOL    HW175977   6.105   6.847   3.418
91360SOL    HW275978   6.184   6.968   3.462
91361SOL     OW75979   5.647   8.844  14.731
91361SOL    HW175980   5.654   8.816  14.823
91361SOL    HW275981   5.717   8.797  14.686
91362SOL     OW75982   7.717   1.467   7.458
91362SOL    HW175983   7.646   1.509   7.408
91362SOL    HW275984   7.726   1.522   7.536
91363SOL     OW75985   7.954   9.592   6.079
91363SOL    HW175986   7.932   9.640   6.159
91363SOL    HW275987   7.898   9.629   6.012
91364SOL     OW75988  10.546  13.203  13.148
91364SOL    HW175989  10.578  13.178  13.061
91364SOL    HW275990  10.514  13.292  13.137
91365SOL     OW75991   3.313   5.155   0.228
91365SOL    HW175992   3.340   5.214   0.158
91365SOL    HW275993   3.231   5.117   0.198
91366SOL     OW75994   2.757  13.250  10.958
91366SOL    HW175995   2.740  13.226  10.867
91366SOL    HW275996   2.682  13.216  11.006
91367SOL     OW75997   7.965   9.625   9.372
91367SOL    HW175998   7.954   9.537   9.407
91367SOL    HW275999   7.917   9.625   9.289
91368SOL     OW76000   5.929   6.384   0.636
91368SOL    HW176001   5.936   6.433   0.554
91368SOL    HW276002   5.835   6.368   0.646
91369SOL     OW76003   0.088  13.874   5.253
91369SOL    HW176004   0.033  13.894   5.178
91369SOL    HW276005   0.076  13.780   5.267
91370SOL     OW76006   8.155   1.431   1.684
91370SOL    HW176007   8.129   1.473   1.602
91370SOL    HW276008   8.080   1.442   1.742
91371SOL     OW76009   1.759   3.424   2.545
91371SOL    HW176010   1.823   3.401   2.613
91371SOL    HW276011   1.697   3.351   2.544
91372SOL     OW76012  10.059   7.419   3.475
91372SOL    HW176013  10.103   7.473   3.541
91372SOL    HW276014  10.002   7.481   3.429
91373SOL     OW76015   2.668   4.765   5.337
91373SOL    HW176016   2.711   4.749   5.253
91373SOL    HW276017   2.578   4.734   5.324
91374SOL     OW76018  11.638  12.703  10.038
91374SOL    HW176019  11.578  12.724  10.110
91374SOL    HW276020  11.581  12.691   9.962
91375SOL     OW76021   0.187   2.606   5.138
91375SOL    HW176022   0.098   2.578   5.114
91375SOL    HW276023   0.207   2.557   5.217
91376SOL     OW76024   4.296  12.293   5.650
91376SOL    HW176025   4.306  12.384   5.678
91376SOL    HW276026   4.213  12.292   5.602
91377SOL     OW76027   9.358   1.087   6.790
91377SOL    HW176028   9.387   0.996   6.786
91377SOL    HW276029   9.332   1.107   6.700
91378SOL     OW76030   4.375   1.699  12.065
91378SOL    HW176031   4.303   1.670  12.121
91378SOL    HW276032   4.418   1.618  12.037
91379SOL     OW76033   2.294   1.855   4.594
91379SOL    HW176034   2.264   1.823   4.679
91379SOL    HW276035   2.235   1.929   4.574
91380SOL     OW76036   3.721   1.665  11.012
91380SOL    HW176037   3.716   1.631  11.101
91380SOL    HW276038   3.716   1.587  10.956
91381SOL     OW76039   7.067  12.647  10.131
91381SOL    HW176040   7.138  12.661  10.195
91381SOL    HW276041   6.991  12.691  10.170
91382SOL     OW76042  11.116   8.474   6.295
91382SOL    HW176043  11.027   8.486   6.262
91382SOL    HW276044  11.106   8.417   6.371
91383SOL     OW76045  12.460   5.371   7.085
91383SOL    HW176046  12.480   5.277   7.087
91383SOL    HW276047  12.537   5.411   7.046
91384SOL     OW76048   3.869  13.286   4.953
91384SOL    HW176049   3.813  13.364   4.961
91384SOL    HW276050   3.874  13.251   5.042
91385SOL     OW76051  12.279  10.653   4.627
91385SOL    HW176052  12.322  10.729   4.665
91385SOL    HW276053  12.302  10.657   4.534
91386SOL     OW76054   8.298   5.268   7.297
91386SOL    HW176055   8.280   5.197   7.235
91386SOL    HW276056   8.393   5.281   7.290
91387SOL     OW76057   4.504  13.302   8.091
91387SOL    HW176058   4.512  13.396   8.108
91387SOL    HW276059   4.472  13.266   8.173
91388SOL     OW76060  13.758   1.251   9.171
91388SOL    HW176061  13.846   1.235   9.205
91388SOL    HW276062  13.761   1.220   9.080
91389SOL     OW76063   7.453   4.170   6.685
91389SOL    HW176064   7.359   4.166   6.704
91389SOL    HW276065   7.469   4.261   6.660
91390SOL     OW76066  11.621   3.271   5.193
91390SOL    HW176067  11.667   3.194   5.227
91390SOL    HW276068  11.681   3.308   5.128
91391SOL     OW76069   6.420   7.688  12.452
91391SOL    HW176070   6.462   7.742  12.385
91391SOL    HW276071   6.353   7.744  12.491
91392SOL     OW76072  12.218   4.902   6.554
91392SOL    HW176073  12.251   4.991   6.569
91392SOL    HW276074  12.285   4.861   6.500
91393SOL     OW76075   2.548   2.707  13.507
91393SOL    HW176076   2.461   2.729  13.473
91393SOL    HW276077   2.558   2.614  13.492
91394SOL     OW76078   6.147  10.076   8.213
91394SOL    HW176079   6.186   9.994   8.243
91394SOL    HW276080   6.215  10.115   8.158
91395SOL     OW76081   1.579   8.044   3.254
91395SOL    HW176082   1.492   8.020   3.287
91395SOL    HW276083   1.623   7.960   3.242
91396SOL     OW76084   9.222   0.861   2.993
91396SOL    HW176085   9.265   0.902   2.918
91396SOL    HW276086   9.150   0.811   2.954
91397SOL     OW76087   5.560   4.233  13.028
91397SOL    HW176088   5.645   4.204  13.061
91397SOL    HW276089   5.526   4.157  12.980
91398SOL     OW76090   2.485   0.825   5.181
91398SOL    HW176091   2.526   0.874   5.110
91398SOL    HW276092   2.393   0.819   5.157
91399SOL     OW76093   1.996   2.638  12.190
91399SOL    HW176094   1.937   2.694  12.139
91399SOL    HW276095   1.941   2.564  12.217
91400SOL     OW76096  11.874   0.874   6.463
91400SOL    HW176097  11.840   0.790   6.432
91400SOL    HW276098  11.796   0.929   6.474
91401SOL     OW76099  10.616   0.630   6.780
91401SOL    HW176100  10.545   0.647   6.720
91401SOL    HW276101  10.573   0.604   6.862
91402SOL     OW76102   9.275   9.892   5.916
91402SOL    HW176103   9.286   9.844   5.998
91402SOL    HW276104   9.334   9.848   5.855
91403SOL     OW76105  13.440   5.716   6.543
91403SOL    HW176106  13.424   5.662   6.620
91403SOL    HW276107  13.367   5.776   6.539
91404SOL     OW76108  10.962   1.860   0.633
91404SOL    HW176109  11.015   1.894   0.561
91404SOL    HW276110  10.914   1.936   0.666
91405SOL     OW76111   9.660   9.074  12.396
91405SOL    HW176112   9.725   9.020  12.442
91405SOL    HW276113   9.576   9.047  12.433
91406SOL     OW76114   5.452   6.321   0.167
91406SOL    HW176115   5.420   6.259   0.234
91406SOL    HW276116   5.454   6.270   0.086
91407SOL     OW76117   7.898   3.429   2.591
91407SOL    HW176118   7.942   3.343   2.585
91407SOL    HW276119   7.910   3.468   2.504
91408SOL     OW76120   7.801   5.501   4.804
91408SOL    HW176121   7.718   5.542   4.782
91408SOL    HW276122   7.866   5.546   4.751
91409SOL     OW76123   5.992  12.424   2.792
91409SOL    HW176124   5.969  12.467   2.710
91409SOL    HW276125   5.957  12.336   2.784
91410SOL     OW76126  11.557  12.884   5.827
91410SOL    HW176127  11.509  12.966   5.815
91410SOL    HW276128  11.642  12.910   5.861
91411SOL     OW76129   8.086   2.674   7.446
91411SOL    HW176130   7.991   2.672   7.437
91411SOL    HW276131   8.101   2.691   7.539
91412SOL     OW76132  10.792  13.134   6.208
91412SOL    HW176133  10.726  13.138   6.138
91412SOL    HW276134  10.871  13.102   6.165
91413SOL     OW76135   7.136   7.919   6.619
91413SOL    HW176136   7.129   8.012   6.600
91413SOL    HW276137   7.230   7.903   6.626
91414SOL     OW76138  13.669   0.156   8.898
91414SOL    HW176139  13.722   0.109   8.834
91414SOL    HW276140  13.682   0.248   8.877
91415SOL     OW76141   9.445   5.369   6.405
91415SOL    HW176142   9.509   5.301   6.428
91415SOL    HW276143   9.482   5.411   6.327
91416SOL     OW76144  12.839   6.400   0.114
91416SOL    HW176145  12.835   6.495   0.121
91416SOL    HW276146  12.869   6.371   0.200
91417SOL     OW76147   3.620  13.623   9.500
91417SOL    HW176148   3.556  13.560   9.532
91417SOL    HW276149   3.570  13.681   9.442
91418SOL     OW76150  13.397   3.425   2.911
91418SOL    HW176151  13.477   3.467   2.944
91418SOL    HW276152  13.411   3.331   2.928
91419SOL     OW76153  11.903   7.104   7.552
91419SOL    HW176154  11.955   7.024   7.562
91419SOL    HW276155  11.837   7.098   7.622
91420SOL     OW76156   2.455   6.165   5.179
91420SOL    HW176157   2.489   6.076   5.194
91420SOL    HW276158   2.533   6.221   5.178
91421SOL     OW76159   8.114  13.313   9.725
91421SOL    HW176160   8.137  13.404   9.709
91421SOL    HW276161   8.105  13.275   9.637
91422SOL     OW76162   4.776   6.508   1.546
91422SOL    HW176163   4.850   6.554   1.584
91422SOL    HW276164   4.720   6.577   1.510
91423SOL     OW76165   3.547   2.702   0.535
91423SOL    HW176166   3.527   2.609   0.530
91423SOL    HW276167   3.477   2.744   0.485
91424SOL     OW76168   3.765  12.788   3.377
91424SOL    HW176169   3.704  12.854   3.344
91424SOL    HW276170   3.832  12.838   3.423
91425SOL     OW76171  14.600   3.097   4.806
91425SOL    HW176172  14.634   3.164   4.746
91425SOL    HW276173  14.643   3.016   4.777
91426SOL     OW76174  14.758   8.355   2.424
91426SOL    HW176175  14.725   8.444   2.432
91426SOL    HW276176  14.834   8.352   2.481
91427SOL     OW76177  14.847  12.820   8.049
91427SOL    HW176178  14.762  12.782   8.025
91427SOL    HW276179   0.031  12.755   8.021
91428SOL     OW76180   8.806   6.992   6.609
91428SOL    HW176181   8.749   6.951   6.674
91428SOL    HW276182   8.753   7.062   6.571
91429SOL     OW76183   2.146   3.462   6.268
91429SOL    HW176184   2.110   3.445   6.355
91429SOL    HW276185   2.192   3.545   6.277
91430SOL     OW76186   2.369   8.942   4.568
91430SOL    HW176187   2.363   9.037   4.566
91430SOL    HW276188   2.434   8.920   4.502
91431SOL     OW76189   0.128  13.881  10.104
91431SOL    HW176190   0.177  13.916  10.030
91431SOL    HW276191   0.060  13.945  10.121
91432SOL     OW76192  11.300   9.327   0.617
91432SOL    HW176193  11.382   9.368   0.642
91432SOL    HW276194  11.250   9.397   0.574
91433SOL     OW76195  11.951  11.505  14.329
91433SOL    HW176196  11.885  11.570  14.303
91433SOL    HW276197  12.035  11.550  14.319
91434SOL     OW76198   2.314   6.834   6.225
91434SOL    HW176199   2.401   6.831   6.184
91434SOL    HW276200   2.329   6.810   6.316
91435SOL     OW76201   4.097   3.404  12.202
91435SOL    HW176202   4.054   3.344  12.142
91435SOL    HW276203   4.100   3.487  12.154
91436SOL     OW76204  13.541   9.758  13.128
91436SOL    HW176205  13.450   9.728  13.119
91436SOL    HW276206  13.555   9.767  13.222
91437SOL     OW76207  10.386   5.248   0.006
91437SOL    HW176208  10.446   5.236   0.080
91437SOL    HW276209  10.299   5.241   0.044
91438SOL     OW76210  14.376  12.239  13.407
91438SOL    HW176211  14.316  12.200  13.470
91438SOL    HW276212  14.423  12.165  13.370
91439SOL     OW76213   5.707   4.946   5.533
91439SOL    HW176214   5.784   4.900   5.499
91439SOL    HW276215   5.743   5.027   5.569
91440SOL     OW76216   8.288   2.329   9.701
91440SOL    HW176217   8.280   2.255   9.761
91440SOL    HW276218   8.206   2.377   9.710
91441SOL     OW76219  11.639   0.420   8.539
91441SOL    HW176220  11.709   0.484   8.522
91441SOL    HW276221  11.583   0.463   8.604
91442SOL     OW76222   7.807   1.924  12.822
91442SOL    HW176223   7.790   2.017  12.809
91442SOL    HW276224   7.738   1.894  12.881
91443SOL     OW76225  14.283   6.294  12.100
91443SOL    HW176226  14.271   6.201  12.079
91443SOL    HW276227  14.330   6.293  12.183
91444SOL     OW76228   4.608  10.916  11.227
91444SOL    HW176229   4.697  10.922  11.264
91444SOL    HW276230   4.601  10.826  11.196
91445SOL     OW76231  13.526   3.606   5.037
91445SOL    HW176232  13.549   3.683   4.986
91445SOL    HW276233  13.568   3.619   5.121
91446SOL     OW76234   1.200  14.548   3.840
91446SOL    HW176235   1.261  14.476   3.857
91446SOL    HW276236   1.139  14.513   3.775
91447SOL     OW76237  11.892   6.060   0.923
91447SOL    HW176238  11.819   6.087   0.866
91447SOL    HW276239  11.958   6.129   0.911
91448SOL     OW76240  14.124  13.363  11.610
91448SOL    HW176241  14.211  13.386  11.640
91448SOL    HW276242  14.138  13.318  11.526
91449SOL     OW76243  11.697  10.623   1.409
91449SOL    HW176244  11.740  10.688   1.354
91449SOL    HW276245  11.663  10.673   1.483
91450SOL     OW76246   9.331   5.457   3.574
91450SOL    HW176247   9.337   5.447   3.669
91450SOL    HW276248   9.241   5.488   3.559
91451SOL     OW76249   3.056  10.076   0.057
91451SOL    HW176250   3.052  10.077  14.841
91451SOL    HW276251   3.143  10.040   0.077
91452SOL     OW76252   5.294  11.595  12.341
91452SOL    HW176253   5.201  11.594  12.362
91452SOL    HW276254   5.337  11.616  12.425
91453SOL     OW76255  14.485   2.048  12.611
91453SOL    HW176256  14.441   2.045  12.696
91453SOL    HW276257  14.498   1.956  12.588
91454SOL     OW76258   5.391   3.840   8.175
91454SOL    HW176259   5.428   3.808   8.257
91454SOL    HW276260   5.463   3.890   8.135
91455SOL     OW76261  10.438   7.090   8.888
91455SOL    HW176262  10.362   7.123   8.936
91455SOL    HW276263  10.422   7.115   8.797
91456SOL     OW76264   0.512   3.333   1.699
91456SOL    HW176265   0.467   3.396   1.642
91456SOL    HW276266   0.572   3.287   1.641
91457SOL     OW76267   9.225  11.491   3.918
91457SOL    HW176268   9.266  11.430   3.856
91457SOL    HW276269   9.215  11.572   3.868
91458SOL     OW76270   2.166  10.798   5.672
91458SOL    HW176271   2.114  10.744   5.731
91458SOL    HW276272   2.148  10.888   5.700
91459SOL     OW76273   5.471   3.527   9.992
91459SOL    HW176274   5.468   3.438   9.957
91459SOL    HW276275   5.389   3.567   9.962
91460SOL     OW76276  13.464  10.985   3.819
91460SOL    HW176277  13.511  10.936   3.887
91460SOL    HW276278  13.374  10.990   3.851
91461SOL     OW76279   5.890   2.832  12.698
91461SOL    HW176280   5.907   2.849  12.605
91461SOL    HW276281   5.977   2.829  12.738
91462SOL     OW76282   0.260   1.613   4.463
91462SOL    HW176283   0.322   1.552   4.422
91462SOL    HW276284   0.258   1.588   4.555
91463SOL     OW76285  12.748  10.352   3.474
91463SOL    HW176286  12.778  10.435   3.438
91463SOL    HW276287  12.735  10.296   3.397
91464SOL     OW76288   3.460   8.474  13.303
91464SOL    HW176289   3.528   8.538  13.320
91464SOL    HW276290   3.443   8.433  13.388
91465SOL     OW76291  10.110   9.874   7.197
91465SOL    HW176292  10.155   9.948   7.236
91465SOL    HW276293  10.056   9.912   7.127
91466SOL     OW76294   8.677  13.212  10.656
91466SOL    HW176295   8.587  13.216  10.690
91466SOL    HW276296   8.717  13.140  10.704
91467SOL     OW76297   1.997   3.469   8.866
91467SOL    HW176298   2.005   3.373   8.869
91467SOL    HW276299   1.921   3.484   8.809
91468SOL     OW76300   8.826  10.460   9.656
91468SOL    HW176301   8.756  10.443   9.593
91468SOL    HW276302   8.781  10.483   9.737
91469SOL     OW76303  14.611   9.476   3.652
91469SOL    HW176304  14.642   9.425   3.578
91469SOL    HW276305  14.544   9.421   3.693
91470SOL     OW76306  12.472  11.675   0.916
91470SOL    HW176307  12.473  11.607   0.848
91470SOL    HW276308  12.551  11.727   0.899
91471SOL     OW76309  10.806   4.561   0.446
91471SOL    HW176310  10.724   4.522   0.416
91471SOL    HW276311  10.797   4.654   0.424
91472SOL     OW76312   0.201   0.848   2.836
91472SOL    HW176313   0.122   0.793   2.837
91472SOL    HW276314   0.270   0.789   2.808
91473SOL     OW76315  11.850   7.600   2.810
91473SOL    HW176316  11.937   7.577   2.778
91473SOL    HW276317  11.844   7.694   2.797
91474SOL     OW76318  13.151   6.309   7.865
91474SOL    HW176319  13.069   6.336   7.907
91474SOL    HW276320  13.217   6.369   7.900
91475SOL     OW76321  14.262   5.835   9.296
91475SOL    HW176322  14.348   5.877   9.305
91475SOL    HW276323  14.237   5.813   9.386
91476SOL     OW76324   2.083   3.248   3.857
91476SOL    HW176325   2.034   3.314   3.809
91476SOL    HW276326   2.175   3.276   3.850
91477SOL     OW76327  10.185   4.441   9.454
91477SOL    HW176328  10.252   4.509   9.441
91477SOL    HW276329  10.108   4.488   9.483
91478SOL     OW76330  14.084  12.638   2.448
91478SOL    HW176331  14.060  12.642   2.541
91478SOL    HW276332  14.034  12.563   2.414
91479SOL     OW76333  14.080  14.547   5.953
91479SOL    HW176334  14.088  14.637   5.919
91479SOL    HW276335  14.143  14.543   6.024
91480SOL     OW76336   1.853   6.378   3.448
91480SOL    HW176337   1.882   6.287   3.439
91480SOL    HW276338   1.934   6.429   3.441
91481SOL     OW76339   5.547  13.818   0.708
91481SOL    HW176340   5.542  13.724   0.692
91481SOL    HW276341   5.456  13.849   0.701
91482SOL     OW76342  12.340  11.413  13.095
91482SOL    HW176343  12.308  11.325  13.080
91482SOL    HW276344  12.289  11.446  13.169
91483SOL     OW76345  11.653   0.572   2.405
91483SOL    HW176346  11.696   0.487   2.393
91483SOL    HW276347  11.564   0.558   2.373
91484SOL     OW76348   1.818  12.329  14.709
91484SOL    HW176349   1.849  12.409  14.752
91484SOL    HW276350   1.741  12.303  14.759
91485SOL     OW76351  10.523   8.291  11.920
91485SOL    HW176352  10.568   8.220  11.964
91485SOL    HW276353  10.574   8.306  11.840
91486SOL     OW76354  13.340  13.667   7.368
91486SOL    HW176355  13.317  13.622   7.287
91486SOL    HW276356  13.256  13.687   7.409
91487SOL     OW76357   0.671   5.469   0.900
91487SOL    HW176358   0.685   5.431   0.814
91487SOL    HW276359   0.749   5.523   0.915
91488SOL     OW76360   3.669   0.813   1.665
91488SOL    HW176361   3.673   0.907   1.653
91488SOL    HW276362   3.575   0.793   1.667
91489SOL     OW76363  14.224  13.683   4.238
91489SOL    HW176364  14.292  13.669   4.304
91489SOL    HW276365  14.259  13.643   4.159
91490SOL     OW76366   2.944  10.316  11.644
91490SOL    HW176367   2.946  10.221  11.650
91490SOL    HW276368   3.020  10.339  11.590
91491SOL     OW76369   4.254   5.128   1.329
91491SOL    HW176370   4.306   5.049   1.314
91491SOL    HW276371   4.299   5.173   1.402
91492SOL     OW76372  12.120   5.289   1.092
91492SOL    HW176373  12.030   5.274   1.063
91492SOL    HW276374  12.145   5.207   1.135
91493SOL     OW76375   5.298  11.861   6.390
91493SOL    HW176376   5.366  11.807   6.430
91493SOL    HW276377   5.242  11.799   6.343
91494SOL     OW76378   7.147   1.969   5.912
91494SOL    HW176379   7.241   1.962   5.894
91494SOL    HW276380   7.105   1.928   5.837
91495SOL     OW76381   2.723   7.111   0.044
91495SOL    HW176382   2.648   7.113   0.103
91495SOL    HW276383   2.790   7.164   0.088
91496SOL     OW76384  13.380   5.086   0.298
91496SOL    HW176385  13.289   5.089   0.267
91496SOL    HW276386  13.391   5.169   0.345
91497SOL     OW76387   9.021  13.277  14.451
91497SOL    HW176388   8.929  13.294  14.434
91497SOL    HW276389   9.062  13.277  14.365
91498SOL     OW76390  10.957  14.230   9.499
91498SOL    HW176391  11.006  14.307   9.525
91498SOL    HW276392  11.019  14.158   9.509
91499SOL     OW76393  11.666   1.591   4.598
91499SOL    HW176394  11.584   1.615   4.555
91499SOL    HW276395  11.717   1.548   4.530
91500SOL     OW76396   0.493   1.966   3.424
91500SOL    HW176397   0.585   1.990   3.429
91500SOL    HW276398   0.452   2.009   3.499
91501SOL     OW76399   7.503   2.211   5.890
91501SOL    HW176400   7.433   2.146   5.876
91501SOL    HW276401   7.456   2.292   5.911
91502SOL     OW76402   4.320   6.879   6.553
91502SOL    HW176403   4.233   6.918   6.564
91502SOL    HW276404   4.324   6.855   6.461
91503SOL     OW76405   9.018   3.373  14.555
91503SOL    HW176406   9.042   3.285  14.527
91503SOL    HW276407   9.012   3.367  14.651
91504SOL     OW76408   6.968  12.031   0.834
91504SOL    HW176409   6.877  12.015   0.859
91504SOL    HW276410   7.014  11.951   0.862
91505SOL     OW76411   2.043   4.517   0.134
91505SOL    HW176412   1.999   4.602   0.137
91505SOL    HW276413   2.129   4.533   0.174
91506SOL     OW76414   6.500   9.559   1.324
91506SOL    HW176415   6.559   9.579   1.252
91506SOL    HW276416   6.552   9.574   1.403
91507SOL     OW76417   9.022  10.696   1.400
91507SOL    HW176418   9.079  10.630   1.439
91507SOL    HW276419   8.986  10.744   1.476
91508SOL     OW76420  12.023   5.134   5.890
91508SOL    HW176421  12.056   5.210   5.843
91508SOL    HW276422  12.002   5.167   5.977
91509SOL     OW76423   8.008   3.954  13.279
91509SOL    HW176424   8.097   3.989  13.278
91509SOL    HW276425   7.951   4.031  13.274
91510SOL     OW76426   8.677  12.839  11.402
91510SOL    HW176427   8.719  12.925  11.397
91510SOL    HW276428   8.647  12.832  11.492
91511SOL     OW76429   8.608   8.950  14.235
91511SOL    HW176430   8.593   8.856  14.247
91511SOL    HW276431   8.528   8.991  14.268
91512SOL     OW76432   4.881  11.237  14.803
91512SOL    HW176433   4.809  11.219  14.743
91512SOL    HW276434   4.843  11.292  14.871
91513SOL     OW76435  14.357   2.771   1.317
91513SOL    HW176436  14.422   2.841   1.315
91513SOL    HW276437  14.285   2.804   1.263
91514SOL     OW76438   6.971  10.558   1.414
91514SOL    HW176439   6.892  10.611   1.402
91514SOL    HW276440   7.029  10.585   1.342
91515SOL     OW76441   7.495   1.750   4.402
91515SOL    HW176442   7.539   1.806   4.338
91515SOL    HW276443   7.458   1.811   4.466
91516SOL     OW76444   4.933   5.536  12.522
91516SOL    HW176445   4.923   5.483  12.443
91516SOL    HW276446   4.923   5.474  12.594
91517SOL     OW76447   9.039   8.828   3.476
91517SOL    HW176448   9.018   8.909   3.430
91517SOL    HW276449   9.052   8.764   3.407
91518SOL     OW76450  13.901  14.032  11.613
91518SOL    HW176451  13.856  13.989  11.686
91518SOL    HW276452  13.891  13.972  11.539
91519SOL     OW76453  10.805  12.766   0.937
91519SOL    HW176454  10.813  12.702   1.008
91519SOL    HW276455  10.808  12.851   0.982
91520SOL     OW76456  12.750  11.842   5.192
91520SOL    HW176457  12.839  11.836   5.226
91520SOL    HW276458  12.705  11.764   5.226
91521SOL     OW76459   5.666   2.535  10.378
91521SOL    HW176460   5.644   2.602  10.313
91521SOL    HW276461   5.669   2.454  10.328
91522SOL     OW76462   3.941   2.698   4.474
91522SOL    HW176463   3.862   2.752   4.475
91522SOL    HW276464   3.942   2.653   4.558
91523SOL     OW76465   6.972   7.732   4.589
91523SOL    HW176466   6.990   7.662   4.526
91523SOL    HW276467   7.041   7.722   4.655
91524SOL     OW76468   0.843   5.849   9.097
91524SOL    HW176469   0.857   5.877   9.187
91524SOL    HW276470   0.777   5.780   9.103
91525SOL     OW76471  12.528   9.306   5.971
91525SOL    HW176472  12.494   9.351   6.048
91525SOL    HW276473  12.492   9.354   5.896
91526SOL     OW76474   9.079  13.587  10.958
91526SOL    HW176475   9.014  13.522  10.933
91526SOL    HW276476   9.123  13.609  10.876
91527SOL     OW76477   6.645   1.928   1.481
91527SOL    HW176478   6.682   2.015   1.468
91527SOL    HW276479   6.641   1.917   1.576
91528SOL     OW76480  10.984  14.460   5.502
91528SOL    HW176481  11.074  14.444   5.474
91528SOL    HW276482  10.930  14.428   5.430
91529SOL     OW76483   6.750   3.038   5.254
91529SOL    HW176484   6.785   2.956   5.289
91529SOL    HW276485   6.679   3.061   5.315
91530SOL     OW76486  11.238   6.288   4.755
91530SOL    HW176487  11.188   6.210   4.729
91530SOL    HW276488  11.194   6.360   4.709
91531SOL     OW76489   6.181  12.937   7.938
91531SOL    HW176490   6.241  12.936   7.864
91531SOL    HW276491   6.181  12.847   7.971
91532SOL     OW76492   2.505   6.343   1.931
91532SOL    HW176493   2.440   6.411   1.949
91532SOL    HW276494   2.454   6.264   1.917
91533SOL     OW76495  10.587   2.105   5.902
91533SOL    HW176496  10.542   2.025   5.927
91533SOL    HW276497  10.631   2.083   5.820
91534SOL     OW76498   9.375   5.237  11.238
91534SOL    HW176499   9.306   5.209  11.178
91534SOL    HW276500   9.420   5.308  11.191
91535SOL     OW76501  10.818  11.372   5.267
91535SOL    HW176502  10.829  11.278   5.285
91535SOL    HW276503  10.884  11.414   5.322
91536SOL     OW76504  13.124  10.869   7.417
91536SOL    HW176505  13.175  10.799   7.376
91536SOL    HW276506  13.050  10.825   7.457
91537SOL     OW76507   5.334   8.966   6.589
91537SOL    HW176508   5.401   8.965   6.521
91537SOL    HW276509   5.381   8.943   6.669
91538SOL     OW76510   4.557   6.705  11.288
91538SOL    HW176511   4.520   6.685  11.202
91538SOL    HW276512   4.483   6.699  11.348
91539SOL     OW76513   9.309  12.034   3.200
91539SOL    HW176514   9.305  12.089   3.122
91539SOL    HW276515   9.398  12.000   3.201
91540SOL     OW76516   3.796   7.162   5.709
91540SOL    HW176517   3.881   7.137   5.673
91540SOL    HW276518   3.753   7.209   5.638
91541SOL     OW76519   0.402   0.479   6.371
91541SOL    HW176520   0.493   0.469   6.343
91541SOL    HW276521   0.375   0.391   6.397
91542SOL     OW76522   6.648   1.589   9.014
91542SOL    HW176523   6.643   1.551   8.927
91542SOL    HW276524   6.723   1.649   9.010
91543SOL     OW76525   4.986  12.185   7.663
91543SOL    HW176526   4.897  12.196   7.694
91543SOL    HW276527   5.040  12.192   7.741
91544SOL     OW76528   4.500   2.633   4.477
91544SOL    HW176529   4.428   2.580   4.444
91544SOL    HW276530   4.536   2.675   4.400
91545SOL     OW76531   5.869   5.758   8.285
91545SOL    HW176532   5.917   5.703   8.223
91545SOL    HW276533   5.785   5.774   8.242
91546SOL     OW76534  12.829   8.906  11.184
91546SOL    HW176535  12.736   8.884  11.176
91546SOL    HW276536  12.844   8.971  11.115
91547SOL     OW76537   6.970   4.346  11.297
91547SOL    HW176538   6.997   4.318  11.209
91547SOL    HW276539   7.010   4.433  11.307
91548SOL     OW76540   3.510   8.327  13.862
91548SOL    HW176541   3.492   8.338  13.769
91548SOL    HW276542   3.427   8.300  13.900
91549SOL     OW76543  11.740   5.863   1.095
91549SOL    HW176544  11.799   5.789   1.109
91549SOL    HW276545  11.783   5.916   1.028
91550SOL     OW76546  13.462   2.549  11.162
91550SOL    HW176547  13.545   2.582  11.195
91550SOL    HW276548  13.431   2.616  11.102
91551SOL     OW76549   2.210  10.278  11.855
91551SOL    HW176550   2.148  10.337  11.897
91551SOL    HW276551   2.291  10.329  11.847
91552SOL     OW76552  11.676  13.060   1.104
91552SOL    HW176553  11.741  13.044   1.037
91552SOL    HW276554  11.605  12.999   1.085
91553SOL     OW76555   9.813   9.438   3.358
91553SOL    HW176556   9.786   9.512   3.303
91553SOL    HW276557   9.869   9.386   3.301
91554SOL     OW76558  11.682  11.266   6.035
91554SOL    HW176559  11.670  11.238   6.126
91554SOL    HW276560  11.692  11.184   5.986
91555SOL     OW76561  13.701  14.214  11.378
91555SOL    HW176562  13.623  14.228  11.325
91555SOL    HW276563  13.758  14.161  11.323
91556SOL     OW76564  11.455   3.199  12.054
91556SOL    HW176565  11.362   3.179  12.041
91556SOL    HW276566  11.485   3.230  11.968
91557SOL     OW76567  13.007  14.432  13.198
91557SOL    HW176568  13.009  14.337  13.193
91557SOL    HW276569  12.915  14.455  13.179
91558SOL     OW76570  12.213   9.252   3.180
91558SOL    HW176571  12.180   9.249   3.091
91558SOL    HW276572  12.307   9.240   3.172
91559SOL     OW76573   9.095   9.254   9.532
91559SOL    HW176574   9.055   9.266   9.446
91559SOL    HW276575   9.090   9.159   9.548
91560SOL     OW76576  14.659  11.902  10.426
91560SOL    HW176577  14.705  11.860  10.353
91560SOL    HW276578  14.567  11.902  10.399
91561SOL     OW76579   1.513   0.139  10.994
91561SOL    HW176580   1.554   0.167  11.076
91561SOL    HW276581   1.581   0.091  10.947
91562SOL     OW76582   7.235   4.366  12.957
91562SOL    HW176583   7.171   4.404  12.897
91562SOL    HW276584   7.247   4.276  12.927
91563SOL     OW76585   6.560  10.500   4.536
91563SOL    HW176586   6.615  10.568   4.574
91563SOL    HW276587   6.529  10.536   4.454
91564SOL     OW76588   5.563   2.605   7.527
91564SOL    HW176589   5.481   2.654   7.523
91564SOL    HW276590   5.566   2.557   7.444
91565SOL     OW76591   2.776  10.750  13.944
91565SOL    HW176592   2.700  10.760  13.886
91565SOL    HW276593   2.850  10.740  13.885
91566SOL     OW76594   9.838  10.192   1.484
91566SOL    HW176595   9.773  10.152   1.541
91566SOL    HW276596   9.842  10.135   1.408
91567SOL     OW76597   8.959   8.091   1.405
91567SOL    HW176598   9.015   8.015   1.397
91567SOL    HW276599   8.924   8.104   1.317
91568SOL     OW76600  12.370   1.409   2.673
91568SOL    HW176601  12.361   1.329   2.622
91568SOL    HW276602  12.407   1.380   2.757
91569SOL     OW76603  12.822  10.816   3.848
91569SOL    HW176604  12.827  10.782   3.937
91569SOL    HW276605  12.734  10.854   3.842
91570SOL     OW76606   5.394  14.860   6.230
91570SOL    HW176607   5.343   0.050   6.271
91570SOL    HW276608   5.474   0.024   6.199
91571SOL     OW76609   7.735   8.694   0.077
91571SOL    HW176610   7.653   8.699   0.126
91571SOL    HW276611   7.803   8.711   0.141
91572SOL     OW76612   5.486   7.483   3.485
91572SOL    HW176613   5.545   7.558   3.491
91572SOL    HW276614   5.542   7.410   3.458
91573SOL     OW76615   0.909  10.154  10.962
91573SOL    HW176616   0.844  10.225  10.964
91573SOL    HW276617   0.878  10.096  10.893
91574SOL     OW76618   9.477   1.388   7.805
91574SOL    HW176619   9.530   1.431   7.737
91574SOL    HW276620   9.444   1.460   7.859
91575SOL     OW76621   8.513  11.024   6.551
91575SOL    HW176622   8.603  11.024   6.518
91575SOL    HW276623   8.461  11.056   6.478
91576SOL     OW76624   6.242  14.069   1.444
91576SOL    HW176625   6.319  14.105   1.488
91576SOL    HW276626   6.278  14.015   1.373
91577SOL     OW76627  14.665   0.138   5.905
91577SOL    HW176628  14.742   0.090   5.936
91577SOL    HW276629  14.649   0.203   5.974
91578SOL     OW76630  12.961   1.222  13.747
91578SOL    HW176631  12.983   1.314  13.755
91578SOL    HW276632  13.045   1.178  13.732
91579SOL     OW76633   9.886   6.613   8.200
91579SOL    HW176634   9.899   6.617   8.295
91579SOL    HW276635   9.831   6.688   8.180
91580SOL     OW76636  14.219   6.455  10.190
91580SOL    HW176637  14.154   6.424  10.126
91580SOL    HW276638  14.298   6.470  10.139
91581SOL     OW76639  13.771   6.794   6.104
91581SOL    HW176640  13.794   6.822   6.193
91581SOL    HW276641  13.699   6.851   6.078
91582SOL     OW76642   9.419   5.534   1.182
91582SOL    HW176643   9.342   5.563   1.132
91582SOL    HW276644   9.384   5.474   1.248
91583SOL     OW76645  13.507  10.245   6.267
91583SOL    HW176646  13.504  10.217   6.359
91583SOL    HW276647  13.525  10.339   6.272
91584SOL     OW76648  12.586   4.314   8.148
91584SOL    HW176649  12.609   4.385   8.088
91584SOL    HW276650  12.633   4.336   8.229
91585SOL     OW76651   5.242   6.785   9.404
91585SOL    HW176652   5.206   6.843   9.337
91585SOL    HW276653   5.273   6.844   9.473
91586SOL     OW76654  11.905   0.610   8.707
91586SOL    HW176655  11.837   0.625   8.772
91586SOL    HW276656  11.972   0.560   8.753
91587SOL     OW76657  11.124   9.682   0.304
91587SOL    HW176658  11.062   9.752   0.324
91587SOL    HW276659  11.205   9.728   0.281
91588SOL     OW76660   8.535   3.458   3.232
91588SOL    HW176661   8.480   3.381   3.239
91588SOL    HW276662   8.473   3.531   3.225
91589SOL     OW76663   2.599   0.177  12.828
91589SOL    HW176664   2.569   0.087  12.835
91589SOL    HW276665   2.597   0.211  12.917
91590SOL     OW76666   5.004  10.251  12.780
91590SOL    HW176667   4.967  10.183  12.836
91590SOL    HW276668   4.937  10.319  12.776
91591SOL     OW76669   1.744   5.012   8.632
91591SOL    HW176670   1.828   5.055   8.614
91591SOL    HW276671   1.745   4.933   8.576
91592SOL     OW76672  10.552  12.810   2.317
91592SOL    HW176673  10.572  12.745   2.383
91592SOL    HW276674  10.575  12.768   2.234
91593SOL     OW76675   9.162  12.788  11.774
91593SOL    HW176676   9.115  12.707  11.754
91593SOL    HW276677   9.138  12.848  11.703
91594SOL     OW76678  14.137   3.753  12.775
91594SOL    HW176679  14.049   3.737  12.741
91594SOL    HW276680  14.188   3.676  12.749
91595SOL     OW76681  11.142  12.819  13.408
91595SOL    HW176682  11.115  12.851  13.494
91595SOL    HW276683  11.199  12.888  13.374
91596SOL     OW76684  12.854  13.841   1.694
91596SOL    HW176685  12.786  13.790   1.737
91596SOL    HW276686  12.842  13.930   1.726
91597SOL     OW76687   0.318  11.008   3.801
91597SOL    HW176688   0.240  10.989   3.854
91597SOL    HW276689   0.283  11.037   3.716
91598SOL     OW76690   6.162  11.401  14.711
91598SOL    HW176691   6.135  11.424  14.800
91598SOL    HW276692   6.094  11.341  14.681
91599SOL     OW76693  10.083   0.148   5.567
91599SOL    HW176694  10.147   0.095   5.616
91599SOL    HW276695  10.136   0.194   5.502
91600SOL     OW76696   6.833   6.161  12.542
91600SOL    HW176697   6.828   6.068  12.520
91600SOL    HW276698   6.920   6.188  12.513
91601SOL     OW76699   5.508  14.371  11.381
91601SOL    HW176700   5.504  14.379  11.476
91601SOL    HW276701   5.585  14.316  11.365
91602SOL     OW76702   9.266   5.386   6.132
91602SOL    HW176703   9.240   5.451   6.066
91602SOL    HW276704   9.333   5.430   6.184
91603SOL     OW76705   4.957   3.143  11.573
91603SOL    HW176706   4.885   3.166  11.632
91603SOL    HW276707   4.981   3.053  11.598
91604SOL     OW76708  13.301   2.537   4.589
91604SOL    HW176709  13.256   2.606   4.637
91604SOL    HW276710  13.242   2.461   4.596
91605SOL     OW76711  11.631   3.811   2.095
91605SOL    HW176712  11.598   3.815   2.006
91605SOL    HW276713  11.686   3.732   2.096
91606SOL     OW76714   3.595   6.203   6.240
91606SOL    HW176715   3.667   6.156   6.282
91606SOL    HW276716   3.530   6.215   6.310
91607SOL     OW76717   7.549   6.293  11.717
91607SOL    HW176718   7.500   6.349  11.658
91607SOL    HW276719   7.592   6.229  11.660
91608SOL     OW76720  12.120  13.869  12.465
91608SOL    HW176721  12.153  13.814  12.394
91608SOL    HW276722  12.032  13.836  12.483
91609SOL     OW76723  11.346   1.745   3.967
91609SOL    HW176724  11.386   1.658   3.973
91609SOL    HW276725  11.416   1.806   3.990
91610SOL     OW76726   3.384  14.711   4.579
91610SOL    HW176727   3.376  14.638   4.640
91610SOL    HW276728   3.478  14.729   4.574
91611SOL     OW76729   7.556   2.085   2.089
91611SOL    HW176730   7.627   2.130   2.042
91611SOL    HW276731   7.530   2.014   2.031
91612SOL     OW76732  13.170   0.563  13.423
91612SOL    HW176733  13.197   0.477  13.454
91612SOL    HW276734  13.249   0.617  13.428
91613SOL     OW76735  14.212  11.102  10.830
91613SOL    HW176736  14.287  11.042  10.830
91613SOL    HW276737  14.135  11.046  10.822
91614SOL     OW76738   0.477   5.711  11.098
91614SOL    HW176739   0.518   5.761  11.169
91614SOL    HW276740   0.492   5.620  11.122
91615SOL     OW76741   9.954   5.541   3.280
91615SOL    HW176742   9.977   5.589   3.360
91615SOL    HW276743   9.984   5.598   3.209
91616SOL     OW76744   0.351   6.822  13.637
91616SOL    HW176745   0.401   6.809  13.556
91616SOL    HW276746   0.260   6.806  13.611
91617SOL     OW76747  10.720   7.974   0.248
91617SOL    HW176748  10.814   7.976   0.232
91617SOL    HW276749  10.696   8.066   0.258
91618SOL     OW76750  11.566   8.065   3.759
91618SOL    HW176751  11.583   8.075   3.853
91618SOL    HW276752  11.638   8.012   3.727
91619SOL     OW76753   7.258  13.785  10.910
91619SOL    HW176754   7.256  13.862  10.853
91619SOL    HW276755   7.190  13.802  10.976
91620SOL     OW76756  10.320  10.102  14.395
91620SOL    HW176757  10.355  10.018  14.425
91620SOL    HW276758  10.332  10.101  14.300
91621SOL     OW76759   4.079   5.486   5.036
91621SOL    HW176760   4.089   5.407   5.091
91621SOL    HW276761   4.101   5.456   4.948
91622SOL     OW76762   8.513   5.904   2.784
91622SOL    HW176763   8.444   5.877   2.845
91622SOL    HW276764   8.594   5.883   2.829
91623SOL     OW76765   3.908   7.456  10.243
91623SOL    HW176766   3.895   7.426  10.333
91623SOL    HW276767   3.872   7.386  10.188
91624SOL     OW76768  12.495   6.347  14.001
91624SOL    HW176769  12.439   6.273  14.025
91624SOL    HW276770  12.442   6.398  13.939
91625SOL     OW76771   5.701   9.173   2.281
91625SOL    HW176772   5.739   9.224   2.352
91625SOL    HW276773   5.746   9.088   2.286
91626SOL     OW76774   3.262   0.223   2.791
91626SOL    HW176775   3.292   0.314   2.792
91626SOL    HW276776   3.342   0.171   2.794
91627SOL     OW76777   6.727   6.991  12.788
91627SOL    HW176778   6.806   7.035  12.758
91627SOL    HW276779   6.715   7.022  12.878
91628SOL     OW76780  14.347   2.508   8.962
91628SOL    HW176781  14.263   2.535   8.999
91628SOL    HW276782  14.413   2.558   9.010
91629SOL     OW76783   8.689   3.333   1.992
91629SOL    HW176784   8.685   3.375   2.078
91629SOL    HW276785   8.710   3.404   1.931
91630SOL     OW76786  11.332   6.195   2.711
91630SOL    HW176787  11.423   6.172   2.727
91630SOL    HW276788  11.293   6.200   2.799
91631SOL     OW76789  12.738   0.751   1.852
91631SOL    HW176790  12.718   0.738   1.759
91631SOL    HW276791  12.654   0.743   1.896
91632SOL     OW76792   2.386   1.302   3.355
91632SOL    HW176793   2.464   1.356   3.340
91632SOL    HW276794   2.419   1.223   3.396
91633SOL     OW76795   7.687  12.057  10.515
91633SOL    HW176796   7.706  12.126  10.578
91633SOL    HW276797   7.768  12.045  10.466
91634SOL     OW76798  14.732   2.914  12.285
91634SOL    HW176799  14.757   2.909  12.193
91634SOL    HW276800  14.683   2.995  12.293
91635SOL     OW76801   2.895   3.067   0.713
91635SOL    HW176802   2.947   3.147   0.701
91635SOL    HW276803   2.867   3.043   0.625
91636SOL     OW76804  11.040  13.593  12.881
91636SOL    HW176805  11.057  13.517  12.826
91636SOL    HW276806  11.062  13.564  12.970
91637SOL     OW76807  10.221  10.625   1.514
91637SOL    HW176808  10.201  10.647   1.605
91637SOL    HW276809  10.317  10.627   1.509
91638SOL     OW76810   3.167  12.995  13.743
91638SOL    HW176811   3.155  12.907  13.780
91638SOL    HW276812   3.243  12.987  13.687
91639SOL     OW76813   1.469   8.243   7.865
91639SOL    HW176814   1.496   8.276   7.779
91639SOL    HW276815   1.500   8.153   7.867
91640SOL     OW76816   1.614  14.875  12.835
91640SOL    HW176817   1.575   0.083  12.842
91640SOL    HW276818   1.679  14.872  12.905
91641SOL     OW76819  10.290  10.879  14.841
91641SOL    HW176820  10.342  10.837   0.030
91641SOL    HW276821  10.211  10.909   0.006
91642SOL     OW76822   2.832   4.543  12.376
91642SOL    HW176823   2.766   4.532  12.445
91642SOL    HW276824   2.915   4.553  12.424
91643SOL     OW76825   8.454  14.670  12.239
91643SOL    HW176826   8.392  14.607  12.201
91643SOL    HW276827   8.529  14.669  12.179
91644SOL     OW76828   1.760  14.695   6.815
91644SOL    HW176829   1.669  14.696   6.786
91644SOL    HW276830   1.762  14.756   6.889
91645SOL     OW76831   7.222  13.526  14.544
91645SOL    HW176832   7.184  13.439  14.530
91645SOL    HW276833   7.259  13.550  14.459
91646SOL     OW76834  14.578   5.500   1.389
91646SOL    HW176835  14.519   5.557   1.437
91646SOL    HW276836  14.628   5.454   1.457
91647SOL     OW76837   6.109   5.087   1.286
91647SOL    HW176838   6.103   5.002   1.243
91647SOL    HW276839   6.112   5.150   1.213
91648SOL     OW76840   1.178   1.136   6.725
91648SOL    HW176841   1.178   1.166   6.634
91648SOL    HW276842   1.271   1.128   6.746
91649SOL     OW76843   7.954  12.630   7.489
91649SOL    HW176844   7.993  12.568   7.428
91649SOL    HW276845   8.013  12.704   7.490
91650SOL     OW76846   8.771   8.654   6.621
91650SOL    HW176847   8.843   8.708   6.590
91650SOL    HW276848   8.810   8.568   6.637
91651SOL     OW76849  10.212  11.910  12.908
91651SOL    HW176850  10.162  11.970  12.963
91651SOL    HW276851  10.299  11.951  12.901
91652SOL     OW76852   7.941   5.133   5.721
91652SOL    HW176853   7.926   5.146   5.627
91652SOL    HW276854   7.991   5.210   5.748
91653SOL     OW76855   5.015   0.400   9.633
91653SOL    HW176856   5.086   0.464   9.634
91653SOL    HW276857   5.050   0.324   9.679
91654SOL     OW76858   9.942   3.738  12.274
91654SOL    HW176859  10.026   3.744  12.228
91654SOL    HW276860   9.933   3.822  12.319
91655SOL     OW76861   7.233   3.023   0.193
91655SOL    HW176862   7.180   3.096   0.224
91655SOL    HW276863   7.281   2.994   0.270
91656SOL     OW76864   0.333  11.314  11.466
91656SOL    HW176865   0.424  11.292  11.486
91656SOL    HW276866   0.292  11.329  11.551
91657SOL     OW76867   5.051   4.509  14.106
91657SOL    HW176868   5.070   4.602  14.094
91657SOL    HW276869   5.136   4.465  14.095
91658SOL     OW76870  12.624   1.571   9.544
91658SOL    HW176871  12.594   1.489   9.504
91658SOL    HW276872  12.584   1.572   9.631
91659SOL     OW76873  11.168   4.892   2.204
91659SOL    HW176874  11.135   4.825   2.144
91659SOL    HW276875  11.120   4.971   2.180
91660SOL     OW76876   6.015   9.526   2.660
91660SOL    HW176877   5.985   9.492   2.745
91660SOL    HW276878   5.963   9.605   2.646
91661SOL     OW76879  12.805  12.320   4.843
91661SOL    HW176880  12.828  12.412   4.857
91661SOL    HW276881  12.730  12.322   4.784
91662SOL     OW76882   9.319  13.041  11.431
91662SOL    HW176883   9.344  12.949  11.440
91662SOL    HW276884   9.397  13.084  11.397
91663SOL     OW76885  11.672  11.093   0.323
91663SOL    HW176886  11.713  11.008   0.337
91663SOL    HW276887  11.727  11.136   0.258
91664SOL     OW76888  11.722   5.336  10.492
91664SOL    HW176889  11.703   5.270  10.425
91664SOL    HW276890  11.649   5.397  10.488
91665SOL     OW76891  12.463   3.097   2.883
91665SOL    HW176892  12.418   3.144   2.813
91665SOL    HW276893  12.484   3.012   2.844
91666SOL     OW76894   6.860   9.626   8.749
91666SOL    HW176895   6.820   9.710   8.770
91666SOL    HW276896   6.871   9.627   8.654
91667SOL     OW76897  10.487  11.841   5.432
91667SOL    HW176898  10.436  11.770   5.393
91667SOL    HW276899  10.563  11.797   5.472
91668SOL     OW76900   1.311   6.481   7.941
91668SOL    HW176901   1.369   6.447   8.009
91668SOL    HW276902   1.367   6.539   7.889
91669SOL     OW76903   0.477  14.451   0.860
91669SOL    HW176904   0.448  14.365   0.829
91669SOL    HW276905   0.444  14.456   0.949
91670SOL     OW76906  12.278   1.586   9.912
91670SOL    HW176907  12.207   1.528   9.940
91670SOL    HW276908  12.318   1.617   9.994
91671SOL     OW76909   0.946  14.641   2.660
91671SOL    HW176910   0.864  14.616   2.702
91671SOL    HW276911   0.977  14.716   2.711
91672SOL     OW76912  13.229   6.931  10.000
91672SOL    HW176913  13.279   6.850   9.991
91672SOL    HW276914  13.291   7.000   9.976
91673SOL     OW76915  12.052  12.305   1.851
91673SOL    HW176916  12.015  12.283   1.766
91673SOL    HW276917  12.141  12.334   1.832
91674SOL     OW76918   0.420  10.491   6.870
91674SOL    HW176919   0.430  10.564   6.809
91674SOL    HW276920   0.499  10.495   6.925
91675SOL     OW76921  11.318  13.056   6.738
91675SOL    HW176922  11.261  13.092   6.807
91675SOL    HW276923  11.257  13.020   6.674
91676SOL     OW76924   7.948  13.770   2.872
91676SOL    HW176925   7.938  13.706   2.942
91676SOL    HW276926   8.009  13.835   2.909
91677SOL     OW76927  12.591  11.659   6.730
91677SOL    HW176928  12.627  11.748   6.734
91677SOL    HW276929  12.591  11.630   6.821
91678SOL     OW76930   8.643   7.562   5.307
91678SOL    HW176931   8.639   7.470   5.278
91678SOL    HW276932   8.621   7.558   5.400
91679SOL     OW76933  13.172  13.127  13.886
91679SOL    HW176934  13.164  13.221  13.905
91679SOL    HW276935  13.145  13.119  13.794
91680SOL     OW76936   6.910   8.845   1.697
91680SOL    HW176937   6.941   8.825   1.786
91680SOL    HW276938   6.988   8.874   1.650
91681SOL     OW76939   8.116  12.540   4.448
91681SOL    HW176940   8.084  12.605   4.511
91681SOL    HW276941   8.058  12.549   4.372
91682SOL     OW76942   7.467   0.945   7.924
91682SOL    HW176943   7.419   1.028   7.917
91682SOL    HW276944   7.470   0.927   8.018
91683SOL     OW76945   5.500   5.087   9.703
91683SOL    HW176946   5.549   5.131   9.634
91683SOL    HW276947   5.512   4.993   9.686
91684SOL     OW76948  12.811   7.458  14.571
91684SOL    HW176949  12.821   7.457  14.666
91684SOL    HW276950  12.818   7.366  14.545
91685SOL     OW76951   6.258   1.202  11.520
91685SOL    HW176952   6.205   1.278  11.543
91685SOL    HW276953   6.250   1.143  11.595
91686SOL     OW76954   4.202   5.316   8.436
91686SOL    HW176955   4.172   5.265   8.362
91686SOL    HW276956   4.295   5.332   8.418
91687SOL     OW76957   2.672   9.541   8.869
91687SOL    HW176958   2.596   9.491   8.898
91687SOL    HW276959   2.672   9.619   8.924
91688SOL     OW76960   9.989   4.784   7.724
91688SOL    HW176961  10.013   4.815   7.811
91688SOL    HW276962  10.072   4.760   7.682
91689SOL     OW76963   9.969   8.162   6.081
91689SOL    HW176964   9.947   8.246   6.041
91689SOL    HW276965  10.057   8.142   6.048
91690SOL     OW76966   9.622  12.818   5.711
91690SOL    HW176967   9.566  12.855   5.642
91690SOL    HW276968   9.579  12.735   5.734
91691SOL     OW76969   7.334   5.018  11.585
91691SOL    HW176970   7.276   4.946  11.610
91691SOL    HW276971   7.307   5.041  11.496
91692SOL     OW76972   1.464   3.876  13.721
91692SOL    HW176973   1.529   3.917  13.779
91692SOL    HW276974   1.424   3.808  13.774
91693SOL     OW76975  13.260   8.954   1.194
91693SOL    HW176976  13.249   8.959   1.099
91693SOL    HW276977  13.309   9.034   1.217
91694SOL     OW76978   8.015   7.645  13.387
91694SOL    HW176979   8.042   7.577  13.325
91694SOL    HW276980   8.022   7.603  13.473
91695SOL     OW76981  13.063   4.559   8.785
91695SOL    HW176982  13.088   4.594   8.871
91695SOL    HW276983  13.042   4.467   8.802
91696SOL     OW76984   2.091  10.295  10.306
91696SOL    HW176985   2.186  10.286  10.307
91696SOL    HW276986   2.073  10.354  10.233
91697SOL     OW76987   3.823   1.014   6.401
91697SOL    HW176988   3.883   1.018   6.327
91697SOL    HW276989   3.745   0.970   6.366
91698SOL     OW76990   1.222  12.288  14.535
91698SOL    HW176991   1.188  12.331  14.614
91698SOL    HW276992   1.192  12.344  14.463
91699SOL     OW76993   0.554  12.234   6.849
91699SOL    HW176994   0.621  12.297   6.875
91699SOL    HW276995   0.581  12.152   6.891
91700SOL     OW76996  10.314   2.331   3.554
91700SOL    HW176997  10.404   2.339   3.585
91700SOL    HW276998  10.264   2.393   3.608
91701SOL     OW76999   7.901   9.110   9.043
91701SOL    HW177000   7.953   9.078   9.117
91701SOL    HW277001   7.959   9.103   8.968
91702SOL     OW77002  10.411   5.564  13.823
91702SOL    HW177003  10.391   5.576  13.916
91702SOL    HW277004  10.326   5.566  13.779
91703SOL     OW77005   9.764   7.231  14.550
91703SOL    HW177006   9.796   7.151  14.510
91703SOL    HW277007   9.743   7.288  14.476
91704SOL     OW77008  11.634   6.621   7.030
91704SOL    HW177009  11.646   6.685   7.100
91704SOL    HW277010  11.681   6.657   6.955
91705SOL     OW77011  13.723   4.049   5.092
91705SOL    HW177012  13.787   4.091   5.036
91705SOL    HW277013  13.652   4.024   5.033
91706SOL     OW77014   2.377  11.459   8.491
91706SOL    HW177015   2.297  11.497   8.527
91706SOL    HW277016   2.387  11.499   8.405
91707SOL     OW77017  10.231  12.151   1.647
91707SOL    HW177018  10.198  12.208   1.716
91707SOL    HW277019  10.201  12.192   1.565
91708SOL     OW77020   1.902   6.252   7.611
91708SOL    HW177021   1.911   6.158   7.627
91708SOL    HW277022   1.981   6.276   7.562
91709SOL     OW77023   8.738  12.876   3.306
91709SOL    HW177024   8.681  12.806   3.274
91709SOL    HW277025   8.684  12.926   3.367
91710SOL     OW77026   2.832   3.583   8.427
91710SOL    HW177027   2.888   3.506   8.435
91710SOL    HW277028   2.892   3.653   8.400
91711SOL     OW77029   4.114  12.228   3.212
91711SOL    HW177030   4.137  12.165   3.143
91711SOL    HW277031   4.194  12.279   3.226
91712SOL     OW77032   0.582   8.544   5.701
91712SOL    HW177033   0.541   8.515   5.783
91712SOL    HW277034   0.509   8.574   5.647
91713SOL     OW77035  12.933  14.335   0.461
91713SOL    HW177036  12.982  14.407   0.422
91713SOL    HW277037  12.846  14.342   0.422
91714SOL     OW77038  10.902  13.764   1.252
91714SOL    HW177039  10.843  13.827   1.295
91714SOL    HW277040  10.855  13.738   1.173
91715SOL     OW77041   6.135   7.916   3.475
91715SOL    HW177042   6.195   7.982   3.440
91715SOL    HW277043   6.049   7.956   3.471
91716SOL     OW77044   4.635   9.967   6.811
91716SOL    HW177045   4.682   9.887   6.786
91716SOL    HW277046   4.693  10.038   6.783
91717SOL     OW77047   3.150  14.448   9.128
91717SOL    HW177048   3.118  14.535   9.106
91717SOL    HW277049   3.071  14.394   9.129
91718SOL     OW77050  12.891   2.404  11.581
91718SOL    HW177051  12.884   2.448  11.666
91718SOL    HW277052  12.973   2.436  11.544
91719SOL     OW77053   5.015   5.694   9.975
91719SOL    HW177054   4.939   5.674  10.029
91719SOL    HW277055   4.981   5.754   9.908
91720SOL     OW77056  10.332   8.745   5.487
91720SOL    HW177057  10.337   8.653   5.461
91720SOL    HW277058  10.422   8.775   5.484
91721SOL     OW77059  12.676   6.712  13.966
91721SOL    HW177060  12.653   6.784  13.907
91721SOL    HW277061  12.771   6.716  13.972
91722SOL     OW77062   6.173   8.708  13.774
91722SOL    HW177063   6.214   8.774  13.830
91722SOL    HW277064   6.190   8.738  13.685
91723SOL     OW77065   6.875   1.296   2.558
91723SOL    HW177066   6.954   1.265   2.601
91723SOL    HW277067   6.872   1.249   2.475
91724SOL     OW77068   2.273   7.786   0.727
91724SOL    HW177069   2.192   7.781   0.676
91724SOL    HW277070   2.339   7.747   0.670
91725SOL     OW77071   6.195   9.950  12.341
91725SOL    HW177072   6.182   9.888  12.269
91725SOL    HW277073   6.175   9.899  12.420
91726SOL     OW77074   6.276   3.513  14.323
91726SOL    HW177075   6.362   3.472  14.316
91726SOL    HW277076   6.218   3.444  14.354
91727SOL     OW77077   6.493   5.417   4.678
91727SOL    HW177078   6.425   5.473   4.639
91727SOL    HW277079   6.574   5.466   4.663
91728SOL     OW77080   0.825   5.378   4.091
91728SOL    HW177081   0.842   5.284   4.098
91728SOL    HW277082   0.773   5.387   4.011
91729SOL     OW77083   8.870   9.537   4.700
91729SOL    HW177084   8.897   9.445   4.694
91729SOL    HW277085   8.811   9.550   4.626
91730SOL     OW77086  14.162  12.641   6.194
91730SOL    HW177087  14.218  12.638   6.116
91730SOL    HW277088  14.078  12.673   6.161
91731SOL     OW77089   7.847   3.047   7.965
91731SOL    HW177090   7.777   3.007   7.913
91731SOL    HW277091   7.916   2.980   7.967
91732SOL     OW77092  14.624  11.565  10.066
91732SOL    HW177093  14.670  11.518  10.136
91732SOL    HW277094  14.669  11.538   9.986
91733SOL     OW77095   2.436   6.666  13.069
91733SOL    HW177096   2.377   6.725  13.116
91733SOL    HW277097   2.465   6.717  12.993
91734SOL     OW77098  14.427   7.242   4.039
91734SOL    HW177099  14.495   7.216   3.978
91734SOL    HW277100  14.433   7.338   4.042
91735SOL     OW77101   5.922  11.642   4.259
91735SOL    HW177102   5.856  11.650   4.327
91735SOL    HW277103   5.912  11.552   4.227
91736SOL     OW77104   5.197   4.236  11.885
91736SOL    HW177105   5.131   4.167  11.880
91736SOL    HW277106   5.265   4.199  11.942
91737SOL     OW77107  13.620  11.137  13.677
91737SOL    HW177108  13.616  11.077  13.752
91737SOL    HW277109  13.641  11.222  13.715
91738SOL     OW77110   9.714   7.708   9.166
91738SOL    HW177111   9.629   7.751   9.168
91738SOL    HW277112   9.746   7.721   9.076
91739SOL     OW77113   2.184  13.909   0.074
91739SOL    HW177114   2.120  13.971   0.110
91739SOL    HW277115   2.132  13.851   0.018
91740SOL     OW77116  11.680   4.066  13.771
91740SOL    HW177117  11.747   4.052  13.704
91740SOL    HW277118  11.603   4.020  13.738
91741SOL     OW77119   9.431  12.541   3.357
91741SOL    HW177120   9.405  12.572   3.444
91741SOL    HW277121   9.493  12.470   3.374
91742SOL     OW77122   4.744   8.238   2.706
91742SOL    HW177123   4.759   8.198   2.792
91742SOL    HW277124   4.830   8.272   2.680
91743SOL     OW77125  14.507   1.980  10.075
91743SOL    HW177126  14.571   2.051  10.075
91743SOL    HW277127  14.558   1.903  10.047
91744SOL     OW77128   8.576   6.314   4.154
91744SOL    HW177129   8.594   6.398   4.196
91744SOL    HW277130   8.632   6.251   4.200
91745SOL     OW77131   3.989  12.583   4.481
91745SOL    HW177132   3.997  12.505   4.425
91745SOL    HW277133   4.079  12.601   4.508
91746SOL     OW77134  14.441   8.197   4.354
91746SOL    HW177135  14.462   8.255   4.428
91746SOL    HW277136  14.492   8.232   4.281
91747SOL     OW77137   6.778   8.124   5.758
91747SOL    HW177138   6.696   8.130   5.807
91747SOL    HW277139   6.834   8.069   5.812
91748SOL     OW77140   3.025   1.278   1.799
91748SOL    HW177141   3.083   1.239   1.865
91748SOL    HW277142   3.083   1.309   1.730
91749SOL     OW77143   1.536   0.501  14.847
91749SOL    HW177144   1.484   0.577  14.820
91749SOL    HW277145   1.590   0.481  14.770
91750SOL     OW77146   6.291  14.061   0.446
91750SOL    HW177147   6.371  14.057   0.499
91750SOL    HW277148   6.318  14.106   0.366
91751SOL     OW77149   8.771  10.654  12.848
91751SOL    HW177150   8.831  10.580  12.846
91751SOL    HW277151   8.828  10.731  12.841
91752SOL     OW77152  13.318  13.360  14.635
91752SOL    HW177153  13.355  13.287  14.685
91752SOL    HW277154  13.261  13.405  14.698
91753SOL     OW77155  11.277  11.389   2.196
91753SOL    HW177156  11.186  11.417   2.199
91753SOL    HW277157  11.273  11.294   2.185
91754SOL     OW77158   8.750  12.843   0.621
91754SOL    HW177159   8.702  12.792   0.686
91754SOL    HW277160   8.684  12.864   0.555
91755SOL     OW77161   2.964   0.715   7.541
91755SOL    HW177162   3.038   0.662   7.512
91755SOL    HW277163   2.915   0.734   7.461
91756SOL     OW77164  13.474  10.883   1.044
91756SOL    HW177165  13.541  10.927   0.990
91756SOL    HW277166  13.449  10.950   1.108
91757SOL     OW77167   5.403   6.613   2.936
91757SOL    HW177168   5.351   6.535   2.956
91757SOL    HW277169   5.420   6.653   3.022
91758SOL     OW77170   0.486  10.761  11.947
91758SOL    HW177171   0.542  10.694  11.985
91758SOL    HW277172   0.423  10.712  11.895
91759SOL     OW77173  11.036  13.446   4.054
91759SOL    HW177174  10.956  13.400   4.028
91759SOL    HW277175  11.065  13.400   4.132
91760SOL     OW77176   4.277  13.599  14.509
91760SOL    HW177177   4.356  13.545  14.517
91760SOL    HW277178   4.216  13.544  14.460
91761SOL     OW77179   4.307   0.361  12.784
91761SOL    HW177180   4.326   0.381  12.692
91761SOL    HW277181   4.365   0.418  12.834
91762SOL     OW77182  14.027   3.664   4.722
91762SOL    HW177183  14.004   3.645   4.631
91762SOL    HW277184  13.984   3.595   4.772
91763SOL     OW77185   7.662   9.377  13.470
91763SOL    HW177186   7.734   9.384  13.408
91763SOL    HW277187   7.704   9.365  13.555
91764SOL     OW77188   7.696  12.635  11.984
91764SOL    HW177189   7.601  12.638  11.988
91764SOL    HW277190   7.721  12.579  12.058
91765SOL     OW77191   8.378   4.539  14.144
91765SOL    HW177192   8.346   4.594  14.072
91765SOL    HW277193   8.307   4.476  14.159
91766SOL     OW77194  10.821   1.926  10.430
91766SOL    HW177195  10.737   1.889  10.406
91766SOL    HW277196  10.869   1.854  10.472
91767SOL     OW77197  13.675  13.607  14.229
91767SOL    HW177198  13.580  13.594  14.221
91767SOL    HW277199  13.691  13.691  14.186
91768SOL     OW77200   0.585   7.837   3.397
91768SOL    HW177201   0.547   7.814   3.481
91768SOL    HW277202   0.675   7.862   3.417
91769SOL     OW77203   1.585  10.690   1.117
91769SOL    HW177204   1.557  10.745   1.044
91769SOL    HW277205   1.604  10.605   1.077
91770SOL     OW77206   5.496  11.159   1.000
91770SOL    HW177207   5.422  11.122   1.047
91770SOL    HW277208   5.485  11.254   1.010
91771SOL     OW77209  12.053  13.269   0.121
91771SOL    HW177210  12.052  13.174   0.105
91771SOL    HW277211  12.100  13.305   0.046
91772SOL     OW77212   3.476  14.447  12.221
91772SOL    HW177213   3.391  14.442  12.265
91772SOL    HW277214   3.539  14.435  12.291
91773SOL     OW77215   9.880  13.935  10.830
91773SOL    HW177216   9.838  13.898  10.752
91773SOL    HW277217   9.937  13.866  10.863
91774SOL     OW77218   7.038  14.192  13.288
91774SOL    HW177219   6.958  14.176  13.238
91774SOL    HW277220   7.051  14.112  13.339
91775SOL     OW77221   9.646  10.521   6.711
91775SOL    HW177222   9.682  10.605   6.681
91775SOL    HW277223   9.718  10.481   6.760
91776SOL     OW77224   1.294   6.213  11.018
91776SOL    HW177225   1.378   6.245  11.052
91776SOL    HW277226   1.228   6.261  11.068
91777SOL     OW77227   4.692   0.746   4.126
91777SOL    HW177228   4.749   0.776   4.054
91777SOL    HW277229   4.612   0.797   4.116
91778SOL     OW77230   1.303   2.104   6.593
91778SOL    HW177231   1.347   2.024   6.623
91778SOL    HW277232   1.374   2.167   6.583
91779SOL     OW77233   2.682  14.178   4.294
91779SOL    HW177234   2.629  14.215   4.223
91779SOL    HW277235   2.619  14.157   4.363
91780SOL     OW77236   1.801   6.319   9.126
91780SOL    HW177237   1.773   6.281   9.043
91780SOL    HW277238   1.840   6.402   9.103
91781SOL     OW77239   9.569  14.700   4.503
91781SOL    HW177240   9.547  14.770   4.442
91781SOL    HW277241   9.589  14.625   4.447
91782SOL     OW77242   6.024  14.164   4.767
91782SOL    HW177243   6.100  14.108   4.751
91782SOL    HW277244   5.953  14.103   4.788
91783SOL     OW77245   5.067   2.992   9.826
91783SOL    HW177246   5.098   2.904   9.804
91783SOL    HW277247   4.973   2.990   9.807
91784SOL     OW77248   2.840   6.330   2.329
91784SOL    HW177249   2.745   6.332   2.320
91784SOL    HW277250   2.873   6.329   2.239
91785SOL     OW77251  12.160  13.918   0.765
91785SOL    HW177252  12.121  13.982   0.824
91785SOL    HW277253  12.206  13.857   0.823
91786SOL     OW77254   2.277   2.024   5.251
91786SOL    HW177255   2.207   1.994   5.193
91786SOL    HW277256   2.231   2.057   5.328
91787SOL     OW77257   6.753   0.350   5.086
91787SOL    HW177258   6.674   0.296   5.089
91787SOL    HW277259   6.785   0.341   4.996
91788SOL     OW77260  14.012   1.505  12.592
91788SOL    HW177261  14.041   1.549  12.512
91788SOL    HW277262  14.020   1.571  12.660
91789SOL     OW77263   7.757  12.330   6.623
91789SOL    HW177264   7.802  12.319   6.538
91789SOL    HW277265   7.827  12.355   6.683
91790SOL     OW77266  14.410   4.961   4.016
91790SOL    HW177267  14.481   5.021   4.037
91790SOL    HW277268  14.330   5.010   4.037
91791SOL     OW77269   1.970   5.515   6.689
91791SOL    HW177270   1.997   5.589   6.634
91791SOL    HW277271   1.889   5.485   6.650
91792SOL     OW77272   7.569   6.470  13.947
91792SOL    HW177273   7.607   6.462  13.860
91792SOL    HW277274   7.479   6.437  13.937
91793SOL     OW77275   1.644   6.800   9.312
91793SOL    HW177276   1.605   6.723   9.353
91793SOL    HW277277   1.632   6.870   9.376
91794SOL     OW77278   0.256  12.863   6.924
91794SOL    HW177279   0.349  12.851   6.940
91794SOL    HW277280   0.238  12.954   6.948
91795SOL     OW77281   9.632   7.207   9.543
91795SOL    HW177282   9.650   7.130   9.490
91795SOL    HW277283   9.655   7.181   9.632
91796SOL     OW77284   5.134   4.204   2.222
91796SOL    HW177285   5.085   4.277   2.260
91796SOL    HW277286   5.142   4.225   2.130
91797SOL     OW77287   8.381   8.774   8.300
91797SOL    HW177288   8.435   8.738   8.229
91797SOL    HW277289   8.375   8.702   8.363
91798SOL     OW77290  13.589   9.476   5.256
91798SOL    HW177291  13.675   9.440   5.231
91798SOL    HW277292  13.534   9.398   5.269
91799SOL     OW77293  13.844   8.940   1.023
91799SOL    HW177294  13.804   8.863   1.062
91799SOL    HW277295  13.885   8.986   1.096
91800SOL     OW77296   2.852   9.455  12.964
91800SOL    HW177297   2.908   9.387  13.002
91800SOL    HW277298   2.872   9.533  13.015
91801SOL     OW77299   2.024  14.191   8.075
91801SOL    HW177300   2.083  14.254   8.034
91801SOL    HW277301   1.950  14.185   8.015
91802SOL     OW77302   0.188   0.432  13.432
91802SOL    HW177303   0.251   0.502  13.449
91802SOL    HW277304   0.234   0.372  13.373
91803SOL     OW77305   0.320  12.712  10.920
91803SOL    HW177306   0.333  12.617  10.923
91803SOL    HW277307   0.279  12.734  11.003
91804SOL     OW77308   2.573  10.939   4.011
91804SOL    HW177309   2.639  10.871   4.029
91804SOL    HW277310   2.581  10.956   3.917
91805SOL     OW77311  13.001   5.958   0.349
91805SOL    HW177312  12.964   5.981   0.434
91805SOL    HW277313  13.062   5.887   0.368
91806SOL     OW77314   2.075   5.899   9.130
91806SOL    HW177315   2.107   5.985   9.104
91806SOL    HW277316   2.009   5.917   9.197
91807SOL     OW77317   4.217   5.196  13.273
91807SOL    HW177318   4.200   5.233  13.186
91807SOL    HW277319   4.131   5.167  13.304
91808SOL     OW77320   1.350  14.443  13.856
91808SOL    HW177321   1.262  14.442  13.894
91808SOL    HW277322   1.335  14.437  13.762
91809SOL     OW77323   2.662   7.767   0.943
91809SOL    HW177324   2.722   7.753   0.870
91809SOL    HW277325   2.705   7.726   1.018
91810SOL     OW77326   8.398   3.368   3.881
91810SOL    HW177327   8.311   3.364   3.922
91810SOL    HW277328   8.431   3.455   3.905
91811SOL     OW77329   4.676   6.414  12.111
91811SOL    HW177330   4.619   6.348  12.149
91811SOL    HW277331   4.757   6.367  12.090
91812SOL     OW77332   8.891  13.488  14.072
91812SOL    HW177333   8.851  13.499  13.986
91812SOL    HW277334   8.985  13.483  14.055
91813SOL     OW77335   1.753  13.057  10.808
91813SOL    HW177336   1.727  13.135  10.758
91813SOL    HW277337   1.848  13.051  10.794
91814SOL     OW77338   9.624   9.437   4.575
91814SOL    HW177339   9.708   9.455   4.616
91814SOL    HW277340   9.561   9.441   4.648
91815SOL     OW77341  13.943   7.632   5.914
91815SOL    HW177342  13.887   7.602   5.842
91815SOL    HW277343  13.943   7.559   5.976
91816SOL     OW77344   2.910   6.414   9.156
91816SOL    HW177345   2.891   6.450   9.242
91816SOL    HW277346   2.851   6.460   9.097
91817SOL     OW77347   1.180  10.338   0.647
91817SOL    HW177348   1.265  10.330   0.692
91817SOL    HW277349   1.203  10.364   0.558
91818SOL     OW77350   9.194   9.242   9.109
91818SOL    HW177351   9.218   9.224   9.019
91818SOL    HW277352   9.272   9.223   9.160
91819SOL     OW77353   9.931  11.433   4.307
91819SOL    HW177354   9.991  11.466   4.241
91819SOL    HW277355   9.948  11.486   4.384
91820SOL     OW77356   1.631  12.725   3.195
91820SOL    HW177357   1.624  12.714   3.290
91820SOL    HW277358   1.612  12.638   3.160
91821SOL     OW77359   6.627   0.977   4.542
91821SOL    HW177360   6.603   0.975   4.450
91821SOL    HW277361   6.678   1.058   4.552
91822SOL     OW77362  14.500  12.698  13.964
91822SOL    HW177363  14.564  12.659  14.024
91822SOL    HW277364  14.553  12.744  13.899
91823SOL     OW77365   3.537   7.203   2.500
91823SOL    HW177366   3.521   7.285   2.452
91823SOL    HW277367   3.589   7.230   2.575
91824SOL     OW77368  10.824   1.868   0.911
91824SOL    HW177369  10.900   1.918   0.942
91824SOL    HW277370  10.750   1.907   0.956
91825SOL     OW77371  14.147  12.608  12.905
91825SOL    HW177372  14.199  12.528  12.905
91825SOL    HW277373  14.210  12.678  12.885
91826SOL     OW77374   0.825  11.668   5.922
91826SOL    HW177375   0.898  11.726   5.899
91826SOL    HW277376   0.755  11.692   5.861
91827SOL     OW77377   1.198   9.929   2.245
91827SOL    HW177378   1.107   9.958   2.251
91827SOL    HW277379   1.245  10.004   2.210
91828SOL     OW77380  13.393   7.627   8.482
91828SOL    HW177381  13.472   7.651   8.435
91828SOL    HW277382  13.322   7.670   8.433
91829SOL     OW77383   7.506   2.072   3.431
91829SOL    HW177384   7.573   2.130   3.467
91829SOL    HW277385   7.549   2.028   3.358
91830SOL     OW77386   4.273   8.011  12.610
91830SOL    HW177387   4.276   8.019  12.706
91830SOL    HW277388   4.282   8.100  12.578
91831SOL     OW77389  13.604   1.560   9.485
91831SOL    HW177390  13.662   1.563   9.561
91831SOL    HW277391  13.608   1.469   9.456
91832SOL     OW77392   1.265  10.071   2.764
91832SOL    HW177393   1.306  10.068   2.678
91832SOL    HW277394   1.211  10.150   2.761
91833SOL     OW77395   3.024  13.291   1.434
91833SOL    HW177396   2.951  13.320   1.489
91833SOL    HW277397   3.043  13.203   1.465
91834SOL     OW77398  11.423   9.588   8.547
91834SOL    HW177399  11.332   9.568   8.571
91834SOL    HW277400  11.427   9.570   8.453
91835SOL     OW77401   2.639   3.735   8.007
91835SOL    HW177402   2.635   3.688   8.091
91835SOL    HW277403   2.640   3.827   8.031
91836SOL     OW77404   7.803  10.452  12.547
91836SOL    HW177405   7.765  10.427  12.631
91836SOL    HW277406   7.766  10.389  12.485
91837SOL     OW77407   5.751  11.408   4.894
91837SOL    HW177408   5.845  11.398   4.878
91837SOL    HW277409   5.711  11.401   4.807
91838SOL     OW77410   4.896   4.798   2.214
91838SOL    HW177411   4.948   4.788   2.134
91838SOL    HW277412   4.959   4.829   2.279
91839SOL     OW77413   5.055   1.462  11.427
91839SOL    HW177414   5.063   1.386  11.369
91839SOL    HW277415   5.031   1.425  11.512
91840SOL     OW77416   5.383   0.846   4.893
91840SOL    HW177417   5.395   0.756   4.924
91840SOL    HW277418   5.372   0.837   4.798
91841SOL     OW77419   5.389  11.697   6.897
91841SOL    HW177420   5.480  11.666   6.901
91841SOL    HW277421   5.396  11.792   6.900
91842SOL     OW77422   4.643   7.328   3.556
91842SOL    HW177423   4.726   7.282   3.563
91842SOL    HW277424   4.664   7.410   3.511
91843SOL     OW77425   8.554   3.490   8.549
91843SOL    HW177426   8.507   3.440   8.482
91843SOL    HW277427   8.488   3.507   8.617
91844SOL     OW77428  12.146   9.527  12.334
91844SOL    HW177429  12.072   9.494  12.385
91844SOL    HW277430  12.117   9.612  12.302
91845SOL     OW77431   8.517   2.396   7.210
91845SOL    HW177432   8.507   2.358   7.123
91845SOL    HW277433   8.611   2.406   7.222
91846SOL     OW77434   1.949   4.824   8.648
91846SOL    HW177435   2.008   4.777   8.589
91846SOL    HW277436   1.984   4.912   8.653
91847SOL     OW77437   2.696   2.209   2.279
91847SOL    HW177438   2.660   2.180   2.363
91847SOL    HW277439   2.757   2.140   2.254
91848SOL     OW77440   4.978   9.527   8.774
91848SOL    HW177441   4.955   9.438   8.800
91848SOL    HW277442   4.895   9.572   8.764
91849SOL     OW77443   8.008  12.798   7.996
91849SOL    HW177444   7.945  12.788   7.925
91849SOL    HW277445   8.054  12.714   8.000
91850SOL     OW77446   3.672   8.537   9.210
91850SOL    HW177447   3.620   8.509   9.135
91850SOL    HW277448   3.608   8.550   9.280
91851SOL     OW77449   3.374  12.074   4.072
91851SOL    HW177450   3.425  12.134   4.017
91851SOL    HW277451   3.315  12.029   4.011
91852SOL     OW77452   8.590   8.257   0.677
91852SOL    HW177453   8.620   8.236   0.765
91852SOL    HW277454   8.567   8.172   0.639
91853SOL     OW77455  14.639   7.865   6.727
91853SOL    HW177456  14.639   7.899   6.817
91853SOL    HW277457  14.586   7.927   6.678
91854SOL     OW77458  13.339   9.972  14.614
91854SOL    HW177459  13.305   9.946  14.529
91854SOL    HW277460  13.268   9.953  14.675
91855SOL     OW77461   9.722   8.160   7.335
91855SOL    HW177462   9.817   8.145   7.334
91855SOL    HW277463   9.686   8.084   7.289
91856SOL     OW77464   5.050  10.023   0.679
91856SOL    HW177465   5.038   9.950   0.740
91856SOL    HW277466   5.142  10.048   0.690
91857SOL     OW77467   8.443  12.272  13.330
91857SOL    HW177468   8.398  12.202  13.283
91857SOL    HW277469   8.449  12.240  13.420
91858SOL     OW77470  13.057  14.102   7.158
91858SOL    HW177471  13.149  14.122   7.142
91858SOL    HW277472  13.057  14.011   7.188
91859SOL     OW77473   5.536  14.269   1.180
91859SOL    HW177474   5.471  14.231   1.121
91859SOL    HW277475   5.506  14.246   1.268
91860SOL     OW77476   5.256   1.230   6.667
91860SOL    HW177477   5.292   1.295   6.606
91860SOL    HW277478   5.326   1.165   6.677
91861SOL     OW77479   0.163   7.510   1.529
91861SOL    HW177480   0.142   7.603   1.531
91861SOL    HW277481   0.225   7.497   1.601
91862SOL     OW77482  10.516   5.657  11.829
91862SOL    HW177483  10.530   5.742  11.786
91862SOL    HW277484  10.469   5.679  11.909
91863SOL     OW77485   2.463  14.267   5.536
91863SOL    HW177486   2.464  14.250   5.442
91863SOL    HW277487   2.444  14.361   5.544
91864SOL     OW77488   3.027   9.521   5.049
91864SOL    HW177489   3.021   9.447   5.110
91864SOL    HW277490   2.972   9.589   5.089
91865SOL     OW77491   3.636   4.909   7.201
91865SOL    HW177492   3.638   4.906   7.106
91865SOL    HW277493   3.619   5.000   7.223
91866SOL     OW77494   9.293   3.136   1.089
91866SOL    HW177495   9.368   3.183   1.125
91866SOL    HW277496   9.222   3.200   1.090
91867SOL     OW77497   9.373   4.777  11.883
91867SOL    HW177498   9.370   4.686  11.853
91867SOL    HW277499   9.305   4.822  11.832
91868SOL     OW77500   1.978   4.263   0.057
91868SOL    HW177501   2.054   4.222   0.016
91868SOL    HW277502   2.008   4.351   0.080
91869SOL     OW77503   7.639   1.297  11.868
91869SOL    HW177504   7.701   1.233  11.902
91869SOL    HW277505   7.657   1.377  11.917
91870SOL     OW77506   1.832   7.142   2.567
91870SOL    HW177507   1.816   7.232   2.595
91870SOL    HW277508   1.801   7.140   2.476
91871SOL     OW77509  12.194  10.595   1.958
91871SOL    HW177510  12.191  10.522   2.020
91871SOL    HW277511  12.103  10.623   1.950
91872SOL     OW77512  12.143   0.214   2.120
91872SOL    HW177513  12.148   0.122   2.092
91872SOL    HW277514  12.214   0.224   2.182
91873SOL     OW77515  13.923   2.009   3.686
91873SOL    HW177516  13.976   1.996   3.764
91873SOL    HW277517  13.834   1.989   3.713
91874SOL     OW77518  12.213   8.227  11.426
91874SOL    HW177519  12.166   8.144  11.424
91874SOL    HW277520  12.261   8.230  11.343
91875SOL     OW77521   4.338   7.835  10.165
91875SOL    HW177522   4.245   7.820  10.150
91875SOL    HW277523   4.379   7.822  10.080
91876SOL     OW77524   3.523  10.630   1.627
91876SOL    HW177525   3.505  10.708   1.679
91876SOL    HW277526   3.495  10.653   1.538
91877SOL     OW77527  12.778   9.147   7.330
91877SOL    HW177528  12.697   9.162   7.379
91877SOL    HW277529  12.764   9.193   7.247
91878SOL     OW77530  10.448   7.774   7.458
91878SOL    HW177531  10.513   7.728   7.406
91878SOL    HW277532  10.481   7.770   7.547
91879SOL     OW77533   8.442  10.156   3.195
91879SOL    HW177534   8.497  10.167   3.272
91879SOL    HW277535   8.354  10.178   3.225
91880SOL     OW77536   7.026   5.191   8.295
91880SOL    HW177537   7.116   5.178   8.266
91880SOL    HW277538   7.024   5.159   8.385
91881SOL     OW77539  13.920  13.704   9.081
91881SOL    HW177540  13.965  13.781   9.048
91881SOL    HW277541  13.831  13.711   9.048
91882SOL     OW77542  10.725   6.449  14.323
91882SOL    HW177543  10.642   6.496  14.327
91882SOL    HW277544  10.792   6.515  14.337
91883SOL     OW77545   8.877   9.767  10.943
91883SOL    HW177546   8.868   9.739  11.034
91883SOL    HW277547   8.888   9.862  10.949
91884SOL     OW77548   4.622   3.501   6.209
91884SOL    HW177549   4.713   3.505   6.237
91884SOL    HW277550   4.618   3.560   6.133
91885SOL     OW77551  11.988  14.440   7.637
91885SOL    HW177552  12.074  14.469   7.667
91885SOL    HW277553  11.972  14.358   7.685
91886SOL     OW77554   3.930  13.455   7.612
91886SOL    HW177555   3.928  13.485   7.703
91886SOL    HW277556   3.894  13.366   7.615
91887SOL     OW77557  14.758  14.040   9.240
91887SOL    HW177558  14.757  14.097   9.317
91887SOL    HW277559  14.672  14.050   9.201
91888SOL     OW77560   9.147  12.365   9.567
91888SOL    HW177561   9.111  12.282   9.596
91888SOL    HW277562   9.195  12.398   9.644
91889SOL     OW77563   1.991   7.640   0.854
91889SOL    HW177564   2.049   7.638   0.930
91889SOL    HW277565   1.984   7.549   0.826
91890SOL     OW77566   0.296   1.349   0.813
91890SOL    HW177567   0.254   1.316   0.734
91890SOL    HW277568   0.290   1.444   0.806
91891SOL     OW77569   4.512   7.931  12.038
91891SOL    HW177570   4.444   7.868  12.064
91891SOL    HW277571   4.520   7.920  11.943
91892SOL     OW77572   4.635   9.841  10.620
91892SOL    HW177573   4.627   9.803  10.533
91892SOL    HW277574   4.548   9.875  10.639
91893SOL     OW77575   6.447   2.420   9.554
91893SOL    HW177576   6.355   2.393   9.559
91893SOL    HW277577   6.486   2.359   9.491
91894SOL     OW77578  11.111  14.524   4.163
91894SOL    HW177579  11.099  14.560   4.251
91894SOL    HW277580  11.170  14.450   4.175
91895SOL     OW77581   0.009   6.641  14.800
91895SOL    HW177582  14.877   6.636   0.015
91895SOL    HW277583   0.095   6.601  14.785
91896SOL     OW77584   6.298   8.219  10.317
91896SOL    HW177585   6.367   8.257  10.263
91896SOL    HW277586   6.337   8.140  10.355
91897SOL     OW77587  11.772   3.250   7.650
91897SOL    HW177588  11.717   3.256   7.728
91897SOL    HW277589  11.818   3.334   7.646
91898SOL     OW77590   9.997   7.624   6.647
91898SOL    HW177591   9.914   7.616   6.694
91898SOL    HW277592   9.988   7.704   6.596
91899SOL     OW77593   2.287   9.741   0.859
91899SOL    HW177594   2.348   9.739   0.933
91899SOL    HW277595   2.274   9.649   0.837
91900SOL     OW77596   0.173  10.525  14.325
91900SOL    HW177597   0.151  10.468  14.251
91900SOL    HW277598   0.162  10.469  14.402
91901SOL     OW77599   9.628  14.405   3.886
91901SOL    HW177600   9.650  14.458   3.810
91901SOL    HW277601   9.621  14.316   3.853
91902SOL     OW77602   3.391  11.735   7.736
91902SOL    HW177603   3.472  11.784   7.748
91902SOL    HW277604   3.332  11.795   7.691
91903SOL     OW77605   7.610  12.553   5.612
91903SOL    HW177606   7.638  12.608   5.685
91903SOL    HW277607   7.523  12.585   5.591
91904SOL     OW77608   3.955   3.415   5.560
91904SOL    HW177609   3.916   3.388   5.477
91904SOL    HW277610   3.905   3.369   5.626
91905SOL     OW77611  10.226   0.771  11.186
91905SOL    HW177612  10.311   0.730  11.169
91905SOL    HW277613  10.174   0.755  11.108
91906SOL     OW77614  11.922  13.815   2.573
91906SOL    HW177615  11.932  13.882   2.505
91906SOL    HW277616  11.898  13.864   2.652
91907SOL     OW77617   6.736   6.562  14.187
91907SOL    HW177618   6.805   6.532  14.127
91907SOL    HW277619   6.771   6.544  14.274
91908SOL     OW77620   1.337   4.316   8.721
91908SOL    HW177621   1.411   4.315   8.783
91908SOL    HW277622   1.264   4.280   8.771
91909SOL     OW77623  12.963   1.737   1.165
91909SOL    HW177624  12.875   1.773   1.151
91909SOL    HW277625  13.022   1.802   1.127
91910SOL     OW77626  12.941   2.036   4.234
91910SOL    HW177627  13.032   2.006   4.232
91910SOL    HW277628  12.943   2.119   4.186
91911SOL     OW77629  11.517   5.037  11.072
91911SOL    HW177630  11.436   5.002  11.034
91911SOL    HW277631  11.489   5.081  11.153
91912SOL     OW77632   5.921  12.193   6.171
91912SOL    HW177633   5.877  12.268   6.131
91912SOL    HW277634   5.975  12.157   6.101
91913SOL     OW77635   3.554   5.292   3.842
91913SOL    HW177636   3.609   5.333   3.909
91913SOL    HW277637   3.465   5.321   3.862
91914SOL     OW77638  13.476   3.915   8.492
91914SOL    HW177639  13.511   3.951   8.410
91914SOL    HW277640  13.540   3.942   8.559
91915SOL     OW77641   1.833  13.460   4.645
91915SOL    HW177642   1.815  13.393   4.579
91915SOL    HW277643   1.927  13.454   4.660
91916SOL     OW77644   1.224   0.901   0.922
91916SOL    HW177645   1.226   0.847   0.843
91916SOL    HW277646   1.133   0.928   0.930
91917SOL     OW77647  13.635   8.919   3.372
91917SOL    HW177648  13.622   8.908   3.466
91917SOL    HW277649  13.580   8.995   3.350
91918SOL     OW77650  10.571  14.514   2.645
91918SOL    HW177651  10.582  14.418   2.646
91918SOL    HW277652  10.506  14.530   2.577
91919SOL     OW77653  11.981   0.947   3.337
91919SOL    HW177654  12.001   1.041   3.339
91919SOL    HW277655  12.045   0.911   3.276
91920SOL     OW77656   7.449   2.223   1.029
91920SOL    HW177657   7.496   2.140   1.024
91920SOL    HW277658   7.482   2.264   1.109
91921SOL     OW77659  14.605   5.221   8.942
91921SOL    HW177660  14.650   5.140   8.921
91921SOL    HW277661  14.648   5.287   8.888
91922SOL     OW77662  14.598   3.371   9.088
91922SOL    HW177663  14.592   3.344   8.996
91922SOL    HW277664  14.690   3.395   9.100
91923SOL     OW77665   0.280   4.695   5.396
91923SOL    HW177666   0.200   4.712   5.446
91923SOL    HW277667   0.255   4.626   5.334
91924SOL     OW77668  10.309  14.652   1.751
91924SOL    HW177669  10.400  14.664   1.721
91924SOL    HW277670  10.257  14.662   1.671
91925SOL     OW77671  13.052   0.419   2.827
91925SOL    HW177672  13.067   0.513   2.825
91925SOL    HW277673  13.043   0.397   2.920
91926SOL     OW77674   2.095   3.464  10.762
91926SOL    HW177675   2.029   3.462  10.692
91926SOL    HW277676   2.047   3.439  10.841
91927SOL     OW77677  10.647   1.800   3.991
91927SOL    HW177678  10.598   1.755   4.059
91927SOL    HW277679  10.649   1.891   4.019
91928SOL     OW77680   0.622   4.179   5.891
91928SOL    HW177681   0.543   4.193   5.944
91928SOL    HW277682   0.595   4.198   5.801
91929SOL     OW77683  10.864  11.388   9.347
91929SOL    HW177684  10.915  11.467   9.333
91929SOL    HW277685  10.924  11.329   9.394
91930SOL     OW77686   8.194   3.314  10.803
91930SOL    HW177687   8.145   3.395  10.815
91930SOL    HW277688   8.251   3.309  10.880
91931SOL     OW77689   7.320   7.620   5.267
91931SOL    HW177690   7.412   7.647   5.257
91931SOL    HW277691   7.276   7.698   5.299
91932SOL     OW77692  11.485  10.850   6.913
91932SOL    HW177693  11.499  10.755   6.923
91932SOL    HW277694  11.444  10.859   6.827
91933SOL     OW77695  10.412   2.798   9.017
91933SOL    HW177696  10.381   2.879   9.056
91933SOL    HW277697  10.339   2.768   8.962
91934SOL     OW77698   3.000  10.147   1.510
91934SOL    HW177699   3.041  10.073   1.464
91934SOL    HW277700   3.051  10.155   1.591
91935SOL     OW77701  14.606   3.605   4.956
91935SOL    HW177702  14.586   3.511   4.953
91935SOL    HW277703  14.621   3.629   4.864
91936SOL     OW77704   7.809  14.693   1.193
91936SOL    HW177705   7.904  14.693   1.187
91936SOL    HW277706   7.779  14.713   1.104
91937SOL     OW77707  13.828  14.294   7.707
91937SOL    HW177708  13.924  14.287   7.707
91937SOL    HW277709  13.811  14.382   7.672
91938SOL     OW77710   1.748   4.670   7.711
91938SOL    HW177711   1.706   4.754   7.694
91938SOL    HW277712   1.831   4.674   7.663
91939SOL     OW77713  14.332   2.239   3.288
91939SOL    HW177714  14.323   2.334   3.290
91939SOL    HW277715  14.242   2.206   3.285
91940SOL     OW77716   0.757   4.063   9.702
91940SOL    HW177717   0.786   4.012   9.626
91940SOL    HW277718   0.668   4.031   9.719
91941SOL     OW77719   9.153   1.270   3.843
91941SOL    HW177720   9.076   1.216   3.860
91941SOL    HW277721   9.203   1.267   3.925
91942SOL     OW77722   9.747  13.476  13.914
91942SOL    HW177723   9.840  13.471  13.892
91942SOL    HW277724   9.724  13.387  13.940
91943SOL     OW77725   9.460   5.239   5.546
91943SOL    HW177726   9.481   5.193   5.465
91943SOL    HW277727   9.380   5.197   5.578
91944SOL     OW77728  12.486   9.248   0.450
91944SOL    HW177729  12.581   9.238   0.443
91944SOL    HW277730  12.459   9.178   0.509
91945SOL     OW77731   8.206  10.855   5.323
91945SOL    HW177732   8.247  10.811   5.398
91945SOL    HW277733   8.279  10.897   5.278
91946SOL     OW77734   7.528  11.951  11.142
91946SOL    HW177735   7.605  11.990  11.100
91946SOL    HW277736   7.458  11.964  11.079
91947SOL     OW77737  10.062   7.114   8.601
91947SOL    HW177738   9.989   7.150   8.552
91947SOL    HW277739  10.117   7.189   8.621
91948SOL     OW77740  11.023   3.452  14.695
91948SOL    HW177741  11.115   3.467  14.676
91948SOL    HW277742  11.022   3.374  14.750
91949SOL     OW77743   2.221   3.024   0.639
91949SOL    HW177744   2.200   3.056   0.726
91949SOL    HW277745   2.316   3.010   0.641
91950SOL     OW77746  13.853   9.294  12.011
91950SOL    HW177747  13.879   9.218  12.064
91950SOL    HW277748  13.758   9.288  12.005
91951SOL     OW77749   1.735   1.592   0.891
91951SOL    HW177750   1.692   1.569   0.808
91951SOL    HW277751   1.674   1.650   0.935
91952SOL     OW77752  13.197   7.957   7.765
91952SOL    HW177753  13.198   7.967   7.861
91952SOL    HW277754  13.283   7.988   7.737
91953SOL     OW77755   0.161   5.530   3.336
91953SOL    HW177756   0.182   5.607   3.282
91953SOL    HW277757   0.221   5.462   3.304
91954SOL     OW77758   5.926   0.067  11.513
91954SOL    HW177759   6.019   0.053  11.530
91954SOL    HW277760   5.921   0.157  11.481
91955SOL     OW77761  11.197  10.253   1.785
91955SOL    HW177762  11.165  10.337   1.817
91955SOL    HW277763  11.123  10.214   1.739
91956SOL     OW77764   1.349   7.455   6.183
91956SOL    HW177765   1.428   7.484   6.229
91956SOL    HW277766   1.382   7.411   6.104
91957SOL     OW77767  12.319   4.874   6.829
91957SOL    HW177768  12.364   4.792   6.850
91957SOL    HW277769  12.380   4.922   6.772
91958SOL     OW77770   8.674  14.666  12.994
91958SOL    HW177771   8.629  14.665  13.079
91958SOL    HW277772   8.764  14.642  13.014
91959SOL     OW77773   1.334   2.679  14.857
91959SOL    HW177774   1.367   2.725   0.055
91959SOL    HW277775   1.401   2.695  14.790
91960SOL     OW77776   5.778   6.181  13.667
91960SOL    HW177777   5.764   6.148  13.578
91960SOL    HW277778   5.826   6.112  13.711
91961SOL     OW77779   7.495  13.356   6.192
91961SOL    HW177780   7.472  13.432   6.139
91961SOL    HW277781   7.572  13.319   6.148
91962SOL     OW77782   9.166  10.311   9.982
91962SOL    HW177783   9.152  10.387  10.038
91962SOL    HW277784   9.122  10.333   9.900
91963SOL     OW77785  11.193  13.681   5.232
91963SOL    HW177786  11.129  13.724   5.175
91963SOL    HW277787  11.253  13.750   5.257
91964SOL     OW77788   9.207   1.782  14.805
91964SOL    HW177789   9.172   1.870  14.819
91964SOL    HW277790   9.262   1.790  14.727
91965SOL     OW77791   8.231   3.734   6.448
91965SOL    HW177792   8.250   3.662   6.388
91965SOL    HW277793   8.297   3.728   6.516
91966SOL     OW77794   7.787   5.425  12.049
91966SOL    HW177795   7.696   5.454  12.050
91966SOL    HW277796   7.815   5.429  12.141
91967SOL     OW77797   7.147  12.437   7.682
91967SOL    HW177798   7.227  12.460   7.636
91967SOL    HW277799   7.104  12.373   7.625
91968SOL     OW77800   4.177   9.638  14.854
91968SOL    HW177801   4.190   9.605   0.063
91968SOL    HW277802   4.205   9.730  14.857
91969SOL     OW77803  10.739   9.130   8.174
91969SOL    HW177804  10.796   9.155   8.101
91969SOL    HW277805  10.650   9.134   8.138
91970SOL     OW77806  10.087   9.828   4.842
91970SOL    HW177807  10.032   9.877   4.781
91970SOL    HW277808  10.101   9.888   4.915
91971SOL     OW77809   2.111  10.795   8.724
91971SOL    HW177810   2.118  10.740   8.646
91971SOL    HW277811   2.199  10.829   8.738
91972SOL     OW77812   6.645   2.165  11.623
91972SOL    HW177813   6.732   2.201  11.637
91972SOL    HW277814   6.643   2.085  11.675
91973SOL     OW77815  13.785   5.648   7.931
91973SOL    HW177816  13.844   5.623   7.860
91973SOL    HW277817  13.798   5.582   7.998
91974SOL     OW77818   1.476   1.328   7.083
91974SOL    HW177819   1.389   1.288   7.083
91974SOL    HW277820   1.461   1.420   7.062
91975SOL     OW77821   8.490  10.516   4.092
91975SOL    HW177822   8.527  10.526   4.179
91975SOL    HW277823   8.555  10.467   4.042
91976SOL     OW77824   0.221  13.975   3.711
91976SOL    HW177825   0.215  13.986   3.806
91976SOL    HW277826   0.140  14.013   3.677
91977SOL     OW77827  14.168   5.711  12.583
91977SOL    HW177828  14.172   5.684  12.675
91977SOL    HW277829  14.157   5.806  12.586
91978SOL     OW77830  13.013   3.812   9.185
91978SOL    HW177831  13.096   3.809   9.136
91978SOL    HW277832  13.040   3.803   9.277
91979SOL     OW77833  11.111   2.249   5.889
91979SOL    HW177834  11.151   2.176   5.843
91979SOL    HW277835  11.180   2.315   5.895
91980SOL     OW77836  10.115   6.597   0.999
91980SOL    HW177837  10.136   6.537   1.071
91980SOL    HW277838  10.033   6.638   1.026
91981SOL     OW77839   7.736  11.727   6.968
91981SOL    HW177840   7.654  11.678   6.970
91981SOL    HW277841   7.804  11.659   6.964
91982SOL     OW77842   6.864  12.791  10.263
91982SOL    HW177843   6.932  12.850  10.296
91982SOL    HW277844   6.791  12.803  10.324
91983SOL     OW77845  10.707   3.125  14.438
91983SOL    HW177846  10.766   3.189  14.477
91983SOL    HW277847  10.756   3.043  14.437
91984SOL     OW77848   8.628   7.658   6.768
91984SOL    HW177849   8.577   7.737   6.750
91984SOL    HW277850   8.705   7.666   6.711
91985SOL     OW77851   9.635   3.645   5.294
91985SOL    HW177852   9.627   3.670   5.202
91985SOL    HW277853   9.634   3.728   5.342
91986SOL     OW77854   2.257   7.825   5.765
91986SOL    HW177855   2.167   7.809   5.792
91986SOL    HW277856   2.273   7.761   5.696
91987SOL     OW77857  12.491   9.038   5.914
91987SOL    HW177858  12.532   8.993   5.841
91987SOL    HW277859  12.525   9.127   5.911
91988SOL     OW77860   4.729  11.842   2.311
91988SOL    HW177861   4.776  11.921   2.284
91988SOL    HW277862   4.793  11.772   2.302
91989SOL     OW77863  10.024  10.908   2.046
91989SOL    HW177864   9.984  10.995   2.049
91989SOL    HW277865  10.103  10.917   2.099
91990SOL     OW77866  12.558  14.634   6.096
91990SOL    HW177867  12.631  14.691   6.118
91990SOL    HW277868  12.546  14.580   6.174
91991SOL     OW77869   4.861   9.108  14.136
91991SOL    HW177870   4.769   9.112  14.110
91991SOL    HW277871   4.910   9.131  14.057
91992SOL     OW77872  12.897   5.791   3.958
91992SOL    HW177873  12.841   5.855   3.913
91992SOL    HW277874  12.934   5.840   4.031
91993SOL     OW77875   7.253  14.273   6.553
91993SOL    HW177876   7.210  14.356   6.575
91993SOL    HW277877   7.274  14.234   6.638
91994SOL     OW77878   8.063   5.395   2.168
91994SOL    HW177879   8.137   5.401   2.108
91994SOL    HW277880   8.052   5.484   2.202
91995SOL     OW77881   0.020   9.841   1.141
91995SOL    HW177882  14.850   9.762   1.160
91995SOL    HW277883   0.111   9.812   1.139
91996SOL     OW77884   5.724   4.853   3.681
91996SOL    HW177885   5.709   4.922   3.616
91996SOL    HW277886   5.813   4.822   3.663
91997SOL     OW77887   0.117  14.424   9.122
91997SOL    HW177888   0.135  14.364   9.194
91997SOL    HW277889   0.092  14.367   9.049
91998SOL     OW77890   8.929   6.131  14.569
91998SOL    HW177891   8.954   6.222  14.583
91998SOL    HW277892   8.872   6.133  14.492
91999SOL     OW77893  14.374   1.237   3.750
91999SOL    HW177894  14.443   1.274   3.694
91999SOL    HW277895  14.297   1.233   3.692
92000SOL     OW77896   9.241  12.990   0.750
92000SOL    HW177897   9.322  12.948   0.722
92000SOL    HW277898   9.201  13.021   0.669
92001SOL     OW77899   8.165   6.262   7.782
92001SOL    HW177900   8.162   6.215   7.865
92001SOL    HW277901   8.174   6.354   7.806
92002SOL     OW77902   0.441   9.211   4.841
92002SOL    HW177903   0.464   9.134   4.893
92002SOL    HW277904   0.358   9.187   4.799
92003SOL     OW77905  14.416   2.006  13.709
92003SOL    HW177906  14.381   2.087  13.745
92003SOL    HW277907  14.377   1.999  13.622
92004SOL     OW77908   8.445   5.680   0.169
92004SOL    HW177909   8.489   5.603   0.133
92004SOL    HW277910   8.471   5.752   0.112
92005SOL     OW77911   7.704   6.640  10.147
92005SOL    HW177912   7.731   6.701  10.078
92005SOL    HW277913   7.620   6.674  10.178
92006SOL     OW77914  13.217   6.637   2.232
92006SOL    HW177915  13.265   6.554   2.223
92006SOL    HW277916  13.286   6.703   2.236
92007SOL     OW77917   2.335   0.475  14.549
92007SOL    HW177918   2.298   0.403  14.499
92007SOL    HW277919   2.377   0.433  14.624
92008SOL     OW77920   2.730  12.794   5.628
92008SOL    HW177921   2.753  12.879   5.591
92008SOL    HW277922   2.813  12.746   5.630
92009SOL     OW77923   6.916  12.921  11.630
92009SOL    HW177924   6.913  12.839  11.581
92009SOL    HW277925   7.005  12.954  11.615
92010SOL     OW77926  13.641   4.804   0.912
92010SOL    HW177927  13.583   4.868   0.953
92010SOL    HW277928  13.662   4.742   0.982
92011SOL     OW77929   4.186  10.519   1.751
92011SOL    HW177930   4.099  10.549   1.723
92011SOL    HW277931   4.179  10.509   1.846
92012SOL     OW77932   5.520   6.286  12.925
92012SOL    HW177933   5.506   6.332  13.008
92012SOL    HW277934   5.603   6.322  12.893
92013SOL     OW77935  11.029   5.200  10.276
92013SOL    HW177936  11.026   5.107  10.298
92013SOL    HW277937  11.073   5.204  10.192
92014SOL     OW77938   9.989   8.618   8.859
92014SOL    HW177939   9.963   8.527   8.872
92014SOL    HW277940   9.948   8.643   8.776
92015SOL     OW77941  11.396  12.871   3.992
92015SOL    HW177942  11.478  12.837   4.027
92015SOL    HW277943  11.360  12.798   3.941
92016SOL     OW77944  14.364  14.094  13.759
92016SOL    HW177945  14.333  14.004  13.748
92016SOL    HW277946  14.284  14.147  13.753
92017SOL     OW77947  13.306   4.007   9.439
92017SOL    HW177948  13.266   3.926   9.469
92017SOL    HW277949  13.323   4.057   9.519
92018SOL     OW77950   0.423   6.183  10.757
92018SOL    HW177951   0.335   6.147  10.763
92018SOL    HW277952   0.481   6.109  10.778
92019SOL     OW77953  10.351  12.877  10.381
92019SOL    HW177954  10.310  12.938  10.320
92019SOL    HW277955  10.408  12.822  10.326
92020SOL     OW77956   8.975   6.919   5.773
92020SOL    HW177957   8.931   6.901   5.857
92020SOL    HW277958   9.068   6.916   5.794
92021SOL     OW77959  12.837   5.975   2.994
92021SOL    HW177960  12.914   6.020   3.030
92021SOL    HW277961  12.810   5.915   3.064
92022SOL     OW77962   9.392   5.190   6.776
92022SOL    HW177963   9.369   5.169   6.686
92022SOL    HW277964   9.328   5.142   6.829
92023SOL     OW77965   5.446   2.775   3.326
92023SOL    HW177966   5.457   2.784   3.232
92023SOL    HW277967   5.359   2.809   3.343
92024SOL     OW77968  12.326  12.001   7.797
92024SOL    HW177969  12.352  11.909   7.806
92024SOL    HW277970  12.231  11.997   7.786
92025SOL     OW77971   2.854  12.267   9.139
92025SOL    HW177972   2.856  12.190   9.196
92025SOL    HW277973   2.761  12.291   9.134
92026SOL     OW77974  12.514  14.270  13.982
92026SOL    HW177975  12.549  14.259  14.071
92026SOL    HW277976  12.542  14.191  13.936
92027SOL     OW77977   6.886  11.100   9.730
92027SOL    HW177978   6.799  11.099   9.690
92027SOL    HW277979   6.883  11.027   9.793
92028SOL     OW77980  13.054   3.541  14.034
92028SOL    HW177981  13.021   3.592  14.108
92028SOL    HW277982  12.993   3.559  13.963
92029SOL     OW77983   5.111   5.992   6.824
92029SOL    HW177984   5.101   5.956   6.913
92029SOL    HW277985   5.086   5.920   6.767
92030SOL     OW77986   3.896   8.287   8.897
92030SOL    HW177987   3.982   8.293   8.939
92030SOL    HW277988   3.868   8.378   8.887
92031SOL     OW77989  14.556   9.037  12.862
92031SOL    HW177990  14.611   9.048  12.785
92031SOL    HW277991  14.467   9.031  12.828
92032SOL     OW77992  11.483  13.458   1.397
92032SOL    HW177993  11.560  13.420   1.354
92032SOL    HW277994  11.514  13.542   1.431
92033SOL     OW77995  14.380   9.959  12.702
92033SOL    HW177996  14.400   9.993  12.615
92033SOL    HW277997  14.451   9.898  12.722
92034SOL     OW77998   5.830   2.656   9.978
92034SOL    HW177999   5.853   2.634  10.068
92034SOL    HW278000   5.737   2.679   9.982
92035SOL     OW78001  13.182   4.955  10.252
92035SOL    HW178002  13.182   4.859  10.244
92035SOL    HW278003  13.101   4.982  10.208
92036SOL     OW78004  12.638   5.504   4.892
92036SOL    HW178005  12.598   5.508   4.979
92036SOL    HW278006  12.619   5.589   4.853
92037SOL     OW78007   3.302   6.716   5.115
92037SOL    HW178008   3.270   6.730   5.204
92037SOL    HW278009   3.343   6.630   5.117
92038SOL     OW78010  11.155   7.281   6.025
92038SOL    HW178011  11.093   7.245   6.088
92038SOL    HW278012  11.103   7.296   5.946
92039SOL     OW78013   6.311   1.687   2.997
92039SOL    HW178014   6.323   1.774   3.035
92039SOL    HW278015   6.394   1.642   3.011
92040SOL     OW78016   9.294   7.272  12.129
92040SOL    HW178017   9.353   7.337  12.091
92040SOL    HW278018   9.319   7.190  12.086
92041SOL     OW78019   4.828  13.106   1.046
92041SOL    HW178020   4.751  13.093   0.991
92041SOL    HW278021   4.795  13.148   1.125
92042SOL     OW78022  10.088   5.717   9.014
92042SOL    HW178023  10.170   5.684   8.977
92042SOL    HW278024  10.021   5.655   8.986
92043SOL     OW78025   7.956   1.587  11.949
92043SOL    HW178026   8.035   1.535  11.934
92043SOL    HW278027   7.945   1.639  11.870
92044SOL     OW78028   3.803   3.437   1.257
92044SOL    HW178029   3.823   3.521   1.298
92044SOL    HW278030   3.832   3.446   1.167
92045SOL     OW78031   5.851   6.674   4.275
92045SOL    HW178032   5.841   6.736   4.203
92045SOL    HW278033   5.938   6.692   4.310
92046SOL     OW78034   1.968  10.637   5.790
92046SOL    HW178035   1.913  10.615   5.866
92046SOL    HW278036   2.020  10.559   5.774
92047SOL     OW78037   5.002   6.727   2.082
92047SOL    HW178038   5.094   6.740   2.102
92047SOL    HW278039   4.973   6.809   2.044
92048SOL     OW78040   1.924   5.428   1.874
92048SOL    HW178041   1.988   5.450   1.805
92048SOL    HW278042   1.879   5.511   1.892
92049SOL     OW78043   1.691   3.421   2.883
92049SOL    HW178044   1.765   3.385   2.834
92049SOL    HW278045   1.703   3.387   2.972
92050SOL     OW78046  10.599   4.055  13.187
92050SOL    HW178047  10.678   4.029  13.139
92050SOL    HW278048  10.527   4.024  13.133
92051SOL     OW78049   9.170   6.369  10.216
92051SOL    HW178050   9.140   6.282  10.186
92051SOL    HW278051   9.104   6.430  10.182
92052SOL     OW78052   6.113   9.776  13.930
92052SOL    HW178053   6.173   9.712  13.969
92052SOL    HW278054   6.047   9.790  13.997
92053SOL     OW78055  11.879   0.475  12.681
92053SOL    HW178056  11.835   0.449  12.762
92053SOL    HW278057  11.969   0.444  12.693
92054SOL     OW78058   6.832   7.002  10.206
92054SOL    HW178059   6.904   7.060  10.231
92054SOL    HW278060   6.805   6.961  10.288
92055SOL     OW78061  10.184   6.738   3.280
92055SOL    HW178062  10.140   6.702   3.357
92055SOL    HW278063  10.114   6.776   3.228
92056SOL     OW78064  11.399   1.708   3.159
92056SOL    HW178065  11.425   1.648   3.089
92056SOL    HW278066  11.381   1.651   3.234
92057SOL     OW78067   8.063   6.080   6.641
92057SOL    HW178068   8.124   6.139   6.684
92057SOL    HW278069   8.087   6.084   6.548
92058SOL     OW78070   2.602   4.894  14.135
92058SOL    HW178071   2.515   4.935  14.142
92058SOL    HW278072   2.588   4.818  14.078
92059SOL     OW78073   7.783  10.617   5.997
92059SOL    HW178074   7.729  10.693   5.977
92059SOL    HW278075   7.858  10.652   6.044
92060SOL     OW78076   9.928   1.063   3.265
92060SOL    HW178077  10.019   1.031   3.264
92060SOL    HW278078   9.936   1.157   3.276
92061SOL     OW78079   0.283   2.516   8.616
92061SOL    HW178080   0.248   2.431   8.641
92061SOL    HW278081   0.240   2.537   8.533
92062SOL     OW78082   8.954  10.062   1.358
92062SOL    HW178083   8.984  10.113   1.283
92062SOL    HW278084   9.006  10.096   1.431
92063SOL     OW78085   8.296  12.995  10.923
92063SOL    HW178086   8.249  12.933  10.978
92063SOL    HW278087   8.388  12.983  10.945
92064SOL     OW78088   5.523   6.175   4.381
92064SOL    HW178089   5.606   6.222   4.381
92064SOL    HW278090   5.457   6.242   4.398
92065SOL     OW78091  10.255   8.272   3.529
92065SOL    HW178092  10.213   8.244   3.610
92065SOL    HW278093  10.186   8.314   3.478
92066SOL     OW78094   2.644   9.517   2.314
92066SOL    HW178095   2.566   9.480   2.274
92066SOL    HW278096   2.611   9.586   2.371
92067SOL     OW78097  11.946   9.850   9.639
92067SOL    HW178098  11.944   9.768   9.589
92067SOL    HW278099  11.951   9.919   9.572
92068SOL     OW78100   6.320   3.093  14.542
92068SOL    HW178101   6.317   3.008  14.585
92068SOL    HW278102   6.368   3.149  14.603
92069SOL     OW78103   1.850   6.418   2.551
92069SOL    HW178104   1.793   6.404   2.476
92069SOL    HW278105   1.791   6.446   2.621
92070SOL     OW78106   3.461   8.889   3.590
92070SOL    HW178107   3.524   8.837   3.541
92070SOL    HW278108   3.512   8.959   3.630
92071SOL     OW78109  12.670   5.702  12.952
92071SOL    HW178110  12.619   5.729  13.028
92071SOL    HW278111  12.723   5.779  12.930
92072SOL     OW78112   7.091   4.911   9.779
92072SOL    HW178113   7.094   4.819   9.754
92072SOL    HW278114   7.147   4.955   9.715
92073SOL     OW78115  10.252   9.328  10.193
92073SOL    HW178116  10.335   9.310  10.239
92073SOL    HW278117  10.199   9.250  10.208
92074SOL     OW78118   7.448  12.030   3.921
92074SOL    HW178119   7.475  11.963   3.984
92074SOL    HW278120   7.529  12.051   3.873
92075SOL     OW78121  14.566  12.487   3.830
92075SOL    HW178122  14.525  12.403   3.851
92075SOL    HW278123  14.652  12.483   3.872
92076SOL     OW78124  13.248   7.900   6.657
92076SOL    HW178125  13.159   7.920   6.628
92076SOL    HW278126  13.252   7.804   6.658
92077SOL     OW78127   2.800  10.400   6.813
92077SOL    HW178128   2.892  10.387   6.840
92077SOL    HW278129   2.790  10.495   6.808
92078SOL     OW78130  11.744   3.633   8.869
92078SOL    HW178131  11.702   3.584   8.799
92078SOL    HW278132  11.813   3.576   8.901
92079SOL     OW78133   6.164   3.880   0.918
92079SOL    HW178134   6.070   3.868   0.909
92079SOL    HW278135   6.181   3.869   1.011
92080SOL     OW78136  10.186  12.698  12.334
92080SOL    HW178137  10.242  12.649  12.393
92080SOL    HW278138  10.246  12.738  12.270
92081SOL     OW78139   4.790   4.938   0.017
92081SOL    HW178140   4.853   4.915  14.828
92081SOL    HW278141   4.810   4.877   0.089
92082SOL     OW78142   4.619   5.834  10.507
92082SOL    HW178143   4.637   5.915  10.458
92082SOL    HW278144   4.684   5.772  10.476
92083SOL     OW78145   6.682  13.761   6.532
92083SOL    HW178146   6.587  13.751   6.520
92083SOL    HW278147   6.712  13.796   6.448
92084SOL     OW78148  13.007   4.596   4.374
92084SOL    HW178149  12.962   4.516   4.398
92084SOL    HW278150  13.096   4.586   4.409
92085SOL     OW78151   8.923   7.510  14.263
92085SOL    HW178152   8.940   7.564  14.186
92085SOL    HW278153   8.981   7.547  14.331
92086SOL     OW78154   5.166   3.389  11.332
92086SOL    HW178155   5.247   3.436  11.355
92086SOL    HW278156   5.153   3.408  11.239
92087SOL     OW78157   4.669  11.136   4.399
92087SOL    HW178158   4.696  11.184   4.320
92087SOL    HW278159   4.583  11.171   4.420
92088SOL     OW78160  14.855  10.860  12.548
92088SOL    HW178161  14.825  10.925  12.612
92088SOL    HW278162   0.020  10.911  12.480
92089SOL     OW78163   1.878   4.926   3.898
92089SOL    HW178164   1.851   4.998   3.955
92089SOL    HW278165   1.828   4.850   3.929
92090SOL     OW78166  10.386  11.443  10.735
92090SOL    HW178167  10.332  11.385  10.788
92090SOL    HW278168  10.367  11.417  10.645
92091SOL     OW78169  12.150  10.329   6.049
92091SOL    HW178170  12.147  10.412   6.097
92091SOL    HW278171  12.153  10.262   6.117
92092SOL     OW78172   0.880   7.717   0.080
92092SOL    HW178173   0.969   7.698   0.110
92092SOL    HW278174   0.834   7.633   0.090
92093SOL     OW78175   2.771   7.762   3.432
92093SOL    HW178176   2.728   7.846   3.415
92093SOL    HW278177   2.815   7.740   3.350
92094SOL     OW78178   9.779  13.624   4.285
92094SOL    HW178179   9.805  13.617   4.376
92094SOL    HW278180   9.683  13.626   4.287
92095SOL     OW78181  11.906   9.532   8.792
92095SOL    HW178182  11.865   9.449   8.769
92095SOL    HW278183  11.834   9.594   8.799
92096SOL     OW78184   9.361  14.118  12.238
92096SOL    HW178185   9.433  14.059  12.214
92096SOL    HW278186   9.396  14.171  12.310
92097SOL     OW78187   1.096   3.765   5.798
92097SOL    HW178188   1.005   3.787   5.820
92097SOL    HW278189   1.090   3.713   5.718
92098SOL     OW78190  12.706   0.587   5.977
92098SOL    HW178191  12.674   0.529   5.908
92098SOL    HW278192  12.672   0.549   6.058
92099SOL     OW78193  11.106   9.478   8.073
92099SOL    HW178194  11.122   9.476   7.979
92099SOL    HW278195  11.126   9.389   8.103
92100SOL     OW78196   8.456   6.131   5.505
92100SOL    HW178197   8.364   6.145   5.528
92100SOL    HW278198   8.466   6.176   5.422
92101SOL     OW78199   7.571  13.633  12.076
92101SOL    HW178200   7.553  13.726  12.086
92101SOL    HW278201   7.630  13.627  12.001
92102SOL     OW78202  14.680   1.122   3.875
92102SOL    HW178203  14.703   1.123   3.968
92102SOL    HW278204  14.585   1.131   3.874
92103SOL     OW78205  14.090   9.509   3.409
92103SOL    HW178206  14.121   9.507   3.500
92103SOL    HW278207  14.115   9.424   3.373
92104SOL     OW78208   8.043   1.975   9.965
92104SOL    HW178209   8.008   1.976   9.876
92104SOL    HW278210   7.971   2.005  10.020
92105SOL     OW78211  13.994  12.299  10.908
92105SOL    HW178212  13.994  12.378  10.854
92105SOL    HW278213  14.076  12.254  10.887
92106SOL     OW78214  11.997   9.548   7.408
92106SOL    HW178215  12.019   9.639   7.425
92106SOL    HW278216  11.990   9.542   7.313
92107SOL     OW78217   1.166  10.095   7.970
92107SOL    HW178218   1.193  10.187   7.959
92107SOL    HW278219   1.196  10.073   8.059
92108SOL     OW78220  12.612   4.070   7.281
92108SOL    HW178221  12.572   4.057   7.195
92108SOL    HW278222  12.668   4.147   7.271
92109SOL     OW78223   9.405  11.993   5.854
92109SOL    HW178224   9.436  12.030   5.772
92109SOL    HW278225   9.311  12.010   5.855
92110SOL     OW78226  12.046   2.011   8.917
92110SOL    HW178227  12.104   1.961   8.974
92110SOL    HW278228  12.099   2.087   8.891
92111SOL     OW78229   3.738   5.981  11.079
92111SOL    HW178230   3.802   6.033  11.030
92111SOL    HW278231   3.653   6.016  11.052
92112SOL     OW78232   5.102  10.071   3.976
92112SOL    HW178233   5.061  10.123   4.046
92112SOL    HW278234   5.166  10.016   4.022
92113SOL     OW78235  13.943  14.072  13.758
92113SOL    HW178236  13.904  14.158  13.770
92113SOL    HW278237  13.948  14.035  13.846
92114SOL     OW78238  13.066  10.533  13.408
92114SOL    HW178239  13.158  10.560  13.406
92114SOL    HW278240  13.069  10.438  13.414
92115SOL     OW78241   7.368   2.903   0.623
92115SOL    HW178242   7.424   2.834   0.587
92115SOL    HW278243   7.279   2.870   0.611
92116SOL     OW78244   4.717   0.989  10.583
92116SOL    HW178245   4.644   0.966  10.527
92116SOL    HW278246   4.712   1.085  10.590
92117SOL     OW78247   5.908   3.548   7.920
92117SOL    HW178248   5.849   3.563   7.994
92117SOL    HW278249   5.963   3.475   7.948
92118SOL     OW78250  13.034   2.167   5.897
92118SOL    HW178251  13.119   2.149   5.857
92118SOL    HW278252  13.054   2.204   5.983
92119SOL     OW78253  10.100  10.242  13.950
92119SOL    HW178254  10.146  10.278  13.874
92119SOL    HW278255  10.048  10.314  13.984
92120SOL     OW78256  10.666   8.585   9.982
92120SOL    HW178257  10.690   8.494   9.963
92120SOL    HW278258  10.743   8.622  10.025
92121SOL     OW78259   6.420   4.566  10.330
92121SOL    HW178260   6.457   4.653  10.317
92121SOL    HW278261   6.335   4.569  10.286
92122SOL     OW78262  11.916   6.416   3.362
92122SOL    HW178263  11.901   6.484   3.428
92122SOL    HW278264  12.011   6.403   3.362
92123SOL     OW78265   3.463   3.393   9.910
92123SOL    HW178266   3.503   3.455   9.972
92123SOL    HW278267   3.387   3.359   9.957
92124SOL     OW78268   6.668   7.091   3.210
92124SOL    HW178269   6.626   7.036   3.276
92124SOL    HW278270   6.712   7.160   3.259
92125SOL     OW78271   5.108   5.291  12.255
92125SOL    HW178272   5.159   5.312  12.177
92125SOL    HW278273   5.055   5.369  12.271
92126SOL     OW78274   7.634   2.486  14.410
92126SOL    HW178275   7.672   2.463  14.325
92126SOL    HW278276   7.663   2.575  14.427
92127SOL     OW78277   8.531   5.242   3.225
92127SOL    HW178278   8.481   5.323   3.215
92127SOL    HW278279   8.504   5.207   3.309
92128SOL     OW78280   5.270   2.306   9.708
92128SOL    HW178281   5.252   2.285   9.617
92128SOL    HW278282   5.365   2.319   9.712
92129SOL     OW78283   5.380   7.588   5.089
92129SOL    HW178284   5.456   7.547   5.130
92129SOL    HW278285   5.328   7.620   5.163
92130SOL     OW78286  13.032   2.751   1.371
92130SOL    HW178287  12.971   2.708   1.432
92130SOL    HW278288  13.020   2.704   1.289
92131SOL     OW78289   4.229  10.887   8.953
92131SOL    HW178290   4.320  10.915   8.961
92131SOL    HW278291   4.220  10.858   8.862
92132SOL     OW78292  10.074   4.081   0.887
92132SOL    HW178293  10.116   4.051   0.968
92132SOL    HW278294  10.006   4.016   0.869
92133SOL     OW78295  14.409  11.410   8.288
92133SOL    HW178296  14.430  11.338   8.348
92133SOL    HW278297  14.315  11.402   8.273
92134SOL     OW78298   0.624   5.402  14.093
92134SOL    HW178299   0.674   5.329  14.129
92134SOL    HW278300   0.551   5.414  14.154
92135SOL     OW78301   1.247   4.085  11.486
92135SOL    HW178302   1.218   4.073  11.396
92135SOL    HW278303   1.304   4.162  11.483
92136SOL     OW78304   3.294   9.552   9.054
92136SOL    HW178305   3.242   9.489   9.005
92136SOL    HW278306   3.382   9.544   9.017
92137SOL     OW78307  10.709  14.350   8.776
92137SOL    HW178308  10.660  14.367   8.695
92137SOL    HW278309  10.729  14.256   8.772
92138SOL     OW78310  13.354   2.324   6.753
92138SOL    HW178311  13.365   2.243   6.703
92138SOL    HW278312  13.430   2.377   6.730
92139SOL     OW78313   0.364   5.757   3.970
92139SOL    HW178314   0.447   5.728   3.931
92139SOL    HW278315   0.379   5.849   3.991
92140SOL     OW78316   9.319   5.808   3.340
92140SOL    HW178317   9.245   5.777   3.288
92140SOL    HW278318   9.296   5.897   3.364
92141SOL     OW78319   5.584  10.025   7.551
92141SOL    HW178320   5.667  10.045   7.593
92141SOL    HW278321   5.545   9.957   7.605
92142SOL     OW78322   5.316  13.679   8.626
92142SOL    HW178323   5.365  13.760   8.609
92142SOL    HW278324   5.382  13.610   8.621
92143SOL     OW78325   1.821   2.553  14.777
92143SOL    HW178326   1.914   2.578  14.774
92143SOL    HW278327   1.783   2.597  14.700
92144SOL     OW78328  13.831   7.236   7.235
92144SOL    HW178329  13.858   7.301   7.300
92144SOL    HW278330  13.910   7.186   7.215
92145SOL     OW78331  10.397   2.915  14.769
92145SOL    HW178332  10.448   2.836  14.790
92145SOL    HW278333  10.315   2.903  14.817
92146SOL     OW78334  14.543   8.095  13.298
92146SOL    HW178335  14.616   8.039  13.323
92146SOL    HW278336  14.582   8.182  13.290
92147SOL     OW78337  14.322   9.628   1.272
92147SOL    HW178338  14.343   9.631   1.365
92147SOL    HW278339  14.383   9.563   1.236
92148SOL     OW78340  11.212   7.054   5.791
92148SOL    HW178341  11.300   7.020   5.807
92148SOL    HW278342  11.189   7.100   5.872
92149SOL     OW78343  12.054  13.278   6.081
92149SOL    HW178344  12.140  13.247   6.108
92149SOL    HW278345  12.043  13.244   5.992
92150SOL     OW78346  10.014   6.200   9.548
92150SOL    HW178347  10.027   6.292   9.572
92150SOL    HW278348  10.080   6.183   9.481
92151SOL     OW78349   9.679   9.871  10.979
92151SOL    HW178350   9.733   9.913  10.912
92151SOL    HW278351   9.735   9.868  11.057
92152SOL     OW78352  12.820   3.225   1.560
92152SOL    HW178353  12.727   3.216   1.539
92152SOL    HW278354  12.863   3.156   1.510
92153SOL     OW78355  13.910  10.376   2.987
92153SOL    HW178356  13.968  10.430   2.934
92153SOL    HW278357  13.967  10.308   3.023
92154SOL     OW78358  13.076  10.018   9.453
92154SOL    HW178359  13.106   9.954   9.388
92154SOL    HW278360  12.982   9.999   9.464
92155SOL     OW78361   0.897  12.012  11.392
92155SOL    HW178362   0.891  11.951  11.318
92155SOL    HW278363   0.923  12.095  11.352
92156SOL     OW78364  13.962   1.295   5.552
92156SOL    HW178365  13.999   1.356   5.617
92156SOL    HW278366  13.901   1.349   5.502
92157SOL     OW78367   1.062   6.588   3.225
92157SOL    HW178368   1.002   6.660   3.242
92157SOL    HW278369   1.087   6.556   3.311
92158SOL     OW78370   6.188   0.002  11.539
92158SOL    HW178371   6.243  14.804  11.525
92158SOL    HW278372   6.239   0.058  11.597
92159SOL     OW78373   0.196  12.873   7.757
92159SOL    HW178374   0.141  12.906   7.828
92159SOL    HW278375   0.205  12.780   7.776
92160SOL     OW78376   1.146   9.332   6.073
92160SOL    HW178377   1.239   9.317   6.088
92160SOL    HW278378   1.137   9.330   5.978
92161SOL     OW78379  10.669   6.875  13.305
92161SOL    HW178380  10.670   6.917  13.390
92161SOL    HW278381  10.600   6.808  13.312
92162SOL     OW78382   6.929  12.738   1.799
92162SOL    HW178383   6.944  12.822   1.758
92162SOL    HW278384   6.850  12.750   1.851
92163SOL     OW78385  13.779   9.444   5.960
92163SOL    HW178386  13.707   9.499   5.991
92163SOL    HW278387  13.739   9.390   5.891
92164SOL     OW78388  12.202   1.062   6.487
92164SOL    HW178389  12.286   1.043   6.445
92164SOL    HW278390  12.200   1.157   6.495
92165SOL     OW78391   9.141   8.583   7.316
92165SOL    HW178392   9.159   8.606   7.407
92165SOL    HW278393   9.156   8.489   7.312
92166SOL     OW78394   6.647   5.856  12.705
92166SOL    HW178395   6.686   5.892  12.784
92166SOL    HW278396   6.593   5.928  12.670
92167SOL     OW78397   8.320  13.364   4.838
92167SOL    HW178398   8.228  13.339   4.829
92167SOL    HW278399   8.330  13.381   4.932
92168SOL     OW78400   2.558   1.281   8.260
92168SOL    HW178401   2.594   1.282   8.349
92168SOL    HW278402   2.576   1.369   8.227
92169SOL     OW78403   4.274  11.647   1.968
92169SOL    HW178404   4.349  11.589   1.976
92169SOL    HW278405   4.220  11.608   1.899
92170SOL     OW78406   3.247   9.478  13.938
92170SOL    HW178407   3.343   9.486  13.931
92170SOL    HW278408   3.234   9.403  13.995
92171SOL     OW78409   2.622  11.156   0.835
92171SOL    HW178410   2.545  11.167   0.779
92171SOL    HW278411   2.680  11.100   0.784
92172SOL     OW78412   8.496   5.899   1.002
92172SOL    HW178413   8.496   5.918   0.908
92172SOL    HW278414   8.467   5.980   1.043
92173SOL     OW78415  13.908   1.226   1.082
92173SOL    HW178416  13.815   1.206   1.094
92173SOL    HW278417  13.909   1.290   1.011
92174SOL     OW78418   6.148  13.566   5.826
92174SOL    HW178419   6.054  13.567   5.812
92174SOL    HW278420   6.164  13.488   5.879
92175SOL     OW78421   7.758  10.624   8.680
92175SOL    HW178422   7.687  10.638   8.617
92175SOL    HW278423   7.732  10.546   8.728
92176SOL     OW78424   5.547   3.374   0.995
92176SOL    HW178425   5.605   3.379   0.919
92176SOL    HW278426   5.564   3.288   1.033
92177SOL     OW78427   9.298   3.402  10.301
92177SOL    HW178428   9.340   3.487  10.286
92177SOL    HW278429   9.366   3.338  10.280
92178SOL     OW78430   8.105  10.438  12.526
92178SOL    HW178431   8.125  10.512  12.470
92178SOL    HW278432   8.009  10.429  12.522
92179SOL     OW78433   7.034  13.303   3.479
92179SOL    HW178434   7.044  13.208   3.468
92179SOL    HW278435   7.085  13.341   3.408
92180SOL     OW78436  13.553  10.069   7.402
92180SOL    HW178437  13.570  10.046   7.310
92180SOL    HW278438  13.631  10.117   7.429
92181SOL     OW78439   2.303   4.608   0.301
92181SOL    HW178440   2.322   4.698   0.328
92181SOL    HW278441   2.299   4.559   0.383
92182SOL     OW78442   3.354   4.029   7.010
92182SOL    HW178443   3.343   4.121   7.034
92182SOL    HW278444   3.447   4.012   7.022
92183SOL     OW78445   3.470  13.526   7.834
92183SOL    HW178446   3.422  13.506   7.914
92183SOL    HW278447   3.562  13.522   7.859
92184SOL     OW78448  10.844   8.785   7.930
92184SOL    HW178449  10.756   8.749   7.942
92184SOL    HW278450  10.880   8.790   8.018
92185SOL     OW78451   0.792  14.366  10.459
92185SOL    HW178452   0.789  14.303  10.531
92185SOL    HW278453   0.704  14.362  10.421
92186SOL     OW78454   0.880  14.344  12.093
92186SOL    HW178455   0.928  14.328  12.175
92186SOL    HW278456   0.948  14.353  12.027
92187SOL     OW78457   0.260   6.977  10.718
92187SOL    HW178458   0.336   6.968  10.659
92187SOL    HW278459   0.287   6.932  10.798
92188SOL     OW78460   8.398  13.111   6.777
92188SOL    HW178461   8.349  13.180   6.822
92188SOL    HW278462   8.339  13.036   6.777
92189SOL     OW78463   5.258   4.020  10.913
92189SOL    HW178464   5.227   4.106  10.940
92189SOL    HW278465   5.270   3.972  10.995
92190SOL     OW78466   0.293   1.207  13.033
92190SOL    HW178467   0.199   1.210  13.050
92190SOL    HW278468   0.304   1.136  12.969
92191SOL     OW78469   3.340  10.132   7.012
92191SOL    HW178470   3.337  10.172   7.099
92191SOL    HW278471   3.301  10.045   7.025
92192SOL     OW78472   3.003   3.923   5.850
92192SOL    HW178473   3.002   3.848   5.792
92192SOL    HW278474   3.094   3.952   5.850
92193SOL     OW78475   7.102   1.613   7.944
92193SOL    HW178476   7.018   1.653   7.922
92193SOL    HW278477   7.095   1.593   8.038
92194SOL     OW78478  11.726   9.696   8.878
92194SOL    HW178479  11.634   9.712   8.859
92194SOL    HW278480  11.760   9.780   8.908
92195SOL     OW78481   7.510  14.798  10.993
92195SOL    HW178482   7.451  14.730  11.025
92195SOL    HW278483   7.454  14.874  10.979
92196SOL     OW78484   1.452   5.977   3.523
92196SOL    HW178485   1.540   6.011   3.505
92196SOL    HW278486   1.466   5.887   3.550
92197SOL     OW78487   0.506   1.023   7.573
92197SOL    HW178488   0.554   0.998   7.494
92197SOL    HW278489   0.472   1.111   7.553
92198SOL     OW78490   5.655  10.023   4.691
92198SOL    HW178491   5.719   9.982   4.634
92198SOL    HW278492   5.699  10.030   4.776
92199SOL     OW78493  12.637   0.765   9.370
92199SOL    HW178494  12.652   0.716   9.289
92199SOL    HW278495  12.599   0.701   9.430
92200SOL     OW78496   3.543   0.842  10.998
92200SOL    HW178497   3.529   0.821  10.905
92200SOL    HW278498   3.638   0.832  11.010
92201SOL     OW78499  10.504   8.993   9.185
92201SOL    HW178500  10.452   8.941   9.124
92201SOL    HW278501  10.518   8.935   9.260
92202SOL     OW78502   9.444   2.863   3.214
92202SOL    HW178503   9.532   2.831   3.236
92202SOL    HW278504   9.425   2.823   3.129
92203SOL     OW78505   6.689   3.592   6.849
92203SOL    HW178506   6.649   3.648   6.782
92203SOL    HW278507   6.754   3.541   6.801
92204SOL     OW78508  11.891   7.497   7.275
92204SOL    HW178509  11.979   7.520   7.245
92204SOL    HW278510  11.861   7.574   7.323
92205SOL     OW78511  11.181   7.468  13.706
92205SOL    HW178512  11.257   7.452  13.651
92205SOL    HW278513  11.205   7.543  13.760
92206SOL     OW78514   9.605   9.115  13.655
92206SOL    HW178515   9.620   9.052  13.726
92206SOL    HW278516   9.601   9.062  13.576
92207SOL     OW78517   8.939  14.810   8.840
92207SOL    HW178518   8.850  14.817   8.874
92207SOL    HW278519   8.983  14.751   8.901
92208SOL     OW78520  10.068   0.357   4.452
92208SOL    HW178521  10.025   0.387   4.373
92208SOL    HW278522  10.061   0.431   4.512
92209SOL     OW78523   8.794  10.711  13.274
92209SOL    HW178524   8.872  10.720  13.220
92209SOL    HW278525   8.747  10.636  13.238
92210SOL     OW78526   2.384   3.483   5.298
92210SOL    HW178527   2.326   3.550   5.332
92210SOL    HW278528   2.470   3.506   5.334
92211SOL     OW78529   2.468   0.706   3.751
92211SOL    HW178530   2.521   0.680   3.826
92211SOL    HW278531   2.378   0.690   3.778
92212SOL     OW78532  10.169   2.557   4.596
92212SOL    HW178533  10.096   2.618   4.580
92212SOL    HW278534  10.126   2.475   4.619
92213SOL     OW78535   4.151   4.158  14.774
92213SOL    HW178536   4.245   4.141  14.786
92213SOL    HW278537   4.121   4.188  14.860
92214SOL     OW78538  14.368   8.660  10.339
92214SOL    HW178539  14.389   8.619  10.423
92214SOL    HW278540  14.426   8.736  10.334
92215SOL     OW78541  13.462   4.804   9.712
92215SOL    HW178542  13.405   4.785   9.787
92215SOL    HW278543  13.483   4.897   9.721
92216SOL     OW78544   5.167  11.552   6.935
92216SOL    HW178545   5.137  11.565   7.025
92216SOL    HW278546   5.241  11.611   6.925
92217SOL     OW78547   6.296  11.368   2.077
92217SOL    HW178548   6.263  11.453   2.047
92217SOL    HW278549   6.377  11.389   2.124
92218SOL     OW78550   4.157  13.856   7.828
92218SOL    HW178551   4.177  13.807   7.907
92218SOL    HW278552   4.079  13.906   7.850
92219SOL     OW78553   9.675   1.907   5.645
92219SOL    HW178554   9.639   1.847   5.580
92219SOL    HW278555   9.739   1.959   5.597
92220SOL     OW78556   4.611  12.472  12.527
92220SOL    HW178557   4.581  12.537  12.464
92220SOL    HW278558   4.705  12.490  12.537
92221SOL     OW78559   9.691   9.836   2.040
92221SOL    HW178560   9.769   9.838   1.984
92221SOL    HW278561   9.619   9.814   1.980
92222SOL     OW78562  10.313  10.440  12.159
92222SOL    HW178563  10.268  10.378  12.102
92222SOL    HW278564  10.394  10.461  12.112
92223SOL     OW78565   8.667   9.418   5.162
92223SOL    HW178566   8.652   9.437   5.069
92223SOL    HW278567   8.585   9.443   5.205
92224SOL     OW78568   8.795  12.569   0.251
92224SOL    HW178569   8.707  12.558   0.215
92224SOL    HW278570   8.837  12.633   0.195
92225SOL     OW78571   5.183  10.005   1.170
92225SOL    HW178572   5.263  10.023   1.219
92225SOL    HW278573   5.114  10.001   1.236
92226SOL     OW78574   7.668   7.568  13.115
92226SOL    HW178575   7.673   7.478  13.083
92226SOL    HW278576   7.628   7.616  13.043
92227SOL     OW78577   3.916  11.250   0.836
92227SOL    HW178578   3.866  11.173   0.866
92227SOL    HW278579   3.966  11.218   0.761
92228SOL     OW78580   1.681   2.230  14.244
92228SOL    HW178581   1.623   2.231  14.168
92228SOL    HW278582   1.662   2.312  14.289
92229SOL     OW78583   4.386  14.011   6.474
92229SOL    HW178584   4.365  13.959   6.396
92229SOL    HW278585   4.379  13.949   6.547
92230SOL     OW78586   5.527   0.547  13.033
92230SOL    HW178587   5.513   0.581  13.121
92230SOL    HW278588   5.480   0.463  13.033
92231SOL     OW78589  10.659  14.682   7.155
92231SOL    HW178590  10.611  14.660   7.235
92231SOL    HW278591  10.592  14.719   7.097
92232SOL     OW78592   9.698  10.565  11.564
92232SOL    HW178593   9.709  10.636  11.628
92232SOL    HW278594   9.783  10.561  11.519
92233SOL     OW78595  11.216  12.831   2.730
92233SOL    HW178596  11.228  12.782   2.811
92233SOL    HW278597  11.232  12.766   2.661
92234SOL     OW78598  11.292  10.743   0.576
92234SOL    HW178599  11.355  10.796   0.528
92234SOL    HW278600  11.343  10.671   0.612
92235SOL     OW78601  12.662   1.461  10.906
92235SOL    HW178602  12.750   1.426  10.903
92235SOL    HW278603  12.639   1.477  10.814
92236SOL     OW78604   5.712   0.961  11.370
92236SOL    HW178605   5.726   0.994  11.459
92236SOL    HW278606   5.748   1.030  11.313
92237SOL     OW78607   9.896   2.204   3.409
92237SOL    HW178608   9.970   2.188   3.467
92237SOL    HW278609   9.841   2.127   3.418
92238SOL     OW78610   2.479   0.000   3.264
92238SOL    HW178611   2.457  14.791   3.236
92238SOL    HW278612   2.528   0.036   3.190
92239SOL     OW78613  14.497   8.181   5.816
92239SOL    HW178614  14.443   8.171   5.895
92239SOL    HW278615  14.509   8.092   5.784
92240SOL     OW78616  12.120   3.566   6.264
92240SOL    HW178617  12.076   3.650   6.280
92240SOL    HW278618  12.152   3.539   6.350
92241SOL     OW78619  14.251  13.294   9.095
92241SOL    HW178620  14.237  13.334   9.010
92241SOL    HW278621  14.194  13.342   9.155
92242SOL     OW78622   3.154  10.464   9.751
92242SOL    HW178623   3.112  10.379   9.739
92242SOL    HW278624   3.157  10.476   9.846
92243SOL     OW78625   0.163  11.356   6.535
92243SOL    HW178626   0.146  11.324   6.623
92243SOL    HW278627   0.253  11.390   6.539
92244SOL     OW78628   2.047  12.235   7.253
92244SOL    HW178629   2.041  12.178   7.330
92244SOL    HW278630   2.019  12.180   7.180
92245SOL     OW78631   7.382   1.392  12.259
92245SOL    HW178632   7.408   1.455  12.192
92245SOL    HW278633   7.303   1.350  12.224
92246SOL     OW78634   4.969   9.839  10.461
92246SOL    HW178635   4.962   9.927  10.422
92246SOL    HW278636   4.947   9.852  10.553
92247SOL     OW78637   6.945   0.023  14.572
92247SOL    HW178638   6.915   0.048  14.660
92247SOL    HW278639   6.881   0.063  14.513
92248SOL     OW78640   4.954   6.917  11.962
92248SOL    HW178641   4.966   6.822  11.963
92248SOL    HW278642   4.972   6.945  12.052
92249SOL     OW78643   8.517  13.859  10.710
92249SOL    HW178644   8.437  13.907  10.687
92249SOL    HW278645   8.576  13.926  10.743
92250SOL     OW78646  13.061   0.807   5.556
92250SOL    HW178647  13.135   0.808   5.495
92250SOL    HW278648  13.066   0.720   5.597
92251SOL     OW78649  10.634  14.173  12.052
92251SOL    HW178650  10.692  14.243  12.082
92251SOL    HW278651  10.546  14.202  12.076
92252SOL     OW78652   3.143   2.742  11.201
92252SOL    HW178653   3.234   2.754  11.174
92252SOL    HW278654   3.093   2.797  11.141
92253SOL     OW78655  13.358   0.570   8.289
92253SOL    HW178656  13.283   0.599   8.237
92253SOL    HW278657  13.360   0.475   8.278
92254SOL     OW78658   0.460   0.243   3.864
92254SOL    HW178659   0.396   0.291   3.916
92254SOL    HW278660   0.536   0.232   3.922
92255SOL     OW78661   3.377   2.408   8.124
92255SOL    HW178662   3.298   2.462   8.134
92255SOL    HW278663   3.431   2.431   8.200
92256SOL     OW78664   3.435   4.214   8.466
92256SOL    HW178665   3.458   4.207   8.374
92256SOL    HW278666   3.342   4.238   8.466
92257SOL     OW78667  13.314  12.464  11.399
92257SOL    HW178668  13.328  12.552  11.364
92257SOL    HW278669  13.378  12.410  11.352
92258SOL     OW78670   6.621   5.761   4.938
92258SOL    HW178671   6.691   5.783   5.000
92258SOL    HW278672   6.606   5.667   4.951
92259SOL     OW78673   9.560   1.718  11.508
92259SOL    HW178674   9.603   1.663  11.574
92259SOL    HW278675   9.475   1.739  11.547
92260SOL     OW78676  14.585   9.804  11.056
92260SOL    HW178677  14.676   9.808  11.025
92260SOL    HW278678  14.577   9.880  11.114
92261SOL     OW78679   9.659  14.472   2.648
92261SOL    HW178680   9.720  14.545   2.653
92261SOL    HW278681   9.658  14.436   2.736
92262SOL     OW78682   2.856  12.533   3.084
92262SOL    HW178683   2.885  12.447   3.114
92262SOL    HW278684   2.763  12.536   3.105
92263SOL     OW78685   9.885   5.971   1.811
92263SOL    HW178686   9.873   6.059   1.848
92263SOL    HW278687   9.938   5.985   1.733
92264SOL     OW78688   7.428   8.205  12.691
92264SOL    HW178689   7.457   8.209  12.782
92264SOL    HW278690   7.341   8.166  12.695
92265SOL     OW78691  12.971   4.883  10.955
92265SOL    HW178692  13.001   4.819  11.019
92265SOL    HW278693  12.996   4.846  10.870
92266SOL     OW78694  10.045   8.854  11.142
92266SOL    HW178695  10.107   8.918  11.106
92266SOL    HW278696  10.098   8.776  11.156
92267SOL     OW78697   7.982   7.580   0.012
92267SOL    HW178698   8.058   7.523   0.001
92267SOL    HW278699   7.959   7.571   0.105
92268SOL     OW78700   6.080   2.669   7.874
92268SOL    HW178701   6.016   2.673   7.803
92268SOL    HW278702   6.161   2.701   7.834
92269SOL     OW78703   8.725   4.795   5.708
92269SOL    HW178704   8.642   4.818   5.749
92269SOL    HW278705   8.710   4.809   5.614
92270SOL     OW78706   3.504   6.257   8.228
92270SOL    HW178707   3.500   6.343   8.269
92270SOL    HW278708   3.416   6.242   8.194
92271SOL     OW78709  10.312  14.471  10.026
92271SOL    HW178710  10.256  14.540  10.060
92271SOL    HW278711  10.299  14.474   9.931
92272SOL     OW78712   3.879   0.197   0.208
92272SOL    HW178713   3.807   0.138   0.187
92272SOL    HW278714   3.878   0.263   0.139
92273SOL     OW78715   1.025   1.850   2.146
92273SOL    HW178716   1.081   1.820   2.218
92273SOL    HW278717   0.977   1.772   2.119
92274SOL     OW78718   0.064   3.568  13.318
92274SOL    HW178719   0.076   3.652  13.363
92274SOL    HW278720   0.148   3.523  13.328
92275SOL     OW78721   0.130   6.895   6.237
92275SOL    HW178722   0.063   6.909   6.304
92275SOL    HW278723   0.194   6.837   6.278
92276SOL     OW78724  10.392  10.073   1.587
92276SOL    HW178725  10.470  10.051   1.536
92276SOL    HW278726  10.329  10.104   1.522
92277SOL     OW78727   1.081   0.233  13.154
92277SOL    HW178728   1.003   0.242  13.100
92277SOL    HW278729   1.146   0.192  13.096
92278SOL     OW78730   8.077  11.823   4.587
92278SOL    HW178731   8.020  11.895   4.557
92278SOL    HW278732   8.052  11.808   4.678
92279SOL     OW78733   7.317  12.487  10.144
92279SOL    HW178734   7.303  12.457  10.234
92279SOL    HW278735   7.380  12.558  10.152
92280SOL     OW78736  12.638   0.365   0.310
92280SOL    HW178737  12.697   0.437   0.290
92280SOL    HW278738  12.583   0.356   0.232
92281SOL     OW78739   1.185  13.606  11.839
92281SOL    HW178740   1.090  13.599  11.848
92281SOL    HW278741   1.214  13.639  11.925
92282SOL     OW78742   0.890  11.315   6.177
92282SOL    HW178743   0.937  11.356   6.105
92282SOL    HW278744   0.930  11.353   6.256
92283SOL     OW78745  10.079  12.765  14.513
92283SOL    HW178746  10.016  12.701  14.479
92283SOL    HW278747  10.154  12.758  14.454
92284SOL     OW78748   5.682   3.409   6.491
92284SOL    HW178749   5.686   3.500   6.519
92284SOL    HW278750   5.714   3.359   6.566
92285SOL     OW78751  10.697   6.534  12.086
92285SOL    HW178752  10.616   6.517  12.037
92285SOL    HW278753  10.717   6.626  12.069
92286SOL     OW78754  11.109   9.614   1.559
92286SOL    HW178755  11.018   9.585   1.570
92286SOL    HW278756  11.159   9.559   1.618
92287SOL     OW78757  11.241   1.780   7.123
92287SOL    HW178758  11.279   1.862   7.155
92287SOL    HW278759  11.162   1.768   7.175
92288SOL     OW78760   1.617  11.230   2.098
92288SOL    HW178761   1.636  11.266   2.012
92288SOL    HW278762   1.624  11.135   2.087
92289SOL     OW78763   9.420  14.830  13.523
92289SOL    HW178764   9.352  14.812  13.458
92289SOL    HW278765   9.502  14.826  13.474
92290SOL     OW78766   4.143   3.313   4.867
92290SOL    HW178767   4.224   3.291   4.821
92290SOL    HW278768   4.127   3.405   4.845
92291SOL     OW78769   8.463  13.677  11.395
92291SOL    HW178770   8.387  13.624  11.421
92291SOL    HW278771   8.498  13.632  11.318
92292SOL     OW78772  14.027  12.890  10.509
92292SOL    HW178773  13.988  12.977  10.501
92292SOL    HW278774  14.104  12.903  10.565
92293SOL     OW78775   8.106   3.263   8.397
92293SOL    HW178776   8.150   3.341   8.364
92293SOL    HW278777   8.044   3.239   8.327
92294SOL     OW78778   6.187   1.555   8.041
92294SOL    HW178779   6.133   1.598   8.108
92294SOL    HW278780   6.266   1.527   8.088
92295SOL     OW78781   9.538  12.727   3.184
92295SOL    HW178782   9.476  12.685   3.245
92295SOL    HW278783   9.606  12.763   3.241
92296SOL     OW78784   4.439  14.828  14.365
92296SOL    HW178785   4.346  14.808  14.374
92296SOL    HW278786   4.444   0.004  14.287
92297SOL     OW78787  10.215   9.354   4.832
92297SOL    HW178788  10.242   9.425   4.774
92297SOL    HW278789  10.225   9.275   4.779
92298SOL     OW78790  10.331   3.931   2.820
92298SOL    HW178791  10.262   3.980   2.865
92298SOL    HW278792  10.395   3.912   2.888
92299SOL     OW78793  12.710  12.046  12.268
92299SOL    HW178794  12.655  12.007  12.336
92299SOL    HW278795  12.797  12.049  12.306
92300SOL     OW78796   0.887   2.299  14.354
92300SOL    HW178797   0.950   2.356  14.397
92300SOL    HW278798   0.804   2.346  14.358
92301SOL     OW78799   3.360   3.889   8.812
92301SOL    HW178800   3.269   3.861   8.817
92301SOL    HW278801   3.358   3.971   8.763
92302SOL     OW78802  13.144   8.573   7.574
92302SOL    HW178803  13.049   8.584   7.585
92302SOL    HW278804  13.154   8.539   7.485
92303SOL     OW78805  11.477   7.007   7.096
92303SOL    HW178806  11.488   7.072   7.026
92303SOL    HW278807  11.471   7.059   7.176
92304SOL     OW78808  11.414   9.916   7.689
92304SOL    HW178809  11.503   9.885   7.705
92304SOL    HW278810  11.359   9.859   7.743
92305SOL     OW78811   5.960   4.603   6.381
92305SOL    HW178812   5.984   4.665   6.450
92305SOL    HW278813   6.042   4.589   6.333
92306SOL     OW78814  10.447   4.372  13.482
92306SOL    HW178815  10.430   4.462  13.512
92306SOL    HW278816  10.395   4.363  13.403
92307SOL     OW78817   7.779  11.775   4.585
92307SOL    HW178818   7.821  11.806   4.665
92307SOL    HW278819   7.846  11.724   4.540
92308SOL     OW78820  10.964  14.009   9.798
92308SOL    HW178821  10.900  14.067   9.840
92308SOL    HW278822  11.049  14.038   9.831
92309SOL     OW78823   1.870   6.763   6.884
92309SOL    HW178824   1.925   6.694   6.847
92309SOL    HW278825   1.893   6.842   6.834
92310SOL     OW78826  11.470  10.275   3.154
92310SOL    HW178827  11.481  10.263   3.059
92310SOL    HW278828  11.385  10.317   3.163
92311SOL     OW78829  10.014   8.469   9.187
92311SOL    HW178830   9.956   8.544   9.174
92311SOL    HW278831  10.091   8.489   9.132
92312SOL     OW78832   2.970  12.569   0.896
92312SOL    HW178833   2.909  12.562   0.970
92312SOL    HW278834   3.056  12.551   0.933
92313SOL     OW78835   1.432   9.731   0.953
92313SOL    HW178836   1.434   9.821   0.984
92313SOL    HW278837   1.483   9.733   0.872
92314SOL     OW78838  14.278   7.555   8.869
92314SOL    HW178839  14.345   7.489   8.854
92314SOL    HW278840  14.230   7.560   8.786
92315SOL     OW78841   5.809  12.484  14.733
92315SOL    HW178842   5.768  12.510  14.650
92315SOL    HW278843   5.749  12.514  14.800
92316SOL     OW78844   5.399   5.924   9.051
92316SOL    HW178845   5.348   5.882   8.982
92316SOL    HW278846   5.487   5.888   9.041
92317SOL     OW78847   1.984   9.767  10.208
92317SOL    HW178848   1.977   9.733  10.119
92317SOL    HW278849   2.043   9.706  10.252
92318SOL     OW78850   6.040   5.284   0.480
92318SOL    HW178851   6.029   5.367   0.527
92318SOL    HW278852   6.108   5.238   0.530
92319SOL     OW78853   5.051   7.304  13.649
92319SOL    HW178854   5.066   7.222  13.602
92319SOL    HW278855   4.957   7.303  13.669
92320SOL     OW78856  11.433   2.701   6.876
92320SOL    HW178857  11.353   2.750   6.857
92320SOL    HW278858  11.449   2.649   6.797
92321SOL     OW78859   2.242  11.444   3.501
92321SOL    HW178860   2.244  11.495   3.582
92321SOL    HW278861   2.149  11.435   3.481
92322SOL     OW78862  10.997   0.850  10.934
92322SOL    HW178863  10.928   0.805  10.983
92322SOL    HW278864  11.041   0.904  11.000
92323SOL     OW78865   1.513  11.348  10.176
92323SOL    HW178866   1.457  11.322  10.103
92323SOL    HW278867   1.591  11.385  10.135
92324SOL     OW78868   4.611   6.894   5.718
92324SOL    HW178869   4.520   6.909   5.692
92324SOL    HW278870   4.620   6.940   5.802
92325SOL     OW78871   1.756   8.023   7.205
92325SOL    HW178872   1.737   8.101   7.152
92325SOL    HW278873   1.670   7.992   7.233
92326SOL     OW78874  11.164  10.342   3.890
92326SOL    HW178875  11.217  10.331   3.811
92326SOL    HW278876  11.222  10.387   3.951
92327SOL     OW78877   8.567   0.210  13.777
92327SOL    HW178878   8.508   0.269  13.825
92327SOL    HW278879   8.533   0.210  13.688
92328SOL     OW78880   1.023   0.725   1.638
92328SOL    HW178881   1.001   0.651   1.695
92328SOL    HW278882   0.982   0.801   1.680
92329SOL     OW78883  13.671  14.725   8.092
92329SOL    HW178884  13.655  14.667   8.018
92329SOL    HW278885  13.598  14.788   8.089
92330SOL     OW78886   6.906   8.816   0.939
92330SOL    HW178887   6.897   8.757   1.014
92330SOL    HW278888   6.821   8.858   0.931
92331SOL     OW78889   6.684  11.344   9.673
92331SOL    HW178890   6.659  11.253   9.654
92331SOL    HW278891   6.604  11.383   9.709
92332SOL     OW78892   7.508   1.084   5.392
92332SOL    HW178893   7.549   1.003   5.360
92332SOL    HW278894   7.420   1.084   5.355
92333SOL     OW78895   8.346   2.040   8.237
92333SOL    HW178896   8.407   2.098   8.282
92333SOL    HW278897   8.400   1.992   8.174
92334SOL     OW78898   4.606  11.611  12.224
92334SOL    HW178899   4.608  11.533  12.278
92334SOL    HW278900   4.551  11.673  12.272
92335SOL     OW78901   6.214   6.060   9.392
92335SOL    HW178902   6.174   6.016   9.468
92335SOL    HW278903   6.151   6.047   9.321
92336SOL     OW78904   7.237   5.971   3.532
92336SOL    HW178905   7.330   5.955   3.513
92336SOL    HW278906   7.230   6.066   3.537
92337SOL     OW78907  13.796   6.961  14.253
92337SOL    HW178908  13.752   7.040  14.220
92337SOL    HW278909  13.781   6.895  14.185
92338SOL     OW78910  11.997   9.881   8.370
92338SOL    HW178911  12.008   9.803   8.423
92338SOL    HW278912  11.913   9.918   8.398
92339SOL     OW78913   3.649   5.640   8.081
92339SOL    HW178914   3.617   5.726   8.055
92339SOL    HW278915   3.606   5.622   8.165
92340SOL     OW78916   5.500   1.392  13.581
92340SOL    HW178917   5.485   1.474  13.628
92340SOL    HW278918   5.498   1.325  13.648
92341SOL     OW78919  14.286   8.939   9.720
92341SOL    HW178920  14.326   8.868   9.770
92341SOL    HW278921  14.217   8.972   9.777
92342SOL     OW78922   4.264   5.859   1.494
92342SOL    HW178923   4.355   5.879   1.472
92342SOL    HW278924   4.259   5.764   1.491
92343SOL     OW78925   2.101  13.131   9.701
92343SOL    HW178926   2.057  13.058   9.744
92343SOL    HW278927   2.130  13.188   9.773
92344SOL     OW78928   6.241  10.208   8.686
92344SOL    HW178929   6.232  10.300   8.711
92344SOL    HW278930   6.335  10.194   8.677
92345SOL     OW78931   6.958  12.899   1.442
92345SOL    HW178932   6.957  12.840   1.367
92345SOL    HW278933   7.034  12.872   1.493
92346SOL     OW78934   2.725  11.899   4.462
92346SOL    HW178935   2.650  11.878   4.517
92346SOL    HW278936   2.732  11.994   4.465
92347SOL     OW78937  13.398  11.915   3.537
92347SOL    HW178938  13.372  11.906   3.445
92347SOL    HW278939  13.404  11.824   3.569
92348SOL     OW78940   6.094  13.442  13.437
92348SOL    HW178941   6.091  13.533  13.408
92348SOL    HW278942   6.033  13.397  13.379
92349SOL     OW78943   2.261   5.038   4.852
92349SOL    HW178944   2.297   5.125   4.870
92349SOL    HW278945   2.328   4.977   4.882
92350SOL     OW78946  12.646   2.375   8.021
92350SOL    HW178947  12.709   2.359   7.950
92350SOL    HW278948  12.587   2.442   7.987
92351SOL     OW78949  12.785   9.220   1.822
92351SOL    HW178950  12.857   9.267   1.863
92351SOL    HW278951  12.791   9.132   1.858
92352SOL     OW78952  14.706   5.402   2.478
92352SOL    HW178953  14.703   5.498   2.481
92352SOL    HW278954  14.733   5.382   2.388
92353SOL     OW78955  10.437   6.446   9.483
92353SOL    HW178956  10.445   6.486   9.396
92353SOL    HW278957  10.521   6.400   9.496
92354SOL     OW78958   7.833  10.244  12.772
92354SOL    HW178959   7.752  10.214  12.812
92354SOL    HW278960   7.893  10.255  12.846
92355SOL     OW78961   6.623   9.294   9.692
92355SOL    HW178962   6.701   9.298   9.747
92355SOL    HW278963   6.575   9.374   9.714
92356SOL     OW78964   1.776   5.608   5.219
92356SOL    HW178965   1.841   5.543   5.247
92356SOL    HW278966   1.703   5.555   5.185
92357SOL     OW78967   5.492  13.508   3.178
92357SOL    HW178968   5.582  13.531   3.153
92357SOL    HW278969   5.482  13.418   3.150
92358SOL     OW78970   9.609   0.383   8.278
92358SOL    HW178971   9.635   0.313   8.219
92358SOL    HW278972   9.517   0.366   8.297
92359SOL     OW78973   0.749   6.051  12.583
92359SOL    HW178974   0.654   6.053  12.579
92359SOL    HW278975   0.778   6.108  12.512
92360SOL     OW78976  11.474   0.516   8.745
92360SOL    HW178977  11.412   0.565   8.691
92360SOL    HW278978  11.427   0.435   8.767
92361SOL     OW78979   4.564   3.388   5.320
92361SOL    HW178980   4.533   3.365   5.232
92361SOL    HW278981   4.555   3.307   5.370
92362SOL     OW78982  11.821  10.330  14.448
92362SOL    HW178983  11.751  10.378  14.404
92362SOL    HW278984  11.901  10.376  14.421
92363SOL     OW78985  13.454   3.338   8.659
92363SOL    HW178986  13.446   3.271   8.591
92363SOL    HW278987  13.451   3.421   8.611
92364SOL     OW78988   3.504   1.817   2.610
92364SOL    HW178989   3.409   1.814   2.602
92364SOL    HW278990   3.534   1.842   2.522
92365SOL     OW78991   2.861  11.700   8.401
92365SOL    HW178992   2.861  11.635   8.332
92365SOL    HW278993   2.794  11.670   8.463
92366SOL     OW78994   7.633  11.302   8.744
92366SOL    HW178995   7.589  11.238   8.688
92366SOL    HW278996   7.604  11.387   8.711
92367SOL     OW78997   0.455   9.183   5.345
92367SOL    HW178998   0.385   9.224   5.294
92367SOL    HW278999   0.526   9.170   5.283
92368SOL     OW79000   7.000  10.589   9.910
92368SOL    HW179001   7.079  10.590   9.965
92368SOL    HW279002   6.953  10.510   9.936
92369SOL     OW79003  14.098   6.822  13.553
92369SOL    HW179004  14.049   6.859  13.480
92369SOL    HW279005  14.171   6.775  13.512
92370SOL     OW79006   8.121  11.187   2.281
92370SOL    HW179007   8.046  11.231   2.239
92370SOL    HW279008   8.140  11.112   2.225
92371SOL     OW79009   0.070  14.751  12.203
92371SOL    HW179010   0.102  14.669  12.241
92371SOL    HW279011   0.002  14.724  12.142
92372SOL     OW79012  10.208   9.272  11.043
92372SOL    HW179013  10.163   9.206  10.991
92372SOL    HW279014  10.241   9.336  10.979
92373SOL     OW79015   8.697  10.911   4.330
92373SOL    HW179016   8.658  10.990   4.292
92373SOL    HW279017   8.758  10.943   4.395
92374SOL     OW79018   0.394   2.681   4.671
92374SOL    HW179019   0.302   2.706   4.678
92374SOL    HW279020   0.428   2.690   4.760
92375SOL     OW79021   0.934   5.424  13.486
92375SOL    HW179022   0.840   5.407  13.497
92375SOL    HW279023   0.938   5.515  13.454
92376SOL     OW79024   8.720  14.592  10.204
92376SOL    HW179025   8.730  14.639  10.286
92376SOL    HW279026   8.802  14.609  10.156
92377SOL     OW79027  14.660   5.578  10.751
92377SOL    HW179028  14.627   5.496  10.789
92377SOL    HW279029  14.704   5.622  10.824
92378SOL     OW79030  11.692  13.996   8.284
92378SOL    HW179031  11.718  13.972   8.196
92378SOL    HW279032  11.728  13.927   8.340
92379SOL     OW79033  13.374  13.004   8.888
92379SOL    HW179034  13.363  12.911   8.868
92379SOL    HW279035  13.457  13.010   8.935
92380SOL     OW79036   2.143  11.255   3.817
92380SOL    HW179037   2.168  11.235   3.907
92380SOL    HW279038   2.062  11.205   3.802
92381SOL     OW79039   9.281  13.240  13.794
92381SOL    HW179040   9.344  13.232  13.865
92381SOL    HW279041   9.245  13.152  13.783
92382SOL     OW79042   1.900  12.229   3.397
92382SOL    HW179043   1.972  12.202   3.341
92382SOL    HW279044   1.861  12.148   3.427
92383SOL     OW79045   2.769   2.073  14.240
92383SOL    HW179046   2.763   2.036  14.152
92383SOL    HW279047   2.811   2.005  14.293
92384SOL     OW79048   0.654   9.717   9.476
92384SOL    HW179049   0.655   9.647   9.412
92384SOL    HW279050   0.704   9.788   9.435
92385SOL     OW79051  11.758   5.524  10.279
92385SOL    HW179052  11.766   5.481  10.194
92385SOL    HW279053  11.801   5.465  10.340
92386SOL     OW79054   9.694   7.260   7.038
92386SOL    HW179055   9.699   7.203   7.115
92386SOL    HW279056   9.695   7.348   7.074
92387SOL     OW79057  14.173   5.523   3.777
92387SOL    HW179058  14.197   5.529   3.685
92387SOL    HW279059  14.204   5.604   3.816
92388SOL     OW79060   2.184   8.044   2.862
92388SOL    HW179061   2.223   8.069   2.945
92388SOL    HW279062   2.258   8.038   2.801
92389SOL     OW79063  13.071   8.974   8.251
92389SOL    HW179064  13.033   9.061   8.243
92389SOL    HW279065  12.997   8.914   8.237
92390SOL     OW79066  10.254   2.637   7.391
92390SOL    HW179067  10.285   2.690   7.465
92390SOL    HW279068  10.161   2.624   7.409
92391SOL     OW79069   9.446   4.420  14.761
92391SOL    HW179070   9.452   4.500  14.814
92391SOL    HW279071   9.532   4.413  14.719
92392SOL     OW79072   3.572   5.845   0.807
92392SOL    HW179073   3.601   5.893   0.729
92392SOL    HW279074   3.477   5.855   0.808
92393SOL     OW79075  14.028  10.897   3.596
92393SOL    HW179076  14.089  10.926   3.528
92393SOL    HW279077  13.944  10.890   3.553
92394SOL     OW79078   5.519  13.082   4.292
92394SOL    HW179079   5.595  13.102   4.237
92394SOL    HW279080   5.538  13.126   4.375
92395SOL     OW79081  12.784   8.400   1.945
92395SOL    HW179082  12.822   8.473   1.895
92395SOL    HW279083  12.698   8.432   1.972
92396SOL     OW79084  13.673   8.244   7.315
92396SOL    HW179085  13.740   8.221   7.380
92396SOL    HW279086  13.637   8.159   7.287
92397SOL     OW79087   6.965  13.646   0.407
92397SOL    HW179088   7.060  13.634   0.408
92397SOL    HW279089   6.952  13.727   0.357
92398SOL     OW79090  10.846   1.260   3.946
92398SOL    HW179091  10.892   1.310   3.879
92398SOL    HW279092  10.854   1.313   4.025
92399SOL     OW79093   6.945  13.993  12.428
92399SOL    HW179094   6.956  14.068  12.369
92399SOL    HW279095   7.033  13.978  12.464
92400SOL     OW79096  11.485  14.617  13.284
92400SOL    HW179097  11.472  14.533  13.240
92400SOL    HW279098  11.404  14.665  13.270
92401SOL     OW79099   2.557   2.347   6.397
92401SOL    HW179100   2.641   2.318   6.434
92401SOL    HW279101   2.492   2.290   6.437
92402SOL     OW79102   2.774   3.892   1.279
92402SOL    HW179103   2.868   3.874   1.269
92402SOL    HW279104   2.770   3.986   1.297
92403SOL     OW79105   2.960   7.606   9.019
92403SOL    HW179106   2.884   7.628   8.964
92403SOL    HW279107   3.012   7.547   8.964
92404SOL     OW79108  12.238   0.210   1.033
92404SOL    HW179109  12.290   0.256   0.967
92404SOL    HW279110  12.153   0.197   0.991
92405SOL     OW79111  12.372   9.045   5.531
92405SOL    HW179112  12.383   8.951   5.546
92405SOL    HW279113  12.301   9.071   5.591
92406SOL     OW79114   8.850   4.302  11.563
92406SOL    HW179115   8.855   4.225  11.507
92406SOL    HW279116   8.781   4.282  11.626
92407SOL     OW79117  14.015  14.865   2.448
92407SOL    HW179118  14.009   0.074   2.413
92407SOL    HW279119  13.949  14.861   2.517
92408SOL     OW79120  11.067   6.020   3.868
92408SOL    HW179121  10.986   5.974   3.891
92408SOL    HW279122  11.041   6.079   3.797
92409SOL     OW79123   5.459   2.028   4.472
92409SOL    HW179124   5.499   1.946   4.442
92409SOL    HW279125   5.400   2.054   4.401
92410SOL     OW79126   1.580  12.516   4.495
92410SOL    HW179127   1.555  12.514   4.588
92410SOL    HW279128   1.501  12.542   4.449
92411SOL     OW79129   6.391   1.040   1.608
92411SOL    HW179130   6.477   1.037   1.566
92411SOL    HW279131   6.393   0.969   1.673
92412SOL     OW79132   7.290   8.711   0.544
92412SOL    HW179133   7.223   8.706   0.612
92412SOL    HW279134   7.243   8.745   0.467
92413SOL     OW79135   1.081   6.116   7.781
92413SOL    HW179136   1.073   6.181   7.851
92413SOL    HW279137   1.031   6.041   7.813
92414SOL     OW79138   9.825  12.204   3.258
92414SOL    HW179139   9.894  12.256   3.300
92414SOL    HW279140   9.864  12.117   3.247
92415SOL     OW79141   6.062  11.300   9.164
92415SOL    HW179142   6.009  11.247   9.105
92415SOL    HW279143   6.026  11.283   9.251
92416SOL     OW79144   4.869  11.095   1.332
92416SOL    HW179145   4.855  11.182   1.369
92416SOL    HW279146   4.791  11.079   1.279
92417SOL     OW79147   1.491   4.990  14.674
92417SOL    HW179148   1.536   5.051  14.732
92417SOL    HW279149   1.560   4.952  14.620
92418SOL     OW79150   8.086   8.904  10.317
92418SOL    HW179151   8.091   8.997  10.293
92418SOL    HW279152   8.040   8.863  10.243
92419SOL     OW79153   7.995   1.438   2.255
92419SOL    HW179154   7.908   1.478   2.248
92419SOL    HW279155   7.998   1.405   2.345
92420SOL     OW79156  10.195   9.133   3.516
92420SOL    HW179157  10.185   9.160   3.607
92420SOL    HW279158  10.196   9.215   3.466
92421SOL     OW79159  10.852   4.646   6.564
92421SOL    HW179160  10.765   4.616   6.592
92421SOL    HW279161  10.834   4.707   6.493
92422SOL     OW79162   5.935   7.943   9.376
92422SOL    HW179163   6.019   7.899   9.358
92422SOL    HW279164   5.899   7.963   9.290
92423SOL     OW79165   8.634   4.537   8.207
92423SOL    HW179166   8.700   4.545   8.139
92423SOL    HW279167   8.681   4.497   8.281
92424SOL     OW79168  13.849  13.823   4.064
92424SOL    HW179169  13.775  13.812   4.123
92424SOL    HW279170  13.811  13.821   3.977
92425SOL     OW79171  10.631   2.765  14.378
92425SOL    HW179172  10.703   2.723  14.329
92425SOL    HW279173  10.563   2.698  14.383
92426SOL     OW79174  11.760   8.838  11.563
92426SOL    HW179175  11.850   8.807  11.552
92426SOL    HW279176  11.768   8.912  11.623
92427SOL     OW79177   1.411   4.656   8.114
92427SOL    HW179178   1.462   4.577   8.132
92427SOL    HW279179   1.369   4.678   8.197
92428SOL     OW79180  14.512   8.271   6.408
92428SOL    HW179181  14.555   8.356   6.418
92428SOL    HW279182  14.429   8.292   6.364
92429SOL     OW79183   1.304   5.527  12.669
92429SOL    HW179184   1.311   5.605  12.615
92429SOL    HW279185   1.329   5.455  12.611
92430SOL     OW79186   2.081   7.113   1.292
92430SOL    HW179187   2.118   7.179   1.352
92430SOL    HW279188   2.020   7.163   1.237
92431SOL     OW79189   1.804   6.747   9.652
92431SOL    HW179190   1.792   6.712   9.740
92431SOL    HW279191   1.821   6.840   9.666
92432SOL     OW79192  14.148  13.618  10.803
92432SOL    HW179193  14.233  13.650  10.773
92432SOL    HW279194  14.166  13.531  10.840
92433SOL     OW79195   3.637   7.197  12.627
92433SOL    HW179196   3.726   7.197  12.591
92433SOL    HW279197   3.598   7.116  12.595
92434SOL     OW79198  11.052  10.259   2.373
92434SOL    HW179199  11.146  10.254   2.356
92434SOL    HW279200  11.014  10.290   2.290
92435SOL     OW79201  13.108  12.180   1.416
92435SOL    HW179202  13.145  12.255   1.463
92435SOL    HW279203  13.013  12.193   1.421
92436SOL     OW79204  12.414   8.829   3.915
92436SOL    HW179205  12.422   8.820   4.010
92436SOL    HW279206  12.347   8.896   3.903
92437SOL     OW79207   4.200  12.170  13.029
92437SOL    HW179208   4.287  12.149  12.995
92437SOL    HW279209   4.210  12.255  13.070
92438SOL     OW79210  12.900   3.591  10.130
92438SOL    HW179211  12.951   3.553  10.202
92438SOL    HW279212  12.884   3.518  10.070
92439SOL     OW79213   2.036   5.675   9.354
92439SOL    HW179214   1.994   5.589   9.350
92439SOL    HW279215   1.981   5.732   9.301
92440SOL     OW79216   7.894   3.079   1.411
92440SOL    HW179217   7.869   3.039   1.495
92440SOL    HW279218   7.813   3.084   1.361
92441SOL     OW79219   6.488  14.728   1.724
92441SOL    HW179220   6.533  14.743   1.641
92441SOL    HW279221   6.530  14.650   1.760
92442SOL     OW79222  12.733   2.775   3.677
92442SOL    HW179223  12.728   2.686   3.710
92442SOL    HW279224  12.642   2.801   3.663
92443SOL     OW79225  12.719  14.297   4.913
92443SOL    HW179226  12.719  14.374   4.856
92443SOL    HW279227  12.811  14.281   4.934
92444SOL     OW79228  14.757   7.096   9.810
92444SOL    HW179229  14.665   7.095   9.784
92444SOL    HW279230  14.796   7.167   9.759
92445SOL     OW79231   4.356   3.301   5.894
92445SOL    HW179232   4.297   3.364   5.854
92445SOL    HW279233   4.320   3.286   5.982
92446SOL     OW79234   6.222   5.062  11.110
92446SOL    HW179235   6.196   5.094  11.196
92446SOL    HW279236   6.179   5.122  11.049
92447SOL     OW79237   5.501   2.244  14.787
92447SOL    HW179238   5.518   2.329  14.827
92447SOL    HW279239   5.477   2.187  14.861
92448SOL     OW79240  13.736   9.137   8.303
92448SOL    HW179241  13.828   9.141   8.278
92448SOL    HW279242  13.730   9.193   8.381
92449SOL     OW79243  13.718  11.035  11.857
92449SOL    HW179244  13.719  10.989  11.941
92449SOL    HW279245  13.625  11.036  11.832
92450SOL     OW79246   0.772   7.709   3.012
92450SOL    HW179247   0.739   7.697   2.923
92450SOL    HW279248   0.791   7.802   3.019
92451SOL     OW79249  10.186   6.173   3.749
92451SOL    HW179250  10.145   6.130   3.675
92451SOL    HW279251  10.116   6.182   3.814
92452SOL     OW79252   0.538   4.643   7.151
92452SOL    HW179253   0.460   4.621   7.101
92452SOL    HW279254   0.571   4.724   7.111
92453SOL     OW79255  12.441   3.613   7.093
92453SOL    HW179256  12.373   3.550   7.116
92453SOL    HW279257  12.429   3.685   7.156
92454SOL     OW79258   7.591  12.497  13.255
92454SOL    HW179259   7.535  12.425  13.226
92454SOL    HW279260   7.606  12.550  13.176
92455SOL     OW79261   8.743   7.283  11.976
92455SOL    HW179262   8.704   7.196  11.965
92455SOL    HW279263   8.762   7.313  11.888
92456SOL     OW79264   8.190   8.716  11.968
92456SOL    HW179265   8.280   8.725  11.937
92456SOL    HW279266   8.198   8.680  12.056
92457SOL     OW79267  13.651  12.172  12.561
92457SOL    HW179268  13.744  12.182  12.542
92457SOL    HW279269  13.639  12.078  12.576
92458SOL     OW79270  12.067   8.332  10.899
92458SOL    HW179271  12.035   8.366  10.982
92458SOL    HW279272  12.154   8.298  10.918
92459SOL     OW79273  12.930   3.324   7.591
92459SOL    HW179274  12.990   3.394   7.617
92459SOL    HW279275  12.975   3.277   7.521
92460SOL     OW79276   7.796  11.164   3.627
92460SOL    HW179277   7.866  11.124   3.678
92460SOL    HW279278   7.799  11.120   3.542
92461SOL     OW79279   6.486   2.711   4.930
92461SOL    HW179280   6.574   2.673   4.930
92461SOL    HW279281   6.436   2.656   4.870
92462SOL     OW79282   4.923   4.382   5.594
92462SOL    HW179283   4.958   4.456   5.545
92462SOL    HW279284   4.906   4.315   5.527
92463SOL     OW79285   3.245   3.952   4.369
92463SOL    HW179286   3.232   4.046   4.357
92463SOL    HW279287   3.237   3.915   4.281
92464SOL     OW79288   7.765   3.361   6.691
92464SOL    HW179289   7.810   3.365   6.775
92464SOL    HW279290   7.706   3.286   6.699
92465SOL     OW79291   3.300   9.823  10.014
92465SOL    HW179292   3.264   9.909  10.036
92465SOL    HW279293   3.316   9.828   9.920
92466SOL     OW79294   0.726   7.483   4.237
92466SOL    HW179295   0.691   7.572   4.230
92466SOL    HW279296   0.745   7.471   4.330
92467SOL     OW79297   6.585   6.328  11.860
92467SOL    HW179298   6.526   6.352  11.789
92467SOL    HW279299   6.668   6.370  11.839
92468SOL     OW79300   3.136   4.263  11.051
92468SOL    HW179301   3.101   4.249  10.964
92468SOL    HW279302   3.214   4.317  11.038
92469SOL     OW79303   9.889   7.989   1.393
92469SOL    HW179304   9.894   7.971   1.300
92469SOL    HW279305   9.848   8.076   1.399
92470SOL     OW79306  12.052   5.796   7.567
92470SOL    HW179307  12.105   5.859   7.519
92470SOL    HW279308  12.051   5.830   7.657
92471SOL     OW79309   6.848   3.740   5.154
92471SOL    HW179310   6.933   3.770   5.123
92471SOL    HW279311   6.801   3.716   5.074
92472SOL     OW79312  12.274  11.506   4.116
92472SOL    HW179313  12.330  11.559   4.171
92472SOL    HW279314  12.314  11.419   4.116
92473SOL     OW79315  14.607   7.860   1.196
92473SOL    HW179316  14.668   7.846   1.124
92473SOL    HW279317  14.535   7.798   1.179
92474SOL     OW79318   5.989   8.806   6.527
92474SOL    HW179319   5.958   8.778   6.441
92474SOL    HW279320   6.039   8.886   6.510
92475SOL     OW79321  12.795  10.535   7.633
92475SOL    HW179322  12.809  10.464   7.695
92475SOL    HW279323  12.850  10.514   7.558
92476SOL     OW79324   7.442   7.826   5.947
92476SOL    HW179325   7.498   7.881   5.892
92476SOL    HW279326   7.502   7.761   5.984
92477SOL     OW79327  14.352   8.183   1.044
92477SOL    HW179328  14.358   8.087   1.043
92477SOL    HW279329  14.324   8.206   0.955
92478SOL     OW79330  14.196  11.291  12.376
92478SOL    HW179331  14.275  11.309  12.427
92478SOL    HW279332  14.149  11.225  12.428
92479SOL     OW79333   2.987   2.864   8.688
92479SOL    HW179334   2.996   2.807   8.765
92479SOL    HW279335   3.044   2.939   8.707
92480SOL     OW79336   4.866   6.995   5.913
92480SOL    HW179337   4.888   6.925   5.850
92480SOL    HW279338   4.805   6.953   5.974
92481SOL     OW79339   8.022   8.751  14.209
92481SOL    HW179340   8.055   8.743  14.119
92481SOL    HW279341   7.990   8.841  14.214
92482SOL     OW79342   7.244  13.630   2.934
92482SOL    HW179343   7.195  13.658   3.011
92482SOL    HW279344   7.188  13.655   2.860
92483SOL     OW79345   5.448  12.670   8.010
92483SOL    HW179346   5.543  12.685   8.003
92483SOL    HW279347   5.441  12.580   8.041
92484SOL     OW79348  14.741   3.017  11.189
92484SOL    HW179349  14.802   2.964  11.138
92484SOL    HW279350  14.750   2.984  11.278
92485SOL     OW79351   7.883   0.500   4.627
92485SOL    HW179352   7.806   0.555   4.611
92485SOL    HW279353   7.883   0.487   4.722
92486SOL     OW79354  10.258  11.670   2.274
92486SOL    HW179355  10.301  11.755   2.284
92486SOL    HW279356  10.240  11.664   2.180
92487SOL     OW79357  10.060   1.795  12.297
92487SOL    HW179358  10.066   1.891  12.293
92487SOL    HW279359  10.128   1.769  12.359
92488SOL     OW79360  12.485  11.160   7.315
92488SOL    HW179361  12.410  11.217   7.304
92488SOL    HW279362  12.547  11.211   7.369
92489SOL     OW79363   8.049   2.812   0.940
92489SOL    HW179364   8.057   2.747   0.871
92489SOL    HW279365   8.138   2.841   0.957
92490SOL     OW79366   0.112  14.515   3.431
92490SOL    HW179367   0.032  14.528   3.482
92490SOL    HW279368   0.173  14.581   3.464
92491SOL     OW79369  14.845  14.793  14.298
92491SOL    HW179370   0.054  14.757  14.294
92491SOL    HW279371  14.809  14.779  14.210
92492SOL     OW79372   4.058   9.785   7.388
92492SOL    HW179373   3.966   9.796   7.362
92492SOL    HW279374   4.060   9.699   7.432
92493SOL     OW79375   9.202  12.756   4.623
92493SOL    HW179376   9.235  12.812   4.694
92493SOL    HW279377   9.115  12.730   4.652
92494SOL     OW79378   7.781  14.777   5.586
92494SOL    HW179379   7.848  14.731   5.537
92494SOL    HW279380   7.699  14.737   5.557
92495SOL     OW79381   7.132  14.202   7.892
92495SOL    HW179382   7.089  14.286   7.879
92495SOL    HW279383   7.209  14.221   7.946
92496SOL     OW79384   5.116  10.234  11.984
92496SOL    HW179385   5.104  10.234  12.079
92496SOL    HW279386   5.029  10.213  11.949
92497SOL     OW79387   4.887   0.486   6.939
92497SOL    HW179388   4.969   0.488   6.890
92497SOL    HW279389   4.870   0.392   6.953
92498SOL     OW79390   0.688   0.941   6.736
92498SOL    HW179391   0.705   0.936   6.830
92498SOL    HW279392   0.593   0.947   6.729
92499SOL     OW79393  14.610   8.557   8.241
92499SOL    HW179394  14.667   8.510   8.181
92499SOL    HW279395  14.581   8.633   8.192
92500SOL     OW79396   0.464   1.531   1.342
92500SOL    HW179397   0.500   1.568   1.262
92500SOL    HW279398   0.484   1.596   1.410
92501SOL     OW79399   3.550   2.004   5.384
92501SOL    HW179400   3.455   2.012   5.380
92501SOL    HW279401   3.578   2.000   5.292
92502SOL     OW79402   9.451   5.863   2.542
92502SOL    HW179403   9.434   5.947   2.586
92502SOL    HW279404   9.467   5.887   2.451
92503SOL     OW79405   1.611   4.684   6.932
92503SOL    HW179406   1.569   4.738   7.000
92503SOL    HW279407   1.679   4.741   6.896
92504SOL     OW79408  10.784   6.655   2.715
92504SOL    HW179409  10.715   6.720   2.704
92504SOL    HW279410  10.750   6.576   2.673
92505SOL     OW79411   9.608   3.849  10.395
92505SOL    HW179412   9.569   3.774  10.349
92505SOL    HW279413   9.568   3.926  10.355
92506SOL     OW79414   4.502  12.741  11.323
92506SOL    HW179415   4.510  12.645  11.326
92506SOL    HW279416   4.559  12.771  11.393
92507SOL     OW79417  11.640  10.479  13.661
92507SOL    HW179418  11.688  10.542  13.714
92507SOL    HW279419  11.707  10.419  13.628
92508SOL     OW79420   7.987   8.199  13.085
92508SOL    HW179421   7.948   8.217  13.000
92508SOL    HW279422   8.081   8.194  13.067
92509SOL     OW79423  10.094  10.842   6.592
92509SOL    HW179424  10.034  10.895   6.645
92509SOL    HW279425  10.144  10.907   6.541
92510SOL     OW79426   1.412  11.983   5.762
92510SOL    HW179427   1.428  11.894   5.792
92510SOL    HW279428   1.320  11.998   5.780
92511SOL     OW79429   6.911   8.850  14.685
92511SOL    HW179430   6.996   8.806  14.677
92511SOL    HW279431   6.930   8.932  14.730
92512SOL     OW79432  10.634  10.406   1.424
92512SOL    HW179433  10.625  10.316   1.393
92512SOL    HW279434  10.697  10.446   1.364
92513SOL     OW79435  12.182   2.992   4.369
92513SOL    HW179436  12.190   3.065   4.430
92513SOL    HW279437  12.195   2.914   4.424
92514SOL     OW79438  13.111   5.873   8.771
92514SOL    HW179439  13.050   5.934   8.729
92514SOL    HW279440  13.055   5.808   8.814
92515SOL     OW79441  10.121   2.449  12.843
92515SOL    HW179442  10.099   2.385  12.911
92515SOL    HW279443  10.176   2.513  12.888
92516SOL     OW79444   1.456   9.777   1.564
92516SOL    HW179445   1.500   9.859   1.585
92516SOL    HW279446   1.520   9.727   1.514
92517SOL     OW79447  13.775  12.445   7.067
92517SOL    HW179448  13.713  12.469   6.998
92517SOL    HW279449  13.795  12.353   7.049
92518SOL     OW79450   7.665   6.581   4.946
92518SOL    HW179451   7.669   6.669   4.908
92518SOL    HW279452   7.634   6.526   4.874
92519SOL     OW79453   9.561   1.022   0.865
92519SOL    HW179454   9.514   0.950   0.823
92519SOL    HW279455   9.638   0.982   0.904
92520SOL     OW79456   6.930   2.502   8.184
92520SOL    HW179457   6.916   2.595   8.166
92520SOL    HW279458   7.019   2.485   8.154
92521SOL     OW79459   0.675   2.643  11.995
92521SOL    HW179460   0.629   2.598  12.066
92521SOL    HW279461   0.767   2.643  12.023
92522SOL     OW79462   4.685   6.221  12.924
92522SOL    HW179463   4.617   6.164  12.960
92522SOL    HW279464   4.743   6.239  12.998
92523SOL     OW79465   3.921  10.543   8.093
92523SOL    HW179466   3.932  10.483   8.020
92523SOL    HW279467   4.007  10.583   8.105
92524SOL     OW79468   7.534   9.312   6.858
92524SOL    HW179469   7.524   9.397   6.814
92524SOL    HW279470   7.578   9.257   6.793
92525SOL     OW79471  11.908   1.779   6.807
92525SOL    HW179472  11.824   1.755   6.845
92525SOL    HW279473  11.969   1.779   6.881
92526SOL     OW79474   4.944   0.355   3.416
92526SOL    HW179475   5.020   0.411   3.404
92526SOL    HW279476   4.950   0.326   3.507
92527SOL     OW79477   3.717   8.103   7.929
92527SOL    HW179478   3.686   8.043   7.997
92527SOL    HW279479   3.805   8.072   7.908
92528SOL     OW79480   3.087  10.361   5.178
92528SOL    HW179481   3.013  10.300   5.184
92528SOL    HW279482   3.047  10.446   5.159
92529SOL     OW79483   3.556   5.766   9.876
92529SOL    HW179484   3.629   5.719   9.916
92529SOL    HW279485   3.569   5.857   9.902
92530SOL     OW79486   0.537   3.567   6.748
92530SOL    HW179487   0.579   3.503   6.805
92530SOL    HW279488   0.557   3.651   6.789
92531SOL     OW79489   1.401   3.524  10.526
92531SOL    HW179490   1.330   3.552  10.468
92531SOL    HW279491   1.426   3.603  10.574
92532SOL     OW79492  12.817   2.391  12.480
92532SOL    HW179493  12.808   2.295  12.481
92532SOL    HW279494  12.881   2.408  12.411
92533SOL     OW79495   0.464   3.874   0.115
92533SOL    HW179496   0.436   3.789   0.080
92533SOL    HW279497   0.438   3.937   0.047
92534SOL     OW79498  14.592   8.759   0.885
92534SOL    HW179499  14.625   8.803   0.964
92534SOL    HW279500  14.545   8.683   0.918
92535SOL     OW79501  12.481   9.791   1.747
92535SOL    HW179502  12.569   9.823   1.725
92535SOL    HW279503  12.426   9.818   1.674
92536SOL     OW79504   2.587  10.306   9.156
92536SOL    HW179505   2.682  10.300   9.165
92536SOL    HW279506   2.553  10.247   9.223
92537SOL     OW79507   1.355   5.415   0.988
92537SOL    HW179508   1.337   5.471   1.064
92537SOL    HW279509   1.435   5.369   1.010
92538SOL     OW79510   7.891  10.970  11.041
92538SOL    HW179511   7.846  11.024  10.976
92538SOL    HW279512   7.881  11.018  11.123
92539SOL     OW79513   3.080  13.647  12.603
92539SOL    HW179514   3.129  13.572  12.637
92539SOL    HW279515   3.056  13.698  12.680
92540SOL     OW79516   6.564  13.508   3.100
92540SOL    HW179517   6.543  13.497   3.007
92540SOL    HW279518   6.551  13.601   3.118
92541SOL     OW79519   3.627   8.246   1.909
92541SOL    HW179520   3.710   8.226   1.867
92541SOL    HW279521   3.599   8.328   1.869
92542SOL     OW79522   5.936  13.919  12.967
92542SOL    HW179523   6.016  13.917  13.020
92542SOL    HW279524   5.865  13.909  13.030
92543SOL     OW79525  10.635  13.595   5.058
92543SOL    HW179526  10.636  13.682   5.018
92543SOL    HW279527  10.543  13.570   5.059
92544SOL     OW79528   2.791   9.071   3.399
92544SOL    HW179529   2.847   9.082   3.475
92544SOL    HW279530   2.785   8.976   3.388
92545SOL     OW79531  14.012  10.462  14.279
92545SOL    HW179532  13.957  10.383  14.282
92545SOL    HW279533  14.085  10.438  14.222
92546SOL     OW79534  11.933   3.319  10.983
92546SOL    HW179535  12.016   3.277  11.004
92546SOL    HW279536  11.871   3.247  10.972
92547SOL     OW79537   0.960   2.798  14.552
92547SOL    HW179538   1.040   2.747  14.557
92547SOL    HW279539   0.988   2.884  14.522
92548SOL     OW79540   4.418   7.930  11.206
92548SOL    HW179541   4.458   7.999  11.153
92548SOL    HW279542   4.366   7.977  11.271
92549SOL     OW79543  13.492  10.358   8.429
92549SOL    HW179544  13.420  10.321   8.378
92549SOL    HW279545  13.509  10.293   8.497
92550SOL     OW79546  14.718   4.754  13.220
92550SOL    HW179547  14.748   4.757  13.129
92550SOL    HW279548  14.624   4.772  13.214
92551SOL     OW79549   3.912   0.135   4.454
92551SOL    HW179550   3.836   0.173   4.497
92551SOL    HW279551   3.985   0.193   4.476
92552SOL     OW79552  11.793   8.070   7.156
92552SOL    HW179553  11.881   8.098   7.133
92552SOL    HW279554  11.803   7.979   7.185
92553SOL     OW79555   4.607  11.521   2.673
92553SOL    HW179556   4.563  11.462   2.612
92553SOL    HW279557   4.618  11.603   2.624
92554SOL     OW79558   1.530   5.743  11.315
92554SOL    HW179559   1.588   5.680  11.357
92554SOL    HW279560   1.542   5.824  11.364
92555SOL     OW79561   1.553   8.383   7.640
92555SOL    HW179562   1.590   8.435   7.712
92555SOL    HW279563   1.513   8.448   7.582
92556SOL     OW79564   1.508   0.389  12.181
92556SOL    HW179565   1.600   0.403  12.202
92556SOL    HW279566   1.508   0.357  12.091
92557SOL     OW79567   5.937   1.611   3.281
92557SOL    HW179568   5.978   1.678   3.227
92557SOL    HW279569   5.867   1.657   3.327
92558SOL     OW79570   7.278  14.832   1.015
92558SOL    HW179571   7.303   0.014   1.085
92558SOL    HW279572   7.310  14.873   0.935
92559SOL     OW79573  13.283   2.079   6.150
92559SOL    HW179574  13.213   2.143   6.157
92559SOL    HW279575  13.245   2.008   6.098
92560SOL     OW79576   3.120   3.918  10.900
92560SOL    HW179577   3.202   3.951  10.863
92560SOL    HW279578   3.072   3.997  10.925
92561SOL     OW79579  10.766   4.698   4.030
92561SOL    HW179580  10.700   4.658   3.974
92561SOL    HW279581  10.799   4.626   4.084
92562SOL     OW79582   1.478   7.404   4.877
92562SOL    HW179583   1.530   7.483   4.890
92562SOL    HW279584   1.529   7.334   4.919
92563SOL     OW79585   9.454  10.408   4.299
92563SOL    HW179586   9.461  10.491   4.253
92563SOL    HW279587   9.376  10.367   4.262
92564SOL     OW79588  14.206   7.413   1.196
92564SOL    HW179589  14.282   7.391   1.249
92564SOL    HW279590  14.133   7.417   1.259
92565SOL     OW79591  13.666   1.797   9.122
92565SOL    HW179592  13.582   1.794   9.075
92565SOL    HW279593  13.696   1.707   9.123
92566SOL     OW79594   0.691   5.153   2.562
92566SOL    HW179595   0.759   5.219   2.546
92566SOL    HW279596   0.718   5.111   2.643
92567SOL     OW79597  12.167   7.997   1.712
92567SOL    HW179598  12.108   7.980   1.786
92567SOL    HW279599  12.184   8.091   1.717
92568SOL     OW79600  10.262  12.632   3.519
92568SOL    HW179601  10.194  12.594   3.573
92568SOL    HW279602  10.266  12.724   3.546
92569SOL     OW79603  11.572  14.207   6.610
92569SOL    HW179604  11.574  14.190   6.704
92569SOL    HW279605  11.650  14.260   6.593
92570SOL     OW79606   3.690  14.729   6.396
92570SOL    HW179607   3.770  14.742   6.344
92570SOL    HW279608   3.705  14.646   6.442
92571SOL     OW79609   5.173   0.320  10.041
92571SOL    HW179610   5.139   0.306  10.129
92571SOL    HW279611   5.094   0.329   9.987
92572SOL     OW79612   2.551   1.858   2.023
92572SOL    HW179613   2.631   1.890   1.981
92572SOL    HW279614   2.556   1.762   2.015
92573SOL     OW79615   4.735   9.410   2.243
92573SOL    HW179616   4.698   9.338   2.193
92573SOL    HW279617   4.816   9.374   2.280
92574SOL     OW79618  11.360   4.678   5.956
92574SOL    HW179619  11.339   4.769   5.931
92574SOL    HW279620  11.437   4.657   5.904
92575SOL     OW79621   9.924   5.485  11.294
92575SOL    HW179622  10.014   5.464  11.321
92575SOL    HW279623   9.900   5.415  11.233
92576SOL     OW79624  14.806  11.649   2.739
92576SOL    HW179625   0.002  11.590   2.740
92576SOL    HW279626  14.769  11.638   2.651
92577SOL     OW79627   6.038   0.841  13.274
92577SOL    HW179628   6.034   0.852  13.369
92577SOL    HW279629   6.101   0.770  13.261
92578SOL     OW79630   2.536   0.765   3.059
92578SOL    HW179631   2.501   0.724   3.138
92578SOL    HW279632   2.630   0.747   3.062
92579SOL     OW79633   2.534  13.189  11.102
92579SOL    HW179634   2.510  13.249  11.172
92579SOL    HW279635   2.472  13.117  11.110
92580SOL     OW79636   0.068  13.104   7.450
92580SOL    HW179637   0.161  13.104   7.427
92580SOL    HW279638   0.046  13.011   7.461
92581SOL     OW79639  14.394   2.943   7.419
92581SOL    HW179640  14.441   2.866   7.387
92581SOL    HW279641  14.428   2.956   7.508
92582SOL     OW79642   5.027   6.688  10.581
92582SOL    HW179643   4.989   6.626  10.519
92582SOL    HW279644   4.983   6.771  10.562
92583SOL     OW79645  12.210   9.259   2.923
92583SOL    HW179646  12.293   9.211   2.919
92583SOL    HW279647  12.189   9.278   2.831
92584SOL     OW79648   6.707   4.729  13.183
92584SOL    HW179649   6.629   4.687  13.217
92584SOL    HW279650   6.703   4.819  13.216
92585SOL     OW79651  13.032   1.195   3.702
92585SOL    HW179652  12.946   1.235   3.709
92585SOL    HW279653  13.085   1.261   3.657
92586SOL     OW79654   9.965  13.153   4.767
92586SOL    HW179655   9.914  13.227   4.735
92586SOL    HW279656   9.931  13.078   4.718
92587SOL     OW79657  11.464   2.982  14.394
92587SOL    HW179658  11.462   2.888  14.378
92587SOL    HW279659  11.374   3.005  14.417
92588SOL     OW79660  13.093   7.030   7.209
92588SOL    HW179661  13.137   7.114   7.192
92588SOL    HW279662  13.010   7.037   7.162
92589SOL     OW79663   2.961   6.919   1.695
92589SOL    HW179664   2.952   6.853   1.626
92589SOL    HW279665   2.967   7.002   1.647
92590SOL     OW79666   5.044  14.780  14.668
92590SOL    HW179667   5.134  14.804  14.643
92590SOL    HW279668   4.998  14.769  14.584
92591SOL     OW79669   9.750   9.214   6.781
92591SOL    HW179670   9.717   9.165   6.856
92591SOL    HW279671   9.682   9.205   6.714
92592SOL     OW79672   5.483   6.523  13.558
92592SOL    HW179673   5.407   6.465  13.556
92592SOL    HW279674   5.536   6.490  13.631
92593SOL     OW79675   4.950   4.236  13.178
92593SOL    HW179676   4.902   4.185  13.112
92593SOL    HW279677   4.931   4.327  13.157
92594SOL     OW79678   6.301   5.188   0.588
92594SOL    HW179679   6.350   5.154   0.513
92594SOL    HW279680   6.306   5.119   0.653
92595SOL     OW79681   7.311   6.914   7.797
92595SOL    HW179682   7.272   6.831   7.767
92595SOL    HW279683   7.405   6.902   7.784
92596SOL     OW79684  11.838  13.339   3.368
92596SOL    HW179685  11.845  13.307   3.278
92596SOL    HW279686  11.788  13.272   3.414
92597SOL     OW79687   5.513  12.421  10.228
92597SOL    HW179688   5.487  12.501  10.182
92597SOL    HW279689   5.477  12.431  10.316
92598SOL     OW79690  10.702  11.938   2.903
92598SOL    HW179691  10.641  12.010   2.887
92598SOL    HW279692  10.678  11.905   2.989
92599SOL     OW79693  13.025   8.012   3.488
92599SOL    HW179694  12.968   7.953   3.538
92599SOL    HW279695  13.098   7.957   3.459
92600SOL     OW79696   2.006  13.397   6.354
92600SOL    HW179697   1.946  13.362   6.288
92600SOL    HW279698   2.054  13.466   6.309
92601SOL     OW79699  12.939   1.907  12.615
92601SOL    HW179700  12.964   1.863  12.696
92601SOL    HW279701  12.903   1.838  12.560
92602SOL     OW79702   0.673   0.015  11.772
92602SOL    HW179703   0.661  14.800  11.761
92602SOL    HW279704   0.738   0.023  11.842
92603SOL     OW79705   0.826   8.407   4.136
92603SOL    HW179706   0.859   8.388   4.223
92603SOL    HW279707   0.786   8.325   4.107
92604SOL     OW79708  13.186   0.731  12.460
92604SOL    HW179709  13.272   0.725  12.500
92604SOL    HW279710  13.183   0.659  12.397
92605SOL     OW79711   5.895   1.814  12.169
92605SOL    HW179712   5.854   1.798  12.085
92605SOL    HW279713   5.915   1.908  12.169
92606SOL     OW79714  13.412   6.496  11.041
92606SOL    HW179715  13.341   6.431  11.039
92606SOL    HW279716  13.437   6.500  11.133
92607SOL     OW79717   4.398   7.374   3.930
92607SOL    HW179718   4.425   7.355   3.840
92607SOL    HW279719   4.323   7.432   3.922
92608SOL     OW79720  11.103  13.334  12.743
92608SOL    HW179721  11.135  13.356  12.655
92608SOL    HW279722  11.030  13.275  12.728
92609SOL     OW79723   4.816   2.657   0.847
92609SOL    HW179724   4.840   2.634   0.937
92609SOL    HW279725   4.780   2.577   0.810
92610SOL     OW79726  12.380   9.167  12.998
92610SOL    HW179727  12.300   9.219  13.005
92610SOL    HW279728  12.449   9.224  13.032
92611SOL     OW79729   5.730   9.140  12.118
92611SOL    HW179730   5.743   9.119  12.025
92611SOL    HW279731   5.712   9.055  12.159
92612SOL     OW79732   5.811  12.303  11.669
92612SOL    HW179733   5.729  12.334  11.629
92612SOL    HW279734   5.795  12.210  11.686
92613SOL     OW79735   7.156  11.022   5.807
92613SOL    HW179736   7.068  11.056   5.820
92613SOL    HW279737   7.143  10.945   5.751
92614SOL     OW79738  13.428   3.974  13.327
92614SOL    HW179739  13.373   4.033  13.378
92614SOL    HW279740  13.382   3.890  13.328
92615SOL     OW79741   2.743   9.556  12.130
92615SOL    HW179742   2.664   9.596  12.167
92615SOL    HW279743   2.805   9.554  12.203
92616SOL     OW79744   2.356   4.472   5.289
92616SOL    HW179745   2.446   4.451   5.315
92616SOL    HW279746   2.304   4.455   5.368
92617SOL     OW79747   7.219  13.198   9.683
92617SOL    HW179748   7.144  13.163   9.636
92617SOL    HW279749   7.257  13.263   9.623
92618SOL     OW79750  13.615  14.442   1.143
92618SOL    HW179751  13.581  14.531   1.130
92618SOL    HW279752  13.550  14.400   1.200
92619SOL     OW79753   5.447   8.359  13.643
92619SOL    HW179754   5.528   8.329  13.686
92619SOL    HW279755   5.382   8.360  13.714
92620SOL     OW79756   3.604   6.748   5.981
92620SOL    HW179757   3.664   6.823   5.987
92620SOL    HW279758   3.558   6.761   5.898
92621SOL     OW79759  11.906   5.370  14.821
92621SOL    HW179760  11.880   5.360   0.033
92621SOL    HW279761  12.001   5.382  14.824
92622SOL     OW79762   5.132   7.698  13.865
92622SOL    HW179763   5.089   7.783  13.880
92622SOL    HW279764   5.136   7.691  13.769
92623SOL     OW79765   5.196   1.158   0.043
92623SOL    HW179766   5.235   1.233   0.087
92623SOL    HW279767   5.270   1.111   0.004
92624SOL     OW79768   6.572   0.394   1.070
92624SOL    HW179769   6.601   0.384   0.979
92624SOL    HW279770   6.506   0.463   1.066
92625SOL     OW79771   4.660  14.491   3.004
92625SOL    HW179772   4.750  14.522   3.019
92625SOL    HW279773   4.665  14.397   3.022
92626SOL     OW79774   3.769   5.288   7.243
92626SOL    HW179775   3.839   5.352   7.235
92626SOL    HW279776   3.735   5.300   7.331
92627SOL     OW79777   6.413   9.155   3.725
92627SOL    HW179778   6.495   9.128   3.766
92627SOL    HW279779   6.375   9.074   3.690
92628SOL     OW79780   5.076  10.244   1.011
92628SOL    HW179781   5.095  10.154   1.038
92628SOL    HW279782   5.161  10.288   1.011
92629SOL     OW79783  14.316  10.013   4.579
92629SOL    HW179784  14.222   9.999   4.566
92629SOL    HW279785  14.326  10.108   4.582
92630SOL     OW79786  13.002   5.607  12.910
92630SOL    HW179787  12.955   5.688  12.930
92630SOL    HW279788  13.064   5.597  12.982
92631SOL     OW79789   3.745  13.918   4.827
92631SOL    HW179790   3.713  13.878   4.908
92631SOL    HW279791   3.838  13.893   4.823
92632SOL     OW79792   5.522  10.435   8.940
92632SOL    HW179793   5.509  10.499   8.870
92632SOL    HW279794   5.449  10.452   9.001
92633SOL     OW79795   3.464  14.759  11.853
92633SOL    HW179796   3.421  14.719  11.778
92633SOL    HW279797   3.491  14.685  11.908
92634SOL     OW79798   5.649   6.614  11.042
92634SOL    HW179799   5.737   6.623  11.004
92634SOL    HW279800   5.656   6.539  11.101
92635SOL     OW79801  11.887  13.697   0.194
92635SOL    HW179802  11.965  13.665   0.150
92635SOL    HW279803  11.878  13.788   0.165
92636SOL     OW79804   2.834   9.279  13.736
92636SOL    HW179805   2.875   9.316  13.658
92636SOL    HW279806   2.751   9.325  13.744
92637SOL     OW79807   5.066  12.513   3.258
92637SOL    HW179808   5.047  12.566   3.180
92637SOL    HW279809   5.110  12.574   3.317
92638SOL     OW79810   7.932   4.575   1.942
92638SOL    HW179811   7.905   4.557   2.032
92638SOL    HW279812   7.876   4.518   1.889
92639SOL     OW79813  11.611   8.953  14.679
92639SOL    HW179814  11.568   8.979  14.597
92639SOL    HW279815  11.540   8.921  14.734
92640SOL     OW79816   3.590   7.217  13.265
92640SOL    HW179817   3.677   7.255  13.280
92640SOL    HW279818   3.557   7.263  13.188
92641SOL     OW79819  14.852   8.610   6.229
92641SOL    HW179820   0.003   8.684   6.281
92641SOL    HW279821   0.007   8.627   6.141
92642SOL     OW79822  11.762   3.486   5.386
92642SOL    HW179823  11.746   3.580   5.376
92642SOL    HW279824  11.701   3.446   5.324
92643SOL     OW79825   9.978  11.583   7.430
92643SOL    HW179826   9.996  11.562   7.338
92643SOL    HW279827   9.908  11.648   7.426
92644SOL     OW79828   1.845   9.563  12.134
92644SOL    HW179829   1.799   9.637  12.175
92644SOL    HW279830   1.899   9.603  12.066
92645SOL     OW79831  12.867   2.886   2.898
92645SOL    HW179832  12.955   2.887   2.935
92645SOL    HW279833  12.812   2.921   2.967
92646SOL     OW79834  14.436   5.889   0.745
92646SOL    HW179835  14.465   5.799   0.731
92646SOL    HW279836  14.388   5.886   0.828
92647SOL     OW79837   3.201   8.317  11.691
92647SOL    HW179838   3.201   8.412  11.682
92647SOL    HW279839   3.111   8.291  11.669
92648SOL     OW79840  14.511   4.606   8.732
92648SOL    HW179841  14.481   4.566   8.813
92648SOL    HW279842  14.450   4.679   8.717
92649SOL     OW79843   2.535   9.885  14.765
92649SOL    HW179844   2.591   9.891  14.842
92649SOL    HW279845   2.449   9.913  14.796
92650SOL     OW79846   9.374   1.122  14.095
92650SOL    HW179847   9.324   1.079  14.026
92650SOL    HW279848   9.464   1.122  14.063
92651SOL     OW79849   1.472  12.974   0.520
92651SOL    HW179850   1.468  13.040   0.589
92651SOL    HW279851   1.395  12.919   0.536
92652SOL     OW79852  10.723  11.705   2.234
92652SOL    HW179853  10.758  11.784   2.275
92652SOL    HW279854  10.671  11.737   2.160
92653SOL     OW79855  11.861   3.192  12.881
92653SOL    HW179856  11.838   3.102  12.904
92653SOL    HW279857  11.919   3.220  12.951
92654SOL     OW79858   6.294   5.922   4.737
92654SOL    HW179859   6.279   6.009   4.700
92654SOL    HW279860   6.377   5.894   4.699
92655SOL     OW79861  12.233   0.566  14.153
92655SOL    HW179862  12.162   0.503  14.140
92655SOL    HW279863  12.305   0.532  14.100
92656SOL     OW79864   7.675  14.389   3.240
92656SOL    HW179865   7.618  14.430   3.175
92656SOL    HW279866   7.621  14.383   3.319
92657SOL     OW79867  10.031  10.464   1.366
92657SOL    HW179868  10.030  10.381   1.414
92657SOL    HW279869  10.080  10.524   1.423
92658SOL     OW79870  10.898   2.734   5.270
92658SOL    HW179871  10.900   2.782   5.188
92658SOL    HW279872  10.910   2.801   5.338
92659SOL     OW79873   3.332   5.415   3.933
92659SOL    HW179874   3.297   5.451   4.015
92659SOL    HW279875   3.344   5.491   3.876
92660SOL     OW79876   8.031  13.805   7.378
92660SOL    HW179877   8.031  13.723   7.427
92660SOL    HW279878   7.939  13.830   7.373
92661SOL     OW79879   5.651   8.797   7.691
92661SOL    HW179880   5.578   8.739   7.711
92661SOL    HW279881   5.713   8.742   7.644
92662SOL     OW79882  11.966   6.814   2.457
92662SOL    HW179883  11.936   6.903   2.472
92662SOL    HW279884  11.886   6.764   2.440
92663SOL     OW79885   0.425   9.174   2.358
92663SOL    HW179886   0.448   9.124   2.280
92663SOL    HW279887   0.346   9.133   2.392
92664SOL     OW79888   9.463   0.278   2.485
92664SOL    HW179889   9.539   0.255   2.431
92664SOL    HW279890   9.389   0.235   2.442
92665SOL     OW79891   7.847   7.538  11.672
92665SOL    HW179892   7.814   7.508  11.587
92665SOL    HW279893   7.888   7.461  11.710
92666SOL     OW79894   0.164  14.472   0.711
92666SOL    HW179895   0.200  14.400   0.762
92666SOL    HW279896   0.220  14.478   0.634
92667SOL     OW79897  12.195  14.456  11.132
92667SOL    HW179898  12.263  14.424  11.190
92667SOL    HW279899  12.177  14.383  11.072
92668SOL     OW79900  10.007   1.841  12.689
92668SOL    HW179901   9.920   1.803  12.674
92668SOL    HW279902  10.003   1.874  12.779
92669SOL     OW79903  10.229   2.842   1.330
92669SOL    HW179904  10.243   2.755   1.293
92669SOL    HW279905  10.166   2.828   1.401
92670SOL     OW79906  13.782   1.160   2.057
92670SOL    HW179907  13.708   1.115   2.098
92670SOL    HW279908  13.846   1.091   2.042
92671SOL     OW79909   1.151  14.014   6.145
92671SOL    HW179910   1.077  14.074   6.133
92671SOL    HW279911   1.218  14.047   6.085
92672SOL     OW79912   7.522  13.707  10.608
92672SOL    HW179913   7.444  13.677  10.562
92672SOL    HW279914   7.499  13.794  10.639
92673SOL     OW79915   2.828  10.443   3.942
92673SOL    HW179916   2.820  10.436   3.846
92673SOL    HW279917   2.834  10.353   3.972
92674SOL     OW79918   5.865   7.651  12.489
92674SOL    HW179919   5.850   7.745  12.480
92674SOL    HW279920   5.955   7.639  12.458
92675SOL     OW79921   5.206  12.427   1.702
92675SOL    HW179922   5.250  12.512   1.705
92675SOL    HW279923   5.259  12.374   1.643
92676SOL     OW79924   3.882   3.992  14.824
92676SOL    HW179925   3.936   3.964   0.019
92676SOL    HW279926   3.931   3.964  14.747
92677SOL     OW79927   6.762   6.888   3.864
92677SOL    HW179928   6.793   6.933   3.942
92677SOL    HW279929   6.838   6.884   3.806
92678SOL     OW79930  11.543  13.585  10.097
92678SOL    HW179931  11.497  13.507  10.065
92678SOL    HW279932  11.618  13.550  10.146
92679SOL     OW79933   4.028   2.295  10.709
92679SOL    HW179934   3.978   2.377  10.714
92679SOL    HW279935   3.968   2.229  10.744
92680SOL     OW79936  14.002   6.198   2.126
92680SOL    HW179937  14.012   6.119   2.179
92680SOL    HW279938  13.977   6.266   2.189
92681SOL     OW79939  14.645   4.506  13.086
92681SOL    HW179940  14.576   4.569  13.106
92681SOL    HW279941  14.702   4.552  13.024
92682SOL     OW79942   5.476  11.933   9.233
92682SOL    HW179943   5.472  11.843   9.265
92682SOL    HW279944   5.410  11.938   9.165
92683SOL     OW79945   9.776   9.793  14.216
92683SOL    HW179946   9.841   9.723  14.229
92683SOL    HW279947   9.800   9.860  14.280
92684SOL     OW79948   7.345   6.450   2.815
92684SOL    HW179949   7.304   6.536   2.825
92684SOL    HW279950   7.432   6.469   2.780
92685SOL     OW79951   9.629   3.133   0.391
92685SOL    HW179952   9.695   3.124   0.322
92685SOL    HW279953   9.680   3.128   0.473
92686SOL     OW79954   4.907   4.925  14.356
92686SOL    HW179955   4.835   4.868  14.329
92686SOL    HW279956   4.964   4.932  14.279
92687SOL     OW79957   6.515   5.516   3.146
92687SOL    HW179958   6.597   5.467   3.147
92687SOL    HW279959   6.469   5.483   3.069
92688SOL     OW79960   7.764   6.364   8.343
92688SOL    HW179961   7.714   6.296   8.387
92688SOL    HW279962   7.833   6.388   8.404
92689SOL     OW79963   3.672   8.147   1.201
92689SOL    HW179964   3.680   8.226   1.148
92689SOL    HW279965   3.654   8.077   1.138
92690SOL     OW79966  10.299   6.496   3.278
92690SOL    HW179967  10.386   6.534   3.289
92690SOL    HW279968  10.240   6.570   3.281
92691SOL     OW79969  13.369   2.045   0.056
92691SOL    HW179970  13.320   1.972   0.093
92691SOL    HW279971  13.401   2.011  14.852
92692SOL     OW79972   8.666   0.257  11.072
92692SOL    HW179973   8.586   0.219  11.108
92692SOL    HW279974   8.659   0.243  10.978
92693SOL     OW79975  13.662   8.358  11.634
92693SOL    HW179976  13.754   8.381  11.643
92693SOL    HW279977  13.662   8.272  11.593
92694SOL     OW79978  10.918  13.955   6.725
92694SOL    HW179979  10.893  13.902   6.800
92694SOL    HW279980  10.841  14.008   6.706
92695SOL     OW79981   5.380   6.636  10.084
92695SOL    HW179982   5.404   6.585  10.161
92695SOL    HW279983   5.329   6.575  10.030
92696SOL     OW79984   4.414  12.719   3.595
92696SOL    HW179985   4.480  12.685   3.656
92696SOL    HW279986   4.415  12.657   3.522
92697SOL     OW79987  10.147   4.302   0.485
92697SOL    HW179988  10.127   4.241   0.414
92697SOL    HW279989  10.223   4.264   0.529
92698SOL     OW79990   4.509   7.408   4.648
92698SOL    HW179991   4.513   7.495   4.608
92698SOL    HW279992   4.488   7.349   4.575
92699SOL     OW79993   7.460  10.013  10.572
92699SOL    HW179994   7.484   9.950  10.504
92699SOL    HW279995   7.510   9.987  10.649
92700SOL     OW79996   1.966  14.831   4.382
92700SOL    HW179997   1.900   0.019   4.366
92700SOL    HW279998   1.937  14.789   4.463
92701SOL     OW79999   9.416  12.488  10.597
92701SOL    HW180000   9.407  12.581  10.575
92701SOL    HW280001   9.487  12.458  10.540
92702SOL     OW80002   6.985   1.232   3.004
92702SOL    HW180003   6.945   1.223   3.090
92702SOL    HW280004   7.079   1.222   3.020
92703SOL     OW80005   5.304  13.280  14.595
92703SOL    HW180006   5.215  13.313  14.583
92703SOL    HW280007   5.352  13.311  14.519
92704SOL     OW80008   8.002  14.501   6.407
92704SOL    HW180009   8.063  14.545   6.467
92704SOL    HW280010   7.917  14.541   6.426
92705SOL     OW80011   0.835  13.039  14.477
92705SOL    HW180012   0.902  13.093  14.518
92705SOL    HW280013   0.854  12.950  14.507
92706SOL     OW80014   7.729   3.464  11.010
92706SOL    HW180015   7.756   3.372  11.012
92706SOL    HW280016   7.811   3.512  11.016
92707SOL     OW80017   1.406   3.560   9.827
92707SOL    HW180018   1.382   3.503   9.901
92707SOL    HW280019   1.336   3.624   9.822
92708SOL     OW80020   3.668   2.457   2.677
92708SOL    HW180021   3.621   2.538   2.693
92708SOL    HW280022   3.652   2.404   2.754
92709SOL     OW80023   3.595  11.052  10.059
92709SOL    HW180024   3.659  11.021   9.995
92709SOL    HW280025   3.608  11.147  10.062
92710SOL     OW80026   8.186   1.868   8.365
92710SOL    HW180027   8.168   1.815   8.287
92710SOL    HW280028   8.247   1.935   8.334
92711SOL     OW80029  10.890   2.160   7.083
92711SOL    HW180030  10.927   2.173   7.170
92711SOL    HW280031  10.808   2.208   7.084
92712SOL     OW80032   9.052  11.636   0.669
92712SOL    HW180033   9.027  11.583   0.744
92712SOL    HW280034   8.998  11.604   0.597
92713SOL     OW80035   3.232  10.275  12.212
92713SOL    HW180036   3.291  10.312  12.146
92713SOL    HW280037   3.209  10.349  12.268
92714SOL     OW80038   6.243   6.160   4.331
92714SOL    HW180039   6.317   6.221   4.332
92714SOL    HW280040   6.171   6.208   4.372
92715SOL     OW80041  10.708   3.511  13.536
92715SOL    HW180042  10.721   3.416  13.531
92715SOL    HW280043  10.673   3.526  13.623
92716SOL     OW80044  12.596   7.609  12.964
92716SOL    HW180045  12.651   7.585  12.890
92716SOL    HW280046  12.590   7.704  12.960
92717SOL     OW80047   9.119   9.419   3.919
92717SOL    HW180048   9.178   9.352   3.885
92717SOL    HW280049   9.175   9.476   3.972
92718SOL     OW80050   8.888   5.548   5.065
92718SOL    HW180051   8.921   5.582   4.982
92718SOL    HW280052   8.947   5.475   5.086
92719SOL     OW80053   3.590  13.387   6.073
92719SOL    HW180054   3.531  13.463   6.065
92719SOL    HW280055   3.678  13.424   6.059
92720SOL     OW80056   7.877   1.430  10.657
92720SOL    HW180057   7.842   1.394  10.576
92720SOL    HW280058   7.807   1.488  10.689
92721SOL     OW80059  14.225   3.559   8.465
92721SOL    HW180060  14.314   3.561   8.501
92721SOL    HW280061  14.192   3.647   8.477
92722SOL     OW80062   0.494  11.134   0.070
92722SOL    HW180063   0.589  11.130   0.085
92722SOL    HW280064   0.459  11.057   0.115
92723SOL     OW80065  12.034  13.726   3.203
92723SOL    HW180066  12.046  13.655   3.140
92723SOL    HW280067  11.947  13.711   3.240
92724SOL     OW80068   1.137   9.226  13.421
92724SOL    HW180069   1.230   9.248  13.412
92724SOL    HW280070   1.137   9.133  13.443
92725SOL     OW80071   2.625   7.103   8.142
92725SOL    HW180072   2.617   7.190   8.103
92725SOL    HW280073   2.535   7.077   8.162
92726SOL     OW80074   9.055   7.858  11.378
92726SOL    HW180075   9.104   7.867  11.297
92726SOL    HW280076   9.119   7.826  11.442
92727SOL     OW80077   4.536  10.713   7.588
92727SOL    HW180078   4.631  10.724   7.581
92727SOL    HW280079   4.499  10.796   7.558
92728SOL     OW80080  10.075  14.047   8.766
92728SOL    HW180081  10.009  14.007   8.709
92728SOL    HW280082  10.158  14.008   8.738
92729SOL     OW80083   0.137   3.456   9.987
92729SOL    HW180084   0.061   3.471  10.043
92729SOL    HW280085   0.100   3.428   9.903
92730SOL     OW80086   6.365   5.850   2.489
92730SOL    HW180087   6.439   5.900   2.525
92730SOL    HW280088   6.398   5.813   2.408
92731SOL     OW80089   7.423   6.510  12.100
92731SOL    HW180090   7.448   6.451  12.028
92731SOL    HW280091   7.335   6.539  12.077
92732SOL     OW80092   8.152  11.684  10.200
92732SOL    HW180093   8.099  11.638  10.135
92732SOL    HW280094   8.194  11.614  10.250
92733SOL     OW80095   1.085  12.133  10.404
92733SOL    HW180096   1.039  12.134  10.488
92733SOL    HW280097   1.115  12.043  10.395
92734SOL     OW80098   4.172   6.774  14.226
92734SOL    HW180099   4.112   6.845  14.250
92734SOL    HW280100   4.259   6.812  14.238
92735SOL     OW80101   0.709   3.743   1.887
92735SOL    HW180102   0.702   3.661   1.838
92735SOL    HW280103   0.618   3.766   1.908
92736SOL     OW80104  10.949   0.193   6.995
92736SOL    HW180105  11.002   0.133   6.943
92736SOL    HW280106  10.865   0.197   6.949
92737SOL     OW80107   8.942  10.599  11.592
92737SOL    HW180108   9.037  10.596  11.581
92737SOL    HW280109   8.907  10.585  11.504
92738SOL     OW80110  13.273   1.842   8.173
92738SOL    HW180111  13.305   1.818   8.260
92738SOL    HW280112  13.264   1.759   8.127
92739SOL     OW80113   4.383   1.064  14.027
92739SOL    HW180114   4.430   0.994  13.981
92739SOL    HW280115   4.346   1.118  13.957
92740SOL     OW80116   4.175   4.417   8.521
92740SOL    HW180117   4.188   4.342   8.463
92740SOL    HW280118   4.210   4.491   8.472
92741SOL     OW80119  13.724   6.617  14.053
92741SOL    HW180120  13.802   6.670  14.037
92741SOL    HW280121  13.655   6.681  14.069
92742SOL     OW80122   4.241   0.401   4.737
92742SOL    HW180123   4.188   0.437   4.808
92742SOL    HW280124   4.328   0.436   4.751
92743SOL     OW80125   2.699  14.223   8.454
92743SOL    HW180126   2.712  14.318   8.460
92743SOL    HW280127   2.786  14.188   8.438
92744SOL     OW80128  11.941   8.394  10.665
92744SOL    HW180129  11.996   8.395  10.743
92744SOL    HW280130  12.000   8.369  10.594
92745SOL     OW80131   6.090  13.543   8.114
92745SOL    HW180132   6.011  13.491   8.101
92745SOL    HW280133   6.085  13.611   8.046
92746SOL     OW80134  11.459   0.044   7.705
92746SOL    HW180135  11.519   0.016   7.636
92746SOL    HW280136  11.423  14.842   7.740
92747SOL     OW80137   5.371  13.116  11.271
92747SOL    HW180138   5.394  13.209  11.269
92747SOL    HW280139   5.278  13.116  11.295
92748SOL     OW80140   1.794   9.419   0.233
92748SOL    HW180141   1.766   9.458   0.316
92748SOL    HW280142   1.879   9.380   0.253
92749SOL     OW80143   6.566  14.019  14.818
92749SOL    HW180144   6.571  13.924  14.830
92749SOL    HW280145   6.485  14.033  14.769
92750SOL     OW80146  14.033   6.121   2.386
92750SOL    HW180147  14.103   6.062   2.414
92750SOL    HW280148  13.952   6.071   2.399
92751SOL     OW80149   2.711  11.490  14.174
92751SOL    HW180150   2.650  11.527  14.239
92751SOL    HW280151   2.798  11.517  14.204
92752SOL     OW80152   4.505   6.938  14.867
92752SOL    HW180153   4.544   6.999   0.050
92752SOL    HW280154   4.548   6.854   0.004
92753SOL     OW80155  13.667   9.370   3.426
92753SOL    HW180156  13.656   9.462   3.406
92753SOL    HW280157  13.644   9.324   3.345
92754SOL     OW80158  13.720   3.739   4.667
92754SOL    HW180159  13.760   3.704   4.588
92754SOL    HW280160  13.743   3.676   4.735
92755SOL     OW80161  14.742   3.864   2.075
92755SOL    HW180162  14.750   3.849   2.169
92755SOL    HW280163  14.811   3.811   2.035
92756SOL     OW80164  11.369  10.178   4.499
92756SOL    HW180165  11.377  10.102   4.441
92756SOL    HW280166  11.360  10.252   4.440
92757SOL     OW80167   4.823  10.507   8.516
92757SOL    HW180168   4.891  10.574   8.529
92757SOL    HW280169   4.847  10.437   8.576
92758SOL     OW80170   0.538   7.988  13.758
92758SOL    HW180171   0.521   7.918  13.694
92758SOL    HW280172   0.463   7.986  13.816
92759SOL     OW80173   1.299  13.340  10.448
92759SOL    HW180174   1.227  13.362  10.506
92759SOL    HW280175   1.301  13.244  10.448
92760SOL     OW80176   8.272   1.821   1.454
92760SOL    HW180177   8.349   1.793   1.504
92760SOL    HW280178   8.258   1.751   1.390
92761SOL     OW80179   3.618  13.268   6.995
92761SOL    HW180180   3.702  13.223   6.985
92761SOL    HW280181   3.580  13.230   7.074
92762SOL     OW80182   2.115  10.616   5.420
92762SOL    HW180183   2.210  10.603   5.426
92762SOL    HW280184   2.091  10.652   5.505
92763SOL     OW80185   5.720   0.270   7.343
92763SOL    HW180186   5.750   0.179   7.352
92763SOL    HW280187   5.776   0.307   7.276
92764SOL     OW80188   5.084   8.110   6.596
92764SOL    HW180189   5.023   8.135   6.665
92764SOL    HW280190   5.152   8.178   6.597
92765SOL     OW80191   1.644   8.996   5.292
92765SOL    HW180192   1.577   8.943   5.334
92765SOL    HW280193   1.638   8.974   5.199
92766SOL     OW80194   1.012   7.341   1.686
92766SOL    HW180195   0.935   7.303   1.643
92766SOL    HW280196   1.085   7.315   1.630
92767SOL     OW80197   3.154  14.559   4.290
92767SOL    HW180198   3.129  14.628   4.351
92767SOL    HW280199   3.156  14.479   4.343
92768SOL     OW80200  10.101   5.474   1.081
92768SOL    HW180201  10.074   5.479   0.989
92768SOL    HW280202  10.144   5.389   1.088
92769SOL     OW80203   6.893   1.786   7.915
92769SOL    HW180204   6.856   1.868   7.948
92769SOL    HW280205   6.823   1.748   7.862
92770SOL     OW80206   0.419   3.515   7.604
92770SOL    HW180207   0.478   3.591   7.605
92770SOL    HW280208   0.388   3.509   7.695
92771SOL     OW80209   5.375  10.900   6.025
92771SOL    HW180210   5.443  10.845   5.985
92771SOL    HW280211   5.422  10.977   6.057
92772SOL     OW80212  13.711   9.963   4.291
92772SOL    HW180213  13.792  10.006   4.262
92772SOL    HW280214  13.741   9.891   4.347
92773SOL     OW80215   8.464   2.172   0.518
92773SOL    HW180216   8.409   2.147   0.443
92773SOL    HW280217   8.461   2.095   0.575
92774SOL     OW80218   0.552   0.648   9.908
92774SOL    HW180219   0.503   0.716   9.954
92774SOL    HW280220   0.595   0.598   9.977
92775SOL     OW80221   0.158   5.773   0.153
92775SOL    HW180222   0.146   5.680   0.133
92775SOL    HW280223   0.121   5.819   0.078
92776SOL     OW80224   5.533   2.551   5.444
92776SOL    HW180225   5.609   2.552   5.386
92776SOL    HW280226   5.569   2.528   5.530
92777SOL     OW80227   8.494   4.284  14.516
92777SOL    HW180228   8.406   4.251  14.535
92777SOL    HW280229   8.536   4.291  14.602
92778SOL     OW80230   2.644   2.256   0.899
92778SOL    HW180231   2.598   2.322   0.848
92778SOL    HW280232   2.595   2.176   0.884
92779SOL     OW80233  11.399  14.618   9.519
92779SOL    HW180234  11.481  14.581   9.486
92779SOL    HW280235  11.346  14.633   9.441
92780SOL     OW80236   5.833   3.139  12.422
92780SOL    HW180237   5.918   3.176  12.446
92780SOL    HW280238   5.815   3.175  12.336
92781SOL     OW80239   5.253   7.428   9.399
92781SOL    HW180240   5.160   7.429   9.423
92781SOL    HW280241   5.296   7.387   9.475
92782SOL     OW80242  11.095   8.776   9.924
92782SOL    HW180243  11.033   8.731   9.981
92782SOL    HW280244  11.047   8.791   9.842
92783SOL     OW80245   5.648   7.879  11.495
92783SOL    HW180246   5.712   7.849  11.430
92783SOL    HW280247   5.624   7.800  11.544
92784SOL     OW80248   4.112   0.472   0.758
92784SOL    HW180249   4.155   0.417   0.692
92784SOL    HW280250   4.184   0.520   0.800
92785SOL     OW80251   3.476   8.542  12.844
92785SOL    HW180252   3.445   8.452  12.854
92785SOL    HW280253   3.441   8.587  12.921
92786SOL     OW80254   8.409  12.333   6.530
92786SOL    HW180255   8.346  12.301   6.466
92786SOL    HW280256   8.368  12.315   6.615
92787SOL     OW80257  10.797  12.629   9.121
92787SOL    HW180258  10.736  12.579   9.176
92787SOL    HW280259  10.742  12.685   9.067
92788SOL     OW80260  10.957   5.897   1.823
92788SOL    HW180261  11.051   5.904   1.809
92788SOL    HW280262  10.948   5.875   1.915
92789SOL     OW80263   1.700   7.048   9.771
92789SOL    HW180264   1.745   7.133   9.769
92789SOL    HW280265   1.671   7.035   9.681
92790SOL     OW80266  10.840   7.883   1.086
92790SOL    HW180267  10.927   7.923   1.076
92790SOL    HW280268  10.849   7.796   1.048
92791SOL     OW80269   0.570   4.498   1.134
92791SOL    HW180270   0.517   4.505   1.054
92791SOL    HW280271   0.509   4.464   1.200
92792SOL     OW80272  12.951   7.179   1.358
92792SOL    HW180273  13.012   7.108   1.342
92792SOL    HW280274  12.979   7.218   1.441
92793SOL     OW80275   6.961   5.353   4.066
92793SOL    HW180276   6.901   5.362   3.992
92793SOL    HW280277   7.043   5.323   4.026
92794SOL     OW80278  12.010   2.911   0.074
92794SOL    HW180279  11.958   2.832   0.085
92794SOL    HW280280  12.085   2.883   0.022
92795SOL     OW80281   4.739   0.336  11.818
92795SOL    HW180282   4.773   0.381  11.896
92795SOL    HW280283   4.800   0.265  11.803
92796SOL     OW80284  11.018   3.196   9.372
92796SOL    HW180285  11.060   3.157   9.296
92796SOL    HW280286  11.015   3.290   9.353
92797SOL     OW80287  10.456   7.980  14.465
92797SOL    HW180288  10.439   7.962  14.372
92797SOL    HW280289  10.375   7.955  14.509
92798SOL     OW80290  11.584   6.886  14.470
92798SOL    HW180291  11.618   6.808  14.425
92798SOL    HW280292  11.497   6.900  14.432
92799SOL     OW80293  14.634   6.906   7.708
92799SOL    HW180294  14.605   6.817   7.691
92799SOL    HW280295  14.722   6.896   7.744
92800SOL     OW80296   2.011   5.699  13.779
92800SOL    HW180297   1.956   5.777  13.786
92800SOL    HW280298   1.981   5.655  13.699
92801SOL     OW80299  13.750   5.660   9.161
92801SOL    HW180300  13.766   5.754   9.156
92801SOL    HW280301  13.830   5.620   9.127
92802SOL     OW80302   9.818   9.909  12.310
92802SOL    HW180303   9.863   9.928  12.393
92802SOL    HW280304   9.827   9.814  12.299
92803SOL     OW80305  14.309  10.669  13.278
92803SOL    HW180306  14.232  10.615  13.296
92803SOL    HW280307  14.345  10.689  13.364
92804SOL     OW80308  14.776   8.665  10.409
92804SOL    HW180309  14.743   8.697  10.326
92804SOL    HW280310  14.734   8.580  10.422
92805SOL     OW80311  12.901   2.723  11.604
92805SOL    HW180312  12.944   2.741  11.688
92805SOL    HW280313  12.838   2.654  11.623
92806SOL     OW80314  12.480  11.379   2.341
92806SOL    HW180315  12.496  11.337   2.426
92806SOL    HW280316  12.460  11.306   2.282
92807SOL     OW80317   0.435   0.948   2.649
92807SOL    HW180318   0.438   1.034   2.606
92807SOL    HW280319   0.380   0.962   2.726
92808SOL     OW80320   2.507  11.366   5.155
92808SOL    HW180321   2.601  11.376   5.144
92808SOL    HW280322   2.469  11.413   5.081
92809SOL     OW80323  10.439   9.998   0.886
92809SOL    HW180324  10.469   9.923   0.834
92809SOL    HW280325  10.363  10.031   0.839
92810SOL     OW80326   0.389   1.030   9.369
92810SOL    HW180327   0.394   0.990   9.456
92810SOL    HW280328   0.421   0.961   9.310
92811SOL     OW80329   7.811  12.176   2.033
92811SOL    HW180330   7.819  12.112   2.104
92811SOL    HW280331   7.754  12.134   1.969
92812SOL     OW80332   5.044   8.812  10.023
92812SOL    HW180333   5.106   8.791  10.094
92812SOL    HW280334   5.056   8.906  10.008
92813SOL     OW80335   5.625   4.747   6.882
92813SOL    HW180336   5.661   4.816   6.938
92813SOL    HW280337   5.558   4.792   6.830
92814SOL     OW80338  14.594   1.596   9.693
92814SOL    HW180339  14.676   1.643   9.705
92814SOL    HW280340  14.612   1.509   9.730
92815SOL     OW80341  10.400   4.779  12.449
92815SOL    HW180342  10.309   4.772  12.477
92815SOL    HW280343  10.410   4.713  12.381
92816SOL     OW80344  14.637  13.275  12.008
92816SOL    HW180345  14.662  13.350  12.062
92816SOL    HW280346  14.658  13.199  12.063
92817SOL     OW80347   1.026   9.803  14.484
92817SOL    HW180348   1.062   9.883  14.443
92817SOL    HW280349   0.941   9.830  14.518
92818SOL     OW80350   5.978  10.680   3.088
92818SOL    HW180351   5.951  10.593   3.058
92818SOL    HW280352   5.936  10.691   3.173
92819SOL     OW80353   5.355   2.279  12.558
92819SOL    HW180354   5.310   2.338  12.497
92819SOL    HW280355   5.320   2.302  12.644
92820SOL     OW80356   1.354   1.545   5.801
92820SOL    HW180357   1.274   1.510   5.840
92820SOL    HW280358   1.348   1.521   5.709
92821SOL     OW80359  10.511   5.267   8.170
92821SOL    HW180360  10.514   5.227   8.257
92821SOL    HW280361  10.442   5.219   8.124
92822SOL     OW80362   7.259  12.393   9.610
92822SOL    HW180363   7.270  12.429   9.698
92822SOL    HW280364   7.188  12.329   9.619
92823SOL     OW80365  14.089   0.103   6.477
92823SOL    HW180366  14.140   0.034   6.521
92823SOL    HW280367  14.104   0.086   6.384
92824SOL     OW80368   2.291  10.916   9.930
92824SOL    HW180369   2.364  10.943   9.874
92824SOL    HW280370   2.332  10.893  10.013
92825SOL     OW80371   3.171  11.361   5.879
92825SOL    HW180372   3.182  11.286   5.821
92825SOL    HW280373   3.089  11.401   5.852
92826SOL     OW80374  12.187   0.282  14.040
92826SOL    HW180375  12.164   0.221  14.110
92826SOL    HW280376  12.224   0.227  13.971
92827SOL     OW80377  10.268   6.454   7.677
92827SOL    HW180378  10.318   6.381   7.713
92827SOL    HW280379  10.190   6.415   7.639
92828SOL     OW80380   8.542   1.962   8.650
92828SOL    HW180381   8.557   1.870   8.628
92828SOL    HW280382   8.473   1.960   8.717
92829SOL     OW80383  14.434   8.303  11.427
92829SOL    HW180384  14.422   8.245  11.502
92829SOL    HW280385  14.346   8.312  11.389
92830SOL     OW80386   0.042  14.781   3.016
92830SOL    HW180387   0.044  14.784   3.111
92830SOL    HW280388   0.003  14.696   2.995
92831SOL     OW80389  13.806   2.775  13.345
92831SOL    HW180390  13.727   2.827  13.352
92831SOL    HW280391  13.776   2.685  13.338
92832SOL     OW80392   1.692   8.749  11.731
92832SOL    HW180393   1.779   8.739  11.692
92832SOL    HW280394   1.637   8.689  11.682
92833SOL     OW80395  10.657   7.205   0.873
92833SOL    HW180396  10.648   7.184   0.780
92833SOL    HW280397  10.700   7.128   0.911
92834SOL     OW80398   3.173  11.062   5.770
92834SOL    HW180399   3.165  11.071   5.865
92834SOL    HW280400   3.251  11.006   5.758
92835SOL     OW80401   3.334   5.107   1.786
92835SOL    HW180402   3.312   5.166   1.858
92835SOL    HW280403   3.428   5.119   1.773
92836SOL     OW80404   4.722  10.417   0.033
92836SOL    HW180405   4.686  10.448   0.116
92836SOL    HW280406   4.732  10.322   0.045
92837SOL     OW80407   1.300  14.811  13.972
92837SOL    HW180408   1.301   0.025  13.996
92837SOL    HW280409   1.318  14.810  13.878
92838SOL     OW80410  10.689  14.105  13.923
92838SOL    HW180411  10.773  14.108  13.877
92838SOL    HW280412  10.698  14.035  13.987
92839SOL     OW80413   5.566   0.687   9.370
92839SOL    HW180414   5.473   0.661   9.371
92839SOL    HW280415   5.580   0.729   9.454
92840SOL     OW80416  13.370   0.809   5.101
92840SOL    HW180417  13.350   0.740   5.037
92840SOL    HW280418  13.449   0.851   5.068
92841SOL     OW80419   3.118   7.823   2.332
92841SOL    HW180420   3.093   7.906   2.291
92841SOL    HW280421   3.037   7.772   2.335
92842SOL     OW80422   5.241   6.168  10.451
92842SOL    HW180423   5.205   6.251  10.420
92842SOL    HW280424   5.262   6.119  10.372
92843SOL     OW80425   9.417   0.997  12.763
92843SOL    HW180426   9.494   1.016  12.710
92843SOL    HW280427   9.343   1.002  12.702
92844SOL     OW80428  11.825   4.026   6.836
92844SOL    HW180429  11.845   4.076   6.915
92844SOL    HW280430  11.747   3.976   6.859
92845SOL     OW80431  12.512  11.293   0.457
92845SOL    HW180432  12.507  11.220   0.395
92845SOL    HW280433  12.424  11.331   0.455
92846SOL     OW80434   4.543   8.494  12.527
92846SOL    HW180435   4.572   8.433  12.459
92846SOL    HW280436   4.552   8.445  12.608
92847SOL     OW80437   1.475   2.788   7.170
92847SOL    HW180438   1.497   2.869   7.123
92847SOL    HW280439   1.382   2.798   7.192
92848SOL     OW80440   8.237  13.115   0.460
92848SOL    HW180441   8.239  13.035   0.513
92848SOL    HW280442   8.303  13.171   0.500
92849SOL     OW80443   2.560   0.357  10.627
92849SOL    HW180444   2.636   0.413  10.614
92849SOL    HW280445   2.553   0.307  10.546
92850SOL     OW80446  10.862   4.149  12.992
92850SOL    HW180447  10.803   4.199  12.936
92850SOL    HW280448  10.886   4.209  13.062
92851SOL     OW80449  13.696   0.993  11.326
92851SOL    HW180450  13.780   0.972  11.284
92851SOL    HW280451  13.635   1.002  11.253
92852SOL     OW80452  14.788  11.713   0.224
92852SOL    HW180453  14.778  11.753   0.138
92852SOL    HW280454   0.003  11.711   0.238
92853SOL     OW80455   1.965   6.144  12.008
92853SOL    HW180456   2.017   6.203  12.062
92853SOL    HW280457   2.028   6.107  11.946
92854SOL     OW80458   7.813   5.282  13.858
92854SOL    HW180459   7.903   5.258  13.881
92854SOL    HW280460   7.777   5.203  13.818
92855SOL     OW80461  12.749   9.882   2.571
92855SOL    HW180462  12.679   9.874   2.506
92855SOL    HW280463  12.797   9.800   2.563
92856SOL     OW80464   0.949   7.583   3.863
92856SOL    HW180465   0.862   7.548   3.883
92856SOL    HW280466   1.007   7.508   3.871
92857SOL     OW80467   7.763   0.836  13.151
92857SOL    HW180468   7.784   0.845  13.058
92857SOL    HW280469   7.676   0.873  13.159
92858SOL     OW80470  12.542   9.634   0.625
92858SOL    HW180471  12.464   9.600   0.668
92858SOL    HW280472  12.614   9.611   0.684
92859SOL     OW80473   2.511  11.751  11.891
92859SOL    HW180474   2.605  11.747  11.873
92859SOL    HW280475   2.494  11.843  11.910
92860SOL     OW80476   6.975   1.443   4.859
92860SOL    HW180477   6.880   1.452   4.863
92860SOL    HW280478   7.002   1.502   4.789
92861SOL     OW80479  13.531   1.315   1.860
92861SOL    HW180480  13.602   1.374   1.833
92861SOL    HW280481  13.557   1.230   1.824
92862SOL     OW80482  11.249  12.174   0.545
92862SOL    HW180483  11.257  12.201   0.454
92862SOL    HW280484  11.234  12.256   0.593
92863SOL     OW80485   3.620   3.381  14.517
92863SOL    HW180486   3.682   3.343  14.455
92863SOL    HW280487   3.663   3.372  14.602
92864SOL     OW80488  13.503   9.090   5.630
92864SOL    HW180489  13.439   9.160   5.619
92864SOL    HW280490  13.476   9.046   5.711
92865SOL     OW80491  12.656  10.880  10.846
92865SOL    HW180492  12.652  10.908  10.755
92865SOL    HW280493  12.585  10.928  10.889
92866SOL     OW80494   3.461  13.620  12.506
92866SOL    HW180495   3.398  13.677  12.461
92866SOL    HW280496   3.540  13.625  12.452
92867SOL     OW80497  10.300   0.257   5.437
92867SOL    HW180498  10.338   0.342   5.458
92867SOL    HW280499  10.375   0.199   5.426
92868SOL     OW80500   1.698  14.821   8.846
92868SOL    HW180501   1.783  14.828   8.803
92868SOL    HW280502   1.645  14.767   8.787
92869SOL     OW80503  12.123   8.032  12.192
92869SOL    HW180504  12.047   8.000  12.144
92869SOL    HW280505  12.106   8.010  12.283
92870SOL     OW80506  11.857   5.720   9.648
92870SOL    HW180507  11.836   5.751   9.736
92870SOL    HW280508  11.808   5.637   9.639
92871SOL     OW80509  12.095   3.818   2.797
92871SOL    HW180510  12.013   3.767   2.797
92871SOL    HW280511  12.138   3.792   2.879
92872SOL     OW80512   4.911   1.016  11.545
92872SOL    HW180513   4.907   0.932  11.589
92872SOL    HW280514   5.004   1.028  11.525
92873SOL     OW80515  10.904   6.010   3.126
92873SOL    HW180516  10.959   5.935   3.106
92873SOL    HW280517  10.891   6.055   3.042
92874SOL     OW80518   9.754  11.064   4.581
92874SOL    HW180519   9.761  11.014   4.500
92874SOL    HW280520   9.793  11.007   4.648
92875SOL     OW80521   6.704  10.281  14.053
92875SOL    HW180522   6.616  10.297  14.088
92875SOL    HW280523   6.761  10.339  14.105
92876SOL     OW80524   3.809   5.607  11.030
92876SOL    HW180525   3.875   5.557  11.079
92876SOL    HW280526   3.755   5.647  11.098
92877SOL     OW80527   9.896  12.505   2.159
92877SOL    HW180528   9.961  12.440   2.186
92877SOL    HW280529   9.817  12.453   2.140
92878SOL     OW80530   7.877   4.326   9.202
92878SOL    HW180531   7.829   4.362   9.128
92878SOL    HW280532   7.810   4.290   9.260
92879SOL     OW80533   6.053  13.728  13.487
92879SOL    HW180534   5.971  13.729  13.536
92879SOL    HW280535   6.037  13.784  13.411
92880SOL     OW80536   6.553   5.755   8.390
92880SOL    HW180537   6.552   5.847   8.363
92880SOL    HW280538   6.565   5.758   8.485
92881SOL     OW80539   8.954   3.356   3.287
92881SOL    HW180540   8.882   3.315   3.335
92881SOL    HW280541   8.964   3.442   3.328
92882SOL     OW80542   4.570  13.910  10.428
92882SOL    HW180543   4.535  13.890  10.514
92882SOL    HW280544   4.658  13.872  10.429
92883SOL     OW80545  14.752   6.165  11.621
92883SOL    HW180546  14.847   6.172  11.634
92883SOL    HW280547  14.715   6.183  11.707
92884SOL     OW80548   6.314   8.312  11.212
92884SOL    HW180549   6.235   8.301  11.265
92884SOL    HW280550   6.349   8.396  11.238
92885SOL     OW80551  12.299  14.697   9.735
92885SOL    HW180552  12.236  14.659   9.797
92885SOL    HW280553  12.332  14.775   9.780
92886SOL     OW80554   8.674   5.527   7.395
92886SOL    HW180555   8.657   5.551   7.304
92886SOL    HW280556   8.757   5.568   7.416
92887SOL     OW80557   0.923   0.316  13.842
92887SOL    HW180558   0.997   0.301  13.902
92887SOL    HW280559   0.938   0.404  13.807
92888SOL     OW80560  13.197  14.217   3.371
92888SOL    HW180561  13.239  14.166   3.440
92888SOL    HW280562  13.151  14.287   3.417
92889SOL     OW80563   7.713   7.112   1.652
92889SOL    HW180564   7.620   7.101   1.635
92889SOL    HW280565   7.730   7.059   1.729
92890SOL     OW80566   4.401   0.393  13.961
92890SOL    HW180567   4.358   0.363  14.041
92890SOL    HW280568   4.492   0.408  13.987
92891SOL     OW80569   0.538   2.815   8.143
92891SOL    HW180570   0.551   2.909   8.132
92891SOL    HW280571   0.622   2.782   8.176
92892SOL     OW80572  11.016  14.712  12.735
92892SOL    HW180573  11.070  14.773  12.684
92892SOL    HW280574  10.968  14.768  12.796
92893SOL     OW80575   7.095   5.971  10.259
92893SOL    HW180576   7.081   6.047  10.316
92893SOL    HW280577   7.180   5.987  10.218
92894SOL     OW80578   5.739   6.095   9.147
92894SOL    HW180579   5.650   6.097   9.111
92894SOL    HW280580   5.754   6.003   9.167
92895SOL     OW80581   4.066   2.065   3.535
92895SOL    HW180582   3.973   2.043   3.524
92895SOL    HW280583   4.111   2.010   3.471
92896SOL     OW80584   4.903   8.813   5.787
92896SOL    HW180585   4.962   8.738   5.794
92896SOL    HW280586   4.861   8.819   5.873
92897SOL     OW80587  13.469   7.778   6.488
92897SOL    HW180588  13.532   7.711   6.463
92897SOL    HW280589  13.414   7.736   6.555
92898SOL     OW80590  10.494   2.705   7.923
92898SOL    HW180591  10.581   2.690   7.887
92898SOL    HW280592  10.498   2.794   7.958
92899SOL     OW80593  12.657   5.425  12.341
92899SOL    HW180594  12.638   5.515  12.369
92899SOL    HW280595  12.680   5.379  12.421
92900SOL     OW80596   6.286   0.049   5.083
92900SOL    HW180597   6.252   0.118   5.025
92900SOL    HW280598   6.220  14.860   5.079
92901SOL     OW80599  10.367   7.015   6.024
92901SOL    HW180600  10.298   7.080   6.012
92901SOL    HW280601  10.440   7.048   5.970
92902SOL     OW80602   0.364   0.217   1.283
92902SOL    HW180603   0.361   0.280   1.211
92902SOL    HW280604   0.449   0.174   1.273
92903SOL     OW80605   6.790   9.738   9.518
92903SOL    HW180606   6.756   9.668   9.462
92903SOL    HW280607   6.828   9.693   9.593
92904SOL     OW80608   8.514   2.241  13.290
92904SOL    HW180609   8.568   2.245  13.210
92904SOL    HW280610   8.578   2.230  13.361
92905SOL     OW80611  12.945   6.726   0.864
92905SOL    HW180612  12.909   6.687   0.944
92905SOL    HW280613  13.031   6.686   0.855
92906SOL     OW80614  10.179   9.383   3.418
92906SOL    HW180615  10.188   9.462   3.366
92906SOL    HW280616  10.240   9.395   3.491
92907SOL     OW80617   4.585  14.192   1.771
92907SOL    HW180618   4.547  14.136   1.838
92907SOL    HW280619   4.528  14.181   1.695
92908SOL     OW80620   3.361  10.901   8.945
92908SOL    HW180621   3.446  10.909   8.989
92908SOL    HW280622   3.363  10.816   8.902
92909SOL     OW80623  12.255  10.943   9.387
92909SOL    HW180624  12.213  11.006   9.329
92909SOL    HW280625  12.278  10.869   9.331
92910SOL     OW80626  13.107  12.995  14.527
92910SOL    HW180627  13.092  12.902  14.540
92910SOL    HW280628  13.092  13.009  14.433
92911SOL     OW80629   8.757   7.835   6.061
92911SOL    HW180630   8.701   7.835   6.139
92911SOL    HW280631   8.710   7.889   5.998
92912SOL     OW80632  13.400  11.074   4.663
92912SOL    HW180633  13.436  11.124   4.589
92912SOL    HW280634  13.449  10.992   4.662
92913SOL     OW80635   3.382  14.216   8.559
92913SOL    HW180636   3.422  14.245   8.477
92913SOL    HW280637   3.316  14.151   8.533
92914SOL     OW80638   3.000  10.782  11.142
92914SOL    HW180639   2.925  10.747  11.191
92914SOL    HW280640   3.002  10.875  11.167
92915SOL     OW80641   9.781  14.670  11.697
92915SOL    HW180642   9.853  14.710  11.747
92915SOL    HW280643   9.803  14.577  11.694
92916SOL     OW80644   9.033   4.178   4.315
92916SOL    HW180645   9.111   4.131   4.345
92916SOL    HW280646   8.967   4.110   4.303
92917SOL     OW80647   9.589   7.733   6.243
92917SOL    HW180648   9.631   7.817   6.224
92917SOL    HW280649   9.557   7.702   6.158
92918SOL     OW80650   9.132  13.153   4.202
92918SOL    HW180651   9.126  13.093   4.276
92918SOL    HW280652   9.044  13.192   4.196
92919SOL     OW80653   2.177  12.350   2.792
92919SOL    HW180654   2.112  12.350   2.862
92919SOL    HW280655   2.248  12.297   2.825
92920SOL     OW80656  12.900   4.203   3.221
92920SOL    HW180657  12.918   4.189   3.314
92920SOL    HW280658  12.912   4.117   3.181
92921SOL     OW80659  13.445   9.208   0.962
92921SOL    HW180660  13.452   9.212   1.057
92921SOL    HW280661  13.362   9.162   0.947
92922SOL     OW80662  10.163   2.198   9.574
92922SOL    HW180663  10.123   2.257   9.638
92922SOL    HW280664  10.253   2.231   9.564
92923SOL     OW80665  10.708  11.830   3.144
92923SOL    HW180666  10.630  11.774   3.140
92923SOL    HW280667  10.782  11.769   3.145
92924SOL     OW80668  12.184  10.967   1.705
92924SOL    HW180669  12.156  11.033   1.641
92924SOL    HW280670  12.122  10.975   1.777
92925SOL     OW80671  14.704   0.906   7.093
92925SOL    HW180672  14.708   0.811   7.082
92925SOL    HW280673  14.758   0.923   7.170
92926SOL     OW80674   6.107  11.668   4.836
92926SOL    HW180675   6.079  11.577   4.846
92926SOL    HW280676   6.135  11.674   4.745
92927SOL     OW80677   1.552   4.682   1.924
92927SOL    HW180678   1.617   4.651   1.862
92927SOL    HW280679   1.487   4.612   1.929
92928SOL     OW80680   7.936  13.139   7.839
92928SOL    HW180681   7.989  13.216   7.823
92928SOL    HW280682   7.955  13.115   7.930
92929SOL     OW80683   0.128   6.958   5.557
92929SOL    HW180684   0.035   6.959   5.579
92929SOL    HW280685   0.129   6.943   5.462
92930SOL     OW80686   2.555   0.379   9.962
92930SOL    HW180687   2.582   0.287   9.960
92930SOL    HW280688   2.607   0.418  10.032
92931SOL     OW80689  13.568  10.844  11.328
92931SOL    HW180690  13.574  10.836  11.233
92931SOL    HW280691  13.541  10.934  11.343
92932SOL     OW80692  10.826   2.956  12.569
92932SOL    HW180693  10.831   3.010  12.648
92932SOL    HW280694  10.795   2.871  12.601
92933SOL     OW80695   0.131   7.376   5.083
92933SOL    HW180696   0.208   7.397   5.136
92933SOL    HW280697   0.125   7.448   5.020
92934SOL     OW80698   5.038   6.868   7.406
92934SOL    HW180699   5.022   6.808   7.334
92934SOL    HW280700   5.053   6.811   7.482
92935SOL     OW80701   1.956   6.676   0.911
92935SOL    HW180702   2.019   6.746   0.893
92935SOL    HW280703   1.874   6.722   0.931
92936SOL     OW80704  14.413   9.304   3.366
92936SOL    HW180705  14.320   9.297   3.343
92936SOL    HW280706  14.456   9.323   3.283
92937SOL     OW80707   5.795   2.026   9.482
92937SOL    HW180708   5.773   2.116   9.458
92937SOL    HW280709   5.890   2.026   9.493
92938SOL     OW80710  10.511  13.523   1.400
92938SOL    HW180711  10.489  13.471   1.478
92938SOL    HW280712  10.588  13.479   1.363
92939SOL     OW80713  13.182   7.012  10.399
92939SOL    HW180714  13.267   6.968  10.401
92939SOL    HW280715  13.180   7.062  10.481
92940SOL     OW80716   9.790  13.310   7.315
92940SOL    HW180717   9.867  13.254   7.320
92940SOL    HW280718   9.825  13.399   7.313
92941SOL     OW80719   2.780   5.864  10.487
92941SOL    HW180720   2.835   5.871  10.409
92941SOL    HW280721   2.800   5.943  10.538
92942SOL     OW80722   7.010  10.150   1.404
92942SOL    HW180723   6.970  10.161   1.490
92942SOL    HW280724   7.052  10.234   1.386
92943SOL     OW80725   6.984  11.642   6.464
92943SOL    HW180726   7.055  11.672   6.407
92943SOL    HW280727   6.937  11.723   6.488
92944SOL     OW80728  12.707   2.598   2.051
92944SOL    HW180729  12.676   2.669   2.107
92944SOL    HW280730  12.717   2.523   2.111
92945SOL     OW80731  13.738  14.107   2.936
92945SOL    HW180732  13.684  14.184   2.951
92945SOL    HW280733  13.675  14.036   2.923
92946SOL     OW80734  13.858   9.424   1.680
92946SOL    HW180735  13.854   9.520   1.677
92946SOL    HW280736  13.787   9.396   1.622
92947SOL     OW80737   4.747   1.768   9.434
92947SOL    HW180738   4.717   1.759   9.524
92947SOL    HW280739   4.750   1.863   9.418
92948SOL     OW80740   2.180   1.312   0.667
92948SOL    HW180741   2.185   1.337   0.759
92948SOL    HW280742   2.271   1.293   0.643
92949SOL     OW80743   3.154   2.314   2.666
92949SOL    HW180744   3.189   2.298   2.578
92949SOL    HW280745   3.086   2.247   2.678
92950SOL     OW80746   2.874   4.667   7.176
92950SOL    HW180747   2.792   4.620   7.194
92950SOL    HW280748   2.851   4.730   7.108
92951SOL     OW80749   6.286   4.479  13.538
92951SOL    HW180750   6.308   4.405  13.481
92951SOL    HW280751   6.196   4.501  13.514
92952SOL     OW80752   2.840  14.165   2.073
92952SOL    HW180753   2.927  14.160   2.033
92952SOL    HW280754   2.800  14.243   2.035
92953SOL     OW80755   2.090   0.265   5.553
92953SOL    HW180756   2.159   0.330   5.565
92953SOL    HW280757   2.053   0.286   5.467
92954SOL     OW80758  13.331   3.585   4.093
92954SOL    HW180759  13.347   3.621   4.180
92954SOL    HW280760  13.312   3.492   4.108
92955SOL     OW80761   0.187  10.806   4.970
92955SOL    HW180762   0.216  10.815   4.879
92955SOL    HW280763   0.166  10.896   4.997
92956SOL     OW80764   8.723   4.662  11.624
92956SOL    HW180765   8.666   4.711  11.565
92956SOL    HW280766   8.696   4.689  11.712
92957SOL     OW80767   2.811  13.320   1.621
92957SOL    HW180768   2.759  13.387   1.575
92957SOL    HW280769   2.745  13.263   1.660
92958SOL     OW80770  13.110   2.115   8.418
92958SOL    HW180771  13.076   2.026   8.407
92958SOL    HW280772  13.048   2.157   8.476
92959SOL     OW80773   8.820  11.448   6.438
92959SOL    HW180774   8.728  11.434   6.413
92959SOL    HW280775   8.870  11.394   6.378
92960SOL     OW80776  12.316   9.950   9.523
92960SOL    HW180777  12.396   9.941   9.575
92960SOL    HW280778  12.335  10.023   9.464
92961SOL     OW80779  10.716   3.863  12.252
92961SOL    HW180780  10.655   3.790  12.265
92961SOL    HW280781  10.753   3.847  12.165
92962SOL     OW80782   8.348  14.436   4.539
92962SOL    HW180783   8.404  14.359   4.534
92962SOL    HW280784   8.404  14.505   4.574
92963SOL     OW80785   0.287  10.679   3.455
92963SOL    HW180786   0.318  10.768   3.470
92963SOL    HW280787   0.366  10.627   3.443
92964SOL     OW80788   9.325   7.523   3.973
92964SOL    HW180789   9.242   7.492   3.936
92964SOL    HW280790   9.299   7.573   4.050
92965SOL     OW80791   1.845  10.597   3.392
92965SOL    HW180792   1.933  10.613   3.423
92965SOL    HW280793   1.791  10.594   3.471
92966SOL     OW80794   5.133   6.453   4.115
92966SOL    HW180795   5.090   6.385   4.167
92966SOL    HW280796   5.205   6.408   4.071
92967SOL     OW80797   9.791   9.911   1.751
92967SOL    HW180798   9.827   9.828   1.782
92967SOL    HW280799   9.865   9.955   1.709
92968SOL     OW80800  12.232   1.527   8.542
92968SOL    HW180801  12.301   1.478   8.498
92968SOL    HW280802  12.260   1.618   8.537
92969SOL     OW80803   6.217   6.102   2.063
92969SOL    HW180804   6.245   6.080   2.152
92969SOL    HW280805   6.289   6.075   2.007
92970SOL     OW80806   4.359  13.495   9.230
92970SOL    HW180807   4.393  13.552   9.299
92970SOL    HW280808   4.324  13.555   9.164
92971SOL     OW80809   2.049  10.465   6.808
92971SOL    HW180810   2.072  10.387   6.757
92971SOL    HW280811   1.954  10.463   6.813
92972SOL     OW80812   2.430   7.646  13.163
92972SOL    HW180813   2.391   7.731  13.183
92972SOL    HW280814   2.438   7.602  13.248
92973SOL     OW80815  10.594   9.608  14.322
92973SOL    HW180816  10.503   9.588  14.346
92973SOL    HW280817  10.622   9.533  14.270
92974SOL     OW80818   4.248   1.117  14.516
92974SOL    HW180819   4.304   1.074  14.452
92974SOL    HW280820   4.266   1.211  14.505
92975SOL     OW80821  12.373   9.431   7.357
92975SOL    HW180822  12.368   9.481   7.438
92975SOL    HW280823  12.374   9.497   7.288
92976SOL     OW80824  11.318   3.701   5.095
92976SOL    HW180825  11.408   3.705   5.063
92976SOL    HW280826  11.289   3.612   5.077
92977SOL     OW80827  11.112   0.401   8.339
92977SOL    HW180828  11.030   0.405   8.389
92977SOL    HW280829  11.150   0.489   8.349
92978SOL     OW80830   7.992   6.452   7.623
92978SOL    HW180831   8.053   6.519   7.654
92978SOL    HW280832   8.018   6.372   7.668
92979SOL     OW80833  11.860   9.828   2.717
92979SOL    HW180834  11.828   9.860   2.802
92979SOL    HW280835  11.803   9.755   2.695
92980SOL     OW80836   8.904   2.893   9.118
92980SOL    HW180837   8.908   2.948   9.040
92980SOL    HW280838   8.920   2.804   9.087
92981SOL     OW80839  13.150   9.847  14.775
92981SOL    HW180840  13.205   9.806  14.842
92981SOL    HW280841  13.066   9.859  14.818
92982SOL     OW80842  14.607   1.665  12.977
92982SOL    HW180843  14.661   1.726  12.928
92982SOL    HW280844  14.517   1.689  12.956
92983SOL     OW80845  12.288   1.407   7.543
92983SOL    HW180846  12.232   1.451   7.480
92983SOL    HW280847  12.237   1.331   7.572
92984SOL     OW80848  13.514   2.822   9.839
92984SOL    HW180849  13.488   2.911   9.863
92984SOL    HW280850  13.521   2.824   9.744
92985SOL     OW80851   0.269  14.648   9.959
92985SOL    HW180852   0.323  14.573   9.982
92985SOL    HW280853   0.299  14.674   9.872
92986SOL     OW80854  13.335   1.026   6.570
92986SOL    HW180855  13.263   1.088   6.560
92986SOL    HW280856  13.333   1.001   6.662
92987SOL     OW80857  10.351  10.881   2.429
92987SOL    HW180858  10.276  10.843   2.475
92987SOL    HW280859  10.318  10.904   2.343
92988SOL     OW80860  12.538   3.272  10.101
92988SOL    HW180861  12.577   3.211  10.039
92988SOL    HW280862  12.467   3.223  10.142
92989SOL     OW80863  10.865   9.828   5.813
92989SOL    HW180864  10.935   9.850   5.751
92989SOL    HW280865  10.818   9.755   5.772
92990SOL     OW80866   2.922  11.986   3.743
92990SOL    HW180867   2.915  12.057   3.806
92990SOL    HW280868   2.836  11.982   3.701
92991SOL     OW80869   6.737  13.168  10.459
92991SOL    HW180870   6.816  13.151  10.511
92991SOL    HW280871   6.748  13.116  10.380
92992SOL     OW80872  13.637   4.379  13.200
92992SOL    HW180873  13.656   4.472  13.217
92992SOL    HW280874  13.707   4.332  13.244
92993SOL     OW80875   0.012   7.427   8.875
92993SOL    HW180876   0.007   7.357   8.940
92993SOL    HW280877  14.860   7.505   8.921
92994SOL     OW80878  12.393  10.416   4.872
92994SOL    HW180879  12.316  10.419   4.816
92994SOL    HW280880  12.462  10.457   4.820
92995SOL     OW80881  13.454  11.075   6.403
92995SOL    HW180882  13.369  11.114   6.425
92995SOL    HW280883  13.507  11.086   6.482
92996SOL     OW80884   0.708   1.696  11.832
92996SOL    HW180885   0.764   1.738  11.766
92996SOL    HW280886   0.747   1.721  11.916
92997SOL     OW80887   2.325   2.468  10.640
92997SOL    HW180888   2.301   2.461  10.548
92997SOL    HW280889   2.416   2.437  10.644
92998SOL     OW80890   0.092  11.894   7.881
92998SOL    HW180891   0.130  11.968   7.927
92998SOL    HW280892   0.001  11.891   7.912
92999SOL     OW80893  12.435   7.821  13.504
92999SOL    HW180894  12.429   7.792  13.413
92999SOL    HW280895  12.526   7.804  13.529
93000SOL     OW80896   1.935   8.162   5.938
93000SOL    HW180897   2.023   8.193   5.915
93000SOL    HW280898   1.938   8.151   6.033
93001SOL     OW80899  12.979   3.252   2.418
93001SOL    HW180900  12.985   3.259   2.513
93001SOL    HW280901  13.068   3.270   2.387
93002SOL     OW80902  14.112   3.484   0.438
93002SOL    HW180903  14.196   3.525   0.459
93002SOL    HW280904  14.135   3.399   0.401
93003SOL     OW80905   9.078   2.545  10.955
93003SOL    HW180906   9.094   2.584  10.869
93003SOL    HW280907   9.165   2.526  10.990
93004SOL     OW80908  10.518   5.425   8.747
93004SOL    HW180909  10.569   5.469   8.680
93004SOL    HW280910  10.574   5.426   8.825
93005SOL     OW80911   0.717  12.193   4.687
93005SOL    HW180912   0.767  12.192   4.605
93005SOL    HW280913   0.650  12.259   4.673
93006SOL     OW80914  13.591  12.600   2.955
93006SOL    HW180915  13.546  12.681   2.981
93006SOL    HW280916  13.521  12.535   2.946
93007SOL     OW80917   6.357   9.833   4.207
93007SOL    HW180918   6.421   9.898   4.234
93007SOL    HW280919   6.290   9.835   4.276
93008SOL     OW80920  10.966  12.036   8.178
93008SOL    HW180921  10.963  11.946   8.146
93008SOL    HW280922  10.875  12.057   8.200
93009SOL     OW80923   8.426  14.169   3.593
93009SOL    HW180924   8.493  14.185   3.659
93009SOL    HW280925   8.474  14.132   3.518
93010SOL     OW80926  10.518   0.789  12.853
93010SOL    HW180927  10.525   0.754  12.764
93010SOL    HW280928  10.428   0.767  12.880
93011SOL     OW80929   5.657   4.180  13.890
93011SOL    HW180930   5.689   4.145  13.973
93011SOL    HW280931   5.573   4.219  13.910
93012SOL     OW80932   4.727   0.307   8.630
93012SOL    HW180933   4.661   0.238   8.634
93012SOL    HW280934   4.754   0.320   8.721
93013SOL     OW80935   9.212   3.128   7.935
93013SOL    HW180936   9.289   3.088   7.976
93013SOL    HW280937   9.149   3.137   8.007
93014SOL     OW80938   9.264   4.345   8.017
93014SOL    HW180939   9.218   4.268   7.982
93014SOL    HW280940   9.195   4.401   8.051
93015SOL     OW80941  13.210   9.727   8.963
93015SOL    HW180942  13.221   9.644   9.011
93015SOL    HW280943  13.142   9.709   8.899
93016SOL     OW80944   2.152  13.584   6.211
93016SOL    HW180945   2.229  13.597   6.266
93016SOL    HW280946   2.152  13.660   6.153
93017SOL     OW80947   6.169  13.745   3.677
93017SOL    HW180948   6.144  13.688   3.605
93017SOL    HW280949   6.086  13.771   3.717
93018SOL     OW80950  11.966  12.998  14.140
93018SOL    HW180951  11.953  13.061  14.069
93018SOL    HW280952  12.011  12.924  14.098
93019SOL     OW80953  14.151  14.044   0.980
93019SOL    HW180954  14.097  14.102   1.032
93019SOL    HW280955  14.090  13.997   0.924
93020SOL     OW80956   8.758   6.028   5.522
93020SOL    HW180957   8.730   6.118   5.505
93020SOL    HW280958   8.710   5.975   5.459
93021SOL     OW80959   1.863   1.410   5.103
93021SOL    HW180960   1.917   1.412   5.181
93021SOL    HW280961   1.917   1.449   5.034
93022SOL     OW80962   2.116  11.136   8.661
93022SOL    HW180963   2.064  11.055   8.664
93022SOL    HW280964   2.085  11.187   8.736
93023SOL     OW80965   5.827   2.851   2.996
93023SOL    HW180966   5.820   2.827   3.089
93023SOL    HW280967   5.819   2.768   2.949
93024SOL     OW80968   9.310  13.733   5.858
93024SOL    HW180969   9.405  13.724   5.855
93024SOL    HW280970   9.285  13.701   5.944
93025SOL     OW80971   2.806   0.783   9.691
93025SOL    HW180972   2.730   0.819   9.646
93025SOL    HW280973   2.877   0.843   9.668
93026SOL     OW80974   9.581  11.804  14.245
93026SOL    HW180975   9.572  11.899  14.234
93026SOL    HW280976   9.498  11.768  14.214
93027SOL     OW80977   0.969   7.595   3.164
93027SOL    HW180978   0.897   7.621   3.106
93027SOL    HW280979   0.929   7.591   3.251
93028SOL     OW80980  14.012  12.598   9.966
93028SOL    HW180981  14.064  12.520   9.950
93028SOL    HW280982  14.073  12.671   9.956
93029SOL     OW80983   5.129   5.633  11.546
93029SOL    HW180984   5.152   5.652  11.455
93029SOL    HW280985   5.061   5.697  11.568
93030SOL     OW80986   3.915  11.388  11.037
93030SOL    HW180987   3.954  11.326  11.099
93030SOL    HW280988   3.837  11.343  11.005
93031SOL     OW80989   2.507   0.939  13.725
93031SOL    HW180990   2.419   0.900  13.723
93031SOL    HW280991   2.516   0.982  13.640
93032SOL     OW80992   0.483   5.486  14.650
93032SOL    HW180993   0.441   5.433  14.584
93032SOL    HW280994   0.480   5.575  14.616
93033SOL     OW80995   1.639   8.758   7.542
93033SOL    HW180996   1.640   8.773   7.637
93033SOL    HW280997   1.564   8.807   7.510
93034SOL     OW80998   1.846   4.499   5.972
93034SOL    HW180999   1.822   4.499   5.880
93034SOL    HW281000   1.853   4.407   5.996
93035SOL     OW81001   6.220   7.914   7.983
93035SOL    HW181002   6.156   7.966   8.030
93035SOL    HW281003   6.285   7.889   8.049
93036SOL     OW81004   7.484   8.782   0.201
93036SOL    HW181005   7.458   8.700   0.241
93036SOL    HW281006   7.429   8.789   0.123
93037SOL     OW81007  12.478  11.696   3.333
93037SOL    HW181008  12.500  11.786   3.308
93037SOL    HW281009  12.521  11.684   3.418
93038SOL     OW81010   7.665   7.961  13.306
93038SOL    HW181011   7.736   8.001  13.356
93038SOL    HW281012   7.612   7.914  13.371
93039SOL     OW81013   9.008   5.587   9.696
93039SOL    HW181014   9.040   5.542   9.618
93039SOL    HW281015   9.087   5.599   9.750
93040SOL     OW81016  14.162  10.117   3.716
93040SOL    HW181017  14.250  10.091   3.744
93040SOL    HW281018  14.104  10.052   3.757
93041SOL     OW81019   2.397  12.006  10.009
93041SOL    HW181020   2.348  12.056  10.075
93041SOL    HW281021   2.466  12.065   9.981
93042SOL     OW81022   2.043   8.355   4.531
93042SOL    HW181023   2.064   8.448   4.527
93042SOL    HW281024   2.127   8.311   4.516
93043SOL     OW81025  14.484   0.754   0.461
93043SOL    HW181026  14.420   0.760   0.531
93043SOL    HW281027  14.568   0.748   0.505
93044SOL     OW81028   2.990   7.482  10.045
93044SOL    HW181029   2.914   7.529  10.078
93044SOL    HW281030   3.031   7.446  10.124
93045SOL     OW81031   1.408   3.106   6.559
93045SOL    HW181032   1.454   3.087   6.477
93045SOL    HW281033   1.362   3.188   6.542
93046SOL     OW81034   0.256   4.062   8.318
93046SOL    HW181035   0.333   4.119   8.314
93046SOL    HW281036   0.211   4.089   8.399
93047SOL     OW81037   3.041  13.513  10.795
93047SOL    HW181038   3.121  13.565  10.803
93047SOL    HW281039   3.011  13.502  10.885
93048SOL     OW81040   1.535   4.617   2.626
93048SOL    HW181041   1.606   4.639   2.567
93048SOL    HW281042   1.527   4.692   2.685
93049SOL     OW81043   7.919   3.465  14.868
93049SOL    HW181044   7.828   3.436  14.874
93049SOL    HW281045   7.923   3.513  14.785
93050SOL     OW81046   4.001   3.048   9.474
93050SOL    HW181047   3.936   3.111   9.442
93050SOL    HW281048   3.954   2.965   9.479
93051SOL     OW81049   7.623   1.590   0.625
93051SOL    HW181050   7.631   1.645   0.546
93051SOL    HW281051   7.554   1.633   0.676
93052SOL     OW81052  14.102   9.316  14.441
93052SOL    HW181053  14.121   9.374  14.515
93052SOL    HW281054  14.152   9.237  14.459
93053SOL     OW81055  14.129   6.112   6.279
93053SOL    HW181056  14.130   6.162   6.197
93053SOL    HW281057  14.197   6.153   6.333
93054SOL     OW81058   7.397   7.938   6.581
93054SOL    HW181059   7.447   7.975   6.508
93054SOL    HW281060   7.438   7.975   6.659
93055SOL     OW81061  13.078   6.555   1.625
93055SOL    HW181062  13.007   6.618   1.635
93055SOL    HW281063  13.093   6.522   1.714
93056SOL     OW81064  11.334   2.713   8.558
93056SOL    HW181065  11.289   2.790   8.523
93056SOL    HW281066  11.406   2.749   8.610
93057SOL     OW81067   4.362   6.005   4.802
93057SOL    HW181068   4.303   5.946   4.754
93057SOL    HW281069   4.309   6.037   4.875
93058SOL     OW81070  12.112   4.141   3.246
93058SOL    HW181071  12.054   4.181   3.311
93058SOL    HW281072  12.068   4.157   3.162
93059SOL     OW81073   0.632   2.790   0.530
93059SOL    HW181074   0.588   2.875   0.530
93059SOL    HW281075   0.723   2.810   0.510
93060SOL     OW81076  10.019  10.741  14.435
93060SOL    HW181077  10.002  10.792  14.514
93060SOL    HW281078  10.068  10.665  14.466
93061SOL     OW81079  12.460   8.128   8.819
93061SOL    HW181080  12.526   8.060   8.815
93061SOL    HW281081  12.395   8.103   8.753
93062SOL     OW81082  10.792  10.263   6.832
93062SOL    HW181083  10.838  10.238   6.752
93062SOL    HW281084  10.793  10.184   6.886
93063SOL     OW81085   7.830  13.993   7.892
93063SOL    HW181086   7.742  13.972   7.861
93063SOL    HW281087   7.873  14.034   7.818
93064SOL     OW81088   0.532   7.080   5.704
93064SOL    HW181089   0.449   7.129   5.712
93064SOL    HW281090   0.600   7.145   5.724
93065SOL     OW81091   7.365   0.835   2.730
93065SOL    HW181092   7.359   0.930   2.744
93065SOL    HW281093   7.387   0.826   2.637
93066SOL     OW81094   0.241   1.782   7.759
93066SOL    HW181095   0.318   1.836   7.777
93066SOL    HW281096   0.172   1.845   7.739
93067SOL     OW81097   0.736   5.375   8.057
93067SOL    HW181098   0.749   5.355   8.150
93067SOL    HW281099   0.642   5.394   8.050
93068SOL     OW81100  11.683   3.197   3.518
93068SOL    HW181101  11.724   3.170   3.436
93068SOL    HW281102  11.636   3.119   3.548
93069SOL     OW81103   4.587   3.902   5.625
93069SOL    HW181104   4.599   3.840   5.554
93069SOL    HW281105   4.662   3.961   5.620
93070SOL     OW81106   9.243  10.605  14.822
93070SOL    HW181107   9.273  10.644  14.740
93070SOL    HW281108   9.240  10.511  14.804
93071SOL     OW81109   2.877   0.190   6.239
93071SOL    HW181110   2.813   0.260   6.251
93071SOL    HW281111   2.918   0.181   6.325
93072SOL     OW81112   9.663  12.853   8.305
93072SOL    HW181113   9.699  12.841   8.217
93072SOL    HW281114   9.659  12.948   8.316
93073SOL     OW81115   1.900   9.040  11.893
93073SOL    HW181116   1.906   9.078  11.980
93073SOL    HW281117   1.854   8.957  11.905
93074SOL     OW81118   0.065  11.244   8.635
93074SOL    HW181119   0.122  11.300   8.688
93074SOL    HW281120  14.856  11.264   8.666
93075SOL     OW81121  10.027   9.363   5.047
93075SOL    HW181122  10.077   9.359   4.966
93075SOL    HW281123  10.082   9.416   5.106
93076SOL     OW81124  13.511   2.052   7.779
93076SOL    HW181125  13.452   2.024   7.709
93076SOL    HW281126  13.595   2.013   7.756
93077SOL     OW81127   7.024   1.216  13.764
93077SOL    HW181128   7.109   1.254  13.742
93077SOL    HW281129   6.962   1.289  13.755
93078SOL     OW81130  12.066  11.936   7.951
93078SOL    HW181131  12.108  11.856   7.921
93078SOL    HW281132  12.074  11.996   7.877
93079SOL     OW81133   4.634   0.300  11.543
93079SOL    HW181134   4.662   0.212  11.518
93079SOL    HW281135   4.675   0.314  11.629
93080SOL     OW81136   6.487   9.651   7.986
93080SOL    HW181137   6.450   9.574   7.943
93080SOL    HW281138   6.417   9.682   8.044
93081SOL     OW81139   2.950   3.830   6.178
93081SOL    HW181140   2.901   3.887   6.119
93081SOL    HW281141   2.884   3.792   6.236
93082SOL     OW81142   1.019   9.118  12.131
93082SOL    HW181143   0.947   9.181  12.126
93082SOL    HW281144   1.049   9.110  12.040
93083SOL     OW81145   2.062  13.795  10.218
93083SOL    HW181146   2.151  13.760  10.226
93083SOL    HW281147   2.032  13.805  10.309
93084SOL     OW81148   0.684   6.870   2.056
93084SOL    HW181149   0.725   6.861   1.970
93084SOL    HW281150   0.599   6.912   2.038
93085SOL     OW81151  11.081  13.859   5.040
93085SOL    HW181152  11.081  13.900   4.954
93085SOL    HW281153  11.077  13.933   5.102
93086SOL     OW81154  14.611   8.266   4.149
93086SOL    HW181155  14.575   8.302   4.068
93086SOL    HW281156  14.670   8.197   4.121
93087SOL     OW81157   0.081   9.409   3.120
93087SOL    HW181158   0.005   9.403   3.062
93087SOL    HW281159   0.082   9.325   3.167
93088SOL     OW81160   6.721   6.753  13.698
93088SOL    HW181161   6.791   6.817  13.682
93088SOL    HW281162   6.697   6.767  13.790
93089SOL     OW81163   1.048   0.769  11.844
93089SOL    HW181164   1.058   0.692  11.900
93089SOL    HW281165   1.014   0.735  11.762
93090SOL     OW81166   0.053   7.120   6.834
93090SOL    HW181167   0.147   7.130   6.822
93090SOL    HW281168   0.018   7.105   6.746
93091SOL     OW81169   8.511  11.272  13.381
93091SOL    HW181170   8.484  11.355  13.342
93091SOL    HW281171   8.528  11.214  13.306
93092SOL     OW81172  11.568  13.684  13.191
93092SOL    HW181173  11.495  13.741  13.213
93092SOL    HW281174  11.587  13.704  13.099
93093SOL     OW81175   6.154   8.689   6.767
93093SOL    HW181176   6.244   8.682   6.734
93093SOL    HW281177   6.112   8.753   6.710
93094SOL     OW81178   0.368   5.454   5.498
93094SOL    HW181179   0.453   5.498   5.509
93094SOL    HW281180   0.390   5.370   5.460
93095SOL     OW81181  11.001   1.389   9.652
93095SOL    HW181182  11.073   1.451   9.640
93095SOL    HW281183  10.995   1.377   9.746
93096SOL     OW81184  11.939  10.315   7.055
93096SOL    HW181185  11.955  10.221   7.068
93096SOL    HW281186  11.996  10.358   7.118
93097SOL     OW81187  13.143  10.542   2.731
93097SOL    HW181188  13.068  10.523   2.675
93097SOL    HW281189  13.106  10.585   2.808
93098SOL     OW81190  11.856   1.099  12.284
93098SOL    HW181191  11.917   1.125  12.353
93098SOL    HW281192  11.896   1.132  12.203
93099SOL     OW81193   4.706   0.502  13.321
93099SOL    HW181194   4.678   0.470  13.236
93099SOL    HW281195   4.784   0.451  13.342
93100SOL     OW81196   2.693   3.342   5.904
93100SOL    HW181197   2.707   3.328   5.810
93100SOL    HW281198   2.712   3.435   5.917
93101SOL     OW81199   0.208   7.784   1.272
93101SOL    HW181200   0.166   7.720   1.215
93101SOL    HW281201   0.172   7.868   1.243
93102SOL     OW81202  10.101   5.226   5.695
93102SOL    HW181203  10.067   5.137   5.699
93102SOL    HW281204  10.123   5.248   5.785
93103SOL     OW81205  10.704  13.947   1.346
93103SOL    HW181206  10.728  13.994   1.426
93103SOL    HW281207  10.623  13.901   1.368
93104SOL     OW81208   1.728   9.156   2.246
93104SOL    HW181209   1.804   9.214   2.239
93104SOL    HW281210   1.664   9.206   2.296
93105SOL     OW81211  14.091  12.484   4.743
93105SOL    HW181212  14.117  12.575   4.727
93105SOL    HW281213  14.004  12.491   4.782
93106SOL     OW81214   4.771   4.452   2.210
93106SOL    HW181215   4.862   4.458   2.179
93106SOL    HW281216   4.776   4.475   2.303
93107SOL     OW81217  12.455  10.354   7.800
93107SOL    HW181218  12.517  10.420   7.768
93107SOL    HW281219  12.496  10.318   7.878
93108SOL     OW81220   2.152  11.929  13.883
93108SOL    HW181221   2.131  12.005  13.938
93108SOL    HW281222   2.068  11.901  13.848
93109SOL     OW81223   9.707  13.854  12.711
93109SOL    HW181224   9.744  13.800  12.641
93109SOL    HW281225   9.669  13.929  12.666
93110SOL     OW81226   7.995   6.955   9.774
93110SOL    HW181227   8.009   6.909   9.691
93110SOL    HW281228   7.938   7.029   9.751
93111SOL     OW81229   0.788   3.539   3.434
93111SOL    HW181230   0.824   3.466   3.384
93111SOL    HW281231   0.827   3.617   3.396
93112SOL     OW81232   2.380  11.467   6.902
93112SOL    HW181233   2.394  11.417   6.982
93112SOL    HW281234   2.285  11.482   6.898
93113SOL     OW81235   9.348  11.033   8.242
93113SOL    HW181236   9.301  11.047   8.324
93113SOL    HW281237   9.433  10.997   8.270
93114SOL     OW81238  13.303   6.290  10.004
93114SOL    HW181239  13.327   6.356  10.069
93114SOL    HW281240  13.208   6.301   9.993
93115SOL     OW81241  12.345   0.561   4.760
93115SOL    HW181242  12.421   0.589   4.708
93115SOL    HW281243  12.280   0.534   4.696
93116SOL     OW81244   1.539  10.562   5.800
93116SOL    HW181245   1.469  10.627   5.793
93116SOL    HW281246   1.495  10.483   5.833
93117SOL     OW81247  13.132  10.796  14.157
93117SOL    HW181248  13.119  10.789  14.251
93117SOL    HW281249  13.168  10.711  14.132
93118SOL     OW81250  10.911   0.829   6.477
93118SOL    HW181251  10.913   0.920   6.449
93118SOL    HW281252  10.903   0.833   6.572
93119SOL     OW81253   9.641  13.352  13.471
93119SOL    HW181254   9.707  13.411  13.435
93119SOL    HW281255   9.562  13.369  13.418
93120SOL     OW81256   0.148   3.130   0.422
93120SOL    HW181257   0.127   3.159   0.511
93120SOL    HW281258   0.063   3.113   0.382
93121SOL     OW81259  12.589   6.735  10.165
93121SOL    HW181260  12.577   6.695  10.079
93121SOL    HW281261  12.684   6.741  10.175
93122SOL     OW81262  12.706  13.280  12.827
93122SOL    HW181263  12.614  13.301  12.814
93122SOL    HW281264  12.752  13.363  12.813
93123SOL     OW81265  11.230  11.879   7.946
93123SOL    HW181266  11.265  11.929   8.020
93123SOL    HW281267  11.204  11.946   7.882
93124SOL     OW81268   1.595   5.799   2.107
93124SOL    HW181269   1.618   5.860   2.036
93124SOL    HW281270   1.588   5.714   2.064
93125SOL     OW81271  13.153  12.409   8.147
93125SOL    HW181272  13.113  12.370   8.069
93125SOL    HW281273  13.231  12.356   8.164
93126SOL     OW81274   8.014  13.570   0.657
93126SOL    HW181275   8.070  13.647   0.651
93126SOL    HW281276   8.011  13.535   0.567
93127SOL     OW81277   4.299   4.963   2.695
93127SOL    HW181278   4.232   5.015   2.739
93127SOL    HW281279   4.382   4.992   2.735
93128SOL     OW81280   4.311  11.929   8.470
93128SOL    HW181281   4.257  11.962   8.397
93128SOL    HW281282   4.253  11.935   8.546
93129SOL     OW81283  11.560   2.102   1.014
93129SOL    HW181284  11.530   2.171   1.072
93129SOL    HW281285  11.635   2.063   1.059
93130SOL     OW81286  13.255  11.238  10.329
93130SOL    HW181287  13.167  11.251  10.363
93130SOL    HW281288  13.251  11.269  10.239
93131SOL     OW81289   0.300   7.800   6.954
93131SOL    HW181290   0.300   7.864   6.883
93131SOL    HW281291   0.362   7.836   7.018
93132SOL     OW81292  14.583  14.272   3.468
93132SOL    HW181293  14.625  14.204   3.416
93132SOL    HW281294  14.548  14.334   3.404
93133SOL     OW81295   1.752   8.684  12.785
93133SOL    HW181296   1.836   8.672  12.829
93133SOL    HW281297   1.687   8.661  12.852
93134SOL     OW81298   8.389   8.882   6.573
93134SOL    HW181299   8.307   8.848   6.537
93134SOL    HW281300   8.369   8.901   6.664
93135SOL     OW81301   3.715   7.650  11.429
93135SOL    HW181302   3.623   7.653  11.457
93135SOL    HW281303   3.764   7.642  11.511
93136SOL     OW81304   4.249   7.103   3.388
93136SOL    HW181305   4.300   7.023   3.375
93136SOL    HW281306   4.247   7.115   3.483
93137SOL     OW81307   6.111   3.957   2.789
93137SOL    HW181308   6.068   4.041   2.804
93137SOL    HW281309   6.170   3.973   2.716
93138SOL     OW81310   7.917   7.249   9.364
93138SOL    HW181311   7.929   7.218   9.274
93138SOL    HW281312   7.906   7.169   9.416
93139SOL     OW81313   8.486   0.266  12.418
93139SOL    HW181314   8.571   0.274  12.462
93139SOL    HW281315   8.480   0.344  12.363
93140SOL     OW81316  14.683  12.344   9.164
93140SOL    HW181317  14.629  12.266   9.174
93140SOL    HW281318  14.648  12.405   9.229
93141SOL     OW81319   1.133   5.639   0.783
93141SOL    HW181320   1.047   5.599   0.771
93141SOL    HW281321   1.119   5.732   0.764
93142SOL     OW81322  14.743   8.520   0.835
93142SOL    HW181323  14.696   8.597   0.804
93142SOL    HW281324  14.676   8.463   0.872
93143SOL     OW81325   0.141   3.742  11.132
93143SOL    HW181326   0.204   3.777  11.195
93143SOL    HW281327   0.187   3.670  11.090
93144SOL     OW81328   4.135   0.122   0.061
93144SOL    HW181329   4.148   0.052   0.125
93144SOL    HW281330   4.055   0.166   0.090
93145SOL     OW81331  10.413   3.435  10.221
93145SOL    HW181332  10.359   3.454  10.298
93145SOL    HW281333  10.469   3.512  10.212
93146SOL     OW81334   3.336  12.984   6.754
93146SOL    HW181335   3.287  12.969   6.673
93146SOL    HW281336   3.287  13.053   6.799
93147SOL     OW81337  10.266   7.545   1.091
93147SOL    HW181338  10.353   7.504   1.086
93147SOL    HW281339  10.263   7.586   1.177
93148SOL     OW81340  13.420   7.754   6.194
93148SOL    HW181341  13.437   7.821   6.128
93148SOL    HW281342  13.465   7.784   6.273
93149SOL     OW81343   9.390   0.847   0.590
93149SOL    HW181344   9.400   0.832   0.496
93149SOL    HW281345   9.306   0.894   0.598
93150SOL     OW81346   9.115  14.206   8.064
93150SOL    HW181347   9.187  14.269   8.056
93150SOL    HW281348   9.090  14.209   8.156
93151SOL     OW81349   2.821   8.235   6.128
93151SOL    HW181350   2.789   8.238   6.038
93151SOL    HW281351   2.880   8.160   6.130
93152SOL     OW81352  13.847   7.981   5.728
93152SOL    HW181353  13.780   7.923   5.764
93152SOL    HW281354  13.817   8.069   5.752
93153SOL     OW81355   1.883   1.273  13.085
93153SOL    HW181356   1.847   1.341  13.143
93153SOL    HW281357   1.932   1.321  13.019
93154SOL     OW81358  13.019   7.549  11.997
93154SOL    HW181359  12.954   7.593  11.943
93154SOL    HW281360  12.968   7.507  12.067
93155SOL     OW81361  14.529  10.599   6.580
93155SOL    HW181362  14.435  10.584   6.593
93155SOL    HW281363  14.570  10.562   6.658
93156SOL     OW81364  14.440   6.320   6.639
93156SOL    HW181365  14.517   6.376   6.630
93156SOL    HW281366  14.399   6.347   6.720
93157SOL     OW81367   0.618   6.209   4.725
93157SOL    HW181368   0.573   6.124   4.717
93157SOL    HW281369   0.611   6.247   4.637
93158SOL     OW81370   8.515   2.891  14.463
93158SOL    HW181371   8.589   2.860  14.515
93158SOL    HW281372   8.440   2.842  14.495
93159SOL     OW81373   3.049  13.042  13.382
93159SOL    HW181374   3.010  13.027  13.468
93159SOL    HW281375   3.001  12.982  13.324
93160SOL     OW81376  12.991   9.732   8.283
93160SOL    HW181377  13.029   9.776   8.208
93160SOL    HW281378  13.029   9.644   8.281
93161SOL     OW81379   7.084  11.644   0.996
93161SOL    HW181380   7.039  11.642   1.080
93161SOL    HW281381   7.114  11.734   0.986
93162SOL     OW81382   1.904   5.019   3.303
93162SOL    HW181383   1.819   5.060   3.314
93162SOL    HW281384   1.911   4.957   3.376
93163SOL     OW81385  13.527   2.332   7.545
93163SOL    HW181386  13.489   2.416   7.521
93163SOL    HW281387  13.497   2.317   7.635
93164SOL     OW81388  10.693   1.802   9.342
93164SOL    HW181389  10.660   1.735   9.401
93164SOL    HW281390  10.683   1.884   9.391
93165SOL     OW81391  11.439  10.945   7.993
93165SOL    HW181392  11.476  10.982   7.913
93165SOL    HW281393  11.515  10.927   8.048
93166SOL     OW81394  12.723  13.570   1.312
93166SOL    HW181395  12.646  13.521   1.340
93166SOL    HW281396  12.796  13.510   1.326
93167SOL     OW81397   7.392  13.751  12.326
93167SOL    HW181398   7.408  13.828  12.273
93167SOL    HW281399   7.431  13.679  12.276
93168SOL     OW81400   8.802   4.229   6.137
93168SOL    HW181401   8.873   4.166   6.144
93168SOL    HW281402   8.730   4.190   6.187
93169SOL     OW81403  11.798   6.264   4.708
93169SOL    HW181404  11.715   6.273   4.661
93169SOL    HW281405  11.850   6.206   4.654
93170SOL     OW81406   4.551  10.183  14.548
93170SOL    HW181407   4.578  10.141  14.466
93170SOL    HW281408   4.586  10.125  14.617
93171SOL     OW81409   1.663   3.851  12.991
93171SOL    HW181410   1.752   3.857  12.957
93171SOL    HW281411   1.619   3.790  12.932
93172SOL     OW81412   3.944   1.503   4.141
93172SOL    HW181413   3.996   1.520   4.220
93172SOL    HW281414   4.002   1.526   4.069
93173SOL     OW81415   3.625   9.018   7.291
93173SOL    HW181416   3.555   8.958   7.266
93173SOL    HW281417   3.636   9.075   7.215
93174SOL     OW81418   2.860   4.662  10.376
93174SOL    HW181419   2.835   4.753  10.357
93174SOL    HW281420   2.954   4.660  10.363
93175SOL     OW81421  14.456   2.560  14.192
93175SOL    HW181422  14.399   2.487  14.169
93175SOL    HW281423  14.528   2.520  14.242
93176SOL     OW81424   3.900  10.266   8.816
93176SOL    HW181425   3.916  10.250   8.909
93176SOL    HW281426   3.969  10.327   8.790
93177SOL     OW81427   3.486  11.497  12.008
93177SOL    HW181428   3.504  11.572  11.951
93177SOL    HW281429   3.494  11.421  11.950
93178SOL     OW81430   8.739  11.018   2.191
93178SOL    HW181431   8.717  10.930   2.162
93178SOL    HW281432   8.834  11.023   2.180
93179SOL     OW81433   5.919   2.578  11.370
93179SOL    HW181434   5.918   2.493  11.414
93179SOL    HW281435   5.829   2.592  11.342
93180SOL     OW81436   1.121   3.813   1.493
93180SOL    HW181437   1.193   3.755   1.517
93180SOL    HW281438   1.113   3.802   1.398
93181SOL     OW81439  14.252  14.738   1.601
93181SOL    HW181440  14.308  14.815   1.592
93181SOL    HW281441  14.278  14.700   1.685
93182SOL     OW81442   3.783  11.760   8.021
93182SOL    HW181443   3.873  11.728   8.034
93182SOL    HW281444   3.780  11.842   8.071
93183SOL     OW81445   2.678   3.200   6.553
93183SOL    HW181446   2.675   3.168   6.463
93183SOL    HW281447   2.643   3.127   6.605
93184SOL     OW81448  11.454   7.742   8.577
93184SOL    HW181449  11.534   7.785   8.546
93184SOL    HW281450  11.418   7.803   8.642
93185SOL     OW81451  11.155  13.050  13.685
93185SOL    HW181452  11.102  13.079  13.758
93185SOL    HW281453  11.125  13.102  13.610
93186SOL     OW81454   0.256   7.012   9.099
93186SOL    HW181455   0.341   6.968   9.096
93186SOL    HW281456   0.274   7.099   9.134
93187SOL     OW81457   9.994  10.705   1.871
93187SOL    HW181458  10.003  10.757   1.950
93187SOL    HW281459  10.084  10.693   1.840
93188SOL     OW81460   9.819   6.307   0.870
93188SOL    HW181461   9.907   6.271   0.878
93188SOL    HW281462   9.785   6.268   0.789
93189SOL     OW81463  13.183   3.261   1.392
93189SOL    HW181464  13.264   3.306   1.417
93189SOL    HW281465  13.123   3.332   1.367
93190SOL     OW81466   4.992  11.504  11.202
93190SOL    HW181467   4.982  11.596  11.179
93190SOL    HW281468   5.072  11.477  11.158
93191SOL     OW81469  11.598   6.200   0.417
93191SOL    HW181470  11.681   6.223   0.374
93191SOL    HW281471  11.622   6.137   0.484
93192SOL     OW81472   9.958  10.115   2.327
93192SOL    HW181473  10.016  10.042   2.348
93192SOL    HW281474   9.870  10.077   2.323
93193SOL     OW81475   4.460   0.051   0.213
93193SOL    HW181476   4.411   0.127   0.241
93193SOL    HW281477   4.399   0.001   0.159
93194SOL     OW81478   0.929  14.415   5.883
93194SOL    HW181479   1.016  14.380   5.866
93194SOL    HW281480   0.869  14.352   5.842
93195SOL     OW81481  10.707   4.744   0.696
93195SOL    HW181482  10.663   4.768   0.614
93195SOL    HW281483  10.702   4.823   0.750
93196SOL     OW81484   7.475   3.589   4.303
93196SOL    HW181485   7.412   3.555   4.239
93196SOL    HW281486   7.558   3.552   4.276
93197SOL     OW81487   9.657   1.380   3.559
93197SOL    HW181488   9.716   1.444   3.598
93197SOL    HW281489   9.578   1.429   3.538
93198SOL     OW81490  13.526   2.987   7.746
93198SOL    HW181491  13.457   3.004   7.683
93198SOL    HW281492  13.502   3.039   7.823
93199SOL     OW81493   3.259   0.660  14.826
93199SOL    HW181494   3.290   0.621   0.028
93199SOL    HW281495   3.167   0.636  14.822
93200SOL     OW81496  10.471  12.736   8.402
93200SOL    HW181497  10.453  12.683   8.480
93200SOL    HW281498  10.558  12.773   8.419
93201SOL     OW81499  12.924   4.373   7.592
93201SOL    HW181500  12.876   4.308   7.643
93201SOL    HW281501  12.893   4.362   7.503
93202SOL     OW81502   1.833   9.919   0.674
93202SOL    HW181503   1.761   9.928   0.737
93202SOL    HW281504   1.909   9.896   0.727
93203SOL     OW81505  14.700   9.120   3.950
93203SOL    HW181506  14.772   9.098   4.009
93203SOL    HW281507  14.623   9.125   4.007
93204SOL     OW81508   5.421   4.507   2.630
93204SOL    HW181509   5.453   4.582   2.581
93204SOL    HW281510   5.352   4.542   2.686
93205SOL     OW81511  13.052   7.806  11.649
93205SOL    HW181512  13.010   7.738  11.701
93205SOL    HW281513  13.144   7.778  11.643
93206SOL     OW81514   3.116   8.598   9.226
93206SOL    HW181515   3.044   8.612   9.165
93206SOL    HW281516   3.153   8.513   9.202
93207SOL     OW81517   5.558   2.226  14.119
93207SOL    HW181518   5.524   2.277  14.192
93207SOL    HW281519   5.531   2.273  14.041
93208SOL     OW81520   0.985  13.351   4.016
93208SOL    HW181521   1.060  13.298   4.042
93208SOL    HW281522   0.909  13.294   4.031
93209SOL     OW81523  14.705   2.575  12.610
93209SOL    HW181524  14.628   2.537  12.653
93209SOL    HW281525  14.671   2.611  12.528
93210SOL     OW81526  12.921   2.226  14.493
93210SOL    HW181527  13.015   2.213  14.487
93210SOL    HW281528  12.909   2.288  14.565
93211SOL     OW81529  10.816   9.615   2.371
93211SOL    HW181530  10.758   9.691   2.362
93211SOL    HW281531  10.827   9.603   2.465
93212SOL     OW81532   3.055   3.204   3.351
93212SOL    HW181533   3.035   3.225   3.442
93212SOL    HW281534   3.075   3.110   3.352
93213SOL     OW81535  12.605  11.266   6.896
93213SOL    HW181536  12.571  11.339   6.844
93213SOL    HW281537  12.529  11.235   6.946
93214SOL     OW81538  13.780   8.189  13.353
93214SOL    HW181539  13.764   8.186  13.447
93214SOL    HW281540  13.855   8.248  13.343
93215SOL     OW81541   7.811   1.673   3.746
93215SOL    HW181542   7.802   1.581   3.770
93215SOL    HW281543   7.839   1.717   3.826
93216SOL     OW81544  13.549  13.923  12.369
93216SOL    HW181545  13.622  13.984  12.358
93216SOL    HW281546  13.587  13.837  12.357
93217SOL     OW81547  13.946  12.256  10.614
93217SOL    HW181548  14.010  12.253  10.685
93217SOL    HW281549  13.983  12.318  10.551
93218SOL     OW81550   5.362   8.887  12.372
93218SOL    HW181551   5.268   8.889  12.354
93218SOL    HW281552   5.368   8.906  12.466
93219SOL     OW81553   3.521   1.008  13.122
93219SOL    HW181554   3.521   0.955  13.043
93219SOL    HW281555   3.488   1.093  13.095
93220SOL     OW81556   2.716   2.915   8.871
93220SOL    HW181557   2.707   2.882   8.781
93220SOL    HW281558   2.661   2.993   8.873
93221SOL     OW81559   0.736   3.980  12.646
93221SOL    HW181560   0.829   4.003  12.653
93221SOL    HW281561   0.717   3.930  12.725
93222SOL     OW81562  13.166   6.416   1.873
93222SOL    HW181563  13.191   6.340   1.821
93222SOL    HW281564  13.248   6.450   1.908
93223SOL     OW81565   7.212  13.712   5.910
93223SOL    HW181566   7.227  13.774   5.982
93223SOL    HW281567   7.170  13.765   5.842
93224SOL     OW81568   8.908   3.798   4.519
93224SOL    HW181569   8.817   3.800   4.547
93224SOL    HW281570   8.904   3.798   4.423
93225SOL     OW81571  14.542   1.232   5.294
93225SOL    HW181572  14.550   1.137   5.289
93225SOL    HW281573  14.449   1.249   5.282
93226SOL     OW81574  11.252   9.515   1.774
93226SOL    HW181575  11.192   9.523   1.848
93226SOL    HW281576  11.312   9.444   1.799
93227SOL     OW81577   0.484  12.461   1.727
93227SOL    HW181578   0.443  12.396   1.785
93227SOL    HW281579   0.550  12.503   1.782
93228SOL     OW81580  13.981  13.301   9.730
93228SOL    HW181581  13.943  13.213   9.734
93228SOL    HW281582  14.023  13.304   9.644
93229SOL     OW81583   0.932   2.852   3.399
93229SOL    HW181584   0.916   2.779   3.339
93229SOL    HW281585   0.893   2.823   3.482
93230SOL     OW81586   2.155  11.942   7.856
93230SOL    HW181587   2.176  11.990   7.937
93230SOL    HW281588   2.230  11.960   7.799
93231SOL     OW81589   5.739   0.381  14.203
93231SOL    HW181590   5.729   0.414  14.293
93231SOL    HW281591   5.830   0.400  14.180
93232SOL     OW81592  13.722  14.506  14.130
93232SOL    HW181593  13.664  14.560  14.077
93232SOL    HW281594  13.663  14.445  14.175
93233SOL     OW81595   9.392  12.626   1.219
93233SOL    HW181596   9.481  12.611   1.186
93233SOL    HW281597   9.337  12.626   1.141
93234SOL     OW81598   9.065   2.086  10.084
93234SOL    HW181599   9.073   2.097  10.179
93234SOL    HW281600   9.155   2.077  10.053
93235SOL     OW81601   4.178   5.119   6.947
93235SOL    HW181602   4.260   5.145   6.990
93235SOL    HW281603   4.178   5.024   6.951
93236SOL     OW81604   8.898   6.666   8.272
93236SOL    HW181605   8.909   6.684   8.179
93236SOL    HW281606   8.874   6.573   8.276
93237SOL     OW81607   2.257   6.157   7.755
93237SOL    HW181608   2.351   6.140   7.757
93237SOL    HW281609   2.243   6.226   7.820
93238SOL     OW81610   0.031   7.316  14.399
93238SOL    HW181611   0.013   7.277  14.313
93238SOL    HW281612  14.831   7.300  14.450
93239SOL     OW81613   8.798   9.427   9.645
93239SOL    HW181614   8.842   9.406   9.727
93239SOL    HW281615   8.851   9.496   9.606
93240SOL     OW81616  12.519   4.090  14.787
93240SOL    HW181617  12.450   4.063  14.848
93240SOL    HW281618  12.481   4.163  14.738
93241SOL     OW81619  10.191   1.187   2.844
93241SOL    HW181620  10.142   1.126   2.790
93241SOL    HW281621  10.129   1.213   2.913
93242SOL     OW81622   1.209   4.936   9.591
93242SOL    HW181623   1.166   4.884   9.523
93242SOL    HW281624   1.283   4.978   9.547
93243SOL     OW81625   4.872  11.887   3.611
93243SOL    HW181626   4.874  11.883   3.515
93243SOL    HW281627   4.910  11.804   3.639
93244SOL     OW81628   3.681  12.804   5.813
93244SOL    HW181629   3.636  12.860   5.751
93244SOL    HW281630   3.674  12.850   5.897
93245SOL     OW81631  13.368   2.628   9.656
93245SOL    HW181632  13.287   2.604   9.610
93245SOL    HW281633  13.388   2.716   9.624
93246SOL     OW81634   6.362   7.396   5.774
93246SOL    HW181635   6.403   7.451   5.840
93246SOL    HW281636   6.293   7.450   5.736
93247SOL     OW81637  13.047   3.811  12.343
93247SOL    HW181638  13.071   3.730  12.388
93247SOL    HW281639  13.123   3.868  12.353
93248SOL     OW81640   7.374   8.953   0.931
93248SOL    HW181641   7.306   8.918   0.989
93248SOL    HW281642   7.389   9.042   0.963
93249SOL     OW81643   1.847   1.116   6.351
93249SOL    HW181644   1.858   1.085   6.261
93249SOL    HW281645   1.882   1.045   6.404
93250SOL     OW81646   1.003  13.637  11.367
93250SOL    HW181647   1.087  13.648  11.412
93250SOL    HW281648   0.986  13.722  11.326
93251SOL     OW81649   2.799   5.100   4.396
93251SOL    HW181650   2.821   5.008   4.411
93251SOL    HW281651   2.760   5.102   4.309
93252SOL     OW81652  12.223   5.751  12.780
93252SOL    HW181653  12.208   5.821  12.717
93252SOL    HW281654  12.147   5.693  12.771
93253SOL     OW81655   9.409  10.123  13.263
93253SOL    HW181656   9.437  10.194  13.319
93253SOL    HW281657   9.314  10.119  13.275
93254SOL     OW81658   7.112   4.959  12.742
93254SOL    HW181659   7.022   4.983  12.763
93254SOL    HW281660   7.120   4.868  12.768
93255SOL     OW81661  13.759   7.392   1.287
93255SOL    HW181662  13.808   7.335   1.228
93255SOL    HW281663  13.802   7.477   1.280
93256SOL     OW81664   2.794   1.168   6.122
93256SOL    HW181665   2.803   1.262   6.109
93256SOL    HW281666   2.699   1.153   6.118
93257SOL     OW81667   2.677   4.323   8.664
93257SOL    HW181668   2.666   4.376   8.743
93257SOL    HW281669   2.734   4.376   8.608
93258SOL     OW81670   7.679   2.101  12.032
93258SOL    HW181671   7.645   2.065  11.950
93258SOL    HW281672   7.728   2.028  12.072
93259SOL     OW81673  10.070   0.099   4.738
93259SOL    HW181674  10.102   0.177   4.784
93259SOL    HW281675   9.978   0.119   4.718
93260SOL     OW81676  12.226   8.469   4.787
93260SOL    HW181677  12.165   8.540   4.806
93260SOL    HW281678  12.312   8.505   4.810
93261SOL     OW81679  12.554   9.187   8.852
93261SOL    HW181680  12.531   9.275   8.881
93261SOL    HW281681  12.647   9.179   8.869
93262SOL     OW81682  11.495  14.281   0.075
93262SOL    HW181683  11.503  14.310   0.165
93262SOL    HW281684  11.585  14.274   0.044
93263SOL     OW81685   9.992   1.652   1.232
93263SOL    HW181686   9.970   1.670   1.140
93263SOL    HW281687   9.956   1.564   1.248
93264SOL     OW81688  10.131  13.042  11.833
93264SOL    HW181689  10.062  12.976  11.824
93264SOL    HW281690  10.207  13.003  11.789
93265SOL     OW81691  11.293   4.625   1.325
93265SOL    HW181692  11.340   4.690   1.377
93265SOL    HW281693  11.362   4.569   1.289
93266SOL     OW81694   6.846   1.884   4.087
93266SOL    HW181695   6.762   1.840   4.100
93266SOL    HW281696   6.823   1.966   4.044
93267SOL     OW81697  13.827  11.425   0.539
93267SOL    HW181698  13.739  11.457   0.558
93267SOL    HW281699  13.825  11.402   0.446
93268SOL     OW81700   3.866  11.477   7.511
93268SOL    HW181701   3.872  11.468   7.607
93268SOL    HW281702   3.773  11.480   7.493
93269SOL     OW81703   3.434   4.951   5.418
93269SOL    HW181704   3.370   4.970   5.349
93269SOL    HW281705   3.471   5.036   5.441
93270SOL     OW81706   6.315  13.673   3.051
93270SOL    HW181707   6.366  13.715   3.120
93270SOL    HW281708   6.290  13.746   2.993
93271SOL     OW81709   5.457   5.514   7.197
93271SOL    HW181710   5.367   5.537   7.173
93271SOL    HW281711   5.510   5.550   7.126
93272SOL     OW81712   3.957   3.632   8.555
93272SOL    HW181713   3.882   3.609   8.610
93272SOL    HW281714   4.031   3.630   8.615
93273SOL     OW81715   1.156  12.727  13.409
93273SOL    HW181716   1.244  12.742  13.375
93273SOL    HW281717   1.170  12.694  13.498
93274SOL     OW81718   5.709  14.780   3.308
93274SOL    HW181719   5.668  14.757   3.225
93274SOL    HW281720   5.783  14.719   3.316
93275SOL     OW81721   3.088   9.959   5.698
93275SOL    HW181722   3.116   9.933   5.610
93275SOL    HW281723   3.002   9.919   5.708
93276SOL     OW81724   5.907   0.537  13.316
93276SOL    HW181725   5.954   0.463  13.277
93276SOL    HW281726   5.908   0.604  13.248
93277SOL     OW81727   5.275   5.221   6.926
93277SOL    HW181728   5.240   5.210   6.838
93277SOL    HW281729   5.288   5.316   6.935
93278SOL     OW81730   0.955   4.407  11.286
93278SOL    HW181731   0.939   4.315  11.267
93278SOL    HW281732   0.887   4.430  11.350
93279SOL     OW81733   6.744  12.219   7.654
93279SOL    HW181734   6.830  12.223   7.697
93279SOL    HW281735   6.690  12.282   7.702
93280SOL     OW81736   2.372   0.179   0.430
93280SOL    HW181737   2.289   0.138   0.452
93280SOL    HW281738   2.349   0.265   0.396
93281SOL     OW81739  12.937   4.598   6.093
93281SOL    HW181740  12.957   4.512   6.056
93281SOL    HW281741  12.894   4.579   6.176
93282SOL     OW81742   0.551   4.905   4.075
93282SOL    HW181743   0.559   4.923   3.981
93282SOL    HW281744   0.457   4.907   4.092
93283SOL     OW81745   5.905   8.056   3.450
93283SOL    HW181746   5.851   8.120   3.496
93283SOL    HW281747   5.922   8.095   3.365
93284SOL     OW81748   4.607   9.878  12.576
93284SOL    HW181749   4.621   9.846  12.665
93284SOL    HW281750   4.523   9.924  12.580
93285SOL     OW81751   5.019   6.249   0.684
93285SOL    HW181752   4.964   6.321   0.714
93285SOL    HW281753   4.992   6.235   0.593
93286SOL     OW81754   9.123  12.897  12.871
93286SOL    HW181755   9.202  12.860  12.831
93286SOL    HW281756   9.068  12.822  12.889
93287SOL     OW81757   6.295   9.830   1.043
93287SOL    HW181758   6.384   9.850   1.014
93287SOL    HW281759   6.254   9.786   0.968
93288SOL     OW81760   0.826   8.157   7.183
93288SOL    HW181761   0.797   8.249   7.186
93288SOL    HW281762   0.784   8.117   7.260
93289SOL     OW81763   2.036  12.084   6.197
93289SOL    HW181764   2.130  12.097   6.202
93289SOL    HW281765   2.006  12.147   6.131
93290SOL     OW81766   6.340  10.260  14.769
93290SOL    HW181767   6.249  10.285  14.783
93290SOL    HW281768   6.390  10.319  14.825
93291SOL     OW81769   0.495   8.262  14.672
93291SOL    HW181770   0.461   8.352  14.676
93291SOL    HW281771   0.564   8.259  14.738
93292SOL     OW81772   4.429   9.040   2.404
93292SOL    HW181773   4.360   9.068   2.344
93292SOL    HW281774   4.439   8.946   2.386
93293SOL     OW81775   5.699   9.618   3.280
93293SOL    HW181776   5.794   9.616   3.267
93293SOL    HW281777   5.688   9.645   3.371
93294SOL     OW81778  14.111  14.824  12.300
93294SOL    HW181779  14.020  14.796  12.306
93294SOL    HW281780  14.141  14.825  12.391
93295SOL     OW81781  11.417   4.142   0.259
93295SOL    HW181782  11.388   4.208   0.322
93295SOL    HW281783  11.486   4.185   0.209
93296SOL     OW81784   4.442   9.106   9.068
93296SOL    HW181785   4.517   9.100   9.126
93296SOL    HW281786   4.458   9.039   9.001
93297SOL     OW81787   7.484   2.688  10.366
93297SOL    HW181788   7.517   2.727  10.447
93297SOL    HW281789   7.466   2.762  10.308
93298SOL     OW81790  10.157  10.132   5.326
93298SOL    HW181791  10.142  10.196   5.257
93298SOL    HW281792  10.101  10.058   5.302
93299SOL     OW81793   8.415   3.614   4.008
93299SOL    HW181794   8.324   3.609   4.034
93299SOL    HW281795   8.413   3.636   3.914
93300SOL     OW81796   7.887  12.973  10.889
93300SOL    HW181797   7.866  13.022  10.969
93300SOL    HW281798   7.881  13.038  10.819
93301SOL     OW81799  13.514   7.882   7.901
93301SOL    HW181800  13.458   7.833   7.840
93301SOL    HW281801  13.494   7.844   7.987
93302SOL     OW81802   1.852   3.305   8.052
93302SOL    HW181803   1.849   3.352   7.969
93302SOL    HW281804   1.850   3.374   8.119
93303SOL     OW81805   2.213   9.151  14.740
93303SOL    HW181806   2.200   9.066  14.697
93303SOL    HW281807   2.149   9.152  14.811
93304SOL     OW81808  10.583   5.663  10.217
93304SOL    HW181809  10.677   5.669  10.203
93304SOL    HW281810  10.549   5.624  10.137
93305SOL     OW81811   9.366  11.345   6.467
93305SOL    HW181812   9.413  11.419   6.505
93305SOL    HW281813   9.295  11.327   6.530
93306SOL     OW81814   7.703   7.547  12.370
93306SOL    HW181815   7.784   7.589  12.343
93306SOL    HW281816   7.731   7.465  12.411
93307SOL     OW81817   1.597   2.642  14.044
93307SOL    HW181818   1.611   2.693  13.964
93307SOL    HW281819   1.503   2.652  14.063
93308SOL     OW81820  11.426   4.699  14.121
93308SOL    HW181821  11.356   4.711  14.057
93308SOL    HW281822  11.506   4.721  14.073
93309SOL     OW81823  12.274   7.971   7.774
93309SOL    HW181824  12.331   8.048   7.778
93309SOL    HW281825  12.291   7.933   7.688
93310SOL     OW81826   5.418  11.309   0.558
93310SOL    HW181827   5.350  11.246   0.537
93310SOL    HW281828   5.388  11.353   0.637
93311SOL     OW81829   5.769   1.903   0.833
93311SOL    HW181830   5.764   1.825   0.889
93311SOL    HW281831   5.863   1.919   0.824
93312SOL     OW81832  13.049   8.479  12.541
93312SOL    HW181833  12.993   8.533  12.486
93312SOL    HW281834  13.028   8.506  12.631
93313SOL     OW81835   1.607   5.117   2.037
93313SOL    HW181836   1.550   5.045   2.010
93313SOL    HW281837   1.552   5.172   2.092
93314SOL     OW81838  14.377   3.481  11.996
93314SOL    HW181839  14.421   3.540  12.057
93314SOL    HW281840  14.430   3.401  11.997
93315SOL     OW81841  11.754   9.211   1.608
93315SOL    HW181842  11.682   9.159   1.643
93315SOL    HW281843  11.805   9.236   1.685
93316SOL     OW81844   5.038  14.371  11.601
93316SOL    HW181845   5.025  14.277  11.609
93316SOL    HW281846   4.973  14.400  11.537
93317SOL     OW81847   6.416  11.826   2.041
93317SOL    HW181848   6.451  11.763   2.104
93317SOL    HW281849   6.476  11.901   2.048
93318SOL     OW81850  12.647   1.484   7.761
93318SOL    HW181851  12.674   1.573   7.785
93318SOL    HW281852  12.636   1.488   7.666
93319SOL     OW81853  13.364   6.254   0.126
93319SOL    HW181854  13.317   6.329   0.163
93319SOL    HW281855  13.410   6.289   0.050
93320SOL     OW81856  10.855   1.311   0.304
93320SOL    HW181857  10.930   1.311   0.364
93320SOL    HW281858  10.892   1.287   0.219
93321SOL     OW81859  14.629   0.907  11.011
93321SOL    HW181860  14.622   0.984  11.068
93321SOL    HW281861  14.638   0.833  11.071
93322SOL     OW81862  13.970   6.057   7.858
93322SOL    HW181863  13.876   6.070   7.843
93322SOL    HW281864  14.011   6.132   7.815
93323SOL     OW81865   2.676   7.096  12.932
93323SOL    HW181866   2.717   7.034  12.993
93323SOL    HW281867   2.730   7.175  12.937
93324SOL     OW81868   3.673   5.649   6.309
93324SOL    HW181869   3.755   5.601   6.314
93324SOL    HW281870   3.606   5.582   6.323
93325SOL     OW81871  14.242   8.023   1.334
93325SOL    HW181872  14.166   7.966   1.349
93325SOL    HW281873  14.304   7.998   1.403
93326SOL     OW81874  14.480   6.415  10.337
93326SOL    HW181875  14.392   6.450  10.329
93326SOL    HW281876  14.536   6.484  10.303
93327SOL     OW81877   4.061   2.485  12.191
93327SOL    HW181878   4.151   2.498  12.220
93327SOL    HW281879   4.017   2.568  12.211
93328SOL     OW81880  12.995   5.592   1.390
93328SOL    HW181881  13.064   5.560   1.447
93328SOL    HW281882  12.916   5.549   1.421
93329SOL     OW81883  14.739   0.462   1.199
93329SOL    HW181884  14.816   0.511   1.230
93329SOL    HW281885  14.753   0.373   1.233
93330SOL     OW81886   5.138  12.243  11.394
93330SOL    HW181887   5.211  12.299  11.420
93330SOL    HW281888   5.093  12.292  11.325
93331SOL     OW81889   7.493   4.952  13.309
93331SOL    HW181890   7.482   5.045  13.329
93331SOL    HW281891   7.580   4.931  13.341
93332SOL     OW81892   6.705  14.626   9.905
93332SOL    HW181893   6.615  14.615   9.873
93332SOL    HW281894   6.706  14.713   9.945
93333SOL     OW81895   5.664   9.055   9.906
93333SOL    HW181896   5.758   9.035   9.912
93333SOL    HW281897   5.624   8.973   9.876
93334SOL     OW81898   6.371  13.795   3.859
93334SOL    HW181899   6.327  13.757   3.782
93334SOL    HW281900   6.301  13.839   3.907
93335SOL     OW81901   7.434   5.683   2.470
93335SOL    HW181902   7.445   5.776   2.492
93335SOL    HW281903   7.512   5.662   2.418
93336SOL     OW81904   6.196  10.476   8.803
93336SOL    HW181905   6.152  10.520   8.731
93336SOL    HW281906   6.130  10.471   8.872
93337SOL     OW81907   2.518   3.257   6.104
93337SOL    HW181908   2.507   3.331   6.164
93337SOL    HW281909   2.572   3.292   6.033
93338SOL     OW81910  13.024   3.974   5.432
93338SOL    HW181911  13.009   3.931   5.348
93338SOL    HW281912  13.070   3.909   5.485
93339SOL     OW81913   8.992   5.628   8.934
93339SOL    HW181914   9.000   5.547   8.883
93339SOL    HW281915   8.897   5.642   8.942
93340SOL     OW81916   0.326   8.157   2.221
93340SOL    HW181917   0.338   8.135   2.314
93340SOL    HW281918   0.233   8.181   2.214
93341SOL     OW81919  13.120   7.331   6.249
93341SOL    HW181920  13.185   7.400   6.263
93341SOL    HW281921  13.036   7.374   6.262
93342SOL     OW81922   8.471  10.795  14.462
93342SOL    HW181923   8.398  10.805  14.400
93342SOL    HW281924   8.548  10.785  14.406
93343SOL     OW81925   4.787   5.884   5.500
93343SOL    HW181926   4.857   5.905   5.439
93343SOL    HW281927   4.744   5.807   5.463
93344SOL     OW81928  14.023   4.119   1.057
93344SOL    HW181929  13.950   4.175   1.031
93344SOL    HW281930  13.993   4.030   1.037
93345SOL     OW81931   9.008  12.469   7.869
93345SOL    HW181932   9.008  12.395   7.929
93345SOL    HW281933   8.917  12.497   7.864
93346SOL     OW81934   9.874   5.926  12.924
93346SOL    HW181935   9.893   6.019  12.914
93346SOL    HW281936   9.943   5.882  12.873
93347SOL     OW81937   9.656   4.459  10.876
93347SOL    HW181938   9.661   4.534  10.817
93347SOL    HW281939   9.598   4.397  10.832
93348SOL     OW81940  11.137  12.053   4.575
93348SOL    HW181941  11.094  11.967   4.576
93348SOL    HW281942  11.085  12.107   4.634
93349SOL     OW81943   1.653   3.630   7.789
93349SOL    HW181944   1.695   3.678   7.717
93349SOL    HW281945   1.685   3.540   7.780
93350SOL     OW81946   5.988   0.372  12.742
93350SOL    HW181947   5.903   0.329  12.743
93350SOL    HW281948   6.048   0.308  12.781
93351SOL     OW81949  10.453   8.547   3.830
93351SOL    HW181950  10.540   8.570   3.863
93351SOL    HW281951  10.435   8.461   3.867
93352SOL     OW81952  14.185  10.600   7.538
93352SOL    HW181953  14.145  10.685   7.557
93352SOL    HW281954  14.274  10.607   7.573
93353SOL     OW81955  11.903   8.675  10.685
93353SOL    HW181956  11.893   8.671  10.780
93353SOL    HW281957  11.924   8.585  10.660
93354SOL     OW81958   6.941  11.267   9.046
93354SOL    HW181959   6.858  11.231   9.017
93354SOL    HW281960   6.918  11.335   9.109
93355SOL     OW81961  11.139   9.986   9.405
93355SOL    HW181962  11.213   9.991   9.465
93355SOL    HW281963  11.173  10.019   9.322
93356SOL     OW81964   8.621   2.328   4.703
93356SOL    HW181965   8.594   2.242   4.732
93356SOL    HW281966   8.609   2.385   4.779
93357SOL     OW81967   1.052   0.167   6.863
93357SOL    HW181968   1.022   0.150   6.774
93357SOL    HW281969   0.972   0.170   6.915
93358SOL     OW81970  11.054   2.494   8.009
93358SOL    HW181971  11.008   2.457   7.934
93358SOL    HW281972  11.112   2.560   7.971
93359SOL     OW81973  14.388   7.545   8.503
93359SOL    HW181974  14.318   7.498   8.458
93359SOL    HW281975  14.436   7.589   8.432
93360SOL     OW81976  10.030   8.447  14.663
93360SOL    HW181977   9.999   8.468  14.575
93360SOL    HW281978   9.989   8.363  14.683
93361SOL     OW81979   4.471   2.072  11.406
93361SOL    HW181980   4.560   2.057  11.439
93361SOL    HW281981   4.455   2.165  11.424
93362SOL     OW81982   9.678   4.204  12.399
93362SOL    HW181983   9.659   4.126  12.451
93362SOL    HW281984   9.716   4.266  12.461
93363SOL     OW81985   7.448   7.037   9.825
93363SOL    HW181986   7.499   7.063   9.902
93363SOL    HW281987   7.503   6.973   9.781
93364SOL     OW81988  11.412   9.226   1.260
93364SOL    HW181989  11.379   9.211   1.348
93364SOL    HW281990  11.469   9.151   1.242
93365SOL     OW81991  14.090   5.959  13.021
93365SOL    HW181992  14.047   5.901  12.959
93365SOL    HW281993  14.019   6.010  13.059
93366SOL     OW81994   4.735  11.550   8.106
93366SOL    HW181995   4.720  11.587   8.193
93366SOL    HW281996   4.793  11.475   8.121
93367SOL     OW81997   7.921   5.341   8.974
93367SOL    HW181998   7.851   5.401   9.001
93367SOL    HW281999   7.940   5.366   8.883
93368SOL     OW82000   5.606   7.850   9.162
93368SOL    HW182001   5.588   7.757   9.176
93368SOL    HW282002   5.620   7.857   9.067
93369SOL     OW82003   5.350  10.319  11.907
93369SOL    HW182004   5.267  10.283  11.939
93369SOL    HW282005   5.391  10.358  11.983
93370SOL     OW82006   1.329  11.969  11.925
93370SOL    HW182007   1.342  12.023  11.847
93370SOL    HW282008   1.234  11.956  11.930
93371SOL     OW82009   0.463   9.658   3.839
93371SOL    HW182010   0.449   9.726   3.774
93371SOL    HW282011   0.486   9.580   3.788
93372SOL     OW82012   1.764   0.146   7.392
93372SOL    HW182013   1.687   0.199   7.372
93372SOL    HW282014   1.749   0.063   7.348
93373SOL     OW82015  10.920  12.526   9.783
93373SOL    HW182016  10.953  12.452   9.732
93373SOL    HW282017  10.949  12.508   9.872
93374SOL     OW82018   4.695   3.226  13.717
93374SOL    HW182019   4.717   3.208  13.625
93374SOL    HW282020   4.619   3.171  13.734
93375SOL     OW82021  12.344  10.719   8.419
93375SOL    HW182022  12.418  10.771   8.451
93375SOL    HW282023  12.384  10.638   8.386
93376SOL     OW82024   9.609   0.187   9.099
93376SOL    HW182025   9.561   0.117   9.055
93376SOL    HW282026   9.675   0.142   9.151
93377SOL     OW82027  13.895   0.930  11.016
93377SOL    HW182028  13.917   0.932  11.109
93377SOL    HW282029  13.927   1.013  10.982
93378SOL     OW82030   5.147   2.192   4.388
93378SOL    HW182031   5.204   2.158   4.320
93378SOL    HW282032   5.108   2.114   4.428
93379SOL     OW82033  13.150   1.353  13.044
93379SOL    HW182034  13.059   1.324  13.054
93379SOL    HW282035  13.199   1.305  13.110
93380SOL     OW82036  13.802   4.254   0.974
93380SOL    HW182037  13.747   4.261   0.896
93380SOL    HW282038  13.871   4.319   0.961
93381SOL     OW82039   9.848   5.154  12.166
93381SOL    HW182040   9.796   5.118  12.238
93381SOL    HW282041   9.824   5.247  12.164
93382SOL     OW82042  11.630   7.742  14.690
93382SOL    HW182043  11.713   7.714  14.651
93382SOL    HW282044  11.640   7.723  14.784
93383SOL     OW82045   2.473   0.878  10.340
93383SOL    HW182046   2.419   0.957  10.345
93383SOL    HW282047   2.537   0.888  10.410
93384SOL     OW82048   1.591  11.710   9.110
93384SOL    HW182049   1.501  11.678   9.110
93384SOL    HW282050   1.583  11.801   9.138
93385SOL     OW82051  11.916   5.082  10.670
93385SOL    HW182052  11.881   5.047  10.752
93385SOL    HW282053  11.839   5.104  10.618
93386SOL     OW82054   4.287   9.832  11.470
93386SOL    HW182055   4.262   9.856  11.381
93386SOL    HW282056   4.378   9.861  11.478
93387SOL     OW82057  13.192   0.907   1.108
93387SOL    HW182058  13.123   0.891   1.044
93387SOL    HW282059  13.243   0.826   1.110
93388SOL     OW82060   4.141   0.181   0.741
93388SOL    HW182061   4.130   0.156   0.832
93388SOL    HW282062   4.058   0.156   0.699
93389SOL     OW82063  13.480  12.074  13.402
93389SOL    HW182064  13.421  12.049  13.472
93389SOL    HW282065  13.499  12.166  13.418
93390SOL     OW82066   2.611  10.973  10.732
93390SOL    HW182067   2.586  11.048  10.679
93390SOL    HW282068   2.572  10.990  10.818
93391SOL     OW82069  12.610   8.548  12.484
93391SOL    HW182070  12.655   8.486  12.542
93391SOL    HW282071  12.544   8.495  12.439
93392SOL     OW82072   2.816   8.006  14.019
93392SOL    HW182073   2.746   7.970  13.965
93392SOL    HW282074   2.804   8.101  14.016
93393SOL     OW82075  12.938  11.685   3.922
93393SOL    HW182076  12.955  11.778   3.905
93393SOL    HW282077  12.971  11.641   3.844
93394SOL     OW82078  11.657   8.626   5.546
93394SOL    HW182079  11.677   8.694   5.610
93394SOL    HW282080  11.674   8.668   5.461
93395SOL     OW82081  10.254   5.512   1.991
93395SOL    HW182082  10.339   5.530   1.951
93395SOL    HW282083  10.201   5.588   1.969
93396SOL     OW82084   8.145   3.116   4.333
93396SOL    HW182085   8.190   3.031   4.331
93396SOL    HW282086   8.089   3.112   4.410
93397SOL     OW82087   7.691  11.852   7.476
93397SOL    HW182088   7.681  11.848   7.381
93397SOL    HW282089   7.773  11.900   7.489
93398SOL     OW82090  14.583   2.032   6.284
93398SOL    HW182091  14.496   2.003   6.311
93398SOL    HW282092  14.572   2.125   6.265
93399SOL     OW82093   5.094   7.740   1.360
93399SOL    HW182094   5.158   7.792   1.311
93399SOL    HW282095   5.014   7.746   1.308
93400SOL     OW82096   8.747   9.630  14.456
93400SOL    HW182097   8.762   9.631  14.550
93400SOL    HW282098   8.778   9.715  14.425
93401SOL     OW82099  13.949   7.912   1.199
93401SOL    HW182100  13.927   7.917   1.292
93401SOL    HW282101  13.865   7.900   1.155
93402SOL     OW82102   5.273  13.790   5.217
93402SOL    HW182103   5.221  13.723   5.262
93402SOL    HW282104   5.358  13.749   5.202
93403SOL     OW82105   2.660   9.024   9.182
93403SOL    HW182106   2.569   9.021   9.211
93403SOL    HW282107   2.703   8.953   9.230
93404SOL     OW82108   1.699   0.390   3.590
93404SOL    HW182109   1.747   0.369   3.671
93404SOL    HW282110   1.724   0.321   3.529
93405SOL     OW82111   0.357   0.873  11.446
93405SOL    HW182112   0.383   0.860  11.538
93405SOL    HW282113   0.278   0.820  11.436
93406SOL     OW82114   6.784  11.262  13.318
93406SOL    HW182115   6.749  11.179  13.284
93406SOL    HW282116   6.723  11.329  13.286
93407SOL     OW82117   7.079   3.777  14.858
93407SOL    HW182118   7.170   3.764   0.003
93407SOL    HW282119   7.029   3.754   0.057
93408SOL     OW82120   3.104   8.712   7.442
93408SOL    HW182121   3.065   8.724   7.355
93408SOL    HW282122   3.030   8.687   7.498
93409SOL     OW82123  12.806  10.524   9.612
93409SOL    HW182124  12.835  10.487   9.529
93409SOL    HW282125  12.710  10.526   9.606
93410SOL     OW82126  14.256   8.970   5.946
93410SOL    HW182127  14.269   8.931   5.860
93410SOL    HW282128  14.165   9.000   5.945
93411SOL     OW82129   9.551  14.615   2.976
93411SOL    HW182130   9.594  14.700   2.976
93411SOL    HW282131   9.566  14.581   3.064
93412SOL     OW82132   3.061   5.723   4.962
93412SOL    HW182133   3.072   5.707   5.056
93412SOL    HW282134   3.122   5.662   4.920
93413SOL     OW82135   8.011   0.156  13.164
93413SOL    HW182136   7.932   0.148  13.111
93413SOL    HW282137   8.044   0.244  13.146
93414SOL     OW82138  11.540   8.624   3.209
93414SOL    HW182139  11.626   8.584   3.196
93414SOL    HW282140  11.479   8.551   3.197
93415SOL     OW82141  12.006   7.980   7.824
93415SOL    HW182142  12.100   7.971   7.811
93415SOL    HW282143  11.998   8.022   7.910
93416SOL     OW82144   6.921  12.377   7.827
93416SOL    HW182145   6.898  12.465   7.859
93416SOL    HW282146   7.006  12.389   7.785
93417SOL     OW82147   6.870   5.587   9.385
93417SOL    HW182148   6.865   5.519   9.318
93417SOL    HW282149   6.883   5.538   9.467
93418SOL     OW82150   3.734   4.841  13.965
93418SOL    HW182151   3.690   4.795  14.036
93418SOL    HW282152   3.827   4.819  13.976
93419SOL     OW82153   7.239   1.063  10.218
93419SOL    HW182154   7.215   0.989  10.163
93419SOL    HW282155   7.173   1.064  10.287
93420SOL     OW82156   7.331  13.237   1.592
93420SOL    HW182157   7.354  13.304   1.528
93420SOL    HW282158   7.413  13.217   1.637
93421SOL     OW82159   2.076   7.105   3.550
93421SOL    HW182160   1.992   7.137   3.518
93421SOL    HW282161   2.118   7.065   3.474
93422SOL     OW82162   6.341   3.104  12.409
93422SOL    HW182163   6.326   3.010  12.415
93422SOL    HW282164   6.322   3.126  12.318
93423SOL     OW82165  14.749   6.946   0.714
93423SOL    HW182166  14.810   7.010   0.751
93423SOL    HW282167  14.802   6.893   0.655
93424SOL     OW82168   1.037   8.257   6.841
93424SOL    HW182169   0.985   8.201   6.783
93424SOL    HW282170   1.107   8.292   6.785
93425SOL     OW82171   0.506   6.995   4.477
93425SOL    HW182172   0.521   6.995   4.571
93425SOL    HW282173   0.566   7.061   4.443
93426SOL     OW82174   7.335  11.936   2.519
93426SOL    HW182175   7.265  11.875   2.541
93426SOL    HW282176   7.401  11.882   2.475
93427SOL     OW82177  14.255   8.559  12.901
93427SOL    HW182178  14.188   8.616  12.863
93427SOL    HW282179  14.296   8.612  12.970
93428SOL     OW82180   4.433   3.019   0.854
93428SOL    HW182181   4.495   2.965   0.902
93428SOL    HW282182   4.405   3.086   0.917
93429SOL     OW82183   7.288  11.019   8.271
93429SOL    HW182184   7.329  10.943   8.230
93429SOL    HW282185   7.226  10.982   8.334
93430SOL     OW82186   4.487  12.735   4.454
93430SOL    HW182187   4.499  12.724   4.549
93430SOL    HW282188   4.397  12.767   4.445
93431SOL     OW82189  10.166   1.892   5.302
93431SOL    HW182190  10.100   1.946   5.260
93431SOL    HW282191  10.227   1.870   5.231
93432SOL     OW82192  10.411   0.968   6.406
93432SOL    HW182193  10.416   1.061   6.430
93432SOL    HW282194  10.322   0.942   6.429
93433SOL     OW82195   8.863   9.602   0.383
93433SOL    HW182196   8.774   9.604   0.346
93433SOL    HW282197   8.914   9.550   0.321
93434SOL     OW82198  13.102   0.937  11.615
93434SOL    HW182199  13.040   0.968  11.681
93434SOL    HW282200  13.133   0.853  11.649
93435SOL     OW82201  13.449   5.986   9.763
93435SOL    HW182202  13.393   6.062   9.767
93435SOL    HW282203  13.430   5.946   9.678
93436SOL     OW82204  14.165   1.247  14.111
93436SOL    HW182205  14.238   1.215  14.164
93436SOL    HW282206  14.150   1.336  14.141
93437SOL     OW82207  10.136   4.353   7.823
93437SOL    HW182208  10.201   4.308   7.769
93437SOL    HW282209  10.052   4.334   7.780
93438SOL     OW82210  11.822  13.615   8.299
93438SOL    HW182211  11.869  13.544   8.343
93438SOL    HW282212  11.806  13.680   8.368
93439SOL     OW82213   7.952   5.608  14.447
93439SOL    HW182214   7.939   5.531  14.391
93439SOL    HW282215   7.919   5.582  14.533
93440SOL     OW82216   3.658   8.106  13.055
93440SOL    HW182217   3.581   8.159  13.076
93440SOL    HW282218   3.709   8.106  13.136
93441SOL     OW82219   6.964   7.484   1.579
93441SOL    HW182220   6.942   7.409   1.633
93441SOL    HW282221   7.058   7.477   1.563
93442SOL     OW82222   4.492   1.257  13.296
93442SOL    HW182223   4.452   1.342  13.310
93442SOL    HW282224   4.496   1.217  13.383
93443SOL     OW82225   7.101   1.582   1.215
93443SOL    HW182226   7.179   1.550   1.261
93443SOL    HW282227   7.097   1.675   1.238
93444SOL     OW82228   2.942   7.198  13.622
93444SOL    HW182229   2.937   7.129  13.555
93444SOL    HW282230   3.035   7.204  13.643
93445SOL     OW82231   0.159   1.339  10.807
93445SOL    HW182232   0.244   1.375  10.783
93445SOL    HW282233   0.176   1.284  10.883
93446SOL     OW82234  10.314   2.854  13.450
93446SOL    HW182235  10.275   2.780  13.496
93446SOL    HW282236  10.244   2.887  13.393
93447SOL     OW82237  13.378   2.030   3.806
93447SOL    HW182238  13.346   1.960   3.749
93447SOL    HW282239  13.343   2.110   3.767
93448SOL     OW82240  12.889  10.640   0.060
93448SOL    HW182241  12.809  10.591   0.080
93448SOL    HW282242  12.950  10.616   0.129
93449SOL     OW82243  14.697   5.597   1.174
93449SOL    HW182244  14.693   5.536   1.101
93449SOL    HW282245  14.641   5.557   1.241
93450SOL     OW82246   2.827   7.313  13.837
93450SOL    HW182247   2.853   7.278  13.751
93450SOL    HW282248   2.906   7.306  13.890
93451SOL     OW82249  13.578   1.693   2.681
93451SOL    HW182250  13.487   1.683   2.653
93451SOL    HW282251  13.626   1.630   2.627
93452SOL     OW82252   2.709   6.791   8.359
93452SOL    HW182253   2.635   6.740   8.394
93452SOL    HW282254   2.787   6.747   8.393
93453SOL     OW82255   7.752  12.105   0.220
93453SOL    HW182256   7.690  12.110   0.293
93453SOL    HW282257   7.725  12.175   0.161
93454SOL     OW82258  14.036   5.960  13.801
93454SOL    HW182259  13.987   6.040  13.782
93454SOL    HW282260  14.065   5.928  13.716
93455SOL     OW82261   9.561   9.540   3.970
93455SOL    HW182262   9.580   9.451   4.000
93455SOL    HW282263   9.638   9.565   3.919
93456SOL     OW82264   0.652   4.521   2.961
93456SOL    HW182265   0.634   4.499   3.053
93456SOL    HW282266   0.747   4.513   2.953
93457SOL     OW82267   9.122  14.749   3.684
93457SOL    HW182268   9.130  14.667   3.635
93457SOL    HW282269   9.131  14.818   3.618
93458SOL     OW82270  13.641   2.063   4.575
93458SOL    HW182271  13.730   2.037   4.598
93458SOL    HW282272  13.635   2.046   4.481
93459SOL     OW82273  10.412   0.540   6.949
93459SOL    HW182274  10.336   0.581   6.990
93459SOL    HW282275  10.376   0.465   6.902
93460SOL     OW82276  14.781  14.112   8.515
93460SOL    HW182277  14.710  14.089   8.455
93460SOL    HW282278  14.860  14.079   8.474
93461SOL     OW82279  11.714  13.044   0.585
93461SOL    HW182280  11.746  12.970   0.534
93461SOL    HW282281  11.689  13.109   0.520
93462SOL     OW82282   8.996   6.775   2.611
93462SOL    HW182283   9.076   6.724   2.625
93462SOL    HW282284   9.019   6.838   2.543
93463SOL     OW82285   5.329  12.689   3.746
93463SOL    HW182286   5.340  12.759   3.681
93463SOL    HW282287   5.346  12.733   3.830
93464SOL     OW82288   1.999   2.859  11.510
93464SOL    HW182289   2.055   2.936  11.498
93464SOL    HW282290   2.054   2.797  11.557
93465SOL     OW82291  12.555   3.665   4.616
93465SOL    HW182292  12.599   3.592   4.574
93465SOL    HW282293  12.467   3.633   4.636
93466SOL     OW82294   6.424   6.778   7.010
93466SOL    HW182295   6.499   6.768   7.069
93466SOL    HW282296   6.397   6.688   6.991
93467SOL     OW82297  11.077   4.622  12.044
93467SOL    HW182298  11.029   4.556  11.993
93467SOL    HW282299  11.055   4.705  12.003
93468SOL     OW82300  14.108  14.382   7.207
93468SOL    HW182301  14.203  14.369   7.206
93468SOL    HW282302  14.095  14.459   7.263
93469SOL     OW82303   0.020  12.241   1.039
93469SOL    HW182304   0.013  12.284   0.953
93469SOL    HW282305   0.055  12.310   1.096
93470SOL     OW82306   1.981   0.513   3.714
93470SOL    HW182307   1.999   0.422   3.690
93470SOL    HW282308   1.904   0.537   3.662
93471SOL     OW82309  10.451   9.998  13.788
93471SOL    HW182310  10.439   9.959  13.875
93471SOL    HW282311  10.404   9.939  13.729
93472SOL     OW82312  12.236   9.346   2.236
93472SOL    HW182313  12.269   9.419   2.290
93472SOL    HW282314  12.314   9.308   2.197
93473SOL     OW82315  14.666   0.519  14.512
93473SOL    HW182316  14.757   0.548  14.521
93473SOL    HW282317  14.668   0.453  14.443
93474SOL     OW82318   7.855  11.865   1.234
93474SOL    HW182319   7.924  11.804   1.261
93474SOL    HW282320   7.838  11.844   1.143
93475SOL     OW82321  10.762   5.076   1.236
93475SOL    HW182322  10.831   5.135   1.266
93475SOL    HW282323  10.737   5.027   1.314
93476SOL     OW82324   6.192  10.108   4.136
93476SOL    HW182325   6.124  10.050   4.170
93476SOL    HW282326   6.200  10.178   4.201
93477SOL     OW82327   8.850   0.611   4.785
93477SOL    HW182328   8.781   0.677   4.799
93477SOL    HW282329   8.928   0.662   4.766
93478SOL     OW82330   5.704  13.088  11.886
93478SOL    HW182331   5.686  13.132  11.803
93478SOL    HW282332   5.635  13.023  11.893
93479SOL     OW82333  12.461  11.646   5.544
93479SOL    HW182334  12.548  11.606   5.552
93479SOL    HW282335  12.405  11.593   5.600
93480SOL     OW82336   1.828  10.993  14.735
93480SOL    HW182337   1.758  10.927  14.739
93480SOL    HW282338   1.809  11.044  14.657
93481SOL     OW82339   8.095   9.033   5.080
93481SOL    HW182340   8.042   9.011   5.003
93481SOL    HW282341   8.034   9.076   5.139
93482SOL     OW82342   1.629   3.497   7.210
93482SOL    HW182343   1.691   3.530   7.145
93482SOL    HW282344   1.595   3.416   7.172
93483SOL     OW82345   6.379   7.174  10.380
93483SOL    HW182346   6.331   7.222  10.312
93483SOL    HW282347   6.467   7.212  10.378
93484SOL     OW82348   9.592  11.678   9.644
93484SOL    HW182349   9.662  11.614   9.657
93484SOL    HW282350   9.602  11.707   9.554
93485SOL     OW82351   6.426   0.222  11.616
93485SOL    HW182352   6.479   0.255  11.543
93485SOL    HW282353   6.359   0.289  11.628
93486SOL     OW82354   4.690   5.402   9.874
93486SOL    HW182355   4.708   5.457   9.797
93486SOL    HW282356   4.713   5.314   9.846
93487SOL     OW82357   4.522  14.467   1.313
93487SOL    HW182358   4.495  14.377   1.332
93487SOL    HW282359   4.456  14.498   1.251
93488SOL     OW82360  13.097  12.693   0.725
93488SOL    HW182361  13.161  12.751   0.765
93488SOL    HW282362  13.144  12.654   0.651
93489SOL     OW82363  11.188   4.563   4.670
93489SOL    HW182364  11.184   4.520   4.756
93489SOL    HW282365  11.269   4.532   4.631
93490SOL     OW82366   9.651   9.537   8.426
93490SOL    HW182367   9.707   9.615   8.432
93490SOL    HW282368   9.581   9.563   8.366
93491SOL     OW82369   9.529  11.691   2.394
93491SOL    HW182370   9.443  11.677   2.356
93491SOL    HW282371   9.543  11.786   2.389
93492SOL     OW82372   1.744   9.311  12.404
93492SOL    HW182373   1.687   9.237  12.428
93492SOL    HW282374   1.829   9.270  12.389
93493SOL     OW82375  11.054  10.929   4.057
93493SOL    HW182376  11.118  10.900   3.993
93493SOL    HW282377  10.998  10.991   4.010
93494SOL     OW82378  11.277   1.695  14.282
93494SOL    HW182379  11.345   1.640  14.242
93494SOL    HW282380  11.290   1.781  14.243
93495SOL     OW82381   4.375   1.945   1.143
93495SOL    HW182382   4.359   2.010   1.074
93495SOL    HW282383   4.470   1.941   1.151
93496SOL     OW82384   8.031   4.232  13.118
93496SOL    HW182385   8.085   4.206  13.043
93496SOL    HW282386   7.949   4.184  13.107
93497SOL     OW82387   1.343   4.715  11.692
93497SOL    HW182388   1.361   4.777  11.763
93497SOL    HW282389   1.402   4.642  11.707
93498SOL     OW82390   3.543   3.543   4.251
93498SOL    HW182391   3.604   3.583   4.188
93498SOL    HW282392   3.529   3.611   4.317
93499SOL     OW82393  10.139   2.926   4.335
93499SOL    HW182394  10.123   2.846   4.284
93499SOL    HW282395  10.216   2.906   4.388
93500SOL     OW82396   5.716   3.899  10.518
93500SOL    HW182397   5.658   3.859  10.453
93500SOL    HW282398   5.731   3.988  10.485
93501SOL     OW82399  13.368   1.512  10.129
93501SOL    HW182400  13.300   1.446  10.117
93501SOL    HW282401  13.346   1.581  10.066
93502SOL     OW82402   3.682  13.138   3.913
93502SOL    HW182403   3.679  13.116   3.820
93502SOL    HW282404   3.664  13.232   3.916
93503SOL     OW82405   1.779  11.013   6.618
93503SOL    HW182406   1.722  10.978   6.549
93503SOL    HW282407   1.853  11.051   6.572
93504SOL     OW82408  13.459  10.386   5.996
93504SOL    HW182409  13.484  10.458   6.053
93504SOL    HW282410  13.365  10.376   6.010
93505SOL     OW82411  14.627   9.628   0.134
93505SOL    HW182412  14.640   9.592   0.046
93505SOL    HW282413  14.640   9.553   0.192
93506SOL     OW82414   1.556   9.683   0.695
93506SOL    HW182415   1.504   9.610   0.661
93506SOL    HW282416   1.510   9.761   0.664
93507SOL     OW82417   2.508   5.857   1.106
93507SOL    HW182418   2.425   5.846   1.060
93507SOL    HW282419   2.500   5.802   1.183
93508SOL     OW82420   4.072  12.461   7.634
93508SOL    HW182421   4.065  12.548   7.673
93508SOL    HW282422   4.153  12.464   7.582
93509SOL     OW82423  11.211   2.512  10.663
93509SOL    HW182424  11.123   2.548  10.649
93509SOL    HW282425  11.217   2.439  10.602
93510SOL     OW82426  12.541   6.519   6.498
93510SOL    HW182427  12.533   6.449   6.562
93510SOL    HW282428  12.527   6.476   6.414
93511SOL     OW82429  10.371   5.271   9.065
93511SOL    HW182430  10.447   5.326   9.086
93511SOL    HW282431  10.408   5.184   9.054
93512SOL     OW82432   0.667   9.487   4.791
93512SOL    HW182433   0.682   9.468   4.699
93512SOL    HW282434   0.571   9.492   4.799
93513SOL     OW82435   8.960   3.961   9.422
93513SOL    HW182436   8.884   4.006   9.383
93513SOL    HW282437   8.934   3.869   9.425
93514SOL     OW82438   1.195   3.181  12.694
93514SOL    HW182439   1.131   3.248  12.672
93514SOL    HW282440   1.188   3.117  12.623
93515SOL     OW82441   2.573  14.447   9.192
93515SOL    HW182442   2.597  14.537   9.170
93515SOL    HW282443   2.652  14.411   9.234
93516SOL     OW82444   7.022   7.056  14.838
93516SOL    HW182445   6.992   6.966  14.821
93516SOL    HW282446   7.112   7.046  14.869
93517SOL     OW82447   9.981   0.124   1.652
93517SOL    HW182448  10.020   0.102   1.736
93517SOL    HW282449   9.951   0.041   1.616
93518SOL     OW82450   8.563  11.497   0.646
93518SOL    HW182451   8.495  11.564   0.649
93518SOL    HW282452   8.523  11.424   0.599
93519SOL     OW82453  10.694  13.545   7.230
93519SOL    HW182454  10.694  13.450   7.234
93519SOL    HW282455  10.676  13.573   7.320
93520SOL     OW82456   6.572   8.813   1.013
93520SOL    HW182457   6.548   8.786   1.102
93520SOL    HW282458   6.592   8.906   1.021
93521SOL     OW82459   7.130  10.605   8.370
93521SOL    HW182460   7.103  10.686   8.327
93521SOL    HW282461   7.121  10.624   8.464
93522SOL     OW82462   0.879  13.851   8.972
93522SOL    HW182463   0.883  13.794   8.895
93522SOL    HW282464   0.787  13.848   8.999
93523SOL     OW82465  13.423   7.697   8.157
93523SOL    HW182466  13.358   7.767   8.166
93523SOL    HW282467  13.390   7.642   8.087
93524SOL     OW82468   6.926   4.141  12.742
93524SOL    HW182469   6.997   4.101  12.692
93524SOL    HW282470   6.846   4.105  12.704
93525SOL     OW82471   4.380   6.462   7.704
93525SOL    HW182472   4.436   6.439   7.778
93525SOL    HW282473   4.424   6.426   7.627
93526SOL     OW82474   5.133   4.139   9.415
93526SOL    HW182475   5.078   4.072   9.457
93526SOL    HW282476   5.095   4.149   9.327
93527SOL     OW82477   1.828   8.126   4.506
93527SOL    HW182478   1.908   8.100   4.460
93527SOL    HW282479   1.796   8.202   4.457
93528SOL     OW82480   2.959   4.978   6.821
93528SOL    HW182481   2.971   4.985   6.727
93528SOL    HW282482   2.918   5.061   6.846
93529SOL     OW82483   6.355   7.950  10.416
93529SOL    HW182484   6.387   7.937  10.505
93529SOL    HW282485   6.261   7.932  10.421
93530SOL     OW82486   2.295  14.043   7.659
93530SOL    HW182487   2.375  13.990   7.647
93530SOL    HW282488   2.317  14.128   7.623
93531SOL     OW82489   0.713   1.881  14.157
93531SOL    HW182490   0.745   1.792  14.169
93531SOL    HW282491   0.770   1.935  14.213
93532SOL     OW82492   4.966  11.512   5.093
93532SOL    HW182493   4.874  11.483   5.093
93532SOL    HW282494   4.997  11.493   5.004
93533SOL     OW82495   4.808   8.671   6.246
93533SOL    HW182496   4.757   8.594   6.271
93533SOL    HW282497   4.890   8.663   6.296
93534SOL     OW82498  13.044  12.169   1.995
93534SOL    HW182499  13.017  12.218   1.917
93534SOL    HW282500  13.095  12.095   1.961
93535SOL     OW82501   7.568   9.005   0.125
93535SOL    HW182502   7.555   8.919   0.164
93535SOL    HW282503   7.593   9.061   0.198
93536SOL     OW82504  14.860  11.254   9.371
93536SOL    HW182505  14.800  11.199   9.420
93536SOL    HW282506   0.031  11.193   9.317
93537SOL     OW82507   8.969   6.307   2.689
93537SOL    HW182508   8.918   6.227   2.705
93537SOL    HW282509   8.920   6.354   2.621
93538SOL     OW82510  14.586  10.219   6.793
93538SOL    HW182511  14.666  10.265   6.769
93538SOL    HW282512  14.520  10.288   6.804
93539SOL     OW82513   8.264  14.673   2.890
93539SOL    HW182514   8.219  14.615   2.952
93539SOL    HW282515   8.193  14.717   2.842
93540SOL     OW82516  11.144   3.121   9.088
93540SOL    HW182517  11.108   3.187   9.029
93540SOL    HW282518  11.203   3.169   9.146
93541SOL     OW82519   2.936  14.395  11.340
93541SOL    HW182520   2.850  14.353  11.342
93541SOL    HW282521   2.946  14.423  11.249
93542SOL     OW82522   9.937  14.658   8.945
93542SOL    HW182523   9.874  14.691   8.882
93542SOL    HW282524   9.943  14.564   8.926
93543SOL     OW82525   9.800   5.685  10.630
93543SOL    HW182526   9.822   5.621  10.698
93543SOL    HW282527   9.785   5.632  10.551
93544SOL     OW82528  12.597   2.380  13.988
93544SOL    HW182529  12.620   2.296  13.950
93544SOL    HW282530  12.681   2.420  14.012
93545SOL     OW82531  12.779   7.893   0.849
93545SOL    HW182532  12.812   7.803   0.840
93545SOL    HW282533  12.740   7.895   0.937
93546SOL     OW82534  12.111   9.722   0.151
93546SOL    HW182535  12.068   9.804   0.174
93546SOL    HW282536  12.054   9.654   0.187
93547SOL     OW82537   6.546   2.331  14.265
93547SOL    HW182538   6.485   2.267  14.301
93547SOL    HW282539   6.498   2.414  14.268
93548SOL     OW82540   8.776   2.755   8.205
93548SOL    HW182541   8.818   2.701   8.272
93548SOL    HW282542   8.684   2.729   8.209
93549SOL     OW82543  11.969   7.237   5.949
93549SOL    HW182544  11.881   7.269   5.930
93549SOL    HW282545  12.001   7.296   6.018
93550SOL     OW82546   3.971   3.974  11.756
93550SOL    HW182547   3.990   4.026  11.678
93550SOL    HW282548   4.002   4.029  11.828
93551SOL     OW82549   0.273   3.536   6.332
93551SOL    HW182550   0.286   3.630   6.321
93551SOL    HW282551   0.353   3.506   6.375
93552SOL     OW82552   7.812   6.156   7.653
93552SOL    HW182553   7.749   6.222   7.625
93552SOL    HW282554   7.865   6.200   7.720
93553SOL     OW82555   8.872   4.984  14.395
93553SOL    HW182556   8.924   4.937  14.460
93553SOL    HW282557   8.879   4.930  14.316
93554SOL     OW82558   3.781  14.581   5.922
93554SOL    HW182559   3.784  14.673   5.946
93554SOL    HW282560   3.791  14.534   6.005
93555SOL     OW82561   6.913   7.066   2.321
93555SOL    HW182562   6.869   7.147   2.293
93555SOL    HW282563   6.935   7.022   2.240
93556SOL     OW82564   1.773  10.232  12.291
93556SOL    HW182565   1.746  10.237  12.383
93556SOL    HW282566   1.820  10.149  12.284
93557SOL     OW82567   8.879   2.373  11.071
93557SOL    HW182568   8.926   2.455  11.053
93557SOL    HW282569   8.788   2.393  11.048
93558SOL     OW82570   4.619   9.177   5.473
93558SOL    HW182571   4.626   9.217   5.560
93558SOL    HW282572   4.532   9.137   5.472
93559SOL     OW82573   3.976   9.839   9.853
93559SOL    HW182574   3.882   9.852   9.865
93559SOL    HW282575   3.991   9.748   9.876
93560SOL     OW82576   7.285   9.015   8.650
93560SOL    HW182577   7.273   8.989   8.741
93560SOL    HW282578   7.371   8.981   8.626
93561SOL     OW82579   1.051   5.076  14.198
93561SOL    HW182580   1.108   5.118  14.134
93561SOL    HW282581   1.024   4.995  14.154
93562SOL     OW82582   1.398  10.062   3.297
93562SOL    HW182583   1.487  10.028   3.291
93562SOL    HW282584   1.397  10.139   3.241
93563SOL     OW82585   2.644   1.474   4.539
93563SOL    HW182586   2.732   1.485   4.576
93563SOL    HW282587   2.639   1.381   4.517
93564SOL     OW82588   4.812   7.460  14.043
93564SOL    HW182589   4.886   7.458  14.104
93564SOL    HW282590   4.821   7.381  13.991
93565SOL     OW82591   0.368   6.092  13.664
93565SOL    HW182592   0.433   6.076  13.595
93565SOL    HW282593   0.403   6.167  13.713
93566SOL     OW82594   9.464   7.919   6.035
93566SOL    HW182595   9.517   7.906   5.957
93566SOL    HW282596   9.390   7.859   6.025
93567SOL     OW82597   6.851   7.039   1.603
93567SOL    HW182598   6.800   7.062   1.525
93567SOL    HW282599   6.875   7.123   1.642
93568SOL     OW82600  14.762   3.746   9.336
93568SOL    HW182601  14.793   3.836   9.328
93568SOL    HW282602  14.676   3.754   9.378
93569SOL     OW82603  11.852   2.132  11.576
93569SOL    HW182604  11.903   2.141  11.496
93569SOL    HW282605  11.868   2.042  11.605
93570SOL     OW82606  12.704   1.808   1.072
93570SOL    HW182607  12.712   1.904   1.071
93570SOL    HW282608  12.623   1.791   1.119
93571SOL     OW82609  12.839   8.094   4.817
93571SOL    HW182610  12.792   8.011   4.811
93571SOL    HW282611  12.774   8.160   4.796
93572SOL     OW82612   4.925   4.968  10.861
93572SOL    HW182613   4.992   5.023  10.901
93572SOL    HW282614   4.858   5.029  10.832
93573SOL     OW82615  11.554   1.984   2.468
93573SOL    HW182616  11.595   2.027   2.543
93573SOL    HW282617  11.540   1.894   2.497
93574SOL     OW82618   7.418   3.461   5.021
93574SOL    HW182619   7.414   3.465   5.116
93574SOL    HW282620   7.442   3.370   5.002
93575SOL     OW82621   2.922   2.389  13.676
93575SOL    HW182622   2.900   2.448  13.748
93575SOL    HW282623   2.921   2.444  13.598
93576SOL     OW82624   3.918  14.065   3.308
93576SOL    HW182625   4.005  14.100   3.289
93576SOL    HW282626   3.911  13.986   3.254
93577SOL     OW82627  11.948  13.107  14.644
93577SOL    HW182628  11.990  13.081  14.562
93577SOL    HW282629  11.985  13.193  14.665
93578SOL     OW82630   4.151   0.224   6.915
93578SOL    HW182631   4.207   0.152   6.884
93578SOL    HW282632   4.165   0.225   7.010
93579SOL     OW82633   3.615   4.243   9.501
93579SOL    HW182634   3.616   4.150   9.525
93579SOL    HW282635   3.699   4.257   9.457
93580SOL     OW82636  10.036   5.808  10.083
93580SOL    HW182637  10.059   5.877  10.021
93580SOL    HW282638  10.022   5.853  10.166
93581SOL     OW82639  10.324   4.470   0.953
93581SOL    HW182640  10.391   4.535   0.974
93581SOL    HW282641  10.324   4.467   0.857
93582SOL     OW82642   1.549   4.495   7.164
93582SOL    HW182643   1.567   4.487   7.070
93582SOL    HW282644   1.459   4.465   7.174
93583SOL     OW82645   7.817   5.680  11.277
93583SOL    HW182646   7.759   5.710  11.207
93583SOL    HW282647   7.856   5.760  11.311
93584SOL     OW82648   1.982   7.347  10.660
93584SOL    HW182649   1.965   7.266  10.611
93584SOL    HW282650   1.975   7.417  10.594
93585SOL     OW82651  10.811   3.667   3.254
93585SOL    HW182652  10.734   3.646   3.201
93585SOL    HW282653  10.792   3.753   3.290
93586SOL     OW82654  13.211   3.668   6.887
93586SOL    HW182655  13.285   3.643   6.831
93586SOL    HW282656  13.150   3.594   6.880
93587SOL     OW82657   3.915   0.557   8.960
93587SOL    HW182658   3.961   0.638   8.937
93587SOL    HW282659   3.861   0.580   9.036
93588SOL     OW82660  13.728   1.433   3.187
93588SOL    HW182661  13.753   1.493   3.117
93588SOL    HW282662  13.657   1.478   3.233
93589SOL     OW82663   6.678   9.737  14.417
93589SOL    HW182664   6.691   9.807  14.353
93589SOL    HW282665   6.706   9.775  14.501
93590SOL     OW82666  12.091   1.446  13.113
93590SOL    HW182667  12.043   1.386  13.056
93590SOL    HW282668  12.062   1.424  13.201
93591SOL     OW82669   4.631   1.670   8.529
93591SOL    HW182670   4.654   1.743   8.586
93591SOL    HW282671   4.659   1.699   8.442
93592SOL     OW82672  13.939  13.550   0.368
93592SOL    HW182673  13.872  13.616   0.389
93592SOL    HW282674  13.961  13.510   0.452
93593SOL     OW82675   0.744  11.076   7.333
93593SOL    HW182676   0.788  11.026   7.401
93593SOL    HW282677   0.815  11.125   7.290
93594SOL     OW82678  13.276   8.346  13.606
93594SOL    HW182679  13.197   8.397  13.587
93594SOL    HW282680  13.261   8.310  13.694
93595SOL     OW82681   0.973   3.568  12.091
93595SOL    HW182682   0.943   3.607  12.009
93595SOL    HW282683   1.066   3.592  12.096
93596SOL     OW82684   1.535   9.184   0.322
93596SOL    HW182685   1.514   9.102   0.278
93596SOL    HW282686   1.585   9.234   0.257
93597SOL     OW82687   5.030   9.477   9.787
93597SOL    HW182688   5.048   9.409   9.722
93597SOL    HW282689   5.060   9.558   9.747
93598SOL     OW82690  10.766   1.896   8.550
93598SOL    HW182691  10.678   1.913   8.584
93598SOL    HW282692  10.783   1.969   8.491
93599SOL     OW82693   6.762  10.686  11.689
93599SOL    HW182694   6.675  10.710  11.658
93599SOL    HW282695   6.746  10.617  11.754
93600SOL     OW82696   8.608   5.328   6.124
93600SOL    HW182697   8.573   5.390   6.187
93600SOL    HW282698   8.685   5.290   6.166
93601SOL     OW82699   8.052   2.717  11.087
93601SOL    HW182700   8.129   2.686  11.135
93601SOL    HW282701   8.072   2.698  10.995
93602SOL     OW82702  14.721   8.728  10.884
93602SOL    HW182703  14.816   8.733  10.873
93602SOL    HW282704  14.700   8.635  10.873
93603SOL     OW82705   8.850   1.442   0.533
93603SOL    HW182706   8.844   1.524   0.483
93603SOL    HW282707   8.797   1.457   0.611
93604SOL     OW82708   0.898   7.778  13.075
93604SOL    HW182709   0.819   7.759  13.024
93604SOL    HW282710   0.872   7.759  13.166
93605SOL     OW82711   8.798   3.980  13.268
93605SOL    HW182712   8.829   3.902  13.222
93605SOL    HW282713   8.847   4.052  13.229
93606SOL     OW82714   8.958   1.121   4.862
93606SOL    HW182715   8.989   1.126   4.772
93606SOL    HW282716   9.018   1.177   4.912
93607SOL     OW82717  12.492   8.557   7.807
93607SOL    HW182718  12.503   8.516   7.721
93607SOL    HW282719  12.529   8.494   7.869
93608SOL     OW82720  12.639   7.567  13.718
93608SOL    HW182721  12.716   7.518  13.690
93608SOL    HW282722  12.641   7.647  13.666
93609SOL     OW82723   6.975   0.718   6.152
93609SOL    HW182724   6.885   0.735   6.177
93609SOL    HW282725   7.024   0.794   6.183
93610SOL     OW82726   4.312   4.902   8.976
93610SOL    HW182727   4.402   4.916   9.003
93610SOL    HW282728   4.260   4.917   9.055
93611SOL     OW82729   7.089  13.075   1.657
93611SOL    HW182730   7.069  13.026   1.577
93611SOL    HW282731   7.153  13.141   1.629
93612SOL     OW82732  12.740  10.964   7.358
93612SOL    HW182733  12.791  10.994   7.433
93612SOL    HW282734  12.683  11.037   7.336
93613SOL     OW82735   6.434   4.981   4.656
93613SOL    HW182736   6.501   5.043   4.686
93613SOL    HW282737   6.458   4.898   4.697
93614SOL     OW82738   5.822   6.636   3.918
93614SOL    HW182739   5.877   6.640   3.840
93614SOL    HW282740   5.840   6.718   3.964
93615SOL     OW82741   8.448   3.061  13.206
93615SOL    HW182742   8.473   2.969  13.205
93615SOL    HW282743   8.377   3.066  13.141
93616SOL     OW82744   4.180   3.219   0.707
93616SOL    HW182745   4.239   3.260   0.643
93616SOL    HW282746   4.212   3.249   0.792
93617SOL     OW82747   3.915   1.883   7.013
93617SOL    HW182748   3.847   1.933   7.058
93617SOL    HW282749   3.941   1.815   7.076
93618SOL     OW82750   1.232  11.388  10.236
93618SOL    HW182751   1.201  11.390  10.327
93618SOL    HW282752   1.327  11.391  10.244
93619SOL     OW82753   9.155  11.471   7.909
93619SOL    HW182754   9.152  11.421   7.991
93619SOL    HW282755   9.244  11.458   7.877
93620SOL     OW82756   1.105   1.863   9.288
93620SOL    HW182757   1.143   1.950   9.277
93620SOL    HW282758   1.107   1.848   9.383
93621SOL     OW82759   9.605  11.892   6.951
93621SOL    HW182760   9.560  11.976   6.955
93621SOL    HW282761   9.673  11.898   7.018
93622SOL     OW82762  10.886   4.173   6.906
93622SOL    HW182763  10.967   4.182   6.856
93622SOL    HW282764  10.912   4.181   6.997
93623SOL     OW82765   3.726  13.452   9.044
93623SOL    HW182766   3.729  13.488   9.133
93623SOL    HW282767   3.755  13.523   8.988
93624SOL     OW82768   2.447  10.456  14.619
93624SOL    HW182769   2.499  10.443  14.699
93624SOL    HW282770   2.511  10.477  14.551
93625SOL     OW82771   1.239   4.773   4.213
93625SOL    HW182772   1.222   4.687   4.253
93625SOL    HW282773   1.321   4.802   4.253
93626SOL     OW82774  12.404   7.884   5.200
93626SOL    HW182775  12.324   7.937   5.199
93626SOL    HW282776  12.429   7.880   5.292
93627SOL     OW82777   3.124   6.356   6.683
93627SOL    HW182778   3.078   6.307   6.615
93627SOL    HW282779   3.118   6.447   6.654
93628SOL     OW82780   4.850  13.195   7.023
93628SOL    HW182781   4.777  13.222   6.967
93628SOL    HW282782   4.809  13.142   7.091
93629SOL     OW82783   2.242   2.338   6.374
93629SOL    HW182784   2.310   2.404   6.388
93629SOL    HW282785   2.229   2.336   6.279
93630SOL     OW82786  10.570  11.328   4.608
93630SOL    HW182787  10.512  11.283   4.547
93630SOL    HW282788  10.630  11.377   4.552
93631SOL     OW82789   9.768   9.076  14.236
93631SOL    HW182790   9.731   8.991  14.259
93631SOL    HW282791   9.832   9.094  14.304
93632SOL     OW82792   6.354   4.593   5.396
93632SOL    HW182793   6.371   4.681   5.361
93632SOL    HW282794   6.397   4.534   5.334
93633SOL     OW82795   7.603   3.310  11.665
93633SOL    HW182796   7.553   3.233  11.689
93633SOL    HW282797   7.670   3.278  11.604
93634SOL     OW82798  14.228  10.532   6.971
93634SOL    HW182799  14.317  10.503   6.995
93634SOL    HW282800  14.230  10.538   6.875
93635SOL     OW82801   3.350  13.611   8.648
93635SOL    HW182802   3.321  13.673   8.581
93635SOL    HW282803   3.339  13.525   8.608
93636SOL     OW82804   7.122   3.368  12.579
93636SOL    HW182805   7.149   3.313  12.652
93636SOL    HW282806   7.116   3.309  12.504
93637SOL     OW82807   5.147   1.666   0.218
93637SOL    HW182808   5.232   1.666   0.261
93637SOL    HW282809   5.140   1.754   0.180
93638SOL     OW82810   5.068  12.146   6.808
93638SOL    HW182811   5.120  12.178   6.881
93638SOL    HW282812   5.075  12.051   6.814
93639SOL     OW82813   4.513   3.491   2.437
93639SOL    HW182814   4.555   3.406   2.428
93639SOL    HW282815   4.535   3.538   2.357
93640SOL     OW82816   8.821  12.720  12.473
93640SOL    HW182817   8.867  12.718  12.389
93640SOL    HW282818   8.734  12.685  12.453
93641SOL     OW82819  13.705   7.845   1.083
93641SOL    HW182820  13.652   7.887   1.015
93641SOL    HW282821  13.641   7.805   1.142
93642SOL     OW82822   6.091   0.001   5.978
93642SOL    HW182823   6.153   0.075   5.981
93642SOL    HW282824   6.146  14.803   5.990
93643SOL     OW82825   8.552   2.915   7.633
93643SOL    HW182826   8.638   2.940   7.669
93643SOL    HW282827   8.538   2.825   7.664
93644SOL     OW82828   5.055   6.710   5.980
93644SOL    HW182829   5.139   6.667   5.995
93644SOL    HW282830   5.061   6.793   6.029
93645SOL     OW82831   3.582   1.011   0.747
93645SOL    HW182832   3.592   1.103   0.767
93645SOL    HW282833   3.487   0.997   0.742
93646SOL     OW82834   6.988   3.825   1.522
93646SOL    HW182835   7.064   3.878   1.497
93646SOL    HW282836   6.913   3.876   1.493
93647SOL     OW82837   9.925   5.188   3.627
93647SOL    HW182838   9.891   5.219   3.712
93647SOL    HW282839   9.892   5.099   3.619
93648SOL     OW82840   9.126  14.140   4.980
93648SOL    HW182841   9.038  14.103   4.970
93648SOL    HW282842   9.172  14.112   4.901
93649SOL     OW82843  13.065   4.617  12.192
93649SOL    HW182844  13.033   4.530  12.167
93649SOL    HW282845  13.037   4.674  12.121
93650SOL     OW82846   0.844   4.835  14.290
93650SOL    HW182847   0.912   4.771  14.311
93650SOL    HW282848   0.808   4.806  14.206
93651SOL     OW82849  13.194   3.013  13.086
93651SOL    HW182850  13.265   3.077  13.081
93651SOL    HW282851  13.226   2.946  13.146
93652SOL     OW82852   2.808  14.113  11.740
93652SOL    HW182853   2.779  14.198  11.773
93652SOL    HW282854   2.757  14.049  11.789
93653SOL     OW82855  10.061   0.344  11.515
93653SOL    HW182856   9.976   0.345  11.470
93653SOL    HW282857  10.067   0.258  11.555
93654SOL     OW82858   9.236   9.597   6.805
93654SOL    HW182859   9.231   9.502   6.813
93654SOL    HW282860   9.168   9.631   6.863
93655SOL     OW82861   2.698  11.660  13.926
93655SOL    HW182862   2.781  11.615  13.946
93655SOL    HW282863   2.631  11.607  13.969
93656SOL     OW82864   5.161  12.600   8.056
93656SOL    HW182865   5.169  12.616   8.149
93656SOL    HW282866   5.238  12.547   8.034
93657SOL     OW82867   7.049  13.322   0.883
93657SOL    HW182868   7.004  13.286   0.960
93657SOL    HW282869   7.009  13.407   0.870
93658SOL     OW82870  12.972   7.377   7.139
93658SOL    HW182871  12.926   7.315   7.196
93658SOL    HW282872  12.916   7.454   7.138
93659SOL     OW82873  14.169  12.162   5.892
93659SOL    HW182874  14.139  12.091   5.948
93659SOL    HW282875  14.158  12.241   5.945
93660SOL     OW82876   1.122   5.376  10.177
93660SOL    HW182877   1.120   5.451  10.236
93660SOL    HW282878   1.211   5.376  10.141
93661SOL     OW82879   9.152   4.042   2.813
93661SOL    HW182880   9.100   3.966   2.838
93661SOL    HW282881   9.234   4.006   2.779
93662SOL     OW82882  10.742   9.625  11.032
93662SOL    HW182883  10.648   9.637  11.048
93662SOL    HW282884  10.749   9.599  10.941
93663SOL     OW82885   6.041   4.972   7.812
93663SOL    HW182886   5.988   4.990   7.734
93663SOL    HW282887   6.009   4.888   7.844
93664SOL     OW82888  13.061   2.848   9.755
93664SOL    HW182889  13.117   2.920   9.782
93664SOL    HW282890  13.090   2.774   9.808
93665SOL     OW82891  13.875   4.727   7.885
93665SOL    HW182892  13.886   4.633   7.869
93665SOL    HW282893  13.801   4.752   7.830
93666SOL     OW82894   5.103  11.283   0.125
93666SOL    HW182895   5.110  11.210   0.063
93666SOL    HW282896   5.165  11.260   0.195
93667SOL     OW82897  11.245   9.133  10.632
93667SOL    HW182898  11.211   9.075  10.564
93667SOL    HW282899  11.307   9.190  10.587
93668SOL     OW82900   7.334  10.953   0.197
93668SOL    HW182901   7.412  10.976   0.146
93668SOL    HW282902   7.284  11.034   0.203
93669SOL     OW82903  10.119  14.856   1.864
93669SOL    HW182904  10.204  14.821   1.889
93669SOL    HW282905  10.058  14.822   1.929
93670SOL     OW82906   7.574  14.401  12.551
93670SOL    HW182907   7.663  14.410  12.585
93670SOL    HW282908   7.574  14.318  12.505
93671SOL     OW82909  13.631   4.703   5.967
93671SOL    HW182910  13.649   4.649   5.890
93671SOL    HW282911  13.654   4.792   5.941
93672SOL     OW82912   8.302   3.509   9.549
93672SOL    HW182913   8.327   3.594   9.587
93672SOL    HW282914   8.385   3.461   9.541
93673SOL     OW82915   3.885  14.818   3.936
93673SOL    HW182916   3.790  14.831   3.941
93673SOL    HW282917   3.921  14.875   4.003
93674SOL     OW82918  11.792   8.961  10.183
93674SOL    HW182919  11.862   9.015  10.146
93674SOL    HW282920  11.741   9.022  10.237
93675SOL     OW82921   2.014  13.350  13.813
93675SOL    HW182922   2.100  13.333  13.853
93675SOL    HW282923   1.969  13.406  13.876
93676SOL     OW82924  10.383   6.168  12.284
93676SOL    HW182925  10.438   6.237  12.321
93676SOL    HW282926  10.443   6.095  12.269
93677SOL     OW82927  10.744   3.890   3.394
93677SOL    HW182928  10.714   3.890   3.485
93677SOL    HW282929  10.687   3.953   3.350
93678SOL     OW82930   1.287  12.332  12.730
93678SOL    HW182931   1.216  12.281  12.769
93678SOL    HW282932   1.321  12.385  12.801
93679SOL     OW82933   1.130   8.554   4.135
93679SOL    HW182934   1.111   8.460   4.135
93679SOL    HW282935   1.134   8.578   4.043
93680SOL     OW82936   0.723   5.116   3.903
93680SOL    HW182937   0.676   5.042   3.866
93680SOL    HW282938   0.766   5.157   3.829
93681SOL     OW82939   0.738   2.031   4.965
93681SOL    HW182940   0.762   1.951   4.917
93681SOL    HW282941   0.788   2.100   4.922
93682SOL     OW82942  12.491   6.445   6.250
93682SOL    HW182943  12.567   6.470   6.198
93682SOL    HW282944  12.433   6.401   6.189
93683SOL     OW82945  11.636   9.534   6.695
93683SOL    HW182946  11.568   9.483   6.649
93683SOL    HW282947  11.631   9.504   6.786
93684SOL     OW82948   4.947   0.327  11.208
93684SOL    HW182949   4.903   0.255  11.164
93684SOL    HW282950   4.909   0.328  11.296
93685SOL     OW82951  14.395  12.145   5.176
93685SOL    HW182952  14.395  12.102   5.091
93685SOL    HW282953  14.331  12.096   5.228
93686SOL     OW82954  14.189   5.224  13.545
93686SOL    HW182955  14.185   5.168  13.623
93686SOL    HW282956  14.112   5.281  13.553
93687SOL     OW82957   6.758  13.399   8.494
93687SOL    HW182958   6.764  13.444   8.409
93687SOL    HW282959   6.829  13.437   8.545
93688SOL     OW82960   9.932   0.418   7.991
93688SOL    HW182961   9.965   0.360   7.923
93688SOL    HW282962   9.839   0.396   7.999
93689SOL     OW82963   2.850   3.982   8.264
93689SOL    HW182964   2.888   3.940   8.342
93689SOL    HW282965   2.917   3.971   8.196
93690SOL     OW82966  14.081   4.684  14.308
93690SOL    HW182967  14.033   4.644  14.235
93690SOL    HW282968  14.037   4.651  14.387
93691SOL     OW82969   9.414   0.845  13.965
93691SOL    HW182970   9.342   0.785  13.947
93691SOL    HW282971   9.491   0.789  13.973
93692SOL     OW82972   2.941  14.622   9.054
93692SOL    HW182973   2.933  14.531   9.026
93692SOL    HW282974   2.859  14.640   9.100
93693SOL     OW82975  10.952   0.482  12.203
93693SOL    HW182976  11.036   0.469  12.158
93693SOL    HW282977  10.947   0.576  12.219
93694SOL     OW82978   0.493   7.722   4.930
93694SOL    HW182979   0.524   7.634   4.951
93694SOL    HW282980   0.540   7.779   4.991
93695SOL     OW82981   6.218   8.250  12.512
93695SOL    HW182982   6.149   8.251  12.446
93695SOL    HW282983   6.299   8.252  12.461
93696SOL     OW82984  10.532   5.183   6.720
93696SOL    HW182985  10.489   5.098   6.730
93696SOL    HW282986  10.536   5.218   6.808
93697SOL     OW82987   0.618   7.334   8.768
93697SOL    HW182988   0.556   7.271   8.732
93697SOL    HW282989   0.702   7.288   8.766
93698SOL     OW82990   4.186   3.437   6.171
93698SOL    HW182991   4.187   3.351   6.212
93698SOL    HW282992   4.104   3.441   6.123
93699SOL     OW82993   3.969  12.947  12.374
93699SOL    HW182994   3.954  12.867  12.323
93699SOL    HW282995   4.035  12.921  12.440
93700SOL     OW82996   2.427  14.122   8.398
93700SOL    HW182997   2.514  14.159   8.382
93700SOL    HW282998   2.384  14.184   8.456
93701SOL     OW82999   3.602   0.541   5.620
93701SOL    HW183000   3.657   0.608   5.661
93701SOL    HW283001   3.591   0.474   5.687
93702SOL     OW83002   6.301   7.602   1.310
93702SOL    HW183003   6.243   7.620   1.384
93702SOL    HW283004   6.389   7.602   1.348
93703SOL     OW83005   2.013   3.119  13.663
93703SOL    HW183006   2.069   3.178  13.611
93703SOL    HW283007   2.055   3.033  13.655
93704SOL     OW83008   5.737   8.548   5.333
93704SOL    HW183009   5.714   8.457   5.352
93704SOL    HW283010   5.721   8.558   5.240
93705SOL     OW83011   1.287  14.846   3.028
93705SOL    HW183012   1.198  14.872   3.050
93705SOL    HW283013   1.298  14.874   2.937
93706SOL     OW83014   4.693   3.174  11.725
93706SOL    HW183015   4.648   3.094  11.698
93706SOL    HW283016   4.742   3.149  11.803
93707SOL     OW83017   8.711   9.589   7.075
93707SOL    HW183018   8.683   9.573   7.166
93707SOL    HW283019   8.665   9.668   7.049
93708SOL     OW83020   1.418   8.557   8.643
93708SOL    HW183021   1.344   8.618   8.639
93708SOL    HW283022   1.475   8.591   8.711
93709SOL     OW83023   0.443  14.096  12.268
93709SOL    HW183024   0.399  14.118  12.186
93709SOL    HW283025   0.534  14.077  12.243
93710SOL     OW83026   3.393   7.377  13.574
93710SOL    HW183027   3.469   7.319  13.572
93710SOL    HW283028   3.429   7.464  13.592
93711SOL     OW83029  14.829   6.566   0.187
93711SOL    HW183030  14.764   6.619   0.233
93711SOL    HW283031   0.031   6.580   0.235
93712SOL     OW83032   9.648   2.315  14.251
93712SOL    HW183033   9.641   2.402  14.213
93712SOL    HW283034   9.573   2.308  14.310
93713SOL     OW83035   6.146   3.574   6.025
93713SOL    HW183036   6.147   3.591   6.119
93713SOL    HW283037   6.233   3.600   5.995
93714SOL     OW83038   1.674  11.668  14.715
93714SOL    HW183039   1.686  11.610  14.791
93714SOL    HW283040   1.714  11.621  14.643
93715SOL     OW83041   5.689   6.521  13.346
93715SOL    HW183042   5.724   6.559  13.426
93715SOL    HW283043   5.596   6.510  13.363
93716SOL     OW83044   3.495  11.175   2.117
93716SOL    HW183045   3.565  11.214   2.169
93716SOL    HW283046   3.415  11.202   2.162
93717SOL     OW83047  12.768   6.986   0.431
93717SOL    HW183048  12.773   7.048   0.504
93717SOL    HW283049  12.811   6.907   0.464
93718SOL     OW83050  11.720  13.237   7.040
93718SOL    HW183051  11.742  13.242   6.948
93718SOL    HW283052  11.790  13.284   7.085
93719SOL     OW83053   8.235   9.365   6.938
93719SOL    HW183054   8.225   9.323   6.852
93719SOL    HW283055   8.184   9.309   6.998
93720SOL     OW83056   7.437   6.643   5.955
93720SOL    HW183057   7.385   6.642   6.035
93720SOL    HW283058   7.379   6.608   5.888
93721SOL     OW83059   8.618   1.612   5.168
93721SOL    HW183060   8.587   1.543   5.110
93721SOL    HW283061   8.590   1.693   5.125
93722SOL     OW83062   1.355   5.712   5.404
93722SOL    HW183063   1.293   5.766   5.453
93722SOL    HW283064   1.347   5.743   5.314
93723SOL     OW83065   7.459  14.443  11.316
93723SOL    HW183066   7.390  14.428  11.381
93723SOL    HW283067   7.539  14.411  11.358
93724SOL     OW83068  13.729  12.113   3.908
93724SOL    HW183069  13.724  12.200   3.947
93724SOL    HW283070  13.641  12.077   3.918
93725SOL     OW83071  10.427   5.568   0.357
93725SOL    HW183072  10.363   5.613   0.303
93725SOL    HW283073  10.393   5.479   0.365
93726SOL     OW83074   2.597   7.208   3.610
93726SOL    HW183075   2.550   7.179   3.532
93726SOL    HW283076   2.528   7.230   3.673
93727SOL     OW83077   9.507  11.220  13.643
93727SOL    HW183078   9.574  11.251  13.705
93727SOL    HW283079   9.439  11.287  13.646
93728SOL     OW83080   9.123  11.252  14.743
93728SOL    HW183081   9.101  11.337  14.704
93728SOL    HW283082   9.053  11.235  14.806
93729SOL     OW83083  13.832   2.225   9.051
93729SOL    HW183084  13.746   2.185   9.066
93729SOL    HW283085  13.894   2.162   9.088
93730SOL     OW83086   8.692   0.858  13.010
93730SOL    HW183087   8.617   0.881  12.955
93730SOL    HW283088   8.660   0.867  13.100
93731SOL     OW83089   4.168  11.138  10.977
93731SOL    HW183090   4.149  11.204  11.044
93731SOL    HW283091   4.216  11.070  11.023
93732SOL     OW83092  11.184   3.212   4.912
93732SOL    HW183093  11.277   3.188   4.911
93732SOL    HW283094  11.144   3.148   4.970
93733SOL     OW83095   1.979  12.697  11.664
93733SOL    HW183096   1.991  12.668  11.755
93733SOL    HW283097   1.893  12.739  11.662
93734SOL     OW83098   9.184   7.505  10.282
93734SOL    HW183099   9.205   7.415  10.307
93734SOL    HW283100   9.240   7.559  10.338
93735SOL     OW83101   4.883   0.225   5.157
93735SOL    HW183102   4.841   0.145   5.125
93735SOL    HW283103   4.966   0.229   5.110
93736SOL     OW83104   9.258   7.714   5.852
93736SOL    HW183105   9.195   7.645   5.831
93736SOL    HW283106   9.205   7.792   5.866
93737SOL     OW83107  13.989   2.629   6.298
93737SOL    HW183108  13.909   2.600   6.342
93737SOL    HW283109  13.961   2.703   6.245
93738SOL     OW83110  11.709   2.636  14.410
93738SOL    HW183111  11.634   2.671  14.458
93738SOL    HW283112  11.754   2.714  14.377
93739SOL     OW83113  11.654   7.621   0.307
93739SOL    HW183114  11.638   7.530   0.332
93739SOL    HW283115  11.644   7.671   0.389
93740SOL     OW83116  14.526   8.286   9.986
93740SOL    HW183117  14.438   8.309  10.018
93740SOL    HW283118  14.584   8.344  10.035
93741SOL     OW83119  12.840   9.638  13.687
93741SOL    HW183120  12.751   9.652  13.719
93741SOL    HW283121  12.846   9.692  13.608
93742SOL     OW83122   8.175   4.649   3.846
93742SOL    HW183123   8.109   4.633   3.913
93742SOL    HW283124   8.237   4.708   3.888
93743SOL     OW83125   9.069   0.340  14.584
93743SOL    HW183126   9.110   0.378  14.506
93743SOL    HW283127   8.993   0.395  14.600
93744SOL     OW83128   2.948  12.993  11.026
93744SOL    HW183129   2.893  13.059  11.067
93744SOL    HW283130   3.016  12.975  11.091
93745SOL     OW83131   7.483  10.790   5.103
93745SOL    HW183132   7.569  10.802   5.143
93745SOL    HW283133   7.452  10.706   5.139
93746SOL     OW83134  13.373   8.777   2.702
93746SOL    HW183135  13.417   8.862   2.703
93746SOL    HW283136  13.301   8.788   2.765
93747SOL     OW83137  14.710   3.367   3.155
93747SOL    HW183138  14.702   3.448   3.104
93747SOL    HW283139  14.791   3.377   3.204
93748SOL     OW83140   9.165   7.918   1.008
93748SOL    HW183141   9.212   7.869   1.075
93748SOL    HW283142   9.229   7.984   0.979
93749SOL     OW83143   7.668  14.285   6.907
93749SOL    HW183144   7.706  14.311   6.823
93749SOL    HW283145   7.634  14.196   6.892
93750SOL     OW83146   0.491   0.364  14.444
93750SOL    HW183147   0.573   0.410  14.429
93750SOL    HW283148   0.428   0.408  14.388
93751SOL     OW83149   4.958   6.245   7.724
93751SOL    HW183150   4.941   6.319   7.666
93751SOL    HW283151   5.051   6.226   7.712
93752SOL     OW83152   7.801   9.047   8.406
93752SOL    HW183153   7.857   9.018   8.478
93752SOL    HW283154   7.757   8.968   8.376
93753SOL     OW83155  11.801   0.118   4.717
93753SOL    HW183156  11.733   0.096   4.654
93753SOL    HW283157  11.857   0.041   4.720
93754SOL     OW83158   6.453   8.189   8.212
93754SOL    HW183159   6.456   8.284   8.219
93754SOL    HW283160   6.382   8.163   8.271
93755SOL     OW83161  10.535  12.567  14.660
93755SOL    HW183162  10.496  12.585  14.745
93755SOL    HW283163  10.550  12.653  14.621
93756SOL     OW83164   2.403  11.870   6.690
93756SOL    HW183165   2.316  11.908   6.699
93756SOL    HW283166   2.463  11.942   6.711
93757SOL     OW83167  11.310   2.662   8.247
93757SOL    HW183168  11.341   2.740   8.293
93757SOL    HW283169  11.215   2.665   8.254
93758SOL     OW83170   0.515   3.060  13.523
93758SOL    HW183171   0.487   3.100  13.441
93758SOL    HW283172   0.592   3.009  13.500
93759SOL     OW83173   5.919   9.531   8.208
93759SOL    HW183174   5.983   9.541   8.278
93759SOL    HW283175   5.879   9.446   8.225
93760SOL     OW83176   9.052   4.632   8.487
93760SOL    HW183177   9.069   4.705   8.429
93760SOL    HW283178   9.081   4.662   8.573
93761SOL     OW83179   1.996   2.335   9.596
93761SOL    HW183180   2.007   2.252   9.642
93761SOL    HW283181   1.971   2.397   9.665
93762SOL     OW83182   4.898  11.988   0.467
93762SOL    HW183183   4.832  11.920   0.482
93762SOL    HW283184   4.982  11.944   0.478
93763SOL     OW83185  12.564  12.031   5.141
93763SOL    HW183186  12.496  12.044   5.208
93763SOL    HW283187  12.589  11.939   5.150
93764SOL     OW83188   4.629  13.306   2.419
93764SOL    HW183189   4.674  13.316   2.335
93764SOL    HW283190   4.694  13.267   2.477
93765SOL     OW83191  10.836   7.043   4.831
93765SOL    HW183192  10.812   7.104   4.761
93765SOL    HW283193  10.763   7.048   4.892
93766SOL     OW83194  12.912   8.124   0.256
93766SOL    HW183195  12.877   8.153   0.341
93766SOL    HW283196  12.985   8.066   0.279
93767SOL     OW83197   3.093   7.654  14.123
93767SOL    HW183198   3.006   7.689  14.138
93767SOL    HW283199   3.122   7.623  14.209
93768SOL     OW83200   2.925  13.325   5.032
93768SOL    HW183201   2.935  13.413   5.068
93768SOL    HW283202   2.861  13.335   4.961
93769SOL     OW83203   3.812  10.085   0.851
93769SOL    HW183204   3.873  10.017   0.879
93769SOL    HW283205   3.748  10.038   0.797
93770SOL     OW83206  10.826  10.535   5.986
93770SOL    HW183207  10.742  10.508   5.949
93770SOL    HW283208  10.813  10.627   6.011
93771SOL     OW83209   9.191   5.022   1.132
93771SOL    HW183210   9.271   5.002   1.082
93771SOL    HW283211   9.142   5.081   1.075
93772SOL     OW83212   2.376   3.254   8.265
93772SOL    HW183213   2.365   3.339   8.307
93772SOL    HW283214   2.310   3.253   8.195
93773SOL     OW83215  12.770   1.619   0.876
93773SOL    HW183216  12.726   1.667   0.946
93773SOL    HW283217  12.807   1.688   0.820
93774SOL     OW83218  14.474   3.864   0.343
93774SOL    HW183219  14.411   3.893   0.277
93774SOL    HW283220  14.543   3.930   0.340
93775SOL     OW83221  13.534   8.353   2.642
93775SOL    HW183222  13.520   8.337   2.549
93775SOL    HW283223  13.582   8.277   2.673
93776SOL     OW83224   2.222   9.349   8.566
93776SOL    HW183225   2.311   9.382   8.559
93776SOL    HW283226   2.178   9.382   8.487
93777SOL     OW83227   4.922   8.068   3.558
93777SOL    HW183228   4.972   7.988   3.578
93777SOL    HW283229   4.840   8.057   3.605
93778SOL     OW83230  11.150   0.265   2.570
93778SOL    HW183231  11.209   0.255   2.494
93778SOL    HW283232  11.064   0.281   2.531
93779SOL     OW83233  13.263   4.256   4.302
93779SOL    HW183234  13.204   4.218   4.366
93779SOL    HW283235  13.267   4.191   4.232
93780SOL     OW83236   7.772   6.796  11.741
93780SOL    HW183237   7.829   6.867  11.710
93780SOL    HW283238   7.693   6.840  11.771
93781SOL     OW83239   8.401   0.049   0.150
93781SOL    HW183240   8.475   0.047   0.211
93781SOL    HW283241   8.428   0.112   0.083
93782SOL     OW83242   4.733   1.559   5.272
93782SOL    HW183243   4.731   1.638   5.327
93782SOL    HW283244   4.797   1.580   5.204
93783SOL     OW83245  10.890   7.008   2.661
93783SOL    HW183246  10.945   7.051   2.728
93783SOL    HW283247  10.801   7.023   2.692
93784SOL     OW83248  12.328   9.116   9.160
93784SOL    HW183249  12.287   9.174   9.096
93784SOL    HW283250  12.415   9.100   9.125
93785SOL     OW83251   9.478   9.500  12.335
93785SOL    HW183252   9.569   9.470  12.333
93785SOL    HW283253   9.452   9.492  12.427
93786SOL     OW83254   9.996   1.639   2.250
93786SOL    HW183255   9.940   1.689   2.191
93786SOL    HW283256  10.079   1.686   2.250
93787SOL     OW83257   9.579   3.312   9.171
93787SOL    HW183258   9.575   3.345   9.261
93787SOL    HW283259   9.540   3.381   9.118
93788SOL     OW83260  12.638   8.656  11.546
93788SOL    HW183261  12.675   8.730  11.595
93788SOL    HW283262  12.708   8.628  11.489
93789SOL     OW83263   0.131  10.568  10.071
93789SOL    HW183264   0.097  10.483  10.096
93789SOL    HW283265   0.074  10.597  10.000
93790SOL     OW83266   7.113   3.630   1.108
93790SOL    HW183267   7.049   3.647   1.038
93790SOL    HW283268   7.198   3.633   1.064
93791SOL     OW83269   5.003   4.013   6.305
93791SOL    HW183270   4.979   4.023   6.213
93791SOL    HW283271   5.088   4.057   6.313
93792SOL     OW83272   6.643  11.565   4.286
93792SOL    HW183273   6.595  11.491   4.249
93792SOL    HW283274   6.590  11.642   4.264
93793SOL     OW83275   8.115  12.165   1.995
93793SOL    HW183276   8.027  12.142   2.024
93793SOL    HW283277   8.108  12.254   1.962
93794SOL     OW83278  13.076  10.839   6.639
93794SOL    HW183279  13.017  10.867   6.569
93794SOL    HW283280  13.161  10.875   6.616
93795SOL     OW83281   2.228   5.559  10.569
93795SOL    HW183282   2.303   5.562  10.510
93795SOL    HW283283   2.253   5.495  10.636
93796SOL     OW83284   2.091   8.808   3.188
93796SOL    HW183285   2.170   8.859   3.209
93796SOL    HW283286   2.023   8.846   3.243
93797SOL     OW83287   6.436   9.238   2.847
93797SOL    HW183288   6.412   9.206   2.934
93797SOL    HW283289   6.384   9.185   2.787
93798SOL     OW83290   7.882  12.961  13.756
93798SOL    HW183291   7.949  12.968  13.825
93798SOL    HW283292   7.828  13.039  13.768
93799SOL     OW83293   8.233   1.342  13.508
93799SOL    HW183294   8.314   1.375  13.545
93799SOL    HW283295   8.168   1.410  13.525
93800SOL     OW83296   9.032   2.052   8.352
93800SOL    HW183297   9.092   1.983   8.323
93800SOL    HW283298   8.992   2.016   8.431
93801SOL     OW83299   4.680   3.129   8.896
93801SOL    HW183300   4.765   3.107   8.858
93801SOL    HW283301   4.621   3.135   8.820
93802SOL     OW83302   5.451  12.721   7.702
93802SOL    HW183303   5.432  12.715   7.795
93802SOL    HW283304   5.371  12.757   7.664
93803SOL     OW83305  10.231   3.297   1.806
93803SOL    HW183306  10.277   3.258   1.731
93803SOL    HW283307  10.181   3.369   1.768
93804SOL     OW83308   8.908  10.513  11.146
93804SOL    HW183309   8.926  10.458  11.222
93804SOL    HW283310   8.950  10.468  11.072
93805SOL     OW83311  11.602  13.215  11.125
93805SOL    HW183312  11.626  13.154  11.195
93805SOL    HW283313  11.626  13.301  11.160
93806SOL     OW83314   7.622  10.309   4.333
93806SOL    HW183315   7.605  10.390   4.380
93806SOL    HW283316   7.659  10.250   4.398
93807SOL     OW83317   7.019   4.226   8.762
93807SOL    HW183318   6.991   4.296   8.820
93807SOL    HW283319   6.941   4.205   8.710
93808SOL     OW83320  13.047   8.502   9.574
93808SOL    HW183321  13.120   8.561   9.592
93808SOL    HW283322  13.082   8.439   9.511
93809SOL     OW83323  13.443  13.038  11.521
93809SOL    HW183324  13.445  12.944  11.502
93809SOL    HW283325  13.514  13.051  11.585
93810SOL     OW83326  13.804   6.219  10.346
93810SOL    HW183327  13.715   6.184  10.345
93810SOL    HW283328  13.860   6.142  10.349
93811SOL     OW83329   5.417   5.477  14.505
93811SOL    HW183330   5.331   5.448  14.473
93811SOL    HW283331   5.453   5.529  14.433
93812SOL     OW83332   2.434   6.735   3.153
93812SOL    HW183333   2.413   6.762   3.063
93812SOL    HW283334   2.436   6.640   3.150
93813SOL     OW83335   1.742   3.136   4.872
93813SOL    HW183336   1.766   3.057   4.922
93813SOL    HW283337   1.667   3.172   4.919
93814SOL     OW83338   0.939  11.298  12.211
93814SOL    HW183339   1.015  11.332  12.165
93814SOL    HW283340   0.911  11.223  12.158
93815SOL     OW83341   0.130   5.799   5.668
93815SOL    HW183342   0.143   5.792   5.763
93815SOL    HW283343   0.150   5.712   5.635
93816SOL     OW83344   9.402   2.337  12.922
93816SOL    HW183345   9.436   2.419  12.886
93816SOL    HW283346   9.339   2.363  12.988
93817SOL     OW83347   2.337   0.352   2.531
93817SOL    HW183348   2.341   0.256   2.532
93817SOL    HW283349   2.415   0.380   2.578
93818SOL     OW83350  12.958   1.379   6.192
93818SOL    HW183351  12.971   1.399   6.285
93818SOL    HW283352  12.955   1.465   6.150
93819SOL     OW83353   1.278   1.938   1.412
93819SOL    HW183354   1.202   1.960   1.358
93819SOL    HW283355   1.242   1.921   1.499
93820SOL     OW83356  13.811   8.827   4.760
93820SOL    HW183357  13.808   8.791   4.671
93820SOL    HW283358  13.765   8.911   4.753
93821SOL     OW83359  10.589  14.615   3.110
93821SOL    HW183360  10.642  14.588   3.185
93821SOL    HW283361  10.501  14.626   3.145
93822SOL     OW83362   9.574   9.536  13.613
93822SOL    HW183363   9.591   9.477  13.687
93822SOL    HW283364   9.659   9.577  13.596
93823SOL     OW83365  10.941   0.064   0.368
93823SOL    HW183366  10.927   0.153   0.400
93823SOL    HW283367  10.858   0.019   0.385
93824SOL     OW83368   9.381   7.496   2.255
93824SOL    HW183369   9.300   7.524   2.297
93824SOL    HW283370   9.396   7.407   2.287
93825SOL     OW83371   5.094  10.157   9.267
93825SOL    HW183372   5.139  10.123   9.190
93825SOL    HW283373   5.057  10.079   9.309
93826SOL     OW83374  11.320  10.358   0.072
93826SOL    HW183375  11.353  10.436   0.029
93826SOL    HW283376  11.372  10.286   0.035
93827SOL     OW83377   0.109  11.669  11.236
93827SOL    HW183378   0.072  11.658  11.148
93827SOL    HW283379   0.045  11.722  11.283
93828SOL     OW83380  11.810   8.024   5.097
93828SOL    HW183381  11.725   8.062   5.120
93828SOL    HW283382  11.827   8.055   5.008
93829SOL     OW83383  13.183   5.999  11.092
93829SOL    HW183384  13.168   5.929  11.156
93829SOL    HW283385  13.247   5.963  11.031
93830SOL     OW83386  11.862  11.898   1.772
93830SOL    HW183387  11.951  11.881   1.741
93830SOL    HW283388  11.850  11.835   1.843
93831SOL     OW83389   7.708   5.958   4.582
93831SOL    HW183390   7.799   5.936   4.562
93831SOL    HW283391   7.658   5.916   4.513
93832SOL     OW83392   2.063   9.852   4.585
93832SOL    HW183393   2.069   9.917   4.515
93832SOL    HW283394   2.094   9.897   4.663
93833SOL     OW83395  12.486  14.560   8.782
93833SOL    HW183396  12.442  14.576   8.866
93833SOL    HW283397  12.461  14.635   8.728
93834SOL     OW83398   7.569   7.848  11.448
93834SOL    HW183399   7.547   7.908  11.518
93834SOL    HW283400   7.660   7.823  11.466
93835SOL     OW83401   7.957   0.262  14.752
93835SOL    HW183402   7.995   0.347  14.775
93835SOL    HW283403   7.867   0.267  14.782
93836SOL     OW83404  11.080   4.646   5.930
93836SOL    HW183405  11.088   4.615   5.840
93836SOL    HW283406  11.167   4.676   5.954
93837SOL     OW83407   9.630   8.478   1.279
93837SOL    HW183408   9.617   8.520   1.364
93837SOL    HW283409   9.725   8.469   1.271
93838SOL     OW83410   4.606   0.085  10.260
93838SOL    HW183411   4.683   0.060  10.310
93838SOL    HW283412   4.534   0.035  10.300
93839SOL     OW83413  12.669  10.844   2.433
93839SOL    HW183414  12.597  10.902   2.457
93839SOL    HW283415  12.717  10.892   2.365
93840SOL     OW83416   9.695   0.775   9.300
93840SOL    HW183417   9.687   0.863   9.263
93840SOL    HW283418   9.634   0.774   9.374
93841SOL     OW83419   6.872   4.718   1.860
93841SOL    HW183420   6.905   4.709   1.949
93841SOL    HW283421   6.881   4.812   1.841
93842SOL     OW83422  11.562  11.515   8.894
93842SOL    HW183423  11.512  11.434   8.906
93842SOL    HW283424  11.515  11.580   8.947
93843SOL     OW83425   7.593   6.209   0.722
93843SOL    HW183426   7.579   6.166   0.637
93843SOL    HW283427   7.512   6.259   0.736
93844SOL     OW83428   2.455   3.120  11.344
93844SOL    HW183429   2.391   3.074  11.291
93844SOL    HW283430   2.525   3.056  11.360
93845SOL     OW83431   2.778   4.029   7.884
93845SOL    HW183432   2.862   4.007   7.924
93845SOL    HW283433   2.714   4.014   7.953
93846SOL     OW83434  10.826   9.367   7.899
93846SOL    HW183435  10.735   9.351   7.875
93846SOL    HW283436  10.827   9.456   7.934
93847SOL     OW83437   6.628  12.650   3.799
93847SOL    HW183438   6.532  12.645   3.798
93847SOL    HW283439   6.657  12.567   3.762
93848SOL     OW83440   3.461   7.712   5.806
93848SOL    HW183441   3.396   7.767   5.848
93848SOL    HW283442   3.525   7.694   5.875
93849SOL     OW83443  13.327  12.964  13.606
93849SOL    HW183444  13.247  12.934  13.648
93849SOL    HW283445  13.305  12.967  13.512
93850SOL     OW83446   6.487   4.241   1.823
93850SOL    HW183447   6.445   4.324   1.800
93850SOL    HW283448   6.530   4.213   1.742
93851SOL     OW83449   9.248   1.778  13.008
93851SOL    HW183450   9.164   1.804  13.045
93851SOL    HW283451   9.285   1.718  13.073
93852SOL     OW83452   0.340   6.451   0.531
93852SOL    HW183453   0.409   6.504   0.489
93852SOL    HW283454   0.383   6.368   0.550
93853SOL     OW83455   1.374   1.934   1.087
93853SOL    HW183456   1.399   2.025   1.069
93853SOL    HW283457   1.285   1.940   1.121
93854SOL     OW83458   1.466  10.035   6.894
93854SOL    HW183459   1.478   9.941   6.910
93854SOL    HW283460   1.555  10.068   6.883
93855SOL     OW83461  11.042  13.691   3.875
93855SOL    HW183462  11.023  13.641   3.954
93855SOL    HW283463  10.999  13.642   3.805
93856SOL     OW83464  14.156   9.125  14.764
93856SOL    HW183465  14.076   9.074  14.777
93856SOL    HW283466  14.225   9.073  14.806
93857SOL     OW83467   0.423  10.592   8.824
93857SOL    HW183468   0.494  10.641   8.867
93857SOL    HW283469   0.377  10.549   8.896
93858SOL     OW83470  13.741   1.663  12.944
93858SOL    HW183471  13.732   1.572  12.915
93858SOL    HW283472  13.816   1.697  12.895
93859SOL     OW83473  10.763  10.549  12.693
93859SOL    HW183474  10.774  10.479  12.757
93859SOL    HW283475  10.836  10.538  12.633
93860SOL     OW83476   6.188  13.887  14.401
93860SOL    HW183477   6.125  13.816  14.389
93860SOL    HW283478   6.134  13.964  14.422
93861SOL     OW83479   0.665  12.063   5.957
93861SOL    HW183480   0.641  11.985   6.008
93861SOL    HW283481   0.586  12.118   5.960
93862SOL     OW83482   9.458   4.760   6.184
93862SOL    HW183483   9.453   4.855   6.178
93862SOL    HW283484   9.518   4.734   6.115
93863SOL     OW83485   3.342  11.800   8.652
93863SOL    HW183486   3.262  11.767   8.612
93863SOL    HW283487   3.397  11.722   8.664
93864SOL     OW83488   2.586   4.073   9.206
93864SOL    HW183489   2.611   4.079   9.114
93864SOL    HW283490   2.511   4.132   9.215
93865SOL     OW83491   6.263   1.824   6.565
93865SOL    HW183492   6.292   1.876   6.491
93865SOL    HW283493   6.226   1.887   6.627
93866SOL     OW83494   2.253  11.417  10.343
93866SOL    HW183495   2.319  11.463  10.292
93866SOL    HW283496   2.184  11.482  10.357
93867SOL     OW83497   9.678  13.468   0.509
93867SOL    HW183498   9.736  13.451   0.583
93867SOL    HW283499   9.737  13.486   0.436
93868SOL     OW83500   8.096  12.615   3.769
93868SOL    HW183501   8.129  12.656   3.850
93868SOL    HW283502   8.142  12.532   3.764
93869SOL     OW83503   6.856   4.685   9.801
93869SOL    HW183504   6.835   4.674   9.708
93869SOL    HW283505   6.844   4.779   9.817
93870SOL     OW83506  12.676  13.097  13.253
93870SOL    HW183507  12.730  13.136  13.184
93870SOL    HW283508  12.618  13.036  13.207
93871SOL     OW83509  12.645   4.855   9.086
93871SOL    HW183510  12.597   4.776   9.112
93871SOL    HW283511  12.715   4.823   9.029
93872SOL     OW83512   0.938   8.380   0.626
93872SOL    HW183513   0.989   8.355   0.703
93872SOL    HW283514   0.886   8.455   0.655
93873SOL     OW83515  10.047  14.106  13.567
93873SOL    HW183516  10.001  14.062  13.639
93873SOL    HW283517  10.085  14.184  13.606
93874SOL     OW83518   1.730   4.566   9.349
93874SOL    HW183519   1.807   4.570   9.406
93874SOL    HW283520   1.757   4.612   9.269
93875SOL     OW83521  13.193   8.866  11.991
93875SOL    HW183522  13.120   8.828  12.041
93875SOL    HW283523  13.201   8.811  11.914
93876SOL     OW83524   8.608  13.817   7.798
93876SOL    HW183525   8.697  13.810   7.766
93876SOL    HW283526   8.607  13.897   7.851
93877SOL     OW83527  10.464   2.893   3.150
93877SOL    HW183528  10.535   2.898   3.086
93877SOL    HW283529  10.454   2.800   3.169
93878SOL     OW83530  10.577  10.892  11.994
93878SOL    HW183531  10.566  10.958  12.063
93878SOL    HW283532  10.660  10.849  12.014
93879SOL     OW83533  13.769   9.282   9.944
93879SOL    HW183534  13.814   9.217   9.891
93879SOL    HW283535  13.796   9.366   9.908
93880SOL     OW83536   0.170   9.135   4.767
93880SOL    HW183537   0.101   9.172   4.821
93880SOL    HW283538   0.144   9.154   4.677
93881SOL     OW83539   2.197   4.591   5.991
93881SOL    HW183540   2.123   4.571   6.048
93881SOL    HW283541   2.162   4.578   5.902
93882SOL     OW83542  14.287   6.648  13.497
93882SOL    HW183543  14.364   6.630  13.551
93882SOL    HW283544  14.292   6.584  13.426
93883SOL     OW83545   2.868   8.963  11.128
93883SOL    HW183546   2.940   8.983  11.068
93883SOL    HW283547   2.894   8.880  11.169
93884SOL     OW83548   5.727   0.632   0.188
93884SOL    HW183549   5.687   0.704   0.139
93884SOL    HW283550   5.819   0.634   0.163
93885SOL     OW83551  12.535   0.001   0.466
93885SOL    HW183552  12.525  14.846   0.555
93885SOL    HW283553  12.616   0.051   0.468
93886SOL     OW83554   8.668  14.448   0.602
93886SOL    HW183555   8.639  14.357   0.609
93886SOL    HW283556   8.588  14.500   0.613
93887SOL     OW83557   9.742   4.565  10.276
93887SOL    HW183558   9.825   4.584  10.233
93887SOL    HW283559   9.675   4.588  10.212
93888SOL     OW83560   7.922   6.551   5.024
93888SOL    HW183561   7.834   6.569   4.990
93888SOL    HW283562   7.936   6.617   5.091
93889SOL     OW83563   7.094   8.354  10.948
93889SOL    HW183564   7.120   8.446  10.943
93889SOL    HW283565   7.120   8.317  10.864
93890SOL     OW83566  12.904   6.357  14.126
93890SOL    HW183567  12.820   6.399  14.145
93890SOL    HW283568  12.963   6.389  14.195
93891SOL     OW83569   3.838   7.420   4.597
93891SOL    HW183570   3.929   7.439   4.621
93891SOL    HW283571   3.844   7.379   4.511
93892SOL     OW83572   3.614  11.350   3.203
93892SOL    HW183573   3.663  11.431   3.191
93892SOL    HW283574   3.532  11.377   3.244
93893SOL     OW83575   6.308  14.819   7.998
93893SOL    HW183576   6.344   0.006   8.057
93893SOL    HW283577   6.385  14.773   7.963
93894SOL     OW83578   5.626   1.145   1.083
93894SOL    HW183579   5.629   1.202   1.005
93894SOL    HW283580   5.695   1.081   1.068
93895SOL     OW83581   1.014  11.992   2.032
93895SOL    HW183582   0.933  11.942   2.035
93895SOL    HW283583   1.037  12.008   2.123
93896SOL     OW83584   1.164   8.533  10.198
93896SOL    HW183585   1.100   8.494  10.138
93896SOL    HW283586   1.247   8.492  10.175
93897SOL     OW83587   6.664   2.904   4.609
93897SOL    HW183588   6.593   2.955   4.649
93897SOL    HW283589   6.728   2.892   4.680
93898SOL     OW83590   1.210   1.100   4.333
93898SOL    HW183591   1.166   1.134   4.411
93898SOL    HW283592   1.264   1.173   4.302
93899SOL     OW83593   9.016   4.235   3.576
93899SOL    HW183594   9.069   4.193   3.508
93899SOL    HW283595   9.061   4.318   3.594
93900SOL     OW83596  10.914  10.290   5.929
93900SOL    HW183597  10.875  10.256   5.849
93900SOL    HW283598  10.877  10.378   5.938
93901SOL     OW83599   9.103  11.458   5.210
93901SOL    HW183600   9.016  11.419   5.195
93901SOL    HW283601   9.124  11.433   5.300
93902SOL     OW83602  11.419   6.874  11.001
93902SOL    HW183603  11.392   6.956  10.960
93902SOL    HW283604  11.416   6.810  10.930
93903SOL     OW83605  14.592  11.172   1.643
93903SOL    HW183606  14.626  11.237   1.580
93903SOL    HW283607  14.621  11.088   1.608
93904SOL     OW83608   3.283   7.053   3.692
93904SOL    HW183609   3.344   7.076   3.621
93904SOL    HW283610   3.267   7.136   3.737
93905SOL     OW83611   8.553  12.931   2.056
93905SOL    HW183612   8.488  12.997   2.079
93905SOL    HW283613   8.595  12.909   2.139
93906SOL     OW83614   8.069   5.556   9.877
93906SOL    HW183615   7.975   5.566   9.895
93906SOL    HW283616   8.072   5.513   9.791
93907SOL     OW83617   7.304  10.113   4.519
93907SOL    HW183618   7.308  10.204   4.490
93907SOL    HW283619   7.213  10.087   4.503
93908SOL     OW83620   3.942   0.253   7.137
93908SOL    HW183621   3.846   0.258   7.138
93908SOL    HW283622   3.965   0.219   7.223
93909SOL     OW83623  13.296   7.700  11.354
93909SOL    HW183624  13.279   7.612  11.319
93909SOL    HW283625  13.358   7.739  11.291
93910SOL     OW83626   6.495   6.679  12.603
93910SOL    HW183627   6.546   6.621  12.546
93910SOL    HW283628   6.450   6.619  12.664
93911SOL     OW83629   3.566  12.103   5.060
93911SOL    HW183630   3.617  12.094   4.980
93911SOL    HW283631   3.631  12.105   5.130
93912SOL     OW83632   0.474   5.768   5.940
93912SOL    HW183633   0.456   5.695   5.881
93912SOL    HW283634   0.568   5.783   5.933
93913SOL     OW83635   3.527   6.113   2.649
93913SOL    HW183636   3.480   6.075   2.722
93913SOL    HW283637   3.536   6.042   2.586
93914SOL     OW83638   9.544   5.331  12.391
93914SOL    HW183639   9.499   5.263  12.441
93914SOL    HW283640   9.479   5.361  12.327
93915SOL     OW83641  13.771  13.403  11.365
93915SOL    HW183642  13.725  13.426  11.284
93915SOL    HW283643  13.778  13.308  11.361
93916SOL     OW83644  12.595   6.392   3.661
93916SOL    HW183645  12.633   6.450   3.594
93916SOL    HW283646  12.575   6.312   3.613
93917SOL     OW83647   4.721   0.733   1.642
93917SOL    HW183648   4.627   0.737   1.660
93917SOL    HW283649   4.729   0.676   1.566
93918SOL     OW83650  12.642   3.132   8.330
93918SOL    HW183651  12.638   3.224   8.355
93918SOL    HW283652  12.706   3.129   8.258
93919SOL     OW83653  10.377  11.847  10.561
93919SOL    HW183654  10.352  11.792  10.636
93919SOL    HW283655  10.294  11.863  10.515
93920SOL     OW83656  10.995   8.670   3.619
93920SOL    HW183657  11.084   8.693   3.595
93920SOL    HW283658  10.944   8.679   3.538
93921SOL     OW83659   3.835   8.210   9.650
93921SOL    HW183660   3.843   8.303   9.629
93921SOL    HW283661   3.913   8.190   9.701
93922SOL     OW83662   5.074  12.370   6.630
93922SOL    HW183663   5.169  12.372   6.617
93922SOL    HW283664   5.061  12.305   6.699
93923SOL     OW83665   2.686   2.073  10.760
93923SOL    HW183666   2.698   2.109  10.848
93923SOL    HW283667   2.734   1.990  10.761
93924SOL     OW83668  14.229  10.905   6.104
93924SOL    HW183669  14.167  10.857   6.160
93924SOL    HW283670  14.199  10.886   6.015
93925SOL     OW83671   1.415   6.590   0.774
93925SOL    HW183672   1.401   6.581   0.868
93925SOL    HW283673   1.444   6.681   0.764
93926SOL     OW83674   3.654  10.010  14.527
93926SOL    HW183675   3.651  10.076  14.458
93926SOL    HW283676   3.607  10.050  14.600
93927SOL     OW83677  14.259   4.433   7.298
93927SOL    HW183678  14.169   4.465   7.303
93927SOL    HW283679  14.313   4.512   7.299
93928SOL     OW83680   5.274   9.466   0.338
93928SOL    HW183681   5.272   9.528   0.265
93928SOL    HW283682   5.217   9.506   0.405
93929SOL     OW83683   6.627   8.211   9.049
93929SOL    HW183684   6.711   8.229   9.008
93929SOL    HW283685   6.646   8.208   9.143
93930SOL     OW83686   2.986   7.056  14.619
93930SOL    HW183687   2.902   7.100  14.603
93930SOL    HW283688   2.983   6.978  14.564
93931SOL     OW83689   3.488   8.663   1.110
93931SOL    HW183690   3.448   8.647   1.025
93931SOL    HW283691   3.419   8.642   1.174
93932SOL     OW83692   1.755   0.348   4.869
93932SOL    HW183693   1.667   0.313   4.886
93932SOL    HW283694   1.755   0.434   4.911
93933SOL     OW83695   6.095   8.094   7.000
93933SOL    HW183696   6.189   8.103   7.016
93933SOL    HW283697   6.062   8.051   7.079
93934SOL     OW83698   6.013  10.587   0.961
93934SOL    HW183699   5.989  10.495   0.946
93934SOL    HW283700   5.948  10.637   0.912
93935SOL     OW83701   0.275   3.383   9.497
93935SOL    HW183702   0.234   3.301   9.469
93935SOL    HW283703   0.251   3.446   9.430
93936SOL     OW83704   1.429  14.102  12.647
93936SOL    HW183705   1.360  14.064  12.594
93936SOL    HW283706   1.508  14.054  12.623
93937SOL     OW83707  10.947   3.690   2.168
93937SOL    HW183708  11.011   3.750   2.207
93937SOL    HW283709  10.992   3.652   2.092
93938SOL     OW83710  14.522   4.958  11.064
93938SOL    HW183711  14.613   4.942  11.088
93938SOL    HW283712  14.518   5.053  11.048
93939SOL     OW83713   0.671   2.105   1.194
93939SOL    HW183714   0.680   2.021   1.150
93939SOL    HW283715   0.667   2.169   1.123
93940SOL     OW83716  12.187  12.961   6.717
93940SOL    HW183717  12.098  12.925   6.721
93940SOL    HW283718  12.242  12.886   6.697
93941SOL     OW83719   1.866  13.895   2.641
93941SOL    HW183720   1.807  13.902   2.717
93941SOL    HW283721   1.914  13.813   2.656
93942SOL     OW83722  10.652   7.958   9.500
93942SOL    HW183723  10.654   7.931   9.592
93942SOL    HW283724  10.726   7.913   9.460
93943SOL     OW83725  11.861  11.706   4.753
93943SOL    HW183726  11.942  11.713   4.703
93943SOL    HW283727  11.821  11.624   4.724
93944SOL     OW83728  14.802  13.318   1.095
93944SOL    HW183729  14.797  13.289   1.004
93944SOL    HW283730  14.743  13.393   1.100
93945SOL     OW83731  14.151   8.989   6.302
93945SOL    HW183732  14.194   9.060   6.350
93945SOL    HW283733  14.221   8.949   6.251
93946SOL     OW83734   1.664  12.939   1.153
93946SOL    HW183735   1.626  12.997   1.087
93946SOL    HW283736   1.589  12.911   1.206
93947SOL     OW83737   8.440   1.383  14.725
93947SOL    HW183738   8.354   1.368  14.764
93947SOL    HW283739   8.435   1.341  14.639
93948SOL     OW83740  13.722   4.416  12.942
93948SOL    HW183741  13.665   4.469  12.887
93948SOL    HW283742  13.680   4.415  13.027
93949SOL     OW83743   5.854   8.132   6.684
93949SOL    HW183744   5.877   8.196   6.751
93949SOL    HW283745   5.765   8.105   6.708
93950SOL     OW83746   8.232   2.905   0.026
93950SOL    HW183747   8.194   2.914   0.113
93950SOL    HW283748   8.290   2.829   0.032
93951SOL     OW83749   6.364   1.659  10.991
93951SOL    HW183750   6.346   1.751  10.971
93951SOL    HW283751   6.279   1.623  11.015
93952SOL     OW83752   5.863   6.816   9.134
93952SOL    HW183753   5.934   6.755   9.155
93952SOL    HW283754   5.783   6.770   9.159
93953SOL     OW83755  12.954  13.455   9.618
93953SOL    HW183756  12.906  13.434   9.698
93953SOL    HW283757  12.953  13.373   9.568
93954SOL     OW83758   2.421   3.716   0.101
93954SOL    HW183759   2.361   3.696   0.173
93954SOL    HW283760   2.364   3.733   0.026
93955SOL     OW83761   9.726  10.406   8.589
93955SOL    HW183762   9.703  10.462   8.663
93955SOL    HW283763   9.812  10.372   8.611
93956SOL     OW83764   7.645   5.203  12.694
93956SOL    HW183765   7.561   5.167  12.725
93956SOL    HW283766   7.622   5.289  12.661
93957SOL     OW83767   4.191  13.830   8.916
93957SOL    HW183768   4.260  13.827   8.981
93957SOL    HW283769   4.161  13.921   8.916
93958SOL     OW83770   6.061   1.981   1.421
93958SOL    HW183771   6.129   1.940   1.474
93958SOL    HW283772   6.080   1.953   1.332
93959SOL     OW83773  14.113   3.944   2.089
93959SOL    HW183774  14.077   4.014   2.144
93959SOL    HW283775  14.038   3.889   2.068
93960SOL     OW83776  11.277   4.369   8.513
93960SOL    HW183777  11.299   4.421   8.436
93960SOL    HW283778  11.251   4.284   8.477
93961SOL     OW83779   4.357   0.203   2.856
93961SOL    HW183780   4.413   0.125   2.863
93961SOL    HW283781   4.281   0.174   2.806
93962SOL     OW83782   5.098  14.084   2.954
93962SOL    HW183783   5.077  13.994   2.977
93962SOL    HW283784   5.066  14.095   2.864
93963SOL     OW83785   7.162  14.223   7.271
93963SOL    HW183786   7.118  14.301   7.305
93963SOL    HW283787   7.252  14.231   7.303
93964SOL     OW83788  10.560   0.718  14.045
93964SOL    HW183789  10.467   0.735  14.028
93964SOL    HW283790  10.564   0.625  14.068
93965SOL     OW83791   6.936   4.622  13.095
93965SOL    HW183792   6.842   4.638  13.106
93965SOL    HW283793   6.978   4.699  13.131
93966SOL     OW83794  14.429   2.845   8.817
93966SOL    HW183795  14.372   2.771   8.796
93966SOL    HW283796  14.410   2.910   8.749
93967SOL     OW83797  13.234   2.026   4.212
93967SOL    HW183798  13.259   2.101   4.266
93967SOL    HW283799  13.313   2.006   4.162
93968SOL     OW83800  11.499   3.809   0.623
93968SOL    HW183801  11.484   3.880   0.686
93968SOL    HW283802  11.489   3.851   0.537
93969SOL     OW83803   8.888   0.246   6.596
93969SOL    HW183804   8.894   0.155   6.625
93969SOL    HW283805   8.869   0.240   6.502
93970SOL     OW83806   6.220   3.559  13.648
93970SOL    HW183807   6.314   3.551  13.665
93970SOL    HW283808   6.208   3.517  13.562
93971SOL     OW83809  12.392   7.770   8.924
93971SOL    HW183810  12.387   7.676   8.941
93971SOL    HW283811  12.342   7.810   8.996
93972SOL     OW83812   5.118  10.203  11.447
93972SOL    HW183813   5.031  10.238  11.464
93972SOL    HW283814   5.162  10.270  11.395
93973SOL     OW83815   4.074  12.212   3.877
93973SOL    HW183816   4.165  12.222   3.851
93973SOL    HW283817   4.031  12.291   3.845
93974SOL     OW83818  14.518  11.185  14.454
93974SOL    HW183819  14.513  11.189  14.549
93974SOL    HW283820  14.505  11.276  14.426
93975SOL     OW83821   2.444  14.290   6.346
93975SOL    HW183822   2.470  14.254   6.261
93975SOL    HW283823   2.360  14.332   6.329
93976SOL     OW83824  13.244  12.857   9.816
93976SOL    HW183825  13.302  12.816   9.753
93976SOL    HW283826  13.158  12.817   9.800
93977SOL     OW83827   4.893   3.013   1.776
93977SOL    HW183828   4.867   2.951   1.708
93977SOL    HW283829   4.898   2.961   1.856
93978SOL     OW83830   9.146  12.430  10.645
93978SOL    HW183831   9.240  12.440  10.628
93978SOL    HW283832   9.125  12.343  10.613
93979SOL     OW83833   9.743   4.352   5.713
93979SOL    HW183834   9.826   4.313   5.687
93979SOL    HW283835   9.767   4.417   5.780
93980SOL     OW83836   6.415   0.489   1.789
93980SOL    HW183837   6.456   0.442   1.862
93980SOL    HW283838   6.485   0.498   1.725
93981SOL     OW83839   6.106   4.031  11.577
93981SOL    HW183840   6.068   3.944  11.587
93981SOL    HW283841   6.103   4.048  11.483
93982SOL     OW83842  10.241   8.976   4.627
93982SOL    HW183843  10.199   8.893   4.651
93982SOL    HW283844  10.276   8.960   4.539
93983SOL     OW83845   7.959   0.355   5.455
93983SOL    HW183846   8.004   0.430   5.416
93983SOL    HW283847   7.961   0.287   5.387
93984SOL     OW83848  10.917   3.307  14.500
93984SOL    HW183849  10.952   3.376  14.555
93984SOL    HW283850  10.994   3.266  14.461
93985SOL     OW83851  14.453  11.560   2.810
93985SOL    HW183852  14.445  11.613   2.731
93985SOL    HW283853  14.401  11.607   2.875
93986SOL     OW83854   1.473   2.948   1.372
93986SOL    HW183855   1.409   2.895   1.420
93986SOL    HW283856   1.520   2.995   1.440
93987SOL     OW83857   5.027   0.868  12.826
93987SOL    HW183858   5.015   0.807  12.754
93987SOL    HW283859   5.108   0.841  12.868
93988SOL     OW83860   8.374  10.276   8.372
93988SOL    HW183861   8.377  10.318   8.286
93988SOL    HW283862   8.349  10.346   8.432
93989SOL     OW83863   0.492   3.275   0.468
93989SOL    HW183864   0.451   3.276   0.381
93989SOL    HW283865   0.430   3.322   0.524
93990SOL     OW83866  12.676   4.766   4.259
93990SOL    HW183867  12.666   4.860   4.268
93990SOL    HW283868  12.749   4.755   4.198
93991SOL     OW83869   7.190   0.059   2.428
93991SOL    HW183870   7.105   0.080   2.390
93991SOL    HW283871   7.223   0.143   2.461
93992SOL     OW83872   0.267   5.738  12.727
93992SOL    HW183873   0.211   5.743  12.649
93992SOL    HW283874   0.236   5.660  12.773
93993SOL     OW83875   5.466   9.027   8.431
93993SOL    HW183876   5.429   9.101   8.480
93993SOL    HW283877   5.479   8.960   8.498
93994SOL     OW83878   8.440   9.659  12.604
93994SOL    HW183879   8.495   9.643  12.681
93994SOL    HW283880   8.365   9.601  12.616
93995SOL     OW83881   7.183   1.249  12.536
93995SOL    HW183882   7.162   1.334  12.498
93995SOL    HW283883   7.172   1.187  12.464
93996SOL     OW83884  11.437   0.952  13.429
93996SOL    HW183885  11.385   1.013  13.482
93996SOL    HW283886  11.507   1.006  13.392
93997SOL     OW83887   5.260   3.855  13.641
93997SOL    HW183888   5.255   3.921  13.572
93997SOL    HW283889   5.230   3.774  13.599
93998SOL     OW83890   2.504   8.332   5.542
93998SOL    HW183891   2.448   8.254   5.545
93998SOL    HW283892   2.463   8.393   5.603
93999SOL     OW83893   7.776   6.440  13.657
93999SOL    HW183894   7.771   6.389  13.576
93999SOL    HW283895   7.807   6.377  13.722
94000SOL     OW83896   4.929   9.022  11.531
94000SOL    HW183897   4.901   8.987  11.615
94000SOL    HW283898   4.875   8.977  11.466
94001SOL     OW83899   8.632   5.199   6.419
94001SOL    HW183900   8.579   5.278   6.415
94001SOL    HW283901   8.702   5.213   6.355
94002SOL     OW83902   0.687  13.339   1.411
94002SOL    HW183903   0.710  13.264   1.465
94002SOL    HW283904   0.600  13.365   1.441
94003SOL     OW83905  11.036   2.592  14.555
94003SOL    HW183906  11.120   2.628  14.527
94003SOL    HW283907  11.055   2.546  14.637
94004SOL     OW83908   4.423   2.607  13.831
94004SOL    HW183909   4.347   2.638  13.782
94004SOL    HW283910   4.470   2.551  13.769
94005SOL     OW83911   4.294   4.852  13.919
94005SOL    HW183912   4.388   4.833  13.914
94005SOL    HW283913   4.290   4.943  13.948
94006SOL     OW83914  10.862   2.873   2.666
94006SOL    HW183915  10.818   2.801   2.620
94006SOL    HW283916  10.854   2.948   2.608
94007SOL     OW83917   9.387   5.221   1.203
94007SOL    HW183918   9.410   5.204   1.294
94007SOL    HW283919   9.320   5.155   1.182
94008SOL     OW83920   6.805   3.614   4.573
94008SOL    HW183921   6.735   3.550   4.586
94008SOL    HW283922   6.806   3.628   4.478
94009SOL     OW83923   6.961  14.172   9.394
94009SOL    HW183924   6.938  14.256   9.435
94009SOL    HW283925   6.878  14.125   9.387
94010SOL     OW83926   0.298   1.654   3.236
94010SOL    HW183927   0.366   1.624   3.175
94010SOL    HW283928   0.233   1.584   3.235
94011SOL     OW83929   1.828  11.359   6.776
94011SOL    HW183930   1.913  11.319   6.763
94011SOL    HW283931   1.846  11.453   6.783
94012SOL     OW83932  14.161   4.598   0.725
94012SOL    HW183933  14.235   4.562   0.774
94012SOL    HW283934  14.090   4.535   0.738
94013SOL     OW83935  10.827  13.521  11.746
94013SOL    HW183936  10.778  13.505  11.827
94013SOL    HW283937  10.881  13.443  11.734
94014SOL     OW83938   7.540  13.494   0.473
94014SOL    HW183939   7.545  13.427   0.542
94014SOL    HW283940   7.538  13.577   0.521
94015SOL     OW83941   6.928  14.827   9.794
94015SOL    HW183942   6.878  14.751   9.763
94015SOL    HW283943   6.993  14.842   9.726
94016SOL     OW83944   1.249   2.740  12.223
94016SOL    HW183945   1.284   2.778  12.304
94016SOL    HW283946   1.235   2.815  12.165
94017SOL     OW83947   8.089   5.446   2.786
94017SOL    HW183948   8.030   5.519   2.807
94017SOL    HW283949   8.078   5.433   2.692
94018SOL     OW83950   5.761   7.994   4.752
94018SOL    HW183951   5.685   8.038   4.715
94018SOL    HW283952   5.737   7.902   4.756
94019SOL     OW83953   2.122   0.820  11.134
94019SOL    HW183954   2.167   0.761  11.195
94019SOL    HW283955   2.161   0.800  11.048
94020SOL     OW83956  12.147   4.253  13.967
94020SOL    HW183957  12.173   4.206  13.888
94020SOL    HW283958  12.195   4.335  13.963
94021SOL     OW83959   9.661   4.081   8.934
94021SOL    HW183960   9.658   4.175   8.950
94021SOL    HW283961   9.576   4.049   8.965
94022SOL     OW83962  14.261   8.977   1.207
94022SOL    HW183963  14.347   8.966   1.247
94022SOL    HW283964  14.278   9.023   1.126
94023SOL     OW83965   1.916   6.372  13.904
94023SOL    HW183966   2.007   6.356  13.878
94023SOL    HW283967   1.923   6.426  13.982
94024SOL     OW83968   7.885  11.576   3.562
94024SOL    HW183969   7.906  11.491   3.525
94024SOL    HW283970   7.955  11.634   3.532
94025SOL     OW83971   5.975   5.087  13.985
94025SOL    HW183972   5.991   5.001  13.947
94025SOL    HW283973   5.897   5.075  14.040
94026SOL     OW83974   3.255   8.665   6.204
94026SOL    HW183975   3.259   8.597   6.136
94026SOL    HW283976   3.312   8.633   6.274
94027SOL     OW83977   5.297   1.892   6.706
94027SOL    HW183978   5.320   1.841   6.783
94027SOL    HW283979   5.226   1.843   6.665
94028SOL     OW83980   2.529  11.951   1.085
94028SOL    HW183981   2.501  11.859   1.087
94028SOL    HW283982   2.518  11.977   0.994
94029SOL     OW83983  10.914   8.097   2.575
94029SOL    HW183984  10.873   8.153   2.509
94029SOL    HW283985  10.876   8.126   2.658
94030SOL     OW83986  14.193   7.967   6.748
94030SOL    HW183987  14.105   7.932   6.739
94030SOL    HW283988  14.239   7.936   6.670
94031SOL     OW83989   1.174   9.096  10.618
94031SOL    HW183990   1.253   9.141  10.585
94031SOL    HW283991   1.170   9.121  10.710
94032SOL     OW83992   3.361   0.643   1.210
94032SOL    HW183993   3.368   0.560   1.163
94032SOL    HW283994   3.421   0.702   1.164
94033SOL     OW83995   1.573   4.738   4.585
94033SOL    HW183996   1.650   4.796   4.593
94033SOL    HW283997   1.519   4.760   4.661
94034SOL     OW83998   0.751   2.738   5.166
94034SOL    HW183999   0.724   2.671   5.103
94034SOL    HW284000   0.792   2.806   5.113
94035SOL     OW84001  11.325   4.548  10.236
94035SOL    HW184002  11.311   4.460  10.202
94035SOL    HW284003  11.326   4.605  10.159
94036SOL     OW84004  12.487   1.181   0.424
94036SOL    HW184005  12.407   1.134   0.450
94036SOL    HW284006  12.481   1.265   0.469
94037SOL     OW84007   4.091   9.855  10.828
94037SOL    HW184008   4.096   9.836  10.922
94037SOL    HW284009   3.997   9.850  10.808
94038SOL     OW84010  12.380  12.002   5.357
94038SOL    HW184011  12.314  12.045   5.411
94038SOL    HW284012  12.427  11.945   5.418
94039SOL     OW84013   6.752  13.456   7.423
94039SOL    HW184014   6.755  13.481   7.331
94039SOL    HW284015   6.697  13.523   7.464
94040SOL     OW84016   4.774   6.808  14.547
94040SOL    HW184017   4.862   6.772  14.550
94040SOL    HW284018   4.785   6.897  14.513
94041SOL     OW84019   6.065   6.665  11.709
94041SOL    HW184020   6.099   6.718  11.781
94041SOL    HW284021   5.993   6.716  11.673
94042SOL     OW84022   5.959   6.887   3.135
94042SOL    HW184023   6.050   6.879   3.107
94042SOL    HW284024   5.928   6.967   3.093
94043SOL     OW84025   1.365  12.728   6.718
94043SOL    HW184026   1.376  12.639   6.752
94043SOL    HW284027   1.437  12.777   6.759
94044SOL     OW84028   1.487   9.461  10.577
94044SOL    HW184029   1.504   9.489  10.667
94044SOL    HW284030   1.433   9.531  10.539
94045SOL     OW84031   1.497   4.194  11.077
94045SOL    HW184032   1.497   4.270  11.018
94045SOL    HW284033   1.510   4.119  11.019
94046SOL     OW84034  11.264   5.273   8.598
94046SOL    HW184035  11.347   5.304   8.633
94046SOL    HW284036  11.209   5.351   8.594
94047SOL     OW84037   2.231   7.463   3.341
94047SOL    HW184038   2.230   7.436   3.433
94047SOL    HW284039   2.169   7.403   3.298
94048SOL     OW84040   3.244  11.754   9.966
94048SOL    HW184041   3.270  11.696  10.038
94048SOL    HW284042   3.326  11.774   9.920
94049SOL     OW84043   6.226   1.892   1.940
94049SOL    HW184044   6.169   1.874   2.015
94049SOL    HW284045   6.236   1.987   1.939
94050SOL     OW84046  10.234   8.572   6.272
94050SOL    HW184047  10.144   8.574   6.304
94050SOL    HW284048  10.276   8.501   6.321
94051SOL     OW84049   5.523  12.140  11.020
94051SOL    HW184050   5.592  12.114  11.082
94051SOL    HW284051   5.461  12.190  11.073
94052SOL     OW84052  14.226  10.606   6.387
94052SOL    HW184053  14.144  10.601   6.338
94052SOL    HW284054  14.227  10.695   6.423
94053SOL     OW84055   3.650   5.406   5.649
94053SOL    HW184056   3.737   5.382   5.618
94053SOL    HW284057   3.590   5.353   5.596
94054SOL     OW84058   8.679  12.915   1.823
94054SOL    HW184059   8.607  12.925   1.761
94054SOL    HW284060   8.639  12.929   1.909
94055SOL     OW84061  13.500   0.470   7.204
94055SOL    HW184062  13.589   0.505   7.197
94055SOL    HW284063  13.465   0.510   7.284
94056SOL     OW84064   3.159   4.668  12.906
94056SOL    HW184065   3.090   4.700  12.964
94056SOL    HW284066   3.134   4.702  12.819
94057SOL     OW84067   2.553   6.598   5.334
94057SOL    HW184068   2.643   6.621   5.315
94057SOL    HW284069   2.551   6.502   5.329
94058SOL     OW84070  13.918  12.220  12.519
94058SOL    HW184071  14.001  12.222  12.565
94058SOL    HW284072  13.916  12.133  12.478
94059SOL     OW84073  10.427  10.207   2.229
94059SOL    HW184074  10.396  10.222   2.318
94059SOL    HW284075  10.521  10.195   2.237
94060SOL     OW84076   7.559   3.496  11.405
94060SOL    HW184077   7.651   3.510  11.385
94060SOL    HW284078   7.526   3.583  11.429
94061SOL     OW84079   1.860  11.992  11.788
94061SOL    HW184080   1.900  12.065  11.836
94061SOL    HW284081   1.897  11.914  11.829
94062SOL     OW84082   0.319   2.417   3.384
94062SOL    HW184083   0.243   2.444   3.434
94062SOL    HW284084   0.393   2.457   3.429
94063SOL     OW84085   5.264   8.113   6.385
94063SOL    HW184086   5.296   8.041   6.330
94063SOL    HW284087   5.231   8.071   6.464
94064SOL     OW84088   9.331   6.095   9.673
94064SOL    HW184089   9.368   6.135   9.593
94064SOL    HW284090   9.271   6.028   9.640
94065SOL     OW84091  12.453   6.056   1.125
94065SOL    HW184092  12.407   6.000   1.061
94065SOL    HW284093  12.505   6.115   1.071
94066SOL     OW84094  10.430   6.532  12.453
94066SOL    HW184095  10.434   6.576  12.368
94066SOL    HW284096  10.459   6.442  12.435
94067SOL     OW84097   0.449   8.960   9.692
94067SOL    HW184098   0.431   8.866   9.689
94067SOL    HW284099   0.388   8.994   9.757
94068SOL     OW84100   1.976  12.711   2.261
94068SOL    HW184101   1.918  12.785   2.278
94068SOL    HW284102   1.948  12.679   2.175
94069SOL     OW84103   6.746   3.988   5.837
94069SOL    HW184104   6.674   3.925   5.828
94069SOL    HW284105   6.738   4.020   5.927
94070SOL     OW84106  10.345   1.892   6.629
94070SOL    HW184107  10.343   1.947   6.707
94070SOL    HW284108  10.260   1.849   6.627
94071SOL     OW84109   4.894   3.393   3.291
94071SOL    HW184110   4.817   3.425   3.244
94071SOL    HW284111   4.934   3.330   3.231
94072SOL     OW84112   4.615   4.686   9.283
94072SOL    HW184113   4.588   4.678   9.375
94072SOL    HW284114   4.703   4.724   9.287
94073SOL     OW84115   1.446   6.503  11.034
94073SOL    HW184116   1.406   6.485  10.949
94073SOL    HW284117   1.485   6.420  11.060
94074SOL     OW84118  13.870  11.063   3.008
94074SOL    HW184119  13.808  11.095   2.943
94074SOL    HW284120  13.816  11.018   3.073
94075SOL     OW84121   0.979   6.703   2.547
94075SOL    HW184122   0.950   6.621   2.507
94075SOL    HW284123   1.034   6.745   2.480
94076SOL     OW84124  10.083  12.374   3.267
94076SOL    HW184125  10.053  12.414   3.348
94076SOL    HW284126  10.170  12.338   3.288
94077SOL     OW84127   1.053   0.475   8.354
94077SOL    HW184128   1.068   0.415   8.281
94077SOL    HW284129   0.986   0.535   8.322
94078SOL     OW84130   7.024   7.236   7.433
94078SOL    HW184131   6.952   7.222   7.495
94078SOL    HW284132   7.036   7.331   7.433
94079SOL     OW84133   4.422   9.863   6.632
94079SOL    HW184134   4.380   9.949   6.622
94079SOL    HW284135   4.462   9.866   6.719
94080SOL     OW84136  14.616   2.187  14.849
94080SOL    HW184137  14.660   2.256  14.799
94080SOL    HW284138  14.653   2.194   0.057
94081SOL     OW84139   7.591  14.124   6.669
94081SOL    HW184140   7.571  14.054   6.606
94081SOL    HW284141   7.604  14.202   6.615
94082SOL     OW84142  12.457   8.069  13.194
94082SOL    HW184143  12.419   8.156  13.180
94082SOL    HW284144  12.395   8.025  13.252
94083SOL     OW84145   8.499  10.517   4.883
94083SOL    HW184146   8.441  10.446   4.911
94083SOL    HW284147   8.571  10.473   4.838
94084SOL     OW84148   6.042   4.255   7.003
94084SOL    HW184149   6.041   4.316   6.929
94084SOL    HW284150   6.075   4.307   7.076
94085SOL     OW84151  12.831   2.103  14.753
94085SOL    HW184152  12.835   2.044  14.679
94085SOL    HW284153  12.923   2.117  14.777
94086SOL     OW84154   7.544  12.636  10.354
94086SOL    HW184155   7.559  12.665  10.444
94086SOL    HW284156   7.626  12.654  10.308
94087SOL     OW84157  14.224   8.445   3.668
94087SOL    HW184158  14.240   8.452   3.762
94087SOL    HW284159  14.299   8.396   3.634
94088SOL     OW84160   7.966  14.854   7.301
94088SOL    HW184161   7.936  14.816   7.218
94088SOL    HW284162   7.975   0.068   7.282
94089SOL     OW84163   4.267   9.165  12.802
94089SOL    HW184164   4.236   9.130  12.885
94089SOL    HW284165   4.272   9.089  12.744
94090SOL     OW84166   8.593   7.139  11.642
94090SOL    HW184167   8.591   7.088  11.724
94090SOL    HW284168   8.550   7.082  11.578
94091SOL     OW84169  13.993  12.616  11.723
94091SOL    HW184170  14.031  12.700  11.750
94091SOL    HW284171  14.062  12.552  11.737
94092SOL     OW84172  11.673   5.124  12.338
94092SOL    HW184173  11.632   5.203  12.304
94092SOL    HW284174  11.720   5.088  12.263
94093SOL     OW84175  14.432   6.566  14.753
94093SOL    HW184176  14.404   6.657  14.747
94093SOL    HW284177  14.487   6.563  14.831
94094SOL     OW84178  14.391  12.988  12.547
94094SOL    HW184179  14.367  12.970  12.456
94094SOL    HW284180  14.457  12.921  12.568
94095SOL     OW84181   4.367   5.871   3.231
94095SOL    HW184182   4.431   5.849   3.163
94095SOL    HW284183   4.302   5.800   3.227
94096SOL     OW84184  13.035  10.828   1.816
94096SOL    HW184185  13.083  10.900   1.775
94096SOL    HW284186  13.100  10.758   1.825
94097SOL     OW84187  11.570  14.479  12.193
94097SOL    HW184188  11.620  14.398  12.189
94097SOL    HW284189  11.494  14.463  12.137
94098SOL     OW84190   6.790  11.915   7.903
94098SOL    HW184191   6.699  11.886   7.901
94098SOL    HW284192   6.799  11.963   7.985
94099SOL     OW84193   0.197  10.286   3.526
94099SOL    HW184194   0.202  10.216   3.461
94099SOL    HW284195   0.139  10.352   3.487
94100SOL     OW84196   2.831   9.302  12.007
94100SOL    HW184197   2.788   9.280  11.924
94100SOL    HW284198   2.806   9.393  12.023
94101SOL     OW84199   4.725   2.036  14.329
94101SOL    HW184200   4.760   2.099  14.392
94101SOL    HW284201   4.645   2.004  14.369
94102SOL     OW84202   4.590   4.960   2.664
94102SOL    HW184203   4.582   5.055   2.671
94102SOL    HW284204   4.661   4.938   2.725
94103SOL     OW84205   5.468   7.055   6.305
94103SOL    HW184206   5.504   6.967   6.296
94103SOL    HW284207   5.402   7.047   6.374
94104SOL     OW84208   5.661  12.980   2.700
94104SOL    HW184209   5.664  12.899   2.750
94104SOL    HW284210   5.745  13.022   2.716
94105SOL     OW84211  10.111   6.174   2.313
94105SOL    HW184212  10.152   6.220   2.239
94105SOL    HW284213  10.020   6.162   2.286
94106SOL     OW84214   0.993   5.131  10.232
94106SOL    HW184215   1.039   5.215  10.236
94106SOL    HW284216   1.061   5.068  10.211
94107SOL     OW84217   2.704  12.487  14.614
94107SOL    HW184218   2.710  12.392  14.612
94107SOL    HW284219   2.632  12.508  14.555
94108SOL     OW84220   2.050   6.324  10.925
94108SOL    HW184221   2.126   6.339  10.981
94108SOL    HW284222   2.069   6.374  10.845
94109SOL     OW84223   5.930   3.226   1.786
94109SOL    HW184224   5.897   3.292   1.725
94109SOL    HW284225   6.025   3.237   1.783
94110SOL     OW84226   4.338   1.251  11.607
94110SOL    HW184227   4.398   1.301  11.662
94110SOL    HW284228   4.281   1.317  11.567
94111SOL     OW84229   3.665   9.813   1.650
94111SOL    HW184230   3.704   9.744   1.704
94111SOL    HW284231   3.652   9.886   1.710
94112SOL     OW84232   0.664   4.261   3.965
94112SOL    HW184233   0.648   4.205   3.889
94112SOL    HW284234   0.733   4.320   3.936
94113SOL     OW84235   7.495   1.032   6.849
94113SOL    HW184236   7.498   0.981   6.768
94113SOL    HW284237   7.559   1.102   6.836
94114SOL     OW84238  11.192  14.389   7.800
94114SOL    HW184239  11.221  14.415   7.712
94114SOL    HW284240  11.234  14.452   7.858
94115SOL     OW84241   0.190  10.313  14.031
94115SOL    HW184242   0.257  10.294  14.096
94115SOL    HW284243   0.211  10.256  13.957
94116SOL     OW84244   9.985   6.212  14.866
94116SOL    HW184245   9.961   6.187  14.777
94116SOL    HW284246   9.983   6.308  14.865
94117SOL     OW84247   7.530   0.366   7.580
94117SOL    HW184248   7.498   0.435   7.638
94117SOL    HW284249   7.606   0.329   7.625
94118SOL     OW84250   0.684   3.705  14.056
94118SOL    HW184251   0.722   3.733  14.139
94118SOL    HW284252   0.693   3.781  13.998
94119SOL     OW84253   6.960   1.075   6.405
94119SOL    HW184254   6.883   1.131   6.417
94119SOL    HW284255   6.924   0.988   6.386
94120SOL     OW84256  14.094   1.304  13.558
94120SOL    HW184257  14.091   1.210  13.545
94120SOL    HW284258  14.055   1.340  13.479
94121SOL     OW84259  13.632  10.895   4.022
94121SOL    HW184260  13.620  10.804   4.049
94121SOL    HW284261  13.725  10.903   4.003
94122SOL     OW84262   1.767   6.119   9.326
94122SOL    HW184263   1.795   6.197   9.278
94122SOL    HW284264   1.848   6.074   9.349
94123SOL     OW84265   2.152   4.528   1.597
94123SOL    HW184266   2.081   4.470   1.623
94123SOL    HW284267   2.186   4.489   1.516
94124SOL     OW84268   8.820   1.648   0.342
94124SOL    HW184269   8.838   1.601   0.261
94124SOL    HW284270   8.733   1.686   0.330
94125SOL     OW84271   5.562   9.120   5.567
94125SOL    HW184272   5.613   9.137   5.646
94125SOL    HW284273   5.478   9.163   5.583
94126SOL     OW84274  11.511   0.954   1.643
94126SOL    HW184275  11.423   0.993   1.639
94126SOL    HW284276  11.495   0.860   1.645
94127SOL     OW84277  11.514   7.699   5.581
94127SOL    HW184278  11.547   7.760   5.646
94127SOL    HW284279  11.472   7.754   5.515
94128SOL     OW84280   7.052   8.090  14.320
94128SOL    HW184281   7.068   8.094  14.226
94128SOL    HW284282   7.133   8.120  14.360
94129SOL     OW84283  11.313   6.407   7.474
94129SOL    HW184284  11.266   6.369   7.548
94129SOL    HW284285  11.363   6.479   7.511
94130SOL     OW84286   0.584   5.916   8.880
94130SOL    HW184287   0.654   5.854   8.860
94130SOL    HW284288   0.506   5.876   8.840
94131SOL     OW84289   2.709   8.102   9.065
94131SOL    HW184290   2.669   8.102   8.977
94131SOL    HW284291   2.745   8.190   9.074
94132SOL     OW84292   0.723   7.865   5.891
94132SOL    HW184293   0.671   7.787   5.873
94132SOL    HW284294   0.755   7.852   5.980
94133SOL     OW84295  12.003  11.176   8.996
94133SOL    HW184296  12.029  11.163   8.905
94133SOL    HW284297  11.909  11.155   8.997
94134SOL     OW84298  10.185   2.176   1.956
94134SOL    HW184299  10.170   2.188   1.863
94134SOL    HW284300  10.259   2.233   1.977
94135SOL     OW84301  11.215  12.879   7.903
94135SOL    HW184302  11.291  12.898   7.958
94135SOL    HW284303  11.171  12.964   7.892
94136SOL     OW84304   0.993   7.733  10.701
94136SOL    HW184305   1.018   7.793  10.772
94136SOL    HW284306   0.965   7.791  10.629
94137SOL     OW84307   3.380   5.769   0.059
94137SOL    HW184308   3.382   5.688   0.109
94137SOL    HW284309   3.397   5.838   0.123
94138SOL     OW84310   0.604   9.234   1.939
94138SOL    HW184311   0.656   9.312   1.960
94138SOL    HW284312   0.517   9.269   1.919
94139SOL     OW84313   6.177   4.456  11.678
94139SOL    HW184314   6.115   4.516  11.719
94139SOL    HW284315   6.122   4.386  11.643
94140SOL     OW84316   9.572  13.492   9.204
94140SOL    HW184317   9.595  13.399   9.211
94140SOL    HW284318   9.641  13.537   9.251
94141SOL     OW84319   9.709  13.954  14.716
94141SOL    HW184320   9.756  14.007  14.652
94141SOL    HW284321   9.775  13.931  14.781
94142SOL     OW84322   9.023  12.150   4.549
94142SOL    HW184323   9.011  12.056   4.561
94142SOL    HW284324   9.090  12.157   4.481
94143SOL     OW84325  14.795   3.607  14.212
94143SOL    HW184326  14.740   3.665  14.265
94143SOL    HW284327  14.850   3.667  14.161
94144SOL     OW84328   4.770   0.959   1.331
94144SOL    HW184329   4.827   0.994   1.262
94144SOL    HW284330   4.831   0.919   1.394
94145SOL     OW84331   4.447  13.310   1.021
94145SOL    HW184332   4.519  13.373   1.022
94145SOL    HW284333   4.409  13.317   1.109
94146SOL     OW84334   8.004   0.794   4.154
94146SOL    HW184335   8.036   0.710   4.121
94146SOL    HW284336   8.002   0.783   4.249
94147SOL     OW84337   0.243  13.224   7.721
94147SOL    HW184338   0.197  13.160   7.775
94147SOL    HW284339   0.182  13.243   7.649
94148SOL     OW84340   8.663   4.332  12.098
94148SOL    HW184341   8.749   4.339  12.057
94148SOL    HW284342   8.680   4.288  12.182
94149SOL     OW84343   0.377   3.645  10.695
94149SOL    HW184344   0.376   3.549  10.694
94149SOL    HW284345   0.426   3.667  10.775
94150SOL     OW84346  10.490   8.685   5.147
94150SOL    HW184347  10.410   8.730   5.175
94150SOL    HW284348  10.460   8.601   5.113
94151SOL     OW84349   9.082  13.950   6.085
94151SOL    HW184350   9.161  13.921   6.130
94151SOL    HW284351   9.099  14.042   6.063
94152SOL     OW84352  10.935  13.489   4.325
94152SOL    HW184353  11.023  13.454   4.333
94152SOL    HW284354  10.929  13.555   4.394
94153SOL     OW84355  13.344  12.174   6.878
94153SOL    HW184356  13.319  12.121   6.802
94153SOL    HW284357  13.415  12.124   6.919
94154SOL     OW84358   5.347   1.141  13.195
94154SOL    HW184359   5.419   1.152  13.257
94154SOL    HW284360   5.368   1.203  13.124
94155SOL     OW84361  13.851  11.450   2.031
94155SOL    HW184362  13.947  11.453   2.028
94155SOL    HW284363  13.825  11.531   2.075
94156SOL     OW84364  10.481  10.031  10.015
94156SOL    HW184365  10.566  10.047   9.975
94156SOL    HW284366  10.448   9.952   9.972
94157SOL     OW84367   3.493   0.917   1.340
94157SOL    HW184368   3.481   0.887   1.250
94157SOL    HW284369   3.466   0.842   1.394
94158SOL     OW84370   7.032   7.461  12.143
94158SOL    HW184371   7.111   7.424  12.104
94158SOL    HW284372   7.047   7.555  12.144
94159SOL     OW84373   1.759   4.115  13.009
94159SOL    HW184374   1.683   4.174  13.008
94159SOL    HW284375   1.726   4.032  12.977
94160SOL     OW84376   2.713  11.924  12.260
94160SOL    HW184377   2.667  12.004  12.235
94160SOL    HW284378   2.806  11.947  12.255
94161SOL     OW84379  10.677   0.757   1.772
94161SOL    HW184380  10.714   0.846   1.763
94161SOL    HW284381  10.685   0.737   1.865
94162SOL     OW84382   3.285   7.831  14.184
94162SOL    HW184383   3.215   7.784  14.140
94162SOL    HW284384   3.319   7.769  14.248
94163SOL     OW84385   9.100   9.417  10.451
94163SOL    HW184386   9.191   9.443  10.437
94163SOL    HW284387   9.074   9.463  10.531
94164SOL     OW84388   1.718  10.349  14.639
94164SOL    HW184389   1.641  10.366  14.693
94164SOL    HW284390   1.692  10.278  14.581
94165SOL     OW84391   4.476   4.790   4.460
94165SOL    HW184392   4.513   4.786   4.372
94165SOL    HW284393   4.507   4.873   4.496
94166SOL     OW84394  12.881   5.819   2.295
94166SOL    HW184395  12.804   5.779   2.334
94166SOL    HW284396  12.939   5.745   2.274
94167SOL     OW84397   0.402   5.737   1.593
94167SOL    HW184398   0.373   5.828   1.600
94167SOL    HW284399   0.479   5.732   1.650
94168SOL     OW84400   8.401   5.373   9.940
94168SOL    HW184401   8.490   5.347   9.916
94168SOL    HW284402   8.362   5.401   9.857
94169SOL     OW84403   4.176   1.271   8.306
94169SOL    HW184404   4.180   1.223   8.223
94169SOL    HW284405   4.145   1.358   8.281
94170SOL     OW84406   0.569   8.495   2.729
94170SOL    HW184407   0.498   8.549   2.694
94170SOL    HW284408   0.527   8.436   2.791
94171SOL     OW84409   9.558   7.660  12.681
94171SOL    HW184410   9.574   7.741  12.729
94171SOL    HW284411   9.642   7.640  12.639
94172SOL     OW84412   9.552  13.106   0.762
94172SOL    HW184413   9.496  13.092   0.685
94172SOL    HW284414   9.542  13.200   0.781
94173SOL     OW84415   2.431  12.027   7.702
94173SOL    HW184416   2.437  12.080   7.782
94173SOL    HW284417   2.379  12.081   7.642
94174SOL     OW84418   1.925   5.568   4.563
94174SOL    HW184419   1.895   5.500   4.625
94174SOL    HW284420   1.936   5.521   4.480
94175SOL     OW84421  14.482   7.915   9.941
94175SOL    HW184422  14.520   7.860   9.873
94175SOL    HW284423  14.552   7.925  10.006
94176SOL     OW84424  14.782   8.022   5.101
94176SOL    HW184425  14.697   7.980   5.117
94176SOL    HW284426  14.813   8.047   5.188
94177SOL     OW84427   2.695   0.266   1.531
94177SOL    HW184428   2.618   0.313   1.563
94177SOL    HW284429   2.732   0.225   1.610
94178SOL     OW84430   9.964   9.097   2.262
94178SOL    HW184431  10.028   9.045   2.213
94178SOL    HW284432   9.985   9.188   2.240
94179SOL     OW84433   6.195   8.771   9.612
94179SOL    HW184434   6.194   8.723   9.529
94179SOL    HW284435   6.141   8.719   9.671
94180SOL     OW84436  10.586   3.300   2.574
94180SOL    HW184437  10.656   3.342   2.524
94180SOL    HW284438  10.597   3.332   2.663
94181SOL     OW84439   2.637  10.547  11.435
94181SOL    HW184440   2.634  10.573  11.527
94181SOL    HW284441   2.567  10.481  11.427
94182SOL     OW84442   6.816  10.902  13.210
94182SOL    HW184443   6.786  10.872  13.296
94182SOL    HW284444   6.907  10.928  13.224
94183SOL     OW84445  11.030   1.422   7.765
94183SOL    HW184446  10.970   1.348   7.756
94183SOL    HW284447  11.045   1.429   7.859
94184SOL     OW84448   4.531  12.859   6.392
94184SOL    HW184449   4.532  12.853   6.488
94184SOL    HW284450   4.495  12.775   6.363
94185SOL     OW84451  13.189   6.271   8.865
94185SOL    HW184452  13.232   6.190   8.893
94185SOL    HW284453  13.220   6.285   8.776
94186SOL     OW84454  14.788   3.143   2.200
94186SOL    HW184455  14.737   3.089   2.260
94186SOL    HW284456  14.837   3.081   2.147
94187SOL     OW84457  10.614   2.438  10.795
94187SOL    HW184458  10.641   2.349  10.817
94187SOL    HW284459  10.541   2.456  10.855
94188SOL     OW84460  11.660   4.117   3.648
94188SOL    HW184461  11.718   4.112   3.723
94188SOL    HW284462  11.613   4.200   3.659
94189SOL     OW84463  10.505   4.089   5.340
94189SOL    HW184464  10.573   4.047   5.393
94189SOL    HW284465  10.539   4.088   5.251
94190SOL     OW84466   6.779   8.347  11.231
94190SOL    HW184467   6.863   8.392  11.242
94190SOL    HW284468   6.730   8.403  11.171
94191SOL     OW84469  11.912  14.716   7.043
94191SOL    HW184470  11.951  14.685   6.961
94191SOL    HW284471  11.842  14.654   7.062
94192SOL     OW84472  12.761   5.802   5.002
94192SOL    HW184473  12.781   5.824   4.911
94192SOL    HW284474  12.846   5.777   5.039
94193SOL     OW84475   9.303   5.156   1.812
94193SOL    HW184476   9.239   5.086   1.797
94193SOL    HW284477   9.316   5.196   1.727
94194SOL     OW84478   3.285   4.673   0.514
94194SOL    HW184479   3.319   4.734   0.578
94194SOL    HW284480   3.305   4.712   0.429
94195SOL     OW84481  14.872   6.871   9.941
94195SOL    HW184482   0.050   6.905  10.010
94195SOL    HW284483  14.833   6.948   9.902
94196SOL     OW84484  13.926   4.750  12.694
94196SOL    HW184485  13.937   4.798  12.612
94196SOL    HW284486  13.836   4.770  12.721
94197SOL     OW84487  13.438   5.057   8.061
94197SOL    HW184488  13.382   5.113   8.007
94197SOL    HW284489  13.417   4.968   8.034
94198SOL     OW84490   7.260  11.154   0.531
94198SOL    HW184491   7.288  11.163   0.440
94198SOL    HW284492   7.234  11.062   0.540
94199SOL     OW84493   1.724  13.652   9.432
94199SOL    HW184494   1.714  13.739   9.394
94199SOL    HW284495   1.724  13.593   9.356
94200SOL     OW84496   6.697   8.063  13.437
94200SOL    HW184497   6.635   8.127  13.473
94200SOL    HW284498   6.647   8.017  13.370
94201SOL     OW84499   5.933   4.187   6.074
94201SOL    HW184500   6.019   4.158   6.104
94201SOL    HW284501   5.915   4.265   6.126
94202SOL     OW84502   1.806  11.870   6.063
94202SOL    HW184503   1.776  11.957   6.036
94202SOL    HW284504   1.887  11.856   6.014
94203SOL     OW84505   9.734  12.889   9.705
94203SOL    HW184506   9.663  12.953   9.703
94203SOL    HW284507   9.737  12.854   9.615
94204SOL     OW84508   6.357   5.763   8.985
94204SOL    HW184509   6.407   5.695   9.030
94204SOL    HW284510   6.418   5.836   8.976
94205SOL     OW84511  14.348   0.850   7.207
94205SOL    HW184512  14.360   0.921   7.143
94205SOL    HW284513  14.433   0.808   7.212
94206SOL     OW84514  13.978  11.342  14.366
94206SOL    HW184515  13.883  11.340  14.381
94206SOL    HW284516  14.001  11.250  14.352
94207SOL     OW84517   9.736   4.797  12.201
94207SOL    HW184518   9.831   4.795  12.190
94207SOL    HW284519   9.722   4.853  12.278
94208SOL     OW84520   0.975  13.178   1.060
94208SOL    HW184521   0.921  13.255   1.046
94208SOL    HW284522   0.973  13.164   1.155
94209SOL     OW84523   6.187   0.443   1.641
94209SOL    HW184524   6.151   0.489   1.566
94209SOL    HW284525   6.254   0.502   1.675
94210SOL     OW84526   9.280  13.210   8.598
94210SOL    HW184527   9.243  13.121   8.597
94210SOL    HW284528   9.374  13.196   8.588
94211SOL     OW84529  10.907   5.885   2.075
94211SOL    HW184530  10.974   5.917   2.136
94211SOL    HW284531  10.825   5.916   2.112
94212SOL     OW84532  12.624  11.439   8.752
94212SOL    HW184533  12.681  11.512   8.777
94212SOL    HW284534  12.569  11.475   8.683
94213SOL     OW84535   1.324   0.047   0.462
94213SOL    HW184536   1.395   0.028   0.401
94213SOL    HW284537   1.325   0.142   0.472
94214SOL     OW84538   6.272  13.493   9.082
94214SOL    HW184539   6.236  13.418   9.130
94214SOL    HW284540   6.332  13.454   9.019
94215SOL     OW84541  12.227  12.317   6.832
94215SOL    HW184542  12.177  12.246   6.873
94215SOL    HW284543  12.160  12.373   6.792
94216SOL     OW84544  12.504   0.406   4.479
94216SOL    HW184545  12.536   0.485   4.524
94216SOL    HW284546  12.410   0.407   4.495
94217SOL     OW84547  11.466   6.054   3.512
94217SOL    HW184548  11.542   6.004   3.542
94217SOL    HW284549  11.392   6.018   3.563
94218SOL     OW84550   4.294   3.362   3.017
94218SOL    HW184551   4.220   3.402   2.971
94218SOL    HW284552   4.285   3.393   3.107
94219SOL     OW84553   3.350  12.667  11.424
94219SOL    HW184554   3.371  12.597  11.362
94219SOL    HW284555   3.420  12.662  11.489
94220SOL     OW84556  12.491  10.006  11.132
94220SOL    HW184557  12.504   9.965  11.046
94220SOL    HW284558  12.457   9.937  11.188
94221SOL     OW84559  11.637  12.343   2.252
94221SOL    HW184560  11.671  12.279   2.315
94221SOL    HW284561  11.698  12.340   2.178
94222SOL     OW84562   8.353   4.820   1.060
94222SOL    HW184563   8.317   4.904   1.031
94222SOL    HW284564   8.426   4.844   1.117
94223SOL     OW84565  12.586   0.728   8.403
94223SOL    HW184566  12.578   0.805   8.346
94223SOL    HW284567  12.665   0.745   8.454
94224SOL     OW84568   8.662   0.123   0.887
94224SOL    HW184569   8.575   0.128   0.846
94224SOL    HW284570   8.719   0.171   0.828
94225SOL     OW84571  11.889  13.762   9.165
94225SOL    HW184572  11.949  13.836   9.162
94225SOL    HW284573  11.945  13.685   9.157
94226SOL     OW84574   2.652   8.084   4.785
94226SOL    HW184575   2.639   7.998   4.745
94226SOL    HW284576   2.644   8.069   4.879
94227SOL     OW84577   5.217   2.716   5.960
94227SOL    HW184578   5.122   2.709   5.970
94227SOL    HW284579   5.252   2.674   6.039
94228SOL     OW84580   0.547  10.123   5.561
94228SOL    HW184581   0.594  10.106   5.643
94228SOL    HW284582   0.459  10.149   5.589
94229SOL     OW84583   4.819   1.616   5.570
94229SOL    HW184584   4.849   1.707   5.578
94229SOL    HW284585   4.724   1.623   5.565
94230SOL     OW84586  11.265   8.700   6.416
94230SOL    HW184587  11.179   8.741   6.402
94230SOL    HW284588  11.262   8.620   6.363
94231SOL     OW84589  14.534   9.774   5.387
94231SOL    HW184590  14.545   9.721   5.308
94231SOL    HW284591  14.457   9.828   5.369
94232SOL     OW84592  13.687  11.490  10.610
94232SOL    HW184593  13.597  11.473  10.581
94232SOL    HW284594  13.679  11.499  10.705
94233SOL     OW84595  12.372   0.401   1.395
94233SOL    HW184596  12.299   0.347   1.366
94233SOL    HW284597  12.438   0.391   1.326
94234SOL     OW84598   7.233   5.766   1.512
94234SOL    HW184599   7.312   5.807   1.477
94234SOL    HW284600   7.208   5.703   1.444
94235SOL     OW84601  11.215   6.312   8.790
94235SOL    HW184602  11.121   6.319   8.807
94235SOL    HW284603  11.235   6.219   8.803
94236SOL     OW84604   1.210  12.372  11.003
94236SOL    HW184605   1.273  12.348  10.935
94236SOL    HW284606   1.131  12.322  10.982
94237SOL     OW84607   3.563   1.578   1.277
94237SOL    HW184608   3.529   1.528   1.203
94237SOL    HW284609   3.523   1.538   1.354
94238SOL     OW84610   4.272  11.671   1.012
94238SOL    HW184611   4.187  11.660   0.970
94238SOL    HW284612   4.288  11.766   1.009
94239SOL     OW84613   2.162  14.763   0.906
94239SOL    HW184614   2.188  14.733   0.819
94239SOL    HW284615   2.067  14.751   0.908
94240SOL     OW84616   2.657  14.130   8.893
94240SOL    HW184617   2.608  14.172   8.823
94240SOL    HW284618   2.591  14.087   8.947
94241SOL     OW84619  12.406  11.144   6.592
94241SOL    HW184620  12.441  11.074   6.648
94241SOL    HW284621  12.313  11.149   6.615
94242SOL     OW84622  14.688  12.170   2.537
94242SOL    HW184623  14.759  12.106   2.531
94242SOL    HW284624  14.706  12.217   2.618
94243SOL     OW84625   8.186   0.091   1.931
94243SOL    HW184626   8.158   0.006   1.897
94243SOL    HW284627   8.273   0.105   1.893
94244SOL     OW84628  11.384  14.873  14.405
94244SOL    HW184629  11.413  14.787  14.376
94244SOL    HW284630  11.464   0.045  14.410
94245SOL     OW84631  12.281  10.973   0.450
94245SOL    HW184632  12.333  11.049   0.424
94245SOL    HW284633  12.206  10.973   0.391
94246SOL     OW84634  12.124   2.214   1.972
94246SOL    HW184635  12.179   2.263   1.910
94246SOL    HW284636  12.168   2.129   1.981
94247SOL     OW84637   8.194  10.962   2.066
94247SOL    HW184638   8.264  10.903   2.037
94247SOL    HW284639   8.185  11.025   1.995
94248SOL     OW84640  11.261   9.282  13.754
94248SOL    HW184641  11.313   9.360  13.736
94248SOL    HW284642  11.251   9.282  13.849
94249SOL     OW84643  14.090   4.169   5.857
94249SOL    HW184644  14.022   4.216   5.810
94249SOL    HW284645  14.052   4.083   5.875
94250SOL     OW84646  13.333   0.400  10.083
94250SOL    HW184647  13.280   0.341  10.030
94250SOL    HW284648  13.289   0.484  10.078
94251SOL     OW84649  10.274  14.652   6.269
94251SOL    HW184650  10.206  14.685   6.326
94251SOL    HW284651  10.356  14.667   6.316
94252SOL     OW84652   8.033  14.072  12.968
94252SOL    HW184653   8.086  13.992  12.961
94252SOL    HW284654   7.962  14.049  13.028
94253SOL     OW84655   2.986   8.330   9.818
94253SOL    HW184656   2.892   8.342   9.813
94253SOL    HW284657   3.012   8.374   9.899
94254SOL     OW84658   0.031   0.974   6.206
94254SOL    HW184659   0.082   1.055   6.210
94254SOL    HW284660  14.820   1.003   6.200
94255SOL     OW84661   3.637   8.447   1.446
94255SOL    HW184662   3.718   8.463   1.399
94255SOL    HW284663   3.598   8.533   1.458
94256SOL     OW84664  13.934   1.584   2.676
94256SOL    HW184665  14.001   1.587   2.608
94256SOL    HW284666  13.878   1.660   2.659
94257SOL     OW84667   6.245   5.223   2.385
94257SOL    HW184668   6.272   5.203   2.475
94257SOL    HW284669   6.296   5.164   2.330
94258SOL     OW84670  12.783   3.152   4.219
94258SOL    HW184671  12.694   3.145   4.251
94258SOL    HW284672  12.802   3.246   4.221
94259SOL     OW84673   4.102   4.026  12.615
94259SOL    HW184674   4.087   4.114  12.582
94259SOL    HW284675   4.158   4.038  12.692
94260SOL     OW84676   4.604   0.678  14.799
94260SOL    HW184677   4.642   0.695   0.006
94260SOL    HW284678   4.623   0.586  14.783
94261SOL     OW84679   8.062   9.491   1.208
94261SOL    HW184680   8.028   9.574   1.241
94261SOL    HW284681   8.046   9.429   1.279
94262SOL     OW84682   5.260  10.771  12.298
94262SOL    HW184683   5.239  10.678  12.305
94262SOL    HW284684   5.344  10.774  12.251
94263SOL     OW84685   6.606  12.194  14.467
94263SOL    HW184686   6.558  12.145  14.399
94263SOL    HW284687   6.624  12.129  14.535
94264SOL     OW84688  13.843   0.855   4.867
94264SOL    HW184689  13.883   0.940   4.848
94264SOL    HW284690  13.774   0.875   4.930
94265SOL     OW84691   3.790  14.610   5.496
94265SOL    HW184692   3.718  14.547   5.488
94265SOL    HW284693   3.860  14.562   5.540
94266SOL     OW84694   2.152  14.569  12.499
94266SOL    HW184695   2.201  14.491  12.474
94266SOL    HW284696   2.068  14.561  12.454
94267SOL     OW84697  13.560   1.724  10.164
94267SOL    HW184698  13.597   1.686  10.084
94267SOL    HW284699  13.503   1.655  10.199
94268SOL     OW84700   4.899  10.993  10.675
94268SOL    HW184701   4.876  11.085  10.689
94268SOL    HW284702   4.944  10.992  10.590
94269SOL     OW84703  11.978   3.524   9.592
94269SOL    HW184704  11.923   3.602   9.598
94269SOL    HW284705  11.917   3.453   9.575
94270SOL     OW84706   8.733   1.554   6.016
94270SOL    HW184707   8.821   1.559   5.978
94270SOL    HW284708   8.745   1.508   6.098
94271SOL     OW84709   9.586   1.233   6.046
94271SOL    HW184710   9.566   1.324   6.024
94271SOL    HW284711   9.681   1.226   6.039
94272SOL     OW84712   4.001   2.300   8.780
94272SOL    HW184713   3.958   2.234   8.726
94272SOL    HW284714   4.076   2.254   8.819
94273SOL     OW84715  13.136   3.380   6.821
94273SOL    HW184716  13.167   3.343   6.739
94273SOL    HW284717  13.192   3.341   6.888
94274SOL     OW84718   4.617   2.570   6.782
94274SOL    HW184719   4.642   2.512   6.855
94274SOL    HW284720   4.572   2.513   6.720
94275SOL     OW84721  14.802  14.870  11.338
94275SOL    HW184722  14.866   0.051  11.374
94275SOL    HW284723  14.717   0.027  11.362
94276SOL     OW84724   9.254   6.914  10.344
94276SOL    HW184725   9.274   6.856  10.271
94276SOL    HW284726   9.195   6.980  10.307
94277SOL     OW84727  11.322   3.500   8.451
94277SOL    HW184728  11.244   3.462   8.490
94277SOL    HW284729  11.337   3.450   8.371
94278SOL     OW84730   9.728   4.387   6.826
94278SOL    HW184731   9.640   4.412   6.857
94278SOL    HW284732   9.766   4.469   6.794
94279SOL     OW84733  12.626   2.632   7.426
94279SOL    HW184734  12.554   2.642   7.364
94279SOL    HW284735  12.694   2.586   7.376
94280SOL     OW84736  11.784   8.983   0.020
94280SOL    HW184737  11.725   8.958  14.828
94280SOL    HW284738  11.796   9.077   0.009
94281SOL     OW84739  14.371   4.737   9.972
94281SOL    HW184740  14.427   4.702  10.041
94281SOL    HW284741  14.328   4.812  10.011
94282SOL     OW84742  14.298  11.733   8.052
94282SOL    HW184743  14.204  11.732   8.036
94282SOL    HW284744  14.311  11.668   8.122
94283SOL     OW84745  13.343  12.383  12.444
94283SOL    HW184746  13.340  12.474  12.415
94283SOL    HW284747  13.376  12.334  12.368
94284SOL     OW84748  13.058   6.292   0.651
94284SOL    HW184749  13.080   6.201   0.670
94284SOL    HW284750  13.047   6.333   0.737
94285SOL     OW84751  11.949   0.390   7.130
94285SOL    HW184752  11.932   0.309   7.082
94285SOL    HW284753  12.041   0.410   7.111
94286SOL     OW84754  10.338  10.624  11.687
94286SOL    HW184755  10.371  10.698  11.737
94286SOL    HW284756  10.323  10.659  11.599
94287SOL     OW84757   6.114  11.225   7.048
94287SOL    HW184758   6.091  11.317   7.034
94287SOL    HW284759   6.061  11.198   7.123
94288SOL     OW84760   0.258  13.661   4.035
94288SOL    HW184761   0.195  13.716   3.989
94288SOL    HW284762   0.239  13.675   4.128
94289SOL     OW84763  11.610   2.926  11.783
94289SOL    HW184764  11.662   2.875  11.721
94289SOL    HW284765  11.631   2.888  11.869
94290SOL     OW84766   5.930   5.614  14.216
94290SOL    HW184767   6.025   5.615  14.224
94290SOL    HW284768   5.911   5.538  14.160
94291SOL     OW84769   3.170   4.401  11.946
94291SOL    HW184770   3.112   4.400  11.869
94291SOL    HW284771   3.257   4.414  11.909
94292SOL     OW84772   6.413   9.891   4.616
94292SOL    HW184773   6.452   9.910   4.701
94292SOL    HW284774   6.472   9.934   4.553
94293SOL     OW84775  14.050   1.090   4.463
94293SOL    HW184776  14.014   1.160   4.408
94293SOL    HW284777  14.118   1.050   4.409
94294SOL     OW84778   8.903   4.305   0.190
94294SOL    HW184779   8.951   4.280   0.269
94294SOL    HW284780   8.811   4.289   0.213
94295SOL     OW84781   0.872   8.504   5.004
94295SOL    HW184782   0.933   8.508   4.930
94295SOL    HW284783   0.899   8.426   5.053
94296SOL     OW84784   1.445   8.821   5.946
94296SOL    HW184785   1.535   8.851   5.953
94296SOL    HW284786   1.433   8.762   6.022
94297SOL     OW84787  13.532   5.146   4.279
94297SOL    HW184788  13.549   5.226   4.228
94297SOL    HW284789  13.449   5.113   4.244
94298SOL     OW84790   4.726   8.344   1.528
94298SOL    HW184791   4.675   8.274   1.569
94298SOL    HW284792   4.789   8.299   1.472
94299SOL     OW84793   5.945   1.485  12.131
94299SOL    HW184794   5.889   1.411  12.154
94299SOL    HW284795   5.928   1.550  12.199
94300SOL     OW84796   7.306   5.704   4.510
94300SOL    HW184797   7.316   5.798   4.499
94300SOL    HW284798   7.214   5.687   4.490
94301SOL     OW84799  11.023   8.310   1.603
94301SOL    HW184800  10.941   8.310   1.651
94301SOL    HW284801  11.002   8.264   1.521
94302SOL     OW84802   0.616  11.031   8.806
94302SOL    HW184803   0.526  11.044   8.777
94302SOL    HW284804   0.665  11.105   8.769
94303SOL     OW84805  13.870  10.006  14.781
94303SOL    HW184806  13.775  10.001  14.766
94303SOL    HW284807  13.880  10.070  14.851
94304SOL     OW84808  14.241   5.935   7.729
94304SOL    HW184809  14.312   5.962   7.788
94304SOL    HW284810  14.185   5.880   7.783
94305SOL     OW84811  11.605   2.211   3.286
94305SOL    HW184812  11.577   2.259   3.208
94305SOL    HW284813  11.668   2.269   3.329
94306SOL     OW84814   2.925  11.189  13.365
94306SOL    HW184815   3.015  11.158  13.377
94306SOL    HW284816   2.912  11.253  13.435
94307SOL     OW84817   3.167   3.475  10.599
94307SOL    HW184818   3.150   3.568  10.584
94307SOL    HW284819   3.099   3.430  10.549
94308SOL     OW84820   4.077   4.625   2.191
94308SOL    HW184821   4.099   4.687   2.261
94308SOL    HW284822   4.042   4.549   2.238
94309SOL     OW84823  13.286  11.593   4.070
94309SOL    HW184824  13.305  11.678   4.031
94309SOL    HW284825  13.194  11.597   4.095
94310SOL     OW84826   1.092   7.856   4.318
94310SOL    HW184827   1.009   7.859   4.366
94310SOL    HW284828   1.069   7.819   4.233
94311SOL     OW84829  10.823   7.431  13.839
94311SOL    HW184830  10.777   7.515  13.845
94311SOL    HW284831  10.863   7.431  13.752
94312SOL     OW84832   5.315   1.264   4.529
94312SOL    HW184833   5.312   1.189   4.469
94312SOL    HW284834   5.404   1.262   4.565
94313SOL     OW84835  14.353   3.430  14.531
94313SOL    HW184836  14.266   3.466  14.548
94313SOL    HW284837  14.388   3.484  14.460
94314SOL     OW84838   4.138  10.693   8.134
94314SOL    HW184839   4.159  10.755   8.204
94314SOL    HW284840   4.197  10.716   8.062
94315SOL     OW84841   9.908  13.965   4.772
94315SOL    HW184842   9.870  14.051   4.791
94315SOL    HW284843   9.986  13.985   4.720
94316SOL     OW84844  11.878   3.815   2.411
94316SOL    HW184845  11.837   3.786   2.329
94316SOL    HW284846  11.815   3.876   2.449
94317SOL     OW84847   9.354   9.283  12.751
94317SOL    HW184848   9.297   9.295  12.826
94317SOL    HW284849   9.298   9.243  12.684
94318SOL     OW84850   7.076   3.204  13.880
94318SOL    HW184851   7.047   3.194  13.971
94318SOL    HW284852   7.088   3.298  13.869
94319SOL     OW84853   5.500   1.407   6.284
94319SOL    HW184854   5.586   1.392   6.246
94319SOL    HW284855   5.465   1.483   6.237
94320SOL     OW84856   0.747   6.508  11.714
94320SOL    HW184857   0.715   6.556  11.638
94320SOL    HW284858   0.821   6.559  11.746
94321SOL     OW84859  10.814  10.209   2.770
94321SOL    HW184860  10.875  10.271   2.811
94321SOL    HW284861  10.727  10.246   2.787
94322SOL     OW84862  10.168   2.257   2.268
94322SOL    HW184863  10.077   2.227   2.272
94322SOL    HW284864  10.164   2.340   2.220
94323SOL     OW84865   5.105   7.031  14.608
94323SOL    HW184866   5.188   7.065  14.574
94323SOL    HW284867   5.100   7.064  14.697
94324SOL     OW84868   6.406   5.190   6.750
94324SOL    HW184869   6.378   5.217   6.663
94324SOL    HW284870   6.444   5.269   6.788
94325SOL     OW84871  13.415   1.612   6.070
94325SOL    HW184872  13.465   1.561   6.133
94325SOL    HW284873  13.400   1.553   5.996
94326SOL     OW84874   8.123   9.706   6.454
94326SOL    HW184875   8.184   9.678   6.386
94326SOL    HW284876   8.164   9.783   6.493
94327SOL     OW84877   8.239   3.798   9.169
94327SOL    HW184878   8.149   3.790   9.135
94327SOL    HW284879   8.289   3.735   9.118
94328SOL     OW84880   6.673  14.444   7.586
94328SOL    HW184881   6.696  14.529   7.624
94328SOL    HW284882   6.751  14.391   7.596
94329SOL     OW84883  11.468  13.224   4.709
94329SOL    HW184884  11.464  13.147   4.652
94329SOL    HW284885  11.381  13.263   4.703
94330SOL     OW84886  14.008   3.197   8.395
94330SOL    HW184887  13.976   3.150   8.472
94330SOL    HW284888  14.101   3.210   8.413
94331SOL     OW84889   0.225   9.077   3.862
94331SOL    HW184890   0.273   9.035   3.933
94331SOL    HW284891   0.280   9.064   3.785
94332SOL     OW84892   5.719   1.402   9.324
94332SOL    HW184893   5.686   1.379   9.237
94332SOL    HW284894   5.649   1.378   9.384
94333SOL     OW84895   2.397   9.899   4.657
94333SOL    HW184896   2.330   9.944   4.709
94333SOL    HW284897   2.463   9.872   4.722
94334SOL     OW84898  10.850  10.781   1.405
94334SOL    HW184899  10.786  10.723   1.363
94334SOL    HW284900  10.934  10.757   1.365
94335SOL     OW84901   5.893  10.137  14.194
94335SOL    HW184902   5.799  10.124  14.184
94335SOL    HW284903   5.911  10.220  14.151
94336SOL     OW84904   7.591   8.485   5.197
94336SOL    HW184905   7.638   8.516   5.274
94336SOL    HW284906   7.623   8.396   5.183
94337SOL     OW84907  11.952  14.244  12.716
94337SOL    HW184908  12.046  14.252  12.736
94337SOL    HW284909  11.909  14.254  12.801
94338SOL     OW84910   6.987  10.899   4.737
94338SOL    HW184911   6.993  10.900   4.641
94338SOL    HW284912   6.994  10.991   4.762
94339SOL     OW84913   4.409   2.270   6.684
94339SOL    HW184914   4.457   2.276   6.766
94339SOL    HW284915   4.389   2.177   6.674
94340SOL     OW84916   5.396  10.077  10.525
94340SOL    HW184917   5.317  10.125  10.500
94340SOL    HW284918   5.453  10.083  10.448
94341SOL     OW84919   6.812   8.309   1.194
94341SOL    HW184920   6.871   8.234   1.187
94341SOL    HW284921   6.847   8.360   1.267
94342SOL     OW84922   8.404   8.277   4.899
94342SOL    HW184923   8.419   8.185   4.879
94342SOL    HW284924   8.492   8.314   4.910
94343SOL     OW84925  10.651   6.701   0.097
94343SOL    HW184926  10.659   6.761   0.023
94343SOL    HW284927  10.680   6.617   0.063
94344SOL     OW84928   9.205   3.595   0.571
94344SOL    HW184929   9.216   3.660   0.641
94344SOL    HW284930   9.254   3.519   0.600
94345SOL     OW84931  12.387   7.337   7.845
94345SOL    HW184932  12.366   7.249   7.815
94345SOL    HW284933  12.302   7.379   7.861
94346SOL     OW84934  12.429  13.546   6.146
94346SOL    HW184935  12.438  13.638   6.168
94346SOL    HW284936  12.383  13.507   6.221
94347SOL     OW84937   0.566  13.002   8.197
94347SOL    HW184938   0.531  13.056   8.127
94347SOL    HW284939   0.541  13.047   8.278
94348SOL     OW84940   1.290   7.161   3.521
94348SOL    HW184941   1.333   7.233   3.476
94348SOL    HW284942   1.255   7.106   3.451
94349SOL     OW84943  11.588  14.811  10.215
94349SOL    HW184944  11.623  14.730  10.178
94349SOL    HW284945  11.559  14.787  10.303
94350SOL     OW84946   9.101   0.149   8.679
94350SOL    HW184947   9.144   0.145   8.594
94350SOL    HW284948   9.068   0.060   8.694
94351SOL     OW84949   4.512   2.014  13.591
94351SOL    HW184950   4.489   1.921  13.590
94351SOL    HW284951   4.447   2.056  13.535
94352SOL     OW84952   1.884   0.812   4.738
94352SOL    HW184953   1.865   0.819   4.832
94352SOL    HW284954   1.956   0.873   4.724
94353SOL     OW84955  11.753  12.047   4.602
94353SOL    HW184956  11.724  12.109   4.535
94353SOL    HW284957  11.817  11.992   4.557
94354SOL     OW84958  14.643   3.514   7.040
94354SOL    HW184959  14.644   3.578   6.969
94354SOL    HW284960  14.672   3.432   6.999
94355SOL     OW84961   3.952   2.088   7.391
94355SOL    HW184962   3.950   2.152   7.462
94355SOL    HW284963   4.039   2.098   7.352
94356SOL     OW84964  13.927   7.737   3.687
94356SOL    HW184965  13.973   7.805   3.639
94356SOL    HW284966  13.847   7.780   3.719
94357SOL     OW84967   5.170   6.430   0.466
94357SOL    HW184968   5.257   6.393   0.481
94357SOL    HW284969   5.112   6.353   0.463
94358SOL     OW84970  12.913   2.995  13.926
94358SOL    HW184971  12.897   3.078  13.881
94358SOL    HW284972  13.002   3.004  13.962
94359SOL     OW84973  12.786   2.897  14.564
94359SOL    HW184974  12.809   2.927  14.476
94359SOL    HW284975  12.856   2.931  14.620
94360SOL     OW84976   5.007   8.960   4.411
94360SOL    HW184977   4.993   8.939   4.503
94360SOL    HW284978   5.072   9.031   4.413
94361SOL     OW84979   4.409   0.881  11.946
94361SOL    HW184980   4.495   0.920  11.958
94361SOL    HW284981   4.380   0.912  11.860
94362SOL     OW84982  14.507   7.499  13.780
94362SOL    HW184983  14.559   7.580  13.781
94362SOL    HW284984  14.438   7.514  13.844
94363SOL     OW84985  11.727   5.965   4.236
94363SOL    HW184986  11.765   6.052   4.252
94363SOL    HW284987  11.759   5.941   4.149
94364SOL     OW84988   5.861  10.037   9.808
94364SOL    HW184989   5.794   9.993   9.754
94364SOL    HW284990   5.944  10.011   9.768
94365SOL     OW84991  11.850   7.688  10.046
94365SOL    HW184992  11.771   7.737  10.069
94365SOL    HW284993  11.854   7.692   9.951
94366SOL     OW84994  14.353   7.835  13.701
94366SOL    HW184995  14.417   7.830  13.772
94366SOL    HW284996  14.269   7.814  13.743
94367SOL     OW84997   2.465  14.198   4.813
94367SOL    HW184998   2.512  14.217   4.731
94367SOL    HW284999   2.378  14.169   4.784
94368SOL     OW85000   4.133  14.573   3.789
94368SOL    HW185001   4.075  14.544   3.859
94368SOL    HW285002   4.208  14.513   3.793
94369SOL     OW85003   2.553  11.771  13.537
94369SOL    HW185004   2.599  11.815  13.465
94369SOL    HW285005   2.592  11.684  13.540
94370SOL     OW85006   3.460  11.534   7.886
94370SOL    HW185007   3.445  11.612   7.834
94370SOL    HW285008   3.542  11.497   7.852
94371SOL     OW85009  11.842   8.518   5.835
94371SOL    HW185010  11.808   8.578   5.902
94371SOL    HW285011  11.788   8.534   5.758
94372SOL     OW85012   9.067   9.524   9.533
94372SOL    HW185013   9.139   9.585   9.512
94372SOL    HW285014   9.107   9.438   9.526
94373SOL     OW85015  13.404   2.890   9.566
94373SOL    HW185016  13.341   2.877   9.495
94373SOL    HW285017  13.373   2.967   9.613
94374SOL     OW85018  10.559   4.139  12.048
94374SOL    HW185019  10.491   4.176  11.990
94374SOL    HW285020  10.510   4.096  12.118
94375SOL     OW85021   5.541   6.825  14.046
94375SOL    HW185022   5.512   6.899  14.099
94375SOL    HW285023   5.596   6.865  13.978
94376SOL     OW85024   1.818  14.375  11.918
94376SOL    HW185025   1.845  14.458  11.958
94376SOL    HW285026   1.810  14.314  11.992
94377SOL     OW85027   2.072   1.321  10.734
94377SOL    HW185028   2.141   1.350  10.794
94377SOL    HW285029   2.055   1.230  10.759
94378SOL     OW85030  11.071   6.067   4.764
94378SOL    HW185031  10.988   6.052   4.809
94378SOL    HW285032  11.097   5.980   4.732
94379SOL     OW85033   9.909   4.199  14.141
94379SOL    HW185034   9.897   4.161  14.053
94379SOL    HW285035   9.997   4.235  14.140
94380SOL     OW85036   0.578   1.157  10.099
94380SOL    HW185037   0.538   1.241  10.123
94380SOL    HW285038   0.668   1.180  10.074
94381SOL     OW85039   4.027  13.999   1.827
94381SOL    HW185040   4.039  14.009   1.922
94381SOL    HW285041   4.082  13.924   1.804
94382SOL     OW85042   8.566   9.350   2.015
94382SOL    HW185043   8.526   9.362   1.929
94382SOL    HW285044   8.499   9.380   2.076
94383SOL     OW85045  10.566   1.022   7.189
94383SOL    HW185046  10.522   0.937   7.188
94383SOL    HW285047  10.511   1.077   7.245
94384SOL     OW85048   1.591   9.341  12.163
94384SOL    HW185049   1.666   9.285  12.145
94384SOL    HW285050   1.611   9.383  12.247
94385SOL     OW85051   3.334   3.528  12.942
94385SOL    HW185052   3.262   3.532  12.878
94385SOL    HW285053   3.301   3.473  13.012
94386SOL     OW85054  11.632  11.303  11.585
94386SOL    HW185055  11.538  11.316  11.577
94386SOL    HW285056  11.662  11.286  11.495
94387SOL     OW85057   8.151  13.894  13.743
94387SOL    HW185058   8.082  13.831  13.762
94387SOL    HW285059   8.180  13.923  13.829
94388SOL     OW85060   1.074  14.515  13.350
94388SOL    HW185061   1.156  14.523  13.302
94388SOL    HW285062   1.081  14.432  13.397
94389SOL     OW85063   5.587   5.937   8.606
94389SOL    HW185064   5.604   6.030   8.600
94389SOL    HW285065   5.495   5.928   8.580
94390SOL     OW85066   1.796   9.427   5.409
94390SOL    HW185067   1.824   9.427   5.317
94390SOL    HW285068   1.735   9.353   5.415
94391SOL     OW85069   8.005   5.915   1.293
94391SOL    HW185070   8.056   5.836   1.311
94391SOL    HW285071   8.069   5.986   1.294
94392SOL     OW85072   5.206  12.814  11.073
94392SOL    HW185073   5.135  12.874  11.051
94392SOL    HW285074   5.186  12.784  11.162
94393SOL     OW85075   0.458  12.813   4.062
94393SOL    HW185076   0.443  12.720   4.078
94393SOL    HW285077   0.378  12.843   4.019
94394SOL     OW85078  10.556   8.444   7.185
94394SOL    HW185079  10.463   8.448   7.163
94394SOL    HW285080  10.563   8.373   7.249
94395SOL     OW85081  10.898   1.198   1.964
94395SOL    HW185082  10.856   1.215   2.049
94395SOL    HW285083  10.992   1.195   1.985
94396SOL     OW85084   5.185  12.256   7.915
94396SOL    HW185085   5.161  12.331   7.860
94396SOL    HW285086   5.111  12.243   7.973
94397SOL     OW85087  12.868   6.839   7.493
94397SOL    HW185088  12.871   6.771   7.426
94397SOL    HW285089  12.940   6.817   7.553
94398SOL     OW85090   8.735   7.740  10.329
94398SOL    HW185091   8.753   7.831  10.305
94398SOL    HW285092   8.822   7.701  10.340
94399SOL     OW85093   2.977   6.690   2.536
94399SOL    HW185094   2.887   6.698   2.568
94399SOL    HW285095   3.022   6.638   2.602
94400SOL     OW85096  12.531  13.344   1.325
94400SOL    HW185097  12.574  13.261   1.343
94400SOL    HW285098  12.445  13.336   1.367
94401SOL     OW85099   1.502  13.329   1.166
94401SOL    HW185100   1.438  13.271   1.208
94401SOL    HW285101   1.450  13.400   1.130
94402SOL     OW85102   9.534  10.081   5.499
94402SOL    HW185103   9.467  10.017   5.475
94402SOL    HW285104   9.489  10.165   5.498
94403SOL     OW85105   4.054  13.011   4.531
94403SOL    HW185106   4.061  13.101   4.497
94403SOL    HW285107   3.970  13.010   4.577
94404SOL     OW85108   5.550  10.969  12.648
94404SOL    HW185109   5.571  11.015  12.567
94404SOL    HW285110   5.519  10.883  12.619
94405SOL     OW85111  14.130  10.252   4.542
94405SOL    HW185112  14.052  10.214   4.582
94405SOL    HW285113  14.096  10.325   4.489
94406SOL     OW85114  14.336  12.696   5.956
94406SOL    HW185115  14.373  12.782   5.974
94406SOL    HW285116  14.275  12.710   5.884
94407SOL     OW85117  13.171  13.181   4.220
94407SOL    HW185118  13.228  13.234   4.276
94407SOL    HW285119  13.093  13.166   4.273
94408SOL     OW85120  13.370   6.477   7.944
94408SOL    HW185121  13.389   6.511   8.031
94408SOL    HW285122  13.456   6.466   7.903
94409SOL     OW85123   8.463   3.673   0.836
94409SOL    HW185124   8.550   3.681   0.798
94409SOL    HW285125   8.461   3.583   0.871
94410SOL     OW85126   9.111   6.504  14.086
94410SOL    HW185127   9.198   6.544  14.081
94410SOL    HW285128   9.052   6.577  14.101
94411SOL     OW85129   1.799   0.684   9.505
94411SOL    HW185130   1.776   0.775   9.523
94411SOL    HW285131   1.882   0.671   9.551
94412SOL     OW85132  11.426  10.844  11.693
94412SOL    HW185133  11.401  10.816  11.781
94412SOL    HW285134  11.484  10.919  11.707
94413SOL     OW85135   9.225  14.456   4.506
94413SOL    HW185136   9.274  14.379   4.535
94413SOL    HW285137   9.153  14.421   4.455
94414SOL     OW85138   6.171   4.259   9.463
94414SOL    HW185139   6.097   4.318   9.476
94414SOL    HW285140   6.215   4.256   9.548
94415SOL     OW85141   1.509   3.419   7.458
94415SOL    HW185142   1.565   3.419   7.536
94415SOL    HW285143   1.557   3.472   7.395
94416SOL     OW85144   6.737  11.747   5.728
94416SOL    HW185145   6.668  11.712   5.671
94416SOL    HW285146   6.817  11.702   5.700
94417SOL     OW85147   2.172   9.955  11.476
94417SOL    HW185148   2.264   9.931  11.482
94417SOL    HW285149   2.125   9.883  11.517
94418SOL     OW85150   5.046  12.255   5.536
94418SOL    HW185151   5.012  12.305   5.610
94418SOL    HW285152   5.033  12.164   5.560
94419SOL     OW85153   5.200  13.020   7.509
94419SOL    HW185154   5.127  13.063   7.554
94419SOL    HW285155   5.278  13.063   7.543
94420SOL     OW85156   9.483   7.113  14.500
94420SOL    HW185157   9.419   7.182  14.512
94420SOL    HW285158   9.501   7.113  14.405
94421SOL     OW85159  13.012   3.785   8.529
94421SOL    HW185160  12.978   3.846   8.595
94421SOL    HW285161  13.091   3.829   8.495
94422SOL     OW85162  12.437  13.249   0.917
94422SOL    HW185163  12.396  13.183   0.973
94422SOL    HW285164  12.516  13.207   0.883
94423SOL     OW85165   8.538   7.630   0.453
94423SOL    HW185166   8.483   7.605   0.378
94423SOL    HW285167   8.480   7.680   0.509
94424SOL     OW85168  10.193  11.913   7.284
94424SOL    HW185169  10.138  11.958   7.348
94424SOL    HW285170  10.134  11.851   7.241
94425SOL     OW85171  13.796   5.444   3.391
94425SOL    HW185172  13.875   5.390   3.390
94425SOL    HW285173  13.804   5.499   3.313
94426SOL     OW85174  14.237  11.920   3.907
94426SOL    HW185175  14.305  11.877   3.855
94426SOL    HW285176  14.204  11.851   3.965
94427SOL     OW85177   0.087  12.361   0.554
94427SOL    HW185178   0.167  12.319   0.587
94427SOL    HW285179   0.053  12.298   0.490
94428SOL     OW85180   7.329   5.212   3.172
94428SOL    HW185181   7.410   5.161   3.172
94428SOL    HW285182   7.264   5.155   3.214
94429SOL     OW85183  13.108  12.660  13.537
94429SOL    HW185184  13.191  12.628  13.503
94429SOL    HW285185  13.071  12.711  13.466
94430SOL     OW85186  14.152   3.393   0.802
94430SOL    HW185187  14.122   3.456   0.736
94430SOL    HW285188  14.215   3.338   0.756
94431SOL     OW85189  13.918   3.635   9.291
94431SOL    HW185190  13.880   3.708   9.242
94431SOL    HW285191  13.882   3.557   9.250
94432SOL     OW85192   6.522   4.794   2.500
94432SOL    HW185193   6.431   4.768   2.515
94432SOL    HW285194   6.529   4.879   2.541
94433SOL     OW85195  14.792   2.627  14.551
94433SOL    HW185196  14.786   2.559  14.618
94433SOL    HW285197   0.006   2.640  14.539
94434SOL     OW85198   8.411   1.874   8.027
94434SOL    HW185199   8.318   1.851   8.033
94434SOL    HW285200   8.429   1.876   7.933
94435SOL     OW85201  12.721  11.835   0.961
94435SOL    HW185202  12.687  11.917   0.925
94435SOL    HW285203  12.761  11.860   1.044
94436SOL     OW85204  11.929  11.925   4.384
94436SOL    HW185205  11.900  11.928   4.293
94436SOL    HW285206  11.998  11.859   4.385
94437SOL     OW85207   8.479  11.756  11.254
94437SOL    HW185208   8.446  11.845  11.238
94437SOL    HW285209   8.430  11.726  11.331
94438SOL     OW85210   7.931  14.171   3.557
94438SOL    HW185211   7.928  14.264   3.537
94438SOL    HW285212   8.017  14.158   3.598
94439SOL     OW85213   4.782  12.539  10.283
94439SOL    HW185214   4.724  12.545  10.207
94439SOL    HW285215   4.869  12.559  10.249
94440SOL     OW85216  10.377  12.391   7.499
94440SOL    HW185217  10.398  12.324   7.435
94440SOL    HW285218  10.438  12.375   7.572
94441SOL     OW85219   7.268  13.534   4.923
94441SOL    HW185220   7.252  13.523   4.829
94441SOL    HW285221   7.208  13.604   4.949
94442SOL     OW85222   8.709   5.613  11.345
94442SOL    HW185223   8.710   5.693  11.292
94442SOL    HW285224   8.635   5.624  11.404
94443SOL     OW85225   2.351   3.559  10.732
94443SOL    HW185226   2.266   3.516  10.743
94443SOL    HW285227   2.364   3.561  10.637
94444SOL     OW85228   7.770  11.829   0.342
94444SOL    HW185229   7.693  11.839   0.286
94444SOL    HW285230   7.782  11.915   0.382
94445SOL     OW85231   6.146  10.326  12.970
94445SOL    HW185232   6.237  10.311  12.993
94445SOL    HW285233   6.149  10.387  12.896
94446SOL     OW85234   7.229   6.428   3.241
94446SOL    HW185235   7.249   6.467   3.326
94446SOL    HW285236   7.266   6.340   3.245
94447SOL     OW85237   4.166   1.054   2.294
94447SOL    HW185238   4.193   1.080   2.206
94447SOL    HW285239   4.231   1.094   2.352
94448SOL     OW85240   8.992   8.246  12.344
94448SOL    HW185241   9.043   8.166  12.356
94448SOL    HW285242   9.055   8.311  12.314
94449SOL     OW85243   8.101  10.339   1.075
94449SOL    HW185244   8.020  10.296   1.102
94449SOL    HW285245   8.164  10.267   1.062
94450SOL     OW85246  11.464  14.728   5.013
94450SOL    HW185247  11.424  14.777   4.942
94450SOL    HW285248  11.536  14.680   4.972
94451SOL     OW85249  12.062   7.608   9.715
94451SOL    HW185250  12.057   7.703   9.719
94451SOL    HW285251  12.149   7.586   9.747
94452SOL     OW85252   8.438  10.783  12.342
94452SOL    HW185253   8.436  10.687  12.344
94452SOL    HW285254   8.410  10.805  12.253
94453SOL     OW85255   0.931  12.170  10.625
94453SOL    HW185256   0.864  12.101  10.629
94453SOL    HW285257   0.880  12.251  10.616
94454SOL     OW85258   4.877   6.814   0.075
94454SOL    HW185259   4.933   6.742   0.045
94454SOL    HW285260   4.927   6.855   0.145
94455SOL     OW85261   1.472  10.545   2.711
94455SOL    HW185262   1.470  10.452   2.688
94455SOL    HW285263   1.426  10.588   2.640
94456SOL     OW85264   6.629   2.606   5.707
94456SOL    HW185265   6.540   2.581   5.681
94456SOL    HW285266   6.673   2.626   5.624
94457SOL     OW85267   6.940  10.567   3.694
94457SOL    HW185268   7.021  10.519   3.713
94457SOL    HW285269   6.961  10.658   3.713
94458SOL     OW85270  14.175  13.651   5.719
94458SOL    HW185271  14.218  13.589   5.660
94458SOL    HW285272  14.120  13.597   5.775
94459SOL     OW85273   4.020   8.146  12.261
94459SOL    HW185274   4.034   8.104  12.176
94459SOL    HW285275   3.933   8.185  12.256
94460SOL     OW85276  13.757  14.020   5.698
94460SOL    HW185277  13.844  13.995   5.730
94460SOL    HW285278  13.774  14.065   5.616
94461SOL     OW85279   0.147   9.357   6.070
94461SOL    HW185280   0.152   9.312   5.986
94461SOL    HW285281   0.154   9.450   6.048
94462SOL     OW85282   9.584   4.518   4.582
94462SOL    HW185283   9.528   4.568   4.523
94462SOL    HW285284   9.629   4.456   4.525
94463SOL     OW85285   1.790   2.903  11.104
94463SOL    HW185286   1.885   2.912  11.104
94463SOL    HW285287   1.768   2.881  11.194
94464SOL     OW85288  11.317   9.144  10.310
94464SOL    HW185289  11.246   9.205  10.332
94464SOL    HW285290  11.276   9.078  10.255
94465SOL     OW85291   6.164  11.799   2.566
94465SOL    HW185292   6.223  11.743   2.616
94465SOL    HW285293   6.205  11.806   2.480
94466SOL     OW85294   8.709  14.542   4.139
94466SOL    HW185295   8.632  14.597   4.123
94466SOL    HW285296   8.683  14.455   4.110
94467SOL     OW85297   9.049  13.486   6.760
94467SOL    HW185298   9.040  13.393   6.737
94467SOL    HW285299   9.132  13.492   6.807
94468SOL     OW85300  14.862   9.029   1.583
94468SOL    HW185301  14.844   8.943   1.620
94468SOL    HW285302  14.783   9.080   1.602
94469SOL     OW85303   0.313   9.794   1.075
94469SOL    HW185304   0.302   9.749   0.991
94469SOL    HW285305   0.306   9.887   1.053
94470SOL     OW85306   3.873   4.912   4.912
94470SOL    HW185307   3.834   4.947   4.992
94470SOL    HW285308   3.912   4.829   4.938
94471SOL     OW85309   6.130   8.560  13.526
94471SOL    HW185310   6.147   8.520  13.611
94471SOL    HW285311   6.038   8.542  13.509
94472SOL     OW85312   1.859  12.908  13.364
94472SOL    HW185313   1.792  12.893  13.431
94472SOL    HW285314   1.889  12.821  13.341
94473SOL     OW85315   3.138  14.028   9.156
94473SOL    HW185316   3.122  13.940   9.122
94473SOL    HW285317   3.215  14.018   9.211
94474SOL     OW85318  10.627  10.988   0.015
94474SOL    HW185319  10.620  11.061  14.834
94474SOL    HW285320  10.608  11.026   0.101
94475SOL     OW85321   8.888   5.142   3.521
94475SOL    HW185322   8.833   5.219   3.506
94475SOL    HW285323   8.868   5.115   3.611
94476SOL     OW85324   8.251  12.332   0.396
94476SOL    HW185325   8.188  12.262   0.377
94476SOL    HW285326   8.267  12.324   0.490
94477SOL     OW85327  11.633   2.419  14.264
94477SOL    HW185328  11.542   2.440  14.244
94477SOL    HW285329  11.662   2.492  14.319
94478SOL     OW85330   5.752   6.478   2.458
94478SOL    HW185331   5.770   6.569   2.483
94478SOL    HW285332   5.657   6.476   2.447
94479SOL     OW85333   4.169   1.962   0.398
94479SOL    HW185334   4.137   1.937   0.311
94479SOL    HW285335   4.205   1.881   0.434
94480SOL     OW85336   3.221   6.864   2.538
94480SOL    HW185337   3.287   6.796   2.541
94480SOL    HW285338   3.138   6.817   2.548
94481SOL     OW85339   8.335   3.717   3.180
94481SOL    HW185340   8.341   3.643   3.119
94481SOL    HW285341   8.300   3.679   3.261
94482SOL     OW85342   1.387  11.214   8.731
94482SOL    HW185343   1.395  11.294   8.783
94482SOL    HW285344   1.328  11.237   8.660
94483SOL     OW85345  10.068  12.127   0.788
94483SOL    HW185346  10.102  12.082   0.865
94483SOL    HW285347   9.992  12.075   0.762
94484SOL     OW85348  12.941   1.821  12.342
94484SOL    HW185349  12.886   1.763  12.290
94484SOL    HW285350  12.914   1.909  12.317
94485SOL     OW85351  14.584  11.368   6.533
94485SOL    HW185352  14.639  11.446   6.530
94485SOL    HW285353  14.647  11.295   6.533
94486SOL     OW85354   0.565   9.050  14.797
94486SOL    HW185355   0.657   9.040  14.774
94486SOL    HW285356   0.517   9.035  14.716
94487SOL     OW85357  13.310   2.516   1.085
94487SOL    HW185358  13.250   2.569   1.033
94487SOL    HW285359  13.255   2.447   1.122
94488SOL     OW85360   5.688   4.947  11.445
94488SOL    HW185361   5.594   4.932  11.448
94488SOL    HW285362   5.697   5.035  11.409
94489SOL     OW85363  14.523  11.304   3.823
94489SOL    HW185364  14.431  11.327   3.815
94489SOL    HW285365  14.566  11.347   3.749
94490SOL     OW85366   6.442   1.871   9.002
94490SOL    HW185367   6.441   1.966   9.012
94490SOL    HW285368   6.534   1.850   8.986
94491SOL     OW85369  14.864   1.599   9.542
94491SOL    HW185370   0.027   1.633   9.463
94491SOL    HW285371   0.004   1.665   9.609
94492SOL     OW85372   0.014   3.597   5.790
94492SOL    HW185373  14.808   3.595   5.748
94492SOL    HW285374   0.074   3.562   5.724
94493SOL     OW85375   8.063   2.209   4.108
94493SOL    HW185376   8.084   2.206   4.015
94493SOL    HW285377   8.048   2.302   4.126
94494SOL     OW85378   5.458  12.390   5.280
94494SOL    HW185379   5.496  12.386   5.368
94494SOL    HW285380   5.397  12.316   5.277
94495SOL     OW85381   5.224   8.511   4.810
94495SOL    HW185382   5.276   8.510   4.890
94495SOL    HW285383   5.134   8.499   4.840
94496SOL     OW85384   5.368   6.766  13.476
94496SOL    HW185385   5.385   6.818  13.555
94496SOL    HW285386   5.410   6.682  13.493
94497SOL     OW85387   9.467  10.860  10.241
94497SOL    HW185388   9.462  10.930  10.305
94497SOL    HW285389   9.559  10.834  10.241
94498SOL     OW85390   0.344  12.652  12.343
94498SOL    HW185391   0.367  12.737  12.380
94498SOL    HW285392   0.358  12.590  12.416
94499SOL     OW85393  10.244   4.081   5.421
94499SOL    HW185394  10.184   4.070   5.347
94499SOL    HW285395  10.331   4.090   5.381
94500SOL     OW85396   5.319  14.059   7.472
94500SOL    HW185397   5.259  14.016   7.533
94500SOL    HW285398   5.290  14.150   7.470
94501SOL     OW85399   0.524   0.585  12.159
94501SOL    HW185400   0.468   0.589  12.236
94501SOL    HW285401   0.610   0.616  12.189
94502SOL     OW85402  14.814  14.659  10.864
94502SOL    HW185403  14.782  14.572  10.888
94502SOL    HW285404  14.804  14.711  10.944
94503SOL     OW85405   6.182   8.780   3.904
94503SOL    HW185406   6.199   8.864   3.947
94503SOL    HW285407   6.124   8.801   3.831
94504SOL     OW85408   7.075   8.825   0.414
94504SOL    HW185409   7.108   8.811   0.325
94504SOL    HW285410   7.002   8.763   0.422
94505SOL     OW85411   9.365   8.425  11.697
94505SOL    HW185412   9.316   8.352  11.736
94505SOL    HW285413   9.347   8.419  11.604
94506SOL     OW85414  13.000   3.449   7.064
94506SOL    HW185415  12.914   3.479   7.094
94506SOL    HW285416  12.981   3.375   7.006
94507SOL     OW85417   3.440   0.645   1.966
94507SOL    HW185418   3.414   0.697   1.890
94507SOL    HW285419   3.531   0.669   1.982
94508SOL     OW85420  14.617  14.565  13.483
94508SOL    HW185421  14.560  14.515  13.541
94508SOL    HW285422  14.606  14.525  13.397
94509SOL     OW85423   1.079   0.297   0.229
94509SOL    HW185424   1.170   0.313   0.205
94509SOL    HW285425   1.075   0.204   0.250
94510SOL     OW85426  10.170  13.850   0.256
94510SOL    HW185427  10.094  13.858   0.314
94510SOL    HW285428  10.242  13.827   0.315
94511SOL     OW85429   9.627   5.264  11.786
94511SOL    HW185430   9.552   5.204  11.785
94511SOL    HW285431   9.685   5.228  11.854
94512SOL     OW85432   5.323   3.813   0.853
94512SOL    HW185433   5.250   3.785   0.798
94512SOL    HW285434   5.349   3.734   0.900
94513SOL     OW85435   6.426   6.810   9.475
94513SOL    HW185436   6.350   6.869   9.482
94513SOL    HW285437   6.401   6.734   9.527
94514SOL     OW85438   4.868   5.085  11.813
94514SOL    HW185439   4.793   5.139  11.838
94514SOL    HW285440   4.858   5.072  11.719
94515SOL     OW85441  12.328  14.482   7.950
94515SOL    HW185442  12.298  14.565   7.987
94515SOL    HW285443  12.380  14.442   8.020
94516SOL     OW85444  10.748   9.806   5.212
94516SOL    HW185445  10.749   9.808   5.308
94516SOL    HW285446  10.687   9.735   5.190
94517SOL     OW85447  12.951  13.180   4.033
94517SOL    HW185448  13.025  13.230   4.067
94517SOL    HW285449  12.906  13.147   4.110
94518SOL     OW85450  10.247   3.738   8.856
94518SOL    HW185451  10.175   3.800   8.867
94518SOL    HW285452  10.217   3.677   8.788
94519SOL     OW85453  11.488   0.326   9.445
94519SOL    HW185454  11.456   0.404   9.400
94519SOL    HW285455  11.525   0.272   9.375
94520SOL     OW85456   5.221   6.476   3.636
94520SOL    HW185457   5.314   6.459   3.651
94520SOL    HW285458   5.177   6.394   3.661
94521SOL     OW85459   4.311   7.634   2.403
94521SOL    HW185460   4.234   7.682   2.372
94521SOL    HW285461   4.385   7.681   2.365
94522SOL     OW85462   6.047   2.242   3.760
94522SOL    HW185463   5.967   2.281   3.793
94522SOL    HW285464   6.104   2.317   3.741
94523SOL     OW85465   5.817  10.622  11.980
94523SOL    HW185466   5.772  10.571  11.913
94523SOL    HW285467   5.786  10.712  11.967
94524SOL     OW85468   8.539  12.342   9.475
94524SOL    HW185469   8.490  12.275   9.523
94524SOL    HW285470   8.626  12.341   9.515
94525SOL     OW85471   2.350  11.927   2.025
94525SOL    HW185472   2.408  11.951   2.097
94525SOL    HW285473   2.371  11.835   2.007
94526SOL     OW85474   2.294   5.184   6.933
94526SOL    HW185475   2.289   5.089   6.923
94526SOL    HW285476   2.264   5.218   6.849
94527SOL     OW85477  12.242   8.195   9.772
94527SOL    HW185478  12.175   8.180   9.705
94527SOL    HW285479  12.274   8.284   9.754
94528SOL     OW85480   3.893   1.023   1.523
94528SOL    HW185481   3.815   1.014   1.468
94528SOL    HW285482   3.964   0.987   1.469
94529SOL     OW85483   5.168   6.342   1.712
94529SOL    HW185484   5.235   6.365   1.776
94529SOL    HW285485   5.218   6.320   1.633
94530SOL     OW85486   5.365   7.890  11.676
94530SOL    HW185487   5.388   7.803  11.644
94530SOL    HW285488   5.377   7.947  11.600
94531SOL     OW85489   2.484   1.524   0.156
94531SOL    HW185490   2.481   1.434   0.187
94531SOL    HW285491   2.463   1.519   0.063
94532SOL     OW85492  12.304   1.954  10.363
94532SOL    HW185493  12.243   1.992  10.300
94532SOL    HW285494  12.254   1.884  10.405
94533SOL     OW85495  11.065   1.171   4.974
94533SOL    HW185496  10.992   1.119   5.010
94533SOL    HW285497  11.143   1.123   5.001
94534SOL     OW85498   0.995  13.386   1.886
94534SOL    HW185499   0.952  13.416   1.967
94534SOL    HW285500   1.088  13.397   1.903
94535SOL     OW85501  14.385   5.765   3.875
94535SOL    HW185502  14.451   5.824   3.911
94535SOL    HW285503  14.359   5.710   3.948
94536SOL     OW85504   9.409   3.771   9.397
94536SOL    HW185505   9.314   3.775   9.386
94536SOL    HW285506   9.423   3.688   9.443
94537SOL     OW85507  10.935  10.041   3.488
94537SOL    HW185508  10.890  10.029   3.404
94537SOL    HW285509  10.968  10.130   3.485
94538SOL     OW85510   7.566  13.015   0.877
94538SOL    HW185511   7.510  12.937   0.883
94538SOL    HW285512   7.590  13.035   0.967
94539SOL     OW85513   5.939  11.796   3.081
94539SOL    HW185514   6.020  11.745   3.086
94539SOL    HW285515   5.906  11.797   3.171
94540SOL     OW85516  10.905  12.659   2.449
94540SOL    HW185517  10.944  12.580   2.413
94540SOL    HW285518  10.895  12.717   2.373
94541SOL     OW85519  12.655   2.707  11.237
94541SOL    HW185520  12.629   2.655  11.162
94541SOL    HW285521  12.746   2.683  11.254
94542SOL     OW85522   8.566   2.572   8.571
94542SOL    HW185523   8.608   2.496   8.531
94542SOL    HW285524   8.480   2.577   8.529
94543SOL     OW85525  10.067   5.806  13.892
94543SOL    HW185526  10.084   5.899  13.901
94543SOL    HW285527  10.075   5.789  13.798
94544SOL     OW85528  13.770   2.663   8.430
94544SOL    HW185529  13.761   2.618   8.514
94544SOL    HW285530  13.813   2.599   8.373
94545SOL     OW85531   0.015  10.269   6.016
94545SOL    HW185532  14.817  10.256   6.071
94545SOL    HW285533  14.871  10.340   5.957
94546SOL     OW85534  14.570   7.379   3.610
94546SOL    HW185535  14.652   7.330   3.607
94546SOL    HW285536  14.523   7.351   3.532
94547SOL     OW85537   7.386   9.431  10.623
94547SOL    HW185538   7.427   9.372  10.685
94547SOL    HW285539   7.293   9.432  10.648
94548SOL     OW85540   5.017   3.842   8.177
94548SOL    HW185541   5.072   3.846   8.099
94548SOL    HW285542   5.003   3.934   8.201
94549SOL     OW85543  12.396  10.932   7.179
94549SOL    HW185544  12.374  10.873   7.251
94549SOL    HW285545  12.436  11.008   7.221
94550SOL     OW85546  13.726   9.694   8.072
94550SOL    HW185547  13.657   9.632   8.048
94550SOL    HW285548  13.679   9.769   8.107
94551SOL     OW85549   7.269  14.855  13.017
94551SOL    HW185550   7.362  14.873  13.026
94551SOL    HW285551   7.251  14.865  12.924
94552SOL     OW85552  10.881   5.357   0.802
94552SOL    HW185553  10.948   5.307   0.849
94552SOL    HW285554  10.866   5.307   0.722
94553SOL     OW85555   4.297  14.044  12.723
94553SOL    HW185556   4.308  14.003  12.808
94553SOL    HW285557   4.355  13.994  12.665
94554SOL     OW85558  11.362   8.985   8.831
94554SOL    HW185559  11.358   9.053   8.898
94554SOL    HW285560  11.424   8.921   8.866
94555SOL     OW85561   0.535   5.213  14.543
94555SOL    HW185562   0.588   5.166  14.478
94555SOL    HW285563   0.588   5.289  14.567
94556SOL     OW85564   1.593   9.926   8.618
94556SOL    HW185565   1.517   9.885   8.577
94556SOL    HW285566   1.641   9.854   8.659
94557SOL     OW85567   6.976   9.077  14.514
94557SOL    HW185568   7.069   9.091  14.533
94557SOL    HW285569   6.944   9.027  14.589
94558SOL     OW85570   3.686  13.100   9.475
94558SOL    HW185571   3.655  13.080   9.563
94558SOL    HW285572   3.780  13.118   9.487
94559SOL     OW85573  10.205   2.079   1.311
94559SOL    HW185574  10.263   2.148   1.281
94559SOL    HW285575  10.166   2.044   1.230
94560SOL     OW85576   3.647   2.788  11.560
94560SOL    HW185577   3.630   2.729  11.634
94560SOL    HW285578   3.579   2.855  11.568
94561SOL     OW85579   5.739  14.257  13.135
94561SOL    HW185580   5.822  14.213  13.155
94561SOL    HW285581   5.755  14.301  13.051
94562SOL     OW85582   8.517   1.036  14.606
94562SOL    HW185583   8.452   1.023  14.675
94562SOL    HW285584   8.551   0.948  14.588
94563SOL     OW85585   1.986   4.319  13.288
94563SOL    HW185586   2.044   4.376  13.237
94563SOL    HW285587   1.972   4.242  13.232
94564SOL     OW85588   9.521  14.051   9.998
94564SOL    HW185589   9.517  13.966  10.042
94564SOL    HW285590   9.584  14.037   9.927
94565SOL     OW85591   0.540   8.160   4.283
94565SOL    HW185592   0.568   8.183   4.195
94565SOL    HW285593   0.559   8.237   4.336
94566SOL     OW85594  10.650   4.906   7.951
94566SOL    HW185595  10.594   4.984   7.959
94566SOL    HW285596  10.725   4.936   7.900
94567SOL     OW85597  10.672   3.722  13.971
94567SOL    HW185598  10.696   3.669  13.895
94567SOL    HW285599  10.698   3.669  14.046
94568SOL     OW85600   1.932  11.098  14.221
94568SOL    HW185601   1.869  11.135  14.158
94568SOL    HW285602   1.942  11.007  14.194
94569SOL     OW85603   8.956  10.175  12.854
94569SOL    HW185604   8.871  10.143  12.824
94569SOL    HW285605   9.002  10.097  12.883
94570SOL     OW85606   4.499  14.078   7.762
94570SOL    HW185607   4.592  14.073   7.742
94570SOL    HW285608   4.495  14.120   7.848
94571SOL     OW85609  11.815   8.214   1.468
94571SOL    HW185610  11.766   8.247   1.543
94571SOL    HW285611  11.759   8.233   1.392
94572SOL     OW85612   0.848   0.203   3.584
94572SOL    HW185613   0.875   0.214   3.493
94572SOL    HW285614   0.875   0.114   3.606
94573SOL     OW85615   1.820   4.314   5.131
94573SOL    HW185616   1.868   4.320   5.214
94573SOL    HW285617   1.889   4.313   5.064
94574SOL     OW85618  14.824   7.343   5.415
94574SOL    HW185619  14.736   7.374   5.398
94574SOL    HW285620  14.824   7.252   5.385
94575SOL     OW85621  14.776   4.015   3.046
94575SOL    HW185622  14.712   3.947   3.026
94575SOL    HW285623  14.861   3.972   3.036
94576SOL     OW85624   3.644  12.901  13.839
94576SOL    HW185625   3.628  12.958  13.915
94576SOL    HW285626   3.689  12.958  13.776
94577SOL     OW85627   0.142   0.033   1.290
94577SOL    HW185628   0.221   0.043   1.344
94577SOL    HW285629   0.164   0.077   1.208
94578SOL     OW85630   9.857   4.422  10.517
94578SOL    HW185631   9.897   4.431  10.603
94578SOL    HW285632   9.779   4.368  10.532
94579SOL     OW85633  10.059   1.872   0.808
94579SOL    HW185634   9.969   1.850   0.785
94579SOL    HW285635  10.108   1.791   0.797
94580SOL     OW85636  12.285   7.191   9.559
94580SOL    HW185637  12.224   7.258   9.528
94580SOL    HW285638  12.235   7.140   9.622
94581SOL     OW85639   9.847  11.059   1.633
94581SOL    HW185640   9.814  11.096   1.715
94581SOL    HW285641   9.773  11.066   1.572
94582SOL     OW85642  12.632   5.039  12.331
94582SOL    HW185643  12.716   5.085  12.329
94582SOL    HW285644  12.577   5.086  12.269
94583SOL     OW85645   4.191  12.984   7.598
94583SOL    HW185646   4.107  12.952   7.629
94583SOL    HW285647   4.220  13.046   7.665
94584SOL     OW85648   9.412   7.850   3.964
94584SOL    HW185649   9.380   7.760   3.961
94584SOL    HW285650   9.420   7.871   4.057
94585SOL     OW85651  12.419   4.028   7.072
94585SOL    HW185652  12.433   3.969   6.999
94585SOL    HW285653  12.339   4.075   7.050
94586SOL     OW85654   1.457   6.358   9.011
94586SOL    HW185655   1.515   6.317   8.947
94586SOL    HW285656   1.392   6.290   9.030
94587SOL     OW85657   0.255  12.640   9.449
94587SOL    HW185658   0.161  12.627   9.463
94587SOL    HW285659   0.284  12.687   9.528
94588SOL     OW85660   6.842  13.474   3.190
94588SOL    HW185661   6.832  13.379   3.201
94588SOL    HW285662   6.752  13.507   3.185
94589SOL     OW85663   9.792   2.606   1.039
94589SOL    HW185664   9.763   2.535   0.982
94589SOL    HW285665   9.731   2.605   1.112
94590SOL     OW85666   7.653   9.491   7.063
94590SOL    HW185667   7.658   9.560   6.997
94590SOL    HW285668   7.605   9.420   7.019
94591SOL     OW85669  13.576  14.713   5.174
94591SOL    HW185670  13.532  14.687   5.093
94591SOL    HW285671  13.551  14.804   5.187
94592SOL     OW85672   5.903   9.724   2.515
94592SOL    HW185673   5.968   9.702   2.449
94592SOL    HW285674   5.850   9.792   2.475
94593SOL     OW85675   5.974   8.901  14.782
94593SOL    HW185676   6.041   8.969  14.779
94593SOL    HW285677   6.015   8.825  14.742
94594SOL     OW85678   7.543   3.238  11.309
94594SOL    HW185679   7.611   3.208  11.370
94594SOL    HW285680   7.538   3.332  11.323
94595SOL     OW85681  12.456  10.206   4.588
94595SOL    HW185682  12.546  10.238   4.597
94595SOL    HW285683  12.439  10.207   4.494
94596SOL     OW85684  13.913  12.101  13.680
94596SOL    HW185685  13.833  12.084  13.630
94596SOL    HW285686  13.922  12.025  13.737
94597SOL     OW85687   2.112   1.754   8.542
94597SOL    HW185688   2.056   1.831   8.549
94597SOL    HW285689   2.183   1.780   8.484
94598SOL     OW85690  12.320   7.302  10.358
94598SOL    HW185691  12.402   7.347  10.375
94598SOL    HW285692  12.346   7.216  10.326
94599SOL     OW85693   0.296   4.934  14.386
94599SOL    HW185694   0.233   5.000  14.357
94599SOL    HW285695   0.255   4.893  14.462
94600SOL     OW85696   7.980  14.856   6.488
94600SOL    HW185697   8.027   0.032   6.550
94600SOL    HW285698   8.036  14.854   6.411
94601SOL     OW85699   6.986   5.190   6.476
94601SOL    HW185700   7.055   5.160   6.417
94601SOL    HW285701   7.032   5.237   6.545
94602SOL     OW85702   1.905   1.859  14.079
94602SOL    HW185703   1.945   1.871  14.166
94602SOL    HW285704   1.821   1.817  14.097
94603SOL     OW85705  11.083   8.454   9.955
94603SOL    HW185706  11.161   8.409   9.922
94603SOL    HW285707  11.103   8.472  10.047
94604SOL     OW85708   0.997   3.134  13.869
94604SOL    HW185709   0.959   3.049  13.847
94604SOL    HW285710   0.926   3.180  13.915
94605SOL     OW85711   7.291  13.625  12.701
94605SOL    HW185712   7.205  13.625  12.657
94605SOL    HW285713   7.279  13.566  12.776
94606SOL     OW85714  12.124  10.410  14.825
94606SOL    HW185715  12.172  10.359  14.760
94606SOL    HW285716  12.070  10.470  14.774
94607SOL     OW85717  14.693   3.700   1.800
94607SOL    HW185718  14.725   3.619   1.761
94607SOL    HW285719  14.762   3.764   1.782
94608SOL     OW85720   5.222   8.093   8.675
94608SOL    HW185721   5.284   8.107   8.747
94608SOL    HW285722   5.183   8.007   8.694
94609SOL     OW85723  14.001  11.224   4.974
94609SOL    HW185724  13.981  11.134   4.948
94609SOL    HW285725  13.965  11.277   4.903
94610SOL     OW85726   2.910   9.180   9.126
94610SOL    HW185727   2.820   9.170   9.155
94610SOL    HW285728   2.962   9.138   9.195
94611SOL     OW85729   6.713   1.004  12.740
94611SOL    HW185730   6.779   1.054  12.787
94611SOL    HW285731   6.630   1.037  12.772
94612SOL     OW85732   5.903   4.680   8.537
94612SOL    HW185733   5.841   4.607   8.544
94612SOL    HW285734   5.985   4.645   8.574
94613SOL     OW85735   6.127   5.944  12.234
94613SOL    HW185736   6.050   5.998  12.221
94613SOL    HW285737   6.195   5.986  12.181
94614SOL     OW85738  12.061   1.619  12.503
94614SOL    HW185739  12.015   1.703  12.502
94614SOL    HW285740  12.154   1.643  12.494
94615SOL     OW85741   8.926  11.886   1.127
94615SOL    HW185742   8.917  11.919   1.216
94615SOL    HW285743   8.912  11.792   1.135
94616SOL     OW85744   1.154   0.634  13.899
94616SOL    HW185745   1.204   0.589  13.831
94616SOL    HW285746   1.063   0.609  13.882
94617SOL     OW85747  12.364   8.767  10.886
94617SOL    HW185748  12.378   8.735  10.797
94617SOL    HW285749  12.315   8.849  10.875
94618SOL     OW85750   6.358  14.415   0.876
94618SOL    HW185751   6.432  14.399   0.817
94618SOL    HW285752   6.398  14.447   0.957
94619SOL     OW85753  10.984   4.208  13.484
94619SOL    HW185754  10.932   4.268  13.431
94619SOL    HW285755  10.928   4.132  13.496
94620SOL     OW85756  13.202   2.618   4.303
94620SOL    HW185757  13.271   2.602   4.367
94620SOL    HW285758  13.248   2.646   4.224
94621SOL     OW85759  10.431   5.922  10.628
94621SOL    HW185760  10.407   5.847  10.575
94621SOL    HW285761  10.525   5.933  10.612
94622SOL     OW85762   3.898   7.380   1.285
94622SOL    HW185763   3.900   7.460   1.233
94622SOL    HW285764   3.977   7.332   1.260
94623SOL     OW85765  14.142  13.737  11.675
94623SOL    HW185766  14.183  13.678  11.611
94623SOL    HW285767  14.153  13.825  11.637
94624SOL     OW85768  10.346   3.675   2.711
94624SOL    HW185769  10.322   3.759   2.749
94624SOL    HW285770  10.379   3.697   2.624
94625SOL     OW85771   1.170  11.878  10.443
94625SOL    HW185772   1.244  11.819  10.451
94625SOL    HW285773   1.119  11.865  10.523
94626SOL     OW85774   0.967   6.391   3.953
94626SOL    HW185775   0.933   6.466   3.903
94626SOL    HW285776   1.058   6.384   3.927
94627SOL     OW85777  10.224   1.766  12.025
94627SOL    HW185778  10.129   1.772  12.013
94627SOL    HW285779  10.237   1.681  12.066
94628SOL     OW85780   9.698   7.647  10.373
94628SOL    HW185781   9.755   7.680  10.304
94628SOL    HW285782   9.689   7.719  10.435
94629SOL     OW85783   5.864   3.276   2.853
94629SOL    HW185784   5.806   3.338   2.809
94629SOL    HW285785   5.915   3.329   2.914
94630SOL     OW85786   0.196  14.482  14.810
94630SOL    HW185787   0.187  14.573  14.781
94630SOL    HW285788   0.128  14.472  14.877
94631SOL     OW85789  12.098   3.064   7.246
94631SOL    HW185790  12.064   3.148   7.278
94631SOL    HW285791  12.065   3.000   7.309
94632SOL     OW85792   3.681   2.056   4.647
94632SOL    HW185793   3.635   1.989   4.596
94632SOL    HW285794   3.772   2.049   4.619
94633SOL     OW85795   7.147  14.614   5.991
94633SOL    HW185796   7.076  14.594   5.930
94633SOL    HW285797   7.115  14.690   6.041
94634SOL     OW85798   2.642  10.803  12.606
94634SOL    HW185799   2.550  10.781  12.593
94634SOL    HW285800   2.641  10.875  12.669
94635SOL     OW85801   9.161  11.106   8.464
94635SOL    HW185802   9.150  11.161   8.542
94635SOL    HW285803   9.072  11.098   8.429
94636SOL     OW85804   0.918   5.873   7.845
94636SOL    HW185805   0.850   5.846   7.783
94636SOL    HW285806   0.885   5.845   7.931
94637SOL     OW85807   2.921   0.912   4.550
94637SOL    HW185808   2.903   1.005   4.559
94637SOL    HW285809   2.950   0.884   4.637
94638SOL     OW85810  13.179  12.868   6.291
94638SOL    HW185811  13.248  12.823   6.341
94638SOL    HW285812  13.106  12.875   6.353
94639SOL     OW85813   8.387   3.016   3.949
94639SOL    HW185814   8.352   3.096   3.987
94639SOL    HW285815   8.398   2.956   4.023
94640SOL     OW85816   7.905   9.965   3.840
94640SOL    HW185817   7.988   9.993   3.878
94640SOL    HW285818   7.850   9.944   3.915
94641SOL     OW85819   8.325  11.357   2.829
94641SOL    HW185820   8.372  11.293   2.775
94641SOL    HW285821   8.233  11.334   2.818
94642SOL     OW85822   9.274   4.850  13.115
94642SOL    HW185823   9.316   4.789  13.055
94642SOL    HW285824   9.250   4.796  13.191
94643SOL     OW85825   8.091  13.089  11.988
94643SOL    HW185826   8.170  13.107  11.936
94643SOL    HW285827   8.125  13.070  12.076
94644SOL     OW85828   1.684   1.114   7.048
94644SOL    HW185829   1.614   1.179   7.060
94644SOL    HW285830   1.716   1.096   7.136
94645SOL     OW85831  14.347  10.669  13.835
94645SOL    HW185832  14.394  10.712  13.906
94645SOL    HW285833  14.346  10.734  13.764
94646SOL     OW85834  13.059  14.189   5.523
94646SOL    HW185835  13.144  14.150   5.500
94646SOL    HW285836  13.019  14.211   5.439
94647SOL     OW85837   0.833   8.691  11.546
94647SOL    HW185838   0.920   8.732  11.546
94647SOL    HW285839   0.825   8.652  11.633
94648SOL     OW85840   7.192   7.544   7.905
94648SOL    HW185841   7.107   7.513   7.937
94648SOL    HW285842   7.223   7.603   7.974
94649SOL     OW85843   3.327  12.551   0.530
94649SOL    HW185844   3.282  12.618   0.478
94649SOL    HW285845   3.257  12.502   0.572
94650SOL     OW85846  10.786   0.017   3.415
94650SOL    HW185847  10.760   0.108   3.431
94650SOL    HW285848  10.719  14.863   3.355
94651SOL     OW85849  14.490  12.301  14.096
94651SOL    HW185850  14.539  12.349  14.029
94651SOL    HW285851  14.465  12.219  14.053
94652SOL     OW85852   9.074  10.332  10.996
94652SOL    HW185853   9.098  10.318  11.087
94652SOL    HW285854   9.141  10.286  10.945
94653SOL     OW85855  10.348   9.221   5.913
94653SOL    HW185856  10.380   9.229   5.823
94653SOL    HW285857  10.284   9.149   5.909
94654SOL     OW85858   5.733   6.395  11.423
94654SOL    HW185859   5.697   6.413  11.336
94654SOL    HW285860   5.784   6.473  11.445
94655SOL     OW85861   7.180  11.359  10.888
94655SOL    HW185862   7.087  11.342  10.900
94655SOL    HW285863   7.184  11.413  10.809
94656SOL     OW85864   9.875   7.524  14.827
94656SOL    HW185865   9.952   7.483  14.788
94656SOL    HW285866   9.806   7.514  14.761
94657SOL     OW85867   6.584   4.220  11.679
94657SOL    HW185868   6.646   4.148  11.675
94657SOL    HW285869   6.498   4.178  11.681
94658SOL     OW85870  11.453  10.917  14.667
94658SOL    HW185871  11.475  10.824  14.663
94658SOL    HW285872  11.498  10.956  14.592
94659SOL     OW85873   9.076  14.253   2.801
94659SOL    HW185874   9.009  14.221   2.741
94659SOL    HW285875   9.061  14.348   2.807
94660SOL     OW85876   8.168   1.655   3.827
94660SOL    HW185877   8.143   1.586   3.765
94660SOL    HW285878   8.199   1.609   3.904
94661SOL     OW85879   9.520   0.177   0.715
94661SOL    HW185880   9.462   0.101   0.706
94661SOL    HW285881   9.510   0.224   0.633
94662SOL     OW85882   4.411  12.203   6.097
94662SOL    HW185883   4.487  12.189   6.040
94662SOL    HW285884   4.336  12.171   6.046
94663SOL     OW85885   4.291   1.927   8.116
94663SOL    HW185886   4.340   1.944   8.197
94663SOL    HW285887   4.353   1.949   8.046
94664SOL     OW85888   1.437   0.447   3.105
94664SOL    HW185889   1.504   0.492   3.053
94664SOL    HW285890   1.483   0.370   3.140
94665SOL     OW85891   7.102   8.483  13.846
94665SOL    HW185892   7.027   8.539  13.828
94665SOL    HW285893   7.135   8.512  13.931
94666SOL     OW85894   0.859   2.351   5.837
94666SOL    HW185895   0.869   2.354   5.932
94666SOL    HW285896   0.772   2.389   5.821
94667SOL     OW85897   2.731  12.408   9.801
94667SOL    HW185898   2.662  12.473   9.817
94667SOL    HW285899   2.778  12.441   9.725
94668SOL     OW85900   2.698  13.807  12.779
94668SOL    HW185901   2.638  13.739  12.749
94668SOL    HW285902   2.683  13.813  12.873
94669SOL     OW85903   2.769   9.926   6.282
94669SOL    HW185904   2.776   9.887   6.195
94669SOL    HW285905   2.833   9.997   6.282
94670SOL     OW85906  12.674  13.778   0.317
94670SOL    HW185907  12.660  13.872   0.304
94670SOL    HW285908  12.741  13.773   0.385
94671SOL     OW85909   1.851   6.088   5.633
94671SOL    HW185910   1.835   6.169   5.585
94671SOL    HW285911   1.768   6.069   5.677
94672SOL     OW85912   4.488   5.578  11.998
94672SOL    HW185913   4.482   5.557  12.091
94672SOL    HW285914   4.408   5.625  11.978
94673SOL     OW85915   6.340  14.102   8.426
94673SOL    HW185916   6.320  14.177   8.483
94673SOL    HW285917   6.431  14.081   8.445
94674SOL     OW85918   4.542   2.105  12.374
94674SOL    HW185919   4.555   2.045  12.301
94674SOL    HW285920   4.529   2.049  12.450
94675SOL     OW85921   2.879  12.497   8.387
94675SOL    HW185922   2.953  12.545   8.349
94675SOL    HW285923   2.868  12.535   8.474
94676SOL     OW85924   4.235   9.448   3.552
94676SOL    HW185925   4.227   9.543   3.558
94676SOL    HW285926   4.144   9.417   3.547
94677SOL     OW85927  14.015   6.771   4.643
94677SOL    HW185928  13.928   6.793   4.610
94677SOL    HW285929  14.067   6.757   4.564
94678SOL     OW85930  12.017  12.015   3.427
94678SOL    HW185931  12.043  11.933   3.387
94678SOL    HW285932  11.961  12.057   3.362
94679SOL     OW85933   9.618   4.947  11.878
94679SOL    HW185934   9.637   4.921  11.788
94679SOL    HW285935   9.526   4.925  11.890
94680SOL     OW85936   5.708   9.072   8.793
94680SOL    HW185937   5.624   9.033   8.818
94680SOL    HW285938   5.704   9.161   8.827
94681SOL     OW85939  11.866   0.031  12.221
94681SOL    HW185940  11.854  14.816  12.217
94681SOL    HW285941  11.957   0.043  12.247
94682SOL     OW85942  10.844   1.132   9.370
94682SOL    HW185943  10.756   1.097   9.358
94682SOL    HW285944  10.893   1.100   9.294
94683SOL     OW85945  11.574  10.647   4.422
94683SOL    HW185946  11.662  10.641   4.460
94683SOL    HW285947  11.516  10.659   4.497
94684SOL     OW85948   9.935  14.645   5.182
94684SOL    HW185949  10.031  14.646   5.172
94684SOL    HW285950   9.905  14.583   5.117
94685SOL     OW85951   3.648  12.173   2.952
94685SOL    HW185952   3.602  12.098   2.990
94685SOL    HW285953   3.734  12.172   2.992
94686SOL     OW85954  11.573   6.345   6.054
94686SOL    HW185955  11.487   6.362   6.015
94686SOL    HW285956  11.561   6.264   6.103
94687SOL     OW85957   7.671  10.742  13.257
94687SOL    HW185958   7.607  10.671  13.265
94687SOL    HW285959   7.751  10.699  13.226
94688SOL     OW85960   7.268   1.414   1.342
94688SOL    HW185961   7.344   1.442   1.394
94688SOL    HW285962   7.268   1.318   1.350
94689SOL     OW85963  12.455  14.061   0.808
94689SOL    HW185964  12.520  14.117   0.852
94689SOL    HW285965  12.397  14.033   0.878
94690SOL     OW85966   6.679   8.941   6.356
94690SOL    HW185967   6.659   8.910   6.445
94690SOL    HW285968   6.637   9.027   6.352
94691SOL     OW85969   9.002  13.870  12.350
94691SOL    HW185970   8.998  13.955  12.306
94691SOL    HW285971   8.927  13.822  12.316
94692SOL     OW85972  11.540   0.275   3.211
94692SOL    HW185973  11.578   0.195   3.175
94692SOL    HW285974  11.477   0.303   3.145
94693SOL     OW85975   2.962   4.621  11.814
94693SOL    HW185976   3.003   4.542  11.780
94693SOL    HW285977   3.002   4.692  11.764
94694SOL     OW85978   9.859   7.543   7.564
94694SOL    HW185979   9.826   7.545   7.654
94694SOL    HW285980   9.794   7.591   7.513
94695SOL     OW85981   1.951  12.698   3.400
94695SOL    HW185982   1.957  12.652   3.484
94695SOL    HW285983   1.910  12.634   3.341
94696SOL     OW85984  13.266  13.436   8.785
94696SOL    HW185985  13.212  13.439   8.706
94696SOL    HW285986  13.290  13.527   8.801
94697SOL     OW85987   1.290   7.234  11.824
94697SOL    HW185988   1.210   7.182  11.823
94697SOL    HW285989   1.263   7.318  11.863
94698SOL     OW85990   3.329   1.156  12.354
94698SOL    HW185991   3.288   1.242  12.366
94698SOL    HW285992   3.324   1.140  12.260
94699SOL     OW85993  13.520   7.208  14.332
94699SOL    HW185994  13.497   7.248  14.248
94699SOL    HW285995  13.528   7.282  14.392
94700SOL     OW85996   5.469   6.915   2.015
94700SOL    HW185997   5.517   6.858   1.956
94700SOL    HW285998   5.500   7.003   1.994
94701SOL     OW85999   2.212  11.366   4.348
94701SOL    HW186000   2.294  11.415   4.338
94701SOL    HW286001   2.145  11.434   4.362
94702SOL     OW86002   9.100  11.416   1.291
94702SOL    HW186003   9.122  11.487   1.352
94702SOL    HW286004   9.183  11.371   1.277
94703SOL     OW86005   1.282   9.354  14.533
94703SOL    HW186006   1.316   9.313  14.454
94703SOL    HW286007   1.224   9.423  14.502
94704SOL     OW86008   4.705   6.213   6.654
94704SOL    HW186009   4.778   6.176   6.704
94704SOL    HW286010   4.742   6.292   6.614
94705SOL     OW86011   4.669   5.591   2.566
94705SOL    HW186012   4.642   5.602   2.474
94705SOL    HW286013   4.733   5.661   2.580
94706SOL     OW86014   2.374  12.852   6.676
94706SOL    HW186015   2.425  12.798   6.616
94706SOL    HW286016   2.428  12.859   6.755
94707SOL     OW86017   3.091   7.911   1.676
94707SOL    HW186018   3.055   7.866   1.600
94707SOL    HW286019   3.042   7.876   1.751
94708SOL     OW86020  10.710   4.665   3.015
94708SOL    HW186021  10.627   4.640   2.973
94708SOL    HW286022  10.716   4.759   3.002
94709SOL     OW86023   6.628   3.193   3.747
94709SOL    HW186024   6.597   3.107   3.777
94709SOL    HW286025   6.723   3.182   3.737
94710SOL     OW86026  12.700   7.843   7.121
94710SOL    HW186027  12.705   7.811   7.031
94710SOL    HW286028  12.683   7.937   7.112
94711SOL     OW86029   8.127   9.595   0.591
94711SOL    HW186030   8.173   9.596   0.508
94711SOL    HW286031   8.197   9.590   0.657
94712SOL     OW86032   6.631   8.543   4.970
94712SOL    HW186033   6.581   8.583   5.041
94712SOL    HW286034   6.666   8.616   4.920
94713SOL     OW86035  11.324  13.457   5.897
94713SOL    HW186036  11.293  13.459   5.988
94713SOL    HW286037  11.416  13.429   5.904
94714SOL     OW86038   6.255   8.496   8.074
94714SOL    HW186039   6.351   8.498   8.073
94714SOL    HW286040   6.233   8.495   8.167
94715SOL     OW86041   3.563   7.664   0.696
94715SOL    HW186042   3.523   7.577   0.691
94715SOL    HW286043   3.622   7.667   0.621
94716SOL     OW86044   7.543   2.740   7.446
94716SOL    HW186045   7.516   2.682   7.374
94716SOL    HW286046   7.461   2.771   7.484
94717SOL     OW86047  12.729   5.679   0.675
94717SOL    HW186048  12.792   5.607   0.669
94717SOL    HW286049  12.775   5.746   0.724
94718SOL     OW86050   0.722   1.217   2.030
94718SOL    HW186051   0.646   1.164   2.007
94718SOL    HW286052   0.690   1.278   2.096
94719SOL     OW86053  13.821   6.241   8.815
94719SOL    HW186054  13.733   6.206   8.801
94719SOL    HW286055  13.879   6.175   8.779
94720SOL     OW86056  13.444  13.410   1.957
94720SOL    HW186057  13.450  13.505   1.959
94720SOL    HW286058  13.350  13.392   1.951
94721SOL     OW86059   4.024  13.203   7.318
94721SOL    HW186060   4.075  13.272   7.275
94721SOL    HW286061   4.070  13.122   7.295
94722SOL     OW86062   3.450   7.768   8.049
94722SOL    HW186063   3.498   7.850   8.058
94722SOL    HW286064   3.362   7.788   8.080
94723SOL     OW86065   8.461   2.543   4.196
94723SOL    HW186066   8.415   2.478   4.248
94723SOL    HW286067   8.527   2.579   4.256
94724SOL     OW86068  13.088   8.993   2.710
94724SOL    HW186069  13.182   8.996   2.727
94724SOL    HW286070  13.047   8.987   2.797
94725SOL     OW86071  11.645   5.213   6.945
94725SOL    HW186072  11.728   5.167   6.961
94725SOL    HW286073  11.585   5.145   6.915
94726SOL     OW86074  14.446   2.420   6.427
94726SOL    HW186075  14.418   2.431   6.337
94726SOL    HW286076  14.540   2.401   6.420
94727SOL     OW86077   9.336  12.326   2.389
94727SOL    HW186078   9.305  12.287   2.471
94727SOL    HW286079   9.258  12.329   2.333
94728SOL     OW86080  12.192   2.181   8.012
94728SOL    HW186081  12.173   2.245   8.082
94728SOL    HW286082  12.119   2.192   7.951
94729SOL     OW86083  13.928   5.156   2.082
94729SOL    HW186084  13.863   5.125   2.145
94729SOL    HW286085  13.964   5.075   2.044
94730SOL     OW86086   3.412  12.878  10.559
94730SOL    HW186087   3.321  12.901  10.576
94730SOL    HW286088   3.438  12.934  10.485
94731SOL     OW86089  14.289   4.045   1.715
94731SOL    HW186090  14.272   4.013   1.626
94731SOL    HW286091  14.320   3.969   1.763
94732SOL     OW86092  11.867   0.868   8.667
94732SOL    HW186093  11.932   0.900   8.605
94732SOL    HW286094  11.884   0.774   8.674
94733SOL     OW86095  12.287   0.917   7.960
94733SOL    HW186096  12.298   0.845   8.022
94733SOL    HW286097  12.331   0.886   7.880
94734SOL     OW86098   3.979   0.670   6.566
94734SOL    HW186099   3.889   0.704   6.570
94734SOL    HW286100   3.996   0.636   6.653
94735SOL     OW86101  13.865   9.329  13.025
94735SOL    HW186102  13.945   9.293  13.063
94735SOL    HW286103  13.871   9.423  13.043
94736SOL     OW86104   7.112   3.916  13.966
94736SOL    HW186105   7.144   4.006  13.956
94736SOL    HW286106   7.089   3.888  13.878
94737SOL     OW86107   8.569   7.903   2.863
94737SOL    HW186108   8.550   7.817   2.825
94737SOL    HW286109   8.488   7.929   2.907
94738SOL     OW86110  12.986   9.991   8.701
94738SOL    HW186111  12.962   9.908   8.742
94738SOL    HW286112  12.907  10.044   8.706
94739SOL     OW86113  12.161   2.875   2.945
94739SOL    HW186114  12.189   2.783   2.951
94739SOL    HW286115  12.074   2.876   2.985
94740SOL     OW86116  13.884  10.687   3.853
94740SOL    HW186117  13.878  10.652   3.764
94740SOL    HW286118  13.901  10.610   3.908
94741SOL     OW86119   2.749  10.493   0.995
94741SOL    HW186120   2.775  10.462   0.908
94741SOL    HW286121   2.831  10.512   1.039
94742SOL     OW86122   6.140   5.715   4.885
94742SOL    HW186123   6.108   5.655   4.818
94742SOL    HW286124   6.190   5.781   4.837
94743SOL     OW86125  12.575   9.421   6.773
94743SOL    HW186126  12.511   9.357   6.805
94743SOL    HW286127  12.552   9.433   6.681
94744SOL     OW86128   5.931   6.069   3.637
94744SOL    HW186129   5.999   6.034   3.694
94744SOL    HW286130   5.915   6.158   3.670
94745SOL     OW86131   2.776   4.293   1.878
94745SOL    HW186132   2.816   4.245   1.951
94745SOL    HW286133   2.798   4.242   1.801
94746SOL     OW86134   4.232   0.345   1.155
94746SOL    HW186135   4.140   0.347   1.179
94746SOL    HW286136   4.251   0.434   1.125
94747SOL     OW86137   4.548  12.355   3.453
94747SOL    HW186138   4.516  12.440   3.424
94747SOL    HW286139   4.626  12.339   3.399
94748SOL     OW86140   0.932   5.005  11.314
94748SOL    HW186141   0.939   4.911  11.297
94748SOL    HW286142   0.966   5.016  11.403
94749SOL     OW86143  12.449  10.595  10.730
94749SOL    HW186144  12.473  10.545  10.808
94749SOL    HW286145  12.514  10.570  10.665
94750SOL     OW86146  10.205   3.827   1.107
94750SOL    HW186147  10.118   3.816   1.071
94750SOL    HW286148  10.208   3.918   1.136
94751SOL     OW86149   9.152   1.895   3.819
94751SOL    HW186150   9.158   1.964   3.753
94751SOL    HW286151   9.200   1.822   3.782
94752SOL     OW86152   5.284   8.276   2.898
94752SOL    HW186153   5.272   8.368   2.920
94752SOL    HW286154   5.203   8.234   2.927
94753SOL     OW86155   2.171   9.336  12.004
94753SOL    HW186156   2.252   9.382  12.028
94753SOL    HW286157   2.200   9.248  11.978
94754SOL     OW86158   4.388   5.971  12.815
94754SOL    HW186159   4.397   6.067  12.817
94754SOL    HW286160   4.461   5.940  12.869
94755SOL     OW86161  11.565   1.855   7.191
94755SOL    HW186162  11.635   1.791   7.181
94755SOL    HW286163  11.521   1.831   7.272
94756SOL     OW86164   6.432  12.904   1.894
94756SOL    HW186165   6.442  12.971   1.961
94756SOL    HW286166   6.342  12.871   1.906
94757SOL     OW86167  14.714   9.854  10.691
94757SOL    HW186168  14.636   9.900  10.659
94757SOL    HW286169  14.727   9.888  10.779
94758SOL     OW86170   5.160   5.664   7.526
94758SOL    HW186171   5.250   5.669   7.495
94758SOL    HW286172   5.129   5.754   7.524
94759SOL     OW86173   6.350   6.685   3.502
94759SOL    HW186174   6.362   6.778   3.480
94759SOL    HW286175   6.272   6.659   3.452
94760SOL     OW86176  13.124   1.297   8.816
94760SOL    HW186177  13.030   1.281   8.805
94760SOL    HW286178  13.154   1.329   8.731
94761SOL     OW86179   1.572   7.896   4.709
94761SOL    HW186180   1.614   7.885   4.623
94761SOL    HW286181   1.569   7.807   4.745
94762SOL     OW86182   3.450   3.397   0.590
94762SOL    HW186183   3.455   3.327   0.525
94762SOL    HW286184   3.541   3.413   0.615
94763SOL     OW86185   8.780   4.145   5.452
94763SOL    HW186186   8.755   4.119   5.363
94763SOL    HW286187   8.857   4.091   5.472
94764SOL     OW86188   9.521  13.143   8.493
94764SOL    HW186189   9.548  13.185   8.411
94764SOL    HW286190   9.597  13.090   8.518
94765SOL     OW86191   8.385  10.708   7.352
94765SOL    HW186192   8.380  10.655   7.431
94765SOL    HW286193   8.446  10.661   7.295
94766SOL     OW86194   8.037  11.865   0.491
94766SOL    HW186195   8.114  11.918   0.509
94766SOL    HW286196   7.963  11.926   0.498
94767SOL     OW86197  10.864   1.301   4.334
94767SOL    HW186198  10.910   1.222   4.358
94767SOL    HW286199  10.854   1.350   4.416
94768SOL     OW86200  10.018   4.581   2.925
94768SOL    HW186201  10.035   4.502   2.977
94768SOL    HW286202  10.071   4.570   2.846
94769SOL     OW86203  14.457   7.937   5.680
94769SOL    HW186204  14.496   7.860   5.639
94769SOL    HW286205  14.381   7.904   5.728
94770SOL     OW86206   4.059   5.618  13.853
94770SOL    HW186207   4.093   5.531  13.874
94770SOL    HW286208   4.056   5.620  13.757
94771SOL     OW86209   4.337  11.005   7.193
94771SOL    HW186210   4.322  10.943   7.121
94771SOL    HW286211   4.424  10.983   7.226
94772SOL     OW86212  12.577   7.418   0.428
94772SOL    HW186213  12.505   7.401   0.367
94772SOL    HW286214  12.645   7.355   0.404
94773SOL     OW86215  10.958   1.725   0.343
94773SOL    HW186216  11.008   1.712   0.424
94773SOL    HW286217  11.022   1.713   0.273
94774SOL     OW86218   2.604   4.679   3.589
94774SOL    HW186219   2.533   4.677   3.652
94774SOL    HW286220   2.626   4.772   3.580
94775SOL     OW86221  13.226   7.494   5.797
94775SOL    HW186222  13.236   7.548   5.875
94775SOL    HW286223  13.215   7.405   5.831
94776SOL     OW86224  13.169   6.996   3.793
94776SOL    HW186225  13.194   6.926   3.853
94776SOL    HW286226  13.095   7.040   3.836
94777SOL     OW86227   6.165   6.876   0.015
94777SOL    HW186228   6.194   6.967   0.016
94777SOL    HW286229   6.095   6.874  14.829
94778SOL     OW86230   5.285   9.460   4.354
94778SOL    HW186231   5.304   9.546   4.392
94778SOL    HW286232   5.194   9.443   4.376
94779SOL     OW86233  12.634  13.276  13.617
94779SOL    HW186234  12.544  13.255  13.593
94779SOL    HW286235  12.683  13.195  13.599
94780SOL     OW86236   3.356   5.708  11.361
94780SOL    HW186237   3.327   5.717  11.270
94780SOL    HW286238   3.380   5.797  11.387
94781SOL     OW86239   3.941   0.239   1.638
94781SOL    HW186240   3.956   0.205   1.727
94781SOL    HW286241   3.973   0.329   1.641
94782SOL     OW86242   6.718  13.490  13.526
94782SOL    HW186243   6.649  13.535  13.575
94782SOL    HW286244   6.705  13.519  13.435
94783SOL     OW86245   5.843   9.441   4.488
94783SOL    HW186246   5.750   9.420   4.496
94783SOL    HW286247   5.887   9.383   4.551
94784SOL     OW86248   0.377   1.085   4.205
94784SOL    HW186249   0.444   1.136   4.160
94784SOL    HW286250   0.420   1.051   4.283
94785SOL     OW86251   2.550   1.744  13.264
94785SOL    HW186252   2.520   1.697  13.187
94785SOL    HW286253   2.478   1.735  13.327
94786SOL     OW86254  14.378   0.237   4.778
94786SOL    HW186255  14.328   0.298   4.723
94786SOL    HW286256  14.395   0.287   4.858
94787SOL     OW86257  13.181   9.026  14.801
94787SOL    HW186258  13.266   9.016  14.759
94787SOL    HW286259  13.118   9.028  14.728
94788SOL     OW86260   6.834   4.677  10.606
94788SOL    HW186261   6.793   4.755  10.571
94788SOL    HW286262   6.836   4.691  10.701
94789SOL     OW86263   9.489  10.896  14.043
94789SOL    HW186264   9.579  10.928  14.038
94789SOL    HW286265   9.468  10.871  13.953
94790SOL     OW86266   9.408   8.885   5.125
94790SOL    HW186267   9.327   8.835   5.129
94790SOL    HW286268   9.473   8.823   5.092
94791SOL     OW86269   3.794   1.735  10.507
94791SOL    HW186270   3.729   1.766  10.570
94791SOL    HW286271   3.777   1.642  10.499
94792SOL     OW86272   0.264   1.826   8.591
94792SOL    HW186273   0.237   1.901   8.538
94792SOL    HW286274   0.248   1.750   8.535
94793SOL     OW86275   8.231   4.550   8.692
94793SOL    HW186276   8.225   4.523   8.601
94793SOL    HW286277   8.143   4.538   8.726
94794SOL     OW86278   0.387  11.331  11.046
94794SOL    HW186279   0.444  11.405  11.067
94794SOL    HW286280   0.426  11.257  11.093
94795SOL     OW86281  13.378   1.755   7.885
94795SOL    HW186282  13.289   1.790   7.874
94795SOL    HW286283  13.424   1.821   7.937
94796SOL     OW86284   8.605  14.024   1.315
94796SOL    HW186285   8.673  14.030   1.248
94796SOL    HW286286   8.650  14.046   1.397
94797SOL     OW86287  12.442   0.864   2.867
94797SOL    HW186288  12.511   0.930   2.867
94797SOL    HW286289  12.487   0.782   2.886
94798SOL     OW86290  11.776   6.729   6.847
94798SOL    HW186291  11.756   6.698   6.758
94798SOL    HW286292  11.754   6.822   6.846
94799SOL     OW86293   8.036  11.435   1.535
94799SOL    HW186294   8.014  11.354   1.490
94799SOL    HW286295   8.107  11.411   1.595
94800SOL     OW86296   0.883  14.670   8.423
94800SOL    HW186297   0.832  14.723   8.362
94800SOL    HW286298   0.836  14.587   8.427
94801SOL     OW86299  13.314   3.769   2.162
94801SOL    HW186300  13.336   3.770   2.255
94801SOL    HW286301  13.337   3.681   2.132
94802SOL     OW86302   9.632   2.194   7.238
94802SOL    HW186303   9.639   2.248   7.317
94802SOL    HW286304   9.611   2.107   7.270
94803SOL     OW86305  13.395  13.183   8.649
94803SOL    HW186306  13.302  13.200   8.664
94803SOL    HW286307  13.427  13.146   8.731
94804SOL     OW86308   5.607   1.562   3.137
94804SOL    HW186309   5.549   1.532   3.067
94804SOL    HW286310   5.665   1.625   3.095
94805SOL     OW86311   0.184   9.790   1.539
94805SOL    HW186312   0.175   9.766   1.631
94805SOL    HW286313   0.265   9.842   1.536
94806SOL     OW86314   8.388   0.577   5.876
94806SOL    HW186315   8.409   0.668   5.858
94806SOL    HW286316   8.379   0.536   5.790
94807SOL     OW86317   1.878   1.610   0.313
94807SOL    HW186318   1.948   1.545   0.312
94807SOL    HW286319   1.890   1.658   0.231
94808SOL     OW86320   8.766   6.975  13.609
94808SOL    HW186321   8.726   6.889  13.595
94808SOL    HW286322   8.739   7.000  13.698
94809SOL     OW86323  14.592   2.925   9.012
94809SOL    HW186324  14.673   2.932   8.962
94809SOL    HW286325  14.525   2.905   8.947
94810SOL     OW86326   1.103  13.206   6.824
94810SOL    HW186327   1.146  13.286   6.794
94810SOL    HW286328   1.143  13.136   6.773
94811SOL     OW86329   4.349  14.538   1.982
94811SOL    HW186330   4.345  14.634   1.976
94811SOL    HW286331   4.405  14.521   2.058
94812SOL     OW86332   4.551   9.043  10.843
94812SOL    HW186333   4.585   9.030  10.755
94812SOL    HW286334   4.576   9.133  10.865
94813SOL     OW86335   5.253   0.983   8.337
94813SOL    HW186336   5.315   0.981   8.264
94813SOL    HW286337   5.300   1.029   8.407
94814SOL     OW86338   8.621   5.295  12.080
94814SOL    HW186339   8.602   5.388  12.094
94814SOL    HW286340   8.548   5.249  12.123
94815SOL     OW86341  12.813   2.484  14.083
94815SOL    HW186342  12.829   2.560  14.027
94815SOL    HW286343  12.901   2.458  14.113
94816SOL     OW86344   4.662  12.111   5.695
94816SOL    HW186345   4.688  12.190   5.647
94816SOL    HW286346   4.689  12.039   5.637
94817SOL     OW86347  11.266   8.064   7.764
94817SOL    HW186348  11.245   7.970   7.759
94817SOL    HW286349  11.360   8.068   7.744
94818SOL     OW86350  14.184   6.058   3.052
94818SOL    HW186351  14.106   6.105   3.022
94818SOL    HW286352  14.174   6.054   3.147
94819SOL     OW86353  10.041  14.816   8.219
94819SOL    HW186354   9.966  14.772   8.179
94819SOL    HW286355  10.116  14.762   8.195
94820SOL     OW86356   9.698   0.001   1.516
94820SOL    HW186357   9.763  14.869   1.446
94820SOL    HW286358   9.620   0.035   1.472
94821SOL     OW86359   6.144   1.985   7.865
94821SOL    HW186360   6.180   1.937   7.791
94821SOL    HW286361   6.182   2.072   7.858
94822SOL     OW86362  13.749   7.109   7.967
94822SOL    HW186363  13.788   7.080   8.049
94822SOL    HW286364  13.821   7.151   7.919
94823SOL     OW86365   9.317   0.103  14.751
94823SOL    HW186366   9.270   0.053  14.684
94823SOL    HW286367   9.294   0.194  14.733
94824SOL     OW86368   7.534   5.903  14.646
94824SOL    HW186369   7.621   5.874  14.618
94824SOL    HW286370   7.484   5.823  14.657
94825SOL     OW86371   1.157   7.856  12.060
94825SOL    HW186372   1.084   7.902  12.019
94825SOL    HW286373   1.222   7.847  11.990
94826SOL     OW86374   7.383   3.430   9.639
94826SOL    HW186375   7.458   3.408   9.584
94826SOL    HW286376   7.418   3.428   9.728
94827SOL     OW86377  11.191   1.558   9.710
94827SOL    HW186378  11.195   1.573   9.805
94827SOL    HW286379  11.263   1.610   9.674
94828SOL     OW86380   2.566  12.761  11.142
94828SOL    HW186381   2.507  12.709  11.087
94828SOL    HW286382   2.544  12.736  11.232
94829SOL     OW86383  14.302  12.865   6.317
94829SOL    HW186384  14.320  12.920   6.240
94829SOL    HW286385  14.247  12.794   6.282
94830SOL     OW86386  11.044   9.648   9.453
94830SOL    HW186387  11.060   9.740   9.430
94830SOL    HW286388  11.046   9.646   9.548
94831SOL     OW86389  10.637  10.834  10.756
94831SOL    HW186390  10.632  10.877  10.841
94831SOL    HW286391  10.546  10.817  10.732
94832SOL     OW86392   7.092   8.059   5.334
94832SOL    HW186393   7.031   8.126   5.306
94832SOL    HW286394   7.150   8.046   5.258
94833SOL     OW86395   6.139   1.329   4.540
94833SOL    HW186396   6.228   1.295   4.549
94833SOL    HW286397   6.089   1.255   4.505
94834SOL     OW86398   3.202   0.736   9.857
94834SOL    HW186399   3.232   0.825   9.875
94834SOL    HW286400   3.282   0.689   9.833
94835SOL     OW86401  13.448  13.465   2.801
94835SOL    HW186402  13.384  13.535   2.794
94835SOL    HW286403  13.401  13.386   2.776
94836SOL     OW86404   6.018  11.580  13.351
94836SOL    HW186405   6.017  11.629  13.269
94836SOL    HW286406   6.110  11.571  13.373
94837SOL     OW86407   2.619  10.868   8.459
94837SOL    HW186408   2.570  10.786   8.470
94837SOL    HW286409   2.703  10.852   8.502
94838SOL     OW86410   7.421  13.481   7.507
94838SOL    HW186411   7.508  13.517   7.489
94838SOL    HW286412   7.408  13.416   7.438
94839SOL     OW86413   2.223   0.019   6.278
94839SOL    HW186414   2.273   0.054   6.352
94839SOL    HW286415   2.207   0.096   6.222
94840SOL     OW86416   5.097  14.208   0.540
94840SOL    HW186417   5.190  14.211   0.522
94840SOL    HW286418   5.060  14.156   0.468
94841SOL     OW86419   9.861  12.971   7.403
94841SOL    HW186420   9.882  12.899   7.462
94841SOL    HW286421   9.915  13.044   7.434
94842SOL     OW86422  12.098   7.152   6.488
94842SOL    HW186423  12.168   7.214   6.511
94842SOL    HW286424  12.137   7.066   6.503
94843SOL     OW86425   2.135   6.690   2.325
94843SOL    HW186426   2.077   6.741   2.382
94843SOL    HW286427   2.084   6.676   2.245
94844SOL     OW86428  10.653   9.114  12.852
94844SOL    HW186429  10.598   9.073  12.785
94844SOL    HW286430  10.602   9.189  12.883
94845SOL     OW86431  12.162   7.038   8.436
94845SOL    HW186432  12.104   7.039   8.512
94845SOL    HW286433  12.108   7.070   8.364
94846SOL     OW86434  11.114   4.850  13.369
94846SOL    HW186435  11.119   4.814  13.280
94846SOL    HW286436  11.038   4.908  13.368
94847SOL     OW86437  13.584  11.541   5.102
94847SOL    HW186438  13.679  11.535   5.092
94847SOL    HW286439  13.568  11.633   5.124
94848SOL     OW86440   8.077  13.547   6.308
94848SOL    HW186441   8.171  13.532   6.309
94848SOL    HW286442   8.061  13.606   6.381
94849SOL     OW86443   6.221   5.494   8.211
94849SOL    HW186444   6.141   5.530   8.172
94849SOL    HW286445   6.192   5.413   8.254
94850SOL     OW86446   1.806   6.938   7.602
94850SOL    HW186447   1.799   6.972   7.691
94850SOL    HW286448   1.761   7.003   7.548
94851SOL     OW86449   4.034  10.626  12.353
94851SOL    HW186450   4.053  10.641  12.445
94851SOL    HW286451   4.086  10.549  12.329
94852SOL     OW86452   4.262   6.655   5.236
94852SOL    HW186453   4.175   6.616   5.248
94852SOL    HW286454   4.271   6.665   5.142
94853SOL     OW86455  14.784   0.984  12.945
94853SOL    HW186456  14.697   0.970  12.983
94853SOL    HW286457  14.840   1.004  13.020
94854SOL     OW86458  13.544   7.404  12.569
94854SOL    HW186459  13.521   7.318  12.605
94854SOL    HW286460  13.529   7.464  12.642
94855SOL     OW86461   1.770  10.888   2.816
94855SOL    HW186462   1.766  10.883   2.912
94855SOL    HW286463   1.837  10.824   2.791
94856SOL     OW86464   8.290   1.094   5.899
94856SOL    HW186465   8.220   1.133   5.846
94856SOL    HW286466   8.335   1.169   5.938
94857SOL     OW86467   4.680  10.487   3.120
94857SOL    HW186468   4.722  10.570   3.144
94857SOL    HW286469   4.742  10.420   3.148
94858SOL     OW86470   8.065   5.854   8.770
94858SOL    HW186471   8.036   5.906   8.694
94858SOL    HW286472   8.135   5.799   8.735
94859SOL     OW86473   7.477   3.709   1.838
94859SOL    HW186474   7.511   3.619   1.844
94859SOL    HW286475   7.388   3.703   1.873
94860SOL     OW86476   4.166  10.689   2.251
94860SOL    HW186477   4.188  10.721   2.163
94860SOL    HW286478   4.220  10.611   2.262
94861SOL     OW86479   9.661  13.032   2.059
94861SOL    HW186480   9.655  12.938   2.043
94861SOL    HW286481   9.747  13.044   2.099
94862SOL     OW86482   9.468   3.501   4.113
94862SOL    HW186483   9.508   3.443   4.178
94862SOL    HW286484   9.541   3.527   4.056
94863SOL     OW86485   6.980   2.020  12.351
94863SOL    HW186486   6.894   1.981  12.361
94863SOL    HW286487   7.041   1.950  12.375
94864SOL     OW86488   0.880  10.749   3.801
94864SOL    HW186489   0.855  10.690   3.872
94864SOL    HW286490   0.976  10.749   3.802
94865SOL     OW86491   2.448   7.115   6.416
94865SOL    HW186492   2.356   7.133   6.396
94865SOL    HW286493   2.450   7.021   6.435
94866SOL     OW86494   3.757   2.593   7.919
94866SOL    HW186495   3.764   2.623   7.829
94866SOL    HW286496   3.782   2.501   7.916
94867SOL     OW86497  13.288   7.306   3.826
94867SOL    HW186498  13.343   7.357   3.766
94867SOL    HW286499  13.298   7.215   3.796
94868SOL     OW86500   5.198   4.476   8.047
94868SOL    HW186501   5.178   4.393   8.091
94868SOL    HW286502   5.278   4.458   7.997
94869SOL     OW86503   1.656  12.771  10.779
94869SOL    HW186504   1.566  12.770  10.811
94869SOL    HW286505   1.695  12.849  10.818
94870SOL     OW86506   3.525  12.408   7.756
94870SOL    HW186507   3.512  12.404   7.661
94870SOL    HW286508   3.617  12.433   7.766
94871SOL     OW86509   7.522   6.691  10.717
94871SOL    HW186510   7.572   6.612  10.695
94871SOL    HW286511   7.538   6.705  10.810
94872SOL     OW86512   4.903  13.999  10.727
94872SOL    HW186513   4.978  14.044  10.765
94872SOL    HW286514   4.832  14.064  10.729
94873SOL     OW86515   4.015   6.205  13.203
94873SOL    HW186516   4.081   6.250  13.150
94873SOL    HW286517   3.933   6.220  13.157
94874SOL     OW86518  13.716   3.187   7.870
94874SOL    HW186519  13.625   3.214   7.874
94874SOL    HW286520  13.713   3.097   7.837
94875SOL     OW86521  10.322   8.563  13.105
94875SOL    HW186522  10.360   8.514  13.032
94875SOL    HW286523  10.270   8.499  13.154
94876SOL     OW86524   9.121  11.112   9.608
94876SOL    HW186525   9.112  11.072   9.695
94876SOL    HW286526   9.093  11.202   9.620
94877SOL     OW86527   3.592   5.616   4.840
94877SOL    HW186528   3.640   5.688   4.881
94877SOL    HW286529   3.537   5.580   4.910
94878SOL     OW86530  10.835   2.372  10.348
94878SOL    HW186531  10.880   2.436  10.293
94878SOL    HW286532  10.842   2.290  10.299
94879SOL     OW86533  11.009  12.870  13.947
94879SOL    HW186534  10.991  12.964  13.944
94879SOL    HW286535  10.981  12.838  13.861
94880SOL     OW86536   6.783   7.524   6.480
94880SOL    HW186537   6.850   7.529   6.549
94880SOL    HW286538   6.776   7.430   6.461
94881SOL     OW86539   2.091   3.096  13.299
94881SOL    HW186540   2.132   3.145  13.227
94881SOL    HW286541   2.103   3.152  13.375
94882SOL     OW86542  11.118   3.192   2.683
94882SOL    HW186543  11.027   3.207   2.658
94882SOL    HW286544  11.169   3.252   2.628
94883SOL     OW86545   3.605  11.157  14.287
94883SOL    HW186546   3.690  11.181  14.250
94883SOL    HW286547   3.627  11.106  14.366
94884SOL     OW86548  11.133   0.459   1.131
94884SOL    HW186549  11.105   0.548   1.110
94884SOL    HW286550  11.161   0.422   1.047
94885SOL     OW86551  11.954   9.343  12.187
94885SOL    HW186552  11.937   9.416  12.246
94885SOL    HW286553  11.869   9.322  12.150
94886SOL     OW86554   1.429   2.570  13.013
94886SOL    HW186555   1.382   2.651  13.035
94886SOL    HW286556   1.361   2.510  12.984
94887SOL     OW86557   7.804   0.714   2.440
94887SOL    HW186558   7.825   0.735   2.531
94887SOL    HW286559   7.735   0.648   2.447
94888SOL     OW86560   8.067   6.336  10.888
94888SOL    HW186561   8.054   6.269  10.820
94888SOL    HW286562   8.133   6.395  10.851
94889SOL     OW86563   8.317   7.366   2.995
94889SOL    HW186564   8.269   7.331   2.920
94889SOL    HW286565   8.255   7.360   3.068
94890SOL     OW86566   0.793   2.610   4.185
94890SOL    HW186567   0.834   2.632   4.269
94890SOL    HW286568   0.718   2.555   4.209
94891SOL     OW86569   7.200   8.615   5.384
94891SOL    HW186570   7.183   8.677   5.314
94891SOL    HW286571   7.222   8.533   5.339
94892SOL     OW86572  13.858  10.142   8.023
94892SOL    HW186573  13.890  10.123   8.112
94892SOL    HW286574  13.936  10.139   7.968
94893SOL     OW86575  14.323   9.989  13.226
94893SOL    HW186576  14.362   9.942  13.152
94893SOL    HW286577  14.339  10.081  13.206
94894SOL     OW86578   6.982   5.460   6.111
94894SOL    HW186579   7.062   5.417   6.144
94894SOL    HW286580   7.014   5.520   6.044
94895SOL     OW86581   4.925   8.488  12.911
94895SOL    HW186582   4.845   8.488  12.964
94895SOL    HW286583   4.942   8.395  12.895
94896SOL     OW86584   5.243   9.511  11.658
94896SOL    HW186585   5.170   9.451  11.640
94896SOL    HW286586   5.204   9.580  11.712
94897SOL     OW86587   7.738   5.248   4.897
94897SOL    HW186588   7.757   5.256   4.991
94897SOL    HW286589   7.757   5.334   4.861
94898SOL     OW86590   7.240  13.566   8.390
94898SOL    HW186591   7.194  13.482   8.391
94898SOL    HW286592   7.329  13.543   8.362
94899SOL     OW86593   5.351  10.323   0.114
94899SOL    HW186594   5.346  10.386   0.185
94899SOL    HW286595   5.436  10.281   0.123
94900SOL     OW86596   3.640   8.714   2.453
94900SOL    HW186597   3.646   8.791   2.509
94900SOL    HW286598   3.701   8.651   2.491
94901SOL     OW86599   4.292   7.073   9.682
94901SOL    HW186600   4.215   7.029   9.645
94901SOL    HW286601   4.292   7.160   9.642
94902SOL     OW86602   7.470   0.803  12.629
94902SOL    HW186603   7.404   0.872  12.637
94902SOL    HW286604   7.524   0.830  12.554
94903SOL     OW86605  13.909   2.561   3.521
94903SOL    HW186606  13.925   2.524   3.434
94903SOL    HW286607  13.931   2.490   3.581
94904SOL     OW86608  12.938   0.790  14.781
94904SOL    HW186609  12.852   0.831  14.791
94904SOL    HW286610  12.986   0.848  14.722
94905SOL     OW86611   6.963   4.028   2.574
94905SOL    HW186612   6.939   4.089   2.644
94905SOL    HW286613   7.014   3.960   2.618
94906SOL     OW86614   4.288   5.709   4.035
94906SOL    HW186615   4.290   5.730   4.128
94906SOL    HW286616   4.195   5.708   4.013
94907SOL     OW86617   3.537  12.506  12.443
94907SOL    HW186618   3.586  12.461  12.512
94907SOL    HW286619   3.499  12.583  12.486
94908SOL     OW86620  13.975  14.643  12.674
94908SOL    HW186621  13.911  14.709  12.649
94908SOL    HW286622  13.931  14.590  12.741
94909SOL     OW86623   2.464  10.577   9.321
94909SOL    HW186624   2.448  10.540   9.234
94909SOL    HW286625   2.444  10.505   9.382
94910SOL     OW86626   8.848  12.597   3.367
94910SOL    HW186627   8.869  12.630   3.454
94910SOL    HW286628   8.825  12.674   3.316
94911SOL     OW86629  12.550   5.050   2.721
94911SOL    HW186630  12.541   4.976   2.781
94911SOL    HW286631  12.549   5.009   2.634
94912SOL     OW86632   8.138  11.688  14.012
94912SOL    HW186633   8.224  11.650  13.998
94912SOL    HW286634   8.143  11.774  13.971
94913SOL     OW86635  10.890   6.173   8.305
94913SOL    HW186636  10.893   6.107   8.236
94913SOL    HW286637  10.937   6.248   8.268
94914SOL     OW86638   6.264  13.615   0.639
94914SOL    HW186639   6.222  13.699   0.623
94914SOL    HW286640   6.191  13.552   0.644
94915SOL     OW86641  13.316   7.193   6.900
94915SOL    HW186642  13.240   7.226   6.852
94915SOL    HW286643  13.316   7.099   6.884
94916SOL     OW86644   3.941   5.888   4.647
94916SOL    HW186645   3.956   5.846   4.731
94916SOL    HW286646   3.960   5.980   4.662
94917SOL     OW86647   3.982  10.286  12.477
94917SOL    HW186648   3.916  10.343  12.516
94917SOL    HW286649   4.010  10.332  12.398
94918SOL     OW86650   0.416  11.537   8.127
94918SOL    HW186651   0.370  11.582   8.056
94918SOL    HW286652   0.386  11.581   8.206
94919SOL     OW86653   2.783   5.999  14.004
94919SOL    HW186654   2.753   6.090  14.000
94919SOL    HW286655   2.832   5.986  13.923
94920SOL     OW86656   3.727   5.644  12.970
94920SOL    HW186657   3.704   5.704  13.041
94920SOL    HW286658   3.815   5.670  12.944
94921SOL     OW86659   5.345   7.185   6.105
94921SOL    HW186660   5.380   7.131   6.034
94921SOL    HW286661   5.391   7.154   6.183
94922SOL     OW86662   6.989  12.422  13.526
94922SOL    HW186663   7.020  12.339  13.489
94922SOL    HW286664   6.949  12.397  13.610
94923SOL     OW86665  12.342   5.556  11.667
94923SOL    HW186666  12.338   5.463  11.643
94923SOL    HW286667  12.365   5.601  11.586
94924SOL     OW86668   3.996   9.248  10.094
94924SOL    HW186669   4.060   9.316  10.078
94924SOL    HW286670   3.971   9.217  10.007
94925SOL     OW86671  13.180   6.369  10.401
94925SOL    HW186672  13.184   6.459  10.370
94925SOL    HW286673  13.118   6.326  10.342
94926SOL     OW86674   1.842  14.760   0.006
94926SOL    HW186675   1.759  14.775  14.842
94926SOL    HW286676   1.850  14.831   0.069
94927SOL     OW86677  12.777   5.933   2.730
94927SOL    HW186678  12.820   6.005   2.684
94927SOL    HW286679  12.808   5.941   2.820
94928SOL     OW86680   5.885   4.281   3.651
94928SOL    HW186681   5.879   4.364   3.697
94928SOL    HW286682   5.873   4.303   3.558
94929SOL     OW86683   1.148  12.954   7.623
94929SOL    HW186684   1.211  12.888   7.592
94929SOL    HW286685   1.202  13.017   7.670
94930SOL     OW86686  11.106   3.947   0.273
94930SOL    HW186687  11.023   3.944   0.224
94930SOL    HW286688  11.163   4.002   0.219
94931SOL     OW86689  11.524   2.177   1.900
94931SOL    HW186690  11.572   2.094   1.907
94931SOL    HW286691  11.454   2.169   1.965
94932SOL     OW86692   2.920  13.468   3.255
94932SOL    HW186693   2.895  13.508   3.338
94932SOL    HW286694   2.946  13.541   3.200
94933SOL     OW86695  13.363   3.517   4.695
94933SOL    HW186696  13.274   3.485   4.707
94933SOL    HW286697  13.414   3.439   4.670
94934SOL     OW86698  10.425   4.322  13.188
94934SOL    HW186699  10.434   4.226  13.189
94934SOL    HW286700  10.492   4.352  13.127
94935SOL     OW86701   3.836   8.368   9.343
94935SOL    HW186702   3.773   8.429   9.305
94935SOL    HW286703   3.853   8.403   9.431
94936SOL     OW86704  11.777   3.480   4.279
94936SOL    HW186705  11.684   3.496   4.267
94936SOL    HW286706  11.819   3.532   4.211
94937SOL     OW86707   9.405   2.928   9.598
94937SOL    HW186708   9.452   2.859   9.645
94937SOL    HW286709   9.313   2.909   9.612
94938SOL     OW86710   0.486  13.588   4.444
94938SOL    HW186711   0.396  13.565   4.467
94938SOL    HW286712   0.530  13.600   4.528
94939SOL     OW86713   6.099  14.736   5.063
94939SOL    HW186714   6.035  14.674   5.028
94939SOL    HW286715   6.158  14.681   5.116
94940SOL     OW86716   7.697   4.443  13.247
94940SOL    HW186717   7.645   4.480  13.319
94940SOL    HW286718   7.632   4.424  13.179
94941SOL     OW86719   6.849  10.284   5.624
94941SOL    HW186720   6.899  10.249   5.698
94941SOL    HW286721   6.770  10.231   5.621
94942SOL     OW86722   5.799   4.405   4.163
94942SOL    HW186723   5.862   4.395   4.234
94942SOL    HW286724   5.809   4.496   4.134
94943SOL     OW86725   8.946  10.915   3.730
94943SOL    HW186726   8.895  10.995   3.719
94943SOL    HW286727   8.945  10.873   3.644
94944SOL     OW86728   0.829   7.603  14.388
94944SOL    HW186729   0.760   7.660  14.423
94944SOL    HW286730   0.906   7.658  14.383
94945SOL     OW86731   6.966  13.681  13.347
94945SOL    HW186732   7.037  13.622  13.323
94945SOL    HW286733   6.887  13.636  13.317
94946SOL     OW86734   5.524   1.959   9.443
94946SOL    HW186735   5.465   1.979   9.515
94946SOL    HW286736   5.612   1.972   9.480
94947SOL     OW86737  10.530   0.733   1.145
94947SOL    HW186738  10.589   0.779   1.204
94947SOL    HW286739  10.588   0.685   1.086
94948SOL     OW86740  12.895   5.535   0.990
94948SOL    HW186741  12.876   5.536   0.896
94948SOL    HW286742  12.847   5.459   1.023
94949SOL     OW86743   7.309  12.986   2.557
94949SOL    HW186744   7.285  12.990   2.650
94949SOL    HW286745   7.299  13.076   2.526
94950SOL     OW86746   5.157   2.559   8.418
94950SOL    HW186747   5.134   2.492   8.354
94950SOL    HW286748   5.167   2.511   8.500
94951SOL     OW86749  14.300   8.359   4.967
94951SOL    HW186750  14.230   8.294   4.971
94951SOL    HW286751  14.366   8.328   5.029
94952SOL     OW86752   9.905   4.664   0.860
94952SOL    HW186753   9.842   4.723   0.818
94952SOL    HW286754   9.893   4.679   0.954
94953SOL     OW86755  13.625  10.193   4.670
94953SOL    HW186756  13.543  10.157   4.637
94953SOL    HW286757  13.604  10.225   4.758
94954SOL     OW86758  10.763   6.316  11.281
94954SOL    HW186759  10.849   6.278  11.294
94954SOL    HW286760  10.739   6.291  11.192
94955SOL     OW86761   0.188   1.943  12.900
94955SOL    HW186762   0.247   1.874  12.929
94955SOL    HW286763   0.183   1.933  12.805
94956SOL     OW86764   7.498  12.994  10.460
94956SOL    HW186765   7.568  13.033  10.407
94956SOL    HW286766   7.539  12.917  10.500
94957SOL     OW86767   7.830  12.853   6.454
94957SOL    HW186768   7.781  12.889   6.528
94957SOL    HW286769   7.767  12.797   6.408
94958SOL     OW86770   4.799   6.684   9.822
94958SOL    HW186771   4.820   6.621   9.890
94958SOL    HW286772   4.884   6.715   9.790
94959SOL     OW86773  14.635  14.651   8.560
94959SOL    HW186774  14.686  14.725   8.525
94959SOL    HW286775  14.560  14.645   8.501
94960SOL     OW86776   5.975   3.215  11.563
94960SOL    HW186777   5.886   3.181  11.561
94960SOL    HW286778   6.001   3.219  11.471
94961SOL     OW86779   5.800   4.415  10.994
94961SOL    HW186780   5.809   4.507  11.019
94961SOL    HW286781   5.715   4.389  11.029
94962SOL     OW86782  14.723   0.475  12.206
94962SOL    HW186783  14.795   0.414  12.186
94962SOL    HW286784  14.736   0.548  12.146
94963SOL     OW86785   0.064   3.917  13.872
94963SOL    HW186786   0.043   4.000  13.914
94963SOL    HW286787   0.013   3.917  13.792
94964SOL     OW86788   0.236  13.868   7.984
94964SOL    HW186789   0.315  13.853   7.933
94964SOL    HW286790   0.241  13.959   8.011
94965SOL     OW86791   7.139  10.353   1.991
94965SOL    HW186792   7.169  10.444   1.999
94965SOL    HW286793   7.208  10.301   2.032
94966SOL     OW86794   9.405   7.512   0.202
94966SOL    HW186795   9.334   7.562   0.161
94966SOL    HW286796   9.481   7.528   0.146
94967SOL     OW86797   8.597  14.203   3.902
94967SOL    HW186798   8.585  14.111   3.926
94967SOL    HW286799   8.690  14.220   3.919
94968SOL     OW86800   7.955  13.424   7.262
94968SOL    HW186801   7.861  13.424   7.243
94968SOL    HW286802   7.996  13.448   7.178
94969SOL     OW86803   8.481   5.087  12.995
94969SOL    HW186804   8.547   5.137  12.948
94969SOL    HW286805   8.512   4.996  12.992
94970SOL     OW86806   9.835   0.922   7.493
94970SOL    HW186807   9.853   0.873   7.413
94970SOL    HW286808   9.901   0.991   7.495
94971SOL     OW86809  10.741   3.784   6.289
94971SOL    HW186810  10.791   3.769   6.209
94971SOL    HW286811  10.656   3.742   6.273
94972SOL     OW86812   4.200   7.520  14.807
94972SOL    HW186813   4.260   7.511  14.732
94972SOL    HW286814   4.245   7.581  14.866
94973SOL     OW86815  13.198  14.682   9.567
94973SOL    HW186816  13.174  14.674   9.659
94973SOL    HW286817  13.184  14.594   9.531
94974SOL     OW86818   5.873   1.604   4.911
94974SOL    HW186819   5.781   1.623   4.894
94974SOL    HW286820   5.900   1.549   4.837
94975SOL     OW86821   8.572   5.631   8.100
94975SOL    HW186822   8.526   5.659   8.179
94975SOL    HW286823   8.550   5.698   8.035
94976SOL     OW86824  10.339   7.968   3.248
94976SOL    HW186825  10.388   7.971   3.330
94976SOL    HW286826  10.258   7.921   3.270
94977SOL     OW86827   9.811  11.851   5.526
94977SOL    HW186828   9.820  11.876   5.434
94977SOL    HW286829   9.898  11.862   5.562
94978SOL     OW86830  12.940   4.700   5.392
94978SOL    HW186831  13.021   4.749   5.376
94978SOL    HW286832  12.879   4.765   5.426
94979SOL     OW86833   3.072   6.798   1.287
94979SOL    HW186834   3.115   6.840   1.362
94979SOL    HW286835   3.028   6.722   1.323
94980SOL     OW86836  13.210  12.483   9.505
94980SOL    HW186837  13.253  12.459   9.587
94980SOL    HW286838  13.253  12.430   9.438
94981SOL     OW86839   2.186  12.891  13.180
94981SOL    HW186840   2.278  12.885  13.153
94981SOL    HW286841   2.187  12.866  13.273
94982SOL     OW86842   4.831   3.904  12.700
94982SOL    HW186843   4.775   3.827  12.709
94982SOL    HW286844   4.774   3.971  12.663
94983SOL     OW86845  14.817   4.955   5.223
94983SOL    HW186846  14.766   4.922   5.149
94983SOL    HW286847   0.020   4.984   5.184
94984SOL     OW86848  12.119   9.824   8.900
94984SOL    HW186849  12.157   9.898   8.852
94984SOL    HW286850  12.195   9.777   8.935
94985SOL     OW86851   3.908   5.356   4.539
94985SOL    HW186852   3.818   5.377   4.516
94985SOL    HW286853   3.918   5.388   4.629
94986SOL     OW86854   6.896   2.521  11.986
94986SOL    HW186855   6.839   2.597  11.994
94986SOL    HW286856   6.855   2.465  11.920
94987SOL     OW86857   4.810  10.436   7.485
94987SOL    HW186858   4.794  10.390   7.567
94987SOL    HW286859   4.800  10.529   7.507
94988SOL     OW86860  13.316   9.534   1.300
94988SOL    HW186861  13.377   9.517   1.372
94988SOL    HW286862  13.230   9.539   1.342
94989SOL     OW86863   6.584   5.383   5.557
94989SOL    HW186864   6.648   5.401   5.488
94989SOL    HW286865   6.625   5.415   5.637
94990SOL     OW86866  14.732  12.783   2.073
94990SOL    HW186867  14.645  12.765   2.109
94990SOL    HW286868  14.732  12.877   2.057
94991SOL     OW86869  12.447   4.598  10.024
94991SOL    HW186870  12.429   4.524   9.967
94991SOL    HW286871  12.378   4.595  10.091
94992SOL     OW86872   9.362   4.151   5.702
94992SOL    HW186873   9.411   4.106   5.772
94992SOL    HW286874   9.272   4.121   5.713
94993SOL     OW86875  13.386   0.823   3.319
94993SOL    HW186876  13.339   0.827   3.403
94993SOL    HW286877  13.395   0.915   3.293
94994SOL     OW86878  11.371   8.378  14.729
94994SOL    HW186879  11.392   8.288  14.704
94994SOL    HW286880  11.346   8.420  14.647
94995SOL     OW86881   8.997  10.955   8.788
94995SOL    HW186882   8.977  10.894   8.859
94995SOL    HW286883   9.055  11.020   8.828
94996SOL     OW86884   9.558   9.608  14.799
94996SOL    HW186885   9.525   9.659  14.725
94996SOL    HW286886   9.564   9.672  14.871
94997SOL     OW86887   6.303  10.544  14.455
94997SOL    HW186888   6.355  10.595  14.393
94997SOL    HW286889   6.350  10.461  14.464
94998SOL     OW86890  12.217   7.868   6.638
94998SOL    HW186891  12.296   7.892   6.687
94998SOL    HW286892  12.163   7.947   6.640
94999SOL     OW86893   7.145   5.309  12.812
94999SOL    HW186894   7.085   5.341  12.744
94999SOL    HW286895   7.183   5.230  12.774
95000SOL     OW86896   4.757   9.584  11.489
95000SOL    HW186897   4.737   9.574  11.396
95000SOL    HW286898   4.851   9.604  11.491
95001SOL     OW86899   6.596   3.676   7.581
95001SOL    HW186900   6.587   3.581   7.588
95001SOL    HW286901   6.687   3.693   7.606
95002SOL     OW86902   1.249  12.593  12.133
95002SOL    HW186903   1.277  12.501  12.135
95002SOL    HW286904   1.288  12.631  12.212
95003SOL     OW86905   3.893   8.773  12.526
95003SOL    HW186906   3.929   8.750  12.441
95003SOL    HW286907   3.903   8.693  12.579
95004SOL     OW86908  13.563   9.689   5.564
95004SOL    HW186909  13.483   9.639   5.547
95004SOL    HW286910  13.534   9.780   5.565
95005SOL     OW86911   4.676  14.648   0.430
95005SOL    HW186912   4.713  14.712   0.368
95005SOL    HW286913   4.637  14.702   0.499
95006SOL     OW86914   9.458  12.716   0.919
95006SOL    HW186915   9.365  12.697   0.930
95006SOL    HW286916   9.470  12.720   0.824
95007SOL     OW86917  13.206  10.718   8.006
95007SOL    HW186918  13.237  10.748   8.091
95007SOL    HW286919  13.180  10.627   8.021
95008SOL     OW86920  11.131   8.063   4.969
95008SOL    HW186921  11.134   7.988   4.909
95008SOL    HW286922  11.067   8.123   4.929
95009SOL     OW86923  10.312   5.827   4.900
95009SOL    HW186924  10.325   5.830   4.995
95009SOL    HW286925  10.369   5.896   4.866
95010SOL     OW86926   2.300  12.643   4.838
95010SOL    HW186927   2.279  12.688   4.920
95010SOL    HW286928   2.295  12.550   4.861
95011SOL     OW86929  14.244   9.686   3.242
95011SOL    HW186930  14.309   9.678   3.311
95011SOL    HW286931  14.169   9.636   3.273
95012SOL     OW86932   4.950  12.460   9.430
95012SOL    HW186933   4.890  12.397   9.471
95012SOL    HW286934   5.035  12.442   9.470
95013SOL     OW86935   9.635  13.084  11.941
95013SOL    HW186936   9.591  13.053  11.862
95013SOL    HW286937   9.603  13.027  12.010
95014SOL     OW86938  10.125   5.838   8.170
95014SOL    HW186939  10.103   5.931   8.176
95014SOL    HW286940  10.211   5.836   8.127
95015SOL     OW86941   3.230   2.071   7.229
95015SOL    HW186942   3.295   2.135   7.258
95015SOL    HW286943   3.175   2.120   7.167
95016SOL     OW86944   6.229   8.817  13.522
95016SOL    HW186945   6.211   8.725  13.500
95016SOL    HW286946   6.151   8.864  13.492
95017SOL     OW86947   1.450   9.631  11.362
95017SOL    HW186948   1.502   9.679  11.298
95017SOL    HW286949   1.371   9.605  11.313
95018SOL     OW86950  14.462   1.670  10.564
95018SOL    HW186951  14.502   1.596  10.609
95018SOL    HW286952  14.455   1.641  10.473
95019SOL     OW86953   1.852   8.228   3.494
95019SOL    HW186954   1.912   8.265   3.559
95019SOL    HW286955   1.832   8.301   3.435
95020SOL     OW86956  12.857   4.175   8.041
95020SOL    HW186957  12.861   4.228   8.120
95020SOL    HW286958  12.883   4.087   8.070
95021SOL     OW86959  12.538   1.915  12.850
95021SOL    HW186960  12.548   1.821  12.837
95021SOL    HW286961  12.465   1.940  12.794
95022SOL     OW86962   4.923  11.108   8.725
95022SOL    HW186963   4.880  11.166   8.789
95022SOL    HW286964   4.916  11.021   8.763
95023SOL     OW86965   1.973   0.098  13.186
95023SOL    HW186966   2.048   0.043  13.208
95023SOL    HW286967   2.007   0.161  13.123
95024SOL     OW86968  12.435   8.752   6.819
95024SOL    HW186969  12.520   8.708   6.819
95024SOL    HW286970  12.386   8.711   6.891
95025SOL     OW86971   3.282   6.400  14.064
95025SOL    HW186972   3.323   6.395  14.150
95025SOL    HW286973   3.208   6.340  14.069
95026SOL     OW86974   2.447   0.891   0.741
95026SOL    HW186975   2.426   0.961   0.803
95026SOL    HW286976   2.406   0.813   0.778
95027SOL     OW86977   4.182   9.530  13.797
95027SOL    HW186978   4.117   9.600  13.802
95027SOL    HW286979   4.147   9.461  13.854
95028SOL     OW86980   9.509  10.666   4.190
95028SOL    HW186981   9.550  10.654   4.105
95028SOL    HW286982   9.437  10.728   4.174
95029SOL     OW86983  14.088  12.492  10.499
95029SOL    HW186984  14.082  12.581  10.464
95029SOL    HW286985  14.174  12.461  10.470
95030SOL     OW86986   1.790   3.704  13.824
95030SOL    HW186987   1.775   3.736  13.735
95030SOL    HW286988   1.873   3.743  13.850
95031SOL     OW86989   7.431   9.066  10.688
95031SOL    HW186990   7.448   9.130  10.757
95031SOL    HW286991   7.438   8.981  10.733
95032SOL     OW86992   2.078   1.075   9.110
95032SOL    HW186993   2.118   1.152   9.151
95032SOL    HW286994   2.105   1.080   9.018
95033SOL     OW86995   9.294   7.042   2.914
95033SOL    HW186996   9.349   6.974   2.876
95033SOL    HW286997   9.278   7.011   3.004
95034SOL     OW86998   8.216   5.276  12.687
95034SOL    HW186999   8.155   5.349  12.691
95034SOL    HW287000   8.294   5.312  12.645
95035SOL     OW87001  11.260  14.202   2.115
95035SOL    HW187002  11.276  14.296   2.107
95035SOL    HW287003  11.263  14.169   2.025
95036SOL     OW87004  11.259   7.182   6.386
95036SOL    HW187005  11.294   7.229   6.310
95036SOL    HW287006  11.191   7.125   6.349
95037SOL     OW87007   1.489   4.596   9.879
95037SOL    HW187008   1.458   4.582   9.790
95037SOL    HW287009   1.504   4.690   9.885
95038SOL     OW87010   2.844   4.719  10.857
95038SOL    HW187011   2.881   4.642  10.901
95038SOL    HW287012   2.769   4.685  10.808
95039SOL     OW87013  10.526  10.602  14.411
95039SOL    HW187014  10.533  10.654  14.491
95039SOL    HW287015  10.432  10.595  14.395
95040SOL     OW87016  11.745  12.232   7.128
95040SOL    HW187017  11.686  12.257   7.199
95040SOL    HW287018  11.745  12.307   7.069
95041SOL     OW87019   3.652   8.009   5.224
95041SOL    HW187020   3.647   7.953   5.301
95041SOL    HW287021   3.563   8.040   5.210
95042SOL     OW87022  13.317  12.829   3.353
95042SOL    HW187023  13.378  12.804   3.422
95042SOL    HW287024  13.235  12.785   3.377
95043SOL     OW87025   9.423   4.218  11.243
95043SOL    HW187026   9.449   4.237  11.333
95043SOL    HW287027   9.341   4.170  11.251
95044SOL     OW87028   0.200   1.311   5.610
95044SOL    HW187029   0.117   1.306   5.563
95044SOL    HW287030   0.266   1.294   5.543
95045SOL     OW87031  12.920   7.226   5.852
95045SOL    HW187032  12.882   7.279   5.922
95045SOL    HW287033  13.015   7.239   5.860
95046SOL     OW87034  11.018  10.701  11.123
95046SOL    HW187035  10.982  10.678  11.037
95046SOL    HW287036  11.055  10.788  11.111
95047SOL     OW87037  13.386   7.526   5.176
95047SOL    HW187038  13.476   7.496   5.162
95047SOL    HW287039  13.378   7.604   5.120
95048SOL     OW87040   1.233   0.130   7.800
95048SOL    HW187041   1.147   0.091   7.791
95048SOL    HW287042   1.228   0.183   7.880
95049SOL     OW87043   2.558  14.824  11.204
95049SOL    HW187044   2.638  14.872  11.181
95049SOL    HW287045   2.496   0.012  11.230
95050SOL     OW87046   4.865  11.943  12.250
95050SOL    HW187047   4.939  11.942  12.190
95050SOL    HW287048   4.838  11.851  12.256
95051SOL     OW87049   2.048   4.605   3.234
95051SOL    HW187050   2.133   4.640   3.262
95051SOL    HW287051   1.995   4.683   3.216
95052SOL     OW87052   4.039   6.068   0.149
95052SOL    HW187053   3.953   6.059   0.190
95052SOL    HW287054   4.090   5.994   0.183
95053SOL     OW87055   1.523   8.570  10.832
95053SOL    HW187056   1.600   8.532  10.790
95053SOL    HW287057   1.525   8.663  10.809
95054SOL     OW87058  13.244  10.910   2.960
95054SOL    HW187059  13.229  10.836   2.901
95054SOL    HW287060  13.290  10.872   3.034
95055SOL     OW87061   5.365  13.008   9.995
95055SOL    HW187062   5.372  13.062   9.917
95055SOL    HW287063   5.432  12.940   9.984
95056SOL     OW87064  11.365   1.335   0.253
95056SOL    HW187065  11.279   1.306   0.223
95056SOL    HW287066  11.360   1.431   0.250
95057SOL     OW87067   7.824   8.517   4.365
95057SOL    HW187068   7.780   8.496   4.447
95057SOL    HW287069   7.900   8.569   4.390
95058SOL     OW87070  11.072   7.342  11.653
95058SOL    HW187071  10.991   7.341  11.601
95058SOL    HW287072  11.113   7.426  11.631
95059SOL     OW87073   1.235   5.492  11.233
95059SOL    HW187074   1.190   5.462  11.312
95059SOL    HW287075   1.218   5.586  11.231
95060SOL     OW87076  10.214   0.563   8.858
95060SOL    HW187077  10.223   0.532   8.768
95060SOL    HW287078  10.154   0.500   8.899
95061SOL     OW87079  10.630   7.730   1.545
95061SOL    HW187080  10.550   7.741   1.493
95061SOL    HW287081  10.688   7.679   1.489
95062SOL     OW87082  14.707   0.082   0.413
95062SOL    HW187083  14.749   0.164   0.389
95062SOL    HW287084  14.678   0.044   0.330
95063SOL     OW87085   4.194  12.089   5.950
95063SOL    HW187086   4.236  12.071   5.866
95063SOL    HW287087   4.101  12.094   5.930
95064SOL     OW87088  12.949  14.205  14.602
95064SOL    HW187089  12.918  14.149  14.531
95064SOL    HW287090  12.990  14.144  14.664
95065SOL     OW87091   3.058   4.242   7.047
95065SOL    HW187092   3.113   4.194   6.985
95065SOL    HW287093   3.107   4.241   7.129
95066SOL     OW87094   1.968  13.054   8.798
95066SOL    HW187095   2.022  13.014   8.866
95066SOL    HW287096   2.026  13.120   8.759
95067SOL     OW87097   7.089  14.208  12.027
95067SOL    HW187098   7.156  14.185  11.963
95067SOL    HW287099   7.102  14.301  12.044
95068SOL     OW87100   6.807   4.339   1.648
95068SOL    HW187101   6.890   4.352   1.603
95068SOL    HW287102   6.832   4.323   1.739
95069SOL     OW87103   3.767   9.385   7.945
95069SOL    HW187104   3.818   9.457   7.981
95069SOL    HW287105   3.801   9.373   7.856
95070SOL     OW87106   5.325   1.037   5.402
95070SOL    HW187107   5.273   0.966   5.365
95070SOL    HW287108   5.399   0.994   5.444
95071SOL     OW87109  11.430  10.525  13.484
95071SOL    HW187110  11.486  10.509  13.560
95071SOL    HW287111  11.469  10.474  13.414
95072SOL     OW87112   5.050   9.452   3.505
95072SOL    HW187113   5.020   9.366   3.477
95072SOL    HW287114   5.143   9.455   3.481
95073SOL     OW87115   4.073   4.416  14.393
95073SOL    HW187116   3.988   4.378  14.371
95073SOL    HW287117   4.129   4.396  14.318
95074SOL     OW87118   4.334   5.887  13.917
95074SOL    HW187119   4.259   5.942  13.937
95074SOL    HW287120   4.350   5.838  13.998
95075SOL     OW87121   3.102   9.767   5.997
95075SOL    HW187122   3.115   9.763   5.902
95075SOL    HW287123   3.179   9.813   6.030
95076SOL     OW87124  10.262   3.735   0.721
95076SOL    HW187125  10.193   3.682   0.762
95076SOL    HW287126  10.217   3.788   0.656
95077SOL     OW87127   6.322  12.118   6.262
95077SOL    HW187128   6.320  12.045   6.201
95077SOL    HW287129   6.406  12.110   6.307
95078SOL     OW87130   6.314  13.198  10.645
95078SOL    HW187131   6.407  13.214  10.665
95078SOL    HW287132   6.289  13.272  10.590
95079SOL     OW87133  11.653   2.516   5.847
95079SOL    HW187134  11.629   2.589   5.904
95079SOL    HW287135  11.600   2.443   5.879
95080SOL     OW87136  12.995   6.779   2.303
95080SOL    HW187137  13.059   6.707   2.302
95080SOL    HW287138  12.948   6.768   2.386
95081SOL     OW87139  11.933  10.296  12.343
95081SOL    HW187140  12.005  10.240  12.313
95081SOL    HW287141  11.868  10.291  12.272
95082SOL     OW87142   2.431   7.889   4.380
95082SOL    HW187143   2.363   7.847   4.433
95082SOL    HW287144   2.477   7.946   4.442
95083SOL     OW87145   7.746   8.158   4.733
95083SOL    HW187146   7.820   8.177   4.676
95083SOL    HW287147   7.784   8.142   4.819
95084SOL     OW87148  11.853   1.332   4.715
95084SOL    HW187149  11.853   1.427   4.701
95084SOL    HW287150  11.946   1.308   4.718
95085SOL     OW87151   2.136  12.592  14.322
95085SOL    HW187152   2.143  12.589  14.417
95085SOL    HW287153   2.075  12.665  14.305
95086SOL     OW87154   0.871   8.154   9.330
95086SOL    HW187155   0.856   8.061   9.345
95086SOL    HW287156   0.873   8.163   9.235
95087SOL     OW87157   6.122   1.734  11.273
95087SOL    HW187158   6.217   1.737  11.286
95087SOL    HW287159   6.103   1.810  11.217
95088SOL     OW87160   5.573   1.418   5.712
95088SOL    HW187161   5.651   1.472   5.700
95088SOL    HW287162   5.506   1.460   5.660
95089SOL     OW87163  13.891   5.457   2.040
95089SOL    HW187164  13.899   5.505   2.122
95089SOL    HW287165  13.899   5.365   2.064
95090SOL     OW87166  10.419   9.063   2.575
95090SOL    HW187167  10.495   9.017   2.539
95090SOL    HW287168  10.405   9.023   2.661
95091SOL     OW87169   1.260  11.678  13.871
95091SOL    HW187170   1.214  11.762  13.864
95091SOL    HW287171   1.302  11.680  13.957
95092SOL     OW87172   6.010   0.364  10.122
95092SOL    HW187173   6.036   0.303  10.053
95092SOL    HW287174   5.969   0.437  10.076
95093SOL     OW87175   8.800   2.563  12.511
95093SOL    HW187176   8.832   2.560  12.601
95093SOL    HW287177   8.724   2.622  12.514
95094SOL     OW87178   8.588   3.175   5.376
95094SOL    HW187179   8.520   3.241   5.361
95094SOL    HW287180   8.610   3.184   5.469
95095SOL     OW87181   8.131  10.213   8.517
95095SOL    HW187182   8.219  10.189   8.490
95095SOL    HW287183   8.074  10.176   8.449
95096SOL     OW87184   0.429  11.527  14.387
95096SOL    HW187185   0.378  11.449  14.365
95096SOL    HW287186   0.459  11.512  14.477
95097SOL     OW87187  12.855   0.055   3.789
95097SOL    HW187188  12.936   0.038   3.741
95097SOL    HW287189  12.885   0.071   3.879
95098SOL     OW87190  10.017   2.107  10.678
95098SOL    HW187191   9.953   2.058  10.625
95098SOL    HW287192  10.094   2.113  10.622
95099SOL     OW87193   0.344   2.893   2.934
95099SOL    HW187194   0.324   2.973   2.984
95099SOL    HW287195   0.418   2.855   2.981
95100SOL     OW87196   0.373   7.756   0.949
95100SOL    HW187197   0.341   7.692   1.012
95100SOL    HW287198   0.317   7.745   0.872
95101SOL     OW87199  12.324  12.447   0.663
95101SOL    HW187200  12.390  12.414   0.601
95101SOL    HW287201  12.368  12.518   0.710
95102SOL     OW87202   8.670   0.236  14.715
95102SOL    HW187203   8.693   0.279  14.633
95102SOL    HW287204   8.742   0.176  14.731
95103SOL     OW87205   1.725  13.818   8.588
95103SOL    HW187206   1.675  13.896   8.565
95103SOL    HW287207   1.798  13.851   8.640
95104SOL     OW87208   4.364   0.671  14.511
95104SOL    HW187209   4.396   0.670  14.602
95104SOL    HW287210   4.388   0.584  14.478
95105SOL     OW87211   4.350   1.638  13.188
95105SOL    HW187212   4.305   1.564  13.230
95105SOL    HW287213   4.299   1.655  13.108
95106SOL     OW87214   7.325   8.665  10.092
95106SOL    HW187215   7.407   8.616  10.083
95106SOL    HW287216   7.315   8.712  10.009
95107SOL     OW87217   8.868   9.037   0.236
95107SOL    HW187218   8.960   9.055   0.254
95107SOL    HW287219   8.868   9.000   0.148
95108SOL     OW87220  14.265  11.263   5.902
95108SOL    HW187221  14.240  11.257   5.809
95108SOL    HW287222  14.237  11.351   5.928
95109SOL     OW87223   2.093   6.120   4.859
95109SOL    HW187224   2.022   6.056   4.849
95109SOL    HW287225   2.078   6.184   4.790
95110SOL     OW87226   6.103  11.000   3.382
95110SOL    HW187227   6.087  11.094   3.374
95110SOL    HW287228   6.021  10.964   3.416
95111SOL     OW87229   1.638   3.454  12.525
95111SOL    HW187230   1.621   3.531  12.580
95111SOL    HW287231   1.572   3.459  12.455
95112SOL     OW87232   9.613   5.087   2.214
95112SOL    HW187233   9.536   5.042   2.180
95112SOL    HW287234   9.686   5.052   2.162
95113SOL     OW87235   6.497   4.713   6.532
95113SOL    HW187236   6.449   4.792   6.558
95113SOL    HW287237   6.564   4.744   6.471
95114SOL     OW87238   6.719   9.168   7.514
95114SOL    HW187239   6.728   9.216   7.431
95114SOL    HW287240   6.735   9.077   7.490
95115SOL     OW87241   0.535   7.541   8.563
95115SOL    HW187242   0.540   7.486   8.640
95115SOL    HW287243   0.466   7.501   8.509
95116SOL     OW87244   7.853   8.992   0.078
95116SOL    HW187245   7.760   8.970   0.072
95116SOL    HW287246   7.887   8.935   0.147
95117SOL     OW87247   0.327  14.135   8.891
95117SOL    HW187248   0.312  14.204   8.826
95117SOL    HW287249   0.241  14.120   8.931
95118SOL     OW87250   4.197   4.165   3.272
95118SOL    HW187251   4.278   4.199   3.234
95118SOL    HW287252   4.144   4.139   3.197
95119SOL     OW87253  13.205   9.244   1.725
95119SOL    HW187254  13.285   9.289   1.697
95119SOL    HW287255  13.172   9.202   1.645
95120SOL     OW87256   2.697   6.750   2.666
95120SOL    HW187257   2.684   6.774   2.758
95120SOL    HW287258   2.707   6.833   2.620
95121SOL     OW87259   4.707   5.247   6.466
95121SOL    HW187260   4.754   5.255   6.549
95121SOL    HW287261   4.667   5.333   6.453
95122SOL     OW87262   0.130   0.323  12.088
95122SOL    HW187263   0.135   0.264  12.164
95122SOL    HW287264   0.181   0.278  12.020
95123SOL     OW87265  13.143   1.976  12.187
95123SOL    HW187266  13.113   1.952  12.275
95123SOL    HW287267  13.144   2.071  12.187
95124SOL     OW87268  12.330   5.079  11.262
95124SOL    HW187269  12.255   5.022  11.279
95124SOL    HW287270  12.295   5.168  11.271
95125SOL     OW87271  10.858  11.810   1.704
95125SOL    HW187272  10.853  11.751   1.780
95125SOL    HW287273  10.857  11.898   1.742
95126SOL     OW87274   0.780   4.871  12.018
95126SOL    HW187275   0.770   4.778  12.002
95126SOL    HW287276   0.765   4.882  12.112
95127SOL     OW87277   8.871  12.919   5.469
95127SOL    HW187278   8.891  12.961   5.553
95127SOL    HW287279   8.849  12.991   5.410
95128SOL     OW87280  14.065   8.541  11.690
95128SOL    HW187281  14.011   8.465  11.713
95128SOL    HW287282  14.021   8.580  11.615
95129SOL     OW87283   4.353   0.954  13.280
95129SOL    HW187284   4.372   0.992  13.366
95129SOL    HW287285   4.317   1.027  13.229
95130SOL     OW87286   6.401  10.749   5.412
95130SOL    HW187287   6.337  10.821   5.403
95130SOL    HW287288   6.460  10.778   5.482
95131SOL     OW87289   4.872  14.495   4.602
95131SOL    HW187290   4.779  14.499   4.622
95131SOL    HW287291   4.908  14.432   4.664
95132SOL     OW87292   8.188   8.194   7.210
95132SOL    HW187293   8.166   8.102   7.227
95132SOL    HW287294   8.246   8.218   7.283
95133SOL     OW87295  12.359   9.889  10.158
95133SOL    HW187296  12.359   9.841  10.241
95133SOL    HW287297  12.350   9.821  10.091
95134SOL     OW87298   8.127   1.007   1.532
95134SOL    HW187299   8.176   0.976   1.456
95134SOL    HW287300   8.117   0.930   1.588
95135SOL     OW87301   8.344   7.697   9.103
95135SOL    HW187302   8.305   7.758   9.041
95135SOL    HW287303   8.304   7.719   9.188
95136SOL     OW87304   1.498   7.967   3.668
95136SOL    HW187305   1.465   8.041   3.617
95136SOL    HW287306   1.593   7.977   3.665
95137SOL     OW87307   6.531  10.996   9.949
95137SOL    HW187308   6.550  11.007   9.855
95137SOL    HW287309   6.526  10.901   9.960
95138SOL     OW87310   5.261  13.744  13.578
95138SOL    HW187311   5.288  13.654  13.597
95138SOL    HW287312   5.188  13.734  13.516
95139SOL     OW87313   1.234  12.983  14.632
95139SOL    HW187314   1.292  13.009  14.703
95139SOL    HW287315   1.206  12.895  14.655
95140SOL     OW87316   8.939  12.872   6.313
95140SOL    HW187317   8.982  12.833   6.389
95140SOL    HW287318   8.900  12.953   6.346
95141SOL     OW87319   9.467   6.724  13.278
95141SOL    HW187320   9.494   6.792  13.215
95141SOL    HW287321   9.522   6.649  13.256
95142SOL     OW87322  10.745  10.047  13.964
95142SOL    HW187323  10.702  10.132  13.974
95142SOL    HW287324  10.724  10.000  14.044
95143SOL     OW87325   4.855  10.351  12.441
95143SOL    HW187326   4.824  10.439  12.419
95143SOL    HW287327   4.893  10.360  12.528
95144SOL     OW87328   9.990   7.444  13.010
95144SOL    HW187329   9.916   7.504  13.013
95144SOL    HW287330   9.982   7.392  13.090
95145SOL     OW87331   3.262  10.464   7.554
95145SOL    HW187332   3.269  10.491   7.462
95145SOL    HW287333   3.204  10.389   7.552
95146SOL     OW87334  11.167   1.154   6.595
95146SOL    HW187335  11.178   1.066   6.632
95146SOL    HW287336  11.172   1.212   6.670
95147SOL     OW87337  12.942  13.696  12.040
95147SOL    HW187338  12.909  13.615  12.077
95147SOL    HW287339  13.026  13.672  12.001
95148SOL     OW87340   6.993   7.171   2.596
95148SOL    HW187341   6.957   7.138   2.514
95148SOL    HW287342   6.918   7.209   2.642
95149SOL     OW87343   3.401   7.979  14.418
95149SOL    HW187344   3.472   8.039  14.397
95149SOL    HW287345   3.375   7.943  14.333
95150SOL     OW87346   6.391  11.077   3.774
95150SOL    HW187347   6.297  11.072   3.790
95150SOL    HW287348   6.399  11.079   3.679
95151SOL     OW87349   9.121   5.392   6.375
95151SOL    HW187350   9.181   5.398   6.301
95151SOL    HW287351   9.157   5.452   6.441
95152SOL     OW87352  11.821  10.604  10.388
95152SOL    HW187353  11.900  10.651  10.362
95152SOL    HW287354  11.753  10.639  10.331
95153SOL     OW87355   6.021  11.819   5.047
95153SOL    HW187356   6.055  11.785   4.964
95153SOL    HW287357   6.093  11.809   5.109
95154SOL     OW87358   5.842   9.593   9.262
95154SOL    HW187359   5.821   9.608   9.169
95154SOL    HW287360   5.928   9.552   9.261
95155SOL     OW87361   3.729   7.967  10.222
95155SOL    HW187362   3.802   7.997  10.277
95155SOL    HW287363   3.743   7.872  10.213
95156SOL     OW87364  14.444   1.850  14.446
95156SOL    HW187365  14.423   1.895  14.528
95156SOL    HW287366  14.431   1.917  14.379
95157SOL     OW87367   5.579  13.746  12.093
95157SOL    HW187368   5.578  13.813  12.024
95157SOL    HW287369   5.594  13.795  12.174
95158SOL     OW87370  14.127  11.547  12.289
95158SOL    HW187371  14.149  11.460  12.323
95158SOL    HW287372  14.068  11.529  12.216
95159SOL     OW87373   8.447   6.408  12.012
95159SOL    HW187374   8.381   6.384  11.947
95159SOL    HW287375   8.407   6.480  12.061
95160SOL     OW87376  14.132  14.056   8.602
95160SOL    HW187377  14.214  14.028   8.641
95160SOL    HW287378  14.150  14.142   8.565
95161SOL     OW87379  12.462  11.223   5.653
95161SOL    HW187380  12.416  11.202   5.571
95161SOL    HW287381  12.555  11.225   5.628
95162SOL     OW87382  10.957  10.363   8.252
95162SOL    HW187383  11.020  10.349   8.323
95162SOL    HW287384  10.972  10.291   8.192
95163SOL     OW87385  14.156   5.041   5.770
95163SOL    HW187386  14.217   5.080   5.708
95163SOL    HW287387  14.108   5.115   5.806
95164SOL     OW87388   9.625   9.109  11.098
95164SOL    HW187389   9.544   9.142  11.058
95164SOL    HW287390   9.610   9.016  11.112
95165SOL     OW87391   9.676   9.308  12.674
95165SOL    HW187392   9.584   9.295  12.695
95165SOL    HW287393   9.685   9.277  12.584
95166SOL     OW87394  13.545   4.757   5.440
95166SOL    HW187395  13.517   4.666   5.427
95166SOL    HW287396  13.640   4.754   5.439
95167SOL     OW87397   4.775  12.199   1.260
95167SOL    HW187398   4.836  12.197   1.333
95167SOL    HW287399   4.824  12.163   1.186
95168SOL     OW87400   0.738   1.754   8.025
95168SOL    HW187401   0.678   1.737   8.098
95168SOL    HW287402   0.817   1.788   8.067
95169SOL     OW87403  10.730   8.184   1.492
95169SOL    HW187404  10.734   8.119   1.562
95169SOL    HW287405  10.771   8.142   1.416
95170SOL     OW87406   1.679  11.676   0.406
95170SOL    HW187407   1.761  11.675   0.455
95170SOL    HW287408   1.687  11.754   0.350
95171SOL     OW87409   3.666   7.094   0.062
95171SOL    HW187410   3.684   7.110  14.849
95171SOL    HW287411   3.636   7.178   0.096
95172SOL     OW87412  13.302   9.460   0.593
95172SOL    HW187413  13.383   9.487   0.550
95172SOL    HW287414  13.234   9.478   0.528
95173SOL     OW87415  14.527   9.078   8.464
95173SOL    HW187416  14.508   9.043   8.550
95173SOL    HW287417  14.486   9.165   8.464
95174SOL     OW87418  10.288   2.756   4.011
95174SOL    HW187419  10.215   2.751   4.072
95174SOL    HW287420  10.248   2.775   3.927
95175SOL     OW87421   4.476  11.870  11.096
95175SOL    HW187422   4.571  11.859  11.090
95175SOL    HW287423   4.442  11.832  11.015
95176SOL     OW87424   4.532  11.813  10.680
95176SOL    HW187425   4.460  11.780  10.626
95176SOL    HW287426   4.605  11.753  10.663
95177SOL     OW87427   1.323   3.195   0.811
95177SOL    HW187428   1.354   3.111   0.778
95177SOL    HW287429   1.283   3.237   0.735
95178SOL     OW87430  11.060  11.786   4.568
95178SOL    HW187431  11.013  11.715   4.613
95178SOL    HW287432  11.152  11.765   4.581
95179SOL     OW87433   9.874   5.826   5.786
95179SOL    HW187434   9.844   5.735   5.793
95179SOL    HW287435   9.930   5.826   5.707
95180SOL     OW87436  10.560  14.660   4.041
95180SOL    HW187437  10.561  14.635   4.133
95180SOL    HW287438  10.546  14.755   4.043
95181SOL     OW87439  11.565   8.500   0.146
95181SOL    HW187440  11.645   8.526   0.192
95181SOL    HW287441  11.596   8.444   0.074
95182SOL     OW87442   0.176  10.361   5.583
95182SOL    HW187443   0.257  10.381   5.537
95182SOL    HW287444   0.149  10.276   5.548
95183SOL     OW87445   3.539   4.203   1.936
95183SOL    HW187446   3.626   4.181   1.904
95183SOL    HW287447   3.492   4.120   1.937
95184SOL     OW87448   0.895  10.872   3.158
95184SOL    HW187449   0.928  10.884   3.247
95184SOL    HW287450   0.816  10.819   3.168
95185SOL     OW87451   6.333  13.792   5.561
95185SOL    HW187452   6.375  13.796   5.647
95185SOL    HW287453   6.395  13.836   5.502
95186SOL     OW87454  13.196  11.817   0.457
95186SOL    HW187455  13.246  11.838   0.378
95186SOL    HW287456  13.200  11.722   0.463
95187SOL     OW87457  11.955   4.131   1.842
95187SOL    HW187458  11.924   4.150   1.753
95187SOL    HW287459  12.046   4.105   1.832
95188SOL     OW87460   5.247   6.508   0.176
95188SOL    HW187461   5.189   6.441   0.211
95188SOL    HW287462   5.333   6.466   0.174
95189SOL     OW87463  11.510   6.859   4.206
95189SOL    HW187464  11.470   6.855   4.119
95189SOL    HW287465  11.532   6.769   4.227
95190SOL     OW87466   4.555   5.558   4.090
95190SOL    HW187467   4.640   5.528   4.057
95190SOL    HW287468   4.570   5.648   4.118
95191SOL     OW87469   4.951  11.817   7.373
95191SOL    HW187470   4.989  11.900   7.344
95191SOL    HW287471   5.027  11.761   7.390
95192SOL     OW87472   9.298  13.245   7.757
95192SOL    HW187473   9.245  13.217   7.831
95192SOL    HW287474   9.245  13.313   7.715
95193SOL     OW87475   3.429  13.470   7.321
95193SOL    HW187476   3.449  13.440   7.410
95193SOL    HW287477   3.511  13.506   7.289
95194SOL     OW87478  10.709  14.081   4.886
95194SOL    HW187479  10.783  14.076   4.948
95194SOL    HW287480  10.709  14.172   4.857
95195SOL     OW87481   0.912   8.698   1.306
95195SOL    HW187482   0.910   8.682   1.212
95195SOL    HW287483   0.885   8.789   1.316
95196SOL     OW87484   7.468   5.977   4.754
95196SOL    HW187485   7.560   5.959   4.735
95196SOL    HW287486   7.471   6.049   4.817
95197SOL     OW87487   7.278   9.822  11.194
95197SOL    HW187488   7.336   9.809  11.269
95197SOL    HW287489   7.321   9.776  11.122
95198SOL     OW87490  10.426  10.530  13.683
95198SOL    HW187491  10.499  10.589  13.703
95198SOL    HW287492  10.434  10.460  13.748
95199SOL     OW87493   0.283  14.182   9.932
95199SOL    HW187494   0.190  14.171   9.955
95199SOL    HW287495   0.303  14.107   9.877
95200SOL     OW87496  14.069   7.761   5.428
95200SOL    HW187497  14.089   7.684   5.374
95200SOL    HW287498  14.083   7.732   5.518
95201SOL     OW87499  14.108   8.866   3.952
95201SOL    HW187500  14.068   8.868   3.865
95201SOL    HW287501  14.199   8.892   3.937
95202SOL     OW87502  12.123  13.890   4.991
95202SOL    HW187503  12.112  13.898   4.897
95202SOL    HW287504  12.125  13.795   5.007
95203SOL     OW87505  11.158   5.874   4.068
95203SOL    HW187506  11.148   5.793   4.018
95203SOL    HW287507  11.116   5.941   4.013
95204SOL     OW87508   4.460   4.762  10.110
95204SOL    HW187509   4.403   4.781  10.035
95204SOL    HW287510   4.498   4.847  10.133
95205SOL     OW87511  13.616  12.165   6.982
95205SOL    HW187512  13.699  12.163   7.029
95205SOL    HW287513  13.641  12.161   6.889
95206SOL     OW87514  12.958   8.237   7.294
95206SOL    HW187515  13.040   8.275   7.263
95206SOL    HW287516  12.946   8.159   7.241
95207SOL     OW87517  11.556   3.695  13.185
95207SOL    HW187518  11.583   3.668  13.098
95207SOL    HW287519  11.601   3.635  13.244
95208SOL     OW87520   3.846   1.649  12.326
95208SOL    HW187521   3.826   1.743  12.331
95208SOL    HW287522   3.851   1.620  12.417
95209SOL     OW87523   4.658   2.669   8.648
95209SOL    HW187524   4.726   2.737   8.654
95209SOL    HW287525   4.578   2.716   8.626
95210SOL     OW87526   1.753  10.193   1.847
95210SOL    HW187527   1.662  10.210   1.869
95210SOL    HW287528   1.757  10.099   1.832
95211SOL     OW87529  13.392  13.731   8.671
95211SOL    HW187530  13.482  13.763   8.670
95211SOL    HW287531  13.354  13.763   8.752
95212SOL     OW87532   3.511  14.312  10.332
95212SOL    HW187533   3.508  14.330  10.425
95212SOL    HW287534   3.421  14.287  10.309
95213SOL     OW87535   3.117   2.256   7.054
95213SOL    HW187536   3.087   2.330   7.107
95213SOL    HW287537   3.177   2.294   6.990
95214SOL     OW87538   8.452   1.634  14.816
95214SOL    HW187539   8.482   1.705  14.759
95214SOL    HW287540   8.447   1.557  14.759
95215SOL     OW87541  11.145   9.341   7.821
95215SOL    HW187542  11.115   9.273   7.760
95215SOL    HW287543  11.225   9.304   7.860
95216SOL     OW87544   7.494   8.475  14.875
95216SOL    HW187545   7.502   8.545  14.811
95216SOL    HW287546   7.581   8.469   0.035
95217SOL     OW87547   3.910   3.167   0.676
95217SOL    HW187548   4.001   3.191   0.698
95217SOL    HW287549   3.917   3.123   0.591
95218SOL     OW87550   8.851  12.736   0.971
95218SOL    HW187551   8.781  12.799   0.960
95218SOL    HW287552   8.917  12.782   1.023
95219SOL     OW87553  12.908  12.393   1.199
95219SOL    HW187554  12.877  12.455   1.133
95219SOL    HW287555  12.965  12.445   1.256
95220SOL     OW87556  13.658   5.305   6.936
95220SOL    HW187557  13.694   5.294   6.848
95220SOL    HW287558  13.566   5.279   6.928
95221SOL     OW87559   1.591  14.608   3.944
95221SOL    HW187560   1.670  14.659   3.928
95221SOL    HW287561   1.543  14.611   3.861
95222SOL     OW87562   7.979  13.094   6.068
95222SOL    HW187563   7.947  13.179   6.097
95222SOL    HW287564   7.961  13.093   5.974
95223SOL     OW87565   6.047  12.081  11.387
95223SOL    HW187566   6.058  12.125  11.303
95223SOL    HW287567   6.080  12.143  11.452
95224SOL     OW87568   2.628  11.059   8.243
95224SOL    HW187569   2.621  10.991   8.310
95224SOL    HW287570   2.541  11.096   8.237
95225SOL     OW87571   0.573  10.768  13.680
95225SOL    HW187572   0.495  10.801  13.637
95225SOL    HW287573   0.543  10.738  13.766
95226SOL     OW87574   1.121  10.709   4.974
95226SOL    HW187575   1.179  10.722   5.049
95226SOL    HW287576   1.037  10.746   5.001
95227SOL     OW87577   9.535  10.569  11.133
95227SOL    HW187578   9.515  10.476  11.127
95227SOL    HW287579   9.564  10.594  11.045
95228SOL     OW87580   2.675   6.522   8.526
95228SOL    HW187581   2.767   6.512   8.502
95228SOL    HW287582   2.632   6.445   8.488
95229SOL     OW87583   4.907   8.255   6.770
95229SOL    HW187584   4.854   8.198   6.826
95229SOL    HW287585   4.972   8.293   6.829
95230SOL     OW87586   4.429   1.089   5.669
95230SOL    HW187587   4.360   1.142   5.629
95230SOL    HW287588   4.387   1.044   5.741
95231SOL     OW87589   5.326  10.186   8.621
95231SOL    HW187590   5.392  10.250   8.648
95231SOL    HW287591   5.336  10.179   8.526
95232SOL     OW87592  14.705   5.925   8.686
95232SOL    HW187593  14.655   5.964   8.614
95232SOL    HW287594  14.706   5.992   8.754
95233SOL     OW87595   6.205   4.449  12.658
95233SOL    HW187596   6.265   4.386  12.617
95233SOL    HW287597   6.258   4.527  12.671
95234SOL     OW87598   5.346   9.480   1.274
95234SOL    HW187599   5.405   9.409   1.251
95234SOL    HW287600   5.281   9.441   1.332
95235SOL     OW87601   5.498  12.178  11.389
95235SOL    HW187602   5.563  12.234  11.433
95235SOL    HW287603   5.450  12.137  11.461
95236SOL     OW87604   8.752   1.600   1.475
95236SOL    HW187605   8.812   1.666   1.510
95236SOL    HW287606   8.744   1.535   1.545
95237SOL     OW87607   4.866  12.017   9.858
95237SOL    HW187608   4.895  11.961   9.786
95237SOL    HW287609   4.792  12.066   9.821
95238SOL     OW87610   9.037  11.235  13.822
95238SOL    HW187611   8.997  11.301  13.765
95238SOL    HW287612   9.069  11.168  13.763
95239SOL     OW87613   1.600   7.945   8.658
95239SOL    HW187614   1.623   7.990   8.740
95239SOL    HW287615   1.532   8.001   8.620
95240SOL     OW87616  14.246   0.085  11.887
95240SOL    HW187617  14.312   0.028  11.848
95240SOL    HW287618  14.238   0.054  11.977
95241SOL     OW87619   9.193  14.591   9.265
95241SOL    HW187620   9.214  14.541   9.344
95241SOL    HW287621   9.249  14.668   9.271
95242SOL     OW87622   8.878   0.548   7.349
95242SOL    HW187623   8.962   0.583   7.319
95242SOL    HW287624   8.848   0.492   7.277
95243SOL     OW87625   2.472   1.130   6.110
95243SOL    HW187626   2.497   1.046   6.148
95243SOL    HW287627   2.462   1.189   6.185
95244SOL     OW87628  12.553  14.770   9.400
95244SOL    HW187629  12.540  14.850   9.351
95244SOL    HW287630  12.464  14.738   9.418
95245SOL     OW87631   8.338   2.342   0.139
95245SOL    HW187632   8.428   2.345   0.108
95245SOL    HW287633   8.341   2.382   0.226
95246SOL     OW87634   6.256  13.853   6.894
95246SOL    HW187635   6.195  13.924   6.874
95246SOL    HW287636   6.200  13.784   6.929
95247SOL     OW87637   0.896  12.851   0.950
95247SOL    HW187638   0.805  12.843   0.922
95247SOL    HW287639   0.892  12.874   1.043
95248SOL     OW87640   3.436   5.982   0.240
95248SOL    HW187641   3.384   5.973   0.321
95248SOL    HW287642   3.411   6.068   0.206
95249SOL     OW87643   2.333   4.766   1.871
95249SOL    HW187644   2.419   4.796   1.902
95249SOL    HW287645   2.352   4.700   1.805
95250SOL     OW87646   0.716   4.035  11.266
95250SOL    HW187647   0.740   4.108  11.210
95250SOL    HW287648   0.789   4.027  11.328
95251SOL     OW87649   8.718   1.138   3.168
95251SOL    HW187650   8.786   1.086   3.125
95251SOL    HW287651   8.649   1.148   3.101
95252SOL     OW87652   7.638   6.533   2.941
95252SOL    HW187653   7.613   6.600   3.005
95252SOL    HW287654   7.718   6.567   2.901
95253SOL     OW87655   8.683   1.667  10.955
95253SOL    HW187656   8.763   1.720  10.952
95253SOL    HW287657   8.621   1.713  10.899
95254SOL     OW87658   8.152   0.801   5.880
95254SOL    HW187659   8.162   0.860   5.954
95254SOL    HW287660   8.072   0.830   5.836
95255SOL     OW87661  12.676   4.338   2.555
95255SOL    HW187662  12.622   4.315   2.479
95255SOL    HW287663  12.671   4.433   2.561
95256SOL     OW87664   5.388   6.684  11.202
95256SOL    HW187665   5.472   6.706  11.162
95256SOL    HW287666   5.327   6.750  11.169
95257SOL     OW87667   0.841  14.487   9.834
95257SOL    HW187668   0.913  14.484   9.771
95257SOL    HW287669   0.816  14.580   9.836
95258SOL     OW87670   8.134  14.825   2.524
95258SOL    HW187671   8.047  14.832   2.486
95258SOL    HW287672   8.122  14.847   2.616
95259SOL     OW87673   3.554   3.309   8.895
95259SOL    HW187674   3.570   3.321   8.802
95259SOL    HW287675   3.553   3.213   8.907
95260SOL     OW87676  10.750  11.385  12.323
95260SOL    HW187677  10.695  11.462  12.310
95260SOL    HW287678  10.768  11.352  12.235
95261SOL     OW87679   1.419   1.100   5.330
95261SOL    HW187680   1.418   1.057   5.416
95261SOL    HW287681   1.403   1.029   5.268
95262SOL     OW87682   6.466   3.337   2.643
95262SOL    HW187683   6.411   3.414   2.631
95262SOL    HW287684   6.442   3.279   2.570
95263SOL     OW87685  13.639   8.094  11.512
95263SOL    HW187686  13.716   8.069  11.461
95263SOL    HW287687  13.624   8.020  11.571
95264SOL     OW87688  14.876   4.664   1.575
95264SOL    HW187689   0.028   4.753   1.560
95264SOL    HW287690  14.820   4.671   1.652
95265SOL     OW87691   8.374  12.694  14.505
95265SOL    HW187692   8.328  12.755  14.562
95265SOL    HW287693   8.354  12.607  14.541
95266SOL     OW87694  14.315   5.014  13.169
95266SOL    HW187695  14.234   5.062  13.180
95266SOL    HW287696  14.383   5.074  13.200
95267SOL     OW87697   4.348  10.543   6.687
95267SOL    HW187698   4.340  10.632   6.721
95267SOL    HW287699   4.279  10.537   6.620
95268SOL     OW87700   5.530  14.554  12.416
95268SOL    HW187701   5.552  14.590  12.502
95268SOL    HW287702   5.598  14.490  12.399
95269SOL     OW87703   7.462   0.929   5.037
95269SOL    HW187704   7.381   0.976   5.018
95269SOL    HW287705   7.525   0.962   4.972
95270SOL     OW87706  13.103  10.077  13.664
95270SOL    HW187707  13.184  10.051  13.709
95270SOL    HW287708  13.063  10.141  13.723
95271SOL     OW87709   7.751   0.284  12.447
95271SOL    HW187710   7.843   0.307  12.458
95271SOL    HW287711   7.703   0.348  12.499
95272SOL     OW87712   2.810   4.198   3.561
95272SOL    HW187713   2.835   4.290   3.551
95272SOL    HW287714   2.729   4.201   3.613
95273SOL     OW87715   8.200   3.590  13.442
95273SOL    HW187716   8.214   3.502  13.475
95273SOL    HW287717   8.280   3.610  13.393
95274SOL     OW87718  10.828  10.419   2.260
95274SOL    HW187719  10.860  10.492   2.313
95274SOL    HW287720  10.764  10.459   2.201
95275SOL     OW87721   4.202   3.209  13.551
95275SOL    HW187722   4.112   3.231  13.528
95275SOL    HW287723   4.252   3.286  13.525
95276SOL     OW87724   8.611  11.369   9.188
95276SOL    HW187725   8.703  11.373   9.161
95276SOL    HW287726   8.576  11.455   9.163
95277SOL     OW87727   2.638  14.536  12.361
95277SOL    HW187728   2.684  14.620  12.369
95277SOL    HW287729   2.709  14.471  12.355
95278SOL     OW87730  13.416  12.503   4.114
95278SOL    HW187731  13.457  12.422   4.085
95278SOL    HW287732  13.322  12.482   4.118
95279SOL     OW87733   0.959   0.307   3.973
95279SOL    HW187734   1.030   0.253   3.938
95279SOL    HW287735   1.003   0.387   4.002
95280SOL     OW87736   1.627  12.833   0.759
95280SOL    HW187737   1.633  12.859   0.667
95280SOL    HW287738   1.542  12.791   0.767
95281SOL     OW87739   5.014   2.393   0.729
95281SOL    HW187740   5.025   2.435   0.815
95281SOL    HW287741   5.019   2.465   0.666
95282SOL     OW87742   0.597   6.998   2.777
95282SOL    HW187743   0.677   7.017   2.729
95282SOL    HW287744   0.571   6.911   2.747
95283SOL     OW87745   4.241  12.614   5.716
95283SOL    HW187746   4.169  12.554   5.738
95283SOL    HW287747   4.207  12.700   5.738
95284SOL     OW87748   2.390   9.103   9.716
95284SOL    HW187749   2.419   9.043   9.785
95284SOL    HW287750   2.470   9.149   9.690
95285SOL     OW87751  13.674   4.980   7.109
95285SOL    HW187752  13.690   5.040   7.182
95285SOL    HW287753  13.756   4.933   7.097
95286SOL     OW87754   9.400  13.681   6.631
95286SOL    HW187755   9.309  13.705   6.620
95286SOL    HW287756   9.399  13.608   6.693
95287SOL     OW87757   6.295   8.786  14.221
95287SOL    HW187758   6.356   8.721  14.255
95287SOL    HW287759   6.209   8.758  14.252
95288SOL     OW87760   5.952   2.024  11.933
95288SOL    HW187761   5.967   1.989  11.845
95288SOL    HW287762   6.039   2.047  11.965
95289SOL     OW87763   3.575   8.958   5.257
95289SOL    HW187764   3.552   8.865   5.262
95289SOL    HW287765   3.661   8.963   5.299
95290SOL     OW87766  13.129  14.524   8.201
95290SOL    HW187767  13.221  14.501   8.217
95290SOL    HW287768  13.105  14.580   8.275
95291SOL     OW87769  14.421   0.141   3.398
95291SOL    HW187770  14.390   0.102   3.316
95291SOL    HW287771  14.516   0.149   3.386
95292SOL     OW87772   9.636   2.550   9.389
95292SOL    HW187773   9.639   2.567   9.483
95292SOL    HW287774   9.558   2.598   9.359
95293SOL     OW87775   0.448   0.600   1.057
95293SOL    HW187776   0.536   0.581   1.024
95293SOL    HW287777   0.414   0.667   0.997
95294SOL     OW87778  10.842   0.779  12.678
95294SOL    HW187779  10.811   0.717  12.613
95294SOL    HW287780  10.909   0.830  12.633
95295SOL     OW87781  12.926  10.453   2.582
95295SOL    HW187782  12.831  10.457   2.569
95295SOL    HW287783  12.951  10.366   2.549
95296SOL     OW87784  10.967   7.698   9.893
95296SOL    HW187785  10.957   7.789   9.919
95296SOL    HW287786  11.053   7.694   9.852
95297SOL     OW87787  14.096   5.097   8.464
95297SOL    HW187788  14.069   5.182   8.498
95297SOL    HW287789  14.072   5.100   8.371
95298SOL     OW87790  11.012   2.496   8.913
95298SOL    HW187791  11.001   2.407   8.880
95298SOL    HW287792  11.007   2.487   9.009
95299SOL     OW87793   3.205   9.697  11.852
95299SOL    HW187794   3.188   9.623  11.793
95299SOL    HW287795   3.274   9.666  11.910
95300SOL     OW87796   3.980   6.627   8.242
95300SOL    HW187797   4.024   6.617   8.326
95300SOL    HW287798   3.888   6.610   8.261
95301SOL     OW87799  10.751  14.592   1.022
95301SOL    HW187800  10.812  14.600   1.096
95301SOL    HW287801  10.799  14.541   0.957
95302SOL     OW87802  10.185  10.269   4.590
95302SOL    HW187803  10.113  10.284   4.528
95302SOL    HW287804  10.153  10.302   4.673
95303SOL     OW87805  11.533   0.119  10.015
95303SOL    HW187806  11.456   0.065   9.999
95303SOL    HW287807  11.569   0.084  10.097
95304SOL     OW87808   7.071   1.866   3.524
95304SOL    HW187809   7.107   1.914   3.450
95304SOL    HW287810   7.148   1.831   3.569
95305SOL     OW87811  13.574   4.013  12.874
95305SOL    HW187812  13.569   4.082  12.809
95305SOL    HW287813  13.541   4.053  12.955
95306SOL     OW87814   1.307   5.468   1.780
95306SOL    HW187815   1.251   5.527   1.830
95306SOL    HW287816   1.385   5.520   1.759
95307SOL     OW87817   6.563   6.569   5.723
95307SOL    HW187818   6.527   6.513   5.655
95307SOL    HW287819   6.654   6.583   5.697
95308SOL     OW87820   7.311   4.883  13.676
95308SOL    HW187821   7.240   4.857  13.617
95308SOL    HW287822   7.281   4.858  13.763
95309SOL     OW87823  14.304  12.595  13.544
95309SOL    HW187824  14.220  12.596  13.589
95309SOL    HW287825  14.349  12.673  13.576
95310SOL     OW87826   4.690   3.862   5.913
95310SOL    HW187827   4.681   3.904   5.827
95310SOL    HW287828   4.695   3.768   5.892
95311SOL     OW87829   7.816  13.149  11.082
95311SOL    HW187830   7.779  13.216  11.025
95311SOL    HW287831   7.757  13.145  11.157
95312SOL     OW87832   4.578   4.347   6.893
95312SOL    HW187833   4.485   4.347   6.871
95312SOL    HW287834   4.621   4.308   6.816
95313SOL     OW87835   3.535   9.302  13.459
95313SOL    HW187836   3.573   9.256  13.534
95313SOL    HW287837   3.442   9.279  13.462
95314SOL     OW87838   0.275   7.345   9.158
95314SOL    HW187839   0.366   7.376   9.154
95314SOL    HW287840   0.225   7.421   9.184
95315SOL     OW87841   7.507   1.963  10.057
95315SOL    HW187842   7.570   1.951  10.128
95315SOL    HW287843   7.426   1.988  10.100
95316SOL     OW87844   7.486  10.515  14.799
95316SOL    HW187845   7.566  10.542  14.844
95316SOL    HW287846   7.429  10.592  14.801
95317SOL     OW87847  11.542   9.696   6.452
95317SOL    HW187848  11.593   9.717   6.530
95317SOL    HW287849  11.451   9.707   6.479
95318SOL     OW87850   9.211   6.035   6.912
95318SOL    HW187851   9.234   5.947   6.940
95318SOL    HW287852   9.272   6.092   6.959
95319SOL     OW87853  13.654   3.148   1.234
95319SOL    HW187854  13.627   3.235   1.204
95319SOL    HW287855  13.594   3.088   1.191
95320SOL     OW87856   0.888   2.323   0.865
95320SOL    HW187857   0.927   2.318   0.777
95320SOL    HW287858   0.794   2.314   0.849
95321SOL     OW87859   0.541   7.272   4.315
95321SOL    HW187860   0.627   7.292   4.278
95321SOL    HW287861   0.513   7.193   4.268
95322SOL     OW87862  14.849   2.907   8.897
95322SOL    HW187863  14.842   2.957   8.816
95322SOL    HW287864   0.034   2.839   8.877
95323SOL     OW87865  14.806  14.141  12.579
95323SOL    HW187866  14.735  14.204  12.590
95323SOL    HW287867  14.869  14.164  12.647
95324SOL     OW87868   4.322   8.022   3.464
95324SOL    HW187869   4.298   7.929   3.466
95324SOL    HW287870   4.337   8.041   3.372
95325SOL     OW87871   7.270   8.236   6.282
95325SOL    HW187872   7.310   8.152   6.260
95325SOL    HW287873   7.190   8.213   6.329
95326SOL     OW87874   9.291  13.873   9.117
95326SOL    HW187875   9.322  13.814   9.048
95326SOL    HW287876   9.371  13.906   9.158
95327SOL     OW87877   6.336   3.481   0.990
95327SOL    HW187878   6.255   3.468   1.039
95327SOL    HW287879   6.404   3.442   1.045
95328SOL     OW87880  14.347   7.789   3.034
95328SOL    HW187881  14.387   7.733   2.968
95328SOL    HW287882  14.273   7.831   2.989
95329SOL     OW87883  12.844  11.012   8.259
95329SOL    HW187884  12.810  10.933   8.216
95329SOL    HW287885  12.849  10.987   8.352
95330SOL     OW87886   3.757  10.624   5.770
95330SOL    HW187887   3.765  10.668   5.685
95330SOL    HW287888   3.758  10.695   5.834
95331SOL     OW87889   1.860   2.548   8.312
95331SOL    HW187890   1.860   2.459   8.346
95331SOL    HW287891   1.865   2.604   8.390
95332SOL     OW87892   0.309  14.773  12.464
95332SOL    HW187893   0.322  14.680  12.483
95332SOL    HW287894   0.369  14.792  12.393
95333SOL     OW87895   6.096   3.282   3.920
95333SOL    HW187896   6.148   3.362   3.929
95333SOL    HW287897   6.078   3.276   3.826
95334SOL     OW87898  11.005   3.404   2.119
95334SOL    HW187899  11.028   3.449   2.037
95334SOL    HW287900  10.917   3.435   2.139
95335SOL     OW87901   8.346   4.019   0.057
95335SOL    HW187902   8.295   3.990   0.133
95335SOL    HW287903   8.286   4.074   0.007
95336SOL     OW87904   8.793  12.054   0.340
95336SOL    HW187905   8.823  12.117   0.405
95336SOL    HW287906   8.708  12.088   0.311
95337SOL     OW87907   4.710   8.799   7.493
95337SOL    HW187908   4.700   8.789   7.398
95337SOL    HW287909   4.720   8.709   7.525
95338SOL     OW87910   3.840   1.651   5.373
95338SOL    HW187911   3.772   1.593   5.338
95338SOL    HW287912   3.922   1.614   5.340
95339SOL     OW87913  14.565  13.029  14.747
95339SOL    HW187914  14.581  13.123  14.744
95339SOL    HW287915  14.515  13.016  14.828
95340SOL     OW87916   6.643  11.122   4.865
95340SOL    HW187917   6.591  11.195   4.896
95340SOL    HW287918   6.720  11.163   4.825
95341SOL     OW87919   5.326   2.702   7.429
95341SOL    HW187920   5.368   2.643   7.366
95341SOL    HW287921   5.259   2.648   7.472
95342SOL     OW87922   6.567   3.317   3.494
95342SOL    HW187923   6.615   3.292   3.573
95342SOL    HW287924   6.494   3.255   3.489
95343SOL     OW87925   8.408  13.023  11.269
95343SOL    HW187926   8.411  13.036  11.363
95343SOL    HW287927   8.317  13.042  11.245
95344SOL     OW87928   8.279   9.425   9.625
95344SOL    HW187929   8.374   9.422   9.636
95344SOL    HW287930   8.249   9.483   9.695
95345SOL     OW87931   7.237   0.723   9.875
95345SOL    HW187932   7.177   0.749   9.806
95345SOL    HW287933   7.320   0.707   9.831
95346SOL     OW87934  14.057  12.444   0.623
95346SOL    HW187935  13.988  12.498   0.584
95346SOL    HW287936  14.136  12.496   0.616
95347SOL     OW87937   1.981   7.159   0.859
95347SOL    HW187938   1.968   7.243   0.902
95347SOL    HW287939   1.898   7.142   0.814
95348SOL     OW87940   1.994   4.971   4.792
95348SOL    HW187941   2.084   5.000   4.811
95348SOL    HW287942   1.940   5.047   4.813
95349SOL     OW87943  14.099   1.408  13.186
95349SOL    HW187944  14.103   1.376  13.096
95349SOL    HW287945  14.148   1.490  13.185
95350SOL     OW87946   3.747  11.765  13.338
95350SOL    HW187947   3.750  11.760  13.433
95350SOL    HW287948   3.696  11.688  13.311
95351SOL     OW87949   2.096  13.167   1.123
95351SOL    HW187950   2.049  13.251   1.125
95351SOL    HW287951   2.144  13.165   1.205
95352SOL     OW87952   4.228  10.272  11.461
95352SOL    HW187953   4.217  10.273  11.556
95352SOL    HW287954   4.213  10.362  11.434
95353SOL     OW87955   0.627   5.933  13.079
95353SOL    HW187956   0.578   5.912  13.000
95353SOL    HW287957   0.716   5.903  13.060
95354SOL     OW87958   6.240  10.669   3.049
95354SOL    HW187959   6.303  10.604   3.080
95354SOL    HW287960   6.154  10.632   3.071
95355SOL     OW87961  11.006  12.462   2.273
95355SOL    HW187962  11.058  12.511   2.209
95355SOL    HW287963  10.955  12.401   2.221
95356SOL     OW87964  13.312   1.502   6.955
95356SOL    HW187965  13.368   1.564   7.000
95356SOL    HW287966  13.338   1.416   6.989
95357SOL     OW87967   6.663   4.999   1.336
95357SOL    HW187968   6.603   5.073   1.341
95357SOL    HW287969   6.611   4.923   1.364
95358SOL     OW87970   0.350   7.123   5.295
95358SOL    HW187971   0.276   7.110   5.235
95358SOL    HW287972   0.366   7.036   5.332
95359SOL     OW87973  11.540   7.534   1.749
95359SOL    HW187974  11.574   7.601   1.809
95359SOL    HW287975  11.567   7.451   1.788
95360SOL     OW87976   6.550   7.254  12.885
95360SOL    HW187977   6.497   7.316  12.935
95360SOL    HW287978   6.522   7.266  12.794
95361SOL     OW87979   4.912   8.004   9.342
95361SOL    HW187980   4.949   7.990   9.255
95361SOL    HW287981   4.855   8.081   9.332
95362SOL     OW87982   5.169   9.827  12.077
95362SOL    HW187983   5.240   9.765  12.059
95362SOL    HW287984   5.170   9.886  12.002
95363SOL     OW87985   2.257  12.542   9.774
95363SOL    HW187986   2.190  12.515   9.711
95363SOL    HW287987   2.304  12.612   9.730
95364SOL     OW87988   3.534  11.766   0.808
95364SOL    HW187989   3.585  11.846   0.791
95364SOL    HW287990   3.521  11.728   0.721
95365SOL     OW87991  13.302  12.026  12.939
95365SOL    HW187992  13.366  11.981  12.884
95365SOL    HW287993  13.343  12.028  13.026
95366SOL     OW87994  11.488   2.985   1.728
95366SOL    HW187995  11.414   3.004   1.786
95366SOL    HW287996  11.504   2.892   1.740
95367SOL     OW87997  12.673  12.156   8.648
95367SOL    HW187998  12.749  12.101   8.631
95367SOL    HW287999  12.701  12.217   8.716
95368SOL     OW88000   9.076   0.967  12.382
95368SOL    HW188001   9.156   0.918  12.405
95368SOL    HW288002   9.033   0.912  12.317
95369SOL     OW88003   5.563  13.006   5.675
95369SOL    HW188004   5.621  13.037   5.744
95369SOL    HW288005   5.617  12.947   5.622
95370SOL     OW88006   9.098   4.789  10.288
95370SOL    HW188007   9.094   4.866  10.344
95370SOL    HW288008   9.094   4.824  10.199
95371SOL     OW88009  12.084   3.890   3.437
95371SOL    HW188010  11.991   3.885   3.459
95371SOL    HW288011  12.096   3.980   3.405
95372SOL     OW88012   1.769  10.278  12.597
95372SOL    HW188013   1.712  10.349  12.569
95372SOL    HW288014   1.744  10.262  12.688
95373SOL     OW88015  13.795  13.776   0.073
95373SOL    HW188016  13.699  13.776   0.070
95373SOL    HW288017  13.817  13.844   0.136
95374SOL     OW88018  11.203   0.966   6.808
95374SOL    HW188019  11.206   0.981   6.902
95374SOL    HW288020  11.283   0.917   6.788
95375SOL     OW88021   2.342   2.576   6.735
95375SOL    HW188022   2.370   2.647   6.793
95375SOL    HW288023   2.247   2.569   6.750
95376SOL     OW88024  14.098   8.662   3.567
95376SOL    HW188025  14.150   8.589   3.602
95376SOL    HW288026  14.155   8.738   3.575
95377SOL     OW88027   0.720   3.431   3.933
95377SOL    HW188028   0.742   3.364   3.869
95377SOL    HW288029   0.784   3.419   4.003
95378SOL     OW88030  13.370   2.621   1.697
95378SOL    HW188031  13.284   2.596   1.664
95378SOL    HW288032  13.387   2.706   1.658
95379SOL     OW88033   2.014   6.887   8.973
95379SOL    HW188034   2.022   6.798   8.939
95379SOL    HW288035   1.922   6.909   8.960
95380SOL     OW88036  11.020  14.248   8.656
95380SOL    HW188037  10.944  14.303   8.636
95380SOL    HW288038  11.085  14.271   8.589
95381SOL     OW88039   7.137  12.007   2.324
95381SOL    HW188040   7.135  11.919   2.362
95381SOL    HW288041   7.182  12.060   2.390
95382SOL     OW88042   6.160  14.295   8.270
95382SOL    HW188043   6.198  14.313   8.184
95382SOL    HW288044   6.230  14.313   8.332
95383SOL     OW88045   1.833   7.497   2.029
95383SOL    HW188046   1.921   7.470   2.053
95383SOL    HW288047   1.799   7.542   2.106
95384SOL     OW88048  14.392  11.735  14.069
95384SOL    HW188049  14.330  11.670  14.102
95384SOL    HW288050  14.359  11.758  13.982
95385SOL     OW88051   3.013   1.766  14.076
95385SOL    HW188052   3.064   1.842  14.104
95385SOL    HW288053   3.078   1.702  14.048
95386SOL     OW88054   1.432   9.075  12.784
95386SOL    HW188055   1.425   9.133  12.708
95386SOL    HW288056   1.462   8.992  12.749
95387SOL     OW88057   1.803   0.190   5.630
95387SOL    HW188058   1.814   0.232   5.716
95387SOL    HW288059   1.885   0.208   5.585
95388SOL     OW88060   0.780   2.626   0.811
95388SOL    HW188061   0.830   2.571   0.871
95388SOL    HW288062   0.782   2.580   0.727
95389SOL     OW88063  10.034  12.549   9.490
95389SOL    HW188064  10.008  12.485   9.424
95389SOL    HW288065  10.101  12.602   9.447
95390SOL     OW88066  13.150   5.025   1.315
95390SOL    HW188067  13.090   5.074   1.372
95390SOL    HW288068  13.197   4.967   1.374
95391SOL     OW88069   6.762   7.488   9.319
95391SOL    HW188070   6.805   7.426   9.377
95391SOL    HW288071   6.748   7.439   9.238
95392SOL     OW88072  13.107   0.576  13.124
95392SOL    HW188073  13.173   0.574  13.193
95392SOL    HW288074  13.150   0.618  13.050
95393SOL     OW88075   9.706   1.310   8.084
95393SOL    HW188076   9.787   1.260   8.092
95393SOL    HW288077   9.658   1.268   8.012
95394SOL     OW88078   9.310   5.631   6.997
95394SOL    HW188079   9.362   5.709   7.018
95394SOL    HW288080   9.306   5.582   7.079
95395SOL     OW88081   1.975   0.002   3.052
95395SOL    HW188082   2.030   0.080   3.045
95395SOL    HW288083   2.012  14.833   3.125
95396SOL     OW88084   4.082  11.746  11.898
95396SOL    HW188085   4.061  11.818  11.958
95396SOL    HW288086   4.019  11.677  11.921
95397SOL     OW88087   8.584   1.631  12.090
95397SOL    HW188088   8.538   1.599  12.011
95397SOL    HW288089   8.557   1.571  12.159
95398SOL     OW88090   5.888   5.216   1.457
95398SOL    HW188091   5.969   5.257   1.489
95398SOL    HW288092   5.918   5.138   1.410
95399SOL     OW88093   2.857   4.741   2.137
95399SOL    HW188094   2.883   4.671   2.076
95399SOL    HW288095   2.909   4.723   2.216
95400SOL     OW88096   9.149   0.126  11.993
95400SOL    HW188097   9.237   0.117  11.958
95400SOL    HW288098   9.103   0.179  11.927
95401SOL     OW88099   9.898   7.851  12.011
95401SOL    HW188100   9.974   7.909  12.024
95401SOL    HW288101   9.823   7.906  12.035
95402SOL     OW88102   6.999   2.405  11.438
95402SOL    HW188103   7.059   2.428  11.368
95402SOL    HW288104   6.920   2.375  11.393
95403SOL     OW88105   6.295  13.961   9.509
95403SOL    HW188106   6.348  13.913   9.572
95403SOL    HW288107   6.358  14.012   9.459
95404SOL     OW88108   3.198   7.056  12.788
95404SOL    HW188109   3.280   7.098  12.812
95404SOL    HW288110   3.224   6.975  12.745
95405SOL     OW88111   8.888   6.300  12.060
95405SOL    HW188112   8.982   6.284  12.073
95405SOL    HW288113   8.881   6.395  12.050
95406SOL     OW88114   8.195   4.006  14.459
95406SOL    HW188115   8.229   4.093  14.479
95406SOL    HW288116   8.273   3.951  14.451
95407SOL     OW88117   8.475   3.802  13.588
95407SOL    HW188118   8.513   3.807  13.501
95407SOL    HW288119   8.448   3.710  13.597
95408SOL     OW88120  10.192   7.080   5.104
95408SOL    HW188121  10.163   7.002   5.058
95408SOL    HW288122  10.112   7.130   5.120
95409SOL     OW88123   4.940   2.362  13.242
95409SOL    HW188124   4.890   2.444  13.233
95409SOL    HW288125   4.970   2.342  13.154
95410SOL     OW88126  10.657  13.534  10.972
95410SOL    HW188127  10.639  13.614  11.023
95410SOL    HW288128  10.573  13.513  10.931
95411SOL     OW88129  13.546   8.275  10.533
95411SOL    HW188130  13.612   8.209  10.508
95411SOL    HW288131  13.505   8.239  10.612
95412SOL     OW88132  14.450  11.586   4.875
95412SOL    HW188133  14.434  11.679   4.857
95412SOL    HW288134  14.369  11.542   4.849
95413SOL     OW88135   0.221   0.970  10.981
95413SOL    HW188136   0.193   1.049  11.028
95413SOL    HW288137   0.141   0.937  10.941
95414SOL     OW88138   6.726   4.464   6.614
95414SOL    HW188139   6.677   4.501   6.687
95414SOL    HW288140   6.724   4.532   6.547
95415SOL     OW88141   6.335   4.904  13.415
95415SOL    HW188142   6.419   4.901  13.460
95415SOL    HW288143   6.270   4.911  13.485
95416SOL     OW88144   1.797   5.610   0.652
95416SOL    HW188145   1.705   5.589   0.668
95416SOL    HW288146   1.796   5.682   0.590
95417SOL     OW88147  11.389   2.022   2.248
95417SOL    HW188148  11.336   1.947   2.224
95417SOL    HW288149  11.417   2.004   2.338
95418SOL     OW88150   3.608   8.598   7.256
95418SOL    HW188151   3.537   8.634   7.310
95418SOL    HW288152   3.578   8.611   7.166
95419SOL     OW88153   0.000   1.249   3.516
95419SOL    HW188154   0.079   1.274   3.565
95419SOL    HW288155  14.852   1.166   3.555
95420SOL     OW88156   9.184   1.113   5.330
95420SOL    HW188157   9.188   1.072   5.417
95420SOL    HW288158   9.269   1.155   5.320
95421SOL     OW88159  13.155   5.359   5.281
95421SOL    HW188160  13.187   5.415   5.351
95421SOL    HW288161  13.152   5.415   5.204
95422SOL     OW88162   2.365   7.041   4.014
95422SOL    HW188163   2.387   7.036   3.921
95422SOL    HW288164   2.269   7.039   4.016
95423SOL     OW88165   3.497   3.957   8.558
95423SOL    HW188166   3.452   3.947   8.474
95423SOL    HW288167   3.499   4.052   8.572
95424SOL     OW88168  13.254   6.394   2.826
95424SOL    HW188169  13.278   6.344   2.748
95424SOL    HW288170  13.282   6.484   2.806
95425SOL     OW88171   5.905   1.606  13.978
95425SOL    HW188172   5.862   1.591  14.062
95425SOL    HW288173   5.871   1.538  13.920
95426SOL     OW88174  11.955  14.429  12.254
95426SOL    HW188175  12.026  14.365  12.263
95426SOL    HW288176  11.903  14.418  12.334
95427SOL     OW88177   5.813  10.244   6.746
95427SOL    HW188178   5.829  10.170   6.686
95427SOL    HW288179   5.765  10.205   6.819
95428SOL     OW88180   8.944  13.838  11.985
95428SOL    HW188181   9.010  13.900  12.017
95428SOL    HW288182   8.993  13.780  11.926
95429SOL     OW88183   7.122   7.691   9.723
95429SOL    HW188184   7.143   7.702   9.631
95429SOL    HW288185   7.095   7.600   9.732
95430SOL     OW88186   2.883   9.882   0.783
95430SOL    HW188187   2.931   9.926   0.713
95430SOL    HW288188   2.938   9.895   0.861
95431SOL     OW88189  13.746  12.744   9.057
95431SOL    HW188190  13.801  12.679   9.011
95431SOL    HW288191  13.656  12.719   9.034
95432SOL     OW88192   2.683   4.282  13.919
95432SOL    HW188193   2.592   4.309  13.909
95432SOL    HW288194   2.728   4.361  13.950
95433SOL     OW88195  11.187  14.466   6.067
95433SOL    HW188196  11.223  14.505   5.988
95433SOL    HW288197  11.213  14.374   6.063
95434SOL     OW88198   2.829  12.783   5.247
95434SOL    HW188199   2.873  12.746   5.171
95434SOL    HW288200   2.761  12.840   5.211
95435SOL     OW88201   2.942   9.550  11.379
95435SOL    HW188202   2.930   9.489  11.306
95435SOL    HW288203   3.036   9.549  11.397
95436SOL     OW88204   4.070  11.709   6.157
95436SOL    HW188205   4.038  11.799   6.164
95436SOL    HW288206   4.130  11.711   6.083
95437SOL     OW88207   6.983   7.832   2.069
95437SOL    HW188208   6.977   7.755   2.012
95437SOL    HW288209   7.070   7.826   2.108
95438SOL     OW88210  12.381   3.932  13.451
95438SOL    HW188211  12.292   3.900  13.439
95438SOL    HW288212  12.436   3.867  13.408
95439SOL     OW88213   3.888   4.957   3.225
95439SOL    HW188214   3.881   4.950   3.129
95439SOL    HW288215   3.817   5.016   3.250
95440SOL     OW88216   5.402  10.003   9.337
95440SOL    HW188217   5.434  10.051   9.413
95440SOL    HW288218   5.408  10.066   9.265
95441SOL     OW88219  11.077   1.920  13.186
95441SOL    HW188220  11.052   1.879  13.269
95441SOL    HW288221  11.146   1.863  13.152
95442SOL     OW88222   3.854   7.392   6.153
95442SOL    HW188223   3.775   7.402   6.099
95442SOL    HW288224   3.861   7.297   6.167
95443SOL     OW88225  10.480   6.523   7.496
95443SOL    HW188226  10.435   6.501   7.578
95443SOL    HW288227  10.539   6.595   7.519
95444SOL     OW88228   3.894  11.576  12.699
95444SOL    HW188229   3.838  11.542  12.629
95444SOL    HW288230   3.852  11.547  12.780
95445SOL     OW88231   2.980  10.146   6.529
95445SOL    HW188232   2.968  10.241   6.534
95445SOL    HW288233   3.066  10.131   6.569
95446SOL     OW88234   5.561  11.719   9.926
95446SOL    HW188235   5.616  11.787   9.962
95446SOL    HW288236   5.621  11.648   9.904
95447SOL     OW88237   1.759   1.481  13.266
95447SOL    HW188238   1.758   1.545  13.194
95447SOL    HW288239   1.682   1.503  13.318
95448SOL     OW88240  13.349   6.305   3.343
95448SOL    HW188241  13.334   6.318   3.250
95448SOL    HW288242  13.339   6.392   3.382
95449SOL     OW88243   1.613  11.163   0.115
95449SOL    HW188244   1.611  11.068   0.127
95449SOL    HW288245   1.701  11.189   0.143
95450SOL     OW88246   5.808   2.570  13.207
95450SOL    HW188247   5.717   2.580  13.235
95450SOL    HW288248   5.821   2.640  13.143
95451SOL     OW88249  11.846   6.009   7.983
95451SOL    HW188250  11.902   5.997   7.906
95451SOL    HW288251  11.791   6.084   7.962
95452SOL     OW88252   2.115   7.076   8.207
95452SOL    HW188253   2.026   7.113   8.207
95452SOL    HW288254   2.170   7.145   8.244
95453SOL     OW88255   3.855   9.881  10.259
95453SOL    HW188256   3.860   9.931  10.340
95453SOL    HW288257   3.821   9.795  10.286
95454SOL     OW88258   8.897   1.252  12.166
95454SOL    HW188259   8.855   1.337  12.152
95454SOL    HW288260   8.857   1.218  12.246
95455SOL     OW88261  12.717   7.044   4.637
95455SOL    HW188262  12.628   7.015   4.618
95455SOL    HW288263  12.773   6.972   4.606
95456SOL     OW88264   1.889  12.070   1.142
95456SOL    HW188265   1.947  12.146   1.146
95456SOL    HW288266   1.866  12.053   1.233
95457SOL     OW88267  12.568   3.511   5.728
95457SOL    HW188268  12.551   3.584   5.787
95457SOL    HW288269  12.502   3.445   5.752
95458SOL     OW88270   5.706   1.646  14.191
95458SOL    HW188271   5.630   1.704  14.199
95458SOL    HW288272   5.669   1.563  14.160
95459SOL     OW88273   1.620   7.133   1.771
95459SOL    HW188274   1.634   7.212   1.824
95459SOL    HW288275   1.560   7.160   1.702
95460SOL     OW88276   4.639  11.343   8.414
95460SOL    HW188277   4.590  11.355   8.332
95460SOL    HW288278   4.574  11.357   8.483
95461SOL     OW88279   2.935   9.603   0.711
95461SOL    HW188280   2.936   9.557   0.795
95461SOL    HW288281   2.997   9.676   0.723
95462SOL     OW88282   4.760   9.885   0.548
95462SOL    HW188283   4.737   9.921   0.634
95462SOL    HW288284   4.806   9.803   0.568
95463SOL     OW88285   3.755   7.927  14.371
95463SOL    HW188286   3.758   7.858  14.304
95463SOL    HW288287   3.693   7.991  14.336
95464SOL     OW88288   8.602  13.784   1.593
95464SOL    HW188289   8.637  13.868   1.567
95464SOL    HW288290   8.508  13.789   1.573
95465SOL     OW88291   2.428   1.016   9.068
95465SOL    HW188292   2.450   1.043   8.978
95465SOL    HW288293   2.382   0.933   9.057
95466SOL     OW88294   0.379   9.158  12.541
95466SOL    HW188295   0.448   9.211  12.502
95466SOL    HW288296   0.425   9.084  12.581
95467SOL     OW88297  10.992  14.844  11.687
95467SOL    HW188298  10.976   0.058  11.675
95467SOL    HW288299  11.082  14.839  11.720
95468SOL     OW88300   4.173  10.996   3.948
95468SOL    HW188301   4.210  11.002   3.860
95468SOL    HW288302   4.227  11.055   4.001
95469SOL     OW88303   6.342   8.208   8.767
95469SOL    HW188304   6.344   8.206   8.863
95469SOL    HW288305   6.252   8.184   8.745
95470SOL     OW88306   3.482  10.274   0.771
95470SOL    HW188307   3.422  10.206   0.802
95470SOL    HW288308   3.461  10.351   0.824
95471SOL     OW88309   1.676   0.354   1.194
95471SOL    HW188310   1.592   0.397   1.179
95471SOL    HW288311   1.654   0.261   1.197
95472SOL     OW88312   5.324  12.490   5.032
95472SOL    HW188313   5.358  12.577   5.054
95472SOL    HW288314   5.371  12.430   5.089
95473SOL     OW88315  13.275  14.556   1.838
95473SOL    HW188316  13.338  14.503   1.887
95473SOL    HW288317  13.328  14.619   1.790
95474SOL     OW88318  14.171   7.262   4.595
95474SOL    HW188319  14.224   7.185   4.616
95474SOL    HW288320  14.096   7.256   4.655
95475SOL     OW88321   8.258   2.287  11.741
95475SOL    HW188322   8.256   2.358  11.806
95475SOL    HW288323   8.317   2.222  11.779
95476SOL     OW88324   0.278   6.632   8.437
95476SOL    HW188325   0.218   6.631   8.363
95476SOL    HW288326   0.362   6.656   8.399
95477SOL     OW88327   5.278  13.524   0.446
95477SOL    HW188328   5.314  13.520   0.357
95477SOL    HW288329   5.187  13.495   0.436
95478SOL     OW88330   3.116   9.554  11.107
95478SOL    HW188331   3.203   9.530  11.074
95478SOL    HW288332   3.066   9.472  11.104
95479SOL     OW88333   2.681   0.581   4.514
95479SOL    HW188334   2.637   0.497   4.528
95479SOL    HW288335   2.630   0.644   4.565
95480SOL     OW88336   2.368   8.757  12.601
95480SOL    HW188337   2.403   8.677  12.561
95480SOL    HW288338   2.343   8.812  12.527
95481SOL     OW88339  11.950   5.250  12.238
95481SOL    HW188340  11.923   5.179  12.179
95481SOL    HW288341  11.998   5.207  12.308
95482SOL     OW88342   2.980   5.779   4.318
95482SOL    HW188343   2.911   5.800   4.254
95482SOL    HW288344   2.962   5.838   4.392
95483SOL     OW88345   1.638  13.725  11.612
95483SOL    HW188346   1.574  13.709  11.544
95483SOL    HW288347   1.591  13.775  11.679
95484SOL     OW88348  11.401   6.944   0.333
95484SOL    HW188349  11.459   6.984   0.399
95484SOL    HW288350  11.416   6.997   0.254
95485SOL     OW88351   8.904   2.828   7.127
95485SOL    HW188352   8.896   2.895   7.195
95485SOL    HW288353   8.990   2.789   7.142
95486SOL     OW88354   4.979  11.420   6.816
95486SOL    HW188355   5.046  11.482   6.847
95486SOL    HW288356   4.898  11.471   6.816
95487SOL     OW88357   4.145   3.898   0.599
95487SOL    HW188358   4.081   3.912   0.529
95487SOL    HW288359   4.101   3.928   0.678
95488SOL     OW88360   3.549  10.000   8.602
95488SOL    HW188361   3.558  10.079   8.655
95488SOL    HW288362   3.639   9.970   8.589
95489SOL     OW88363   2.829   7.556   9.289
95489SOL    HW188364   2.739   7.538   9.259
95489SOL    HW288365   2.870   7.602   9.215
95490SOL     OW88366   6.812   8.483   6.675
95490SOL    HW188367   6.903   8.509   6.661
95490SOL    HW288368   6.765   8.565   6.686
95491SOL     OW88369   4.273   9.394  11.895
95491SOL    HW188370   4.302   9.480  11.866
95491SOL    HW288371   4.192   9.378  11.846
95492SOL     OW88372   8.467   9.524   4.313
95492SOL    HW188373   8.438   9.615   4.304
95492SOL    HW288374   8.517   9.523   4.394
95493SOL     OW88375   4.645  12.185  14.278
95493SOL    HW188376   4.553  12.173  14.302
95493SOL    HW288377   4.682  12.237  14.350
95494SOL     OW88378   7.268   7.818   5.532
95494SOL    HW188379   7.302   7.859   5.611
95494SOL    HW288380   7.338   7.826   5.468
95495SOL     OW88381  14.637  13.707  14.783
95495SOL    HW188382  14.584  13.764  14.839
95495SOL    HW288383  14.589  13.704  14.700
95496SOL     OW88384  14.651   8.210   0.026
95496SOL    HW188385  14.714   8.212  14.833
95496SOL    HW288386  14.578   8.263  14.875
95497SOL     OW88387  14.793   0.568   9.994
95497SOL    HW188388   0.003   0.596   9.973
95497SOL    HW288389  14.758   0.535   9.911
95498SOL     OW88390   6.103   8.555   0.062
95498SOL    HW188391   6.145   8.638   0.039
95498SOL    HW288392   6.089   8.512  14.857
95499SOL     OW88393   2.653   4.601   9.092
95499SOL    HW188394   2.658   4.668   9.161
95499SOL    HW288395   2.652   4.651   9.010
95500SOL     OW88396  14.143   3.251   7.953
95500SOL    HW188397  14.079   3.197   7.908
95500SOL    HW288398  14.167   3.202   8.031
95501SOL     OW88399   7.015   7.340   8.672
95501SOL    HW188400   7.087   7.398   8.698
95501SOL    HW288401   6.968   7.322   8.753
95502SOL     OW88402  12.888  14.614   7.784
95502SOL    HW188403  12.833  14.571   7.719
95502SOL    HW288404  12.861  14.706   7.780
95503SOL     OW88405   5.948   4.823   5.514
95503SOL    HW188406   5.981   4.811   5.603
95503SOL    HW288407   6.026   4.836   5.461
95504SOL     OW88408   9.231   0.858   4.819
95504SOL    HW188409   9.271   0.928   4.872
95504SOL    HW288410   9.242   0.779   4.872
95505SOL     OW88411  14.152   0.544   7.998
95505SOL    HW188412  14.163   0.475   8.064
95505SOL    HW288413  14.089   0.605   8.038
95506SOL     OW88414  10.424   1.917   7.736
95506SOL    HW188415  10.329   1.904   7.740
95506SOL    HW288416  10.448   1.937   7.827
95507SOL     OW88417  10.329   5.916   2.860
95507SOL    HW188418  10.284   5.835   2.884
95507SOL    HW288419  10.285   5.945   2.780
95508SOL     OW88420   8.642   6.605   9.214
95508SOL    HW188421   8.641   6.582   9.121
95508SOL    HW288422   8.630   6.700   9.215
95509SOL     OW88423   4.159   4.755   1.054
95509SOL    HW188424   4.081   4.733   1.003
95509SOL    HW288425   4.138   4.728   1.143
95510SOL     OW88426   1.385  10.446  10.429
95510SOL    HW188427   1.394  10.420  10.521
95510SOL    HW288428   1.470  10.426  10.390
95511SOL     OW88429   5.735   8.313   1.431
95511SOL    HW188430   5.646   8.313   1.467
95511SOL    HW288431   5.722   8.301   1.337
95512SOL     OW88432  14.723   8.540  12.862
95512SOL    HW188433  14.656   8.553  12.795
95512SOL    HW288434  14.806   8.548  12.814
95513SOL     OW88435   4.087   7.031   6.618
95513SOL    HW188436   4.154   7.029   6.686
95513SOL    HW288437   4.119   7.096   6.555
95514SOL     OW88438   3.929  13.713   2.680
95514SOL    HW188439   3.873  13.635   2.677
95514SOL    HW288440   3.941  13.737   2.588
95515SOL     OW88441   9.451   4.968  10.813
95515SOL    HW188442   9.507   4.905  10.858
95515SOL    HW288443   9.495   5.052  10.825
95516SOL     OW88444  14.851   3.308  11.075
95516SOL    HW188445  14.812   3.393  11.096
95516SOL    HW288446  14.777   3.250  11.059
95517SOL     OW88447   9.125   1.461  10.795
95517SOL    HW188448   9.193   1.472  10.861
95517SOL    HW288449   9.149   1.380  10.750
95518SOL     OW88450   6.072   7.904  11.120
95518SOL    HW188451   6.155   7.870  11.084
95518SOL    HW288452   6.048   7.840  11.187
95519SOL     OW88453   7.595  12.785   1.237
95519SOL    HW188454   7.573  12.749   1.323
95519SOL    HW288455   7.674  12.837   1.252
95520SOL     OW88456  10.125   6.781  10.788
95520SOL    HW188457  10.079   6.752  10.709
95520SOL    HW288458  10.206   6.730  10.789
95521SOL     OW88459  10.746  12.674   8.806
95521SOL    HW188460  10.674  12.733   8.783
95521SOL    HW288461  10.821  12.731   8.819
95522SOL     OW88462  13.461   4.609   7.960
95522SOL    HW188463  13.428   4.520   7.947
95522SOL    HW288464  13.493   4.610   8.050
95523SOL     OW88465   3.986   9.999  11.604
95523SOL    HW188466   3.921  10.008  11.673
95523SOL    HW288467   4.065   9.969  11.650
95524SOL     OW88468  10.899   1.153  12.400
95524SOL    HW188469  10.884   1.213  12.472
95524SOL    HW288470  10.934   1.208  12.329
95525SOL     OW88471   4.095   6.276  13.755
95525SOL    HW188472   4.116   6.235  13.838
95525SOL    HW288473   4.114   6.209  13.689
95526SOL     OW88474  12.178   6.430   6.583
95526SOL    HW188475  12.251   6.490   6.597
95526SOL    HW288476  12.171   6.380   6.664
95527SOL     OW88477  10.288  14.752   2.396
95527SOL    HW188478  10.369  14.762   2.446
95527SOL    HW288479  10.313  14.701   2.319
95528SOL     OW88480  12.403   4.445   1.754
95528SOL    HW188481  12.475   4.443   1.817
95528SOL    HW288482  12.343   4.511   1.788
95529SOL     OW88483   5.242  10.481  12.277
95529SOL    HW188484   5.298  10.445  12.345
95529SOL    HW288485   5.175  10.413  12.264
95530SOL     OW88486   5.597   8.441   8.807
95530SOL    HW188487   5.656   8.434   8.732
95530SOL    HW288488   5.586   8.350   8.837
95531SOL     OW88489   6.465   7.206   9.250
95531SOL    HW188490   6.437   7.262   9.322
95531SOL    HW288491   6.555   7.233   9.231
95532SOL     OW88492   0.061   5.828  13.092
95532SOL    HW188493   0.074   5.774  13.014
95532SOL    HW288494   0.109   5.784  13.161
95533SOL     OW88495   7.558   1.721   6.305
95533SOL    HW188496   7.554   1.810   6.270
95533SOL    HW288497   7.514   1.727   6.390
95534SOL     OW88498  11.561   4.518  13.207
95534SOL    HW188499  11.655   4.509  13.219
95534SOL    HW288500  11.551   4.594  13.150
95535SOL     OW88501   9.472   0.924   1.874
95535SOL    HW188502   9.400   0.957   1.821
95535SOL    HW288503   9.550   0.969   1.840
95536SOL     OW88504   2.196   1.482  11.402
95536SOL    HW188505   2.106   1.476  11.432
95536SOL    HW288506   2.211   1.400  11.355
95537SOL     OW88507   6.866  10.369   7.552
95537SOL    HW188508   6.809  10.295   7.574
95537SOL    HW288509   6.811  10.426   7.498
95538SOL     OW88510   0.121  11.505   6.789
95538SOL    HW188511   0.043  11.552   6.817
95538SOL    HW288512   0.171  11.570   6.740
95539SOL     OW88513   1.461  14.815  12.628
95539SOL    HW188514   1.401   0.005  12.656
95539SOL    HW288515   1.535  14.821  12.687
95540SOL     OW88516   5.778   7.756  11.303
95540SOL    HW188517   5.853   7.700  11.280
95540SOL    HW288518   5.715   7.743  11.232
95541SOL     OW88519   6.286   1.469  10.622
95541SOL    HW188520   6.292   1.410  10.697
95541SOL    HW288521   6.246   1.416  10.553
95542SOL     OW88522  12.005   3.198   2.702
95542SOL    HW188523  11.925   3.198   2.755
95542SOL    HW288524  12.052   3.276   2.730
95543SOL     OW88525   7.296   2.255  14.173
95543SOL    HW188526   7.360   2.294  14.112
95543SOL    HW288527   7.313   2.161  14.168
95544SOL     OW88528   4.045  13.818   2.909
95544SOL    HW188529   4.129  13.775   2.927
95544SOL    HW288530   4.016  13.781   2.825
95545SOL     OW88531   1.689   2.585   2.217
95545SOL    HW188532   1.671   2.645   2.146
95545SOL    HW288533   1.784   2.591   2.230
95546SOL     OW88534   3.590   6.671   9.060
95546SOL    HW188535   3.657   6.735   9.085
95546SOL    HW288536   3.523   6.724   9.016
95547SOL     OW88537   3.927   5.538   5.292
95547SOL    HW188538   3.947   5.463   5.348
95547SOL    HW288539   3.971   5.519   5.210
95548SOL     OW88540   8.201  10.142   9.843
95548SOL    HW188541   8.112  10.108   9.838
95548SOL    HW288542   8.256  10.071   9.810
95549SOL     OW88543   8.779  10.115   0.514
95549SOL    HW188544   8.753  10.161   0.593
95549SOL    HW288545   8.874  10.125   0.510
95550SOL     OW88546   9.052   6.256   4.027
95550SOL    HW188547   8.997   6.177   4.022
95550SOL    HW288548   9.011   6.317   3.966
95551SOL     OW88549   4.790   9.845   3.355
95551SOL    HW188550   4.722   9.804   3.301
95551SOL    HW288551   4.816   9.777   3.417
95552SOL     OW88552  12.017  10.031   2.290
95552SOL    HW188553  12.092   9.989   2.333
95552SOL    HW288554  11.949  10.032   2.357
95553SOL     OW88555   9.913  13.441  13.073
95553SOL    HW188556   9.963  13.367  13.105
95553SOL    HW288557   9.840  13.449  13.135
95554SOL     OW88558   0.544   6.622   1.421
95554SOL    HW188559   0.538   6.527   1.428
95554SOL    HW288560   0.578   6.650   1.505
95555SOL     OW88561   8.119  12.445   2.708
95555SOL    HW188562   8.180  12.380   2.675
95555SOL    HW288563   8.097  12.414   2.796
95556SOL     OW88564   0.460   7.138   6.098
95556SOL    HW188565   0.550   7.103   6.098
95556SOL    HW288566   0.441   7.153   6.006
95557SOL     OW88567  11.318   9.914   8.399
95557SOL    HW188568  11.232   9.875   8.380
95557SOL    HW288569  11.298   9.990   8.454
95558SOL     OW88570   3.958   9.672  12.008
95558SOL    HW188571   4.032   9.651  11.952
95558SOL    HW288572   3.978   9.758  12.044
95559SOL     OW88573   3.118   4.541  13.600
95559SOL    HW188574   3.025   4.562  13.611
95559SOL    HW288575   3.149   4.602  13.533
95560SOL     OW88576   7.417   1.250  10.515
95560SOL    HW188577   7.368   1.188  10.569
95560SOL    HW288578   7.503   1.254  10.557
95561SOL     OW88579   1.027   8.034   9.965
95561SOL    HW188580   1.049   8.079   9.883
95561SOL    HW288581   1.100   8.054  10.023
95562SOL     OW88582   5.838   6.530   3.498
95562SOL    HW188583   5.846   6.594   3.427
95562SOL    HW288584   5.749   6.496   3.491
95563SOL     OW88585   6.597   8.652  11.686
95563SOL    HW188586   6.602   8.556  11.692
95563SOL    HW288587   6.655   8.675  11.614
95564SOL     OW88588   5.308   4.470   0.096
95564SOL    HW188589   5.247   4.530   0.139
95564SOL    HW288590   5.252   4.411   0.045
95565SOL     OW88591  14.285   3.453   8.223
95565SOL    HW188592  14.261   3.510   8.149
95565SOL    HW288593  14.266   3.506   8.300
95566SOL     OW88594   4.807   2.208   5.118
95566SOL    HW188595   4.812   2.220   5.213
95566SOL    HW288596   4.767   2.122   5.107
95567SOL     OW88597  13.960   9.851  14.534
95567SOL    HW188598  14.026   9.796  14.577
95567SOL    HW288599  13.920   9.901  14.605
95568SOL     OW88600   2.617   4.370  12.036
95568SOL    HW188601   2.605   4.424  11.958
95568SOL    HW288602   2.711   4.370  12.052
95569SOL     OW88603  13.347  13.313   4.369
95569SOL    HW188604  13.378  13.371   4.299
95569SOL    HW288605  13.427  13.271   4.402
95570SOL     OW88606   7.406   9.192   9.613
95570SOL    HW188607   7.365   9.276   9.592
95570SOL    HW288608   7.364   9.163   9.694
95571SOL     OW88609   9.585  12.526  14.682
95571SOL    HW188610   9.491  12.534  14.702
95571SOL    HW288611   9.603  12.601  14.625
95572SOL     OW88612  13.644  12.346  14.028
95572SOL    HW188613  13.694  12.298  13.962
95572SOL    HW288614  13.692  12.429  14.038
95573SOL     OW88615   6.920   6.379   0.792
95573SOL    HW188616   6.958   6.325   0.861
95573SOL    HW288617   6.844   6.420   0.832
95574SOL     OW88618  11.054  12.946   3.504
95574SOL    HW188619  10.990  12.939   3.433
95574SOL    HW288620  11.005  12.985   3.576
95575SOL     OW88621  11.314   0.809   2.590
95575SOL    HW188622  11.304   0.876   2.523
95575SOL    HW288623  11.407   0.809   2.611
95576SOL     OW88624   2.735  11.546   7.873
95576SOL    HW188625   2.820  11.592   7.871
95576SOL    HW288626   2.720  11.520   7.782
95577SOL     OW88627   3.586  12.624   4.341
95577SOL    HW188628   3.618  12.539   4.314
95577SOL    HW288629   3.663  12.681   4.342
95578SOL     OW88630   9.917   4.102   5.664
95578SOL    HW188631  10.003   4.061   5.661
95578SOL    HW288632   9.887   4.102   5.573
95579SOL     OW88633   4.455   3.862   3.586
95579SOL    HW188634   4.544   3.895   3.596
95579SOL    HW288635   4.466   3.772   3.555
95580SOL     OW88636   7.991  13.618   8.122
95580SOL    HW188637   8.041  13.633   8.202
95580SOL    HW288638   7.943  13.536   8.139
95581SOL     OW88639  14.528   4.162  11.486
95581SOL    HW188640  14.441   4.132  11.512
95581SOL    HW288641  14.563   4.090  11.434
95582SOL     OW88642   7.852  10.606   1.925
95582SOL    HW188643   7.934  10.646   1.894
95582SOL    HW288644   7.784  10.663   1.889
95583SOL     OW88645   4.166   2.137   5.203
95583SOL    HW188646   4.192   2.210   5.261
95583SOL    HW288647   4.155   2.178   5.117
95584SOL     OW88648   1.398   0.379  12.629
95584SOL    HW188649   1.450   0.335  12.562
95584SOL    HW288650   1.451   0.453  12.658
95585SOL     OW88651   5.752   6.058   1.846
95585SOL    HW188652   5.761   6.012   1.929
95585SOL    HW288653   5.797   6.141   1.860
95586SOL     OW88654  14.595   1.496  11.362
95586SOL    HW188655  14.550   1.577  11.386
95586SOL    HW288656  14.674   1.495  11.417
95587SOL     OW88657  11.202   7.967   5.838
95587SOL    HW188658  11.173   7.892   5.890
95587SOL    HW288659  11.124   7.992   5.788
95588SOL     OW88660   6.588   4.061  13.986
95588SOL    HW188661   6.532   4.136  13.965
95588SOL    HW288662   6.535   4.010  14.048
95589SOL     OW88663   5.729  13.311   1.356
95589SOL    HW188664   5.686  13.370   1.418
95589SOL    HW288665   5.801  13.271   1.406
95590SOL     OW88666   6.729  11.236   7.323
95590SOL    HW188667   6.702  11.328   7.321
95590SOL    HW288668   6.723  11.211   7.415
95591SOL     OW88669  12.685  13.442  14.879
95591SOL    HW188670  12.773  13.474   0.022
95591SOL    HW288671  12.632  13.521  14.872
95592SOL     OW88672   4.903   0.865   3.251
95592SOL    HW188673   4.945   0.933   3.198
95592SOL    HW288674   4.847   0.913   3.312
95593SOL     OW88675   2.821  13.240  13.997
95593SOL    HW188676   2.885  13.277  13.936
95593SOL    HW288677   2.865  13.165  14.036
95594SOL     OW88678   1.409  10.794   7.581
95594SOL    HW188679   1.476  10.726   7.592
95594SOL    HW288680   1.431  10.859   7.648
95595SOL     OW88681   4.809  14.855  12.344
95595SOL    HW188682   4.891  14.847  12.295
95595SOL    HW288683   4.741  14.823  12.284
95596SOL     OW88684  12.192   3.923   6.532
95596SOL    HW188685  12.282   3.888   6.530
95596SOL    HW288686  12.197   4.004   6.482
95597SOL     OW88687  11.088  12.188   4.244
95597SOL    HW188688  11.054  12.138   4.318
95597SOL    HW288689  11.096  12.124   4.173
95598SOL     OW88690  11.749   7.037   5.997
95598SOL    HW188691  11.841   7.062   5.988
95598SOL    HW288692  11.717   7.091   6.069
95599SOL     OW88693   2.406   8.369   2.116
95599SOL    HW188694   2.383   8.341   2.205
95599SOL    HW288695   2.405   8.465   2.120
95600SOL     OW88696   2.372   2.415   3.398
95600SOL    HW188697   2.415   2.336   3.431
95600SOL    HW288698   2.444   2.466   3.359
95601SOL     OW88699  10.692   1.124   4.192
95601SOL    HW188700  10.766   1.172   4.230
95601SOL    HW288701  10.730   1.044   4.157
95602SOL     OW88702   4.532   6.480   3.444
95602SOL    HW188703   4.493   6.482   3.532
95602SOL    HW288704   4.466   6.436   3.390
95603SOL     OW88705   1.606   9.462  14.696
95603SOL    HW188706   1.604   9.383  14.641
95603SOL    HW288707   1.682   9.511  14.665
95604SOL     OW88708   1.585   8.637  12.999
95604SOL    HW188709   1.515   8.575  13.017
95604SOL    HW288710   1.640   8.636  13.077
95605SOL     OW88711   9.089   4.828   1.290
95605SOL    HW188712   9.072   4.814   1.197
95605SOL    HW288713   9.139   4.910   1.293
95606SOL     OW88714   9.797  14.303  10.076
95606SOL    HW188715   9.888  14.330  10.065
95606SOL    HW288716   9.801  14.208  10.090
95607SOL     OW88717   7.201   6.154   6.917
95607SOL    HW188718   7.246   6.069   6.920
95607SOL    HW288719   7.250   6.209   6.978
95608SOL     OW88720  12.325   6.585  12.910
95608SOL    HW188721  12.343   6.622  12.823
95608SOL    HW288722  12.352   6.493  12.904
95609SOL     OW88723  10.409   7.156   3.059
95609SOL    HW188724  10.397   7.062   3.047
95609SOL    HW288725  10.444   7.187   2.976
95610SOL     OW88726   7.750   2.179  11.525
95610SOL    HW188727   7.834   2.149  11.558
95610SOL    HW288728   7.765   2.193  11.431
95611SOL     OW88729  13.086   6.869   9.668
95611SOL    HW188730  13.011   6.915   9.706
95611SOL    HW288731  13.047   6.795   9.621
95612SOL     OW88732   2.902  12.329  13.552
95612SOL    HW188733   2.902  12.244  13.596
95612SOL    HW288734   2.908  12.393  13.623
95613SOL     OW88735   9.566   5.307   3.957
95613SOL    HW188736   9.524   5.252   4.023
95613SOL    HW288737   9.585   5.389   4.003
95614SOL     OW88738   5.706   5.332   9.919
95614SOL    HW188739   5.645   5.271   9.959
95614SOL    HW288740   5.767   5.356   9.989
95615SOL     OW88741   4.811   7.399   1.379
95615SOL    HW188742   4.721   7.399   1.349
95615SOL    HW288743   4.858   7.451   1.314
95616SOL     OW88744   0.345  10.292   0.768
95616SOL    HW188745   0.290  10.259   0.697
95616SOL    HW288746   0.292  10.361   0.809
95617SOL     OW88747   1.128  14.416  10.215
95617SOL    HW188748   1.080  14.499  10.218
95617SOL    HW288749   1.075  14.357  10.268
95618SOL     OW88750   9.543   1.652   1.220
95618SOL    HW188751   9.478   1.659   1.149
95618SOL    HW288752   9.507   1.706   1.290
95619SOL     OW88753   6.640  14.509   7.236
95619SOL    HW188754   6.692  14.432   7.261
95619SOL    HW288755   6.704  14.570   7.199
95620SOL     OW88756  12.893  13.355   1.306
95620SOL    HW188757  12.981  13.319   1.317
95620SOL    HW288758  12.835  13.288   1.343
95621SOL     OW88759  14.036  10.827   4.231
95621SOL    HW188760  14.128  10.850   4.241
95621SOL    HW288761  13.992  10.911   4.218
95622SOL     OW88762   6.199   9.649   7.611
95622SOL    HW188763   6.108   9.626   7.629
95622SOL    HW288764   6.241   9.566   7.587
95623SOL     OW88765   6.574   7.674   6.192
95623SOL    HW188766   6.656   7.667   6.143
95623SOL    HW288767   6.580   7.758   6.237
95624SOL     OW88768   3.132   3.056   8.834
95624SOL    HW188769   3.144   2.995   8.907
95624SOL    HW288770   3.073   3.123   8.869
95625SOL     OW88771   8.574  10.107   1.086
95625SOL    HW188772   8.650  10.105   1.029
95625SOL    HW288773   8.608  10.087   1.173
95626SOL     OW88774  13.585   3.687  12.674
95626SOL    HW188775  13.628   3.603  12.689
95626SOL    HW288776  13.594   3.734  12.757
95627SOL     OW88777   3.470  12.614   9.235
95627SOL    HW188778   3.544  12.593   9.178
95627SOL    HW288779   3.488  12.566   9.316
95628SOL     OW88780   2.007   5.353  11.799
95628SOL    HW188781   2.058   5.394  11.869
95628SOL    HW288782   2.037   5.395  11.719
95629SOL     OW88783  11.725   8.741   2.002
95629SOL    HW188784  11.778   8.816   1.974
95629SOL    HW288785  11.665   8.725   1.930
95630SOL     OW88786   0.167  13.081  14.067
95630SOL    HW188787   0.255  13.072  14.104
95630SOL    HW288788   0.112  13.024  14.120
95631SOL     OW88789   1.715   8.838  10.002
95631SOL    HW188790   1.659   8.857  10.077
95631SOL    HW288791   1.698   8.745   9.983
95632SOL     OW88792   8.214   5.206   8.490
95632SOL    HW188793   8.192   5.292   8.455
95632SOL    HW288794   8.148   5.148   8.452
95633SOL     OW88795   7.672   9.774  12.250
95633SOL    HW188796   7.601   9.718  12.219
95633SOL    HW288797   7.642   9.863  12.231
95634SOL     OW88798   6.824  14.796  11.191
95634SOL    HW188799   6.792  14.824  11.277
95634SOL    HW288800   6.843  14.878  11.145
95635SOL     OW88801   1.225  10.439  11.986
95635SOL    HW188802   1.271  10.483  12.057
95635SOL    HW288803   1.154  10.391  12.030
95636SOL     OW88804   7.955   2.361   1.433
95636SOL    HW188805   7.882   2.421   1.447
95636SOL    HW288806   7.927   2.306   1.360
95637SOL     OW88807  13.731   5.202  14.191
95637SOL    HW188808  13.789   5.176  14.263
95637SOL    HW288809  13.683   5.277  14.225
95638SOL     OW88810  12.808   4.402   8.509
95638SOL    HW188811  12.722   4.432   8.480
95638SOL    HW288812  12.855   4.383   8.428
95639SOL     OW88813   4.695  13.040  13.026
95639SOL    HW188814   4.789  13.023  13.021
95639SOL    HW288815   4.687  13.135  13.027
95640SOL     OW88816   8.940   6.329  14.269
95640SOL    HW188817   8.889   6.406  14.293
95640SOL    HW288818   8.983   6.353  14.186
95641SOL     OW88819   8.893   5.647   7.484
95641SOL    HW188820   8.982   5.621   7.463
95641SOL    HW288821   8.893   5.656   7.580
95642SOL     OW88822   3.482   4.412   7.470
95642SOL    HW188823   3.486   4.328   7.424
95642SOL    HW288824   3.524   4.474   7.409
95643SOL     OW88825  14.169   4.790   4.862
95643SOL    HW188826  14.093   4.848   4.861
95643SOL    HW288827  14.240   4.843   4.898
95644SOL     OW88828   4.968   2.600  13.820
95644SOL    HW188829   4.965   2.659  13.745
95644SOL    HW288830   5.061   2.580  13.832
95645SOL     OW88831   4.958   9.597   2.701
95645SOL    HW188832   5.049   9.617   2.723
95645SOL    HW288833   4.908   9.669   2.740
95646SOL     OW88834  14.328  10.825  11.331
95646SOL    HW188835  14.348  10.823  11.237
95646SOL    HW288836  14.249  10.879  11.337
95647SOL     OW88837  10.793   7.244   4.649
95647SOL    HW188838  10.702   7.264   4.628
95647SOL    HW288839  10.827   7.204   4.569
95648SOL     OW88840   8.105   7.864   0.875
95648SOL    HW188841   8.025   7.829   0.915
95648SOL    HW288842   8.080   7.881   0.784
95649SOL     OW88843   0.586  10.351   9.633
95649SOL    HW188844   0.527  10.426   9.638
95649SOL    HW288845   0.551  10.288   9.696
95650SOL     OW88846   0.256  13.981   6.199
95650SOL    HW188847   0.312  13.906   6.175
95650SOL    HW288848   0.185  13.942   6.249
95651SOL     OW88849   7.614  13.011   6.162
95651SOL    HW188850   7.625  12.993   6.069
95651SOL    HW288851   7.525  12.983   6.182
95652SOL     OW88852  10.369   4.136  11.803
95652SOL    HW188853  10.317   4.186  11.740
95652SOL    HW288854  10.315   4.059  11.823
95653SOL     OW88855   5.694   5.141   0.492
95653SOL    HW188856   5.690   5.073   0.424
95653SOL    HW288857   5.682   5.223   0.444
95654SOL     OW88858  11.429  12.330   7.199
95654SOL    HW188859  11.337  12.344   7.222
95654SOL    HW288860  11.470  12.416   7.213
95655SOL     OW88861   6.222  10.167  12.684
95655SOL    HW188862   6.184  10.193  12.600
95655SOL    HW288863   6.276  10.091  12.664
95656SOL     OW88864   2.552   5.486   2.783
95656SOL    HW188865   2.604   5.429   2.840
95656SOL    HW288866   2.602   5.567   2.777
95657SOL     OW88867   9.555   4.598   9.229
95657SOL    HW188868   9.511   4.522   9.191
95657SOL    HW288869   9.550   4.584   9.324
95658SOL     OW88870  14.076  14.714  10.942
95658SOL    HW188871  14.125  14.795  10.956
95658SOL    HW288872  14.097  14.689  10.852
95659SOL     OW88873   0.571   6.538   4.549
95659SOL    HW188874   0.641   6.591   4.513
95659SOL    HW288875   0.525   6.597   4.610
95660SOL     OW88876  12.243   7.374   1.843
95660SOL    HW188877  12.148   7.389   1.838
95660SOL    HW288878  12.267   7.403   1.931
95661SOL     OW88879  14.648   9.412   7.360
95661SOL    HW188880  14.702   9.469   7.306
95661SOL    HW288881  14.611   9.348   7.299
95662SOL     OW88882  11.792   8.952   6.361
95662SOL    HW188883  11.733   8.891   6.318
95662SOL    HW288884  11.753   9.039   6.346
95663SOL     OW88885  13.487   2.504   4.386
95663SOL    HW188886  13.484   2.532   4.477
95663SOL    HW288887  13.579   2.514   4.361
95664SOL     OW88888   2.482   0.409   1.570
95664SOL    HW188889   2.394   0.390   1.603
95664SOL    HW288890   2.473   0.407   1.475
95665SOL     OW88891   4.325   2.305   3.316
95665SOL    HW188892   4.363   2.364   3.251
95665SOL    HW288893   4.400   2.270   3.364
95666SOL     OW88894   1.321  10.280  11.255
95666SOL    HW188895   1.380  10.222  11.304
95666SOL    HW288896   1.235  10.238  11.263
95667SOL     OW88897   4.367   7.451   5.883
95667SOL    HW188898   4.366   7.388   5.811
95667SOL    HW288899   4.310   7.522   5.854
95668SOL     OW88900   3.636  14.241   8.730
95668SOL    HW188901   3.673  14.308   8.673
95668SOL    HW288902   3.545  14.232   8.701
95669SOL     OW88903   6.032   9.507   6.245
95669SOL    HW188904   5.937   9.493   6.239
95669SOL    HW288905   6.046   9.548   6.330
95670SOL     OW88906   5.246  13.584   6.542
95670SOL    HW188907   5.187  13.512   6.564
95670SOL    HW288908   5.236  13.645   6.615
95671SOL     OW88909  13.046   4.421   9.757
95671SOL    HW188910  13.108   4.390   9.691
95671SOL    HW288911  12.964   4.375   9.735
95672SOL     OW88912   0.348   7.072  12.194
95672SOL    HW188913   0.295   7.150  12.174
95672SOL    HW288914   0.307   7.035  12.272
95673SOL     OW88915  13.397   7.739   9.762
95673SOL    HW188916  13.351   7.656   9.762
95673SOL    HW288917  13.456   7.734   9.686
95674SOL     OW88918   8.076  12.985   2.364
95674SOL    HW188919   8.088  13.040   2.441
95674SOL    HW288920   8.100  12.897   2.394
95675SOL     OW88921   0.265   4.380   5.965
95675SOL    HW188922   0.272   4.286   5.952
95675SOL    HW288923   0.195   4.390   6.030
95676SOL     OW88924   5.823   7.778   3.456
95676SOL    HW188925   5.756   7.771   3.523
95676SOL    HW288926   5.844   7.871   3.452
95677SOL     OW88927   1.028   7.977   0.677
95677SOL    HW188928   0.982   7.893   0.666
95677SOL    HW288929   1.060   7.975   0.767
95678SOL     OW88930  14.328  13.067   3.593
95678SOL    HW188931  14.360  13.155   3.610
95678SOL    HW288932  14.406  13.012   3.591
95679SOL     OW88933   4.235   7.910   8.304
95679SOL    HW188934   4.322   7.947   8.295
95679SOL    HW288935   4.247   7.832   8.358
95680SOL     OW88936  12.333  14.860   4.701
95680SOL    HW188937  12.272   0.012   4.768
95680SOL    HW288938  12.418   0.012   4.728
95681SOL     OW88939  12.521   3.250  11.460
95681SOL    HW188940  12.470   3.174  11.433
95681SOL    HW288941  12.488   3.321  11.404
95682SOL     OW88942   1.850   5.033  14.369
95682SOL    HW188943   1.916   4.970  14.400
95682SOL    HW288944   1.778   5.025  14.432
95683SOL     OW88945   7.639  11.283  14.701
95683SOL    HW188946   7.721  11.333  14.705
95683SOL    HW288947   7.600  11.308  14.617
95684SOL     OW88948  11.371   6.157   5.738
95684SOL    HW188949  11.382   6.118   5.824
95684SOL    HW288950  11.302   6.106   5.696
95685SOL     OW88951   9.188   7.393  11.022
95685SOL    HW188952   9.231   7.338  11.088
95685SOL    HW288953   9.260   7.433  10.973
95686SOL     OW88954   9.368  13.730   0.378
95686SOL    HW188955   9.276  13.728   0.352
95686SOL    HW288956   9.415  13.751   0.298
95687SOL     OW88957   5.993  14.723   9.663
95687SOL    HW188958   5.935  14.798   9.672
95687SOL    HW288959   5.943  14.660   9.611
95688SOL     OW88960   3.939   6.992  10.796
95688SOL    HW188961   3.925   7.056  10.866
95688SOL    HW288962   3.938   7.044  10.715
95689SOL     OW88963  13.202  11.474   2.673
95689SOL    HW188964  13.277  11.444   2.724
95689SOL    HW288965  13.142  11.511   2.737
95690SOL     OW88966   5.234   9.971   0.114
95690SOL    HW188967   5.216  10.010   0.200
95690SOL    HW288968   5.237  10.045   0.054
95691SOL     OW88969   9.334   2.731   5.728
95691SOL    HW188970   9.291   2.660   5.680
95691SOL    HW288971   9.383   2.688   5.797
95692SOL     OW88972  12.117   8.070  13.082
95692SOL    HW188973  12.197   8.109  13.047
95692SOL    HW288974  12.094   8.002  13.018
95693SOL     OW88975   4.385   7.602  12.124
95693SOL    HW188976   4.460   7.609  12.066
95693SOL    HW288977   4.311   7.583  12.066
95694SOL     OW88978   6.011   8.371   3.807
95694SOL    HW188979   6.067   8.386   3.731
95694SOL    HW288980   6.056   8.415   3.879
95695SOL     OW88981   1.702   8.418  14.041
95695SOL    HW188982   1.621   8.467  14.028
95695SOL    HW288983   1.714   8.368  13.960
95696SOL     OW88984  11.928  12.472  12.032
95696SOL    HW188985  11.941  12.385  11.994
95696SOL    HW288986  11.845  12.466  12.079
95697SOL     OW88987   2.761   5.409  12.800
95697SOL    HW188988   2.724   5.478  12.855
95697SOL    HW288989   2.852   5.436  12.786
95698SOL     OW88990   7.480   7.753  10.786
95698SOL    HW188991   7.494   7.738  10.692
95698SOL    HW288992   7.569   7.757  10.822
95699SOL     OW88993   5.377   5.420   4.649
95699SOL    HW188994   5.354   5.430   4.556
95699SOL    HW288995   5.332   5.340   4.676
95700SOL     OW88996   2.284   8.426   8.658
95700SOL    HW188997   2.218   8.359   8.639
95700SOL    HW288998   2.233   8.505   8.675
95701SOL     OW88999  10.869   7.329   0.717
95701SOL    HW189000  10.945   7.271   0.715
95701SOL    HW289001  10.796   7.274   0.688
95702SOL     OW89002  11.748   7.556   9.181
95702SOL    HW189003  11.838   7.546   9.150
95702SOL    HW289004  11.711   7.468   9.177
95703SOL     OW89005  11.025  10.785   6.457
95703SOL    HW189006  11.042  10.704   6.506
95703SOL    HW289007  10.939  10.772   6.418
95704SOL     OW89008   6.567   6.169   9.527
95704SOL    HW189009   6.492   6.214   9.488
95704SOL    HW289010   6.540   6.151   9.617
95705SOL     OW89011   9.417  12.485   4.247
95705SOL    HW189012   9.432  12.545   4.174
95705SOL    HW289013   9.321  12.483   4.257
95706SOL     OW89014  10.040   2.377   5.947
95706SOL    HW189015  10.051   2.468   5.921
95706SOL    HW289016  10.043   2.378   6.042
95707SOL     OW89017   2.066   0.879   8.070
95707SOL    HW189018   2.055   0.901   7.978
95707SOL    HW289019   1.977   0.867   8.103
95708SOL     OW89020   6.334   8.097   2.308
95708SOL    HW189021   6.407   8.123   2.365
95708SOL    HW289022   6.324   8.003   2.323
95709SOL     OW89023  11.421  13.007  14.400
95709SOL    HW189024  11.491  13.051  14.448
95709SOL    HW289025  11.358  12.983  14.468
95710SOL     OW89026  12.482   8.426   0.155
95710SOL    HW189027  12.386   8.427   0.160
95710SOL    HW289028  12.506   8.336   0.179
95711SOL     OW89029   8.671   1.147   9.593
95711SOL    HW189030   8.687   1.172   9.684
95711SOL    HW289031   8.757   1.151   9.551
95712SOL     OW89032  12.654   0.159   3.644
95712SOL    HW189033  12.727   0.131   3.698
95712SOL    HW289034  12.582   0.102   3.670
95713SOL     OW89035  11.102   2.977   4.633
95713SOL    HW189036  11.041   3.037   4.589
95713SOL    HW289037  11.121   3.020   4.716
95714SOL     OW89038   9.522  12.726   4.445
95714SOL    HW189039   9.496  12.771   4.365
95714SOL    HW289040   9.618  12.728   4.443
95715SOL     OW89041   8.352   7.748   0.643
95715SOL    HW189042   8.278   7.787   0.596
95715SOL    HW289043   8.389   7.820   0.694
95716SOL     OW89044   3.022   0.295   9.190
95716SOL    HW189045   3.093   0.302   9.254
95716SOL    HW289046   2.966   0.226   9.225
95717SOL     OW89047   3.703  11.352   0.537
95717SOL    HW189048   3.723  11.405   0.614
95717SOL    HW289049   3.784  11.350   0.487
95718SOL     OW89050  11.202   4.654  11.734
95718SOL    HW189051  11.297   4.656  11.717
95718SOL    HW289052  11.175   4.745  11.730
95719SOL     OW89053   1.683   0.381   1.590
95719SOL    HW189054   1.689   0.361   1.683
95719SOL    HW289055   1.590   0.384   1.571
95720SOL     OW89056   7.899   1.788   1.282
95720SOL    HW189057   7.867   1.747   1.362
95720SOL    HW289058   7.835   1.763   1.215
95721SOL     OW89059   4.624   5.545  14.199
95721SOL    HW189060   4.600   5.638  14.193
95721SOL    HW289061   4.641   5.531  14.292
95722SOL     OW89062   4.676  12.748  13.820
95722SOL    HW189063   4.742  12.817  13.811
95722SOL    HW289064   4.630  12.769  13.901
95723SOL     OW89065   6.078   5.724  10.439
95723SOL    HW189066   6.037   5.683  10.363
95723SOL    HW289067   6.021   5.702  10.512
95724SOL     OW89068   7.157   7.053  10.639
95724SOL    HW189069   7.159   6.962  10.609
95724SOL    HW289070   7.074   7.062  10.685
95725SOL     OW89071   5.761   0.976   6.889
95725SOL    HW189072   5.715   0.895   6.863
95725SOL    HW289073   5.828   0.988   6.823
95726SOL     OW89074   1.959   5.738   1.847
95726SOL    HW189075   1.918   5.758   1.763
95726SOL    HW289076   1.920   5.801   1.908
95727SOL     OW89077   3.487   3.299   6.471
95727SOL    HW189078   3.559   3.353   6.439
95727SOL    HW289079   3.415   3.317   6.411
95728SOL     OW89080   3.749   1.721   1.846
95728SOL    HW189081   3.743   1.666   1.768
95728SOL    HW289082   3.755   1.659   1.919
95729SOL     OW89083  12.111   1.519   5.683
95729SOL    HW189084  12.072   1.449   5.631
95729SOL    HW289085  12.052   1.594   5.669
95730SOL     OW89086   2.185   7.542   1.030
95730SOL    HW189087   2.224   7.495   1.104
95730SOL    HW289088   2.250   7.608   1.006
95731SOL     OW89089  12.355   0.362   5.619
95731SOL    HW189090  12.350   0.457   5.633
95731SOL    HW289091  12.278   0.341   5.566
95732SOL     OW89092   9.043  11.903   9.006
95732SOL    HW189093   9.036  11.980   9.062
95732SOL    HW289094   8.965  11.851   9.028
95733SOL     OW89095   3.306   7.741   1.716
95733SOL    HW189096   3.384   7.776   1.674
95733SOL    HW289097   3.244   7.814   1.720
95734SOL     OW89098   9.684  12.498   5.541
95734SOL    HW189099   9.613  12.454   5.586
95734SOL    HW289100   9.763  12.449   5.564
95735SOL     OW89101   8.201   0.376  13.106
95735SOL    HW189102   8.181   0.429  13.183
95735SOL    HW289103   8.199   0.439  13.033
95736SOL     OW89104   6.898   2.790   1.206
95736SOL    HW189105   6.910   2.761   1.296
95736SOL    HW289106   6.867   2.880   1.214
95737SOL     OW89107   4.111  12.478   6.058
95737SOL    HW189108   4.037  12.529   6.024
95737SOL    HW289109   4.175  12.544   6.086
95738SOL     OW89110   4.532   9.147  12.457
95738SOL    HW189111   4.485   9.187  12.530
95738SOL    HW289112   4.477   9.075  12.429
95739SOL     OW89113   5.164  14.492   5.283
95739SOL    HW189114   5.153  14.407   5.241
95739SOL    HW289115   5.155  14.555   5.212
95740SOL     OW89116   9.777   6.190   2.509
95740SOL    HW189117   9.720   6.260   2.477
95740SOL    HW289118   9.790   6.134   2.433
95741SOL     OW89119   6.209   6.304   1.319
95741SOL    HW189120   6.185   6.396   1.311
95741SOL    HW289121   6.270   6.301   1.393
95742SOL     OW89122   2.715  13.761   0.622
95742SOL    HW189123   2.643  13.823   0.624
95742SOL    HW289124   2.700  13.709   0.543
95743SOL     OW89125   8.806   0.333   2.573
95743SOL    HW189126   8.819   0.396   2.502
95743SOL    HW289127   8.775   0.254   2.529
95744SOL     OW89128   4.731   4.038  11.286
95744SOL    HW189129   4.716   3.996  11.371
95744SOL    HW289130   4.733   3.966  11.223
95745SOL     OW89131   8.133   8.188   7.729
95745SOL    HW189132   8.191   8.112   7.731
95745SOL    HW289133   8.187   8.258   7.694
95746SOL     OW89134   6.516   0.167  14.640
95746SOL    HW189135   6.424   0.172  14.613
95746SOL    HW289136   6.539   0.075  14.628
95747SOL     OW89137  11.169   7.851   4.392
95747SOL    HW189138  11.222   7.832   4.315
95747SOL    HW289139  11.156   7.946   4.389
95748SOL     OW89140   5.049  13.041  11.033
95748SOL    HW189141   4.971  13.065  11.083
95748SOL    HW289142   5.055  13.107  10.964
95749SOL     OW89143   5.898  14.154   0.703
95749SOL    HW189144   5.935  14.173   0.617
95749SOL    HW289145   5.919  14.232   0.755
95750SOL     OW89146  13.170   3.876   4.922
95750SOL    HW189147  13.152   3.789   4.956
95750SOL    HW289148  13.104   3.890   4.855
95751SOL     OW89149  13.990   9.884   3.377
95751SOL    HW189150  13.980   9.801   3.331
95751SOL    HW289151  14.058   9.867   3.442
95752SOL     OW89152  11.969   1.847   4.862
95752SOL    HW189153  12.040   1.909   4.843
95752SOL    HW289154  11.905   1.899   4.910
95753SOL     OW89155  14.053  11.419  14.040
95753SOL    HW189156  14.054  11.324  14.035
95753SOL    HW289157  14.133  11.442  14.087
95754SOL     OW89158   2.642   2.380  11.752
95754SOL    HW189159   2.660   2.468  11.718
95754SOL    HW289160   2.695   2.373  11.830
95755SOL     OW89161   2.992   0.329   1.085
95755SOL    HW189162   3.082   0.307   1.061
95755SOL    HW289163   2.938   0.263   1.042
95756SOL     OW89164  10.057   2.502   6.256
95756SOL    HW189165   9.980   2.505   6.198
95756SOL    HW289166  10.071   2.409   6.272
95757SOL     OW89167  10.454  14.212   2.112
95757SOL    HW189168  10.372  14.258   2.130
95757SOL    HW289169  10.508  14.228   2.189
95758SOL     OW89170   0.445  13.900   4.156
95758SOL    HW189171   0.381  13.899   4.227
95758SOL    HW289172   0.505  13.971   4.178
95759SOL     OW89173  12.101   2.184   6.570
95759SOL    HW189174  12.120   2.192   6.477
95759SOL    HW289175  12.161   2.116   6.601
95760SOL     OW89176   8.070   0.882   0.409
95760SOL    HW189177   8.060   0.912   0.499
95760SOL    HW289178   8.142   0.818   0.413
95761SOL     OW89179   9.925   6.649   1.647
95761SOL    HW189180   9.968   6.611   1.724
95761SOL    HW289181   9.878   6.725   1.681
95762SOL     OW89182  11.306  10.638   2.923
95762SOL    HW189183  11.360  10.663   2.848
95762SOL    HW289184  11.230  10.594   2.884
95763SOL     OW89185   7.466  11.989  12.177
95763SOL    HW189186   7.413  11.910  12.184
95763SOL    HW289187   7.403  12.061  12.188
95764SOL     OW89188  12.243  10.797   5.159
95764SOL    HW189189  12.317  10.841   5.201
95764SOL    HW289190  12.227  10.848   5.079
95765SOL     OW89191   4.902   0.170   5.795
95765SOL    HW189192   4.847   0.239   5.832
95765SOL    HW289193   4.844   0.095   5.785
95766SOL     OW89194   5.086  12.111   6.255
95766SOL    HW189195   5.029  12.145   6.186
95766SOL    HW289196   5.032  12.045   6.300
95767SOL     OW89197   3.660   8.509  14.394
95767SOL    HW189198   3.688   8.453  14.322
95767SOL    HW289199   3.733   8.569  14.408
95768SOL     OW89200   9.848  13.414   6.484
95768SOL    HW189201   9.942  13.396   6.489
95768SOL    HW289202   9.840  13.506   6.508
95769SOL     OW89203   7.330   8.026  10.483
95769SOL    HW189204   7.362   8.044  10.394
95769SOL    HW289205   7.291   7.939  10.477
95770SOL     OW89206   3.489   7.201   9.521
95770SOL    HW189207   3.473   7.291   9.492
95770SOL    HW289208   3.582   7.199   9.543
95771SOL     OW89209   8.350   6.699   9.439
95771SOL    HW189210   8.381   6.609   9.433
95771SOL    HW289211   8.275   6.696   9.498
95772SOL     OW89212   2.146   9.194   2.548
95772SOL    HW189213   2.109   9.142   2.620
95772SOL    HW289214   2.072   9.243   2.514
95773SOL     OW89215   6.029   0.069  14.033
95773SOL    HW189216   6.038   0.144  13.974
95773SOL    HW289217   6.027   0.107  14.121
95774SOL     OW89218   2.209  10.321   5.299
95774SOL    HW189219   2.145  10.257   5.332
95774SOL    HW289220   2.220  10.383   5.371
95775SOL     OW89221   3.999   1.273  14.676
95775SOL    HW189222   3.931   1.208  14.691
95775SOL    HW289223   4.047   1.278  14.759
95776SOL     OW89224  13.596  10.291   1.951
95776SOL    HW189225  13.508  10.274   1.916
95776SOL    HW289226  13.654  10.283   1.875
95777SOL     OW89227   5.921   9.293  11.434
95777SOL    HW189228   5.925   9.379  11.477
95777SOL    HW289229   5.899   9.232  11.504
95778SOL     OW89230   1.390   1.322   1.380
95778SOL    HW189231   1.335   1.244   1.378
95778SOL    HW289232   1.330   1.394   1.398
95779SOL     OW89233   5.438   6.087   1.709
95779SOL    HW189234   5.482   6.164   1.746
95779SOL    HW289235   5.479   6.075   1.624
95780SOL     OW89236   5.961   2.035   4.819
95780SOL    HW189237   5.867   2.054   4.828
95780SOL    HW289238   5.970   1.945   4.848
95781SOL     OW89239   8.008  12.595   2.104
95781SOL    HW189240   7.985  12.590   2.196
95781SOL    HW289241   8.091  12.643   2.102
95782SOL     OW89242   9.048   3.177  11.495
95782SOL    HW189243   9.061   3.240  11.424
95782SOL    HW289244   9.078   3.223  11.573
95783SOL     OW89245   3.791   7.133  13.796
95783SOL    HW189246   3.739   7.179  13.731
95783SOL    HW289247   3.728   7.080  13.844
95784SOL     OW89248   3.654   7.040   5.049
95784SOL    HW189249   3.606   7.088   4.982
95784SOL    HW289250   3.689   6.963   5.003
95785SOL     OW89251   9.144   0.395   6.392
95785SOL    HW189252   9.134   0.482   6.430
95785SOL    HW289253   9.164   0.338   6.466
95786SOL     OW89254   9.763   2.944  11.983
95786SOL    HW189255   9.731   3.020  11.934
95786SOL    HW289256   9.693   2.922  12.043
95787SOL     OW89257  11.625   1.158  14.746
95787SOL    HW189258  11.645   1.123  14.659
95787SOL    HW289259  11.704   1.139  14.798
95788SOL     OW89260   9.420  14.481   3.401
95788SOL    HW189261   9.472  14.542   3.348
95788SOL    HW289262   9.360  14.441   3.338
95789SOL     OW89263   0.841   9.195   0.283
95789SOL    HW189264   0.905   9.255   0.322
95789SOL    HW289265   0.838   9.221   0.191
95790SOL     OW89266  14.309  10.041  14.410
95790SOL    HW189267  14.336  10.092  14.334
95790SOL    HW289268  14.331  10.096  14.485
95791SOL     OW89269   0.436  11.015  13.105
95791SOL    HW189270   0.484  10.932  13.099
95791SOL    HW289271   0.500  11.082  13.081
95792SOL     OW89272   6.090  10.827  14.142
95792SOL    HW189273   6.118  10.915  14.118
95792SOL    HW289274   6.025  10.803  14.076
95793SOL     OW89275   8.573  10.388  14.113
95793SOL    HW189276   8.545  10.476  14.089
95793SOL    HW289277   8.501  10.331  14.086
95794SOL     OW89278   0.544   2.253   1.931
95794SOL    HW189279   0.452   2.277   1.927
95794SOL    HW289280   0.567   2.228   1.842
95795SOL     OW89281   4.660   5.239  11.879
95795SOL    HW189282   4.605   5.277  11.810
95795SOL    HW289283   4.607   5.167  11.913
95796SOL     OW89284   6.020   5.997   0.700
95796SOL    HW189285   5.957   6.066   0.720
95796SOL    HW289286   6.071   5.985   0.780
95797SOL     OW89287   3.862  12.405  10.802
95797SOL    HW189288   3.836  12.348  10.729
95797SOL    HW289289   3.951  12.377  10.824
95798SOL     OW89290   0.745  13.834  14.596
95798SOL    HW189291   0.650  13.845  14.601
95798SOL    HW289292   0.760  13.799  14.508
95799SOL     OW89293   6.465  13.328  13.305
95799SOL    HW189294   6.544  13.381  13.296
95799SOL    HW289295   6.400  13.373  13.250
95800SOL     OW89296   9.439   9.989   4.648
95800SOL    HW189297   9.441  10.040   4.566
95800SOL    HW289298   9.371   9.923   4.633
95801SOL     OW89299   0.478  13.870   6.806
95801SOL    HW189300   0.454  13.960   6.785
95801SOL    HW289301   0.463  13.862   6.900
95802SOL     OW89302   6.270   2.145  14.075
95802SOL    HW189303   6.186   2.191  14.066
95802SOL    HW289304   6.266   2.106  14.162
95803SOL     OW89305   2.502   7.195   7.512
95803SOL    HW189306   2.420   7.224   7.472
95803SOL    HW289307   2.570   7.245   7.467
95804SOL     OW89308   9.972  13.830   3.050
95804SOL    HW189309   9.898  13.887   3.029
95804SOL    HW289310   9.975  13.827   3.145
95805SOL     OW89311   1.308   8.921  14.640
95805SOL    HW189312   1.239   8.928  14.706
95805SOL    HW289313   1.267   8.949  14.559
95806SOL     OW89314   1.094   1.229   1.156
95806SOL    HW189315   1.129   1.191   1.236
95806SOL    HW289316   1.001   1.241   1.174
95807SOL     OW89317   0.988   0.486   1.746
95807SOL    HW189318   0.961   0.445   1.664
95807SOL    HW289319   0.921   0.460   1.810
95808SOL     OW89320  13.628   3.873  10.462
95808SOL    HW189321  13.653   3.965  10.468
95808SOL    HW289322  13.645   3.838  10.549
95809SOL     OW89323  10.568   3.806   9.716
95809SOL    HW189324  10.658   3.837   9.729
95809SOL    HW289325  10.547   3.760   9.798
95810SOL     OW89326  11.305   8.959   3.104
95810SOL    HW189327  11.330   8.912   3.025
95810SOL    HW289328  11.376   8.941   3.166
95811SOL     OW89329   6.682  14.560   4.072
95811SOL    HW189330   6.600  14.550   4.120
95811SOL    HW289331   6.662  14.623   4.003
95812SOL     OW89332  12.947   9.913   3.395
95812SOL    HW189333  12.946   9.996   3.442
95812SOL    HW289334  12.994   9.853   3.453
95813SOL     OW89335   2.196   9.196   3.902
95813SOL    HW189336   2.113   9.220   3.863
95813SOL    HW289337   2.196   9.238   3.988
95814SOL     OW89338   9.808  10.447   5.482
95814SOL    HW189339   9.870  10.518   5.497
95814SOL    HW289340   9.724  10.492   5.467
95815SOL     OW89341   9.833  10.862   4.758
95815SOL    HW189342   9.889  10.786   4.737
95815SOL    HW289343   9.764  10.826   4.814
95816SOL     OW89344   9.885  11.733  11.256
95816SOL    HW189345   9.959  11.794  11.245
95816SOL    HW289346   9.810  11.781  11.221
95817SOL     OW89347   4.707   8.119   6.930
95817SOL    HW189348   4.765   8.044   6.940
95817SOL    HW289349   4.626   8.093   6.975
95818SOL     OW89350   6.925  11.137   5.837
95818SOL    HW189351   6.906  11.229   5.819
95818SOL    HW289352   6.842  11.092   5.822
95819SOL     OW89353  12.694  10.313   4.493
95819SOL    HW189354  12.725  10.235   4.446
95819SOL    HW289355  12.709  10.385   4.432
95820SOL     OW89356  10.241   8.546   8.696
95820SOL    HW189357  10.307   8.476   8.690
95820SOL    HW289358  10.159   8.503   8.671
95821SOL     OW89359   2.135  11.581  10.107
95821SOL    HW189360   2.190  11.646  10.064
95821SOL    HW289361   2.127  11.613  10.197
95822SOL     OW89362   6.359   0.494   2.982
95822SOL    HW189363   6.452   0.470   2.978
95822SOL    HW289364   6.336   0.485   3.074
95823SOL     OW89365   7.073   1.272   3.596
95823SOL    HW189366   7.129   1.350   3.591
95823SOL    HW289367   7.125   1.208   3.644
95824SOL     OW89368   8.756  10.764   0.823
95824SOL    HW189369   8.724  10.718   0.901
95824SOL    HW289370   8.806  10.698   0.775
95825SOL     OW89371   5.984   2.396   0.877
95825SOL    HW189372   6.037   2.375   0.954
95825SOL    HW289373   5.976   2.492   0.880
95826SOL     OW89374  12.443   8.361  10.234
95826SOL    HW189375  12.392   8.289  10.196
95826SOL    HW289376  12.488   8.400  10.160
95827SOL     OW89377   5.916   0.636  14.804
95827SOL    HW189378   5.964   0.655   0.006
95827SOL    HW289379   5.887   0.722  14.773
95828SOL     OW89380   8.368  11.970   3.586
95828SOL    HW189381   8.433  12.001   3.648
95828SOL    HW289382   8.350  11.879   3.612
95829SOL     OW89383   3.752   4.062   1.661
95829SOL    HW189384   3.847   4.077   1.655
95829SOL    HW289385   3.716   4.102   1.582
95830SOL     OW89386   8.028   4.085   5.944
95830SOL    HW189387   7.938   4.061   5.922
95830SOL    HW289388   8.025   4.108   6.037
95831SOL     OW89389   0.702   8.239   6.147
95831SOL    HW189390   0.662   8.228   6.061
95831SOL    HW289391   0.712   8.150   6.181
95832SOL     OW89392  12.056  10.121   6.535
95832SOL    HW189393  12.092  10.036   6.557
95832SOL    HW289394  12.112  10.184   6.580
95833SOL     OW89395   7.426   7.772   7.623
95833SOL    HW189396   7.463   7.820   7.697
95833SOL    HW289397   7.496   7.771   7.558
95834SOL     OW89398   8.097  12.594   6.237
95834SOL    HW189399   8.005  12.574   6.254
95834SOL    HW289400   8.121  12.656   6.306
95835SOL     OW89401  11.238  12.581   6.658
95835SOL    HW189402  11.331  12.595   6.639
95835SOL    HW289403  11.229  12.486   6.663
95836SOL     OW89404   2.243  13.075  14.696
95836SOL    HW189405   2.209  13.128  14.624
95836SOL    HW289406   2.248  12.986  14.661
95837SOL     OW89407   7.773  10.649   8.083
95837SOL    HW189408   7.716  10.680   8.012
95837SOL    HW289409   7.845  10.604   8.039
95838SOL     OW89410  12.717   8.613   1.604
95838SOL    HW189411  12.740   8.628   1.696
95838SOL    HW289412  12.622   8.621   1.602
95839SOL     OW89413  12.221   5.794   6.777
95839SOL    HW189414  12.258   5.732   6.839
95839SOL    HW289415  12.275   5.784   6.698
95840SOL     OW89416   7.043   5.519   8.631
95840SOL    HW189417   7.050   5.529   8.536
95840SOL    HW289418   7.054   5.607   8.666
95841SOL     OW89419   5.399   9.826  11.366
95841SOL    HW189420   5.469   9.768  11.338
95841SOL    HW289421   5.386   9.886  11.293
95842SOL     OW89422   0.143   8.755  10.837
95842SOL    HW189423   0.151   8.766  10.742
95842SOL    HW289424   0.186   8.832  10.874
95843SOL     OW89425   7.026   2.571   6.612
95843SOL    HW189426   7.007   2.637   6.545
95843SOL    HW289427   6.997   2.612   6.694
95844SOL     OW89428   4.572   1.594   7.544
95844SOL    HW189429   4.642   1.546   7.588
95844SOL    HW289430   4.594   1.591   7.451
95845SOL     OW89431   1.459  12.032   8.550
95845SOL    HW189432   1.459  12.040   8.645
95845SOL    HW289433   1.383  12.083   8.522
95846SOL     OW89434   7.839   9.862  13.860
95846SOL    HW189435   7.765   9.805  13.881
95846SOL    HW289436   7.903   9.846  13.929
95847SOL     OW89437  12.445   4.960   4.699
95847SOL    HW189438  12.404   5.046   4.708
95847SOL    HW289439  12.394   4.903   4.757
95848SOL     OW89440   0.621  11.609   0.944
95848SOL    HW189441   0.635  11.517   0.919
95848SOL    HW289442   0.527  11.615   0.958
95849SOL     OW89443  12.304  10.827   3.781
95849SOL    HW189444  12.219  10.811   3.821
95849SOL    HW289445  12.343  10.740   3.771
95850SOL     OW89446   1.499   0.865   7.166
95850SOL    HW189447   1.553   0.823   7.099
95850SOL    HW289448   1.559   0.923   7.212
95851SOL     OW89449   9.401   5.983  12.177
95851SOL    HW189450   9.460   6.002  12.250
95851SOL    HW289451   9.315   5.974  12.217
95852SOL     OW89452  14.120   7.197  12.116
95852SOL    HW189453  14.146   7.288  12.129
95852SOL    HW289454  14.061   7.200  12.041
95853SOL     OW89455   1.706   9.627   9.805
95853SOL    HW189456   1.764   9.553   9.817
95853SOL    HW289457   1.764   9.703   9.799
95854SOL     OW89458   9.957   1.103   5.110
95854SOL    HW189459   9.919   1.071   5.028
95854SOL    HW289460   9.955   1.027   5.168
95855SOL     OW89461   8.658   0.532   9.469
95855SOL    HW189462   8.627   0.574   9.389
95855SOL    HW289463   8.745   0.500   9.447
95856SOL     OW89464   9.373  11.087   7.248
95856SOL    HW189465   9.305  11.069   7.184
95856SOL    HW289466   9.327  11.108   7.328
95857SOL     OW89467  13.113  12.001   5.061
95857SOL    HW189468  13.105  11.906   5.056
95857SOL    HW289469  13.045  12.035   5.003
95858SOL     OW89470   4.495   5.882   2.743
95858SOL    HW189471   4.535   5.920   2.664
95858SOL    HW289472   4.414   5.931   2.755
95859SOL     OW89473   3.611   3.786   6.814
95859SOL    HW189474   3.528   3.741   6.830
95859SOL    HW289475   3.617   3.850   6.885
95860SOL     OW89476  14.877   8.571   5.419
95860SOL    HW189477  14.829   8.650   5.441
95860SOL    HW289478  14.867   8.563   5.324
95861SOL     OW89479   9.234  12.978   0.243
95861SOL    HW189480   9.158  12.995   0.187
95861SOL    HW289481   9.306  12.962   0.182
95862SOL     OW89482  14.528  10.098   7.385
95862SOL    HW189483  14.604  10.042   7.369
95862SOL    HW289484  14.511  10.141   7.302
95863SOL     OW89485  14.797  12.925  14.682
95863SOL    HW189486  14.805  12.854  14.746
95863SOL    HW289487  14.706  12.953  14.690
95864SOL     OW89488  10.410  11.534   7.663
95864SOL    HW189489  10.467  11.586   7.606
95864SOL    HW289490  10.341  11.595   7.689
95865SOL     OW89491   5.269  11.933   5.117
95865SOL    HW189492   5.318  11.924   5.199
95865SOL    HW289493   5.277  11.848   5.074
95866SOL     OW89494   9.040   5.109   4.031
95866SOL    HW189495   9.029   5.167   4.106
95866SOL    HW289496   8.974   5.040   4.045
95867SOL     OW89497   8.350   5.210   9.623
95867SOL    HW189498   8.405   5.191   9.547
95867SOL    HW289499   8.364   5.135   9.682
95868SOL     OW89500  13.419  12.820   8.332
95868SOL    HW189501  13.332  12.846   8.362
95868SOL    HW289502  13.461  12.784   8.410
95869SOL     OW89503   6.173   3.434   5.675
95869SOL    HW189504   6.104   3.487   5.714
95869SOL    HW289505   6.141   3.415   5.587
95870SOL     OW89506  14.090   9.403  10.276
95870SOL    HW189507  14.136   9.355  10.345
95870SOL    HW289508  14.021   9.343  10.246
95871SOL     OW89509   8.782   3.540  14.757
95871SOL    HW189510   8.706   3.584  14.796
95871SOL    HW289511   8.806   3.594  14.683
95872SOL     OW89512   4.866  13.309  14.438
95872SOL    HW189513   4.814  13.233  14.464
95872SOL    HW289514   4.920  13.328  14.515
95873SOL     OW89515  10.635   3.788   4.725
95873SOL    HW189516  10.631   3.715   4.664
95873SOL    HW289517  10.641   3.747   4.811
95874SOL     OW89518  10.253   4.996   4.471
95874SOL    HW189519  10.331   4.961   4.515
95874SOL    HW289520  10.272   4.986   4.377
95875SOL     OW89521   6.992   6.942  11.237
95875SOL    HW189522   7.030   7.014  11.289
95875SOL    HW289523   7.032   6.863  11.273
95876SOL     OW89524  12.167   6.336   6.291
95876SOL    HW189525  12.122   6.265   6.338
95876SOL    HW289526  12.177   6.405   6.356
95877SOL     OW89527   6.212   8.473   6.422
95877SOL    HW189528   6.192   8.456   6.330
95877SOL    HW289529   6.127   8.480   6.464
95878SOL     OW89530   2.941  12.749   0.494
95878SOL    HW189531   2.946  12.726   0.401
95878SOL    HW289532   2.990  12.831   0.502
95879SOL     OW89533   2.050   7.814   1.136
95879SOL    HW189534   2.104   7.845   1.064
95879SOL    HW289535   1.960   7.826   1.105
95880SOL     OW89536   5.536   4.228  10.541
95880SOL    HW189537   5.529   4.166  10.613
95880SOL    HW289538   5.531   4.314  10.582
95881SOL     OW89539   8.093   3.014  11.040
95881SOL    HW189540   8.170   3.019  11.097
95881SOL    HW289541   8.078   2.921  11.027
95882SOL     OW89542  10.470  10.596  12.358
95882SOL    HW189543  10.499  10.528  12.418
95882SOL    HW289544  10.408  10.551  12.300
95883SOL     OW89545   0.234   1.859  12.011
95883SOL    HW189546   0.292   1.932  12.033
95883SOL    HW289547   0.159   1.901  11.968
95884SOL     OW89548  12.706  10.194   3.255
95884SOL    HW189549  12.727  10.178   3.163
95884SOL    HW289550  12.665  10.113   3.285
95885SOL     OW89551   5.446   0.658   5.852
95885SOL    HW189552   5.521   0.717   5.862
95885SOL    HW289553   5.484   0.572   5.839
95886SOL     OW89554   8.489  13.364   5.684
95886SOL    HW189555   8.540  13.320   5.615
95886SOL    HW289556   8.542  13.353   5.763
95887SOL     OW89557   0.143   6.182  12.245
95887SOL    HW189558   0.226   6.136  12.255
95887SOL    HW289559   0.092   6.156  12.322
95888SOL     OW89560   3.249  12.759   2.254
95888SOL    HW189561   3.338  12.776   2.222
95888SOL    HW289562   3.228  12.672   2.221
95889SOL     OW89563   1.674   3.968   7.396
95889SOL    HW189564   1.717   4.051   7.376
95889SOL    HW289565   1.652   3.931   7.311
95890SOL     OW89566   2.198   4.565   0.558
95890SOL    HW189567   2.106   4.593   0.559
95890SOL    HW289568   2.221   4.555   0.651
95891SOL     OW89569   1.879   5.955  12.933
95891SOL    HW189570   1.903   6.046  12.953
95891SOL    HW289571   1.793   5.962  12.891
95892SOL     OW89572  11.803   2.285  11.008
95892SOL    HW189573  11.887   2.329  11.010
95892SOL    HW289574  11.765   2.309  10.924
95893SOL     OW89575   8.071   1.595   2.813
95893SOL    HW189576   8.071   1.563   2.904
95893SOL    HW289577   7.979   1.593   2.788
95894SOL     OW89578   6.683   6.213   1.908
95894SOL    HW189579   6.746   6.255   1.850
95894SOL    HW289580   6.630   6.284   1.942
95895SOL     OW89581   3.923  14.388   7.071
95895SOL    HW189582   3.917  14.321   7.003
95895SOL    HW289583   3.832  14.408   7.092
95896SOL     OW89584   3.469   2.888  11.825
95896SOL    HW189585   3.498   2.949  11.758
95896SOL    HW289586   3.544   2.878  11.883
95897SOL     OW89587   1.856  12.119   2.438
95897SOL    HW189588   1.928  12.144   2.495
95897SOL    HW289589   1.855  12.187   2.370
95898SOL     OW89590   7.545  12.389   5.950
95898SOL    HW189591   7.506  12.316   5.998
95898SOL    HW289592   7.588  12.349   5.875
95899SOL     OW89593   4.397   1.756   9.475
95899SOL    HW189594   4.454   1.679   9.484
95899SOL    HW289595   4.308   1.720   9.480
95900SOL     OW89596   0.700   2.633   8.593
95900SOL    HW189597   0.633   2.627   8.661
95900SOL    HW289598   0.659   2.595   8.515
95901SOL     OW89599   1.355   8.479   7.439
95901SOL    HW189600   1.389   8.521   7.360
95901SOL    HW289601   1.285   8.422   7.408
95902SOL     OW89602  14.251   0.993  12.160
95902SOL    HW189603  14.267   0.932  12.088
95902SOL    HW289604  14.334   1.040  12.171
95903SOL     OW89605   5.615  14.731  13.009
95903SOL    HW189606   5.693  14.681  13.034
95903SOL    HW289607   5.649  14.817  12.984
95904SOL     OW89608  10.821  10.638  14.339
95904SOL    HW189609  10.733  10.616  14.368
95904SOL    HW289610  10.867  10.664  14.419
95905SOL     OW89611   1.031   3.330   0.795
95905SOL    HW189612   1.009   3.280   0.717
95905SOL    HW289613   1.126   3.328   0.799
95906SOL     OW89614   8.575   5.964  12.406
95906SOL    HW189615   8.669   5.948  12.416
95906SOL    HW289616   8.564   5.992  12.316
95907SOL     OW89617   8.158   0.942   7.083
95907SOL    HW189618   8.160   0.881   7.157
95907SOL    HW289619   8.209   1.017   7.113
95908SOL     OW89620   8.584   3.543   6.368
95908SOL    HW189621   8.491   3.559   6.351
95908SOL    HW289622   8.628   3.570   6.287
95909SOL     OW89623   8.714  10.490   6.363
95909SOL    HW189624   8.777  10.420   6.377
95909SOL    HW289625   8.710  10.536   6.447
95910SOL     OW89626   1.848   4.135   4.818
95910SOL    HW189627   1.759   4.159   4.843
95910SOL    HW289628   1.901   4.211   4.839
95911SOL     OW89629   6.504  14.686  10.748
95911SOL    HW189630   6.420  14.681  10.703
95911SOL    HW289631   6.518  14.597  10.782
95912SOL     OW89632   8.585  12.197   4.015
95912SOL    HW189633   8.551  12.243   4.091
95912SOL    HW289634   8.672  12.167   4.042
95913SOL     OW89635   0.761   0.042   2.504
95913SOL    HW189636   0.696   0.107   2.478
95913SOL    HW289637   0.844   0.091   2.505
95914SOL     OW89638  12.138   0.690   6.948
95914SOL    HW189639  12.059   0.658   6.905
95914SOL    HW289640  12.199   0.616   6.942
95915SOL     OW89641   1.559  10.900   2.658
95915SOL    HW189642   1.560  10.832   2.591
95915SOL    HW289643   1.647  10.896   2.696
95916SOL     OW89644   7.715   5.693   2.361
95916SOL    HW189645   7.750   5.782   2.369
95916SOL    HW289646   7.672   5.691   2.276
95917SOL     OW89647   6.983   6.487   8.779
95917SOL    HW189648   6.924   6.532   8.718
95917SOL    HW289649   6.928   6.463   8.853
95918SOL     OW89650   0.207   8.437   3.253
95918SOL    HW189651   0.135   8.496   3.228
95918SOL    HW289652   0.186   8.354   3.210
95919SOL     OW89653  12.753   2.346   4.369
95919SOL    HW189654  12.674   2.396   4.350
95919SOL    HW289655  12.823   2.412   4.370
95920SOL     OW89656   5.369   1.150   4.064
95920SOL    HW189657   5.447   1.183   4.110
95920SOL    HW289658   5.308   1.129   4.134
95921SOL     OW89659   8.968   3.557   4.725
95921SOL    HW189660   8.941   3.629   4.668
95921SOL    HW289661   8.938   3.583   4.812
95922SOL     OW89662  10.846   4.037   3.931
95922SOL    HW189663  10.910   3.970   3.953
95922SOL    HW289664  10.830   4.024   3.837
95923SOL     OW89665   4.727   0.249   6.712
95923SOL    HW189666   4.740   0.305   6.636
95923SOL    HW289667   4.658   0.189   6.686
95924SOL     OW89668   2.919   8.063   6.463
95924SOL    HW189669   3.002   8.028   6.496
95924SOL    HW289670   2.870   7.985   6.436
95925SOL     OW89671   5.280   9.598  13.417
95925SOL    HW189672   5.327   9.666  13.467
95925SOL    HW289673   5.314   9.516  13.452
95926SOL     OW89674   3.514  14.528   7.612
95926SOL    HW189675   3.435  14.499   7.567
95926SOL    HW289676   3.582  14.468   7.582
95927SOL     OW89677   7.288   3.140   2.978
95927SOL    HW189678   7.346   3.210   2.947
95927SOL    HW289679   7.200   3.176   2.972
95928SOL     OW89680   4.224   5.410  14.476
95928SOL    HW189681   4.276   5.385  14.552
95928SOL    HW289682   4.278   5.474  14.429
95929SOL     OW89683   3.815   0.911  10.681
95929SOL    HW189684   3.875   0.867  10.741
95929SOL    HW289685   3.803   0.998  10.717
95930SOL     OW89686   2.649   0.055   1.324
95930SOL    HW189687   2.662   0.129   1.383
95930SOL    HW289688   2.574   0.081   1.270
95931SOL     OW89689   6.354   5.059   8.736
95931SOL    HW189690   6.436   5.012   8.722
95931SOL    HW289691   6.329   5.038   8.825
95932SOL     OW89692   4.492   4.587   7.110
95932SOL    HW189693   4.502   4.500   7.071
95932SOL    HW289694   4.445   4.637   7.043
95933SOL     OW89695   5.244  11.809   9.724
95933SOL    HW189696   5.176  11.771   9.781
95933SOL    HW289697   5.251  11.900   9.752
95934SOL     OW89698   6.647   1.087   1.260
95934SOL    HW189699   6.740   1.108   1.270
95934SOL    HW289700   6.628   1.025   1.330
95935SOL     OW89701   2.463   2.871   4.745
95935SOL    HW189702   2.404   2.818   4.692
95935SOL    HW289703   2.532   2.898   4.684
95936SOL     OW89704  14.072   9.319  11.242
95936SOL    HW189705  13.988   9.332  11.197
95936SOL    HW289706  14.050   9.266  11.319
95937SOL     OW89707   6.171  13.073  12.231
95937SOL    HW189708   6.145  13.016  12.303
95937SOL    HW289709   6.218  13.016  12.170
95938SOL     OW89710   5.457   1.567   0.901
95938SOL    HW189711   5.405   1.590   0.978
95938SOL    HW289712   5.422   1.482   0.875
95939SOL     OW89713   3.411  11.540  11.416
95939SOL    HW189714   3.501  11.513  11.436
95939SOL    HW289715   3.413  11.636  11.424
95940SOL     OW89716   2.597   0.057  12.503
95940SOL    HW189717   2.577  14.850  12.468
95940SOL    HW289718   2.518   0.108  12.489
95941SOL     OW89719  14.781   4.814   1.069
95941SOL    HW189720  14.726   4.826   1.146
95941SOL    HW289721  14.719   4.798   0.998
95942SOL     OW89722  13.099  11.666   9.159
95942SOL    HW189723  13.023  11.620   9.195
95942SOL    HW289724  13.062  11.746   9.120
95943SOL     OW89725   3.909  13.722   8.637
95943SOL    HW189726   3.910  13.816   8.656
95943SOL    HW289727   3.917  13.717   8.542
95944SOL     OW89728   7.260  10.453   7.524
95944SOL    HW189729   7.278  10.360   7.532
95944SOL    HW289730   7.271  10.471   7.430
95945SOL     OW89731   8.483   8.819   8.879
95945SOL    HW189732   8.437   8.891   8.922
95945SOL    HW289733   8.478   8.747   8.942
95946SOL     OW89734   0.280   8.232   5.748
95946SOL    HW189735   0.244   8.296   5.687
95946SOL    HW289736   0.205   8.199   5.796
95947SOL     OW89737   7.097   6.058   2.112
95947SOL    HW189738   7.050   6.031   2.033
95947SOL    HW289739   7.053   6.011   2.183
95948SOL     OW89740   6.446   3.840  14.121
95948SOL    HW189741   6.393   3.798  14.189
95948SOL    HW289742   6.458   3.771  14.055
95949SOL     OW89743   4.723  12.857   1.707
95949SOL    HW189744   4.645  12.829   1.755
95949SOL    HW289745   4.718  12.952   1.704
95950SOL     OW89746   7.563  10.349   1.973
95950SOL    HW189747   7.643  10.312   2.010
95950SOL    HW289748   7.544  10.426   2.027
95951SOL     OW89749   8.834   9.402   2.471
95951SOL    HW189750   8.780   9.427   2.546
95951SOL    HW289751   8.782   9.428   2.395
95952SOL     OW89752   2.377  13.147   1.808
95952SOL    HW189753   2.424  13.129   1.889
95952SOL    HW289754   2.326  13.067   1.791
95953SOL     OW89755   9.624   3.010   2.976
95953SOL    HW189756   9.536   3.048   2.974
95953SOL    HW289757   9.649   3.004   2.884
95954SOL     OW89758   9.999  11.525   5.538
95954SOL    HW189759  10.057  11.573   5.597
95954SOL    HW289760  10.058  11.477   5.479
95955SOL     OW89761   2.031   3.254  12.926
95955SOL    HW189762   2.095   3.252  12.996
95955SOL    HW289763   1.954   3.211  12.963
95956SOL     OW89764   5.124   8.837  14.724
95956SOL    HW189765   5.182   8.808  14.795
95956SOL    HW289766   5.126   8.932  14.728
95957SOL     OW89767  14.066   1.582   6.953
95957SOL    HW189768  14.027   1.560   7.038
95957SOL    HW289769  14.052   1.676   6.944
95958SOL     OW89770   8.450   3.998  11.634
95958SOL    HW189771   8.532   4.015  11.588
95958SOL    HW289772   8.391   4.068  11.606
95959SOL     OW89773  10.981  10.997   5.977
95959SOL    HW189774  11.003  10.980   6.068
95959SOL    HW289775  10.927  10.923   5.951
95960SOL     OW89776   6.831  11.726  14.444
95960SOL    HW189777   6.744  11.736  14.406
95960SOL    HW289778   6.829  11.642  14.488
95961SOL     OW89779   7.752   5.043   8.701
95961SOL    HW189780   7.748   5.062   8.607
95961SOL    HW289781   7.737   4.949   8.708
95962SOL     OW89782   9.456   9.144   1.553
95962SOL    HW189783   9.393   9.109   1.490
95962SOL    HW289784   9.411   9.219   1.593
95963SOL     OW89785  13.052   0.991   4.415
95963SOL    HW189786  13.093   0.957   4.494
95963SOL    HW289787  12.987   1.054   4.446
95964SOL     OW89788  10.084  14.649  13.697
95964SOL    HW189789  10.024  14.626  13.625
95964SOL    HW289790  10.160  14.593  13.683
95965SOL     OW89791   6.344  10.952   7.167
95965SOL    HW189792   6.316  10.996   7.247
95965SOL    HW289793   6.329  10.859   7.184
95966SOL     OW89794  10.467   2.022  13.665
95966SOL    HW189795  10.477   2.000  13.758
95966SOL    HW289796  10.372   2.016  13.649
95967SOL     OW89797   3.115   8.470   3.876
95967SOL    HW189798   3.155   8.451   3.791
95967SOL    HW289799   3.026   8.499   3.855
95968SOL     OW89800   4.613  11.281   2.270
95968SOL    HW189801   4.683  11.253   2.330
95968SOL    HW289802   4.555  11.205   2.266
95969SOL     OW89803   8.815   8.003  10.281
95969SOL    HW189804   8.908   7.988  10.296
95969SOL    HW289805   8.786   8.056  10.355
95970SOL     OW89806   7.725  14.229   8.439
95970SOL    HW189807   7.767  14.146   8.461
95970SOL    HW289808   7.634  14.218   8.467
95971SOL     OW89809   4.464   4.359  14.497
95971SOL    HW189810   4.553   4.325  14.487
95971SOL    HW289811   4.408   4.284  14.477
95972SOL     OW89812   8.963   5.918   1.837
95972SOL    HW189813   8.934   6.000   1.877
95972SOL    HW289814   9.037   5.943   1.781
95973SOL     OW89815   3.693   0.449   8.472
95973SOL    HW189816   3.736   0.368   8.497
95973SOL    HW289817   3.599   0.432   8.481
95974SOL     OW89818   7.128  13.852   1.704
95974SOL    HW189819   7.157  13.941   1.726
95974SOL    HW289820   7.209  13.802   1.693
95975SOL     OW89821  12.591   9.010   2.334
95975SOL    HW189822  12.683   9.036   2.323
95975SOL    HW289823  12.593   8.947   2.406
95976SOL     OW89824  13.116   3.272   0.991
95976SOL    HW189825  13.036   3.238   1.031
95976SOL    HW289826  13.169   3.194   0.974
95977SOL     OW89827   4.868   5.758   0.755
95977SOL    HW189828   4.863   5.834   0.696
95977SOL    HW289829   4.820   5.689   0.710
95978SOL     OW89830   5.009   2.053   1.871
95978SOL    HW189831   5.010   2.089   1.959
95978SOL    HW289832   5.096   2.017   1.858
95979SOL     OW89833  12.208   2.702   1.769
95979SOL    HW189834  12.144   2.641   1.733
95979SOL    HW289835  12.184   2.787   1.733
95980SOL     OW89836  13.634   3.523   8.231
95980SOL    HW189837  13.697   3.594   8.244
95980SOL    HW289838  13.687   3.444   8.226
95981SOL     OW89839   4.236  12.342   2.271
95981SOL    HW189840   4.147  12.342   2.236
95981SOL    HW289841   4.224  12.356   2.365
95982SOL     OW89842   9.420   6.196   6.334
95982SOL    HW189843   9.345   6.145   6.362
95982SOL    HW289844   9.482   6.190   6.408
95983SOL     OW89845   0.958   2.309   7.841
95983SOL    HW189846   0.949   2.398   7.807
95983SOL    HW289847   0.870   2.272   7.835
95984SOL     OW89848  11.758   4.618  10.736
95984SOL    HW189849  11.731   4.672  10.810
95984SOL    HW289850  11.692   4.636  10.668
95985SOL     OW89851   3.162   0.494  10.597
95985SOL    HW189852   3.198   0.410  10.626
95985SOL    HW289853   3.178   0.554  10.670
95986SOL     OW89854   7.027  13.415   5.584
95986SOL    HW189855   6.980  13.461   5.654
95986SOL    HW289856   7.025  13.476   5.510
95987SOL     OW89857   5.056  13.888   0.465
95987SOL    HW189858   5.010  13.807   0.486
95987SOL    HW289859   4.995  13.937   0.410
95988SOL     OW89860   6.531  12.459   7.665
95988SOL    HW189861   6.606  12.515   7.683
95988SOL    HW289862   6.469  12.479   7.736
95989SOL     OW89863   6.747   2.346   2.604
95989SOL    HW189864   6.776   2.275   2.546
95989SOL    HW289865   6.824   2.400   2.618
95990SOL     OW89866   5.790   9.301   1.673
95990SOL    HW189867   5.774   9.388   1.708
95990SOL    HW289868   5.880   9.281   1.697
95991SOL     OW89869   5.949   9.118  11.225
95991SOL    HW189870   5.917   9.185  11.285
95991SOL    HW289871   6.022   9.077  11.271
95992SOL     OW89872   0.046   8.209   5.878
95992SOL    HW189873  14.862   8.138   5.876
95992SOL    HW289874   0.071   8.216   5.971
95993SOL     OW89875  10.241   1.449  12.494
95993SOL    HW189876  10.314   1.387  12.489
95993SOL    HW289877  10.252   1.492  12.579
95994SOL     OW89878   2.594   8.420   8.033
95994SOL    HW189879   2.529   8.452   8.095
95994SOL    HW289880   2.654   8.368   8.087
95995SOL     OW89881   1.567  10.061  12.190
95995SOL    HW189882   1.607  10.143  12.221
95995SOL    HW289883   1.601   9.994  12.250
95996SOL     OW89884   3.657   8.001   8.170
95996SOL    HW189885   3.623   7.948   8.242
95996SOL    HW289886   3.719   8.061   8.211
95997SOL     OW89887  14.356   9.631  13.357
95997SOL    HW189888  14.277   9.596  13.315
95997SOL    HW289889  14.351   9.725  13.342
95998SOL     OW89890   5.178   3.225   6.311
95998SOL    HW189891   5.147   3.198   6.397
95998SOL    HW289892   5.110   3.195   6.250
95999SOL     OW89893   9.421   8.779   7.401
95999SOL    HW189894   9.373   8.722   7.462
95999SOL    HW289895   9.437   8.859   7.451
96000SOL     OW89896   2.259   6.749  13.900
96000SOL    HW189897   2.309   6.680  13.944
96000SOL    HW289898   2.314   6.827  13.908
96001SOL     OW89899   8.529   9.347   2.421
96001SOL    HW189900   8.563   9.424   2.375
96001SOL    HW289901   8.459   9.381   2.476
96002SOL     OW89902  13.401   4.458   5.099
96002SOL    HW189903  13.493   4.482   5.088
96002SOL    HW289904  13.359   4.489   5.018
96003SOL     OW89905   2.951  12.929   7.883
96003SOL    HW189906   2.983  12.852   7.930
96003SOL    HW289907   2.856  12.928   7.896
96004SOL     OW89908   4.869  10.075   2.123
96004SOL    HW189909   4.905   9.992   2.154
96004SOL    HW289910   4.810  10.103   2.193
96005SOL     OW89911   7.549  10.777   9.417
96005SOL    HW189912   7.498  10.803   9.493
96005SOL    HW289913   7.498  10.807   9.342
96006SOL     OW89914  12.096  13.232   1.600
96006SOL    HW189915  12.112  13.141   1.626
96006SOL    HW289916  12.002  13.243   1.614
96007SOL     OW89917  11.160   5.863   6.138
96007SOL    HW189918  11.088   5.866   6.200
96007SOL    HW289919  11.120   5.838   6.055
96008SOL     OW89920   6.548  11.632   5.573
96008SOL    HW189921   6.546  11.542   5.543
96008SOL    HW289922   6.487  11.634   5.647
96009SOL     OW89923   3.036   7.647  14.442
96009SOL    HW189924   2.955   7.679  14.481
96009SOL    HW289925   3.106   7.693  14.490
96010SOL     OW89926  11.717   0.515   6.625
96010SOL    HW189927  11.755   0.427   6.613
96010SOL    HW289928  11.712   0.551   6.536
96011SOL     OW89929   5.640   5.204   8.149
96011SOL    HW189930   5.657   5.161   8.065
96011SOL    HW289931   5.556   5.248   8.136
96012SOL     OW89932   4.195   1.678   7.753
96012SOL    HW189933   4.191   1.586   7.727
96012SOL    HW289934   4.286   1.703   7.737
96013SOL     OW89935   5.434   9.549   0.779
96013SOL    HW189936   5.425   9.462   0.740
96013SOL    HW289937   5.519   9.581   0.748
96014SOL     OW89938   7.247  11.627  13.928
96014SOL    HW189939   7.303  11.696  13.964
96014SOL    HW289940   7.282  11.610  13.841
96015SOL     OW89941   1.357   2.749   8.450
96015SOL    HW189942   1.305   2.717   8.525
96015SOL    HW289943   1.434   2.692   8.449
96016SOL     OW89944  10.583   7.611  13.276
96016SOL    HW189945  10.515   7.677  13.289
96016SOL    HW289946  10.542   7.529  13.304
96017SOL     OW89947   4.077   0.248  12.255
96017SOL    HW189948   4.096   0.190  12.182
96017SOL    HW289949   4.123   0.329  12.234
96018SOL     OW89950   5.242  10.461   5.609
96018SOL    HW189951   5.278  10.444   5.696
96018SOL    HW289952   5.316  10.452   5.550
96019SOL     OW89953  11.378  13.368  10.606
96019SOL    HW189954  11.289  13.398  10.625
96019SOL    HW289955  11.428  13.388  10.686
96020SOL     OW89956   9.052   2.332   1.666
96020SOL    HW189957   8.956   2.331   1.668
96020SOL    HW289958   9.077   2.239   1.666
96021SOL     OW89959   9.794  10.459  13.771
96021SOL    HW189960   9.766  10.402  13.843
96021SOL    HW289961   9.718  10.464  13.713
96022SOL     OW89962   6.497   7.779   5.135
96022SOL    HW189963   6.491   7.814   5.046
96022SOL    HW289964   6.418   7.726   5.146
96023SOL     OW89965   9.687  11.870   0.295
96023SOL    HW189966   9.618  11.888   0.231
96023SOL    HW289967   9.760  11.926   0.268
96024SOL     OW89968   4.180   5.834  12.747
96024SOL    HW189969   4.221   5.921  12.747
96024SOL    HW289970   4.248   5.775  12.714
96025SOL     OW89971   5.330  11.794  13.521
96025SOL    HW189972   5.386  11.796  13.598
96025SOL    HW289973   5.260  11.732  13.542
96026SOL     OW89974   4.827   4.811   4.841
96026SOL    HW189975   4.868   4.894   4.865
96026SOL    HW289976   4.900   4.756   4.812
96027SOL     OW89977   1.172  13.609   0.371
96027SOL    HW189978   1.248  13.653   0.409
96027SOL    HW289979   1.139  13.553   0.442
96028SOL     OW89980   5.331   7.366   2.038
96028SOL    HW189981   5.301   7.295   2.095
96028SOL    HW289982   5.409   7.331   1.996
96029SOL     OW89983  14.295   6.292   7.570
96029SOL    HW189984  14.327   6.206   7.543
96029SOL    HW289985  14.212   6.273   7.614
96030SOL     OW89986   8.117   4.495  13.783
96030SOL    HW189987   8.045   4.500  13.846
96030SOL    HW289988   8.175   4.568  13.807
96031SOL     OW89989   0.350  12.343  14.640
96031SOL    HW189990   0.263  12.323  14.605
96031SOL    HW289991   0.338  12.426  14.686
96032SOL     OW89992   5.885  11.043  11.498
96032SOL    HW189993   5.823  11.080  11.435
96032SOL    HW289994   5.971  11.056  11.457
96033SOL     OW89995  11.519  14.761  11.849
96033SOL    HW189996  11.594  14.791  11.900
96033SOL    HW289997  11.557  14.713  11.775
96034SOL     OW89998   6.857   1.154  11.385
96034SOL    HW189999   6.940   1.116  11.358
96034SOL    HW290000   6.861   1.153  11.481
96035SOL     OW90001   4.426   8.067  10.308
96035SOL    HW190002   4.358   8.008  10.276
96035SOL    HW290003   4.486   8.076  10.234
96036SOL     OW90004   2.979   1.905   2.400
96036SOL    HW190005   2.894   1.864   2.387
96036SOL    HW290006   3.005   1.934   2.312
96037SOL     OW90007  13.912   1.652   1.651
96037SOL    HW190008  13.932   1.673   1.742
96037SOL    HW290009  13.874   1.732   1.615
96038SOL     OW90010   9.605   8.352   4.661
96038SOL    HW190011   9.575   8.428   4.612
96038SOL    HW290012   9.589   8.376   4.753
96039SOL     OW90013  11.685   1.515  10.401
96039SOL    HW190014  11.701   1.430  10.359
96039SOL    HW290015  11.751   1.520  10.470
96040SOL     OW90016   7.361   5.244   7.983
96040SOL    HW190017   7.335   5.312   8.045
96040SOL    HW290018   7.286   5.237   7.924
96041SOL     OW90019   6.726   5.941   5.360
96041SOL    HW190020   6.686   6.025   5.383
96041SOL    HW290021   6.660   5.898   5.304
96042SOL     OW90022   4.091   9.563   9.669
96042SOL    HW190023   4.184   9.583   9.666
96042SOL    HW290024   4.087   9.467   9.674
96043SOL     OW90025   2.395   3.402  14.636
96043SOL    HW190026   2.471   3.460  14.640
96043SOL    HW290027   2.328   3.454  14.590
96044SOL     OW90028   7.965   8.691  11.309
96044SOL    HW190029   8.035   8.681  11.374
96044SOL    HW290030   7.994   8.764  11.254
96045SOL     OW90031  12.183   9.153   8.679
96045SOL    HW190032  12.103   9.169   8.629
96045SOL    HW290033  12.208   9.239   8.712
96046SOL     OW90034  10.561   1.135   4.618
96046SOL    HW190035  10.489   1.170   4.671
96046SOL    HW290036  10.614   1.086   4.680
96047SOL     OW90037  10.959   8.237   1.948
96047SOL    HW190038  10.929   8.147   1.958
96047SOL    HW290039  10.891   8.280   1.897
96048SOL     OW90040   6.623   8.121  13.845
96048SOL    HW190041   6.659   8.154  13.763
96048SOL    HW290042   6.620   8.026  13.834
96049SOL     OW90043  14.827  10.720  13.160
96049SOL    HW190044  14.744  10.687  13.124
96049SOL    HW290045  14.820  10.815  13.150
96050SOL     OW90046   0.680   9.423   3.273
96050SOL    HW190047   0.672   9.388   3.184
96050SOL    HW290048   0.600   9.394   3.317
96051SOL     OW90049   6.049  10.491  12.340
96051SOL    HW190050   5.966  10.507  12.385
96051SOL    HW290051   6.093  10.424  12.392
96052SOL     OW90052  14.063   9.878   4.665
96052SOL    HW190053  14.061   9.869   4.760
96052SOL    HW290054  14.036   9.968   4.648
96053SOL     OW90055   9.297   4.659   9.931
96053SOL    HW190056   9.388   4.631   9.923
96053SOL    HW290057   9.256   4.631   9.850
96054SOL     OW90058   6.188  10.522   6.657
96054SOL    HW190059   6.213  10.592   6.597
96054SOL    HW290060   6.159  10.567   6.736
96055SOL     OW90061   2.783   2.735   5.529
96055SOL    HW190062   2.840   2.808   5.504
96055SOL    HW290063   2.837   2.681   5.587
96056SOL     OW90064   4.843   7.112   9.963
96056SOL    HW190065   4.817   7.146   9.877
96056SOL    HW290066   4.820   7.019   9.959
96057SOL     OW90067   0.075   1.612   6.020
96057SOL    HW190068   0.086   1.636   6.112
96057SOL    HW290069   0.095   1.518   6.017
96058SOL     OW90070   5.672   0.572  12.441
96058SOL    HW190071   5.603   0.549  12.378
96058SOL    HW290072   5.753   0.546  12.398
96059SOL     OW90073  10.188   3.174   6.370
96059SOL    HW190074  10.242   3.119   6.426
96059SOL    HW290075  10.172   3.253   6.421
96060SOL     OW90076   0.900   5.530   5.500
96060SOL    HW190077   0.957   5.558   5.429
96060SOL    HW290078   0.952   5.467   5.550
96061SOL     OW90079   7.766  14.802   6.058
96061SOL    HW190080   7.776  14.800   6.153
96061SOL    HW290081   7.829  14.868   6.029
96062SOL     OW90082   9.460  10.318   7.898
96062SOL    HW190083   9.515  10.362   7.962
96062SOL    HW290084   9.519  10.261   7.850
96063SOL     OW90085   1.269   1.063  10.339
96063SOL    HW190086   1.350   1.047  10.291
96063SOL    HW290087   1.297   1.084  10.428
96064SOL     OW90088   3.967   0.298   8.998
96064SOL    HW190089   3.958   0.249   8.916
96064SOL    HW290090   3.926   0.383   8.980
96065SOL     OW90091  12.379   2.448   0.537
96065SOL    HW190092  12.329   2.461   0.456
96065SOL    HW290093  12.424   2.364   0.524
96066SOL     OW90094  14.550   7.921   8.177
96066SOL    HW190095  14.457   7.925   8.154
96066SOL    HW290096  14.589   7.995   8.130
96067SOL     OW90097   7.866   1.948   1.741
96067SOL    HW190098   7.908   1.865   1.717
96067SOL    HW290099   7.849   1.940   1.834
96068SOL     OW90100   5.180   0.731  10.863
96068SOL    HW190101   5.222   0.726  10.949
96068SOL    HW290102   5.148   0.642  10.847
96069SOL     OW90103   7.544   9.151  14.179
96069SOL    HW190104   7.566   9.069  14.136
96069SOL    HW290105   7.628   9.185  14.211
96070SOL     OW90106   9.550  12.072   5.304
96070SOL    HW190107   9.492  12.024   5.363
96070SOL    HW290108   9.565  12.011   5.231
96071SOL     OW90109  14.872   5.375   3.747
96071SOL    HW190110  14.852   5.405   3.659
96071SOL    HW290111   0.081   5.339   3.740
96072SOL     OW90112   1.158   9.463  10.093
96072SOL    HW190113   1.136   9.541  10.043
96072SOL    HW290114   1.073   9.427  10.119
96073SOL     OW90115   1.576   3.428  14.640
96073SOL    HW190116   1.603   3.514  14.607
96073SOL    HW290117   1.555   3.444  14.732
96074SOL     OW90118   3.640   9.653   0.212
96074SOL    HW190119   3.689   9.670   0.292
96074SOL    HW290120   3.707   9.630   0.147
96075SOL     OW90121   7.890   9.596   8.589
96075SOL    HW190122   7.932   9.510   8.584
96075SOL    HW290123   7.829   9.598   8.516
96076SOL     OW90124  13.840   9.707   2.955
96076SOL    HW190125  13.791   9.673   3.031
96076SOL    HW290126  13.894   9.777   2.991
96077SOL     OW90127   2.913  13.466  11.025
96077SOL    HW190128   2.879  13.377  11.015
96077SOL    HW290129   2.841  13.522  10.996
96078SOL     OW90130   0.259   5.575   9.843
96078SOL    HW190131   0.209   5.514   9.898
96078SOL    HW290132   0.326   5.610   9.902
96079SOL     OW90133   1.450   7.474  10.699
96079SOL    HW190134   1.499   7.455  10.619
96079SOL    HW290135   1.373   7.522  10.669
96080SOL     OW90136   9.264  10.114   2.567
96080SOL    HW190137   9.250  10.030   2.612
96080SOL    HW290138   9.187  10.124   2.511
96081SOL     OW90139  14.346   8.901   4.792
96081SOL    HW190140  14.369   8.990   4.819
96081SOL    HW290141  14.343   8.851   4.873
96082SOL     OW90142   0.707   9.566   1.070
96082SOL    HW190143   0.780   9.518   1.031
96082SOL    HW290144   0.696   9.642   1.014
96083SOL     OW90145   0.727   4.130   2.300
96083SOL    HW190146   0.728   4.213   2.252
96083SOL    HW290147   0.779   4.146   2.378
96084SOL     OW90148  12.541   9.048   7.103
96084SOL    HW190149  12.446   9.040   7.091
96084SOL    HW290150  12.576   9.038   7.014
96085SOL     OW90151   3.964  11.803  11.644
96085SOL    HW190152   4.026  11.766  11.707
96085SOL    HW290153   3.956  11.895  11.669
96086SOL     OW90154   5.885   0.130   9.636
96086SOL    HW190155   5.890   0.142   9.541
96086SOL    HW290156   5.822   0.196   9.665
96087SOL     OW90157   3.635   6.326   6.653
96087SOL    HW190158   3.598   6.248   6.612
96087SOL    HW290159   3.610   6.319   6.745
96088SOL     OW90160   8.304   8.382  14.556
96088SOL    HW190161   8.280   8.320  14.487
96088SOL    HW290162   8.262   8.464  14.530
96089SOL     OW90163   7.194  13.412   1.892
96089SOL    HW190164   7.190  13.485   1.953
96089SOL    HW290165   7.202  13.335   1.947
96090SOL     OW90166   4.065   0.181   7.455
96090SOL    HW190167   3.972   0.177   7.433
96090SOL    HW290168   4.094   0.090   7.455
96091SOL     OW90169   3.661  12.377  12.634
96091SOL    HW190170   3.645  12.433  12.710
96091SOL    HW290171   3.711  12.303  12.669
96092SOL     OW90172  13.144   9.523   2.072
96092SOL    HW190173  13.213   9.472   2.114
96092SOL    HW290174  13.092   9.559   2.144
96093SOL     OW90175   7.893   0.252   7.106
96093SOL    HW190176   7.826   0.319   7.091
96093SOL    HW290177   7.910   0.215   7.019
96094SOL     OW90178   5.382  10.379   3.794
96094SOL    HW190179   5.402  10.391   3.702
96094SOL    HW290180   5.463  10.344   3.832
96095SOL     OW90181   4.068  12.819   5.467
96095SOL    HW190182   4.021  12.738   5.487
96095SOL    HW290183   4.113  12.802   5.385
96096SOL     OW90184  13.084   0.781   8.970
96096SOL    HW190185  13.113   0.837   8.898
96096SOL    HW290186  13.133   0.811   9.046
96097SOL     OW90187   5.109   8.792   4.937
96097SOL    HW190188   5.034   8.804   4.996
96097SOL    HW290189   5.182   8.773   4.995
96098SOL     OW90190  14.551  10.619   7.695
96098SOL    HW190191  14.484  10.598   7.631
96098SOL    HW290192  14.588  10.534   7.720
96099SOL     OW90193   2.645  11.189  11.227
96099SOL    HW190194   2.650  11.097  11.256
96099SOL    HW290195   2.607  11.235  11.302
96100SOL     OW90196  10.629  13.997   2.715
96100SOL    HW190197  10.547  13.951   2.695
96100SOL    HW290198  10.688  13.971   2.644
96101SOL     OW90199   4.676   2.931   5.126
96101SOL    HW190200   4.630   2.914   5.209
96101SOL    HW290201   4.764   2.957   5.152
96102SOL     OW90202   9.426   9.662   8.603
96102SOL    HW190203   9.438   9.608   8.525
96102SOL    HW290204   9.409   9.750   8.569
96103SOL     OW90205  12.852   7.196  10.221
96103SOL    HW190206  12.888   7.284  10.231
96103SOL    HW290207  12.919   7.149  10.171
96104SOL     OW90208   2.323  10.958   2.944
96104SOL    HW190209   2.292  10.963   3.034
96104SOL    HW290210   2.294  10.872   2.913
96105SOL     OW90211   4.009   4.670   0.507
96105SOL    HW190212   4.103   4.686   0.517
96105SOL    HW290213   4.003   4.585   0.463
96106SOL     OW90214  11.235   4.163   6.310
96106SOL    HW190215  11.175   4.170   6.384
96106SOL    HW290216  11.312   4.119   6.345
96107SOL     OW90217   0.355   9.300  11.134
96107SOL    HW190218   0.406   9.371  11.173
96107SOL    HW290219   0.362   9.228  11.197
96108SOL     OW90220   2.405   9.014   3.941
96108SOL    HW190221   2.455   9.044   3.865
96108SOL    HW290222   2.327   9.068   3.941
96109SOL     OW90223   6.630   5.229   9.930
96109SOL    HW190224   6.584   5.313   9.934
96109SOL    HW290225   6.611   5.196   9.842
96110SOL     OW90226   4.854   9.731   4.382
96110SOL    HW190227   4.781   9.790   4.401
96110SOL    HW290228   4.816   9.643   4.391
96111SOL     OW90229   9.671   1.925  11.705
96111SOL    HW190230   9.738   1.955  11.644
96111SOL    HW290231   9.665   1.831  11.690
96112SOL     OW90232   5.253  13.645   3.226
96112SOL    HW190233   5.330  13.587   3.222
96112SOL    HW290234   5.181  13.591   3.194
96113SOL     OW90235   7.597  13.553   3.041
96113SOL    HW190236   7.578  13.460   3.030
96113SOL    HW290237   7.693  13.558   3.046
96114SOL     OW90238  13.559   9.917  10.994
96114SOL    HW190239  13.627   9.985  10.986
96114SOL    HW290240  13.545   9.886  10.905
96115SOL     OW90241  13.411  14.242  14.035
96115SOL    HW190242  13.376  14.306  13.974
96115SOL    HW290243  13.439  14.293  14.111
96116SOL     OW90244   7.292  10.561   7.279
96116SOL    HW190245   7.254  10.578   7.193
96116SOL    HW290246   7.357  10.631   7.291
96117SOL     OW90247   1.954   7.587  13.928
96117SOL    HW190248   1.946   7.640  13.848
96117SOL    HW290249   2.001   7.509  13.900
96118SOL     OW90250   3.164   5.839   7.509
96118SOL    HW190251   3.118   5.843   7.425
96118SOL    HW290252   3.160   5.928   7.543
96119SOL     OW90253  10.759   6.990  14.215
96119SOL    HW190254  10.776   6.936  14.137
96119SOL    HW290255  10.846   7.003  14.254
96120SOL     OW90256   8.743  13.523   0.257
96120SOL    HW190257   8.769  13.444   0.210
96120SOL    HW290258   8.762  13.504   0.349
96121SOL     OW90259  10.574   8.670   9.731
96121SOL    HW190260  10.479   8.677   9.732
96121SOL    HW290261  10.598   8.661   9.824
96122SOL     OW90262   9.966  14.552   2.201
96122SOL    HW190263   9.998  14.545   2.112
96122SOL    HW290264   9.928  14.640   2.207
96123SOL     OW90265  11.512   5.551  13.751
96123SOL    HW190266  11.514   5.630  13.697
96123SOL    HW290267  11.435   5.503  13.720
96124SOL     OW90268  12.858   3.556  13.607
96124SOL    HW190269  12.793   3.621  13.580
96124SOL    HW290270  12.859   3.492  13.537
96125SOL     OW90271   2.020   2.664   6.083
96125SOL    HW190272   1.978   2.587   6.045
96125SOL    HW290273   2.113   2.640   6.091
96126SOL     OW90274   1.007   8.912   2.650
96126SOL    HW190275   1.062   8.869   2.716
96126SOL    HW290276   1.006   9.004   2.677
96127SOL     OW90277   5.828   5.326   8.291
96127SOL    HW190278   5.758   5.280   8.244
96127SOL    HW290279   5.866   5.385   8.226
96128SOL     OW90280  14.537   8.697   4.536
96128SOL    HW190281  14.471   8.718   4.602
96128SOL    HW290282  14.545   8.601   4.541
96129SOL     OW90283   5.689   1.313   5.403
96129SOL    HW190284   5.742   1.292   5.480
96129SOL    HW290285   5.750   1.311   5.330
96130SOL     OW90286   5.671   2.942   4.033
96130SOL    HW190287   5.693   2.933   4.125
96130SOL    HW290288   5.619   2.864   4.013
96131SOL     OW90289   3.982   8.919   9.455
96131SOL    HW190290   4.077   8.933   9.458
96131SOL    HW290291   3.950   8.979   9.388
96132SOL     OW90292  14.608  13.826   3.954
96132SOL    HW190293  14.598  13.895   3.890
96132SOL    HW290294  14.518  13.806   3.982
96133SOL     OW90295   1.446  12.593  12.342
96133SOL    HW190296   1.402  12.533  12.402
96133SOL    HW290297   1.520  12.543  12.308
96134SOL     OW90298  13.043  13.083   3.578
96134SOL    HW190299  12.950  13.099   3.564
96134SOL    HW290300  13.087  13.127   3.505
96135SOL     OW90301   9.713   9.250   8.077
96135SOL    HW190302   9.704   9.219   7.986
96135SOL    HW290303   9.720   9.170   8.129
96136SOL     OW90304   5.225   7.350   0.277
96136SOL    HW190305   5.293   7.302   0.325
96136SOL    HW290306   5.143   7.318   0.314
96137SOL     OW90307   4.375   5.831  13.645
96137SOL    HW190308   4.378   5.857  13.737
96137SOL    HW290309   4.344   5.741  13.646
96138SOL     OW90310   6.546   1.786   3.396
96138SOL    HW190311   6.635   1.762   3.422
96138SOL    HW290312   6.498   1.704   3.392
96139SOL     OW90313   2.676   1.615  10.529
96139SOL    HW190314   2.610   1.582  10.469
96139SOL    HW290315   2.690   1.706  10.502
96140SOL     OW90316   2.978   3.831   6.996
96140SOL    HW190317   2.945   3.757   6.944
96140SOL    HW290318   2.986   3.903   6.933
96141SOL     OW90319   2.705   3.248   1.796
96141SOL    HW190320   2.776   3.213   1.742
96141SOL    HW290321   2.636   3.271   1.734
96142SOL     OW90322   4.682   4.322  14.305
96142SOL    HW190323   4.749   4.297  14.241
96142SOL    HW290324   4.718   4.400  14.347
96143SOL     OW90325  14.727   7.442   0.590
96143SOL    HW190326  14.646   7.483   0.561
96143SOL    HW290327  14.699   7.361   0.633
96144SOL     OW90328   9.603   8.272   2.583
96144SOL    HW190329   9.638   8.189   2.549
96144SOL    HW290330   9.508   8.264   2.571
96145SOL     OW90331   0.381   4.490   6.955
96145SOL    HW190332   0.292   4.524   6.963
96145SOL    HW290333   0.429   4.561   6.912
96146SOL     OW90334   7.121  14.221   8.588
96146SOL    HW190335   7.111  14.127   8.604
96146SOL    HW290336   7.103  14.232   8.495
96147SOL     OW90337   7.927  10.824  11.962
96147SOL    HW190338   7.917  10.898  12.022
96147SOL    HW290339   7.859  10.838  11.896
96148SOL     OW90340   7.690  14.395  12.230
96148SOL    HW190341   7.742  14.353  12.299
96148SOL    HW290342   7.698  14.488  12.247
96149SOL     OW90343   2.386  11.741   3.277
96149SOL    HW190344   2.392  11.788   3.194
96149SOL    HW290345   2.371  11.650   3.253
96150SOL     OW90346   3.985  14.379  14.114
96150SOL    HW190347   3.984  14.318  14.040
96150SOL    HW290348   3.931  14.452  14.086
96151SOL     OW90349   2.033   9.109   5.642
96151SOL    HW190350   2.048   9.202   5.627
96151SOL    HW290351   2.117   9.076   5.677
96152SOL     OW90352   2.752   4.020   0.737
96152SOL    HW190353   2.723   3.946   0.684
96152SOL    HW290354   2.794   4.080   0.675
96153SOL     OW90355  14.287   8.315  13.065
96153SOL    HW190356  14.258   8.388  13.011
96153SOL    HW290357  14.304   8.353  13.151
96154SOL     OW90358   7.715   4.039   1.021
96154SOL    HW190359   7.801   3.998   1.015
96154SOL    HW290360   7.671   3.991   1.091
96155SOL     OW90361   1.261  13.395   8.479
96155SOL    HW190362   1.350  13.406   8.512
96155SOL    HW290363   1.272  13.374   8.386
96156SOL     OW90364  12.546   0.404   1.808
96156SOL    HW190365  12.557   0.387   1.901
96156SOL    HW290366  12.537   0.317   1.769
96157SOL     OW90367  11.409   9.405   3.995
96157SOL    HW190368  11.457   9.323   3.981
96157SOL    HW290369  11.419   9.453   3.913
96158SOL     OW90370   6.182   1.737  14.194
96158SOL    HW190371   6.223   1.821  14.212
96158SOL    HW290372   6.102   1.738  14.247
96159SOL     OW90373   2.681  12.076   3.388
96159SOL    HW190374   2.768  12.038   3.401
96159SOL    HW290375   2.654  12.044   3.302
96160SOL     OW90376   5.392   2.789  10.688
96160SOL    HW190377   5.473   2.738  10.680
96160SOL    HW290378   5.418   2.867  10.737
96161SOL     OW90379   0.877   3.629  11.845
96161SOL    HW190380   0.805   3.565  11.845
96161SOL    HW290381   0.953   3.578  11.818
96162SOL     OW90382   4.597  10.023   5.652
96162SOL    HW190383   4.654  10.092   5.617
96162SOL    HW290384   4.618  10.021   5.746
96163SOL     OW90385  13.641   8.187   3.223
96163SOL    HW190386  13.706   8.224   3.164
96163SOL    HW290387  13.688   8.120   3.273
96164SOL     OW90388   2.433   7.981   9.391
96164SOL    HW190389   2.472   7.964   9.477
96164SOL    HW290390   2.450   7.900   9.342
96165SOL     OW90391   6.300   5.147   6.227
96165SOL    HW190392   6.374   5.207   6.240
96165SOL    HW290393   6.226   5.193   6.266
96166SOL     OW90394   0.530  13.689   5.473
96166SOL    HW190395   0.500  13.775   5.446
96166SOL    HW290396   0.471  13.664   5.545
96167SOL     OW90397  10.345   5.622   8.916
96167SOL    HW190398  10.357   5.540   8.868
96167SOL    HW290399  10.432   5.647   8.945
96168SOL     OW90400  10.750  10.324  12.391
96168SOL    HW190401  10.696  10.321  12.470
96168SOL    HW290402  10.772  10.417  12.381
96169SOL     OW90403  11.918   3.416  10.444
96169SOL    HW190404  11.886   3.360  10.515
96169SOL    HW290405  11.840   3.433  10.391
96170SOL     OW90406   4.107  14.367   5.912
96170SOL    HW190407   4.183  14.309   5.905
96170SOL    HW290408   4.116  14.409   5.997
96171SOL     OW90409   1.083   0.585  13.103
96171SOL    HW190410   1.113   0.558  13.016
96171SOL    HW290411   1.119   0.519  13.162
96172SOL     OW90412   1.070   0.955  14.381
96172SOL    HW190413   1.018   0.903  14.442
96172SOL    HW290414   1.077   0.900  14.302
96173SOL     OW90415   7.772   3.820   8.613
96173SOL    HW190416   7.808   3.863   8.535
96173SOL    HW290417   7.721   3.888   8.657
96174SOL     OW90418   6.127   3.345   2.719
96174SOL    HW190419   6.056   3.398   2.682
96174SOL    HW290420   6.110   3.344   2.813
96175SOL     OW90421   2.448  14.713  10.778
96175SOL    HW190422   2.371  14.686  10.727
96175SOL    HW290423   2.492  14.776  10.721
96176SOL     OW90424   0.095   4.869   2.736
96176SOL    HW190425   0.167   4.808   2.753
96176SOL    HW290426   0.016   4.821   2.760
96177SOL     OW90427  12.821   9.798   8.833
96177SOL    HW190428  12.858   9.780   8.919
96177SOL    HW290429  12.792   9.890   8.838
96178SOL     OW90430   0.134  12.102   7.370
96178SOL    HW190431   0.112  12.136   7.456
96178SOL    HW290432   0.058  12.049   7.345
96179SOL     OW90433   6.204   0.450  10.928
96179SOL    HW190434   6.115   0.444  10.962
96179SOL    HW290435   6.247   0.514  10.985
96180SOL     OW90436  14.503  13.529   0.615
96180SOL    HW190437  14.586  13.575   0.629
96180SOL    HW290438  14.464  13.573   0.539
96181SOL     OW90439   0.160   3.129  10.000
96181SOL    HW190440   0.236   3.098  10.049
96181SOL    HW290441   0.176   3.101   9.910
96182SOL     OW90442  14.232   0.414   5.772
96182SOL    HW190443  14.178   0.441   5.846
96182SOL    HW290444  14.187   0.450   5.695
96183SOL     OW90445   3.148  14.585   3.729
96183SOL    HW190446   3.105  14.500   3.722
96183SOL    HW290447   3.210  14.575   3.801
96184SOL     OW90448   0.518  13.442   9.668
96184SOL    HW190449   0.519  13.392   9.586
96184SOL    HW290450   0.517  13.533   9.640
96185SOL     OW90451   0.581  10.224   6.885
96185SOL    HW190452   0.555  10.141   6.923
96185SOL    HW290453   0.639  10.264   6.950
96186SOL     OW90454   8.924  12.244   0.503
96186SOL    HW190455   8.913  12.228   0.596
96186SOL    HW290456   8.844  12.291   0.477
96187SOL     OW90457   5.444   5.965   7.080
96187SOL    HW190458   5.509   6.032   7.100
96187SOL    HW290459   5.428   5.921   7.164
96188SOL     OW90460  13.869   9.047  11.296
96188SOL    HW190461  13.860   8.952  11.295
96188SOL    HW290462  13.887   9.069  11.387
96189SOL     OW90463   5.670  11.019  13.021
96189SOL    HW190464   5.646  10.961  13.094
96189SOL    HW290465   5.644  11.107  13.051
96190SOL     OW90466  10.657  12.165   2.464
96190SOL    HW190467  10.740  12.118   2.458
96190SOL    HW290468  10.606  12.116   2.529
96191SOL     OW90469   7.336   0.913   4.164
96191SOL    HW190470   7.330   0.835   4.108
96191SOL    HW290471   7.405   0.894   4.227
96192SOL     OW90472   1.278   9.234   1.649
96192SOL    HW190473   1.360   9.284   1.648
96192SOL    HW290474   1.235   9.257   1.567
96193SOL     OW90475   1.018   7.169  11.640
96193SOL    HW190476   1.017   7.153  11.734
96193SOL    HW290477   0.958   7.103  11.604
96194SOL     OW90478  14.099   0.520   1.485
96194SOL    HW190479  14.056   0.606   1.492
96194SOL    HW290480  14.192   0.540   1.490
96195SOL     OW90481   9.576  14.620   0.880
96195SOL    HW190482   9.616  14.672   0.810
96195SOL    HW290483   9.530  14.550   0.834
96196SOL     OW90484   9.495   4.355   8.785
96196SOL    HW190485   9.506   4.332   8.877
96196SOL    HW290486   9.585   4.365   8.752
96197SOL     OW90487   4.686   1.311   1.850
96197SOL    HW190488   4.695   1.247   1.921
96197SOL    HW290489   4.750   1.378   1.870
96198SOL     OW90490   3.334   1.337   4.718
96198SOL    HW190491   3.357   1.262   4.663
96198SOL    HW290492   3.380   1.411   4.678
96199SOL     OW90493   7.991   2.809   1.270
96199SOL    HW190494   8.045   2.887   1.258
96199SOL    HW290495   8.025   2.747   1.205
96200SOL     OW90496   2.165  14.547   2.049
96200SOL    HW190497   2.087  14.506   2.087
96200SOL    HW290498   2.161  14.638   2.079
96201SOL     OW90499   7.943   5.829   3.383
96201SOL    HW190500   7.899   5.748   3.410
96201SOL    HW290501   7.897   5.857   3.305
96202SOL     OW90502   6.262   1.716  12.666
96202SOL    HW190503   6.348   1.694  12.628
96202SOL    HW290504   6.282   1.782  12.733
96203SOL     OW90505  13.818   1.456   2.018
96203SOL    HW190506  13.807   1.363   2.039
96203SOL    HW290507  13.868   1.492   2.092
96204SOL     OW90508   2.887  12.505   6.848
96204SOL    HW190509   2.846  12.567   6.788
96204SOL    HW290510   2.828  12.502   6.924
96205SOL     OW90511   2.947   8.058   8.184
96205SOL    HW190512   2.898   8.141   8.188
96205SOL    HW290513   3.021   8.077   8.126
96206SOL     OW90514  12.377   6.861  13.328
96206SOL    HW190515  12.370   6.780  13.277
96206SOL    HW290516  12.450   6.908  13.288
96207SOL     OW90517   8.590   3.480  13.970
96207SOL    HW190518   8.597   3.390  13.937
96207SOL    HW290519   8.671   3.523  13.943
96208SOL     OW90520   1.614  10.851   3.238
96208SOL    HW190521   1.526  10.877   3.210
96208SOL    HW290522   1.612  10.755   3.239
96209SOL     OW90523  11.946  13.195  12.925
96209SOL    HW190524  11.904  13.231  12.846
96209SOL    HW290525  11.887  13.126  12.955
96210SOL     OW90526   3.564   5.260  13.843
96210SOL    HW190527   3.527   5.210  13.916
96210SOL    HW290528   3.541   5.351  13.863
96211SOL     OW90529   1.078   2.896   3.822
96211SOL    HW190530   1.102   2.934   3.738
96211SOL    HW290531   1.161   2.870   3.861
96212SOL     OW90532   4.485   9.409   9.983
96212SOL    HW190533   4.493   9.341  10.050
96212SOL    HW290534   4.500   9.491  10.031
96213SOL     OW90535   4.725   4.509   5.825
96213SOL    HW190536   4.816   4.538   5.823
96213SOL    HW290537   4.695   4.519   5.735
96214SOL     OW90538   3.823  13.740  10.355
96214SOL    HW190539   3.892  13.697  10.304
96214SOL    HW290540   3.761  13.772  10.290
96215SOL     OW90541   7.898   2.886  11.282
96215SOL    HW190542   7.922   2.978  11.296
96215SOL    HW290543   7.950   2.859  11.206
96216SOL     OW90544   0.651   2.841   2.010
96216SOL    HW190545   0.606   2.789   1.944
96216SOL    HW290546   0.705   2.778   2.057
96217SOL     OW90547   0.662   2.477   9.746
96217SOL    HW190548   0.748   2.519   9.753
96217SOL    HW290549   0.650   2.432   9.829
96218SOL     OW90550   5.483   3.084   4.752
96218SOL    HW190551   5.559   3.142   4.760
96218SOL    HW290552   5.517   2.997   4.777
96219SOL     OW90553  11.833   2.479   6.188
96219SOL    HW190554  11.828   2.383   6.196
96219SOL    HW290555  11.879   2.507   6.266
96220SOL     OW90556  14.502   3.685  12.193
96220SOL    HW190557  14.589   3.699  12.155
96220SOL    HW290558  14.481   3.768  12.235
96221SOL     OW90559  12.946   4.609   0.542
96221SOL    HW190560  12.924   4.694   0.503
96221SOL    HW290561  12.863   4.565   0.552
96222SOL     OW90562  11.463   2.716  12.667
96222SOL    HW190563  11.383   2.726  12.616
96222SOL    HW290564  11.487   2.624  12.657
96223SOL     OW90565   9.320   9.587  10.396
96223SOL    HW190566   9.348   9.640  10.470
96223SOL    HW290567   9.310   9.650  10.324
96224SOL     OW90568   5.673  11.064   0.178
96224SOL    HW190569   5.630  11.120   0.243
96224SOL    HW290570   5.604  11.043   0.115
96225SOL     OW90571  11.588   5.808  11.945
96225SOL    HW190572  11.600   5.743  12.014
96225SOL    HW290573  11.494   5.807  11.927
96226SOL     OW90574   7.779  14.080   8.768
96226SOL    HW190575   7.715  14.051   8.833
96226SOL    HW290576   7.795  14.172   8.788
96227SOL     OW90577  11.540   3.458   8.635
96227SOL    HW190578  11.623   3.476   8.592
96227SOL    HW290579  11.474   3.480   8.570
96228SOL     OW90580  14.724  10.020   3.355
96228SOL    HW190581  14.778   9.955   3.400
96228SOL    HW290582  14.780  10.052   3.285
96229SOL     OW90583   3.407  14.879   6.396
96229SOL    HW190584   3.490   0.042   6.417
96229SOL    HW290585   3.430  14.810   6.334
96230SOL     OW90586   4.218   8.126   6.080
96230SOL    HW190587   4.262   8.149   6.162
96230SOL    HW290588   4.140   8.181   6.079
96231SOL     OW90589  10.768   7.118   5.725
96231SOL    HW190590  10.778   7.209   5.699
96231SOL    HW290591  10.737   7.074   5.646
96232SOL     OW90592   6.991   5.956   3.386
96232SOL    HW190593   6.987   6.047   3.358
96232SOL    HW290594   7.073   5.950   3.436
96233SOL     OW90595   9.478   1.043   1.433
96233SOL    HW190596   9.550   0.987   1.464
96233SOL    HW290597   9.454   1.005   1.349
96234SOL     OW90598  12.228  12.313   4.143
96234SOL    HW190599  12.186  12.387   4.099
96234SOL    HW290600  12.175  12.237   4.117
96235SOL     OW90601   4.538  13.602  12.755
96235SOL    HW190602   4.570  13.591  12.844
96235SOL    HW290603   4.520  13.513  12.724
96236SOL     OW90604   4.312  10.115  10.247
96236SOL    HW190605   4.292  10.064  10.326
96236SOL    HW290606   4.226  10.146  10.218
96237SOL     OW90607   3.786   1.106   7.926
96237SOL    HW190608   3.876   1.111   7.895
96237SOL    HW290609   3.788   1.041   7.996
96238SOL     OW90610   1.682   0.697   1.675
96238SOL    HW190611   1.715   0.609   1.657
96238SOL    HW290612   1.665   0.697   1.770
96239SOL     OW90613  14.482  11.363   7.985
96239SOL    HW190614  14.535  11.283   7.988
96239SOL    HW290615  14.463  11.383   8.077
96240SOL     OW90616  14.830  10.036   1.319
96240SOL    HW190617  14.742  10.005   1.338
96240SOL    HW290618  14.862   9.977   1.251
96241SOL     OW90619  12.731   8.415   8.522
96241SOL    HW190620  12.727   8.452   8.610
96241SOL    HW290621  12.663   8.462   8.473
96242SOL     OW90622  11.635   1.078   7.880
96242SOL    HW190623  11.717   1.038   7.852
96242SOL    HW290624  11.587   1.094   7.798
96243SOL     OW90625  14.586   1.975   9.386
96243SOL    HW190626  14.675   1.992   9.355
96243SOL    HW290627  14.587   2.003   9.477
96244SOL     OW90628   8.397  13.265   5.959
96244SOL    HW190629   8.483  13.261   6.002
96244SOL    HW290630   8.355  13.343   5.997
96245SOL     OW90631   2.075   9.395   6.776
96245SOL    HW190632   2.054   9.346   6.697
96245SOL    HW290633   2.165   9.370   6.797
96246SOL     OW90634   9.020   4.531   2.875
96246SOL    HW190635   9.030   4.494   2.963
96246SOL    HW290636   9.050   4.462   2.816
96247SOL     OW90637   2.500   8.795  11.834
96247SOL    HW190638   2.586   8.755  11.819
96247SOL    HW290639   2.449   8.726  11.876
96248SOL     OW90640  10.977   1.447  14.479
96248SOL    HW190641  11.060   1.418  14.441
96248SOL    HW290642  10.923   1.368  14.481
96249SOL     OW90643   1.972   2.869   7.181
96249SOL    HW190644   1.887   2.844   7.218
96249SOL    HW290645   2.014   2.921   7.249
96250SOL     OW90646   3.229  14.274   5.558
96250SOL    HW190647   3.170  14.343   5.590
96250SOL    HW290648   3.313  14.293   5.600
96251SOL     OW90649   8.867   4.512   2.493
96251SOL    HW190650   8.878   4.590   2.546
96251SOL    HW290651   8.838   4.544   2.408
96252SOL     OW90652   2.448  12.141   0.848
96252SOL    HW190653   2.362  12.158   0.886
96252SOL    HW290654   2.492  12.226   0.848
96253SOL     OW90655  12.208  10.038   8.748
96253SOL    HW190656  12.297  10.073   8.740
96253SOL    HW290657  12.161  10.077   8.674
96254SOL     OW90658   1.470   1.354   3.983
96254SOL    HW190659   1.473   1.367   3.889
96254SOL    HW290660   1.541   1.292   4.002
96255SOL     OW90661   4.085  11.327   6.618
96255SOL    HW190662   4.080  11.327   6.714
96255SOL    HW290663   4.086  11.420   6.595
96256SOL     OW90664   2.220   7.866   2.541
96256SOL    HW190665   2.139   7.819   2.560
96256SOL    HW290666   2.195   7.934   2.479
96257SOL     OW90667   9.647  12.421   0.301
96257SOL    HW190668   9.657  12.351   0.366
96257SOL    HW290669   9.552  12.432   0.292
96258SOL     OW90670   7.416  11.911   3.034
96258SOL    HW190671   7.493  11.925   2.980
96258SOL    HW290672   7.349  11.969   2.998
96259SOL     OW90673  12.318  14.673   8.986
96259SOL    HW190674  12.261  14.633   9.052
96259SOL    HW290675  12.270  14.752   8.958
96260SOL     OW90676   9.798   6.806   4.044
96260SOL    HW190677   9.780   6.713   4.056
96260SOL    HW290678   9.713   6.844   4.020
96261SOL     OW90679   0.765  11.185   0.082
96261SOL    HW190680   0.834  11.229   0.132
96261SOL    HW290681   0.809  11.116   0.034
96262SOL     OW90682  11.413   6.844   2.703
96262SOL    HW190683  11.328   6.837   2.658
96262SOL    HW290684  11.398   6.909   2.771
96263SOL     OW90685  13.346  10.629  13.345
96263SOL    HW190686  13.338  10.543  13.303
96263SOL    HW290687  13.438  10.653  13.330
96264SOL     OW90688   3.084  10.201  12.539
96264SOL    HW190689   3.019  10.168  12.477
96264SOL    HW290690   3.168  10.175  12.501
96265SOL     OW90691  13.557  13.729   9.728
96265SOL    HW190692  13.564  13.643   9.687
96265SOL    HW290693  13.573  13.712   9.821
96266SOL     OW90694  11.237   1.771  13.601
96266SOL    HW190695  11.290   1.843  13.566
96266SOL    HW290696  11.197   1.731  13.523
96267SOL     OW90697   5.504   1.608   6.076
96267SOL    HW190698   5.451   1.593   5.997
96267SOL    HW290699   5.473   1.691   6.111
96268SOL     OW90700  11.470  13.279   8.909
96268SOL    HW190701  11.411  13.260   8.836
96268SOL    HW290702  11.553  13.304   8.867
96269SOL     OW90703  11.883   7.081   8.366
96269SOL    HW190704  11.927   7.106   8.447
96269SOL    HW290705  11.790   7.090   8.385
96270SOL     OW90706  13.259   3.918  10.087
96270SOL    HW190707  13.176   3.967  10.082
96270SOL    HW290708  13.233   3.827  10.075
96271SOL     OW90709  12.420   9.673  13.802
96271SOL    HW190710  12.422   9.768  13.807
96271SOL    HW290711  12.473   9.644  13.876
96272SOL     OW90712   1.359   2.340   2.778
96272SOL    HW190713   1.393   2.252   2.761
96272SOL    HW290714   1.295   2.355   2.709
96273SOL     OW90715   1.120  10.896   2.012
96273SOL    HW190716   1.157  10.888   1.924
96273SOL    HW290717   1.076  10.981   2.013
96274SOL     OW90718  11.078   2.111   7.908
96274SOL    HW190719  11.116   2.178   7.965
96274SOL    HW290720  11.136   2.110   7.831
96275SOL     OW90721   3.704   8.320   0.999
96275SOL    HW190722   3.737   8.404   1.032
96275SOL    HW290723   3.631   8.344   0.942
96276SOL     OW90724   5.555   7.490   0.298
96276SOL    HW190725   5.478   7.543   0.318
96276SOL    HW290726   5.618   7.552   0.259
96277SOL     OW90727  13.728   2.775   0.835
96277SOL    HW190728  13.746   2.821   0.918
96277SOL    HW290729  13.804   2.796   0.780
96278SOL     OW90730   1.718   8.701   4.596
96278SOL    HW190731   1.753   8.614   4.613
96278SOL    HW290732   1.653   8.688   4.526
96279SOL     OW90733  14.777   8.576   1.117
96279SOL    HW190734  14.749   8.495   1.159
96279SOL    HW290735  14.791   8.552   1.025
96280SOL     OW90736   2.841   6.575   5.832
96280SOL    HW190737   2.800   6.638   5.892
96280SOL    HW290738   2.842   6.493   5.881
96281SOL     OW90739  14.415  12.697   0.241
96281SOL    HW190740  14.335  12.673   0.193
96281SOL    HW290741  14.481  12.636   0.210
96282SOL     OW90742   8.030   6.545  11.221
96282SOL    HW190743   7.970   6.584  11.157
96282SOL    HW290744   8.065   6.619  11.269
96283SOL     OW90745  11.365   4.889   6.491
96283SOL    HW190746  11.270   4.890   6.481
96283SOL    HW290747  11.398   4.904   6.402
96284SOL     OW90748   5.917   6.876  12.650
96284SOL    HW190749   5.958   6.942  12.705
96284SOL    HW290750   5.982   6.806  12.645
96285SOL     OW90751  12.102   0.304   6.355
96285SOL    HW190752  12.026   0.283   6.302
96285SOL    HW290753  12.071   0.372   6.416
96286SOL     OW90754  12.254   6.900   0.782
96286SOL    HW190755  12.169   6.881   0.743
96286SOL    HW290756  12.315   6.898   0.708
96287SOL     OW90757   2.343  13.099  11.583
96287SOL    HW190758   2.305  13.060  11.661
96287SOL    HW290759   2.430  13.128  11.611
96288SOL     OW90760   4.920   3.217  10.228
96288SOL    HW190761   4.897   3.310  10.218
96288SOL    HW290762   4.942   3.189  10.139
96289SOL     OW90763   3.928   8.093   4.424
96289SOL    HW190764   3.930   8.153   4.498
96289SOL    HW290765   3.876   8.137   4.358
96290SOL     OW90766  14.642   3.686  10.131
96290SOL    HW190767  14.555   3.711  10.102
96290SOL    HW290768  14.694   3.766  10.124
96291SOL     OW90769   2.310   9.255   9.368
96291SOL    HW190770   2.225   9.248   9.326
96291SOL    HW290771   2.351   9.331   9.326
96292SOL     OW90772   5.766  11.493   1.222
96292SOL    HW190773   5.796  11.579   1.251
96292SOL    HW290774   5.760  11.441   1.302
96293SOL     OW90775   6.918  13.582   5.386
96293SOL    HW190776   6.856  13.534   5.330
96293SOL    HW290777   7.000  13.580   5.337
96294SOL     OW90778  12.583   6.394   9.935
96294SOL    HW190779  12.528   6.320   9.962
96294SOL    HW290780  12.521   6.460   9.904
96295SOL     OW90781   0.480  13.750   2.058
96295SOL    HW190782   0.458  13.684   1.992
96295SOL    HW290783   0.515  13.824   2.007
96296SOL     OW90784   3.898   3.348   3.659
96296SOL    HW190785   3.962   3.302   3.712
96296SOL    HW290786   3.946   3.422   3.621
96297SOL     OW90787  11.324  12.801   2.032
96297SOL    HW190788  11.357  12.787   1.944
96297SOL    HW290789  11.234  12.833   2.020
96298SOL     OW90790   0.252  11.187   0.623
96298SOL    HW190791   0.180  11.250   0.632
96298SOL    HW290792   0.272  11.161   0.712
96299SOL     OW90793   5.529   9.317   4.255
96299SOL    HW190794   5.452   9.349   4.301
96299SOL    HW290795   5.495   9.280   4.173
96300SOL     OW90796  12.355  12.057   3.494
96300SOL    HW190797  12.287  12.044   3.428
96300SOL    HW290798  12.363  11.972   3.537
96301SOL     OW90799   5.301  11.975   1.312
96301SOL    HW190800   5.387  11.935   1.303
96301SOL    HW290801   5.307  12.057   1.263
96302SOL     OW90802   5.712  12.778   4.674
96302SOL    HW190803   5.683  12.851   4.729
96302SOL    HW290804   5.639  12.762   4.615
96303SOL     OW90805   9.702   9.248  13.206
96303SOL    HW190806   9.625   9.299  13.229
96303SOL    HW290807   9.750   9.239  13.288
96304SOL     OW90808   8.491  12.573   5.137
96304SOL    HW190809   8.475  12.636   5.208
96304SOL    HW290810   8.439  12.605   5.064
96305SOL     OW90811  12.876  13.443   7.897
96305SOL    HW190812  12.796  13.391   7.887
96305SOL    HW290813  12.857  13.502   7.969
96306SOL     OW90814   6.251   9.437   5.902
96306SOL    HW190815   6.305   9.477   5.834
96306SOL    HW290816   6.204   9.510   5.942
96307SOL     OW90817  12.335  12.079   7.048
96307SOL    HW190818  12.404  12.122   6.998
96307SOL    HW290819  12.364  11.988   7.056
96308SOL     OW90820   6.998   3.461   3.562
96308SOL    HW190821   7.085   3.451   3.523
96308SOL    HW290822   6.959   3.535   3.516
96309SOL     OW90823  11.210  12.875  10.138
96309SOL    HW190824  11.197  12.846  10.048
96309SOL    HW290825  11.303  12.860  10.155
96310SOL     OW90826  10.271   2.320  13.650
96310SOL    HW190827  10.301   2.229  13.659
96310SOL    HW290828  10.192   2.324  13.703
96311SOL     OW90829   2.001  10.830  14.256
96311SOL    HW190830   2.061  10.867  14.321
96311SOL    HW290831   2.028  10.739  14.247
96312SOL     OW90832  14.838   7.676  13.060
96312SOL    HW190833  14.853   7.746  12.996
96312SOL    HW290834  14.777   7.714  13.124
96313SOL     OW90835  10.868   5.687  11.461
96313SOL    HW190836  10.842   5.777  11.441
96313SOL    HW290837  10.873   5.684  11.556
96314SOL     OW90838   2.862   9.387  14.269
96314SOL    HW190839   2.837   9.424  14.353
96314SOL    HW290840   2.945   9.430  14.248
96315SOL     OW90841   4.646   1.760   2.133
96315SOL    HW190842   4.622   1.796   2.048
96315SOL    HW290843   4.742   1.755   2.131
96316SOL     OW90844   4.675   0.623   5.330
96316SOL    HW190845   4.756   0.575   5.346
96316SOL    HW290846   4.703   0.702   5.283
96317SOL     OW90847   6.939  13.533   9.378
96317SOL    HW190848   6.912  13.550   9.288
96317SOL    HW290849   7.000  13.460   9.372
96318SOL     OW90850   3.313  14.509   1.101
96318SOL    HW190851   3.394  14.522   1.151
96318SOL    HW290852   3.300  14.414   1.101
96319SOL     OW90853   7.014   8.502   2.064
96319SOL    HW190854   7.005   8.588   2.104
96319SOL    HW290855   7.063   8.450   2.129
96320SOL     OW90856  10.957   1.695   9.542
96320SOL    HW190857  10.880   1.641   9.523
96320SOL    HW290858  10.959   1.702   9.637
96321SOL     OW90859  10.733  11.041  10.085
96321SOL    HW190860  10.789  11.048  10.008
96321SOL    HW290861  10.791  11.061  10.159
96322SOL     OW90862  14.607  11.689   5.537
96322SOL    HW190863  14.652  11.650   5.612
96322SOL    HW290864  14.544  11.621   5.510
96323SOL     OW90865   0.849  12.351   8.113
96323SOL    HW190866   0.803  12.412   8.054
96323SOL    HW290867   0.895  12.408   8.174
96324SOL     OW90868   2.982   5.624   2.387
96324SOL    HW190869   2.990   5.558   2.317
96324SOL    HW290870   2.896   5.607   2.426
96325SOL     OW90871   7.519   9.757  11.312
96325SOL    HW190872   7.586   9.780  11.376
96325SOL    HW290873   7.478   9.678  11.348
96326SOL     OW90874  12.841   3.550  12.243
96326SOL    HW190875  12.886   3.539  12.327
96326SOL    HW290876  12.826   3.644  12.236
96327SOL     OW90877  11.880   2.821   8.046
96327SOL    HW190878  11.903   2.820   8.139
96327SOL    HW290879  11.926   2.897   8.011
96328SOL     OW90880   4.131   7.163   5.860
96328SOL    HW190881   4.121   7.203   5.947
96328SOL    HW290882   4.195   7.093   5.874
96329SOL     OW90883   1.133   4.122   2.647
96329SOL    HW190884   1.174   4.039   2.623
96329SOL    HW290885   1.063   4.133   2.582
96330SOL     OW90886  11.465  10.322   9.865
96330SOL    HW190887  11.478  10.231   9.837
96330SOL    HW290888  11.497  10.375   9.792
96331SOL     OW90889  11.097   1.069   9.727
96331SOL    HW190890  11.130   1.089   9.815
96331SOL    HW290891  11.115   0.975   9.715
96332SOL     OW90892  12.289  10.233  10.836
96332SOL    HW190893  12.339  10.243  10.755
96332SOL    HW290894  12.198  10.223  10.806
96333SOL     OW90895   6.421   4.315  12.892
96333SOL    HW190896   6.425   4.340  12.985
96333SOL    HW290897   6.329   4.299  12.875
96334SOL     OW90898  11.273   9.963   6.866
96334SOL    HW190899  11.320   9.922   6.939
96334SOL    HW290900  11.336   9.963   6.794
96335SOL     OW90901   5.778   5.632  11.811
96335SOL    HW190902   5.774   5.544  11.772
96335SOL    HW290903   5.724   5.686  11.754
96336SOL     OW90904   6.203  11.625   7.758
96336SOL    HW190905   6.287  11.587   7.731
96336SOL    HW290906   6.139  11.555   7.744
96337SOL     OW90907   9.821   7.903   1.153
96337SOL    HW190908   9.828   7.807   1.149
96337SOL    HW290909   9.846   7.933   1.066
96338SOL     OW90910  11.909  12.605   9.373
96338SOL    HW190911  11.925  12.698   9.355
96338SOL    HW290912  11.949  12.589   9.458
96339SOL     OW90913   3.542  12.064  10.038
96339SOL    HW190914   3.596  12.143  10.043
96339SOL    HW290915   3.452  12.095  10.037
96340SOL     OW90916   0.969   5.382   6.298
96340SOL    HW190917   0.984   5.349   6.387
96340SOL    HW290918   0.875   5.369   6.284
96341SOL     OW90919  13.253   0.740   8.575
96341SOL    HW190920  13.190   0.668   8.571
96341SOL    HW290921  13.211   0.805   8.631
96342SOL     OW90922   0.114   3.520  13.821
96342SOL    HW190923   0.140   3.579  13.891
96342SOL    HW290924   0.190   3.516  13.763
96343SOL     OW90925  10.105   8.126   3.046
96343SOL    HW190926  10.161   8.048   3.046
96343SOL    HW290927  10.017   8.092   3.028
96344SOL     OW90928  10.617   2.723   5.282
96344SOL    HW190929  10.707   2.716   5.312
96344SOL    HW290930  10.622   2.772   5.200
96345SOL     OW90931   2.393  10.060   4.260
96345SOL    HW190932   2.358  10.030   4.344
96345SOL    HW290933   2.401  10.154   4.269
96346SOL     OW90934   6.723  12.709  13.376
96346SOL    HW190935   6.812  12.685  13.350
96346SOL    HW290936   6.727  12.714  13.472
96347SOL     OW90937  11.575  11.847   4.680
96347SOL    HW190938  11.510  11.860   4.611
96347SOL    HW290939  11.650  11.900   4.652
96348SOL     OW90940  14.546   7.383   6.839
96348SOL    HW190941  14.504   7.344   6.916
96348SOL    HW290942  14.496   7.462   6.821
96349SOL     OW90943   9.976  10.571   6.614
96349SOL    HW190944   9.965  10.542   6.704
96349SOL    HW290945  10.027  10.652   6.621
96350SOL     OW90946  11.872   8.758   9.061
96350SOL    HW190947  11.948   8.816   9.050
96350SOL    HW290948  11.808   8.812   9.108
96351SOL     OW90949   7.091   0.201   1.837
96351SOL    HW190950   7.116   0.122   1.788
96351SOL    HW290951   7.100   0.176   1.929
96352SOL     OW90952   3.682   6.921   2.635
96352SOL    HW190953   3.589   6.910   2.653
96352SOL    HW290954   3.701   6.860   2.564
96353SOL     OW90955   4.535   4.862  10.720
96353SOL    HW190956   4.452   4.819  10.697
96353SOL    HW290957   4.514   4.915  10.797
96354SOL     OW90958   1.237   1.794  14.346
96354SOL    HW190959   1.168   1.851  14.312
96354SOL    HW290960   1.212   1.706  14.317
96355SOL     OW90961  12.211   2.512   2.412
96355SOL    HW190962  12.282   2.453   2.386
96355SOL    HW290963  12.131   2.467   2.385
96356SOL     OW90964   0.101   4.255   6.732
96356SOL    HW190965   0.046   4.316   6.780
96356SOL    HW290966   0.162   4.311   6.684
96357SOL     OW90967   2.252  13.142  14.363
96357SOL    HW190968   2.215  13.074  14.307
96357SOL    HW290969   2.199  13.220  14.345
96358SOL     OW90970  13.147   6.877   4.837
96358SOL    HW190971  13.126   6.970   4.832
96358SOL    HW290972  13.242   6.873   4.841
96359SOL     OW90973   4.804   8.046  14.062
96359SOL    HW190974   4.759   7.962  14.063
96359SOL    HW290975   4.820   8.066  14.154
96360SOL     OW90976   9.599  12.286   0.975
96360SOL    HW190977   9.687  12.254   0.992
96360SOL    HW290978   9.570  12.236   0.898
96361SOL     OW90979   6.700   6.068  10.365
96361SOL    HW190980   6.718   6.157  10.336
96361SOL    HW290981   6.719   6.014  10.288
96362SOL     OW90982   9.660   0.166   0.107
96362SOL    HW190983   9.598   0.239   0.105
96362SOL    HW290984   9.692   0.164   0.197
96363SOL     OW90985  14.340   7.201  14.355
96363SOL    HW190986  14.277   7.147  14.306
96363SOL    HW290987  14.399   7.137  14.395
96364SOL     OW90988   0.156   3.692  11.507
96364SOL    HW190989   0.201   3.748  11.444
96364SOL    HW290990   0.182   3.603  11.483
96365SOL     OW90991   2.719   7.391   2.458
96365SOL    HW190992   2.812   7.390   2.439
96365SOL    HW290993   2.676   7.395   2.373
96366SOL     OW90994  13.460   8.534   7.831
96366SOL    HW190995  13.369   8.508   7.838
96366SOL    HW290996  13.459   8.612   7.776
96367SOL     OW90997   6.222   8.337   7.860
96367SOL    HW190998   6.290   8.271   7.871
96367SOL    HW290999   6.214   8.379   7.945
96368SOL     OW91000  10.666  10.975   6.365
96368SOL    HW191001  10.712  10.891   6.365
96368SOL    HW291002  10.573  10.951   6.363
96369SOL     OW91003   6.296  12.293   8.933
96369SOL    HW191004   6.312  12.361   8.998
96369SOL    HW291005   6.290  12.341   8.850
96370SOL     OW91006   4.871   5.341  12.728
96370SOL    HW191007   4.925   5.265  12.708
96370SOL    HW291008   4.802   5.308  12.786
96371SOL     OW91009  14.614  10.112   9.095
96371SOL    HW191010  14.537  10.126   9.150
96371SOL    HW291011  14.585  10.048   9.029
96372SOL     OW91012  12.736   4.449   8.869
96372SOL    HW191013  12.744   4.407   8.784
96372SOL    HW291014  12.644   4.439   8.893
96373SOL     OW91015   6.463  11.555  10.731
96373SOL    HW191016   6.393  11.527  10.790
96373SOL    HW291017   6.530  11.488  10.738
96374SOL     OW91018   4.322   9.344   0.261
96374SOL    HW191019   4.403   9.374   0.302
96374SOL    HW291020   4.350   9.284   0.192
96375SOL     OW91021  11.462  14.760   6.335
96375SOL    HW191022  11.380  14.711   6.333
96375SOL    HW291023  11.469  14.800   6.248
96376SOL     OW91024  12.248   3.551   8.059
96376SOL    HW191025  12.220   3.466   8.026
96376SOL    HW291026  12.167   3.599   8.073
96377SOL     OW91027   8.908   9.968  10.289
96377SOL    HW191028   8.879  10.057  10.269
96377SOL    HW291029   8.990   9.959  10.241
96378SOL     OW91030   1.485   4.938   1.226
96378SOL    HW191031   1.471   5.009   1.287
96378SOL    HW291032   1.575   4.910   1.241
96379SOL     OW91033  10.466  12.406   3.516
96379SOL    HW191034  10.494  12.374   3.430
96379SOL    HW291035  10.412  12.482   3.496
96380SOL     OW91036   1.296  11.710  14.524
96380SOL    HW191037   1.381  11.746  14.497
96380SOL    HW291038   1.316  11.625  14.561
96381SOL     OW91039   9.870   9.690  10.670
96381SOL    HW191040   9.802   9.640  10.624
96381SOL    HW291041   9.915   9.625  10.724
96382SOL     OW91042  10.331   0.178   2.927
96382SOL    HW191043  10.317   0.092   2.888
96382SOL    HW291044  10.380   0.160   3.008
96383SOL     OW91045   1.644  13.865   8.233
96383SOL    HW191046   1.568  13.853   8.176
96383SOL    HW291047   1.642  13.789   8.291
96384SOL     OW91048   5.591  13.913   1.712
96384SOL    HW191049   5.597  14.000   1.673
96384SOL    HW291050   5.506  13.911   1.755
96385SOL     OW91051  14.515   4.665   5.206
96385SOL    HW191052  14.611   4.662   5.212
96385SOL    HW291053  14.486   4.654   5.296
96386SOL     OW91054   6.157   2.689   3.455
96386SOL    HW191055   6.167   2.774   3.499
96386SOL    HW291056   6.140   2.711   3.364
96387SOL     OW91057   5.674   0.145   2.859
96387SOL    HW191058   5.730   0.187   2.924
96387SOL    HW291059   5.729   0.142   2.780
96388SOL     OW91060   5.317  10.929   3.213
96388SOL    HW191061   5.311  10.856   3.275
96388SOL    HW291062   5.240  10.983   3.232
96389SOL     OW91063   9.865   3.656   9.479
96389SOL    HW191064   9.960   3.663   9.488
96389SOL    HW291065   9.852   3.570   9.439
96390SOL     OW91066   2.890  11.003   2.186
96390SOL    HW191067   2.938  10.924   2.161
96390SOL    HW291068   2.947  11.075   2.157
96391SOL     OW91069   8.423   8.669   3.297
96391SOL    HW191070   8.332   8.651   3.320
96391SOL    HW291071   8.469   8.676   3.381
96392SOL     OW91072  13.736   4.523  10.168
96392SOL    HW191073  13.656   4.553  10.125
96392SOL    HW291074  13.777   4.466  10.103
96393SOL     OW91075   8.431  13.166   9.163
96393SOL    HW191076   8.345  13.126   9.176
96393SOL    HW291077   8.439  13.174   9.068
96394SOL     OW91078   6.238   9.100   7.875
96394SOL    HW191079   6.293   9.040   7.824
96394SOL    HW291080   6.291   9.125   7.949
96395SOL     OW91081   8.829   1.717   2.889
96395SOL    HW191082   8.912   1.696   2.846
96395SOL    HW291083   8.787   1.632   2.902
96396SOL     OW91084   8.093  12.780   6.441
96396SOL    HW191085   8.002  12.810   6.444
96396SOL    HW291086   8.144  12.859   6.420
96397SOL     OW91087   6.542   7.813   9.873
96397SOL    HW191088   6.459   7.845   9.836
96397SOL    HW291089   6.535   7.718   9.867
96398SOL     OW91090   3.858   4.140   8.067
96398SOL    HW191091   3.937   4.109   8.112
96398SOL    HW291092   3.786   4.116   8.124
96399SOL     OW91093   5.726  10.298  10.695
96399SOL    HW191094   5.758  10.221  10.650
96399SOL    HW291095   5.804  10.340  10.731
96400SOL     OW91096   0.752  11.276   1.809
96400SOL    HW191097   0.710  11.240   1.731
96400SOL    HW291098   0.841  11.298   1.780
96401SOL     OW91099   7.681  12.743  12.401
96401SOL    HW191100   7.675  12.781  12.314
96401SOL    HW291101   7.674  12.818  12.461
96402SOL     OW91102   0.419   6.336  11.410
96402SOL    HW191103   0.430   6.305  11.320
96402SOL    HW291104   0.422   6.257  11.463
96403SOL     OW91105   3.418  12.710   1.045
96403SOL    HW191106   3.422  12.722   0.950
96403SOL    HW291107   3.332  12.671   1.061
96404SOL     OW91108   6.543   4.788   0.377
96404SOL    HW191109   6.529   4.697   0.405
96404SOL    HW291110   6.618   4.784   0.319
96405SOL     OW91111   5.902  10.893  11.165
96405SOL    HW191112   5.899  10.817  11.223
96405SOL    HW291113   5.977  10.944  11.196
96406SOL     OW91114  14.209   0.593   2.949
96406SOL    HW191115  14.226   0.511   2.903
96406SOL    HW291116  14.172   0.565   3.033
96407SOL     OW91117   1.393   9.474  12.506
96407SOL    HW191118   1.458   9.544  12.499
96407SOL    HW291119   1.320   9.514  12.554
96408SOL     OW91120   8.243  12.071   5.932
96408SOL    HW191121   8.252  12.063   5.837
96408SOL    HW291122   8.333  12.071   5.964
96409SOL     OW91123  12.449  12.025   1.530
96409SOL    HW191124  12.397  12.102   1.507
96409SOL    HW291125  12.507  12.055   1.600
96410SOL     OW91126   7.757   8.051   2.612
96410SOL    HW191127   7.664   8.060   2.631
96410SOL    HW291128   7.794   8.009   2.690
96411SOL     OW91129  12.152   2.350  10.071
96411SOL    HW191130  12.126   2.350  10.163
96411SOL    HW291131  12.195   2.435  10.058
96412SOL     OW91132   4.330  10.306  14.610
96412SOL    HW191133   4.415  10.270  14.586
96412SOL    HW291134   4.279  10.303  14.529
96413SOL     OW91135   5.810  10.711  11.389
96413SOL    HW191136   5.825  10.617  11.393
96413SOL    HW291137   5.857  10.747  11.464
96414SOL     OW91138   8.312  11.203   2.529
96414SOL    HW191139   8.279  11.166   2.448
96414SOL    HW291140   8.408  11.203   2.519
96415SOL     OW91141  10.089   9.125  10.229
96415SOL    HW191142  10.014   9.181  10.208
96415SOL    HW291143  10.051   9.051  10.277
96416SOL     OW91144  13.796   6.033   8.393
96416SOL    HW191145  13.794   5.976   8.316
96416SOL    HW291146  13.742   6.108   8.368
96417SOL     OW91147   3.564  12.879  13.408
96417SOL    HW191148   3.525  12.922  13.332
96417SOL    HW291149   3.639  12.831  13.373
96418SOL     OW91150   4.727  11.668  10.557
96418SOL    HW191151   4.706  11.622  10.475
96418SOL    HW291152   4.765  11.601  10.613
96419SOL     OW91153   2.033  10.427  11.111
96419SOL    HW191154   1.998  10.515  11.099
96419SOL    HW291155   2.015  10.406  11.203
96420SOL     OW91156   8.646   8.783  10.707
96420SOL    HW191157   8.573   8.723  10.697
96420SOL    HW291158   8.696   8.774  10.626
96421SOL     OW91159   8.487  11.381  14.521
96421SOL    HW191160   8.529  11.435  14.588
96421SOL    HW291161   8.528  11.295  14.531
96422SOL     OW91162   9.408   9.474   6.333
96422SOL    HW191163   9.422   9.555   6.382
96422SOL    HW291164   9.453   9.487   6.250
96423SOL     OW91165   6.016   2.782   6.412
96423SOL    HW191166   5.990   2.873   6.401
96423SOL    HW291167   5.949   2.745   6.471
96424SOL     OW91168   3.528   7.535  14.552
96424SOL    HW191169   3.616   7.532  14.514
96424SOL    HW291170   3.526   7.460  14.612
96425SOL     OW91171  14.758   5.969   5.810
96425SOL    HW191172  14.832   5.924   5.850
96425SOL    HW291173  14.797   6.025   5.742
96426SOL     OW91174   8.265   9.430   5.497
96426SOL    HW191175   8.273   9.376   5.576
96426SOL    HW291176   8.175   9.461   5.499
96427SOL     OW91177  14.657   2.227   1.661
96427SOL    HW191178  14.564   2.215   1.644
96427SOL    HW291179  14.682   2.303   1.608
96428SOL     OW91180  12.585  13.263   4.629
96428SOL    HW191181  12.558  13.289   4.540
96428SOL    HW291182  12.510  13.215   4.663
96429SOL     OW91183  12.947   1.729   6.366
96429SOL    HW191184  12.935   1.686   6.450
96429SOL    HW291185  12.859   1.746   6.335
96430SOL     OW91186   2.150   6.228   4.000
96430SOL    HW191187   2.185   6.219   4.089
96430SOL    HW291188   2.137   6.322   3.989
96431SOL     OW91189  11.509   7.410  14.207
96431SOL    HW191190  11.495   7.485  14.149
96431SOL    HW291191  11.421   7.386  14.238
96432SOL     OW91192  11.883   5.397   6.140
96432SOL    HW191193  11.905   5.468   6.080
96432SOL    HW291194  11.805   5.427   6.186
96433SOL     OW91195  12.564  11.934   4.420
96433SOL    HW191196  12.526  12.011   4.378
96433SOL    HW291197  12.650  11.963   4.451
96434SOL     OW91198  13.648   1.349   4.054
96434SOL    HW191199  13.649   1.254   4.066
96434SOL    HW291200  13.662   1.362   3.960
96435SOL     OW91201   6.701   6.775  11.240
96435SOL    HW191202   6.763   6.805  11.174
96435SOL    HW291203   6.691   6.849  11.299
96436SOL     OW91204   6.541   9.961   4.858
96436SOL    HW191205   6.606   9.968   4.789
96436SOL    HW291206   6.497  10.046   4.858
96437SOL     OW91207  12.281  12.545   6.293
96437SOL    HW191208  12.269  12.550   6.198
96437SOL    HW291209  12.369  12.510   6.304
96438SOL     OW91210   1.993   0.995   7.814
96438SOL    HW191211   2.043   1.032   7.741
96438SOL    HW291212   1.941   0.925   7.774
96439SOL     OW91213  10.864   3.916   8.197
96439SOL    HW191214  10.828   3.986   8.143
96439SOL    HW291215  10.923   3.962   8.258
96440SOL     OW91216   1.913   1.468  14.808
96440SOL    HW191217   1.969   1.422  14.745
96440SOL    HW291218   1.919   1.416   0.008
96441SOL     OW91219   0.078   6.375   0.945
96441SOL    HW191220   0.031   6.381   1.028
96441SOL    HW291221   0.083   6.281   0.927
96442SOL     OW91222   8.387  12.120   9.577
96442SOL    HW191223   8.297  12.093   9.594
96442SOL    HW291224   8.440  12.044   9.601
96443SOL     OW91225  13.509   7.842   3.113
96443SOL    HW191226  13.481   7.930   3.141
96443SOL    HW291227  13.427   7.798   3.089
96444SOL     OW91228   8.215  12.011   4.905
96444SOL    HW191229   8.274  11.975   4.838
96444SOL    HW291230   8.160  11.936   4.930
96445SOL     OW91231   4.998   3.197   9.064
96445SOL    HW191232   4.954   3.113   9.076
96445SOL    HW291233   4.933   3.262   9.093
96446SOL     OW91234   2.603   7.104   1.068
96446SOL    HW191235   2.626   7.103   0.975
96446SOL    HW291236   2.519   7.149   1.070
96447SOL     OW91237  13.507   7.686   2.438
96447SOL    HW191238  13.585   7.718   2.393
96447SOL    HW291239  13.437   7.745   2.408
96448SOL     OW91240   8.921   7.356  11.086
96448SOL    HW191241   8.880   7.441  11.099
96448SOL    HW291242   9.012   7.377  11.063
96449SOL     OW91243   7.149   2.091   3.964
96449SOL    HW191244   7.193   2.173   3.939
96449SOL    HW291245   7.110   2.059   3.883
96450SOL     OW91246   7.008   4.342  12.325
96450SOL    HW191247   7.007   4.436  12.345
96450SOL    HW291248   6.935   4.330  12.264
96451SOL     OW91249   5.645   1.812   8.223
96451SOL    HW191250   5.595   1.893   8.229
96451SOL    HW291251   5.580   1.743   8.239
96452SOL     OW91252   9.115   9.247   2.982
96452SOL    HW191253   9.033   9.244   3.033
96452SOL    HW291254   9.099   9.188   2.909
96453SOL     OW91255  14.526   3.625  12.549
96453SOL    HW191256  14.603   3.626  12.493
96453SOL    HW291257  14.543   3.555  12.612
96454SOL     OW91258  14.550   9.558   9.231
96454SOL    HW191259  14.556   9.636   9.287
96454SOL    HW291260  14.505   9.494   9.285
96455SOL     OW91261   7.435   7.653  11.038
96455SOL    HW191262   7.439   7.704  10.958
96455SOL    HW291263   7.502   7.585  11.027
96456SOL     OW91264   9.674   9.045   5.086
96456SOL    HW191265   9.724   9.098   5.023
96456SOL    HW291266   9.593   9.095   5.100
96457SOL     OW91267  13.104   8.345   6.653
96457SOL    HW191268  13.198   8.330   6.664
96457SOL    HW291269  13.092   8.438   6.673
96458SOL     OW91270  11.129   0.962   8.783
96458SOL    HW191271  11.216   0.996   8.803
96458SOL    HW291272  11.143   0.901   8.711
96459SOL     OW91273   3.872  13.542   3.222
96459SOL    HW191274   3.831  13.474   3.168
96459SOL    HW291275   3.965  13.538   3.199
96460SOL     OW91276   3.142   0.015   1.362
96460SOL    HW191277   3.159   0.041   1.453
96460SOL    HW291278   3.072   0.074   1.333
96461SOL     OW91279  10.724   9.457  13.475
96461SOL    HW191280  10.758   9.370  13.452
96461SOL    HW291281  10.711   9.454  13.570
96462SOL     OW91282   9.241   3.725   5.614
96462SOL    HW191283   9.245   3.709   5.520
96462SOL    HW291284   9.193   3.808   5.622
96463SOL     OW91285   5.734   7.398   8.601
96463SOL    HW191286   5.697   7.417   8.687
96463SOL    HW291287   5.722   7.304   8.590
96464SOL     OW91288   6.856  14.031   6.079
96464SOL    HW191289   6.894  14.065   6.159
96464SOL    HW291290   6.915  14.060   6.009
96465SOL     OW91291  14.686   5.090   2.935
96465SOL    HW191292  14.651   5.032   3.002
96465SOL    HW291293  14.672   5.044   2.853
96466SOL     OW91294   2.455   1.507   3.915
96466SOL    HW191295   2.372   1.489   3.869
96466SOL    HW291296   2.465   1.602   3.909
96467SOL     OW91297   0.244   7.967   1.583
96467SOL    HW191298   0.202   7.882   1.577
96467SOL    HW291299   0.206   8.018   1.511
96468SOL     OW91300  12.754   3.749   9.660
96468SOL    HW191301  12.772   3.756   9.754
96468SOL    HW291302  12.690   3.818   9.642
96469SOL     OW91303  12.346   2.650   9.505
96469SOL    HW191304  12.337   2.683   9.415
96469SOL    HW291305  12.364   2.728   9.557
96470SOL     OW91306   4.694  13.574  11.650
96470SOL    HW191307   4.639  13.652  11.645
96470SOL    HW291308   4.762  13.587  11.584
96471SOL     OW91309   2.460  13.674   0.998
96471SOL    HW191310   2.537  13.728   0.980
96471SOL    HW291311   2.416  13.719   1.070
96472SOL     OW91312   9.809   6.643  11.340
96472SOL    HW191313   9.761   6.573  11.295
96472SOL    HW291314   9.899   6.635  11.308
96473SOL     OW91315   7.669   0.821   7.104
96473SOL    HW191316   7.663   0.775   7.020
96473SOL    HW291317   7.578   0.842   7.126
96474SOL     OW91318   0.358   6.508  14.001
96474SOL    HW191319   0.381   6.541  14.088
96474SOL    HW291320   0.398   6.571  13.941
96475SOL     OW91321   0.196   8.418   5.558
96475SOL    HW191322   0.112   8.460   5.540
96475SOL    HW291323   0.235   8.405   5.472
96476SOL     OW91324   7.518   5.568   3.091
96476SOL    HW191325   7.428   5.594   3.108
96476SOL    HW291326   7.571   5.635   3.134
96477SOL     OW91327   5.836   6.873   8.753
96477SOL    HW191328   5.795   6.787   8.760
96477SOL    HW291329   5.797   6.925   8.824
96478SOL     OW91330  12.448  14.589   5.189
96478SOL    HW191331  12.494  14.505   5.186
96478SOL    HW291332  12.380  14.577   5.255
96479SOL     OW91333  14.583   4.516   4.093
96479SOL    HW191334  14.638   4.476   4.025
96479SOL    HW291335  14.525   4.446   4.121
96480SOL     OW91336  12.698  13.129   0.480
96480SOL    HW191337  12.781  13.111   0.523
96480SOL    HW291338  12.719  13.125   0.386
96481SOL     OW91339  10.341  12.518  11.635
96481SOL    HW191340  10.274  12.463  11.593
96481SOL    HW291341  10.331  12.500  11.729
96482SOL     OW91342   9.123   7.697   0.125
96482SOL    HW191343   9.194   7.757   0.102
96482SOL    HW291344   9.092   7.728   0.211
96483SOL     OW91345  14.333   9.031   0.061
96483SOL    HW191346  14.343   8.940   0.089
96483SOL    HW291347  14.348   9.083   0.141
96484SOL     OW91348   0.018   5.774   9.964
96484SOL    HW191349  14.811   5.734   9.961
96484SOL    HW291350   0.049   5.771   9.874
96485SOL     OW91351   9.789   5.575   5.804
96485SOL    HW191352   9.736   5.497   5.791
96485SOL    HW291353   9.813   5.573   5.897
96486SOL     OW91354   2.911  12.832   7.206
96486SOL    HW191355   2.855  12.886   7.263
96486SOL    HW291356   2.889  12.742   7.230
96487SOL     OW91357   9.913   8.580   5.381
96487SOL    HW191358   9.832   8.588   5.431
96487SOL    HW291359   9.963   8.659   5.403
96488SOL     OW91360   5.824  10.631   9.728
96488SOL    HW191361   5.772  10.708   9.749
96488SOL    HW291362   5.873  10.656   9.649
96489SOL     OW91363   8.628   6.609   0.064
96489SOL    HW191364   8.617   6.516   0.080
96489SOL    HW291365   8.654   6.616  14.852
96490SOL     OW91366  12.390  10.464  14.123
96490SOL    HW191367  12.336  10.493  14.049
96490SOL    HW291368  12.444  10.394  14.087
96491SOL     OW91369  11.257  10.257   8.896
96491SOL    HW191370  11.308  10.180   8.870
96491SOL    HW291371  11.269  10.318   8.824
96492SOL     OW91372   5.194  14.159  14.544
96492SOL    HW191373   5.219  14.185  14.455
96492SOL    HW291374   5.117  14.103  14.531
96493SOL     OW91375   2.023   3.369   9.688
96493SOL    HW191376   2.054   3.320   9.764
96493SOL    HW291377   2.010   3.458   9.721
96494SOL     OW91378   5.070   2.947  10.735
96494SOL    HW191379   5.149   2.934  10.683
96494SOL    HW291380   5.016   3.006  10.683
96495SOL     OW91381   6.506   8.561   6.268
96495SOL    HW191382   6.445   8.628   6.299
96495SOL    HW291383   6.544   8.598   6.189
96496SOL     OW91384   6.088  14.421   5.155
96496SOL    HW191385   6.147  14.481   5.200
96496SOL    HW291386   6.120  14.420   5.065
96497SOL     OW91387   3.268  14.858   3.089
96497SOL    HW191388   3.334  14.792   3.066
96497SOL    HW291389   3.205  14.811   3.144
96498SOL     OW91390  14.120   3.182  12.946
96498SOL    HW191391  14.163   3.237  12.880
96498SOL    HW291392  14.103   3.241  13.019
96499SOL     OW91393   9.439   7.607  10.372
96499SOL    HW191394   9.534   7.606  10.365
96499SOL    HW291395   9.412   7.690  10.333
96500SOL     OW91396   9.430   4.952  10.114
96500SOL    HW191397   9.422   4.936  10.208
96500SOL    HW291398   9.455   4.867  10.078
96501SOL     OW91399   5.748  11.411   8.213
96501SOL    HW191400   5.680  11.363   8.260
96501SOL    HW291401   5.795  11.344   8.163
96502SOL     OW91402  10.081   1.837  13.949
96502SOL    HW191403   9.991   1.806  13.956
96502SOL    HW291404  10.105   1.821  13.858
96503SOL     OW91405  10.988   8.852  14.142
96503SOL    HW191406  11.038   8.923  14.181
96503SOL    HW291407  10.990   8.781  14.206
96504SOL     OW91408  11.598   3.569  12.483
96504SOL    HW191409  11.533   3.535  12.545
96504SOL    HW291410  11.609   3.661  12.508
96505SOL     OW91411  10.707   0.231   7.907
96505SOL    HW191412  10.691   0.308   7.961
96505SOL    HW291413  10.802   0.226   7.899
96506SOL     OW91414   3.676   5.120   8.313
96506SOL    HW191415   3.585   5.149   8.318
96506SOL    HW291416   3.699   5.129   8.220
96507SOL     OW91417   1.355   3.116  10.528
96507SOL    HW191418   1.276   3.166  10.548
96507SOL    HW291419   1.403   3.113  10.611
96508SOL     OW91420   3.635   7.943  11.383
96508SOL    HW191421   3.610   7.886  11.456
96508SOL    HW291422   3.589   8.025  11.399
96509SOL     OW91423   0.396   9.491   4.736
96509SOL    HW191424   0.302   9.499   4.751
96509SOL    HW291425   0.416   9.401   4.761
96510SOL     OW91426  12.802   8.930   0.382
96510SOL    HW191427  12.796   8.940   0.287
96510SOL    HW291428  12.759   8.846   0.400
96511SOL     OW91429   9.792  13.533   5.104
96511SOL    HW191430   9.790  13.612   5.050
96511SOL    HW291431   9.878  13.495   5.086
96512SOL     OW91432  12.060   9.961   4.443
96512SOL    HW191433  11.998   9.922   4.381
96512SOL    HW291434  12.087  10.043   4.403
96513SOL     OW91435   5.558  11.634  13.695
96513SOL    HW191436   5.572  11.546  13.730
96513SOL    HW291437   5.637  11.683  13.720
96514SOL     OW91438   2.276   8.540  11.851
96514SOL    HW191439   2.313   8.470  11.904
96514SOL    HW291440   2.209   8.579  11.907
96515SOL     OW91441  12.226  12.026   2.100
96515SOL    HW191442  12.270  12.072   2.172
96515SOL    HW291443  12.288  12.030   2.027
96516SOL     OW91444   3.872  13.150   7.045
96516SOL    HW191445   3.857  13.113   7.132
96516SOL    HW291446   3.932  13.223   7.060
96517SOL     OW91447   6.778  11.552   6.713
96517SOL    HW191448   6.830  11.554   6.633
96517SOL    HW291449   6.687  11.544   6.683
96518SOL     OW91450  10.720  10.854   3.908
96518SOL    HW191451  10.739  10.768   3.946
96518SOL    HW291452  10.707  10.837   3.815
96519SOL     OW91453   9.985  13.265  12.281
96519SOL    HW191454  10.014  13.316  12.356
96519SOL    HW291455  10.062  13.259  12.224
96520SOL     OW91456  11.644  11.377  12.175
96520SOL    HW191457  11.627  11.324  12.097
96520SOL    HW291458  11.576  11.444  12.174
96521SOL     OW91459   7.706   4.857   9.418
96521SOL    HW191460   7.745   4.933   9.460
96521SOL    HW291461   7.646   4.894   9.352
96522SOL     OW91462   0.170   6.686  11.419
96522SOL    HW191463   0.148   6.667  11.328
96522SOL    HW291464   0.264   6.669  11.425
96523SOL     OW91465   0.195  11.963   6.824
96523SOL    HW191466   0.136  11.958   6.900
96523SOL    HW291467   0.140  11.999   6.754
96524SOL     OW91468   7.318   9.722   5.865
96524SOL    HW191469   7.405   9.705   5.829
96524SOL    HW291470   7.298   9.645   5.918
96525SOL     OW91471   4.370   0.856   0.491
96525SOL    HW191472   4.280   0.889   0.494
96525SOL    HW291473   4.423   0.932   0.467
96526SOL     OW91474   7.792   3.976  10.049
96526SOL    HW191475   7.727   3.993  10.117
96526SOL    HW291476   7.741   3.959   9.970
96527SOL     OW91477  11.460  12.706   2.891
96527SOL    HW191478  11.540  12.686   2.940
96527SOL    HW291479  11.488  12.770   2.826
96528SOL     OW91480  10.680   0.301   2.720
96528SOL    HW191481  10.769   0.283   2.691
96528SOL    HW291482  10.669   0.249   2.799
96529SOL     OW91483  10.528  13.453  13.441
96529SOL    HW191484  10.436  13.476  13.446
96529SOL    HW291485  10.569  13.525  13.393
96530SOL     OW91486  13.865   6.529  10.689
96530SOL    HW191487  13.803   6.545  10.760
96530SOL    HW291488  13.891   6.616  10.660
96531SOL     OW91489   5.672  12.468  11.884
96531SOL    HW191490   5.687  12.543  11.826
96531SOL    HW291491   5.692  12.391  11.830
96532SOL     OW91492   0.637  13.008   6.279
96532SOL    HW191493   0.657  12.918   6.303
96532SOL    HW291494   0.690  13.024   6.201
96533SOL     OW91495   2.385  14.132  14.180
96533SOL    HW191496   2.472  14.168  14.198
96533SOL    HW291497   2.324  14.200  14.208
96534SOL     OW91498   2.504  13.272   7.215
96534SOL    HW191499   2.508  13.267   7.310
96534SOL    HW291500   2.486  13.364   7.196
96535SOL     OW91501   5.376   1.149   6.362
96535SOL    HW191502   5.375   1.229   6.310
96535SOL    HW291503   5.284   1.124   6.370
96536SOL     OW91504   9.795   7.150  12.698
96536SOL    HW191505   9.781   7.227  12.752
96536SOL    HW291506   9.865   7.175  12.638
96537SOL     OW91507   6.079  12.919  12.434
96537SOL    HW191508   6.034  12.932  12.517
96537SOL    HW291509   6.151  12.859  12.454
96538SOL     OW91510   7.114   4.342   6.354
96538SOL    HW191511   7.188   4.285   6.334
96538SOL    HW291512   7.153   4.425   6.380
96539SOL     OW91513   3.807   6.756  13.123
96539SOL    HW191514   3.852   6.683  13.165
96539SOL    HW291515   3.714   6.735  13.132
96540SOL     OW91516   9.214   6.266  11.002
96540SOL    HW191517   9.153   6.191  10.999
96540SOL    HW291518   9.294   6.233  10.962
96541SOL     OW91519  13.285   3.543  10.610
96541SOL    HW191520  13.334   3.600  10.550
96541SOL    HW291521  13.347   3.473  10.632
96542SOL     OW91522  10.036   0.406   3.554
96542SOL    HW191523  10.019   0.458   3.633
96542SOL    HW291524   9.969   0.434   3.492
96543SOL     OW91525   9.271   3.914  13.196
96543SOL    HW191526   9.247   3.966  13.119
96543SOL    HW291527   9.328   3.973  13.247
96544SOL     OW91528   4.920  14.274   9.179
96544SOL    HW191529   4.998  14.326   9.159
96544SOL    HW291530   4.850  14.339   9.191
96545SOL     OW91531   6.239  13.266   5.704
96545SOL    HW191532   6.197  13.329   5.762
96545SOL    HW291533   6.255  13.316   5.623
96546SOL     OW91534   8.100   9.742   4.093
96546SOL    HW191535   8.102   9.818   4.034
96546SOL    HW291536   8.014   9.747   4.135
96547SOL     OW91537   2.097   1.963  10.492
96547SOL    HW191538   2.181   1.977  10.448
96547SOL    HW291539   2.032   1.990  10.427
96548SOL     OW91540  14.732  12.504  12.728
96548SOL    HW191541  14.661  12.540  12.676
96548SOL    HW291542  14.758  12.576  12.785
96549SOL     OW91543   0.960   2.656  10.963
96549SOL    HW191544   0.950   2.740  11.008
96549SOL    HW291545   1.053   2.651  10.941
96550SOL     OW91546   6.924  10.527   2.135
96550SOL    HW191547   6.828  10.529   2.139
96550SOL    HW291548   6.946  10.568   2.052
96551SOL     OW91549   7.925   5.771   5.949
96551SOL    HW191550   7.996   5.781   6.012
96551SOL    HW291551   7.964   5.721   5.877
96552SOL     OW91552  12.561   6.244   7.769
96552SOL    HW191553  12.641   6.195   7.749
96552SOL    HW291554  12.504   6.180   7.812
96553SOL     OW91555   5.366   0.624   6.714
96553SOL    HW191556   5.397   0.537   6.740
96553SOL    HW291557   5.401   0.683   6.780
96554SOL     OW91558   2.028   9.761   4.176
96554SOL    HW191559   2.067   9.848   4.176
96554SOL    HW291560   1.951   9.769   4.119
96555SOL     OW91561   4.713   1.201  13.121
96555SOL    HW191562   4.775   1.265  13.159
96555SOL    HW291563   4.651   1.184  13.192
96556SOL     OW91564  13.473  13.654   0.715
96556SOL    HW191565  13.540  13.618   0.773
96556SOL    HW291566  13.414  13.581   0.697
96557SOL     OW91567  13.317   6.439   5.185
96557SOL    HW191568  13.400   6.397   5.162
96557SOL    HW291569  13.334   6.533   5.179
96558SOL     OW91570   3.343   7.275   9.177
96558SOL    HW191571   3.351   7.261   9.083
96558SOL    HW291572   3.370   7.365   9.191
96559SOL     OW91573   8.719  10.389   4.804
96559SOL    HW191574   8.745  10.309   4.759
96559SOL    HW291575   8.801  10.427   4.836
96560SOL     OW91576  12.551   9.493  14.257
96560SOL    HW191577  12.575   9.400  14.266
96560SOL    HW291578  12.486   9.508  14.325
96561SOL     OW91579   6.639   9.069   0.862
96561SOL    HW191580   6.661   9.112   0.779
96561SOL    HW291581   6.651   9.138   0.928
96562SOL     OW91582   7.485   1.145   6.105
96562SOL    HW191583   7.548   1.114   6.170
96562SOL    HW291584   7.414   1.183   6.157
96563SOL     OW91585  12.424   1.200   6.501
96563SOL    HW191586  12.508   1.213   6.456
96563SOL    HW291587  12.413   1.281   6.552
96564SOL     OW91588   6.996   7.734   5.340
96564SOL    HW191589   6.992   7.740   5.244
96564SOL    HW291590   6.987   7.641   5.359
96565SOL     OW91591  10.378   2.069  11.096
96565SOL    HW191592  10.425   2.026  11.024
96565SOL    HW291593  10.306   2.008  11.117
96566SOL     OW91594   9.422   9.154   9.256
96566SOL    HW191595   9.449   9.091   9.189
96566SOL    HW291596   9.418   9.103   9.337
96567SOL     OW91597  12.986   9.653   4.033
96567SOL    HW191598  12.988   9.725   4.097
96567SOL    HW291599  12.964   9.576   4.085
96568SOL     OW91600  12.801   9.494   7.919
96568SOL    HW191601  12.864   9.511   7.989
96568SOL    HW291602  12.801   9.399   7.909
96569SOL     OW91603  11.876  11.578  10.211
96569SOL    HW191604  11.812  11.593  10.141
96569SOL    HW291605  11.823  11.552  10.286
96570SOL     OW91606   1.152   0.708  11.128
96570SOL    HW191607   1.084   0.724  11.193
96570SOL    HW291608   1.234   0.726  11.174
96571SOL     OW91609  12.837  12.295   3.113
96571SOL    HW191610  12.896  12.258   3.048
96571SOL    HW291611  12.807  12.377   3.074
96572SOL     OW91612  13.920   5.135   6.236
96572SOL    HW191613  14.005   5.160   6.199
96572SOL    HW291614  13.941   5.086   6.315
96573SOL     OW91615   9.058  12.764  13.278
96573SOL    HW191616   9.026  12.677  13.252
96573SOL    HW291617   9.137  12.747  13.328
96574SOL     OW91618  10.443   4.636   4.541
96574SOL    HW191619  10.516   4.578   4.564
96574SOL    HW291620  10.390   4.583   4.481
96575SOL     OW91621  14.669  10.826   8.137
96575SOL    HW191622  14.700  10.882   8.208
96575SOL    HW291623  14.574  10.838   8.137
96576SOL     OW91624   2.045   2.751  13.758
96576SOL    HW191625   1.983   2.789  13.820
96576SOL    HW291626   2.081   2.675  13.804
96577SOL     OW91627   1.545   6.316  13.385
96577SOL    HW191628   1.524   6.371  13.461
96577SOL    HW291629   1.639   6.327  13.373
96578SOL     OW91630   8.727  14.102   9.083
96578SOL    HW191631   8.691  14.076   9.167
96578SOL    HW291632   8.660  14.076   9.019
96579SOL     OW91633  12.087   7.927   3.851
96579SOL    HW191634  12.078   7.937   3.946
96579SOL    HW291635  12.046   7.842   3.832
96580SOL     OW91636  11.643  13.989   4.829
96580SOL    HW191637  11.583  13.922   4.796
96580SOL    HW291638  11.727  13.970   4.787
96581SOL     OW91639  12.872   2.137  10.355
96581SOL    HW191640  12.781   2.116  10.379
96581SOL    HW291641  12.878   2.115  10.263
96582SOL     OW91642   1.465  11.803   7.651
96582SOL    HW191643   1.398  11.736   7.635
96582SOL    HW291644   1.511  11.771   7.729
96583SOL     OW91645   3.355   4.077   1.202
96583SOL    HW191646   3.307   4.105   1.280
96583SOL    HW291647   3.305   4.111   1.128
96584SOL     OW91648   0.324   1.252   8.680
96584SOL    HW191649   0.372   1.330   8.651
96584SOL    HW291650   0.265   1.232   8.607
96585SOL     OW91651   3.869   2.423   1.562
96585SOL    HW191652   3.947   2.369   1.577
96585SOL    HW291653   3.819   2.375   1.496
96586SOL     OW91654   4.103   3.724   3.880
96586SOL    HW191655   4.104   3.668   3.958
96586SOL    HW291656   4.032   3.786   3.897
96587SOL     OW91657   7.296   4.072   4.842
96587SOL    HW191658   7.323   4.151   4.796
96587SOL    HW291659   7.218   4.042   4.795
96588SOL     OW91660   8.983   9.679   1.688
96588SOL    HW191661   9.026   9.739   1.626
96588SOL    HW291662   9.039   9.601   1.687
96589SOL     OW91663   6.174   9.269   6.260
96589SOL    HW191664   6.151   9.353   6.220
96589SOL    HW291665   6.103   9.252   6.322
96590SOL     OW91666   0.068   5.626  14.650
96590SOL    HW191667   0.004   5.657  14.714
96590SOL    HW291668   0.148   5.615  14.700
96591SOL     OW91669   8.162  13.171   2.559
96591SOL    HW191670   8.214  13.178   2.639
96591SOL    HW291671   8.152  13.261   2.529
96592SOL     OW91672  12.338   6.319  12.875
96592SOL    HW191673  12.337   6.256  12.947
96592SOL    HW291674  12.356   6.266  12.798
96593SOL     OW91675  12.567   9.391   4.488
96593SOL    HW191676  12.532   9.302   4.491
96593SOL    HW291677  12.653   9.382   4.448
96594SOL     OW91678   1.183   6.643   5.745
96594SOL    HW191679   1.239   6.595   5.686
96594SOL    HW291680   1.210   6.615   5.833
96595SOL     OW91681  10.851   6.557   7.218
96595SOL    HW191682  10.833   6.643   7.179
96595SOL    HW291683  10.766   6.512   7.216
96596SOL     OW91684  13.557   1.472   8.860
96596SOL    HW191685  13.534   1.458   8.768
96596SOL    HW291686  13.530   1.392   8.904
96597SOL     OW91687   1.978  12.768   5.184
96597SOL    HW191688   1.911  12.796   5.121
96597SOL    HW291689   1.945  12.795   5.269
96598SOL     OW91690  14.772   1.750   5.898
96598SOL    HW191691  14.844   1.702   5.939
96598SOL    HW291692  14.765   1.712   5.810
96599SOL     OW91693   0.561   1.708  10.850
96599SOL    HW191694   0.498   1.702  10.922
96599SOL    HW291695   0.572   1.802  10.835
96600SOL     OW91696  10.364   0.664   8.388
96600SOL    HW191697  10.452   0.699   8.373
96600SOL    HW291698  10.371   0.614   8.468
96601SOL     OW91699   5.618   6.934  10.915
96601SOL    HW191700   5.552   6.888  10.965
96601SOL    HW291701   5.589   6.927  10.824
96602SOL     OW91702   0.494   5.100  13.245
96602SOL    HW191703   0.586   5.125  13.235
96602SOL    HW291704   0.496   5.025  13.305
96603SOL     OW91705   9.483  12.098   7.396
96603SOL    HW191706   9.396  12.060   7.411
96603SOL    HW291707   9.465  12.180   7.350
96604SOL     OW91708   5.151  11.536   8.729
96604SOL    HW191709   5.240  11.513   8.754
96604SOL    HW291710   5.096  11.478   8.781
96605SOL     OW91711   6.588   3.311  13.016
96605SOL    HW191712   6.521   3.302  12.948
96605SOL    HW291713   6.598   3.222  13.050
96606SOL     OW91714   8.263  13.813   2.624
96606SOL    HW191715   8.292  13.836   2.536
96606SOL    HW291716   8.236  13.896   2.663
96607SOL     OW91717   8.154   2.264   8.225
96607SOL    HW191718   8.119   2.207   8.156
96607SOL    HW291719   8.228   2.216   8.260
96608SOL     OW91720   8.124  11.286  13.766
96608SOL    HW191721   8.076  11.358  13.806
96608SOL    HW291722   8.167  11.326  13.690
96609SOL     OW91723   7.240   0.591   8.665
96609SOL    HW191724   7.310   0.551   8.613
96609SOL    HW291725   7.263   0.570   8.756
96610SOL     OW91726  12.014  10.115   1.883
96610SOL    HW191727  12.050  10.180   1.824
96610SOL    HW291728  12.084  10.050   1.894
96611SOL     OW91729  14.678  12.335  13.877
96611SOL    HW191730  14.614  12.360  13.809
96611SOL    HW291731  14.731  12.414  13.889
96612SOL     OW91732   8.915   3.523   4.355
96612SOL    HW191733   8.844   3.460   4.370
96612SOL    HW291734   8.876   3.592   4.301
96613SOL     OW91735   7.503  13.160   8.763
96613SOL    HW191736   7.531  13.100   8.832
96613SOL    HW291737   7.548  13.242   8.783
96614SOL     OW91738   8.202   3.070  14.425
96614SOL    HW191739   8.215   3.051  14.518
96614SOL    HW291740   8.264   3.140  14.406
96615SOL     OW91741   3.343   5.748  13.887
96615SOL    HW191742   3.308   5.784  13.969
96615SOL    HW291743   3.279   5.682  13.861
96616SOL     OW91744   2.399   6.272   3.667
96616SOL    HW191745   2.326   6.279   3.605
96616SOL    HW291746   2.380   6.192   3.717
96617SOL     OW91747   6.723   8.371   9.526
96617SOL    HW191748   6.764   8.299   9.574
96617SOL    HW291749   6.773   8.449   9.550
96618SOL     OW91750   1.647   0.178   0.796
96618SOL    HW191751   1.680   0.146   0.880
96618SOL    HW291752   1.613   0.100   0.752
96619SOL     OW91753   7.891   6.568   1.010
96619SOL    HW191754   7.811   6.516   1.020
96619SOL    HW291755   7.961   6.509   1.038
96620SOL     OW91756   3.048   8.345  14.651
96620SOL    HW191757   3.095   8.385  14.578
96620SOL    HW291758   3.075   8.253  14.650
96621SOL     OW91759   5.096   1.816   9.428
96621SOL    HW191760   5.144   1.880   9.376
96621SOL    HW291761   5.026   1.867   9.470
96622SOL     OW91762   7.314   5.675   8.406
96622SOL    HW191763   7.315   5.664   8.501
96622SOL    HW291764   7.227   5.645   8.379
96623SOL     OW91765   6.915   1.694  11.692
96623SOL    HW191766   6.837   1.675  11.640
96623SOL    HW291767   6.909   1.635  11.767
96624SOL     OW91768   4.690  11.828   7.138
96624SOL    HW191769   4.768  11.805   7.088
96624SOL    HW291770   4.684  11.923   7.132
96625SOL     OW91771   0.913   1.468   9.534
96625SOL    HW191772   0.822   1.460   9.564
96625SOL    HW291773   0.936   1.380   9.505
96626SOL     OW91774  12.229   6.822  12.001
96626SOL    HW191775  12.218   6.746  11.943
96626SOL    HW291776  12.323   6.838  12.002
96627SOL     OW91777   2.413   1.040   7.294
96627SOL    HW191778   2.482   1.063   7.231
96627SOL    HW291779   2.381   0.955   7.265
96628SOL     OW91780   9.600   8.401   5.328
96628SOL    HW191781   9.581   8.316   5.366
96628SOL    HW291782   9.586   8.463   5.400
96629SOL     OW91783   3.629   9.694  13.566
96629SOL    HW191784   3.555   9.739  13.608
96629SOL    HW291785   3.677   9.764  13.521
96630SOL     OW91786   9.838  13.131   1.363
96630SOL    HW191787   9.762  13.189   1.358
96630SOL    HW291788   9.906  13.185   1.406
96631SOL     OW91789   9.606   1.548   0.757
96631SOL    HW191790   9.565   1.584   0.679
96631SOL    HW291791   9.603   1.453   0.745
96632SOL     OW91792  10.705   8.568   3.876
96632SOL    HW191793  10.780   8.513   3.853
96632SOL    HW291794  10.745   8.648   3.910
96633SOL     OW91795   3.035   1.748   7.881
96633SOL    HW191796   3.024   1.842   7.892
96633SOL    HW291797   3.103   1.725   7.945
96634SOL     OW91798   4.270  12.756   7.834
96634SOL    HW191799   4.286  12.676   7.784
96634SOL    HW291800   4.309  12.826   7.781
96635SOL     OW91801   0.305   0.126   9.717
96635SOL    HW191802   0.248   0.179   9.774
96635SOL    HW291803   0.323   0.183   9.643
96636SOL     OW91804  13.066  12.701   3.391
96636SOL    HW191805  13.055  12.633   3.325
96636SOL    HW291806  13.037  12.660   3.472
96637SOL     OW91807  11.553   0.300  12.012
96637SOL    HW191808  11.577   0.390  11.988
96637SOL    HW291809  11.465   0.289  11.978
96638SOL     OW91810   6.965  10.597   3.334
96638SOL    HW191811   6.988  10.663   3.399
96638SOL    HW291812   6.883  10.560   3.366
96639SOL     OW91813   5.311   3.690   2.289
96639SOL    HW191814   5.279   3.773   2.324
96639SOL    HW291815   5.326   3.707   2.196
96640SOL     OW91816  11.048   3.057   5.087
96640SOL    HW191817  11.078   2.974   5.050
96640SOL    HW291818  11.016   3.033   5.174
96641SOL     OW91819  13.143   1.761   0.552
96641SOL    HW191820  13.203   1.727   0.486
96641SOL    HW291821  13.096   1.832   0.507
96642SOL     OW91822  10.892  14.438   2.973
96642SOL    HW191823  10.948  14.398   3.038
96642SOL    HW291824  10.879  14.528   3.004
96643SOL     OW91825  10.002   0.578   1.528
96643SOL    HW191826  10.023   0.514   1.460
96643SOL    HW291827   9.992   0.526   1.608
96644SOL     OW91828  14.272   2.098  14.572
96644SOL    HW191829  14.225   2.068  14.494
96644SOL    HW291830  14.250   2.033  14.639
96645SOL     OW91831   0.887   6.651   3.810
96645SOL    HW191832   0.921   6.731   3.771
96645SOL    HW291833   0.831   6.613   3.742
96646SOL     OW91834   6.461  13.759   6.327
96646SOL    HW191835   6.463  13.770   6.232
96646SOL    HW291836   6.447  13.847   6.361
96647SOL     OW91837   0.397   1.935   6.902
96647SOL    HW191838   0.388   1.858   6.958
96647SOL    HW291839   0.324   1.991   6.927
96648SOL     OW91840   1.222   2.788   9.002
96648SOL    HW191841   1.312   2.780   8.974
96648SOL    HW291842   1.174   2.722   8.953
96649SOL     OW91843  12.422  11.565   1.924
96649SOL    HW191844  12.382  11.494   1.873
96649SOL    HW291845  12.348  11.622   1.946
96650SOL     OW91846   9.692  11.345   1.760
96650SOL    HW191847   9.653  11.378   1.679
96650SOL    HW291848   9.775  11.392   1.767
96651SOL     OW91849  10.548   1.236  14.478
96651SOL    HW191850  10.524   1.172  14.412
96651SOL    HW291851  10.466   1.278  14.502
96652SOL     OW91852   3.332   7.899   9.102
96652SOL    HW191853   3.395   7.968   9.079
96652SOL    HW291854   3.266   7.943   9.155
96653SOL     OW91855  12.329   4.124  12.479
96653SOL    HW191856  12.365   4.182  12.547
96653SOL    HW291857  12.251   4.170  12.447
96654SOL     OW91858   5.167   9.830   2.872
96654SOL    HW191859   5.136   9.849   2.783
96654SOL    HW291860   5.139   9.740   2.889
96655SOL     OW91861   3.875   9.757   6.539
96655SOL    HW191862   3.965   9.761   6.504
96655SOL    HW291863   3.842   9.846   6.528
96656SOL     OW91864  13.980   1.331   0.355
96656SOL    HW191865  14.008   1.251   0.311
96656SOL    HW291866  13.997   1.401   0.293
96657SOL     OW91867   7.860  11.781  13.930
96657SOL    HW191868   7.875  11.758  13.838
96657SOL    HW291869   7.939  11.749  13.975
96658SOL     OW91870  10.166  10.248  12.063
96658SOL    HW191871  10.095  10.288  12.013
96658SOL    HW291872  10.154  10.154  12.051
96659SOL     OW91873  11.128   8.543  12.021
96659SOL    HW191874  11.221   8.562  12.006
96659SOL    HW291875  11.120   8.533  12.116
96660SOL     OW91876   5.367   9.490  13.830
96660SOL    HW191877   5.378   9.454  13.918
96660SOL    HW291878   5.455   9.516  13.804
96661SOL     OW91879  14.439   2.262  12.994
96661SOL    HW191880  14.528   2.280  13.027
96661SOL    HW291881  14.415   2.342  12.948
96662SOL     OW91882   1.452  12.330  13.028
96662SOL    HW191883   1.469  12.302  13.117
96662SOL    HW291884   1.365  12.370  13.032
96663SOL     OW91885  14.490   6.102  13.068
96663SOL    HW191886  14.401   6.110  13.035
96663SOL    HW291887  14.480   6.086  13.162
96664SOL     OW91888   0.943  12.441   2.202
96664SOL    HW191889   0.971  12.524   2.163
96664SOL    HW291890   0.850  12.435   2.178
96665SOL     OW91891   0.012  12.503  11.999
96665SOL    HW191892   0.029  12.529  11.908
96665SOL    HW291893  14.874  12.586  12.044
96666SOL     OW91894  12.283   5.054   3.563
96666SOL    HW191895  12.323   4.968   3.558
96666SOL    HW291896  12.192   5.037   3.589
96667SOL     OW91897   7.146  13.731   3.413
96667SOL    HW191898   7.217  13.682   3.372
96667SOL    HW291899   7.189  13.780   3.483
96668SOL     OW91900   6.244   9.243   3.212
96668SOL    HW191901   6.338   9.229   3.201
96668SOL    HW291902   6.238   9.314   3.275
96669SOL     OW91903  13.974   1.179   6.471
96669SOL    HW191904  14.067   1.180   6.493
96669SOL    HW291905  13.968   1.229   6.390
96670SOL     OW91906  13.137   1.600   5.875
96670SOL    HW191907  13.101   1.596   5.964
96670SOL    HW291908  13.220   1.554   5.880
96671SOL     OW91909   0.546  13.290  13.240
96671SOL    HW191910   0.510  13.260  13.156
96671SOL    HW291911   0.640  13.299  13.224
96672SOL     OW91912  11.149   3.888  14.451
96672SOL    HW191913  11.226   3.935  14.419
96672SOL    HW291914  11.131   3.928  14.536
96673SOL     OW91915  13.149  10.546   0.753
96673SOL    HW191916  13.069  10.577   0.795
96673SOL    HW291917  13.220  10.586   0.803
96674SOL     OW91918   7.357   7.684  10.121
96674SOL    HW191919   7.298   7.719  10.187
96674SOL    HW291920   7.441   7.673  10.167
96675SOL     OW91921  13.800   4.638   2.780
96675SOL    HW191922  13.770   4.669   2.865
96675SOL    HW291923  13.860   4.566   2.799
96676SOL     OW91924   6.135  14.140  14.487
96676SOL    HW191925   6.181  14.213  14.446
96676SOL    HW291926   6.049  14.176  14.511
96677SOL     OW91927  13.737   5.502   2.992
96677SOL    HW191928  13.739   5.574   2.929
96677SOL    HW291929  13.669   5.528   3.054
96678SOL     OW91930   2.444   8.609  10.029
96678SOL    HW191931   2.379   8.552   9.988
96678SOL    HW291932   2.392   8.679  10.069
96679SOL     OW91933   2.309   1.433   6.206
96679SOL    HW191934   2.235   1.482   6.169
96679SOL    HW291935   2.352   1.495   6.265
96680SOL     OW91936   6.713  12.630   1.602
96680SOL    HW191937   6.676  12.611   1.688
96680SOL    HW291938   6.803  12.658   1.621
96681SOL     OW91939   6.391   1.474   8.747
96681SOL    HW191940   6.429   1.392   8.778
96681SOL    HW291941   6.297   1.465   8.762
96682SOL     OW91942  10.631   6.974   5.518
96682SOL    HW191943  10.576   7.017   5.452
96682SOL    HW291944  10.688   6.917   5.467
96683SOL     OW91945   9.806  12.284   0.117
96683SOL    HW191946   9.763  12.353   0.168
96683SOL    HW291947   9.740  12.259   0.052
96684SOL     OW91948   3.344   7.877   6.026
96684SOL    HW191949   3.400   7.943   5.984
96684SOL    HW291950   3.297   7.926   6.093
96685SOL     OW91951  14.683   4.358   5.766
96685SOL    HW191952  14.615   4.359   5.698
96685SOL    HW291953  14.669   4.276   5.813
96686SOL     OW91954   3.549  10.301   7.862
96686SOL    HW191955   3.547  10.208   7.887
96686SOL    HW291956   3.478  10.340   7.913
96687SOL     OW91957  12.762  12.428   8.732
96687SOL    HW191958  12.690  12.490   8.721
96687SOL    HW291959  12.768  12.415   8.827
96688SOL     OW91960   4.636   1.473  12.664
96688SOL    HW191961   4.587   1.522  12.730
96688SOL    HW291962   4.688   1.539  12.618
96689SOL     OW91963   5.200   9.952   4.597
96689SOL    HW191964   5.146  10.019   4.555
96689SOL    HW291965   5.150   9.871   4.585
96690SOL     OW91966  14.762  13.129   1.300
96690SOL    HW191967  14.768  13.170   1.214
96690SOL    HW291968  14.749  13.036   1.283
96691SOL     OW91969  10.187   1.249   5.212
96691SOL    HW191970  10.096   1.219   5.216
96691SOL    HW291971  10.235   1.188   5.268
96692SOL     OW91972   0.870   0.989   2.043
96692SOL    HW191973   0.813   1.062   2.020
96692SOL    HW291974   0.842   0.964   2.131
96693SOL     OW91975   6.986  11.974   3.360
96693SOL    HW191976   6.905  11.941   3.320
96693SOL    HW291977   6.974  12.069   3.362
96694SOL     OW91978   4.271   9.838   1.115
96694SOL    HW191979   4.307   9.771   1.057
96694SOL    HW291980   4.235   9.789   1.189
96695SOL     OW91981  13.370  10.479   5.426
96695SOL    HW191982  13.463  10.473   5.446
96695SOL    HW291983  13.362  10.439   5.339
96696SOL     OW91984   2.289   2.045   9.197
96696SOL    HW191985   2.372   2.017   9.158
96696SOL    HW291986   2.252   1.965   9.233
96697SOL     OW91987   1.247   2.906  10.189
96697SOL    HW191988   1.309   2.844  10.229
96697SOL    HW291989   1.203   2.947  10.264
96698SOL     OW91990   6.226   0.884   0.584
96698SOL    HW191991   6.214   0.874   0.678
96698SOL    HW291992   6.237   0.795   0.551
96699SOL     OW91993   8.252   4.691  13.953
96699SOL    HW191994   8.265   4.730  14.040
96699SOL    HW291995   8.162   4.713  13.930
96700SOL     OW91996  12.759   2.504   7.213
96700SOL    HW191997  12.853   2.501   7.231
96700SOL    HW291998  12.753   2.550   7.129
96701SOL     OW91999   7.440   7.548  12.254
96701SOL    HW192000   7.503   7.520  12.321
96701SOL    HW292001   7.359   7.502  12.277
96702SOL     OW92002  13.334   4.351   7.902
96702SOL    HW192003  13.241   4.366   7.922
96702SOL    HW292004  13.333   4.306   7.817
96703SOL     OW92005  11.085   4.528  14.071
96703SOL    HW192006  11.019   4.574  14.123
96703SOL    HW292007  11.053   4.533  13.981
96704SOL     OW92008  10.040   1.091  12.427
96704SOL    HW192009   9.974   1.036  12.469
96704SOL    HW292010  10.108   1.030  12.399
96705SOL     OW92011  11.845  11.889   1.070
96705SOL    HW192012  11.923  11.940   1.048
96705SOL    HW292013  11.815  11.925   1.153
96706SOL     OW92014   1.148  14.047   3.508
96706SOL    HW192015   1.157  13.986   3.434
96706SOL    HW292016   1.116  13.993   3.580
96707SOL     OW92017   2.956  11.701   5.652
96707SOL    HW192018   2.976  11.782   5.606
96707SOL    HW292019   2.863  11.685   5.635
96708SOL     OW92020  10.407   4.726   1.382
96708SOL    HW192021  10.404   4.630   1.371
96708SOL    HW292022  10.317   4.754   1.368
96709SOL     OW92023   2.230   0.958  12.948
96709SOL    HW192024   2.272   0.877  12.918
96709SOL    HW292025   2.137   0.938  12.949
96710SOL     OW92026   7.062   0.270  13.027
96710SOL    HW192027   7.061   0.179  13.058
96710SOL    HW292028   7.155   0.295  13.028
96711SOL     OW92029   8.232   7.293   9.220
96711SOL    HW192030   8.188   7.231   9.278
96711SOL    HW292031   8.300   7.332   9.275
96712SOL     OW92032   6.695  14.867  10.041
96712SOL    HW192033   6.735  14.834  10.122
96712SOL    HW292034   6.714   0.081  10.041
96713SOL     OW92035   6.514  10.485   0.891
96713SOL    HW192036   6.585  10.451   0.836
96713SOL    HW292037   6.526  10.580   0.890
96714SOL     OW92038  12.118  11.667   8.557
96714SOL    HW192039  12.053  11.710   8.501
96714SOL    HW292040  12.150  11.737   8.614
96715SOL     OW92041  11.161  14.726  13.892
96715SOL    HW192042  11.136  14.752  13.981
96715SOL    HW292043  11.208  14.801  13.857
96716SOL     OW92044   9.375  10.850  11.674
96716SOL    HW192045   9.298  10.906  11.665
96716SOL    HW292046   9.364  10.807  11.758
96717SOL     OW92047   8.604   6.672  12.875
96717SOL    HW192048   8.699   6.666  12.886
96717SOL    HW292049   8.576   6.582  12.857
96718SOL     OW92050   5.004  13.539   4.140
96718SOL    HW192051   5.069  13.597   4.180
96718SOL    HW292052   4.942  13.598   4.097
96719SOL     OW92053  10.842   8.547   6.262
96719SOL    HW192054  10.839   8.641   6.274
96719SOL    HW292055  10.751   8.522   6.244
96720SOL     OW92056   5.759   0.502   9.646
96720SOL    HW192057   5.690   0.566   9.661
96720SOL    HW292058   5.713   0.425   9.613
96721SOL     OW92059  13.933   3.274   7.255
96721SOL    HW192060  14.023   3.244   7.246
96721SOL    HW292061  13.890   3.249   7.173
96722SOL     OW92062  10.126   5.269   8.728
96722SOL    HW192063  10.094   5.230   8.647
96722SOL    HW292064  10.083   5.355   8.731
96723SOL     OW92065   5.479   9.894   0.537
96723SOL    HW192066   5.520   9.819   0.580
96723SOL    HW292067   5.551   9.938   0.493
96724SOL     OW92068  11.171  13.403  10.045
96724SOL    HW192069  11.232  13.430   9.976
96724SOL    HW292070  11.215  13.330  10.089
96725SOL     OW92071  12.080   3.751   5.523
96725SOL    HW192072  12.161   3.790   5.557
96725SOL    HW292073  12.024   3.740   5.601
96726SOL     OW92074  13.999  11.632   5.403
96726SOL    HW192075  14.047  11.701   5.450
96726SOL    HW292076  14.056  11.555   5.408
96727SOL     OW92077  11.469  12.274   8.863
96727SOL    HW192078  11.457  12.347   8.802
96727SOL    HW292079  11.393  12.219   8.850
96728SOL     OW92080   7.749  13.670   4.070
96728SOL    HW192081   7.781  13.660   4.160
96728SOL    HW292082   7.810  13.731   4.030
96729SOL     OW92083   4.688   6.887   7.741
96729SOL    HW192084   4.641   6.883   7.658
96729SOL    HW292085   4.718   6.797   7.756
96730SOL     OW92086  11.431  11.525   1.956
96730SOL    HW192087  11.423  11.468   2.033
96730SOL    HW292088  11.400  11.471   1.883
96731SOL     OW92089   5.653  13.081   9.256
96731SOL    HW192090   5.626  13.099   9.346
96731SOL    HW292091   5.593  13.134   9.202
96732SOL     OW92092  12.976   1.974   7.605
96732SOL    HW192093  12.899   2.009   7.650
96732SOL    HW292094  12.994   2.037   7.535
96733SOL     OW92095  11.959   4.230   2.758
96733SOL    HW192096  11.922   4.279   2.684
96733SOL    HW292097  12.042   4.198   2.726
96734SOL     OW92098   3.157   8.532   0.250
96734SOL    HW192099   3.096   8.459   0.256
96734SOL    HW292100   3.103   8.608   0.233
96735SOL     OW92101   6.976  12.488   2.906
96735SOL    HW192102   6.963  12.583   2.899
96735SOL    HW292103   7.053  12.471   2.852
96736SOL     OW92104   9.327   2.640   2.395
96736SOL    HW192105   9.289   2.628   2.308
96736SOL    HW292106   9.354   2.552   2.421
96737SOL     OW92107  13.628   7.081   3.384
96737SOL    HW192108  13.703   7.138   3.367
96737SOL    HW292109  13.597   7.107   3.470
96738SOL     OW92110   3.118   7.711  11.497
96738SOL    HW192111   3.173   7.696  11.420
96738SOL    HW292112   3.132   7.634  11.552
96739SOL     OW92113  13.928  13.568  11.735
96739SOL    HW192114  13.970  13.483  11.722
96739SOL    HW292115  13.986  13.630  11.691
96740SOL     OW92116   3.201   2.546   6.686
96740SOL    HW192117   3.177   2.638   6.676
96740SOL    HW292118   3.291   2.548   6.718
96741SOL     OW92119   6.005   0.793   5.070
96741SOL    HW192120   6.001   0.861   5.136
96741SOL    HW292121   5.929   0.737   5.088
96742SOL     OW92122   5.669   9.553   3.010
96742SOL    HW192123   5.658   9.613   3.084
96742SOL    HW292124   5.581   9.522   2.991
96743SOL     OW92125  14.527   8.990   7.954
96743SOL    HW192126  14.461   8.921   7.962
96743SOL    HW292127  14.486   9.068   7.991
96744SOL     OW92128  13.120   8.067  10.916
96744SOL    HW192129  13.077   8.126  10.978
96744SOL    HW292130  13.077   8.083  10.833
96745SOL     OW92131   7.219   8.190   9.892
96745SOL    HW192132   7.133   8.155   9.913
96745SOL    HW292133   7.273   8.113   9.876
96746SOL     OW92134  10.308  12.909   3.625
96746SOL    HW192135  10.353  12.926   3.707
96746SOL    HW292136  10.237  12.974   3.622
96747SOL     OW92137   6.429   7.958   1.733
96747SOL    HW192138   6.498   8.019   1.758
96747SOL    HW292139   6.418   7.901   1.809
96748SOL     OW92140   8.531  12.587   9.338
96748SOL    HW192141   8.512  12.495   9.357
96748SOL    HW292142   8.546  12.627   9.423
96749SOL     OW92143  13.934   0.038   8.084
96749SOL    HW192144  13.961  14.862   8.157
96749SOL    HW292145  13.882   0.107   8.124
96750SOL     OW92146   9.329   0.939  13.704
96750SOL    HW192147   9.374   0.889  13.636
96750SOL    HW292148   9.392   1.005  13.731
96751SOL     OW92149  13.808   6.942   2.742
96751SOL    HW192150  13.773   6.855   2.726
96751SOL    HW292151  13.745   6.984   2.800
96752SOL     OW92152  12.450   7.957  12.543
96752SOL    HW192153  12.405   8.014  12.605
96752SOL    HW292154  12.504   7.900  12.597
96753SOL     OW92155   8.259   9.656   6.214
96753SOL    HW192156   8.336   9.673   6.161
96753SOL    HW292157   8.211   9.589   6.165
96754SOL     OW92158  11.147  14.012   1.622
96754SOL    HW192159  11.186  13.924   1.615
96754SOL    HW292160  11.221  14.068   1.645
96755SOL     OW92161   6.615   4.130  10.528
96755SOL    HW192162   6.544   4.068  10.545
96755SOL    HW292163   6.650   4.153  10.614
96756SOL     OW92164   4.224  12.475   2.598
96756SOL    HW192165   4.307  12.454   2.642
96756SOL    HW292166   4.177  12.391   2.595
96757SOL     OW92167   6.345   1.203   3.610
96757SOL    HW192168   6.424   1.240   3.651
96757SOL    HW292169   6.357   1.108   3.618
96758SOL     OW92170   7.269   0.167   5.513
96758SOL    HW192171   7.314   0.155   5.596
96758SOL    HW292172   7.197   0.227   5.533
96759SOL     OW92173   1.200   1.000  10.020
96759SOL    HW192174   1.293   1.014  10.042
96759SOL    HW292175   1.154   1.072  10.065
96760SOL     OW92176   2.510   8.785   0.504
96760SOL    HW192177   2.523   8.760   0.595
96760SOL    HW292178   2.415   8.796   0.495
96761SOL     OW92179   1.171   6.165   0.522
96761SOL    HW192180   1.146   6.150   0.431
96761SOL    HW292181   1.266   6.167   0.521
96762SOL     OW92182   1.823   7.632   6.768
96762SOL    HW192183   1.841   7.707   6.826
96762SOL    HW292184   1.765   7.575   6.820
96763SOL     OW92185   0.468   2.766  14.403
96763SOL    HW192186   0.380   2.759  14.440
96763SOL    HW292187   0.527   2.750  14.477
96764SOL     OW92188  13.625   8.941  11.116
96764SOL    HW192189  13.684   8.939  11.191
96764SOL    HW292190  13.660   8.877  11.055
96765SOL     OW92191   8.674   1.728   3.570
96765SOL    HW192192   8.692   1.751   3.661
96765SOL    HW292193   8.686   1.809   3.521
96766SOL     OW92194   0.585   3.851   6.884
96766SOL    HW192195   0.610   3.928   6.935
96766SOL    HW292196   0.571   3.884   6.795
96767SOL     OW92197  13.643  10.445   3.014
96767SOL    HW192198  13.738  10.432   3.006
96767SOL    HW292199  13.631  10.483   3.101
96768SOL     OW92200  13.908  10.966  10.537
96768SOL    HW192201  13.985  10.927  10.579
96768SOL    HW292202  13.891  11.046  10.587
96769SOL     OW92203  10.926   1.586   5.742
96769SOL    HW192204  10.901   1.516   5.802
96769SOL    HW292205  11.010   1.617   5.774
96770SOL     OW92206  10.043   0.490   3.141
96770SOL    HW192207   9.978   0.497   3.211
96770SOL    HW292208   9.995   0.452   3.067
96771SOL     OW92209   9.951   5.931   0.493
96771SOL    HW192210   9.926   6.016   0.457
96771SOL    HW292211  10.024   5.950   0.551
96772SOL     OW92212   0.148   4.317   0.154
96772SOL    HW192213   0.204   4.310   0.078
96772SOL    HW292214   0.077   4.375   0.127
96773SOL     OW92215   3.287   6.010  14.018
96773SOL    HW192216   3.277   6.104  14.004
96773SOL    HW292217   3.285   6.000  14.113
96774SOL     OW92218   1.385  12.256   0.698
96774SOL    HW192219   1.425  12.244   0.784
96774SOL    HW292220   1.459  12.278   0.640
96775SOL     OW92221  12.819   2.641   2.578
96775SOL    HW192222  12.728   2.629   2.549
96775SOL    HW292223  12.844   2.726   2.542
96776SOL     OW92224   2.231   3.943   7.173
96776SOL    HW192225   2.162   3.905   7.226
96776SOL    HW292226   2.210   3.917   7.083
96777SOL     OW92227   7.340   6.149  11.239
96777SOL    HW192228   7.384   6.080  11.288
96777SOL    HW292229   7.275   6.103  11.186
96778SOL     OW92230   5.865  11.093  10.285
96778SOL    HW192231   5.917  11.127  10.212
96778SOL    HW292232   5.867  10.998  10.274
96779SOL     OW92233   0.904   8.379  10.019
96779SOL    HW192234   0.868   8.413  10.102
96779SOL    HW292235   0.874   8.288  10.016
96780SOL     OW92236   2.757   8.259  10.150
96780SOL    HW192237   2.726   8.345  10.176
96780SOL    HW292238   2.711   8.240  10.068
96781SOL     OW92239   0.982   4.464  14.872
96781SOL    HW192240   0.934   4.463  14.789
96781SOL    HW292241   1.062   4.513  14.854
96782SOL     OW92242  13.198  10.390   1.978
96782SOL    HW192243  13.261  10.335   1.932
96782SOL    HW292244  13.225  10.385   2.070
96783SOL     OW92245   2.834  12.432   7.757
96783SOL    HW192246   2.817  12.338   7.765
96783SOL    HW292247   2.773  12.473   7.818
96784SOL     OW92248  11.297   5.505   7.100
96784SOL    HW192249  11.256   5.459   7.026
96784SOL    HW292250  11.386   5.471   7.103
96785SOL     OW92251  13.013   2.105   4.682
96785SOL    HW192252  13.025   2.011   4.698
96785SOL    HW292253  12.966   2.109   4.599
96786SOL     OW92254   9.653   1.372  13.668
96786SOL    HW192255   9.669   1.360  13.574
96786SOL    HW292256   9.708   1.446  13.692
96787SOL     OW92257  10.079   2.210   2.595
96787SOL    HW192258  10.009   2.195   2.658
96787SOL    HW292259  10.034   2.236   2.514
96788SOL     OW92260   2.837  14.469  13.679
96788SOL    HW192261   2.933  14.472  13.679
96788SOL    HW292262   2.812  14.511  13.761
96789SOL     OW92263  10.984   4.396   6.086
96789SOL    HW192264  11.054   4.335   6.063
96789SOL    HW292265  10.982   4.459   6.015
96790SOL     OW92266  14.055   3.452  12.318
96790SOL    HW192267  14.095   3.396  12.251
96790SOL    HW292268  14.096   3.537  12.306
96791SOL     OW92269  10.596   0.457  14.143
96791SOL    HW192270  10.504   0.437  14.160
96791SOL    HW292271  10.641   0.437  14.226
96792SOL     OW92272  13.827  14.808  12.343
96792SOL    HW192273  13.795  14.846  12.425
96792SOL    HW292274  13.765  14.738  12.323
96793SOL     OW92275  10.937   3.283  11.945
96793SOL    HW192276  10.879   3.220  11.988
96793SOL    HW292277  10.911   3.281  11.853
96794SOL     OW92278  12.350   4.672   4.014
96794SOL    HW192279  12.277   4.730   4.036
96794SOL    HW292280  12.356   4.611   4.087
96795SOL     OW92281   3.175   9.182   2.636
96795SOL    HW192282   3.263   9.147   2.618
96795SOL    HW292283   3.127   9.169   2.555
96796SOL     OW92284   5.771   5.968   7.680
96796SOL    HW192285   5.713   6.013   7.619
96796SOL    HW292286   5.814   6.038   7.729
96797SOL     OW92287   5.436   8.260   3.166
96797SOL    HW192288   5.433   8.250   3.071
96797SOL    HW292289   5.508   8.204   3.194
96798SOL     OW92290   9.379   5.782  13.807
96798SOL    HW192291   9.394   5.756  13.897
96798SOL    HW292292   9.392   5.877  13.807
96799SOL     OW92293   4.942  12.590   6.245
96799SOL    HW192294   4.917  12.682   6.249
96799SOL    HW292295   4.937  12.560   6.336
96800SOL     OW92296   7.380   6.922   3.979
96800SOL    HW192297   7.377   6.874   4.062
96800SOL    HW292298   7.443   6.993   3.995
96801SOL     OW92299   2.874  14.410   3.225
96801SOL    HW192300   2.955  14.360   3.230
96801SOL    HW292301   2.830  14.394   3.308
96802SOL     OW92302   3.961  12.998   4.215
96802SOL    HW192303   3.937  13.075   4.267
96802SOL    HW292304   4.056  13.003   4.209
96803SOL     OW92305   0.429  14.345   1.435
96803SOL    HW192306   0.358  14.380   1.489
96803SOL    HW292307   0.397  14.260   1.407
96804SOL     OW92308   6.987   9.331   0.859
96804SOL    HW192309   7.047   9.406   0.863
96804SOL    HW292310   6.964   9.323   0.767
96805SOL     OW92311   0.549  10.795   7.933
96805SOL    HW192312   0.554  10.790   8.029
96805SOL    HW292313   0.499  10.717   7.908
96806SOL     OW92314   6.136   1.483   4.106
96806SOL    HW192315   6.090   1.540   4.044
96806SOL    HW292316   6.070   1.420   4.134
96807SOL     OW92317  11.039   1.761   7.313
96807SOL    HW192318  11.021   1.839   7.366
96807SOL    HW292319  10.955   1.738   7.274
96808SOL     OW92320   6.182   7.702  14.257
96808SOL    HW192321   6.152   7.724  14.345
96808SOL    HW292322   6.240   7.775  14.233
96809SOL     OW92323   5.530  11.216  10.800
96809SOL    HW192324   5.549  11.276  10.728
96809SOL    HW292325   5.435  11.205  10.797
96810SOL     OW92326   2.918   4.184   2.089
96810SOL    HW192327   2.925   4.180   2.184
96810SOL    HW292328   2.972   4.111   2.058
96811SOL     OW92329   0.437   8.544   3.132
96811SOL    HW192330   0.363   8.566   3.075
96811SOL    HW292331   0.400   8.487   3.199
96812SOL     OW92332   8.446   2.868  11.307
96812SOL    HW192333   8.491   2.926  11.245
96812SOL    HW292334   8.514   2.806  11.334
96813SOL     OW92335   7.999   6.154   5.738
96813SOL    HW192336   8.044   6.070   5.742
96813SOL    HW292337   7.949   6.151   5.657
96814SOL     OW92338   3.698  13.633   1.219
96814SOL    HW192339   3.791  13.631   1.240
96814SOL    HW292340   3.694  13.656   1.127
96815SOL     OW92341  13.992   1.015  13.522
96815SOL    HW192342  14.018   0.925  13.503
96815SOL    HW292343  13.993   1.059  13.437
96816SOL     OW92344   9.385   9.128  11.347
96816SOL    HW192345   9.459   9.180  11.317
96816SOL    HW292346   9.323   9.129  11.274
96817SOL     OW92347  14.594  14.417   9.546
96817SOL    HW192348  14.651  14.493   9.558
96817SOL    HW292349  14.507  14.447   9.574
96818SOL     OW92350   2.877  14.001   6.268
96818SOL    HW192351   2.802  13.999   6.328
96818SOL    HW292352   2.889  13.909   6.243
96819SOL     OW92353   7.210   6.117   5.157
96819SOL    HW192354   7.241   6.048   5.098
96819SOL    HW292355   7.290   6.161   5.187
96820SOL     OW92356   0.045   2.299   0.832
96820SOL    HW192357   0.005   2.311   0.918
96820SOL    HW292358   0.079   2.385   0.808
96821SOL     OW92359   7.375  13.996   5.191
96821SOL    HW192360   7.415  14.082   5.202
96821SOL    HW292361   7.375  13.982   5.096
96822SOL     OW92362  13.792   0.473   9.805
96822SOL    HW192363  13.855   0.402   9.808
96822SOL    HW292364  13.799   0.509   9.716
96823SOL     OW92365   0.886   5.564  12.629
96823SOL    HW192366   0.797   5.546  12.599
96823SOL    HW292367   0.898   5.658  12.615
96824SOL     OW92368   9.686   0.363   3.504
96824SOL    HW192369   9.605   0.404   3.474
96824SOL    HW292370   9.662   0.318   3.585
96825SOL     OW92371   0.936   9.776   2.805
96825SOL    HW192372   1.000   9.745   2.741
96825SOL    HW292373   0.968   9.743   2.889
96826SOL     OW92374  13.914   4.366   8.066
96826SOL    HW192375  13.838   4.391   8.119
96826SOL    HW292376  13.984   4.353   8.130
96827SOL     OW92377   0.824   7.070  13.962
96827SOL    HW192378   0.829   7.159  13.995
96827SOL    HW292379   0.893   7.064  13.896
96828SOL     OW92380   2.645   8.251   2.216
96828SOL    HW192381   2.565   8.199   2.226
96828SOL    HW292382   2.623   8.316   2.150
96829SOL     OW92383   7.400   2.561   8.279
96829SOL    HW192384   7.467   2.494   8.285
96829SOL    HW292385   7.422   2.623   8.348
96830SOL     OW92386   4.878  12.532  12.511
96830SOL    HW192387   4.912  12.470  12.576
96830SOL    HW292388   4.920  12.615  12.532
96831SOL     OW92389   1.635   1.895   3.749
96831SOL    HW192390   1.669   1.867   3.664
96831SOL    HW292391   1.682   1.977   3.767
96832SOL     OW92392   3.334   8.957   1.158
96832SOL    HW192393   3.376   8.985   1.239
96832SOL    HW292394   3.358   9.023   1.093
96833SOL     OW92395   9.977   5.181   2.103
96833SOL    HW192396   9.951   5.211   2.190
96833SOL    HW292397   9.940   5.093   2.096
96834SOL     OW92398   8.919   3.711  10.031
96834SOL    HW192399   8.873   3.754  10.104
96834SOL    HW292400   9.000   3.761  10.022
96835SOL     OW92401   3.686  10.266   5.051
96835SOL    HW192402   3.712  10.246   4.962
96835SOL    HW292403   3.713  10.189   5.102
96836SOL     OW92404  11.836  13.424   1.372
96836SOL    HW192405  11.906  13.411   1.309
96836SOL    HW292406  11.781  13.347   1.363
96837SOL     OW92407  13.233   5.494  13.520
96837SOL    HW192408  13.142   5.524  13.513
96837SOL    HW292409  13.285   5.568  13.491
96838SOL     OW92410   5.159  11.502  14.313
96838SOL    HW192411   5.224  11.476  14.248
96838SOL    HW292412   5.207  11.503  14.396
96839SOL     OW92413   8.092   4.310   5.809
96839SOL    HW192414   8.140   4.278   5.733
96839SOL    HW292415   8.093   4.236   5.870
96840SOL     OW92416   8.597   9.958   3.636
96840SOL    HW192417   8.552   9.919   3.711
96840SOL    HW292418   8.666   9.895   3.614
96841SOL     OW92419   2.547  13.432   1.194
96841SOL    HW192420   2.582  13.511   1.151
96841SOL    HW292421   2.454  13.449   1.204
96842SOL     OW92422   6.255   9.999   6.105
96842SOL    HW192423   6.285  10.084   6.137
96842SOL    HW292424   6.183  10.020   6.045
96843SOL     OW92425   1.797   1.219   9.953
96843SOL    HW192426   1.731   1.152   9.939
96843SOL    HW292427   1.877   1.170   9.974
96844SOL     OW92428   4.390  13.987   3.058
96844SOL    HW192429   4.427  14.045   3.124
96844SOL    HW292430   4.460  13.976   2.994
96845SOL     OW92431   0.893   8.939   6.183
96845SOL    HW192432   0.894   9.004   6.253
96845SOL    HW292433   0.829   8.874   6.212
96846SOL     OW92434  12.516   7.286   5.467
96846SOL    HW192435  12.526   7.360   5.407
96846SOL    HW292436  12.569   7.216   5.429
96847SOL     OW92437  10.240  11.868   1.909
96847SOL    HW192438  10.203  11.781   1.922
96847SOL    HW292439  10.182  11.927   1.957
96848SOL     OW92440  10.873   7.906  13.191
96848SOL    HW192441  10.880   7.863  13.106
96848SOL    HW292442  10.867   7.834  13.254
96849SOL     OW92443   9.776  11.269  13.753
96849SOL    HW192444   9.854  11.220  13.726
96849SOL    HW292445   9.779  11.268  13.849
96850SOL     OW92446   0.461   8.195   3.816
96850SOL    HW192447   0.549   8.157   3.818
96850SOL    HW292448   0.405   8.126   3.780
96851SOL     OW92449   2.844   1.790  13.101
96851SOL    HW192450   2.877   1.821  13.186
96851SOL    HW292451   2.759   1.752  13.121
96852SOL     OW92452  11.186   4.033  11.631
96852SOL    HW192453  11.229   3.953  11.600
96852SOL    HW292454  11.118   4.002  11.691
96853SOL     OW92455   0.883   3.173   5.877
96853SOL    HW192456   0.892   3.267   5.861
96853SOL    HW292457   0.808   3.146   5.824
96854SOL     OW92458  11.970  12.451  12.456
96854SOL    HW192459  11.917  12.384  12.413
96854SOL    HW292460  12.024  12.488  12.386
96855SOL     OW92461   5.182   3.307   5.583
96855SOL    HW192462   5.210   3.369   5.650
96855SOL    HW292463   5.207   3.348   5.500
96856SOL     OW92464  11.637   3.214   2.152
96856SOL    HW192465  11.673   3.156   2.218
96856SOL    HW292466  11.667   3.179   2.069
96857SOL     OW92467   9.914   9.610   5.602
96857SOL    HW192468   9.917   9.704   5.586
96857SOL    HW292469   9.989   9.575   5.554
96858SOL     OW92470   8.139   9.303   8.712
96858SOL    HW192471   8.199   9.367   8.751
96858SOL    HW292472   8.127   9.333   8.622
96859SOL     OW92473  11.661   1.221   1.196
96859SOL    HW192474  11.609   1.140   1.188
96859SOL    HW292475  11.751   1.192   1.184
96860SOL     OW92476   6.801  11.283   6.146
96860SOL    HW192477   6.773  11.208   6.093
96860SOL    HW292478   6.720  11.316   6.185
96861SOL     OW92479   8.331   0.821  14.105
96861SOL    HW192480   8.423   0.842  14.091
96861SOL    HW292481   8.294   0.898  14.148
96862SOL     OW92482  13.003  10.282  11.367
96862SOL    HW192483  13.060  10.347  11.409
96862SOL    HW292484  12.914  10.313  11.384
96863SOL     OW92485   0.416  14.648  11.538
96863SOL    HW192486   0.354  14.715  11.510
96863SOL    HW292487   0.499  14.674  11.498
96864SOL     OW92488   7.082   2.025   7.785
96864SOL    HW192489   7.111   2.095   7.843
96864SOL    HW292490   7.064   1.951   7.844
96865SOL     OW92491   3.209  13.590   8.291
96865SOL    HW192492   3.123  13.549   8.277
96865SOL    HW292493   3.191  13.683   8.297
96866SOL     OW92494   2.374   5.811   6.860
96866SOL    HW192495   2.316   5.736   6.856
96866SOL    HW292496   2.374   5.847   6.772
96867SOL     OW92497   6.364  12.776  12.216
96867SOL    HW192498   6.423  12.719  12.166
96867SOL    HW292499   6.280  12.730  12.215
96868SOL     OW92500   5.237  10.876   0.113
96868SOL    HW192501   5.205  10.865   0.203
96868SOL    HW292502   5.178  10.822   0.060
96869SOL     OW92503   0.334   7.190   4.894
96869SOL    HW192504   0.270   7.134   4.937
96869SOL    HW292505   0.292   7.276   4.891
96870SOL     OW92506   8.827   3.827   2.344
96870SOL    HW192507   8.830   3.741   2.303
96870SOL    HW292508   8.896   3.825   2.410
96871SOL     OW92509   7.162   5.013   4.489
96871SOL    HW192510   7.198   4.925   4.492
96871SOL    HW292511   7.144   5.028   4.396
96872SOL     OW92512  11.337   5.729   0.931
96872SOL    HW192513  11.365   5.674   0.858
96872SOL    HW292514  11.280   5.794   0.892
96873SOL     OW92515   3.441   7.149  12.829
96873SOL    HW192516   3.459   7.196  12.911
96873SOL    HW292517   3.514   7.172  12.772
96874SOL     OW92518  11.413   4.484   5.416
96874SOL    HW192519  11.507   4.482   5.400
96874SOL    HW292520  11.389   4.394   5.435
96875SOL     OW92521  14.324   7.341   1.601
96875SOL    HW192522  14.343   7.266   1.657
96875SOL    HW292523  14.253   7.310   1.543
96876SOL     OW92524   8.821  12.390   4.234
96876SOL    HW192525   8.805  12.348   4.318
96876SOL    HW292526   8.748  12.452   4.224
96877SOL     OW92527  10.376   0.746   6.659
96877SOL    HW192528  10.390   0.712   6.571
96877SOL    HW292529  10.281   0.754   6.667
96878SOL     OW92530   1.784   9.015   9.778
96878SOL    HW192531   1.791   8.967   9.861
96878SOL    HW292532   1.730   8.959   9.723
96879SOL     OW92533   9.432   7.443   3.016
96879SOL    HW192534   9.337   7.450   3.020
96879SOL    HW292535   9.451   7.352   3.039
96880SOL     OW92536   2.887  10.839  13.592
96880SOL    HW192537   2.812  10.784  13.572
96880SOL    HW292538   2.939  10.788  13.654
96881SOL     OW92539  11.898  11.632   0.630
96881SOL    HW192540  11.919  11.719   0.595
96881SOL    HW292541  11.887  11.577   0.553
96882SOL     OW92542   1.399  14.444   1.389
96882SOL    HW192543   1.418  14.497   1.466
96882SOL    HW292544   1.305  14.425   1.396
96883SOL     OW92545   4.791   3.873   2.702
96883SOL    HW192546   4.732   3.801   2.681
96883SOL    HW292547   4.879   3.836   2.693
96884SOL     OW92548  11.795   1.116   9.043
96884SOL    HW192549  11.885   1.149   9.045
96884SOL    HW292550  11.763   1.127   9.132
96885SOL     OW92551   3.451   8.350  13.571
96885SOL    HW192552   3.544   8.335  13.589
96885SOL    HW292553   3.410   8.264  13.585
96886SOL     OW92554   3.604  13.679  11.606
96886SOL    HW192555   3.682  13.667  11.661
96886SOL    HW292556   3.638  13.683  11.517
96887SOL     OW92557  13.641  12.611  12.434
96887SOL    HW192558  13.722  12.660  12.421
96887SOL    HW292559  13.615  12.584  12.346
96888SOL     OW92560   5.121   4.315  14.827
96888SOL    HW192561   5.153   4.334  14.739
96888SOL    HW292562   5.176   4.242  14.857
96889SOL     OW92563   8.497   4.177  10.200
96889SOL    HW192564   8.566   4.212  10.144
96889SOL    HW292565   8.517   4.213  10.287
96890SOL     OW92566   9.549   3.087   6.295
96890SOL    HW192567   9.550   3.097   6.199
96890SOL    HW292568   9.459   3.108   6.320
96891SOL     OW92569   9.772  14.832   5.339
96891SOL    HW192570   9.819  14.820   5.421
96891SOL    HW292571   9.810  14.768   5.279
96892SOL     OW92572   9.525  14.293  10.137
96892SOL    HW192573   9.513  14.221  10.076
96892SOL    HW292574   9.620  14.301  10.147
96893SOL     OW92575   0.787   8.241  11.900
96893SOL    HW192576   0.700   8.224  11.864
96893SOL    HW292577   0.845   8.245  11.824
96894SOL     OW92578  14.159  10.461   8.804
96894SOL    HW192579  14.230  10.398   8.796
96894SOL    HW292580  14.113  10.435   8.884
96895SOL     OW92581   8.033   4.568  13.033
96895SOL    HW192582   7.957   4.622  13.056
96895SOL    HW292583   8.081   4.621  12.969
96896SOL     OW92584   4.075  13.846  11.561
96896SOL    HW192585   4.072  13.941  11.572
96896SOL    HW292586   4.009  13.813  11.622
96897SOL     OW92587  12.379  12.064   1.878
96897SOL    HW192588  12.461  12.065   1.829
96897SOL    HW292589  12.360  12.157   1.895
96898SOL     OW92590   9.759   0.451  13.057
96898SOL    HW192591   9.840   0.423  13.016
96898SOL    HW292592   9.771   0.431  13.150
96899SOL     OW92593  13.609   8.989   7.027
96899SOL    HW192594  13.525   9.012   7.068
96899SOL    HW292595  13.666   8.966   7.100
96900SOL     OW92596  11.091   6.842   2.292
96900SOL    HW192597  11.036   6.776   2.334
96900SOL    HW292598  11.031   6.892   2.237
96901SOL     OW92599   1.098   0.510   4.625
96901SOL    HW192600   1.055   0.493   4.708
96901SOL    HW292601   1.087   0.605   4.612
96902SOL     OW92602  14.794   1.398   4.053
96902SOL    HW192603  14.877   1.379   4.097
96902SOL    HW292604  14.815   1.389   3.960
96903SOL     OW92605  13.567   9.417  12.936
96903SOL    HW192606  13.644   9.394  12.988
96903SOL    HW292607  13.508   9.342  12.947
96904SOL     OW92608   5.513   7.129  10.644
96904SOL    HW192609   5.603   7.097  10.631
96904SOL    HW292610   5.503   7.200  10.582
96905SOL     OW92611  13.985   2.329   3.660
96905SOL    HW192612  13.916   2.263   3.662
96905SOL    HW292613  14.034   2.316   3.741
96906SOL     OW92614   1.194  10.796  13.894
96906SOL    HW192615   1.197  10.708  13.858
96906SOL    HW292616   1.282  10.831  13.880
96907SOL     OW92617  10.588  10.121   1.383
96907SOL    HW192618  10.671  10.079   1.361
96907SOL    HW292619  10.527  10.089   1.317
96908SOL     OW92620   2.822   2.710  11.505
96908SOL    HW192621   2.757   2.689  11.572
96908SOL    HW292622   2.821   2.634  11.446
96909SOL     OW92623   7.811   3.803  11.653
96909SOL    HW192624   7.735   3.793  11.710
96909SOL    HW292625   7.811   3.724  11.599
96910SOL     OW92626   9.716  11.269   8.547
96910SOL    HW192627   9.657  11.198   8.520
96910SOL    HW292628   9.679  11.348   8.508
96911SOL     OW92629   4.525  11.958   3.221
96911SOL    HW192630   4.533  11.943   3.315
96911SOL    HW292631   4.597  12.018   3.200
96912SOL     OW92632  13.271   1.783   8.498
96912SOL    HW192633  13.177   1.768   8.486
96912SOL    HW292634  13.292   1.740   8.581
96913SOL     OW92635   4.917   9.334  11.158
96913SOL    HW192636   5.011   9.332  11.138
96913SOL    HW292637   4.888   9.422  11.134
96914SOL     OW92638   9.790   2.409   5.475
96914SOL    HW192639   9.855   2.479   5.482
96914SOL    HW292640   9.712   2.444   5.518
96915SOL     OW92641   6.650   8.906   5.219
96915SOL    HW192642   6.631   8.991   5.259
96915SOL    HW292643   6.731   8.876   5.262
96916SOL     OW92644   6.610   6.831   8.668
96916SOL    HW192645   6.532   6.831   8.724
96916SOL    HW292646   6.651   6.915   8.685
96917SOL     OW92647  13.419  14.732   6.137
96917SOL    HW192648  13.402  14.791   6.210
96917SOL    HW292649  13.503  14.761   6.101
96918SOL     OW92650  11.430  13.491   5.157
96918SOL    HW192651  11.352  13.544   5.172
96918SOL    HW292652  11.398  13.416   5.107
96919SOL     OW92653   5.457   5.642   3.039
96919SOL    HW192654   5.522   5.589   2.993
96919SOL    HW292655   5.481   5.732   3.017
96920SOL     OW92656  12.506  11.182  13.281
96920SOL    HW192657  12.507  11.099  13.234
96920SOL    HW292658  12.456  11.165  13.360
96921SOL     OW92659   3.397  12.661   5.056
96921SOL    HW192660   3.326  12.638   4.996
96921SOL    HW292661   3.437  12.739   5.018
96922SOL     OW92662   1.824  13.510  13.996
96922SOL    HW192663   1.750  13.477  14.047
96922SOL    HW292664   1.872  13.566  14.058
96923SOL     OW92665   5.057  12.425  13.436
96923SOL    HW192666   5.118  12.391  13.501
96923SOL    HW292667   5.059  12.520  13.447
96924SOL     OW92668   4.432   1.184   8.407
96924SOL    HW192669   4.348   1.201   8.365
96924SOL    HW292670   4.455   1.267   8.449
96925SOL     OW92671   2.542   6.307  11.009
96925SOL    HW192672   2.622   6.310  10.956
96925SOL    HW292673   2.503   6.394  11.000
96926SOL     OW92674  13.308   3.841   1.272
96926SOL    HW192675  13.303   3.921   1.220
96926SOL    HW292676  13.395   3.805   1.254
96927SOL     OW92677   1.150  13.559  10.838
96927SOL    HW192678   1.157  13.640  10.889
96927SOL    HW292679   1.080  13.510  10.881
96928SOL     OW92680   2.607   6.414   0.514
96928SOL    HW192681   2.520   6.447   0.533
96928SOL    HW292682   2.619   6.429   0.420
96929SOL     OW92683  12.116   6.059   3.221
96929SOL    HW192684  12.098   5.995   3.289
96929SOL    HW292685  12.064   6.030   3.146
96930SOL     OW92686   2.622   6.627  11.689
96930SOL    HW192687   2.536   6.602  11.725
96930SOL    HW292688   2.680   6.556  11.717
96931SOL     OW92689  10.471   4.125  12.570
96931SOL    HW192690  10.514   4.054  12.524
96931SOL    HW292691  10.468   4.097  12.661
96932SOL     OW92692   8.746   0.726   4.081
96932SOL    HW192693   8.839   0.706   4.074
96932SOL    HW292694   8.723   0.702   4.171
96933SOL     OW92695  13.953   5.787   2.770
96933SOL    HW192696  13.928   5.730   2.697
96933SOL    HW292697  13.943   5.876   2.735
96934SOL     OW92698   7.616   2.011   8.785
96934SOL    HW192699   7.637   2.065   8.708
96934SOL    HW292700   7.686   1.945   8.787
96935SOL     OW92701   8.391  10.968  12.593
96935SOL    HW192702   8.310  11.012  12.567
96935SOL    HW292703   8.409  10.907  12.521
96936SOL     OW92704  11.318   5.020   8.767
96936SOL    HW192705  11.309   5.097   8.712
96936SOL    HW292706  11.252   5.032   8.836
96937SOL     OW92707   3.909   7.161   0.747
96937SOL    HW192708   3.842   7.145   0.681
96937SOL    HW292709   3.964   7.230   0.709
96938SOL     OW92710  13.463   0.101  12.339
96938SOL    HW192711  13.515   0.178  12.320
96938SOL    HW292712  13.474   0.044  12.263
96939SOL     OW92713   3.293  14.841   7.959
96939SOL    HW192714   3.353   0.034   7.975
96939SOL    HW292715   3.334  14.792   7.888
96940SOL     OW92716  11.429  10.006  11.393
96940SOL    HW192717  11.482  10.078  11.359
96940SOL    HW292718  11.485   9.963  11.457
96941SOL     OW92719  12.624   6.709   0.666
96941SOL    HW192720  12.543   6.661   0.648
96941SOL    HW292721  12.596   6.800   0.676
96942SOL     OW92722   5.794   7.595  10.710
96942SOL    HW192723   5.843   7.621  10.789
96942SOL    HW292724   5.857   7.544  10.660
96943SOL     OW92725   6.156   3.313  13.070
96943SOL    HW192726   6.225   3.310  13.137
96943SOL    HW292727   6.108   3.393  13.091
96944SOL     OW92728   2.851   6.811   6.170
96944SOL    HW192729   2.863   6.716   6.167
96944SOL    HW292730   2.939   6.847   6.158
96945SOL     OW92731   2.662  10.815   2.064
96945SOL    HW192732   2.579  10.784   2.031
96945SOL    HW292733   2.643  10.902   2.100
96946SOL     OW92734   3.866  10.395   4.312
96946SOL    HW192735   3.942  10.350   4.273
96946SOL    HW292736   3.905  10.462   4.369
96947SOL     OW92737  10.567   1.612   8.533
96947SOL    HW192738  10.501   1.543   8.528
96947SOL    HW292739  10.628   1.582   8.601
96948SOL     OW92740  12.922  11.813   2.167
96948SOL    HW192741  12.852  11.868   2.132
96948SOL    HW292742  12.925  11.738   2.108
96949SOL     OW92743  10.556  12.727   7.477
96949SOL    HW192744  10.612  12.804   7.472
96949SOL    HW292745  10.576  12.678   7.397
96950SOL     OW92746   4.824  14.487  12.065
96950SOL    HW192747   4.888  14.424  12.099
96950SOL    HW292748   4.847  14.496  11.972
96951SOL     OW92749   4.919   0.245   1.305
96951SOL    HW192750   5.011   0.258   1.284
96951SOL    HW292751   4.873   0.267   1.224
96952SOL     OW92752   0.271   9.340   0.683
96952SOL    HW192753   0.290   9.397   0.758
96952SOL    HW292754   0.203   9.387   0.635
96953SOL     OW92755   1.448   2.693   8.881
96953SOL    HW192756   1.404   2.651   8.807
96953SOL    HW292757   1.513   2.628   8.911
96954SOL     OW92758   8.350   9.688   2.818
96954SOL    HW192759   8.314   9.634   2.748
96954SOL    HW292760   8.322   9.777   2.796
96955SOL     OW92761   4.934   4.367   1.378
96955SOL    HW192762   4.863   4.377   1.315
96955SOL    HW292763   4.890   4.364   1.463
96956SOL     OW92764   3.997   5.508   1.798
96956SOL    HW192765   3.993   5.531   1.705
96956SOL    HW292766   4.060   5.570   1.835
96957SOL     OW92767   1.334  10.961   4.107
96957SOL    HW192768   1.353  10.999   4.021
96957SOL    HW292769   1.400  10.892   4.118
96958SOL     OW92770  10.573   5.521  12.885
96958SOL    HW192771  10.487   5.481  12.882
96958SOL    HW292772  10.564   5.593  12.947
96959SOL     OW92773   7.149  13.442  10.295
96959SOL    HW192774   7.111  13.410  10.377
96959SOL    HW292775   7.209  13.372  10.267
96960SOL     OW92776  14.599  12.651  14.647
96960SOL    HW192777  14.526  12.646  14.709
96960SOL    HW292778  14.563  12.699  14.572
96961SOL     OW92779  10.412   8.153   0.962
96961SOL    HW192780  10.483   8.211   0.986
96961SOL    HW292781  10.428   8.131   0.870
96962SOL     OW92782  12.986   5.098   9.506
96962SOL    HW192783  13.009   5.142   9.424
96962SOL    HW292784  13.015   5.159   9.574
96963SOL     OW92785   0.837  12.899   5.361
96963SOL    HW192786   0.773  12.858   5.420
96963SOL    HW292787   0.786  12.960   5.308
96964SOL     OW92788  12.389  13.983  10.981
96964SOL    HW192789  12.453  13.924  11.020
96964SOL    HW292790  12.428  14.011  10.898
96965SOL     OW92791  14.800   7.695   1.337
96965SOL    HW192792  14.757   7.760   1.281
96965SOL    HW292793  14.730   7.636   1.363
96966SOL     OW92794   6.143   6.701   7.599
96966SOL    HW192795   6.233   6.669   7.587
96966SOL    HW292796   6.149   6.795   7.585
96967SOL     OW92797  10.083  12.614   9.959
96967SOL    HW192798  10.021  12.613  10.031
96967SOL    HW292799  10.031  12.591   9.882
96968SOL     OW92800   5.016   1.056  10.270
96968SOL    HW192801   5.072   0.980  10.252
96968SOL    HW292802   5.039   1.119  10.202
96969SOL     OW92803   9.940   8.120   3.511
96969SOL    HW192804   9.964   8.173   3.435
96969SOL    HW292805  10.024   8.090   3.546
96970SOL     OW92806   8.342   7.282   8.652
96970SOL    HW192807   8.365   7.304   8.743
96970SOL    HW292808   8.408   7.218   8.626
96971SOL     OW92809   9.859   9.190   4.917
96971SOL    HW192810   9.935   9.133   4.902
96971SOL    HW292811   9.895   9.265   4.964
96972SOL     OW92812   0.477  14.641  11.842
96972SOL    HW192813   0.427  14.673  11.767
96972SOL    HW292814   0.547  14.588  11.804
96973SOL     OW92815  12.181  14.839   0.672
96973SOL    HW192816  12.198  14.772   0.605
96973SOL    HW292817  12.244  14.820   0.741
96974SOL     OW92818  11.310  10.572   8.875
96974SOL    HW192819  11.276  10.651   8.917
96974SOL    HW292820  11.263  10.567   8.792
96975SOL     OW92821   4.757   8.099  10.262
96975SOL    HW192822   4.680   8.042  10.264
96975SOL    HW292823   4.775   8.113  10.169
96976SOL     OW92824   2.250  12.828   1.710
96976SOL    HW192825   2.277  12.747   1.667
96976SOL    HW292826   2.198  12.874   1.644
96977SOL     OW92827   3.845   6.627   2.954
96977SOL    HW192828   3.755   6.619   2.986
96977SOL    HW292829   3.835   6.642   2.860
96978SOL     OW92830   1.698  12.769   4.646
96978SOL    HW192831   1.784  12.811   4.647
96978SOL    HW292832   1.714  12.678   4.670
96979SOL     OW92833  14.664  13.531  10.300
96979SOL    HW192834  14.605  13.471  10.255
96979SOL    HW292835  14.663  13.502  10.391
96980SOL     OW92836  10.803   4.058   6.613
96980SOL    HW192837  10.865   4.083   6.682
96980SOL    HW292838  10.778   4.141   6.572
96981SOL     OW92839   2.569   4.052  14.046
96981SOL    HW192840   2.622   4.131  14.038
96981SOL    HW292841   2.479   4.084  14.056
96982SOL     OW92842   5.519   2.491   9.463
96982SOL    HW192843   5.501   2.585   9.458
96982SOL    HW292844   5.466   2.454   9.393
96983SOL     OW92845   4.702   3.809  10.830
96983SOL    HW192846   4.787   3.799  10.787
96983SOL    HW292847   4.640   3.767  10.771
96984SOL     OW92848   5.784   3.424   8.536
96984SOL    HW192849   5.845   3.372   8.482
96984SOL    HW292850   5.813   3.409   8.626
96985SOL     OW92851  12.465  13.255  12.687
96985SOL    HW192852  12.387  13.201  12.697
96985SOL    HW292853  12.511  13.218  12.611
96986SOL     OW92854   2.173   2.779  12.816
96986SOL    HW192855   2.247   2.820  12.770
96986SOL    HW292856   2.166   2.827  12.898
96987SOL     OW92857   1.375   7.164   7.045
96987SOL    HW192858   1.390   7.252   7.009
96987SOL    HW292859   1.280   7.160   7.058
96988SOL     OW92860   9.774  12.269  14.277
96988SOL    HW192861   9.862  12.234  14.260
96988SOL    HW292862   9.787  12.328  14.352
96989SOL     OW92863   4.904   5.002   5.735
96989SOL    HW192864   4.945   5.082   5.702
96989SOL    HW292865   4.893   5.017   5.829
96990SOL     OW92866  11.390   7.818   6.199
96990SOL    HW192867  11.383   7.761   6.276
96990SOL    HW292868  11.397   7.758   6.125
96991SOL     OW92869   5.331  13.367   9.276
96991SOL    HW192870   5.247  13.401   9.244
96991SOL    HW292871   5.306  13.298   9.338
96992SOL     OW92872  11.226   9.393  11.408
96992SOL    HW192873  11.285   9.467  11.422
96992SOL    HW292874  11.230   9.377  11.313
96993SOL     OW92875   1.708   3.707  11.040
96993SOL    HW192876   1.677   3.662  10.961
96993SOL    HW292877   1.708   3.639  11.107
96994SOL     OW92878   1.894   6.019  14.339
96994SOL    HW192879   1.927   6.082  14.403
96994SOL    HW292880   1.972   5.984  14.297
96995SOL     OW92881  14.521  11.973  14.067
96995SOL    HW192882  14.523  11.990  14.161
96995SOL    HW292883  14.476  11.888  14.059
96996SOL     OW92884   4.149   2.685   8.946
96996SOL    HW192885   4.123   2.600   8.981
96996SOL    HW292886   4.240   2.695   8.975
96997SOL     OW92887   7.144   0.913   5.271
96997SOL    HW192888   7.232   0.874   5.272
96997SOL    HW292889   7.085   0.838   5.266
96998SOL     OW92890  10.056   8.288   3.291
96998SOL    HW192891   9.974   8.279   3.244
96998SOL    HW292892  10.121   8.245   3.235
96999SOL     OW92893   2.197   0.696   3.786
96999SOL    HW192894   2.180   0.613   3.741
96999SOL    HW292895   2.115   0.715   3.831
97000SOL     OW92896  11.760   6.622   6.198
97000SOL    HW192897  11.745   6.595   6.288
97000SOL    HW292898  11.748   6.717   6.198
97001SOL     OW92899   1.876   3.632  11.970
97001SOL    HW192900   1.858   3.630  12.064
97001SOL    HW292901   1.837   3.551  11.936
97002SOL     OW92902   7.791  12.437   1.962
97002SOL    HW192903   7.805  12.352   2.004
97002SOL    HW292904   7.860  12.493   1.999
97003SOL     OW92905  14.573   4.753  14.182
97003SOL    HW192906  14.604   4.662  14.184
97003SOL    HW292907  14.634   4.800  14.238
97004SOL     OW92908   8.332   3.813  12.007
97004SOL    HW192909   8.423   3.843  12.008
97004SOL    HW292910   8.291   3.861  11.936
97005SOL     OW92911  10.388   7.321   0.229
97005SOL    HW192912  10.454   7.289   0.290
97005SOL    HW292913  10.352   7.243   0.188
97006SOL     OW92914  10.641   0.994  14.003
97006SOL    HW192915  10.654   0.996  13.909
97006SOL    HW292916  10.570   0.931  14.017
97007SOL     OW92917   8.577  12.343   5.232
97007SOL    HW192918   8.563  12.426   5.188
97007SOL    HW292919   8.499  12.330   5.286
97008SOL     OW92920   2.314  13.108  10.710
97008SOL    HW192921   2.250  13.079  10.776
97008SOL    HW292922   2.278  13.189  10.675
97009SOL     OW92923  11.448  10.928   0.426
97009SOL    HW192924  11.381  10.995   0.409
97009SOL    HW292925  11.531  10.973   0.411
97010SOL     OW92926   1.485   7.683  11.228
97010SOL    HW192927   1.473   7.771  11.265
97010SOL    HW292928   1.571   7.656  11.260
97011SOL     OW92929   2.575   0.386  10.282
97011SOL    HW192930   2.502   0.448  10.290
97011SOL    HW292931   2.636   0.428  10.222
97012SOL     OW92932   7.724   5.468   5.848
97012SOL    HW192933   7.729   5.559   5.878
97012SOL    HW292934   7.806   5.429   5.877
97013SOL     OW92935   3.237   9.340  13.429
97013SOL    HW192936   3.207   9.377  13.512
97013SOL    HW292937   3.192   9.391  13.362
97014SOL     OW92938  12.222  12.853   3.963
97014SOL    HW192939  12.141  12.812   3.932
97014SOL    HW292940  12.255  12.901   3.887
97015SOL     OW92941   2.299  11.679  14.482
97015SOL    HW192942   2.261  11.686  14.570
97015SOL    HW292943   2.244  11.736  14.428
97016SOL     OW92944   1.596   1.444   4.678
97016SOL    HW192945   1.682   1.403   4.686
97016SOL    HW292946   1.573   1.468   4.768
97017SOL     OW92947  11.749   6.574   4.697
97017SOL    HW192948  11.791   6.514   4.758
97017SOL    HW292949  11.658   6.579   4.725
97018SOL     OW92950   7.181  11.725  12.890
97018SOL    HW192951   7.100  11.732  12.940
97018SOL    HW292952   7.163  11.772  12.809
97019SOL     OW92953   7.484   3.204   1.022
97019SOL    HW192954   7.394   3.234   1.035
97019SOL    HW292955   7.490   3.183   0.929
97020SOL     OW92956  13.542   6.735   8.551
97020SOL    HW192957  13.624   6.686   8.553
97020SOL    HW292958  13.568   6.827   8.551
97021SOL     OW92959  14.760   8.391  14.308
97021SOL    HW192960  14.796   8.310  14.345
97021SOL    HW292961  14.814   8.408  14.231
97022SOL     OW92962   6.074   1.980   3.089
97022SOL    HW192963   6.043   1.903   3.040
97022SOL    HW292964   6.163   1.995   3.056
97023SOL     OW92965   8.683   5.665  10.610
97023SOL    HW192966   8.726   5.749  10.596
97023SOL    HW292967   8.648   5.670  10.699
97024SOL     OW92968  11.638   6.325   7.459
97024SOL    HW192969  11.642   6.404   7.405
97024SOL    HW292970  11.545   6.304   7.464
97025SOL     OW92971  11.711   3.721   0.231
97025SOL    HW192972  11.632   3.764   0.262
97025SOL    HW292973  11.686   3.629   0.219
97026SOL     OW92974  11.966  12.645   1.468
97026SOL    HW192975  12.055  12.678   1.471
97026SOL    HW292976  11.936  12.667   1.379
97027SOL     OW92977   4.104  14.334  10.871
97027SOL    HW192978   4.049  14.398  10.825
97027SOL    HW292979   4.175  14.387  10.908
97028SOL     OW92980  13.724   8.238   2.016
97028SOL    HW192981  13.698   8.196   1.934
97028SOL    HW292982  13.811   8.204   2.035
97029SOL     OW92983   6.598  11.158   5.528
97029SOL    HW192984   6.530  11.214   5.564
97029SOL    HW292985   6.569  11.139   5.439
97030SOL     OW92986   6.213   1.734   8.507
97030SOL    HW192987   6.242   1.777   8.588
97030SOL    HW292988   6.118   1.743   8.508
97031SOL     OW92989   1.166  12.708   4.439
97031SOL    HW192990   1.140  12.743   4.353
97031SOL    HW292991   1.228  12.772   4.473
97032SOL     OW92992  14.202   9.779   6.995
97032SOL    HW192993  14.138   9.724   6.951
97032SOL    HW292994  14.229   9.842   6.928
97033SOL     OW92995   3.457  11.319   0.906
97033SOL    HW192996   3.377  11.304   0.854
97033SOL    HW292997   3.525  11.272   0.858
97034SOL     OW92998  11.341  12.661  13.074
97034SOL    HW192999  11.335  12.633  12.982
97034SOL    HW293000  11.434  12.651  13.095
97035SOL     OW93001   8.402  12.741   8.712
97035SOL    HW193002   8.398  12.829   8.750
97035SOL    HW293003   8.494  12.727   8.691
97036SOL     OW93004   1.501   4.072   1.458
97036SOL    HW193005   1.424   4.129   1.454
97036SOL    HW293006   1.467   3.985   1.435
97037SOL     OW93007   5.564  14.430  14.035
97037SOL    HW193008   5.569  14.474  14.119
97037SOL    HW293009   5.479  14.454  13.999
97038SOL     OW93010   4.418   9.774   9.055
97038SOL    HW193011   4.441   9.685   9.081
97038SOL    HW293012   4.326   9.784   9.078
97039SOL     OW93013   4.735   5.040  14.022
97039SOL    HW193014   4.758   5.132  14.016
97039SOL    HW293015   4.675   5.035  14.097
97040SOL     OW93016   7.788   4.983   1.428
97040SOL    HW193017   7.776   5.006   1.520
97040SOL    HW293018   7.757   5.060   1.380
97041SOL     OW93019  13.329   5.005   0.004
97041SOL    HW193020  13.271   5.002  14.808
97041SOL    HW293021  13.272   5.020   0.078
97042SOL     OW93022   9.137   0.678   6.202
97042SOL    HW193023   9.096   0.639   6.280
97042SOL    HW293024   9.066   0.725   6.158
97043SOL     OW93025   3.320   5.404  12.780
97043SOL    HW193026   3.369   5.363  12.851
97043SOL    HW293027   3.330   5.498  12.795
97044SOL     OW93028   1.620   5.508  11.542
97044SOL    HW193029   1.698   5.558  11.566
97044SOL    HW293030   1.584   5.478  11.625
97045SOL     OW93031   8.404  11.218   9.759
97045SOL    HW193032   8.485  11.175   9.785
97045SOL    HW293033   8.419  11.311   9.777
97046SOL     OW93034   8.446  13.998   4.887
97046SOL    HW193035   8.404  14.043   4.960
97046SOL    HW293036   8.373  13.957   4.839
97047SOL     OW93037  13.107  11.382   4.630
97047SOL    HW193038  13.072  11.342   4.709
97047SOL    HW293039  13.199  11.398   4.649
97048SOL     OW93040   1.664   6.522  12.377
97048SOL    HW193041   1.712   6.592  12.421
97048SOL    HW293042   1.708   6.442  12.404
97049SOL     OW93043  10.429   6.714   7.906
97049SOL    HW193044  10.443   6.682   7.995
97049SOL    HW293045  10.469   6.647   7.850
97050SOL     OW93046   5.821  10.351   2.236
97050SOL    HW193047   5.799  10.437   2.272
97050SOL    HW293048   5.859  10.370   2.150
97051SOL     OW93049  13.252   8.116   1.180
97051SOL    HW193050  13.247   8.026   1.212
97051SOL    HW293051  13.329   8.117   1.124
97052SOL     OW93052  14.149  11.930   0.599
97052SOL    HW193053  14.126  11.840   0.575
97052SOL    HW293054  14.065  11.972   0.615
97053SOL     OW93055   2.483   5.331   6.456
97053SOL    HW193056   2.462   5.423   6.441
97053SOL    HW293057   2.486   5.292   6.369
97054SOL     OW93058   5.392   0.901  14.767
97054SOL    HW193059   5.312   0.850  14.778
97054SOL    HW293060   5.383   0.942  14.681
97055SOL     OW93061   6.221  13.552  12.762
97055SOL    HW193062   6.227  13.512  12.849
97055SOL    HW293063   6.286  13.622  12.764
97056SOL     OW93064   4.505  12.954   2.112
97056SOL    HW193065   4.447  13.028   2.130
97056SOL    HW293066   4.587  12.977   2.157
97057SOL     OW93067   6.947  14.295   8.111
97057SOL    HW193068   6.931  14.312   8.204
97057SOL    HW293069   6.909  14.209   8.095
97058SOL     OW93070  11.411  10.157  12.951
97058SOL    HW193071  11.439  10.093  13.016
97058SOL    HW293072  11.339  10.205  12.992
97059SOL     OW93073   2.004   3.282   8.522
97059SOL    HW193074   2.041   3.312   8.439
97059SOL    HW293075   1.996   3.361   8.575
97060SOL     OW93076  10.564   3.966   0.489
97060SOL    HW193077  10.646   3.969   0.441
97060SOL    HW293078  10.576   3.897   0.554
97061SOL     OW93079   8.971   5.822   9.852
97061SOL    HW193080   9.021   5.753   9.896
97061SOL    HW293081   9.031   5.856   9.786
97062SOL     OW93082   6.652   2.856   1.434
97062SOL    HW193083   6.644   2.772   1.389
97062SOL    HW293084   6.681   2.917   1.366
97063SOL     OW93085   1.014   5.875  10.902
97063SOL    HW193086   1.106   5.867  10.878
97063SOL    HW293087   1.008   5.958  10.949
97064SOL     OW93088   0.599   2.372  13.703
97064SOL    HW193089   0.589   2.290  13.655
97064SOL    HW293090   0.620   2.437  13.636
97065SOL     OW93091   5.670   8.756   8.026
97065SOL    HW193092   5.737   8.691   8.004
97065SOL    HW293093   5.648   8.797   7.942
97066SOL     OW93094  12.844  14.122  13.503
97066SOL    HW193095  12.774  14.187  13.496
97066SOL    HW293096  12.905  14.159  13.567
97067SOL     OW93097   1.039  13.694   0.027
97067SOL    HW193098   1.089  13.619   0.056
97067SOL    HW293099   1.020  13.676  14.814
97068SOL     OW93100   2.886  11.732  14.139
97068SOL    HW193101   2.966  11.717  14.189
97068SOL    HW293102   2.916  11.747  14.050
97069SOL     OW93103   5.011   9.406   5.110
97069SOL    HW193104   4.934   9.382   5.161
97069SOL    HW293105   5.009   9.502   5.106
97070SOL     OW93106   4.523  14.440   2.177
97070SOL    HW193107   4.587  14.511   2.176
97070SOL    HW293108   4.529  14.402   2.264
97071SOL     OW93109   5.667  12.658  14.564
97071SOL    HW193110   5.613  12.670  14.643
97071SOL    HW293111   5.660  12.741  14.517
97072SOL     OW93112   9.590  10.772   4.894
97072SOL    HW193113   9.624  10.824   4.966
97072SOL    HW293114   9.507  10.737   4.926
97073SOL     OW93115   0.781   7.410   4.569
97073SOL    HW193116   0.762   7.408   4.663
97073SOL    HW293117   0.864   7.458   4.563
97074SOL     OW93118  13.133  14.061  14.749
97074SOL    HW193119  13.124  13.981  14.696
97074SOL    HW293120  13.135  14.030  14.839
97075SOL     OW93121  13.978  14.675   0.318
97075SOL    HW193122  14.050  14.652   0.260
97075SOL    HW293123  13.908  14.614   0.296
97076SOL     OW93124   4.514  12.969  12.184
97076SOL    HW193125   4.461  12.910  12.129
97076SOL    HW293126   4.600  12.969  12.143
97077SOL     OW93127   3.716  11.431   4.950
97077SOL    HW193128   3.697  11.399   4.862
97077SOL    HW293129   3.686  11.522   4.950
97078SOL     OW93130   6.445   6.898   2.837
97078SOL    HW193131   6.438   6.866   2.927
97078SOL    HW293132   6.530   6.866   2.806
97079SOL     OW93133   4.793  13.991   6.616
97079SOL    HW193134   4.750  14.007   6.700
97079SOL    HW293135   4.737  13.926   6.573
97080SOL     OW93136   9.237   0.151   8.440
97080SOL    HW193137   9.322   0.168   8.481
97080SOL    HW293138   9.248   0.180   8.349
97081SOL     OW93139   5.935   0.313   8.617
97081SOL    HW193140   5.894   0.227   8.631
97081SOL    HW293141   5.948   0.318   8.522
97082SOL     OW93142   3.054  13.181   8.045
97082SOL    HW193143   3.095  13.096   8.027
97082SOL    HW293144   3.031  13.216   7.960
97083SOL     OW93145  11.927   0.892   4.031
97083SOL    HW193146  11.842   0.898   4.074
97083SOL    HW293147  11.928   0.965   3.969
97084SOL     OW93148   1.736   6.797   1.039
97084SOL    HW193149   1.713   6.755   1.122
97084SOL    HW293150   1.767   6.884   1.064
97085SOL     OW93151   6.283  13.483   3.236
97085SOL    HW193152   6.317  13.536   3.309
97085SOL    HW293153   6.310  13.530   3.157
97086SOL     OW93154   3.091   4.805   2.669
97086SOL    HW193155   3.003   4.774   2.647
97086SOL    HW293156   3.149   4.738   2.633
97087SOL     OW93157   3.188   3.990   2.780
97087SOL    HW193158   3.246   3.915   2.765
97087SOL    HW293159   3.105   3.952   2.808
97088SOL     OW93160   0.161  12.705  11.442
97088SOL    HW193161   0.225  12.652  11.490
97088SOL    HW293162   0.077  12.684  11.483
97089SOL     OW93163   4.311   0.667   2.734
97089SOL    HW193164   4.338   0.582   2.698
97089SOL    HW293165   4.272   0.646   2.819
97090SOL     OW93166   5.746   3.110  11.640
97090SOL    HW193167   5.669   3.147  11.597
97090SOL    HW293168   5.742   3.017  11.618
97091SOL     OW93169  14.458  12.469   2.199
97091SOL    HW193170  14.422  12.548   2.158
97091SOL    HW293171  14.382  12.413   2.215
97092SOL     OW93172  10.561  12.705   0.021
97092SOL    HW193173  10.598  12.762   0.089
97092SOL    HW293174  10.502  12.646   0.068
97093SOL     OW93175   0.011   8.030  13.382
97093SOL    HW193176   0.025   8.004  13.291
97093SOL    HW293177  14.810   7.986  13.409
97094SOL     OW93178   7.255  12.213   2.519
97094SOL    HW193179   7.230  12.145   2.581
97094SOL    HW293180   7.172  12.254   2.494
97095SOL     OW93181   4.027  11.417   8.049
97095SOL    HW193182   4.035  11.513   8.047
97095SOL    HW293183   4.092  11.389   8.113
97096SOL     OW93184  14.779  10.007   7.288
97096SOL    HW193185  14.778  10.000   7.192
97096SOL    HW293186  14.868   9.981   7.312
97097SOL     OW93187   0.507   0.939   6.212
97097SOL    HW193188   0.456   0.969   6.287
97097SOL    HW293189   0.591   0.984   6.220
97098SOL     OW93190   0.647   4.814   4.299
97098SOL    HW193191   0.686   4.733   4.266
97098SOL    HW293192   0.613   4.858   4.221
97099SOL     OW93193   4.284   0.683  13.935
97099SOL    HW193194   4.292   0.587  13.932
97099SOL    HW293195   4.243   0.701  14.019
97100SOL     OW93196   8.240  13.998   9.006
97100SOL    HW193197   8.180  14.062   8.968
97100SOL    HW293198   8.184  13.926   9.035
97101SOL     OW93199   7.174  12.440   3.856
97101SOL    HW193200   7.113  12.378   3.816
97101SOL    HW293201   7.221  12.389   3.921
97102SOL     OW93202   9.013  14.635   5.082
97102SOL    HW193203   9.013  14.686   5.163
97102SOL    HW293204   9.092  14.663   5.036
97103SOL     OW93205   1.780   3.127   6.248
97103SOL    HW193206   1.859   3.079   6.222
97103SOL    HW293207   1.773   3.199   6.185
97104SOL     OW93208   3.547   2.258   1.773
97104SOL    HW193209   3.626   2.270   1.827
97104SOL    HW293210   3.491   2.201   1.826
97105SOL     OW93211   9.272  10.342   6.540
97105SOL    HW193212   9.211  10.354   6.613
97105SOL    HW293213   9.300  10.250   6.548
97106SOL     OW93214   1.456  12.832   1.291
97106SOL    HW193215   1.444  12.833   1.387
97106SOL    HW293216   1.370  12.856   1.257
97107SOL     OW93217   0.627  13.352  11.563
97107SOL    HW193218   0.649  13.361  11.656
97107SOL    HW293219   0.559  13.285  11.560
97108SOL     OW93220  10.349   4.815  10.397
97108SOL    HW193221  10.428   4.865  10.377
97108SOL    HW293222  10.373   4.724  10.381
97109SOL     OW93223  14.730  13.278   0.823
97109SOL    HW193224  14.658  13.314   0.772
97109SOL    HW293225  14.696  13.197   0.861
97110SOL     OW93226   9.478  13.990   3.050
97110SOL    HW193227   9.462  13.899   3.022
97110SOL    HW293228   9.416  14.005   3.120
97111SOL     OW93229   5.305  10.512   9.080
97111SOL    HW193230   5.292  10.567   9.157
97111SOL    HW293231   5.223  10.520   9.031
97112SOL     OW93232   3.544   2.380  14.735
97112SOL    HW193233   3.550   2.328  14.655
97112SOL    HW293234   3.628   2.365  14.780
97113SOL     OW93235   3.877   1.431   8.566
97113SOL    HW193236   3.795   1.410   8.522
97113SOL    HW293237   3.895   1.521   8.541
97114SOL     OW93238  14.435  10.864  11.580
97114SOL    HW193239  14.376  10.825  11.644
97114SOL    HW293240  14.378  10.895  11.510
97115SOL     OW93241   2.779  13.821   5.358
97115SOL    HW193242   2.801  13.828   5.265
97115SOL    HW293243   2.743  13.732   5.368
97116SOL     OW93244   9.887  13.866   0.026
97116SOL    HW193245   9.863  13.907   0.109
97116SOL    HW293246   9.972  13.905   0.004
97117SOL     OW93247  11.508   6.890   1.964
97117SOL    HW193248  11.588   6.852   2.001
97117SOL    HW293249  11.539   6.962   1.910
97118SOL     OW93250  11.855   3.931  13.586
97118SOL    HW193251  11.774   3.899  13.547
97118SOL    HW293252  11.915   3.856  13.585
97119SOL     OW93253   0.353   6.942   2.442
97119SOL    HW193254   0.404   6.970   2.518
97119SOL    HW293255   0.272   6.907   2.479
97120SOL     OW93256   4.008   0.797  10.860
97120SOL    HW193257   4.073   0.744  10.814
97120SOL    HW293258   3.973   0.738  10.928
97121SOL     OW93259   4.638   2.375   9.830
97121SOL    HW193260   4.673   2.295   9.868
97121SOL    HW293261   4.649   2.441   9.898
97122SOL     OW93262  11.289   6.092   7.433
97122SOL    HW193263  11.274   6.185   7.415
97122SOL    HW293264  11.214   6.066   7.486
97123SOL     OW93265  14.018   0.209   0.826
97123SOL    HW193266  14.064   0.266   0.764
97123SOL    HW293267  14.023   0.121   0.787
97124SOL     OW93268   4.123  11.507   5.218
97124SOL    HW193269   4.216  11.516   5.237
97124SOL    HW293270   4.103  11.415   5.238
97125SOL     OW93271   5.123   5.302   7.162
97125SOL    HW193272   5.171   5.280   7.082
97125SOL    HW293273   5.181   5.273   7.233
97126SOL     OW93274   1.897   0.723  11.524
97126SOL    HW193275   1.930   0.793  11.580
97126SOL    HW293276   1.858   0.769  11.450
97127SOL     OW93277  10.411  10.272   7.440
97127SOL    HW193278  10.391  10.189   7.484
97127SOL    HW293279  10.395  10.339   7.506
97128SOL     OW93280  11.654   1.307   2.526
97128SOL    HW193281  11.580   1.273   2.476
97128SOL    HW293282  11.626   1.302   2.617
97129SOL     OW93283  11.808  14.841   8.177
97129SOL    HW193284  11.725   0.008   8.177
97129SOL    HW293285  11.849  14.864   8.260
97130SOL     OW93286   6.281   5.486  10.231
97130SOL    HW193287   6.266   5.511  10.140
97130SOL    HW293288   6.273   5.390  10.231
97131SOL     OW93289   6.854   5.601   1.494
97131SOL    HW193290   6.790   5.537   1.465
97131SOL    HW293291   6.834   5.615   1.586
97132SOL     OW93292   7.160  14.058  11.574
97132SOL    HW193293   7.123  14.087  11.657
97132SOL    HW293294   7.164  13.963  11.581
97133SOL     OW93295   8.122   7.818   3.361
97133SOL    HW193296   8.194   7.802   3.299
97133SOL    HW293297   8.046   7.779   3.320
97134SOL     OW93298   7.030   8.442  12.781
97134SOL    HW193299   7.095   8.498  12.824
97134SOL    HW293300   6.949   8.494  12.784
97135SOL     OW93301   8.080  12.918   3.832
97135SOL    HW193302   8.098  12.984   3.899
97135SOL    HW293303   7.991  12.936   3.804
97136SOL     OW93304   0.579   9.685   3.360
97136SOL    HW193305   0.619   9.715   3.278
97136SOL    HW293306   0.636   9.615   3.390
97137SOL     OW93307   9.486   5.663   0.519
97137SOL    HW193308   9.572   5.696   0.491
97137SOL    HW293309   9.504   5.576   0.554
97138SOL     OW93310   6.911   1.460   8.318
97138SOL    HW193311   6.977   1.514   8.362
97138SOL    HW293312   6.928   1.371   8.349
97139SOL     OW93313  13.838   0.234   1.653
97139SOL    HW193314  13.789   0.302   1.606
97139SOL    HW293315  13.886   0.282   1.721
97140SOL     OW93316  12.086   1.400   2.106
97140SOL    HW193317  12.163   1.456   2.116
97140SOL    HW293318  12.116   1.328   2.051
97141SOL     OW93319   9.445   1.185   6.532
97141SOL    HW193320   9.399   1.259   6.493
97141SOL    HW293321   9.417   1.110   6.481
97142SOL     OW93322  14.175   1.652  11.298
97142SOL    HW193323  14.108   1.594  11.261
97142SOL    HW293324  14.130   1.735  11.311
97143SOL     OW93325   2.615   2.295  11.456
97143SOL    HW193326   2.524   2.268  11.459
97143SOL    HW293327   2.623   2.348  11.377
97144SOL     OW93328  13.606  13.078  13.145
97144SOL    HW193329  13.595  13.018  13.072
97144SOL    HW293330  13.696  13.108  13.139
97145SOL     OW93331   9.114   6.835  14.578
97145SOL    HW193332   9.156   6.880  14.651
97145SOL    HW293333   9.186   6.812  14.519
97146SOL     OW93334  13.079   9.403   0.753
97146SOL    HW193335  13.169   9.405   0.721
97146SOL    HW293336  13.072   9.480   0.809
97147SOL     OW93337  10.733   3.077  14.801
97147SOL    HW193338  10.708   2.997  14.754
97147SOL    HW293339  10.721   3.056   0.014
97148SOL     OW93340   8.882   8.722   3.022
97148SOL    HW193341   8.973   8.750   3.033
97148SOL    HW293342   8.882   8.677   2.937
97149SOL     OW93343   8.635   9.321  11.247
97149SOL    HW193344   8.728   9.312  11.269
97149SOL    HW293345   8.589   9.279  11.319
97150SOL     OW93346   7.942  14.473   3.785
97150SOL    HW193347   8.029  14.452   3.818
97150SOL    HW293348   7.945  14.566   3.763
97151SOL     OW93349   3.519   9.434   0.249
97151SOL    HW193350   3.485   9.390   0.328
97151SOL    HW293351   3.536   9.524   0.278
97152SOL     OW93352  10.755  13.703   0.502
97152SOL    HW193353  10.823  13.675   0.440
97152SOL    HW293354  10.757  13.636   0.572
97153SOL     OW93355   1.768   7.823  14.026
97153SOL    HW193356   1.780   7.728  14.028
97153SOL    HW293357   1.744   7.842  13.936
97154SOL     OW93358  10.090   6.501   4.184
97154SOL    HW193359  10.120   6.410   4.176
97154SOL    HW293360  10.155   6.552   4.135
97155SOL     OW93361   2.151  11.058   8.930
97155SOL    HW193362   2.181  11.034   9.018
97155SOL    HW293363   2.056  11.054   8.936
97156SOL     OW93364  14.347   0.406   8.296
97156SOL    HW193365  14.357   0.348   8.221
97156SOL    HW293366  14.432   0.405   8.340
97157SOL     OW93367   8.702   1.987   3.719
97157SOL    HW193368   8.749   2.050   3.665
97157SOL    HW293369   8.762   1.968   3.791
97158SOL     OW93370  14.492   8.831   2.758
97158SOL    HW193371  14.489   8.903   2.695
97158SOL    HW293372  14.565   8.777   2.730
97159SOL     OW93373   8.817   2.074  10.748
97159SOL    HW193374   8.748   2.107  10.806
97159SOL    HW293375   8.883   2.144  10.749
97160SOL     OW93376   3.300   6.293   3.950
97160SOL    HW193377   3.316   6.375   3.996
97160SOL    HW293378   3.268   6.320   3.864
97161SOL     OW93379   6.645  12.765   6.009
97161SOL    HW193380   6.606  12.689   5.965
97161SOL    HW293381   6.635  12.747   6.102
97162SOL     OW93382   5.260  10.824   7.331
97162SOL    HW193383   5.263  10.796   7.423
97162SOL    HW293384   5.203  10.900   7.331
97163SOL     OW93385   8.221   3.917  10.384
97163SOL    HW193386   8.192   3.945  10.471
97163SOL    HW293387   8.141   3.910  10.332
97164SOL     OW93388  10.254  12.587  12.594
97164SOL    HW193389  10.210  12.608  12.676
97164SOL    HW293390  10.307  12.510  12.614
97165SOL     OW93391  12.024  12.237  10.546
97165SOL    HW193392  12.030  12.163  10.607
97165SOL    HW293393  11.954  12.292  10.581
97166SOL     OW93394   2.155  10.661   9.264
97166SOL    HW193395   2.130  10.753   9.256
97166SOL    HW293396   2.241  10.656   9.223
97167SOL     OW93397  13.265   4.849   7.677
97167SOL    HW193398  13.257   4.877   7.586
97167SOL    HW293399  13.356   4.823   7.686
97168SOL     OW93400  11.566   8.328   2.337
97168SOL    HW193401  11.611   8.294   2.415
97168SOL    HW293402  11.492   8.268   2.325
97169SOL     OW93403  13.265   8.683   1.191
97169SOL    HW193404  13.298   8.773   1.194
97169SOL    HW293405  13.178   8.692   1.152
97170SOL     OW93406   1.904  13.243   5.303
97170SOL    HW193407   1.966  13.236   5.231
97170SOL    HW293408   1.948  13.298   5.368
97171SOL     OW93409   7.279   4.398   4.266
97171SOL    HW193410   7.195   4.431   4.233
97171SOL    HW293411   7.261   4.308   4.293
97172SOL     OW93412   2.000   2.430   4.151
97172SOL    HW193413   2.074   2.448   4.092
97172SOL    HW293414   2.021   2.344   4.189
97173SOL     OW93415   6.408   3.688  14.515
97173SOL    HW193416   6.349   3.653  14.448
97173SOL    HW293417   6.402   3.783  14.505
97174SOL     OW93418  13.727   5.798   9.901
97174SOL    HW193419  13.708   5.792   9.994
97174SOL    HW293420  13.820   5.776   9.894
97175SOL     OW93421  14.141   2.474  11.638
97175SOL    HW193422  14.122   2.537  11.708
97175SOL    HW293423  14.064   2.418  11.634
97176SOL     OW93424   5.682   0.103  11.650
97176SOL    HW193425   5.716   0.023  11.690
97176SOL    HW293426   5.744   0.123  11.580
97177SOL     OW93427  14.400   8.364   7.419
97177SOL    HW193428  14.384   8.372   7.325
97177SOL    HW293429  14.485   8.320   7.425
97178SOL     OW93430   3.309   0.400   6.153
97178SOL    HW193431   3.365   0.372   6.081
97178SOL    HW293432   3.241   0.453   6.112
97179SOL     OW93433   0.940   3.494   9.143
97179SOL    HW193434   0.973   3.526   9.227
97179SOL    HW293435   0.985   3.411   9.130
97180SOL     OW93436   5.530  11.414  11.530
97180SOL    HW193437   5.502  11.334  11.574
97180SOL    HW293438   5.478  11.415  11.449
97181SOL     OW93439  11.731   3.618   7.880
97181SOL    HW193440  11.706   3.593   7.968
97181SOL    HW293441  11.732   3.714   7.882
97182SOL     OW93442   7.478   1.247   1.047
97182SOL    HW193443   7.572   1.227   1.049
97182SOL    HW293444   7.475   1.343   1.038
97183SOL     OW93445  12.320  13.681   2.709
97183SOL    HW193446  12.311  13.587   2.694
97183SOL    HW293447  12.414  13.698   2.699
97184SOL     OW93448   1.593  10.848  14.690
97184SOL    HW193449   1.517  10.822  14.639
97184SOL    HW293450   1.562  10.919  14.747
97185SOL     OW93451  11.795   0.477  12.935
97185SOL    HW193452  11.817   0.422  13.011
97185SOL    HW293453  11.837   0.561  12.954
97186SOL     OW93454   9.940  13.078   8.342
97186SOL    HW193455   9.928  13.170   8.364
97186SOL    HW293456   9.940  13.076   8.246
97187SOL     OW93457   4.847  10.989   4.595
97187SOL    HW193458   4.777  10.943   4.549
97187SOL    HW293459   4.874  11.059   4.535
97188SOL     OW93460   2.542  13.861   9.861
97188SOL    HW193461   2.535  13.911   9.780
97188SOL    HW293462   2.482  13.904   9.922
97189SOL     OW93463   8.197   5.856   8.151
97189SOL    HW193464   8.171   5.910   8.076
97189SOL    HW293465   8.247   5.916   8.207
97190SOL     OW93466   9.705   8.853  12.892
97190SOL    HW193467   9.677   8.765  12.863
97190SOL    HW293468   9.625   8.906  12.885
97191SOL     OW93469   4.760  11.062   1.632
97191SOL    HW193470   4.807  11.116   1.569
97191SOL    HW293471   4.672  11.098   1.634
97192SOL     OW93472   5.162  14.227   6.167
97192SOL    HW193473   5.187  14.271   6.248
97192SOL    HW293474   5.102  14.157   6.195
97193SOL     OW93475  12.453   6.169   7.206
97193SOL    HW193476  12.362   6.189   7.228
97193SOL    HW293477  12.486   6.251   7.168
97194SOL     OW93478   4.816   1.488  14.528
97194SOL    HW193479   4.795   1.580  14.546
97194SOL    HW293480   4.732   1.450  14.501
97195SOL     OW93481  14.307   8.643   1.205
97195SOL    HW193482  14.286   8.584   1.277
97195SOL    HW293483  14.266   8.726   1.229
97196SOL     OW93484  12.599  11.989   6.207
97196SOL    HW193485  12.555  11.951   6.284
97196SOL    HW293486  12.581  11.927   6.136
97197SOL     OW93487   2.159   3.895   4.405
97197SOL    HW193488   2.218   3.828   4.441
97197SOL    HW293489   2.172   3.971   4.461
97198SOL     OW93490   7.020   3.329   1.496
97198SOL    HW193491   6.928   3.315   1.471
97198SOL    HW293492   7.017   3.341   1.590
97199SOL     OW93493  13.696  11.320   1.300
97199SOL    HW193494  13.723  11.312   1.392
97199SOL    HW293495  13.759  11.381   1.262
97200SOL     OW93496   5.355   8.046   8.315
97200SOL    HW193497   5.369   8.001   8.232
97200SOL    HW293498   5.425   8.014   8.372
97201SOL     OW93499   7.322   0.709   2.051
97201SOL    HW193500   7.312   0.768   2.126
97201SOL    HW293501   7.338   0.767   1.977
97202SOL     OW93502   8.969   3.482   4.024
97202SOL    HW193503   8.956   3.486   4.119
97202SOL    HW293504   8.965   3.573   3.995
97203SOL     OW93505   1.018   8.821   0.174
97203SOL    HW193506   1.013   8.787   0.264
97203SOL    HW293507   0.934   8.798   0.135
97204SOL     OW93508   1.921   5.525   0.184
97204SOL    HW193509   1.921   5.522   0.279
97204SOL    HW293510   1.916   5.618   0.162
97205SOL     OW93511   5.349   8.103  12.156
97205SOL    HW193512   5.337   8.025  12.101
97205SOL    HW293513   5.319   8.175  12.102
97206SOL     OW93514   7.359   2.651   7.212
97206SOL    HW193515   7.328   2.740   7.197
97206SOL    HW293516   7.287   2.609   7.260
97207SOL     OW93517  13.468  13.118   7.034
97207SOL    HW193518  13.468  13.150   7.125
97207SOL    HW293519  13.559  13.125   7.007
97208SOL     OW93520   9.880   0.663  13.226
97208SOL    HW193521   9.958   0.701  13.184
97208SOL    HW293522   9.806   0.704  13.182
97209SOL     OW93523  11.335   1.107   4.278
97209SOL    HW193524  11.414   1.159   4.265
97209SOL    HW293525  11.351   1.060   4.360
97210SOL     OW93526   4.748   3.926   3.587
97210SOL    HW193527   4.772   4.018   3.591
97210SOL    HW293528   4.825   3.883   3.550
97211SOL     OW93529   7.590   1.052   8.512
97211SOL    HW193530   7.568   1.079   8.423
97211SOL    HW293531   7.569   0.959   8.516
97212SOL     OW93532   0.509   4.952  13.533
97212SOL    HW193533   0.593   4.912  13.509
97212SOL    HW293534   0.443   4.892  13.498
97213SOL     OW93535  12.054  12.865  10.047
97213SOL    HW193536  12.007  12.808   9.986
97213SOL    HW293537  12.049  12.820  10.131
97214SOL     OW93538   7.781   2.409  14.198
97214SOL    HW193539   7.851   2.467  14.168
97214SOL    HW293540   7.804   2.323  14.162
97215SOL     OW93541  14.600   5.136   4.124
97215SOL    HW193542  14.559   5.205   4.175
97215SOL    HW293543  14.639   5.180   4.049
97216SOL     OW93544  10.272  12.200   4.707
97216SOL    HW193545  10.180  12.186   4.732
97216SOL    HW293546  10.302  12.271   4.764
97217SOL     OW93547  14.790   3.405   8.557
97217SOL    HW193548  14.831   3.477   8.511
97217SOL    HW293549  14.785   3.334   8.493
97218SOL     OW93550  11.963   6.394  13.515
97218SOL    HW193551  11.977   6.330  13.445
97218SOL    HW293552  12.021   6.467  13.492
97219SOL     OW93553  11.438   3.241  12.770
97219SOL    HW193554  11.461   3.157  12.810
97219SOL    HW293555  11.397   3.217  12.687
97220SOL     OW93556  11.111   8.080   2.800
97220SOL    HW193557  11.109   8.176   2.809
97220SOL    HW293558  11.066   8.063   2.717
97221SOL     OW93559   3.750  12.838   1.347
97221SOL    HW193560   3.735  12.747   1.372
97221SOL    HW293561   3.676  12.860   1.291
97222SOL     OW93562  10.954   0.287   2.827
97222SOL    HW193563  10.940   0.368   2.876
97222SOL    HW293564  11.027   0.307   2.768
97223SOL     OW93565  14.186  14.140   5.546
97223SOL    HW193566  14.149  14.228   5.553
97223SOL    HW293567  14.120  14.083   5.586
97224SOL     OW93568  13.293   3.978   4.661
97224SOL    HW193569  13.342   3.907   4.702
97224SOL    HW293570  13.323   3.979   4.570
97225SOL     OW93571   3.112  10.056   5.293
97225SOL    HW193572   3.092  10.001   5.218
97225SOL    HW293573   3.027  10.091   5.321
97226SOL     OW93574   7.198  11.360   5.982
97226SOL    HW193575   7.115  11.408   5.977
97226SOL    HW293576   7.174  11.275   6.019
97227SOL     OW93577  14.097   1.799  13.544
97227SOL    HW193578  14.140   1.715  13.562
97227SOL    HW293579  14.167   1.855  13.511
97228SOL     OW93580   1.573   5.797  11.810
97228SOL    HW193581   1.662   5.764  11.819
97228SOL    HW293582   1.548   5.823  11.899
97229SOL     OW93583   5.511  10.013   1.083
97229SOL    HW193584   5.543   9.994   0.995
97229SOL    HW293585   5.451  10.086   1.072
97230SOL     OW93586   7.082  11.394  13.712
97230SOL    HW193587   7.065  11.486  13.695
97230SOL    HW293588   6.999  11.360  13.745
97231SOL     OW93589  13.678   6.024  11.050
97231SOL    HW193590  13.710   6.059  10.967
97231SOL    HW293591  13.656   6.101  11.102
97232SOL     OW93592   5.103  10.907  10.476
97232SOL    HW193593   5.161  10.982  10.465
97232SOL    HW293594   5.143  10.856  10.547
97233SOL     OW93595   2.914   0.137   5.375
97233SOL    HW193596   2.901   0.068   5.310
97233SOL    HW293597   2.858   0.111   5.448
97234SOL     OW93598   4.265   5.655  11.755
97234SOL    HW193599   4.328   5.727  11.764
97234SOL    HW293600   4.185   5.697  11.726
97235SOL     OW93601   3.261   2.905   7.689
97235SOL    HW193602   3.323   2.939   7.754
97235SOL    HW293603   3.210   2.840   7.736
97236SOL     OW93604   6.823   1.555   1.161
97236SOL    HW193605   6.916   1.562   1.179
97236SOL    HW293606   6.807   1.621   1.094
97237SOL     OW93607   8.889  14.401   5.259
97237SOL    HW193608   8.860  14.491   5.279
97237SOL    HW293609   8.894  14.398   5.163
97238SOL     OW93610  13.819   6.809   4.460
97238SOL    HW193611  13.779   6.724   4.474
97238SOL    HW293612  13.800   6.829   4.368
97239SOL     OW93613   0.583   9.538  14.710
97239SOL    HW193614   0.531   9.474  14.759
97239SOL    HW293615   0.666   9.494  14.694
97240SOL     OW93616   6.584   6.891   3.374
97240SOL    HW193617   6.584   6.908   3.469
97240SOL    HW293618   6.659   6.833   3.360
97241SOL     OW93619   2.315   5.316   6.674
97241SOL    HW193620   2.367   5.278   6.603
97241SOL    HW293621   2.378   5.365   6.727
97242SOL     OW93622  14.565  12.713   3.992
97242SOL    HW193623  14.566  12.649   3.922
97242SOL    HW293624  14.477  12.752   3.988
97243SOL     OW93625   9.509   8.532  14.530
97243SOL    HW193626   9.418   8.560  14.521
97243SOL    HW293627   9.542   8.525  14.441
97244SOL     OW93628   9.999   8.576  10.543
97244SOL    HW193629   9.996   8.572  10.639
97244SOL    HW293630  10.093   8.574  10.522
97245SOL     OW93631   1.077  14.568   0.229
97245SOL    HW193632   1.126  14.609   0.300
97245SOL    HW293633   1.118  14.482   0.218
97246SOL     OW93634  11.579   7.274  14.441
97246SOL    HW193635  11.549   7.345  14.498
97246SOL    HW293636  11.587   7.315  14.355
97247SOL     OW93637   3.734   4.709   3.161
97247SOL    HW193638   3.725   4.801   3.136
97247SOL    HW293639   3.743   4.663   3.078
97248SOL     OW93640   1.620   6.035   7.967
97248SOL    HW193641   1.583   6.108   7.916
97248SOL    HW293642   1.577   5.957   7.931
97249SOL     OW93643   7.347   9.040  10.027
97249SOL    HW193644   7.320   9.098   9.956
97249SOL    HW293645   7.309   9.079  10.106
97250SOL     OW93646   0.240  10.719  10.832
97250SOL    HW193647   0.213  10.666  10.757
97250SOL    HW293648   0.160  10.760  10.863
97251SOL     OW93649  11.478   8.031   9.750
97251SOL    HW193650  11.399   8.043   9.698
97251SOL    HW293651  11.514   8.120   9.759
97252SOL     OW93652   1.238   6.334   4.343
97252SOL    HW193653   1.242   6.253   4.393
97252SOL    HW293654   1.148   6.337   4.310
97253SOL     OW93655   6.461   4.487   1.446
97253SOL    HW193656   6.494   4.559   1.499
97253SOL    HW293657   6.373   4.515   1.420
97254SOL     OW93658   4.535  10.493   7.951
97254SOL    HW193659   4.480  10.426   7.910
97254SOL    HW293660   4.567  10.452   8.031
97255SOL     OW93661   6.657  12.387   7.272
97255SOL    HW193662   6.594  12.347   7.332
97255SOL    HW293663   6.732  12.327   7.272
97256SOL     OW93664   7.121   2.805   1.714
97256SOL    HW193665   7.090   2.890   1.745
97256SOL    HW293666   7.216   2.810   1.719
97257SOL     OW93667  13.566  11.816   5.109
97257SOL    HW193668  13.638  11.873   5.136
97257SOL    HW293669  13.560  11.829   5.014
97258SOL     OW93670  14.397   8.246  11.984
97258SOL    HW193671  14.370   8.335  11.962
97258SOL    HW293672  14.404   8.202  11.899
97259SOL     OW93673   9.335   4.271  13.500
97259SOL    HW193674   9.262   4.311  13.454
97259SOL    HW293675   9.312   4.277  13.593
97260SOL     OW93676  14.181  12.744  12.057
97260SOL    HW193677  14.271  12.713  12.066
97260SOL    HW293678  14.134  12.705  12.130
97261SOL     OW93679   4.741   0.149  11.166
97261SOL    HW193680   4.737   0.102  11.249
97261SOL    HW293681   4.652   0.184  11.155
97262SOL     OW93682   6.000  13.695  11.079
97262SOL    HW193683   6.090  13.662  11.075
97262SOL    HW293684   5.950  13.622  11.116
97263SOL     OW93685   3.266  12.752   1.805
97263SOL    HW193686   3.209  12.678   1.782
97263SOL    HW293687   3.209  12.828   1.804
97264SOL     OW93688   1.059  12.149  13.996
97264SOL    HW193689   1.111  12.095  14.056
97264SOL    HW293690   1.068  12.107  13.911
97265SOL     OW93691  10.640   5.398  13.685
97265SOL    HW193692  10.593   5.430  13.762
97265SOL    HW293693  10.574   5.393  13.617
97266SOL     OW93694  12.406  11.673   4.332
97266SOL    HW193695  12.485  11.724   4.315
97266SOL    HW293696  12.416  11.642   4.422
97267SOL     OW93697   7.056   3.343   8.790
97267SOL    HW193698   7.125   3.371   8.850
97267SOL    HW293699   7.103   3.301   8.718
97268SOL     OW93700  12.665   8.289   6.227
97268SOL    HW193701  12.706   8.321   6.307
97268SOL    HW293702  12.694   8.350   6.159
97269SOL     OW93703  11.911   7.539   7.804
97269SOL    HW193704  11.835   7.589   7.835
97269SOL    HW293705  11.890   7.448   7.824
97270SOL     OW93706  14.797   7.125   7.375
97270SOL    HW193707  14.823   7.201   7.323
97270SOL    HW293708  14.765   7.162   7.457
97271SOL     OW93709  10.321   4.062  13.494
97271SOL    HW193710  10.412   4.062  13.523
97271SOL    HW293711  10.319   4.000  13.420
97272SOL     OW93712   0.695   6.340  12.772
97272SOL    HW193713   0.705   6.352  12.867
97272SOL    HW293714   0.776   6.299  12.744
97273SOL     OW93715   4.816  12.849   3.021
97273SOL    HW193716   4.774  12.914   2.965
97273SOL    HW293717   4.761  12.846   3.100
97274SOL     OW93718   3.721  13.330  12.027
97274SOL    HW193719   3.657  13.297  11.964
97274SOL    HW293720   3.737  13.256  12.086
97275SOL     OW93721   8.242  11.173  12.012
97275SOL    HW193722   8.258  11.267  12.010
97275SOL    HW293723   8.329  11.134  12.020
97276SOL     OW93724  10.671   0.601  10.599
97276SOL    HW193725  10.746   0.568  10.550
97276SOL    HW293726  10.608   0.628  10.532
97277SOL     OW93727   8.725   1.455   1.053
97277SOL    HW193728   8.631   1.462   1.072
97277SOL    HW293729   8.768   1.491   1.130
97278SOL     OW93730   8.455  12.341   4.621
97278SOL    HW193731   8.451  12.272   4.687
97278SOL    HW293732   8.541  12.329   4.580
97279SOL     OW93733   1.282  11.916   0.161
97279SOL    HW193734   1.347  11.894   0.094
97279SOL    HW293735   1.300  11.854   0.232
97280SOL     OW93736   0.499  13.452  10.023
97280SOL    HW193737   0.438  13.422   9.956
97280SOL    HW293738   0.475  13.404  10.102
97281SOL     OW93739  13.222  14.875  13.772
97281SOL    HW193740  13.198  14.796  13.821
97281SOL    HW293741  13.142   0.048  13.772
97282SOL     OW93742   0.240   7.054   3.968
97282SOL    HW193743   0.312   7.032   3.909
97282SOL    HW293744   0.172   6.990   3.949
97283SOL     OW93745   6.261  13.051  10.418
97283SOL    HW193746   6.321  13.082  10.350
97283SOL    HW293747   6.294  13.091  10.498
97284SOL     OW93748   9.754   2.218  12.784
97284SOL    HW193749   9.686   2.241  12.847
97284SOL    HW293750   9.717   2.144  12.735
97285SOL     OW93751  13.313   4.594   1.107
97285SOL    HW193752  13.312   4.686   1.081
97285SOL    HW293753  13.334   4.547   1.027
97286SOL     OW93754   5.827   7.820   2.466
97286SOL    HW193755   5.743   7.810   2.510
97286SOL    HW293756   5.863   7.901   2.503
97287SOL     OW93757   9.348   8.471   2.239
97287SOL    HW193758   9.398   8.550   2.257
97287SOL    HW293759   9.307   8.487   2.153
97288SOL     OW93760   4.509  10.705   5.323
97288SOL    HW193761   4.514  10.693   5.228
97288SOL    HW293762   4.562  10.633   5.358
97289SOL     OW93763   6.099   8.509   9.691
97289SOL    HW193764   6.041   8.478   9.622
97289SOL    HW293765   6.130   8.430   9.734
97290SOL     OW93766   0.716   2.163   5.594
97290SOL    HW193767   0.754   2.100   5.655
97290SOL    HW293768   0.636   2.194   5.637
97291SOL     OW93769   0.587   1.372  13.483
97291SOL    HW193770   0.557   1.295  13.435
97291SOL    HW293771   0.624   1.338  13.564
97292SOL     OW93772   1.359  11.776   7.096
97292SOL    HW193773   1.340  11.743   7.184
97292SOL    HW293774   1.397  11.863   7.111
97293SOL     OW93775  11.666  12.712   8.228
97293SOL    HW193776  11.743  12.768   8.223
97293SOL    HW293777  11.686  12.637   8.173
97294SOL     OW93778  12.600  13.720  11.791
97294SOL    HW193779  12.646  13.804  11.781
97294SOL    HW293780  12.546  13.713  11.712
97295SOL     OW93781  14.338   8.410   6.263
97295SOL    HW193782  14.346   8.463   6.185
97295SOL    HW293783  14.259   8.442   6.307
97296SOL     OW93784  13.982   1.417   5.093
97296SOL    HW193785  14.040   1.470   5.148
97296SOL    HW293786  14.028   1.334   5.083
97297SOL     OW93787   8.910   2.474   0.444
97297SOL    HW193788   8.855   2.492   0.519
97297SOL    HW293789   8.998   2.502   0.471
97298SOL     OW93790  13.970  11.181   9.591
97298SOL    HW193791  13.987  11.188   9.686
97298SOL    HW293792  14.006  11.095   9.567
97299SOL     OW93793   1.656   9.462   3.696
97299SOL    HW193794   1.702   9.545   3.714
97299SOL    HW293795   1.727   9.398   3.686
97300SOL     OW93796   9.318   3.458   6.906
97300SOL    HW193797   9.264   3.537   6.901
97300SOL    HW293798   9.276   3.396   6.847
97301SOL     OW93799   7.254   9.713   9.589
97301SOL    HW193800   7.347   9.713   9.611
97301SOL    HW293801   7.248   9.655   9.513
97302SOL     OW93802   9.642   8.151   2.849
97302SOL    HW193803   9.571   8.183   2.905
97302SOL    HW293804   9.641   8.209   2.773
97303SOL     OW93805   4.703  13.212   1.283
97303SOL    HW193806   4.699  13.265   1.362
97303SOL    HW293807   4.623  13.160   1.284
97304SOL     OW93808  11.857  10.804   9.001
97304SOL    HW193809  11.925  10.823   9.066
97304SOL    HW293810  11.834  10.889   8.964
97305SOL     OW93811   4.872   8.938  13.494
97305SOL    HW193812   4.923   9.019  13.485
97305SOL    HW293813   4.810   8.957  13.565
97306SOL     OW93814   0.443   5.456  14.319
97306SOL    HW193815   0.519   5.406  14.348
97306SOL    HW293816   0.372   5.426  14.376
97307SOL     OW93817  14.378   0.804   1.171
97307SOL    HW193818  14.447   0.787   1.234
97307SOL    HW293819  14.351   0.718   1.141
97308SOL     OW93820   1.492   0.550   3.550
97308SOL    HW193821   1.435   0.475   3.534
97308SOL    HW293822   1.579   0.513   3.565
97309SOL     OW93823   8.872   5.892  10.642
97309SOL    HW193824   8.909   5.925  10.561
97309SOL    HW293825   8.816   5.963  10.674
97310SOL     OW93826   6.339  11.890  11.504
97310SOL    HW193827   6.255  11.937  11.498
97310SOL    HW293828   6.404  11.955  11.477
97311SOL     OW93829  13.858   9.566   6.274
97311SOL    HW193830  13.811   9.611   6.204
97311SOL    HW293831  13.791   9.517   6.321
97312SOL     OW93832   6.824   2.215   3.565
97312SOL    HW193833   6.771   2.278   3.614
97312SOL    HW293834   6.907   2.212   3.611
97313SOL     OW93835  11.619   0.948   4.653
97313SOL    HW193836  11.694   0.895   4.680
97313SOL    HW293837  11.658   1.018   4.600
97314SOL     OW93838  12.976  11.937  13.743
97314SOL    HW193839  12.884  11.916  13.730
97314SOL    HW293840  12.991  12.013  13.686
97315SOL     OW93841  13.514   2.241   7.300
97315SOL    HW193842  13.518   2.260   7.393
97315SOL    HW293843  13.533   2.147   7.294
97316SOL     OW93844  10.962   0.989  11.683
97316SOL    HW193845  10.875   0.996  11.644
97316SOL    HW293846  11.005   0.919  11.634
97317SOL     OW93847   2.489  13.751   1.375
97317SOL    HW193848   2.467  13.681   1.436
97317SOL    HW293849   2.585  13.749   1.369
97318SOL     OW93850  14.453   5.746   7.123
97318SOL    HW193851  14.443   5.720   7.214
97318SOL    HW293852  14.385   5.698   7.076
97319SOL     OW93853  12.541  10.230   7.195
97319SOL    HW193854  12.530  10.311   7.144
97319SOL    HW293855  12.500  10.162   7.141
97320SOL     OW93856   8.167  10.492   2.482
97320SOL    HW193857   8.111  10.521   2.555
97320SOL    HW293858   8.203  10.573   2.446
97321SOL     OW93859   5.334  12.645   5.431
97321SOL    HW193860   5.367  12.700   5.360
97321SOL    HW293861   5.349  12.556   5.401
97322SOL     OW93862   8.192   6.127   6.377
97322SOL    HW193863   8.208   6.033   6.371
97322SOL    HW293864   8.273   6.167   6.344
97323SOL     OW93865   8.077   6.390   1.056
97323SOL    HW193866   8.119   6.305   1.071
97323SOL    HW293867   8.147   6.453   1.065
97324SOL     OW93868  12.636   7.642   6.447
97324SOL    HW193869  12.615   7.732   6.421
97324SOL    HW293870  12.719   7.649   6.494
97325SOL     OW93871   1.888   4.762  12.050
97325SOL    HW193872   1.869   4.766  11.957
97325SOL    HW293873   1.803   4.774  12.093
97326SOL     OW93874  12.955  14.656   1.142
97326SOL    HW193875  12.882  14.594   1.154
97326SOL    HW293876  12.912  14.741   1.131
97327SOL     OW93877   3.277  10.725  14.826
97327SOL    HW193878   3.331  10.804  14.822
97327SOL    HW293879   3.188  10.758  14.836
97328SOL     OW93880  13.640  13.899   8.701
97328SOL    HW193881  13.727  13.880   8.664
97328SOL    HW293882  13.608  13.973   8.649
97329SOL     OW93883  10.358   7.095   9.340
97329SOL    HW193884  10.267   7.083   9.369
97329SOL    HW293885  10.394   7.160   9.399
97330SOL     OW93886   7.621   0.522   2.522
97330SOL    HW193887   7.621   0.449   2.461
97330SOL    HW293888   7.672   0.491   2.597
97331SOL     OW93889   9.120  12.137   5.279
97331SOL    HW193890   9.186  12.144   5.210
97331SOL    HW293891   9.071  12.058   5.257
97332SOL     OW93892  12.487   0.740   5.818
97332SOL    HW193893  12.478   0.781   5.903
97332SOL    HW293894  12.581   0.730   5.805
97333SOL     OW93895   3.416   5.517   9.386
97333SOL    HW193896   3.351   5.483   9.326
97333SOL    HW293897   3.500   5.489   9.350
97334SOL     OW93898   5.193   4.044  10.563
97334SOL    HW193899   5.233   3.975  10.617
97334SOL    HW293900   5.238   4.038  10.479
97335SOL     OW93901   4.798   7.759   9.850
97335SOL    HW193902   4.812   7.829   9.786
97335SOL    HW293903   4.886   7.737   9.880
97336SOL     OW93904  13.984  13.814   4.301
97336SOL    HW193905  14.075  13.793   4.283
97336SOL    HW293906  13.937  13.790   4.221
97337SOL     OW93907  12.754  10.557   7.977
97337SOL    HW193908  12.671  10.514   7.998
97337SOL    HW293909  12.808  10.488   7.938
97338SOL     OW93910  12.222   4.151  14.212
97338SOL    HW193911  12.181   4.195  14.287
97338SOL    HW293912  12.175   4.184  14.136
97339SOL     OW93913   5.128   2.444   0.972
97339SOL    HW193914   5.163   2.355   0.975
97339SOL    HW293915   5.196   2.498   1.011
97340SOL     OW93916   0.733  11.434   3.988
97340SOL    HW193917   0.705  11.458   4.077
97340SOL    HW293918   0.667  11.475   3.931
97341SOL     OW93919   2.834   5.100   7.978
97341SOL    HW193920   2.862   5.184   8.014
97341SOL    HW293921   2.879   5.094   7.894
97342SOL     OW93922   1.334   9.104  11.831
97342SOL    HW193923   1.412   9.108  11.886
97342SOL    HW293924   1.322   9.194  11.799
97343SOL     OW93925   3.998   1.814   4.644
97343SOL    HW193926   4.052   1.862   4.582
97343SOL    HW293927   4.008   1.861   4.727
97344SOL     OW93928   3.205   2.393   1.664
97344SOL    HW193929   3.199   2.298   1.668
97344SOL    HW293930   3.298   2.411   1.650
97345SOL     OW93931   0.794   0.885  13.005
97345SOL    HW193932   0.841   0.948  13.061
97345SOL    HW293933   0.738   0.939  12.950
97346SOL     OW93934   4.711   7.908   5.742
97346SOL    HW193935   4.768   7.907   5.819
97346SOL    HW293936   4.629   7.869   5.773
97347SOL     OW93937   3.271   0.261   6.400
97347SOL    HW193938   3.307   0.302   6.321
97347SOL    HW293939   3.293   0.169   6.391
97348SOL     OW93940  10.096   7.832   9.202
97348SOL    HW193941  10.115   7.921   9.170
97348SOL    HW293942  10.161   7.777   9.158
97349SOL     OW93943  13.039   6.579   5.161
97349SOL    HW193944  12.976   6.522   5.206
97349SOL    HW293945  13.121   6.566   5.209
97350SOL     OW93946  14.618  12.176   1.573
97350SOL    HW193947  14.701  12.137   1.548
97350SOL    HW293948  14.553  12.131   1.519
97351SOL     OW93949   7.324   6.971   9.104
97351SOL    HW193950   7.278   6.888   9.119
97351SOL    HW293951   7.402   6.947   9.053
97352SOL     OW93952   5.452   2.557   8.445
97352SOL    HW193953   5.459   2.513   8.360
97352SOL    HW293954   5.438   2.486   8.508
97353SOL     OW93955   1.901   2.471   5.916
97353SOL    HW193956   1.928   2.528   5.843
97353SOL    HW293957   1.937   2.386   5.893
97354SOL     OW93958  10.743  11.860   5.227
97354SOL    HW193959  10.699  11.903   5.300
97354SOL    HW293960  10.821  11.820   5.266
97355SOL     OW93961   5.741  11.893   3.562
97355SOL    HW193962   5.681  11.966   3.544
97355SOL    HW293963   5.824  11.935   3.585
97356SOL     OW93964  14.556   4.553   7.676
97356SOL    HW193965  14.608   4.631   7.698
97356SOL    HW293966  14.604   4.481   7.718
97357SOL     OW93967  14.331   5.862   1.218
97357SOL    HW193968  14.418   5.863   1.257
97357SOL    HW293969  14.337   5.800   1.146
97358SOL     OW93970   8.383  14.877  11.770
97358SOL    HW193971   8.435   0.057  11.716
97358SOL    HW293972   8.447  14.815  11.807
97359SOL     OW93973  10.829  12.534   1.730
97359SOL    HW193974  10.773  12.457   1.725
97359SOL    HW293975  10.774  12.606   1.699
97360SOL     OW93976   3.080   4.932   2.283
97360SOL    HW193977   3.065   4.846   2.322
97360SOL    HW293978   3.103   4.988   2.357
97361SOL     OW93979   1.845   8.535   1.539
97361SOL    HW193980   1.867   8.474   1.469
97361SOL    HW293981   1.846   8.482   1.618
97362SOL     OW93982   4.460   8.342  11.297
97362SOL    HW193983   4.441   8.409  11.231
97362SOL    HW293984   4.497   8.269  11.247
97363SOL     OW93985   3.567   1.735  12.881
97363SOL    HW193986   3.606   1.698  12.802
97363SOL    HW293987   3.498   1.794  12.849
97364SOL     OW93988   5.874   1.619   6.280
97364SOL    HW193989   5.820   1.570   6.218
97364SOL    HW293990   5.849   1.585   6.366
97365SOL     OW93991   0.526  12.295  11.283
97365SOL    HW193992   0.524  12.259  11.372
97365SOL    HW293993   0.520  12.389  11.296
97366SOL     OW93994  14.028   0.499   0.760
97366SOL    HW193995  14.110   0.452   0.776
97366SOL    HW293996  14.055   0.590   0.744
97367SOL     OW93997   0.688   2.885   3.047
97367SOL    HW193998   0.735   2.801   3.043
97367SOL    HW293999   0.706   2.927   2.964
97368SOL     OW94000   6.324  11.475   7.385
97368SOL    HW194001   6.230  11.482   7.401
97368SOL    HW294002   6.341  11.538   7.315
97369SOL     OW94003   6.664   0.702   1.340
97369SOL    HW194004   6.719   0.628   1.317
97369SOL    HW294005   6.611   0.718   1.262
97370SOL     OW94006  11.162  14.452   1.103
97370SOL    HW194007  11.089  14.513   1.114
97370SOL    HW294008  11.123  14.376   1.059
97371SOL     OW94009   0.260   4.228  14.586
97371SOL    HW194010   0.319   4.300  14.562
97371SOL    HW294011   0.177   4.271  14.604
97372SOL     OW94012   8.559  12.949  11.035
97372SOL    HW194013   8.651  12.977  11.038
97372SOL    HW294014   8.519  12.992  11.111
97373SOL     OW94015   7.493  13.118   3.241
97373SOL    HW194016   7.559  13.170   3.287
97373SOL    HW294017   7.412  13.169   3.250
97374SOL     OW94018  12.327   9.268   6.854
97374SOL    HW194019  12.297   9.179   6.837
97374SOL    HW294020  12.308   9.282   6.947
97375SOL     OW94021   8.046  11.378   5.727
97375SOL    HW194022   8.093  11.300   5.698
97375SOL    HW294023   8.082  11.448   5.672
97376SOL     OW94024   3.788   0.003  10.032
97376SOL    HW194025   3.719  14.847   9.977
97376SOL    HW294026   3.813  14.812  10.091
97377SOL     OW94027   8.749   0.687   7.562
97377SOL    HW194028   8.788   0.641   7.487
97377SOL    HW294029   8.821   0.693   7.625
97378SOL     OW94030  11.423  14.102  11.724
97378SOL    HW194031  11.349  14.096  11.783
97378SOL    HW294032  11.455  14.013  11.716
97379SOL     OW94033  14.737  13.263   6.476
97379SOL    HW194034  14.743  13.204   6.551
97379SOL    HW294035  14.734  13.205   6.400
97380SOL     OW94036  11.392  10.868   6.643
97380SOL    HW194037  11.401  10.790   6.588
97380SOL    HW294038  11.312  10.911   6.612
97381SOL     OW94039  12.690  11.756  12.974
97381SOL    HW194040  12.599  11.731  12.985
97381SOL    HW294041  12.688  11.831  12.915
97382SOL     OW94042   5.557  11.905   1.390
97382SOL    HW194043   5.509  11.962   1.450
97382SOL    HW294044   5.644  11.945   1.385
97383SOL     OW94045   8.702   5.959  10.253
97383SOL    HW194046   8.781   5.918  10.219
97383SOL    HW294047   8.630   5.915  10.207
97384SOL     OW94048   6.027  13.748   3.170
97384SOL    HW194049   6.068  13.696   3.101
97384SOL    HW294050   5.992  13.825   3.125
97385SOL     OW94051   2.482   4.190  11.092
97385SOL    HW194052   2.513   4.110  11.135
97385SOL    HW294053   2.390   4.173  11.072
97386SOL     OW94054  14.800   0.155  12.500
97386SOL    HW194055  14.804   0.086  12.566
97386SOL    HW294056  14.731   0.127  12.440
97387SOL     OW94057  13.619   3.205   4.395
97387SOL    HW194058  13.675   3.277   4.369
97387SOL    HW294059  13.571   3.239   4.471
97388SOL     OW94060   2.869   9.220   7.825
97388SOL    HW194061   2.880   9.132   7.862
97388SOL    HW294062   2.945   9.269   7.857
97389SOL     OW94063   2.098   8.571   1.227
97389SOL    HW194064   2.035   8.507   1.260
97389SOL    HW294065   2.136   8.531   1.149
97390SOL     OW94066  12.583   0.573  10.742
97390SOL    HW194067  12.651   0.630  10.779
97390SOL    HW294068  12.630   0.517  10.681
97391SOL     OW94069  10.609  10.974   1.732
97391SOL    HW194070  10.702  10.962   1.714
97391SOL    HW294071  10.577  11.029   1.661
97392SOL     OW94072   7.918  14.788   5.206
97392SOL    HW194073   7.824  14.792   5.190
97392SOL    HW294074   7.957  14.779   5.119
97393SOL     OW94075   2.864   1.552   0.496
97393SOL    HW194076   2.957   1.551   0.476
97393SOL    HW294077   2.824   1.601   0.424
97394SOL     OW94078   9.699   1.624   1.695
97394SOL    HW194079   9.691   1.643   1.789
97394SOL    HW294080   9.793   1.613   1.681
97395SOL     OW94081   4.443  12.824   9.069
97395SOL    HW194082   4.524  12.821   9.018
97395SOL    HW294083   4.378  12.782   9.013
97396SOL     OW94084   2.128   6.064  10.770
97396SOL    HW194085   2.039   6.095  10.760
97396SOL    HW294086   2.129   5.978  10.728
97397SOL     OW94087   2.089   7.187   5.648
97397SOL    HW194088   2.013   7.159   5.699
97397SOL    HW294089   2.103   7.116   5.584
97398SOL     OW94090   9.174   4.876   4.677
97398SOL    HW194091   9.128   4.830   4.747
97398SOL    HW294092   9.249   4.918   4.720
97399SOL     OW94093   5.603   9.092  11.658
97399SOL    HW194094   5.661   9.026  11.619
97399SOL    HW294095   5.516   9.071  11.624
97400SOL     OW94096   6.644  11.381   7.647
97400SOL    HW194097   6.738  11.397   7.645
97400SOL    HW294098   6.636  11.287   7.667
97401SOL     OW94099   9.041   8.606   0.716
97401SOL    HW194100   9.032   8.689   0.670
97401SOL    HW294101   9.135   8.590   0.720
97402SOL     OW94102   1.664  14.553  10.429
97402SOL    HW194103   1.628  14.593  10.350
97402SOL    HW294104   1.590  14.505  10.467
97403SOL     OW94105   8.916  10.385  11.383
97403SOL    HW194106   8.827  10.367  11.411
97403SOL    HW294107   8.971  10.344  11.450
97404SOL     OW94108   9.372   5.151   6.047
97404SOL    HW194109   9.315   5.118   5.978
97404SOL    HW294110   9.352   5.245   6.052
97405SOL     OW94111   1.013   9.874  10.215
97405SOL    HW194112   1.020   9.867  10.119
97405SOL    HW294113   1.025   9.967  10.233
97406SOL     OW94114  10.794  14.110  14.710
97406SOL    HW194115  10.810  14.026  14.751
97406SOL    HW294116  10.850  14.171  14.757
97407SOL     OW94117   7.768  13.528  13.672
97407SOL    HW194118   7.701  13.465  13.647
97407SOL    HW294119   7.720  13.610  13.684
97408SOL     OW94120   9.013   1.480   4.786
97408SOL    HW194121   9.081   1.487   4.719
97408SOL    HW294122   8.938   1.528   4.751
97409SOL     OW94123   1.408   3.780   1.360
97409SOL    HW194124   1.476   3.763   1.295
97409SOL    HW294125   1.383   3.693   1.391
97410SOL     OW94126   8.862   2.623  13.419
97410SOL    HW194127   8.881   2.536  13.457
97410SOL    HW294128   8.907   2.684  13.477
97411SOL     OW94129   7.455   6.754  13.807
97411SOL    HW194130   7.500   6.800  13.737
97411SOL    HW294131   7.442   6.665  13.774
97412SOL     OW94132   6.834  13.248   5.880
97412SOL    HW194133   6.836  13.152   5.878
97412SOL    HW294134   6.883  13.270   5.959
97413SOL     OW94135   8.184   5.505   9.389
97413SOL    HW194136   8.183   5.453   9.309
97413SOL    HW294137   8.277   5.523   9.405
97414SOL     OW94138   4.202  11.935   2.279
97414SOL    HW194139   4.135  12.002   2.288
97414SOL    HW294140   4.248  11.958   2.198
97415SOL     OW94141   6.468  13.172   9.257
97415SOL    HW194142   6.378  13.157   9.227
97415SOL    HW294143   6.484  13.264   9.238
97416SOL     OW94144   5.760  14.358   7.837
97416SOL    HW194145   5.842  14.309   7.828
97416SOL    HW294146   5.772  14.411   7.915
97417SOL     OW94147  11.952   5.063   8.075
97417SOL    HW194148  11.999   5.116   8.139
97417SOL    HW294149  11.860   5.076   8.096
97418SOL     OW94150   7.274   3.462  11.288
97418SOL    HW194151   7.180   3.481  11.281
97418SOL    HW294152   7.314   3.548  11.300
97419SOL     OW94153   3.192   1.572   2.792
97419SOL    HW194154   3.253   1.533   2.854
97419SOL    HW294155   3.229   1.553   2.706
97420SOL     OW94156   3.487  12.599   1.289
97420SOL    HW194157   3.435  12.519   1.281
97420SOL    HW294158   3.465  12.649   1.210
97421SOL     OW94159  13.300  10.848   7.620
97421SOL    HW194160  13.207  10.852   7.597
97421SOL    HW294161  13.342  10.907   7.558
97422SOL     OW94162   0.132   6.202   3.760
97422SOL    HW194163   0.122   6.183   3.666
97422SOL    HW294164   0.145   6.116   3.800
97423SOL     OW94165   6.324  12.763   8.933
97423SOL    HW194166   6.288  12.735   9.017
97423SOL    HW294167   6.294  12.697   8.870
97424SOL     OW94168  10.792   1.350   6.749
97424SOL    HW194169  10.765   1.302   6.670
97424SOL    HW294170  10.823   1.283   6.809
97425SOL     OW94171  12.241  14.433   2.880
97425SOL    HW194172  12.171  14.473   2.828
97425SOL    HW294173  12.207  14.430   2.969
97426SOL     OW94174   4.085   7.032   6.190
97426SOL    HW194175   4.060   6.958   6.135
97426SOL    HW294176   4.178   7.046   6.171
97427SOL     OW94177   7.973   2.658   3.844
97427SOL    HW194178   8.028   2.640   3.920
97427SOL    HW294179   7.965   2.754   3.843
97428SOL     OW94180   9.389   1.364   5.840
97428SOL    HW194181   9.420   1.277   5.816
97428SOL    HW294182   9.357   1.402   5.759
97429SOL     OW94183   7.306  14.628   6.850
97429SOL    HW194184   7.263  14.543   6.855
97429SOL    HW294185   7.347  14.631   6.764
97430SOL     OW94186   5.959  12.045  14.657
97430SOL    HW194187   6.031  12.019  14.600
97430SOL    HW294188   5.882  12.044  14.601
97431SOL     OW94189   6.389   2.578  10.690
97431SOL    HW194190   6.311   2.568  10.634
97431SOL    HW294191   6.433   2.493  10.683
97432SOL     OW94192   1.712   4.852   1.522
97432SOL    HW194193   1.800   4.838   1.487
97432SOL    HW294194   1.721   4.929   1.579
97433SOL     OW94195   3.306   0.364   3.929
97433SOL    HW194196   3.344   0.451   3.920
97433SOL    HW294197   3.381   0.304   3.927
97434SOL     OW94198   4.020   7.236   8.549
97434SOL    HW194199   4.078   7.163   8.570
97434SOL    HW294200   3.982   7.262   8.633
97435SOL     OW94201  10.491   3.705   6.226
97435SOL    HW194202  10.479   3.786   6.275
97435SOL    HW294203  10.409   3.691   6.180
97436SOL     OW94204  12.955   4.768   4.181
97436SOL    HW194205  12.993   4.742   4.266
97436SOL    HW294206  13.002   4.714   4.117
97437SOL     OW94207  10.322   2.336   9.802
97437SOL    HW194208  10.314   2.418   9.752
97437SOL    HW294209  10.232   2.303   9.808
97438SOL     OW94210   6.481   4.319   2.558
97438SOL    HW194211   6.546   4.387   2.575
97438SOL    HW294212   6.458   4.330   2.466
97439SOL     OW94213  12.476   2.825   3.608
97439SOL    HW194214  12.467   2.920   3.598
97439SOL    HW294215  12.471   2.791   3.519
97440SOL     OW94216   2.521  11.266  14.462
97440SOL    HW194217   2.472  11.184  14.456
97440SOL    HW294218   2.494  11.316  14.385
97441SOL     OW94219  14.826   6.418  11.778
97441SOL    HW194220  14.873   6.466  11.711
97441SOL    HW294221   0.014   6.391  11.840
97442SOL     OW94222   0.139  10.345  11.259
97442SOL    HW194223   0.045  10.335  11.273
97442SOL    HW294224   0.162  10.428  11.302
97443SOL     OW94225  10.375   1.016   5.679
97443SOL    HW194226  10.306   1.062   5.726
97443SOL    HW294227  10.412   0.956   5.744
97444SOL     OW94228  12.230   4.359   9.613
97444SOL    HW194229  12.142   4.330   9.588
97444SOL    HW294230  12.264   4.403   9.535
97445SOL     OW94231  13.748   4.978   4.172
97445SOL    HW194232  13.756   5.060   4.123
97445SOL    HW294233  13.657   4.975   4.200
97446SOL     OW94234  12.641  10.284  10.032
97446SOL    HW194235  12.570  10.296   9.968
97446SOL    HW294236  12.697  10.216   9.993
97447SOL     OW94237   9.746  11.816   3.091
97447SOL    HW194238   9.674  11.866   3.131
97447SOL    HW294239   9.825  11.863   3.118
97448SOL     OW94240   4.373  12.278   7.842
97448SOL    HW194241   4.353  12.200   7.893
97448SOL    HW294242   4.403  12.342   7.907
97449SOL     OW94243   8.865   6.654  11.555
97449SOL    HW194244   8.878   6.603  11.635
97449SOL    HW294245   8.941   6.632  11.501
97450SOL     OW94246   4.339   7.430   4.923
97450SOL    HW194247   4.350   7.335   4.916
97450SOL    HW294248   4.324   7.459   4.833
97451SOL     OW94249  11.058   5.455   0.483
97451SOL    HW194250  11.117   5.380   0.488
97451SOL    HW294251  10.975   5.418   0.451
97452SOL     OW94252   3.048  11.286  11.530
97452SOL    HW194253   2.963  11.315  11.564
97452SOL    HW294254   3.035  11.193  11.512
97453SOL     OW94255  13.630   6.261  11.240
97453SOL    HW194256  13.668   6.230  11.322
97453SOL    HW294257  13.540   6.228  11.242
97454SOL     OW94258  12.244   2.611   8.584
97454SOL    HW194259  12.205   2.638   8.667
97454SOL    HW294260  12.201   2.527   8.565
97455SOL     OW94261  11.527   4.174   1.174
97455SOL    HW194262  11.442   4.188   1.131
97455SOL    HW294263  11.507   4.116   1.247
97456SOL     OW94264   2.451  10.368   3.697
97456SOL    HW194265   2.461  10.421   3.776
97456SOL    HW294266   2.434  10.431   3.627
97457SOL     OW94267   8.486   5.983   6.196
97457SOL    HW194268   8.443   6.061   6.232
97457SOL    HW294269   8.514   6.009   6.109
97458SOL     OW94270   4.784  14.164   4.162
97458SOL    HW194271   4.754  14.179   4.252
97458SOL    HW294272   4.825  14.247   4.137
97459SOL     OW94273   2.010  13.364  10.750
97459SOL    HW194274   1.959  13.436  10.714
97459SOL    HW294275   1.984  13.287  10.699
97460SOL     OW94276   1.291   2.063   8.381
97460SOL    HW194277   1.287   2.081   8.287
97460SOL    HW294278   1.298   2.149   8.421
97461SOL     OW94279  11.583   0.259  12.957
97461SOL    HW194280  11.555   0.266  13.048
97461SOL    HW294281  11.594   0.349  12.927
97462SOL     OW94282   4.885  14.878   6.787
97462SOL    HW194283   4.925   0.010   6.701
97462SOL    HW294284   4.861   0.087   6.815
97463SOL     OW94285   4.317  12.917   3.453
97463SOL    HW194286   4.246  12.958   3.502
97463SOL    HW294287   4.354  12.853   3.513
97464SOL     OW94288  12.786   2.735   6.430
97464SOL    HW194289  12.880   2.752   6.425
97464SOL    HW294290  12.776   2.681   6.509
97465SOL     OW94291   8.994  10.025   6.509
97465SOL    HW194292   8.912  10.071   6.528
97465SOL    HW294293   9.055  10.056   6.576
97466SOL     OW94294   9.495   0.913   7.240
97466SOL    HW194295   9.573   0.946   7.197
97466SOL    HW294296   9.500   0.818   7.231
97467SOL     OW94297  12.824   6.717   3.908
97467SOL    HW194298  12.827   6.729   4.003
97467SOL    HW294299  12.913   6.690   3.885
97468SOL     OW94300   0.645   8.660  10.529
97468SOL    HW194301   0.736   8.659  10.558
97468SOL    HW294302   0.627   8.569  10.504
97469SOL     OW94303  12.741   2.140   9.641
97469SOL    HW194304  12.706   2.195   9.711
97469SOL    HW294305  12.716   2.051   9.665
97470SOL     OW94306   8.998   1.004   8.196
97470SOL    HW194307   9.043   1.088   8.199
97470SOL    HW294308   8.958   0.995   8.283
97471SOL     OW94309  11.829  12.795  12.408
97471SOL    HW194310  11.816  12.770  12.500
97471SOL    HW294311  11.748  12.840  12.383
97472SOL     OW94312   3.965   4.235   4.672
97472SOL    HW194313   3.955   4.330   4.669
97472SOL    HW294314   3.876   4.200   4.668
97473SOL     OW94315   0.673  12.201   4.258
97473SOL    HW194316   0.726  12.176   4.183
97473SOL    HW294317   0.615  12.269   4.224
97474SOL     OW94318   2.346   4.620  11.451
97474SOL    HW194319   2.344   4.554  11.520
97474SOL    HW294320   2.348   4.570  11.370
97475SOL     OW94321   9.305  10.087  14.776
97475SOL    HW194322   9.283  10.008  14.825
97475SOL    HW294323   9.376  10.128  14.825
97476SOL     OW94324   4.233  10.730  11.239
97476SOL    HW194325   4.159  10.708  11.182
97476SOL    HW294326   4.301  10.668  11.214
97477SOL     OW94327  13.102   5.231  10.785
97477SOL    HW194328  13.107   5.326  10.783
97477SOL    HW294329  13.118   5.204  10.695
97478SOL     OW94330   4.261   0.361   9.365
97478SOL    HW194331   4.181   0.367   9.417
97478SOL    HW294332   4.243   0.414   9.287
97479SOL     OW94333   3.345   0.105   0.312
97479SOL    HW194334   3.414   0.054   0.355
97479SOL    HW294335   3.310   0.161   0.381
97480SOL     OW94336  11.893   2.753   6.085
97480SOL    HW194337  11.881   2.801   6.167
97480SOL    HW294338  11.834   2.678   6.092
97481SOL     OW94339  13.528   4.927   2.434
97481SOL    HW194340  13.605   4.964   2.391
97481SOL    HW294341  13.534   4.958   2.524
97482SOL     OW94342  11.120  13.247   4.298
97482SOL    HW194343  11.067  13.168   4.301
97482SOL    HW294344  11.205  13.219   4.332
97483SOL     OW94345  10.132   4.170  13.759
97483SOL    HW194346  10.172   4.149  13.675
97483SOL    HW294347  10.143   4.090  13.811
97484SOL     OW94348   2.377   4.100   9.415
97484SOL    HW194349   2.326   4.029   9.454
97484SOL    HW294350   2.337   4.115   9.330
97485SOL     OW94351   4.016   6.738  14.659
97485SOL    HW194352   3.985   6.823  14.628
97485SOL    HW294353   4.109   6.736  14.635
97486SOL     OW94354   8.879   4.532   7.177
97486SOL    HW194355   8.785   4.548   7.174
97486SOL    HW294356   8.917   4.616   7.205
97487SOL     OW94357  10.197  12.186   6.394
97487SOL    HW194358  10.241  12.201   6.310
97487SOL    HW294359  10.153  12.101   6.384
97488SOL     OW94360  12.893  11.051   5.416
97488SOL    HW194361  12.906  11.004   5.333
97488SOL    HW294362  12.866  10.983   5.478
97489SOL     OW94363   6.314   4.838   4.327
97489SOL    HW194364   6.334   4.879   4.243
97489SOL    HW294365   6.373   4.763   4.332
97490SOL     OW94366   8.396   4.609   5.971
97490SOL    HW194367   8.457   4.595   6.043
97490SOL    HW294368   8.388   4.704   5.965
97491SOL     OW94369  13.545   9.018   5.295
97491SOL    HW194370  13.534   9.070   5.375
97491SOL    HW294371  13.627   9.050   5.257
97492SOL     OW94372  10.905   3.640   0.268
97492SOL    HW194373  10.947   3.657   0.352
97492SOL    HW294374  10.923   3.718   0.216
97493SOL     OW94375  12.835   1.564   6.598
97493SOL    HW194376  12.756   1.617   6.588
97493SOL    HW294377  12.803   1.476   6.618
97494SOL     OW94378   5.995   4.437   9.547
97494SOL    HW194379   5.917   4.472   9.503
97494SOL    HW294380   6.048   4.515   9.566
97495SOL     OW94381  10.064   0.745   0.861
97495SOL    HW194382  10.038   0.668   0.809
97495SOL    HW294383  10.085   0.812   0.796
97496SOL     OW94384   6.387   9.191   5.708
97496SOL    HW194385   6.343   9.130   5.767
97496SOL    HW294386   6.319   9.223   5.649
97497SOL     OW94387   4.629  12.495   1.098
97497SOL    HW194388   4.591  12.555   1.163
97497SOL    HW294389   4.583  12.412   1.112
97498SOL     OW94390   1.385   5.921  13.083
97498SOL    HW194391   1.448   5.966  13.140
97498SOL    HW294392   1.360   5.843  13.133
97499SOL     OW94393   9.480   3.694   7.186
97499SOL    HW194394   9.557   3.639   7.196
97499SOL    HW294395   9.514   3.783   7.178
97500SOL     OW94396   3.361   3.162   3.571
97500SOL    HW194397   3.442   3.213   3.565
97500SOL    HW294398   3.387   3.082   3.617
97501SOL     OW94399   9.084  14.634  13.309
97501SOL    HW194400   9.024  14.560  13.300
97501SOL    HW294401   9.126  14.620  13.394
97502SOL     OW94402  11.664   0.687  12.405
97502SOL    HW194403  11.688   0.699  12.314
97502SOL    HW294404  11.745   0.703  12.454
97503SOL     OW94405   0.903   3.506   8.871
97503SOL    HW194406   0.981   3.557   8.849
97503SOL    HW294407   0.896   3.512   8.966
97504SOL     OW94408  12.644  14.697  10.404
97504SOL    HW194409  12.619  14.723  10.316
97504SOL    HW294410  12.721  14.749  10.424
97505SOL     OW94411   8.218  13.659  14.490
97505SOL    HW194412   8.145  13.709  14.528
97505SOL    HW294413   8.179  13.575  14.464
97506SOL     OW94414   7.594  13.514   4.681
97506SOL    HW194415   7.575  13.595   4.729
97506SOL    HW294416   7.663  13.538   4.620
97507SOL     OW94417  14.158  10.608   4.088
97507SOL    HW194418  14.100  10.540   4.054
97507SOL    HW294419  14.103  10.687   4.092
97508SOL     OW94420   7.330  11.881  13.992
97508SOL    HW194421   7.343  11.891  13.898
97508SOL    HW294422   7.409  11.837  14.022
97509SOL     OW94423  13.712  14.627   6.783
97509SOL    HW194424  13.660  14.698   6.821
97509SOL    HW294425  13.674  14.547   6.821
97510SOL     OW94426  12.424   5.146  14.584
97510SOL    HW194427  12.476   5.227  14.575
97510SOL    HW294428  12.372   5.143  14.504
97511SOL     OW94429   4.633   9.609  12.488
97511SOL    HW194430   4.611   9.702  12.486
97511SOL    HW294431   4.562   9.567  12.439
97512SOL     OW94432  14.784  13.674  10.531
97512SOL    HW194433  14.738  13.756  10.551
97512SOL    HW294434  14.742  13.642  10.452
97513SOL     OW94435   7.824   5.697   4.413
97513SOL    HW194436   7.736   5.734   4.403
97513SOL    HW294437   7.877   5.769   4.445
97514SOL     OW94438  12.182   9.880   2.467
97514SOL    HW194439  12.232   9.802   2.491
97514SOL    HW294440  12.157   9.920   2.551
97515SOL     OW94441  13.063   3.418  10.544
97515SOL    HW194442  13.036   3.401  10.454
97515SOL    HW294443  13.152   3.453  10.536
97516SOL     OW94444   3.154  12.061   0.950
97516SOL    HW194445   3.091  12.050   0.879
97516SOL    HW294446   3.113  12.124   1.009
97517SOL     OW94447  14.860   3.510   4.179
97517SOL    HW194448   0.031   3.429   4.190
97517SOL    HW294449   0.037   3.578   4.216
97518SOL     OW94450  11.978  10.612  14.086
97518SOL    HW194451  11.976  10.706  14.104
97518SOL    HW294452  11.988  10.572  14.172
97519SOL     OW94453  10.485   0.919   6.839
97519SOL    HW194454  10.576   0.889   6.841
97519SOL    HW294455  10.442   0.861   6.776
97520SOL     OW94456   2.774   2.527   3.996
97520SOL    HW194457   2.747   2.435   3.988
97520SOL    HW294458   2.865   2.522   4.025
97521SOL     OW94459   7.444   1.317   7.083
97521SOL    HW194460   7.539   1.309   7.084
97521SOL    HW294461   7.412   1.227   7.077
97522SOL     OW94462  10.939   7.871   5.717
97522SOL    HW194463  10.885   7.837   5.788
97522SOL    HW294464  10.977   7.793   5.675
97523SOL     OW94465   3.341   0.122  12.983
97523SOL    HW194466   3.261   0.078  13.011
97523SOL    HW294467   3.401   0.113  13.057
97524SOL     OW94468   3.454   3.673   0.343
97524SOL    HW194469   3.419   3.585   0.328
97524SOL    HW294470   3.376   3.727   0.354
97525SOL     OW94471   3.352   3.104   2.387
97525SOL    HW194472   3.272   3.074   2.431
97525SOL    HW294473   3.370   3.189   2.428
97526SOL     OW94474   3.233   7.034   9.237
97526SOL    HW194475   3.300   6.981   9.282
97526SOL    HW294476   3.278   7.116   9.217
97527SOL     OW94477   5.049   0.646  14.603
97527SOL    HW194478   5.076   0.665  14.693
97527SOL    HW294479   4.960   0.679  14.598
97528SOL     OW94480   9.070   9.578   5.980
97528SOL    HW194481   9.110   9.637   6.044
97528SOL    HW294482   8.976   9.584   5.996
97529SOL     OW94483   0.330  13.296  10.174
97529SOL    HW194484   0.298  13.210  10.148
97529SOL    HW294485   0.315  13.299  10.269
97530SOL     OW94486  14.697   7.009   4.760
97530SOL    HW194487  14.742   6.931   4.793
97530SOL    HW294488  14.768   7.067   4.731
97531SOL     OW94489   5.450  13.870  11.283
97531SOL    HW194490   5.411  13.883  11.197
97531SOL    HW294491   5.391  13.808  11.326
97532SOL     OW94492   8.529   1.170   4.414
97532SOL    HW194493   8.455   1.151   4.471
97532SOL    HW294494   8.541   1.091   4.362
97533SOL     OW94495   6.004   1.959   8.104
97533SOL    HW194496   6.057   1.971   8.025
97533SOL    HW294497   5.966   2.046   8.120
97534SOL     OW94498   9.810  11.943   7.149
97534SOL    HW194499   9.895  11.899   7.141
97534SOL    HW294500   9.776  11.914   7.233
97535SOL     OW94501   9.301  14.476   5.130
97535SOL    HW194502   9.284  14.542   5.198
97535SOL    HW294503   9.232  14.491   5.065
97536SOL     OW94504   2.536   3.713  11.412
97536SOL    HW194505   2.590   3.743  11.339
97536SOL    HW294506   2.454   3.684  11.372
97537SOL     OW94507   0.318  10.795   8.633
97537SOL    HW194508   0.232  10.754   8.637
97537SOL    HW294509   0.368  10.754   8.703
97538SOL     OW94510   5.438   1.886  13.733
97538SOL    HW194511   5.350   1.921  13.721
97538SOL    HW294512   5.486   1.916  13.655
97539SOL     OW94513   7.891   9.850   1.869
97539SOL    HW194514   7.852   9.771   1.906
97539SOL    HW294515   7.817   9.900   1.835
97540SOL     OW94516   9.081  12.906  11.271
97540SOL    HW194517   9.162  12.952  11.291
97540SOL    HW294518   9.080  12.900  11.176
97541SOL     OW94519   0.472   9.736  13.182
97541SOL    HW194520   0.436   9.647  13.180
97541SOL    HW294521   0.536   9.738  13.111
97542SOL     OW94522   1.057   8.462   9.029
97542SOL    HW194523   1.025   8.374   9.006
97542SOL    HW294524   0.983   8.505   9.070
97543SOL     OW94525   8.971   9.765   4.973
97543SOL    HW194526   8.884   9.793   4.945
97543SOL    HW294527   8.982   9.806   5.059
97544SOL     OW94528  10.037  12.584  14.127
97544SOL    HW194529  10.049  12.645  14.054
97544SOL    HW294530  10.123  12.580  14.169
97545SOL     OW94531  10.215  14.674   5.169
97545SOL    HW194532  10.271  14.599   5.147
97545SOL    HW294533  10.230  14.736   5.098
97546SOL     OW94534   0.371  13.653   2.962
97546SOL    HW194535   0.378  13.672   2.869
97546SOL    HW294536   0.383  13.558   2.969
97547SOL     OW94537   6.689   7.396   5.795
97547SOL    HW194538   6.666   7.388   5.887
97547SOL    HW294539   6.683   7.307   5.760
97548SOL     OW94540   4.098   6.673   3.067
97548SOL    HW194541   4.030   6.710   3.011
97548SOL    HW294542   4.109   6.583   3.034
97549SOL     OW94543   4.017   4.502  12.201
97549SOL    HW194544   4.010   4.591  12.236
97549SOL    HW294545   4.107   4.476  12.221
97550SOL     OW94546   3.355   0.952  13.544
97550SOL    HW194547   3.421   0.974  13.611
97550SOL    HW294548   3.389   0.873  13.503
97551SOL     OW94549   7.012  12.174   0.358
97551SOL    HW194550   6.980  12.124   0.283
97551SOL    HW294551   7.009  12.112   0.431
97552SOL     OW94552  13.883  14.173   3.317
97552SOL    HW194553  13.818  14.148   3.251
97552SOL    HW294554  13.967  14.148   3.278
97553SOL     OW94555   9.106   2.421   2.821
97553SOL    HW194556   9.040   2.408   2.753
97553SOL    HW294557   9.079   2.361   2.891
97554SOL     OW94558   7.098   2.282   1.299
97554SOL    HW194559   7.106   2.248   1.209
97554SOL    HW294560   7.159   2.228   1.350
97555SOL     OW94561   2.941  14.627  10.803
97555SOL    HW194562   2.876  14.557  10.801
97555SOL    HW294563   2.890  14.708  10.804
97556SOL     OW94564   2.944   9.683   3.830
97556SOL    HW194565   2.946   9.750   3.898
97556SOL    HW294566   3.033   9.683   3.793
97557SOL     OW94567   8.004   9.943   9.162
97557SOL    HW194568   8.040   9.856   9.143
97557SOL    HW294569   8.068  10.004   9.125
97558SOL     OW94570   7.947   4.307  11.871
97558SOL    HW194571   7.919   4.229  11.822
97558SOL    HW294572   7.994   4.360  11.807
97559SOL     OW94573   6.383  12.891   0.297
97559SOL    HW194574   6.336  12.911   0.216
97559SOL    HW294575   6.387  12.975   0.344
97560SOL     OW94576   3.162  14.543   7.975
97560SOL    HW194577   3.172  14.604   8.048
97560SOL    HW294578   3.251  14.512   7.957
97561SOL     OW94579   6.308   8.545  13.306
97561SOL    HW194580   6.278   8.561  13.216
97561SOL    HW294581   6.227   8.536  13.357
97562SOL     OW94582  10.643   3.792   1.897
97562SOL    HW194583  10.685   3.718   1.853
97562SOL    HW294584  10.619   3.758   1.983
97563SOL     OW94585  13.216  13.832  10.632
97563SOL    HW194586  13.130  13.790  10.634
97563SOL    HW294587  13.226  13.869  10.719
97564SOL     OW94588  11.345   5.969  13.564
97564SOL    HW194589  11.274   5.920  13.605
97564SOL    HW294590  11.335   5.952  13.470
97565SOL     OW94591   2.712  12.318  13.951
97565SOL    HW194592   2.681  12.285  13.868
97565SOL    HW294593   2.691  12.249  14.015
97566SOL     OW94594  12.675   7.087   7.081
97566SOL    HW194595  12.726   7.027   7.027
97566SOL    HW294596  12.624   7.138   7.019
97567SOL     OW94597  13.017  13.544  11.207
97567SOL    HW194598  13.078  13.472  11.190
97567SOL    HW294599  13.068  13.624  11.192
97568SOL     OW94600   4.963   0.787   1.423
97568SOL    HW194601   4.963   0.700   1.464
97568SOL    HW294602   5.051   0.795   1.385
97569SOL     OW94603   7.291   9.403   4.487
97569SOL    HW194604   7.320   9.443   4.405
97569SOL    HW294605   7.369   9.360   4.522
97570SOL     OW94606   2.388   8.472   0.776
97570SOL    HW194607   2.356   8.456   0.688
97570SOL    HW294608   2.445   8.397   0.795
97571SOL     OW94609   5.114   2.096  12.281
97571SOL    HW194610   5.036   2.062  12.237
97571SOL    HW294611   5.095   2.188  12.299
97572SOL     OW94612   2.479   6.513   7.552
97572SOL    HW194613   2.471   6.435   7.497
97572SOL    HW294614   2.389   6.540   7.568
97573SOL     OW94615   3.617   3.153  11.742
97573SOL    HW194616   3.703   3.110  11.748
97573SOL    HW294617   3.569   3.102  11.677
97574SOL     OW94618   4.295  10.776  10.396
97574SOL    HW194619   4.285  10.871  10.390
97574SOL    HW294620   4.364  10.756  10.332
97575SOL     OW94621   9.011   9.559   3.223
97575SOL    HW194622   8.953   9.636   3.222
97575SOL    HW294623   9.018   9.533   3.131
97576SOL     OW94624   1.231   8.643   8.039
97576SOL    HW194625   1.152   8.696   8.038
97576SOL    HW294626   1.203   8.557   8.007
97577SOL     OW94627   2.579  14.533   9.937
97577SOL    HW194628   2.508  14.474   9.913
97577SOL    HW294629   2.631  14.484  10.001
97578SOL     OW94630   0.022   8.550   6.627
97578SOL    HW194631  14.827   8.561   6.686
97578SOL    HW294632   0.039   8.638   6.594
97579SOL     OW94633  11.895  12.458   9.829
97579SOL    HW194634  11.916  12.394   9.897
97579SOL    HW294635  11.868  12.536   9.877
97580SOL     OW94636   1.400   7.883   2.012
97580SOL    HW194637   1.443   7.805   2.049
97580SOL    HW294638   1.330   7.903   2.074
97581SOL     OW94639   0.790   5.951   3.580
97581SOL    HW194640   0.868   6.005   3.591
97581SOL    HW294641   0.816   5.882   3.519
97582SOL     OW94642   7.183   2.434  14.677
97582SOL    HW194643   7.173   2.405  14.586
97582SOL    HW294644   7.103   2.481  14.696
97583SOL     OW94645   8.136  11.047   4.979
97583SOL    HW194646   8.130  11.120   5.042
97583SOL    HW294647   8.092  10.975   5.024
97584SOL     OW94648   5.266   5.032  12.925
97584SOL    HW194649   5.207   5.080  12.868
97584SOL    HW294650   5.290   4.954  12.876
97585SOL     OW94651  13.111   9.271   7.178
97585SOL    HW194652  13.055   9.264   7.101
97585SOL    HW294653  13.080   9.202   7.237
97586SOL     OW94654  12.745   6.055   2.255
97586SOL    HW194655  12.759   6.128   2.314
97586SOL    HW294656  12.815   5.993   2.276
97587SOL     OW94657  13.212   0.664   5.351
97587SOL    HW194658  13.230   0.592   5.412
97587SOL    HW294659  13.264   0.643   5.274
97588SOL     OW94660   0.683   1.312  12.769
97588SOL    HW194661   0.708   1.332  12.679
97588SOL    HW294662   0.629   1.386  12.797
97589SOL     OW94663   8.433   8.597   9.035
97589SOL    HW194664   8.359   8.546   9.002
97589SOL    HW294665   8.510   8.544   9.015
97590SOL     OW94666   9.125   8.135   1.902
97590SOL    HW194667   9.122   8.161   1.993
97590SOL    HW294668   9.123   8.217   1.853
97591SOL     OW94669   1.241   1.686   1.638
97591SOL    HW194670   1.290   1.628   1.697
97591SOL    HW294671   1.223   1.632   1.561
97592SOL     OW94672  11.766   2.980   2.277
97592SOL    HW194673  11.737   2.910   2.335
97592SOL    HW294674  11.851   3.007   2.312
97593SOL     OW94675   4.424  10.827   4.032
97593SOL    HW194676   4.402  10.835   3.939
97593SOL    HW294677   4.447  10.734   4.043
97594SOL     OW94678  12.146   1.536   2.735
97594SOL    HW194679  12.227   1.492   2.710
97594SOL    HW294680  12.155   1.624   2.698
97595SOL     OW94681   4.458   4.678   5.723
97595SOL    HW194682   4.488   4.690   5.813
97595SOL    HW294683   4.382   4.735   5.716
97596SOL     OW94684   0.288  11.754  12.828
97596SOL    HW194685   0.216  11.817  12.841
97596SOL    HW294686   0.321  11.774  12.741
97597SOL     OW94687  10.881   6.126   6.901
97597SOL    HW194688  10.898   6.200   6.960
97597SOL    HW294689  10.967   6.104   6.866
97598SOL     OW94690   4.565   4.130  13.832
97598SOL    HW194691   4.653   4.122  13.869
97598SOL    HW294692   4.579   4.141  13.738
97599SOL     OW94693   1.454   3.415   5.174
97599SOL    HW194694   1.456   3.350   5.104
97599SOL    HW294695   1.528   3.391   5.231
97600SOL     OW94696   3.829  14.028   2.811
97600SOL    HW194697   3.822  13.984   2.895
97600SOL    HW294698   3.774  13.976   2.752
97601SOL     OW94699   4.757   6.346   2.913
97601SOL    HW194700   4.712   6.296   2.845
97601SOL    HW294701   4.712   6.431   2.914
97602SOL     OW94702   0.497  10.802  10.229
97602SOL    HW194703   0.430  10.739  10.204
97602SOL    HW294704   0.452  10.862  10.289
97603SOL     OW94705  10.365   2.272   7.784
97603SOL    HW194706  10.306   2.339   7.819
97603SOL    HW294707  10.351   2.196   7.840
97604SOL     OW94708  10.020  13.157   9.130
97604SOL    HW194709   9.985  13.142   9.042
97604SOL    HW294710  10.113  13.172   9.118
97605SOL     OW94711  11.920   8.261   8.657
97605SOL    HW194712  11.933   8.265   8.752
97605SOL    HW294713  11.834   8.300   8.642
97606SOL     OW94714   3.894   3.679   1.352
97606SOL    HW194715   3.857   3.767   1.358
97606SOL    HW294716   3.972   3.689   1.297
97607SOL     OW94717  13.494   2.991   1.047
97607SOL    HW194718  13.500   2.904   1.087
97607SOL    HW294719  13.414   3.028   1.084
97608SOL     OW94720   7.830   1.454  12.619
97608SOL    HW194721   7.795   1.366  12.602
97608SOL    HW294722   7.885   1.442  12.697
97609SOL     OW94723   4.352  14.701   7.016
97609SOL    HW194724   4.438  14.688   6.976
97609SOL    HW294725   4.336  14.621   7.066
97610SOL     OW94726   3.272   9.856   8.036
97610SOL    HW194727   3.267   9.780   7.978
97610SOL    HW294728   3.187   9.897   8.030
97611SOL     OW94729   0.092   1.251   2.976
97611SOL    HW194730   0.117   1.272   3.066
97611SOL    HW294731   0.055   1.332   2.941
97612SOL     OW94732   1.380   6.375   6.140
97612SOL    HW194733   1.347   6.292   6.106
97612SOL    HW294734   1.395   6.359   6.233
97613SOL     OW94735   5.963   2.468  13.387
97613SOL    HW194736   5.921   2.505  13.310
97613SOL    HW294737   5.978   2.376  13.365
97614SOL     OW94738   2.222   4.458   8.173
97614SOL    HW194739   2.166   4.451   8.250
97614SOL    HW294740   2.247   4.550   8.169
97615SOL     OW94741  10.853   2.317   1.379
97615SOL    HW194742  10.789   2.323   1.308
97615SOL    HW294743  10.854   2.403   1.419
97616SOL     OW94744  14.552   3.416  12.731
97616SOL    HW194745  14.469   3.422  12.778
97616SOL    HW294746  14.618   3.445  12.794
97617SOL     OW94747   8.366   3.971   8.168
97617SOL    HW194748   8.402   3.896   8.215
97617SOL    HW294749   8.386   4.046   8.223
97618SOL     OW94750   4.671   2.967  14.736
97618SOL    HW194751   4.662   3.011  14.820
97618SOL    HW294752   4.724   3.027  14.683
97619SOL     OW94753   1.358  12.575   7.079
97619SOL    HW194754   1.286  12.572   7.016
97619SOL    HW294755   1.428  12.620   7.032
97620SOL     OW94756   3.690   2.534   6.652
97620SOL    HW194757   3.771   2.521   6.701
97620SOL    HW294758   3.675   2.450   6.609
97621SOL     OW94759   4.442   1.418   0.876
97621SOL    HW194760   4.443   1.494   0.933
97621SOL    HW294761   4.494   1.444   0.800
97622SOL     OW94762  14.191   7.846  11.484
97622SOL    HW194763  14.170   7.939  11.489
97622SOL    HW294764  14.167   7.820  11.395
97623SOL     OW94765   5.093   2.249   4.694
97623SOL    HW194766   5.152   2.175   4.680
97623SOL    HW294767   5.138   2.324   4.656
97624SOL     OW94768   2.981  14.379   2.563
97624SOL    HW194769   2.906  14.382   2.623
97624SOL    HW294770   2.952  14.425   2.485
97625SOL     OW94771   0.110  13.458   7.835
97625SOL    HW194772   0.198  13.424   7.821
97625SOL    HW294773   0.064  13.388   7.881
97626SOL     OW94774   2.645  10.707   7.538
97626SOL    HW194775   2.693  10.765   7.479
97626SOL    HW294776   2.580  10.764   7.579
97627SOL     OW94777   2.534  10.934   5.472
97627SOL    HW194778   2.486  11.006   5.514
97627SOL    HW294779   2.601  10.977   5.419
97628SOL     OW94780  13.932   9.447   5.518
97628SOL    HW194781  13.967   9.530   5.551
97628SOL    HW294782  13.838   9.452   5.536
97629SOL     OW94783   1.861  10.469   2.902
97629SOL    HW194784   1.850  10.523   2.981
97629SOL    HW294785   1.858  10.378   2.935
97630SOL     OW94786   7.090  14.079  14.711
97630SOL    HW194787   7.154  14.034  14.656
97630SOL    HW294788   7.133  14.088  14.796
97631SOL     OW94789   1.108   1.880   6.922
97631SOL    HW194790   1.181   1.878   6.984
97631SOL    HW294791   1.033   1.849   6.972
97632SOL     OW94792  14.221   7.532  13.574
97632SOL    HW194793  14.183   7.509  13.489
97632SOL    HW294794  14.315   7.516  13.564
97633SOL     OW94795  12.225   6.680   9.934
97633SOL    HW194796  12.300   6.642   9.887
97633SOL    HW294797  12.265   6.737   9.999
97634SOL     OW94798   3.310   8.622  13.048
97634SOL    HW194799   3.249   8.691  13.075
97634SOL    HW294800   3.280   8.544  13.095
97635SOL     OW94801   0.647   0.105   4.746
97635SOL    HW194802   0.576   0.161   4.717
97635SOL    HW294803   0.661   0.130   4.838
97636SOL     OW94804  12.231   5.292   4.068
97636SOL    HW194805  12.236   5.369   4.125
97636SOL    HW294806  12.221   5.328   3.980
97637SOL     OW94807   6.179   3.386  10.827
97637SOL    HW194808   6.266   3.424  10.833
97637SOL    HW294809   6.136   3.434  10.756
97638SOL     OW94810   3.689   8.634   3.058
97638SOL    HW194811   3.629   8.692   3.010
97638SOL    HW294812   3.675   8.548   3.019
97639SOL     OW94813  10.555   5.920   5.443
97639SOL    HW194814  10.614   5.961   5.379
97639SOL    HW294815  10.487   5.986   5.458
97640SOL     OW94816   9.859   7.193   8.990
97640SOL    HW194817   9.917   7.128   8.952
97640SOL    HW294818   9.876   7.273   8.939
97641SOL     OW94819   2.529  13.226   2.744
97641SOL    HW194820   2.615  13.237   2.704
97641SOL    HW294821   2.541  13.154   2.807
97642SOL     OW94822   3.210  10.467  10.036
97642SOL    HW194823   3.270  10.537  10.059
97642SOL    HW294824   3.203  10.414  10.115
97643SOL     OW94825   1.409   1.255   8.596
97643SOL    HW194826   1.496   1.289   8.617
97643SOL    HW294827   1.427   1.169   8.556
97644SOL     OW94828   8.397   6.168   9.406
97644SOL    HW194829   8.451   6.139   9.333
97644SOL    HW294830   8.405   6.099   9.471
97645SOL     OW94831   3.306   2.034   6.913
97645SOL    HW194832   3.268   2.114   6.948
97645SOL    HW294833   3.345   2.061   6.829
97646SOL     OW94834  13.642   6.198   2.280
97646SOL    HW194835  13.702   6.128   2.253
97646SOL    HW294836  13.555   6.159   2.271
97647SOL     OW94837   0.288  10.024  14.442
97647SOL    HW194838   0.222   9.966  14.480
97647SOL    HW294839   0.371   9.980  14.460
97648SOL     OW94840   2.442   0.985   3.300
97648SOL    HW194841   2.353   1.007   3.274
97648SOL    HW294842   2.435   0.895   3.334
97649SOL     OW94843   7.730   6.354   0.399
97649SOL    HW194844   7.803   6.364   0.338
97649SOL    HW294845   7.730   6.261   0.420
97650SOL     OW94846   8.072   5.741  14.011
97650SOL    HW194847   8.050   5.766  13.922
97650SOL    HW294848   8.059   5.821  14.062
97651SOL     OW94849   3.281   3.364  11.553
97651SOL    HW194850   3.342   3.313  11.606
97651SOL    HW294851   3.240   3.299  11.496
97652SOL     OW94852  14.760   9.884  12.352
97652SOL    HW194853  14.799   9.829  12.420
97652SOL    HW294854  14.795   9.971  12.370
97653SOL     OW94855   9.046   1.196  11.093
97653SOL    HW194856   9.023   1.242  11.012
97653SOL    HW294857   9.112   1.252  11.134
97654SOL     OW94858   1.057   9.712  13.571
97654SOL    HW194859   1.050   9.702  13.476
97654SOL    HW294860   1.092   9.800  13.583
97655SOL     OW94861   0.091   5.740  10.739
97655SOL    HW194862   0.150   5.748  10.814
97655SOL    HW294863   0.003   5.746  10.777
97656SOL     OW94864  12.991   1.126  14.368
97656SOL    HW194865  12.973   1.039  14.333
97656SOL    HW294866  12.967   1.186  14.297
97657SOL     OW94867  11.275   1.311   7.033
97657SOL    HW194868  11.348   1.347   7.083
97657SOL    HW294869  11.217   1.385   7.018
97658SOL     OW94870   3.652  11.213   9.280
97658SOL    HW194871   3.575  11.220   9.224
97658SOL    HW294872   3.692  11.130   9.256
97659SOL     OW94873   3.098   6.935  13.033
97659SOL    HW194874   3.091   6.987  12.953
97659SOL    HW294875   3.172   6.973  13.080
97660SOL     OW94876  12.141  14.559   4.120
97660SOL    HW194877  12.170  14.533   4.208
97660SOL    HW294878  12.079  14.490   4.095
97661SOL     OW94879  14.720  13.421   1.735
97661SOL    HW194880  14.687  13.437   1.824
97661SOL    HW294881  14.672  13.343   1.706
97662SOL     OW94882   2.046  14.817   1.680
97662SOL    HW194883   2.051  14.729   1.642
97662SOL    HW294884   2.120  14.822   1.740
97663SOL     OW94885  10.081   6.592   5.639
97663SOL    HW194886  10.115   6.681   5.644
97663SOL    HW294887   9.993   6.597   5.678
97664SOL     OW94888   2.449  11.741   4.933
97664SOL    HW194889   2.527  11.771   4.886
97664SOL    HW294890   2.458  11.780   5.020
97665SOL     OW94891   4.381   6.359   7.013
97665SOL    HW194892   4.367   6.265   7.023
97665SOL    HW294893   4.318   6.399   7.073
97666SOL     OW94894   5.465  10.079  10.098
97666SOL    HW194895   5.531  10.147  10.084
97666SOL    HW294896   5.504   9.999  10.062
97667SOL     OW94897   1.780   4.904  13.258
97667SOL    HW194898   1.694   4.941  13.240
97667SOL    HW294899   1.794   4.842  13.186
97668SOL     OW94900   9.651   0.157  14.720
97668SOL    HW194901   9.676   0.160  14.812
97668SOL    HW294902   9.636   0.064  14.703
97669SOL     OW94903   7.589   8.534  10.023
97669SOL    HW194904   7.646   8.471  10.067
97669SOL    HW294905   7.547   8.483   9.953
97670SOL     OW94906   1.530   9.637   8.520
97670SOL    HW194907   1.531   9.570   8.589
97670SOL    HW294908   1.622   9.645   8.493
97671SOL     OW94909   0.461   6.998   1.954
97671SOL    HW194910   0.452   7.093   1.951
97671SOL    HW294911   0.394   6.969   2.016
97672SOL     OW94912   5.123   2.538   6.313
97672SOL    HW194913   5.180   2.608   6.281
97672SOL    HW294914   5.117   2.553   6.407
97673SOL     OW94915   4.749  14.635   1.275
97673SOL    HW194916   4.745  14.712   1.332
97673SOL    HW294917   4.666  14.590   1.290
97674SOL     OW94918  12.126  12.828   1.926
97674SOL    HW194919  12.141  12.763   1.995
97674SOL    HW294920  12.031  12.838   1.922
97675SOL     OW94921   8.902   4.003   9.864
97675SOL    HW194922   8.974   3.957   9.907
97675SOL    HW294923   8.863   3.937   9.806
97676SOL     OW94924   9.584  10.669   5.182
97676SOL    HW194925   9.676  10.647   5.171
97676SOL    HW294926   9.539  10.620   5.114
97677SOL     OW94927   5.355  14.663   2.020
97677SOL    HW194928   5.410  14.722   1.969
97677SOL    HW294929   5.292  14.721   2.063
97678SOL     OW94930   5.948   3.470   4.885
97678SOL    HW194931   5.858   3.483   4.855
97678SOL    HW294932   5.993   3.429   4.812
97679SOL     OW94933   5.887   7.721   1.143
97679SOL    HW194934   5.960   7.767   1.102
97679SOL    HW294935   5.825   7.704   1.072
97680SOL     OW94936   3.206   1.599   2.298
97680SOL    HW194937   3.114   1.620   2.312
97680SOL    HW294938   3.224   1.626   2.207
97681SOL     OW94939   5.421  13.343   1.612
97681SOL    HW194940   5.502  13.394   1.610
97681SOL    HW294941   5.434  13.279   1.682
97682SOL     OW94942  14.589   1.326   6.116
97682SOL    HW194943  14.579   1.238   6.152
97682SOL    HW294944  14.655   1.367   6.171
97683SOL     OW94945   0.873  14.598   9.384
97683SOL    HW194946   0.841  14.511   9.361
97683SOL    HW294947   0.932  14.621   9.312
97684SOL     OW94948   3.670   0.258   1.494
97684SOL    HW194949   3.730   0.299   1.557
97684SOL    HW294950   3.715   0.178   1.467
97685SOL     OW94951  10.250   3.583   6.244
97685SOL    HW194952  10.214   3.620   6.325
97685SOL    HW294953  10.320   3.525   6.274
97686SOL     OW94954   1.198   5.099   1.076
97686SOL    HW194955   1.166   5.177   1.032
97686SOL    HW294956   1.201   5.123   1.169
97687SOL     OW94957  13.679  14.608   3.622
97687SOL    HW194958  13.675  14.695   3.581
97687SOL    HW294959  13.700  14.549   3.550
97688SOL     OW94960   0.926  10.489  13.057
97688SOL    HW194961   0.964  10.575  13.039
97688SOL    HW294962   0.852  10.506  13.113
97689SOL     OW94963   8.637   5.319  11.588
97689SOL    HW194964   8.674   5.304  11.675
97689SOL    HW294965   8.546   5.342  11.604
97690SOL     OW94966   9.305   9.800  14.074
97690SOL    HW194967   9.365   9.870  14.047
97690SOL    HW294968   9.255   9.839  14.146
97691SOL     OW94969  12.108   2.802   4.628
97691SOL    HW194970  12.061   2.747   4.690
97691SOL    HW294971  12.197   2.767   4.628
97692SOL     OW94972   1.842   6.931  10.085
97692SOL    HW194973   1.807   6.914  10.172
97692SOL    HW294974   1.832   7.026  10.073
97693SOL     OW94975  13.070   5.849   5.673
97693SOL    HW194976  13.051   5.833   5.766
97693SOL    HW294977  13.164   5.831   5.665
97694SOL     OW94978   6.197  12.587  12.243
97694SOL    HW194979   6.202  12.630  12.328
97694SOL    HW294980   6.228  12.497  12.260
97695SOL     OW94981   8.226   1.069   2.814
97695SOL    HW194982   8.181   1.153   2.807
97695SOL    HW294983   8.245   1.059   2.907
97696SOL     OW94984   2.384   2.806   9.847
97696SOL    HW194985   2.422   2.719   9.859
97696SOL    HW294986   2.436   2.846   9.778
97697SOL     OW94987   0.007   4.007  10.410
97697SOL    HW194988   0.030   3.915  10.398
97697SOL    HW294989   0.041   4.029  10.497
97698SOL     OW94990  14.348   7.601  12.936
97698SOL    HW194991  14.357   7.688  12.974
97698SOL    HW294992  14.432   7.584  12.895
97699SOL     OW94993   8.603   8.141   1.637
97699SOL    HW194994   8.520   8.176   1.604
97699SOL    HW294995   8.583   8.051   1.663
97700SOL     OW94996  13.577   4.648  10.668
97700SOL    HW194997  13.558   4.681  10.580
97700SOL    HW294998  13.497   4.604  10.695
97701SOL     OW94999   7.748   1.872  13.789
97701SOL    HW195000   7.783   1.959  13.767
97701SOL    HW295001   7.767   1.819  13.711
97702SOL     OW95002  10.072   7.991  14.423
97702SOL    HW195003  10.018   8.059  14.382
97702SOL    HW295004  10.120   8.037  14.492
97703SOL     OW95005   4.448   9.365   8.405
97703SOL    HW195006   4.539   9.369   8.376
97703SOL    HW295007   4.402   9.319   8.335
97704SOL     OW95008   8.556   4.644   5.336
97704SOL    HW195009   8.474   4.690   5.357
97704SOL    HW295010   8.555   4.638   5.240
97705SOL     OW95011   3.855   3.862   7.497
97705SOL    HW195012   3.766   3.884   7.471
97705SOL    HW295013   3.899   3.840   7.415
97706SOL     OW95014  12.383  12.903   8.284
97706SOL    HW195015  12.429  12.856   8.214
97706SOL    HW295016  12.399  12.850   8.362
97707SOL     OW95017   4.055   9.336   5.804
97707SOL    HW195018   4.143   9.302   5.818
97707SOL    HW295019   4.069   9.419   5.757
97708SOL     OW95020  10.162   2.010   1.035
97708SOL    HW195021  10.080   1.968   1.009
97708SOL    HW295022  10.229   1.943   1.020
97709SOL     OW95023  11.472   8.503   6.356
97709SOL    HW195024  11.535   8.559   6.402
97709SOL    HW295025  11.444   8.440   6.422
97710SOL     OW95026   1.704  13.532  13.528
97710SOL    HW195027   1.690  13.462  13.592
97710SOL    HW295028   1.767  13.495  13.466
97711SOL     OW95029   1.315  14.327   8.732
97711SOL    HW195030   1.257  14.402   8.748
97711SOL    HW295031   1.296  14.302   8.642
97712SOL     OW95032  10.147   9.020   5.629
97712SOL    HW195033  10.175   9.006   5.719
97712SOL    HW295034  10.189   9.103   5.603
97713SOL     OW95035  14.716   6.949   0.088
97713SOL    HW195036  14.626   6.956   0.054
97713SOL    HW295037  14.770   6.945   0.010
97714SOL     OW95038  12.605   9.254  13.210
97714SOL    HW195039  12.651   9.215  13.136
97714SOL    HW295040  12.646   9.216  13.287
97715SOL     OW95041   6.835   4.164   7.340
97715SOL    HW195042   6.747   4.196   7.318
97715SOL    HW295043   6.858   4.108   7.265
97716SOL     OW95044   8.237   9.636   7.642
97716SOL    HW195045   8.175   9.603   7.577
97716SOL    HW295046   8.241   9.568   7.709
97717SOL     OW95047  11.389   7.110  14.339
97717SOL    HW195048  11.458   7.168  14.374
97717SOL    HW295049  11.318   7.117  14.402
97718SOL     OW95050   0.923   4.992   8.918
97718SOL    HW195051   0.968   5.049   8.855
97718SOL    HW295052   0.994   4.947   8.964
97719SOL     OW95053   4.362   8.982  12.325
97719SOL    HW195054   4.363   8.887  12.319
97719SOL    HW295055   4.356   9.012  12.234
97720SOL     OW95056   1.376  12.542   9.271
97720SOL    HW195057   1.394  12.449   9.287
97720SOL    HW295058   1.450  12.572   9.218
97721SOL     OW95059  11.826  12.865   2.379
97721SOL    HW195060  11.789  12.846   2.465
97721SOL    HW295061  11.826  12.780   2.334
97722SOL     OW95062   0.844  14.777   4.607
97722SOL    HW195063   0.890  14.761   4.525
97722SOL    HW295064   0.751  14.767   4.585
97723SOL     OW95065   4.544   1.562  12.938
97723SOL    HW195066   4.610   1.587  13.002
97723SOL    HW295067   4.503   1.645  12.912
97724SOL     OW95068   3.296  14.481   7.116
97724SOL    HW195069   3.326  14.454   7.203
97724SOL    HW295070   3.208  14.515   7.129
97725SOL     OW95071   3.724  11.121   5.753
97725SOL    HW195072   3.697  11.133   5.662
97725SOL    HW295073   3.642  11.109   5.802
97726SOL     OW95074  10.461  14.052   7.432
97726SOL    HW195075  10.486  14.099   7.512
97726SOL    HW295076  10.541  14.007   7.406
97727SOL     OW95077   8.678  13.985  12.446
97727SOL    HW195078   8.733  13.941  12.382
97727SOL    HW295079   8.688  13.934  12.527
97728SOL     OW95080   3.438  12.457   3.375
97728SOL    HW195081   3.532  12.471   3.381
97728SOL    HW295082   3.399  12.537   3.410
97729SOL     OW95083   4.216   4.589  14.541
97729SOL    HW195084   4.141   4.626  14.588
97729SOL    HW295085   4.179   4.514  14.494
97730SOL     OW95086  11.714   6.257  11.344
97730SOL    HW195087  11.696   6.175  11.390
97730SOL    HW295088  11.764   6.309  11.407
97731SOL     OW95089   4.345  13.023   1.571
97731SOL    HW195090   4.307  13.017   1.484
97731SOL    HW295091   4.271  13.015   1.631
97732SOL     OW95092  13.436   5.242   2.957
97732SOL    HW195093  13.431   5.278   2.869
97732SOL    HW295094  13.345   5.227   2.983
97733SOL     OW95095   5.181   1.222   3.661
97733SOL    HW195096   5.114   1.288   3.681
97733SOL    HW295097   5.259   1.273   3.642
97734SOL     OW95098   1.488  12.983  13.025
97734SOL    HW195099   1.457  13.066  12.989
97734SOL    HW295100   1.556  13.008  13.087
97735SOL     OW95101   1.782   5.625  13.126
97735SOL    HW195102   1.822   5.693  13.179
97735SOL    HW295103   1.842   5.613  13.052
97736SOL     OW95104   4.202   2.077   5.883
97736SOL    HW195105   4.218   2.154   5.937
97736SOL    HW295106   4.193   2.111   5.794
97737SOL     OW95107   3.213   0.353  13.572
97737SOL    HW195108   3.154   0.426  13.551
97737SOL    HW295109   3.212   0.298  13.494
97738SOL     OW95110  12.198  11.034   2.975
97738SOL    HW195111  12.107  11.062   2.962
97738SOL    HW295112  12.245  11.070   2.900
97739SOL     OW95113   5.867   4.097   0.780
97739SOL    HW195114   5.780   4.099   0.739
97739SOL    HW295115   5.875   4.007   0.813
97740SOL     OW95116  11.965   2.157  11.335
97740SOL    HW195117  11.919   2.204  11.264
97740SOL    HW295118  12.048   2.131  11.296
97741SOL     OW95119   4.618  10.887   4.473
97741SOL    HW195120   4.621  10.983   4.469
97741SOL    HW295121   4.525  10.865   4.472
97742SOL     OW95122  11.959   2.844   6.807
97742SOL    HW195123  12.009   2.802   6.877
97742SOL    HW295124  12.014   2.918   6.780
97743SOL     OW95125   4.490   3.475  11.199
97743SOL    HW195126   4.430   3.413  11.240
97743SOL    HW295127   4.437   3.554  11.186
97744SOL     OW95128   3.907  14.475   6.682
97744SOL    HW195129   3.817  14.500   6.662
97744SOL    HW295130   3.929  14.524   6.761
97745SOL     OW95131   6.964   9.126  10.108
97745SOL    HW195132   7.054   9.124  10.140
97745SOL    HW295133   6.911   9.145  10.185
97746SOL     OW95134   4.299   6.063  10.429
97746SOL    HW195135   4.317   5.993  10.491
97746SOL    HW295136   4.216   6.100  10.459
97747SOL     OW95137   6.949   9.879   6.714
97747SOL    HW195138   6.888   9.946   6.746
97747SOL    HW295139   6.953   9.893   6.620
97748SOL     OW95140  10.569   3.398   6.694
97748SOL    HW195141  10.617   3.481   6.687
97748SOL    HW295142  10.497   3.407   6.632
97749SOL     OW95143   2.356  12.781   3.599
97749SOL    HW195144   2.424  12.802   3.663
97749SOL    HW295145   2.395  12.712   3.544
97750SOL     OW95146   3.998   0.858  12.931
97750SOL    HW195147   4.079   0.890  12.891
97750SOL    HW295148   3.929   0.912  12.892
97751SOL     OW95149   3.172  13.946   3.838
97751SOL    HW195150   3.126  13.913   3.760
97751SOL    HW295151   3.119  14.020   3.867
97752SOL     OW95152   8.218  10.972   9.807
97752SOL    HW195153   8.219  11.051   9.862
97752SOL    HW295154   8.276  10.993   9.734
97753SOL     OW95155   8.775  10.774  10.469
97753SOL    HW195156   8.713  10.717  10.515
97753SOL    HW295157   8.860  10.755  10.509
97754SOL     OW95158   1.979  13.863  14.753
97754SOL    HW195159   1.984  13.932  14.687
97754SOL    HW295160   1.886  13.843  14.760
97755SOL     OW95161  10.370  12.801  14.693
97755SOL    HW195162  10.301  12.736  14.701
97755SOL    HW295163  10.374  12.820  14.599
97756SOL     OW95164   3.150  14.063   8.479
97756SOL    HW195165   3.094  14.105   8.544
97756SOL    HW295166   3.090  14.036   8.409
97757SOL     OW95167  13.082   9.597  14.079
97757SOL    HW195168  13.111   9.509  14.104
97757SOL    HW295169  13.130   9.655  14.138
97758SOL     OW95170   4.671   3.117   7.773
97758SOL    HW195171   4.711   3.072   7.847
97758SOL    HW295172   4.725   3.092   7.698
97759SOL     OW95173   6.211   4.971   0.248
97759SOL    HW195174   6.233   4.985   0.155
97759SOL    HW295175   6.294   4.987   0.294
97760SOL     OW95176  10.091   5.458   4.475
97760SOL    HW195177  10.039   5.534   4.449
97760SOL    HW295178  10.154   5.447   4.403
97761SOL     OW95179   7.773   4.177   9.582
97761SOL    HW195180   7.820   4.160   9.500
97761SOL    HW295181   7.682   4.154   9.563
97762SOL     OW95182  12.344   7.905   3.794
97762SOL    HW195183  12.330   7.834   3.732
97762SOL    HW295184  12.258   7.921   3.832
97763SOL     OW95185   9.792   6.453   8.546
97763SOL    HW195186   9.719   6.515   8.547
97763SOL    HW295187   9.867   6.503   8.514
97764SOL     OW95188   4.186  10.934   3.394
97764SOL    HW195189   4.239  10.863   3.358
97764SOL    HW295190   4.177  10.996   3.321
97765SOL     OW95191  12.546  14.572  10.922
97765SOL    HW195192  12.527  14.571  10.828
97765SOL    HW295193  12.625  14.625  10.930
97766SOL     OW95194   8.204   3.081  10.136
97766SOL    HW195195   8.190   2.992  10.168
97766SOL    HW295196   8.138   3.093  10.068
97767SOL     OW95197  12.776  13.714   3.905
97767SOL    HW195198  12.836  13.649   3.868
97767SOL    HW295199  12.829  13.794   3.912
97768SOL     OW95200   6.302  13.147  14.284
97768SOL    HW195201   6.278  13.227  14.236
97768SOL    HW295202   6.389  13.166  14.318
97769SOL     OW95203  13.258  13.089   2.147
97769SOL    HW195204  13.178  13.141   2.138
97769SOL    HW295205  13.286  13.105   2.237
97770SOL     OW95206   6.455  11.197   5.973
97770SOL    HW195207   6.515  11.233   6.039
97770SOL    HW295208   6.496  11.219   5.889
97771SOL     OW95209   4.215   5.899  10.170
97771SOL    HW195210   4.265   5.959  10.226
97771SOL    HW295211   4.266   5.893  10.090
97772SOL     OW95212  13.207   5.093   5.233
97772SOL    HW195213  13.123   5.050   5.246
97772SOL    HW295214  13.184   5.181   5.203
97773SOL     OW95215   3.229   7.507  14.771
97773SOL    HW195216   3.155   7.567  14.782
97773SOL    HW295217   3.301   7.563  14.741
97774SOL     OW95218   7.336   2.360  13.028
97774SOL    HW195219   7.403   2.324  12.971
97774SOL    HW295220   7.263   2.299  13.021
97775SOL     OW95221  11.378  10.908  12.412
97775SOL    HW195222  11.309  10.923  12.346
97775SOL    HW295223  11.344  10.949  12.491
97776SOL     OW95224   1.996   4.708  10.069
97776SOL    HW195225   1.997   4.720  10.164
97776SOL    HW295226   2.073   4.756  10.038
97777SOL     OW95227  11.558   0.185   8.466
97777SOL    HW195228  11.607   0.263   8.493
97777SOL    HW295229  11.466   0.214   8.468
97778SOL     OW95230   9.379  11.411   9.555
97778SOL    HW195231   9.329  11.488   9.581
97778SOL    HW295232   9.383  11.357   9.634
97779SOL     OW95233   5.401  12.813  11.617
97779SOL    HW195234   5.464  12.827  11.688
97779SOL    HW295235   5.440  12.857  11.542
97780SOL     OW95236   3.820   8.108   5.733
97780SOL    HW195237   3.751   8.140   5.675
97780SOL    HW295238   3.825   8.014   5.715
97781SOL     OW95239  11.765   6.410   7.677
97781SOL    HW195240  11.705   6.413   7.752
97781SOL    HW295241  11.721   6.354   7.614
97782SOL     OW95242   5.333  13.079   5.559
97782SOL    HW195243   5.422  13.070   5.594
97782SOL    HW295244   5.346  13.113   5.470
97783SOL     OW95245   5.139   3.634   6.876
97783SOL    HW195246   5.199   3.698   6.838
97783SOL    HW295247   5.152   3.555   6.825
97784SOL     OW95248  12.443   4.967  14.792
97784SOL    HW195249  12.365   4.961  14.846
97784SOL    HW295250  12.414   5.010  14.712
97785SOL     OW95251   4.071   9.507  14.647
97785SOL    HW195252   4.086   9.421  14.686
97785SOL    HW295253   4.087   9.569  14.719
97786SOL     OW95254   9.787   0.864   3.896
97786SOL    HW195255   9.849   0.903   3.959
97786SOL    HW295256   9.722   0.932   3.882
97787SOL     OW95257   6.352   8.641   8.944
97787SOL    HW195258   6.371   8.689   9.025
97787SOL    HW295259   6.291   8.697   8.897
97788SOL     OW95260   7.088   5.661  13.075
97788SOL    HW195261   7.025   5.716  13.029
97788SOL    HW295262   7.140   5.723  13.126
97789SOL     OW95263  13.210  12.561   8.639
97789SOL    HW195264  13.153  12.636   8.626
97789SOL    HW295265  13.266  12.560   8.562
97790SOL     OW95266   2.146   6.254  12.187
97790SOL    HW195267   2.214   6.212  12.240
97790SOL    HW295268   2.121   6.331  12.238
97791SOL     OW95269  11.852   4.921   2.641
97791SOL    HW195270  11.946   4.935   2.648
97791SOL    HW295271  11.839   4.830   2.668
97792SOL     OW95272  14.163   1.388   9.004
97792SOL    HW195273  14.104   1.463   8.996
97792SOL    HW295274  14.247   1.426   9.029
97793SOL     OW95275   1.025  13.035   9.148
97793SOL    HW195276   1.106  13.002   9.109
97793SOL    HW295277   1.016  13.124   9.114
97794SOL     OW95278   1.309  10.404  13.238
97794SOL    HW195279   1.308  10.363  13.151
97794SOL    HW295280   1.221  10.389  13.273
97795SOL     OW95281   1.272   4.504   2.723
97795SOL    HW195282   1.352   4.541   2.684
97795SOL    HW295283   1.296   4.414   2.744
97796SOL     OW95284   2.149   3.732   1.314
97796SOL    HW195285   2.115   3.675   1.245
97796SOL    HW295286   2.207   3.793   1.268
97797SOL     OW95287   2.849   8.857   6.956
97797SOL    HW195288   2.919   8.923   6.964
97797SOL    HW295289   2.781   8.900   6.905
97798SOL     OW95290   5.208  14.021  12.311
97798SOL    HW195291   5.254  14.083  12.368
97798SOL    HW295292   5.118  14.024  12.342
97799SOL     OW95293   0.362   9.554   8.482
97799SOL    HW195294   0.351   9.461   8.502
97799SOL    HW295295   0.449   9.575   8.516
97800SOL     OW95296   3.828   9.156  10.864
97800SOL    HW195297   3.785   9.197  10.789
97800SOL    HW295298   3.776   9.186  10.939
97801SOL     OW95299  13.182   4.784   3.192
97801SOL    HW195300  13.248   4.853   3.181
97801SOL    HW295301  13.135   4.782   3.109
97802SOL     OW95302  14.305  11.667   8.343
97802SOL    HW195303  14.345  11.585   8.316
97802SOL    HW295304  14.276  11.651   8.433
97803SOL     OW95305   8.070  13.670  10.411
97803SOL    HW195306   8.084  13.640  10.501
97803SOL    HW295307   7.976  13.684  10.405
97804SOL     OW95308   3.692   8.138   3.877
97804SOL    HW195309   3.638   8.217   3.878
97804SOL    HW295310   3.721   8.131   3.786
97805SOL     OW95311  12.484   7.774  11.244
97805SOL    HW195312  12.413   7.758  11.182
97805SOL    HW295313  12.444   7.827  11.313
97806SOL     OW95314   2.096   4.617   5.723
97806SOL    HW195315   2.007   4.650   5.714
97806SOL    HW295316   2.116   4.579   5.637
97807SOL     OW95317   2.162   4.272  11.503
97807SOL    HW195318   2.106   4.264  11.426
97807SOL    HW295319   2.113   4.328  11.563
97808SOL     OW95320   1.171   7.807   5.113
97808SOL    HW195321   1.085   7.833   5.079
97808SOL    HW295322   1.209   7.754   5.044
97809SOL     OW95323  14.570  11.375   4.986
97809SOL    HW195324  14.571  11.416   5.073
97809SOL    HW295325  14.532  11.441   4.929
97810SOL     OW95326   4.151   0.696  10.489
97810SOL    HW195327   4.117   0.640  10.558
97810SOL    HW295328   4.108   0.665  10.409
97811SOL     OW95329  10.633   4.276   2.623
97811SOL    HW195330  10.578   4.199   2.639
97811SOL    HW295331  10.616   4.334   2.697
97812SOL     OW95332  14.789   3.366  11.918
97812SOL    HW195333  14.871   3.322  11.895
97812SOL    HW295334  14.784   3.359  12.013
97813SOL     OW95335   2.376   7.230   5.472
97813SOL    HW195336   2.430   7.170   5.420
97813SOL    HW295337   2.370   7.309   5.419
97814SOL     OW95338   3.067   1.895   7.520
97814SOL    HW195339   3.001   1.908   7.451
97814SOL    HW295340   3.139   1.953   7.496
97815SOL     OW95341   1.570   4.301  14.391
97815SOL    HW195342   1.510   4.307  14.316
97815SOL    HW295343   1.561   4.211  14.421
97816SOL     OW95344  12.203  13.778   4.434
97816SOL    HW195345  12.288  13.735   4.441
97816SOL    HW295346  12.151  13.721   4.378
97817SOL     OW95347   6.635  13.886  14.306
97817SOL    HW195348   6.587  13.953  14.354
97817SOL    HW295349   6.595  13.804  14.332
97818SOL     OW95350  10.814   2.586   1.508
97818SOL    HW195351  10.787   2.561   1.596
97818SOL    HW295352  10.739   2.633   1.472
97819SOL     OW95353  10.851  13.293   1.007
97819SOL    HW195354  10.768  13.341   1.013
97819SOL    HW295355  10.916  13.352   1.046
97820SOL     OW95356   3.585   0.528  13.959
97820SOL    HW195357   3.565   0.436  13.944
97820SOL    HW295358   3.649   0.527  14.031
97821SOL     OW95359   0.083   0.484  11.225
97821SOL    HW195360   0.053   0.412  11.169
97821SOL    HW295361   0.167   0.509  11.188
97822SOL     OW95362  14.257   8.199   4.056
97822SOL    HW195363  14.274   8.290   4.077
97822SOL    HW295364  14.228   8.160   4.139
97823SOL     OW95365  12.293   8.178  10.920
97823SOL    HW195366  12.349   8.228  10.860
97823SOL    HW295367  12.331   8.090  10.919
97824SOL     OW95368   2.459  11.518   7.606
97824SOL    HW195369   2.551  11.507   7.582
97824SOL    HW295370   2.461  11.549   7.697
97825SOL     OW95371  11.701   6.823  11.880
97825SOL    HW195372  11.627   6.813  11.820
97825SOL    HW295373  11.761   6.752  11.855
97826SOL     OW95374   6.507  11.816   9.713
97826SOL    HW195375   6.572  11.780   9.653
97826SOL    HW295376   6.446  11.865   9.657
97827SOL     OW95377  13.560   6.714  12.479
97827SOL    HW195378  13.567   6.705  12.574
97827SOL    HW295379  13.493   6.650  12.454
97828SOL     OW95380   0.492   1.188   8.933
97828SOL    HW195381   0.446   1.199   8.851
97828SOL    HW295382   0.437   1.128   8.984
97829SOL     OW95383   5.485   4.504   4.523
97829SOL    HW195384   5.485   4.599   4.534
97829SOL    HW295385   5.400   4.476   4.556
97830SOL     OW95386  10.633   7.682   8.623
97830SOL    HW195387  10.630   7.594   8.585
97830SOL    HW295388  10.555   7.725   8.589
97831SOL     OW95389   3.246  11.149   8.889
97831SOL    HW195390   3.244  11.157   8.794
97831SOL    HW295391   3.279  11.060   8.905
97832SOL     OW95392  11.136   5.191  10.035
97832SOL    HW195393  11.135   5.176   9.940
97832SOL    HW295394  11.206   5.254  10.049
97833SOL     OW95395   7.638   9.554   0.405
97833SOL    HW195396   7.606   9.490   0.342
97833SOL    HW295397   7.559   9.586   0.449
97834SOL     OW95398  13.835  12.699   1.936
97834SOL    HW195399  13.872  12.637   1.873
97834SOL    HW295400  13.911  12.749   1.967
97835SOL     OW95401   8.179   0.069   3.241
97835SOL    HW195402   8.166  14.857   3.214
97835SOL    HW295403   8.206   0.063   3.333
97836SOL     OW95404  12.088   4.476  13.057
97836SOL    HW195405  12.136   4.460  13.138
97836SOL    HW295406  12.085   4.391  13.013
97837SOL     OW95407   5.769   7.877   3.107
97837SOL    HW195408   5.808   7.896   3.021
97837SOL    HW295409   5.791   7.786   3.123
97838SOL     OW95410   2.824   7.115   5.385
97838SOL    HW195411   2.848   7.145   5.298
97838SOL    HW295412   2.766   7.183   5.420
97839SOL     OW95413  14.167  14.407  10.942
97839SOL    HW195414  14.136  14.497  10.955
97839SOL    HW295415  14.148  14.388  10.851
97840SOL     OW95416   4.619   9.855   2.462
97840SOL    HW195417   4.534   9.888   2.432
97840SOL    HW295418   4.619   9.873   2.556
97841SOL     OW95419   5.058   6.677   7.224
97841SOL    HW195420   5.007   6.696   7.145
97841SOL    HW295421   5.149   6.673   7.195
97842SOL     OW95422  11.117  14.415   9.579
97842SOL    HW195423  11.145  14.456   9.661
97842SOL    HW295424  11.196  14.411   9.526
97843SOL     OW95425   4.935   4.741  13.824
97843SOL    HW195426   4.987   4.699  13.755
97843SOL    HW295427   4.913   4.827  13.788
97844SOL     OW95428   2.540   5.424  14.127
97844SOL    HW195429   2.477   5.430  14.055
97844SOL    HW295430   2.572   5.334  14.125
97845SOL     OW95431   1.764  11.126  10.837
97845SOL    HW195432   1.842  11.172  10.866
97845SOL    HW295433   1.693  11.163  10.891
97846SOL     OW95434  11.166  10.201  10.915
97846SOL    HW195435  11.198  10.250  10.839
97846SOL    HW295436  11.151  10.268  10.982
97847SOL     OW95437   8.424   3.109  14.606
97847SOL    HW195438   8.464   3.026  14.580
97847SOL    HW295439   8.496   3.171  14.610
97848SOL     OW95440   8.121   0.505  11.592
97848SOL    HW195441   8.130   0.492  11.686
97848SOL    HW295442   8.129   0.417  11.554
97849SOL     OW95443   4.907   9.656   9.146
97849SOL    HW195444   4.997   9.651   9.114
97849SOL    HW295445   4.854   9.670   9.068
97850SOL     OW95446  12.496   2.810   4.051
97850SOL    HW195447  12.549   2.730   4.040
97850SOL    HW295448  12.557   2.881   4.030
97851SOL     OW95449   8.598   2.898   0.492
97851SOL    HW195450   8.604   2.811   0.452
97851SOL    HW295451   8.510   2.928   0.471
97852SOL     OW95452   7.015   9.779   2.517
97852SOL    HW195453   6.957   9.704   2.506
97852SOL    HW295454   7.098   9.752   2.479
97853SOL     OW95455   0.754   8.126   3.904
97853SOL    HW195456   0.759   8.055   3.841
97853SOL    HW295457   0.840   8.128   3.946
97854SOL     OW95458  12.906   5.760   5.908
97854SOL    HW195459  12.840   5.706   5.953
97854SOL    HW295460  12.962   5.792   5.978
97855SOL     OW95461  10.772   9.549  10.767
97855SOL    HW195462  10.867   9.537  10.769
97855SOL    HW295463  10.754   9.581  10.678
97856SOL     OW95464   5.364   0.613   7.630
97856SOL    HW195465   5.283   0.568   7.655
97856SOL    HW295466   5.433   0.548   7.643
97857SOL     OW95467   8.825   7.832   5.265
97857SOL    HW195468   8.865   7.829   5.178
97857SOL    HW295469   8.815   7.740   5.290
97858SOL     OW95470   6.666   0.925   8.920
97858SOL    HW195471   6.715   0.991   8.872
97858SOL    HW295472   6.724   0.897   8.991
97859SOL     OW95473   0.293   7.289   6.242
97859SOL    HW195474   0.337   7.244   6.170
97859SOL    HW295475   0.205   7.308   6.210
97860SOL     OW95476  11.135   7.435  10.651
97860SOL    HW195477  11.160   7.420  10.560
97860SOL    HW295478  11.122   7.347  10.688
97861SOL     OW95479   9.225  14.695  14.846
97861SOL    HW195480   9.292  14.640   0.006
97861SOL    HW295481   9.265  14.782  14.840
97862SOL     OW95482   8.452  11.302  11.706
97862SOL    HW195483   8.531  11.266  11.745
97862SOL    HW295484   8.412  11.229  11.659
97863SOL     OW95485   2.749   1.121   7.422
97863SOL    HW195486   2.818   1.135   7.358
97863SOL    HW295487   2.753   1.197   7.480
97864SOL     OW95488   3.032  13.076  10.770
97864SOL    HW195489   2.977  13.009  10.728
97864SOL    HW295490   3.024  13.058  10.863
97865SOL     OW95491  12.172  13.607   1.093
97865SOL    HW195492  12.157  13.602   0.999
97865SOL    HW295493  12.266  13.593   1.104
97866SOL     OW95494  11.218   9.996   2.630
97866SOL    HW195495  11.313  10.003   2.641
97866SOL    HW295496  11.182  10.021   2.716
97867SOL     OW95497  13.554   3.664  14.011
97867SOL    HW195498  13.511   3.750  14.014
97867SOL    HW295499  13.483   3.602  14.025
97868SOL     OW95500   2.971   1.804   0.101
97868SOL    HW195501   2.921   1.856   0.164
97868SOL    HW295502   3.061   1.834   0.109
97869SOL     OW95503   3.566   8.524  10.461
97869SOL    HW195504   3.629   8.464  10.420
97869SOL    HW295505   3.621   8.592  10.501
97870SOL     OW95506   1.514   6.064  14.694
97870SOL    HW195507   1.442   6.121  14.721
97870SOL    HW295508   1.557   6.112  14.623
97871SOL     OW95509   6.810  10.082   2.769
97871SOL    HW195510   6.841  10.155   2.823
97871SOL    HW295511   6.716  10.081   2.782
97872SOL     OW95512  10.858   8.467   0.360
97872SOL    HW195513  10.922   8.467   0.289
97872SOL    HW295514  10.899   8.522   0.428
97873SOL     OW95515   5.822   2.478   6.383
97873SOL    HW195516   5.820   2.558   6.435
97873SOL    HW295517   5.735   2.440   6.393
97874SOL     OW95518   8.347   0.453   5.631
97874SOL    HW195519   8.372   0.450   5.539
97874SOL    HW295520   8.374   0.368   5.666
97875SOL     OW95521  13.491  12.334   7.555
97875SOL    HW195522  13.469  12.248   7.520
97875SOL    HW295523  13.423  12.392   7.521
97876SOL     OW95524   9.386   0.183   2.749
97876SOL    HW195525   9.368   0.091   2.728
97876SOL    HW295526   9.402   0.224   2.664
97877SOL     OW95527  13.574  10.348   8.918
97877SOL    HW195528  13.501  10.403   8.888
97877SOL    HW295529  13.534  10.290   8.983
97878SOL     OW95530   1.355   9.340  10.271
97878SOL    HW195531   1.281   9.370  10.218
97878SOL    HW295532   1.317   9.319  10.356
97879SOL     OW95533   9.367  14.210  13.925
97879SOL    HW195534   9.303  14.281  13.923
97879SOL    HW295535   9.320  14.136  13.964
97880SOL     OW95536   3.821  11.978   3.141
97880SOL    HW195537   3.748  11.987   3.202
97880SOL    HW295538   3.838  12.068   3.112
97881SOL     OW95539   0.416  10.616  13.915
97881SOL    HW195540   0.353  10.686  13.933
97881SOL    HW295541   0.378  10.568  13.842
97882SOL     OW95542   0.985   5.618   1.183
97882SOL    HW195543   0.984   5.613   1.278
97882SOL    HW295544   0.921   5.551   1.155
97883SOL     OW95545   1.822  14.823  13.002
97883SOL    HW195546   1.879  14.762  12.953
97883SOL    HW295547   1.883  14.876  13.053
97884SOL     OW95548   0.239   2.498   9.882
97884SOL    HW195549   0.148   2.471   9.871
97884SOL    HW295550   0.234   2.583   9.925
97885SOL     OW95551   9.121   1.968   7.337
97885SOL    HW195552   9.112   1.876   7.362
97885SOL    HW295553   9.081   1.973   7.250
97886SOL     OW95554   1.677   4.242  11.319
97886SOL    HW195555   1.720   4.165  11.356
97886SOL    HW295556   1.639   4.211  11.237
97887SOL     OW95557   7.738  10.101   3.352
97887SOL    HW195558   7.795  10.028   3.329
97887SOL    HW295559   7.771  10.131   3.437
97888SOL     OW95560   2.824   6.082  14.359
97888SOL    HW195561   2.736   6.058  14.328
97888SOL    HW295562   2.818   6.073  14.454
97889SOL     OW95563   3.566   7.475   1.059
97889SOL    HW195564   3.639   7.445   1.004
97889SOL    HW295565   3.524   7.394   1.090
97890SOL     OW95566   1.665   9.838   5.828
97890SOL    HW195567   1.630   9.918   5.789
97890SOL    HW295568   1.588   9.793   5.863
97891SOL     OW95569   0.822   0.632   2.381
97891SOL    HW195570   0.768   0.559   2.350
97891SOL    HW295571   0.760   0.695   2.417
97892SOL     OW95572   7.337   2.831   1.449
97892SOL    HW195573   7.272   2.761   1.434
97892SOL    HW295574   7.312   2.900   1.387
97893SOL     OW95575  12.181  14.546   1.198
97893SOL    HW195576  12.145  14.503   1.275
97893SOL    HW295577  12.104  14.582   1.153
97894SOL     OW95578  11.889   1.628  12.110
97894SOL    HW195579  11.927   1.598  12.028
97894SOL    HW295580  11.796   1.608  12.102
97895SOL     OW95581   3.773   4.018   8.541
97895SOL    HW195582   3.693   3.965   8.541
97895SOL    HW295583   3.844   3.955   8.526
97896SOL     OW95584   6.765   7.336  14.760
97896SOL    HW195585   6.785   7.423  14.793
97896SOL    HW295586   6.721   7.351  14.676
97897SOL     OW95587   7.703   2.830   1.348
97897SOL    HW195588   7.785   2.844   1.302
97897SOL    HW295589   7.717   2.869   1.434
97898SOL     OW95590   7.736  10.143   9.608
97898SOL    HW195591   7.697  10.227   9.582
97898SOL    HW295592   7.726  10.087   9.531
97899SOL     OW95593   9.566  10.927   8.099
97899SOL    HW195594   9.487  10.948   8.048
97899SOL    HW295595   9.623  10.883   8.036
97900SOL     OW95596   1.569  13.241   3.376
97900SOL    HW195597   1.551  13.196   3.459
97900SOL    HW295598   1.504  13.310   3.371
97901SOL     OW95599  12.951   0.150   8.858
97901SOL    HW195600  12.956   0.069   8.908
97901SOL    HW295601  12.988   0.216   8.916
97902SOL     OW95602   5.064   5.827  12.977
97902SOL    HW195603   5.159   5.828  12.977
97902SOL    HW295604   5.040   5.817  13.070
97903SOL     OW95605   6.688   4.526  12.040
97903SOL    HW195606   6.734   4.451  12.001
97903SOL    HW295607   6.640   4.489  12.114
97904SOL     OW95608   3.821   1.436   4.960
97904SOL    HW195609   3.881   1.446   4.887
97904SOL    HW295610   3.784   1.348   4.949
97905SOL     OW95611   2.824   0.032   0.336
97905SOL    HW195612   2.823  14.826   0.380
97905SOL    HW295613   2.874   0.017   0.256
97906SOL     OW95614   6.658   6.537   8.787
97906SOL    HW195615   6.666   6.522   8.693
97906SOL    HW295616   6.569   6.508   8.808
97907SOL     OW95617  10.005   6.840   4.263
97907SOL    HW195618   9.979   6.815   4.174
97907SOL    HW295619  10.093   6.876   4.253
97908SOL     OW95620   3.925  13.340   3.623
97908SOL    HW195621   3.863  13.373   3.689
97908SOL    HW295622   3.996  13.405   3.624
97909SOL     OW95623  12.543   9.427   9.000
97909SOL    HW195624  12.509   9.514   9.021
97909SOL    HW295625  12.631   9.426   9.039
97910SOL     OW95626   9.784   4.645   6.719
97910SOL    HW195627   9.824   4.732   6.720
97910SOL    HW295628   9.716   4.650   6.653
97911SOL     OW95629   9.822   5.535   4.586
97911SOL    HW195630   9.768   5.463   4.620
97911SOL    HW295631   9.890   5.547   4.652
97912SOL     OW95632   5.466   1.684   3.931
97912SOL    HW195633   5.536   1.748   3.929
97912SOL    HW295634   5.507   1.603   3.901
97913SOL     OW95635  13.665   9.721  11.226
97913SOL    HW195636  13.603   9.785  11.192
97913SOL    HW295637  13.672   9.742  11.319
97914SOL     OW95638  12.642   9.314  11.900
97914SOL    HW195639  12.706   9.369  11.946
97914SOL    HW295640  12.660   9.329  11.807
97915SOL     OW95641   6.561   8.831   0.126
97915SOL    HW195642   6.544   8.922   0.150
97915SOL    HW295643   6.479   8.785   0.145
97916SOL     OW95644  11.311   1.989   8.338
97916SOL    HW195645  11.376   1.973   8.270
97916SOL    HW295646  11.275   2.075   8.318
97917SOL     OW95647   4.007  13.495   0.431
97917SOL    HW195648   4.026  13.403   0.448
97917SOL    HW295649   4.039  13.510   0.342
97918SOL     OW95650  13.296   1.124   8.212
97918SOL    HW195651  13.316   1.044   8.261
97918SOL    HW295652  13.379   1.169   8.204
97919SOL     OW95653   3.887   7.134  12.499
97919SOL    HW195654   3.958   7.151  12.561
97919SOL    HW295655   3.876   7.039  12.501
97920SOL     OW95656   9.648   5.681  13.643
97920SOL    HW195657   9.623   5.731  13.565
97920SOL    HW295658   9.671   5.748  13.708
97921SOL     OW95659  12.752   5.721  13.831
97921SOL    HW195660  12.734   5.678  13.915
97921SOL    HW295661  12.754   5.649  13.767
97922SOL     OW95662   3.493  13.377   1.057
97922SOL    HW195663   3.556  13.317   1.015
97922SOL    HW295664   3.535  13.463   1.052
97923SOL     OW95665  14.636   1.263   8.522
97923SOL    HW195666  14.665   1.233   8.436
97923SOL    HW295667  14.592   1.347   8.504
97924SOL     OW95668  13.618  12.562   9.369
97924SOL    HW195669  13.688  12.628   9.365
97924SOL    HW295670  13.540  12.612   9.394
97925SOL     OW95671   1.445  11.860   2.339
97925SOL    HW195672   1.421  11.935   2.393
97925SOL    HW295673   1.510  11.894   2.278
97926SOL     OW95674   3.059   0.064  11.207
97926SOL    HW195675   3.050  14.865  11.260
97926SOL    HW295676   3.120   0.119  11.255
97927SOL     OW95677  10.172  14.577  10.236
97927SOL    HW195678  10.084  14.614  10.246
97927SOL    HW295679  10.229  14.638  10.284
97928SOL     OW95680  13.906   8.597  11.209
97928SOL    HW195681  13.865   8.521  11.167
97928SOL    HW295682  13.844   8.668  11.196
97929SOL     OW95683   2.136  14.178  12.228
97929SOL    HW195684   2.174  14.148  12.146
97929SOL    HW295685   2.056  14.224  12.202
97930SOL     OW95686  13.785   1.459   8.498
97930SOL    HW195687  13.843   1.490   8.567
97930SOL    HW295688  13.835   1.391   8.453
97931SOL     OW95689   4.548   4.703   9.548
97931SOL    HW195690   4.484   4.747   9.604
97931SOL    HW295691   4.630   4.748   9.567
97932SOL     OW95692   5.804   0.472  11.966
97932SOL    HW195693   5.750   0.393  11.954
97932SOL    HW295694   5.880   0.457  11.909
97933SOL     OW95695   2.799  10.835  10.567
97933SOL    HW195696   2.777  10.820  10.476
97933SOL    HW295697   2.717  10.865  10.607
97934SOL     OW95698  14.448   4.426  11.529
97934SOL    HW195699  14.494   4.344  11.515
97934SOL    HW295700  14.376   4.426  11.467
97935SOL     OW95701  12.785  10.152   9.175
97935SOL    HW195702  12.770  10.246   9.177
97935SOL    HW295703  12.836  10.136   9.096
97936SOL     OW95704   2.782  12.054   6.507
97936SOL    HW195705   2.803  11.998   6.433
97936SOL    HW295706   2.839  12.024   6.578
97937SOL     OW95707   5.747   9.576   8.543
97937SOL    HW195708   5.729   9.639   8.474
97937SOL    HW295709   5.799   9.624   8.607
97938SOL     OW95710  14.159   4.597  11.718
97938SOL    HW195711  14.199   4.662  11.775
97938SOL    HW295712  14.148   4.641  11.634
97939SOL     OW95713  11.173  11.350  11.226
97939SOL    HW195714  11.131  11.302  11.297
97939SOL    HW295715  11.124  11.326  11.148
97940SOL     OW95716  12.937   2.677  13.171
97940SOL    HW195717  12.877   2.633  13.231
97940SOL    HW295718  12.965   2.755  13.218
97941SOL     OW95719   0.103   2.529   3.511
97941SOL    HW195720   0.037   2.481   3.561
97941SOL    HW295721   0.061   2.611   3.488
97942SOL     OW95722  11.910   9.035   7.626
97942SOL    HW195723  11.818   9.009   7.626
97942SOL    HW295724  11.909   9.123   7.588
97943SOL     OW95725  10.681  12.741   1.661
97943SOL    HW195726  10.634  12.821   1.683
97943SOL    HW295727  10.632  12.705   1.586
97944SOL     OW95728   1.216  11.130  11.855
97944SOL    HW195729   1.136  11.092  11.818
97944SOL    HW295730   1.281  11.122  11.785
97945SOL     OW95731   2.832  10.030   1.901
97945SOL    HW195732   2.846  10.095   1.970
97945SOL    HW295733   2.811   9.949   1.948
97946SOL     OW95734  11.482   4.043   9.148
97946SOL    HW195735  11.467   4.132   9.116
97946SOL    HW295736  11.543   4.004   9.085
97947SOL     OW95737  11.146  12.620   9.393
97947SOL    HW195738  11.188  12.534   9.398
97947SOL    HW295739  11.062  12.608   9.438
97948SOL     OW95740  13.792   7.561   3.059
97948SOL    HW195741  13.784   7.638   3.116
97948SOL    HW295742  13.844   7.499   3.110
97949SOL     OW95743   6.382   4.055   8.512
97949SOL    HW195744   6.415   4.052   8.422
97949SOL    HW295745   6.420   4.136   8.548
97950SOL     OW95746  12.954   0.791   8.646
97950SOL    HW195747  12.994   0.862   8.695
97950SOL    HW295748  12.939   0.826   8.559
97951SOL     OW95749  12.359  10.893   4.756
97951SOL    HW195750  12.282  10.871   4.808
97951SOL    HW295751  12.363  10.989   4.760
97952SOL     OW95752  14.389   1.186  11.889
97952SOL    HW195753  14.480   1.216  11.892
97952SOL    HW295754  14.344   1.239  11.956
97953SOL     OW95755   2.445   8.737   9.404
97953SOL    HW195756   2.350   8.744   9.414
97953SOL    HW295757   2.474   8.827   9.392
97954SOL     OW95758  11.326   6.007  14.188
97954SOL    HW195759  11.270   6.077  14.154
97954SOL    HW295760  11.277   5.927  14.172
97955SOL     OW95761   4.368   1.383   0.485
97955SOL    HW195762   4.349   1.474   0.508
97955SOL    HW295763   4.350   1.334   0.565
97956SOL     OW95764   8.228   9.718   0.160
97956SOL    HW195765   8.221   9.691   0.068
97956SOL    HW295766   8.140   9.748   0.183
97957SOL     OW95767  10.634   3.007  11.290
97957SOL    HW195768  10.720   2.967  11.277
97957SOL    HW295769  10.646   3.098  11.264
97958SOL     OW95770  10.676  12.549  14.237
97958SOL    HW195771  10.747  12.492  14.207
97958SOL    HW295772  10.687  12.630  14.188
97959SOL     OW95773   5.445   4.097  14.657
97959SOL    HW195774   5.394   4.167  14.615
97959SOL    HW295775   5.510   4.072  14.591
97960SOL     OW95776   0.784   2.870   4.699
97960SOL    HW195777   0.834   2.927   4.757
97960SOL    HW295778   0.823   2.784   4.711
97961SOL     OW95779  14.001  12.855   8.878
97961SOL    HW195780  14.053  12.774   8.877
97961SOL    HW295781  14.035  12.904   8.952
97962SOL     OW95782  12.219  10.023  11.779
97962SOL    HW195783  12.212   9.938  11.821
97962SOL    HW295784  12.146  10.026  11.717
97963SOL     OW95785   9.100   9.730   8.565
97963SOL    HW195786   9.181   9.758   8.522
97963SOL    HW295787   9.051   9.684   8.497
97964SOL     OW95788  10.651  13.565   6.114
97964SOL    HW195789  10.589  13.509   6.162
97964SOL    HW295790  10.595  13.630   6.071
97965SOL     OW95791   7.522   0.411   5.593
97965SOL    HW195792   7.609   0.449   5.585
97965SOL    HW295793   7.532   0.323   5.555
97966SOL     OW95794   0.783   6.228  12.368
97966SOL    HW195795   0.752   6.307  12.414
97966SOL    HW295796   0.795   6.256  12.277
97967SOL     OW95797  12.327  10.027   4.160
97967SOL    HW195798  12.261   9.987   4.103
97967SOL    HW295799  12.298  10.007   4.248
97968SOL     OW95800   4.535   3.539   9.194
97968SOL    HW195801   4.459   3.590   9.221
97968SOL    HW295802   4.498   3.456   9.161
97969SOL     OW95803   3.338   0.261   1.227
97969SOL    HW195804   3.337   0.250   1.322
97969SOL    HW295805   3.297   0.181   1.194
97970SOL     OW95806   8.118   4.826  11.290
97970SOL    HW195807   8.049   4.807  11.227
97970SOL    HW295808   8.143   4.740  11.323
97971SOL     OW95809   2.230   1.782   8.943
97971SOL    HW195810   2.228   1.789   9.038
97971SOL    HW295811   2.138   1.775   8.917
97972SOL     OW95812   8.424  10.774   1.999
97972SOL    HW195813   8.445  10.726   1.919
97972SOL    HW295814   8.504  10.821   2.020
97973SOL     OW95815   3.612   6.288  14.050
97973SOL    HW195816   3.675   6.358  14.034
97973SOL    HW295817   3.641   6.216  13.994
97974SOL     OW95818   4.317   6.208   3.836
97974SOL    HW195819   4.409   6.228   3.857
97974SOL    HW295820   4.310   6.113   3.849
97975SOL     OW95821  13.822  10.151   7.493
97975SOL    HW195822  13.884  10.091   7.534
97975SOL    HW295823  13.785  10.201   7.566
97976SOL     OW95824   9.487   1.278  12.910
97976SOL    HW195825   9.471   1.189  12.880
97976SOL    HW295826   9.492   1.330  12.829
97977SOL     OW95827   7.260   3.788  13.201
97977SOL    HW195828   7.306   3.732  13.139
97977SOL    HW295829   7.262   3.875  13.161
97978SOL     OW95830   9.583   3.657  13.711
97978SOL    HW195831   9.611   3.566  13.702
97978SOL    HW295832   9.654   3.708  13.672
97979SOL     OW95833   2.641   1.911   0.742
97979SOL    HW195834   2.589   1.848   0.691
97979SOL    HW295835   2.732   1.891   0.720
97980SOL     OW95836   5.316   7.284   4.640
97980SOL    HW195837   5.327   7.336   4.720
97980SOL    HW295838   5.360   7.201   4.659
97981SOL     OW95839   6.354   6.688   9.104
97981SOL    HW195840   6.284   6.741   9.142
97981SOL    HW295841   6.433   6.742   9.113
97982SOL     OW95842   8.945   8.346   2.332
97982SOL    HW195843   8.875   8.285   2.357
97982SOL    HW295844   8.987   8.304   2.258
97983SOL     OW95845   2.141   7.831   1.645
97983SOL    HW195846   2.126   7.861   1.555
97983SOL    HW295847   2.192   7.750   1.635
97984SOL     OW95848   9.904  10.669   0.021
97984SOL    HW195849   9.999  10.676   0.015
97984SOL    HW295850   9.887  10.663   0.115
97985SOL     OW95851  11.742   5.820  14.727
97985SOL    HW195852  11.674   5.763  14.691
97985SOL    HW295853  11.707   5.908  14.716
97986SOL     OW95854   2.339   3.478   8.618
97986SOL    HW195855   2.327   3.537   8.693
97986SOL    HW295856   2.434   3.468   8.611
97987SOL     OW95857   3.971   6.962  11.727
97987SOL    HW195858   3.988   7.050  11.759
97987SOL    HW295859   4.040   6.909  11.764
97988SOL     OW95860   3.498  12.668  10.884
97988SOL    HW195861   3.477  12.655  10.791
97988SOL    HW295862   3.537  12.585  10.912
97989SOL     OW95863   1.973   6.734   8.213
97989SOL    HW195864   1.923   6.697   8.141
97989SOL    HW295865   2.012   6.813   8.177
97990SOL     OW95866  12.302  13.980  11.944
97990SOL    HW195867  12.395  14.002  11.956
97990SOL    HW295868  12.255  14.055  11.981
97991SOL     OW95869   9.510  11.078  10.910
97991SOL    HW195870   9.459  11.121  10.841
97991SOL    HW295871   9.526  11.148  10.974
97992SOL     OW95872  12.732  10.780   8.145
97992SOL    HW195873  12.739  10.706   8.085
97992SOL    HW295874  12.638  10.787   8.163
97993SOL     OW95875   7.066   1.603   0.937
97993SOL    HW195876   7.105   1.528   0.893
97993SOL    HW295877   7.091   1.593   1.029
97994SOL     OW95878   0.076  12.753  10.657
97994SOL    HW195879  14.863  12.752  10.682
97994SOL    HW295880   0.101  12.660  10.652
97995SOL     OW95881   0.831   4.346   4.758
97995SOL    HW195882   0.805   4.336   4.849
97995SOL    HW295883   0.894   4.275   4.744
97996SOL     OW95884   9.227  14.543   9.737
97996SOL    HW195885   9.200  14.635   9.740
97996SOL    HW295886   9.145  14.494   9.747
97997SOL     OW95887   3.961   8.218   1.420
97997SOL    HW195888   3.933   8.151   1.357
97997SOL    HW295889   3.881   8.240   1.468
97998SOL     OW95890   2.540   1.124   5.105
97998SOL    HW195891   2.496   1.111   5.189
97998SOL    HW295892   2.632   1.141   5.129
97999SOL     OW95893   3.496  11.330  14.607
97999SOL    HW195894   3.521  11.239  14.624
97999SOL    HW295895   3.418  11.344  14.661
98000SOL     OW95896   7.436   0.121   7.330
98000SOL    HW195897   7.508   0.181   7.310
98000SOL    HW295898   7.439   0.111   7.425
98001SOL     OW95899  12.152   2.530  11.786
98001SOL    HW195900  12.112   2.563  11.867
98001SOL    HW295901  12.246   2.534  11.803
98002SOL     OW95902  10.318  10.861   9.165
98002SOL    HW195903  10.343  10.861   9.257
98002SOL    HW295904  10.228  10.830   9.163
98003SOL     OW95905   3.981   2.991  12.402
98003SOL    HW195906   4.038   3.035  12.340
98003SOL    HW295907   4.024   3.003  12.487
98004SOL     OW95908   0.494   4.752   0.860
98004SOL    HW195909   0.537   4.675   0.823
98004SOL    HW295910   0.566   4.809   0.887
98005SOL     OW95911   2.653   6.100   8.524
98005SOL    HW195912   2.618   6.118   8.612
98005SOL    HW295913   2.734   6.052   8.539
98006SOL     OW95914   1.851   4.148   1.002
98006SOL    HW195915   1.885   4.136   0.913
98006SOL    HW295916   1.915   4.104   1.058
98007SOL     OW95917  12.082  13.926   5.466
98007SOL    HW195918  12.108  13.965   5.383
98007SOL    HW295919  12.020  13.857   5.442
98008SOL     OW95920  12.994  12.995   9.584
98008SOL    HW195921  13.032  13.000   9.496
98008SOL    HW295922  13.036  12.919   9.623
98009SOL     OW95923  14.271   6.682  13.033
98009SOL    HW195924  14.344   6.744  13.043
98009SOL    HW295925  14.192   6.737  13.037
98010SOL     OW95926   1.670   2.407   2.413
98010SOL    HW195927   1.576   2.405   2.430
98010SOL    HW295928   1.682   2.477   2.349
98011SOL     OW95929  12.937   8.753  12.951
98011SOL    HW195930  12.890   8.781  12.872
98011SOL    HW295931  12.870   8.712  13.005
98012SOL     OW95932  10.752   8.222   8.077
98012SOL    HW195933  10.698   8.259   8.147
98012SOL    HW295934  10.758   8.129   8.097
98013SOL     OW95935   5.274   4.341  10.208
98013SOL    HW195936   5.359   4.384  10.203
98013SOL    HW295937   5.212   4.414  10.220
98014SOL     OW95938  11.751  12.546   8.032
98014SOL    HW195939  11.739  12.634   7.996
98014SOL    HW295940  11.777  12.493   7.957
98015SOL     OW95941  11.344   9.006  14.033
98015SOL    HW195942  11.299   8.991  14.116
98015SOL    HW295943  11.354   9.101  14.028
98016SOL     OW95944   0.889  12.963  13.860
98016SOL    HW195945   0.906  13.019  13.784
98016SOL    HW295946   0.894  12.874  13.826
98017SOL     OW95947  10.297  13.297  11.628
98017SOL    HW195948  10.321  13.327  11.716
98017SOL    HW295949  10.228  13.233  11.643
98018SOL     OW95950  11.458  12.555   6.210
98018SOL    HW195951  11.416  12.631   6.169
98018SOL    HW295952  11.549  12.560   6.179
98019SOL     OW95953   6.566   9.912  12.161
98019SOL    HW195954   6.498   9.866  12.111
98019SOL    HW295955   6.616   9.959  12.095
98020SOL     OW95956   0.163   8.565   6.948
98020SOL    HW195957   0.073   8.557   6.916
98020SOL    HW295958   0.154   8.573   7.043
98021SOL     OW95959   4.552   5.045  14.541
98021SOL    HW195960   4.602   5.055  14.623
98021SOL    HW295961   4.527   4.953  14.540
98022SOL     OW95962   4.110  10.083   7.486
98022SOL    HW195963   4.021  10.081   7.521
98022SOL    HW295964   4.155  10.011   7.530
98023SOL     OW95965  14.426  13.768  10.140
98023SOL    HW195966  14.366  13.731  10.075
98023SOL    HW295967  14.472  13.837  10.093
98024SOL     OW95968   1.423  12.352   2.691
98024SOL    HW195969   1.501  12.299   2.678
98024SOL    HW295970   1.457  12.438   2.718
98025SOL     OW95971   6.985   9.428   7.274
98025SOL    HW195972   7.033   9.347   7.294
98025SOL    HW295973   7.017   9.454   7.188
98026SOL     OW95974   1.072   7.708  14.421
98026SOL    HW195975   1.015   7.778  14.453
98026SOL    HW295976   1.150   7.753  14.388
98027SOL     OW95977   7.301   1.995   8.587
98027SOL    HW195978   7.331   2.068   8.642
98027SOL    HW295979   7.252   2.036   8.517
98028SOL     OW95980   1.349   6.849   1.695
98028SOL    HW195981   1.432   6.829   1.653
98028SOL    HW295982   1.286   6.853   1.623
98029SOL     OW95983  11.348   3.602  14.769
98029SOL    HW195984  11.418   3.662  14.742
98029SOL    HW295985  11.312   3.641  14.848
98030SOL     OW95986   5.721  13.729   8.763
98030SOL    HW195987   5.751  13.802   8.817
98030SOL    HW295988   5.699  13.660   8.827
98031SOL     OW95989  14.458  11.761  10.052
98031SOL    HW195990  14.462  11.752  10.147
98031SOL    HW295991  14.510  11.687  10.019
98032SOL     OW95992   2.184  11.713  14.715
98032SOL    HW195993   2.096  11.725  14.751
98032SOL    HW295994   2.241  11.762  14.774
98033SOL     OW95995   6.275   1.832   4.745
98033SOL    HW195996   6.282   1.739   4.726
98033SOL    HW295997   6.200   1.841   4.803
98034SOL     OW95998   7.354   9.231   7.057
98034SOL    HW195999   7.386   9.274   6.978
98034SOL    HW296000   7.319   9.147   7.028
98035SOL     OW96001   1.288  10.630   3.759
98035SOL    HW196002   1.372  10.623   3.805
98035SOL    HW296003   1.226  10.586   3.816
98036SOL     OW96004   4.273  12.570  11.719
98036SOL    HW196005   4.254  12.643  11.659
98036SOL    HW296006   4.308  12.501  11.662
98037SOL     OW96007  13.109   9.375   5.831
98037SOL    HW196008  13.019   9.344   5.832
98037SOL    HW296009  13.144   9.352   5.917
98038SOL     OW96010   8.594  14.088  10.500
98038SOL    HW196011   8.530  14.144  10.544
98038SOL    HW296012   8.662  14.072  10.565
98039SOL     OW96013   6.960  13.392   8.943
98039SOL    HW196014   6.933  13.443   9.020
98039SOL    HW296015   6.898  13.320   8.939
98040SOL     OW96016   0.291  11.286   2.872
98040SOL    HW196017   0.338  11.336   2.939
98040SOL    HW296018   0.298  11.195   2.900
98041SOL     OW96019  12.572  14.404   3.559
98041SOL    HW196020  12.549  14.342   3.490
98041SOL    HW296021  12.563  14.355   3.641
98042SOL     OW96022   5.650   1.972   7.635
98042SOL    HW196023   5.729   2.017   7.667
98042SOL    HW296024   5.670   1.879   7.644
98043SOL     OW96025   4.178   6.102   1.412
98043SOL    HW196026   4.250   6.156   1.445
98043SOL    HW296027   4.193   6.015   1.452
98044SOL     OW96028   7.218   5.496   5.533
98044SOL    HW196029   7.296   5.512   5.585
98044SOL    HW296030   7.145   5.510   5.594
98045SOL     OW96031   1.975   6.678  14.406
98045SOL    HW196032   2.064   6.680  14.371
98045SOL    HW296033   1.982   6.624  14.485
98046SOL     OW96034   1.172  12.063   2.251
98046SOL    HW196035   1.240  12.022   2.198
98046SOL    HW296036   1.163  12.152   2.215
98047SOL     OW96037   3.856   4.362   1.889
98047SOL    HW196038   3.884   4.371   1.797
98047SOL    HW296039   3.870   4.449   1.927
98048SOL     OW96040   4.917   0.020   0.015
98048SOL    HW196041   5.004   0.011   0.055
98048SOL    HW296042   4.934   0.019  14.801
98049SOL     OW96043   3.017  11.615  12.107
98049SOL    HW196044   3.055  11.585  12.025
98049SOL    HW296045   3.093  11.634  12.163
98050SOL     OW96046  11.772   6.074   5.875
98050SOL    HW196047  11.859   6.049   5.844
98050SOL    HW296048  11.789   6.140   5.943
98051SOL     OW96049   1.124  11.822   3.462
98051SOL    HW196050   1.146  11.832   3.369
98051SOL    HW296051   1.029  11.813   3.463
98052SOL     OW96052   3.804   3.904   5.566
98052SOL    HW196053   3.820   3.817   5.603
98052SOL    HW296054   3.787   3.888   5.473
98053SOL     OW96055  13.161  13.135   4.516
98053SOL    HW196056  13.244  13.183   4.512
98053SOL    HW296057  13.095  13.198   4.489
98054SOL     OW96058   5.820   9.597  11.295
98054SOL    HW196059   5.893   9.654  11.267
98054SOL    HW296060   5.855   9.549  11.370
98055SOL     OW96061   3.790   4.906   1.009
98055SOL    HW196062   3.811   4.951   1.091
98055SOL    HW296063   3.849   4.832   1.006
98056SOL     OW96064   9.493  14.602  12.102
98056SOL    HW196065   9.567  14.540  12.100
98056SOL    HW296066   9.442  14.574  12.178
98057SOL     OW96067   7.870   2.097   7.837
98057SOL    HW196068   7.912   2.058   7.760
98057SOL    HW296069   7.782   2.060   7.838
98058SOL     OW96070   7.110   5.868  11.376
98058SOL    HW196071   7.162   5.788  11.387
98058SOL    HW296072   7.096   5.900  11.466
98059SOL     OW96073   4.686   0.403   7.300
98059SOL    HW196074   4.667   0.455   7.378
98059SOL    HW296075   4.601   0.393   7.257
98060SOL     OW96076  12.335   0.510   6.361
98060SOL    HW196077  12.316   0.544   6.273
98060SOL    HW296078  12.271   0.440   6.374
98061SOL     OW96079   5.056   1.056   3.108
98061SOL    HW196080   5.097   1.142   3.119
98061SOL    HW296081   5.042   1.048   3.013
98062SOL     OW96082  11.827  14.602  11.616
98062SOL    HW196083  11.843  14.625  11.708
98062SOL    HW296084  11.738  14.566  11.616
98063SOL     OW96085  11.711  12.696   9.179
98063SOL    HW196086  11.759  12.631   9.229
98063SOL    HW296087  11.659  12.743   9.245
98064SOL     OW96088   2.368   5.588   6.495
98064SOL    HW196089   2.395   5.582   6.587
98064SOL    HW296090   2.273   5.592   6.499
98065SOL     OW96091   2.471   8.276   6.834
98065SOL    HW196092   2.492   8.262   6.926
98065SOL    HW296093   2.448   8.369   6.829
98066SOL     OW96094  12.912   8.465   5.345
98066SOL    HW196095  12.958   8.516   5.278
98066SOL    HW296096  12.909   8.376   5.310
98067SOL     OW96097   2.653   6.752   0.786
98067SOL    HW196098   2.560   6.750   0.807
98067SOL    HW296099   2.668   6.840   0.751
98068SOL     OW96100   2.598  10.153  11.394
98068SOL    HW196101   2.639  10.187  11.314
98068SOL    HW296102   2.558  10.070  11.367
98069SOL     OW96103   9.399  13.942   1.217
98069SOL    HW196104   9.477  13.997   1.213
98069SOL    HW296105   9.432  13.853   1.206
98070SOL     OW96106  13.126   8.745  12.632
98070SOL    HW196107  13.106   8.652  12.648
98070SOL    HW296108  13.043   8.790  12.651
98071SOL     OW96109   4.688  13.647  14.097
98071SOL    HW196110   4.603  13.611  14.120
98071SOL    HW296111   4.750  13.575  14.113
98072SOL     OW96112  10.023   5.919   0.861
98072SOL    HW196113  10.007   6.013   0.865
98072SOL    HW296114  10.118   5.910   0.862
98073SOL     OW96115  13.952   6.809   1.307
98073SOL    HW196116  14.002   6.781   1.230
98073SOL    HW296117  13.931   6.901   1.290
98074SOL     OW96118  12.721   0.421  12.373
98074SOL    HW196119  12.651   0.485  12.362
98074SOL    HW296120  12.744   0.395  12.284
98075SOL     OW96121   3.456   1.991   5.099
98075SOL    HW196122   3.369   2.005   5.060
98075SOL    HW296123   3.515   2.042   5.043
98076SOL     OW96124   1.357   3.781   4.934
98076SOL    HW196125   1.340   3.838   4.858
98076SOL    HW296126   1.309   3.701   4.913
98077SOL     OW96127  12.799   4.884   6.204
98077SOL    HW196128  12.761   4.823   6.141
98077SOL    HW296129  12.884   4.907   6.167
98078SOL     OW96130   3.732   8.295  12.868
98078SOL    HW196131   3.672   8.286  12.794
98078SOL    HW296132   3.687   8.250  12.940
98079SOL     OW96133   2.891  14.665   3.720
98079SOL    HW196134   2.985  14.660   3.701
98079SOL    HW296135   2.883  14.628   3.808
98080SOL     OW96136   4.315  11.782   8.926
98080SOL    HW196137   4.370  11.860   8.915
98080SOL    HW296138   4.304  11.774   9.020
98081SOL     OW96139  13.770   2.227   2.373
98081SOL    HW196140  13.732   2.140   2.360
98081SOL    HW296141  13.865   2.210   2.379
98082SOL     OW96142   8.868   8.276  11.879
98082SOL    HW196143   8.886   8.253  11.788
98082SOL    HW296144   8.847   8.193  11.921
98083SOL     OW96145   1.166  11.534  13.651
98083SOL    HW196146   1.221  11.594  13.702
98083SOL    HW296147   1.092  11.588  13.622
98084SOL     OW96148   0.649  14.290   9.809
98084SOL    HW196149   0.710  14.363   9.815
98084SOL    HW296150   0.701  14.213   9.833
98085SOL     OW96151  13.897   2.524   8.218
98085SOL    HW196152  13.875   2.548   8.128
98085SOL    HW296153  13.992   2.517   8.218
98086SOL     OW96154   6.579   4.823   6.215
98086SOL    HW196155   6.551   4.779   6.134
98086SOL    HW296156   6.502   4.818   6.272
98087SOL     OW96157   4.962   5.817   3.081
98087SOL    HW196158   5.017   5.895   3.089
98087SOL    HW296159   5.024   5.743   3.083
98088SOL     OW96160   7.727   3.561   7.429
98088SOL    HW196161   7.799   3.596   7.377
98088SOL    HW296162   7.663   3.531   7.364
98089SOL     OW96163   1.777   1.658   8.637
98089SOL    HW196164   1.718   1.714   8.587
98089SOL    HW296165   1.837   1.718   8.681
98090SOL     OW96166   7.176   6.248   5.970
98090SOL    HW196167   7.232   6.304   6.023
98090SOL    HW296168   7.087   6.264   6.003
98091SOL     OW96169  10.949  13.649  10.571
98091SOL    HW196170  10.903  13.717  10.521
98091SOL    HW296171  10.913  13.567  10.538
98092SOL     OW96172   3.248   3.727   4.946
98092SOL    HW196173   3.240   3.819   4.921
98092SOL    HW296174   3.160   3.691   4.937
98093SOL     OW96175   7.705  14.371   6.178
98093SOL    HW196176   7.732  14.312   6.107
98093SOL    HW296177   7.666  14.446   6.133
98094SOL     OW96178   6.677   7.639   7.166
98094SOL    HW196179   6.767   7.607   7.174
98094SOL    HW296180   6.685   7.733   7.152
98095SOL     OW96181  11.361   7.813   4.207
98095SOL    HW196182  11.434   7.757   4.234
98095SOL    HW296183  11.398   7.901   4.203
98096SOL     OW96184  11.004   2.431   6.160
98096SOL    HW196185  10.971   2.438   6.071
98096SOL    HW296186  11.088   2.476   6.158
98097SOL     OW96187   1.719   2.717  12.292
98097SOL    HW196188   1.679   2.687  12.373
98097SOL    HW296189   1.654   2.774  12.252
98098SOL     OW96190  10.778   2.748  13.911
98098SOL    HW196191  10.833   2.805  13.964
98098SOL    HW296192  10.711   2.806  13.874
98099SOL     OW96193   6.867   1.163   2.332
98099SOL    HW196194   6.820   1.079   2.330
98099SOL    HW296195   6.865   1.193   2.241
98100SOL     OW96196  14.421   7.315  12.338
98100SOL    HW196197  14.382   7.373  12.404
98100SOL    HW296198  14.357   7.316  12.266
98101SOL     OW96199   4.285   0.907   8.164
98101SOL    HW196200   4.302   0.892   8.256
98101SOL    HW296201   4.209   0.853   8.144
98102SOL     OW96202   8.807  11.373   5.748
98102SOL    HW196203   8.717  11.400   5.764
98102SOL    HW296204   8.801  11.279   5.731
98103SOL     OW96205  14.571   4.889   3.076
98103SOL    HW196206  14.539   4.815   3.025
98103SOL    HW296207  14.512   4.894   3.151
98104SOL     OW96208   2.163  11.331   0.984
98104SOL    HW196209   2.124  11.392   1.047
98104SOL    HW296210   2.120  11.350   0.901
98105SOL     OW96211   2.938   7.782   7.657
98105SOL    HW196212   2.862   7.840   7.658
98105SOL    HW296213   2.928   7.728   7.735
98106SOL     OW96214  13.963  12.501   9.212
98106SOL    HW196215  13.914  12.419   9.203
98106SOL    HW296216  14.032  12.481   9.276
98107SOL     OW96217   1.294   4.660  12.765
98107SOL    HW196218   1.328   4.701  12.845
98107SOL    HW296219   1.201   4.683  12.764
98108SOL     OW96220   7.538   8.883   8.662
98108SOL    HW196221   7.602   8.903   8.729
98108SOL    HW296222   7.519   8.790   8.673
98109SOL     OW96223   1.482   0.166   9.859
98109SOL    HW196224   1.570   0.131   9.845
98109SOL    HW296225   1.462   0.146   9.950
98110SOL     OW96226  10.408  12.792  12.205
98110SOL    HW196227  10.491  12.820  12.242
98110SOL    HW296228  10.432  12.736  12.131
98111SOL     OW96229   0.062   8.239  13.768
98111SOL    HW196230   0.119   8.216  13.694
98111SOL    HW296231   0.122   8.255  13.841
98112SOL     OW96232  11.755  11.135  12.656
98112SOL    HW196233  11.844  11.142  12.621
98112SOL    HW296234  11.700  11.180  12.592
98113SOL     OW96235   1.847   5.802  10.505
98113SOL    HW196236   1.785   5.794  10.577
98113SOL    HW296237   1.810   5.749  10.435
98114SOL     OW96238   0.171  11.163  10.223
98114SOL    HW196239   0.150  11.098  10.157
98114SOL    HW296240   0.089  11.180  10.268
98115SOL     OW96241   5.261   9.134   2.732
98115SOL    HW196242   5.295   9.223   2.739
98115SOL    HW296243   5.168   9.145   2.713
98116SOL     OW96244  10.008   3.123   3.163
98116SOL    HW196245   9.991   3.176   3.085
98116SOL    HW296246  10.100   3.096   3.153
98117SOL     OW96247  11.171   4.449   0.824
98117SOL    HW196248  11.220   4.527   0.795
98117SOL    HW296249  11.082   4.464   0.794
98118SOL     OW96250   2.567  11.185   0.465
98118SOL    HW196251   2.591  11.101   0.425
98118SOL    HW296252   2.502  11.223   0.406
98119SOL     OW96253  12.922  13.695   6.718
98119SOL    HW196254  12.891  13.782   6.744
98119SOL    HW296255  12.899  13.639   6.792
98120SOL     OW96256  10.105  10.675   4.830
98120SOL    HW196257  10.068  10.640   4.749
98120SOL    HW296258  10.188  10.716   4.803
98121SOL     OW96259  10.631   5.022   1.796
98121SOL    HW196260  10.676   5.031   1.712
98121SOL    HW296261  10.542   5.051   1.779
98122SOL     OW96262   8.554   0.417  13.019
98122SOL    HW196263   8.470   0.462  13.012
98122SOL    HW296264   8.558   0.362  12.940
98123SOL     OW96265  11.030   3.428   0.909
98123SOL    HW196266  11.032   3.335   0.885
98123SOL    HW296267  10.956   3.464   0.861
98124SOL     OW96268  10.745  12.045  14.509
98124SOL    HW196269  10.828  11.998  14.499
98124SOL    HW296270  10.755  12.124  14.456
98125SOL     OW96271   2.826   1.116   1.191
98125SOL    HW196272   2.747   1.119   1.246
98125SOL    HW296273   2.876   1.042   1.224
98126SOL     OW96274   8.334  12.610  11.006
98126SOL    HW196275   8.353  12.648  11.092
98126SOL    HW296276   8.378  12.668  10.944
98127SOL     OW96277  11.849   7.544  14.727
98127SOL    HW196278  11.892   7.502  14.801
98127SOL    HW296279  11.836   7.473  14.664
98128SOL     OW96280  13.375  10.237  10.197
98128SOL    HW196281  13.396  10.168  10.134
98128SOL    HW296282  13.279  10.243  10.195
98129SOL     OW96283   4.662   6.089   3.283
98129SOL    HW196284   4.688   6.147   3.355
98129SOL    HW296285   4.705   6.006   3.302
98130SOL     OW96286   0.925   6.756   9.328
98130SOL    HW196287   0.980   6.678   9.319
98130SOL    HW296288   0.877   6.761   9.246
98131SOL     OW96289   8.475  11.836   5.373
98131SOL    HW196290   8.467  11.932   5.369
98131SOL    HW296291   8.414  11.805   5.306
98132SOL     OW96292   0.388   8.510  14.649
98132SOL    HW196293   0.342   8.502  14.734
98132SOL    HW296294   0.438   8.591  14.656
98133SOL     OW96295   0.759   5.748   2.712
98133SOL    HW196296   0.776   5.657   2.737
98133SOL    HW296297   0.770   5.798   2.792
98134SOL     OW96298  12.601  10.498   4.717
98134SOL    HW196299  12.613  10.457   4.631
98134SOL    HW296300  12.688  10.531   4.740
98135SOL     OW96301   9.059   0.280   4.034
98135SOL    HW196302   9.099   0.347   3.979
98135SOL    HW296303   8.966   0.282   4.009
98136SOL     OW96304  13.189   7.614  14.457
98136SOL    HW196305  13.096   7.605  14.440
98136SOL    HW296306  13.232   7.571  14.382
98137SOL     OW96307   9.892   0.063  12.539
98137SOL    HW196308   9.830   0.109  12.482
98137SOL    HW296309   9.845   0.051  12.622
98138SOL     OW96310   9.595  11.027   3.886
98138SOL    HW196311   9.610  11.096   3.821
98138SOL    HW296312   9.629  10.947   3.845
98139SOL     OW96313   5.809   0.095   8.591
98139SOL    HW196314   5.825   0.034   8.519
98139SOL    HW296315   5.718   0.123   8.579
98140SOL     OW96316   7.094  13.832  14.193
98140SOL    HW196317   7.092  13.760  14.130
98140SOL    HW296318   7.029  13.894  14.161
98141SOL     OW96319   2.374  12.995   7.458
98141SOL    HW196320   2.414  12.922   7.410
98141SOL    HW296321   2.418  12.995   7.543
98142SOL     OW96322   1.218   8.677   2.462
98142SOL    HW196323   1.155   8.704   2.395
98142SOL    HW296324   1.166   8.625   2.524
98143SOL     OW96325   9.503   5.949   9.419
98143SOL    HW196326   9.520   6.043   9.426
98143SOL    HW296327   9.451   5.940   9.340
98144SOL     OW96328  12.068  10.882   2.290
98144SOL    HW196329  12.066  10.786   2.282
98144SOL    HW296330  12.153  10.901   2.328
98145SOL     OW96331  14.862   2.077   6.323
98145SOL    HW196332  14.771   2.052   6.307
98145SOL    HW296333  14.878   2.051   6.414
98146SOL     OW96334  10.598  11.898   4.313
98146SOL    HW196335  10.538  11.824   4.321
98146SOL    HW296336  10.544  11.969   4.278
98147SOL     OW96337   3.481   2.933   2.568
98147SOL    HW196338   3.473   2.982   2.486
98147SOL    HW296339   3.417   2.973   2.626
98148SOL     OW96340   3.240   1.539   5.197
98148SOL    HW196341   3.322   1.587   5.197
98148SOL    HW296342   3.243   1.485   5.118
98149SOL     OW96343  11.587  12.959   6.274
98149SOL    HW196344  11.534  12.891   6.233
98149SOL    HW296345  11.677  12.935   6.253
98150SOL     OW96346  12.339   6.454  10.490
98150SOL    HW196347  12.339   6.459  10.586
98150SOL    HW296348  12.298   6.535  10.461
98151SOL     OW96349  12.442  13.634   6.751
98151SOL    HW196350  12.505  13.671   6.689
98151SOL    HW296351  12.399  13.564   6.703
98152SOL     OW96352   6.574   0.782   2.514
98152SOL    HW196353   6.648   0.821   2.560
98152SOL    HW296354   6.576   0.822   2.427
98153SOL     OW96355   7.136   1.143   3.846
98153SOL    HW196356   7.203   1.148   3.915
98153SOL    HW296357   7.060   1.186   3.883
98154SOL     OW96358   7.278   7.954  10.745
98154SOL    HW196359   7.348   7.889  10.756
98154SOL    HW296360   7.296   7.994  10.660
98155SOL     OW96361  10.406   8.613  14.606
98155SOL    HW196362  10.379   8.522  14.619
98155SOL    HW296363  10.388   8.630  14.514
98156SOL     OW96364   1.401   0.591   2.210
98156SOL    HW196365   1.326   0.533   2.219
98156SOL    HW296366   1.418   0.621   2.300
98157SOL     OW96367   5.865  10.744   7.563
98157SOL    HW196368   5.944  10.719   7.516
98157SOL    HW296369   5.871  10.698   7.647
98158SOL     OW96370   1.429  13.428   4.341
98158SOL    HW196371   1.486  13.419   4.265
98158SOL    HW296372   1.485  13.466   4.409
98159SOL     OW96373  12.215  13.460   6.354
98159SOL    HW196374  12.234  13.445   6.447
98159SOL    HW296375  12.139  13.518   6.355
98160SOL     OW96376  14.166   2.988  10.672
98160SOL    HW196377  14.085   2.940  10.688
98160SOL    HW296378  14.235   2.925  10.692
98161SOL     OW96379   2.225  12.856   2.283
98161SOL    HW196380   2.142  12.810   2.297
98161SOL    HW296381   2.259  12.871   2.371
98162SOL     OW96382   8.083  12.988  10.498
98162SOL    HW196383   8.086  12.924  10.427
98162SOL    HW296384   8.099  13.072  10.455
98163SOL     OW96385  12.882   0.716   4.378
98163SOL    HW196386  12.814   0.754   4.433
98163SOL    HW296387  12.927   0.791   4.339
98164SOL     OW96388  12.705   7.376   5.142
98164SOL    HW196389  12.785   7.346   5.186
98164SOL    HW296390  12.697   7.318   5.066
98165SOL     OW96391   4.366  10.107   2.846
98165SOL    HW196392   4.341  10.018   2.820
98165SOL    HW296393   4.288  10.143   2.888
98166SOL     OW96394   2.020   8.645  10.499
98166SOL    HW196395   2.084   8.595  10.549
98166SOL    HW296396   2.066   8.671  10.419
98167SOL     OW96397  11.983   7.553   6.033
98167SOL    HW196398  12.007   7.636   5.993
98167SOL    HW296399  12.059   7.496   6.020
98168SOL     OW96400   6.673  12.365   8.851
98168SOL    HW196401   6.715  12.388   8.768
98168SOL    HW296402   6.637  12.277   8.836
98169SOL     OW96403   5.278  11.285  11.419
98169SOL    HW196404   5.187  11.279  11.389
98169SOL    HW296405   5.297  11.197  11.452
98170SOL     OW96406  14.310   6.814  14.784
98170SOL    HW196407  14.253   6.845  14.854
98170SOL    HW296408  14.252   6.811  14.707
98171SOL     OW96409  14.287   7.899   0.570
98171SOL    HW196410  14.321   7.974   0.521
98171SOL    HW296411  14.366   7.854   0.601
98172SOL     OW96412  13.048   8.250   4.167
98172SOL    HW196413  13.105   8.322   4.138
98172SOL    HW296414  12.964   8.267   4.125
98173SOL     OW96415  11.387   3.717   3.534
98173SOL    HW196416  11.302   3.705   3.493
98173SOL    HW296417  11.431   3.633   3.524
98174SOL     OW96418  11.292   8.241  11.166
98174SOL    HW196419  11.263   8.260  11.077
98174SOL    HW296420  11.314   8.148  11.164
98175SOL     OW96421   7.766  11.756   6.009
98175SOL    HW196422   7.717  11.759   5.927
98175SOL    HW296423   7.848  11.802   5.991
98176SOL     OW96424   9.299   3.567  14.497
98176SOL    HW196425   9.342   3.646  14.465
98176SOL    HW296426   9.211   3.595  14.519
98177SOL     OW96427   1.654   2.345   6.755
98177SOL    HW196428   1.592   2.332   6.683
98177SOL    HW296429   1.718   2.406   6.721
98178SOL     OW96430  11.985  11.526   7.010
98178SOL    HW196431  11.940  11.492   7.088
98178SOL    HW296432  12.044  11.593   7.044
98179SOL     OW96433  12.274  11.629   4.614
98179SOL    HW196434  12.364  11.605   4.593
98179SOL    HW296435  12.281  11.684   4.692
98180SOL     OW96436   7.024   3.151  12.020
98180SOL    HW196437   6.950   3.195  11.979
98180SOL    HW296438   7.037   3.198  12.103
98181SOL     OW96439   9.286   5.656   2.027
98181SOL    HW196440   9.197   5.692   2.018
98181SOL    HW296441   9.277   5.588   2.094
98182SOL     OW96442   4.346   7.914   7.251
98182SOL    HW196443   4.316   7.999   7.221
98182SOL    HW296444   4.267   7.869   7.281
98183SOL     OW96445   1.052  12.816  11.377
98183SOL    HW196446   1.119  12.814  11.445
98183SOL    HW296447   1.015  12.728  11.376
98184SOL     OW96448   0.819   3.037   3.662
98184SOL    HW196449   0.809   2.946   3.635
98184SOL    HW296450   0.890   3.070   3.606
98185SOL     OW96451   2.338  14.835  12.932
98185SOL    HW196452   2.353  14.768  12.998
98185SOL    HW296453   2.414  14.828  12.873
98186SOL     OW96454   5.425  10.164   2.697
98186SOL    HW196455   5.457  10.099   2.634
98186SOL    HW296456   5.347  10.201   2.655
98187SOL     OW96457   3.743  12.773   2.914
98187SOL    HW196458   3.661  12.739   2.876
98187SOL    HW296459   3.719  12.858   2.951
98188SOL     OW96460  10.661   1.564   1.915
98188SOL    HW196461  10.697   1.546   1.828
98188SOL    HW296462  10.618   1.649   1.906
98189SOL     OW96463  11.098  11.606   6.954
98189SOL    HW196464  11.030  11.673   6.963
98189SOL    HW296465  11.053  11.524   6.974
98190SOL     OW96466   3.602   5.979   6.925
98190SOL    HW196467   3.638   5.953   7.010
98190SOL    HW296468   3.594   5.897   6.877
98191SOL     OW96469  11.317   9.882   4.471
98191SOL    HW196470  11.335   9.863   4.563
98191SOL    HW296471  11.385   9.834   4.423
98192SOL     OW96472  12.143   9.602  11.316
98192SOL    HW196473  12.193   9.558  11.385
98192SOL    HW296474  12.105   9.530  11.265
98193SOL     OW96475  13.894  13.703   6.256
98193SOL    HW196476  13.831  13.642   6.295
98193SOL    HW296477  13.953  13.725   6.328
98194SOL     OW96478  11.691   1.277   3.090
98194SOL    HW196479  11.734   1.321   3.016
98194SOL    HW296480  11.653   1.348   3.141
98195SOL     OW96481   8.266   8.617  11.372
98195SOL    HW196482   8.227   8.628  11.458
98195SOL    HW296483   8.359   8.632  11.385
98196SOL     OW96484   1.322  12.438  14.101
98196SOL    HW196485   1.300  12.525  14.067
98196SOL    HW296486   1.395  12.454  14.162
98197SOL     OW96487   0.288   9.676  14.347
98197SOL    HW196488   0.369   9.721  14.325
98197SOL    HW296489   0.241   9.668  14.263
98198SOL     OW96490   7.630   4.795  10.573
98198SOL    HW196491   7.623   4.821  10.481
98198SOL    HW296492   7.715   4.752  10.579
98199SOL     OW96493  13.945  13.964   6.569
98199SOL    HW196494  13.936  14.012   6.487
98199SOL    HW296495  13.998  13.888   6.547
98200SOL     OW96496   6.495  12.526   4.657
98200SOL    HW196497   6.480  12.555   4.747
98200SOL    HW296498   6.578  12.567   4.632
98201SOL     OW96499  11.816   1.660   1.806
98201SOL    HW196500  11.829   1.662   1.901
98201SOL    HW296501  11.732   1.704   1.793
98202SOL     OW96502   3.243  11.793   9.547
98202SOL    HW196503   3.314  11.840   9.592
98202SOL    HW296504   3.177  11.861   9.530
98203SOL     OW96505   0.838   0.258   4.630
98203SOL    HW196506   0.776   0.198   4.672
98203SOL    HW296507   0.923   0.214   4.636
98204SOL     OW96508  11.847   9.838   2.156
98204SOL    HW196509  11.911   9.891   2.205
98204SOL    HW296510  11.763   9.880   2.174
98205SOL     OW96511   2.967  10.532   1.149
98205SOL    HW196512   3.049  10.488   1.128
98205SOL    HW296513   2.989  10.594   1.218
98206SOL     OW96514   0.177   6.088   8.972
98206SOL    HW196515   0.262   6.131   8.984
98206SOL    HW296516   0.132   6.100   9.056
98207SOL     OW96517  10.189   2.143  11.690
98207SOL    HW196518  10.131   2.219  11.695
98207SOL    HW296519  10.159   2.095  11.613
98208SOL     OW96520  10.108   3.010  11.727
98208SOL    HW196521  10.116   2.923  11.687
98208SOL    HW296522  10.050   3.058  11.668
98209SOL     OW96523  10.490  13.870   3.600
98209SOL    HW196524  10.565  13.831   3.555
98209SOL    HW296525  10.524  13.895   3.686
98210SOL     OW96526   1.059   0.285  10.940
98210SOL    HW196527   1.035   0.299  10.849
98210SOL    HW296528   1.074   0.191  10.947
98211SOL     OW96529   3.018   9.109   7.490
98211SOL    HW196530   2.936   9.138   7.530
98211SOL    HW296531   3.081   9.108   7.562
98212SOL     OW96532   6.455   8.040   0.009
98212SOL    HW196533   6.478   7.952   0.036
98212SOL    HW296534   6.520   8.096   0.052
98213SOL     OW96535   0.430   2.211   3.024
98213SOL    HW196536   0.459   2.301   3.012
98213SOL    HW296537   0.403   2.206   3.115
98214SOL     OW96538   0.643  13.976   5.147
98214SOL    HW196539   0.572  13.940   5.201
98214SOL    HW296540   0.604  14.049   5.101
98215SOL     OW96541   3.216   4.571   2.603
98215SOL    HW196542   3.224   4.551   2.510
98215SOL    HW296543   3.147   4.514   2.635
98216SOL     OW96544  14.249   0.637   9.074
98216SOL    HW196545  14.191   0.676   9.008
98216SOL    HW296546  14.315   0.704   9.090
98217SOL     OW96547  14.413   2.750   9.520
98217SOL    HW196548  14.454   2.668   9.549
98217SOL    HW296549  14.351   2.724   9.452
98218SOL     OW96550   2.097  14.158   2.371
98218SOL    HW196551   2.106  14.234   2.314
98218SOL    HW296552   2.182  14.114   2.365
98219SOL     OW96553   0.242   5.792   2.255
98219SOL    HW196554   0.166   5.759   2.207
98219SOL    HW296555   0.262   5.724   2.319
98220SOL     OW96556   7.275   4.481  11.902
98220SOL    HW196557   7.264   4.456  11.994
98220SOL    HW296558   7.271   4.576  11.903
98221SOL     OW96559   4.453  10.353   5.146
98221SOL    HW196560   4.451  10.317   5.235
98221SOL    HW296561   4.361  10.360   5.121
98222SOL     OW96562  12.039  12.108   1.163
98222SOL    HW196563  12.093  12.061   1.226
98222SOL    HW296564  12.069  12.199   1.168
98223SOL     OW96565   5.311   0.711  11.457
98223SOL    HW196566   5.355   0.753  11.530
98223SOL    HW296567   5.325   0.617  11.471
98224SOL     OW96568  12.964  10.613  10.746
98224SOL    HW196569  13.038  10.619  10.807
98224SOL    HW296570  12.984  10.676  10.677
98225SOL     OW96571   5.075   8.862  14.077
98225SOL    HW196572   5.079   8.913  14.158
98225SOL    HW296573   5.114   8.778  14.099
98226SOL     OW96574   9.020   0.018   6.807
98226SOL    HW196575   9.103   0.030   6.853
98226SOL    HW296576   8.959   0.078   6.851
98227SOL     OW96577  12.945  13.874   2.014
98227SOL    HW196578  12.957  13.924   2.095
98227SOL    HW296579  12.913  13.939   1.951
98228SOL     OW96580  12.022   4.618   5.811
98228SOL    HW196581  12.060   4.706   5.814
98228SOL    HW296582  12.056   4.580   5.730
98229SOL     OW96583   3.449   7.128   5.738
98229SOL    HW196584   3.359   7.154   5.758
98229SOL    HW296585   3.461   7.151   5.646
98230SOL     OW96586  12.500  11.360  13.879
98230SOL    HW196587  12.523  11.447  13.848
98230SOL    HW296588  12.525  11.360  13.972
98231SOL     OW96589  10.626   5.181  14.702
98231SOL    HW196590  10.545   5.199  14.750
98231SOL    HW296591  10.597   5.140  14.620
98232SOL     OW96592   9.827   3.547   7.651
98232SOL    HW196593   9.897   3.489   7.620
98232SOL    HW296594   9.753   3.489   7.670
98233SOL     OW96595  13.008  11.127   7.112
98233SOL    HW196596  12.964  11.056   7.064
98233SOL    HW296597  13.001  11.203   7.054
98234SOL     OW96598   1.680  13.806   3.102
98234SOL    HW196599   1.639  13.732   3.056
98234SOL    HW296600   1.674  13.783   3.195
98235SOL     OW96601  11.200   2.634  11.958
98235SOL    HW196602  11.259   2.693  11.913
98235SOL    HW296603  11.124   2.626  11.900
98236SOL     OW96604   2.341  11.054   9.392
98236SOL    HW196605   2.431  11.044   9.425
98236SOL    HW296606   2.335  11.147   9.369
98237SOL     OW96607   0.234  11.570  12.621
98237SOL    HW196608   0.320  11.611  12.624
98237SOL    HW296609   0.180  11.630  12.569
98238SOL     OW96610   6.110   7.892  14.773
98238SOL    HW196611   6.141   7.977  14.741
98238SOL    HW296612   6.112   7.900  14.868
98239SOL     OW96613   6.831   3.973   0.170
98239SOL    HW196614   6.738   3.993   0.165
98239SOL    HW296615   6.835   3.879   0.185
98240SOL     OW96616  11.373  14.855   8.814
98240SOL    HW196617  11.467  14.837   8.807
98240SOL    HW296618  11.358  14.868   8.907
98241SOL     OW96619  14.349  12.828   5.586
98241SOL    HW196620  14.317  12.818   5.496
98241SOL    HW296621  14.282  12.787   5.641
98242SOL     OW96622   7.819  13.373   7.668
98242SOL    HW196623   7.905  13.333   7.654
98242SOL    HW296624   7.764  13.300   7.698
98243SOL     OW96625   7.167  12.223   0.757
98243SOL    HW196626   7.104  12.166   0.801
98243SOL    HW296627   7.222  12.257   0.827
98244SOL     OW96628   1.842  14.727   5.831
98244SOL    HW196629   1.796  14.658   5.783
98244SOL    HW296630   1.918  14.748   5.776
98245SOL     OW96631   6.761   0.155  11.841
98245SOL    HW196632   6.816   0.205  11.780
98245SOL    HW296633   6.801   0.171  11.927
98246SOL     OW96634   0.034   7.155  10.914
98246SOL    HW196635   0.095   7.129  10.983
98246SOL    HW296636   0.041   7.086  10.848
98247SOL     OW96637   0.112   7.811  14.608
98247SOL    HW196638   0.189   7.847  14.565
98247SOL    HW296639   0.082   7.742  14.548
98248SOL     OW96640  11.811   7.538   4.620
98248SOL    HW196641  11.871   7.553   4.547
98248SOL    HW296642  11.727   7.517   4.579
98249SOL     OW96643   8.224   2.075  14.624
98249SOL    HW196644   8.136   2.099  14.651
98249SOL    HW296645   8.249   2.143  14.561
98250SOL     OW96646   7.855   3.601  13.829
98250SOL    HW196647   7.871   3.595  13.924
98250SOL    HW296648   7.918   3.540  13.790
98251SOL     OW96649   9.695   5.292   0.207
98251SOL    HW196650   9.613   5.335   0.229
98251SOL    HW296651   9.695   5.288   0.111
98252SOL     OW96652   3.974   5.946  12.038
98252SOL    HW196653   3.986   6.004  12.114
98252SOL    HW296654   3.947   5.862  12.076
98253SOL     OW96655   1.964   4.659   6.410
98253SOL    HW196656   1.940   4.732   6.467
98253SOL    HW296657   2.042   4.689   6.363
98254SOL     OW96658   5.179  11.189  12.668
98254SOL    HW196659   5.263  11.177  12.712
98254SOL    HW296660   5.183  11.130  12.592
98255SOL     OW96661   3.472  11.881   2.814
98255SOL    HW196662   3.546  11.826   2.788
98255SOL    HW296663   3.458  11.859   2.906
98256SOL     OW96664   6.970  11.917  11.770
98256SOL    HW196665   7.049  11.919  11.824
98256SOL    HW296666   6.902  11.956  11.826
98257SOL     OW96667   0.142   5.173   8.114
98257SOL    HW196668   0.136   5.188   8.208
98257SOL    HW296669   0.138   5.260   8.075
98258SOL     OW96670   6.686  13.938   5.579
98258SOL    HW196671   6.617  13.928   5.514
98258SOL    HW296672   6.729  13.852   5.583
98259SOL     OW96673  13.273   8.634   9.552
98259SOL    HW196674  13.345   8.663   9.609
98259SOL    HW296675  13.227   8.715   9.530
98260SOL     OW96676   9.777  10.534   9.772
98260SOL    HW196677   9.823  10.531   9.688
98260SOL    HW296678   9.728  10.452   9.775
98261SOL     OW96679   6.846   2.776   4.204
98261SOL    HW196680   6.816   2.779   4.295
98261SOL    HW296681   6.909   2.705   4.201
98262SOL     OW96682   0.028   0.777  10.644
98262SOL    HW196683   0.071   0.732  10.571
98262SOL    HW296684   0.018   0.867  10.613
98263SOL     OW96685   2.701  12.309   5.505
98263SOL    HW196686   2.718  12.399   5.478
98263SOL    HW296687   2.614  12.313   5.544
98264SOL     OW96688  11.572  12.568   6.856
98264SOL    HW196689  11.517  12.513   6.800
98264SOL    HW296690  11.561  12.656   6.819
98265SOL     OW96691  10.203  13.229  13.477
98265SOL    HW196692  10.210  13.324  13.487
98265SOL    HW296693  10.290  13.201  13.449
98266SOL     OW96694   2.629  13.971  10.444
98266SOL    HW196695   2.553  14.008  10.488
98266SOL    HW296696   2.704  14.017  10.483
98267SOL     OW96697   0.482   0.177  11.093
98267SOL    HW196698   0.498   0.156  11.185
98267SOL    HW296699   0.480   0.091  11.050
98268SOL     OW96700   4.697   1.948   0.899
98268SOL    HW196701   4.735   1.908   0.978
98268SOL    HW296702   4.770   1.952   0.837
98269SOL     OW96703   0.464  14.831  14.680
98269SOL    HW196704   0.403   0.006  14.631
98269SOL    HW296705   0.550  14.856  14.646
98270SOL     OW96706   0.936   2.012   2.758
98270SOL    HW196707   0.930   1.929   2.711
98270SOL    HW296708   0.971   2.074   2.694
98271SOL     OW96709   7.560  11.723  14.799
98271SOL    HW196710   7.475  11.702  14.759
98271SOL    HW296711   7.617  11.744  14.725
98272SOL     OW96712  13.715  12.508   4.238
98272SOL    HW196713  13.690  12.447   4.168
98272SOL    HW296714  13.789  12.465   4.281
98273SOL     OW96715  14.848  11.299   2.598
98273SOL    HW196716   0.002  11.321   2.685
98273SOL    HW296717   0.044  11.308   2.540
98274SOL     OW96718  12.406   3.004   7.126
98274SOL    HW196719  12.471   2.957   7.177
98274SOL    HW296720  12.329   3.008   7.183
98275SOL     OW96721  10.521   5.714   2.020
98275SOL    HW196722  10.603   5.666   2.035
98275SOL    HW296723  10.481   5.719   2.107
98276SOL     OW96724  14.845   2.477   9.852
98276SOL    HW196725  14.785   2.547   9.825
98276SOL    HW296726  14.825   2.463   9.945
98277SOL     OW96727   7.906   7.974  11.893
98277SOL    HW196728   7.968   7.982  11.820
98277SOL    HW296729   7.843   7.907  11.864
98278SOL     OW96730   8.369   5.949  11.374
98278SOL    HW196731   8.455   5.989  11.362
98278SOL    HW296732   8.386   5.870  11.426
98279SOL     OW96733   7.237  10.279   8.641
98279SOL    HW196734   7.145  10.307   8.649
98279SOL    HW296735   7.234  10.206   8.579
98280SOL     OW96736   9.804   7.410  12.324
98280SOL    HW196737   9.873   7.475  12.340
98280SOL    HW296738   9.827   7.372  12.239
98281SOL     OW96739  13.970   3.992  11.592
98281SOL    HW196740  13.987   4.037  11.674
98281SOL    HW296741  13.887   4.029  11.561
98282SOL     OW96742   3.558   5.962   8.616
98282SOL    HW196743   3.592   5.929   8.533
98282SOL    HW296744   3.565   6.057   8.608
98283SOL     OW96745   4.620  13.417  13.893
98283SOL    HW196746   4.539  13.455  13.859
98283SOL    HW296747   4.596  13.382  13.978
98284SOL     OW96748  12.929   0.162  12.287
98284SOL    HW196749  12.885   0.076  12.293
98284SOL    HW296750  12.864   0.219  12.247
98285SOL     OW96751  10.625  13.868   1.958
98285SOL    HW196752  10.562  13.939   1.971
98285SOL    HW296753  10.602  13.832   1.872
98286SOL     OW96754   0.762   2.690  11.150
98286SOL    HW196755   0.809   2.633  11.089
98286SOL    HW296756   0.829   2.752  11.180
98287SOL     OW96757  13.423   1.269   7.670
98287SOL    HW196758  13.491   1.204   7.653
98287SOL    HW296759  13.469   1.341   7.715
98288SOL     OW96760  12.775   1.276   4.270
98288SOL    HW196761  12.681   1.276   4.285
98288SOL    HW296762  12.792   1.360   4.227
98289SOL     OW96763   5.228   0.456   5.391
98289SOL    HW196764   5.235   0.372   5.346
98289SOL    HW296765   5.146   0.493   5.360
98290SOL     OW96766   5.261   5.045   4.437
98290SOL    HW196767   5.228   4.988   4.506
98290SOL    HW296768   5.354   5.023   4.431
98291SOL     OW96769   4.207   5.422  14.002
98291SOL    HW196770   4.190   5.357  14.069
98291SOL    HW296771   4.255   5.375  13.934
98292SOL     OW96772   2.979   6.135   3.636
98292SOL    HW196773   3.013   6.195   3.702
98292SOL    HW296774   2.981   6.186   3.555
98293SOL     OW96775   3.179  13.233   6.271
98293SOL    HW196776   3.217  13.216   6.357
98293SOL    HW296777   3.247  13.207   6.209
98294SOL     OW96778   3.427   6.712   6.988
98294SOL    HW196779   3.368   6.643   6.958
98294SOL    HW296780   3.461   6.680   7.071
98295SOL     OW96781  10.950  11.507   7.290
98295SOL    HW196782  11.012  11.436   7.273
98295SOL    HW296783  10.875  11.463   7.332
98296SOL     OW96784  10.098   5.578   2.673
98296SOL    HW196785  10.097   5.598   2.580
98296SOL    HW296786  10.006   5.585   2.700
98297SOL     OW96787   9.685  13.449  10.417
98297SOL    HW196788   9.651  13.370  10.376
98297SOL    HW296789   9.695  13.511  10.345
98298SOL     OW96790  11.948   6.629   1.558
98298SOL    HW196791  11.975   6.565   1.493
98298SOL    HW296792  12.029   6.655   1.603
98299SOL     OW96793  14.461  10.618   4.964
98299SOL    HW196794  14.502  10.571   4.891
98299SOL    HW296795  14.393  10.558   4.995
98300SOL     OW96796  14.103  14.749   8.606
98300SOL    HW196797  14.018  14.736   8.649
98300SOL    HW296798  14.122  14.842   8.618
98301SOL     OW96799  14.558  14.497   5.997
98301SOL    HW196800  14.612  14.477   5.921
98301SOL    HW296801  14.602  14.570   6.040
98302SOL     OW96802   2.180   1.246   2.364
98302SOL    HW196803   2.271   1.273   2.356
98302SOL    HW296804   2.176   1.202   2.449
98303SOL     OW96805  10.957   0.318   6.496
98303SOL    HW196806  10.911   0.401   6.483
98303SOL    HW296807  10.957   0.306   6.591
98304SOL     OW96808  10.974   7.775   0.551
98304SOL    HW196809  10.928   7.711   0.605
98304SOL    HW296810  10.995   7.847   0.611
98305SOL     OW96811   5.825   6.882   4.085
98305SOL    HW196812   5.817   6.954   4.022
98305SOL    HW296813   5.778   6.914   4.163
98306SOL     OW96814   1.703  11.405   0.433
98306SOL    HW196815   1.625  11.364   0.396
98306SOL    HW296816   1.694  11.497   0.411
98307SOL     OW96817  14.113   6.223  13.391
98307SOL    HW196818  14.173   6.231  13.465
98307SOL    HW296819  14.071   6.308  13.384
98308SOL     OW96820  13.497   6.521   8.757
98308SOL    HW196821  13.492   6.609   8.719
98308SOL    HW296822  13.569   6.526   8.820
98309SOL     OW96823   7.222   8.673   9.738
98309SOL    HW196824   7.295   8.734   9.749
98309SOL    HW296825   7.192   8.687   9.649
98310SOL     OW96826  11.904  13.290   3.104
98310SOL    HW196827  11.845  13.217   3.087
98310SOL    HW296828  11.862  13.365   3.061
98311SOL     OW96829  12.333  12.361  12.770
98311SOL    HW196830  12.288  12.335  12.690
98311SOL    HW296831  12.286  12.317  12.840
98312SOL     OW96832   6.525  10.752  12.239
98312SOL    HW196833   6.469  10.804  12.182
98312SOL    HW296834   6.473  10.675  12.261
98313SOL     OW96835   2.836  11.181   4.454
98313SOL    HW196836   2.792  11.265   4.471
98313SOL    HW296837   2.784  11.142   4.383
98314SOL     OW96838  10.610   0.183   9.729
98314SOL    HW196839  10.703   0.207   9.738
98314SOL    HW296840  10.568   0.260   9.693
98315SOL     OW96841  14.466  11.929   5.548
98315SOL    HW196842  14.525  11.879   5.490
98315SOL    HW296843  14.504  12.016   5.551
98316SOL     OW96844   7.467   3.810   7.513
98316SOL    HW196845   7.394   3.868   7.534
98316SOL    HW296846   7.508   3.849   7.436
98317SOL     OW96847   8.843   1.822   8.183
98317SOL    HW196848   8.841   1.778   8.268
98317SOL    HW296849   8.870   1.753   8.121
98318SOL     OW96850   0.767   0.621   6.778
98318SOL    HW196851   0.815   0.573   6.710
98318SOL    HW296852   0.767   0.562   6.853
98319SOL     OW96853   3.304  13.319   4.908
98319SOL    HW196854   3.289  13.402   4.863
98319SOL    HW296855   3.392  13.327   4.945
98320SOL     OW96856   0.142   4.231  11.195
98320SOL    HW196857   0.172   4.321  11.208
98320SOL    HW296858   0.048   4.234  11.215
98321SOL     OW96859   4.098  14.762   6.008
98321SOL    HW196860   4.157  14.694   6.039
98321SOL    HW296861   4.105  14.759   5.912
98322SOL     OW96862   2.283   1.225   4.577
98322SOL    HW196863   2.350   1.165   4.608
98322SOL    HW296864   2.315   1.312   4.602
98323SOL     OW96865   6.762  14.266   7.280
98323SOL    HW196866   6.715  14.201   7.332
98323SOL    HW296867   6.845  14.277   7.326
98324SOL     OW96868   4.279  10.949   5.489
98324SOL    HW196869   4.235  10.950   5.575
98324SOL    HW296870   4.296  11.042   5.471
98325SOL     OW96871   9.537   7.369   3.796
98325SOL    HW196872   9.491   7.429   3.855
98325SOL    HW296873   9.485   7.370   3.716
98326SOL     OW96874  13.453  13.357   6.540
98326SOL    HW196875  13.426  13.445   6.514
98326SOL    HW296876  13.372  13.306   6.535
98327SOL     OW96877   2.601   4.271   1.528
98327SOL    HW196878   2.683   4.222   1.529
98327SOL    HW296879   2.561   4.254   1.613
98328SOL     OW96880   6.509   2.116  10.007
98328SOL    HW196881   6.438   2.075  10.056
98328SOL    HW296882   6.540   2.186  10.064
98329SOL     OW96883   4.685  10.746   3.293
98329SOL    HW196884   4.600  10.790   3.288
98329SOL    HW296885   4.666  10.662   3.335
98330SOL     OW96886   4.028  12.107  13.947
98330SOL    HW196887   4.109  12.134  13.903
98330SOL    HW296888   3.975  12.186  13.949
98331SOL     OW96889  11.360   3.865   4.359
98331SOL    HW196890  11.296   3.793   4.356
98331SOL    HW296891  11.390   3.873   4.269
98332SOL     OW96892  12.210   3.322  10.464
98332SOL    HW196893  12.210   3.267  10.542
98332SOL    HW296894  12.146   3.390  10.482
98333SOL     OW96895   3.706   5.312   1.923
98333SOL    HW196896   3.660   5.385   1.964
98333SOL    HW296897   3.712   5.335   1.831
98334SOL     OW96898   4.088   6.044   4.089
98334SOL    HW196899   4.039   6.114   4.047
98334SOL    HW296900   4.145   6.010   4.020
98335SOL     OW96901   5.752   9.300   5.473
98335SOL    HW196902   5.750   9.297   5.377
98335SOL    HW296903   5.670   9.258   5.500
98336SOL     OW96904   5.742   0.873   4.423
98336SOL    HW196905   5.825   0.913   4.450
98336SOL    HW296906   5.675   0.933   4.455
98337SOL     OW96907  14.657  14.527  13.826
98337SOL    HW196908  14.625  14.466  13.759
98337SOL    HW296909  14.740  14.560  13.792
98338SOL     OW96910   8.815   8.305  10.900
98338SOL    HW196911   8.758   8.357  10.843
98338SOL    HW296912   8.870   8.255  10.840
98339SOL     OW96913  12.956   7.628  10.796
98339SOL    HW196914  12.944   7.617  10.891
98339SOL    HW296915  12.998   7.713  10.787
98340SOL     OW96916   4.596  12.548   5.045
98340SOL    HW196917   4.613  12.602   5.123
98340SOL    HW296918   4.528  12.487   5.073
98341SOL     OW96919  11.051   9.710  13.961
98341SOL    HW196920  11.132   9.672  13.994
98341SOL    HW296921  11.064   9.805  13.968
98342SOL     OW96922   2.800   3.779   2.276
98342SOL    HW196923   2.765   3.858   2.233
98342SOL    HW296924   2.844   3.813   2.354
98343SOL     OW96925   8.124   5.759   3.591
98343SOL    HW196926   8.160   5.844   3.617
98343SOL    HW296927   8.071   5.778   3.513
98344SOL     OW96928   6.744  14.063   6.641
98344SOL    HW196929   6.832  14.032   6.662
98344SOL    HW296930   6.718  14.011   6.565
98345SOL     OW96931   0.787   9.441   0.715
98345SOL    HW196932   0.709   9.492   0.693
98345SOL    HW296933   0.787   9.368   0.653
98346SOL     OW96934  10.921  11.631   3.126
98346SOL    HW196935  10.966  11.579   3.059
98346SOL    HW296936  10.933  11.582   3.207
98347SOL     OW96937   6.020   5.570  12.007
98347SOL    HW196938   6.044   5.478  12.003
98347SOL    HW296939   5.937   5.575  11.960
98348SOL     OW96940   8.971   6.146   5.056
98348SOL    HW196941   8.980   6.236   5.086
98348SOL    HW296942   8.879   6.125   5.068
98349SOL     OW96943   8.279   4.885   6.113
98349SOL    HW196944   8.292   4.952   6.046
98349SOL    HW296945   8.343   4.907   6.181
98350SOL     OW96946  12.360   3.408   4.377
98350SOL    HW196947  12.319   3.494   4.390
98350SOL    HW296948  12.356   3.393   4.282
98351SOL     OW96949  11.948  13.619   4.268
98351SOL    HW196950  12.026  13.598   4.216
98351SOL    HW296951  11.887  13.548   4.249
98352SOL     OW96952   6.817   0.750   5.333
98352SOL    HW196953   6.825   0.672   5.278
98352SOL    HW296954   6.767   0.811   5.280
98353SOL     OW96955  12.111  12.553  12.237
98353SOL    HW196956  12.107  12.643  12.204
98353SOL    HW296957  12.041  12.507  12.191
98354SOL     OW96958  12.315   8.044  14.861
98354SOL    HW196959  12.328   7.975   0.046
98354SOL    HW296960  12.403   8.073  14.838
98355SOL     OW96961  13.403   2.124  12.617
98355SOL    HW196962  13.401   2.115  12.712
98355SOL    HW296963  13.355   2.205  12.600
98356SOL     OW96964   6.895   1.674   7.030
98356SOL    HW196965   6.978   1.679   7.077
98356SOL    HW296966   6.835   1.631   7.091
98357SOL     OW96967  14.434   4.850   6.819
98357SOL    HW196968  14.406   4.935   6.787
98357SOL    HW296969  14.353   4.802   6.834
98358SOL     OW96970  11.221   7.695   8.795
98358SOL    HW196971  11.181   7.639   8.861
98358SOL    HW296972  11.250   7.772   8.843
98359SOL     OW96973  11.298   5.622   3.981
98359SOL    HW196974  11.393   5.632   3.991
98359SOL    HW296975  11.263   5.643   4.068
98360SOL     OW96976  14.303  11.145   1.700
98360SOL    HW196977  14.314  11.050   1.697
98360SOL    HW296978  14.392  11.180   1.694
98361SOL     OW96979  14.442  13.561  14.353
98361SOL    HW196980  14.464  13.572  14.445
98361SOL    HW296981  14.391  13.480  14.349
98362SOL     OW96982   1.239   8.760  11.161
98362SOL    HW196983   1.255   8.808  11.080
98362SOL    HW296984   1.301   8.798  11.224
98363SOL     OW96985   5.858   9.804   6.863
98363SOL    HW196986   5.849   9.757   6.781
98363SOL    HW296987   5.776   9.852   6.873
98364SOL     OW96988  11.460   6.174   6.699
98364SOL    HW196989  11.406   6.123   6.639
98364SOL    HW296990  11.464   6.261   6.658
98365SOL     OW96991   0.627   6.055   9.958
98365SOL    HW196992   0.657   6.070  10.048
98365SOL    HW296993   0.533   6.040   9.967
98366SOL     OW96994  13.809   6.022   1.903
98366SOL    HW196995  13.741   5.990   1.843
98366SOL    HW296996  13.883   5.963   1.888
98367SOL     OW96997   8.110  10.105  13.087
98367SOL    HW196998   8.125  10.034  13.150
98367SOL    HW296999   8.171  10.086  13.015
98368SOL     OW97000   0.799   7.316  12.271
98368SOL    HW197001   0.807   7.341  12.363
98368SOL    HW297002   0.705   7.314  12.254
98369SOL     OW97003  11.403   5.440  14.151
98369SOL    HW197004  11.474   5.399  14.200
98369SOL    HW297005  11.340   5.467  14.218
98370SOL     OW97006   8.170   5.430  10.088
98370SOL    HW197007   8.132   5.470  10.010
98370SOL    HW297008   8.257   5.401  10.060
98371SOL     OW97009   5.990   5.248  14.285
98371SOL    HW197010   6.024   5.303  14.215
98371SOL    HW297011   5.931   5.187  14.242
98372SOL     OW97012   9.342  10.849   2.794
98372SOL    HW197013   9.313  10.923   2.848
98372SOL    HW297014   9.290  10.856   2.714
98373SOL     OW97015   5.781   4.207  11.541
98373SOL    HW197016   5.688   4.223  11.524
98373SOL    HW297017   5.788   4.210  11.637
98374SOL     OW97018   9.774  12.704   9.014
98374SOL    HW197019   9.697  12.729   8.963
98374SOL    HW297020   9.808  12.627   8.968
98375SOL     OW97021   8.770  13.479   6.111
98375SOL    HW197022   8.799  13.568   6.092
98375SOL    HW297023   8.787  13.468   6.205
98376SOL     OW97024   0.969   2.845  11.226
98376SOL    HW197025   0.933   2.915  11.280
98376SOL    HW297026   1.058   2.832  11.258
98377SOL     OW97027   2.107   1.374  13.936
98377SOL    HW197028   2.079   1.371  13.845
98377SOL    HW297029   2.054   1.307  13.980
98378SOL     OW97030   2.126  10.553  10.778
98378SOL    HW197031   2.151  10.578  10.867
98378SOL    HW297032   2.049  10.498  10.790
98379SOL     OW97033   5.001   9.720  12.670
98379SOL    HW197034   4.929   9.663  12.699
98379SOL    HW297035   5.079   9.665  12.674
98380SOL     OW97036  10.647   2.194  11.791
98380SOL    HW197037  10.736   2.224  11.770
98380SOL    HW297038  10.644   2.105  11.756
98381SOL     OW97039  12.708   2.552  13.279
98381SOL    HW197040  12.701   2.545  13.374
98381SOL    HW297041  12.618   2.542  13.247
98382SOL     OW97042   2.695  13.232   9.250
98382SOL    HW197043   2.787  13.235   9.223
98382SOL    HW297044   2.695  13.268   9.339
98383SOL     OW97045  10.824  12.392  10.280
98383SOL    HW197046  10.863  12.477  10.297
98383SOL    HW297047  10.802  12.358  10.367
98384SOL     OW97048  10.630  10.194   5.003
98384SOL    HW197049  10.698  10.228   4.945
98384SOL    HW297050  10.556  10.175   4.944
98385SOL     OW97051   8.738   4.314  13.939
98385SOL    HW197052   8.714   4.386  13.998
98385SOL    HW297053   8.655   4.276  13.912
98386SOL     OW97054  13.099   7.650  12.342
98386SOL    HW197055  13.101   7.730  12.396
98386SOL    HW297056  13.113   7.579  12.405
98387SOL     OW97057   5.311  13.124   7.773
98387SOL    HW197058   5.296  13.080   7.856
98387SOL    HW297059   5.404  13.112   7.756
98388SOL     OW97060   4.554   1.394  11.709
98388SOL    HW197061   4.548   1.444  11.627
98388SOL    HW297062   4.622   1.328  11.691
98389SOL     OW97063  14.327   7.420   4.389
98389SOL    HW197064  14.249   7.376   4.423
98389SOL    HW297065  14.399   7.360   4.409
98390SOL     OW97066   7.459   8.643  12.519
98390SOL    HW197067   7.374   8.633  12.477
98390SOL    HW297068   7.489   8.554  12.536
98391SOL     OW97069  10.629   9.056   4.731
98391SOL    HW197070  10.691   9.003   4.782
98391SOL    HW297071  10.642   9.028   4.641
98392SOL     OW97072   2.218   0.337   7.106
98392SOL    HW197073   2.231   0.307   7.016
98392SOL    HW297074   2.171   0.419   7.097
98393SOL     OW97075  13.872   7.597   5.234
98393SOL    HW197076  13.952   7.559   5.270
98393SOL    HW297077  13.903   7.669   5.179
98394SOL     OW97078  11.002   9.355   2.977
98394SOL    HW197079  11.054   9.310   3.044
98394SOL    HW297080  10.913   9.355   3.013
98395SOL     OW97081   4.920   5.090  12.232
98395SOL    HW197082   4.904   5.090  12.326
98395SOL    HW297083   4.953   5.178  12.213
98396SOL     OW97084  14.842  13.324   0.397
98396SOL    HW197085  14.877  13.335   0.309
98396SOL    HW297086   0.039  13.331   0.454
98397SOL     OW97087   3.431   2.682  10.149
98397SOL    HW197088   3.497   2.710  10.212
98397SOL    HW297089   3.352   2.731  10.173
98398SOL     OW97090   6.130  12.164   4.022
98398SOL    HW197091   6.108  12.093   3.962
98398SOL    HW297092   6.103  12.133   4.108
98399SOL     OW97093   4.538   5.048  12.754
98399SOL    HW197094   4.580   5.004  12.681
98399SOL    HW297095   4.528   5.139  12.725
98400SOL     OW97096   8.596   7.808   7.288
98400SOL    HW197097   8.664   7.779   7.228
98400SOL    HW297098   8.643   7.844   7.363
98401SOL     OW97099   8.482   2.244   6.977
98401SOL    HW197100   8.419   2.309   6.945
98401SOL    HW297101   8.457   2.163   6.933
98402SOL     OW97102  10.556   2.692   6.441
98402SOL    HW197103  10.629   2.712   6.382
98402SOL    HW297104  10.483   2.744   6.408
98403SOL     OW97105   2.493   2.355  10.302
98403SOL    HW197106   2.549   2.278  10.300
98403SOL    HW297107   2.544   2.424  10.259
98404SOL     OW97108  14.810   5.550  12.509
98404SOL    HW197109  14.792   5.641  12.486
98404SOL    HW297110  14.780   5.499  12.434
98405SOL     OW97111   6.376  11.539  11.702
98405SOL    HW197112   6.471  11.528  11.694
98405SOL    HW297113   6.364  11.630  11.731
98406SOL     OW97114   2.143   8.656   8.694
98406SOL    HW197115   2.122   8.723   8.760
98406SOL    HW297116   2.144   8.704   8.611
98407SOL     OW97117   0.570  12.821   4.759
98407SOL    HW197118   0.505  12.858   4.819
98407SOL    HW297119   0.631  12.775   4.816
98408SOL     OW97120   2.113  13.144   4.109
98408SOL    HW197121   2.064  13.062   4.110
98408SOL    HW297122   2.185  13.128   4.048
98409SOL     OW97123  14.333   4.734   6.188
98409SOL    HW197124  14.309   4.807   6.130
98409SOL    HW297125  14.399   4.685   6.138
98410SOL     OW97126   2.895   1.303  10.234
98410SOL    HW197127   2.827   1.308  10.302
98410SOL    HW297128   2.856   1.250  10.165
98411SOL     OW97129   5.183  10.291  12.525
98411SOL    HW197130   5.200  10.197  12.514
98411SOL    HW297131   5.104  10.294  12.580
98412SOL     OW97132  13.754   8.470   7.194
98412SOL    HW197133  13.744   8.442   7.103
98412SOL    HW297134  13.719   8.396   7.245
98413SOL     OW97135   1.448   9.715   5.945
98413SOL    HW197136   1.464   9.664   6.024
98413SOL    HW297137   1.384   9.782   5.971
98414SOL     OW97138   9.853   9.058   1.115
98414SOL    HW197139   9.874   8.967   1.097
98414SOL    HW297140   9.933   9.106   1.095
98415SOL     OW97141   3.976   7.660  14.749
98415SOL    HW197142   3.946   7.679  14.838
98415SOL    HW297143   4.048   7.598  14.760
98416SOL     OW97144   7.443   9.633   5.128
98416SOL    HW197145   7.406   9.595   5.048
98416SOL    HW297146   7.426   9.727   5.120
98417SOL     OW97147  12.006   0.784   1.386
98417SOL    HW197148  12.055   0.703   1.401
98417SOL    HW297149  12.067   0.854   1.411
98418SOL     OW97150   2.736   8.022  14.644
98418SOL    HW197151   2.643   8.039  14.632
98418SOL    HW297152   2.772   8.104  14.676
98419SOL     OW97153   5.192   2.418   4.509
98419SOL    HW197154   5.238   2.477   4.449
98419SOL    HW297155   5.170   2.342   4.456
98420SOL     OW97156   4.015   5.806   9.265
98420SOL    HW197157   4.086   5.796   9.329
98420SOL    HW297158   3.975   5.719   9.261
98421SOL     OW97159   1.710   5.975   6.264
98421SOL    HW197160   1.729   6.042   6.198
98421SOL    HW297161   1.617   5.955   6.251
98422SOL     OW97162   1.406  13.670   9.752
98422SOL    HW197163   1.341  13.637   9.814
98422SOL    HW297164   1.477  13.605   9.755
98423SOL     OW97165   2.283  14.313   8.521
98423SOL    HW197166   2.221  14.352   8.583
98423SOL    HW297167   2.299  14.382   8.456
98424SOL     OW97168   6.397   6.215  13.011
98424SOL    HW197169   6.405   6.122  13.035
98424SOL    HW297170   6.328   6.249  13.067
98425SOL     OW97171   7.656   9.262  11.079
98425SOL    HW197172   7.745   9.247  11.111
98425SOL    HW297173   7.666   9.331  11.012
98426SOL     OW97174  12.764   1.917   8.643
98426SOL    HW197175  12.784   1.951   8.556
98426SOL    HW297176  12.705   1.982   8.681
98427SOL     OW97177   9.176   2.536   5.549
98427SOL    HW197178   9.097   2.590   5.549
98427SOL    HW297179   9.146   2.452   5.585
98428SOL     OW97180   7.191  14.460   4.080
98428SOL    HW197181   7.188  14.487   3.988
98428SOL    HW297182   7.118  14.506   4.121
98429SOL     OW97183  12.146   9.184   2.625
98429SOL    HW197184  12.142   9.096   2.662
98429SOL    HW297185  12.231   9.188   2.581
98430SOL     OW97186   7.915  14.107  10.899
98430SOL    HW197187   7.913  14.030  10.957
98430SOL    HW297188   7.936  14.072  10.813
98431SOL     OW97189   1.384   3.566   0.277
98431SOL    HW197190   1.460   3.613   0.243
98431SOL    HW297191   1.376   3.489   0.221
98432SOL     OW97192  13.421  12.740   4.965
98432SOL    HW197193  13.481  12.794   4.913
98432SOL    HW297194  13.472  12.662   4.987
98433SOL     OW97195   1.729  12.536   2.507
98433SOL    HW197196   1.690  12.454   2.536
98433SOL    HW297197   1.821  12.515   2.491
98434SOL     OW97198   6.410   8.705  14.614
98434SOL    HW197199   6.414   8.612  14.636
98434SOL    HW297200   6.496   8.739  14.638
98435SOL     OW97201  13.395  14.312  10.225
98435SOL    HW197202  13.351  14.396  10.234
98435SOL    HW297203  13.488  14.333  10.232
98436SOL     OW97204   1.130   5.782   6.507
98436SOL    HW197205   1.046   5.781   6.461
98436SOL    HW297206   1.126   5.706   6.565
98437SOL     OW97207   8.452  12.143  14.127
98437SOL    HW197208   8.361  12.114  14.138
98437SOL    HW297209   8.447  12.237  14.114
98438SOL     OW97210  14.570   0.976   5.304
98438SOL    HW197211  14.583   0.887   5.272
98438SOL    HW297212  14.562   0.967   5.399
98439SOL     OW97213   6.845   7.368  13.981
98439SOL    HW197214   6.835   7.369  14.076
98439SOL    HW297215   6.786   7.437  13.950
98440SOL     OW97216   5.637   6.629   1.475
98440SOL    HW197217   5.616   6.599   1.387
98440SOL    HW297218   5.684   6.556   1.516
98441SOL     OW97219   2.013   8.750  12.875
98441SOL    HW197220   2.014   8.793  12.961
98441SOL    HW297221   2.088   8.691  12.877
98442SOL     OW97222   0.659  13.140   5.333
98442SOL    HW197223   0.621  13.068   5.284
98442SOL    HW297224   0.630  13.219   5.286
98443SOL     OW97225   2.925   8.258  11.156
98443SOL    HW197226   2.871   8.336  11.142
98443SOL    HW297227   2.861   8.189  11.178
98444SOL     OW97228  13.362   4.817  13.394
98444SOL    HW197229  13.308   4.890  13.427
98444SOL    HW297230  13.311   4.739  13.414
98445SOL     OW97231   2.823   9.289   2.423
98445SOL    HW197232   2.765   9.279   2.348
98445SOL    HW297233   2.801   9.375   2.459
98446SOL     OW97234  11.642   4.528  11.912
98446SOL    HW197235  11.616   4.620  11.903
98446SOL    HW297236  11.639   4.511  12.006
98447SOL     OW97237   5.283   7.921  12.412
98447SOL    HW197238   5.191   7.919  12.438
98447SOL    HW297239   5.291   7.997  12.354
98448SOL     OW97240  12.683   2.182   8.723
98448SOL    HW197241  12.754   2.233   8.763
98448SOL    HW297242  12.664   2.227   8.641
98449SOL     OW97243   3.108  12.342   9.157
98449SOL    HW197244   3.116  12.361   9.251
98449SOL    HW297245   3.021  12.302   9.149
98450SOL     OW97246   9.252   8.411   0.875
98450SOL    HW197247   9.256   8.492   0.926
98450SOL    HW297248   9.283   8.436   0.787
98451SOL     OW97249   3.767   5.635   1.272
98451SOL    HW197250   3.699   5.689   1.231
98451SOL    HW297251   3.849   5.679   1.251
98452SOL     OW97252   9.825   9.965  10.637
98452SOL    HW197253   9.833   9.872  10.658
98452SOL    HW297254   9.811   9.967  10.543
98453SOL     OW97255   4.307  14.530  13.596
98453SOL    HW197256   4.307  14.440  13.630
98453SOL    HW297257   4.352  14.523  13.511
98454SOL     OW97258  14.403   3.846  14.472
98454SOL    HW197259  14.422   3.815  14.561
98454SOL    HW297260  14.313   3.820  14.456
98455SOL     OW97261   4.469   3.852  11.246
98455SOL    HW197262   4.393   3.800  11.219
98455SOL    HW297263   4.544   3.796  11.228
98456SOL     OW97264  11.841  11.281   5.078
98456SOL    HW197265  11.891  11.362   5.078
98456SOL    HW297266  11.819  11.266   5.170
98457SOL     OW97267  14.255  11.508  11.985
98457SOL    HW197268  14.159  11.501  11.993
98457SOL    HW297269  14.268  11.561  11.907
98458SOL     OW97270   8.357   8.696  11.134
98458SOL    HW197271   8.379   8.623  11.076
98458SOL    HW297272   8.304   8.656  11.203
98459SOL     OW97273   6.763   8.136   5.102
98459SOL    HW197274   6.848   8.180   5.110
98459SOL    HW297275   6.716   8.160   5.182
98460SOL     OW97276  13.438  12.955   8.117
98460SOL    HW197277  13.435  12.901   8.196
98460SOL    HW297278  13.350  12.994   8.111
98461SOL     OW97279   0.070  14.699  13.060
98461SOL    HW197280   0.121  14.703  12.979
98461SOL    HW297281   0.113  14.760  13.120
98462SOL     OW97282  14.392  10.807   6.882
98462SOL    HW197283  14.306  10.840   6.855
98462SOL    HW297284  14.387  10.805   6.978
98463SOL     OW97285   6.745   4.062   1.161
98463SOL    HW197286   6.702   4.133   1.208
98463SOL    HW297287   6.800   4.106   1.096
98464SOL     OW97288   0.396  10.267  10.011
98464SOL    HW197289   0.347  10.219  10.078
98464SOL    HW297290   0.360  10.236   9.928
98465SOL     OW97291   1.230   1.921   3.795
98465SOL    HW197292   1.172   1.993   3.820
98465SOL    HW297293   1.292   1.961   3.733
98466SOL     OW97294   7.250  10.582   2.030
98466SOL    HW197295   7.340  10.570   2.061
98466SOL    HW297296   7.226  10.670   2.058
98467SOL     OW97297   6.078   3.991   6.998
98467SOL    HW197298   6.028   3.987   6.916
98467SOL    HW297299   6.091   4.085   7.013
98468SOL     OW97300   5.796   1.479   2.940
98468SOL    HW197301   5.877   1.527   2.921
98468SOL    HW297302   5.781   1.426   2.861
98469SOL     OW97303   7.983   8.835   6.948
98469SOL    HW197304   7.921   8.892   6.993
98469SOL    HW297305   7.989   8.758   7.005
98470SOL     OW97306   1.836   8.453   7.794
98470SOL    HW197307   1.881   8.472   7.711
98470SOL    HW297308   1.782   8.531   7.810
98471SOL     OW97309  10.349  10.599  12.694
98471SOL    HW197310  10.301  10.643  12.624
98471SOL    HW297311  10.386  10.521  12.652
98472SOL     OW97312  14.022  12.784  12.353
98472SOL    HW197313  13.941  12.834  12.365
98472SOL    HW297314  13.992  12.699  12.319
98473SOL     OW97315   5.654  14.075   0.804
98473SOL    HW197316   5.618  13.996   0.763
98473SOL    HW297317   5.730  14.096   0.750
98474SOL     OW97318  11.284   8.142  11.782
98474SOL    HW197319  11.266   8.110  11.871
98474SOL    HW297320  11.245   8.230  11.780
98475SOL     OW97321   8.352   1.830   3.647
98475SOL    HW197322   8.382   1.880   3.571
98475SOL    HW297323   8.261   1.858   3.660
98476SOL     OW97324  11.421   2.287  10.321
98476SOL    HW197325  11.385   2.268  10.234
98476SOL    HW297326  11.345   2.299  10.377
98477SOL     OW97327   9.214   6.131   3.125
98477SOL    HW197328   9.201   6.046   3.082
98477SOL    HW297329   9.154   6.129   3.200
98478SOL     OW97330  13.529  10.012  10.729
98478SOL    HW197331  13.518   9.921  10.704
98478SOL    HW297332  13.440  10.042  10.751
98479SOL     OW97333   6.109   8.136   8.667
98479SOL    HW197334   6.125   8.045   8.644
98479SOL    HW297335   6.024   8.135   8.711
98480SOL     OW97336   5.727   4.774   5.995
98480SOL    HW197337   5.810   4.731   5.974
98480SOL    HW297338   5.746   4.829   6.071
98481SOL     OW97339  10.580  11.814  11.022
98481SOL    HW197340  10.657  11.770  11.058
98481SOL    HW297341  10.591  11.806  10.927
98482SOL     OW97342   3.173  12.396   4.057
98482SOL    HW197343   3.204  12.473   4.104
98482SOL    HW297344   3.113  12.431   3.991
98483SOL     OW97345   6.984  14.214   9.867
98483SOL    HW197346   6.905  14.196   9.815
98483SOL    HW297347   6.967  14.298   9.909
98484SOL     OW97348   4.266   9.455   3.132
98484SOL    HW197349   4.316   9.401   3.070
98484SOL    HW297350   4.177   9.420   3.128
98485SOL     OW97351   2.279   8.515   3.305
98485SOL    HW197352   2.245   8.599   3.274
98485SOL    HW297353   2.203   8.456   3.301
98486SOL     OW97354   8.789  13.058  11.360
98486SOL    HW197355   8.822  13.052  11.450
98486SOL    HW297356   8.728  13.132  11.362
98487SOL     OW97357  14.440   0.422   5.010
98487SOL    HW197358  14.467   0.462   4.928
98487SOL    HW297359  14.522   0.395   5.052
98488SOL     OW97360   0.723   5.877   7.230
98488SOL    HW197361   0.643   5.925   7.208
98488SOL    HW297362   0.693   5.794   7.267
98489SOL     OW97363   3.722   5.846   2.930
98489SOL    HW197364   3.639   5.861   2.977
98489SOL    HW297365   3.699   5.783   2.861
98490SOL     OW97366  10.882   3.187  13.038
98490SOL    HW197367  10.915   3.193  12.948
98490SOL    HW297368  10.892   3.276  13.073
98491SOL     OW97369  10.441   1.007   7.687
98491SOL    HW197370  10.446   0.961   7.771
98491SOL    HW297371  10.497   0.955   7.628
98492SOL     OW97372  14.199  14.795   6.619
98492SOL    HW197373  14.119  14.755   6.653
98492SOL    HW297374  14.257  14.720   6.602
98493SOL     OW97375   5.043  12.941  13.372
98493SOL    HW197376   5.046  12.847  13.387
98493SOL    HW297377   5.052  12.980  13.459
98494SOL     OW97378  11.660   6.171   2.740
98494SOL    HW197379  11.674   6.253   2.694
98494SOL    HW297380  11.672   6.192   2.832
98495SOL     OW97381   1.464   3.426   4.800
98495SOL    HW197382   1.377   3.411   4.836
98495SOL    HW297383   1.522   3.372   4.853
98496SOL     OW97384  14.330   3.199   3.944
98496SOL    HW197385  14.395   3.269   3.948
98496SOL    HW297386  14.269   3.227   3.875
98497SOL     OW97387   5.534   2.308  13.864
98497SOL    HW197388   5.566   2.343  13.781
98497SOL    HW297389   5.467   2.244  13.840
98498SOL     OW97390   8.080   7.958   4.472
98498SOL    HW197391   8.157   7.946   4.417
98498SOL    HW297392   8.109   8.015   4.542
98499SOL     OW97393  10.650   9.270   0.924
98499SOL    HW197394  10.681   9.276   0.834
98499SOL    HW297395  10.712   9.322   0.975
98500SOL     OW97396   6.466  12.399   4.305
98500SOL    HW197397   6.502  12.485   4.283
98500SOL    HW297398   6.414  12.374   4.229
98501SOL     OW97399  10.048   4.900  13.343
98501SOL    HW197400  10.114   4.960  13.376
98501SOL    HW297401  10.063   4.819  13.392
98502SOL     OW97402   1.445   4.280   4.564
98502SOL    HW197403   1.539   4.261   4.567
98502SOL    HW297404   1.432   4.318   4.477
98503SOL     OW97405   0.580   9.340   6.036
98503SOL    HW197406   0.633   9.350   5.956
98503SOL    HW297407   0.584   9.246   6.056
98504SOL     OW97408   6.969  11.727  10.587
98504SOL    HW197409   6.941  11.707  10.498
98504SOL    HW297410   7.063  11.745  10.580
98505SOL     OW97411  12.962   1.184   2.105
98505SOL    HW197412  13.020   1.107   2.102
98505SOL    HW297413  12.954   1.210   2.013
98506SOL     OW97414  10.587  12.277   0.301
98506SOL    HW197415  10.657  12.281   0.236
98506SOL    HW297416  10.558  12.368   0.310
98507SOL     OW97417  11.756   5.890  10.934
98507SOL    HW197418  11.784   5.809  10.891
98507SOL    HW297419  11.819   5.956  10.905
98508SOL     OW97420  11.926  14.765   9.292
98508SOL    HW197421  11.961  14.846   9.255
98508SOL    HW297422  11.846  14.792   9.338
98509SOL     OW97423   1.912  12.137   0.401
98509SOL    HW197424   1.934  12.230   0.395
98509SOL    HW297425   1.816  12.135   0.396
98510SOL     OW97426   8.062   4.283   7.987
98510SOL    HW197427   8.144   4.241   7.961
98510SOL    HW297428   7.998   4.256   7.921
98511SOL     OW97429   0.957  11.944   4.179
98511SOL    HW197430   0.910  11.931   4.261
98511SOL    HW297431   0.889  11.955   4.113
98512SOL     OW97432   5.708  11.110   1.251
98512SOL    HW197433   5.797  11.074   1.244
98512SOL    HW297434   5.673  11.103   1.162
98513SOL     OW97435  13.845   6.046   6.300
98513SOL    HW197436  13.921   6.009   6.346
98513SOL    HW297437  13.871   6.136   6.279
98514SOL     OW97438   0.186   1.899   3.800
98514SOL    HW197439   0.272   1.860   3.816
98514SOL    HW297440   0.143   1.900   3.886
98515SOL     OW97441  11.870   0.696  11.731
98515SOL    HW197442  11.902   0.705  11.641
98515SOL    HW297443  11.883   0.782  11.770
98516SOL     OW97444  11.206   4.909   7.936
98516SOL    HW197445  11.263   4.947   7.869
98516SOL    HW297446  11.158   4.983   7.972
98517SOL     OW97447   1.206  14.676   0.428
98517SOL    HW197448   1.222  14.618   0.503
98517SOL    HW297449   1.258  14.754   0.447
98518SOL     OW97450  12.254  10.520   8.629
98518SOL    HW197451  12.348  10.535   8.616
98518SOL    HW297452  12.214  10.606   8.611
98519SOL     OW97453  11.166   9.222   8.207
98519SOL    HW197454  11.238   9.183   8.157
98519SOL    HW297455  11.167   9.176   8.290
98520SOL     OW97456   0.141   5.608   1.605
98520SOL    HW197457   0.074   5.665   1.643
98520SOL    HW297458   0.222   5.658   1.612
98521SOL     OW97459   0.123   5.277   9.198
98521SOL    HW197460   0.119   5.183   9.216
98521SOL    HW297461   0.060   5.316   9.259
98522SOL     OW97462   9.625   0.790   4.523
98522SOL    HW197463   9.634   0.742   4.441
98522SOL    HW297464   9.713   0.823   4.541
98523SOL     OW97465  11.442   6.245  11.500
98523SOL    HW197466  11.367   6.216  11.449
98523SOL    HW297467  11.500   6.169  11.502
98524SOL     OW97468   9.610   6.351   0.200
98524SOL    HW197469   9.681   6.398   0.245
98524SOL    HW297470   9.599   6.398   0.117
98525SOL     OW97471   8.814  12.251   1.452
98525SOL    HW197472   8.743  12.235   1.389
98525SOL    HW297473   8.805  12.343   1.475
98526SOL     OW97474  11.186   9.523   0.090
98526SOL    HW197475  11.167   9.582   0.163
98526SOL    HW297476  11.112   9.462   0.089
98527SOL     OW97477  14.071   9.663   1.982
98527SOL    HW197478  14.128   9.590   1.957
98527SOL    HW297479  14.004   9.623   2.038
98528SOL     OW97480   5.080  13.227  13.763
98528SOL    HW197481   5.149  13.222  13.830
98528SOL    HW297482   5.025  13.300  13.790
98529SOL     OW97483   0.322   6.092  12.854
98529SOL    HW197484   0.226   6.087  12.853
98529SOL    HW297485   0.344   6.141  12.775
98530SOL     OW97486   4.057   8.775  13.767
98530SOL    HW197487   4.034   8.866  13.749
98530SOL    HW297488   4.121   8.752  13.701
98531SOL     OW97489   4.488   5.981   0.533
98531SOL    HW197490   4.571   5.998   0.578
98531SOL    HW297491   4.430   6.050   0.564
98532SOL     OW97492   0.893  12.288   7.360
98532SOL    HW197493   0.910  12.374   7.320
98532SOL    HW297494   0.979  12.257   7.388
98533SOL     OW97495   4.026   6.330   7.740
98533SOL    HW197496   4.095   6.271   7.770
98533SOL    HW297497   3.978   6.353   7.819
98534SOL     OW97498   0.396   0.444   4.213
98534SOL    HW197499   0.319   0.408   4.169
98534SOL    HW297500   0.436   0.502   4.147
98535SOL     OW97501   2.708  12.929  14.083
98535SOL    HW197502   2.627  12.979  14.093
98535SOL    HW297503   2.753  12.938  14.166
98536SOL     OW97504  12.192   1.512  10.588
98536SOL    HW197505  12.204   1.425  10.550
98536SOL    HW297506  12.241   1.510  10.670
98537SOL     OW97507   9.872  11.732  14.199
98537SOL    HW197508   9.854  11.707  14.289
98537SOL    HW297509   9.786  11.743  14.159
98538SOL     OW97510  13.454   7.032  11.947
98538SOL    HW197511  13.364   7.060  11.934
98538SOL    HW297512  13.500   7.112  11.976
98539SOL     OW97513   8.917   9.780  14.172
98539SOL    HW197514   8.900   9.861  14.123
98539SOL    HW297515   8.952   9.810  14.256
98540SOL     OW97516  12.223  11.627  12.184
98540SOL    HW197517  12.304  11.646  12.232
98540SOL    HW297518  12.221  11.693  12.114
98541SOL     OW97519   2.691   8.285   7.586
98541SOL    HW197520   2.680   8.201   7.541
98541SOL    HW297521   2.619   8.339   7.553
98542SOL     OW97522  10.746  10.399   7.706
98542SOL    HW197523  10.659  10.421   7.739
98542SOL    HW297524  10.731  10.373   7.615
98543SOL     OW97525   2.524   0.868  10.006
98543SOL    HW197526   2.598   0.810   9.987
98543SOL    HW297527   2.538   0.896  10.096
98544SOL     OW97528   8.522   2.082  13.853
98544SOL    HW197529   8.523   2.052  13.944
98544SOL    HW297530   8.535   2.176  13.858
98545SOL     OW97531   5.040   9.781   5.346
98545SOL    HW197532   4.988   9.765   5.425
98545SOL    HW297533   5.103   9.848   5.372
98546SOL     OW97534   3.990   3.261   1.344
98546SOL    HW197535   3.931   3.321   1.298
98546SOL    HW297536   3.953   3.174   1.329
98547SOL     OW97537  12.104   8.400   9.365
98547SOL    HW197538  12.186   8.446   9.347
98547SOL    HW297539  12.129   8.307   9.369
98548SOL     OW97540  12.088  13.966   9.079
98548SOL    HW197541  12.173  13.951   9.120
98548SOL    HW297542  12.053  14.043   9.123
98549SOL     OW97543  13.414  14.439  11.536
98549SOL    HW197544  13.428  14.513  11.595
98549SOL    HW297545  13.326  14.452  11.501
98550SOL     OW97546  12.030  12.084   2.630
98550SOL    HW197547  11.952  12.130   2.661
98550SOL    HW297548  11.998  11.999   2.600
98551SOL     OW97549   7.500  10.893  13.107
98551SOL    HW197550   7.526  10.830  13.039
98551SOL    HW297551   7.555  10.871  13.182
98552SOL     OW97552   4.507   7.494  13.010
98552SOL    HW197553   4.580   7.454  12.963
98552SOL    HW297554   4.485   7.572  12.960
98553SOL     OW97555  12.251   8.031   4.926
98553SOL    HW197556  12.261   7.946   4.883
98553SOL    HW297557  12.240   8.011   5.019
98554SOL     OW97558   6.432   9.513  14.518
98554SOL    HW197559   6.388   9.596  14.537
98554SOL    HW297560   6.363   9.457  14.484
98555SOL     OW97561   1.150  13.016  13.613
98555SOL    HW197562   1.070  12.999  13.563
98555SOL    HW297563   1.221  12.988  13.555
98556SOL     OW97564  13.632   3.416  12.089
98556SOL    HW197565  13.590   3.451  12.010
98556SOL    HW297566  13.713   3.466  12.097
98557SOL     OW97567   2.559  12.160   3.852
98557SOL    HW197568   2.520  12.221   3.915
98557SOL    HW297569   2.486  12.131   3.798
98558SOL     OW97570   9.828   2.803  14.402
98558SOL    HW197571   9.921   2.780  14.406
98558SOL    HW297572   9.783   2.719  14.391
98559SOL     OW97573   9.422   0.403   4.556
98559SOL    HW197574   9.439   0.441   4.642
98559SOL    HW297575   9.327   0.403   4.549
98560SOL     OW97576   8.086  10.559   1.594
98560SOL    HW197577   8.036  10.493   1.547
98560SOL    HW297578   8.171  10.561   1.550
98561SOL     OW97579  12.826   7.925   9.132
98561SOL    HW197580  12.777   7.855   9.089
98561SOL    HW297581  12.799   8.005   9.088
98562SOL     OW97582   2.870   1.788   5.988
98562SOL    HW197583   2.917   1.723   5.935
98562SOL    HW297584   2.883   1.758   6.078
98563SOL     OW97585   3.045  10.268   4.699
98563SOL    HW197586   3.118  10.329   4.698
98563SOL    HW297587   2.973  10.316   4.658
98564SOL     OW97588   5.603   4.932   4.156
98564SOL    HW197589   5.553   5.013   4.152
98564SOL    HW297590   5.654   4.931   4.074
98565SOL     OW97591   3.441  14.752  13.932
98565SOL    HW197592   3.410  14.662  13.934
98565SOL    HW297593   3.520  14.751  13.986
98566SOL     OW97594  14.392   0.906   9.303
98566SOL    HW197595  14.430   0.951   9.379
98566SOL    HW297596  14.311   0.952   9.285
98567SOL     OW97597   3.051   0.681   3.801
98567SOL    HW197598   3.071   0.667   3.708
98567SOL    HW297599   3.136   0.678   3.845
98568SOL     OW97600   7.770   3.072   6.162
98568SOL    HW197601   7.844   3.090   6.220
98568SOL    HW297602   7.745   3.158   6.128
98569SOL     OW97603   9.924  10.689   5.437
98569SOL    HW197604   9.876  10.765   5.469
98569SOL    HW297605  10.011  10.698   5.475
98570SOL     OW97606   7.425   9.203   1.002
98570SOL    HW197607   7.367   9.267   1.044
98570SOL    HW297608   7.480   9.254   0.944
98571SOL     OW97609  11.107  14.638   9.032
98571SOL    HW197610  11.039  14.585   8.992
98571SOL    HW297611  11.082  14.729   9.014
98572SOL     OW97612   0.930   8.285   1.499
98572SOL    HW197613   0.843   8.320   1.479
98572SOL    HW297614   0.969   8.265   1.414
98573SOL     OW97615   6.872   2.664   7.409
98573SOL    HW197616   6.868   2.657   7.504
98573SOL    HW297617   6.853   2.756   7.391
98574SOL     OW97618   4.836  12.865   6.307
98574SOL    HW197619   4.927  12.885   6.331
98574SOL    HW297620   4.784  12.929   6.355
98575SOL     OW97621  10.235   7.761   9.484
98575SOL    HW197622  10.241   7.831   9.549
98575SOL    HW297623  10.150   7.774   9.443
98576SOL     OW97624   8.532   7.868   9.897
98576SOL    HW197625   8.584   7.905   9.826
98576SOL    HW297626   8.592   7.810   9.943
98577SOL     OW97627   4.638   0.721   3.773
98577SOL    HW197628   4.674   0.736   3.861
98577SOL    HW297629   4.700   0.659   3.733
98578SOL     OW97630  13.279  10.980   0.379
98578SOL    HW197631  13.373  10.977   0.397
98578SOL    HW297632  13.241  10.915   0.438
98579SOL     OW97633  10.385  11.604   5.317
98579SOL    HW197634  10.320  11.600   5.387
98579SOL    HW297635  10.451  11.539   5.341
98580SOL     OW97636  14.570   4.301   1.326
98580SOL    HW197637  14.638   4.252   1.280
98580SOL    HW297638  14.614   4.333   1.406
98581SOL     OW97639   7.644   7.262   8.912
98581SOL    HW197640   7.689   7.181   8.934
98581SOL    HW297641   7.702   7.305   8.849
98582SOL     OW97642   8.735   5.320   1.342
98582SOL    HW197643   8.676   5.338   1.269
98582SOL    HW297644   8.815   5.288   1.301
98583SOL     OW97645   1.068   2.002   6.508
98583SOL    HW197646   1.067   1.965   6.420
98583SOL    HW297647   1.156   2.038   6.518
98584SOL     OW97648   9.482  13.698  10.633
98584SOL    HW197649   9.548  13.630  10.646
98584SOL    HW297650   9.520  13.757  10.567
98585SOL     OW97651   3.542  12.041   4.302
98585SOL    HW197652   3.475  12.058   4.236
98585SOL    HW297653   3.623  12.075   4.263
98586SOL     OW97654   6.030  11.903  10.665
98586SOL    HW197655   6.014  11.993  10.694
98586SOL    HW297656   6.074  11.861  10.739
98587SOL     OW97657  11.859   9.708   4.095
98587SOL    HW197658  11.885   9.679   4.182
98587SOL    HW297659  11.847   9.803   4.104
98588SOL     OW97660   1.877  12.521   7.997
98588SOL    HW197661   1.852  12.430   7.986
98588SOL    HW297662   1.932  12.522   8.076
98589SOL     OW97663  11.709   2.192  12.922
98589SOL    HW197664  11.693   2.286  12.913
98589SOL    HW297665  11.622   2.153  12.929
98590SOL     OW97666  10.343  13.798   4.896
98590SOL    HW197667  10.324  13.875   4.950
98590SOL    HW297668  10.438  13.792   4.895
98591SOL     OW97669   7.693   6.015  11.139
98591SOL    HW197670   7.717   5.961  11.064
98591SOL    HW297671   7.770   6.067  11.158
98592SOL     OW97672   3.145   9.191  11.452
98592SOL    HW197673   3.187   9.167  11.369
98592SOL    HW297674   3.211   9.171  11.519
98593SOL     OW97675  13.954  10.708  11.229
98593SOL    HW197676  13.932  10.799  11.249
98593SOL    HW297677  13.895  10.657  11.284
98594SOL     OW97678   8.157  13.097   8.233
98594SOL    HW197679   8.179  13.050   8.314
98594SOL    HW297680   8.240  13.101   8.186
98595SOL     OW97681   8.345  12.606   4.005
98595SOL    HW197682   8.344  12.593   3.910
98595SOL    HW297683   8.276  12.547   4.037
98596SOL     OW97684  12.948  11.229  10.272
98596SOL    HW197685  12.913  11.142  10.294
98596SOL    HW297686  12.981  11.219  10.183
98597SOL     OW97687  14.785   2.365  11.138
98597SOL    HW197688  14.702   2.374  11.092
98597SOL    HW297689  14.788   2.273  11.164
98598SOL     OW97690   8.962  10.451  12.767
98598SOL    HW197691   8.974  10.434  12.674
98598SOL    HW297692   8.992  10.371  12.810
98599SOL     OW97693   3.873   2.514  13.830
98599SOL    HW197694   3.777   2.507  13.834
98599SOL    HW297695   3.900   2.440  13.777
98600SOL     OW97696   8.631  11.095  10.183
98600SOL    HW197697   8.722  11.067  10.172
98600SOL    HW297698   8.581  11.035  10.127
98601SOL     OW97699   9.862   1.536   4.474
98601SOL    HW197700   9.917   1.467   4.509
98601SOL    HW297701   9.882   1.538   4.380
98602SOL     OW97702   8.322   1.172   8.003
98602SOL    HW197703   8.278   1.219   8.073
98602SOL    HW297704   8.408   1.213   7.997
98603SOL     OW97705   8.814   8.000   0.741
98603SOL    HW197706   8.790   8.037   0.826
98603SOL    HW297707   8.866   8.068   0.698
98604SOL     OW97708   7.039   4.008  12.948
98604SOL    HW197709   6.997   3.925  12.922
98604SOL    HW297710   7.000   4.074  12.891
98605SOL     OW97711   0.603   5.839  11.298
98605SOL    HW197712   0.668   5.901  11.267
98605SOL    HW297713   0.642   5.798  11.375
98606SOL     OW97714   0.315   8.570   8.435
98606SOL    HW197715   0.376   8.641   8.417
98606SOL    HW297716   0.333   8.505   8.366
98607SOL     OW97717   0.702   3.360  10.339
98607SOL    HW197718   0.706   3.298  10.266
98607SOL    HW297719   0.698   3.446  10.297
98608SOL     OW97720   8.664   0.583  14.871
98608SOL    HW197721   8.665   0.608  14.779
98608SOL    HW297722   8.625   0.658   0.036
98609SOL     OW97723   7.315   4.915   8.679
98609SOL    HW197724   7.252   4.922   8.750
98609SOL    HW297725   7.380   4.852   8.710
98610SOL     OW97726  13.485  11.047   2.965
98610SOL    HW197727  13.512  10.959   2.939
98610SOL    HW297728  13.391  11.040   2.979
98611SOL     OW97729   7.313   5.173   8.626
98611SOL    HW197730   7.402   5.184   8.660
98611SOL    HW297731   7.304   5.079   8.611
98612SOL     OW97732   1.110   0.223  11.201
98612SOL    HW197733   1.125   0.263  11.115
98612SOL    HW297734   1.052   0.149  11.184
98613SOL     OW97735   4.165  10.407   1.992
98613SOL    HW197736   4.253  10.442   1.979
98613SOL    HW297737   4.179  10.327   2.042
98614SOL     OW97738   1.759   5.541   9.679
98614SOL    HW197739   1.814   5.464   9.664
98614SOL    HW297740   1.751   5.581   9.592
98615SOL     OW97741   5.402   0.118   0.932
98615SOL    HW197742   5.470   0.160   0.985
98615SOL    HW297743   5.362   0.190   0.882
98616SOL     OW97744   6.326   1.218  14.822
98616SOL    HW197745   6.293   1.308  14.824
98616SOL    HW297746   6.302   1.182   0.027
98617SOL     OW97747  12.572   3.603   1.583
98617SOL    HW197748  12.530   3.598   1.497
98617SOL    HW297749  12.512   3.656   1.635
98618SOL     OW97750  14.624   5.537  14.558
98618SOL    HW197751  14.572   5.464  14.524
98618SOL    HW297752  14.625   5.523  14.652
98619SOL     OW97753   3.824   9.235   1.893
98619SOL    HW197754   3.808   9.330   1.897
98619SOL    HW297755   3.782   9.200   1.972
98620SOL     OW97756   8.588   6.545   1.679
98620SOL    HW197757   8.614   6.550   1.771
98620SOL    HW297758   8.668   6.521   1.632
98621SOL     OW97759   5.186   4.779  14.032
98621SOL    HW197760   5.197   4.874  14.021
98621SOL    HW297761   5.101   4.770  14.075
98622SOL     OW97762   1.443  11.734   1.943
98622SOL    HW197763   1.427  11.774   1.857
98622SOL    HW297764   1.455  11.641   1.924
98623SOL     OW97765   7.178   6.642   3.072
98623SOL    HW197766   7.105   6.624   3.014
98623SOL    HW297767   7.187   6.563   3.126
98624SOL     OW97768  12.341   5.251   1.871
98624SOL    HW197769  12.285   5.311   1.822
98624SOL    HW297770  12.281   5.185   1.906
98625SOL     OW97771   8.577  12.660   9.595
98625SOL    HW197772   8.517  12.607   9.646
98625SOL    HW297773   8.654  12.671   9.651
98626SOL     OW97774   6.098  12.949   6.312
98626SOL    HW197775   6.099  13.038   6.347
98626SOL    HW297776   6.037  12.902   6.369
98627SOL     OW97777   2.502   4.137   4.045
98627SOL    HW197778   2.428   4.076   4.042
98627SOL    HW297779   2.466   4.220   4.014
98628SOL     OW97780   1.073   8.510   3.401
98628SOL    HW197781   1.049   8.531   3.310
98628SOL    HW297782   1.009   8.556   3.454
98629SOL     OW97783  11.028   5.685   0.876
98629SOL    HW197784  11.041   5.636   0.795
98629SOL    HW297785  10.981   5.764   0.850
98630SOL     OW97786   5.732   3.580  13.713
98630SOL    HW197787   5.766   3.641  13.779
98630SOL    HW297788   5.648   3.551  13.748
98631SOL     OW97789  11.347   2.752  10.667
98631SOL    HW197790  11.305   2.672  10.699
98631SOL    HW297791  11.275   2.811  10.648
98632SOL     OW97792   5.679   8.477   3.023
98632SOL    HW197793   5.607   8.539   3.014
98632SOL    HW297794   5.665   8.435   3.108
98633SOL     OW97795   6.824  14.040   8.128
98633SOL    HW197796   6.805  14.043   8.222
98633SOL    HW297797   6.780  13.961   8.097
98634SOL     OW97798   9.099  10.584   7.380
98634SOL    HW197799   9.173  10.569   7.439
98634SOL    HW297800   9.026  10.607   7.439
98635SOL     OW97801   3.645   9.032   2.016
98635SOL    HW197802   3.595   9.028   1.934
98635SOL    HW297803   3.619   9.114   2.056
98636SOL     OW97804   2.970  13.940   1.637
98636SOL    HW197805   3.026  13.900   1.704
98636SOL    HW297806   3.017  13.925   1.555
98637SOL     OW97807  14.204   7.835   7.555
98637SOL    HW197808  14.151   7.761   7.583
98637SOL    HW297809  14.291   7.798   7.539
98638SOL     OW97810   0.597   0.023   5.708
98638SOL    HW197811   0.571   0.111   5.737
98638SOL    HW297812   0.628   0.035   5.618
98639SOL     OW97813  13.382   4.264   6.852
98639SOL    HW197814  13.287   4.258   6.852
98639SOL    HW297815  13.413   4.174   6.864
98640SOL     OW97816  12.152   2.395  12.405
98640SOL    HW197817  12.193   2.349  12.332
98640SOL    HW297818  12.223   2.446  12.445
98641SOL     OW97819  12.683   7.886   5.189
98641SOL    HW197820  12.690   7.939   5.268
98641SOL    HW297821  12.591   7.892   5.164
98642SOL     OW97822  10.257   0.303   8.965
98642SOL    HW197823  10.313   0.341   8.897
98642SOL    HW297824  10.317   0.255   9.022
98643SOL     OW97825   5.546   8.664  13.921
98643SOL    HW197826   5.583   8.607  13.854
98643SOL    HW297827   5.609   8.659  13.994
98644SOL     OW97828  10.897   6.504   8.609
98644SOL    HW197829  10.988   6.475   8.599
98644SOL    HW297830  10.870   6.530   8.521
98645SOL     OW97831   4.808  13.335   5.134
98645SOL    HW197832   4.853  13.252   5.119
98645SOL    HW297833   4.799  13.373   5.046
98646SOL     OW97834   3.976  11.935   9.442
98646SOL    HW197835   3.926  11.906   9.518
98646SOL    HW297836   3.982  11.857   9.386
98647SOL     OW97837  12.213   7.690  10.195
98647SOL    HW197838  12.196   7.696  10.289
98647SOL    HW297839  12.163   7.614  10.166
98648SOL     OW97840  13.328   4.543   9.101
98648SOL    HW197841  13.340   4.511   9.190
98648SOL    HW297842  13.351   4.468   9.045
98649SOL     OW97843   6.721   1.189   5.939
98649SOL    HW197844   6.645   1.204   5.883
98649SOL    HW297845   6.767   1.115   5.898
98650SOL     OW97846   6.972  14.786  10.545
98650SOL    HW197847   6.989  14.781  10.451
98650SOL    HW297848   6.991  14.877  10.567
98651SOL     OW97849   4.466  11.957  12.379
98651SOL    HW197850   4.532  12.026  12.393
98651SOL    HW297851   4.485  11.893  12.448
98652SOL     OW97852   2.207  12.143  12.146
98652SOL    HW197853   2.294  12.184  12.142
98652SOL    HW297854   2.148  12.209  12.109
98653SOL     OW97855   2.145  12.809  13.946
98653SOL    HW197856   2.126  12.815  13.852
98653SOL    HW297857   2.226  12.760  13.951
98654SOL     OW97858   2.087   5.089  12.650
98654SOL    HW197859   2.103   5.084  12.744
98654SOL    HW297860   2.098   4.999  12.618
98655SOL     OW97861   1.428  12.073   8.825
98655SOL    HW197862   1.392  12.077   8.914
98655SOL    HW297863   1.482  11.994   8.825
98656SOL     OW97864  13.213  13.089  12.145
98656SOL    HW197865  13.261  13.092  12.228
98656SOL    HW297866  13.281  13.091  12.078
98657SOL     OW97867   6.700  12.381   7.018
98657SOL    HW197868   6.692  12.411   7.108
98657SOL    HW297869   6.610  12.362   6.991
98658SOL     OW97870  14.571  10.050  10.293
98658SOL    HW197871  14.511  10.078  10.363
98658SOL    HW297872  14.525   9.980  10.248
98659SOL     OW97873  11.979  14.749   2.341
98659SOL    HW197874  12.013  14.824   2.389
98659SOL    HW297875  11.994  14.770   2.249
98660SOL     OW97876   6.849   7.990   0.908
98660SOL    HW197877   6.867   7.983   1.002
98660SOL    HW297878   6.851   7.899   0.877
98661SOL     OW97879  10.848   3.985   2.330
98661SOL    HW197880  10.805   4.047   2.389
98661SOL    HW297881  10.776   3.939   2.287
98662SOL     OW97882  12.129   0.940   4.534
98662SOL    HW197883  12.108   1.022   4.579
98662SOL    HW297884  12.126   0.963   4.441
98663SOL     OW97885  11.086  10.143  12.089
98663SOL    HW197886  11.024  10.073  12.068
98663SOL    HW297887  11.063  10.214  12.029
98664SOL     OW97888   6.914   9.985  13.701
98664SOL    HW197889   6.869   9.900  13.708
98664SOL    HW297890   6.857  10.046  13.747
98665SOL     OW97891   1.349   6.578  13.334
98665SOL    HW197892   1.416   6.608  13.272
98665SOL    HW297893   1.385   6.498  13.372
98666SOL     OW97894   1.140  10.348   2.786
98666SOL    HW197895   1.139  10.364   2.881
98666SOL    HW297896   1.171  10.430   2.748
98667SOL     OW97897   1.377   7.367  13.445
98667SOL    HW197898   1.315   7.315  13.393
98667SOL    HW297899   1.450   7.308  13.461
98668SOL     OW97900  10.576   7.942   5.966
98668SOL    HW197901  10.631   8.020   5.957
98668SOL    HW297902  10.522   7.941   5.887
98669SOL     OW97903   0.491  10.040  11.456
98669SOL    HW197904   0.554   9.968  11.447
98669SOL    HW297905   0.460  10.056  11.367
98670SOL     OW97906  12.778   3.085  12.976
98670SOL    HW197907  12.819   3.146  12.914
98670SOL    HW297908  12.847   3.064  13.039
98671SOL     OW97909   4.216  14.581   9.319
98671SOL    HW197910   4.136  14.624   9.349
98671SOL    HW297911   4.227  14.507   9.378
98672SOL     OW97912  11.523  10.040  10.498
98672SOL    HW197913  11.604  10.020  10.451
98672SOL    HW297914  11.499  10.127  10.466
98673SOL     OW97915   0.985  14.773   3.428
98673SOL    HW197916   0.942  14.788   3.512
98673SOL    HW297917   1.013  14.682   3.431
98674SOL     OW97918   6.630  12.576   0.694
98674SOL    HW197919   6.699  12.642   0.705
98674SOL    HW297920   6.678  12.495   0.677
98675SOL     OW97921   8.919   2.394   2.609
98675SOL    HW197922   8.829   2.399   2.641
98675SOL    HW297923   8.925   2.308   2.568
98676SOL     OW97924  11.203   4.680   2.695
98676SOL    HW197925  11.270   4.622   2.659
98676SOL    HW297926  11.140   4.693   2.625
98677SOL     OW97927   4.808   3.638  13.284
98677SOL    HW197928   4.816   3.727  13.317
98677SOL    HW297929   4.895   3.599  13.297
98678SOL     OW97930   4.902   5.200  13.515
98678SOL    HW197931   4.989   5.216  13.478
98678SOL    HW297932   4.904   5.244  13.600
98679SOL     OW97933   5.998   6.872  14.393
98679SOL    HW197934   6.079   6.870  14.444
98679SOL    HW297935   5.938   6.814  14.441
98680SOL     OW97936   7.185  12.804   1.531
98680SOL    HW197937   7.221  12.740   1.469
98680SOL    HW297938   7.210  12.771   1.617
98681SOL     OW97939   4.223  12.803  11.591
98681SOL    HW197940   4.172  12.810  11.510
98681SOL    HW297941   4.288  12.873  11.585
98682SOL     OW97942   3.560   1.312  12.163
98682SOL    HW197943   3.537   1.405  12.174
98682SOL    HW297944   3.581   1.282  12.251
98683SOL     OW97945   8.697   8.467   3.006
98683SOL    HW197946   8.623   8.413   2.978
98683SOL    HW297947   8.743   8.489   2.925
98684SOL     OW97948   3.686   4.618   0.775
98684SOL    HW197949   3.666   4.581   0.860
98684SOL    HW297950   3.643   4.559   0.712
98685SOL     OW97951  11.104  13.242   7.652
98685SOL    HW197952  11.134  13.192   7.728
98685SOL    HW297953  11.168  13.313   7.644
98686SOL     OW97954   7.436  12.512  12.368
98686SOL    HW197955   7.523  12.501  12.329
98686SOL    HW297956   7.380  12.539  12.294
98687SOL     OW97957   7.999   5.661   1.587
98687SOL    HW197958   7.999   5.713   1.668
98687SOL    HW297959   8.090   5.661   1.559
98688SOL     OW97960   6.074  10.472   6.296
98688SOL    HW197961   6.126  10.544   6.331
98688SOL    HW297962   5.989  10.480   6.340
98689SOL     OW97963  13.752  11.058   8.646
98689SOL    HW197964  13.709  11.132   8.688
98689SOL    HW297965  13.842  11.061   8.679
98690SOL     OW97966   8.743   5.997   7.487
98690SOL    HW197967   8.765   6.081   7.446
98690SOL    HW297968   8.828   5.953   7.497
98691SOL     OW97969   9.645   3.387   6.010
98691SOL    HW197970   9.663   3.420   6.098
98691SOL    HW297971   9.722   3.413   5.959
98692SOL     OW97972   0.823   5.008   7.347
98692SOL    HW197973   0.860   5.078   7.400
98692SOL    HW297974   0.763   4.962   7.405
98693SOL     OW97975   2.587  11.137  13.901
98693SOL    HW197976   2.496  11.155  13.926
98693SOL    HW297977   2.636  11.141  13.984
98694SOL     OW97978   3.092   3.716  10.483
98694SOL    HW197979   3.121   3.693  10.395
98694SOL    HW297980   3.000   3.692  10.486
98695SOL     OW97981   3.821  13.930   0.922
98695SOL    HW197982   3.785  13.877   0.851
98695SOL    HW297983   3.886  13.874   0.963
98696SOL     OW97984   5.424   5.851   2.491
98696SOL    HW197985   5.485   5.852   2.565
98696SOL    HW297986   5.366   5.925   2.507
98697SOL     OW97987   9.487   5.012  13.937
98697SOL    HW197988   9.567   5.050  13.902
98697SOL    HW297989   9.507   4.996  14.029
98698SOL     OW97990   1.348   0.735   7.976
98698SOL    HW197991   1.365   0.814   7.924
98698SOL    HW297992   1.262   0.751   8.015
98699SOL     OW97993  14.690   8.733   0.560
98699SOL    HW197994  14.700   8.805   0.497
98699SOL    HW297995  14.616   8.759   0.614
98700SOL     OW97996   5.548   6.152  10.432
98700SOL    HW197997   5.548   6.195  10.346
98700SOL    HW297998   5.456   6.130  10.447
98701SOL     OW97999   5.391  11.700   5.530
98701SOL    HW198000   5.437  11.711   5.613
98701SOL    HW298001   5.303  11.670   5.554
98702SOL     OW98002  13.133   5.302   0.954
98702SOL    HW198003  13.040   5.296   0.977
98702SOL    HW298004  13.163   5.381   0.999
98703SOL     OW98005  13.953   7.894   2.528
98703SOL    HW198006  13.963   7.944   2.610
98703SOL    HW298007  14.038   7.904   2.484
98704SOL     OW98008   9.714  12.310   5.331
98704SOL    HW198009   9.671  12.387   5.368
98704SOL    HW298010   9.648  12.241   5.335
98705SOL     OW98011   8.590   2.985   2.355
98705SOL    HW198012   8.667   2.942   2.317
98705SOL    HW298013   8.522   2.917   2.355
98706SOL     OW98014   4.642   8.460   7.201
98706SOL    HW198015   4.628   8.513   7.123
98706SOL    HW298016   4.636   8.370   7.170
98707SOL     OW98017  12.172  10.378   8.010
98707SOL    HW198018  12.122  10.433   7.950
98707SOL    HW298019  12.222  10.319   7.953
98708SOL     OW98020   7.956   3.607   5.481
98708SOL    HW198021   7.869   3.586   5.516
98708SOL    HW298022   7.975   3.694   5.515
98709SOL     OW98023  12.224  10.779   6.497
98709SOL    HW198024  12.214  10.855   6.554
98709SOL    HW298025  12.142  10.731   6.506
98710SOL     OW98026   1.169   1.817   9.577
98710SOL    HW198027   1.150   1.899   9.622
98710SOL    HW298028   1.133   1.749   9.634
98711SOL     OW98029  12.440   4.604   2.039
98711SOL    HW198030  12.483   4.689   2.048
98711SOL    HW298031  12.361   4.623   1.988
98712SOL     OW98032   9.155  11.731  11.099
98712SOL    HW198033   9.194  11.819  11.099
98712SOL    HW298034   9.226  11.674  11.127
98713SOL     OW98035   6.900   1.338  12.881
98713SOL    HW198036   6.832   1.296  12.933
98713SOL    HW298037   6.885   1.432  12.894
98714SOL     OW98038   7.692  11.184   7.418
98714SOL    HW198039   7.658  11.265   7.380
98714SOL    HW298040   7.786  11.199   7.428
98715SOL     OW98041  14.095   3.067   8.168
98715SOL    HW198042  14.095   3.116   8.250
98715SOL    HW298043  14.096   2.975   8.194
98716SOL     OW98044   0.198   5.438  12.541
98716SOL    HW198045   0.228   5.430  12.451
98716SOL    HW298046   0.123   5.498  12.537
98717SOL     OW98047  10.010   4.701   2.530
98717SOL    HW198048  10.092   4.651   2.532
98717SOL    HW298049   9.951   4.651   2.586
98718SOL     OW98050  12.589   0.428   6.223
98718SOL    HW198051  12.519   0.386   6.173
98718SOL    HW298052  12.546   0.465   6.299
98719SOL     OW98053   7.882  10.913  12.866
98719SOL    HW198054   7.964  10.880  12.831
98719SOL    HW298055   7.827  10.835  12.876
98720SOL     OW98056  14.268   5.379   1.677
98720SOL    HW198057  14.228   5.332   1.604
98720SOL    HW298058  14.196   5.392   1.739
98721SOL     OW98059   1.122   4.716   2.954
98721SOL    HW198060   1.206   4.670   2.953
98721SOL    HW298061   1.111   4.748   2.865
98722SOL     OW98062   8.408  14.231   6.371
98722SOL    HW198063   8.337  14.167   6.362
98722SOL    HW298064   8.373  14.296   6.432
98723SOL     OW98065  11.396   5.982   4.032
98723SOL    HW198066  11.450   5.903   4.037
98723SOL    HW298067  11.306   5.949   4.026
98724SOL     OW98068  11.141   7.215   7.814
98724SOL    HW198069  11.064   7.220   7.757
98724SOL    HW298070  11.215   7.233   7.756
98725SOL     OW98071   3.296  14.062  10.183
98725SOL    HW198072   3.279  13.971  10.160
98725SOL    HW298073   3.244  14.077  10.262
98726SOL     OW98074   6.216   2.797  13.605
98726SOL    HW198075   6.215   2.822  13.512
98726SOL    HW298076   6.234   2.703  13.604
98727SOL     OW98077   4.658   8.702  14.625
98727SOL    HW198078   4.677   8.696  14.531
98727SOL    HW298079   4.718   8.769  14.658
98728SOL     OW98080  10.468  12.875   5.331
98728SOL    HW198081  10.483  12.784   5.355
98728SOL    HW298082  10.425  12.914   5.406
98729SOL     OW98083   9.898  13.109   9.380
98729SOL    HW198084   9.958  13.133   9.309
98729SOL    HW298085   9.942  13.141   9.459
98730SOL     OW98086  10.504   9.182   3.459
98730SOL    HW198087  10.427   9.151   3.506
98730SOL    HW298088  10.573   9.120   3.482
98731SOL     OW98089   7.113  10.126  12.852
98731SOL    HW198090   7.115  10.060  12.783
98731SOL    HW298091   7.102  10.076  12.933
98732SOL     OW98092  13.856   2.090   8.623
98732SOL    HW198093  13.863   2.151   8.697
98732SOL    HW298094  13.767   2.103   8.589
98733SOL     OW98095  10.995  14.783  10.940
98733SOL    HW198096  11.041  14.699  10.935
98733SOL    HW298097  10.978  14.807  10.849
98734SOL     OW98098   0.430   5.457  11.740
98734SOL    HW198099   0.486   5.388  11.705
98734SOL    HW298100   0.341   5.421  11.734
98735SOL     OW98101   3.042   5.691  11.383
98735SOL    HW198102   3.133   5.720  11.386
98735SOL    HW298103   3.042   5.617  11.322
98736SOL     OW98104   3.235   9.646  12.634
98736SOL    HW198105   3.159   9.681  12.680
98736SOL    HW298106   3.276   9.586  12.697
98737SOL     OW98107  11.983   3.854  11.860
98737SOL    HW198108  11.990   3.784  11.795
98737SOL    HW298109  12.074   3.880  11.876
98738SOL     OW98110   0.570   6.199  13.447
98738SOL    HW198111   0.622   6.134  13.494
98738SOL    HW298112   0.572   6.170  13.356
98739SOL     OW98113  14.316  14.642   3.629
98739SOL    HW198114  14.295  14.693   3.707
98739SOL    HW298115  14.278  14.692   3.557
98740SOL     OW98116  14.079  10.315  13.598
98740SOL    HW198117  14.091  10.278  13.511
98740SOL    HW298118  14.165  10.310  13.640
98741SOL     OW98119  14.408   4.520  13.311
98741SOL    HW198120  14.418   4.612  13.287
98741SOL    HW298121  14.325   4.517  13.359
98742SOL     OW98122   5.246   6.009  10.185
98742SOL    HW198123   5.250   5.945  10.114
98742SOL    HW298124   5.233   5.956  10.264
98743SOL     OW98125   0.366  10.223  14.230
98743SOL    HW198126   0.438  10.284  14.242
98743SOL    HW298127   0.352  10.185  14.317
98744SOL     OW98128   4.810  13.716   1.346
98744SOL    HW198129   4.734  13.772   1.327
98744SOL    HW298130   4.859  13.765   1.412
98745SOL     OW98131   6.003  12.488  11.646
98745SOL    HW198132   5.964  12.551  11.706
98745SOL    HW298133   5.932  12.426  11.627
98746SOL     OW98134  11.574   4.771   7.959
98746SOL    HW198135  11.665   4.768   7.988
98746SOL    HW298136  11.523   4.747   8.037
98747SOL     OW98137   0.853   6.455   3.490
98747SOL    HW198138   0.811   6.451   3.404
98747SOL    HW298139   0.932   6.402   3.480
98748SOL     OW98140  11.170  11.468   9.040
98748SOL    HW198141  11.148  11.443   8.950
98748SOL    HW298142  11.121  11.549   9.055
98749SOL     OW98143  10.083   6.379  14.299
98749SOL    HW198144  10.106   6.465  14.263
98749SOL    HW298145  10.055   6.397  14.389
98750SOL     OW98146  14.284  13.321   2.196
98750SOL    HW198147  14.316  13.235   2.226
98750SOL    HW298148  14.214  13.342   2.258
98751SOL     OW98149   3.359   3.597   1.102
98751SOL    HW198150   3.414   3.664   1.143
98751SOL    HW298151   3.420   3.544   1.051
98752SOL     OW98152  14.462   2.177  12.000
98752SOL    HW198153  14.493   2.262  12.029
98752SOL    HW298154  14.382   2.196  11.951
98753SOL     OW98155  11.093  14.349   3.133
98753SOL    HW198156  11.128  14.438   3.142
98753SOL    HW298157  11.111  14.308   3.218
98754SOL     OW98158   1.399   9.064   9.809
98754SOL    HW198159   1.308   9.052   9.835
98754SOL    HW298160   1.409   9.159   9.798
98755SOL     OW98161   1.433   1.847   7.535
98755SOL    HW198162   1.459   1.859   7.626
98755SOL    HW298163   1.376   1.921   7.515
98756SOL     OW98164   1.610  12.576  13.208
98756SOL    HW198165   1.660  12.630  13.147
98756SOL    HW298166   1.556  12.520  13.151
98757SOL     OW98167   7.954  12.847   4.393
98757SOL    HW198168   7.869  12.844   4.437
98757SOL    HW298169   7.944  12.788   4.318
98758SOL     OW98170  11.411   4.435   3.350
98758SOL    HW198171  11.429   4.421   3.443
98758SOL    HW298172  11.379   4.351   3.318
98759SOL     OW98173   2.751   5.592   2.559
98759SOL    HW198174   2.816   5.576   2.628
98759SOL    HW298175   2.704   5.670   2.589
98760SOL     OW98176   3.643  12.834   2.319
98760SOL    HW198177   3.691  12.830   2.401
98760SOL    HW298178   3.646  12.927   2.294
98761SOL     OW98179   6.715  10.710   2.987
98761SOL    HW198180   6.644  10.652   2.958
98761SOL    HW298181   6.767  10.656   3.047
98762SOL     OW98182   7.924   5.753   4.712
98762SOL    HW198183   7.938   5.791   4.625
98762SOL    HW298184   7.900   5.827   4.767
98763SOL     OW98185   4.709   8.604  11.406
98763SOL    HW198186   4.651   8.542  11.451
98763SOL    HW298187   4.719   8.567  11.318
98764SOL     OW98188   7.140   2.486   6.175
98764SOL    HW198189   7.074   2.550   6.149
98764SOL    HW298190   7.224   2.532   6.163
98765SOL     OW98191  11.133   4.922   4.308
98765SOL    HW198192  11.053   4.870   4.315
98765SOL    HW298193  11.113   5.004   4.355
98766SOL     OW98194   7.783   5.629   9.254
98766SOL    HW198195   7.803   5.720   9.229
98766SOL    HW298196   7.816   5.621   9.343
98767SOL     OW98197   8.101  13.646  14.833
98767SOL    HW198198   8.059  13.695  14.762
98767SOL    HW298199   8.035  13.582  14.859
98768SOL     OW98200   2.271   1.576   6.493
98768SOL    HW198201   2.235   1.656   6.456
98768SOL    HW298202   2.195   1.520   6.511
98769SOL     OW98203   8.165   7.722   8.678
98769SOL    HW198204   8.186   7.766   8.761
98769SOL    HW298205   8.087   7.670   8.698
98770SOL     OW98206  11.000   0.729  14.456
98770SOL    HW198207  11.066   0.659  14.450
98770SOL    HW298208  10.926   0.697  14.404
98771SOL     OW98209  13.967   1.170  13.001
98771SOL    HW198210  13.949   1.111  12.927
98771SOL    HW298211  14.018   1.241  12.963
98772SOL     OW98212   8.769   1.896   2.441
98772SOL    HW198213   8.839   1.831   2.436
98772SOL    HW298214   8.750   1.918   2.350
98773SOL     OW98215   6.396   2.134   9.057
98773SOL    HW198216   6.338   2.172   8.992
98773SOL    HW298217   6.435   2.210   9.102
98774SOL     OW98218  14.747   9.622   1.757
98774SOL    HW198219  14.780   9.549   1.808
98774SOL    HW298220  14.720   9.687   1.823
98775SOL     OW98221   4.448   8.582  14.153
98775SOL    HW198222   4.463   8.576  14.058
98775SOL    HW298223   4.465   8.494  14.186
98776SOL     OW98224   9.504   7.049  11.376
98776SOL    HW198225   9.417   7.013  11.390
98776SOL    HW298226   9.563   6.988  11.419
98777SOL     OW98227   8.087   0.983  10.162
98777SOL    HW198228   8.054   0.914  10.104
98777SOL    HW298229   8.077   1.063  10.110
98778SOL     OW98230  10.519   3.772  11.977
98778SOL    HW198231  10.482   3.821  12.051
98778SOL    HW298232  10.445   3.722  11.942
98779SOL     OW98233  13.953   7.140   7.506
98779SOL    HW198234  13.899   7.080   7.455
98779SOL    HW298235  14.040   7.100   7.507
98780SOL     OW98236   0.541   3.741   7.499
98780SOL    HW198237   0.544   3.729   7.404
98780SOL    HW298238   0.574   3.830   7.513
98781SOL     OW98239   4.706  13.497   8.374
98781SOL    HW198240   4.770  13.433   8.403
98781SOL    HW298241   4.758  13.568   8.335
98782SOL     OW98242  14.460  13.728  12.428
98782SOL    HW198243  14.461  13.824  12.425
98782SOL    HW298244  14.406  13.707  12.504
98783SOL     OW98245   3.678  11.928  10.266
98783SOL    HW198246   3.634  11.964  10.189
98783SOL    HW298247   3.736  11.997  10.296
98784SOL     OW98248  11.938   7.464   0.940
98784SOL    HW198249  11.843   7.470   0.939
98784SOL    HW298250  11.959   7.436   1.030
98785SOL     OW98251   6.325   3.117   5.383
98785SOL    HW198252   6.359   3.036   5.422
98785SOL    HW298253   6.230   3.109   5.394
98786SOL     OW98254  12.649   9.808  10.538
98786SOL    HW198255  12.579   9.868  10.565
98786SOL    HW298256  12.720   9.865  10.510
98787SOL     OW98257   5.464   4.882  13.084
98787SOL    HW198258   5.369   4.872  13.089
98787SOL    HW298259   5.481   4.970  13.119
98788SOL     OW98260   8.858   5.931  12.455
98788SOL    HW198261   8.840   5.840  12.477
98788SOL    HW298262   8.954   5.938  12.457
98789SOL     OW98263  14.288   7.488   0.333
98789SOL    HW198264  14.281   7.472   0.239
98789SOL    HW298265  14.210   7.539   0.355
98790SOL     OW98266  10.752  11.180  11.460
98790SOL    HW198267  10.793  11.205  11.378
98790SOL    HW298268  10.752  11.260  11.513
98791SOL     OW98269   5.730   0.090   4.122
98791SOL    HW198270   5.708   0.148   4.049
98791SOL    HW298271   5.785   0.022   4.083
98792SOL     OW98272  13.894  10.246   0.045
98792SOL    HW198273  13.911  10.284  14.839
98792SOL    HW298274  13.929  10.310   0.107
98793SOL     OW98275   9.504   9.947   7.671
98793SOL    HW198276   9.408   9.951   7.669
98793SOL    HW298277   9.523   9.854   7.675
98794SOL     OW98278   4.528  14.293  13.508
98794SOL    HW198279   4.499  14.364  13.451
98794SOL    HW298280   4.459  14.228  13.503
98795SOL     OW98281   9.098   1.516  11.565
98795SOL    HW198282   9.179   1.507  11.617
98795SOL    HW298283   9.127   1.513  11.474
98796SOL     OW98284   1.799   7.322   9.748
98796SOL    HW198285   1.723   7.378   9.763
98796SOL    HW298286   1.872   7.384   9.740
98797SOL     OW98287  13.484  11.823  12.914
98797SOL    HW198288  13.473  11.734  12.883
98797SOL    HW298289  13.460  11.820  13.006
98798SOL     OW98290   2.321   0.935   2.276
98798SOL    HW198291   2.298   0.989   2.200
98798SOL    HW298292   2.398   0.886   2.248
98799SOL     OW98293  13.345  14.329   6.557
98799SOL    HW198294  13.273  14.266   6.558
98799SOL    HW298295  13.317  14.397   6.618
98800SOL     OW98296  10.704  11.206   2.501
98800SOL    HW198297  10.761  11.283   2.494
98800SOL    HW298298  10.630  11.226   2.443
98801SOL     OW98299   4.128  10.181   6.524
98801SOL    HW198300   4.202  10.155   6.579
98801SOL    HW298301   4.150  10.269   6.494
98802SOL     OW98302   6.073   4.034   5.376
98802SOL    HW198303   6.150   4.021   5.321
98802SOL    HW298304   6.089   4.117   5.420
98803SOL     OW98305  11.944   5.521   3.326
98803SOL    HW198306  12.017   5.577   3.297
98803SOL    HW298307  11.985   5.455   3.382
98804SOL     OW98308   9.594  13.675   4.662
98804SOL    HW198309   9.546  13.596   4.637
98804SOL    HW298310   9.542  13.747   4.628
98805SOL     OW98311   2.518   8.765   8.964
98805SOL    HW198312   2.468   8.694   8.924
98805SOL    HW298313   2.563   8.724   9.038
98806SOL     OW98314   4.767   6.882   6.729
98806SOL    HW198315   4.826   6.954   6.753
98806SOL    HW298316   4.684   6.906   6.770
98807SOL     OW98317  11.182   4.608   9.627
98807SOL    HW198318  11.163   4.611   9.533
98807SOL    HW298319  11.274   4.632   9.633
98808SOL     OW98320   6.025  13.729   8.305
98808SOL    HW198321   6.043  13.636   8.288
98808SOL    HW298322   5.962  13.729   8.377
98809SOL     OW98323   6.451   7.713   6.513
98809SOL    HW198324   6.368   7.734   6.555
98809SOL    HW298325   6.465   7.784   6.450
98810SOL     OW98326  14.645   4.609  11.969
98810SOL    HW198327  14.569   4.590  11.915
98810SOL    HW298328  14.610   4.620  12.057
98811SOL     OW98329  14.329   5.677   0.992
98811SOL    HW198330  14.306   5.602   1.046
98811SOL    HW298331  14.413   5.654   0.953
98812SOL     OW98332   7.109   1.754  10.759
98812SOL    HW198333   7.102   1.839  10.715
98812SOL    HW298334   7.025   1.711  10.742
98813SOL     OW98335   7.870   9.583   2.879
98813SOL    HW198336   7.791   9.636   2.865
98813SOL    HW298337   7.938   9.647   2.898
98814SOL     OW98338  14.363   7.492   6.561
98814SOL    HW198339  14.295   7.444   6.607
98814SOL    HW298340  14.390   7.560   6.624
98815SOL     OW98341   5.845   3.468   7.663
98815SOL    HW198342   5.768   3.524   7.655
98815SOL    HW298343   5.877   3.485   7.752
98816SOL     OW98344  10.624   9.821   2.340
98816SOL    HW198345  10.622   9.876   2.262
98816SOL    HW298346  10.663   9.876   2.408
98817SOL     OW98347  14.135   3.787  14.535
98817SOL    HW198348  14.066   3.780  14.470
98817SOL    HW298349  14.154   3.697  14.560
98818SOL     OW98350   6.286  12.130  12.400
98818SOL    HW198351   6.247  12.048  12.430
98818SOL    HW298352   6.213  12.180  12.363
98819SOL     OW98353   5.369   1.150   1.380
98819SOL    HW198354   5.348   1.240   1.356
98819SOL    HW298355   5.411   1.157   1.466
98820SOL     OW98356  12.325   1.489   5.048
98820SOL    HW198357  12.368   1.427   5.107
98820SOL    HW298358  12.260   1.437   5.001
98821SOL     OW98359   2.221   2.508   2.129
98821SOL    HW198360   2.245   2.418   2.149
98821SOL    HW298361   2.249   2.521   2.038
98822SOL     OW98362   1.092  12.171   5.052
98822SOL    HW198363   1.060  12.142   4.966
98822SOL    HW298364   1.053  12.257   5.065
98823SOL     OW98365   4.217   1.080   4.136
98823SOL    HW198366   4.178   1.027   4.067
98823SOL    HW298367   4.229   1.167   4.096
98824SOL     OW98368   7.215  11.139  10.310
98824SOL    HW198369   7.301  11.099  10.296
98824SOL    HW298370   7.152  11.069  10.292
98825SOL     OW98371   3.359  10.674   8.276
98825SOL    HW198372   3.343  10.607   8.342
98825SOL    HW298373   3.281  10.673   8.221
98826SOL     OW98374  11.431   6.416   6.988
98826SOL    HW198375  11.497   6.475   7.022
98826SOL    HW298376  11.350   6.466   6.988
98827SOL     OW98377   0.349  11.460   7.280
98827SOL    HW198378   0.272  11.426   7.325
98827SOL    HW298379   0.415  11.392   7.290
98828SOL     OW98380   8.254   1.549   4.108
98828SOL    HW198381   8.290   1.473   4.156
98828SOL    HW298382   8.255   1.620   4.172
98829SOL     OW98383  13.926   5.074  14.866
98829SOL    HW198384  13.846   5.023  14.858
98829SOL    HW298385  13.949   5.098  14.776
98830SOL     OW98386   0.722   1.278   9.032
98830SOL    HW198387   0.641   1.246   8.993
98830SOL    HW298388   0.698   1.364   9.068
98831SOL     OW98389  14.003   4.018   6.649
98831SOL    HW198390  13.921   3.996   6.605
98831SOL    HW298391  13.977   4.068   6.727
98832SOL     OW98392   1.904   9.871  12.700
98832SOL    HW198393   1.861   9.897  12.618
98832SOL    HW298394   1.867   9.929  12.766
98833SOL     OW98395   2.125  12.501  14.582
98833SOL    HW198396   2.149  12.408  14.577
98833SOL    HW298397   2.030  12.501  14.588
98834SOL     OW98398  14.020  11.030   2.599
98834SOL    HW198399  14.039  11.041   2.506
98834SOL    HW298400  13.955  11.098   2.618
98835SOL     OW98401  14.717   3.128   5.654
98835SOL    HW198402  14.635   3.124   5.703
98835SOL    HW298403  14.709   3.206   5.600
98836SOL     OW98404   4.605   5.630   2.824
98836SOL    HW198405   4.639   5.608   2.737
98836SOL    HW298406   4.555   5.711   2.809
98837SOL     OW98407   4.544  10.630   0.419
98837SOL    HW198408   4.575  10.645   0.330
98837SOL    HW298409   4.510  10.714   0.448
98838SOL     OW98410  14.633  10.460   3.830
98838SOL    HW198411  14.621  10.483   3.738
98838SOL    HW298412  14.547  10.473   3.870
98839SOL     OW98413  11.773  12.458   5.356
98839SOL    HW198414  11.697  12.425   5.309
98839SOL    HW298415  11.769  12.417   5.442
98840SOL     OW98416   7.665   5.523   0.232
98840SOL    HW198417   7.697   5.443   0.273
98840SOL    HW298418   7.695   5.594   0.289
98841SOL     OW98419   7.579   0.072  12.977
98841SOL    HW198420   7.592   0.167  12.979
98841SOL    HW298421   7.642   0.041  12.911
98842SOL     OW98422  10.697   8.664   2.714
98842SOL    HW198423  10.629   8.667   2.781
98842SOL    HW298424  10.738   8.750   2.717
98843SOL     OW98425   7.734   8.531  12.166
98843SOL    HW198426   7.794   8.458  12.147
98843SOL    HW298427   7.695   8.551  12.081
98844SOL     OW98428   9.594   4.205   2.057
98844SOL    HW198429   9.625   4.115   2.070
98844SOL    HW298430   9.582   4.240   2.145
98845SOL     OW98431   5.842   4.581  14.379
98845SOL    HW198432   5.936   4.599  14.385
98845SOL    HW298433   5.815   4.565  14.470
98846SOL     OW98434   7.435   0.193   6.141
98846SOL    HW198435   7.508   0.231   6.189
98846SOL    HW298436   7.424   0.250   6.065
98847SOL     OW98437  11.901   6.163  12.722
98847SOL    HW198438  11.970   6.218  12.683
98847SOL    HW298439  11.880   6.207  12.804
98848SOL     OW98440   5.845   8.099   7.506
98848SOL    HW198441   5.769   8.080   7.451
98848SOL    HW298442   5.875   8.013   7.537
98849SOL     OW98443  13.361   1.311   2.529
98849SOL    HW198444  13.426   1.375   2.557
98849SOL    HW298445  13.355   1.249   2.602
98850SOL     OW98446   4.820   8.755   1.329
98850SOL    HW198447   4.815   8.744   1.424
98850SOL    HW298448   4.853   8.670   1.297
98851SOL     OW98449   9.998   9.401  12.402
98851SOL    HW198450  10.014   9.355  12.484
98851SOL    HW298451  10.085   9.421  12.368
98852SOL     OW98452  10.894  14.303  13.434
98852SOL    HW198453  10.964  14.301  13.499
98852SOL    HW298454  10.932  14.264  13.356
98853SOL     OW98455   6.162  13.779   7.929
98853SOL    HW198456   6.112  13.847   7.884
98853SOL    HW298457   6.252  13.813   7.931
98854SOL     OW98458  10.529  14.107  13.343
98854SOL    HW198459  10.510  14.019  13.374
98854SOL    HW298460  10.510  14.104  13.249
98855SOL     OW98461   9.783   1.050   4.834
98855SOL    HW198462   9.789   1.143   4.857
98855SOL    HW298463   9.806   1.047   4.741
98856SOL     OW98464   7.582   5.696   4.709
98856SOL    HW198465   7.546   5.644   4.638
98856SOL    HW298466   7.519   5.767   4.722
98857SOL     OW98467  12.465   8.572   4.927
98857SOL    HW198468  12.470   8.662   4.960
98857SOL    HW298469  12.422   8.523   4.997
98858SOL     OW98470   0.851   5.506   3.489
98858SOL    HW198471   0.898   5.541   3.564
98858SOL    HW298472   0.859   5.411   3.497
98859SOL     OW98473  12.736  10.387  14.199
98859SOL    HW198474  12.807  10.432  14.154
98859SOL    HW298475  12.777  10.310  14.240
98860SOL     OW98476  10.620   3.565   1.024
98860SOL    HW198477  10.611   3.534   0.934
98860SOL    HW298478  10.575   3.649   1.025
98861SOL     OW98479  13.880  10.543   6.777
98861SOL    HW198480  13.814  10.592   6.728
98861SOL    HW298481  13.947  10.608   6.800
98862SOL     OW98482   1.149   3.269  10.653
98862SOL    HW198483   1.072   3.212  10.658
98862SOL    HW298484   1.138   3.330  10.727
98863SOL     OW98485   9.768   6.488   0.611
98863SOL    HW198486   9.856   6.521   0.593
98863SOL    HW298487   9.781   6.395   0.632
98864SOL     OW98488  11.379   8.351   5.042
98864SOL    HW198489  11.358   8.319   4.954
98864SOL    HW298490  11.323   8.428   5.053
98865SOL     OW98491   5.039   8.649   5.454
98865SOL    HW198492   4.946   8.668   5.461
98865SOL    HW298493   5.069   8.641   5.545
98866SOL     OW98494   7.191   4.911   2.647
98866SOL    HW198495   7.215   4.835   2.699
98866SOL    HW298496   7.197   4.985   2.707
98867SOL     OW98497  10.033   6.670   7.101
98867SOL    HW198498   9.956   6.724   7.122
98867SOL    HW298499   9.997   6.590   7.063
98868SOL     OW98500  13.560   4.430   8.719
98868SOL    HW198501  13.529   4.473   8.639
98868SOL    HW298502  13.624   4.366   8.690
98869SOL     OW98503   6.271  11.984   8.033
98869SOL    HW198504   6.343  11.924   8.053
98869SOL    HW298505   6.296  12.024   7.949
98870SOL     OW98506   5.717   4.886   7.715
98870SOL    HW198507   5.669   4.939   7.780
98870SOL    HW298508   5.662   4.890   7.637
98871SOL     OW98509  14.692  14.358   4.124
98871SOL    HW198510  14.613  14.400   4.159
98871SOL    HW298511  14.756  14.429   4.117
98872SOL     OW98512  14.190   0.277   1.673
98872SOL    HW198513  14.270   0.238   1.638
98872SOL    HW298514  14.127   0.272   1.601
98873SOL     OW98515  11.567   2.290   6.844
98873SOL    HW198516  11.575   2.200   6.876
98873SOL    HW298517  11.492   2.325   6.892
98874SOL     OW98518  12.302   1.563   2.121
98874SOL    HW198519  12.323   1.543   2.213
98874SOL    HW298520  12.276   1.656   2.123
98875SOL     OW98521  12.687   3.778  11.185
98875SOL    HW198522  12.646   3.757  11.101
98875SOL    HW298523  12.653   3.712  11.245
98876SOL     OW98524  10.602   4.239   9.606
98876SOL    HW198525  10.694   4.253   9.584
98876SOL    HW298526  10.557   4.237   9.521
98877SOL     OW98527   3.117  12.088   2.611
98877SOL    HW198528   3.200  12.073   2.657
98877SOL    HW298529   3.142  12.099   2.519
98878SOL     OW98530   2.319   5.983  11.306
98878SOL    HW198531   2.251   6.001  11.241
98878SOL    HW298532   2.350   5.895  11.284
98879SOL     OW98533   1.165   2.671   4.934
98879SOL    HW198534   1.188   2.619   4.857
98879SOL    HW298535   1.201   2.621   5.008
98880SOL     OW98536   2.214   0.511   1.197
98880SOL    HW198537   2.129   0.534   1.234
98880SOL    HW298538   2.209   0.538   1.105
98881SOL     OW98539   7.556   3.814   5.778
98881SOL    HW198540   7.645   3.849   5.772
98881SOL    HW298541   7.519   3.827   5.691
98882SOL     OW98542   0.719   9.242  13.266
98882SOL    HW198543   0.665   9.280  13.335
98882SOL    HW298544   0.697   9.149  13.266
98883SOL     OW98545  11.198   2.791   5.897
98883SOL    HW198546  11.136   2.736   5.945
98883SOL    HW298547  11.251   2.729   5.847
98884SOL     OW98548   2.822   8.151  10.378
98884SOL    HW198549   2.917   8.141  10.375
98884SOL    HW298550   2.798   8.188  10.293
98885SOL     OW98551   0.439  12.867  12.473
98885SOL    HW198552   0.519  12.830  12.511
98885SOL    HW298553   0.447  12.961  12.487
98886SOL     OW98554   8.380   8.280   6.986
98886SOL    HW198555   8.422   8.212   7.039
98886SOL    HW298556   8.323   8.326   7.047
98887SOL     OW98557   9.043   3.610   2.410
98887SOL    HW198558   9.137   3.614   2.391
98887SOL    HW298559   9.035   3.639   2.500
98888SOL     OW98560   6.670   1.280  13.021
98888SOL    HW198561   6.608   1.208  13.010
98888SOL    HW298562   6.622   1.347  13.070
98889SOL     OW98563   2.431   3.832   0.725
98889SOL    HW198564   2.390   3.914   0.698
98889SOL    HW298565   2.460   3.792   0.643
98890SOL     OW98566   6.087   6.639  11.101
98890SOL    HW198567   6.114   6.570  11.161
98890SOL    HW298568   6.029   6.596  11.038
98891SOL     OW98569   6.838  10.868   2.311
98891SOL    HW198570   6.784  10.944   2.289
98891SOL    HW298571   6.925  10.904   2.325
98892SOL     OW98572   4.185  13.328   3.973
98892SOL    HW198573   4.203  13.383   3.896
98892SOL    HW298574   4.104  13.282   3.951
98893SOL     OW98575   6.092   4.672   9.677
98893SOL    HW198576   6.175   4.716   9.692
98893SOL    HW298577   6.058   4.652   9.764
98894SOL     OW98578  13.126  11.759   6.727
98894SOL    HW198579  13.069  11.689   6.758
98894SOL    HW298580  13.137  11.817   6.802
98895SOL     OW98581   9.234   8.358   4.940
98895SOL    HW198582   9.327   8.352   4.916
98895SOL    HW298583   9.200   8.431   4.889
98896SOL     OW98584   4.545   2.519  13.130
98896SOL    HW198585   4.473   2.497  13.189
98896SOL    HW298586   4.608   2.447  13.141
98897SOL     OW98587   2.164   6.806   5.698
98897SOL    HW198588   2.206   6.887   5.669
98897SOL    HW298589   2.187   6.742   5.630
98898SOL     OW98590  11.219   6.818  13.330
98898SOL    HW198591  11.269   6.841  13.252
98898SOL    HW298592  11.130   6.848  13.311
98899SOL     OW98593   0.300   1.772   0.771
98899SOL    HW198594   0.213   1.731   0.773
98899SOL    HW298595   0.295   1.834   0.698
98900SOL     OW98596   7.836  12.998   0.406
98900SOL    HW198597   7.872  13.078   0.444
98900SOL    HW298598   7.782  12.960   0.475
98901SOL     OW98599   8.286   9.543  13.471
98901SOL    HW198600   8.199   9.509  13.492
98901SOL    HW298601   8.272   9.637  13.459
98902SOL     OW98602  13.595   8.152   5.070
98902SOL    HW198603  13.552   8.144   5.155
98902SOL    HW298604  13.651   8.075   5.064
98903SOL     OW98605   4.850   9.316   3.369
98903SOL    HW198606   4.761   9.282   3.368
98903SOL    HW298607   4.905   9.239   3.384
98904SOL     OW98608  12.190   6.545   3.848
98904SOL    HW198609  12.127   6.580   3.785
98904SOL    HW298610  12.273   6.586   3.824
98905SOL     OW98611   6.714   7.819   4.708
98905SOL    HW198612   6.749   7.822   4.797
98905SOL    HW298613   6.791   7.814   4.652
98906SOL     OW98614   7.832   7.734   5.783
98906SOL    HW198615   7.770   7.703   5.718
98906SOL    HW298616   7.863   7.655   5.828
98907SOL     OW98617   8.921  13.086   0.934
98907SOL    HW198618   8.857  13.154   0.911
98907SOL    HW298619   8.960  13.062   0.850
98908SOL     OW98620  12.569   6.851   0.326
98908SOL    HW198621  12.620   6.772   0.310
98908SOL    HW298622  12.635   6.917   0.349
98909SOL     OW98623   1.907  11.216   9.101
98909SOL    HW198624   1.874  11.150   9.040
98909SOL    HW298625   1.838  11.282   9.105
98910SOL     OW98626   6.598  10.054   6.116
98910SOL    HW198627   6.682  10.047   6.071
98910SOL    HW298628   6.534  10.068   6.047
98911SOL     OW98629   8.288   6.591   0.958
98911SOL    HW198630   8.358   6.559   1.015
98911SOL    HW298631   8.321   6.675   0.925
98912SOL     OW98632   4.084   7.491   4.634
98912SOL    HW198633   4.108   7.429   4.703
98912SOL    HW298634   4.129   7.459   4.556
98913SOL     OW98635   1.073  10.293   9.113
98913SOL    HW198636   1.126  10.351   9.167
98913SOL    HW298637   1.043  10.224   9.173
98914SOL     OW98638  10.642   7.014  11.178
98914SOL    HW198639  10.584   7.079  11.216
98914SOL    HW298640  10.652   7.041  11.086
98915SOL     OW98641  13.729   3.151   9.712
98915SOL    HW198642  13.774   3.072   9.741
98915SOL    HW298643  13.761   3.220   9.770
98916SOL     OW98644   4.595  11.308   6.887
98916SOL    HW198645   4.566  11.279   6.974
98916SOL    HW298646   4.622  11.227   6.843
98917SOL     OW98647   8.232  14.047   9.972
98917SOL    HW198648   8.253  14.101  10.048
98917SOL    HW298649   8.136  14.049   9.967
98918SOL     OW98650   2.588   5.147  13.287
98918SOL    HW198651   2.643   5.069  13.287
98918SOL    HW298652   2.640   5.214  13.331
98919SOL     OW98653  11.012   7.273   5.796
98919SOL    HW198654  10.964   7.317   5.726
98919SOL    HW298655  11.004   7.180   5.775
98920SOL     OW98656  11.348   8.342  12.963
98920SOL    HW198657  11.431   8.382  12.938
98920SOL    HW298658  11.370   8.252  12.986
98921SOL     OW98659   1.921   5.162  13.241
98921SOL    HW198660   2.010   5.136  13.218
98921SOL    HW298661   1.874   5.080  13.252
98922SOL     OW98662   7.973   4.622   7.130
98922SOL    HW198663   7.921   4.545   7.108
98922SOL    HW298664   7.912   4.695   7.120
98923SOL     OW98665   6.182  13.843   0.285
98923SOL    HW198666   6.227  13.868   0.366
98923SOL    HW298667   6.089  13.840   0.309
98924SOL     OW98668  13.353  12.420   6.546
98924SOL    HW198669  13.375  12.337   6.589
98924SOL    HW298670  13.424  12.479   6.571
98925SOL     OW98671   2.312  11.461   3.243
98925SOL    HW198672   2.291  11.466   3.336
98925SOL    HW298673   2.236  11.500   3.199
98926SOL     OW98674  10.322  10.916   6.043
98926SOL    HW198675  10.367  10.999   6.055
98926SOL    HW298676  10.234  10.940   6.015
98927SOL     OW98677  12.710   1.150   3.086
98927SOL    HW198678  12.773   1.185   3.148
98927SOL    HW298679  12.647   1.102   3.140
98928SOL     OW98680   4.332   4.115  11.571
98928SOL    HW198681   4.355   4.175  11.500
98928SOL    HW298682   4.236   4.115  11.571
98929SOL     OW98683   7.550   8.628  14.623
98929SOL    HW198684   7.485   8.585  14.568
98929SOL    HW298685   7.523   8.720  14.623
98930SOL     OW98686  14.811  14.809   0.725
98930SOL    HW198687   0.013  14.816   0.775
98930SOL    HW298688  14.838  14.819   0.634
98931SOL     OW98689  10.305   1.497   6.253
98931SOL    HW198690  10.353   1.420   6.226
98931SOL    HW298691  10.320   1.561   6.183
98932SOL     OW98692   0.368  14.145  11.731
98932SOL    HW198693   0.371  14.082  11.658
98932SOL    HW298694   0.330  14.224  11.693
98933SOL     OW98695   0.838  14.241   3.133
98933SOL    HW198696   0.898  14.230   3.059
98933SOL    HW298697   0.836  14.335   3.149
98934SOL     OW98698   7.319   4.494   2.654
98934SOL    HW198699   7.286   4.561   2.714
98934SOL    HW298700   7.298   4.411   2.697
98935SOL     OW98701  13.261   7.926   9.012
98935SOL    HW198702  13.187   7.882   8.970
98935SOL    HW298703  13.331   7.922   8.948
98936SOL     OW98704  11.155   7.953  14.657
98936SOL    HW198705  11.204   7.945  14.575
98936SOL    HW298706  11.198   7.892  14.717
98937SOL     OW98707   7.128  10.828  10.804
98937SOL    HW198708   7.188  10.815  10.877
98937SOL    HW298709   7.064  10.892  10.836
98938SOL     OW98710   5.905  14.558   9.984
98938SOL    HW198711   5.982  14.509   9.954
98938SOL    HW298712   5.850  14.566   9.906
98939SOL     OW98713  10.398  10.151  13.548
98939SOL    HW198714  10.438  10.151  13.636
98939SOL    HW298715  10.378  10.059  13.532
98940SOL     OW98716  11.422   5.903   4.614
98940SOL    HW198717  11.438   5.921   4.521
98940SOL    HW298718  11.497   5.852   4.643
98941SOL     OW98719  10.016   9.932   5.215
98941SOL    HW198720   9.925   9.903   5.210
98941SOL    HW298721  10.030   9.979   5.133
98942SOL     OW98722  10.867   7.282   9.777
98942SOL    HW198723  10.803   7.241   9.835
98942SOL    HW298724  10.844   7.375   9.779
98943SOL     OW98725  11.580   0.074   0.731
98943SOL    HW198726  11.571   0.125   0.812
98943SOL    HW298727  11.508   0.104   0.676
98944SOL     OW98728  10.561   6.305   5.511
98944SOL    HW198729  10.561   6.376   5.576
98944SOL    HW298730  10.617   6.336   5.441
98945SOL     OW98731  10.956   9.572   9.209
98945SOL    HW198732  10.868   9.607   9.224
98945SOL    HW298733  10.994   9.563   9.296
98946SOL     OW98734   5.633   7.799   3.649
98946SOL    HW198735   5.608   7.795   3.742
98946SOL    HW298736   5.579   7.869   3.613
98947SOL     OW98737   4.444  12.433   8.134
98947SOL    HW198738   4.389  12.369   8.178
98947SOL    HW298739   4.424  12.516   8.177
98948SOL     OW98740   7.671  12.869   3.627
98948SOL    HW198741   7.603  12.844   3.565
98948SOL    HW298742   7.740  12.803   3.616
98949SOL     OW98743   3.003   0.440  14.080
98949SOL    HW198744   3.065   0.482  14.020
98949SOL    HW298745   3.040   0.354  14.096
98950SOL     OW98746   2.535  13.075   2.024
98950SOL    HW198747   2.526  13.044   2.114
98950SOL    HW298748   2.607  13.138   2.027
98951SOL     OW98749  14.442  10.424   0.991
98951SOL    HW198750  14.483  10.439   0.906
98951SOL    HW298751  14.381  10.352   0.976
98952SOL     OW98752   4.367   7.173   4.889
98952SOL    HW198753   4.368   7.112   4.815
98952SOL    HW298754   4.458   7.175   4.919
98953SOL     OW98755  13.844   9.361   4.973
98953SOL    HW198756  13.874   9.271   4.960
98953SOL    HW298757  13.910   9.401   5.030
98954SOL     OW98758   9.127   9.308  10.929
98954SOL    HW198759   9.101   9.253  10.856
98954SOL    HW298760   9.105   9.397  10.901
98955SOL     OW98761  10.464  11.995   2.076
98955SOL    HW198762  10.404  11.978   2.003
98955SOL    HW298763  10.422  11.955   2.152
98956SOL     OW98764   2.421  12.116   0.592
98956SOL    HW198765   2.357  12.187   0.588
98956SOL    HW298766   2.449  12.115   0.683
98957SOL     OW98767  13.048   0.836  14.039
98957SOL    HW198768  13.035   0.783  13.961
98957SOL    HW298769  13.049   0.926  14.008
98958SOL     OW98770   6.997   0.569   5.928
98958SOL    HW198771   7.059   0.628   5.884
98958SOL    HW298772   6.995   0.601   6.018
98959SOL     OW98773  13.548  13.001   5.914
98959SOL    HW198774  13.472  13.059   5.909
98959SOL    HW298775  13.588  13.021   5.998
98960SOL     OW98776   5.921  11.170   1.723
98960SOL    HW198777   5.979  11.226   1.774
98960SOL    HW298778   5.935  11.197   1.632
98961SOL     OW98779   6.490   3.004  10.514
98961SOL    HW198780   6.467   3.038  10.428
98961SOL    HW298781   6.428   3.045  10.574
98962SOL     OW98782   6.789   9.305   7.747
98962SOL    HW198783   6.780   9.220   7.789
98962SOL    HW298784   6.731   9.302   7.672
98963SOL     OW98785  11.385  12.790   9.090
98963SOL    HW198786  11.476  12.762   9.100
98963SOL    HW298787  11.359  12.819   9.178
98964SOL     OW98788  14.157  13.306   0.365
98964SOL    HW198789  14.072  13.263   0.374
98964SOL    HW298790  14.166  13.323   0.271
98965SOL     OW98791   6.686   5.931  10.097
98965SOL    HW198792   6.781   5.931  10.099
98965SOL    HW298793   6.663   6.010  10.047
98966SOL     OW98794   2.900   4.827   8.292
98966SOL    HW198795   2.962   4.754   8.284
98966SOL    HW298796   2.954   4.905   8.290
98967SOL     OW98797  12.445   2.943   1.413
98967SOL    HW198798  12.413   2.917   1.326
98967SOL    HW298799  12.519   3.001   1.395
98968SOL     OW98800   3.514   4.307  10.190
98968SOL    HW198801   3.437   4.261  10.222
98968SOL    HW298802   3.529   4.377  10.254
98969SOL     OW98803   8.922  10.179   7.499
98969SOL    HW198804   8.857  10.250   7.502
98969SOL    HW298805   8.874  10.106   7.461
98970SOL     OW98806   0.838   1.374  13.005
98970SOL    HW198807   0.797   1.382  13.091
98970SOL    HW298808   0.791   1.302  12.962
98971SOL     OW98809  11.675  12.411  12.198
98971SOL    HW198810  11.654  12.505  12.198
98971SOL    HW298811  11.596  12.369  12.166
98972SOL     OW98812   2.474   0.890   6.429
98972SOL    HW198813   2.381   0.911   6.426
98972SOL    HW298814   2.509   0.921   6.346
98973SOL     OW98815  11.637   7.126   9.798
98973SOL    HW198816  11.612   7.043   9.839
98973SOL    HW298817  11.703   7.163   9.857
98974SOL     OW98818   1.085   3.595   9.859
98974SOL    HW198819   1.122   3.672   9.816
98974SOL    HW298820   1.126   3.521   9.815
98975SOL     OW98821  12.916   5.285   7.871
98975SOL    HW198822  12.880   5.334   7.797
98975SOL    HW298823  12.901   5.193   7.849
98976SOL     OW98824  12.804   0.188   4.236
98976SOL    HW198825  12.891   0.153   4.254
98976SOL    HW298826  12.804   0.274   4.278
98977SOL     OW98827   5.652  10.516  12.179
98977SOL    HW198828   5.705  10.542  12.104
98977SOL    HW298829   5.563  10.537  12.154
98978SOL     OW98830  12.970   6.600  11.112
98978SOL    HW198831  12.953   6.610  11.019
98978SOL    HW298832  13.062   6.625  11.123
98979SOL     OW98833   6.688   0.451   5.537
98979SOL    HW198834   6.645   0.521   5.488
98979SOL    HW298835   6.782   0.470   5.528
98980SOL     OW98836   4.290   8.723   3.552
98980SOL    HW198837   4.314   8.762   3.468
98980SOL    HW298838   4.328   8.635   3.549
98981SOL     OW98839  13.030   6.969  10.904
98981SOL    HW198840  13.015   7.014  10.821
98981SOL    HW298841  12.975   7.015  10.967
98982SOL     OW98842   0.094   8.338  14.649
98982SOL    HW198843   0.124   8.375  14.732
98982SOL    HW298844   0.064   8.414  14.598
98983SOL     OW98845   1.750   2.246   2.028
98983SOL    HW198846   1.693   2.250   1.951
98983SOL    HW298847   1.768   2.153   2.039
98984SOL     OW98848   6.357   6.229   6.324
98984SOL    HW198849   6.333   6.260   6.237
98984SOL    HW298850   6.353   6.307   6.379
98985SOL     OW98851  13.153   0.836   9.870
98985SOL    HW198852  13.242   0.861   9.896
98985SOL    HW298853  13.120   0.785   9.944
98986SOL     OW98854  13.188   6.885  14.220
98986SOL    HW198855  13.146   6.956  14.171
98986SOL    HW298856  13.119   6.853  14.278
98987SOL     OW98857   0.837  12.636   3.225
98987SOL    HW198858   0.876  12.615   3.310
98987SOL    HW298859   0.839  12.732   3.221
98988SOL     OW98860  11.051   0.106   1.591
98988SOL    HW198861  11.087   0.151   1.668
98988SOL    HW298862  11.053   0.013   1.615
98989SOL     OW98863   5.124   2.940   3.043
98989SOL    HW198864   5.114   2.937   2.948
98989SOL    HW298865   5.072   2.866   3.074
98990SOL     OW98866   1.408   0.150  11.741
98990SOL    HW198867   1.457   0.193  11.671
98990SOL    HW298868   1.320   0.187  11.736
98991SOL     OW98869   8.096  12.141  13.603
98991SOL    HW198870   8.090  12.066  13.544
98991SOL    HW298871   8.049  12.211  13.558
98992SOL     OW98872   2.147  14.470  13.257
98992SOL    HW198873   2.162  14.378  13.281
98992SOL    HW298874   2.071  14.496  13.309
98993SOL     OW98875   9.480   4.288   9.054
98993SOL    HW198876   9.407   4.228   9.066
98993SOL    HW298877   9.524   4.290   9.139
98994SOL     OW98878   4.794   6.707  12.817
98994SOL    HW198879   4.699   6.696  12.825
98994SOL    HW298880   4.809   6.800  12.830
98995SOL     OW98881   3.805   8.020   1.581
98995SOL    HW198882   3.841   8.092   1.632
98995SOL    HW298883   3.863   7.946   1.597
98996SOL     OW98884   0.245   3.131   5.205
98996SOL    HW198885   0.181   3.169   5.264
98996SOL    HW298886   0.266   3.046   5.243
98997SOL     OW98887   0.264   4.658   6.062
98997SOL    HW198888   0.254   4.567   6.032
98997SOL    HW298889   0.176   4.694   6.058
98998SOL     OW98890   4.767  13.854   5.268
98998SOL    HW198891   4.819  13.859   5.349
98998SOL    HW298892   4.731  13.942   5.258
98999SOL     OW98893   7.387   7.067  10.788
98999SOL    HW198894   7.297   7.089  10.764
98999SOL    HW298895   7.432   7.059  10.704
99000SOL     OW98896  11.163   0.328   9.733
99000SOL    HW198897  11.135   0.272   9.805
99000SOL    HW298898  11.140   0.279   9.654
99001SOL     OW98899   0.952   0.802  14.619
99001SOL    HW198900   1.019   0.812  14.686
99001SOL    HW298901   0.982   0.728  14.565
99002SOL     OW98902   6.413  14.200   4.314
99002SOL    HW198903   6.420  14.283   4.360
99002SOL    HW298904   6.496  14.189   4.269
99003SOL     OW98905   1.804  10.872   2.023
99003SOL    HW198906   1.890  10.848   2.058
99003SOL    HW298907   1.748  10.877   2.100
99004SOL     OW98908   8.928   1.909   8.552
99004SOL    HW198909   8.935   1.815   8.538
99004SOL    HW298910   8.925   1.919   8.647
99005SOL     OW98911   0.755   1.395  14.305
99005SOL    HW198912   0.707   1.429  14.380
99005SOL    HW298913   0.798   1.316  14.337
99006SOL     OW98914   6.690   6.365   2.753
99006SOL    HW198915   6.617   6.423   2.774
99006SOL    HW298916   6.764   6.400   2.803
99007SOL     OW98917   0.945  12.364   9.617
99007SOL    HW198918   0.859  12.376   9.576
99007SOL    HW298919   1.006  12.410   9.559
99008SOL     OW98920   1.485  12.916   3.018
99008SOL    HW198921   1.528  12.831   3.022
99008SOL    HW298922   1.417  12.912   3.085
99009SOL     OW98923  10.182   4.258   9.676
99009SOL    HW198924  10.193   4.315   9.600
99009SOL    HW298925  10.089   4.236   9.675
99010SOL     OW98926   8.514  13.120   7.127
99010SOL    HW198927   8.471  13.178   7.065
99010SOL    HW298928   8.589  13.171   7.159
99011SOL     OW98929  11.520   0.898   5.557
99011SOL    HW198930  11.556   0.873   5.472
99011SOL    HW298931  11.522   0.818   5.609
99012SOL     OW98932   6.114   5.944  13.269
99012SOL    HW198933   6.046   5.980  13.212
99012SOL    HW298934   6.150   5.870  13.221
99013SOL     OW98935   8.690  10.619   8.822
99013SOL    HW198936   8.676  10.645   8.913
99013SOL    HW298937   8.708  10.525   8.827
99014SOL     OW98938   3.702   3.858   4.440
99014SOL    HW198939   3.691   3.894   4.353
99014SOL    HW298940   3.638   3.786   4.445
99015SOL     OW98941  12.143   7.575   1.466
99015SOL    HW198942  12.143   7.671   1.471
99015SOL    HW298943  12.210   7.547   1.527
99016SOL     OW98944   9.633   6.545  10.103
99016SOL    HW198945   9.608   6.629  10.066
99016SOL    HW298946   9.614   6.554  10.197
99017SOL     OW98947   6.645  11.104  12.599
99017SOL    HW198948   6.659  11.143  12.512
99017SOL    HW298949   6.557  11.068  12.595
99018SOL     OW98950   1.216   2.197  13.753
99018SOL    HW198951   1.193   2.290  13.752
99018SOL    HW298952   1.196   2.168  13.842
99019SOL     OW98953   3.268  13.639  13.137
99019SOL    HW198954   3.219  13.622  13.056
99019SOL    HW298955   3.360  13.632  13.110
99020SOL     OW98956   4.941  11.408  13.416
99020SOL    HW198957   5.021  11.359  13.401
99020SOL    HW298958   4.904  11.422  13.329
99021SOL     OW98959   6.961  12.488   5.742
99021SOL    HW198960   6.887  12.428   5.754
99021SOL    HW298961   6.927  12.556   5.684
99022SOL     OW98962   3.159  14.428  12.220
99022SOL    HW198963   3.068  14.456  12.205
99022SOL    HW298964   3.155  14.333  12.219
99023SOL     OW98965  11.501   1.410   9.408
99023SOL    HW198966  11.560   1.351   9.359
99023SOL    HW298967  11.560   1.472   9.451
99024SOL     OW98968  12.414   6.446  11.120
99024SOL    HW198969  12.492   6.441  11.065
99024SOL    HW298970  12.371   6.527  11.094
99025SOL     OW98971   6.510  14.879  10.914
99025SOL    HW198972   6.513  14.812  10.846
99025SOL    HW298973   6.431   0.049  10.896
99026SOL     OW98974  11.521  13.794   3.287
99026SOL    HW198975  11.504  13.838   3.204
99026SOL    HW298976  11.434  13.768   3.319
99027SOL     OW98977  13.702   6.343   1.794
99027SOL    HW198978  13.641   6.315   1.725
99027SOL    HW298979  13.782   6.295   1.776
99028SOL     OW98980   3.333   9.699   4.103
99028SOL    HW198981   3.398   9.769   4.113
99028SOL    HW298982   3.309   9.675   4.192
99029SOL     OW98983  10.215  12.632  10.278
99029SOL    HW198984  10.243  12.697  10.214
99029SOL    HW298985  10.173  12.683  10.347
99030SOL     OW98986   5.151  14.095   1.970
99030SOL    HW198987   5.071  14.048   1.945
99030SOL    HW298988   5.212  14.077   1.898
99031SOL     OW98989   4.121  12.853   5.719
99031SOL    HW198990   4.120  12.880   5.627
99031SOL    HW298991   4.123  12.934   5.768
99032SOL     OW98992   1.370   6.741  10.526
99032SOL    HW198993   1.373   6.709  10.436
99032SOL    HW298994   1.286   6.787  10.532
99033SOL     OW98995   3.870  13.383  12.896
99033SOL    HW198996   3.793  13.379  12.839
99033SOL    HW298997   3.941  13.347  12.843
99034SOL     OW98998   3.735   0.222   3.681
99034SOL    HW198999   3.778   0.149   3.636
99034SOL    HW299000   3.762   0.300   3.633
99035SOL     OW99001  13.735   2.851   5.488
99035SOL    HW199002  13.812   2.796   5.503
99035SOL    HW299003  13.725   2.853   5.393
99036SOL     OW99004   9.646  10.583   7.958
99036SOL    HW199005   9.730  10.578   8.002
99036SOL    HW299006   9.667  10.579   7.864
99037SOL     OW99007  11.206   4.169   6.038
99037SOL    HW199008  11.169   4.082   6.027
99037SOL    HW299009  11.209   4.182   6.133
99038SOL     OW99010   4.121   1.657   3.553
99038SOL    HW199011   4.158   1.690   3.471
99038SOL    HW299012   4.026   1.660   3.540
99039SOL     OW99013  11.299   1.606   9.332
99039SOL    HW199014  11.332   1.682   9.380
99039SOL    HW299015  11.376   1.551   9.318
99040SOL     OW99016   0.468   9.887  13.433
99040SOL    HW199017   0.455   9.838  13.351
99040SOL    HW299018   0.389   9.869  13.484
99041SOL     OW99019   1.956   1.967   5.783
99041SOL    HW199020   1.879   1.972   5.840
99041SOL    HW299021   1.952   1.878   5.747
99042SOL     OW99022   8.528  10.723   6.416
99042SOL    HW199023   8.437  10.751   6.404
99042SOL    HW299024   8.541  10.654   6.351
99043SOL     OW99025   8.147  13.133  14.834
99043SOL    HW199026   8.118  13.224  14.824
99043SOL    HW299027   8.134  13.113   0.047
99044SOL     OW99028   3.904   5.419  14.210
99044SOL    HW199029   3.905   5.402  14.116
99044SOL    HW299030   3.988   5.385  14.241
99045SOL     OW99031   4.841   7.705   7.888
99045SOL    HW199032   4.810   7.674   7.973
99045SOL    HW299033   4.784   7.779   7.867
99046SOL     OW99034   3.471   2.772   5.589
99046SOL    HW199035   3.466   2.706   5.519
99046SOL    HW299036   3.555   2.754   5.632
99047SOL     OW99037   4.261   9.480  13.133
99047SOL    HW199038   4.331   9.517  13.186
99047SOL    HW299039   4.184   9.483  13.190
99048SOL     OW99040  10.984  10.731   3.579
99048SOL    HW199041  10.936  10.748   3.497
99048SOL    HW299042  11.031  10.813   3.597
99049SOL     OW99043   9.791   4.182   4.055
99049SOL    HW199044   9.790   4.112   4.121
99049SOL    HW299045   9.699   4.208   4.047
99050SOL     OW99046   6.581  11.462  12.579
99050SOL    HW199047   6.505  11.413  12.548
99050SOL    HW299048   6.649  11.442  12.514
99051SOL     OW99049   2.676  12.357   8.847
99051SOL    HW199050   2.618  12.321   8.780
99051SOL    HW299051   2.650  12.314   8.928
99052SOL     OW99052   9.253   0.784  10.640
99052SOL    HW199053   9.333   0.831  10.618
99052SOL    HW299054   9.284   0.708  10.690
99053SOL     OW99055   9.664   2.818   6.746
99053SOL    HW199056   9.688   2.820   6.654
99053SOL    HW299057   9.628   2.905   6.764
99054SOL     OW99058   5.424   8.339   4.043
99054SOL    HW199059   5.463   8.275   4.103
99054SOL    HW299060   5.339   8.302   4.020
99055SOL     OW99061   6.999  12.690   1.193
99055SOL    HW199062   7.009  12.681   1.098
99055SOL    HW299063   6.921  12.745   1.204
99056SOL     OW99064  13.834   1.951   8.346
99056SOL    HW199065  13.774   1.922   8.276
99056SOL    HW299066  13.872   2.032   8.313
99057SOL     OW99067   9.744   3.699  12.923
99057SOL    HW199068   9.728   3.684  12.830
99057SOL    HW299069   9.666   3.664  12.966
99058SOL     OW99070  13.101   6.442   8.261
99058SOL    HW199071  13.137   6.420   8.175
99058SOL    HW299072  13.177   6.471   8.312
99059SOL     OW99073   6.929  10.900   3.129
99059SOL    HW199074   6.853  10.944   3.168
99059SOL    HW299075   6.920  10.808   3.155
99060SOL     OW99076   9.392   5.532   5.430
99060SOL    HW199077   9.371   5.517   5.523
99060SOL    HW299078   9.323   5.590   5.399
99061SOL     OW99079   8.344  13.452  10.489
99061SOL    HW199080   8.335  13.502  10.570
99061SOL    HW299081   8.361  13.518  10.422
99062SOL     OW99082  12.250   2.562   8.854
99062SOL    HW199083  12.291   2.489   8.901
99062SOL    HW299084  12.158   2.559   8.881
99063SOL     OW99085  13.938   5.523   6.622
99063SOL    HW199086  13.874   5.575   6.669
99063SOL    HW299087  13.888   5.451   6.583
99064SOL     OW99088   8.201   8.569   5.413
99064SOL    HW199089   8.203   8.640   5.349
99064SOL    HW299090   8.214   8.490   5.362
99065SOL     OW99091  11.679   7.930   5.508
99065SOL    HW199092  11.647   7.984   5.581
99065SOL    HW299093  11.614   7.943   5.439
99066SOL     OW99094   6.741   4.667   1.358
99066SOL    HW199095   6.669   4.698   1.414
99066SOL    HW299096   6.715   4.690   1.269
99067SOL     OW99097  13.497   4.903   1.255
99067SOL    HW199098  13.417   4.873   1.209
99067SOL    HW299099  13.520   4.830   1.312
99068SOL     OW99100   9.308   9.083   8.052
99068SOL    HW199101   9.304   9.047   7.963
99068SOL    HW299102   9.366   9.159   8.044
99069SOL     OW99103  12.022   8.986   7.147
99069SOL    HW199104  11.939   9.029   7.168
99069SOL    HW299105  12.001   8.925   7.077
99070SOL     OW99106  11.325   2.946   9.002
99070SOL    HW199107  11.383   3.021   9.010
99070SOL    HW299108  11.238   2.981   9.023
99071SOL     OW99109   5.503  12.669   4.522
99071SOL    HW199110   5.532  12.585   4.559
99071SOL    HW299111   5.407  12.666   4.528
99072SOL     OW99112   4.679   0.159   3.570
99072SOL    HW199113   4.662   0.076   3.526
99072SOL    HW299114   4.716   0.215   3.502
99073SOL     OW99115   6.329   2.716   0.757
99073SOL    HW199116   6.419   2.684   0.749
99073SOL    HW299117   6.334   2.807   0.727
99074SOL     OW99118  14.787   2.740  13.895
99074SOL    HW199119  14.751   2.828  13.906
99074SOL    HW299120   0.002   2.753  13.893
99075SOL     OW99121   8.771  10.595   4.524
99075SOL    HW199122   8.770  10.499   4.523
99075SOL    HW299123   8.695  10.621   4.472
99076SOL     OW99124   4.147   2.580  14.318
99076SOL    HW199125   4.059   2.543  14.312
99076SOL    HW299126   4.158   2.630  14.237
99077SOL     OW99127  14.674   5.780  14.466
99077SOL    HW199128  14.650   5.692  14.498
99077SOL    HW299129  14.597   5.809  14.417
99078SOL     OW99130   8.153  14.023   0.007
99078SOL    HW199131   8.080  14.042  14.827
99078SOL    HW299132   8.187  13.938  14.857
99079SOL     OW99133   0.864   4.923   7.804
99079SOL    HW199134   0.912   4.944   7.724
99079SOL    HW299135   0.930   4.882   7.860
99080SOL     OW99136   0.710  13.357   5.840
99080SOL    HW199137   0.705  13.270   5.801
99080SOL    HW299138   0.761  13.408   5.777
99081SOL     OW99139   7.175   0.165  11.675
99081SOL    HW199140   7.205   0.210  11.596
99081SOL    HW299141   7.153   0.234  11.736
99082SOL     OW99142  12.626  11.379   7.479
99082SOL    HW199143  12.715  11.344   7.475
99082SOL    HW299144  12.633  11.456   7.537
99083SOL     OW99145   0.694  13.771   5.886
99083SOL    HW199146   0.722  13.700   5.828
99083SOL    HW299147   0.765  13.777   5.950
99084SOL     OW99148  10.500   5.933   8.285
99084SOL    HW199149  10.451   5.885   8.219
99084SOL    HW299150  10.587   5.944   8.247
99085SOL     OW99151  13.794   7.003  12.849
99085SOL    HW199152  13.711   7.002  12.897
99085SOL    HW299153  13.845   7.072  12.891
99086SOL     OW99154  10.455   5.850   7.070
99086SOL    HW199155  10.382   5.887   7.020
99086SOL    HW299156  10.533   5.896   7.038
99087SOL     OW99157   5.776   6.897   0.748
99087SOL    HW199158   5.833   6.824   0.773
99087SOL    HW299159   5.742   6.930   0.831
99088SOL     OW99160   4.457   6.861  14.273
99088SOL    HW199161   4.477   6.773  14.304
99088SOL    HW299162   4.543   6.904  14.266
99089SOL     OW99163   4.550   9.986   5.244
99089SOL    HW199164   4.517   9.937   5.169
99089SOL    HW299165   4.645   9.982   5.235
99090SOL     OW99166  13.147  11.406   8.819
99090SOL    HW199167  13.181  11.325   8.857
99090SOL    HW299168  13.218  11.437   8.762
99091SOL     OW99169  14.559   5.839   4.122
99091SOL    HW199170  14.510   5.806   4.197
99091SOL    HW299171  14.545   5.934   4.125
99092SOL     OW99172   7.869   5.574   5.061
99092SOL    HW199173   7.812   5.649   5.076
99092SOL    HW299174   7.857   5.552   4.969
99093SOL     OW99175   9.354   0.078   7.712
99093SOL    HW199176   9.285   0.116   7.658
99093SOL    HW299177   9.333   0.106   7.801
99094SOL     OW99178   4.575  10.676   1.848
99094SOL    HW199179   4.572  10.665   1.753
99094SOL    HW299180   4.611  10.764   1.861
99095SOL     OW99181  10.236   4.247   8.198
99095SOL    HW199182  10.147   4.213   8.194
99095SOL    HW299183  10.283   4.199   8.129
99096SOL     OW99184  10.154  11.941   3.351
99096SOL    HW199185  10.213  12.001   3.305
99096SOL    HW299186  10.198  11.856   3.347
99097SOL     OW99187   4.459   4.229   2.365
99097SOL    HW199188   4.452   4.231   2.460
99097SOL    HW299189   4.547   4.196   2.348
99098SOL     OW99190   6.685   2.321   5.379
99098SOL    HW199191   6.636   2.286   5.453
99098SOL    HW299192   6.775   2.291   5.393
99099SOL     OW99193   6.540   1.267  10.288
99099SOL    HW199194   6.613   1.256  10.349
99099SOL    HW299195   6.582   1.290  10.205
99100SOL     OW99196   8.583   1.257   6.654
99100SOL    HW199197   8.509   1.266   6.594
99100SOL    HW299198   8.544   1.232   6.738
99101SOL     OW99199  12.688  11.444   1.854
99101SOL    HW199200  12.770  11.481   1.886
99101SOL    HW299201  12.619  11.496   1.896
99102SOL     OW99202  10.216   9.497   0.580
99102SOL    HW199203  10.166   9.556   0.637
99102SOL    HW299204  10.307   9.521   0.595
99103SOL     OW99205  10.708  14.123   9.549
99103SOL    HW199206  10.800  14.144   9.564
99103SOL    HW299207  10.704  14.096   9.457
99104SOL     OW99208   0.649  10.788  12.972
99104SOL    HW199209   0.720  10.749  13.023
99104SOL    HW299210   0.688  10.804  12.886
99105SOL     OW99211   6.068   9.593   4.562
99105SOL    HW199212   5.993   9.549   4.520
99105SOL    HW299213   6.144   9.548   4.526
99106SOL     OW99214   0.533  14.142   4.512
99106SOL    HW199215   0.552  14.233   4.493
99106SOL    HW299216   0.439  14.140   4.531
99107SOL     OW99217   4.230   7.567  11.379
99107SOL    HW199218   4.295   7.497  11.386
99107SOL    HW299219   4.263   7.624  11.309
99108SOL     OW99220   1.885   9.655   8.552
99108SOL    HW199221   1.838   9.657   8.635
99108SOL    HW299222   1.970   9.694   8.571
99109SOL     OW99223   2.220  13.240   7.530
99109SOL    HW199224   2.230  13.158   7.482
99109SOL    HW299225   2.199  13.214   7.619
99110SOL     OW99226   4.190  11.169   2.575
99110SOL    HW199227   4.220  11.107   2.509
99110SOL    HW299228   4.229  11.138   2.657
99111SOL     OW99229   6.048   3.091   7.291
99111SOL    HW199230   6.074   3.090   7.199
99111SOL    HW299231   5.953   3.099   7.289
99112SOL     OW99232   1.106  10.789  11.147
99112SOL    HW199233   1.132  10.881  11.151
99112SOL    HW299234   1.160  10.753  11.076
99113SOL     OW99235   9.398   1.506   0.993
99113SOL    HW199236   9.435   1.553   0.918
99113SOL    HW299237   9.469   1.450   1.024
99114SOL     OW99238   0.307   0.017  11.492
99114SOL    HW199239   0.383   0.023  11.435
99114SOL    HW299240   0.248   0.086  11.462
99115SOL     OW99241   7.215  10.250   9.600
99115SOL    HW199242   7.195  10.259   9.507
99115SOL    HW299243   7.183  10.163   9.623
99116SOL     OW99244   9.511  13.084   6.774
99116SOL    HW199245   9.428  13.109   6.734
99116SOL    HW299246   9.578  13.131   6.724
99117SOL     OW99247   0.825   6.384   2.428
99117SOL    HW199248   0.876   6.331   2.490
99117SOL    HW299249   0.827   6.334   2.347
99118SOL     OW99250   2.681   0.787   1.082
99118SOL    HW199251   2.696   0.809   1.174
99118SOL    HW299252   2.591   0.754   1.079
99119SOL     OW99253   0.033  13.590   7.196
99119SOL    HW199254   0.093  13.632   7.257
99119SOL    HW299255  14.825  13.617   7.226
99120SOL     OW99256   5.438   0.444  14.254
99120SOL    HW199257   5.478   0.531  14.256
99120SOL    HW299258   5.506   0.386  14.220
99121SOL     OW99259  12.549  10.291  12.542
99121SOL    HW199260  12.461  10.259  12.523
99121SOL    HW299261  12.536  10.381  12.571
99122SOL     OW99262  12.008  11.206  10.811
99122SOL    HW199263  12.082  11.228  10.868
99122SOL    HW299264  12.017  11.112  10.796
99123SOL     OW99265   2.276  11.668   1.802
99123SOL    HW199266   2.262  11.754   1.762
99123SOL    HW299267   2.248  11.680   1.893
99124SOL     OW99268   3.460   4.481   6.401
99124SOL    HW199269   3.441   4.506   6.310
99124SOL    HW299270   3.551   4.506   6.414
99125SOL     OW99271   4.484   9.510   9.133
99125SOL    HW199272   4.405   9.478   9.177
99125SOL    HW299273   4.555   9.482   9.191
99126SOL     OW99274   0.822  11.847   1.727
99126SOL    HW199275   0.863  11.819   1.645
99126SOL    HW299276   0.808  11.766   1.776
99127SOL     OW99277   9.841  12.180   2.984
99127SOL    HW199278   9.855  12.089   3.011
99127SOL    HW299279   9.827  12.227   3.066
99128SOL     OW99280  12.829   6.314  13.038
99128SOL    HW199281  12.808   6.366  13.115
99128SOL    HW299282  12.924   6.327  13.026
99129SOL     OW99283   2.199  11.745   7.402
99129SOL    HW199284   2.278  11.727   7.349
99129SOL    HW299285   2.188  11.666   7.454
99130SOL     OW99286   1.027   8.350  14.312
99130SOL    HW199287   1.076   8.426  14.344
99130SOL    HW299288   1.095   8.287  14.285
99131SOL     OW99289  12.765   9.714  12.718
99131SOL    HW199290  12.704   9.711  12.792
99131SOL    HW299291  12.731   9.782  12.661
99132SOL     OW99292   8.810  13.816  11.232
99132SOL    HW199293   8.841  13.895  11.276
99132SOL    HW299294   8.801  13.751  11.303
99133SOL     OW99295  13.385   7.107  14.571
99133SOL    HW199296  13.405   7.156  14.492
99133SOL    HW299297  13.468   7.069  14.599
99134SOL     OW99298   8.237  10.294   2.095
99134SOL    HW199299   8.304  10.297   2.162
99134SOL    HW299300   8.259  10.217   2.042
99135SOL     OW99301   7.871  13.361   5.876
99135SOL    HW199302   7.902  13.283   5.830
99135SOL    HW299303   7.941  13.383   5.937
99136SOL     OW99304  13.618   2.343   6.692
99136SOL    HW199305  13.669   2.263   6.682
99136SOL    HW299306  13.624   2.365   6.785
99137SOL     OW99307   5.728   5.846   2.570
99137SOL    HW199308   5.777   5.922   2.540
99137SOL    HW299309   5.678   5.878   2.646
99138SOL     OW99310   5.370  11.600   9.770
99138SOL    HW199311   5.453  11.626   9.808
99138SOL    HW299312   5.333  11.680   9.734
99139SOL     OW99313   3.051  10.037   1.018
99139SOL    HW199314   3.083  10.124   1.042
99139SOL    HW299315   2.974  10.023   1.073
99140SOL     OW99316  11.578   2.898  10.568
99140SOL    HW199317  11.501   2.844  10.585
99140SOL    HW299318  11.618   2.912  10.654
99141SOL     OW99319  13.694   1.326   9.626
99141SOL    HW199320  13.789   1.336   9.633
99141SOL    HW299321  13.660   1.357   9.710
99142SOL     OW99322   1.441   8.696  11.572
99142SOL    HW199323   1.364   8.696  11.629
99142SOL    HW299324   1.429   8.773  11.516
99143SOL     OW99325   0.569  10.068   4.157
99143SOL    HW199326   0.616   9.989   4.128
99143SOL    HW299327   0.539  10.047   4.245
99144SOL     OW99328   2.809   2.143   4.592
99144SOL    HW199329   2.844   2.205   4.655
99144SOL    HW299330   2.727   2.112   4.630
99145SOL     OW99331   1.873   0.458  10.402
99145SOL    HW199332   1.830   0.375  10.382
99145SOL    HW299333   1.876   0.504  10.319
99146SOL     OW99334  13.947   9.162   8.653
99146SOL    HW199335  13.917   9.217   8.725
99146SOL    HW299336  13.873   9.105   8.633
99147SOL     OW99337  10.771  13.695   1.039
99147SOL    HW199338  10.695  13.751   1.055
99147SOL    HW299339  10.743  13.607   1.065
99148SOL     OW99340  12.845  11.472   0.669
99148SOL    HW199341  12.853  11.379   0.648
99148SOL    HW299342  12.928  11.494   0.710
99149SOL     OW99343  13.861  13.084   8.381
99149SOL    HW199344  13.773  13.113   8.403
99149SOL    HW299345  13.848  13.012   8.319
99150SOL     OW99346  11.495   0.167   6.724
99150SOL    HW199347  11.557   0.162   6.797
99150SOL    HW299348  11.543   0.132   6.649
99151SOL     OW99349   5.444   8.246  10.980
99151SOL    HW199350   5.390   8.167  10.977
99151SOL    HW299351   5.533   8.214  10.996
99152SOL     OW99352   6.468   3.882   1.545
99152SOL    HW199353   6.531   3.934   1.594
99152SOL    HW299354   6.384   3.899   1.588
99153SOL     OW99355  12.599   8.165   4.663
99153SOL    HW199356  12.505   8.145   4.664
99153SOL    HW299357  12.642   8.081   4.652
99154SOL     OW99358   9.313   4.701   4.041
99154SOL    HW199359   9.341   4.783   4.081
99154SOL    HW299360   9.358   4.633   4.091
99155SOL     OW99361   7.188   9.510  14.079
99155SOL    HW199362   7.093   9.517  14.064
99155SOL    HW299363   7.224   9.485  13.994
99156SOL     OW99364  11.281   2.420   1.108
99156SOL    HW199365  11.236   2.499   1.137
99156SOL    HW299366  11.346   2.402   1.175
99157SOL     OW99367  10.706  10.742   5.400
99157SOL    HW199368  10.740  10.670   5.453
99157SOL    HW299369  10.719  10.713   5.310
99158SOL     OW99370  10.033   0.125   7.550
99158SOL    HW199371   9.999   0.139   7.462
99158SOL    HW299372  10.000   0.039   7.575
99159SOL     OW99373   4.630   0.020   5.890
99159SOL    HW199374   4.614   0.019   5.985
99159SOL    HW299375   4.581  14.824   5.857
99160SOL     OW99376  10.606  10.096   7.741
99160SOL    HW199377  10.567  10.141   7.816
99160SOL    HW299378  10.536  10.093   7.676
99161SOL     OW99379   8.122   6.265   9.831
99161SOL    HW199380   8.080   6.351   9.829
99161SOL    HW299381   8.205   6.280   9.876
99162SOL     OW99382   5.373  13.788   4.888
99162SOL    HW199383   5.312  13.741   4.945
99162SOL    HW299384   5.322  13.808   4.810
99163SOL     OW99385  14.510   1.671   9.424
99163SOL    HW199386  14.535   1.658   9.515
99163SOL    HW299387  14.551   1.754   9.399
99164SOL     OW99388   3.671  11.221   8.488
99164SOL    HW199389   3.722  11.158   8.539
99164SOL    HW299390   3.591  11.234   8.540
99165SOL     OW99391  14.777  12.183   7.546
99165SOL    HW199392  14.732  12.168   7.629
99165SOL    HW299393  14.862  12.218   7.571
99166SOL     OW99394  11.647   6.318   2.146
99166SOL    HW199395  11.610   6.303   2.059
99166SOL    HW299396  11.584   6.376   2.189
99167SOL     OW99397   1.679  12.952   2.765
99167SOL    HW199398   1.673  13.006   2.686
99167SOL    HW299399   1.590  12.948   2.799
99168SOL     OW99400  13.157  13.257   0.798
99168SOL    HW199401  13.157  13.294   0.887
99168SOL    HW299402  13.157  13.333   0.740
99169SOL     OW99403   6.254   3.614   6.824
99169SOL    HW199404   6.326   3.551   6.831
99169SOL    HW299405   6.296   3.699   6.838
99170SOL     OW99406   1.123   6.861   8.044
99170SOL    HW199407   1.094   6.773   8.018
99170SOL    HW299408   1.118   6.860   8.140
99171SOL     OW99409   5.081   6.776   7.856
99171SOL    HW199410   5.082   6.778   7.952
99171SOL    HW299411   5.171   6.800   7.831
99172SOL     OW99412   9.910   0.575  12.610
99172SOL    HW199413   9.854   0.510  12.652
99172SOL    HW299414   9.897   0.563  12.516
99173SOL     OW99415  13.892  11.581  10.435
99173SOL    HW199416  13.811  11.532  10.452
99173SOL    HW299417  13.874  11.669  10.466
99174SOL     OW99418  10.116  12.464   7.427
99174SOL    HW199419  10.207  12.452   7.456
99174SOL    HW299420  10.100  12.557   7.438
99175SOL     OW99421  12.372   1.965   3.221
99175SOL    HW199422  12.315   1.975   3.145
99175SOL    HW299423  12.460   1.983   3.189
99176SOL     OW99424   1.947  12.265  13.756
99176SOL    HW199425   1.997  12.343  13.782
99176SOL    HW299426   1.978  12.245  13.668
99177SOL     OW99427   9.650   1.485   7.598
99177SOL    HW199428   9.705   1.534   7.659
99177SOL    HW299429   9.699   1.404   7.582
99178SOL     OW99430   7.651   1.908   5.450
99178SOL    HW199431   7.733   1.914   5.402
99178SOL    HW299432   7.635   1.814   5.458
99179SOL     OW99433  11.588   7.760  13.187
99179SOL    HW199434  11.665   7.817  13.187
99179SOL    HW299435  11.514   7.820  13.196
99180SOL     OW99436   1.520   3.568   6.172
99180SOL    HW199437   1.516   3.505   6.244
99180SOL    HW299438   1.488   3.650   6.210
99181SOL     OW99439   7.175   9.114   3.950
99181SOL    HW199440   7.251   9.073   3.909
99181SOL    HW299441   7.192   9.107   4.044
99182SOL     OW99442   2.644   1.079   5.545
99182SOL    HW199443   2.704   1.122   5.483
99182SOL    HW299444   2.701   1.023   5.598
99183SOL     OW99445   3.298  13.073  11.831
99183SOL    HW199446   3.245  13.032  11.899
99183SOL    HW299447   3.237  13.126  11.781
99184SOL     OW99448  13.128   8.933  13.904
99184SOL    HW199449  13.102   8.856  13.853
99184SOL    HW299450  13.161   8.995  13.839
99185SOL     OW99451   4.974   1.089   7.826
99185SOL    HW199452   4.939   1.140   7.899
99185SOL    HW299453   5.059   1.058   7.857
99186SOL     OW99454   6.870  14.873  14.875
99186SOL    HW199455   6.923   0.041   0.060
99186SOL    HW299456   6.882  14.781   0.019
99187SOL     OW99457   7.505  12.493  11.094
99187SOL    HW199458   7.455  12.529  11.167
99187SOL    HW299459   7.439  12.458  11.034
99188SOL     OW99460   7.963   4.748   6.330
99188SOL    HW199461   7.881   4.713   6.295
99188SOL    HW299462   8.030   4.718   6.270
99189SOL     OW99463   3.240  13.817   2.194
99189SOL    HW199464   3.284  13.760   2.130
99189SOL    HW299465   3.174  13.865   2.143
99190SOL     OW99466   0.041   1.056  14.532
99190SOL    HW199467   0.043   0.979  14.589
99190SOL    HW299468   0.111   1.041  14.468
99191SOL     OW99469   3.724  14.399   8.969
99191SOL    HW199470   3.747  14.442   8.887
99191SOL    HW299471   3.681  14.318   8.943
99192SOL     OW99472  10.431  14.143   5.809
99192SOL    HW199473  10.395  14.166   5.724
99192SOL    HW299474  10.354  14.128   5.865
99193SOL     OW99475  13.025   3.160  12.177
99193SOL    HW199476  12.942   3.207  12.188
99193SOL    HW299477  13.077   3.215  12.119
99194SOL     OW99478   7.299   0.706   5.118
99194SOL    HW199479   7.267   0.655   5.044
99194SOL    HW299480   7.351   0.776   5.078
99195SOL     OW99481  11.179   0.818   9.641
99195SOL    HW199482  11.181   0.823   9.545
99195SOL    HW299483  11.200   0.727   9.660
99196SOL     OW99484  14.013   4.479  10.969
99196SOL    HW199485  13.980   4.559  11.012
99196SOL    HW299486  13.935   4.425  10.957
99197SOL     OW99487   2.003  13.520   3.716
99197SOL    HW199488   1.996  13.457   3.644
99197SOL    HW299489   1.913  13.530   3.747
99198SOL     OW99490   8.907  11.126  14.868
99198SOL    HW199491   8.840  11.141   0.056
99198SOL    HW299492   8.886  11.041  14.831
99199SOL     OW99493  14.043  11.453  10.749
99199SOL    HW199494  14.102  11.528  10.761
99199SOL    HW299495  13.955  11.490  10.757
99200SOL     OW99496   6.326   7.732   5.829
99200SOL    HW199497   6.231   7.730   5.816
99200SOL    HW299498   6.338   7.703   5.920
99201SOL     OW99499  11.919   8.156   0.661
99201SOL    HW199500  11.933   8.250   0.655
99201SOL    HW299501  11.865   8.134   0.586
99202SOL     OW99502   8.673   7.496   2.977
99202SOL    HW199503   8.768   7.494   2.980
99202SOL    HW299504   8.653   7.512   2.884
99203SOL     OW99505   3.322  13.900   4.778
99203SOL    HW199506   3.248  13.932   4.830
99203SOL    HW299507   3.393  13.888   4.841
99204SOL     OW99508  14.687   2.644   6.416
99204SOL    HW199509  14.696   2.549   6.416
99204SOL    HW299510  14.672   2.666   6.324
99205SOL     OW99511   2.269   5.263  10.335
99205SOL    HW199512   2.280   5.358  10.327
99205SOL    HW299513   2.289   5.230  10.248
99206SOL     OW99514  13.989   8.685  14.521
99206SOL    HW199515  14.061   8.743  14.496
99206SOL    HW299516  14.000   8.607  14.466
99207SOL     OW99517   1.606  11.943   9.744
99207SOL    HW199518   1.548  12.018   9.731
99207SOL    HW299519   1.603  11.927   9.839
99208SOL     OW99520   7.776   6.806   4.605
99208SOL    HW199521   7.867   6.785   4.582
99208SOL    HW299522   7.764   6.896   4.576
99209SOL     OW99523   0.116   9.057   6.463
99209SOL    HW199524   0.158   9.115   6.399
99209SOL    HW299525   0.116   9.108   6.544
99210SOL     OW99526  13.484  11.095   7.540
99210SOL    HW199527  13.417  11.146   7.494
99210SOL    HW299528  13.556  11.089   7.477
99211SOL     OW99529  14.247   9.994   9.997
99211SOL    HW199530  14.337  10.024  10.005
99211SOL    HW299531  14.241   9.958   9.908
99212SOL     OW99532   5.835  12.136  10.070
99212SOL    HW199533   5.792  12.177  10.146
99212SOL    HW299534   5.925  12.122  10.099
99213SOL     OW99535   7.570   1.785  12.672
99213SOL    HW199536   7.539   1.755  12.757
99213SOL    HW299537   7.600   1.875  12.688
99214SOL     OW99538  12.952   4.989   5.174
99214SOL    HW199539  12.869   4.970   5.217
99214SOL    HW299540  12.928   5.014   5.085
99215SOL     OW99541   2.349   4.467   0.086
99215SOL    HW199542   2.297   4.396   0.122
99215SOL    HW299543   2.366   4.525   0.162
99216SOL     OW99544   0.042   0.936   4.675
99216SOL    HW199545   0.071   1.001   4.739
99216SOL    HW299546   0.093   0.957   4.596
99217SOL     OW99547  12.908   5.034   7.699
99217SOL    HW199548  12.820   5.038   7.663
99217SOL    HW299549  12.920   4.943   7.726
99218SOL     OW99550   8.933   7.987   3.979
99218SOL    HW199551   8.928   8.054   4.047
99218SOL    HW299552   8.849   7.941   3.983
99219SOL     OW99553  12.217   7.322  13.331
99219SOL    HW199554  12.146   7.259  13.342
99219SOL    HW299555  12.217   7.343  13.238
99220SOL     OW99556   7.671   1.040   5.926
99220SOL    HW199557   7.611   1.095   5.975
99220SOL    HW299558   7.616   1.001   5.856
99221SOL     OW99559  10.953   1.126   8.971
99221SOL    HW199560  10.944   1.210   9.015
99221SOL    HW299561  10.937   1.145   8.878
99222SOL     OW99562   4.891  14.579   8.870
99222SOL    HW199563   4.920  14.658   8.825
99222SOL    HW299564   4.849  14.611   8.950
99223SOL     OW99565   2.371   7.735   0.286
99223SOL    HW199566   2.327   7.657   0.254
99223SOL    HW299567   2.305   7.804   0.280
99224SOL     OW99568   2.086   1.490   6.703
99224SOL    HW199569   2.003   1.537   6.709
99224SOL    HW299570   2.153   1.557   6.715
99225SOL     OW99571   9.793   3.107  10.819
99225SOL    HW199572   9.724   3.139  10.761
99225SOL    HW299573   9.865   3.169  10.807
99226SOL     OW99574  11.589   8.924  14.006
99226SOL    HW199575  11.631   8.947  13.923
99226SOL    HW299576  11.500   8.957  13.999
99227SOL     OW99577   2.897  11.745  14.603
99227SOL    HW199578   2.859  11.664  14.571
99227SOL    HW299579   2.824  11.790  14.647
99228SOL     OW99580   1.578   6.665   3.078
99228SOL    HW199581   1.572   6.601   3.007
99228SOL    HW299582   1.488   6.693   3.093
99229SOL     OW99583   6.170  12.633  11.078
99229SOL    HW199584   6.198  12.710  11.028
99229SOL    HW299585   6.173  12.562  11.015
99230SOL     OW99586   7.086  14.573   3.850
99230SOL    HW199587   7.061  14.649   3.902
99230SOL    HW299588   7.003  14.537   3.818
99231SOL     OW99589  14.524   5.987   4.921
99231SOL    HW199590  14.570   6.041   4.857
99231SOL    HW299591  14.591   5.926   4.953
99232SOL     OW99592   7.691   0.092   5.731
99232SOL    HW199593   7.769   0.117   5.780
99232SOL    HW299594   7.722   0.027   5.668
99233SOL     OW99595   2.164   9.999   4.806
99233SOL    HW199596   2.173  10.004   4.901
99233SOL    HW299597   2.141  10.088   4.779
99234SOL     OW99598   0.606   1.349   1.592
99234SOL    HW199599   0.565   1.400   1.522
99234SOL    HW299600   0.537   1.340   1.658
99235SOL     OW99601  12.860   3.971   7.051
99235SOL    HW199602  12.911   3.946   7.128
99235SOL    HW299603  12.921   3.967   6.978
99236SOL     OW99604   1.875  12.285   5.941
99236SOL    HW199605   1.836  12.216   5.994
99236SOL    HW299606   1.810  12.356   5.943
99237SOL     OW99607  11.312   1.993  10.129
99237SOL    HW199608  11.310   2.078  10.086
99237SOL    HW299609  11.404   1.969  10.131
99238SOL     OW99610   8.768  14.099   2.877
99238SOL    HW199611   8.689  14.053   2.847
99238SOL    HW299612   8.806  14.135   2.796
99239SOL     OW99613   8.514   9.854   1.874
99239SOL    HW199614   8.600   9.866   1.833
99239SOL    HW299615   8.531   9.794   1.947
99240SOL     OW99616   2.519   8.420   3.773
99240SOL    HW199617   2.477   8.337   3.797
99240SOL    HW299618   2.592   8.427   3.835
99241SOL     OW99619  13.724   6.458   5.739
99241SOL    HW199620  13.771   6.475   5.820
99241SOL    HW299621  13.641   6.420   5.766
99242SOL     OW99622   1.026  12.444  11.630
99242SOL    HW199623   0.963  12.394  11.580
99242SOL    HW299624   0.983  12.529  11.645
99243SOL     OW99625  10.735   7.545   4.004
99243SOL    HW199626  10.677   7.511   4.071
99243SOL    HW299627  10.804   7.479   3.996
99244SOL     OW99628  10.259   9.170   6.578
99244SOL    HW199629  10.336   9.224   6.595
99244SOL    HW299630  10.264   9.149   6.485
99245SOL     OW99631   8.217   5.510   1.091
99245SOL    HW199632   8.207   5.415   1.094
99245SOL    HW299633   8.184   5.535   1.004
99246SOL     OW99634  11.687  14.348   9.711
99246SOL    HW199635  11.604  14.329   9.755
99246SOL    HW299636  11.664  14.413   9.644
99247SOL     OW99637   8.323   5.134  11.526
99247SOL    HW199638   8.247   5.084  11.494
99247SOL    HW299639   8.362   5.171  11.446
99248SOL     OW99640  13.495   4.940   0.528
99248SOL    HW199641  13.452   4.965   0.446
99248SOL    HW299642  13.583   4.978   0.520
99249SOL     OW99643   4.073   0.424   4.961
99249SOL    HW199644   3.981   0.448   4.951
99249SOL    HW299645   4.072   0.348   5.020
99250SOL     OW99646   4.557   3.648  11.580
99250SOL    HW199647   4.571   3.573  11.521
99250SOL    HW299648   4.510   3.712  11.527
99251SOL     OW99649   7.281  13.959  14.314
99251SOL    HW199650   7.207  13.907  14.281
99251SOL    HW299651   7.338  13.969  14.238
99252SOL     OW99652   3.033  11.915  10.988
99252SOL    HW199653   2.979  11.840  10.959
99252SOL    HW299654   3.108  11.913  10.929
99253SOL     OW99655   2.799   0.929   0.556
99253SOL    HW199656   2.764   0.928   0.645
99253SOL    HW299657   2.868   0.995   0.558
99254SOL     OW99658  14.703   3.578  10.838
99254SOL    HW199659  14.640   3.513  10.807
99254SOL    HW299660  14.720   3.554  10.929
99255SOL     OW99661  12.646  12.223  12.549
99255SOL    HW199662  12.581  12.165  12.510
99255SOL    HW299663  12.656  12.294  12.486
99256SOL     OW99664   1.537   2.845  12.126
99256SOL    HW199665   1.584   2.886  12.053
99256SOL    HW299666   1.493   2.918  12.169
99257SOL     OW99667  10.786  13.562  13.721
99257SOL    HW199668  10.773  13.655  13.706
99257SOL    HW299669  10.700  13.530  13.748
99258SOL     OW99670   9.622  10.429  10.848
99258SOL    HW199671   9.644  10.520  10.866
99258SOL    HW299672   9.706  10.384  10.841
99259SOL     OW99673  12.112   1.376   7.827
99259SOL    HW199674  12.148   1.390   7.914
99259SOL    HW299675  12.068   1.458   7.805
99260SOL     OW99676   4.000   7.802  14.491
99260SOL    HW199677   3.913   7.833  14.467
99260SOL    HW299678   3.984   7.718  14.534
99261SOL     OW99679  14.140   0.089  11.163
99261SOL    HW199680  14.081   0.089  11.239
99261SOL    HW299681  14.210   0.149  11.188
99262SOL     OW99682   3.214  14.261   5.001
99262SOL    HW199683   3.286  14.243   5.062
99262SOL    HW299684   3.154  14.317   5.050
99263SOL     OW99685  12.186   9.495  13.492
99263SOL    HW199686  12.128   9.562  13.456
99263SOL    HW299687  12.230   9.457  13.416
99264SOL     OW99688  10.636   2.970   3.369
99264SOL    HW199689  10.567   2.930   3.317
99264SOL    HW299690  10.705   2.904   3.372
99265SOL     OW99691   4.696   7.378   7.281
99265SOL    HW199692   4.777   7.329   7.298
99265SOL    HW299693   4.626   7.321   7.315
99266SOL     OW99694  11.555   6.656   1.414
99266SOL    HW199695  11.622   6.717   1.446
99266SOL    HW299696  11.583   6.570   1.446
99267SOL     OW99697  10.471   7.937   2.781
99267SOL    HW199698  10.407   7.982   2.726
99267SOL    HW299699  10.469   7.986   2.864
99268SOL     OW99700  12.640  12.313   4.616
99268SOL    HW199701  12.644  12.382   4.550
99268SOL    HW299702  12.548  12.310   4.642
99269SOL     OW99703  13.334   7.474   4.043
99269SOL    HW199704  13.314   7.439   3.956
99269SOL    HW299705  13.256   7.455   4.095
99270SOL     OW99706   5.867  11.356  14.005
99270SOL    HW199707   5.902  11.425  14.061
99270SOL    HW299708   5.945  11.312  13.970
99271SOL     OW99709   1.326   5.561   8.213
99271SOL    HW199710   1.330   5.533   8.304
99271SOL    HW299711   1.234   5.551   8.189
99272SOL     OW99712  14.393  11.639  11.735
99272SOL    HW199713  14.455  11.582  11.780
99272SOL    HW299714  14.425  11.728  11.753
99273SOL     OW99715   5.069  12.096   2.070
99273SOL    HW199716   5.129  12.133   2.004
99273SOL    HW299717   4.983  12.129   2.045
99274SOL     OW99718  13.969   8.161   2.694
99274SOL    HW199719  14.061   8.168   2.667
99274SOL    HW299720  13.946   8.250   2.722
99275SOL     OW99721   3.468   6.171  12.534
99275SOL    HW199722   3.563   6.188  12.528
99275SOL    HW299723   3.428   6.258  12.531
99276SOL     OW99724   7.419   0.042   5.718
99276SOL    HW199725   7.411  14.850   5.781
99276SOL    HW299726   7.513   0.062   5.718
99277SOL     OW99727   7.035  14.010   7.140
99277SOL    HW199728   7.057  14.088   7.190
99277SOL    HW299729   6.990  13.953   7.203
99278SOL     OW99730  13.336   8.637   4.966
99278SOL    HW199731  13.401   8.706   4.950
99278SOL    HW299732  13.387   8.556   4.967
99279SOL     OW99733   6.117   2.651   1.456
99279SOL    HW199734   6.070   2.681   1.534
99279SOL    HW299735   6.172   2.579   1.487
99280SOL     OW99736  14.871   2.728  10.164
99280SOL    HW199737   0.049   2.733  10.088
99280SOL    HW299738  14.821   2.810  10.161
99281SOL     OW99739   4.975   1.177  12.107
99281SOL    HW199740   4.882   1.178  12.085
99281SOL    HW299741   5.005   1.266  12.088
99282SOL     OW99742   2.397   0.831  12.652
99282SOL    HW199743   2.467   0.896  12.652
99282SOL    HW299744   2.349   0.846  12.571
99283SOL     OW99745   5.783  11.394   7.379
99283SOL    HW199746   5.780  11.322   7.441
99283SOL    HW299747   5.693  11.428   7.378
99284SOL     OW99748   7.814   0.198   4.347
99284SOL    HW199749   7.820   0.291   4.322
99284SOL    HW299750   7.807   0.152   4.264
99285SOL     OW99751   1.324   5.813   1.616
99285SOL    HW199752   1.381   5.761   1.672
99285SOL    HW299753   1.384   5.850   1.551
99286SOL     OW99754  11.768   3.461   4.579
99286SOL    HW199755  11.789   3.368   4.585
99286SOL    HW299756  11.732   3.472   4.491
99287SOL     OW99757   4.676  14.094   4.624
99287SOL    HW199758   4.754  14.070   4.675
99287SOL    HW299759   4.653  14.014   4.577
99288SOL     OW99760   2.961   2.346  13.117
99288SOL    HW199761   2.934   2.282  13.051
99288SOL    HW299762   2.878   2.377  13.154
99289SOL     OW99763   4.310   5.634  11.240
99289SOL    HW199764   4.289   5.690  11.314
99289SOL    HW299765   4.378   5.575  11.272
99290SOL     OW99766   7.347  11.661   2.689
99290SOL    HW199767   7.263  11.676   2.733
99290SOL    HW299768   7.330  11.588   2.629
99291SOL     OW99769   1.887   0.254   0.015
99291SOL    HW199770   1.856   0.248   0.105
99291SOL    HW299771   1.810   0.236  14.842
99292SOL     OW99772   7.746   5.693  13.805
99292SOL    HW199773   7.749   5.758  13.736
99292SOL    HW299774   7.803   5.623  13.775
99293SOL     OW99775   1.971  12.785  12.627
99293SOL    HW199776   1.889  12.735  12.629
99293SOL    HW299777   1.947  12.867  12.584
99294SOL     OW99778   2.421   6.285   8.867
99294SOL    HW199779   2.444   6.358   8.810
99294SOL    HW299780   2.495   6.225   8.862
99295SOL     OW99781   4.024  12.581  10.214
99295SOL    HW199782   4.042  12.675  10.214
99295SOL    HW299783   4.032  12.555  10.122
99296SOL     OW99784  10.615  14.756  11.999
99296SOL    HW199785  10.660  14.722  12.077
99296SOL    HW299786  10.676  14.820  11.962
99297SOL     OW99787   2.913   0.580   1.132
99297SOL    HW199788   2.930   0.487   1.116
99297SOL    HW299789   2.817   0.585   1.140
99298SOL     OW99790  14.051   4.271  13.527
99298SOL    HW199791  14.082   4.343  13.581
99298SOL    HW299792  13.967   4.246  13.565
99299SOL     OW99793   2.940   7.525   7.443
99299SOL    HW199794   2.924   7.596   7.506
99299SOL    HW299795   2.940   7.569   7.358
99300SOL     OW99796   6.604  10.916   8.115
99300SOL    HW199797   6.647  10.950   8.194
99300SOL    HW299798   6.511  10.931   8.130
99301SOL     OW99799   0.646   8.236  11.222
99301SOL    HW199800   0.679   8.316  11.181
99301SOL    HW299801   0.718   8.173  11.216
99302SOL     OW99802  11.088   4.388   8.903
99302SOL    HW199803  11.032   4.406   8.827
99302SOL    HW299804  11.063   4.455   8.967
99303SOL     OW99805  13.760   7.017  14.840
99303SOL    HW199806  13.761   7.053   0.049
99303SOL    HW299807  13.812   7.079  14.788
99304SOL     OW99808   2.258   4.221   0.179
99304SOL    HW199809   2.212   4.137   0.178
99304SOL    HW299810   2.254   4.250   0.270
99305SOL     OW99811  11.747  12.940  14.298
99305SOL    HW199812  11.724  12.871  14.236
99305SOL    HW299813  11.832  12.973  14.266
99306SOL     OW99814   2.312   2.934  11.141
99306SOL    HW199815   2.295   2.857  11.195
99306SOL    HW299816   2.259   2.921  11.063
99307SOL     OW99817   2.079  13.732  11.961
99307SOL    HW199818   2.029  13.771  11.890
99307SOL    HW299819   2.121  13.655  11.921
99308SOL     OW99820   0.457   4.731  10.718
99308SOL    HW199821   0.386   4.748  10.781
99308SOL    HW299822   0.535   4.770  10.759
99309SOL     OW99823   0.369   0.142   6.968
99309SOL    HW199824   0.318   0.185   6.900
99309SOL    HW299825   0.327   0.057   6.980
99310SOL     OW99826   2.283   9.359  11.347
99310SOL    HW199827   2.302   9.342  11.440
99310SOL    HW299828   2.244   9.446  11.347
99311SOL     OW99829   2.423   4.577   1.685
99311SOL    HW199830   2.344   4.532   1.654
99311SOL    HW299831   2.473   4.509   1.731
99312SOL     OW99832   7.503  10.624   2.059
99312SOL    HW199833   7.540  10.693   2.003
99312SOL    HW299834   7.535  10.644   2.147
99313SOL     OW99835  12.197   4.705  10.169
99313SOL    HW199836  12.252   4.720  10.245
99313SOL    HW299837  12.131   4.775  10.173
99314SOL     OW99838   5.589   2.178  10.719
99314SOL    HW199839   5.513   2.189  10.775
99314SOL    HW299840   5.586   2.253  10.659
99315SOL     OW99841   9.281   5.393   9.760
99315SOL    HW199842   9.215   5.379   9.829
99315SOL    HW299843   9.231   5.427   9.686
99316SOL     OW99844   9.621   7.586   5.013
99316SOL    HW199845   9.541   7.559   5.059
99316SOL    HW299846   9.645   7.508   4.962
99317SOL     OW99847   8.383   3.076   3.008
99317SOL    HW199848   8.435   3.004   2.974
99317SOL    HW299849   8.332   3.038   3.080
99318SOL     OW99850   7.283  12.207  12.097
99318SOL    HW199851   7.341  12.273  12.059
99318SOL    HW299852   7.240  12.252  12.169
99319SOL     OW99853   3.793   2.521   9.500
99319SOL    HW199854   3.868   2.475   9.537
99319SOL    HW299855   3.721   2.503   9.560
99320SOL     OW99856  11.051   1.197   4.698
99320SOL    HW199857  11.046   1.207   4.794
99320SOL    HW299858  11.091   1.278   4.667
99321SOL     OW99859   6.913   4.794   3.759
99321SOL    HW199860   6.863   4.795   3.677
99321SOL    HW299861   6.960   4.710   3.756
99322SOL     OW99862   8.609   8.015   0.145
99322SOL    HW199863   8.527   8.060   0.166
99322SOL    HW299864   8.673   8.052   0.206
99323SOL     OW99865   2.246   3.617   8.842
99323SOL    HW199866   2.161   3.573   8.846
99323SOL    HW299867   2.230   3.704   8.878
99324SOL     OW99868   4.279   5.997  13.221
99324SOL    HW199869   4.191   5.990  13.184
99324SOL    HW299870   4.268   6.047  13.302
99325SOL     OW99871   3.883  10.390   5.828
99325SOL    HW199872   3.948  10.377   5.759
99325SOL    HW299873   3.826  10.459   5.794
99326SOL     OW99874  13.795   4.491   1.898
99326SOL    HW199875  13.791   4.520   1.989
99326SOL    HW299876  13.888   4.496   1.876
99327SOL     OW99877   8.222   0.476  11.875
99327SOL    HW199878   8.150   0.513  11.926
99327SOL    HW299879   8.254   0.402  11.927
99328SOL     OW99880   8.354   8.023  10.031
99328SOL    HW199881   8.412   8.053  10.101
99328SOL    HW299882   8.402   7.954   9.987
99329SOL     OW99883   1.567  13.145   5.747
99329SOL    HW199884   1.520  13.159   5.829
99329SOL    HW299885   1.576  13.232   5.708
99330SOL     OW99886  12.864   2.169  10.761
99330SOL    HW199887  12.781   2.217  10.762
99330SOL    HW299888  12.930   2.238  10.764
99331SOL     OW99889   3.731   7.909   9.251
99331SOL    HW199890   3.776   7.984   9.214
99331SOL    HW299891   3.733   7.924   9.346
99332SOL     OW99892  10.533   7.180   2.365
99332SOL    HW199893  10.443   7.192   2.395
99332SOL    HW299894  10.532   7.207   2.273
99333SOL     OW99895   5.917   1.480   4.687
99333SOL    HW199896   5.870   1.522   4.615
99333SOL    HW299897   5.994   1.441   4.645
99334SOL     OW99898   9.263   4.125   2.490
99334SOL    HW199899   9.173   4.106   2.515
99334SOL    HW299900   9.309   4.042   2.500
99335SOL     OW99901  14.829   2.678  11.235
99335SOL    HW199902  14.863   2.631  11.310
99335SOL    HW299903  14.762   2.736  11.271
99336SOL     OW99904   8.301   1.565   7.491
99336SOL    HW199905   8.348   1.484   7.473
99336SOL    HW299906   8.208   1.540   7.488
99337SOL     OW99907  13.164  11.526  10.967
99337SOL    HW199908  13.185  11.441  11.005
99337SOL    HW299909  13.068  11.530  10.968
99338SOL     OW99910  11.046   6.267  13.780
99338SOL    HW199911  11.056   6.175  13.803
99338SOL    HW299912  11.091   6.277  13.697
99339SOL     OW99913  13.569   2.097   8.524
99339SOL    HW199914  13.564   2.004   8.504
99339SOL    HW299915  13.505   2.138   8.466
99340SOL     OW99916   7.787   1.873   8.118
99340SOL    HW199917   7.820   1.816   8.049
99340SOL    HW299918   7.763   1.954   8.073
99341SOL     OW99919   7.447   7.186  14.658
99341SOL    HW199920   7.370   7.223  14.615
99341SOL    HW299921   7.511   7.176  14.587
99342SOL     OW99922   7.067   6.534   6.287
99342SOL    HW199923   7.143   6.577   6.246
99342SOL    HW299924   7.044   6.591   6.361
99343SOL     OW99925   5.563   9.568  11.826
99343SOL    HW199926   5.497   9.606  11.768
99343SOL    HW299927   5.598   9.494  11.778
99344SOL     OW99928   4.257  10.869   8.327
99344SOL    HW199929   4.352  10.856   8.333
99344SOL    HW299930   4.239  10.944   8.383
99345SOL     OW99931  14.544  11.150   6.947
99345SOL    HW199932  14.621  11.201   6.974
99345SOL    HW299933  14.498  11.207   6.886
99346SOL     OW99934   4.859   8.884  14.688
99346SOL    HW199935   4.940   8.844  14.720
99346SOL    HW299936   4.879   8.913  14.599
99347SOL     OW99937   4.533   4.770   8.445
99347SOL    HW199938   4.553   4.743   8.355
99347SOL    HW299939   4.614   4.751   8.494
99348SOL     OW99940  10.756   9.684  12.823
99348SOL    HW199941  10.805   9.613  12.863
99348SOL    HW299942  10.814   9.719  12.756
99349SOL     OW99943   8.404   6.473  13.582
99349SOL    HW199944   8.383   6.380  13.577
99349SOL    HW299945   8.498   6.476  13.597
99350SOL     OW99946   7.001  11.133   3.360
99350SOL    HW199947   7.040  11.216   3.332
99350SOL    HW299948   6.990  11.083   3.278
99351SOL     OW99949   8.339  12.895   7.163
99351SOL    HW199950   8.413  12.956   7.159
99351SOL    HW299951   8.376  12.816   7.203
99352SOL     OW99952   3.954   4.331   7.885
99352SOL    HW199953   3.888   4.399   7.896
99352SOL    HW299954   3.930   4.263   7.949
99353SOL     OW99955  11.847  10.329   8.894
99353SOL    HW199956  11.868  10.422   8.893
99353SOL    HW299957  11.929  10.284   8.875
99354SOL     OW99958   4.709   5.216   8.265
99354SOL    HW199959   4.667   5.164   8.197
99354SOL    HW299960   4.784   5.257   8.220
99355SOL     OW99961  14.274  10.936  10.291
99355SOL    HW199962  14.320  10.897  10.217
99355SOL    HW299963  14.314  10.897  10.368
99356SOL     OW99964   8.829  13.553   7.555
99356SOL    HW199965   8.906  13.523   7.507
99356SOL    HW299966   8.860  13.626   7.607
99357SOL     OW99967   0.912  11.379   9.865
99357SOL    HW199968   0.846  11.375   9.934
99357SOL    HW299969   0.963  11.299   9.876
99358SOL     OW99970   9.637  11.844  12.574
99358SOL    HW199971   9.640  11.937  12.594
99358SOL    HW299972   9.543  11.822  12.573
99359SOL     OW99973   2.553   2.392  14.170
99359SOL    HW199974   2.486   2.397  14.239
99359SOL    HW299975   2.621   2.453  14.198
99360SOL     OW99976   4.579   7.707  14.711
99360SOL    HW199977   4.618   7.736  14.629
99360SOL    HW299978   4.626   7.755  14.779
99361SOL     OW99979   2.604  13.352   5.961
99361SOL    HW199980   2.517  13.343   5.921
99361SOL    HW299981   2.608  13.281   6.026
99362SOL     OW99982  12.540   9.481  11.663
99362SOL    HW199983  12.611   9.440  11.612
99362SOL    HW299984  12.474   9.413  11.672
99363SOL     OW99985  13.245   0.699  14.622
99363SOL    HW199986  13.203   0.784  14.617
99363SOL    HW299987  13.265   0.676  14.531
99364SOL     OW99988  12.944   3.237   7.824
99364SOL    HW199989  12.999   3.164   7.798
99364SOL    HW299990  12.917   3.278   7.742
99365SOL     OW99991   1.237  13.812   2.776
99365SOL    HW199992   1.264  13.731   2.731
99365SOL    HW299993   1.311  13.871   2.764
99366SOL     OW99994   4.847   1.701   9.181
99366SOL    HW199995   4.802   1.705   9.266
99366SOL    HW299996   4.928   1.653   9.199
99367SOL     OW99997   8.731   1.491  10.414
99367SOL    HW199998   8.736   1.560  10.348
99367SOL    HW299999   8.668   1.524  10.479
99368SOL     OW    0   8.586   0.117   9.381
99368SOL    HW1    1   8.652   0.052   9.406
99368SOL    HW2    2   8.535   0.132   9.461
99369SOL     OW    3  12.522   0.875   7.807
99369SOL    HW1    4  12.594   0.868   7.745
99369SOL    HW2    5  12.488   0.964   7.794
99370SOL     OW    6   1.505   7.038   3.939
99370SOL    HW1    7   1.536   7.035   3.849
99370SOL    HW2    8   1.454   7.119   3.944
99371SOL     OW    9  14.436  14.408   3.263
99371SOL    HW1   10  14.434  14.318   3.231
99371SOL    HW2   11  14.345  14.437   3.260
99372SOL     OW   12   7.517   5.268   5.822
99372SOL    HW1   13   7.602   5.309   5.834
99372SOL    HW2   14   7.538   5.178   5.796
99373SOL     OW   15   1.733   1.899   7.492
99373SOL    HW1   16   1.766   1.869   7.408
99373SOL    HW2   17   1.638   1.896   7.483
99374SOL     OW   18  13.191   3.452  12.957
99374SOL    HW1   19  13.145   3.445  12.873
99374SOL    HW2   20  13.267   3.394  12.948
99375SOL     OW   21   1.363   1.080   9.165
99375SOL    HW1   22   1.344   0.994   9.202
99375SOL    HW2   23   1.283   1.130   9.178
99376SOL     OW   24   6.519   6.420   1.989
99376SOL    HW1   25   6.477   6.505   1.978
99376SOL    HW2   26   6.456   6.368   2.039
99377SOL     OW   27   4.009   1.698   7.177
99377SOL    HW1   28   4.093   1.652   7.173
99377SOL    HW2   29   3.983   1.692   7.269
99378SOL     OW   30  10.506   8.432   4.544
99378SOL    HW1   31  10.418   8.399   4.530
99378SOL    HW2   32  10.504   8.522   4.512
99379SOL     OW   33   3.541   7.446   9.307
99379SOL    HW1   34   3.531   7.539   9.288
99379SOL    HW2   35   3.622   7.440   9.357
99380SOL     OW   36   6.405   1.521   9.941
99380SOL    HW1   37   6.392   1.530  10.036
99380SOL    HW2   38   6.346   1.450   9.916
99381SOL     OW   39  11.855   8.794   5.976
99381SOL    HW1   40  11.831   8.782   6.068
99381SOL    HW2   41  11.816   8.878   5.951
99382SOL     OW   42   1.328   1.486   5.535
99382SOL    HW1   43   1.275   1.542   5.478
99382SOL    HW2   44   1.416   1.489   5.497
99383SOL     OW   45   5.253  13.220  12.439
99383SOL    HW1   46   5.204  13.176  12.370
99383SOL    HW2   47   5.190  13.281  12.478
99384SOL     OW   48   4.717  11.564   6.885
99384SOL    HW1   49   4.645  11.608   6.930
99384SOL    HW2   50   4.689  11.473   6.877
99385SOL     OW   51   8.304   5.405   4.520
99385SOL    HW1   52   8.361   5.409   4.597
99385SOL    HW2   53   8.272   5.315   4.519
99386SOL     OW   54  13.171  12.383  12.667
99386SOL    HW1   55  13.091  12.331  12.672
99386SOL    HW2   56  13.201  12.371  12.577
99387SOL     OW   57  11.649   0.069  14.771
99387SOL    HW1   58  11.626   0.071  14.864
99387SOL    HW2   59  11.729   0.119  14.765
99388SOL     OW   60  14.220  10.900   5.158
99388SOL    HW1   61  14.239  10.924   5.249
99388SOL    HW2   62  14.216  10.805   5.158
99389SOL     OW   63   0.764  10.724  12.395
99389SOL    HW1   64   0.789  10.719  12.303
99389SOL    HW2   65   0.846  10.734  12.442
99390SOL     OW   66  12.499   8.289   9.359
99390SOL    HW1   67  12.575   8.311   9.413
99390SOL    HW2   68  12.476   8.200   9.384
99391SOL     OW   69   2.435   8.151  11.156
99391SOL    HW1   70   2.361   8.092  11.170
99391SOL    HW2   71   2.422   8.186  11.067
99392SOL     OW   72  10.447   6.612   9.261
99392SOL    HW1   73  10.471   6.647   9.176
99392SOL    HW2   74  10.416   6.688   9.311
99393SOL     OW   75   2.914   7.730   5.164
99393SOL    HW1   76   2.875   7.643   5.174
99393SOL    HW2   77   2.943   7.734   5.073
99394SOL     OW   78   3.054  10.519  11.174
99394SOL    HW1   79   3.039  10.612  11.157
99394SOL    HW2   80   2.971  10.489  11.212
99395SOL     OW   81   4.305  10.480  13.726
99395SOL    HW1   82   4.343  10.559  13.688
99395SOL    HW2   83   4.318  10.413  13.659
99396SOL     OW   84  10.288  10.800  13.745
99396SOL    HW1   85  10.312  10.721  13.696
99396SOL    HW2   86  10.256  10.860  13.678
99397SOL     OW   87   5.051  14.040   3.548
99397SOL    HW1   88   5.103  14.112   3.583
99397SOL    HW2   89   5.012  14.075   3.468
99398SOL     OW   90   3.762   9.521  13.356
99398SOL    HW1   91   3.710   9.553  13.430
99398SOL    HW2   92   3.752   9.587  13.288
99399SOL     OW   93   2.083   8.009   6.597
99399SOL    HW1   94   1.999   8.053   6.609
99399SOL    HW2   95   2.144   8.058   6.654
99400SOL     OW   96  10.559   8.705   7.954
99400SOL    HW1   97  10.524   8.756   8.027
99400SOL    HW2   98  10.482   8.683   7.902
99401SOL     OW   99   1.833  10.163   2.461
99401SOL    HW1  100   1.884  10.197   2.387
99401SOL    HW2  101   1.846  10.227   2.531
99402SOL     OW  102  13.225  10.989  10.451
99402SOL    HW1  103  13.279  10.913  10.430
99402SOL    HW2  104  13.259  11.059  10.395
99403SOL     OW  105   7.307   7.041   6.483
99403SOL    HW1  106   7.282   6.966   6.429
99403SOL    HW2  107   7.384   7.077   6.439
99404SOL     OW  108  12.686  10.575   5.216
99404SOL    HW1  109  12.726  10.533   5.140
99404SOL    HW2  110  12.604  10.612   5.183
99405SOL     OW  111  13.964  11.140   9.078
99405SOL    HW1  112  13.946  11.234   9.085
99405SOL    HW2  113  13.880  11.098   9.095
99406SOL     OW  114   8.934   7.530  11.443
99406SOL    HW1  115   8.997   7.540  11.515
99406SOL    HW2  116   8.892   7.445  11.459
99407SOL     OW  117   2.403  12.335   3.445
99407SOL    HW1  118   2.422  12.265   3.508
99407SOL    HW2  119   2.421  12.296   3.359
99408SOL     OW  120   4.860   4.959   4.132
99408SOL    HW1  121   4.951   4.981   4.153
99408SOL    HW2  122   4.825   4.923   4.214
99409SOL     OW  123  12.051   9.385  11.167
99409SOL    HW1  124  12.109   9.335  11.109
99409SOL    HW2  125  11.974   9.404  11.114
99410SOL     OW  126   6.921   1.725   5.016
99410SOL    HW1  127   6.964   1.671   4.950
99410SOL    HW2  128   6.845   1.762   4.971
99411SOL     OW  129  10.941  10.002  11.598
99411SOL    HW1  130  11.022   9.951  11.596
99411SOL    HW2  131  10.960  10.080  11.545
99412SOL     OW  132  12.365  13.147   8.417
99412SOL    HW1  133  12.458  13.159   8.438
99412SOL    HW2  134  12.358  13.054   8.394
99413SOL     OW  135   7.695   1.344   9.465
99413SOL    HW1  136   7.618   1.354   9.521
99413SOL    HW2  137   7.756   1.410   9.497
99414SOL     OW  138   1.866   1.092  10.478
99414SOL    HW1  139   1.843   1.118  10.567
99414SOL    HW2  140   1.785   1.102  10.428
99415SOL     OW  141   2.831  10.402   5.790
99415SOL    HW1  142   2.909  10.347   5.798
99415SOL    HW2  143   2.863  10.492   5.799
99416SOL     OW  144   5.347  12.909   9.751
99416SOL    HW1  145   5.322  12.894   9.659
99416SOL    HW2  146   5.394  12.830   9.775
99417SOL     OW  147   1.765  10.350  13.762
99417SOL    HW1  148   1.789  10.321  13.851
99417SOL    HW2  149   1.699  10.418  13.776
99418SOL     OW  150   9.785   8.981   2.416
99418SOL    HW1  151   9.815   9.037   2.344
99418SOL    HW2  152   9.729   8.916   2.373
99419SOL     OW  153  11.275   6.179   8.217
99419SOL    HW1  154  11.309   6.103   8.170
99419SOL    HW2  155  11.281   6.154   8.309
99420SOL     OW  156   8.129   6.119  13.743
99420SOL    HW1  157   8.056   6.177  13.765
99420SOL    HW2  158   8.094   6.031  13.757
99421SOL     OW  159  10.301   4.921   1.693
99421SOL    HW1  160  10.261   4.956   1.773
99421SOL    HW2  161  10.234   4.931   1.626
99422SOL     OW  162  14.852  12.350   0.801
99422SOL    HW1  163  14.859  12.366   0.707
99422SOL    HW2  164  14.770  12.392   0.827
99423SOL     OW  165   9.547   0.528   8.699
99423SOL    HW1  166   9.463   0.537   8.745
99423SOL    HW2  167   9.607   0.495   8.766
99424SOL     OW  168   5.389  12.329   7.437
99424SOL    HW1  169   5.399  12.393   7.507
99424SOL    HW2  170   5.301  12.293   7.450
99425SOL     OW  171   8.400   2.646   5.677
99425SOL    HW1  172   8.409   2.579   5.744
99425SOL    HW2  173   8.373   2.724   5.724
99426SOL     OW  174   5.161  10.141   3.443
99426SOL    HW1  175   5.221  10.084   3.490
99426SOL    HW2  176   5.105  10.082   3.393
99427SOL     OW  177  13.585   5.214   7.833
99427SOL    HW1  178  13.600   5.134   7.783
99427SOL    HW2  179  13.572   5.184   7.923
99428SOL     OW  180   3.852   5.557   7.937
99428SOL    HW1  181   3.915   5.626   7.957
99428SOL    HW2  182   3.775   5.578   7.989
99429SOL     OW  183  13.777   7.591   9.695
99429SOL    HW1  184  13.794   7.518   9.755
99429SOL    HW2  185  13.861   7.609   9.654
99430SOL     OW  186  12.939  12.235   8.110
99430SOL    HW1  187  12.962  12.268   8.023
99430SOL    HW2  188  12.847  12.262   8.121
99431SOL     OW  189   7.714   4.021  13.809
99431SOL    HW1  190   7.790   4.061  13.768
99431SOL    HW2  191   7.710   3.933  13.773
99432SOL     OW  192  13.645   6.613   5.479
99432SOL    HW1  193  13.674   6.644   5.565
99432SOL    HW2  194  13.592   6.535   5.499
99433SOL     OW  195  14.450   6.641  10.118
99433SOL    HW1  196  14.494   6.673  10.197
99433SOL    HW2  197  14.368   6.689  10.114
99434SOL     OW  198  13.968  12.376   5.365
99434SOL    HW1  199  14.043  12.403   5.418
99434SOL    HW2  200  14.006  12.334   5.289
99435SOL     OW  201  10.912   8.729  11.900
99435SOL    HW1  202  10.891   8.700  11.811
99435SOL    HW2  203  10.971   8.663  11.934
99436SOL     OW  204   7.320  12.520  14.480
99436SOL    HW1  205   7.369  12.574  14.419
99436SOL    HW2  206   7.258  12.472  14.426
99437SOL     OW  207  10.192   8.735   0.964
99437SOL    HW1  208  10.277   8.730   0.920
99437SOL    HW2  209  10.182   8.651   1.007
99438SOL     OW  210  11.580   2.322   0.486
99438SOL    HW1  211  11.532   2.375   0.424
99438SOL    HW2  212  11.660   2.371   0.503
99439SOL     OW  213  13.717  12.793  11.848
99439SOL    HW1  214  13.767  12.713  11.830
99439SOL    HW2  215  13.756  12.829  11.927
99440SOL     OW  216  11.576  11.318  14.627
99440SOL    HW1  217  11.662  11.345  14.659
99440SOL    HW2  218  11.560  11.374  14.551
99441SOL     OW  219   9.227   4.633   6.027
99441SOL    HW1  220   9.214   4.580   6.106
99441SOL    HW2  221   9.147   4.619   5.977
99442SOL     OW  222  13.848  12.762  10.816
99442SOL    HW1  223  13.777  12.794  10.761
99442SOL    HW2  224  13.831  12.799  10.903
99443SOL     OW  225   0.049  14.871   5.999
99443SOL    HW1  226   0.116   0.004   5.932
99443SOL    HW2  227   0.030  14.777   5.998
99444SOL     OW  228  10.884   2.251  11.666
99444SOL    HW1  229  10.892   2.251  11.571
99444SOL    HW2  230  10.949   2.187  11.695
99445SOL     OW  231   8.735   0.549   0.866
99445SOL    HW1  232   8.647   0.560   0.901
99445SOL    HW2  233   8.725   0.559   0.771
99446SOL     OW  234   9.785   1.944   4.713
99446SOL    HW1  235   9.737   1.864   4.692
99446SOL    HW2  236   9.818   1.930   4.801
99447SOL     OW  237   7.466  11.075   2.956
99447SOL    HW1  238   7.388  11.022   2.975
99447SOL    HW2  239   7.445  11.162   2.989
99448SOL     OW  240   4.613   7.322   0.506
99448SOL    HW1  241   4.556   7.251   0.532
99448SOL    HW2  242   4.675   7.331   0.578
99449SOL     OW  243  12.666   1.111   1.897
99449SOL    HW1  244  12.606   1.167   1.946
99449SOL    HW2  245  12.705   1.053   1.963
99450SOL     OW  246   9.924   8.979  13.522
99450SOL    HW1  247   9.845   8.971  13.576
99450SOL    HW2  248   9.917   9.066  13.483
99451SOL     OW  249  12.492  13.461  10.417
99451SOL    HW1  250  12.453  13.413  10.490
99451SOL    HW2  251  12.444  13.543  10.413
99452SOL     OW  252   3.504   6.410  13.409
99452SOL    HW1  253   3.497   6.367  13.324
99452SOL    HW2  254   3.445   6.485  13.403
99453SOL     OW  255  14.303  10.874   1.623
99453SOL    HW1  256  14.259  10.846   1.703
99453SOL    HW2  257  14.237  10.864   1.554
99454SOL     OW  258   5.255  14.565  10.807
99454SOL    HW1  259   5.325  14.549  10.871
99454SOL    HW2  260   5.185  14.605  10.858
99455SOL     OW  261   3.043   8.978   8.531
99455SOL    HW1  262   3.072   9.044   8.595
99455SOL    HW2  263   2.995   8.914   8.583
99456SOL     OW  264  11.503   8.953  12.658
99456SOL    HW1  265  11.432   8.895  12.628
99456SOL    HW2  266  11.486   8.966  12.751
99457SOL     OW  267   4.863   3.062   8.446
99457SOL    HW1  268   4.838   3.154   8.457
99457SOL    HW2  269   4.857   3.047   8.351
99458SOL     OW  270   1.364   0.471   0.742
99458SOL    HW1  271   1.346   0.516   0.660
99458SOL    HW2  272   1.326   0.384   0.730
99459SOL     OW  273   6.008  10.650  13.429
99459SOL    HW1  274   5.922  10.659  13.388
99459SOL    HW2  275   6.022  10.733  13.474
99460SOL     OW  276   3.112   6.654   9.093
99460SOL    HW1  277   3.079   6.701   9.170
99460SOL    HW2  278   3.095   6.562   9.111
99461SOL     OW  279   6.171  12.936  12.957
99461SOL    HW1  280   6.235  12.994  12.917
99461SOL    HW2  281   6.173  12.959  13.050
99462SOL     OW  282  11.047  14.596   2.052
99462SOL    HW1  283  11.064  14.543   2.130
99462SOL    HW2  284  10.973  14.652   2.078
99463SOL     OW  285  11.552   7.244   6.946
99463SOL    HW1  286  11.481   7.297   6.910
99463SOL    HW2  287  11.617   7.308   6.977
99464SOL     OW  288  11.886   1.182   2.814
99464SOL    HW1  289  11.961   1.182   2.873
99464SOL    HW2  290  11.892   1.098   2.768
99465SOL     OW  291   7.578   6.080   0.479
99465SOL    HW1  292   7.559   5.991   0.509
99465SOL    HW2  293   7.501   6.105   0.428
99466SOL     OW  294   7.662  13.774   6.538
99466SOL    HW1  295   7.593  13.840   6.540
99466SOL    HW2  296   7.742  13.824   6.521
99467SOL     OW  297   2.857   0.261   3.967
99467SOL    HW1  298   2.947   0.265   4.000
99467SOL    HW2  299   2.805   0.229   4.041
99468SOL     OW  300   4.051   4.092  11.529
99468SOL    HW1  301   3.992   4.156  11.489
99468SOL    HW2  302   4.074   4.033  11.458
99469SOL     OW  303   5.282   9.777  13.914
99469SOL    HW1  304   5.301   9.827  13.834
99469SOL    HW2  305   5.188   9.760  13.910
99470SOL     OW  306   8.511  12.528   4.834
99470SOL    HW1  307   8.593  12.527   4.784
99470SOL    HW2  308   8.445  12.495   4.772
99471SOL     OW  309   2.597   3.660   7.747
99471SOL    HW1  310   2.563   3.743   7.712
99471SOL    HW2  311   2.635   3.683   7.832
99472SOL     OW  312   0.575   4.256   8.729
99472SOL    HW1  313   0.610   4.286   8.812
99472SOL    HW2  314   0.588   4.330   8.669
99473SOL     OW  315  11.924   1.441   5.074
99473SOL    HW1  316  11.926   1.350   5.103
99473SOL    HW2  317  11.853   1.480   5.124
99474SOL     OW  318   5.210   6.995  12.852
99474SOL    HW1  319   5.270   7.040  12.912
99474SOL    HW2  320   5.176   7.065  12.795
99475SOL     OW  321  13.733   9.070   0.086
99475SOL    HW1  322  13.668   9.032   0.028
99475SOL    HW2  323  13.815   9.027   0.061
99476SOL     OW  324   8.971   2.819   3.865
99476SOL    HW1  325   8.969   2.824   3.769
99476SOL    HW2  326   8.913   2.747   3.887
99477SOL     OW  327  10.766   3.582   6.604
99477SOL    HW1  328  10.730   3.670   6.588
99477SOL    HW2  329  10.805   3.557   6.521
99478SOL     OW  330   6.904   2.265   5.803
99478SOL    HW1  331   6.851   2.290   5.879
99478SOL    HW2  332   6.978   2.326   5.805
99479SOL     OW  333   8.156   1.077  12.160
99479SOL    HW1  334   8.092   1.124  12.213
99479SOL    HW2  335   8.165   0.992  12.204
99480SOL     OW  336   4.040   8.273   6.514
99480SOL    HW1  337   3.972   8.206   6.519
99480SOL    HW2  338   4.098   8.242   6.445
99481SOL     OW  339   9.792   3.625  11.665
99481SOL    HW1  340   9.755   3.712  11.649
99481SOL    HW2  341   9.853   3.638  11.737
99482SOL     OW  342   9.916  13.559   0.376
99482SOL    HW1  343   9.923  13.653   0.392
99482SOL    HW2  344   9.991  13.539   0.319
99483SOL     OW  345   5.696   8.747   8.598
99483SOL    HW1  346   5.769   8.797   8.635
99483SOL    HW2  347   5.725   8.727   8.508
99484SOL     OW  348   7.227  11.719   7.181
99484SOL    HW1  349   7.153  11.776   7.203
99484SOL    HW2  350   7.295  11.743   7.244
99485SOL     OW  351   9.920   2.518  12.076
99485SOL    HW1  352   9.989   2.457  12.103
99485SOL    HW2  353   9.967   2.597  12.049
99486SOL     OW  354  11.772   8.179   7.552
99486SOL    HW1  355  11.854   8.219   7.522
99486SOL    HW2  356  11.704   8.225   7.503
99487SOL     OW  357   1.853  11.277   7.770
99487SOL    HW1  358   1.850  11.315   7.858
99487SOL    HW2  359   1.871  11.352   7.713
99488SOL     OW  360   4.272   6.735  11.388
99488SOL    HW1  361   4.264   6.645  11.417
99488SOL    HW2  362   4.210   6.784  11.442
99489SOL     OW  363   2.655   9.482   5.180
99489SOL    HW1  364   2.624   9.394   5.202
99489SOL    HW2  365   2.720   9.502   5.247
99490SOL     OW  366   8.614  14.750   1.089
99490SOL    HW1  367   8.533  14.711   1.056
99490SOL    HW2  368   8.638  14.814   1.022
99491SOL     OW  369   9.737   9.696   4.217
99491SOL    HW1  370   9.707   9.766   4.159
99491SOL    HW2  371   9.688   9.710   4.298
99492SOL     OW  372  13.856   5.898   7.422
99492SOL    HW1  373  13.886   5.809   7.438
99492SOL    HW2  374  13.765   5.898   7.453
99493SOL     OW  375   5.458  14.267  10.916
99493SOL    HW1  376   5.383  14.259  10.975
99493SOL    HW2  377   5.454  14.358  10.884
99494SOL     OW  378   0.631   2.757  11.448
99494SOL    HW1  379   0.603   2.806  11.371
99494SOL    HW2  380   0.677   2.822  11.501
99495SOL     OW  381   0.962  11.274  11.097
99495SOL    HW1  382   0.895  11.318  11.150
99495SOL    HW2  383   0.915  11.204  11.053
99496SOL     OW  384   9.649   0.995   5.071
99496SOL    HW1  385   9.580   1.007   5.006
99496SOL    HW2  386   9.702   0.923   5.038
99497SOL     OW  387   8.426   8.109   9.672
99497SOL    HW1  388   8.386   8.116   9.758
99497SOL    HW2  389   8.394   8.026   9.637
99498SOL     OW  390   2.893  12.700  13.038
99498SOL    HW1  391   2.929  12.663  13.119
99498SOL    HW2  392   2.908  12.632  12.972
99499SOL     OW  393  10.292   0.482  12.197
99499SOL    HW1  394  10.304   0.399  12.244
99499SOL    HW2  395  10.351   0.475  12.121
99500SOL     OW  396   8.730   2.774  11.902
99500SOL    HW1  397   8.713   2.828  11.979
99500SOL    HW2  398   8.802   2.717  11.929
99501SOL     OW  399  12.199  13.953  11.562
99501SOL    HW1  400  12.164  13.935  11.474
99501SOL    HW2  401  12.128  13.927  11.621
99502SOL     OW  402   0.905   7.723   0.693
99502SOL    HW1  403   0.824   7.728   0.743
99502SOL    HW2  404   0.955   7.654   0.735
99503SOL     OW  405   8.381   5.148   8.681
99503SOL    HW1  406   8.319   5.149   8.608
99503SOL    HW2  407   8.325   5.151   8.759
99504SOL     OW  408   9.397   5.364   5.012
99504SOL    HW1  409   9.474   5.322   4.975
99504SOL    HW2  410   9.401   5.345   5.106
99505SOL     OW  411   1.945   8.509   6.523
99505SOL    HW1  412   2.035   8.483   6.506
99505SOL    HW2  413   1.951   8.601   6.548
99506SOL     OW  414   3.064   8.003   0.215
99506SOL    HW1  415   2.992   8.015   0.153
99506SOL    HW2  416   3.139   8.043   0.171
99507SOL     OW  417  11.280   8.705   7.716
99507SOL    HW1  418  11.290   8.645   7.642
99507SOL    HW2  419  11.305   8.791   7.682
99508SOL     OW  420   1.029   6.364   5.228
99508SOL    HW1  421   0.962   6.302   5.255
99508SOL    HW2  422   1.111   6.329   5.264
99509SOL     OW  423   4.318  14.245   7.602
99509SOL    HW1  424   4.361  14.181   7.659
99509SOL    HW2  425   4.317  14.326   7.652
99510SOL     OW  426   8.301  10.919   0.633
99510SOL    HW1  427   8.216  10.875   0.639
99510SOL    HW2  428   8.282  11.003   0.591
99511SOL     OW  429  11.569   6.324   1.890
99511SOL    HW1  430  11.630   6.260   1.853
99511SOL    HW2  431  11.548   6.382   1.816
99512SOL     OW  432   8.113   4.532   1.178
99512SOL    HW1  433   8.138   4.568   1.263
99512SOL    HW2  434   8.180   4.466   1.159
99513SOL     OW  435  12.334   7.629  12.622
99513SOL    HW1  436  12.249   7.591  12.599
99513SOL    HW2  437  12.397   7.560  12.603
99514SOL     OW  438  11.826  10.234   8.443
99514SOL    HW1  439  11.802  10.143   8.458
99514SOL    HW2  440  11.858  10.265   8.528
99515SOL     OW  441   0.087   1.756  14.599
99515SOL    HW1  442   0.022   1.725  14.663
99515SOL    HW2  443   0.035   1.804  14.534
99516SOL     OW  444   5.045   4.719  10.775
99516SOL    HW1  445   5.127   4.737  10.729
99516SOL    HW2  446   5.006   4.805  10.790
99517SOL     OW  447   9.028  11.815   4.580
99517SOL    HW1  448   8.953  11.811   4.521
99517SOL    HW2  449   9.029  11.730   4.624
99518SOL     OW  450   9.400   4.067  10.112
99518SOL    HW1  451   9.426   4.062  10.020
99518SOL    HW2  452   9.374   4.158  10.124
99519SOL     OW  453  14.704   2.225   8.027
99519SOL    HW1  454  14.720   2.139   8.065
99519SOL    HW2  455  14.682   2.280   8.102
99520SOL     OW  456   6.635   9.020  13.989
99520SOL    HW1  457   6.574   9.093  13.997
99520SOL    HW2  458   6.648   8.989  14.079
99521SOL     OW  459   4.504  11.727  12.510
99521SOL    HW1  460   4.445  11.654  12.529
99521SOL    HW2  461   4.530  11.759  12.597
99522SOL     OW  462  10.690  12.938  10.241
99522SOL    HW1  463  10.732  12.925  10.326
99522SOL    HW2  464  10.635  12.861  10.229
99523SOL     OW  465   0.409  11.638   8.621
99523SOL    HW1  466   0.424  11.553   8.579
99523SOL    HW2  467   0.496  11.679   8.624
99524SOL     OW  468  11.403  13.648  12.795
99524SOL    HW1  469  11.453  13.715  12.840
99524SOL    HW2  470  11.324  13.693  12.765
99525SOL     OW  471  11.606  11.587   6.697
99525SOL    HW1  472  11.700  11.584   6.712
99525SOL    HW2  473  11.568  11.598   6.784
99526SOL     OW  474   8.465   7.153  14.148
99526SOL    HW1  475   8.444   7.148  14.242
99526SOL    HW2  476   8.475   7.247  14.131
99527SOL     OW  477   3.619   4.360   3.887
99527SOL    HW1  478   3.642   4.338   3.796
99527SOL    HW2  479   3.636   4.454   3.893
99528SOL     OW  480   5.679  14.570  11.556
99528SOL    HW1  481   5.693  14.484  11.595
99528SOL    HW2  482   5.763  14.614  11.562
99529SOL     OW  483   4.164   9.087   3.594
99529SOL    HW1  484   4.258   9.081   3.610
99529SOL    HW2  485   4.131   9.000   3.616
99530SOL     OW  486  11.936  10.212   7.763
99530SOL    HW1  487  11.896  10.209   7.850
99530SOL    HW2  488  12.006  10.148   7.767
99531SOL     OW  489   8.978  10.685  14.141
99531SOL    HW1  490   9.071  10.703  14.129
99531SOL    HW2  491   8.938  10.706  14.056
99532SOL     OW  492   5.188   7.702  12.603
99532SOL    HW1  493   5.261   7.644  12.628
99532SOL    HW2  494   5.144   7.720  12.686
99533SOL     OW  495   2.102  12.107  12.890
99533SOL    HW1  496   2.015  12.095  12.929
99533SOL    HW2  497   2.092  12.179  12.829
99534SOL     OW  498   4.137   6.807   2.446
99534SOL    HW1  499   4.079   6.847   2.381
99534SOL    HW2  500   4.224   6.811   2.406
99535SOL     OW  501   3.916  12.676   5.000
99535SOL    HW1  502   3.863  12.755   5.010
99535SOL    HW2  503   3.947  12.680   4.909
99536SOL     OW  504   0.951   7.883   9.044
99536SOL    HW1  505   0.940   7.864   9.138
99536SOL    HW2  506   0.948   7.797   9.002
99537SOL     OW  507  12.737   2.334   8.448
99537SOL    HW1  508  12.676   2.368   8.383
99537SOL    HW2  509  12.782   2.412   8.482
99538SOL     OW  510  10.037   1.742   6.906
99538SOL    HW1  511  10.109   1.765   6.965
99538SOL    HW2  512   9.962   1.791   6.940
99539SOL     OW  513   3.381  11.790  11.804
99539SOL    HW1  514   3.474  11.784  11.782
99539SOL    HW2  515   3.337  11.788  11.719
99540SOL     OW  516  11.607   0.846  10.345
99540SOL    HW1  517  11.528   0.794  10.361
99540SOL    HW2  518  11.597   0.921  10.404
99541SOL     OW  519  13.383  14.567   1.470
99541SOL    HW1  520  13.318  14.612   1.417
99541SOL    HW2  521  13.393  14.481   1.430
99542SOL     OW  522   1.189   3.688   2.905
99542SOL    HW1  523   1.120   3.745   2.875
99542SOL    HW2  524   1.256   3.692   2.837
99543SOL     OW  525   7.251   9.060   7.885
99543SOL    HW1  526   7.345   9.075   7.881
99543SOL    HW2  527   7.228   9.068   7.978
99544SOL     OW  528   3.592   7.683   4.173
99544SOL    HW1  529   3.623   7.662   4.085
99544SOL    HW2  530   3.541   7.763   4.163
99545SOL     OW  531  10.140  10.611  10.673
99545SOL    HW1  532  10.075  10.670  10.709
99545SOL    HW2  533  10.149  10.542  10.739
99546SOL     OW  534   9.063   2.973  13.373
99546SOL    HW1  535   9.135   2.911  13.365
99546SOL    HW2  536   9.102   3.051  13.414
99547SOL     OW  537   6.826  12.805   8.403
99547SOL    HW1  538   6.894  12.749   8.441
99547SOL    HW2  539   6.829  12.885   8.456
99548SOL     OW  540   6.623   8.352   0.734
99548SOL    HW1  541   6.577   8.407   0.797
99548SOL    HW2  542   6.627   8.266   0.776
99549SOL     OW  543   9.706   7.319   5.254
99549SOL    HW1  544   9.624   7.354   5.219
99549SOL    HW2  545   9.689   7.226   5.267
99550SOL     OW  546   7.629  12.096   6.711
99550SOL    HW1  547   7.685  12.161   6.670
99550SOL    HW2  548   7.687  12.023   6.732
99551SOL     OW  549   6.622  14.740  13.330
99551SOL    HW1  550   6.667  14.776  13.253
99551SOL    HW2  551   6.566  14.671  13.295
99552SOL     OW  552   8.343   5.031  13.781
99552SOL    HW1  553   8.255   5.063  13.762
99552SOL    HW2  554   8.401   5.086  13.728
99553SOL     OW  555   8.650  14.795   8.535
99553SOL    HW1  556   8.719  14.858   8.558
99553SOL    HW2  557   8.590  14.843   8.479
99554SOL     OW  558  13.605   6.477   0.881
99554SOL    HW1  559  13.640   6.429   0.806
99554SOL    HW2  560  13.561   6.553   0.843
99555SOL     OW  561  11.932  14.412   8.028
99555SOL    HW1  562  12.000  14.459   7.979
99555SOL    HW2  563  11.960  14.320   8.024
99556SOL     OW  564   9.344   5.690   5.146
99556SOL    HW1  565   9.420   5.687   5.205
99556SOL    HW2  566   9.378   5.665   5.061
99557SOL     OW  567   8.776   1.988   9.612
99557SOL    HW1  568   8.782   1.900   9.649
99557SOL    HW2  569   8.847   1.991   9.547
99558SOL     OW  570  13.885   0.800   6.744
99558SOL    HW1  571  13.892   0.753   6.827
99558SOL    HW2  572  13.802   0.771   6.706
99559SOL     OW  573  13.953   9.347   6.702
99559SOL    HW1  574  13.980   9.257   6.680
99559SOL    HW2  575  14.034   9.389   6.732
99560SOL     OW  576   1.039   6.978  12.121
99560SOL    HW1  577   1.054   6.940  12.208
99560SOL    HW2  578   0.973   6.920  12.082
99561SOL     OW  579   3.109   1.736  13.627
99561SOL    HW1  580   3.114   1.821  13.670
99561SOL    HW2  581   3.018   1.709  13.639
99562SOL     OW  582   6.537   2.000  13.554
99562SOL    HW1  583   6.442   1.999  13.539
99562SOL    HW2  584   6.548   1.962  13.641
99563SOL     OW  585   2.705   6.897  11.749
99563SOL    HW1  586   2.755   6.889  11.830
99563SOL    HW2  587   2.675   6.808  11.731
99564SOL     OW  588   0.904   4.424   9.106
99564SOL    HW1  589   0.843   4.430   9.179
99564SOL    HW2  590   0.985   4.390   9.145
99565SOL     OW  591   7.773   4.513   0.071
99565SOL    HW1  592   7.693   4.563   0.086
99565SOL    HW2  593   7.768   4.487  14.859
99566SOL     OW  594   3.155   7.450  13.043
99566SOL    HW1  595   3.171   7.447  13.137
99566SOL    HW2  596   3.160   7.358  13.015
99567SOL     OW  597   3.462  10.050   6.287
99567SOL    HW1  598   3.419   9.970   6.316
99567SOL    HW2  599   3.421  10.072   6.204
99568SOL     OW  600   7.441  14.623   6.606
99568SOL    HW1  601   7.371  14.655   6.549
99568SOL    HW2  602   7.515  14.681   6.588
99569SOL     OW  603   1.731  10.854  14.150
99569SOL    HW1  604   1.799  10.857  14.217
99569SOL    HW2  605   1.649  10.868  14.198
99570SOL     OW  606   1.772   1.051   2.746
99570SOL    HW1  607   1.790   1.144   2.761
99570SOL    HW2  608   1.689   1.050   2.699
99571SOL     OW  609   4.230   3.094  13.167
99571SOL    HW1  610   4.182   3.100  13.249
99571SOL    HW2  611   4.181   3.150  13.106
99572SOL     OW  612   5.945  13.603  12.067
99572SOL    HW1  613   5.868  13.546  12.066
99572SOL    HW2  614   5.940  13.652  11.985
99573SOL     OW  615  10.459   9.993   6.532
99573SOL    HW1  616  10.443  10.087   6.535
99573SOL    HW2  617  10.541   9.985   6.483
99574SOL     OW  618  14.736  14.647   9.585
99574SOL    HW1  619  14.820  14.668   9.625
99574SOL    HW2  620  14.671  14.694   9.637
99575SOL     OW  621   9.657  11.526   0.440
99575SOL    HW1  622   9.612  11.451   0.479
99575SOL    HW2  623   9.612  11.602   0.477
99576SOL     OW  624   9.574   4.895  13.152
99576SOL    HW1  625   9.557   4.836  13.079
99576SOL    HW2  626   9.568   4.840  13.229
99577SOL     OW  627   6.133   6.282  13.097
99577SOL    HW1  628   6.078   6.350  13.134
99577SOL    HW2  629   6.072   6.211  13.074
99578SOL     OW  630   1.792   0.733  14.021
99578SOL    HW1  631   1.715   0.757  13.970
99578SOL    HW2  632   1.761   0.734  14.112
99579SOL     OW  633   1.040   1.473   2.948
99579SOL    HW1  634   0.978   1.545   2.958
99579SOL    HW2  635   0.994   1.397   2.985
99580SOL     OW  636   8.855  12.004   3.938
99580SOL    HW1  637   8.871  11.915   3.969
99580SOL    HW2  638   8.940  12.048   3.947
99581SOL     OW  639   8.248   8.426   0.083
99581SOL    HW1  640   8.256   8.488   0.155
99581SOL    HW2  641   8.297   8.467   0.011
99582SOL     OW  642   2.349   0.452   0.291
99582SOL    HW1  643   2.442   0.473   0.303
99582SOL    HW2  644   2.305   0.499   0.363
99583SOL     OW  645   5.278   0.176   3.947
99583SOL    HW1  646   5.237   0.185   3.861
99583SOL    HW2  647   5.330   0.096   3.941
99584SOL     OW  648   7.324   7.498   9.354
99584SOL    HW1  649   7.303   7.411   9.319
99584SOL    HW2  650   7.420   7.497   9.361
99585SOL     OW  651   6.588   4.187  12.090
99585SOL    HW1  652   6.565   4.279  12.100
99585SOL    HW2  653   6.631   4.182  12.005
99586SOL     OW  654   8.255  10.991  11.800
99586SOL    HW1  655   8.267  11.037  11.717
99586SOL    HW2  656   8.237  11.060  11.864
99587SOL     OW  657   6.479   4.164   0.384
99587SOL    HW1  658   6.526   4.220   0.445
99587SOL    HW2  659   6.390   4.157   0.419
99588SOL     OW  660   9.311   9.070   6.659
99588SOL    HW1  661   9.273   9.081   6.747
99588SOL    HW2  662   9.389   9.017   6.674
99589SOL     OW  663  11.852   8.898   3.099
99589SOL    HW1  664  11.889   8.810   3.095
99589SOL    HW2  665  11.915   8.948   3.152
99590SOL     OW  666   9.944   1.206   8.159
99590SOL    HW1  667  10.005   1.162   8.218
99590SOL    HW2  668   9.973   1.179   8.071
99591SOL     OW  669   1.451  10.929   1.580
99591SOL    HW1  670   1.409  10.844   1.579
99591SOL    HW2  671   1.535  10.915   1.535
99592SOL     OW  672   2.383  13.765   9.009
99592SOL    HW1  673   2.326  13.763   9.086
99592SOL    HW2  674   2.355  13.690   8.957
99593SOL     OW  675   3.046  10.003   4.783
99593SOL    HW1  676   3.028  10.097   4.778
99593SOL    HW2  677   3.141   9.997   4.774
99594SOL     OW  678  13.341   7.881   1.774
99594SOL    HW1  679  13.326   7.805   1.717
99594SOL    HW2  680  13.336   7.956   1.714
99595SOL     OW  681  10.473   4.354   5.410
99595SOL    HW1  682  10.451   4.355   5.317
99595SOL    HW2  683  10.516   4.270   5.424
99596SOL     OW  684  10.289   4.622   6.137
99596SOL    HW1  685  10.334   4.545   6.173
99596SOL    HW2  686  10.360   4.681   6.110
99597SOL     OW  687   9.011   3.968   1.126
99597SOL    HW1  688   9.089   4.000   1.171
99597SOL    HW2  689   9.045   3.919   1.051
99598SOL     OW  690   4.474   9.044   4.100
99598SOL    HW1  691   4.542   9.020   4.037
99598SOL    HW2  692   4.392   9.025   4.054
99599SOL     OW  693  12.460  13.720   4.569
99599SOL    HW1  694  12.450  13.813   4.588
99599SOL    HW2  695  12.537  13.693   4.619
99600SOL     OW  696  14.663   8.848   7.093
99600SOL    HW1  697  14.593   8.805   7.044
99600SOL    HW2  698  14.653   8.816   7.183
99601SOL     OW  699  13.836   9.699   1.644
99601SOL    HW1  700  13.782   9.710   1.565
99601SOL    HW2  701  13.805   9.767   1.703
99602SOL     OW  702  10.500  14.659   6.030
99602SOL    HW1  703  10.416  14.666   6.076
99602SOL    HW2  704  10.476  14.622   5.945
99603SOL     OW  705  14.654  13.498   1.978
99603SOL    HW1  706  14.687  13.585   2.000
99603SOL    HW2  707  14.561  13.500   2.002
99604SOL     OW  708   8.077   1.821   1.090
99604SOL    HW1  709   8.085   1.916   1.089
99604SOL    HW2  710   8.016   1.803   1.162
99605SOL     OW  711   5.763  10.563   5.357
99605SOL    HW1  712   5.684  10.600   5.397
99605SOL    HW2  713   5.735  10.531   5.272
99606SOL     OW  714   2.399   9.680  11.712
99606SOL    HW1  715   2.376   9.696  11.621
99606SOL    HW2  716   2.455   9.602  11.710
99607SOL     OW  717   1.669  12.419  12.364
99607SOL    HW1  718   1.609  12.425  12.438
99607SOL    HW2  719   1.754  12.445  12.400
99608SOL     OW  720   6.389   2.523  11.086
99608SOL    HW1  721   6.398   2.610  11.047
99608SOL    HW2  722   6.324   2.535  11.155
99609SOL     OW  723   1.596   8.252   1.407
99609SOL    HW1  724   1.568   8.342   1.422
99609SOL    HW2  725   1.578   8.207   1.489
99610SOL     OW  726  10.517   5.168  14.308
99610SOL    HW1  727  10.492   5.255  14.339
99610SOL    HW2  728  10.541   5.121  14.388
99611SOL     OW  729  12.742  13.704   4.706
99611SOL    HW1  730  12.804  13.631   4.709
99611SOL    HW2  731  12.768  13.755   4.629
99612SOL     OW  732  10.251   2.010   0.525
99612SOL    HW1  733  10.168   1.971   0.550
99612SOL    HW2  734  10.240   2.030   0.432
99613SOL     OW  735   9.630  11.079  13.228
99613SOL    HW1  736   9.642  11.122  13.312
99613SOL    HW2  737   9.719  11.065  13.195
99614SOL     OW  738   9.568   2.733  10.735
99614SOL    HW1  739   9.640   2.747  10.797
99614SOL    HW2  740   9.489   2.743  10.787
99615SOL     OW  741   2.041  11.872  12.459
99615SOL    HW1  742   2.059  11.844  12.548
99615SOL    HW2  743   2.115  11.838  12.408
99616SOL     OW  744   6.557   8.009   8.877
99616SOL    HW1  745   6.569   8.068   8.952
99616SOL    HW2  746   6.496   8.056   8.820
99617SOL     OW  747   5.526   3.537   7.275
99617SOL    HW1  748   5.505   3.598   7.204
99617SOL    HW2  749   5.536   3.452   7.232
99618SOL     OW  750  12.794   1.348  11.901
99618SOL    HW1  751  12.774   1.430  11.857
99618SOL    HW2  752  12.709   1.305  11.912
99619SOL     OW  753   0.322   5.689  14.845
99619SOL    HW1  754   0.377   5.744  14.789
99619SOL    HW2  755   0.294   5.747   0.036
99620SOL     OW  756   4.191   5.992   5.055
99620SOL    HW1  757   4.247   6.048   5.109
99620SOL    HW2  758   4.110   6.041   5.045
99621SOL     OW  759  11.616   2.599   8.766
99621SOL    HW1  760  11.651   2.609   8.678
99621SOL    HW2  761  11.603   2.504   8.776
99622SOL     OW  762   2.173  13.155   2.276
99622SOL    HW1  763   2.242  13.137   2.338
99622SOL    HW2  764   2.218  13.192   2.200
99623SOL     OW  765   6.059  10.344   3.289
99623SOL    HW1  766   6.015  10.427   3.272
99623SOL    HW2  767   5.989  10.279   3.295
99624SOL     OW  768   0.363  14.705   2.887
99624SOL    HW1  769   0.359  14.680   2.795
99624SOL    HW2  770   0.318  14.789   2.892
99625SOL     OW  771   6.840  10.030   6.396
99625SOL    HW1  772   6.901  10.031   6.323
99625SOL    HW2  773   6.756  10.054   6.358
99626SOL     OW  774   5.825   9.130  14.259
99626SOL    HW1  775   5.771   9.121  14.337
99626SOL    HW2  776   5.861   9.218  14.263
99627SOL     OW  777   0.823   2.291   2.031
99627SOL    HW1  778   0.766   2.303   1.955
99627SOL    HW2  779   0.902   2.340   2.011
99628SOL     OW  780   6.095   9.249  14.703
99628SOL    HW1  781   6.157   9.179  14.684
99628SOL    HW2  782   6.029   9.208  14.759
99629SOL     OW  783   0.540  13.515   6.931
99629SOL    HW1  784   0.553  13.551   6.843
99629SOL    HW2  785   0.496  13.586   6.979
99630SOL     OW  786   6.991  14.004   6.669
99630SOL    HW1  787   7.028  13.954   6.596
99630SOL    HW2  788   7.032  13.968   6.747
99631SOL     OW  789   4.910   7.584  11.538
99631SOL    HW1  790   5.003   7.563  11.549
99631SOL    HW2  791   4.864   7.512  11.581
99632SOL     OW  792   5.985   3.871   0.429
99632SOL    HW1  793   6.078   3.866   0.406
99632SOL    HW2  794   5.940   3.827   0.356
99633SOL     OW  795   7.783  13.252  12.945
99633SOL    HW1  796   7.849  13.225  13.010
99633SOL    HW2  797   7.834  13.299  12.879
99634SOL     OW  798   2.278  11.285   7.817
99634SOL    HW1  799   2.344  11.286   7.886
99634SOL    HW2  800   2.195  11.273   7.863
99635SOL     OW  801   0.358   4.861  11.248
99635SOL    HW1  802   0.446   4.845  11.283
99635SOL    HW2  803   0.342   4.953  11.266
99636SOL     OW  804   9.706   8.692   1.016
99636SOL    HW1  805   9.640   8.622   1.011
99636SOL    HW2  806   9.655   8.773   1.014
99637SOL     OW  807  14.864   8.913   8.273
99637SOL    HW1  808   0.028   8.832   8.298
99637SOL    HW2  809  14.771   8.891   8.269
99638SOL     OW  810   1.643   7.571  14.204
99638SOL    HW1  811   1.641   7.487  14.159
99638SOL    HW2  812   1.599   7.631  14.145
99639SOL     OW  813   7.832  10.980   8.144
99639SOL    HW1  814   7.747  10.993   8.187
99639SOL    HW2  815   7.810  10.967   8.052
99640SOL     OW  816   0.181   2.536   5.609
99640SOL    HW1  817   0.188   2.510   5.517
99640SOL    HW2  818   0.092   2.511   5.635
99641SOL     OW  819   8.831  14.103  11.400
99641SOL    HW1  820   8.841  14.060  11.485
99641SOL    HW2  821   8.882  14.184  11.409
99642SOL     OW  822   3.969   6.355   2.509
99642SOL    HW1  823   4.020   6.295   2.563
99642SOL    HW2  824   3.885   6.311   2.497
99643SOL     OW  825   8.253  13.481   4.494
99643SOL    HW1  826   8.299  13.565   4.503
99643SOL    HW2  827   8.195  13.478   4.570
99644SOL     OW  828   2.186   3.401   8.015
99644SOL    HW1  829   2.270   3.445   8.028
99644SOL    HW2  830   2.201   3.343   7.940
99645SOL     OW  831   8.040   9.257   6.194
99645SOL    HW1  832   7.968   9.307   6.156
99645SOL    HW2  833   8.056   9.299   6.278
99646SOL     OW  834   5.234   9.569   2.629
99646SOL    HW1  835   5.273   9.651   2.599
99646SOL    HW2  836   5.285   9.500   2.586
99647SOL     OW  837   7.097  14.106   8.324
99647SOL    HW1  838   7.183  14.109   8.280
99647SOL    HW2  839   7.035  14.088   8.254
99648SOL     OW  840   1.274   4.013   2.284
99648SOL    HW1  841   1.327   3.934   2.297
99648SOL    HW2  842   1.193   3.996   2.331
99649SOL     OW  843  13.779   6.154   4.444
99649SOL    HW1  844  13.837   6.221   4.408
99649SOL    HW2  845  13.837   6.095   4.492
99650SOL     OW  846   9.123   1.806   7.819
99650SOL    HW1  847   9.047   1.802   7.761
99650SOL    HW2  848   9.164   1.890   7.799
99651SOL     OW  849   1.570  14.583   5.149
99651SOL    HW1  850   1.602  14.617   5.065
99651SOL    HW2  851   1.581  14.488   5.142
99652SOL     OW  852   0.385   7.970   1.807
99652SOL    HW1  853   0.413   7.881   1.788
99652SOL    HW2  854   0.340   7.999   1.727
99653SOL     OW  855   1.895   9.043  13.385
99653SOL    HW1  856   1.972   9.084  13.346
99653SOL    HW2  857   1.821   9.088  13.344
99654SOL     OW  858  12.955   9.731   2.993
99654SOL    HW1  859  12.942   9.697   3.081
99654SOL    HW2  860  12.956   9.826   3.004
99655SOL     OW  861  14.275   3.044  11.329
99655SOL    HW1  862  14.210   2.994  11.379
99655SOL    HW2  863  14.266   3.134  11.360
99656SOL     OW  864   5.231  11.423   4.367
99656SOL    HW1  865   5.180  11.358   4.319
99656SOL    HW2  866   5.321  11.393   4.359
99657SOL     OW  867   2.101   7.240  13.061
99657SOL    HW1  868   2.023   7.289  13.086
99657SOL    HW2  869   2.115   7.261  12.969
99658SOL     OW  870  11.228  14.328   0.079
99658SOL    HW1  871  11.194  14.336   0.168
99658SOL    HW2  872  11.313  14.287   0.089
99659SOL     OW  873   9.023   7.149   7.667
99659SOL    HW1  874   9.004   7.159   7.574
99659SOL    HW2  875   8.938   7.150   7.710
99660SOL     OW  876   5.397  13.278   6.442
99660SOL    HW1  877   5.467  13.331   6.480
99660SOL    HW2  878   5.430  13.253   6.356
99661SOL     OW  879   9.329   4.530  11.778
99661SOL    HW1  880   9.328   4.491  11.691
99661SOL    HW2  881   9.363   4.462  11.835
99662SOL     OW  882  11.987   6.993   3.023
99662SOL    HW1  883  12.047   6.954   3.086
99662SOL    HW2  884  11.993   6.937   2.946
99663SOL     OW  885   7.443   2.573   6.179
99663SOL    HW1  886   7.499   2.648   6.199
99663SOL    HW2  887   7.502   2.498   6.178
99664SOL     OW  888   6.322   1.411  12.278
99664SOL    HW1  889   6.278   1.388  12.197
99664SOL    HW2  890   6.356   1.499  12.264
99665SOL     OW  891  12.659   0.626   7.166
99665SOL    HW1  892  12.636   0.641   7.075
99665SOL    HW2  893  12.626   0.703   7.213
99666SOL     OW  894  10.128  14.641   3.160
99666SOL    HW1  895  10.191  14.613   3.093
99666SOL    HW2  896  10.101  14.728   3.132
99667SOL     OW  897   2.892   9.198  12.724
99667SOL    HW1  898   2.932   9.280  12.696
99667SOL    HW2  899   2.966   9.141  12.745
99668SOL     OW  900  13.953   1.248   9.949
99668SOL    HW1  901  13.911   1.302  10.016
99668SOL    HW2  902  13.966   1.163   9.991
99669SOL     OW  903  10.331   3.749  11.224
99669SOL    HW1  904  10.347   3.727  11.132
99669SOL    HW2  905  10.407   3.802  11.249
99670SOL     OW  906  13.679   5.128   8.155
99670SOL    HW1  907  13.589   5.102   8.132
99670SOL    HW2  908  13.673   5.152   8.248
99671SOL     OW  909   5.576   5.271   5.647
99671SOL    HW1  910   5.596   5.354   5.605
99671SOL    HW2  911   5.624   5.206   5.596
99672SOL     OW  912   0.126   4.283   3.844
99672SOL    HW1  913   0.128   4.285   3.749
99672SOL    HW2  914   0.211   4.247   3.869
99673SOL     OW  915  12.259   2.579   8.229
99673SOL    HW1  916  12.186   2.587   8.290
99673SOL    HW2  917  12.300   2.495   8.252
99674SOL     OW  918   1.656   5.065  12.005
99674SOL    HW1  919   1.710   5.012  12.063
99674SOL    HW2  920   1.606   5.122  12.064
99675SOL     OW  921   3.556   4.589  12.800
99675SOL    HW1  922   3.483   4.628  12.848
99675SOL    HW2  923   3.571   4.648  12.727
99676SOL     OW  924   3.522   6.914   1.118
99676SOL    HW1  925   3.540   6.942   1.028
99676SOL    HW2  926   3.567   6.978   1.173
99677SOL     OW  927   7.904   8.679   9.287
99677SOL    HW1  928   7.931   8.632   9.365
99677SOL    HW2  929   7.853   8.614   9.237
99678SOL     OW  930   6.344   3.878   6.785
99678SOL    HW1  931   6.283   3.936   6.830
99678SOL    HW2  932   6.410   3.937   6.749
99679SOL     OW  933   4.656   1.133  14.618
99679SOL    HW1  934   4.633   1.040  14.624
99679SOL    HW2  935   4.577   1.179  14.645
99680SOL     OW  936   3.258  13.797   5.454
99680SOL    HW1  937   3.273  13.872   5.511
99680SOL    HW2  938   3.341  13.783   5.410
99681SOL     OW  939   3.762  10.199   2.730
99681SOL    HW1  940   3.699  10.155   2.787
99681SOL    HW2  941   3.707  10.257   2.675
99682SOL     OW  942   4.123   2.906  13.633
99682SOL    HW1  943   4.174   2.987  13.637
99682SOL    HW2  944   4.081   2.909  13.547
99683SOL     OW  945  12.967   2.638   2.289
99683SOL    HW1  946  12.968   2.687   2.371
99683SOL    HW2  947  12.892   2.579   2.297
99684SOL     OW  948   9.191   1.814   9.073
99684SOL    HW1  949   9.099   1.808   9.048
99684SOL    HW2  950   9.193   1.787   9.165
99685SOL     OW  951   6.268   4.315   5.217
99685SOL    HW1  952   6.293   4.344   5.129
99685SOL    HW2  953   6.230   4.229   5.204
99686SOL     OW  954   2.546   9.672   5.505
99686SOL    HW1  955   2.462   9.679   5.460
99686SOL    HW2  956   2.544   9.741   5.571
99687SOL     OW  957   9.577   1.311   7.223
99687SOL    HW1  958   9.542   1.338   7.139
99687SOL    HW2  959   9.525   1.358   7.288
99688SOL     OW  960   4.426   6.958   4.436
99688SOL    HW1  961   4.359   6.935   4.372
99688SOL    HW2  962   4.478   6.878   4.446
99689SOL     OW  963   4.490  12.321   7.593
99689SOL    HW1  964   4.418  12.315   7.655
99689SOL    HW2  965   4.569  12.310   7.647
99690SOL     OW  966   4.256   8.349  12.218
99690SOL    HW1  967   4.259   8.333  12.124
99690SOL    HW2  968   4.174   8.309  12.246
99691SOL     OW  969  13.182   1.697   3.697
99691SOL    HW1  970  13.278   1.694   3.699
99691SOL    HW2  971  13.159   1.752   3.771
99692SOL     OW  972   2.659   3.664  10.109
99692SOL    HW1  973   2.648   3.577  10.148
99692SOL    HW2  974   2.577   3.710  10.129
99693SOL     OW  975  14.718  13.603   8.134
99693SOL    HW1  976  14.717  13.507   8.144
99693SOL    HW2  977  14.807  13.623   8.106
99694SOL     OW  978   5.264   9.824   7.439
99694SOL    HW1  979   5.210   9.902   7.424
99694SOL    HW2  980   5.334   9.830   7.373
99695SOL     OW  981  12.306  11.623   7.385
99695SOL    HW1  982  12.269  11.607   7.299
99695SOL    HW2  983  12.239  11.591   7.446
99696SOL     OW  984  11.472   4.207   5.986
99696SOL    HW1  985  11.378   4.206   6.001
99696SOL    HW2  986  11.504   4.128   6.029
99697SOL     OW  987   7.213  12.157  10.259
99697SOL    HW1  988   7.211  12.084  10.322
99697SOL    HW2  989   7.122  12.167  10.231
99698SOL     OW  990  12.202   4.537  12.432
99698SOL    HW1  991  12.208   4.562  12.340
99698SOL    HW2  992  12.250   4.605  12.480
99699SOL     OW  993  11.122  12.992  11.358
99699SOL    HW1  994  11.038  13.015  11.318
99699SOL    HW2  995  11.100  12.923  11.421
99700SOL     OW  996   9.529  13.587   9.868
99700SOL    HW1  997   9.448  13.620   9.905
99700SOL    HW2  998   9.549  13.508   9.919
99701SOL     OW  999  10.456  10.263   0.976
99701SOL    HW1 1000  10.541  10.305   0.994
99701SOL    HW2 1001  10.479  10.172   0.957
99702SOL     OW 1002  14.252  11.309   9.676
99702SOL    HW1 1003  14.167  11.301   9.718
99702SOL    HW2 1004  14.311  11.340   9.744
99703SOL     OW 1005  14.677   2.926  10.064
99703SOL    HW1 1006  14.649   2.866   9.995
99703SOL    HW2 1007  14.648   3.012  10.035
99704SOL     OW 1008   9.852  13.289   4.372
99704SOL    HW1 1009   9.893  13.209   4.340
99704SOL    HW2 1010   9.793  13.316   4.302
99705SOL     OW 1011   9.099   2.768   6.856
99705SOL    HW1 1012   9.107   2.729   6.943
99705SOL    HW2 1013   9.009   2.801   6.852
99706SOL     OW 1014  14.759   9.298   0.834
99706SOL    HW1 1015  14.830   9.357   0.859
99706SOL    HW2 1016  14.792   9.249   0.759
99707SOL     OW 1017   8.732  11.406   7.168
99707SOL    HW1 1018   8.803  11.360   7.124
99707SOL    HW2 1019   8.731  11.370   7.256
99708SOL     OW 1020   1.682  13.455   2.936
99708SOL    HW1 1021   1.695  13.470   3.030
99708SOL    HW2 1022   1.588  13.441   2.926
99709SOL     OW 1023   1.865   8.717  13.862
99709SOL    HW1 1024   1.888   8.672  13.781
99709SOL    HW2 1025   1.778   8.752  13.846
99710SOL     OW 1026   6.706   5.918   7.692
99710SOL    HW1 1027   6.728   5.880   7.607
99710SOL    HW2 1028   6.631   5.867   7.723
99711SOL     OW 1029   6.001  14.344  10.943
99711SOL    HW1 1030   5.972  14.427  10.905
99711SOL    HW2 1031   6.012  14.286  10.868
99712SOL     OW 1032  13.730  14.865   6.447
99712SOL    HW1 1033  13.788   0.033   6.507
99712SOL    HW2 1034  13.732   0.036   6.366
99713SOL     OW 1035  14.812   9.759   9.218
99713SOL    HW1 1036  14.748   9.828   9.234
99713SOL    HW2 1037  14.768   9.679   9.245
99714SOL     OW 1038   3.250   6.079   2.139
99714SOL    HW1 1039   3.250   6.016   2.212
99714SOL    HW2 1040   3.330   6.058   2.090
99715SOL     OW 1041   4.883   9.398   6.853
99715SOL    HW1 1042   4.887   9.464   6.923
99715SOL    HW2 1043   4.855   9.318   6.898
99716SOL     OW 1044   1.121  11.722   6.324
99716SOL    HW1 1045   1.094  11.711   6.416
99716SOL    HW2 1046   1.204  11.675   6.318
99717SOL     OW 1047   7.870   5.481  13.644
99717SOL    HW1 1048   7.778   5.465  13.662
99717SOL    HW2 1049   7.884   5.445  13.556
99718SOL     OW 1050   0.095  10.740   1.294
99718SOL    HW1 1051   0.072  10.653   1.326
99718SOL    HW2 1052   0.069  10.739   1.202
99719SOL     OW 1053   1.433   7.409   1.698
99719SOL    HW1 1054   1.471   7.404   1.786
99719SOL    HW2 1055   1.421   7.503   1.683
99720SOL     OW 1056   4.222   2.235  12.115
99720SOL    HW1 1057   4.138   2.275  12.140
99720SOL    HW2 1058   4.287   2.302  12.136
99721SOL     OW 1059  12.363  10.741  14.165
99721SOL    HW1 1060  12.378  10.714  14.256
99721SOL    HW2 1061  12.383  10.663  14.113
99722SOL     OW 1062   7.457   0.933   9.678
99722SOL    HW1 1063   7.541   0.922   9.633
99722SOL    HW2 1064   7.416   1.008   9.634
99723SOL     OW 1065   6.330   5.291  12.752
99723SOL    HW1 1066   6.251   5.268  12.801
99723SOL    HW2 1067   6.301   5.361  12.693
99724SOL     OW 1068  14.523   0.994  13.941
99724SOL    HW1 1069  14.523   0.972  14.034
99724SOL    HW2 1070  14.600   1.050  13.930
99725SOL     OW 1071   7.562   1.940  11.316
99725SOL    HW1 1072   7.478   1.953  11.361
99725SOL    HW2 1073   7.625   1.928  11.387
99726SOL     OW 1074   3.883  12.052   4.948
99726SOL    HW1 1075   3.873  12.142   4.916
99726SOL    HW2 1076   3.978  12.039   4.953
99727SOL     OW 1077   7.545  13.241   9.100
99727SOL    HW1 1078   7.563  13.154   9.063
99727SOL    HW2 1079   7.618  13.295   9.072
99728SOL     OW 1080   3.948  13.197   0.883
99728SOL    HW1 1081   3.916  13.109   0.860
99728SOL    HW2 1082   3.970  13.237   0.799
99729SOL     OW 1083   6.758   1.815  12.709
99729SOL    HW1 1084   6.757   1.871  12.787
99729SOL    HW2 1085   6.850   1.813  12.683
99730SOL     OW 1086   4.442   8.028   7.910
99730SOL    HW1 1087   4.409   7.952   7.958
99730SOL    HW2 1088   4.367   8.087   7.902
99731SOL     OW 1089   5.029   5.671   1.531
99731SOL    HW1 1090   5.057   5.731   1.600
99731SOL    HW2 1091   5.094   5.601   1.532
99732SOL     OW 1092   2.482   8.236   2.533
99732SOL    HW1 1093   2.570   8.255   2.565
99732SOL    HW2 1094   2.456   8.315   2.485
99733SOL     OW 1095  12.980   7.409   4.763
99733SOL    HW1 1096  12.941   7.342   4.707
99733SOL    HW2 1097  13.046   7.363   4.815
99734SOL     OW 1098   0.727   0.403  10.859
99734SOL    HW1 1099   0.802   0.381  10.804
99734SOL    HW2 1100   0.766   0.437  10.940
99735SOL     OW 1101   0.899   3.172   0.608
99735SOL    HW1 1102   0.904   3.096   0.550
99735SOL    HW2 1103   0.833   3.149   0.673
99736SOL     OW 1104   6.468  12.796   3.418
99736SOL    HW1 1105   6.498  12.850   3.345
99736SOL    HW2 1106   6.548  12.764   3.459
99737SOL     OW 1107  12.116  13.185   2.372
99737SOL    HW1 1108  12.133  13.277   2.354
99737SOL    HW2 1109  12.052  13.159   2.306
99738SOL     OW 1110   6.056  10.115   7.419
99738SOL    HW1 1111   6.058  10.020   7.431
99738SOL    HW2 1112   6.118  10.149   7.483
99739SOL     OW 1113   4.925  13.648   0.768
99739SOL    HW1 1114   4.987  13.575   0.779
99739SOL    HW2 1115   4.880  13.628   0.686
99740SOL     OW 1116   9.712   0.448   2.136
99740SOL    HW1 1117   9.726   0.458   2.042
99740SOL    HW2 1118   9.708   0.353   2.149
99741SOL     OW 1119   9.815   8.693   3.408
99741SOL    HW1 1120   9.843   8.770   3.456
99741SOL    HW2 1121   9.722   8.683   3.429
99742SOL     OW 1122   0.361   0.781   1.927
99742SOL    HW1 1123   0.331   0.713   1.867
99742SOL    HW2 1124   0.296   0.782   1.996
99743SOL     OW 1125   9.413   1.556   2.226
99743SOL    HW1 1126   9.340   1.588   2.174
99743SOL    HW2 1127   9.404   1.461   2.226
99744SOL     OW 1128   7.355   5.556   6.402
99744SOL    HW1 1129   7.274   5.568   6.452
99744SOL    HW2 1130   7.395   5.643   6.400
99745SOL     OW 1131   5.933   0.560   3.776
99745SOL    HW1 1132   5.920   0.467   3.789
99745SOL    HW2 1133   6.028   0.570   3.767
99746SOL     OW 1134   0.078   0.944   9.288
99746SOL    HW1 1135   0.139   0.974   9.356
99746SOL    HW2 1136   0.126   0.875   9.242
99747SOL     OW 1137   1.318   6.568  10.044
99747SOL    HW1 1138   1.375   6.618   9.986
99747SOL    HW2 1139   1.244   6.543   9.989
99748SOL     OW 1140   5.858  12.538  10.395
99748SOL    HW1 1141   5.916  12.468  10.424
99748SOL    HW2 1142   5.801  12.555  10.470
99749SOL     OW 1143   8.390  13.611   5.786
99749SOL    HW1 1144   8.428  13.546   5.727
99749SOL    HW2 1145   8.442  13.690   5.772
99750SOL     OW 1146  14.187   3.785   9.400
99750SOL    HW1 1147  14.199   3.703   9.351
99750SOL    HW2 1148  14.128   3.761   9.472
99751SOL     OW 1149   0.900  13.778   6.351
99751SOL    HW1 1150   0.912  13.867   6.382
99751SOL    HW2 1151   0.929  13.722   6.423
99752SOL     OW 1152  10.497   3.795   1.070
99752SOL    HW1 1153  10.526   3.885   1.058
99752SOL    HW2 1154  10.411   3.802   1.111
99753SOL     OW 1155  10.571   9.306   5.179
99753SOL    HW1 1156  10.486   9.320   5.138
99753SOL    HW2 1157  10.624   9.267   5.110
99754SOL     OW 1158  12.356   8.052   4.610
99754SOL    HW1 1159  12.302   7.983   4.649
99754SOL    HW2 1160  12.403   8.008   4.539
99755SOL     OW 1161   0.705   5.452  11.332
99755SOL    HW1 1162   0.609   5.445  11.327
99755SOL    HW2 1163   0.734   5.452  11.241
99756SOL     OW 1164  11.254  10.722   8.336
99756SOL    HW1 1165  11.267  10.753   8.246
99756SOL    HW2 1166  11.163  10.694   8.340
99757SOL     OW 1167   1.320   2.314   4.528
99757SOL    HW1 1168   1.369   2.250   4.579
99757SOL    HW2 1169   1.228   2.294   4.545
99758SOL     OW 1170   9.267   0.972  10.855
99758SOL    HW1 1171   9.265   0.928  10.940
99758SOL    HW2 1172   9.239   0.904  10.793
99759SOL     OW 1173   6.155  11.411   5.201
99759SOL    HW1 1174   6.108  11.382   5.279
99759SOL    HW2 1175   6.134  11.346   5.134
99760SOL     OW 1176   6.894   1.037   5.794
99760SOL    HW1 1177   6.980   1.070   5.769
99760SOL    HW2 1178   6.872   0.973   5.727
99761SOL     OW 1179   2.170   5.633   6.854
99761SOL    HW1 1180   2.130   5.664   6.936
99761SOL    HW2 1181   2.100   5.584   6.811
99762SOL     OW 1182  12.290  11.818   0.515
99762SOL    HW1 1183  12.382  11.826   0.492
99762SOL    HW2 1184  12.278  11.880   0.587
99763SOL     OW 1185  12.628   6.626   6.847
99763SOL    HW1 1186  12.561   6.558   6.851
99763SOL    HW2 1187  12.585   6.700   6.804
99764SOL     OW 1188   8.299  14.620  11.118
99764SOL    HW1 1189   8.327  14.689  11.179
99764SOL    HW2 1190   8.204  14.617  11.129
99765SOL     OW 1191   0.806  10.450   9.359
99765SOL    HW1 1192   0.829  10.526   9.412
99765SOL    HW2 1193   0.828  10.476   9.269
99766SOL     OW 1194  10.429   1.426   1.811
99766SOL    HW1 1195  10.366   1.490   1.778
99766SOL    HW2 1196  10.491   1.477   1.862
99767SOL     OW 1197   2.996  12.353   0.180
99767SOL    HW1 1198   3.054  12.427   0.160
99767SOL    HW2 1199   3.055  12.278   0.181
99768SOL     OW 1200  13.291   6.496  11.688
99768SOL    HW1 1201  13.227   6.425  11.678
99768SOL    HW2 1202  13.374   6.457  11.661
99769SOL     OW 1203  14.371   6.645   0.902
99769SOL    HW1 1204  14.370   6.662   0.808
99769SOL    HW2 1205  14.420   6.563   0.910
99770SOL     OW 1206  13.927   3.240  13.240
99770SOL    HW1 1207  13.853   3.267  13.296
99770SOL    HW2 1208  13.930   3.145  13.250
99771SOL     OW 1209  10.319   8.496  13.765
99771SOL    HW1 1210  10.240   8.496  13.820
99771SOL    HW2 1211  10.351   8.586  13.769
99772SOL     OW 1212  12.905  12.553  12.997
99772SOL    HW1 1213  12.896  12.545  12.902
99772SOL    HW2 1214  12.997  12.577  13.010
99773SOL     OW 1215   4.382  13.541   8.421
99773SOL    HW1 1216   4.338  13.475   8.475
99773SOL    HW2 1217   4.421  13.601   8.484
99774SOL     OW 1218   0.062   1.269   8.180
99774SOL    HW1 1219   0.094   1.288   8.268
99774SOL    HW2 1220   0.135   1.292   8.123
99775SOL     OW 1221   2.982   8.335   2.661
99775SOL    HW1 1222   3.014   8.287   2.585
99775SOL    HW2 1223   3.050   8.401   2.677
99776SOL     OW 1224   3.593   2.414  11.991
99776SOL    HW1 1225   3.659   2.363  12.037
99776SOL    HW2 1226   3.560   2.476  12.057
99777SOL     OW 1227   2.632  14.281   7.417
99777SOL    HW1 1228   2.655  14.370   7.443
99777SOL    HW2 1229   2.655  14.227   7.493
99778SOL     OW 1230   9.286  13.037  10.213
99778SOL    HW1 1231   9.198  13.027  10.249
99778SOL    HW2 1232   9.272  13.082  10.129
99779SOL     OW 1233   7.180  12.146   1.104
99779SOL    HW1 1234   7.139  12.158   1.190
99779SOL    HW2 1235   7.220  12.230   1.085
99780SOL     OW 1236   0.639  12.925   3.632
99780SOL    HW1 1237   0.699  12.994   3.603
99780SOL    HW2 1238   0.591  12.900   3.554
99781SOL     OW 1239  13.279   5.301  13.285
99781SOL    HW1 1240  13.335   5.375  13.311
99781SOL    HW2 1241  13.300   5.287  13.193
99782SOL     OW 1242   0.900   0.390  12.024
99782SOL    HW1 1243   0.947   0.473  12.029
99782SOL    HW2 1244   0.891   0.373  11.930
99783SOL     OW 1245  13.550   8.356   3.447
99783SOL    HW1 1246  13.595   8.322   3.370
99783SOL    HW2 1247  13.469   8.393   3.412
99784SOL     OW 1248  11.615   2.261  13.788
99784SOL    HW1 1249  11.670   2.247  13.711
99784SOL    HW2 1250  11.612   2.356  13.798
99785SOL     OW 1251   5.643   3.065  12.950
99785SOL    HW1 1252   5.692   3.074  12.868
99785SOL    HW2 1253   5.638   3.154  12.985
99786SOL     OW 1254   8.453   7.768  10.805
99786SOL    HW1 1255   8.479   7.677  10.791
99786SOL    HW2 1256   8.408   7.768  10.889
99787SOL     OW 1257   1.033   1.337  11.067
99787SOL    HW1 1258   0.945   1.365  11.043
99787SOL    HW2 1259   1.073   1.309  10.985
99788SOL     OW 1260   8.041  13.565   2.093
99788SOL    HW1 1261   8.020  13.657   2.112
99788SOL    HW2 1262   8.130  13.554   2.126
99789SOL     OW 1263   8.023   9.138   3.726
99789SOL    HW1 1264   7.970   9.059   3.719
99789SOL    HW2 1265   7.965   9.209   3.697
99790SOL     OW 1266   2.343   4.282   5.882
99790SOL    HW1 1267   2.279   4.213   5.862
99790SOL    HW2 1268   2.291   4.352   5.921
99791SOL     OW 1269   6.428   5.663  12.704
99791SOL    HW1 1270   6.506   5.719  12.702
99791SOL    HW2 1271   6.436   5.613  12.785
99792SOL     OW 1272  10.402   5.397   3.406
99792SOL    HW1 1273  10.342   5.334   3.447
99792SOL    HW2 1274  10.347   5.473   3.386
99793SOL     OW 1275   5.437  13.768   0.295
99793SOL    HW1 1276   5.353  13.801   0.263
99793SOL    HW2 1277   5.496  13.843   0.290
99794SOL     OW 1278   2.191   9.322   4.151
99794SOL    HW1 1279   2.195   9.417   4.136
99794SOL    HW2 1280   2.270   9.303   4.203
99795SOL     OW 1281   1.810  13.273   9.886
99795SOL    HW1 1282   1.801  13.224   9.968
99795SOL    HW2 1283   1.890  13.323   9.898
99796SOL     OW 1284  11.361   0.906   8.257
99796SOL    HW1 1285  11.288   0.938   8.205
99796SOL    HW2 1286  11.353   0.810   8.255
99797SOL     OW 1287  12.931  14.115   7.614
99797SOL    HW1 1288  12.847  14.091   7.573
99797SOL    HW2 1289  12.996  14.062   7.569
99798SOL     OW 1290   3.175   8.676  13.704
99798SOL    HW1 1291   3.268   8.654  13.699
99798SOL    HW2 1292   3.162   8.742  13.636
99799SOL     OW 1293  14.211  13.247   2.638
99799SOL    HW1 1294  14.212  13.302   2.716
99799SOL    HW2 1295  14.118  13.231   2.621
99800SOL     OW 1296   1.772   0.610   0.077
99800SOL    HW1 1297   1.685   0.573   0.065
99800SOL    HW2 1298   1.757   0.694   0.120
99801SOL     OW 1299   8.475  14.595  11.792
99801SOL    HW1 1300   8.492  14.504  11.766
99801SOL    HW2 1301   8.418  14.587  11.869
99802SOL     OW 1302  13.376   0.353   0.584
99802SOL    HW1 1303  13.314   0.418   0.551
99802SOL    HW2 1304  13.351   0.272   0.540
99803SOL     OW 1305   6.643   9.880  14.013
99803SOL    HW1 1306   6.641   9.920  14.100
99803SOL    HW2 1307   6.571   9.817  14.014
99804SOL     OW 1308   1.128  11.264   5.390
99804SOL    HW1 1309   1.081  11.181   5.401
99804SOL    HW2 1310   1.205  11.242   5.338
99805SOL     OW 1311   0.220  10.164   6.383
99805SOL    HW1 1312   0.222  10.228   6.311
99805SOL    HW2 1313   0.292  10.190   6.440
99806SOL     OW 1314   0.406   8.848   4.387
99806SOL    HW1 1315   0.419   8.779   4.452
99806SOL    HW2 1316   0.485   8.902   4.394
99807SOL     OW 1317   3.630  10.270  12.078
99807SOL    HW1 1318   3.679  10.349  12.100
99807SOL    HW2 1319   3.592  10.242  12.162
99808SOL     OW 1320   6.520   7.321   2.099
99808SOL    HW1 1321   6.511   7.335   2.005
99808SOL    HW2 1322   6.449   7.373   2.138
99809SOL     OW 1323   0.007   4.707   6.042
99809SOL    HW1 1324  14.830   4.680   6.114
99809SOL    HW2 1325  14.836   4.688   5.963
99810SOL     OW 1326   7.388   2.011   2.664
99810SOL    HW1 1327   7.478   1.994   2.636
99810SOL    HW2 1328   7.352   2.069   2.597
99811SOL     OW 1329   0.409   4.303   8.394
99811SOL    HW1 1330   0.435   4.318   8.485
99811SOL    HW2 1331   0.341   4.368   8.377
99812SOL     OW 1332   8.733   8.998   2.079
99812SOL    HW1 1333   8.645   8.979   2.112
99812SOL    HW2 1334   8.791   8.949   2.137
99813SOL     OW 1335   3.939   6.078   9.190
99813SOL    HW1 1336   3.988   5.999   9.210
99813SOL    HW2 1337   3.897   6.103   9.273
99814SOL     OW 1338  10.882  10.269   1.756
99814SOL    HW1 1339  10.917  10.221   1.681
99814SOL    HW2 1340  10.817  10.210   1.794
99815SOL     OW 1341  13.954  13.819   0.679
99815SOL    HW1 1342  14.002  13.744   0.716
99815SOL    HW2 1343  13.872  13.782   0.647
99816SOL     OW 1344   4.498   5.897  11.052
99816SOL    HW1 1345   4.405   5.876  11.048
99816SOL    HW2 1346   4.540   5.826  11.003
99817SOL     OW 1347  12.081  12.814   4.704
99817SOL    HW1 1348  12.088  12.905   4.675
99817SOL    HW2 1349  12.030  12.771   4.635
99818SOL     OW 1350   6.469  11.174  14.762
99818SOL    HW1 1351   6.557  11.197  14.793
99818SOL    HW2 1352   6.412  11.189  14.837
99819SOL     OW 1353  13.400   8.941   9.946
99819SOL    HW1 1354  13.455   8.981   9.878
99819SOL    HW2 1355  13.409   8.847   9.931
99820SOL     OW 1356   2.846  11.416  11.119
99820SOL    HW1 1357   2.870  11.416  11.211
99820SOL    HW2 1358   2.770  11.357  11.114
99821SOL     OW 1359   6.783   7.002   7.233
99821SOL    HW1 1360   6.874   7.030   7.233
99821SOL    HW2 1361   6.741   7.055   7.301
99822SOL     OW 1362   8.458   4.393   5.327
99822SOL    HW1 1363   8.491   4.479   5.302
99822SOL    HW2 1364   8.365   4.406   5.344
99823SOL     OW 1365   0.143   1.359   5.871
99823SOL    HW1 1366   0.048   1.369   5.875
99823SOL    HW2 1367   0.159   1.323   5.784
99824SOL     OW 1368   2.954   9.059   4.253
99824SOL    HW1 1369   2.976   8.969   4.229
99824SOL    HW2 1370   3.035   9.108   4.237
99825SOL     OW 1371   6.578   1.200  11.054
99825SOL    HW1 1372   6.485   1.224  11.059
99825SOL    HW2 1373   6.586   1.123  11.110
99826SOL     OW 1374   7.793  13.096   9.342
99826SOL    HW1 1375   7.751  13.173   9.379
99826SOL    HW2 1376   7.804  13.037   9.417
99827SOL     OW 1377  12.600   0.029  10.710
99827SOL    HW1 1378  12.614   0.105  10.767
99827SOL    HW2 1379  12.663  14.844  10.743
99828SOL     OW 1380   1.067   8.787   0.464
99828SOL    HW1 1381   1.104   8.824   0.544
99828SOL    HW2 1382   0.995   8.732   0.494
99829SOL     OW 1383   3.893  13.500  13.673
99829SOL    HW1 1384   3.815  13.456  13.706
99829SOL    HW2 1385   3.929  13.441  13.607
99830SOL     OW 1386   4.338   5.170   0.504
99830SOL    HW1 1387   4.308   5.258   0.528
99830SOL    HW2 1388   4.320   5.117   0.582
99831SOL     OW 1389   8.454   1.268  11.082
99831SOL    HW1 1390   8.374   1.309  11.049
99831SOL    HW2 1391   8.511   1.341  11.104
99832SOL     OW 1392  10.990  10.856   8.125
99832SOL    HW1 1393  11.028  10.934   8.166
99832SOL    HW2 1394  10.941  10.814   8.196
99833SOL     OW 1395  11.640   8.983   7.304
99833SOL    HW1 1396  11.692   8.930   7.244
99833SOL    HW2 1397  11.592   8.919   7.356
99834SOL     OW 1398   7.882   7.865   8.291
99834SOL    HW1 1399   7.845   7.832   8.373
99834SOL    HW2 1400   7.976   7.863   8.304
99835SOL     OW 1401   6.898   1.806  14.252
99835SOL    HW1 1402   6.979   1.757  14.242
99835SOL    HW2 1403   6.907   1.850  14.337
99836SOL     OW 1404   2.605  11.654   0.458
99836SOL    HW1 1405   2.588  11.602   0.537
99836SOL    HW2 1406   2.560  11.606   0.388
99837SOL     OW 1407   2.952   4.826   9.965
99837SOL    HW1 1408   2.958   4.899  10.026
99837SOL    HW2 1409   2.861   4.797   9.971
99838SOL     OW 1410  10.450   2.030   2.012
99838SOL    HW1 1411  10.382   2.090   1.981
99838SOL    HW2 1412  10.531   2.063   1.972
99839SOL     OW 1413   2.731   3.560   6.756
99839SOL    HW1 1414   2.816   3.600   6.772
99839SOL    HW2 1415   2.703   3.530   6.843
99840SOL     OW 1416   1.034   3.331   2.424
99840SOL    HW1 1417   1.008   3.243   2.452
99840SOL    HW2 1418   1.023   3.331   2.329
99841SOL     OW 1419   3.991   9.940   2.264
99841SOL    HW1 1420   3.981   9.972   2.174
99841SOL    HW2 1421   4.009   9.846   2.254
99842SOL     OW 1422   8.669   4.305  14.326
99842SOL    HW1 1423   8.608   4.297  14.400
99842SOL    HW2 1424   8.643   4.237  14.265
99843SOL     OW 1425   2.926  13.708   6.686
99843SOL    HW1 1426   2.905  13.656   6.609
99843SOL    HW2 1427   2.843  13.713   6.734
99844SOL     OW 1428   7.391   8.684  10.487
99844SOL    HW1 1429   7.368   8.713  10.576
99844SOL    HW2 1430   7.470   8.732  10.465
99845SOL     OW 1431  10.229   7.804   8.158
99845SOL    HW1 1432  10.165   7.787   8.228
99845SOL    HW2 1433  10.310   7.826   8.204
99846SOL     OW 1434   9.593   9.356  14.854
99846SOL    HW1 1435   9.679   9.358  14.811
99846SOL    HW2 1436   9.563   9.447  14.849
99847SOL     OW 1437   6.235   3.856   0.365
99847SOL    HW1 1438   6.291   3.850   0.441
99847SOL    HW2 1439   6.293   3.883   0.294
99848SOL     OW 1440  14.109  13.272  10.463
99848SOL    HW1 1441  14.197  13.234  10.469
99848SOL    HW2 1442  14.052  13.206  10.504
99849SOL     OW 1443   0.993   9.420   4.572
99849SOL    HW1 1444   0.997   9.430   4.667
99849SOL    HW2 1445   1.025   9.331   4.556
99850SOL     OW 1446   1.613   8.107   6.260
99850SOL    HW1 1447   1.629   8.172   6.191
99850SOL    HW2 1448   1.697   8.063   6.273
99851SOL     OW 1449  12.056  14.385   7.064
99851SOL    HW1 1450  12.055  14.447   6.992
99851SOL    HW2 1451  12.071  14.439   7.142
99852SOL     OW 1452   9.711   0.208   5.245
99852SOL    HW1 1453   9.738   0.215   5.154
99852SOL    HW2 1454   9.731   0.118   5.270
99853SOL     OW 1455  13.364   2.237   3.579
99853SOL    HW1 1456  13.272   2.218   3.600
99853SOL    HW2 1457  13.381   2.187   3.500
99854SOL     OW 1458   0.225   8.571   9.179
99854SOL    HW1 1459   0.220   8.651   9.231
99854SOL    HW2 1460   0.171   8.589   9.102
99855SOL     OW 1461  13.068  14.668   8.421
99855SOL    HW1 1462  13.145  14.723   8.437
99855SOL    HW2 1463  13.013  14.682   8.498
99856SOL     OW 1464   3.232  10.251   9.139
99856SOL    HW1 1465   3.138  10.263   9.129
99856SOL    HW2 1466   3.242  10.213   9.226
99857SOL     OW 1467  10.316  14.006   1.992
99857SOL    HW1 1468  10.359  14.072   2.045
99857SOL    HW2 1469  10.323  14.039   1.902
99858SOL     OW 1470   4.179  13.103  11.879
99858SOL    HW1 1471   4.194  13.117  11.972
99858SOL    HW2 1472   4.178  13.008  11.868
99859SOL     OW 1473   3.671   0.291   7.161
99859SOL    HW1 1474   3.607   0.315   7.228
99859SOL    HW2 1475   3.639   0.335   7.082
99860SOL     OW 1476   8.760   5.382   3.510
99860SOL    HW1 1477   8.684   5.326   3.492
99860SOL    HW2 1478   8.723   5.459   3.554
99861SOL     OW 1479   2.742  10.930   4.661
99861SOL    HW1 1480   2.820  10.949   4.712
99861SOL    HW2 1481   2.775  10.907   4.574
99862SOL     OW 1482  10.800   2.866   5.004
99862SOL    HW1 1483  10.755   2.937   5.050
99862SOL    HW2 1484  10.730   2.808   4.975
99863SOL     OW 1485   5.023   6.781  11.340
99863SOL    HW1 1486   5.069   6.837  11.277
99863SOL    HW2 1487   5.055   6.693  11.322
99864SOL     OW 1488   4.063   2.915   4.904
99864SOL    HW1 1489   4.156   2.930   4.919
99864SOL    HW2 1490   4.034   2.989   4.851
99865SOL     OW 1491   2.939  11.665   9.455
99865SOL    HW1 1492   3.025  11.658   9.412
99865SOL    HW2 1493   2.917  11.574   9.477
99866SOL     OW 1494   7.675   2.715   6.221
99866SOL    HW1 1495   7.744   2.749   6.163
99866SOL    HW2 1496   7.712   2.724   6.309
99867SOL     OW 1497   9.796  10.167   1.935
99867SOL    HW1 1498   9.855  10.093   1.936
99867SOL    HW2 1499   9.833  10.227   1.869
99868SOL     OW 1500  12.933  12.062  11.971
99868SOL    HW1 1501  12.968  12.031  12.054
99868SOL    HW2 1502  12.997  12.125  11.939
99869SOL     OW 1503   2.446   2.115   7.220
99869SOL    HW1 1504   2.439   2.155   7.307
99869SOL    HW2 1505   2.400   2.176   7.162
99870SOL     OW 1506   8.672  10.531  11.057
99870SOL    HW1 1507   8.756  10.521  11.102
99870SOL    HW2 1508   8.665  10.453  11.002
99871SOL     OW 1509   4.592   0.360   4.525
99871SOL    HW1 1510   4.679   0.322   4.519
99871SOL    HW2 1511   4.601   0.448   4.488
99872SOL     OW 1512  13.340   0.105   4.214
99872SOL    HW1 1513  13.406   0.053   4.259
99872SOL    HW2 1514  13.387   0.182   4.182
99873SOL     OW 1515   1.985   9.903   7.049
99873SOL    HW1 1516   1.953   9.813   7.054
99873SOL    HW2 1517   2.061   9.904   7.107
99874SOL     OW 1518  10.156   0.599   3.993
99874SOL    HW1 1519  10.150   0.659   4.067
99874SOL    HW2 1520  10.193   0.518   4.030
99875SOL     OW 1521   7.483  14.638  12.413
99875SOL    HW1 1522   7.547  14.677  12.353
99875SOL    HW2 1523   7.522  14.555  12.439
99876SOL     OW 1524   4.870   6.791   8.706
99876SOL    HW1 1525   4.817   6.769   8.629
99876SOL    HW2 1526   4.862   6.714   8.763
99877SOL     OW 1527  10.088   5.060   9.203
99877SOL    HW1 1528   9.999   5.045   9.236
99877SOL    HW2 1529  10.085   5.149   9.168
99878SOL     OW 1530   9.832   3.732  11.986
99878SOL    HW1 1531   9.824   3.728  12.082
99878SOL    HW2 1532   9.749   3.768  11.957
99879SOL     OW 1533   4.389   4.045   8.618
99879SOL    HW1 1534   4.421   4.133   8.636
99879SOL    HW2 1535   4.467   3.989   8.620
99880SOL     OW 1536  10.917   0.523   3.219
99880SOL    HW1 1537  10.831   0.483   3.234
99880SOL    HW2 1538  10.975   0.448   3.203
99881SOL     OW 1539   5.904   1.958  13.909
99881SOL    HW1 1540   5.854   1.887  13.868
99881SOL    HW2 1541   5.844   2.033  13.908
99882SOL     OW 1542  12.837   3.528  10.654
99882SOL    HW1 1543  12.775   3.456  10.662
99882SOL    HW2 1544  12.922   3.486  10.643
99883SOL     OW 1545   0.873  12.239   4.457
99883SOL    HW1 1546   0.794  12.220   4.406
99883SOL    HW2 1547   0.945  12.204   4.405
99884SOL     OW 1548   8.452  10.725   1.691
99884SOL    HW1 1549   8.363  10.759   1.690
99884SOL    HW2 1550   8.442  10.631   1.699
99885SOL     OW 1551  14.024   7.760   0.633
99885SOL    HW1 1552  13.945   7.769   0.687
99885SOL    HW2 1553  14.097   7.774   0.694
99886SOL     OW 1554  13.184   4.415   6.300
99886SOL    HW1 1555  13.269   4.456   6.320
99886SOL    HW2 1556  13.160   4.450   6.215
99887SOL     OW 1557   6.470   6.086  11.846
99887SOL    HW1 1558   6.524   6.164  11.859
99887SOL    HW2 1559   6.452   6.085  11.752
99888SOL     OW 1560  12.791   4.804  13.229
99888SOL    HW1 1561  12.861   4.854  13.270
99888SOL    HW2 1562  12.826   4.715  13.223
99889SOL     OW 1563  12.542  14.252   7.821
99889SOL    HW1 1564  12.496  14.327   7.785
99889SOL    HW2 1565  12.482  14.178   7.809
99890SOL     OW 1566   1.532  10.890   0.172
99890SOL    HW1 1567   1.482  10.918   0.248
99890SOL    HW2 1568   1.468  10.843   0.118
99891SOL     OW 1569   1.969  12.155  10.366
99891SOL    HW1 1570   1.916  12.211  10.309
99891SOL    HW2 1571   1.977  12.204  10.447
99892SOL     OW 1572   2.074   7.235  10.916
99892SOL    HW1 1573   2.111   7.309  10.964
99892SOL    HW2 1574   2.024   7.275  10.845
99893SOL     OW 1575  14.149   7.262   3.061
99893SOL    HW1 1576  14.225   7.266   3.003
99893SOL    HW2 1577  14.116   7.352   3.063
99894SOL     OW 1578   3.510  11.168   3.038
99894SOL    HW1 1579   3.568  11.221   3.093
99894SOL    HW2 1580   3.514  11.081   3.077
99895SOL     OW 1581   5.567   9.560   8.132
99895SOL    HW1 1582   5.617   9.597   8.205
99895SOL    HW2 1583   5.518   9.488   8.171
99896SOL     OW 1584  13.379  14.629   5.595
99896SOL    HW1 1585  13.396  14.570   5.522
99896SOL    HW2 1586  13.458  14.683   5.602
99897SOL     OW 1587  10.768   7.477   7.222
99897SOL    HW1 1588  10.704   7.407   7.223
99897SOL    HW2 1589  10.853   7.432   7.214
99898SOL     OW 1590   8.907   9.173   5.978
99898SOL    HW1 1591   8.976   9.132   5.925
99898SOL    HW2 1592   8.940   9.169   6.068
99899SOL     OW 1593   8.978  11.439  13.625
99899SOL    HW1 1594   8.996  11.496  13.551
99899SOL    HW2 1595   8.926  11.367  13.589
99900SOL     OW 1596   8.760   5.010   4.140
99900SOL    HW1 1597   8.755   4.960   4.058
99900SOL    HW2 1598   8.781   4.944   4.206
99901SOL     OW 1599   4.711   9.764   7.045
99901SOL    HW1 1600   4.797   9.806   7.051
99901SOL    HW2 1601   4.726   9.673   7.068
99902SOL     OW 1602   4.541  14.265   3.491
99902SOL    HW1 1603   4.531  14.360   3.502
99902SOL    HW2 1604   4.577  14.235   3.574
99903SOL     OW 1605   8.687  14.007  13.436
99903SOL    HW1 1606   8.693  13.927  13.488
99903SOL    HW2 1607   8.709  13.979  13.347
99904SOL     OW 1608   1.938   8.815   2.426
99904SOL    HW1 1609   2.026   8.803   2.460
99904SOL    HW2 1610   1.950   8.826   2.331
99905SOL     OW 1611   9.903   7.636   0.567
99905SOL    HW1 1612   9.885   7.722   0.528
99905SOL    HW2 1613   9.945   7.657   0.651
99906SOL     OW 1614  13.337  12.145   7.472
99906SOL    HW1 1615  13.310  12.120   7.560
99906SOL    HW2 1616  13.261  12.192   7.437
99907SOL     OW 1617  10.533  13.060  13.835
99907SOL    HW1 1618  10.545  12.981  13.782
99907SOL    HW2 1619  10.513  13.129  13.772
99908SOL     OW 1620   2.634   7.291   6.111
99908SOL    HW1 1621   2.639   7.271   6.204
99908SOL    HW2 1622   2.549   7.256   6.084
99909SOL     OW 1623   9.208  11.905   6.212
99909SOL    HW1 1624   9.297  11.904   6.247
99909SOL    HW2 1625   9.199  11.821   6.168
99910SOL     OW 1626   5.946   5.280   1.790
99910SOL    HW1 1627   5.924   5.347   1.725
99910SOL    HW2 1628   6.021   5.316   1.837
99911SOL     OW 1629   1.118   7.921  12.551
99911SOL    HW1 1630   1.189   7.938  12.489
99911SOL    HW2 1631   1.132   7.831  12.580
99912SOL     OW 1632   5.564   8.418   9.506
99912SOL    HW1 1633   5.543   8.374   9.424
99912SOL    HW2 1634   5.488   8.472   9.525
99913SOL     OW 1635   7.659   4.590   7.607
99913SOL    HW1 1636   7.565   4.573   7.602
99913SOL    HW2 1637   7.671   4.641   7.688
99914SOL     OW 1638   4.099   1.930   4.235
99914SOL    HW1 1639   4.069   1.998   4.174
99914SOL    HW2 1640   4.045   1.854   4.214
99915SOL     OW 1641  13.001   5.509   6.894
99915SOL    HW1 1642  13.043   5.593   6.913
99915SOL    HW2 1643  13.074   5.448   6.880
99916SOL     OW 1644  13.911  12.177   0.378
99916SOL    HW1 1645  13.857  12.172   0.457
99916SOL    HW2 1646  13.933  12.086   0.358
99917SOL     OW 1647   6.389   1.773   9.429
99917SOL    HW1 1648   6.353   1.803   9.513
99917SOL    HW2 1649   6.431   1.689   9.450
99918SOL     OW 1650   7.125  10.586   5.139
99918SOL    HW1 1651   7.073  10.510   5.114
99918SOL    HW2 1652   7.061  10.651   5.169
99919SOL     OW 1653  10.178  11.310   6.875
99919SOL    HW1 1654  10.109  11.273   6.931
99919SOL    HW2 1655  10.199  11.394   6.915
99920SOL     OW 1656   6.076  14.836  13.772
99920SOL    HW1 1657   6.167  14.848  13.799
99920SOL    HW2 1658   6.024  14.873  13.843
99921SOL     OW 1659   4.127  10.581  10.484
99921SOL    HW1 1660   4.154  10.665  10.447
99921SOL    HW2 1661   4.195  10.561  10.549
99922SOL     OW 1662   4.070   3.573   9.152
99922SOL    HW1 1663   4.044   3.597   9.063
99922SOL    HW2 1664   4.041   3.482   9.162
99923SOL     OW 1665   0.316  10.319  10.551
99923SOL    HW1 1666   0.254  10.368  10.605
99923SOL    HW2 1667   0.381  10.383  10.524
99924SOL     OW 1668   9.103   5.118  14.014
99924SOL    HW1 1669   9.131   5.123  14.105
99924SOL    HW2 1670   9.026   5.176  14.009
99925SOL     OW 1671   0.306  14.085  14.264
99925SOL    HW1 1672   0.395  14.111  14.240
99925SOL    HW2 1673   0.258  14.083  14.182
99926SOL     OW 1674   9.520   8.153   0.414
99926SOL    HW1 1675   9.446   8.125   0.468
99926SOL    HW2 1676   9.493   8.238   0.379
99927SOL     OW 1677   5.006  12.194  14.452
99927SOL    HW1 1678   5.060  12.175  14.530
99927SOL    HW2 1679   4.916  12.189  14.484
99928SOL     OW 1680   6.106  12.546   3.206
99928SOL    HW1 1681   6.082  12.608   3.138
99928SOL    HW2 1682   6.040  12.558   3.274
99929SOL     OW 1683   0.213   9.744   6.288
99929SOL    HW1 1684   0.205   9.721   6.196
99929SOL    HW2 1685   0.131   9.789   6.309
99930SOL     OW 1686  11.610  11.236  14.186
99930SOL    HW1 1687  11.697  11.200  14.203
99930SOL    HW2 1688  11.623  11.297  14.113
99931SOL     OW 1689   2.067   7.773   0.584
99931SOL    HW1 1690   2.024   7.853   0.554
99931SOL    HW2 1691   2.012   7.743   0.657
99932SOL     OW 1692   2.041   8.474   6.158
99932SOL    HW1 1693   1.972   8.488   6.094
99932SOL    HW2 1694   2.008   8.404   6.214
99933SOL     OW 1695  14.258   3.479  10.676
99933SOL    HW1 1696  14.225   3.398  10.716
99933SOL    HW2 1697  14.208   3.549  10.718
99934SOL     OW 1698   0.894  12.089  14.214
99934SOL    HW1 1699   0.849  12.169  14.241
99934SOL    HW2 1700   0.920  12.105  14.123
99935SOL     OW 1701  12.111  14.196   3.193
99935SOL    HW1 1702  12.089  14.289   3.195
99935SOL    HW2 1703  12.159  14.181   3.274
99936SOL     OW 1704   6.030  12.698   5.109
99936SOL    HW1 1705   6.059  12.778   5.065
99936SOL    HW2 1706   6.111  12.647   5.121
99937SOL     OW 1707  11.535   1.523   4.837
99937SOL    HW1 1708  11.601   1.567   4.783
99937SOL    HW2 1709  11.558   1.431   4.833
99938SOL     OW 1710   9.328  13.478  12.780
99938SOL    HW1 1711   9.331  13.441  12.692
99938SOL    HW2 1712   9.417  13.466  12.814
99939SOL     OW 1713   3.130   2.394   9.115
99939SOL    HW1 1714   3.130   2.310   9.160
99939SOL    HW2 1715   3.038   2.410   9.096
99940SOL     OW 1716   0.764  14.353  13.187
99940SOL    HW1 1717   0.768  14.282  13.252
99940SOL    HW2 1718   0.769  14.433  13.239
99941SOL     OW 1719   8.855   1.957   6.657
99941SOL    HW1 1720   8.850   2.034   6.713
99941SOL    HW2 1721   8.886   1.887   6.714
99942SOL     OW 1722   5.530   5.050   2.559
99942SOL    HW1 1723   5.612   5.098   2.548
99942SOL    HW2 1724   5.497   5.078   2.644
99943SOL     OW 1725   0.345  11.499   2.564
99943SOL    HW1 1726   0.434  11.498   2.601
99943SOL    HW2 1727   0.293  11.547   2.629
99944SOL     OW 1728  12.731  12.477   6.174
99944SOL    HW1 1729  12.738  12.401   6.117
99944SOL    HW2 1730  12.821  12.496   6.199
99945SOL     OW 1731   1.802  12.305  10.193
99945SOL    HW1 1732   1.796  12.390  10.150
99945SOL    HW2 1733   1.714  12.267  10.185
99946SOL     OW 1734   2.708  10.248  12.058
99946SOL    HW1 1735   2.721  10.155  12.041
99946SOL    HW2 1736   2.761  10.293  11.993
99947SOL     OW 1737   4.786  12.450   8.178
99947SOL    HW1 1738   4.739  12.438   8.261
99947SOL    HW2 1739   4.844  12.525   8.193
99948SOL     OW 1740   5.060  13.474   7.522
99948SOL    HW1 1741   5.097  13.416   7.589
99948SOL    HW2 1742   4.966  13.473   7.538
99949SOL     OW 1743   2.491   0.309  11.352
99949SOL    HW1 1744   2.495   0.350  11.266
99949SOL    HW2 1745   2.472   0.382  11.412
99950SOL     OW 1746   8.436  10.468  12.036
99950SOL    HW1 1747   8.369  10.401  12.026
99950SOL    HW2 1748   8.470  10.482  11.947
99951SOL     OW 1749   6.577   1.069  11.452
99951SOL    HW1 1750   6.618   1.007  11.513
99951SOL    HW2 1751   6.641   1.139  11.442
99952SOL     OW 1752   9.536  11.895   3.244
99952SOL    HW1 1753   9.547  11.801   3.255
99952SOL    HW2 1754   9.557  11.932   3.330
99953SOL     OW 1755   7.368   1.296   0.284
99953SOL    HW1 1756   7.456   1.308   0.320
99953SOL    HW2 1757   7.321   1.376   0.307
99954SOL     OW 1758   8.350  12.365  14.419
99954SOL    HW1 1759   8.396  12.407  14.491
99954SOL    HW2 1760   8.257  12.385  14.436
99955SOL     OW 1761   3.939   3.171   7.802
99955SOL    HW1 1762   3.859   3.158   7.752
99955SOL    HW2 1763   3.921   3.246   7.858
99956SOL     OW 1764  12.471   4.309   2.393
99956SOL    HW1 1765  12.409   4.242   2.365
99956SOL    HW2 1766  12.421   4.366   2.452
99957SOL     OW 1767  11.999   2.024   4.086
99957SOL    HW1 1768  11.960   1.947   4.046
99957SOL    HW2 1769  11.947   2.097   4.052
99958SOL     OW 1770   4.836   7.891   6.958
99958SOL    HW1 1771   4.914   7.887   7.013
99958SOL    HW2 1772   4.800   7.802   6.961
99959SOL     OW 1773   5.462  12.463   2.352
99959SOL    HW1 1774   5.416  12.405   2.291
99959SOL    HW2 1775   5.552  12.465   2.320
99960SOL     OW 1776   3.821  13.397   4.435
99960SOL    HW1 1777   3.780  13.352   4.509
99960SOL    HW2 1778   3.848  13.482   4.471
99961SOL     OW 1779   5.551   8.144   4.635
99961SOL    HW1 1780   5.544   8.193   4.553
99961SOL    HW2 1781   5.468   8.160   4.680
99962SOL     OW 1782   7.825   6.748  13.740
99962SOL    HW1 1783   7.820   6.767  13.834
99962SOL    HW2 1784   7.871   6.664  13.735
99963SOL     OW 1785   8.646   4.836   2.920
99963SOL    HW1 1786   8.713   4.871   2.860
99963SOL    HW2 1787   8.577   4.903   2.919
99964SOL     OW 1788   0.710  14.815   8.270
99964SOL    HW1 1789   0.622  14.817   8.307
99964SOL    HW2 1790   0.714   0.014   8.215
99965SOL     OW 1791   8.271  14.813   9.997
99965SOL    HW1 1792   8.204  14.777  10.055
99965SOL    HW2 1793   8.351  14.767  10.022
99966SOL     OW 1794  11.902  12.901   4.081
99966SOL    HW1 1795  11.911  12.844   4.005
99966SOL    HW2 1796  11.861  12.981   4.047
99967SOL     OW 1797   6.656   2.411   8.719
99967SOL    HW1 1798   6.632   2.360   8.796
99967SOL    HW2 1799   6.669   2.346   8.650
99968SOL     OW 1800   7.694  10.308   0.634
99968SOL    HW1 1801   7.711  10.295   0.728
99968SOL    HW2 1802   7.689  10.219   0.598
99969SOL     OW 1803  11.318   6.215   0.489
99969SOL    HW1 1804  11.308   6.293   0.542
99969SOL    HW2 1805  11.406   6.221   0.453
99970SOL     OW 1806  10.191   3.921  14.388
99970SOL    HW1 1807  10.147   3.994  14.431
99970SOL    HW2 1808  10.245   3.882  14.457
99971SOL     OW 1809  12.319  14.866  10.818
99971SOL    HW1 1810  12.376  14.850  10.743
99971SOL    HW2 1811  12.374   0.033  10.881
99972SOL     OW 1812   2.670   1.936   0.124
99972SOL    HW1 1813   2.649   1.977   0.040
99972SOL    HW2 1814   2.623   1.989   0.189
99973SOL     OW 1815   3.726   8.945   0.302
99973SOL    HW1 1816   3.789   8.932   0.373
99973SOL    HW2 1817   3.779   8.936   0.222
99974SOL     OW 1818   0.720   7.012   5.198
99974SOL    HW1 1819   0.761   6.926   5.211
99974SOL    HW2 1820   0.745   7.062   5.276
99975SOL     OW 1821  10.019  11.263  13.312
99975SOL    HW1 1822  10.046  11.346  13.272
99975SOL    HW2 1823  10.016  11.282  13.406
99976SOL     OW 1824  13.194   4.553   1.562
99976SOL    HW1 1825  13.233   4.514   1.484
99976SOL    HW2 1826  13.108   4.513   1.568
99977SOL     OW 1827  14.852   5.136  14.622
99977SOL    HW1 1828  14.758   5.143  14.605
99977SOL    HW2 1829  14.866   5.186  14.703
99978SOL     OW 1830   7.837   6.214  13.834
99978SOL    HW1 1831   7.803   6.216  13.924
99978SOL    HW2 1832   7.780   6.153  13.788
99979SOL     OW 1833   6.645  13.348  14.681
99979SOL    HW1 1834   6.611  13.275  14.731
99979SOL    HW2 1835   6.737  13.353  14.704
99980SOL     OW 1836  13.919  11.162  12.239
99980SOL    HW1 1837  14.007  11.129  12.218
99980SOL    HW2 1838  13.859  11.099  12.201
99981SOL     OW 1839   1.316   8.124   0.135
99981SOL    HW1 1840   1.330   8.191   0.203
99981SOL    HW2 1841   1.221   8.125   0.120
99982SOL     OW 1842  11.139  14.034   2.564
99982SOL    HW1 1843  11.234  14.026   2.564
99982SOL    HW2 1844  11.113  14.008   2.652
99983SOL     OW 1845   6.894   9.622  11.033
99983SOL    HW1 1846   6.961   9.689  11.017
99983SOL    HW2 1847   6.874   9.588  10.945
99984SOL     OW 1848  10.588   1.365   0.716
99984SOL    HW1 1849  10.629   1.433   0.662
99984SOL    HW2 1850  10.662   1.321   0.758
99985SOL     OW 1851  12.305   9.668   2.201
99985SOL    HW1 1852  12.210   9.678   2.202
99985SOL    HW2 1853  12.336   9.737   2.143
99986SOL     OW 1854  13.963   8.341   0.974
99986SOL    HW1 1855  14.022   8.416   0.979
99986SOL    HW2 1856  13.982   8.291   1.053
99987SOL     OW 1857   7.498  13.772   8.522
99987SOL    HW1 1858   7.541  13.793   8.438
99987SOL    HW2 1859   7.499  13.677   8.526
99988SOL     OW 1860   1.171  13.292   7.559
99988SOL    HW1 1861   1.139  13.241   7.485
99988SOL    HW2 1862   1.259  13.320   7.533
99989SOL     OW 1863   6.484  10.511   5.617
99989SOL    HW1 1864   6.496  10.474   5.530
99989SOL    HW2 1865   6.497  10.605   5.605
99990SOL     OW 1866   0.888  10.912   4.377
99990SOL    HW1 1867   0.957  10.846   4.384
99990SOL    HW2 1868   0.839  10.902   4.459
99991SOL     OW 1869   2.246   7.219  13.299
99991SOL    HW1 1870   2.205   7.252  13.219
99991SOL    HW2 1871   2.325   7.175  13.269
99992SOL     OW 1872  12.899   0.350   3.342
99992SOL    HW1 1873  12.964   0.401   3.390
99992SOL    HW2 1874  12.830   0.413   3.321
99993SOL     OW 1875  14.719   4.034  10.876
99993SOL    HW1 1876  14.687   4.061  10.962
99993SOL    HW2 1877  14.667   4.085  10.814
99994SOL     OW 1878   7.065   2.956   9.323
99994SOL    HW1 1879   7.050   3.045   9.354
99994SOL    HW2 1880   7.081   2.905   9.402
99995SOL     OW 1881  14.585  12.814   8.581
99995SOL    HW1 1882  14.641  12.756   8.632
99995SOL    HW2 1883  14.646  12.866   8.528
99996SOL     OW 1884  10.793   9.140  11.229
99996SOL    HW1 1885  10.800   9.056  11.184
99996SOL    HW2 1886  10.750   9.197  11.165
99997SOL     OW 1887   6.912   3.294   9.049
99997SOL    HW1 1888   6.995   3.252   9.023
99997SOL    HW2 1889   6.844   3.241   9.007
99998SOL     OW 1890  12.935   3.311  13.447
99998SOL    HW1 1891  12.926   3.349  13.360
99998SOL    HW2 1892  12.879   3.233  13.444
99999SOL     OW 1893  11.283   2.659  10.998
99999SOL    HW1 1894  11.215   2.627  11.057
99999SOL    HW2 1895  11.331   2.580  10.972
    0SOL     OW 1896   0.050  10.017   7.847
    0SOL    HW1 1897   0.017  10.039   7.934
    0SOL    HW2 1898  14.863  10.048   7.787
    1SOL     OW 1899   8.378   1.978  13.653
    1SOL    HW1 1900   8.430   1.959  13.575
    1SOL    HW2 1901   8.434   2.036  13.705
    2SOL     OW 1902   6.537   8.123   5.623
    2SOL    HW1 1903   6.526   8.049   5.683
    2SOL    HW2 1904   6.564   8.195   5.679
    3SOL     OW 1905   4.840  13.175  11.761
    3SOL    HW1 1906   4.897  13.122  11.817
    3SOL    HW2 1907   4.860  13.265  11.786
    4SOL     OW 1908   1.692   1.337  11.548
    4SOL    HW1 1909   1.667   1.310  11.459
    4SOL    HW2 1910   1.702   1.254  11.595
    5SOL     OW 1911  10.668   8.283  14.328
    5SOL    HW1 1912  10.698   8.268  14.418
    5SOL    HW2 1913  10.681   8.199  14.285
    6SOL     OW 1914   0.992  13.824   3.077
    6SOL    HW1 1915   0.965  13.813   2.986
    6SOL    HW2 1916   1.055  13.895   3.075
    7SOL     OW 1917   1.339   6.596   3.321
    7SOL    HW1 1918   1.319   6.623   3.232
    7SOL    HW2 1919   1.433   6.607   3.330
    8SOL     OW 1920  12.600   3.371  14.144
    8SOL    HW1 1921  12.533   3.310  14.112
    8SOL    HW2 1922  12.596   3.363  14.239
    9SOL     OW 1923   3.353  11.183   4.480
    9SOL    HW1 1924   3.413  11.253   4.453
    9SOL    HW2 1925   3.309  11.157   4.399
   10SOL     OW 1926   4.021   0.764   3.646
   10SOL    HW1 1927   3.990   0.794   3.560
   10SOL    HW2 1928   4.110   0.732   3.628
   11SOL     OW 1929  13.737   9.143   7.825
   11SOL    HW1 1930  13.721   9.057   7.786
   11SOL    HW2 1931  13.682   9.203   7.776
   12SOL     OW 1932  11.756  13.748   6.405
   12SOL    HW1 1933  11.714  13.689   6.342
   12SOL    HW2 1934  11.739  13.709   6.490
   13SOL     OW 1935   2.562  12.279  10.227
   13SOL    HW1 1936   2.529  12.208  10.283
   13SOL    HW2 1937   2.654  12.287  10.251
   14SOL     OW 1938  13.532   1.277  10.950
   14SOL    HW1 1939  13.521   1.181  10.950
   14SOL    HW2 1940  13.442   1.311  10.948
   15SOL     OW 1941   5.681   1.317  14.449
   15SOL    HW1 1942   5.604   1.367  14.425
   15SOL    HW2 1943   5.752   1.382  14.452
   16SOL     OW 1944   8.781   8.580   9.321
   16SOL    HW1 1945   8.795   8.670   9.349
   16SOL    HW2 1946   8.728   8.541   9.390
   17SOL     OW 1947   7.125   4.194   0.074
   17SOL    HW1 1948   7.194   4.127   0.069
   17SOL    HW2 1949   7.052   4.155   0.026
   18SOL     OW 1950  14.143  10.464   1.752
   18SOL    HW1 1951  14.168  10.372   1.753
   18SOL    HW2 1952  14.154  10.490   1.660
   19SOL     OW 1953   3.660   4.614   9.281
   19SOL    HW1 1954   3.647   4.704   9.251
   19SOL    HW2 1955   3.702   4.624   9.367
   20SOL     OW 1956  11.979  11.204   9.545
   20SOL    HW1 1957  11.913  11.223   9.478
   20SOL    HW2 1958  11.963  11.269   9.613
   21SOL     OW 1959   2.212   5.230   1.546
   21SOL    HW1 1960   2.170   5.185   1.620
   21SOL    HW2 1961   2.291   5.180   1.530
   22SOL     OW 1962   1.808   0.270   3.827
   22SOL    HW1 1963   1.883   0.245   3.880
   22SOL    HW2 1964   1.746   0.197   3.836
   23SOL     OW 1965  14.459   0.441   5.650
   23SOL    HW1 1966  14.394   0.404   5.710
   23SOL    HW2 1967  14.491   0.367   5.600
   24SOL     OW 1968  13.292   1.989  11.821
   24SOL    HW1 1969  13.278   1.898  11.795
   24SOL    HW2 1970  13.223   2.038  11.775
   25SOL     OW 1971  13.917  11.040  14.747
   25SOL    HW1 1972  13.957  10.963  14.705
   25SOL    HW2 1973  13.842  11.004  14.795
   26SOL     OW 1974  10.967   2.080   4.021
   26SOL    HW1 1975  10.880   2.064   4.057
   26SOL    HW2 1976  11.015   1.998   4.037
   27SOL     OW 1977  14.228   9.289  13.461
   27SOL    HW1 1978  14.182   9.209  13.488
   27SOL    HW2 1979  14.258   9.327  13.544
   28SOL     OW 1980  11.934  13.687   6.884
   28SOL    HW1 1981  11.924  13.769   6.836
   28SOL    HW2 1982  11.859  13.634   6.858
   29SOL     OW 1983  12.245   2.289   9.831
   29SOL    HW1 1984  12.199   2.315   9.911
   29SOL    HW2 1985  12.291   2.369   9.804
   30SOL     OW 1986   6.546   4.312  10.318
   30SOL    HW1 1987   6.550   4.299  10.412
   30SOL    HW2 1988   6.505   4.397  10.306
   31SOL     OW 1989   8.145   6.408  14.269
   31SOL    HW1 1990   8.183   6.366  14.192
   31SOL    HW2 1991   8.119   6.335  14.325
   32SOL     OW 1992  13.312   9.987   1.839
   32SOL    HW1 1993  13.218   9.970   1.827
   32SOL    HW2 1994  13.316  10.077   1.873
   33SOL     OW 1995  13.928   9.857   9.466
   33SOL    HW1 1996  13.863   9.823   9.529
   33SOL    HW2 1997  13.945   9.784   9.407
   34SOL     OW 1998  13.292   7.543   8.706
   34SOL    HW1 1999  13.198   7.532   8.695
   34SOL    HW2 2000  13.323   7.578   8.623
   35SOL     OW 2001   3.493   8.385   1.214
   35SOL    HW1 2002   3.479   8.473   1.180
   35SOL    HW2 2003   3.558   8.395   1.283
   36SOL     OW 2004   0.465   9.786  10.595
   36SOL    HW1 2005   0.501   9.802  10.682
   36SOL    HW2 2006   0.541   9.760  10.542
   37SOL     OW 2007   7.715   1.781  14.858
   37SOL    HW1 2008   7.755   1.774  14.771
   37SOL    HW2 2009   7.623   1.756  14.845
   38SOL     OW 2010   7.664   4.367   5.692
   38SOL    HW1 2011   7.651   4.378   5.598
   38SOL    HW2 2012   7.743   4.418   5.712
   39SOL     OW 2013   2.039   3.771  10.815
   39SOL    HW1 2014   2.056   3.677  10.808
   39SOL    HW2 2015   1.977   3.790  10.745
   40SOL     OW 2016  11.518   2.323   4.752
   40SOL    HW1 2017  11.526   2.293   4.843
   40SOL    HW2 2018  11.506   2.242   4.702
   41SOL     OW 2019   5.654   8.226  13.818
   41SOL    HW1 2020   5.675   8.165  13.889
   41SOL    HW2 2021   5.670   8.177  13.738
   42SOL     OW 2022  10.720   3.368   2.360
   42SOL    HW1 2023  10.691   3.355   2.269
   42SOL    HW2 2024  10.798   3.424   2.352
   43SOL     OW 2025   7.162  10.568   2.972
   43SOL    HW1 2026   7.230  10.592   3.035
   43SOL    HW2 2027   7.198  10.595   2.887
   44SOL     OW 2028   6.572  12.400  14.705
   44SOL    HW1 2029   6.641  12.335  14.693
   44SOL    HW2 2030   6.535  12.412  14.618
   45SOL     OW 2031   8.699   2.817   8.525
   45SOL    HW1 2032   8.778   2.765   8.512
   45SOL    HW2 2033   8.635   2.756   8.560
   46SOL     OW 2034   3.334   5.512  11.645
   46SOL    HW1 2035   3.349   5.577  11.576
   46SOL    HW2 2036   3.308   5.433  11.598
   47SOL     OW 2037   4.751   8.485   3.706
   47SOL    HW1 2038   4.832   8.442   3.682
   47SOL    HW2 2039   4.746   8.475   3.801
   48SOL     OW 2040   0.081   8.942   5.506
   48SOL    HW1 2041   0.148   8.907   5.447
   48SOL    HW2 2042   0.130   8.968   5.585
   49SOL     OW 2043   0.070   1.062  13.160
   49SOL    HW1 2044   0.064   0.972  13.194
   49SOL    HW2 2045   0.108   1.112  13.232
   50SOL     OW 2046   2.795   4.885   9.212
   50SOL    HW1 2047   2.823   4.967   9.252
   50SOL    HW2 2048   2.861   4.868   9.145
   51SOL     OW 2049   8.876  10.523   2.173
   51SOL    HW1 2050   8.971  10.536   2.167
   51SOL    HW2 2051   8.864  10.467   2.250
   52SOL     OW 2052   1.285   7.403   6.954
   52SOL    HW1 2053   1.204   7.377   6.999
   52SOL    HW2 2054   1.255   7.437   6.870
   53SOL     OW 2055  12.873   3.131  12.494
   53SOL    HW1 2056  12.941   3.091  12.440
   53SOL    HW2 2057  12.847   3.063  12.556
   54SOL     OW 2058   0.825  11.601  14.661
   54SOL    HW1 2059   0.909  11.635  14.632
   54SOL    HW2 2060   0.760  11.655  14.615
   55SOL     OW 2061  10.049   8.288  11.724
   55SOL    HW1 2062   9.980   8.236  11.683
   55SOL    HW2 2063  10.053   8.368  11.671
   56SOL     OW 2064   6.270   2.577   8.259
   56SOL    HW1 2065   6.344   2.540   8.210
   56SOL    HW2 2066   6.250   2.659   8.215
   57SOL     OW 2067   5.008  14.174   2.714
   57SOL    HW1 2068   5.007  14.258   2.761
   57SOL    HW2 2069   5.015  14.199   2.622
   58SOL     OW 2070  12.834  12.825  11.879
   58SOL    HW1 2071  12.810  12.795  11.792
   58SOL    HW2 2072  12.761  12.796  11.935
   59SOL     OW 2073   2.168  13.447   1.556
   59SOL    HW1 2074   2.173  13.537   1.521
   59SOL    HW2 2075   2.259  13.417   1.557
   60SOL     OW 2076   3.485   4.658   2.268
   60SOL    HW1 2077   3.556   4.599   2.243
   60SOL    HW2 2078   3.510   4.742   2.231
   61SOL     OW 2079   4.005   2.273  12.360
   61SOL    HW1 2080   3.955   2.204  12.316
   61SOL    HW2 2081   3.992   2.351  12.306
   62SOL     OW 2082  11.141   6.702   3.551
   62SOL    HW1 2083  11.056   6.703   3.508
   62SOL    HW2 2084  11.144   6.618   3.598
   63SOL     OW 2085  13.592   1.197   1.062
   63SOL    HW1 2086  13.614   1.132   0.996
   63SOL    HW2 2087  13.519   1.159   1.111
   64SOL     OW 2088  13.375  12.766   7.452
   64SOL    HW1 2089  13.463  12.747   7.486
   64SOL    HW2 2090  13.362  12.859   7.470
   65SOL     OW 2091  10.520   1.262   8.195
   65SOL    HW1 2092  10.438   1.271   8.242
   65SOL    HW2 2093  10.513   1.179   8.148
   66SOL     OW 2094   8.777   7.081   2.623
   66SOL    HW1 2095   8.835   7.035   2.684
   66SOL    HW2 2096   8.814   7.063   2.537
   67SOL     OW 2097  11.312  12.848   9.337
   67SOL    HW1 2098  11.245  12.909   9.368
   67SOL    HW2 2099  11.282  12.762   9.367
   68SOL     OW 2100  10.762  12.451  11.916
   68SOL    HW1 2101  10.686  12.408  11.877
   68SOL    HW2 2102  10.730  12.536  11.945
   69SOL     OW 2103   0.664  10.243   0.199
   69SOL    HW1 2104   0.576  10.232   0.163
   69SOL    HW2 2105   0.679  10.337   0.196
   70SOL     OW 2106   7.678   0.855   0.636
   70SOL    HW1 2107   7.692   0.885   0.726
   70SOL    HW2 2108   7.604   0.906   0.604
   71SOL     OW 2109   0.957   0.676   7.017
   71SOL    HW1 2110   0.926   0.588   7.036
   71SOL    HW2 2111   1.052   0.671   7.025
   72SOL     OW 2112   7.420   0.360   8.172
   72SOL    HW1 2113   7.504   0.406   8.168
   72SOL    HW2 2114   7.372   0.391   8.096
   73SOL     OW 2115   1.412   6.765   1.169
   73SOL    HW1 2116   1.407   6.839   1.108
   73SOL    HW2 2117   1.415   6.687   1.113
   74SOL     OW 2118   5.834  12.973   8.843
   74SOL    HW1 2119   5.893  12.941   8.775
   74SOL    HW2 2120   5.845  12.910   8.915
   75SOL     OW 2121   9.127   2.687  10.701
   75SOL    HW1 2122   9.032   2.697  10.701
   75SOL    HW2 2123   9.148   2.661  10.611
   76SOL     OW 2124   9.455   8.192   1.890
   76SOL    HW1 2125   9.431   8.139   1.966
   76SOL    HW2 2126   9.550   8.192   1.890
   77SOL     OW 2127   1.015   6.162   7.449
   77SOL    HW1 2128   0.996   6.074   7.482
   77SOL    HW2 2129   1.084   6.195   7.506
   78SOL     OW 2130  11.263   8.286   4.179
   78SOL    HW1 2131  11.299   8.367   4.216
   78SOL    HW2 2132  11.209   8.315   4.105
   79SOL     OW 2133   3.176   8.728   1.294
   79SOL    HW1 2134   3.212   8.640   1.288
   79SOL    HW2 2135   3.142   8.747   1.207
   80SOL     OW 2136   1.907  12.966   6.060
   80SOL    HW1 2137   1.916  12.874   6.036
   80SOL    HW2 2138   1.830  12.969   6.117
   81SOL     OW 2139   3.567  11.769   4.349
   81SOL    HW1 2140   3.561  11.862   4.328
   81SOL    HW2 2141   3.590  11.727   4.266
   82SOL     OW 2142   8.156   8.267  12.677
   82SOL    HW1 2143   8.219   8.338  12.684
   82SOL    HW2 2144   8.082   8.304  12.629
   83SOL     OW 2145  10.244   4.072   0.302
   83SOL    HW1 2146  10.235   3.985   0.340
   83SOL    HW2 2147  10.338   4.084   0.291
   84SOL     OW 2148   5.858  11.634   8.723
   84SOL    HW1 2149   5.780  11.608   8.773
   84SOL    HW2 2150   5.832  11.622   8.632
   85SOL     OW 2151   7.002   9.018  13.226
   85SOL    HW1 2152   7.029   9.110  13.232
   85SOL    HW2 2153   7.022   8.982  13.313
   86SOL     OW 2154   4.850   5.655   9.299
   86SOL    HW1 2155   4.784   5.694   9.357
   86SOL    HW2 2156   4.880   5.727   9.244
   87SOL     OW 2157   3.802   1.977   4.321
   87SOL    HW1 2158   3.722   1.998   4.272
   87SOL    HW2 2159   3.847   1.912   4.267
   88SOL     OW 2160  13.943  14.211   0.293
   88SOL    HW1 2161  13.942  14.139   0.356
   88SOL    HW2 2162  14.008  14.272   0.327
   89SOL     OW 2163  10.532   9.848   1.144
   89SOL    HW1 2164  10.569   9.851   1.056
   89SOL    HW2 2165  10.440   9.873   1.133
   90SOL     OW 2166  11.677  13.578   2.490
   90SOL    HW1 2167  11.668  13.507   2.426
   90SOL    HW2 2168  11.770  13.598   2.491
   91SOL     OW 2169   7.536  11.260   4.084
   91SOL    HW1 2170   7.575  11.322   4.022
   91SOL    HW2 2171   7.477  11.314   4.136
   92SOL     OW 2172   1.333   2.438   8.785
   92SOL    HW1 2173   1.268   2.368   8.788
   92SOL    HW2 2174   1.416   2.392   8.773
   93SOL     OW 2175  14.871   0.821   9.641
   93SOL    HW1 2176   0.065   0.883   9.637
   93SOL    HW2 2177   0.022   0.746   9.590
   94SOL     OW 2178   0.022  10.613  13.436
   94SOL    HW1 2179  14.836  10.627  13.368
   94SOL    HW2 2180   0.060  10.699  13.451
   95SOL     OW 2181  10.639   8.527   2.015
   95SOL    HW1 2182  10.631   8.539   2.110
   95SOL    HW2 2183  10.729   8.498   2.002
   96SOL     OW 2184  12.339   6.864   6.193
   96SOL    HW1 2185  12.405   6.826   6.251
   96SOL    HW2 2186  12.268   6.800   6.191
   97SOL     OW 2187   9.083  10.180   0.454
   97SOL    HW1 2188   9.124  10.094   0.464
   97SOL    HW2 2189   9.071  10.190   0.359
   98SOL     OW 2190  11.567   9.777  14.129
   98SOL    HW1 2191  11.564   9.707  14.194
   98SOL    HW2 2192  11.604   9.735  14.051
   99SOL     OW 2193   7.717   1.585  13.030
   99SOL    HW1 2194   7.658   1.526  12.983
   99SOL    HW2 2195   7.803   1.545  13.024
  100SOL     OW 2196  13.899  11.861  13.793
  100SOL    HW1 2197  13.810  11.829  13.780
  100SOL    HW2 2198  13.917  11.846  13.886
  101SOL     OW 2199   1.012   5.186   4.383
  101SOL    HW1 2200   1.094   5.201   4.336
  101SOL    HW2 2201   0.949   5.164   4.314
  102SOL     OW 2202   8.524  13.431  12.283
  102SOL    HW1 2203   8.546  13.443  12.375
  102SOL    HW2 2204   8.461  13.359  12.283
  103SOL     OW 2205   3.648   1.033   0.285
  103SOL    HW1 2206   3.638   1.046   0.191
  103SOL    HW2 2207   3.616   0.944   0.301
  104SOL     OW 2208   8.606   4.662   8.707
  104SOL    HW1 2209   8.612   4.653   8.612
  104SOL    HW2 2210   8.585   4.754   8.721
  105SOL     OW 2211  13.539   4.774   7.745
  105SOL    HW1 2212  13.609   4.726   7.700
  105SOL    HW2 2213  13.523   4.723   7.825
  106SOL     OW 2214  14.211   2.602   3.568
  106SOL    HW1 2215  14.128   2.625   3.611
  106SOL    HW2 2216  14.219   2.663   3.496
  107SOL     OW 2217  12.206   4.548  11.451
  107SOL    HW1 2218  12.214   4.490  11.527
  107SOL    HW2 2219  12.284   4.529  11.398
  108SOL     OW 2220   6.709  11.958  11.111
  108SOL    HW1 2221   6.780  12.000  11.061
  108SOL    HW2 2222   6.752  11.924  11.189
  109SOL     OW 2223  12.396  14.846  13.689
  109SOL    HW1 2224  12.375  14.752  13.693
  109SOL    HW2 2225  12.318   0.009  13.725
  110SOL     OW 2226   9.716   4.767   4.069
  110SOL    HW1 2227   9.663   4.846   4.060
  110SOL    HW2 2228   9.807   4.799   4.064
  111SOL     OW 2229   5.617   3.892   8.674
  111SOL    HW1 2230   5.685   3.950   8.709
  111SOL    HW2 2231   5.593   3.836   8.748
  112SOL     OW 2232  10.680  14.362   4.808
  112SOL    HW1 2233  10.738  14.364   4.732
  112SOL    HW2 2234  10.621  14.437   4.795
  113SOL     OW 2235   1.859   8.014   0.826
  113SOL    HW1 2236   1.927   8.079   0.842
  113SOL    HW2 2237   1.779   8.065   0.813
  114SOL     OW 2238   4.339   7.697   6.580
  114SOL    HW1 2239   4.431   7.683   6.601
  114SOL    HW2 2240   4.311   7.615   6.539
  115SOL     OW 2241  12.341   1.857  14.300
  115SOL    HW1 2242  12.415   1.797  14.307
  115SOL    HW2 2243  12.371   1.938  14.340
  116SOL     OW 2244   4.768   3.999   1.762
  116SOL    HW1 2245   4.761   4.015   1.668
  116SOL    HW2 2246   4.823   4.071   1.794
  117SOL     OW 2247   6.445  13.737   8.398
  117SOL    HW1 2248   6.373  13.797   8.415
  117SOL    HW2 2249   6.409  13.672   8.338
  118SOL     OW 2250  13.050   6.865   3.358
  118SOL    HW1 2251  13.021   6.791   3.411
  118SOL    HW2 2252  13.107   6.916   3.415
  119SOL     OW 2253  14.113   3.109   2.138
  119SOL    HW1 2254  14.137   3.034   2.083
  119SOL    HW2 2255  14.176   3.177   2.115
  120SOL     OW 2256   8.675   5.274   8.093
  120SOL    HW1 2257   8.594   5.246   8.051
  120SOL    HW2 2258   8.716   5.333   8.030
  121SOL     OW 2259   8.746   2.206   8.714
  121SOL    HW1 2260   8.819   2.154   8.749
  121SOL    HW2 2261   8.686   2.142   8.677
  122SOL     OW 2262  12.343   6.962   0.061
  122SOL    HW1 2263  12.314   7.012   0.137
  122SOL    HW2 2264  12.265   6.914   0.032
  123SOL     OW 2265  14.475  11.367   2.090
  123SOL    HW1 2266  14.504  11.284   2.129
  123SOL    HW2 2267  14.501  11.361   1.998
  124SOL     OW 2268  11.233  11.592  12.387
  124SOL    HW1 2269  11.147  11.551  12.393
  124SOL    HW2 2270  11.215  11.681  12.356
  125SOL     OW 2271   4.836   4.805   6.750
  125SOL    HW1 2272   4.756   4.789   6.700
  125SOL    HW2 2273   4.883   4.722   6.747
  126SOL     OW 2274  14.669  11.634   9.059
  126SOL    HW1 2275  14.713  11.560   9.100
  126SOL    HW2 2276  14.739  11.699   9.046
  127SOL     OW 2277   6.326   7.816  13.898
  127SOL    HW1 2278   6.342   7.863  13.816
  127SOL    HW2 2279   6.273   7.875  13.950
  128SOL     OW 2280   3.016   6.502   7.675
  128SOL    HW1 2281   2.930   6.465   7.656
  128SOL    HW2 2282   3.060   6.503   7.590
  129SOL     OW 2283  13.730  10.881   5.005
  129SOL    HW1 2284  13.639  10.853   4.997
  129SOL    HW2 2285  13.726  10.960   5.059
  130SOL     OW 2286   8.009   1.566   4.370
  130SOL    HW1 2287   8.002   1.661   4.369
  130SOL    HW2 2288   8.065   1.547   4.445
  131SOL     OW 2289  12.535   0.278   5.357
  131SOL    HW1 2290  12.602   0.239   5.414
  131SOL    HW2 2291  12.482   0.332   5.416
  132SOL     OW 2292  14.073   0.818   4.356
  132SOL    HW1 2293  14.069   0.788   4.446
  132SOL    HW2 2294  14.107   0.744   4.307
  133SOL     OW 2295  14.078   3.441   2.062
  133SOL    HW1 2296  14.107   3.411   1.976
  133SOL    HW2 2297  14.015   3.511   2.043
  134SOL     OW 2298  12.548  14.777  10.147
  134SOL    HW1 2299  12.460  14.814  10.139
  134SOL    HW2 2300  12.547  14.700  10.091
  135SOL     OW 2301   6.914   4.305   8.030
  135SOL    HW1 2302   6.894   4.394   8.000
  135SOL    HW2 2303   7.010   4.302   8.035
  136SOL     OW 2304   0.581   9.351   7.089
  136SOL    HW1 2305   0.586   9.324   6.997
  136SOL    HW2 2306   0.588   9.446   7.087
  137SOL     OW 2307   5.896   0.276   2.995
  137SOL    HW1 2308   5.890   0.368   2.967
  137SOL    HW2 2309   5.939   0.281   3.081
  138SOL     OW 2310   8.298  11.978   6.313
  138SOL    HW1 2311   8.345  11.896   6.324
  138SOL    HW2 2312   8.254  11.992   6.397
  139SOL     OW 2313   1.005  13.813   7.768
  139SOL    HW1 2314   1.035  13.878   7.832
  139SOL    HW2 2315   0.931  13.855   7.724
  140SOL     OW 2316  10.344   6.986   5.503
  140SOL    HW1 2317  10.351   7.047   5.576
  140SOL    HW2 2318  10.254   6.997   5.470
  141SOL     OW 2319   9.288   2.464   5.935
  141SOL    HW1 2320   9.201   2.496   5.912
  141SOL    HW2 2321   9.284   2.450   6.029
  142SOL     OW 2322   2.042  13.903   9.475
  142SOL    HW1 2323   2.098  13.963   9.426
  142SOL    HW2 2324   1.957  13.946   9.478
  143SOL     OW 2325   1.043  13.182   6.522
  143SOL    HW1 2326   1.099  13.107   6.544
  143SOL    HW2 2327   1.101  13.242   6.475
  144SOL     OW 2328   3.038   9.229   4.477
  144SOL    HW1 2329   3.104   9.245   4.544
  144SOL    HW2 2330   2.987   9.155   4.510
  145SOL     OW 2331   6.486  10.112   9.602
  145SOL    HW1 2332   6.519  10.027   9.633
  145SOL    HW2 2333   6.504  10.111   9.508
  146SOL     OW 2334   3.105   4.465   0.619
  146SOL    HW1 2335   3.165   4.394   0.642
  146SOL    HW2 2336   3.160   4.530   0.575
  147SOL     OW 2337   5.587  14.024  11.434
  147SOL    HW1 2338   5.618  14.103  11.390
  147SOL    HW2 2339   5.528  13.982  11.371
  148SOL     OW 2340   3.704  14.839  12.210
  148SOL    HW1 2341   3.715  14.869  12.300
  148SOL    HW2 2342   3.715  14.744  12.215
  149SOL     OW 2343   6.862  14.441   4.753
  149SOL    HW1 2344   6.807  14.374   4.713
  149SOL    HW2 2345   6.934  14.392   4.793
  150SOL     OW 2346  13.114   3.436   4.661
  150SOL    HW1 2347  13.099   3.379   4.586
  150SOL    HW2 2348  13.123   3.524   4.623
  151SOL     OW 2349   4.616   0.609  10.830
  151SOL    HW1 2350   4.662   0.692  10.818
  151SOL    HW2 2351   4.593   0.608  10.923
  152SOL     OW 2352  14.841   8.990   7.263
  152SOL    HW1 2353  14.761   8.954   7.225
  152SOL    HW2 2354   0.025   8.985   7.192
  153SOL     OW 2355   4.159   7.984  11.640
  153SOL    HW1 2356   4.237   8.028  11.608
  153SOL    HW2 2357   4.139   7.917  11.574
  154SOL     OW 2358   7.879   8.132   7.696
  154SOL    HW1 2359   7.847   8.219   7.720
  154SOL    HW2 2360   7.975   8.142   7.695
  155SOL     OW 2361  11.733   1.516  13.026
  155SOL    HW1 2362  11.763   1.547  12.941
  155SOL    HW2 2363  11.658   1.460  13.007
  156SOL     OW 2364   5.580   6.475   7.344
  156SOL    HW1 2365   5.598   6.467   7.438
  156SOL    HW2 2366   5.645   6.538   7.312
  157SOL     OW 2367  13.323   5.105  10.013
  157SOL    HW1 2368  13.292   5.111  10.104
  157SOL    HW2 2369  13.286   5.183   9.970
  158SOL     OW 2370  10.343  11.203  13.322
  158SOL    HW1 2371  10.269  11.211  13.261
  158SOL    HW2 2372  10.318  11.133  13.382
  159SOL     OW 2373   3.445   1.036   8.091
  159SOL    HW1 2374   3.464   1.057   8.000
  159SOL    HW2 2375   3.354   1.006   8.091
  160SOL     OW 2376   9.489   5.942  10.730
  160SOL    HW1 2377   9.454   5.857  10.703
  160SOL    HW2 2378   9.567   5.954  10.676
  161SOL     OW 2379   8.090   6.110   2.364
  161SOL    HW1 2380   8.002   6.136   2.390
  161SOL    HW2 2381   8.128   6.188   2.324
  162SOL     OW 2382   1.197   9.640   2.700
  162SOL    HW1 2383   1.251   9.592   2.762
  162SOL    HW2 2384   1.185   9.726   2.740
  163SOL     OW 2385   8.994   3.266   4.606
  163SOL    HW1 2386   9.014   3.339   4.665
  163SOL    HW2 2387   8.989   3.190   4.664
  164SOL     OW 2388  13.287   4.304   3.271
  164SOL    HW1 2389  13.236   4.246   3.328
  164SOL    HW2 2390  13.334   4.244   3.213
  165SOL     OW 2391   4.836  14.117  12.055
  165SOL    HW1 2392   4.756  14.170  12.048
  165SOL    HW2 2393   4.907  14.181  12.064
  166SOL     OW 2394   6.761  10.424   4.014
  166SOL    HW1 2395   6.742  10.460   4.101
  166SOL    HW2 2396   6.715  10.340   4.013
  167SOL     OW 2397  12.727  14.680   6.364
  167SOL    HW1 2398  12.783  14.696   6.440
  167SOL    HW2 2399  12.759  14.742   6.298
  168SOL     OW 2400   6.328   3.850  13.494
  168SOL    HW1 2401   6.374   3.879  13.573
  168SOL    HW2 2402   6.388   3.871  13.422
  169SOL     OW 2403   6.364   3.030   7.232
  169SOL    HW1 2404   6.278   3.015   7.270
  169SOL    HW2 2405   6.418   2.957   7.263
  170SOL     OW 2406  11.074   0.517   3.656
  170SOL    HW1 2407  11.011   0.445   3.663
  170SOL    HW2 2408  11.049   0.563   3.576
  171SOL     OW 2409   6.700  12.758   8.177
  171SOL    HW1 2410   6.756  12.770   8.254
  171SOL    HW2 2411   6.724  12.831   8.119
  172SOL     OW 2412   9.810  11.650  12.631
  172SOL    HW1 2413   9.756  11.571  12.619
  172SOL    HW2 2414   9.751  11.722  12.611
  173SOL     OW 2415   5.948   3.232  14.176
  173SOL    HW1 2416   5.865   3.207  14.136
  173SOL    HW2 2417   6.013   3.174  14.135
  174SOL     OW 2418   3.792  13.405   3.898
  174SOL    HW1 2419   3.809  13.404   3.993
  174SOL    HW2 2420   3.781  13.498   3.877
  175SOL     OW 2421   0.086   4.444   3.594
  175SOL    HW1 2422   0.071   4.444   3.500
  175SOL    HW2 2423   0.179   4.463   3.604
  176SOL     OW 2424  12.173  12.805   3.231
  176SOL    HW1 2425  12.232  12.730   3.235
  176SOL    HW2 2426  12.148  12.822   3.322
  177SOL     OW 2427   5.876   0.013  10.249
  177SOL    HW1 2428   5.953  14.863  10.201
  177SOL    HW2 2429   5.850   0.094  10.205
  178SOL     OW 2430  13.940  10.568   1.362
  178SOL    HW1 2431  13.906  10.511   1.293
  178SOL    HW2 2432  14.004  10.514   1.407
  179SOL     OW 2433  10.224   3.197   4.330
  179SOL    HW1 2434  10.188   3.241   4.253
  179SOL    HW2 2435  10.220   3.104   4.309
  180SOL     OW 2436   2.862   7.031  11.545
  180SOL    HW1 2437   2.827   6.980  11.618
  180SOL    HW2 2438   2.811   7.002  11.469
  181SOL     OW 2439   7.819   5.073  13.664
  181SOL    HW1 2440   7.803   4.989  13.708
  181SOL    HW2 2441   7.778   5.062  13.578
  182SOL     OW 2442   8.478   7.749  13.025
  182SOL    HW1 2443   8.384   7.741  13.041
  182SOL    HW2 2444   8.510   7.659  13.026
  183SOL     OW 2445  10.896  13.791   7.604
  183SOL    HW1 2446  10.907  13.816   7.695
  183SOL    HW2 2447  10.896  13.695   7.605
  184SOL     OW 2448   0.366   5.737   7.457
  184SOL    HW1 2449   0.280   5.760   7.421
  184SOL    HW2 2450   0.373   5.790   7.536
  185SOL     OW 2451  11.058  10.437  14.089
  185SOL    HW1 2452  11.071  10.437  13.994
  185SOL    HW2 2453  11.147  10.442  14.125
  186SOL     OW 2454   5.011   5.458  11.305
  186SOL    HW1 2455   5.009   5.550  11.331
  186SOL    HW2 2456   4.955   5.454  11.228
  187SOL     OW 2457  10.676   8.760  14.070
  187SOL    HW1 2458  10.638   8.673  14.082
  187SOL    HW2 2459  10.750   8.746  14.011
  188SOL     OW 2460  13.877   1.367   7.823
  188SOL    HW1 2461  13.903   1.356   7.915
  188SOL    HW2 2462  13.934   1.437   7.791
  189SOL     OW 2463   0.253  12.074  12.944
  189SOL    HW1 2464   0.264  12.168  12.955
  189SOL    HW2 2465   0.159  12.060  12.948
  190SOL     OW 2466   7.445   6.815  11.228
  190SOL    HW1 2467   7.412   6.898  11.262
  190SOL    HW2 2468   7.539   6.829  11.218
  191SOL     OW 2469  14.863   1.190  10.056
  191SOL    HW1 2470  14.823   1.189  10.142
  191SOL    HW2 2471   0.002   1.282  10.038
  192SOL     OW 2472   4.732   9.129  11.217
  192SOL    HW1 2473   4.819   9.169  11.223
  192SOL    HW2 2474   4.676   9.186  11.270
  193SOL     OW 2475   8.551  10.496   8.013
  193SOL    HW1 2476   8.548  10.403   7.990
  193SOL    HW2 2477   8.566  10.540   7.929
  194SOL     OW 2478   5.442   5.204   4.272
  194SOL    HW1 2479   5.403   5.153   4.343
  194SOL    HW2 2480   5.434   5.295   4.301
  195SOL     OW 2481  14.187   1.215  11.322
  195SOL    HW1 2482  14.201   1.143  11.261
  195SOL    HW2 2483  14.271   1.227  11.365
  196SOL     OW 2484  10.136   5.533   2.409
  196SOL    HW1 2485  10.086   5.560   2.332
  196SOL    HW2 2486  10.181   5.453   2.381
  197SOL     OW 2487   1.044  12.976   2.937
  197SOL    HW1 2488   1.038  13.069   2.914
  197SOL    HW2 2489   0.987  12.932   2.874
  198SOL     OW 2490   2.237   5.494  12.507
  198SOL    HW1 2491   2.224   5.489  12.601
  198SOL    HW2 2492   2.299   5.425  12.487
  199SOL     OW 2493   2.942  12.558   3.580
  199SOL    HW1 2494   2.893  12.484   3.544
  199SOL    HW2 2495   3.033  12.540   3.554
  200SOL     OW 2496   8.605  14.610  13.578
  200SOL    HW1 2497   8.546  14.667  13.626
  200SOL    HW2 2498   8.552  14.576  13.505
  201SOL     OW 2499  11.232   1.102   3.422
  201SOL    HW1 2500  11.240   1.043   3.347
  201SOL    HW2 2501  11.290   1.064   3.488
  202SOL     OW 2502  11.198  11.846  12.328
  202SOL    HW1 2503  11.160  11.914  12.384
  202SOL    HW2 2504  11.214  11.889  12.245
  203SOL     OW 2505   2.895  11.174   8.978
  203SOL    HW1 2506   2.909  11.219   8.895
  203SOL    HW2 2507   2.888  11.081   8.955
  204SOL     OW 2508   7.758  13.122  11.562
  204SOL    HW1 2509   7.791  13.046  11.609
  204SOL    HW2 2510   7.827  13.188  11.571
  205SOL     OW 2511   6.057   8.132  10.208
  205SOL    HW1 2512   6.008   8.202  10.166
  205SOL    HW2 2513   6.132   8.175  10.249
  206SOL     OW 2514   4.980   4.428   4.591
  206SOL    HW1 2515   4.961   4.455   4.681
  206SOL    HW2 2516   4.897   4.436   4.545
  207SOL     OW 2517   5.535  14.869   8.166
  207SOL    HW1 2518   5.503  14.852   8.077
  207SOL    HW2 2519   5.458  14.863   8.221
  208SOL     OW 2520   6.336  14.528   9.124
  208SOL    HW1 2521   6.264  14.582   9.153
  208SOL    HW2 2522   6.326  14.446   9.171
  209SOL     OW 2523   8.020  12.371   9.780
  209SOL    HW1 2524   8.010  12.291   9.728
  209SOL    HW2 2525   8.100  12.411   9.747
  210SOL     OW 2526   1.751  10.595   1.765
  210SOL    HW1 2527   1.817  10.531   1.737
  210SOL    HW2 2528   1.727  10.567   1.853
  211SOL     OW 2529   7.071   3.217  10.379
  211SOL    HW1 2530   7.154   3.175  10.400
  211SOL    HW2 2531   7.004   3.154  10.406
  212SOL     OW 2532  10.085   2.732  14.370
  212SOL    HW1 2533  10.131   2.722  14.287
  212SOL    HW2 2534  10.135   2.799  14.417
  213SOL     OW 2535   7.260  13.154   6.823
  213SOL    HW1 2536   7.237  13.242   6.793
  213SOL    HW2 2537   7.225  13.096   6.755
  214SOL     OW 2538  10.891  13.129  12.721
  214SOL    HW1 2539  10.885  13.033  12.711
  214SOL    HW2 2540  10.863  13.163  12.636
  215SOL     OW 2541   6.775   7.706  10.048
  215SOL    HW1 2542   6.865   7.739  10.039
  215SOL    HW2 2543   6.722   7.785  10.057
  216SOL     OW 2544   8.748   4.670   2.299
  216SOL    HW1 2545   8.688   4.715   2.359
  216SOL    HW2 2546   8.691   4.636   2.230
  217SOL     OW 2547   6.301   0.680  10.107
  217SOL    HW1 2548   6.382   0.725  10.084
  217SOL    HW2 2549   6.274   0.636  10.026
  218SOL     OW 2550   5.043   9.640   9.378
  218SOL    HW1 2551   5.122   9.593   9.354
  218SOL    HW2 2552   4.978   9.611   9.314
  219SOL     OW 2553  10.225   2.501  11.368
  219SOL    HW1 2554  10.249   2.422  11.319
  219SOL    HW2 2555  10.289   2.505  11.439
  220SOL     OW 2556   0.861   8.567   5.607
  220SOL    HW1 2557   0.841   8.629   5.536
  220SOL    HW2 2558   0.775   8.548   5.646
  221SOL     OW 2559   9.627   5.974   9.049
  221SOL    HW1 2560   9.553   5.978   9.110
  221SOL    HW2 2561   9.699   6.018   9.096
  222SOL     OW 2562   5.423   0.797   0.237
  222SOL    HW1 2563   5.428   0.716   0.186
  222SOL    HW2 2564   5.488   0.855   0.197
  223SOL     OW 2565   8.634  10.538  13.160
  223SOL    HW1 2566   8.598  10.463  13.208
  223SOL    HW2 2567   8.631  10.511  13.068
  224SOL     OW 2568   2.063   8.313   2.364
  224SOL    HW1 2569   2.023   8.307   2.451
  224SOL    HW2 2570   1.992   8.343   2.307
  225SOL     OW 2571  12.580   3.626  12.982
  225SOL    HW1 2572  12.674   3.608  12.975
  225SOL    HW2 2573  12.540   3.540  12.994
  226SOL     OW 2574   8.347  13.479   6.373
  226SOL    HW1 2575   8.396  13.399   6.393
  226SOL    HW2 2576   8.411  13.536   6.331
  227SOL     OW 2577   1.747   1.324   2.805
  227SOL    HW1 2578   1.687   1.329   2.879
  227SOL    HW2 2579   1.715   1.389   2.743
  228SOL     OW 2580   3.923   3.917   4.590
  228SOL    HW1 2581   3.908   4.012   4.585
  228SOL    HW2 2582   3.852   3.879   4.537
  229SOL     OW 2583  10.231   0.470   8.588
  229SOL    HW1 2584  10.205   0.445   8.500
  229SOL    HW2 2585  10.310   0.420   8.605
  230SOL     OW 2586   5.627  14.792  11.250
  230SOL    HW1 2587   5.548  14.787  11.304
  230SOL    HW2 2588   5.636   0.005  11.230
  231SOL     OW 2589   5.762   2.993  11.153
  231SOL    HW1 2590   5.790   2.954  11.070
  231SOL    HW2 2591   5.708   3.068  11.127
  232SOL     OW 2592   1.837   1.098   6.837
  232SOL    HW1 2593   1.762   1.123   6.891
  232SOL    HW2 2594   1.912   1.142   6.878
  233SOL     OW 2595   9.397  14.530  10.102
  233SOL    HW1 2596   9.410  14.582  10.181
  233SOL    HW2 2597   9.455  14.455  10.112
  234SOL     OW 2598   0.978  10.038  12.210
  234SOL    HW1 2599   0.969  10.122  12.165
  234SOL    HW2 2600   1.042  10.055  12.279
  235SOL     OW 2601   4.504  13.719  10.896
  235SOL    HW1 2602   4.591  13.749  10.923
  235SOL    HW2 2603   4.481  13.651  10.959
  236SOL     OW 2604   4.939   2.380   8.767
  236SOL    HW1 2605   4.848   2.356   8.754
  236SOL    HW2 2606   4.942   2.474   8.746
  237SOL     OW 2607   3.855  12.712  10.735
  237SOL    HW1 2608   3.866  12.617  10.738
  237SOL    HW2 2609   3.804  12.728  10.655
  238SOL     OW 2610   3.288   0.430  10.860
  238SOL    HW1 2611   3.243   0.505  10.898
  238SOL    HW2 2612   3.243   0.354  10.896
  239SOL     OW 2613  10.643   5.969   2.147
  239SOL    HW1 2614  10.655   6.027   2.072
  239SOL    HW2 2615  10.549   5.958   2.155
  240SOL     OW 2616   6.718   8.369   1.603
  240SOL    HW1 2617   6.625   8.360   1.585
  240SOL    HW2 2618   6.728   8.338   1.693
  241SOL     OW 2619   6.998  12.591   8.242
  241SOL    HW1 2620   6.944  12.534   8.297
  241SOL    HW2 2621   6.989  12.556   8.154
  242SOL     OW 2622  10.571  12.335  11.485
  242SOL    HW1 2623  10.581  12.266  11.550
  242SOL    HW2 2624  10.601  12.414  11.530
  243SOL     OW 2625   4.885   5.771   4.243
  243SOL    HW1 2626   4.799   5.812   4.234
  243SOL    HW2 2627   4.933   5.830   4.301
  244SOL     OW 2628   4.700  14.861   9.301
  244SOL    HW1 2629   4.730   0.008   9.214
  244SOL    HW2 2630   4.633   0.047   9.324
  245SOL     OW 2631  12.442   2.061   9.196
  245SOL    HW1 2632  12.482   2.044   9.111
  245SOL    HW2 2633  12.509   2.036   9.259
  246SOL     OW 2634   3.269  14.785   4.831
  246SOL    HW1 2635   3.257  14.849   4.761
  246SOL    HW2 2636   3.354  14.808   4.870
  247SOL     OW 2637   4.399   0.352   1.371
  247SOL    HW1 2638   4.420   0.444   1.384
  247SOL    HW2 2639   4.343   0.350   1.293
  248SOL     OW 2640   1.507   7.560   2.854
  248SOL    HW1 2641   1.467   7.494   2.797
  248SOL    HW2 2642   1.556   7.616   2.794
  249SOL     OW 2643   7.276   5.238   9.959
  249SOL    HW1 2644   7.276   5.307   9.893
  249SOL    HW2 2645   7.341   5.174   9.927
  250SOL     OW 2646   4.070   7.570   1.977
  250SOL    HW1 2647   3.986   7.525   1.979
  250SOL    HW2 2648   4.116   7.531   1.902
  251SOL     OW 2649   7.363   4.659   1.077
  251SOL    HW1 2650   7.455   4.686   1.070
  251SOL    HW2 2651   7.348   4.605   0.999
  252SOL     OW 2652  11.056  12.923   2.035
  252SOL    HW1 2653  10.994  12.993   2.013
  252SOL    HW2 2654  11.001  12.850   2.063
  253SOL     OW 2655   6.478  10.533  10.587
  253SOL    HW1 2656   6.468  10.627  10.601
  253SOL    HW2 2657   6.561  10.511  10.631
  254SOL     OW 2658   4.023   6.844   7.259
  254SOL    HW1 2659   4.051   6.927   7.222
  254SOL    HW2 2660   3.929   6.841   7.245
  255SOL     OW 2661  10.497   7.961   3.477
  255SOL    HW1 2662  10.511   8.054   3.465
  255SOL    HW2 2663  10.583   7.926   3.503
  256SOL     OW 2664   5.846   4.010   4.019
  256SOL    HW1 2665   5.904   4.079   3.987
  256SOL    HW2 2666   5.775   4.057   4.063
  257SOL     OW 2667   7.404   5.793  12.923
  257SOL    HW1 2668   7.435   5.833  12.843
  257SOL    HW2 2669   7.323   5.840  12.944
  258SOL     OW 2670  13.363   3.973   4.359
  258SOL    HW1 2671  13.421   4.046   4.383
  258SOL    HW2 2672  13.296   4.013   4.304
  259SOL     OW 2673  10.919  14.568   6.153
  259SOL    HW1 2674  10.884  14.493   6.104
  259SOL    HW2 2675  11.006  14.582   6.115
  260SOL     OW 2676   5.340   3.820   9.382
  260SOL    HW1 2677   5.397   3.889   9.416
  260SOL    HW2 2678   5.312   3.772   9.460
  261SOL     OW 2679  12.962   4.208   1.315
  261SOL    HW1 2680  13.017   4.245   1.246
  261SOL    HW2 2681  12.921   4.284   1.357
  262SOL     OW 2682   6.746   1.327   1.821
  262SOL    HW1 2683   6.676   1.390   1.833
  262SOL    HW2 2684   6.776   1.307   1.909
  263SOL     OW 2685   0.083   6.937  14.832
  263SOL    HW1 2686   0.115   7.010   0.006
  263SOL    HW2 2687   0.145   6.866  14.849
  264SOL     OW 2688   1.337   7.775   0.397
  264SOL    HW1 2689   1.329   7.706   0.464
  264SOL    HW2 2690   1.261   7.831   0.412
  265SOL     OW 2691  10.663  12.205   5.740
  265SOL    HW1 2692  10.732  12.139   5.738
  265SOL    HW2 2693  10.588  12.161   5.780
  266SOL     OW 2694  13.318  11.786  11.084
  266SOL    HW1 2695  13.374  11.786  11.007
  266SOL    HW2 2696  13.260  11.711  11.072
  267SOL     OW 2697   5.269   1.970  14.236
  267SOL    HW1 2698   5.235   1.966  14.147
  267SOL    HW2 2699   5.247   2.057  14.267
  268SOL     OW 2700  14.119   9.811   5.776
  268SOL    HW1 2701  14.118   9.862   5.857
  268SOL    HW2 2702  14.053   9.743   5.789
  269SOL     OW 2703   8.486   6.915   0.289
  269SOL    HW1 2704   8.464   6.826   0.263
  269SOL    HW2 2705   8.526   6.907   0.375
  270SOL     OW 2706   7.014   4.430  12.782
  270SOL    HW1 2707   6.932   4.465  12.749
  270SOL    HW2 2708   6.998   4.337  12.794
  271SOL     OW 2709  11.622   1.078  12.424
  271SOL    HW1 2710  11.591   1.168  12.421
  271SOL    HW2 2711  11.694   1.075  12.361
  272SOL     OW 2712  11.931   5.683   2.799
  272SOL    HW1 2713  11.964   5.688   2.888
  272SOL    HW2 2714  11.860   5.748   2.796
  273SOL     OW 2715  10.751   4.118  14.876
  273SOL    HW1 2716  10.795   4.164  14.805
  273SOL    HW2 2717  10.751   4.182   0.068
  274SOL     OW 2718  13.762   5.306   3.722
  274SOL    HW1 2719  13.751   5.381   3.663
  274SOL    HW2 2720  13.855   5.305   3.743
  275SOL     OW 2721   4.876  13.486   1.584
  275SOL    HW1 2722   4.880  13.578   1.610
  275SOL    HW2 2723   4.959  13.469   1.541
  276SOL     OW 2724   1.120  12.571   5.825
  276SOL    HW1 2725   1.050  12.607   5.772
  276SOL    HW2 2726   1.199  12.582   5.772
  277SOL     OW 2727  14.851   4.514   1.907
  277SOL    HW1 2728  14.802   4.432   1.897
  277SOL    HW2 2729   0.055   4.496   1.864
  278SOL     OW 2730   7.077  11.859   5.894
  278SOL    HW1 2731   7.107  11.846   5.804
  278SOL    HW2 2732   7.157  11.860   5.946
  279SOL     OW 2733   6.333   2.761   6.998
  279SOL    HW1 2734   6.297   2.762   6.909
  279SOL    HW2 2735   6.285   2.691   7.042
  280SOL     OW 2736   8.887   0.089  10.792
  280SOL    HW1 2737   8.833   0.168  10.781
  280SOL    HW2 2738   8.970   0.111  10.750
  281SOL     OW 2739   7.412   6.298   5.124
  281SOL    HW1 2740   7.435   6.390   5.139
  281SOL    HW2 2741   7.478   6.267   5.062
  282SOL     OW 2742   7.973  13.276   1.080
  282SOL    HW1 2743   7.982  13.315   0.993
  282SOL    HW2 2744   7.970  13.182   1.065
  283SOL     OW 2745   5.835   4.622  11.444
  283SOL    HW1 2746   5.757   4.607  11.390
  283SOL    HW2 2747   5.883   4.690  11.398
  284SOL     OW 2748   1.325  12.979   3.250
  284SOL    HW1 2749   1.396  13.035   3.281
  284SOL    HW2 2750   1.253  13.039   3.231
  285SOL     OW 2751  14.213   2.676   8.706
  285SOL    HW1 2752  14.180   2.753   8.752
  285SOL    HW2 2753  14.216   2.607   8.772
  286SOL     OW 2754   9.520   0.119  10.714
  286SOL    HW1 2755   9.576   0.093  10.786
  286SOL    HW2 2756   9.535   0.054  10.646
  287SOL     OW 2757  13.817  10.296  12.871
  287SOL    HW1 2758  13.814  10.266  12.962
  287SOL    HW2 2759  13.858  10.382  12.875
  288SOL     OW 2760  11.691  10.315   3.530
  288SOL    HW1 2761  11.653  10.397   3.561
  288SOL    HW2 2762  11.705  10.264   3.610
  289SOL     OW 2763  13.749   2.662   1.273
  289SOL    HW1 2764  13.679   2.658   1.208
  289SOL    HW2 2765  13.828   2.636   1.225
  290SOL     OW 2766   1.864   0.173  12.285
  290SOL    HW1 2767   1.811   0.253  12.283
  290SOL    HW2 2768   1.936   0.190  12.224
  291SOL     OW 2769   5.681   1.951  12.448
  291SOL    HW1 2770   5.649   1.926  12.535
  291SOL    HW2 2771   5.775   1.939  12.453
  292SOL     OW 2772   2.198   6.867  13.649
  292SOL    HW1 2773   2.293   6.872  13.641
  292SOL    HW2 2774   2.183   6.850  13.742
  293SOL     OW 2775   0.048  11.490   0.389
  293SOL    HW1 2776   0.068  11.425   0.456
  293SOL    HW2 2777   0.069  11.574   0.430
  294SOL     OW 2778  13.481   8.810  13.420
  294SOL    HW1 2779  13.475   8.870  13.346
  294SOL    HW2 2780  13.394   8.770  13.426
  295SOL     OW 2781   8.400  11.657  13.735
  295SOL    HW1 2782   8.404  11.625  13.825
  295SOL    HW2 2783   8.387  11.579  13.682
  296SOL     OW 2784   5.864  11.734   1.346
  296SOL    HW1 2785   5.861  11.828   1.367
  296SOL    HW2 2786   5.872  11.691   1.431
  297SOL     OW 2787   7.511   1.938  11.845
  297SOL    HW1 2788   7.426   1.919  11.886
  297SOL    HW2 2789   7.500   2.025  11.806
  298SOL     OW 2790  12.057   6.158  13.096
  298SOL    HW1 2791  12.149   6.176  13.116
  298SOL    HW2 2792  12.031   6.229  13.038
  299SOL     OW 2793   6.433   1.194   1.112
  299SOL    HW1 2794   6.451   1.140   1.036
  299SOL    HW2 2795   6.506   1.176   1.172
  300SOL     OW 2796   6.343   4.439   1.016
  300SOL    HW1 2797   6.359   4.517   1.069
  300SOL    HW2 2798   6.388   4.456   0.933
  301SOL     OW 2799   3.559   1.594   7.462
  301SOL    HW1 2800   3.488   1.533   7.440
  301SOL    HW2 2801   3.591   1.625   7.378
  302SOL     OW 2802   2.058  10.803   2.626
  302SOL    HW1 2803   2.135  10.787   2.680
  302SOL    HW2 2804   2.060  10.897   2.609
  303SOL     OW 2805   9.940  12.043  11.351
  303SOL    HW1 2806   9.934  12.117  11.412
  303SOL    HW2 2807   9.884  11.976  11.389
  304SOL     OW 2808  11.807  14.538  13.346
  304SOL    HW1 2809  11.774  14.485  13.274
  304SOL    HW2 2810  11.862  14.479  13.397
  305SOL     OW 2811   9.471  13.718  10.328
  305SOL    HW1 2812   9.446  13.628  10.351
  305SOL    HW2 2813   9.567  13.718  10.331
  306SOL     OW 2814  10.987   5.381   7.131
  306SOL    HW1 2815  10.945   5.460   7.096
  306SOL    HW2 2816  11.054   5.359   7.067
  307SOL     OW 2817   5.139   4.256   7.784
  307SOL    HW1 2818   5.109   4.285   7.698
  307SOL    HW2 2819   5.061   4.224   7.828
  308SOL     OW 2820  14.366   2.803  10.715
  308SOL    HW1 2821  14.330   2.738  10.776
  308SOL    HW2 2822  14.421   2.752  10.655
  309SOL     OW 2823   5.113   4.530   4.368
  309SOL    HW1 2824   5.060   4.479   4.429
  309SOL    HW2 2825   5.182   4.470   4.340
  310SOL     OW 2826   1.309   1.086  12.810
  310SOL    HW1 2827   1.340   1.051  12.727
  310SOL    HW2 2828   1.337   1.021  12.875
  311SOL     OW 2829   5.829   0.782  14.126
  311SOL    HW1 2830   5.780   0.791  14.044
  311SOL    HW2 2831   5.822   0.689  14.148
  312SOL     OW 2832  12.073   5.249  10.366
  312SOL    HW1 2833  12.163   5.216  10.373
  312SOL    HW2 2834  12.025   5.178  10.324
  313SOL     OW 2835  13.667  10.307  13.363
  313SOL    HW1 2836  13.664  10.260  13.446
  313SOL    HW2 2837  13.676  10.399  13.387
  314SOL     OW 2838   8.960  14.714  12.122
  314SOL    HW1 2839   8.972  14.734  12.215
  314SOL    HW2 2840   9.023  14.770  12.077
  315SOL     OW 2841   2.357  12.315   8.966
  315SOL    HW1 2842   2.310  12.290   8.887
  315SOL    HW2 2843   2.309  12.274   9.037
  316SOL     OW 2844   8.258   4.848   2.718
  316SOL    HW1 2845   8.296   4.900   2.789
  316SOL    HW2 2846   8.173   4.821   2.752
  317SOL     OW 2847  11.476   4.238  14.658
  317SOL    HW1 2848  11.500   4.155  14.698
  317SOL    HW2 2849  11.522   4.304  14.709
  318SOL     OW 2850  13.049   2.633  10.912
  318SOL    HW1 2851  13.059   2.684  10.992
  318SOL    HW2 2852  13.118   2.666  10.854
  319SOL     OW 2853   7.936  11.686   1.767
  319SOL    HW1 2854   8.026  11.674   1.739
  319SOL    HW2 2855   7.921  11.780   1.759
  320SOL     OW 2856   6.935  10.655   1.903
  320SOL    HW1 2857   6.856  10.684   1.858
  320SOL    HW2 2858   6.991  10.621   1.833
  321SOL     OW 2859  11.828   5.437   7.755
  321SOL    HW1 2860  11.879   5.363   7.789
  321SOL    HW2 2861  11.797   5.407   7.669
  322SOL     OW 2862  12.976  14.530   6.102
  322SOL    HW1 2863  13.048  14.486   6.148
  322SOL    HW2 2864  12.951  14.602   6.160
  323SOL     OW 2865  13.594   8.771   3.127
  323SOL    HW1 2866  13.636   8.813   3.202
  323SOL    HW2 2867  13.658   8.706   3.098
  324SOL     OW 2868   9.243   2.404   6.192
  324SOL    HW1 2869   9.261   2.367   6.279
  324SOL    HW2 2870   9.177   2.471   6.208
  325SOL     OW 2871   5.588   8.377   0.584
  325SOL    HW1 2872   5.657   8.315   0.606
  325SOL    HW2 2873   5.610   8.456   0.634
  326SOL     OW 2874   5.208   4.384  13.907
  326SOL    HW1 2875   5.261   4.403  13.829
  326SOL    HW2 2876   5.195   4.290  13.905
  327SOL     OW 2877  12.053   0.436   9.349
  327SOL    HW1 2878  12.110   0.424   9.273
  327SOL    HW2 2879  11.965   0.415   9.316
  328SOL     OW 2880   3.336   3.814   6.566
  328SOL    HW1 2881   3.352   3.732   6.613
  328SOL    HW2 2882   3.376   3.881   6.622
  329SOL     OW 2883   0.094   0.684  13.107
  329SOL    HW1 2884   0.183   0.720  13.102
  329SOL    HW2 2885   0.053   0.731  13.180
  330SOL     OW 2886  11.918  13.919   0.068
  330SOL    HW1 2887  11.967  14.001   0.076
  330SOL    HW2 2888  11.928  13.894  14.856
  331SOL     OW 2889   9.877   9.540   9.041
  331SOL    HW1 2890   9.859   9.557   8.949
  331SOL    HW2 2891   9.801   9.490   9.071
  332SOL     OW 2892   9.366  10.110   2.916
  332SOL    HW1 2893   9.419  10.148   2.846
  332SOL    HW2 2894   9.276  10.134   2.893
  333SOL     OW 2895  14.081  12.715   7.112
  333SOL    HW1 2896  14.053  12.788   7.058
  333SOL    HW2 2897  14.123  12.654   7.051
  334SOL     OW 2898  13.254   3.368  10.303
  334SOL    HW1 2899  13.281   3.276  10.307
  334SOL    HW2 2900  13.159   3.365  10.296
  335SOL     OW 2901   8.291   2.912   4.479
  335SOL    HW1 2902   8.211   2.895   4.529
  335SOL    HW2 2903   8.361   2.882   4.537
  336SOL     OW 2904   2.078   8.271   8.078
  336SOL    HW1 2905   2.135   8.250   8.152
  336SOL    HW2 2906   2.136   8.266   8.002
  337SOL     OW 2907   8.836  13.495  11.286
  337SOL    HW1 2908   8.816  13.561  11.351
  337SOL    HW2 2909   8.751  13.460  11.260
  338SOL     OW 2910   8.698   3.121   3.085
  338SOL    HW1 2911   8.658   3.204   3.112
  338SOL    HW2 2912   8.678   3.113   2.992
  339SOL     OW 2913   9.893   5.639   1.822
  339SOL    HW1 2914   9.911   5.551   1.855
  339SOL    HW2 2915   9.809   5.632   1.778
  340SOL     OW 2916  11.590   5.616   2.197
  340SOL    HW1 2917  11.518   5.662   2.239
  340SOL    HW2 2918  11.568   5.523   2.206
  341SOL     OW 2919   4.214   5.201   6.373
  341SOL    HW1 2920   4.299   5.227   6.338
  341SOL    HW2 2921   4.173   5.152   6.302
  342SOL     OW 2922   5.131   2.831  11.893
  342SOL    HW1 2923   5.095   2.866  11.811
  342SOL    HW2 2924   5.089   2.883  11.961
  343SOL     OW 2925   2.216  14.836  13.967
  343SOL    HW1 2926   2.282  14.878  14.022
  343SOL    HW2 2927   2.255  14.752  13.943
  344SOL     OW 2928   2.566  14.791   2.581
  344SOL    HW1 2929   2.660  14.808   2.583
  344SOL    HW2 2930   2.535  14.818   2.667
  345SOL     OW 2931   5.085   6.761   9.781
  345SOL    HW1 2932   5.143   6.686   9.765
  345SOL    HW2 2933   5.123   6.805   9.857
  346SOL     OW 2934  12.263  14.774  11.484
  346SOL    HW1 2935  12.169  14.771  11.469
  346SOL    HW2 2936  12.271  14.805  11.575
  347SOL     OW 2937  13.237   1.149   0.444
  347SOL    HW1 2938  13.227   1.211   0.516
  347SOL    HW2 2939  13.315   1.098   0.467
  348SOL     OW 2940   7.857  13.763  13.377
  348SOL    HW1 2941   7.801  13.829  13.418
  348SOL    HW2 2942   7.946  13.790  13.399
  349SOL     OW 2943  10.464  10.542   9.011
  349SOL    HW1 2944  10.528  10.476   8.988
  349SOL    HW2 2945  10.463  10.542   9.107
  350SOL     OW 2946   4.473  10.371  14.192
  350SOL    HW1 2947   4.396  10.321  14.217
  350SOL    HW2 2948   4.503  10.331  14.110
  351SOL     OW 2949   4.972  10.627   7.766
  351SOL    HW1 2950   4.995  10.535   7.784
  351SOL    HW2 2951   4.895  10.642   7.821
  352SOL     OW 2952   2.553  10.039   4.036
  352SOL    HW1 2953   2.501  10.046   4.116
  352SOL    HW2 2954   2.604   9.959   4.048
  353SOL     OW 2955   6.362  12.313   3.094
  353SOL    HW1 2956   6.271  12.342   3.102
  353SOL    HW2 2957   6.411  12.372   3.151
  354SOL     OW 2958  10.132   1.268   6.026
  354SOL    HW1 2959  10.125   1.363   6.020
  354SOL    HW2 2960  10.146   1.251   6.119
  355SOL     OW 2961   0.423  10.285  13.578
  355SOL    HW1 2962   0.410  10.197  13.614
  355SOL    HW2 2963   0.495  10.275  13.516
  356SOL     OW 2964   2.560  10.191  10.792
  356SOL    HW1 2965   2.483  10.242  10.767
  356SOL    HW2 2966   2.550  10.177  10.886
  357SOL     OW 2967   0.348   6.250   4.273
  357SOL    HW1 2968   0.379   6.302   4.198
  357SOL    HW2 2969   0.255   6.270   4.278
  358SOL     OW 2970  12.414   6.451  12.042
  358SOL    HW1 2971  12.427   6.360  12.015
  358SOL    HW2 2972  12.368   6.491  11.968
  359SOL     OW 2973   0.852   8.596  10.962
  359SOL    HW1 2974   0.779   8.604  11.024
  359SOL    HW2 2975   0.873   8.503  10.961
  360SOL     OW 2976   4.157   0.410  11.348
  360SOL    HW1 2977   4.247   0.380  11.362
  360SOL    HW2 2978   4.155   0.437  11.256
  361SOL     OW 2979  13.540   0.656   9.333
  361SOL    HW1 2980  13.499   0.571   9.352
  361SOL    HW2 2981  13.535   0.704   9.416
  362SOL     OW 2982   0.148  10.539   7.353
  362SOL    HW1 2983   0.190  10.553   7.268
  362SOL    HW2 2984   0.138  10.444   7.358
  363SOL     OW 2985   3.134   7.100   7.339
  363SOL    HW1 2986   3.111   7.062   7.255
  363SOL    HW2 2987   3.185   7.178   7.317
  364SOL     OW 2988   8.683   0.599  13.361
  364SOL    HW1 2989   8.645   0.586  13.274
  364SOL    HW2 2990   8.776   0.580  13.350
  365SOL     OW 2991   2.023   9.511   2.119
  365SOL    HW1 2992   1.992   9.424   2.146
  365SOL    HW2 2993   1.957   9.541   2.057
  366SOL     OW 2994   8.400  12.226   4.872
  366SOL    HW1 2995   8.325  12.167   4.881
  366SOL    HW2 2996   8.373  12.306   4.919
  367SOL     OW 2997   2.567  10.406  14.229
  367SOL    HW1 2998   2.479  10.442  14.241
  367SOL    HW2 2999   2.626  10.477  14.255
  368SOL     OW 3000  12.766   5.082   9.162
  368SOL    HW1 3001  12.717   5.003   9.141
  368SOL    HW2 3002  12.734   5.148   9.101
  369SOL     OW 3003   9.643  14.123   6.361
  369SOL    HW1 3004   9.579  14.164   6.419
  369SOL    HW2 3005   9.647  14.181   6.285
  370SOL     OW 3006  13.386   1.296   2.813
  370SOL    HW1 3007  13.402   1.388   2.834
  370SOL    HW2 3008  13.434   1.247   2.880
  371SOL     OW 3009   9.866  11.054   7.799
  371SOL    HW1 3010   9.918  11.088   7.873
  371SOL    HW2 3011   9.833  10.970   7.829
  372SOL     OW 3012  13.527   4.247   9.877
  372SOL    HW1 3013  13.583   4.250   9.954
  372SOL    HW2 3014  13.499   4.155   9.871
  373SOL     OW 3015   2.780   9.780  10.786
  373SOL    HW1 3016   2.864   9.737  10.798
  373SOL    HW2 3017   2.803   9.867  10.752
  374SOL     OW 3018   5.800  10.462   6.513
  374SOL    HW1 3019   5.843  10.391   6.561
  374SOL    HW2 3020   5.824  10.541   6.561
  375SOL     OW 3021   7.576  11.843  14.200
  375SOL    HW1 3022   7.666  11.868  14.221
  375SOL    HW2 3023   7.582  11.752  14.172
  376SOL     OW 3024   4.010  12.268   0.962
  376SOL    HW1 3025   4.068  12.321   1.016
  376SOL    HW2 3026   4.069  12.223   0.901
  377SOL     OW 3027   5.519   5.267   1.682
  377SOL    HW1 3028   5.561   5.346   1.647
  377SOL    HW2 3029   5.517   5.281   1.776
  378SOL     OW 3030  12.504   9.236   8.423
  378SOL    HW1 3031  12.550   9.164   8.380
  378SOL    HW2 3032  12.423   9.246   8.373
  379SOL     OW 3033  10.425   4.517  11.819
  379SOL    HW1 3034  10.500   4.529  11.762
  379SOL    HW2 3035  10.404   4.423  11.811
  380SOL     OW 3036  12.673   6.747   8.869
  380SOL    HW1 3037  12.673   6.761   8.775
  380SOL    HW2 3038  12.681   6.835   8.907
  381SOL     OW 3039   7.034   0.086  10.253
  381SOL    HW1 3040   6.942   0.056  10.254
  381SOL    HW2 3041   7.050   0.109  10.161
  382SOL     OW 3042   9.646  13.479   3.874
  382SOL    HW1 3043   9.679  13.555   3.826
  382SOL    HW2 3044   9.683  13.488   3.962
  383SOL     OW 3045  13.604  11.539   7.189
  383SOL    HW1 3046  13.591  11.616   7.244
  383SOL    HW2 3047  13.548  11.554   7.113
  384SOL     OW 3048   2.368   2.376  11.325
  384SOL    HW1 3049   2.449   2.399  11.279
  384SOL    HW2 3050   2.309   2.345  11.255
  385SOL     OW 3051   2.683   9.810   0.165
  385SOL    HW1 3052   2.776   9.825   0.147
  385SOL    HW2 3053   2.671   9.716   0.155
  386SOL     OW 3054  14.419   2.509   7.087
  386SOL    HW1 3055  14.324   2.504   7.078
  386SOL    HW2 3056  14.446   2.422   7.115
  387SOL     OW 3057   6.721   2.854  14.069
  387SOL    HW1 3058   6.696   2.865  13.977
  387SOL    HW2 3059   6.817   2.850  14.068
  388SOL     OW 3060   5.319   3.193   9.326
  388SOL    HW1 3061   5.248   3.169   9.385
  388SOL    HW2 3062   5.284   3.178   9.238
  389SOL     OW 3063  12.614   7.457  12.095
  389SOL    HW1 3064  12.655   7.539  12.120
  389SOL    HW2 3065  12.634   7.447  12.002
  390SOL     OW 3066   6.434   8.194   7.931
  390SOL    HW1 3067   6.504   8.244   7.890
  390SOL    HW2 3068   6.469   8.169   8.016
  391SOL     OW 3069   0.621   8.375  13.609
  391SOL    HW1 3070   0.666   8.308  13.558
  391SOL    HW2 3071   0.537   8.388  13.564
  392SOL     OW 3072  11.128   8.579   5.406
  392SOL    HW1 3073  11.096   8.597   5.494
  392SOL    HW2 3074  11.147   8.485   5.406
  393SOL     OW 3075   8.501  11.116  12.046
  393SOL    HW1 3076   8.563  11.045  12.029
  393SOL    HW2 3077   8.536  11.161  12.123
  394SOL     OW 3078   0.360  10.543   4.190
  394SOL    HW1 3079   0.402  10.629   4.180
  394SOL    HW2 3080   0.280  10.561   4.239
  395SOL     OW 3081  10.338   5.334   6.149
  395SOL    HW1 3082  10.290   5.403   6.195
  395SOL    HW2 3083  10.429   5.348   6.174
  396SOL     OW 3084   0.368  11.935  13.522
  396SOL    HW1 3085   0.352  11.849  13.484
  396SOL    HW2 3086   0.281  11.974  13.532
  397SOL     OW 3087   8.637   6.225  11.932
  397SOL    HW1 3088   8.574   6.294  11.953
  397SOL    HW2 3089   8.721   6.260  11.960
  398SOL     OW 3090   9.866  13.085   6.585
  398SOL    HW1 3091   9.937  13.129   6.539
  398SOL    HW2 3092   9.802  13.154   6.601
  399SOL     OW 3093   6.758  11.501   1.036
  399SOL    HW1 3094   6.668  11.497   1.069
  399SOL    HW2 3095   6.800  11.424   1.075
  400SOL     OW 3096   4.297   8.525   5.517
  400SOL    HW1 3097   4.254   8.448   5.554
  400SOL    HW2 3098   4.275   8.596   5.578
  401SOL     OW 3099   4.125   1.740   2.034
  401SOL    HW1 3100   4.118   1.724   2.128
  401SOL    HW2 3101   4.213   1.775   2.023
  402SOL     OW 3102   0.304   3.614  12.895
  402SOL    HW1 3103   0.281   3.703  12.921
  402SOL    HW2 3104   0.359   3.625  12.817
  403SOL     OW 3105  10.149  10.571  13.406
  403SOL    HW1 3106  10.115  10.523  13.482
  403SOL    HW2 3107  10.085  10.642  13.393
  404SOL     OW 3108   9.431  11.710   5.884
  404SOL    HW1 3109   9.484  11.785   5.911
  404SOL    HW2 3110   9.405  11.730   5.794
  405SOL     OW 3111   7.969   2.577  10.006
  405SOL    HW1 3112   7.985   2.668  10.031
  405SOL    HW2 3113   7.874   2.566  10.011
  406SOL     OW 3114  11.803   2.101   9.003
  406SOL    HW1 3115  11.765   2.023   8.962
  406SOL    HW2 3116  11.897   2.093   8.986
  407SOL     OW 3117  12.236  10.381   3.111
  407SOL    HW1 3118  12.250  10.310   3.047
  407SOL    HW2 3119  12.144  10.371   3.136
  408SOL     OW 3120   6.227  13.328   4.705
  408SOL    HW1 3121   6.138  13.363   4.707
  408SOL    HW2 3122   6.243  13.306   4.613
  409SOL     OW 3123   4.693   5.329  12.947
  409SOL    HW1 3124   4.609   5.305  12.988
  409SOL    HW2 3125   4.756   5.322  13.019
  410SOL     OW 3126   0.010  14.011   3.538
  410SOL    HW1 3127  14.849  14.031   3.454
  410SOL    HW2 3128  14.871  13.918   3.553
  411SOL     OW 3129   6.162   9.894   7.777
  411SOL    HW1 3130   6.201   9.971   7.738
  411SOL    HW2 3131   6.182   9.823   7.716
  412SOL     OW 3132   7.177   1.157  13.437
  412SOL    HW1 3133   7.224   1.077  13.413
  412SOL    HW2 3134   7.207   1.176  13.526
  413SOL     OW 3135   8.234  10.489   5.972
  413SOL    HW1 3136   8.273  10.575   5.987
  413SOL    HW2 3137   8.239  10.477   5.877
  414SOL     OW 3138  13.769   7.676  14.557
  414SOL    HW1 3139  13.723   7.714  14.483
  414SOL    HW2 3140  13.784   7.585  14.531
  415SOL     OW 3141   6.659   3.385   6.603
  415SOL    HW1 3142   6.570   3.365   6.574
  415SOL    HW2 3143   6.663   3.481   6.604
  416SOL     OW 3144   3.716   0.388   8.798
  416SOL    HW1 3145   3.785   0.323   8.808
  416SOL    HW2 3146   3.761   0.470   8.784
  417SOL     OW 3147   8.886   3.782  13.075
  417SOL    HW1 3148   8.977   3.797  13.047
  417SOL    HW2 3149   8.852   3.717  13.014
  418SOL     OW 3150   5.474  13.033   2.959
  418SOL    HW1 3151   5.456  13.065   2.871
  418SOL    HW2 3152   5.466  12.938   2.953
  419SOL     OW 3153   1.109   5.301   0.906
  419SOL    HW1 3154   1.106   5.308   0.811
  419SOL    HW2 3155   1.167   5.372   0.934
  420SOL     OW 3156  12.840  10.499   3.795
  420SOL    HW1 3157  12.769  10.526   3.737
  420SOL    HW2 3158  12.887  10.432   3.745
  421SOL     OW 3159   2.740   7.026   3.775
  421SOL    HW1 3160   2.698   7.087   3.714
  421SOL    HW2 3161   2.730   7.067   3.860
  422SOL     OW 3162   3.076   5.881   9.030
  422SOL    HW1 3163   2.987   5.865   9.000
  422SOL    HW2 3164   3.068   5.895   9.124
  423SOL     OW 3165   5.068   7.392   9.605
  423SOL    HW1 3166   5.002   7.445   9.650
  423SOL    HW2 3167   5.049   7.302   9.634
  424SOL     OW 3168   9.592   4.896   2.955
  424SOL    HW1 3169   9.669   4.930   3.003
  424SOL    HW2 3170   9.518   4.943   2.993
  425SOL     OW 3171   4.536   0.103   1.424
  425SOL    HW1 3172   4.486   0.166   1.372
  425SOL    HW2 3173   4.471   0.041   1.456
  426SOL     OW 3174   8.706   7.167  10.100
  426SOL    HW1 3175   8.783   7.114  10.120
  426SOL    HW2 3176   8.742   7.253  10.076
  427SOL     OW 3177   2.869   9.533  12.448
  427SOL    HW1 3178   2.835   9.457  12.400
  427SOL    HW2 3179   2.866   9.507  12.540
  428SOL     OW 3180  13.100   6.123  11.407
  428SOL    HW1 3181  13.161   6.103  11.336
  428SOL    HW2 3182  13.147   6.098  11.486
  429SOL     OW 3183   8.297  11.326   3.220
  429SOL    HW1 3184   8.227  11.261   3.221
  429SOL    HW2 3185   8.277  11.381   3.145
  430SOL     OW 3186   3.329   3.401  14.449
  430SOL    HW1 3187   3.266   3.431  14.514
  430SOL    HW2 3188   3.413   3.402  14.496
  431SOL     OW 3189  13.737   7.185   0.171
  431SOL    HW1 3190  13.689   7.265   0.190
  431SOL    HW2 3191  13.829   7.208   0.186
  432SOL     OW 3192   5.580  10.460   4.945
  432SOL    HW1 3193   5.631  10.425   5.019
  432SOL    HW2 3194   5.602  10.402   4.872
  433SOL     OW 3195   3.869   2.787   8.102
  433SOL    HW1 3196   3.837   2.741   8.025
  433SOL    HW2 3197   3.950   2.829   8.073
  434SOL     OW 3198  12.951   1.924   1.525
  434SOL    HW1 3199  12.998   1.972   1.457
  434SOL    HW2 3200  12.916   1.993   1.582
  435SOL     OW 3201   2.350   5.403  13.906
  435SOL    HW1 3202   2.265   5.407  13.950
  435SOL    HW2 3203   2.334   5.437  13.819
  436SOL     OW 3204   7.532   4.049   9.479
  436SOL    HW1 3205   7.534   3.956   9.456
  436SOL    HW2 3206   7.440   4.066   9.503
  437SOL     OW 3207  11.756   3.258   9.552
  437SOL    HW1 3208  11.753   3.174   9.507
  437SOL    HW2 3209  11.732   3.322   9.485
  438SOL     OW 3210  13.309  13.862   8.899
  438SOL    HW1 3211  13.357  13.926   8.952
  438SOL    HW2 3212  13.217  13.882   8.915
  439SOL     OW 3213  10.483  11.653   1.713
  439SOL    HW1 3214  10.492  11.646   1.618
  439SOL    HW2 3215  10.445  11.570   1.740
  440SOL     OW 3216  10.356   4.832   3.754
  440SOL    HW1 3217  10.424   4.799   3.695
  440SOL    HW2 3218  10.378   4.925   3.765
  441SOL     OW 3219   0.880   7.672   6.915
  441SOL    HW1 3220   0.886   7.751   6.861
  441SOL    HW2 3221   0.894   7.702   7.004
  442SOL     OW 3222  14.083   6.389   9.712
  442SOL    HW1 3223  14.079   6.412   9.805
  442SOL    HW2 3224  14.002   6.341   9.695
  443SOL     OW 3225   4.650   4.120   0.631
  443SOL    HW1 3226   4.587   4.113   0.559
  443SOL    HW2 3227   4.735   4.105   0.591
  444SOL     OW 3228   2.051  10.156   5.422
  444SOL    HW1 3229   2.042  10.065   5.395
  444SOL    HW2 3230   1.974  10.173   5.476
  445SOL     OW 3231   6.724   4.000  11.028
  445SOL    HW1 3232   6.745   4.017  10.936
  445SOL    HW2 3233   6.808   4.009  11.073
  446SOL     OW 3234   1.240  10.457   9.954
  446SOL    HW1 3235   1.151  10.427   9.973
  446SOL    HW2 3236   1.244  10.544   9.993
  447SOL     OW 3237  14.114   7.054   8.389
  447SOL    HW1 3238  14.118   7.002   8.469
  447SOL    HW2 3239  14.163   7.134   8.411
  448SOL     OW 3240   0.417   3.860   3.192
  448SOL    HW1 3241   0.447   3.950   3.175
  448SOL    HW2 3242   0.493   3.806   3.170
  449SOL     OW 3243   3.086  13.537   1.959
  449SOL    HW1 3244   3.031  13.510   2.033
  449SOL    HW2 3245   3.025  13.542   1.885
  450SOL     OW 3246  12.465   3.337   8.662
  450SOL    HW1 3247  12.466   3.395   8.586
  450SOL    HW2 3248  12.373   3.329   8.685
  451SOL     OW 3249   8.414   7.631   3.225
  451SOL    HW1 3250   8.330   7.665   3.192
  451SOL    HW2 3251   8.460   7.708   3.256
  452SOL     OW 3252  12.524  14.319   3.815
  452SOL    HW1 3253  12.577  14.341   3.891
  452SOL    HW2 3254  12.491  14.231   3.832
  453SOL     OW 3255   9.458   0.171   5.631
  453SOL    HW1 3256   9.382   0.165   5.572
  453SOL    HW2 3257   9.525   0.216   5.579
  454SOL     OW 3258   4.229   0.001   4.292
  454SOL    HW1 3259   4.243   0.079   4.346
  454SOL    HW2 3260   4.277   0.018   4.211
  455SOL     OW 3261  10.370   0.289   0.573
  455SOL    HW1 3262  10.356   0.379   0.601
  455SOL    HW2 3263  10.452   0.263   0.616
  456SOL     OW 3264   8.213   4.029   2.899
  456SOL    HW1 3265   8.128   3.986   2.894
  456SOL    HW2 3266   8.197   4.116   2.863
  457SOL     OW 3267   8.125   9.691  10.398
  457SOL    HW1 3268   8.182   9.727  10.466
  457SOL    HW2 3269   8.127   9.596  10.413
  458SOL     OW 3270  13.967   7.229   0.338
  458SOL    HW1 3271  13.918   7.295   0.387
  458SOL    HW2 3272  14.053   7.228   0.380
  459SOL     OW 3273   2.567  10.382   5.758
  459SOL    HW1 3274   2.536  10.416   5.841
  459SOL    HW2 3275   2.662  10.379   5.767
  460SOL     OW 3276   1.335   2.708  14.066
  460SOL    HW1 3277   1.347   2.768  13.993
  460SOL    HW2 3278   1.257   2.657  14.044
  461SOL     OW 3279   9.482   3.632  10.256
  461SOL    HW1 3280   9.546   3.582  10.205
  461SOL    HW2 3281   9.444   3.694  10.194
  462SOL     OW 3282   9.027   1.443   9.575
  462SOL    HW1 3283   9.064   1.439   9.487
  462SOL    HW2 3284   9.076   1.377   9.625
  463SOL     OW 3285  14.615  14.812   1.470
  463SOL    HW1 3286  14.558   0.007   1.488
  463SOL    HW2 3287  14.560  14.736   1.484
  464SOL     OW 3288   2.081  10.225   6.692
  464SOL    HW1 3289   2.125  10.210   6.608
  464SOL    HW2 3290   2.123  10.164   6.752
  465SOL     OW 3291   7.974   0.459   6.183
  465SOL    HW1 3292   8.047   0.399   6.198
  465SOL    HW2 3293   7.919   0.415   6.119
  466SOL     OW 3294   8.064  11.422  13.274
  466SOL    HW1 3295   8.076  11.349  13.335
  466SOL    HW2 3296   7.983  11.401  13.227
  467SOL     OW 3297  11.165   4.585  14.579
  467SOL    HW1 3298  11.177   4.567  14.485
  467SOL    HW2 3299  11.074   4.615  14.585
  468SOL     OW 3300   6.078  13.295   3.274
  468SOL    HW1 3301   6.067  13.243   3.195
  468SOL    HW2 3302   6.158  13.347   3.258
  469SOL     OW 3303   2.653  13.876   1.006
  469SOL    HW1 3304   2.742  13.868   0.971
  469SOL    HW2 3305   2.656  13.953   1.062
  470SOL     OW 3306   4.558   8.791   8.636
  470SOL    HW1 3307   4.536   8.706   8.674
  470SOL    HW2 3308   4.648   8.781   8.607
  471SOL     OW 3309   9.621   4.536   5.192
  471SOL    HW1 3310   9.537   4.575   5.216
  471SOL    HW2 3311   9.667   4.607   5.147
  472SOL     OW 3312   4.426   4.269   4.701
  472SOL    HW1 3313   4.379   4.313   4.630
  472SOL    HW2 3314   4.500   4.327   4.720
  473SOL     OW 3315  10.086   9.029   4.848
  473SOL    HW1 3316  10.130   9.023   4.763
  473SOL    HW2 3317  10.157   9.028   4.912
  474SOL     OW 3318   4.821   4.553   2.807
  474SOL    HW1 3319   4.853   4.621   2.867
  474SOL    HW2 3320   4.755   4.597   2.753
  475SOL     OW 3321   6.372  10.369   0.564
  475SOL    HW1 3322   6.300  10.356   0.626
  475SOL    HW2 3323   6.410  10.453   0.588
  476SOL     OW 3324   4.116  12.473  11.965
  476SOL    HW1 3325   4.040  12.454  11.911
  476SOL    HW2 3326   4.190  12.469  11.904
  477SOL     OW 3327   7.550   3.049   3.641
  477SOL    HW1 3328   7.591   3.001   3.713
  477SOL    HW2 3329   7.473   2.998   3.619
  478SOL     OW 3330  11.761  11.861  10.278
  478SOL    HW1 3331  11.749  11.865  10.183
  478SOL    HW2 3332  11.696  11.797  10.308
  479SOL     OW 3333  10.343  13.577   9.963
  479SOL    HW1 3334  10.423  13.626   9.943
  479SOL    HW2 3335  10.356  13.546  10.053
  480SOL     OW 3336  10.139   5.030   7.258
  480SOL    HW1 3337  10.194   5.101   7.224
  480SOL    HW2 3338  10.092   4.997   7.181
  481SOL     OW 3339  11.776   7.969   0.380
  481SOL    HW1 3340  11.823   7.885   0.374
  481SOL    HW2 3341  11.698   7.949   0.433
  482SOL     OW 3342  10.737  11.513   7.885
  482SOL    HW1 3343  10.731  11.575   7.812
  482SOL    HW2 3344  10.676  11.443   7.862
  483SOL     OW 3345   3.301  14.816   2.556
  483SOL    HW1 3346   3.271  14.726   2.573
  483SOL    HW2 3347   3.357  14.837   2.630
  484SOL     OW 3348  11.406   0.546   9.277
  484SOL    HW1 3349  11.365   0.593   9.204
  484SOL    HW2 3350  11.500   0.550   9.259
  485SOL     OW 3351   8.103  13.488  12.461
  485SOL    HW1 3352   8.093  13.395  12.445
  485SOL    HW2 3353   8.018  13.526  12.441
  486SOL     OW 3354   4.206   4.298   7.116
  486SOL    HW1 3355   4.135   4.357   7.141
  486SOL    HW2 3356   4.230   4.326   7.028
  487SOL     OW 3357   8.335   0.331   5.022
  487SOL    HW1 3358   8.415   0.356   5.070
  487SOL    HW2 3359   8.363   0.258   4.966
  488SOL     OW 3360  13.493   8.418   1.980
  488SOL    HW1 3361  13.574   8.371   1.961
  488SOL    HW2 3362  13.496   8.433   2.075
  489SOL     OW 3363  10.518   6.761   9.047
  489SOL    HW1 3364  10.544   6.731   8.960
  489SOL    HW2 3365  10.595   6.805   9.082
  490SOL     OW 3366  12.196  14.010   5.243
  490SOL    HW1 3367  12.234  13.925   5.267
  490SOL    HW2 3368  12.186  14.006   5.148
  491SOL     OW 3369   7.627   3.844   4.098
  491SOL    HW1 3370   7.705   3.898   4.083
  491SOL    HW2 3371   7.595   3.824   4.010
  492SOL     OW 3372  11.676   1.182   5.741
  492SOL    HW1 3373  11.743   1.223   5.687
  492SOL    HW2 3374  11.593   1.203   5.697
  493SOL     OW 3375   1.071  13.122  13.261
  493SOL    HW1 3376   1.154  13.140  13.305
  493SOL    HW2 3377   1.020  13.073  13.325
  494SOL     OW 3378  13.966  14.197   4.214
  494SOL    HW1 3379  13.933  14.264   4.153
  494SOL    HW2 3380  13.890  14.176   4.269
  495SOL     OW 3381   7.913  14.578   7.474
  495SOL    HW1 3382   7.820  14.589   7.452
  495SOL    HW2 3383   7.928  14.484   7.467
  496SOL     OW 3384  14.349   0.897   4.515
  496SOL    HW1 3385  14.335   0.987   4.484
  496SOL    HW2 3386  14.338   0.902   4.610
  497SOL     OW 3387   3.149  12.400   9.450
  497SOL    HW1 3388   3.196  12.427   9.529
  497SOL    HW2 3389   3.063  12.439   9.458
  498SOL     OW 3390   0.061   0.708   0.949
  498SOL    HW1 3391  14.858   0.753   0.932
  498SOL    HW2 3392   0.104   0.762   1.015
  499SOL     OW 3393   0.865  12.885   3.138
  499SOL    HW1 3394   0.946  12.908   3.091
  499SOL    HW2 3395   0.795  12.917   3.081
  500SOL     OW 3396   1.107  14.698  11.390
  500SOL    HW1 3397   1.193  14.684  11.428
  500SOL    HW2 3398   1.112  14.657  11.303
  501SOL     OW 3399  14.283  11.648  14.638
  501SOL    HW1 3400  14.290  11.682  14.549
  501SOL    HW2 3401  14.213  11.583  14.633
  502SOL     OW 3402  11.571  14.289   0.623
  502SOL    HW1 3403  11.575  14.217   0.560
  502SOL    HW2 3404  11.604  14.252   0.705
  503SOL     OW 3405  12.607  13.515   7.245
  503SOL    HW1 3406  12.700  13.496   7.248
  503SOL    HW2 3407  12.591  13.543   7.155
  504SOL     OW 3408   5.725   6.813  13.657
  504SOL    HW1 3409   5.703   6.874  13.587
  504SOL    HW2 3410   5.718   6.865  13.737
  505SOL     OW 3411   0.871   0.183   7.062
  505SOL    HW1 3412   0.782   0.150   7.050
  505SOL    HW2 3413   0.863   0.247   7.133
  506SOL     OW 3414  11.070   7.688  10.783
  506SOL    HW1 3415  11.047   7.645  10.866
  506SOL    HW2 3416  11.092   7.616  10.724
  507SOL     OW 3417  12.838   2.359   1.375
  507SOL    HW1 3418  12.852   2.300   1.301
  507SOL    HW2 3419  12.829   2.300   1.450
  508SOL     OW 3420  11.782  12.815   8.680
  508SOL    HW1 3421  11.700  12.854   8.711
  508SOL    HW2 3422  11.780  12.725   8.714
  509SOL     OW 3423   2.910   1.957   3.204
  509SOL    HW1 3424   2.831   1.972   3.256
  509SOL    HW2 3425   2.967   2.031   3.226
  510SOL     OW 3426   3.179   4.264   8.743
  510SOL    HW1 3427   3.202   4.345   8.699
  510SOL    HW2 3428   3.109   4.289   8.804
  511SOL     OW 3429  10.805   5.955  11.472
  511SOL    HW1 3430  10.820   5.956  11.378
  511SOL    HW2 3431  10.715   5.924  11.481
  512SOL     OW 3432  10.419  12.424  12.766
  512SOL    HW1 3433  10.370  12.349  12.799
  512SOL    HW2 3434  10.501  12.424  12.815
  513SOL     OW 3435  10.905   2.113   0.008
  513SOL    HW1 3436  10.842   2.047   0.036
  513SOL    HW2 3437  10.990   2.071   0.018
  514SOL     OW 3438   3.949   2.712   4.091
  514SOL    HW1 3439   4.009   2.667   4.031
  514SOL    HW2 3440   3.962   2.668   4.175
  515SOL     OW 3441   8.114   6.497   8.861
  515SOL    HW1 3442   8.202   6.521   8.832
  515SOL    HW2 3443   8.100   6.549   8.940
  516SOL     OW 3444   4.320   7.782  12.322
  516SOL    HW1 3445   4.256   7.852  12.316
  516SOL    HW2 3446   4.294   7.719  12.254
  517SOL     OW 3447  13.584   6.305   0.308
  517SOL    HW1 3448  13.536   6.249   0.246
  517SOL    HW2 3449  13.619   6.244   0.373
  518SOL     OW 3450   5.669  13.170   9.755
  518SOL    HW1 3451   5.694  13.144   9.844
  518SOL    HW2 3452   5.715  13.252   9.740
  519SOL     OW 3453  10.473   1.176  11.677
  519SOL    HW1 3454  10.420   1.255  11.669
  519SOL    HW2 3455  10.500   1.174  11.769
  520SOL     OW 3456   0.813   0.963  12.362
  520SOL    HW1 3457   0.761   0.982  12.440
  520SOL    HW2 3458   0.881   1.030  12.362
  521SOL     OW 3459   0.288  12.568  13.213
  521SOL    HW1 3460   0.380  12.583  13.193
  521SOL    HW2 3461   0.257  12.651  13.249
  522SOL     OW 3462   7.421   4.593   9.907
  522SOL    HW1 3463   7.462   4.578   9.822
  522SOL    HW2 3464   7.330   4.564   9.895
  523SOL     OW 3465   1.490   3.176  11.916
  523SOL    HW1 3466   1.523   3.206  12.001
  523SOL    HW2 3467   1.492   3.081  11.922
  524SOL     OW 3468  13.073  11.908  10.031
  524SOL    HW1 3469  13.162  11.875  10.028
  524SOL    HW2 3470  13.062  11.955   9.948
  525SOL     OW 3471  14.719   3.939   6.457
  525SOL    HW1 3472  14.760   4.009   6.509
  525SOL    HW2 3473  14.628   3.967   6.447
  526SOL     OW 3474  14.664   1.481   9.299
  526SOL    HW1 3475  14.631   1.428   9.371
  526SOL    HW2 3476  14.619   1.565   9.308
  527SOL     OW 3477   4.405   3.082  14.151
  527SOL    HW1 3478   4.335   3.052  14.093
  527SOL    HW2 3479   4.443   3.002  14.187
  528SOL     OW 3480   8.289  10.733   2.698
  528SOL    HW1 3481   8.343  10.794   2.749
  528SOL    HW2 3482   8.296  10.650   2.745
  529SOL     OW 3483  14.127   5.834  10.203
  529SOL    HW1 3484  14.219   5.844  10.176
  529SOL    HW2 3485  14.102   5.748  10.170
  530SOL     OW 3486   2.981   4.574  10.000
  530SOL    HW1 3487   3.013   4.526   9.924
  530SOL    HW2 3488   2.983   4.666   9.973
  531SOL     OW 3489   5.129  12.701  11.312
  531SOL    HW1 3490   5.035  12.697  11.294
  531SOL    HW2 3491   5.134  12.711  11.407
  532SOL     OW 3492   8.794   3.559   3.505
  532SOL    HW1 3493   8.879   3.603   3.502
  532SOL    HW2 3494   8.801   3.498   3.578
  533SOL     OW 3495   7.221   6.760  13.453
  533SOL    HW1 3496   7.228   6.856  13.454
  533SOL    HW2 3497   7.276   6.733  13.379
  534SOL     OW 3498   4.855   7.625   4.327
  534SOL    HW1 3499   4.876   7.602   4.236
  534SOL    HW2 3500   4.809   7.548   4.360
  535SOL     OW 3501  14.880   1.428   9.911
  535SOL    HW1 3502   0.031   1.514   9.940
  535SOL    HW2 3503   0.065   1.399   9.847
  536SOL     OW 3504   7.986  11.164  10.185
  536SOL    HW1 3505   7.907  11.208  10.152
  536SOL    HW2 3506   7.969  11.071  10.168
  537SOL     OW 3507   5.684   7.645   1.338
  537SOL    HW1 3508   5.734   7.693   1.272
  537SOL    HW2 3509   5.594   7.677   1.327
  538SOL     OW 3510   6.594  14.846   0.038
  538SOL    HW1 3511   6.559   0.054   0.054
  538SOL    HW2 3512   6.689  14.859   0.029
  539SOL     OW 3513   5.449   0.768   6.994
  539SOL    HW1 3514   5.423   0.860   6.986
  539SOL    HW2 3515   5.520   0.769   7.057
  540SOL     OW 3516   5.615   8.662  10.521
  540SOL    HW1 3517   5.559   8.735  10.494
  540SOL    HW2 3518   5.586   8.588  10.469
  541SOL     OW 3519  11.951  13.684   2.870
  541SOL    HW1 3520  11.935  13.642   2.786
  541SOL    HW2 3521  11.893  13.639   2.931
  542SOL     OW 3522   7.086   9.195   7.372
  542SOL    HW1 3523   7.140   9.191   7.451
  542SOL    HW2 3524   7.099   9.109   7.330
  543SOL     OW 3525  11.704   7.557  11.219
  543SOL    HW1 3526  11.749   7.520  11.143
  543SOL    HW2 3527  11.699   7.484  11.282
  544SOL     OW 3528   8.123  10.085   1.918
  544SOL    HW1 3529   8.130  10.051   1.828
  544SOL    HW2 3530   8.197  10.047   1.964
  545SOL     OW 3531   7.604   2.023  14.197
  545SOL    HW1 3532   7.691   2.062  14.183
  545SOL    HW2 3533   7.621   1.948  14.254
  546SOL     OW 3534  11.864   5.198   1.036
  546SOL    HW1 3535  11.807   5.217   1.110
  546SOL    HW2 3536  11.871   5.103   1.035
  547SOL     OW 3537   9.251  13.292  10.812
  547SOL    HW1 3538   9.323  13.244  10.770
  547SOL    HW2 3539   9.271  13.286  10.906
  548SOL     OW 3540  13.349   9.743   8.240
  548SOL    HW1 3541  13.364   9.651   8.220
  548SOL    HW2 3542  13.322   9.745   8.332
  549SOL     OW 3543  12.216   3.972  11.138
  549SOL    HW1 3544  12.199   3.896  11.193
  549SOL    HW2 3545  12.129   3.996  11.104
  550SOL     OW 3546   0.394  10.574   9.738
  550SOL    HW1 3547   0.415  10.577   9.831
  550SOL    HW2 3548   0.317  10.517   9.732
  551SOL     OW 3549   5.979  12.862   4.875
  551SOL    HW1 3550   6.053  12.830   4.822
  551SOL    HW2 3551   5.909  12.798   4.860
  552SOL     OW 3552   1.747   5.303  11.834
  552SOL    HW1 3553   1.746   5.229  11.895
  552SOL    HW2 3554   1.837   5.335  11.837
  553SOL     OW 3555  10.836  10.311  12.810
  553SOL    HW1 3556  10.788  10.236  12.847
  553SOL    HW2 3557  10.887  10.273  12.739
  554SOL     OW 3558   5.119   3.075   0.398
  554SOL    HW1 3559   5.127   3.154   0.450
  554SOL    HW2 3560   5.147   3.004   0.456
  555SOL     OW 3561  12.028  10.066  10.624
  555SOL    HW1 3562  12.100  10.007  10.602
  555SOL    HW2 3563  11.999  10.102  10.541
  556SOL     OW 3564   0.763   9.171  11.647
  556SOL    HW1 3565   0.725   9.097  11.599
  556SOL    HW2 3566   0.746   9.152  11.739
  557SOL     OW 3567   7.428  12.502   4.763
  557SOL    HW1 3568   7.514  12.462   4.772
  557SOL    HW2 3569   7.417  12.516   4.669
  558SOL     OW 3570   1.738   0.071   2.914
  558SOL    HW1 3571   1.747   0.158   2.875
  558SOL    HW2 3572   1.827   0.049   2.942
  559SOL     OW 3573   4.229   1.292   9.869
  559SOL    HW1 3574   4.212   1.271   9.961
  559SOL    HW2 3575   4.306   1.348   9.871
  560SOL     OW 3576   9.351   0.972  11.270
  560SOL    HW1 3577   9.302   0.910  11.216
  560SOL    HW2 3578   9.302   0.976  11.352
  561SOL     OW 3579   3.160  12.900   6.555
  561SOL    HW1 3580   3.142  12.807   6.572
  561SOL    HW2 3581   3.074  12.940   6.548
  562SOL     OW 3582  14.794   7.904  12.370
  562SOL    HW1 3583  14.712   7.876  12.330
  562SOL    HW2 3584  14.862   7.859  12.319
  563SOL     OW 3585   5.585   3.352   4.218
  563SOL    HW1 3586   5.549   3.431   4.259
  563SOL    HW2 3587   5.512   3.290   4.217
  564SOL     OW 3588   0.243  11.589   9.648
  564SOL    HW1 3589   0.333  11.595   9.680
  564SOL    HW2 3590   0.250  11.603   9.554
  565SOL     OW 3591   7.667   8.027   3.331
  565SOL    HW1 3592   7.651   7.932   3.333
  565SOL    HW2 3593   7.611   8.062   3.400
  566SOL     OW 3594  11.899  13.003   6.481
  566SOL    HW1 3595  11.911  12.933   6.417
  566SOL    HW2 3596  11.836  12.967   6.544
  567SOL     OW 3597   0.171   5.233   3.291
  567SOL    HW1 3598   0.219   5.151   3.277
  567SOL    HW2 3599   0.101   5.209   3.351
  568SOL     OW 3600   7.692   3.736   9.166
  568SOL    HW1 3601   7.751   3.782   9.225
  568SOL    HW2 3602   7.711   3.772   9.080
  569SOL     OW 3603   1.483   2.475   1.168
  569SOL    HW1 3604   1.390   2.452   1.169
  569SOL    HW2 3605   1.484   2.570   1.158
  570SOL     OW 3606   5.527   6.451  13.941
  570SOL    HW1 3607   5.565   6.415  13.861
  570SOL    HW2 3608   5.477   6.528  13.912
  571SOL     OW 3609  13.983   2.249  14.559
  571SOL    HW1 3610  13.929   2.176  14.529
  571SOL    HW2 3611  13.970   2.317  14.493
  572SOL     OW 3612   8.961   1.436   5.051
  572SOL    HW1 3613   8.994   1.347   5.058
  572SOL    HW2 3614   9.008   1.474   4.978
  573SOL     OW 3615   3.466   1.739  13.148
  573SOL    HW1 3616   3.440   1.647  13.157
  573SOL    HW2 3617   3.504   1.745  13.060
  574SOL     OW 3618   9.464  10.968  14.852
  574SOL    HW1 3619   9.375  10.942  14.828
  574SOL    HW2 3620   9.513  10.886  14.854
  575SOL     OW 3621   7.837   1.010   7.905
  575SOL    HW1 3622   7.800   1.073   7.966
  575SOL    HW2 3623   7.829   1.052   7.819
  576SOL     OW 3624   4.610   1.381   6.633
  576SOL    HW1 3625   4.572   1.302   6.673
  576SOL    HW2 3626   4.635   1.354   6.545
  577SOL     OW 3627   6.220  13.921   2.096
  577SOL    HW1 3628   6.194  13.841   2.142
  577SOL    HW2 3629   6.207  13.991   2.160
  578SOL     OW 3630   0.283  12.477   4.410
  578SOL    HW1 3631   0.306  12.436   4.493
  578SOL    HW2 3632   0.199  12.438   4.386
  579SOL     OW 3633   2.781   6.366   7.609
  579SOL    HW1 3634   2.692   6.350   7.640
  579SOL    HW2 3635   2.769   6.413   7.526
  580SOL     OW 3636   0.423   0.322   4.705
  580SOL    HW1 3637   0.443   0.415   4.702
  580SOL    HW2 3638   0.431   0.292   4.614
  581SOL     OW 3639   7.636   9.736   2.840
  581SOL    HW1 3640   7.590   9.804   2.888
  581SOL    HW2 3641   7.616   9.754   2.748
  582SOL     OW 3642   1.361   0.763   6.380
  582SOL    HW1 3643   1.378   0.729   6.292
  582SOL    HW2 3644   1.266   0.774   6.383
  583SOL     OW 3645   0.343   1.163  11.704
  583SOL    HW1 3646   0.313   1.073  11.702
  583SOL    HW2 3647   0.437   1.156  11.724
  584SOL     OW 3648   3.344   0.780  11.421
  584SOL    HW1 3649   3.254   0.748  11.428
  584SOL    HW2 3650   3.395   0.721  11.476
  585SOL     OW 3651   9.469  13.563   5.623
  585SOL    HW1 3652   9.513  13.638   5.664
  585SOL    HW2 3653   9.522  13.544   5.546
  586SOL     OW 3654   6.116  14.334   0.022
  586SOL    HW1 3655   6.041  14.277   0.037
  586SOL    HW2 3656   6.193  14.279   0.037
  587SOL     OW 3657  14.025   5.355  13.787
  587SOL    HW1 3658  14.008   5.282  13.846
  587SOL    HW2 3659  13.973   5.427  13.823
  588SOL     OW 3660   3.688   0.592   3.641
  588SOL    HW1 3661   3.611   0.563   3.593
  588SOL    HW2 3662   3.761   0.545   3.600
  589SOL     OW 3663   1.996   4.257  11.303
  589SOL    HW1 3664   1.942   4.180  11.286
  589SOL    HW2 3665   1.951   4.329  11.258
  590SOL     OW 3666  13.339   5.308   9.569
  590SOL    HW1 3667  13.340   5.387   9.515
  590SOL    HW2 3668  13.321   5.237   9.507
  591SOL     OW 3669   6.608  13.414   2.515
  591SOL    HW1 3670   6.551  13.372   2.451
  591SOL    HW2 3671   6.673  13.348   2.537
  592SOL     OW 3672   3.378  11.613   5.129
  592SOL    HW1 3673   3.333  11.687   5.088
  592SOL    HW2 3674   3.310  11.547   5.140
  593SOL     OW 3675   5.959  10.305   4.663
  593SOL    HW1 3676   5.922  10.364   4.597
  593SOL    HW2 3677   6.019  10.249   4.614
  594SOL     OW 3678   5.292  11.142   8.961
  594SOL    HW1 3679   5.227  11.082   8.997
  594SOL    HW2 3680   5.365  11.140   9.023
  595SOL     OW 3681   5.017  12.457  11.765
  595SOL    HW1 3682   4.945  12.407  11.727
  595SOL    HW2 3683   5.054  12.506  11.692
  596SOL     OW 3684   3.249   5.208  10.815
  596SOL    HW1 3685   3.180   5.274  10.806
  596SOL    HW2 3686   3.330   5.256  10.798
  597SOL     OW 3687  14.315   5.010  10.719
  597SOL    HW1 3688  14.308   4.982  10.627
  597SOL    HW2 3689  14.403   5.046  10.727
  598SOL     OW 3690   9.908   0.105   8.901
  598SOL    HW1 3691   9.928   0.044   8.830
  598SOL    HW2 3692   9.878   0.050   8.973
  599SOL     OW 3693   9.371   9.108   4.057
  599SOL    HW1 3694   9.318   9.181   4.091
  599SOL    HW2 3695   9.358   9.111   3.963
  600SOL     OW 3696   6.103  14.346   2.426
  600SOL    HW1 3697   6.126  14.378   2.514
  600SOL    HW2 3698   6.123  14.419   2.368
  601SOL     OW 3699   1.158   9.117  10.042
  601SOL    HW1 3700   1.190   9.049  10.100
  601SOL    HW2 3701   1.071   9.086  10.014
  602SOL     OW 3702   2.188  10.943   7.317
  602SOL    HW1 3703   2.129  10.869   7.313
  602SOL    HW2 3704   2.224  10.951   7.229
  603SOL     OW 3705   3.384   1.653  11.888
  603SOL    HW1 3706   3.328   1.729  11.875
  603SOL    HW2 3707   3.363   1.621  11.976
  604SOL     OW 3708   7.719   1.524   2.147
  604SOL    HW1 3709   7.669   1.489   2.220
  604SOL    HW2 3710   7.653   1.565   2.091
  605SOL     OW 3711   0.893   7.059  14.691
  605SOL    HW1 3712   0.887   7.049  14.596
  605SOL    HW2 3713   0.896   6.969  14.724
  606SOL     OW 3714   7.441   8.087  14.732
  606SOL    HW1 3715   7.476   8.159  14.784
  606SOL    HW2 3716   7.496   8.012  14.755
  607SOL     OW 3717   6.665  14.220   0.854
  607SOL    HW1 3718   6.650  14.291   0.792
  607SOL    HW2 3719   6.633  14.142   0.809
  608SOL     OW 3720   7.464   0.931   2.466
  608SOL    HW1 3721   7.546   0.893   2.434
  608SOL    HW2 3722   7.491   0.991   2.535
  609SOL     OW 3723   2.910   6.231   6.514
  609SOL    HW1 3724   2.896   6.140   6.490
  609SOL    HW2 3725   2.831   6.257   6.561
  610SOL     OW 3726   8.683   8.510  11.979
  610SOL    HW1 3727   8.602   8.528  11.931
  610SOL    HW2 3728   8.722   8.436  11.933
  611SOL     OW 3729   5.150   5.107  13.392
  611SOL    HW1 3730   5.112   5.026  13.425
  611SOL    HW2 3731   5.242   5.085  13.376
  612SOL     OW 3732  14.788   8.930  11.345
  612SOL    HW1 3733  14.698   8.961  11.360
  612SOL    HW2 3734  14.784   8.886  11.260
  613SOL     OW 3735   5.872   5.225   6.559
  613SOL    HW1 3736   5.840   5.135   6.565
  613SOL    HW2 3737   5.806   5.269   6.506
  614SOL     OW 3738  12.707   4.745   4.697
  614SOL    HW1 3739  12.628   4.790   4.725
  614SOL    HW2 3740  12.762   4.814   4.660
  615SOL     OW 3741   5.118   7.980   0.271
  615SOL    HW1 3742   5.167   8.013   0.346
  615SOL    HW2 3743   5.047   8.042   0.259
  616SOL     OW 3744   0.903   0.481   2.106
  616SOL    HW1 3745   0.871   0.436   2.028
  616SOL    HW2 3746   0.841   0.458   2.175
  617SOL     OW 3747  10.254   9.743   9.176
  617SOL    HW1 3748  10.217   9.780   9.096
  617SOL    HW2 3749  10.340   9.710   9.150
  618SOL     OW 3750  12.747  10.033  11.273
  618SOL    HW1 3751  12.740  10.128  11.279
  618SOL    HW2 3752  12.673  10.007  11.219
  619SOL     OW 3753   8.489   8.124  10.256
  619SOL    HW1 3754   8.410   8.095  10.302
  619SOL    HW2 3755   8.548   8.155  10.325
  620SOL     OW 3756  14.098   9.449   4.459
  620SOL    HW1 3757  14.091   9.378   4.523
  620SOL    HW2 3758  14.062   9.526   4.503
  621SOL     OW 3759   6.692  12.966   0.480
  621SOL    HW1 3760   6.720  13.056   0.466
  621SOL    HW2 3761   6.684  12.930   0.391
  622SOL     OW 3762   0.739   9.437  13.078
  622SOL    HW1 3763   0.709   9.383  13.151
  622SOL    HW2 3764   0.834   9.420  13.073
  623SOL     OW 3765   2.200   5.834   2.199
  623SOL    HW1 3766   2.184   5.791   2.115
  623SOL    HW2 3767   2.295   5.829   2.211
  624SOL     OW 3768   1.570   1.784   1.006
  624SOL    HW1 3769   1.488   1.828   1.027
  624SOL    HW2 3770   1.621   1.849   0.958
  625SOL     OW 3771   3.410   5.386   7.701
  625SOL    HW1 3772   3.322   5.351   7.692
  625SOL    HW2 3773   3.449   5.335   7.772
  626SOL     OW 3774   2.004  12.165   4.737
  626SOL    HW1 3775   1.954  12.211   4.805
  626SOL    HW2 3776   1.974  12.075   4.741
  627SOL     OW 3777  14.299   8.919   8.227
  627SOL    HW1 3778  14.291   8.972   8.307
  627SOL    HW2 3779  14.226   8.857   8.233
  628SOL     OW 3780   7.452  13.931  13.031
  628SOL    HW1 3781   7.439  13.984  13.110
  628SOL    HW2 3782   7.387  13.861  13.038
  629SOL     OW 3783   2.181   6.213  14.277
  629SOL    HW1 3784   2.122   6.243  14.346
  629SOL    HW2 3785   2.157   6.122  14.262
  630SOL     OW 3786   4.278   6.370   9.853
  630SOL    HW1 3787   4.241   6.443   9.903
  630SOL    HW2 3788   4.373   6.383   9.858
  631SOL     OW 3789   9.319  13.782   8.276
  631SOL    HW1 3790   9.350  13.830   8.199
  631SOL    HW2 3791   9.386  13.799   8.343
  632SOL     OW 3792   9.552  13.521  13.123
  632SOL    HW1 3793   9.502  13.537  13.204
  632SOL    HW2 3794   9.530  13.595  13.067
  633SOL     OW 3795   0.008   7.140   0.380
  633SOL    HW1 3796   0.034   7.054   0.413
  633SOL    HW2 3797  14.792   7.142   0.393
  634SOL     OW 3798  10.411  12.585   1.752
  634SOL    HW1 3799  10.415  12.490   1.751
  634SOL    HW2 3800  10.452  12.612   1.670
  635SOL     OW 3801   3.140   5.060   2.519
  635SOL    HW1 3802   3.137   4.988   2.581
  635SOL    HW2 3803   3.219   5.109   2.543
  636SOL     OW 3804  10.216  12.603   8.335
  636SOL    HW1 3805  10.289  12.662   8.355
  636SOL    HW2 3806  10.145  12.631   8.392
  637SOL     OW 3807   0.764   1.501   5.709
  637SOL    HW1 3808   0.781   1.594   5.693
  637SOL    HW2 3809   0.668   1.494   5.709
  638SOL     OW 3810   6.393   4.149   7.355
  638SOL    HW1 3811   6.388   4.062   7.315
  638SOL    HW2 3812   6.348   4.139   7.439
  639SOL     OW 3813   8.958   0.427   1.274
  639SOL    HW1 3814   8.888   0.400   1.332
  639SOL    HW2 3815   8.927   0.404   1.186
  640SOL     OW 3816   1.992   1.724  13.481
  640SOL    HW1 3817   1.919   1.700  13.539
  640SOL    HW2 3818   2.014   1.643  13.435
  641SOL     OW 3819   0.118   2.775   6.253
  641SOL    HW1 3820   0.078   2.818   6.176
  641SOL    HW2 3821   0.128   2.846   6.316
  642SOL     OW 3822   6.834   2.300   2.313
  642SOL    HW1 3823   6.752   2.348   2.326
  642SOL    HW2 3824   6.869   2.333   2.230
  643SOL     OW 3825  10.914   3.879   0.080
  643SOL    HW1 3826  10.934   3.804   0.025
  643SOL    HW2 3827  10.851   3.931   0.029
  644SOL     OW 3828   0.517  13.640   3.758
  644SOL    HW1 3829   0.567  13.703   3.810
  644SOL    HW2 3830   0.519  13.559   3.809
  645SOL     OW 3831   8.409   3.346  12.101
  645SOL    HW1 3832   8.382   3.409  12.167
  645SOL    HW2 3833   8.459   3.397  12.037
  646SOL     OW 3834   4.229   0.142  10.875
  646SOL    HW1 3835   4.157   0.205  10.886
  646SOL    HW2 3836   4.200   0.064  10.923
  647SOL     OW 3837  10.914   0.357   0.492
  647SOL    HW1 3838  10.861   0.433   0.516
  647SOL    HW2 3839  10.927   0.310   0.574
  648SOL     OW 3840  11.737  11.375   8.203
  648SOL    HW1 3841  11.813  11.349   8.254
  648SOL    HW2 3842  11.691  11.439   8.258
  649SOL     OW 3843   4.232   3.639  10.522
  649SOL    HW1 3844   4.278   3.575  10.576
  649SOL    HW2 3845   4.272   3.723  10.544
  650SOL     OW 3846  14.633   8.222   0.949
  650SOL    HW1 3847  14.658   8.138   0.911
  650SOL    HW2 3848  14.537   8.223   0.946
  651SOL     OW 3849   6.520   4.273   4.004
  651SOL    HW1 3850   6.490   4.185   4.025
  651SOL    HW2 3851   6.581   4.261   3.931
  652SOL     OW 3852  11.971  13.064   9.665
  652SOL    HW1 3853  11.966  13.053   9.570
  652SOL    HW2 3854  11.935  13.151   9.681
  653SOL     OW 3855   7.502   2.057  14.805
  653SOL    HW1 3856   7.482   2.058  14.711
  653SOL    HW2 3857   7.436   2.000  14.843
  654SOL     OW 3858  10.731   7.944   8.786
  654SOL    HW1 3859  10.754   7.856   8.756
  654SOL    HW2 3860  10.727   7.996   8.706
  655SOL     OW 3861   1.069  11.880   4.588
  655SOL    HW1 3862   0.999  11.921   4.536
  655SOL    HW2 3863   1.064  11.787   4.566
  656SOL     OW 3864  10.141  13.129   6.686
  656SOL    HW1 3865  10.184  13.047   6.658
  656SOL    HW2 3866  10.060  13.101   6.728
  657SOL     OW 3867  13.057   1.698   7.674
  657SOL    HW1 3868  13.111   1.696   7.595
  657SOL    HW2 3869  13.008   1.780   7.668
  658SOL     OW 3870   2.395   7.504   7.040
  658SOL    HW1 3871   2.319   7.472   7.089
  658SOL    HW2 3872   2.371   7.494   6.948
  659SOL     OW 3873   3.843   7.510   3.636
  659SOL    HW1 3874   3.818   7.437   3.693
  659SOL    HW2 3875   3.847   7.471   3.548
  660SOL     OW 3876   3.882  10.332  10.744
  660SOL    HW1 3877   3.794  10.350  10.778
  660SOL    HW2 3878   3.941  10.360  10.814
  661SOL     OW 3879  12.892  11.135   6.091
  661SOL    HW1 3880  12.971  11.104   6.047
  661SOL    HW2 3881  12.839  11.056   6.102
  662SOL     OW 3882   6.861   1.826   9.705
  662SOL    HW1 3883   6.890   1.749   9.755
  662SOL    HW2 3884   6.789   1.862   9.756
  663SOL     OW 3885  12.048   9.579   9.078
  663SOL    HW1 3886  12.004   9.656   9.116
  663SOL    HW2 3887  12.060   9.602   8.986
  664SOL     OW 3888   0.273  14.691   2.129
  664SOL    HW1 3889   0.203  14.628   2.112
  664SOL    HW2 3890   0.338  14.676   2.061
  665SOL     OW 3891   5.226   3.273   7.692
  665SOL    HW1 3892   5.285   3.319   7.631
  665SOL    HW2 3893   5.168   3.342   7.725
  666SOL     OW 3894   2.990   8.527  13.430
  666SOL    HW1 3895   3.063   8.466  13.436
  666SOL    HW2 3896   3.030   8.614  13.438
  667SOL     OW 3897   9.421  14.410  14.671
  667SOL    HW1 3898   9.389  14.491  14.710
  667SOL    HW2 3899   9.348  14.349  14.679
  668SOL     OW 3900   4.787   1.885   5.522
  668SOL    HW1 3901   4.761   1.908   5.433
  668SOL    HW2 3902   4.726   1.933   5.578
  669SOL     OW 3903  12.464   7.880   7.566
  669SOL    HW1 3904  12.533   7.946   7.571
  669SOL    HW2 3905  12.467   7.848   7.476
  670SOL     OW 3906   2.455  12.833  13.067
  670SOL    HW1 3907   2.522  12.807  13.130
  670SOL    HW2 3908   2.424  12.750  13.029
  671SOL     OW 3909  11.368   0.972  10.800
  671SOL    HW1 3910  11.390   0.989  10.892
  671SOL    HW2 3911  11.286   1.020  10.787
  672SOL     OW 3912  12.145   7.445   0.345
  672SOL    HW1 3913  12.169   7.505   0.416
  672SOL    HW2 3914  12.105   7.370   0.389
  673SOL     OW 3915   6.812   7.701  11.273
  673SOL    HW1 3916   6.840   7.628  11.329
  673SOL    HW2 3917   6.894   7.741  11.244
  674SOL     OW 3918  12.121  10.372   2.120
  674SOL    HW1 3919  12.178  10.296   2.112
  674SOL    HW2 3920  12.044  10.340   2.166
  675SOL     OW 3921  10.436   9.341   2.665
  675SOL    HW1 3922  10.451   9.261   2.613
  675SOL    HW2 3923  10.367   9.317   2.726
  676SOL     OW 3924   7.746   6.693   8.633
  676SOL    HW1 3925   7.791   6.609   8.637
  676SOL    HW2 3926   7.771   6.739   8.713
  677SOL     OW 3927   5.411   4.830  10.915
  677SOL    HW1 3928   5.499   4.848  10.881
  677SOL    HW2 3929   5.359   4.807  10.838
  678SOL     OW 3930   7.522  14.025   5.474
  678SOL    HW1 3931   7.530  13.999   5.565
  678SOL    HW2 3932   7.593  13.979   5.429
  679SOL     OW 3933   5.374   8.307  13.227
  679SOL    HW1 3934   5.327   8.351  13.298
  679SOL    HW2 3935   5.435   8.372  13.194
  680SOL     OW 3936   0.224  10.364   7.704
  680SOL    HW1 3937   0.274  10.317   7.770
  680SOL    HW2 3938   0.256  10.454   7.710
  681SOL     OW 3939   9.703  13.077   0.426
  681SOL    HW1 3940   9.762  13.078   0.501
  681SOL    HW2 3941   9.737  13.146   0.368
  682SOL     OW 3942   2.691  10.670  13.489
  682SOL    HW1 3943   2.607  10.672  13.535
  682SOL    HW2 3944   2.731  10.587  13.516
  683SOL     OW 3945   6.325   3.816  11.774
  683SOL    HW1 3946   6.282   3.751  11.718
  683SOL    HW2 3947   6.380   3.764  11.833
  684SOL     OW 3948   1.741  13.818  14.423
  684SOL    HW1 3949   1.831  13.835  14.453
  684SOL    HW2 3950   1.734  13.867  14.342
  685SOL     OW 3951   8.746   3.966  14.442
  685SOL    HW1 3952   8.785   4.021  14.375
  685SOL    HW2 3953   8.755   4.016  14.523
  686SOL     OW 3954  14.021  11.276   9.847
  686SOL    HW1 3955  13.941  11.228   9.871
  686SOL    HW2 3956  14.068  11.287   9.930
  687SOL     OW 3957   4.240   7.828  12.009
  687SOL    HW1 3958   4.187   7.898  11.970
  687SOL    HW2 3959   4.176   7.761  12.034
  688SOL     OW 3960   1.724   6.888   8.145
  688SOL    HW1 3961   1.678   6.806   8.125
  688SOL    HW2 3962   1.747   6.881   8.237
  689SOL     OW 3963   7.074   0.183  13.562
  689SOL    HW1 3964   6.979   0.170  13.556
  689SOL    HW2 3965   7.090   0.205  13.653
  690SOL     OW 3966   1.536   2.396  12.378
  690SOL    HW1 3967   1.613   2.339  12.372
  690SOL    HW2 3968   1.566   2.472  12.428
  691SOL     OW 3969   9.059   2.441   3.765
  691SOL    HW1 3970   8.982   2.384   3.775
  691SOL    HW2 3971   9.036   2.499   3.693
  692SOL     OW 3972   5.405   0.179   1.611
  692SOL    HW1 3973   5.464   0.107   1.633
  692SOL    HW2 3974   5.410   0.187   1.516
  693SOL     OW 3975  13.061  13.844  12.264
  693SOL    HW1 3976  13.137  13.887  12.225
  693SOL    HW2 3977  13.026  13.789  12.194
  694SOL     OW 3978  13.434   5.375  13.920
  694SOL    HW1 3979  13.418   5.285  13.891
  694SOL    HW2 3980  13.476   5.417  13.845
  695SOL     OW 3981   5.136   7.325   5.993
  695SOL    HW1 3982   5.196   7.277   6.049
  695SOL    HW2 3983   5.086   7.381   6.052
  696SOL     OW 3984  10.823  10.074  12.498
  696SOL    HW1 3985  10.745  10.081  12.443
  696SOL    HW2 3986  10.891  10.119  12.449
  697SOL     OW 3987   3.050   5.929  13.914
  697SOL    HW1 3988   3.047   5.833  13.914
  697SOL    HW2 3989   3.124   5.951  13.971
  698SOL     OW 3990   4.997  12.751   1.655
  698SOL    HW1 3991   4.911  12.793   1.651
  698SOL    HW2 3992   5.015  12.741   1.748
  699SOL     OW 3993  14.775   8.239   4.694
  699SOL    HW1 3994  14.855   8.191   4.716
  699SOL    HW2 3995  14.708   8.201   4.752
  700SOL     OW 3996  10.167  11.998  12.503
  700SOL    HW1 3997  10.117  11.966  12.579
  700SOL    HW2 3998  10.113  11.975  12.428
  701SOL     OW 3999  14.756   1.934  10.532
  701SOL    HW1 4000  14.831   1.990  10.512
  701SOL    HW2 4001  14.779   1.894  10.616
  702SOL     OW 4002   0.198  14.702  13.869
  702SOL    HW1 4003   0.109  14.720  13.838
  702SOL    HW2 4004   0.232  14.787  13.897
  703SOL     OW 4005  14.838  10.436   2.799
  703SOL    HW1 4006   0.045  10.471   2.780
  703SOL    HW2 4007  14.781  10.475   2.732
  704SOL     OW 4008   4.825   2.340   8.506
  704SOL    HW1 4009   4.844   2.416   8.451
  704SOL    HW2 4010   4.746   2.365   8.554
  705SOL     OW 4011   6.919   1.287   7.101
  705SOL    HW1 4012   6.994   1.228   7.093
  705SOL    HW2 4013   6.878   1.285   7.015
  706SOL     OW 4014   3.201   1.036   0.698
  706SOL    HW1 4015   3.201   1.100   0.769
  706SOL    HW2 4016   3.121   1.056   0.648
  707SOL     OW 4017   0.976   1.144  13.558
  707SOL    HW1 4018   0.895   1.094  13.565
  707SOL    HW2 4019   0.947   1.235  13.552
  708SOL     OW 4020   4.517   2.600  14.823
  708SOL    HW1 4021   4.490   2.672  14.765
  708SOL    HW2 4022   4.605   2.576  14.792
  709SOL     OW 4023   0.427   4.858   7.563
  709SOL    HW1 4024   0.400   4.879   7.652
  709SOL    HW2 4025   0.511   4.814   7.572
  710SOL     OW 4026   4.624   1.397   2.879
  710SOL    HW1 4027   4.602   1.387   2.786
  710SOL    HW2 4028   4.676   1.319   2.900
  711SOL     OW 4029  12.529  12.999   6.011
  711SOL    HW1 4030  12.613  12.954   6.007
  711SOL    HW2 4031  12.538  13.062   6.082
  712SOL     OW 4032  13.659  13.393   2.628
  712SOL    HW1 4033  13.586  13.427   2.679
  712SOL    HW2 4034  13.620  13.368   2.544
  713SOL     OW 4035   1.575  10.803  12.456
  713SOL    HW1 4036   1.547  10.871  12.518
  713SOL    HW2 4037   1.651  10.841  12.412
  714SOL     OW 4038   7.223  11.228  11.268
  714SOL    HW1 4039   7.272  11.164  11.320
  714SOL    HW2 4040   7.138  11.235  11.311
  715SOL     OW 4041   9.506   6.955   4.574
  715SOL    HW1 4042   9.467   7.032   4.534
  715SOL    HW2 4043   9.462   6.881   4.531
  716SOL     OW 4044   5.894  10.274   3.814
  716SOL    HW1 4045   5.888  10.194   3.867
  716SOL    HW2 4046   5.926  10.244   3.729
  717SOL     OW 4047   6.108  14.086   7.967
  717SOL    HW1 4048   6.066  14.065   8.050
  717SOL    HW2 4049   6.198  14.055   7.977
  718SOL     OW 4050  14.713  14.280   1.716
  718SOL    HW1 4051  14.696  14.344   1.785
  718SOL    HW2 4052  14.675  14.320   1.637
  719SOL     OW 4053   4.410  10.264  12.867
  719SOL    HW1 4054   4.415  10.170  12.849
  719SOL    HW2 4055   4.470  10.303  12.803
  720SOL     OW 4056   6.522   7.337   7.598
  720SOL    HW1 4057   6.558   7.425   7.587
  720SOL    HW2 4058   6.556   7.309   7.684
  721SOL     OW 4059  12.540   2.120   4.312
  721SOL    HW1 4060  12.546   2.038   4.265
  721SOL    HW2 4061  12.630   2.141   4.335
  722SOL     OW 4062  11.768  10.395  14.097
  722SOL    HW1 4063  11.734  10.485  14.102
  722SOL    HW2 4064  11.835  10.400  14.028
  723SOL     OW 4065   1.016   4.261   0.557
  723SOL    HW1 4066   1.054   4.194   0.615
  723SOL    HW2 4067   1.043   4.235   0.469
  724SOL     OW 4068  13.444   4.679  14.598
  724SOL    HW1 4069  13.399   4.673  14.514
  724SOL    HW2 4070  13.517   4.739  14.582
  725SOL     OW 4071  14.655  14.146  14.870
  725SOL    HW1 4072  14.602  14.179  14.798
  725SOL    HW2 4073  14.743  14.180  14.854
  726SOL     OW 4074   0.024  11.508  14.201
  726SOL    HW1 4075   0.026  11.451  14.278
  726SOL    HW2 4076  14.814  11.500  14.168
  727SOL     OW 4077   9.358   2.035  12.486
  727SOL    HW1 4078   9.339   2.087  12.564
  727SOL    HW2 4079   9.273   2.015  12.449
  728SOL     OW 4080  10.539  13.840   6.702
  728SOL    HW1 4081  10.589  13.771   6.659
  728SOL    HW2 4082  10.593  13.919   6.693
  729SOL     OW 4083  13.756   5.738  11.697
  729SOL    HW1 4084  13.742   5.644  11.695
  729SOL    HW2 4085  13.842   5.749  11.737
  730SOL     OW 4086   1.158  13.671  10.468
  730SOL    HW1 4087   1.164  13.583  10.505
  730SOL    HW2 4088   1.065  13.682  10.447
  731SOL     OW 4089   3.394   0.127  11.989
  731SOL    HW1 4090   3.478   0.167  12.012
  731SOL    HW2 4091   3.417   0.039  11.957
  732SOL     OW 4092   8.167  14.398  11.591
  732SOL    HW1 4093   8.173  14.492  11.609
  732SOL    HW2 4094   8.252  14.363  11.619
  733SOL     OW 4095   6.794   0.440   0.044
  733SOL    HW1 4096   6.889   0.438   0.048
  733SOL    HW2 4097   6.773   0.426  14.831
  734SOL     OW 4098  14.050   8.812  14.221
  734SOL    HW1 4099  14.109   8.833  14.293
  734SOL    HW2 4100  14.029   8.720  14.233
  735SOL     OW 4101  13.152  12.473   6.726
  735SOL    HW1 4102  13.208  12.436   6.658
  735SOL    HW2 4103  13.205  12.471   6.805
  736SOL     OW 4104   6.040  14.262  11.855
  736SOL    HW1 4105   6.045  14.219  11.769
  736SOL    HW2 4106   6.076  14.350  11.839
  737SOL     OW 4107   2.182   2.658  12.426
  737SOL    HW1 4108   2.112   2.691  12.369
  737SOL    HW2 4109   2.167   2.563  12.430
  738SOL     OW 4110  10.904  12.422  14.163
  738SOL    HW1 4111  10.904  12.386  14.074
  738SOL    HW2 4112  10.991  12.461  14.172
  739SOL     OW 4113   9.774  10.049   0.450
  739SOL    HW1 4114   9.709   9.990   0.411
  739SOL    HW2 4115   9.761  10.132   0.404
  740SOL     OW 4116  14.279   8.381   7.989
  740SOL    HW1 4117  14.255   8.329   7.912
  740SOL    HW2 4118  14.196   8.404   8.030
  741SOL     OW 4119   2.691   4.854   7.999
  741SOL    HW1 4120   2.720   4.813   8.081
  741SOL    HW2 4121   2.728   4.943   8.003
  742SOL     OW 4122   1.579   9.370   4.481
  742SOL    HW1 4123   1.632   9.295   4.506
  742SOL    HW2 4124   1.603   9.386   4.389
  743SOL     OW 4125   6.578  14.333   8.434
  743SOL    HW1 4126   6.564  14.344   8.528
  743SOL    HW2 4127   6.495  14.360   8.394
  744SOL     OW 4128   0.885   9.671   6.433
  744SOL    HW1 4129   0.921   9.588   6.403
  744SOL    HW2 4130   0.906   9.733   6.363
  745SOL     OW 4131  14.433  14.081   4.786
  745SOL    HW1 4132  14.448  14.006   4.727
  745SOL    HW2 4133  14.405  14.152   4.728
  746SOL     OW 4134   6.151   1.293   9.424
  746SOL    HW1 4135   6.110   1.360   9.370
  746SOL    HW2 4136   6.232   1.334   9.455
  747SOL     OW 4137   3.277   9.461   1.376
  747SOL    HW1 4138   3.328   9.400   1.429
  747SOL    HW2 4139   3.259   9.413   1.295
  748SOL     OW 4140   5.306   2.065   8.999
  748SOL    HW1 4141   5.242   2.078   9.068
  748SOL    HW2 4142   5.389   2.052   9.045
  749SOL     OW 4143  11.831   4.056   7.893
  749SOL    HW1 4144  11.854   4.141   7.930
  749SOL    HW2 4145  11.913   4.006   7.895
  750SOL     OW 4146  12.563   7.023  12.613
  750SOL    HW1 4147  12.604   7.070  12.686
  750SOL    HW2 4148  12.504   6.960  12.655
  751SOL     OW 4149   6.535  10.757   8.429
  751SOL    HW1 4150   6.498  10.839   8.462
  751SOL    HW2 4151   6.529  10.696   8.503
  752SOL     OW 4152  11.666  11.337   0.542
  752SOL    HW1 4153  11.745  11.357   0.594
  752SOL    HW2 4154  11.695  11.270   0.480
  753SOL     OW 4155  14.817   7.446   7.981
  753SOL    HW1 4156  14.805   7.367   8.034
  753SOL    HW2 4157   0.016   7.430   7.930
  754SOL     OW 4158   0.603   6.454   0.814
  754SOL    HW1 4159   0.550   6.389   0.861
  754SOL    HW2 4160   0.689   6.448   0.854
  755SOL     OW 4161   5.369  13.320   5.749
  755SOL    HW1 4162   5.360  13.232   5.714
  755SOL    HW2 4163   5.458  13.346   5.726
  756SOL     OW 4164  12.274   0.052  10.105
  756SOL    HW1 4165  12.179   0.061  10.098
  756SOL    HW2 4166  12.309   0.108  10.036
  757SOL     OW 4167   0.370   9.145   8.899
  757SOL    HW1 4168   0.398   9.196   8.823
  757SOL    HW2 4169   0.275   9.150   8.898
  758SOL     OW 4170   2.582   2.702   3.971
  758SOL    HW1 4171   2.652   2.660   4.020
  758SOL    HW2 4172   2.568   2.786   4.015
  759SOL     OW 4173   2.001  10.952   0.791
  759SOL    HW1 4174   2.047  10.872   0.765
  759SOL    HW2 4175   2.068  11.005   0.834
  760SOL     OW 4176   7.236   0.005  14.385
  760SOL    HW1 4177   7.323   0.002  14.346
  760SOL    HW2 4178   7.177  14.868  14.311
  761SOL     OW 4179   0.797  10.307   3.911
  761SOL    HW1 4180   0.721  10.254   3.888
  761SOL    HW2 4181   0.826  10.345   3.828
  762SOL     OW 4182  13.531  12.455  10.074
  762SOL    HW1 4183  13.488  12.384  10.122
  762SOL    HW2 4184  13.624  12.445  10.095
  763SOL     OW 4185  10.454   3.530   0.757
  763SOL    HW1 4186  10.390   3.599   0.739
  763SOL    HW2 4187  10.401   3.451   0.769
  764SOL     OW 4188   3.273   7.082  13.934
  764SOL    HW1 4189   3.350   7.121  13.892
  764SOL    HW2 4190   3.304   6.999  13.969
  765SOL     OW 4191   6.716  11.290   2.253
  765SOL    HW1 4192   6.772  11.338   2.192
  765SOL    HW2 4193   6.776  11.234   2.302
  766SOL     OW 4194  10.048   7.212   0.037
  766SOL    HW1 4195  10.142   7.196   0.049
  766SOL    HW2 4196  10.012   7.211   0.126
  767SOL     OW 4197   7.792   8.909  13.904
  767SOL    HW1 4198   7.723   8.975  13.899
  767SOL    HW2 4199   7.789   8.877  13.994
  768SOL     OW 4200   3.187   7.350   9.410
  768SOL    HW1 4201   3.227   7.434   9.433
  768SOL    HW2 4202   3.244   7.315   9.341
  769SOL     OW 4203   2.529  11.055  11.989
  769SOL    HW1 4204   2.568  11.111  12.056
  769SOL    HW2 4205   2.544  11.101  11.907
  770SOL     OW 4206   1.080   9.886   1.916
  770SOL    HW1 4207   1.136   9.843   1.851
  770SOL    HW2 4208   0.991   9.874   1.883
  771SOL     OW 4209   3.154   7.636  10.863
  771SOL    HW1 4210   3.101   7.561  10.892
  771SOL    HW2 4211   3.168   7.688  10.943
  772SOL     OW 4212  13.787   6.613  14.430
  772SOL    HW1 4213  13.703   6.611  14.386
  772SOL    HW2 4214  13.791   6.700  14.471
  773SOL     OW 4215   5.739  12.942   0.677
  773SOL    HW1 4216   5.664  12.925   0.734
  773SOL    HW2 4217   5.712  13.015   0.623
  774SOL     OW 4218   5.973  10.017   1.683
  774SOL    HW1 4219   6.048   9.963   1.658
  774SOL    HW2 4220   6.012  10.091   1.730
  775SOL     OW 4221   6.563  10.745  13.046
  775SOL    HW1 4222   6.651  10.782  13.044
  775SOL    HW2 4223   6.506  10.816  13.016
  776SOL     OW 4224  10.933  10.028  13.036
  776SOL    HW1 4225  10.895   9.990  13.116
  776SOL    HW2 4226  10.977  10.108  13.066
  777SOL     OW 4227   1.800   1.395   3.819
  777SOL    HW1 4228   1.833   1.470   3.869
  777SOL    HW2 4229   1.872   1.331   3.822
  778SOL     OW 4230   7.505   5.566  14.025
  778SOL    HW1 4231   7.498   5.591  13.933
  778SOL    HW2 4232   7.483   5.646  14.074
  779SOL     OW 4233   9.582  10.957   0.573
  779SOL    HW1 4234   9.488  10.971   0.564
  779SOL    HW2 4235   9.590  10.884   0.634
  780SOL     OW 4236  12.040  11.416  13.973
  780SOL    HW1 4237  11.999  11.347  14.026
  780SOL    HW2 4238  12.081  11.474  14.036
  781SOL     OW 4239  11.935   6.049  14.534
  781SOL    HW1 4240  11.899   6.092  14.612
  781SOL    HW2 4241  11.965   6.122  14.479
  782SOL     OW 4242  12.004   2.027   5.601
  782SOL    HW1 4243  11.912   1.999   5.600
  782SOL    HW2 4244  12.019   2.056   5.691
  783SOL     OW 4245   8.081  11.110  12.276
  783SOL    HW1 4246   8.000  11.091  12.230
  783SOL    HW2 4247   8.149  11.104  12.209
  784SOL     OW 4248   9.608   2.858  14.603
  784SOL    HW1 4249   9.698   2.831  14.586
  784SOL    HW2 4250   9.611   2.953  14.604
  785SOL     OW 4251   6.362   8.823   8.588
  785SOL    HW1 4252   6.320   8.790   8.668
  785SOL    HW2 4253   6.296   8.880   8.548
  786SOL     OW 4254   5.234   5.486  11.750
  786SOL    HW1 4255   5.210   5.507  11.660
  786SOL    HW2 4256   5.265   5.570  11.786
  787SOL     OW 4257   0.341   9.600   2.536
  787SOL    HW1 4258   0.273   9.659   2.569
  787SOL    HW2 4259   0.422   9.649   2.543
  788SOL     OW 4260   4.131   3.655  12.666
  788SOL    HW1 4261   4.147   3.719  12.735
  788SOL    HW2 4262   4.151   3.702  12.585
  789SOL     OW 4263   7.294  13.718  13.002
  789SOL    HW1 4264   7.216  13.753  13.043
  789SOL    HW2 4265   7.284  13.623  13.007
  790SOL     OW 4266   7.971   0.934   6.209
  790SOL    HW1 4267   7.910   0.946   6.136
  790SOL    HW2 4268   8.002   1.022   6.230
  791SOL     OW 4269  12.701   2.395  10.277
  791SOL    HW1 4270  12.686   2.489  10.276
  791SOL    HW2 4271  12.724   2.375  10.368
  792SOL     OW 4272   4.873   5.086   9.652
  792SOL    HW1 4273   4.969   5.092   9.651
  792SOL    HW2 4274   4.844   5.148   9.585
  793SOL     OW 4275  11.590   0.192   0.319
  793SOL    HW1 4276  11.577   0.111   0.270
  793SOL    HW2 4277  11.666   0.233   0.278
  794SOL     OW 4278   2.973   2.279   3.554
  794SOL    HW1 4279   3.045   2.282   3.616
  794SOL    HW2 4280   2.897   2.255   3.607
  795SOL     OW 4281   8.304   3.411  11.041
  795SOL    HW1 4282   8.235   3.461  11.085
  795SOL    HW2 4283   8.371   3.476  11.018
  796SOL     OW 4284  10.054   2.537   5.477
  796SOL    HW1 4285  10.095   2.482   5.409
  796SOL    HW2 4286  10.114   2.611   5.486
  797SOL     OW 4287   9.097   0.703   7.241
  797SOL    HW1 4288   9.141   0.787   7.255
  797SOL    HW2 4289   9.039   0.718   7.166
  798SOL     OW 4290   6.046  12.683   1.450
  798SOL    HW1 4291   6.141  12.676   1.445
  798SOL    HW2 4292   6.014  12.624   1.381
  799SOL     OW 4293  11.264   4.953   5.858
  799SOL    HW1 4294  11.256   5.048   5.848
  799SOL    HW2 4295  11.324   4.926   5.788
  800SOL     OW 4296   3.697   8.160   3.265
  800SOL    HW1 4297   3.629   8.099   3.236
  800SOL    HW2 4298   3.770   8.103   3.290
  801SOL     OW 4299   4.953   2.700  12.083
  801SOL    HW1 4300   4.899   2.645  12.141
  801SOL    HW2 4301   5.014   2.638  12.042
  802SOL     OW 4302   1.172  13.038   3.765
  802SOL    HW1 4303   1.182  12.943   3.773
  802SOL    HW2 4304   1.261  13.070   3.747
  803SOL     OW 4305   0.586  10.292   7.326
  803SOL    HW1 4306   0.491  10.279   7.337
  803SOL    HW2 4307   0.625  10.229   7.386
  804SOL     OW 4308  12.470   6.038  10.553
  804SOL    HW1 4309  12.534   6.014  10.487
  804SOL    HW2 4310  12.402   6.086  10.505
  805SOL     OW 4311   0.243   0.590   2.404
  805SOL    HW1 4312   0.290   0.673   2.403
  805SOL    HW2 4313   0.260   0.552   2.318
  806SOL     OW 4314   3.951   5.941  13.091
  806SOL    HW1 4315   3.959   6.022  13.039
  806SOL    HW2 4316   3.858   5.936  13.112
  807SOL     OW 4317   0.290   3.213  11.308
  807SOL    HW1 4318   0.195   3.227  11.308
  807SOL    HW2 4319   0.306   3.160  11.230
  808SOL     OW 4320   9.330  14.862   6.370
  808SOL    HW1 4321   9.369  14.775   6.362
  808SOL    HW2 4322   9.275  14.857   6.448
  809SOL     OW 4323   4.313  10.426   4.207
  809SOL    HW1 4324   4.343  10.449   4.295
  809SOL    HW2 4325   4.349  10.494   4.150
  810SOL     OW 4326   5.456   3.026  10.789
  810SOL    HW1 4327   5.448   3.112  10.748
  810SOL    HW2 4328   5.527   3.036  10.852
  811SOL     OW 4329  12.710   9.194   6.495
  811SOL    HW1 4330  12.759   9.242   6.428
  811SOL    HW2 4331  12.653   9.260   6.535
  812SOL     OW 4332  13.848   2.582   4.044
  812SOL    HW1 4333  13.905   2.548   4.112
  812SOL    HW2 4334  13.834   2.674   4.068
  813SOL     OW 4335  14.178   3.974   2.368
  813SOL    HW1 4336  14.096   4.021   2.355
  813SOL    HW2 4337  14.151   3.891   2.407
  814SOL     OW 4338   1.759  11.241  13.116
  814SOL    HW1 4339   1.725  11.319  13.072
  814SOL    HW2 4340   1.825  11.206  13.056
  815SOL     OW 4341  12.607   1.136   7.469
  815SOL    HW1 4342  12.678   1.186   7.428
  815SOL    HW2 4343  12.529   1.159   7.419
  816SOL     OW 4344   2.553  13.501   5.305
  816SOL    HW1 4345   2.526  13.476   5.393
  816SOL    HW2 4346   2.478  13.549   5.270
  817SOL     OW 4347  14.294   7.994   4.982
  817SOL    HW1 4348  14.276   7.900   4.986
  817SOL    HW2 4349  14.234   8.027   4.916
  818SOL     OW 4350  12.938   0.199  12.972
  818SOL    HW1 4351  12.924   0.212  12.878
  818SOL    HW2 4352  12.870   0.137  12.998
  819SOL     OW 4353   9.479   9.895   3.693
  819SOL    HW1 4354   9.461   9.952   3.619
  819SOL    HW2 4355   9.511   9.814   3.654
  820SOL     OW 4356  12.788  10.953  14.323
  820SOL    HW1 4357  12.693  10.938  14.332
  820SOL    HW2 4358  12.813  10.994  14.406
  821SOL     OW 4359  12.317   5.063   2.943
  821SOL    HW1 4360  12.365   4.985   2.968
  821SOL    HW2 4361  12.240   5.031   2.896
  822SOL     OW 4362  11.250   4.927   3.347
  822SOL    HW1 4363  11.329   4.972   3.316
  822SOL    HW2 4364  11.267   4.834   3.330
  823SOL     OW 4365   4.966   5.731   3.993
  823SOL    HW1 4366   4.926   5.713   4.078
  823SOL    HW2 4367   5.030   5.800   4.011
  824SOL     OW 4368  10.014   4.301   6.842
  824SOL    HW1 4369  10.021   4.228   6.904
  824SOL    HW2 4370   9.920   4.311   6.827
  825SOL     OW 4371   1.491  13.868   0.444
  825SOL    HW1 4372   1.477  13.776   0.421
  825SOL    HW2 4373   1.418  13.888   0.504
  826SOL     OW 4374   3.800  11.341   1.207
  826SOL    HW1 4375   3.719  11.313   1.249
  826SOL    HW2 4376   3.821  11.270   1.146
  827SOL     OW 4377   2.882   7.231   6.573
  827SOL    HW1 4378   2.853   7.219   6.483
  827SOL    HW2 4379   2.815   7.188   6.626
  828SOL     OW 4380  11.260   0.450   3.239
  828SOL    HW1 4381  11.277   0.413   3.326
  828SOL    HW2 4382  11.285   0.542   3.247
  829SOL     OW 4383   7.240  12.241  11.285
  829SOL    HW1 4384   7.200  12.295  11.352
  829SOL    HW2 4385   7.182  12.251  11.209
  830SOL     OW 4386  13.359   3.240  12.944
  830SOL    HW1 4387  13.317   3.179  12.883
  830SOL    HW2 4388  13.448   3.205  12.955
  831SOL     OW 4389   0.365   3.115  10.400
  831SOL    HW1 4390   0.406   3.091  10.317
  831SOL    HW2 4391   0.431   3.096  10.466
  832SOL     OW 4392  12.112   5.606  10.589
  832SOL    HW1 4393  12.201   5.637  10.575
  832SOL    HW2 4394  12.057   5.683  10.574
  833SOL     OW 4395   2.605   1.644  12.680
  833SOL    HW1 4396   2.681   1.630  12.624
  833SOL    HW2 4397   2.562   1.559  12.684
  834SOL     OW 4398  11.783   8.613   0.254
  834SOL    HW1 4399  11.845   8.582   0.320
  834SOL    HW2 4400  11.727   8.676   0.301
  835SOL     OW 4401  13.579  13.931  11.536
  835SOL    HW1 4402  13.527  13.987  11.594
  835SOL    HW2 4403  13.640  13.990  11.494
  836SOL     OW 4404  11.906   8.155   3.899
  836SOL    HW1 4405  11.882   8.168   3.808
  836SOL    HW2 4406  11.954   8.072   3.900
  837SOL     OW 4407  12.387   4.129  12.864
  837SOL    HW1 4408  12.385   4.039  12.830
  837SOL    HW2 4409  12.419   4.182  12.791
  838SOL     OW 4410   5.245   1.473   7.435
  838SOL    HW1 4411   5.154   1.497   7.448
  838SOL    HW2 4412   5.251   1.444   7.344
  839SOL     OW 4413   2.232   7.777   6.676
  839SOL    HW1 4414   2.186   7.816   6.602
  839SOL    HW2 4415   2.310   7.832   6.687
  840SOL     OW 4416   3.818   0.475   6.422
  840SOL    HW1 4417   3.890   0.471   6.484
  840SOL    HW2 4418   3.845   0.420   6.349
  841SOL     OW 4419   8.973  11.667   9.598
  841SOL    HW1 4420   8.880  11.644   9.591
  841SOL    HW2 4421   9.017  11.584   9.612
  842SOL     OW 4422  13.142   9.088   5.789
  842SOL    HW1 4423  13.158   9.027   5.717
  842SOL    HW2 4424  13.216   9.075   5.849
  843SOL     OW 4425   5.634   5.403   6.831
  843SOL    HW1 4426   5.580   5.472   6.871
  843SOL    HW2 4427   5.718   5.445   6.815
  844SOL     OW 4428   0.510   2.356   6.553
  844SOL    HW1 4429   0.417   2.334   6.543
  844SOL    HW2 4430   0.519   2.441   6.510
  845SOL     OW 4431   5.683   3.354  12.971
  845SOL    HW1 4432   5.617   3.385  12.909
  845SOL    HW2 4433   5.764   3.399  12.944
  846SOL     OW 4434   9.738   5.207   1.431
  846SOL    HW1 4435   9.758   5.298   1.449
  846SOL    HW2 4436   9.764   5.193   1.340
  847SOL     OW 4437   9.470   6.882   0.612
  847SOL    HW1 4438   9.526   6.937   0.666
  847SOL    HW2 4439   9.531   6.837   0.553
  848SOL     OW 4440  14.624  14.404   0.900
  848SOL    HW1 4441  14.671  14.465   0.844
  848SOL    HW2 4442  14.608  14.452   0.981
  849SOL     OW 4443  14.448  11.615   7.864
  849SOL    HW1 4444  14.382  11.646   7.925
  849SOL    HW2 4445  14.462  11.523   7.888
  850SOL     OW 4446  13.290   9.997   6.995
  850SOL    HW1 4447  13.295   9.902   7.004
  850SOL    HW2 4448  13.237  10.012   6.916
  851SOL     OW 4449   8.220  11.429   1.736
  851SOL    HW1 4450   8.183  11.465   1.817
  851SOL    HW2 4451   8.233  11.506   1.681
  852SOL     OW 4452  14.151  13.633   1.166
  852SOL    HW1 4453  14.217  13.681   1.117
  852SOL    HW2 4454  14.195  13.554   1.196
  853SOL     OW 4455  14.364   2.776  13.698
  853SOL    HW1 4456  14.456   2.755  13.714
  853SOL    HW2 4457  14.329   2.697  13.656
  854SOL     OW 4458  12.906  10.714  11.938
  854SOL    HW1 4459  12.896  10.676  11.850
  854SOL    HW2 4460  12.844  10.787  11.939
  855SOL     OW 4461   5.813   7.049   9.279
  855SOL    HW1 4462   5.846   6.992   9.209
  855SOL    HW2 4463   5.766   6.990   9.338
  856SOL     OW 4464  13.648   9.976   3.589
  856SOL    HW1 4465  13.576  10.029   3.555
  856SOL    HW2 4466  13.605   9.910   3.644
  857SOL     OW 4467   8.995   4.193   9.680
  857SOL    HW1 4468   8.974   4.276   9.722
  857SOL    HW2 4469   8.946   4.128   9.729
  858SOL     OW 4470   2.425   9.324   7.307
  858SOL    HW1 4471   2.357   9.379   7.346
  858SOL    HW2 4472   2.494   9.385   7.282
  859SOL     OW 4473   0.537  11.092   9.251
  859SOL    HW1 4474   0.469  11.159   9.245
  859SOL    HW2 4475   0.512  11.026   9.186
  860SOL     OW 4476  14.118   1.329  10.397
  860SOL    HW1 4477  14.087   1.258  10.454
  860SOL    HW2 4478  14.141   1.400  10.457
  861SOL     OW 4479   3.955   6.855   8.584
  861SOL    HW1 4480   3.894   6.810   8.642
  861SOL    HW2 4481   3.903   6.878   8.507
  862SOL     OW 4482   0.379  10.873   0.080
  862SOL    HW1 4483   0.398  10.802   0.018
  862SOL    HW2 4484   0.312  10.837   0.138
  863SOL     OW 4485   2.861   7.088   0.840
  863SOL    HW1 4486   2.916   7.056   0.911
  863SOL    HW2 4487   2.875   7.182   0.839
  864SOL     OW 4488   9.432   4.909   7.676
  864SOL    HW1 4489   9.490   4.913   7.600
  864SOL    HW2 4490   9.477   4.962   7.742
  865SOL     OW 4491   7.790   2.390  10.842
  865SOL    HW1 4492   7.747   2.323  10.790
  865SOL    HW2 4493   7.729   2.464  10.841
  866SOL     OW 4494  11.512   8.251   7.999
  866SOL    HW1 4495  11.563   8.303   7.937
  866SOL    HW2 4496  11.444   8.311   8.030
  867SOL     OW 4497   7.690  14.841   5.062
  867SOL    HW1 4498   7.727  14.868   4.978
  867SOL    HW2 4499   7.606  14.802   5.040
  868SOL     OW 4500   8.894  12.201  13.380
  868SOL    HW1 4501   8.846  12.134  13.330
  868SOL    HW2 4502   8.986  12.176  13.371
  869SOL     OW 4503   3.491  11.495  11.145
  869SOL    HW1 4504   3.458  11.507  11.234
  869SOL    HW2 4505   3.413  11.482  11.092
  870SOL     OW 4506   5.862   9.315   1.359
  870SOL    HW1 4507   5.814   9.391   1.328
  870SOL    HW2 4508   5.826   9.297   1.446
  871SOL     OW 4509   8.798  13.366  13.835
  871SOL    HW1 4510   8.810  13.421  13.758
  871SOL    HW2 4511   8.810  13.277  13.804
  872SOL     OW 4512   7.484  10.096   0.400
  872SOL    HW1 4513   7.452  10.006   0.399
  872SOL    HW2 4514   7.443  10.138   0.324
  873SOL     OW 4515   4.683   1.746   4.484
  873SOL    HW1 4516   4.623   1.820   4.473
  873SOL    HW2 4517   4.753   1.781   4.538
  874SOL     OW 4518  13.209  12.515   5.155
  874SOL    HW1 4519  13.297  12.507   5.192
  874SOL    HW2 4520  13.214  12.469   5.071
  875SOL     OW 4521   3.587   3.650  13.424
  875SOL    HW1 4522   3.627   3.650  13.337
  875SOL    HW2 4523   3.642   3.708  13.476
  876SOL     OW 4524   2.167   4.950  10.262
  876SOL    HW1 4525   2.233   4.970  10.196
  876SOL    HW2 4526   2.201   4.988  10.342
  877SOL     OW 4527  12.324   0.086  12.762
  877SOL    HW1 4528  12.259   0.078  12.692
  877SOL    HW2 4529  12.272   0.100  12.841
  878SOL     OW 4530   7.496   7.385  10.639
  878SOL    HW1 4531   7.419   7.441  10.634
  878SOL    HW2 4532   7.464   7.299  10.610
  879SOL     OW 4533   6.571  12.486   9.101
  879SOL    HW1 4534   6.630  12.543   9.149
  879SOL    HW2 4535   6.625  12.449   9.031
  880SOL     OW 4536   9.657  13.315   6.297
  880SOL    HW1 4537   9.609  13.393   6.325
  880SOL    HW2 4538   9.748  13.332   6.322
  881SOL     OW 4539  10.445   2.680  12.125
  881SOL    HW1 4540  10.402   2.657  12.208
  881SOL    HW2 4541  10.394   2.753  12.091
  882SOL     OW 4542   4.353  11.709  10.481
  882SOL    HW1 4543   4.327  11.617  10.486
  882SOL    HW2 4544   4.410  11.714  10.404
  883SOL     OW 4545   0.094  12.425   5.170
  883SOL    HW1 4546   0.059  12.418   5.081
  883SOL    HW2 4547   0.163  12.359   5.174
  884SOL     OW 4548   8.446   0.593  10.167
  884SOL    HW1 4549   8.531   0.600  10.123
  884SOL    HW2 4550   8.398   0.671  10.140
  885SOL     OW 4551   1.446   3.437   2.187
  885SOL    HW1 4552   1.363   3.483   2.201
  885SOL    HW2 4553   1.500   3.462   2.262
  886SOL     OW 4554  13.505   3.892   3.462
  886SOL    HW1 4555  13.532   3.819   3.518
  886SOL    HW2 4556  13.483   3.962   3.524
  887SOL     OW 4557   9.571  12.505   6.382
  887SOL    HW1 4558   9.560  12.410   6.374
  887SOL    HW2 4559   9.665  12.519   6.371
  888SOL     OW 4560   4.878   0.538   5.634
  888SOL    HW1 4561   4.862   0.609   5.573
  888SOL    HW2 4562   4.816   0.470   5.608
  889SOL     OW 4563   5.529   4.923   0.984
  889SOL    HW1 4564   5.557   4.948   1.072
  889SOL    HW2 4565   5.611   4.913   0.935
  890SOL     OW 4566  12.844  11.532  10.132
  890SOL    HW1 4567  12.858  11.506  10.223
  890SOL    HW2 4568  12.824  11.450  10.086
  891SOL     OW 4569   6.858  14.574   8.851
  891SOL    HW1 4570   6.810  14.638   8.903
  891SOL    HW2 4571   6.849  14.492   8.900
  892SOL     OW 4572   8.138  13.826   2.130
  892SOL    HW1 4573   8.179  13.808   2.046
  892SOL    HW2 4574   8.091  13.909   2.117
  893SOL     OW 4575   4.529   7.965   8.792
  893SOL    HW1 4576   4.464   7.898   8.772
  893SOL    HW2 4577   4.613   7.925   8.769
  894SOL     OW 4578   0.693   1.144   0.453
  894SOL    HW1 4579   0.704   1.231   0.416
  894SOL    HW2 4580   0.645   1.095   0.386
  895SOL     OW 4581   8.073   3.919  10.674
  895SOL    HW1 4582   8.115   3.925  10.759
  895SOL    HW2 4583   8.048   3.827  10.667
  896SOL     OW 4584   7.404   8.569   8.653
  896SOL    HW1 4585   7.323   8.612   8.680
  896SOL    HW2 4586   7.416   8.499   8.717
  897SOL     OW 4587   9.800  14.379   6.267
  897SOL    HW1 4588   9.836  14.413   6.185
  897SOL    HW2 4589   9.706  14.373   6.251
  898SOL     OW 4590   3.325   1.420  12.439
  898SOL    HW1 4591   3.330   1.414  12.534
  898SOL    HW2 4592   3.376   1.498  12.417
  899SOL     OW 4593   8.045   7.629   0.532
  899SOL    HW1 4594   8.089   7.557   0.579
  899SOL    HW2 4595   7.971   7.652   0.589
  900SOL     OW 4596   4.053  10.818  14.096
  900SOL    HW1 4597   4.013  10.900  14.124
  900SOL    HW2 4598   4.145  10.839  14.083
  901SOL     OW 4599   8.261   2.548   0.596
  901SOL    HW1 4600   8.269   2.632   0.550
  901SOL    HW2 4601   8.198   2.565   0.666
  902SOL     OW 4602   8.737   7.309   3.861
  902SOL    HW1 4603   8.695   7.391   3.837
  902SOL    HW2 4604   8.788   7.329   3.939
  903SOL     OW 4605   7.556   1.683   1.964
  903SOL    HW1 4606   7.507   1.620   1.912
  903SOL    HW2 4607   7.523   1.768   1.936
  904SOL     OW 4608   8.667  10.341  12.841
  904SOL    HW1 4609   8.632  10.302  12.761
  904SOL    HW2 4610   8.762  10.343  12.827
  905SOL     OW 4611   8.386   4.742   8.207
  905SOL    HW1 4612   8.367   4.739   8.301
  905SOL    HW2 4613   8.455   4.808   8.199
  906SOL     OW 4614  14.019   8.825   8.216
  906SOL    HW1 4615  13.943   8.829   8.158
  906SOL    HW2 4616  13.982   8.804   8.302
  907SOL     OW 4617   0.388   6.511   3.928
  907SOL    HW1 4618   0.343   6.590   3.897
  907SOL    HW2 4619   0.470   6.544   3.965
  908SOL     OW 4620   3.619  10.969   3.634
  908SOL    HW1 4621   3.709  10.999   3.635
  908SOL    HW2 4622   3.580  11.003   3.714
  909SOL     OW 4623   6.344   1.378   4.276
  909SOL    HW1 4624   6.249   1.371   4.265
  909SOL    HW2 4625   6.362   1.333   4.359
  910SOL     OW 4626   1.751   4.155  11.675
  910SOL    HW1 4627   1.784   4.075  11.716
  910SOL    HW2 4628   1.679   4.184  11.732
  911SOL     OW 4629  12.256   8.310   5.572
  911SOL    HW1 4630  12.190   8.352   5.518
  911SOL    HW2 4631  12.214   8.231   5.606
  912SOL     OW 4632  14.014   6.109   0.512
  912SOL    HW1 4633  14.064   6.182   0.548
  912SOL    HW2 4634  13.949   6.089   0.580
  913SOL     OW 4635   5.157   5.141   0.035
  913SOL    HW1 4636   5.147   5.048   0.018
  913SOL    HW2 4637   5.233   5.167  14.862
  914SOL     OW 4638   4.054   1.275  11.341
  914SOL    HW1 4639   4.050   1.198  11.398
  914SOL    HW2 4640   4.070   1.239  11.254
  915SOL     OW 4641  13.960  14.879  10.568
  915SOL    HW1 4642  13.893   0.034  10.509
  915SOL    HW2 4643  14.022   0.071  10.577
  916SOL     OW 4644  11.810   1.415   7.687
  916SOL    HW1 4645  11.807   1.382   7.597
  916SOL    HW2 4646  11.781   1.506   7.680
  917SOL     OW 4647   7.984   8.415  10.001
  917SOL    HW1 4648   7.895   8.388   9.979
  917SOL    HW2 4649   8.000   8.377  10.088
  918SOL     OW 4650  12.911   8.793   8.889
  918SOL    HW1 4651  12.951   8.760   8.969
  918SOL    HW2 4652  12.898   8.886   8.906
  919SOL     OW 4653   2.665   8.608   0.944
  919SOL    HW1 4654   2.697   8.536   0.998
  919SOL    HW2 4655   2.722   8.607   0.867
  920SOL     OW 4656  10.264  11.645   5.579
  920SOL    HW1 4657  10.234  11.701   5.651
  920SOL    HW2 4658  10.342  11.602   5.612
  921SOL     OW 4659   8.542  13.937   4.632
  921SOL    HW1 4660   8.602  13.865   4.653
  921SOL    HW2 4661   8.525  13.980   4.715
  922SOL     OW 4662   5.416  11.044   2.013
  922SOL    HW1 4663   5.460  11.082   1.937
  922SOL    HW2 4664   5.349  10.987   1.976
  923SOL     OW 4665   3.683  13.933   8.663
  923SOL    HW1 4666   3.709  14.025   8.673
  923SOL    HW2 4667   3.667  13.903   8.753
  924SOL     OW 4668   4.508   0.640   7.860
  924SOL    HW1 4669   4.505   0.729   7.893
  924SOL    HW2 4670   4.418   0.620   7.834
  925SOL     OW 4671   9.736   6.604   7.545
  925SOL    HW1 4672   9.652   6.644   7.525
  925SOL    HW2 4673   9.717   6.544   7.617
  926SOL     OW 4674   2.835  10.358   2.263
  926SOL    HW1 4675   2.746  10.329   2.282
  926SOL    HW2 4676   2.824  10.449   2.232
  927SOL     OW 4677   0.517  12.028  10.377
  927SOL    HW1 4678   0.506  12.110  10.329
  927SOL    HW2 4679   0.428  11.999  10.395
  928SOL     OW 4680   6.519   2.165  13.953
  928SOL    HW1 4681   6.576   2.158  14.029
  928SOL    HW2 4682   6.430   2.159  13.989
  929SOL     OW 4683   9.352   6.949   2.562
  929SOL    HW1 4684   9.362   7.043   2.549
  929SOL    HW2 4685   9.278   6.924   2.507
  930SOL     OW 4686  12.256   7.131   0.947
  930SOL    HW1 4687  12.249   7.056   0.888
  930SOL    HW2 4688  12.247   7.093   1.035
  931SOL     OW 4689   2.192   1.312   9.208
  931SOL    HW1 4690   2.156   1.347   9.290
  931SOL    HW2 4691   2.193   1.386   9.148
  932SOL     OW 4692   2.027   2.000   7.130
  932SOL    HW1 4693   2.041   2.050   7.210
  932SOL    HW2 4694   2.051   2.060   7.059
  933SOL     OW 4695   3.256   0.298   4.933
  933SOL    HW1 4696   3.346   0.271   4.953
  933SOL    HW2 4697   3.211   0.296   5.017
  934SOL     OW 4698   2.630  10.644   0.107
  934SOL    HW1 4699   2.577  10.606   0.177
  934SOL    HW2 4700   2.675  10.570   0.068
  935SOL     OW 4701   1.038   7.734   1.082
  935SOL    HW1 4702   1.033   7.821   1.043
  935SOL    HW2 4703   1.119   7.697   1.048
  936SOL     OW 4704   4.446   7.232   9.326
  936SOL    HW1 4705   4.505   7.161   9.304
  936SOL    HW2 4706   4.397   7.249   9.246
  937SOL     OW 4707   2.730  11.164  12.183
  937SOL    HW1 4708   2.754  11.255  12.164
  937SOL    HW2 4709   2.813  11.118  12.193
  938SOL     OW 4710   6.456   7.907  10.691
  938SOL    HW1 4711   6.544   7.890  10.725
  938SOL    HW2 4712   6.405   7.832  10.718
  939SOL     OW 4713   4.361   6.405   9.555
  939SOL    HW1 4714   4.387   6.430   9.467
  939SOL    HW2 4715   4.437   6.358   9.590
  940SOL     OW 4716   1.408  12.635   0.783
  940SOL    HW1 4717   1.318  12.607   0.761
  940SOL    HW2 4718   1.418  12.613   0.876
  941SOL     OW 4719   7.364   7.500   7.611
  941SOL    HW1 4720   7.375   7.595   7.606
  941SOL    HW2 4721   7.447   7.465   7.577
  942SOL     OW 4722   8.527   3.272   6.124
  942SOL    HW1 4723   8.596   3.314   6.072
  942SOL    HW2 4724   8.561   3.185   6.143
  943SOL     OW 4725  13.031   2.010   6.334
  943SOL    HW1 4726  13.124   1.990   6.347
  943SOL    HW2 4727  12.989   1.924   6.329
  944SOL     OW 4728   8.912   4.538   0.066
  944SOL    HW1 4729   8.818   4.554   0.065
  944SOL    HW2 4730   8.924   4.469   0.131
  945SOL     OW 4731   2.790   0.461  13.728
  945SOL    HW1 4732   2.743   0.543  13.747
  945SOL    HW2 4733   2.756   0.433  13.643
  946SOL     OW 4734   5.080   2.747   0.804
  946SOL    HW1 4735   4.996   2.726   0.843
  946SOL    HW2 4736   5.062   2.819   0.744
  947SOL     OW 4737   5.727   0.679  12.692
  947SOL    HW1 4738   5.728   0.663  12.598
  947SOL    HW2 4739   5.638   0.655  12.719
  948SOL     OW 4740   9.361   0.445   2.116
  948SOL    HW1 4741   9.370   0.512   2.048
  948SOL    HW2 4742   9.451   0.422   2.139
  949SOL     OW 4743   2.339   1.463  13.816
  949SOL    HW1 4744   2.268   1.426  13.867
  949SOL    HW2 4745   2.404   1.490  13.881
  950SOL     OW 4746   1.081   8.723  12.395
  950SOL    HW1 4747   1.100   8.662  12.324
  950SOL    HW2 4748   1.022   8.674  12.453
  951SOL     OW 4749   0.561   7.514   5.092
  951SOL    HW1 4750   0.549   7.420   5.107
  951SOL    HW2 4751   0.497   7.556   5.149
  952SOL     OW 4752  14.284  12.548   0.846
  952SOL    HW1 4753  14.236  12.568   0.765
  952SOL    HW2 4754  14.372  12.582   0.830
  953SOL     OW 4755   7.336  13.078   1.345
  953SOL    HW1 4756   7.384  13.152   1.381
  953SOL    HW2 4757   7.254  13.116   1.312
  954SOL     OW 4758   8.096  11.026   8.179
  954SOL    HW1 4759   8.115  11.073   8.260
  954SOL    HW2 4760   8.001  11.018   8.177
  955SOL     OW 4761  12.376   0.916  14.614
  955SOL    HW1 4762  12.396   0.827  14.644
  955SOL    HW2 4763  12.395   0.971  14.690
  956SOL     OW 4764   3.221  13.788   0.159
  956SOL    HW1 4765   3.299  13.836   0.131
  956SOL    HW2 4766   3.229  13.702   0.118
  957SOL     OW 4767   9.773   6.361  11.228
  957SOL    HW1 4768   9.835   6.368  11.155
  957SOL    HW2 4769   9.799   6.280  11.273
  958SOL     OW 4770  11.253  12.252   2.476
  958SOL    HW1 4771  11.242  12.271   2.569
  958SOL    HW2 4772  11.327  12.307   2.449
  959SOL     OW 4773   0.728   1.117   3.847
  959SOL    HW1 4774   0.669   1.095   3.774
  959SOL    HW2 4775   0.816   1.101   3.813
  960SOL     OW 4776   5.001  14.298  12.138
  960SOL    HW1 4777   4.983  14.341  12.221
  960SOL    HW2 4778   5.088  14.260  12.148
  961SOL     OW 4779   4.892   7.899   9.590
  961SOL    HW1 4780   4.812   7.858   9.557
  961SOL    HW2 4781   4.948   7.908   9.513
  962SOL     OW 4782   9.849  10.292  10.190
  962SOL    HW1 4783   9.777  10.283  10.129
  962SOL    HW2 4784   9.927  10.293  10.135
  963SOL     OW 4785  10.960   1.753   5.223
  963SOL    HW1 4786  10.927   1.670   5.256
  963SOL    HW2 4787  10.992   1.799   5.300
  964SOL     OW 4788   5.063  14.661   9.323
  964SOL    HW1 4789   5.021  14.740   9.360
  964SOL    HW2 4790   5.064  14.599   9.396
  965SOL     OW 4791   4.918   4.767   0.191
  965SOL    HW1 4792   5.000   4.767   0.241
  965SOL    HW2 4793   4.927   4.694   0.129
  966SOL     OW 4794  12.777   9.950  11.591
  966SOL    HW1 4795  12.803   9.893  11.663
  966SOL    HW2 4796  12.857  10.000  11.570
  967SOL     OW 4797   4.148   3.578   0.495
  967SOL    HW1 4798   4.053   3.569   0.497
  967SOL    HW2 4799   4.170   3.629   0.573
  968SOL     OW 4800   0.513  10.350  12.131
  968SOL    HW1 4801   0.484  10.356  12.222
  968SOL    HW2 4802   0.432  10.336  12.082
  969SOL     OW 4803   5.447  11.493   2.203
  969SOL    HW1 4804   5.395  11.413   2.191
  969SOL    HW2 4805   5.401  11.541   2.271
  970SOL     OW 4806   6.505  14.831   1.273
  970SOL    HW1 4807   6.431  14.772   1.259
  970SOL    HW2 4808   6.471   0.038   1.249
  971SOL     OW 4809   2.701   3.560   0.213
  971SOL    HW1 4810   2.608   3.580   0.199
  971SOL    HW2 4811   2.704   3.465   0.220
  972SOL     OW 4812   1.801   5.918   5.928
  972SOL    HW1 4813   1.788   5.867   6.007
  972SOL    HW2 4814   1.741   5.880   5.864
  973SOL     OW 4815   3.651   3.189   1.752
  973SOL    HW1 4816   3.647   3.094   1.741
  973SOL    HW2 4817   3.585   3.208   1.818
  974SOL     OW 4818  13.261  11.770   7.253
  974SOL    HW1 4819  13.205  11.833   7.298
  974SOL    HW2 4820  13.337  11.759   7.311
  975SOL     OW 4821   4.667  13.649   0.402
  975SOL    HW1 4822   4.727  13.596   0.349
  975SOL    HW2 4823   4.583  13.604   0.395
  976SOL     OW 4824   7.870   3.647   0.264
  976SOL    HW1 4825   7.932   3.709   0.226
  976SOL    HW2 4826   7.916   3.611   0.340
  977SOL     OW 4827  14.449   1.455   8.505
  977SOL    HW1 4828  14.366   1.446   8.460
  977SOL    HW2 4829  14.493   1.529   8.462
  978SOL     OW 4830  14.390   7.072  12.085
  978SOL    HW1 4831  14.431   7.036  12.164
  978SOL    HW2 4832  14.311   7.115  12.117
  979SOL     OW 4833   4.429  13.806   7.724
  979SOL    HW1 4834   4.441  13.900   7.741
  979SOL    HW2 4835   4.335  13.791   7.740
  980SOL     OW 4836  14.542   8.756  10.551
  980SOL    HW1 4837  14.504   8.700  10.620
  980SOL    HW2 4838  14.635   8.733  10.550
  981SOL     OW 4839   0.962   2.732   4.444
  981SOL    HW1 4840   1.058   2.725   4.443
  981SOL    HW2 4841   0.944   2.826   4.436
  982SOL     OW 4842   4.779   6.367  14.833
  982SOL    HW1 4843   4.790   6.417  14.751
  982SOL    HW2 4844   4.732   6.288  14.807
  983SOL     OW 4845   3.275   4.760   1.983
  983SOL    HW1 4846   3.213   4.820   1.942
  983SOL    HW2 4847   3.227   4.678   1.992
  984SOL     OW 4848   1.116  10.570  13.534
  984SOL    HW1 4849   1.161  10.564  13.618
  984SOL    HW2 4850   1.086  10.480  13.517
  985SOL     OW 4851  10.603  11.374  11.013
  985SOL    HW1 4852  10.618  11.344  10.923
  985SOL    HW2 4853  10.517  11.417  11.009
  986SOL     OW 4854   6.148  10.252   5.219
  986SOL    HW1 4855   6.171  10.227   5.309
  986SOL    HW2 4856   6.110  10.173   5.181
  987SOL     OW 4857   9.830  12.331   8.717
  987SOL    HW1 4858   9.839  12.303   8.626
  987SOL    HW2 4859   9.862  12.256   8.768
  988SOL     OW 4860  13.265   3.357   9.386
  988SOL    HW1 4861  13.309   3.440   9.400
  988SOL    HW2 4862  13.323   3.309   9.326
  989SOL     OW 4863   0.428   1.117   9.825
  989SOL    HW1 4864   0.431   1.199   9.777
  989SOL    HW2 4865   0.432   1.142   9.917
  990SOL     OW 4866   9.819   4.093  10.012
  990SOL    HW1 4867   9.752   4.034   9.977
  990SOL    HW2 4868   9.892   4.085   9.951
  991SOL     OW 4869   3.864   0.591   8.647
  991SOL    HW1 4870   3.833   0.524   8.586
  991SOL    HW2 4871   3.956   0.567   8.664
  992SOL     OW 4872   5.637  11.220   0.422
  992SOL    HW1 4873   5.562  11.261   0.464
  992SOL    HW2 4874   5.677  11.166   0.490
  993SOL     OW 4875   9.886  11.329   6.252
  993SOL    HW1 4876   9.889  11.246   6.204
  993SOL    HW2 4877   9.802  11.328   6.297
  994SOL     OW 4878   2.722   8.925   3.072
  994SOL    HW1 4879   2.660   8.989   3.037
  994SOL    HW2 4880   2.808   8.966   3.062
  995SOL     OW 4881   9.776   5.324   5.467
  995SOL    HW1 4882   9.816   5.237   5.468
  995SOL    HW2 4883   9.843   5.381   5.505
  996SOL     OW 4884   3.802  14.055   0.065
  996SOL    HW1 4885   3.805  14.088   0.155
  996SOL    HW2 4886   3.821  13.962   0.073
  997SOL     OW 4887   0.913   1.377   3.679
  997SOL    HW1 4888   0.973   1.318   3.725
  997SOL    HW2 4889   0.941   1.465   3.706
  998SOL     OW 4890  14.592   7.858   4.033
  998SOL    HW1 4891  14.657   7.906   4.084
  998SOL    HW2 4892  14.549   7.801   4.096
  999SOL     OW 4893   5.070   2.633   3.632
  999SOL    HW1 4894   5.018   2.557   3.603
  999SOL    HW2 4895   5.008   2.706   3.629
 1000SOL     OW 4896   5.722  12.891  10.595
 1000SOL    HW1 4897   5.774  12.971  10.599
 1000SOL    HW2 4898   5.641  12.916  10.551
 1001SOL     OW 4899  13.171   9.310   3.555
 1001SOL    HW1 4900  13.183   9.356   3.638
 1001SOL    HW2 4901  13.255   9.268   3.538
 1002SOL     OW 4902  12.481   1.440   0.512
 1002SOL    HW1 4903  12.523   1.519   0.477
 1002SOL    HW2 4904  12.497   1.443   0.606
 1003SOL     OW 4905   2.670   8.802   6.618
 1003SOL    HW1 4906   2.670   8.758   6.533
 1003SOL    HW2 4907   2.709   8.888   6.601
 1004SOL     OW 4908   8.249   9.023   4.778
 1004SOL    HW1 4909   8.320   9.084   4.793
 1004SOL    HW2 4910   8.260   8.994   4.687
 1005SOL     OW 4911   9.687   5.114   5.762
 1005SOL    HW1 4912   9.618   5.081   5.705
 1005SOL    HW2 4913   9.766   5.069   5.734
 1006SOL     OW 4914   5.779   0.860   6.380
 1006SOL    HW1 4915   5.741   0.856   6.292
 1006SOL    HW2 4916   5.706   0.840   6.438
 1007SOL     OW 4917   3.425  13.985   2.296
 1007SOL    HW1 4918   3.396  14.021   2.380
 1007SOL    HW2 4919   3.353  13.931   2.267
 1008SOL     OW 4920   0.902  10.124   0.136
 1008SOL    HW1 4921   0.814  10.161   0.142
 1008SOL    HW2 4922   0.892  10.050   0.076
 1009SOL     OW 4923  14.525  12.707   8.920
 1009SOL    HW1 4924  14.445  12.743   8.881
 1009SOL    HW2 4925  14.571  12.784   8.954
 1010SOL     OW 4926   3.861   8.398  11.004
 1010SOL    HW1 4927   3.955   8.384  10.999
 1010SOL    HW2 4928   3.847   8.439  11.089
 1011SOL     OW 4929   0.134  14.824   0.945
 1011SOL    HW1 4930   0.133   0.031   0.987
 1011SOL    HW2 4931   0.227  14.806   0.929
 1012SOL     OW 4932   7.779  11.973  12.129
 1012SOL    HW1 4933   7.744  11.884  12.141
 1012SOL    HW2 4934   7.703  12.030  12.142
 1013SOL     OW 4935   4.497   0.175   6.954
 1013SOL    HW1 4936   4.458   0.107   6.899
 1013SOL    HW2 4937   4.571   0.132   6.997
 1014SOL     OW 4938   4.257   4.421   3.996
 1014SOL    HW1 4939   4.321   4.371   4.046
 1014SOL    HW2 4940   4.173   4.377   4.013
 1015SOL     OW 4941   3.145   6.577   5.769
 1015SOL    HW1 4942   3.153   6.522   5.847
 1015SOL    HW2 4943   3.051   6.579   5.750
 1016SOL     OW 4944   8.260   4.104  12.178
 1016SOL    HW1 4945   8.180   4.062  12.147
 1016SOL    HW2 4946   8.232   4.159  12.251
 1017SOL     OW 4947  14.814   1.563  12.293
 1017SOL    HW1 4948  14.839   1.567  12.386
 1017SOL    HW2 4949  14.832   1.650  12.260
 1018SOL     OW 4950   2.547   6.122   1.169
 1018SOL    HW1 4951   2.551   6.038   1.122
 1018SOL    HW2 4952   2.457   6.153   1.156
 1019SOL     OW 4953  11.002   6.705   9.646
 1019SOL    HW1 4954  10.976   6.667   9.730
 1019SOL    HW2 4955  11.001   6.800   9.661
 1020SOL     OW 4956  11.066  13.126   8.195
 1020SOL    HW1 4957  11.159  13.150   8.188
 1020SOL    HW2 4958  11.067  13.031   8.210
 1021SOL     OW 4959   2.870  12.599   7.348
 1021SOL    HW1 4960   2.799  12.643   7.394
 1021SOL    HW2 4961   2.840  12.509   7.338
 1022SOL     OW 4962  14.542   7.474  13.179
 1022SOL    HW1 4963  14.472   7.444  13.120
 1022SOL    HW2 4964  14.516   7.442  13.265
 1023SOL     OW 4965  12.663   0.490   0.580
 1023SOL    HW1 4966  12.596   0.558   0.579
 1023SOL    HW2 4967  12.631   0.424   0.519
 1024SOL     OW 4968   8.584   9.350   3.438
 1024SOL    HW1 4969   8.516   9.324   3.501
 1024SOL    HW2 4970   8.580   9.283   3.370
 1025SOL     OW 4971   7.192  11.965  12.301
 1025SOL    HW1 4972   7.167  11.876  12.325
 1025SOL    HW2 4973   7.254  11.992  12.367
 1026SOL     OW 4974   3.321  13.069   2.467
 1026SOL    HW1 4975   3.372  13.142   2.503
 1026SOL    HW2 4976   3.371  13.041   2.390
 1027SOL     OW 4977   6.765  10.244   0.308
 1027SOL    HW1 4978   6.834  10.296   0.266
 1027SOL    HW2 4979   6.718  10.307   0.362
 1028SOL     OW 4980   6.476  11.570   8.962
 1028SOL    HW1 4981   6.538  11.518   9.013
 1028SOL    HW2 4982   6.482  11.658   8.998
 1029SOL     OW 4983   3.783   6.253   0.409
 1029SOL    HW1 4984   3.756   6.338   0.442
 1029SOL    HW2 4985   3.877   6.262   0.391
 1030SOL     OW 4986  14.676   7.828   7.456
 1030SOL    HW1 4987  14.740   7.826   7.527
 1030SOL    HW2 4988  14.729   7.832   7.376
 1031SOL     OW 4989  12.820   7.711  11.459
 1031SOL    HW1 4990  12.759   7.693  11.531
 1031SOL    HW2 4991  12.850   7.800  11.476
 1032SOL     OW 4992   3.594   9.105  13.632
 1032SOL    HW1 4993   3.641   9.038  13.583
 1032SOL    HW2 4994   3.532   9.056  13.686
 1033SOL     OW 4995   0.468  11.916   5.609
 1033SOL    HW1 4996   0.535  11.964   5.658
 1033SOL    HW2 4997   0.444  11.976   5.538
 1034SOL     OW 4998   3.240   1.365  11.947
 1034SOL    HW1 4999   3.209   1.416  11.872
 1034SOL    HW2 5000   3.278   1.431  12.006
 1035SOL     OW 5001   1.030   8.561   4.510
 1035SOL    HW1 5002   1.085   8.548   4.433
 1035SOL    HW2 5003   0.965   8.491   4.505
 1036SOL     OW 5004   3.551   2.074   0.435
 1036SOL    HW1 5005   3.600   1.993   0.419
 1036SOL    HW2 5006   3.604   2.122   0.498
 1037SOL     OW 5007  14.326  10.840   4.320
 1037SOL    HW1 5008  14.411  10.829   4.362
 1037SOL    HW2 5009  14.310  10.934   4.323
 1038SOL     OW 5010   1.431  12.872   3.716
 1038SOL    HW1 5011   1.424  12.823   3.634
 1038SOL    HW2 5012   1.523  12.865   3.741
 1039SOL     OW 5013  11.700   3.201   2.699
 1039SOL    HW1 5014  11.654   3.214   2.617
 1039SOL    HW2 5015  11.724   3.108   2.699
 1040SOL     OW 5016   9.183   1.324   1.660
 1040SOL    HW1 5017   9.257   1.324   1.599
 1040SOL    HW2 5018   9.219   1.289   1.741
 1041SOL     OW 5019  14.839   5.398  13.239
 1041SOL    HW1 5020  14.779   5.414  13.166
 1041SOL    HW2 5021   0.007   5.480  13.249
 1042SOL     OW 5022   1.241  10.726   4.702
 1042SOL    HW1 5023   1.214  10.738   4.793
 1042SOL    HW2 5024   1.299  10.799   4.683
 1043SOL     OW 5025  12.041   3.308   4.037
 1043SOL    HW1 5026  12.010   3.261   4.114
 1043SOL    HW2 5027  11.974   3.374   4.021
 1044SOL     OW 5028  13.717  14.788   8.454
 1044SOL    HW1 5029  13.674  14.707   8.482
 1044SOL    HW2 5030  13.664  14.819   8.380
 1045SOL     OW 5031   7.670   0.010  12.447
 1045SOL    HW1 5032   7.582   0.004  12.483
 1045SOL    HW2 5033   7.687   0.105  12.442
 1046SOL     OW 5034   8.686  12.481   8.907
 1046SOL    HW1 5035   8.674  12.525   8.991
 1046SOL    HW2 5036   8.705  12.390   8.929
 1047SOL     OW 5037   4.166   4.556  10.992
 1047SOL    HW1 5038   4.244   4.513  11.027
 1047SOL    HW2 5039   4.094   4.498  11.015
 1048SOL     OW 5040   2.112  14.587   5.570
 1048SOL    HW1 5041   2.140  14.666   5.616
 1048SOL    HW2 5042   2.060  14.619   5.496
 1049SOL     OW 5043   1.944   9.751  13.137
 1049SOL    HW1 5044   2.021   9.760  13.081
 1049SOL    HW2 5045   1.973   9.694  13.208
 1050SOL     OW 5046   1.434   3.506  14.361
 1050SOL    HW1 5047   1.344   3.473  14.363
 1050SOL    HW2 5048   1.484   3.436  14.319
 1051SOL     OW 5049   2.247   4.187   7.307
 1051SOL    HW1 5050   2.257   4.101   7.265
 1051SOL    HW2 5051   2.204   4.240   7.240
 1052SOL     OW 5052   7.622   0.805   3.393
 1052SOL    HW1 5053   7.717   0.807   3.403
 1052SOL    HW2 5054   7.606   0.741   3.324
 1053SOL     OW 5055   8.393   6.030   2.066
 1053SOL    HW1 5056   8.303   6.022   2.037
 1053SOL    HW2 5057   8.408   5.955   2.123
 1054SOL     OW 5058   9.478   4.531   4.177
 1054SOL    HW1 5059   9.551   4.533   4.115
 1054SOL    HW2 5060   9.502   4.595   4.244
 1055SOL     OW 5061   5.992   9.080   1.637
 1055SOL    HW1 5062   5.963   9.076   1.546
 1055SOL    HW2 5063   5.933   9.021   1.684
 1056SOL     OW 5064   3.456   5.853   2.089
 1056SOL    HW1 5065   3.424   5.774   2.044
 1056SOL    HW2 5066   3.548   5.860   2.064
 1057SOL     OW 5067   3.676  13.578   0.920
 1057SOL    HW1 5068   3.629  13.537   0.847
 1057SOL    HW2 5069   3.760  13.533   0.923
 1058SOL     OW 5070   5.685   1.861   7.201
 1058SOL    HW1 5071   5.652   1.802   7.269
 1058SOL    HW2 5072   5.608   1.911   7.174
 1059SOL     OW 5073   0.513   7.398   6.391
 1059SOL    HW1 5074   0.493   7.491   6.378
 1059SOL    HW2 5075   0.474   7.354   6.316
 1060SOL     OW 5076  13.203   2.124   2.885
 1060SOL    HW1 5077  13.209   2.189   2.814
 1060SOL    HW2 5078  13.179   2.043   2.841
 1061SOL     OW 5079  13.831   5.704  12.698
 1061SOL    HW1 5080  13.857   5.699  12.606
 1061SOL    HW2 5081  13.866   5.624  12.737
 1062SOL     OW 5082   4.439  10.283   9.932
 1062SOL    HW1 5083   4.350  10.305   9.960
 1062SOL    HW2 5084   4.428  10.218   9.863
 1063SOL     OW 5085   9.627   3.970  10.678
 1063SOL    HW1 5086   9.552   3.910  10.672
 1063SOL    HW2 5087   9.667   3.950  10.762
 1064SOL     OW 5088  13.505  13.382   5.763
 1064SOL    HW1 5089  13.460  13.327   5.700
 1064SOL    HW2 5090  13.494  13.471   5.730
 1065SOL     OW 5091   6.165   1.813  12.099
 1065SOL    HW1 5092   6.079   1.800  12.140
 1065SOL    HW2 5093   6.204   1.887  12.145
 1066SOL     OW 5094  13.583   8.678   3.663
 1066SOL    HW1 5095  13.625   8.757   3.697
 1066SOL    HW2 5096  13.491   8.700   3.657
 1067SOL     OW 5097  12.371  13.145  10.532
 1067SOL    HW1 5098  12.397  13.208  10.598
 1067SOL    HW2 5099  12.292  13.103  10.569
 1068SOL     OW 5100  10.152   4.545  12.779
 1068SOL    HW1 5101  10.225   4.494  12.744
 1068SOL    HW2 5102  10.147   4.521  12.871
 1069SOL     OW 5103  13.640   6.018  14.444
 1069SOL    HW1 5104  13.729   6.015  14.408
 1069SOL    HW2 5105  13.600   5.936  14.415
 1070SOL     OW 5106   6.090   6.271   0.826
 1070SOL    HW1 5107   6.181   6.297   0.816
 1070SOL    HW2 5108   6.048   6.298   0.744
 1071SOL     OW 5109   8.136   4.672  12.373
 1071SOL    HW1 5110   8.148   4.766  12.388
 1071SOL    HW2 5111   8.224   4.638  12.358
 1072SOL     OW 5112   2.115   1.617   5.095
 1072SOL    HW1 5113   2.025   1.644   5.115
 1072SOL    HW2 5114   2.154   1.600   5.181
 1073SOL     OW 5115   7.032  10.877  11.938
 1073SOL    HW1 5116   7.106  10.821  11.963
 1073SOL    HW2 5117   6.964  10.816  11.910
 1074SOL     OW 5118   5.677  11.693   2.381
 1074SOL    HW1 5119   5.765  11.712   2.349
 1074SOL    HW2 5120   5.681  11.603   2.412
 1075SOL     OW 5121   1.634  12.968   1.756
 1075SOL    HW1 5122   1.591  13.018   1.826
 1075SOL    HW2 5123   1.727  12.980   1.772
 1076SOL     OW 5124   9.231   8.152   3.982
 1076SOL    HW1 5125   9.184   8.235   3.975
 1076SOL    HW2 5126   9.249   8.144   4.076
 1077SOL     OW 5127   3.961   0.107   6.012
 1077SOL    HW1 5128   3.949   0.145   5.925
 1077SOL    HW2 5129   3.996   0.019   5.996
 1078SOL     OW 5130   3.227   7.603   6.498
 1078SOL    HW1 5131   3.181   7.636   6.575
 1078SOL    HW2 5132   3.316   7.636   6.506
 1079SOL     OW 5133   8.522   3.037   9.174
 1079SOL    HW1 5134   8.578   3.060   9.248
 1079SOL    HW2 5135   8.454   2.982   9.212
 1080SOL     OW 5136   4.582   9.292  10.905
 1080SOL    HW1 5137   4.589   9.347  10.827
 1080SOL    HW2 5138   4.672   9.282  10.936
 1081SOL     OW 5139   8.939   1.012   9.078
 1081SOL    HW1 5140   8.873   0.958   9.121
 1081SOL    HW2 5141   8.910   1.017   8.987
 1082SOL     OW 5142   9.514   9.373  13.338
 1082SOL    HW1 5143   9.452   9.308  13.372
 1082SOL    HW2 5144   9.505   9.448  13.396
 1083SOL     OW 5145   1.465   8.211   8.615
 1083SOL    HW1 5146   1.409   8.228   8.690
 1083SOL    HW2 5147   1.409   8.163   8.553
 1084SOL     OW 5148   1.308  10.947   4.380
 1084SOL    HW1 5149   1.301  10.952   4.284
 1084SOL    HW2 5150   1.346  11.032   4.405
 1085SOL     OW 5151   6.996   7.748  12.681
 1085SOL    HW1 5152   7.036   7.819  12.630
 1085SOL    HW2 5153   6.908   7.739  12.645
 1086SOL     OW 5154  11.216   7.400   9.908
 1086SOL    HW1 5155  11.157   7.362   9.973
 1086SOL    HW2 5156  11.229   7.490   9.938
 1087SOL     OW 5157   2.605  12.859   4.100
 1087SOL    HW1 5158   2.565  12.772   4.095
 1087SOL    HW2 5159   2.530  12.918   4.110
 1088SOL     OW 5160   9.458   3.434   8.442
 1088SOL    HW1 5161   9.414   3.462   8.362
 1088SOL    HW2 5162   9.452   3.339   8.442
 1089SOL     OW 5163   9.151   1.042  12.752
 1089SOL    HW1 5164   9.150   1.130  12.790
 1089SOL    HW2 5165   9.070   1.001  12.783
 1090SOL     OW 5166   1.135   4.998   3.911
 1090SOL    HW1 5167   1.071   4.943   3.955
 1090SOL    HW2 5168   1.098   5.013   3.824
 1091SOL     OW 5169  13.358   9.521   4.288
 1091SOL    HW1 5170  13.263   9.512   4.288
 1091SOL    HW2 5171  13.373   9.614   4.269
 1092SOL     OW 5172   7.938   1.813   0.551
 1092SOL    HW1 5173   8.011   1.846   0.498
 1092SOL    HW2 5174   7.947   1.718   0.548
 1093SOL     OW 5175   5.155   4.272  10.980
 1093SOL    HW1 5176   5.217   4.326  11.029
 1093SOL    HW2 5177   5.072   4.284  11.027
 1094SOL     OW 5178   2.638  11.869   9.268
 1094SOL    HW1 5179   2.723  11.909   9.248
 1094SOL    HW2 5180   2.577  11.942   9.273
 1095SOL     OW 5181   8.104   9.707   5.314
 1095SOL    HW1 5182   8.087   9.787   5.363
 1095SOL    HW2 5183   8.117   9.736   5.224
 1096SOL     OW 5184  11.231   5.512  14.350
 1096SOL    HW1 5185  11.263   5.463  14.425
 1096SOL    HW2 5186  11.191   5.591  14.387
 1097SOL     OW 5187  14.377   9.706   0.287
 1097SOL    HW1 5188  14.296   9.674   0.247
 1097SOL    HW2 5189  14.443   9.694   0.220
 1098SOL     OW 5190   3.555  11.037   3.882
 1098SOL    HW1 5191   3.525  10.982   3.954
 1098SOL    HW2 5192   3.556  11.126   3.919
 1099SOL     OW 5193   2.524   3.245   1.515
 1099SOL    HW1 5194   2.472   3.321   1.541
 1099SOL    HW2 5195   2.476   3.171   1.553
 1100SOL     OW 5196   9.315   7.931   0.483
 1100SOL    HW1 5197   9.332   7.937   0.577
 1100SOL    HW2 5198   9.384   7.874   0.449
 1101SOL     OW 5199  13.291  10.722  11.199
 1101SOL    HW1 5200  13.370  10.667  11.206
 1101SOL    HW2 5201  13.270  10.746  11.289
 1102SOL     OW 5202   1.413   6.223  14.363
 1102SOL    HW1 5203   1.344   6.288  14.344
 1102SOL    HW2 5204   1.476   6.271  14.416
 1103SOL     OW 5205  13.832  14.604  14.538
 1103SOL    HW1 5206  13.840  14.688  14.583
 1103SOL    HW2 5207  13.741  14.579  14.549
 1104SOL     OW 5208   2.395  12.451   9.515
 1104SOL    HW1 5209   2.398  12.393   9.590
 1104SOL    HW2 5210   2.397  12.539   9.553
 1105SOL     OW 5211   9.552   9.275  11.954
 1105SOL    HW1 5212   9.507   9.245  12.033
 1105SOL    HW2 5213   9.595   9.197  11.920
 1106SOL     OW 5214   9.325   3.071  10.363
 1106SOL    HW1 5215   9.385   3.146  10.371
 1106SOL    HW2 5216   9.309   3.043  10.453
 1107SOL     OW 5217   6.756   6.568   0.392
 1107SOL    HW1 5218   6.758   6.622   0.472
 1107SOL    HW2 5219   6.756   6.632   0.321
 1108SOL     OW 5220   1.482   3.938  12.675
 1108SOL    HW1 5221   1.552   3.977  12.623
 1108SOL    HW2 5222   1.416   4.007  12.682
 1109SOL     OW 5223  10.679  11.695   5.019
 1109SOL    HW1 5224  10.712  11.745   4.945
 1109SOL    HW2 5225  10.698  11.749   5.095
 1110SOL     OW 5226  14.478   8.518   0.485
 1110SOL    HW1 5227  14.438   8.519   0.573
 1110SOL    HW2 5228  14.502   8.609   0.469
 1111SOL     OW 5229   7.372   1.304  11.215
 1111SOL    HW1 5230   7.408   1.257  11.289
 1111SOL    HW2 5231   7.332   1.383  11.253
 1112SOL     OW 5232  11.598   4.243   0.060
 1112SOL    HW1 5233  11.644   4.160   0.047
 1112SOL    HW2 5234  11.650   4.291   0.124
 1113SOL     OW 5235   6.634   2.226   9.730
 1113SOL    HW1 5236   6.652   2.226   9.636
 1113SOL    HW2 5237   6.671   2.144   9.762
 1114SOL     OW 5238   4.717   8.561   5.944
 1114SOL    HW1 5239   4.781   8.497   5.973
 1114SOL    HW2 5240   4.750   8.645   5.975
 1115SOL     OW 5241  12.537   6.784  12.042
 1115SOL    HW1 5242  12.617   6.774  12.093
 1115SOL    HW2 5243  12.553   6.735  11.961
 1116SOL     OW 5244   4.798  10.940   8.481
 1116SOL    HW1 5245   4.721  10.953   8.536
 1116SOL    HW2 5246   4.763  10.911   8.397
 1117SOL     OW 5247   3.456  10.542  12.633
 1117SOL    HW1 5248   3.530  10.521  12.577
 1117SOL    HW2 5249   3.454  10.471  12.698
 1118SOL     OW 5250   6.534  12.080  13.237
 1118SOL    HW1 5251   6.472  12.067  13.165
 1118SOL    HW2 5252   6.494  12.147  13.292
 1119SOL     OW 5253   2.062   4.633   1.944
 1119SOL    HW1 5254   2.119   4.691   1.894
 1119SOL    HW2 5255   2.122   4.584   2.001
 1120SOL     OW 5256   2.066   0.295   9.332
 1120SOL    HW1 5257   2.123   0.371   9.318
 1120SOL    HW2 5258   2.022   0.283   9.248
 1121SOL     OW 5259   2.636  10.249  14.481
 1121SOL    HW1 5260   2.551  10.206  14.474
 1121SOL    HW2 5261   2.653  10.283  14.394
 1122SOL     OW 5262   8.982   4.689   5.100
 1122SOL    HW1 5263   8.926   4.750   5.053
 1122SOL    HW2 5264   8.930   4.660   5.175
 1123SOL     OW 5265   7.104  12.212   4.300
 1123SOL    HW1 5266   7.133  12.197   4.390
 1123SOL    HW2 5267   7.019  12.169   4.295
 1124SOL     OW 5268  14.482   4.251   8.088
 1124SOL    HW1 5269  14.467   4.173   8.035
 1124SOL    HW2 5270  14.575   4.246   8.111
 1125SOL     OW 5271   9.793  10.691   9.335
 1125SOL    HW1 5272   9.698  10.702   9.332
 1125SOL    HW2 5273   9.814  10.642   9.256
 1126SOL     OW 5274   5.515   3.661   7.043
 1126SOL    HW1 5275   5.584   3.667   6.977
 1126SOL    HW2 5276   5.458   3.736   7.026
 1127SOL     OW 5277  10.469   2.198  10.676
 1127SOL    HW1 5278  10.546   2.143  10.666
 1127SOL    HW2 5279  10.397   2.146  10.641
 1128SOL     OW 5280   9.290   2.349   2.449
 1128SOL    HW1 5281   9.326   2.296   2.378
 1128SOL    HW2 5282   9.204   2.377   2.417
 1129SOL     OW 5283  12.457   9.623   1.510
 1129SOL    HW1 5284  12.503   9.614   1.426
 1129SOL    HW2 5285  12.409   9.706   1.503
 1130SOL     OW 5286  11.379   6.126  10.470
 1130SOL    HW1 5287  11.361   6.042  10.427
 1130SOL    HW2 5288  11.475   6.129  10.478
 1131SOL     OW 5289   1.033   9.648   7.227
 1131SOL    HW1 5290   1.105   9.661   7.289
 1131SOL    HW2 5291   1.064   9.578   7.169
 1132SOL     OW 5292   8.875  14.662  11.463
 1132SOL    HW1 5293   8.814  14.629  11.397
 1132SOL    HW2 5294   8.826  14.730  11.508
 1133SOL     OW 5295  12.324   9.523   3.980
 1133SOL    HW1 5296  12.334   9.481   3.895
 1133SOL    HW2 5297  12.343   9.454   4.044
 1134SOL     OW 5298   3.016   5.258   9.587
 1134SOL    HW1 5299   2.970   5.308   9.519
 1134SOL    HW2 5300   3.034   5.173   9.546
 1135SOL     OW 5301   1.793  10.728  13.647
 1135SOL    HW1 5302   1.841  10.753  13.568
 1135SOL    HW2 5303   1.852  10.667  13.692
 1136SOL     OW 5304   5.396   1.600   7.597
 1136SOL    HW1 5305   5.345   1.588   7.678
 1136SOL    HW2 5306   5.347   1.551   7.531
 1137SOL     OW 5307   2.351   5.030   8.103
 1137SOL    HW1 5308   2.332   5.051   8.011
 1137SOL    HW2 5309   2.422   5.089   8.127
 1138SOL     OW 5310  10.131  14.719   9.653
 1138SOL    HW1 5311  10.212  14.768   9.640
 1138SOL    HW2 5312  10.129  14.657   9.580
 1139SOL     OW 5313   3.071   9.054  10.353
 1139SOL    HW1 5314   3.133   9.015  10.292
 1139SOL    HW2 5315   3.118   9.057  10.436
 1140SOL     OW 5316  10.000  14.520   7.840
 1140SOL    HW1 5317  10.066  14.501   7.908
 1140SOL    HW2 5318  10.005  14.445   7.781
 1141SOL     OW 5319   9.090   9.988  10.885
 1141SOL    HW1 5320   9.177   9.962  10.913
 1141SOL    HW2 5321   9.083   9.956  10.795
 1142SOL     OW 5322  13.910  10.130   4.666
 1142SOL    HW1 5323  13.851  10.138   4.741
 1142SOL    HW2 5324  13.854  10.140   4.590
 1143SOL     OW 5325   9.328   2.959   4.824
 1143SOL    HW1 5326   9.308   3.052   4.839
 1143SOL    HW2 5327   9.292   2.942   4.737
 1144SOL     OW 5328   9.828   7.040  13.683
 1144SOL    HW1 5329   9.851   6.954  13.647
 1144SOL    HW2 5330   9.891   7.100  13.644
 1145SOL     OW 5331   7.832   6.984  11.357
 1145SOL    HW1 5332   7.902   7.018  11.302
 1145SOL    HW2 5333   7.795   7.061  11.400
 1146SOL     OW 5334   9.335   8.824   2.862
 1146SOL    HW1 5335   9.290   8.746   2.895
 1146SOL    HW2 5336   9.300   8.836   2.774
 1147SOL     OW 5337  13.429   8.394   1.593
 1147SOL    HW1 5338  13.394   8.359   1.512
 1147SOL    HW2 5339  13.458   8.483   1.571
 1148SOL     OW 5340   6.849  13.346   5.210
 1148SOL    HW1 5341   6.945  13.341   5.210
 1148SOL    HW2 5342   6.825  13.353   5.117
 1149SOL     OW 5343  10.077   7.060   5.434
 1149SOL    HW1 5344  10.022   7.133   5.403
 1149SOL    HW2 5345  10.043   6.983   5.388
 1150SOL     OW 5346  11.502  13.345  10.866
 1150SOL    HW1 5347  11.580  13.295  10.893
 1150SOL    HW2 5348  11.430  13.303  10.913
 1151SOL     OW 5349   1.852  10.246   5.645
 1151SOL    HW1 5350   1.818  10.322   5.597
 1151SOL    HW2 5351   1.815  10.170   5.600
 1152SOL     OW 5352   9.843  11.326   6.658
 1152SOL    HW1 5353   9.912  11.315   6.723
 1152SOL    HW2 5354   9.809  11.415   6.673
 1153SOL     OW 5355   2.727   7.713   1.261
 1153SOL    HW1 5356   2.662   7.643   1.257
 1153SOL    HW2 5357   2.808   7.672   1.228
 1154SOL     OW 5358   9.222   4.538  10.339
 1154SOL    HW1 5359   9.168   4.518  10.416
 1154SOL    HW2 5360   9.189   4.622  10.308
 1155SOL     OW 5361   1.488   5.382   9.093
 1155SOL    HW1 5362   1.551   5.330   9.144
 1155SOL    HW2 5363   1.417   5.321   9.074
 1156SOL     OW 5364  14.877   6.592   8.923
 1156SOL    HW1 5365   0.068   6.656   8.930
 1156SOL    HW2 5366   0.032   6.513   8.965
 1157SOL     OW 5367   4.736   5.775   7.797
 1157SOL    HW1 5368   4.752   5.813   7.710
 1157SOL    HW2 5369   4.779   5.689   7.794
 1158SOL     OW 5370   2.131   2.996   6.968
 1158SOL    HW1 5371   2.119   3.091   6.974
 1158SOL    HW2 5372   2.056   2.960   7.016
 1159SOL     OW 5373  11.190  13.036   1.625
 1159SOL    HW1 5374  11.095  13.036   1.608
 1159SOL    HW2 5375  11.217  12.946   1.610
 1160SOL     OW 5376  12.868  14.417  14.437
 1160SOL    HW1 5377  12.893  14.361  14.363
 1160SOL    HW2 5378  12.901  14.372  14.514
 1161SOL     OW 5379   4.516   1.968   7.944
 1161SOL    HW1 5380   4.555   2.055   7.942
 1161SOL    HW2 5381   4.568   1.917   7.882
 1162SOL     OW 5382   2.031  13.174  10.311
 1162SOL    HW1 5383   1.940  13.176  10.280
 1162SOL    HW2 5384   2.048  13.262  10.342
 1163SOL     OW 5385   1.695   1.599   0.624
 1163SOL    HW1 5386   1.710   1.684   0.583
 1163SOL    HW2 5387   1.780   1.554   0.619
 1164SOL     OW 5388   3.767   9.651   2.460
 1164SOL    HW1 5389   3.809   9.650   2.546
 1164SOL    HW2 5390   3.838   9.673   2.399
 1165SOL     OW 5391   5.486   5.607   8.268
 1165SOL    HW1 5392   5.489   5.585   8.361
 1165SOL    HW2 5393   5.564   5.661   8.254
 1166SOL     OW 5394   0.325   7.879   8.588
 1166SOL    HW1 5395   0.410   7.870   8.544
 1166SOL    HW2 5396   0.264   7.829   8.533
 1167SOL     OW 5397   8.736   0.914   1.301
 1167SOL    HW1 5398   8.726   1.006   1.277
 1167SOL    HW2 5399   8.683   0.867   1.238
 1168SOL     OW 5400  10.779   5.159  13.243
 1168SOL    HW1 5401  10.740   5.205  13.169
 1168SOL    HW2 5402  10.861   5.124  13.209
 1169SOL     OW 5403   2.480  14.660  10.405
 1169SOL    HW1 5404   2.507  14.691  10.319
 1169SOL    HW2 5405   2.548  14.692  10.465
 1170SOL     OW 5406  11.336  12.414   7.982
 1170SOL    HW1 5407  11.361  12.408   7.890
 1170SOL    HW2 5408  11.242  12.396   7.982
 1171SOL     OW 5409   6.583   9.876   9.685
 1171SOL    HW1 5410   6.620   9.822   9.615
 1171SOL    HW2 5411   6.647   9.872   9.755
 1172SOL     OW 5412   0.852  11.145  10.714
 1172SOL    HW1 5413   0.868  11.053  10.691
 1172SOL    HW2 5414   0.768  11.143  10.760
 1173SOL     OW 5415   0.280  14.419  12.267
 1173SOL    HW1 5416   0.320  14.432  12.181
 1173SOL    HW2 5417   0.344  14.454  12.329
 1174SOL     OW 5418  11.767   3.059   1.654
 1174SOL    HW1 5419  11.765   3.155   1.655
 1174SOL    HW2 5420  11.688   3.033   1.700
 1175SOL     OW 5421   6.890  12.589   3.982
 1175SOL    HW1 5422   6.975  12.624   4.008
 1175SOL    HW2 5423   6.882  12.507   4.030
 1176SOL     OW 5424   8.073   0.018   2.799
 1176SOL    HW1 5425   7.985   0.006   2.834
 1176SOL    HW2 5426   8.094   0.110   2.818
 1177SOL     OW 5427   3.804  14.188   7.782
 1177SOL    HW1 5428   3.770  14.219   7.698
 1177SOL    HW2 5429   3.863  14.257   7.812
 1178SOL     OW 5430  13.886  14.170   2.246
 1178SOL    HW1 5431  13.834  14.217   2.181
 1178SOL    HW2 5432  13.977  14.185   2.221
 1179SOL     OW 5433   9.625   5.909  12.357
 1179SOL    HW1 5434   9.704   5.873  12.400
 1179SOL    HW2 5435   9.624   6.001  12.382
 1180SOL     OW 5436   2.137   7.348   2.151
 1180SOL    HW1 5437   2.227   7.320   2.136
 1180SOL    HW2 5438   2.104   7.290   2.219
 1181SOL     OW 5439   7.023   6.746  14.871
 1181SOL    HW1 5440   6.946   6.703  14.833
 1181SOL    HW2 5441   7.096   6.687  14.853
 1182SOL     OW 5442  13.146   6.494   3.153
 1182SOL    HW1 5443  13.195   6.543   3.220
 1182SOL    HW2 5444  13.196   6.507   3.073
 1183SOL     OW 5445   8.378   3.755  10.222
 1183SOL    HW1 5446   8.326   3.679  10.195
 1183SOL    HW2 5447   8.329   3.793  10.294
 1184SOL     OW 5448   6.983   0.939  13.627
 1184SOL    HW1 5449   6.902   0.906  13.666
 1184SOL    HW2 5450   7.000   1.021  13.674
 1185SOL     OW 5451   6.190   6.603  13.653
 1185SOL    HW1 5452   6.246   6.527  13.637
 1185SOL    HW2 5453   6.155   6.626  13.567
 1186SOL     OW 5454  13.333  13.779  11.698
 1186SOL    HW1 5455  13.373  13.854  11.654
 1186SOL    HW2 5456  13.348  13.706  11.639
 1187SOL     OW 5457  14.029   3.194  14.870
 1187SOL    HW1 5458  14.114   3.174   0.030
 1187SOL    HW2 5459  14.019   3.127  14.801
 1188SOL     OW 5460   9.856  12.558   1.652
 1188SOL    HW1 5461   9.865  12.647   1.685
 1188SOL    HW2 5462   9.827  12.507   1.728
 1189SOL     OW 5463  13.480  13.883   7.129
 1189SOL    HW1 5464  13.485  13.967   7.175
 1189SOL    HW2 5465  13.532  13.823   7.182
 1190SOL     OW 5466   7.220   7.055   5.084
 1190SOL    HW1 5467   7.312   7.065   5.063
 1190SOL    HW2 5468   7.175   7.112   5.022
 1191SOL     OW 5469   8.553   4.459   3.236
 1191SOL    HW1 5470   8.568   4.369   3.206
 1191SOL    HW2 5471   8.546   4.510   3.155
 1192SOL     OW 5472   5.012   8.583   8.743
 1192SOL    HW1 5473   5.086   8.533   8.776
 1192SOL    HW2 5474   5.051   8.650   8.687
 1193SOL     OW 5475   9.353   8.468   8.102
 1193SOL    HW1 5476   9.288   8.524   8.058
 1193SOL    HW2 5477   9.318   8.380   8.093
 1194SOL     OW 5478   1.823   6.391   7.843
 1194SOL    HW1 5479   1.798   6.475   7.804
 1194SOL    HW2 5480   1.851   6.338   7.769
 1195SOL     OW 5481   4.143   6.157  14.727
 1195SOL    HW1 5482   4.071   6.116  14.775
 1195SOL    HW2 5483   4.107   6.173  14.640
 1196SOL     OW 5484   7.967   3.112  11.703
 1196SOL    HW1 5485   7.947   3.205  11.715
 1196SOL    HW2 5486   7.908   3.067  11.763
 1197SOL     OW 5487   5.439   5.538   3.644
 1197SOL    HW1 5488   5.532   5.553   3.623
 1197SOL    HW2 5489   5.437   5.451   3.683
 1198SOL     OW 5490   8.926   6.800  13.057
 1198SOL    HW1 5491   8.945   6.761  13.142
 1198SOL    HW2 5492   8.943   6.730  12.994
 1199SOL     OW 5493   7.531  12.907   1.860
 1199SOL    HW1 5494   7.439  12.901   1.835
 1199SOL    HW2 5495   7.572  12.957   1.789
 1200SOL     OW 5496   1.804   2.521   0.350
 1200SOL    HW1 5497   1.824   2.436   0.391
 1200SOL    HW2 5498   1.830   2.586   0.415
 1201SOL     OW 5499  12.390  13.513   5.535
 1201SOL    HW1 5500  12.323  13.453   5.567
 1201SOL    HW2 5501  12.396  13.581   5.603
 1202SOL     OW 5502   2.390   6.843   5.343
 1202SOL    HW1 5503   2.363   6.886   5.424
 1202SOL    HW2 5504   2.429   6.760   5.371
 1203SOL     OW 5505   2.955  12.690   5.036
 1203SOL    HW1 5506   3.017  12.621   5.057
 1203SOL    HW2 5507   2.967  12.707   4.943
 1204SOL     OW 5508  10.494   1.643  10.281
 1204SOL    HW1 5509  10.410   1.665  10.322
 1204SOL    HW2 5510  10.526   1.567  10.330
 1205SOL     OW 5511   8.432   4.858   0.201
 1205SOL    HW1 5512   8.455   4.821   0.115
 1205SOL    HW2 5513   8.488   4.935   0.209
 1206SOL     OW 5514   0.891  11.194   7.059
 1206SOL    HW1 5515   0.963  11.136   7.034
 1206SOL    HW2 5516   0.825  11.181   6.991
 1207SOL     OW 5517  11.586   9.607   4.805
 1207SOL    HW1 5518  11.675   9.612   4.772
 1207SOL    HW2 5519  11.545   9.537   4.754
 1208SOL     OW 5520   9.537   1.791   7.906
 1208SOL    HW1 5521   9.525   1.846   7.983
 1208SOL    HW2 5522   9.624   1.752   7.918
 1209SOL     OW 5523   9.532   5.469  13.218
 1209SOL    HW1 5524   9.507   5.558  13.195
 1209SOL    HW2 5525   9.455   5.434  13.264
 1210SOL     OW 5526   2.294   2.299   2.697
 1210SOL    HW1 5527   2.319   2.377   2.747
 1210SOL    HW2 5528   2.376   2.269   2.657
 1211SOL     OW 5529  11.648  13.220   0.369
 1211SOL    HW1 5530  11.600  13.207   0.288
 1211SOL    HW2 5531  11.716  13.284   0.347
 1212SOL     OW 5532   0.423  10.669  13.227
 1212SOL    HW1 5533   0.339  10.693  13.189
 1212SOL    HW2 5534   0.462  10.751  13.256
 1213SOL     OW 5535   4.718   1.201   4.726
 1213SOL    HW1 5536   4.778   1.220   4.655
 1213SOL    HW2 5537   4.657   1.137   4.690
 1214SOL     OW 5538  14.873   6.030   7.694
 1214SOL    HW1 5539   0.025   5.966   7.758
 1214SOL    HW2 5540  14.780   6.042   7.717
 1215SOL     OW 5541  11.824   0.235   6.591
 1215SOL    HW1 5542  11.742   0.208   6.549
 1215SOL    HW2 5543  11.879   0.157   6.588
 1216SOL     OW 5544   7.523   6.895   8.886
 1216SOL    HW1 5545   7.575   6.946   8.825
 1216SOL    HW2 5546   7.487   6.824   8.833
 1217SOL     OW 5547  14.773   9.157   5.492
 1217SOL    HW1 5548  14.850   9.211   5.508
 1217SOL    HW2 5549  14.751   9.120   5.577
 1218SOL     OW 5550  11.141   1.084   2.510
 1218SOL    HW1 5551  11.113   1.002   2.469
 1218SOL    HW2 5552  11.095   1.152   2.462
 1219SOL     OW 5553   2.310  13.874  11.952
 1219SOL    HW1 5554   2.337  13.842  11.866
 1219SOL    HW2 5555   2.231  13.824  11.973
 1220SOL     OW 5556   2.128   5.079   9.864
 1220SOL    HW1 5557   2.136   5.140   9.938
 1220SOL    HW2 5558   2.174   5.000   9.893
 1221SOL     OW 5559   7.825  11.653  11.924
 1221SOL    HW1 5560   7.822  11.651  12.019
 1221SOL    HW2 5561   7.917  11.640  11.903
 1222SOL     OW 5562   6.663   7.381  10.750
 1222SOL    HW1 5563   6.609   7.383  10.671
 1222SOL    HW2 5564   6.751   7.400  10.718
 1223SOL     OW 5565   3.394   1.597   0.817
 1223SOL    HW1 5566   3.360   1.679   0.782
 1223SOL    HW2 5567   3.489   1.609   0.820
 1224SOL     OW 5568   6.038  13.641   0.805
 1224SOL    HW1 5569   6.047  13.640   0.901
 1224SOL    HW2 5570   5.952  13.681   0.790
 1225SOL     OW 5571   6.213  10.060  11.206
 1225SOL    HW1 5572   6.285  10.000  11.189
 1225SOL    HW2 5573   6.198  10.104  11.122
 1226SOL     OW 5574  10.257   9.881   7.856
 1226SOL    HW1 5575  10.239   9.951   7.919
 1226SOL    HW2 5576  10.172   9.858   7.821
 1227SOL     OW 5577   4.258  14.253   6.410
 1227SOL    HW1 5578   4.221  14.292   6.489
 1227SOL    HW2 5579   4.310  14.179   6.442
 1228SOL     OW 5580  10.395   6.295  13.753
 1228SOL    HW1 5581  10.452   6.237  13.803
 1228SOL    HW2 5582  10.454   6.361  13.717
 1229SOL     OW 5583  11.340  11.802  14.475
 1229SOL    HW1 5584  11.346  11.851  14.557
 1229SOL    HW2 5585  11.311  11.866  14.410
 1230SOL     OW 5586   9.970   4.662   5.540
 1230SOL    HW1 5587   9.933   4.586   5.495
 1230SOL    HW2 5588  10.042   4.690   5.484
 1231SOL     OW 5589   7.692   5.348  10.493
 1231SOL    HW1 5590   7.607   5.378  10.525
 1231SOL    HW2 5591   7.723   5.287  10.560
 1232SOL     OW 5592  12.397  14.869   3.682
 1232SOL    HW1 5593  12.348  14.872   3.599
 1232SOL    HW2 5594  12.414  14.776   3.696
 1233SOL     OW 5595   1.615  11.792   3.729
 1233SOL    HW1 5596   1.705  11.805   3.759
 1233SOL    HW2 5597   1.565  11.858   3.777
 1234SOL     OW 5598  14.027  10.840   2.804
 1234SOL    HW1 5599  14.007  10.884   2.722
 1234SOL    HW2 5600  14.116  10.867   2.825
 1235SOL     OW 5601  12.095   0.948   6.951
 1235SOL    HW1 5602  12.030   0.953   6.881
 1235SOL    HW2 5603  12.121   0.855   6.952
 1236SOL     OW 5604  11.112  12.620   1.296
 1236SOL    HW1 5605  11.054  12.559   1.342
 1236SOL    HW2 5606  11.194  12.615   1.345
 1237SOL     OW 5607   5.583  10.664   3.564
 1237SOL    HW1 5608   5.671  10.631   3.581
 1237SOL    HW2 5609   5.553  10.699   3.648
 1238SOL     OW 5610   7.980   3.387   7.231
 1238SOL    HW1 5611   8.010   3.472   7.199
 1238SOL    HW2 5612   8.055   3.329   7.217
 1239SOL     OW 5613  13.975   6.713   5.374
 1239SOL    HW1 5614  13.926   6.738   5.452
 1239SOL    HW2 5615  14.038   6.784   5.361
 1240SOL     OW 5616   5.321   6.832   5.472
 1240SOL    HW1 5617   5.294   6.754   5.424
 1240SOL    HW2 5618   5.244   6.889   5.472
 1241SOL     OW 5619   6.318   6.969   1.647
 1241SOL    HW1 5620   6.375   6.993   1.574
 1241SOL    HW2 5621   6.376   6.965   1.723
 1242SOL     OW 5622  14.471  12.397  11.793
 1242SOL    HW1 5623  14.477  12.351  11.709
 1242SOL    HW2 5624  14.517  12.340  11.855
 1243SOL     OW 5625   9.320   0.121  12.279
 1243SOL    HW1 5626   9.317   0.213  12.252
 1243SOL    HW2 5627   9.360   0.076  12.205
 1244SOL     OW 5628   4.197   0.857   4.786
 1244SOL    HW1 5629   4.269   0.800   4.812
 1244SOL    HW2 5630   4.205   0.934   4.842
 1245SOL     OW 5631   3.273   9.139   6.253
 1245SOL    HW1 5632   3.217   9.186   6.315
 1245SOL    HW2 5633   3.288   9.203   6.183
 1246SOL     OW 5634   6.810   3.120   6.344
 1246SOL    HW1 5635   6.772   3.097   6.429
 1246SOL    HW2 5636   6.851   3.039   6.314
 1247SOL     OW 5637   2.656   0.914   3.630
 1247SOL    HW1 5638   2.619   0.971   3.696
 1247SOL    HW2 5639   2.612   0.830   3.643
 1248SOL     OW 5640   4.246   8.339   3.363
 1248SOL    HW1 5641   4.316   8.397   3.332
 1248SOL    HW2 5642   4.280   8.251   3.349
 1249SOL     OW 5643   6.305   8.559   9.893
 1249SOL    HW1 5644   6.296   8.476   9.940
 1249SOL    HW2 5645   6.230   8.562   9.834
 1250SOL     OW 5646  10.885  14.277   2.724
 1250SOL    HW1 5647  10.934  14.202   2.757
 1250SOL    HW2 5648  10.897  14.345   2.791
 1251SOL     OW 5649   8.053  12.381  13.444
 1251SOL    HW1 5650   7.984  12.396  13.379
 1251SOL    HW2 5651   8.013  12.403  13.528
 1252SOL     OW 5652   2.234   7.408   8.107
 1252SOL    HW1 5653   2.310   7.423   8.051
 1252SOL    HW2 5654   2.170   7.365   8.049
 1253SOL     OW 5655   1.532   4.473   4.855
 1253SOL    HW1 5656   1.477   4.497   4.780
 1253SOL    HW2 5657   1.540   4.378   4.849
 1254SOL     OW 5658  12.679   0.807  12.390
 1254SOL    HW1 5659  12.714   0.823  12.477
 1254SOL    HW2 5660  12.704   0.884  12.339
 1255SOL     OW 5661   0.823   6.177  11.953
 1255SOL    HW1 5662   0.860   6.092  11.977
 1255SOL    HW2 5663   0.834   6.231  12.032
 1256SOL     OW 5664   2.282   4.162   9.182
 1256SOL    HW1 5665   2.318   4.213   9.109
 1256SOL    HW2 5666   2.188   4.167   9.171
 1257SOL     OW 5667  14.333   6.610  13.922
 1257SOL    HW1 5668  14.238   6.599  13.918
 1257SOL    HW2 5669  14.347   6.672  13.993
 1258SOL     OW 5670   6.774   2.667  13.355
 1258SOL    HW1 5671   6.682   2.641  13.356
 1258SOL    HW2 5672   6.777   2.745  13.411
 1259SOL     OW 5673   9.476   8.473  13.175
 1259SOL    HW1 5674   9.456   8.420  13.097
 1259SOL    HW2 5675   9.471   8.563  13.145
 1260SOL     OW 5676  12.947   8.969   2.953
 1260SOL    HW1 5677  12.862   8.928   2.937
 1260SOL    HW2 5678  12.930   9.031   3.024
 1261SOL     OW 5679   9.300   8.853   8.619
 1261SOL    HW1 5680   9.341   8.925   8.667
 1261SOL    HW2 5681   9.269   8.794   8.687
 1262SOL     OW 5682   1.588   2.014   8.622
 1262SOL    HW1 5683   1.571   2.080   8.555
 1262SOL    HW2 5684   1.658   2.051   8.676
 1263SOL     OW 5685   3.984   4.420   0.337
 1263SOL    HW1 5686   4.034   4.367   0.274
 1263SOL    HW2 5687   3.892   4.406   0.313
 1264SOL     OW 5688   1.414   1.660   6.915
 1264SOL    HW1 5689   1.455   1.640   6.832
 1264SOL    HW2 5690   1.331   1.611   6.914
 1265SOL     OW 5691   6.612   3.806   1.151
 1265SOL    HW1 5692   6.617   3.782   1.059
 1265SOL    HW2 5693   6.662   3.888   1.158
 1266SOL     OW 5694   0.341   3.795  11.301
 1266SOL    HW1 5695   0.348   3.884  11.268
 1266SOL    HW2 5696   0.432   3.765  11.307
 1267SOL     OW 5697   3.376   5.541   9.827
 1267SOL    HW1 5698   3.448   5.604   9.837
 1267SOL    HW2 5699   3.320   5.578   9.759
 1268SOL     OW 5700   5.038  13.707   5.925
 1268SOL    HW1 5701   5.092  13.725   6.002
 1268SOL    HW2 5702   5.060  13.777   5.863
 1269SOL     OW 5703  13.788   6.144  13.814
 1269SOL    HW1 5704  13.792   6.122  13.907
 1269SOL    HW2 5705  13.805   6.239  13.812
 1270SOL     OW 5706   3.891   4.223   7.620
 1270SOL    HW1 5707   3.960   4.240   7.684
 1270SOL    HW2 5708   3.847   4.145   7.652
 1271SOL     OW 5709  13.681   8.795   5.477
 1271SOL    HW1 5710  13.720   8.847   5.547
 1271SOL    HW2 5711  13.614   8.851   5.439
 1272SOL     OW 5712  14.554   2.413  11.041
 1272SOL    HW1 5713  14.483   2.462  11.083
 1272SOL    HW2 5714  14.510   2.338  11.002
 1273SOL     OW 5715   0.628   9.074   7.517
 1273SOL    HW1 5716   0.689   9.100   7.586
 1273SOL    HW2 5717   0.548   9.123   7.536
 1274SOL     OW 5718   6.572   2.393   2.409
 1274SOL    HW1 5719   6.636   2.363   2.473
 1274SOL    HW2 5720   6.573   2.489   2.417
 1275SOL     OW 5721   0.749  11.107   3.371
 1275SOL    HW1 5722   0.682  11.046   3.399
 1275SOL    HW2 5723   0.756  11.170   3.442
 1276SOL     OW 5724  11.920  10.352   4.158
 1276SOL    HW1 5725  11.908  10.263   4.191
 1276SOL    HW2 5726  11.863  10.356   4.081
 1277SOL     OW 5727  10.241   9.836  11.136
 1277SOL    HW1 5728  10.266   9.808  11.048
 1277SOL    HW2 5729  10.249   9.757  11.189
 1278SOL     OW 5730   2.307   9.210  14.344
 1278SOL    HW1 5731   2.284   9.255  14.263
 1278SOL    HW2 5732   2.396   9.238  14.363
 1279SOL     OW 5733  11.915   0.012   7.376
 1279SOL    HW1 5734  11.867  14.829   7.430
 1279SOL    HW2 5735  12.006  14.859   7.376
 1280SOL     OW 5736  12.663  14.783  13.752
 1280SOL    HW1 5737  12.718  14.820  13.683
 1280SOL    HW2 5738  12.580  14.831  13.744
 1281SOL     OW 5739   9.106  11.254   9.184
 1281SOL    HW1 5740   9.182  11.289   9.230
 1281SOL    HW2 5741   9.075  11.182   9.239
 1282SOL     OW 5742   3.438   0.738  14.332
 1282SOL    HW1 5743   3.420   0.654  14.290
 1282SOL    HW2 5744   3.417   0.724  14.424
 1283SOL     OW 5745   2.829   6.155   8.955
 1283SOL    HW1 5746   2.841   6.061   8.943
 1283SOL    HW2 5747   2.884   6.195   8.888
 1284SOL     OW 5748   4.268   1.167  13.151
 1284SOL    HW1 5749   4.343   1.211  13.191
 1284SOL    HW2 5750   4.263   1.203  13.063
 1285SOL     OW 5751  11.933   5.493  13.920
 1285SOL    HW1 5752  11.896   5.416  13.964
 1285SOL    HW2 5753  11.908   5.567  13.975
 1286SOL     OW 5754   7.247  10.806  13.152
 1286SOL    HW1 5755   7.177  10.871  13.160
 1286SOL    HW2 5756   7.328  10.856  13.150
 1287SOL     OW 5757   2.025   8.431   8.907
 1287SOL    HW1 5758   2.011   8.355   8.963
 1287SOL    HW2 5759   1.995   8.403   8.821
 1288SOL     OW 5760   2.229  13.592   9.923
 1288SOL    HW1 5761   2.139  13.576   9.952
 1288SOL    HW2 5762   2.221  13.660   9.856
 1289SOL     OW 5763   0.997   4.402  13.379
 1289SOL    HW1 5764   0.940   4.474  13.352
 1289SOL    HW2 5765   0.953   4.364  13.455
 1290SOL     OW 5766  10.567   0.310  10.220
 1290SOL    HW1 5767  10.549   0.219  10.195
 1290SOL    HW2 5768  10.566   0.309  10.316
 1291SOL     OW 5769  12.498   2.578   7.885
 1291SOL    HW1 5770  12.540   2.550   7.805
 1291SOL    HW2 5771  12.405   2.558   7.872
 1292SOL     OW 5772   3.948   5.268  10.924
 1292SOL    HW1 5773   3.977   5.345  10.973
 1292SOL    HW2 5774   4.018   5.252  10.861
 1293SOL     OW 5775   7.969  10.370   4.444
 1293SOL    HW1 5776   7.939  10.420   4.520
 1293SOL    HW2 5777   8.039  10.422   4.406
 1294SOL     OW 5778   0.856   4.834  10.477
 1294SOL    HW1 5779   0.878   4.906  10.536
 1294SOL    HW2 5780   0.938   4.813  10.433
 1295SOL     OW 5781   5.141   2.408   2.052
 1295SOL    HW1 5782   5.194   2.344   2.005
 1295SOL    HW2 5783   5.154   2.387   2.145
 1296SOL     OW 5784  11.970   2.454   0.762
 1296SOL    HW1 5785  11.982   2.535   0.713
 1296SOL    HW2 5786  11.887   2.418   0.730
 1297SOL     OW 5787   0.631   0.526  11.923
 1297SOL    HW1 5788   0.713   0.488  11.955
 1297SOL    HW2 5789   0.576   0.533  12.001
 1298SOL     OW 5790   1.389   8.254   1.109
 1298SOL    HW1 5791   1.470   8.300   1.086
 1298SOL    HW2 5792   1.334   8.322   1.149
 1299SOL     OW 5793   9.061  11.912  11.957
 1299SOL    HW1 5794   9.020  11.986  12.001
 1299SOL    HW2 5795   8.994  11.843  11.960
 1300SOL     OW 5796   4.791  14.688   2.002
 1300SOL    HW1 5797   4.827  14.617   1.948
 1300SOL    HW2 5798   4.836  14.767   1.971
 1301SOL     OW 5799   6.139   7.180   0.354
 1301SOL    HW1 5800   6.071   7.200   0.290
 1301SOL    HW2 5801   6.221   7.196   0.308
 1302SOL     OW 5802   7.856   4.853   2.050
 1302SOL    HW1 5803   7.933   4.882   2.099
 1302SOL    HW2 5804   7.889   4.786   1.990
 1303SOL     OW 5805   3.989   2.956   7.255
 1303SOL    HW1 5806   4.039   3.031   7.286
 1303SOL    HW2 5807   3.919   2.993   7.202
 1304SOL     OW 5808  11.103  12.294  11.151
 1304SOL    HW1 5809  11.045  12.260  11.218
 1304SOL    HW2 5810  11.090  12.389  11.155
 1305SOL     OW 5811  13.912   5.684   4.702
 1305SOL    HW1 5812  13.846   5.731   4.651
 1305SOL    HW2 5813  13.989   5.682   4.646
 1306SOL     OW 5814   2.851   5.001   7.691
 1306SOL    HW1 5815   2.819   4.930   7.747
 1306SOL    HW2 5816   2.933   4.967   7.655
 1307SOL     OW 5817  12.113  10.865  14.245
 1307SOL    HW1 5818  12.201  10.849  14.212
 1307SOL    HW2 5819  12.121  10.943  14.300
 1308SOL     OW 5820   5.456   8.606  14.301
 1308SOL    HW1 5821   5.440   8.620  14.394
 1308SOL    HW2 5822   5.509   8.527  14.298
 1309SOL     OW 5823   5.419   2.132   6.518
 1309SOL    HW1 5824   5.373   2.062   6.564
 1309SOL    HW2 5825   5.507   2.098   6.504
 1310SOL     OW 5826  13.165   5.072  10.561
 1310SOL    HW1 5827  13.093   5.030  10.515
 1310SOL    HW2 5828  13.228   5.002  10.578
 1311SOL     OW 5829  14.734   5.020   7.232
 1311SOL    HW1 5830  14.830   5.023   7.236
 1311SOL    HW2 5831  14.712   5.083   7.164
 1312SOL     OW 5832   6.261   4.315   4.150
 1312SOL    HW1 5833   6.341   4.362   4.128
 1312SOL    HW2 5834   6.279   4.276   4.235
 1313SOL     OW 5835   9.820   3.117   3.636
 1313SOL    HW1 5836   9.903   3.165   3.641
 1313SOL    HW2 5837   9.765   3.172   3.580
 1314SOL     OW 5838   5.206   7.398   1.253
 1314SOL    HW1 5839   5.301   7.406   1.259
 1314SOL    HW2 5840   5.173   7.485   1.278
 1315SOL     OW 5841   9.758   8.273  13.664
 1315SOL    HW1 5842   9.757   8.369  13.659
 1315SOL    HW2 5843   9.680   8.247  13.614
 1316SOL     OW 5844   7.500  11.116  13.372
 1316SOL    HW1 5845   7.460  11.133  13.287
 1316SOL    HW2 5846   7.432  11.072  13.423
 1317SOL     OW 5847   8.092   1.181   6.271
 1317SOL    HW1 5848   8.088   1.244   6.342
 1317SOL    HW2 5849   8.146   1.223   6.204
 1318SOL     OW 5850   2.383   1.122   0.890
 1318SOL    HW1 5851   2.373   1.171   0.972
 1318SOL    HW2 5852   2.293   1.100   0.865
 1319SOL     OW 5853   4.048   9.269  10.725
 1319SOL    HW1 5854   3.972   9.239  10.775
 1319SOL    HW2 5855   4.123   9.255  10.784
 1320SOL     OW 5856   1.251   6.259   5.380
 1320SOL    HW1 5857   1.336   6.291   5.410
 1320SOL    HW2 5858   1.266   6.168   5.356
 1321SOL     OW 5859  10.072   1.950   9.186
 1321SOL    HW1 5860  10.146   1.953   9.246
 1321SOL    HW2 5861  10.049   1.857   9.181
 1322SOL     OW 5862   9.242   7.089   9.483
 1322SOL    HW1 5863   9.292   7.160   9.443
 1322SOL    HW2 5864   9.154   7.097   9.445
 1323SOL     OW 5865   8.333   0.570  12.966
 1323SOL    HW1 5866   8.272   0.642  12.981
 1323SOL    HW2 5867   8.369   0.587  12.879
 1324SOL     OW 5868   0.950   4.076   9.255
 1324SOL    HW1 5869   0.918   4.092   9.166
 1324SOL    HW2 5870   0.880   4.027   9.298
 1325SOL     OW 5871   8.374  11.156   5.358
 1325SOL    HW1 5872   8.425  11.189   5.284
 1325SOL    HW2 5873   8.292  11.207   5.355
 1326SOL     OW 5874  14.518   0.416   9.529
 1326SOL    HW1 5875  14.574   0.343   9.555
 1326SOL    HW2 5876  14.488   0.393   9.442
 1327SOL     OW 5877  11.391  12.008   1.140
 1327SOL    HW1 5878  11.478  12.015   1.181
 1327SOL    HW2 5879  11.330  12.012   1.214
 1328SOL     OW 5880   0.997  10.335  13.567
 1328SOL    HW1 5881   0.935  10.268  13.596
 1328SOL    HW2 5882   1.045  10.293  13.495
 1329SOL     OW 5883  10.797   8.449   3.122
 1329SOL    HW1 5884  10.780   8.390   3.195
 1329SOL    HW2 5885  10.889   8.437   3.101
 1330SOL     OW 5886   4.973   3.893  14.835
 1330SOL    HW1 5887   4.999   3.929  14.750
 1330SOL    HW2 5888   5.056   3.877   0.000
 1331SOL     OW 5889  12.143   2.331   9.092
 1331SOL    HW1 5890  12.155   2.313   8.999
 1331SOL    HW2 5891  12.059   2.377   9.097
 1332SOL     OW 5892   6.622   9.926   3.301
 1332SOL    HW1 5893   6.582   9.853   3.348
 1332SOL    HW2 5894   6.716   9.910   3.306
 1333SOL     OW 5895   4.363   3.636   8.962
 1333SOL    HW1 5896   4.397   3.723   8.983
 1333SOL    HW2 5897   4.360   3.591   9.046
 1334SOL     OW 5898  13.159   0.486   1.366
 1334SOL    HW1 5899  13.235   0.443   1.328
 1334SOL    HW2 5900  13.133   0.429   1.439
 1335SOL     OW 5901   0.285  13.470  11.307
 1335SOL    HW1 5902   0.194  13.500  11.303
 1335SOL    HW2 5903   0.279  13.375  11.312
 1336SOL     OW 5904  12.469  12.465  13.187
 1336SOL    HW1 5905  12.524  12.491  13.113
 1336SOL    HW2 5906  12.525  12.407  13.239
 1337SOL     OW 5907   6.638   2.667   5.374
 1337SOL    HW1 5908   6.663   2.589   5.324
 1337SOL    HW2 5909   6.545   2.679   5.354
 1338SOL     OW 5910   9.629   9.723  12.248
 1338SOL    HW1 5911   9.604   9.650  12.191
 1338SOL    HW2 5912   9.602   9.694  12.336
 1339SOL     OW 5913   2.107   6.599   9.668
 1339SOL    HW1 5914   2.054   6.647   9.731
 1339SOL    HW2 5915   2.054   6.522   9.645
 1340SOL     OW 5916  13.539   4.313   5.863
 1340SOL    HW1 5917  13.446   4.291   5.854
 1340SOL    HW2 5918  13.573   4.310   5.773
 1341SOL     OW 5919   3.053   3.792   1.746
 1341SOL    HW1 5920   3.041   3.717   1.689
 1341SOL    HW2 5921   3.129   3.769   1.800
 1342SOL     OW 5922   8.103   8.560   7.702
 1342SOL    HW1 5923   8.177   8.583   7.760
 1342SOL    HW2 5924   8.141   8.500   7.638
 1343SOL     OW 5925   0.300   4.920   4.103
 1343SOL    HW1 5926   0.260   4.871   4.031
 1343SOL    HW2 5927   0.226   4.961   4.148
 1344SOL     OW 5928   8.135   1.599  13.620
 1344SOL    HW1 5929   8.120   1.637  13.534
 1344SOL    HW2 5930   8.088   1.658  13.680
 1345SOL     OW 5931  14.807  12.067  11.030
 1345SOL    HW1 5932  14.762  12.086  10.947
 1345SOL    HW2 5933  14.872  12.000  11.007
 1346SOL     OW 5934   1.803   9.450  10.484
 1346SOL    HW1 5935   1.872   9.509  10.452
 1346SOL    HW2 5936   1.731   9.462  10.422
 1347SOL     OW 5937   3.049  12.833  11.486
 1347SOL    HW1 5938   2.995  12.773  11.538
 1347SOL    HW2 5939   3.136  12.827  11.525
 1348SOL     OW 5940   6.908  11.560   4.423
 1348SOL    HW1 5941   6.814  11.566   4.408
 1348SOL    HW2 5942   6.941  11.647   4.399
 1349SOL     OW 5943   6.976   0.600   1.022
 1349SOL    HW1 5944   7.002   0.508   1.028
 1349SOL    HW2 5945   7.052   0.644   0.985
 1350SOL     OW 5946   4.318  11.924   4.997
 1350SOL    HW1 5947   4.236  11.894   4.956
 1350SOL    HW2 5948   4.332  12.011   4.960
 1351SOL     OW 5949   4.386  10.986   1.366
 1351SOL    HW1 5950   4.382  11.014   1.457
 1351SOL    HW2 5951   4.330  10.908   1.362
 1352SOL     OW 5952  13.443   1.639  13.745
 1352SOL    HW1 5953  13.486   1.554  13.741
 1352SOL    HW2 5954  13.514   1.703  13.740
 1353SOL     OW 5955  11.916  11.675   0.899
 1353SOL    HW1 5956  11.931  11.693   0.806
 1353SOL    HW2 5957  11.859  11.746   0.928
 1354SOL     OW 5958  13.478   8.630   1.792
 1354SOL    HW1 5959  13.488   8.540   1.822
 1354SOL    HW2 5960  13.402   8.663   1.840
 1355SOL     OW 5961   3.426  14.004   0.818
 1355SOL    HW1 5962   3.336  13.984   0.794
 1355SOL    HW2 5963   3.477  13.931   0.782
 1356SOL     OW 5964  11.098   7.996   0.131
 1356SOL    HW1 5965  11.055   8.022   0.212
 1356SOL    HW2 5966  11.033   7.941   0.086
 1357SOL     OW 5967   7.663   4.301   5.239
 1357SOL    HW1 5968   7.597   4.328   5.302
 1357SOL    HW2 5969   7.743   4.289   5.291
 1358SOL     OW 5970   7.584   1.849   9.616
 1358SOL    HW1 5971   7.665   1.861   9.566
 1358SOL    HW2 5972   7.522   1.813   9.553
 1359SOL     OW 5973   3.274  13.618  10.885
 1359SOL    HW1 5974   3.268  13.590  10.976
 1359SOL    HW2 5975   3.368  13.636  10.872
 1360SOL     OW 5976   8.421   2.647   6.891
 1360SOL    HW1 5977   8.441   2.697   6.970
 1360SOL    HW2 5978   8.483   2.680   6.826
 1361SOL     OW 5979   7.838   0.079  10.075
 1361SOL    HW1 5980   7.843   0.032  10.158
 1361SOL    HW2 5981   7.769   0.145  10.088
 1362SOL     OW 5982   7.993  13.320   4.867
 1362SOL    HW1 5983   7.984  13.225   4.861
 1362SOL    HW2 5984   7.920  13.348   4.923
 1363SOL     OW 5985   0.676   3.256   9.366
 1363SOL    HW1 5986   0.628   3.233   9.445
 1363SOL    HW2 5987   0.763   3.217   9.378
 1364SOL     OW 5988   5.904   7.192  10.330
 1364SOL    HW1 5989   5.816   7.161  10.308
 1364SOL    HW2 5990   5.962   7.132  10.284
 1365SOL     OW 5991  13.344   7.370   4.750
 1365SOL    HW1 5992  13.306   7.355   4.837
 1365SOL    HW2 5993  13.428   7.324   4.752
 1366SOL     OW 5994  10.217   9.987  10.038
 1366SOL    HW1 5995  10.294   9.958   9.989
 1366SOL    HW2 5996  10.144   9.974   9.978
 1367SOL     OW 5997   4.846  12.502   7.642
 1367SOL    HW1 5998   4.798  12.439   7.696
 1367SOL    HW2 5999   4.805  12.587   7.662
 1368SOL     OW 6000  10.643   3.634  13.199
 1368SOL    HW1 6001  10.680   3.688  13.269
 1368SOL    HW2 6002  10.716   3.581  13.168
 1369SOL     OW 6003   9.869   1.599   0.206
 1369SOL    HW1 6004   9.836   1.596   0.116
 1369SOL    HW2 6005   9.963   1.611   0.196
 1370SOL     OW 6006   2.308  10.974   7.088
 1370SOL    HW1 6007   2.290  10.897   7.034
 1370SOL    HW2 6008   2.394  10.957   7.126
 1371SOL     OW 6009  10.887  12.781   5.517
 1371SOL    HW1 6010  10.863  12.748   5.604
 1371SOL    HW2 6011  10.875  12.706   5.459
 1372SOL     OW 6012   1.937  13.251   7.745
 1372SOL    HW1 6013   1.944  13.162   7.713
 1372SOL    HW2 6014   2.013  13.263   7.803
 1373SOL     OW 6015   8.716   6.335   9.193
 1373SOL    HW1 6016   8.674   6.421   9.199
 1373SOL    HW2 6017   8.771   6.341   9.115
 1374SOL     OW 6018  14.513  12.506   8.215
 1374SOL    HW1 6019  14.480  12.542   8.298
 1374SOL    HW2 6020  14.534  12.415   8.235
 1375SOL     OW 6021   8.786   4.945   8.332
 1375SOL    HW1 6022   8.820   4.946   8.243
 1375SOL    HW2 6023   8.691   4.956   8.322
 1376SOL     OW 6024   2.896  14.271  13.335
 1376SOL    HW1 6025   2.860  14.251  13.421
 1376SOL    HW2 6026   2.964  14.205  13.321
 1377SOL     OW 6027  10.327   0.503   1.691
 1377SOL    HW1 6028  10.411   0.522   1.650
 1377SOL    HW2 6029  10.304   0.585   1.736
 1378SOL     OW 6030  11.598   1.784  10.394
 1378SOL    HW1 6031  11.614   1.691  10.409
 1378SOL    HW2 6032  11.506   1.796  10.416
 1379SOL     OW 6033   4.571   6.093  13.695
 1379SOL    HW1 6034   4.572   6.187  13.712
 1379SOL    HW2 6035   4.584   6.054  13.781
 1380SOL     OW 6036   0.893   5.094  11.914
 1380SOL    HW1 6037   0.840   5.023  11.950
 1380SOL    HW2 6038   0.958   5.050  11.859
 1381SOL     OW 6039   0.757  13.993  10.858
 1381SOL    HW1 6040   0.689  13.945  10.905
 1381SOL    HW2 6041   0.828  13.930  10.847
 1382SOL     OW 6042  10.309  11.873  13.873
 1382SOL    HW1 6043  10.303  11.966  13.852
 1382SOL    HW2 6044  10.248  11.860  13.945
 1383SOL     OW 6045   8.913   0.792  12.189
 1383SOL    HW1 6046   8.872   0.832  12.112
 1383SOL    HW2 6047   8.893   0.699  12.181
 1384SOL     OW 6048   1.569   2.447   9.013
 1384SOL    HW1 6049   1.641   2.496   9.052
 1384SOL    HW2 6050   1.583   2.357   9.043
 1385SOL     OW 6051  11.559  14.435   2.799
 1385SOL    HW1 6052  11.490  14.416   2.862
 1385SOL    HW2 6053  11.558  14.531   2.791
 1386SOL     OW 6054   3.176   6.251   9.567
 1386SOL    HW1 6055   3.230   6.192   9.514
 1386SOL    HW2 6056   3.098   6.265   9.514
 1387SOL     OW 6057   8.623  14.282  11.560
 1387SOL    HW1 6058   8.709  14.313  11.591
 1387SOL    HW2 6059   8.623  14.305  11.467
 1388SOL     OW 6060  13.860  11.990   2.372
 1388SOL    HW1 6061  13.937  12.005   2.317
 1388SOL    HW2 6062  13.861  12.061   2.435
 1389SOL     OW 6063  14.316  13.174   5.698
 1389SOL    HW1 6064  14.242  13.158   5.639
 1389SOL    HW2 6065  14.370  13.237   5.651
 1390SOL     OW 6066   6.087   3.415   2.982
 1390SOL    HW1 6067   6.057   3.495   3.025
 1390SOL    HW2 6068   6.071   3.346   3.046
 1391SOL     OW 6069   0.674   8.926  11.562
 1391SOL    HW1 6070   0.589   8.890  11.586
 1391SOL    HW2 6071   0.733   8.851  11.565
 1392SOL     OW 6072   6.138   9.620   2.382
 1392SOL    HW1 6073   6.156   9.528   2.360
 1392SOL    HW2 6074   6.119   9.619   2.476
 1393SOL     OW 6075  10.452   1.227   6.548
 1393SOL    HW1 6076  10.402   1.242   6.628
 1393SOL    HW2 6077  10.453   1.312   6.504
 1394SOL     OW 6078   6.820   1.685  10.306
 1394SOL    HW1 6079   6.908   1.681  10.345
 1394SOL    HW2 6080   6.835   1.712  10.215
 1395SOL     OW 6081   5.274   4.245   2.887
 1395SOL    HW1 6082   5.274   4.176   2.953
 1395SOL    HW2 6083   5.189   4.236   2.843
 1396SOL     OW 6084   6.096  10.729   7.432
 1396SOL    HW1 6085   6.098  10.655   7.371
 1396SOL    HW2 6086   6.113  10.806   7.377
 1397SOL     OW 6087   1.643  14.859   2.620
 1397SOL    HW1 6088   1.555  14.855   2.584
 1397SOL    HW2 6089   1.635   0.036   2.697
 1398SOL     OW 6090  14.706  13.995   1.351
 1398SOL    HW1 6091  14.801  13.987   1.361
 1398SOL    HW2 6092  14.694  14.037   1.266
 1399SOL     OW 6093  14.603   8.812  14.084
 1399SOL    HW1 6094  14.525   8.849  14.045
 1399SOL    HW2 6095  14.572   8.733  14.129
 1400SOL     OW 6096   4.201   5.641   9.075
 1400SOL    HW1 6097   4.112   5.610   9.089
 1400SOL    HW2 6098   4.222   5.614   8.986
 1401SOL     OW 6099   6.558  12.044  13.557
 1401SOL    HW1 6100   6.630  11.981  13.564
 1401SOL    HW2 6101   6.602  12.129  13.553
 1402SOL     OW 6102   0.375   7.845  11.561
 1402SOL    HW1 6103   0.316   7.912  11.525
 1402SOL    HW2 6104   0.324   7.806  11.632
 1403SOL     OW 6105   0.306  11.537  13.847
 1403SOL    HW1 6106   0.219  11.523  13.883
 1403SOL    HW2 6107   0.297  11.518  13.753
 1404SOL     OW 6108  12.484   1.320   3.397
 1404SOL    HW1 6109  12.462   1.275   3.479
 1404SOL    HW2 6110  12.422   1.392   3.392
 1405SOL     OW 6111   5.415   1.823   4.151
 1405SOL    HW1 6112   5.499   1.811   4.195
 1405SOL    HW2 6113   5.423   1.774   4.069
 1406SOL     OW 6114  13.683   4.391   8.235
 1406SOL    HW1 6115  13.662   4.484   8.242
 1406SOL    HW2 6116  13.615   4.355   8.179
 1407SOL     OW 6117  14.225   7.250   8.177
 1407SOL    HW1 6118  14.235   7.163   8.138
 1407SOL    HW2 6119  14.153   7.290   8.129
 1408SOL     OW 6120  12.109   3.404   3.781
 1408SOL    HW1 6121  12.026   3.402   3.734
 1408SOL    HW2 6122  12.092   3.356   3.862
 1409SOL     OW 6123   1.638  12.031   7.648
 1409SOL    HW1 6124   1.577  11.967   7.685
 1409SOL    HW2 6125   1.612  12.115   7.686
 1410SOL     OW 6126  13.204   4.459   6.042
 1410SOL    HW1 6127  13.292   4.485   6.015
 1410SOL    HW2 6128  13.147   4.486   5.969
 1411SOL     OW 6129   3.248   8.798   9.080
 1411SOL    HW1 6130   3.194   8.825   9.006
 1411SOL    HW2 6131   3.223   8.707   9.096
 1412SOL     OW 6132   7.856   3.105   6.849
 1412SOL    HW1 6133   7.944   3.075   6.868
 1412SOL    HW2 6134   7.832   3.159   6.924
 1413SOL     OW 6135   3.129   3.214   6.025
 1413SOL    HW1 6136   3.124   3.143   6.089
 1413SOL    HW2 6137   3.042   3.254   6.028
 1414SOL     OW 6138   5.695   2.749  12.299
 1414SOL    HW1 6139   5.658   2.665  12.328
 1414SOL    HW2 6140   5.662   2.813  12.362
 1415SOL     OW 6141   2.954   6.253  13.182
 1415SOL    HW1 6142   3.048   6.238  13.188
 1415SOL    HW2 6143   2.916   6.199  13.251
 1416SOL     OW 6144   8.445  12.950   0.049
 1416SOL    HW1 6145   8.503  13.016   0.087
 1416SOL    HW2 6146   8.404  12.909   0.125
 1417SOL     OW 6147   9.132   1.223   5.069
 1417SOL    HW1 6148   9.205   1.284   5.069
 1417SOL    HW2 6149   9.134   1.183   5.156
 1418SOL     OW 6150   4.423  11.781   5.247
 1418SOL    HW1 6151   4.512  11.775   5.281
 1418SOL    HW2 6152   4.421  11.862   5.196
 1419SOL     OW 6153   2.290  10.740  12.939
 1419SOL    HW1 6154   2.201  10.704  12.940
 1419SOL    HW2 6155   2.322  10.729  13.028
 1420SOL     OW 6156  12.358  12.512   4.300
 1420SOL    HW1 6157  12.307  12.453   4.245
 1420SOL    HW2 6158  12.297  12.582   4.323
 1421SOL     OW 6159   3.906   2.520   9.947
 1421SOL    HW1 6160   3.914   2.427   9.924
 1421SOL    HW2 6161   3.885   2.563   9.864
 1422SOL     OW 6162   3.374  12.797   6.429
 1422SOL    HW1 6163   3.341  12.836   6.348
 1422SOL    HW2 6164   3.336  12.851   6.499
 1423SOL     OW 6165  12.184   9.232   7.764
 1423SOL    HW1 6166  12.226   9.153   7.800
 1423SOL    HW2 6167  12.255   9.282   7.725
 1424SOL     OW 6168  10.295   7.181   7.178
 1424SOL    HW1 6169  10.267   7.254   7.234
 1424SOL    HW2 6170  10.242   7.107   7.208
 1425SOL     OW 6171   4.881  12.712  11.219
 1425SOL    HW1 6172   4.901  12.645  11.154
 1425SOL    HW2 6173   4.805  12.758  11.184
 1426SOL     OW 6174   2.471  10.396   8.137
 1426SOL    HW1 6175   2.428  10.358   8.060
 1426SOL    HW2 6176   2.459  10.331   8.206
 1427SOL     OW 6177   2.010  12.629  11.389
 1427SOL    HW1 6178   1.974  12.621  11.478
 1427SOL    HW2 6179   2.060  12.549  11.376
 1428SOL     OW 6180   7.891  14.343   7.792
 1428SOL    HW1 6181   7.876  14.435   7.772
 1428SOL    HW2 6182   7.969  14.319   7.742
 1429SOL     OW 6183   4.306  13.932   5.974
 1429SOL    HW1 6184   4.364  13.986   6.029
 1429SOL    HW2 6185   4.234  13.991   5.951
 1430SOL     OW 6186   6.071   8.752  10.358
 1430SOL    HW1 6187   6.113   8.738  10.274
 1430SOL    HW2 6188   5.996   8.692  10.357
 1431SOL     OW 6189  11.135   3.705  13.651
 1431SOL    HW1 6190  11.086   3.640  13.702
 1431SOL    HW2 6191  11.224   3.698  13.685
 1432SOL     OW 6192  11.886   2.993  11.894
 1432SOL    HW1 6193  11.798   2.960  11.912
 1432SOL    HW2 6194  11.916   3.028  11.978
 1433SOL     OW 6195  12.280   0.991  14.215
 1433SOL    HW1 6196  12.223   0.932  14.266
 1433SOL    HW2 6197  12.363   0.943  14.208
 1434SOL     OW 6198  14.428  13.011   7.113
 1434SOL    HW1 6199  14.430  13.002   7.209
 1434SOL    HW2 6200  14.480  12.937   7.081
 1435SOL     OW 6201   0.819   3.411   5.533
 1435SOL    HW1 6202   0.753   3.457   5.481
 1435SOL    HW2 6203   0.898   3.465   5.525
 1436SOL     OW 6204   5.752  12.721   2.436
 1436SOL    HW1 6205   5.776  12.803   2.479
 1436SOL    HW2 6206   5.657  12.724   2.429
 1437SOL     OW 6207   3.366  11.934   0.606
 1437SOL    HW1 6208   3.386  11.962   0.695
 1437SOL    HW2 6209   3.318  12.007   0.567
 1438SOL     OW 6210  14.810  12.865   6.130
 1438SOL    HW1 6211  14.848  12.783   6.099
 1438SOL    HW2 6212  14.748  12.891   6.061
 1439SOL     OW 6213   7.179   9.354   1.106
 1439SOL    HW1 6214   7.141   9.286   1.051
 1439SOL    HW2 6215   7.117   9.427   1.100
 1440SOL     OW 6216  12.703   9.841   4.732
 1440SOL    HW1 6217  12.720   9.763   4.785
 1440SOL    HW2 6218  12.672   9.807   4.648
 1441SOL     OW 6219  11.261   4.795   7.242
 1441SOL    HW1 6220  11.267   4.859   7.312
 1441SOL    HW2 6221  11.179   4.749   7.258
 1442SOL     OW 6222   2.571   4.222   0.876
 1442SOL    HW1 6223   2.599   4.141   0.833
 1442SOL    HW2 6224   2.476   4.219   0.875
 1443SOL     OW 6225   9.601   3.743   4.430
 1443SOL    HW1 6226   9.556   3.806   4.487
 1443SOL    HW2 6227   9.565   3.761   4.343
 1444SOL     OW 6228  14.498  11.534   4.086
 1444SOL    HW1 6229  14.409  11.567   4.100
 1444SOL    HW2 6230  14.505  11.459   4.145
 1445SOL     OW 6231   5.159  11.768  10.957
 1445SOL    HW1 6232   5.192  11.773  10.867
 1445SOL    HW2 6233   5.234  11.795  11.010
 1446SOL     OW 6234   3.245  14.779   7.253
 1446SOL    HW1 6235   3.337  14.758   7.270
 1446SOL    HW2 6236   3.239  14.784   7.158
 1447SOL     OW 6237   1.924   6.787   8.648
 1447SOL    HW1 6238   1.940   6.722   8.717
 1447SOL    HW2 6239   2.008   6.832   8.637
 1448SOL     OW 6240   4.695   0.055   8.037
 1448SOL    HW1 6241   4.755  14.874   8.080
 1448SOL    HW2 6242   4.721   0.052   7.944
 1449SOL     OW 6243   5.716   9.644   5.162
 1449SOL    HW1 6244   5.683   9.710   5.101
 1449SOL    HW2 6245   5.665   9.657   5.242
 1450SOL     OW 6246   7.601  14.119  10.756
 1450SOL    HW1 6247   7.613  14.167  10.838
 1450SOL    HW2 6248   7.666  14.156  10.696
 1451SOL     OW 6249   2.835   2.638   3.260
 1451SOL    HW1 6250   2.915   2.642   3.312
 1451SOL    HW2 6251   2.792   2.558   3.289
 1452SOL     OW 6252   8.066   3.402  11.910
 1452SOL    HW1 6253   8.009   3.479  11.915
 1452SOL    HW2 6254   8.152   3.438  11.888
 1453SOL     OW 6255   6.896  13.515  14.487
 1453SOL    HW1 6256   6.917  13.443  14.547
 1453SOL    HW2 6257   6.840  13.573  14.537
 1454SOL     OW 6258  12.508   0.493   8.766
 1454SOL    HW1 6259  12.480   0.454   8.683
 1454SOL    HW2 6260  12.482   0.429   8.832
 1455SOL     OW 6261  13.256   3.770   7.471
 1455SOL    HW1 6262  13.282   3.704   7.536
 1455SOL    HW2 6263  13.310   3.751   7.394
 1456SOL     OW 6264   4.600   6.845  10.857
 1456SOL    HW1 6265   4.522   6.833  10.803
 1456SOL    HW2 6266   4.593   6.935  10.888
 1457SOL     OW 6267   9.186   3.991   9.643
 1457SOL    HW1 6268   9.159   4.049   9.714
 1457SOL    HW2 6269   9.109   3.984   9.587
 1458SOL     OW 6270   6.317   9.577   0.081
 1458SOL    HW1 6271   6.336   9.489   0.048
 1458SOL    HW2 6272   6.222   9.582   0.082
 1459SOL     OW 6273  14.267   4.086  12.388
 1459SOL    HW1 6274  14.218   4.004  12.378
 1459SOL    HW2 6275  14.274   4.098  12.482
 1460SOL     OW 6276   5.640   2.433   1.768
 1460SOL    HW1 6277   5.544   2.430   1.770
 1460SOL    HW2 6278   5.661   2.522   1.798
 1461SOL     OW 6279   9.055   0.391   1.711
 1461SOL    HW1 6280   9.034   0.299   1.694
 1461SOL    HW2 6281   9.079   0.394   1.804
 1462SOL     OW 6282   3.955   6.009   0.997
 1462SOL    HW1 6283   3.905   6.066   1.056
 1462SOL    HW2 6284   4.032   5.985   1.048
 1463SOL     OW 6285   3.729   8.747  14.517
 1463SOL    HW1 6286   3.736   8.717  14.608
 1463SOL    HW2 6287   3.790   8.820  14.511
 1464SOL     OW 6288  11.387   3.995   7.755
 1464SOL    HW1 6289  11.481   3.980   7.753
 1464SOL    HW2 6290  11.362   3.978   7.846
 1465SOL     OW 6291   2.447  14.183   2.064
 1465SOL    HW1 6292   2.356  14.187   2.034
 1465SOL    HW2 6293   2.451  14.244   2.137
 1466SOL     OW 6294   1.940   8.069  13.525
 1466SOL    HW1 6295   1.974   8.060  13.614
 1466SOL    HW2 6296   1.845   8.078  13.536
 1467SOL     OW 6297   1.540   9.827   7.160
 1467SOL    HW1 6298   1.619   9.784   7.129
 1467SOL    HW2 6299   1.563   9.920   7.165
 1468SOL     OW 6300   0.968   5.648   0.087
 1468SOL    HW1 6301   1.004   5.687   0.167
 1468SOL    HW2 6302   0.916   5.718   0.048
 1469SOL     OW 6303   5.166   3.518   2.005
 1469SOL    HW1 6304   5.199   3.608   2.013
 1469SOL    HW2 6305   5.106   3.507   2.079
 1470SOL     OW 6306  12.084   9.000   3.231
 1470SOL    HW1 6307  12.116   8.938   3.296
 1470SOL    HW2 6308  12.124   9.083   3.256
 1471SOL     OW 6309  14.693   8.932   4.578
 1471SOL    HW1 6310  14.633   8.879   4.525
 1471SOL    HW2 6311  14.667   9.022   4.560
 1472SOL     OW 6312   2.468  10.882   0.315
 1472SOL    HW1 6313   2.488  10.905   0.225
 1472SOL    HW2 6314   2.544  10.830   0.344
 1473SOL     OW 6315  14.263  11.139   8.399
 1473SOL    HW1 6316  14.254  11.057   8.446
 1473SOL    HW2 6317  14.357  11.158   8.402
 1474SOL     OW 6318  12.193  14.728   1.601
 1474SOL    HW1 6319  12.231  14.642   1.584
 1474SOL    HW2 6320  12.253  14.768   1.665
 1475SOL     OW 6321   8.555   0.116   0.552
 1475SOL    HW1 6322   8.577   0.199   0.594
 1475SOL    HW2 6323   8.468   0.131   0.515
 1476SOL     OW 6324   7.791   6.605  13.023
 1476SOL    HW1 6325   7.764   6.559  12.944
 1476SOL    HW2 6326   7.834   6.685  12.992
 1477SOL     OW 6327  13.107   8.991   7.589
 1477SOL    HW1 6328  13.040   8.950   7.643
 1477SOL    HW2 6329  13.131   9.071   7.636
 1478SOL     OW 6330  13.582   0.732   0.708
 1478SOL    HW1 6331  13.493   0.766   0.712
 1478SOL    HW2 6332  13.609   0.746   0.618
 1479SOL     OW 6333   0.420   8.518  12.090
 1479SOL    HW1 6334   0.368   8.516  12.009
 1479SOL    HW2 6335   0.355   8.510  12.160
 1480SOL     OW 6336   7.286  11.693   0.238
 1480SOL    HW1 6337   7.227  11.758   0.277
 1480SOL    HW2 6338   7.229  11.617   0.221
 1481SOL     OW 6339  11.136   5.042  12.870
 1481SOL    HW1 6340  11.105   5.105  12.805
 1481SOL    HW2 6341  11.139   4.959  12.823
 1482SOL     OW 6342  14.521  14.312  13.705
 1482SOL    HW1 6343  14.491  14.221  13.716
 1482SOL    HW2 6344  14.444  14.358  13.671
 1483SOL     OW 6345  10.902   1.907   8.185
 1483SOL    HW1 6346  10.863   1.919   8.099
 1483SOL    HW2 6347  10.989   1.871   8.167
 1484SOL     OW 6348   2.056   9.640  12.743
 1484SOL    HW1 6349   1.989   9.571  12.747
 1484SOL    HW2 6350   2.006   9.720  12.725
 1485SOL     OW 6351   6.739  10.791  11.020
 1485SOL    HW1 6352   6.774  10.838  11.096
 1485SOL    HW2 6353   6.765  10.700  11.034
 1486SOL     OW 6354   6.008  11.338   5.760
 1486SOL    HW1 6355   6.016  11.433   5.768
 1486SOL    HW2 6356   5.935  11.325   5.700
 1487SOL     OW 6357   2.174  12.913   4.347
 1487SOL    HW1 6358   2.238  12.980   4.372
 1487SOL    HW2 6359   2.095  12.935   4.396
 1488SOL     OW 6360  12.268   5.870  14.688
 1488SOL    HW1 6361  12.177   5.852  14.665
 1488SOL    HW2 6362  12.270   5.871  14.783
 1489SOL     OW 6363   0.037   8.999   7.641
 1489SOL    HW1 6364  14.874   9.031   7.721
 1489SOL    HW2 6365   0.070   9.078   7.598
 1490SOL     OW 6366   8.994   7.128  14.644
 1490SOL    HW1 6367   9.035   7.133  14.557
 1490SOL    HW2 6368   9.060   7.087  14.699
 1491SOL     OW 6369   9.669   0.381   7.967
 1491SOL    HW1 6370   9.656   0.369   7.873
 1491SOL    HW2 6371   9.631   0.303   8.006
 1492SOL     OW 6372   3.182   1.818  10.125
 1492SOL    HW1 6373   3.140   1.839  10.042
 1492SOL    HW2 6374   3.144   1.879  10.188
 1493SOL     OW 6375  11.029   3.764  12.746
 1493SOL    HW1 6376  10.996   3.678  12.722
 1493SOL    HW2 6377  11.085   3.789  12.673
 1494SOL     OW 6378   6.468   4.185  10.915
 1494SOL    HW1 6379   6.519   4.154  10.840
 1494SOL    HW2 6380   6.522   4.253  10.954
 1495SOL     OW 6381   7.382   5.630  10.818
 1495SOL    HW1 6382   7.291   5.645  10.792
 1495SOL    HW2 6383   7.433   5.693  10.768
 1496SOL     OW 6384   1.476   0.222  14.476
 1496SOL    HW1 6385   1.462   0.134  14.509
 1496SOL    HW2 6386   1.390   0.263  14.478
 1497SOL     OW 6387  12.800   8.517  11.105
 1497SOL    HW1 6388  12.884   8.517  11.058
 1497SOL    HW2 6389  12.778   8.424  11.112
 1498SOL     OW 6390   9.556   9.534   2.444
 1498SOL    HW1 6391   9.520   9.614   2.408
 1498SOL    HW2 6392   9.604   9.562   2.523
 1499SOL     OW 6393   7.875  14.393   1.357
 1499SOL    HW1 6394   7.910  14.398   1.268
 1499SOL    HW2 6395   7.782  14.412   1.347
 1500SOL     OW 6396  11.017  10.762  13.469
 1500SOL    HW1 6397  10.997  10.760  13.375
 1500SOL    HW2 6398  11.109  10.788  13.473
 1501SOL     OW 6399   7.737   0.551   1.844
 1501SOL    HW1 6400   7.709   0.640   1.823
 1501SOL    HW2 6401   7.833   0.555   1.845
 1502SOL     OW 6402  13.339  10.603  14.025
 1502SOL    HW1 6403  13.373  10.692  14.012
 1502SOL    HW2 6404  13.418  10.549  14.031
 1503SOL     OW 6405   7.615  10.172  10.965
 1503SOL    HW1 6406   7.553  10.134  11.027
 1503SOL    HW2 6407   7.700  10.165  11.008
 1504SOL     OW 6408   2.085   3.150  14.827
 1504SOL    HW1 6409   2.113   3.188  14.744
 1504SOL    HW2 6410   2.120   3.061  14.825
 1505SOL     OW 6411  10.194   2.589   1.743
 1505SOL    HW1 6412  10.242   2.622   1.667
 1505SOL    HW2 6413  10.167   2.500   1.717
 1506SOL     OW 6414   8.337   2.927   9.651
 1506SOL    HW1 6415   8.297   3.013   9.664
 1506SOL    HW2 6416   8.279   2.866   9.696
 1507SOL     OW 6417   3.080  14.322   2.897
 1507SOL    HW1 6418   3.028  14.381   2.842
 1507SOL    HW2 6419   3.170  14.353   2.887
 1508SOL     OW 6420   7.734  12.424   9.525
 1508SOL    HW1 6421   7.733  12.408   9.431
 1508SOL    HW2 6422   7.732  12.337   9.565
 1509SOL     OW 6423  14.011   1.514  10.214
 1509SOL    HW1 6424  14.074   1.476  10.275
 1509SOL    HW2 6425  13.944   1.447  10.203
 1510SOL     OW 6426   8.268  11.051  10.480
 1510SOL    HW1 6427   8.359  11.037  10.508
 1510SOL    HW2 6428   8.267  11.025  10.388
 1511SOL     OW 6429  10.707  12.383   1.395
 1511SOL    HW1 6430  10.733  12.300   1.433
 1511SOL    HW2 6431  10.629  12.363   1.344
 1512SOL     OW 6432   7.591   9.679   2.581
 1512SOL    HW1 6433   7.661   9.614   2.580
 1512SOL    HW2 6434   7.554   9.675   2.493
 1513SOL     OW 6435   8.123  14.499  12.748
 1513SOL    HW1 6436   8.045  14.535  12.791
 1513SOL    HW2 6437   8.196  14.546  12.790
 1514SOL     OW 6438  11.374   1.960   0.268
 1514SOL    HW1 6439  11.424   1.992   0.343
 1514SOL    HW2 6440  11.438   1.959   0.196
 1515SOL     OW 6441   0.836  10.808   4.936
 1515SOL    HW1 6442   0.863  10.893   4.902
 1515SOL    HW2 6443   0.773  10.828   5.005
 1516SOL     OW 6444  14.803   7.253   9.120
 1516SOL    HW1 6445  14.782   7.294   9.205
 1516SOL    HW2 6446  14.718   7.237   9.080
 1517SOL     OW 6447   8.965   7.038  10.129
 1517SOL    HW1 6448   9.058   7.044  10.110
 1517SOL    HW2 6449   8.959   7.048  10.225
 1518SOL     OW 6450   1.141   3.950  10.064
 1518SOL    HW1 6451   1.193   3.883  10.108
 1518SOL    HW2 6452   1.187   3.966   9.982
 1519SOL     OW 6453  12.578   7.702  11.664
 1519SOL    HW1 6454  12.542   7.790  11.672
 1519SOL    HW2 6455  12.545   7.669  11.580
 1520SOL     OW 6456  12.741  13.812  14.532
 1520SOL    HW1 6457  12.694  13.886  14.570
 1520SOL    HW2 6458  12.680  13.738  14.541
 1521SOL     OW 6459   3.493  13.669  10.624
 1521SOL    HW1 6460   3.554  13.604  10.589
 1521SOL    HW2 6461   3.431  13.685  10.552
 1522SOL     OW 6462   5.582   0.192   8.494
 1522SOL    HW1 6463   5.529   0.265   8.462
 1522SOL    HW2 6464   5.571   0.123   8.429
 1523SOL     OW 6465  14.060  13.673   9.526
 1523SOL    HW1 6466  14.120  13.614   9.481
 1523SOL    HW2 6467  14.050  13.634   9.613
 1524SOL     OW 6468   5.962  14.661  11.984
 1524SOL    HW1 6469   6.017  14.633  11.911
 1524SOL    HW2 6470   6.017  14.722  12.033
 1525SOL     OW 6471  11.738   2.969   9.564
 1525SOL    HW1 6472  11.788   2.897   9.605
 1525SOL    HW2 6473  11.674   2.924   9.508
 1526SOL     OW 6474  10.391   9.680   4.716
 1526SOL    HW1 6475  10.369   9.744   4.783
 1526SOL    HW2 6476  10.452   9.726   4.658
 1527SOL     OW 6477   5.423   8.545  13.438
 1527SOL    HW1 6478   5.425   8.470  13.497
 1527SOL    HW2 6479   5.503   8.594  13.459
 1528SOL     OW 6480  13.866   2.376   7.966
 1528SOL    HW1 6481  13.775   2.355   7.986
 1528SOL    HW2 6482  13.863   2.422   7.882
 1529SOL     OW 6483   1.642   8.390   5.822
 1529SOL    HW1 6484   1.574   8.443   5.779
 1529SOL    HW2 6485   1.683   8.342   5.750
 1530SOL     OW 6486   6.246   7.994  11.600
 1530SOL    HW1 6487   6.217   8.082  11.574
 1530SOL    HW2 6488   6.270   7.952  11.517
 1531SOL     OW 6489   1.646   2.653   9.498
 1531SOL    HW1 6490   1.628   2.740   9.533
 1531SOL    HW2 6491   1.668   2.668   9.406
 1532SOL     OW 6492   2.601   5.378   1.709
 1532SOL    HW1 6493   2.532   5.441   1.692
 1532SOL    HW2 6494   2.653   5.377   1.628
 1533SOL     OW 6495   7.497   1.413   4.995
 1533SOL    HW1 6496   7.547   1.486   4.959
 1533SOL    HW2 6497   7.415   1.454   5.025
 1534SOL     OW 6498  11.791  13.684   9.791
 1534SOL    HW1 6499  11.767  13.774   9.770
 1534SOL    HW2 6500  11.838  13.690   9.874
 1535SOL     OW 6501  14.271   5.644   1.828
 1535SOL    HW1 6502  14.183   5.646   1.868
 1535SOL    HW2 6503  14.313   5.567   1.866
 1536SOL     OW 6504   8.731  11.032  12.909
 1536SOL    HW1 6505   8.753  11.070  12.994
 1536SOL    HW2 6506   8.681  10.954  12.929
 1537SOL     OW 6507   7.076   1.987  10.587
 1537SOL    HW1 6508   7.082   2.003  10.493
 1537SOL    HW2 6509   7.025   2.060  10.621
 1538SOL     OW 6510  12.250   1.982   9.539
 1538SOL    HW1 6511  12.240   2.056   9.479
 1538SOL    HW2 6512  12.312   1.924   9.495
 1539SOL     OW 6513   1.860   0.344  11.164
 1539SOL    HW1 6514   1.856   0.404  11.238
 1539SOL    HW2 6515   1.779   0.294  11.168
 1540SOL     OW 6516  14.460  12.888   2.553
 1540SOL    HW1 6517  14.550  12.887   2.520
 1540SOL    HW2 6518  14.442  12.796   2.574
 1541SOL     OW 6519   8.629   0.047   4.601
 1541SOL    HW1 6520   8.551   0.093   4.570
 1541SOL    HW2 6521   8.700   0.111   4.591
 1542SOL     OW 6522   6.095  11.335   1.846
 1542SOL    HW1 6523   6.033  11.390   1.894
 1542SOL    HW2 6524   6.167  11.320   1.908
 1543SOL     OW 6525   8.219  13.119   8.785
 1543SOL    HW1 6526   8.230  13.197   8.838
 1543SOL    HW2 6527   8.124  13.108   8.777
 1544SOL     OW 6528  10.287   1.417  13.794
 1544SOL    HW1 6529  10.213   1.449  13.741
 1544SOL    HW2 6530  10.294   1.480  13.865
 1545SOL     OW 6531   3.453  14.347   4.152
 1545SOL    HW1 6532   3.541  14.353   4.114
 1545SOL    HW2 6533   3.468  14.325   4.243
 1546SOL     OW 6534  14.087   5.551  12.075
 1546SOL    HW1 6535  14.088   5.511  12.162
 1546SOL    HW2 6536  13.996   5.543  12.046
 1547SOL     OW 6537  12.083   2.014   6.104
 1547SOL    HW1 6538  12.037   1.954   6.163
 1547SOL    HW2 6539  12.173   2.015   6.135
 1548SOL     OW 6540   0.352  12.702  10.367
 1548SOL    HW1 6541   0.422  12.700  10.302
 1548SOL    HW2 6542   0.273  12.724  10.317
 1549SOL     OW 6543  10.734   5.493  11.889
 1549SOL    HW1 6544  10.683   5.415  11.869
 1549SOL    HW2 6545  10.677   5.566  11.864
 1550SOL     OW 6546   3.177   7.879   3.352
 1550SOL    HW1 6547   3.102   7.822   3.332
 1550SOL    HW2 6548   3.190   7.868   3.447
 1551SOL     OW 6549   8.579  13.511   1.671
 1551SOL    HW1 6550   8.588  13.495   1.764
 1551SOL    HW2 6551   8.623  13.595   1.657
 1552SOL     OW 6552   8.919   0.353   5.926
 1552SOL    HW1 6553   9.004   0.392   5.944
 1552SOL    HW2 6554   8.926   0.264   5.961
 1553SOL     OW 6555   5.745  11.227  11.331
 1553SOL    HW1 6556   5.674  11.244  11.269
 1553SOL    HW2 6557   5.749  11.306  11.385
 1554SOL     OW 6558   1.446   0.482   1.111
 1554SOL    HW1 6559   1.470   0.560   1.061
 1554SOL    HW2 6560   1.368   0.508   1.161
 1555SOL     OW 6561  10.461   9.062   2.890
 1555SOL    HW1 6562  10.524   9.088   2.957
 1555SOL    HW2 6563  10.391   9.127   2.897
 1556SOL     OW 6564   7.029   7.869   2.436
 1556SOL    HW1 6565   7.117   7.846   2.405
 1556SOL    HW2 6566   7.042   7.898   2.526
 1557SOL     OW 6567   7.324   0.239  14.240
 1557SOL    HW1 6568   7.380   0.198  14.175
 1557SOL    HW2 6569   7.263   0.170  14.266
 1558SOL     OW 6570  10.051  14.324  10.068
 1558SOL    HW1 6571  10.119  14.385  10.098
 1558SOL    HW2 6572  10.079  14.298   9.980
 1559SOL     OW 6573  14.482  12.707   6.459
 1559SOL    HW1 6574  14.406  12.753   6.424
 1559SOL    HW2 6575  14.452  12.671   6.543
 1560SOL     OW 6576  10.117  12.312   1.424
 1560SOL    HW1 6577  10.146  12.330   1.335
 1560SOL    HW2 6578  10.039  12.257   1.413
 1561SOL     OW 6579   1.137   0.027  10.917
 1561SOL    HW1 6580   1.163   0.025  10.825
 1561SOL    HW2 6581   1.070  14.838  10.925
 1562SOL     OW 6582   6.716   7.129   1.387
 1562SOL    HW1 6583   6.729   7.066   1.316
 1562SOL    HW2 6584   6.718   7.215   1.344
 1563SOL     OW 6585   4.826   9.770   6.015
 1563SOL    HW1 6586   4.762   9.734   6.075
 1563SOL    HW2 6587   4.842   9.859   6.046
 1564SOL     OW 6588  12.992   5.141   8.638
 1564SOL    HW1 6589  12.974   5.048   8.650
 1564SOL    HW2 6590  12.925   5.170   8.575
 1565SOL     OW 6591   8.238   8.385   8.419
 1565SOL    HW1 6592   8.225   8.416   8.509
 1565SOL    HW2 6593   8.324   8.420   8.394
 1566SOL     OW 6594   0.421   7.245  13.108
 1566SOL    HW1 6595   0.469   7.321  13.140
 1566SOL    HW2 6596   0.338   7.280  13.075
 1567SOL     OW 6597  12.729   7.610  10.633
 1567SOL    HW1 6598  12.722   7.589  10.726
 1567SOL    HW2 6599  12.824   7.615  10.617
 1568SOL     OW 6600   6.688   5.720  13.059
 1568SOL    HW1 6601   6.754   5.744  12.994
 1568SOL    HW2 6602   6.733   5.726  13.143
 1569SOL     OW 6603   7.528   3.251   6.100
 1569SOL    HW1 6604   7.602   3.312   6.095
 1569SOL    HW2 6605   7.486   3.256   6.015
 1570SOL     OW 6606   9.255  13.833  12.999
 1570SOL    HW1 6607   9.249  13.925  13.024
 1570SOL    HW2 6608   9.320  13.832  12.928
 1571SOL     OW 6609  11.514  14.078   0.450
 1571SOL    HW1 6610  11.609  14.071   0.449
 1571SOL    HW2 6611  11.487  14.017   0.520
 1572SOL     OW 6612  10.717   2.019  14.026
 1572SOL    HW1 6613  10.776   2.041  13.953
 1572SOL    HW2 6614  10.766   1.954  14.077
 1573SOL     OW 6615   7.412   8.090   8.608
 1573SOL    HW1 6616   7.407   8.181   8.580
 1573SOL    HW2 6617   7.341   8.046   8.560
 1574SOL     OW 6618  13.468  12.201   1.117
 1574SOL    HW1 6619  13.534  12.218   1.184
 1574SOL    HW2 6620  13.393  12.168   1.166
 1575SOL     OW 6621   7.197  13.933  11.934
 1575SOL    HW1 6622   7.257  13.951  12.006
 1575SOL    HW2 6623   7.239  13.862  11.885
 1576SOL     OW 6624   1.050  13.165  14.587
 1576SOL    HW1 6625   1.125  13.108  14.599
 1576SOL    HW2 6626   1.038  13.208  14.671
 1577SOL     OW 6627   9.761  12.522  13.419
 1577SOL    HW1 6628   9.700  12.466  13.372
 1577SOL    HW2 6629   9.705  12.577  13.475
 1578SOL     OW 6630   5.618   8.465   7.899
 1578SOL    HW1 6631   5.640   8.389   7.845
 1578SOL    HW2 6632   5.637   8.437   7.988
 1579SOL     OW 6633   0.087  12.150   2.239
 1579SOL    HW1 6634   0.134  12.115   2.164
 1579SOL    HW2 6635   0.052  12.073   2.285
 1580SOL     OW 6636   6.746   7.391  14.433
 1580SOL    HW1 6637   6.665   7.434  14.406
 1580SOL    HW2 6638   6.813   7.459  14.425
 1581SOL     OW 6639   2.207   1.117   2.092
 1581SOL    HW1 6640   2.226   1.201   2.133
 1581SOL    HW2 6641   2.195   1.136   1.999
 1582SOL     OW 6642   9.528   5.040   7.174
 1582SOL    HW1 6643   9.495   5.086   7.252
 1582SOL    HW2 6644   9.623   5.040   7.185
 1583SOL     OW 6645  14.419   9.377   9.398
 1583SOL    HW1 6646  14.332   9.348   9.424
 1583SOL    HW2 6647  14.479   9.327   9.454
 1584SOL     OW 6648  10.789   7.215   6.182
 1584SOL    HW1 6649  10.732   7.273   6.131
 1584SOL    HW2 6650  10.778   7.243   6.272
 1585SOL     OW 6651   3.022   5.504   4.274
 1585SOL    HW1 6652   2.976   5.582   4.307
 1585SOL    HW2 6653   3.113   5.532   4.263
 1586SOL     OW 6654  13.082  10.623   3.001
 1586SOL    HW1 6655  13.138  10.586   3.068
 1586SOL    HW2 6656  12.993  10.615   3.036
 1587SOL     OW 6657  14.173   8.130  14.463
 1587SOL    HW1 6658  14.102   8.188  14.492
 1587SOL    HW2 6659  14.181   8.066  14.534
 1588SOL     OW 6660  11.165   8.112   0.623
 1588SOL    HW1 6661  11.216   8.033   0.605
 1588SOL    HW2 6662  11.085   8.079   0.664
 1589SOL     OW 6663  10.568   4.392   8.842
 1589SOL    HW1 6664  10.572   4.320   8.905
 1589SOL    HW2 6665  10.623   4.460   8.879
 1590SOL     OW 6666   9.567   9.431   9.620
 1590SOL    HW1 6667   9.493   9.491   9.627
 1590SOL    HW2 6668   9.632   9.465   9.681
 1591SOL     OW 6669  13.791   3.377   3.781
 1591SOL    HW1 6670  13.836   3.394   3.864
 1591SOL    HW2 6671  13.700   3.403   3.798
 1592SOL     OW 6672   0.822   6.425   4.610
 1592SOL    HW1 6673   0.876   6.486   4.560
 1592SOL    HW2 6674   0.735   6.466   4.613
 1593SOL     OW 6675  13.366   9.371   9.023
 1593SOL    HW1 6676  13.298   9.353   9.088
 1593SOL    HW2 6677  13.353   9.303   8.956
 1594SOL     OW 6678   2.135   5.419  14.036
 1594SOL    HW1 6679   2.113   5.354  14.103
 1594SOL    HW2 6680   2.058   5.422  13.980
 1595SOL     OW 6681  13.856   4.393   9.200
 1595SOL    HW1 6682  13.855   4.406   9.295
 1595SOL    HW2 6683  13.791   4.455   9.167
 1596SOL     OW 6684   0.478   4.499   9.731
 1596SOL    HW1 6685   0.429   4.463   9.657
 1596SOL    HW2 6686   0.557   4.445   9.736
 1597SOL     OW 6687   3.931   7.044   8.087
 1597SOL    HW1 6688   3.993   6.975   8.110
 1597SOL    HW2 6689   3.974   7.125   8.114
 1598SOL     OW 6690  14.858  12.982   0.673
 1598SOL    HW1 6691  14.837  12.889   0.677
 1598SOL    HW2 6692   0.030  13.000   0.751
 1599SOL     OW 6693   6.344   5.012   8.446
 1599SOL    HW1 6694   6.400   4.935   8.438
 1599SOL    HW2 6695   6.340   5.028   8.540
 1600SOL     OW 6696  14.750   9.117  14.876
 1600SOL    HW1 6697  14.754   9.184   0.064
 1600SOL    HW2 6698  14.781   9.037   0.039
 1601SOL     OW 6699   8.050   1.827  11.376
 1601SOL    HW1 6700   8.078   1.741  11.346
 1601SOL    HW2 6701   8.081   1.887  11.308
 1602SOL     OW 6702   8.772  12.660   7.970
 1602SOL    HW1 6703   8.855  12.664   8.017
 1602SOL    HW2 6704   8.727  12.741   7.993
 1603SOL     OW 6705  12.802   1.110   0.161
 1603SOL    HW1 6706  12.752   1.064   0.228
 1603SOL    HW2 6707  12.840   1.185   0.206
 1604SOL     OW 6708  12.001  13.409  13.525
 1604SOL    HW1 6709  12.065  13.370  13.465
 1604SOL    HW2 6710  11.978  13.492  13.484
 1605SOL     OW 6711   6.736  12.461   1.386
 1605SOL    HW1 6712   6.721  12.502   1.471
 1605SOL    HW2 6713   6.739  12.367   1.405
 1606SOL     OW 6714   7.225   2.735  13.750
 1606SOL    HW1 6715   7.290   2.672  13.781
 1606SOL    HW2 6716   7.221   2.801  13.819
 1607SOL     OW 6717   4.245   5.808   7.243
 1607SOL    HW1 6718   4.262   5.755   7.321
 1607SOL    HW2 6719   4.325   5.802   7.192
 1608SOL     OW 6720  13.278   0.618  13.705
 1608SOL    HW1 6721  13.251   0.535  13.666
 1608SOL    HW2 6722  13.324   0.664  13.635
 1609SOL     OW 6723   1.648   2.210   5.359
 1609SOL    HW1 6724   1.604   2.140   5.311
 1609SOL    HW2 6725   1.587   2.235   5.427
 1610SOL     OW 6726   4.726   1.011   6.365
 1610SOL    HW1 6727   4.737   0.986   6.273
 1610SOL    HW2 6728   4.635   0.988   6.385
 1611SOL     OW 6729   8.436   8.908   9.239
 1611SOL    HW1 6730   8.444   8.813   9.244
 1611SOL    HW2 6731   8.364   8.930   9.298
 1612SOL     OW 6732  11.636   4.779   3.254
 1612SOL    HW1 6733  11.564   4.726   3.222
 1612SOL    HW2 6734  11.638   4.763   3.348
 1613SOL     OW 6735   1.002   2.322   9.173
 1613SOL    HW1 6736   1.094   2.340   9.154
 1613SOL    HW2 6737   0.979   2.249   9.117
 1614SOL     OW 6738  10.438   2.066   5.358
 1614SOL    HW1 6739  10.467   2.132   5.294
 1614SOL    HW2 6740  10.352   2.098   5.388
 1615SOL     OW 6741  14.257  12.267   3.212
 1615SOL    HW1 6742  14.164  12.277   3.192
 1615SOL    HW2 6743  14.301  12.331   3.156
 1616SOL     OW 6744  13.982   2.230  14.196
 1616SOL    HW1 6745  14.037   2.152  14.185
 1616SOL    HW2 6746  13.898   2.196  14.228
 1617SOL     OW 6747  13.236   0.040   3.375
 1617SOL    HW1 6748  13.211   0.029   3.283
 1617SOL    HW2 6749  13.288   0.120   3.377
 1618SOL     OW 6750   9.413   9.359   8.778
 1618SOL    HW1 6751   9.407   9.264   8.786
 1618SOL    HW2 6752   9.485   9.373   8.717
 1619SOL     OW 6753   2.614  10.614  14.419
 1619SOL    HW1 6754   2.599  10.707  14.402
 1619SOL    HW2 6755   2.683  10.612  14.486
 1620SOL     OW 6756   0.770   3.963   2.553
 1620SOL    HW1 6757   0.830   3.899   2.590
 1620SOL    HW2 6758   0.707   3.911   2.502
 1621SOL     OW 6759   2.835   2.696   8.995
 1621SOL    HW1 6760   2.811   2.771   8.939
 1621SOL    HW2 6761   2.930   2.692   8.990
 1622SOL     OW 6762   6.240   4.008  13.078
 1622SOL    HW1 6763   6.227   4.089  13.028
 1622SOL    HW2 6764   6.218   4.032  13.168
 1623SOL     OW 6765   3.198   5.130  14.331
 1623SOL    HW1 6766   3.165   5.151  14.243
 1623SOL    HW2 6767   3.215   5.036  14.329
 1624SOL     OW 6768   9.946   6.524  10.345
 1624SOL    HW1 6769   9.951   6.429  10.357
 1624SOL    HW2 6770  10.026   6.547  10.299
 1625SOL     OW 6771   5.256   3.110   9.974
 1625SOL    HW1 6772   5.308   3.032   9.994
 1625SOL    HW2 6773   5.200   3.084   9.901
 1626SOL     OW 6774  12.983  12.769   9.831
 1626SOL    HW1 6775  12.919  12.763   9.901
 1626SOL    HW2 6776  12.944  12.722   9.758
 1627SOL     OW 6777   3.224   5.023   8.131
 1627SOL    HW1 6778   3.153   5.041   8.193
 1627SOL    HW2 6779   3.236   4.928   8.135
 1628SOL     OW 6780   5.846  14.527   9.512
 1628SOL    HW1 6781   5.780  14.465   9.484
 1628SOL    HW2 6782   5.926  14.475   9.520
 1629SOL     OW 6783  11.376   7.932  13.597
 1629SOL    HW1 6784  11.298   7.970  13.556
 1629SOL    HW2 6785  11.399   7.858  13.541
 1630SOL     OW 6786   7.241  13.821   7.847
 1630SOL    HW1 6787   7.263  13.902   7.800
 1630SOL    HW2 6788   7.326  13.783   7.871
 1631SOL     OW 6789   0.237   1.309  12.246
 1631SOL    HW1 6790   0.252   1.343  12.158
 1631SOL    HW2 6791   0.311   1.250  12.262
 1632SOL     OW 6792   1.530   9.736   9.326
 1632SOL    HW1 6793   1.618   9.735   9.363
 1632SOL    HW2 6794   1.481   9.796   9.382
 1633SOL     OW 6795   0.687   7.982   5.037
 1633SOL    HW1 6796   0.669   8.074   5.056
 1633SOL    HW2 6797   0.654   7.934   5.113
 1634SOL     OW 6798   1.287  11.775   6.587
 1634SOL    HW1 6799   1.329  11.780   6.673
 1634SOL    HW2 6800   1.197  11.803   6.604
 1635SOL     OW 6801  12.376  14.190   3.067
 1635SOL    HW1 6802  12.293  14.176   3.112
 1635SOL    HW2 6803  12.356  14.175   2.975
 1636SOL     OW 6804   8.672   0.626   7.941
 1636SOL    HW1 6805   8.591   0.651   7.898
 1636SOL    HW2 6806   8.741   0.665   7.887
 1637SOL     OW 6807   5.005  10.867   2.520
 1637SOL    HW1 6808   5.039  10.893   2.605
 1637SOL    HW2 6809   4.914  10.895   2.521
 1638SOL     OW 6810   6.462  14.638  13.120
 1638SOL    HW1 6811   6.368  14.651  13.134
 1638SOL    HW2 6812   6.494  14.723  13.090
 1639SOL     OW 6813   4.914  13.198   0.484
 1639SOL    HW1 6814   4.825  13.201   0.518
 1639SOL    HW2 6815   4.958  13.133   0.538
 1640SOL     OW 6816   9.834   9.335   7.503
 1640SOL    HW1 6817   9.912   9.333   7.448
 1640SOL    HW2 6818   9.799   9.246   7.498
 1641SOL     OW 6819  13.318   8.600   8.804
 1641SOL    HW1 6820  13.370   8.548   8.865
 1641SOL    HW2 6821  13.339   8.691   8.826
 1642SOL     OW 6822   7.664   3.535   4.034
 1642SOL    HW1 6823   7.733   3.568   4.092
 1642SOL    HW2 6824   7.651   3.605   3.970
 1643SOL     OW 6825   4.186  12.598   4.026
 1643SOL    HW1 6826   4.091  12.602   4.021
 1643SOL    HW2 6827   4.206  12.618   4.118
 1644SOL     OW 6828  14.449   0.546   5.386
 1644SOL    HW1 6829  14.366   0.507   5.360
 1644SOL    HW2 6830  14.441   0.560   5.481
 1645SOL     OW 6831   6.034   8.716  13.141
 1645SOL    HW1 6832   6.124   8.746  13.129
 1645SOL    HW2 6833   6.037   8.622  13.128
 1646SOL     OW 6834   4.118   3.457  13.196
 1646SOL    HW1 6835   4.151   3.494  13.115
 1646SOL    HW2 6836   4.028   3.431  13.176
 1647SOL     OW 6837   6.092   2.519   5.031
 1647SOL    HW1 6838   5.997   2.520   5.026
 1647SOL    HW2 6839   6.121   2.531   4.941
 1648SOL     OW 6840  11.446  12.454   2.447
 1648SOL    HW1 6841  11.501  12.471   2.523
 1648SOL    HW2 6842  11.506  12.417   2.382
 1649SOL     OW 6843   9.162  12.382   6.824
 1649SOL    HW1 6844   9.201  12.302   6.790
 1649SOL    HW2 6845   9.223  12.452   6.798
 1650SOL     OW 6846   1.996  14.346   7.285
 1650SOL    HW1 6847   2.012  14.370   7.193
 1650SOL    HW2 6848   2.053  14.404   7.335
 1651SOL     OW 6849  13.853  13.537   8.434
 1651SOL    HW1 6850  13.787  13.605   8.415
 1651SOL    HW2 6851  13.863  13.490   8.351
 1652SOL     OW 6852  10.644   3.548  11.800
 1652SOL    HW1 6853  10.611   3.598  11.875
 1652SOL    HW2 6854  10.641   3.610  11.727
 1653SOL     OW 6855   7.413   3.004   9.130
 1653SOL    HW1 6856   7.464   2.950   9.069
 1653SOL    HW2 6857   7.400   2.948   9.207
 1654SOL     OW 6858   4.248   9.652   5.941
 1654SOL    HW1 6859   4.262   9.684   5.852
 1654SOL    HW2 6860   4.305   9.576   5.949
 1655SOL     OW 6861   4.161   8.260   5.566
 1655SOL    HW1 6862   4.217   8.184   5.554
 1655SOL    HW2 6863   4.158   8.274   5.660
 1656SOL     OW 6864  14.110   5.093  10.860
 1656SOL    HW1 6865  14.103   5.185  10.884
 1656SOL    HW2 6866  14.191   5.088  10.809
 1657SOL     OW 6867   4.467   9.424   2.727
 1657SOL    HW1 6868   4.555   9.414   2.690
 1657SOL    HW2 6869   4.452   9.519   2.728
 1658SOL     OW 6870   8.428  13.946   8.842
 1658SOL    HW1 6871   8.501  13.909   8.891
 1658SOL    HW2 6872   8.360  13.962   8.907
 1659SOL     OW 6873   5.486   9.808   9.742
 1659SOL    HW1 6874   5.571   9.835   9.707
 1659SOL    HW2 6875   5.430   9.885   9.730
 1660SOL     OW 6876   1.462   7.196   1.040
 1660SOL    HW1 6877   1.509   7.166   1.118
 1660SOL    HW2 6878   1.520   7.262   1.001
 1661SOL     OW 6879  14.054   6.534  13.703
 1661SOL    HW1 6880  14.013   6.617  13.729
 1661SOL    HW2 6881  14.108   6.557  13.628
 1662SOL     OW 6882   3.506   5.419   6.352
 1662SOL    HW1 6883   3.515   5.324   6.362
 1662SOL    HW2 6884   3.437   5.443   6.414
 1663SOL     OW 6885   9.731   3.764  12.625
 1663SOL    HW1 6886   9.680   3.714  12.562
 1663SOL    HW2 6887   9.812   3.714  12.635
 1664SOL     OW 6888   7.806   4.300   6.767
 1664SOL    HW1 6889   7.784   4.346   6.848
 1664SOL    HW2 6890   7.860   4.226   6.795
 1665SOL     OW 6891  10.038  13.404  11.160
 1665SOL    HW1 6892   9.971  13.465  11.127
 1665SOL    HW2 6893   9.988  13.334  11.202
 1666SOL     OW 6894  12.065   0.396  10.784
 1666SOL    HW1 6895  12.009   0.380  10.860
 1666SOL    HW2 6896  12.106   0.311  10.767
 1667SOL     OW 6897  11.585   6.237   4.293
 1667SOL    HW1 6898  11.602   6.283   4.375
 1667SOL    HW2 6899  11.492   6.252   4.276
 1668SOL     OW 6900   6.631  10.906   7.434
 1668SOL    HW1 6901   6.644  10.857   7.515
 1668SOL    HW2 6902   6.639  10.998   7.460
 1669SOL     OW 6903   7.694  14.489   0.126
 1669SOL    HW1 6904   7.694  14.428   0.199
 1669SOL    HW2 6905   7.603  14.494   0.098
 1670SOL     OW 6906  13.327   2.562  11.521
 1670SOL    HW1 6907  13.400   2.504  11.501
 1670SOL    HW2 6908  13.355   2.648  11.489
 1671SOL     OW 6909   5.260   5.129   0.402
 1671SOL    HW1 6910   5.305   5.180   0.470
 1671SOL    HW2 6911   5.321   5.059   0.380
 1672SOL     OW 6912   5.176   3.393   9.987
 1672SOL    HW1 6913   5.210   3.305  10.000
 1672SOL    HW2 6914   5.188   3.410   9.894
 1673SOL     OW 6915  11.323  13.427  11.928
 1673SOL    HW1 6916  11.315  13.499  11.991
 1673SOL    HW2 6917  11.411  13.392  11.943
 1674SOL     OW 6918   3.147   2.959   8.450
 1674SOL    HW1 6919   3.063   3.004   8.445
 1674SOL    HW2 6920   3.135   2.893   8.518
 1675SOL     OW 6921   7.741  12.437  14.406
 1675SOL    HW1 6922   7.711  12.513  14.456
 1675SOL    HW2 6923   7.668  12.375  14.411
 1676SOL     OW 6924  13.785   2.844   2.803
 1676SOL    HW1 6925  13.849   2.872   2.868
 1676SOL    HW2 6926  13.821   2.876   2.720
 1677SOL     OW 6927   5.897   5.643  12.482
 1677SOL    HW1 6928   5.839   5.710  12.519
 1677SOL    HW2 6929   5.984   5.664  12.516
 1678SOL     OW 6930  13.851  10.059   6.516
 1678SOL    HW1 6931  13.835  10.008   6.596
 1678SOL    HW2 6932  13.884   9.995   6.453
 1679SOL     OW 6933   4.734   8.243   5.687
 1679SOL    HW1 6934   4.655   8.297   5.681
 1679SOL    HW2 6935   4.704   8.160   5.724
 1680SOL     OW 6936  12.644  14.162   9.679
 1680SOL    HW1 6937  12.709  14.109   9.724
 1680SOL    HW2 6938  12.594  14.204   9.749
 1681SOL     OW 6939   6.098   6.969   5.876
 1681SOL    HW1 6940   6.089   6.977   5.971
 1681SOL    HW2 6941   6.119   6.876   5.861
 1682SOL     OW 6942   9.051  11.859   8.367
 1682SOL    HW1 6943   9.049  11.883   8.460
 1682SOL    HW2 6944   8.975  11.903   8.329
 1683SOL     OW 6945   7.192   2.025   1.923
 1683SOL    HW1 6946   7.211   2.093   1.988
 1683SOL    HW2 6947   7.131   2.067   1.862
 1684SOL     OW 6948   8.005   3.677   8.334
 1684SOL    HW1 6949   8.078   3.616   8.323
 1684SOL    HW2 6950   8.014   3.738   8.261
 1685SOL     OW 6951   9.342   2.736   2.987
 1685SOL    HW1 6952   9.260   2.705   3.024
 1685SOL    HW2 6953   9.337   2.714   2.894
 1686SOL     OW 6954  13.749  13.690  13.319
 1686SOL    HW1 6955  13.760  13.653  13.232
 1686SOL    HW2 6956  13.657  13.715  13.324
 1687SOL     OW 6957  13.890   3.860   1.595
 1687SOL    HW1 6958  13.920   3.939   1.640
 1687SOL    HW2 6959  13.945   3.790   1.631
 1688SOL     OW 6960   4.900  10.223   5.239
 1688SOL    HW1 6961   4.963  10.283   5.279
 1688SOL    HW2 6962   4.870  10.268   5.160
 1689SOL     OW 6963   7.417   2.572  12.085
 1689SOL    HW1 6964   7.469   2.528  12.153
 1689SOL    HW2 6965   7.419   2.511  12.011
 1690SOL     OW 6966  12.475   4.354  12.158
 1690SOL    HW1 6967  12.488   4.272  12.110
 1690SOL    HW2 6968  12.472   4.421  12.090
 1691SOL     OW 6969  10.346  14.047   5.043
 1691SOL    HW1 6970  10.256  14.017   5.049
 1691SOL    HW2 6971  10.339  14.142   5.034
 1692SOL     OW 6972   2.884   0.729   1.638
 1692SOL    HW1 6973   2.818   0.666   1.668
 1692SOL    HW2 6974   2.911   0.696   1.552
 1693SOL     OW 6975  14.485   1.289   0.214
 1693SOL    HW1 6976  14.565   1.324   0.253
 1693SOL    HW2 6977  14.498   1.300   0.120
 1694SOL     OW 6978   6.601   1.337   0.449
 1694SOL    HW1 6979   6.518   1.348   0.496
 1694SOL    HW2 6980   6.667   1.337   0.518
 1695SOL     OW 6981   7.002   3.981  12.078
 1695SOL    HW1 6982   6.922   3.980  12.024
 1695SOL    HW2 6983   6.971   3.987  12.168
 1696SOL     OW 6984   2.682   5.776   4.158
 1696SOL    HW1 6985   2.636   5.759   4.240
 1696SOL    HW2 6986   2.656   5.865   4.134
 1697SOL     OW 6987   0.209   2.073   1.461
 1697SOL    HW1 6988   0.279   2.101   1.403
 1697SOL    HW2 6989   0.236   1.986   1.492
 1698SOL     OW 6990   0.669   4.091   7.007
 1698SOL    HW1 6991   0.598   4.146   7.039
 1698SOL    HW2 6992   0.700   4.134   6.928
 1699SOL     OW 6993   8.540   3.094   2.056
 1699SOL    HW1 6994   8.571   3.171   2.009
 1699SOL    HW2 6995   8.499   3.128   2.135
 1700SOL     OW 6996  12.286   7.626  12.931
 1700SOL    HW1 6997  12.358   7.625  12.993
 1700SOL    HW2 6998  12.327   7.634  12.845
 1701SOL     OW 6999  14.864   8.099   5.360
 1701SOL    HW1 7000   0.040   8.029   5.393
 1701SOL    HW2 7001  14.846   8.153   5.437
 1702SOL     OW 7002   1.122   5.489   8.873
 1702SOL    HW1 7003   1.031   5.496   8.845
 1702SOL    HW2 7004   1.134   5.561   8.935
 1703SOL     OW 7005   4.305   5.608  10.754
 1703SOL    HW1 7006   4.278   5.678  10.813
 1703SOL    HW2 7007   4.222   5.569  10.724
 1704SOL     OW 7008   7.118  12.432  11.425
 1704SOL    HW1 7009   7.097  12.503  11.365
 1704SOL    HW2 7010   7.190  12.466  11.479
 1705SOL     OW 7011  13.913   9.228   9.356
 1705SOL    HW1 7012  13.951   9.187   9.278
 1705SOL    HW2 7013  13.820   9.237   9.335
 1706SOL     OW 7014  14.457   0.492   3.119
 1706SOL    HW1 7015  14.468   0.444   3.038
 1706SOL    HW2 7016  14.497   0.577   3.102
 1707SOL     OW 7017  10.973   9.953  13.487
 1707SOL    HW1 7018  10.974   9.887  13.557
 1707SOL    HW2 7019  10.917  10.022  13.520
 1708SOL     OW 7020  14.874   1.014   4.052
 1708SOL    HW1 7021   0.083   0.992   4.025
 1708SOL    HW2 7022  14.837   0.932   4.083
 1709SOL     OW 7023   3.035   5.325   0.616
 1709SOL    HW1 7024   3.107   5.284   0.568
 1709SOL    HW2 7025   3.078   5.371   0.688
 1710SOL     OW 7026   5.537   6.496   4.620
 1710SOL    HW1 7027   5.600   6.425   4.612
 1710SOL    HW2 7028   5.571   6.566   4.565
 1711SOL     OW 7029  11.944   8.259   8.925
 1711SOL    HW1 7030  11.850   8.269   8.944
 1711SOL    HW2 7031  11.985   8.332   8.972
 1712SOL     OW 7032  10.007  14.005  11.279
 1712SOL    HW1 7033   9.979  14.046  11.361
 1712SOL    HW2 7034   9.942  14.033  11.215
 1713SOL     OW 7035   8.688   5.831   1.758
 1713SOL    HW1 7036   8.655   5.915   1.791
 1713SOL    HW2 7037   8.772   5.820   1.803
 1714SOL     OW 7038  14.113   8.123  11.520
 1714SOL    HW1 7039  14.199   8.086  11.538
 1714SOL    HW2 7040  14.131   8.202  11.469
 1715SOL     OW 7041   7.904   1.507   8.099
 1715SOL    HW1 7042   7.876   1.574   8.036
 1715SOL    HW2 7043   7.901   1.425   8.049
 1716SOL     OW 7044  13.262  13.424  13.565
 1716SOL    HW1 7045  13.341  13.389  13.607
 1716SOL    HW2 7046  13.285  13.429  13.472
 1717SOL     OW 7047   8.248   9.005  11.364
 1717SOL    HW1 7048   8.326   8.956  11.391
 1717SOL    HW2 7049   8.192   9.005  11.442
 1718SOL     OW 7050   8.298  14.548  12.027
 1718SOL    HW1 7051   8.208  14.576  12.042
 1718SOL    HW2 7052   8.292  14.453  12.014
 1719SOL     OW 7053   5.749   0.982   1.676
 1719SOL    HW1 7054   5.784   1.038   1.607
 1719SOL    HW2 7055   5.771   1.028   1.758
 1720SOL     OW 7056   7.792  14.449   7.115
 1720SOL    HW1 7057   7.725  14.400   7.163
 1720SOL    HW2 7058   7.782  14.421   7.024
 1721SOL     OW 7059  11.479   5.050  10.678
 1721SOL    HW1 7060  11.431   5.030  10.598
 1721SOL    HW2 7061  11.444   5.135  10.706
 1722SOL     OW 7062  13.886   7.684   4.160
 1722SOL    HW1 7063  13.952   7.714   4.097
 1722SOL    HW2 7064  13.854   7.602   4.123
 1723SOL     OW 7065   0.037  14.623   8.818
 1723SOL    HW1 7066  14.822  14.620   8.799
 1723SOL    HW2 7067   0.052  14.711   8.852
 1724SOL     OW 7068   7.571  10.749  14.187
 1724SOL    HW1 7069   7.625  10.806  14.243
 1724SOL    HW2 7070   7.628  10.675  14.168
 1725SOL     OW 7071   3.149  11.450   3.263
 1725SOL    HW1 7072   3.167  11.371   3.213
 1725SOL    HW2 7073   3.054  11.456   3.265
 1726SOL     OW 7074   5.275   6.568  10.624
 1726SOL    HW1 7075   5.317   6.552  10.709
 1726SOL    HW2 7076   5.199   6.622  10.645
 1727SOL     OW 7077   8.275   0.143   1.102
 1727SOL    HW1 7078   8.239   0.147   1.014
 1727SOL    HW2 7079   8.335   0.217   1.108
 1728SOL     OW 7080   9.821   8.217  13.193
 1728SOL    HW1 7081   9.905   8.208  13.147
 1728SOL    HW2 7082   9.822   8.308  13.225
 1729SOL     OW 7083  10.866   3.132   7.654
 1729SOL    HW1 7084  10.948   3.127   7.704
 1729SOL    HW2 7085  10.802   3.167   7.715
 1730SOL     OW 7086  10.267   3.067   5.078
 1730SOL    HW1 7087  10.176   3.040   5.065
 1730SOL    HW2 7088  10.262   3.161   5.095
 1731SOL     OW 7089   4.785   8.768   3.931
 1731SOL    HW1 7090   4.775   8.674   3.947
 1731SOL    HW2 7091   4.877   8.786   3.949
 1732SOL     OW 7092   5.603   4.946   7.080
 1732SOL    HW1 7093   5.592   5.020   7.020
 1732SOL    HW2 7094   5.525   4.948   7.135
 1733SOL     OW 7095   6.476  10.134   3.394
 1733SOL    HW1 7096   6.562  10.096   3.376
 1733SOL    HW2 7097   6.441  10.084   3.467
 1734SOL     OW 7098   3.779  13.030   2.678
 1734SOL    HW1 7099   3.774  12.941   2.645
 1734SOL    HW2 7100   3.873  13.047   2.685
 1735SOL     OW 7101  10.325  14.772   0.552
 1735SOL    HW1 7102  10.335  14.682   0.583
 1735SOL    HW2 7103  10.405  14.817   0.580
 1736SOL     OW 7104   8.162   2.260   5.499
 1736SOL    HW1 7105   8.247   2.230   5.529
 1736SOL    HW2 7106   8.109   2.180   5.492
 1737SOL     OW 7107  11.441   7.416   8.668
 1737SOL    HW1 7108  11.369   7.467   8.630
 1737SOL    HW2 7109  11.409   7.326   8.667
 1738SOL     OW 7110   3.187   8.074   7.179
 1738SOL    HW1 7111   3.095   8.093   7.197
 1738SOL    HW2 7112   3.230   8.159   7.181
 1739SOL     OW 7113   9.272   0.608   4.910
 1739SOL    HW1 7114   9.208   0.541   4.888
 1739SOL    HW2 7115   9.290   0.594   5.003
 1740SOL     OW 7116  12.144  14.343   8.605
 1740SOL    HW1 7117  12.049  14.329   8.598
 1740SOL    HW2 7118  12.173  14.281   8.671
 1741SOL     OW 7119  11.720   3.459  10.280
 1741SOL    HW1 7120  11.633   3.425  10.258
 1741SOL    HW2 7121  11.713   3.554  10.264
 1742SOL     OW 7122   8.033   9.176  10.184
 1742SOL    HW1 7123   7.978   9.105  10.149
 1742SOL    HW2 7124   8.056   9.228  10.108
 1743SOL     OW 7125   2.182  12.833  10.327
 1743SOL    HW1 7126   2.236  12.873  10.395
 1743SOL    HW2 7127   2.211  12.874  10.246
 1744SOL     OW 7128   2.589   6.542   6.368
 1744SOL    HW1 7129   2.677   6.549   6.332
 1744SOL    HW2 7130   2.535   6.513   6.295
 1745SOL     OW 7131  13.701  14.850  13.381
 1745SOL    HW1 7132  13.728   0.045  13.327
 1745SOL    HW2 7133  13.682  14.781  13.317
 1746SOL     OW 7134   5.659   0.248   8.163
 1746SOL    HW1 7135   5.692   0.250   8.073
 1746SOL    HW2 7136   5.631   0.158   8.178
 1747SOL     OW 7137   5.316   7.220  10.041
 1747SOL    HW1 7138   5.235   7.271  10.046
 1747SOL    HW2 7139   5.328   7.203   9.948
 1748SOL     OW 7140   0.945   0.117  11.861
 1748SOL    HW1 7141   1.010   0.091  11.795
 1748SOL    HW2 7142   0.929   0.209  11.843
 1749SOL     OW 7143   8.828   7.337   2.662
 1749SOL    HW1 7144   8.806   7.246   2.640
 1749SOL    HW2 7145   8.897   7.330   2.728
 1750SOL     OW 7146   3.580   7.943   6.648
 1750SOL    HW1 7147   3.559   7.870   6.706
 1750SOL    HW2 7148   3.548   8.021   6.694
 1751SOL     OW 7149  10.599  14.149  10.202
 1751SOL    HW1 7150  10.536  14.093  10.155
 1751SOL    HW2 7151  10.553  14.231  10.215
 1752SOL     OW 7152   6.201   0.374   4.017
 1752SOL    HW1 7153   6.129   0.372   4.080
 1752SOL    HW2 7154   6.276   0.341   4.065
 1753SOL     OW 7155   4.826   9.623   3.472
 1753SOL    HW1 7156   4.782   9.583   3.547
 1753SOL    HW2 7157   4.897   9.562   3.452
 1754SOL     OW 7158  12.374  13.345   2.005
 1754SOL    HW1 7159  12.286  13.308   2.006
 1754SOL    HW2 7160  12.404  13.334   1.915
 1755SOL     OW 7161   4.083   0.554   9.519
 1755SOL    HW1 7162   4.130   0.626   9.477
 1755SOL    HW2 7163   4.006   0.541   9.464
 1756SOL     OW 7164  10.782   6.616  12.746
 1756SOL    HW1 7165  10.713   6.622  12.811
 1756SOL    HW2 7166  10.832   6.538  12.770
 1757SOL     OW 7167   3.103   3.721  11.128
 1757SOL    HW1 7168   3.129   3.765  11.047
 1757SOL    HW2 7169   3.186   3.704  11.174
 1758SOL     OW 7170   6.158   9.414   3.474
 1758SOL    HW1 7171   6.132   9.505   3.491
 1758SOL    HW2 7172   6.246   9.421   3.438
 1759SOL     OW 7173   6.240   9.448  13.683
 1759SOL    HW1 7174   6.174   9.389  13.719
 1759SOL    HW2 7175   6.215   9.459  13.591
 1760SOL     OW 7176   4.689   1.004   3.370
 1760SOL    HW1 7177   4.619   1.018   3.306
 1760SOL    HW2 7178   4.731   1.090   3.379
 1761SOL     OW 7179   6.231   5.862   3.988
 1761SOL    HW1 7180   6.243   5.869   3.893
 1761SOL    HW2 7181   6.215   5.952   4.017
 1762SOL     OW 7182   9.761   8.031   2.531
 1762SOL    HW1 7183   9.712   7.961   2.574
 1762SOL    HW2 7184   9.851   7.999   2.526
 1763SOL     OW 7185   9.446  12.365   3.709
 1763SOL    HW1 7186   9.511  12.304   3.676
 1763SOL    HW2 7187   9.368  12.349   3.655
 1764SOL     OW 7188   4.730  14.703   6.298
 1764SOL    HW1 7189   4.765  14.772   6.353
 1764SOL    HW2 7190   4.806  14.667   6.252
 1765SOL     OW 7191  10.842   8.290  13.498
 1765SOL    HW1 7192  10.879   8.311  13.413
 1765SOL    HW2 7193  10.908   8.237  13.542
 1766SOL     OW 7194   9.330  10.334   2.216
 1766SOL    HW1 7195   9.287  10.254   2.185
 1766SOL    HW2 7196   9.420  10.327   2.183
 1767SOL     OW 7197   6.672  13.866   0.586
 1767SOL    HW1 7198   6.588  13.905   0.611
 1767SOL    HW2 7199   6.648  13.791   0.531
 1768SOL     OW 7200   9.838   5.325   9.665
 1768SOL    HW1 7201   9.923   5.308   9.623
 1768SOL    HW2 7202   9.850   5.409   9.711
 1769SOL     OW 7203   0.147   6.994  14.507
 1769SOL    HW1 7204   0.078   6.975  14.444
 1769SOL    HW2 7205   0.100   7.029  14.583
 1770SOL     OW 7206  10.438   5.931  13.856
 1770SOL    HW1 7207  10.462   6.021  13.877
 1770SOL    HW2 7208  10.343   5.928  13.867
 1771SOL     OW 7209   5.390  11.228   5.199
 1771SOL    HW1 7210   5.438  11.306   5.171
 1771SOL    HW2 7211   5.364  11.186   5.117
 1772SOL     OW 7212   6.969   2.827   8.192
 1772SOL    HW1 7213   7.002   2.804   8.279
 1772SOL    HW2 7214   7.047   2.833   8.137
 1773SOL     OW 7215  14.014   0.350  12.434
 1773SOL    HW1 7216  13.951   0.319  12.369
 1773SOL    HW2 7217  14.025   0.275  12.494
 1774SOL     OW 7218  11.105   5.596   5.669
 1774SOL    HW1 7219  11.154   5.516   5.651
 1774SOL    HW2 7220  11.019   5.581   5.630
 1775SOL     OW 7221   5.882   1.984  14.637
 1775SOL    HW1 7222   5.949   2.046  14.608
 1775SOL    HW2 7223   5.799   2.030  14.621
 1776SOL     OW 7224   1.502   6.391  13.106
 1776SOL    HW1 7225   1.541   6.364  13.189
 1776SOL    HW2 7226   1.458   6.473  13.125
 1777SOL     OW 7227   8.505   4.065   6.552
 1777SOL    HW1 7228   8.424   4.057   6.502
 1777SOL    HW2 7229   8.495   4.148   6.600
 1778SOL     OW 7230   7.614   1.982  13.248
 1778SOL    HW1 7231   7.632   1.941  13.333
 1778SOL    HW2 7232   7.605   2.075  13.268
 1779SOL     OW 7233   6.679   6.891   9.419
 1779SOL    HW1 7234   6.733   6.916   9.493
 1779SOL    HW2 7235   6.594   6.869   9.457
 1780SOL     OW 7236  10.236   9.337  12.012
 1780SOL    HW1 7237  10.276   9.423  11.996
 1780SOL    HW2 7238  10.290   9.299  12.082
 1781SOL     OW 7239  11.902  14.563   5.521
 1781SOL    HW1 7240  11.973  14.499   5.519
 1781SOL    HW2 7241  11.826  14.514   5.553
 1782SOL     OW 7242   0.060   9.206   7.424
 1782SOL    HW1 7243   0.007   9.257   7.486
 1782SOL    HW2 7244  14.876   9.150   7.379
 1783SOL     OW 7245  12.556   8.861  13.021
 1783SOL    HW1 7246  12.483   8.915  13.051
 1783SOL    HW2 7247  12.524   8.771  13.032
 1784SOL     OW 7248   9.834   3.097   0.159
 1784SOL    HW1 7249   9.908   3.135   0.109
 1784SOL    HW2 7250   9.872   3.074   0.243
 1785SOL     OW 7251  13.032  14.107   0.398
 1785SOL    HW1 7252  12.995  14.193   0.417
 1785SOL    HW2 7253  13.127  14.119   0.405
 1786SOL     OW 7254   1.279  14.830   2.043
 1786SOL    HW1 7255   1.286  14.847   2.137
 1786SOL    HW2 7256   1.369  14.811   2.015
 1787SOL     OW 7257  13.262   8.612   1.956
 1787SOL    HW1 7258  13.254   8.659   2.039
 1787SOL    HW2 7259  13.236   8.522   1.978
 1788SOL     OW 7260  14.641   5.805   6.103
 1788SOL    HW1 7261  14.636   5.896   6.132
 1788SOL    HW2 7262  14.551   5.773   6.110
 1789SOL     OW 7263   5.887  14.780   8.159
 1789SOL    HW1 7264   5.809  14.743   8.118
 1789SOL    HW2 7265   5.960  14.739   8.112
 1790SOL     OW 7266   5.965   9.397   0.419
 1790SOL    HW1 7267   6.025   9.414   0.492
 1790SOL    HW2 7268   5.891   9.351   0.460
 1791SOL     OW 7269  14.761  13.393   2.500
 1791SOL    HW1 7270  14.705  13.347   2.438
 1791SOL    HW2 7271  14.757  13.485   2.472
 1792SOL     OW 7272   5.970   7.489   1.272
 1792SOL    HW1 7273   5.934   7.569   1.235
 1792SOL    HW2 7274   6.012   7.445   1.198
 1793SOL     OW 7275   1.301  14.327   7.297
 1793SOL    HW1 7276   1.374  14.279   7.258
 1793SOL    HW2 7277   1.282  14.280   7.378
 1794SOL     OW 7278   4.812   2.993   9.397
 1794SOL    HW1 7279   4.797   3.041   9.479
 1794SOL    HW2 7280   4.828   2.903   9.425
 1795SOL     OW 7281   8.603   1.858   6.786
 1795SOL    HW1 7282   8.690   1.865   6.824
 1795SOL    HW2 7283   8.612   1.893   6.697
 1796SOL     OW 7284   9.229  13.640  10.747
 1796SOL    HW1 7285   9.200  13.596  10.668
 1796SOL    HW2 7286   9.323  13.654  10.733
 1797SOL     OW 7287   7.287  14.179   9.009
 1797SOL    HW1 7288   7.242  14.253   8.968
 1797SOL    HW2 7289   7.355  14.155   8.945
 1798SOL     OW 7290  12.354   5.146   3.825
 1798SOL    HW1 7291  12.331   5.125   3.734
 1798SOL    HW2 7292  12.397   5.231   3.819
 1799SOL     OW 7293   7.722  11.035   6.882
 1799SOL    HW1 7294   7.720  11.114   6.828
 1799SOL    HW2 7295   7.800  11.044   6.936
 1800SOL     OW 7296   3.300   8.948   0.842
 1800SOL    HW1 7297   3.290   8.904   0.757
 1800SOL    HW2 7298   3.384   8.993   0.836
 1801SOL     OW 7299   3.419   6.894   3.096
 1801SOL    HW1 7300   3.435   6.909   3.189
 1801SOL    HW2 7301   3.347   6.953   3.073
 1802SOL     OW 7302   1.252  12.751  12.710
 1802SOL    HW1 7303   1.232  12.840  12.681
 1802SOL    HW2 7304   1.172  12.702  12.693
 1803SOL     OW 7305   5.586   7.880   0.575
 1803SOL    HW1 7306   5.542   7.892   0.491
 1803SOL    HW2 7307   5.670   7.840   0.554
 1804SOL     OW 7308   3.169  10.472   5.398
 1804SOL    HW1 7309   3.154  10.418   5.321
 1804SOL    HW2 7310   3.212  10.413   5.460
 1805SOL     OW 7311   5.908   7.683   0.836
 1805SOL    HW1 7312   5.972   7.710   0.771
 1805SOL    HW2 7313   5.856   7.615   0.793
 1806SOL     OW 7314   0.872   1.286   8.575
 1806SOL    HW1 7315   0.958   1.245   8.584
 1806SOL    HW2 7316   0.844   1.263   8.486
 1807SOL     OW 7317   9.264   3.968   4.982
 1807SOL    HW1 7318   9.311   4.018   4.914
 1807SOL    HW2 7319   9.306   3.994   5.064
 1808SOL     OW 7320  11.657   1.081  13.370
 1808SOL    HW1 7321  11.733   1.023  13.374
 1808SOL    HW2 7322  11.685   1.160  13.417
 1809SOL     OW 7323   7.312   8.643  11.556
 1809SOL    HW1 7324   7.404   8.659  11.577
 1809SOL    HW2 7325   7.287   8.570  11.614
 1810SOL     OW 7326  12.315   8.967   8.403
 1810SOL    HW1 7327  12.339   8.876   8.420
 1810SOL    HW2 7328  12.274   8.996   8.484
 1811SOL     OW 7329   3.541   2.494  14.355
 1811SOL    HW1 7330   3.503   2.407  14.368
 1811SOL    HW2 7331   3.470   2.545  14.316
 1812SOL     OW 7332   0.777   6.607   1.230
 1812SOL    HW1 7333   0.731   6.690   1.218
 1812SOL    HW2 7334   0.708   6.541   1.223
 1813SOL     OW 7335  11.000   1.169   2.965
 1813SOL    HW1 7336  11.071   1.109   2.943
 1813SOL    HW2 7337  10.968   1.200   2.880
 1814SOL     OW 7338   5.171   5.207   4.723
 1814SOL    HW1 7339   5.162   5.112   4.716
 1814SOL    HW2 7340   5.142   5.239   4.637
 1815SOL     OW 7341   7.758   4.555   3.595
 1815SOL    HW1 7342   7.750   4.462   3.572
 1815SOL    HW2 7343   7.692   4.568   3.663
 1816SOL     OW 7344   9.261   4.395   3.039
 1816SOL    HW1 7345   9.197   4.398   3.111
 1816SOL    HW2 7346   9.313   4.475   3.050
 1817SOL     OW 7347   0.923   4.332   6.715
 1817SOL    HW1 7348   0.838   4.290   6.729
 1817SOL    HW2 7349   0.903   4.410   6.665
 1818SOL     OW 7350   1.954   9.306  14.018
 1818SOL    HW1 7351   1.974   9.254  14.095
 1818SOL    HW2 7352   1.870   9.348  14.038
 1819SOL     OW 7353  12.211   8.268  12.625
 1819SOL    HW1 7354  12.206   8.364  12.625
 1819SOL    HW2 7355  12.139   8.240  12.682
 1820SOL     OW 7356   6.713   4.091   8.928
 1820SOL    HW1 7357   6.750   4.045   8.852
 1820SOL    HW2 7358   6.703   4.024   8.995
 1821SOL     OW 7359   1.477  14.733   3.222
 1821SOL    HW1 7360   1.442  14.662   3.276
 1821SOL    HW2 7361   1.406  14.753   3.161
 1822SOL     OW 7362  12.485   6.317   2.053
 1822SOL    HW1 7363  12.538   6.357   1.985
 1822SOL    HW2 7364  12.536   6.326   2.134
 1823SOL     OW 7365  11.982   6.154   2.172
 1823SOL    HW1 7366  12.044   6.101   2.121
 1823SOL    HW2 7367  11.940   6.210   2.107
 1824SOL     OW 7368   9.067  13.888  13.813
 1824SOL    HW1 7369   9.082  13.982  13.803
 1824SOL    HW2 7370   9.062  13.855  13.724
 1825SOL     OW 7371   6.322   1.876   0.832
 1825SOL    HW1 7372   6.347   1.852   0.921
 1825SOL    HW2 7373   6.404   1.874   0.782
 1826SOL     OW 7374   5.735  14.649   1.973
 1826SOL    HW1 7375   5.825  14.626   1.950
 1826SOL    HW2 7376   5.689  14.651   1.889
 1827SOL     OW 7377   2.603   4.675  13.962
 1827SOL    HW1 7378   2.679   4.618  13.964
 1827SOL    HW2 7379   2.602   4.710  13.872
 1828SOL     OW 7380  12.786  13.047   5.730
 1828SOL    HW1 7381  12.759  12.968   5.779
 1828SOL    HW2 7382  12.709  13.104   5.733
 1829SOL     OW 7383   6.409  13.553   1.494
 1829SOL    HW1 7384   6.476  13.492   1.462
 1829SOL    HW2 7385   6.326  13.509   1.477
 1830SOL     OW 7386   6.321   7.745  12.122
 1830SOL    HW1 7387   6.309   7.754  12.027
 1830SOL    HW2 7388   6.397   7.687  12.131
 1831SOL     OW 7389   7.919   0.913   4.818
 1831SOL    HW1 7390   7.881   0.998   4.843
 1831SOL    HW2 7391   8.008   0.915   4.854
 1832SOL     OW 7392  13.934   2.292   8.801
 1832SOL    HW1 7393  13.920   2.309   8.894
 1832SOL    HW2 7394  14.028   2.306   8.788
 1833SOL     OW 7395   6.812  12.164  12.720
 1833SOL    HW1 7396   6.812  12.249  12.765
 1833SOL    HW2 7397   6.752  12.110  12.771
 1834SOL     OW 7398   4.986   4.560   4.848
 1834SOL    HW1 7399   5.046   4.623   4.889
 1834SOL    HW2 7400   4.919   4.544   4.915
 1835SOL     OW 7401   4.383   2.957  13.005
 1835SOL    HW1 7402   4.320   2.993  13.067
 1835SOL    HW2 7403   4.330   2.924  12.933
 1836SOL     OW 7404   5.425  14.565   5.366
 1836SOL    HW1 7405   5.440  14.478   5.402
 1836SOL    HW2 7406   5.330  14.573   5.363
 1837SOL     OW 7407   1.010  11.033  14.604
 1837SOL    HW1 7408   0.960  11.023  14.685
 1837SOL    HW2 7409   0.999  10.949  14.559
 1838SOL     OW 7410   8.656   1.856  10.346
 1838SOL    HW1 7411   8.710   1.880  10.421
 1838SOL    HW2 7412   8.708   1.790  10.300
 1839SOL     OW 7413  10.490   1.635  13.736
 1839SOL    HW1 7414  10.488   1.621  13.642
 1839SOL    HW2 7415  10.456   1.554  13.773
 1840SOL     OW 7416   5.445   8.741   4.409
 1840SOL    HW1 7417   5.473   8.717   4.320
 1840SOL    HW2 7418   5.379   8.675   4.431
 1841SOL     OW 7419   0.681  12.228   8.277
 1841SOL    HW1 7420   0.620  12.301   8.275
 1841SOL    HW2 7421   0.746  12.250   8.210
 1842SOL     OW 7422   5.669   2.742  12.822
 1842SOL    HW1 7423   5.746   2.759  12.767
 1842SOL    HW2 7424   5.678   2.804  12.895
 1843SOL     OW 7425  13.561  11.760  11.986
 1843SOL    HW1 7426  13.474  11.779  12.021
 1843SOL    HW2 7427  13.619  11.763  12.063
 1844SOL     OW 7428   6.184   1.803  13.256
 1844SOL    HW1 7429   6.129   1.785  13.332
 1844SOL    HW2 7430   6.254   1.737  13.261
 1845SOL     OW 7431  14.543   0.590   6.732
 1845SOL    HW1 7432  14.513   0.661   6.789
 1845SOL    HW2 7433  14.522   0.618   6.644
 1846SOL     OW 7434  11.206   3.068   0.711
 1846SOL    HW1 7435  11.143   3.096   0.645
 1846SOL    HW2 7436  11.249   2.992   0.673
 1847SOL     OW 7437   0.040   7.454  10.227
 1847SOL    HW1 7438   0.019   7.361  10.216
 1847SOL    HW2 7439   0.135   7.455  10.235
 1848SOL     OW 7440   1.154  13.425   1.316
 1848SOL    HW1 7441   1.061  13.402   1.310
 1848SOL    HW2 7442   1.177  13.408   1.407
 1849SOL     OW 7443   0.263   4.373  10.081
 1849SOL    HW1 7444   0.241   4.419  10.162
 1849SOL    HW2 7445   0.267   4.442  10.015
 1850SOL     OW 7446   4.431   8.614   4.089
 1850SOL    HW1 7447   4.524   8.634   4.099
 1850SOL    HW2 7448   4.389   8.658   4.163
 1851SOL     OW 7449   5.896   2.746   8.266
 1851SOL    HW1 7450   5.838   2.713   8.334
 1851SOL    HW2 7451   5.980   2.760   8.311
 1852SOL     OW 7452   6.744  12.265  12.125
 1852SOL    HW1 7453   6.766  12.176  12.152
 1852SOL    HW2 7454   6.708  12.256  12.037
 1853SOL     OW 7455   2.324  13.225  12.709
 1853SOL    HW1 7456   2.407  13.243  12.664
 1853SOL    HW2 7457   2.344  13.148  12.763
 1854SOL     OW 7458   0.442   5.314   0.667
 1854SOL    HW1 7459   0.416   5.229   0.704
 1854SOL    HW2 7460   0.370   5.373   0.689
 1855SOL     OW 7461   4.542  13.882  13.193
 1855SOL    HW1 7462   4.591  13.852  13.117
 1855SOL    HW2 7463   4.587  13.962  13.220
 1856SOL     OW 7464  11.436   2.667   7.691
 1856SOL    HW1 7465  11.486   2.657   7.609
 1856SOL    HW2 7466  11.346   2.680   7.662
 1857SOL     OW 7467   0.130   9.692   4.455
 1857SOL    HW1 7468   0.136   9.787   4.456
 1857SOL    HW2 7469   0.165   9.666   4.370
 1858SOL     OW 7470  14.483   0.266   3.658
 1858SOL    HW1 7471  14.564   0.285   3.705
 1858SOL    HW2 7472  14.511   0.225   3.577
 1859SOL     OW 7473   2.107  10.214   3.913
 1859SOL    HW1 7474   2.046  10.180   3.848
 1859SOL    HW2 7475   2.052  10.262   3.975
 1860SOL     OW 7476   6.542   0.899   7.610
 1860SOL    HW1 7477   6.550   0.824   7.551
 1860SOL    HW2 7478   6.468   0.949   7.576
 1861SOL     OW 7479   6.702   5.379   1.446
 1861SOL    HW1 7480   6.678   5.317   1.377
 1861SOL    HW2 7481   6.667   5.341   1.526
 1862SOL     OW 7482   1.042   2.466   1.985
 1862SOL    HW1 7483   1.054   2.504   1.897
 1862SOL    HW2 7484   1.115   2.405   1.994
 1863SOL     OW 7485   3.364   0.677   5.071
 1863SOL    HW1 7486   3.393   0.767   5.088
 1863SOL    HW2 7487   3.403   0.655   4.986
 1864SOL     OW 7488   0.726   4.344   9.750
 1864SOL    HW1 7489   0.730   4.331   9.845
 1864SOL    HW2 7490   0.736   4.257   9.714
 1865SOL     OW 7491   9.263   7.614   4.240
 1865SOL    HW1 7492   9.282   7.581   4.327
 1865SOL    HW2 7493   9.175   7.583   4.221
 1866SOL     OW 7494  14.715  11.028  13.472
 1866SOL    HW1 7495  14.752  11.116  13.461
 1866SOL    HW2 7496  14.622  11.038  13.451
 1867SOL     OW 7497   2.542   7.083   1.927
 1867SOL    HW1 7498   2.482   7.104   1.855
 1867SOL    HW2 7499   2.491   7.102   2.006
 1868SOL     OW 7500   2.278  13.612   5.535
 1868SOL    HW1 7501   2.304  13.645   5.622
 1868SOL    HW2 7502   2.295  13.518   5.539
 1869SOL     OW 7503   6.669   7.903   8.608
 1869SOL    HW1 7504   6.683   7.936   8.696
 1869SOL    HW2 7505   6.757   7.889   8.573
 1870SOL     OW 7506   6.577  11.967   8.707
 1870SOL    HW1 7507   6.559  11.996   8.797
 1870SOL    HW2 7508   6.664  12.003   8.688
 1871SOL     OW 7509   4.646  12.746   4.008
 1871SOL    HW1 7510   4.592  12.667   4.004
 1871SOL    HW2 7511   4.587  12.815   4.037
 1872SOL     OW 7512   6.091   4.577   5.426
 1872SOL    HW1 7513   6.085   4.570   5.521
 1872SOL    HW2 7514   6.184   4.594   5.409
 1873SOL     OW 7515  14.450   9.557   7.634
 1873SOL    HW1 7516  14.496   9.473   7.633
 1873SOL    HW2 7517  14.423   9.569   7.725
 1874SOL     OW 7518  10.474   1.803   3.015
 1874SOL    HW1 7519  10.473   1.710   3.040
 1874SOL    HW2 7520  10.538   1.808   2.945
 1875SOL     OW 7521   8.567  14.029   8.539
 1875SOL    HW1 7522   8.602  13.945   8.509
 1875SOL    HW2 7523   8.638  14.066   8.592
 1876SOL     OW 7524   2.200   8.076   9.503
 1876SOL    HW1 7525   2.129   8.040   9.450
 1876SOL    HW2 7526   2.279   8.037   9.466
 1877SOL     OW 7527  13.197  12.434  11.660
 1877SOL    HW1 7528  13.238  12.445  11.575
 1877SOL    HW2 7529  13.179  12.523  11.690
 1878SOL     OW 7530   7.514  10.236   2.585
 1878SOL    HW1 7531   7.563  10.223   2.504
 1878SOL    HW2 7532   7.541  10.323   2.615
 1879SOL     OW 7533   9.095   4.757  10.845
 1879SOL    HW1 7534   9.139   4.779  10.928
 1879SOL    HW2 7535   9.167   4.733  10.787
 1880SOL     OW 7536   9.263   0.840   8.924
 1880SOL    HW1 7537   9.240   0.898   8.997
 1880SOL    HW2 7538   9.358   0.849   8.915
 1881SOL     OW 7539   3.552   8.781   8.794
 1881SOL    HW1 7540   3.605   8.705   8.772
 1881SOL    HW2 7541   3.615   8.854   8.795
 1882SOL     OW 7542   2.018   2.104  13.935
 1882SOL    HW1 7543   2.004   2.031  13.995
 1882SOL    HW2 7544   1.979   2.180  13.979
 1883SOL     OW 7545   4.558   8.339  12.748
 1883SOL    HW1 7546   4.613   8.356  12.825
 1883SOL    HW2 7547   4.561   8.244  12.737
 1884SOL     OW 7548  12.776   5.509   1.531
 1884SOL    HW1 7549  12.768   5.435   1.592
 1884SOL    HW2 7550  12.702   5.498   1.471
 1885SOL     OW 7551  13.481   1.942   6.678
 1885SOL    HW1 7552  13.411   1.913   6.736
 1885SOL    HW2 7553  13.562   1.922   6.726
 1886SOL     OW 7554  14.654   6.977   1.234
 1886SOL    HW1 7555  14.585   6.926   1.191
 1886SOL    HW2 7556  14.728   6.917   1.240
 1887SOL     OW 7557   7.776  11.500   1.598
 1887SOL    HW1 7558   7.802  11.562   1.666
 1887SOL    HW2 7559   7.857  11.455   1.574
 1888SOL     OW 7560   1.557   4.409  10.898
 1888SOL    HW1 7561   1.643   4.377  10.870
 1888SOL    HW2 7562   1.527   4.464  10.825
 1889SOL     OW 7563  11.999  12.394   8.911
 1889SOL    HW1 7564  12.008  12.481   8.950
 1889SOL    HW2 7565  12.085  12.354   8.922
 1890SOL     OW 7566   3.021  11.173   8.469
 1890SOL    HW1 7567   2.963  11.213   8.405
 1890SOL    HW2 7568   3.049  11.090   8.429
 1891SOL     OW 7569   4.968   0.571   5.983
 1891SOL    HW1 7570   5.021   0.615   6.050
 1891SOL    HW2 7571   5.030   0.548   5.915
 1892SOL     OW 7572   2.026  10.770   8.993
 1892SOL    HW1 7573   2.052  10.776   8.901
 1892SOL    HW2 7574   2.082  10.833   9.038
 1893SOL     OW 7575   7.075   3.013   7.940
 1893SOL    HW1 7576   7.094   3.098   7.899
 1893SOL    HW2 7577   7.144   3.001   8.004
 1894SOL     OW 7578   2.542  14.801  11.614
 1894SOL    HW1 7579   2.513  14.862  11.682
 1894SOL    HW2 7580   2.488  14.821  11.538
 1895SOL     OW 7581  12.263   0.131  14.846
 1895SOL    HW1 7582  12.220   0.049  14.870
 1895SOL    HW2 7583  12.251   0.188   0.043
 1896SOL     OW 7584  10.959   4.352   3.170
 1896SOL    HW1 7585  10.925   4.442   3.171
 1896SOL    HW2 7586  10.959   4.328   3.077
 1897SOL     OW 7587  11.448  12.963   9.601
 1897SOL    HW1 7588  11.359  12.955   9.637
 1897SOL    HW2 7589  11.436  13.015   9.521
 1898SOL     OW 7590  10.306   3.307   8.080
 1898SOL    HW1 7591  10.328   3.214   8.066
 1898SOL    HW2 7592  10.366   3.354   8.022
 1899SOL     OW 7593  12.060  14.485   3.096
 1899SOL    HW1 7594  12.068  14.544   3.172
 1899SOL    HW2 7595  11.973  14.502   3.062
 1900SOL     OW 7596   3.397  12.448   5.554
 1900SOL    HW1 7597   3.431  12.464   5.466
 1900SOL    HW2 7598   3.453  12.379   5.589
 1901SOL     OW 7599   4.753  11.050  12.387
 1901SOL    HW1 7600   4.837  11.037  12.431
 1901SOL    HW2 7601   4.754  11.141  12.359
 1902SOL     OW 7602   4.581  13.033   7.166
 1902SOL    HW1 7603   4.538  13.080   7.094
 1902SOL    HW2 7604   4.598  13.101   7.231
 1903SOL     OW 7605   1.655   0.441   8.625
 1903SOL    HW1 7606   1.664   0.470   8.534
 1903SOL    HW2 7607   1.702   0.358   8.628
 1904SOL     OW 7608   0.883  13.433   3.304
 1904SOL    HW1 7609   0.849  13.506   3.252
 1904SOL    HW2 7610   0.845  13.355   3.264
 1905SOL     OW 7611   9.620   6.083   2.076
 1905SOL    HW1 7612   9.578   6.146   2.016
 1905SOL    HW2 7613   9.553   6.016   2.089
 1906SOL     OW 7614  13.368   9.158  14.078
 1906SOL    HW1 7615  13.405   9.090  14.022
 1906SOL    HW2 7616  13.329   9.111  14.152
 1907SOL     OW 7617   6.496   1.921   3.810
 1907SOL    HW1 7618   6.481   2.008   3.848
 1907SOL    HW2 7619   6.483   1.934   3.716
 1908SOL     OW 7620   8.610   8.257  11.100
 1908SOL    HW1 7621   8.533   8.204  11.119
 1908SOL    HW2 7622   8.599   8.285  11.009
 1909SOL     OW 7623  14.188   1.597   8.745
 1909SOL    HW1 7624  14.117   1.573   8.804
 1909SOL    HW2 7625  14.265   1.553   8.780
 1910SOL     OW 7626   8.695   4.416   2.747
 1910SOL    HW1 7627   8.768   4.441   2.691
 1910SOL    HW2 7628   8.696   4.320   2.745
 1911SOL     OW 7629   0.232  10.311   5.220
 1911SOL    HW1 7630   0.291  10.263   5.162
 1911SOL    HW2 7631   0.287  10.378   5.261
 1912SOL     OW 7632   4.928  14.471  11.369
 1912SOL    HW1 7633   4.926  14.559  11.333
 1912SOL    HW2 7634   4.902  14.415  11.295
 1913SOL     OW 7635   9.850  10.369  14.872
 1913SOL    HW1 7636   9.901  10.345  14.794
 1913SOL    HW2 7637   9.855  10.464  14.876
 1914SOL     OW 7638   9.150  13.711   9.310
 1914SOL    HW1 7639   9.180  13.752   9.229
 1914SOL    HW2 7640   9.213  13.741   9.376
 1915SOL     OW 7641   5.305   4.947  10.175
 1915SOL    HW1 7642   5.244   4.986  10.112
 1915SOL    HW2 7643   5.336   5.021  10.227
 1916SOL     OW 7644   0.390   3.375  10.737
 1916SOL    HW1 7645   0.318   3.353  10.678
 1916SOL    HW2 7646   0.367   3.333  10.820
 1917SOL     OW 7647  14.455   2.212   5.099
 1917SOL    HW1 7648  14.409   2.259   5.169
 1917SOL    HW2 7649  14.543   2.249   5.098
 1918SOL     OW 7650   5.967   3.381   8.963
 1918SOL    HW1 7651   5.993   3.469   8.937
 1918SOL    HW2 7652   5.897   3.394   9.027
 1919SOL     OW 7653   1.229   7.822   1.370
 1919SOL    HW1 7654   1.261   7.899   1.323
 1919SOL    HW2 7655   1.271   7.828   1.457
 1920SOL     OW 7656  14.512  13.027  13.534
 1920SOL    HW1 7657  14.567  13.104  13.521
 1920SOL    HW2 7658  14.525  12.975  13.454
 1921SOL     OW 7659   4.859   8.159   7.246
 1921SOL    HW1 7660   4.821   8.216   7.179
 1921SOL    HW2 7661   4.796   8.088   7.255
 1922SOL     OW 7662   2.981   7.675  12.125
 1922SOL    HW1 7663   2.906   7.732  12.109
 1922SOL    HW2 7664   2.942   7.595  12.160
 1923SOL     OW 7665  13.806  12.905   2.347
 1923SOL    HW1 7666  13.733  12.945   2.300
 1923SOL    HW2 7667  13.767  12.832   2.395
 1924SOL     OW 7668   6.804   9.619   3.144
 1924SOL    HW1 7669   6.887   9.598   3.101
 1924SOL    HW2 7670   6.737   9.591   3.082
 1925SOL     OW 7671   8.347  13.446   5.098
 1925SOL    HW1 7672   8.373  13.537   5.111
 1925SOL    HW2 7673   8.377  13.401   5.177
 1926SOL     OW 7674   0.740   1.894   1.012
 1926SOL    HW1 7675   0.808   1.903   0.945
 1926SOL    HW2 7676   0.658   1.915   0.967
 1927SOL     OW 7677  12.721   5.695   8.231
 1927SOL    HW1 7678  12.772   5.701   8.151
 1927SOL    HW2 7679  12.766   5.752   8.293
 1928SOL     OW 7680   5.754   6.737   6.894
 1928SOL    HW1 7681   5.843   6.730   6.928
 1928SOL    HW2 7682   5.699   6.700   6.962
 1929SOL     OW 7683   9.055  12.074  14.041
 1929SOL    HW1 7684   9.078  11.981  14.040
 1929SOL    HW2 7685   8.977  12.079  14.096
 1930SOL     OW 7686   8.271   8.529  12.653
 1930SOL    HW1 7687   8.220   8.570  12.723
 1930SOL    HW2 7688   8.278   8.596  12.585
 1931SOL     OW 7689   3.741  14.382   1.685
 1931SOL    HW1 7690   3.820  14.328   1.691
 1931SOL    HW2 7691   3.760  14.457   1.741
 1932SOL     OW 7692  14.331  13.202   9.560
 1932SOL    HW1 7693  14.336  13.216   9.655
 1932SOL    HW2 7694  14.390  13.128   9.544
 1933SOL     OW 7695   5.711   4.629   9.623
 1933SOL    HW1 7696   5.686   4.710   9.578
 1933SOL    HW2 7697   5.743   4.658   9.708
 1934SOL     OW 7698   7.230   0.817  11.802
 1934SOL    HW1 7699   7.178   0.879  11.751
 1934SOL    HW2 7700   7.309   0.867  11.825
 1935SOL     OW 7701   2.231   3.626   9.234
 1935SOL    HW1 7702   2.234   3.719   9.210
 1935SOL    HW2 7703   2.273   3.622   9.319
 1936SOL     OW 7704  13.184   7.319   5.181
 1936SOL    HW1 7705  13.195   7.306   5.275
 1936SOL    HW2 7706  13.253   7.380   5.156
 1937SOL     OW 7707   4.105  12.534  12.225
 1937SOL    HW1 7708   4.131  12.505  12.138
 1937SOL    HW2 7709   4.010  12.541  12.220
 1938SOL     OW 7710   8.967   7.343  12.849
 1938SOL    HW1 7711   8.947   7.301  12.765
 1938SOL    HW2 7712   8.950   7.275  12.914
 1939SOL     OW 7713  14.832  12.217  11.319
 1939SOL    HW1 7714   0.014  12.282  11.353
 1939SOL    HW2 7715  14.867  12.194  11.233
 1940SOL     OW 7716   3.873   9.805   0.614
 1940SOL    HW1 7717   3.835   9.721   0.643
 1940SOL    HW2 7718   3.917   9.840   0.691
 1941SOL     OW 7719   5.000   8.409  12.045
 1941SOL    HW1 7720   4.998   8.327  12.095
 1941SOL    HW2 7721   5.092   8.435  12.045
 1942SOL     OW 7722   3.024   2.764   3.586
 1942SOL    HW1 7723   2.956   2.730   3.644
 1942SOL    HW2 7724   3.101   2.775   3.642
 1943SOL     OW 7725  12.389   5.977   8.393
 1943SOL    HW1 7726  12.330   6.050   8.372
 1943SOL    HW2 7727  12.344   5.900   8.357
 1944SOL     OW 7728  12.065   4.131   5.562
 1944SOL    HW1 7729  12.113   4.050   5.578
 1944SOL    HW2 7730  12.071   4.145   5.467
 1945SOL     OW 7731  13.931   4.586  11.918
 1945SOL    HW1 7732  14.016   4.626  11.935
 1945SOL    HW2 7733  13.949   4.518  11.852
 1946SOL     OW 7734  11.426   5.562   8.602
 1946SOL    HW1 7735  11.483   5.494   8.564
 1946SOL    HW2 7736  11.455   5.643   8.560
 1947SOL     OW 7737  10.663   4.768   1.284
 1947SOL    HW1 7738  10.652   4.814   1.201
 1947SOL    HW2 7739  10.574   4.747   1.312
 1948SOL     OW 7740  14.408  10.401   9.497
 1948SOL    HW1 7741  14.444  10.350   9.425
 1948SOL    HW2 7742  14.437  10.355   9.576
 1949SOL     OW 7743   3.127   2.316  14.061
 1949SOL    HW1 7744   3.192   2.273  14.116
 1949SOL    HW2 7745   3.179   2.362  13.995
 1950SOL     OW 7746   6.464   0.450   8.274
 1950SOL    HW1 7747   6.430   0.387   8.211
 1950SOL    HW2 7748   6.450   0.535   8.233
 1951SOL     OW 7749   2.972  13.403   9.512
 1951SOL    HW1 7750   2.877  13.401   9.499
 1951SOL    HW2 7751   3.009  13.383   9.426
 1952SOL     OW 7752   0.187   2.926  13.572
 1952SOL    HW1 7753   0.230   3.011  13.572
 1952SOL    HW2 7754   0.191   2.897  13.663
 1953SOL     OW 7755  12.851   0.916   8.946
 1953SOL    HW1 7756  12.805   0.834   8.931
 1953SOL    HW2 7757  12.935   0.891   8.985
 1954SOL     OW 7758  13.069   1.096   5.407
 1954SOL    HW1 7759  13.042   1.011   5.441
 1954SOL    HW2 7760  13.066   1.154   5.484
 1955SOL     OW 7761  14.704  14.527   6.801
 1955SOL    HW1 7762  14.780  14.566   6.845
 1955SOL    HW2 7763  14.699  14.573   6.717
 1956SOL     OW 7764  14.412   7.780   2.745
 1956SOL    HW1 7765  14.504   7.765   2.724
 1956SOL    HW2 7766  14.368   7.700   2.719
 1957SOL     OW 7767  14.268   2.007   4.796
 1957SOL    HW1 7768  14.310   1.926   4.824
 1957SOL    HW2 7769  14.177   1.984   4.782
 1958SOL     OW 7770  10.001   4.557   4.452
 1958SOL    HW1 7771   9.941   4.615   4.405
 1958SOL    HW2 7772  10.080   4.555   4.398
 1959SOL     OW 7773   0.133   7.632  14.004
 1959SOL    HW1 7774   0.190   7.692  13.956
 1959SOL    HW2 7775   0.056   7.622  13.948
 1960SOL     OW 7776   7.864   1.801   9.497
 1960SOL    HW1 7777   7.933   1.817   9.562
 1960SOL    HW2 7778   7.907   1.812   9.413
 1961SOL     OW 7779   3.661   8.952   9.650
 1961SOL    HW1 7780   3.657   9.037   9.606
 1961SOL    HW2 7781   3.647   8.971   9.742
 1962SOL     OW 7782  14.492  12.959   2.896
 1962SOL    HW1 7783  14.575  12.913   2.881
 1962SOL    HW2 7784  14.497  12.985   2.988
 1963SOL     OW 7785   9.563   0.893  12.412
 1963SOL    HW1 7786   9.506   0.900  12.335
 1963SOL    HW2 7787   9.629   0.829  12.386
 1964SOL     OW 7788  10.802   4.500   4.223
 1964SOL    HW1 7789  10.825   4.413   4.190
 1964SOL    HW2 7790  10.713   4.491   4.257
 1965SOL     OW 7791  13.255   3.121  10.436
 1965SOL    HW1 7792  13.188   3.140  10.501
 1965SOL    HW2 7793  13.221   3.045  10.388
 1966SOL     OW 7794   2.575  12.437   2.545
 1966SOL    HW1 7795   2.630  12.515   2.549
 1966SOL    HW2 7796   2.624  12.370   2.593
 1967SOL     OW 7797   1.690   3.613  13.358
 1967SOL    HW1 7798   1.657   3.554  13.426
 1967SOL    HW2 7799   1.679   3.564  13.276
 1968SOL     OW 7800  12.851  10.382   5.334
 1968SOL    HW1 7801  12.785  10.420   5.276
 1968SOL    HW2 7802  12.932  10.430   5.313
 1969SOL     OW 7803   4.818   2.812  13.400
 1969SOL    HW1 7804   4.772   2.893  13.378
 1969SOL    HW2 7805   4.765   2.772  13.470
 1970SOL     OW 7806  11.663  10.108   9.364
 1970SOL    HW1 7807  11.611  10.029   9.348
 1970SOL    HW2 7808  11.752  10.077   9.376
 1971SOL     OW 7809   1.733   7.766  10.587
 1971SOL    HW1 7810   1.732   7.775  10.682
 1971SOL    HW2 7811   1.821   7.793  10.561
 1972SOL     OW 7812  12.579  14.581   9.873
 1972SOL    HW1 7813  12.666  14.554   9.903
 1972SOL    HW2 7814  12.595  14.637   9.797
 1973SOL     OW 7815  13.799   1.137   8.912
 1973SOL    HW1 7816  13.858   1.174   8.847
 1973SOL    HW2 7817  13.842   1.057   8.941
 1974SOL     OW 7818   7.316   8.410  13.523
 1974SOL    HW1 7819   7.237   8.436  13.475
 1974SOL    HW2 7820   7.315   8.463  13.602
 1975SOL     OW 7821   6.147  13.718   2.256
 1975SOL    HW1 7822   6.196  13.756   2.329
 1975SOL    HW2 7823   6.057  13.714   2.288
 1976SOL     OW 7824  13.703  12.459   3.208
 1976SOL    HW1 7825  13.732  12.483   3.120
 1976SOL    HW2 7826  13.608  12.472   3.205
 1977SOL     OW 7827   1.591   1.613  10.638
 1977SOL    HW1 7828   1.654   1.542  10.635
 1977SOL    HW2 7829   1.625   1.679  10.579
 1978SOL     OW 7830   5.572   5.089  13.936
 1978SOL    HW1 7831   5.480   5.085  13.961
 1978SOL    HW2 7832   5.575   5.048  13.849
 1979SOL     OW 7833  11.664  13.010  11.318
 1979SOL    HW1 7834  11.733  12.944  11.311
 1979SOL    HW2 7835  11.684  13.056  11.400
 1980SOL     OW 7836   7.252   3.368   0.661
 1980SOL    HW1 7837   7.275   3.339   0.573
 1980SOL    HW2 7838   7.313   3.322   0.718
 1981SOL     OW 7839  11.379  12.411   1.195
 1981SOL    HW1 7840  11.437  12.341   1.165
 1981SOL    HW2 7841  11.407  12.429   1.285
 1982SOL     OW 7842  13.480   8.411   3.018
 1982SOL    HW1 7843  13.426   8.334   3.000
 1982SOL    HW2 7844  13.529   8.426   2.937
 1983SOL     OW 7845   0.563   1.119  10.834
 1983SOL    HW1 7846   0.578   1.045  10.893
 1983SOL    HW2 7847   0.650   1.138  10.797
 1984SOL     OW 7848  11.241   3.328  11.164
 1984SOL    HW1 7849  11.162   3.276  11.178
 1984SOL    HW2 7850  11.265   3.311  11.072
 1985SOL     OW 7851  10.006   7.886  13.206
 1985SOL    HW1 7852  10.088   7.837  13.210
 1985SOL    HW2 7853  10.021   7.963  13.261
 1986SOL     OW 7854   0.792  13.177   4.068
 1986SOL    HW1 7855   0.784  13.093   4.022
 1986SOL    HW2 7856   0.775  13.157   4.159
 1987SOL     OW 7857  11.428  11.519   1.006
 1987SOL    HW1 7858  11.389  11.519   0.919
 1987SOL    HW2 7859  11.499  11.583   1.001
 1988SOL     OW 7860   5.259   2.771  11.541
 1988SOL    HW1 7861   5.225   2.860  11.545
 1988SOL    HW2 7862   5.349   2.779  11.573
 1989SOL     OW 7863   9.887   3.494   3.763
 1989SOL    HW1 7864   9.801   3.452   3.758
 1989SOL    HW2 7865   9.912   3.508   3.672
 1990SOL     OW 7866  11.850  13.913   8.034
 1990SOL    HW1 7867  11.777  13.873   7.987
 1990SOL    HW2 7868  11.892  13.971   7.970
 1991SOL     OW 7869   1.113  10.964   9.653
 1991SOL    HW1 7870   1.046  10.949   9.586
 1991SOL    HW2 7871   1.085  10.910   9.727
 1992SOL     OW 7872  10.664  13.678  13.331
 1992SOL    HW1 7873  10.744  13.730  13.320
 1992SOL    HW2 7874  10.599  13.741  13.364
 1993SOL     OW 7875   0.120  13.755  14.155
 1993SOL    HW1 7876   0.209  13.721  14.167
 1993SOL    HW2 7877   0.132  13.840  14.114
 1994SOL     OW 7878  10.086   6.094  14.266
 1994SOL    HW1 7879  10.135   6.176  14.258
 1994SOL    HW2 7880   9.994   6.122  14.273
 1995SOL     OW 7881   0.348   8.031   4.706
 1995SOL    HW1 7882   0.411   8.083   4.655
 1995SOL    HW2 7883   0.376   7.940   4.691
 1996SOL     OW 7884  14.807   4.351   5.195
 1996SOL    HW1 7885  14.778   4.436   5.230
 1996SOL    HW2 7886  14.726   4.300   5.187
 1997SOL     OW 7887   5.829   1.519   4.436
 1997SOL    HW1 7888   5.890   1.567   4.380
 1997SOL    HW2 7889   5.812   1.437   4.390
 1998SOL     OW 7890   1.748  10.042  14.320
 1998SOL    HW1 7891   1.693  10.117  14.340
 1998SOL    HW2 7892   1.830  10.059  14.367
 1999SOL     OW 7893   9.895   7.623   5.707
 1999SOL    HW1 7894   9.930   7.687   5.645
 1999SOL    HW2 7895   9.800   7.635   5.704
 2000SOL     OW 7896   8.342   9.092  14.533
 2000SOL    HW1 7897   8.342   8.997  14.522
 2000SOL    HW2 7898   8.366   9.126  14.447
 2001SOL     OW 7899   9.489  13.267   2.649
 2001SOL    HW1 7900   9.557  13.201   2.641
 2001SOL    HW2 7901   9.504  13.326   2.575
 2002SOL     OW 7902  11.444  10.298  10.454
 2002SOL    HW1 7903  11.413  10.347  10.378
 2002SOL    HW2 7904  11.396  10.335  10.528
 2003SOL     OW 7905   0.735  14.705   2.877
 2003SOL    HW1 7906   0.664  14.758   2.839
 2003SOL    HW2 7907   0.802  14.768   2.902
 2004SOL     OW 7908  13.220   1.324  12.780
 2004SOL    HW1 7909  13.160   1.285  12.718
 2004SOL    HW2 7910  13.198   1.284  12.864
 2005SOL     OW 7911   7.688   1.993  14.494
 2005SOL    HW1 7912   7.750   2.048  14.447
 2005SOL    HW2 7913   7.743   1.932  14.543
 2006SOL     OW 7914  11.966  12.084   4.897
 2006SOL    HW1 7915  11.888  12.038   4.928
 2006SOL    HW2 7916  11.992  12.036   4.818
 2007SOL     OW 7917   6.045  14.003   9.254
 2007SOL    HW1 7918   5.970  14.000   9.314
 2007SOL    HW2 7919   6.016  13.953   9.177
 2008SOL     OW 7920  11.863   2.676   9.289
 2008SOL    HW1 7921  11.854   2.657   9.196
 2008SOL    HW2 7922  11.774   2.671   9.323
 2009SOL     OW 7923   7.015   2.366   9.307
 2009SOL    HW1 7924   6.983   2.456   9.316
 2009SOL    HW2 7925   7.036   2.339   9.397
 2010SOL     OW 7926   0.986   0.222  13.547
 2010SOL    HW1 7927   0.928   0.291  13.516
 2010SOL    HW2 7928   0.971   0.149  13.485
 2011SOL     OW 7929   7.150   4.277   2.636
 2011SOL    HW1 7930   7.065   4.293   2.595
 2011SOL    HW2 7931   7.131   4.273   2.730
 2012SOL     OW 7932  10.335   1.142  13.849
 2012SOL    HW1 7933  10.339   1.126  13.943
 2012SOL    HW2 7934  10.303   1.232  13.841
 2013SOL     OW 7935  11.470   0.238  11.297
 2013SOL    HW1 7936  11.538   0.201  11.353
 2013SOL    HW2 7937  11.492   0.208  11.209
 2014SOL     OW 7938   4.849  14.257  12.929
 2014SOL    HW1 7939   4.785  14.262  12.858
 2014SOL    HW2 7940   4.916  14.321  12.905
 2015SOL     OW 7941  10.781   1.207  12.829
 2015SOL    HW1 7942  10.733   1.269  12.885
 2015SOL    HW2 7943  10.772   1.123  12.874
 2016SOL     OW 7944  13.997  12.587   3.363
 2016SOL    HW1 7945  14.046  12.603   3.444
 2016SOL    HW2 7946  13.909  12.563   3.392
 2017SOL     OW 7947   5.540   7.508  11.266
 2017SOL    HW1 7948   5.561   7.458  11.344
 2017SOL    HW2 7949   5.524   7.597  11.297
 2018SOL     OW 7950  12.143   4.665  13.994
 2018SOL    HW1 7951  12.187   4.690  13.913
 2018SOL    HW2 7952  12.126   4.748  14.038
 2019SOL     OW 7953   0.505   9.804   6.881
 2019SOL    HW1 7954   0.557   9.768   6.809
 2019SOL    HW2 7955   0.439   9.736   6.899
 2020SOL     OW 7956  13.817   5.521  12.034
 2020SOL    HW1 7957  13.794   5.469  12.111
 2020SOL    HW2 7958  13.798   5.465  11.959
 2021SOL     OW 7959   5.469   5.976   1.207
 2021SOL    HW1 7960   5.391   6.017   1.169
 2021SOL    HW2 7961   5.541   6.033   1.180
 2022SOL     OW 7962   2.270   2.386  10.086
 2022SOL    HW1 7963   2.313   2.385  10.171
 2022SOL    HW2 7964   2.196   2.327  10.096
 2023SOL     OW 7965   3.808   9.516  12.517
 2023SOL    HW1 7966   3.854   9.552  12.441
 2023SOL    HW2 7967   3.717   9.541  12.504
 2024SOL     OW 7968   0.384   8.034   6.736
 2024SOL    HW1 7969   0.299   8.078   6.738
 2024SOL    HW2 7970   0.374   7.966   6.669
 2025SOL     OW 7971  12.896  10.418   8.532
 2025SOL    HW1 7972  12.813  10.460   8.511
 2025SOL    HW2 7973  12.911  10.438   8.624
 2026SOL     OW 7974  12.725  12.248   6.015
 2026SOL    HW1 7975  12.801  12.194   6.033
 2026SOL    HW2 7976  12.650  12.189   6.025
 2027SOL     OW 7977  14.094  14.356  10.462
 2027SOL    HW1 7978  14.027  14.301  10.421
 2027SOL    HW2 7979  14.087  14.440  10.417
 2028SOL     OW 7980   8.577  14.781   2.582
 2028SOL    HW1 7981   8.646  14.775   2.647
 2028SOL    HW2 7982   8.611  14.734   2.506
 2029SOL     OW 7983   1.970   7.696   8.102
 2029SOL    HW1 7984   1.929   7.643   8.170
 2029SOL    HW2 7985   2.059   7.661   8.094
 2030SOL     OW 7986   1.946   5.571   2.413
 2030SOL    HW1 7987   1.898   5.654   2.403
 2030SOL    HW2 7988   1.878   5.505   2.424
 2031SOL     OW 7989   7.317  10.665   2.739
 2031SOL    HW1 7990   7.399  10.693   2.700
 2031SOL    HW2 7991   7.252  10.675   2.670
 2032SOL     OW 7992  11.740  12.888   4.333
 2032SOL    HW1 7993  11.645  12.882   4.342
 2032SOL    HW2 7994  11.756  12.895   4.239
 2033SOL     OW 7995  13.814   9.475   1.369
 2033SOL    HW1 7996  13.835   9.463   1.276
 2033SOL    HW2 7997  13.900   9.483   1.412
 2034SOL     OW 7998  11.674   7.418  10.736
 2034SOL    HW1 7999  11.634   7.424  10.649
 2034SOL    HW2 8000  11.676   7.508  10.768
 2035SOL     OW 8001   1.531   3.654  13.950
 2035SOL    HW1 8002   1.622   3.669  13.922
 2035SOL    HW2 8003   1.536   3.648  14.046
 2036SOL     OW 8004   1.109   8.452  11.520
 2036SOL    HW1 8005   1.045   8.443  11.449
 2036SOL    HW2 8006   1.193   8.431  11.480
 2037SOL     OW 8007   1.731  11.690   8.111
 2037SOL    HW1 8008   1.806  11.749   8.106
 2037SOL    HW2 8009   1.726  11.665   8.203
 2038SOL     OW 8010   7.915   5.861   6.599
 2038SOL    HW1 8011   7.951   5.947   6.624
 2038SOL    HW2 8012   7.840   5.849   6.657
 2039SOL     OW 8013  13.636   9.460   9.351
 2039SOL    HW1 8014  13.548   9.498   9.349
 2039SOL    HW2 8015  13.655   9.450   9.445
 2040SOL     OW 8016  12.291   5.460   0.626
 2040SOL    HW1 8017  12.279   5.550   0.595
 2040SOL    HW2 8018  12.260   5.462   0.717
 2041SOL     OW 8019  14.636  12.941   6.923
 2041SOL    HW1 8020  14.664  12.938   6.831
 2041SOL    HW2 8021  14.708  12.983   6.969
 2042SOL     OW 8022   4.532   9.400   4.656
 2042SOL    HW1 8023   4.477   9.325   4.676
 2042SOL    HW2 8024   4.608   9.390   4.714
 2043SOL     OW 8025   5.081  10.839  12.930
 2043SOL    HW1 8026   5.075  10.755  12.884
 2043SOL    HW2 8027   5.044  10.822  13.016
 2044SOL     OW 8028  12.309   8.383   6.501
 2044SOL    HW1 8029  12.319   8.441   6.576
 2044SOL    HW2 8030  12.284   8.298   6.539
 2045SOL     OW 8031  11.566  14.746  12.388
 2045SOL    HW1 8032  11.630  14.726  12.456
 2045SOL    HW2 8033  11.544  14.660  12.351
 2046SOL     OW 8034  12.301   7.277  11.249
 2046SOL    HW1 8035  12.207   7.271  11.268
 2046SOL    HW2 8036  12.341   7.211  11.305
 2047SOL     OW 8037   5.601  11.558   8.841
 2047SOL    HW1 8038   5.612  11.474   8.885
 2047SOL    HW2 8039   5.521  11.548   8.789
 2048SOL     OW 8040   6.748   0.276   3.451
 2048SOL    HW1 8041   6.776   0.348   3.508
 2048SOL    HW2 8042   6.653   0.270   3.465
 2049SOL     OW 8043   2.654   4.211  12.518
 2049SOL    HW1 8044   2.661   4.116  12.520
 2049SOL    HW2 8045   2.744   4.242  12.514
 2050SOL     OW 8046   4.453   6.081  10.195
 2050SOL    HW1 8047   4.548   6.088  10.207
 2050SOL    HW2 8048   4.417   6.092  10.283
 2051SOL     OW 8049   2.688  10.388  10.393
 2051SOL    HW1 8050   2.664  10.402  10.301
 2051SOL    HW2 8051   2.687  10.293  10.403
 2052SOL     OW 8052   4.005   3.578   7.913
 2052SOL    HW1 8053   3.956   3.501   7.882
 2052SOL    HW2 8054   3.994   3.643   7.844
 2053SOL     OW 8055   4.460   6.027   9.605
 2053SOL    HW1 8056   4.444   6.020   9.511
 2053SOL    HW2 8057   4.372   6.032   9.643
 2054SOL     OW 8058   6.886   9.959   8.466
 2054SOL    HW1 8059   6.964   9.904   8.466
 2054SOL    HW2 8060   6.858   9.963   8.375
 2055SOL     OW 8061   1.138  11.385   6.783
 2055SOL    HW1 8062   1.172  11.444   6.851
 2055SOL    HW2 8063   1.044  11.400   6.784
 2056SOL     OW 8064   5.920   2.733   8.878
 2056SOL    HW1 8065   6.004   2.775   8.859
 2056SOL    HW2 8066   5.867   2.750   8.800
 2057SOL     OW 8067  13.907   6.497   7.560
 2057SOL    HW1 8068  13.851   6.423   7.534
 2057SOL    HW2 8069  13.851   6.551   7.615
 2058SOL     OW 8070   5.979   8.098   9.144
 2058SOL    HW1 8071   5.943   8.101   9.055
 2058SOL    HW2 8072   6.072   8.079   9.131
 2059SOL     OW 8073   3.728   9.270   6.125
 2059SOL    HW1 8074   3.772   9.343   6.168
 2059SOL    HW2 8075   3.772   9.262   6.040
 2060SOL     OW 8076   1.789  12.990  14.380
 2060SOL    HW1 8077   1.760  13.016  14.468
 2060SOL    HW2 8078   1.738  13.045  14.321
 2061SOL     OW 8079  11.488   5.267   7.499
 2061SOL    HW1 8080  11.414   5.287   7.442
 2061SOL    HW2 8081  11.490   5.172   7.504
 2062SOL     OW 8082  13.520  11.535   4.553
 2062SOL    HW1 8083  13.464  11.589   4.497
 2062SOL    HW2 8084  13.609  11.552   4.522
 2063SOL     OW 8085   2.103   9.053  12.756
 2063SOL    HW1 8086   2.100   9.135  12.707
 2063SOL    HW2 8087   2.020   9.051  12.805
 2064SOL     OW 8088   1.597   9.709   1.181
 2064SOL    HW1 8089   1.514   9.751   1.160
 2064SOL    HW2 8090   1.622   9.662   1.101
 2065SOL     OW 8091  11.864  11.255   6.548
 2065SOL    HW1 8092  11.797  11.228   6.611
 2065SOL    HW2 8093  11.813  11.288   6.473
 2066SOL     OW 8094   2.184   2.129  10.721
 2066SOL    HW1 8095   2.186   2.033  10.722
 2066SOL    HW2 8096   2.203   2.152  10.630
 2067SOL     OW 8097   2.198  11.831  11.655
 2067SOL    HW1 8098   2.189  11.899  11.588
 2067SOL    HW2 8099   2.112  11.790  11.660
 2068SOL     OW 8100   2.070  12.345   8.670
 2068SOL    HW1 8101   1.987  12.301   8.649
 2068SOL    HW2 8102   2.104  12.374   8.585
 2069SOL     OW 8103   0.954   5.103   0.363
 2069SOL    HW1 8104   0.876   5.158   0.376
 2069SOL    HW2 8105   0.927   5.016   0.391
 2070SOL     OW 8106  14.661  12.877  10.589
 2070SOL    HW1 8107  14.651  12.970  10.611
 2070SOL    HW2 8108  14.595  12.833  10.641
 2071SOL     OW 8109  14.420   6.541   7.032
 2071SOL    HW1 8110  14.418   6.454   7.072
 2071SOL    HW2 8111  14.475   6.529   6.954
 2072SOL     OW 8112   7.044   4.972  10.464
 2072SOL    HW1 8113   7.114   5.032  10.486
 2072SOL    HW2 8114   7.079   4.918  10.393
 2073SOL     OW 8115   0.388   4.980   1.846
 2073SOL    HW1 8116   0.350   5.004   1.931
 2073SOL    HW2 8117   0.478   5.012   1.851
 2074SOL     OW 8118   2.611   4.995  12.383
 2074SOL    HW1 8119   2.519   5.012  12.366
 2074SOL    HW2 8120   2.658   5.060  12.331
 2075SOL     OW 8121   9.622  10.309   4.908
 2075SOL    HW1 8122   9.579  10.252   4.971
 2075SOL    HW2 8123   9.568  10.303   4.829
 2076SOL     OW 8124  14.801  14.815  12.681
 2076SOL    HW1 8125  14.747  14.792  12.756
 2076SOL    HW2 8126  14.847  14.734  12.659
 2077SOL     OW 8127   2.076  13.859   8.936
 2077SOL    HW1 8128   2.042  13.786   8.988
 2077SOL    HW2 8129   2.052  13.937   8.986
 2078SOL     OW 8130   8.345  13.486   0.853
 2078SOL    HW1 8131   8.400  13.474   0.930
 2078SOL    HW2 8132   8.379  13.565   0.811
 2079SOL     OW 8133   9.901  14.201   7.676
 2079SOL    HW1 8134   9.838  14.207   7.749
 2079SOL    HW2 8135   9.884  14.279   7.624
 2080SOL     OW 8136   5.950   1.941  12.515
 2080SOL    HW1 8137   5.944   2.027  12.556
 2080SOL    HW2 8138   5.957   1.879  12.587
 2081SOL     OW 8139  10.153   9.432  12.794
 2081SOL    HW1 8140  10.197   9.444  12.878
 2081SOL    HW2 8141  10.201   9.486  12.732
 2082SOL     OW 8142   4.009   8.817   4.419
 2082SOL    HW1 8143   3.970   8.730   4.410
 2082SOL    HW2 8144   3.963   8.856   4.493
 2083SOL     OW 8145   3.373  11.668   0.996
 2083SOL    HW1 8146   3.421  11.690   0.916
 2083SOL    HW2 8147   3.281  11.678   0.972
 2084SOL     OW 8148  11.487   7.731  10.933
 2084SOL    HW1 8149  11.494   7.826  10.947
 2084SOL    HW2 8150  11.472   7.722  10.839
 2085SOL     OW 8151   2.291  13.378  11.989
 2085SOL    HW1 8152   2.255  13.296  12.024
 2085SOL    HW2 8153   2.332  13.419  12.065
 2086SOL     OW 8154   8.347   5.968  11.007
 2086SOL    HW1 8155   8.277   5.966  10.942
 2086SOL    HW2 8156   8.372   5.876  11.019
 2087SOL     OW 8157   4.533   3.736   8.173
 2087SOL    HW1 8158   4.568   3.705   8.089
 2087SOL    HW2 8159   4.516   3.657   8.223
 2088SOL     OW 8160   7.213   3.034  11.337
 2088SOL    HW1 8161   7.223   3.082  11.419
 2088SOL    HW2 8162   7.226   2.942  11.361
 2089SOL     OW 8163   2.121   1.523   2.633
 2089SOL    HW1 8164   2.196   1.525   2.573
 2089SOL    HW2 8165   2.160   1.500   2.718
 2090SOL     OW 8166   0.866  12.036   0.591
 2090SOL    HW1 8167   0.913  12.028   0.674
 2090SOL    HW2 8168   0.900  12.117   0.553
 2091SOL     OW 8169   6.289   9.020   9.665
 2091SOL    HW1 8170   6.251   8.933   9.663
 2091SOL    HW2 8171   6.365   9.014   9.606
 2092SOL     OW 8172   4.858  13.522   6.567
 2092SOL    HW1 8173   4.868  13.427   6.575
 2092SOL    HW2 8174   4.782  13.533   6.510
 2093SOL     OW 8175   6.304   2.220  13.243
 2093SOL    HW1 8176   6.302   2.315  13.240
 2093SOL    HW2 8177   6.391   2.196  13.212
 2094SOL     OW 8178   0.869   6.075   4.821
 2094SOL    HW1 8179   0.864   5.989   4.779
 2094SOL    HW2 8180   0.785   6.116   4.803
 2095SOL     OW 8181   0.191  12.111   1.518
 2095SOL    HW1 8182   0.190  12.149   1.606
 2095SOL    HW2 8183   0.098  12.094   1.499
 2096SOL     OW 8184   5.716   5.919   3.952
 2096SOL    HW1 8185   5.708   6.015   3.950
 2096SOL    HW2 8186   5.805   5.903   3.982
 2097SOL     OW 8187   2.225   2.196  13.004
 2097SOL    HW1 8188   2.306   2.197  12.954
 2097SOL    HW2 8189   2.160   2.238  12.947
 2098SOL     OW 8190  10.184   1.635   0.815
 2098SOL    HW1 8191  10.212   1.562   0.760
 2098SOL    HW2 8192  10.125   1.595   0.879
 2099SOL     OW 8193   0.886  14.825   3.688
 2099SOL    HW1 8194   0.804  14.832   3.738
 2099SOL    HW2 8195   0.954  14.820   3.754
 2100SOL     OW 8196  11.485  11.367   0.749
 2100SOL    HW1 8197  11.503  11.297   0.811
 2100SOL    HW2 8198  11.536  11.345   0.672
 2101SOL     OW 8199   3.346  10.413   6.421
 2101SOL    HW1 8200   3.282  10.438   6.353
 2101SOL    HW2 8201   3.376  10.497   6.456
 2102SOL     OW 8202   9.480   0.632   0.018
 2102SOL    HW1 8203   9.505   0.722   0.038
 2102SOL    HW2 8204   9.430   0.638  14.817
 2103SOL     OW 8205  10.166   0.452   8.322
 2103SOL    HW1 8206  10.201   0.386   8.263
 2103SOL    HW2 8207  10.230   0.523   8.320
 2104SOL     OW 8208   6.566  11.288  13.027
 2104SOL    HW1 8209   6.589  11.295  12.934
 2104SOL    HW2 8210   6.598  11.369  13.066
 2105SOL     OW 8211  10.854  14.555   1.720
 2105SOL    HW1 8212  10.763  14.579   1.737
 2105SOL    HW2 8213  10.855  14.459   1.721
 2106SOL     OW 8214  14.291   9.106   7.499
 2106SOL    HW1 8215  14.327   9.142   7.580
 2106SOL    HW2 8216  14.221   9.166   7.475
 2107SOL     OW 8217  12.052  13.173  14.330
 2107SOL    HW1 8218  12.002  13.132  14.259
 2107SOL    HW2 8219  12.090  13.100  14.378
 2108SOL     OW 8220   4.320   8.841   4.702
 2108SOL    HW1 8221   4.349   8.816   4.614
 2108SOL    HW2 8222   4.271   8.922   4.688
 2109SOL     OW 8223   5.729  10.970   7.453
 2109SOL    HW1 8224   5.781  10.907   7.501
 2109SOL    HW2 8225   5.754  11.055   7.488
 2110SOL     OW 8226   2.462  12.199  13.213
 2110SOL    HW1 8227   2.401  12.167  13.147
 2110SOL    HW2 8228   2.538  12.231  13.164
 2111SOL     OW 8229   3.871   7.566   8.821
 2111SOL    HW1 8230   3.892   7.473   8.823
 2111SOL    HW2 8231   3.809   7.579   8.892
 2112SOL     OW 8232  13.216  12.632  12.995
 2112SOL    HW1 8233  13.223  12.545  13.034
 2112SOL    HW2 8234  13.235  12.692  13.067
 2113SOL     OW 8235  11.132   7.644   7.398
 2113SOL    HW1 8236  11.081   7.609   7.471
 2113SOL    HW2 8237  11.223   7.621   7.420
 2114SOL     OW 8238  10.259   8.811   2.440
 2114SOL    HW1 8239  10.288   8.808   2.532
 2114SOL    HW2 8240  10.256   8.720   2.413
 2115SOL     OW 8241   2.660   8.558   7.756
 2115SOL    HW1 8242   2.625   8.503   7.687
 2115SOL    HW2 8243   2.585   8.576   7.813
 2116SOL     OW 8244  12.734   4.742   1.469
 2116SOL    HW1 8245  12.788   4.794   1.411
 2116SOL    HW2 8246  12.730   4.792   1.551
 2117SOL     OW 8247   0.464  13.145   7.140
 2117SOL    HW1 8248   0.510  13.169   7.059
 2117SOL    HW2 8249   0.528  13.096   7.190
 2118SOL     OW 8250   8.645   6.241  13.101
 2118SOL    HW1 8251   8.622   6.169  13.042
 2118SOL    HW2 8252   8.560   6.275  13.131
 2119SOL     OW 8253   2.261  13.073   0.417
 2119SOL    HW1 8254   2.195  13.006   0.399
 2119SOL    HW2 8255   2.329  13.057   0.352
 2120SOL     OW 8256  13.764   9.291   8.827
 2120SOL    HW1 8257  13.791   9.381   8.813
 2120SOL    HW2 8258  13.729   9.289   8.916
 2121SOL     OW 8259  14.608   3.098  10.267
 2121SOL    HW1 8260  14.617   3.020  10.212
 2121SOL    HW2 8261  14.680   3.092  10.330
 2122SOL     OW 8262   9.540  13.935   7.619
 2122SOL    HW1 8263   9.570  13.870   7.682
 2122SOL    HW2 8264   9.590  13.917   7.540
 2123SOL     OW 8265  12.387   4.932  12.109
 2123SOL    HW1 8266  12.433   5.016  12.111
 2123SOL    HW2 8267  12.416   4.891  12.028
 2124SOL     OW 8268   6.150   8.680  10.916
 2124SOL    HW1 8269   6.117   8.708  10.830
 2124SOL    HW2 8270   6.211   8.609  10.896
 2125SOL     OW 8271   3.871   8.894   0.873
 2125SOL    HW1 8272   3.889   8.974   0.823
 2125SOL    HW2 8273   3.957   8.865   0.904
 2126SOL     OW 8274  14.308   0.467   4.557
 2126SOL    HW1 8275  14.344   0.547   4.518
 2126SOL    HW2 8276  14.214   0.472   4.537
 2127SOL     OW 8277   9.534   6.371   9.237
 2127SOL    HW1 8278   9.493   6.315   9.171
 2127SOL    HW2 8279   9.461   6.402   9.291
 2128SOL     OW 8280   5.680  10.503   0.840
 2128SOL    HW1 8281   5.755  10.445   0.855
 2128SOL    HW2 8282   5.692  10.535   0.751
 2129SOL     OW 8283  14.102   2.434  13.588
 2129SOL    HW1 8284  14.024   2.411  13.537
 2129SOL    HW2 8285  14.102   2.530  13.588
 2130SOL     OW 8286   8.213   2.188  12.594
 2130SOL    HW1 8287   8.194   2.143  12.676
 2130SOL    HW2 8288   8.244   2.118  12.536
 2131SOL     OW 8289   6.620   9.306   4.139
 2131SOL    HW1 8290   6.647   9.249   4.211
 2131SOL    HW2 8291   6.701   9.352   4.115
 2132SOL     OW 8292   8.259   3.474  10.131
 2132SOL    HW1 8293   8.273   3.416  10.206
 2132SOL    HW2 8294   8.330   3.452  10.070
 2133SOL     OW 8295  12.177  11.136  12.534
 2133SOL    HW1 8296  12.164  11.229  12.517
 2133SOL    HW2 8297  12.213  11.131  12.623
 2134SOL     OW 8298   6.647   9.441  11.674
 2134SOL    HW1 8299   6.713   9.437  11.744
 2134SOL    HW2 8300   6.696   9.468  11.596
 2135SOL     OW 8301   0.206  11.351  11.703
 2135SOL    HW1 8302   0.199  11.269  11.752
 2135SOL    HW2 8303   0.115  11.374  11.682
 2136SOL     OW 8304  14.822   6.722   6.469
 2136SOL    HW1 8305  14.741   6.680   6.441
 2136SOL    HW2 8306  14.798   6.813   6.484
 2137SOL     OW 8307   7.047  11.144   2.997
 2137SOL    HW1 8308   7.102  11.065   2.997
 2137SOL    HW2 8309   7.108  11.216   3.007
 2138SOL     OW 8310   6.403   3.203   8.021
 2138SOL    HW1 8311   6.459   3.199   7.943
 2138SOL    HW2 8312   6.464   3.194   8.094
 2139SOL     OW 8313   2.081   3.659  11.513
 2139SOL    HW1 8314   2.170   3.654  11.478
 2139SOL    HW2 8315   2.046   3.571  11.505
 2140SOL     OW 8316  13.073  13.249   2.312
 2140SOL    HW1 8317  13.062  13.254   2.407
 2140SOL    HW2 8318  13.025  13.325   2.278
 2141SOL     OW 8319  11.821  10.634   7.051
 2141SOL    HW1 8320  11.840  10.553   7.003
 2141SOL    HW2 8321  11.729  10.653   7.029
 2142SOL     OW 8322   4.226   1.449   4.544
 2142SOL    HW1 8323   4.254   1.393   4.615
 2142SOL    HW2 8324   4.304   1.461   4.490
 2143SOL     OW 8325   1.919   9.144   4.293
 2143SOL    HW1 8326   1.963   9.065   4.324
 2143SOL    HW2 8327   1.990   9.199   4.259
 2144SOL     OW 8328   0.958   0.298   7.856
 2144SOL    HW1 8329   0.888   0.246   7.816
 2144SOL    HW2 8330   1.024   0.306   7.787
 2145SOL     OW 8331   2.126   8.892   7.588
 2145SOL    HW1 8332   2.039   8.915   7.555
 2145SOL    HW2 8333   2.169   8.976   7.604
 2146SOL     OW 8334  12.283  13.286   4.002
 2146SOL    HW1 8335  12.203  13.339   4.001
 2146SOL    HW2 8336  12.307  13.277   3.910
 2147SOL     OW 8337  10.762  14.049  12.285
 2147SOL    HW1 8338  10.717  14.073  12.204
 2147SOL    HW2 8339  10.693  14.049  12.351
 2148SOL     OW 8340  13.976   2.172   5.852
 2148SOL    HW1 8341  14.046   2.108   5.866
 2148SOL    HW2 8342  13.953   2.202   5.940
 2149SOL     OW 8343   8.431   5.137   7.970
 2149SOL    HW1 8344   8.413   5.230   7.959
 2149SOL    HW2 8345   8.393   5.096   7.892
 2150SOL     OW 8346  11.378  14.260  10.201
 2150SOL    HW1 8347  11.428  14.181  10.222
 2150SOL    HW2 8348  11.296  14.226  10.164
 2151SOL     OW 8349   2.817   6.922  10.608
 2151SOL    HW1 8350   2.901   6.936  10.651
 2151SOL    HW2 8351   2.828   6.842  10.556
 2152SOL     OW 8352  13.077   4.533   0.757
 2152SOL    HW1 8353  13.033   4.549   0.674
 2152SOL    HW2 8354  13.077   4.437   0.765
 2153SOL     OW 8355   5.428  14.208  12.782
 2153SOL    HW1 8356   5.412  14.267  12.856
 2153SOL    HW2 8357   5.435  14.121  12.821
 2154SOL     OW 8358   2.902   7.377   0.814
 2154SOL    HW1 8359   2.982   7.365   0.764
 2154SOL    HW2 8360   2.871   7.464   0.789
 2155SOL     OW 8361  12.088   8.487   4.305
 2155SOL    HW1 8362  12.094   8.427   4.231
 2155SOL    HW2 8363  12.119   8.436   4.380
 2156SOL     OW 8364   0.347  12.614   1.296
 2156SOL    HW1 8365   0.436  12.640   1.322
 2156SOL    HW2 8366   0.331  12.533   1.344
 2157SOL     OW 8367   8.675   7.243   0.262
 2157SOL    HW1 8368   8.694   7.225   0.171
 2157SOL    HW2 8369   8.584   7.217   0.274
 2158SOL     OW 8370   1.609   3.367  11.692
 2158SOL    HW1 8371   1.539   3.427  11.720
 2158SOL    HW2 8372   1.622   3.309  11.768
 2159SOL     OW 8373   6.104   1.177   8.016
 2159SOL    HW1 8374   6.078   1.112   7.951
 2159SOL    HW2 8375   6.133   1.252   7.966
 2160SOL     OW 8376  10.931   2.448   8.452
 2160SOL    HW1 8377  10.977   2.489   8.380
 2160SOL    HW2 8378  10.998   2.400   8.500
 2161SOL     OW 8379   4.839  11.706   5.662
 2161SOL    HW1 8380   4.791  11.735   5.740
 2161SOL    HW2 8381   4.836  11.780   5.602
 2162SOL     OW 8382  11.565   9.339   3.348
 2162SOL    HW1 8383  11.642   9.377   3.391
 2162SOL    HW2 8384  11.585   9.346   3.254
 2163SOL     OW 8385   1.493   0.758   1.277
 2163SOL    HW1 8386   1.505   0.664   1.293
 2163SOL    HW2 8387   1.567   0.799   1.322
 2164SOL     OW 8388  10.313   7.411   4.362
 2164SOL    HW1 8389  10.249   7.408   4.434
 2164SOL    HW2 8390  10.272   7.361   4.292
 2165SOL     OW 8391  12.142   6.396   7.595
 2165SOL    HW1 8392  12.234   6.405   7.570
 2165SOL    HW2 8393  12.115   6.311   7.558
 2166SOL     OW 8394   8.362  12.763  10.569
 2166SOL    HW1 8395   8.359  12.759  10.664
 2166SOL    HW2 8396   8.351  12.856  10.549
 2167SOL     OW 8397  13.428  13.213  13.674
 2167SOL    HW1 8398  13.504  13.217  13.614
 2167SOL    HW2 8399  13.398  13.123  13.667
 2168SOL     OW 8400  10.405  12.067   5.019
 2168SOL    HW1 8401  10.477  12.054   4.957
 2168SOL    HW2 8402  10.353  11.987   5.014
 2169SOL     OW 8403   7.349   0.399   0.416
 2169SOL    HW1 8404   7.271   0.418   0.362
 2169SOL    HW2 8405   7.314   0.385   0.504
 2170SOL     OW 8406   5.471   3.205   8.204
 2170SOL    HW1 8407   5.378   3.190   8.191
 2170SOL    HW2 8408   5.478   3.247   8.290
 2171SOL     OW 8409   9.877  14.649  12.101
 2171SOL    HW1 8410   9.835  14.564  12.118
 2171SOL    HW2 8411   9.921  14.637  12.017
 2172SOL     OW 8412   6.942   1.638   6.078
 2172SOL    HW1 8413   7.038   1.633   6.075
 2172SOL    HW2 8414   6.913   1.559   6.031
 2173SOL     OW 8415  11.476   6.419   2.887
 2173SOL    HW1 8416  11.446   6.490   2.943
 2173SOL    HW2 8417  11.548   6.379   2.936
 2174SOL     OW 8418   3.283   5.337  13.993
 2174SOL    HW1 8419   3.363   5.361  14.040
 2174SOL    HW2 8420   3.212   5.370  14.049
 2175SOL     OW 8421   5.428   5.926   0.870
 2175SOL    HW1 8422   5.387   5.852   0.914
 2175SOL    HW2 8423   5.417   5.999   0.931
 2176SOL     OW 8424   8.205   3.597   9.859
 2176SOL    HW1 8425   8.148   3.665   9.895
 2176SOL    HW2 8426   8.237   3.633   9.777
 2177SOL     OW 8427   3.904  13.633   0.642
 2177SOL    HW1 8428   3.963  13.597   0.576
 2177SOL    HW2 8429   3.901  13.567   0.711
 2178SOL     OW 8430   4.392  13.840   2.716
 2178SOL    HW1 8431   4.460  13.780   2.745
 2178SOL    HW2 8432   4.316  13.784   2.696
 2179SOL     OW 8433   5.258   4.571  14.361
 2179SOL    HW1 8434   5.200   4.499  14.384
 2179SOL    HW2 8435   5.341   4.529  14.340
 2180SOL     OW 8436  10.507   4.537  13.917
 2180SOL    HW1 8437  10.554   4.454  13.927
 2180SOL    HW2 8438  10.576   4.604  13.914
 2181SOL     OW 8439  10.571   9.314  11.597
 2181SOL    HW1 8440  10.617   9.330  11.679
 2181SOL    HW2 8441  10.639   9.322  11.530
 2182SOL     OW 8442  12.519   8.458   2.036
 2182SOL    HW1 8443  12.483   8.426   2.119
 2182SOL    HW2 8444  12.464   8.533   2.014
 2183SOL     OW 8445   8.110   2.960  13.711
 2183SOL    HW1 8446   8.105   3.055  13.705
 2183SOL    HW2 8447   8.106   2.930  13.620
 2184SOL     OW 8448   8.890  14.296   3.783
 2184SOL    HW1 8449   8.940  14.255   3.712
 2184SOL    HW2 8450   8.947  14.367   3.814
 2185SOL     OW 8451   7.209   4.649   6.009
 2185SOL    HW1 8452   7.147   4.580   5.986
 2185SOL    HW2 8453   7.212   4.705   5.931
 2186SOL     OW 8454  11.199   5.860   8.322
 2186SOL    HW1 8455  11.120   5.869   8.270
 2186SOL    HW2 8456  11.257   5.805   8.269
 2187SOL     OW 8457   7.213   0.241   9.019
 2187SOL    HW1 8458   7.227   0.147   9.028
 2187SOL    HW2 8459   7.145   0.249   8.952
 2188SOL     OW 8460   1.449   1.957  12.405
 2188SOL    HW1 8461   1.415   1.878  12.448
 2188SOL    HW2 8462   1.470   2.016  12.477
 2189SOL     OW 8463  10.476   8.320   4.052
 2189SOL    HW1 8464  10.538   8.286   3.987
 2189SOL    HW2 8465  10.452   8.243   4.104
 2190SOL     OW 8466   7.786  10.156  10.095
 2190SOL    HW1 8467   7.805  10.064  10.076
 2190SOL    HW2 8468   7.837  10.175  10.175
 2191SOL     OW 8469  11.198   4.101  13.288
 2191SOL    HW1 8470  11.164   4.067  13.370
 2191SOL    HW2 8471  11.132   4.164  13.259
 2192SOL     OW 8472   3.110  14.513   0.911
 2192SOL    HW1 8473   3.145  14.440   0.859
 2192SOL    HW2 8474   3.180  14.533   0.973
 2193SOL     OW 8475  13.378  14.628   2.145
 2193SOL    HW1 8476  13.395  14.721   2.132
 2193SOL    HW2 8477  13.413  14.586   2.066
 2194SOL     OW 8478  12.243   3.674   3.798
 2194SOL    HW1 8479  12.223   3.678   3.705
 2194SOL    HW2 8480  12.175   3.618   3.835
 2195SOL     OW 8481   0.058  10.859   6.986
 2195SOL    HW1 8482   0.064  10.916   7.063
 2195SOL    HW2 8483  14.844  10.842   6.976
 2196SOL     OW 8484  14.691  13.320   7.876
 2196SOL    HW1 8485  14.628  13.285   7.813
 2196SOL    HW2 8486  14.745  13.245   7.900
 2197SOL     OW 8487  14.616   4.976   2.368
 2197SOL    HW1 8488  14.647   4.888   2.348
 2197SOL    HW2 8489  14.521   4.967   2.377
 2198SOL     OW 8490   7.919  10.286  13.589
 2198SOL    HW1 8491   7.851  10.292  13.656
 2198SOL    HW2 8492   7.978  10.217  13.621
 2199SOL     OW 8493   4.082   0.417   5.874
 2199SOL    HW1 8494   4.163   0.463   5.852
 2199SOL    HW2 8495   4.014   0.484   5.868
 2200SOL     OW 8496  10.193  14.414  11.877
 2200SOL    HW1 8497  10.281  14.451  11.871
 2200SOL    HW2 8498  10.139  14.473  11.825
 2201SOL     OW 8499   4.443   9.948   3.930
 2201SOL    HW1 8500   4.491   9.883   3.981
 2201SOL    HW2 8501   4.404  10.006   3.995
 2202SOL     OW 8502  10.021  12.810  11.166
 2202SOL    HW1 8503  10.050  12.885  11.217
 2202SOL    HW2 8504  10.076  12.738  11.195
 2203SOL     OW 8505   0.973  12.565  12.087
 2203SOL    HW1 8506   0.938  12.652  12.067
 2203SOL    HW2 8507   1.066  12.581  12.106
 2204SOL     OW 8508   8.938  13.752  12.889
 2204SOL    HW1 8509   9.016  13.768  12.835
 2204SOL    HW2 8510   8.867  13.741  12.826
 2205SOL     OW 8511   5.481  11.510   4.464
 2205SOL    HW1 8512   5.481  11.577   4.396
 2205SOL    HW2 8513   5.390  11.505   4.492
 2206SOL     OW 8514   5.667   3.428   4.522
 2206SOL    HW1 8515   5.673   3.335   4.501
 2206SOL    HW2 8516   5.707   3.473   4.448
 2207SOL     OW 8517   9.089   0.179   8.132
 2207SOL    HW1 8518   8.999   0.190   8.162
 2207SOL    HW2 8519   9.084   0.189   8.036
 2208SOL     OW 8520   4.351  14.631   4.067
 2208SOL    HW1 8521   4.327  14.632   3.974
 2208SOL    HW2 8522   4.374  14.722   4.087
 2209SOL     OW 8523   9.243   6.968  12.359
 2209SOL    HW1 8524   9.165   7.021  12.348
 2209SOL    HW2 8525   9.295   7.015  12.425
 2210SOL     OW 8526  14.038   3.423   6.488
 2210SOL    HW1 8527  14.120   3.376   6.506
 2210SOL    HW2 8528  14.042   3.499   6.546
 2211SOL     OW 8529   6.674  12.099   7.409
 2211SOL    HW1 8530   6.757  12.124   7.368
 2211SOL    HW2 8531   6.687  12.118   7.502
 2212SOL     OW 8532   5.911  13.316   2.787
 2212SOL    HW1 8533   5.816  13.309   2.786
 2212SOL    HW2 8534   5.929  13.401   2.746
 2213SOL     OW 8535  12.087   0.277  11.702
 2213SOL    HW1 8536  12.069   0.191  11.738
 2213SOL    HW2 8537  12.046   0.338  11.763
 2214SOL     OW 8538   6.651   3.566   1.486
 2214SOL    HW1 8539   6.704   3.519   1.422
 2214SOL    HW2 8540   6.598   3.627   1.434
 2215SOL     OW 8541  13.760  12.733   8.379
 2215SOL    HW1 8542  13.732  12.788   8.306
 2215SOL    HW2 8543  13.718  12.771   8.456
 2216SOL     OW 8544   9.234   9.921  13.640
 2216SOL    HW1 8545   9.249   9.831  13.668
 2216SOL    HW2 8546   9.293   9.932  13.565
 2217SOL     OW 8547  11.866  14.464  13.869
 2217SOL    HW1 8548  11.799  14.496  13.807
 2217SOL    HW2 8549  11.824  14.390  13.913
 2218SOL     OW 8550   4.889  10.990   6.151
 2218SOL    HW1 8551   4.816  11.013   6.208
 2218SOL    HW2 8552   4.857  10.916   6.100
 2219SOL     OW 8553   0.870   5.207  11.043
 2219SOL    HW1 8554   0.859   5.117  11.073
 2219SOL    HW2 8555   0.844   5.206  10.951
 2220SOL     OW 8556   7.354  14.589   4.281
 2220SOL    HW1 8557   7.338  14.675   4.242
 2220SOL    HW2 8558   7.319  14.527   4.217
 2221SOL     OW 8559   6.167   8.706  10.076
 2221SOL    HW1 8560   6.231   8.678  10.011
 2221SOL    HW2 8561   6.104   8.759  10.027
 2222SOL     OW 8562  14.290   4.602   5.063
 2222SOL    HW1 8563  14.380   4.598   5.096
 2222SOL    HW2 8564  14.293   4.667   4.993
 2223SOL     OW 8565   0.312  13.312  14.712
 2223SOL    HW1 8566   0.302  13.392  14.763
 2223SOL    HW2 8567   0.250  13.321  14.640
 2224SOL     OW 8568  13.942   6.055  10.010
 2224SOL    HW1 8569  13.850   6.030  10.007
 2224SOL    HW2 8570  13.976   6.014  10.089
 2225SOL     OW 8571   5.046   1.778   1.321
 2225SOL    HW1 8572   5.099   1.807   1.396
 2225SOL    HW2 8573   5.028   1.859   1.273
 2226SOL     OW 8574   5.076   4.003   4.673
 2226SOL    HW1 8575   5.156   3.999   4.726
 2226SOL    HW2 8576   5.106   4.026   4.585
 2227SOL     OW 8577   0.668   8.354   2.330
 2227SOL    HW1 8578   0.630   8.435   2.362
 2227SOL    HW2 8579   0.693   8.373   2.240
 2228SOL     OW 8580  12.000   0.083  10.118
 2228SOL    HW1 8581  11.936   0.092  10.189
 2228SOL    HW2 8582  11.961   0.021  10.058
 2229SOL     OW 8583   7.721   7.896   7.727
 2229SOL    HW1 8584   7.768   7.980   7.729
 2229SOL    HW2 8585   7.748   7.855   7.645
 2230SOL     OW 8586  12.677   4.277   3.468
 2230SOL    HW1 8587  12.642   4.353   3.421
 2230SOL    HW2 8588  12.610   4.210   3.459
 2231SOL     OW 8589   2.621  13.196   3.293
 2231SOL    HW1 8590   2.681  13.207   3.219
 2231SOL    HW2 8591   2.676  13.213   3.370
 2232SOL     OW 8592   0.116   4.197   5.036
 2232SOL    HW1 8593   0.069   4.114   5.029
 2232SOL    HW2 8594   0.048   4.261   5.055
 2233SOL     OW 8595  11.485   9.268   8.394
 2233SOL    HW1 8596  11.563   9.225   8.359
 2233SOL    HW2 8597  11.443   9.201   8.449
 2234SOL     OW 8598  11.623   7.231   4.445
 2234SOL    HW1 8599  11.625   7.184   4.361
 2234SOL    HW2 8600  11.530   7.247   4.461
 2235SOL     OW 8601  13.915  10.576  12.873
 2235SOL    HW1 8602  13.886  10.620  12.793
 2235SOL    HW2 8603  13.900  10.640  12.943
 2236SOL     OW 8604   2.759  12.716  13.904
 2236SOL    HW1 8605   2.719  12.788  13.952
 2236SOL    HW2 8606   2.830  12.686  13.961
 2237SOL     OW 8607   3.149   5.042   9.445
 2237SOL    HW1 8608   3.144   4.991   9.526
 2237SOL    HW2 8609   3.225   5.008   9.399
 2238SOL     OW 8610   5.341   6.376   5.621
 2238SOL    HW1 8611   5.364   6.468   5.633
 2238SOL    HW2 8612   5.381   6.332   5.696
 2239SOL     OW 8613  11.599  11.681   8.595
 2239SOL    HW1 8614  11.636  11.768   8.608
 2239SOL    HW2 8615  11.587  11.647   8.683
 2240SOL     OW 8616   5.381   2.992   7.491
 2240SOL    HW1 8617   5.463   3.030   7.458
 2240SOL    HW2 8618   5.390   2.899   7.473
 2241SOL     OW 8619   0.588   1.249  11.771
 2241SOL    HW1 8620   0.607   1.248  11.678
 2241SOL    HW2 8621   0.658   1.197  11.811
 2242SOL     OW 8622   7.209  12.731   9.213
 2242SOL    HW1 8623   7.269  12.664   9.182
 2242SOL    HW2 8624   7.181  12.700   9.300
 2243SOL     OW 8625   6.375   6.740   5.815
 2243SOL    HW1 8626   6.354   6.745   5.722
 2243SOL    HW2 8627   6.459   6.694   5.819
 2244SOL     OW 8628  11.709  10.773   0.968
 2244SOL    HW1 8629  11.618  10.750   0.989
 2244SOL    HW2 8630  11.737  10.707   0.905
 2245SOL     OW 8631  10.047   1.789   1.914
 2245SOL    HW1 8632   9.990   1.715   1.931
 2245SOL    HW2 8633  10.117   1.754   1.858
 2246SOL     OW 8634  14.173   0.263  10.123
 2246SOL    HW1 8635  14.215   0.208  10.189
 2246SOL    HW2 8636  14.242   0.281  10.059
 2247SOL     OW 8637   1.230   2.451  13.205
 2247SOL    HW1 8638   1.253   2.394  13.131
 2247SOL    HW2 8639   1.256   2.401  13.282
 2248SOL     OW 8640   3.431   0.018  13.546
 2248SOL    HW1 8641   3.526   0.021  13.557
 2248SOL    HW2 8642   3.416  14.828  13.482
 2249SOL     OW 8643   6.233  12.520  11.946
 2249SOL    HW1 8644   6.141  12.509  11.969
 2249SOL    HW2 8645   6.281  12.469  12.011
 2250SOL     OW 8646   8.191   6.308   1.913
 2250SOL    HW1 8647   8.119   6.365   1.887
 2250SOL    HW2 8648   8.258   6.320   1.846
 2251SOL     OW 8649   2.136  14.501   7.436
 2251SOL    HW1 8650   2.091  14.560   7.496
 2251SOL    HW2 8651   2.227  14.533   7.435
 2252SOL     OW 8652  14.548   0.792  12.164
 2252SOL    HW1 8653  14.566   0.826  12.252
 2252SOL    HW2 8654  14.480   0.725  12.177
 2253SOL     OW 8655   2.645  14.335   7.159
 2253SOL    HW1 8656   2.663  14.312   7.250
 2253SOL    HW2 8657   2.592  14.415   7.164
 2254SOL     OW 8658   9.772  12.500   1.254
 2254SOL    HW1 8659   9.733  12.543   1.330
 2254SOL    HW2 8660   9.708  12.512   1.184
 2255SOL     OW 8661   1.481   4.360   5.350
 2255SOL    HW1 8662   1.458   4.275   5.313
 2255SOL    HW2 8663   1.520   4.408   5.277
 2256SOL     OW 8664   7.654   5.612  13.404
 2256SOL    HW1 8665   7.727   5.619  13.343
 2256SOL    HW2 8666   7.575   5.616  13.349
 2257SOL     OW 8667  10.547   9.329   7.852
 2257SOL    HW1 8668  10.498   9.247   7.857
 2257SOL    HW2 8669  10.498   9.383   7.790
 2258SOL     OW 8670   5.294  10.115   4.339
 2258SOL    HW1 8671   5.201  10.110   4.361
 2258SOL    HW2 8672   5.306  10.046   4.273
 2259SOL     OW 8673   7.472  12.140  11.347
 2259SOL    HW1 8674   7.475  12.050  11.316
 2259SOL    HW2 8675   7.386  12.172  11.319
 2260SOL     OW 8676  10.786   6.140   1.908
 2260SOL    HW1 8677  10.821   6.062   1.866
 2260SOL    HW2 8678  10.854   6.168   1.968
 2261SOL     OW 8679   8.126   2.332   3.059
 2261SOL    HW1 8680   8.042   2.301   3.092
 2261SOL    HW2 8681   8.108   2.422   3.031
 2262SOL     OW 8682   4.119   0.308   4.505
 2262SOL    HW1 8683   4.163   0.354   4.577
 2262SOL    HW2 8684   4.066   0.375   4.463
 2263SOL     OW 8685   1.812   5.842   2.948
 2263SOL    HW1 8686   1.836   5.753   2.924
 2263SOL    HW2 8687   1.792   5.885   2.865
 2264SOL     OW 8688   6.072   1.571   5.888
 2264SOL    HW1 8689   5.979   1.591   5.880
 2264SOL    HW2 8690   6.079   1.520   5.968
 2265SOL     OW 8691  12.755   6.693   5.152
 2265SOL    HW1 8692  12.807   6.764   5.116
 2265SOL    HW2 8693  12.765   6.701   5.247
 2266SOL     OW 8694   3.982   0.378   1.282
 2266SOL    HW1 8695   3.952   0.302   1.331
 2266SOL    HW2 8696   3.904   0.411   1.239
 2267SOL     OW 8697  13.572   5.198   0.746
 2267SOL    HW1 8698  13.554   5.155   0.829
 2267SOL    HW2 8699  13.564   5.128   0.681
 2268SOL     OW 8700  13.239   2.369  12.586
 2268SOL    HW1 8701  13.212   2.427  12.658
 2268SOL    HW2 8702  13.283   2.427  12.524
 2269SOL     OW 8703   7.091   2.668  11.847
 2269SOL    HW1 8704   7.061   2.666  11.756
 2269SOL    HW2 8705   7.026   2.618  11.895
 2270SOL     OW 8706   6.164   9.195   9.414
 2270SOL    HW1 8707   6.188   9.103   9.403
 2270SOL    HW2 8708   6.149   9.205   9.508
 2271SOL     OW 8709  13.542   7.906   5.251
 2271SOL    HW1 8710  13.456   7.939   5.225
 2271SOL    HW2 8711  13.532   7.878   5.342
 2272SOL     OW 8712   8.568  11.898  11.758
 2272SOL    HW1 8713   8.583  11.891  11.852
 2272SOL    HW2 8714   8.645  11.945  11.725
 2273SOL     OW 8715  12.730   9.738   2.109
 2273SOL    HW1 8716  12.766   9.665   2.060
 2273SOL    HW2 8717  12.652   9.702   2.152
 2274SOL     OW 8718   6.110   9.873   9.690
 2274SOL    HW1 8719   6.069   9.816   9.755
 2274SOL    HW2 8720   6.060   9.858   9.610
 2275SOL     OW 8721  12.846   4.080   2.925
 2275SOL    HW1 8722  12.804   4.086   2.839
 2275SOL    HW2 8723  12.939   4.066   2.906
 2276SOL     OW 8724  12.836  14.566   8.799
 2276SOL    HW1 8725  12.818  14.493   8.859
 2276SOL    HW2 8726  12.761  14.625   8.811
 2277SOL     OW 8727   8.480   4.725  14.838
 2277SOL    HW1 8728   8.406   4.711  14.778
 2277SOL    HW2 8729   8.554   4.744  14.780
 2278SOL     OW 8730   6.243   1.519  13.700
 2278SOL    HW1 8731   6.260   1.561  13.784
 2278SOL    HW2 8732   6.149   1.529  13.685
 2279SOL     OW 8733   3.204  13.463  12.353
 2279SOL    HW1 8734   3.123  13.439  12.308
 2279SOL    HW2 8735   3.213  13.557  12.340
 2280SOL     OW 8736   8.707   5.255  12.865
 2280SOL    HW1 8737   8.712   5.348  12.841
 2280SOL    HW2 8738   8.799   5.228  12.873
 2281SOL     OW 8739   1.235   8.911   1.378
 2281SOL    HW1 8740   1.289   8.956   1.443
 2281SOL    HW2 8741   1.150   8.954   1.383
 2282SOL     OW 8742   2.872   6.686  10.450
 2282SOL    HW1 8743   2.782   6.652  10.448
 2282SOL    HW2 8744   2.922   6.619  10.496
 2283SOL     OW 8745  11.164  13.075   9.355
 2283SOL    HW1 8746  11.088  13.106   9.403
 2283SOL    HW2 8747  11.223  13.151   9.351
 2284SOL     OW 8748   0.368   6.276   9.229
 2284SOL    HW1 8749   0.369   6.190   9.272
 2284SOL    HW2 8750   0.397   6.258   9.139
 2285SOL     OW 8751   8.288   9.146   2.872
 2285SOL    HW1 8752   8.357   9.100   2.920
 2285SOL    HW2 8753   8.271   9.225   2.923
 2286SOL     OW 8754   1.334   8.139  11.579
 2286SOL    HW1 8755   1.380   8.116  11.660
 2286SOL    HW2 8756   1.241   8.137  11.604
 2287SOL     OW 8757  12.970  14.785  14.785
 2287SOL    HW1 8758  13.049  14.793  14.840
 2287SOL    HW2 8759  12.908  14.736  14.840
 2288SOL     OW 8760   5.761  13.718   7.441
 2288SOL    HW1 8761   5.746  13.796   7.493
 2288SOL    HW2 8762   5.681  13.666   7.451
 2289SOL     OW 8763   6.094  11.125  12.126
 2289SOL    HW1 8764   6.109  11.073  12.047
 2289SOL    HW2 8765   6.137  11.208  12.108
 2290SOL     OW 8766  14.126   9.683   7.804
 2290SOL    HW1 8767  14.196   9.635   7.848
 2290SOL    HW2 8768  14.045   9.645   7.839
 2291SOL     OW 8769  13.447   5.490   3.071
 2291SOL    HW1 8770  13.460   5.408   3.024
 2291SOL    HW2 8771  13.386   5.468   3.142
 2292SOL     OW 8772   6.098  10.544   5.229
 2292SOL    HW1 8773   6.095  10.575   5.320
 2292SOL    HW2 8774   6.109  10.449   5.237
 2293SOL     OW 8775  14.508   9.617  11.491
 2293SOL    HW1 8776  14.526   9.564  11.569
 2293SOL    HW2 8777  14.503   9.707  11.523
 2294SOL     OW 8778   5.203   0.762  12.184
 2294SOL    HW1 8779   5.279   0.738  12.236
 2294SOL    HW2 8780   5.239   0.779  12.096
 2295SOL     OW 8781  10.900   8.626  13.950
 2295SOL    HW1 8782  10.950   8.707  13.962
 2295SOL    HW2 8783  10.960   8.557  13.978
 2296SOL     OW 8784   5.458  10.140  10.799
 2296SOL    HW1 8785   5.551  10.150  10.777
 2296SOL    HW2 8786   5.419  10.099  10.722
 2297SOL     OW 8787   7.851   7.364  12.499
 2297SOL    HW1 8788   7.795   7.289  12.515
 2297SOL    HW2 8789   7.898   7.378  12.582
 2298SOL     OW 8790   1.592   6.207   2.858
 2298SOL    HW1 8791   1.650   6.176   2.928
 2298SOL    HW2 8792   1.505   6.206   2.897
 2299SOL     OW 8793  10.903   2.907  11.138
 2299SOL    HW1 8794  10.992   2.923  11.106
 2299SOL    HW2 8795  10.848   2.964  11.085
 2300SOL     OW 8796   8.049   5.444   3.314
 2300SOL    HW1 8797   8.010   5.356   3.316
 2300SOL    HW2 8798   8.038   5.472   3.223
 2301SOL     OW 8799  11.684   1.934   1.191
 2301SOL    HW1 8800  11.602   1.885   1.188
 2301SOL    HW2 8801  11.751   1.871   1.163
 2302SOL     OW 8802   2.775  11.814   5.296
 2302SOL    HW1 8803   2.765  11.872   5.371
 2302SOL    HW2 8804   2.832  11.861   5.236
 2303SOL     OW 8805  12.822   6.718   7.109
 2303SOL    HW1 8806  12.823   6.652   7.178
 2303SOL    HW2 8807  12.735   6.711   7.070
 2304SOL     OW 8808  12.741   6.007   7.490
 2304SOL    HW1 8809  12.755   5.913   7.493
 2304SOL    HW2 8810  12.783   6.040   7.570
 2305SOL     OW 8811   1.288   7.656   1.010
 2305SOL    HW1 8812   1.310   7.566   1.034
 2305SOL    HW2 8813   1.364   7.707   1.038
 2306SOL     OW 8814  13.350   9.993   2.834
 2306SOL    HW1 8815  13.427   9.944   2.862
 2306SOL    HW2 8816  13.281   9.927   2.828
 2307SOL     OW 8817   6.905   9.514  14.378
 2307SOL    HW1 8818   6.816   9.527  14.345
 2307SOL    HW2 8819   6.913   9.575  14.451
 2308SOL     OW 8820   1.716   9.660   0.911
 2308SOL    HW1 8821   1.665   9.665   0.830
 2308SOL    HW2 8822   1.806   9.650   0.883
 2309SOL     OW 8823   8.704  11.764  13.737
 2309SOL    HW1 8824   8.658  11.685  13.707
 2309SOL    HW2 8825   8.679  11.831  13.674
 2310SOL     OW 8826   5.596   8.374  14.122
 2310SOL    HW1 8827   5.632   8.318  14.053
 2310SOL    HW2 8828   5.613   8.463  14.093
 2311SOL     OW 8829  13.836  11.825   9.151
 2311SOL    HW1 8830  13.754  11.777   9.152
 2311SOL    HW2 8831  13.860  11.833   9.244
 2312SOL     OW 8832   2.639  12.346   4.316
 2312SOL    HW1 8833   2.578  12.360   4.388
 2312SOL    HW2 8834   2.725  12.365   4.353
 2313SOL     OW 8835   8.327  12.479   6.043
 2313SOL    HW1 8836   8.234  12.478   6.068
 2313SOL    HW2 8837   8.369  12.533   6.109
 2314SOL     OW 8838  13.688  13.468   1.676
 2314SOL    HW1 8839  13.615  13.530   1.683
 2314SOL    HW2 8840  13.680  13.412   1.754
 2315SOL     OW 8841  13.345  12.444  11.931
 2315SOL    HW1 8842  13.292  12.467  12.007
 2315SOL    HW2 8843  13.293  12.472  11.856
 2316SOL     OW 8844   8.306   7.886  13.547
 2316SOL    HW1 8845   8.350   7.846  13.473
 2316SOL    HW2 8846   8.236   7.939  13.508
 2317SOL     OW 8847  10.819   2.035   7.939
 2317SOL    HW1 8848  10.902   2.082   7.952
 2317SOL    HW2 8849  10.826   1.998   7.851
 2318SOL     OW 8850  12.580   4.121  13.060
 2318SOL    HW1 8851  12.640   4.065  13.011
 2318SOL    HW2 8852  12.503   4.129  13.004
 2319SOL     OW 8853   9.423   3.233   2.400
 2319SOL    HW1 8854   9.332   3.260   2.413
 2319SOL    HW2 8855   9.419   3.166   2.331
 2320SOL     OW 8856   8.880   8.319   4.001
 2320SOL    HW1 8857   8.952   8.361   4.047
 2320SOL    HW2 8858   8.844   8.257   4.065
 2321SOL     OW 8859   1.878   4.377   0.578
 2321SOL    HW1 8860   1.902   4.464   0.609
 2321SOL    HW2 8861   1.792   4.388   0.538
 2322SOL     OW 8862   5.247  13.813  11.710
 2322SOL    HW1 8863   5.319  13.750  11.708
 2322SOL    HW2 8864   5.188  13.784  11.640
 2323SOL     OW 8865  14.276   6.663   8.578
 2323SOL    HW1 8866  14.249   6.755   8.581
 2323SOL    HW2 8867  14.273   6.634   8.669
 2324SOL     OW 8868   5.074   1.519   6.638
 2324SOL    HW1 8869   5.041   1.433   6.613
 2324SOL    HW2 8870   5.063   1.522   6.733
 2325SOL     OW 8871  13.258  10.773  13.725
 2325SOL    HW1 8872  13.352  10.760  13.710
 2325SOL    HW2 8873  13.232  10.838  13.660
 2326SOL     OW 8874  14.718   7.674   4.681
 2326SOL    HW1 8875  14.730   7.755   4.633
 2326SOL    HW2 8876  14.767   7.609   4.631
 2327SOL     OW 8877   2.761   2.491   6.641
 2327SOL    HW1 8878   2.847   2.459   6.615
 2327SOL    HW2 8879   2.726   2.422   6.697
 2328SOL     OW 8880   3.345   9.012   0.521
 2328SOL    HW1 8881   3.264   8.967   0.548
 2328SOL    HW2 8882   3.410   8.984   0.586
 2329SOL     OW 8883   6.136   9.388  11.036
 2329SOL    HW1 8884   6.210   9.448  11.024
 2329SOL    HW2 8885   6.091   9.388  10.952
 2330SOL     OW 8886  12.647   2.363   3.509
 2330SOL    HW1 8887  12.579   2.414   3.464
 2330SOL    HW2 8888  12.603   2.282   3.535
 2331SOL     OW 8889   3.546   4.171  10.800
 2331SOL    HW1 8890   3.522   4.094  10.852
 2331SOL    HW2 8891   3.621   4.143  10.748
 2332SOL     OW 8892   2.338   6.373  13.125
 2332SOL    HW1 8893   2.408   6.368  13.190
 2332SOL    HW2 8894   2.317   6.466  13.120
 2333SOL     OW 8895  13.840  14.124   8.391
 2333SOL    HW1 8896  13.853  14.067   8.468
 2333SOL    HW2 8897  13.844  14.213   8.426
 2334SOL     OW 8898   0.067   6.403   9.094
 2334SOL    HW1 8899   0.069   6.325   9.150
 2334SOL    HW2 8900   0.105   6.472   9.148
 2335SOL     OW 8901  12.779  14.453  11.957
 2335SOL    HW1 8902  12.856  14.501  11.988
 2335SOL    HW2 8903  12.774  14.376  12.013
 2336SOL     OW 8904   7.143  10.318   0.981
 2336SOL    HW1 8905   7.067  10.283   0.934
 2336SOL    HW2 8906   7.178  10.386   0.923
 2337SOL     OW 8907  13.857   2.999  11.592
 2337SOL    HW1 8908  13.782   3.054  11.614
 2337SOL    HW2 8909  13.923   3.060  11.558
 2338SOL     OW 8910  11.798   5.765  14.084
 2338SOL    HW1 8911  11.708   5.743  14.062
 2338SOL    HW2 8912  11.804   5.751  14.179
 2339SOL     OW 8913   8.756   5.000  12.679
 2339SOL    HW1 8914   8.805   5.031  12.755
 2339SOL    HW2 8915   8.692   5.069  12.661
 2340SOL     OW 8916   6.798  12.123   6.666
 2340SOL    HW1 8917   6.820  12.143   6.757
 2340SOL    HW2 8918   6.735  12.191   6.641
 2341SOL     OW 8919  11.892   7.720  14.505
 2341SOL    HW1 8920  11.866   7.654  14.441
 2341SOL    HW2 8921  11.890   7.674  14.589
 2342SOL     OW 8922   7.451  11.517   8.586
 2342SOL    HW1 8923   7.375  11.526   8.644
 2342SOL    HW2 8924   7.434  11.437   8.536
 2343SOL     OW 8925  14.277  14.780   7.552
 2343SOL    HW1 8926  14.192  14.772   7.596
 2343SOL    HW2 8927  14.275  14.711   7.485
 2344SOL     OW 8928   1.511   9.064   4.438
 2344SOL    HW1 8929   1.574   9.123   4.480
 2344SOL    HW2 8930   1.472   9.015   4.510
 2345SOL     OW 8931   3.899  10.596   6.431
 2345SOL    HW1 8932   3.835  10.581   6.500
 2345SOL    HW2 8933   3.874  10.535   6.361
 2346SOL     OW 8934   6.130   5.499   0.270
 2346SOL    HW1 8935   6.101   5.415   0.306
 2346SOL    HW2 8936   6.213   5.518   0.315
 2347SOL     OW 8937   0.677   1.613   9.396
 2347SOL    HW1 8938   0.667   1.518   9.394
 2347SOL    HW2 8939   0.755   1.630   9.344
 2348SOL     OW 8940   1.979  14.089   6.072
 2348SOL    HW1 8941   1.905  14.130   6.118
 2348SOL    HW2 8942   1.939  14.052   5.993
 2349SOL     OW 8943   9.936   4.369  12.956
 2349SOL    HW1 8944  10.003   4.379  13.023
 2349SOL    HW2 8945   9.983   4.386  12.874
 2350SOL     OW 8946   3.000   8.267   4.574
 2350SOL    HW1 8947   2.970   8.260   4.483
 2350SOL    HW2 8948   3.062   8.340   4.573
 2351SOL     OW 8949   5.382  12.515  11.697
 2351SOL    HW1 8950   5.403  12.593  11.748
 2351SOL    HW2 8951   5.299  12.484  11.735
 2352SOL     OW 8952   6.957   8.776   6.570
 2352SOL    HW1 8953   6.965   8.706   6.507
 2352SOL    HW2 8954   6.978   8.736   6.654
 2353SOL     OW 8955   9.955   3.721   8.160
 2353SOL    HW1 8956   9.929   3.700   8.250
 2353SOL    HW2 8957   9.974   3.815   8.162
 2354SOL     OW 8958   9.385   5.106   8.836
 2354SOL    HW1 8959   9.327   5.144   8.901
 2354SOL    HW2 8960   9.332   5.099   8.757
 2355SOL     OW 8961   5.835  11.652  11.810
 2355SOL    HW1 8962   5.745  11.619  11.812
 2355SOL    HW2 8963   5.830  11.731  11.756
 2356SOL     OW 8964   6.398  14.712  11.622
 2356SOL    HW1 8965   6.481  14.760  11.618
 2356SOL    HW2 8966   6.413  14.633  11.570
 2357SOL     OW 8967   7.239   2.364   8.403
 2357SOL    HW1 8968   7.291   2.417   8.341
 2357SOL    HW2 8969   7.164   2.420   8.423
 2358SOL     OW 8970   8.872  13.280   8.519
 2358SOL    HW1 8971   8.928  13.285   8.596
 2358SOL    HW2 8972   8.886  13.362   8.473
 2359SOL     OW 8973  12.177   8.542  12.685
 2359SOL    HW1 8974  12.126   8.622  12.672
 2359SOL    HW2 8975  12.262   8.560  12.645
 2360SOL     OW 8976   9.214  13.295   4.546
 2360SOL    HW1 8977   9.200  13.224   4.482
 2360SOL    HW2 8978   9.167  13.266   4.624
 2361SOL     OW 8979  10.513  13.951   6.214
 2361SOL    HW1 8980  10.459  13.921   6.288
 2361SOL    HW2 8981  10.471  14.032   6.185
 2362SOL     OW 8982   4.133  13.420   5.343
 2362SOL    HW1 8983   4.118  13.434   5.249
 2362SOL    HW2 8984   4.063  13.360   5.369
 2363SOL     OW 8985   2.253   0.813   7.497
 2363SOL    HW1 8986   2.331   0.757   7.493
 2363SOL    HW2 8987   2.200   0.785   7.422
 2364SOL     OW 8988  10.112   4.439  11.158
 2364SOL    HW1 8989  10.065   4.426  11.075
 2364SOL    HW2 8990  10.116   4.533  11.170
 2365SOL     OW 8991  12.302   2.374   7.366
 2365SOL    HW1 8992  12.396   2.361   7.378
 2365SOL    HW2 8993  12.292   2.468   7.351
 2366SOL     OW 8994   2.918  14.307   0.972
 2366SOL    HW1 8995   2.828  14.330   0.993
 2366SOL    HW2 8996   2.957  14.387   0.938
 2367SOL     OW 8997   5.757   6.463  13.081
 2367SOL    HW1 8998   5.788   6.550  13.055
 2367SOL    HW2 8999   5.717   6.476  13.167
 2368SOL     OW 9000  14.508   6.551   1.943
 2368SOL    HW1 9001  14.499   6.608   1.867
 2368SOL    HW2 9002  14.529   6.465   1.907
 2369SOL     OW 9003   6.105   9.288   2.305
 2369SOL    HW1 9004   6.155   9.228   2.360
 2369SOL    HW2 9005   6.139   9.274   2.217
 2370SOL     OW 9006   7.440   2.065   4.375
 2370SOL    HW1 9007   7.468   2.075   4.284
 2370SOL    HW2 9008   7.501   2.119   4.425
 2371SOL     OW 9009  12.915  13.651   1.127
 2371SOL    HW1 9010  12.883  13.712   1.061
 2371SOL    HW2 9011  12.838  13.630   1.180
 2372SOL     OW 9012   5.337   9.852   0.934
 2372SOL    HW1 9013   5.358   9.898   1.015
 2372SOL    HW2 9014   5.391   9.773   0.937
 2373SOL     OW 9015   2.500   6.277  11.298
 2373SOL    HW1 9016   2.406   6.273  11.313
 2373SOL    HW2 9017   2.509   6.272  11.203
 2374SOL     OW 9018  13.311  12.777   0.864
 2374SOL    HW1 9019  13.345  12.861   0.833
 2374SOL    HW2 9020  13.387  12.719   0.865
 2375SOL     OW 9021   3.543   6.237  13.205
 2375SOL    HW1 9022   3.613   6.204  13.261
 2375SOL    HW2 9023   3.486   6.161  13.190
 2376SOL     OW 9024   6.578   8.938  14.278
 2376SOL    HW1 9025   6.657   8.893  14.310
 2376SOL    HW2 9026   6.506   8.884  14.310
 2377SOL     OW 9027  10.475   5.146  13.518
 2377SOL    HW1 9028  10.388   5.161  13.557
 2377SOL    HW2 9029  10.533   5.137  13.593
 2378SOL     OW 9030   0.054   3.675   2.013
 2378SOL    HW1 9031   0.050   3.606   2.079
 2378SOL    HW2 9032   0.123   3.646   1.953
 2379SOL     OW 9033   4.894  10.179  14.556
 2379SOL    HW1 9034   4.832  10.114  14.586
 2379SOL    HW2 9035   4.840  10.253  14.527
 2380SOL     OW 9036   0.302  12.586  12.643
 2380SOL    HW1 9037   0.387  12.546  12.663
 2380SOL    HW2 9038   0.245  12.511  12.621
 2381SOL     OW 9039   8.783   2.217   3.583
 2381SOL    HW1 9040   8.831   2.297   3.559
 2381SOL    HW2 9041   8.702   2.221   3.531
 2382SOL     OW 9042  14.696   9.314   8.125
 2382SOL    HW1 9043  14.769   9.281   8.177
 2382SOL    HW2 9044  14.619   9.270   8.161
 2383SOL     OW 9045   0.600   6.093  11.641
 2383SOL    HW1 9046   0.648   6.147  11.578
 2383SOL    HW2 9047   0.575   6.154  11.711
 2384SOL     OW 9048   8.243   0.109   3.552
 2384SOL    HW1 9049   8.224   0.202   3.537
 2384SOL    HW2 9050   8.324   0.110   3.603
 2385SOL     OW 9051   5.297   5.243   7.388
 2385SOL    HW1 9052   5.343   5.320   7.420
 2385SOL    HW2 9053   5.272   5.195   7.467
 2386SOL     OW 9054   5.747   9.953   4.967
 2386SOL    HW1 9055   5.675   9.930   5.026
 2386SOL    HW2 9056   5.817   9.982   5.026
 2387SOL     OW 9057   5.420   7.875  13.508
 2387SOL    HW1 9058   5.401   7.968  13.506
 2387SOL    HW2 9059   5.433   7.851  13.416
 2388SOL     OW 9060   9.064   1.279   0.475
 2388SOL    HW1 9061   8.988   1.332   0.498
 2388SOL    HW2 9062   9.135   1.312   0.531
 2389SOL     OW 9063   3.120   9.401   9.339
 2389SOL    HW1 9064   3.037   9.449   9.333
 2389SOL    HW2 9065   3.179   9.461   9.386
 2390SOL     OW 9066   7.894   6.158   8.038
 2390SOL    HW1 9067   7.890   6.253   8.026
 2390SOL    HW2 9068   7.804   6.128   8.027
 2391SOL     OW 9069   2.475   1.327   2.430
 2391SOL    HW1 9070   2.464   1.296   2.520
 2391SOL    HW2 9071   2.550   1.386   2.434
 2392SOL     OW 9072   6.492   6.519  10.106
 2392SOL    HW1 9073   6.540   6.531  10.024
 2392SOL    HW2 9074   6.401   6.537  10.083
 2393SOL     OW 9075   6.665  11.002   8.910
 2393SOL    HW1 9076   6.740  10.973   8.962
 2393SOL    HW2 9077   6.612  10.923   8.899
 2394SOL     OW 9078  10.884   8.123  12.774
 2394SOL    HW1 9079  10.875   8.098  12.866
 2394SOL    HW2 9080  10.967   8.170  12.770
 2395SOL     OW 9081   1.283   8.975   0.817
 2395SOL    HW1 9082   1.368   9.017   0.804
 2395SOL    HW2 9083   1.272   8.973   0.912
 2396SOL     OW 9084   7.222   1.040   4.967
 2396SOL    HW1 9085   7.131   1.040   4.995
 2396SOL    HW2 9086   7.223   1.091   4.886
 2397SOL     OW 9087   6.519  14.189   5.434
 2397SOL    HW1 9088   6.485  14.245   5.364
 2397SOL    HW2 9089   6.486  14.101   5.413
 2398SOL     OW 9090   5.544   9.250   8.267
 2398SOL    HW1 9091   5.476   9.309   8.234
 2398SOL    HW2 9092   5.496   9.170   8.290
 2399SOL     OW 9093   7.948   3.871   9.649
 2399SOL    HW1 9094   7.930   3.838   9.560
 2399SOL    HW2 9095   7.862   3.881   9.689
 2400SOL     OW 9096   4.655   0.854   8.358
 2400SOL    HW1 9097   4.674   0.827   8.268
 2400SOL    HW2 9098   4.721   0.920   8.378
 2401SOL     OW 9099   1.491  14.001   9.088
 2401SOL    HW1 9100   1.461  14.008   8.997
 2401SOL    HW2 9101   1.506  14.091   9.115
 2402SOL     OW 9102   7.407   7.841   1.030
 2402SOL    HW1 9103   7.499   7.857   1.053
 2402SOL    HW2 9104   7.362   7.831   1.113
 2403SOL     OW 9105   9.583  10.117   5.809
 2403SOL    HW1 9106   9.574  10.142   5.718
 2403SOL    HW2 9107   9.503  10.150   5.851
 2404SOL     OW 9108  10.994  14.447   3.429
 2404SOL    HW1 9109  10.981  14.446   3.524
 2404SOL    HW2 9110  11.014  14.356   3.407
 2405SOL     OW 9111   0.388  14.087   3.470
 2405SOL    HW1 9112   0.369  14.087   3.564
 2405SOL    HW2 9113   0.483  14.083   3.464
 2406SOL     OW 9114  14.552  13.625   6.405
 2406SOL    HW1 9115  14.504  13.549   6.438
 2406SOL    HW2 9116  14.633  13.626   6.456
 2407SOL     OW 9117   1.781  10.340   1.232
 2407SOL    HW1 9118   1.864  10.388   1.220
 2407SOL    HW2 9119   1.718  10.388   1.179
 2408SOL     OW 9120   5.861   8.768   2.666
 2408SOL    HW1 9121   5.826   8.681   2.646
 2408SOL    HW2 9122   5.801   8.804   2.731
 2409SOL     OW 9123  12.571   2.330   7.329
 2409SOL    HW1 9124  12.607   2.396   7.270
 2409SOL    HW2 9125  12.643   2.269   7.344
 2410SOL     OW 9126   1.158   4.893   7.332
 2410SOL    HW1 9127   1.158   4.805   7.370
 2410SOL    HW2 9128   1.145   4.879   7.238
 2411SOL     OW 9129  10.778  14.369   1.513
 2411SOL    HW1 9130  10.689  14.402   1.528
 2411SOL    HW2 9131  10.816  14.431   1.450
 2412SOL     OW 9132  11.728   0.915  10.930
 2412SOL    HW1 9133  11.740   0.936  10.838
 2412SOL    HW2 9134  11.739   0.998  10.976
 2413SOL     OW 9135   8.353   7.104  11.399
 2413SOL    HW1 9136   8.386   7.165  11.333
 2413SOL    HW2 9137   8.281   7.059  11.355
 2414SOL     OW 9138  12.800   0.992  11.122
 2414SOL    HW1 9139  12.839   1.001  11.035
 2414SOL    HW2 9140  12.748   0.911  11.116
 2415SOL     OW 9141   5.156  13.540  12.933
 2415SOL    HW1 9142   5.137  13.603  13.002
 2415SOL    HW2 9143   5.135  13.455  12.972
 2416SOL     OW 9144  11.633   6.985  13.180
 2416SOL    HW1 9145  11.560   6.927  13.162
 2416SOL    HW2 9146  11.642   6.983  13.275
 2417SOL     OW 9147  10.672  11.492  13.771
 2417SOL    HW1 9148  10.642  11.435  13.842
 2417SOL    HW2 9149  10.655  11.442  13.692
 2418SOL     OW 9150   2.664  11.203  14.186
 2418SOL    HW1 9151   2.706  11.289  14.177
 2418SOL    HW2 9152   2.573  11.223  14.208
 2419SOL     OW 9153  10.359   6.579   7.133
 2419SOL    HW1 9154  10.319   6.655   7.175
 2419SOL    HW2 9155  10.285   6.529   7.099
 2420SOL     OW 9156  10.006   9.781   3.752
 2420SOL    HW1 9157  10.065   9.856   3.758
 2420SOL    HW2 9158  10.063   9.704   3.759
 2421SOL     OW 9159  10.586  11.370  13.038
 2421SOL    HW1 9160  10.581  11.385  13.132
 2421SOL    HW2 9161  10.542  11.286  13.024
 2422SOL     OW 9162  13.739   8.789   4.483
 2422SOL    HW1 9163  13.755   8.756   4.395
 2422SOL    HW2 9164  13.645   8.806   4.486
 2423SOL     OW 9165  10.376  14.301   3.040
 2423SOL    HW1 9166  10.459  14.317   3.086
 2423SOL    HW2 9167  10.388  14.215   3.000
 2424SOL     OW 9168   6.378   6.694   5.434
 2424SOL    HW1 9169   6.385   6.730   5.345
 2424SOL    HW2 9170   6.448   6.738   5.483
 2425SOL     OW 9171   8.884   1.606   2.146
 2425SOL    HW1 9172   8.845   1.579   2.063
 2425SOL    HW2 9173   8.811   1.605   2.208
 2426SOL     OW 9174  13.561  11.097   6.650
 2426SOL    HW1 9175  13.528  11.093   6.740
 2426SOL    HW2 9176  13.655  11.077   6.658
 2427SOL     OW 9177   2.493   6.710  14.840
 2427SOL    HW1 9178   2.504   6.746   0.049
 2427SOL    HW2 9179   2.404   6.674  14.840
 2428SOL     OW 9180   1.486  14.616   0.172
 2428SOL    HW1 9181   1.435  14.552   0.222
 2428SOL    HW2 9182   1.576  14.605   0.202
 2429SOL     OW 9183   1.939   8.010  13.843
 2429SOL    HW1 9184   1.900   8.029  13.929
 2429SOL    HW2 9185   2.014   8.068  13.837
 2430SOL     OW 9186   6.544   1.013  13.279
 2430SOL    HW1 9187   6.543   0.952  13.352
 2430SOL    HW2 9188   6.532   0.958  13.202
 2431SOL     OW 9189  12.808  14.575   2.056
 2431SOL    HW1 9190  12.782  14.660   2.091
 2431SOL    HW2 9191  12.902  14.569   2.074
 2432SOL     OW 9192   7.952   6.699  14.498
 2432SOL    HW1 9193   8.040   6.695  14.462
 2432SOL    HW2 9194   7.907   6.765  14.445
 2433SOL     OW 9195   1.526   3.296  11.164
 2433SOL    HW1 9196   1.476   3.367  11.204
 2433SOL    HW2 9197   1.501   3.299  11.071
 2434SOL     OW 9198  11.831   8.320   8.323
 2434SOL    HW1 9199  11.796   8.409   8.332
 2434SOL    HW2 9200  11.768   8.264   8.368
 2435SOL     OW 9201   5.811   2.141  11.639
 2435SOL    HW1 9202   5.724   2.116  11.671
 2435SOL    HW2 9203   5.872   2.095  11.697
 2436SOL     OW 9204   9.459  11.609   2.738
 2436SOL    HW1 9205   9.458  11.559   2.820
 2436SOL    HW2 9206   9.523  11.678   2.754
 2437SOL     OW 9207   3.824   2.645   6.197
 2437SOL    HW1 9208   3.858   2.732   6.178
 2437SOL    HW2 9209   3.855   2.625   6.285
 2438SOL     OW 9210   5.992   1.197   6.794
 2438SOL    HW1 9211   5.939   1.140   6.738
 2438SOL    HW2 9212   5.930   1.232   6.858
 2439SOL     OW 9213   2.367   3.010   4.465
 2439SOL    HW1 9214   2.346   2.916   4.466
 2439SOL    HW2 9215   2.283   3.054   4.462
 2440SOL     OW 9216   5.852  13.982   0.373
 2440SOL    HW1 9217   5.882  13.892   0.374
 2440SOL    HW2 9218   5.889  14.022   0.452
 2441SOL     OW 9219   7.470   3.753   2.453
 2441SOL    HW1 9220   7.440   3.839   2.423
 2441SOL    HW2 9221   7.558   3.744   2.415
 2442SOL     OW 9222  13.427   3.460   8.400
 2442SOL    HW1 9223  13.492   3.462   8.330
 2442SOL    HW2 9224  13.428   3.548   8.437
 2443SOL     OW 9225   7.722   3.043   2.260
 2443SOL    HW1 9226   7.712   2.949   2.250
 2443SOL    HW2 9227   7.817   3.056   2.270
 2444SOL     OW 9228   5.615   8.036   6.726
 2444SOL    HW1 9229   5.580   8.042   6.815
 2444SOL    HW2 9230   5.539   8.021   6.670
 2445SOL     OW 9231  11.470   1.786  11.724
 2445SOL    HW1 9232  11.505   1.820  11.806
 2445SOL    HW2 9233  11.515   1.702  11.712
 2446SOL     OW 9234   2.270   1.494   9.011
 2446SOL    HW1 9235   2.262   1.536   8.925
 2446SOL    HW2 9236   2.324   1.554   9.062
 2447SOL     OW 9237   3.500  13.550  13.469
 2447SOL    HW1 9238   3.499  13.612  13.542
 2447SOL    HW2 9239   3.540  13.599  13.397
 2448SOL     OW 9240   2.734   2.140  11.052
 2448SOL    HW1 9241   2.676   2.099  11.116
 2448SOL    HW2 9242   2.821   2.136  11.093
 2449SOL     OW 9243   5.596  11.338  13.331
 2449SOL    HW1 9244   5.640  11.310  13.251
 2449SOL    HW2 9245   5.511  11.293  13.328
 2450SOL     OW 9246   2.493   8.930   9.877
 2450SOL    HW1 9247   2.458   8.852   9.835
 2450SOL    HW2 9248   2.574   8.902   9.917
 2451SOL     OW 9249  13.189  12.509   0.470
 2451SOL    HW1 9250  13.274  12.539   0.502
 2451SOL    HW2 9251  13.209  12.436   0.411
 2452SOL     OW 9252   5.576   5.013  10.528
 2452SOL    HW1 9253   5.575   4.924  10.492
 2452SOL    HW2 9254   5.665   5.044  10.511
 2453SOL     OW 9255   2.371  13.972   0.293
 2453SOL    HW1 9256   2.307  13.921   0.343
 2453SOL    HW2 9257   2.326  13.993   0.211
 2454SOL     OW 9258   4.325   4.397  11.875
 2454SOL    HW1 9259   4.278   4.360  11.949
 2454SOL    HW2 9260   4.260   4.400  11.805
 2455SOL     OW 9261   9.882  11.930   2.345
 2455SOL    HW1 9262   9.909  11.882   2.266
 2455SOL    HW2 9263   9.933  11.891   2.416
 2456SOL     OW 9264   2.243   9.396  14.157
 2456SOL    HW1 9265   2.208   9.449  14.229
 2456SOL    HW2 9266   2.301   9.456  14.110
 2457SOL     OW 9267   1.562   4.405   4.017
 2457SOL    HW1 9268   1.539   4.323   4.061
 2457SOL    HW2 9269   1.490   4.464   4.039
 2458SOL     OW 9270   2.347   3.106   6.669
 2458SOL    HW1 9271   2.284   3.169   6.704
 2458SOL    HW2 9272   2.349   3.123   6.575
 2459SOL     OW 9273   4.809  12.325   0.152
 2459SOL    HW1 9274   4.736  12.280   0.110
 2459SOL    HW2 9275   4.814  12.287   0.239
 2460SOL     OW 9276   7.534  12.198  14.511
 2460SOL    HW1 9277   7.491  12.260  14.570
 2460SOL    HW2 9278   7.464  12.136  14.488
 2461SOL     OW 9279   4.476   4.234   1.877
 2461SOL    HW1 9280   4.518   4.293   1.939
 2461SOL    HW2 9281   4.545   4.173   1.851
 2462SOL     OW 9282   4.996  13.226   2.969
 2462SOL    HW1 9283   4.904  13.200   2.961
 2462SOL    HW2 9284   5.022  13.194   3.056
 2463SOL     OW 9285   7.881  12.271   8.615
 2463SOL    HW1 9286   7.813  12.339   8.614
 2463SOL    HW2 9287   7.920  12.278   8.702
 2464SOL     OW 9288   3.447  11.085   4.823
 2464SOL    HW1 9289   3.405  11.050   4.901
 2464SOL    HW2 9290   3.410  11.173   4.813
 2465SOL     OW 9291   6.389   1.826  11.325
 2465SOL    HW1 9292   6.443   1.751  11.349
 2465SOL    HW2 9293   6.440   1.871  11.257
 2466SOL     OW 9294  10.481  12.824  13.695
 2466SOL    HW1 9295  10.462  12.759  13.762
 2466SOL    HW2 9296  10.397  12.840  13.652
 2467SOL     OW 9297  10.541   6.531   6.020
 2467SOL    HW1 9298  10.581   6.470   5.958
 2467SOL    HW2 9299  10.575   6.617   5.996
 2468SOL     OW 9300  10.876   0.847   5.422
 2468SOL    HW1 9301  10.919   0.822   5.340
 2468SOL    HW2 9302  10.936   0.817   5.490
 2469SOL     OW 9303   5.068   8.377   1.659
 2469SOL    HW1 9304   5.077   8.319   1.584
 2469SOL    HW2 9305   5.118   8.334   1.729
 2470SOL     OW 9306   5.428  13.138   8.415
 2470SOL    HW1 9307   5.507  13.136   8.469
 2470SOL    HW2 9308   5.369  13.196   8.463
 2471SOL     OW 9309  14.077   6.607   2.753
 2471SOL    HW1 9310  14.040   6.536   2.805
 2471SOL    HW2 9311  14.076   6.683   2.811
 2472SOL     OW 9312   8.718   4.440   8.813
 2472SOL    HW1 9313   8.799   4.440   8.762
 2472SOL    HW2 9314   8.674   4.521   8.790
 2473SOL     OW 9315  14.104  10.824   8.007
 2473SOL    HW1 9316  14.050  10.876   8.066
 2473SOL    HW2 9317  14.142  10.755   8.062
 2474SOL     OW 9318   6.691   3.330   1.309
 2474SOL    HW1 9319   6.606   3.288   1.320
 2474SOL    HW2 9320   6.683   3.379   1.227
 2475SOL     OW 9321   4.177   4.081   4.029
 2475SOL    HW1 9322   4.233   4.024   4.081
 2475SOL    HW2 9323   4.191   4.053   3.939
 2476SOL     OW 9324  10.224  12.984   4.635
 2476SOL    HW1 9325  10.135  12.966   4.664
 2476SOL    HW2 9326  10.279  12.940   4.700
 2477SOL     OW 9327   6.845   2.243   8.878
 2477SOL    HW1 9328   6.900   2.178   8.834
 2477SOL    HW2 9329   6.870   2.236   8.970
 2478SOL     OW 9330  14.452   8.052  13.594
 2478SOL    HW1 9331  14.407   7.973  13.625
 2478SOL    HW2 9332  14.546   8.031  13.602
 2479SOL     OW 9333   2.378  13.240  12.416
 2479SOL    HW1 9334   2.363  13.203  12.503
 2479SOL    HW2 9335   2.441  13.181  12.375
 2480SOL     OW 9336   3.919   2.463   1.121
 2480SOL    HW1 9337   3.830   2.444   1.153
 2480SOL    HW2 9338   3.944   2.385   1.072
 2481SOL     OW 9339   8.557  12.298   2.897
 2481SOL    HW1 9340   8.514  12.353   2.832
 2481SOL    HW2 9341   8.509  12.216   2.896
 2482SOL     OW 9342   3.834   2.149  11.220
 2482SOL    HW1 9343   3.898   2.121  11.154
 2482SOL    HW2 9344   3.836   2.079  11.285
 2483SOL     OW 9345   3.327  14.600   9.705
 2483SOL    HW1 9346   3.336  14.609   9.610
 2483SOL    HW2 9347   3.412  14.628   9.739
 2484SOL     OW 9348  12.910   4.954   3.085
 2484SOL    HW1 9349  12.877   4.886   3.144
 2484SOL    HW2 9350  12.921   5.031   3.141
 2485SOL     OW 9351  14.137  12.026   9.205
 2485SOL    HW1 9352  14.161  12.019   9.297
 2485SOL    HW2 9353  14.207  12.077   9.165
 2486SOL     OW 9354   4.986  10.573   9.500
 2486SOL    HW1 9355   5.054  10.541   9.440
 2486SOL    HW2 9356   4.999  10.522   9.580
 2487SOL     OW 9357   4.010   3.509  10.182
 2487SOL    HW1 9358   3.997   3.593  10.139
 2487SOL    HW2 9359   4.015   3.445  10.111
 2488SOL     OW 9360   0.300   7.866  11.231
 2488SOL    HW1 9361   0.334   7.946  11.191
 2488SOL    HW2 9362   0.209   7.886  11.251
 2489SOL     OW 9363   4.371   7.893   5.096
 2489SOL    HW1 9364   4.296   7.949   5.075
 2489SOL    HW2 9365   4.337   7.804   5.091
 2490SOL     OW 9366   6.463   8.245   4.632
 2490SOL    HW1 9367   6.533   8.246   4.697
 2490SOL    HW2 9368   6.452   8.152   4.611
 2491SOL     OW 9369   4.850   1.230  14.821
 2491SOL    HW1 9370   4.762   1.219  14.785
 2491SOL    HW2 9371   4.870   1.145  14.861
 2492SOL     OW 9372   6.268  13.958  11.715
 2492SOL    HW1 9373   6.345  13.901  11.712
 2492SOL    HW2 9374   6.244  13.960  11.808
 2493SOL     OW 9375   6.400   7.926  13.668
 2493SOL    HW1 9376   6.354   7.890  13.592
 2493SOL    HW2 9377   6.386   8.020  13.661
 2494SOL     OW 9378   4.043   7.053   8.861
 2494SOL    HW1 9379   4.115   7.010   8.815
 2494SOL    HW2 9380   4.077   7.071   8.949
 2495SOL     OW 9381   3.549   6.172   5.017
 2495SOL    HW1 9382   3.522   6.091   5.061
 2495SOL    HW2 9383   3.629   6.198   5.063
 2496SOL     OW 9384   2.734   2.634   7.576
 2496SOL    HW1 9385   2.760   2.703   7.638
 2496SOL    HW2 9386   2.651   2.601   7.611
 2497SOL     OW 9387   6.945  10.450   6.866
 2497SOL    HW1 9388   6.982  10.376   6.816
 2497SOL    HW2 9389   6.867  10.414   6.909
 2498SOL     OW 9390   1.142   3.391  13.341
 2498SOL    HW1 9391   1.094   3.310  13.322
 2498SOL    HW2 9392   1.115   3.452  13.272
 2499SOL     OW 9393   4.542  14.294  11.404
 2499SOL    HW1 9394   4.452  14.318  11.379
 2499SOL    HW2 9395   4.581  14.258  11.324
 2500SOL     OW 9396   7.376   5.556   9.272
 2500SOL    HW1 9397   7.299   5.610   9.292
 2500SOL    HW2 9398   7.430   5.612   9.216
 2501SOL     OW 9399  13.878   0.408   9.094
 2501SOL    HW1 9400  13.853   0.318   9.115
 2501SOL    HW2 9401  13.795   0.451   9.073
 2502SOL     OW 9402   5.985  12.248   7.288
 2502SOL    HW1 9403   5.944  12.311   7.348
 2502SOL    HW2 9404   5.929  12.249   7.210
 2503SOL     OW 9405   4.979   9.335  13.218
 2503SOL    HW1 9406   5.063   9.311  13.178
 2503SOL    HW2 9407   4.933   9.383  13.150
 2504SOL     OW 9408   3.434   8.286  13.092
 2504SOL    HW1 9409   3.340   8.276  13.108
 2504SOL    HW2 9410   3.464   8.348  13.159
 2505SOL     OW 9411   7.627   1.076  14.807
 2505SOL    HW1 9412   7.543   1.105  14.773
 2505SOL    HW2 9413   7.656   1.009  14.745
 2506SOL     OW 9414  11.575  14.664  14.369
 2506SOL    HW1 9415  11.627  14.714  14.306
 2506SOL    HW2 9416  11.575  14.575  14.334
 2507SOL     OW 9417  14.587   8.726   4.126
 2507SOL    HW1 9418  14.627   8.743   4.040
 2507SOL    HW2 9419  14.662   8.713   4.185
 2508SOL     OW 9420   0.854   2.587  14.808
 2508SOL    HW1 9421   0.791   2.644  14.765
 2508SOL    HW2 9422   0.884   2.638   0.004
 2509SOL     OW 9423   9.714  14.753   2.554
 2509SOL    HW1 9424   9.754  14.824   2.504
 2509SOL    HW2 9425   9.780  14.683   2.553
 2510SOL     OW 9426   1.584   7.701   4.242
 2510SOL    HW1 9427   1.555   7.774   4.296
 2510SOL    HW2 9428   1.670   7.727   4.210
 2511SOL     OW 9429  14.875   6.912   7.813
 2511SOL    HW1 9430   0.023   6.999   7.841
 2511SOL    HW2 9431   0.051   6.852   7.861
 2512SOL     OW 9432   1.609   9.879  10.647
 2512SOL    HW1 9433   1.673   9.950  10.641
 2512SOL    HW2 9434   1.545   9.899  10.579
 2513SOL     OW 9435   4.689  13.358   6.382
 2513SOL    HW1 9436   4.641  13.400   6.310
 2513SOL    HW2 9437   4.648  13.272   6.391
 2514SOL     OW 9438   9.443   6.803   2.902
 2514SOL    HW1 9439   9.429   6.723   2.953
 2514SOL    HW2 9440   9.474   6.772   2.817
 2515SOL     OW 9441   4.827   9.671  14.711
 2515SOL    HW1 9442   4.761   9.687  14.644
 2515SOL    HW2 9443   4.783   9.616  14.776
 2516SOL     OW 9444   3.525  14.420   8.432
 2516SOL    HW1 9445   3.558  14.510   8.434
 2516SOL    HW2 9446   3.443  14.425   8.383
 2517SOL     OW 9447   4.760   7.620   0.334
 2517SOL    HW1 9448   4.844   7.616   0.287
 2517SOL    HW2 9449   4.696   7.641   0.266
 2518SOL     OW 9450   0.307   0.274  12.392
 2518SOL    HW1 9451   0.243   0.228  12.338
 2518SOL    HW2 9452   0.308   0.226  12.475
 2519SOL     OW 9453   5.934   9.870  14.145
 2519SOL    HW1 9454   5.947   9.960  14.175
 2519SOL    HW2 9455   5.844   9.849  14.168
 2520SOL     OW 9456   4.878  10.062   8.300
 2520SOL    HW1 9457   4.838  10.115   8.370
 2520SOL    HW2 9458   4.852   9.972   8.321
 2521SOL     OW 9459  14.232  14.225   2.869
 2521SOL    HW1 9460  14.149  14.179   2.879
 2521SOL    HW2 9461  14.276  14.179   2.797
 2522SOL     OW 9462   2.503   9.155  13.091
 2522SOL    HW1 9463   2.411   9.183  13.090
 2522SOL    HW2 9464   2.543   9.206  13.162
 2523SOL     OW 9465   5.940   0.909   7.113
 2523SOL    HW1 9466   5.970   0.985   7.164
 2523SOL    HW2 9467   5.854   0.935   7.080
 2524SOL     OW 9468  10.073  12.922  14.715
 2524SOL    HW1 9469  10.142  12.885  14.770
 2524SOL    HW2 9470  10.060  12.857  14.646
 2525SOL     OW 9471  14.283   4.299   8.813
 2525SOL    HW1 9472  14.297   4.356   8.738
 2525SOL    HW2 9473  14.218   4.345   8.866
 2526SOL     OW 9474  13.199   9.486   6.913
 2526SOL    HW1 9475  13.250   9.537   6.976
 2526SOL    HW2 9476  13.116   9.533   6.907
 2527SOL     OW 9477   7.199  10.323  14.227
 2527SOL    HW1 9478   7.275  10.382  14.234
 2527SOL    HW2 9479   7.150  10.356  14.151
 2528SOL     OW 9480   9.918   6.017  10.933
 2528SOL    HW1 9481   9.872   5.988  11.011
 2528SOL    HW2 9482   9.870   6.095  10.904
 2529SOL     OW 9483   5.903  10.410   3.059
 2529SOL    HW1 9484   5.898  10.331   3.113
 2529SOL    HW2 9485   5.813  10.428   3.034
 2530SOL     OW 9486   9.989   3.560  13.997
 2530SOL    HW1 9487  10.040   3.497  13.945
 2530SOL    HW2 9488   9.901   3.522  14.000
 2531SOL     OW 9489   5.608   1.199  12.799
 2531SOL    HW1 9490   5.561   1.116  12.788
 2531SOL    HW2 9491   5.551   1.252  12.853
 2532SOL     OW 9492   9.398   1.137   0.478
 2532SOL    HW1 9493   9.343   1.127   0.400
 2532SOL    HW2 9494   9.340   1.119   0.551
 2533SOL     OW 9495   0.583   6.018   1.172
 2533SOL    HW1 9496   0.629   5.945   1.215
 2533SOL    HW2 9497   0.632   6.032   1.091
 2534SOL     OW 9498   7.643   7.452   7.744
 2534SOL    HW1 9499   7.557   7.424   7.773
 2534SOL    HW2 9500   7.704   7.405   7.801
 2535SOL     OW 9501  14.480   4.807  12.295
 2535SOL    HW1 9502  14.538   4.773  12.362
 2535SOL    HW2 9503  14.452   4.893  12.328
 2536SOL     OW 9504   8.379  13.101  11.535
 2536SOL    HW1 9505   8.305  13.109  11.595
 2536SOL    HW2 9506   8.423  13.186  11.540
 2537SOL     OW 9507   0.646   2.026  12.835
 2537SOL    HW1 9508   0.598   2.030  12.918
 2537SOL    HW2 9509   0.599   1.959  12.785
 2538SOL     OW 9510   8.688  12.323  11.664
 2538SOL    HW1 9511   8.660  12.412  11.640
 2538SOL    HW2 9512   8.780  12.332  11.688
 2539SOL     OW 9513   6.199   7.161   5.488
 2539SOL    HW1 9514   6.256   7.137   5.561
 2539SOL    HW2 9515   6.145   7.083   5.474
 2540SOL     OW 9516   6.486  14.607   0.358
 2540SOL    HW1 9517   6.394  14.635   0.357
 2540SOL    HW2 9518   6.522  14.637   0.275
 2541SOL     OW 9519  14.134  11.199   0.611
 2541SOL    HW1 9520  14.131  11.137   0.539
 2541SOL    HW2 9521  14.209  11.256   0.591
 2542SOL     OW 9522   6.925   2.150  14.397
 2542SOL    HW1 9523   6.849   2.134  14.342
 2542SOL    HW2 9524   6.953   2.063  14.426
 2543SOL     OW 9525   8.088   1.399   7.740
 2543SOL    HW1 9526   8.147   1.332   7.705
 2543SOL    HW2 9527   8.060   1.448   7.662
 2544SOL     OW 9528   1.260   3.770   1.845
 2544SOL    HW1 9529   1.167   3.759   1.865
 2544SOL    HW2 9530   1.297   3.808   1.925
 2545SOL     OW 9531   0.342  14.451  12.007
 2545SOL    HW1 9532   0.433  14.452  12.036
 2545SOL    HW2 9533   0.344  14.491  11.920
 2546SOL     OW 9534   4.493   5.802   7.128
 2546SOL    HW1 9535   4.560   5.833   7.190
 2546SOL    HW2 9536   4.543   5.775   7.051
 2547SOL     OW 9537   7.969   7.902   9.248
 2547SOL    HW1 9538   7.935   7.825   9.203
 2547SOL    HW2 9539   7.951   7.975   9.189
 2548SOL     OW 9540   0.989   3.546  13.117
 2548SOL    HW1 9541   0.934   3.624  13.103
 2548SOL    HW2 9542   1.058   3.554  13.052
 2549SOL     OW 9543   3.722   4.399   8.276
 2549SOL    HW1 9544   3.688   4.310   8.279
 2549SOL    HW2 9545   3.738   4.416   8.183
 2550SOL     OW 9546   0.445  10.201   4.672
 2550SOL    HW1 9547   0.404  10.158   4.596
 2550SOL    HW2 9548   0.403  10.160   4.748
 2551SOL     OW 9549   7.019   3.331   6.423
 2551SOL    HW1 9550   6.962   3.279   6.367
 2551SOL    HW2 9551   6.959   3.379   6.480
 2552SOL     OW 9552  12.688   5.224   0.724
 2552SOL    HW1 9553  12.675   5.306   0.676
 2552SOL    HW2 9554  12.639   5.236   0.805
 2553SOL     OW 9555  11.397   5.482   6.592
 2553SOL    HW1 9556  11.382   5.522   6.678
 2553SOL    HW2 9557  11.374   5.551   6.529
 2554SOL     OW 9558  10.501   6.050   4.038
 2554SOL    HW1 9559  10.469   6.002   3.962
 2554SOL    HW2 9560  10.447   6.019   4.110
 2555SOL     OW 9561   8.150   2.163   0.935
 2555SOL    HW1 9562   8.059   2.181   0.911
 2555SOL    HW2 9563   8.190   2.129   0.855
 2556SOL     OW 9564   0.931   9.094   4.383
 2556SOL    HW1 9565   0.870   9.149   4.335
 2556SOL    HW2 9566   0.928   9.126   4.473
 2557SOL     OW 9567   4.225   0.017  14.141
 2557SOL    HW1 9568   4.319   0.008  14.124
 2557SOL    HW2 9569   4.211   0.112  14.148
 2558SOL     OW 9570   5.229   2.853   9.451
 2558SOL    HW1 9571   5.208   2.936   9.495
 2558SOL    HW2 9572   5.152   2.798   9.465
 2559SOL     OW 9573   2.274   4.229   4.645
 2559SOL    HW1 9574   2.213   4.161   4.674
 2559SOL    HW2 9575   2.218   4.295   4.605
 2560SOL     OW 9576   1.806   2.831  13.879
 2560SOL    HW1 9577   1.746   2.771  13.835
 2560SOL    HW2 9578   1.783   2.917  13.845
 2561SOL     OW 9579   8.953   5.229  11.160
 2561SOL    HW1 9580   9.016   5.291  11.123
 2561SOL    HW2 9581   9.000   5.187  11.232
 2562SOL     OW 9582   7.087   8.055   5.830
 2562SOL    HW1 9583   7.152   8.058   5.760
 2562SOL    HW2 9584   7.087   8.143   5.867
 2563SOL     OW 9585   1.282  10.798  10.875
 2563SOL    HW1 9586   1.361  10.789  10.928
 2563SOL    HW2 9587   1.255  10.708  10.855
 2564SOL     OW 9588   5.224  12.994   3.571
 2564SOL    HW1 9589   5.295  12.997   3.507
 2564SOL    HW2 9590   5.190  13.084   3.572
 2565SOL     OW 9591   1.287   2.074   0.544
 2565SOL    HW1 9592   1.338   1.995   0.529
 2565SOL    HW2 9593   1.206   2.061   0.495
 2566SOL     OW 9594  11.490  12.742   3.550
 2566SOL    HW1 9595  11.514  12.666   3.497
 2566SOL    HW2 9596  11.396  12.752   3.538
 2567SOL     OW 9597  14.336   6.234   6.405
 2567SOL    HW1 9598  14.368   6.260   6.491
 2567SOL    HW2 9599  14.408   6.253   6.345
 2568SOL     OW 9600   9.933  11.764  13.170
 2568SOL    HW1 9601   9.871  11.711  13.220
 2568SOL    HW2 9602   9.961  11.832  13.232
 2569SOL     OW 9603  11.644   3.626  11.966
 2569SOL    HW1 9604  11.698   3.551  11.991
 2569SOL    HW2 9605  11.625   3.670  12.049
 2570SOL     OW 9606   5.266   5.498   0.823
 2570SOL    HW1 9607   5.171   5.498   0.834
 2570SOL    HW2 9608   5.282   5.559   0.752
 2571SOL     OW 9609   0.666   2.281   9.929
 2571SOL    HW1 9610   0.673   2.194   9.892
 2571SOL    HW2 9611   0.583   2.281   9.976
 2572SOL     OW 9612   4.597   5.115   2.232
 2572SOL    HW1 9613   4.663   5.185   2.230
 2572SOL    HW2 9614   4.609   5.073   2.317
 2573SOL     OW 9615  11.667   0.456  10.447
 2573SOL    HW1 9616  11.761   0.469  10.458
 2573SOL    HW2 9617  11.628   0.480  10.531
 2574SOL     OW 9618   8.956  11.566   3.536
 2574SOL    HW1 9619   8.905  11.608   3.467
 2574SOL    HW2 9620   8.919  11.601   3.617
 2575SOL     OW 9621   6.700   5.351   2.145
 2575SOL    HW1 9622   6.639   5.362   2.218
 2575SOL    HW2 9623   6.786   5.349   2.187
 2576SOL     OW 9624   7.183   4.180   5.078
 2576SOL    HW1 9625   7.257   4.160   5.135
 2576SOL    HW2 9626   7.224   4.213   4.997
 2577SOL     OW 9627  14.124   0.164  10.758
 2577SOL    HW1 9628  14.068   0.191  10.830
 2577SOL    HW2 9629  14.212   0.189  10.785
 2578SOL     OW 9630   1.988   2.301   1.440
 2578SOL    HW1 9631   1.963   2.393   1.444
 2578SOL    HW2 9632   1.906   2.253   1.451
 2579SOL     OW 9633   9.285   0.234   5.359
 2579SOL    HW1 9634   9.325   0.275   5.282
 2579SOL    HW2 9635   9.255   0.308   5.412
 2580SOL     OW 9636  11.060   4.858   9.965
 2580SOL    HW1 9637  11.137   4.877   9.911
 2580SOL    HW2 9638  11.007   4.938   9.958
 2581SOL     OW 9639   0.874   5.756  14.739
 2581SOL    HW1 9640   0.925   5.686  14.700
 2581SOL    HW2 9641   0.911   5.836  14.703
 2582SOL     OW 9642   7.214   2.805   0.026
 2582SOL    HW1 9643   7.216   2.886   0.077
 2582SOL    HW2 9644   7.304   2.773   0.027
 2583SOL     OW 9645  11.803   4.702  14.573
 2583SOL    HW1 9646  11.765   4.727  14.488
 2583SOL    HW2 9647  11.879   4.760  14.582
 2584SOL     OW 9648   5.231   6.760   1.490
 2584SOL    HW1 9649   5.225   6.844   1.535
 2584SOL    HW2 9650   5.167   6.704   1.534
 2585SOL     OW 9651   8.149   9.356   0.242
 2585SOL    HW1 9652   8.200   9.311   0.309
 2585SOL    HW2 9653   8.210   9.419   0.203
 2586SOL     OW 9654   6.473  10.573   2.165
 2586SOL    HW1 9655   6.509  10.633   2.230
 2586SOL    HW2 9656   6.550  10.537   2.121
 2587SOL     OW 9657  14.262   8.450   2.992
 2587SOL    HW1 9658  14.278   8.382   3.057
 2587SOL    HW2 9659  14.256   8.531   3.043
 2588SOL     OW 9660   9.619   0.656  12.033
 2588SOL    HW1 9661   9.650   0.731  11.983
 2588SOL    HW2 9662   9.674   0.583  12.003
 2589SOL     OW 9663   4.944  11.540  10.713
 2589SOL    HW1 9664   4.935  11.631  10.739
 2589SOL    HW2 9665   5.030  11.535  10.670
 2590SOL     OW 9666   5.551   7.403   9.292
 2590SOL    HW1 9667   5.518   7.314   9.288
 2590SOL    HW2 9668   5.473   7.458   9.289
 2591SOL     OW 9669   0.265   6.041   9.363
 2591SOL    HW1 9670   0.289   6.057   9.454
 2591SOL    HW2 9671   0.285   5.948   9.349
 2592SOL     OW 9672   1.373   0.887  12.995
 2592SOL    HW1 9673   1.371   0.923  13.084
 2592SOL    HW2 9674   1.460   0.847  12.988
 2593SOL     OW 9675   0.111   4.031   2.041
 2593SOL    HW1 9676   0.103   3.991   1.954
 2593SOL    HW2 9677   0.062   3.973   2.099
 2594SOL     OW 9678   2.810  11.078   7.878
 2594SOL    HW1 9679   2.873  11.086   7.950
 2594SOL    HW2 9680   2.727  11.107   7.916
 2595SOL     OW 9681   5.829   1.818  13.297
 2595SOL    HW1 9682   5.884   1.752  13.339
 2595SOL    HW2 9683   5.757   1.768  13.259
 2596SOL     OW 9684   7.289   9.719  12.036
 2596SOL    HW1 9685   7.267   9.712  12.129
 2596SOL    HW2 9686   7.327   9.634  12.014
 2597SOL     OW 9687   5.274   9.474  10.842
 2597SOL    HW1 9688   5.358   9.518  10.831
 2597SOL    HW2 9689   5.297   9.386  10.873
 2598SOL     OW 9690   4.695   0.397   9.130
 2598SOL    HW1 9691   4.719   0.490   9.129
 2598SOL    HW2 9692   4.646   0.386   9.211
 2599SOL     OW 9693   6.987   1.846   4.500
 2599SOL    HW1 9694   6.910   1.897   4.526
 2599SOL    HW2 9695   7.053   1.912   4.479
 2600SOL     OW 9696  11.134  13.998  14.381
 2600SOL    HW1 9697  11.073  13.972  14.312
 2600SOL    HW2 9698  11.108  14.087  14.405
 2601SOL     OW 9699   0.684  12.439   5.992
 2601SOL    HW1 9700   0.741  12.367   5.964
 2601SOL    HW2 9701   0.659  12.416   6.082
 2602SOL     OW 9702  11.445  12.742  14.341
 2602SOL    HW1 9703  11.370  12.719  14.287
 2602SOL    HW2 9704  11.442  12.837  14.348
 2603SOL     OW 9705   6.749  12.082   4.593
 2603SOL    HW1 9706   6.667  12.126   4.570
 2603SOL    HW2 9707   6.789  12.060   4.508
 2604SOL     OW 9708   4.015   1.524   6.115
 2604SOL    HW1 9709   4.068   1.603   6.101
 2604SOL    HW2 9710   4.036   1.497   6.204
 2605SOL     OW 9711   0.360   3.921   1.583
 2605SOL    HW1 9712   0.329   4.007   1.610
 2605SOL    HW2 9713   0.450   3.937   1.553
 2606SOL     OW 9714   4.162   8.029  10.568
 2606SOL    HW1 9715   4.234   7.979  10.530
 2606SOL    HW2 9716   4.161   8.111  10.518
 2607SOL     OW 9717  11.032   9.779   3.539
 2607SOL    HW1 9718  11.018   9.748   3.450
 2607SOL    HW2 9719  10.972   9.854   3.548
 2608SOL     OW 9720  11.872  12.963   3.356
 2608SOL    HW1 9721  11.877  13.004   3.269
 2608SOL    HW2 9722  11.802  12.898   3.348
 2609SOL     OW 9723  10.865  12.055   4.686
 2609SOL    HW1 9724  10.833  12.145   4.695
 2609SOL    HW2 9725  10.798  12.012   4.632
 2610SOL     OW 9726  13.461  13.435   8.363
 2610SOL    HW1 9727  13.371  13.404   8.367
 2610SOL    HW2 9728  13.453  13.531   8.361
 2611SOL     OW 9729   0.400  14.702   8.793
 2611SOL    HW1 9730   0.413  14.644   8.718
 2611SOL    HW2 9731   0.349  14.651   8.855
 2612SOL     OW 9732   7.241   2.921   9.666
 2612SOL    HW1 9733   7.262   3.012   9.687
 2612SOL    HW2 9734   7.272   2.870   9.741
 2613SOL     OW 9735  10.081  11.940  11.154
 2613SOL    HW1 9736  10.030  11.963  11.077
 2613SOL    HW2 9737  10.039  11.986  11.227
 2614SOL     OW 9738  10.615   3.131   3.045
 2614SOL    HW1 9739  10.602   3.044   3.007
 2614SOL    HW2 9740  10.636   3.187   2.970
 2615SOL     OW 9741   5.008   1.480  13.848
 2615SOL    HW1 9742   4.928   1.484  13.795
 2615SOL    HW2 9743   4.989   1.416  13.917
 2616SOL     OW 9744   7.748  11.661   0.564
 2616SOL    HW1 9745   7.790  11.688   0.483
 2616SOL    HW2 9746   7.817  11.665   0.630
 2617SOL     OW 9747   5.134   3.659   0.719
 2617SOL    HW1 9748   5.150   3.573   0.757
 2617SOL    HW2 9749   5.050   3.686   0.756
 2618SOL     OW 9750  12.626  13.586   2.541
 2618SOL    HW1 9751  12.554  13.616   2.485
 2618SOL    HW2 9752  12.661  13.666   2.580
 2619SOL     OW 9753  13.421  13.174   1.728
 2619SOL    HW1 9754  13.395  13.256   1.771
 2619SOL    HW2 9755  13.405  13.107   1.794
 2620SOL     OW 9756   4.015  10.141   7.840
 2620SOL    HW1 9757   4.061  10.225   7.839
 2620SOL    HW2 9758   3.931  10.159   7.799
 2621SOL     OW 9759  13.040  12.976  10.582
 2621SOL    HW1 9760  13.122  13.011  10.616
 2621SOL    HW2 9761  13.062  12.945  10.494
 2622SOL     OW 9762   8.235   1.191   6.788
 2622SOL    HW1 9763   8.181   1.265   6.815
 2622SOL    HW2 9764   8.320   1.230   6.767
 2623SOL     OW 9765  11.923   0.421  13.962
 2623SOL    HW1 9766  11.858   0.365  13.921
 2623SOL    HW2 9767  11.989   0.361  13.996
 2624SOL     OW 9768   0.956  12.082   3.771
 2624SOL    HW1 9769   1.024  12.016   3.757
 2624SOL    HW2 9770   0.898  12.073   3.696
 2625SOL     OW 9771   4.612   4.394  11.840
 2625SOL    HW1 9772   4.521   4.422  11.849
 2625SOL    HW2 9773   4.606   4.308  11.798
 2626SOL     OW 9774   6.768   6.498   5.426
 2626SOL    HW1 9775   6.832   6.442   5.470
 2626SOL    HW2 9776   6.695   6.440   5.405
 2627SOL     OW 9777   0.069  10.805   2.221
 2627SOL    HW1 9778   0.128  10.863   2.173
 2627SOL    HW2 9779   0.078  10.831   2.312
 2628SOL     OW 9780  10.097   2.688   2.004
 2628SOL    HW1 9781  10.168   2.737   2.045
 2628SOL    HW2 9782  10.118   2.688   1.911
 2629SOL     OW 9783   9.758   8.436   2.420
 2629SOL    HW1 9784   9.828   8.479   2.469
 2629SOL    HW2 9785   9.750   8.349   2.460
 2630SOL     OW 9786  11.920   9.354   2.569
 2630SOL    HW1 9787  12.002   9.309   2.587
 2630SOL    HW2 9788  11.853   9.297   2.606
 2631SOL     OW 9789  13.266   7.392   2.152
 2631SOL    HW1 9790  13.304   7.307   2.173
 2631SOL    HW2 9791  13.172   7.376   2.150
 2632SOL     OW 9792  13.899   5.272   4.653
 2632SOL    HW1 9793  13.845   5.242   4.580
 2632SOL    HW2 9794  13.960   5.334   4.614
 2633SOL     OW 9795  11.789   2.408   2.698
 2633SOL    HW1 9796  11.855   2.471   2.668
 2633SOL    HW2 9797  11.839   2.341   2.744
 2634SOL     OW 9798   5.764   7.259  12.628
 2634SOL    HW1 9799   5.712   7.179  12.619
 2634SOL    HW2 9800   5.855   7.231  12.616
 2635SOL     OW 9801  11.764   4.718   9.282
 2635SOL    HW1 9802  11.812   4.643   9.247
 2635SOL    HW2 9803  11.683   4.722   9.231
 2636SOL     OW 9804  11.905   9.664  11.637
 2636SOL    HW1 9805  11.891   9.577  11.601
 2636SOL    HW2 9806  11.816   9.697  11.655
 2637SOL     OW 9807   8.004   8.225  14.501
 2637SOL    HW1 9808   8.024   8.192  14.588
 2637SOL    HW2 9809   8.083   8.209  14.450
 2638SOL     OW 9810   1.643  10.054  11.278
 2638SOL    HW1 9811   1.670  10.046  11.187
 2638SOL    HW2 9812   1.680   9.977  11.321
 2639SOL     OW 9813   2.540  14.609   7.146
 2639SOL    HW1 9814   2.559  14.687   7.094
 2639SOL    HW2 9815   2.444  14.602   7.144
 2640SOL     OW 9816   4.515  11.695   0.219
 2640SOL    HW1 9817   4.567  11.631   0.170
 2640SOL    HW2 9818   4.569  11.774   0.220
 2641SOL     OW 9819  11.216   5.585   4.271
 2641SOL    HW1 9820  11.126   5.607   4.296
 2641SOL    HW2 9821  11.271   5.637   4.330
 2642SOL     OW 9822   6.176  12.374   6.098
 2642SOL    HW1 9823   6.129  12.342   6.174
 2642SOL    HW2 9824   6.260  12.327   6.101
 2643SOL     OW 9825  13.723  12.950  12.081
 2643SOL    HW1 9826  13.731  12.953  12.176
 2643SOL    HW2 9827  13.724  13.041  12.053
 2644SOL     OW 9828   1.265   4.427   9.795
 2644SOL    HW1 9829   1.187   4.372   9.800
 2644SOL    HW2 9830   1.260   4.483   9.873
 2645SOL     OW 9831  10.724   6.384   0.671
 2645SOL    HW1 9832  10.795   6.401   0.733
 2645SOL    HW2 9833  10.736   6.293   0.645
 2646SOL     OW 9834  11.134  10.701   6.745
 2646SOL    HW1 9835  11.143  10.633   6.811
 2646SOL    HW2 9836  11.172  10.779   6.786
 2647SOL     OW 9837   5.474   6.028  12.613
 2647SOL    HW1 9838   5.379   6.030  12.603
 2647SOL    HW2 9839   5.507   6.019  12.524
 2648SOL     OW 9840   4.106   6.799   0.335
 2648SOL    HW1 9841   4.072   6.855   0.405
 2648SOL    HW2 9842   4.190   6.768   0.367
 2649SOL     OW 9843   8.003   9.719   3.272
 2649SOL    HW1 9844   8.068   9.723   3.201
 2649SOL    HW2 9845   8.005   9.627   3.300
 2650SOL     OW 9846   8.576   3.874  13.364
 2650SOL    HW1 9847   8.644   3.932  13.327
 2650SOL    HW2 9848   8.582   3.794  13.311
 2651SOL     OW 9849  10.432  10.370  10.851
 2651SOL    HW1 9850  10.519  10.398  10.822
 2651SOL    HW2 9851  10.429  10.276  10.830
 2652SOL     OW 9852   0.870   1.596  10.262
 2652SOL    HW1 9853   0.819   1.667  10.222
 2652SOL    HW2 9854   0.902   1.633  10.344
 2653SOL     OW 9855   2.935   6.915  14.320
 2653SOL    HW1 9856   2.954   6.869  14.402
 2653SOL    HW2 9857   3.021   6.929  14.280
 2654SOL     OW 9858  13.752   5.216   6.040
 2654SOL    HW1 9859  13.798   5.287   5.995
 2654SOL    HW2 9860  13.809   5.193   6.113
 2655SOL     OW 9861  11.711  13.409  13.153
 2655SOL    HW1 9862  11.786  13.410  13.093
 2655SOL    HW2 9863  11.672  13.496  13.144
 2656SOL     OW 9864  12.369   1.739   0.322
 2656SOL    HW1 9865  12.411   1.773   0.243
 2656SOL    HW2 9866  12.276   1.735   0.300
 2657SOL     OW 9867   0.914   2.410  10.347
 2657SOL    HW1 9868   0.903   2.504  10.331
 2657SOL    HW2 9869   0.893   2.369  10.263
 2658SOL     OW 9870   4.095   7.691  10.487
 2658SOL    HW1 9871   4.069   7.609  10.529
 2658SOL    HW2 9872   4.191   7.691  10.490
 2659SOL     OW 9873  13.610  14.325   9.158
 2659SOL    HW1 9874  13.569  14.402   9.199
 2659SOL    HW2 9875  13.654  14.360   9.081
 2660SOL     OW 9876  14.071   6.597  12.273
 2660SOL    HW1 9877  14.064   6.656  12.198
 2660SOL    HW2 9878  14.157   6.616  12.310
 2661SOL     OW 9879   4.712   9.465   1.686
 2661SOL    HW1 9880   4.714   9.376   1.720
 2661SOL    HW2 9881   4.759   9.516   1.751
 2662SOL     OW 9882   2.266   4.277   1.143
 2662SOL    HW1 9883   2.243   4.230   1.223
 2662SOL    HW2 9884   2.191   4.335   1.126
 2663SOL     OW 9885   1.947   8.411   7.013
 2663SOL    HW1 9886   1.985   8.493   7.045
 2663SOL    HW2 9887   1.907   8.371   7.090
 2664SOL     OW 9888   7.279  12.908   5.568
 2664SOL    HW1 9889   7.262  12.939   5.657
 2664SOL    HW2 9890   7.204  12.850   5.549
 2665SOL     OW 9891  13.086   8.538   2.915
 2665SOL    HW1 9892  13.157   8.499   2.864
 2665SOL    HW2 9893  13.088   8.491   2.999
 2666SOL     OW 9894   2.806   9.656   1.804
 2666SOL    HW1 9895   2.721   9.693   1.781
 2666SOL    HW2 9896   2.868   9.698   1.744
 2667SOL     OW 9897  13.906   5.602   3.862
 2667SOL    HW1 9898  13.866   5.625   3.778
 2667SOL    HW2 9899  13.990   5.562   3.839
 2668SOL     OW 9900  11.072   2.583  11.440
 2668SOL    HW1 9901  11.029   2.544  11.516
 2668SOL    HW2 9902  11.132   2.515  11.409
 2669SOL     OW 9903  14.091   1.275  10.859
 2669SOL    HW1 9904  14.171   1.223  10.863
 2669SOL    HW2 9905  14.052   1.251  10.775
 2670SOL     OW 9906   8.419  14.556   1.968
 2670SOL    HW1 9907   8.503  14.596   1.945
 2670SOL    HW2 9908   8.356  14.598   1.910
 2671SOL     OW 9909  10.543   9.216  12.246
 2671SOL    HW1 9910  10.607   9.152  12.276
 2671SOL    HW2 9911  10.570   9.298  12.287
 2672SOL     OW 9912  14.834   2.397   8.407
 2672SOL    HW1 9913  14.828   2.305   8.435
 2672SOL    HW2 9914   0.040   2.403   8.364
 2673SOL     OW 9915   4.026   8.009   2.639
 2673SOL    HW1 9916   4.113   7.996   2.677
 2673SOL    HW2 9917   3.966   7.974   2.704
 2674SOL     OW 9918   0.227   6.059   8.640
 2674SOL    HW1 9919   0.233   6.150   8.612
 2674SOL    HW2 9920   0.175   6.061   8.720
 2675SOL     OW 9921   0.226   7.796   4.970
 2675SOL    HW1 9922   0.320   7.783   4.958
 2675SOL    HW2 9923   0.217   7.826   5.060
 2676SOL     OW 9924  13.905  13.890   0.933
 2676SOL    HW1 9925  13.840  13.949   0.894
 2676SOL    HW2 9926  13.939  13.840   0.858
 2677SOL     OW 9927   6.878   8.601   9.563
 2677SOL    HW1 9928   6.899   8.689   9.592
 2677SOL    HW2 9929   6.941   8.584   9.492
 2678SOL     OW 9930   1.887  12.902   3.852
 2678SOL    HW1 9931   1.813  12.938   3.803
 2678SOL    HW2 9932   1.964  12.931   3.803
 2679SOL     OW 9933  10.117  11.161  10.279
 2679SOL    HW1 9934  10.092  11.209  10.200
 2679SOL    HW2 9935  10.185  11.216  10.319
 2680SOL     OW 9936   4.167  11.745   4.550
 2680SOL    HW1 9937   4.097  11.685   4.525
 2680SOL    HW2 9938   4.213  11.764   4.468
 2681SOL     OW 9939  13.517   4.837   4.565
 2681SOL    HW1 9940  13.438   4.802   4.605
 2681SOL    HW2 9941  13.487   4.877   4.483
 2682SOL     OW 9942   5.673   3.843   9.031
 2682SOL    HW1 9943   5.640   3.799   9.109
 2682SOL    HW2 9944   5.616   3.919   9.020
 2683SOL     OW 9945   0.362   7.279  14.686
 2683SOL    HW1 9946   0.450   7.242  14.687
 2683SOL    HW2 9947   0.308   7.211  14.727
 2684SOL     OW 9948   0.046   5.555  14.360
 2684SOL    HW1 9949   0.035   5.575  14.452
 2684SOL    HW2 9950   0.103   5.624  14.326
 2685SOL     OW 9951  13.469   3.387   5.464
 2685SOL    HW1 9952  13.470   3.481   5.446
 2685SOL    HW2 9953  13.510   3.378   5.550
 2686SOL     OW 9954   5.807   5.099   0.759
 2686SOL    HW1 9955   5.820   5.175   0.817
 2686SOL    HW2 9956   5.769   5.135   0.680
 2687SOL     OW 9957  14.743   6.450   9.435
 2687SOL    HW1 9958  14.827   6.492   9.453
 2687SOL    HW2 9959  14.697   6.511   9.378
 2688SOL     OW 9960  10.460   2.734   2.509
 2688SOL    HW1 9961  10.552   2.719   2.489
 2688SOL    HW2 9962  10.461   2.789   2.588
 2689SOL     OW 9963  11.644  14.367  14.625
 2689SOL    HW1 9964  11.671  14.303  14.691
 2689SOL    HW2 9965  11.642  14.450  14.673
 2690SOL     OW 9966  13.496   0.386   8.682
 2690SOL    HW1 9967  13.551   0.336   8.622
 2690SOL    HW2 9968  13.491   0.473   8.643
 2691SOL     OW 9969  13.528   5.347   4.077
 2691SOL    HW1 9970  13.509   5.320   3.987
 2691SOL    HW2 9971  13.583   5.425   4.068
 2692SOL     OW 9972   9.160   1.521   0.844
 2692SOL    HW1 9973   9.214   1.515   0.923
 2692SOL    HW2 9974   9.146   1.615   0.832
 2693SOL     OW 9975   4.103   6.856   8.151
 2693SOL    HW1 9976   4.171   6.824   8.093
 2693SOL    HW2 9977   4.061   6.778   8.186
 2694SOL     OW 9978   4.145  14.732  10.676
 2694SOL    HW1 9979   4.137  14.720  10.770
 2694SOL    HW2 9980   4.187  14.651  10.645
 2695SOL     OW 9981   4.300   9.857  14.537
 2695SOL    HW1 9982   4.309   9.881  14.629
 2695SOL    HW2 9983   4.317   9.763  14.535
 2696SOL     OW 9984  14.038   1.632   5.483
 2696SOL    HW1 9985  13.984   1.575   5.429
 2696SOL    HW2 9986  13.977   1.700   5.513
 2697SOL     OW 9987  10.554   4.639   0.177
 2697SOL    HW1 9988  10.589   4.643   0.266
 2697SOL    HW2 9989  10.492   4.711   0.172
 2698SOL     OW 9990   2.844  11.538   2.859
 2698SOL    HW1 9991   2.811  11.547   2.770
 2698SOL    HW2 9992   2.812  11.452   2.888
 2699SOL     OW 9993  14.504   3.138   1.628
 2699SOL    HW1 9994  14.567   3.145   1.699
 2699SOL    HW2 9995  14.479   3.045   1.626
 2700SOL     OW 9996  13.184   0.429   8.499
 2700SOL    HW1 9997  13.233   0.359   8.455
 2700SOL    HW2 9998  13.116   0.453   8.436
 2701SOL     OW 9999   9.025   6.996   4.701
 2701SOL    HW110000   8.949   7.013   4.756
 2701SOL    HW210001   8.993   6.939   4.631
 2702SOL     OW10002   1.153  13.165  14.253
 2702SOL    HW110003   1.121  13.090  14.203
 2702SOL    HW210004   1.127  13.241  14.202
 2703SOL     OW10005   3.297  14.248   5.251
 2703SOL    HW110006   3.383  14.209   5.268
 2703SOL    HW210007   3.268  14.279   5.337
 2704SOL     OW10008   8.406  12.998  14.188
 2704SOL    HW110009   8.361  12.918  14.215
 2704SOL    HW210010   8.417  13.048  14.269
 2705SOL     OW10011  10.790   6.378   2.879
 2705SOL    HW110012  10.803   6.286   2.856
 2705SOL    HW210013  10.743   6.414   2.804
 2706SOL     OW10014  10.454  14.841   7.021
 2706SOL    HW110015  10.435   0.010   6.941
 2706SOL    HW210016  10.368  14.818   7.057
 2707SOL     OW10017  11.143   5.817   9.496
 2707SOL    HW110018  11.090   5.896   9.505
 2707SOL    HW210019  11.132   5.772   9.580
 2708SOL     OW10020   7.335   4.954  14.307
 2708SOL    HW110021   7.388   4.875  14.304
 2708SOL    HW210022   7.398   5.026  14.311
 2709SOL     OW10023  13.390   3.706   4.367
 2709SOL    HW110024  13.377   3.801   4.359
 2709SOL    HW210025  13.484   3.697   4.384
 2710SOL     OW10026   3.176   1.824   5.217
 2710SOL    HW110027   3.166   1.869   5.134
 2710SOL    HW210028   3.174   1.731   5.195
 2711SOL     OW10029  13.994   9.612   8.383
 2711SOL    HW110030  14.079   9.582   8.415
 2711SOL    HW210031  14.013   9.649   8.296
 2712SOL     OW10032   3.821   8.964   8.049
 2712SOL    HW110033   3.727   8.982   8.043
 2712SOL    HW210034   3.854   9.031   8.108
 2713SOL     OW10035  12.533  13.718   0.083
 2713SOL    HW110036  12.607  13.756   0.131
 2713SOL    HW210037  12.470  13.789   0.075
 2714SOL     OW10038   8.286  10.965  14.872
 2714SOL    HW110039   8.245  11.043   0.029
 2714SOL    HW210040   8.221  10.896   0.004
 2715SOL     OW10041   3.779   7.270   2.661
 2715SOL    HW110042   3.800   7.232   2.576
 2715SOL    HW210043   3.829   7.218   2.724
 2716SOL     OW10044  10.778   9.168  12.591
 2716SOL    HW110045  10.793   9.261  12.576
 2716SOL    HW210046  10.756   9.162  12.684
 2717SOL     OW10047  14.876   6.854   9.455
 2717SOL    HW110048  14.783   6.871   9.472
 2717SOL    HW210049   0.016   6.906   9.378
 2718SOL     OW10050   4.536   2.190  13.015
 2718SOL    HW110051   4.619   2.169  12.973
 2718SOL    HW210052   4.492   2.248  12.952
 2719SOL     OW10053   1.216   8.807   8.615
 2719SOL    HW110054   1.156   8.779   8.684
 2719SOL    HW210055   1.233   8.899   8.635
 2720SOL     OW10056   3.262  11.523   2.432
 2720SOL    HW110057   3.304  11.472   2.501
 2720SOL    HW210058   3.302  11.492   2.351
 2721SOL     OW10059   9.814   9.896   2.691
 2721SOL    HW110060   9.787   9.805   2.681
 2721SOL    HW210061   9.904   9.898   2.658
 2722SOL     OW10062  14.403  12.485   3.034
 2722SOL    HW110063  14.372  12.571   3.066
 2722SOL    HW210064  14.493  12.500   3.007
 2723SOL     OW10065  12.160   2.499   5.511
 2723SOL    HW110066  12.233   2.437   5.517
 2723SOL    HW210067  12.082   2.444   5.503
 2724SOL     OW10068  13.565   6.771   2.022
 2724SOL    HW110069  13.587   6.695   1.968
 2724SOL    HW210070  13.646   6.821   2.028
 2725SOL     OW10071   1.262   7.114   1.342
 2725SOL    HW110072   1.237   7.024   1.323
 2725SOL    HW210073   1.216   7.166   1.277
 2726SOL     OW10074  13.612   1.971  12.332
 2726SOL    HW110075  13.699   2.003  12.307
 2726SOL    HW210076  13.561   2.051  12.346
 2727SOL     OW10077   9.597  11.203  10.001
 2727SOL    HW110078   9.559  11.116  10.001
 2727SOL    HW210079   9.609  11.224   9.908
 2728SOL     OW10080   5.256   3.833   6.520
 2728SOL    HW110081   5.239   3.760   6.461
 2728SOL    HW210082   5.170   3.874   6.532
 2729SOL     OW10083  12.088   7.879  10.962
 2729SOL    HW110084  12.005   7.913  10.996
 2729SOL    HW210085  12.100   7.924  10.878
 2730SOL     OW10086  10.194   4.836   3.198
 2730SOL    HW110087  10.114   4.854   3.149
 2730SOL    HW210088  10.211   4.917   3.246
 2731SOL     OW10089   7.678   2.887   3.854
 2731SOL    HW110090   7.654   2.795   3.843
 2731SOL    HW210091   7.750   2.900   3.792
 2732SOL     OW10092   0.303   3.249   3.471
 2732SOL    HW110093   0.300   3.259   3.376
 2732SOL    HW210094   0.395   3.227   3.489
 2733SOL     OW10095   0.781  14.557   6.078
 2733SOL    HW110096   0.845  14.529   6.012
 2733SOL    HW210097   0.697  14.528   6.044
 2734SOL     OW10098   0.454   2.255   5.644
 2734SOL    HW110099   0.500   2.337   5.630
 2734SOL    HW210100   0.387   2.252   5.576
 2735SOL     OW10101   3.103   1.020   5.518
 2735SOL    HW110102   3.171   0.967   5.560
 2735SOL    HW210103   3.022   0.971   5.531
 2736SOL     OW10104   6.066  13.838   7.460
 2736SOL    HW110105   6.094  13.750   7.485
 2736SOL    HW210106   6.145  13.891   7.464
 2737SOL     OW10107   5.140  11.838   9.450
 2737SOL    HW110108   5.162  11.925   9.419
 2737SOL    HW210109   5.162  11.839   9.544
 2738SOL     OW10110  10.804   5.332  10.397
 2738SOL    HW110111  10.803   5.315  10.491
 2738SOL    HW210112  10.872   5.273  10.363
 2739SOL     OW10113   3.807  11.933  14.432
 2739SOL    HW110114   3.773  11.893  14.352
 2739SOL    HW210115   3.840  11.859  14.484
 2740SOL     OW10116   1.911   5.070  11.755
 2740SOL    HW110117   1.950   5.157  11.767
 2740SOL    HW210118   1.828   5.086  11.711
 2741SOL     OW10119   3.062  10.992  11.899
 2741SOL    HW110120   3.144  11.035  11.875
 2741SOL    HW210121   3.077  10.962  11.989
 2742SOL     OW10122   1.266   5.334   7.613
 2742SOL    HW110123   1.189   5.365   7.661
 2742SOL    HW210124   1.241   5.340   7.521
 2743SOL     OW10125  13.057   8.777  10.831
 2743SOL    HW110126  13.006   8.799  10.754
 2743SOL    HW210127  13.099   8.859  10.856
 2744SOL     OW10128   8.778   0.325  12.512
 2744SOL    HW110129   8.871   0.341  12.527
 2744SOL    HW210130   8.768   0.230  12.518
 2745SOL     OW10131   5.443   0.679   0.913
 2745SOL    HW110132   5.357   0.665   0.873
 2745SOL    HW210133   5.433   0.758   0.966
 2746SOL     OW10134   9.715   5.157   3.085
 2746SOL    HW110135   9.712   5.246   3.050
 2746SOL    HW210136   9.765   5.166   3.166
 2747SOL     OW10137   9.376   2.715   4.311
 2747SOL    HW110138   9.338   2.773   4.245
 2747SOL    HW210139   9.307   2.701   4.375
 2748SOL     OW10140   9.182  10.336  14.755
 2748SOL    HW110141   9.232  10.255  14.748
 2748SOL    HW210142   9.103  10.320  14.703
 2749SOL     OW10143   4.391   0.968   4.329
 2749SOL    HW110144   4.347   1.006   4.405
 2749SOL    HW210145   4.340   0.997   4.254
 2750SOL     OW10146   4.604  14.225   9.836
 2750SOL    HW110147   4.516  14.228   9.875
 2750SOL    HW210148   4.587  14.220   9.742
 2751SOL     OW10149  14.044  11.904   6.986
 2751SOL    HW110150  14.030  11.904   6.892
 2751SOL    HW210151  14.076  11.993   7.006
 2752SOL     OW10152   7.002   5.446   0.724
 2752SOL    HW110153   6.917   5.480   0.753
 2752SOL    HW210154   7.026   5.381   0.790
 2753SOL     OW10155  11.570   4.749   9.094
 2753SOL    HW110156  11.484   4.792   9.086
 2753SOL    HW210157  11.569   4.682   9.026
 2754SOL     OW10158  11.787   6.304   9.950
 2754SOL    HW110159  11.694   6.308   9.928
 2754SOL    HW210160  11.831   6.280   9.868
 2755SOL     OW10161   6.243   3.094   2.858
 2755SOL    HW110162   6.233   3.145   2.778
 2755SOL    HW210163   6.158   3.052   2.871
 2756SOL     OW10164  10.522   3.216   3.264
 2756SOL    HW110165  10.564   3.201   3.180
 2756SOL    HW210166  10.530   3.132   3.310
 2757SOL     OW10167   5.538   1.991   1.994
 2757SOL    HW110168   5.563   1.916   1.939
 2757SOL    HW210169   5.598   1.986   2.069
 2758SOL     OW10170   9.331  13.130   5.193
 2758SOL    HW110171   9.408  13.073   5.188
 2758SOL    HW210172   9.352  13.194   5.260
 2759SOL     OW10173  10.351  12.152  10.595
 2759SOL    HW110174  10.389  12.069  10.621
 2759SOL    HW210175  10.342  12.145  10.500
 2760SOL     OW10176   5.817   5.413  14.028
 2760SOL    HW110177   5.831   5.338  13.970
 2760SOL    HW210178   5.754   5.381  14.093
 2761SOL     OW10179   5.385   8.242  14.790
 2761SOL    HW110180   5.411   8.172  14.849
 2761SOL    HW210181   5.335   8.302  14.846
 2762SOL     OW10182   4.233   8.506  11.803
 2762SOL    HW110183   4.251   8.514  11.709
 2762SOL    HW210184   4.276   8.582  11.842
 2763SOL     OW10185   7.489   0.716   3.642
 2763SOL    HW110186   7.501   0.755   3.555
 2763SOL    HW210187   7.569   0.739   3.690
 2764SOL     OW10188   3.812   6.064   5.248
 2764SOL    HW110189   3.789   6.144   5.201
 2764SOL    HW210190   3.727   6.027   5.275
 2765SOL     OW10191  12.430  14.438   0.319
 2765SOL    HW110192  12.457  14.526   0.295
 2765SOL    HW210193  12.462  14.383   0.248
 2766SOL     OW10194  12.697   5.197   6.524
 2766SOL    HW110195  12.625   5.250   6.557
 2766SOL    HW210196  12.732   5.152   6.601
 2767SOL     OW10197   5.148   5.639  13.403
 2767SOL    HW110198   5.058   5.656  13.428
 2767SOL    HW210199   5.200   5.703  13.452
 2768SOL     OW10200   5.093  14.445  10.298
 2768SOL    HW110201   5.098  14.351  10.317
 2768SOL    HW210202   5.180  14.478  10.319
 2769SOL     OW10203  11.029  11.634  12.133
 2769SOL    HW110204  11.054  11.675  12.051
 2769SOL    HW210205  10.998  11.707  12.187
 2770SOL     OW10206  14.761   5.108   3.673
 2770SOL    HW110207  14.722   5.195   3.681
 2770SOL    HW210208  14.802   5.092   3.758
 2771SOL     OW10209   1.650  12.427  14.494
 2771SOL    HW110210   1.580  12.367  14.467
 2771SOL    HW210211   1.727  12.371  14.502
 2772SOL     OW10212  12.638  10.994  10.617
 2772SOL    HW110213  12.585  11.073  10.626
 2772SOL    HW210214  12.705  11.017  10.553
 2773SOL     OW10215  12.139  12.762  14.347
 2773SOL    HW110216  12.067  12.710  14.381
 2773SOL    HW210217  12.101  12.815  14.278
 2774SOL     OW10218  12.833  12.906   5.025
 2774SOL    HW110219  12.890  12.829   5.019
 2774SOL    HW210220  12.786  12.907   4.942
 2775SOL     OW10221   5.006  11.308   6.558
 2775SOL    HW110222   5.100  11.327   6.554
 2775SOL    HW210223   4.977  11.345   6.641
 2776SOL     OW10224  10.222  14.818   4.944
 2776SOL    HW110225  10.171   0.001   4.892
 2776SOL    HW210226  10.313  14.843   4.929
 2777SOL     OW10227   2.182   6.767   1.540
 2777SOL    HW110228   2.208   6.675   1.528
 2777SOL    HW210229   2.160   6.797   1.452
 2778SOL     OW10230   0.720   4.847   4.556
 2778SOL    HW110231   0.740   4.757   4.580
 2778SOL    HW210232   0.674   4.840   4.472
 2779SOL     OW10233   2.138   5.265   1.287
 2779SOL    HW110234   2.140   5.267   1.383
 2779SOL    HW210235   2.199   5.196   1.263
 2780SOL     OW10236   5.758   4.579  14.645
 2780SOL    HW110237   5.836   4.581  14.701
 2780SOL    HW210238   5.698   4.519  14.690
 2781SOL     OW10239  13.166  13.768   3.354
 2781SOL    HW110240  13.242  13.781   3.410
 2781SOL    HW210241  13.177  13.680   3.318
 2782SOL     OW10242  14.542   7.273   4.967
 2782SOL    HW110243  14.617   7.331   4.953
 2782SOL    HW210244  14.503   7.262   4.880
 2783SOL     OW10245   8.901   3.125  10.582
 2783SOL    HW110246   8.957   3.153  10.510
 2783SOL    HW210247   8.818   3.170  10.567
 2784SOL     OW10248  13.103   6.336   5.338
 2784SOL    HW110249  13.169   6.363   5.274
 2784SOL    HW210250  13.102   6.241   5.331
 2785SOL     OW10251   4.204  11.588   8.529
 2785SOL    HW110252   4.204  11.498   8.496
 2785SOL    HW210253   4.131  11.591   8.591
 2786SOL     OW10254  14.131   8.925   1.630
 2786SOL    HW110255  14.133   9.019   1.614
 2786SOL    HW210256  14.128   8.918   1.726
 2787SOL     OW10257   4.178   7.059  12.908
 2787SOL    HW110258   4.246   6.992  12.909
 2787SOL    HW210259   4.096   7.010  12.895
 2788SOL     OW10260  13.736  13.524   0.798
 2788SOL    HW110261  13.782  13.450   0.759
 2788SOL    HW210262  13.773  13.533   0.886
 2789SOL     OW10263   6.781  13.095   2.839
 2789SOL    HW110264   6.728  13.024   2.801
 2789SOL    HW210265   6.732  13.121   2.917
 2790SOL     OW10266   8.969  14.788  12.392
 2790SOL    HW110267   8.958  14.796  12.487
 2790SOL    HW210268   8.974  14.878  12.361
 2791SOL     OW10269   9.157   8.700   8.826
 2791SOL    HW110270   9.240   8.690   8.872
 2791SOL    HW210271   9.095   8.728   8.893
 2792SOL     OW10272   6.151   5.906  13.574
 2792SOL    HW110273   6.196   5.835  13.527
 2792SOL    HW210274   6.186   5.986  13.536
 2793SOL     OW10275   3.501   9.950   0.746
 2793SOL    HW110276   3.521   9.870   0.796
 2793SOL    HW210277   3.418   9.981   0.783
 2794SOL     OW10278   8.961   6.274  13.081
 2794SOL    HW110279   8.881   6.292  13.131
 2794SOL    HW210280   9.029   6.321  13.129
 2795SOL     OW10281  11.179   6.450  14.448
 2795SOL    HW110282  11.211   6.366  14.413
 2795SOL    HW210283  11.229   6.516  14.400
 2796SOL     OW10284   4.388  12.187   2.115
 2796SOL    HW110285   4.328  12.146   2.053
 2796SOL    HW210286   4.331  12.233   2.177
 2797SOL     OW10287   2.694   6.741   8.674
 2797SOL    HW110288   2.689   6.718   8.767
 2797SOL    HW210289   2.696   6.656   8.629
 2798SOL     OW10290  13.417   6.779  11.768
 2798SOL    HW110291  13.408   6.684  11.763
 2798SOL    HW210292  13.437   6.797  11.860
 2799SOL     OW10293   5.009   4.874  13.491
 2799SOL    HW110294   5.035   4.793  13.536
 2799SOL    HW210295   4.924   4.897  13.530
 2800SOL     OW10296   3.371   6.913   6.399
 2800SOL    HW110297   3.400   6.940   6.486
 2800SOL    HW210298   3.427   6.839   6.377
 2801SOL     OW10299   2.908   7.648   1.059
 2801SOL    HW110300   2.961   7.569   1.069
 2801SOL    HW210301   2.971   7.716   1.035
 2802SOL     OW10302   0.536  14.274   9.566
 2802SOL    HW110303   0.587  14.280   9.647
 2802SOL    HW210304   0.583  14.210   9.513
 2803SOL     OW10305   6.188  13.189  11.768
 2803SOL    HW110306   6.140  13.172  11.849
 2803SOL    HW210307   6.125  13.172  11.698
 2804SOL     OW10308  10.479   3.422   1.232
 2804SOL    HW110309  10.508   3.497   1.181
 2804SOL    HW210310  10.545   3.355   1.216
 2805SOL     OW10311   1.287   9.727  10.965
 2805SOL    HW110312   1.279   9.738  11.060
 2805SOL    HW210313   1.366   9.774  10.941
 2806SOL     OW10314   2.074  12.367  10.153
 2806SOL    HW110315   1.993  12.317  10.161
 2806SOL    HW210316   2.110  12.369  10.241
 2807SOL     OW10317   3.179   0.441   4.673
 2807SOL    HW110318   3.190   0.427   4.767
 2807SOL    HW210319   3.089   0.415   4.655
 2808SOL     OW10320  11.332   6.215   1.099
 2808SOL    HW110321  11.349   6.197   1.192
 2808SOL    HW210322  11.419   6.217   1.060
 2809SOL     OW10323   3.248  10.504   0.976
 2809SOL    HW110324   3.226  10.597   0.983
 2809SOL    HW210325   3.337  10.502   0.941
 2810SOL     OW10326   2.177   7.937   0.271
 2810SOL    HW110327   2.211   8.012   0.222
 2810SOL    HW210328   2.091   7.920   0.233
 2811SOL     OW10329   0.510   8.905   5.769
 2811SOL    HW110330   0.580   8.875   5.711
 2811SOL    HW210331   0.439   8.931   5.709
 2812SOL     OW10332  13.684   7.408   2.781
 2812SOL    HW110333  13.621   7.480   2.791
 2812SOL    HW210334  13.755   7.446   2.729
 2813SOL     OW10335   9.095   1.823  10.022
 2813SOL    HW110336   9.038   1.792   9.952
 2813SOL    HW210337   9.070   1.915  10.034
 2814SOL     OW10338   0.744  13.873   9.696
 2814SOL    HW110339   0.748  13.928   9.774
 2814SOL    HW210340   0.701  13.793   9.725
 2815SOL     OW10341   4.062   1.399  13.265
 2815SOL    HW110342   4.139   1.415  13.320
 2815SOL    HW210343   4.094   1.342  13.195
 2816SOL     OW10344  11.211   0.636   0.555
 2816SOL    HW110345  11.149   0.699   0.517
 2816SOL    HW210346  11.189   0.635   0.648
 2817SOL     OW10347  11.656   7.185   6.572
 2817SOL    HW110348  11.633   7.265   6.525
 2817SOL    HW210349  11.575   7.134   6.575
 2818SOL     OW10350   2.426   0.568   8.519
 2818SOL    HW110351   2.358   0.503   8.502
 2818SOL    HW210352   2.508   0.518   8.520
 2819SOL     OW10353   6.534   9.457   4.645
 2819SOL    HW110354   6.502   9.452   4.735
 2819SOL    HW210355   6.609   9.516   4.650
 2820SOL     OW10356   7.532   8.809   4.736
 2820SOL    HW110357   7.509   8.721   4.765
 2820SOL    HW210358   7.591   8.794   4.662
 2821SOL     OW10359   8.812  14.036  10.695
 2821SOL    HW110360   8.862  14.089  10.633
 2821SOL    HW210361   8.832  13.946  10.671
 2822SOL     OW10362   1.252  10.126   0.367
 2822SOL    HW110363   1.171  10.174   0.384
 2822SOL    HW210364   1.226  10.054   0.309
 2823SOL     OW10365   0.558   1.861   8.456
 2823SOL    HW110366   0.559   1.943   8.505
 2823SOL    HW210367   0.595   1.796   8.517
 2824SOL     OW10368   8.105   0.138  13.454
 2824SOL    HW110369   8.103   0.045  13.435
 2824SOL    HW210370   8.026   0.173  13.413
 2825SOL     OW10371   7.438   3.896   0.310
 2825SOL    HW110372   7.506   3.940   0.258
 2825SOL    HW210373   7.397   3.967   0.360
 2826SOL     OW10374   3.929  13.258   0.015
 2826SOL    HW110375   3.907  13.179  14.846
 2826SOL    HW210376   3.932  13.230   0.106
 2827SOL     OW10377   8.071  11.148   7.589
 2827SOL    HW110378   8.050  11.227   7.539
 2827SOL    HW210379   8.027  11.077   7.541
 2828SOL     OW10380   7.681  11.637   6.242
 2828SOL    HW110381   7.671  11.702   6.173
 2828SOL    HW210382   7.730  11.566   6.202
 2829SOL     OW10383  10.899   7.748   3.112
 2829SOL    HW110384  10.875   7.797   3.191
 2829SOL    HW210385  10.979   7.791   3.081
 2830SOL     OW10386  13.103   6.339   5.898
 2830SOL    HW110387  13.151   6.351   5.816
 2830SOL    HW210388  13.011   6.333   5.870
 2831SOL     OW10389   3.665  11.276   4.202
 2831SOL    HW110390   3.733  11.213   4.177
 2831SOL    HW210391   3.598  11.266   4.134
 2832SOL     OW10392   9.512  14.550  11.277
 2832SOL    HW110393   9.589  14.513  11.320
 2832SOL    HW210394   9.461  14.474  11.249
 2833SOL     OW10395  13.286   4.444   1.875
 2833SOL    HW110396  13.332   4.399   1.804
 2833SOL    HW210397  13.257   4.374   1.934
 2834SOL     OW10398   6.303   9.858  13.615
 2834SOL    HW110399   6.298   9.788  13.679
 2834SOL    HW210400   6.286   9.938  13.665
 2835SOL     OW10401  14.767  10.364   6.667
 2835SOL    HW110402  14.842  10.334   6.615
 2835SOL    HW210403  14.780  10.458   6.677
 2836SOL     OW10404  13.121   5.077   0.150
 2836SOL    HW110405  13.092   5.124   0.228
 2836SOL    HW210406  13.048   5.086   0.088
 2837SOL     OW10407   6.877   2.881  13.617
 2837SOL    HW110408   6.959   2.849  13.579
 2837SOL    HW210409   6.889   2.976  13.623
 2838SOL     OW10410  14.580   9.100   0.992
 2838SOL    HW110411  14.654   9.040   0.997
 2838SOL    HW210412  14.619   9.184   0.968
 2839SOL     OW10413   5.525  14.484   2.206
 2839SOL    HW110414   5.604  14.531   2.182
 2839SOL    HW210415   5.481  14.469   2.122
 2840SOL     OW10416   1.253   5.940  11.020
 2840SOL    HW110417   1.329   5.919  10.967
 2840SOL    HW210418   1.255   6.035  11.030
 2841SOL     OW10419  13.395   2.857   2.297
 2841SOL    HW110420  13.487   2.882   2.291
 2841SOL    HW210421  13.358   2.877   2.211
 2842SOL     OW10422  12.615  13.387   5.406
 2842SOL    HW110423  12.539  13.420   5.454
 2842SOL    HW210424  12.620  13.443   5.328
 2843SOL     OW10425   1.445   0.735  12.656
 2843SOL    HW110426   1.425   0.822  12.621
 2843SOL    HW210427   1.364   0.708  12.699
 2844SOL     OW10428   8.064   4.785  14.603
 2844SOL    HW110429   8.083   4.769  14.511
 2844SOL    HW210430   8.123   4.857  14.628
 2845SOL     OW10431   9.155   6.235   4.291
 2845SOL    HW110432   9.098   6.248   4.215
 2845SOL    HW210433   9.103   6.264   4.366
 2846SOL     OW10434   7.223   4.406  11.471
 2846SOL    HW110435   7.196   4.316  11.453
 2846SOL    HW210436   7.251   4.440  11.386
 2847SOL     OW10437   4.676   6.911   3.180
 2847SOL    HW110438   4.759   6.924   3.134
 2847SOL    HW210439   4.656   6.819   3.167
 2848SOL     OW10440  12.722  11.178   3.741
 2848SOL    HW110441  12.747  11.096   3.698
 2848SOL    HW210442  12.751  11.247   3.681
 2849SOL     OW10443   9.094  13.772  13.550
 2849SOL    HW110444   9.060  13.691  13.589
 2849SOL    HW210445   9.028  13.797  13.485
 2850SOL     OW10446  13.451   4.164  11.225
 2850SOL    HW110447  13.375   4.135  11.175
 2850SOL    HW210448  13.481   4.086  11.271
 2851SOL     OW10449  10.569   2.968   8.015
 2851SOL    HW110450  10.657   2.931   8.028
 2851SOL    HW210451  10.557   3.027   8.090
 2852SOL     OW10452   0.993  13.572  12.196
 2852SOL    HW110453   0.982  13.502  12.132
 2852SOL    HW210454   1.047  13.534  12.265
 2853SOL     OW10455  12.993   9.373   6.671
 2853SOL    HW110456  13.050   9.432   6.621
 2853SOL    HW210457  12.980   9.418   6.755
 2854SOL     OW10458   2.969   2.555   5.620
 2854SOL    HW110459   3.036   2.531   5.684
 2854SOL    HW210460   3.006   2.529   5.536
 2855SOL     OW10461   6.438   3.618   6.492
 2855SOL    HW110462   6.520   3.634   6.537
 2855SOL    HW210463   6.397   3.704   6.485
 2856SOL     OW10464  11.533   6.520  10.623
 2856SOL    HW110465  11.579   6.521  10.539
 2856SOL    HW210466  11.450   6.477  10.604
 2857SOL     OW10467   3.853   6.832  12.441
 2857SOL    HW110468   3.853   6.742  12.476
 2857SOL    HW210469   3.771   6.839  12.393
 2858SOL     OW10470  10.037  13.145   7.498
 2858SOL    HW110471  10.073  13.226   7.461
 2858SOL    HW210472  10.108  13.110   7.552
 2859SOL     OW10473  14.369   4.858  12.680
 2859SOL    HW110474  14.448   4.809  12.659
 2859SOL    HW210475  14.310   4.794  12.719
 2860SOL     OW10476   7.281   0.547   9.002
 2860SOL    HW110477   7.279   0.454   8.981
 2860SOL    HW210478   7.261   0.550   9.096
 2861SOL     OW10479   9.748   2.513   3.065
 2861SOL    HW110480   9.795   2.449   3.012
 2861SOL    HW210481   9.751   2.477   3.154
 2862SOL     OW10482   6.173  13.358  14.139
 2862SOL    HW110483   6.233  13.344  14.066
 2862SOL    HW210484   6.190  13.448  14.168
 2863SOL     OW10485  14.862   6.467   8.678
 2863SOL    HW110486  14.865   6.539   8.742
 2863SOL    HW210487  14.777   6.478   8.635
 2864SOL     OW10488  12.624   3.443   4.460
 2864SOL    HW110489  12.685   3.423   4.389
 2864SOL    HW210490  12.537   3.428   4.423
 2865SOL     OW10491   4.938   9.477   2.456
 2865SOL    HW110492   4.948   9.539   2.384
 2865SOL    HW210493   4.964   9.527   2.534
 2866SOL     OW10494   0.976  13.884  12.787
 2866SOL    HW110495   1.015  13.969  12.809
 2866SOL    HW210496   0.974  13.883  12.691
 2867SOL     OW10497  13.172   3.426  12.671
 2867SOL    HW110498  13.265   3.443  12.657
 2867SOL    HW210499  13.158   3.338  12.637
 2868SOL     OW10500  10.855  12.028   8.854
 2868SOL    HW110501  10.922  11.965   8.829
 2868SOL    HW210502  10.786  11.976   8.895
 2869SOL     OW10503  12.456   4.659   0.769
 2869SOL    HW110504  12.378   4.625   0.726
 2869SOL    HW210505  12.510   4.582   0.786
 2870SOL     OW10506  14.076  10.052   7.574
 2870SOL    HW110507  14.058   9.958   7.585
 2870SOL    HW210508  14.107  10.081   7.660
 2871SOL     OW10509   5.026  14.415   0.693
 2871SOL    HW110510   5.061  14.343   0.641
 2871SOL    HW210511   4.931  14.407   0.685
 2872SOL     OW10512   9.577   7.514   1.263
 2872SOL    HW110513   9.609   7.441   1.317
 2872SOL    HW210514   9.500   7.479   1.218
 2873SOL     OW10515   0.211  10.467  12.249
 2873SOL    HW110516   0.203  10.398  12.315
 2873SOL    HW210517   0.256  10.538  12.295
 2874SOL     OW10518  14.782   6.185   2.658
 2874SOL    HW110519  14.873   6.202   2.636
 2874SOL    HW210520  14.742   6.158   2.575
 2875SOL     OW10521  13.782  11.073   7.417
 2875SOL    HW110522  13.812  11.106   7.502
 2875SOL    HW210523  13.836  11.118   7.353
 2876SOL     OW10524  13.111   1.033   2.832
 2876SOL    HW110525  13.167   0.995   2.900
 2876SOL    HW210526  13.134   1.126   2.831
 2877SOL     OW10527  14.582   1.858  11.466
 2877SOL    HW110528  14.626   1.827  11.387
 2877SOL    HW210529  14.499   1.810  11.467
 2878SOL     OW10530  12.951   1.518  14.083
 2878SOL    HW110531  12.970   1.510  13.990
 2878SOL    HW210532  12.872   1.573  14.087
 2879SOL     OW10533   1.012   1.834   4.408
 2879SOL    HW110534   0.937   1.884   4.440
 2879SOL    HW210535   0.975   1.771   4.347
 2880SOL     OW10536   0.065  14.477  13.676
 2880SOL    HW110537   0.034  14.387  13.687
 2880SOL    HW210538   0.160  14.468  13.665
 2881SOL     OW10539  10.535  11.172   9.938
 2881SOL    HW110540  10.511  11.090   9.894
 2881SOL    HW210541  10.607  11.147   9.997
 2882SOL     OW10542  11.193   1.457   4.682
 2882SOL    HW110543  11.227   1.486   4.597
 2882SOL    HW210544  11.211   1.531   4.741
 2883SOL     OW10545  11.100   2.388  14.109
 2883SOL    HW110546  11.082   2.324  14.178
 2883SOL    HW210547  11.016   2.432  14.096
 2884SOL     OW10548   6.864  13.628   6.684
 2884SOL    HW110549   6.899  13.680   6.757
 2884SOL    HW210550   6.797  13.683   6.645
 2885SOL     OW10551   5.351   7.876  14.871
 2885SOL    HW110552   5.409   7.802   0.008
 2885SOL    HW210553   5.394   7.951   0.033
 2886SOL     OW10554   5.727   4.725   5.164
 2886SOL    HW110555   5.805   4.746   5.215
 2886SOL    HW210556   5.760   4.694   5.081
 2887SOL     OW10557   3.977   8.536  13.896
 2887SOL    HW110558   3.883   8.554  13.893
 2887SOL    HW210559   4.018   8.619  13.871
 2888SOL     OW10560   9.727   3.760   3.333
 2888SOL    HW110561   9.701   3.681   3.286
 2888SOL    HW210562   9.695   3.832   3.278
 2889SOL     OW10563  14.228   9.697   5.558
 2889SOL    HW110564  14.181   9.745   5.626
 2889SOL    HW210565  14.304   9.659   5.602
 2890SOL     OW10566   7.521   5.362  14.587
 2890SOL    HW110567   7.436   5.327  14.561
 2890SOL    HW210568   7.530   5.443  14.537
 2891SOL     OW10569   1.613   3.594   2.373
 2891SOL    HW110570   1.678   3.543   2.422
 2891SOL    HW210571   1.642   3.685   2.382
 2892SOL     OW10572  14.426   0.826  10.182
 2892SOL    HW110573  14.451   0.879  10.257
 2892SOL    HW210574  14.365   0.761  10.218
 2893SOL     OW10575   8.957   5.045  14.695
 2893SOL    HW110576   8.981   5.137  14.688
 2893SOL    HW210577   9.041   4.998  14.693
 2894SOL     OW10578  10.607   1.821   5.936
 2894SOL    HW110579  10.695   1.848   5.962
 2894SOL    HW210580  10.621   1.768   5.858
 2895SOL     OW10581   3.330   3.732   6.016
 2895SOL    HW110582   3.329   3.740   6.111
 2895SOL    HW210583   3.350   3.820   5.984
 2896SOL     OW10584   2.861   5.194  14.321
 2896SOL    HW110585   2.820   5.222  14.403
 2896SOL    HW210586   2.910   5.270  14.292
 2897SOL     OW10587   3.984   9.838  13.264
 2897SOL    HW110588   4.062   9.853  13.211
 2897SOL    HW210589   3.911   9.858  13.205
 2898SOL     OW10590   8.941   2.193  13.322
 2898SOL    HW110591   8.913   2.259  13.260
 2898SOL    HW210592   8.881   2.119  13.307
 2899SOL     OW10593   5.766  12.678   9.961
 2899SOL    HW110594   5.800  12.629  10.037
 2899SOL    HW210595   5.824  12.653   9.889
 2900SOL     OW10596   8.442   8.204   4.485
 2900SOL    HW110597   8.450   8.123   4.535
 2900SOL    HW210598   8.363   8.192   4.432
 2901SOL     OW10599   0.836   3.075  12.035
 2901SOL    HW110600   0.869   3.046  12.120
 2901SOL    HW210601   0.866   3.007  11.974
 2902SOL     OW10602  13.931   8.633   1.205
 2902SOL    HW110603  13.999   8.595   1.149
 2902SOL    HW210604  13.978   8.661   1.284
 2903SOL     OW10605   0.449  13.751   5.775
 2903SOL    HW110606   0.400  13.719   5.851
 2903SOL    HW210607   0.539  13.760   5.807
 2904SOL     OW10608   3.809  10.685   9.505
 2904SOL    HW110609   3.716  10.677   9.528
 2904SOL    HW210610   3.856  10.648   9.579
 2905SOL     OW10611  13.451  11.788   0.259
 2905SOL    HW110612  13.508  11.832   0.322
 2905SOL    HW210613  13.497  11.706   0.238
 2906SOL     OW10614  12.783  12.232  13.672
 2906SOL    HW110615  12.808  12.168  13.606
 2906SOL    HW210616  12.823  12.314  13.642
 2907SOL     OW10617  14.380   6.896  12.347
 2907SOL    HW110618  14.404   6.853  12.429
 2907SOL    HW210619  14.462   6.908  12.300
 2908SOL     OW10620  10.533   1.595   3.627
 2908SOL    HW110621  10.501   1.656   3.694
 2908SOL    HW210622  10.573   1.524   3.677
 2909SOL     OW10623   2.455   6.413   6.143
 2909SOL    HW110624   2.381   6.352   6.145
 2909SOL    HW210625   2.423   6.487   6.090
 2910SOL     OW10626   6.808   3.742   2.979
 2910SOL    HW110627   6.736   3.706   3.031
 2910SOL    HW210628   6.776   3.828   2.951
 2911SOL     OW10629  10.935   2.914   1.923
 2911SOL    HW110630  10.936   2.941   1.831
 2911SOL    HW210631  10.864   2.964   1.963
 2912SOL     OW10632   1.543  13.040  12.698
 2912SOL    HW110633   1.538  12.949  12.670
 2912SOL    HW210634   1.627  13.047  12.744
 2913SOL     OW10635   8.483   1.797  13.267
 2913SOL    HW110636   8.427   1.733  13.311
 2913SOL    HW210637   8.427   1.833  13.197
 2914SOL     OW10638   3.935  10.007   8.741
 2914SOL    HW110639   3.901  10.091   8.773
 2914SOL    HW210640   4.026  10.006   8.769
 2915SOL     OW10641   3.355   4.781   0.287
 2915SOL    HW110642   3.332   4.868   0.321
 2915SOL    HW210643   3.422   4.798   0.221
 2916SOL     OW10644   5.104   5.086   3.446
 2916SOL    HW110645   5.145   5.096   3.531
 2916SOL    HW210646   5.159   5.136   3.386
 2917SOL     OW10647   0.768   7.067  11.021
 2917SOL    HW110648   0.780   7.155  11.057
 2917SOL    HW210649   0.841   7.056  10.960
 2918SOL     OW10650   5.946   4.413   4.954
 2918SOL    HW110651   6.021   4.384   4.902
 2918SOL    HW210652   5.916   4.333   4.998
 2919SOL     OW10653   7.812   6.149   6.773
 2919SOL    HW110654   7.769   6.221   6.728
 2919SOL    HW210655   7.905   6.160   6.752
 2920SOL     OW10656   6.273   6.890  12.201
 2920SOL    HW110657   6.208   6.955  12.229
 2920SOL    HW210658   6.235   6.806  12.224
 2921SOL     OW10659   1.352   9.873   9.010
 2921SOL    HW110660   1.299   9.906   9.082
 2921SOL    HW210661   1.442   9.895   9.035
 2922SOL     OW10662   8.339   3.840   1.458
 2922SOL    HW110663   8.354   3.890   1.378
 2922SOL    HW210664   8.296   3.902   1.517
 2923SOL     OW10665   3.905   6.607   2.655
 2923SOL    HW110666   3.852   6.676   2.615
 2923SOL    HW210667   3.950   6.565   2.582
 2924SOL     OW10668   5.452   6.128   4.721
 2924SOL    HW110669   5.433   6.173   4.639
 2924SOL    HW210670   5.492   6.045   4.694
 2925SOL     OW10671   4.155  12.960   1.027
 2925SOL    HW110672   4.067  12.991   1.047
 2925SOL    HW210673   4.168  12.980   0.934
 2926SOL     OW10674   4.179  13.995  12.413
 2926SOL    HW110675   4.166  13.951  12.496
 2926SOL    HW210676   4.145  14.084  12.426
 2927SOL     OW10677   7.401  11.967  14.409
 2927SOL    HW110678   7.308  11.969  14.384
 2927SOL    HW210679   7.447  11.937  14.331
 2928SOL     OW10680   8.564   4.664   4.573
 2928SOL    HW110681   8.472   4.690   4.566
 2928SOL    HW210682   8.588   4.637   4.484
 2929SOL     OW10683  11.063   1.057   1.043
 2929SOL    HW110684  11.075   1.092   1.132
 2929SOL    HW210685  10.992   0.994   1.052
 2930SOL     OW10686  14.362  12.124   4.412
 2930SOL    HW110687  14.292  12.062   4.391
 2930SOL    HW210688  14.345  12.199   4.355
 2931SOL     OW10689   1.974   1.363  10.445
 2931SOL    HW110690   1.941   1.275  10.426
 2931SOL    HW210691   2.002   1.359  10.536
 2932SOL     OW10692   3.683  10.484   6.573
 2932SOL    HW110693   3.642  10.553   6.522
 2932SOL    HW210694   3.656  10.403   6.530
 2933SOL     OW10695  13.047   6.456   4.887
 2933SOL    HW110696  13.049   6.535   4.941
 2933SOL    HW210697  12.971   6.407   4.919
 2934SOL     OW10698   8.732   4.408  10.326
 2934SOL    HW110699   8.766   4.440  10.243
 2934SOL    HW210700   8.646   4.450  10.334
 2935SOL     OW10701  13.732   0.670  12.721
 2935SOL    HW110702  13.793   0.735  12.687
 2935SOL    HW210703  13.665   0.721  12.766
 2936SOL     OW10704   9.179   7.888   4.613
 2936SOL    HW110705   9.137   7.969   4.641
 2936SOL    HW210706   9.112   7.820   4.625
 2937SOL     OW10707   4.277   3.811   5.245
 2937SOL    HW110708   4.259   3.717   5.249
 2937SOL    HW210709   4.201   3.852   5.287
 2938SOL     OW10710   5.623   3.068   9.587
 2938SOL    HW110711   5.561   3.140   9.578
 2938SOL    HW210712   5.618   3.021   9.504
 2939SOL     OW10713   4.961   6.095  13.253
 2939SOL    HW110714   4.958   6.005  13.219
 2939SOL    HW210715   4.947   6.085  13.347
 2940SOL     OW10716  11.018   4.479   7.017
 2940SOL    HW110717  11.026   4.385   7.036
 2940SOL    HW210718  11.098   4.517   7.051
 2941SOL     OW10719  11.067   1.044   7.602
 2941SOL    HW110720  11.004   1.101   7.645
 2941SOL    HW210721  11.042   1.046   7.509
 2942SOL     OW10722   5.532   1.486   7.277
 2942SOL    HW110723   5.537   1.562   7.335
 2942SOL    HW210724   5.623   1.465   7.256
 2943SOL     OW10725  11.597   4.483   1.582
 2943SOL    HW110726  11.608   4.422   1.508
 2943SOL    HW210727  11.533   4.547   1.550
 2944SOL     OW10728  14.713   9.191  10.492
 2944SOL    HW110729  14.777   9.190  10.563
 2944SOL    HW210730  14.763   9.171  10.413
 2945SOL     OW10731   4.907   5.552   3.324
 2945SOL    HW110732   4.845   5.604   3.375
 2945SOL    HW210733   4.966   5.515   3.390
 2946SOL     OW10734   0.781   0.144   9.938
 2946SOL    HW110735   0.799   0.238   9.927
 2946SOL    HW210736   0.809   0.125  10.027
 2947SOL     OW10737   0.304  13.794   3.314
 2947SOL    HW110738   0.398  13.775   3.315
 2947SOL    HW210739   0.280  13.803   3.406
 2948SOL     OW10740  11.655   2.877  14.770
 2948SOL    HW110741  11.598   2.953  14.770
 2948SOL    HW210742  11.607   2.811  14.819
 2949SOL     OW10743  10.703   4.055   2.942
 2949SOL    HW110744  10.614   4.019   2.951
 2949SOL    HW210745  10.742   4.044   3.029
 2950SOL     OW10746  11.308   4.812   9.110
 2950SOL    HW110747  11.222   4.819   9.069
 2950SOL    HW210748  11.309   4.882   9.176
 2951SOL     OW10749  11.158   7.569   4.759
 2951SOL    HW110750  11.250   7.547   4.745
 2951SOL    HW210751  11.117   7.486   4.784
 2952SOL     OW10752   3.710  12.854  14.418
 2952SOL    HW110753   3.787  12.844  14.474
 2952SOL    HW210754   3.693  12.948  14.418
 2953SOL     OW10755  10.463   4.210   1.953
 2953SOL    HW110756  10.508   4.222   2.037
 2953SOL    HW210757  10.507   4.135   1.912
 2954SOL     OW10758   2.090   4.409   3.035
 2954SOL    HW110759   2.080   4.466   3.112
 2954SOL    HW210760   2.146   4.338   3.065
 2955SOL     OW10761   7.961  14.373   6.680
 2955SOL    HW110762   7.897  14.441   6.700
 2955SOL    HW210763   8.039  14.399   6.728
 2956SOL     OW10764  11.390   3.034   1.472
 2956SOL    HW110765  11.413   3.031   1.565
 2956SOL    HW210766  11.464   2.995   1.427
 2957SOL     OW10767   4.476  11.429  14.417
 2957SOL    HW110768   4.515  11.514  14.438
 2957SOL    HW210769   4.520  11.401  14.337
 2958SOL     OW10770   2.776  11.494   2.593
 2958SOL    HW110771   2.713  11.565   2.579
 2958SOL    HW210772   2.854  11.523   2.547
 2959SOL     OW10773  13.376  13.592   4.600
 2959SOL    HW110774  13.375  13.555   4.512
 2959SOL    HW210775  13.406  13.682   4.588
 2960SOL     OW10776   2.774  10.622   0.644
 2960SOL    HW110777   2.863  10.628   0.607
 2960SOL    HW210778   2.770  10.534   0.681
 2961SOL     OW10779  11.305   0.688   5.279
 2961SOL    HW110780  11.240   0.618   5.284
 2961SOL    HW210781  11.265   0.761   5.327
 2962SOL     OW10782  11.569   7.250  13.976
 2962SOL    HW110783  11.531   7.271  14.061
 2962SOL    HW210784  11.604   7.162  13.986
 2963SOL     OW10785   4.781  14.442   0.577
 2963SOL    HW110786   4.704  14.398   0.614
 2963SOL    HW210787   4.746  14.522   0.537
 2964SOL     OW10788   0.467  11.460   5.763
 2964SOL    HW110789   0.382  11.429   5.733
 2964SOL    HW210790   0.464  11.450   5.858
 2965SOL     OW10791   9.855   1.898   9.376
 2965SOL    HW110792   9.942   1.872   9.407
 2965SOL    HW210793   9.799   1.822   9.396
 2966SOL     OW10794   5.099   6.687   3.781
 2966SOL    HW110795   5.150   6.764   3.756
 2966SOL    HW210796   5.140   6.614   3.733
 2967SOL     OW10797   7.984   3.708  12.273
 2967SOL    HW110798   8.024   3.794  12.289
 2967SOL    HW210799   7.894   3.718  12.303
 2968SOL     OW10800  14.794   3.076  14.429
 2968SOL    HW110801  14.839   3.007  14.478
 2968SOL    HW210802  14.818   3.157  14.474
 2969SOL     OW10803   1.952   3.348  11.001
 2969SOL    HW110804   1.875   3.293  10.985
 2969SOL    HW210805   2.018   3.287  11.034
 2970SOL     OW10806   0.391  12.022  12.377
 2970SOL    HW110807   0.336  11.985  12.446
 2970SOL    HW210808   0.357  12.110  12.363
 2971SOL     OW10809   8.775  13.774   2.891
 2971SOL    HW110810   8.780  13.846   2.828
 2971SOL    HW210811   8.697  13.725   2.865
 2972SOL     OW10812  14.707  13.864  12.613
 2972SOL    HW110813  14.749  13.828  12.691
 2972SOL    HW210814  14.725  13.958  12.618
 2973SOL     OW10815   1.915   9.501   9.462
 2973SOL    HW110816   1.907   9.459   9.547
 2973SOL    HW210817   1.857   9.577   9.467
 2974SOL     OW10818   5.004   8.967   6.902
 2974SOL    HW110819   4.991   8.879   6.865
 2974SOL    HW210820   4.916   9.000   6.917
 2975SOL     OW10821   5.905   1.224   1.461
 2975SOL    HW110822   5.909   1.312   1.423
 2975SOL    HW210823   5.817   1.193   1.440
 2976SOL     OW10824  12.899   8.587   2.738
 2976SOL    HW110825  12.971   8.571   2.799
 2976SOL    HW210826  12.908   8.517   2.673
 2977SOL     OW10827   2.461  11.197   7.351
 2977SOL    HW110828   2.465  11.103   7.373
 2977SOL    HW210829   2.393  11.232   7.408
 2978SOL     OW10830   0.536   2.587   1.908
 2978SOL    HW110831   0.512   2.550   1.994
 2978SOL    HW210832   0.611   2.535   1.880
 2979SOL     OW10833  11.013  12.761   0.486
 2979SOL    HW110834  11.024  12.676   0.528
 2979SOL    HW210835  11.050  12.823   0.549
 2980SOL     OW10836   6.777   0.122  10.915
 2980SOL    HW110837   6.791   0.146  10.824
 2980SOL    HW210838   6.682   0.127  10.927
 2981SOL     OW10839   5.892   6.710   5.835
 2981SOL    HW110840   5.844   6.644   5.886
 2981SOL    HW210841   5.824   6.760   5.790
 2982SOL     OW10842  13.898   2.818   9.139
 2982SOL    HW110843  13.866   2.772   9.062
 2982SOL    HW210844  13.833   2.887   9.154
 2983SOL     OW10845   4.901  10.943  10.271
 2983SOL    HW110846   4.943  10.962  10.355
 2983SOL    HW210847   4.823  10.998  10.270
 2984SOL     OW10848   1.706  12.762   4.347
 2984SOL    HW110849   1.695  12.714   4.429
 2984SOL    HW210850   1.767  12.708   4.296
 2985SOL     OW10851   4.748  10.925   0.620
 2985SOL    HW110852   4.667  10.918   0.570
 2985SOL    HW210853   4.727  10.986   0.691
 2986SOL     OW10854  10.705  10.356  10.718
 2986SOL    HW110855  10.738  10.291  10.656
 2986SOL    HW210856  10.750  10.437  10.695
 2987SOL     OW10857   1.461   6.803   3.615
 2987SOL    HW110858   1.462   6.817   3.520
 2987SOL    HW210859   1.481   6.889   3.652
 2988SOL     OW10860   3.083   1.298   0.302
 2988SOL    HW110861   3.164   1.254   0.328
 2988SOL    HW210862   3.093   1.387   0.336
 2989SOL     OW10863   0.827   2.032   4.277
 2989SOL    HW110864   0.788   2.003   4.359
 2989SOL    HW210865   0.911   2.070   4.302
 2990SOL     OW10866   0.203   9.217   7.828
 2990SOL    HW110867   0.154   9.299   7.829
 2990SOL    HW210868   0.153   9.158   7.884
 2991SOL     OW10869   5.567   2.879   1.304
 2991SOL    HW110870   5.614   2.873   1.387
 2991SOL    HW210871   5.528   2.967   1.304
 2992SOL     OW10872   7.183   3.095   7.421
 2992SOL    HW110873   7.116   3.146   7.375
 2992SOL    HW210874   7.259   3.153   7.424
 2993SOL     OW10875   4.832  14.512  12.595
 2993SOL    HW110876   4.792  14.425  12.596
 2993SOL    HW210877   4.759  14.572  12.581
 2994SOL     OW10878   7.171  12.668   2.021
 2994SOL    HW110879   7.163  12.582   2.061
 2994SOL    HW210880   7.150  12.654   1.929
 2995SOL     OW10881  13.195   7.587  13.689
 2995SOL    HW110882  13.238   7.524  13.631
 2995SOL    HW210883  13.122   7.622  13.638
 2996SOL     OW10884  11.531   9.083  13.112
 2996SOL    HW110885  11.525   9.173  13.080
 2996SOL    HW210886  11.518   9.089  13.207
 2997SOL     OW10887  12.747   6.248   3.936
 2997SOL    HW110888  12.652   6.258   3.935
 2997SOL    HW210889  12.776   6.288   3.854
 2998SOL     OW10890  11.843   0.666   4.366
 2998SOL    HW110891  11.907   0.666   4.438
 2998SOL    HW210892  11.766   0.625   4.404
 2999SOL     OW10893   1.418  11.248  12.325
 2999SOL    HW110894   1.468  11.243  12.243
 2999SOL    HW210895   1.366  11.328  12.316
 3000SOL     OW10896  13.882   7.040   5.562
 3000SOL    HW110897  13.806   7.075   5.608
 3000SOL    HW210898  13.860   7.047   5.469
 3001SOL     OW10899  13.764   6.340  14.876
 3001SOL    HW110900  13.849   6.317   0.036
 3001SOL    HW210901  13.756   6.435   0.011
 3002SOL     OW10902   0.889   4.252  12.648
 3002SOL    HW110903   0.967   4.292  12.687
 3002SOL    HW210904   0.815   4.293  12.693
 3003SOL     OW10905   5.134  10.285   3.783
 3003SOL    HW110906   5.113  10.221   3.851
 3003SOL    HW210907   5.219  10.320   3.808
 3004SOL     OW10908   3.489   3.332   7.790
 3004SOL    HW110909   3.444   3.283   7.721
 3004SOL    HW210910   3.420   3.386   7.829
 3005SOL     OW10911   1.411  11.666  11.881
 3005SOL    HW110912   1.446  11.603  11.944
 3005SOL    HW210913   1.420  11.751  11.925
 3006SOL     OW10914  10.312  14.286  12.930
 3006SOL    HW110915  10.365  14.343  12.874
 3006SOL    HW210916  10.222  14.297  12.898
 3007SOL     OW10917  11.844  14.834   1.839
 3007SOL    HW110918  11.773   0.016   1.856
 3007SOL    HW210919  11.837  14.815   1.745
 3008SOL     OW10920   1.665  14.694  13.207
 3008SOL    HW110921   1.642  14.763  13.269
 3008SOL    HW210922   1.700  14.741  13.131
 3009SOL     OW10923   8.314   9.916   4.839
 3009SOL    HW110924   8.335   9.947   4.751
 3009SOL    HW210925   8.245   9.850   4.825
 3010SOL     OW10926  13.356   1.666  14.750
 3010SOL    HW110927  13.370   1.672  14.844
 3010SOL    HW210928  13.287   1.730  14.732
 3011SOL     OW10929   9.198   6.467   7.745
 3011SOL    HW110930   9.260   6.473   7.817
 3011SOL    HW210931   9.116   6.502   7.780
 3012SOL     OW10932   8.237   5.934  14.234
 3012SOL    HW110933   8.156   5.958  14.190
 3012SOL    HW210934   8.211   5.870  14.300
 3013SOL     OW10935   7.439   0.667   9.694
 3013SOL    HW110936   7.529   0.635   9.698
 3013SOL    HW210937   7.447   0.758   9.665
 3014SOL     OW10938   1.827   8.101  10.817
 3014SOL    HW110939   1.859   8.014  10.844
 3014SOL    HW210940   1.901   8.139  10.769
 3015SOL     OW10941   5.404   5.245   0.636
 3015SOL    HW110942   5.414   5.324   0.689
 3015SOL    HW210943   5.426   5.174   0.695
 3016SOL     OW10944  10.800   9.959   1.303
 3016SOL    HW110945  10.882   9.910   1.299
 3016SOL    HW210946  10.746   9.923   1.233
 3017SOL     OW10947  12.153  13.839  11.021
 3017SOL    HW110948  12.226  13.900  11.012
 3017SOL    HW210949  12.123  13.851  11.112
 3018SOL     OW10950   9.044  12.380   5.365
 3018SOL    HW110951   8.949  12.367   5.368
 3018SOL    HW210952   9.077  12.305   5.316
 3019SOL     OW10953   8.785   4.138   1.129
 3019SOL    HW110954   8.749   4.067   1.181
 3019SOL    HW210955   8.871   4.107   1.102
 3020SOL     OW10956  13.243  12.738   1.629
 3020SOL    HW110957  13.276  12.807   1.571
 3020SOL    HW210958  13.301  12.741   1.705
 3021SOL     OW10959   9.671   0.273   9.785
 3021SOL    HW110960   9.742   0.324   9.747
 3021SOL    HW210961   9.714   0.201   9.830
 3022SOL     OW10962   2.189   7.610   5.063
 3022SOL    HW110963   2.236   7.680   5.108
 3022SOL    HW210964   2.108   7.652   5.033
 3023SOL     OW10965   2.401  13.382  14.751
 3023SOL    HW110966   2.400  13.381  14.847
 3023SOL    HW210967   2.468  13.318  14.727
 3024SOL     OW10968  10.932   2.655   6.434
 3024SOL    HW110969  10.864   2.596   6.403
 3024SOL    HW210970  10.978   2.606   6.503
 3025SOL     OW10971   6.148  10.680   6.887
 3025SOL    HW110972   6.088  10.610   6.912
 3025SOL    HW210973   6.110  10.759   6.927
 3026SOL     OW10974   8.197   2.260   6.759
 3026SOL    HW110975   8.166   2.332   6.814
 3026SOL    HW210976   8.217   2.190   6.821
 3027SOL     OW10977   8.770   9.904  14.615
 3027SOL    HW110978   8.783   9.841  14.686
 3027SOL    HW210979   8.675   9.913  14.607
 3028SOL     OW10980  13.886   9.143   0.400
 3028SOL    HW110981  13.865   9.053   0.375
 3028SOL    HW210982  13.970   9.161   0.358
 3029SOL     OW10983   5.238   7.938   1.242
 3029SOL    HW110984   5.291   7.994   1.299
 3029SOL    HW210985   5.262   7.965   1.153
 3030SOL     OW10986   4.693   3.894   4.580
 3030SOL    HW110987   4.608   3.927   4.550
 3030SOL    HW210988   4.729   3.849   4.504
 3031SOL     OW10989   1.795   7.175   4.750
 3031SOL    HW110990   1.874   7.123   4.770
 3031SOL    HW210991   1.772   7.217   4.833
 3032SOL     OW10992   7.293   8.281  10.225
 3032SOL    HW110993   7.349   8.353  10.255
 3032SOL    HW210994   7.352   8.206  10.217
 3033SOL     OW10995   1.979   2.548   7.664
 3033SOL    HW110996   2.015   2.507   7.742
 3033SOL    HW210997   1.884   2.534   7.670
 3034SOL     OW10998   5.399   5.795   7.442
 3034SOL    HW110999   5.364   5.876   7.406
 3034SOL    HW211000   5.491   5.795   7.418
 3035SOL     OW11001  12.900   8.112   6.262
 3035SOL    HW111002  12.974   8.172   6.253
 3035SOL    HW211003  12.832   8.150   6.207
 3036SOL     OW11004   0.485   3.005   0.548
 3036SOL    HW111005   0.457   3.014   0.639
 3036SOL    HW211006   0.498   3.095   0.517
 3037SOL     OW11007   2.041  14.746  12.207
 3037SOL    HW111008   2.107  14.704  12.261
 3037SOL    HW211009   2.074  14.835  12.195
 3038SOL     OW11010  14.546   1.606   0.257
 3038SOL    HW111011  14.487   1.559   0.198
 3038SOL    HW211012  14.567   1.687   0.211
 3039SOL     OW11013   3.851  14.014   4.535
 3039SOL    HW111014   3.910  14.088   4.551
 3039SOL    HW211015   3.883  13.974   4.455
 3040SOL     OW11016   0.343   7.889  10.835
 3040SOL    HW111017   0.335   7.914  10.743
 3040SOL    HW211018   0.317   7.968  10.883
 3041SOL     OW11019  11.334   8.798   8.644
 3041SOL    HW111020  11.325   8.871   8.706
 3041SOL    HW211021  11.248   8.791   8.604
 3042SOL     OW11022   4.225   9.213   1.541
 3042SOL    HW111023   4.264   9.291   1.580
 3042SOL    HW211024   4.182   9.245   1.462
 3043SOL     OW11025   9.643  12.226   5.984
 3043SOL    HW111026   9.659  12.231   6.079
 3043SOL    HW211027   9.553  12.257   5.974
 3044SOL     OW11028   7.229   9.345  12.731
 3044SOL    HW111029   7.244   9.440  12.734
 3044SOL    HW211030   7.193   9.328  12.645
 3045SOL     OW11031  13.639   1.984  14.402
 3045SOL    HW111032  13.659   2.073  14.433
 3045SOL    HW211033  13.654   1.989  14.308
 3046SOL     OW11034   9.468   7.795   1.427
 3046SOL    HW111035   9.455   7.873   1.480
 3046SOL    HW211036   9.558   7.768   1.444
 3047SOL     OW11037  14.768   1.634   1.869
 3047SOL    HW111038  14.709   1.681   1.810
 3047SOL    HW211039  14.807   1.702   1.924
 3048SOL     OW11040   7.143   8.737  14.603
 3048SOL    HW111041   7.205   8.669  14.577
 3048SOL    HW211042   7.139   8.797  14.529
 3049SOL     OW11043   0.032   9.101  12.487
 3049SOL    HW111044   0.011   9.102  12.393
 3049SOL    HW211045   0.126   9.119  12.490
 3050SOL     OW11046   1.654   0.641   3.038
 3050SOL    HW111047   1.688   0.730   3.049
 3050SOL    HW211048   1.677   0.618   2.948
 3051SOL     OW11049   6.801   1.204  11.646
 3051SOL    HW111050   6.742   1.137  11.679
 3051SOL    HW211051   6.788   1.279  11.705
 3052SOL     OW11052   9.792   1.067   2.118
 3052SOL    HW111053   9.747   1.117   2.186
 3052SOL    HW211054   9.877   1.044   2.157
 3053SOL     OW11055  14.252  10.641   8.199
 3053SOL    HW111056  14.245  10.609   8.110
 3053SOL    HW211057  14.239  10.564   8.254
 3054SOL     OW11058   8.544   2.560   8.230
 3054SOL    HW111059   8.476   2.613   8.273
 3054SOL    HW211060   8.520   2.469   8.251
 3055SOL     OW11061   7.685  10.346   8.748
 3055SOL    HW111062   7.759  10.308   8.702
 3055SOL    HW211063   7.613  10.344   8.685
 3056SOL     OW11064   1.799   7.714  10.024
 3056SOL    HW111065   1.747   7.694  10.102
 3056SOL    HW211066   1.820   7.807  10.033
 3057SOL     OW11067   9.995   2.864  12.144
 3057SOL    HW111068  10.079   2.895  12.111
 3057SOL    HW211069   9.932   2.893  12.079
 3058SOL     OW11070   8.080   8.181  11.754
 3058SOL    HW111071   8.104   8.201  11.663
 3058SOL    HW211072   8.117   8.254  11.805
 3059SOL     OW11073   8.073   9.213   4.020
 3059SOL    HW111074   8.074   9.207   3.925
 3059SOL    HW211075   8.111   9.299   4.038
 3060SOL     OW11076   2.430  10.417   9.551
 3060SOL    HW111077   2.339  10.392   9.540
 3060SOL    HW211078   2.428  10.490   9.613
 3061SOL     OW11079   5.586   0.775   6.543
 3061SOL    HW111080   5.636   0.756   6.623
 3061SOL    HW211081   5.561   0.689   6.509
 3062SOL     OW11082   1.916  14.144   1.205
 3062SOL    HW111083   1.973  14.209   1.245
 3062SOL    HW211084   1.867  14.192   1.138
 3063SOL     OW11085   4.981  12.175   2.972
 3063SOL    HW111086   4.911  12.116   3.002
 3063SOL    HW211087   4.935  12.252   2.939
 3064SOL     OW11088   3.013   6.376   2.516
 3064SOL    HW111089   2.990   6.391   2.608
 3064SOL    HW211090   2.929   6.374   2.470
 3065SOL     OW11091   9.356   6.063  13.850
 3065SOL    HW111092   9.428   6.116  13.884
 3065SOL    HW211093   9.314   6.118  13.784
 3066SOL     OW11094  12.213   4.092  11.715
 3066SOL    HW111095  12.140   4.036  11.689
 3066SOL    HW211096  12.291   4.049  11.680
 3067SOL     OW11097   2.398   1.830  11.903
 3067SOL    HW111098   2.317   1.790  11.873
 3067SOL    HW211099   2.452   1.836  11.824
 3068SOL     OW11100  11.788   4.680   6.358
 3068SOL    HW111101  11.881   4.667   6.341
 3068SOL    HW211102  11.776   4.775   6.353
 3069SOL     OW11103   1.669  12.852  13.547
 3069SOL    HW111104   1.650  12.846  13.641
 3069SOL    HW211105   1.622  12.778  13.509
 3070SOL     OW11106   2.239   4.149  10.591
 3070SOL    HW111107   2.306   4.083  10.570
 3070SOL    HW211108   2.243   4.212  10.520
 3071SOL     OW11109  12.062   7.182  11.982
 3071SOL    HW111110  12.021   7.255  11.937
 3071SOL    HW211111  12.002   7.108  11.970
 3072SOL     OW11112   6.746   6.664   3.660
 3072SOL    HW111113   6.799   6.727   3.611
 3072SOL    HW211114   6.779   6.669   3.749
 3073SOL     OW11115   5.190   6.694   9.040
 3073SOL    HW111116   5.215   6.717   8.951
 3073SOL    HW211117   5.248   6.623   9.065
 3074SOL     OW11118  10.151   8.668   7.304
 3074SOL    HW111119  10.070   8.667   7.354
 3074SOL    HW211120  10.210   8.611   7.352
 3075SOL     OW11121  11.981   6.609  11.275
 3075SOL    HW111122  11.935   6.643  11.352
 3075SOL    HW211123  12.074   6.622  11.295
 3076SOL     OW11124  12.704   5.704   2.615
 3076SOL    HW111125  12.709   5.797   2.635
 3076SOL    HW211126  12.754   5.661   2.685
 3077SOL     OW11127   5.419  10.543   8.506
 3077SOL    HW111128   5.357  10.493   8.452
 3077SOL    HW211129   5.479  10.478   8.541
 3078SOL     OW11130   1.306  14.880   6.877
 3078SOL    HW111131   1.286  14.802   6.930
 3078SOL    HW211132   1.226   0.051   6.878
 3079SOL     OW11133   4.722   9.504   3.682
 3079SOL    HW111134   4.746   9.418   3.717
 3079SOL    HW211135   4.626   9.501   3.676
 3080SOL     OW11136   8.005  14.755   4.005
 3080SOL    HW111137   8.017  14.665   4.035
 3080SOL    HW211138   8.068  14.806   4.057
 3081SOL     OW11139  13.049  10.538   5.243
 3081SOL    HW111140  13.075  10.590   5.319
 3081SOL    HW211141  13.120  10.552   5.180
 3082SOL     OW11142   6.869  11.918  12.055
 3082SOL    HW111143   6.830  11.846  12.103
 3082SOL    HW211144   6.899  11.978  12.123
 3083SOL     OW11145  14.324   2.356   9.369
 3083SOL    HW111146  14.263   2.313   9.428
 3083SOL    HW211147  14.328   2.300   9.292
 3084SOL     OW11148  14.719   4.807   7.419
 3084SOL    HW111149  14.800   4.817   7.469
 3084SOL    HW211150  14.726   4.870   7.347
 3085SOL     OW11151  11.187   5.466  12.775
 3085SOL    HW111152  11.265   5.514  12.747
 3085SOL    HW211153  11.115   5.512  12.732
 3086SOL     OW11154   5.971  12.538   3.699
 3086SOL    HW111155   5.891  12.502   3.739
 3086SOL    HW211156   5.985  12.621   3.746
 3087SOL     OW11157   7.844  11.796  10.861
 3087SOL    HW111158   7.818  11.805  10.953
 3087SOL    HW211159   7.873  11.884  10.836
 3088SOL     OW11160   1.459  10.421   1.687
 3088SOL    HW111161   1.393  10.459   1.744
 3088SOL    HW211162   1.535  10.478   1.696
 3089SOL     OW11163   2.614  13.758  10.282
 3089SOL    HW111164   2.652  13.828  10.336
 3089SOL    HW211165   2.659  13.766  10.198
 3090SOL     OW11166   1.396  14.829   2.520
 3090SOL    HW111167   1.368   0.001   2.444
 3090SOL    HW211168   1.385  14.738   2.494
 3091SOL     OW11169   7.144  10.588   8.669
 3091SOL    HW111170   7.142  10.630   8.756
 3091SOL    HW211171   7.206  10.516   8.680
 3092SOL     OW11172   8.640   9.900   9.233
 3092SOL    HW111173   8.575   9.882   9.166
 3092SOL    HW211174   8.704   9.829   9.225
 3093SOL     OW11175  12.980  10.572   1.679
 3093SOL    HW111176  12.996  10.507   1.610
 3093SOL    HW211177  13.066  10.590   1.716
 3094SOL     OW11178  10.248  14.053   1.455
 3094SOL    HW111179  10.198  14.081   1.379
 3094SOL    HW211180  10.182  14.028   1.520
 3095SOL     OW11181   3.711  10.903  13.960
 3095SOL    HW111182   3.694  10.945  14.044
 3095SOL    HW211183   3.718  10.810  13.980
 3096SOL     OW11184   7.343   6.710   1.834
 3096SOL    HW111185   7.383   6.641   1.783
 3096SOL    HW211186   7.327   6.670   1.920
 3097SOL     OW11187   5.753   3.457   6.004
 3097SOL    HW111188   5.679   3.493   6.052
 3097SOL    HW211189   5.723   3.371   5.974
 3098SOL     OW11190   7.615  12.807   8.294
 3098SOL    HW111191   7.535  12.854   8.269
 3098SOL    HW211192   7.685  12.850   8.244
 3099SOL     OW11193  13.762   8.371   5.270
 3099SOL    HW111194  13.747   8.294   5.324
 3099SOL    HW211195  13.702   8.437   5.304
 3100SOL     OW11196   3.347  10.245   1.060
 3100SOL    HW111197   3.317  10.185   1.129
 3100SOL    HW211198   3.276  10.310   1.053
 3101SOL     OW11199  11.327  11.611   7.099
 3101SOL    HW111200  11.312  11.633   7.191
 3101SOL    HW211201  11.241  11.618   7.058
 3102SOL     OW11202   8.530   6.400  12.531
 3102SOL    HW111203   8.462   6.388  12.465
 3102SOL    HW211204   8.516   6.330  12.594
 3103SOL     OW11205  10.710   5.910  12.077
 3103SOL    HW111206  10.755   5.827  12.090
 3103SOL    HW211207  10.770   5.976  12.113
 3104SOL     OW11208  14.775  12.777   4.840
 3104SOL    HW111209  14.795  12.798   4.931
 3104SOL    HW211210  14.683  12.801   4.830
 3105SOL     OW11211  10.737  13.007   7.103
 3105SOL    HW111212  10.772  13.073   7.043
 3105SOL    HW211213  10.806  12.994   7.168
 3106SOL     OW11214   8.315   2.598   2.914
 3106SOL    HW111215   8.305   2.681   2.961
 3106SOL    HW211216   8.239   2.594   2.856
 3107SOL     OW11217   7.459  12.891   7.042
 3107SOL    HW111218   7.489  12.820   6.986
 3107SOL    HW211219   7.384  12.854   7.089
 3108SOL     OW11220   3.300   5.883   6.803
 3108SOL    HW111221   3.290   5.976   6.785
 3108SOL    HW211222   3.302   5.877   6.899
 3109SOL     OW11223  12.321   7.992   2.196
 3109SOL    HW111224  12.371   7.962   2.120
 3109SOL    HW211225  12.233   8.005   2.163
 3110SOL     OW11226   3.629  13.200   2.334
 3110SOL    HW111227   3.712  13.199   2.286
 3110SOL    HW211228   3.569  13.148   2.279
 3111SOL     OW11229   3.821   3.009   5.850
 3111SOL    HW111230   3.823   2.978   5.759
 3111SOL    HW211231   3.908   3.045   5.865
 3112SOL     OW11232  13.948   2.297   1.510
 3112SOL    HW111233  13.891   2.225   1.483
 3112SOL    HW211234  13.888   2.363   1.546
 3113SOL     OW11235  10.687   0.219   2.988
 3113SOL    HW111236  10.674   0.263   3.072
 3113SOL    HW211237  10.717   0.131   3.012
 3114SOL     OW11238   6.575  13.253  10.657
 3114SOL    HW111239   6.631  13.228  10.583
 3114SOL    HW211240   6.611  13.336  10.688
 3115SOL     OW11241   0.482  10.651  14.781
 3115SOL    HW111242   0.501  10.577  14.723
 3115SOL    HW211243   0.457  10.722  14.721
 3116SOL     OW11244   4.007   4.378  13.272
 3116SOL    HW111245   4.073   4.355  13.337
 3116SOL    HW211246   4.047   4.449  13.221
 3117SOL     OW11247   1.676   9.296  13.702
 3117SOL    HW111248   1.588   9.261  13.686
 3117SOL    HW211249   1.734   9.221  13.689
 3118SOL     OW11250   0.480  11.399  12.011
 3118SOL    HW111251   0.458  11.448  11.932
 3118SOL    HW211252   0.406  11.340  12.024
 3119SOL     OW11253   6.840   7.068   8.416
 3119SOL    HW111254   6.807   7.050   8.328
 3119SOL    HW211255   6.909   7.004   8.429
 3120SOL     OW11256   4.908   1.946   8.995
 3120SOL    HW111257   4.946   1.960   8.908
 3120SOL    HW211258   4.956   1.872   9.031
 3121SOL     OW11259   4.188   8.262   0.781
 3121SOL    HW111260   4.116   8.243   0.841
 3121SOL    HW211261   4.166   8.347   0.743
 3122SOL     OW11262  11.697   5.175  13.028
 3122SOL    HW111263  11.667   5.245  12.971
 3122SOL    HW211264  11.732   5.220  13.105
 3123SOL     OW11265   6.161   5.936  10.305
 3123SOL    HW111266   6.136   5.877  10.375
 3123SOL    HW211267   6.233   5.892  10.260
 3124SOL     OW11268   3.100   1.777  11.098
 3124SOL    HW111269   3.123   1.818  11.181
 3124SOL    HW211270   3.169   1.713  11.082
 3125SOL     OW11271   2.777   8.861   7.430
 3125SOL    HW111272   2.769   8.898   7.518
 3125SOL    HW211273   2.697   8.888   7.385
 3126SOL     OW11274  13.000  10.905  12.312
 3126SOL    HW111275  13.059  10.961  12.361
 3126SOL    HW211276  13.027  10.915  12.220
 3127SOL     OW11277  12.134   5.876   9.837
 3127SOL    HW111278  12.119   5.782   9.824
 3127SOL    HW211279  12.223   5.882   9.872
 3128SOL     OW11280  13.135   7.533   9.355
 3128SOL    HW111281  13.120   7.447   9.396
 3128SOL    HW211282  13.103   7.596   9.420
 3129SOL     OW11283   7.755  14.296   4.885
 3129SOL    HW111284   7.721  14.361   4.947
 3129SOL    HW211285   7.834  14.337   4.849
 3130SOL     OW11286  10.333   8.369   2.233
 3130SOL    HW111287  10.354   8.398   2.145
 3130SOL    HW211288  10.372   8.282   2.240
 3131SOL     OW11289   2.279   1.798  13.945
 3131SOL    HW111290   2.184   1.789  13.936
 3131SOL    HW211291   2.315   1.730  13.888
 3132SOL     OW11292   3.933   4.691   5.905
 3132SOL    HW111293   3.873   4.689   5.980
 3132SOL    HW211294   4.010   4.642   5.934
 3133SOL     OW11295   1.172  13.149   6.105
 3133SOL    HW111296   1.243  13.178   6.048
 3133SOL    HW211297   1.093  13.186   6.065
 3134SOL     OW11298   9.337   2.906  10.131
 3134SOL    HW111299   9.328   2.957  10.211
 3134SOL    HW211300   9.331   2.970  10.061
 3135SOL     OW11301  13.439  11.256   8.552
 3135SOL    HW111302  13.418  11.184   8.492
 3135SOL    HW211303  13.480  11.214   8.627
 3136SOL     OW11304   3.698  10.659   8.972
 3136SOL    HW111305   3.660  10.658   9.060
 3136SOL    HW211306   3.693  10.751   8.945
 3137SOL     OW11307   9.563   9.217  10.750
 3137SOL    HW111308   9.564   9.292  10.689
 3137SOL    HW211309   9.505   9.154  10.708
 3138SOL     OW11310   9.033  13.679   4.050
 3138SOL    HW111311   8.991  13.594   4.039
 3138SOL    HW211312   9.047  13.711   3.961
 3139SOL     OW11313   7.917   0.537   8.005
 3139SOL    HW111314   7.979   0.608   7.986
 3139SOL    HW211315   7.957   0.460   7.965
 3140SOL     OW11316   6.691   7.734  12.570
 3140SOL    HW111317   6.627   7.795  12.607
 3140SOL    HW211318   6.639   7.676  12.515
 3141SOL     OW11319   3.311   7.047   4.835
 3141SOL    HW111320   3.313   7.044   4.930
 3141SOL    HW211321   3.313   6.955   4.808
 3142SOL     OW11322  10.978   4.607   1.634
 3142SOL    HW111323  10.925   4.605   1.554
 3142SOL    HW211324  11.011   4.518   1.643
 3143SOL     OW11325  13.528   7.515  12.300
 3143SOL    HW111326  13.523   7.449  12.369
 3143SOL    HW211327  13.448   7.502  12.249
 3144SOL     OW11328   5.821   3.732   5.286
 3144SOL    HW111329   5.812   3.802   5.350
 3144SOL    HW211330   5.817   3.652   5.338
 3145SOL     OW11331   9.914  14.863  11.875
 3145SOL    HW111332   9.994   0.026  11.905
 3145SOL    HW211333   9.845   0.020  11.929
 3146SOL     OW11334   7.054   6.450  14.213
 3146SOL    HW111335   6.987   6.407  14.267
 3146SOL    HW211336   7.044   6.543  14.232
 3147SOL     OW11337   1.889  13.682   7.523
 3147SOL    HW111338   1.940  13.602   7.532
 3147SOL    HW211339   1.953  13.753   7.527
 3148SOL     OW11340   7.818   5.989   8.669
 3148SOL    HW111341   7.743   5.995   8.728
 3148SOL    HW211342   7.780   5.972   8.583
 3149SOL     OW11343  11.543  11.660   1.740
 3149SOL    HW111344  11.516  11.614   1.820
 3149SOL    HW211345  11.482  11.734   1.733
 3150SOL     OW11346   7.544  12.735   8.983
 3150SOL    HW111347   7.509  12.645   8.984
 3150SOL    HW211348   7.600  12.739   9.061
 3151SOL     OW11349   1.661  11.556   2.292
 3151SOL    HW111350   1.582  11.611   2.300
 3151SOL    HW211351   1.647  11.485   2.354
 3152SOL     OW11352   0.589   6.434   1.161
 3152SOL    HW111353   0.571   6.366   1.096
 3152SOL    HW211354   0.526   6.503   1.141
 3153SOL     OW11355   7.215   1.648  14.130
 3153SOL    HW111356   7.179   1.657  14.218
 3153SOL    HW211357   7.198   1.557  14.106
 3154SOL     OW11358  12.404   6.754   9.618
 3154SOL    HW111359  12.311   6.744   9.639
 3154SOL    HW211360  12.405   6.798   9.533
 3155SOL     OW11361   0.196   3.569   3.991
 3155SOL    HW111362   0.256   3.613   4.051
 3155SOL    HW211363   0.243   3.490   3.964
 3156SOL     OW11364  13.848   7.810   0.354
 3156SOL    HW111365  13.909   7.746   0.391
 3156SOL    HW211366  13.844   7.788   0.261
 3157SOL     OW11367  12.902  10.210   6.730
 3157SOL    HW111368  12.863  10.289   6.692
 3157SOL    HW211369  12.961  10.243   6.798
 3158SOL     OW11370   8.993   1.683   7.110
 3158SOL    HW111371   9.000   1.777   7.092
 3158SOL    HW211372   8.903   1.672   7.142
 3159SOL     OW11373  10.952  14.469   5.065
 3159SOL    HW111374  10.857  14.459   5.066
 3159SOL    HW211375  10.967  14.562   5.082
 3160SOL     OW11376   4.174   6.455   9.028
 3160SOL    HW111377   4.148   6.532   8.978
 3160SOL    HW211378   4.140   6.381   8.978
 3161SOL     OW11379  10.639   2.338   4.118
 3161SOL    HW111380  10.573   2.286   4.165
 3161SOL    HW211381  10.588   2.390   4.056
 3162SOL     OW11382   1.349   5.949   2.658
 3162SOL    HW111383   1.259   5.918   2.672
 3162SOL    HW211384   1.396   5.918   2.735
 3163SOL     OW11385  11.192  12.948  12.103
 3163SOL    HW111386  11.272  12.969  12.055
 3163SOL    HW211387  11.184  13.017  12.168
 3164SOL     OW11388  13.146   8.542  12.160
 3164SOL    HW111389  13.171   8.505  12.075
 3164SOL    HW211390  13.223   8.590  12.189
 3165SOL     OW11391   6.507  12.755   3.096
 3165SOL    HW111392   6.422  12.798   3.097
 3165SOL    HW211393   6.498  12.686   3.030
 3166SOL     OW11394   1.573  10.584   3.188
 3166SOL    HW111395   1.589  10.539   3.105
 3166SOL    HW211396   1.588  10.517   3.255
 3167SOL     OW11397   8.081   0.798   2.403
 3167SOL    HW111398   8.137   0.745   2.460
 3167SOL    HW211399   7.995   0.756   2.407
 3168SOL     OW11400   8.343   9.890   9.123
 3168SOL    HW111401   8.295   9.935   9.192
 3168SOL    HW211402   8.275   9.847   9.071
 3169SOL     OW11403   2.309   4.042  11.503
 3169SOL    HW111404   2.390   4.042  11.554
 3169SOL    HW211405   2.258   4.115  11.538
 3170SOL     OW11406  13.504   9.299   0.206
 3170SOL    HW111407  13.466   9.241   0.272
 3170SOL    HW211408  13.565   9.244   0.157
 3171SOL     OW11409   9.093   5.669   8.657
 3171SOL    HW111410   9.013   5.722   8.669
 3171SOL    HW211411   9.164   5.733   8.657
 3172SOL     OW11412  12.675  13.645   6.607
 3172SOL    HW111413  12.715  13.560   6.589
 3172SOL    HW211414  12.742  13.709   6.585
 3173SOL     OW11415   6.213   7.544   8.616
 3173SOL    HW111416   6.293   7.567   8.663
 3173SOL    HW211417   6.237   7.552   8.523
 3174SOL     OW11418   1.469   0.590   9.257
 3174SOL    HW111419   1.525   0.654   9.214
 3174SOL    HW211420   1.530   0.524   9.291
 3175SOL     OW11421   6.493   8.904   2.124
 3175SOL    HW111422   6.559   8.930   2.188
 3175SOL    HW211423   6.542   8.863   2.053
 3176SOL     OW11424   7.606   9.411   1.917
 3176SOL    HW111425   7.518   9.378   1.932
 3176SOL    HW211426   7.628   9.380   1.829
 3177SOL     OW11427   5.734   2.922   7.818
 3177SOL    HW111428   5.722   2.917   7.913
 3177SOL    HW211429   5.735   2.831   7.789
 3178SOL     OW11430   7.799  12.782  14.799
 3178SOL    HW111431   7.776  12.863  14.845
 3178SOL    HW211432   7.880  12.753  14.840
 3179SOL     OW11433   8.195   6.149   8.009
 3179SOL    HW111434   8.228   6.134   8.097
 3179SOL    HW211435   8.104   6.175   8.021
 3180SOL     OW11436  12.437  12.280   5.295
 3180SOL    HW111437  12.467  12.216   5.360
 3180SOL    HW211438  12.348  12.251   5.273
 3181SOL     OW11439   9.199   1.825   5.980
 3181SOL    HW111440   9.245   1.743   5.961
 3181SOL    HW211441   9.249   1.892   5.934
 3182SOL     OW11442   5.995   9.671   9.871
 3182SOL    HW111443   6.010   9.642   9.961
 3182SOL    HW211444   5.903   9.648   9.854
 3183SOL     OW11445  12.161   4.510   7.251
 3183SOL    HW111446  12.163   4.574   7.180
 3183SOL    HW211447  12.179   4.560   7.330
 3184SOL     OW11448   4.420  10.548  11.641
 3184SOL    HW111449   4.473  10.560  11.720
 3184SOL    HW211450   4.339  10.597  11.659
 3185SOL     OW11451  14.507   1.466   8.192
 3185SOL    HW111452  14.454   1.523   8.248
 3185SOL    HW211453  14.546   1.525   8.128
 3186SOL     OW11454   5.590   0.520   1.277
 3186SOL    HW111455   5.614   0.599   1.326
 3186SOL    HW211456   5.499   0.503   1.302
 3187SOL     OW11457   1.690   6.637   3.630
 3187SOL    HW111458   1.603   6.671   3.651
 3187SOL    HW211459   1.676   6.583   3.552
 3188SOL     OW11460   2.125   2.124  14.534
 3188SOL    HW111461   2.204   2.178  14.527
 3188SOL    HW211462   2.073   2.166  14.602
 3189SOL     OW11463   6.221   3.894   4.426
 3189SOL    HW111464   6.165   3.967   4.403
 3189SOL    HW211465   6.170   3.816   4.405
 3190SOL     OW11466   3.504   8.687  10.731
 3190SOL    HW111467   3.500   8.748  10.805
 3190SOL    HW211468   3.574   8.626  10.754
 3191SOL     OW11469  12.396   4.338   6.420
 3191SOL    HW111470  12.483   4.355   6.456
 3191SOL    HW211471  12.399   4.372   6.331
 3192SOL     OW11472  14.441   7.677   7.430
 3192SOL    HW111473  14.526   7.714   7.410
 3192SOL    HW211474  14.460   7.589   7.462
 3193SOL     OW11475   8.048   9.701  12.905
 3193SOL    HW111476   8.057   9.790  12.871
 3193SOL    HW211477   7.954   9.693  12.924
 3194SOL     OW11478  12.048   6.379  12.599
 3194SOL    HW111479  12.136   6.361  12.568
 3194SOL    HW211480  12.039   6.474  12.592
 3195SOL     OW11481  14.147   5.913  11.401
 3195SOL    HW111482  14.202   5.864  11.340
 3195SOL    HW211483  14.187   5.999  11.406
 3196SOL     OW11484   3.440   5.448  14.171
 3196SOL    HW111485   3.490   5.529  14.182
 3196SOL    HW211486   3.436   5.410  14.259
 3197SOL     OW11487   0.175   0.943   6.466
 3197SOL    HW111488   0.174   0.998   6.388
 3197SOL    HW211489   0.214   0.861   6.436
 3198SOL     OW11490   5.154   6.232   3.679
 3198SOL    HW111491   5.092   6.162   3.656
 3198SOL    HW211492   5.158   6.231   3.774
 3199SOL     OW11493   7.822  10.432  13.009
 3199SOL    HW111494   7.848  10.485  13.085
 3199SOL    HW211495   7.842  10.342  13.035
 3200SOL     OW11496   8.684  10.140   7.350
 3200SOL    HW111497   8.617  10.085   7.390
 3200SOL    HW211498   8.691  10.108   7.260
 3201SOL     OW11499   8.622   5.615  12.516
 3201SOL    HW111500   8.635   5.650  12.428
 3201SOL    HW211501   8.702   5.564  12.533
 3202SOL     OW11502  11.751  10.597   6.501
 3202SOL    HW111503  11.778  10.662   6.567
 3202SOL    HW211504  11.832  10.554   6.476
 3203SOL     OW11505  10.584   7.496  14.217
 3203SOL    HW111506  10.660   7.507  14.274
 3203SOL    HW211507  10.594   7.408  14.181
 3204SOL     OW11508   4.974  13.814   9.490
 3204SOL    HW111509   5.049  13.860   9.527
 3204SOL    HW211510   4.926  13.780   9.566
 3205SOL     OW11511   3.136  12.721  11.235
 3205SOL    HW111512   3.084  12.741  11.313
 3205SOL    HW211513   3.217  12.682  11.269
 3206SOL     OW11514   1.899   2.753   7.999
 3206SOL    HW111515   1.899   2.847   8.015
 3206SOL    HW211516   1.990   2.726   8.014
 3207SOL     OW11517   8.063  13.101   5.334
 3207SOL    HW111518   8.110  13.022   5.305
 3207SOL    HW211519   8.132  13.165   5.352
 3208SOL     OW11520  11.238  11.271   5.199
 3208SOL    HW111521  11.267  11.239   5.114
 3208SOL    HW211522  11.315  11.263   5.255
 3209SOL     OW11523   0.793   1.849   8.297
 3209SOL    HW111524   0.703   1.853   8.328
 3209SOL    HW211525   0.841   1.808   8.370
 3210SOL     OW11526   0.087   8.184   8.931
 3210SOL    HW111527   0.148   8.146   8.868
 3210SOL    HW211528   0.110   8.143   9.014
 3211SOL     OW11529   2.432   2.218  12.828
 3211SOL    HW111530   2.474   2.302  12.844
 3211SOL    HW211531   2.486   2.154  12.874
 3212SOL     OW11532   0.214   9.169   1.507
 3212SOL    HW111533   0.127   9.132   1.519
 3212SOL    HW211534   0.257   9.108   1.447
 3213SOL     OW11535   9.019   5.762   2.588
 3213SOL    HW111536   9.062   5.720   2.514
 3213SOL    HW211537   8.930   5.726   2.588
 3214SOL     OW11538  11.806   4.270   5.498
 3214SOL    HW111539  11.886   4.226   5.525
 3214SOL    HW211540  11.824   4.363   5.507
 3215SOL     OW11541   5.772  13.540   6.052
 3215SOL    HW111542   5.858  13.526   6.091
 3215SOL    HW211543   5.756  13.462   5.999
 3216SOL     OW11544   7.196   9.397   5.920
 3216SOL    HW111545   7.100   9.391   5.925
 3216SOL    HW211546   7.213   9.449   5.842
 3217SOL     OW11547   9.536  13.028   4.469
 3217SOL    HW111548   9.508  12.956   4.526
 3217SOL    HW211549   9.586  12.985   4.400
 3218SOL     OW11550   6.151   8.120   7.609
 3218SOL    HW111551   6.213   8.193   7.616
 3218SOL    HW211552   6.102   8.137   7.529
 3219SOL     OW11553   9.819  10.235   1.095
 3219SOL    HW111554   9.904  10.263   1.060
 3219SOL    HW211555   9.755  10.286   1.046
 3220SOL     OW11556   2.416   9.181   5.114
 3220SOL    HW111557   2.389   9.090   5.115
 3220SOL    HW211558   2.480   9.188   5.185
 3221SOL     OW11559  10.801  12.173   9.238
 3221SOL    HW111560  10.874  12.199   9.294
 3221SOL    HW211561  10.725  12.174   9.296
 3222SOL     OW11562  12.523  10.247  13.966
 3222SOL    HW111563  12.607  10.231  13.922
 3222SOL    HW211564  12.514  10.174  14.027
 3223SOL     OW11565   0.608   8.822  12.481
 3223SOL    HW111566   0.641   8.774  12.405
 3223SOL    HW211567   0.598   8.912  12.450
 3224SOL     OW11568   7.410   4.516   6.473
 3224SOL    HW111569   7.426   4.559   6.389
 3224SOL    HW211570   7.497   4.491   6.504
 3225SOL     OW11571   9.683  10.256   6.410
 3225SOL    HW111572   9.755  10.198   6.436
 3225SOL    HW211573   9.639  10.209   6.340
 3226SOL     OW11574   6.040   4.536  10.712
 3226SOL    HW111575   6.046   4.516  10.619
 3226SOL    HW211576   6.036   4.451  10.755
 3227SOL     OW11577   4.935   3.422  11.464
 3227SOL    HW111578   4.911   3.334  11.493
 3227SOL    HW211579   5.003   3.408  11.398
 3228SOL     OW11580   5.858  13.054  11.093
 3228SOL    HW111581   5.769  13.046  11.129
 3228SOL    HW211582   5.848  13.111  11.017
 3229SOL     OW11583  11.470   9.672   0.891
 3229SOL    HW111584  11.526   9.631   0.956
 3229SOL    HW211585  11.395   9.704   0.941
 3230SOL     OW11586   9.430   5.323   1.977
 3230SOL    HW111587   9.372   5.258   1.936
 3230SOL    HW211588   9.371   5.375   2.033
 3231SOL     OW11589  10.869   6.846   5.789
 3231SOL    HW111590  10.959   6.840   5.822
 3231SOL    HW211591  10.837   6.930   5.820
 3232SOL     OW11592   4.302   0.446   9.710
 3232SOL    HW111593   4.249   0.450   9.630
 3232SOL    HW211594   4.332   0.536   9.723
 3233SOL     OW11595   7.224   5.098  10.231
 3233SOL    HW111596   7.162   5.145  10.177
 3233SOL    HW211597   7.229   5.011  10.192
 3234SOL     OW11598  11.143   6.434   0.592
 3234SOL    HW111599  11.051   6.449   0.568
 3234SOL    HW211600  11.190   6.433   0.508
 3235SOL     OW11601   2.558  13.905   6.191
 3235SOL    HW111602   2.545  13.839   6.259
 3235SOL    HW211603   2.570  13.854   6.111
 3236SOL     OW11604  14.744   8.836   5.380
 3236SOL    HW111605  14.785   8.826   5.294
 3236SOL    HW211606  14.809   8.885   5.431
 3237SOL     OW11607   4.797   9.026   1.269
 3237SOL    HW111608   4.777   8.934   1.287
 3237SOL    HW211609   4.893   9.031   1.268
 3238SOL     OW11610  10.969  14.834  12.053
 3238SOL    HW111611  10.979  14.741  12.031
 3238SOL    HW211612  10.926  14.835  12.138
 3239SOL     OW11613  12.087   8.377   7.728
 3239SOL    HW111614  12.073   8.324   7.649
 3239SOL    HW211615  12.072   8.467   7.699
 3240SOL     OW11616   3.688   0.876   8.856
 3240SOL    HW111617   3.776   0.877   8.818
 3240SOL    HW211618   3.642   0.947   8.812
 3241SOL     OW11619   8.176   0.053  12.482
 3241SOL    HW111620   8.230   0.107  12.539
 3241SOL    HW211621   8.228  14.854  12.467
 3242SOL     OW11622   7.257   3.028  11.934
 3242SOL    HW111623   7.271   2.935  11.954
 3242SOL    HW211624   7.173   3.049  11.975
 3243SOL     OW11625   3.351   0.631   5.683
 3243SOL    HW111626   3.296   0.562   5.646
 3243SOL    HW211627   3.437   0.615   5.645
 3244SOL     OW11628   2.579   2.932   9.690
 3244SOL    HW111629   2.572   2.838   9.674
 3244SOL    HW211630   2.648   2.939   9.756
 3245SOL     OW11631   6.277  13.936   1.776
 3245SOL    HW111632   6.338  13.999   1.815
 3245SOL    HW211633   6.332  13.861   1.752
 3246SOL     OW11634  14.316  14.570   4.520
 3246SOL    HW111635  14.239  14.620   4.546
 3246SOL    HW211636  14.390  14.627   4.541
 3247SOL     OW11637  14.368   1.087   6.239
 3247SOL    HW111638  14.283   1.056   6.269
 3247SOL    HW211639  14.392   1.157   6.300
 3248SOL     OW11640   1.515  10.419   3.402
 3248SOL    HW111641   1.541  10.353   3.466
 3248SOL    HW211642   1.491  10.495   3.455
 3249SOL     OW11643   5.534  12.067   6.715
 3249SOL    HW111644   5.454  12.035   6.674
 3249SOL    HW211645   5.537  12.160   6.693
 3250SOL     OW11646   6.258   1.886   9.658
 3250SOL    HW111647   6.335   1.894   9.715
 3250SOL    HW211648   6.242   1.975   9.627
 3251SOL     OW11649   4.245   6.349  11.725
 3251SOL    HW111650   4.315   6.411  11.743
 3251SOL    HW211651   4.258   6.279  11.790
 3252SOL     OW11652  11.712  13.001   8.446
 3252SOL    HW111653  11.733  13.094   8.455
 3252SOL    HW211654  11.737  12.962   8.530
 3253SOL     OW11655  13.998   3.726  10.847
 3253SOL    HW111656  14.081   3.758  10.811
 3253SOL    HW211657  13.971   3.657  10.786
 3254SOL     OW11658   0.421  12.270   1.999
 3254SOL    HW111659   0.425  12.309   2.086
 3254SOL    HW211660   0.350  12.206   2.005
 3255SOL     OW11661   7.280  12.618   7.843
 3255SOL    HW111662   7.336  12.643   7.769
 3255SOL    HW211663   7.230  12.543   7.810
 3256SOL     OW11664   3.690   2.045   7.360
 3256SOL    HW111665   3.688   2.007   7.272
 3256SOL    HW211666   3.783   2.046   7.383
 3257SOL     OW11667  11.417   7.188   1.751
 3257SOL    HW111668  11.469   7.111   1.773
 3257SOL    HW211669  11.336   7.154   1.716
 3258SOL     OW11670  11.464   8.294  11.386
 3258SOL    HW111671  11.420   8.327  11.308
 3258SOL    HW211672  11.395   8.250  11.435
 3259SOL     OW11673   6.810   2.020   5.687
 3259SOL    HW111674   6.720   2.048   5.672
 3259SOL    HW211675   6.842   2.075   5.758
 3260SOL     OW11676  14.474  10.429  11.064
 3260SOL    HW111677  14.452  10.403  10.975
 3260SOL    HW211678  14.436  10.361  11.120
 3261SOL     OW11679  10.648   2.375  14.095
 3261SOL    HW111680  10.616   2.319  14.166
 3261SOL    HW211681  10.605   2.341  14.017
 3262SOL     OW11682   1.137   5.954   9.137
 3262SOL    HW111683   1.068   5.892   9.112
 3262SOL    HW211684   1.139   5.949   9.232
 3263SOL     OW11685   7.381   3.462  12.617
 3263SOL    HW111686   7.334   3.429  12.540
 3263SOL    HW211687   7.329   3.432  12.692
 3264SOL     OW11688   0.888   6.011   0.531
 3264SOL    HW111689   0.868   6.104   0.515
 3264SOL    HW211690   0.816   5.980   0.586
 3265SOL     OW11691  12.122   9.283  14.745
 3265SOL    HW111692  12.115   9.350  14.678
 3265SOL    HW211693  12.045   9.227  14.731
 3266SOL     OW11694  13.250   4.167   5.362
 3266SOL    HW111695  13.178   4.155   5.424
 3266SOL    HW211696  13.205   4.183   5.278
 3267SOL     OW11697   0.935  14.300   1.581
 3267SOL    HW111698   0.853  14.287   1.534
 3267SOL    HW211699   0.910  14.299   1.674
 3268SOL     OW11700  11.180  10.599  12.211
 3268SOL    HW111701  11.117  10.662  12.245
 3268SOL    HW211702  11.265  10.632  12.240
 3269SOL     OW11703  13.696   7.283   0.678
 3269SOL    HW111704  13.788   7.262   0.695
 3269SOL    HW211705  13.649   7.240   0.749
 3270SOL     OW11706  14.373   0.024  14.641
 3270SOL    HW111707  14.456   0.056  14.606
 3270SOL    HW211708  14.316   0.013  14.565
 3271SOL     OW11709   6.358   7.843   6.916
 3271SOL    HW111710   6.406   7.923   6.896
 3271SOL    HW211711   6.425   7.777   6.930
 3272SOL     OW11712   3.397   4.540   2.798
 3272SOL    HW111713   3.466   4.480   2.771
 3272SOL    HW211714   3.342   4.550   2.721
 3273SOL     OW11715   4.392   5.998  14.793
 3273SOL    HW111716   4.318   5.938  14.798
 3273SOL    HW211717   4.365   6.065  14.730
 3274SOL     OW11718   5.978  13.573   6.324
 3274SOL    HW111719   6.055  13.602   6.373
 3274SOL    HW211720   6.004  13.579   6.232
 3275SOL     OW11721   1.647  12.080   2.004
 3275SOL    HW111722   1.611  12.169   2.003
 3275SOL    HW211723   1.668  12.062   1.913
 3276SOL     OW11724  14.545  10.643  13.130
 3276SOL    HW111725  14.455  10.649  13.163
 3276SOL    HW211726  14.571  10.552  13.148
 3277SOL     OW11727   1.968   8.635  11.666
 3277SOL    HW111728   2.060   8.651  11.642
 3277SOL    HW211729   1.964   8.541  11.682
 3278SOL     OW11730   4.616   0.514   3.187
 3278SOL    HW111731   4.525   0.540   3.203
 3278SOL    HW211732   4.645   0.570   3.115
 3279SOL     OW11733   0.205   3.466   6.024
 3279SOL    HW111734   0.154   3.442   5.947
 3279SOL    HW211735   0.141   3.501   6.086
 3280SOL     OW11736   3.233   8.999   3.426
 3280SOL    HW111737   3.182   8.933   3.378
 3280SOL    HW211738   3.298   8.948   3.474
 3281SOL     OW11739  10.736  12.412   8.689
 3281SOL    HW111740  10.830  12.392   8.692
 3281SOL    HW211741  10.730  12.501   8.724
 3282SOL     OW11742   5.994  12.404   2.282
 3282SOL    HW111743   6.075  12.439   2.320
 3282SOL    HW211744   6.001  12.422   2.189
 3283SOL     OW11745   8.970   9.218   0.570
 3283SOL    HW111746   8.875   9.215   0.561
 3283SOL    HW211747   8.998   9.127   0.556
 3284SOL     OW11748   8.772   2.330  12.766
 3284SOL    HW111749   8.710   2.296  12.702
 3284SOL    HW211750   8.857   2.296  12.738
 3285SOL     OW11751   1.966   7.731   3.416
 3285SOL    HW111752   1.957   7.750   3.509
 3285SOL    HW211753   1.999   7.813   3.378
 3286SOL     OW11754   3.410  11.383  12.263
 3286SOL    HW111755   3.452  11.380  12.177
 3286SOL    HW211756   3.357  11.463  12.260
 3287SOL     OW11757   4.890  11.997  13.428
 3287SOL    HW111758   4.857  12.083  13.455
 3287SOL    HW211759   4.902  12.005  13.334
 3288SOL     OW11760  14.146   5.241  13.031
 3288SOL    HW111761  14.095   5.238  13.112
 3288SOL    HW211762  14.092   5.195  12.967
 3289SOL     OW11763   2.200   7.439   7.230
 3289SOL    HW111764   2.149   7.490   7.167
 3289SOL    HW211765   2.141   7.428   7.305
 3290SOL     OW11766   9.910  10.040  13.985
 3290SOL    HW111767   9.870  10.059  14.070
 3290SOL    HW211768   9.958  10.119  13.962
 3291SOL     OW11769  13.155   3.741   9.450
 3291SOL    HW111770  13.165   3.764   9.542
 3291SOL    HW211771  13.076   3.687   9.447
 3292SOL     OW11772   3.188   5.739  14.124
 3292SOL    HW111773   3.214   5.676  14.190
 3292SOL    HW211774   3.134   5.803  14.171
 3293SOL     OW11775   2.822   2.200   5.345
 3293SOL    HW111776   2.848   2.135   5.280
 3293SOL    HW211777   2.829   2.155   5.429
 3294SOL     OW11778   4.926   5.540  12.206
 3294SOL    HW111779   4.875   5.520  12.128
 3294SOL    HW211780   5.012   5.567  12.172
 3295SOL     OW11781   9.975  10.324   8.667
 3295SOL    HW111782  10.062  10.356   8.686
 3295SOL    HW211783   9.983  10.228   8.672
 3296SOL     OW11784   4.353   8.053   5.534
 3296SOL    HW111785   4.344   8.069   5.628
 3296SOL    HW211786   4.446   8.037   5.521
 3297SOL     OW11787   1.469  11.054  13.173
 3297SOL    HW111788   1.473  11.137  13.125
 3297SOL    HW211789   1.545  11.005  13.141
 3298SOL     OW11790   0.653  11.235   3.607
 3298SOL    HW111791   0.660  11.298   3.679
 3298SOL    HW211792   0.638  11.151   3.650
 3299SOL     OW11793  11.359  12.739   5.311
 3299SOL    HW111794  11.371  12.834   5.311
 3299SOL    HW211795  11.290  12.724   5.376
 3300SOL     OW11796   0.077  10.608   5.405
 3300SOL    HW111797   0.152  10.611   5.346
 3300SOL    HW211798   0.071  10.696   5.441
 3301SOL     OW11799  13.373   9.903   6.342
 3301SOL    HW111800  13.287   9.938   6.321
 3301SOL    HW211801  13.384   9.919   6.436
 3302SOL     OW11802  12.500   6.510   9.018
 3302SOL    HW111803  12.540   6.594   8.998
 3302SOL    HW211804  12.532   6.451   8.949
 3303SOL     OW11805  12.153   4.320   8.553
 3303SOL    HW111806  12.172   4.226   8.557
 3303SOL    HW211807  12.217   4.355   8.491
 3304SOL     OW11808   0.926   2.300   9.492
 3304SOL    HW111809   1.013   2.263   9.485
 3304SOL    HW211810   0.871   2.246   9.435
 3305SOL     OW11811   0.169   4.924  13.626
 3305SOL    HW111812   0.164   4.966  13.712
 3305SOL    HW211813   0.114   4.978  13.570
 3306SOL     OW11814   0.817   0.488  13.141
 3306SOL    HW111815   0.901   0.486  13.094
 3306SOL    HW211816   0.751   0.493  13.071
 3307SOL     OW11817   0.563  14.055   1.661
 3307SOL    HW111818   0.642  14.101   1.689
 3307SOL    HW211819   0.594  13.969   1.632
 3308SOL     OW11820   6.363   2.171  14.396
 3308SOL    HW111821   6.292   2.234  14.390
 3308SOL    HW211822   6.391   2.175  14.488
 3309SOL     OW11823   6.016   0.661   6.772
 3309SOL    HW111824   6.040   0.675   6.680
 3309SOL    HW211825   6.075   0.719   6.821
 3310SOL     OW11826   7.388   4.727   8.015
 3310SOL    HW111827   7.482   4.719   8.033
 3310SOL    HW211828   7.359   4.637   8.003
 3311SOL     OW11829  10.479   4.209   0.558
 3311SOL    HW111830  10.500   4.118   0.535
 3311SOL    HW211831  10.405   4.202   0.619
 3312SOL     OW11832   9.264  10.830   0.692
 3312SOL    HW111833   9.201  10.827   0.764
 3312SOL    HW211834   9.263  10.921   0.663
 3313SOL     OW11835   8.948  13.895   9.114
 3313SOL    HW111836   8.923  13.889   9.206
 3313SOL    HW211837   8.926  13.984   9.088
 3314SOL     OW11838   1.055   2.999  14.874
 3314SOL    HW111839   1.066   2.904  14.865
 3314SOL    HW211840   1.145   3.033  14.874
 3315SOL     OW11841   2.576   3.159   8.786
 3315SOL    HW111842   2.648   3.211   8.824
 3315SOL    HW211843   2.570   3.189   8.696
 3316SOL     OW11844   8.557  10.685  10.864
 3316SOL    HW111845   8.575  10.636  10.943
 3316SOL    HW211846   8.462  10.695  10.862
 3317SOL     OW11847   3.736  10.906   2.441
 3317SOL    HW111848   3.668  10.841   2.423
 3317SOL    HW211849   3.814  10.853   2.459
 3318SOL     OW11850   8.515  12.069  14.583
 3318SOL    HW111851   8.548  12.126  14.653
 3318SOL    HW211852   8.419  12.074  14.591
 3319SOL     OW11853   5.279   0.237  14.769
 3319SOL    HW111854   5.268   0.237  14.674
 3319SOL    HW211855   5.372   0.222  14.783
 3320SOL     OW11856  14.696   2.478   0.251
 3320SOL    HW111857  14.679   2.385   0.238
 3320SOL    HW211858  14.693   2.516   0.163
 3321SOL     OW11859   7.738   1.447   0.828
 3321SOL    HW111860   7.688   1.497   0.762
 3321SOL    HW211861   7.801   1.510   0.863
 3322SOL     OW11862  11.325   8.313  13.792
 3322SOL    HW111863  11.265   8.359  13.734
 3322SOL    HW211864  11.377   8.258  13.734
 3323SOL     OW11865   5.804  10.497   3.589
 3323SOL    HW111866   5.897  10.522   3.594
 3323SOL    HW211867   5.779  10.480   3.680
 3324SOL     OW11868   8.643  14.137   5.574
 3324SOL    HW111869   8.711  14.177   5.520
 3324SOL    HW211870   8.685  14.126   5.660
 3325SOL     OW11871   2.705  10.946  11.381
 3325SOL    HW111872   2.747  10.868  11.346
 3325SOL    HW211873   2.661  10.917  11.461
 3326SOL     OW11874   1.095   2.153   4.595
 3326SOL    HW111875   1.010   2.175   4.557
 3326SOL    HW211876   1.076   2.086   4.660
 3327SOL     OW11877   0.839   0.634   5.075
 3327SOL    HW111878   0.746   0.656   5.081
 3327SOL    HW211879   0.885   0.716   5.095
 3328SOL     OW11880   6.609  10.201  11.336
 3328SOL    HW111881   6.674  10.165  11.276
 3328SOL    HW211882   6.660  10.235  11.410
 3329SOL     OW11883   5.441   6.084  11.870
 3329SOL    HW111884   5.471   6.040  11.950
 3329SOL    HW211885   5.517   6.133  11.840
 3330SOL     OW11886   0.691   8.449   3.191
 3330SOL    HW111887   0.680   8.394   3.114
 3330SOL    HW211888   0.617   8.510   3.187
 3331SOL     OW11889  11.097   8.120  13.258
 3331SOL    HW111890  11.180   8.100  13.217
 3331SOL    HW211891  11.040   8.046  13.238
 3332SOL     OW11892   7.147   1.368   7.337
 3332SOL    HW111893   7.147   1.318   7.256
 3332SOL    HW211894   7.138   1.303   7.406
 3333SOL     OW11895  10.491   5.289  12.594
 3333SOL    HW111896  10.530   5.203  12.584
 3333SOL    HW211897  10.396   5.274  12.592
 3334SOL     OW11898  12.297   0.044   5.222
 3334SOL    HW111899  12.376   0.042   5.275
 3334SOL    HW211900  12.317   0.105   5.151
 3335SOL     OW11901   6.364   7.356   1.874
 3335SOL    HW111902   6.278   7.396   1.889
 3335SOL    HW211903   6.345   7.277   1.825
 3336SOL     OW11904  12.035   4.351  13.710
 3336SOL    HW111905  11.978   4.388  13.642
 3336SOL    HW211906  12.031   4.256  13.696
 3337SOL     OW11907  13.132   6.618   8.897
 3337SOL    HW111908  13.197   6.559   8.935
 3337SOL    HW211909  13.049   6.592   8.937
 3338SOL     OW11910   1.989   0.755   3.970
 3338SOL    HW111911   2.049   0.730   4.040
 3338SOL    HW211912   1.936   0.677   3.954
 3339SOL     OW11913  14.871  12.059  10.121
 3339SOL    HW111914  14.795  12.018  10.080
 3339SOL    HW211915   0.067  12.015  10.081
 3340SOL     OW11916  14.277   3.567  10.407
 3340SOL    HW111917  14.222   3.523  10.342
 3340SOL    HW211918  14.254   3.525  10.490
 3341SOL     OW11919  10.170   5.964   8.500
 3341SOL    HW111920  10.208   5.987   8.585
 3341SOL    HW211921  10.208   6.029   8.440
 3342SOL     OW11922   1.615  10.442   1.003
 3342SOL    HW111923   1.659  10.379   0.946
 3342SOL    HW211924   1.527  10.450   0.966
 3343SOL     OW11925   2.635  14.728   3.873
 3343SOL    HW111926   2.672  14.640   3.882
 3343SOL    HW211927   2.708  14.786   3.894
 3344SOL     OW11928  14.187   6.481   1.236
 3344SOL    HW111929  14.157   6.410   1.179
 3344SOL    HW211930  14.201   6.440   1.321
 3345SOL     OW11931   0.998   8.241   3.506
 3345SOL    HW111932   0.922   8.274   3.457
 3345SOL    HW211933   1.072   8.293   3.474
 3346SOL     OW11934  11.438  12.175  10.002
 3346SOL    HW111935  11.424  12.260  10.044
 3346SOL    HW211936  11.465  12.118  10.074
 3347SOL     OW11937   8.746  12.031  14.817
 3347SOL    HW111938   8.819  12.035  14.878
 3347SOL    HW211939   8.698  12.112  14.833
 3348SOL     OW11940  10.213   8.715   0.093
 3348SOL    HW111941  10.292   8.674   0.131
 3348SOL    HW211942  10.163   8.746   0.168
 3349SOL     OW11943   3.374  13.791  10.069
 3349SOL    HW111944   3.282  13.767  10.059
 3349SOL    HW211945   3.396  13.837   9.988
 3350SOL     OW11946  14.486   9.757   0.732
 3350SOL    HW111947  14.480   9.758   0.827
 3350SOL    HW211948  14.511   9.667   0.711
 3351SOL     OW11949   7.643   4.250   3.590
 3351SOL    HW111950   7.562   4.281   3.550
 3351SOL    HW211951   7.683   4.194   3.523
 3352SOL     OW11952  13.733   2.325  11.945
 3352SOL    HW111953  13.645   2.313  11.909
 3352SOL    HW211954  13.755   2.415  11.924
 3353SOL     OW11955   3.003  11.292  10.896
 3353SOL    HW111956   2.956  11.304  10.978
 3353SOL    HW211957   2.983  11.370  10.845
 3354SOL     OW11958   7.520   0.891  13.648
 3354SOL    HW111959   7.591   0.827  13.646
 3354SOL    HW211960   7.440   0.838  13.649
 3355SOL     OW11961   2.271  14.062  10.328
 3355SOL    HW111962   2.300  13.973  10.347
 3355SOL    HW211963   2.349  14.107  10.296
 3356SOL     OW11964   4.636   8.379   4.211
 3356SOL    HW111965   4.651   8.363   4.304
 3356SOL    HW211966   4.693   8.317   4.166
 3357SOL     OW11967  14.317  10.264  12.045
 3357SOL    HW111968  14.258  10.225  12.109
 3357SOL    HW211969  14.346  10.191  11.990
 3358SOL     OW11970   7.108   6.099   2.981
 3358SOL    HW111971   7.180   6.058   2.932
 3358SOL    HW211972   7.099   6.046   3.060
 3359SOL     OW11973   0.921   3.780   6.939
 3359SOL    HW111974   0.963   3.833   7.007
 3359SOL    HW211975   0.852   3.732   6.985
 3360SOL     OW11976  12.970   3.344  10.254
 3360SOL    HW111977  12.876   3.359  10.264
 3360SOL    HW211978  12.978   3.296  10.172
 3361SOL     OW11979   7.462   1.046   0.579
 3361SOL    HW111980   7.445   1.040   0.673
 3361SOL    HW211981   7.422   1.129   0.553
 3362SOL     OW11982   8.914   6.586   6.487
 3362SOL    HW111983   8.870   6.633   6.416
 3362SOL    HW211984   8.844   6.534   6.528
 3363SOL     OW11985  11.559  13.717   1.399
 3363SOL    HW111986  11.587  13.744   1.312
 3363SOL    HW211987  11.533  13.798   1.442
 3364SOL     OW11988  11.277   3.551   4.799
 3364SOL    HW111989  11.358   3.505   4.822
 3364SOL    HW211990  11.215   3.481   4.779
 3365SOL     OW11991  11.178   1.486  12.873
 3365SOL    HW111992  11.196   1.403  12.830
 3365SOL    HW211993  11.263   1.530  12.876
 3366SOL     OW11994   6.852  10.315  12.101
 3366SOL    HW111995   6.947  10.305  12.106
 3366SOL    HW211996   6.822  10.237  12.053
 3367SOL     OW11997  11.613   8.860  11.147
 3367SOL    HW111998  11.538   8.919  11.143
 3367SOL    HW211999  11.689   8.918  11.154
 3368SOL     OW12000   2.987  10.078   6.219
 3368SOL    HW112001   3.028  10.121   6.144
 3368SOL    HW212002   3.036  10.110   6.295
 3369SOL     OW12003   9.207   6.934   7.654
 3369SOL    HW112004   9.137   6.998   7.668
 3369SOL    HW212005   9.283   6.972   7.697
 3370SOL     OW12006   7.970   1.843   4.390
 3370SOL    HW112007   7.877   1.865   4.390
 3370SOL    HW212008   8.005   1.886   4.468
 3371SOL     OW12009   4.598   0.802  14.336
 3371SOL    HW112010   4.660   0.789  14.264
 3371SOL    HW212011   4.523   0.845  14.295
 3372SOL     OW12012  13.496   4.822   8.810
 3372SOL    HW112013  13.467   4.782   8.892
 3372SOL    HW212014  13.505   4.748   8.749
 3373SOL     OW12015   9.916  10.713  13.788
 3373SOL    HW112016   9.882  10.624  13.791
 3373SOL    HW212017   9.931  10.736  13.880
 3374SOL     OW12018  12.496   0.710   0.285
 3374SOL    HW112019  12.527   0.703   0.195
 3374SOL    HW212020  12.401   0.709   0.279
 3375SOL     OW12021   1.063   3.918  12.491
 3375SOL    HW112022   1.125   3.969  12.439
 3375SOL    HW212023   1.068   3.956  12.579
 3376SOL     OW12024  11.087   7.274  12.952
 3376SOL    HW112025  11.152   7.342  12.933
 3376SOL    HW212026  11.066   7.286  13.045
 3377SOL     OW12027   2.077  10.364   3.228
 3377SOL    HW112028   1.985  10.385   3.212
 3377SOL    HW212029   2.077  10.315   3.310
 3378SOL     OW12030   2.463   5.589  13.416
 3378SOL    HW112031   2.414   5.508  13.432
 3378SOL    HW212032   2.473   5.592  13.321
 3379SOL     OW12033  12.472   6.744   8.473
 3379SOL    HW112034  12.459   6.705   8.560
 3379SOL    HW212035  12.442   6.676   8.412
 3380SOL     OW12036   1.305   7.332  10.935
 3380SOL    HW112037   1.343   7.359  10.851
 3380SOL    HW212038   1.229   7.279  10.910
 3381SOL     OW12039   1.017   7.451   5.223
 3381SOL    HW112040   1.029   7.357   5.238
 3381SOL    HW212041   1.039   7.491   5.307
 3382SOL     OW12042   7.887   2.244  11.857
 3382SOL    HW112043   7.926   2.193  11.786
 3382SOL    HW212044   7.793   2.228  11.848
 3383SOL     OW12045  11.963   6.881   9.924
 3383SOL    HW112046  11.909   6.836   9.858
 3383SOL    HW212047  12.000   6.810   9.976
 3384SOL     OW12048   6.933   4.022   3.308
 3384SOL    HW112049   6.847   3.990   3.283
 3384SOL    HW212050   6.956   4.085   3.240
 3385SOL     OW12051   7.153   1.687  11.018
 3385SOL    HW112052   7.156   1.710  10.925
 3385SOL    HW212053   7.168   1.592  11.020
 3386SOL     OW12054   1.013   6.696   8.281
 3386SOL    HW112055   1.098   6.661   8.308
 3386SOL    HW212056   0.972   6.626   8.231
 3387SOL     OW12057   1.943   1.198  14.067
 3387SOL    HW112058   1.884   1.190  14.142
 3387SOL    HW212059   2.027   1.165  14.098
 3388SOL     OW12060  12.378   6.312   7.512
 3388SOL    HW112061  12.442   6.258   7.559
 3388SOL    HW212062  12.409   6.311   7.421
 3389SOL     OW12063   6.914   2.362  10.883
 3389SOL    HW112064   6.906   2.455  10.906
 3389SOL    HW212065   7.007   2.352  10.860
 3390SOL     OW12066   6.202   0.451  14.679
 3390SOL    HW112067   6.292   0.460  14.647
 3390SOL    HW212068   6.180   0.359  14.663
 3391SOL     OW12069  12.326   7.104  14.040
 3391SOL    HW112070  12.346   7.030  14.098
 3391SOL    HW212071  12.409   7.150  14.031
 3392SOL     OW12072   0.422   6.091   9.639
 3392SOL    HW112073   0.375   6.039   9.704
 3392SOL    HW212074   0.375   6.175   9.638
 3393SOL     OW12075  13.680  13.425   6.758
 3393SOL    HW112076  13.725  13.500   6.719
 3393SOL    HW212077  13.615  13.400   6.692
 3394SOL     OW12078   2.783   4.909   9.622
 3394SOL    HW112079   2.744   4.827   9.593
 3394SOL    HW212080   2.733   4.977   9.576
 3395SOL     OW12081   6.541   1.687  10.379
 3395SOL    HW112082   6.636   1.675  10.382
 3395SOL    HW212083   6.528   1.781  10.384
 3396SOL     OW12084   1.314  11.767  12.511
 3396SOL    HW112085   1.230  11.810  12.525
 3396SOL    HW212086   1.318  11.700  12.579
 3397SOL     OW12087  12.482  10.048   7.454
 3397SOL    HW112088  12.485  10.132   7.407
 3397SOL    HW212089  12.417   9.997   7.407
 3398SOL     OW12090   4.466   4.405   6.457
 3398SOL    HW112091   4.434   4.382   6.369
 3398SOL    HW212092   4.421   4.487   6.478
 3399SOL     OW12093   5.701   6.767   2.186
 3399SOL    HW112094   5.642   6.779   2.261
 3399SOL    HW212095   5.646   6.780   2.109
 3400SOL     OW12096  14.770   0.036   9.366
 3400SOL    HW112097  14.819   0.083   9.299
 3400SOL    HW212098  14.838   0.001   9.425
 3401SOL     OW12099   3.072  11.821   7.409
 3401SOL    HW112100   3.101  11.732   7.393
 3401SOL    HW212101   2.991  11.812   7.459
 3402SOL     OW12102   1.764   4.914   4.579
 3402SOL    HW112103   1.794   4.976   4.646
 3402SOL    HW212104   1.794   4.951   4.496
 3403SOL     OW12105   1.649   3.227   2.232
 3403SOL    HW112106   1.605   3.161   2.286
 3403SOL    HW212107   1.578   3.273   2.189
 3404SOL     OW12108   6.114  14.370  12.240
 3404SOL    HW112109   6.160  14.415  12.169
 3404SOL    HW212110   6.148  14.280  12.237
 3405SOL     OW12111   1.065   0.833   9.734
 3405SOL    HW112112   1.082   0.803   9.824
 3405SOL    HW212113   1.110   0.770   9.679
 3406SOL     OW12114  14.184  10.226   1.472
 3406SOL    HW112115  14.173  10.191   1.560
 3406SOL    HW212116  14.260  10.181   1.437
 3407SOL     OW12117   8.498   9.362   8.577
 3407SOL    HW112118   8.519   9.419   8.651
 3407SOL    HW212119   8.489   9.275   8.615
 3408SOL     OW12120  13.755   1.863   3.945
 3408SOL    HW112121  13.719   1.782   3.909
 3408SOL    HW212122  13.699   1.932   3.910
 3409SOL     OW12123   9.439   6.580   4.555
 3409SOL    HW112124   9.365   6.634   4.585
 3409SOL    HW212125   9.410   6.547   4.470
 3410SOL     OW12126   0.849   9.882  13.128
 3410SOL    HW112127   0.931   9.926  13.106
 3410SOL    HW212128   0.792   9.952  13.158
 3411SOL     OW12129  11.756   9.839   3.831
 3411SOL    HW112130  11.845   9.860   3.858
 3411SOL    HW212131  11.751   9.744   3.835
 3412SOL     OW12132   7.783   4.139  14.475
 3412SOL    HW112133   7.772   4.193  14.397
 3412SOL    HW212134   7.812   4.054  14.442
 3413SOL     OW12135   2.406   9.282   0.157
 3413SOL    HW112136   2.469   9.342   0.118
 3413SOL    HW212137   2.431   9.195   0.126
 3414SOL     OW12138  13.181   2.523  11.187
 3414SOL    HW112139  13.208   2.614  11.178
 3414SOL    HW212140  13.237   2.475  11.126
 3415SOL     OW12141  12.739  11.001   1.779
 3415SOL    HW112142  12.753  10.909   1.802
 3415SOL    HW212143  12.644  11.011   1.775
 3416SOL     OW12144   7.063   5.050  12.272
 3416SOL    HW112145   7.129   5.061  12.204
 3416SOL    HW212146   7.007   5.128  12.265
 3417SOL     OW12147   6.013  13.955   8.173
 3417SOL    HW112148   5.929  13.984   8.209
 3417SOL    HW212149   6.015  13.861   8.190
 3418SOL     OW12150  12.994   8.537   2.242
 3418SOL    HW112151  12.914   8.584   2.218
 3418SOL    HW212152  13.004   8.470   2.174
 3419SOL     OW12153  13.980   0.968  12.174
 3419SOL    HW112154  13.965   0.936  12.085
 3419SOL    HW212155  14.075   0.961  12.186
 3420SOL     OW12156   8.740  10.605   7.809
 3420SOL    HW112157   8.782  10.657   7.878
 3420SOL    HW212158   8.736  10.663   7.734
 3421SOL     OW12159   7.584   4.526   8.088
 3421SOL    HW112160   7.580   4.474   8.007
 3421SOL    HW212161   7.677   4.545   8.099
 3422SOL     OW12162   2.054  10.231   5.945
 3422SOL    HW112163   1.959  10.237   5.933
 3422SOL    HW212164   2.081  10.159   5.887
 3423SOL     OW12165  11.757   2.044   3.438
 3423SOL    HW112166  11.821   2.104   3.476
 3423SOL    HW212167  11.695   2.100   3.392
 3424SOL     OW12168   1.716   8.610  12.151
 3424SOL    HW112169   1.625   8.627  12.175
 3424SOL    HW212170   1.757   8.579  12.231
 3425SOL     OW12171  11.996   9.420   3.205
 3425SOL    HW112172  12.012   9.505   3.163
 3425SOL    HW212173  12.083   9.386   3.225
 3426SOL     OW12174   5.321  11.915   8.297
 3426SOL    HW112175   5.302  11.860   8.221
 3426SOL    HW212176   5.280  11.999   8.277
 3427SOL     OW12177   7.364  10.768   9.632
 3427SOL    HW112178   7.300  10.739   9.567
 3427SOL    HW212179   7.334  10.856   9.658
 3428SOL     OW12180   6.809   2.977  12.107
 3428SOL    HW112181   6.736   3.030  12.138
 3428SOL    HW212182   6.884   3.037  12.106
 3429SOL     OW12183   8.824   4.898   1.255
 3429SOL    HW112184   8.888   4.874   1.323
 3429SOL    HW212185   8.853   4.850   1.178
 3430SOL     OW12186   5.686   1.758   2.352
 3430SOL    HW112187   5.601   1.717   2.368
 3430SOL    HW212188   5.666   1.848   2.327
 3431SOL     OW12189  13.517   0.552  14.398
 3431SOL    HW112190  13.611   0.564  14.390
 3431SOL    HW212191  13.496   0.484  14.333
 3432SOL     OW12192   0.159   9.980   9.748
 3432SOL    HW112193   0.243  10.020   9.727
 3432SOL    HW212194   0.177   9.886   9.748
 3433SOL     OW12195   9.012  11.954   6.633
 3433SOL    HW112196   8.924  11.934   6.600
 3433SOL    HW212197   9.028  12.044   6.602
 3434SOL     OW12198  12.230  12.028  14.543
 3434SOL    HW112199  12.324  12.042  14.533
 3434SOL    HW212200  12.193  12.116  14.547
 3435SOL     OW12201   6.041  12.467   8.660
 3435SOL    HW112202   5.951  12.451   8.632
 3435SOL    HW212203   6.086  12.384   8.646
 3436SOL     OW12204  11.986  13.336  12.301
 3436SOL    HW112205  12.034  13.407  12.343
 3436SOL    HW212206  11.995  13.262  12.361
 3437SOL     OW12207  12.910  12.224  10.904
 3437SOL    HW112208  12.999  12.250  10.930
 3437SOL    HW212209  12.855  12.255  10.976
 3438SOL     OW12210  12.519   1.289   4.339
 3438SOL    HW112211  12.445   1.349   4.335
 3438SOL    HW212212  12.487   1.208   4.299
 3439SOL     OW12213  12.999  11.503   7.777
 3439SOL    HW112214  13.004  11.583   7.725
 3439SOL    HW212215  12.954  11.441   7.721
 3440SOL     OW12216   7.948   3.731   6.850
 3440SOL    HW112217   7.913   3.762   6.766
 3440SOL    HW212218   7.992   3.649   6.829
 3441SOL     OW12219   3.447   1.951   3.059
 3441SOL    HW112220   3.352   1.963   3.052
 3441SOL    HW212221   3.470   1.898   2.983
 3442SOL     OW12222   6.023   2.925   4.640
 3442SOL    HW112223   5.933   2.952   4.617
 3442SOL    HW212224   6.078   2.981   4.586
 3443SOL     OW12225   5.032   9.437  12.236
 3443SOL    HW112226   4.990   9.523  12.226
 3443SOL    HW212227   5.078   9.424  12.154
 3444SOL     OW12228  12.718   7.021  11.880
 3444SOL    HW112229  12.786   6.955  11.894
 3444SOL    HW212230  12.699   7.056  11.967
 3445SOL     OW12231   3.687  10.268   3.719
 3445SOL    HW112232   3.624  10.264   3.790
 3445SOL    HW212233   3.722  10.358   3.722
 3446SOL     OW12234   7.164   1.656   7.151
 3446SOL    HW112235   7.143   1.614   7.234
 3446SOL    HW212236   7.211   1.736   7.175
 3447SOL     OW12237  11.247  13.241   3.489
 3447SOL    HW112238  11.281  13.192   3.413
 3447SOL    HW212239  11.217  13.173   3.549
 3448SOL     OW12240  12.596   1.630   4.803
 3448SOL    HW112241  12.515   1.675   4.780
 3448SOL    HW212242  12.571   1.537   4.806
 3449SOL     OW12243   6.472   2.175   0.829
 3449SOL    HW112244   6.470   2.111   0.757
 3449SOL    HW212245   6.534   2.137   0.892
 3450SOL     OW12246   1.182  11.718  10.923
 3450SOL    HW112247   1.262  11.769  10.934
 3450SOL    HW212248   1.203  11.631  10.957
 3451SOL     OW12249  14.314   5.348   3.046
 3451SOL    HW112250  14.387   5.382   2.994
 3451SOL    HW212251  14.245   5.412   3.035
 3452SOL     OW12252   4.041   8.051  14.017
 3452SOL    HW112253   4.136   8.051  14.001
 3452SOL    HW212254   4.030   8.102  14.097
 3453SOL     OW12255   6.547   2.281   1.671
 3453SOL    HW112256   6.519   2.373   1.677
 3453SOL    HW212257   6.465   2.232   1.667
 3454SOL     OW12258  14.504  11.391   6.791
 3454SOL    HW112259  14.522  11.383   6.698
 3454SOL    HW212260  14.509  11.485   6.809
 3455SOL     OW12261   2.870   9.974   4.477
 3455SOL    HW112262   2.866   9.891   4.523
 3455SOL    HW212263   2.827  10.036   4.536
 3456SOL     OW12264   8.614   3.362  14.370
 3456SOL    HW112265   8.683   3.405  14.319
 3456SOL    HW212266   8.612   3.272  14.339
 3457SOL     OW12267   6.226   9.245  12.894
 3457SOL    HW112268   6.197   9.238  12.985
 3457SOL    HW212269   6.186   9.170  12.851
 3458SOL     OW12270  14.075   8.636  10.379
 3458SOL    HW112271  14.056   8.715  10.429
 3458SOL    HW212272  14.167   8.644  10.355
 3459SOL     OW12273   2.761  12.799   2.270
 3459SOL    HW112274   2.839  12.854   2.277
 3459SOL    HW212275   2.772  12.753   2.186
 3460SOL     OW12276   0.228   0.966   8.863
 3460SOL    HW112277   0.189   0.882   8.887
 3460SOL    HW212278   0.222   0.970   8.768
 3461SOL     OW12279   6.636  12.171  11.850
 3461SOL    HW112280   6.646  12.245  11.791
 3461SOL    HW212281   6.628  12.095  11.793
 3462SOL     OW12282   9.124   7.197   4.579
 3462SOL    HW112283   9.046   7.252   4.580
 3462SOL    HW212284   9.095   7.112   4.611
 3463SOL     OW12285  12.011   8.985   4.372
 3463SOL    HW112286  11.985   8.893   4.376
 3463SOL    HW212287  11.938   9.029   4.326
 3464SOL     OW12288   1.413   7.668   1.777
 3464SOL    HW112289   1.381   7.757   1.760
 3464SOL    HW212290   1.412   7.659   1.872
 3465SOL     OW12291   8.819  11.369   1.996
 3465SOL    HW112292   8.829  11.463   2.013
 3465SOL    HW212293   8.725  11.355   1.993
 3466SOL     OW12294  12.583   5.218  13.851
 3466SOL    HW112295  12.516   5.213  13.919
 3466SOL    HW212296  12.543   5.175  13.775
 3467SOL     OW12297  14.481  10.795  14.515
 3467SOL    HW112298  14.554  10.835  14.468
 3467SOL    HW212299  14.454  10.722  14.459
 3468SOL     OW12300  14.841   7.938   3.125
 3468SOL    HW112301  14.768   7.973   3.074
 3468SOL    HW212302  14.850   7.998   3.199
 3469SOL     OW12303   8.728  11.467   1.097
 3469SOL    HW112304   8.635  11.468   1.120
 3469SOL    HW212305   8.759  11.381   1.127
 3470SOL     OW12306  13.197   5.342   6.862
 3470SOL    HW112307  13.180   5.312   6.951
 3470SOL    HW212308  13.291   5.328   6.849
 3471SOL     OW12309   7.108   0.500   0.689
 3471SOL    HW112310   7.151   0.584   0.706
 3471SOL    HW212311   7.052   0.517   0.613
 3472SOL     OW12312  14.156   6.021   2.765
 3472SOL    HW112313  14.241   6.058   2.788
 3472SOL    HW212314  14.104   6.096   2.735
 3473SOL     OW12315  11.039  11.197  10.145
 3473SOL    HW112316  11.070  11.152  10.067
 3473SOL    HW212317  11.011  11.126  10.204
 3474SOL     OW12318  11.291  12.282   3.403
 3474SOL    HW112319  11.282  12.330   3.320
 3474SOL    HW212320  11.350  12.336   3.455
 3475SOL     OW12321  12.605   4.356   9.631
 3475SOL    HW112322  12.683   4.318   9.670
 3475SOL    HW212323  12.620   4.450   9.633
 3476SOL     OW12324   1.995   2.221  14.757
 3476SOL    HW112325   1.903   2.249  14.758
 3476SOL    HW212326   2.039   2.280  14.818
 3477SOL     OW12327  10.803   2.059   9.747
 3477SOL    HW112328  10.815   1.994   9.815
 3477SOL    HW212329  10.733   2.116   9.780
 3478SOL     OW12330  12.177   6.080  11.919
 3478SOL    HW112331  12.166   6.032  12.001
 3478SOL    HW212332  12.157   6.015  11.851
 3479SOL     OW12333  11.627  10.438   8.797
 3479SOL    HW112334  11.563  10.423   8.867
 3479SOL    HW212335  11.706  10.391   8.827
 3480SOL     OW12336  11.781  10.568   5.695
 3480SOL    HW112337  11.875  10.551   5.682
 3480SOL    HW212338  11.740  10.533   5.616
 3481SOL     OW12339   4.059  10.264   1.119
 3481SOL    HW112340   4.110  10.327   1.068
 3481SOL    HW212341   3.968  10.280   1.093
 3482SOL     OW12342  10.284   6.882   9.067
 3482SOL    HW112343  10.285   6.977   9.060
 3482SOL    HW212344  10.375   6.856   9.056
 3483SOL     OW12345   3.069   1.716   1.538
 3483SOL    HW112346   2.995   1.659   1.559
 3483SOL    HW212347   3.123   1.715   1.617
 3484SOL     OW12348  12.538   2.178   6.053
 3484SOL    HW112349  12.602   2.118   6.013
 3484SOL    HW212350  12.487   2.212   5.980
 3485SOL     OW12351  13.130   3.988   8.945
 3485SOL    HW112352  13.126   4.042   9.024
 3485SOL    HW212353  13.183   3.912   8.969
 3486SOL     OW12354   2.406  11.981  14.279
 3486SOL    HW112355   2.463  12.051  14.245
 3486SOL    HW212356   2.408  11.994  14.374
 3487SOL     OW12357  10.478  11.424   6.600
 3487SOL    HW112358  10.430  11.401   6.520
 3487SOL    HW212359  10.570  11.420   6.574
 3488SOL     OW12360  10.813   5.809  13.228
 3488SOL    HW112361  10.869   5.883  13.251
 3488SOL    HW212362  10.840   5.786  13.139
 3489SOL     OW12363  10.604   8.022   7.903
 3489SOL    HW112364  10.667   8.008   7.974
 3489SOL    HW212365  10.526   8.055   7.947
 3490SOL     OW12366  12.913   7.259  14.010
 3490SOL    HW112367  12.819   7.261  13.992
 3490SOL    HW212368  12.945   7.342  13.976
 3491SOL     OW12369  10.934  14.714  13.710
 3491SOL    HW112370  11.002  14.707  13.778
 3491SOL    HW212371  10.923  14.624  13.679
 3492SOL     OW12372   2.523   2.505   0.455
 3492SOL    HW112373   2.598   2.445   0.456
 3492SOL    HW212374   2.447   2.448   0.469
 3493SOL     OW12375   1.316  11.977   0.775
 3493SOL    HW112376   1.373  12.051   0.752
 3493SOL    HW212377   1.230  12.001   0.741
 3494SOL     OW12378   4.661  13.894   9.023
 3494SOL    HW112379   4.721  13.945   9.078
 3494SOL    HW212380   4.713  13.872   8.946
 3495SOL     OW12381  11.131   8.043   3.883
 3495SOL    HW112382  11.212   8.090   3.901
 3495SOL    HW212383  11.156   7.951   3.882
 3496SOL     OW12384  11.361   3.627   1.159
 3496SOL    HW112385  11.433   3.567   1.181
 3496SOL    HW212386  11.344   3.612   1.066
 3497SOL     OW12387   3.358   1.289   3.611
 3497SOL    HW112388   3.368   1.247   3.526
 3497SOL    HW212389   3.447   1.295   3.646
 3498SOL     OW12390  14.219   9.279   8.302
 3498SOL    HW112391  14.231   9.300   8.395
 3498SOL    HW212392  14.272   9.344   8.256
 3499SOL     OW12393  12.900   7.699  12.760
 3499SOL    HW112394  12.966   7.702  12.691
 3499SOL    HW212395  12.931   7.632  12.821
 3500SOL     OW12396   9.381  13.495  14.104
 3500SOL    HW112397   9.441  13.455  14.041
 3500SOL    HW212398   9.422  13.579  14.126
 3501SOL     OW12399   3.319   7.067  10.146
 3501SOL    HW112400   3.224   7.062  10.139
 3501SOL    HW212401   3.340   7.015  10.224
 3502SOL     OW12402  12.648   8.692   8.671
 3502SOL    HW112403  12.706   8.670   8.744
 3502SOL    HW212404  12.608   8.775   8.696
 3503SOL     OW12405  12.138   4.964  10.004
 3503SOL    HW112406  12.165   4.903   9.935
 3503SOL    HW212407  12.221   5.002  10.036
 3504SOL     OW12408   0.670  12.518   5.226
 3504SOL    HW112409   0.679  12.568   5.307
 3504SOL    HW212410   0.625  12.578   5.166
 3505SOL     OW12411  13.216  14.650   7.429
 3505SOL    HW112412  13.127  14.615   7.435
 3505SOL    HW212413  13.267  14.578   7.392
 3506SOL     OW12414   1.577   6.293  12.151
 3506SOL    HW112415   1.525   6.253  12.220
 3506SOL    HW212416   1.547   6.384  12.149
 3507SOL     OW12417  11.594   5.194  12.011
 3507SOL    HW112418  11.652   5.121  12.031
 3507SOL    HW212419  11.539   5.162  11.939
 3508SOL     OW12420   3.561  13.921  13.955
 3508SOL    HW112421   3.621  13.915  14.030
 3508SOL    HW212422   3.600  13.864  13.889
 3509SOL     OW12423  10.116   7.352   6.424
 3509SOL    HW112424  10.027   7.367   6.456
 3509SOL    HW212425  10.112   7.265   6.383
 3510SOL     OW12426   6.210   3.281   9.733
 3510SOL    HW112427   6.160   3.315   9.659
 3510SOL    HW212428   6.152   3.291   9.808
 3511SOL     OW12429   5.751   2.319   9.403
 3511SOL    HW112430   5.831   2.371   9.408
 3511SOL    HW212431   5.680   2.384   9.401
 3512SOL     OW12432  13.740  12.500  12.943
 3512SOL    HW112433  13.690  12.422  12.965
 3512SOL    HW212434  13.792  12.475  12.867
 3513SOL     OW12435  13.401   0.730   1.033
 3513SOL    HW112436  13.396   0.749   0.939
 3513SOL    HW212437  13.493   0.745   1.055
 3514SOL     OW12438   1.406   4.506   6.826
 3514SOL    HW112439   1.463   4.582   6.832
 3514SOL    HW212440   1.317   4.543   6.823
 3515SOL     OW12441   0.187   6.054  10.807
 3515SOL    HW112442   0.162   5.964  10.783
 3515SOL    HW212443   0.138   6.071  10.888
 3516SOL     OW12444   5.877  12.512   4.140
 3516SOL    HW112445   5.834  12.450   4.081
 3516SOL    HW212446   5.816  12.586   4.145
 3517SOL     OW12447  11.628   7.009   1.736
 3517SOL    HW112448  11.701   7.052   1.781
 3517SOL    HW212449  11.668   6.946   1.677
 3518SOL     OW12450   9.457   6.524  14.632
 3518SOL    HW112451   9.495   6.587  14.571
 3518SOL    HW212452   9.465   6.440  14.588
 3519SOL     OW12453  10.766  12.358   0.877
 3519SOL    HW112454  10.800  12.365   0.966
 3519SOL    HW212455  10.838  12.321   0.826
 3520SOL     OW12456   9.194   5.823   8.966
 3520SOL    HW112457   9.144   5.743   8.952
 3520SOL    HW212458   9.150   5.867   9.038
 3521SOL     OW12459   2.049  13.742  12.824
 3521SOL    HW112460   2.110  13.794  12.772
 3521SOL    HW212461   2.104  13.694  12.885
 3522SOL     OW12462   5.741   0.710  13.869
 3522SOL    HW112463   5.754   0.633  13.814
 3522SOL    HW212464   5.658   0.695  13.914
 3523SOL     OW12465  13.470   4.785   9.088
 3523SOL    HW112466  13.436   4.702   9.056
 3523SOL    HW212467  13.478   4.773   9.183
 3524SOL     OW12468  10.222   0.591  13.887
 3524SOL    HW112469  10.214   0.660  13.954
 3524SOL    HW212470  10.182   0.629  13.809
 3525SOL     OW12471  11.725   1.638   3.018
 3525SOL    HW112472  11.681   1.723   3.028
 3525SOL    HW212473  11.807   1.659   2.974
 3526SOL     OW12474   7.370  11.901   3.345
 3526SOL    HW112475   7.332  11.944   3.269
 3526SOL    HW212476   7.436  11.842   3.309
 3527SOL     OW12477  13.016  12.742   5.880
 3527SOL    HW112478  13.076  12.803   5.923
 3527SOL    HW212479  13.022  12.662   5.932
 3528SOL     OW12480   8.028   0.558   9.440
 3528SOL    HW112481   8.100   0.573   9.379
 3528SOL    HW212482   8.066   0.504   9.509
 3529SOL     OW12483   4.075   4.084   2.774
 3529SOL    HW112484   4.053   4.115   2.686
 3529SOL    HW212485   4.135   4.150   2.808
 3530SOL     OW12486  12.459   9.454   5.722
 3530SOL    HW112487  12.447   9.547   5.700
 3530SOL    HW212488  12.525   9.423   5.660
 3531SOL     OW12489   8.095   3.616   5.269
 3531SOL    HW112490   8.047   3.607   5.352
 3531SOL    HW212491   8.032   3.589   5.202
 3532SOL     OW12492  14.228  12.151   9.753
 3532SOL    HW112493  14.231  12.073   9.808
 3532SOL    HW212494  14.314  12.152   9.709
 3533SOL     OW12495   1.238  11.644   7.629
 3533SOL    HW112496   1.145  11.665   7.640
 3533SOL    HW212497   1.239  11.567   7.574
 3534SOL     OW12498   6.797  14.168   5.382
 3534SOL    HW112499   6.709  14.170   5.419
 3534SOL    HW212500   6.837  14.249   5.413
 3535SOL     OW12501   8.082  13.644   7.865
 3535SOL    HW112502   8.054  13.624   7.955
 3535SOL    HW212503   8.177  13.654   7.872
 3536SOL     OW12504  11.460   6.819   6.537
 3536SOL    HW112505  11.371   6.831   6.570
 3536SOL    HW212506  11.457   6.736   6.491
 3537SOL     OW12507  13.678   5.394   2.560
 3537SOL    HW112508  13.635   5.352   2.486
 3537SOL    HW212509  13.614   5.391   2.631
 3538SOL     OW12510   2.699  13.121  10.685
 3538SOL    HW112511   2.668  13.135  10.596
 3538SOL    HW212512   2.632  13.067  10.727
 3539SOL     OW12513  14.062   4.704   2.482
 3539SOL    HW112514  13.967   4.708   2.493
 3539SOL    HW212515  14.097   4.750   2.559
 3540SOL     OW12516   2.549  11.025   2.477
 3540SOL    HW112517   2.480  10.978   2.430
 3540SOL    HW212518   2.503  11.068   2.550
 3541SOL     OW12519  10.784   1.009   2.696
 3541SOL    HW112520  10.837   0.932   2.674
 3541SOL    HW212521  10.757   0.994   2.786
 3542SOL     OW12522   7.194  14.475   9.404
 3542SOL    HW112523   7.142  14.555   9.402
 3542SOL    HW212524   7.257  14.485   9.332
 3543SOL     OW12525  13.753   4.120  11.500
 3543SOL    HW112526  13.770   4.191  11.439
 3543SOL    HW212527  13.680   4.151  11.553
 3544SOL     OW12528   8.202   4.860   0.522
 3544SOL    HW112529   8.295   4.881   0.513
 3544SOL    HW212530   8.171   4.919   0.591
 3545SOL     OW12531  13.511   7.904  12.819
 3545SOL    HW112532  13.544   7.895  12.730
 3545SOL    HW212533  13.416   7.892  12.811
 3546SOL     OW12534   5.995   9.959   0.872
 3546SOL    HW112535   6.050  10.036   0.884
 3546SOL    HW212536   6.057   9.886   0.868
 3547SOL     OW12537   3.551   6.644   3.069
 3547SOL    HW112538   3.549   6.739   3.062
 3547SOL    HW212539   3.467   6.621   3.109
 3548SOL     OW12540   1.433   9.546  11.622
 3548SOL    HW112541   1.404   9.629  11.661
 3548SOL    HW212542   1.444   9.566  11.529
 3549SOL     OW12543   7.251   5.147   2.017
 3549SOL    HW112544   7.209   5.072   2.059
 3549SOL    HW212545   7.321   5.172   2.077
 3550SOL     OW12546  13.635   3.457  10.604
 3550SOL    HW112547  13.660   3.412  10.685
 3550SOL    HW212548  13.558   3.410  10.573
 3551SOL     OW12549  10.905   7.569   8.197
 3551SOL    HW112550  10.935   7.503   8.135
 3551SOL    HW212551  10.812   7.578   8.180
 3552SOL     OW12552   8.573   1.829   5.033
 3552SOL    HW112553   8.661   1.838   4.997
 3552SOL    HW212554   8.516   1.816   4.957
 3553SOL     OW12555  10.632   0.473   8.040
 3553SOL    HW112556  10.642   0.462   8.135
 3553SOL    HW212557  10.669   0.559   8.022
 3554SOL     OW12558   7.891   7.762   3.565
 3554SOL    HW112559   7.808   7.715   3.576
 3554SOL    HW212560   7.908   7.758   3.471
 3555SOL     OW12561  10.934  12.132   3.283
 3555SOL    HW112562  10.998  12.075   3.241
 3555SOL    HW212563  10.968  12.220   3.268
 3556SOL     OW12564   1.755  10.840   5.976
 3556SOL    HW112565   1.776  10.749   5.995
 3556SOL    HW212566   1.695  10.866   6.046
 3557SOL     OW12567   5.281   1.978   9.299
 3557SOL    HW112568   5.260   2.062   9.258
 3557SOL    HW212569   5.373   1.963   9.278
 3558SOL     OW12570   0.712   9.804   0.924
 3558SOL    HW112571   0.794   9.811   0.875
 3558SOL    HW212572   0.655   9.870   0.885
 3559SOL     OW12573   3.132   3.379   4.139
 3559SOL    HW112574   3.225   3.361   4.146
 3559SOL    HW212575   3.090   3.312   4.194
 3560SOL     OW12576   9.667   7.576   6.578
 3560SOL    HW112577   9.707   7.600   6.661
 3560SOL    HW212578   9.574   7.593   6.591
 3561SOL     OW12579  10.861   1.589   2.386
 3561SOL    HW112580  10.787   1.613   2.442
 3561SOL    HW212581  10.852   1.644   2.308
 3562SOL     OW12582   6.738   9.374   8.758
 3562SOL    HW112583   6.762   9.330   8.677
 3562SOL    HW212584   6.789   9.455   8.759
 3563SOL     OW12585   9.895   9.065  11.235
 3563SOL    HW112586   9.834   9.096  11.168
 3563SOL    HW212587   9.938   8.990  11.194
 3564SOL     OW12588   5.549   1.754   9.099
 3564SOL    HW112589   5.565   1.710   9.016
 3564SOL    HW212590   5.605   1.832   9.097
 3565SOL     OW12591   5.588   5.553   8.885
 3565SOL    HW112592   5.545   5.481   8.931
 3565SOL    HW212593   5.681   5.539   8.902
 3566SOL     OW12594   8.491  13.441   4.610
 3566SOL    HW112595   8.496  13.424   4.704
 3566SOL    HW212596   8.404  13.410   4.585
 3567SOL     OW12597   3.574   4.968   4.834
 3567SOL    HW112598   3.626   4.967   4.914
 3567SOL    HW212599   3.631   5.009   4.769
 3568SOL     OW12600   1.216   3.693  13.856
 3568SOL    HW112601   1.212   3.660  13.766
 3568SOL    HW212602   1.288   3.643  13.896
 3569SOL     OW12603  13.426  13.477   9.570
 3569SOL    HW112604  13.493  13.412   9.591
 3569SOL    HW212605  13.475  13.551   9.533
 3570SOL     OW12606   5.753   8.135   9.463
 3570SOL    HW112607   5.666   8.109   9.431
 3570SOL    HW212608   5.806   8.056   9.454
 3571SOL     OW12609   5.784   8.032   3.972
 3571SOL    HW112610   5.820   8.015   4.059
 3571SOL    HW212611   5.784   8.127   3.965
 3572SOL     OW12612   3.379  10.048   5.756
 3572SOL    HW112613   3.400  10.077   5.667
 3572SOL    HW212614   3.299   9.997   5.747
 3573SOL     OW12615   9.159  12.289   0.340
 3573SOL    HW112616   9.168  12.203   0.300
 3573SOL    HW212617   9.086  12.279   0.401
 3574SOL     OW12618   6.685   7.973  11.088
 3574SOL    HW112619   6.620   8.022  11.037
 3574SOL    HW212620   6.633   7.928  11.154
 3575SOL     OW12621  11.957   5.375   8.244
 3575SOL    HW112622  12.043   5.334   8.254
 3575SOL    HW212623  11.930   5.397   8.333
 3576SOL     OW12624   7.585   9.156   1.438
 3576SOL    HW112625   7.579   9.114   1.352
 3576SOL    HW212626   7.582   9.084   1.500
 3577SOL     OW12627  10.447  13.392   6.916
 3577SOL    HW112628  10.359  13.384   6.881
 3577SOL    HW212629  10.505  13.378   6.841
 3578SOL     OW12630  12.672   4.890   9.653
 3578SOL    HW112631  12.757   4.922   9.685
 3578SOL    HW212632  12.656   4.940   9.574
 3579SOL     OW12633  11.299   1.122  13.588
 3579SOL    HW112634  11.211   1.160  13.585
 3579SOL    HW212635  11.350   1.185  13.640
 3580SOL     OW12636   3.132  10.167   1.770
 3580SOL    HW112637   3.222  10.185   1.798
 3580SOL    HW212638   3.085  10.151   1.851
 3581SOL     OW12639   9.436   3.678   3.873
 3581SOL    HW112640   9.378   3.612   3.836
 3581SOL    HW212641   9.382   3.757   3.880
 3582SOL     OW12642   2.732   8.560  12.028
 3582SOL    HW112643   2.804   8.619  12.050
 3582SOL    HW212644   2.731   8.559  11.932
 3583SOL     OW12645  14.136   6.821  11.556
 3583SOL    HW112646  14.213   6.797  11.505
 3583SOL    HW212647  14.149   6.914  11.576
 3584SOL     OW12648  12.286   5.625   4.881
 3584SOL    HW112649  12.269   5.584   4.796
 3584SOL    HW212650  12.373   5.665   4.871
 3585SOL     OW12651   4.489   7.472   0.722
 3585SOL    HW112652   4.578   7.494   0.694
 3585SOL    HW212653   4.437   7.471   0.642
 3586SOL     OW12654   2.449   9.185  11.966
 3586SOL    HW112655   2.515   9.145  11.909
 3586SOL    HW212656   2.367   9.139  11.944
 3587SOL     OW12657   2.249   7.406  11.942
 3587SOL    HW112658   2.307   7.361  11.881
 3587SOL    HW212659   2.282   7.496  11.945
 3588SOL     OW12660   7.862   0.898  13.590
 3588SOL    HW112661   7.852   0.993  13.585
 3588SOL    HW212662   7.842   0.867  13.501
 3589SOL     OW12663  11.228   3.012  11.711
 3589SOL    HW112664  11.222   3.106  11.728
 3589SOL    HW212665  11.177   2.999  11.631
 3590SOL     OW12666   5.832  14.797   5.538
 3590SOL    HW112667   5.800  14.869   5.591
 3590SOL    HW212668   5.910  14.831   5.494
 3591SOL     OW12669   0.228   4.963  10.260
 3591SOL    HW112670   0.194   4.877  10.235
 3591SOL    HW212671   0.320   4.960  10.236
 3592SOL     OW12672  10.223  13.014  13.144
 3592SOL    HW112673  10.230  12.977  13.232
 3592SOL    HW212674  10.188  12.943  13.090
 3593SOL     OW12675  14.034   4.520   4.819
 3593SOL    HW112676  14.095   4.590   4.798
 3593SOL    HW212677  14.063   4.446   4.765
 3594SOL     OW12678   2.988   8.449   1.774
 3594SOL    HW112679   3.045   8.373   1.768
 3594SOL    HW212680   2.996   8.478   1.865
 3595SOL     OW12681  14.126   1.150  10.592
 3595SOL    HW112682  14.052   1.090  10.603
 3595SOL    HW212683  14.204   1.096  10.601
 3596SOL     OW12684   5.782   2.211  13.962
 3596SOL    HW112685   5.708   2.200  14.021
 3596SOL    HW212686   5.743   2.238  13.879
 3597SOL     OW12687   2.482   3.610  13.558
 3597SOL    HW112688   2.546   3.657  13.505
 3597SOL    HW212689   2.493   3.645  13.646
 3598SOL     OW12690   6.374   3.304   7.239
 3598SOL    HW112691   6.373   3.210   7.222
 3598SOL    HW212692   6.320   3.342   7.169
 3599SOL     OW12693   6.687   7.158   5.647
 3599SOL    HW112694   6.705   7.065   5.656
 3599SOL    HW212695   6.650   7.168   5.560
 3600SOL     OW12696  11.132   8.038   1.658
 3600SOL    HW112697  11.183   8.112   1.626
 3600SOL    HW212698  11.043   8.072   1.666
 3601SOL     OW12699   7.778   8.985  12.253
 3601SOL    HW112700   7.822   9.023  12.330
 3601SOL    HW212701   7.709   8.930  12.290
 3602SOL     OW12702  11.680   0.853   4.164
 3602SOL    HW112703  11.721   0.846   4.250
 3602SOL    HW212704  11.595   0.811   4.175
 3603SOL     OW12705  12.548  11.755  12.642
 3603SOL    HW112706  12.617  11.803  12.687
 3603SOL    HW212707  12.542  11.671  12.690
 3604SOL     OW12708  14.357   4.999   4.571
 3604SOL    HW112709  14.274   5.022   4.612
 3604SOL    HW212710  14.405   5.082   4.566
 3605SOL     OW12711   3.221  13.827   3.190
 3605SOL    HW112712   3.128  13.805   3.190
 3605SOL    HW212713   3.237  13.864   3.102
 3606SOL     OW12714   8.804   3.875   1.261
 3606SOL    HW112715   8.830   3.852   1.350
 3606SOL    HW212716   8.886   3.895   1.217
 3607SOL     OW12717   7.870   9.054   0.780
 3607SOL    HW112718   7.830   8.972   0.751
 3607SOL    HW212719   7.799   9.118   0.773
 3608SOL     OW12720   1.426   6.971   2.181
 3608SOL    HW112721   1.384   6.964   2.095
 3608SOL    HW212722   1.379   7.041   2.225
 3609SOL     OW12723   9.652   2.430   2.427
 3609SOL    HW112724   9.720   2.363   2.419
 3609SOL    HW212725   9.653   2.454   2.520
 3610SOL     OW12726  13.972  13.169   2.900
 3610SOL    HW112727  14.050  13.194   2.950
 3610SOL    HW212728  13.996  13.086   2.858
 3611SOL     OW12729   2.967   8.920   2.067
 3611SOL    HW112730   2.974   8.917   1.971
 3611SOL    HW212731   2.886   8.873   2.087
 3612SOL     OW12732  12.237   3.667  12.050
 3612SOL    HW112733  12.329   3.670  12.076
 3612SOL    HW212734  12.216   3.757  12.026
 3613SOL     OW12735   1.493   8.866   4.255
 3613SOL    HW112736   1.460   8.922   4.324
 3613SOL    HW212737   1.429   8.795   4.248
 3614SOL     OW12738  11.310   4.440  10.822
 3614SOL    HW112739  11.367   4.399  10.757
 3614SOL    HW212740  11.327   4.534  10.814
 3615SOL     OW12741   4.804  13.079  12.305
 3615SOL    HW112742   4.798  13.003  12.248
 3615SOL    HW212743   4.792  13.044  12.393
 3616SOL     OW12744   7.745   0.230  10.975
 3616SOL    HW112745   7.653   0.254  10.987
 3616SOL    HW212746   7.745   0.135  10.969
 3617SOL     OW12747   7.419  14.709   4.037
 3617SOL    HW112748   7.400  14.790   4.084
 3617SOL    HW212749   7.412  14.732   3.945
 3618SOL     OW12750  10.072   2.056   7.625
 3618SOL    HW112751  10.047   2.137   7.580
 3618SOL    HW212752  10.088   1.993   7.554
 3619SOL     OW12753   9.622  10.653   0.893
 3619SOL    HW112754   9.579  10.609   0.967
 3619SOL    HW212755   9.594  10.744   0.901
 3620SOL     OW12756  10.741   0.366   7.357
 3620SOL    HW112757  10.755   0.364   7.451
 3620SOL    HW212758  10.711   0.278   7.334
 3621SOL     OW12759   1.413   9.247   6.065
 3621SOL    HW112760   1.347   9.180   6.049
 3621SOL    HW212761   1.459   9.216   6.144
 3622SOL     OW12762  11.669   0.720   6.901
 3622SOL    HW112763  11.658   0.805   6.945
 3622SOL    HW212764  11.755   0.690   6.928
 3623SOL     OW12765   5.105   5.981   7.804
 3623SOL    HW112766   5.197   5.956   7.809
 3623SOL    HW212767   5.072   5.936   7.726
 3624SOL     OW12768   3.470   0.525   7.433
 3624SOL    HW112769   3.451   0.433   7.416
 3624SOL    HW212770   3.538   0.522   7.501
 3625SOL     OW12771   3.233   6.636  13.935
 3625SOL    HW112772   3.260   6.549  13.964
 3625SOL    HW212773   3.263   6.641  13.844
 3626SOL     OW12774   5.554   2.654  14.256
 3626SOL    HW112775   5.528   2.710  14.183
 3626SOL    HW212776   5.492   2.581  14.253
 3627SOL     OW12777  11.865   4.466  12.644
 3627SOL    HW112778  11.848   4.414  12.723
 3627SOL    HW212779  11.784   4.460  12.594
 3628SOL     OW12780  12.716   5.038   9.422
 3628SOL    HW112781  12.792   5.071   9.469
 3628SOL    HW212782  12.730   5.065   9.332
 3629SOL     OW12783   0.457  13.076  13.473
 3629SOL    HW112784   0.481  12.983  13.476
 3629SOL    HW212785   0.503  13.110  13.397
 3630SOL     OW12786  13.579  10.869   8.717
 3630SOL    HW112787  13.641  10.935   8.685
 3630SOL    HW212788  13.632  10.790   8.726
 3631SOL     OW12789   5.339   0.357  13.952
 3631SOL    HW112790   5.346   0.267  13.920
 3631SOL    HW212791   5.403   0.363  14.023
 3632SOL     OW12792   7.850   9.015   1.933
 3632SOL    HW112793   7.867   9.097   1.979
 3632SOL    HW212794   7.765   8.986   1.966
 3633SOL     OW12795  12.754   6.720   9.354
 3633SOL    HW112796  12.823   6.722   9.420
 3633SOL    HW212797  12.734   6.627   9.342
 3634SOL     OW12798  10.809   1.369   9.467
 3634SOL    HW112799  10.881   1.385   9.528
 3634SOL    HW212800  10.818   1.277   9.443
 3635SOL     OW12801   7.658  12.826   2.076
 3635SOL    HW112802   7.590  12.759   2.089
 3635SOL    HW212803   7.626  12.879   2.003
 3636SOL     OW12804  12.073  14.032  14.434
 3636SOL    HW112805  12.120  14.084  14.499
 3636SOL    HW212806  12.010  14.094  14.396
 3637SOL     OW12807  14.479   2.474   4.732
 3637SOL    HW112808  14.476   2.407   4.663
 3637SOL    HW212809  14.388   2.491   4.754
 3638SOL     OW12810  13.025  14.037   4.220
 3638SOL    HW112811  13.026  13.993   4.305
 3638SOL    HW212812  12.970  14.113   4.233
 3639SOL     OW12813   0.583   8.684   1.027
 3639SOL    HW112814   0.524   8.610   1.041
 3639SOL    HW212815   0.606   8.714   1.116
 3640SOL     OW12816   1.637   9.888   4.632
 3640SOL    HW112817   1.668   9.801   4.656
 3640SOL    HW212818   1.688   9.912   4.555
 3641SOL     OW12819   7.867   0.525   7.516
 3641SOL    HW112820   7.829   0.487   7.595
 3641SOL    HW212821   7.855   0.620   7.527
 3642SOL     OW12822   4.522   7.110   3.729
 3642SOL    HW112823   4.475   7.185   3.692
 3642SOL    HW212824   4.460   7.038   3.721
 3643SOL     OW12825   1.652   5.153  13.485
 3643SOL    HW112826   1.637   5.143  13.391
 3643SOL    HW212827   1.598   5.085  13.525
 3644SOL     OW12828  14.865   4.727   4.705
 3644SOL    HW112829  14.788   4.677   4.676
 3644SOL    HW212830  14.861   4.808   4.655
 3645SOL     OW12831   1.559   8.777  13.945
 3645SOL    HW112832   1.533   8.686  13.963
 3645SOL    HW212833   1.546   8.787  13.850
 3646SOL     OW12834  11.781   9.411   5.801
 3646SOL    HW112835  11.688   9.405   5.820
 3646SOL    HW212836  11.795   9.353   5.726
 3647SOL     OW12837  13.406   5.969   1.989
 3647SOL    HW112838  13.441   6.022   1.918
 3647SOL    HW212839  13.437   5.880   1.970
 3648SOL     OW12840   4.698   4.685   2.009
 3648SOL    HW112841   4.652   4.753   2.059
 3648SOL    HW212842   4.775   4.664   2.062
 3649SOL     OW12843   2.161   8.337  10.460
 3649SOL    HW112844   2.161   8.245  10.487
 3649SOL    HW212845   2.183   8.386  10.539
 3650SOL     OW12846  13.047  12.605   3.909
 3650SOL    HW112847  12.976  12.542   3.914
 3650SOL    HW212848  13.004  12.688   3.889
 3651SOL     OW12849  14.639   3.561   5.681
 3651SOL    HW112850  14.574   3.613   5.634
 3651SOL    HW212851  14.601   3.549   5.768
 3652SOL     OW12852   7.772   0.809  13.968
 3652SOL    HW112853   7.828   0.770  14.036
 3652SOL    HW212854   7.790   0.903  13.974
 3653SOL     OW12855   7.919   0.178   5.245
 3653SOL    HW112856   7.959   0.210   5.164
 3653SOL    HW212857   7.911   0.084   5.233
 3654SOL     OW12858   2.718   9.390  10.443
 3654SOL    HW112859   2.733   9.296  10.434
 3654SOL    HW212860   2.622   9.398  10.443
 3655SOL     OW12861   5.933  10.815   1.473
 3655SOL    HW112862   5.906  10.830   1.564
 3655SOL    HW212863   5.955  10.902   1.439
 3656SOL     OW12864   6.645   2.137   0.240
 3656SOL    HW112865   6.603   2.215   0.276
 3656SOL    HW212866   6.726   2.128   0.289
 3657SOL     OW12867   2.717   0.201   7.725
 3657SOL    HW112868   2.630   0.238   7.731
 3657SOL    HW212869   2.704   0.114   7.686
 3658SOL     OW12870  11.457   4.575   9.658
 3658SOL    HW112871  11.493   4.576   9.747
 3658SOL    HW212872  11.531   4.594   9.602
 3659SOL     OW12873  11.709  11.933  11.171
 3659SOL    HW112874  11.765  11.903  11.099
 3659SOL    HW212875  11.735  11.878  11.245
 3660SOL     OW12876  12.754   1.563  11.770
 3660SOL    HW112877  12.757   1.658  11.756
 3660SOL    HW212878  12.757   1.526  11.682
 3661SOL     OW12879   2.249   4.446   5.551
 3661SOL    HW112880   2.332   4.458   5.598
 3661SOL    HW212881   2.228   4.353   5.562
 3662SOL     OW12882   7.799   5.839  12.351
 3662SOL    HW112883   7.842   5.919  12.322
 3662SOL    HW212884   7.869   5.774  12.357
 3663SOL     OW12885  10.714   9.547  12.145
 3663SOL    HW112886  10.780   9.483  12.117
 3663SOL    HW212887  10.708   9.609  12.072
 3664SOL     OW12888   2.646   4.991   8.355
 3664SOL    HW112889   2.604   4.916   8.398
 3664SOL    HW212890   2.723   4.954   8.313
 3665SOL     OW12891   2.663   2.951   6.886
 3665SOL    HW112892   2.747   2.949   6.932
 3665SOL    HW212893   2.676   2.895   6.810
 3666SOL     OW12894   8.927  14.606  10.009
 3666SOL    HW112895   8.952  14.516  10.029
 3666SOL    HW212896   9.009  14.656  10.019
 3667SOL     OW12897   1.240   9.807  14.816
 3667SOL    HW112898   1.260   9.718  14.788
 3667SOL    HW212899   1.316   9.859  14.788
 3668SOL     OW12900   3.188   5.943  13.097
 3668SOL    HW112901   3.148   5.950  13.010
 3668SOL    HW212902   3.190   5.848  13.114
 3669SOL     OW12903   5.649   1.057   4.141
 3669SOL    HW112904   5.673   1.056   4.048
 3669SOL    HW212905   5.624   0.966   4.160
 3670SOL     OW12906  14.490   8.300   1.507
 3670SOL    HW112907  14.524   8.244   1.436
 3670SOL    HW212908  14.547   8.377   1.506
 3671SOL     OW12909   6.893  11.870   2.937
 3671SOL    HW112910   6.890  11.966   2.940
 3671SOL    HW212911   6.820  11.842   2.992
 3672SOL     OW12912   2.869  12.445   4.431
 3672SOL    HW112913   2.876  12.525   4.379
 3672SOL    HW212914   2.948  12.395   4.409
 3673SOL     OW12915   1.901   2.689   0.550
 3673SOL    HW112916   1.902   2.682   0.646
 3673SOL    HW212917   1.937   2.776   0.532
 3674SOL     OW12918  13.885  11.776   1.493
 3674SOL    HW112919  13.817  11.826   1.538
 3674SOL    HW212920  13.840  11.738   1.417
 3675SOL     OW12921   4.237   3.546  11.450
 3675SOL    HW112922   4.189   3.494  11.386
 3675SOL    HW212923   4.268   3.482  11.514
 3676SOL     OW12924   8.029   0.726   1.247
 3676SOL    HW112925   8.095   0.791   1.223
 3676SOL    HW212926   8.079   0.649   1.272
 3677SOL     OW12927   0.329  11.954  10.930
 3677SOL    HW112928   0.375  11.870  10.920
 3677SOL    HW212929   0.376  12.013  10.871
 3678SOL     OW12930  13.109   9.897  14.252
 3678SOL    HW112931  13.099   9.872  14.344
 3678SOL    HW212932  13.023   9.928  14.225
 3679SOL     OW12933   6.222  10.167   7.646
 3679SOL    HW112934   6.282  10.237   7.671
 3679SOL    HW212935   6.156  10.166   7.715
 3680SOL     OW12936   0.155  10.822   7.673
 3680SOL    HW112937   0.106  10.807   7.754
 3680SOL    HW212938   0.205  10.742   7.660
 3681SOL     OW12939   4.152   8.970   6.066
 3681SOL    HW112940   4.126   8.953   5.975
 3681SOL    HW212941   4.236   8.926   6.076
 3682SOL     OW12942   0.599   2.919  10.413
 3682SOL    HW112943   0.604   2.832  10.375
 3682SOL    HW212944   0.667   2.969  10.367
 3683SOL     OW12945   5.637   6.694   0.291
 3683SOL    HW112946   5.637   6.778   0.337
 3683SOL    HW212947   5.582   6.638   0.345
 3684SOL     OW12948   3.411   0.621   3.956
 3684SOL    HW112949   3.350   0.690   3.982
 3684SOL    HW212950   3.436   0.579   4.038
 3685SOL     OW12951   0.852   6.761   3.237
 3685SOL    HW112952   0.790   6.700   3.197
 3685SOL    HW212953   0.892   6.806   3.163
 3686SOL     OW12954  11.734   4.335   6.771
 3686SOL    HW112955  11.802   4.326   6.704
 3686SOL    HW212956  11.668   4.393   6.732
 3687SOL     OW12957   3.125   7.740   8.001
 3687SOL    HW112958   3.137   7.778   8.088
 3687SOL    HW212959   3.188   7.786   7.946
 3688SOL     OW12960  14.029   3.168   3.382
 3688SOL    HW112961  14.035   3.101   3.450
 3688SOL    HW212962  14.075   3.131   3.307
 3689SOL     OW12963  11.358   5.459   0.860
 3689SOL    HW112964  11.448   5.426   0.864
 3689SOL    HW212965  11.320   5.433   0.944
 3690SOL     OW12966   3.114   2.764   5.892
 3690SOL    HW112967   3.059   2.819   5.947
 3690SOL    HW212968   3.124   2.683   5.942
 3691SOL     OW12969  11.686   1.336   3.534
 3691SOL    HW112970  11.620   1.386   3.581
 3691SOL    HW212971  11.642   1.308   3.454
 3692SOL     OW12972  14.489   6.514  14.287
 3692SOL    HW112973  14.518   6.448  14.223
 3692SOL    HW212974  14.562   6.576  14.291
 3693SOL     OW12975   1.625   8.471   0.280
 3693SOL    HW112976   1.604   8.451   0.189
 3693SOL    HW212977   1.685   8.401   0.306
 3694SOL     OW12978  13.461   0.322   4.137
 3694SOL    HW112979  13.455   0.384   4.064
 3694SOL    HW212980  13.452   0.377   4.215
 3695SOL     OW12981   6.292   9.496   7.312
 3695SOL    HW112982   6.330   9.580   7.286
 3695SOL    HW212983   6.197   9.512   7.312
 3696SOL     OW12984   4.366   9.963  12.728
 3696SOL    HW112985   4.345   9.952  12.636
 3696SOL    HW212986   4.285   9.998  12.767
 3697SOL     OW12987  10.698  11.356   9.138
 3697SOL    HW112988  10.613  11.312   9.147
 3697SOL    HW212989  10.739  11.347   9.224
 3698SOL     OW12990   2.652   6.689   1.082
 3698SOL    HW112991   2.587   6.671   1.150
 3698SOL    HW212992   2.602   6.732   1.012
 3699SOL     OW12993  14.271  11.099   2.027
 3699SOL    HW112994  14.353  11.110   1.977
 3699SOL    HW212995  14.299  11.066   2.112
 3700SOL     OW12996   5.854  14.508  10.441
 3700SOL    HW112997   5.913  14.583  10.450
 3700SOL    HW212998   5.897  14.438  10.491
 3701SOL     OW12999   7.906   4.868  13.263
 3701SOL    HW113000   7.947   4.896  13.181
 3701SOL    HW213001   7.864   4.785  13.241
 3702SOL     OW13002   4.165   2.071  10.293
 3702SOL    HW113003   4.174   2.084  10.387
 3702SOL    HW213004   4.116   1.989  10.285
 3703SOL     OW13005   4.015  10.209   9.080
 3703SOL    HW113006   4.042  10.118   9.095
 3703SOL    HW213007   4.098  10.257   9.071
 3704SOL     OW13008  13.438  11.456   0.310
 3704SOL    HW113009  13.505  11.476   0.245
 3704SOL    HW213010  13.398  11.375   0.280
 3705SOL     OW13011   6.410  12.484   2.638
 3705SOL    HW113012   6.347  12.439   2.695
 3705SOL    HW213013   6.413  12.574   2.672
 3706SOL     OW13014  14.559   2.342   7.784
 3706SOL    HW113015  14.585   2.287   7.858
 3706SOL    HW213016  14.623   2.413   7.783
 3707SOL     OW13017  14.482   6.072   3.451
 3707SOL    HW113018  14.438   6.084   3.535
 3707SOL    HW213019  14.565   6.029   3.473
 3708SOL     OW13020   3.786   0.971  11.484
 3708SOL    HW113021   3.787   0.907  11.555
 3708SOL    HW213022   3.795   0.919  11.404
 3709SOL     OW13023  13.271   2.905   0.408
 3709SOL    HW113024  13.322   2.844   0.461
 3709SOL    HW213025  13.332   2.976   0.388
 3710SOL     OW13026   4.839   2.394   2.402
 3710SOL    HW113027   4.781   2.432   2.469
 3710SOL    HW213028   4.779   2.361   2.335
 3711SOL     OW13029   2.830   0.638  10.545
 3711SOL    HW113030   2.817   0.546  10.522
 3711SOL    HW213031   2.889   0.672  10.477
 3712SOL     OW13032   1.476   8.968   1.544
 3712SOL    HW113033   1.540   8.943   1.477
 3712SOL    HW213034   1.470   8.891   1.601
 3713SOL     OW13035  13.490   2.310   7.822
 3713SOL    HW113036  13.474   2.215   7.824
 3713SOL    HW213037  13.518   2.331   7.911
 3714SOL     OW13038   0.245   3.555   1.836
 3714SOL    HW113039   0.325   3.569   1.784
 3714SOL    HW213040   0.268   3.485   1.897
 3715SOL     OW13041   6.807   3.449   2.391
 3715SOL    HW113042   6.716   3.477   2.386
 3715SOL    HW213043   6.857   3.531   2.392
 3716SOL     OW13044   1.195  12.903   7.213
 3716SOL    HW113045   1.259  12.931   7.280
 3716SOL    HW213046   1.193  12.808   7.220
 3717SOL     OW13047   5.600  11.737  13.407
 3717SOL    HW113048   5.599  11.715  13.501
 3717SOL    HW213049   5.667  11.804  13.399
 3718SOL     OW13050   1.240  11.020  13.331
 3718SOL    HW113051   1.303  11.010  13.258
 3718SOL    HW213052   1.157  11.037  13.288
 3719SOL     OW13053   7.809  13.932  13.750
 3719SOL    HW113054   7.767  13.934  13.664
 3719SOL    HW213055   7.861  14.012  13.754
 3720SOL     OW13056  10.231   2.666   2.939
 3720SOL    HW113057  10.221   2.599   3.007
 3720SOL    HW213058  10.170   2.735   2.963
 3721SOL     OW13059   4.621  12.844  11.706
 3721SOL    HW113060   4.586  12.930  11.731
 3721SOL    HW213061   4.602  12.836  11.613
 3722SOL     OW13062   2.636   7.941   0.605
 3722SOL    HW113063   2.632   8.005   0.534
 3722SOL    HW213064   2.592   7.863   0.570
 3723SOL     OW13065   3.763  12.817   4.638
 3723SOL    HW113066   3.739  12.843   4.549
 3723SOL    HW213067   3.854  12.790   4.631
 3724SOL     OW13068   5.141  10.145  14.057
 3724SOL    HW113069   5.063  10.095  14.034
 3724SOL    HW213070   5.108  10.223  14.101
 3725SOL     OW13071  12.107  10.209   8.913
 3725SOL    HW113072  12.168  10.283   8.911
 3725SOL    HW213073  12.155  10.137   8.873
 3726SOL     OW13074   9.869  12.118   9.164
 3726SOL    HW113075   9.895  12.195   9.214
 3726SOL    HW213076   9.773  12.114   9.174
 3727SOL     OW13077  14.659  11.553   2.213
 3727SOL    HW113078  14.683  11.594   2.130
 3727SOL    HW213079  14.592  11.489   2.189
 3728SOL     OW13080   0.831   2.404   8.846
 3728SOL    HW113081   0.835   2.310   8.864
 3728SOL    HW213082   0.758   2.436   8.899
 3729SOL     OW13083  14.431   2.791   0.326
 3729SOL    HW113084  14.485   2.724   0.368
 3729SOL    HW213085  14.385   2.744   0.256
 3730SOL     OW13086   4.366  13.720   3.158
 3730SOL    HW113087   4.393  13.799   3.112
 3730SOL    HW213088   4.421  13.651   3.122
 3731SOL     OW13089   7.173  13.810   5.282
 3731SOL    HW113090   7.102  13.848   5.333
 3731SOL    HW213091   7.235  13.881   5.269
 3732SOL     OW13092   5.073  11.752   7.100
 3732SOL    HW113093   5.037  11.734   7.187
 3732SOL    HW213094   5.106  11.842   7.105
 3733SOL     OW13095   1.910   2.278  14.108
 3733SOL    HW113096   1.859   2.251  14.184
 3733SOL    HW213097   1.865   2.355  14.075
 3734SOL     OW13098  14.229  10.380   5.511
 3734SOL    HW113099  14.261  10.290   5.501
 3734SOL    HW213100  14.306  10.435   5.495
 3735SOL     OW13101   2.218   5.103   3.907
 3735SOL    HW113102   2.140   5.137   3.864
 3735SOL    HW213103   2.237   5.021   3.861
 3736SOL     OW13104  14.314   6.931   2.225
 3736SOL    HW113105  14.302   6.996   2.156
 3736SOL    HW213106  14.407   6.908   2.222
 3737SOL     OW13107   6.485  13.588  14.314
 3737SOL    HW113108   6.394  13.560  14.329
 3737SOL    HW213109   6.538  13.514  14.343
 3738SOL     OW13110   0.931   0.423   5.282
 3738SOL    HW113111   0.851   0.418   5.334
 3738SOL    HW213112   0.917   0.499   5.225
 3739SOL     OW13113   6.726  12.726  13.639
 3739SOL    HW113114   6.766  12.805  13.674
 3739SOL    HW213115   6.635  12.730  13.668
 3740SOL     OW13116   7.069   0.009   4.803
 3740SOL    HW113117   7.031   0.061   4.873
 3740SOL    HW213118   7.125   0.069   4.755
 3741SOL     OW13119   6.434   9.377   6.584
 3741SOL    HW113120   6.437   9.414   6.672
 3741SOL    HW213121   6.410   9.285   6.597
 3742SOL     OW13122   1.346   6.879   2.763
 3742SOL    HW113123   1.359   6.950   2.826
 3742SOL    HW213124   1.323   6.923   2.681
 3743SOL     OW13125   7.436  11.752   3.820
 3743SOL    HW113126   7.476  11.780   3.738
 3743SOL    HW213127   7.384  11.827   3.848
 3744SOL     OW13128  12.595   4.722   0.006
 3744SOL    HW113129  12.559   4.656   0.066
 3744SOL    HW213130  12.528   4.790   0.002
 3745SOL     OW13131   9.919   6.696  10.009
 3745SOL    HW113132   9.920   6.626  10.075
 3745SOL    HW213133   9.954   6.654   9.930
 3746SOL     OW13134  13.195   3.481  10.954
 3746SOL    HW113135  13.272   3.525  10.919
 3746SOL    HW213136  13.132   3.551  10.971
 3747SOL     OW13137  14.299   5.694  14.556
 3747SOL    HW113138  14.268   5.605  14.575
 3747SOL    HW213139  14.364   5.712  14.625
 3748SOL     OW13140   1.874   4.858   9.531
 3748SOL    HW113141   1.944   4.905   9.485
 3748SOL    HW213142   1.811   4.837   9.463
 3749SOL     OW13143  11.670  10.500  13.322
 3749SOL    HW113144  11.763  10.478  13.325
 3749SOL    HW213145  11.647  10.495  13.229
 3750SOL     OW13146  11.634   2.533   2.514
 3750SOL    HW113147  11.578   2.469   2.471
 3750SOL    HW213148  11.698   2.480   2.562
 3751SOL     OW13149   8.939  10.815  13.676
 3751SOL    HW113150   8.948  10.745  13.740
 3751SOL    HW213151   8.863  10.789  13.623
 3752SOL     OW13152   4.827   7.095  12.279
 3752SOL    HW113153   4.819   7.105  12.374
 3752SOL    HW213154   4.921   7.087  12.263
 3753SOL     OW13155  11.986   6.680   6.463
 3753SOL    HW113156  11.948   6.636   6.539
 3753SOL    HW213157  11.937   6.761   6.455
 3754SOL     OW13158   7.578   2.526  13.116
 3754SOL    HW113159   7.638   2.554  13.047
 3754SOL    HW213160   7.500   2.496  13.068
 3755SOL     OW13161   3.623   5.437   6.706
 3755SOL    HW113162   3.686   5.425   6.634
 3755SOL    HW213163   3.668   5.402   6.782
 3756SOL     OW13164   8.996   6.255   6.723
 3756SOL    HW113165   8.908   6.269   6.688
 3756SOL    HW213166   8.989   6.279   6.815
 3757SOL     OW13167   4.589   8.501   2.799
 3757SOL    HW113168   4.649   8.505   2.724
 3757SOL    HW213169   4.503   8.518   2.762
 3758SOL     OW13170   4.365   0.390  14.438
 3758SOL    HW113171   4.438   0.384  14.375
 3758SOL    HW213172   4.314   0.310  14.423
 3759SOL     OW13173   1.368  12.115   9.715
 3759SOL    HW113174   1.288  12.079   9.754
 3759SOL    HW213175   1.352  12.110   9.620
 3760SOL     OW13176  13.225  14.219  11.150
 3760SOL    HW113177  13.166  14.294  11.157
 3760SOL    HW213178  13.173  14.145  11.180
 3761SOL     OW13179  12.976  10.787   9.645
 3761SOL    HW113180  12.905  10.723   9.645
 3761SOL    HW213181  12.936  10.868   9.612
 3762SOL     OW13182  11.890   7.204  10.728
 3762SOL    HW113183  11.836   7.282  10.716
 3762SOL    HW213184  11.829   7.136  10.757
 3763SOL     OW13185  13.059   0.805   3.172
 3763SOL    HW113186  12.999   0.809   3.246
 3763SOL    HW213187  13.003   0.819   3.095
 3764SOL     OW13188   8.982   6.159   3.281
 3764SOL    HW113189   8.955   6.228   3.342
 3764SOL    HW213190   8.900   6.118   3.254
 3765SOL     OW13191   0.827  14.593   1.694
 3765SOL    HW113192   0.778  14.523   1.649
 3765SOL    HW213193   0.810  14.578   1.787
 3766SOL     OW13194   4.801   5.517   0.654
 3766SOL    HW113195   4.869   5.453   0.631
 3766SOL    HW213196   4.757   5.537   0.571
 3767SOL     OW13197  11.711   4.995  11.297
 3767SOL    HW113198  11.651   5.000  11.372
 3767SOL    HW213199  11.656   4.970  11.223
 3768SOL     OW13200   5.169   4.544   1.901
 3768SOL    HW113201   5.257   4.539   1.865
 3768SOL    HW213202   5.112   4.552   1.824
 3769SOL     OW13203   9.623  10.317   9.153
 3769SOL    HW113204   9.660  10.295   9.067
 3769SOL    HW213205   9.571  10.241   9.177
 3770SOL     OW13206  13.240  11.337   8.216
 3770SOL    HW113207  13.259  11.296   8.132
 3770SOL    HW213208  13.179  11.277   8.259
 3771SOL     OW13209   3.235  12.766   3.960
 3771SOL    HW113210   3.204  12.686   3.918
 3771SOL    HW213211   3.210  12.756   4.052
 3772SOL     OW13212   9.199   8.904  11.092
 3772SOL    HW113213   9.186   8.810  11.099
 3772SOL    HW213214   9.150   8.929  11.013
 3773SOL     OW13215   6.206   6.073   7.170
 3773SOL    HW113216   6.180   5.989   7.207
 3773SOL    HW213217   6.166   6.074   7.083
 3774SOL     OW13218   6.922   7.052  10.781
 3774SOL    HW113219   6.855   7.010  10.836
 3774SOL    HW213220   6.912   7.145  10.797
 3775SOL     OW13221   2.715   4.788   8.686
 3775SOL    HW113222   2.629   4.806   8.724
 3775SOL    HW213223   2.697   4.737   8.607
 3776SOL     OW13224  14.294   9.639   4.644
 3776SOL    HW113225  14.248   9.677   4.569
 3776SOL    HW213226  14.383   9.623   4.612
 3777SOL     OW13227   5.048  13.872  10.389
 3777SOL    HW113228   5.137  13.882  10.421
 3777SOL    HW213229   5.044  13.781  10.359
 3778SOL     OW13230   1.380  11.924  13.543
 3778SOL    HW113231   1.465  11.891  13.514
 3778SOL    HW213232   1.318  11.854  13.520
 3779SOL     OW13233   0.936   2.341   0.362
 3779SOL    HW113234   1.023   2.363   0.395
 3779SOL    HW213235   0.951   2.311   0.272
 3780SOL     OW13236   9.948   8.928   0.552
 3780SOL    HW113237   9.987   8.855   0.503
 3780SOL    HW213238   9.947   8.898   0.643
 3781SOL     OW13239   4.413   2.069   3.124
 3781SOL    HW113240   4.400   2.117   3.042
 3781SOL    HW213241   4.488   2.113   3.165
 3782SOL     OW13242  10.514  13.996   0.815
 3782SOL    HW113243  10.609  13.999   0.807
 3782SOL    HW213244  10.497  14.014   0.908
 3783SOL     OW13245   5.852  14.685  12.755
 3783SOL    HW113246   5.932  14.738  12.755
 3783SOL    HW213247   5.853  14.640  12.839
 3784SOL     OW13248   4.085   1.412   6.365
 3784SOL    HW113249   4.171   1.388   6.400
 3784SOL    HW213250   4.027   1.340   6.389
 3785SOL     OW13251   6.342   0.103   5.646
 3785SOL    HW113252   6.403   0.174   5.667
 3785SOL    HW213253   6.399   0.027   5.630
 3786SOL     OW13254   8.839   5.900   9.051
 3786SOL    HW113255   8.798   5.948   9.123
 3786SOL    HW213256   8.826   5.808   9.072
 3787SOL     OW13257   5.145  12.194   7.454
 3787SOL    HW113258   5.076  12.200   7.520
 3787SOL    HW213259   5.103  12.156   7.377
 3788SOL     OW13260   0.292   8.897   4.758
 3788SOL    HW113261   0.332   8.898   4.845
 3788SOL    HW213262   0.236   8.974   4.756
 3789SOL     OW13263   2.855   6.084   2.058
 3789SOL    HW113264   2.933   6.138   2.041
 3789SOL    HW213265   2.793   6.144   2.098
 3790SOL     OW13266   4.220   5.079   0.764
 3790SOL    HW113267   4.156   5.059   0.696
 3790SOL    HW213268   4.167   5.103   0.840
 3791SOL     OW13269   0.960   0.705  10.351
 3791SOL    HW113270   1.017   0.777  10.326
 3791SOL    HW213271   0.874   0.745  10.364
 3792SOL     OW13272  11.367   6.861  11.274
 3792SOL    HW113273  11.379   6.885  11.182
 3792SOL    HW213274  11.324   6.937  11.313
 3793SOL     OW13275  14.017   1.434   1.561
 3793SOL    HW113276  14.008   1.442   1.466
 3793SOL    HW213277  13.995   1.521   1.595
 3794SOL     OW13278   3.422  11.780   3.082
 3794SOL    HW113279   3.421  11.847   3.149
 3794SOL    HW213280   3.334  11.742   3.083
 3795SOL     OW13281   8.808  10.051   4.916
 3795SOL    HW113282   8.715  10.043   4.935
 3795SOL    HW213283   8.824   9.990   4.845
 3796SOL     OW13284   1.837   2.779   3.753
 3796SOL    HW113285   1.883   2.763   3.670
 3796SOL    HW213286   1.886   2.728   3.817
 3797SOL     OW13287   1.045  13.876   0.808
 3797SOL    HW113288   1.100  13.831   0.744
 3797SOL    HW213289   1.013  13.806   0.866
 3798SOL     OW13290  12.025  12.672   7.851
 3798SOL    HW113291  12.029  12.734   7.778
 3798SOL    HW213292  12.099  12.695   7.906
 3799SOL     OW13293   3.796   2.887  13.182
 3799SOL    HW113294   3.727   2.848  13.235
 3799SOL    HW213295   3.757   2.967  13.146
 3800SOL     OW13296  12.418  10.578  13.042
 3800SOL    HW113297  12.385  10.572  13.132
 3800SOL    HW213298  12.509  10.549  13.048
 3801SOL     OW13299  11.544  12.043  10.701
 3801SOL    HW113300  11.558  12.067  10.793
 3801SOL    HW213301  11.561  12.124  10.652
 3802SOL     OW13302  10.542   6.199   1.200
 3802SOL    HW113303  10.631   6.172   1.223
 3802SOL    HW213304  10.506   6.234   1.281
 3803SOL     OW13305   3.849   3.012   9.901
 3803SOL    HW113306   3.866   2.938   9.842
 3803SOL    HW213307   3.829   3.085   9.842
 3804SOL     OW13308  10.693   7.754   6.467
 3804SOL    HW113309  10.708   7.810   6.391
 3804SOL    HW213310  10.610   7.709   6.448
 3805SOL     OW13311   4.522   9.999   8.028
 3805SOL    HW113312   4.528  10.013   7.934
 3805SOL    HW213313   4.443  10.046   8.054
 3806SOL     OW13314  12.844  10.809   7.169
 3806SOL    HW113315  12.821  10.866   7.243
 3806SOL    HW213316  12.781  10.833   7.100
 3807SOL     OW13317   0.891  13.715   0.547
 3807SOL    HW113318   0.945  13.636   0.545
 3807SOL    HW213319   0.841  13.708   0.629
 3808SOL     OW13320   3.672  13.834   0.367
 3808SOL    HW113321   3.585  13.874   0.375
 3808SOL    HW213322   3.720  13.865   0.443
 3809SOL     OW13323  11.849   3.548  14.289
 3809SOL    HW113324  11.940   3.579  14.293
 3809SOL    HW213325  11.855   3.464  14.244
 3810SOL     OW13326  14.303   9.855   7.644
 3810SOL    HW113327  14.276   9.782   7.700
 3810SOL    HW213328  14.221   9.898   7.619
 3811SOL     OW13329   2.414   6.693   6.682
 3811SOL    HW113330   2.374   6.611   6.654
 3811SOL    HW213331   2.421   6.686   6.777
 3812SOL     OW13332  10.976   1.693   4.586
 3812SOL    HW113333  10.989   1.655   4.673
 3812SOL    HW213334  11.058   1.738   4.567
 3813SOL     OW13335   9.738  13.259  12.471
 3813SOL    HW113336   9.808  13.229  12.413
 3813SOL    HW213337   9.712  13.182  12.521
 3814SOL     OW13338  13.931  11.179  11.447
 3814SOL    HW113339  13.872  11.246  11.412
 3814SOL    HW213340  13.920  11.183  11.542
 3815SOL     OW13341  10.298   3.322   5.229
 3815SOL    HW113342  10.330   3.270   5.303
 3815SOL    HW213343  10.203   3.309   5.231
 3816SOL     OW13344   6.069   1.078   2.298
 3816SOL    HW113345   6.074   1.018   2.223
 3816SOL    HW213346   6.044   1.162   2.260
 3817SOL     OW13347   7.704   3.872  12.645
 3817SOL    HW113348   7.666   3.957  12.626
 3817SOL    HW213349   7.635   3.826  12.694
 3818SOL     OW13350  11.266   1.554  10.974
 3818SOL    HW113351  11.182   1.599  10.980
 3818SOL    HW213352  11.286   1.526  11.063
 3819SOL     OW13353   2.774   3.467   1.233
 3819SOL    HW113354   2.845   3.403   1.220
 3819SOL    HW213355   2.774   3.519   1.153
 3820SOL     OW13356  11.512  13.572   8.975
 3820SOL    HW113357  11.497  13.586   8.881
 3820SOL    HW213358  11.462  13.493   8.995
 3821SOL     OW13359   7.633   3.517   0.315
 3821SOL    HW113360   7.607   3.584   0.378
 3821SOL    HW213361   7.725   3.537   0.297
 3822SOL     OW13362   9.887  14.809   9.661
 3822SOL    HW113363   9.863  14.761   9.582
 3822SOL    HW213364   9.977  14.782   9.679
 3823SOL     OW13365  13.503   3.391   7.858
 3823SOL    HW113366  13.574   3.451   7.879
 3823SOL    HW213367  13.424   3.444   7.866
 3824SOL     OW13368   7.735  14.244   9.432
 3824SOL    HW113369   7.708  14.336   9.437
 3824SOL    HW213370   7.733  14.224   9.338
 3825SOL     OW13371   8.704   5.253   2.013
 3825SOL    HW113372   8.683   5.299   1.932
 3825SOL    HW213373   8.654   5.299   2.081
 3826SOL     OW13374   0.122   2.866   5.923
 3826SOL    HW113375   0.177   2.899   5.852
 3826SOL    HW213376   0.062   2.938   5.942
 3827SOL     OW13377   2.248   9.448   2.858
 3827SOL    HW113378   2.203   9.493   2.929
 3827SOL    HW213379   2.341   9.458   2.878
 3828SOL     OW13380  12.324   7.233   6.586
 3828SOL    HW113381  12.300   7.252   6.676
 3828SOL    HW213382  12.379   7.308   6.560
 3829SOL     OW13383  12.384   9.329   9.718
 3829SOL    HW113384  12.333   9.350   9.640
 3829SOL    HW213385  12.321   9.327   9.789
 3830SOL     OW13386   7.601   3.219   2.542
 3830SOL    HW113387   7.644   3.214   2.456
 3830SOL    HW213388   7.611   3.131   2.578
 3831SOL     OW13389   6.891  11.515   2.484
 3831SOL    HW113390   6.892  11.439   2.425
 3831SOL    HW213391   6.802  11.551   2.475
 3832SOL     OW13392   8.529   4.105   8.352
 3832SOL    HW113393   8.557   4.178   8.407
 3832SOL    HW213394   8.536   4.028   8.408
 3833SOL     OW13395  13.275   8.105   7.367
 3833SOL    HW113396  13.266   8.098   7.272
 3833SOL    HW213397  13.333   8.180   7.380
 3834SOL     OW13398   1.039   0.873  12.759
 3834SOL    HW113399   1.006   0.956  12.723
 3834SOL    HW213400   0.971   0.844  12.819
 3835SOL     OW13401  10.131   7.658  13.547
 3835SOL    HW113402  10.210   7.605  13.559
 3835SOL    HW213403  10.065   7.596  13.514
 3836SOL     OW13404   0.684  12.112  13.877
 3836SOL    HW113405   0.602  12.124  13.925
 3836SOL    HW213406   0.719  12.029  13.910
 3837SOL     OW13407   5.119  13.626   5.341
 3837SOL    HW113408   5.183  13.572   5.389
 3837SOL    HW213409   5.056  13.654   5.407
 3838SOL     OW13410  10.182  13.609   3.787
 3838SOL    HW113411  10.171  13.561   3.868
 3838SOL    HW213412  10.144  13.695   3.804
 3839SOL     OW13413   8.486   7.678  10.453
 3839SOL    HW113414   8.471   7.584  10.451
 3839SOL    HW213415   8.572   7.690  10.412
 3840SOL     OW13416   5.769   3.192   1.320
 3840SOL    HW113417   5.678   3.162   1.321
 3840SOL    HW213418   5.821   3.112   1.318
 3841SOL     OW13419  12.723   9.609   7.307
 3841SOL    HW113420  12.812   9.575   7.301
 3841SOL    HW213421  12.667   9.536   7.282
 3842SOL     OW13422   3.813   1.958  14.424
 3842SOL    HW113423   3.741   1.897  14.445
 3842SOL    HW213424   3.790   1.993  14.338
 3843SOL     OW13425   1.541   0.995   4.415
 3843SOL    HW113426   1.634   1.003   4.435
 3843SOL    HW213427   1.538   0.994   4.319
 3844SOL     OW13428  14.495   7.551   0.539
 3844SOL    HW113429  14.437   7.524   0.468
 3844SOL    HW213430  14.444   7.538   0.619
 3845SOL     OW13431   2.741   5.573  13.471
 3845SOL    HW113432   2.654   5.597  13.441
 3845SOL    HW213433   2.734   5.573  13.566
 3846SOL     OW13434  12.150   9.618   9.419
 3846SOL    HW113435  12.058   9.592   9.426
 3846SOL    HW213436  12.149   9.699   9.368
 3847SOL     OW13437   9.174   9.079   7.632
 3847SOL    HW113438   9.231   9.156   7.627
 3847SOL    HW213439   9.208   9.029   7.707
 3848SOL     OW13440  13.213   2.859   9.387
 3848SOL    HW113441  13.199   2.770   9.356
 3848SOL    HW213442  13.155   2.914   9.334
 3849SOL     OW13443   5.817   6.221   8.295
 3849SOL    HW113444   5.852   6.305   8.324
 3849SOL    HW213445   5.800   6.172   8.376
 3850SOL     OW13446   9.562  10.937   0.858
 3850SOL    HW113447   9.484  10.976   0.819
 3850SOL    HW213448   9.555  10.957   0.951
 3851SOL     OW13449   8.481   5.986   3.656
 3851SOL    HW113450   8.474   5.941   3.572
 3851SOL    HW213451   8.402   6.040   3.661
 3852SOL     OW13452  12.984   2.566  10.236
 3852SOL    HW113453  12.918   2.595  10.299
 3852SOL    HW213454  13.018   2.484  10.272
 3853SOL     OW13455   2.920  13.344   3.746
 3853SOL    HW113456   2.956  13.422   3.789
 3853SOL    HW213457   2.996  13.288   3.730
 3854SOL     OW13458   4.534   5.670   9.914
 3854SOL    HW113459   4.457   5.639   9.867
 3854SOL    HW213460   4.584   5.590   9.933
 3855SOL     OW13461   7.121   7.696   0.440
 3855SOL    HW113462   7.161   7.735   0.518
 3855SOL    HW213463   7.155   7.749   0.367
 3856SOL     OW13464  13.525   0.005   9.627
 3856SOL    HW113465  13.475   0.013   9.546
 3856SOL    HW213466  13.477   0.059   9.690
 3857SOL     OW13467   7.691  14.271   7.591
 3857SOL    HW113468   7.736  14.294   7.510
 3857SOL    HW213469   7.757  14.283   7.659
 3858SOL     OW13470   6.566   2.846   1.689
 3858SOL    HW113471   6.592   2.856   1.597
 3858SOL    HW213472   6.648   2.859   1.738
 3859SOL     OW13473   0.196   9.722   0.832
 3859SOL    HW113474   0.243   9.706   0.751
 3859SOL    HW213475   0.119   9.666   0.827
 3860SOL     OW13476   9.853  12.670  10.103
 3860SOL    HW113477   9.807  12.714  10.175
 3860SOL    HW213478   9.791  12.672  10.030
 3861SOL     OW13479   1.161   5.304   0.350
 3861SOL    HW113480   1.127   5.215   0.360
 3861SOL    HW213481   1.185   5.310   0.257
 3862SOL     OW13482   6.123  12.158   3.008
 3862SOL    HW113483   6.083  12.147   2.922
 3862SOL    HW213484   6.051  12.187   3.064
 3863SOL     OW13485  10.395  13.462   5.027
 3863SOL    HW113486  10.321  13.517   5.051
 3863SOL    HW213487  10.381  13.441   4.934
 3864SOL     OW13488   7.055  12.252   9.240
 3864SOL    HW113489   7.011  12.298   9.169
 3864SOL    HW213490   7.143  12.289   9.242
 3865SOL     OW13491   9.882   4.041  14.752
 3865SOL    HW113492   9.800   4.090  14.744
 3865SOL    HW213493   9.950   4.104  14.727
 3866SOL     OW13494   2.671  11.722  14.803
 3866SOL    HW113495   2.596  11.777  14.779
 3866SOL    HW213496   2.639  11.632  14.793
 3867SOL     OW13497   7.201   0.592   1.360
 3867SOL    HW113498   7.263   0.615   1.429
 3867SOL    HW213499   7.251   0.601   1.279
 3868SOL     OW13500   0.017  11.450  11.490
 3868SOL    HW113501   0.082  11.406  11.434
 3868SOL    HW213502  14.814  11.406  11.469
 3869SOL     OW13503   9.166   1.180   0.981
 3869SOL    HW113504   9.090   1.217   0.936
 3869SOL    HW213505   9.156   1.085   0.970
 3870SOL     OW13506   8.313  11.803  13.522
 3870SOL    HW113507   8.330  11.761  13.606
 3870SOL    HW213508   8.224  11.838  13.530
 3871SOL     OW13509   0.138   5.216   8.374
 3871SOL    HW113510   0.149   5.140   8.431
 3871SOL    HW213511   0.064   5.264   8.412
 3872SOL     OW13512  12.472  10.008   6.988
 3872SOL    HW113513  12.523   9.928   6.972
 3872SOL    HW213514  12.443  10.035   6.901
 3873SOL     OW13515   2.700  13.389   8.674
 3873SOL    HW113516   2.648  13.435   8.740
 3873SOL    HW213517   2.791  13.413   8.695
 3874SOL     OW13518   6.298   7.922  13.115
 3874SOL    HW113519   6.227   7.982  13.091
 3874SOL    HW213520   6.257   7.836  13.118
 3875SOL     OW13521   4.664   8.028   3.261
 3875SOL    HW113522   4.756   8.042   3.238
 3875SOL    HW213523   4.667   7.968   3.336
 3876SOL     OW13524   1.969   9.129  13.012
 3876SOL    HW113525   1.990   9.177  13.092
 3876SOL    HW213526   2.007   9.042  13.024
 3877SOL     OW13527   9.413   6.124   0.723
 3877SOL    HW113528   9.324   6.121   0.688
 3877SOL    HW213529   9.469   6.119   0.646
 3878SOL     OW13530  12.213   8.260  12.048
 3878SOL    HW113531  12.227   8.325  12.117
 3878SOL    HW213532  12.155   8.195  12.089
 3879SOL     OW13533  11.750   2.653   7.211
 3879SOL    HW113534  11.731   2.562   7.189
 3879SOL    HW213535  11.749   2.699   7.127
 3880SOL     OW13536  14.621   4.338  14.596
 3880SOL    HW113537  14.587   4.254  14.566
 3880SOL    HW213538  14.572   4.357  14.676
 3881SOL     OW13539   5.684   0.958   2.249
 3881SOL    HW113540   5.604   0.912   2.221
 3881SOL    HW213541   5.722   0.991   2.167
 3882SOL     OW13542   9.727  13.189   5.637
 3882SOL    HW113543   9.725  13.273   5.593
 3882SOL    HW213544   9.787  13.135   5.585
 3883SOL     OW13545   5.335  13.455  12.680
 3883SOL    HW113546   5.364  13.376  12.727
 3883SOL    HW213547   5.269  13.494  12.738
 3884SOL     OW13548   3.261   4.260   2.882
 3884SOL    HW113549   3.357   4.261   2.875
 3884SOL    HW213550   3.234   4.187   2.827
 3885SOL     OW13551   8.113   0.696   6.210
 3885SOL    HW113552   8.066   0.775   6.185
 3885SOL    HW213553   8.050   0.625   6.197
 3886SOL     OW13554   6.711  13.933   7.808
 3886SOL    HW113555   6.644  14.001   7.810
 3886SOL    HW213556   6.700  13.885   7.890
 3887SOL     OW13557   8.732   3.005   1.606
 3887SOL    HW113558   8.796   2.968   1.667
 3887SOL    HW213559   8.784   3.030   1.529
 3888SOL     OW13560   7.073   5.489   7.992
 3888SOL    HW113561   6.995   5.457   8.037
 3888SOL    HW213562   7.144   5.475   8.054
 3889SOL     OW13563   5.930   2.817   9.542
 3889SOL    HW113564   5.846   2.790   9.579
 3889SOL    HW213565   5.985   2.738   9.547
 3890SOL     OW13566  13.414  11.052   2.296
 3890SOL    HW113567  13.379  11.007   2.373
 3890SOL    HW213568  13.491  11.099   2.328
 3891SOL     OW13569   0.951   3.670   7.595
 3891SOL    HW113570   1.005   3.682   7.517
 3891SOL    HW213571   1.014   3.657   7.666
 3892SOL     OW13572  13.089   0.626  10.905
 3892SOL    HW113573  13.104   0.551  10.964
 3892SOL    HW213574  13.109   0.702  10.959
 3893SOL     OW13575  14.303   6.035   3.981
 3893SOL    HW113576  14.319   5.961   4.039
 3893SOL    HW213577  14.219   6.015   3.939
 3894SOL     OW13578   5.029   1.470   0.895
 3894SOL    HW113579   4.949   1.503   0.934
 3894SOL    HW213580   5.018   1.483   0.801
 3895SOL     OW13581  11.691  12.111  11.411
 3895SOL    HW113582  11.699  12.052  11.335
 3895SOL    HW213583  11.640  12.185  11.379
 3896SOL     OW13584  10.806   9.712  12.497
 3896SOL    HW113585  10.784   9.766  12.421
 3896SOL    HW213586  10.845   9.773  12.559
 3897SOL     OW13587   7.389   8.257  14.040
 3897SOL    HW113588   7.344   8.173  14.045
 3897SOL    HW213589   7.459   8.251  14.104
 3898SOL     OW13590   6.586   7.354  13.798
 3898SOL    HW113591   6.580   7.378  13.891
 3898SOL    HW213592   6.571   7.435  13.750
 3899SOL     OW13593   1.933  10.224   8.431
 3899SOL    HW113594   1.857  10.166   8.426
 3899SOL    HW213595   2.007  10.167   8.411
 3900SOL     OW13596  13.622  10.277  12.124
 3900SOL    HW113597  13.659  10.277  12.035
 3900SOL    HW213598  13.686  10.324  12.177
 3901SOL     OW13599   3.425  11.641  13.924
 3901SOL    HW113600   3.452  11.682  14.006
 3901SOL    HW213601   3.371  11.566  13.951
 3902SOL     OW13602   9.541   5.825  12.636
 3902SOL    HW113603   9.536   5.861  12.547
 3902SOL    HW213604   9.568   5.898  12.690
 3903SOL     OW13605   8.818   4.520   8.444
 3903SOL    HW113606   8.901   4.565   8.428
 3903SOL    HW213607   8.752   4.590   8.442
 3904SOL     OW13608   5.837  11.088  13.360
 3904SOL    HW113609   5.750  11.070  13.324
 3904SOL    HW213610   5.836  11.182  13.380
 3905SOL     OW13611   1.495   2.542   1.637
 3905SOL    HW113612   1.539   2.526   1.553
 3905SOL    HW213613   1.425   2.604   1.616
 3906SOL     OW13614   3.449   0.815   3.674
 3906SOL    HW113615   3.520   0.812   3.738
 3906SOL    HW213616   3.438   0.724   3.646
 3907SOL     OW13617   3.141   0.202  10.251
 3907SOL    HW113618   3.209   0.248  10.202
 3907SOL    HW213619   3.151   0.110  10.226
 3908SOL     OW13620  12.521  14.761   1.500
 3908SOL    HW113621  12.503  14.797   1.413
 3908SOL    HW213622  12.468  14.814   1.560
 3909SOL     OW13623  14.834  10.679   3.242
 3909SOL    HW113624   0.001  10.743   3.188
 3909SOL    HW213625  14.772  10.732   3.292
 3910SOL     OW13626  10.831   5.859   8.741
 3910SOL    HW113627  10.920   5.884   8.718
 3910SOL    HW213628  10.798   5.811   8.665
 3911SOL     OW13629   9.400  10.237   0.728
 3911SOL    HW113630   9.339  10.303   0.761
 3911SOL    HW213631   9.422  10.267   0.640
 3912SOL     OW13632   0.834   1.500   0.045
 3912SOL    HW113633   0.770   1.569   0.063
 3912SOL    HW213634   0.901   1.510   0.113
 3913SOL     OW13635   7.968   2.657   2.578
 3913SOL    HW113636   7.916   2.677   2.656
 3913SOL    HW213637   7.923   2.703   2.507
 3914SOL     OW13638  13.066   9.804  14.504
 3914SOL    HW113639  13.103   9.797  14.593
 3914SOL    HW213640  12.975   9.777  14.514
 3915SOL     OW13641   1.434  12.910   4.747
 3915SOL    HW113642   1.526  12.920   4.721
 3915SOL    HW213643   1.439  12.869   4.834
 3916SOL     OW13644  12.656   3.212  13.496
 3916SOL    HW113645  12.631   3.298  13.461
 3916SOL    HW213646  12.601   3.202  13.574
 3917SOL     OW13647   9.180   8.862   3.720
 3917SOL    HW113648   9.196   8.956   3.721
 3917SOL    HW213649   9.141   8.844   3.634
 3918SOL     OW13650  12.830   8.790   9.860
 3918SOL    HW113651  12.836   8.804   9.954
 3918SOL    HW213652  12.885   8.713   9.844
 3919SOL     OW13653  11.767   3.737   5.337
 3919SOL    HW113654  11.695   3.785   5.379
 3919SOL    HW213655  11.832   3.805   5.317
 3920SOL     OW13656   1.499   3.226   6.119
 3920SOL    HW113657   1.446   3.167   6.172
 3920SOL    HW213658   1.535   3.289   6.181
 3921SOL     OW13659   9.763   6.660   4.351
 3921SOL    HW113660   9.681   6.653   4.303
 3921SOL    HW213661   9.828   6.619   4.294
 3922SOL     OW13662   3.518   1.077   4.172
 3922SOL    HW113663   3.562   1.073   4.087
 3922SOL    HW213664   3.564   1.147   4.219
 3923SOL     OW13665   6.440   2.431  13.803
 3923SOL    HW113666   6.464   2.524  13.813
 3923SOL    HW213667   6.481   2.388  13.878
 3924SOL     OW13668   4.265   2.471  10.073
 3924SOL    HW113669   4.211   2.422  10.011
 3924SOL    HW213670   4.285   2.553  10.028
 3925SOL     OW13671   4.050  11.317   4.105
 3925SOL    HW113672   4.037  11.340   4.196
 3925SOL    HW213673   3.994  11.241   4.091
 3926SOL     OW13674   7.801   2.005   6.418
 3926SOL    HW113675   7.846   1.932   6.375
 3926SOL    HW213676   7.828   2.082   6.369
 3927SOL     OW13677  13.628   9.676   6.547
 3927SOL    HW113678  13.583   9.699   6.466
 3927SOL    HW213679  13.663   9.589   6.531
 3928SOL     OW13680   8.245  12.222   3.613
 3928SOL    HW113681   8.255  12.128   3.625
 3928SOL    HW213682   8.282  12.240   3.526
 3929SOL     OW13683   2.597  13.507   2.528
 3929SOL    HW113684   2.633  13.594   2.544
 3929SOL    HW213685   2.670  13.447   2.546
 3930SOL     OW13686   7.951   9.250   7.647
 3930SOL    HW113687   8.037   9.222   7.615
 3930SOL    HW213688   7.955   9.240   7.742
 3931SOL     OW13689   5.765  12.008   9.537
 3931SOL    HW113690   5.676  11.973   9.534
 3931SOL    HW213691   5.762  12.087   9.483
 3932SOL     OW13692  10.947  14.028  11.225
 3932SOL    HW113693  10.886  14.074  11.283
 3932SOL    HW213694  10.892  13.975  11.168
 3933SOL     OW13695   9.627   9.473   9.077
 3933SOL    HW113696   9.580   9.474   8.994
 3933SOL    HW213697   9.559   9.459   9.143
 3934SOL     OW13698  14.483   8.337   2.219
 3934SOL    HW113699  14.459   8.425   2.246
 3934SOL    HW213700  14.578   8.342   2.204
 3935SOL     OW13701  12.899   2.122   1.778
 3935SOL    HW113702  12.827   2.155   1.724
 3935SOL    HW213703  12.864   2.043   1.819
 3936SOL     OW13704   0.595  10.090   8.733
 3936SOL    HW113705   0.505  10.103   8.704
 3936SOL    HW213706   0.615   9.999   8.709
 3937SOL     OW13707   4.041  10.530   6.036
 3937SOL    HW113708   3.989  10.467   6.087
 3937SOL    HW213709   3.998  10.532   5.950
 3938SOL     OW13710   7.885   1.863  12.076
 3938SOL    HW113711   7.851   1.841  11.989
 3938SOL    HW213712   7.979   1.875  12.062
 3939SOL     OW13713   9.426   5.254   3.389
 3939SOL    HW113714   9.409   5.325   3.450
 3939SOL    HW213715   9.458   5.298   3.310
 3940SOL     OW13716  12.414   5.235   8.114
 3940SOL    HW113717  12.445   5.185   8.190
 3940SOL    HW213718  12.467   5.315   8.116
 3941SOL     OW13719  12.405   1.734   8.268
 3941SOL    HW113720  12.424   1.654   8.219
 3941SOL    HW213721  12.451   1.803   8.220
 3942SOL     OW13722  12.008  14.207   1.185
 3942SOL    HW113723  12.001  14.121   1.226
 3942SOL    HW213724  12.055  14.261   1.248
 3943SOL     OW13725  11.626   1.531  12.047
 3943SOL    HW113726  11.577   1.510  12.127
 3943SOL    HW213727  11.668   1.449  12.023
 3944SOL     OW13728   8.040   6.417   9.461
 3944SOL    HW113729   8.004   6.331   9.438
 3944SOL    HW213730   8.129   6.399   9.491
 3945SOL     OW13731  11.524  11.049   5.421
 3945SOL    HW113732  11.481  11.127   5.385
 3945SOL    HW213733  11.454  10.985   5.430
 3946SOL     OW13734   7.413   6.860   4.722
 3946SOL    HW113735   7.327   6.900   4.711
 3946SOL    HW213736   7.459   6.919   4.782
 3947SOL     OW13737  14.176  13.592   7.612
 3947SOL    HW113738  14.204  13.583   7.704
 3947SOL    HW213739  14.099  13.648   7.616
 3948SOL     OW13740  12.514  10.202   2.048
 3948SOL    HW113741  12.529  10.158   1.964
 3948SOL    HW213742  12.420  10.193   2.062
 3949SOL     OW13743   2.453   5.311   1.287
 3949SOL    HW113744   2.427   5.229   1.246
 3949SOL    HW213745   2.522   5.287   1.348
 3950SOL     OW13746  10.762  11.335   4.390
 3950SOL    HW113747  10.783  11.412   4.337
 3950SOL    HW213748  10.713  11.277   4.330
 3951SOL     OW13749  11.708  11.249   0.897
 3951SOL    HW113750  11.777  11.298   0.852
 3951SOL    HW213751  11.703  11.166   0.850
 3952SOL     OW13752   1.483  13.246   7.042
 3952SOL    HW113753   1.426  13.171   7.029
 3952SOL    HW213754   1.458  13.308   6.974
 3953SOL     OW13755   1.667  10.593  14.331
 3953SOL    HW113756   1.694  10.578  14.241
 3953SOL    HW213757   1.744  10.569  14.383
 3954SOL     OW13758   5.636   0.069   6.171
 3954SOL    HW113759   5.725   0.040   6.148
 3954SOL    HW213760   5.649   0.128   6.245
 3955SOL     OW13761   6.976   7.495  12.748
 3955SOL    HW113762   6.913   7.486  12.820
 3955SOL    HW213763   6.987   7.589  12.737
 3956SOL     OW13764   4.875   0.741   1.030
 3956SOL    HW113765   4.939   0.809   1.008
 3956SOL    HW213766   4.823   0.730   0.951
 3957SOL     OW13767   3.522  13.014  14.644
 3957SOL    HW113768   3.572  13.095  14.634
 3957SOL    HW213769   3.472  13.006  14.562
 3958SOL     OW13770   4.525  10.478   3.705
 3958SOL    HW113771   4.453  10.462   3.644
 3958SOL    HW213772   4.498  10.433   3.785
 3959SOL     OW13773   4.332   4.859   1.356
 3959SOL    HW113774   4.348   4.802   1.281
 3959SOL    HW213775   4.393   4.829   1.423
 3960SOL     OW13776  11.549   1.653   6.129
 3960SOL    HW113777  11.639   1.669   6.100
 3960SOL    HW213778  11.498   1.723   6.088
 3961SOL     OW13779   7.994  13.389   6.988
 3961SOL    HW113780   7.918  13.332   6.987
 3961SOL    HW213781   8.054  13.350   6.924
 3962SOL     OW13782   8.383  11.569  13.987
 3962SOL    HW113783   8.467  11.614  13.992
 3962SOL    HW213784   8.380  11.513  14.064
 3963SOL     OW13785   4.279   1.464  10.763
 3963SOL    HW113786   4.196   1.513  10.769
 3963SOL    HW213787   4.252   1.372  10.769
 3964SOL     OW13788   3.699   6.982   1.500
 3964SOL    HW113789   3.769   6.944   1.554
 3964SOL    HW213790   3.620   6.973   1.553
 3965SOL     OW13791   9.120   4.613   5.622
 3965SOL    HW113792   9.121   4.702   5.657
 3965SOL    HW213793   9.040   4.574   5.657
 3966SOL     OW13794   3.219  11.565  11.717
 3966SOL    HW113795   3.311  11.567  11.744
 3966SOL    HW213796   3.219  11.512  11.637
 3967SOL     OW13797  14.258   0.554   1.066
 3967SOL    HW113798  14.307   0.473   1.050
 3967SOL    HW213799  14.180   0.525   1.114
 3968SOL     OW13800  13.097   9.303  10.981
 3968SOL    HW113801  13.143   9.265  10.906
 3968SOL    HW213802  13.151   9.281  11.056
 3969SOL     OW13803  11.434   0.546   2.258
 3969SOL    HW113804  11.435   0.474   2.195
 3969SOL    HW213805  11.360   0.526   2.316
 3970SOL     OW13806   7.286   7.019   7.372
 3970SOL    HW113807   7.307   7.033   7.280
 3970SOL    HW213808   7.355   6.961   7.404
 3971SOL     OW13809  11.264   0.438  12.354
 3971SOL    HW113810  11.335   0.374  12.352
 3971SOL    HW213811  11.275   0.484  12.438
 3972SOL     OW13812   1.224  13.916  13.570
 3972SOL    HW113813   1.201  13.913  13.477
 3972SOL    HW213814   1.218  13.825  13.599
 3973SOL     OW13815   6.785   1.174  13.261
 3973SOL    HW113816   6.708   1.117  13.256
 3973SOL    HW213817   6.782   1.224  13.179
 3974SOL     OW13818   8.683  10.898  11.979
 3974SOL    HW113819   8.753  10.882  11.916
 3974SOL    HW213820   8.602  10.885  11.930
 3975SOL     OW13821   7.429   7.006   0.676
 3975SOL    HW113822   7.412   6.918   0.641
 3975SOL    HW213823   7.506   7.037   0.628
 3976SOL     OW13824   5.889   1.782   1.905
 3976SOL    HW113825   5.929   1.868   1.893
 3976SOL    HW213826   5.914   1.732   1.827
 3977SOL     OW13827  13.805   3.837  12.424
 3977SOL    HW113828  13.757   3.773  12.370
 3977SOL    HW213829  13.869   3.875  12.364
 3978SOL     OW13830   4.865   7.984  11.770
 3978SOL    HW113831   4.889   8.077  11.774
 3978SOL    HW213832   4.892   7.956  11.682
 3979SOL     OW13833  13.841   4.850   3.341
 3979SOL    HW113834  13.884   4.930   3.370
 3979SOL    HW213835  13.899   4.780   3.370
 3980SOL     OW13836   4.460  13.053  13.807
 3980SOL    HW113837   4.427  12.988  13.744
 3980SOL    HW213838   4.392  13.119  13.811
 3981SOL     OW13839   4.505  13.776   3.421
 3981SOL    HW113840   4.482  13.788   3.329
 3981SOL    HW213841   4.526  13.683   3.429
 3982SOL     OW13842   1.362   8.489   6.909
 3982SOL    HW113843   1.291   8.521   6.852
 3982SOL    HW213844   1.433   8.467   6.849
 3983SOL     OW13845   8.440   8.398   1.357
 3983SOL    HW113846   8.511   8.377   1.296
 3983SOL    HW213847   8.390   8.467   1.313
 3984SOL     OW13848   6.552   3.247  11.343
 3984SOL    HW113849   6.505   3.210  11.418
 3984SOL    HW213850   6.579   3.334  11.373
 3985SOL     OW13851  12.850   3.853   8.274
 3985SOL    HW113852  12.878   3.941   8.297
 3985SOL    HW213853  12.902   3.795   8.330
 3986SOL     OW13854   3.234   0.325   9.390
 3986SOL    HW113855   3.235   0.264   9.464
 3986SOL    HW213856   3.313   0.305   9.340
 3987SOL     OW13857  14.338  11.074  14.029
 3987SOL    HW113858  14.398  11.114  13.966
 3987SOL    HW213859  14.395  11.035  14.095
 3988SOL     OW13860  10.118  13.048   8.591
 3988SOL    HW113861  10.074  13.025   8.510
 3988SOL    HW213862  10.211  13.045   8.570
 3989SOL     OW13863   2.243   9.072   1.265
 3989SOL    HW113864   2.191   8.993   1.278
 3989SOL    HW213865   2.331   9.047   1.293
 3990SOL     OW13866  12.915   7.814   2.512
 3990SOL    HW113867  12.887   7.739   2.564
 3990SOL    HW213868  12.861   7.810   2.433
 3991SOL     OW13869  10.876   1.432  11.237
 3991SOL    HW113870  10.892   1.445  11.143
 3991SOL    HW213871  10.946   1.482  11.280
 3992SOL     OW13872   1.919  12.520  11.883
 3992SOL    HW113873   1.924  12.467  11.963
 3992SOL    HW213874   1.826  12.517  11.859
 3993SOL     OW13875   7.360  12.460   2.284
 3993SOL    HW113876   7.390  12.376   2.318
 3993SOL    HW213877   7.340  12.511   2.363
 3994SOL     OW13878   8.426  11.589   2.725
 3994SOL    HW113879   8.390  11.569   2.639
 3994SOL    HW213880   8.368  11.545   2.786
 3995SOL     OW13881   0.060  14.529   7.511
 3995SOL    HW113882   0.075  14.615   7.549
 3995SOL    HW213883   0.101  14.533   7.424
 3996SOL     OW13884   6.745  14.427  11.294
 3996SOL    HW113885   6.666  14.466  11.256
 3996SOL    HW213886   6.811  14.497  11.289
 3997SOL     OW13887  13.172   3.634   1.129
 3997SOL    HW113888  13.086   3.671   1.106
 3997SOL    HW213889  13.204   3.691   1.199
 3998SOL     OW13890  11.328   4.244   5.517
 3998SOL    HW113891  11.402   4.206   5.564
 3998SOL    HW213892  11.254   4.233   5.577
 3999SOL     OW13893   4.745  12.588   9.285
 3999SOL    HW113894   4.755  12.683   9.273
 3999SOL    HW213895   4.824  12.561   9.331
 4000SOL     OW13896   3.546  11.070   8.255
 4000SOL    HW113897   3.476  11.131   8.279
 4000SOL    HW213898   3.527  11.046   8.164
 4001SOL     OW13899  10.193   1.024  12.690
 4001SOL    HW113900  10.187   1.055  12.600
 4001SOL    HW213901  10.164   0.933  12.686
 4002SOL     OW13902  14.564   6.123   3.982
 4002SOL    HW113903  14.584   6.123   3.888
 4002SOL    HW213904  14.473   6.094   3.986
 4003SOL     OW13905   3.557   8.297  12.147
 4003SOL    HW113906   3.462   8.289  12.155
 4003SOL    HW213907   3.577   8.263  12.060
 4004SOL     OW13908   9.544   0.697   1.667
 4004SOL    HW113909   9.472   0.757   1.690
 4004SOL    HW213910   9.501   0.628   1.617
 4005SOL     OW13911   1.411   8.369   9.431
 4005SOL    HW113912   1.331   8.408   9.466
 4005SOL    HW213913   1.435   8.302   9.495
 4006SOL     OW13914   7.732  14.538   4.999
 4006SOL    HW113915   7.750  14.564   5.089
 4006SOL    HW213916   7.784  14.599   4.946
 4007SOL     OW13917   9.347   9.122   3.123
 4007SOL    HW113918   9.286   9.159   3.059
 4007SOL    HW213919   9.419   9.184   3.128
 4008SOL     OW13920  14.598   6.650   8.901
 4008SOL    HW113921  14.638   6.629   8.817
 4008SOL    HW213922  14.668   6.692   8.951
 4009SOL     OW13923  13.604   3.020  12.582
 4009SOL    HW113924  13.579   2.934  12.614
 4009SOL    HW213925  13.582   3.018  12.489
 4010SOL     OW13926   8.163  12.584   8.008
 4010SOL    HW113927   8.259  12.584   8.006
 4010SOL    HW213928   8.138  12.535   7.930
 4011SOL     OW13929  14.811   2.582   4.574
 4011SOL    HW113930  14.733   2.630   4.547
 4011SOL    HW213931  14.871   2.588   4.499
 4012SOL     OW13932   0.594  14.622   9.365
 4012SOL    HW113933   0.687  14.623   9.387
 4012SOL    HW213934   0.588  14.675   9.285
 4013SOL     OW13935  14.463  10.271   5.752
 4013SOL    HW113936  14.397  10.242   5.688
 4013SOL    HW213937  14.458  10.206   5.823
 4014SOL     OW13938  10.482   0.094   4.897
 4014SOL    HW113939  10.421   0.159   4.933
 4014SOL    HW213940  10.569   0.130   4.916
 4015SOL     OW13941  11.378  11.431   6.889
 4015SOL    HW113942  11.405  11.484   6.964
 4015SOL    HW213943  11.302  11.382   6.921
 4016SOL     OW13944   5.308   2.341   0.683
 4016SOL    HW113945   5.395   2.310   0.661
 4016SOL    HW213946   5.251   2.266   0.669
 4017SOL     OW13947  12.668  11.814   3.769
 4017SOL    HW113948  12.746  11.867   3.752
 4017SOL    HW213949  12.603  11.844   3.705
 4018SOL     OW13950   7.782   3.186  14.516
 4018SOL    HW113951   7.704   3.145  14.479
 4018SOL    HW213952   7.748   3.242  14.587
 4019SOL     OW13953   2.925  14.784  11.946
 4019SOL    HW113954   2.986  14.842  11.992
 4019SOL    HW213955   2.967  14.765  11.862
 4020SOL     OW13956  13.114   7.929  13.767
 4020SOL    HW113957  13.101   8.006  13.823
 4020SOL    HW213958  13.088   7.855  13.821
 4021SOL     OW13959   2.360  12.973   8.089
 4021SOL    HW113960   2.367  13.055   8.039
 4021SOL    HW213961   2.426  12.916   8.051
 4022SOL     OW13962   4.245   6.614   1.698
 4022SOL    HW113963   4.317   6.655   1.747
 4022SOL    HW213964   4.279   6.605   1.610
 4023SOL     OW13965   6.955  13.585  12.029
 4023SOL    HW113966   6.869  13.567  12.066
 4023SOL    HW213967   7.017  13.544  12.089
 4024SOL     OW13968   4.193  10.836   4.226
 4024SOL    HW113969   4.161  10.923   4.253
 4024SOL    HW213970   4.273  10.854   4.177
 4025SOL     OW13971   9.747   6.746   3.036
 4025SOL    HW113972   9.713   6.668   2.992
 4025SOL    HW213973   9.710   6.740   3.125
 4026SOL     OW13974   4.969  12.418   4.031
 4026SOL    HW113975   5.041  12.431   4.093
 4026SOL    HW213976   4.983  12.485   3.964
 4027SOL     OW13977   0.118   0.209   1.061
 4027SOL    HW113978   0.066   0.242   0.987
 4027SOL    HW213979   0.111   0.277   1.128
 4028SOL     OW13980   4.337  12.788  10.356
 4028SOL    HW113981   4.383  12.758  10.277
 4028SOL    HW213982   4.369  12.877  10.371
 4029SOL     OW13983   0.307   8.379  13.979
 4029SOL    HW113984   0.309   8.469  13.945
 4029SOL    HW213985   0.383   8.337  13.940
 4030SOL     OW13986  14.679   2.597  14.875
 4030SOL    HW113987  14.765   2.570  14.844
 4030SOL    HW213988  14.666   2.684  14.838
 4031SOL     OW13989   9.113   6.005  13.938
 4031SOL    HW113990   9.208   6.001  13.931
 4031SOL    HW213991   9.091   6.095  13.916
 4032SOL     OW13992  13.132  11.568   1.215
 4032SOL    HW113993  13.107  11.486   1.258
 4032SOL    HW213994  13.057  11.589   1.158
 4033SOL     OW13995  10.650   0.154   9.279
 4033SOL    HW113996  10.676   0.227   9.335
 4033SOL    HW213997  10.710   0.083   9.303
 4034SOL     OW13998  10.812  11.322  11.685
 4034SOL    HW113999  10.897  11.341  11.644
 4034SOL    HW214000  10.798  11.394  11.746
 4035SOL     OW14001  12.524  12.942  10.054
 4035SOL    HW114002  12.437  12.955  10.016
 4035SOL    HW214003  12.511  12.957  10.147
 4036SOL     OW14004   2.192   1.835  10.828
 4036SOL    HW114005   2.159   1.770  10.766
 4036SOL    HW214006   2.146   1.816  10.909
 4037SOL     OW14007   6.353   5.671   3.651
 4037SOL    HW114008   6.395   5.756   3.665
 4037SOL    HW214009   6.262   5.693   3.628
 4038SOL     OW14010   6.450   7.878   8.181
 4038SOL    HW114011   6.545   7.880   8.190
 4038SOL    HW214012   6.416   7.908   8.265
 4039SOL     OW14013  10.054   1.444   6.327
 4039SOL    HW114014  10.147   1.466   6.318
 4039SOL    HW214015  10.051   1.374   6.391
 4040SOL     OW14016   6.489   3.396   6.919
 4040SOL    HW114017   6.544   3.318   6.931
 4040SOL    HW214018   6.548   3.470   6.931
 4041SOL     OW14019  13.064  10.406   3.638
 4041SOL    HW114020  13.138  10.345   3.634
 4041SOL    HW214021  13.081  10.470   3.569
 4042SOL     OW14022   2.697  13.328   9.491
 4042SOL    HW114023   2.651  13.411   9.481
 4042SOL    HW214024   2.629  13.265   9.514
 4043SOL     OW14025   1.886  13.237   8.156
 4043SOL    HW114026   1.878  13.332   8.146
 4043SOL    HW214027   1.870  13.221   8.249
 4044SOL     OW14028   8.936  13.240  10.475
 4044SOL    HW114029   8.867  13.203  10.530
 4044SOL    HW214030   8.920  13.334  10.477
 4045SOL     OW14031   1.803  11.878   5.219
 4045SOL    HW114032   1.789  11.828   5.300
 4045SOL    HW214033   1.786  11.814   5.149
 4046SOL     OW14034   6.910   1.779  13.198
 4046SOL    HW114035   6.972   1.849  13.220
 4046SOL    HW214036   6.919   1.717  13.270
 4047SOL     OW14037  11.604   7.298  13.353
 4047SOL    HW114038  11.693   7.311  13.321
 4047SOL    HW214039  11.549   7.301  13.274
 4048SOL     OW14040   8.332   0.961  13.720
 4048SOL    HW114041   8.335   1.028  13.788
 4048SOL    HW214042   8.423   0.949  13.694
 4049SOL     OW14043   0.289   5.127   1.610
 4049SOL    HW114044   0.349   5.081   1.669
 4049SOL    HW214045   0.344   5.155   1.537
 4050SOL     OW14046  12.342   9.621   8.226
 4050SOL    HW114047  12.409   9.572   8.273
 4050SOL    HW214048  12.383   9.705   8.207
 4051SOL     OW14049   7.228   0.832   9.196
 4051SOL    HW114050   7.223   0.737   9.206
 4051SOL    HW214051   7.249   0.846   9.103
 4052SOL     OW14052   2.421   6.495   7.208
 4052SOL    HW114053   2.511   6.509   7.239
 4052SOL    HW214054   2.411   6.557   7.136
 4053SOL     OW14055  12.120   4.406   1.466
 4053SOL    HW114056  12.074   4.334   1.423
 4053SOL    HW214057  12.212   4.382   1.462
 4054SOL     OW14058   5.800  11.010  14.680
 4054SOL    HW114059   5.709  11.005  14.653
 4054SOL    HW214060   5.832  10.920  14.671
 4055SOL     OW14061   4.091   3.782  13.806
 4055SOL    HW114062   4.131   3.705  13.767
 4055SOL    HW214063   4.024   3.748  13.865
 4056SOL     OW14064  10.633   1.663   5.725
 4056SOL    HW114065  10.607   1.662   5.633
 4056SOL    HW214066  10.728   1.659   5.724
 4057SOL     OW14067  12.861   3.829  13.327
 4057SOL    HW114068  12.818   3.859  13.407
 4057SOL    HW214069  12.892   3.909  13.285
 4058SOL     OW14070  14.078  10.921  12.672
 4058SOL    HW114071  14.105  10.845  12.620
 4058SOL    HW214072  13.984  10.929  12.656
 4059SOL     OW14073   5.768  11.753   4.972
 4059SOL    HW114074   5.726  11.687   5.027
 4059SOL    HW214075   5.858  11.758   5.006
 4060SOL     OW14076   8.627   1.273  13.008
 4060SOL    HW114077   8.544   1.238  12.976
 4060SOL    HW214078   8.602   1.347  13.064
 4061SOL     OW14079  12.030   9.178   2.256
 4061SOL    HW114080  12.034   9.107   2.320
 4061SOL    HW214081  12.106   9.233   2.276
 4062SOL     OW14082   8.649   2.701   6.745
 4062SOL    HW114083   8.683   2.658   6.823
 4062SOL    HW214084   8.706   2.777   6.733
 4063SOL     OW14085  14.647   7.117  11.993
 4063SOL    HW114086  14.703   7.041  11.974
 4063SOL    HW214087  14.559   7.081  11.996
 4064SOL     OW14088   3.418   6.537   6.495
 4064SOL    HW114089   3.480   6.559   6.425
 4064SOL    HW214090   3.468   6.482   6.555
 4065SOL     OW14091   3.490   0.680  13.770
 4065SOL    HW114092   3.532   0.632  13.841
 4065SOL    HW214093   3.533   0.648  13.691
 4066SOL     OW14094  14.740  14.465   0.454
 4066SOL    HW114095  14.758  14.511   0.536
 4066SOL    HW214096  14.706  14.380   0.480
 4067SOL     OW14097   5.785  14.536   2.341
 4067SOL    HW114098   5.800  14.497   2.427
 4067SOL    HW214099   5.849  14.495   2.283
 4068SOL     OW14100   6.876   1.173   0.070
 4068SOL    HW114101   6.798   1.207   0.028
 4068SOL    HW214102   6.883   1.082   0.040
 4069SOL     OW14103   1.623   3.886   7.137
 4069SOL    HW114104   1.548   3.874   7.078
 4069SOL    HW214105   1.655   3.974   7.117
 4070SOL     OW14106   1.088   7.907   2.820
 4070SOL    HW114107   1.074   7.936   2.730
 4070SOL    HW214108   1.093   7.811   2.814
 4071SOL     OW14109  11.897  14.831   0.132
 4071SOL    HW114110  11.870   0.004   0.057
 4071SOL    HW214111  11.822  14.774   0.149
 4072SOL     OW14112   9.016   9.608  12.411
 4072SOL    HW114113   8.925   9.620  12.440
 4072SOL    HW214114   9.013   9.622  12.317
 4073SOL     OW14115   5.492   0.764   0.629
 4073SOL    HW114116   5.470   0.717   0.709
 4073SOL    HW214117   5.491   0.696   0.561
 4074SOL     OW14118   0.550   0.635   3.207
 4074SOL    HW114119   0.560   0.689   3.129
 4074SOL    HW214120   0.598   0.682   3.275
 4075SOL     OW14121   4.366   6.848  10.746
 4075SOL    HW114122   4.360   6.817  10.656
 4075SOL    HW214123   4.284   6.818  10.787
 4076SOL     OW14124   9.141   3.139   2.691
 4076SOL    HW114125   9.213   3.094   2.645
 4076SOL    HW214126   9.133   3.093   2.774
 4077SOL     OW14127   5.635   4.179   2.826
 4077SOL    HW114128   5.661   4.264   2.860
 4077SOL    HW214129   5.575   4.199   2.755
 4078SOL     OW14130   1.438  10.592   8.413
 4078SOL    HW114131   1.513  10.545   8.379
 4078SOL    HW214132   1.388  10.617   8.335
 4079SOL     OW14133  12.001   8.801   7.740
 4079SOL    HW114134  11.934   8.844   7.687
 4079SOL    HW214135  11.953   8.741   7.797
 4080SOL     OW14136   9.173   0.334   0.176
 4080SOL    HW114137   9.089   0.342   0.221
 4080SOL    HW214138   9.226   0.279   0.233
 4081SOL     OW14139   4.517  12.592   8.577
 4081SOL    HW114140   4.608  12.614   8.557
 4081SOL    HW214141   4.468  12.619   8.498
 4082SOL     OW14142   1.765   3.591  11.672
 4082SOL    HW114143   1.726   3.505  11.687
 4082SOL    HW214144   1.814   3.580  11.590
 4083SOL     OW14145  10.889   2.424   6.783
 4083SOL    HW114146  10.830   2.494   6.809
 4083SOL    HW214147  10.863   2.403   6.693
 4084SOL     OW14148   2.966   2.280  14.279
 4084SOL    HW114149   3.008   2.290  14.193
 4084SOL    HW214150   2.894   2.219  14.264
 4085SOL     OW14151   2.992   9.847  10.507
 4085SOL    HW114152   3.008   9.779  10.572
 4085SOL    HW214153   3.053   9.828  10.436
 4086SOL     OW14154   2.468  14.646  14.528
 4086SOL    HW114155   2.445  14.684  14.613
 4086SOL    HW214156   2.549  14.691  14.504
 4087SOL     OW14157  12.310   5.577   1.945
 4087SOL    HW114158  12.323   5.616   1.858
 4087SOL    HW214159  12.215   5.569   1.954
 4088SOL     OW14160   7.379   1.472   2.128
 4088SOL    HW114161   7.407   1.485   2.037
 4088SOL    HW214162   7.354   1.560   2.158
 4089SOL     OW14163   7.975  10.561  13.760
 4089SOL    HW114164   7.979  10.526  13.671
 4089SOL    HW214165   7.916  10.502  13.806
 4090SOL     OW14166   8.052  11.871   9.173
 4090SOL    HW114167   8.140  11.908   9.167
 4090SOL    HW214168   8.005  11.910   9.100
 4091SOL     OW14169   5.958   8.677   8.138
 4091SOL    HW114170   5.986   8.769   8.136
 4091SOL    HW214171   6.019   8.632   8.079
 4092SOL     OW14172   2.795  12.713   1.999
 4092SOL    HW114173   2.710  12.739   2.033
 4092SOL    HW214174   2.779  12.696   1.906
 4093SOL     OW14175   3.630   4.623  11.377
 4093SOL    HW114176   3.633   4.717  11.395
 4093SOL    HW214177   3.554   4.592  11.426
 4094SOL     OW14178   5.925   7.720  13.613
 4094SOL    HW114179   5.928   7.755  13.702
 4094SOL    HW214180   5.842   7.750  13.578
 4095SOL     OW14181   4.149   5.846  14.772
 4095SOL    HW114182   4.069   5.807  14.737
 4095SOL    HW214183   4.148   5.822  14.864
 4096SOL     OW14184   8.947   8.209  12.797
 4096SOL    HW114185   8.981   8.212  12.708
 4096SOL    HW214186   8.994   8.278  12.844
 4097SOL     OW14187   5.336  13.422   5.364
 4097SOL    HW114188   5.310  13.331   5.382
 4097SOL    HW214189   5.409  13.414   5.303
 4098SOL     OW14190   0.595   4.031   8.953
 4098SOL    HW114191   0.575   3.959   9.013
 4098SOL    HW214192   0.514   4.082   8.949
 4099SOL     OW14193   0.241   6.480   6.832
 4099SOL    HW114194   0.169   6.483   6.894
 4099SOL    HW214195   0.243   6.389   6.802
 4100SOL     OW14196   8.686  12.790   7.592
 4100SOL    HW114197   8.755  12.802   7.526
 4100SOL    HW214198   8.656  12.701   7.579
 4101SOL     OW14199  11.371   9.667   7.009
 4101SOL    HW114200  11.388   9.662   6.915
 4101SOL    HW214201  11.426   9.739   7.039
 4102SOL     OW14202  12.329  14.566  13.810
 4102SOL    HW114203  12.324  14.587  13.903
 4102SOL    HW214204  12.401  14.504  13.803
 4103SOL     OW14205  10.511   6.563  11.890
 4103SOL    HW114206  10.426   6.568  11.932
 4103SOL    HW214207  10.493   6.521  11.805
 4104SOL     OW14208   8.880   8.295   9.022
 4104SOL    HW114209   8.925   8.219   8.986
 4104SOL    HW214210   8.908   8.300   9.113
 4105SOL     OW14211  13.940   4.151   2.568
 4105SOL    HW114212  13.918   4.066   2.530
 4105SOL    HW214213  13.971   4.130   2.656
 4106SOL     OW14214  12.115   9.006   1.700
 4106SOL    HW114215  12.060   9.045   1.768
 4106SOL    HW214216  12.144   9.079   1.646
 4107SOL     OW14217  10.463   3.138   9.442
 4107SOL    HW114218  10.394   3.074   9.461
 4107SOL    HW214219  10.418   3.223   9.443
 4108SOL     OW14220   6.547  11.531   6.583
 4108SOL    HW114221   6.472  11.550   6.639
 4108SOL    HW214222   6.524  11.450   6.538
 4109SOL     OW14223  14.515   4.105  14.518
 4109SOL    HW114224  14.486   4.014  14.526
 4109SOL    HW214225  14.462   4.141  14.448
 4110SOL     OW14226   1.191  12.715   2.985
 4110SOL    HW114227   1.158  12.801   2.960
 4110SOL    HW214228   1.188  12.715   3.080
 4111SOL     OW14229   9.932  11.246   7.316
 4111SOL    HW114230  10.024  11.266   7.337
 4111SOL    HW214231   9.899  11.203   7.395
 4112SOL     OW14232   6.665  11.286  10.801
 4112SOL    HW114233   6.576  11.273  10.833
 4112SOL    HW214234   6.660  11.266  10.708
 4113SOL     OW14235  14.182   7.915   2.853
 4113SOL    HW114236  14.101   7.884   2.813
 4113SOL    HW214237  14.248   7.902   2.784
 4114SOL     OW14238   2.662  10.813   6.105
 4114SOL    HW114239   2.583  10.866   6.098
 4114SOL    HW214240   2.639  10.730   6.065
 4115SOL     OW14241   3.744   9.565   0.662
 4115SOL    HW114242   3.660   9.566   0.708
 4115SOL    HW214243   3.792   9.492   0.701
 4116SOL     OW14244  11.804   7.687   9.784
 4116SOL    HW114245  11.770   7.769   9.748
 4116SOL    HW214246  11.893   7.682   9.749
 4117SOL     OW14247  12.534   9.217   7.449
 4117SOL    HW114248  12.464   9.274   7.417
 4117SOL    HW214249  12.494   9.130   7.451
 4118SOL     OW14250   9.095   4.478   8.193
 4118SOL    HW114251   9.153   4.500   8.266
 4118SOL    HW214252   9.074   4.386   8.206
 4119SOL     OW14253   9.971   5.225   2.367
 4119SOL    HW114254   9.944   5.316   2.378
 4119SOL    HW214255   9.955   5.184   2.452
 4120SOL     OW14256   8.482   8.333   6.014
 4120SOL    HW114257   8.549   8.268   6.037
 4120SOL    HW214258   8.493   8.346   5.920
 4121SOL     OW14259   7.662   8.478   0.370
 4121SOL    HW114260   7.573   8.513   0.363
 4121SOL    HW214261   7.687   8.492   0.462
 4122SOL     OW14262   7.214  10.118   3.696
 4122SOL    HW114263   7.259  10.202   3.708
 4122SOL    HW214264   7.136  10.125   3.751
 4123SOL     OW14265   9.760  10.136  11.505
 4123SOL    HW114266   9.710  10.058  11.480
 4123SOL    HW214267   9.827  10.104  11.565
 4124SOL     OW14268   4.197  10.492   3.002
 4124SOL    HW114269   4.161  10.414   3.044
 4124SOL    HW214270   4.286  10.466   2.976
 4125SOL     OW14271   5.210   8.648   1.553
 4125SOL    HW114272   5.164   8.564   1.549
 4125SOL    HW214273   5.262   8.642   1.633
 4126SOL     OW14274  12.390   6.987  12.341
 4126SOL    HW114275  12.390   7.020  12.431
 4126SOL    HW214276  12.481   6.961  12.325
 4127SOL     OW14277   6.927  12.367   1.843
 4127SOL    HW114278   6.981  12.317   1.782
 4127SOL    HW214279   6.951  12.458   1.829
 4128SOL     OW14280   7.039  11.526  13.194
 4128SOL    HW114281   7.033  11.526  13.098
 4128SOL    HW214282   7.124  11.486  13.212
 4129SOL     OW14283   4.672   0.604  13.573
 4129SOL    HW114284   4.589   0.586  13.618
 4129SOL    HW214285   4.655   0.579  13.482
 4130SOL     OW14286   4.733   0.563  10.433
 4130SOL    HW114287   4.761   0.549  10.342
 4130SOL    HW214288   4.643   0.597  10.425
 4131SOL     OW14289   2.745   8.333   5.178
 4131SOL    HW114290   2.763   8.352   5.086
 4131SOL    HW214291   2.674   8.392   5.202
 4132SOL     OW14292   0.099  11.814  13.415
 4132SOL    HW114293   0.164  11.766  13.363
 4132SOL    HW214294   0.100  11.902  13.378
 4133SOL     OW14295   1.291   4.924   0.226
 4133SOL    HW114296   1.316   5.014   0.206
 4133SOL    HW214297   1.274   4.925   0.320
 4134SOL     OW14298  14.402   2.869   1.667
 4134SOL    HW114299  14.366   2.797   1.616
 4134SOL    HW214300  14.417   2.831   1.754
 4135SOL     OW14301  13.578   3.646   9.424
 4135SOL    HW114302  13.631   3.706   9.371
 4135SOL    HW214303  13.590   3.560   9.383
 4136SOL     OW14304  12.523   9.344  10.016
 4136SOL    HW114305  12.542   9.295   9.936
 4136SOL    HW214306  12.543   9.283  10.087
 4137SOL     OW14307   8.147   9.068   2.006
 4137SOL    HW114308   8.081   9.127   2.043
 4137SOL    HW214309   8.201   9.125   1.950
 4138SOL     OW14310   8.012   3.786  13.506
 4138SOL    HW114311   8.070   3.710  13.497
 4138SOL    HW214312   7.999   3.815  13.416
 4139SOL     OW14313   6.301  10.212   3.185
 4139SOL    HW114314   6.230  10.250   3.236
 4139SOL    HW214315   6.364  10.181   3.250
 4140SOL     OW14316   0.332   6.528  11.160
 4140SOL    HW114317   0.368   6.558  11.243
 4140SOL    HW214318   0.237   6.530  11.173
 4141SOL     OW14319  12.079  13.610   1.332
 4141SOL    HW114320  12.119  13.586   1.249
 4141SOL    HW214321  12.137  13.677   1.368
 4142SOL     OW14322   9.833  10.128  13.514
 4142SOL    HW114323   9.872  10.214  13.524
 4142SOL    HW214324   9.818  10.097  13.603
 4143SOL     OW14325   9.117  14.539   7.404
 4143SOL    HW114326   9.089  14.528   7.313
 4143SOL    HW214327   9.198  14.488   7.410
 4144SOL     OW14328   0.278   5.284  13.368
 4144SOL    HW114329   0.313   5.362  13.411
 4144SOL    HW214330   0.352   5.223  13.364
 4145SOL     OW14331   4.302   3.911   9.691
 4145SOL    HW114332   4.275   3.819   9.692
 4145SOL    HW214333   4.230   3.957   9.649
 4146SOL     OW14334  14.786   1.607   8.138
 4146SOL    HW114335  14.774   1.592   8.232
 4146SOL    HW214336  14.736   1.686   8.119
 4147SOL     OW14337  10.674   5.657  10.907
 4147SOL    HW114338  10.649   5.616  10.824
 4147SOL    HW214339  10.721   5.588  10.954
 4148SOL     OW14340   4.400   6.604  11.040
 4148SOL    HW114341   4.339   6.633  10.973
 4148SOL    HW214342   4.352   6.536  11.088
 4149SOL     OW14343  12.357   7.804  11.508
 4149SOL    HW114344  12.388   7.849  11.587
 4149SOL    HW214345  12.344   7.714  11.536
 4150SOL     OW14346   5.425  11.734  11.064
 4150SOL    HW114347   5.420  11.780  11.148
 4150SOL    HW214348   5.502  11.677  11.072
 4151SOL     OW14349   1.992   7.006   4.733
 4151SOL    HW114350   1.994   6.937   4.668
 4151SOL    HW214351   2.085   7.024   4.751
 4152SOL     OW14352   6.626   3.322   7.204
 4152SOL    HW114353   6.656   3.272   7.129
 4152SOL    HW214354   6.535   3.296   7.216
 4153SOL     OW14355  13.642  11.234  13.361
 4153SOL    HW114356  13.569  11.235  13.422
 4153SOL    HW214357  13.602  11.248  13.275
 4154SOL     OW14358  14.810   5.215  11.624
 4154SOL    HW114359  14.783   5.233  11.534
 4154SOL    HW214360  14.745   5.154  11.658
 4155SOL     OW14361   0.675  10.068  13.270
 4155SOL    HW114362   0.672  10.141  13.331
 4155SOL    HW214363   0.614  10.003  13.307
 4156SOL     OW14364   7.014  14.345   6.146
 4156SOL    HW114365   6.981  14.391   6.069
 4156SOL    HW214366   7.035  14.415   6.208
 4157SOL     OW14367   6.848   6.195   1.243
 4157SOL    HW114368   6.859   6.228   1.332
 4157SOL    HW214369   6.760   6.223   1.217
 4158SOL     OW14370   8.864   3.752  14.211
 4158SOL    HW114371   8.872   3.676  14.269
 4158SOL    HW214372   8.773   3.751  14.182
 4159SOL     OW14373   0.340   8.599   5.021
 4159SOL    HW114374   0.249   8.602   4.992
 4159SOL    HW214375   0.335   8.584   5.115
 4160SOL     OW14376  12.203   4.880   8.979
 4160SOL    HW114377  12.274   4.903   9.040
 4160SOL    HW214378  12.247   4.834   8.907
 4161SOL     OW14379  13.370   7.178   8.913
 4161SOL    HW114380  13.341   7.243   8.976
 4161SOL    HW214381  13.398   7.229   8.837
 4162SOL     OW14382   1.546   6.683   5.284
 4162SOL    HW114383   1.453   6.691   5.303
 4162SOL    HW214384   1.573   6.771   5.258
 4163SOL     OW14385  12.693  13.822  13.876
 4163SOL    HW114386  12.726  13.912  13.871
 4163SOL    HW214387  12.759  13.770  13.830
 4164SOL     OW14388  10.688  10.277   4.737
 4164SOL    HW114389  10.775  10.308   4.764
 4164SOL    HW214390  10.690  10.282   4.641
 4165SOL     OW14391   2.413   6.298  10.373
 4165SOL    HW114392   2.363   6.279  10.294
 4165SOL    HW214393   2.361   6.363  10.420
 4166SOL     OW14394  13.162   8.211  12.486
 4166SOL    HW114395  13.147   8.304  12.501
 4166SOL    HW214396  13.256   8.200  12.502
 4167SOL     OW14397   1.681  10.557   7.637
 4167SOL    HW114398   1.590  10.532   7.618
 4167SOL    HW214399   1.685  10.650   7.612
 4168SOL     OW14400   1.921   7.257   7.507
 4168SOL    HW114401   1.858   7.187   7.522
 4168SOL    HW214402   1.868   7.337   7.504
 4169SOL     OW14403   0.476   6.496  12.699
 4169SOL    HW114404   0.481   6.573  12.757
 4169SOL    HW214405   0.554   6.445  12.722
 4170SOL     OW14406  11.658  10.846   8.158
 4170SOL    HW114407  11.623  10.786   8.224
 4170SOL    HW214408  11.753  10.841   8.170
 4171SOL     OW14409   4.627  10.136   9.513
 4171SOL    HW114410   4.599  10.080   9.586
 4171SOL    HW214411   4.605  10.086   9.435
 4172SOL     OW14412   8.495  12.017   6.027
 4172SOL    HW114413   8.461  12.085   6.085
 4172SOL    HW214414   8.566  11.976   6.076
 4173SOL     OW14415  14.412  14.512  11.753
 4173SOL    HW114416  14.327  14.469  11.759
 4173SOL    HW214417  14.462  14.458  11.691
 4174SOL     OW14418   3.947   6.576   6.494
 4174SOL    HW114419   3.991   6.492   6.485
 4174SOL    HW214420   3.906   6.591   6.408
 4175SOL     OW14421   2.634   6.846   7.161
 4175SOL    HW114422   2.572   6.865   7.231
 4175SOL    HW214423   2.696   6.920   7.163
 4176SOL     OW14424   1.496   4.647   9.573
 4176SOL    HW114425   1.583   4.607   9.578
 4176SOL    HW214426   1.507   4.724   9.518
 4177SOL     OW14427   0.092   5.144   1.381
 4177SOL    HW114428   0.156   5.160   1.312
 4177SOL    HW214429   0.106   5.215   1.443
 4178SOL     OW14430  14.186   3.694   1.988
 4178SOL    HW114431  14.208   3.639   2.063
 4178SOL    HW214432  14.164   3.779   2.025
 4179SOL     OW14433   4.984   5.688   6.264
 4179SOL    HW114434   5.005   5.618   6.325
 4179SOL    HW214435   4.984   5.646   6.178
 4180SOL     OW14436  11.493   5.271   8.769
 4180SOL    HW114437  11.518   5.219   8.845
 4180SOL    HW214438  11.509   5.361   8.795
 4181SOL     OW14439   4.410   0.264   7.965
 4181SOL    HW114440   4.422   0.217   8.048
 4181SOL    HW214441   4.444   0.352   7.982
 4182SOL     OW14442   0.853  11.527   3.106
 4182SOL    HW114443   0.839  11.437   3.137
 4182SOL    HW214444   0.942  11.525   3.070
 4183SOL     OW14445  10.156   0.873   8.907
 4183SOL    HW114446  10.182   0.781   8.913
 4183SOL    HW214447  10.233   0.917   8.871
 4184SOL     OW14448  13.671   6.243  14.235
 4184SOL    HW114449  13.576   6.248  14.228
 4184SOL    HW214450  13.689   6.262  14.328
 4185SOL     OW14451  14.705   6.112   4.223
 4185SOL    HW114452  14.634   6.160   4.267
 4185SOL    HW214453  14.678   6.109   4.131
 4186SOL     OW14454   1.532   8.855   5.681
 4186SOL    HW114455   1.504   8.851   5.773
 4186SOL    HW214456   1.610   8.911   5.683
 4187SOL     OW14457   7.747   5.262   0.338
 4187SOL    HW114458   7.827   5.293   0.381
 4187SOL    HW214459   7.777   5.190   0.283
 4188SOL     OW14460   5.867  10.377  14.003
 4188SOL    HW114461   5.813  10.453  14.023
 4188SOL    HW214462   5.933  10.410  13.942
 4189SOL     OW14463  11.984  10.919  11.102
 4189SOL    HW114464  12.024  10.860  11.166
 4189SOL    HW214465  11.925  10.973  11.154
 4190SOL     OW14466  13.326   5.093   9.371
 4190SOL    HW114467  13.336   5.005   9.406
 4190SOL    HW214468  13.410   5.113   9.329
 4191SOL     OW14469   2.792  13.453   7.962
 4191SOL    HW114470   2.781  13.382   8.025
 4191SOL    HW214471   2.730  13.520   7.990
 4192SOL     OW14472   5.549   9.865   1.821
 4192SOL    HW114473   5.641   9.845   1.833
 4192SOL    HW214474   5.502   9.801   1.875
 4193SOL     OW14475   8.853   9.012  10.985
 4193SOL    HW114476   8.838   9.094  10.939
 4193SOL    HW214477   8.931   8.975  10.943
 4194SOL     OW14478   7.585  12.212  12.466
 4194SOL    HW114479   7.560  12.302  12.445
 4194SOL    HW214480   7.658  12.220  12.527
 4195SOL     OW14481   1.180   4.356   3.019
 4195SOL    HW114482   1.106   4.297   3.003
 4195SOL    HW214483   1.245   4.331   2.953
 4196SOL     OW14484   5.630   7.263   3.401
 4196SOL    HW114485   5.712   7.308   3.380
 4196SOL    HW214486   5.629   7.187   3.343
 4197SOL     OW14487   3.711   6.763   5.196
 4197SOL    HW114488   3.771   6.835   5.176
 4197SOL    HW214489   3.665   6.746   5.114
 4198SOL     OW14490   8.834  11.391  11.520
 4198SOL    HW114491   8.843  11.434  11.434
 4198SOL    HW214492   8.838  11.298  11.501
 4199SOL     OW14493  12.575  10.044   6.013
 4199SOL    HW114494  12.529  10.069   6.093
 4199SOL    HW214495  12.549   9.953   5.998
 4200SOL     OW14496   3.709  10.381   1.308
 4200SOL    HW114497   3.701  10.307   1.368
 4200SOL    HW214498   3.753  10.344   1.231
 4201SOL     OW14499   0.857   4.882  14.844
 4201SOL    HW114500   0.951   4.901  14.843
 4201SOL    HW214501   0.816   4.966  14.864
 4202SOL     OW14502  13.553   7.820   1.935
 4202SOL    HW114503  13.472   7.837   1.886
 4202SOL    HW214504  13.533   7.744   1.989
 4203SOL     OW14505   6.520   8.196   8.527
 4203SOL    HW114506   6.479   8.203   8.614
 4203SOL    HW214507   6.458   8.143   8.476
 4204SOL     OW14508  14.397   2.200   7.322
 4204SOL    HW114509  14.405   2.106   7.306
 4204SOL    HW214510  14.328   2.229   7.264
 4205SOL     OW14511   7.444   7.346  10.142
 4205SOL    HW114512   7.466   7.401  10.217
 4205SOL    HW214513   7.464   7.257  10.170
 4206SOL     OW14514   6.209   9.379   6.966
 4206SOL    HW114515   6.258   9.298   6.981
 4206SOL    HW214516   6.138   9.377   7.030
 4207SOL     OW14517  10.842   4.975   0.164
 4207SOL    HW114518  10.920   4.964   0.110
 4207SOL    HW214519  10.776   4.919   0.123
 4208SOL     OW14520   8.738   3.344   5.953
 4208SOL    HW114521   8.825   3.316   5.981
 4208SOL    HW214522   8.755   3.405   5.881
 4209SOL     OW14523   0.030   1.957   8.048
 4209SOL    HW114524   0.122   1.929   8.052
 4209SOL    HW214525  14.862   1.881   8.015
 4210SOL     OW14526   4.351   5.093   7.456
 4210SOL    HW114527   4.376   5.007   7.489
 4210SOL    HW214528   4.283   5.075   7.391
 4211SOL     OW14529   2.239   3.177   5.521
 4211SOL    HW114530   2.277   3.128   5.448
 4211SOL    HW214531   2.168   3.227   5.483
 4212SOL     OW14532  12.266   9.290   8.322
 4212SOL    HW114533  12.227   9.239   8.393
 4212SOL    HW214534  12.207   9.364   8.310
 4213SOL     OW14535  10.984  12.439   1.443
 4213SOL    HW114536  10.894  12.470   1.452
 4213SOL    HW214537  10.995  12.378   1.515
 4214SOL     OW14538   2.158  11.694   6.746
 4214SOL    HW114539   2.168  11.699   6.651
 4214SOL    HW214540   2.120  11.607   6.761
 4215SOL     OW14541   5.083  14.160   5.408
 4215SOL    HW114542   5.169  14.129   5.438
 4215SOL    HW214543   5.078  14.131   5.317
 4216SOL     OW14544   9.631   4.080  13.840
 4216SOL    HW114545   9.593   4.040  13.918
 4216SOL    HW214546   9.722   4.050  13.838
 4217SOL     OW14547   1.413   0.659   7.369
 4217SOL    HW114548   1.379   0.733   7.419
 4217SOL    HW214549   1.444   0.697   7.287
 4218SOL     OW14550   8.657  12.933   5.967
 4218SOL    HW114551   8.730  12.879   5.997
 4218SOL    HW214552   8.603  12.945   6.046
 4219SOL     OW14553   8.841   8.304   5.756
 4219SOL    HW114554   8.761   8.254   5.745
 4219SOL    HW214555   8.910   8.237   5.760
 4220SOL     OW14556  12.326  10.960   7.854
 4220SOL    HW114557  12.358  11.044   7.887
 4220SOL    HW214558  12.333  10.967   7.759
 4221SOL     OW14559   7.451   4.587   5.892
 4221SOL    HW114560   7.443   4.637   5.811
 4221SOL    HW214561   7.366   4.596   5.935
 4222SOL     OW14562   2.298   2.286   4.801
 4222SOL    HW114563   2.337   2.264   4.886
 4222SOL    HW214564   2.345   2.364   4.772
 4223SOL     OW14565   0.731   2.564   4.906
 4223SOL    HW114566   0.793   2.570   4.833
 4223SOL    HW214567   0.774   2.507   4.969
 4224SOL     OW14568  13.242  11.215   0.702
 4224SOL    HW114569  13.225  11.163   0.781
 4224SOL    HW214570  13.337  11.221   0.697
 4225SOL     OW14571   4.484   9.601   5.704
 4225SOL    HW114572   4.558   9.657   5.728
 4225SOL    HW214573   4.425   9.659   5.656
 4226SOL     OW14574   5.380   2.268   9.969
 4226SOL    HW114575   5.318   2.276   9.897
 4226SOL    HW214576   5.466   2.279   9.927
 4227SOL     OW14577   4.452  13.357   1.813
 4227SOL    HW114578   4.391  13.421   1.850
 4227SOL    HW214579   4.538  13.397   1.825
 4228SOL     OW14580  12.914   9.192   8.524
 4228SOL    HW114581  12.985   9.205   8.587
 4228SOL    HW214582  12.882   9.103   8.541
 4229SOL     OW14583   5.214   3.513   7.116
 4229SOL    HW114584   5.296   3.543   7.154
 4229SOL    HW214585   5.206   3.561   7.033
 4230SOL     OW14586   9.290   4.273  12.676
 4230SOL    HW114587   9.383   4.267  12.698
 4230SOL    HW214588   9.252   4.191  12.707
 4231SOL     OW14589   2.363   5.243   4.087
 4231SOL    HW114590   2.319   5.187   4.023
 4231SOL    HW214591   2.430   5.187   4.127
 4232SOL     OW14592   4.278   0.033   9.007
 4232SOL    HW114593   4.291   0.128   9.002
 4232SOL    HW214594   4.216   0.021   9.079
 4233SOL     OW14595   9.285  13.499   0.695
 4233SOL    HW114596   9.260  13.588   0.672
 4233SOL    HW214597   9.374  13.489   0.661
 4234SOL     OW14598   0.281  13.892  10.816
 4234SOL    HW114599   0.300  13.945  10.893
 4234SOL    HW214600   0.193  13.919  10.790
 4235SOL     OW14601   7.730  14.725   8.038
 4235SOL    HW114602   7.767  14.809   8.012
 4235SOL    HW214603   7.803  14.678   8.078
 4236SOL     OW14604  13.496  11.462  13.021
 4236SOL    HW114605  13.523  11.512  13.098
 4236SOL    HW214606  13.564  11.477  12.956
 4237SOL     OW14607  13.976   6.724   1.558
 4237SOL    HW114608  13.889   6.736   1.598
 4237SOL    HW214609  13.962   6.746   1.466
 4238SOL     OW14610  14.312   4.397   7.695
 4238SOL    HW114611  14.401   4.428   7.683
 4238SOL    HW214612  14.266   4.469   7.737
 4239SOL     OW14613   4.528  12.471  11.365
 4239SOL    HW114614   4.606  12.416  11.371
 4239SOL    HW214615   4.493  12.454  11.278
 4240SOL     OW14616   8.665   7.229   8.595
 4240SOL    HW114617   8.687   7.308   8.544
 4240SOL    HW214618   8.733   7.224   8.662
 4241SOL     OW14619   5.539   0.090   8.929
 4241SOL    HW114620   5.507   0.166   8.978
 4241SOL    HW214621   5.479   0.019   8.953
 4242SOL     OW14622  11.611   2.091  11.129
 4242SOL    HW114623  11.675   2.161  11.120
 4242SOL    HW214624  11.526   2.136  11.124
 4243SOL     OW14625  12.900   7.852   5.968
 4243SOL    HW114626  12.854   7.926   5.928
 4243SOL    HW214627  12.865   7.775   5.924
 4244SOL     OW14628   4.373   5.189  14.822
 4244SOL    HW114629   4.463   5.205  14.794
 4244SOL    HW214630   4.375   5.103  14.863
 4245SOL     OW14631   6.201  12.432   8.209
 4245SOL    HW114632   6.164  12.345   8.220
 4245SOL    HW214633   6.294  12.417   8.194
 4246SOL     OW14634  11.337  12.554   1.484
 4246SOL    HW114635  11.421  12.518   1.458
 4246SOL    HW214636  11.308  12.499   1.557
 4247SOL     OW14637  10.103  12.520   5.877
 4247SOL    HW114638  10.053  12.571   5.940
 4247SOL    HW214639  10.140  12.584   5.817
 4248SOL     OW14640   0.218  12.923   3.350
 4248SOL    HW114641   0.143  12.966   3.309
 4248SOL    HW214642   0.185  12.836   3.374
 4249SOL     OW14643   6.447  13.864  10.571
 4249SOL    HW114644   6.399  13.888  10.650
 4249SOL    HW214645   6.529  13.912  10.577
 4250SOL     OW14646   2.118  12.930   3.703
 4250SOL    HW114647   2.169  12.850   3.691
 4250SOL    HW214648   2.178  12.991   3.746
 4251SOL     OW14649   2.479   6.774  10.609
 4251SOL    HW114650   2.537   6.741  10.677
 4251SOL    HW214651   2.509   6.731  10.529
 4252SOL     OW14652   0.357  10.015   7.702
 4252SOL    HW114653   0.426  10.015   7.768
 4252SOL    HW214654   0.299  10.086   7.728
 4253SOL     OW14655   1.850   3.080   4.121
 4253SOL    HW114656   1.778   3.139   4.143
 4253SOL    HW214657   1.863   3.028   4.200
 4254SOL     OW14658  10.008   0.004  12.211
 4254SOL    HW114659  10.074  14.821  12.241
 4254SOL    HW214660   9.943  14.830  12.166
 4255SOL     OW14661   7.517   2.099   6.334
 4255SOL    HW114662   7.428   2.085   6.365
 4255SOL    HW214663   7.525   2.042   6.258
 4256SOL     OW14664  13.623  13.873   6.232
 4256SOL    HW114665  13.569  13.950   6.214
 4256SOL    HW214666  13.680  13.865   6.156
 4257SOL     OW14667  10.968   0.021   5.576
 4257SOL    HW114668  11.036  14.842   5.545
 4257SOL    HW214669  10.944  14.867   5.662
 4258SOL     OW14670   4.950  11.843   3.050
 4258SOL    HW114671   4.913  11.856   2.963
 4258SOL    HW214672   5.031  11.794   3.034
 4259SOL     OW14673   9.292  12.479   9.763
 4259SOL    HW114674   9.375  12.432   9.766
 4259SOL    HW214675   9.296  12.541   9.836
 4260SOL     OW14676   1.614   0.046   1.051
 4260SOL    HW114677   1.684   0.038   1.115
 4260SOL    HW214678   1.609  14.840   1.009
 4261SOL     OW14679  12.977  10.869   9.160
 4261SOL    HW114680  13.004  10.901   9.246
 4261SOL    HW214681  12.963  10.947   9.108
 4262SOL     OW14682  12.199  14.313   9.123
 4262SOL    HW114683  12.293  14.301   9.136
 4262SOL    HW214684  12.183  14.405   9.145
 4263SOL     OW14685  11.923   6.811   8.423
 4263SOL    HW114686  11.966   6.754   8.359
 4263SOL    HW214687  11.921   6.897   8.380
 4264SOL     OW14688  13.719   7.589   4.727
 4264SOL    HW114689  13.721   7.542   4.644
 4264SOL    HW214690  13.636   7.563   4.768
 4265SOL     OW14691  11.299   4.035   4.066
 4265SOL    HW114692  11.247   4.026   3.986
 4265SOL    HW214693  11.274   4.120   4.102
 4266SOL     OW14694   1.159  13.453   1.580
 4266SOL    HW114695   1.136  13.542   1.556
 4266SOL    HW214696   1.214  13.462   1.658
 4267SOL     OW14697   8.966   5.651   1.644
 4267SOL    HW114698   8.889   5.601   1.672
 4267SOL    HW214699   9.008   5.679   1.725
 4268SOL     OW14700   9.602   0.138   3.253
 4268SOL    HW114701   9.585   0.231   3.239
 4268SOL    HW214702   9.543   0.113   3.325
 4269SOL     OW14703   1.474   6.901  11.198
 4269SOL    HW114704   1.568   6.900  11.214
 4269SOL    HW214705   1.454   6.993  11.180
 4270SOL     OW14706   2.382   9.498   4.857
 4270SOL    HW114707   2.341   9.485   4.772
 4270SOL    HW214708   2.342   9.578   4.891
 4271SOL     OW14709  11.628   0.012   4.386
 4271SOL    HW114710  11.624   0.035   4.293
 4271SOL    HW214711  11.544  14.850   4.404
 4272SOL     OW14712  11.579  14.578   5.457
 4272SOL    HW114713  11.562  14.621   5.373
 4272SOL    HW214714  11.568  14.485   5.438
 4273SOL     OW14715  10.231  10.421   0.166
 4273SOL    HW114716  10.170  10.462   0.227
 4273SOL    HW214717  10.220  10.469   0.084
 4274SOL     OW14718   2.240  10.328   9.938
 4274SOL    HW114719   2.180  10.257   9.962
 4274SOL    HW214720   2.327  10.288   9.939
 4275SOL     OW14721   1.390   7.727   3.030
 4275SOL    HW114722   1.430   7.680   3.103
 4275SOL    HW214723   1.391   7.663   2.958
 4276SOL     OW14724  13.860   2.432   7.665
 4276SOL    HW114725  13.847   2.422   7.571
 4276SOL    HW214726  13.953   2.450   7.675
 4277SOL     OW14727   2.844  11.905   2.047
 4277SOL    HW114728   2.813  11.902   1.956
 4277SOL    HW214729   2.810  11.987   2.082
 4278SOL     OW14730  13.085   8.177  12.170
 4278SOL    HW114731  13.047   8.097  12.132
 4278SOL    HW214732  13.130   8.147  12.249
 4279SOL     OW14733  12.685   5.145   6.833
 4279SOL    HW114734  12.606   5.123   6.882
 4279SOL    HW214735  12.721   5.220   6.880
 4280SOL     OW14736  11.632  12.279   1.175
 4280SOL    HW114737  11.678  12.212   1.226
 4280SOL    HW214738  11.688  12.293   1.098
 4281SOL     OW14739   3.954   3.909   5.107
 4281SOL    HW114740   3.945   3.814   5.108
 4281SOL    HW214741   4.008   3.929   5.183
 4282SOL     OW14742  10.857   0.999   5.108
 4282SOL    HW114743  10.784   0.957   5.153
 4282SOL    HW214744  10.933   0.945   5.130
 4283SOL     OW14745  11.874   2.242  10.699
 4283SOL    HW114746  11.874   2.196  10.615
 4283SOL    HW214747  11.956   2.216  10.741
 4284SOL     OW14748  12.400   1.470   8.070
 4284SOL    HW114749  12.308   1.464   8.098
 4284SOL    HW214750  12.428   1.379   8.059
 4285SOL     OW14751  11.225   8.360   8.793
 4285SOL    HW114752  11.135   8.340   8.822
 4285SOL    HW214753  11.259   8.420   8.860
 4286SOL     OW14754  14.787   8.727  13.896
 4286SOL    HW114755  14.758   8.636  13.885
 4286SOL    HW214756  14.743   8.757  13.975
 4287SOL     OW14757   9.018  11.333   0.711
 4287SOL    HW114758   9.073  11.275   0.765
 4287SOL    HW214759   8.944  11.278   0.685
 4288SOL     OW14760   3.174   0.266   5.221
 4288SOL    HW114761   3.262   0.238   5.245
 4288SOL    HW214762   3.121   0.187   5.226
 4289SOL     OW14763   0.927  13.534   7.706
 4289SOL    HW114764   1.014  13.504   7.680
 4289SOL    HW214765   0.943  13.616   7.754
 4290SOL     OW14766  13.639  11.201  12.946
 4290SOL    HW114767  13.577  11.195  13.020
 4290SOL    HW214768  13.583  11.193  12.868
 4291SOL     OW14769   4.912  14.624  10.352
 4291SOL    HW114770   4.967  14.548  10.331
 4291SOL    HW214771   4.860  14.638  10.273
 4292SOL     OW14772   3.292   5.965  12.314
 4292SOL    HW114773   3.215   5.952  12.368
 4292SOL    HW214774   3.297   5.887  12.259
 4293SOL     OW14775   4.013   7.299   9.721
 4293SOL    HW114776   4.016   7.309   9.816
 4293SOL    HW214777   3.932   7.251   9.704
 4294SOL     OW14778  13.094   7.466  10.332
 4294SOL    HW114779  13.077   7.444  10.424
 4294SOL    HW214780  13.137   7.389  10.296
 4295SOL     OW14781   8.273   5.889  10.760
 4295SOL    HW114782   8.220   5.827  10.709
 4295SOL    HW214783   8.330   5.930  10.694
 4296SOL     OW14784   4.257   7.900   3.883
 4296SOL    HW114785   4.258   7.818   3.933
 4296SOL    HW214786   4.167   7.930   3.888
 4297SOL     OW14787  10.359   2.509   6.582
 4297SOL    HW114788  10.277   2.556   6.598
 4297SOL    HW214789  10.404   2.560   6.515
 4298SOL     OW14790   6.994   8.278  14.102
 4298SOL    HW114791   6.994   8.190  14.065
 4298SOL    HW214792   6.919   8.321  14.061
 4299SOL     OW14793   6.723  12.990   8.038
 4299SOL    HW114794   6.659  13.056   8.010
 4299SOL    HW214795   6.799  13.006   7.981
 4300SOL     OW14796   7.378  10.232   5.084
 4300SOL    HW114797   7.437  10.157   5.097
 4300SOL    HW214798   7.417  10.303   5.134
 4301SOL     OW14799   5.707  13.481   2.421
 4301SOL    HW114800   5.643  13.521   2.479
 4301SOL    HW214801   5.656  13.452   2.345
 4302SOL     OW14802   9.523   3.831  11.268
 4302SOL    HW114803   9.491   3.904  11.320
 4302SOL    HW214804   9.479   3.840  11.184
 4303SOL     OW14805   6.347   2.019   4.568
 4303SOL    HW114806   6.394   1.951   4.519
 4303SOL    HW214807   6.300   1.972   4.636
 4304SOL     OW14808   9.038   3.348  13.828
 4304SOL    HW114809   8.980   3.354  13.752
 4304SOL    HW214810   9.071   3.258  13.825
 4305SOL     OW14811   7.538  10.351   6.109
 4305SOL    HW114812   7.447  10.333   6.131
 4305SOL    HW214813   7.567  10.274   6.060
 4306SOL     OW14814  14.732   0.348   2.691
 4306SOL    HW114815  14.771   0.293   2.759
 4306SOL    HW214816  14.806   0.392   2.649
 4307SOL     OW14817  11.661   8.660   3.898
 4307SOL    HW114818  11.730   8.601   3.928
 4307SOL    HW214819  11.624   8.697   3.978
 4308SOL     OW14820   6.680   1.367   8.599
 4308SOL    HW114821   6.713   1.438   8.654
 4308SOL    HW214822   6.615   1.408   8.542
 4309SOL     OW14823   5.897   2.629  11.817
 4309SOL    HW114824   5.833   2.696  11.795
 4309SOL    HW214825   5.876   2.604  11.907
 4310SOL     OW14826   0.063   6.447   7.952
 4310SOL    HW114827   0.046   6.375   7.891
 4310SOL    HW214828  14.856   6.478   7.978
 4311SOL     OW14829   2.621   8.482   2.681
 4311SOL    HW114830   2.618   8.516   2.591
 4311SOL    HW214831   2.601   8.557   2.736
 4312SOL     OW14832  11.334   2.398   7.867
 4312SOL    HW114833  11.300   2.427   7.783
 4312SOL    HW214834  11.335   2.477   7.922
 4313SOL     OW14835  13.151  13.948   5.685
 4313SOL    HW114836  13.218  13.910   5.628
 4313SOL    HW214837  13.191  13.948   5.772
 4314SOL     OW14838  11.685  12.474  14.845
 4314SOL    HW114839  11.607  12.430  14.878
 4314SOL    HW214840  11.664  12.567  14.851
 4315SOL     OW14841   3.362   3.719  10.815
 4315SOL    HW114842   3.393   3.683  10.732
 4315SOL    HW214843   3.269   3.697  10.818
 4316SOL     OW14844   4.855  12.868   0.353
 4316SOL    HW114845   4.935  12.880   0.404
 4316SOL    HW214846   4.784  12.890   0.413
 4317SOL     OW14847   5.732   3.007  14.610
 4317SOL    HW114848   5.759   2.946  14.679
 4317SOL    HW214849   5.663   2.960  14.563
 4318SOL     OW14850   0.874  10.429   4.793
 4318SOL    HW114851   0.915  10.433   4.707
 4318SOL    HW214852   0.947  10.420   4.855
 4319SOL     OW14853  12.638  11.639  13.889
 4319SOL    HW114854  12.730  11.644  13.863
 4319SOL    HW214855  12.638  11.660  13.982
 4320SOL     OW14856   1.128   0.914   2.190
 4320SOL    HW114857   1.071   0.845   2.224
 4320SOL    HW214858   1.088   0.996   2.219
 4321SOL     OW14859  13.902   3.567   8.479
 4321SOL    HW114860  13.917   3.505   8.551
 4321SOL    HW214861  13.977   3.627   8.483
 4322SOL     OW14862  10.402   4.072   4.053
 4322SOL    HW114863  10.342   4.101   3.984
 4322SOL    HW214864  10.345   4.054   4.128
 4323SOL     OW14865  14.874   8.241  11.351
 4323SOL    HW114866   0.064   8.295  11.312
 4323SOL    HW214867  14.793   8.286  11.328
 4324SOL     OW14868   0.668   0.455   0.510
 4324SOL    HW114869   0.637   0.372   0.473
 4324SOL    HW214870   0.755   0.434   0.545
 4325SOL     OW14871  12.176   4.079  13.771
 4325SOL    HW114872  12.172   3.986  13.794
 4325SOL    HW214873  12.124   4.086  13.691
 4326SOL     OW14874   2.034   0.956   2.452
 4326SOL    HW114875   2.065   0.959   2.361
 4326SOL    HW214876   2.093   1.014   2.500
 4327SOL     OW14877  11.921   2.635  13.607
 4327SOL    HW114878  11.872   2.675  13.679
 4327SOL    HW214879  11.894   2.683  13.529
 4328SOL     OW14880  14.667   9.877   2.809
 4328SOL    HW114881  14.714   9.957   2.834
 4328SOL    HW214882  14.575   9.897   2.824
 4329SOL     OW14883   6.994  10.386   5.047
 4329SOL    HW114884   7.026  10.356   4.962
 4329SOL    HW214885   6.948  10.310   5.083
 4330SOL     OW14886   1.285   7.944   5.368
 4330SOL    HW114887   1.194   7.941   5.398
 4330SOL    HW214888   1.288   7.882   5.295
 4331SOL     OW14889   9.203   5.618  13.399
 4331SOL    HW114890   9.229   5.684  13.334
 4331SOL    HW214891   9.235   5.535  13.363
 4332SOL     OW14892   2.713   9.292   0.342
 4332SOL    HW114893   2.787   9.262   0.395
 4332SOL    HW214894   2.656   9.215   0.336
 4333SOL     OW14895  14.745   3.209  10.573
 4333SOL    HW114896  14.760   3.115  10.580
 4333SOL    HW214897  14.763   3.229  10.481
 4334SOL     OW14898  14.135  10.278   0.303
 4334SOL    HW114899  14.203  10.232   0.254
 4334SOL    HW214900  14.097  10.339   0.240
 4335SOL     OW14901  14.199  10.491   1.473
 4335SOL    HW114902  14.188  10.396   1.469
 4335SOL    HW214903  14.245  10.514   1.392
 4336SOL     OW14904  10.662   3.659   4.962
 4336SOL    HW114905  10.644   3.565   4.962
 4336SOL    HW214906  10.720   3.672   5.037
 4337SOL     OW14907   0.391   5.558  13.499
 4337SOL    HW114908   0.409   5.649  13.523
 4337SOL    HW214909   0.339   5.524  13.572
 4338SOL     OW14910  13.294   5.306   2.478
 4338SOL    HW114911  13.362   5.249   2.443
 4338SOL    HW214912  13.281   5.372   2.410
 4339SOL     OW14913   3.412   8.730  11.179
 4339SOL    HW114914   3.494   8.776  11.160
 4339SOL    HW214915   3.396   8.747  11.271
 4340SOL     OW14916  13.152   8.169   0.565
 4340SOL    HW114917  13.161   8.119   0.484
 4340SOL    HW214918  13.061   8.199   0.566
 4341SOL     OW14919   5.472  13.007  10.491
 4341SOL    HW114920   5.459  13.036  10.401
 4341SOL    HW214921   5.415  12.930  10.499
 4342SOL     OW14922  10.405   2.447   0.458
 4342SOL    HW114923  10.353   2.430   0.536
 4342SOL    HW214924  10.361   2.399   0.388
 4343SOL     OW14925   1.039  10.764  13.028
 4343SOL    HW114926   1.049  10.819  12.951
 4343SOL    HW214927   1.125  10.766  13.070
 4344SOL     OW14928  13.225   9.257   6.823
 4344SOL    HW114929  13.209   9.345   6.857
 4344SOL    HW214930  13.316   9.259   6.793
 4345SOL     OW14931   9.344   1.612   7.898
 4345SOL    HW114932   9.422   1.666   7.906
 4345SOL    HW214933   9.284   1.663   7.844
 4346SOL     OW14934   8.482   1.924   3.403
 4346SOL    HW114935   8.435   1.953   3.325
 4346SOL    HW214936   8.506   1.833   3.384
 4347SOL     OW14937  13.522   4.202   9.134
 4347SOL    HW114938  13.486   4.239   9.054
 4347SOL    HW214939  13.513   4.271   9.199
 4348SOL     OW14940   3.667   7.190   8.392
 4348SOL    HW114941   3.652   7.104   8.430
 4348SOL    HW214942   3.581   7.232   8.391
 4349SOL     OW14943  11.055   0.622   9.093
 4349SOL    HW114944  11.145   0.653   9.083
 4349SOL    HW214945  11.002   0.689   9.048
 4350SOL     OW14946  10.058   2.757  13.520
 4350SOL    HW114947  10.028   2.835  13.567
 4350SOL    HW214948  10.074   2.692  13.589
 4351SOL     OW14949   7.078   1.099  10.442
 4351SOL    HW114950   7.060   1.006  10.459
 4351SOL    HW214951   7.104   1.134  10.527
 4352SOL     OW14952   3.528   4.850   5.669
 4352SOL    HW114953   3.502   4.886   5.584
 4352SOL    HW214954   3.623   4.844   5.664
 4353SOL     OW14955   5.928   7.606   8.643
 4353SOL    HW114956   5.884   7.548   8.581
 4353SOL    HW214957   6.021   7.585   8.633
 4354SOL     OW14958   8.015   5.030  11.452
 4354SOL    HW114959   8.053   4.962  11.396
 4354SOL    HW214960   7.926   5.000  11.469
 4355SOL     OW14961   0.702   9.678   4.988
 4355SOL    HW114962   0.661   9.746   4.935
 4355SOL    HW214963   0.689   9.597   4.939
 4356SOL     OW14964   9.334  13.335   1.271
 4356SOL    HW114965   9.328  13.277   1.196
 4356SOL    HW214966   9.260  13.396   1.260
 4357SOL     OW14967   4.847  11.486   8.792
 4357SOL    HW114968   4.782  11.556   8.786
 4357SOL    HW214969   4.838  11.439   8.709
 4358SOL     OW14970   8.295   3.712  12.758
 4358SOL    HW114971   8.240   3.761  12.819
 4358SOL    HW214972   8.384   3.741  12.777
 4359SOL     OW14973   0.567   7.751   9.586
 4359SOL    HW114974   0.551   7.777   9.495
 4359SOL    HW214975   0.480   7.743   9.624
 4360SOL     OW14976   6.980  11.807   4.778
 4360SOL    HW114977   6.985  11.875   4.846
 4360SOL    HW214978   6.987  11.855   4.696
 4361SOL     OW14979   9.266   3.780   9.785
 4361SOL    HW114980   9.230   3.827   9.710
 4361SOL    HW214981   9.207   3.706   9.798
 4362SOL     OW14982   9.228   3.502  12.999
 4362SOL    HW114983   9.160   3.434  12.993
 4362SOL    HW214984   9.295   3.464  13.055
 4363SOL     OW14985   3.480   7.515   4.347
 4363SOL    HW114986   3.531   7.542   4.271
 4363SOL    HW214987   3.390   7.540   4.325
 4364SOL     OW14988   7.191  12.472   4.987
 4364SOL    HW114989   7.254  12.525   4.939
 4364SOL    HW214990   7.161  12.406   4.924
 4365SOL     OW14991   2.402   6.782  11.824
 4365SOL    HW114992   2.446   6.829  11.895
 4365SOL    HW214993   2.396   6.847  11.753
 4366SOL     OW14994   2.482   3.618   6.790
 4366SOL    HW114995   2.573   3.596   6.772
 4366SOL    HW214996   2.464   3.576   6.875
 4367SOL     OW14997  13.725  13.313  14.301
 4367SOL    HW114998  13.780  13.369  14.245
 4367SOL    HW214999  13.725  13.358  14.385
 4368SOL     OW15000  12.246  10.469   9.840
 4368SOL    HW115001  12.210  10.531   9.777
 4368SOL    HW215002  12.214  10.384   9.811
 4369SOL     OW15003   5.976   0.689   1.827
 4369SOL    HW115004   6.067   0.720   1.818
 4369SOL    HW215005   5.938   0.701   1.740
 4370SOL     OW15006   4.593   4.872   9.076
 4370SOL    HW115007   4.605   4.807   9.145
 4370SOL    HW215008   4.657   4.848   9.009
 4371SOL     OW15009  14.210   2.504  14.033
 4371SOL    HW115010  14.228   2.465  14.119
 4371SOL    HW215011  14.116   2.496  14.023
 4372SOL     OW15012  10.588   3.959  13.859
 4372SOL    HW115013  10.592   3.942  13.765
 4372SOL    HW215014  10.608   3.875  13.900
 4373SOL     OW15015   3.578  11.108   7.919
 4373SOL    HW115016   3.643  11.038   7.923
 4373SOL    HW215017   3.614  11.170   7.856
 4374SOL     OW15018   8.732   8.522   2.203
 4374SOL    HW115019   8.827   8.516   2.201
 4374SOL    HW215020   8.704   8.483   2.120
 4375SOL     OW15021   2.852   3.488  13.228
 4375SOL    HW115022   2.914   3.559  13.243
 4375SOL    HW215023   2.860   3.432  13.306
 4376SOL     OW15024   4.489   6.288   6.472
 4376SOL    HW115025   4.553   6.253   6.534
 4376SOL    HW215026   4.476   6.379   6.499
 4377SOL     OW15027   3.374   7.746   0.131
 4377SOL    HW115028   3.309   7.707   0.189
 4377SOL    HW215029   3.331   7.825   0.097
 4378SOL     OW15030   3.643   2.153   3.797
 4378SOL    HW115031   3.729   2.192   3.779
 4378SOL    HW215032   3.610   2.126   3.712
 4379SOL     OW15033  11.950  11.824   8.397
 4379SOL    HW115034  11.860  11.822   8.365
 4379SOL    HW215035  11.966  11.917   8.416
 4380SOL     OW15036  13.839   2.017  13.070
 4380SOL    HW115037  13.849   2.088  13.006
 4380SOL    HW215038  13.780   1.955  13.028
 4381SOL     OW15039   5.778   5.165   2.515
 4381SOL    HW115040   5.791   5.245   2.566
 4381SOL    HW215041   5.783   5.194   2.424
 4382SOL     OW15042   7.668   1.887   3.146
 4382SOL    HW115043   7.726   1.811   3.152
 4382SOL    HW215044   7.583   1.850   3.124
 4383SOL     OW15045   1.917   3.424  10.549
 4383SOL    HW115046   1.892   3.488  10.483
 4383SOL    HW215047   1.835   3.386  10.579
 4384SOL     OW15048  11.729  10.530   5.981
 4384SOL    HW115049  11.776  10.522   5.897
 4384SOL    HW215050  11.638  10.547   5.956
 4385SOL     OW15051   0.886   7.373  13.248
 4385SOL    HW115052   0.855   7.378  13.158
 4385SOL    HW215053   0.866   7.283  13.275
 4386SOL     OW15054   6.597  10.004  13.091
 4386SOL    HW115055   6.654  10.074  13.124
 4386SOL    HW215056   6.522  10.049  13.053
 4387SOL     OW15057   3.948  10.678  13.354
 4387SOL    HW115058   4.038  10.708  13.371
 4387SOL    HW215059   3.894  10.729  13.415
 4388SOL     OW15060   4.024  14.554   3.496
 4388SOL    HW115061   4.064  14.473   3.528
 4388SOL    HW215062   4.093  14.621   3.506
 4389SOL     OW15063  10.975  10.517  12.517
 4389SOL    HW115064  11.052  10.521  12.573
 4389SOL    HW215065  10.992  10.444  12.458
 4390SOL     OW15066   5.730  10.087   1.560
 4390SOL    HW115067   5.723  10.142   1.482
 4390SOL    HW215068   5.819  10.103   1.592
 4391SOL     OW15069   9.608   8.078  13.085
 4391SOL    HW115070   9.540   8.086  13.153
 4391SOL    HW215071   9.674   8.143  13.110
 4392SOL     OW15072   4.136   7.068   8.325
 4392SOL    HW115073   4.145   7.069   8.421
 4392SOL    HW215074   4.119   6.976   8.304
 4393SOL     OW15075   0.603  11.012  12.022
 4393SOL    HW115076   0.586  11.032  12.114
 4393SOL    HW215077   0.541  10.942  12.001
 4394SOL     OW15078   6.565   7.074   4.481
 4394SOL    HW115079   6.478   7.049   4.451
 4394SOL    HW215080   6.617   7.081   4.401
 4395SOL     OW15081   8.882   5.277  14.034
 4395SOL    HW115082   8.835   5.275  14.118
 4395SOL    HW215083   8.813   5.271  13.968
 4396SOL     OW15084   4.173   6.541   8.034
 4396SOL    HW115085   4.087   6.555   8.073
 4396SOL    HW215086   4.184   6.614   7.973
 4397SOL     OW15087   7.544   7.175   9.339
 4397SOL    HW115088   7.584   7.260   9.355
 4397SOL    HW215089   7.503   7.184   9.253
 4398SOL     OW15090  11.858   0.657   7.228
 4398SOL    HW115091  11.918   0.727   7.254
 4398SOL    HW215092  11.911   0.577   7.234
 4399SOL     OW15093   9.502  14.030   1.685
 4399SOL    HW115094   9.503  13.959   1.620
 4399SOL    HW215095   9.564  14.095   1.652
 4400SOL     OW15096   2.968   6.056   8.613
 4400SOL    HW115097   3.062   6.045   8.622
 4400SOL    HW215098   2.950   6.142   8.652
 4401SOL     OW15099   0.058  13.074   7.914
 4401SOL    HW115100   0.083  13.096   8.004
 4401SOL    HW215101  14.870  13.006   7.924
 4402SOL     OW15102  13.698   2.852  11.129
 4402SOL    HW115103  13.776   2.886  11.173
 4402SOL    HW215104  13.726   2.769  11.091
 4403SOL     OW15105  13.660   6.109   6.675
 4403SOL    HW115106  13.586   6.080   6.621
 4403SOL    HW215107  13.643   6.201   6.692
 4404SOL     OW15108   3.911  10.055   4.191
 4404SOL    HW115109   3.963  10.132   4.169
 4404SOL    HW215110   3.901  10.059   4.286
 4405SOL     OW15111   0.491  10.783   4.121
 4405SOL    HW115112   0.560  10.761   4.059
 4405SOL    HW215113   0.531  10.846   4.180
 4406SOL     OW15114   4.179  10.688  12.898
 4406SOL    HW115115   4.150  10.606  12.859
 4406SOL    HW215116   4.124  10.699  12.976
 4407SOL     OW15117   8.580   9.550   8.770
 4407SOL    HW115118   8.670   9.536   8.743
 4407SOL    HW215119   8.586   9.595   8.854
 4408SOL     OW15120  13.235   4.713  11.421
 4408SOL    HW115121  13.243   4.784  11.357
 4408SOL    HW215122  13.140   4.698  11.428
 4409SOL     OW15123  10.487  10.869   7.714
 4409SOL    HW115124  10.404  10.878   7.666
 4409SOL    HW215125  10.502  10.956   7.752
 4410SOL     OW15126   8.684   3.049  11.184
 4410SOL    HW115127   8.736   3.010  11.114
 4410SOL    HW215128   8.731   3.026  11.265
 4411SOL     OW15129  11.352   3.239   9.270
 4411SOL    HW115130  11.445   3.218   9.261
 4411SOL    HW215131  11.351   3.332   9.294
 4412SOL     OW15132   2.846   3.120  10.332
 4412SOL    HW115133   2.793   3.095  10.256
 4412SOL    HW215134   2.829   3.053  10.398
 4413SOL     OW15135  14.729  12.159   5.864
 4413SOL    HW115136  14.799  12.221   5.884
 4413SOL    HW215137  14.674  12.205   5.800
 4414SOL     OW15138   7.150   8.826   4.262
 4414SOL    HW115139   7.171   8.821   4.355
 4414SOL    HW215140   7.076   8.767   4.251
 4415SOL     OW15141   9.670  13.516  10.680
 4415SOL    HW115142   9.698  13.476  10.598
 4415SOL    HW215143   9.642  13.442  10.734
 4416SOL     OW15144  12.177  12.677   5.275
 4416SOL    HW115145  12.223  12.760   5.264
 4416SOL    HW215146  12.226  12.632   5.344
 4417SOL     OW15147   9.900   9.655  11.156
 4417SOL    HW115148   9.885   9.748  11.170
 4417SOL    HW215149   9.989   9.650  11.122
 4418SOL     OW15150   2.012   4.525  12.913
 4418SOL    HW115151   1.976   4.590  12.852
 4418SOL    HW215152   1.943   4.459  12.921
 4419SOL     OW15153  11.105   3.934   8.534
 4419SOL    HW115154  11.082   3.849   8.571
 4419SOL    HW215155  11.095   3.996   8.606
 4420SOL     OW15156   9.825  11.341  14.246
 4420SOL    HW115157   9.819  11.418  14.302
 4420SOL    HW215158   9.766  11.277  14.286
 4421SOL     OW15159  10.338   9.368  13.072
 4421SOL    HW115160  10.324   9.279  13.040
 4421SOL    HW215161  10.258   9.390  13.120
 4422SOL     OW15162  14.479   3.973   4.851
 4422SOL    HW115163  14.427   3.916   4.794
 4422SOL    HW215164  14.464   4.061   4.816
 4423SOL     OW15165   2.186  13.073  11.342
 4423SOL    HW115166   2.115  13.019  11.376
 4423SOL    HW215167   2.243  13.089  11.418
 4424SOL     OW15168  14.841   1.247  12.842
 4424SOL    HW115169  14.849   1.158  12.878
 4424SOL    HW215170  14.772   1.287  12.895
 4425SOL     OW15171   8.341   6.233   4.078
 4425SOL    HW115172   8.427   6.271   4.095
 4425SOL    HW215173   8.278   6.297   4.111
 4426SOL     OW15174   4.684  14.871   7.012
 4426SOL    HW115175   4.775   0.008   7.038
 4426SOL    HW215176   4.692  14.829   6.926
 4427SOL     OW15177   1.102  11.450   2.966
 4427SOL    HW115178   1.040  11.381   2.941
 4427SOL    HW215179   1.149  11.470   2.885
 4428SOL     OW15180  13.211   9.084   0.918
 4428SOL    HW115181  13.204   9.040   0.834
 4428SOL    HW215182  13.126   9.127   0.930
 4429SOL     OW15183   2.467   7.457   9.673
 4429SOL    HW115184   2.401   7.413   9.726
 4429SOL    HW215185   2.521   7.386   9.638
 4430SOL     OW15186   2.485   0.554  12.070
 4430SOL    HW115187   2.569   0.552  12.116
 4430SOL    HW215188   2.445   0.637  12.097
 4431SOL     OW15189   8.838   9.252   8.827
 4431SOL    HW115190   8.832   9.333   8.777
 4431SOL    HW215191   8.824   9.183   8.763
 4432SOL     OW15192  14.353   4.107   0.462
 4432SOL    HW115193  14.390   4.082   0.377
 4432SOL    HW215194  14.258   4.097   0.450
 4433SOL     OW15195  14.552   5.425   1.763
 4433SOL    HW115196  14.601   5.378   1.695
 4433SOL    HW215197  14.462   5.394   1.753
 4434SOL     OW15198  10.910  13.970  12.802
 4434SOL    HW115199  10.826  13.986  12.845
 4434SOL    HW215200  10.951  14.056  12.796
 4435SOL     OW15201  14.778   3.965  13.329
 4435SOL    HW115202  14.837   4.004  13.264
 4435SOL    HW215203  14.833   3.903  13.376
 4436SOL     OW15204  12.491   5.557  14.676
 4436SOL    HW115205  12.473   5.651  14.671
 4436SOL    HW215206  12.417   5.517  14.630
 4437SOL     OW15207  12.795  11.257   8.662
 4437SOL    HW115208  12.729  11.322   8.684
 4437SOL    HW215209  12.878  11.305   8.665
 4438SOL     OW15210  10.059   6.515   2.285
 4438SOL    HW115211  10.050   6.463   2.365
 4438SOL    HW215212  10.119   6.465   2.230
 4439SOL     OW15213   8.240   7.498   4.021
 4439SOL    HW115214   8.333   7.478   4.018
 4439SOL    HW215215   8.231   7.562   4.092
 4440SOL     OW15216   4.301  14.814   2.175
 4440SOL    HW115217   4.392  14.810   2.204
 4440SOL    HW215218   4.303  14.872   2.099
 4441SOL     OW15219  11.090   3.908   9.086
 4441SOL    HW115220  10.996   3.918   9.072
 4441SOL    HW215221  11.122   3.997   9.103
 4442SOL     OW15222   5.055   9.854   3.533
 4442SOL    HW115223   5.050   9.867   3.628
 4442SOL    HW215224   4.984   9.794   3.513
 4443SOL     OW15225   9.793  14.470  14.385
 4443SOL    HW115226   9.834  14.390  14.352
 4443SOL    HW215227   9.831  14.541  14.334
 4444SOL     OW15228  10.918   1.242   2.706
 4444SOL    HW115229  10.966   1.262   2.626
 4444SOL    HW215230  10.873   1.160   2.686
 4445SOL     OW15231   8.635   8.483  13.582
 4445SOL    HW115232   8.582   8.443  13.650
 4445SOL    HW215233   8.659   8.411  13.524
 4446SOL     OW15234   3.584  14.194  13.927
 4446SOL    HW115235   3.679  14.201  13.919
 4446SOL    HW215236   3.568  14.101  13.941
 4447SOL     OW15237  12.871   6.757   1.222
 4447SOL    HW115238  12.955   6.711   1.235
 4447SOL    HW215239  12.831   6.757   1.309
 4448SOL     OW15240   3.766   7.836   3.082
 4448SOL    HW115241   3.713   7.771   3.036
 4448SOL    HW215242   3.703   7.890   3.130
 4449SOL     OW15243  14.615   2.562   2.419
 4449SOL    HW115244  14.630   2.595   2.507
 4449SOL    HW215245  14.685   2.600   2.366
 4450SOL     OW15246  11.553   1.725   2.545
 4450SOL    HW115247  11.485   1.703   2.609
 4450SOL    HW215248  11.635   1.695   2.586
 4451SOL     OW15249   1.561   4.746  14.296
 4451SOL    HW115250   1.538   4.820  14.240
 4451SOL    HW215251   1.514   4.672  14.259
 4452SOL     OW15252   4.799  14.622  10.092
 4452SOL    HW115253   4.786  14.527  10.096
 4452SOL    HW215254   4.789  14.643   9.999
 4453SOL     OW15255  14.552  13.387   4.415
 4453SOL    HW115256  14.525  13.378   4.507
 4453SOL    HW215257  14.484  13.343   4.365
 4454SOL     OW15258   9.664   9.894   9.753
 4454SOL    HW115259   9.629   9.879   9.841
 4454SOL    HW215260   9.708   9.813   9.729
 4455SOL     OW15261   2.502   1.819  14.258
 4455SOL    HW115262   2.424   1.765  14.270
 4455SOL    HW215263   2.560   1.795  14.330
 4456SOL     OW15264   4.238  10.400   2.322
 4456SOL    HW115265   4.195  10.357   2.248
 4456SOL    HW215266   4.182  10.379   2.398
 4457SOL     OW15267   6.745   3.730   3.927
 4457SOL    HW115268   6.678   3.767   3.869
 4457SOL    HW215269   6.696   3.680   3.992
 4458SOL     OW15270  12.706  14.639   3.557
 4458SOL    HW115271  12.632  14.688   3.520
 4458SOL    HW215272  12.675  14.549   3.563
 4459SOL     OW15273  10.354   0.077   0.132
 4459SOL    HW115274  10.408   0.015   0.180
 4459SOL    HW215275  10.413   0.116   0.067
 4460SOL     OW15276   7.141   4.951   2.360
 4460SOL    HW115277   7.237   4.951   2.353
 4460SOL    HW215278   7.124   4.987   2.447
 4461SOL     OW15279   2.245  14.311  12.450
 4461SOL    HW115280   2.331  14.269  12.447
 4461SOL    HW215281   2.197  14.272  12.377
 4462SOL     OW15282   0.748   9.746   9.750
 4462SOL    HW115283   0.711   9.760   9.662
 4462SOL    HW215284   0.704   9.667   9.782
 4463SOL     OW15285   4.441   3.393   5.058
 4463SOL    HW115286   4.516   3.439   5.019
 4463SOL    HW215287   4.369   3.456   5.053
 4464SOL     OW15288  10.600   4.373   1.465
 4464SOL    HW115289  10.572   4.391   1.555
 4464SOL    HW215290  10.571   4.284   1.448
 4465SOL     OW15291   3.233  12.949   1.235
 4465SOL    HW115292   3.187  12.954   1.319
 4465SOL    HW215293   3.171  12.983   1.171
 4466SOL     OW15294   2.738  10.372   8.320
 4466SOL    HW115295   2.650  10.338   8.337
 4466SOL    HW215296   2.724  10.450   8.267
 4467SOL     OW15297   4.967   1.369   2.088
 4467SOL    HW115298   4.896   1.390   2.148
 4467SOL    HW215299   4.971   1.273   2.087
 4468SOL     OW15300   8.234   3.970  14.070
 4468SOL    HW115301   8.166   4.036  14.079
 4468SOL    HW215302   8.208   3.920  13.992
 4469SOL     OW15303   3.293   4.316   5.372
 4469SOL    HW115304   3.356   4.249   5.343
 4469SOL    HW215305   3.347   4.394   5.387
 4470SOL     OW15306   0.534  12.444  12.662
 4470SOL    HW115307   0.626  12.470  12.658
 4470SOL    HW215308   0.509  12.429  12.571
 4471SOL     OW15309   0.031   5.575   2.886
 4471SOL    HW115310   0.001   5.484   2.896
 4471SOL    HW215311  14.846   5.626   2.934
 4472SOL     OW15312   8.376   4.638  11.749
 4472SOL    HW115313   8.377   4.623  11.654
 4472SOL    HW215314   8.394   4.732  11.758
 4473SOL     OW15315  11.724   5.243   8.615
 4473SOL    HW115316  11.763   5.156   8.614
 4473SOL    HW215317  11.637   5.231   8.653
 4474SOL     OW15318   7.713  12.561   7.192
 4474SOL    HW115319   7.785  12.623   7.181
 4474SOL    HW215320   7.721  12.501   7.118
 4475SOL     OW15321   4.669   9.347  12.027
 4475SOL    HW115322   4.585   9.388  12.008
 4475SOL    HW215323   4.655   9.304  12.112
 4476SOL     OW15324   2.725   6.274  14.003
 4476SOL    HW115325   2.800   6.329  13.980
 4476SOL    HW215326   2.670   6.331  14.058
 4477SOL     OW15327  13.275   4.231  13.255
 4477SOL    HW115328  13.247   4.301  13.196
 4477SOL    HW215329  13.301   4.275  13.335
 4478SOL     OW15330   5.021   1.870   6.951
 4478SOL    HW115331   4.982   1.797   6.903
 4478SOL    HW215332   5.115   1.855   6.945
 4479SOL     OW15333  12.665   7.051   8.821
 4479SOL    HW115334  12.577   7.011   8.820
 4479SOL    HW215335  12.649   7.145   8.812
 4480SOL     OW15336   1.626  12.634   0.262
 4480SOL    HW115337   1.587  12.547   0.249
 4480SOL    HW215338   1.558  12.683   0.308
 4481SOL     OW15339   3.486   8.718   4.256
 4481SOL    HW115340   3.530   8.638   4.228
 4481SOL    HW215341   3.415   8.688   4.312
 4482SOL     OW15342  10.003   3.798  10.064
 4482SOL    HW115343  10.067   3.765  10.000
 4482SOL    HW215344   9.918   3.780  10.024
 4483SOL     OW15345   6.918   4.723   3.462
 4483SOL    HW115346   7.010   4.741   3.481
 4483SOL    HW215347   6.896   4.781   3.389
 4484SOL     OW15348   4.584   9.218   4.301
 4484SOL    HW115349   4.531   9.171   4.236
 4484SOL    HW215350   4.674   9.197   4.278
 4485SOL     OW15351  10.476  10.059  13.257
 4485SOL    HW115352  10.390  10.021  13.275
 4485SOL    HW215353  10.465  10.105  13.174
 4486SOL     OW15354   0.476   7.503  13.223
 4486SOL    HW115355   0.439   7.591  13.220
 4486SOL    HW215356   0.536   7.505  13.297
 4487SOL     OW15357   5.621   3.088   8.908
 4487SOL    HW115358   5.713   3.067   8.896
 4487SOL    HW215359   5.614   3.116   8.999
 4488SOL     OW15360   1.052   7.232  10.361
 4488SOL    HW115361   1.139   7.222  10.400
 4488SOL    HW215362   1.006   7.292  10.419
 4489SOL     OW15363   6.966   0.337   2.231
 4489SOL    HW115364   6.892   0.394   2.252
 4489SOL    HW215365   7.040   0.396   2.217
 4490SOL     OW15366  13.604   4.945  10.910
 4490SOL    HW115367  13.580   4.900  10.991
 4490SOL    HW215368  13.535   5.009  10.895
 4491SOL     OW15369   9.439   6.551   7.326
 4491SOL    HW115370   9.450   6.615   7.256
 4491SOL    HW215371   9.389   6.598   7.393
 4492SOL     OW15372   6.469  14.299  10.204
 4492SOL    HW115373   6.541  14.333  10.150
 4492SOL    HW215374   6.439  14.375  10.254
 4493SOL     OW15375  10.576  13.734   3.093
 4493SOL    HW115376  10.524  13.750   3.014
 4493SOL    HW215377  10.550  13.804   3.153
 4494SOL     OW15378   5.806  11.562   7.150
 4494SOL    HW115379   5.794  11.647   7.191
 4494SOL    HW215380   5.790  11.499   7.221
 4495SOL     OW15381   9.924  10.553   7.999
 4495SOL    HW115382   9.977  10.576   8.075
 4495SOL    HW215383   9.979  10.491   7.950
 4496SOL     OW15384   5.977   7.519   0.106
 4496SOL    HW115385   6.067   7.551   0.103
 4496SOL    HW215386   5.985   7.427   0.130
 4497SOL     OW15387   7.656   1.276  10.867
 4497SOL    HW115388   7.579   1.323  10.837
 4497SOL    HW215389   7.673   1.211  10.798
 4498SOL     OW15390   0.890   2.894   6.068
 4498SOL    HW115391   0.862   2.964   6.126
 4498SOL    HW215392   0.865   2.814   6.114
 4499SOL     OW15393  10.408  14.183   0.619
 4499SOL    HW115394  10.429  14.137   0.700
 4499SOL    HW215395  10.493  14.213   0.586
 4500SOL     OW15396  14.426   9.959   6.199
 4500SOL    HW115397  14.428   9.891   6.266
 4500SOL    HW215398  14.368  10.027   6.235
 4501SOL     OW15399   9.828   1.916   4.320
 4501SOL    HW115400   9.812   1.992   4.376
 4501SOL    HW215401   9.759   1.854   4.344
 4502SOL     OW15402   4.071  13.029   9.771
 4502SOL    HW115403   4.084  13.022   9.676
 4502SOL    HW215404   4.052  13.122   9.785
 4503SOL     OW15405   6.582  11.615   3.310
 4503SOL    HW115406   6.550  11.659   3.388
 4503SOL    HW215407   6.663  11.572   3.337
 4504SOL     OW15408   2.863  10.639  14.556
 4504SOL    HW115409   2.815  10.708  14.601
 4504SOL    HW215410   2.954  10.669  14.557
 4505SOL     OW15411   0.475   6.973  11.528
 4505SOL    HW115412   0.466   6.960  11.623
 4505SOL    HW215413   0.391   7.009  11.501
 4506SOL     OW15414   4.207   7.938   9.821
 4506SOL    HW115415   4.126   7.982   9.795
 4506SOL    HW215416   4.257   8.004   9.868
 4507SOL     OW15417   5.722  12.664  11.449
 4507SOL    HW115418   5.808  12.698  11.424
 4507SOL    HW215419   5.661  12.704  11.387
 4508SOL     OW15420   8.086   2.852   4.632
 4508SOL    HW115421   7.992   2.869   4.624
 4508SOL    HW215422   8.115   2.908   4.704
 4509SOL     OW15423   3.403   9.575  14.679
 4509SOL    HW115424   3.444   9.511  14.737
 4509SOL    HW215425   3.334   9.615  14.733
 4510SOL     OW15426  12.810   0.616   5.499
 4510SOL    HW115427  12.757   0.692   5.521
 4510SOL    HW215428  12.872   0.609   5.572
 4511SOL     OW15429  11.198   6.229   5.937
 4511SOL    HW115430  11.126   6.244   5.998
 4511SOL    HW215431  11.271   6.202   5.993
 4512SOL     OW15432   9.993   4.077  12.016
 4512SOL    HW115433   9.916   4.021  12.008
 4512SOL    HW215434   9.963   4.152  12.067
 4513SOL     OW15435   6.701  13.269   6.598
 4513SOL    HW115436   6.769  13.221   6.645
 4513SOL    HW215437   6.636  13.290   6.665
 4514SOL     OW15438   2.825  13.762   2.270
 4514SOL    HW115439   2.850  13.851   2.294
 4514SOL    HW215440   2.866  13.747   2.185
 4515SOL     OW15441   1.726  14.695   8.572
 4515SOL    HW115442   1.819  14.687   8.551
 4515SOL    HW215443   1.697  14.604   8.587
 4516SOL     OW15444   8.549  14.689   9.819
 4516SOL    HW115445   8.640  14.667   9.800
 4516SOL    HW215446   8.544  14.691   9.915
 4517SOL     OW15447   9.658  10.641   0.602
 4517SOL    HW115448   9.640  10.641   0.696
 4517SOL    HW215449   9.573  10.651   0.560
 4518SOL     OW15450   0.632  13.400   3.909
 4518SOL    HW115451   0.696  13.350   3.960
 4518SOL    HW215452   0.599  13.465   3.971
 4519SOL     OW15453   7.752   9.788   9.494
 4519SOL    HW115454   7.718   9.851   9.431
 4519SOL    HW215455   7.814   9.735   9.445
 4520SOL     OW15456   9.738  10.054   3.558
 4520SOL    HW115457   9.801  10.067   3.629
 4520SOL    HW215458   9.788  10.008   3.491
 4521SOL     OW15459   0.326   2.664   8.272
 4521SOL    HW115460   0.400   2.710   8.232
 4521SOL    HW215461   0.278   2.733   8.319
 4522SOL     OW15462  14.156  13.442  10.253
 4522SOL    HW115463  14.136  13.366  10.306
 4522SOL    HW215464  14.232  13.483  10.296
 4523SOL     OW15465  11.554   8.543   1.619
 4523SOL    HW115466  11.513   8.458   1.635
 4523SOL    HW215467  11.492   8.590   1.565
 4524SOL     OW15468   7.238  14.166   2.324
 4524SOL    HW115469   7.298  14.104   2.282
 4524SOL    HW215470   7.251  14.248   2.277
 4525SOL     OW15471   6.272   1.717   9.151
 4525SOL    HW115472   6.301   1.787   9.092
 4525SOL    HW215473   6.312   1.739   9.235
 4526SOL     OW15474  14.070  12.594   3.100
 4526SOL    HW115475  14.049  12.582   3.193
 4526SOL    HW215476  13.985  12.599   3.057
 4527SOL     OW15477   3.345   4.416  11.049
 4527SOL    HW115478   3.326   4.507  11.072
 4527SOL    HW215479   3.432   4.400  11.086
 4528SOL     OW15480  10.751  12.800  11.322
 4528SOL    HW115481  10.702  12.863  11.375
 4528SOL    HW215482  10.720  12.814  11.233
 4529SOL     OW15483  13.944   6.172   2.945
 4529SOL    HW115484  13.869   6.122   2.980
 4529SOL    HW215485  13.933   6.167   2.850
 4530SOL     OW15486   6.488   6.574   5.209
 4530SOL    HW115487   6.475   6.501   5.149
 4530SOL    HW215488   6.502   6.534   5.294
 4531SOL     OW15489   2.496   0.043   6.886
 4531SOL    HW115490   2.428  14.863   6.915
 4531SOL    HW215491   2.554  14.869   6.832
 4532SOL     OW15492  12.526  11.534  12.782
 4532SOL    HW115493  12.524  11.470  12.711
 4532SOL    HW215494  12.534  11.480  12.862
 4533SOL     OW15495   5.616   8.942   6.438
 4533SOL    HW115496   5.558   9.014   6.416
 4533SOL    HW215497   5.665   8.924   6.358
 4534SOL     OW15498   5.411  10.779   4.167
 4534SOL    HW115499   5.483  10.833   4.198
 4534SOL    HW215500   5.449  10.691   4.158
 4535SOL     OW15501   6.050   4.468  14.766
 4535SOL    HW115502   6.142   4.494  14.760
 4535SOL    HW215503   6.047   4.407  14.840
 4536SOL     OW15504   6.569  12.190  12.531
 4536SOL    HW115505   6.646  12.134  12.544
 4536SOL    HW215506   6.597  12.255  12.466
 4537SOL     OW15507   1.430  13.854  14.832
 4537SOL    HW115508   1.412  13.948  14.838
 4537SOL    HW215509   1.381  13.816   0.026
 4538SOL     OW15510   6.443   8.287  13.324
 4538SOL    HW115511   6.460   8.368  13.371
 4538SOL    HW215512   6.349   8.285  13.312
 4539SOL     OW15513  12.398  10.422   9.263
 4539SOL    HW115514  12.349  10.349   9.225
 4539SOL    HW215515  12.366  10.427   9.353
 4540SOL     OW15516   3.316   7.965  13.259
 4540SOL    HW115517   3.322   7.878  13.218
 4540SOL    HW215518   3.371   8.021  13.204
 4541SOL     OW15519  10.343   7.804   7.765
 4541SOL    HW115520  10.266   7.794   7.820
 4541SOL    HW215521  10.365   7.897   7.771
 4542SOL     OW15522  13.969   5.868   6.569
 4542SOL    HW115523  13.884   5.833   6.541
 4542SOL    HW215524  14.030   5.794   6.559
 4543SOL     OW15525  13.498   4.564  14.177
 4543SOL    HW115526  13.441   4.602  14.244
 4543SOL    HW215527  13.476   4.612  14.098
 4544SOL     OW15528   5.628   7.464   5.592
 4544SOL    HW115529   5.682   7.477   5.670
 4544SOL    HW215530   5.655   7.378   5.558
 4545SOL     OW15531  13.363   4.865  12.627
 4545SOL    HW115532  13.325   4.915  12.554
 4545SOL    HW215533  13.375   4.777  12.593
 4546SOL     OW15534   0.537   3.101  11.379
 4546SOL    HW115535   0.457   3.146  11.353
 4546SOL    HW215536   0.554   3.038  11.309
 4547SOL     OW15537   0.083   1.878  11.198
 4547SOL    HW115538   0.105   1.841  11.284
 4547SOL    HW215539   0.021   1.816  11.160
 4548SOL     OW15540   5.379   6.884  11.950
 4548SOL    HW115541   5.451   6.840  11.904
 4548SOL    HW215542   5.334   6.813  11.996
 4549SOL     OW15543   4.917   9.816   5.598
 4549SOL    HW115544   4.854   9.766   5.650
 4549SOL    HW215545   4.969   9.863   5.663
 4550SOL     OW15546   7.420   0.539  14.517
 4550SOL    HW115547   7.344   0.572  14.566
 4550SOL    HW215548   7.495   0.581  14.559
 4551SOL     OW15549   9.999   6.342  11.050
 4551SOL    HW115550  10.043   6.283  11.111
 4551SOL    HW215551   9.990   6.291  10.970
 4552SOL     OW15552   0.670  10.951  10.464
 4552SOL    HW115553   0.743  10.972  10.406
 4552SOL    HW215554   0.600  11.010  10.436
 4553SOL     OW15555   4.281  11.641   6.415
 4553SOL    HW115556   4.366  11.647   6.459
 4553SOL    HW215557   4.303  11.614   6.325
 4554SOL     OW15558   1.916   0.168  10.782
 4554SOL    HW115559   1.847   0.206  10.728
 4554SOL    HW215560   1.995   0.215  10.756
 4555SOL     OW15561   6.894   9.073  11.532
 4555SOL    HW115562   6.846   9.036  11.605
 4555SOL    HW215563   6.927   9.157  11.564
 4556SOL     OW15564   2.108   9.696   3.418
 4556SOL    HW115565   2.181   9.641   3.448
 4556SOL    HW215566   2.144   9.784   3.414
 4557SOL     OW15567   2.585   8.157   6.417
 4557SOL    HW115568   2.629   8.214   6.480
 4557SOL    HW215569   2.607   8.068   6.446
 4558SOL     OW15570  10.195  11.208  14.365
 4558SOL    HW115571  10.167  11.132  14.314
 4558SOL    HW215572  10.157  11.283  14.320
 4559SOL     OW15573  10.349   1.212   3.806
 4559SOL    HW115574  10.414   1.162   3.756
 4559SOL    HW215575  10.382   1.210   3.896
 4560SOL     OW15576   2.225   3.554   9.531
 4560SOL    HW115577   2.297   3.516   9.582
 4560SOL    HW215578   2.190   3.480   9.481
 4561SOL     OW15579  10.998  14.281  14.488
 4561SOL    HW115580  10.936  14.281  14.561
 4561SOL    HW215581  10.944  14.272  14.410
 4562SOL     OW15582   2.044   7.666  11.499
 4562SOL    HW115583   2.003   7.601  11.441
 4562SOL    HW215584   1.971   7.702  11.550
 4563SOL     OW15585   5.570   3.142  13.281
 4563SOL    HW115586   5.539   3.054  13.262
 4563SOL    HW215587   5.500   3.182  13.333
 4564SOL     OW15588   3.502  14.530  11.975
 4564SOL    HW115589   3.484  14.503  12.065
 4564SOL    HW215590   3.482  14.453  11.922
 4565SOL     OW15591   2.234   1.008   3.875
 4565SOL    HW115592   2.141   1.005   3.851
 4565SOL    HW215593   2.250   0.927   3.922
 4566SOL     OW15594  13.063  12.171   3.003
 4566SOL    HW115595  13.130  12.173   2.935
 4566SOL    HW215596  13.017  12.088   2.988
 4567SOL     OW15597  11.122   7.818  13.479
 4567SOL    HW115598  11.150   7.853  13.395
 4567SOL    HW215599  11.045   7.870  13.502
 4568SOL     OW15600  12.252   6.799   4.649
 4568SOL    HW115601  12.212   6.712   4.652
 4568SOL    HW215602  12.211   6.847   4.720
 4569SOL     OW15603   8.459  13.331   0.193
 4569SOL    HW115604   8.527  13.286   0.244
 4569SOL    HW215605   8.498  13.343   0.106
 4570SOL     OW15606   4.558   1.452  10.526
 4570SOL    HW115607   4.630   1.510  10.552
 4570SOL    HW215608   4.495   1.509  10.482
 4571SOL     OW15609   7.660   1.092   7.150
 4571SOL    HW115610   7.668   1.011   7.100
 4571SOL    HW215611   7.719   1.153   7.106
 4572SOL     OW15612   2.453   9.571   9.924
 4572SOL    HW115613   2.500   9.642   9.968
 4572SOL    HW215614   2.503   9.492   9.946
 4573SOL     OW15615  14.294   4.021  11.555
 4573SOL    HW115616  14.294   3.960  11.481
 4573SOL    HW215617  14.203   4.027  11.582
 4574SOL     OW15618  12.311   6.688   6.541
 4574SOL    HW115619  12.403   6.664   6.554
 4574SOL    HW215620  12.288   6.647   6.457
 4575SOL     OW15621  12.496  11.681   7.568
 4575SOL    HW115622  12.419  11.661   7.515
 4575SOL    HW215623  12.462  11.728   7.644
 4576SOL     OW15624  10.304   3.804  14.634
 4576SOL    HW115625  10.303   3.871  14.702
 4576SOL    HW215626  10.387   3.759  14.645
 4577SOL     OW15627   0.890   6.177   6.395
 4577SOL    HW115628   0.949   6.107   6.368
 4577SOL    HW215629   0.835   6.137   6.463
 4578SOL     OW15630  11.748   7.908   9.618
 4578SOL    HW115631  11.706   7.987   9.583
 4578SOL    HW215632  11.762   7.853   9.541
 4579SOL     OW15633   7.448  11.048  10.216
 4579SOL    HW115634   7.439  10.954  10.230
 4579SOL    HW215635   7.522  11.056  10.156
 4580SOL     OW15636   4.820   3.112  14.557
 4580SOL    HW115637   4.799   3.044  14.493
 4580SOL    HW215638   4.794   3.194  14.514
 4581SOL     OW15639   3.176   3.973   6.252
 4581SOL    HW115640   3.223   3.889   6.256
 4581SOL    HW215641   3.091   3.951   6.214
 4582SOL     OW15642   2.733   8.326  10.914
 4582SOL    HW115643   2.827   8.312  10.918
 4582SOL    HW215644   2.721   8.415  10.948
 4583SOL     OW15645   9.637   1.360   2.624
 4583SOL    HW115646   9.687   1.295   2.672
 4583SOL    HW215647   9.672   1.357   2.535
 4584SOL     OW15648   9.452   0.732  13.562
 4584SOL    HW115649   9.391   0.664  13.591
 4584SOL    HW215650   9.433   0.742  13.468
 4585SOL     OW15651   9.425   1.563   9.994
 4585SOL    HW115652   9.341   1.563  10.040
 4585SOL    HW215653   9.490   1.577  10.063
 4586SOL     OW15654   5.072   9.787  14.716
 4586SOL    HW115655   4.989   9.742  14.729
 4586SOL    HW215656   5.049   9.866  14.666
 4587SOL     OW15657   8.995   6.918  11.274
 4587SOL    HW115658   8.946   7.000  11.281
 4587SOL    HW215659   9.053   6.918  11.350
 4588SOL     OW15660   6.757   7.899   9.223
 4588SOL    HW115661   6.807   7.840   9.279
 4588SOL    HW215662   6.822   7.962   9.191
 4589SOL     OW15663   2.329  14.598  13.853
 4589SOL    HW115664   2.383  14.562  13.923
 4589SOL    HW215665   2.340  14.537  13.780
 4590SOL     OW15666  13.229   4.580  10.923
 4590SOL    HW115667  13.197   4.629  10.848
 4590SOL    HW215668  13.295   4.520  10.887
 4591SOL     OW15669  10.696  10.254   3.163
 4591SOL    HW115670  10.689  10.346   3.138
 4591SOL    HW215671  10.661  10.251   3.252
 4592SOL     OW15672   6.398   4.430  11.337
 4592SOL    HW115673   6.323   4.374  11.317
 4592SOL    HW215674   6.469   4.395  11.283
 4593SOL     OW15675  13.374   8.990   9.588
 4593SOL    HW115676  13.427   9.045   9.645
 4593SOL    HW215677  13.429   8.914   9.570
 4594SOL     OW15678   6.716   5.813   7.455
 4594SOL    HW115679   6.809   5.792   7.451
 4594SOL    HW215680   6.672   5.732   7.430
 4595SOL     OW15681  10.796   9.485   0.324
 4595SOL    HW115682  10.824   9.540   0.397
 4595SOL    HW215683  10.710   9.452   0.351
 4596SOL     OW15684   3.472   5.504   8.798
 4596SOL    HW115685   3.464   5.599   8.794
 4596SOL    HW215686   3.472   5.483   8.891
 4597SOL     OW15687   7.552  11.011   2.679
 4597SOL    HW115688   7.521  11.039   2.765
 4597SOL    HW215689   7.501  11.064   2.617
 4598SOL     OW15690   5.402  14.720  12.196
 4598SOL    HW115691   5.446  14.656  12.252
 4598SOL    HW215692   5.459  14.728  12.119
 4599SOL     OW15693   8.354  14.744   5.607
 4599SOL    HW115694   8.355  14.695   5.690
 4599SOL    HW215695   8.446  14.746   5.580
 4600SOL     OW15696   0.632   2.205  11.991
 4600SOL    HW115697   0.568   2.251  11.936
 4600SOL    HW215698   0.692   2.164  11.929
 4601SOL     OW15699   4.917   4.741   5.453
 4601SOL    HW115700   4.832   4.717   5.488
 4601SOL    HW215701   4.897   4.804   5.383
 4602SOL     OW15702   0.226   2.724  13.404
 4602SOL    HW115703   0.212   2.811  13.441
 4602SOL    HW215704   0.232   2.666  13.480
 4603SOL     OW15705   4.482  12.362  12.866
 4603SOL    HW115706   4.430  12.429  12.911
 4603SOL    HW215707   4.448  12.361  12.777
 4604SOL     OW15708   3.883   2.877   7.518
 4604SOL    HW115709   3.926   2.934   7.455
 4604SOL    HW215710   3.936   2.797   7.519
 4605SOL     OW15711  13.543   8.510  13.962
 4605SOL    HW115712  13.506   8.530  13.876
 4605SOL    HW215713  13.562   8.416  13.959
 4606SOL     OW15714   8.702   8.097   7.310
 4606SOL    HW115715   8.792   8.111   7.282
 4606SOL    HW215716   8.666   8.184   7.324
 4607SOL     OW15717   7.861   6.201   2.113
 4607SOL    HW115718   7.831   6.176   2.200
 4607SOL    HW215719   7.894   6.290   2.123
 4608SOL     OW15720  10.029   5.506   1.354
 4608SOL    HW115721  10.051   5.538   1.266
 4608SOL    HW215722  10.071   5.419   1.359
 4609SOL     OW15723   7.808  12.996   7.626
 4609SOL    HW115724   7.844  13.045   7.552
 4609SOL    HW215725   7.821  13.054   7.702
 4610SOL     OW15726   9.384   7.207   4.487
 4610SOL    HW115727   9.297   7.195   4.524
 4610SOL    HW215728   9.371   7.200   4.392
 4611SOL     OW15729   1.816  10.895   3.075
 4611SOL    HW115730   1.743  10.880   3.135
 4611SOL    HW215731   1.854  10.978   3.104
 4612SOL     OW15732   1.262   6.870   5.581
 4612SOL    HW115733   1.247   6.942   5.642
 4612SOL    HW215734   1.234   6.792   5.628
 4613SOL     OW15735   6.185   0.195   9.401
 4613SOL    HW115736   6.159   0.261   9.336
 4613SOL    HW215737   6.275   0.171   9.377
 4614SOL     OW15738   3.571   0.381   7.763
 4614SOL    HW115739   3.499   0.412   7.819
 4614SOL    HW215740   3.633   0.453   7.761
 4615SOL     OW15741  13.228  12.431  13.419
 4615SOL    HW115742  13.250  12.356  13.475
 4615SOL    HW215743  13.312  12.459  13.383
 4616SOL     OW15744   7.114  13.211   0.551
 4616SOL    HW115745   7.076  13.181   0.468
 4616SOL    HW215746   7.123  13.132   0.603
 4617SOL     OW15747   8.528   9.776  13.396
 4617SOL    HW115748   8.602   9.752  13.451
 4617SOL    HW215749   8.461   9.805  13.458
 4618SOL     OW15750   0.769   4.004   2.997
 4618SOL    HW115751   0.743   4.028   3.086
 4618SOL    HW215752   0.686   3.991   2.951
 4619SOL     OW15753  12.605   9.705  12.970
 4619SOL    HW115754  12.606   9.647  13.046
 4619SOL    HW215755  12.544   9.665  12.909
 4620SOL     OW15756   7.694   6.971  12.758
 4620SOL    HW115757   7.728   6.910  12.693
 4620SOL    HW215758   7.602   6.944  12.769
 4621SOL     OW15759  13.443  10.481   4.899
 4621SOL    HW115760  13.391  10.412   4.857
 4621SOL    HW215761  13.437  10.556   4.840
 4622SOL     OW15762   2.114   3.955   1.811
 4622SOL    HW115763   2.087   3.919   1.726
 4622SOL    HW215764   2.056   3.913   1.874
 4623SOL     OW15765  12.903   8.376   2.538
 4623SOL    HW115766  12.928   8.420   2.456
 4623SOL    HW215767  12.918   8.283   2.521
 4624SOL     OW15768   0.366   6.605   0.073
 4624SOL    HW115769   0.275   6.613   0.044
 4624SOL    HW215770   0.404   6.541   0.013
 4625SOL     OW15771   3.813   4.136   6.674
 4625SOL    HW115772   3.870   4.175   6.608
 4625SOL    HW215773   3.779   4.056   6.632
 4626SOL     OW15774  13.982   1.566   2.212
 4626SOL    HW115775  14.052   1.508   2.182
 4626SOL    HW215776  13.993   1.572   2.306
 4627SOL     OW15777   7.694   5.454   0.579
 4627SOL    HW115778   7.689   5.377   0.522
 4627SOL    HW215779   7.603   5.482   0.589
 4628SOL     OW15780   6.037   6.158   1.894
 4628SOL    HW115781   6.106   6.143   1.958
 4628SOL    HW215782   5.963   6.189   1.947
 4629SOL     OW15783   6.900   2.599   9.366
 4629SOL    HW115784   6.932   2.653   9.438
 4629SOL    HW215785   6.808   2.583   9.387
 4630SOL     OW15786  14.797   7.416  13.066
 4630SOL    HW115787  14.849   7.496  13.069
 4630SOL    HW215788  14.719   7.436  13.118
 4631SOL     OW15789  14.199   0.710   3.714
 4631SOL    HW115790  14.223   0.798   3.742
 4631SOL    HW215791  14.188   0.661   3.796
 4632SOL     OW15792   2.919  14.421   3.884
 4632SOL    HW115793   2.824  14.414   3.887
 4632SOL    HW215794   2.941  14.485   3.952
 4633SOL     OW15795   4.916  14.196   6.480
 4633SOL    HW115796   4.899  14.134   6.552
 4633SOL    HW215797   4.952  14.273   6.523
 4634SOL     OW15798   8.898  11.351   8.553
 4634SOL    HW115799   8.949  11.431   8.543
 4634SOL    HW215800   8.955  11.293   8.604
 4635SOL     OW15801  10.970  14.734   5.084
 4635SOL    HW115802  11.035  14.801   5.104
 4635SOL    HW215803  10.886  14.775   5.106
 4636SOL     OW15804   7.911   8.211   9.721
 4636SOL    HW115805   7.936   8.119   9.713
 4636SOL    HW215806   7.925   8.248   9.634
 4637SOL     OW15807   3.432   6.057   1.773
 4637SOL    HW115808   3.515   6.012   1.757
 4637SOL    HW215809   3.457   6.144   1.802
 4638SOL     OW15810  11.690   6.037  12.074
 4638SOL    HW115811  11.657   5.953  12.042
 4638SOL    HW215812  11.779   6.042  12.039
 4639SOL     OW15813   2.926   6.792   1.039
 4639SOL    HW115814   2.957   6.768   1.127
 4639SOL    HW215815   2.850   6.736   1.025
 4640SOL     OW15816  14.762   7.167  11.550
 4640SOL    HW115817  14.841   7.118  11.529
 4640SOL    HW215818  14.788   7.223  11.623
 4641SOL     OW15819   9.985  14.600  12.833
 4641SOL    HW115820   9.917  14.638  12.889
 4641SOL    HW215821  10.066  14.609  12.882
 4642SOL     OW15822   8.992   3.995  14.138
 4642SOL    HW115823   8.941   3.915  14.144
 4642SOL    HW215824   9.080   3.969  14.166
 4643SOL     OW15825   6.253  13.476  13.676
 4643SOL    HW115826   6.236  13.503  13.586
 4643SOL    HW215827   6.166  13.466  13.715
 4644SOL     OW15828   0.497  12.243  12.015
 4644SOL    HW115829   0.547  12.186  11.957
 4644SOL    HW215830   0.425  12.276  11.961
 4645SOL     OW15831  12.831   4.760   9.324
 4645SOL    HW115832  12.872   4.674   9.314
 4645SOL    HW215833  12.747   4.751   9.279
 4646SOL     OW15834   6.308   5.756  14.569
 4646SOL    HW115835   6.311   5.736  14.663
 4646SOL    HW215836   6.312   5.671  14.526
 4647SOL     OW15837   5.969   0.659   7.194
 4647SOL    HW115838   5.965   0.745   7.152
 4647SOL    HW215839   5.991   0.599   7.123
 4648SOL     OW15840   3.841  10.534  12.958
 4648SOL    HW115841   3.907  10.586  13.005
 4648SOL    HW215842   3.758  10.563  12.995
 4649SOL     OW15843   6.266   0.756   9.259
 4649SOL    HW115844   6.294   0.793   9.176
 4649SOL    HW215845   6.295   0.819   9.325
 4650SOL     OW15846  13.391  12.883   5.262
 4650SOL    HW115847  13.360  12.852   5.347
 4650SOL    HW215848  13.421  12.804   5.217
 4651SOL     OW15849  12.367   9.326   6.316
 4651SOL    HW115850  12.350   9.266   6.243
 4651SOL    HW215851  12.315   9.291   6.388
 4652SOL     OW15852   6.047   2.223   4.627
 4652SOL    HW115853   5.977   2.288   4.632
 4652SOL    HW215854   6.012   2.146   4.672
 4653SOL     OW15855   3.645   7.328   5.941
 4653SOL    HW115856   3.641   7.383   5.862
 4653SOL    HW215857   3.682   7.246   5.910
 4654SOL     OW15858  11.264   0.194   7.368
 4654SOL    HW115859  11.173   0.192   7.338
 4654SOL    HW215860  11.314   0.211   7.288
 4655SOL     OW15861  12.969  12.481   8.345
 4655SOL    HW115862  12.931  12.516   8.265
 4655SOL    HW215863  13.046  12.431   8.316
 4656SOL     OW15864   0.289  12.761  13.607
 4656SOL    HW115865   0.232  12.834  13.632
 4656SOL    HW215866   0.229  12.692  13.579
 4657SOL     OW15867  10.250  13.438   4.041
 4657SOL    HW115868  10.208  13.516   4.078
 4657SOL    HW215869  10.305  13.405   4.112
 4658SOL     OW15870   3.340   8.381  11.417
 4658SOL    HW115871   3.390   8.299  11.418
 4658SOL    HW215872   3.261   8.361  11.468
 4659SOL     OW15873  13.524   7.205   1.897
 4659SOL    HW115874  13.454   7.142   1.884
 4659SOL    HW215875  13.533   7.213   1.992
 4660SOL     OW15876   7.209   5.603   3.114
 4660SOL    HW115877   7.176   5.513   3.119
 4660SOL    HW215878   7.208   5.624   3.021
 4661SOL     OW15879   6.164   8.807   8.780
 4661SOL    HW115880   6.098   8.745   8.749
 4661SOL    HW215881   6.115   8.886   8.804
 4662SOL     OW15882   6.874   7.659   7.699
 4662SOL    HW115883   6.882   7.641   7.793
 4662SOL    HW215884   6.960   7.693   7.674
 4663SOL     OW15885  13.094   9.902  10.283
 4663SOL    HW115886  13.116   9.815  10.249
 4663SOL    HW215887  13.006   9.892  10.318
 4664SOL     OW15888   7.897  10.884   8.387
 4664SOL    HW115889   7.936  10.802   8.417
 4664SOL    HW215890   7.869  10.866   8.298
 4665SOL     OW15891  11.806   9.623   5.969
 4665SOL    HW115892  11.777   9.552   5.913
 4665SOL    HW215893  11.800   9.589   6.057
 4666SOL     OW15894   6.891  12.027   4.346
 4666SOL    HW115895   6.933  11.954   4.390
 4666SOL    HW215896   6.835  11.987   4.279
 4667SOL     OW15897  11.710  10.084   8.766
 4667SOL    HW115898  11.737  10.172   8.791
 4667SOL    HW215899  11.771  10.027   8.813
 4668SOL     OW15900  12.530   3.526   9.448
 4668SOL    HW115901  12.545   3.525   9.543
 4668SOL    HW215902  12.475   3.449   9.432
 4669SOL     OW15903   4.898   8.805   3.017
 4669SOL    HW115904   4.899   8.839   2.928
 4669SOL    HW215905   4.856   8.720   3.010
 4670SOL     OW15906   9.434   0.987  13.033
 4670SOL    HW115907   9.347   1.017  13.057
 4670SOL    HW215908   9.430   0.978  12.937
 4671SOL     OW15909  12.352   6.488   9.378
 4671SOL    HW115910  12.342   6.557   9.312
 4671SOL    HW215911  12.437   6.506   9.419
 4672SOL     OW15912   3.029   4.675   2.352
 4672SOL    HW115913   2.979   4.607   2.398
 4672SOL    HW215914   3.110   4.631   2.325
 4673SOL     OW15915   8.845   4.024  13.554
 4673SOL    HW115916   8.896   4.100  13.583
 4673SOL    HW215917   8.827   4.041  13.461
 4674SOL     OW15918  12.435   7.633  10.034
 4674SOL    HW115919  12.374   7.666  10.100
 4674SOL    HW215920  12.498   7.581  10.084
 4675SOL     OW15921   9.120   3.428  14.093
 4675SOL    HW115922   9.215   3.433  14.089
 4675SOL    HW215923   9.094   3.399  14.005
 4676SOL     OW15924   2.846   9.834   4.736
 4676SOL    HW115925   2.901   9.905   4.770
 4676SOL    HW215926   2.768   9.835   4.791
 4677SOL     OW15927  12.375   5.069  13.313
 4677SOL    HW115928  12.441   5.009  13.277
 4677SOL    HW215929  12.292   5.038  13.276
 4678SOL     OW15930  11.383   9.811   0.671
 4678SOL    HW115931  11.434   9.770   0.741
 4678SOL    HW215932  11.407   9.904   0.677
 4679SOL     OW15933   1.376   7.326   9.216
 4679SOL    HW115934   1.370   7.279   9.133
 4679SOL    HW215935   1.456   7.379   9.207
 4680SOL     OW15936   3.255   3.805   3.114
 4680SOL    HW115937   3.166   3.800   3.147
 4680SOL    HW215938   3.309   3.767   3.184
 4681SOL     OW15939  12.502   0.570   7.844
 4681SOL    HW115940  12.486   0.486   7.800
 4681SOL    HW215941  12.428   0.625   7.818
 4682SOL     OW15942   8.494   5.045  14.545
 4682SOL    HW115943   8.487   5.139  14.528
 4682SOL    HW215944   8.406   5.018  14.569
 4683SOL     OW15945   0.318  12.534  11.594
 4683SOL    HW115946   0.412  12.544  11.578
 4683SOL    HW215947   0.308  12.552  11.688
 4684SOL     OW15948   7.134   6.228   6.403
 4684SOL    HW115949   7.213   6.181   6.378
 4684SOL    HW215950   7.160   6.320   6.408
 4685SOL     OW15951  10.835   9.544   3.506
 4685SOL    HW115952  10.889   9.591   3.570
 4685SOL    HW215953  10.897   9.490   3.458
 4686SOL     OW15954   6.484   6.112  11.239
 4686SOL    HW115955   6.400   6.110  11.193
 4686SOL    HW215956   6.491   6.202  11.271
 4687SOL     OW15957   6.996  12.303  12.558
 4687SOL    HW115958   6.939  12.243  12.606
 4687SOL    HW215959   7.071  12.315  12.616
 4688SOL     OW15960   1.536   5.195   8.419
 4688SOL    HW115961   1.558   5.126   8.481
 4688SOL    HW215962   1.447   5.221   8.443
 4689SOL     OW15963   0.851   2.424   6.411
 4689SOL    HW115964   0.883   2.339   6.438
 4689SOL    HW215965   0.762   2.407   6.380
 4690SOL     OW15966  14.815   0.707   5.737
 4690SOL    HW115967   0.018   0.751   5.758
 4690SOL    HW215968  14.838   0.645   5.668
 4691SOL     OW15969   1.609  11.211  11.379
 4691SOL    HW115970   1.698  11.191  11.351
 4691SOL    HW215971   1.563  11.126  11.377
 4692SOL     OW15972   3.331   0.373  12.697
 4692SOL    HW115973   3.372   0.396  12.614
 4692SOL    HW215974   3.384   0.301  12.732
 4693SOL     OW15975   6.161   2.584  10.543
 4693SOL    HW115976   6.180   2.669  10.503
 4693SOL    HW215977   6.065   2.578  10.542
 4694SOL     OW15978   6.285  11.164  10.331
 4694SOL    HW115979   6.248  11.235  10.279
 4694SOL    HW215980   6.210  11.126  10.377
 4695SOL     OW15981   1.091  14.243   5.012
 4695SOL    HW115982   1.062  14.163   4.968
 4695SOL    HW215983   1.120  14.300   4.942
 4696SOL     OW15984  13.130  13.407   3.497
 4696SOL    HW115985  13.140  13.317   3.467
 4696SOL    HW215986  13.138  13.460   3.418
 4697SOL     OW15987   1.706   5.590   6.927
 4697SOL    HW115988   1.659   5.580   6.845
 4697SOL    HW215989   1.769   5.661   6.911
 4698SOL     OW15990   1.245  10.343   5.491
 4698SOL    HW115991   1.286  10.429   5.494
 4698SOL    HW215992   1.303  10.290   5.437
 4699SOL     OW15993  11.352  13.315   2.861
 4699SOL    HW115994  11.285  13.304   2.794
 4699SOL    HW215995  11.303  13.329   2.942
 4700SOL     OW15996  13.874   0.675   0.961
 4700SOL    HW115997  13.821   0.598   0.937
 4700SOL    HW215998  13.933   0.687   0.887
 4701SOL     OW15999   5.595   5.804  10.701
 4701SOL    HW116000   5.663   5.871  10.707
 4701SOL    HW216001   5.569   5.789  10.792
 4702SOL     OW16002   8.963   1.826   1.878
 4702SOL    HW116003   9.050   1.789   1.861
 4702SOL    HW216004   8.974   1.875   1.960
 4703SOL     OW16005   8.434   4.566  12.007
 4703SOL    HW116006   8.523   4.533  11.997
 4703SOL    HW216007   8.409   4.594  11.919
 4704SOL     OW16008   8.683  11.738   9.761
 4704SOL    HW116009   8.714  11.807   9.820
 4704SOL    HW216010   8.591  11.759   9.745
 4705SOL     OW16011   0.041   1.988  11.858
 4705SOL    HW116012   0.012   1.928  11.789
 4705SOL    HW216013  14.843   1.999  11.914
 4706SOL     OW16014   9.577  13.092  13.401
 4706SOL    HW116015   9.487  13.124  13.402
 4706SOL    HW216016   9.630  13.170  13.417
 4707SOL     OW16017  12.416   8.844   2.651
 4707SOL    HW116018  12.331   8.887   2.665
 4707SOL    HW216019  12.481   8.909   2.679
 4708SOL     OW16020   5.985   0.760   6.496
 4708SOL    HW116021   5.982   0.674   6.454
 4708SOL    HW216022   5.913   0.808   6.457
 4709SOL     OW16023   8.274   1.432   1.076
 4709SOL    HW116024   8.214   1.357   1.082
 4709SOL    HW216025   8.226   1.496   1.024
 4710SOL     OW16026  13.007   2.400  10.728
 4710SOL    HW116027  13.098   2.380  10.708
 4710SOL    HW216028  13.010   2.479  10.782
 4711SOL     OW16029  10.343   8.073   6.177
 4711SOL    HW116030  10.338   8.089   6.082
 4711SOL    HW216031  10.428   8.110   6.202
 4712SOL     OW16032  14.224  14.758   3.415
 4712SOL    HW116033  14.141  14.800   3.438
 4712SOL    HW216034  14.214  14.733   3.323
 4713SOL     OW16035  13.519  13.580  10.597
 4713SOL    HW116036  13.610  13.575  10.567
 4713SOL    HW216037  13.500  13.674  10.599
 4714SOL     OW16038   9.994   3.200  11.531
 4714SOL    HW116039   9.939   3.214  11.454
 4714SOL    HW216040  10.027   3.287  11.553
 4715SOL     OW16041   4.065  10.065   5.569
 4715SOL    HW116042   4.124  10.046   5.642
 4715SOL    HW216043   4.101  10.144   5.529
 4716SOL     OW16044   6.087   2.338  14.447
 4716SOL    HW116045   6.019   2.291  14.399
 4716SOL    HW216046   6.134   2.388  14.380
 4717SOL     OW16047   6.665  12.298  13.489
 4717SOL    HW116048   6.748  12.307  13.443
 4717SOL    HW216049   6.600  12.333  13.429
 4718SOL     OW16050  13.325   9.793   9.710
 4718SOL    HW116051  13.246   9.836   9.742
 4718SOL    HW216052  13.340   9.831   9.624
 4719SOL     OW16053   0.083   5.795  12.516
 4719SOL    HW116054   0.054   5.792  12.425
 4719SOL    HW216055   0.067   5.885  12.543
 4720SOL     OW16056  11.511  13.947   8.087
 4720SOL    HW116057  11.458  13.867   8.084
 4720SOL    HW216058  11.523  13.964   8.180
 4721SOL     OW16059   5.908  14.434   4.337
 4721SOL    HW116060   5.932  14.364   4.397
 4721SOL    HW216061   5.831  14.475   4.378
 4722SOL     OW16062  12.874  13.409   5.476
 4722SOL    HW116063  12.786  13.423   5.512
 4722SOL    HW216064  12.863  13.338   5.413
 4723SOL     OW16065   0.529   7.069  13.289
 4723SOL    HW116066   0.498   7.118  13.214
 4723SOL    HW216067   0.469   6.995  13.296
 4724SOL     OW16068  11.406   2.887   2.358
 4724SOL    HW116069  11.315   2.865   2.378
 4724SOL    HW216070  11.404   2.977   2.328
 4725SOL     OW16071   0.113  10.822   9.397
 4725SOL    HW116072   0.078  10.789   9.314
 4725SOL    HW216073   0.104  10.749   9.458
 4726SOL     OW16074  12.416  11.588  11.315
 4726SOL    HW116075  12.393  11.612  11.405
 4726SOL    HW216076  12.436  11.495  11.320
 4727SOL     OW16077  10.670   8.570   1.581
 4727SOL    HW116078  10.621   8.505   1.530
 4727SOL    HW216079  10.751   8.583   1.531
 4728SOL     OW16080  10.900   5.801   7.130
 4728SOL    HW116081  10.957   5.877   7.129
 4728SOL    HW216082  10.883   5.785   7.223
 4729SOL     OW16083  10.460  14.235   9.650
 4729SOL    HW116084  10.548  14.218   9.618
 4729SOL    HW216085  10.459  14.328   9.671
 4730SOL     OW16086   4.881  10.327   4.549
 4730SOL    HW116087   4.881  10.329   4.644
 4730SOL    HW216088   4.973  10.341   4.525
 4731SOL     OW16089  13.664   1.104  12.723
 4731SOL    HW116090  13.665   1.199  12.718
 4731SOL    HW216091  13.683   1.074  12.634
 4732SOL     OW16092  10.952   4.921  10.269
 4732SOL    HW116093  10.983   4.885  10.186
 4732SOL    HW216094  10.858   4.933  10.256
 4733SOL     OW16095  13.033  10.075   5.168
 4733SOL    HW116096  13.032  10.155   5.116
 4733SOL    HW216097  13.056  10.104   5.257
 4734SOL     OW16098   9.310   8.575   0.678
 4734SOL    HW116099   9.396   8.533   0.671
 4734SOL    HW216100   9.323   8.661   0.638
 4735SOL     OW16101  11.703   7.331   5.911
 4735SOL    HW116102  11.657   7.247   5.910
 4735SOL    HW216103  11.648   7.389   5.857
 4736SOL     OW16104   9.482   6.955   6.727
 4736SOL    HW116105   9.480   6.961   6.823
 4736SOL    HW216106   9.416   7.018   6.698
 4737SOL     OW16107   3.645   3.263   2.476
 4737SOL    HW116108   3.729   3.234   2.438
 4737SOL    HW216109   3.656   3.251   2.570
 4738SOL     OW16110  13.845   9.600  13.143
 4738SOL    HW116111  13.938   9.622  13.136
 4738SOL    HW216112  13.807   9.669  13.197
 4739SOL     OW16113   5.118   8.022   5.874
 4739SOL    HW116114   5.060   7.946   5.881
 4739SOL    HW216115   5.126   8.037   5.779
 4740SOL     OW16116   6.601  12.995   7.766
 4740SOL    HW116117   6.511  12.969   7.746
 4740SOL    HW216118   6.655  12.934   7.716
 4741SOL     OW16119  11.506   6.494   1.678
 4741SOL    HW116120  11.468   6.552   1.745
 4741SOL    HW216121  11.437   6.486   1.612
 4742SOL     OW16122   9.197  13.838   5.451
 4742SOL    HW116123   9.223  13.878   5.533
 4742SOL    HW216124   9.198  13.744   5.469
 4743SOL     OW16125  13.614  14.617  12.311
 4743SOL    HW116126  13.527  14.628  12.350
 4743SOL    HW216127  13.615  14.526  12.281
 4744SOL     OW16128  10.176   9.800  12.258
 4744SOL    HW116129  10.152   9.817  12.349
 4744SOL    HW216130  10.271   9.791  12.259
 4745SOL     OW16131   8.465   7.633   1.816
 4745SOL    HW116132   8.499   7.663   1.900
 4745SOL    HW216133   8.465   7.538   1.822
 4746SOL     OW16134   5.492   2.007   5.868
 4746SOL    HW116135   5.557   1.972   5.930
 4746SOL    HW216136   5.430   1.936   5.855
 4747SOL     OW16137   7.698  14.774  11.435
 4747SOL    HW116138   7.666  14.864  11.438
 4747SOL    HW216139   7.713  14.751  11.526
 4748SOL     OW16140   1.711   9.674  13.269
 4748SOL    HW116141   1.776   9.736  13.236
 4748SOL    HW216142   1.721   9.597  13.213
 4749SOL     OW16143   1.060  12.645   6.865
 4749SOL    HW116144   0.988  12.619   6.808
 4749SOL    HW216145   1.112  12.566   6.876
 4750SOL     OW16146   4.815   3.078   2.888
 4750SOL    HW116147   4.883   3.067   2.821
 4750SOL    HW216148   4.740   3.115   2.841
 4751SOL     OW16149   1.900  10.507   5.254
 4751SOL    HW116150   1.950  10.537   5.329
 4751SOL    HW216151   1.861  10.425   5.283
 4752SOL     OW16152  12.719  11.951  12.772
 4752SOL    HW116153  12.685  12.036  12.744
 4752SOL    HW216154  12.776  11.971  12.846
 4753SOL     OW16155   2.585   7.795   9.577
 4753SOL    HW116156   2.520   7.738   9.534
 4753SOL    HW216157   2.660   7.738   9.592
 4754SOL     OW16158  10.816   5.158   2.909
 4754SOL    HW116159  10.852   5.130   2.825
 4754SOL    HW216160  10.890   5.158   2.968
 4755SOL     OW16161  10.640   7.422  12.366
 4755SOL    HW116162  10.592   7.341  12.350
 4755SOL    HW216163  10.574   7.484  12.395
 4756SOL     OW16164   5.587  12.823   9.222
 4756SOL    HW116165   5.581  12.908   9.265
 4756SOL    HW216166   5.666  12.829   9.169
 4757SOL     OW16167   2.916   5.243   7.436
 4757SOL    HW116168   2.846   5.180   7.451
 4757SOL    HW216169   2.897   5.279   7.349
 4758SOL     OW16170   5.874   6.576   7.966
 4758SOL    HW116171   5.837   6.663   7.955
 4758SOL    HW216172   5.885   6.567   8.061
 4759SOL     OW16173   4.924   8.202  14.493
 4759SOL    HW116174   5.002   8.258  14.492
 4759SOL    HW216175   4.937   8.141  14.421
 4760SOL     OW16176   4.574   7.676  11.940
 4760SOL    HW116177   4.647   7.714  11.990
 4760SOL    HW216178   4.573   7.726  11.858
 4761SOL     OW16179   6.709   5.112  14.418
 4761SOL    HW116180   6.729   5.182  14.356
 4761SOL    HW216181   6.628   5.140  14.460
 4762SOL     OW16182   6.464   8.770   9.195
 4762SOL    HW116183   6.454   8.745   9.286
 4762SOL    HW216184   6.533   8.712   9.161
 4763SOL     OW16185  10.294  10.143   3.120
 4763SOL    HW116186  10.232  10.071   3.111
 4763SOL    HW216187  10.337  10.127   3.204
 4764SOL     OW16188  13.575  12.287   9.522
 4764SOL    HW116189  13.658  12.255   9.559
 4764SOL    HW216190  13.593  12.377   9.498
 4765SOL     OW16191  13.465   5.093  11.213
 4765SOL    HW116192  13.541   5.143  11.241
 4765SOL    HW216193  13.451   5.119  11.122
 4766SOL     OW16194  12.526   9.895  10.899
 4766SOL    HW116195  12.577   9.814  10.900
 4766SOL    HW216196  12.438   9.868  10.873
 4767SOL     OW16197   0.507   9.959   0.162
 4767SOL    HW116198   0.557   9.924   0.088
 4767SOL    HW216199   0.571   9.969   0.232
 4768SOL     OW16200   6.767  11.599   8.606
 4768SOL    HW116201   6.815  11.565   8.682
 4768SOL    HW216202   6.688  11.637   8.644
 4769SOL     OW16203   4.468  10.493   2.235
 4769SOL    HW116204   4.440  10.503   2.144
 4769SOL    HW216205   4.399  10.441   2.276
 4770SOL     OW16206   9.785  11.880  13.410
 4770SOL    HW116207   9.773  11.891  13.504
 4770SOL    HW216208   9.781  11.785  13.397
 4771SOL     OW16209   8.360  11.466   3.477
 4771SOL    HW116210   8.350  11.404   3.404
 4771SOL    HW216211   8.403  11.542   3.437
 4772SOL     OW16212   3.232   6.214  10.173
 4772SOL    HW116213   3.289   6.290  10.172
 4772SOL    HW216214   3.213   6.199  10.266
 4773SOL     OW16215  12.107   4.319   4.481
 4773SOL    HW116216  12.139   4.302   4.393
 4773SOL    HW216217  12.051   4.245   4.501
 4774SOL     OW16218   5.373  12.460   7.127
 4774SOL    HW116219   5.453  12.468   7.074
 4774SOL    HW216220   5.403  12.464   7.217
 4775SOL     OW16221   7.754   4.960   9.948
 4775SOL    HW116222   7.807   5.039   9.931
 4775SOL    HW216223   7.803   4.912  10.014
 4776SOL     OW16224  10.270   7.986  13.418
 4776SOL    HW116225  10.310   8.015  13.500
 4776SOL    HW216226  10.207   8.054  13.397
 4777SOL     OW16227  12.219   5.704   5.130
 4777SOL    HW116228  12.290   5.767   5.143
 4777SOL    HW216229  12.238   5.664   5.045
 4778SOL     OW16230   6.508  11.721   1.524
 4778SOL    HW116231   6.598  11.751   1.531
 4778SOL    HW216232   6.455  11.794   1.557
 4779SOL     OW16233   5.599   7.481   8.125
 4779SOL    HW116234   5.510   7.516   8.114
 4779SOL    HW216235   5.587   7.404   8.181
 4780SOL     OW16236  11.637  13.255  12.416
 4780SOL    HW116237  11.645  13.166  12.449
 4780SOL    HW216238  11.628  13.246  12.321
 4781SOL     OW16239  12.728   9.226   9.803
 4781SOL    HW116240  12.675   9.150   9.780
 4781SOL    HW216241  12.730   9.279   9.723
 4782SOL     OW16242   7.580   9.281   5.366
 4782SOL    HW116243   7.567   9.214   5.299
 4782SOL    HW216244   7.502   9.336   5.360
 4783SOL     OW16245  13.800  13.856  10.476
 4783SOL    HW116246  13.879  13.874  10.527
 4783SOL    HW216247  13.778  13.766  10.496
 4784SOL     OW16248   1.149   5.234  11.135
 4784SOL    HW116249   1.055   5.225  11.117
 4784SOL    HW216250   1.157   5.317  11.181
 4785SOL     OW16251   9.929   6.547   7.931
 4785SOL    HW116252   9.925   6.542   8.026
 4785SOL    HW216253   9.981   6.626   7.913
 4786SOL     OW16254  12.506   7.947  11.704
 4786SOL    HW116255  12.481   8.029  11.662
 4786SOL    HW216256  12.536   7.972  11.791
 4787SOL     OW16257   5.822   9.883   4.468
 4787SOL    HW116258   5.874   9.910   4.543
 4787SOL    HW216259   5.878   9.901   4.392
 4788SOL     OW16260   7.508   6.575   1.615
 4788SOL    HW116261   7.552   6.573   1.530
 4788SOL    HW216262   7.562   6.632   1.669
 4789SOL     OW16263   6.630   1.081   2.760
 4789SOL    HW116264   6.708   1.026   2.751
 4789SOL    HW216265   6.564   1.040   2.703
 4790SOL     OW16266   2.983   2.923  10.059
 4790SOL    HW116267   3.023   2.850  10.106
 4790SOL    HW216268   2.920   2.960  10.121
 4791SOL     OW16269   5.819   7.056  11.747
 4791SOL    HW116270   5.755   7.041  11.817
 4791SOL    HW216271   5.825   7.152  11.740
 4792SOL     OW16272   0.546   2.545   3.512
 4792SOL    HW116273   0.562   2.567   3.604
 4792SOL    HW216274   0.532   2.630   3.469
 4793SOL     OW16275   0.001   1.646  12.780
 4793SOL    HW116276  14.858   1.579  12.715
 4793SOL    HW216277   0.068   1.605  12.834
 4794SOL     OW16278   4.575  11.218   9.844
 4794SOL    HW116279   4.618  11.145   9.799
 4794SOL    HW216280   4.516  11.255   9.779
 4795SOL     OW16281   4.417   0.457  10.719
 4795SOL    HW116282   4.431   0.375  10.766
 4795SOL    HW216283   4.479   0.519  10.760
 4796SOL     OW16284   6.412   9.559  11.082
 4796SOL    HW116285   6.390   9.566  10.989
 4796SOL    HW216286   6.479   9.491  11.086
 4797SOL     OW16287   5.760  14.225   6.114
 4797SOL    HW116288   5.786  14.316   6.102
 4797SOL    HW216289   5.753  14.214   6.209
 4798SOL     OW16290  12.087  10.048   2.700
 4798SOL    HW116291  12.019   9.998   2.745
 4798SOL    HW216292  12.061  10.139   2.711
 4799SOL     OW16293  10.153   6.803   9.632
 4799SOL    HW116294  10.115   6.722   9.665
 4799SOL    HW216295  10.173   6.784   9.540
 4800SOL     OW16296  14.851   5.476   3.503
 4800SOL    HW116297   0.032   5.480   3.428
 4800SOL    HW216298  14.852   5.565   3.539
 4801SOL     OW16299   6.506  13.180   3.621
 4801SOL    HW116300   6.452  13.256   3.600
 4801SOL    HW216301   6.500  13.171   3.716
 4802SOL     OW16302   4.441  14.624  11.894
 4802SOL    HW116303   4.407  14.648  11.980
 4802SOL    HW216304   4.474  14.706  11.857
 4803SOL     OW16305   5.070   3.477   9.211
 4803SOL    HW116306   4.993   3.424   9.191
 4803SOL    HW216307   5.034   3.561   9.240
 4804SOL     OW16308  14.357   4.183   8.432
 4804SOL    HW116309  14.411   4.140   8.499
 4804SOL    HW216310  14.361   4.124   8.357
 4805SOL     OW16311  10.264   3.635  10.681
 4805SOL    HW116312  10.175   3.668  10.691
 4805SOL    HW216313  10.303   3.643  10.769
 4806SOL     OW16314  14.382   6.515  12.838
 4806SOL    HW116315  14.458   6.472  12.877
 4806SOL    HW216316  14.350   6.573  12.907
 4807SOL     OW16317   5.853  13.347  11.686
 4807SOL    HW116318   5.823  13.265  11.646
 4807SOL    HW216319   5.904  13.319  11.761
 4808SOL     OW16320   7.823   6.529  10.958
 4808SOL    HW116321   7.906   6.487  10.937
 4808SOL    HW216322   7.773   6.528  10.876
 4809SOL     OW16323   2.317   8.929  12.899
 4809SOL    HW116324   2.263   8.999  12.864
 4809SOL    HW216325   2.314   8.861  12.832
 4810SOL     OW16326   2.436  12.402   0.438
 4810SOL    HW116327   2.353  12.366   0.470
 4810SOL    HW216328   2.502  12.368   0.499
 4811SOL     OW16329  10.941  11.227   0.856
 4811SOL    HW116330  10.988  11.168   0.916
 4811SOL    HW216331  10.991  11.308   0.859
 4812SOL     OW16332   2.416  11.242   3.123
 4812SOL    HW116333   2.376  11.323   3.155
 4812SOL    HW216334   2.446  11.264   3.034
 4813SOL     OW16335   6.479  12.908  13.949
 4813SOL    HW116336   6.570  12.883  13.932
 4813SOL    HW216337   6.456  12.963  13.874
 4814SOL     OW16338   7.795   9.379   3.270
 4814SOL    HW116339   7.699   9.378   3.270
 4814SOL    HW216340   7.819   9.360   3.180
 4815SOL     OW16341   8.137  12.823   8.908
 4815SOL    HW116342   8.127  12.745   8.962
 4815SOL    HW216343   8.228  12.850   8.921
 4816SOL     OW16344   2.922   7.723   3.212
 4816SOL    HW116345   2.983   7.654   3.185
 4816SOL    HW216346   2.861   7.732   3.139
 4817SOL     OW16347   2.603   2.362   4.974
 4817SOL    HW116348   2.605   2.428   5.043
 4817SOL    HW216349   2.601   2.278   5.021
 4818SOL     OW16350   3.153   7.749   0.289
 4818SOL    HW116351   3.216   7.752   0.361
 4818SOL    HW216352   3.127   7.840   0.275
 4819SOL     OW16353   6.086   6.292   1.659
 4819SOL    HW116354   6.057   6.261   1.744
 4819SOL    HW216355   6.113   6.383   1.674
 4820SOL     OW16356   5.137   3.135   9.557
 4820SOL    HW116357   5.068   3.199   9.540
 4820SOL    HW216358   5.114   3.096   9.641
 4821SOL     OW16359   4.412  14.363   8.246
 4821SOL    HW116360   4.371  14.438   8.289
 4821SOL    HW216361   4.360  14.288   8.276
 4822SOL     OW16362   7.071   3.725   8.741
 4822SOL    HW116363   7.105   3.770   8.664
 4822SOL    HW216364   7.133   3.654   8.756
 4823SOL     OW16365   1.484   1.277  10.484
 4823SOL    HW116366   1.544   1.350  10.475
 4823SOL    HW216367   1.422   1.305  10.552
 4824SOL     OW16368   2.479   1.577  12.032
 4824SOL    HW116369   2.454   1.485  12.032
 4824SOL    HW216370   2.417   1.619  11.972
 4825SOL     OW16371  13.955  14.587   5.179
 4825SOL    HW116372  14.019  14.528   5.219
 4825SOL    HW216373  13.897  14.612   5.250
 4826SOL     OW16374   8.103  10.829  12.440
 4826SOL    HW116375   8.104  10.747  12.391
 4826SOL    HW216376   8.100  10.897  12.372
 4827SOL     OW16377   5.903   2.200  13.696
 4827SOL    HW116378   5.990   2.237  13.710
 4827SOL    HW216379   5.918   2.124  13.640
 4828SOL     OW16380   4.795   4.218   4.849
 4828SOL    HW116381   4.792   4.123   4.861
 4828SOL    HW216382   4.874   4.245   4.895
 4829SOL     OW16383   9.004   4.262   7.571
 4829SOL    HW116384   9.000   4.355   7.553
 4829SOL    HW216385   9.061   4.255   7.648
 4830SOL     OW16386   3.616   3.975  12.716
 4830SOL    HW116387   3.711   3.975  12.727
 4830SOL    HW216388   3.582   3.946  12.801
 4831SOL     OW16389   3.796   8.503  11.236
 4831SOL    HW116390   3.840   8.582  11.269
 4831SOL    HW216391   3.801   8.441  11.308
 4832SOL     OW16392   8.419   4.960   9.736
 4832SOL    HW116393   8.396   4.930   9.648
 4832SOL    HW216394   8.512   4.942   9.744
 4833SOL     OW16395  11.812   5.175  13.530
 4833SOL    HW116396  11.793   5.082  13.543
 4833SOL    HW216397  11.747   5.221  13.582
 4834SOL     OW16398  11.624  14.207   5.913
 4834SOL    HW116399  11.597  14.119   5.888
 4834SOL    HW216400  11.549  14.263   5.890
 4835SOL     OW16401   2.414   7.217   4.203
 4835SOL    HW116402   2.372   7.299   4.178
 4835SOL    HW216403   2.396   7.157   4.131
 4836SOL     OW16404   2.502   1.438  14.440
 4836SOL    HW116405   2.471   1.403  14.523
 4836SOL    HW216406   2.468   1.378  14.374
 4837SOL     OW16407   0.102   0.120   4.220
 4837SOL    HW116408   0.048   0.051   4.182
 4837SOL    HW216409   0.162   0.074   4.279
 4838SOL     OW16410   3.809   2.445   7.424
 4838SOL    HW116411   3.834   2.374   7.482
 4838SOL    HW216412   3.770   2.511   7.481
 4839SOL     OW16413  10.718   8.655   7.199
 4839SOL    HW116414  10.748   8.687   7.114
 4839SOL    HW216415  10.666   8.577   7.178
 4840SOL     OW16416   7.135   4.927   6.590
 4840SOL    HW116417   7.097   4.968   6.512
 4840SOL    HW216418   7.219   4.894   6.561
 4841SOL     OW16419   4.240  11.312   8.198
 4841SOL    HW116420   4.214  11.225   8.169
 4841SOL    HW216421   4.239  11.306   8.294
 4842SOL     OW16422   0.198  10.480   0.960
 4842SOL    HW116423   0.124  10.541   0.956
 4842SOL    HW216424   0.173  10.416   1.027
 4843SOL     OW16425   9.289   7.701   6.207
 4843SOL    HW116426   9.196   7.699   6.230
 4843SOL    HW216427   9.334   7.692   6.291
 4844SOL     OW16428   5.864   8.662   6.300
 4844SOL    HW116429   5.860   8.690   6.208
 4844SOL    HW216430   5.777   8.679   6.334
 4845SOL     OW16431   5.718   1.314   4.823
 4845SOL    HW116432   5.695   1.225   4.849
 4845SOL    HW216433   5.773   1.346   4.895
 4846SOL     OW16434   2.391   2.184   2.443
 4846SOL    HW116435   2.399   2.123   2.370
 4846SOL    HW216436   2.296   2.195   2.454
 4847SOL     OW16437   1.506  14.667  11.935
 4847SOL    HW116438   1.591  14.698  11.967
 4847SOL    HW216439   1.452  14.659  12.013
 4848SOL     OW16440   9.797   9.576   7.224
 4848SOL    HW116441   9.882   9.553   7.262
 4848SOL    HW216442   9.756   9.632   7.290
 4849SOL     OW16443   3.728  12.744   7.374
 4849SOL    HW116444   3.788  12.672   7.393
 4849SOL    HW216445   3.673  12.752   7.452
 4850SOL     OW16446   1.297  11.455  13.337
 4850SOL    HW116447   1.356  11.476  13.410
 4850SOL    HW216448   1.295  11.359  13.336
 4851SOL     OW16449   0.220  10.101  13.543
 4851SOL    HW116450   0.232  10.102  13.638
 4851SOL    HW216451   0.232  10.192  13.517
 4852SOL     OW16452   2.576  12.574   3.124
 4852SOL    HW116453   2.559  12.618   3.207
 4852SOL    HW216454   2.490  12.563   3.084
 4853SOL     OW16455   8.724  12.228   8.948
 4853SOL    HW116456   8.717  12.148   9.000
 4853SOL    HW216457   8.814  12.227   8.915
 4854SOL     OW16458  13.508   5.882   3.620
 4854SOL    HW116459  13.537   5.927   3.540
 4854SOL    HW216460  13.481   5.953   3.678
 4855SOL     OW16461  11.592  12.288   3.862
 4855SOL    HW116462  11.653  12.343   3.911
 4855SOL    HW216463  11.525  12.263   3.927
 4856SOL     OW16464   0.404   5.141   4.350
 4856SOL    HW116465   0.418   5.054   4.315
 4856SOL    HW216466   0.482   5.190   4.324
 4857SOL     OW16467   9.947   5.320  14.111
 4857SOL    HW116468   9.982   5.261  14.043
 4857SOL    HW216469   9.999   5.400  14.102
 4858SOL     OW16470   4.231   9.648   4.758
 4858SOL    HW116471   4.255   9.567   4.804
 4858SOL    HW216472   4.180   9.618   4.683
 4859SOL     OW16473  13.550   3.615   0.944
 4859SOL    HW116474  13.627   3.660   0.909
 4859SOL    HW216475  13.537   3.540   0.887
 4860SOL     OW16476   1.732   5.098   6.711
 4860SOL    HW116477   1.754   5.126   6.800
 4860SOL    HW216478   1.636   5.098   6.709
 4861SOL     OW16479  10.908   1.456   7.353
 4861SOL    HW116480  10.906   1.470   7.259
 4861SOL    HW216481  10.825   1.491   7.385
 4862SOL     OW16482   4.932   0.064   1.913
 4862SOL    HW116483   5.019   0.097   1.890
 4862SOL    HW216484   4.885   0.061   1.830
 4863SOL     OW16485   0.624   8.991  11.307
 4863SOL    HW116486   0.651   8.965  11.395
 4863SOL    HW216487   0.635   9.086  11.306
 4864SOL     OW16488   3.717   5.757   9.042
 4864SOL    HW116489   3.698   5.842   9.003
 4864SOL    HW216490   3.723   5.774   9.136
 4865SOL     OW16491  12.051   2.633   3.867
 4865SOL    HW116492  12.133   2.678   3.887
 4865SOL    HW216493  11.986   2.703   3.861
 4866SOL     OW16494   0.268   9.278   5.121
 4866SOL    HW116495   0.182   9.311   5.096
 4866SOL    HW216496   0.331   9.334   5.076
 4867SOL     OW16497  12.481  13.914  12.615
 4867SOL    HW116498  12.508  13.858  12.542
 4867SOL    HW216499  12.481  14.003  12.579
 4868SOL     OW16500   1.367  10.582   8.953
 4868SOL    HW116501   1.361  10.494   8.992
 4868SOL    HW216502   1.334  10.570   8.864
 4869SOL     OW16503   1.938   8.953   4.858
 4869SOL    HW116504   1.974   8.867   4.881
 4869SOL    HW216505   1.955   8.962   4.765
 4870SOL     OW16506   6.348   8.317   1.030
 4870SOL    HW116507   6.428   8.370   1.031
 4870SOL    HW216508   6.300   8.348   0.953
 4871SOL     OW16509  12.846   3.980  10.782
 4871SOL    HW116510  12.849   4.075  10.770
 4871SOL    HW216511  12.887   3.965  10.867
 4872SOL     OW16512   2.494  14.518   0.418
 4872SOL    HW116513   2.472  14.428   0.393
 4872SOL    HW216514   2.417  14.569   0.392
 4873SOL     OW16515   0.652  13.074  12.889
 4873SOL    HW116516   0.667  12.982  12.912
 4873SOL    HW216517   0.672  13.079  12.796
 4874SOL     OW16518   7.540   6.965  11.492
 4874SOL    HW116519   7.634   6.949  11.477
 4874SOL    HW216520   7.509   7.003  11.409
 4875SOL     OW16521   6.617   1.356  13.667
 4875SOL    HW116522   6.542   1.414  13.679
 4875SOL    HW216523   6.686   1.413  13.632
 4876SOL     OW16524  11.344  14.104   1.820
 4876SOL    HW116525  11.271  14.044   1.838
 4876SOL    HW216526  11.418  14.066   1.868
 4877SOL     OW16527  12.849   2.373   2.649
 4877SOL    HW116528  12.844   2.454   2.599
 4877SOL    HW216529  12.762   2.361   2.686
 4878SOL     OW16530  10.038   4.331   9.988
 4878SOL    HW116531  10.089   4.266  10.037
 4878SOL    HW216532  10.104   4.383   9.943
 4879SOL     OW16533   2.165   0.362   7.601
 4879SOL    HW116534   2.087   0.314   7.574
 4879SOL    HW216535   2.165   0.441   7.547
 4880SOL     OW16536   0.047   8.306   9.561
 4880SOL    HW116537   0.008   8.232   9.608
 4880SOL    HW216538   0.029   8.288   9.469
 4881SOL     OW16539  14.869   5.051   0.170
 4881SOL    HW116540   0.026   5.079   0.086
 4881SOL    HW216541  14.811   4.978   0.147
 4882SOL     OW16542   6.574   5.106   9.637
 4882SOL    HW116543   6.600   5.189   9.596
 4882SOL    HW216544   6.656   5.058   9.649
 4883SOL     OW16545   9.861   3.838   0.218
 4883SOL    HW116546   9.865   3.746   0.192
 4883SOL    HW216547   9.795   3.840   0.288
 4884SOL     OW16548   7.037   0.216  12.381
 4884SOL    HW116549   7.001   0.223  12.469
 4884SOL    HW216550   7.068   0.304  12.360
 4885SOL     OW16551   2.936  12.014   7.224
 4885SOL    HW116552   2.842  12.031   7.225
 4885SOL    HW216553   2.952  11.968   7.306
 4886SOL     OW16554  10.774   9.274   8.880
 4886SOL    HW116555  10.685   9.278   8.912
 4886SOL    HW216556  10.822   9.224   8.946
 4887SOL     OW16557   9.463  11.497   3.004
 4887SOL    HW116558   9.550  11.497   3.043
 4887SOL    HW216559   9.407  11.455   3.070
 4888SOL     OW16560   9.017   9.325   6.223
 4888SOL    HW116561   9.008   9.416   6.251
 4888SOL    HW216562   9.086   9.327   6.158
 4889SOL     OW16563   2.058  11.991   7.467
 4889SOL    HW116564   1.987  11.939   7.504
 4889SOL    HW216565   2.124  11.927   7.441
 4890SOL     OW16566   9.472   2.098   6.217
 4890SOL    HW116567   9.383   2.116   6.187
 4890SOL    HW216568   9.469   2.114   6.311
 4891SOL     OW16569   4.668  12.517   6.642
 4891SOL    HW116570   4.578  12.551   6.638
 4891SOL    HW216571   4.657  12.424   6.664
 4892SOL     OW16572   4.366   9.718   8.675
 4892SOL    HW116573   4.325   9.682   8.753
 4892SOL    HW216574   4.329   9.667   8.603
 4893SOL     OW16575  10.555  12.545  12.543
 4893SOL    HW116576  10.550  12.633  12.580
 4893SOL    HW216577  10.509  12.490  12.607
 4894SOL     OW16578   2.136   3.338   7.623
 4894SOL    HW116579   2.089   3.277   7.680
 4894SOL    HW216580   2.113   3.425   7.657
 4895SOL     OW16581   7.983  13.494   4.674
 4895SOL    HW116582   7.998  13.441   4.752
 4895SOL    HW216583   7.979  13.584   4.707
 4896SOL     OW16584   7.626   0.615  13.535
 4896SOL    HW116585   7.696   0.657  13.485
 4896SOL    HW216586   7.633   0.522  13.511
 4897SOL     OW16587   7.808   7.317   7.909
 4897SOL    HW116588   7.852   7.288   7.989
 4897SOL    HW216589   7.783   7.237   7.864
 4898SOL     OW16590   8.589   4.668   8.433
 4898SOL    HW116591   8.568   4.761   8.428
 4898SOL    HW216592   8.579   4.637   8.343
 4899SOL     OW16593   2.026   7.299   3.251
 4899SOL    HW116594   1.983   7.384   3.250
 4899SOL    HW216595   1.992   7.255   3.329
 4900SOL     OW16596   9.286   0.773   3.360
 4900SOL    HW116597   9.335   0.843   3.403
 4900SOL    HW216598   9.200   0.775   3.403
 4901SOL     OW16599   1.103  14.840   1.489
 4901SOL    HW116600   1.097  14.759   1.540
 4901SOL    HW216601   1.014  14.854   1.456
 4902SOL     OW16602  11.080   2.137  13.028
 4902SOL    HW116603  11.067   2.057  13.079
 4902SOL    HW216604  11.027   2.125  12.950
 4903SOL     OW16605   4.247   7.583   5.589
 4903SOL    HW116606   4.195   7.511   5.624
 4903SOL    HW216607   4.320   7.541   5.544
 4904SOL     OW16608   4.250  14.384   9.548
 4904SOL    HW116609   4.247  14.342   9.634
 4904SOL    HW216610   4.253  14.312   9.486
 4905SOL     OW16611  14.713  10.360  12.855
 4905SOL    HW116612  14.632  10.323  12.891
 4905SOL    HW216613  14.734  10.303  12.781
 4906SOL     OW16614   7.216   3.530   1.517
 4906SOL    HW116615   7.132   3.489   1.496
 4906SOL    HW216616   7.234   3.503   1.607
 4907SOL     OW16617   5.648  12.339   3.184
 4907SOL    HW116618   5.554  12.356   3.192
 4907SOL    HW216619   5.687  12.424   3.165
 4908SOL     OW16620   7.664  13.023   5.016
 4908SOL    HW116621   7.736  13.078   5.048
 4908SOL    HW216622   7.585  13.062   5.055
 4909SOL     OW16623  11.133   3.760   8.047
 4909SOL    HW116624  11.054   3.795   8.006
 4909SOL    HW216625  11.199   3.828   8.034
 4910SOL     OW16626  12.066   7.142   0.378
 4910SOL    HW116627  11.981   7.099   0.372
 4910SOL    HW216628  12.087   7.168   0.288
 4911SOL     OW16629   6.932   4.403   2.484
 4911SOL    HW116630   6.855   4.374   2.435
 4911SOL    HW216631   6.897   4.462   2.551
 4912SOL     OW16632  12.074   8.907   8.086
 4912SOL    HW116633  12.049   8.832   8.140
 4912SOL    HW216634  12.017   8.978   8.116
 4913SOL     OW16635   9.245  11.708   8.184
 4913SOL    HW116636   9.206  11.774   8.241
 4913SOL    HW216637   9.218  11.734   8.095
 4914SOL     OW16638   0.005   6.667   3.359
 4914SOL    HW116639   0.085   6.677   3.410
 4914SOL    HW216640   0.029   6.608   3.288
 4915SOL     OW16641  13.016  12.451   7.199
 4915SOL    HW116642  13.101  12.493   7.211
 4915SOL    HW216643  13.037  12.360   7.175
 4916SOL     OW16644   4.659  10.037   7.514
 4916SOL    HW116645   4.677  10.106   7.451
 4916SOL    HW216646   4.696   9.958   7.475
 4917SOL     OW16647  13.039   7.548   1.690
 4917SOL    HW116648  12.995   7.527   1.607
 4917SOL    HW216649  13.077   7.465   1.718
 4918SOL     OW16650   4.838   1.529  10.561
 4918SOL    HW116651   4.838   1.480  10.643
 4918SOL    HW216652   4.860   1.464  10.494
 4919SOL     OW16653   2.384   2.116   7.515
 4919SOL    HW116654   2.414   2.204   7.491
 4919SOL    HW216655   2.464   2.067   7.534
 4920SOL     OW16656   7.076  12.833   5.978
 4920SOL    HW116657   7.152  12.851   5.923
 4920SOL    HW216658   7.007  12.888   5.943
 4921SOL     OW16659  12.670   3.528  14.773
 4921SOL    HW116660  12.715   3.611  14.788
 4921SOL    HW216661  12.577   3.551  14.768
 4922SOL     OW16662  12.031   5.187   9.624
 4922SOL    HW116663  12.125   5.175   9.636
 4922SOL    HW216664  12.023   5.275   9.587
 4923SOL     OW16665   8.623   0.311   8.542
 4923SOL    HW116666   8.573   0.389   8.563
 4923SOL    HW216667   8.671   0.290   8.622
 4924SOL     OW16668  13.185   9.344   9.279
 4924SOL    HW116669  13.233   9.296   9.347
 4924SOL    HW216670  13.129   9.278   9.238
 4925SOL     OW16671   4.988   0.503   2.562
 4925SOL    HW116672   5.056   0.473   2.501
 4925SOL    HW216673   5.004   0.453   2.642
 4926SOL     OW16674   6.877   8.466   9.143
 4926SOL    HW116675   6.866   8.395   9.207
 4926SOL    HW216676   6.942   8.434   9.082
 4927SOL     OW16677   9.296   5.224   5.240
 4927SOL    HW116678   9.213   5.270   5.229
 4927SOL    HW216679   9.271   5.136   5.267
 4928SOL     OW16680  14.545  10.596   4.205
 4928SOL    HW116681  14.598  10.670   4.175
 4928SOL    HW216682  14.576  10.522   4.154
 4929SOL     OW16683   7.115   8.192   7.886
 4929SOL    HW116684   7.099   8.286   7.895
 4929SOL    HW216685   7.159   8.184   7.801
 4930SOL     OW16686   1.303  12.191   3.546
 4930SOL    HW116687   1.236  12.254   3.518
 4930SOL    HW216688   1.288  12.180   3.640
 4931SOL     OW16689   9.262  12.335  12.515
 4931SOL    HW116690   9.209  12.260  12.540
 4931SOL    HW216691   9.321  12.348  12.589
 4932SOL     OW16692   1.002   4.072   4.747
 4932SOL    HW116693   1.020   4.050   4.838
 4932SOL    HW216694   1.083   4.110   4.714
 4933SOL     OW16695   8.711  13.181   7.859
 4933SOL    HW116696   8.687  13.252   7.799
 4933SOL    HW216697   8.778  13.131   7.813
 4934SOL     OW16698   4.431   5.562   5.130
 4934SOL    HW116699   4.417   5.477   5.089
 4934SOL    HW216700   4.460   5.542   5.219
 4935SOL     OW16701   8.760   3.319   1.243
 4935SOL    HW116702   8.800   3.401   1.273
 4935SOL    HW216703   8.666   3.332   1.259
 4936SOL     OW16704   8.535  10.513   9.738
 4936SOL    HW116705   8.580  10.570   9.800
 4936SOL    HW216706   8.467  10.470   9.790
 4937SOL     OW16707   2.463   0.600   8.816
 4937SOL    HW116708   2.519   0.644   8.752
 4937SOL    HW216709   2.404   0.547   8.763
 4938SOL     OW16710   7.038   4.499   4.145
 4938SOL    HW116711   6.964   4.554   4.171
 4938SOL    HW216712   7.001   4.411   4.138
 4939SOL     OW16713   2.499   0.560   9.219
 4939SOL    HW116714   2.543   0.512   9.289
 4939SOL    HW216715   2.568   0.615   9.181
 4940SOL     OW16716  12.320   3.202   3.421
 4940SOL    HW116717  12.394   3.157   3.462
 4940SOL    HW216718  12.353   3.230   3.336
 4941SOL     OW16719   7.697  11.314  11.465
 4941SOL    HW116720   7.603  11.319  11.446
 4941SOL    HW216721   7.719  11.401  11.498
 4942SOL     OW16722   8.032  12.654  13.101
 4942SOL    HW116723   8.007  12.563  13.117
 4942SOL    HW216724   8.066  12.685  13.185
 4943SOL     OW16725  12.113  13.585   9.142
 4943SOL    HW116726  12.158  13.606   9.223
 4943SOL    HW216727  12.123  13.490   9.133
 4944SOL     OW16728   4.647   2.883   0.984
 4944SOL    HW116729   4.706   2.830   0.931
 4944SOL    HW216730   4.602   2.820   1.040
 4945SOL     OW16731   2.146  10.744   9.764
 4945SOL    HW116732   2.207  10.759   9.692
 4945SOL    HW216733   2.172  10.807   9.831
 4946SOL     OW16734   7.186   0.702  10.501
 4946SOL    HW116735   7.268   0.751  10.510
 4946SOL    HW216736   7.144   0.711  10.587
 4947SOL     OW16737  13.405  11.926  13.212
 4947SOL    HW116738  13.380  11.836  13.231
 4947SOL    HW216739  13.425  11.965  13.297
 4948SOL     OW16740  14.590   3.654   4.681
 4948SOL    HW116741  14.579   3.693   4.594
 4948SOL    HW216742  14.501   3.654   4.718
 4949SOL     OW16743   4.311   9.147  10.398
 4949SOL    HW116744   4.374   9.147  10.470
 4949SOL    HW216745   4.321   9.233  10.357
 4950SOL     OW16746   1.288   9.758  13.196
 4950SOL    HW116747   1.320   9.671  13.171
 4950SOL    HW216748   1.225   9.740  13.266
 4951SOL     OW16749   8.535   7.922  10.570
 4951SOL    HW116750   8.525   7.884  10.657
 4951SOL    HW216751   8.529   7.847  10.511
 4952SOL     OW16752   6.266  12.408   1.031
 4952SOL    HW116753   6.348  12.430   1.076
 4952SOL    HW216754   6.270  12.457   0.949
 4953SOL     OW16755   6.712   5.487   4.008
 4953SOL    HW116756   6.718   5.562   3.948
 4953SOL    HW216757   6.775   5.507   4.077
 4954SOL     OW16758   9.715   2.728   7.270
 4954SOL    HW116759   9.649   2.786   7.233
 4954SOL    HW216760   9.666   2.664   7.321
 4955SOL     OW16761   5.415   1.333  12.929
 4955SOL    HW116762   5.392   1.397  12.997
 4955SOL    HW216763   5.340   1.334  12.870
 4956SOL     OW16764   8.857   9.457   6.889
 4956SOL    HW116765   8.932   9.516   6.899
 4956SOL    HW216766   8.788   9.497   6.943
 4957SOL     OW16767   3.918   7.501  10.974
 4957SOL    HW116768   3.828   7.532  10.963
 4957SOL    HW216769   3.964   7.573  11.016
 4958SOL     OW16770  14.641   3.971   3.981
 4958SOL    HW116771  14.578   4.036   3.949
 4958SOL    HW216772  14.726   4.005   3.955
 4959SOL     OW16773   2.590  12.896   3.742
 4959SOL    HW116774   2.673  12.874   3.785
 4959SOL    HW216775   2.573  12.987   3.769
 4960SOL     OW16776  14.690  12.591   3.043
 4960SOL    HW116777  14.692  12.667   3.101
 4960SOL    HW216778  14.718  12.518   3.098
 4961SOL     OW16779   8.352   0.541   6.149
 4961SOL    HW116780   8.288   0.609   6.171
 4961SOL    HW216781   8.386   0.567   6.063
 4962SOL     OW16782   3.626   2.798   1.951
 4962SOL    HW116783   3.559   2.746   1.905
 4962SOL    HW216784   3.577   2.870   1.992
 4963SOL     OW16785   4.087   1.326   0.046
 4963SOL    HW116786   4.006   1.356   0.088
 4963SOL    HW216787   4.126   1.266   0.109
 4964SOL     OW16788  10.655   8.991  13.923
 4964SOL    HW116789  10.660   8.925  13.992
 4964SOL    HW216790  10.744   9.026  13.917
 4965SOL     OW16791   3.033  11.956   0.001
 4965SOL    HW116792   3.066  11.943  14.792
 4965SOL    HW216793   2.990  11.873   0.023
 4966SOL     OW16794   2.209  14.760   2.536
 4966SOL    HW116795   2.157  14.758   2.617
 4966SOL    HW216796   2.146  14.740   2.467
 4967SOL     OW16797   4.868   6.292   1.400
 4967SOL    HW116798   4.828   6.356   1.460
 4967SOL    HW216799   4.959   6.286   1.429
 4968SOL     OW16800   1.673   6.615   4.454
 4968SOL    HW116801   1.701   6.571   4.534
 4968SOL    HW216802   1.577   6.609   4.456
 4969SOL     OW16803   4.891   1.590  11.252
 4969SOL    HW116804   4.935   1.565  11.170
 4969SOL    HW216805   4.955   1.569  11.321
 4970SOL     OW16806   5.914  12.198   7.843
 4970SOL    HW116807   5.985  12.260   7.858
 4970SOL    HW216808   5.909  12.190   7.748
 4971SOL     OW16809   7.080  14.806   9.016
 4971SOL    HW116810   7.113  14.875   9.074
 4971SOL    HW216811   7.021  14.755   9.071
 4972SOL     OW16812   8.112   3.769  14.566
 4972SOL    HW116813   8.196   3.751  14.610
 4972SOL    HW216814   8.128   3.851  14.519
 4973SOL     OW16815   0.561   2.588   6.433
 4973SOL    HW116816   0.536   2.666   6.483
 4973SOL    HW216817   0.523   2.602   6.346
 4974SOL     OW16818  13.467   1.529  13.351
 4974SOL    HW116819  13.540   1.476  13.319
 4974SOL    HW216820  13.506   1.615  13.368
 4975SOL     OW16821   1.604  12.637   9.077
 4975SOL    HW116822   1.684  12.593   9.106
 4975SOL    HW216823   1.631  12.728   9.063
 4976SOL     OW16824  13.689   1.561  10.535
 4976SOL    HW116825  13.707   1.474  10.569
 4976SOL    HW216826  13.599   1.556  10.504
 4977SOL     OW16827   9.420  10.319  11.108
 4977SOL    HW116828   9.504  10.285  11.076
 4977SOL    HW216829   9.358  10.248  11.092
 4978SOL     OW16830   4.717   1.119   5.710
 4978SOL    HW116831   4.810   1.135   5.724
 4978SOL    HW216832   4.703   1.137   5.617
 4979SOL     OW16833   2.576  14.151   6.967
 4979SOL    HW116834   2.503  14.112   7.015
 4979SOL    HW216835   2.616  14.212   7.030
 4980SOL     OW16836   9.395   0.672   6.616
 4980SOL    HW116837   9.424   0.582   6.599
 4980SOL    HW216838   9.447   0.726   6.557
 4981SOL     OW16839  11.856   3.633  10.646
 4981SOL    HW116840  11.898   3.687  10.580
 4981SOL    HW216841  11.902   3.550  10.643
 4982SOL     OW16842   4.917  14.612  13.511
 4982SOL    HW116843   4.864  14.534  13.496
 4982SOL    HW216844   4.977  14.615  13.436
 4983SOL     OW16845   4.605  13.200   8.974
 4983SOL    HW116846   4.576  13.220   9.063
 4983SOL    HW216847   4.525  13.205   8.922
 4984SOL     OW16848   0.216   9.386   3.747
 4984SOL    HW116849   0.242   9.434   3.826
 4984SOL    HW216850   0.130   9.351   3.768
 4985SOL     OW16851  10.010   3.758  10.986
 4985SOL    HW116852  10.016   3.758  10.890
 4985SOL    HW216853  10.051   3.841  11.011
 4986SOL     OW16854   7.892   5.509   3.942
 4986SOL    HW116855   7.974   5.559   3.945
 4986SOL    HW216856   7.918   5.418   3.959
 4987SOL     OW16857   5.358   6.067   0.249
 4987SOL    HW116858   5.278   6.017   0.267
 4987SOL    HW216859   5.427   6.002   0.241
 4988SOL     OW16860   8.129   2.277   9.444
 4988SOL    HW116861   8.093   2.234   9.521
 4988SOL    HW216862   8.187   2.211   9.405
 4989SOL     OW16863   7.494  14.164   8.847
 4989SOL    HW116864   7.524  14.249   8.817
 4989SOL    HW216865   7.497  14.109   8.768
 4990SOL     OW16866  10.360   1.422  14.620
 4990SOL    HW116867  10.365   1.518  14.620
 4990SOL    HW216868  10.390   1.397  14.707
 4991SOL     OW16869   8.911  11.758   4.131
 4991SOL    HW116870   8.992  11.708   4.134
 4991SOL    HW216871   8.851  11.703   4.081
 4992SOL     OW16872  13.989   8.255   9.349
 4992SOL    HW116873  13.940   8.300   9.279
 4992SOL    HW216874  13.935   8.179   9.370
 4993SOL     OW16875  14.267   7.194   6.316
 4993SOL    HW116876  14.216   7.135   6.371
 4993SOL    HW216877  14.236   7.282   6.339
 4994SOL     OW16878   8.856   3.457   5.745
 4994SOL    HW116879   8.881   3.376   5.700
 4994SOL    HW216880   8.853   3.523   5.675
 4995SOL     OW16881  11.454   8.619  11.878
 4995SOL    HW116882  11.507   8.637  11.955
 4995SOL    HW216883  11.400   8.697  11.867
 4996SOL     OW16884   1.171   2.491   4.716
 4996SOL    HW116885   1.234   2.443   4.769
 4996SOL    HW216886   1.209   2.491   4.628
 4997SOL     OW16887   2.080   9.537   3.880
 4997SOL    HW116888   2.144   9.553   3.949
 4997SOL    HW216889   2.132   9.509   3.805
 4998SOL     OW16890  11.103   3.399  13.327
 4998SOL    HW116891  11.185   3.403  13.277
 4998SOL    HW216892  11.119   3.332  13.393
 4999SOL     OW16893   7.840   7.222   9.733
 4999SOL    HW116894   7.835   7.252   9.824
 4999SOL    HW216895   7.774   7.274   9.687
 5000SOL     OW16896   9.882  11.800   4.357
 5000SOL    HW116897   9.897  11.858   4.282
 5000SOL    HW216898   9.794  11.765   4.343
 5001SOL     OW16899   1.326  11.306   9.481
 5001SOL    HW116900   1.294  11.217   9.467
 5001SOL    HW216901   1.410  11.309   9.436
 5002SOL     OW16902   7.761  14.058  10.132
 5002SOL    HW116903   7.688  14.079  10.074
 5002SOL    HW216904   7.721  14.044  10.217
 5003SOL     OW16905   0.025  14.119   7.811
 5003SOL    HW116906  14.852  14.068   7.873
 5003SOL    HW216907  14.877  14.210   7.825
 5004SOL     OW16908   3.278  11.412   0.675
 5004SOL    HW116909   3.250  11.492   0.631
 5004SOL    HW216910   3.289  11.349   0.604
 5005SOL     OW16911   3.909  11.224  14.724
 5005SOL    HW116912   3.824  11.194  14.692
 5005SOL    HW216913   3.897  11.318  14.737
 5006SOL     OW16914   7.373   5.990  10.975
 5006SOL    HW116915   7.343   5.911  11.021
 5006SOL    HW216916   7.468   5.976  10.965
 5007SOL     OW16917   3.486  13.114  11.444
 5007SOL    HW116918   3.449  13.159  11.521
 5007SOL    HW216919   3.543  13.047  11.482
 5008SOL     OW16920   7.130  11.757   8.627
 5008SOL    HW116921   7.205  11.766   8.567
 5008SOL    HW216922   7.059  11.726   8.571
 5009SOL     OW16923   2.425  10.570  13.906
 5009SOL    HW116924   2.390  10.640  13.961
 5009SOL    HW216925   2.477  10.615  13.840
 5010SOL     OW16926   6.353   2.256   8.065
 5010SOL    HW116927   6.369   2.350   8.055
 5010SOL    HW216928   6.337   2.225   7.976
 5011SOL     OW16929   9.706  11.487   3.636
 5011SOL    HW116930   9.736  11.543   3.707
 5011SOL    HW216931   9.764  11.508   3.563
 5012SOL     OW16932  11.764   3.910  11.189
 5012SOL    HW116933  11.708   3.982  11.160
 5012SOL    HW216934  11.783   3.930  11.280
 5013SOL     OW16935  14.709  13.586   1.446
 5013SOL    HW116936  14.615  13.571   1.445
 5013SOL    HW216937  14.725  13.637   1.526
 5014SOL     OW16938   7.531  13.185   2.984
 5014SOL    HW116939   7.446  13.229   2.979
 5014SOL    HW216940   7.540  13.160   3.076
 5015SOL     OW16941   8.431   5.101  12.150
 5015SOL    HW116942   8.408   5.009  12.140
 5015SOL    HW216943   8.447   5.112  12.244
 5016SOL     OW16944  14.180  14.296   0.702
 5016SOL    HW116945  14.239  14.317   0.774
 5016SOL    HW216946  14.229  14.234   0.648
 5017SOL     OW16947   3.264   4.126   9.732
 5017SOL    HW116948   3.325   4.188   9.773
 5017SOL    HW216949   3.260   4.152   9.640
 5018SOL     OW16950   2.525   7.686  10.356
 5018SOL    HW116951   2.570   7.740  10.422
 5018SOL    HW216952   2.536   7.596  10.387
 5019SOL     OW16953  11.159   3.229   7.886
 5019SOL    HW116954  11.234   3.194   7.935
 5019SOL    HW216955  11.159   3.323   7.904
 5020SOL     OW16956   3.633   8.396   2.950
 5020SOL    HW116957   3.543   8.420   2.931
 5020SOL    HW216958   3.632   8.300   2.957
 5021SOL     OW16959  11.590   1.535   9.053
 5021SOL    HW116960  11.562   1.564   8.967
 5021SOL    HW216961  11.536   1.458   9.071
 5022SOL     OW16962   2.956   8.455   7.308
 5022SOL    HW116963   2.888   8.472   7.374
 5022SOL    HW216964   3.037   8.451   7.358
 5023SOL     OW16965   9.041  13.526  12.557
 5023SOL    HW116966   9.135  13.515  12.539
 5023SOL    HW216967   9.026  13.472  12.635
 5024SOL     OW16968  12.633   3.000   3.861
 5024SOL    HW116969  12.720   3.027   3.891
 5024SOL    HW216970  12.650   2.928   3.801
 5025SOL     OW16971   1.795   3.755  12.584
 5025SOL    HW116972   1.845   3.743  12.504
 5025SOL    HW216973   1.832   3.834  12.624
 5026SOL     OW16974   1.262   2.985   3.491
 5026SOL    HW116975   1.195   2.925   3.458
 5026SOL    HW216976   1.303   2.939   3.564
 5027SOL     OW16977   4.815  10.841  12.150
 5027SOL    HW116978   4.890  10.877  12.102
 5027SOL    HW216979   4.818  10.885  12.234
 5028SOL     OW16980   3.169   1.204  10.272
 5028SOL    HW116981   3.077   1.195  10.247
 5028SOL    HW216982   3.196   1.287  10.234
 5029SOL     OW16983  12.929   4.523  14.298
 5029SOL    HW116984  12.995   4.470  14.342
 5029SOL    HW216985  12.932   4.608  14.343
 5030SOL     OW16986  14.425  14.009  12.516
 5030SOL    HW116987  14.341  14.014  12.562
 5030SOL    HW216988  14.484  14.064  12.567
 5031SOL     OW16989  10.311  13.855  14.695
 5031SOL    HW116990  10.400  13.889  14.700
 5031SOL    HW216991  10.320  13.762  14.717
 5032SOL     OW16992   0.499  12.286   2.666
 5032SOL    HW116993   0.589  12.306   2.640
 5032SOL    HW216994   0.447  12.301   2.586
 5033SOL     OW16995   0.903   4.456  10.934
 5033SOL    HW116996   0.854   4.525  10.889
 5033SOL    HW216997   0.906   4.384  10.871
 5034SOL     OW16998   6.775  11.986   7.159
 5034SOL    HW116999   6.760  12.055   7.094
 5034SOL    HW217000   6.694  11.982   7.209
 5035SOL     OW17001  13.584   4.811   3.646
 5035SOL    HW117002  13.595   4.905   3.660
 5035SOL    HW217003  13.673   4.776   3.645
 5036SOL     OW17004   6.626  12.938  13.242
 5036SOL    HW117005   6.665  12.869  13.295
 5036SOL    HW217006   6.623  12.902  13.153
 5037SOL     OW17007   6.751   2.032   6.879
 5037SOL    HW117008   6.818   2.076   6.931
 5037SOL    HW217009   6.767   1.939   6.892
 5038SOL     OW17010  12.468  11.634  13.665
 5038SOL    HW117011  12.498  11.553  13.625
 5038SOL    HW217012  12.508  11.634  13.752
 5039SOL     OW17013  12.510  11.681   3.966
 5039SOL    HW117014  12.524  11.719   4.053
 5039SOL    HW217015  12.557  11.739   3.907
 5040SOL     OW17016  11.375   7.329   2.955
 5040SOL    HW117017  11.405   7.244   2.922
 5040SOL    HW217018  11.330   7.369   2.880
 5041SOL     OW17019   7.820  11.238   9.943
 5041SOL    HW117020   7.865  11.245   9.859
 5041SOL    HW217021   7.782  11.325   9.957
 5042SOL     OW17022   3.124   0.804   3.119
 5042SOL    HW117023   3.134   0.899   3.111
 5042SOL    HW217024   3.213   0.770   3.110
 5043SOL     OW17025   0.608   3.629   4.965
 5043SOL    HW117026   0.573   3.687   4.898
 5043SOL    HW217027   0.676   3.680   5.008
 5044SOL     OW17028  12.449  13.932   7.494
 5044SOL    HW117029  12.451  13.978   7.410
 5044SOL    HW217030  12.445  13.839   7.470
 5045SOL     OW17031   0.615  10.184   9.034
 5045SOL    HW117032   0.637  10.189   8.941
 5045SOL    HW217033   0.669  10.251   9.075
 5046SOL     OW17034  13.385  10.120   5.499
 5046SOL    HW117035  13.439  10.186   5.543
 5046SOL    HW217036  13.431  10.103   5.416
 5047SOL     OW17037   9.638  14.267   1.623
 5047SOL    HW117038   9.641  14.355   1.660
 5047SOL    HW217039   9.729  14.247   1.600
 5048SOL     OW17040  14.152   2.951   3.664
 5048SOL    HW117041  14.099   2.932   3.587
 5048SOL    HW217042  14.089   2.956   3.736
 5049SOL     OW17043   8.171  11.677   5.655
 5049SOL    HW117044   8.185  11.652   5.564
 5049SOL    HW217045   8.245  11.733   5.676
 5050SOL     OW17046   8.147  14.443   9.027
 5050SOL    HW117047   8.142  14.518   8.968
 5050SOL    HW217048   8.070  14.452   9.083
 5051SOL     OW17049   6.852   1.462   6.595
 5051SOL    HW117050   6.852   1.534   6.531
 5051SOL    HW217051   6.805   1.498   6.671
 5052SOL     OW17052  11.666  12.689  12.186
 5052SOL    HW117053  11.620  12.733  12.115
 5052SOL    HW217054  11.618  12.715  12.265
 5053SOL     OW17055  10.999   5.775   8.132
 5053SOL    HW117056  10.910   5.747   8.108
 5053SOL    HW217057  11.022   5.838   8.064
 5054SOL     OW17058  13.726   4.768   3.009
 5054SOL    HW117059  13.741   4.692   3.066
 5054SOL    HW217060  13.692   4.836   3.067
 5055SOL     OW17061   4.179   5.091   4.499
 5055SOL    HW117062   4.257   5.128   4.457
 5055SOL    HW217063   4.109   5.103   4.434
 5056SOL     OW17064  10.462  10.679   5.985
 5056SOL    HW117065  10.418  10.762   6.002
 5056SOL    HW217066  10.524  10.669   6.057
 5057SOL     OW17067  10.635   7.024   0.053
 5057SOL    HW117068  10.705   7.089   0.052
 5057SOL    HW217069  10.655   6.967  14.857
 5058SOL     OW17070  12.132  13.348   3.342
 5058SOL    HW117071  12.039  13.355   3.363
 5058SOL    HW217072  12.146  13.412   3.272
 5059SOL     OW17073   9.762   2.126  10.128
 5059SOL    HW117074   9.685   2.102  10.180
 5059SOL    HW217075   9.764   2.221  10.130
 5060SOL     OW17076   8.005   8.473   0.447
 5060SOL    HW117077   7.964   8.515   0.372
 5060SOL    HW217078   7.933   8.426   0.490
 5061SOL     OW17079   5.662   8.728  10.174
 5061SOL    HW117080   5.651   8.798  10.239
 5061SOL    HW217081   5.575   8.689  10.167
 5062SOL     OW17082  14.746   9.615   1.242
 5062SOL    HW117083  14.778   9.558   1.312
 5062SOL    HW217084  14.701   9.555   1.182
 5063SOL     OW17085   5.193   0.468  13.364
 5063SOL    HW117086   5.263   0.417  13.404
 5063SOL    HW217087   5.126   0.475  13.432
 5064SOL     OW17088  14.859   8.765   9.474
 5064SOL    HW117089  14.835   8.784   9.383
 5064SOL    HW217090  14.822   8.679   9.491
 5065SOL     OW17091   6.113   6.252  12.324
 5065SOL    HW117092   6.150   6.338  12.304
 5065SOL    HW217093   6.156   6.192  12.263
 5066SOL     OW17094  10.113   1.501   9.703
 5066SOL    HW117095  10.102   1.508   9.608
 5066SOL    HW217096  10.064   1.575   9.738
 5067SOL     OW17097  14.025  10.575  13.687
 5067SOL    HW117098  14.037  10.482  13.669
 5067SOL    HW217099  14.034  10.617  13.601
 5068SOL     OW17100   0.112   8.234  10.748
 5068SOL    HW117101   0.152   8.313  10.712
 5068SOL    HW217102   0.021   8.238  10.721
 5069SOL     OW17103   7.178   8.767  13.253
 5069SOL    HW117104   7.105   8.804  13.302
 5069SOL    HW217105   7.242   8.838  13.249
 5070SOL     OW17106   2.857   8.024  12.242
 5070SOL    HW117107   2.935   8.020  12.186
 5070SOL    HW217108   2.858   8.113  12.278
 5071SOL     OW17109  14.659   9.909   2.451
 5071SOL    HW117110  14.602   9.848   2.499
 5071SOL    HW217111  14.651   9.992   2.498
 5072SOL     OW17112   3.881  11.802   0.010
 5072SOL    HW117113   3.961  11.761   0.042
 5072SOL    HW217114   3.822  11.801   0.085
 5073SOL     OW17115  11.099   0.588  11.454
 5073SOL    HW117116  11.047   0.626  11.525
 5073SOL    HW217117  11.094   0.653  11.384
 5074SOL     OW17118   2.553  14.228   3.186
 5074SOL    HW117119   2.479  14.176   3.154
 5074SOL    HW217120   2.512  14.303   3.230
 5075SOL     OW17121   1.454   1.947   6.136
 5075SOL    HW117122   1.469   2.039   6.158
 5075SOL    HW217123   1.541   1.907   6.139
 5076SOL     OW17124   9.972  12.292   4.138
 5076SOL    HW117125   9.940  12.382   4.141
 5076SOL    HW217126   9.968  12.262   4.229
 5077SOL     OW17127   9.606   5.189  13.062
 5077SOL    HW117128   9.588   5.099  13.090
 5077SOL    HW217129   9.665   5.224  13.129
 5078SOL     OW17130  10.195   1.856   3.625
 5078SOL    HW117131  10.165   1.772   3.658
 5078SOL    HW217132  10.179   1.852   3.530
 5079SOL     OW17133  13.420  13.971   2.063
 5079SOL    HW117134  13.390  14.061   2.079
 5079SOL    HW217135  13.374  13.918   2.128
 5080SOL     OW17136  14.307   6.217   5.391
 5080SOL    HW117137  14.314   6.301   5.436
 5080SOL    HW217138  14.390   6.173   5.409
 5081SOL     OW17139   7.549   2.533  12.487
 5081SOL    HW117140   7.456   2.551  12.497
 5081SOL    HW217141   7.554   2.467  12.418
 5082SOL     OW17142  12.559   6.740   2.594
 5082SOL    HW117143  12.549   6.660   2.541
 5082SOL    HW217144  12.490   6.798   2.562
 5083SOL     OW17145   3.002   4.304   2.998
 5083SOL    HW117146   3.069   4.235   3.003
 5083SOL    HW217147   2.964   4.307   3.085
 5084SOL     OW17148   6.102  13.896  12.760
 5084SOL    HW117149   6.038  13.900  12.831
 5084SOL    HW217150   6.054  13.858  12.686
 5085SOL     OW17151   6.527  13.286   0.567
 5085SOL    HW117152   6.528  13.380   0.584
 5085SOL    HW217153   6.596  13.251   0.624
 5086SOL     OW17154   3.516  13.644   6.784
 5086SOL    HW117155   3.594  13.653   6.839
 5086SOL    HW217156   3.488  13.553   6.797
 5087SOL     OW17157  12.780   6.049   7.761
 5087SOL    HW117158  12.730   5.994   7.821
 5087SOL    HW217159  12.864   6.064   7.806
 5088SOL     OW17160   9.758   7.372   5.967
 5088SOL    HW117161   9.841   7.328   5.951
 5088SOL    HW217162   9.701   7.305   6.003
 5089SOL     OW17163   5.870   7.744   8.867
 5089SOL    HW117164   5.893   7.698   8.787
 5089SOL    HW217165   5.802   7.690   8.908
 5090SOL     OW17166   7.578   8.231   9.090
 5090SOL    HW117167   7.554   8.139   9.100
 5090SOL    HW217168   7.636   8.249   9.164
 5091SOL     OW17169   0.480   1.031  10.354
 5091SOL    HW117170   0.489   1.036  10.259
 5091SOL    HW217171   0.385   1.028  10.369
 5092SOL     OW17172   4.230   9.559   6.909
 5092SOL    HW117173   4.321   9.588   6.903
 5092SOL    HW217174   4.192   9.611   6.979
 5093SOL     OW17175  14.260   3.774  10.777
 5093SOL    HW117176  14.328   3.752  10.714
 5093SOL    HW217177  14.307   3.785  10.860
 5094SOL     OW17178   2.226   6.582  10.267
 5094SOL    HW117179   2.185   6.515  10.212
 5094SOL    HW217180   2.176   6.662  10.248
 5095SOL     OW17181  11.030   8.992   0.881
 5095SOL    HW117182  11.085   9.023   0.953
 5095SOL    HW217183  11.032   9.063   0.817
 5096SOL     OW17184  14.301   5.314  12.444
 5096SOL    HW117185  14.369   5.381  12.435
 5096SOL    HW217186  14.250   5.320  12.363
 5097SOL     OW17187   0.473   0.902   7.138
 5097SOL    HW117188   0.402   0.842   7.162
 5097SOL    HW217189   0.485   0.957   7.216
 5098SOL     OW17190  11.204   6.849   1.049
 5098SOL    HW117191  11.258   6.820   1.122
 5098SOL    HW217192  11.245   6.930   1.019
 5099SOL     OW17193   7.827  12.308   0.449
 5099SOL    HW117194   7.820  12.379   0.513
 5099SOL    HW217195   7.874  12.347   0.375
 5100SOL     OW17196  12.559   4.173  11.574
 5100SOL    HW117197  12.625   4.189  11.507
 5100SOL    HW217198  12.476   4.181  11.527
 5101SOL     OW17199  12.817  10.056  10.775
 5101SOL    HW117200  12.907  10.040  10.745
 5101SOL    HW217201  12.797   9.982  10.832
 5102SOL     OW17202   4.724   5.290   4.197
 5102SOL    HW117203   4.642   5.244   4.179
 5102SOL    HW217204   4.732   5.354   4.126
 5103SOL     OW17205   2.296   0.125   3.767
 5103SOL    HW117206   2.386   0.125   3.735
 5103SOL    HW217207   2.281   0.216   3.794
 5104SOL     OW17208   4.852   6.453   1.142
 5104SOL    HW117209   4.946   6.453   1.158
 5104SOL    HW217210   4.813   6.433   1.227
 5105SOL     OW17211  14.180   4.398   3.578
 5105SOL    HW117212  14.095   4.432   3.551
 5105SOL    HW217213  14.170   4.303   3.575
 5106SOL     OW17214   5.057   6.614   6.947
 5106SOL    HW117215   5.142   6.579   6.923
 5106SOL    HW217216   5.013   6.632   6.864
 5107SOL     OW17217   8.436   1.034  14.311
 5107SOL    HW117218   8.359   1.069  14.266
 5107SOL    HW217219   8.433   1.074  14.398
 5108SOL     OW17220   2.638   8.528  10.175
 5108SOL    HW117221   2.568   8.561  10.119
 5108SOL    HW217222   2.602   8.531  10.264
 5109SOL     OW17223   2.558   3.684   9.070
 5109SOL    HW117224   2.521   3.727   9.147
 5109SOL    HW217225   2.500   3.609   9.055
 5110SOL     OW17226   0.176   7.877  13.833
 5110SOL    HW117227   0.088   7.888  13.798
 5110SOL    HW217228   0.195   7.961  13.875
 5111SOL     OW17229   3.714  10.953   0.204
 5111SOL    HW117230   3.808  10.936   0.211
 5111SOL    HW217231   3.708  11.048   0.193
 5112SOL     OW17232   4.803   9.613  10.406
 5112SOL    HW117233   4.888   9.656  10.395
 5112SOL    HW217234   4.765   9.611  10.318
 5113SOL     OW17235   0.252   9.022   6.049
 5113SOL    HW117236   0.297   9.096   6.009
 5113SOL    HW217237   0.213   8.975   5.975
 5114SOL     OW17238   9.763  14.071   5.477
 5114SOL    HW117239   9.806  14.113   5.552
 5114SOL    HW217240   9.678  14.115   5.470
 5115SOL     OW17241  10.764   1.249  13.601
 5115SOL    HW117242  10.757   1.266  13.695
 5115SOL    HW217243  10.683   1.286  13.564
 5116SOL     OW17244   0.816  12.457  12.650
 5116SOL    HW117245   0.817  12.362  12.639
 5116SOL    HW217246   0.819  12.492  12.561
 5117SOL     OW17247   4.191   4.354   1.666
 5117SOL    HW117248   4.216   4.437   1.708
 5117SOL    HW217249   4.134   4.380   1.594
 5118SOL     OW17250   2.523   3.615   5.573
 5118SOL    HW117251   2.427   3.618   5.580
 5118SOL    HW217252   2.553   3.615   5.664
 5119SOL     OW17253   7.973  10.399   4.840
 5119SOL    HW117254   8.020  10.336   4.785
 5119SOL    HW217255   7.993  10.372   4.930
 5120SOL     OW17256   9.217   2.430  12.560
 5120SOL    HW117257   9.307   2.463  12.564
 5120SOL    HW217258   9.183   2.443  12.648
 5121SOL     OW17259   0.507   7.454   4.517
 5121SOL    HW117260   0.505   7.398   4.440
 5121SOL    HW217261   0.600   7.468   4.534
 5122SOL     OW17262   7.960   0.660  13.716
 5122SOL    HW117263   7.939   0.751  13.694
 5122SOL    HW217264   7.981   0.662  13.809
 5123SOL     OW17265   7.422   8.502   3.412
 5123SOL    HW117266   7.381   8.538   3.491
 5123SOL    HW217267   7.504   8.463   3.444
 5124SOL     OW17268  11.887   4.704  12.138
 5124SOL    HW117269  11.859   4.710  12.229
 5124SOL    HW217270  11.894   4.610  12.121
 5125SOL     OW17271   7.083   0.948   1.541
 5125SOL    HW117272   7.112   0.862   1.570
 5125SOL    HW217273   7.028   0.981   1.612
 5126SOL     OW17274   1.785   3.234   1.469
 5126SOL    HW117275   1.802   3.244   1.562
 5126SOL    HW217276   1.817   3.146   1.448
 5127SOL     OW17277   5.800  12.316   8.061
 5127SOL    HW117278   5.776  12.406   8.040
 5127SOL    HW217279   5.830  12.278   7.978
 5128SOL     OW17280  13.262  10.632   2.203
 5128SOL    HW117281  13.342  10.608   2.157
 5128SOL    HW217282  13.215  10.689   2.142
 5129SOL     OW17283   0.598  11.555   8.388
 5129SOL    HW117284   0.661  11.531   8.320
 5129SOL    HW217285   0.576  11.646   8.369
 5130SOL     OW17286   4.724   0.721   8.119
 5130SOL    HW117287   4.647   0.771   8.094
 5130SOL    HW217288   4.776   0.714   8.039
 5131SOL     OW17289  14.005   7.660  13.683
 5131SOL    HW117290  13.935   7.626  13.627
 5131SOL    HW217291  14.085   7.628  13.642
 5132SOL     OW17292   9.935   1.158  11.295
 5132SOL    HW117293   9.861   1.189  11.346
 5132SOL    HW217294   9.995   1.233  11.290
 5133SOL     OW17295  10.194   7.626   2.335
 5133SOL    HW117296  10.178   7.533   2.354
 5133SOL    HW217297  10.107   7.664   2.322
 5134SOL     OW17298  11.738   5.199   7.270
 5134SOL    HW117299  11.777   5.122   7.312
 5134SOL    HW217300  11.754   5.186   7.176
 5135SOL     OW17301   3.713  14.222   9.801
 5135SOL    HW117302   3.764  14.151   9.763
 5135SOL    HW217303   3.677  14.269   9.726
 5136SOL     OW17304  14.744   9.357   0.406
 5136SOL    HW117305  14.666   9.325   0.452
 5136SOL    HW217306  14.729   9.333   0.314
 5137SOL     OW17307   0.148  14.446  12.767
 5137SOL    HW117308   0.111  14.456  12.680
 5137SOL    HW217309   0.157  14.535  12.800
 5138SOL     OW17310  14.010   8.090   0.751
 5138SOL    HW117311  13.980   8.025   0.687
 5138SOL    HW217312  13.929   8.125   0.788
 5139SOL     OW17313   9.807  13.863  12.973
 5139SOL    HW117314   9.901  13.879  12.973
 5139SOL    HW217315   9.783  13.857  12.881
 5140SOL     OW17316  12.923  14.372   7.992
 5140SOL    HW117317  12.858  14.439   7.974
 5140SOL    HW217318  12.938  14.377   8.087
 5141SOL     OW17319   8.295   0.901   8.009
 5141SOL    HW117320   8.391   0.898   8.010
 5141SOL    HW217321   8.274   0.993   7.990
 5142SOL     OW17322   6.507  12.273   0.826
 5142SOL    HW117323   6.497  12.365   0.852
 5142SOL    HW217324   6.573  12.275   0.756
 5143SOL     OW17325   2.475  12.856  14.415
 5143SOL    HW117326   2.470  12.934  14.470
 5143SOL    HW217327   2.431  12.880  14.334
 5144SOL     OW17328   8.639   0.337   9.024
 5144SOL    HW117329   8.565   0.305   9.077
 5144SOL    HW217330   8.626   0.296   8.938
 5145SOL     OW17331  14.446  12.173   6.527
 5145SOL    HW117332  14.517  12.127   6.482
 5145SOL    HW217333  14.490  12.233   6.587
 5146SOL     OW17334   9.110  13.279   2.095
 5146SOL    HW117335   9.108  13.267   2.000
 5146SOL    HW217336   9.022  13.253   2.124
 5147SOL     OW17337  14.074   5.270   3.205
 5147SOL    HW117338  14.131   5.324   3.151
 5147SOL    HW217339  14.091   5.301   3.295
 5148SOL     OW17340   2.138   9.185   7.146
 5148SOL    HW117341   2.137   9.250   7.076
 5148SOL    HW217342   2.226   9.192   7.183
 5149SOL     OW17343   9.984   6.412   6.170
 5149SOL    HW117344   9.939   6.482   6.122
 5149SOL    HW217345   9.970   6.433   6.262
 5150SOL     OW17346  10.552   8.011  14.071
 5150SOL    HW117347  10.632   8.044  14.031
 5150SOL    HW217348  10.573   7.921  14.097
 5151SOL     OW17349   6.760  13.848  10.365
 5151SOL    HW117350   6.751  13.787  10.292
 5151SOL    HW217351   6.688  13.910  10.354
 5152SOL     OW17352   2.037  10.163   1.643
 5152SOL    HW117353   2.050  10.071   1.666
 5152SOL    HW217354   1.950  10.166   1.604
 5153SOL     OW17355   9.362   4.973  12.311
 5153SOL    HW117356   9.308   4.894  12.304
 5153SOL    HW217357   9.415   4.973  12.231
 5154SOL     OW17358   4.166   3.460   5.825
 5154SOL    HW117359   4.153   3.548   5.789
 5154SOL    HW217360   4.091   3.448   5.884
 5155SOL     OW17361   5.861   6.618  11.422
 5155SOL    HW117362   5.903   6.651  11.501
 5155SOL    HW217363   5.868   6.689  11.359
 5156SOL     OW17364  14.435   9.731  10.510
 5156SOL    HW117365  14.515   9.737  10.457
 5156SOL    HW217366  14.366   9.763  10.452
 5157SOL     OW17367   7.407   3.967   7.149
 5157SOL    HW117368   7.494   3.953   7.187
 5157SOL    HW217369   7.423   3.970   7.054
 5158SOL     OW17370   8.792   6.209  13.324
 5158SOL    HW117371   8.763   6.189  13.235
 5158SOL    HW217372   8.723   6.175  13.381
 5159SOL     OW17373   4.925  11.875   5.966
 5159SOL    HW117374   4.837  11.841   5.979
 5159SOL    HW217375   4.926  11.958   6.014
 5160SOL     OW17376  12.158   1.157  12.339
 5160SOL    HW117377  12.134   1.236  12.291
 5160SOL    HW217378  12.108   1.162  12.420
 5161SOL     OW17379  14.047  13.024  12.098
 5161SOL    HW117380  13.990  12.949  12.079
 5161SOL    HW217381  14.111  13.024  12.026
 5162SOL     OW17382   7.097   0.078   3.677
 5162SOL    HW117383   7.117   0.169   3.696
 5162SOL    HW217384   7.062   0.078   3.588
 5163SOL     OW17385  13.062   4.551   1.223
 5163SOL    HW117386  13.046   4.619   1.289
 5163SOL    HW217387  13.154   4.561   1.199
 5164SOL     OW17388  11.953   3.397   2.116
 5164SOL    HW117389  11.955   3.388   2.212
 5164SOL    HW217390  12.031   3.448   2.096
 5165SOL     OW17391   2.059   2.199  12.103
 5165SOL    HW117392   2.131   2.187  12.165
 5165SOL    HW217393   2.086   2.150  12.025
 5166SOL     OW17394   5.000  12.757   0.773
 5166SOL    HW117395   4.926  12.697   0.762
 5166SOL    HW217396   4.990  12.792   0.861
 5167SOL     OW17397   7.390   1.061  12.699
 5167SOL    HW117398   7.391   1.120  12.775
 5167SOL    HW217399   7.378   1.118  12.624
 5168SOL     OW17400   1.762   2.324   0.590
 5168SOL    HW117401   1.702   2.259   0.627
 5168SOL    HW217402   1.716   2.407   0.599
 5169SOL     OW17403  11.617   1.571   4.228
 5169SOL    HW117404  11.679   1.549   4.297
 5169SOL    HW217405  11.651   1.653   4.191
 5170SOL     OW17406  12.793   7.171  14.522
 5170SOL    HW117407  12.802   7.099  14.459
 5170SOL    HW217408  12.871   7.165  14.576
 5171SOL     OW17409  13.436   2.811   2.829
 5171SOL    HW117410  13.381   2.858   2.891
 5171SOL    HW217411  13.451   2.726   2.870
 5172SOL     OW17412   5.650  12.513  12.171
 5172SOL    HW117413   5.674  12.445  12.109
 5172SOL    HW217414   5.666  12.595  12.125
 5173SOL     OW17415   8.388   9.106  10.665
 5173SOL    HW117416   8.345   9.025  10.638
 5173SOL    HW217417   8.477   9.099  10.631
 5174SOL     OW17418   3.026   4.986   6.478
 5174SOL    HW117419   2.992   5.070   6.508
 5174SOL    HW217420   3.095   4.964   6.541
 5175SOL     OW17421   6.398   2.801  10.282
 5175SOL    HW117422   6.488   2.787  10.311
 5175SOL    HW217423   6.406   2.858  10.205
 5176SOL     OW17424   8.024  12.341   6.778
 5176SOL    HW117425   8.042  12.309   6.690
 5176SOL    HW217426   8.065  12.427   6.783
 5177SOL     OW17427   5.375  11.151   4.338
 5177SOL    HW117428   5.454  11.108   4.372
 5177SOL    HW217429   5.304  11.094   4.367
 5178SOL     OW17430  10.202   8.915  13.661
 5178SOL    HW117431  10.121   8.916  13.609
 5178SOL    HW217432  10.272   8.910  13.596
 5179SOL     OW17433   6.638   1.428  12.683
 5179SOL    HW117434   6.579   1.354  12.697
 5179SOL    HW217435   6.677   1.445  12.769
 5180SOL     OW17436   9.015   1.200   6.569
 5180SOL    HW117437   8.981   1.285   6.543
 5180SOL    HW217438   9.049   1.213   6.658
 5181SOL     OW17439  10.003   0.600  14.512
 5181SOL    HW117440   9.940   0.533  14.485
 5181SOL    HW217441   9.961   0.643  14.586
 5182SOL     OW17442  11.431   7.544  10.492
 5182SOL    HW117443  11.430   7.607  10.420
 5182SOL    HW217444  11.353   7.491  10.479
 5183SOL     OW17445  10.059  12.825   8.161
 5183SOL    HW117446  10.001  12.761   8.201
 5183SOL    HW217447  10.095  12.780   8.084
 5184SOL     OW17448   4.506  13.019  13.231
 5184SOL    HW117449   4.574  12.996  13.167
 5184SOL    HW217450   4.470  12.935  13.258
 5185SOL     OW17451  10.514   6.483   4.307
 5185SOL    HW117452  10.533   6.574   4.287
 5185SOL    HW217453  10.448   6.488   4.376
 5186SOL     OW17454   1.870   5.750   3.597
 5186SOL    HW117455   1.843   5.768   3.507
 5186SOL    HW217456   1.916   5.667   3.592
 5187SOL     OW17457   0.496   0.666   7.335
 5187SOL    HW117458   0.580   0.697   7.302
 5187SOL    HW217459   0.513   0.642   7.427
 5188SOL     OW17460   0.277   4.213   8.756
 5188SOL    HW117461   0.258   4.287   8.699
 5188SOL    HW217462   0.366   4.230   8.789
 5189SOL     OW17463  10.094   4.140   0.089
 5189SOL    HW117464  10.041   4.061   0.076
 5189SOL    HW217465  10.159   4.115   0.155
 5190SOL     OW17466  10.353   4.451   1.336
 5190SOL    HW117467  10.357   4.396   1.414
 5190SOL    HW217468  10.363   4.390   1.263
 5191SOL     OW17469   4.155   8.739   8.689
 5191SOL    HW117470   4.233   8.683   8.695
 5191SOL    HW217471   4.106   8.703   8.614
 5192SOL     OW17472   8.452  14.843   5.910
 5192SOL    HW117473   8.523   0.027   5.926
 5192SOL    HW217474   8.383  14.869   5.971
 5193SOL     OW17475   9.913  10.792  10.436
 5193SOL    HW117476   9.823  10.764  10.452
 5193SOL    HW217477   9.967  10.720  10.469
 5194SOL     OW17478   0.131   8.740  11.855
 5194SOL    HW117479   0.084   8.763  11.775
 5194SOL    HW217480   0.172   8.656  11.835
 5195SOL     OW17481   0.669   8.167   5.884
 5195SOL    HW117482   0.677   8.075   5.911
 5195SOL    HW217483   0.619   8.163   5.802
 5196SOL     OW17484   1.497  14.378  11.537
 5196SOL    HW117485   1.542  14.297  11.516
 5196SOL    HW217486   1.502  14.385  11.632
 5197SOL     OW17487   5.221  12.262   3.457
 5197SOL    HW117488   5.155  12.259   3.387
 5197SOL    HW217489   5.170  12.272   3.537
 5198SOL     OW17490   2.285  10.982   3.210
 5198SOL    HW117491   2.234  10.971   3.290
 5198SOL    HW217492   2.276  11.074   3.187
 5199SOL     OW17493   6.132   4.972   1.914
 5199SOL    HW117494   6.134   5.011   1.826
 5199SOL    HW217495   6.224   4.963   1.939
 5200SOL     OW17496   1.283   2.210   6.860
 5200SOL    HW117497   1.266   2.303   6.845
 5200SOL    HW217498   1.275   2.169   6.774
 5201SOL     OW17499  14.534   7.246   0.666
 5201SOL    HW117500  14.528   7.168   0.721
 5201SOL    HW217501  14.492   7.314   0.718
 5202SOL     OW17502   5.917  14.031  11.948
 5202SOL    HW117503   5.970  14.102  11.913
 5202SOL    HW217504   5.831  14.042  11.908
 5203SOL     OW17505  14.203  11.317  10.094
 5203SOL    HW117506  14.229  11.408  10.078
 5203SOL    HW217507  14.187  11.313  10.188
 5204SOL     OW17508  12.368   9.859   0.597
 5204SOL    HW117509  12.305   9.787   0.589
 5204SOL    HW217510  12.439   9.823   0.651
 5205SOL     OW17511   6.789   8.156  14.330
 5205SOL    HW117512   6.883   8.143  14.343
 5205SOL    HW217513   6.773   8.129  14.239
 5206SOL     OW17514   9.809   0.480   2.428
 5206SOL    HW117515   9.833   0.408   2.486
 5206SOL    HW217516   9.773   0.437   2.350
 5207SOL     OW17517   2.153   1.188   2.629
 5207SOL    HW117518   2.249   1.195   2.633
 5207SOL    HW217519   2.128   1.153   2.715
 5208SOL     OW17520   5.665   2.850   2.680
 5208SOL    HW117521   5.625   2.874   2.597
 5208SOL    HW217522   5.680   2.933   2.725
 5209SOL     OW17523   6.490  10.576  14.047
 5209SOL    HW117524   6.520  10.522  14.120
 5209SOL    HW217525   6.432  10.640  14.087
 5210SOL     OW17526   8.064  10.411   6.856
 5210SOL    HW117527   8.123  10.364   6.796
 5210SOL    HW217528   7.997  10.448   6.799
 5211SOL     OW17529   8.387   0.414   7.826
 5211SOL    HW117530   8.351   0.346   7.770
 5211SOL    HW217531   8.419   0.481   7.766
 5212SOL     OW17532   4.399   8.550   8.648
 5212SOL    HW117533   4.486   8.532   8.611
 5212SOL    HW217534   4.340   8.492   8.600
 5213SOL     OW17535   2.958  14.782   4.813
 5213SOL    HW117536   2.877  14.808   4.856
 5213SOL    HW217537   3.020  14.768   4.885
 5214SOL     OW17538   8.962  12.001   1.428
 5214SOL    HW117539   9.016  12.072   1.392
 5214SOL    HW217540   8.889  12.047   1.471
 5215SOL     OW17541   7.246  11.235   0.803
 5215SOL    HW117542   7.271  11.202   0.717
 5215SOL    HW217543   7.175  11.297   0.786
 5216SOL     OW17544  13.210   6.313  12.801
 5216SOL    HW117545  13.205   6.356  12.887
 5216SOL    HW217546  13.123   6.325  12.763
 5217SOL     OW17547   8.960   5.255  10.500
 5217SOL    HW117548   9.014   5.334  10.502
 5217SOL    HW217549   8.873   5.285  10.523
 5218SOL     OW17550  14.238  11.147   6.222
 5218SOL    HW117551  14.196  11.203   6.157
 5218SOL    HW217552  14.225  11.058   6.188
 5219SOL     OW17553   4.289   3.391  14.875
 5219SOL    HW117554   4.378   3.367  14.848
 5219SOL    HW217555   4.252   3.309   0.028
 5220SOL     OW17556   0.034  12.044   6.459
 5220SOL    HW117557   0.087  12.096   6.519
 5220SOL    HW217558   0.036  11.956   6.496
 5221SOL     OW17559   6.130   5.914   9.611
 5221SOL    HW117560   6.071   5.944   9.679
 5221SOL    HW217561   6.115   5.820   9.605
 5222SOL     OW17562  13.141   4.972   5.822
 5222SOL    HW117563  13.122   4.921   5.744
 5222SOL    HW217564  13.234   4.958   5.838
 5223SOL     OW17565   1.340   9.112  13.039
 5223SOL    HW117566   1.372   9.130  12.951
 5223SOL    HW217567   1.245   9.124  13.032
 5224SOL     OW17568   2.563   5.663   5.121
 5224SOL    HW117569   2.529   5.632   5.037
 5224SOL    HW217570   2.627   5.597   5.147
 5225SOL     OW17571   0.907   5.233   7.895
 5225SOL    HW117572   0.859   5.152   7.875
 5225SOL    HW217573   0.847   5.283   7.949
 5226SOL     OW17574  13.217  11.557  12.338
 5226SOL    HW117575  13.125  11.574  12.320
 5226SOL    HW217576  13.244  11.496  12.269
 5227SOL     OW17577  14.488   4.090  10.705
 5227SOL    HW117578  14.407   4.045  10.683
 5227SOL    HW217579  14.548   4.068  10.633
 5228SOL     OW17580  14.367   5.463   8.274
 5228SOL    HW117581  14.332   5.498   8.192
 5228SOL    HW217582  14.365   5.368   8.263
 5229SOL     OW17583  13.369  12.661   5.937
 5229SOL    HW117584  13.418  12.686   5.859
 5229SOL    HW217585  13.307  12.596   5.906
 5230SOL     OW17586   0.419   6.714   4.706
 5230SOL    HW117587   0.446   6.804   4.725
 5230SOL    HW217588   0.401   6.677   4.793
 5231SOL     OW17589  13.256   6.486   7.451
 5231SOL    HW117590  13.266   6.522   7.363
 5231SOL    HW217591  13.174   6.523   7.484
 5232SOL     OW17592   7.859  11.370   2.788
 5232SOL    HW117593   7.895  11.293   2.742
 5232SOL    HW217594   7.849  11.436   2.719
 5233SOL     OW17595   5.735   7.989   1.313
 5233SOL    HW117596   5.683   7.963   1.237
 5233SOL    HW217597   5.822   8.007   1.278
 5234SOL     OW17598   3.725   3.005  14.831
 5234SOL    HW117599   3.711   2.912  14.846
 5234SOL    HW217600   3.820   3.016  14.834
 5235SOL     OW17601  12.392  13.663  12.790
 5235SOL    HW117602  12.434  13.598  12.733
 5235SOL    HW217603  12.428  13.747  12.761
 5236SOL     OW17604  12.490   9.798   5.659
 5236SOL    HW117605  12.582   9.788   5.634
 5236SOL    HW217606  12.450   9.839   5.582
 5237SOL     OW17607   3.565   5.207  11.124
 5237SOL    HW117608   3.555   5.131  11.181
 5237SOL    HW217609   3.478   5.247  11.123
 5238SOL     OW17610  13.889   5.636  13.274
 5238SOL    HW117611  13.933   5.631  13.189
 5238SOL    HW217612  13.959   5.622  13.338
 5239SOL     OW17613  10.902   6.505   2.022
 5239SOL    HW117614  10.953   6.494   1.942
 5239SOL    HW217615  10.940   6.442   2.083
 5240SOL     OW17616  14.340   4.820   0.782
 5240SOL    HW117617  14.310   4.731   0.763
 5240SOL    HW217618  14.274   4.854   0.843
 5241SOL     OW17619  14.667  14.533   4.609
 5241SOL    HW117620  14.581  14.491   4.606
 5241SOL    HW217621  14.718  14.488   4.542
 5242SOL     OW17622   8.348   6.305  14.773
 5242SOL    HW117623   8.358   6.399  14.787
 5242SOL    HW217624   8.358   6.292  14.679
 5243SOL     OW17625   5.468   9.970   2.475
 5243SOL    HW117626   5.542   9.991   2.419
 5243SOL    HW217627   5.473   9.875   2.488
 5244SOL     OW17628   5.624  10.296   4.724
 5244SOL    HW117629   5.534  10.286   4.693
 5244SOL    HW217630   5.664  10.211   4.707
 5245SOL     OW17631   2.310   7.269   6.666
 5245SOL    HW117632   2.281   7.183   6.696
 5245SOL    HW217633   2.346   7.254   6.579
 5246SOL     OW17634   8.864  11.237   2.521
 5246SOL    HW117635   8.937  11.241   2.583
 5246SOL    HW217636   8.901  11.269   2.439
 5247SOL     OW17637  13.835   3.289   4.679
 5247SOL    HW117638  13.829   3.205   4.725
 5247SOL    HW217639  13.765   3.342   4.716
 5248SOL     OW17640   3.659   7.203   1.737
 5248SOL    HW117641   3.587   7.163   1.689
 5248SOL    HW217642   3.622   7.225   1.823
 5249SOL     OW17643   7.435   9.863   3.015
 5249SOL    HW117644   7.389   9.782   3.036
 5249SOL    HW217645   7.373   9.913   2.961
 5250SOL     OW17646  11.832   9.187   7.271
 5250SOL    HW117647  11.777   9.111   7.292
 5250SOL    HW217648  11.871   9.212   7.355
 5251SOL     OW17649   0.778   8.616   2.149
 5251SOL    HW117650   0.746   8.535   2.108
 5251SOL    HW217651   0.780   8.679   2.077
 5252SOL     OW17652   3.710   4.468   3.322
 5252SOL    HW117653   3.742   4.541   3.270
 5252SOL    HW217654   3.633   4.436   3.274
 5253SOL     OW17655   7.001  10.296   5.403
 5253SOL    HW117656   6.958  10.300   5.489
 5253SOL    HW217657   6.955  10.362   5.351
 5254SOL     OW17658  13.020   9.356   2.310
 5254SOL    HW117659  13.034   9.403   2.393
 5254SOL    HW217660  13.108   9.332   2.281
 5255SOL     OW17661   2.005   8.436  14.005
 5255SOL    HW117662   1.957   8.498  13.951
 5255SOL    HW217663   2.022   8.361  13.948
 5256SOL     OW17664  14.132   6.174   5.728
 5256SOL    HW117665  14.096   6.252   5.685
 5256SOL    HW217666  14.215   6.158   5.683
 5257SOL     OW17667  13.988   9.601   0.812
 5257SOL    HW117668  13.907   9.560   0.784
 5257SOL    HW217669  14.002   9.672   0.749
 5258SOL     OW17670   8.939   9.582   4.136
 5258SOL    HW117671   8.852   9.609   4.164
 5258SOL    HW217672   8.934   9.579   4.040
 5259SOL     OW17673  11.925  14.291   2.707
 5259SOL    HW117674  11.996  14.267   2.648
 5259SOL    HW217675  11.938  14.384   2.725
 5260SOL     OW17676  10.313   0.363   0.035
 5260SOL    HW117677  10.382   0.303   0.007
 5260SOL    HW217678  10.324   0.371   0.130
 5261SOL     OW17679  13.072   2.983   3.903
 5261SOL    HW117680  12.999   3.034   3.937
 5261SOL    HW217681  13.143   2.999   3.965
 5262SOL     OW17682   1.294   1.169   2.714
 5262SOL    HW117683   1.275   1.118   2.793
 5262SOL    HW217684   1.217   1.156   2.658
 5263SOL     OW17685  11.628   8.997   7.696
 5263SOL    HW117686  11.632   9.060   7.624
 5263SOL    HW217687  11.556   9.029   7.751
 5264SOL     OW17688   1.319  12.409   5.954
 5264SOL    HW117689   1.254  12.454   5.901
 5264SOL    HW217690   1.359  12.478   6.007
 5265SOL     OW17691  13.814   1.991  10.597
 5265SOL    HW117692  13.887   1.970  10.539
 5265SOL    HW217693  13.744   2.018  10.538
 5266SOL     OW17694  13.891   6.677   3.671
 5266SOL    HW117695  13.897   6.725   3.589
 5266SOL    HW217696  13.891   6.585   3.645
 5267SOL     OW17697  10.137  14.144   0.462
 5267SOL    HW117698  10.165  14.117   0.549
 5267SOL    HW217699  10.217  14.180   0.422
 5268SOL     OW17700   9.991   8.970   7.351
 5268SOL    HW117701   9.983   8.884   7.310
 5268SOL    HW217702  10.077   8.970   7.393
 5269SOL     OW17703   4.586  10.561  12.684
 5269SOL    HW117704   4.507  10.533  12.638
 5269SOL    HW217705   4.554  10.598  12.766
 5270SOL     OW17706   1.516  10.276  12.836
 5270SOL    HW117707   1.508  10.364  12.798
 5270SOL    HW217708   1.607  10.271  12.865
 5271SOL     OW17709  12.328   8.975   0.593
 5271SOL    HW117710  12.272   8.965   0.516
 5271SOL    HW217711  12.322   8.890   0.638
 5272SOL     OW17712  12.346   3.693   3.031
 5272SOL    HW117713  12.279   3.754   3.062
 5272SOL    HW217714  12.299   3.612   3.014
 5273SOL     OW17715   9.237  12.841   3.887
 5273SOL    HW117716   9.272  12.876   3.806
 5273SOL    HW217717   9.142  12.838   3.874
 5274SOL     OW17718   1.777   9.487   4.914
 5274SOL    HW117719   1.819   9.486   5.000
 5274SOL    HW217720   1.754   9.395   4.898
 5275SOL     OW17721  11.060   9.917  12.311
 5275SOL    HW117722  11.107   9.957  12.238
 5275SOL    HW217723  10.978   9.966  12.315
 5276SOL     OW17724  10.943   7.087   6.810
 5276SOL    HW117725  10.880   7.062   6.742
 5276SOL    HW217726  10.937   7.183   6.814
 5277SOL     OW17727   8.271   4.855   8.977
 5277SOL    HW117728   8.257   4.774   9.027
 5277SOL    HW217729   8.365   4.861   8.965
 5278SOL     OW17730  11.318   1.318   5.009
 5278SOL    HW117731  11.286   1.407   4.996
 5278SOL    HW217732  11.347   1.289   4.923
 5279SOL     OW17733  10.635   3.683   2.706
 5279SOL    HW117734  10.679   3.654   2.626
 5279SOL    HW217735  10.542   3.676   2.686
 5280SOL     OW17736   0.151   8.041   7.322
 5280SOL    HW117737   0.243   8.036   7.298
 5280SOL    HW217738   0.151   8.076   7.411
 5281SOL     OW17739   8.787   8.186   0.946
 5281SOL    HW117740   8.832   8.264   0.912
 5281SOL    HW217741   8.832   8.167   1.029
 5282SOL     OW17742  13.728   1.131   7.809
 5282SOL    HW117743  13.785   1.087   7.746
 5282SOL    HW217744  13.730   1.223   7.782
 5283SOL     OW17745   9.099  14.272   9.318
 5283SOL    HW117746   9.130  14.244   9.232
 5283SOL    HW217747   9.175  14.313   9.359
 5284SOL     OW17748   3.253  12.738   2.771
 5284SOL    HW117749   3.210  12.815   2.734
 5284SOL    HW217750   3.185  12.696   2.824
 5285SOL     OW17751   4.485  11.391   8.186
 5285SOL    HW117752   4.511  11.439   8.107
 5285SOL    HW217753   4.396  11.361   8.167
 5286SOL     OW17754   7.295  11.638   6.835
 5286SOL    HW117755   7.254  11.724   6.835
 5286SOL    HW217756   7.227  11.579   6.804
 5287SOL     OW17757   0.359   0.762   6.417
 5287SOL    HW117758   0.333   0.671   6.404
 5287SOL    HW217759   0.441   0.757   6.466
 5288SOL     OW17760  13.510   8.900  12.520
 5288SOL    HW117761  13.510   8.888  12.425
 5288SOL    HW217762  13.596   8.939  12.539
 5289SOL     OW17763   5.899   3.051   0.444
 5289SOL    HW117764   5.864   2.982   0.501
 5289SOL    HW217765   5.888   3.016   0.356
 5290SOL     OW17766  10.537  14.642   7.917
 5290SOL    HW117767  10.514  14.583   7.846
 5290SOL    HW217768  10.596  14.592   7.973
 5291SOL     OW17769   8.100   3.865   9.902
 5291SOL    HW117770   8.129   3.911   9.981
 5291SOL    HW217771   8.011   3.899   9.886
 5292SOL     OW17772   9.123  12.275   7.665
 5292SOL    HW117773   9.055  12.218   7.627
 5292SOL    HW217774   9.091  12.364   7.649
 5293SOL     OW17775  14.037  13.717   2.053
 5293SOL    HW117776  14.054  13.809   2.033
 5293SOL    HW217777  13.942  13.711   2.063
 5294SOL     OW17778  13.805  10.089  10.064
 5294SOL    HW117779  13.797  10.045  10.149
 5294SOL    HW217780  13.877  10.043  10.021
 5295SOL     OW17781   6.684   2.139  12.514
 5295SOL    HW117782   6.737   2.213  12.546
 5295SOL    HW217783   6.602   2.146  12.562
 5296SOL     OW17784   6.779   1.081  11.987
 5296SOL    HW117785   6.873   1.091  12.000
 5296SOL    HW217786   6.747   1.171  11.976
 5297SOL     OW17787   0.469   0.224  11.735
 5297SOL    HW117788   0.406   0.184  11.676
 5297SOL    HW217789   0.526   0.152  11.763
 5298SOL     OW17790   1.436   6.371  12.822
 5298SOL    HW117791   1.457   6.387  12.914
 5298SOL    HW217792   1.512   6.402  12.774
 5299SOL     OW17793   7.406   5.929   3.224
 5299SOL    HW117794   7.312   5.912   3.211
 5299SOL    HW217795   7.427   5.884   3.306
 5300SOL     OW17796   1.197   8.779  12.896
 5300SOL    HW117797   1.133   8.752  12.962
 5300SOL    HW217798   1.199   8.706  12.834
 5301SOL     OW17799   7.831  12.043   0.487
 5301SOL    HW117800   7.819  12.135   0.463
 5301SOL    HW217801   7.805  12.038   0.579
 5302SOL     OW17802  14.688  10.694   4.667
 5302SOL    HW117803  14.648  10.620   4.712
 5302SOL    HW217804  14.657  10.771   4.716
 5303SOL     OW17805  14.531  13.693  12.738
 5303SOL    HW117806  14.569  13.746  12.668
 5303SOL    HW217807  14.553  13.740  12.819
 5304SOL     OW17808   6.648   2.486  12.238
 5304SOL    HW117809   6.666   2.578  12.261
 5304SOL    HW217810   6.719   2.437  12.279
 5305SOL     OW17811   3.199   2.640  12.557
 5305SOL    HW117812   3.153   2.669  12.636
 5305SOL    HW217813   3.290   2.663  12.573
 5306SOL     OW17814  10.476   1.295  12.478
 5306SOL    HW117815  10.514   1.282  12.392
 5306SOL    HW217816  10.524   1.234  12.535
 5307SOL     OW17817   1.576  11.699   3.495
 5307SOL    HW117818   1.600  11.744   3.577
 5307SOL    HW217819   1.650  11.641   3.478
 5308SOL     OW17820   8.627  12.154   1.062
 5308SOL    HW117821   8.666  12.228   1.109
 5308SOL    HW217822   8.698  12.121   1.006
 5309SOL     OW17823  13.092   5.999   9.175
 5309SOL    HW117824  13.174   6.026   9.133
 5309SOL    HW217825  13.110   6.006   9.269
 5310SOL     OW17826   0.721   8.766   8.511
 5310SOL    HW117827   0.685   8.721   8.435
 5310SOL    HW217828   0.798   8.812   8.478
 5311SOL     OW17829   5.988   2.264   6.037
 5311SOL    HW117830   6.028   2.261   6.124
 5311SOL    HW217831   6.062   2.273   5.977
 5312SOL     OW17832   7.135   0.147  13.832
 5312SOL    HW117833   7.084   0.190  13.901
 5312SOL    HW217834   7.201   0.212  13.808
 5313SOL     OW17835  14.740   6.613  13.044
 5313SOL    HW117836  14.788   6.585  13.122
 5313SOL    HW217837  14.793   6.684  13.007
 5314SOL     OW17838  11.986   9.282   7.525
 5314SOL    HW117839  12.033   9.286   7.608
 5314SOL    HW217840  12.001   9.367   7.484
 5315SOL     OW17841  13.675   9.267   1.284
 5315SOL    HW117842  13.711   9.182   1.309
 5315SOL    HW217843  13.715   9.329   1.344
 5316SOL     OW17844   6.889   5.918  13.819
 5316SOL    HW117845   6.798   5.894  13.840
 5316SOL    HW217846   6.881   6.001  13.772
 5317SOL     OW17847   5.331   4.378  12.170
 5317SOL    HW117848   5.236   4.371  12.179
 5317SOL    HW217849   5.347   4.352  12.079
 5318SOL     OW17850   2.481   8.893   2.164
 5318SOL    HW117851   2.412   8.901   2.230
 5318SOL    HW217852   2.434   8.887   2.081
 5319SOL     OW17853   9.973   2.679  11.079
 5319SOL    HW117854  10.015   2.594  11.063
 5319SOL    HW217855  10.044   2.737  11.104
 5320SOL     OW17856   4.638   6.760   7.480
 5320SOL    HW117857   4.666   6.669   7.487
 5320SOL    HW217858   4.617   6.772   7.387
 5321SOL     OW17859   9.967   4.474   2.029
 5321SOL    HW117860   9.924   4.551   1.994
 5321SOL    HW217861   9.906   4.440   2.095
 5322SOL     OW17862  12.529  13.333   7.425
 5322SOL    HW117863  12.580  13.266   7.381
 5322SOL    HW217864  12.543  13.412   7.374
 5323SOL     OW17865   8.566  13.592   9.620
 5323SOL    HW117866   8.566  13.665   9.681
 5323SOL    HW217867   8.559  13.632   9.533
 5324SOL     OW17868  10.180   2.358   0.289
 5324SOL    HW117869  10.226   2.313   0.218
 5324SOL    HW217870  10.118   2.293   0.322
 5325SOL     OW17871  14.819   7.896   6.154
 5325SOL    HW117872  14.840   7.981   6.115
 5325SOL    HW217873  14.728   7.904   6.183
 5326SOL     OW17874  14.588   2.723   4.766
 5326SOL    HW117875  14.586   2.634   4.802
 5326SOL    HW217876  14.558   2.778   4.838
 5327SOL     OW17877  14.041   6.370  11.207
 5327SOL    HW117878  14.074   6.453  11.173
 5327SOL    HW217879  13.962   6.353  11.156
 5328SOL     OW17880  11.441   7.521   4.756
 5328SOL    HW117881  11.473   7.504   4.668
 5328SOL    HW217882  11.484   7.455   4.810
 5329SOL     OW17883   2.078  10.061   7.348
 5329SOL    HW117884   2.137  10.002   7.301
 5329SOL    HW217885   2.077  10.028   7.437
 5330SOL     OW17886   5.044   0.084   0.356
 5330SOL    HW117887   4.985   0.155   0.333
 5330SOL    HW217888   5.007   0.046   0.435
 5331SOL     OW17889  10.795  13.677   4.182
 5331SOL    HW117890  10.853  13.610   4.219
 5331SOL    HW217891  10.737  13.629   4.124
 5332SOL     OW17892   4.139  13.914   2.348
 5332SOL    HW117893   4.125  13.953   2.435
 5332SOL    HW217894   4.065  13.855   2.337
 5333SOL     OW17895  13.707   9.287   2.127
 5333SOL    HW117896  13.737   9.260   2.040
 5333SOL    HW217897  13.785   9.282   2.182
 5334SOL     OW17898   5.101  11.689   5.242
 5334SOL    HW117899   5.082  11.606   5.198
 5334SOL    HW217900   5.195  11.686   5.259
 5335SOL     OW17901   3.794   6.202   8.961
 5335SOL    HW117902   3.870   6.193   8.904
 5335SOL    HW217903   3.829   6.192   9.049
 5336SOL     OW17904   3.386   0.740  14.590
 5336SOL    HW117905   3.411   0.829  14.614
 5336SOL    HW217906   3.343   0.705  14.669
 5337SOL     OW17907   3.158   3.804   3.591
 5337SOL    HW117908   3.112   3.742   3.535
 5337SOL    HW217909   3.245   3.766   3.603
 5338SOL     OW17910   8.238  14.631  13.915
 5338SOL    HW117911   8.246  14.665  13.826
 5338SOL    HW217912   8.236  14.536  13.904
 5339SOL     OW17913   4.020   8.122   7.631
 5339SOL    HW117914   3.985   8.053   7.575
 5339SOL    HW217915   3.992   8.099   7.719
 5340SOL     OW17916   6.233   8.557   5.632
 5340SOL    HW117917   6.288   8.601   5.697
 5340SOL    HW217918   6.274   8.471   5.620
 5341SOL     OW17919  13.907  14.704   8.260
 5341SOL    HW117920  13.870  14.721   8.346
 5341SOL    HW217921  13.831  14.703   8.201
 5342SOL     OW17922  10.452  12.599   5.372
 5342SOL    HW117923  10.439  12.536   5.301
 5342SOL    HW217924  10.370  12.600   5.420
 5343SOL     OW17925   6.845   8.811  11.451
 5343SOL    HW117926   6.863   8.904  11.466
 5343SOL    HW217927   6.889   8.766  11.523
 5344SOL     OW17928   2.842   7.664   8.772
 5344SOL    HW117929   2.808   7.737   8.720
 5344SOL    HW217930   2.903   7.619   8.713
 5345SOL     OW17931   5.260   4.130   5.533
 5345SOL    HW117932   5.278   4.212   5.580
 5345SOL    HW217933   5.168   4.112   5.552
 5346SOL     OW17934  13.650  10.634   8.815
 5346SOL    HW117935  13.561  10.601   8.807
 5346SOL    HW217936  13.704  10.569   8.769
 5347SOL     OW17937   6.485   6.028  12.562
 5347SOL    HW117938   6.524   6.062  12.481
 5347SOL    HW217939   6.405   5.985  12.533
 5348SOL     OW17940   9.653   7.628   5.395
 5348SOL    HW117941   9.596   7.607   5.469
 5348SOL    HW217942   9.596   7.670   5.331
 5349SOL     OW17943  11.105   1.036  10.732
 5349SOL    HW117944  11.075   0.967  10.791
 5349SOL    HW217945  11.083   1.003  10.645
 5350SOL     OW17946   0.721   9.101   9.046
 5350SOL    HW117947   0.642   9.058   9.015
 5350SOL    HW217948   0.765   9.131   8.966
 5351SOL     OW17949   9.949  10.733  14.036
 5351SOL    HW117950   9.932  10.799  14.103
 5351SOL    HW217951   9.933  10.650  14.080
 5352SOL     OW17952  13.280   6.070  13.903
 5352SOL    HW117953  13.323   6.143  13.950
 5352SOL    HW217954  13.271   6.002  13.970
 5353SOL     OW17955   3.956  12.981   3.347
 5353SOL    HW117956   3.979  12.978   3.254
 5353SOL    HW217957   3.908  13.063   3.358
 5354SOL     OW17958   5.233   7.430   3.066
 5354SOL    HW117959   5.259   7.514   3.103
 5354SOL    HW217960   5.285   7.365   3.113
 5355SOL     OW17961   5.239  14.486   1.579
 5355SOL    HW117962   5.254  14.546   1.506
 5355SOL    HW217963   5.180  14.533   1.637
 5356SOL     OW17964   8.467   0.639   2.587
 5356SOL    HW117965   8.434   0.655   2.499
 5356SOL    HW217966   8.498   0.548   2.585
 5357SOL     OW17967   7.139   4.070   2.144
 5357SOL    HW117968   7.194   4.103   2.073
 5357SOL    HW217969   7.056   4.116   2.134
 5358SOL     OW17970   1.566   4.983   3.707
 5358SOL    HW117971   1.510   5.053   3.675
 5358SOL    HW217972   1.590   4.933   3.629
 5359SOL     OW17973   0.085   2.378   1.493
 5359SOL    HW117974  14.872   2.365   1.512
 5359SOL    HW217975   0.118   2.290   1.475
 5360SOL     OW17976  13.374   4.077   2.298
 5360SOL    HW117977  13.361   4.038   2.212
 5360SOL    HW217978  13.314   4.029   2.356
 5361SOL     OW17979   8.337  14.011   2.427
 5361SOL    HW117980   8.421  13.984   2.464
 5361SOL    HW217981   8.347  14.105   2.411
 5362SOL     OW17982   4.066   8.914   7.092
 5362SOL    HW117983   4.048   8.893   7.001
 5362SOL    HW217984   4.150   8.961   7.090
 5363SOL     OW17985   5.934   4.933   2.494
 5363SOL    HW117986   5.859   4.986   2.517
 5363SOL    HW217987   5.938   4.938   2.398
 5364SOL     OW17988  14.274  13.458  12.560
 5364SOL    HW117989  14.278  13.479  12.653
 5364SOL    HW217990  14.238  13.369  12.557
 5365SOL     OW17991   9.088  12.235  11.954
 5365SOL    HW117992   9.149  12.162  11.947
 5365SOL    HW217993   9.119  12.287  12.028
 5366SOL     OW17994   6.013   0.426   5.954
 5366SOL    HW117995   6.039   0.348   5.905
 5366SOL    HW217996   5.947   0.468   5.898
 5367SOL     OW17997   7.947   7.716   8.988
 5367SOL    HW117998   7.915   7.667   9.065
 5367SOL    HW217999   7.949   7.651   8.918
 5368SOL     OW18000   5.806  11.973   9.165
 5368SOL    HW118001   5.800  11.954   9.071
 5368SOL    HW218002   5.715  11.985   9.192
 5369SOL     OW18003   3.292   9.294   6.038
 5369SOL    HW118004   3.218   9.327   5.988
 5369SOL    HW218005   3.336   9.233   5.978
 5370SOL     OW18006   2.939   6.465  14.031
 5370SOL    HW118007   2.952   6.480  14.124
 5370SOL    HW218008   3.027   6.446  13.997
 5371SOL     OW18009   0.288  10.947  12.161
 5371SOL    HW118010   0.244  10.862  12.161
 5371SOL    HW218011   0.346  10.945  12.237
 5372SOL     OW18012  13.308   2.522   6.967
 5372SOL    HW118013  13.399   2.498   6.951
 5372SOL    HW218014  13.312   2.584   7.040
 5373SOL     OW18015  13.356  10.463   9.273
 5373SOL    HW118016  13.373  10.496   9.185
 5373SOL    HW218017  13.300  10.529   9.313
 5374SOL     OW18018   4.196  11.365   3.849
 5374SOL    HW118019   4.155  11.357   3.935
 5374SOL    HW218020   4.278  11.317   3.857
 5375SOL     OW18021   4.757   3.495  12.043
 5375SOL    HW118022   4.821   3.563  12.064
 5375SOL    HW218023   4.808   3.427  11.999
 5376SOL     OW18024   0.825  10.977   5.217
 5376SOL    HW118025   0.768  11.052   5.202
 5376SOL    HW218026   0.768  10.901   5.211
 5377SOL     OW18027   2.885   9.851   3.127
 5377SOL    HW118028   2.845   9.836   3.213
 5377SOL    HW218029   2.938   9.930   3.138
 5378SOL     OW18030   5.435   6.527   4.887
 5378SOL    HW118031   5.524   6.503   4.915
 5378SOL    HW218032   5.432   6.498   4.795
 5379SOL     OW18033   1.663   1.028   5.177
 5379SOL    HW118034   1.637   1.061   5.092
 5379SOL    HW218035   1.602   1.068   5.239
 5380SOL     OW18036  13.572   7.182   7.811
 5380SOL    HW118037  13.643   7.141   7.859
 5380SOL    HW218038  13.505   7.200   7.877
 5381SOL     OW18039   0.224   4.436  11.535
 5381SOL    HW118040   0.236   4.528  11.560
 5381SOL    HW218041   0.154   4.439  11.470
 5382SOL     OW18042  13.379  12.967   4.395
 5382SOL    HW118043  13.287  12.989   4.411
 5382SOL    HW218044  13.377  12.874   4.373
 5383SOL     OW18045   7.715  13.624   4.426
 5383SOL    HW118046   7.801  13.646   4.391
 5383SOL    HW218047   7.673  13.708   4.442
 5384SOL     OW18048   2.194   4.781   6.327
 5384SOL    HW118049   2.281   4.764   6.289
 5384SOL    HW218050   2.213   4.817   6.414
 5385SOL     OW18051   4.068   9.765   7.002
 5385SOL    HW118052   4.123   9.819   7.059
 5385SOL    HW218053   4.072   9.808   6.916
 5386SOL     OW18054  13.057  11.745  14.029
 5386SOL    HW118055  13.116  11.672  14.008
 5386SOL    HW218056  12.979  11.728  13.976
 5387SOL     OW18057   6.996  13.858  12.071
 5387SOL    HW118058   6.986  13.769  12.036
 5387SOL    HW218059   7.070  13.894  12.023
 5388SOL     OW18060   2.349  10.733   4.663
 5388SOL    HW118061   2.330  10.805   4.603
 5388SOL    HW218062   2.395  10.774   4.736
 5389SOL     OW18063   2.324   6.079  12.326
 5389SOL    HW118064   2.322   6.085  12.422
 5389SOL    HW218065   2.258   6.012  12.306
 5390SOL     OW18066  13.194   6.439   9.120
 5390SOL    HW118067  13.134   6.366   9.108
 5390SOL    HW218068  13.278   6.398   9.140
 5391SOL     OW18069  11.268   0.425   1.622
 5391SOL    HW118070  11.193   0.408   1.565
 5391SOL    HW218071  11.324   0.348   1.610
 5392SOL     OW18072   2.543  13.574   9.415
 5392SOL    HW118073   2.455  13.576   9.452
 5392SOL    HW218074   2.597  13.624   9.476
 5393SOL     OW18075  10.740  14.632   0.617
 5393SOL    HW118076  10.708  14.554   0.571
 5393SOL    HW218077  10.672  14.698   0.603
 5394SOL     OW18078   0.598   1.274   4.333
 5394SOL    HW118079   0.632   1.363   4.348
 5394SOL    HW218080   0.621   1.226   4.412
 5395SOL     OW18081   5.154  10.168   5.897
 5395SOL    HW118082   5.074  10.211   5.926
 5395SOL    HW218083   5.129  10.127   5.814
 5396SOL     OW18084   5.137   3.235   3.771
 5396SOL    HW118085   5.122   3.255   3.679
 5396SOL    HW218086   5.219   3.281   3.792
 5397SOL     OW18087   7.029   0.824   4.390
 5397SOL    HW118088   6.995   0.878   4.461
 5397SOL    HW218089   7.048   0.887   4.320
 5398SOL     OW18090   3.715  13.387  14.243
 5398SOL    HW118091   3.664  13.307  14.252
 5398SOL    HW218092   3.664  13.453  14.291
 5399SOL     OW18093  12.563   9.636  10.043
 5399SOL    HW118094  12.473   9.664  10.028
 5399SOL    HW218095  12.556   9.545  10.073
 5400SOL     OW18096  14.087   9.576   1.504
 5400SOL    HW118097  14.156   9.633   1.470
 5400SOL    HW218098  14.020   9.636   1.537
 5401SOL     OW18099  13.896   9.738  12.022
 5401SOL    HW118100  13.801   9.725  12.022
 5401SOL    HW218101  13.932   9.652  12.004
 5402SOL     OW18102   5.378   9.384  13.571
 5402SOL    HW118103   5.306   9.324  13.591
 5402SOL    HW218104   5.382   9.443  13.647
 5403SOL     OW18105  10.867   3.557   3.547
 5403SOL    HW118106  10.950   3.547   3.500
 5403SOL    HW218107  10.802   3.572   3.479
 5404SOL     OW18108   0.390  11.774   4.909
 5404SOL    HW118109   0.454  11.721   4.862
 5404SOL    HW218110   0.313  11.718   4.916
 5405SOL     OW18111   3.400   5.197   8.285
 5405SOL    HW118112   3.345   5.125   8.256
 5405SOL    HW218113   3.365   5.274   8.239
 5406SOL     OW18114   2.635   1.244   8.872
 5406SOL    HW118115   2.634   1.334   8.840
 5406SOL    HW218116   2.550   1.208   8.845
 5407SOL     OW18117   4.485  10.806   1.113
 5407SOL    HW118118   4.511  10.822   1.204
 5407SOL    HW218119   4.566  10.784   1.068
 5408SOL     OW18120   9.800   4.487   2.387
 5408SOL    HW118121   9.800   4.582   2.375
 5408SOL    HW218122   9.849   4.474   2.468
 5409SOL     OW18123   2.924   2.821  14.833
 5409SOL    HW118124   2.923   2.912  14.863
 5409SOL    HW218125   2.975   2.774   0.020
 5410SOL     OW18126   0.530   6.624   3.293
 5410SOL    HW118127   0.537   6.685   3.220
 5410SOL    HW218128   0.439   6.630   3.320
 5411SOL     OW18129   2.984  10.312  14.519
 5411SOL    HW118130   2.950  10.364  14.591
 5411SOL    HW218131   2.929  10.335  14.444
 5412SOL     OW18132   0.773   1.263  13.915
 5412SOL    HW118133   0.842   1.207  13.952
 5412SOL    HW218134   0.803   1.352  13.932
 5413SOL     OW18135  12.623  12.071   0.856
 5413SOL    HW118136  12.545  12.067   0.801
 5413SOL    HW218137  12.646  12.164   0.857
 5414SOL     OW18138   6.020   3.655   8.972
 5414SOL    HW118139   6.068   3.666   9.054
 5414SOL    HW218140   6.083   3.678   8.904
 5415SOL     OW18141   7.759   1.818   5.976
 5415SOL    HW118142   7.749   1.865   5.894
 5415SOL    HW218143   7.786   1.730   5.950
 5416SOL     OW18144   4.342   8.112  13.991
 5416SOL    HW118145   4.375   8.117  13.902
 5416SOL    HW218146   4.317   8.202  14.012
 5417SOL     OW18147  10.785   0.449   5.548
 5417SOL    HW118148  10.726   0.387   5.591
 5417SOL    HW218149  10.859   0.458   5.607
 5418SOL     OW18150  11.477   2.542   0.323
 5418SOL    HW118151  11.396   2.588   0.304
 5418SOL    HW218152  11.544   2.610   0.329
 5419SOL     OW18153  11.621   9.592   9.834
 5419SOL    HW118154  11.652   9.563   9.920
 5419SOL    HW218155  11.603   9.685   9.845
 5420SOL     OW18156   6.331   2.432   3.217
 5420SOL    HW118157   6.282   2.435   3.299
 5420SOL    HW218158   6.362   2.521   3.203
 5421SOL     OW18159   8.671  10.577   1.010
 5421SOL    HW118160   8.745  10.533   1.053
 5421SOL    HW218161   8.596  10.521   1.029
 5422SOL     OW18162  13.508  13.709  12.945
 5422SOL    HW118163  13.453  13.757  13.007
 5422SOL    HW218164  13.474  13.732  12.859
 5423SOL     OW18165   1.731  12.856   0.467
 5423SOL    HW118166   1.719  12.951   0.461
 5423SOL    HW218167   1.643  12.820   0.461
 5424SOL     OW18168   0.203   1.859  14.013
 5424SOL    HW118169   0.162   1.785  13.970
 5424SOL    HW218170   0.289   1.827  14.040
 5425SOL     OW18171   1.033  10.517   5.188
 5425SOL    HW118172   1.108  10.567   5.220
 5425SOL    HW218173   1.048  10.511   5.093
 5426SOL     OW18174   5.492   7.062   4.717
 5426SOL    HW118175   5.509   6.970   4.699
 5426SOL    HW218176   5.565   7.108   4.677
 5427SOL     OW18177   5.972   5.508   8.055
 5427SOL    HW118178   5.982   5.559   7.975
 5427SOL    HW218179   5.988   5.417   8.027
 5428SOL     OW18180   1.011   4.071  11.088
 5428SOL    HW118181   0.981   4.001  11.145
 5428SOL    HW218182   0.943   4.139  11.096
 5429SOL     OW18183   6.747   6.794  13.245
 5429SOL    HW118184   6.751   6.871  13.303
 5429SOL    HW218185   6.665   6.805  13.197
 5430SOL     OW18186   3.521   9.410   1.193
 5430SOL    HW118187   3.541   9.388   1.284
 5430SOL    HW218188   3.479   9.496   1.198
 5431SOL     OW18189   3.000   0.715   5.164
 5431SOL    HW118190   3.053   0.670   5.230
 5431SOL    HW218191   3.022   0.670   5.082
 5432SOL     OW18192   8.357  13.955  11.300
 5432SOL    HW118193   8.407  13.914  11.371
 5432SOL    HW218194   8.355  13.890  11.231
 5433SOL     OW18195   2.162   7.495   5.912
 5433SOL    HW118196   2.209   7.419   5.878
 5433SOL    HW218197   2.092   7.510   5.849
 5434SOL     OW18198   6.567   5.307   8.595
 5434SOL    HW118199   6.662   5.309   8.597
 5434SOL    HW218200   6.546   5.220   8.561
 5435SOL     OW18201   5.530   4.523   8.098
 5435SOL    HW118202   5.487   4.609   8.095
 5435SOL    HW218203   5.506   4.482   8.015
 5436SOL     OW18204   0.974   2.905   2.764
 5436SOL    HW118205   0.994   2.977   2.823
 5436SOL    HW218206   0.910   2.852   2.812
 5437SOL     OW18207   2.770  13.049   1.673
 5437SOL    HW118208   2.742  13.075   1.761
 5437SOL    HW218209   2.861  13.022   1.684
 5438SOL     OW18210  11.511  12.711   9.762
 5438SOL    HW118211  11.530  12.801   9.735
 5438SOL    HW218212  11.570  12.657   9.708
 5439SOL     OW18213   5.480   8.260  11.291
 5439SOL    HW118214   5.501   8.215  11.209
 5439SOL    HW218215   5.564   8.263  11.338
 5440SOL     OW18216   7.121   7.373  13.886
 5440SOL    HW118217   7.046   7.314  13.892
 5440SOL    HW218218   7.188   7.323  13.838
 5441SOL     OW18219  13.414   7.899  14.338
 5441SOL    HW118220  13.353   7.957  14.383
 5441SOL    HW218221  13.376   7.888  14.251
 5442SOL     OW18222   5.212   4.156   0.432
 5442SOL    HW118223   5.293   4.197   0.401
 5442SOL    HW218224   5.146   4.224   0.423
 5443SOL     OW18225   4.964   6.396   9.652
 5443SOL    HW118226   5.049   6.440   9.657
 5443SOL    HW218227   4.980   6.309   9.689
 5444SOL     OW18228   9.394  12.141  10.919
 5444SOL    HW118229   9.375  12.122  10.827
 5444SOL    HW218230   9.400  12.237  10.923
 5445SOL     OW18231  11.091   8.973  13.661
 5445SOL    HW118232  11.092   8.906  13.729
 5445SOL    HW218233  11.181   9.008  13.661
 5446SOL     OW18234   8.231   9.729  14.748
 5446SOL    HW118235   8.219   9.820  14.719
 5446SOL    HW218236   8.304   9.697  14.694
 5447SOL     OW18237   1.150   3.861   9.248
 5447SOL    HW118238   1.105   3.779   9.268
 5447SOL    HW218239   1.108   3.926   9.305
 5448SOL     OW18240  13.079  12.832  10.317
 5448SOL    HW118241  13.040  12.799  10.236
 5448SOL    HW218242  13.154  12.884  10.289
 5449SOL     OW18243  11.988   2.711  12.695
 5449SOL    HW118244  12.022   2.712  12.606
 5449SOL    HW218245  11.966   2.619  12.711
 5450SOL     OW18246  12.087  12.566   4.101
 5450SOL    HW118247  12.171  12.608   4.120
 5450SOL    HW218248  12.030  12.595   4.172
 5451SOL     OW18249   8.886   7.059   2.325
 5451SOL    HW118250   8.873   7.152   2.305
 5451SOL    HW218251   8.904   7.019   2.241
 5452SOL     OW18252   2.152   3.270  12.309
 5452SOL    HW118253   2.192   3.210  12.373
 5452SOL    HW218254   2.061   3.240  12.302
 5453SOL     OW18255   8.423   0.611  12.696
 5453SOL    HW118256   8.382   0.627  12.611
 5453SOL    HW218257   8.500   0.557  12.676
 5454SOL     OW18258  12.193  12.241   5.897
 5454SOL    HW118259  12.250  12.192   5.957
 5454SOL    HW218260  12.253  12.282   5.835
 5455SOL     OW18261  14.544  11.302  10.663
 5455SOL    HW118262  14.467  11.319  10.718
 5455SOL    HW218263  14.614  11.282  10.726
 5456SOL     OW18264  10.180   4.313  14.150
 5456SOL    HW118265  10.176   4.375  14.223
 5456SOL    HW218266  10.238   4.243  14.181
 5457SOL     OW18267   5.069   2.607   7.508
 5457SOL    HW118268   5.120   2.575   7.583
 5457SOL    HW218269   5.018   2.680   7.544
 5458SOL     OW18270   6.856   1.476  13.590
 5458SOL    HW118271   6.877   1.570  13.586
 5458SOL    HW218272   6.901   1.439  13.513
 5459SOL     OW18273   4.544   8.560   1.517
 5459SOL    HW118274   4.540   8.629   1.451
 5459SOL    HW218275   4.611   8.500   1.484
 5460SOL     OW18276   6.911   4.215  10.219
 5460SOL    HW118277   6.968   4.275  10.171
 5460SOL    HW218278   6.823   4.240  10.194
 5461SOL     OW18279   0.739  12.261   0.741
 5461SOL    HW118280   0.728  12.348   0.781
 5461SOL    HW218281   0.715  12.200   0.810
 5462SOL     OW18282   9.734   6.991   4.952
 5462SOL    HW118283   9.693   6.935   4.886
 5462SOL    HW218284   9.663   7.041   4.989
 5463SOL     OW18285   5.186   2.470  13.401
 5463SOL    HW118286   5.111   2.445  13.346
 5463SOL    HW218287   5.246   2.513  13.341
 5464SOL     OW18288  13.719   9.869  14.401
 5464SOL    HW118289  13.679   9.835  14.481
 5464SOL    HW218290  13.813   9.863  14.415
 5465SOL     OW18291   4.294   3.984  11.811
 5465SOL    HW118292   4.316   4.034  11.732
 5465SOL    HW218293   4.374   3.988  11.864
 5466SOL     OW18294   6.429  12.006  12.664
 5466SOL    HW118295   6.442  12.091  12.621
 5466SOL    HW218296   6.342  12.014  12.704
 5467SOL     OW18297   9.818  11.622   1.913
 5467SOL    HW118298   9.889  11.583   1.861
 5467SOL    HW218299   9.816  11.714   1.886
 5468SOL     OW18300   2.463  11.288   3.949
 5468SOL    HW118301   2.533  11.228   3.925
 5468SOL    HW218302   2.398  11.233   3.992
 5469SOL     OW18303   0.685   5.966   4.474
 5469SOL    HW118304   0.618   6.022   4.513
 5469SOL    HW218305   0.675   5.980   4.379
 5470SOL     OW18306  13.739  13.929   2.272
 5470SOL    HW118307  13.766  13.842   2.243
 5470SOL    HW218308  13.803  13.988   2.233
 5471SOL     OW18309  13.387   6.107   2.213
 5471SOL    HW118310  13.423   6.048   2.146
 5471SOL    HW218311  13.294   6.083   2.217
 5472SOL     OW18312  12.785   3.815  10.559
 5472SOL    HW118313  12.804   3.723  10.577
 5472SOL    HW218314  12.791   3.858  10.645
 5473SOL     OW18315   7.768   4.696  14.415
 5473SOL    HW118316   7.863   4.683  14.426
 5473SOL    HW218317   7.759   4.788  14.391
 5474SOL     OW18318   3.105   7.280   5.483
 5474SOL    HW118319   3.122   7.194   5.444
 5474SOL    HW218320   3.057   7.261   5.563
 5475SOL     OW18321  12.549  13.192  11.291
 5475SOL    HW118322  12.552  13.179  11.386
 5475SOL    HW218323  12.628  13.243  11.272
 5476SOL     OW18324   5.870   0.396  12.335
 5476SOL    HW118325   5.910   0.310  12.327
 5476SOL    HW218326   5.924   0.441  12.400
 5477SOL     OW18327   4.759   6.529  11.181
 5477SOL    HW118328   4.734   6.612  11.222
 5477SOL    HW218329   4.731   6.539  11.089
 5478SOL     OW18330  13.672   4.354   7.052
 5478SOL    HW118331  13.607   4.286   7.067
 5478SOL    HW218332  13.706   4.336   6.964
 5479SOL     OW18333  13.498   9.201   8.088
 5479SOL    HW118334  13.424   9.143   8.070
 5479SOL    HW218335  13.558   9.146   8.139
 5480SOL     OW18336   0.718   9.288  14.099
 5480SOL    HW118337   0.722   9.349  14.026
 5480SOL    HW218338   0.687   9.206  14.061
 5481SOL     OW18339   5.429   3.570   5.366
 5481SOL    HW118340   5.481   3.578   5.446
 5481SOL    HW218341   5.439   3.654   5.322
 5482SOL     OW18342   1.666  11.545   2.910
 5482SOL    HW118343   1.739  11.554   2.849
 5482SOL    HW218344   1.588  11.558   2.857
 5483SOL     OW18345   5.415   5.341   8.158
 5483SOL    HW118346   5.372   5.314   8.239
 5483SOL    HW218347   5.427   5.435   8.167
 5484SOL     OW18348  10.392   6.720  12.247
 5484SOL    HW118349  10.363   6.757  12.330
 5484SOL    HW218350  10.472   6.767  12.227
 5485SOL     OW18351   5.417  13.624  11.715
 5485SOL    HW118352   5.416  13.551  11.777
 5485SOL    HW218353   5.509  13.652  11.713
 5486SOL     OW18354   6.329   9.931  12.612
 5486SOL    HW118355   6.369   9.888  12.687
 5486SOL    HW218356   6.338   9.869  12.540
 5487SOL     OW18357   3.708  11.702   2.749
 5487SOL    HW118358   3.681  11.610   2.750
 5487SOL    HW218359   3.802  11.699   2.729
 5488SOL     OW18360   2.889   3.888   1.990
 5488SOL    HW118361   2.933   3.853   1.913
 5488SOL    HW218362   2.932   3.844   2.064
 5489SOL     OW18363   8.744  10.413   0.076
 5489SOL    HW118364   8.705  10.387   0.160
 5489SOL    HW218365   8.722  10.506   0.067
 5490SOL     OW18366   7.092   9.571   1.992
 5490SOL    HW118367   7.185   9.582   2.012
 5490SOL    HW218368   7.076   9.477   2.002
 5491SOL     OW18369  13.174   8.979   6.169
 5491SOL    HW118370  13.079   8.988   6.170
 5491SOL    HW218371  13.207   9.068   6.177
 5492SOL     OW18372   0.950   5.812   4.412
 5492SOL    HW118373   0.904   5.732   4.386
 5492SOL    HW218374   0.997   5.839   4.333
 5493SOL     OW18375   6.870  13.746   5.586
 5493SOL    HW118376   6.874  13.679   5.518
 5493SOL    HW218377   6.905  13.703   5.664
 5494SOL     OW18378   2.675  11.687   6.058
 5494SOL    HW118379   2.685  11.644   6.143
 5494SOL    HW218380   2.637  11.773   6.079
 5495SOL     OW18381   3.562   5.363   7.473
 5495SOL    HW118382   3.619   5.410   7.534
 5495SOL    HW218383   3.485   5.341   7.524
 5496SOL     OW18384  14.049   8.755   1.420
 5496SOL    HW118385  14.085   8.667   1.428
 5496SOL    HW218386  14.097   8.806   1.486
 5497SOL     OW18387  10.128   7.509   8.047
 5497SOL    HW118388  10.121   7.576   7.979
 5497SOL    HW218389  10.060   7.446   8.026
 5498SOL     OW18390   3.592   1.759   3.707
 5498SOL    HW118391   3.585   1.831   3.644
 5498SOL    HW218392   3.502   1.727   3.715
 5499SOL     OW18393  10.692   9.830   7.039
 5499SOL    HW118394  10.719   9.898   6.978
 5499SOL    HW218395  10.774   9.786   7.064
 5500SOL     OW18396   3.981   6.537   7.037
 5500SOL    HW118397   3.978   6.495   6.951
 5500SOL    HW218398   3.894   6.575   7.049
 5501SOL     OW18399   1.230   4.025   4.472
 5501SOL    HW118400   1.325   4.024   4.461
 5501SOL    HW218401   1.196   4.011   4.383
 5502SOL     OW18402  11.226  13.507  11.206
 5502SOL    HW118403  11.232  13.416  11.235
 5502SOL    HW218404  11.300  13.551  11.248
 5503SOL     OW18405   9.321  13.212  11.858
 5503SOL    HW118406   9.346  13.295  11.818
 5503SOL    HW218407   9.365  13.145  11.805
 5504SOL     OW18408   1.004   9.276  11.257
 5504SOL    HW118409   0.982   9.203  11.315
 5504SOL    HW218410   1.100   9.281  11.260
 5505SOL     OW18411   9.322  13.530  13.295
 5505SOL    HW118412   9.289  13.522  13.205
 5505SOL    HW218413   9.252  13.495  13.349
 5506SOL     OW18414   2.433   2.590  13.060
 5506SOL    HW118415   2.460   2.638  13.138
 5506SOL    HW218416   2.337   2.593  13.062
 5507SOL     OW18417   8.221  14.425   7.234
 5507SOL    HW118418   8.303  14.397   7.274
 5507SOL    HW218419   8.180  14.480   7.300
 5508SOL     OW18420   0.743   8.550  12.006
 5508SOL    HW118421   0.650   8.539  12.024
 5508SOL    HW218422   0.787   8.501  12.075
 5509SOL     OW18423   3.552   6.890  12.563
 5509SOL    HW118424   3.578   6.825  12.499
 5509SOL    HW218425   3.459   6.873  12.578
 5510SOL     OW18426   7.985   7.942   9.667
 5510SOL    HW118427   8.014   7.854   9.693
 5510SOL    HW218428   7.939   7.928   9.585
 5511SOL     OW18429   5.864   6.336   4.827
 5511SOL    HW118430   5.908   6.416   4.798
 5511SOL    HW218431   5.775   6.364   4.847
 5512SOL     OW18432   8.790   9.294   5.676
 5512SOL    HW118433   8.746   9.324   5.755
 5512SOL    HW218434   8.877   9.334   5.680
 5513SOL     OW18435   1.603  13.873   6.308
 5513SOL    HW118436   1.566  13.959   6.329
 5513SOL    HW218437   1.553  13.811   6.361
 5514SOL     OW18438   6.800   6.647   8.993
 5514SOL    HW118439   6.802   6.572   9.052
 5514SOL    HW218440   6.766   6.612   8.910
 5515SOL     OW18441   9.189  10.079  11.268
 5515SOL    HW118442   9.262  10.023  11.240
 5515SOL    HW218443   9.111  10.026  11.254
 5516SOL     OW18444   4.192  13.820   3.824
 5516SOL    HW118445   4.243  13.750   3.783
 5516SOL    HW218446   4.247  13.898   3.815
 5517SOL     OW18447   4.424  13.739  10.614
 5517SOL    HW118448   4.339  13.782  10.628
 5517SOL    HW218449   4.452  13.713  10.701
 5518SOL     OW18450   3.498   1.953  14.495
 5518SOL    HW118451   3.411   1.918  14.476
 5518SOL    HW218452   3.546   1.879  14.530
 5519SOL     OW18453  10.800  10.461  11.716
 5519SOL    HW118454  10.713  10.459  11.677
 5519SOL    HW218455  10.859  10.473  11.642
 5520SOL     OW18456  13.017   9.623  12.787
 5520SOL    HW118457  12.940   9.676  12.768
 5520SOL    HW218458  12.984   9.554  12.846
 5521SOL     OW18459   0.688  14.343  14.055
 5521SOL    HW118460   0.659  14.266  14.104
 5521SOL    HW218461   0.750  14.309  13.991
 5522SOL     OW18462   0.390   0.505  11.495
 5522SOL    HW118463   0.391   0.599  11.479
 5522SOL    HW218464   0.456   0.492  11.563
 5523SOL     OW18465  10.504  12.091   6.654
 5523SOL    HW118466  10.573  12.027   6.674
 5523SOL    HW218467  10.552  12.172   6.633
 5524SOL     OW18468   6.103   4.551  12.967
 5524SOL    HW118469   6.154   4.472  12.951
 5524SOL    HW218470   6.166   4.612  13.007
 5525SOL     OW18471   8.936   8.293  13.383
 5525SOL    HW118472   8.968   8.325  13.468
 5525SOL    HW218473   8.971   8.356  13.320
 5526SOL     OW18474   3.065  10.635   4.661
 5526SOL    HW118475   3.025  10.659   4.745
 5526SOL    HW218476   3.125  10.564   4.683
 5527SOL     OW18477  14.064  13.707   3.905
 5527SOL    HW118478  14.062  13.755   3.822
 5527SOL    HW218479  14.004  13.756   3.962
 5528SOL     OW18480   2.625   3.695  10.920
 5528SOL    HW118481   2.669   3.631  10.976
 5528SOL    HW218482   2.542   3.654  10.898
 5529SOL     OW18483   7.986   1.471   5.508
 5529SOL    HW118484   7.947   1.543   5.459
 5529SOL    HW218485   7.912   1.428   5.550
 5530SOL     OW18486  11.673   5.153   0.426
 5530SOL    HW118487  11.738   5.101   0.378
 5530SOL    HW218488  11.718   5.177   0.507
 5531SOL     OW18489  10.280  11.304   9.773
 5531SOL    HW118490  10.205  11.245   9.780
 5531SOL    HW218491  10.343  11.269   9.836
 5532SOL     OW18492   8.904   6.426   8.969
 5532SOL    HW118493   8.977   6.422   8.907
 5532SOL    HW218494   8.842   6.488   8.930
 5533SOL     OW18495  11.619  12.628  13.072
 5533SOL    HW118496  11.713  12.629  13.087
 5533SOL    HW218497  11.608  12.666  12.984
 5534SOL     OW18498  12.808   3.299   8.720
 5534SOL    HW118499  12.759   3.281   8.640
 5534SOL    HW218500  12.742   3.330   8.782
 5535SOL     OW18501   6.402   0.052   3.461
 5535SOL    HW118502   6.478  14.874   3.463
 5535SOL    HW218503   6.438   0.140   3.471
 5536SOL     OW18504   9.866  12.259   1.096
 5536SOL    HW118505   9.863  12.344   1.141
 5536SOL    HW218506   9.866  12.195   1.167
 5537SOL     OW18507   5.489   1.744   7.382
 5537SOL    HW118508   5.476   1.838   7.368
 5537SOL    HW218509   5.456   1.727   7.469
 5538SOL     OW18510  10.556  11.460   3.754
 5538SOL    HW118511  10.471  11.455   3.798
 5538SOL    HW218512  10.617  11.420   3.816
 5539SOL     OW18513   1.794  13.298   6.184
 5539SOL    HW118514   1.793  13.216   6.135
 5539SOL    HW218515   1.710  13.339   6.163
 5540SOL     OW18516   3.914   7.290  13.971
 5540SOL    HW118517   3.876   7.235  13.903
 5540SOL    HW218518   4.006   7.262  13.976
 5541SOL     OW18519  13.495  14.551  10.075
 5541SOL    HW118520  13.574  14.513  10.114
 5541SOL    HW218521  13.493  14.516   9.986
 5542SOL     OW18522  10.801   2.973  13.580
 5542SOL    HW118523  10.828   2.956  13.490
 5542SOL    HW218524  10.732   2.909  13.598
 5543SOL     OW18525   0.181   2.747   9.955
 5543SOL    HW118526   0.258   2.800   9.937
 5543SOL    HW218527   0.111   2.788   9.902
 5544SOL     OW18528  13.197  12.297   9.052
 5544SOL    HW118529  13.116  12.313   9.100
 5544SOL    HW218530  13.204  12.201   9.048
 5545SOL     OW18531   1.532  12.169   3.419
 5545SOL    HW118532   1.450  12.161   3.468
 5545SOL    HW218533   1.535  12.090   3.365
 5546SOL     OW18534  12.964  11.149   0.923
 5546SOL    HW118535  12.935  11.197   1.000
 5546SOL    HW218536  13.057  11.134   0.937
 5547SOL     OW18537   8.431  14.216   2.926
 5547SOL    HW118538   8.336  14.224   2.928
 5547SOL    HW218539   8.463  14.297   2.965
 5548SOL     OW18540   9.977   6.124   3.552
 5548SOL    HW118541   9.894   6.143   3.596
 5548SOL    HW218542  10.023   6.208   3.552
 5549SOL     OW18543  12.563   7.112   8.092
 5549SOL    HW118544  12.485   7.166   8.103
 5549SOL    HW218545  12.557   7.047   8.162
 5550SOL     OW18546   8.412   8.515   6.609
 5550SOL    HW118547   8.375   8.427   6.604
 5550SOL    HW218548   8.456   8.517   6.694
 5551SOL     OW18549   7.425   1.561   5.654
 5551SOL    HW118550   7.437   1.478   5.698
 5551SOL    HW218551   7.357   1.606   5.703
 5552SOL     OW18552   9.091  12.902   2.252
 5552SOL    HW118553   9.090  12.883   2.158
 5552SOL    HW218554   9.031  12.976   2.263
 5553SOL     OW18555   8.983  11.919   8.649
 5553SOL    HW118556   8.894  11.918   8.614
 5553SOL    HW218557   8.985  11.844   8.710
 5554SOL     OW18558   2.403  14.012   8.923
 5554SOL    HW118559   2.425  13.922   8.946
 5554SOL    HW218560   2.377  14.008   8.831
 5555SOL     OW18561   7.434   5.534   5.690
 5555SOL    HW118562   7.474   5.448   5.701
 5555SOL    HW218563   7.507   5.595   5.700
 5556SOL     OW18564   3.591   6.563  11.568
 5556SOL    HW118565   3.528   6.620  11.524
 5556SOL    HW218566   3.653   6.624  11.610
 5557SOL     OW18567  11.704  10.333   6.756
 5557SOL    HW118568  11.711  10.327   6.661
 5557SOL    HW218569  11.616  10.365   6.772
 5558SOL     OW18570   7.511   2.359  14.024
 5558SOL    HW118571   7.570   2.389  14.094
 5558SOL    HW218572   7.557   2.285  13.984
 5559SOL     OW18573   0.582   0.116   6.463
 5559SOL    HW118574   0.670   0.153   6.474
 5559SOL    HW218575   0.583   0.078   6.375
 5560SOL     OW18576   5.659   7.497  13.597
 5560SOL    HW118577   5.574   7.539  13.613
 5560SOL    HW218578   5.699   7.550  13.528
 5561SOL     OW18579   6.599  11.941   2.867
 5561SOL    HW118580   6.645  11.857   2.861
 5561SOL    HW218581   6.513  11.919   2.902
 5562SOL     OW18582   0.937   1.099   9.014
 5562SOL    HW118583   0.880   1.022   9.009
 5562SOL    HW218584   0.876   1.172   9.027
 5563SOL     OW18585   1.376  14.103  14.830
 5563SOL    HW118586   1.362  14.164   0.023
 5563SOL    HW218587   1.296  14.110  14.777
 5564SOL     OW18588   3.716   0.792   0.648
 5564SOL    HW118589   3.674   0.782   0.563
 5564SOL    HW218590   3.661   0.856   0.694
 5565SOL     OW18591   9.641   0.208  11.724
 5565SOL    HW118592   9.656   0.137  11.661
 5565SOL    HW218593   9.655   0.288  11.674
 5566SOL     OW18594   4.632   7.067   0.176
 5566SOL    HW118595   4.629   7.148   0.226
 5566SOL    HW218596   4.723   7.037   0.183
 5567SOL     OW18597  12.616   5.217  10.898
 5567SOL    HW118598  12.685   5.184  10.841
 5567SOL    HW218599  12.535   5.202  10.849
 5568SOL     OW18600  14.273   2.478   9.835
 5568SOL    HW118601  14.239   2.564   9.857
 5568SOL    HW218602  14.196   2.428   9.809
 5569SOL     OW18603  10.816   8.883   9.901
 5569SOL    HW118604  10.861   8.832   9.969
 5569SOL    HW218605  10.822   8.830   9.822
 5570SOL     OW18606   7.512   3.150   9.482
 5570SOL    HW118607   7.586   3.211   9.484
 5570SOL    HW218608   7.441   3.201   9.443
 5571SOL     OW18609   6.034  12.047   9.650
 5571SOL    HW118610   6.096  11.975   9.646
 5571SOL    HW218611   5.955  12.012   9.607
 5572SOL     OW18612   1.680   4.256   7.967
 5572SOL    HW118613   1.610   4.264   7.903
 5572SOL    HW218614   1.755   4.225   7.916
 5573SOL     OW18615  13.318   1.902   7.260
 5573SOL    HW118616  13.411   1.921   7.272
 5573SOL    HW218617  13.312   1.807   7.269
 5574SOL     OW18618   5.654   3.112   1.689
 5574SOL    HW118619   5.711   3.107   1.612
 5574SOL    HW218620   5.566   3.095   1.654
 5575SOL     OW18621   1.373   1.846   7.841
 5575SOL    HW118622   1.368   1.751   7.836
 5575SOL    HW218623   1.289   1.872   7.878
 5576SOL     OW18624   9.846  11.322   9.353
 5576SOL    HW118625   9.834  11.249   9.292
 5576SOL    HW218626   9.771  11.378   9.338
 5577SOL     OW18627  12.141   4.898  13.255
 5577SOL    HW118628  12.055   4.940  13.267
 5577SOL    HW218629  12.132   4.850  13.172
 5578SOL     OW18630   5.172   0.612   1.219
 5578SOL    HW118631   5.133   0.564   1.146
 5578SOL    HW218632   5.159   0.704   1.197
 5579SOL     OW18633  10.726  13.339   1.335
 5579SOL    HW118634  10.819  13.316   1.342
 5579SOL    HW218635  10.680  13.265   1.374
 5580SOL     OW18636   7.819   0.571   8.584
 5580SOL    HW118637   7.771   0.558   8.666
 5580SOL    HW218638   7.859   0.657   8.593
 5581SOL     OW18639   0.399   0.766  10.993
 5581SOL    HW118640   0.476   0.812  10.960
 5581SOL    HW218641   0.327   0.827  10.979
 5582SOL     OW18642   4.175  14.089   8.930
 5582SOL    HW118643   4.125  14.164   8.964
 5582SOL    HW218644   4.260  14.125   8.906
 5583SOL     OW18645  11.475   5.230   9.907
 5583SOL    HW118646  11.446   5.241   9.998
 5583SOL    HW218647  11.517   5.144   9.905
 5584SOL     OW18648  13.085  12.895   1.072
 5584SOL    HW118649  13.114  12.921   1.160
 5584SOL    HW218650  13.149  12.829   1.045
 5585SOL     OW18651   4.365  11.166  13.099
 5585SOL    HW118652   4.279  11.195  13.131
 5585SOL    HW218653   4.382  11.085  13.147
 5586SOL     OW18654  12.004  10.617   9.938
 5586SOL    HW118655  11.977  10.586   9.852
 5586SOL    HW218656  12.047  10.701   9.921
 5587SOL     OW18657   8.144   2.791   6.924
 5587SOL    HW118658   8.219   2.734   6.907
 5587SOL    HW218659   8.157   2.866   6.866
 5588SOL     OW18660   9.601  13.655   3.152
 5588SOL    HW118661   9.678  13.655   3.209
 5588SOL    HW218662   9.527  13.643   3.211
 5589SOL     OW18663   1.595   0.921   8.728
 5589SOL    HW118664   1.512   0.932   8.775
 5589SOL    HW218665   1.576   0.950   8.639
 5590SOL     OW18666   6.303   3.603   4.931
 5590SOL    HW118667   6.270   3.650   4.855
 5590SOL    HW218668   6.394   3.582   4.909
 5591SOL     OW18669   8.405  14.501   0.679
 5591SOL    HW118670   8.398  14.445   0.756
 5591SOL    HW218671   8.326  14.482   0.629
 5592SOL     OW18672  11.677   1.145   3.753
 5592SOL    HW118673  11.591   1.179   3.779
 5592SOL    HW218674  11.691   1.180   3.665
 5593SOL     OW18675   5.953   6.148   1.299
 5593SOL    HW118676   5.962   6.243   1.294
 5593SOL    HW218677   5.925   6.131   1.389
 5594SOL     OW18678   8.453   5.732  11.528
 5594SOL    HW118679   8.521   5.679  11.571
 5594SOL    HW218680   8.371   5.700  11.565
 5595SOL     OW18681   5.229  14.515  13.499
 5595SOL    HW118682   5.222  14.426  13.533
 5595SOL    HW218683   5.170  14.517  13.424
 5596SOL     OW18684   0.538   6.771   3.051
 5596SOL    HW118685   0.477   6.728   2.992
 5596SOL    HW218686   0.537   6.863   3.024
 5597SOL     OW18687   4.815   4.216   8.906
 5597SOL    HW118688   4.832   4.130   8.946
 5597SOL    HW218689   4.720   4.225   8.907
 5598SOL     OW18690  11.604  14.773   8.445
 5598SOL    HW118691  11.606  14.739   8.535
 5598SOL    HW218692  11.595  14.867   8.456
 5599SOL     OW18693   6.123   7.365   3.168
 5599SOL    HW118694   6.052   7.308   3.139
 5599SOL    HW218695   6.139   7.339   3.259
 5600SOL     OW18696  13.457  12.328   1.577
 5600SOL    HW118697  13.502  12.251   1.541
 5600SOL    HW218698  13.526  12.376   1.624
 5601SOL     OW18699   1.391  11.278   6.948
 5601SOL    HW118700   1.439  11.352   6.986
 5601SOL    HW218701   1.312  11.317   6.911
 5602SOL     OW18702   1.398  13.764  13.036
 5602SOL    HW118703   1.393  13.849  12.991
 5602SOL    HW218704   1.429  13.703  12.968
 5603SOL     OW18705   6.332   4.679  12.698
 5603SOL    HW118706   6.281   4.741  12.749
 5603SOL    HW218707   6.416   4.674  12.743
 5604SOL     OW18708   2.596   1.406   6.737
 5604SOL    HW118709   2.587   1.486   6.686
 5604SOL    HW218710   2.507   1.373   6.746
 5605SOL     OW18711  14.399   2.198   0.513
 5605SOL    HW118712  14.362   2.114   0.537
 5605SOL    HW218713  14.493   2.181   0.505
 5606SOL     OW18714   6.010  10.706   4.553
 5606SOL    HW118715   6.087  10.650   4.546
 5606SOL    HW218716   5.968  10.679   4.635
 5607SOL     OW18717   1.481   7.429   6.736
 5607SOL    HW118718   1.453   7.460   6.650
 5607SOL    HW218719   1.444   7.341   6.743
 5608SOL     OW18720   4.651  14.151   6.777
 5608SOL    HW118721   4.592  14.215   6.738
 5608SOL    HW218722   4.707  14.203   6.835
 5609SOL     OW18723  14.149  13.306  11.009
 5609SOL    HW118724  14.074  13.283  10.954
 5609SOL    HW218725  14.111  13.352  11.084
 5610SOL     OW18726   5.918  10.329   0.902
 5610SOL    HW118727   5.884  10.299   0.986
 5610SOL    HW218728   5.958  10.251   0.863
 5611SOL     OW18729   7.516  13.337   2.278
 5611SOL    HW118730   7.520  13.423   2.321
 5611SOL    HW218731   7.607  13.316   2.257
 5612SOL     OW18732  10.583   2.183   2.853
 5612SOL    HW118733  10.529   2.129   2.911
 5612SOL    HW218734  10.631   2.241   2.912
 5613SOL     OW18735   0.684   8.863  13.508
 5613SOL    HW118736   0.632   8.803  13.454
 5613SOL    HW218737   0.635   8.945  13.507
 5614SOL     OW18738  12.251   5.544   8.199
 5614SOL    HW118739  12.273   5.603   8.271
 5614SOL    HW218740  12.328   5.488   8.190
 5615SOL     OW18741  11.542   3.928   9.530
 5615SOL    HW118742  11.461   3.977   9.538
 5615SOL    HW218743  11.532   3.877   9.450
 5616SOL     OW18744   3.353   7.481   3.078
 5616SOL    HW118745   3.333   7.571   3.103
 5616SOL    HW218746   3.382   7.439   3.159
 5617SOL     OW18747   8.010   3.803   2.286
 5617SOL    HW118748   8.098   3.825   2.256
 5617SOL    HW218749   7.992   3.718   2.248
 5618SOL     OW18750   1.544  12.575   4.012
 5618SOL    HW118751   1.612  12.588   3.947
 5618SOL    HW218752   1.555  12.484   4.041
 5619SOL     OW18753  11.516   3.282   1.148
 5619SOL    HW118754  11.556   3.313   1.067
 5619SOL    HW218755  11.590   3.257   1.203
 5620SOL     OW18756  14.591   1.719  12.586
 5620SOL    HW118757  14.589   1.757  12.498
 5620SOL    HW218758  14.644   1.780  12.637
 5621SOL     OW18759   9.573   6.304   3.776
 5621SOL    HW118760   9.544   6.385   3.735
 5621SOL    HW218761   9.532   6.235   3.726
 5622SOL     OW18762   6.945  10.301  11.171
 5622SOL    HW118763   6.911  10.317  11.083
 5622SOL    HW218764   6.902  10.221  11.200
 5623SOL     OW18765  14.843   8.334   9.258
 5623SOL    HW118766   0.049   8.353   9.297
 5623SOL    HW218767  14.841   8.387   9.178
 5624SOL     OW18768   7.221   1.939   7.181
 5624SOL    HW118769   7.138   1.960   7.137
 5624SOL    HW218770   7.223   1.998   7.256
 5625SOL     OW18771  12.417  12.531  10.166
 5625SOL    HW118772  12.334  12.535  10.214
 5625SOL    HW218773  12.394  12.562  10.078
 5626SOL     OW18774   3.920  12.135  14.719
 5626SOL    HW118775   3.943  12.185  14.641
 5626SOL    HW218776   3.847  12.079  14.691
 5627SOL     OW18777   2.740   3.270   2.244
 5627SOL    HW118778   2.807   3.218   2.200
 5627SOL    HW218779   2.756   3.360   2.215
 5628SOL     OW18780  10.861  12.529  11.580
 5628SOL    HW118781  10.767  12.543  11.595
 5628SOL    HW218782  10.900  12.536  11.667
 5629SOL     OW18783   8.710   5.261  14.827
 5629SOL    HW118784   8.713   5.324  14.755
 5629SOL    HW218785   8.801   5.236  14.841
 5630SOL     OW18786   4.150  12.440  10.971
 5630SOL    HW118787   4.194  12.355  10.974
 5630SOL    HW218788   4.212  12.498  10.926
 5631SOL     OW18789   1.036  13.957  10.231
 5631SOL    HW118790   0.984  14.030  10.199
 5631SOL    HW218791   1.060  13.982  10.320
 5632SOL     OW18792   7.005   5.785   7.487
 5632SOL    HW118793   7.068   5.824   7.426
 5632SOL    HW218794   7.017   5.691   7.475
 5633SOL     OW18795   3.943  12.500   5.208
 5633SOL    HW118796   3.928  12.566   5.140
 5633SOL    HW218797   3.987  12.429   5.162
 5634SOL     OW18798  14.333   4.753   1.342
 5634SOL    HW118799  14.264   4.687   1.357
 5634SOL    HW218800  14.393   4.712   1.281
 5635SOL     OW18801   5.481  11.162   1.749
 5635SOL    HW118802   5.410  11.098   1.742
 5635SOL    HW218803   5.504  11.182   1.658
 5636SOL     OW18804  13.445   4.926   8.315
 5636SOL    HW118805  13.427   5.002   8.260
 5636SOL    HW218806  13.500   4.960   8.385
 5637SOL     OW18807   0.095   1.312  12.609
 5637SOL    HW118808   0.046   1.316  12.691
 5637SOL    HW218809   0.072   1.393  12.563
 5638SOL     OW18810  11.487   8.565   8.704
 5638SOL    HW118811  11.401   8.602   8.719
 5638SOL    HW218812  11.545   8.611   8.765
 5639SOL     OW18813   6.882   8.460   2.653
 5639SOL    HW118814   6.962   8.408   2.644
 5639SOL    HW218815   6.816   8.398   2.685
 5640SOL     OW18816  12.193   3.487   6.500
 5640SOL    HW118817  12.145   3.409   6.528
 5640SOL    HW218818  12.239   3.516   6.578
 5641SOL     OW18819   3.291   6.054   2.907
 5641SOL    HW118820   3.262   5.988   2.970
 5641SOL    HW218821   3.218   6.060   2.844
 5642SOL     OW18822   3.747   4.950  12.738
 5642SOL    HW118823   3.705   5.035  12.723
 5642SOL    HW218824   3.740   4.936  12.832
 5643SOL     OW18825   9.686   9.561   5.281
 5643SOL    HW118826   9.612   9.566   5.221
 5643SOL    HW218827   9.673   9.479   5.329
 5644SOL     OW18828   7.595   0.552  10.016
 5644SOL    HW118829   7.649   0.629  10.036
 5644SOL    HW218830   7.631   0.518   9.935
 5645SOL     OW18831   0.167   9.869  14.046
 5645SOL    HW118832   0.151   9.775  14.045
 5645SOL    HW218833   0.245   9.880  14.101
 5646SOL     OW18834   9.173   1.292   8.433
 5646SOL    HW118835   9.216   1.308   8.349
 5646SOL    HW218836   9.082   1.317   8.419
 5647SOL     OW18837  14.503   8.209   8.456
 5647SOL    HW118838  14.500   8.113   8.462
 5647SOL    HW218839  14.477   8.228   8.366
 5648SOL     OW18840  13.521   9.009  12.866
 5648SOL    HW118841  13.457   8.950  12.825
 5648SOL    HW218842  13.469   9.082  12.898
 5649SOL     OW18843   2.192   6.089  11.076
 5649SOL    HW118844   2.280   6.095  11.038
 5649SOL    HW218845   2.136   6.065  11.003
 5650SOL     OW18846   1.237   6.647   3.562
 5650SOL    HW118847   1.314   6.702   3.571
 5650SOL    HW218848   1.245   6.607   3.476
 5651SOL     OW18849   6.411   5.681  11.251
 5651SOL    HW118850   6.423   5.718  11.338
 5651SOL    HW218851   6.316   5.687  11.236
 5652SOL     OW18852  13.029   3.563   7.951
 5652SOL    HW118853  13.000   3.652   7.971
 5652SOL    HW218854  13.016   3.554   7.856
 5653SOL     OW18855   3.674  12.739   8.294
 5653SOL    HW118856   3.629  12.726   8.210
 5653SOL    HW218857   3.625  12.684   8.355
 5654SOL     OW18858  12.337   7.300   6.858
 5654SOL    HW118859  12.304   7.340   6.938
 5654SOL    HW218860  12.427   7.334   6.850
 5655SOL     OW18861   9.260  11.901  10.246
 5655SOL    HW118862   9.226  11.859  10.325
 5655SOL    HW218863   9.197  11.969  10.225
 5656SOL     OW18864   0.724   9.216   0.536
 5656SOL    HW118865   0.731   9.225   0.441
 5656SOL    HW218866   0.635   9.184   0.551
 5657SOL     OW18867   7.815   9.527  10.431
 5657SOL    HW118868   7.904   9.492  10.436
 5657SOL    HW218869   7.798   9.537  10.338
 5658SOL     OW18870  10.800   4.393   8.405
 5658SOL    HW118871  10.815   4.486   8.388
 5658SOL    HW218872  10.778   4.356   8.319
 5659SOL     OW18873  13.682  12.147  10.570
 5659SOL    HW118874  13.762  12.179  10.612
 5659SOL    HW218875  13.667  12.207  10.497
 5660SOL     OW18876   0.071  10.019   1.613
 5660SOL    HW118877   0.022  10.067   1.546
 5660SOL    HW218878   0.106   9.943   1.568
 5661SOL     OW18879   3.334   6.001   9.014
 5661SOL    HW118880   3.310   6.080   8.966
 5661SOL    HW218881   3.253   5.950   9.020
 5662SOL     OW18882   6.743   4.442   8.667
 5662SOL    HW118883   6.807   4.396   8.613
 5662SOL    HW218884   6.663   4.390   8.659
 5663SOL     OW18885   0.204  13.530   9.098
 5663SOL    HW118886   0.129  13.523   9.156
 5663SOL    HW218887   0.218  13.624   9.087
 5664SOL     OW18888   7.211   7.347   4.701
 5664SOL    HW118889   7.125   7.359   4.661
 5664SOL    HW218890   7.215   7.413   4.770
 5665SOL     OW18891   4.751   7.213   2.306
 5665SOL    HW118892   4.834   7.233   2.263
 5665SOL    HW218893   4.729   7.125   2.276
 5666SOL     OW18894  11.381   4.761  10.783
 5666SOL    HW118895  11.407   4.787  10.871
 5666SOL    HW218896  11.450   4.797  10.727
 5667SOL     OW18897   1.954  14.135  12.473
 5667SOL    HW118898   1.991  14.124  12.561
 5667SOL    HW218899   2.028  14.122  12.414
 5668SOL     OW18900  13.810   5.321   7.155
 5668SOL    HW118901  13.759   5.388   7.199
 5668SOL    HW218902  13.757   5.298   7.078
 5669SOL     OW18903   7.141   8.823   3.120
 5669SOL    HW118904   7.201   8.827   3.194
 5669SOL    HW218905   7.079   8.894   3.136
 5670SOL     OW18906  10.820  11.228  10.501
 5670SOL    HW118907  10.779  11.142  10.500
 5670SOL    HW218908  10.911  11.211  10.527
 5671SOL     OW18909  11.162   4.231  10.975
 5671SOL    HW118910  11.188   4.149  10.933
 5671SOL    HW218911  11.206   4.299  10.924
 5672SOL     OW18912  13.098   2.889   5.130
 5672SOL    HW118913  13.056   2.924   5.208
 5672SOL    HW218914  13.172   2.948   5.115
 5673SOL     OW18915   7.285  10.288  11.039
 5673SOL    HW118916   7.233  10.365  11.064
 5673SOL    HW218917   7.366  10.325  11.003
 5674SOL     OW18918  14.296   1.777   2.365
 5674SOL    HW118919  14.294   1.733   2.280
 5674SOL    HW218920  14.388   1.797   2.379
 5675SOL     OW18921  14.101   6.987   5.803
 5675SOL    HW118922  14.146   6.938   5.734
 5675SOL    HW218923  14.093   6.925   5.875
 5676SOL     OW18924   4.556  12.541   4.286
 5676SOL    HW118925   4.596  12.512   4.367
 5676SOL    HW218926   4.516  12.625   4.307
 5677SOL     OW18927   3.481  12.375  13.238
 5677SOL    HW118928   3.489  12.455  13.185
 5677SOL    HW218929   3.569  12.362  13.274
 5678SOL     OW18930  12.899   6.770   1.690
 5678SOL    HW118931  12.948   6.852   1.695
 5678SOL    HW218932  12.867   6.755   1.779
 5679SOL     OW18933  12.744   8.265  11.186
 5679SOL    HW118934  12.768   8.174  11.200
 5679SOL    HW218935  12.678   8.282  11.254
 5680SOL     OW18936   5.133   9.200   4.345
 5680SOL    HW118937   5.226   9.211   4.326
 5680SOL    HW218938   5.095   9.285   4.325
 5681SOL     OW18939   8.575   4.467   9.079
 5681SOL    HW118940   8.633   4.430   9.013
 5681SOL    HW218941   8.492   4.481   9.033
 5682SOL     OW18942   8.273   3.188  14.846
 5682SOL    HW118943   8.316   3.164  14.764
 5682SOL    HW218944   8.234   3.106  14.877
 5683SOL     OW18945   2.004   7.998  14.591
 5683SOL    HW118946   2.087   7.993  14.543
 5683SOL    HW218947   2.027   8.039  14.674
 5684SOL     OW18948   1.413  11.757   4.225
 5684SOL    HW118949   1.366  11.796   4.298
 5684SOL    HW218950   1.359  11.776   4.148
 5685SOL     OW18951   9.626  13.223   8.236
 5685SOL    HW118952   9.710  13.263   8.258
 5685SOL    HW218953   9.643  13.171   8.158
 5686SOL     OW18954  12.943  12.240  12.768
 5686SOL    HW118955  12.880  12.238  12.841
 5686SOL    HW218956  12.994  12.160  12.779
 5687SOL     OW18957  13.086  10.589  12.118
 5687SOL    HW118958  13.038  10.645  12.057
 5687SOL    HW218959  13.020  10.531  12.155
 5688SOL     OW18960   9.607   2.895   4.941
 5688SOL    HW118961   9.609   2.896   5.037
 5688SOL    HW218962   9.639   2.982   4.915
 5689SOL     OW18963   1.659  13.114   5.368
 5689SOL    HW118964   1.697  13.068   5.442
 5689SOL    HW218965   1.726  13.177   5.342
 5690SOL     OW18966   0.133   7.815  12.866
 5690SOL    HW118967   0.179   7.900  12.869
 5690SOL    HW218968   0.076   7.822  12.789
 5691SOL     OW18969   5.093   3.865   2.693
 5691SOL    HW118970   5.164   3.926   2.673
 5691SOL    HW218971   5.138   3.790   2.734
 5692SOL     OW18972   1.401   7.600  13.579
 5692SOL    HW118973   1.388   7.513  13.541
 5692SOL    HW218974   1.478   7.635  13.533
 5693SOL     OW18975   4.537  11.258   9.522
 5693SOL    HW118976   4.579  11.342   9.541
 5693SOL    HW218977   4.444  11.277   9.523
 5694SOL     OW18978  13.540   7.814   3.909
 5694SOL    HW118979  13.493   7.889   3.873
 5694SOL    HW218980  13.632   7.836   3.896
 5695SOL     OW18981   9.320   7.463   1.176
 5695SOL    HW118982   9.303   7.456   1.082
 5695SOL    HW218983   9.260   7.401   1.217
 5696SOL     OW18984   3.915   3.150  13.475
 5696SOL    HW118985   3.878   3.134  13.562
 5696SOL    HW218986   3.946   3.065  13.445
 5697SOL     OW18987   5.085  10.280   1.618
 5697SOL    HW118988   5.035  10.203   1.588
 5697SOL    HW218989   5.174  10.264   1.586
 5698SOL     OW18990   7.733   9.519  11.883
 5698SOL    HW118991   7.667   9.495  11.947
 5698SOL    HW218992   7.725   9.614  11.873
 5699SOL     OW18993   0.245   3.621   9.274
 5699SOL    HW118994   0.311   3.681   9.310
 5699SOL    HW218995   0.166   3.674   9.269
 5700SOL     OW18996   0.217   9.415  11.355
 5700SOL    HW118997   0.180   9.330  11.381
 5700SOL    HW218998   0.217   9.467  11.435
 5701SOL     OW18999  12.874  11.064   4.301
 5701SOL    HW119000  12.936  11.135   4.286
 5701SOL    HW219001  12.788  11.104   4.288
 5702SOL     OW19002   6.242  13.875   3.292
 5702SOL    HW119003   6.166  13.819   3.286
 5702SOL    HW219004   6.208  13.964   3.281
 5703SOL     OW19005   8.798   3.916   8.890
 5703SOL    HW119006   8.766   4.000   8.858
 5703SOL    HW219007   8.879   3.901   8.842
 5704SOL     OW19008   6.182   4.461   4.515
 5704SOL    HW119009   6.224   4.518   4.580
 5704SOL    HW219010   6.158   4.382   4.563
 5705SOL     OW19011  12.012   9.666  12.152
 5705SOL    HW119012  11.962   9.702  12.079
 5705SOL    HW219013  12.049   9.585  12.118
 5706SOL     OW19014   7.609   4.156   7.718
 5706SOL    HW119015   7.535   4.096   7.708
 5706SOL    HW219016   7.634   4.178   7.628
 5707SOL     OW19017  10.224  13.264   7.749
 5707SOL    HW119018  10.229  13.188   7.808
 5707SOL    HW219019  10.227  13.340   7.807
 5708SOL     OW19020   1.551   1.558   7.437
 5708SOL    HW119021   1.506   1.628   7.485
 5708SOL    HW219022   1.522   1.569   7.347
 5709SOL     OW19023  12.515   6.526   5.880
 5709SOL    HW119024  12.519   6.616   5.911
 5709SOL    HW219025  12.444   6.486   5.929
 5710SOL     OW19026   0.278   7.931   3.016
 5710SOL    HW119027   0.358   7.884   3.039
 5710SOL    HW219028   0.228   7.935   3.098
 5711SOL     OW19029  14.155   2.473   8.224
 5711SOL    HW119030  14.196   2.526   8.292
 5711SOL    HW219031  14.223   2.410   8.199
 5712SOL     OW19032  13.728  12.477   3.655
 5712SOL    HW119033  13.640  12.450   3.681
 5712SOL    HW219034  13.717  12.508   3.565
 5713SOL     OW19035   8.352  14.406  10.950
 5713SOL    HW119036   8.339  14.479  11.010
 5713SOL    HW219037   8.265  14.366  10.941
 5714SOL     OW19038   2.561  13.336  14.103
 5714SOL    HW119039   2.546  13.369  14.191
 5714SOL    HW219040   2.645  13.291  14.107
 5715SOL     OW19041   9.589  10.877  11.520
 5715SOL    HW119042   9.652  10.856  11.589
 5715SOL    HW219043   9.503  10.861  11.560
 5716SOL     OW19044   9.849   0.635  11.456
 5716SOL    HW119045   9.807   0.619  11.540
 5716SOL    HW219046   9.852   0.730  11.447
 5717SOL     OW19047  10.997  14.140   2.950
 5717SOL    HW119048  10.953  14.076   3.006
 5717SOL    HW219049  11.016  14.213   3.008
 5718SOL     OW19050  10.841   4.712   5.945
 5718SOL    HW119051  10.935   4.698   5.962
 5718SOL    HW219052  10.839   4.763   5.863
 5719SOL     OW19053  14.541   0.312   6.071
 5719SOL    HW119054  14.562   0.394   6.026
 5719SOL    HW219055  14.508   0.339   6.157
 5720SOL     OW19056   1.665   4.844  12.205
 5720SOL    HW119057   1.570   4.843  12.192
 5720SOL    HW219058   1.677   4.815  12.295
 5721SOL     OW19059   1.586   5.423   6.689
 5721SOL    HW119060   1.658   5.471   6.648
 5721SOL    HW219061   1.571   5.348   6.632
 5722SOL     OW19062   8.824   8.745  12.084
 5722SOL    HW119063   8.743   8.697  12.068
 5722SOL    HW219064   8.856   8.711  12.168
 5723SOL     OW19065   4.679  12.810   8.480
 5723SOL    HW119066   4.681  12.850   8.393
 5723SOL    HW219067   4.590  12.825   8.512
 5724SOL     OW19068   1.287  11.216   9.161
 5724SOL    HW119069   1.263  11.285   9.222
 5724SOL    HW219070   1.381  11.227   9.147
 5725SOL     OW19071  13.252  13.719  10.925
 5725SOL    HW119072  13.228  13.721  11.018
 5725SOL    HW219073  13.277  13.809  10.904
 5726SOL     OW19074   3.796  10.575  11.229
 5726SOL    HW119075   3.867  10.617  11.278
 5726SOL    HW219076   3.777  10.495  11.277
 5727SOL     OW19077   5.904   5.653   7.774
 5727SOL    HW119078   5.990   5.669   7.814
 5727SOL    HW219079   5.903   5.710   7.697
 5728SOL     OW19080  11.962   7.766   8.048
 5728SOL    HW119081  11.939   7.803   7.963
 5728SOL    HW219082  11.921   7.825   8.111
 5729SOL     OW19083  11.728   9.190  10.006
 5729SOL    HW119084  11.814   9.147  10.013
 5729SOL    HW219085  11.741   9.275  10.049
 5730SOL     OW19086   8.331   2.117  13.147
 5730SOL    HW119087   8.391   2.163  13.206
 5730SOL    HW219088   8.377   2.117  13.063
 5731SOL     OW19089   8.425  12.163  10.035
 5731SOL    HW119090   8.392  12.227  10.099
 5731SOL    HW219091   8.349  12.139   9.983
 5732SOL     OW19092  12.690   9.548   4.722
 5732SOL    HW119093  12.659   9.483   4.658
 5732SOL    HW219094  12.695   9.499   4.804
 5733SOL     OW19095   4.379   6.863   3.366
 5733SOL    HW119096   4.363   6.800   3.295
 5733SOL    HW219097   4.357   6.815   3.446
 5734SOL     OW19098  12.801   7.153  13.662
 5734SOL    HW119099  12.833   7.242  13.649
 5734SOL    HW219100  12.870   7.098  13.625
 5735SOL     OW19101  14.815   8.147   0.253
 5735SOL    HW119102  14.748   8.175   0.191
 5735SOL    HW219103  14.877   8.096   0.201
 5736SOL     OW19104   1.642  13.057   3.916
 5736SOL    HW119105   1.630  12.976   3.965
 5736SOL    HW219106   1.721  13.097   3.953
 5737SOL     OW19107   5.165   0.064   5.879
 5737SOL    HW119108   5.084   0.093   5.835
 5737SOL    HW219109   5.148  14.853   5.903
 5738SOL     OW19110   7.910   0.870   3.392
 5738SOL    HW119111   7.978   0.919   3.437
 5738SOL    HW219112   7.952   0.836   3.313
 5739SOL     OW19113  12.160   8.194  13.565
 5739SOL    HW119114  12.074   8.202  13.525
 5739SOL    HW219115  12.142   8.192  13.660
 5740SOL     OW19116   0.163   7.065  11.172
 5740SOL    HW119117   0.107   7.038  11.245
 5740SOL    HW219118   0.251   7.066  11.209
 5741SOL     OW19119   0.136   1.152   4.336
 5741SOL    HW119120   0.110   1.223   4.278
 5741SOL    HW219121   0.212   1.112   4.293
 5742SOL     OW19122   5.602  13.008   0.953
 5742SOL    HW119123   5.590  13.062   1.032
 5742SOL    HW219124   5.685  12.963   0.968
 5743SOL     OW19125  13.753   6.324   1.462
 5743SOL    HW119126  13.819   6.287   1.521
 5743SOL    HW219127  13.731   6.408   1.501
 5744SOL     OW19128  11.323  14.584   5.861
 5744SOL    HW119129  11.236  14.621   5.843
 5744SOL    HW219130  11.378  14.618   5.790
 5745SOL     OW19131   3.680   8.285  11.844
 5745SOL    HW119132   3.742   8.252  11.780
 5745SOL    HW219133   3.595   8.280  11.800
 5746SOL     OW19134  12.591   9.567   1.244
 5746SOL    HW119135  12.527   9.581   1.174
 5746SOL    HW219136  12.672   9.546   1.198
 5747SOL     OW19137   7.240   3.221   9.766
 5747SOL    HW119138   7.153   3.260   9.779
 5747SOL    HW219139   7.285   3.284   9.710
 5748SOL     OW19140  10.525   8.600   6.920
 5748SOL    HW119141  10.559   8.512   6.937
 5748SOL    HW219142  10.484   8.625   7.002
 5749SOL     OW19143   3.394   4.013   5.996
 5749SOL    HW119144   3.354   4.095   5.967
 5749SOL    HW219145   3.468   4.001   5.936
 5750SOL     OW19146   5.127   9.037   4.117
 5750SOL    HW119147   5.222   9.024   4.115
 5750SOL    HW219148   5.111   9.088   4.197
 5751SOL     OW19149   1.108   4.329   5.024
 5751SOL    HW119150   1.081   4.391   5.092
 5751SOL    HW219151   1.101   4.379   4.943
 5752SOL     OW19152  10.587  13.535   8.568
 5752SOL    HW119153  10.534  13.563   8.494
 5752SOL    HW219154  10.543  13.457   8.601
 5753SOL     OW19155   8.083  13.684   6.570
 5753SOL    HW119156   8.026  13.759   6.550
 5753SOL    HW219157   8.031  13.629   6.629
 5754SOL     OW19158   3.659   7.049   8.087
 5754SOL    HW119159   3.622   6.996   8.157
 5754SOL    HW219160   3.751   7.023   8.082
 5755SOL     OW19161   1.436   1.365   0.795
 5755SOL    HW119162   1.375   1.294   0.776
 5755SOL    HW219163   1.411   1.395   0.882
 5756SOL     OW19164   0.555  11.328   2.982
 5756SOL    HW119165   0.647  11.306   2.966
 5756SOL    HW219166   0.529  11.270   3.054
 5757SOL     OW19167   7.245  12.585  12.189
 5757SOL    HW119168   7.177  12.518  12.192
 5757SOL    HW219169   7.209  12.658  12.240
 5758SOL     OW19170  12.805  12.069  13.454
 5758SOL    HW119171  12.751  12.053  13.376
 5758SOL    HW219172  12.894  12.046  13.426
 5759SOL     OW19173  14.130  11.011  11.406
 5759SOL    HW119174  14.057  11.073  11.406
 5759SOL    HW219175  14.200  11.057  11.452
 5760SOL     OW19176  10.852   3.049  13.839
 5760SOL    HW119177  10.810   3.127  13.874
 5760SOL    HW219178  10.810   3.036  13.754
 5761SOL     OW19179  14.871   3.831   5.947
 5761SOL    HW119180  14.855   3.833   6.042
 5761SOL    HW219181  14.849   3.742   5.921
 5762SOL     OW19182   7.653  10.269   2.332
 5762SOL    HW119183   7.663  10.347   2.278
 5762SOL    HW219184   7.693  10.199   2.280
 5763SOL     OW19185   2.070  14.551   6.441
 5763SOL    HW119186   2.022  14.494   6.501
 5763SOL    HW219187   2.053  14.514   6.355
 5764SOL     OW19188  10.804   3.420   8.384
 5764SOL    HW119189  10.797   3.515   8.375
 5764SOL    HW219190  10.825   3.389   8.296
 5765SOL     OW19191   1.202   5.354  13.628
 5765SOL    HW119192   1.125   5.408  13.606
 5765SOL    HW219193   1.277   5.410  13.607
 5766SOL     OW19194   0.032   4.649  11.689
 5766SOL    HW119195  14.862   4.570  11.708
 5766SOL    HW219196   0.012   4.669  11.597
 5767SOL     OW19197   7.142  11.392  14.073
 5767SOL    HW119198   7.174  11.332  14.005
 5767SOL    HW219199   7.146  11.478  14.032
 5768SOL     OW19200  12.306  13.949   1.037
 5768SOL    HW119201  12.370  13.894   1.082
 5768SOL    HW219202  12.231  13.951   1.096
 5769SOL     OW19203   3.889   2.805   1.339
 5769SOL    HW119204   3.888   2.892   1.381
 5769SOL    HW219205   3.938   2.750   1.400
 5770SOL     OW19206   3.671   8.693   5.632
 5770SOL    HW119207   3.722   8.687   5.551
 5770SOL    HW219208   3.737   8.710   5.700
 5771SOL     OW19209   2.539  11.573   1.762
 5771SOL    HW119210   2.578  11.597   1.678
 5771SOL    HW219211   2.444  11.573   1.745
 5772SOL     OW19212   9.814  13.294   9.649
 5772SOL    HW119213   9.749  13.259   9.588
 5772SOL    HW219214   9.768  13.364   9.696
 5773SOL     OW19215   4.422   7.376  11.358
 5773SOL    HW119216   4.420   7.306  11.292
 5773SOL    HW219217   4.456   7.334  11.437
 5774SOL     OW19218   3.799   2.329   1.835
 5774SOL    HW119219   3.889   2.314   1.866
 5774SOL    HW219220   3.808   2.342   1.741
 5775SOL     OW19221   1.356   2.115  12.646
 5775SOL    HW119222   1.432   2.155  12.688
 5775SOL    HW219223   1.293   2.103  12.717
 5776SOL     OW19224   3.465  12.950   9.954
 5776SOL    HW119225   3.374  12.948   9.923
 5776SOL    HW219226   3.513  12.994   9.883
 5777SOL     OW19227  11.381   1.529   0.555
 5777SOL    HW119228  11.391   1.622   0.533
 5777SOL    HW219229  11.292   1.507   0.526
 5778SOL     OW19230   5.999   7.591  14.679
 5778SOL    HW119231   5.913   7.549  14.689
 5778SOL    HW219232   6.012   7.639  14.761
 5779SOL     OW19233   4.643  12.044  11.278
 5779SOL    HW119234   4.698  11.978  11.320
 5779SOL    HW219235   4.574  11.993  11.235
 5780SOL     OW19236   0.845   4.955  13.664
 5780SOL    HW119237   0.821   5.019  13.731
 5780SOL    HW219238   0.940   4.968  13.652
 5781SOL     OW19239  12.886  11.395   9.605
 5781SOL    HW119240  12.812  11.429   9.555
 5781SOL    HW219241  12.891  11.453   9.681
 5782SOL     OW19242   2.097   3.626   4.224
 5782SOL    HW119243   2.104   3.637   4.319
 5782SOL    HW219244   2.184   3.597   4.196
 5783SOL     OW19245   1.063   8.132   6.570
 5783SOL    HW119246   1.111   8.210   6.595
 5783SOL    HW219247   1.061   8.133   6.475
 5784SOL     OW19248   7.910  10.216   0.012
 5784SOL    HW119249   7.848  10.199   0.082
 5784SOL    HW219250   7.897  10.145  14.829
 5785SOL     OW19251  12.633   2.366   2.808
 5785SOL    HW119252  12.679   2.407   2.881
 5785SOL    HW219253  12.561   2.426   2.789
 5786SOL     OW19254   5.425   4.671  13.959
 5786SOL    HW119255   5.339   4.709  13.980
 5786SOL    HW219256   5.488   4.731  13.999
 5787SOL     OW19257   8.645  12.864   6.271
 5787SOL    HW119258   8.560  12.900   6.297
 5787SOL    HW219259   8.709  12.920   6.316
 5788SOL     OW19260   9.095   9.205  10.616
 5788SOL    HW119261   9.077   9.275  10.553
 5788SOL    HW219262   9.097   9.125  10.563
 5789SOL     OW19263   2.986   3.343  14.528
 5789SOL    HW119264   3.070   3.357  14.573
 5789SOL    HW219265   3.007   3.277  14.461
 5790SOL     OW19266  10.953   8.474   7.457
 5790SOL    HW119267  10.958   8.518   7.542
 5790SOL    HW219268  10.926   8.542   7.396
 5791SOL     OW19269   8.036   9.457   3.361
 5791SOL    HW119270   8.076   9.370   3.353
 5791SOL    HW219271   7.946   9.445   3.330
 5792SOL     OW19272  13.852   0.707   5.706
 5792SOL    HW119273  13.944   0.727   5.725
 5792SOL    HW219274  13.807   0.723   5.789
 5793SOL     OW19275  10.776   6.659   9.022
 5793SOL    HW119276  10.783   6.650   9.117
 5793SOL    HW219277  10.835   6.732   9.000
 5794SOL     OW19278   1.388   0.968   2.337
 5794SOL    HW119279   1.446   0.894   2.353
 5794SOL    HW219280   1.408   0.997   2.249
 5795SOL     OW19281   5.911  12.924   8.047
 5795SOL    HW119282   5.935  12.946   8.137
 5795SOL    HW219283   5.987  12.878   8.012
 5796SOL     OW19284   7.744  12.390   4.436
 5796SOL    HW119285   7.718  12.298   4.429
 5796SOL    HW219286   7.736  12.410   4.529
 5797SOL     OW19287   7.629   7.161  12.042
 5797SOL    HW119288   7.629   7.254  12.018
 5797SOL    HW219289   7.619   7.161  12.137
 5798SOL     OW19290   5.049  12.344   3.669
 5798SOL    HW119291   4.956  12.360   3.653
 5798SOL    HW219292   5.053  12.256   3.707
 5799SOL     OW19293  10.548   2.392   8.292
 5799SOL    HW119294  10.469   2.432   8.257
 5799SOL    HW219295  10.593   2.356   8.216
 5800SOL     OW19296   9.819  14.834   7.611
 5800SOL    HW119297   9.762   0.031   7.621
 5800SOL    HW219298   9.763  14.767   7.574
 5801SOL     OW19299   8.488   3.399   7.020
 5801SOL    HW119300   8.516   3.328   7.077
 5801SOL    HW219301   8.497   3.363   6.931
 5802SOL     OW19302   8.134   9.727   9.726
 5802SOL    HW119303   8.179   9.761   9.649
 5802SOL    HW219304   8.041   9.730   9.703
 5803SOL     OW19305   1.263   9.850   6.085
 5803SOL    HW119306   1.204   9.776   6.075
 5803SOL    HW219307   1.282   9.854   6.178
 5804SOL     OW19308  10.394  14.284  10.958
 5804SOL    HW119309  10.366  14.335  10.882
 5804SOL    HW219310  10.324  14.221  10.972
 5805SOL     OW19311   1.717   9.706   6.978
 5805SOL    HW119312   1.637   9.731   6.932
 5805SOL    HW219313   1.747   9.627   6.933
 5806SOL     OW19314   7.712   9.830  14.879
 5806SOL    HW119315   7.748   9.901  14.826
 5806SOL    HW219316   7.649   9.786  14.821
 5807SOL     OW19317   5.086   6.093   5.070
 5807SOL    HW119318   5.164   6.068   5.120
 5807SOL    HW219319   5.107   6.070   4.979
 5808SOL     OW19320   6.629   1.836  13.777
 5808SOL    HW119321   6.555   1.781  13.802
 5808SOL    HW219322   6.659   1.875  13.859
 5809SOL     OW19323  14.555   3.463   1.420
 5809SOL    HW119324  14.612   3.420   1.357
 5809SOL    HW219325  14.542   3.551   1.385
 5810SOL     OW19326   9.589   1.718   2.394
 5810SOL    HW119327   9.535   1.697   2.317
 5810SOL    HW219328   9.580   1.813   2.404
 5811SOL     OW19329   7.835   1.242   0.680
 5811SOL    HW119330   7.823   1.303   0.752
 5811SOL    HW219331   7.918   1.268   0.640
 5812SOL     OW19332  10.444   9.827   0.271
 5812SOL    HW119333  10.359   9.783   0.267
 5812SOL    HW219334  10.445   9.870   0.356
 5813SOL     OW19335   6.503  13.187   7.940
 5813SOL    HW119336   6.445  13.263   7.950
 5813SOL    HW219337   6.497  13.165   7.847
 5814SOL     OW19338   6.337   8.604   0.617
 5814SOL    HW119339   6.406   8.627   0.555
 5814SOL    HW219340   6.266   8.665   0.596
 5815SOL     OW19341   2.309  14.746   6.920
 5815SOL    HW119342   2.294  14.652   6.915
 5815SOL    HW219343   2.221  14.784   6.927
 5816SOL     OW19344   9.697   1.634  14.395
 5816SOL    HW119345   9.620   1.591  14.431
 5816SOL    HW219346   9.752   1.651  14.471
 5817SOL     OW19347  13.853  11.584   2.649
 5817SOL    HW119348  13.832  11.548   2.563
 5817SOL    HW219349  13.933  11.539   2.676
 5818SOL     OW19350   4.120   9.338   8.494
 5818SOL    HW119351   4.198   9.294   8.527
 5818SOL    HW219352   4.114   9.313   8.402
 5819SOL     OW19353   4.243   9.192   6.818
 5819SOL    HW119354   4.186   9.263   6.847
 5819SOL    HW219355   4.237   9.194   6.723
 5820SOL     OW19356   6.357   7.348   6.199
 5820SOL    HW119357   6.265   7.352   6.174
 5820SOL    HW219358   6.357   7.373   6.292
 5821SOL     OW19359   1.436   9.197  10.545
 5821SOL    HW119360   1.498   9.201  10.472
 5821SOL    HW219361   1.436   9.285  10.582
 5822SOL     OW19362   7.213   9.541   7.476
 5822SOL    HW119363   7.128   9.505   7.501
 5822SOL    HW219364   7.237   9.492   7.398
 5823SOL     OW19365  11.974   4.436   9.185
 5823SOL    HW119366  11.952   4.400   9.099
 5823SOL    HW219367  12.017   4.364   9.231
 5824SOL     OW19368  12.772   3.792   6.177
 5824SOL    HW119369  12.777   3.821   6.269
 5824SOL    HW219370  12.753   3.872   6.128
 5825SOL     OW19371   1.164   5.912   2.324
 5825SOL    HW119372   1.137   5.973   2.393
 5825SOL    HW219373   1.244   5.951   2.287
 5826SOL     OW19374   0.492   4.434  11.433
 5826SOL    HW119375   0.522   4.350  11.467
 5826SOL    HW219376   0.410   4.452  11.479
 5827SOL     OW19377  10.197   0.721   1.359
 5827SOL    HW119378  10.159   0.755   1.278
 5827SOL    HW219379  10.121   0.701   1.414
 5828SOL     OW19380  12.244   3.083   6.867
 5828SOL    HW119381  12.217   3.163   6.913
 5828SOL    HW219382  12.261   3.020   6.937
 5829SOL     OW19383   4.828  10.558   5.749
 5829SOL    HW119384   4.794  10.640   5.713
 5829SOL    HW219385   4.786  10.550   5.835
 5830SOL     OW19386  12.869   2.721   3.351
 5830SOL    HW119387  12.864   2.811   3.381
 5830SOL    HW219388  12.871   2.669   3.431
 5831SOL     OW19389   4.240  10.120   9.591
 5831SOL    HW119390   4.161  10.068   9.581
 5831SOL    HW219391   4.216  10.207   9.557
 5832SOL     OW19392   4.452  13.621   7.149
 5832SOL    HW119393   4.517  13.552   7.163
 5832SOL    HW219394   4.491  13.678   7.084
 5833SOL     OW19395   2.734   8.230   5.496
 5833SOL    HW119396   2.748   8.156   5.554
 5833SOL    HW219397   2.649   8.266   5.523
 5834SOL     OW19398   8.750  14.372  10.719
 5834SOL    HW119399   8.677  14.311  10.712
 5834SOL    HW219400   8.719  14.452  10.677
 5835SOL     OW19401   4.699  12.791   7.570
 5835SOL    HW119402   4.614  12.766   7.533
 5835SOL    HW219403   4.762  12.767   7.503
 5836SOL     OW19404   6.704  12.019  10.278
 5836SOL    HW119405   6.748  12.010  10.363
 5836SOL    HW219406   6.635  11.952  10.279
 5837SOL     OW19407   2.073  13.338  12.966
 5837SOL    HW119408   2.068  13.299  12.879
 5837SOL    HW219409   1.983  13.333  12.999
 5838SOL     OW19410   3.944   4.715   5.300
 5838SOL    HW119411   3.977   4.646   5.359
 5838SOL    HW219412   3.922   4.669   5.219
 5839SOL     OW19413  10.652   0.931   1.317
 5839SOL    HW119414  10.602   1.007   1.345
 5839SOL    HW219415  10.711   0.913   1.391
 5840SOL     OW19416   6.636   8.214  13.077
 5840SOL    HW119417   6.586   8.197  13.156
 5840SOL    HW219418   6.643   8.129  13.034
 5841SOL     OW19419   6.440   9.796  11.814
 5841SOL    HW119420   6.380   9.811  11.888
 5841SOL    HW219421   6.421   9.868  11.753
 5842SOL     OW19422   4.200  13.071   1.311
 5842SOL    HW119423   4.109  13.079   1.338
 5842SOL    HW219424   4.197  13.067   1.216
 5843SOL     OW19425   4.759   2.620  14.648
 5843SOL    HW119426   4.684   2.677  14.631
 5843SOL    HW219427   4.760   2.559  14.574
 5844SOL     OW19428   5.968   1.996  13.461
 5844SOL    HW119429   6.043   1.948  13.495
 5844SOL    HW219430   5.912   1.928  13.422
 5845SOL     OW19431   0.034   1.996   4.969
 5845SOL    HW119432  14.871   2.049   4.903
 5845SOL    HW219433   0.077   1.926   4.920
 5846SOL     OW19434   3.719  10.891   8.867
 5846SOL    HW119435   3.665  10.968   8.849
 5846SOL    HW219436   3.809  10.920   8.848
 5847SOL     OW19437   1.180   1.547   9.178
 5847SOL    HW119438   1.160   1.494   9.255
 5847SOL    HW219439   1.145   1.634   9.198
 5848SOL     OW19440  12.022   0.955   6.236
 5848SOL    HW119441  11.982   0.947   6.323
 5848SOL    HW219442  12.087   1.024   6.246
 5849SOL     OW19443  11.024  13.632  11.320
 5849SOL    HW119444  11.103  13.590  11.284
 5849SOL    HW219445  10.970  13.649  11.243
 5850SOL     OW19446  12.037  10.947   9.577
 5850SOL    HW119447  12.099  10.917   9.511
 5850SOL    HW219448  12.061  11.039   9.592
 5851SOL     OW19449   6.923  11.396  12.621
 5851SOL    HW119450   6.940  11.311  12.662
 5851SOL    HW219451   6.878  11.374  12.539
 5852SOL     OW19452   2.340   2.131   3.717
 5852SOL    HW119453   2.331   2.123   3.812
 5852SOL    HW219454   2.272   2.074   3.682
 5853SOL     OW19455   5.749  14.220  11.319
 5853SOL    HW119456   5.834  14.175  11.316
 5853SOL    HW219457   5.742  14.264  11.235
 5854SOL     OW19458   1.218   9.931   9.234
 5854SOL    HW119459   1.258   9.934   9.321
 5854SOL    HW219460   1.138   9.983   9.243
 5855SOL     OW19461  12.455   3.492   8.231
 5855SOL    HW119462  12.527   3.468   8.174
 5855SOL    HW219463  12.396   3.543   8.175
 5856SOL     OW19464   5.548   6.558  10.497
 5856SOL    HW119465   5.531   6.648  10.523
 5856SOL    HW219466   5.461   6.520  10.483
 5857SOL     OW19467   1.171  11.335   1.085
 5857SOL    HW119468   1.263  11.349   1.103
 5857SOL    HW219469   1.132  11.422   1.087
 5858SOL     OW19470  14.223  12.795   5.337
 5858SOL    HW119471  14.136  12.820   5.307
 5858SOL    HW219472  14.257  12.739   5.268
 5859SOL     OW19473   9.148   1.536   6.200
 5859SOL    HW119474   9.197   1.597   6.144
 5859SOL    HW219475   9.118   1.468   6.139
 5860SOL     OW19476   3.710   8.739   4.468
 5860SOL    HW119477   3.621   8.751   4.436
 5860SOL    HW219478   3.732   8.648   4.445
 5861SOL     OW19479   6.548   9.844  10.834
 5861SOL    HW119480   6.517   9.874  10.920
 5861SOL    HW219481   6.480   9.785  10.804
 5862SOL     OW19482   9.132  13.960  11.271
 5862SOL    HW119483   9.154  14.011  11.349
 5862SOL    HW219484   9.184  13.881  11.279
 5863SOL     OW19485   9.187   2.106   9.088
 5863SOL    HW119486   9.174   2.021   9.130
 5863SOL    HW219487   9.099   2.140   9.074
 5864SOL     OW19488   2.966   2.631  10.124
 5864SOL    HW119489   3.020   2.554  10.140
 5864SOL    HW219490   2.876   2.602  10.141
 5865SOL     OW19491   5.433  13.953  12.879
 5865SOL    HW119492   5.419  13.915  12.966
 5865SOL    HW219493   5.416  13.880  12.819
 5866SOL     OW19494   0.122   5.468  11.895
 5866SOL    HW119495   0.033   5.446  11.921
 5866SOL    HW219496   0.152   5.528  11.963
 5867SOL     OW19497  11.330   0.546   7.116
 5867SOL    HW119498  11.322   0.451   7.102
 5867SOL    HW219499  11.424   0.561   7.123
 5868SOL     OW19500   7.665  10.172  11.774
 5868SOL    HW119501   7.656  10.247  11.714
 5868SOL    HW219502   7.575  10.143  11.789
 5869SOL     OW19503   0.775  11.620   7.048
 5869SOL    HW119504   0.778  11.542   7.104
 5869SOL    HW219505   0.688  11.619   7.011
 5870SOL     OW19506   8.432  13.306   2.088
 5870SOL    HW119507   8.338  13.322   2.083
 5870SOL    HW219508   8.448  13.288   2.181
 5871SOL     OW19509  10.426   6.883   6.267
 5871SOL    HW119510  10.418   6.788   6.262
 5871SOL    HW219511  10.391   6.915   6.184
 5872SOL     OW19512   3.923   7.962   7.118
 5872SOL    HW119513   3.977   8.035   7.147
 5872SOL    HW219514   3.971   7.923   7.045
 5873SOL     OW19515  13.190   2.707   8.974
 5873SOL    HW119516  13.122   2.774   8.975
 5873SOL    HW219517  13.217   2.702   8.882
 5874SOL     OW19518  14.128  13.343   7.216
 5874SOL    HW119519  14.185  13.376   7.286
 5874SOL    HW219520  14.148  13.249   7.212
 5875SOL     OW19521  12.879   2.656   9.326
 5875SOL    HW119522  12.792   2.679   9.292
 5875SOL    HW219523  12.911   2.736   9.367
 5876SOL     OW19524   1.499  10.553  11.853
 5876SOL    HW119525   1.465  10.576  11.940
 5876SOL    HW219526   1.421  10.527  11.804
 5877SOL     OW19527  10.067   3.510   2.704
 5877SOL    HW119528  10.136   3.560   2.746
 5877SOL    HW219529   9.986   3.541   2.744
 5878SOL     OW19530   2.536   7.083   4.934
 5878SOL    HW119531   2.546   7.059   5.026
 5878SOL    HW219532   2.564   7.174   4.929
 5879SOL     OW19533   1.129  12.436   5.473
 5879SOL    HW119534   1.071  12.513   5.470
 5879SOL    HW219535   1.184  12.446   5.395
 5880SOL     OW19536   1.565  14.403   0.881
 5880SOL    HW119537   1.473  14.374   0.886
 5880SOL    HW219538   1.604  14.372   0.963
 5881SOL     OW19539   7.056   5.887   6.267
 5881SOL    HW119540   6.978   5.869   6.215
 5881SOL    HW219541   7.116   5.931   6.207
 5882SOL     OW19542  13.023   5.121   1.787
 5882SOL    HW119543  13.055   5.112   1.876
 5882SOL    HW219544  13.028   5.033   1.751
 5883SOL     OW19545   9.756   2.735   4.375
 5883SOL    HW119546   9.726   2.822   4.351
 5883SOL    HW219547   9.692   2.676   4.333
 5884SOL     OW19548   1.980   4.117   7.053
 5884SOL    HW119549   2.060   4.163   7.076
 5884SOL    HW219550   2.009   4.045   6.997
 5885SOL     OW19551  12.378  11.227  11.989
 5885SOL    HW119552  12.341  11.138  11.991
 5885SOL    HW219553  12.355  11.265  12.073
 5886SOL     OW19554   8.757   5.727  12.299
 5886SOL    HW119555   8.732   5.810  12.258
 5886SOL    HW219556   8.813   5.685  12.233
 5887SOL     OW19557   1.875  11.715   2.227
 5887SOL    HW119558   1.821  11.794   2.233
 5887SOL    HW219559   1.814  11.643   2.245
 5888SOL     OW19560   6.629   4.649   7.946
 5888SOL    HW119561   6.610   4.713   8.014
 5888SOL    HW219562   6.647   4.701   7.867
 5889SOL     OW19563  13.611  10.415   9.347
 5889SOL    HW119564  13.629  10.321   9.336
 5889SOL    HW219565  13.516  10.421   9.341
 5890SOL     OW19566   5.423  12.673   9.400
 5890SOL    HW119567   5.483  12.635   9.464
 5890SOL    HW219568   5.478  12.692   9.323
 5891SOL     OW19569   4.181   6.405   6.376
 5891SOL    HW119570   4.205   6.339   6.312
 5891SOL    HW219571   4.259   6.417   6.429
 5892SOL     OW19572   5.284   1.322   9.032
 5892SOL    HW119573   5.306   1.230   9.044
 5892SOL    HW219574   5.360   1.360   8.988
 5893SOL     OW19575   8.562   2.017   9.211
 5893SOL    HW119576   8.536   1.928   9.232
 5893SOL    HW219577   8.597   2.012   9.122
 5894SOL     OW19578   6.186   8.402   8.330
 5894SOL    HW119579   6.204   8.315   8.366
 5894SOL    HW219580   6.256   8.457   8.367
 5895SOL     OW19581  10.080   9.694   0.711
 5895SOL    HW119582  10.104   9.786   0.695
 5895SOL    HW219583  10.049   9.693   0.802
 5896SOL     OW19584   5.011   0.349   8.190
 5896SOL    HW119585   4.965   0.333   8.108
 5896SOL    HW219586   5.041   0.439   8.184
 5897SOL     OW19587   5.737   1.055   8.797
 5897SOL    HW119588   5.820   1.078   8.839
 5897SOL    HW219589   5.760   0.987   8.733
 5898SOL     OW19590  13.498  10.060   5.243
 5898SOL    HW119591  13.580  10.028   5.205
 5898SOL    HW219592  13.436  10.059   5.170
 5899SOL     OW19593   3.954   0.875   2.331
 5899SOL    HW119594   4.019   0.944   2.315
 5899SOL    HW219595   3.989   0.826   2.405
 5900SOL     OW19596   0.345  10.884   9.556
 5900SOL    HW119597   0.311  10.971   9.576
 5900SOL    HW219598   0.288  10.851   9.487
 5901SOL     OW19599   1.191  13.653  13.560
 5901SOL    HW119600   1.202  13.589  13.489
 5901SOL    HW219601   1.132  13.611  13.622
 5902SOL     OW19602   9.363  13.109   7.478
 5902SOL    HW119603   9.324  13.065   7.554
 5902SOL    HW219604   9.423  13.045   7.440
 5903SOL     OW19605   7.877  12.774   7.740
 5903SOL    HW119606   7.841  12.860   7.716
 5903SOL    HW219607   7.937  12.752   7.669
 5904SOL     OW19608   5.449   7.743   9.693
 5904SOL    HW119609   5.360   7.708   9.686
 5904SOL    HW219610   5.490   7.689   9.761
 5905SOL     OW19611   8.274   9.674  13.071
 5905SOL    HW119612   8.264   9.711  13.159
 5905SOL    HW219613   8.194   9.698  13.025
 5906SOL     OW19614  13.306   3.449   0.983
 5906SOL    HW119615  13.238   3.383   0.975
 5906SOL    HW219616  13.264   3.522   1.027
 5907SOL     OW19617  14.387   0.088   1.555
 5907SOL    HW119618  14.446   0.158   1.583
 5907SOL    HW219619  14.366   0.109   1.464
 5908SOL     OW19620   2.820   6.790  13.908
 5908SOL    HW119621   2.807   6.855  13.977
 5908SOL    HW219622   2.884   6.830  13.849
 5909SOL     OW19623   5.421  11.695   6.592
 5909SOL    HW119624   5.372  11.697   6.674
 5909SOL    HW219625   5.453  11.605   6.585
 5910SOL     OW19626   2.580   1.922  10.007
 5910SOL    HW119627   2.611   1.850   9.953
 5910SOL    HW219628   2.513   1.882  10.064
 5911SOL     OW19629   8.618  13.913  10.135
 5911SOL    HW119630   8.711  13.915  10.158
 5911SOL    HW219631   8.614  13.954  10.048
 5912SOL     OW19632   5.998   0.732   9.758
 5912SOL    HW119633   6.032   0.644   9.775
 5912SOL    HW219634   5.932   0.719   9.690
 5913SOL     OW19635   9.747   7.647  13.388
 5913SOL    HW119636   9.654   7.637  13.410
 5913SOL    HW219637   9.747   7.670  13.295
 5914SOL     OW19638  14.783  10.978  13.099
 5914SOL    HW119639  14.696  10.957  13.066
 5914SOL    HW219640  14.833  11.005  13.022
 5915SOL     OW19641  14.414  10.191   4.978
 5915SOL    HW119642  14.463  10.267   5.009
 5915SOL    HW219643  14.350  10.174   5.046
 5916SOL     OW19644   9.337  10.515   7.521
 5916SOL    HW119645   9.294  10.471   7.594
 5916SOL    HW219646   9.374  10.443   7.469
 5917SOL     OW19647   6.198   9.082  10.109
 5917SOL    HW119648   6.217   9.176  10.104
 5917SOL    HW219649   6.268   9.042  10.056
 5918SOL     OW19650  10.320  13.843   7.097
 5918SOL    HW119651  10.355  13.754   7.103
 5918SOL    HW219652  10.291  13.864   7.186
 5919SOL     OW19653   6.054  13.473  11.513
 5919SOL    HW119654   6.089  13.424  11.438
 5919SOL    HW219655   5.980  13.420  11.544
 5920SOL     OW19656   0.052   2.055  10.040
 5920SOL    HW119657   0.012   1.992   9.979
 5920SOL    HW219658  14.859   2.111  10.067
 5921SOL     OW19659   1.612   2.679  13.758
 5921SOL    HW119660   1.590   2.587  13.766
 5921SOL    HW219661   1.587   2.703  13.669
 5922SOL     OW19662  10.485   1.602  13.447
 5922SOL    HW119663  10.486   1.507  13.453
 5922SOL    HW219664  10.417   1.622  13.382
 5923SOL     OW19665   1.842   2.781   8.466
 5923SOL    HW119666   1.891   2.835   8.527
 5923SOL    HW219667   1.807   2.843   8.402
 5924SOL     OW19668  10.285   7.736   5.841
 5924SOL    HW119669  10.290   7.692   5.926
 5924SOL    HW219670  10.197   7.774   5.840
 5925SOL     OW19671   7.560   3.916   3.426
 5925SOL    HW119672   7.602   3.832   3.446
 5925SOL    HW219673   7.632   3.972   3.397
 5926SOL     OW19674   4.459   4.017   3.154
 5926SOL    HW119675   4.508   4.068   3.090
 5926SOL    HW219676   4.520   4.004   3.227
 5927SOL     OW19677   1.519   4.241  12.994
 5927SOL    HW119678   1.483   4.311  12.940
 5927SOL    HW219679   1.443   4.201  13.036
 5928SOL     OW19680   3.002   0.208   6.478
 5928SOL    HW119681   3.094   0.201   6.453
 5928SOL    HW219682   3.003   0.252   6.563
 5929SOL     OW19683  14.856  11.631   1.515
 5929SOL    HW119684   0.050  11.683   1.483
 5929SOL    HW219685  14.789  11.639   1.447
 5930SOL     OW19686  13.647   0.652   8.228
 5930SOL    HW119687  13.590   0.686   8.159
 5930SOL    HW219688  13.588   0.630   8.300
 5931SOL     OW19689   3.928  10.264   4.728
 5931SOL    HW119690   4.002  10.314   4.762
 5931SOL    HW219691   3.924  10.187   4.785
 5932SOL     OW19692   6.206   9.617  10.359
 5932SOL    HW119693   6.225   9.529  10.390
 5932SOL    HW219694   6.132   9.607  10.300
 5933SOL     OW19695   0.618   4.608   9.452
 5933SOL    HW119696   0.587   4.699   9.459
 5933SOL    HW219697   0.671   4.595   9.531
 5934SOL     OW19698  11.838   2.826   6.560
 5934SOL    HW119699  11.750   2.813   6.598
 5934SOL    HW219700  11.890   2.861   6.633
 5935SOL     OW19701   1.760   2.709  13.073
 5935SOL    HW119702   1.717   2.625  13.088
 5935SOL    HW219703   1.828   2.689  13.008
 5936SOL     OW19704   9.623   3.356   7.405
 5936SOL    HW119705   9.635   3.353   7.500
 5936SOL    HW219706   9.689   3.419   7.375
 5937SOL     OW19707   5.151  14.643  12.057
 5937SOL    HW119708   5.164  14.548  12.047
 5937SOL    HW219709   5.226  14.672  12.109
 5938SOL     OW19710  11.681   9.995   5.343
 5938SOL    HW119711  11.776  10.003   5.335
 5938SOL    HW219712  11.648  10.083   5.323
 5939SOL     OW19713   3.277   5.287  10.224
 5939SOL    HW119714   3.329   5.341  10.165
 5939SOL    HW219715   3.215   5.348  10.264
 5940SOL     OW19716   3.690   7.710   9.659
 5940SOL    HW119717   3.603   7.740   9.636
 5940SOL    HW219718   3.677   7.622   9.695
 5941SOL     OW19719  14.148  13.208   3.133
 5941SOL    HW119720  14.149  13.154   3.212
 5941SOL    HW219721  14.235  13.248   3.130
 5942SOL     OW19722   5.654  12.770  12.051
 5942SOL    HW119723   5.670  12.853  12.095
 5942SOL    HW219724   5.741  12.738  12.027
 5943SOL     OW19725  12.473   4.835   0.977
 5943SOL    HW119726  12.469   4.793   0.891
 5943SOL    HW219727  12.549   4.892   0.973
 5944SOL     OW19728   6.057   0.184   0.471
 5944SOL    HW119729   6.077   0.255   0.410
 5944SOL    HW219730   6.034   0.228   0.553
 5945SOL     OW19731  11.898   1.549   6.660
 5945SOL    HW119732  11.871   1.636   6.692
 5945SOL    HW219733  11.992   1.547   6.674
 5946SOL     OW19734   9.661   3.225  14.827
 5946SOL    HW119735   9.611   3.144  14.826
 5946SOL    HW219736   9.741   3.204  14.874
 5947SOL     OW19737   6.315   2.486   6.322
 5947SOL    HW119738   6.405   2.464   6.299
 5947SOL    HW219739   6.321   2.572   6.365
 5948SOL     OW19740  14.139   4.919   0.205
 5948SOL    HW119741  14.200   4.965   0.263
 5948SOL    HW219742  14.081   4.988   0.173
 5949SOL     OW19743   8.264   1.651   7.211
 5949SOL    HW119744   8.205   1.586   7.172
 5949SOL    HW219745   8.270   1.626   7.303
 5950SOL     OW19746   1.871   7.193   2.275
 5950SOL    HW119747   1.860   7.110   2.321
 5950SOL    HW219748   1.934   7.174   2.206
 5951SOL     OW19749  10.197   1.872   9.710
 5951SOL    HW119750  10.181   1.899   9.801
 5951SOL    HW219751  10.114   1.835   9.681
 5952SOL     OW19752   0.869   5.725   1.845
 5952SOL    HW119753   0.858   5.630   1.841
 5952SOL    HW219754   0.961   5.737   1.870
 5953SOL     OW19755  11.402   5.211   5.240
 5953SOL    HW119756  11.495   5.230   5.247
 5953SOL    HW219757  11.383   5.218   5.147
 5954SOL     OW19758   9.155   0.788   8.106
 5954SOL    HW119759   9.240   0.825   8.081
 5954SOL    HW219760   9.102   0.865   8.129
 5955SOL     OW19761  13.039  12.735  11.398
 5955SOL    HW119762  12.955  12.763  11.362
 5955SOL    HW219763  13.051  12.790  11.475
 5956SOL     OW19764   8.144   2.829   9.813
 5956SOL    HW119765   8.170   2.820   9.904
 5956SOL    HW219766   8.120   2.740   9.786
 5957SOL     OW19767   3.080   1.423   9.460
 5957SOL    HW119768   3.071   1.443   9.553
 5957SOL    HW219769   2.990   1.415   9.428
 5958SOL     OW19770  10.409   8.963   0.974
 5958SOL    HW119771  10.417   9.008   1.058
 5958SOL    HW219772  10.490   8.912   0.966
 5959SOL     OW19773  14.459   4.806   5.853
 5959SOL    HW119774  14.380   4.753   5.847
 5959SOL    HW219775  14.528   4.745   5.880
 5960SOL     OW19776  12.249   2.740   1.147
 5960SOL    HW119777  12.337   2.778   1.144
 5960SOL    HW219778  12.194   2.803   1.101
 5961SOL     OW19779   1.102   0.095   9.277
 5961SOL    HW119780   1.113   0.128   9.188
 5961SOL    HW219781   1.173   0.032   9.288
 5962SOL     OW19782   9.586   1.533   5.196
 5962SOL    HW119783   9.640   1.454   5.193
 5962SOL    HW219784   9.502   1.503   5.230
 5963SOL     OW19785  12.858   5.911  10.790
 5963SOL    HW119786  12.850   5.864  10.707
 5963SOL    HW219787  12.772   5.954  10.801
 5964SOL     OW19788   4.429   3.994   6.859
 5964SOL    HW119789   4.431   4.029   6.948
 5964SOL    HW219790   4.387   3.908   6.868
 5965SOL     OW19791  14.160   0.497   0.040
 5965SOL    HW119792  14.110   0.466  14.844
 5965SOL    HW219793  14.252   0.483   0.015
 5966SOL     OW19794   1.333   5.172   5.109
 5966SOL    HW119795   1.324   5.256   5.064
 5966SOL    HW219796   1.244   5.150   5.137
 5967SOL     OW19797   6.772  13.158   2.312
 5967SOL    HW119798   6.704  13.096   2.340
 5967SOL    HW219799   6.791  13.209   2.390
 5968SOL     OW19800  13.716   5.466   8.900
 5968SOL    HW119801  13.698   5.509   8.816
 5968SOL    HW219802  13.793   5.412   8.883
 5969SOL     OW19803  10.407   5.546  12.559
 5969SOL    HW119804  10.416   5.545  12.464
 5969SOL    HW219805  10.448   5.465  12.588
 5970SOL     OW19806  11.900  10.348   1.575
 5970SOL    HW119807  11.812  10.325   1.603
 5970SOL    HW219808  11.911  10.440   1.601
 5971SOL     OW19809  14.237   6.910  14.320
 5971SOL    HW119810  14.236   6.839  14.384
 5971SOL    HW219811  14.153   6.954  14.332
 5972SOL     OW19812   0.132   2.718   4.690
 5972SOL    HW119813   0.069   2.648   4.673
 5972SOL    HW219814   0.083   2.799   4.671
 5973SOL     OW19815  12.927   2.558   4.371
 5973SOL    HW119816  12.943   2.597   4.457
 5973SOL    HW219817  13.011   2.567   4.326
 5974SOL     OW19818   0.921   7.990   8.422
 5974SOL    HW119819   0.958   8.073   8.451
 5974SOL    HW219820   0.905   7.942   8.503
 5975SOL     OW19821   6.393   7.426   9.393
 5975SOL    HW119822   6.418   7.450   9.303
 5975SOL    HW219823   6.407   7.506   9.444
 5976SOL     OW19824   4.833  10.276   9.824
 5976SOL    HW119825   4.783  10.200   9.854
 5976SOL    HW219826   4.875  10.246   9.743
 5977SOL     OW19827   8.894   9.589   1.967
 5977SOL    HW119828   8.923   9.610   1.879
 5977SOL    HW219829   8.922   9.664   2.020
 5978SOL     OW19830  13.733   4.729  12.322
 5978SOL    HW119831  13.757   4.654  12.267
 5978SOL    HW219832  13.646   4.706  12.356
 5979SOL     OW19833   3.547   8.779   2.184
 5979SOL    HW119834   3.573   8.748   2.271
 5979SOL    HW219835   3.543   8.874   2.193
 5980SOL     OW19836   9.021   1.109  13.294
 5980SOL    HW119837   9.052   1.030  13.338
 5980SOL    HW219838   8.926   1.100  13.293
 5981SOL     OW19839   2.179   6.970  12.027
 5981SOL    HW119840   2.084   6.958  12.031
 5981SOL    HW219841   2.213   6.904  12.087
 5982SOL     OW19842  12.772  13.019   9.745
 5982SOL    HW119843  12.835  13.020   9.673
 5982SOL    HW219844  12.700  12.965   9.713
 5983SOL     OW19845  13.793   2.082   2.805
 5983SOL    HW119846  13.792   2.145   2.734
 5983SOL    HW219847  13.758   2.130   2.880
 5984SOL     OW19848   4.531   7.785   9.962
 5984SOL    HW119849   4.602   7.753  10.018
 5984SOL    HW219850   4.564   7.778   9.873
 5985SOL     OW19851  13.565   5.187   0.113
 5985SOL    HW119852  13.517   5.142   0.182
 5985SOL    HW219853  13.501   5.200   0.043
 5986SOL     OW19854   4.728  13.143   7.927
 5986SOL    HW119855   4.720  13.050   7.906
 5986SOL    HW219856   4.656  13.160   7.987
 5987SOL     OW19857   7.952  14.317  11.128
 5987SOL    HW119858   8.019  14.338  11.193
 5987SOL    HW219859   7.994  14.252  11.071
 5988SOL     OW19860   1.725   3.498   4.369
 5988SOL    HW119861   1.742   3.592   4.374
 5988SOL    HW219862   1.677   3.487   4.287
 5989SOL     OW19863   9.001  14.283   9.924
 5989SOL    HW119864   9.063  14.334   9.976
 5989SOL    HW219865   8.982  14.206   9.977
 5990SOL     OW19866   8.816   3.768   4.221
 5990SOL    HW119867   8.753   3.705   4.187
 5990SOL    HW219868   8.843   3.818   4.145
 5991SOL     OW19869  14.647  12.570  10.246
 5991SOL    HW119870  14.568  12.624  10.244
 5991SOL    HW219871  14.636  12.507  10.174
 5992SOL     OW19872  14.534  14.072  10.836
 5992SOL    HW119873  14.610  14.076  10.777
 5992SOL    HW219874  14.554  14.001  10.897
 5993SOL     OW19875   3.031   4.291  13.908
 5993SOL    HW119876   3.063   4.259  13.823
 5993SOL    HW219877   2.967   4.226  13.936
 5994SOL     OW19878   8.644   8.378   4.990
 5994SOL    HW119879   8.686   8.297   5.020
 5994SOL    HW219880   8.633   8.430   5.070
 5995SOL     OW19881   3.456   5.117  12.077
 5995SOL    HW119882   3.435   5.026  12.060
 5995SOL    HW219883   3.391   5.145  12.141
 5996SOL     OW19884   0.472   1.291  13.222
 5996SOL    HW119885   0.425   1.230  13.166
 5996SOL    HW219886   0.410   1.363  13.237
 5997SOL     OW19887  12.506   5.756   7.186
 5997SOL    HW119888  12.537   5.844   7.206
 5997SOL    HW219889  12.442   5.736   7.254
 5998SOL     OW19890   5.001   4.292   7.483
 5998SOL    HW119891   4.912   4.279   7.517
 5998SOL    HW219892   4.989   4.352   7.409
 5999SOL     OW19893   1.384  10.307   8.138
 5999SOL    HW119894   1.382  10.213   8.122
 5999SOL    HW219895   1.338  10.318   8.221
 6000SOL     OW19896   4.315   6.453  14.328
 6000SOL    HW119897   4.342   6.501  14.405
 6000SOL    HW219898   4.351   6.502  14.254
 6001SOL     OW19899   5.893   7.226  13.022
 6001SOL    HW119900   5.867   7.309  12.982
 6001SOL    HW219901   5.942   7.252  13.100
 6002SOL     OW19902   1.189  11.506   7.050
 6002SOL    HW119903   1.219  11.497   7.140
 6002SOL    HW219904   1.190  11.600   7.034
 6003SOL     OW19905   5.976  10.962   3.048
 6003SOL    HW119906   5.920  10.964   3.126
 6003SOL    HW219907   6.006  10.871   3.043
 6004SOL     OW19908   4.713   2.992   7.128
 6004SOL    HW119909   4.637   2.959   7.176
 6004SOL    HW219910   4.707   2.950   7.042
 6005SOL     OW19911   3.059   3.236   6.350
 6005SOL    HW119912   3.066   3.219   6.444
 6005SOL    HW219913   3.084   3.329   6.341
 6006SOL     OW19914   0.953  12.004   8.666
 6006SOL    HW119915   0.938  12.083   8.614
 6006SOL    HW219916   0.947  11.932   8.603
 6007SOL     OW19917  10.230   4.584   3.266
 6007SOL    HW119918  10.219   4.673   3.231
 6007SOL    HW219919  10.199   4.590   3.356
 6008SOL     OW19920   2.914  13.158   7.075
 6008SOL    HW119921   2.944  13.126   7.160
 6008SOL    HW219922   2.988  13.145   7.016
 6009SOL     OW19923   7.981  12.074  11.972
 6009SOL    HW119924   7.914  12.051  12.037
 6009SOL    HW219925   7.949  12.036  11.890
 6010SOL     OW19926  11.215  14.428   1.620
 6010SOL    HW119927  11.184  14.412   1.531
 6010SOL    HW219928  11.153  14.380   1.675
 6011SOL     OW19929  10.066   3.836   0.533
 6011SOL    HW119930   9.972   3.851   0.537
 6011SOL    HW219931  10.079   3.793   0.448
 6012SOL     OW19932   0.811  10.372   8.403
 6012SOL    HW119933   0.806  10.393   8.496
 6012SOL    HW219934   0.730  10.324   8.384
 6013SOL     OW19935   1.939   9.668   7.923
 6013SOL    HW119936   1.950   9.634   7.834
 6013SOL    HW219937   1.877   9.741   7.913
 6014SOL     OW19938   6.916   8.996   7.601
 6014SOL    HW119939   6.867   9.030   7.676
 6014SOL    HW219940   6.941   9.074   7.552
 6015SOL     OW19941   6.039   0.519   6.377
 6015SOL    HW119942   5.997   0.475   6.303
 6015SOL    HW219943   6.125   0.478   6.384
 6016SOL     OW19944   4.650   1.731   8.262
 6016SOL    HW119945   4.579   1.670   8.243
 6016SOL    HW219946   4.712   1.719   8.189
 6017SOL     OW19947  13.626  11.546  11.631
 6017SOL    HW119948  13.570  11.485  11.678
 6017SOL    HW219949  13.568  11.590  11.569
 6018SOL     OW19950  13.880   0.951   3.779
 6018SOL    HW119951  13.810   1.006   3.743
 6018SOL    HW219952  13.947   1.013   3.808
 6019SOL     OW19953  13.361  10.021  14.121
 6019SOL    HW119954  13.334   9.945  14.172
 6019SOL    HW219955  13.418  10.071  14.180
 6020SOL     OW19956   7.230  13.962  10.339
 6020SOL    HW119957   7.202  13.961  10.430
 6020SOL    HW219958   7.175  13.896  10.296
 6021SOL     OW19959   4.944   5.055   1.471
 6021SOL    HW119960   5.013   4.999   1.507
 6021SOL    HW219961   4.983   5.092   1.392
 6022SOL     OW19962   9.139   8.472   6.494
 6022SOL    HW119963   9.214   8.517   6.532
 6022SOL    HW219964   9.074   8.471   6.564
 6023SOL     OW19965   6.601   6.995  10.015
 6023SOL    HW119966   6.603   6.944  10.096
 6023SOL    HW219967   6.691   7.026  10.004
 6024SOL     OW19968   7.005  10.414   7.286
 6024SOL    HW119969   7.064  10.343   7.257
 6024SOL    HW219970   6.987  10.394   7.378
 6025SOL     OW19971  12.264   6.513   4.905
 6025SOL    HW119972  12.173   6.533   4.886
 6025SOL    HW219973  12.300   6.595   4.940
 6026SOL     OW19974  13.812  14.516   9.730
 6026SOL    HW119975  13.746  14.565   9.682
 6026SOL    HW219976  13.875  14.488   9.663
 6027SOL     OW19977   0.170   8.467  11.571
 6027SOL    HW119978   0.088   8.428  11.601
 6027SOL    HW219979   0.181   8.433  11.482
 6028SOL     OW19980   4.684  14.842   3.379
 6028SOL    HW119981   4.690  14.746   3.382
 6028SOL    HW219982   4.755  14.869   3.321
 6029SOL     OW19983   2.302  12.970   3.380
 6029SOL    HW119984   2.303  12.906   3.450
 6029SOL    HW219985   2.227  12.946   3.326
 6030SOL     OW19986  14.243   9.234  10.468
 6030SOL    HW119987  14.334   9.215  10.491
 6030SOL    HW219988  14.203   9.263  10.550
 6031SOL     OW19989  10.328   0.548   7.882
 6031SOL    HW119990  10.355   0.464   7.918
 6031SOL    HW219991  10.393   0.610   7.914
 6032SOL     OW19992  12.594  14.715  11.938
 6032SOL    HW119993  12.539  14.639  11.957
 6032SOL    HW219994  12.665  14.711  12.002
 6033SOL     OW19995   6.944  10.591   8.933
 6033SOL    HW119996   6.959  10.497   8.932
 6033SOL    HW219997   6.917  10.612   8.844
 6034SOL     OW19998  11.994   3.686   9.178
 6034SOL    HW119999  11.961   3.646   9.097
 6034SOL    HW220000  11.924   3.743   9.207
 6035SOL     OW20001   6.978   2.395   4.733
 6035SOL    HW120002   7.065   2.371   4.701
 6035SOL    HW220003   6.993   2.469   4.791
 6036SOL     OW20004   7.333   3.321  13.708
 6036SOL    HW120005   7.336   3.271  13.790
 6036SOL    HW220006   7.422   3.352  13.696
 6037SOL     OW20007   7.365   0.125   4.446
 6037SOL    HW120008   7.420   0.111   4.523
 6037SOL    HW220009   7.373   0.218   4.427
 6038SOL     OW20010  13.162  14.367   1.687
 6038SOL    HW120011  13.181  14.453   1.725
 6038SOL    HW220012  13.146  14.385   1.594
 6039SOL     OW20013   2.165   6.034  14.686
 6039SOL    HW120014   2.189   5.952  14.645
 6039SOL    HW220015   2.229   6.046  14.756
 6040SOL     OW20016   5.301  13.611   1.295
 6040SOL    HW120017   5.356  13.658   1.233
 6040SOL    HW220018   5.228  13.578   1.242
 6041SOL     OW20019  13.042   8.803   5.247
 6041SOL    HW120020  13.118   8.862   5.249
 6041SOL    HW220021  12.967   8.862   5.242
 6042SOL     OW20022   4.500   2.291   0.673
 6042SOL    HW120023   4.415   2.324   0.642
 6042SOL    HW220024   4.512   2.209   0.625
 6043SOL     OW20025   8.893   0.704   7.049
 6043SOL    HW120026   8.886   0.757   6.970
 6043SOL    HW220027   8.808   0.714   7.093
 6044SOL     OW20028   9.230  10.628   8.451
 6044SOL    HW120029   9.176  10.586   8.518
 6044SOL    HW220030   9.167  10.654   8.383
 6045SOL     OW20031   8.566  10.114  11.283
 6045SOL    HW120032   8.661  10.120  11.284
 6045SOL    HW220033   8.536  10.200  11.252
 6046SOL     OW20034   5.495   6.833  14.538
 6046SOL    HW120035   5.508   6.746  14.501
 6046SOL    HW220036   5.421   6.869  14.489
 6047SOL     OW20037   8.301   8.120  13.241
 6047SOL    HW120038   8.236   8.055  13.217
 6047SOL    HW220039   8.273   8.152  13.327
 6048SOL     OW20040  10.075   9.161   0.500
 6048SOL    HW120041  10.038   9.079   0.532
 6048SOL    HW220042  10.008   9.196   0.441
 6049SOL     OW20043  10.750   4.680  13.420
 6049SOL    HW120044  10.788   4.766  13.437
 6049SOL    HW220045  10.657   4.691  13.438
 6050SOL     OW20046  12.446  14.766  12.195
 6050SOL    HW120047  12.531  14.777  12.237
 6050SOL    HW220048  12.462  14.701  12.126
 6051SOL     OW20049   4.005   6.981  14.285
 6051SOL    HW120050   4.035   7.055  14.231
 6051SOL    HW220051   3.911   6.994  14.294
 6052SOL     OW20052   4.583   7.439  13.678
 6052SOL    HW120053   4.644   7.368  13.659
 6052SOL    HW220054   4.533   7.408  13.754
 6053SOL     OW20055   8.473   5.506   3.873
 6053SOL    HW120056   8.454   5.596   3.846
 6053SOL    HW220057   8.526   5.516   3.952
 6054SOL     OW20058  13.484   3.662   5.474
 6054SOL    HW120059  13.573   3.671   5.508
 6054SOL    HW220060  13.455   3.752   5.459
 6055SOL     OW20061   6.226   6.750   6.303
 6055SOL    HW120062   6.224   6.846   6.313
 6055SOL    HW220063   6.228   6.737   6.208
 6056SOL     OW20064   7.166   3.902  14.335
 6056SOL    HW120065   7.230   3.836  14.309
 6056SOL    HW220066   7.128   3.868  14.415
 6057SOL     OW20067   2.196  11.358  11.795
 6057SOL    HW120068   2.118  11.346  11.848
 6057SOL    HW220069   2.215  11.452  11.802
 6058SOL     OW20070   1.794   5.268   3.673
 6058SOL    HW120071   1.810   5.176   3.650
 6058SOL    HW220072   1.700   5.273   3.688
 6059SOL     OW20073   0.180   6.512  12.090
 6059SOL    HW120074   0.206   6.583  12.032
 6059SOL    HW220075   0.143   6.446  12.031
 6060SOL     OW20076   6.568   5.059  12.952
 6060SOL    HW120077   6.613   5.036  13.034
 6060SOL    HW220078   6.475   5.049  12.972
 6061SOL     OW20079   6.351   8.081   5.150
 6061SOL    HW120080   6.323   8.149   5.212
 6061SOL    HW220081   6.271   8.030   5.133
 6062SOL     OW20082   9.496   9.737  14.291
 6062SOL    HW120083   9.446   9.707  14.215
 6062SOL    HW220084   9.587   9.742  14.259
 6063SOL     OW20085   5.788  10.628   8.472
 6063SOL    HW120086   5.742  10.682   8.537
 6063SOL    HW220087   5.737  10.547   8.467
 6064SOL     OW20088   7.036   7.953   2.691
 6064SOL    HW120089   7.061   8.045   2.699
 6064SOL    HW220090   7.100   7.906   2.744
 6065SOL     OW20091   1.014   8.172   7.959
 6065SOL    HW120092   1.007   8.114   8.035
 6065SOL    HW220093   0.951   8.136   7.897
 6066SOL     OW20094   7.468   5.274  14.872
 6066SOL    HW120095   7.534   5.247  14.809
 6066SOL    HW220096   7.481   5.216   0.067
 6067SOL     OW20097   7.642   0.552   6.533
 6067SOL    HW120098   7.712   0.563   6.598
 6067SOL    HW220099   7.682   0.578   6.450
 6068SOL     OW20100   3.990  13.376  11.224
 6068SOL    HW120101   4.069  13.326  11.243
 6068SOL    HW220102   4.012  13.465  11.252
 6069SOL     OW20103   1.425  12.209   5.591
 6069SOL    HW120104   1.437  12.141   5.657
 6069SOL    HW220105   1.338  12.193   5.554
 6070SOL     OW20106   2.626   2.744  12.220
 6070SOL    HW120107   2.707   2.709  12.258
 6070SOL    HW220108   2.586   2.670  12.175
 6071SOL     OW20109  12.167  13.009   5.848
 6071SOL    HW120110  12.242  13.065   5.830
 6071SOL    HW220111  12.205  12.925   5.875
 6072SOL     OW20112   4.531  13.905   0.725
 6072SOL    HW120113   4.542  13.940   0.636
 6072SOL    HW220114   4.515  13.982   0.779
 6073SOL     OW20115   6.032   8.377   4.788
 6073SOL    HW120116   6.038   8.317   4.713
 6073SOL    HW220117   5.940   8.372   4.815
 6074SOL     OW20118   5.110   7.502   7.205
 6074SOL    HW120119   5.189   7.541   7.169
 6074SOL    HW220120   5.074   7.449   7.134
 6075SOL     OW20121  14.218   4.443  11.387
 6075SOL    HW120122  14.148   4.501  11.416
 6075SOL    HW220123  14.235   4.469  11.296
 6076SOL     OW20124   8.080   6.270  14.494
 6076SOL    HW120125   8.173   6.250  14.491
 6076SOL    HW220126   8.072   6.340  14.558
 6077SOL     OW20127   3.219   6.275  13.309
 6077SOL    HW120128   3.202   6.266  13.403
 6077SOL    HW220129   3.275   6.200  13.288
 6078SOL     OW20130   5.101  10.884   9.385
 6078SOL    HW120131   5.116  10.975   9.412
 6078SOL    HW220132   5.019  10.887   9.335
 6079SOL     OW20133   0.574  11.715   2.317
 6079SOL    HW120134   0.544  11.634   2.276
 6079SOL    HW220135   0.635  11.687   2.385
 6080SOL     OW20136  12.684  12.188  14.392
 6080SOL    HW120137  12.636  12.271  14.384
 6080SOL    HW220138  12.748  12.191  14.320
 6081SOL     OW20139   3.974   1.737  11.636
 6081SOL    HW120140   3.908   1.805  11.622
 6081SOL    HW220141   3.939   1.660  11.591
 6082SOL     OW20142   7.885   2.766   6.965
 6082SOL    HW120143   7.842   2.727   7.040
 6082SOL    HW220144   7.978   2.746   6.977
 6083SOL     OW20145   4.249   6.668   4.942
 6083SOL    HW120146   4.331   6.624   4.917
 6083SOL    HW220147   4.181   6.624   4.891
 6084SOL     OW20148   4.264   9.280   3.897
 6084SOL    HW120149   4.176   9.302   3.866
 6084SOL    HW220150   4.261   9.187   3.916
 6085SOL     OW20151  14.705   2.111   3.138
 6085SOL    HW120152  14.626   2.082   3.093
 6085SOL    HW220153  14.771   2.118   3.068
 6086SOL     OW20154   0.948  12.658   8.809
 6086SOL    HW120155   0.890  12.723   8.849
 6086SOL    HW220156   0.895  12.620   8.739
 6087SOL     OW20157  13.854  11.397   9.116
 6087SOL    HW120158  13.774  11.367   9.072
 6087SOL    HW220159  13.880  11.476   9.067
 6088SOL     OW20160   7.956   8.764   8.818
 6088SOL    HW120161   7.949   8.780   8.912
 6088SOL    HW220162   7.978   8.671   8.812
 6089SOL     OW20163  10.667   6.026   0.485
 6089SOL    HW120164  10.638   5.965   0.417
 6089SOL    HW220165  10.614   6.003   0.562
 6090SOL     OW20166   9.306   1.298   4.074
 6090SOL    HW120167   9.235   1.257   4.125
 6090SOL    HW220168   9.283   1.391   4.073
 6091SOL     OW20169   5.035   7.783   4.912
 6091SOL    HW120170   5.109   7.796   4.971
 6091SOL    HW220171   4.959   7.809   4.963
 6092SOL     OW20172   3.182  14.855   2.185
 6092SOL    HW120173   3.124  14.830   2.256
 6092SOL    HW220174   3.188   0.071   2.191
 6093SOL     OW20175  11.300   7.333   0.444
 6093SOL    HW120176  11.288   7.275   0.519
 6093SOL    HW220177  11.250   7.411   0.465
 6094SOL     OW20178   7.677   8.523   4.599
 6094SOL    HW120179   7.613   8.460   4.631
 6094SOL    HW220180   7.754   8.510   4.654
 6095SOL     OW20181  13.612   7.778   9.576
 6095SOL    HW120182  13.672   7.711   9.609
 6095SOL    HW220183  13.631   7.782   9.482
 6096SOL     OW20184   9.469   8.019   8.148
 6096SOL    HW120185   9.487   7.961   8.222
 6096SOL    HW220186   9.498   7.969   8.071
 6097SOL     OW20187   9.339   0.708   2.002
 6097SOL    HW120188   9.276   0.745   2.064
 6097SOL    HW220189   9.375   0.784   1.956
 6098SOL     OW20190  13.655   1.359   3.760
 6098SOL    HW120191  13.623   1.388   3.674
 6098SOL    HW220192  13.666   1.264   3.750
 6099SOL     OW20193   5.733   3.310  10.080
 6099SOL    HW120194   5.713   3.230  10.129
 6099SOL    HW220195   5.654   3.363  10.088
 6100SOL     OW20196   5.000  10.545  14.501
 6100SOL    HW120197   4.904  10.548  14.507
 6100SOL    HW220198   5.018  10.572  14.411
 6101SOL     OW20199   6.643   8.648  13.122
 6101SOL    HW120200   6.729   8.646  13.079
 6101SOL    HW220201   6.584   8.606  13.059
 6102SOL     OW20202  12.437  11.143   3.555
 6102SOL    HW120203  12.476  11.056   3.560
 6102SOL    HW220204  12.343  11.126   3.543
 6103SOL     OW20205   2.330  13.951  11.117
 6103SOL    HW120206   2.353  13.858  11.115
 6103SOL    HW220207   2.351  13.983  11.030
 6104SOL     OW20208   3.439  10.779   2.426
 6104SOL    HW120209   3.485  10.861   2.406
 6104SOL    HW220210   3.354  10.788   2.383
 6105SOL     OW20211  11.910   9.304   1.820
 6105SOL    HW120212  11.935   9.388   1.781
 6105SOL    HW220213  11.990   9.274   1.863
 6106SOL     OW20214   3.737   3.412   7.110
 6106SOL    HW120215   3.742   3.437   7.203
 6106SOL    HW220216   3.821   3.440   7.074
 6107SOL     OW20217   5.515  10.318   7.863
 6107SOL    HW120218   5.491  10.333   7.772
 6107SOL    HW220219   5.598  10.272   7.859
 6108SOL     OW20220  14.505   0.722  12.654
 6108SOL    HW120221  14.555   0.710  12.735
 6108SOL    HW220222  14.540   0.656  12.594
 6109SOL     OW20223   8.573   9.410  10.056
 6109SOL    HW120224   8.514   9.484  10.068
 6109SOL    HW220225   8.520   9.344  10.011
 6110SOL     OW20226   2.544   2.709   0.276
 6110SOL    HW120227   2.521   2.640   0.337
 6110SOL    HW220228   2.479   2.778   0.292
 6111SOL     OW20229   0.693  10.571  13.177
 6111SOL    HW120230   0.608  10.602  13.208
 6111SOL    HW220231   0.755  10.634  13.213
 6112SOL     OW20232   7.181  14.752   1.411
 6112SOL    HW120233   7.100  14.752   1.360
 6112SOL    HW220234   7.191  14.842   1.441
 6113SOL     OW20235  12.248   0.437   4.534
 6113SOL    HW120236  12.200   0.478   4.462
 6113SOL    HW220237  12.217   0.346   4.535
 6114SOL     OW20238   4.875   5.830   4.563
 6114SOL    HW120239   4.790   5.809   4.523
 6114SOL    HW220240   4.921   5.881   4.496
 6115SOL     OW20241  11.156  10.848   3.325
 6115SOL    HW120242  11.098  10.841   3.249
 6115SOL    HW220243  11.238  10.882   3.290
 6116SOL     OW20244   0.765  12.860   8.960
 6116SOL    HW120245   0.806  12.919   9.023
 6116SOL    HW220246   0.702  12.914   8.913
 6117SOL     OW20247  13.070   8.580   5.100
 6117SOL    HW120248  13.142   8.594   5.038
 6117SOL    HW220249  13.079   8.651   5.164
 6118SOL     OW20250   8.209   4.781   6.915
 6118SOL    HW120251   8.229   4.689   6.896
 6118SOL    HW220252   8.227   4.827   6.833
 6119SOL     OW20253   0.099  14.514   2.050
 6119SOL    HW120254   0.019  14.488   2.096
 6119SOL    HW220255   0.130  14.433   2.009
 6120SOL     OW20256  13.891  13.960   8.007
 6120SOL    HW120257  13.981  13.968   7.974
 6120SOL    HW220258  13.900  13.909   8.088
 6121SOL     OW20259   8.255   4.852  14.187
 6121SOL    HW120260   8.284   4.923  14.129
 6121SOL    HW220261   8.320   4.849  14.256
 6122SOL     OW20262  12.865   3.394  12.008
 6122SOL    HW120263  12.957   3.406  11.982
 6122SOL    HW220264  12.848   3.468  12.067
 6123SOL     OW20265   1.170  14.289   3.176
 6123SOL    HW120266   1.228  14.223   3.214
 6123SOL    HW220267   1.150  14.256   3.088
 6124SOL     OW20268  10.537   1.574  12.504
 6124SOL    HW120269  10.594   1.601  12.432
 6124SOL    HW220270  10.541   1.478  12.503
 6125SOL     OW20271  12.714   9.124  10.785
 6125SOL    HW120272  12.682   9.038  10.759
 6125SOL    HW220273  12.637   9.169  10.820
 6126SOL     OW20274   9.508   7.051  12.150
 6126SOL    HW120275   9.519   7.142  12.177
 6126SOL    HW220276   9.443   7.015  12.210
 6127SOL     OW20277   6.633   8.289   6.611
 6127SOL    HW120278   6.685   8.222   6.656
 6127SOL    HW220279   6.680   8.370   6.627
 6128SOL     OW20280   8.017   3.078   9.940
 6128SOL    HW120281   8.058   3.030   9.869
 6128SOL    HW220282   7.928   3.094   9.911
 6129SOL     OW20283   8.588   7.013  12.251
 6129SOL    HW120284   8.623   6.963  12.177
 6129SOL    HW220285   8.513   7.061  12.215
 6130SOL     OW20286   0.754  12.123   4.008
 6130SOL    HW120287   0.828  12.101   3.951
 6130SOL    HW220288   0.678  12.120   3.950
 6131SOL     OW20289  10.205   0.531   9.201
 6131SOL    HW120290  10.176   0.450   9.160
 6131SOL    HW220291  10.142   0.597   9.171
 6132SOL     OW20292   7.896  14.592  12.936
 6132SOL    HW120293   7.985  14.592  12.973
 6132SOL    HW220294   7.840  14.562  13.007
 6133SOL     OW20295  11.547   0.210   4.565
 6133SOL    HW120296  11.542   0.296   4.522
 6133SOL    HW220297  11.581   0.151   4.497
 6134SOL     OW20298   3.983   7.906   6.425
 6134SOL    HW120299   4.063   7.934   6.379
 6134SOL    HW220300   3.935   7.855   6.360
 6135SOL     OW20301   1.320   0.592  10.158
 6135SOL    HW120302   1.352   0.502  10.158
 6135SOL    HW220303   1.357   0.630  10.079
 6136SOL     OW20304   3.788   8.774  13.953
 6136SOL    HW120305   3.759   8.683  13.950
 6136SOL    HW220306   3.744   8.816  13.880
 6137SOL     OW20307  11.758   3.929   1.255
 6137SOL    HW120308  11.787   4.016   1.229
 6137SOL    HW220309  11.834   3.889   1.296
 6138SOL     OW20310   2.421  10.022   8.828
 6138SOL    HW120311   2.408  10.024   8.923
 6138SOL    HW220312   2.333  10.030   8.791
 6139SOL     OW20313   0.212   8.136  14.480
 6139SOL    HW120314   0.256   8.075  14.540
 6139SOL    HW220315   0.178   8.205  14.537
 6140SOL     OW20316   1.407   3.412   5.902
 6140SOL    HW120317   1.384   3.337   5.848
 6140SOL    HW220318   1.447   3.374   5.980
 6141SOL     OW20319   2.658   0.174   9.216
 6141SOL    HW120320   2.739   0.139   9.253
 6141SOL    HW220321   2.589   0.136   9.270
 6142SOL     OW20322   8.581   3.801   8.295
 6142SOL    HW120323   8.660   3.851   8.275
 6142SOL    HW220324   8.613   3.715   8.321
 6143SOL     OW20325   2.258   3.511   2.296
 6143SOL    HW120326   2.337   3.551   2.332
 6143SOL    HW220327   2.188   3.573   2.316
 6144SOL     OW20328  11.282   8.092   9.976
 6144SOL    HW120329  11.286   8.013   9.923
 6144SOL    HW220330  11.196   8.089  10.018
 6145SOL     OW20331  12.913   9.860  12.000
 6145SOL    HW120332  12.880   9.844  11.912
 6145SOL    HW220333  12.835   9.857  12.056
 6146SOL     OW20334   9.946   3.987   9.373
 6146SOL    HW120335  10.020   3.927   9.363
 6146SOL    HW220336   9.942   4.034   9.290
 6147SOL     OW20337   6.397   7.673  11.697
 6147SOL    HW120338   6.309   7.708  11.706
 6147SOL    HW220339   6.448   7.745  11.660
 6148SOL     OW20340   2.843   1.194   4.908
 6148SOL    HW120341   2.843   1.275   4.958
 6148SOL    HW220342   2.814   1.127   4.970
 6149SOL     OW20343   1.894  12.356  10.576
 6149SOL    HW120344   1.820  12.402  10.535
 6149SOL    HW220345   1.853  12.282  10.622
 6150SOL     OW20346   5.501   7.260   1.475
 6150SOL    HW120347   5.589   7.299   1.469
 6150SOL    HW220348   5.458   7.309   1.545
 6151SOL     OW20349   1.740   1.775   5.580
 6151SOL    HW120350   1.675   1.836   5.615
 6151SOL    HW220351   1.789   1.827   5.516
 6152SOL     OW20352   7.840  11.364   9.083
 6152SOL    HW120353   7.900  11.362   9.008
 6152SOL    HW220354   7.754  11.381   9.044
 6153SOL     OW20355   2.761   0.653   8.054
 6153SOL    HW120356   2.727   0.629   7.968
 6153SOL    HW220357   2.785   0.570   8.095
 6154SOL     OW20358   7.693   5.224   3.510
 6154SOL    HW120359   7.638   5.263   3.443
 6154SOL    HW220360   7.677   5.277   3.588
 6155SOL     OW20361  10.230   4.690   7.079
 6155SOL    HW120362  10.149   4.730   7.111
 6155SOL    HW220363  10.205   4.649   6.996
 6156SOL     OW20364   1.094  14.470   8.358
 6156SOL    HW120365   1.014  14.517   8.384
 6156SOL    HW220366   1.132  14.523   8.289
 6157SOL     OW20367   1.302   8.017   3.313
 6157SOL    HW120368   1.261   7.933   3.292
 6157SOL    HW220369   1.308   8.062   3.229
 6158SOL     OW20370   9.331   9.170   2.506
 6158SOL    HW120371   9.351   9.255   2.545
 6158SOL    HW220372   9.316   9.189   2.413
 6159SOL     OW20373   5.003   2.858  13.174
 6159SOL    HW120374   4.918   2.876  13.214
 6159SOL    HW220375   4.991   2.878  13.081
 6160SOL     OW20376   8.829   9.103   1.751
 6160SOL    HW120377   8.888   9.027   1.747
 6160SOL    HW220378   8.823   9.123   1.844
 6161SOL     OW20379   0.513   3.057   4.655
 6161SOL    HW120380   0.558   2.972   4.664
 6161SOL    HW220381   0.431   3.036   4.611
 6162SOL     OW20382   5.673  13.831  11.582
 6162SOL    HW120383   5.657  13.895  11.512
 6162SOL    HW220384   5.683  13.747  11.536
 6163SOL     OW20385   6.426   7.959   7.807
 6163SOL    HW120386   6.360   7.931   7.871
 6163SOL    HW220387   6.440   8.052   7.828
 6164SOL     OW20388  13.209  13.570  10.495
 6164SOL    HW120389  13.279  13.616  10.541
 6164SOL    HW220390  13.131  13.623  10.512
 6165SOL     OW20391   4.022   4.088   9.739
 6165SOL    HW120392   4.009   4.024   9.669
 6165SOL    HW220393   4.041   4.035   9.817
 6166SOL     OW20394   5.003  13.187  11.305
 6166SOL    HW120395   4.960  13.136  11.236
 6166SOL    HW220396   5.040  13.263  11.259
 6167SOL     OW20397  12.704   8.529  10.367
 6167SOL    HW120398  12.740   8.441  10.363
 6167SOL    HW220399  12.669   8.545  10.279
 6168SOL     OW20400   7.949   0.676   3.162
 6168SOL    HW120401   7.883   0.745   3.159
 6168SOL    HW220402   7.923   0.614   3.094
 6169SOL     OW20403   8.434   5.090   9.254
 6169SOL    HW120404   8.463   5.178   9.228
 6169SOL    HW220405   8.468   5.079   9.343
 6170SOL     OW20406  10.793   1.271  13.892
 6170SOL    HW120407  10.853   1.309  13.956
 6170SOL    HW220408  10.708   1.269  13.936
 6171SOL     OW20409   7.035   1.325   8.108
 6171SOL    HW120410   7.024   1.241   8.153
 6171SOL    HW220411   6.971   1.383   8.149
 6172SOL     OW20412   1.246   2.086   4.959
 6172SOL    HW120413   1.234   2.037   5.041
 6172SOL    HW220414   1.277   2.021   4.897
 6173SOL     OW20415   9.992  13.119   8.862
 6173SOL    HW120416  10.020  13.093   8.774
 6173SOL    HW220417   9.906  13.159   8.848
 6174SOL     OW20418   9.849   9.512  10.449
 6174SOL    HW120419   9.801   9.532  10.369
 6174SOL    HW220420   9.938   9.543  10.433
 6175SOL     OW20421   5.732   4.399   4.553
 6175SOL    HW120422   5.640   4.413   4.532
 6175SOL    HW220423   5.768   4.487   4.563
 6176SOL     OW20424   5.700   8.693  13.448
 6176SOL    HW120425   5.703   8.740  13.531
 6176SOL    HW220426   5.727   8.758  13.383
 6177SOL     OW20427  11.012   0.769   5.195
 6177SOL    HW120428  11.094   0.784   5.149
 6177SOL    HW220429  10.964   0.707   5.140
 6178SOL     OW20430  13.072   7.805   3.886
 6178SOL    HW120431  13.151   7.786   3.835
 6178SOL    HW220432  13.089   7.767   3.972
 6179SOL     OW20433  11.277  10.034   7.251
 6179SOL    HW120434  11.202  10.088   7.277
 6179SOL    HW220435  11.277   9.962   7.314
 6180SOL     OW20436   9.012   1.048   1.508
 6180SOL    HW120437   9.052   1.074   1.425
 6180SOL    HW220438   8.980   0.959   1.492
 6181SOL     OW20439   1.073   9.464   8.474
 6181SOL    HW120440   1.134   9.391   8.484
 6181SOL    HW220441   1.010   9.452   8.545
 6182SOL     OW20442  10.258  13.403  12.738
 6182SOL    HW120443  10.350  13.426  12.739
 6182SOL    HW220444  10.242  13.363  12.823
 6183SOL     OW20445   6.343   8.664   6.568
 6183SOL    HW120446   6.319   8.576   6.538
 6183SOL    HW220447   6.330   8.720   6.492
 6184SOL     OW20448   9.157   9.477   7.338
 6184SOL    HW120449   9.082   9.417   7.339
 6184SOL    HW220450   9.184   9.482   7.430
 6185SOL     OW20451  12.361   0.194   9.487
 6185SOL    HW120452  12.393   0.160   9.571
 6185SOL    HW220453  12.436   0.187   9.429
 6186SOL     OW20454  13.572   5.464  12.436
 6186SOL    HW120455  13.603   5.405  12.505
 6186SOL    HW220456  13.622   5.438  12.358
 6187SOL     OW20457   5.878  14.564   0.268
 6187SOL    HW120458   5.924  14.642   0.301
 6187SOL    HW220459   5.850  14.518   0.347
 6188SOL     OW20460  13.194   8.480   7.833
 6188SOL    HW120461  13.148   8.402   7.864
 6188SOL    HW220462  13.189   8.475   7.738
 6189SOL     OW20463   7.217   5.342   0.091
 6189SOL    HW120464   7.177   5.255   0.093
 6189SOL    HW220465   7.295   5.332   0.036
 6190SOL     OW20466   0.816   5.480   5.016
 6190SOL    HW120467   0.818   5.536   4.938
 6190SOL    HW220468   0.854   5.397   4.987
 6191SOL     OW20469   6.359   8.678   3.713
 6191SOL    HW120470   6.339   8.716   3.798
 6191SOL    HW220471   6.292   8.610   3.701
 6192SOL     OW20472   2.531   4.694  13.038
 6192SOL    HW120473   2.594   4.755  13.077
 6192SOL    HW220474   2.447   4.738  13.046
 6193SOL     OW20475   4.578   4.496   4.981
 6193SOL    HW120476   4.600   4.459   4.895
 6193SOL    HW220477   4.653   4.550   5.004
 6194SOL     OW20478  11.653   9.279   1.038
 6194SOL    HW120479  11.624   9.267   0.948
 6194SOL    HW220480  11.597   9.347   1.073
 6195SOL     OW20481   5.055  11.479  12.458
 6195SOL    HW120482   5.101  11.416  12.514
 6195SOL    HW220483   5.013  11.539  12.519
 6196SOL     OW20484   8.269  14.578   9.626
 6196SOL    HW120485   8.270  14.642   9.697
 6196SOL    HW220486   8.361  14.550   9.618
 6197SOL     OW20487   1.845  14.362  13.050
 6197SOL    HW120488   1.772  14.326  12.999
 6197SOL    HW220489   1.835  14.322  13.136
 6198SOL     OW20490  10.765   6.789   5.368
 6198SOL    HW120491  10.814   6.782   5.286
 6198SOL    HW220492  10.673   6.780   5.342
 6199SOL     OW20493   6.880   2.681   1.853
 6199SOL    HW120494   6.972   2.691   1.827
 6199SOL    HW220495   6.839   2.764   1.830
 6200SOL     OW20496   9.453   3.943  14.877
 6200SOL    HW120497   9.470   3.853   0.024
 6200SOL    HW220498   9.359   3.945  14.858
 6201SOL     OW20499   3.408   6.359   2.922
 6201SOL    HW120500   3.444   6.271   2.931
 6201SOL    HW220501   3.472   6.416   2.964
 6202SOL     OW20502  12.187  14.565   3.705
 6202SOL    HW120503  12.279  14.558   3.730
 6202SOL    HW220504  12.172  14.659   3.695
 6203SOL     OW20505   0.420  11.429  10.629
 6203SOL    HW120506   0.471  11.363  10.676
 6203SOL    HW220507   0.380  11.382  10.556
 6204SOL     OW20508   7.756  11.241   6.721
 6204SOL    HW120509   7.710  11.240   6.637
 6204SOL    HW220510   7.779  11.333   6.735
 6205SOL     OW20511   3.448  12.729  12.537
 6205SOL    HW120512   3.436  12.801  12.475
 6205SOL    HW220513   3.514  12.761  12.599
 6206SOL     OW20514   0.919  10.979   2.918
 6206SOL    HW120515   0.911  10.961   3.011
 6206SOL    HW220516   0.996  10.928   2.890
 6207SOL     OW20517   6.887   2.183   9.135
 6207SOL    HW120518   6.932   2.255   9.178
 6207SOL    HW220519   6.938   2.105   9.158
 6208SOL     OW20520   3.329  10.964   8.484
 6208SOL    HW120521   3.263  10.916   8.533
 6208SOL    HW220522   3.367  10.899   8.425
 6209SOL     OW20523   9.445  12.966  13.683
 6209SOL    HW120524   9.490  13.050  13.684
 6209SOL    HW220525   9.382  12.971  13.755
 6210SOL     OW20526   1.189   1.184  13.084
 6210SOL    HW120527   1.230   1.122  13.144
 6210SOL    HW220528   1.225   1.163  12.998
 6211SOL     OW20529  14.220   6.645   3.380
 6211SOL    HW120530  14.263   6.670   3.462
 6211SOL    HW220531  14.204   6.551   3.388
 6212SOL     OW20532   4.828   6.658   7.776
 6212SOL    HW120533   4.915   6.683   7.808
 6212SOL    HW220534   4.843   6.577   7.727
 6213SOL     OW20535  11.628   5.467   2.518
 6213SOL    HW120536  11.559   5.533   2.530
 6213SOL    HW220537  11.710   5.516   2.526
 6214SOL     OW20538   3.343   2.577   2.824
 6214SOL    HW120539   3.270   2.569   2.763
 6214SOL    HW220540   3.322   2.516   2.894
 6215SOL     OW20541   0.334   0.981   5.878
 6215SOL    HW120542   0.406   0.922   5.898
 6215SOL    HW220543   0.256   0.939   5.915
 6216SOL     OW20544   8.355   3.040   8.773
 6216SOL    HW120545   8.348   2.945   8.787
 6216SOL    HW220546   8.350   3.049   8.678
 6217SOL     OW20547  10.128  11.240   1.648
 6217SOL    HW120548  10.065  11.171   1.667
 6217SOL    HW220549  10.140  11.237   1.553
 6218SOL     OW20550   6.776   9.008  11.805
 6218SOL    HW120551   6.779   8.921  11.844
 6218SOL    HW220552   6.753   9.066  11.878
 6219SOL     OW20553   5.735   7.410   1.724
 6219SOL    HW120554   5.758   7.414   1.631
 6219SOL    HW220555   5.747   7.317   1.747
 6220SOL     OW20556   0.097   5.124   5.524
 6220SOL    HW120557   0.093   5.184   5.450
 6220SOL    HW220558   0.010   5.084   5.528
 6221SOL     OW20559   5.291   8.064  12.664
 6221SOL    HW120560   5.234   8.029  12.732
 6221SOL    HW220561   5.308   7.990  12.606
 6222SOL     OW20562   8.094   9.090  14.089
 6222SOL    HW120563   8.174   9.038  14.092
 6222SOL    HW220564   8.046   9.065  14.168
 6223SOL     OW20565   4.371   1.185   7.640
 6223SOL    HW120566   4.384   1.145   7.555
 6223SOL    HW220567   4.291   1.145   7.674
 6224SOL     OW20568  10.623   0.385  11.483
 6224SOL    HW120569  10.672   0.305  11.464
 6224SOL    HW220570  10.536   0.369  11.447
 6225SOL     OW20571   8.633   3.740   1.115
 6225SOL    HW120572   8.580   3.811   1.079
 6225SOL    HW220573   8.709   3.783   1.154
 6226SOL     OW20574   9.552   3.383   0.858
 6226SOL    HW120575   9.526   3.314   0.919
 6226SOL    HW220576   9.646   3.368   0.844
 6227SOL     OW20577   9.921   2.084   8.768
 6227SOL    HW120578   9.912   2.122   8.681
 6227SOL    HW220579   9.852   2.125   8.820
 6228SOL     OW20580  11.378   0.678  13.089
 6228SOL    HW120581  11.385   0.603  13.149
 6228SOL    HW220582  11.439   0.743  13.126
 6229SOL     OW20583   7.683  10.639   1.620
 6229SOL    HW120584   7.721  10.555   1.647
 6229SOL    HW220585   7.706  10.699   1.691
 6230SOL     OW20586   2.387  14.641  11.780
 6230SOL    HW120587   2.456  14.632  11.714
 6230SOL    HW220588   2.413  14.581  11.850
 6231SOL     OW20589   6.242   7.635   0.075
 6231SOL    HW120590   6.281   7.548   0.066
 6231SOL    HW220591   6.315   7.696   0.067
 6232SOL     OW20592   6.898  13.883   0.279
 6232SOL    HW120593   6.816  13.922   0.311
 6232SOL    HW220594   6.881  13.865   0.187
 6233SOL     OW20595   2.883   8.883   1.392
 6233SOL    HW120596   2.918   8.847   1.310
 6233SOL    HW220597   2.939   8.847   1.460
 6234SOL     OW20598  10.271   6.715   3.823
 6234SOL    HW120599  10.293   6.676   3.907
 6234SOL    HW220600  10.181   6.746   3.833
 6235SOL     OW20601  13.166  11.391  10.696
 6235SOL    HW120602  13.104  11.399  10.768
 6235SOL    HW220603  13.192  11.299  10.698
 6236SOL     OW20604  12.053   6.119   3.636
 6236SOL    HW120605  12.029   6.126   3.728
 6236SOL    HW220606  12.128   6.177   3.626
 6237SOL     OW20607   1.209   3.874   3.338
 6237SOL    HW120608   1.204   3.875   3.243
 6237SOL    HW220609   1.292   3.830   3.357
 6238SOL     OW20610   7.335  13.156   3.960
 6238SOL    HW120611   7.254  13.194   3.994
 6238SOL    HW220612   7.306  13.089   3.898
 6239SOL     OW20613   2.054  13.354   7.165
 6239SOL    HW120614   2.111  13.278   7.175
 6239SOL    HW220615   1.971  13.319   7.133
 6240SOL     OW20616   7.616   2.508   6.652
 6240SOL    HW120617   7.664   2.468   6.724
 6240SOL    HW220618   7.591   2.434   6.596
 6241SOL     OW20619  13.523  14.145   4.484
 6241SOL    HW120620  13.548  14.180   4.398
 6241SOL    HW220621  13.599  14.160   4.540
 6242SOL     OW20622   8.226   8.524   2.692
 6242SOL    HW120623   8.199   8.499   2.780
 6242SOL    HW220624   8.317   8.493   2.685
 6243SOL     OW20625   9.217  14.424   5.999
 6243SOL    HW120626   9.228  14.515   6.023
 6243SOL    HW220627   9.281  14.409   5.929
 6244SOL     OW20628   4.289  12.575   2.021
 6244SOL    HW120629   4.342  12.566   1.942
 6244SOL    HW220630   4.231  12.649   2.003
 6245SOL     OW20631   8.051   6.514   8.389
 6245SOL    HW120632   8.135   6.470   8.403
 6245SOL    HW220633   8.005   6.506   8.473
 6246SOL     OW20634  11.975   8.785   7.393
 6246SOL    HW120635  12.022   8.844   7.452
 6246SOL    HW220636  11.952   8.838   7.317
 6247SOL     OW20637   9.075   4.145  10.530
 6247SOL    HW120638   9.037   4.081  10.590
 6247SOL    HW220639   9.046   4.116  10.443
 6248SOL     OW20640   8.245  14.286   7.706
 6248SOL    HW120641   8.332  14.253   7.729
 6248SOL    HW220642   8.233  14.260   7.614
 6249SOL     OW20643   1.412   7.147   6.381
 6249SOL    HW120644   1.346   7.216   6.389
 6249SOL    HW220645   1.375   7.085   6.319
 6250SOL     OW20646   6.649   8.890   5.525
 6250SOL    HW120647   6.725   8.874   5.580
 6250SOL    HW220648   6.594   8.812   5.535
 6251SOL     OW20649   8.398  10.286   0.207
 6251SOL    HW120650   8.490  10.293   0.232
 6251SOL    HW220651   8.362  10.220   0.266
 6252SOL     OW20652   3.140   9.036  12.678
 6252SOL    HW120653   3.225   9.020  12.720
 6252SOL    HW220654   3.145   9.126  12.646
 6253SOL     OW20655   4.107   7.295  10.467
 6253SOL    HW120656   4.159   7.279  10.545
 6253SOL    HW220657   4.025   7.331  10.499
 6254SOL     OW20658   5.602   3.102   7.681
 6254SOL    HW120659   5.626   3.054   7.760
 6254SOL    HW220660   5.644   3.053   7.610
 6255SOL     OW20661   5.113  10.856   0.349
 6255SOL    HW120662   5.080  10.774   0.388
 6255SOL    HW220663   5.049  10.922   0.375
 6256SOL     OW20664  10.887   9.121  13.005
 6256SOL    HW120665  10.981   9.136  13.002
 6256SOL    HW220666  10.857   9.135  12.915
 6257SOL     OW20667   4.248  12.184  13.803
 6257SOL    HW120668   4.331  12.231  13.809
 6257SOL    HW220669   4.261  12.122  13.731
 6258SOL     OW20670   2.341   0.339   0.751
 6258SOL    HW120671   2.311   0.429   0.760
 6258SOL    HW220672   2.261   0.286   0.755
 6259SOL     OW20673   4.299  12.006   7.937
 6259SOL    HW120674   4.309  11.918   7.900
 6259SOL    HW220675   4.351  12.004   8.018
 6260SOL     OW20676   3.502   7.356   2.872
 6260SOL    HW120677   3.476   7.412   2.945
 6260SOL    HW220678   3.541   7.415   2.808
 6261SOL     OW20679   0.767   5.579   5.898
 6261SOL    HW120680   0.757   5.591   5.803
 6261SOL    HW220681   0.781   5.668   5.931
 6262SOL     OW20682   8.274   6.305  14.045
 6262SOL    HW120683   8.248   6.374  13.985
 6262SOL    HW220684   8.286   6.228  13.989
 6263SOL     OW20685   7.040   1.613   7.432
 6263SOL    HW120686   7.017   1.606   7.524
 6263SOL    HW220687   7.082   1.530   7.411
 6264SOL     OW20688   0.015   4.938   4.174
 6264SOL    HW120689   0.032   4.971   4.262
 6264SOL    HW220690  14.864   4.849   4.187
 6265SOL     OW20691   2.743   6.284   5.483
 6265SOL    HW120692   2.697   6.324   5.556
 6265SOL    HW220693   2.696   6.314   5.405
 6266SOL     OW20694   3.429   6.126  12.110
 6266SOL    HW120695   3.372   6.083  12.174
 6266SOL    HW220696   3.401   6.217  12.110
 6267SOL     OW20697   4.173   5.526   4.510
 6267SOL    HW120698   4.117   5.455   4.542
 6267SOL    HW220699   4.113   5.586   4.466
 6268SOL     OW20700   1.892   3.635   7.406
 6268SOL    HW120701   1.910   3.673   7.320
 6268SOL    HW220702   1.952   3.561   7.414
 6269SOL     OW20703  13.654  12.756   4.755
 6269SOL    HW120704  13.690  12.667   4.755
 6269SOL    HW220705  13.656  12.783   4.664
 6270SOL     OW20706  10.479  14.149   8.980
 6270SOL    HW120707  10.425  14.186   8.910
 6270SOL    HW220708  10.563  14.132   8.938
 6271SOL     OW20709   8.387   9.601  10.124
 6271SOL    HW120710   8.371   9.563  10.210
 6271SOL    HW220711   8.398   9.695  10.141
 6272SOL     OW20712   3.060  12.162  11.113
 6272SOL    HW120713   3.084  12.210  11.034
 6272SOL    HW220714   3.004  12.091  11.082
 6273SOL     OW20715   4.985  14.383   5.508
 6273SOL    HW120716   5.028  14.304   5.476
 6273SOL    HW220717   5.043  14.454   5.483
 6274SOL     OW20718   9.914   1.174   0.813
 6274SOL    HW120719   9.923   1.218   0.898
 6274SOL    HW220720  10.004   1.163   0.782
 6275SOL     OW20721   7.859   6.292  14.813
 6275SOL    HW120722   7.794   6.322  14.749
 6275SOL    HW220723   7.900   6.372  14.846
 6276SOL     OW20724   3.031   9.156   9.412
 6276SOL    HW120725   3.103   9.144   9.474
 6276SOL    HW220726   3.048   9.240   9.370
 6277SOL     OW20727   4.532  14.574   5.048
 6277SOL    HW120728   4.480  14.653   5.060
 6277SOL    HW220729   4.623  14.605   5.041
 6278SOL     OW20730   4.357   8.448  13.508
 6278SOL    HW120731   4.436   8.438  13.456
 6278SOL    HW220732   4.371   8.391  13.584
 6279SOL     OW20733   5.807   9.369  12.863
 6279SOL    HW120734   5.875   9.359  12.930
 6279SOL    HW220735   5.818   9.459  12.831
 6280SOL     OW20736   3.371   3.359   8.290
 6280SOL    HW120737   3.381   3.329   8.200
 6280SOL    HW220738   3.383   3.279   8.342
 6281SOL     OW20739  11.921   1.169   8.568
 6281SOL    HW120740  11.827   1.168   8.585
 6281SOL    HW220741  11.930   1.146   8.476
 6282SOL     OW20742   2.518   7.407   3.318
 6282SOL    HW120743   2.425   7.392   3.304
 6282SOL    HW220744   2.560   7.328   3.283
 6283SOL     OW20745   8.479   4.371   6.816
 6283SOL    HW120746   8.551   4.343   6.760
 6283SOL    HW220747   8.503   4.459   6.846
 6284SOL     OW20748   5.105   7.186   7.532
 6284SOL    HW120749   5.197   7.179   7.506
 6284SOL    HW220750   5.091   7.111   7.590
 6285SOL     OW20751   6.867   0.489  10.149
 6285SOL    HW120752   6.897   0.562  10.095
 6285SOL    HW220753   6.925   0.491  10.226
 6286SOL     OW20754   9.527   2.359   8.472
 6286SOL    HW120755   9.451   2.306   8.495
 6286SOL    HW220756   9.524   2.434   8.531
 6287SOL     OW20757  10.888   4.603   7.825
 6287SOL    HW120758  10.803   4.560   7.820
 6287SOL    HW220759  10.895   4.651   7.742
 6288SOL     OW20760   2.306   1.832   6.207
 6288SOL    HW120761   2.236   1.770   6.188
 6288SOL    HW220762   2.263   1.904   6.253
 6289SOL     OW20763   7.321   3.691  11.420
 6289SOL    HW120764   7.372   3.759  11.465
 6289SOL    HW220765   7.240   3.735  11.396
 6290SOL     OW20766   1.019   6.575  14.333
 6290SOL    HW120767   1.041   6.604  14.245
 6290SOL    HW220768   0.923   6.577  14.335
 6291SOL     OW20769  10.123   0.043   3.157
 6291SOL    HW120770  10.066   0.119   3.169
 6291SOL    HW220771  10.212   0.077   3.165
 6292SOL     OW20772   3.336  13.202  10.121
 6292SOL    HW120773   3.374  13.228  10.204
 6292SOL    HW220774   3.247  13.174  10.142
 6293SOL     OW20775  11.429   6.656   7.939
 6293SOL    HW120776  11.452   6.735   7.889
 6293SOL    HW220777  11.367   6.687   8.006
 6294SOL     OW20778  14.506   9.495  14.033
 6294SOL    HW120779  14.418   9.507  13.995
 6294SOL    HW220780  14.546   9.582  14.027
 6295SOL     OW20781  13.139   5.820  10.484
 6295SOL    HW120782  13.178   5.733  10.489
 6295SOL    HW220783  13.148   5.846  10.392
 6296SOL     OW20784   0.101   1.684  13.185
 6296SOL    HW120785   0.053   1.742  13.125
 6296SOL    HW220786   0.034   1.627  13.222
 6297SOL     OW20787   8.628  11.245   4.032
 6297SOL    HW120788   8.671  11.216   3.951
 6297SOL    HW220789   8.572  11.318   4.004
 6298SOL     OW20790  12.969   9.937   0.587
 6298SOL    HW120791  13.064   9.934   0.571
 6298SOL    HW220792  12.943   9.845   0.592
 6299SOL     OW20793   8.555  12.674   3.273
 6299SOL    HW120794   8.465  12.686   3.243
 6299SOL    HW220795   8.580  12.587   3.242
 6300SOL     OW20796   7.489  12.825   6.517
 6300SOL    HW120797   7.411  12.881   6.523
 6300SOL    HW220798   7.463  12.743   6.560
 6301SOL     OW20799   6.000   3.245   8.699
 6301SOL    HW120800   6.088   3.209   8.709
 6301SOL    HW220801   5.984   3.295   8.780
 6302SOL     OW20802   7.563   7.563   4.828
 6302SOL    HW120803   7.553   7.525   4.741
 6302SOL    HW220804   7.604   7.648   4.813
 6303SOL     OW20805   1.750   1.359  14.249
 6303SOL    HW120806   1.676   1.299  14.259
 6303SOL    HW220807   1.815   1.326  14.311
 6304SOL     OW20808  11.083   8.984  12.835
 6304SOL    HW120809  11.133   8.960  12.914
 6304SOL    HW220810  11.043   8.902  12.807
 6305SOL     OW20811  10.717   8.958   2.823
 6305SOL    HW120812  10.635   8.955   2.872
 6305SOL    HW220813  10.700   9.019   2.751
 6306SOL     OW20814   4.568   4.124  10.570
 6306SOL    HW120815   4.550   4.084  10.654
 6306SOL    HW220816   4.486   4.168  10.545
 6307SOL     OW20817   1.256   8.602   2.806
 6307SOL    HW120818   1.223   8.618   2.895
 6307SOL    HW220819   1.179   8.577   2.756
 6308SOL     OW20820   5.808  11.928  13.383
 6308SOL    HW120821   5.903  11.926  13.390
 6308SOL    HW220822   5.789  12.005  13.329
 6309SOL     OW20823   0.356   0.978  12.871
 6309SOL    HW120824   0.316   1.029  12.801
 6309SOL    HW220825   0.330   0.887  12.852
 6310SOL     OW20826   3.221   0.851   3.962
 6310SOL    HW120827   3.136   0.840   3.920
 6310SOL    HW220828   3.259   0.927   3.917
 6311SOL     OW20829  14.017   3.132   1.693
 6311SOL    HW120830  13.958   3.057   1.700
 6311SOL    HW220831  14.093   3.108   1.746
 6312SOL     OW20832   8.541   3.906   6.020
 6312SOL    HW120833   8.636   3.911   6.020
 6312SOL    HW220834   8.512   3.997   6.013
 6313SOL     OW20835   7.485   8.750   2.924
 6313SOL    HW120836   7.431   8.671   2.922
 6313SOL    HW220837   7.506   8.763   3.017
 6314SOL     OW20838   4.611   9.455   9.504
 6314SOL    HW120839   4.672   9.407   9.560
 6314SOL    HW220840   4.662   9.476   9.426
 6315SOL     OW20841   7.298   5.869   7.570
 6315SOL    HW120842   7.217   5.908   7.603
 6315SOL    HW220843   7.291   5.777   7.595
 6316SOL     OW20844   4.968   2.046  10.744
 6316SOL    HW120845   4.951   1.965  10.792
 6316SOL    HW220846   5.014   2.018  10.665
 6317SOL     OW20847  12.531   7.912   8.230
 6317SOL    HW120848  12.624   7.903   8.251
 6317SOL    HW220849  12.489   7.926   8.315
 6318SOL     OW20850  11.121   3.014   8.774
 6318SOL    HW120851  11.124   2.919   8.783
 6318SOL    HW220852  11.036   3.039   8.811
 6319SOL     OW20853  11.221   0.795   3.061
 6319SOL    HW120854  11.130   0.796   3.090
 6319SOL    HW220855  11.218   0.749   2.977
 6320SOL     OW20856  13.961   7.235   0.681
 6320SOL    HW120857  13.953   7.148   0.642
 6320SOL    HW220858  14.051   7.262   0.661
 6321SOL     OW20859   3.510  13.488   4.737
 6321SOL    HW120860   3.417  13.496   4.714
 6321SOL    HW220861   3.551  13.565   4.697
 6322SOL     OW20862   8.580   0.272   8.007
 6322SOL    HW120863   8.547   0.355   7.972
 6322SOL    HW220864   8.654   0.250   7.950
 6323SOL     OW20865   1.297   4.835   3.159
 6323SOL    HW120866   1.330   4.764   3.104
 6323SOL    HW220867   1.250   4.892   3.099
 6324SOL     OW20868   4.886  12.155   4.524
 6324SOL    HW120869   4.905  12.062   4.535
 6324SOL    HW220870   4.929  12.197   4.598
 6325SOL     OW20871  10.858   0.682   0.056
 6325SOL    HW120872  10.856   0.589   0.034
 6325SOL    HW220873  10.892   0.725  14.856
 6326SOL     OW20874   0.573  10.521   5.631
 6326SOL    HW120875   0.581  10.612   5.659
 6326SOL    HW220876   0.661  10.498   5.600
 6327SOL     OW20877   2.860   0.169  14.361
 6327SOL    HW120878   2.941   0.134  14.398
 6327SOL    HW220879   2.844   0.116  14.283
 6328SOL     OW20880   0.485   1.861  14.710
 6328SOL    HW120881   0.534   1.861  14.628
 6328SOL    HW220882   0.528   1.927  14.764
 6329SOL     OW20883   7.536   3.778   9.448
 6329SOL    HW120884   7.552   3.710   9.383
 6329SOL    HW220885   7.577   3.745   9.528
 6330SOL     OW20886   7.083   9.020   0.169
 6330SOL    HW120887   7.016   9.037   0.235
 6330SOL    HW220888   7.080   8.925   0.156
 6331SOL     OW20889  12.283  13.042   0.995
 6331SOL    HW120890  12.248  12.994   0.920
 6331SOL    HW220891  12.206  13.063   1.048
 6332SOL     OW20892  12.513  10.601   9.661
 6332SOL    HW120893  12.453  10.545   9.611
 6332SOL    HW220894  12.458  10.636   9.732
 6333SOL     OW20895  11.528   2.827  10.861
 6333SOL    HW120896  11.470   2.777  10.803
 6333SOL    HW220897  11.473   2.899  10.893
 6334SOL     OW20898  13.254   0.264   5.234
 6334SOL    HW120899  13.165   0.234   5.253
 6334SOL    HW220900  13.309   0.212   5.293
 6335SOL     OW20901  11.159   6.334   6.227
 6335SOL    HW120902  11.202   6.250   6.210
 6335SOL    HW220903  11.230   6.398   6.223
 6336SOL     OW20904   4.653  10.994   7.483
 6336SOL    HW120905   4.661  11.068   7.423
 6336SOL    HW220906   4.632  10.919   7.427
 6337SOL     OW20907   9.864   5.830   2.153
 6337SOL    HW120908   9.858   5.920   2.185
 6337SOL    HW220909   9.827   5.833   2.065
 6338SOL     OW20910  10.464   3.895  11.505
 6338SOL    HW120911  10.455   3.950  11.583
 6338SOL    HW220912  10.393   3.923  11.448
 6339SOL     OW20913   4.103  12.249  10.470
 6339SOL    HW120914   4.190  12.236  10.431
 6339SOL    HW220915   4.090  12.344  10.466
 6340SOL     OW20916  14.054   9.147   7.012
 6340SOL    HW120917  14.005   9.116   7.088
 6340SOL    HW220918  14.061   9.241   7.025
 6341SOL     OW20919  13.529   5.128  11.684
 6341SOL    HW120920  13.591   5.197  11.662
 6341SOL    HW220921  13.472   5.122  11.607
 6342SOL     OW20922   5.578   1.520   3.405
 6342SOL    HW120923   5.602   1.534   3.313
 6342SOL    HW220924   5.659   1.534   3.454
 6343SOL     OW20925   0.318   6.353   3.485
 6343SOL    HW120926   0.319   6.270   3.436
 6343SOL    HW220927   0.393   6.346   3.544
 6344SOL     OW20928  13.461  13.806   4.844
 6344SOL    HW120929  13.492  13.734   4.898
 6344SOL    HW220930  13.365  13.801   4.849
 6345SOL     OW20931  13.811   5.913  12.886
 6345SOL    HW120932  13.851   5.982  12.834
 6345SOL    HW220933  13.810   5.836  12.829
 6346SOL     OW20934   5.158  11.891  13.749
 6346SOL    HW120935   5.182  11.901  13.841
 6346SOL    HW220936   5.204  11.963  13.705
 6347SOL     OW20937  10.573   3.701  14.654
 6347SOL    HW120938  10.653   3.693  14.603
 6347SOL    HW220939  10.539   3.612  14.660
 6348SOL     OW20940   4.242   4.594   4.707
 6348SOL    HW120941   4.227   4.686   4.688
 6348SOL    HW220942   4.222   4.548   4.625
 6349SOL     OW20943   0.557   2.384  11.582
 6349SOL    HW120944   0.488   2.445  11.558
 6349SOL    HW220945   0.601   2.426  11.657
 6350SOL     OW20946   0.947   4.426   2.848
 6350SOL    HW120947   1.004   4.456   2.919
 6350SOL    HW220948   0.974   4.479   2.772
 6351SOL     OW20949   8.099   6.749   2.020
 6351SOL    HW120950   8.059   6.835   2.032
 6351SOL    HW220951   8.177   6.751   2.075
 6352SOL     OW20952   2.396  12.282  14.012
 6352SOL    HW120953   2.465  12.325  13.961
 6352SOL    HW220954   2.319  12.337  13.998
 6353SOL     OW20955   3.288   1.515   9.940
 6353SOL    HW120956   3.255   1.582   9.880
 6353SOL    HW220957   3.332   1.452   9.883
 6354SOL     OW20958   2.671   5.538   2.299
 6354SOL    HW120959   2.605   5.472   2.322
 6354SOL    HW220960   2.690   5.582   2.382
 6355SOL     OW20961   1.526  12.477  14.725
 6355SOL    HW120962   1.595  12.467  14.660
 6355SOL    HW220963   1.542  12.562  14.766
 6356SOL     OW20964  14.412   9.698   3.832
 6356SOL    HW120965  14.492   9.649   3.816
 6356SOL    HW220966  14.378   9.664   3.915
 6357SOL     OW20967   5.725   0.329   0.541
 6357SOL    HW120968   5.752   0.312   0.632
 6357SOL    HW220969   5.671   0.254   0.517
 6358SOL     OW20970   8.473   9.004   0.487
 6358SOL    HW120971   8.567   9.026   0.492
 6358SOL    HW220972   8.459   8.943   0.559
 6359SOL     OW20973  12.000   9.341  13.271
 6359SOL    HW120974  11.952   9.392  13.206
 6359SOL    HW220975  11.996   9.395  13.351
 6360SOL     OW20976  10.313  14.506   6.930
 6360SOL    HW120977  10.277  14.419   6.917
 6360SOL    HW220978  10.408  14.492   6.936
 6361SOL     OW20979   9.399   5.148  12.520
 6361SOL    HW120980   9.378   5.096  12.443
 6361SOL    HW220981   9.383   5.090  12.594
 6362SOL     OW20982   6.741   4.948  12.321
 6362SOL    HW120983   6.705   4.939  12.233
 6362SOL    HW220984   6.835   4.963  12.308
 6363SOL     OW20985   7.356  12.989   4.410
 6363SOL    HW120986   7.304  13.057   4.367
 6363SOL    HW220987   7.438  13.033   4.433
 6364SOL     OW20988  12.463   4.201  13.709
 6364SOL    HW120989  12.502   4.219  13.795
 6364SOL    HW220990  12.369   4.211  13.723
 6365SOL     OW20991  12.973   9.235   5.592
 6365SOL    HW120992  13.014   9.267   5.672
 6365SOL    HW220993  12.926   9.156   5.619
 6366SOL     OW20994   1.040   6.407  11.075
 6366SOL    HW120995   1.046   6.441  11.164
 6366SOL    HW220996   0.947   6.415  11.053
 6367SOL     OW20997   2.390   6.474   9.908
 6367SOL    HW120998   2.424   6.414   9.974
 6367SOL    HW220999   2.452   6.468   9.836
 6368SOL     OW21000   9.126   0.196  14.300
 6368SOL    HW121001   9.209   0.173  14.257
 6368SOL    HW221002   9.125   0.144  14.380
 6369SOL     OW21003  13.654   5.619   1.598
 6369SOL    HW121004  13.670   5.590   1.688
 6369SOL    HW221005  13.738   5.609   1.554
 6370SOL     OW21006   2.940   0.755  11.569
 6370SOL    HW121007   2.868   0.726  11.624
 6370SOL    HW221008   2.985   0.823  11.621
 6371SOL     OW21009  11.847   3.969   4.917
 6371SOL    HW121010  11.925   3.934   4.960
 6371SOL    HW221011  11.774   3.923   4.959
 6372SOL     OW21012  10.768   7.654   4.536
 6372SOL    HW121013  10.804   7.591   4.474
 6372SOL    HW221014  10.817   7.735   4.520
 6373SOL     OW21015   8.571   9.656   6.763
 6373SOL    HW121016   8.532   9.657   6.676
 6373SOL    HW221017   8.534   9.578   6.805
 6374SOL     OW21018  13.789  10.435  12.282
 6374SOL    HW121019  13.878  10.469  12.285
 6374SOL    HW221020  13.760  10.435  12.373
 6375SOL     OW21021   2.788   9.859   5.709
 6375SOL    HW121022   2.692   9.867   5.707
 6375SOL    HW221023   2.807   9.796   5.640
 6376SOL     OW21024   8.068  14.090   6.758
 6376SOL    HW121025   8.043  14.082   6.850
 6376SOL    HW221026   8.015  14.162   6.724
 6377SOL     OW21027   6.589   6.322  11.360
 6377SOL    HW121028   6.555   6.408  11.335
 6377SOL    HW221029   6.675   6.317  11.318
 6378SOL     OW21030   6.151  11.927  14.135
 6378SOL    HW121031   6.192  11.852  14.179
 6378SOL    HW221032   6.224  11.977  14.100
 6379SOL     OW21033   1.621  11.331   5.216
 6379SOL    HW121034   1.581  11.367   5.137
 6379SOL    HW221035   1.663  11.407   5.258
 6380SOL     OW21036   7.285   2.876   7.529
 6380SOL    HW121037   7.224   2.941   7.494
 6380SOL    HW221038   7.230   2.819   7.583
 6381SOL     OW21039   4.422   3.421  13.746
 6381SOL    HW121040   4.445   3.329  13.740
 6381SOL    HW221041   4.427   3.441  13.840
 6382SOL     OW21042   8.061  14.689  14.105
 6382SOL    HW121043   8.130  14.669  14.042
 6382SOL    HW221044   8.014  14.607  14.117
 6383SOL     OW21045  14.812   6.155   1.532
 6383SOL    HW121046  14.872   6.221   1.567
 6383SOL    HW221047  14.863   6.074   1.534
 6384SOL     OW21048  10.335   8.636  10.059
 6384SOL    HW121049  10.298   8.595   9.981
 6384SOL    HW221050  10.421   8.596  10.069
 6385SOL     OW21051  10.502   8.671   9.438
 6385SOL    HW121052  10.525   8.713   9.521
 6385SOL    HW221053  10.584   8.632   9.407
 6386SOL     OW21054   3.891   5.172  12.288
 6386SOL    HW121055   3.887   5.101  12.352
 6386SOL    HW221056   3.810   5.165  12.238
 6387SOL     OW21057  14.114   9.721  12.209
 6387SOL    HW121058  14.051   9.702  12.139
 6387SOL    HW221059  14.062   9.759  12.279
 6388SOL     OW21060   6.482  12.976   6.714
 6388SOL    HW121061   6.512  13.013   6.797
 6388SOL    HW221062   6.425  12.903   6.738
 6389SOL     OW21063   4.938   6.340  14.134
 6389SOL    HW121064   4.996   6.403  14.091
 6389SOL    HW221065   4.989   6.305  14.206
 6390SOL     OW21066   5.865  10.676   6.655
 6390SOL    HW121067   5.811  10.704   6.730
 6390SOL    HW221068   5.931  10.745   6.646
 6391SOL     OW21069   4.055   4.765   8.285
 6391SOL    HW121070   4.077   4.700   8.219
 6391SOL    HW221071   4.132   4.771   8.341
 6392SOL     OW21072   5.814   0.390   4.512
 6392SOL    HW121073   5.824   0.363   4.420
 6392SOL    HW221074   5.789   0.482   4.508
 6393SOL     OW21075   8.843   5.087   2.307
 6393SOL    HW121076   8.817   5.143   2.234
 6393SOL    HW221077   8.938   5.078   2.299
 6394SOL     OW21078   5.489   0.161  13.191
 6394SOL    HW121079   5.412   0.112  13.220
 6394SOL    HW221080   5.456   0.215  13.119
 6395SOL     OW21081  10.563  10.596   7.776
 6395SOL    HW121082  10.593  10.593   7.867
 6395SOL    HW221083  10.537  10.687   7.762
 6396SOL     OW21084  11.371  11.002   9.409
 6396SOL    HW121085  11.318  10.981   9.332
 6396SOL    HW221086  11.317  10.978   9.483
 6397SOL     OW21087   6.821   5.001   8.122
 6397SOL    HW121088   6.874   4.921   8.123
 6397SOL    HW221089   6.864   5.060   8.183
 6398SOL     OW21090   8.478  14.070   7.527
 6398SOL    HW121091   8.391  14.032   7.521
 6398SOL    HW221092   8.500  14.067   7.620
 6399SOL     OW21093  11.857  11.862  11.630
 6399SOL    HW121094  11.907  11.910  11.564
 6399SOL    HW221095  11.786  11.820  11.581
 6400SOL     OW21096   6.160  12.992   5.746
 6400SOL    HW121097   6.178  13.086   5.749
 6400SOL    HW221098   6.219  12.954   5.812
 6401SOL     OW21099   8.332   8.152   8.223
 6401SOL    HW121100   8.329   8.245   8.202
 6401SOL    HW221101   8.369   8.111   8.144
 6402SOL     OW21102   1.042   5.042   5.811
 6402SOL    HW121103   1.018   5.000   5.728
 6402SOL    HW221104   1.087   4.974   5.860
 6403SOL     OW21105   2.013   7.645  12.981
 6403SOL    HW121106   2.025   7.615  13.071
 6403SOL    HW221107   2.102   7.650  12.946
 6404SOL     OW21108  12.776   8.189  11.706
 6404SOL    HW121109  12.795   8.282  11.720
 6404SOL    HW221110  12.683   8.181  11.725
 6405SOL     OW21111   4.578   1.134   1.454
 6405SOL    HW121112   4.633   1.069   1.410
 6405SOL    HW221113   4.498   1.087   1.477
 6406SOL     OW21114  10.058   5.055   0.480
 6406SOL    HW121115  10.038   5.092   0.566
 6406SOL    HW221116  10.048   4.960   0.492
 6407SOL     OW21117   0.545  12.860  13.287
 6407SOL    HW121118   0.565  12.912  13.210
 6407SOL    HW221119   0.605  12.785  13.281
 6408SOL     OW21120  14.072   6.305   7.732
 6408SOL    HW121121  13.999   6.324   7.672
 6408SOL    HW221122  14.061   6.366   7.804
 6409SOL     OW21123   7.144   6.777  12.101
 6409SOL    HW121124   7.174   6.708  12.042
 6409SOL    HW221125   7.065   6.741  12.141
 6410SOL     OW21126   6.117  13.315  11.293
 6410SOL    HW121127   6.203  13.332  11.255
 6410SOL    HW221128   6.095  13.227  11.264
 6411SOL     OW21129   4.745   3.296   5.076
 6411SOL    HW121130   4.792   3.230   5.127
 6411SOL    HW221131   4.681   3.246   5.025
 6412SOL     OW21132   0.550   2.496  11.220
 6412SOL    HW121133   0.468   2.514  11.266
 6412SOL    HW221134   0.588   2.583  11.206
 6413SOL     OW21135   0.231   6.335   3.240
 6413SOL    HW121136   0.162   6.386   3.197
 6413SOL    HW221137   0.245   6.380   3.323
 6414SOL     OW21138   7.319   4.177   6.257
 6414SOL    HW121139   7.289   4.107   6.199
 6414SOL    HW221140   7.394   4.139   6.303
 6415SOL     OW21141   9.714   5.524  13.038
 6415SOL    HW121142   9.636   5.491  13.084
 6415SOL    HW221143   9.680   5.590  12.978
 6416SOL     OW21144  12.232   4.945   0.085
 6416SOL    HW121145  12.190   5.022   0.048
 6416SOL    HW221146  12.224   4.957   0.180
 6417SOL     OW21147  13.639   0.675   4.738
 6417SOL    HW121148  13.685   0.602   4.697
 6417SOL    HW221149  13.708   0.725   4.782
 6418SOL     OW21150   4.334   3.206  11.532
 6418SOL    HW121151   4.337   3.148  11.609
 6418SOL    HW221152   4.400   3.273  11.550
 6419SOL     OW21153   2.221   9.876   6.623
 6419SOL    HW121154   2.249   9.785   6.611
 6419SOL    HW221155   2.131   9.878   6.590
 6420SOL     OW21156  12.523   2.095   2.637
 6420SOL    HW121157  12.450   2.053   2.591
 6420SOL    HW221158  12.500   2.087   2.730
 6421SOL     OW21159   2.001   7.427  14.156
 6421SOL    HW121160   2.004   7.499  14.092
 6421SOL    HW221161   1.910   7.396  14.152
 6422SOL     OW21162   1.592  13.399  12.987
 6422SOL    HW121163   1.588  13.432  13.076
 6422SOL    HW221164   1.682  13.369  12.976
 6423SOL     OW21165   2.135  12.185   9.691
 6423SOL    HW121166   2.230  12.194   9.696
 6423SOL    HW221167   2.121  12.098   9.651
 6424SOL     OW21168   4.016   7.688  12.414
 6424SOL    HW121169   4.031   7.783  12.414
 6424SOL    HW221170   3.958   7.672  12.488
 6425SOL     OW21171  11.516   1.964   2.757
 6425SOL    HW121172  11.498   1.949   2.850
 6425SOL    HW221173  11.436   2.005   2.724
 6426SOL     OW21174  14.794   5.296  10.287
 6426SOL    HW121175  14.720   5.248  10.325
 6426SOL    HW221176  14.871   5.251  10.319
 6427SOL     OW21177   6.842   4.733   0.317
 6427SOL    HW121178   6.845   4.731   0.221
 6427SOL    HW221179   6.897   4.807   0.341
 6428SOL     OW21180  12.237  12.357  10.431
 6428SOL    HW121181  12.175  12.334  10.500
 6428SOL    HW221182  12.318  12.311  10.454
 6429SOL     OW21183   0.687  14.685   2.407
 6429SOL    HW121184   0.670  14.646   2.492
 6429SOL    HW221185   0.742  14.761   2.426
 6430SOL     OW21186  11.506   7.659   2.829
 6430SOL    HW121187  11.560   7.676   2.752
 6430SOL    HW221188  11.423   7.702   2.810
 6431SOL     OW21189   5.919   7.211  14.702
 6431SOL    HW121190   6.006   7.245  14.680
 6431SOL    HW221191   5.865   7.290  14.715
 6432SOL     OW21192   0.933  11.790   5.355
 6432SOL    HW121193   1.000  11.856   5.336
 6432SOL    HW221194   0.854  11.823   5.314
 6433SOL     OW21195   6.563   2.194   8.299
 6433SOL    HW121196   6.493   2.221   8.239
 6433SOL    HW221197   6.641   2.188   8.244
 6434SOL     OW21198  10.661   4.027   7.824
 6434SOL    HW121199  10.678   4.084   7.900
 6434SOL    HW221200  10.569   4.003   7.832
 6435SOL     OW21201   2.640   1.133   4.099
 6435SOL    HW121202   2.584   1.204   4.129
 6435SOL    HW221203   2.608   1.055   4.145
 6436SOL     OW21204  14.033   7.823   1.670
 6436SOL    HW121205  14.048   7.899   1.726
 6436SOL    HW221206  13.951   7.785   1.703
 6437SOL     OW21207  13.679  13.375   4.007
 6437SOL    HW121208  13.713  13.364   3.918
 6437SOL    HW221209  13.642  13.463   4.007
 6438SOL     OW21210  13.581   8.909  12.253
 6438SOL    HW121211  13.546   8.990  12.215
 6438SOL    HW221212  13.670   8.931  12.280
 6439SOL     OW21213   6.186  13.422  10.840
 6439SOL    HW121214   6.264  13.470  10.869
 6439SOL    HW221215   6.179  13.348  10.901
 6440SOL     OW21216  14.004  12.085  10.318
 6440SOL    HW121217  13.958  12.154  10.270
 6440SOL    HW221218  13.968  12.090  10.407
 6441SOL     OW21219  14.630   1.332   9.784
 6441SOL    HW121220  14.581   1.269   9.837
 6441SOL    HW221221  14.703   1.359   9.840
 6442SOL     OW21222  12.105   2.283   8.280
 6442SOL    HW121223  12.053   2.212   8.319
 6442SOL    HW221224  12.165   2.310   8.350
 6443SOL     OW21225   0.071   4.400   6.145
 6443SOL    HW121226   0.018   4.474   6.175
 6443SOL    HW221227   0.021   4.323   6.171
 6444SOL     OW21228   1.607   0.392   2.290
 6444SOL    HW121229   1.596   0.318   2.230
 6444SOL    HW221230   1.567   0.466   2.245
 6445SOL     OW21231   8.388   9.522   3.253
 6445SOL    HW121232   8.394   9.505   3.347
 6445SOL    HW221233   8.419   9.612   3.243
 6446SOL     OW21234   9.277   2.124   3.036
 6446SOL    HW121235   9.305   2.195   3.095
 6446SOL    HW221236   9.354   2.066   3.031
 6447SOL     OW21237   9.097   1.186  14.463
 6447SOL    HW121238   9.046   1.251  14.415
 6447SOL    HW221239   9.112   1.115  14.401
 6448SOL     OW21240   0.760  10.794  12.716
 6448SOL    HW121241   0.779  10.706  12.749
 6448SOL    HW221242   0.808  10.799  12.633
 6449SOL     OW21243   6.191   0.585   3.684
 6449SOL    HW121244   6.233   0.639   3.752
 6449SOL    HW221245   6.244   0.600   3.606
 6450SOL     OW21246   0.023   9.929   4.935
 6450SOL    HW121247  14.832   9.962   4.879
 6450SOL    HW221248  14.865   9.927   5.023
 6451SOL     OW21249   0.664   3.465  11.804
 6451SOL    HW121250   0.587   3.511  11.837
 6451SOL    HW221251   0.628   3.393  11.753
 6452SOL     OW21252   5.813   0.057   0.209
 6452SOL    HW121253   5.794   0.150   0.222
 6452SOL    HW221254   5.769   0.035   0.127
 6453SOL     OW21255   8.416  10.540  13.792
 6453SOL    HW121256   8.401  10.577  13.705
 6453SOL    HW221257   8.328  10.516  13.822
 6454SOL     OW21258   6.976   7.624   4.310
 6454SOL    HW121259   6.919   7.566   4.259
 6454SOL    HW221260   6.956   7.712   4.278
 6455SOL     OW21261  10.831   0.347   9.768
 6455SOL    HW121262  10.802   0.436   9.746
 6455SOL    HW221263  10.894   0.324   9.700
 6456SOL     OW21264   9.919   2.641   8.949
 6456SOL    HW121265  10.010   2.619   8.928
 6456SOL    HW221266   9.907   2.608   9.039
 6457SOL     OW21267   2.099   1.736   9.652
 6457SOL    HW121268   2.018   1.700   9.616
 6457SOL    HW221269   2.163   1.727   9.581
 6458SOL     OW21270   3.664   7.623  10.964
 6458SOL    HW121271   3.646   7.698  11.021
 6458SOL    HW221272   3.577   7.594  10.935
 6459SOL     OW21273   0.383   7.837  12.653
 6459SOL    HW121274   0.348   7.921  12.682
 6459SOL    HW221275   0.472   7.857  12.623
 6460SOL     OW21276   4.212   8.978   1.330
 6460SOL    HW121277   4.235   9.061   1.289
 6460SOL    HW221278   4.128   8.994   1.373
 6461SOL     OW21279  10.582  13.178   5.637
 6461SOL    HW121280  10.521  13.249   5.658
 6461SOL    HW221281  10.657  13.223   5.597
 6462SOL     OW21282   5.906   3.161   7.858
 6462SOL    HW121283   5.860   3.179   7.940
 6462SOL    HW221284   5.875   3.075   7.830
 6463SOL     OW21285   7.771   8.728   2.167
 6463SOL    HW121286   7.835   8.690   2.228
 6463SOL    HW221287   7.698   8.666   2.169
 6464SOL     OW21288   3.282   2.156   7.596
 6464SOL    HW121289   3.331   2.083   7.559
 6464SOL    HW221290   3.337   2.233   7.581
 6465SOL     OW21291   0.488   7.825   3.666
 6465SOL    HW121292   0.436   7.900   3.695
 6465SOL    HW221293   0.489   7.765   3.741
 6466SOL     OW21294  10.396   1.301   4.897
 6466SOL    HW121295  10.428   1.232   4.956
 6466SOL    HW221296  10.453   1.376   4.914
 6467SOL     OW21297  11.122   1.536  10.434
 6467SOL    HW121298  11.099   1.585  10.513
 6467SOL    HW221299  11.134   1.446  10.464
 6468SOL     OW21300   6.468   1.239   9.260
 6468SOL    HW121301   6.465   1.192   9.177
 6468SOL    HW221302   6.456   1.331   9.236
 6469SOL     OW21303  10.273   2.838   7.621
 6469SOL    HW121304  10.261   2.912   7.561
 6469SOL    HW221305  10.335   2.870   7.686
 6470SOL     OW21306   9.473   5.513  11.822
 6470SOL    HW121307   9.391   5.464  11.834
 6470SOL    HW221308   9.542   5.449  11.839
 6471SOL     OW21309  14.529   0.320   1.557
 6471SOL    HW121310  14.620   0.339   1.532
 6471SOL    HW221311  14.503   0.396   1.609
 6472SOL     OW21312   5.872  12.705  12.947
 6472SOL    HW121313   5.864  12.799  12.962
 6472SOL    HW221314   5.958  12.682  12.981
 6473SOL     OW21315   2.081   8.329   1.885
 6473SOL    HW121316   2.008   8.362   1.831
 6473SOL    HW221317   2.053   8.243   1.915
 6474SOL     OW21318   9.339  14.091  12.954
 6474SOL    HW121319   9.371  14.097  12.864
 6474SOL    HW221320   9.419  14.086  13.007
 6475SOL     OW21321   4.528  11.640   0.878
 6475SOL    HW121322   4.437  11.645   0.909
 6475SOL    HW221323   4.579  11.678   0.949
 6476SOL     OW21324   2.249   0.752  10.016
 6476SOL    HW121325   2.337   0.778  10.043
 6476SOL    HW221326   2.258   0.662   9.986
 6477SOL     OW21327   4.185   2.605   3.994
 6477SOL    HW121328   4.170   2.615   3.900
 6477SOL    HW221329   4.271   2.643   4.009
 6478SOL     OW21330   1.709   6.353   0.997
 6478SOL    HW121331   1.770   6.279   1.007
 6478SOL    HW221332   1.688   6.354   0.904
 6479SOL     OW21333   9.953   3.747   6.984
 6479SOL    HW121334   9.898   3.728   6.908
 6479SOL    HW221335  10.002   3.666   6.998
 6480SOL     OW21336   0.336  10.197   7.409
 6480SOL    HW121337   0.344  10.217   7.503
 6480SOL    HW221338   0.304  10.107   7.407
 6481SOL     OW21339  13.465   2.043   3.380
 6481SOL    HW121340  13.449   1.967   3.325
 6481SOL    HW221341  13.430   2.117   3.330
 6482SOL     OW21342   3.319  12.602   4.185
 6482SOL    HW121343   3.401  12.552   4.194
 6482SOL    HW221344   3.337  12.685   4.230
 6483SOL     OW21345  14.133   7.485  12.248
 6483SOL    HW121346  14.042   7.515  12.253
 6483SOL    HW221347  14.155   7.490  12.155
 6484SOL     OW21348  10.524   7.229   2.102
 6484SOL    HW121349  10.468   7.306   2.101
 6484SOL    HW221350  10.565   7.227   2.016
 6485SOL     OW21351  11.383   4.274  10.176
 6485SOL    HW121352  11.466   4.270  10.129
 6485SOL    HW221353  11.352   4.184  10.179
 6486SOL     OW21354   4.035  12.087   7.942
 6486SOL    HW121355   4.020  12.054   7.853
 6486SOL    HW221356   4.128  12.072   7.957
 6487SOL     OW21357  10.973   5.444   2.242
 6487SOL    HW121358  10.972   5.426   2.336
 6487SOL    HW221359  10.963   5.358   2.202
 6488SOL     OW21360   0.763   5.903   2.986
 6488SOL    HW121361   0.846   5.915   3.032
 6488SOL    HW221362   0.721   5.830   3.031
 6489SOL     OW21363  12.902  12.204   9.648
 6489SOL    HW121364  12.839  12.137   9.623
 6489SOL    HW221365  12.853  12.263   9.705
 6490SOL     OW21366   7.539   9.306  14.568
 6490SOL    HW121367   7.625   9.344  14.585
 6490SOL    HW221368   7.477   9.374  14.594
 6491SOL     OW21369  11.888   6.801   0.419
 6491SOL    HW121370  11.859   6.730   0.361
 6491SOL    HW221371  11.855   6.880   0.377
 6492SOL     OW21372  10.920  12.522  12.837
 6492SOL    HW121373  10.935  12.437  12.796
 6492SOL    HW221374  10.825  12.535  12.829
 6493SOL     OW21375  12.204   0.038   5.869
 6493SOL    HW121376  12.221   0.107   5.933
 6493SOL    HW221377  12.116   0.056   5.836
 6494SOL     OW21378   6.354   6.995   9.880
 6494SOL    HW121379   6.367   7.050   9.803
 6494SOL    HW221380   6.432   7.011   9.934
 6495SOL     OW21381   7.124   8.128   4.237
 6495SOL    HW121382   7.122   8.079   4.319
 6495SOL    HW221383   7.199   8.093   4.190
 6496SOL     OW21384  12.105   8.928   6.249
 6496SOL    HW121385  12.014   8.954   6.234
 6496SOL    HW221386  12.156   9.005   6.225
 6497SOL     OW21387   7.624   1.849  13.008
 6497SOL    HW121388   7.626   1.765  13.053
 6497SOL    HW221389   7.614   1.914  13.078
 6498SOL     OW21390   8.108   3.125   2.007
 6498SOL    HW121391   8.033   3.103   1.952
 6498SOL    HW221392   8.182   3.079   1.967
 6499SOL     OW21393   0.721   2.193   0.675
 6499SOL    HW121394   0.715   2.132   0.601
 6499SOL    HW221395   0.631   2.207   0.703
 6500SOL     OW21396   2.892   5.169   3.503
 6500SOL    HW121397   2.918   5.185   3.412
 6500SOL    HW221398   2.911   5.252   3.547
 6501SOL     OW21399  12.408   2.918  10.230
 6501SOL    HW121400  12.502   2.904  10.231
 6501SOL    HW221401  12.398   3.012  10.248
 6502SOL     OW21402   0.149   6.478   3.665
 6502SOL    HW121403   0.226   6.440   3.624
 6502SOL    HW221404   0.118   6.410   3.725
 6503SOL     OW21405  14.479   9.776  13.744
 6503SOL    HW121406  14.385   9.792  13.752
 6503SOL    HW221407  14.486   9.685  13.716
 6504SOL     OW21408   0.566  12.807   1.727
 6504SOL    HW121409   0.581  12.745   1.799
 6504SOL    HW221410   0.587  12.757   1.648
 6505SOL     OW21411  13.089  10.792   8.424
 6505SOL    HW121412  13.004  10.787   8.380
 6505SOL    HW221413  13.071  10.769   8.515
 6506SOL     OW21414   3.811   6.949   6.664
 6506SOL    HW121415   3.895   6.975   6.626
 6506SOL    HW221416   3.825   6.858   6.692
 6507SOL     OW21417   9.183  13.192  12.262
 6507SOL    HW121418   9.268  13.219  12.228
 6507SOL    HW221419   9.128  13.270  12.256
 6508SOL     OW21420  12.017  10.786   9.212
 6508SOL    HW121421  11.952  10.752   9.274
 6508SOL    HW221422  12.100  10.754   9.244
 6509SOL     OW21423   8.053   8.157   0.964
 6509SOL    HW121424   8.056   8.083   0.904
 6509SOL    HW221425   8.123   8.215   0.933
 6510SOL     OW21426  14.479   2.865   4.971
 6510SOL    HW121427  14.432   2.826   5.044
 6510SOL    HW221428  14.510   2.949   5.004
 6511SOL     OW21429   0.718   2.746   1.141
 6511SOL    HW121430   0.681   2.831   1.117
 6511SOL    HW221431   0.784   2.729   1.075
 6512SOL     OW21432  12.576   5.349   4.646
 6512SOL    HW121433  12.611   5.421   4.699
 6512SOL    HW221434  12.484   5.345   4.669
 6513SOL     OW21435  14.879  10.418   5.178
 6513SOL    HW121436  14.837  10.423   5.263
 6513SOL    HW221437   0.080  10.369   5.193
 6514SOL     OW21438   0.997   4.379   5.271
 6514SOL    HW121439   0.918   4.424   5.302
 6514SOL    HW221440   1.064   4.402   5.334
 6515SOL     OW21441   6.902   5.638   2.425
 6515SOL    HW121442   6.920   5.707   2.488
 6515SOL    HW221443   6.988   5.617   2.388
 6516SOL     OW21444  14.317   6.351   3.728
 6516SOL    HW121445  14.271   6.434   3.736
 6516SOL    HW221446  14.361   6.339   3.812
 6517SOL     OW21447  10.502   6.863   0.926
 6517SOL    HW121448  10.465   6.888   0.842
 6517SOL    HW221449  10.534   6.774   0.913
 6518SOL     OW21450  14.747   4.442   8.093
 6518SOL    HW121451  14.713   4.417   8.007
 6518SOL    HW221452  14.751   4.538   8.090
 6519SOL     OW21453   7.047   2.066   0.031
 6519SOL    HW121454   6.963   2.033   0.000
 6519SOL    HW221455   7.097   2.084  14.831
 6520SOL     OW21456   9.646   8.649   5.476
 6520SOL    HW121457   9.639   8.721   5.414
 6520SOL    HW221458   9.618   8.686   5.560
 6521SOL     OW21459   2.953   4.627   3.418
 6521SOL    HW121460   2.893   4.655   3.348
 6521SOL    HW221461   3.010   4.702   3.431
 6522SOL     OW21462   3.185   4.737  10.582
 6522SOL    HW121463   3.193   4.832  10.589
 6522SOL    HW221464   3.168   4.721  10.489
 6523SOL     OW21465   7.615   7.597   6.029
 6523SOL    HW121466   7.587   7.521   6.081
 6523SOL    HW221467   7.700   7.571   5.992
 6524SOL     OW21468  14.428  14.584   1.447
 6524SOL    HW121469  14.366  14.599   1.376
 6524SOL    HW221470  14.378  14.601   1.527
 6525SOL     OW21471   8.638  14.842   7.896
 6525SOL    HW121472   8.661  14.857   7.805
 6525SOL    HW221473   8.636  14.747   7.905
 6526SOL     OW21474   9.442   8.483   4.135
 6526SOL    HW121475   9.429   8.488   4.040
 6526SOL    HW221476   9.381   8.547   4.171
 6527SOL     OW21477   8.112   7.719  13.681
 6527SOL    HW121478   8.169   7.796  13.671
 6527SOL    HW221479   8.164   7.657  13.731
 6528SOL     OW21480   7.183   8.940   1.263
 6528SOL    HW121481   7.150   9.015   1.214
 6528SOL    HW221482   7.107   8.906   1.310
 6529SOL     OW21483  12.035   1.409   3.641
 6529SOL    HW121484  11.974   1.456   3.584
 6529SOL    HW221485  12.098   1.370   3.580
 6530SOL     OW21486   6.934   2.332   1.523
 6530SOL    HW121487   6.991   2.342   1.446
 6530SOL    HW221488   6.886   2.414   1.528
 6531SOL     OW21489   0.171   2.525  10.773
 6531SOL    HW121490   0.124   2.538  10.856
 6531SOL    HW221491   0.149   2.602  10.721
 6532SOL     OW21492  10.772   8.134   7.190
 6532SOL    HW121493  10.756   8.141   7.284
 6532SOL    HW221494  10.851   8.184   7.174
 6533SOL     OW21495   0.849   3.870   4.684
 6533SOL    HW121496   0.898   3.941   4.724
 6533SOL    HW221497   0.772   3.911   4.647
 6534SOL     OW21498   1.266   5.783  11.252
 6534SOL    HW121499   1.359   5.760  11.256
 6534SOL    HW221500   1.256   5.826  11.166
 6535SOL     OW21501   5.044   4.330   6.189
 6535SOL    HW121502   5.120   4.278   6.162
 6535SOL    HW221503   5.082   4.411   6.224
 6536SOL     OW21504   7.581  12.408   6.929
 6536SOL    HW121505   7.553  12.358   6.852
 6536SOL    HW221506   7.675  12.421   6.916
 6537SOL     OW21507   8.924   9.771   4.405
 6537SOL    HW121508   8.861   9.827   4.450
 6537SOL    HW221509   8.931   9.808   4.317
 6538SOL     OW21510   1.571   9.825   4.135
 6538SOL    HW121511   1.553   9.766   4.209
 6538SOL    HW221512   1.659   9.801   4.107
 6539SOL     OW21513  12.576  12.540   2.614
 6539SOL    HW121514  12.539  12.560   2.528
 6539SOL    HW221515  12.517  12.475   2.651
 6540SOL     OW21516  14.653   0.536  12.496
 6540SOL    HW121517  14.659   0.557  12.403
 6540SOL    HW221518  14.723   0.473  12.512
 6541SOL     OW21519   9.623   7.523  11.778
 6541SOL    HW121520   9.646   7.431  11.787
 6541SOL    HW221521   9.703   7.570  11.803
 6542SOL     OW21522  14.241   0.928  14.753
 6542SOL    HW121523  14.194   1.010  14.767
 6542SOL    HW221524  14.235   0.882  14.837
 6543SOL     OW21525  13.873   4.388   9.513
 6543SOL    HW121526  13.930   4.396   9.590
 6543SOL    HW221527  13.789   4.362   9.549
 6544SOL     OW21528  14.323   4.827   6.448
 6544SOL    HW121529  14.337   4.807   6.356
 6544SOL    HW221530  14.365   4.754   6.495
 6545SOL     OW21531   1.912   1.793  11.980
 6545SOL    HW121532   1.833   1.812  11.928
 6545SOL    HW221533   1.910   1.859  12.049
 6546SOL     OW21534   3.711   7.020  14.311
 6546SOL    HW121535   3.714   7.101  14.362
 6546SOL    HW221536   3.618   7.009  14.289
 6547SOL     OW21537   9.936   3.281   2.618
 6547SOL    HW121538   9.843   3.305   2.627
 6547SOL    HW221539   9.983   3.352   2.661
 6548SOL     OW21540   5.401  13.480   0.183
 6548SOL    HW121541   5.429  13.439   0.101
 6548SOL    HW221542   5.426  13.572   0.174
 6549SOL     OW21543   0.086   3.909   0.858
 6549SOL    HW121544   0.178   3.932   0.870
 6549SOL    HW221545   0.044   3.936   0.940
 6550SOL     OW21546   2.072   6.677   7.274
 6550SOL    HW121547   2.065   6.755   7.328
 6550SOL    HW221548   2.129   6.704   7.201
 6551SOL     OW21549   6.256  14.157  12.298
 6551SOL    HW121550   6.324  14.092  12.279
 6551SOL    HW221551   6.262  14.170  12.393
 6552SOL     OW21552  10.060  13.419   8.115
 6552SOL    HW121553   9.987  13.403   8.055
 6552SOL    HW221554  10.136  13.433   8.058
 6553SOL     OW21555   7.016  11.723   8.871
 6553SOL    HW121556   7.046  11.756   8.786
 6553SOL    HW221557   6.938  11.671   8.850
 6554SOL     OW21558   2.267   9.868  13.267
 6554SOL    HW121559   2.182   9.847  13.307
 6554SOL    HW221560   2.246   9.934  13.200
 6555SOL     OW21561   5.494   0.404   6.796
 6555SOL    HW121562   5.522   0.408   6.887
 6555SOL    HW221563   5.517   0.316   6.767
 6556SOL     OW21564   7.630   2.412  14.829
 6556SOL    HW121565   7.555   2.463  14.798
 6556SOL    HW221566   7.656   2.360  14.754
 6557SOL     OW21567  14.827   0.967   3.053
 6557SOL    HW121568   0.017   1.031   3.034
 6557SOL    HW221569  14.768   1.013   3.112
 6558SOL     OW21570   1.254   7.618  14.631
 6558SOL    HW121571   1.259   7.522  14.637
 6558SOL    HW221572   1.189   7.634  14.563
 6559SOL     OW21573   6.397   3.284  12.813
 6559SOL    HW121574   6.354   3.236  12.743
 6559SOL    HW221575   6.469   3.330  12.769
 6560SOL     OW21576   5.436  13.060   2.487
 6560SOL    HW121577   5.357  13.025   2.446
 6560SOL    HW221578   5.504  12.997   2.465
 6561SOL     OW21579   8.552   7.467  13.121
 6561SOL    HW121580   8.471   7.434  13.160
 6561SOL    HW221581   8.614   7.469  13.193
 6562SOL     OW21582   8.495   4.196   3.169
 6562SOL    HW121583   8.521   4.117   3.217
 6562SOL    HW221584   8.520   4.178   3.078
 6563SOL     OW21585   9.459   5.878   1.998
 6563SOL    HW121586   9.512   5.872   1.918
 6563SOL    HW221587   9.420   5.791   2.007
 6564SOL     OW21588  11.788   6.769   9.717
 6564SOL    HW121589  11.797   6.795   9.625
 6564SOL    HW221590  11.695   6.751   9.727
 6565SOL     OW21591  12.926  13.467  10.957
 6565SOL    HW121592  12.931  13.496  11.049
 6565SOL    HW221593  12.885  13.380  10.962
 6566SOL     OW21594   1.653  14.096   7.506
 6566SOL    HW121595   1.704  14.069   7.583
 6566SOL    HW221596   1.618  14.014   7.471
 6567SOL     OW21597  10.129   9.679   3.086
 6567SOL    HW121598  10.185   9.646   3.157
 6567SOL    HW221599  10.171   9.648   3.006
 6568SOL     OW21600   4.191   5.651   1.032
 6568SOL    HW121601   4.262   5.715   1.037
 6568SOL    HW221602   4.228   5.570   1.066
 6569SOL     OW21603  10.528   3.105  11.868
 6569SOL    HW121604  10.433   3.115  11.869
 6569SOL    HW221605  10.552   3.110  11.775
 6570SOL     OW21606  12.883   0.892  14.230
 6570SOL    HW121607  12.797   0.865  14.198
 6570SOL    HW221608  12.943   0.870  14.159
 6571SOL     OW21609   6.861   0.772   1.604
 6571SOL    HW121610   6.848   0.678   1.609
 6571SOL    HW221611   6.913   0.786   1.525
 6572SOL     OW21612  14.675  12.382   8.508
 6572SOL    HW121613  14.763  12.355   8.480
 6572SOL    HW221614  14.674  12.477   8.494
 6573SOL     OW21615   3.299   6.993   6.008
 6573SOL    HW121616   3.254   7.061   5.958
 6573SOL    HW221617   3.261   6.998   6.096
 6574SOL     OW21618   9.980   0.914   5.730
 6574SOL    HW121619  10.028   0.832   5.719
 6574SOL    HW221620  10.047   0.978   5.756
 6575SOL     OW21621  11.646   5.270   1.945
 6575SOL    HW121622  11.558   5.245   1.916
 6575SOL    HW221623  11.639   5.272   2.041
 6576SOL     OW21624   3.684  13.449   4.184
 6576SOL    HW121625   3.739  13.399   4.245
 6576SOL    HW221626   3.724  13.536   4.182
 6577SOL     OW21627  14.232   1.493  11.598
 6577SOL    HW121628  14.139   1.473  11.585
 6577SOL    HW221629  14.277   1.427  11.545
 6578SOL     OW21630   2.249   8.517   5.935
 6578SOL    HW121631   2.167   8.472   5.954
 6578SOL    HW221632   2.231   8.609   5.955
 6579SOL     OW21633   5.050   1.433   4.814
 6579SOL    HW121634   5.091   1.466   4.894
 6579SOL    HW221635   5.073   1.340   4.812
 6580SOL     OW21636   0.223   5.083  12.909
 6580SOL    HW121637   0.206   5.124  12.993
 6580SOL    HW221638   0.318   5.085  12.899
 6581SOL     OW21639   8.664  14.437   2.558
 6581SOL    HW121640   8.726  14.447   2.630
 6581SOL    HW221641   8.578  14.453   2.597
 6582SOL     OW21642   3.450   1.206   1.875
 6582SOL    HW121643   3.377   1.265   1.854
 6582SOL    HW221644   3.419   1.154   1.949
 6583SOL     OW21645  13.306   8.503  12.851
 6583SOL    HW121646  13.329   8.414  12.824
 6583SOL    HW221647  13.365   8.559  12.800
 6584SOL     OW21648  12.129  12.843   3.482
 6584SOL    HW121649  12.037  12.823   3.501
 6584SOL    HW221650  12.136  12.937   3.496
 6585SOL     OW21651  10.768   8.223  14.592
 6585SOL    HW121652  10.684   8.201  14.634
 6585SOL    HW221653  10.821   8.144  14.602
 6586SOL     OW21654   4.373  13.367  14.772
 6586SOL    HW121655   4.389  13.440  14.831
 6586SOL    HW221656   4.459  13.329  14.755
 6587SOL     OW21657   9.055   3.626   9.790
 6587SOL    HW121658   9.033   3.565   9.719
 6587SOL    HW221659   8.971   3.645   9.832
 6588SOL     OW21660  12.739   5.978   3.874
 6588SOL    HW121661  12.789   5.997   3.795
 6588SOL    HW221662  12.744   6.060   3.925
 6589SOL     OW21663   9.532   7.589   2.054
 6589SOL    HW121664   9.499   7.569   2.142
 6589SOL    HW221665   9.453   7.603   2.001
 6590SOL     OW21666  13.289   7.124   3.341
 6590SOL    HW121667  13.264   7.063   3.410
 6590SOL    HW221668  13.345   7.072   3.283
 6591SOL     OW21669   9.934  14.818   1.337
 6591SOL    HW121670   9.889  14.874   1.274
 6591SOL    HW221671  10.026  14.842   1.330
 6592SOL     OW21672   8.387  10.253   1.413
 6592SOL    HW121673   8.482  10.264   1.416
 6592SOL    HW221674   8.370  10.220   1.325
 6593SOL     OW21675   8.576   9.508   8.156
 6593SOL    HW121676   8.623   9.463   8.225
 6593SOL    HW221677   8.594   9.601   8.171
 6594SOL     OW21678   3.740   9.987   9.875
 6594SOL    HW121679   3.670  10.005   9.938
 6594SOL    HW221680   3.697   9.994   9.789
 6595SOL     OW21681   2.276   3.677  11.298
 6595SOL    HW121682   2.276   3.634  11.212
 6595SOL    HW221683   2.239   3.763  11.281
 6596SOL     OW21684  10.136  11.468   9.076
 6596SOL    HW121685  10.100  11.379   9.073
 6596SOL    HW221686  10.213  11.464   9.019
 6597SOL     OW21687   5.596   0.668  11.896
 6597SOL    HW121688   5.686   0.636  11.903
 6597SOL    HW221689   5.580   0.713  11.979
 6598SOL     OW21690   1.023   6.452   0.385
 6598SOL    HW121691   1.056   6.495   0.307
 6598SOL    HW221692   1.092   6.463   0.450
 6599SOL     OW21693  11.433   9.553   2.391
 6599SOL    HW121694  11.460   9.465   2.365
 6599SOL    HW221695  11.398   9.592   2.311
 6600SOL     OW21696   2.041  10.463   1.256
 6600SOL    HW121697   2.081  10.436   1.338
 6600SOL    HW221698   2.112  10.462   1.192
 6601SOL     OW21699   2.479   3.077  13.859
 6601SOL    HW121700   2.436   3.061  13.943
 6601SOL    HW221701   2.425   3.030  13.795
 6602SOL     OW21702   1.948   8.257   7.275
 6602SOL    HW121703   1.858   8.261   7.307
 6602SOL    HW221704   1.976   8.168   7.295
 6603SOL     OW21705  13.747   0.272   2.853
 6603SOL    HW121706  13.736   0.249   2.761
 6603SOL    HW221707  13.668   0.240   2.896
 6604SOL     OW21708  12.828   6.807  14.589
 6604SOL    HW121709  12.733   6.814  14.603
 6604SOL    HW221710  12.846   6.714  14.594
 6605SOL     OW21711  13.946  13.006  11.559
 6605SOL    HW121712  13.902  13.083  11.594
 6605SOL    HW221713  13.969  12.954  11.636
 6606SOL     OW21714  14.832   2.278   9.237
 6606SOL    HW121715  14.748   2.311   9.270
 6606SOL    HW221716  14.860   2.344   9.174
 6607SOL     OW21717  13.895   6.626   3.057
 6607SOL    HW121718  13.932   6.539   3.041
 6607SOL    HW221719  13.943   6.683   2.997
 6608SOL     OW21720   4.912   1.508   9.496
 6608SOL    HW121721   4.917   1.554   9.413
 6608SOL    HW221722   4.916   1.415   9.472
 6609SOL     OW21723   1.747   7.374  11.032
 6609SOL    HW121724   1.679   7.435  11.004
 6609SOL    HW221725   1.727   7.293  10.985
 6610SOL     OW21726   9.561   4.097  11.043
 6610SOL    HW121727   9.504   4.022  11.031
 6610SOL    HW221728   9.518   4.150  11.110
 6611SOL     OW21729   7.709   9.538   5.513
 6611SOL    HW121730   7.766   9.548   5.589
 6611SOL    HW221731   7.706   9.444   5.496
 6612SOL     OW21732  14.311   1.971  11.739
 6612SOL    HW121733  14.283   2.061  11.720
 6612SOL    HW221734  14.406   1.972  11.723
 6613SOL     OW21735  14.747   1.953   1.527
 6613SOL    HW121736  14.711   2.034   1.563
 6613SOL    HW221737  14.750   1.969   1.433
 6614SOL     OW21738  13.570   7.229   2.546
 6614SOL    HW121739  13.476   7.244   2.552
 6614SOL    HW221740  13.606   7.264   2.627
 6615SOL     OW21741  10.650   4.294   0.929
 6615SOL    HW121742  10.665   4.235   0.855
 6615SOL    HW221743  10.737   4.315   0.961
 6616SOL     OW21744   5.387   3.615   0.592
 6616SOL    HW121745   5.463   3.670   0.575
 6616SOL    HW221746   5.323   3.674   0.633
 6617SOL     OW21747   3.483   6.705   7.493
 6617SOL    HW121748   3.400   6.751   7.479
 6617SOL    HW221749   3.458   6.612   7.495
 6618SOL     OW21750  10.771  14.167   9.936
 6618SOL    HW121751  10.784  14.261   9.926
 6618SOL    HW221752  10.677  14.155   9.934
 6619SOL     OW21753   7.759   4.540   2.904
 6619SOL    HW121754   7.776   4.492   2.823
 6619SOL    HW221755   7.846   4.552   2.944
 6620SOL     OW21756   1.705  13.946   9.689
 6620SOL    HW121757   1.778  14.006   9.670
 6620SOL    HW221758   1.722  13.917   9.778
 6621SOL     OW21759   4.599   1.263  12.889
 6621SOL    HW121760   4.628   1.223  12.971
 6621SOL    HW221761   4.582   1.354  12.911
 6622SOL     OW21762   2.140   5.298   6.458
 6622SOL    HW121763   2.190   5.315   6.538
 6622SOL    HW221764   2.050   5.321   6.480
 6623SOL     OW21765   2.873  14.569   4.524
 6623SOL    HW121766   2.877  14.492   4.581
 6623SOL    HW221767   2.959  14.610   4.532
 6624SOL     OW21768  11.868  12.594   2.279
 6624SOL    HW121769  11.884  12.534   2.206
 6624SOL    HW221770  11.923  12.560   2.350
 6625SOL     OW21771  14.811   2.922   7.302
 6625SOL    HW121772  14.795   2.931   7.396
 6625SOL    HW221773  14.744   2.976   7.261
 6626SOL     OW21774   4.254  12.041   6.718
 6626SOL    HW121775   4.282  12.028   6.628
 6626SOL    HW221776   4.160  12.060   6.711
 6627SOL     OW21777   1.095  12.627   1.317
 6627SOL    HW121778   1.008  12.593   1.294
 6627SOL    HW221779   1.148  12.548   1.329
 6628SOL     OW21780   3.381  10.928   6.256
 6628SOL    HW121781   3.424  10.933   6.170
 6628SOL    HW221782   3.307  10.869   6.242
 6629SOL     OW21783   1.818  11.909   9.272
 6629SOL    HW121784   1.870  11.953   9.204
 6629SOL    HW221785   1.865  11.827   9.289
 6630SOL     OW21786  12.163  13.913   4.657
 6630SOL    HW121787  12.167  13.865   4.574
 6630SOL    HW221788  12.253  13.939   4.674
 6631SOL     OW21789   6.620   7.487   4.412
 6631SOL    HW121790   6.634   7.559   4.474
 6631SOL    HW221791   6.527   7.489   4.393
 6632SOL     OW21792   5.657   6.243   5.893
 6632SOL    HW121793   5.687   6.188   5.965
 6632SOL    HW221794   5.660   6.185   5.816
 6633SOL     OW21795  13.476   3.258   4.652
 6633SOL    HW121796  13.507   3.220   4.735
 6633SOL    HW221797  13.416   3.193   4.617
 6634SOL     OW21798   3.142   0.462   6.527
 6634SOL    HW121799   3.188   0.392   6.479
 6634SOL    HW221800   3.118   0.422   6.610
 6635SOL     OW21801  13.271   7.016  12.196
 6635SOL    HW121802  13.289   6.924  12.177
 6635SOL    HW221803  13.303   7.028  12.286
 6636SOL     OW21804   0.496   4.894   9.365
 6636SOL    HW121805   0.478   4.966   9.304
 6636SOL    HW221806   0.491   4.935   9.452
 6637SOL     OW21807   3.134   5.310   2.882
 6637SOL    HW121808   3.165   5.221   2.867
 6637SOL    HW221809   3.203   5.366   2.847
 6638SOL     OW21810   2.157   8.349  13.010
 6638SOL    HW121811   2.219   8.301  12.955
 6638SOL    HW221812   2.103   8.282  13.051
 6639SOL     OW21813  12.665  12.685   3.956
 6639SOL    HW121814  12.702  12.744   4.022
 6639SOL    HW221815  12.714  12.704   3.876
 6640SOL     OW21816   1.485  12.204   5.925
 6640SOL    HW121817   1.457  12.142   5.857
 6640SOL    HW221818   1.421  12.274   5.922
 6641SOL     OW21819   0.441  13.667   9.487
 6641SOL    HW121820   0.408  13.716   9.413
 6641SOL    HW221821   0.380  13.685   9.558
 6642SOL     OW21822   2.447  10.266   0.003
 6642SOL    HW121823   2.431  10.241   0.093
 6642SOL    HW221824   2.360  10.282  14.846
 6643SOL     OW21825   2.162   7.161   3.804
 6643SOL    HW121826   2.132   7.071   3.815
 6643SOL    HW221827   2.150   7.179   3.711
 6644SOL     OW21828   1.988  10.787   4.719
 6644SOL    HW121829   2.035  10.865   4.748
 6644SOL    HW221830   1.955  10.810   4.633
 6645SOL     OW21831   5.284   6.937  14.345
 6645SOL    HW121832   5.204   6.975  14.309
 6645SOL    HW221833   5.330   7.012  14.384
 6646SOL     OW21834   5.949  13.787  11.828
 6646SOL    HW121835   5.865  13.741  11.826
 6646SOL    HW221836   5.928  13.874  11.863
 6647SOL     OW21837   5.295  11.726   4.650
 6647SOL    HW121838   5.298  11.646   4.702
 6647SOL    HW221839   5.386  11.755   4.644
 6648SOL     OW21840   0.667  11.171   5.144
 6648SOL    HW121841   0.646  11.211   5.059
 6648SOL    HW221842   0.591  11.190   5.199
 6649SOL     OW21843  10.686   4.784   6.351
 6649SOL    HW121844  10.739   4.846   6.301
 6649SOL    HW221845  10.665   4.714   6.289
 6650SOL     OW21846   2.128   4.011   0.041
 6650SOL    HW121847   2.191   3.942   0.022
 6650SOL    HW221848   2.062   4.003  14.852
 6651SOL     OW21849   2.445   0.426   7.238
 6651SOL    HW121850   2.524   0.405   7.188
 6651SOL    HW221851   2.376   0.373   7.198
 6652SOL     OW21852  12.726   7.638   5.867
 6652SOL    HW121853  12.672   7.606   5.939
 6652SOL    HW221854  12.688   7.598   5.789
 6653SOL     OW21855  10.462   2.300   5.665
 6653SOL    HW121856  10.510   2.222   5.638
 6653SOL    HW221857  10.456   2.293   5.760
 6654SOL     OW21858   7.512  11.265  10.376
 6654SOL    HW121859   7.442  11.326  10.357
 6654SOL    HW221860   7.493  11.189  10.321
 6655SOL     OW21861   6.504   7.355   8.561
 6655SOL    HW121862   6.582   7.410   8.568
 6655SOL    HW221863   6.431   7.417   8.558
 6656SOL     OW21864   9.960   3.978  12.395
 6656SOL    HW121865  10.040   3.997  12.445
 6656SOL    HW221866   9.893   4.034  12.436
 6657SOL     OW21867  10.988   0.540   4.450
 6657SOL    HW121868  11.005   0.633   4.433
 6657SOL    HW221869  10.895   0.537   4.475
 6658SOL     OW21870   3.261   6.813   6.768
 6658SOL    HW121871   3.329   6.863   6.722
 6658SOL    HW221872   3.305   6.781   6.846
 6659SOL     OW21873   1.887   9.507   1.530
 6659SOL    HW121874   1.818   9.572   1.522
 6659SOL    HW221875   1.914   9.490   1.440
 6660SOL     OW21876   6.624   1.484  14.792
 6660SOL    HW121877   6.610   1.566  14.745
 6660SOL    HW221878   6.617   1.507   0.005
 6661SOL     OW21879   7.438   9.490  12.550
 6661SOL    HW121880   7.445   9.397  12.573
 6661SOL    HW221881   7.422   9.534  12.633
 6662SOL     OW21882   4.882   0.432   5.327
 6662SOL    HW121883   4.869   0.377   5.249
 6662SOL    HW221884   4.938   0.503   5.296
 6663SOL     OW21885   0.624   4.372  14.463
 6663SOL    HW121886   0.597   4.433  14.394
 6663SOL    HW221887   0.588   4.288  14.436
 6664SOL     OW21888  10.408   0.116   9.476
 6664SOL    HW121889  10.499   0.088   9.480
 6664SOL    HW221890  10.386   0.112   9.383
 6665SOL     OW21891  14.242   6.664   4.190
 6665SOL    HW121892  14.194   6.725   4.134
 6665SOL    HW221893  14.333   6.673   4.165
 6666SOL     OW21894  13.612   8.762   0.389
 6666SOL    HW121895  13.549   8.806   0.332
 6666SOL    HW221896  13.567   8.682   0.419
 6667SOL     OW21897   1.656   4.129   3.799
 6667SOL    HW121898   1.738   4.093   3.832
 6667SOL    HW221899   1.657   4.221   3.825
 6668SOL     OW21900  10.518  12.040   3.777
 6668SOL    HW121901  10.583  11.984   3.735
 6668SOL    HW221902  10.515  12.009   3.868
 6669SOL     OW21903   1.275   7.043   4.168
 6669SOL    HW121904   1.265   7.137   4.184
 6669SOL    HW221905   1.254   7.002   4.252
 6670SOL     OW21906   5.644  10.299   1.371
 6670SOL    HW121907   5.700  10.350   1.430
 6670SOL    HW221908   5.583  10.362   1.335
 6671SOL     OW21909   0.971   3.019   4.831
 6671SOL    HW121910   1.028   3.010   4.755
 6671SOL    HW221911   0.978   3.111   4.855
 6672SOL     OW21912   0.773   3.143   5.182
 6672SOL    HW121913   0.809   3.089   5.252
 6672SOL    HW221914   0.693   3.181   5.220
 6673SOL     OW21915  13.086   4.569   6.685
 6673SOL    HW121916  13.052   4.552   6.772
 6673SOL    HW221917  13.089   4.665   6.678
 6674SOL     OW21918   0.416   1.127   7.852
 6674SOL    HW121919   0.424   1.190   7.780
 6674SOL    HW221920   0.477   1.057   7.829
 6675SOL     OW21921   6.540   1.777  14.652
 6675SOL    HW121922   6.541   1.776  14.557
 6675SOL    HW221923   6.447   1.778  14.675
 6676SOL     OW21924  11.796   7.943  12.843
 6676SOL    HW121925  11.812   7.887  12.767
 6676SOL    HW221926  11.835   8.027  12.820
 6677SOL     OW21927   8.833   7.587  14.640
 6677SOL    HW121928   8.738   7.576  14.636
 6677SOL    HW221929   8.846   7.661  14.700
 6678SOL     OW21930   1.616  13.831   1.559
 6678SOL    HW121931   1.698  13.854   1.601
 6678SOL    HW221932   1.548  13.874   1.611
 6679SOL     OW21933   7.245  12.615   6.425
 6679SOL    HW121934   7.263  12.521   6.422
 6679SOL    HW221935   7.152  12.622   6.402
 6680SOL     OW21936   1.535   5.774  13.744
 6680SOL    HW121937   1.534   5.766  13.840
 6680SOL    HW221938   1.446   5.802  13.722
 6681SOL     OW21939   3.559   3.248   9.452
 6681SOL    HW121940   3.500   3.319   9.428
 6681SOL    HW221941   3.529   3.219   9.538
 6682SOL     OW21942  14.407  10.881  11.084
 6682SOL    HW121943  14.465  10.916  11.016
 6682SOL    HW221944  14.319  10.907  11.057
 6683SOL     OW21945  10.847   7.637  13.302
 6683SOL    HW121946  10.868   7.645  13.395
 6683SOL    HW221947  10.751   7.629  13.300
 6684SOL     OW21948  10.671  14.657  11.394
 6684SOL    HW121949  10.718  14.660  11.311
 6684SOL    HW221950  10.653  14.564  11.408
 6685SOL     OW21951  11.384   4.792   3.664
 6685SOL    HW121952  11.444   4.747   3.723
 6685SOL    HW221953  11.303   4.740   3.669
 6686SOL     OW21954   3.244   3.869   4.111
 6686SOL    HW121955   3.267   3.899   4.023
 6686SOL    HW221956   3.232   3.775   4.102
 6687SOL     OW21957   4.105   5.593   0.484
 6687SOL    HW121958   4.027   5.547   0.517
 6687SOL    HW221959   4.127   5.655   0.553
 6688SOL     OW21960  11.441   1.648   9.639
 6688SOL    HW121961  11.484   1.723   9.680
 6688SOL    HW221962  11.512   1.586   9.624
 6689SOL     OW21963  12.044   7.564   0.079
 6689SOL    HW121964  12.065   7.522   0.163
 6689SOL    HW221965  12.090   7.511   0.014
 6690SOL     OW21966   9.624  13.046   3.787
 6690SOL    HW121967   9.630  13.140   3.771
 6690SOL    HW221968   9.530  13.026   3.780
 6691SOL     OW21969   1.115   3.743   4.485
 6691SOL    HW121970   1.050   3.786   4.430
 6691SOL    HW221971   1.180   3.810   4.503
 6692SOL     OW21972   1.092  13.745   1.065
 6692SOL    HW121973   1.142  13.702   1.134
 6692SOL    HW221974   1.141  13.826   1.047
 6693SOL     OW21975   0.794   9.941  10.812
 6693SOL    HW121976   0.819   9.945  10.720
 6693SOL    HW221977   0.794   9.848  10.834
 6694SOL     OW21978  11.698  14.287  13.954
 6694SOL    HW121979  11.668  14.303  14.044
 6694SOL    HW221980  11.664  14.200  13.933
 6695SOL     OW21981   0.481   9.634   5.335
 6695SOL    HW121982   0.571   9.625   5.367
 6695SOL    HW221983   0.456   9.723   5.357
 6696SOL     OW21984   1.398  13.722  11.132
 6696SOL    HW121985   1.424  13.679  11.050
 6696SOL    HW221986   1.473  13.776  11.155
 6697SOL     OW21987   2.777  13.485  12.704
 6697SOL    HW121988   2.831  13.511  12.778
 6697SOL    HW221989   2.714  13.556  12.695
 6698SOL     OW21990   4.757   9.628   8.115
 6698SOL    HW121991   4.836   9.616   8.169
 6698SOL    HW221992   4.756   9.721   8.096
 6699SOL     OW21993   8.332  12.467   1.774
 6699SOL    HW121994   8.345  12.559   1.751
 6699SOL    HW221995   8.377  12.419   1.704
 6700SOL     OW21996   1.332  10.868   2.243
 6700SOL    HW121997   1.281  10.794   2.277
 6700SOL    HW221998   1.279  10.903   2.172
 6701SOL     OW21999   1.424   8.715   6.470
 6701SOL    HW122000   1.397   8.675   6.387
 6701SOL    HW222001   1.506   8.670   6.492
 6702SOL     OW22002   8.482   8.628   9.297
 6702SOL    HW122003   8.463   8.622   9.204
 6702SOL    HW222004   8.420   8.568   9.339
 6703SOL     OW22005   6.602   5.416  14.488
 6703SOL    HW122006   6.628   5.443  14.575
 6703SOL    HW222007   6.668   5.455  14.430
 6704SOL     OW22008   0.802   8.669   8.737
 6704SOL    HW122009   0.753   8.726   8.796
 6704SOL    HW222010   0.759   8.679   8.652
 6705SOL     OW22011   6.956   0.594   8.697
 6705SOL    HW122012   6.955   0.591   8.793
 6705SOL    HW222013   7.047   0.611   8.675
 6706SOL     OW22014   0.084   5.606  11.634
 6706SOL    HW122015   0.112   5.580  11.722
 6706SOL    HW222016   0.110   5.534  11.577
 6707SOL     OW22017   2.562   9.699   8.538
 6707SOL    HW122018   2.564   9.757   8.614
 6707SOL    HW222019   2.539   9.613   8.573
 6708SOL     OW22020  12.911   8.106   7.050
 6708SOL    HW122021  12.833   8.133   7.099
 6708SOL    HW222022  12.917   8.170   6.979
 6709SOL     OW22023   8.566   3.452   9.607
 6709SOL    HW122024   8.585   3.402   9.528
 6709SOL    HW222025   8.620   3.411   9.675
 6710SOL     OW22026   3.678   7.969   0.996
 6710SOL    HW122027   3.676   7.991   0.903
 6710SOL    HW222028   3.637   7.882   1.000
 6711SOL     OW22029   0.616   9.176  12.945
 6711SOL    HW122030   0.549   9.225  12.993
 6711SOL    HW222031   0.683   9.156  13.010
 6712SOL     OW22032  10.355  13.123   9.122
 6712SOL    HW122033  10.301  13.129   9.201
 6712SOL    HW222034  10.321  13.047   9.075
 6713SOL     OW22035   7.281   1.921   2.897
 6713SOL    HW122036   7.197   1.966   2.907
 6713SOL    HW222037   7.312   1.946   2.809
 6714SOL     OW22038   9.601  10.290   3.942
 6714SOL    HW122039   9.514  10.263   3.913
 6714SOL    HW222040   9.612  10.378   3.907
 6715SOL     OW22041   5.361   1.341  10.506
 6715SOL    HW122042   5.457   1.339  10.509
 6715SOL    HW222043   5.340   1.424  10.463
 6716SOL     OW22044  13.256   0.192   5.869
 6716SOL    HW122045  13.233   0.111   5.823
 6716SOL    HW222046  13.323   0.233   5.815
 6717SOL     OW22047   2.331   5.124   9.105
 6717SOL    HW122048   2.328   5.220   9.098
 6717SOL    HW222049   2.418   5.106   9.142
 6718SOL     OW22050   1.458   6.664  13.105
 6718SOL    HW122051   1.391   6.683  13.040
 6718SOL    HW222052   1.486   6.750  13.136
 6719SOL     OW22053  13.650   5.603  12.962
 6719SOL    HW122054  13.594   5.642  12.894
 6719SOL    HW222055  13.719   5.668  12.976
 6720SOL     OW22056   7.525   4.047   6.374
 6720SOL    HW122057   7.532   3.954   6.354
 6720SOL    HW222058   7.515   4.050   6.469
 6721SOL     OW22059   7.984   4.040  12.104
 6721SOL    HW122060   7.907   4.020  12.156
 6721SOL    HW222061   7.989   4.136  12.103
 6722SOL     OW22062   9.182   8.733  11.624
 6722SOL    HW122063   9.190   8.802  11.559
 6722SOL    HW222064   9.272   8.718  11.654
 6723SOL     OW22065   4.136  14.564  13.805
 6723SOL    HW122066   4.168  14.532  13.721
 6723SOL    HW222067   4.195  14.525  13.870
 6724SOL     OW22068   2.849  10.530   7.232
 6724SOL    HW122069   2.875  10.538   7.324
 6724SOL    HW222070   2.923  10.487   7.190
 6725SOL     OW22071   0.226   1.595   5.788
 6725SOL    HW122072   0.223   1.502   5.766
 6725SOL    HW222073   0.181   1.601   5.873
 6726SOL     OW22074   6.900  12.796  14.110
 6726SOL    HW122075   6.985  12.833  14.087
 6726SOL    HW222076   6.912  12.701  14.104
 6727SOL     OW22077  12.907  14.356   8.280
 6727SOL    HW122078  13.000  14.340   8.265
 6727SOL    HW222079  12.904  14.436   8.332
 6728SOL     OW22080  11.332   7.417  12.873
 6728SOL    HW122081  11.410   7.362  12.865
 6728SOL    HW222082  11.345   7.487  12.809
 6729SOL     OW22083   6.076  10.514   3.667
 6729SOL    HW122084   6.124  10.435   3.689
 6729SOL    HW222085   6.135  10.562   3.608
 6730SOL     OW22086  10.508   5.870   0.647
 6730SOL    HW122087  10.541   5.795   0.599
 6730SOL    HW222088  10.513   5.844   0.739
 6731SOL     OW22089   3.265  10.737  12.561
 6731SOL    HW122090   3.209  10.699  12.629
 6731SOL    HW222091   3.351  10.698  12.577
 6732SOL     OW22092   7.984   0.497   0.005
 6732SOL    HW122093   7.927   0.536   0.071
 6732SOL    HW222094   8.073   0.517   0.034
 6733SOL     OW22095  12.854   7.523  12.254
 6733SOL    HW122096  12.940   7.560  12.275
 6733SOL    HW222097  12.791   7.587  12.289
 6734SOL     OW22098  12.225   5.376   5.057
 6734SOL    HW122099  12.317   5.394   5.077
 6734SOL    HW222100  12.199   5.448   5.000
 6735SOL     OW22101   8.407   8.683  11.768
 6735SOL    HW122102   8.454   8.765  11.755
 6735SOL    HW222103   8.456   8.619  11.715
 6736SOL     OW22104   5.980   3.517  12.764
 6736SOL    HW122105   6.070   3.550  12.760
 6736SOL    HW222106   5.990   3.422  12.774
 6737SOL     OW22107  10.794   9.973   3.761
 6737SOL    HW122108  10.813   9.966   3.668
 6737SOL    HW222109  10.864  10.030   3.795
 6738SOL     OW22110   6.782   0.583   2.919
 6738SOL    HW122111   6.728   0.510   2.948
 6738SOL    HW222112   6.721   0.655   2.903
 6739SOL     OW22113  12.441   8.410   1.588
 6739SOL    HW122114  12.467   8.389   1.498
 6739SOL    HW222115  12.465   8.502   1.598
 6740SOL     OW22116   8.220  10.988   2.922
 6740SOL    HW122117   8.231  11.052   2.992
 6740SOL    HW222118   8.245  11.035   2.842
 6741SOL     OW22119   1.497   6.671   6.982
 6741SOL    HW122120   1.582   6.674   7.025
 6741SOL    HW222121   1.453   6.596   7.021
 6742SOL     OW22122  10.441   6.896   3.366
 6742SOL    HW122123  10.384   6.865   3.436
 6742SOL    HW222124  10.471   6.817   3.322
 6743SOL     OW22125   3.253   9.226   2.892
 6743SOL    HW122126   3.199   9.304   2.877
 6743SOL    HW222127   3.240   9.173   2.813
 6744SOL     OW22128   0.483  12.973  11.287
 6744SOL    HW122129   0.481  13.047  11.227
 6744SOL    HW222130   0.400  12.927  11.271
 6745SOL     OW22131   1.135   3.974   7.907
 6745SOL    HW122132   1.198   3.915   7.868
 6745SOL    HW222133   1.051   3.929   7.898
 6746SOL     OW22134   2.696  13.386   4.011
 6746SOL    HW122135   2.767  13.427   3.962
 6746SOL    HW222136   2.739  13.347   4.088
 6747SOL     OW22137  12.560   2.537   4.031
 6747SOL    HW122138  12.553   2.506   4.122
 6747SOL    HW222139  12.640   2.497   3.998
 6748SOL     OW22140   3.190   9.520   9.585
 6748SOL    HW122141   3.099   9.530   9.613
 6748SOL    HW222142   3.210   9.428   9.600
 6749SOL     OW22143   1.121  14.145  13.896
 6749SOL    HW122144   1.127  14.114  13.986
 6749SOL    HW222145   1.209  14.135  13.861
 6750SOL     OW22146   7.621   6.535  14.211
 6750SOL    HW122147   7.714   6.510  14.213
 6750SOL    HW222148   7.590   6.506  14.125
 6751SOL     OW22149  11.295   0.801   7.909
 6751SOL    HW122150  11.227   0.864   7.932
 6751SOL    HW222151  11.282   0.785   7.816
 6752SOL     OW22152   8.969   7.610   0.616
 6752SOL    HW122153   8.897   7.548   0.624
 6752SOL    HW222154   9.007   7.616   0.704
 6753SOL     OW22155   5.979   2.245   6.377
 6753SOL    HW122156   6.061   2.255   6.425
 6753SOL    HW222157   5.942   2.333   6.373
 6754SOL     OW22158   2.903   3.673  13.566
 6754SOL    HW122159   2.945   3.657  13.482
 6754SOL    HW222160   2.812   3.693  13.544
 6755SOL     OW22161   4.923  11.256  13.911
 6755SOL    HW122162   4.872  11.190  13.865
 6755SOL    HW222163   4.867  11.334  13.912
 6756SOL     OW22164   3.376   5.644   1.953
 6756SOL    HW122165   3.292   5.602   1.973
 6756SOL    HW222166   3.368   5.669   1.861
 6757SOL     OW22167   9.353   7.609  11.807
 6757SOL    HW122168   9.444   7.578  11.809
 6757SOL    HW222169   9.357   7.692  11.760
 6758SOL     OW22170   5.305   7.897  11.981
 6758SOL    HW122171   5.332   7.909  11.890
 6758SOL    HW222172   5.236   7.831  11.976
 6759SOL     OW22173   6.302   6.858   4.877
 6759SOL    HW122174   6.388   6.818   4.875
 6759SOL    HW222175   6.288   6.882   4.969
 6760SOL     OW22176  13.339   6.697   1.069
 6760SOL    HW122177  13.329   6.755   0.993
 6760SOL    HW222178  13.321   6.609   1.035
 6761SOL     OW22179   1.615   4.588   0.781
 6761SOL    HW122180   1.571   4.635   0.852
 6761SOL    HW222181   1.598   4.496   0.799
 6762SOL     OW22182   2.737   9.865  13.148
 6762SOL    HW122183   2.779   9.951  13.152
 6762SOL    HW222184   2.749   9.836  13.057
 6763SOL     OW22185  10.028   3.572   2.311
 6763SOL    HW122186  10.092   3.553   2.242
 6763SOL    HW222187  10.073   3.550   2.392
 6764SOL     OW22188   4.392  10.969   4.912
 6764SOL    HW122189   4.383  10.962   5.007
 6764SOL    HW222190   4.486  10.960   4.896
 6765SOL     OW22191  10.900  13.962  14.258
 6765SOL    HW122192  10.882  14.056  14.258
 6765SOL    HW222193  10.827  13.923  14.208
 6766SOL     OW22194  13.501   3.209  13.222
 6766SOL    HW122195  13.541   3.212  13.135
 6766SOL    HW222196  13.485   3.301  13.245
 6767SOL     OW22197   2.626   6.332  11.546
 6767SOL    HW122198   2.573   6.316  11.468
 6767SOL    HW222199   2.713   6.351  11.512
 6768SOL     OW22200   2.104   2.146   8.988
 6768SOL    HW122201   2.037   2.206   9.021
 6768SOL    HW222202   2.161   2.131   9.063
 6769SOL     OW22203  12.717  12.131   3.507
 6769SOL    HW122204  12.770  12.200   3.546
 6769SOL    HW222205  12.671  12.173   3.435
 6770SOL     OW22206   9.497  14.836  12.846
 6770SOL    HW122207   9.514  14.844  12.752
 6770SOL    HW222208   9.499   0.046  12.879
 6771SOL     OW22209  13.014  10.259  13.428
 6771SOL    HW122210  13.071  10.189  13.460
 6771SOL    HW222211  12.963  10.218  13.358
 6772SOL     OW22212  12.058   6.234  14.406
 6772SOL    HW122213  12.149   6.240  14.434
 6772SOL    HW222214  12.062   6.230  14.310
 6773SOL     OW22215   1.702   3.754   3.247
 6773SOL    HW122216   1.674   3.663   3.255
 6773SOL    HW222217   1.709   3.770   3.153
 6774SOL     OW22218  13.532   0.100  14.653
 6774SOL    HW122219  13.461   0.067  14.599
 6774SOL    HW222220  13.519   0.194  14.656
 6775SOL     OW22221  11.188   0.356   5.235
 6775SOL    HW122222  11.102   0.398   5.235
 6775SOL    HW222223  11.194   0.314   5.320
 6776SOL     OW22224   0.894   3.153   8.975
 6776SOL    HW122225   0.939   3.159   8.891
 6776SOL    HW222226   0.952   3.194   9.038
 6777SOL     OW22227   9.110   1.188   2.405
 6777SOL    HW122228   9.030   1.142   2.429
 6777SOL    HW222229   9.176   1.119   2.397
 6778SOL     OW22230   7.103  14.737   7.730
 6778SOL    HW122231   7.040  14.764   7.797
 6778SOL    HW222232   7.161  14.813   7.721
 6779SOL     OW22233   5.607  11.219  10.339
 6779SOL    HW122234   5.625  11.234  10.247
 6779SOL    HW222235   5.660  11.142  10.362
 6780SOL     OW22236   2.746  14.351   5.832
 6780SOL    HW122237   2.835  14.318   5.827
 6780SOL    HW222238   2.746  14.410   5.907
 6781SOL     OW22239   5.951   7.078   5.087
 6781SOL    HW122240   5.869   7.061   5.043
 6781SOL    HW222241   5.927   7.124   5.168
 6782SOL     OW22242   8.582  13.964   3.491
 6782SOL    HW122243   8.576  13.925   3.578
 6782SOL    HW222244   8.519  13.916   3.438
 6783SOL     OW22245   3.412   1.605  11.301
 6783SOL    HW122246   3.353   1.666  11.344
 6783SOL    HW222247   3.499   1.630  11.332
 6784SOL     OW22248   7.267   5.636   3.424
 6784SOL    HW122249   7.333   5.698   3.454
 6784SOL    HW222250   7.257   5.655   3.331
 6785SOL     OW22251   4.243   9.949  11.710
 6785SOL    HW122252   4.260  10.039  11.680
 6785SOL    HW222253   4.302   9.895  11.658
 6786SOL     OW22254  14.378   6.700   6.448
 6786SOL    HW122255  14.435   6.623   6.441
 6786SOL    HW222256  14.436   6.770   6.479
 6787SOL     OW22257   8.033  14.070  12.487
 6787SOL    HW122258   8.019  14.106  12.574
 6787SOL    HW222259   8.117  14.107  12.459
 6788SOL     OW22260   8.286   6.772  13.342
 6788SOL    HW122261   8.363   6.731  13.302
 6788SOL    HW222262   8.301   6.866  13.332
 6789SOL     OW22263   5.763   2.339   9.988
 6789SOL    HW122264   5.839   2.358  10.042
 6789SOL    HW222265   5.771   2.399   9.914
 6790SOL     OW22266   0.485  11.274   9.701
 6790SOL    HW122267   0.513  11.292   9.791
 6790SOL    HW222268   0.511  11.184   9.685
 6791SOL     OW22269   3.848   9.510  14.047
 6791SOL    HW122270   3.831   9.555  13.964
 6791SOL    HW222271   3.767   9.519  14.097
 6792SOL     OW22272   6.729  13.789  12.541
 6792SOL    HW122273   6.719  13.817  12.450
 6792SOL    HW222274   6.690  13.702  12.544
 6793SOL     OW22275  11.107   5.661   5.932
 6793SOL    HW122276  11.135   5.571   5.949
 6793SOL    HW222277  11.080   5.662   5.840
 6794SOL     OW22278   1.420   6.483   5.101
 6794SOL    HW122279   1.460   6.534   5.171
 6794SOL    HW222280   1.428   6.538   5.023
 6795SOL     OW22281   2.719  11.310   1.093
 6795SOL    HW122282   2.683  11.265   1.017
 6795SOL    HW222283   2.643  11.340   1.142
 6796SOL     OW22284  10.556   4.850  12.000
 6796SOL    HW122285  10.480   4.885  11.953
 6796SOL    HW222286  10.555   4.757  11.981
 6797SOL     OW22287   6.692   2.939  14.319
 6797SOL    HW122288   6.655   3.024  14.293
 6797SOL    HW222289   6.709   2.895  14.236
 6798SOL     OW22290  10.553   8.347   1.358
 6798SOL    HW122291  10.587   8.295   1.431
 6798SOL    HW222292  10.619   8.337   1.289
 6799SOL     OW22293  11.637   4.990   2.061
 6799SOL    HW122294  11.666   5.001   1.970
 6799SOL    HW222295  11.547   4.960   2.054
 6800SOL     OW22296   0.555   5.771  10.438
 6800SOL    HW122297   0.563   5.695  10.495
 6800SOL    HW222298   0.465   5.800  10.449
 6801SOL     OW22299  10.166  12.606  14.799
 6801SOL    HW122300  10.077  12.595  14.766
 6801SOL    HW222301  10.211  12.525  14.774
 6802SOL     OW22302   7.958  10.696   4.108
 6802SOL    HW122303   7.944  10.790   4.103
 6802SOL    HW222304   7.980  10.680   4.200
 6803SOL     OW22305   9.398   1.912   8.907
 6803SOL    HW122306   9.334   1.899   8.977
 6803SOL    HW222307   9.455   1.836   8.913
 6804SOL     OW22308   6.627   6.717  10.564
 6804SOL    HW122309   6.586   6.750  10.644
 6804SOL    HW222310   6.654   6.628  10.585
 6805SOL     OW22311  12.623   9.472   9.658
 6805SOL    HW122312  12.543   9.462   9.710
 6805SOL    HW222313  12.593   9.507   9.574
 6806SOL     OW22314   9.930   6.039   2.707
 6806SOL    HW122315   9.864   6.035   2.637
 6806SOL    HW222316  10.014   6.045   2.661
 6807SOL     OW22317   9.630   7.614   4.638
 6807SOL    HW122318   9.595   7.566   4.562
 6807SOL    HW222319   9.718   7.578   4.650
 6808SOL     OW22320   3.758  12.346  14.227
 6808SOL    HW122321   3.730  12.437  14.238
 6808SOL    HW222322   3.681  12.301  14.193
 6809SOL     OW22323   5.169   6.917   7.000
 6809SOL    HW122324   5.151   6.965   7.080
 6809SOL    HW222325   5.179   6.826   7.029
 6810SOL     OW22326   7.468   0.785   7.408
 6810SOL    HW122327   7.535   0.725   7.376
 6810SOL    HW222328   7.386   0.736   7.397
 6811SOL     OW22329   8.097   2.555   7.941
 6811SOL    HW122330   8.184   2.517   7.944
 6811SOL    HW222331   8.079   2.583   8.031
 6812SOL     OW22332   1.987   1.364  12.243
 6812SOL    HW122333   1.964   1.434  12.182
 6812SOL    HW222334   2.079   1.344  12.223
 6813SOL     OW22335   9.865   1.074   4.586
 6813SOL    HW122336   9.837   1.070   4.494
 6813SOL    HW222337   9.953   1.037   4.586
 6814SOL     OW22338  14.451  10.808   3.589
 6814SOL    HW122339  14.444  10.902   3.603
 6814SOL    HW222340  14.491  10.774   3.670
 6815SOL     OW22341   2.148   7.108  10.097
 6815SOL    HW122342   2.211   7.177  10.075
 6815SOL    HW222343   2.157   7.044  10.026
 6816SOL     OW22344   5.961  10.262   0.550
 6816SOL    HW122345   6.042  10.255   0.500
 6816SOL    HW222346   5.936  10.354   0.542
 6817SOL     OW22347  10.951   1.589  10.652
 6817SOL    HW122348  10.883   1.567  10.716
 6817SOL    HW222349  10.976   1.679  10.672
 6818SOL     OW22350   1.514  10.625  11.064
 6818SOL    HW122351   1.449  10.568  11.022
 6818SOL    HW222352   1.584  10.634  11.000
 6819SOL     OW22353   7.782   9.903   6.502
 6819SOL    HW122354   7.734   9.983   6.478
 6819SOL    HW222355   7.859   9.936   6.549
 6820SOL     OW22356   9.473  13.296   3.341
 6820SOL    HW122357   9.462  13.267   3.432
 6820SOL    HW222358   9.400  13.355   3.325
 6821SOL     OW22359   0.345   6.393  13.388
 6821SOL    HW122360   0.413   6.335  13.421
 6821SOL    HW222361   0.280   6.396  13.459
 6822SOL     OW22362   3.717   7.672   0.476
 6822SOL    HW122363   3.708   7.579   0.453
 6822SOL    HW222364   3.788   7.704   0.420
 6823SOL     OW22365   7.530   9.286   2.645
 6823SOL    HW122366   7.441   9.259   2.621
 6823SOL    HW222367   7.526   9.381   2.652
 6824SOL     OW22368  13.286  12.191   0.093
 6824SOL    HW122369  13.192  12.183   0.075
 6824SOL    HW222370  13.312  12.272   0.049
 6825SOL     OW22371  12.311  10.553   3.522
 6825SOL    HW122372  12.371  10.545   3.596
 6825SOL    HW222373  12.232  10.507   3.550
 6826SOL     OW22374  10.191  10.155   0.418
 6826SOL    HW122375  10.272  10.184   0.461
 6826SOL    HW222376  10.220  10.121   0.334
 6827SOL     OW22377   4.231   9.705   3.638
 6827SOL    HW122378   4.326   9.711   3.645
 6827SOL    HW222379   4.199   9.778   3.691
 6828SOL     OW22380   3.986   0.609  12.368
 6828SOL    HW122381   3.949   0.563  12.444
 6828SOL    HW222382   3.910   0.637  12.318
 6829SOL     OW22383   4.528  12.402   0.009
 6829SOL    HW122384   4.481  12.352  14.822
 6829SOL    HW222385   4.554  12.337   0.074
 6830SOL     OW22386  10.175   7.659  13.138
 6830SOL    HW122387  10.105   7.595  13.128
 6830SOL    HW222388  10.199   7.684  13.049
 6831SOL     OW22389   2.999   3.516   0.026
 6831SOL    HW122390   3.025   3.608   0.025
 6831SOL    HW222391   3.059   3.473  14.845
 6832SOL     OW22392  10.202   6.389   6.927
 6832SOL    HW122393  10.133   6.386   6.860
 6832SOL    HW222394  10.283   6.396   6.876
 6833SOL     OW22395   4.167  12.522   1.701
 6833SOL    HW122396   4.075  12.542   1.715
 6833SOL    HW222397   4.171  12.427   1.697
 6834SOL     OW22398  11.929  14.638   4.824
 6834SOL    HW122399  11.962  14.618   4.736
 6834SOL    HW222400  12.006  14.670   4.872
 6835SOL     OW22401   0.110  14.834   9.565
 6835SOL    HW122402   0.140  14.798   9.482
 6835SOL    HW222403   0.190  14.867   9.606
 6836SOL     OW22404   8.879   7.755   1.354
 6836SOL    HW122405   8.856   7.806   1.432
 6836SOL    HW222406   8.827   7.675   1.361
 6837SOL     OW22407   4.119   9.653   0.882
 6837SOL    HW122408   4.213   9.668   0.870
 6837SOL    HW222409   4.114   9.564   0.919
 6838SOL     OW22410   4.043  12.866   1.604
 6838SOL    HW122411   4.015  12.923   1.676
 6838SOL    HW222412   3.994  12.898   1.529
 6839SOL     OW22413   6.895   8.550   0.667
 6839SOL    HW122414   6.826   8.576   0.607
 6839SOL    HW222415   6.850   8.506   0.739
 6840SOL     OW22416   1.552   3.192   0.200
 6840SOL    HW122417   1.601   3.258   0.151
 6840SOL    HW222418   1.472   3.236   0.226
 6841SOL     OW22419  10.406   8.868   4.803
 6841SOL    HW122420  10.358   8.930   4.749
 6841SOL    HW222421  10.498   8.889   4.787
 6842SOL     OW22422   1.029   0.831   5.177
 6842SOL    HW122423   1.122   0.819   5.198
 6842SOL    HW222424   1.000   0.901   5.234
 6843SOL     OW22425   7.943   8.294   4.998
 6843SOL    HW122426   7.997   8.220   4.969
 6843SOL    HW222427   7.871   8.253   5.046
 6844SOL     OW22428   5.955   6.426  13.358
 6844SOL    HW122429   5.935   6.472  13.440
 6844SOL    HW222430   5.877   6.438  13.304
 6845SOL     OW22431   3.883  12.773   1.838
 6845SOL    HW122432   3.902  12.699   1.780
 6845SOL    HW222433   3.829  12.832   1.785
 6846SOL     OW22434   4.794   5.465  11.738
 6846SOL    HW122435   4.877   5.479  11.784
 6846SOL    HW222436   4.744   5.409  11.798
 6847SOL     OW22437   4.579   4.396   0.612
 6847SOL    HW122438   4.640   4.331   0.647
 6847SOL    HW222439   4.629   4.478   0.616
 6848SOL     OW22440   2.493  11.787   5.214
 6848SOL    HW122441   2.465  11.856   5.274
 6848SOL    HW222442   2.589  11.788   5.220
 6849SOL     OW22443   9.014   3.418   6.693
 6849SOL    HW122444   9.010   3.365   6.773
 6849SOL    HW222445   8.938   3.476   6.699
 6850SOL     OW22446  14.480   1.292  13.554
 6850SOL    HW122447  14.388   1.275  13.574
 6850SOL    HW222448  14.495   1.382  13.583
 6851SOL     OW22449   9.291  12.114   8.241
 6851SOL    HW122450   9.239  12.070   8.174
 6851SOL    HW222451   9.293  12.206   8.213
 6852SOL     OW22452   9.648   4.768   5.946
 6852SOL    HW122453   9.565   4.739   5.909
 6852SOL    HW222454   9.682   4.831   5.883
 6853SOL     OW22455   8.471   4.807  12.304
 6853SOL    HW122456   8.423   4.835  12.382
 6853SOL    HW222457   8.495   4.716  12.322
 6854SOL     OW22458   3.450   0.573   5.995
 6854SOL    HW122459   3.441   0.641   6.062
 6854SOL    HW222460   3.459   0.621   5.913
 6855SOL     OW22461   0.525   2.068   6.444
 6855SOL    HW122462   0.582   2.132   6.487
 6855SOL    HW222463   0.586   2.002   6.410
 6856SOL     OW22464   4.172   9.345  12.424
 6856SOL    HW122465   4.227   9.318  12.351
 6856SOL    HW222466   4.232   9.348  12.499
 6857SOL     OW22467   1.172   7.584   1.592
 6857SOL    HW122468   1.228   7.517   1.633
 6857SOL    HW222469   1.218   7.666   1.610
 6858SOL     OW22470   1.011  14.513   2.427
 6858SOL    HW122471   1.019  14.434   2.482
 6858SOL    HW222472   0.970  14.577   2.485
 6859SOL     OW22473  12.152   7.457   7.900
 6859SOL    HW122474  12.181   7.548   7.905
 6859SOL    HW222475  12.068   7.461   7.853
 6860SOL     OW22476   7.677  13.290   0.799
 6860SOL    HW122477   7.671  13.201   0.834
 6860SOL    HW222478   7.599  13.300   0.744
 6861SOL     OW22479  13.286   9.540   3.144
 6861SOL    HW122480  13.286   9.447   3.169
 6861SOL    HW222481  13.263   9.586   3.224
 6862SOL     OW22482  11.639   2.537  13.781
 6862SOL    HW122483  11.672   2.534  13.870
 6862SOL    HW222484  11.632   2.630  13.760
 6863SOL     OW22485   5.978   8.985   5.968
 6863SOL    HW122486   5.889   8.987   5.933
 6863SOL    HW222487   6.022   9.058   5.925
 6864SOL     OW22488   6.316  11.099   8.968
 6864SOL    HW122489   6.322  11.192   8.989
 6864SOL    HW222490   6.352  11.055   9.045
 6865SOL     OW22491   4.725   5.918   7.288
 6865SOL    HW122492   4.759   5.914   7.198
 6865SOL    HW222493   4.674   5.998   7.290
 6866SOL     OW22494  14.776  10.911   5.698
 6866SOL    HW122495  14.860  10.957   5.691
 6866SOL    HW222496  14.750  10.895   5.607
 6867SOL     OW22497   8.236  11.065  12.840
 6867SOL    HW122498   8.305  11.042  12.777
 6867SOL    HW222499   8.213  11.155  12.818
 6868SOL     OW22500  13.200  14.583   2.661
 6868SOL    HW122501  13.203  14.646   2.734
 6868SOL    HW222502  13.243  14.628   2.589
 6869SOL     OW22503  11.286   3.237   1.309
 6869SOL    HW122504  11.350   3.226   1.239
 6869SOL    HW222505  11.307   3.168   1.372
 6870SOL     OW22506  12.201   7.978  13.928
 6870SOL    HW122507  12.114   7.985  13.890
 6870SOL    HW222508  12.244   7.910  13.876
 6871SOL     OW22509   0.389   9.456   2.313
 6871SOL    HW122510   0.393   9.365   2.342
 6871SOL    HW222511   0.368   9.506   2.391
 6872SOL     OW22512   5.940   1.037   4.501
 6872SOL    HW122513   6.012   0.979   4.478
 6872SOL    HW222514   5.935   1.100   4.429
 6873SOL     OW22515   6.374  12.179   2.409
 6873SOL    HW122516   6.419  12.134   2.480
 6873SOL    HW222517   6.284  12.145   2.413
 6874SOL     OW22518   9.873  14.717   4.359
 6874SOL    HW122519   9.876  14.804   4.398
 6874SOL    HW222520   9.841  14.731   4.270
 6875SOL     OW22521  14.679   0.711   6.140
 6875SOL    HW122522  14.676   0.616   6.127
 6875SOL    HW222523  14.750   0.724   6.202
 6876SOL     OW22524   0.783   7.323  11.114
 6876SOL    HW122525   0.869   7.295  11.143
 6876SOL    HW222526   0.794   7.416  11.093
 6877SOL     OW22527   1.368  10.198   3.916
 6877SOL    HW122528   1.325  10.117   3.943
 6877SOL    HW222529   1.318  10.228   3.841
 6878SOL     OW22530   9.651   6.478   1.016
 6878SOL    HW122531   9.565   6.444   0.991
 6878SOL    HW222532   9.713   6.424   0.967
 6879SOL     OW22533   3.455   9.821  12.599
 6879SOL    HW122534   3.381   9.760  12.595
 6879SOL    HW222535   3.468   9.836  12.693
 6880SOL     OW22536   1.439  10.511   4.086
 6880SOL    HW122537   1.354  10.476   4.112
 6880SOL    HW222538   1.501  10.473   4.148
 6881SOL     OW22539   3.402   3.349   7.411
 6881SOL    HW122540   3.425   3.437   7.440
 6881SOL    HW222541   3.471   3.325   7.348
 6882SOL     OW22542   3.536   2.558   7.642
 6882SOL    HW122543   3.547   2.469   7.608
 6882SOL    HW222544   3.457   2.591   7.598
 6883SOL     OW22545  12.637   6.779   2.871
 6883SOL    HW122546  12.632   6.744   2.782
 6883SOL    HW222547  12.579   6.855   2.871
 6884SOL     OW22548   6.047   9.192   8.949
 6884SOL    HW122549   6.102   9.186   9.027
 6884SOL    HW222550   5.997   9.111   8.948
 6885SOL     OW22551   2.488   8.855   7.509
 6885SOL    HW122552   2.414   8.797   7.527
 6885SOL    HW222553   2.563   8.796   7.501
 6886SOL     OW22554   1.727   0.167   0.516
 6886SOL    HW122555   1.700   0.239   0.573
 6886SOL    HW222556   1.764   0.102   0.575
 6887SOL     OW22557   8.724   6.022   7.025
 6887SOL    HW122558   8.639   5.981   7.011
 6887SOL    HW222559   8.775   6.000   6.947
 6888SOL     OW22560   9.758   8.135   1.677
 6888SOL    HW122561   9.667   8.105   1.667
 6888SOL    HW222562   9.803   8.061   1.718
 6889SOL     OW22563  14.087   8.674   0.769
 6889SOL    HW122564  14.089   8.767   0.791
 6889SOL    HW222565  14.008   8.664   0.715
 6890SOL     OW22566  12.803   0.101  13.569
 6890SOL    HW122567  12.834   0.178  13.520
 6890SOL    HW222568  12.800   0.031  13.503
 6891SOL     OW22569   1.254   5.652  10.085
 6891SOL    HW122570   1.195   5.721  10.114
 6891SOL    HW222571   1.311   5.636  10.160
 6892SOL     OW22572   7.208   9.997  14.066
 6892SOL    HW122573   7.162  10.062  14.119
 6892SOL    HW222574   7.167  10.002  13.980
 6893SOL     OW22575   5.374  11.050   2.837
 6893SOL    HW122576   5.459  11.088   2.814
 6893SOL    HW222577   5.389  10.955   2.837
 6894SOL     OW22578  14.634   6.724   9.879
 6894SOL    HW122579  14.729   6.731   9.891
 6894SOL    HW222580  14.598   6.803   9.919
 6895SOL     OW22581   3.587   9.944  10.608
 6895SOL    HW122582   3.554   9.856  10.588
 6895SOL    HW222583   3.514  10.002  10.588
 6896SOL     OW22584   6.581   7.848   9.533
 6896SOL    HW122585   6.636   7.898   9.595
 6896SOL    HW222586   6.616   7.759   9.538
 6897SOL     OW22587   2.279   6.885   2.720
 6897SOL    HW122588   2.201   6.902   2.668
 6897SOL    HW222589   2.316   6.972   2.736
 6898SOL     OW22590  10.685   8.916   5.182
 6898SOL    HW122591  10.679   8.908   5.277
 6898SOL    HW222592  10.626   8.848   5.149
 6899SOL     OW22593   1.682  13.456   5.400
 6899SOL    HW122594   1.712  13.405   5.325
 6899SOL    HW222595   1.614  13.514   5.365
 6900SOL     OW22596  13.343   1.404   5.922
 6900SOL    HW122597  13.280   1.350   5.970
 6900SOL    HW222598  13.390   1.342   5.866
 6901SOL     OW22599  12.142  14.134   8.815
 6901SOL    HW122600  12.099  14.138   8.901
 6901SOL    HW222601  12.148  14.040   8.797
 6902SOL     OW22602   9.430  12.275   5.523
 6902SOL    HW122603   9.449  12.320   5.605
 6902SOL    HW222604   9.409  12.345   5.461
 6903SOL     OW22605  14.451  10.775   8.875
 6903SOL    HW122606  14.507  10.844   8.913
 6903SOL    HW222607  14.380  10.822   8.832
 6904SOL     OW22608   5.821  13.095   7.300
 6904SOL    HW122609   5.831  13.069   7.392
 6904SOL    HW222610   5.805  13.013   7.254
 6905SOL     OW22611   3.297   3.547   5.148
 6905SOL    HW122612   3.275   3.469   5.097
 6905SOL    HW222613   3.308   3.616   5.083
 6906SOL     OW22614  10.009   9.594   1.236
 6906SOL    HW122615   9.920   9.558   1.245
 6906SOL    HW222616  10.067   9.521   1.259
 6907SOL     OW22617  13.965   3.487   5.005
 6907SOL    HW122618  14.045   3.439   4.980
 6907SOL    HW222619  13.962   3.479   5.101
 6908SOL     OW22620  13.101  11.447   2.134
 6908SOL    HW122621  13.020  11.428   2.182
 6908SOL    HW222622  13.157  11.372   2.151
 6909SOL     OW22623   3.373  13.528  11.682
 6909SOL    HW122624   3.353  13.549  11.773
 6909SOL    HW222625   3.429  13.600  11.653
 6910SOL     OW22626   5.343   9.702   3.171
 6910SOL    HW122627   5.420   9.757   3.180
 6910SOL    HW222628   5.366   9.640   3.101
 6911SOL     OW22629   1.607   2.178   5.042
 6911SOL    HW122630   1.549   2.222   4.979
 6911SOL    HW222631   1.552   2.161   5.118
 6912SOL     OW22632   7.340  14.847   7.689
 6912SOL    HW122633   7.396   0.001   7.759
 6912SOL    HW222634   7.363  14.754   7.682
 6913SOL     OW22635   1.885   5.370   8.003
 6913SOL    HW122636   1.832   5.433   7.953
 6913SOL    HW222637   1.847   5.372   8.091
 6914SOL     OW22638   6.986   5.364  10.842
 6914SOL    HW122639   6.894   5.365  10.815
 6914SOL    HW222640   6.984   5.328  10.931
 6915SOL     OW22641   6.015   0.249   1.759
 6915SOL    HW122642   5.950   0.292   1.813
 6915SOL    HW222643   6.076   0.318   1.735
 6916SOL     OW22644  11.589   9.296  13.367
 6916SOL    HW122645  11.499   9.284  13.339
 6916SOL    HW222646  11.621   9.208  13.386
 6917SOL     OW22647   1.817  13.623   6.459
 6917SOL    HW122648   1.757  13.587   6.523
 6917SOL    HW222649   1.827  13.555   6.393
 6918SOL     OW22650   4.252   2.524  14.556
 6918SOL    HW122651   4.211   2.586  14.616
 6918SOL    HW222652   4.215   2.547  14.470
 6919SOL     OW22653   1.542   8.921   9.613
 6919SOL    HW122654   1.480   8.936   9.542
 6919SOL    HW222655   1.500   8.960   9.690
 6920SOL     OW22656   2.582  13.189  10.411
 6920SOL    HW122657   2.514  13.210  10.348
 6920SOL    HW222658   2.600  13.271  10.456
 6921SOL     OW22659  14.060  10.487  13.222
 6921SOL    HW122660  13.983  10.438  13.253
 6921SOL    HW222661  14.091  10.437  13.147
 6922SOL     OW22662  12.341   0.384   0.851
 6922SOL    HW122663  12.362   0.474   0.829
 6922SOL    HW222664  12.329   0.341   0.766
 6923SOL     OW22665   2.046   6.935   7.383
 6923SOL    HW122666   1.997   6.967   7.306
 6923SOL    HW222667   1.995   6.965   7.458
 6924SOL     OW22668   9.053   4.896   8.398
 6924SOL    HW122669   9.016   4.970   8.350
 6924SOL    HW222670   9.146   4.919   8.409
 6925SOL     OW22671  12.999  10.183   1.975
 6925SOL    HW122672  13.003  10.117   1.906
 6925SOL    HW222673  12.929  10.243   1.947
 6926SOL     OW22674   8.276  12.970   3.102
 6926SOL    HW122675   8.271  12.910   3.176
 6926SOL    HW222676   8.369  12.988   3.092
 6927SOL     OW22677   7.350  12.159   7.674
 6927SOL    HW122678   7.439  12.123   7.673
 6927SOL    HW222679   7.357  12.242   7.627
 6928SOL     OW22680   9.011   3.819   0.904
 6928SOL    HW122681   8.931   3.826   0.852
 6928SOL    HW222682   9.075   3.780   0.844
 6929SOL     OW22683  12.963  12.849   8.092
 6929SOL    HW122684  12.992  12.912   8.026
 6929SOL    HW222685  13.043  12.807   8.123
 6930SOL     OW22686   3.093   6.801  11.650
 6930SOL    HW122687   3.102   6.835  11.739
 6930SOL    HW222688   3.075   6.879  11.597
 6931SOL     OW22689   6.021  12.258   8.970
 6931SOL    HW122690   5.957  12.205   8.923
 6931SOL    HW222691   6.103  12.246   8.922
 6932SOL     OW22692   8.128   5.385   9.645
 6932SOL    HW122693   8.148   5.445   9.574
 6932SOL    HW222694   8.199   5.320   9.643
 6933SOL     OW22695   1.918   1.019   5.831
 6933SOL    HW122696   1.950   1.074   5.759
 6933SOL    HW222697   1.982   0.948   5.836
 6934SOL     OW22698   4.970   1.500   7.476
 6934SOL    HW122699   4.972   1.425   7.536
 6934SOL    HW222700   4.913   1.472   7.405
 6935SOL     OW22701  10.250  10.544  10.375
 6935SOL    HW122702  10.201  10.461  10.371
 6935SOL    HW222703  10.193  10.603  10.423
 6936SOL     OW22704   3.221   2.564  13.448
 6936SOL    HW122705   3.266   2.533  13.370
 6936SOL    HW222706   3.223   2.489  13.508
 6937SOL     OW22707  14.380   8.479   9.332
 6937SOL    HW122708  14.396   8.393   9.371
 6937SOL    HW222709  14.426   8.477   9.248
 6938SOL     OW22710   3.162  14.248  13.888
 6938SOL    HW122711   3.206  14.297  13.958
 6938SOL    HW222712   3.228  14.187  13.856
 6939SOL     OW22713   9.432   8.042   7.101
 6939SOL    HW122714   9.521   8.042   7.136
 6939SOL    HW222715   9.376   8.035   7.178
 6940SOL     OW22716   4.502   7.753   1.611
 6940SOL    HW122717   4.473   7.758   1.520
 6940SOL    HW222718   4.597   7.762   1.606
 6941SOL     OW22719  12.819   6.286   2.412
 6941SOL    HW122720  12.737   6.321   2.376
 6941SOL    HW222721  12.885   6.307   2.347
 6942SOL     OW22722   8.957   5.711  11.420
 6942SOL    HW122723   8.994   5.725  11.333
 6942SOL    HW222724   8.872   5.671  11.405
 6943SOL     OW22725   6.729   0.067  14.411
 6943SOL    HW122726   6.713   0.069  14.317
 6943SOL    HW222727   6.696   0.151  14.443
 6944SOL     OW22728  12.767   0.680   9.137
 6944SOL    HW122729  12.770   0.644   9.048
 6944SOL    HW222730  12.859   0.688   9.163
 6945SOL     OW22731  13.081   2.905   3.071
 6945SOL    HW122732  13.169   2.940   3.082
 6945SOL    HW222733  13.094   2.816   3.038
 6946SOL     OW22734  10.097   5.804  13.612
 6946SOL    HW122735  10.159   5.866  13.574
 6946SOL    HW222736  10.039   5.781  13.539
 6947SOL     OW22737  10.534   2.443   6.803
 6947SOL    HW122738  10.480   2.449   6.724
 6947SOL    HW222739  10.597   2.514   6.794
 6948SOL     OW22740   1.818   4.989   1.123
 6948SOL    HW122741   1.880   4.928   1.162
 6948SOL    HW222742   1.804   4.955   1.035
 6949SOL     OW22743  12.618   3.664   1.100
 6949SOL    HW122744  12.621   3.708   1.016
 6949SOL    HW222745  12.672   3.718   1.158
 6950SOL     OW22746   2.395   1.567   7.106
 6950SOL    HW122747   2.398   1.609   7.019
 6950SOL    HW222748   2.391   1.473   7.087
 6951SOL     OW22749  12.142   8.160  10.536
 6951SOL    HW122750  12.120   8.157  10.443
 6951SOL    HW222751  12.220   8.216  10.541
 6952SOL     OW22752   9.633  11.436  12.931
 6952SOL    HW122753   9.596  11.418  13.017
 6952SOL    HW222754   9.577  11.388  12.870
 6953SOL     OW22755  14.469  13.859   1.375
 6953SOL    HW122756  14.543  13.918   1.389
 6953SOL    HW222757  14.405  13.886   1.441
 6954SOL     OW22758  14.716   8.741   1.379
 6954SOL    HW122759  14.727   8.744   1.474
 6954SOL    HW222760  14.755   8.822   1.348
 6955SOL     OW22761  12.401  12.302   5.728
 6955SOL    HW122762  12.446  12.231   5.773
 6955SOL    HW222763  12.465  12.334   5.665
 6956SOL     OW22764   7.706   9.149   7.890
 6956SOL    HW122765   7.759   9.086   7.939
 6956SOL    HW222766   7.768   9.218   7.866
 6957SOL     OW22767  11.200   9.711   0.991
 6957SOL    HW122768  11.161   9.761   0.919
 6957SOL    HW222769  11.126   9.677   1.040
 6958SOL     OW22770   4.871  11.163   5.669
 6958SOL    HW122771   4.950  11.121   5.635
 6958SOL    HW222772   4.872  11.144   5.763
 6959SOL     OW22773   6.439   1.778   9.862
 6959SOL    HW122774   6.368   1.817   9.914
 6959SOL    HW222775   6.432   1.684   9.880
 6960SOL     OW22776   6.846   6.188  13.112
 6960SOL    HW122777   6.917   6.213  13.054
 6960SOL    HW222778   6.885   6.188  13.199
 6961SOL     OW22779   6.967   5.256  13.359
 6961SOL    HW122780   7.032   5.186  13.355
 6961SOL    HW222781   7.016   5.333  13.387
 6962SOL     OW22782  10.608   8.033  12.002
 6962SOL    HW122783  10.681   7.971  12.009
 6962SOL    HW222784  10.542   7.985  11.952
 6963SOL     OW22785  12.847  10.073  13.593
 6963SOL    HW122786  12.942  10.085  13.597
 6963SOL    HW222787  12.835   9.989  13.550
 6964SOL     OW22788   5.437   8.622  11.542
 6964SOL    HW122789   5.478   8.634  11.456
 6964SOL    HW222790   5.488   8.552  11.583
 6965SOL     OW22791   8.773   5.624   4.274
 6965SOL    HW122792   8.858   5.593   4.305
 6965SOL    HW222793   8.754   5.701   4.328
 6966SOL     OW22794  11.734   4.162   8.263
 6966SOL    HW122795  11.779   4.145   8.346
 6966SOL    HW222796  11.788   4.120   8.197
 6967SOL     OW22797   8.366   7.544   8.160
 6967SOL    HW122798   8.273   7.546   8.136
 6967SOL    HW222799   8.409   7.505   8.084
 6968SOL     OW22800   8.482  11.888   4.992
 6968SOL    HW122801   8.403  11.910   5.040
 6968SOL    HW222802   8.524  11.973   4.976
 6969SOL     OW22803   8.800   9.171  10.705
 6969SOL    HW122804   8.878   9.217  10.675
 6969SOL    HW222805   8.764   9.129  10.627
 6970SOL     OW22806  14.438   9.591  10.942
 6970SOL    HW122807  14.449   9.672  10.992
 6970SOL    HW222808  14.492   9.527  10.988
 6971SOL     OW22809  13.908  13.938   2.694
 6971SOL    HW122810  13.982  13.935   2.634
 6971SOL    HW222811  13.941  13.983   2.771
 6972SOL     OW22812   6.857  13.268   7.839
 6972SOL    HW122813   6.803  13.312   7.904
 6972SOL    HW222814   6.901  13.198   7.888
 6973SOL     OW22815  10.324  13.315   7.499
 6973SOL    HW122816  10.272  13.395   7.491
 6973SOL    HW222817  10.283  13.266   7.570
 6974SOL     OW22818  12.076   4.500   4.683
 6974SOL    HW122819  12.155   4.475   4.731
 6974SOL    HW222820  12.079   4.448   4.603
 6975SOL     OW22821  12.664   8.148   7.144
 6975SOL    HW122822  12.618   8.197   7.076
 6975SOL    HW222823  12.692   8.215   7.207
 6976SOL     OW22824   0.370   5.887   1.094
 6976SOL    HW122825   0.410   5.832   1.027
 6976SOL    HW222826   0.441   5.941   1.127
 6977SOL     OW22827   0.223  13.689  14.568
 6977SOL    HW122828   0.246  13.650  14.484
 6977SOL    HW222829   0.183  13.774  14.545
 6978SOL     OW22830   6.886   7.533   1.341
 6978SOL    HW122831   6.900   7.504   1.432
 6978SOL    HW222832   6.945   7.608   1.331
 6979SOL     OW22833   2.354  13.931  10.650
 6979SOL    HW122834   2.385  13.843  10.626
 6979SOL    HW222835   2.290  13.953  10.583
 6980SOL     OW22836   3.399   3.602  12.094
 6980SOL    HW122837   3.486   3.572  12.121
 6980SOL    HW222838   3.413   3.634  12.004
 6981SOL     OW22839   0.909  10.437   6.677
 6981SOL    HW122840   0.954  10.461   6.758
 6981SOL    HW222841   0.956  10.485   6.609
 6982SOL     OW22842  12.007  13.325   3.928
 6982SOL    HW122843  11.927  13.341   3.877
 6982SOL    HW222844  12.047  13.248   3.887
 6983SOL     OW22845  13.101  14.620   5.470
 6983SOL    HW122846  13.195  14.635   5.478
 6983SOL    HW222847  13.079  14.564   5.545
 6984SOL     OW22848   9.438   0.061  12.045
 6984SOL    HW122849   9.415  14.875  11.979
 6984SOL    HW222850   9.530   0.082  12.027
 6985SOL     OW22851   3.675   6.927   7.439
 6985SOL    HW122852   3.644   6.998   7.496
 6985SOL    HW222853   3.626   6.850   7.469
 6986SOL     OW22854  10.589   8.889   4.158
 6986SOL    HW122855  10.526   8.854   4.222
 6986SOL    HW222856  10.546   8.878   4.073
 6987SOL     OW22857  11.389   1.512   6.328
 6987SOL    HW122858  11.364   1.440   6.270
 6987SOL    HW222859  11.419   1.581   6.269
 6988SOL     OW22860   8.466   0.025   2.151
 6988SOL    HW122861   8.466   0.110   2.195
 6988SOL    HW222862   8.517  14.848   2.207
 6989SOL     OW22863   0.272   4.246  11.969
 6989SOL    HW122864   0.289   4.221  11.879
 6989SOL    HW222865   0.246   4.338  11.964
 6990SOL     OW22866   4.689   1.903  14.871
 6990SOL    HW122867   4.636   1.855   0.055
 6990SOL    HW222868   4.637   1.980  14.850
 6991SOL     OW22869   4.391   0.523   7.266
 6991SOL    HW122870   4.338   0.553   7.193
 6991SOL    HW222871   4.338   0.457   7.310
 6992SOL     OW22872  10.569   5.452   9.072
 6992SOL    HW122873  10.625   5.459   9.150
 6992SOL    HW222874  10.586   5.533   9.023
 6993SOL     OW22875   1.615  12.471   7.623
 6993SOL    HW122876   1.638  12.481   7.530
 6993SOL    HW222877   1.692  12.503   7.670
 6994SOL     OW22878  11.983   6.470   2.349
 6994SOL    HW122879  12.028   6.408   2.292
 6994SOL    HW222880  12.052   6.506   2.405
 6995SOL     OW22881   0.329   9.207   7.392
 6995SOL    HW122882   0.347   9.153   7.315
 6995SOL    HW222883   0.234   9.205   7.401
 6996SOL     OW22884   0.122  10.290   2.327
 6996SOL    HW122885   0.036  10.263   2.359
 6996SOL    HW222886   0.153  10.214   2.277
 6997SOL     OW22887   1.901   9.479  11.386
 6997SOL    HW122888   1.913   9.408  11.449
 6997SOL    HW222889   1.975   9.537  11.401
 6998SOL     OW22890   3.843  12.055   1.051
 6998SOL    HW122891   3.749  12.067   1.062
 6998SOL    HW222892   3.876  12.141   1.024
 6999SOL     OW22893  12.475   7.387  11.052
 6999SOL    HW122894  12.429   7.350  11.127
 6999SOL    HW222895  12.407   7.436  11.005
 7000SOL     OW22896   5.785  11.494   6.676
 7000SOL    HW122897   5.749  11.458   6.595
 7000SOL    HW222898   5.851  11.557   6.648
 7001SOL     OW22899   0.739   5.128  14.145
 7001SOL    HW122900   0.689   5.063  14.194
 7001SOL    HW222901   0.828   5.120  14.179
 7002SOL     OW22902   5.866  11.510   5.213
 7002SOL    HW122903   5.895  11.538   5.300
 7002SOL    HW222904   5.944  11.471   5.173
 7003SOL     OW22905  14.770  10.698  10.453
 7003SOL    HW122906  14.767  10.627  10.518
 7003SOL    HW222907  14.793  10.776  10.504
 7004SOL     OW22908   8.996   3.403   3.039
 7004SOL    HW122909   8.926   3.464   3.015
 7004SOL    HW222910   8.968   3.369   3.124
 7005SOL     OW22911   5.016   9.719  11.195
 7005SOL    HW122912   5.042   9.756  11.111
 7005SOL    HW222913   5.009   9.625  11.179
 7006SOL     OW22914   7.961   6.324   5.226
 7006SOL    HW122915   7.926   6.397   5.276
 7006SOL    HW222916   7.923   6.335   5.139
 7007SOL     OW22917  13.927   2.990   5.625
 7007SOL    HW122918  13.858   2.968   5.563
 7007SOL    HW222919  13.909   3.080   5.651
 7008SOL     OW22920   0.992   5.469  12.096
 7008SOL    HW122921   0.923   5.531  12.074
 7008SOL    HW222922   1.061   5.486  12.032
 7009SOL     OW22923   7.595  11.363   9.010
 7009SOL    HW122924   7.546  11.444   8.995
 7009SOL    HW222925   7.629  11.340   8.923
 7010SOL     OW22926   7.563   6.617   4.585
 7010SOL    HW122927   7.563   6.612   4.489
 7010SOL    HW222928   7.618   6.693   4.605
 7011SOL     OW22929   3.816   2.410   5.425
 7011SOL    HW122930   3.833   2.316   5.421
 7011SOL    HW222931   3.853   2.445   5.344
 7012SOL     OW22932   9.709  14.484   9.822
 7012SOL    HW122933   9.732  14.396   9.792
 7012SOL    HW222934   9.792  14.532   9.824
 7013SOL     OW22935  13.141  10.075  12.749
 7013SOL    HW122936  13.189   9.998  12.780
 7013SOL    HW222937  13.077  10.093  12.817
 7014SOL     OW22938   5.254   4.223   6.924
 7014SOL    HW122939   5.245   4.318   6.929
 7014SOL    HW222940   5.321   4.201   6.989
 7015SOL     OW22941   8.796  14.470   4.432
 7015SOL    HW122942   8.795  14.518   4.349
 7015SOL    HW222943   8.874  14.414   4.427
 7016SOL     OW22944  11.858   5.384  10.721
 7016SOL    HW122945  11.803   5.349  10.651
 7016SOL    HW222946  11.944   5.344  10.707
 7017SOL     OW22947   4.605  10.827   9.298
 7017SOL    HW122948   4.552  10.865   9.368
 7017SOL    HW222949   4.611  10.734   9.321
 7018SOL     OW22950  11.764   8.968   3.446
 7018SOL    HW122951  11.736   8.960   3.355
 7018SOL    HW222952  11.763   8.878   3.479
 7019SOL     OW22953   3.823  14.763  14.433
 7019SOL    HW122954   3.902  14.778  14.383
 7019SOL    HW222955   3.831  14.673  14.464
 7020SOL     OW22956   8.839   1.745   5.379
 7020SOL    HW122957   8.831   1.759   5.473
 7020SOL    HW222958   8.923   1.702   5.368
 7021SOL     OW22959   8.502  13.691   2.741
 7021SOL    HW122960   8.467  13.681   2.652
 7021SOL    HW222961   8.434  13.655   2.798
 7022SOL     OW22962   4.268  14.621   3.183
 7022SOL    HW122963   4.274  14.642   3.276
 7022SOL    HW222964   4.182  14.652   3.156
 7023SOL     OW22965   0.782  11.183  10.322
 7023SOL    HW122966   0.779  11.219  10.233
 7023SOL    HW222967   0.692  11.191  10.353
 7024SOL     OW22968   2.018  12.130  13.469
 7024SOL    HW122969   2.100  12.166  13.436
 7024SOL    HW222970   2.039  12.040  13.493
 7025SOL     OW22971  14.521   0.674   9.348
 7025SOL    HW122972  14.446   0.718   9.309
 7025SOL    HW222973  14.503   0.674   9.442
 7026SOL     OW22974   7.143  10.355  12.635
 7026SOL    HW122975   7.079  10.316  12.575
 7026SOL    HW222976   7.167  10.282  12.693
 7027SOL     OW22977  13.802  10.399   0.710
 7027SOL    HW122978  13.857  10.320   0.710
 7027SOL    HW222979  13.859  10.468   0.676
 7028SOL     OW22980  11.816  13.417  11.451
 7028SOL    HW122981  11.748  13.453  11.395
 7028SOL    HW222982  11.893  13.411  11.394
 7029SOL     OW22983   3.592   0.068   0.895
 7029SOL    HW122984   3.634   0.006   0.835
 7029SOL    HW222985   3.572   0.016   0.973
 7030SOL     OW22986  14.425  12.310  14.877
 7030SOL    HW122987  14.488  12.239   0.002
 7030SOL    HW222988  14.386  12.313   0.085
 7031SOL     OW22989   7.648   8.598   1.857
 7031SOL    HW122990   7.740   8.608   1.831
 7031SOL    HW222991   7.623   8.512   1.824
 7032SOL     OW22992   8.993   5.419   8.773
 7032SOL    HW122993   8.938   5.341   8.780
 7032SOL    HW222994   8.956   5.467   8.699
 7033SOL     OW22995   6.805   7.808   2.746
 7033SOL    HW122996   6.854   7.887   2.726
 7033SOL    HW222997   6.831   7.785   2.836
 7034SOL     OW22998   8.266   8.230  13.488
 7034SOL    HW122999   8.203   8.221  13.559
 7034SOL    HW223000   8.266   8.323  13.467
 7035SOL     OW23001   0.553   2.774   4.049
 7035SOL    HW123002   0.620   2.813   4.105
 7035SOL    HW223003   0.471   2.796   4.091
 7036SOL     OW23004   7.607  10.874  11.272
 7036SOL    HW123005   7.565  10.922  11.200
 7036SOL    HW223006   7.616  10.938  11.342
 7037SOL     OW23007   0.582  13.247   2.346
 7037SOL    HW123008   0.603  13.156   2.328
 7037SOL    HW223009   0.486  13.250   2.350
 7038SOL     OW23010   2.414  10.008   1.897
 7038SOL    HW123011   2.465   9.998   1.978
 7038SOL    HW223012   2.324  10.022   1.927
 7039SOL     OW23013   6.577   8.453  14.795
 7039SOL    HW123014   6.635   8.377  14.789
 7039SOL    HW223015   6.624   8.514  14.852
 7040SOL     OW23016  14.512   1.972   2.959
 7040SOL    HW123017  14.483   1.953   2.870
 7040SOL    HW223018  14.549   1.890   2.990
 7041SOL     OW23019   2.573  13.309   4.426
 7041SOL    HW123020   2.627  13.284   4.351
 7041SOL    HW223021   2.636  13.333   4.494
 7042SOL     OW23022   1.758  11.420   9.344
 7042SOL    HW123023   1.837  11.454   9.384
 7042SOL    HW223024   1.692  11.487   9.360
 7043SOL     OW23025   4.954   5.472   0.265
 7043SOL    HW123026   4.972   5.379   0.279
 7043SOL    HW223027   4.989   5.491   0.178
 7044SOL     OW23028   0.385   3.625   2.105
 7044SOL    HW123029   0.353   3.671   2.028
 7044SOL    HW223030   0.413   3.694   2.165
 7045SOL     OW23031  10.276  14.157   7.702
 7045SOL    HW123032  10.194  14.166   7.652
 7045SOL    HW223033  10.247  14.140   7.792
 7046SOL     OW23034  13.942   8.018   6.330
 7046SOL    HW123035  13.935   8.107   6.294
 7046SOL    HW223036  13.902   7.963   6.263
 7047SOL     OW23037   9.860  10.738   6.884
 7047SOL    HW123038   9.886  10.815   6.834
 7047SOL    HW223039   9.942  10.696   6.910
 7048SOL     OW23040  14.635   9.514   0.738
 7048SOL    HW123041  14.641   9.528   0.644
 7048SOL    HW223042  14.677   9.430   0.753
 7049SOL     OW23043   4.513   5.267  12.539
 7049SOL    HW123044   4.452   5.220  12.483
 7049SOL    HW223045   4.479   5.357  12.541
 7050SOL     OW23046   8.203  14.493   0.168
 7050SOL    HW123047   8.177  14.560   0.104
 7050SOL    HW223048   8.186  14.533   0.253
 7051SOL     OW23049   0.823   9.172   3.318
 7051SOL    HW123050   0.786   9.258   3.338
 7051SOL    HW223051   0.916   9.180   3.336
 7052SOL     OW23052   8.573   5.604  14.398
 7052SOL    HW123053   8.538   5.673  14.455
 7052SOL    HW223054   8.639   5.560  14.450
 7053SOL     OW23055  12.155   5.867   7.222
 7053SOL    HW123056  12.183   5.895   7.134
 7053SOL    HW223057  12.145   5.772   7.215
 7054SOL     OW23058   7.371  13.384   3.047
 7054SOL    HW123059   7.308  13.381   3.118
 7054SOL    HW223060   7.366  13.474   3.014
 7055SOL     OW23061   7.196   1.036  12.257
 7055SOL    HW123062   7.116   1.019  12.208
 7055SOL    HW223063   7.257   1.072  12.192
 7056SOL     OW23064  12.294   2.833   6.053
 7056SOL    HW123065  12.337   2.788   6.125
 7056SOL    HW223066  12.353   2.905   6.031
 7057SOL     OW23067   9.631  12.717   2.254
 7057SOL    HW123068   9.625  12.631   2.295
 7057SOL    HW223069   9.540  12.745   2.244
 7058SOL     OW23070   7.983   1.541   4.722
 7058SOL    HW123071   7.955   1.499   4.641
 7058SOL    HW223072   8.079   1.537   4.719
 7059SOL     OW23073  10.480   9.102  13.740
 7059SOL    HW123074  10.520   9.048  13.808
 7059SOL    HW223075  10.458   9.040  13.670
 7060SOL     OW23076   4.339  14.488  11.019
 7060SOL    HW123077   4.424  14.462  11.055
 7060SOL    HW223078   4.355  14.571  10.975
 7061SOL     OW23079   0.337   5.932  11.247
 7061SOL    HW123080   0.387   5.903  11.324
 7061SOL    HW223081   0.400   5.984  11.197
 7062SOL     OW23082   6.793   9.822   6.969
 7062SOL    HW123083   6.710   9.805   6.924
 7062SOL    HW223084   6.790   9.915   6.991
 7063SOL     OW23085   1.378  12.115   4.776
 7063SOL    HW123086   1.382  12.171   4.854
 7063SOL    HW223087   1.412  12.170   4.705
 7064SOL     OW23088   6.749   2.575  14.745
 7064SOL    HW123089   6.767   2.566  14.651
 7064SOL    HW223090   6.826   2.618  14.781
 7065SOL     OW23091  13.529  11.592  13.263
 7065SOL    HW123092  13.502  11.551  13.345
 7065SOL    HW223093  13.621  11.614  13.276
 7066SOL     OW23094   4.629  13.052   3.992
 7066SOL    HW123095   4.609  13.022   3.903
 7066SOL    HW223096   4.551  13.100   4.019
 7067SOL     OW23097   4.184   5.040   6.102
 7067SOL    HW123098   4.227   4.965   6.061
 7067SOL    HW223099   4.095   5.038   6.066
 7068SOL     OW23100   9.217   3.230   3.222
 7068SOL    HW123101   9.129   3.196   3.210
 7068SOL    HW223102   9.206   3.325   3.229
 7069SOL     OW23103   6.695   1.441   4.540
 7069SOL    HW123104   6.694   1.507   4.471
 7069SOL    HW223105   6.733   1.364   4.498
 7070SOL     OW23106  12.877   9.064   4.803
 7070SOL    HW123107  12.884   8.999   4.733
 7070SOL    HW223108  12.888   9.014   4.883
 7071SOL     OW23109  14.441  14.468   2.266
 7071SOL    HW123110  14.397  14.397   2.314
 7071SOL    HW223111  14.375  14.537   2.262
 7072SOL     OW23112   4.300  10.151   0.970
 7072SOL    HW123113   4.349  10.227   0.936
 7072SOL    HW223114   4.235  10.189   1.029
 7073SOL     OW23115   4.350   0.256   3.144
 7073SOL    HW123116   4.349   0.270   3.049
 7073SOL    HW223117   4.266   0.215   3.163
 7074SOL     OW23118   3.711   4.944   6.108
 7074SOL    HW123119   3.664   4.943   6.191
 7074SOL    HW223120   3.666   4.879   6.054
 7075SOL     OW23121  13.527  13.556  10.887
 7075SOL    HW123122  13.453  13.616  10.892
 7075SOL    HW223123  13.554  13.558  10.795
 7076SOL     OW23124   4.576   7.510  14.171
 7076SOL    HW123125   4.558   7.604  14.166
 7076SOL    HW223126   4.669   7.503  14.152
 7077SOL     OW23127  12.412   4.527   9.430
 7077SOL    HW123128  12.350   4.600   9.433
 7077SOL    HW223129  12.451   4.525   9.517
 7078SOL     OW23130   0.498   1.063   1.984
 7078SOL    HW123131   0.413   1.106   1.977
 7078SOL    HW223132   0.482   0.985   2.037
 7079SOL     OW23133   0.855   6.064   1.473
 7079SOL    HW123134   0.768   6.083   1.508
 7079SOL    HW223135   0.911   6.060   1.550
 7080SOL     OW23136   8.511  13.548   3.795
 7080SOL    HW123137   8.561  13.512   3.869
 7080SOL    HW223138   8.433  13.586   3.836
 7081SOL     OW23139  12.563  11.817   0.439
 7081SOL    HW123140  12.594  11.887   0.381
 7081SOL    HW223141  12.628  11.815   0.510
 7082SOL     OW23142   0.354   7.636   0.544
 7082SOL    HW123143   0.444   7.605   0.544
 7082SOL    HW223144   0.302   7.558   0.564
 7083SOL     OW23145   4.310  10.656   9.679
 7083SOL    HW123146   4.317  10.661   9.584
 7083SOL    HW223147   4.280  10.567   9.697
 7084SOL     OW23148  13.326   0.511   3.581
 7084SOL    HW123149  13.406   0.500   3.632
 7084SOL    HW223150  13.256   0.519   3.646
 7085SOL     OW23151  11.214   8.001  13.824
 7085SOL    HW123152  11.214   7.912  13.859
 7085SOL    HW223153  11.299   8.011  13.782
 7086SOL     OW23154  12.189  11.913  10.889
 7086SOL    HW123155  12.228  11.980  10.944
 7086SOL    HW223156  12.263  11.861  10.857
 7087SOL     OW23157   1.849  11.947   8.657
 7087SOL    HW123158   1.837  11.955   8.563
 7087SOL    HW223159   1.814  12.029   8.693
 7088SOL     OW23160   5.794  12.888  13.766
 7088SOL    HW123161   5.861  12.940  13.722
 7088SOL    HW223162   5.771  12.939  13.843
 7089SOL     OW23163   6.031   1.978  11.668
 7089SOL    HW123164   6.118   2.015  11.652
 7089SOL    HW223165   6.042   1.884  11.655
 7090SOL     OW23166  12.108   8.952   9.718
 7090SOL    HW123167  12.043   8.912   9.659
 7090SOL    HW223168  12.079   9.044   9.725
 7091SOL     OW23169  12.055   6.426   9.408
 7091SOL    HW123170  12.012   6.445   9.491
 7091SOL    HW223171  12.146   6.452   9.421
 7092SOL     OW23172   2.387  14.032   7.160
 7092SOL    HW123173   2.304  13.984   7.161
 7092SOL    HW223174   2.373  14.104   7.222
 7093SOL     OW23175   1.682   1.306   2.097
 7093SOL    HW123176   1.668   1.373   2.029
 7093SOL    HW223177   1.770   1.324   2.130
 7094SOL     OW23178  10.592   9.404   8.102
 7094SOL    HW123179  10.576   9.380   8.011
 7094SOL    HW223180  10.530   9.474   8.120
 7095SOL     OW23181  11.686   8.441   6.533
 7095SOL    HW123182  11.623   8.370   6.518
 7095SOL    HW223183  11.762   8.416   6.481
 7096SOL     OW23184   3.884  12.513   7.425
 7096SOL    HW123185   3.955  12.503   7.488
 7096SOL    HW223186   3.924  12.492   7.340
 7097SOL     OW23187   9.386   0.044   9.800
 7097SOL    HW123188   9.397   0.110   9.732
 7097SOL    HW223189   9.472   0.006   9.812
 7098SOL     OW23190   5.287  14.791   4.794
 7098SOL    HW123191   5.232  14.724   4.833
 7098SOL    HW223192   5.314  14.754   4.710
 7099SOL     OW23193   8.836  13.238   2.960
 7099SOL    HW123194   8.822  13.192   2.877
 7099SOL    HW223195   8.931  13.232   2.973
 7100SOL     OW23196  11.868  14.471   0.018
 7100SOL    HW123197  11.826  14.541   0.068
 7100SOL    HW223198  11.892  14.405   0.083
 7101SOL     OW23199   9.650   7.990   3.651
 7101SOL    HW123200   9.705   7.986   3.572
 7101SOL    HW223201   9.672   8.074   3.691
 7102SOL     OW23202  14.367  10.220   9.244
 7102SOL    HW123203  14.330  10.303   9.214
 7102SOL    HW223204  14.318  10.153   9.198
 7103SOL     OW23205  14.632   9.034   6.159
 7103SOL    HW123206  14.633   9.129   6.172
 7103SOL    HW223207  14.724   9.008   6.161
 7104SOL     OW23208  12.425   9.636   0.380
 7104SOL    HW123209  12.461   9.639   0.469
 7104SOL    HW223210  12.351   9.576   0.387
 7105SOL     OW23211  10.219   6.357   2.131
 7105SOL    HW123212  10.303   6.402   2.132
 7105SOL    HW223213  10.222   6.301   2.054
 7106SOL     OW23214   2.434  11.752   0.183
 7106SOL    HW123215   2.416  11.784   0.271
 7106SOL    HW223216   2.487  11.820   0.143
 7107SOL     OW23217   3.506   7.718  12.391
 7107SOL    HW123218   3.439   7.699  12.325
 7107SOL    HW223219   3.462   7.772  12.456
 7108SOL     OW23220   1.917   6.834   9.391
 7108SOL    HW123221   1.883   6.867   9.309
 7108SOL    HW223222   1.848   6.853   9.455
 7109SOL     OW23223   8.120   7.270   9.706
 7109SOL    HW123224   8.028   7.296   9.695
 7109SOL    HW223225   8.170   7.350   9.693
 7110SOL     OW23226  13.746   0.299  14.254
 7110SOL    HW123227  13.738   0.211  14.290
 7110SOL    HW223228  13.777   0.352  14.328
 7111SOL     OW23229  12.358   9.236   4.967
 7111SOL    HW123230  12.325   9.317   5.006
 7111SOL    HW223231  12.285   9.203   4.915
 7112SOL     OW23232   1.353  12.421   0.050
 7112SOL    HW123233   1.283  12.364   0.019
 7112SOL    HW223234   1.421  12.413  14.862
 7113SOL     OW23235  13.607   7.839   5.814
 7113SOL    HW123236  13.566   7.753   5.821
 7113SOL    HW223237  13.577   7.887   5.892
 7114SOL     OW23238  11.421  12.022   6.038
 7114SOL    HW123239  11.431  12.085   6.109
 7114SOL    HW223240  11.415  11.937   6.081
 7115SOL     OW23241  12.176  11.320   6.821
 7115SOL    HW123242  12.162  11.324   6.726
 7115SOL    HW223243  12.204  11.409   6.845
 7116SOL     OW23244  13.482   4.870   4.177
 7116SOL    HW123245  13.482   4.776   4.196
 7116SOL    HW223246  13.408   4.882   4.118
 7117SOL     OW23247   5.055  10.668   2.805
 7117SOL    HW123248   5.111  10.651   2.881
 7117SOL    HW223249   4.984  10.604   2.812
 7118SOL     OW23250  10.730  11.422   2.193
 7118SOL    HW123251  10.816  11.458   2.174
 7118SOL    HW223252  10.677  11.498   2.219
 7119SOL     OW23253   0.225   2.976   6.987
 7119SOL    HW123254   0.293   2.968   7.054
 7119SOL    HW223255   0.252   3.050   6.933
 7120SOL     OW23256   9.032   1.220   6.297
 7120SOL    HW123257   9.042   1.213   6.392
 7120SOL    HW223258   8.937   1.220   6.283
 7121SOL     OW23259   0.416  14.498   4.090
 7121SOL    HW123260   0.414  14.546   4.173
 7121SOL    HW223261   0.457  14.414   4.111
 7122SOL     OW23262   1.749  14.186  14.715
 7122SOL    HW123263   1.669  14.188  14.663
 7122SOL    HW223264   1.795  14.267  14.691
 7123SOL     OW23265  14.047   7.803  14.487
 7123SOL    HW123266  14.142   7.809  14.485
 7123SOL    HW223267  14.028   7.710  14.472
 7124SOL     OW23268  14.815  13.915   1.033
 7124SOL    HW123269  14.748  13.979   1.057
 7124SOL    HW223270  14.812  13.850   1.103
 7125SOL     OW23271   2.799   5.230   2.366
 7125SOL    HW123272   2.712   5.265   2.348
 7125SOL    HW223273   2.810   5.160   2.302
 7126SOL     OW23274   7.350  14.334   1.527
 7126SOL    HW123275   7.311  14.341   1.614
 7126SOL    HW223276   7.317  14.411   1.480
 7127SOL     OW23277   6.609   0.016  11.665
 7127SOL    HW123278   6.667   0.048  11.733
 7127SOL    HW223279   6.528   0.067  11.677
 7128SOL     OW23280  12.680  12.492  10.281
 7128SOL    HW123281  12.599  12.493  10.230
 7128SOL    HW223282  12.650  12.493  10.372
 7129SOL     OW23283   0.582   3.351   8.335
 7129SOL    HW123284   0.527   3.425   8.360
 7129SOL    HW223285   0.657   3.391   8.291
 7130SOL     OW23286   4.388   7.554   4.278
 7130SOL    HW123287   4.294   7.536   4.279
 7130SOL    HW223288   4.428   7.469   4.259
 7131SOL     OW23289   6.526  11.455   1.161
 7131SOL    HW123290   6.453  11.495   1.112
 7131SOL    HW223291   6.505  11.473   1.252
 7132SOL     OW23292  14.569   0.588  10.418
 7132SOL    HW123293  14.501   0.637  10.464
 7132SOL    HW223294  14.596   0.521  10.481
 7133SOL     OW23295   5.790   9.121  14.011
 7133SOL    HW123296   5.825   9.050  13.957
 7133SOL    HW223297   5.824   9.104  14.098
 7134SOL     OW23298  12.223   6.024   2.052
 7134SOL    HW123299  12.203   6.085   1.980
 7134SOL    HW223300  12.288   6.071   2.104
 7135SOL     OW23301  14.779  14.093   8.797
 7135SOL    HW123302  14.739  14.106   8.711
 7135SOL    HW223303  14.708  14.058   8.851
 7136SOL     OW23304   7.595   3.568   2.121
 7136SOL    HW123305   7.642   3.649   2.139
 7136SOL    HW223306   7.630   3.538   2.038
 7137SOL     OW23307  13.777   3.217  14.463
 7137SOL    HW123308  13.850   3.186  14.411
 7137SOL    HW223309  13.758   3.304  14.428
 7138SOL     OW23310  14.205  13.408   8.756
 7138SOL    HW123311  14.120  13.364   8.755
 7138SOL    HW223312  14.236  13.401   8.666
 7139SOL     OW23313   1.790   7.413  11.316
 7139SOL    HW123314   1.775   7.325  11.348
 7139SOL    HW223315   1.815   7.402  11.224
 7140SOL     OW23316  12.283   5.422  14.540
 7140SOL    HW123317  12.332   5.384  14.467
 7140SOL    HW223318  12.245   5.503  14.505
 7141SOL     OW23319   9.859  11.835   6.456
 7141SOL    HW123320   9.871  11.740   6.450
 7141SOL    HW223321   9.898  11.859   6.540
 7142SOL     OW23322  13.204  10.169   9.662
 7142SOL    HW123323  13.168  10.110   9.596
 7142SOL    HW223324  13.192  10.256   9.625
 7143SOL     OW23325  11.735   5.617   8.865
 7143SOL    HW123326  11.767   5.686   8.924
 7143SOL    HW223327  11.732   5.659   8.779
 7144SOL     OW23328  10.573   5.716   3.458
 7144SOL    HW123329  10.608   5.630   3.437
 7144SOL    HW223330  10.492   5.722   3.407
 7145SOL     OW23331   8.517   9.568  11.240
 7145SOL    HW123332   8.593   9.622  11.219
 7145SOL    HW223333   8.542   9.479  11.217
 7146SOL     OW23334   3.675  14.382  10.092
 7146SOL    HW123335   3.647  14.359  10.181
 7146SOL    HW223336   3.756  14.333  10.080
 7147SOL     OW23337  12.067   5.941  11.075
 7147SOL    HW123338  12.039   5.855  11.044
 7147SOL    HW223339  11.998   6.001  11.047
 7148SOL     OW23340   2.064  11.213  10.264
 7148SOL    HW123341   2.050  11.256  10.180
 7148SOL    HW223342   2.133  11.263  10.306
 7149SOL     OW23343   1.003  12.096   1.341
 7149SOL    HW123344   0.927  12.049   1.306
 7149SOL    HW223345   1.034  12.041   1.413
 7150SOL     OW23346  11.919   3.039   7.519
 7150SOL    HW123347  11.864   3.093   7.576
 7150SOL    HW223348  11.954   2.971   7.577
 7151SOL     OW23349   7.945   4.101   5.639
 7151SOL    HW123350   7.856   4.097   5.674
 7151SOL    HW223351   7.964   4.194   5.631
 7152SOL     OW23352   6.505   8.763   9.887
 7152SOL    HW123353   6.561   8.762   9.809
 7152SOL    HW223354   6.439   8.696   9.869
 7153SOL     OW23355   0.346   3.978   5.329
 7153SOL    HW123356   0.378   3.901   5.281
 7153SOL    HW223357   0.410   3.991   5.399
 7154SOL     OW23358   9.622  10.328   7.416
 7154SOL    HW123359   9.608  10.317   7.322
 7154SOL    HW223360   9.653  10.242   7.445
 7155SOL     OW23361   3.304   6.950   7.714
 7155SOL    HW123362   3.231   6.894   7.739
 7155SOL    HW223363   3.272   7.039   7.725
 7156SOL     OW23364  14.129   8.117  10.923
 7156SOL    HW123365  14.066   8.163  10.979
 7156SOL    HW223366  14.156   8.182  10.858
 7157SOL     OW23367   6.162   0.167   4.536
 7157SOL    HW123368   6.110   0.228   4.588
 7157SOL    HW223369   6.206   0.222   4.471
 7158SOL     OW23370   3.567   6.491  11.844
 7158SOL    HW123371   3.567   6.499  11.749
 7158SOL    HW223372   3.489   6.538  11.873
 7159SOL     OW23373  10.506  11.037   0.267
 7159SOL    HW123374  10.514  10.958   0.321
 7159SOL    HW223375  10.447  11.094   0.317
 7160SOL     OW23376  13.105   6.914   6.895
 7160SOL    HW123377  13.103   6.889   6.802
 7160SOL    HW223378  13.043   6.987   6.901
 7161SOL     OW23379   7.866   7.349   0.760
 7161SOL    HW123380   7.863   7.256   0.779
 7161SOL    HW223381   7.797   7.363   0.694
 7162SOL     OW23382   4.495   6.904   1.258
 7162SOL    HW123383   4.429   6.874   1.196
 7162SOL    HW223384   4.488   7.000   1.256
 7163SOL     OW23385  11.541   8.399   0.974
 7163SOL    HW123386  11.559   8.462   0.903
 7163SOL    HW223387  11.605   8.420   1.041
 7164SOL     OW23388  12.273  10.697   0.323
 7164SOL    HW123389  12.187  10.668   0.292
 7164SOL    HW223390  12.254  10.763   0.390
 7165SOL     OW23391  13.128   3.503   9.060
 7165SOL    HW123392  13.197   3.478   8.999
 7165SOL    HW223393  13.175   3.547   9.132
 7166SOL     OW23394   3.249   4.489  13.853
 7166SOL    HW123395   3.214   4.495  13.764
 7166SOL    HW223396   3.171   4.493  13.909
 7167SOL     OW23397   4.316  11.889   0.339
 7167SOL    HW123398   4.377  11.828   0.298
 7167SOL    HW223399   4.238  11.836   0.357
 7168SOL     OW23400   5.454   9.662  10.555
 7168SOL    HW123401   5.509   9.627  10.624
 7168SOL    HW223402   5.509   9.725  10.509
 7169SOL     OW23403   2.166  11.582   8.599
 7169SOL    HW123404   2.162  11.566   8.693
 7169SOL    HW223405   2.076  11.605   8.575
 7170SOL     OW23406  10.772  11.318   7.386
 7170SOL    HW123407  10.689  11.288   7.349
 7170SOL    HW223408  10.829  11.241   7.381
 7171SOL     OW23409  14.193   4.519  13.451
 7171SOL    HW123410  14.163   4.507  13.541
 7171SOL    HW223411  14.163   4.441  13.405
 7172SOL     OW23412   3.719  14.423   5.207
 7172SOL    HW123413   3.747  14.333   5.191
 7172SOL    HW223414   3.701  14.427   5.301
 7173SOL     OW23415  13.060   6.029   7.862
 7173SOL    HW123416  13.121   5.986   7.802
 7173SOL    HW223417  13.086   6.121   7.861
 7174SOL     OW23418  10.707  11.627   2.892
 7174SOL    HW123419  10.797  11.595   2.902
 7174SOL    HW223420  10.716  11.723   2.888
 7175SOL     OW23421   2.616  12.234  11.606
 7175SOL    HW123422   2.663  12.256  11.526
 7175SOL    HW223423   2.568  12.153  11.584
 7176SOL     OW23424  11.486   2.684   9.899
 7176SOL    HW123425  11.524   2.606   9.940
 7176SOL    HW223426  11.437   2.651   9.824
 7177SOL     OW23427   3.418   8.558   6.400
 7177SOL    HW123428   3.468   8.621   6.451
 7177SOL    HW223429   3.405   8.484   6.459
 7178SOL     OW23430   7.557  14.788   2.186
 7178SOL    HW123431   7.467  14.791   2.220
 7178SOL    HW223432   7.601  14.722   2.239
 7179SOL     OW23433   2.968   8.522  12.216
 7179SOL    HW123434   2.979   8.481  12.130
 7179SOL    HW223435   3.030   8.594  12.217
 7180SOL     OW23436   4.168   4.008   5.837
 7180SOL    HW123437   4.086   4.047   5.807
 7180SOL    HW223438   4.235   4.073   5.815
 7181SOL     OW23439  10.789   1.379  10.526
 7181SOL    HW123440  10.796   1.327  10.446
 7181SOL    HW223441  10.878   1.379  10.563
 7182SOL     OW23442   0.978   7.766   4.100
 7182SOL    HW123443   1.009   7.686   4.142
 7182SOL    HW223444   0.958   7.741   4.010
 7183SOL     OW23445   6.227   4.173   6.110
 7183SOL    HW123446   6.279   4.236   6.161
 7183SOL    HW223447   6.292   4.127   6.057
 7184SOL     OW23448   3.860   4.595   2.031
 7184SOL    HW123449   3.934   4.605   2.090
 7184SOL    HW223450   3.842   4.683   2.000
 7185SOL     OW23451  12.239   2.615  10.094
 7185SOL    HW123452  12.252   2.693  10.040
 7185SOL    HW223453  12.265   2.643  10.182
 7186SOL     OW23454  13.384   6.808   6.303
 7186SOL    HW123455  13.321   6.803   6.230
 7186SOL    HW223456  13.464   6.841   6.263
 7187SOL     OW23457   8.947  12.543   1.378
 7187SOL    HW123458   9.035  12.530   1.412
 7187SOL    HW223459   8.955  12.525   1.284
 7188SOL     OW23460  10.628   2.150   6.742
 7188SOL    HW123461  10.672   2.233   6.724
 7188SOL    HW223462  10.616   2.110   6.656
 7189SOL     OW23463  12.148   1.304  13.613
 7189SOL    HW123464  12.148   1.298  13.518
 7189SOL    HW223465  12.196   1.226  13.642
 7190SOL     OW23466  14.839   9.303   4.292
 7190SOL    HW123467   0.022   9.367   4.257
 7190SOL    HW223468  14.757   9.351   4.297
 7191SOL     OW23469   5.983  13.623  10.090
 7191SOL    HW123470   5.910  13.562  10.084
 7191SOL    HW223471   6.038  13.589  10.160
 7192SOL     OW23472  14.599   8.545  12.609
 7192SOL    HW123473  14.587   8.451  12.591
 7192SOL    HW223474  14.598   8.586  12.523
 7193SOL     OW23475   7.009   8.940  13.504
 7193SOL    HW123476   6.973   8.851  13.509
 7193SOL    HW223477   6.994   8.977  13.591
 7194SOL     OW23478   1.127   4.905   8.183
 7194SOL    HW123479   1.103   4.982   8.132
 7194SOL    HW223480   1.221   4.916   8.200
 7195SOL     OW23481  10.868   2.684   7.852
 7195SOL    HW123482  10.809   2.727   7.790
 7195SOL    HW223483  10.891   2.601   7.809
 7196SOL     OW23484  12.128   9.209   0.640
 7196SOL    HW123485  12.192   9.138   0.633
 7196SOL    HW223486  12.054   9.180   0.586
 7197SOL     OW23487   1.696   4.177   4.528
 7197SOL    HW123488   1.723   4.093   4.565
 7197SOL    HW223489   1.754   4.241   4.570
 7198SOL     OW23490   9.425   6.248  12.946
 7198SOL    HW123491   9.454   6.170  12.994
 7198SOL    HW223492   9.444   6.320  13.006
 7199SOL     OW23493   4.595   0.549   0.232
 7199SOL    HW123494   4.579   0.457   0.213
 7199SOL    HW223495   4.680   0.567   0.191
 7200SOL     OW23496   7.719   7.558   3.590
 7200SOL    HW123497   7.659   7.612   3.641
 7200SOL    HW223498   7.707   7.469   3.624
 7201SOL     OW23499   4.537  10.590  13.919
 7201SOL    HW123500   4.488  10.521  13.874
 7201SOL    HW223501   4.507  10.584  14.010
 7202SOL     OW23502   0.767   5.161  14.834
 7202SOL    HW123503   0.677   5.191  14.851
 7202SOL    HW223504   0.819   5.204   0.022
 7203SOL     OW23505   1.720   0.302   2.753
 7203SOL    HW123506   1.731   0.284   2.659
 7203SOL    HW223507   1.749   0.392   2.764
 7204SOL     OW23508  14.162   3.419   3.409
 7204SOL    HW123509  14.133   3.334   3.378
 7204SOL    HW223510  14.091   3.450   3.465
 7205SOL     OW23511   5.963  13.547   2.620
 7205SOL    HW123512   5.878  13.555   2.576
 7205SOL    HW223513   5.980  13.633   2.657
 7206SOL     OW23514  10.565   5.328  10.595
 7206SOL    HW123515  10.602   5.416  10.587
 7206SOL    HW223516  10.470   5.341  10.601
 7207SOL     OW23517   3.518   3.696   2.052
 7207SOL    HW123518   3.611   3.673   2.047
 7207SOL    HW223519   3.491   3.665   2.138
 7208SOL     OW23520  10.806   3.165   3.414
 7208SOL    HW123521  10.785   3.245   3.365
 7208SOL    HW223522  10.745   3.100   3.380
 7209SOL     OW23523  13.859   3.078   5.204
 7209SOL    HW123524  13.841   3.171   5.217
 7209SOL    HW223525  13.791   3.048   5.144
 7210SOL     OW23526   9.231   4.054   3.183
 7210SOL    HW123527   9.305   4.096   3.139
 7210SOL    HW223528   9.230   4.095   3.270
 7211SOL     OW23529  11.643  12.115   2.418
 7211SOL    HW123530  11.555  12.084   2.398
 7211SOL    HW223531  11.701  12.043   2.391
 7212SOL     OW23532   7.688   4.517   3.172
 7212SOL    HW123533   7.605   4.557   3.198
 7212SOL    HW223534   7.687   4.519   3.076
 7213SOL     OW23535   4.979  11.102  12.844
 7213SOL    HW123536   5.035  11.131  12.772
 7213SOL    HW223537   5.015  11.017  12.870
 7214SOL     OW23538  12.954   5.434  13.404
 7214SOL    HW123539  13.036   5.384  13.412
 7214SOL    HW223540  12.891   5.384  13.456
 7215SOL     OW23541   3.520   0.489  14.678
 7215SOL    HW123542   3.453   0.540  14.633
 7215SOL    HW223543   3.480   0.403  14.691
 7216SOL     OW23544   9.323   4.882  14.523
 7216SOL    HW123545   9.287   4.800  14.556
 7216SOL    HW223546   9.282   4.893  14.437
 7217SOL     OW23547   8.017   8.301   0.182
 7217SOL    HW123548   8.078   8.288   0.254
 7217SOL    HW223549   8.069   8.346   0.115
 7218SOL     OW23550   3.473   2.971   7.861
 7218SOL    HW123551   3.544   2.917   7.826
 7218SOL    HW223552   3.513   3.057   7.873
 7219SOL     OW23553   8.759  13.809   8.519
 7219SOL    HW123554   8.780  13.786   8.428
 7219SOL    HW223555   8.840  13.792   8.567
 7220SOL     OW23556   2.975  11.953  10.483
 7220SOL    HW123557   3.004  12.037  10.518
 7220SOL    HW223558   3.052  11.918  10.438
 7221SOL     OW23559  14.794  10.067   9.326
 7221SOL    HW123560  14.720  10.106   9.372
 7221SOL    HW223561  14.763  10.053   9.237
 7222SOL     OW23562   9.799   2.422   4.098
 7222SOL    HW123563   9.787   2.327   4.100
 7222SOL    HW223564   9.722   2.457   4.144
 7223SOL     OW23565  14.812   2.532   7.645
 7223SOL    HW123566   0.015   2.580   7.643
 7223SOL    HW223567  14.759   2.580   7.708
 7224SOL     OW23568   6.106  14.663   4.259
 7224SOL    HW123569   6.187  14.688   4.302
 7224SOL    HW223570   6.087  14.575   4.291
 7225SOL     OW23571   3.952   2.557  14.115
 7225SOL    HW123572   4.005   2.480  14.138
 7225SOL    HW223573   3.937   2.548  14.021
 7226SOL     OW23574  11.753   8.748  10.390
 7226SOL    HW123575  11.739   8.817  10.325
 7226SOL    HW223576  11.703   8.776  10.467
 7227SOL     OW23577  12.818  10.681   1.910
 7227SOL    HW123578  12.805  10.586   1.905
 7227SOL    HW223579  12.895  10.697   1.855
 7228SOL     OW23580   6.937  12.484  14.028
 7228SOL    HW123581   6.943  12.521  13.939
 7228SOL    HW223582   7.012  12.425  14.034
 7229SOL     OW23583   8.597  11.931   9.499
 7229SOL    HW123584   8.683  11.938   9.457
 7229SOL    HW223585   8.561  11.848   9.468
 7230SOL     OW23586  14.197  10.016  10.875
 7230SOL    HW123587  14.203  10.106  10.907
 7230SOL    HW223588  14.288   9.989  10.866
 7231SOL     OW23589   7.818   3.763   2.019
 7231SOL    HW123590   7.890   3.826   2.015
 7231SOL    HW223591   7.776   3.779   2.103
 7232SOL     OW23592   4.367  11.627   6.154
 7232SOL    HW123593   4.462  11.619   6.155
 7232SOL    HW223594   4.351  11.720   6.137
 7233SOL     OW23595   2.028   8.005  12.957
 7233SOL    HW123596   2.055   7.974  13.043
 7233SOL    HW223597   1.959   7.945  12.930
 7234SOL     OW23598  11.609   7.101   8.483
 7234SOL    HW123599  11.530   7.068   8.439
 7234SOL    HW223600  11.641   7.026   8.533
 7235SOL     OW23601   5.231   1.543   2.376
 7235SOL    HW123602   5.208   1.558   2.284
 7235SOL    HW223603   5.152   1.508   2.416
 7236SOL     OW23604  13.335   7.931  12.009
 7236SOL    HW123605  13.296   8.014  11.983
 7236SOL    HW223606  13.395   7.909  11.938
 7237SOL     OW23607   0.211   4.222   4.182
 7237SOL    HW123608   0.263   4.227   4.102
 7237SOL    HW223609   0.274   4.234   4.253
 7238SOL     OW23610  12.328   9.295  13.870
 7238SOL    HW123611  12.294   9.378  13.837
 7238SOL    HW223612  12.268   9.229  13.835
 7239SOL     OW23613   0.670   1.098   1.444
 7239SOL    HW123614   0.627   1.166   1.496
 7239SOL    HW223615   0.760   1.128   1.435
 7240SOL     OW23616  10.398   6.993  13.567
 7240SOL    HW123617  10.380   6.928  13.498
 7240SOL    HW223618  10.319   6.994  13.620
 7241SOL     OW23619   7.188  13.052   8.172
 7241SOL    HW123620   7.185  12.964   8.210
 7241SOL    HW223621   7.113  13.097   8.210
 7242SOL     OW23622   8.582   3.202  12.583
 7242SOL    HW123623   8.544   3.130  12.533
 7242SOL    HW223624   8.549   3.281  12.541
 7243SOL     OW23625   0.036  12.419   4.335
 7243SOL    HW123626  14.828  12.412   4.373
 7243SOL    HW223627   0.049  12.337   4.289
 7244SOL     OW23628   8.091   5.539   8.484
 7244SOL    HW123629   8.029   5.612   8.481
 7244SOL    HW223630   8.096   5.508   8.394
 7245SOL     OW23631  14.639   8.402   5.832
 7245SOL    HW123632  14.592   8.323   5.804
 7245SOL    HW223633  14.624   8.407   5.927
 7246SOL     OW23634  13.835   3.785   3.972
 7246SOL    HW123635  13.815   3.809   4.062
 7246SOL    HW223636  13.789   3.851   3.919
 7247SOL     OW23637   5.398   7.816  11.025
 7247SOL    HW123638   5.350   7.891  10.990
 7247SOL    HW223639   5.348   7.789  11.102
 7248SOL     OW23640   5.023   2.109  10.007
 7248SOL    HW123641   5.063   2.092   9.921
 7248SOL    HW223642   5.044   2.031  10.058
 7249SOL     OW23643   8.268   6.774  10.964
 7249SOL    HW123644   8.275   6.860  10.922
 7249SOL    HW223645   8.358   6.740  10.964
 7250SOL     OW23646   0.400  14.431   1.137
 7250SOL    HW123647   0.332  14.491   1.169
 7250SOL    HW223648   0.475  14.446   1.194
 7251SOL     OW23649  11.722   0.366   0.588
 7251SOL    HW123650  11.642   0.314   0.585
 7251SOL    HW223651  11.723   0.415   0.506
 7252SOL     OW23652   3.635   7.431   0.092
 7252SOL    HW123653   3.562   7.383   0.052
 7252SOL    HW223654   3.616   7.523   0.072
 7253SOL     OW23655  11.486   5.939  10.996
 7253SOL    HW123656  11.568   5.914  10.953
 7253SOL    HW223657  11.510   6.012  11.053
 7254SOL     OW23658  10.474   3.509   1.508
 7254SOL    HW123659  10.434   3.481   1.426
 7254SOL    HW223660  10.568   3.512   1.490
 7255SOL     OW23661  11.466   6.522   4.772
 7255SOL    HW123662  11.374   6.528   4.748
 7255SOL    HW223663  11.481   6.597   4.829
 7256SOL     OW23664   6.750   5.981   3.558
 7256SOL    HW123665   6.837   5.981   3.519
 7256SOL    HW223666   6.766   5.966   3.652
 7257SOL     OW23667  14.493   9.135   7.307
 7257SOL    HW123668  14.406   9.094   7.311
 7257SOL    HW223669  14.532   9.115   7.392
 7258SOL     OW23670   7.006   7.395   7.742
 7258SOL    HW123671   6.928   7.350   7.709
 7258SOL    HW223672   6.973   7.456   7.808
 7259SOL     OW23673   8.279  12.934   9.889
 7259SOL    HW123674   8.354  12.987   9.860
 7259SOL    HW223675   8.211  12.997   9.909
 7260SOL     OW23676  12.178   8.974   4.862
 7260SOL    HW123677  12.172   8.888   4.820
 7260SOL    HW223678  12.170   9.036   4.790
 7261SOL     OW23679   4.887  13.745   1.692
 7261SOL    HW123680   4.915  13.719   1.779
 7261SOL    HW223681   4.927  13.831   1.678
 7262SOL     OW23682  11.177  10.763   7.376
 7262SOL    HW123683  11.168  10.836   7.437
 7262SOL    HW223684  11.091  10.755   7.334
 7263SOL     OW23685  10.695   3.214  13.495
 7263SOL    HW123686  10.726   3.135  13.539
 7263SOL    HW223687  10.638   3.181  13.424
 7264SOL     OW23688   7.381   4.511   7.541
 7264SOL    HW123689   7.344   4.599   7.544
 7264SOL    HW223690   7.375   4.479   7.631
 7265SOL     OW23691   4.804  13.338   7.381
 7265SOL    HW123692   4.775  13.324   7.471
 7265SOL    HW223693   4.853  13.258   7.360
 7266SOL     OW23694   8.577   0.012   6.354
 7266SOL    HW123695   8.645  14.829   6.375
 7266SOL    HW223696   8.497  14.855   6.392
 7267SOL     OW23697   0.931  10.773   3.488
 7267SOL    HW123698   0.873  10.784   3.563
 7267SOL    HW223699   1.010  10.822   3.511
 7268SOL     OW23700  11.760   5.011   0.699
 7268SOL    HW123701  11.854   4.996   0.701
 7268SOL    HW223702  11.751   5.107   0.703
 7269SOL     OW23703   0.895  10.225   2.709
 7269SOL    HW123704   0.857  10.176   2.781
 7269SOL    HW223705   0.979  10.258   2.743
 7270SOL     OW23706   1.064  11.860  11.785
 7270SOL    HW123707   1.087  11.899  11.701
 7270SOL    HW223708   1.075  11.766  11.772
 7271SOL     OW23709   1.035   0.585   5.673
 7271SOL    HW123710   0.961   0.614   5.727
 7271SOL    HW223711   1.012   0.496   5.648
 7272SOL     OW23712   3.480  11.383   8.950
 7272SOL    HW123713   3.512  11.474   8.953
 7272SOL    HW223714   3.415  11.383   8.880
 7273SOL     OW23715   7.463  11.018   4.339
 7273SOL    HW123716   7.544  11.032   4.388
 7273SOL    HW223717   7.407  10.969   4.399
 7274SOL     OW23718  12.136   5.848   7.924
 7274SOL    HW123719  12.160   5.810   8.009
 7274SOL    HW223720  12.063   5.794   7.894
 7275SOL     OW23721   3.573   6.786   7.730
 7275SOL    HW123722   3.526   6.738   7.663
 7275SOL    HW223723   3.521   6.865   7.744
 7276SOL     OW23724  11.367   8.493  12.410
 7276SOL    HW123725  11.460   8.513  12.411
 7276SOL    HW223726  11.344   8.478  12.502
 7277SOL     OW23727   4.180   2.881   9.161
 7277SOL    HW123728   4.267   2.844   9.176
 7277SOL    HW223729   4.190   2.973   9.184
 7278SOL     OW23730   1.878   5.688  11.578
 7278SOL    HW123731   1.890   5.778  11.549
 7278SOL    HW223732   1.965   5.661  11.610
 7279SOL     OW23733   2.955   4.607   5.706
 7279SOL    HW123734   3.005   4.643   5.633
 7279SOL    HW223735   2.867   4.594   5.671
 7280SOL     OW23736  10.524   9.535   8.982
 7280SOL    HW123737  10.557   9.483   8.909
 7280SOL    HW223738  10.501   9.471   9.049
 7281SOL     OW23739   2.816   3.917   6.612
 7281SOL    HW123740   2.821   4.003   6.654
 7281SOL    HW223741   2.896   3.911   6.560
 7282SOL     OW23742   7.773   3.565   4.524
 7282SOL    HW123743   7.722   3.633   4.480
 7282SOL    HW223744   7.798   3.604   4.607
 7283SOL     OW23745   3.847   8.387   1.626
 7283SOL    HW123746   3.764   8.424   1.597
 7283SOL    HW223747   3.909   8.410   1.556
 7284SOL     OW23748   3.340   8.825   3.106
 7284SOL    HW123749   3.339   8.797   3.197
 7284SOL    HW223750   3.361   8.919   3.110
 7285SOL     OW23751   4.455  10.179   4.297
 7285SOL    HW123752   4.539  10.216   4.323
 7285SOL    HW223753   4.390  10.229   4.346
 7286SOL     OW23754  11.739  14.363   0.426
 7286SOL    HW123755  11.818  14.379   0.477
 7286SOL    HW223756  11.670  14.352   0.492
 7287SOL     OW23757  10.069  14.069   9.616
 7287SOL    HW123758  10.056  14.147   9.562
 7287SOL    HW223759   9.992  14.015   9.600
 7288SOL     OW23760   9.066   8.912  10.855
 7288SOL    HW123761   9.101   8.916  10.766
 7288SOL    HW223762   9.001   8.841  10.852
 7289SOL     OW23763   2.898  10.412   2.530
 7289SOL    HW123764   2.832  10.385   2.466
 7289SOL    HW223765   2.911  10.505   2.514
 7290SOL     OW23766   3.625  14.118   1.152
 7290SOL    HW123767   3.613  14.023   1.155
 7290SOL    HW223768   3.590  14.148   1.236
 7291SOL     OW23769   6.192   8.821  12.628
 7291SOL    HW123770   6.162   8.781  12.709
 7291SOL    HW223771   6.162   8.762  12.559
 7292SOL     OW23772  14.495   3.070   6.434
 7292SOL    HW123773  14.516   3.134   6.502
 7292SOL    HW223774  14.511   2.985   6.474
 7293SOL     OW23775   2.455  14.219   5.254
 7293SOL    HW123776   2.436  14.143   5.199
 7293SOL    HW223777   2.514  14.272   5.201
 7294SOL     OW23778   1.733  13.418   3.745
 7294SOL    HW123779   1.773  13.392   3.828
 7294SOL    HW223780   1.650  13.459   3.770
 7295SOL     OW23781   4.189   5.663  12.082
 7295SOL    HW123782   4.169   5.571  12.068
 7295SOL    HW223783   4.181   5.704  11.996
 7296SOL     OW23784  10.003   4.227   3.675
 7296SOL    HW123785   9.934   4.243   3.610
 7296SOL    HW223786  10.084   4.252   3.630
 7297SOL     OW23787   0.729   6.405   6.373
 7297SOL    HW123788   0.791   6.334   6.393
 7297SOL    HW223789   0.770   6.483   6.409
 7298SOL     OW23790   4.618   0.421  13.052
 7298SOL    HW123791   4.593   0.330  13.033
 7298SOL    HW223792   4.550   0.474  13.010
 7299SOL     OW23793   5.225   8.001   5.610
 7299SOL    HW123794   5.152   7.951   5.573
 7299SOL    HW223795   5.301   7.974   5.558
 7300SOL     OW23796   3.825   6.703   8.813
 7300SOL    HW123797   3.758   6.635   8.821
 7300SOL    HW223798   3.785   6.781   8.852
 7301SOL     OW23799   0.171   8.392   1.239
 7301SOL    HW123800   0.158   8.487   1.231
 7301SOL    HW223801   0.119   8.355   1.168
 7302SOL     OW23802   4.852   2.474   4.737
 7302SOL    HW123803   4.817   2.486   4.648
 7302SOL    HW223804   4.791   2.412   4.778
 7303SOL     OW23805   3.440   4.864   9.405
 7303SOL    HW123806   3.482   4.947   9.424
 7303SOL    HW223807   3.439   4.817   9.488
 7304SOL     OW23808   6.358  11.138  13.469
 7304SOL    HW123809   6.421  11.091  13.415
 7304SOL    HW223810   6.293  11.172  13.407
 7305SOL     OW23811  13.529  12.201  12.276
 7305SOL    HW123812  13.589  12.153  12.220
 7305SOL    HW223813  13.585  12.246  12.340
 7306SOL     OW23814   3.036   2.907  14.436
 7306SOL    HW123815   3.007   2.871  14.352
 7306SOL    HW223816   2.996   2.851  14.502
 7307SOL     OW23817   4.623   5.820   8.097
 7307SOL    HW123818   4.534   5.843   8.068
 7307SOL    HW223819   4.668   5.796   8.016
 7308SOL     OW23820  14.837  10.807   7.870
 7308SOL    HW123821  14.801  10.830   7.956
 7308SOL    HW223822  14.871  10.718   7.881
 7309SOL     OW23823   6.407  10.680   9.827
 7309SOL    HW123824   6.493  10.690   9.868
 7309SOL    HW223825   6.393  10.762   9.780
 7310SOL     OW23826   1.364   6.429   1.494
 7310SOL    HW123827   1.380   6.523   1.504
 7310SOL    HW223828   1.353   6.416   1.400
 7311SOL     OW23829  14.427   8.234   0.568
 7311SOL    HW123830  14.493   8.197   0.510
 7311SOL    HW223831  14.419   8.325   0.540
 7312SOL     OW23832  14.749   9.321   6.497
 7312SOL    HW123833  14.736   9.386   6.428
 7312SOL    HW223834  14.838   9.288   6.482
 7313SOL     OW23835   2.845   2.735  14.578
 7313SOL    HW123836   2.888   2.761  14.659
 7313SOL    HW223837   2.798   2.655  14.600
 7314SOL     OW23838   8.781   0.196  12.121
 7314SOL    HW123839   8.733   0.150  12.190
 7314SOL    HW223840   8.871   0.202  12.154
 7315SOL     OW23841   5.154   7.794   2.510
 7315SOL    HW123842   5.146   7.816   2.417
 7315SOL    HW223843   5.079   7.736   2.527
 7316SOL     OW23844   8.525   8.990   2.937
 7316SOL    HW123845   8.541   8.899   2.912
 7316SOL    HW223846   8.604   9.037   2.909
 7317SOL     OW23847   6.573   0.552  14.598
 7317SOL    HW123848   6.543   0.511  14.516
 7317SOL    HW223849   6.650   0.501  14.623
 7318SOL     OW23850   3.532   8.280   7.345
 7318SOL    HW123851   3.585   8.356   7.325
 7318SOL    HW223852   3.575   8.240   7.422
 7319SOL     OW23853   9.861   9.711  11.697
 7319SOL    HW123854   9.844   9.729  11.790
 7319SOL    HW223855   9.892   9.621  11.696
 7320SOL     OW23856   4.942   5.375   2.608
 7320SOL    HW123857   4.959   5.469   2.618
 7320SOL    HW223858   4.911   5.347   2.694
 7321SOL     OW23859  10.894  12.146   8.545
 7321SOL    HW123860  10.838  12.110   8.614
 7321SOL    HW223861  10.960  12.079   8.529
 7322SOL     OW23862  13.307   7.523  12.137
 7322SOL    HW123863  13.227   7.538  12.188
 7322SOL    HW223864  13.282   7.542  12.047
 7323SOL     OW23865   0.061  11.394   3.583
 7323SOL    HW123866   0.036  11.354   3.666
 7323SOL    HW223867   0.146  11.355   3.563
 7324SOL     OW23868  12.283  13.395  11.607
 7324SOL    HW123869  12.321  13.469  11.655
 7324SOL    HW223870  12.248  13.337  11.675
 7325SOL     OW23871   8.050   6.556   1.843
 7325SOL    HW123872   8.046   6.641   1.886
 7325SOL    HW223873   8.094   6.573   1.760
 7326SOL     OW23874   9.237   8.201   6.661
 7326SOL    HW123875   9.288   8.219   6.740
 7326SOL    HW223876   9.248   8.279   6.607
 7327SOL     OW23877  11.551   2.044   7.761
 7327SOL    HW123878  11.583   2.011   7.677
 7327SOL    HW223879  11.613   2.010   7.825
 7328SOL     OW23880  13.599   6.793   1.013
 7328SOL    HW123881  13.690   6.809   0.988
 7328SOL    HW223882  13.593   6.697   1.021
 7329SOL     OW23883  14.610   2.243  14.098
 7329SOL    HW123884  14.690   2.296  14.099
 7329SOL    HW223885  14.564   2.270  14.019
 7330SOL     OW23886  10.210   7.906   1.206
 7330SOL    HW123887  10.158   7.848   1.262
 7330SOL    HW223888  10.147   7.969   1.173
 7331SOL     OW23889   4.795   4.271  10.283
 7331SOL    HW123890   4.823   4.362  10.273
 7331SOL    HW223891   4.796   4.256  10.378
 7332SOL     OW23892   9.940   6.961   1.639
 7332SOL    HW123893   9.964   6.905   1.565
 7332SOL    HW223894  10.003   7.033   1.636
 7333SOL     OW23895  12.908   6.635   6.837
 7333SOL    HW123896  12.817   6.619   6.812
 7333SOL    HW223897  12.902   6.671   6.926
 7334SOL     OW23898   9.552   3.097   9.970
 7334SOL    HW123899   9.464   3.102   9.932
 7334SOL    HW223900   9.595   3.178   9.941
 7335SOL     OW23901   8.371   7.528   8.522
 7335SOL    HW123902   8.379   7.450   8.578
 7335SOL    HW223903   8.326   7.592   8.575
 7336SOL     OW23904  12.382  11.806   3.618
 7336SOL    HW123905  12.360  11.765   3.701
 7336SOL    HW223906  12.454  11.754   3.583
 7337SOL     OW23907   1.781   3.546   6.697
 7337SOL    HW123908   1.699   3.588   6.723
 7337SOL    HW223909   1.754   3.459   6.667
 7338SOL     OW23910  12.703   5.512   5.899
 7338SOL    HW123911  12.728   5.497   5.808
 7338SOL    HW223912  12.734   5.435   5.946
 7339SOL     OW23913   5.741   0.346   0.247
 7339SOL    HW123914   5.716   0.436   0.229
 7339SOL    HW223915   5.768   0.346   0.339
 7340SOL     OW23916   3.298   6.439   6.926
 7340SOL    HW123917   3.380   6.395   6.906
 7340SOL    HW223918   3.237   6.408   6.859
 7341SOL     OW23919   2.805  14.686   5.191
 7341SOL    HW123920   2.844  14.634   5.260
 7341SOL    HW223921   2.749  14.625   5.142
 7342SOL     OW23922   6.855   2.714   2.426
 7342SOL    HW123923   6.862   2.728   2.332
 7342SOL    HW223924   6.921   2.772   2.464
 7343SOL     OW23925   3.946   9.052  13.379
 7343SOL    HW123926   4.022   9.089  13.334
 7343SOL    HW223927   3.871   9.099  13.342
 7344SOL     OW23928  10.238   3.347   0.765
 7344SOL    HW123929  10.194   3.317   0.845
 7344SOL    HW223930  10.169   3.388   0.713
 7345SOL     OW23931   2.123   2.707   6.819
 7345SOL    HW123932   2.181   2.765   6.770
 7345SOL    HW223933   2.035   2.741   6.802
 7346SOL     OW23934   1.359  14.346   9.961
 7346SOL    HW123935   1.327  14.435   9.977
 7346SOL    HW223936   1.279  14.294   9.952
 7347SOL     OW23937   3.761   1.858  14.012
 7347SOL    HW123938   3.759   1.802  13.934
 7347SOL    HW223939   3.684   1.831  14.062
 7348SOL     OW23940  12.212   5.212   9.080
 7348SOL    HW123941  12.277   5.154   9.040
 7348SOL    HW223942  12.186   5.166   9.160
 7349SOL     OW23943   9.099   5.265   2.164
 7349SOL    HW123944   9.058   5.235   2.083
 7349SOL    HW223945   9.111   5.185   2.216
 7350SOL     OW23946   4.363   0.727  12.205
 7350SOL    HW123947   4.342   0.804  12.258
 7350SOL    HW223948   4.398   0.763  12.124
 7351SOL     OW23949  13.559   8.775   6.033
 7351SOL    HW123950  13.538   8.707   5.970
 7351SOL    HW223951  13.647   8.804   6.010
 7352SOL     OW23952   5.983  12.952  13.432
 7352SOL    HW123953   5.945  12.864  13.427
 7352SOL    HW223954   5.997  12.966  13.526
 7353SOL     OW23955  10.227   7.960   7.512
 7353SOL    HW123956  10.297   7.901   7.483
 7353SOL    HW223957  10.249   7.980   7.603
 7354SOL     OW23958  10.802  11.660  11.121
 7354SOL    HW123959  10.846  11.575  11.127
 7354SOL    HW223960  10.870  11.720  11.092
 7355SOL     OW23961  13.726  11.750  11.421
 7355SOL    HW123962  13.742  11.820  11.485
 7355SOL    HW223963  13.801  11.691  11.432
 7356SOL     OW23964   5.561   7.484  10.619
 7356SOL    HW123965   5.520   7.544  10.681
 7356SOL    HW223966   5.653   7.481  10.645
 7357SOL     OW23967   2.778   0.039   7.965
 7357SOL    HW123968   2.872   0.052   7.953
 7357SOL    HW223969   2.737   0.112   7.918
 7358SOL     OW23970   1.670  13.258  12.589
 7358SOL    HW123971   1.637  13.176  12.628
 7358SOL    HW223972   1.606  13.324  12.616
 7359SOL     OW23973  12.769  12.839   2.778
 7359SOL    HW123974  12.724  12.816   2.696
 7359SOL    HW223975  12.851  12.880   2.749
 7360SOL     OW23976   3.764  10.039  11.766
 7360SOL    HW123977   3.690   9.978  11.764
 7360SOL    HW223978   3.789  10.045  11.858
 7361SOL     OW23979   7.577   3.260  14.212
 7361SOL    HW123980   7.578   3.172  14.249
 7361SOL    HW223981   7.607   3.248  14.122
 7362SOL     OW23982   4.074   7.779  13.202
 7362SOL    HW123983   4.102   7.706  13.147
 7362SOL    HW223984   3.978   7.775  13.200
 7363SOL     OW23985   9.868   7.338   1.725
 7363SOL    HW123986   9.817   7.416   1.748
 7363SOL    HW223987   9.863   7.283   1.804
 7364SOL     OW23988  11.307   0.011  10.139
 7364SOL    HW123989  11.322   0.106  10.142
 7364SOL    HW223990  11.354  14.857  10.215
 7365SOL     OW23991   8.424   4.877   7.093
 7365SOL    HW123992   8.347   4.861   7.039
 7365SOL    HW223993   8.485   4.923   7.035
 7366SOL     OW23994   8.309   1.812  11.786
 7366SOL    HW123995   8.258   1.853  11.717
 7366SOL    HW223996   8.292   1.864  11.864
 7367SOL     OW23997  14.669   9.696   5.090
 7367SOL    HW123998  14.707   9.769   5.138
 7367SOL    HW223999  14.633   9.639   5.158
 7368SOL     OW24000   8.506   3.096   0.241
 7368SOL    HW124001   8.565   3.152   0.292
 7368SOL    HW224002   8.420   3.139   0.249
 7369SOL     OW24003   9.925   1.820  13.476
 7369SOL    HW124004   9.897   1.743  13.427
 7369SOL    HW224005   9.963   1.879  13.411
 7370SOL     OW24006   8.309   5.233   0.175
 7370SOL    HW124007   8.316   5.313   0.227
 7370SOL    HW224008   8.398   5.198   0.174
 7371SOL     OW24009  12.496   8.073  13.711
 7371SOL    HW124010  12.461   7.984  13.706
 7371SOL    HW224011  12.578   8.064  13.760
 7372SOL     OW24012  12.761  14.537   4.788
 7372SOL    HW124013  12.837  14.582   4.751
 7372SOL    HW224014  12.751  14.574   4.876
 7373SOL     OW24015  11.759   4.690   2.209
 7373SOL    HW124016  11.796   4.607   2.179
 7373SOL    HW224017  11.720   4.728   2.130
 7374SOL     OW24018   4.984  13.351   1.030
 7374SOL    HW124019   4.949  13.278   0.981
 7374SOL    HW224020   5.061  13.316   1.075
 7375SOL     OW24021   1.410   2.279   8.547
 7375SOL    HW124022   1.354   2.356   8.539
 7375SOL    HW224023   1.479   2.305   8.607
 7376SOL     OW24024   8.237   4.712   4.281
 7376SOL    HW124025   8.307   4.778   4.276
 7376SOL    HW224026   8.259   4.661   4.359
 7377SOL     OW24027   4.967   7.306   4.100
 7377SOL    HW124028   4.987   7.241   4.033
 7377SOL    HW224029   4.886   7.275   4.141
 7378SOL     OW24030   6.762   5.770   5.576
 7378SOL    HW124031   6.776   5.678   5.553
 7378SOL    HW224032   6.773   5.818   5.494
 7379SOL     OW24033  10.721   1.880   7.440
 7379SOL    HW124034  10.733   1.869   7.346
 7379SOL    HW224035  10.741   1.972   7.456
 7380SOL     OW24036   3.477  10.644   2.923
 7380SOL    HW124037   3.477  10.713   2.989
 7380SOL    HW224038   3.490  10.563   2.973
 7381SOL     OW24039   1.463  11.660   3.035
 7381SOL    HW124040   1.396  11.616   3.088
 7381SOL    HW224041   1.533  11.595   3.025
 7382SOL     OW24042  10.496   1.463   0.361
 7382SOL    HW124043  10.574   1.502   0.320
 7382SOL    HW224044  10.518   1.370   0.370
 7383SOL     OW24045   3.839  14.814  10.756
 7383SOL    HW124046   3.818   0.026  10.736
 7383SOL    HW224047   3.861  14.776  10.671
 7384SOL     OW24048   1.657   9.228   6.201
 7384SOL    HW124049   1.734   9.282   6.218
 7384SOL    HW224050   1.658   9.162   6.270
 7385SOL     OW24051   1.454   7.528   2.458
 7385SOL    HW124052   1.481   7.500   2.371
 7385SOL    HW224053   1.490   7.460   2.516
 7386SOL     OW24054  13.719   3.766  12.045
 7386SOL    HW124055  13.787   3.701  12.059
 7386SOL    HW224056  13.766   3.849  12.034
 7387SOL     OW24057  10.397  12.675   4.514
 7387SOL    HW124058  10.310  12.700   4.543
 7387SOL    HW224059  10.418  12.596   4.564
 7388SOL     OW24060   2.527  11.702   9.756
 7388SOL    HW124061   2.540  11.672   9.666
 7388SOL    HW224062   2.488  11.627   9.801
 7389SOL     OW24063   7.614   5.882   8.471
 7389SOL    HW124064   7.566   5.856   8.393
 7389SOL    HW224065   7.663   5.804   8.496
 7390SOL     OW24066   2.924   3.294  13.982
 7390SOL    HW124067   2.845   3.295  14.036
 7390SOL    HW224068   2.892   3.306  13.893
 7391SOL     OW24069  11.611   1.280   0.321
 7391SOL    HW124070  11.610   1.185   0.308
 7391SOL    HW224071  11.520   1.306   0.311
 7392SOL     OW24072  10.198  13.469   1.577
 7392SOL    HW124073  10.282  13.451   1.620
 7392SOL    HW224074  10.218  13.538   1.513
 7393SOL     OW24075   5.235   5.627  10.331
 7393SOL    HW124076   5.270   5.645  10.418
 7393SOL    HW224077   5.231   5.532  10.326
 7394SOL     OW24078  13.806   1.252   7.479
 7394SOL    HW124079  13.865   1.196   7.529
 7394SOL    HW224080  13.824   1.230   7.387
 7395SOL     OW24081  11.140   5.294   6.626
 7395SOL    HW124082  11.050   5.290   6.594
 7395SOL    HW224083  11.175   5.374   6.587
 7396SOL     OW24084   8.149  12.303   2.939
 7396SOL    HW124085   8.122  12.274   3.026
 7396SOL    HW224086   8.233  12.258   2.925
 7397SOL     OW24087   5.205   9.039  11.436
 7397SOL    HW124088   5.239   9.041  11.526
 7397SOL    HW224089   5.111   9.056  11.447
 7398SOL     OW24090   5.503   4.404   8.735
 7398SOL    HW124091   5.557   4.465   8.786
 7398SOL    HW224092   5.446   4.362   8.800
 7399SOL     OW24093   7.811   3.292   9.506
 7399SOL    HW124094   7.887   3.351   9.509
 7399SOL    HW224095   7.847   3.206   9.528
 7400SOL     OW24096   3.739   0.561  14.831
 7400SOL    HW124097   3.667   0.534  14.774
 7400SOL    HW224098   3.802   0.489  14.825
 7401SOL     OW24099   2.581  11.373  12.636
 7401SOL    HW124100   2.628  11.292  12.618
 7401SOL    HW224101   2.590  11.425  12.556
 7402SOL     OW24102   0.424   9.869  14.171
 7402SOL    HW124103   0.468   9.941  14.125
 7402SOL    HW224104   0.486   9.797  14.167
 7403SOL     OW24105  14.126   5.794   1.581
 7403SOL    HW124106  14.150   5.871   1.530
 7403SOL    HW224107  14.052   5.756   1.534
 7404SOL     OW24108   5.703   1.104   4.997
 7404SOL    HW124109   5.644   1.075   5.066
 7404SOL    HW224110   5.754   1.026   4.974
 7405SOL     OW24111   8.700   7.368   8.929
 7405SOL    HW124112   8.732   7.439   8.873
 7405SOL    HW224113   8.656   7.413   9.001
 7406SOL     OW24114  11.034   2.679  13.778
 7406SOL    HW124115  11.032   2.584  13.767
 7406SOL    HW224116  10.944   2.703  13.800
 7407SOL     OW24117   3.396   2.538  12.171
 7407SOL    HW124118   3.306   2.571  12.167
 7407SOL    HW224119   3.448   2.613  12.198
 7408SOL     OW24120  12.949   1.642  10.660
 7408SOL    HW124121  12.958   1.695  10.739
 7408SOL    HW224122  12.891   1.693  10.603
 7409SOL     OW24123  12.609  12.652   9.776
 7409SOL    HW124124  12.654  12.732   9.751
 7409SOL    HW224125  12.592  12.662   9.870
 7410SOL     OW24126   4.337   6.750   2.211
 7410SOL    HW124127   4.432   6.751   2.223
 7410SOL    HW224128   4.317   6.833   2.167
 7411SOL     OW24129   6.751   6.673   7.041
 7411SOL    HW124130   6.803   6.643   7.116
 7411SOL    HW224131   6.670   6.623   7.047
 7412SOL     OW24132  10.694   1.657   0.296
 7412SOL    HW124133  10.651   1.720   0.355
 7412SOL    HW224134  10.784   1.652   0.328
 7413SOL     OW24135  10.637  12.905   0.179
 7413SOL    HW124136  10.666  12.943   0.261
 7413SOL    HW224137  10.698  12.939   0.113
 7414SOL     OW24138  14.675  14.688  11.587
 7414SOL    HW124139  14.646  14.611  11.635
 7414SOL    HW224140  14.750  14.720  11.638
 7415SOL     OW24141  12.979   3.327   0.266
 7415SOL    HW124142  13.020   3.374   0.194
 7415SOL    HW224143  12.950   3.396   0.327
 7416SOL     OW24144   8.846  11.957   2.423
 7416SOL    HW124145   8.866  12.051   2.419
 7416SOL    HW224146   8.931  11.914   2.431
 7417SOL     OW24147   9.073   4.187   8.202
 7417SOL    HW124148   9.013   4.115   8.180
 7417SOL    HW224149   9.112   4.161   8.285
 7418SOL     OW24150   2.083  12.139   1.471
 7418SOL    HW124151   2.145  12.114   1.402
 7418SOL    HW224152   2.136  12.189   1.533
 7419SOL     OW24153  14.081  10.960   0.877
 7419SOL    HW124154  14.175  10.962   0.893
 7419SOL    HW224155  14.044  10.928   0.959
 7420SOL     OW24156   9.119   8.801  11.881
 7420SOL    HW124157   9.180   8.779  11.810
 7420SOL    HW224158   9.071   8.720  11.897
 7421SOL     OW24159   7.235   7.772  10.404
 7421SOL    HW124160   7.248   7.693  10.456
 7421SOL    HW224161   7.150   7.760  10.363
 7422SOL     OW24162  13.101   9.896   9.818
 7422SOL    HW124163  13.090   9.809   9.856
 7422SOL    HW224164  13.016   9.916   9.779
 7423SOL     OW24165   4.548  13.596   5.155
 7423SOL    HW124166   4.463  13.572   5.118
 7423SOL    HW224167   4.603  13.613   5.078
 7424SOL     OW24168  12.393   7.543   2.213
 7424SOL    HW124169  12.451   7.469   2.229
 7424SOL    HW224170  12.449   7.611   2.176
 7425SOL     OW24171   3.015   3.755  14.603
 7425SOL    HW124172   3.020   3.773  14.509
 7425SOL    HW224173   3.068   3.823  14.644
 7426SOL     OW24174  14.268   6.314  13.606
 7426SOL    HW124175  14.333   6.248  13.627
 7426SOL    HW224176  14.304   6.396  13.640
 7427SOL     OW24177  10.967   1.832   9.313
 7427SOL    HW124178  10.967   1.777   9.391
 7427SOL    HW224179  10.874   1.838   9.288
 7428SOL     OW24180   1.892  11.146   3.295
 7428SOL    HW124181   1.885  11.172   3.203
 7428SOL    HW224182   1.965  11.197   3.329
 7429SOL     OW24183   2.740   5.190   8.881
 7429SOL    HW124184   2.672   5.237   8.930
 7429SOL    HW224185   2.698   5.165   8.799
 7430SOL     OW24186   0.458  11.225   5.347
 7430SOL    HW124187   0.524  11.232   5.416
 7430SOL    HW224188   0.398  11.157   5.378
 7431SOL     OW24189   9.073   6.118   8.147
 7431SOL    HW124190   9.101   6.205   8.175
 7431SOL    HW224191   9.089   6.062   8.223
 7432SOL     OW24192  11.338  13.219   7.343
 7432SOL    HW124193  11.279  13.170   7.400
 7432SOL    HW224194  11.355  13.301   7.390
 7433SOL     OW24195   4.480  14.539   3.555
 7433SOL    HW124196   4.515  14.569   3.471
 7433SOL    HW224197   4.405  14.597   3.572
 7434SOL     OW24198   7.981   5.002   2.418
 7434SOL    HW124199   8.020   4.975   2.335
 7434SOL    HW224200   7.947   5.090   2.401
 7435SOL     OW24201   9.450  11.285   0.425
 7435SOL    HW124202   9.513  11.244   0.366
 7435SOL    HW224203   9.469  11.248   0.511
 7436SOL     OW24204   4.015   1.752   5.799
 7436SOL    HW124205   3.947   1.710   5.852
 7436SOL    HW224206   3.969   1.823   5.754
 7437SOL     OW24207   9.886   3.542  14.752
 7437SOL    HW124208   9.916   3.452  14.763
 7437SOL    HW224209   9.941   3.577  14.682
 7438SOL     OW24210  12.639   8.646   0.182
 7438SOL    HW124211  12.684   8.661   0.099
 7438SOL    HW224212  12.589   8.565   0.167
 7439SOL     OW24213   3.911   2.049   6.011
 7439SOL    HW124214   4.001   2.060   5.978
 7439SOL    HW224215   3.885   1.962   5.980
 7440SOL     OW24216   9.057  11.542   4.687
 7440SOL    HW124217   9.135  11.488   4.699
 7440SOL    HW224218   8.999  11.489   4.632
 7441SOL     OW24219  12.805  14.522   9.596
 7441SOL    HW124220  12.805  14.493   9.504
 7441SOL    HW224221  12.860  14.457   9.640
 7442SOL     OW24222  11.775   5.803   7.329
 7442SOL    HW124223  11.720   5.857   7.385
 7442SOL    HW224224  11.721   5.728   7.306
 7443SOL     OW24225   9.689   9.650   8.078
 7443SOL    HW124226   9.741   9.570   8.092
 7443SOL    HW224227   9.623   9.624   8.015
 7444SOL     OW24228  14.728   3.944   1.503
 7444SOL    HW124229  14.648   3.923   1.454
 7444SOL    HW224230  14.783   3.867   1.493
 7445SOL     OW24231   2.553  10.693   1.745
 7445SOL    HW124232   2.612  10.768   1.732
 7445SOL    HW224233   2.594  10.622   1.696
 7446SOL     OW24234  13.671   7.109   6.775
 7446SOL    HW124235  13.590   7.062   6.796
 7446SOL    HW224236  13.697   7.150   6.857
 7447SOL     OW24237  10.505   1.549   3.139
 7447SOL    HW124238  10.495   1.605   3.216
 7447SOL    HW224239  10.456   1.470   3.160
 7448SOL     OW24240   3.067   8.282   5.895
 7448SOL    HW124241   3.011   8.333   5.837
 7448SOL    HW224242   3.038   8.192   5.882
 7449SOL     OW24243   9.653   8.094   5.643
 7449SOL    HW124244   9.692   8.023   5.694
 7449SOL    HW224245   9.564   8.103   5.678
 7450SOL     OW24246   9.610  13.804   2.851
 7450SOL    HW124247   9.647  13.817   2.938
 7450SOL    HW224248   9.645  13.720   2.822
 7451SOL     OW24249  12.462  10.226   0.469
 7451SOL    HW124250  12.504  10.161   0.413
 7451SOL    HW224251  12.466  10.308   0.419
 7452SOL     OW24252  10.447   0.636  14.855
 7452SOL    HW124253  10.449   0.540  14.858
 7452SOL    HW224254  10.458   0.663   0.067
 7453SOL     OW24255  14.606   3.680   9.691
 7453SOL    HW124256  14.676   3.617   9.699
 7453SOL    HW224257  14.530   3.629   9.662
 7454SOL     OW24258   6.611  14.737   7.679
 7454SOL    HW124259   6.696  14.753   7.638
 7454SOL    HW224260   6.551  14.795   7.633
 7455SOL     OW24261  14.448   8.681   3.366
 7455SOL    HW124262  14.438   8.673   3.271
 7455SOL    HW224263  14.365   8.717   3.396
 7456SOL     OW24264   1.378  11.579   1.589
 7456SOL    HW124265   1.365  11.495   1.545
 7456SOL    HW224266   1.473  11.586   1.598
 7457SOL     OW24267   0.393   5.001  11.984
 7457SOL    HW124268   0.399   4.914  12.024
 7457SOL    HW224269   0.306   5.033  12.008
 7458SOL     OW24270   0.311  11.713  13.279
 7458SOL    HW124271   0.257  11.725  13.202
 7458SOL    HW224272   0.352  11.627  13.267
 7459SOL     OW24273   0.863   0.761   3.936
 7459SOL    HW124274   0.955   0.735   3.925
 7459SOL    HW224275   0.851   0.832   3.873
 7460SOL     OW24276   5.286   9.396   6.746
 7460SOL    HW124277   5.241   9.322   6.705
 7460SOL    HW224278   5.378   9.369   6.750
 7461SOL     OW24279   6.003   6.999   6.149
 7461SOL    HW124280   6.003   7.095   6.142
 7461SOL    HW224281   5.910   6.977   6.161
 7462SOL     OW24282   2.089   0.327  13.049
 7462SOL    HW124283   2.175   0.367  13.036
 7462SOL    HW224284   2.054   0.370  13.127
 7463SOL     OW24285   8.682   2.165   0.808
 7463SOL    HW124286   8.692   2.096   0.743
 7463SOL    HW224287   8.591   2.195   0.798
 7464SOL     OW24288  10.696   7.909   2.415
 7464SOL    HW124289  10.739   7.950   2.340
 7464SOL    HW224290  10.696   7.816   2.395
 7465SOL     OW24291   8.144   6.553  11.661
 7465SOL    HW124292   8.069   6.496  11.646
 7465SOL    HW224293   8.210   6.497  11.703
 7466SOL     OW24294   0.260   1.076  10.062
 7466SOL    HW124295   0.168   1.087  10.083
 7466SOL    HW224296   0.306   1.138  10.120
 7467SOL     OW24297  11.899   2.828   1.748
 7467SOL    HW124298  11.871   2.835   1.840
 7467SOL    HW224299  11.853   2.900   1.704
 7468SOL     OW24300   5.714  13.053   2.434
 7468SOL    HW124301   5.714  13.055   2.529
 7468SOL    HW224302   5.805  13.037   2.410
 7469SOL     OW24303   5.761  13.583  11.812
 7469SOL    HW124304   5.703  13.571  11.887
 7469SOL    HW224305   5.780  13.494  11.781
 7470SOL     OW24306  11.798  11.252   8.790
 7470SOL    HW124307  11.823  11.343   8.772
 7470SOL    HW224308  11.703  11.250   8.775
 7471SOL     OW24309  14.342  12.356   4.168
 7471SOL    HW124310  14.369  12.273   4.128
 7471SOL    HW224311  14.419  12.413   4.161
 7472SOL     OW24312   7.329  14.106  13.968
 7472SOL    HW124313   7.297  14.015  13.967
 7472SOL    HW224314   7.300  14.140  14.052
 7473SOL     OW24315   7.775  10.635  12.325
 7473SOL    HW124316   7.794  10.569  12.391
 7473SOL    HW224317   7.727  10.589  12.257
 7474SOL     OW24318   5.792   7.582   5.038
 7474SOL    HW124319   5.843   7.515   4.992
 7474SOL    HW224320   5.731   7.532   5.094
 7475SOL     OW24321  13.607   2.678  11.361
 7475SOL    HW124322  13.695   2.709  11.381
 7475SOL    HW224323  13.549   2.746  11.398
 7476SOL     OW24324   4.669   9.741  10.923
 7476SOL    HW124325   4.715   9.657  10.918
 7476SOL    HW224326   4.633   9.754  10.836
 7477SOL     OW24327   3.789   2.447  11.146
 7477SOL    HW124328   3.880   2.467  11.124
 7477SOL    HW224329   3.796   2.376  11.210
 7478SOL     OW24330   3.448   6.627   2.798
 7478SOL    HW124331   3.496   6.620   2.880
 7478SOL    HW224332   3.459   6.542   2.756
 7479SOL     OW24333   0.397   8.500   8.879
 7479SOL    HW124334   0.339   8.572   8.903
 7479SOL    HW224335   0.391   8.439   8.952
 7480SOL     OW24336  11.124   9.865  11.987
 7480SOL    HW124337  11.191   9.885  11.921
 7480SOL    HW224338  11.143   9.775  12.013
 7481SOL     OW24339   2.156  10.095  12.082
 7481SOL    HW124340   2.230  10.156  12.078
 7481SOL    HW224341   2.118  10.097  11.995
 7482SOL     OW24342   5.603   7.442   5.182
 7482SOL    HW124343   5.621   7.420   5.273
 7482SOL    HW224344   5.546   7.371   5.151
 7483SOL     OW24345  13.455   1.008  13.235
 7483SOL    HW124346  13.461   0.915  13.256
 7483SOL    HW224347  13.538   1.045  13.264
 7484SOL     OW24348   7.984  12.256   4.781
 7484SOL    HW124349   7.987  12.247   4.685
 7484SOL    HW224350   8.053  12.197   4.812
 7485SOL     OW24351  12.681   8.098   5.370
 7485SOL    HW124352  12.616   8.166   5.353
 7485SOL    HW224353  12.682   8.088   5.465
 7486SOL     OW24354   9.870   0.376   2.960
 7486SOL    HW124355   9.935   0.385   2.891
 7486SOL    HW224356   9.800   0.323   2.921
 7487SOL     OW24357  11.429  12.892  11.264
 7487SOL    HW124358  11.501  12.951  11.244
 7487SOL    HW224359  11.370  12.943  11.320
 7488SOL     OW24360   8.787   2.253   2.374
 7488SOL    HW124361   8.871   2.272   2.330
 7488SOL    HW224362   8.804   2.174   2.425
 7489SOL     OW24363   0.704   4.787  13.161
 7489SOL    HW124364   0.637   4.740  13.210
 7489SOL    HW224365   0.733   4.856  13.220
 7490SOL     OW24366   0.355  14.608  10.353
 7490SOL    HW124367   0.417  14.607  10.281
 7490SOL    HW224368   0.337  14.701  10.368
 7491SOL     OW24369   3.854   1.512   1.164
 7491SOL    HW124370   3.819   1.535   1.250
 7491SOL    HW224371   3.800   1.562   1.102
 7492SOL     OW24372  12.473   4.205   3.784
 7492SOL    HW124373  12.543   4.254   3.741
 7492SOL    HW224374  12.397   4.217   3.727
 7493SOL     OW24375   1.252   8.583   2.201
 7493SOL    HW124376   1.306   8.661   2.186
 7493SOL    HW224377   1.162   8.614   2.192
 7494SOL     OW24378   8.904   1.254  10.371
 7494SOL    HW124379   8.852   1.331  10.396
 7494SOL    HW224380   8.928   1.214  10.455
 7495SOL     OW24381  10.415   0.779   4.980
 7495SOL    HW124382  10.462   0.717   4.924
 7495SOL    HW224383  10.444   0.759   5.069
 7496SOL     OW24384  14.276   3.955  10.562
 7496SOL    HW124385  14.213   3.917  10.623
 7496SOL    HW224386  14.222   3.991  10.492
 7497SOL     OW24387   9.256  11.072  11.889
 7497SOL    HW124388   9.211  10.994  11.854
 7497SOL    HW224389   9.305  11.039  11.964
 7498SOL     OW24390  14.846   5.403   2.204
 7498SOL    HW124391  14.877   5.321   2.241
 7498SOL    HW224392  14.754   5.387   2.183
 7499SOL     OW24393  11.018  13.386   3.222
 7499SOL    HW124394  10.939  13.436   3.202
 7499SOL    HW224395  10.988  13.296   3.232
 7500SOL     OW24396   6.888  14.268  14.536
 7500SOL    HW124397   6.884  14.216  14.455
 7500SOL    HW224398   6.972  14.244  14.575
 7501SOL     OW24399   4.947   6.012   4.377
 7501SOL    HW124400   5.006   6.065   4.323
 7501SOL    HW224401   4.915   6.072   4.444
 7502SOL     OW24402   1.453   6.484   0.375
 7502SOL    HW124403   1.468   6.402   0.421
 7502SOL    HW224404   1.370   6.516   0.409
 7503SOL     OW24405   4.057  10.363   5.617
 7503SOL    HW124406   4.148  10.388   5.599
 7503SOL    HW224407   4.005  10.415   5.556
 7504SOL     OW24408  10.132  10.554   7.797
 7504SOL    HW124409  10.181  10.636   7.809
 7504SOL    HW224410  10.074  10.571   7.723
 7505SOL     OW24411   6.482   5.468   4.960
 7505SOL    HW124412   6.389   5.479   4.978
 7505SOL    HW224413   6.487   5.449   4.867
 7506SOL     OW24414   1.184   4.198  14.011
 7506SOL    HW124415   1.173   4.113  13.967
 7506SOL    HW224416   1.235   4.250  13.949
 7507SOL     OW24417   3.160   5.706   5.536
 7507SOL    HW124418   3.242   5.717   5.584
 7507SOL    HW224419   3.098   5.675   5.601
 7508SOL     OW24420  11.689  13.779   9.350
 7508SOL    HW124421  11.768  13.819   9.313
 7508SOL    HW224422  11.712  13.761   9.442
 7509SOL     OW24423   8.889  11.484   8.078
 7509SOL    HW124424   8.849  11.415   8.130
 7509SOL    HW224425   8.912  11.552   8.142
 7510SOL     OW24426   6.886   1.836   7.374
 7510SOL    HW124427   6.805   1.822   7.422
 7510SOL    HW224428   6.938   1.757   7.389
 7511SOL     OW24429  10.625   2.817   4.689
 7511SOL    HW124430  10.614   2.906   4.657
 7511SOL    HW224431  10.535   2.782   4.694
 7512SOL     OW24432   7.141  12.883  14.059
 7512SOL    HW124433   7.134  12.879  13.964
 7512SOL    HW224434   7.196  12.959  14.076
 7513SOL     OW24435   0.730   6.579   3.077
 7513SOL    HW124436   0.676   6.657   3.069
 7513SOL    HW224437   0.757   6.559   2.987
 7514SOL     OW24438   8.534   3.997  11.185
 7514SOL    HW124439   8.618   4.018  11.143
 7514SOL    HW224440   8.502   3.921  11.137
 7515SOL     OW24441   3.961   9.084   1.169
 7515SOL    HW124442   3.922   9.036   1.242
 7515SOL    HW224443   4.037   9.033   1.144
 7516SOL     OW24444  13.059   0.413  13.873
 7516SOL    HW124445  13.008   0.385  13.949
 7516SOL    HW224446  13.147   0.382  13.890
 7517SOL     OW24447   5.169  10.413   3.386
 7517SOL    HW124448   5.171  10.319   3.373
 7517SOL    HW224449   5.169  10.450   3.298
 7518SOL     OW24450   5.235  12.634  14.725
 7518SOL    HW124451   5.288  12.559  14.698
 7518SOL    HW224452   5.149  12.619  14.686
 7519SOL     OW24453   7.489  12.283   1.229
 7519SOL    HW124454   7.413  12.287   1.286
 7519SOL    HW224455   7.564  12.278   1.289
 7520SOL     OW24456   7.323   3.103  10.057
 7520SOL    HW124457   7.342   3.185  10.011
 7520SOL    HW224458   7.235   3.115  10.093
 7521SOL     OW24459   0.023  11.779   6.537
 7521SOL    HW124460  14.857  11.696   6.521
 7521SOL    HW224461   0.114  11.753   6.553
 7522SOL     OW24462   5.309  13.655   5.608
 7522SOL    HW124463   5.300  13.560   5.610
 7522SOL    HW224464   5.336  13.678   5.697
 7523SOL     OW24465  11.393   0.173   5.158
 7523SOL    HW124466  11.359   0.125   5.083
 7523SOL    HW224467  11.339   0.252   5.162
 7524SOL     OW24468   2.773   6.481   7.324
 7524SOL    HW124469   2.830   6.514   7.255
 7524SOL    HW224470   2.741   6.397   7.292
 7525SOL     OW24471   8.983  13.822   4.734
 7525SOL    HW124472   8.948  13.872   4.808
 7525SOL    HW224473   8.910  13.816   4.673
 7526SOL     OW24474   9.633  14.785   6.639
 7526SOL    HW124475   9.552  14.734   6.639
 7526SOL    HW224476   9.637  14.823   6.551
 7527SOL     OW24477   0.113  12.147   2.643
 7527SOL    HW124478   0.082  12.061   2.671
 7527SOL    HW224479   0.179  12.128   2.575
 7528SOL     OW24480  10.350   6.752   4.300
 7528SOL    HW124481  10.430   6.786   4.339
 7528SOL    HW224482  10.287   6.824   4.307
 7529SOL     OW24483   1.122   7.248   4.292
 7529SOL    HW124484   1.059   7.201   4.237
 7529SOL    HW224485   1.102   7.220   4.381
 7530SOL     OW24486   2.631  11.059   2.156
 7530SOL    HW124487   2.718  11.040   2.191
 7530SOL    HW224488   2.600  11.133   2.208
 7531SOL     OW24489   4.962   2.869   7.144
 7531SOL    HW124490   5.022   2.906   7.208
 7531SOL    HW224491   4.881   2.920   7.155
 7532SOL     OW24492   1.636   3.420   3.667
 7532SOL    HW124493   1.618   3.489   3.604
 7532SOL    HW224494   1.645   3.466   3.751
 7533SOL     OW24495   7.552   6.605   7.370
 7533SOL    HW124496   7.511   6.680   7.413
 7533SOL    HW224497   7.635   6.594   7.416
 7534SOL     OW24498  14.146   3.351  12.088
 7534SOL    HW124499  14.222   3.374  12.034
 7534SOL    HW224500  14.164   3.261  12.117
 7535SOL     OW24501   5.458   0.500   0.194
 7535SOL    HW124502   5.474   0.406   0.192
 7535SOL    HW224503   5.503   0.530   0.273
 7536SOL     OW24504   7.831   9.037   0.506
 7536SOL    HW124505   7.804   8.945   0.511
 7536SOL    HW224506   7.918   9.034   0.468
 7537SOL     OW24507   1.856  11.034   8.906
 7537SOL    HW124508   1.791  11.068   8.845
 7537SOL    HW224509   1.855  10.939   8.892
 7538SOL     OW24510   5.630  10.791   2.387
 7538SOL    HW124511   5.603  10.866   2.441
 7538SOL    HW224512   5.587  10.807   2.302
 7539SOL     OW24513   5.882  12.734   1.975
 7539SOL    HW124514   5.856  12.788   2.049
 7539SOL    HW224515   5.852  12.646   1.998
 7540SOL     OW24516   8.974   4.175   3.970
 7540SOL    HW124517   9.053   4.228   3.963
 7540SOL    HW224518   8.983   4.130   4.053
 7541SOL     OW24519   0.594   3.641  13.426
 7541SOL    HW124520   0.654   3.711  13.452
 7541SOL    HW224521   0.646   3.561  13.434
 7542SOL     OW24522   1.850   8.963   1.431
 7542SOL    HW124523   1.757   8.951   1.413
 7542SOL    HW224524   1.858   9.055   1.455
 7543SOL     OW24525   7.727  10.194   2.768
 7543SOL    HW124526   7.768  10.270   2.809
 7543SOL    HW224527   7.644  10.226   2.733
 7544SOL     OW24528  13.299  11.184   8.867
 7544SOL    HW124529  13.367  11.184   8.935
 7544SOL    HW224530  13.341  11.146   8.791
 7545SOL     OW24531  10.918   4.316   1.709
 7545SOL    HW124532  10.834   4.270   1.703
 7545SOL    HW224533  10.933   4.326   1.803
 7546SOL     OW24534   2.960  12.080   8.611
 7546SOL    HW124535   2.952  12.142   8.682
 7546SOL    HW224536   2.871  12.052   8.593
 7547SOL     OW24537   0.958  11.670   6.620
 7547SOL    HW124538   0.887  11.677   6.556
 7547SOL    HW224539   0.923  11.609   6.686
 7548SOL     OW24540   0.436  10.451  14.579
 7548SOL    HW124541   0.501  10.436  14.510
 7548SOL    HW224542   0.359  10.402  14.552
 7549SOL     OW24543  10.941  13.139   0.272
 7549SOL    HW124544  10.937  13.149   0.367
 7549SOL    HW224545  11.022  13.182   0.246
 7550SOL     OW24546  12.811   9.054   3.462
 7550SOL    HW124547  12.843   8.966   3.482
 7550SOL    HW224548  12.771   9.046   3.376
 7551SOL     OW24549   5.687  12.163   0.337
 7551SOL    HW124550   5.722  12.230   0.278
 7551SOL    HW224551   5.599  12.194   0.358
 7552SOL     OW24552  11.307   1.507   7.358
 7552SOL    HW124553  11.252   1.585   7.353
 7552SOL    HW224554  11.251   1.441   7.399
 7553SOL     OW24555   5.480   5.428   1.193
 7553SOL    HW124556   5.440   5.508   1.226
 7553SOL    HW224557   5.560   5.419   1.244
 7554SOL     OW24558   5.552  12.292   4.934
 7554SOL    HW124559   5.612  12.367   4.935
 7554SOL    HW224560   5.465  12.331   4.935
 7555SOL     OW24561   4.661   6.575  10.908
 7555SOL    HW124562   4.571   6.559  10.939
 7555SOL    HW224563   4.660   6.666  10.879
 7556SOL     OW24564   3.750  13.085  11.735
 7556SOL    HW124565   3.685  13.152  11.759
 7556SOL    HW224566   3.777  13.047  11.818
 7557SOL     OW24567   0.140   3.726   5.142
 7557SOL    HW124568   0.235   3.719   5.149
 7557SOL    HW224569   0.120   3.698   5.053
 7558SOL     OW24570  14.237   2.689  10.911
 7558SOL    HW124571  14.315   2.681  10.966
 7558SOL    HW224572  14.165   2.662  10.967
 7559SOL     OW24573  10.599   0.451  13.340
 7559SOL    HW124574  10.673   0.414  13.291
 7559SOL    HW224575  10.637   0.524  13.389
 7560SOL     OW24576   4.457   4.413  13.640
 7560SOL    HW124577   4.496   4.373  13.562
 7560SOL    HW224578   4.524   4.405  13.707
 7561SOL     OW24579   7.211  13.702  13.642
 7561SOL    HW124580   7.118  13.726  13.642
 7561SOL    HW224581   7.256  13.782  13.670
 7562SOL     OW24582   4.001   5.684  11.358
 7562SOL    HW124583   3.910   5.707  11.342
 7562SOL    HW224584   4.051   5.750  11.309
 7563SOL     OW24585   5.585   6.778  11.831
 7563SOL    HW124586   5.661   6.791  11.773
 7563SOL    HW224587   5.526   6.722  11.780
 7564SOL     OW24588   2.640   5.695   5.626
 7564SOL    HW124589   2.565   5.724   5.574
 7564SOL    HW224590   2.694   5.646   5.565
 7565SOL     OW24591   0.452  12.377   1.469
 7565SOL    HW124592   0.537  12.333   1.466
 7565SOL    HW224593   0.444  12.408   1.560
 7566SOL     OW24594   5.285  10.127   7.897
 7566SOL    HW124595   5.355  10.180   7.936
 7566SOL    HW224596   5.326  10.043   7.876
 7567SOL     OW24597  12.160  12.303   3.563
 7567SOL    HW124598  12.179  12.371   3.627
 7567SOL    HW224599  12.240  12.296   3.511
 7568SOL     OW24600   8.414  10.523  10.159
 7568SOL    HW124601   8.397  10.599  10.215
 7568SOL    HW224602   8.328  10.500  10.123
 7569SOL     OW24603  12.072  14.142  12.394
 7569SOL    HW124604  11.984  14.164  12.425
 7569SOL    HW224605  12.092  14.059  12.436
 7570SOL     OW24606  14.340   7.830   1.732
 7570SOL    HW124607  14.347   7.742   1.696
 7570SOL    HW224608  14.318   7.885   1.657
 7571SOL     OW24609  10.517   4.530   3.247
 7571SOL    HW124610  10.535   4.609   3.197
 7571SOL    HW224611  10.435   4.496   3.210
 7572SOL     OW24612  10.159   7.045  13.716
 7572SOL    HW124613  10.108   7.125  13.706
 7572SOL    HW224614  10.108   6.978  13.671
 7573SOL     OW24615  14.135   4.153   3.514
 7573SOL    HW124616  14.152   4.126   3.424
 7573SOL    HW224617  14.061   4.099   3.542
 7574SOL     OW24618   5.205  13.327   6.630
 7574SOL    HW124619   5.282  13.310   6.575
 7574SOL    HW224620   5.239  13.332   6.719
 7575SOL     OW24621  12.731   4.861   6.495
 7575SOL    HW124622  12.709   4.864   6.402
 7575SOL    HW224623  12.777   4.778   6.505
 7576SOL     OW24624   5.952   3.943   9.959
 7576SOL    HW124625   5.992   4.029   9.943
 7576SOL    HW224626   5.979   3.889   9.885
 7577SOL     OW24627   3.811  14.510   8.725
 7577SOL    HW124628   3.880  14.531   8.663
 7577SOL    HW224629   3.734  14.556   8.693
 7578SOL     OW24630   7.896   9.516  11.144
 7578SOL    HW124631   7.968   9.578  11.131
 7578SOL    HW224632   7.917   9.473  11.226
 7579SOL     OW24633   6.655   5.792  14.648
 7579SOL    HW124634   6.647   5.850  14.723
 7579SOL    HW224635   6.599   5.832  14.581
 7580SOL     OW24636   6.333  10.370   5.823
 7580SOL    HW124637   6.374  10.451   5.792
 7580SOL    HW224638   6.244  10.374   5.787
 7581SOL     OW24639   9.278   3.718   4.613
 7581SOL    HW124640   9.231   3.660   4.553
 7581SOL    HW224641   9.209   3.768   4.657
 7582SOL     OW24642   4.143   6.544   8.462
 7582SOL    HW124643   4.162   6.451   8.454
 7582SOL    HW224644   4.221   6.587   8.427
 7583SOL     OW24645  13.033  12.306  12.415
 7583SOL    HW124646  13.029  12.401  12.416
 7583SOL    HW224647  13.075  12.284  12.332
 7584SOL     OW24648   1.045  10.164   6.424
 7584SOL    HW124649   0.951  10.148   6.437
 7584SOL    HW224650   1.078  10.190   6.510
 7585SOL     OW24651  14.158   3.138   6.829
 7585SOL    HW124652  14.104   3.152   6.751
 7585SOL    HW224653  14.114   3.187   6.898
 7586SOL     OW24654   0.898  13.876   8.157
 7586SOL    HW124655   0.931  13.793   8.192
 7586SOL    HW224656   0.865  13.923   8.234
 7587SOL     OW24657  14.067   0.890   7.424
 7587SOL    HW124658  14.136   0.824   7.414
 7587SOL    HW224659  14.084   0.954   7.354
 7588SOL     OW24660   6.656  11.653  11.418
 7588SOL    HW124661   6.676  11.579  11.476
 7588SOL    HW224662   6.566  11.638  11.390
 7589SOL     OW24663  12.296   3.370   9.422
 7589SOL    HW124664  12.245   3.384   9.342
 7589SOL    HW224665  12.231   3.368   9.492
 7590SOL     OW24666   8.772  13.712  11.789
 7590SOL    HW124667   8.812  13.625  11.785
 7590SOL    HW224668   8.807  13.750  11.869
 7591SOL     OW24669   7.709   8.227   9.338
 7591SOL    HW124670   7.804   8.232   9.342
 7591SOL    HW224671   7.681   8.221   9.430
 7592SOL     OW24672   2.685   3.916  11.771
 7592SOL    HW124673   2.634   3.854  11.822
 7592SOL    HW224674   2.749   3.952  11.832
 7593SOL     OW24675   9.564   2.088  11.436
 7593SOL    HW124676   9.546   2.060  11.525
 7593SOL    HW224677   9.656   2.115  11.438
 7594SOL     OW24678   6.238   7.047  14.211
 7594SOL    HW124679   6.154   7.093  14.210
 7594SOL    HW224680   6.223   6.969  14.264
 7595SOL     OW24681  10.718  11.073   8.419
 7595SOL    HW124682  10.754  11.082   8.507
 7595SOL    HW224683  10.762  10.996   8.382
 7596SOL     OW24684  14.442   7.145   1.333
 7596SOL    HW124685  14.352   7.118   1.313
 7596SOL    HW224686  14.497   7.075   1.296
 7597SOL     OW24687  10.284  14.423   7.266
 7597SOL    HW124688  10.200  14.391   7.233
 7597SOL    HW224689  10.350  14.375   7.216
 7598SOL     OW24690  14.230   9.506   2.162
 7598SOL    HW124691  14.255   9.581   2.216
 7598SOL    HW224692  14.313   9.475   2.125
 7599SOL     OW24693   2.537  10.084   0.778
 7599SOL    HW124694   2.572  10.119   0.696
 7599SOL    HW224695   2.565   9.993   0.781
 7600SOL     OW24696   1.209  13.551   0.841
 7600SOL    HW124697   1.182  13.633   0.881
 7600SOL    HW224698   1.206  13.487   0.913
 7601SOL     OW24699  14.011   0.123   1.446
 7601SOL    HW124700  13.946   0.170   1.497
 7601SOL    HW224701  13.976   0.122   1.356
 7602SOL     OW24702   1.130   8.711  11.693
 7602SOL    HW124703   1.108   8.631  11.645
 7602SOL    HW224704   1.156   8.680  11.780
 7603SOL     OW24705  11.882   9.630   4.722
 7603SOL    HW124706  11.904   9.588   4.805
 7603SOL    HW224707  11.947   9.700   4.713
 7604SOL     OW24708   7.329   1.946   7.667
 7604SOL    HW124709   7.246   1.986   7.691
 7604SOL    HW224710   7.322   1.855   7.698
 7605SOL     OW24711  11.674   5.541   3.271
 7605SOL    HW124712  11.767   5.536   3.292
 7605SOL    HW224713  11.634   5.585   3.346
 7606SOL     OW24714   3.507   1.175  13.363
 7606SOL    HW124715   3.423   1.220  13.356
 7606SOL    HW224716   3.500   1.101  13.303
 7607SOL     OW24717  14.313   4.481   3.096
 7607SOL    HW124718  14.338   4.478   3.188
 7607SOL    HW224719  14.224   4.446   3.093
 7608SOL     OW24720  10.310   4.266   1.120
 7608SOL    HW124721  10.304   4.339   1.059
 7608SOL    HW224722  10.385   4.215   1.090
 7609SOL     OW24723  11.206   5.185  11.622
 7609SOL    HW124724  11.203   5.093  11.648
 7609SOL    HW224725  11.257   5.228  11.690
 7610SOL     OW24726  14.587   4.177   5.094
 7610SOL    HW124727  14.492   4.163   5.092
 7610SOL    HW224728  14.624   4.088   5.098
 7611SOL     OW24729   0.749  14.096  13.324
 7611SOL    HW124730   0.736  14.032  13.253
 7611SOL    HW224731   0.739  14.044  13.404
 7612SOL     OW24732   0.382   6.962  11.940
 7612SOL    HW124733   0.394   7.044  11.893
 7612SOL    HW224734   0.342   6.988  12.024
 7613SOL     OW24735   6.881  12.981  13.661
 7613SOL    HW124736   6.793  13.012  13.640
 7613SOL    HW224737   6.921  12.964  13.575
 7614SOL     OW24738  12.411   7.372   2.642
 7614SOL    HW124739  12.402   7.345   2.551
 7614SOL    HW224740  12.457   7.456   2.638
 7615SOL     OW24741  12.131   6.804   4.372
 7615SOL    HW124742  12.066   6.869   4.347
 7615SOL    HW224743  12.163   6.834   4.457
 7616SOL     OW24744  14.421  11.706   7.304
 7616SOL    HW124745  14.446  11.699   7.396
 7616SOL    HW224746  14.451  11.623   7.265
 7617SOL     OW24747   6.592   1.665  12.889
 7617SOL    HW124748   6.547   1.745  12.916
 7617SOL    HW224749   6.638   1.688  12.808
 7618SOL     OW24750   3.180  11.888  11.589
 7618SOL    HW124751   3.259  11.858  11.544
 7618SOL    HW224752   3.140  11.950  11.529
 7619SOL     OW24753   2.728  12.008  12.565
 7619SOL    HW124754   2.768  11.928  12.531
 7619SOL    HW224755   2.642  12.012  12.522
 7620SOL     OW24756  14.423  10.299   7.879
 7620SOL    HW124757  14.379  10.306   7.794
 7620SOL    HW224758  14.510  10.335   7.864
 7621SOL     OW24759  12.202   7.865  12.552
 7621SOL    HW124760  12.199   7.770  12.561
 7621SOL    HW224761  12.292   7.883  12.525
 7622SOL     OW24762   0.490   2.850  12.789
 7622SOL    HW124763   0.448   2.858  12.704
 7622SOL    HW224764   0.425   2.809  12.845
 7623SOL     OW24765   7.562   4.025   3.792
 7623SOL    HW124766   7.625   3.957   3.812
 7623SOL    HW224767   7.582   4.051   3.702
 7624SOL     OW24768  13.971  10.506  11.484
 7624SOL    HW124769  13.990  10.416  11.512
 7624SOL    HW224770  13.899  10.497  11.422
 7625SOL     OW24771   5.315   8.487  11.986
 7625SOL    HW124772   5.410   8.493  11.972
 7625SOL    HW224773   5.277   8.508  11.901
 7626SOL     OW24774   9.567   3.998  14.345
 7626SOL    HW124775   9.553   4.066  14.412
 7626SOL    HW224776   9.575   3.917  14.395
 7627SOL     OW24777   9.586  10.378   0.976
 7627SOL    HW124778   9.580  10.287   0.945
 7627SOL    HW224779   9.641  10.422   0.911
 7628SOL     OW24780  13.035  12.476  10.773
 7628SOL    HW124781  13.025  12.570  10.786
 7628SOL    HW224782  12.960  12.452  10.719
 7629SOL     OW24783  12.315  10.676   2.327
 7629SOL    HW124784  12.381  10.626   2.374
 7629SOL    HW224785  12.346  10.677   2.236
 7630SOL     OW24786   3.768   8.071   0.024
 7630SOL    HW124787   3.760   8.067   0.120
 7630SOL    HW224788   3.711   8.001  14.872
 7631SOL     OW24789  11.100  12.324   3.742
 7631SOL    HW124790  11.034  12.271   3.786
 7631SOL    HW224791  11.128  12.269   3.668
 7632SOL     OW24792   8.631  10.891   7.248
 7632SOL    HW124793   8.674  10.808   7.231
 7632SOL    HW224794   8.702  10.952   7.269
 7633SOL     OW24795   4.062   3.921   9.537
 7633SOL    HW124796   4.068   3.826   9.545
 7633SOL    HW224797   4.107   3.942   9.456
 7634SOL     OW24798  10.463   4.840   7.712
 7634SOL    HW124799  10.550   4.811   7.738
 7634SOL    HW224800  10.451   4.923   7.758
 7635SOL     OW24801   8.153   0.877   4.979
 7635SOL    HW124802   8.221   0.829   4.931
 7635SOL    HW224803   8.191   0.963   4.996
 7636SOL     OW24804   6.745   4.409   4.790
 7636SOL    HW124805   6.745   4.368   4.704
 7636SOL    HW224806   6.835   4.438   4.803
 7637SOL     OW24807   5.909   1.969   4.400
 7637SOL    HW124808   5.852   2.045   4.384
 7637SOL    HW224809   5.962   1.962   4.320
 7638SOL     OW24810   0.723  14.005   1.002
 7638SOL    HW124811   0.650  14.031   1.058
 7638SOL    HW224812   0.682  13.971   0.923
 7639SOL     OW24813   9.416  10.333  12.243
 7639SOL    HW124814   9.347  10.345  12.308
 7639SOL    HW224815   9.370  10.335  12.159
 7640SOL     OW24816  13.674   5.269  14.703
 7640SOL    HW124817  13.704   5.348  14.659
 7640SOL    HW224818  13.583   5.288  14.727
 7641SOL     OW24819  10.685   3.280  11.167
 7641SOL    HW124820  10.602   3.266  11.212
 7641SOL    HW224821  10.686   3.374  11.148
 7642SOL     OW24822  10.557   6.205   4.482
 7642SOL    HW124823  10.645   6.190   4.446
 7642SOL    HW224824  10.564   6.286   4.531
 7643SOL     OW24825  12.498   2.972  13.062
 7643SOL    HW124826  12.509   2.985  13.156
 7643SOL    HW224827  12.586   2.975  13.026
 7644SOL     OW24828  11.448   4.194   9.522
 7644SOL    HW124829  11.540   4.212   9.505
 7644SOL    HW224830  11.401   4.240   9.453
 7645SOL     OW24831   7.191   2.749   6.901
 7645SOL    HW124832   7.207   2.799   6.821
 7645SOL    HW224833   7.262   2.686   6.905
 7646SOL     OW24834   6.003   4.581  13.433
 7646SOL    HW124835   6.032   4.634  13.508
 7646SOL    HW224836   5.928   4.629  13.398
 7647SOL     OW24837   7.158  12.118   4.532
 7647SOL    HW124838   7.128  12.150   4.617
 7647SOL    HW224839   7.206  12.038   4.553
 7648SOL     OW24840  14.532   8.966  14.743
 7648SOL    HW124841  14.448   8.982  14.787
 7648SOL    HW224842  14.598   8.993  14.806
 7649SOL     OW24843   0.821  10.093  12.564
 7649SOL    HW124844   0.852  10.086  12.654
 7649SOL    HW224845   0.880  10.156  12.523
 7650SOL     OW24846   6.590   7.229   4.065
 7650SOL    HW124847   6.557   7.318   4.053
 7650SOL    HW224848   6.677   7.230   4.025
 7651SOL     OW24849  13.003   1.420  10.183
 7651SOL    HW124850  13.001   1.495  10.124
 7651SOL    HW224851  12.935   1.362  10.149
 7652SOL     OW24852  12.659   2.332   0.784
 7652SOL    HW124853  12.637   2.397   0.718
 7652SOL    HW224854  12.611   2.359   0.862
 7653SOL     OW24855  11.508   6.754   5.581
 7653SOL    HW124856  11.588   6.752   5.635
 7653SOL    HW224857  11.532   6.706   5.502
 7654SOL     OW24858   6.259  14.812   8.832
 7654SOL    HW124859   6.171  14.790   8.862
 7654SOL    HW224860   6.318  14.757   8.884
 7655SOL     OW24861   5.517   8.925   0.258
 7655SOL    HW124862   5.551   8.905   0.345
 7655SOL    HW224863   5.554   8.858   0.201
 7656SOL     OW24864  11.000   9.551   5.785
 7656SOL    HW124865  11.001   9.615   5.856
 7656SOL    HW224866  10.958   9.474   5.824
 7657SOL     OW24867  12.637  12.709  12.633
 7657SOL    HW124868  12.655  12.740  12.721
 7657SOL    HW224869  12.651  12.614  12.637
 7658SOL     OW24870  14.566  12.986   8.129
 7658SOL    HW124871  14.522  13.002   8.213
 7658SOL    HW224872  14.581  12.892   8.128
 7659SOL     OW24873   6.300   9.268  11.264
 7659SOL    HW124874   6.273   9.184  11.302
 7659SOL    HW224875   6.241   9.281  11.190
 7660SOL     OW24876   8.260   0.470   0.106
 7660SOL    HW124877   8.299   0.526   0.172
 7660SOL    HW224878   8.326   0.402   0.089
 7661SOL     OW24879  12.583   2.821   7.748
 7661SOL    HW124880  12.547   2.749   7.800
 7661SOL    HW224881  12.523   2.828   7.674
 7662SOL     OW24882   7.501   3.753   0.961
 7662SOL    HW124883   7.516   3.787   1.050
 7662SOL    HW224884   7.440   3.681   0.974
 7663SOL     OW24885  11.292   1.481   5.949
 7663SOL    HW124886  11.385   1.461   5.953
 7663SOL    HW224887  11.260   1.467   6.039
 7664SOL     OW24888   4.763   5.338   3.200
 7664SOL    HW124889   4.800   5.419   3.236
 7664SOL    HW224890   4.795   5.334   3.110
 7665SOL     OW24891  14.153   3.373   9.744
 7665SOL    HW124892  14.169   3.296   9.690
 7665SOL    HW224893  14.091   3.425   9.693
 7666SOL     OW24894   0.755  11.993  12.896
 7666SOL    HW124895   0.702  11.924  12.855
 7666SOL    HW224896   0.698  12.070  12.898
 7667SOL     OW24897  10.799  14.088   3.745
 7667SOL    HW124898  10.888  14.081   3.782
 7667SOL    HW224899  10.795  14.018   3.680
 7668SOL     OW24900   4.170  10.314   1.563
 7668SOL    HW124901   4.138  10.349   1.480
 7668SOL    HW224902   4.180  10.391   1.619
 7669SOL     OW24903  10.517   9.007  14.732
 7669SOL    HW124904  10.427   8.985  14.757
 7669SOL    HW224905  10.554   8.925  14.700
 7670SOL     OW24906  13.795   3.600  11.363
 7670SOL    HW124907  13.767   3.675  11.311
 7670SOL    HW224908  13.838   3.541  11.301
 7671SOL     OW24909   5.983   1.492  11.298
 7671SOL    HW124910   5.913   1.515  11.360
 7671SOL    HW224911   6.026   1.576  11.280
 7672SOL     OW24912   4.751  11.208  11.419
 7672SOL    HW124913   4.680  11.221  11.481
 7672SOL    HW224914   4.715  11.232  11.334
 7673SOL     OW24915   5.520   7.157  11.093
 7673SOL    HW124916   5.564   7.190  11.015
 7673SOL    HW224917   5.476   7.234  11.130
 7674SOL     OW24918   4.926   8.548  12.408
 7674SOL    HW124919   4.923   8.563  12.502
 7674SOL    HW224920   4.889   8.461  12.397
 7675SOL     OW24921   0.036  12.282   6.894
 7675SOL    HW124922   0.061  12.368   6.928
 7675SOL    HW224923  14.834  12.261   6.940
 7676SOL     OW24924  14.758   5.451   8.203
 7676SOL    HW124925  14.781   5.363   8.232
 7676SOL    HW224926  14.687   5.478   8.261
 7677SOL     OW24927   6.255  14.585  13.657
 7677SOL    HW124928   6.225  14.527  13.727
 7677SOL    HW224929   6.345  14.606  13.679
 7678SOL     OW24930  12.689   3.575   1.947
 7678SOL    HW124931  12.770   3.547   1.989
 7678SOL    HW224932  12.685   3.524   1.866
 7679SOL     OW24933   9.826   4.379   1.117
 7679SOL    HW124934   9.810   4.285   1.128
 7679SOL    HW224935   9.895   4.384   1.050
 7680SOL     OW24936   5.465   3.756  13.225
 7680SOL    HW124937   5.505   3.677  13.262
 7680SOL    HW224938   5.483   3.751  13.132
 7681SOL     OW24939   9.763  11.662   8.157
 7681SOL    HW124940   9.678  11.704   8.142
 7681SOL    HW224941   9.749  11.608   8.235
 7682SOL     OW24942   9.848   7.320   6.610
 7682SOL    HW124943   9.804   7.401   6.635
 7682SOL    HW224944   9.817   7.256   6.674
 7683SOL     OW24945   8.259   2.785  10.059
 7683SOL    HW124946   8.289   2.774  10.150
 7683SOL    HW224947   8.302   2.714  10.011
 7684SOL     OW24948   8.612   3.667   5.665
 7684SOL    HW124949   8.531   3.718   5.660
 7684SOL    HW224950   8.610   3.627   5.752
 7685SOL     OW24951  10.076  10.492   6.120
 7685SOL    HW124952  10.137  10.431   6.162
 7685SOL    HW224953  10.002  10.498   6.181
 7686SOL     OW24954  11.253  14.302   5.070
 7686SOL    HW124955  11.208  14.379   5.036
 7686SOL    HW224956  11.252  14.314   5.165
 7687SOL     OW24957  11.565  13.870  12.392
 7687SOL    HW124958  11.470  13.860  12.406
 7687SOL    HW224959  11.600  13.782  12.406
 7688SOL     OW24960   6.908   0.566   5.155
 7688SOL    HW124961   6.870   0.482   5.130
 7688SOL    HW224962   6.940   0.603   5.073
 7689SOL     OW24963  12.626   2.840   4.413
 7689SOL    HW124964  12.617   2.935   4.406
 7689SOL    HW224965  12.694   2.827   4.479
 7690SOL     OW24966  10.203   2.879   0.805
 7690SOL    HW124967  10.162   2.795   0.826
 7690SOL    HW224968  10.234   2.913   0.889
 7691SOL     OW24969  14.756  11.354   0.131
 7691SOL    HW124970  14.830  11.411   0.109
 7691SOL    HW224971  14.698  11.409   0.184
 7692SOL     OW24972   9.547  13.316   7.482
 7692SOL    HW124973   9.624  13.263   7.464
 7692SOL    HW224974   9.475  13.252   7.485
 7693SOL     OW24975  13.468   5.758   5.146
 7693SOL    HW124976  13.537   5.727   5.206
 7693SOL    HW224977  13.473   5.698   5.072
 7694SOL     OW24978   5.459  11.409   6.646
 7694SOL    HW124979   5.389  11.359   6.687
 7694SOL    HW224980   5.537  11.390   6.699
 7695SOL     OW24981   3.571   0.261  11.028
 7695SOL    HW124982   3.542   0.289  11.115
 7695SOL    HW224983   3.654   0.216  11.043
 7696SOL     OW24984  12.079  14.358   5.172
 7696SOL    HW124985  12.169  14.379   5.146
 7696SOL    HW224986  12.078  14.373   5.267
 7697SOL     OW24987   4.839   4.167   3.482
 7697SOL    HW124988   4.915   4.207   3.526
 7697SOL    HW224989   4.810   4.234   3.421
 7698SOL     OW24990   0.307   5.995   2.674
 7698SOL    HW124991   0.286   5.988   2.767
 7698SOL    HW224992   0.376   5.930   2.659
 7699SOL     OW24993   7.164  12.584   5.240
 7699SOL    HW124994   7.122  12.511   5.285
 7699SOL    HW224995   7.160  12.562   5.147
 7700SOL     OW24996   9.236  10.789   8.947
 7700SOL    HW124997   9.298  10.830   8.886
 7700SOL    HW224998   9.252  10.833   9.030
 7701SOL     OW24999   7.402   9.786   6.592
 7701SOL    HW125000   7.323   9.751   6.551
 7701SOL    HW225001   7.468   9.718   6.580
 7702SOL     OW25002   0.682   4.409   7.779
 7702SOL    HW125003   0.600   4.385   7.736
 7702SOL    HW225004   0.730   4.459   7.713
 7703SOL     OW25005  13.961   3.623   5.837
 7703SOL    HW125006  13.962   3.592   5.928
 7703SOL    HW225007  13.929   3.713   5.842
 7704SOL     OW25008   4.104   3.098   1.746
 7704SOL    HW125009   4.082   3.076   1.836
 7704SOL    HW225010   4.036   3.161   1.720
 7705SOL     OW25011  13.027   3.897   0.723
 7705SOL    HW125012  13.085   3.858   0.788
 7705SOL    HW225013  13.084   3.945   0.664
 7706SOL     OW25014  14.611   1.340  11.692
 7706SOL    HW125015  14.677   1.315  11.628
 7706SOL    HW225016  14.631   1.288  11.770
 7707SOL     OW25017   1.980  14.645   5.112
 7707SOL    HW125018   1.977  14.677   5.202
 7707SOL    HW225019   1.966  14.724   5.059
 7708SOL     OW25020   6.486   2.268  11.090
 7708SOL    HW125021   6.498   2.261  11.184
 7708SOL    HW225022   6.456   2.358  11.076
 7709SOL     OW25023   0.729  11.275   9.058
 7709SOL    HW125024   0.714  11.316   8.973
 7709SOL    HW225025   0.660  11.209   9.065
 7710SOL     OW25026   7.230   9.092   2.794
 7710SOL    HW125027   7.230   9.012   2.743
 7710SOL    HW225028   7.141   9.100   2.827
 7711SOL     OW25029  12.558   7.272   2.047
 7711SOL    HW125030  12.524   7.236   1.964
 7711SOL    HW225031  12.627   7.332   2.020
 7712SOL     OW25032  10.269   4.298   5.605
 7712SOL    HW125033  10.207   4.238   5.564
 7712SOL    HW225034  10.324   4.328   5.533
 7713SOL     OW25035   5.907  14.360   5.351
 7713SOL    HW125036   5.988  14.366   5.300
 7713SOL    HW225037   5.886  14.267   5.351
 7714SOL     OW25038  12.316   8.215   0.654
 7714SOL    HW125039  12.401   8.235   0.694
 7714SOL    HW225040  12.284   8.139   0.702
 7715SOL     OW25041   5.316   6.799  10.874
 7715SOL    HW125042   5.239   6.792  10.932
 7715SOL    HW225043   5.297   6.874  10.818
 7716SOL     OW25044   4.969  12.283   9.859
 7716SOL    HW125045   4.885  12.253   9.824
 7716SOL    HW225046   4.945  12.353   9.920
 7717SOL     OW25047  11.269  12.939   5.626
 7717SOL    HW125048  11.227  13.024   5.608
 7717SOL    HW225049  11.359  12.950   5.595
 7718SOL     OW25050   5.514  13.053   3.927
 7718SOL    HW125051   5.501  13.089   3.839
 7718SOL    HW225052   5.573  13.115   3.969
 7719SOL     OW25053   6.385   9.725   7.218
 7719SOL    HW125054   6.464   9.681   7.185
 7719SOL    HW225055   6.407   9.818   7.215
 7720SOL     OW25056   8.088   0.693  13.097
 7720SOL    HW125057   8.045   0.621  13.050
 7720SOL    HW225058   8.096   0.662  13.187
 7721SOL     OW25059  10.373  11.199  14.084
 7721SOL    HW125060  10.395  11.232  14.171
 7721SOL    HW225061  10.294  11.147  14.098
 7722SOL     OW25062   1.498  14.838   0.676
 7722SOL    HW125063   1.437  14.835   0.602
 7722SOL    HW225064   1.474  14.762   0.729
 7723SOL     OW25065   0.340  10.265   7.959
 7723SOL    HW125066   0.314  10.352   7.989
 7723SOL    HW225067   0.328  10.209   8.036
 7724SOL     OW25068   9.463  11.622   3.676
 7724SOL    HW125069   9.539  11.581   3.716
 7724SOL    HW225070   9.470  11.599   3.583
 7725SOL     OW25071  14.641   1.509   1.124
 7725SOL    HW125072  14.580   1.443   1.155
 7725SOL    HW225073  14.700   1.524   1.199
 7726SOL     OW25074   4.597  14.555   9.627
 7726SOL    HW125075   4.556  14.613   9.563
 7726SOL    HW225076   4.549  14.571   9.708
 7727SOL     OW25077  12.919  12.750   5.290
 7727SOL    HW125078  12.928  12.830   5.239
 7727SOL    HW225079  12.973  12.766   5.368
 7728SOL     OW25080  12.745  12.370   7.714
 7728SOL    HW125081  12.719  12.458   7.740
 7728SOL    HW225082  12.719  12.362   7.623
 7729SOL     OW25083   8.456   1.896   5.697
 7729SOL    HW125084   8.532   1.953   5.688
 7729SOL    HW225085   8.480   1.817   5.649
 7730SOL     OW25086   3.970  11.692   2.656
 7730SOL    HW125087   4.037  11.675   2.723
 7730SOL    HW225088   4.020  11.703   2.575
 7731SOL     OW25089   6.453   6.196  10.471
 7731SOL    HW125090   6.526   6.165  10.419
 7731SOL    HW225091   6.376   6.152  10.433
 7732SOL     OW25092   6.440   1.721   2.040
 7732SOL    HW125093   6.381   1.783   1.997
 7732SOL    HW225094   6.484   1.773   2.108
 7733SOL     OW25095  10.125   3.372  13.824
 7733SOL    HW125096  10.052   3.346  13.769
 7733SOL    HW225097  10.202   3.366  13.767
 7734SOL     OW25098  13.636   7.673   8.333
 7734SOL    HW125099  13.714   7.724   8.310
 7734SOL    HW225100  13.578   7.682   8.258
 7735SOL     OW25101   2.190  10.075   1.267
 7735SOL    HW125102   2.143   9.997   1.298
 7735SOL    HW225103   2.126  10.121   1.213
 7736SOL     OW25104  13.032  10.325   0.590
 7736SOL    HW125105  12.956  10.267   0.584
 7736SOL    HW225106  13.064  10.313   0.679
 7737SOL     OW25107  12.747   5.768  11.930
 7737SOL    HW125108  12.768   5.699  11.993
 7737SOL    HW225109  12.731   5.721  11.848
 7738SOL     OW25110  14.868  14.690  13.542
 7738SOL    HW125111  14.784  14.667  13.502
 7738SOL    HW225112   0.017  14.610  13.586
 7739SOL     OW25113   8.718  12.789  10.596
 7739SOL    HW125114   8.672  12.827  10.522
 7739SOL    HW225115   8.744  12.702  10.565
 7740SOL     OW25116  14.066   2.398  14.766
 7740SOL    HW125117  14.144   2.374  14.817
 7740SOL    HW225118  14.048   2.321  14.712
 7741SOL     OW25119   9.292  11.774  12.101
 7741SOL    HW125120   9.230  11.790  12.029
 7741SOL    HW225121   9.317  11.862  12.129
 7742SOL     OW25122   8.894   2.139  11.911
 7742SOL    HW125123   8.951   2.091  11.972
 7742SOL    HW225124   8.877   2.077  11.840
 7743SOL     OW25125   9.008   9.420   1.195
 7743SOL    HW125126   9.006   9.516   1.195
 7743SOL    HW225127   8.922   9.394   1.162
 7744SOL     OW25128   7.864   2.718   8.721
 7744SOL    HW125129   7.814   2.787   8.678
 7744SOL    HW225130   7.803   2.645   8.729
 7745SOL     OW25131   2.441  12.355  14.756
 7745SOL    HW125132   2.528  12.346  14.717
 7745SOL    HW225133   2.382  12.309  14.697
 7746SOL     OW25134   1.404   8.661  14.576
 7746SOL    HW125135   1.384   8.753  14.593
 7746SOL    HW225136   1.428   8.625  14.662
 7747SOL     OW25137   8.307  12.477   6.779
 7747SOL    HW125138   8.233  12.522   6.738
 7747SOL    HW225139   8.367  12.547   6.804
 7748SOL     OW25140  13.176   4.346   8.354
 7748SOL    HW125141  13.262   4.318   8.386
 7748SOL    HW225142  13.150   4.415   8.414
 7749SOL     OW25143  12.058  10.797   3.912
 7749SOL    HW125144  11.978  10.831   3.873
 7749SOL    HW225145  12.050  10.702   3.904
 7750SOL     OW25146   9.629  14.405   3.571
 7750SOL    HW125147   9.703  14.465   3.564
 7750SOL    HW225148   9.557  14.448   3.524
 7751SOL     OW25149  11.451   3.714  12.208
 7751SOL    HW125150  11.383   3.774  12.177
 7751SOL    HW225151  11.406   3.656  12.270
 7752SOL     OW25152   0.899   5.988   8.636
 7752SOL    HW125153   0.823   5.970   8.581
 7752SOL    HW225154   0.968   6.014   8.575
 7753SOL     OW25155  10.761   8.314   4.959
 7753SOL    HW125156  10.668   8.291   4.961
 7753SOL    HW225157  10.786   8.317   5.051
 7754SOL     OW25158  12.915  11.769   3.445
 7754SOL    HW125159  12.929  11.674   3.453
 7754SOL    HW225160  12.972  11.795   3.372
 7755SOL     OW25161   1.922   2.718   9.261
 7755SOL    HW125162   1.964   2.632   9.259
 7755SOL    HW225163   1.994   2.780   9.264
 7756SOL     OW25164   1.802   5.357   3.148
 7756SOL    HW125165   1.816   5.378   3.240
 7756SOL    HW225166   1.832   5.435   3.101
 7757SOL     OW25167   7.220   0.910   6.873
 7757SOL    HW125168   7.184   0.918   6.785
 7757SOL    HW225169   7.283   0.982   6.880
 7758SOL     OW25170   8.774   5.760   5.170
 7758SOL    HW125171   8.814   5.674   5.161
 7758SOL    HW225172   8.744   5.782   5.082
 7759SOL     OW25173   6.754   7.717   0.108
 7759SOL    HW125174   6.775   7.634   0.149
 7759SOL    HW225175   6.796   7.712   0.022
 7760SOL     OW25176   1.707   3.219  12.894
 7760SOL    HW125177   1.654   3.299  12.891
 7760SOL    HW225178   1.708   3.188  12.803
 7761SOL     OW25179   5.143   0.074   1.715
 7761SOL    HW125180   5.167  14.861   1.726
 7761SOL    HW225181   5.220   0.114   1.675
 7762SOL     OW25182   6.293  11.670  11.047
 7762SOL    HW125183   6.272  11.600  10.986
 7762SOL    HW225184   6.386  11.657  11.067
 7763SOL     OW25185   3.401   8.280   3.128
 7763SOL    HW125186   3.348   8.303   3.204
 7763SOL    HW225187   3.487   8.260   3.164
 7764SOL     OW25188  10.223   6.848   2.250
 7764SOL    HW125189  10.223   6.754   2.236
 7764SOL    HW225190  10.301   6.880   2.203
 7765SOL     OW25191   6.773   3.410   3.102
 7765SOL    HW125192   6.714   3.404   3.027
 7765SOL    HW225193   6.851   3.453   3.067
 7766SOL     OW25194   5.333  14.406   1.980
 7766SOL    HW125195   5.334  14.502   1.986
 7766SOL    HW225196   5.243  14.384   1.956
 7767SOL     OW25197   3.636   6.190   7.757
 7767SOL    HW125198   3.693   6.246   7.810
 7767SOL    HW225199   3.693   6.119   7.728
 7768SOL     OW25200   1.718   6.487   8.782
 7768SOL    HW125201   1.666   6.436   8.844
 7768SOL    HW225202   1.683   6.462   8.696
 7769SOL     OW25203  14.339   4.035   0.183
 7769SOL    HW125204  14.248   4.005   0.183
 7769SOL    HW225205  14.361   4.045   0.090
 7770SOL     OW25206  12.857  13.835  13.499
 7770SOL    HW125207  12.835  13.926  13.481
 7770SOL    HW225208  12.867  13.831  13.594
 7771SOL     OW25209   0.733   9.279  10.408
 7771SOL    HW125210   0.747   9.219  10.482
 7771SOL    HW225211   0.640   9.298  10.410
 7772SOL     OW25212   7.572   7.007  13.195
 7772SOL    HW125213   7.569   6.912  13.187
 7772SOL    HW225214   7.486   7.032  13.228
 7773SOL     OW25215  12.263  13.392  14.541
 7773SOL    HW125216  12.319  13.317  14.521
 7773SOL    HW225217  12.222  13.414  14.457
 7774SOL     OW25218   3.236  11.617  12.256
 7774SOL    HW125219   3.296  11.690  12.245
 7774SOL    HW225220   3.230  11.605  12.351
 7775SOL     OW25221   8.932  11.229   5.226
 7775SOL    HW125222   8.851  11.245   5.178
 7775SOL    HW225223   8.904  11.198   5.312
 7776SOL     OW25224  12.468   1.180   5.037
 7776SOL    HW125225  12.557   1.151   5.055
 7776SOL    HW225226  12.428   1.109   4.986
 7777SOL     OW25227  12.078   8.365   5.830
 7777SOL    HW125228  12.104   8.453   5.858
 7777SOL    HW225229  11.987   8.375   5.801
 7778SOL     OW25230   0.495   9.781   7.881
 7778SOL    HW125231   0.567   9.723   7.858
 7778SOL    HW225232   0.424   9.723   7.906
 7779SOL     OW25233   4.266  10.301   7.400
 7779SOL    HW125234   4.344  10.263   7.359
 7779SOL    HW225235   4.216  10.225   7.430
 7780SOL     OW25236  13.905   1.899   6.413
 7780SOL    HW125237  13.876   1.809   6.428
 7780SOL    HW225238  13.985   1.907   6.465
 7781SOL     OW25239   4.403   2.038   4.158
 7781SOL    HW125240   4.391   1.975   4.087
 7781SOL    HW225241   4.326   2.027   4.213
 7782SOL     OW25242   7.634  10.524   3.760
 7782SOL    HW125243   7.715  10.473   3.758
 7782SOL    HW225244   7.648  10.588   3.830
 7783SOL     OW25245   4.308  13.508  12.962
 7783SOL    HW125246   4.312  13.413  12.948
 7783SOL    HW225247   4.254  13.541  12.891
 7784SOL     OW25248  13.603  13.308  13.881
 7784SOL    HW125249  13.558  13.262  13.952
 7784SOL    HW225250  13.552  13.285  13.803
 7785SOL     OW25251   2.231   7.217  14.147
 7785SOL    HW125252   2.304   7.269  14.113
 7785SOL    HW225253   2.183   7.278  14.203
 7786SOL     OW25254  11.447   3.676   2.230
 7786SOL    HW125255  11.514   3.734   2.194
 7786SOL    HW225256  11.393   3.733   2.284
 7787SOL     OW25257   6.710   6.449   4.022
 7787SOL    HW125258   6.685   6.379   4.082
 7787SOL    HW225259   6.657   6.435   3.944
 7788SOL     OW25260   2.066   2.866   1.634
 7788SOL    HW125261   2.105   2.783   1.607
 7788SOL    HW225262   2.122   2.933   1.594
 7789SOL     OW25263  11.675   0.250  14.145
 7789SOL    HW125264  11.649   0.265  14.054
 7789SOL    HW225265  11.606   0.291  14.197
 7790SOL     OW25266   6.261   2.832   2.094
 7790SOL    HW125267   6.169   2.849   2.073
 7790SOL    HW225268   6.258   2.789   2.179
 7791SOL     OW25269   6.670  14.040   9.551
 7791SOL    HW125270   6.633  14.007   9.469
 7791SOL    HW225271   6.680  13.962   9.605
 7792SOL     OW25272  13.777   1.845   2.129
 7792SOL    HW125273  13.723   1.900   2.073
 7792SOL    HW225274  13.866   1.875   2.116
 7793SOL     OW25275  11.045   0.299   4.313
 7793SOL    HW125276  11.059   0.330   4.223
 7793SOL    HW225277  11.035   0.379   4.364
 7794SOL     OW25278  11.405  12.633   4.229
 7794SOL    HW125279  11.399  12.564   4.163
 7794SOL    HW225280  11.316  12.668   4.234
 7795SOL     OW25281  13.242   6.241   7.601
 7795SOL    HW125282  13.205   6.249   7.689
 7795SOL    HW225283  13.229   6.328   7.562
 7796SOL     OW25284   0.104   4.581  13.296
 7796SOL    HW125285   0.121   4.640  13.369
 7796SOL    HW225286   0.015   4.604  13.268
 7797SOL     OW25287   0.135   7.202   9.597
 7797SOL    HW125288   0.195   7.186   9.525
 7797SOL    HW225289   0.190   7.230   9.670
 7798SOL     OW25290   1.660  11.536   1.644
 7798SOL    HW125291   1.672  11.587   1.724
 7798SOL    HW225292   1.651  11.446   1.675
 7799SOL     OW25293   3.269   2.128   2.487
 7799SOL    HW125294   3.284   2.034   2.476
 7799SOL    HW225295   3.356   2.167   2.479
 7800SOL     OW25296   9.622   5.692   8.737
 7800SOL    HW125297   9.567   5.680   8.814
 7800SOL    HW225298   9.572   5.752   8.681
 7801SOL     OW25299  11.902   0.141  13.478
 7801SOL    HW125300  11.902   0.225  13.430
 7801SOL    HW225301  11.869   0.078  13.415
 7802SOL     OW25302   3.800   9.232   3.777
 7802SOL    HW125303   3.858   9.240   3.701
 7802SOL    HW225304   3.807   9.141   3.804
 7803SOL     OW25305   7.443  14.654   4.524
 7803SOL    HW125306   7.363  14.633   4.572
 7803SOL    HW225307   7.428  14.618   4.436
 7804SOL     OW25308  10.269  12.256   3.749
 7804SOL    HW125309  10.328  12.183   3.729
 7804SOL    HW225310  10.254  12.250   3.843
 7805SOL     OW25311   8.117  11.893  13.781
 7805SOL    HW125312   8.073  11.973  13.809
 7805SOL    HW225313   8.054  11.850  13.723
 7806SOL     OW25314  13.219   6.123   2.959
 7806SOL    HW125315  13.156   6.082   3.019
 7806SOL    HW225316  13.196   6.215   2.959
 7807SOL     OW25317  10.344  12.231  12.354
 7807SOL    HW125318  10.356  12.246  12.447
 7807SOL    HW225319  10.264  12.277  12.331
 7808SOL     OW25320   0.592   9.087  12.693
 7808SOL    HW125321   0.579   9.129  12.778
 7808SOL    HW225322   0.686   9.073  12.687
 7809SOL     OW25323  14.852   4.351  10.860
 7809SOL    HW125324  14.864   4.412  10.934
 7809SOL    HW225325  14.798   4.280  10.896
 7810SOL     OW25326   4.027  10.300   3.585
 7810SOL    HW125327   3.981  10.277   3.505
 7810SOL    HW225328   4.075  10.221   3.609
 7811SOL     OW25329   7.711   6.682   8.381
 7811SOL    HW125330   7.711   6.678   8.477
 7811SOL    HW225331   7.779   6.621   8.354
 7812SOL     OW25332   7.663  10.398  10.080
 7812SOL    HW125333   7.714  10.317  10.080
 7812SOL    HW225334   7.574  10.370  10.060
 7813SOL     OW25335   3.941  11.652   7.760
 7813SOL    HW125336   3.965  11.689   7.845
 7813SOL    HW225337   3.992  11.571   7.753
 7814SOL     OW25338   8.023  14.414   9.691
 7814SOL    HW125339   8.007  14.397   9.784
 7814SOL    HW225340   8.102  14.467   9.690
 7815SOL     OW25341  12.771   4.113   0.061
 7815SOL    HW125342  12.760   4.196   0.016
 7815SOL    HW225343  12.691   4.064   0.043
 7816SOL     OW25344  11.658  13.606   4.613
 7816SOL    HW125345  11.699  13.520   4.606
 7816SOL    HW225346  11.702  13.659   4.546
 7817SOL     OW25347  14.363  13.185   1.513
 7817SOL    HW125348  14.333  13.275   1.499
 7817SOL    HW225349  14.290  13.143   1.558
 7818SOL     OW25350   6.863   0.875   9.711
 7818SOL    HW125351   6.814   0.794   9.724
 7818SOL    HW225352   6.847   0.898   9.619
 7819SOL     OW25353   2.495   9.704   2.111
 7819SOL    HW125354   2.467   9.619   2.076
 7819SOL    HW225355   2.424   9.730   2.171
 7820SOL     OW25356  10.317  11.718  10.804
 7820SOL    HW125357  10.270  11.700  10.885
 7820SOL    HW225358  10.355  11.634  10.778
 7821SOL     OW25359  10.939  11.149   7.284
 7821SOL    HW125360  11.026  11.110   7.293
 7821SOL    HW225361  10.905  11.114   7.202
 7822SOL     OW25362   3.188   2.737  10.235
 7822SOL    HW125363   3.152   2.801  10.297
 7822SOL    HW225364   3.111   2.693  10.200
 7823SOL     OW25365   6.993  13.018   8.935
 7823SOL    HW125366   6.951  12.945   8.889
 7823SOL    HW225367   6.933  13.092   8.921
 7824SOL     OW25368   4.204   5.925   2.820
 7824SOL    HW125369   4.206   5.881   2.735
 7824SOL    HW225370   4.118   5.968   2.823
 7825SOL     OW25371   0.377   0.568   2.852
 7825SOL    HW125372   0.401   0.558   2.944
 7825SOL    HW225373   0.385   0.480   2.815
 7826SOL     OW25374   1.554  10.536  13.993
 7826SOL    HW125375   1.467  10.516  14.027
 7826SOL    HW225376   1.552  10.629  13.973
 7827SOL     OW25377   6.582  14.177  13.606
 7827SOL    HW125378   6.616  14.093  13.576
 7827SOL    HW225379   6.655  14.238  13.595
 7828SOL     OW25380   4.927   3.051   5.167
 7828SOL    HW125381   5.008   3.043   5.217
 7828SOL    HW225382   4.950   3.023   5.079
 7829SOL     OW25383   2.811   8.065   3.130
 7829SOL    HW125384   2.817   7.971   3.118
 7829SOL    HW225385   2.783   8.098   3.045
 7830SOL     OW25386  13.433   1.959   0.600
 7830SOL    HW125387  13.496   2.031   0.600
 7830SOL    HW225388  13.481   1.885   0.561
 7831SOL     OW25389  14.372   3.386   0.597
 7831SOL    HW125390  14.456   3.345   0.580
 7831SOL    HW225391  14.393   3.479   0.612
 7832SOL     OW25392   1.346   9.205   3.311
 7832SOL    HW125393   1.349   9.262   3.235
 7832SOL    HW225394   1.377   9.120   3.279
 7833SOL     OW25395   4.845   7.526   6.726
 7833SOL    HW125396   4.927   7.573   6.739
 7833SOL    HW225397   4.871   7.440   6.694
 7834SOL     OW25398   2.486  10.439  12.413
 7834SOL    HW125399   2.504  10.528  12.383
 7834SOL    HW225400   2.441  10.398  12.339
 7835SOL     OW25401   1.909  11.678   8.552
 7835SOL    HW125402   1.835  11.626   8.584
 7835SOL    HW225403   1.872  11.765   8.538
 7836SOL     OW25404   6.638   8.292  10.736
 7836SOL    HW125405   6.661   8.313  10.826
 7836SOL    HW225406   6.703   8.227  10.709
 7837SOL     OW25407  12.315   2.215  10.842
 7837SOL    HW125408  12.358   2.129  10.841
 7837SOL    HW225409  12.325   2.247  10.753
 7838SOL     OW25410   4.368  11.848   9.196
 7838SOL    HW125411   4.456  11.869   9.226
 7838SOL    HW225412   4.335  11.785   9.260
 7839SOL     OW25413   9.365  14.711   7.439
 7839SOL    HW125414   9.278  14.734   7.469
 7839SOL    HW225415   9.350  14.655   7.363
 7840SOL     OW25416   6.302   7.492  13.360
 7840SOL    HW125417   6.274   7.460  13.446
 7840SOL    HW225418   6.378   7.547  13.379
 7841SOL     OW25419  14.391  12.055   8.059
 7841SOL    HW125420  14.412  11.977   8.112
 7841SOL    HW225421  14.420  12.032   7.971
 7842SOL     OW25422   6.293   8.478   4.706
 7842SOL    HW125423   6.330   8.397   4.671
 7842SOL    HW225424   6.199   8.469   4.694
 7843SOL     OW25425   3.570  12.377   9.766
 7843SOL    HW125426   3.605  12.336   9.687
 7843SOL    HW225427   3.589  12.314   9.836
 7844SOL     OW25428   7.613   5.092   6.871
 7844SOL    HW125429   7.520   5.093   6.846
 7844SOL    HW225430   7.648   5.173   6.836
 7845SOL     OW25431   2.532   4.099   8.583
 7845SOL    HW125432   2.452   4.102   8.531
 7845SOL    HW225433   2.564   4.189   8.584
 7846SOL     OW25434   3.992   5.456  11.157
 7846SOL    HW125435   3.929   5.419  11.219
 7846SOL    HW225436   4.058   5.498  11.212
 7847SOL     OW25437  11.288   9.617  14.108
 7847SOL    HW125438  11.350   9.646  14.042
 7847SOL    HW225439  11.329   9.541  14.149
 7848SOL     OW25440   4.948  11.831   2.076
 7848SOL    HW125441   4.876  11.890   2.054
 7848SOL    HW225442   5.020  11.888   2.103
 7849SOL     OW25443  12.919   4.972  13.591
 7849SOL    HW125444  12.846   4.911  13.585
 7849SOL    HW225445  12.995   4.917  13.606
 7850SOL     OW25446   3.036  12.173   4.633
 7850SOL    HW125447   3.117  12.135   4.599
 7850SOL    HW225448   3.066  12.239   4.696
 7851SOL     OW25449  11.015   1.774  14.826
 7851SOL    HW125450  11.095   1.768  14.774
 7851SOL    HW225451  10.963   1.698  14.800
 7852SOL     OW25452   4.906  14.614   5.167
 7852SOL    HW125453   4.874  14.649   5.251
 7852SOL    HW225454   4.902  14.519   5.178
 7853SOL     OW25455   7.157  12.419   2.093
 7853SOL    HW125456   7.219  12.402   2.164
 7853SOL    HW225457   7.089  12.352   2.103
 7854SOL     OW25458   5.431   7.889   0.313
 7854SOL    HW125459   5.413   7.953   0.245
 7854SOL    HW225460   5.398   7.806   0.278
 7855SOL     OW25461   6.981  12.081  11.211
 7855SOL    HW125462   7.011  12.092  11.301
 7855SOL    HW225463   6.946  11.992  11.208
 7856SOL     OW25464  12.038   3.173   9.971
 7856SOL    HW125465  11.983   3.228   9.915
 7856SOL    HW225466  12.037   3.217  10.056
 7857SOL     OW25467  14.514  13.353   3.698
 7857SOL    HW125468  14.586  13.364   3.635
 7857SOL    HW225469  14.506  13.439   3.739
 7858SOL     OW25470   0.409   3.299  14.573
 7858SOL    HW125471   0.385   3.212  14.541
 7858SOL    HW225472   0.504   3.297  14.583
 7859SOL     OW25473   6.178   5.594   8.593
 7859SOL    HW125474   6.256   5.639   8.626
 7859SOL    HW225475   6.211   5.511   8.557
 7860SOL     OW25476   2.447   1.758   1.435
 7860SOL    HW125477   2.448   1.754   1.339
 7860SOL    HW225478   2.401   1.839   1.455
 7861SOL     OW25479   4.916   2.241  12.553
 7861SOL    HW125480   4.937   2.333  12.567
 7861SOL    HW225481   4.836   2.226  12.604
 7862SOL     OW25482   1.165   0.597   0.359
 7862SOL    HW125483   1.111   0.633   0.289
 7862SOL    HW225484   1.226   0.539   0.315
 7863SOL     OW25485   4.444   2.492   2.356
 7863SOL    HW125486   4.434   2.485   2.450
 7863SOL    HW225487   4.457   2.402   2.326
 7864SOL     OW25488   5.029  11.945   8.186
 7864SOL    HW125489   5.005  11.852   8.180
 7864SOL    HW225490   4.971  11.989   8.123
 7865SOL     OW25491  14.586  13.823  10.946
 7865SOL    HW125492  14.570  13.735  10.912
 7865SOL    HW225493  14.514  13.839  11.007
 7866SOL     OW25494   3.504   0.418  13.585
 7866SOL    HW125495   3.522   0.486  13.520
 7866SOL    HW225496   3.419   0.383  13.560
 7867SOL     OW25497   8.394   9.107   1.349
 7867SOL    HW125498   8.358   9.140   1.266
 7867SOL    HW225499   8.414   9.015   1.332
 7868SOL     OW25500   3.906   7.980   9.986
 7868SOL    HW125501   3.905   8.073  10.010
 7868SOL    HW225502   3.823   7.946  10.019
 7869SOL     OW25503  12.069   2.243  11.842
 7869SOL    HW125504  12.001   2.199  11.892
 7869SOL    HW225505  12.045   2.336  11.843
 7870SOL     OW25506   7.249  12.302   8.405
 7870SOL    HW125507   7.230  12.363   8.476
 7870SOL    HW225508   7.344  12.307   8.394
 7871SOL     OW25509   9.595   8.811   7.181
 7871SOL    HW125510   9.610   8.719   7.159
 7871SOL    HW225511   9.530   8.810   7.251
 7872SOL     OW25512   2.355   7.616   8.280
 7872SOL    HW125513   2.415   7.541   8.277
 7872SOL    HW225514   2.269   7.578   8.296
 7873SOL     OW25515   4.129   5.072   2.097
 7873SOL    HW125516   4.130   5.082   2.002
 7873SOL    HW225517   4.215   5.101   2.126
 7874SOL     OW25518   3.478   0.249   0.715
 7874SOL    HW125519   3.382   0.244   0.715
 7874SOL    HW225520   3.505   0.183   0.778
 7875SOL     OW25521   6.636   0.718   7.430
 7875SOL    HW125522   6.725   0.729   7.395
 7875SOL    HW225523   6.610   0.630   7.402
 7876SOL     OW25524  12.241   5.829  11.277
 7876SOL    HW125525  12.212   5.890  11.346
 7876SOL    HW225526  12.183   5.847  11.203
 7877SOL     OW25527   6.393  12.126  10.099
 7877SOL    HW125528   6.460  12.172  10.149
 7877SOL    HW225529   6.432  12.115  10.012
 7878SOL     OW25530  13.861   6.638   9.603
 7878SOL    HW125531  13.802   6.708   9.576
 7878SOL    HW225532  13.924   6.680   9.661
 7879SOL     OW25533   8.299  11.551  14.774
 7879SOL    HW125534   8.234  11.491  14.739
 7879SOL    HW225535   8.327  11.603  14.699
 7880SOL     OW25536   0.947   1.645  11.274
 7880SOL    HW125537   0.999   1.569  11.247
 7880SOL    HW225538   0.908   1.620  11.357
 7881SOL     OW25539   6.668  10.393   8.891
 7881SOL    HW125540   6.601  10.442   8.844
 7881SOL    HW225541   6.635  10.388   8.981
 7882SOL     OW25542  10.119   1.443  13.386
 7882SOL    HW125543  10.201   1.449  13.336
 7882SOL    HW225544  10.060   1.505  13.343
 7883SOL     OW25545  13.466  11.399  14.396
 7883SOL    HW125546  13.454  11.445  14.479
 7883SOL    HW225547  13.441  11.463  14.330
 7884SOL     OW25548  13.565   4.071   2.557
 7884SOL    HW125549  13.629   4.036   2.495
 7884SOL    HW225550  13.502   4.119   2.503
 7885SOL     OW25551   4.351  11.451   1.123
 7885SOL    HW125552   4.327  11.541   1.100
 7885SOL    HW225553   4.285  11.397   1.079
 7886SOL     OW25554  11.143   8.353   3.509
 7886SOL    HW125555  11.048   8.362   3.502
 7886SOL    HW225556  11.155   8.278   3.568
 7887SOL     OW25557   5.514  13.589   4.789
 7887SOL    HW125558   5.584  13.644   4.753
 7887SOL    HW225559   5.461  13.648   4.841
 7888SOL     OW25560   0.681   4.360   8.037
 7888SOL    HW125561   0.645   4.383   7.952
 7888SOL    HW225562   0.775   4.350   8.022
 7889SOL     OW25563   6.754  14.027  10.103
 7889SOL    HW125564   6.815  13.965  10.063
 7889SOL    HW225565   6.678  14.026  10.044
 7890SOL     OW25566   7.617  13.652  11.634
 7890SOL    HW125567   7.527  13.663  11.603
 7890SOL    HW225568   7.647  13.741  11.651
 7891SOL     OW25569   4.545   5.141   9.103
 7891SOL    HW125570   4.492   5.168   9.028
 7891SOL    HW225571   4.569   5.051   9.084
 7892SOL     OW25572  12.988   4.389   1.591
 7892SOL    HW125573  12.901   4.372   1.555
 7892SOL    HW225574  12.975   4.393   1.685
 7893SOL     OW25575  13.579   7.585  10.795
 7893SOL    HW125576  13.571   7.674  10.828
 7893SOL    HW225577  13.661   7.585  10.746
 7894SOL     OW25578   7.802   1.822   1.949
 7894SOL    HW125579   7.718   1.777   1.961
 7894SOL    HW225580   7.852   1.800   2.028
 7895SOL     OW25581   6.103   8.457  13.902
 7895SOL    HW125582   6.111   8.467  13.997
 7895SOL    HW225583   6.121   8.544  13.867
 7896SOL     OW25584  14.666  10.997   6.420
 7896SOL    HW125585  14.658  11.057   6.346
 7896SOL    HW225586  14.735  10.936   6.394
 7897SOL     OW25587   4.357  14.877  10.390
 7897SOL    HW125588   4.411  14.833  10.455
 7897SOL    HW225589   4.268  14.870  10.423
 7898SOL     OW25590  11.575   6.776  14.845
 7898SOL    HW125591  11.543   6.743   0.049
 7898SOL    HW225592  11.597   6.868  14.862
 7899SOL     OW25593   8.400   2.029   2.324
 7899SOL    HW125594   8.445   2.064   2.401
 7899SOL    HW225595   8.328   2.091   2.309
 7900SOL     OW25596   9.307   8.906   1.812
 7900SOL    HW125597   9.392   8.916   1.770
 7900SOL    HW225598   9.278   8.818   1.789
 7901SOL     OW25599   4.125  10.026   5.976
 7901SOL    HW125600   4.113   9.945   6.026
 7901SOL    HW225601   4.151  10.091   6.041
 7902SOL     OW25602  10.881   8.432  11.356
 7902SOL    HW125603  10.796   8.427  11.312
 7902SOL    HW225604  10.864   8.401  11.445
 7903SOL     OW25605   6.350   0.858   3.361
 7903SOL    HW125606   6.261   0.872   3.328
 7903SOL    HW225607   6.404   0.920   3.311
 7904SOL     OW25608   8.056   1.074   2.390
 7904SOL    HW125609   8.144   1.108   2.404
 7904SOL    HW225610   8.068   0.979   2.380
 7905SOL     OW25611  12.316   2.883   5.595
 7905SOL    HW125612  12.303   2.811   5.534
 7905SOL    HW225613  12.229   2.899   5.632
 7906SOL     OW25614   1.262   6.337   0.166
 7906SOL    HW125615   1.223   6.424   0.167
 7906SOL    HW225616   1.333   6.341   0.230
 7907SOL     OW25617  14.009   4.130   6.128
 7907SOL    HW125618  14.065   4.127   6.050
 7907SOL    HW225619  13.920   4.130   6.093
 7908SOL     OW25620   7.613  13.378   9.544
 7908SOL    HW125621   7.615  13.413   9.455
 7908SOL    HW225622   7.640  13.452   9.599
 7909SOL     OW25623  12.489   9.963   5.391
 7909SOL    HW125624  12.473   9.924   5.305
 7909SOL    HW225625  12.582   9.986   5.391
 7910SOL     OW25626   7.377   6.745   4.969
 7910SOL    HW125627   7.382   6.770   4.877
 7910SOL    HW225628   7.430   6.810   5.014
 7911SOL     OW25629   3.180   4.518   3.821
 7911SOL    HW125630   3.176   4.454   3.892
 7911SOL    HW225631   3.092   4.556   3.817
 7912SOL     OW25632   7.790  11.716   8.064
 7912SOL    HW125633   7.886  11.713   8.070
 7912SOL    HW225634   7.761  11.735   8.153
 7913SOL     OW25635  14.618   3.200   8.138
 7913SOL    HW125636  14.676   3.275   8.155
 7913SOL    HW225637  14.544   3.238   8.091
 7914SOL     OW25638   2.972  13.314  13.466
 7914SOL    HW125639   2.986  13.375  13.394
 7914SOL    HW225640   2.979  13.227  13.426
 7915SOL     OW25641   0.858   3.988  10.308
 7915SOL    HW125642   0.876   3.976  10.401
 7915SOL    HW225643   0.777   4.040  10.307
 7916SOL     OW25644   1.549  11.859   4.952
 7916SOL    HW125645   1.485  11.838   4.883
 7916SOL    HW225646   1.496  11.883   5.027
 7917SOL     OW25647  14.862   1.704   4.397
 7917SOL    HW125648  14.851   1.756   4.476
 7917SOL    HW225649   0.054   1.746   4.350
 7918SOL     OW25650   9.688   8.084  13.426
 7918SOL    HW125651   9.605   8.130  13.442
 7918SOL    HW225652   9.718   8.117  13.341
 7919SOL     OW25653   0.259   9.811   8.440
 7919SOL    HW125654   0.289   9.721   8.452
 7919SOL    HW225655   0.245   9.844   8.528
 7920SOL     OW25656   2.417   4.493  13.539
 7920SOL    HW125657   2.395   4.421  13.480
 7920SOL    HW225658   2.333   4.527  13.568
 7921SOL     OW25659  14.075  11.585   5.883
 7921SOL    HW125660  14.077  11.642   5.960
 7921SOL    HW225661  14.056  11.498   5.918
 7922SOL     OW25662  14.638  14.594  10.456
 7922SOL    HW125663  14.726  14.564  10.480
 7922SOL    HW225664  14.637  14.591  10.360
 7923SOL     OW25665   0.134   0.776   8.176
 7923SOL    HW125666   0.140   0.836   8.102
 7923SOL    HW225667   0.224   0.744   8.188
 7924NA      NA25668   6.626   4.573   7.016
 7925NA      NA25669   9.098   8.448   8.737
 7926NA      NA25670   7.279   5.647   3.934
 7927NA      NA25671   9.775   6.918  10.902
 7928NA      NA25672   8.839   8.113   9.831
 7929NA      NA25673   8.313   7.025  10.100
 7930NA      NA25674   9.722   0.649   8.292
 7931NA      NA25675  10.359   6.123   2.989
 7932NA      NA25676   8.059   8.428   1.491
 7933NA      NA25677   9.156   7.930   3.966
 7934NA      NA25678   9.591   8.305   7.454
 7935NA      NA25679   3.791  11.068   6.405
 7936NA      NA25680   6.612   7.147   4.968
 7937NA      NA25681   6.867   4.305  14.276
 7938NA      NA25682  11.109   8.373  11.296
 7939NA      NA25683   7.707   6.274   3.320
 7940NA      NA25684   7.736   6.177   1.919
 7941NA      NA25685   8.393   8.674   6.423
 7942NA      NA25686   8.274  12.647   5.868
 7943NA      NA25687   9.297  12.496   9.448
 7944NA      NA25688   3.478  11.010   4.599
 7945NA      NA25689   7.050   7.887   5.494
 7946NA      NA25690  13.653   3.716   9.889
 7947NA      NA25691  10.106   6.828   7.520
 7948NA      NA25692   7.088   6.796   1.743
 7949NA      NA25693   8.982   6.799   9.769
 7950NA      NA25694   7.686   7.388   2.524
 7951NA      NA25695   8.162   5.359   4.169
 7952NA      NA25696  10.762   9.924  13.742
 7953NA      NA25697   9.000   5.928   5.131
 7954NA      NA25698   6.120   7.701   6.925
 7955NA      NA25699   1.468  10.037   4.551
 7956NA      NA25700   0.120   4.596   1.156
 7957NA      NA25701   8.526   7.528   8.335
 7958NA      NA25702  10.872   6.867  11.924
 7959NA      NA25703   9.620   9.971  12.212
 7960NA      NA25704   9.199   6.868   0.846
 7961NA      NA25705   9.645   9.007   9.905
 7962NA      NA25706   6.806   6.763   6.826
 7963NA      NA25707   7.901   8.232   2.510
 7964NA      NA25708   9.889   7.828   9.309
 7965NA      NA25709   9.512   7.083   1.774
 7966NA      NA25710   8.011   2.478   5.457
 7967NA      NA25711   9.948   9.095   8.731
 7968NA      NA25712   7.240   7.353   7.761
 7969NA      NA25713   3.117   8.141   9.806
 7970NA      NA25714   9.441   6.480   5.026
 7971NA      NA25715   7.355  10.133   2.720
 7972NA      NA25716   7.032   6.011   6.456
 7973NA      NA25717  11.356   7.186   5.134
 7974NA      NA25718   8.502   7.432   3.108
 7975NA      NA25719   8.378   6.266   7.427
 7976NA      NA25720   9.061   6.624   6.664
 7977NA      NA25721   1.708   4.186   1.519
 7978NA      NA25722   8.955   8.372   5.543
 7979NA      NA25723   7.592   7.311   6.598
 7980NA      NA25724   7.292   6.920   2.768
 7981NA      NA25725  10.127   8.341   2.940
 7982NA      NA25726   2.156   2.477   9.490
 7983NA      NA25727   8.619   8.821   5.915
 7984NA      NA25728  14.172  11.753   7.193
 7985NA      NA25729   1.878  14.362   2.646
 7986NA      NA25730   3.806   5.091   8.513
 7987NA      NA25731   9.113   6.054   7.943
  14.87968  14.87968  14.87968
